G2DPncore-PETIM in water
276810
    1aaa     O1    1   7.114   9.563   5.321 -0.1273  0.0443  0.0134
    1aaa     C1    2   7.030   9.470   5.389 -0.0517 -0.0345 -1.2336
    1aaa     H1    3   6.993   9.391   5.322 -0.7163 -0.9855  0.1942
    1aaa     H2    4   6.942   9.530   5.417 -0.3625 -1.1615  0.4097
    1aaa     C2    5   7.069   9.595   5.183  0.1936  0.5468  0.9220
    1aaa     H3    6   6.961   9.610   5.198 -0.0115 -1.6134  1.8886
    1aaa     H4    7   7.074   9.509   5.114  1.1324 -1.3360  3.2270
    1aaa     C3    8   7.090   9.431   5.525  0.1429 -0.8926 -0.1769
    1aaa     H5    9   7.102   9.521   5.586  1.1037 -0.7080 -0.6170
    1aaa     H6   10   7.194   9.397   5.517  1.0225  0.4051  3.5975
    1aaa     C4   11   7.135   9.717   5.113 -0.2898  0.1600  0.2235
    1aaa     H7   12   7.241   9.691   5.099 -0.0278  1.1305  0.3624
    1aaa     H8   13   7.136   9.802   5.182  1.0136 -0.4316  0.9725
    1aaa     C5   14   7.015   9.310   5.574  0.3459  0.5864  0.4787
    1aaa     H9   15   6.927   9.349   5.626  0.1565 -1.1927  1.5740
    1aaa    H10   16   6.983   9.244   5.493  1.2344  0.4068  0.2620
    1aaa     C6   17   7.080   9.767   4.974  0.8005  0.1453 -0.4654
    1aaa    H11   18   6.987   9.822   4.990  2.2673  2.5187  0.4876
    1aaa    H12   19   7.071   9.676   4.914 -1.1099  0.0314 -0.0970
    1aaa     N1   20   7.081   9.225   5.683  0.3944 -0.3606  0.2267
    1aaa     N2   21   7.172   9.864   4.909  0.1503 -0.1360  0.4726
    1aaa     C7   22   7.128  10.008   4.931 -1.1699 -0.2537  0.6196
    1aaa    H13   23   7.189  10.062   4.858  0.4273 -0.9283  1.4103
    1aaa    H14   24   7.021  10.020   4.912 -1.2617  0.4082  1.4970
    1aaa     C8   25   7.175   9.847   4.757  0.7399  0.1684  0.5889
    1aaa    H15   26   7.172   9.739   4.742  0.3030  0.3057 -0.3368
    1aaa    H16   27   7.085   9.884   4.709  0.1886  1.1457  2.2720
    1aaa     C9   28   7.128   9.310   5.799 -0.3311 -0.1913 -0.0791
    1aaa    H17   29   7.172   9.400   5.757  0.2560 -0.9414 -1.1181
    1aaa    H18   30   7.033   9.340   5.846  0.2828 -0.7432  1.6118
    1aaa    C10   31   6.990   9.108   5.728  0.4015 -0.3817  0.1410
    1aaa    H19   32   7.047   9.034   5.784  0.8420 -0.1992 -0.0594
    1aaa    H20   33   6.910   9.146   5.792  0.3006  0.8524 -0.6807
    1aaa    C11   34   7.157  10.069   5.072 -0.2675  0.6415 -0.2825
    1aaa    H21   35   7.081  10.038   5.144  0.5268  0.8305  0.6526
    1aaa    H22   36   7.250  10.020   5.103 -0.4382 -0.4455 -1.4111
    1aaa    C12   37   7.306   9.910   4.695  0.9963 -0.3069 -0.3805
    1aaa    H23   38   7.298  10.019   4.687 -2.0078 -0.3763  0.4300
    1aaa    H24   39   7.391   9.882   4.759 -0.7277 -0.0588  2.1925
    1aaa    C13   40   7.206   9.237   5.908  0.4347  0.5899  0.4683
    1aaa    H25   41   7.158   9.140   5.928  2.7300 -1.4489 -2.8237
    1aaa    H26   42   7.304   9.209   5.866 -0.3606  2.2104 -2.8220
    1aaa    C14   43   6.917   9.035   5.610  0.8068 -0.0728  0.7376
    1aaa    H27   44   6.837   9.101   5.577 -0.3896 -2.4801 -1.5521
    1aaa    H28   45   7.000   9.023   5.540 -0.1261 -0.6186 -0.2955
    1aaa    C15   46   6.852   8.906   5.661  0.2410  0.9790  0.2449
    1aaa    H29   47   6.921   8.831   5.701 -2.7209 -1.2620  1.5017
    1aaa    H30   48   6.780   8.932   5.740 -0.6196 -0.7751  0.0693
    1aaa    C16   49   7.200   9.310   6.043 -0.4928  0.4705 -0.2051
    1aaa    H31   50   7.258   9.403   6.032 -1.7558  1.2522 -0.5692
    1aaa    H32   51   7.094   9.338   6.041 -0.7234 -0.3962 -0.4733
    1aaa    C17   52   7.324   9.863   4.549  0.0426 -0.2977  0.1058
    1aaa    H33   53   7.323   9.754   4.542  0.4580 -0.5138  2.5678
    1aaa    H34   54   7.248   9.902   4.480  1.3623  0.3622 -1.0216
    1aaa    C18   55   7.164  10.221   5.077 -0.0029  0.3755  0.3039
    1aaa    H35   56   7.221  10.248   5.167 -2.1360  0.0836  1.8012
    1aaa    H36   57   7.219  10.253   4.988 -2.5502 -0.2304 -1.5939
    1aaa    H38   58   7.167   9.186   5.641 -1.6628 -3.0496 -1.8601
    1aaa    H37   59   7.268   9.857   4.947 -0.2280  0.8240  1.6921
    2bbb     N1   60   6.582   8.421   5.358  0.3545  0.1609  0.4330
    2bbb     C1   61   6.626   8.276   5.339  0.4312 -0.0038 -0.9326
    2bbb     H1   62   6.732   8.286   5.314  1.1386  1.9475  2.3491
    2bbb     H2   63   6.571   8.235   5.254  0.7855  2.3065 -2.3694
    2bbb     C2   64   6.429   8.437   5.383 -0.0214 -0.2544  1.2375
    2bbb     H3   65   6.415   8.545   5.382  0.6570 -0.0951 -2.5852
    2bbb     H4   66   6.398   8.397   5.480 -3.0194  0.1145  0.5441
    2bbb     C3   67   6.651   8.488   5.474  0.2867 -0.2066 -0.0479
    2bbb     H5   68   6.752   8.447   5.479  0.8707  1.3079  1.4417
    2bbb     H6   69   6.595   8.472   5.566 -0.4941  0.0179 -0.4737
    2bbb     C4   70   6.670   8.644   5.458 -0.2099  0.8278  0.1481
    2bbb     H7   71   6.575   8.690   5.430 -0.2775 -0.6688 -2.3071
    2bbb     H8   72   6.749   8.666   5.385  0.6112 -0.0382  0.7380
    2bbb     C5   73   6.601   8.178   5.457 -0.0035  0.2486 -0.3592
    2bbb     H9   74   6.508   8.204   5.509 -1.0476  1.6269 -2.7529
    2bbb    H10   75   6.667   8.200   5.542 -0.6655  2.6021 -0.3946
    2bbb     C6   76   6.344   8.389   5.263  0.0031  0.0156 -0.3481
    2bbb    H11   77   6.341   8.279   5.269 -0.2017  0.0177 -0.4159
    2bbb    H12   78   6.381   8.421   5.165  2.3317  2.7786  1.2593
    2bbb     C7   79   6.731   8.705   5.592  0.1987  0.1100 -0.0938
    2bbb    H13   80   6.813   8.639   5.621  1.1785  1.0233 -0.7048
    2bbb    H14   81   6.655   8.712   5.671  0.8694  0.1737  0.5567
    2bbb     C8   82   6.207   8.447   5.279 -0.0953  0.6788 -0.6151
    2bbb    H15   83   6.169   8.428   5.380  1.2103  1.8125  0.1399
    2bbb    H16   84   6.221   8.556   5.273  1.5492  0.5449  0.3310
    2bbb     C9   85   6.609   8.023   5.423 -0.2477 -0.2350 -0.8021
    2bbb    H17   86   6.518   7.979   5.381 -0.1559 -1.5991  0.3466
    2bbb    H18   87   6.634   7.981   5.521  0.0491  0.2164 -0.6811
    2bbb     O1   88   6.785   8.834   5.558 -0.0832 -0.2636  0.1070
    2bbb    H19   89   6.608   8.468   5.270  0.0768  1.7146  1.1429
    3bbb     N1   90   7.404   9.218   6.612  0.1403 -0.7077 -0.3665
    3bbb     C1   91   7.545   9.206   6.562 -0.4997 -0.3070  0.3438
    3bbb     H1   92   7.546   9.148   6.470 -0.6075 -0.8710  0.6923
    3bbb     H2   93   7.599   9.149   6.637 -0.1699 -0.0487  0.3080
    3bbb     C2   94   7.395   9.286   6.746 -0.7254 -0.2074  0.3850
    3bbb     H3   95   7.405   9.393   6.728  0.0727 -0.5998 -1.7372
    3bbb     H4   96   7.479   9.242   6.799  0.5215 -1.0390 -2.1242
    3bbb     C3   97   7.318   9.286   6.511  0.3850 -0.1039 -0.4749
    3bbb     H5   98   7.368   9.377   6.478 -0.1714  0.4164  0.0906
    3bbb     H6   99   7.225   9.310   6.564  0.3950 -0.8812 -0.0905
    3bbb     C4  100   7.288   9.200   6.388 -0.3174  0.3849  0.5631
    3bbb     H7  101   7.222   9.116   6.414  0.2433 -1.0800 -2.3107
    3bbb     H8  102   7.379   9.160   6.342  1.6888  2.7669  2.2019
    3bbb     C5  103   7.629   9.334   6.545  0.9336 -0.6610 -0.1718
    3bbb     H9  104   7.645   9.393   6.636 -0.9816  0.2743 -0.3832
    3bbb    H10  105   7.586   9.404   6.472  0.1480 -0.6821  0.2574
    3bbb     C6  106   7.266   9.244   6.821 -0.5562  0.0715 -0.0044
    3bbb    H11  107   7.263   9.134   6.831  2.3817 -0.1404 -0.4160
    3bbb    H12  108   7.181   9.285   6.766  1.3662  1.4670 -2.0738
    3bbb     C7  109   7.219   9.286   6.282 -0.1356  0.2172  0.3598
    3bbb    H13  110   7.273   9.381   6.276  1.1953 -0.3166  2.6796
    3bbb    H14  111   7.116   9.302   6.317  0.7956  2.0472  2.5312
    3bbb     C8  112   7.278   9.293   6.967  0.3772 -0.5566 -0.1550
    3bbb    H15  113   7.383   9.291   6.997  0.0360 -0.1128  1.0979
    3bbb    H16  114   7.247   9.398   6.976  0.0740 -0.5578 -1.0170
    3bbb     C9  115   7.774   9.321   6.492 -0.2682  0.0668  0.3432
    3bbb    H17  116   7.805   9.422   6.461 -0.1245  0.0924  0.5689
    3bbb    H18  117   7.785   9.260   6.402 -1.9658  0.4405 -0.1529
    3bbb     O1  118   7.242   9.226   6.150  0.6048  0.1888  0.3788
    3bbb    H19  119   7.369   9.121   6.623  1.7348 -1.1343  1.4226
    4bbb     N1  120   7.839   9.947   4.170  0.1603 -0.1472  0.1480
    4bbb     C1  121   7.920   9.858   4.262  0.4792  0.7276  0.2212
    4bbb     H1  122   7.897   9.753   4.246  1.8104  0.1868  1.5086
    4bbb     H2  123   7.884   9.873   4.364  1.5168 -0.9563  0.8838
    4bbb     C2  124   7.864   9.923   4.016 -0.1048  0.0167  0.5871
    4bbb     H3  125   7.847   9.818   3.993 -0.9453 -0.2817  2.4372
    4bbb     H4  126   7.970   9.937   3.995  0.2673  2.1487  3.3064
    4bbb     C3  127   7.687   9.916   4.194  0.2812 -0.6622  0.3950
    4bbb     H5  128   7.687   9.807   4.204 -0.7994 -0.7390 -0.3007
    4bbb     H6  129   7.623   9.939   4.109  0.4218 -0.1982  0.4131
    4bbb     C4  130   7.624   9.976   4.328 -0.3505 -0.3119 -0.4076
    4bbb     H7  131   7.604  10.083   4.313  0.0309 -0.0663  0.7810
    4bbb     H8  132   7.700   9.959   4.405  0.9146 -0.3714 -1.6439
    4bbb     C5  133   8.073   9.862   4.261  0.5556 -0.3905 -0.2422
    4bbb     H9  134   8.100   9.829   4.362  2.4877  1.5250 -0.0684
    4bbb    H10  135   8.103   9.966   4.249 -0.5231 -0.3215 -2.9751
    4bbb     C6  136   7.798  10.019   3.916 -0.2751  0.0502 -0.0167
    4bbb    H11  137   7.799  10.123   3.951 -2.3925 -0.0148  0.3636
    4bbb    H12  138   7.691   9.995   3.916 -0.1114 -0.7880  1.3428
    4bbb     C7  139   7.497   9.892   4.373  0.1521  0.4476 -0.0233
    4bbb    H13  140   7.532   9.790   4.354 -0.9613  0.3164 -1.5992
    4bbb    H14  141   7.417   9.909   4.299 -0.2390 -0.9126  0.0574
    4bbb     C8  142   7.839  10.004   3.775 -0.5212 -0.3329 -0.4507
    4bbb    H15  143   7.938  10.052   3.773 -0.2226 -0.9305 -0.2558
    4bbb    H16  144   7.853   9.898   3.749  1.7259  0.3525 -2.4583
    4bbb     C9  145   8.134   9.774   4.153  0.1291  0.3259  0.3300
    4bbb    H17  146   8.110   9.797   4.049 -4.7647 -1.7243  0.7233
    4bbb    H18  147   8.085   9.678   4.177 -0.5261  1.0152  1.8396
    4bbb     O1  148   7.455   9.919   4.515 -0.1542  0.0763 -0.0816
    4bbb    H19  149   7.864  10.046   4.182 -2.9371  0.6163  1.1278
    5bbb     N1  150   6.742  10.680   4.993  0.2190  0.4979 -0.3960
    5bbb     C1  151   6.763  10.832   4.975  0.4127  0.3238 -0.6490
    5bbb     H1  152   6.669  10.871   4.936  0.6611 -0.2983 -1.9419
    5bbb     H2  153   6.844  10.845   4.902  1.0930  0.0068  0.0324
    5bbb     C2  154   6.689  10.612   4.863  0.4381  0.0027  0.2606
    5bbb     H3  155   6.665  10.508   4.887  0.4761 -0.8538 -2.9367
    5bbb     H4  156   6.771  10.612   4.791 -0.5618  1.4382 -0.9327
    5bbb     C3  157   6.874  10.619   5.043  0.0146 -0.1195  0.1918
    5bbb     H5  158   6.908  10.683   5.125  0.9252  0.0117 -0.2715
    5bbb     H6  159   6.936  10.628   4.954  1.5420 -0.5783  1.1698
    5bbb     C4  160   6.873  10.465   5.075 -0.4423 -0.4495  0.5733
    5bbb     H7  161   6.821  10.403   5.001 -0.1323  1.0990 -1.0331
    5bbb     H8  162   6.830  10.451   5.175  0.5849 -1.8813  0.8466
    5bbb     C5  163   6.797  10.914   5.106  0.1580  0.0983  1.2425
    5bbb     H9  164   6.904  10.902   5.129 -0.1215  0.3720  2.8629
    5bbb    H10  165   6.738  10.877   5.191  0.1440 -0.0930  1.1476
    5bbb     C6  166   6.570  10.683   4.797  0.6857  0.2543  0.2891
    5bbb    H11  167   6.588  10.788   4.773 -0.5151  0.3568 -0.2520
    5bbb    H12  168   6.492  10.687   4.874  0.1395  1.4392 -0.2947
    5bbb     C7  169   7.020  10.418   5.076 -0.5490 -0.0423 -0.2099
    5bbb    H13  170   7.064  10.460   5.167  0.8897  0.8876 -1.2723
    5bbb    H14  171   7.078  10.455   4.990  1.2973 -0.9533  0.5959
    5bbb     C8  172   6.518  10.593   4.681  0.3740  0.2049 -0.0957
    5bbb    H15  173   6.602  10.574   4.613 -1.1859 -2.6401 -1.3733
    5bbb    H16  174   6.486  10.503   4.734 -3.9474  1.3800 -0.4034
    5bbb     C9  175   6.760  11.064   5.080 -0.3305 -0.2432 -0.4363
    5bbb    H17  176   6.651  11.078   5.073 -0.4579 -0.7077  0.5106
    5bbb    H18  177   6.796  11.086   4.978 -0.9691  0.4039 -0.5305
    5bbb     O1  178   7.035  10.276   5.078  0.0023  0.5392  0.2558
    5bbb    H19  179   6.680  10.650   5.070  0.7010 -3.4187 -1.3351
    6bbb     N1  180   5.662   8.197   5.148  0.0491 -0.4751  0.0841
    6bbb     C1  181   5.524   8.233   5.192  0.3919 -0.1530  0.4988
    6bbb     H1  182   5.457   8.149   5.174  0.5045 -0.4780  1.5287
    6bbb     H2  183   5.492   8.319   5.134 -1.3987 -0.0418  1.5948
    6bbb     C2  184   5.666   8.156   5.001 -0.3677 -0.2977  1.0281
    6bbb     H3  185   5.767   8.116   4.991  0.3875  1.7132  0.2340
    6bbb     H4  186   5.665   8.247   4.941 -0.1776  0.2501  1.8553
    6bbb     C3  187   5.747   8.318   5.164 -0.7460 -0.0105  0.2059
    6bbb     H5  188   5.738   8.346   5.269  1.2192 -0.4624  0.5286
    6bbb     H6  189   5.699   8.398   5.107 -0.2303  0.5530  0.5527
    6bbb     C4  190   5.898   8.304   5.130 -0.1856 -0.0632  0.3800
    6bbb     H7  191   5.913   8.314   5.022 -0.1397 -0.6461  0.3312
    6bbb     H8  192   5.936   8.205   5.159  0.2195  0.3667  1.3542
    6bbb     C5  193   5.502   8.265   5.346  0.6550  1.1759 -0.4179
    6bbb     H9  194   5.560   8.354   5.371 -1.6494  2.3294  1.0772
    6bbb    H10  195   5.546   8.184   5.407 -0.1365  1.0151 -0.0499
    6bbb     C6  196   5.574   8.046   4.953  0.1983 -0.1958 -0.1302
    6bbb    H11  197   5.472   8.083   4.935 -0.5757 -0.6411  2.7678
    6bbb    H12  198   5.564   7.955   5.014  2.4242  0.4921  1.4031
    6bbb     C7  199   5.984   8.410   5.203  0.4756 -0.9986 -0.1408
    6bbb    H13  200   5.975   8.374   5.306  2.1795  0.4162  0.5452
    6bbb    H14  201   5.950   8.514   5.196  1.3468 -0.6882  0.0214
    6bbb     C8  202   5.629   7.999   4.820  0.3535 -0.5670 -0.8555
    6bbb    H15  203   5.643   8.095   4.768 -0.2119  0.7542  1.2746
    6bbb    H16  204   5.731   7.962   4.841  1.5479  2.7056 -0.2347
    6bbb     C9  205   5.350   8.287   5.382 -0.1876 -0.2592 -0.4678
    6bbb    H17  206   5.294   8.200   5.345 -1.1802 -0.2634  0.9507
    6bbb    H18  207   5.313   8.371   5.322 -0.5535  0.7544  1.0911
    6bbb     O1  208   6.125   8.395   5.171  0.3010 -0.4408 -0.0553
    6bbb    H19  209   5.696   8.116   5.202 -2.4426 -0.5090  1.7676
    7bbb     N1  210   6.812   7.641   5.524 -0.3122 -0.3852 -1.0453
    7bbb     C1  211   6.694   7.545   5.515 -0.4926 -0.5778  0.4484
    7bbb     H1  212   6.711   7.463   5.585  0.3877 -0.3249  0.5403
    7bbb     H2  213   6.706   7.513   5.411 -0.4409 -0.1960  0.3369
    7bbb     C2  214   6.945   7.566   5.500  0.0926  0.9465 -0.7768
    7bbb     H3  215   6.955   7.490   5.577 -2.1179  0.2206 -1.1283
    7bbb     H4  216   7.033   7.626   5.523 -0.2134  1.6867 -1.4743
    7bbb     C3  217   6.798   7.743   5.412  0.1348  0.8604 -0.2480
    7bbb     H5  218   6.692   7.765   5.398 -0.2043 -1.2717 -1.4329
    7bbb     H6  219   6.822   7.702   5.314 -1.6408 -1.0620  0.0566
    7bbb     C4  220   6.883   7.868   5.449  0.1783 -0.0632  0.3056
    7bbb     H7  221   6.991   7.855   5.461  0.1153 -0.8284  0.0760
    7bbb     H8  222   6.854   7.887   5.553 -2.7468 -1.9595 -0.0692
    7bbb     C5  223   6.549   7.591   5.542  0.4398 -0.1904 -0.5078
    7bbb     H9  224   6.523   7.665   5.466  0.2897 -0.3737 -0.6368
    7bbb    H10  225   6.538   7.648   5.635 -1.8503  0.9903 -1.4361
    7bbb     C6  226   6.960   7.488   5.358 -0.2369 -0.3882 -0.2518
    7bbb    H11  227   6.944   7.550   5.269 -1.0514  0.7361  0.6408
    7bbb    H12  228   6.875   7.419   5.354 -1.7049  1.2436  1.1655
    7bbb     C7  229   6.851   7.996   5.374 -0.6054  0.7077  0.3282
    7bbb    H13  230   6.927   7.989   5.295 -1.1731 -0.2248 -0.1471
    7bbb    H14  231   6.863   8.089   5.432 -1.7828  0.2301  1.3845
    7bbb     C8  232   7.081   7.392   5.357 -0.0667 -0.5613 -0.2748
    7bbb    H15  233   7.073   7.331   5.448  0.2303 -0.6995 -0.3436
    7bbb    H16  234   7.070   7.326   5.270 -0.3815 -2.0914  0.8777
    7bbb     C9  235   6.444   7.477   5.541  0.6310 -0.0470 -0.6299
    7bbb    H17  236   6.453   7.425   5.445  1.6530 -0.2540 -0.4378
    7bbb    H18  237   6.343   7.517   5.553  0.6223 -0.4564  0.7991
    7bbb     O1  238   6.720   8.000   5.327  0.1409  0.1871 -0.1922
    7bbb    H19  239   6.809   7.682   5.618  0.2519 -2.5694 -0.0043
    8bbb     N1  240   6.874   9.032   7.318 -0.1406 -0.5751 -0.6612
    8bbb     C1  241   6.725   9.069   7.326  0.2430 -0.1395  0.1072
    8bbb     H1  242   6.677   8.971   7.327  1.6115 -0.8503 -0.3723
    8bbb     H2  243   6.691   9.134   7.245  1.3880  0.6656  0.2526
    8bbb     C2  244   6.897   8.901   7.246  0.0738 -0.3368 -0.0101
    8bbb     H3  245   7.004   8.881   7.242  0.2142  0.4405 -3.9371
    8bbb     H4  246   6.869   8.915   7.142 -1.3706 -2.1762  0.0836
    8bbb     C3  247   6.954   9.146   7.256  0.2792 -0.3061 -0.4280
    8bbb     H5  248   6.921   9.243   7.293 -0.1411  0.9565 -3.7569
    8bbb     H6  249   6.931   9.143   7.149  1.1928  0.0138 -0.6393
    8bbb     C4  250   7.110   9.137   7.274  0.3359 -0.0030 -0.4972
    8bbb     H7  251   7.137   9.035   7.245  0.3444 -0.0391 -0.3653
    8bbb     H8  252   7.128   9.131   7.382  0.4694 -0.1750 -0.5271
    8bbb     C5  253   6.679   9.133   7.457 -0.8221 -0.1284  0.0227
    8bbb     H9  254   6.691   9.054   7.532 -1.9847 -1.6397 -1.2969
    8bbb    H10  255   6.570   9.149   7.451 -0.5943  1.1177 -4.7878
    8bbb     C6  256   6.835   8.773   7.308 -0.1616  0.0761  0.5326
    8bbb    H11  257   6.851   8.695   7.233  2.6639  1.2257 -0.1977
    8bbb    H12  258   6.729   8.783   7.334 -0.3794 -0.7165 -0.0158
    8bbb     C7  259   7.184   9.252   7.197 -0.9501  0.4417 -0.4642
    8bbb    H13  260   7.281   9.265   7.246 -1.4058  0.0279  0.5914
    8bbb    H14  261   7.130   9.346   7.208  0.3933  1.1018  0.8368
    8bbb     C8  262   6.899   8.742   7.443  1.1096  0.1124  0.6381
    8bbb    H15  263   6.854   8.650   7.482  0.2133 -0.4464 -1.5528
    8bbb    H16  264   7.005   8.721   7.427  0.9523 -1.6615  1.6952
    8bbb     C9  265   6.747   9.263   7.492 -0.5146 -0.2401 -0.5837
    8bbb    H17  266   6.751   9.330   7.404 -1.3028  1.1767  0.4170
    8bbb    H18  267   6.846   9.233   7.529 -1.1997 -1.5658  0.2401
    8bbb     O1  268   7.206   9.209   7.057  0.0367  0.0170 -0.0173
    8bbb    H19  269   6.892   9.021   7.419 -1.8327  1.9992  0.0287
    9bbb     N1  270   8.206   9.325   6.888  0.4223  0.5899 -0.8993
    9bbb     C1  271   8.188   9.357   7.039 -0.0360  0.2347  0.7617
    9bbb     H1  272   8.171   9.258   7.081  0.0860 -0.1927 -0.1668
    9bbb     H2  273   8.093   9.410   7.034  0.6004  1.3217 -2.5500
    9bbb     C2  274   8.322   9.222   6.870 -0.1015  0.1186 -0.4780
    9bbb     H3  275   8.407   9.276   6.913 -0.6117 -0.1868  0.9948
    9bbb     H4  276   8.335   9.195   6.765  0.5208  1.7427 -0.8532
    9bbb     C3  277   8.075   9.264   6.845  0.0587  0.9740 -0.0514
    9bbb     H5  278   8.003   9.346   6.850 -1.4578 -0.3962  1.0455
    9bbb     H6  279   8.041   9.193   6.920  0.7349 -0.0846 -0.7100
    9bbb     C4  280   8.065   9.199   6.703  0.0482  1.2411 -0.3357
    9bbb     H7  281   7.993   9.117   6.718  0.8989  0.2792 -1.3177
    9bbb     H8  282   8.154   9.150   6.664 -1.1637  0.8455 -2.7715
    9bbb     C5  283   8.301   9.443   7.099  0.0911 -0.4267  0.1331
    9bbb     H9  284   8.345   9.522   7.037 -1.1443  1.5326  1.6408
    9bbb    H10  285   8.383   9.374   7.122  0.6327  0.2038  0.0974
    9bbb     C6  286   8.313   9.081   6.945 -0.8411  0.4193  0.1456
    9bbb    H11  287   8.223   9.024   6.918 -1.8743  1.1972  1.7962
    9bbb    H12  288   8.314   9.086   7.055  2.2448 -0.5612  0.2800
    9bbb     C7  289   8.001   9.289   6.591  0.1141 -0.3994  0.1977
    9bbb    H13  290   8.028   9.251   6.492 -0.1223  1.3222 -0.5695
    9bbb    H14  291   8.032   9.394   6.598 -1.7549  0.0982  2.1716
    9bbb     C8  292   8.443   9.003   6.915 -0.0152 -0.0073 -0.6195
    9bbb    H15  293   8.525   9.069   6.947 -2.9119  4.1210 -0.8719
    9bbb    H16  294   8.438   8.923   6.990 -0.6747  0.1387 -0.5003
    9bbb     C9  295   8.255   9.500   7.234 -0.1035  0.4216  0.0543
    9bbb    H17  296   8.202   9.420   7.288  2.1231 -0.9560  0.3379
    9bbb    H18  297   8.193   9.589   7.220 -0.2202  0.0202 -2.3520
    9bbb     O1  298   7.855   9.279   6.604  0.9285  0.1434 -0.6522
    9bbb    H19  299   8.225   9.414   6.841  0.1181  0.5109 -1.1751
   10bbb     N1  300   7.683  10.411   3.387  0.2007  0.7801  0.7541
   10bbb     C1  301   7.543  10.395   3.326  0.2238  0.4521 -0.6224
   10bbb     H1  302   7.472  10.411   3.408 -0.6987  2.3087 -1.7047
   10bbb     H2  303   7.538  10.290   3.296 -0.1211  0.5952 -1.0701
   10bbb     C2  304   7.711  10.548   3.444  0.6978 -0.0682  0.1823
   10bbb     H3  305   7.636  10.577   3.518 -0.1498  0.6342 -0.8914
   10bbb     H4  306   7.694  10.618   3.361 -1.6209 -1.8511 -0.9825
   10bbb     C3  307   7.705  10.303   3.501  0.6889  0.0466 -0.7073
   10bbb     H5  308   7.648  10.337   3.588  2.6394 -2.6686  1.8109
   10bbb     H6  309   7.809  10.307   3.535  1.1891 -1.8727 -1.9173
   10bbb     C4  310   7.668  10.157   3.484  0.5418 -0.1119  0.6224
   10bbb     H7  311   7.670  10.129   3.378 -0.2832  0.8186  0.3511
   10bbb     H8  312   7.568  10.142   3.526  0.2105 -3.7720 -1.0543
   10bbb     C5  313   7.500  10.483   3.206 -1.0221 -0.2810 -0.0812
   10bbb     H9  314   7.500  10.589   3.236  1.2935 -0.3048  0.2419
   10bbb    H10  315   7.398  10.451   3.184 -0.1326 -2.3766 -1.5073
   10bbb     C6  316   7.844  10.574   3.504  0.0746  0.2886  0.5131
   10bbb    H11  317   7.925  10.542   3.438  1.4096  3.2098  0.5717
   10bbb    H12  318   7.850  10.513   3.595  1.0450  0.8741  0.8599
   10bbb     C7  319   7.760  10.063   3.553 -0.3276  0.0952  0.6629
   10bbb    H13  320   7.864  10.082   3.525  0.1543 -2.4024  0.5502
   10bbb    H14  321   7.739   9.959   3.527  1.6299 -0.6083  1.7109
   10bbb     C8  322   7.867  10.719   3.534  0.1011 -0.0443 -0.3177
   10bbb    H15  323   7.771  10.761   3.568 -0.1248 -1.8410  1.4959
   10bbb    H16  324   7.940  10.725   3.615 -0.5078 -0.7104  0.2972
   10bbb     C9  325   7.595  10.465   3.086 -0.5985 -0.1019  0.8197
   10bbb    H17  326   7.693  10.507   3.114 -1.1181  1.5450  0.3043
   10bbb    H18  327   7.563  10.534   3.007  3.0106 -1.4531 -2.1003
   10bbb     O1  328   7.746  10.080   3.694  0.1731  1.4108  0.2536
   10bbb    H19  329   7.754  10.389   3.316  1.5173 -0.5093  2.3699
   11bbb     N1  330   8.709   9.610   4.049  0.4081 -0.3762 -0.9407
   11bbb     C1  331   8.774   9.478   4.074 -0.2781 -0.3730  0.2609
   11bbb     H1  332   8.882   9.489   4.059 -0.5354 -0.6522 -2.2649
   11bbb     H2  333   8.738   9.416   3.992  1.2446 -0.1293 -0.6394
   11bbb     C2  334   8.781   9.670   3.936  0.2296 -0.2152 -0.2755
   11bbb     H3  335   8.708   9.723   3.874  0.4747  0.4779  0.0149
   11bbb     H4  336   8.827   9.590   3.879  0.8979  1.4687 -2.2304
   11bbb     C3  337   8.561   9.599   4.024 -0.7950 -0.3153 -0.3084
   11bbb     H5  338   8.538   9.492   4.024 -2.1942 -0.0507  0.9211
   11bbb     H6  339   8.535   9.645   3.929  0.3845 -1.7911 -1.3957
   11bbb     C4  340   8.483   9.662   4.141  0.1709  0.4282  0.2365
   11bbb     H7  341   8.524   9.763   4.157  1.0723  0.5353 -2.2495
   11bbb     H8  342   8.515   9.619   4.236  0.9105 -1.4227 -0.7900
   11bbb     C5  343   8.741   9.418   4.205 -0.2040  0.1159 -0.3251
   11bbb     H9  344   8.633   9.422   4.220  0.0916  0.2439  2.1473
   11bbb    H10  345   8.785   9.471   4.289 -1.5491 -0.7866  0.9978
   11bbb     C6  346   8.902   9.764   3.965 -0.2410  1.0446  0.0517
   11bbb    H11  347   8.954   9.737   4.057  0.0100  0.0002 -0.3758
   11bbb    H12  348   8.861   9.863   3.986 -1.2053  0.6878 -0.0874
   11bbb     C7  349   8.331   9.655   4.116 -0.9104  0.0326  0.5967
   11bbb    H13  350   8.297   9.562   4.163 -1.3762 -1.1850 -2.0060
   11bbb    H14  351   8.305   9.653   4.010 -0.8365 -1.1843  0.5886
   11bbb     C8  352   9.007   9.746   3.851  0.4789 -0.2079  0.1328
   11bbb    H15  353   9.041   9.641   3.846 -0.6354 -0.5798  0.2588
   11bbb    H16  354   8.965   9.759   3.751  1.4666 -1.7037 -0.5170
   11bbb     C9  355   8.792   9.274   4.209 -0.0472  0.2780 -0.9498
   11bbb    H17  356   8.799   9.233   4.311  2.1960  0.6196 -0.9196
   11bbb    H18  357   8.895   9.283   4.174  0.8047  0.6921  1.4356
   11bbb     O1  358   8.273   9.772   4.179 -0.4443  0.2145  0.7243
   11bbb    H19  359   8.730   9.675   4.126 -2.4438 -0.6379  0.1961
   12bbb     N1  360   6.063  10.808   4.349  0.0594 -1.1745  0.3496
   12bbb     C1  361   5.962  10.809   4.458 -0.4089 -0.2183 -0.4870
   12bbb     H1  362   5.962  10.914   4.486  0.5166 -0.0337 -1.1194
   12bbb     H2  363   5.984  10.734   4.534  4.0803  0.4234 -0.8476
   12bbb     C2  364   6.067  10.935   4.266  0.2208  0.1086 -0.0323
   12bbb     H3  365   6.112  11.002   4.339 -0.4517  2.8110 -1.9845
   12bbb     H4  366   5.964  10.963   4.244  0.0103  1.2564  2.0990
   12bbb     C3  367   6.194  10.798   4.420  0.1576  0.0497 -0.3144
   12bbb     H5  368   6.211  10.863   4.506  2.9555  0.7268 -1.2771
   12bbb     H6  369   6.269  10.831   4.348 -1.3334  1.2428 -1.4071
   12bbb     C4  370   6.239  10.652   4.446 -0.4375 -0.0745  0.8690
   12bbb     H7  371   6.212  10.598   4.355 -0.7948  1.1036  0.2467
   12bbb     H8  372   6.177  10.608   4.525 -0.8766 -2.4551 -0.7140
   12bbb     C5  373   5.818  10.792   4.395  0.7370  0.5136 -0.1394
   12bbb     H9  374   5.810  10.685   4.373 -0.4701  0.8315 -1.4114
   12bbb    H10  375   5.815  10.846   4.299 -0.5392  2.2288  0.8191
   12bbb     C6  376   6.139  10.941   4.135  0.4784  0.1546  0.3246
   12bbb    H11  377   6.093  10.866   4.070  0.8318 -2.0531  2.4682
   12bbb    H12  378   6.243  10.917   4.157  0.3261  0.2936  1.2358
   12bbb     C7  379   6.388  10.628   4.480  0.9547  0.1979  0.4215
   12bbb    H13  380   6.447  10.699   4.421 -1.7414  0.2757 -2.4039
   12bbb    H14  381   6.412  10.523   4.457  0.3583  0.2879 -0.6743
   12bbb     C8  382   6.143  11.085   4.077 -0.1625  0.7715 -0.2944
   12bbb    H15  383   6.199  11.155   4.140  1.6784  1.4242 -2.5533
   12bbb    H16  384   6.216  11.077   3.996  1.7717  0.1793  1.4123
   12bbb     C9  385   5.705  10.815   4.491 -0.0273 -0.3041  0.0951
   12bbb    H17  386   5.686  10.923   4.500  0.4587 -0.2482  0.4929
   12bbb    H18  387   5.727  10.781   4.593 -1.0313 -1.1568  0.0411
   12bbb     O1  388   6.399  10.651   4.622  0.1150  0.5185 -0.0153
   12bbb    H19  389   6.053  10.734   4.277 -0.5447 -1.0388  0.2852
   13bbb     N1  390   6.918  11.500   5.355 -0.2190  0.3872 -0.1148
   13bbb     C1  391   6.939  11.613   5.252  0.6206 -0.6438  0.3821
   13bbb     H1  392   6.987  11.701   5.296 -0.5902 -0.1768  0.8054
   13bbb     H2  393   6.845  11.641   5.205  0.4459 -1.5422  0.1720
   13bbb     C2  394   6.883  11.563   5.489  0.2832  0.0207 -0.2927
   13bbb     H3  395   6.869  11.470   5.544  0.6489  0.2250  0.1601
   13bbb     H4  396   6.780  11.599   5.486 -0.2734 -1.2101  1.8197
   13bbb     C3  397   6.807  11.401   5.309 -0.3720 -0.4117 -0.3922
   13bbb     H5  398   6.832  11.374   5.207  0.1930 -0.1099 -0.3373
   13bbb     H6  399   6.707  11.445   5.319  0.4724  1.3534  0.8425
   13bbb     C4  400   6.809  11.269   5.386 -0.4565  0.4785 -0.0200
   13bbb     H7  401   6.757  11.281   5.481 -0.1079  0.2056  0.2081
   13bbb     H8  402   6.913  11.247   5.412 -0.7690  0.1141  0.9357
   13bbb     C5  403   7.017  11.567   5.133  0.2962 -0.2495 -0.3745
   13bbb     H9  404   6.949  11.502   5.076  1.3144 -1.6264 -0.0590
   13bbb    H10  405   7.103  11.506   5.163 -0.6738 -2.7512 -2.3072
   13bbb     C6  406   6.984  11.644   5.566  0.4867 -0.6833 -0.6687
   13bbb    H11  407   7.024  11.731   5.511  1.4232  1.1832  2.6775
   13bbb    H12  408   7.075  11.586   5.584  0.5808 -0.0599  1.0742
   13bbb     C7  409   6.751  11.150   5.303 -0.5584 -0.5267 -0.2822
   13bbb    H13  410   6.644  11.172   5.289 -0.6679 -0.1229  1.0439
   13bbb    H14  411   6.761  11.056   5.359  1.8728  0.2276  0.6746
   13bbb     C8  412   6.931  11.690   5.704  0.0191  0.0307  0.8559
   13bbb    H15  413   6.829  11.729   5.700  0.5916  1.5179 -0.2356
   13bbb    H16  414   6.945  11.607   5.774  1.7743 -0.7347 -0.3159
   13bbb     C9  415   7.069  11.695   5.056 -0.0950  0.0602 -0.0561
   13bbb    H17  416   7.116  11.666   4.961  0.1037  0.7265 -0.1652
   13bbb    H18  417   7.157  11.732   5.108 -0.6113  0.0117  0.8803
   13bbb     O1  418   6.819  11.148   5.175  0.0174  0.1725 -0.3549
   13bbb    H19  419   7.011  11.458   5.369 -0.4046  0.2982  0.9695
   14bbb     N1  420   5.354   7.525   4.616 -0.6120 -0.0270  0.4737
   14bbb     C1  421   5.367   7.400   4.704 -0.3208  0.1607 -0.1577
   14bbb     H1  422   5.267   7.356   4.710 -1.6173  2.4710 -2.7437
   14bbb     H2  423   5.392   7.429   4.806 -0.2789 -1.7048  0.3903
   14bbb     C2  424   5.216   7.578   4.627  0.1120  0.1084 -0.6071
   14bbb     H3  425   5.212   7.685   4.608 -0.6003  0.6384  2.0320
   14bbb     H4  426   5.187   7.562   4.731 -1.9748  0.1046 -1.1575
   14bbb     C3  427   5.454   7.633   4.662  0.4204  0.2716 -0.3294
   14bbb     H5  428   5.545   7.580   4.687 -0.4832 -0.3744  1.8912
   14bbb     H6  429   5.415   7.688   4.749  1.0536  0.3475 -0.0873
   14bbb     C4  430   5.489   7.744   4.561  0.2644  0.3506  0.6654
   14bbb     H7  431   5.403   7.799   4.521  0.3063  1.2079  1.7138
   14bbb     H8  432   5.537   7.699   4.473 -0.1366  1.6438 -0.2330
   14bbb     C5  433   5.470   7.301   4.656 -0.1813  0.3666 -0.9992
   14bbb     H9  434   5.481   7.225   4.733 -1.8246  0.1108 -0.9874
   14bbb    H10  435   5.566   7.349   4.630 -1.2007  1.0894 -3.7454
   14bbb     C6  436   5.117   7.519   4.534  0.2465 -0.0203  0.3607
   14bbb    H11  437   5.016   7.550   4.564 -0.0570  1.4535 -1.9387
   14bbb    H12  438   5.117   7.411   4.519  0.7798  0.0778 -0.3632
   14bbb     C7  439   5.581   7.848   4.622 -0.2102 -0.2143 -0.0043
   14bbb    H13  440   5.582   7.937   4.558  1.0286  0.6849  1.2005
   14bbb    H14  441   5.684   7.810   4.630  0.2542  1.0460  0.2989
   14bbb     C8  442   5.138   7.582   4.394  0.7064 -0.2100  1.2403
   14bbb    H15  443   5.226   7.551   4.337 -0.5350 -0.4283 -0.6643
   14bbb    H16  444   5.061   7.550   4.322  1.7630  1.3249 -0.6607
   14bbb     C9  445   5.410   7.219   4.542 -0.2383 -0.3624  0.4442
   14bbb    H17  446   5.305   7.195   4.566 -0.3900 -1.0024 -0.7457
   14bbb    H18  447   5.464   7.127   4.517 -0.2954 -0.1696 -0.4424
   14bbb     O1  448   5.543   7.900   4.754 -0.2033  0.1820 -0.1620
   14bbb    H19  449   5.379   7.491   4.522 -0.8367 -1.1976  0.8186
   15bbb     N1  450   5.000   8.158   5.817 -0.3689 -0.6389 -0.5616
   15bbb     C1  451   4.979   8.293   5.885  0.3789  0.5061  0.0306
   15bbb     H1  452   4.922   8.364   5.825  0.6409  0.0427 -0.7762
   15bbb     H2  453   5.069   8.350   5.908 -1.5260  3.5559  0.4251
   15bbb     C2  454   4.868   8.108   5.765 -0.1979  0.0672  0.5540
   15bbb     H3  455   4.848   8.155   5.669 -0.9806 -0.1586  0.6019
   15bbb     H4  456   4.791   8.137   5.837 -0.9546 -0.8541  0.1384
   15bbb     C3  457   5.097   8.171   5.701  0.5421  0.3258 -0.2759
   15bbb     H5  458   5.072   8.265   5.653  1.6018  0.8113  0.1018
   15bbb     H6  459   5.075   8.094   5.627 -2.4664  1.8156 -1.1152
   15bbb     C4  460   5.245   8.182   5.738  0.1238  0.2700  0.5166
   15bbb     H7  461   5.264   8.098   5.806 -2.9328 -0.0977  1.0387
   15bbb     H8  462   5.268   8.275   5.792  1.1084  0.0563  0.4904
   15bbb     C5  463   4.897   8.293   6.013  0.8787  0.2508 -0.7308
   15bbb     H9  464   4.959   8.263   6.098 -0.7294 -0.5789  0.1884
   15bbb    H10  465   4.812   8.224   6.005  0.3787  0.9805 -2.2229
   15bbb     C6  466   4.859   7.951   5.743 -0.6985 -1.0516  0.4004
   15bbb    H11  467   4.964   7.921   5.736 -0.2298  0.7787 -1.4248
   15bbb    H12  468   4.797   7.935   5.654 -1.6070  4.3005 -0.2591
   15bbb     C7  469   5.342   8.177   5.613  0.5270  0.1029  0.2029
   15bbb    H13  470   5.305   8.092   5.556  1.8012 -0.0722 -0.4070
   15bbb    H14  471   5.446   8.164   5.646  0.7210  0.6857 -0.1462
   15bbb     C8  472   4.817   7.875   5.865  0.0284  0.2398  0.1446
   15bbb    H15  473   4.876   7.901   5.954  1.2961  2.0321 -1.1609
   15bbb    H16  474   4.830   7.770   5.838 -1.2698  0.0351  0.2490
   15bbb     C9  475   4.852   8.429   6.054  0.8431 -0.9718  0.0444
   15bbb    H17  476   4.941   8.491   6.041  0.6070  0.2011  3.1525
   15bbb    H18  477   4.766   8.464   5.996  1.0482 -0.7587 -0.1307
   15bbb     O1  478   5.338   8.295   5.526  0.0016 -0.3166 -0.0913
   15bbb    H19  479   5.038   8.093   5.887  2.9941 -0.0495 -1.6766
   16bbb     N1  480   7.580   7.590   5.156  0.1207 -0.1146  0.2228
   16bbb     C1  481   7.604   7.587   5.004 -0.1882 -0.4525  0.8237
   16bbb     H1  482   7.551   7.674   4.966 -1.3564 -0.2980  2.6776
   16bbb     H2  483   7.567   7.494   4.962  0.2697  0.1410 -0.9879
   16bbb     C2  484   7.551   7.738   5.199  0.5627 -0.4568  0.1939
   16bbb     H3  485   7.480   7.725   5.280 -1.2304  1.2434 -1.0048
   16bbb     H4  486   7.491   7.783   5.120  1.1436 -0.8953 -0.5190
   16bbb     C3  487   7.459   7.513   5.194 -0.1144  0.0374  0.0904
   16bbb     H5  488   7.461   7.419   5.138  1.9918 -0.1343  0.3818
   16bbb     H6  489   7.369   7.567   5.163 -1.9337 -2.5642  0.4449
   16bbb     C4  490   7.450   7.466   5.343  0.3757 -0.1181  0.5643
   16bbb     H7  491   7.445   7.556   5.406 -0.9461  0.8438 -0.8283
   16bbb     H8  492   7.534   7.407   5.380  1.0732  0.1900 -0.4765
   16bbb     C5  493   7.750   7.599   4.963  0.4788 -0.4025 -0.0216
   16bbb     H9  494   7.793   7.500   4.978  0.9661 -0.3608 -1.0274
   16bbb    H10  495   7.801   7.651   5.045 -0.4284 -1.1253  1.0309
   16bbb     C6  496   7.660   7.839   5.231  0.4544  0.3301 -0.5826
   16bbb    H11  497   7.615   7.932   5.268  2.1089  0.6333  0.7511
   16bbb    H12  498   7.723   7.870   5.147 -1.6438  2.2324 -1.5638
   16bbb     C7  499   7.323   7.384   5.366 -0.0296 -0.3553  0.6966
   16bbb    H13  500   7.324   7.324   5.458 -0.1550  0.5258  1.2901
   16bbb    H14  501   7.317   7.308   5.288  2.1864  0.9599 -0.8578
   16bbb     C8  502   7.745   7.784   5.350  0.1541  0.1433 -0.1209
   16bbb    H15  503   7.813   7.867   5.372  0.0325  0.1022  0.4247
   16bbb    H16  504   7.674   7.758   5.430  0.6054  0.3983  0.3674
   16bbb     C9  505   7.772   7.680   4.838  0.1195 -0.5385  0.6933
   16bbb    H17  506   7.879   7.702   4.832  0.0817 -0.5967 -0.3022
   16bbb    H18  507   7.722   7.777   4.849  2.9728  0.9449  1.5852
   16bbb     O1  508   7.201   7.472   5.357 -0.6249  0.4490  0.2264
   16bbb    H19  509   7.656   7.552   5.214  0.4610  0.1849 -0.0179
   17bbb     N1  510   6.510   6.940   5.550  0.0099 -0.3562 -0.2592
   17bbb     C1  511   6.552   6.987   5.404 -0.3241  0.3225 -0.3324
   17bbb     H1  512   6.655   7.023   5.409 -0.8073  1.7788 -0.3632
   17bbb     H2  513   6.485   7.068   5.375 -0.1356  0.5189 -0.2240
   17bbb     C2  514   6.624   6.856   5.601  0.5559  0.3962 -1.3940
   17bbb     H3  515   6.713   6.919   5.601  0.5160  0.6077  1.9507
   17bbb     H4  516   6.632   6.779   5.524 -0.2410  0.7268 -1.8244
   17bbb     C3  517   6.496   7.065   5.637 -1.1033 -0.2489  0.5320
   17bbb     H5  518   6.593   7.115   5.644 -1.0743 -0.4013  1.3740
   17bbb     H6  519   6.463   7.042   5.738 -2.1595 -1.6423 -0.1084
   17bbb     C4  520   6.395   7.169   5.578  0.0694  0.1645  0.4154
   17bbb     H7  521   6.303   7.112   5.563  0.9920 -0.9813 -1.1864
   17bbb     H8  522   6.422   7.207   5.479 -0.4257  0.5702  0.4348
   17bbb     C5  523   6.539   6.882   5.290 -0.1498 -0.4229 -0.6346
   17bbb     H9  524   6.436   6.845   5.285 -0.7901  1.4250 -3.5645
   17bbb    H10  525   6.603   6.795   5.311  1.3001  1.2207  2.6301
   17bbb     C6  526   6.610   6.804   5.747  0.3090  0.1414 -0.3551
   17bbb    H11  527   6.582   6.878   5.824  2.8603 -2.0474  2.9605
   17bbb    H12  528   6.711   6.771   5.774  0.0662 -0.7673 -0.5300
   17bbb     C7  529   6.367   7.285   5.673  0.1528  0.2800  0.3777
   17bbb    H13  530   6.363   7.249   5.777  1.2144 -3.7853 -0.8039
   17bbb    H14  531   6.270   7.333   5.655  0.8055  1.3227 -0.5009
   17bbb     C8  532   6.512   6.688   5.757 -0.0349 -0.0855  0.5303
   17bbb    H15  533   6.516   6.641   5.856  0.1271  1.6584  1.3959
   17bbb    H16  534   6.409   6.721   5.742 -0.1339 -0.3701  0.5667
   17bbb     C9  535   6.559   6.936   5.144 -0.1355  0.0036 -0.2340
   17bbb    H17  536   6.658   6.981   5.127 -0.0591  0.2241  0.7285
   17bbb    H18  537   6.477   7.009   5.139 -0.2990 -0.1490  0.1930
   17bbb     O1  538   6.468   7.391   5.658 -0.4938  0.6221  0.0776
   17bbb    H19  539   6.419   6.891   5.546 -0.7234  1.0103 -3.0228
   18bbb     N1  540   7.016   8.693   7.984  0.7667 -0.2461  0.3114
   18bbb     C1  541   7.085   8.568   7.933 -0.4789  0.0644  0.2058
   18bbb     H1  542   7.192   8.581   7.941 -0.3982 -1.2453  1.7514
   18bbb     H2  543   7.064   8.544   7.828  3.5269 -0.7044 -0.5877
   18bbb     C2  544   7.097   8.734   8.105 -0.3969 -1.2332 -0.3650
   18bbb     H3  545   7.180   8.797   8.072 -0.0278 -2.0557 -1.0487
   18bbb     H4  546   7.144   8.649   8.154 -0.0884 -0.0596  1.4339
   18bbb     C3  547   7.032   8.803   7.875  0.6942  0.3293 -0.0668
   18bbb     H5  548   7.138   8.826   7.858  0.2525  1.1760 -1.9297
   18bbb     H6  549   6.975   8.880   7.926 -0.6157 -0.9701  0.4891
   18bbb     C4  550   6.966   8.769   7.739 -0.4050  0.4498 -0.2131
   18bbb     H7  551   6.869   8.722   7.760 -0.4699  1.4345  1.9362
   18bbb     H8  552   7.024   8.685   7.699 -0.7050 -0.0465  0.3593
   18bbb     C5  553   7.065   8.438   8.017  0.2168  0.6354 -0.5390
   18bbb     H9  554   6.959   8.429   8.044  0.6809  1.6924  1.9663
   18bbb    H10  555   7.125   8.429   8.109  1.3463 -3.1122 -1.4708
   18bbb     C6  556   7.014   8.806   8.212 -0.5334 -0.3247 -0.4591
   18bbb    H11  557   6.943   8.739   8.262  1.7698 -1.9946  0.8158
   18bbb    H12  558   6.960   8.884   8.157  0.0069  1.6020  1.6135
   18bbb     C7  559   6.951   8.884   7.640 -0.5292 -0.0945  0.1459
   18bbb    H13  560   7.053   8.916   7.612 -0.1490 -1.6263 -0.3525
   18bbb    H14  561   6.909   8.973   7.689 -0.7801  0.4190 -0.9763
   18bbb     C8  562   7.097   8.867   8.328 -1.2973 -0.0282 -0.2543
   18bbb    H15  563   7.178   8.802   8.361  1.3913  2.6681 -1.0850
   18bbb    H16  564   7.146   8.961   8.301 -0.8663  0.0109  0.6360
   18bbb     C9  565   7.083   8.312   7.926  0.0424  0.1422 -0.3185
   18bbb    H17  566   7.184   8.297   7.887 -0.3043  0.9031 -1.5699
   18bbb    H18  567   7.019   8.309   7.837 -0.2482 -0.6026 -0.0952
   18bbb     O1  568   6.866   8.855   7.522  0.1778  0.1763 -0.3908
   18bbb    H19  569   6.918   8.683   8.013  0.2175  0.7231 -1.0993
   19bbb     N1  570   6.394   9.627   7.722 -0.1455 -0.2222  0.2106
   19bbb     C1  571   6.288   9.517   7.736  0.4030  0.4370 -0.9885
   19bbb     H1  572   6.292   9.469   7.834  1.4312  2.4986  0.0277
   19bbb     H2  573   6.311   9.442   7.659 -0.7900 -1.0139  0.0061
   19bbb     C2  574   6.416   9.693   7.851  0.3051 -0.1618 -0.5789
   19bbb     H3  575   6.481   9.629   7.911  3.0422  1.1746 -1.9153
   19bbb     H4  576   6.320   9.692   7.902  0.9039 -0.1180  0.5942
   19bbb     C3  577   6.523   9.571   7.661  0.2111  0.4356 -0.4127
   19bbb     H5  578   6.580   9.658   7.629  1.1228 -0.4151 -1.1681
   19bbb     H6  579   6.497   9.500   7.583  1.9044  0.2455 -0.8594
   19bbb     C4  580   6.623   9.493   7.757  0.1959  0.9447  0.5645
   19bbb     H7  581   6.584   9.405   7.809 -1.6852  1.3146 -0.1447
   19bbb     H8  582   6.672   9.558   7.830  1.9467  0.2700  0.0426
   19bbb     C5  583   6.146   9.569   7.722 -0.0534  0.3516 -0.1502
   19bbb     H9  584   6.126   9.598   7.618 -2.4518  0.5033  0.2955
   19bbb    H10  585   6.138   9.656   7.788  3.1393  1.5588 -1.1487
   19bbb     C6  586   6.465   9.838   7.839 -0.7456 -0.3252  0.6157
   19bbb    H11  587   6.392   9.899   7.783 -0.1552  0.6180  0.8492
   19bbb    H12  588   6.556   9.850   7.780 -0.9270 -1.2001  0.1504
   19bbb     C7  589   6.726   9.429   7.669  0.2228  0.1166  0.1536
   19bbb    H13  590   6.814   9.390   7.721  0.4465  2.0207  1.3005
   19bbb    H14  591   6.774   9.506   7.606  0.2331  0.6049  0.7438
   19bbb     C8  592   6.492   9.900   7.978  0.3955 -0.1466 -0.5552
   19bbb    H15  593   6.555   9.826   8.030 -0.6029  0.7550  2.1080
   19bbb    H16  594   6.535  10.001   7.973 -0.8858  0.5236  1.0759
   19bbb     C9  595   6.043   9.461   7.754  0.5965 -0.5349 -0.0552
   19bbb    H17  596   6.067   9.408   7.847 -1.1068 -2.1985 -0.5124
   19bbb    H18  597   6.042   9.390   7.671 -2.2903 -2.1152  1.1961
   19bbb     O1  598   6.660   9.325   7.586  1.1998  0.5001 -0.1833
   19bbb    H19  599   6.367   9.695   7.650  2.0114 -2.1862 -2.6383
   20bbb     N1  600   8.613   8.594   6.446  0.6698  0.1279 -0.5938
   20bbb     C1  601   8.745   8.507   6.428  0.2525 -0.4363  0.2200
   20bbb     H1  602   8.739   8.437   6.344  1.8568 -1.7401  1.1276
   20bbb     H2  603   8.746   8.438   6.513 -2.0095 -1.7537 -0.7470
   20bbb     C2  604   8.484   8.512   6.450  0.0738 -0.4553 -0.3727
   20bbb     H3  605   8.471   8.463   6.353  0.8931 -3.4054  0.8924
   20bbb     H4  606   8.405   8.585   6.470  1.4367  0.1372  3.7542
   20bbb     C3  607   8.627   8.681   6.574  0.0642  0.1450 -0.0946
   20bbb     H5  608   8.710   8.746   6.546  1.0778 -0.8087  0.6168
   20bbb     H6  609   8.661   8.621   6.659  0.8590  2.0391  0.9965
   20bbb     C4  610   8.510   8.778   6.621 -0.2636  0.6554  0.2264
   20bbb     H7  611   8.424   8.715   6.648  1.2014 -1.9754 -0.8966
   20bbb     H8  612   8.492   8.841   6.533 -0.2384  0.6456  0.2145
   20bbb     C5  613   8.878   8.587   6.418  0.4080 -0.1901  0.4239
   20bbb     H9  614   8.965   8.522   6.436 -0.1167 -1.5241 -1.4989
   20bbb    H10  615   8.883   8.675   6.483  2.2719 -0.5234  0.7983
   20bbb     C6  616   8.475   8.406   6.561  0.2083 -0.6023  0.2607
   20bbb    H11  617   8.448   8.453   6.657  3.9911 -1.3173  1.8386
   20bbb    H12  618   8.571   8.361   6.588  0.3248 -3.0357 -3.4937
   20bbb     C7  619   8.542   8.865   6.746 -0.1424 -0.2906  0.3882
   20bbb    H13  620   8.625   8.932   6.721 -2.0384  1.8349 -0.5992
   20bbb    H14  621   8.566   8.811   6.838  2.4756 -2.0486 -1.1728
   20bbb     C8  622   8.366   8.302   6.525 -0.2883 -0.7903  0.3275
   20bbb    H15  623   8.290   8.349   6.461 -0.0631 -0.9646 -0.0757
   20bbb    H16  624   8.410   8.225   6.460  0.5736  0.6940 -0.9112
   20bbb     C9  625   8.898   8.635   6.275 -0.3319 -0.1572  0.0347
   20bbb    H17  626   8.839   8.727   6.261  0.2344 -0.1354 -2.9673
   20bbb    H18  627   8.866   8.559   6.202  0.7589 -0.5934  0.0049
   20bbb     O1  628   8.437   8.957   6.782 -0.0899 -0.3127 -0.3360
   20bbb    H19  629   8.611   8.654   6.363  0.8889 -0.1688 -0.8177
   21bbb     N1  630   8.492   9.773   7.754  0.0440  0.4786 -0.2189
   21bbb     C1  631   8.434   9.822   7.890 -0.7648  0.1882 -0.3174
   21bbb     H1  632   8.514   9.865   7.951 -3.1714  1.2723  2.3210
   21bbb     H2  633   8.396   9.728   7.931 -1.8394 -0.8701 -3.4470
   21bbb     C2  634   8.608   9.684   7.792  0.2845 -0.1127 -0.0392
   21bbb     H3  635   8.642   9.654   7.692 -0.5327 -0.0442 -0.3446
   21bbb     H4  636   8.569   9.595   7.841  0.4473  0.3500  0.9431
   21bbb     C3  637   8.389   9.691   7.676  0.4056 -0.6170 -0.1772
   21bbb     H5  638   8.306   9.757   7.652 -0.2184 -1.3214 -0.0260
   21bbb     H6  639   8.349   9.617   7.746 -0.7755 -0.7001 -0.9157
   21bbb     C4  640   8.442   9.633   7.543  0.1768  0.2360  0.6185
   21bbb     H7  641   8.498   9.542   7.564 -0.2462 -0.1986 -0.0963
   21bbb     H8  642   8.505   9.706   7.489 -0.4080 -0.0002 -0.4214
   21bbb     C5  643   8.313   9.913   7.870 -0.0400 -0.1235 -0.1714
   21bbb     H9  644   8.235   9.846   7.832 -0.2465  0.1141 -0.1652
   21bbb    H10  645   8.334   9.995   7.800 -0.7400 -1.2781 -1.8218
   21bbb     C6  646   8.721   9.742   7.883 -0.5320 -0.3517  0.1729
   21bbb    H11  647   8.808   9.675   7.880 -0.0926  0.2360 -0.9528
   21bbb    H12  648   8.691   9.762   7.986 -1.2057  0.0644 -0.1036
   21bbb     C7  649   8.320   9.581   7.450 -0.4223 -0.2842 -0.5285
   21bbb    H13  650   8.243   9.658   7.436  0.1263  0.5636  0.8571
   21bbb    H14  651   8.272   9.496   7.501  2.7484 -0.5291  2.4330
   21bbb     C8  652   8.774   9.879   7.829 -0.3548 -0.3142 -0.2974
   21bbb    H15  653   8.692   9.951   7.837 -0.4484 -0.4777  0.3020
   21bbb    H16  654   8.851   9.913   7.900 -0.2936 -0.4904 -0.2801
   21bbb     C9  655   8.260   9.982   7.995 -0.0077  0.3691  0.1503
   21bbb    H17  656   8.205   9.902   8.046 -0.8189  0.5436 -0.4185
   21bbb    H18  657   8.183  10.059   7.978  0.0708  0.2390 -0.8804
   21bbb     O1  658   8.363   9.543   7.316 -0.4737  0.1303  0.0110
   21bbb    H19  659   8.532   9.853   7.703  1.4387  0.7559  1.2051
   22bbb     N1  660   8.337  10.859   3.273 -0.8064  0.3498  0.3037
   22bbb     C1  661   8.447  10.838   3.381 -1.1655  0.4043  0.2358
   22bbb     H1  662   8.432  10.751   3.446 -1.0255  0.8062  0.8104
   22bbb     H2  663   8.441  10.923   3.448 -3.3201 -0.8800  1.8092
   22bbb     C2  664   8.315  10.745   3.172  0.0507 -0.3343 -0.0777
   22bbb     H3  665   8.252  10.671   3.220 -0.1845 -1.4463 -2.0052
   22bbb     H4  666   8.414  10.709   3.143  0.3073  1.1048 -1.1157
   22bbb     C3  667   8.218  10.853   3.365  0.0863  1.2676  0.4479
   22bbb     H5  668   8.252  10.896   3.460  0.8739 -1.2407  1.3890
   22bbb     H6  669   8.192  10.750   3.389  1.2809  1.0179  0.7164
   22bbb     C4  670   8.090  10.937   3.332 -0.1588  0.3776 -0.3123
   22bbb     H7  671   8.049  10.919   3.232  0.8822  0.8649 -0.8422
   22bbb     H8  672   8.123  11.041   3.344  2.7491 -0.2741 -1.8552
   22bbb     C5  673   8.597  10.829   3.333  0.2856  0.0348  0.5951
   22bbb     H9  674   8.602  10.894   3.245 -0.1693 -0.7843 -0.0487
   22bbb    H10  675   8.629  10.732   3.292  1.1986  1.2121 -1.6880
   22bbb     C6  676   8.237  10.780   3.045 -0.7640  0.3648 -0.8766
   22bbb    H11  677   8.167  10.862   3.065 -0.5430  0.0934  1.2389
   22bbb    H12  678   8.165  10.700   3.029  1.2678 -1.5155 -1.1309
   22bbb     C7  679   7.984  10.911   3.443 -0.0863  0.4807 -0.3189
   22bbb    H13  680   7.905  10.986   3.441 -0.5199  0.0193 -0.5715
   22bbb    H14  681   8.040  10.920   3.537  0.3746  0.8349 -0.6221
   22bbb     C8  682   8.330  10.799   2.927 -0.1885  0.1796  0.6297
   22bbb    H15  683   8.388  10.708   2.905 -0.5127  0.1836 -0.2910
   22bbb    H16  684   8.269  10.826   2.840 -0.6774  0.2717  0.9972
   22bbb     C9  685   8.689  10.882   3.443 -0.1088 -0.7197  0.5633
   22bbb    H17  686   8.684  10.810   3.526 -0.4644  0.6181  1.7348
   22bbb    H18  687   8.654  10.976   3.486 -2.2805 -1.2065  0.0273
   22bbb     O1  688   7.927  10.780   3.418 -0.0416  0.3503  0.0958
   22bbb    H19  689   8.344  10.946   3.217  0.1244 -0.2471 -0.5385
   23bbb     N1  690   7.578   9.978   2.738  0.0320  0.0602 -0.5864
   23bbb     C1  691   7.454   9.967   2.654 -0.0857  0.3071  0.4181
   23bbb     H1  692   7.461   9.871   2.602  0.4778  0.4331  0.2572
   23bbb     H2  693   7.451  10.049   2.582  1.6821  0.9028  0.9865
   23bbb     C2  694   7.703   9.968   2.653  0.2539 -0.1995  0.1661
   23bbb     H3  695   7.791   9.971   2.717  0.5071 -0.8523 -0.1435
   23bbb     H4  696   7.703  10.060   2.595  0.0978  1.4137  2.5772
   23bbb     C3  697   7.580  10.113   2.816  0.3963 -0.0376 -0.7274
   23bbb     H5  698   7.483  10.120   2.867  1.3426 -0.9650  1.2885
   23bbb     H6  699   7.586  10.199   2.749  0.9802 -0.3128 -1.0349
   23bbb     C4  700   7.686  10.141   2.925  0.4093 -0.2777 -0.7625
   23bbb     H7  701   7.785  10.122   2.881  0.9742  1.7704 -0.4686
   23bbb     H8  702   7.679  10.069   3.007 -0.3080 -0.2164 -0.7707
   23bbb     C5  703   7.314   9.959   2.715 -0.5333  0.3133 -0.1635
   23bbb     H9  704   7.287  10.054   2.762  0.2120  0.3253  0.2550
   23bbb    H10  705   7.330   9.887   2.796 -3.6239 -1.3799 -0.9188
   23bbb     C6  706   7.701   9.851   2.558  0.0519 -0.5316  0.2600
   23bbb    H11  707   7.617   9.842   2.488  1.1630 -3.4646 -0.8348
   23bbb    H12  708   7.689   9.764   2.624 -0.8982 -0.1326  0.6308
   23bbb     C7  709   7.690  10.289   2.950 -0.4181 -0.0774 -0.8704
   23bbb    H13  710   7.691  10.352   2.860  1.5148  2.7704  0.9730
   23bbb    H14  711   7.787  10.318   2.992  0.1705 -1.8964 -0.8989
   23bbb     C8  712   7.833   9.838   2.485  0.2223 -0.2588 -0.2716
   23bbb    H15  713   7.910   9.815   2.560  0.7358 -1.3620 -1.1194
   23bbb    H16  714   7.817   9.754   2.416 -1.4920 -0.5300  0.4247
   23bbb     C9  715   7.200   9.908   2.620  0.0798 -0.2011  0.4891
   23bbb    H17  716   7.134   9.858   2.692  0.3598 -2.3564 -0.6840
   23bbb    H18  717   7.236   9.832   2.549  1.1170  0.7190 -0.0023
   23bbb     O1  718   7.587  10.329   3.042 -0.0427 -0.2258 -0.3569
   23bbb    H19  719   7.586   9.906   2.811  1.4707  1.9815  1.2912
   24bbb     N1  720   9.493   9.836   3.836  1.0143 -0.1188  0.0725
   24bbb     C1  721   9.570   9.835   3.704 -0.4279 -0.6694 -0.0520
   24bbb     H1  722   9.658   9.898   3.715  0.4234 -1.6810 -0.9255
   24bbb     H2  723   9.502   9.889   3.637 -0.8025  0.6628  1.3173
   24bbb     C2  724   9.597   9.827   3.945  0.6776  0.0103 -0.2215
   24bbb     H3  725   9.658   9.918   3.937 -0.3695  0.8439  0.7946
   24bbb     H4  726   9.668   9.748   3.919  1.3471  0.6154 -0.2847
   24bbb     C3  727   9.412   9.962   3.853 -0.4117  0.0337 -0.6276
   24bbb     H5  728   9.472  10.052   3.842  2.3434 -1.3004  1.8638
   24bbb     H6  729   9.375   9.967   3.955  0.1694  1.4607 -0.4651
   24bbb     C4  730   9.291   9.979   3.765  0.1029 -0.1566  0.1296
   24bbb     H7  731   9.339  10.001   3.669  3.3363  1.2090  1.9244
   24bbb     H8  732   9.235  10.068   3.797  0.8457  1.7326 -3.3050
   24bbb     C5  733   9.616   9.693   3.645  0.0509 -0.6188 -0.3113
   24bbb     H9  734   9.530   9.629   3.626 -0.5616 -0.3291  1.3434
   24bbb    H10  735   9.663   9.630   3.721 -0.4088  0.3905  0.8474
   24bbb     C6  736   9.549   9.825   4.092  0.8073  0.2588  0.1343
   24bbb    H11  737   9.508   9.724   4.106  1.7720 -0.3140 -0.9372
   24bbb    H12  738   9.474   9.902   4.112  0.5020  0.3322 -1.2231
   24bbb     C7  739   9.203   9.849   3.761  0.3844 -0.4755 -0.9301
   24bbb    H13  740   9.262   9.757   3.755  2.0979  0.6219 -1.7666
   24bbb    H14  741   9.145   9.861   3.669  0.6895 -1.2413 -1.2282
   24bbb     C8  742   9.666   9.850   4.183  0.8635 -0.1195 -0.6513
   24bbb    H15  743   9.747   9.778   4.170 -0.8278 -2.1803 -0.4198
   24bbb    H16  744   9.691   9.956   4.169  1.2354 -0.0403  0.4914
   24bbb     C9  745   9.705   9.712   3.528 -0.5389 -0.0139  0.3957
   24bbb    H17  746   9.790   9.774   3.559  1.2762 -2.3993  0.4678
   24bbb    H18  747   9.653   9.764   3.446 -0.5692 -0.0150  0.4146
   24bbb     O1  748   9.111   9.843   3.876 -0.0982  0.1518 -0.8692
   24bbb    H19  749   9.431   9.754   3.830  2.0854 -0.8443 -2.4690
   25bbb     N1  750   8.730   8.879   3.812  0.0230 -0.2928 -0.2482
   25bbb     C1  751   8.788   8.946   3.685 -0.8694 -0.0452  0.1296
   25bbb     H1  752   8.820   8.866   3.619  0.9557  0.7657 -0.0342
   25bbb     H2  753   8.875   9.003   3.719  0.4461 -0.1228 -2.8612
   25bbb     C2  754   8.839   8.796   3.880 -0.1557  0.0072 -0.6141
   25bbb     H3  755   8.789   8.758   3.969 -2.0788 -0.7099 -1.9160
   25bbb     H4  756   8.917   8.866   3.908  1.0721 -0.9779 -1.4458
   25bbb     C3  757   8.693   9.002   3.903 -0.7085  0.3425  0.3480
   25bbb     H5  758   8.623   9.056   3.840  0.4102  1.4724  0.0415
   25bbb     H6  759   8.775   9.073   3.913 -0.7730  0.1407  3.3327
   25bbb     C4  760   8.646   8.969   4.045  0.8529  0.3993 -0.3533
   25bbb     H7  761   8.666   8.863   4.063  2.3144  0.6921 -0.0858
   25bbb     H8  762   8.540   8.994   4.059  0.6197 -0.2324 -0.9800
   25bbb     C5  763   8.702   9.034   3.599 -0.1314  0.4578 -0.2031
   25bbb     H9  764   8.760   9.044   3.507  0.6844  1.2999  0.3904
   25bbb    H10  765   8.685   9.137   3.632 -2.4447  0.2459 -0.5064
   25bbb     C6  766   8.891   8.689   3.787  0.1638 -0.3156  0.3413
   25bbb    H11  767   8.986   8.654   3.829  1.5164  2.2228 -0.4137
   25bbb    H12  768   8.931   8.730   3.694 -1.7054  0.3449 -0.2272
   25bbb     C7  769   8.738   9.049   4.148 -0.6393  0.3933  0.0582
   25bbb    H13  770   8.845   9.026   4.135 -0.4508  1.5869 -0.6784
   25bbb    H14  771   8.705   9.019   4.248 -1.2391  1.6147  0.2475
   25bbb     C8  772   8.785   8.586   3.741 -0.2509  0.6442  0.2173
   25bbb    H15  773   8.729   8.552   3.829 -1.7136  1.7165 -0.2561
   25bbb    H16  774   8.712   8.636   3.676 -1.5143  1.0323  1.8647
   25bbb     C9  775   8.564   8.958   3.560 -0.4673 -0.3306  0.6169
   25bbb    H17  776   8.505   9.024   3.495 -0.2964 -0.8090 -0.0360
   25bbb    H18  777   8.490   8.952   3.640 -0.9636  0.3762  0.2171
   25bbb     O1  778   8.716   9.187   4.129 -0.9011 -0.2935 -0.1687
   25bbb    H19  779   8.644   8.830   3.784  0.1284 -0.5937 -0.0583
   26bbb     N1  780   5.746  11.412   3.831  0.2803  0.4880 -0.2577
   26bbb     C1  781   5.759  11.561   3.865  0.3178  0.3188  0.3293
   26bbb     H1  782   5.678  11.609   3.810 -1.9236 -2.7860  0.6220
   26bbb     H2  783   5.855  11.597   3.827  0.2324 -0.3694 -0.5814
   26bbb     C2  784   5.711  11.392   3.688 -0.2142 -0.5461  0.4938
   26bbb     H3  785   5.652  11.477   3.654 -0.7067 -1.4568 -1.0215
   26bbb     H4  786   5.643  11.308   3.683 -1.9913  0.9026 -1.3719
   26bbb     C3  787   5.863  11.333   3.877 -0.1775  0.6494  0.3299
   26bbb     H5  788   5.888  11.374   3.975  1.0161  0.6989  0.0219
   26bbb     H6  789   5.944  11.344   3.805  1.6164 -2.0018  1.7848
   26bbb     C4  790   5.841  11.181   3.880 -0.1394 -0.1939  0.0846
   26bbb     H7  791   5.791  11.148   3.788  0.7948 -0.1830 -0.4397
   26bbb     H8  792   5.775  11.170   3.966  0.8985 -0.5969  0.8514
   26bbb     C5  793   5.745  11.605   4.014 -0.0811  0.4820  0.1759
   26bbb     H9  794   5.828  11.556   4.066 -1.4033  0.0930  1.9893
   26bbb    H10  795   5.656  11.560   4.058 -0.4745  0.4220 -0.6537
   26bbb     C6  796   5.827  11.376   3.591 -0.2121  0.2838 -0.0779
   26bbb    H11  797   5.884  11.285   3.616  1.4360  1.7388  1.8183
   26bbb    H12  798   5.896  11.459   3.606 -0.3211  0.7452 -1.9583
   26bbb     C7  799   5.980  11.108   3.910  0.9485 -0.5919 -0.2859
   26bbb    H13  800   6.056  11.161   3.851  0.1673  0.3110 -0.5111
   26bbb    H14  801   5.977  11.003   3.879 -0.3947 -0.6356 -0.0968
   26bbb     C8  802   5.779  11.378   3.449  0.2479 -0.8920  0.3977
   26bbb    H15  803   5.863  11.356   3.382 -0.8236 -3.5796 -0.1762
   26bbb    H16  804   5.700  11.305   3.427  0.4854 -0.8280 -0.7642
   26bbb     C9  805   5.742  11.765   4.031  0.2384  0.3218 -0.1618
   26bbb    H17  806   5.775  11.812   3.938 -0.2009 -0.2405 -0.6133
   26bbb    H18  807   5.810  11.786   4.115  1.4589  0.5893 -1.1958
   26bbb     O1  808   6.013  11.136   4.045  0.3522 -0.9512  0.0117
   26bbb    H19  809   5.672  11.367   3.888  1.8981 -1.3125  0.5460
   27bbb     N1  810   5.221  10.518   4.390  0.4345 -0.2532  0.4325
   27bbb     C1  811   5.210  10.515   4.235  0.4583  0.0417  0.5908
   27bbb     H1  812   5.283  10.444   4.195  0.6797  0.1762  0.7538
   27bbb     H2  813   5.228  10.616   4.198  0.8155 -0.1945  0.1052
   27bbb     C2  814   5.245  10.370   4.428  0.0352 -0.1589  0.3540
   27bbb     H3  815   5.338  10.344   4.378 -0.6751 -0.7639 -0.6800
   27bbb     H4  816   5.166  10.315   4.378  0.2750 -1.7786  1.6718
   27bbb     C3  817   5.348  10.596   4.429 -0.5799 -0.1531 -0.5248
   27bbb     H5  818   5.418  10.534   4.374  1.0434 -0.5063  1.7816
   27bbb     H6  819   5.363  10.577   4.536  0.7655  0.6599 -0.5520
   27bbb     C4  820   5.347  10.741   4.390  0.0292 -0.2798  0.5407
   27bbb     H7  821   5.246  10.777   4.412 -0.3992 -1.9026  1.3927
   27bbb     H8  822   5.373  10.760   4.285  3.0793 -0.7359  1.1241
   27bbb     C5  823   5.080  10.462   4.181 -0.3062  0.5702  0.2325
   27bbb     H9  824   5.002  10.537   4.200  0.6249  1.4627  0.6096
   27bbb    H10  825   5.042  10.375   4.237  0.9689  0.4015  0.8617
   27bbb     C6  826   5.251  10.331   4.571  0.1885 -0.1530  0.0757
   27bbb    H11  827   5.155  10.352   4.621  1.1513  3.3231  0.7275
   27bbb    H12  828   5.323  10.400   4.616 -0.3866  0.9446 -0.6410
   27bbb     C7  829   5.457  10.817   4.462 -0.0969  0.1089  0.2538
   27bbb    H13  830   5.437  10.810   4.570 -0.3843  2.0593  0.3580
   27bbb    H14  831   5.463  10.925   4.442  0.0173  0.4055  1.7277
   27bbb     C8  832   5.288  10.186   4.590  0.1380 -0.5271 -0.0343
   27bbb    H15  833   5.394  10.185   4.561  0.5918 -3.9283  1.3327
   27bbb    H16  834   5.230  10.121   4.523 -1.2693  1.4544 -0.8279
   27bbb     C9  835   5.079  10.437   4.032 -0.0860  0.1130  0.0256
   27bbb    H17  836   5.106  10.528   3.978 -0.5475  0.8580  1.0203
   27bbb    H18  837   5.144  10.352   4.008  2.0026  1.8895 -0.9619
   27bbb     O1  838   5.583  10.748   4.439 -0.0264  0.4145 -0.0611
   27bbb    H19  839   5.132  10.556   4.427 -1.8972 -0.7991 -3.9491
   28bbb     N1  840   7.292  12.026   6.067 -0.3189 -0.4434  0.0117
   28bbb     C1  841   7.224  12.058   6.200 -0.2465  0.2547 -0.3531
   28bbb     H1  842   7.218  11.967   6.260  1.4709  0.4271  0.1382
   28bbb     H2  843   7.120  12.086   6.185 -0.5075 -1.4837 -2.1016
   28bbb     C2  844   7.426  11.979   6.094  0.4922 -0.2064 -0.6608
   28bbb     H3  845   7.414  11.879   6.135 -0.7054 -0.3063 -1.2296
   28bbb     H4  846   7.478  12.040   6.168  0.9334  0.0493 -1.1666
   28bbb     C3  847   7.220  11.932   5.983  0.4814  0.0227  0.4204
   28bbb     H5  848   7.229  11.840   6.041 -0.9309 -0.1097  0.4862
   28bbb     H6  849   7.279  11.911   5.893  0.0420 -1.5705  0.4578
   28bbb     C4  850   7.071  11.960   5.937  0.3833  0.3625 -0.9318
   28bbb     H7  851   7.089  12.037   5.861  0.8733  0.8404 -0.3445
   28bbb     H8  852   7.019  12.016   6.016 -0.3591 -1.0732 -0.3693
   28bbb     C5  853   7.286  12.176   6.283  0.1489  0.4308  0.3648
   28bbb     H9  854   7.256  12.265   6.228 -3.2626 -1.0993 -0.5222
   28bbb    H10  855   7.394  12.180   6.304  0.0712 -2.3225  1.8544
   28bbb     C6  856   7.521  11.963   5.976 -0.1412  0.4439  0.3199
   28bbb    H11  857   7.513  12.048   5.907  1.6132 -0.3127 -0.8770
   28bbb    H12  858   7.497  11.872   5.920 -1.0192  0.0014  1.3715
   28bbb     C7  859   6.982  11.844   5.885 -0.2322 -0.6945  0.0060
   28bbb    H13  860   6.878  11.879   5.887 -0.2776 -0.7653 -0.7875
   28bbb    H14  861   6.983  11.763   5.960 -0.0768 -0.3704  0.3583
   28bbb     C8  862   7.662  11.938   6.025  0.1457 -0.3537  0.1517
   28bbb    H15  863   7.669  11.861   6.102  0.1519  0.0750  0.5838
   28bbb    H16  864   7.711  11.900   5.935 -0.3241  0.3171 -0.3965
   28bbb     C9  865   7.214  12.180   6.421 -0.2333 -0.1098  0.1211
   28bbb    H17  866   7.246  12.090   6.475 -0.6213 -2.2925 -3.0184
   28bbb    H18  867   7.105  12.170   6.430 -0.1287  0.0965  2.4119
   28bbb     O1  868   7.014  11.806   5.748 -0.1137 -0.8710  0.0248
   28bbb    H19  869   7.308  12.113   6.014 -0.1170  0.1894  1.0685
   29bbb     N1  870   6.854  12.192   5.145 -0.1880  0.4480 -0.0790
   29bbb     C1  871   6.702  12.220   5.137  0.8023  0.1046 -0.1216
   29bbb     H1  872   6.660  12.258   5.230  0.0716 -0.1443 -0.3410
   29bbb     H2  873   6.654  12.125   5.112  0.1036  0.3047  0.4419
   29bbb     C2  874   6.925  12.311   5.222 -0.5690  0.6131 -0.5456
   29bbb     H3  875   6.932  12.398   5.156  1.6679  2.7575  2.2906
   29bbb     H4  876   7.032  12.289   5.233 -0.4136  0.3660 -2.1638
   29bbb     C3  877   6.871  12.067   5.220 -0.3691  0.1866 -0.4151
   29bbb     H5  878   6.786  12.007   5.187  0.2600  0.1254 -2.0032
   29bbb     H6  879   6.874  12.083   5.328  1.6178  2.0886 -0.6949
   29bbb     C4  880   6.988  11.988   5.179  0.0618  0.6034  1.0235
   29bbb     H7  881   6.988  11.900   5.244 -0.2487  0.2353  0.5304
   29bbb     H8  882   7.085  12.034   5.201 -0.3426  1.9239  0.1575
   29bbb     C5  883   6.668  12.318   5.024 -0.2114 -0.4987  0.1319
   29bbb     H9  884   6.707  12.277   4.930 -0.5983 -0.0685 -0.2201
   29bbb    H10  885   6.731  12.406   5.044  0.8859 -0.7766 -1.8747
   29bbb     C6  886   6.877  12.345   5.362 -0.0403 -0.1616  0.0953
   29bbb    H11  887   6.870  12.248   5.412 -0.6114 -1.5257 -2.4624
   29bbb    H12  888   6.779  12.395   5.360  0.3084  0.5672  0.6473
   29bbb     C7  889   6.989  11.923   5.032 -0.4093  0.1530  0.4817
   29bbb    H13  890   7.092  11.939   4.997 -0.3214  2.1330  1.4706
   29bbb    H14  891   6.921  11.978   4.966 -0.3194 -0.0784  0.1926
   29bbb     C8  892   6.989  12.418   5.439 -0.1440 -0.2367  0.8268
   29bbb    H15  893   6.956  12.448   5.539 -0.5353 -3.2673  1.7168
   29bbb    H16  894   7.078  12.355   5.451  0.7219  0.3492 -1.8890
   29bbb     C9  895   6.514  12.348   5.020 -0.2533 -0.5040 -0.6632
   29bbb    H17  896   6.461  12.258   4.985 -0.8001 -0.4307 -0.0575
   29bbb    H18  897   6.497  12.436   4.957 -0.8348  0.3776  0.6624
   29bbb     O1  898   6.958  11.787   5.038 -0.2006  0.4257  0.4706
   29bbb    H19  899   6.892  12.178   5.051  0.7306  0.8570  0.2197
   30bbb     N1  900   4.810   7.857   4.163 -0.6309  0.2181 -0.2890
   30bbb     C1  901   4.685   7.841   4.248  0.4300 -0.2356  0.0285
   30bbb     H1  902   4.597   7.848   4.183  0.2420  0.8836  0.3879
   30bbb     H2  903   4.695   7.922   4.319 -0.3383  0.2740 -0.4225
   30bbb     C2  904   4.821   8.000   4.115 -1.2165 -0.0918 -0.4144
   30bbb     H3  905   4.920   8.008   4.068 -0.8272  1.8022  0.6270
   30bbb     H4  906   4.826   8.059   4.206 -0.3885  0.0185 -0.5233
   30bbb     C3  907   4.935   7.833   4.245 -0.4316  0.3384 -0.5309
   30bbb     H5  908   4.923   7.736   4.294 -0.7904 -0.2621 -1.7743
   30bbb     H6  909   4.943   7.910   4.322 -0.3186  1.8526 -1.9945
   30bbb     C4  910   5.071   7.822   4.175 -0.2490 -0.4874 -0.4191
   30bbb     H7  911   5.094   7.920   4.130  2.1216 -0.7283  0.1362
   30bbb     H8  912   5.064   7.734   4.109  0.0590 -2.3859  1.9591
   30bbb     C5  913   4.675   7.703   4.318  0.5895 -0.2445 -0.4375
   30bbb     H9  914   4.743   7.696   4.404 -1.6573 -1.2303  1.3516
   30bbb    H10  915   4.680   7.617   4.249 -2.8298 -0.5280 -0.5168
   30bbb     C6  916   4.704   8.057   4.036  0.5964 -0.1065 -0.4925
   30bbb    H11  917   4.729   8.157   3.999 -0.2981 -0.5813 -2.5033
   30bbb    H12  918   4.611   8.071   4.092 -0.0010 -0.0598 -1.4885
   30bbb     C7  919   5.185   7.791   4.282 -0.2603  0.2102  0.3406
   30bbb    H13  920   5.230   7.886   4.314 -0.5765 -0.0269  1.5529
   30bbb    H14  921   5.262   7.732   4.232 -0.5390 -0.0913  0.2617
   30bbb     C8  922   4.668   7.979   3.907  0.6042  0.0644  0.1530
   30bbb    H15  923   4.761   7.956   3.854 -0.3890 -1.2211 -1.1006
   30bbb    H16  924   4.631   7.883   3.946  2.9563 -0.7047  0.6064
   30bbb     C9  925   4.534   7.697   4.382  0.1007 -0.2505 -0.0974
   30bbb    H17  926   4.461   7.718   4.303 -0.7654  0.6865  0.9224
   30bbb    H18  927   4.535   7.780   4.453  0.3992  0.6382 -1.1102
   30bbb     O1  928   5.138   7.727   4.404  0.6409  0.7848  0.1994
   30bbb    H19  929   4.801   7.783   4.092  2.3757 -2.1856  1.5910
   31bbb     N1  930   5.576   7.347   4.013 -0.7122  0.3836  0.5157
   31bbb     C1  931   5.533   7.249   3.905  0.1669  0.2974  0.2660
   31bbb     H1  932   5.529   7.150   3.950  3.4933  0.3057  0.8670
   31bbb     H2  933   5.620   7.247   3.838  0.0243  2.3870 -0.0618
   31bbb     C2  934   5.600   7.491   3.959  0.6130  0.1048  0.4512
   31bbb     H3  935   5.507   7.528   3.917  2.1746  1.6413 -1.8284
   31bbb     H4  936   5.654   7.477   3.866 -0.2166  0.2579 -0.0665
   31bbb     C3  937   5.481   7.353   4.134  0.4417 -0.3690  0.2605
   31bbb     H5  938   5.398   7.414   4.099  0.1089 -1.4809 -0.9566
   31bbb     H6  939   5.538   7.415   4.204  1.7458  0.7266 -1.6784
   31bbb     C4  940   5.421   7.228   4.193 -0.8845  0.5994 -0.2023
   31bbb     H7  941   5.502   7.164   4.230 -0.6699  0.6286 -0.6162
   31bbb     H8  942   5.381   7.162   4.114 -0.1711 -1.7054  1.2508
   31bbb     C5  943   5.392   7.273   3.836 -0.1835 -0.2449 -0.5999
   31bbb     H9  944   5.383   7.379   3.811 -1.5118 -0.2170 -0.0897
   31bbb    H10  945   5.311   7.264   3.909  1.3711 -0.0602  1.2143
   31bbb     C6  946   5.681   7.595   4.042  0.3816  0.4523  0.4283
   31bbb    H11  947   5.784   7.567   4.067  0.6576 -0.1009 -1.2326
   31bbb    H12  948   5.629   7.622   4.135  0.5999  1.9890  0.1334
   31bbb     C7  949   5.331   7.257   4.313 -0.2802  0.1802  0.2180
   31bbb    H13  950   5.287   7.164   4.351 -1.0785 -0.1026 -1.3361
   31bbb    H14  951   5.244   7.317   4.284 -2.1238 -1.7095  1.5331
   31bbb     C8  952   5.687   7.726   3.966 -0.6241  0.3516 -0.5831
   31bbb    H15  953   5.728   7.693   3.870  0.0190 -1.4565  0.2564
   31bbb    H16  954   5.596   7.785   3.959 -0.3361  0.9640  0.5562
   31bbb     C9  955   5.368   7.182   3.709  1.0847  0.1267 -0.0830
   31bbb    H17  956   5.445   7.202   3.633 -0.3446  0.1781 -1.5897
   31bbb    H18  957   5.273   7.218   3.666  1.5395  0.3644 -0.9006
   31bbb     O1  958   5.406   7.317   4.428  0.1226 -0.5011 -0.1002
   31bbb    H19  959   5.660   7.299   4.048 -0.1450  1.1160  0.1748
   32bbb     N1  960   4.352   7.745   5.824  0.3426  0.2002 -0.3742
   32bbb     C1  961   4.477   7.674   5.763  0.1858  0.3681 -0.7256
   32bbb     H1  962   4.482   7.584   5.824 -0.4548  0.5077 -0.4576
   32bbb     H2  963   4.568   7.728   5.789  0.5178 -0.6394  0.2905
   32bbb     C2  964   4.232   7.659   5.808 -0.2509 -0.3868  0.1534
   32bbb     H3  965   4.179   7.656   5.903  0.9044 -0.8994  0.8005
   32bbb     H4  966   4.265   7.558   5.781 -0.8765 -0.6734  0.4332
   32bbb     C3  967   4.364   7.765   5.974 -0.5971  0.7591  0.3119
   32bbb     H5  968   4.375   7.666   6.020 -0.4135  1.1763  1.1893
   32bbb     H6  969   4.271   7.797   6.020 -0.0413 -0.2199  2.2606
   32bbb     C4  970   4.460   7.888   6.009 -0.0795  0.2028  0.8526
   32bbb     H7  971   4.432   7.917   6.111  0.7417 -0.4383  1.2788
   32bbb     H8  972   4.434   7.970   5.942  1.4562 -0.6288 -0.8657
   32bbb     C5  973   4.483   7.641   5.610 -0.1676  0.0673 -0.4520
   32bbb     H9  974   4.457   7.732   5.556 -0.0542  1.8342  2.2669
   32bbb    H10  975   4.420   7.553   5.595  0.8738 -1.0517  1.3994
   32bbb     C6  976   4.147   7.718   5.688 -0.2876 -0.0198  0.2219
   32bbb    H11  977   4.218   7.744   5.609  1.0893 -0.1211  1.3842
   32bbb    H12  978   4.084   7.800   5.723 -1.8697 -0.3217 -1.7370
   32bbb     C7  979   4.610   7.850   6.000  0.5024 -0.2637  0.0596
   32bbb    H13  980   4.611   7.741   5.987 -2.1949 -0.3068 -0.5118
   32bbb    H14  981   4.653   7.890   6.092  1.5482  1.9689 -1.3116
   32bbb     C8  982   4.040   7.620   5.643 -0.1208  0.6389  0.0298
   32bbb    H15  983   3.997   7.656   5.549 -2.5037 -0.5881  0.5702
   32bbb    H16  984   4.097   7.533   5.610  0.3166  1.4431 -1.4170
   32bbb     C9  985   4.627   7.605   5.566  0.4919  0.1774  0.3211
   32bbb    H17  986   4.706   7.680   5.579  1.2712 -0.6819  0.6897
   32bbb    H18  987   4.606   7.591   5.459 -0.3748 -1.1297  0.6331
   32bbb     O1  988   4.677   7.908   5.884  0.4104  0.2572  0.3074
   32bbb    H19  989   4.323   7.834   5.782 -0.3661  1.0266  1.7598
   33bbb     N1  990   4.528   8.488   6.529 -0.1638  0.0603 -0.3374
   33bbb     C1  991   4.379   8.465   6.493 -0.3555  0.2626  0.2145
   33bbb     H1  992   4.384   8.366   6.447  0.7921  0.7738 -0.8162
   33bbb     H2  993   4.360   8.532   6.408  0.3572  0.1727 -0.0234
   33bbb     C2  994   4.594   8.378   6.618  0.0198  0.7472 -0.4076
   33bbb     H3  995   4.646   8.308   6.553 -0.0480 -1.4542  1.7723
   33bbb     H4  996   4.522   8.324   6.679 -0.8902  1.5917 -0.7063
   33bbb     C3  997   4.602   8.506   6.399 -0.3920  0.7244  0.2832
   33bbb     H5  998   4.551   8.583   6.341 -1.7472 -0.5665 -0.3249
   33bbb     H6  999   4.577   8.419   6.337  0.2560 -0.3294  1.4554
   33bbb     C4 1000   4.759   8.526   6.398  1.2229 -0.1087 -0.0939
   33bbb     H7 1001   4.820   8.449   6.446 -0.7156 -0.4688  1.9842
   33bbb     H8 1002   4.784   8.617   6.453  2.8796 -0.5408 -0.0980
   33bbb     C5 1003   4.273   8.475   6.602  0.2547  0.1125  0.8925
   33bbb     H9 1004   4.268   8.582   6.623  3.0573  1.0388 -2.2585
   33bbb    H10 1005   4.295   8.420   6.695 -0.6227 -2.1138 -0.1348
   33bbb     C6 1006   4.704   8.438   6.716 -0.0999  0.1701 -1.2086
   33bbb    H11 1007   4.650   8.509   6.780  1.0374  0.1439 -0.1781
   33bbb    H12 1008   4.781   8.494   6.660  1.3753  0.0055  0.5456
   33bbb     C7 1009   4.821   8.548   6.257  0.0695  0.4209  0.5000
   33bbb    H13 1010   4.926   8.575   6.270  0.4777 -0.9056  0.1442
   33bbb    H14 1011   4.769   8.628   6.203 -1.0391 -0.9626 -0.5624
   33bbb     C8 1012   4.778   8.333   6.798 -0.2049  0.2757 -0.4617
   33bbb    H15 1013   4.809   8.257   6.725 -1.8322  0.1417 -1.0639
   33bbb    H16 1014   4.865   8.373   6.852 -0.7719 -1.1129  1.6062
   33bbb     C9 1015   4.132   8.423   6.546 -0.1252  0.1713  0.0227
   33bbb    H17 1016   4.058   8.435   6.626 -1.4010  1.0116 -1.2430
   33bbb    H18 1017   4.127   8.314   6.529  0.4024 -0.2348  2.1937
   33bbb     O1 1018   4.821   8.419   6.193  0.4347 -0.1490 -0.0102
   33bbb    H19 1019   4.538   8.575   6.583  0.1682 -0.3215  0.2282
   34bbb     N1 1020   8.217   7.366   5.328  0.4720  0.6247  0.2441
   34bbb     C1 1021   8.333   7.466   5.306 -0.1484 -0.6012  0.1822
   34bbb     H1 1022   8.284   7.553   5.261 -0.1872 -0.9738 -0.5088
   34bbb     H2 1023   8.409   7.418   5.244 -1.5215 -2.8525  0.1214
   34bbb     C2 1024   8.261   7.247   5.416 -0.0746  0.2457  0.4954
   34bbb     H3 1025   8.170   7.190   5.438  0.6107  0.0804  3.2605
   34bbb     H4 1026   8.289   7.305   5.504  0.8448  1.4897 -0.5705
   34bbb     C3 1027   8.091   7.427   5.397  0.1164  0.3233  0.0193
   34bbb     H5 1028   8.117   7.463   5.497 -0.7715 -0.6937  0.6338
   34bbb     H6 1029   8.024   7.342   5.402  0.5707 -0.0026  0.8046
   34bbb     C4 1030   8.019   7.533   5.308  0.8799 -0.3361  0.1869
   34bbb     H7 1031   7.988   7.478   5.218  1.3853  0.0677 -0.2392
   34bbb     H8 1032   8.096   7.607   5.287  2.4913 -1.4780  1.7119
   34bbb     C5 1033   8.401   7.512   5.438 -0.4648  0.6730  0.5231
   34bbb     H9 1034   8.450   7.432   5.494 -1.7129  0.1551  0.9112
   34bbb    H10 1035   8.329   7.565   5.502 -1.0672  1.7271 -0.9651
   34bbb     C6 1036   8.383   7.162   5.366  0.0132 -0.1684  0.4119
   34bbb    H11 1037   8.438   7.107   5.443  0.5386 -1.4740 -0.8588
   34bbb    H12 1038   8.454   7.227   5.312 -0.3372  0.3330  0.5430
   34bbb     C7 1039   7.895   7.587   5.388  0.0532  0.5254  0.0619
   34bbb    H13 1040   7.928   7.638   5.479  0.0266  1.7052 -0.5757
   34bbb    H14 1041   7.833   7.502   5.421 -1.0893  0.6369 -1.6261
   34bbb     C8 1042   8.339   7.053   5.259  0.0912  0.1537 -0.9154
   34bbb    H15 1043   8.256   6.989   5.290  1.2329 -0.7722  0.3253
   34bbb    H16 1044   8.305   7.095   5.163 -0.7169  2.9792  0.4736
   34bbb     C9 1045   8.506   7.623   5.409  0.4967  0.6765 -0.7338
   34bbb    H17 1046   8.547   7.657   5.505 -2.7008 -0.3229  1.1118
   34bbb    H18 1047   8.466   7.710   5.356 -0.4626  0.5722 -0.1950
   34bbb     O1 1048   7.816   7.668   5.295 -0.1285  0.0447  0.5688
   34bbb    H19 1049   8.192   7.331   5.235 -0.2840  1.1018  0.2603
   35bbb     N1 1050   7.435   7.588   4.367  0.3760 -0.3507  0.3951
   35bbb     C1 1051   7.415   7.441   4.384  0.3956  0.4860  0.0901
   35bbb     H1 1052   7.358   7.429   4.476  0.7902  0.3350  0.3169
   35bbb     H2 1053   7.513   7.393   4.393 -0.9593 -2.3539  0.9101
   35bbb     C2 1054   7.302   7.664   4.370 -0.0123 -0.5928 -0.4173
   35bbb     H3 1055   7.272   7.685   4.472  2.0597  0.4470  0.0390
   35bbb     H4 1056   7.223   7.603   4.326 -3.0535  0.7683  2.7550
   35bbb     C3 1057   7.516   7.637   4.491  0.5300  0.3521 -0.0771
   35bbb     H5 1058   7.477   7.590   4.581  1.6000  1.0550  0.7917
   35bbb     H6 1059   7.490   7.743   4.493 -0.9383  0.0211 -0.6972
   35bbb     C4 1060   7.671   7.619   4.482 -0.1424  0.5901  0.4289
   35bbb     H7 1061   7.704   7.675   4.394  0.2190 -1.1181 -0.5633
   35bbb     H8 1062   7.694   7.512   4.474 -1.5551  0.1774  1.4361
   35bbb     C5 1063   7.343   7.364   4.271 -0.2188 -0.2644  0.2281
   35bbb     H9 1064   7.247   7.404   4.237 -0.0124  0.4804  0.5128
   35bbb    H10 1065   7.333   7.258   4.301 -1.8702 -0.3446 -0.4693
   35bbb     C6 1066   7.300   7.785   4.274 -0.3644  0.2039  0.1593
   35bbb    H11 1067   7.279   7.754   4.171 -1.4474 -1.4903  0.8479
   35bbb    H12 1068   7.402   7.826   4.279 -0.0651 -0.4759 -0.2690
   35bbb     C7 1069   7.746   7.686   4.601 -0.2722  0.2017  0.3209
   35bbb    H13 1070   7.712   7.789   4.616  0.4970  0.3046  1.5190
   35bbb    H14 1071   7.853   7.687   4.581 -0.0400 -0.3446  1.4700
   35bbb     C8 1072   7.199   7.898   4.318 -0.1859 -0.2480 -0.5785
   35bbb    H15 1073   7.124   7.849   4.382  1.1842  0.0330  1.3332
   35bbb    H16 1074   7.256   7.967   4.382 -2.4412  0.0142  1.3206
   35bbb     C9 1075   7.427   7.378   4.144 -0.0120 -0.0440 -0.5935
   35bbb    H17 1076   7.430   7.485   4.121  0.6645  0.3142  0.9952
   35bbb    H18 1077   7.393   7.325   4.055  2.0806  2.1823 -2.8746
   35bbb     O1 1078   7.732   7.605   4.722  0.2648 -0.3930  0.1129
   35bbb    H19 1079   7.480   7.606   4.276  1.1776 -0.4292  0.7741
   36bbb     N1 1080   6.601   6.097   5.819 -0.1662  0.0814 -0.5751
   36bbb     C1 1081   6.576   6.101   5.969 -0.3681  0.6861 -0.4931
   36bbb     H1 1082   6.468   6.090   5.983 -0.0298 -0.2178  1.9002
   36bbb     H2 1083   6.595   6.203   6.005  2.3435  0.3174 -0.6977
   36bbb     C2 1084   6.559   5.961   5.764 -0.5785 -0.9701  0.5020
   36bbb     H3 1085   6.451   5.962   5.782 -0.8509  2.4574 -0.5858
   36bbb     H4 1086   6.609   5.877   5.813  0.7508 -0.6055 -0.1902
   36bbb     C3 1087   6.524   6.215   5.749  0.0166 -0.1513  0.5867
   36bbb     H5 1088   6.417   6.208   5.770 -0.2458  3.2190  0.9034
   36bbb     H6 1089   6.551   6.223   5.643  2.8666  2.8887  1.3767
   36bbb     C4 1090   6.558   6.358   5.785 -0.2470 -0.4816 -0.7544
   36bbb     H7 1091   6.668   6.361   5.779 -0.0148  0.0380  2.2549
   36bbb     H8 1092   6.526   6.381   5.887  0.7943 -0.5864 -0.3812
   36bbb     C5 1093   6.646   5.999   6.063 -0.4202  0.4770 -0.3979
   36bbb     H9 1094   6.599   5.901   6.046  0.0743  0.4155 -1.4996
   36bbb    H10 1095   6.632   6.025   6.169 -1.7872 -1.7315  0.0172
   36bbb     C6 1096   6.576   5.951   5.613  0.3057 -0.0002 -0.4026
   36bbb    H11 1097   6.672   5.995   5.582  0.1233  1.9455  1.5760
   36bbb    H12 1098   6.508   6.021   5.564  2.3813  1.9833 -0.6169
   36bbb     C7 1099   6.486   6.450   5.680 -0.2086 -1.2598 -0.6979
   36bbb    H13 1100   6.381   6.466   5.710  0.8180  1.6192  1.8675
   36bbb    H14 1101   6.490   6.411   5.578  1.5325 -0.0274 -1.1497
   36bbb     C8 1102   6.556   5.815   5.553  0.8885 -0.2223  0.1444
   36bbb    H15 1103   6.450   5.792   5.562  0.8426 -1.6832 -2.7768
   36bbb    H16 1104   6.568   5.823   5.444  2.1624  1.0737  0.3436
   36bbb     C9 1105   6.794   5.972   6.024  0.3099  0.5806 -1.3827
   36bbb    H17 1106   6.827   6.051   5.956 -1.2972  2.4129 -0.1176
   36bbb    H18 1107   6.802   5.878   5.968  0.0130 -1.3070  1.5363
   36bbb     O1 1108   6.557   6.582   5.668  0.2722 -0.2126  0.1889
   36bbb    H19 1109   6.703   6.102   5.803  0.0539  0.2330  0.7197
   37bbb     N1 1110   6.415   6.559   4.646  0.1745 -0.1753  0.1475
   37bbb     C1 1111   6.319   6.583   4.522  0.0843  0.0550 -0.4427
   37bbb     H1 1112   6.336   6.505   4.448  3.2310  0.6961 -0.5095
   37bbb     H2 1113   6.358   6.677   4.484  3.3260 -0.3413  1.5211
   37bbb     C2 1114   6.542   6.492   4.593 -0.3408 -0.1549  0.0853
   37bbb     H3 1115   6.605   6.492   4.682 -1.3610  4.5493  1.0929
   37bbb     H4 1116   6.585   6.560   4.520 -2.1038 -0.2112 -1.0569
   37bbb     C3 1117   6.441   6.695   4.714 -0.1614  0.5862 -0.4285
   37bbb     H5 1118   6.339   6.723   4.738 -0.2362  0.2679 -0.3862
   37bbb     H6 1119   6.480   6.769   4.643  0.6595  0.2673 -0.3231
   37bbb     C4 1120   6.510   6.700   4.855  0.5337 -0.0023  0.3914
   37bbb     H7 1121   6.611   6.659   4.842  0.1319 -0.2792 -2.6282
   37bbb     H8 1122   6.453   6.630   4.917  0.9838 -0.7102  0.0224
   37bbb     C5 1123   6.164   6.608   4.541 -0.8139  0.6242 -0.9610
   37bbb     H9 1124   6.155   6.696   4.607 -1.6419 -0.1675  0.0103
   37bbb    H10 1125   6.122   6.523   4.595  1.8123 -0.1824 -0.0036
   37bbb     C6 1126   6.528   6.349   4.536 -0.0215  0.4286  0.1231
   37bbb    H11 1127   6.469   6.342   4.444  0.4424 -0.6059 -0.0993
   37bbb    H12 1128   6.482   6.281   4.609  1.1459  0.6331  1.0865
   37bbb     C7 1129   6.516   6.844   4.919 -0.2904  0.1169  0.2318
   37bbb    H13 1130   6.423   6.899   4.900  0.9135  1.8269 -1.0802
   37bbb    H14 1131   6.597   6.904   4.877 -1.9588  2.1271 -0.2656
   37bbb     C8 1132   6.668   6.290   4.511  1.0456 -0.1160 -0.1567
   37bbb    H15 1133   6.731   6.282   4.601  0.5036  0.4637  0.2813
   37bbb    H16 1134   6.651   6.192   4.464 -0.4670  0.9913 -2.0232
   37bbb     C9 1135   6.093   6.642   4.408  0.1938 -0.2272 -0.7183
   37bbb    H17 1136   6.132   6.741   4.378 -0.4490  0.1364 -0.3878
   37bbb    H18 1137   5.986   6.651   4.433  0.1451  1.0261 -1.2843
   37bbb     O1 1138   6.542   6.826   5.063  0.1764  0.7597  0.0798
   37bbb    H19 1139   6.371   6.501   4.719  1.8179  1.0157  2.1931
   38bbb     N1 1140   6.847   8.902   8.843  0.7149 -0.1709 -0.2685
   38bbb     C1 1141   6.752   8.793   8.884 -0.1614  1.3063  0.3425
   38bbb     H1 1142   6.695   8.818   8.973 -1.0993  0.5620 -0.0273
   38bbb     H2 1143   6.807   8.700   8.901 -0.9777  0.9745  1.2783
   38bbb     C2 1144   6.949   8.926   8.958  0.9165  0.7216  0.9344
   38bbb     H3 1145   7.010   9.009   8.922 -0.0358  0.8207 -0.5646
   38bbb     H4 1146   7.009   8.835   8.960  0.2535  0.2391 -0.1231
   38bbb     C3 1147   6.924   8.881   8.715 -0.5755  0.2755 -0.7815
   38bbb     H5 1148   6.853   8.820   8.659 -0.6393 -0.2255 -0.1706
   38bbb     H6 1149   7.012   8.819   8.736 -1.2534  0.5711  4.2893
   38bbb     C4 1150   6.963   9.007   8.642 -0.0281  0.3870  0.1543
   38bbb     H7 1151   7.018   9.070   8.714  0.5976 -1.1439  1.0691
   38bbb     H8 1152   6.886   9.074   8.603  0.7017  1.2087  0.0972
   38bbb     C5 1153   6.634   8.767   8.780 -0.4347 -0.2706  0.0697
   38bbb     H9 1154   6.667   8.741   8.679 -1.6163 -0.2758 -0.3386
   38bbb    H10 1155   6.571   8.857   8.774  0.4216  0.5327  2.2069
   38bbb     C6 1156   6.894   8.968   9.097  0.0431  0.4692  0.0955
   38bbb    H11 1157   6.816   8.897   9.128  0.2211  0.6299  0.9192
   38bbb    H12 1158   6.855   9.068   9.076  2.7680  1.0608 -2.9932
   38bbb     C7 1159   7.067   8.984   8.527 -0.1849  0.1870 -0.0784
   38bbb    H13 1160   7.155   8.937   8.573 -0.7294  1.3387  2.2878
   38bbb    H14 1161   7.079   9.083   8.480 -1.1228  0.2854 -0.1360
   38bbb     C8 1162   7.015   8.991   9.196 -0.0433  0.2709  0.5378
   38bbb    H15 1163   7.094   9.050   9.149  0.2252  0.1119  0.7827
   38bbb    H16 1164   6.978   9.057   9.275  1.9537  0.6931  1.1853
   38bbb     C9 1165   6.551   8.651   8.823  0.7145  0.3421 -1.0180
   38bbb    H17 1166   6.606   8.557   8.819  1.0027  0.5538 -3.3554
   38bbb    H18 1167   6.463   8.641   8.759 -2.0349  1.0851  2.3234
   38bbb     O1 1168   7.007   8.899   8.428 -0.1261 -0.1944 -0.3519
   38bbb    H19 1169   6.788   8.985   8.827  1.5404  0.9161  1.9533
   39bbb     N1 1170   6.934   7.837   8.265  0.1287  0.5713  0.1089
   39bbb     C1 1171   7.073   7.772   8.303  0.0306 -0.3159 -0.8622
   39bbb     H1 1172   7.116   7.840   8.376 -0.7497  0.4472 -1.0936
   39bbb     H2 1173   7.130   7.772   8.209  1.5726 -1.7196  0.0169
   39bbb     C2 1174   6.850   7.862   8.390 -0.0106 -0.7069  0.7254
   39bbb     H3 1175   6.834   7.766   8.440  1.6691  0.1728  3.1596
   39bbb     H4 1176   6.755   7.889   8.345 -0.3918 -3.8317 -0.6358
   39bbb     C3 1177   6.956   7.970   8.188 -0.5661  0.0812  0.4836
   39bbb     H5 1178   7.008   8.041   8.253 -0.6878  0.0563  0.6112
   39bbb     H6 1179   6.858   8.015   8.175 -1.7756 -2.5835 -0.3852
   39bbb     C4 1180   7.044   7.951   8.064 -0.8422 -0.7200  0.4745
   39bbb     H7 1181   7.004   7.862   8.014 -1.4033  0.7270 -1.8217
   39bbb     H8 1182   7.146   7.939   8.101 -0.4376  0.9815 -0.0186
   39bbb     C5 1183   7.077   7.627   8.359  0.1195 -0.1446  0.9010
   39bbb     H9 1184   7.068   7.559   8.274 -1.6137  0.5177  0.5129
   39bbb    H10 1185   6.998   7.608   8.433 -0.3730 -3.1721 -0.2646
   39bbb     C6 1186   6.899   7.975   8.492  0.7741  0.0823 -0.8841
   39bbb    H11 1187   6.940   8.064   8.443  1.5281  1.3917  1.9340
   39bbb    H12 1188   6.979   7.941   8.558  0.5979 -2.2042 -1.7365
   39bbb     C7 1189   7.030   8.064   7.957  0.0294  0.0300  0.4569
   39bbb    H13 1190   6.934   8.057   7.905  1.5634 -1.7383 -2.3694
   39bbb    H14 1191   7.108   8.039   7.884 -0.4443 -0.9427  0.2656
   39bbb     C8 1192   6.777   8.029   8.574  0.1969 -0.0074 -0.4335
   39bbb    H15 1193   6.738   7.939   8.622  1.4676  0.0138  0.6966
   39bbb    H16 1194   6.804   8.103   8.651  1.2750 -0.3064 -0.5118
   39bbb     C9 1195   7.210   7.610   8.431 -0.6330  0.4193  0.2307
   39bbb    H17 1196   7.216   7.676   8.518 -0.8643 -1.5749  1.8526
   39bbb    H18 1197   7.293   7.639   8.367  0.4800  1.7155  2.1600
   39bbb     O1 1198   7.058   8.200   8.017  0.2076  0.4586  0.6640
   39bbb    H19 1199   6.882   7.768   8.209  1.5515 -0.0840 -0.4559
   40bbb     N1 1200   6.287  10.112   8.530 -0.0332 -0.1179 -0.5996
   40bbb     C1 1201   6.365  10.207   8.618  0.0818  0.4538  0.1546
   40bbb     H1 1202   6.299  10.228   8.703  2.0279 -0.9513  2.1071
   40bbb     H2 1203   6.383  10.298   8.559 -0.5310  0.9328  0.6912
   40bbb     C2 1204   6.150  10.173   8.497  0.3408  0.5807  0.4246
   40bbb     H3 1205   6.100  10.179   8.593  1.0979  0.3244  0.8394
   40bbb     H4 1206   6.093  10.104   8.434 -0.9377  1.7240  0.2798
   40bbb     C3 1207   6.368  10.076   8.405 -0.5302  0.1027 -0.4080
   40bbb     H5 1208   6.450  10.012   8.437  0.0358  1.3748  0.8025
   40bbb     H6 1209   6.398  10.172   8.365 -1.6016  0.9670  0.7739
   40bbb     C4 1210   6.311   9.996   8.285  0.1256 -0.1371 -0.8809
   40bbb     H7 1211   6.219  10.048   8.254  0.6398  0.2663 -1.7897
   40bbb     H8 1212   6.291   9.893   8.317 -1.4880  0.5390  0.4338
   40bbb     C5 1213   6.496  10.151   8.678  0.1148 -0.0362  0.1365
   40bbb     H9 1214   6.569  10.114   8.605 -0.0856  1.1350 -0.6708
   40bbb    H10 1215   6.469  10.062   8.736  1.4291 -1.7505 -1.7389
   40bbb     C6 1216   6.152  10.309   8.422 -0.0241  0.3621  0.8101
   40bbb    H11 1217   6.193  10.302   8.320  2.6180  0.6797  1.7781
   40bbb    H12 1218   6.222  10.378   8.471 -0.2286  0.7658  0.5352
   40bbb     C7 1219   6.410  10.002   8.170  0.0083 -0.5332  0.3752
   40bbb    H13 1220   6.507   9.968   8.209  0.8617  0.6127 -0.6796
   40bbb    H14 1221   6.436  10.103   8.135 -0.7726 -0.3797  0.2196
   40bbb     C8 1222   6.017  10.373   8.404 -0.0378  0.0939  0.3087
   40bbb    H15 1223   6.033  10.477   8.371 -0.8455  0.1167 -0.0465
   40bbb    H16 1224   5.960  10.319   8.327 -0.0397 -0.4587  0.6920
   40bbb     C9 1225   6.561  10.263   8.764  0.2769  0.1064  0.4168
   40bbb    H17 1226   6.654  10.223   8.803  0.7515  1.5626  0.8390
   40bbb    H18 1227   6.495  10.277   8.850  1.7167  0.9521  1.4107
   40bbb     O1 1228   6.372   9.925   8.051 -0.5523 -0.0884 -0.1068
   40bbb    H19 1229   6.262  10.030   8.587 -3.3813  2.1478  1.5024
   41bbb     N1 1230   5.495   9.497   7.711 -0.1166 -0.3082 -0.0248
   41bbb     C1 1231   5.502   9.368   7.799 -0.1624  0.4614 -0.8144
   41bbb     H1 1232   5.398   9.338   7.815 -0.0035  0.6606  0.8119
   41bbb     H2 1233   5.545   9.397   7.895  0.5415  0.7705 -1.2167
   41bbb     C2 1234   5.389   9.587   7.784  0.7635  0.1318  0.2326
   41bbb     H3 1235   5.287   9.550   7.769  0.6078 -0.1311  1.8378
   41bbb     H4 1236   5.392   9.678   7.724 -1.2863  0.0746 -0.0279
   41bbb     C3 1237   5.623   9.578   7.713 -0.2670 -0.1370 -0.7707
   41bbb     H5 1238   5.661   9.568   7.814  2.3123 -1.4138 -1.7738
   41bbb     H6 1239   5.607   9.684   7.692  0.1818  0.4250  1.4388
   41bbb     C4 1240   5.723   9.527   7.608 -0.6348  0.2011  0.5468
   41bbb     H7 1241   5.694   9.556   7.506  0.5596  0.9663  0.4027
   41bbb     H8 1242   5.727   9.418   7.609  0.5749  0.1677 -1.4966
   41bbb     C5 1243   5.575   9.255   7.733 -0.2577  0.2582 -0.0449
   41bbb     H9 1244   5.682   9.276   7.747 -0.1224 -0.3653 -0.0876
   41bbb    H10 1245   5.562   9.243   7.625  1.4069 -0.9411 -0.1578
   41bbb     C6 1246   5.420   9.628   7.933  0.1573  0.1516  0.1882
   41bbb    H11 1247   5.517   9.676   7.954 -0.8428  2.1841  0.4586
   41bbb    H12 1248   5.416   9.541   8.000  3.0924  0.0516  0.3627
   41bbb     C7 1249   5.867   9.582   7.639 -0.2472 -0.2361 -0.5314
   41bbb    H13 1250   5.873   9.691   7.632  0.4269 -0.2012  0.3541
   41bbb    H14 1251   5.925   9.539   7.556  0.9492 -1.5348  0.9083
   41bbb     C8 1252   5.310   9.716   7.988  0.4366 -0.1311  0.4232
   41bbb    H15 1253   5.305   9.814   7.939  1.1086  0.1707  0.9439
   41bbb    H16 1254   5.212   9.671   7.969 -0.7024  1.6646  1.7635
   41bbb     C9 1255   5.555   9.127   7.809  0.3941 -0.0191 -0.4435
   41bbb    H17 1256   5.556   9.154   7.915 -0.8419 -4.3637  0.8701
   41bbb    H18 1257   5.641   9.062   7.789 -0.6713 -1.3805 -0.7557
   41bbb     O1 1258   5.919   9.533   7.765  0.2069  0.3312 -0.2645
   41bbb    H19 1259   5.460   9.476   7.616  0.2609  0.5796 -0.3732
   42bbb     N1 1260   8.212   8.156   7.083  0.3659  0.4209  0.7935
   42bbb     C1 1261   8.323   8.160   7.182  0.0763 -0.0804 -0.3657
   42bbb     H1 1262   8.399   8.090   7.145  1.9770  1.5391  0.2888
   42bbb     H2 1263   8.282   8.110   7.270 -0.6104 -2.7253 -2.0656
   42bbb     C2 1264   8.095   8.234   7.126  0.2705 -0.2836  0.5364
   42bbb     H3 1265   8.131   8.336   7.115  0.0043 -0.3040 -0.6674
   42bbb     H4 1266   8.083   8.208   7.232 -0.4694 -1.8116  0.1126
   42bbb     C3 1267   8.263   8.221   6.958  0.0545 -0.7334 -0.1662
   42bbb     H5 1268   8.326   8.303   6.993  0.5002 -0.9813 -0.3794
   42bbb     H6 1269   8.189   8.267   6.893 -0.3390 -0.6567  0.3273
   42bbb     C4 1270   8.334   8.122   6.863  0.0154 -0.7669 -0.2692
   42bbb     H7 1271   8.257   8.071   6.804  1.7113 -2.4050 -1.1870
   42bbb     H8 1272   8.396   8.053   6.922  2.1949  1.0915 -0.2332
   42bbb     C5 1273   8.390   8.289   7.225  0.1302 -0.1703 -0.5181
   42bbb     H9 1274   8.421   8.346   7.136 -0.3094  0.3445 -0.3485
   42bbb    H10 1275   8.481   8.272   7.284  0.1788  1.7086  0.0217
   42bbb     C6 1276   7.959   8.225   7.037  0.2419  0.6264 -0.1613
   42bbb    H11 1277   7.972   8.259   6.934 -0.7325  1.8775  0.1128
   42bbb    H12 1278   7.884   8.291   7.081 -0.0332 -0.4685  1.0869
   42bbb     C7 1279   8.421   8.184   6.745 -0.0077 -0.0009 -0.5448
   42bbb    H13 1280   8.479   8.100   6.705 -0.2012 -0.6330  0.4767
   42bbb    H14 1281   8.491   8.248   6.800  0.7010 -0.9433 -0.3349
   42bbb     C8 1282   7.900   8.084   7.046 -0.0723 -0.6922 -0.3213
   42bbb    H15 1283   7.874   8.059   7.149 -1.6149 -0.1452 -0.5532
   42bbb    H16 1284   7.806   8.073   6.991 -2.0909 -0.0481  2.7998
   42bbb     C9 1285   8.303   8.397   7.297  0.2368 -0.4394  0.2227
   42bbb    H17 1286   8.248   8.456   7.224 -0.6482  1.9939  2.6731
   42bbb    H18 1287   8.374   8.466   7.344 -2.2117  3.1616 -1.0200
   42bbb     O1 1288   8.324   8.247   6.653  0.3650 -0.8223 -0.2170
   42bbb    H19 1289   8.174   8.063   7.063 -0.7860  0.8828  0.7450
   43bbb     N1 1290   9.374   8.947   6.295 -0.1919  0.5328 -0.5582
   43bbb     C1 1291   9.395   9.074   6.216 -0.0428 -0.2656  0.2788
   43bbb     H1 1292   9.348   9.159   6.266 -1.6847  0.4234 -2.2186
   43bbb     H2 1293   9.339   9.055   6.124  0.6617 -1.1757  0.0273
   43bbb     C2 1294   9.375   8.971   6.446 -0.4197  0.2760 -0.3143
   43bbb     H3 1295   9.327   8.882   6.488  0.6314 -1.3494 -2.3431
   43bbb     H4 1296   9.330   9.067   6.470  1.5815  0.7459  1.8860
   43bbb     C3 1297   9.228   8.893   6.267 -0.3506 -0.6428  0.7536
   43bbb     H5 1298   9.166   8.982   6.262  1.4077  0.6329  0.3940
   43bbb     H6 1299   9.193   8.840   6.355 -1.3828  1.4247  1.6670
   43bbb     C4 1300   9.208   8.804   6.145 -0.4793 -0.3249  0.6960
   43bbb     H7 1301   9.265   8.710   6.153  0.1299 -0.1222 -0.7951
   43bbb     H8 1302   9.234   8.844   6.046 -0.7723  0.5660  0.9759
   43bbb     C5 1303   9.536   9.111   6.163  0.6312 -0.4722 -0.7452
   43bbb     H9 1304   9.570   9.045   6.082  1.5252 -2.1478  0.9405
   43bbb    H10 1305   9.606   9.101   6.247  0.8788 -1.7968 -1.0947
   43bbb     C6 1306   9.513   8.978   6.507  0.5923 -0.6771  0.3598
   43bbb    H11 1307   9.503   8.995   6.615  0.9424  1.3014  0.1132
   43bbb    H12 1308   9.569   9.062   6.465  1.7026  0.3489  3.5750
   43bbb     C7 1309   9.063   8.753   6.145  0.9873  0.2481 -0.1985
   43bbb    H13 1310   9.040   8.692   6.058 -0.4535 -1.1787  1.1150
   43bbb    H14 1311   9.000   8.843   6.141 -0.2622 -0.6292 -3.5537
   43bbb     C8 1312   9.594   8.856   6.477  0.3546 -0.2018 -0.0384
   43bbb    H15 1313   9.639   8.847   6.378  2.1592 -3.9984  0.9291
   43bbb    H16 1314   9.687   8.854   6.535  0.2228 -0.9450  0.1695
   43bbb     C9 1315   9.534   9.255   6.107 -0.0735 -0.0491 -0.7557
   43bbb    H17 1316   9.503   9.326   6.184  0.5110  0.8108 -1.2957
   43bbb    H18 1317   9.463   9.272   6.025  0.7673 -2.2109 -2.0196
   43bbb     O1 1318   9.042   8.668   6.263 -0.1301  1.0071 -0.4080
   43bbb    H19 1319   9.439   8.873   6.266 -2.1411 -2.2893  1.7428
   44bbb     N1 1320   8.847   9.745   7.279  0.0579  0.2289 -0.4316
   44bbb     C1 1321   8.880   9.851   7.179  0.5686 -0.2866 -0.0377
   44bbb     H1 1322   8.985   9.878   7.190 -0.1213  2.3516  0.8841
   44bbb     H2 1323   8.821   9.938   7.208  0.4008 -0.3762 -0.1050
   44bbb     C2 1324   8.963   9.651   7.316  0.1320  0.4818 -0.2984
   44bbb     H3 1325   8.920   9.589   7.395 -0.9228  0.5185 -0.8327
   44bbb     H4 1326   9.051   9.702   7.357  2.2034 -1.2369 -2.2800
   44bbb     C3 1327   8.786   9.812   7.400  0.0380  0.2473 -0.7610
   44bbb     H5 1328   8.765   9.741   7.480 -1.1063  1.6373  0.2151
   44bbb     H6 1329   8.689   9.853   7.373 -0.9143 -0.1239  1.8404
   44bbb     C4 1330   8.881   9.921   7.463  0.4114  0.7801  0.1282
   44bbb     H7 1331   8.884   9.999   7.386 -0.3116 -0.7799 -1.5390
   44bbb     H8 1332   8.981   9.877   7.473 -0.8015 -2.1423  0.2054
   44bbb     C5 1333   8.849   9.812   7.031  0.2750 -0.2919  0.0938
   44bbb     H9 1334   8.929   9.748   6.991 -1.0438 -1.2210 -1.1704
   44bbb    H10 1335   8.861   9.906   6.976 -0.0347 -1.0845 -1.3856
   44bbb     C6 1336   9.007   9.552   7.204  0.2474 -0.4822 -0.2104
   44bbb    H11 1337   8.968   9.584   7.107  0.0063 -0.4718 -0.1092
   44bbb    H12 1338   8.976   9.449   7.223  1.0732 -0.4398  1.6077
   44bbb     C7 1339   8.828   9.967   7.599 -0.0340 -0.2827 -0.0341
   44bbb    H13 1340   8.734  10.022   7.588  0.4179  0.6838  0.7202
   44bbb    H14 1341   8.896  10.036   7.650 -2.2082  1.7621  0.2919
   44bbb     C8 1342   9.162   9.549   7.165 -0.0364  0.7564 -0.7256
   44bbb    H15 1343   9.181   9.485   7.078 -0.4862  1.3706 -1.2808
   44bbb    H16 1344   9.192   9.651   7.140  2.4626  0.5179  0.9202
   44bbb     C9 1345   8.708   9.748   7.007 -0.4861  0.2238  0.0375
   44bbb    H17 1346   8.691   9.661   7.071 -1.9774 -0.1023 -0.7797
   44bbb    H18 1347   8.697   9.725   6.901 -1.2428  0.3352  0.0854
   44bbb     O1 1348   8.803   9.850   7.683  0.1723  0.3988  0.2844
   44bbb    H19 1349   8.773   9.682   7.246 -1.4271  0.5333  2.0633
   45bbb     N1 1350   8.658  10.170   8.363  0.1245  0.2354 -0.1734
   45bbb     C1 1351   8.674  10.046   8.451  0.3670 -0.2993 -0.2608
   45bbb     H1 1352   8.782  10.032   8.462  0.2985  1.0330  3.8692
   45bbb     H2 1353   8.642   9.963   8.388  1.4716  0.6647 -2.1763
   45bbb     C2 1354   8.797  10.196   8.305  0.5284  0.4447 -0.5151
   45bbb     H3 1355   8.814  10.136   8.216  1.2744 -0.3014  0.1163
   45bbb     H4 1356   8.868  10.159   8.379 -1.5026 -1.6199  0.5394
   45bbb     C3 1357   8.557  10.163   8.250  0.4068  0.0487 -0.3325
   45bbb     H5 1358   8.594  10.100   8.169 -1.4729 -1.2145 -0.2722
   45bbb     H6 1359   8.554  10.267   8.219  3.4215 -0.2674 -2.0782
   45bbb     C4 1360   8.417  10.113   8.291 -0.3135 -0.5305  0.3913
   45bbb     H7 1361   8.379  10.175   8.373  0.7058  0.0362  0.4582
   45bbb     H8 1362   8.425  10.016   8.343 -3.1963 -0.5730  0.9338
   45bbb     C5 1363   8.601  10.050   8.592 -0.6723  0.1127  0.4709
   45bbb     H9 1364   8.493  10.053   8.574 -0.5019  1.0225 -0.4293
   45bbb    H10 1365   8.626  10.144   8.643 -1.7759  0.8643 -0.3216
   45bbb     C6 1366   8.824  10.342   8.272 -0.2169 -0.8379 -0.0730
   45bbb    H11 1367   8.755  10.388   8.201 -0.0497  0.7062  0.7370
   45bbb    H12 1368   8.924  10.348   8.228  0.1428 -2.2962  0.4831
   45bbb     C7 1369   8.319  10.107   8.183 -0.0250  0.3367  0.2320
   45bbb    H13 1370   8.295  10.206   8.143 -1.2525 -0.3226 -0.7143
   45bbb    H14 1371   8.230  10.064   8.231  1.7520 -0.4280  3.1357
   45bbb     C8 1372   8.825  10.430   8.400  0.3682 -0.3141  0.3124
   45bbb    H15 1373   8.904  10.385   8.461  2.1236  1.6283 -0.4023
   45bbb    H16 1374   8.869  10.528   8.381  2.1672 -1.1081  0.2079
   45bbb     C9 1375   8.625   9.923   8.682 -0.4112  0.3008  0.0585
   45bbb    H17 1376   8.733   9.905   8.674 -0.3285  0.8972 -0.2262
   45bbb    H18 1377   8.560   9.842   8.647  0.3370 -0.6685  0.8451
   45bbb     O1 1378   8.371  10.032   8.077  0.4498  0.2189 -0.1406
   45bbb    H19 1379   8.634  10.254   8.418 -0.1005 -0.5763  1.0250
   46bbb     N1 1380   8.572  11.315   2.884  0.3832 -0.5694  0.0118
   46bbb     C1 1381   8.568  11.383   2.746  0.2574 -0.0436  0.1398
   46bbb     H1 1382   8.466  11.409   2.716 -0.1320 -0.9017  0.6798
   46bbb     H2 1383   8.601  11.310   2.672  1.2850  0.8457 -0.3004
   46bbb     C2 1384   8.506  11.396   2.996  0.3698  0.3564  0.5966
   46bbb     H3 1385   8.553  11.495   2.995 -2.2432  1.7046 -0.2027
   46bbb     H4 1386   8.522  11.351   3.094  0.6289 -2.6317 -0.7244
   46bbb     C3 1387   8.502  11.182   2.867 -0.1253 -0.1788 -0.3143
   46bbb     H5 1388   8.454  11.174   2.769 -1.4278  1.2266  0.1753
   46bbb     H6 1389   8.421  11.185   2.939 -0.0807  0.9643 -0.2960
   46bbb     C4 1390   8.590  11.062   2.886 -0.0601 -0.2551  0.4776
   46bbb     H7 1391   8.628  11.053   2.989  0.3499 -1.4206  0.2441
   46bbb     H8 1392   8.676  11.075   2.819  0.1929 -0.1966  0.8131
   46bbb     C5 1393   8.662  11.508   2.718  0.0758  0.0983 -0.1932
   46bbb     H9 1394   8.767  11.478   2.718 -0.2170 -1.3306  3.2169
   46bbb    H10 1395   8.637  11.584   2.793  0.3365  2.0622 -2.0002
   46bbb     C6 1396   8.354  11.423   2.972 -0.3006 -0.1370 -0.5983
   46bbb    H11 1397   8.293  11.335   2.949  0.7448 -0.1521 -3.8466
   46bbb    H12 1398   8.336  11.482   2.881  0.3874  1.2680  0.1412
   46bbb     C7 1399   8.510  10.929   2.858 -0.1811 -0.0154 -0.0810
   46bbb    H13 1400   8.581  10.846   2.855  3.4130  2.7503 -4.0857
   46bbb    H14 1401   8.461  10.939   2.761 -0.1107 -0.6280 -0.1821
   46bbb     C8 1402   8.311  11.514   3.087 -0.3756  0.4703 -0.6268
   46bbb    H15 1403   8.291  11.459   3.179  1.0711 -1.0628 -1.1738
   46bbb    H16 1404   8.393  11.582   3.114  0.6351 -1.5571  1.7388
   46bbb     C9 1405   8.625  11.572   2.580 -0.3196  0.2051 -0.7471
   46bbb    H17 1406   8.687  11.661   2.568  1.3967 -0.7064  0.8711
   46bbb    H18 1407   8.516  11.588   2.574 -0.6287 -1.0716  0.8075
   46bbb     O1 1408   8.414  10.911   2.958 -0.3037 -0.2816 -0.5043
   46bbb    H19 1409   8.672  11.299   2.904  0.3891 -1.3275 -0.5804
   47bbb     N1 1410   9.295  11.084   3.519 -0.3412  0.0528  0.5904
   47bbb     C1 1411   9.356  11.126   3.643 -0.5382 -0.1322 -0.1875
   47bbb     H1 1412   9.465  11.123   3.637 -0.3928 -1.0286  1.8242
   47bbb     H2 1413   9.325  11.054   3.720  0.8025 -2.1082 -1.4072
   47bbb     C2 1414   9.364  10.966   3.445  0.0281  0.1628 -0.6890
   47bbb     H3 1415   9.315  10.941   3.351  0.0759  1.8084 -1.1896
   47bbb     H4 1416   9.350  10.893   3.524 -0.3204  1.2987  0.3272
   47bbb     C3 1417   9.145  11.054   3.545 -0.8184  1.0415 -1.0413
   47bbb     H5 1418   9.098  11.149   3.571 -2.4983  0.1711 -0.7603
   47bbb     H6 1419   9.141  10.980   3.625  2.2748 -0.0018 -1.7216
   47bbb     C4 1420   9.047  10.998   3.437 -0.2195 -0.8514  0.1617
   47bbb     H7 1421   9.090  10.917   3.377  0.8689 -0.4399  0.3736
   47bbb     H8 1422   9.013  11.072   3.364 -0.3360 -0.7677  0.3011
   47bbb     C5 1423   9.318  11.265   3.690 -0.5335  0.0410  0.5826
   47bbb     H9 1424   9.208  11.272   3.683 -0.5722 -1.6093 -1.6765
   47bbb    H10 1425   9.358  11.339   3.619  1.7572  0.3090  2.0793
   47bbb     C6 1426   9.521  10.976   3.416  0.3889  0.3290  0.0576
   47bbb    H11 1427   9.581  11.009   3.502  2.1000 -0.0934 -0.9255
   47bbb    H12 1428   9.543  11.048   3.337  0.7039  0.8248  0.5874
   47bbb     C7 1429   8.918  10.936   3.504 -0.5506  0.1307 -0.4003
   47bbb    H13 1430   8.868  11.000   3.577  0.5550  2.8517 -1.8723
   47bbb    H14 1431   8.950  10.850   3.563 -0.6203  1.3227  1.4398
   47bbb     C8 1432   9.567  10.834   3.370 -0.3584  0.0520 -0.1010
   47bbb    H15 1433   9.530  10.757   3.438  1.8932 -0.5129  0.5871
   47bbb    H16 1434   9.534  10.824   3.266 -2.3156  2.2797  0.2455
   47bbb     C9 1435   9.375  11.299   3.831  0.7059 -0.1244 -0.0353
   47bbb    H17 1436   9.329  11.235   3.907 -1.1864  0.4163 -0.6641
   47bbb    H18 1437   9.368  11.404   3.860 -1.9614 -0.1959 -0.1828
   47bbb     O1 1438   8.828  10.888   3.400  0.3406 -0.4543 -0.5298
   47bbb    H19 1439   9.303  11.164   3.455  0.4386  0.6819  1.4546
   48bbb     N1 1440   8.016  10.250   2.102 -0.7183  0.5265  0.1729
   48bbb     C1 1441   8.161  10.227   2.045 -0.4505 -0.0626 -1.1383
   48bbb     H1 1442   8.166  10.272   1.945  2.8223  1.6909 -0.3454
   48bbb     H2 1443   8.161  10.119   2.031 -0.0568 -0.1148 -0.7821
   48bbb     C2 1444   7.919  10.291   1.989  0.2691 -0.3743  0.1262
   48bbb     H3 1445   7.822  10.291   2.039  1.1517  1.6374  2.0341
   48bbb     H4 1446   7.911  10.213   1.914 -2.3458 -1.4150  1.3873
   48bbb     C3 1447   7.969  10.121   2.173 -0.5542  0.2898  0.1496
   48bbb     H5 1448   8.050  10.084   2.236 -0.4997 -0.4366 -0.3399
   48bbb     H6 1449   7.957  10.048   2.093  1.3689  0.3957 -0.2875
   48bbb     C4 1450   7.834  10.134   2.250  0.7441 -0.6743 -0.2178
   48bbb     H7 1451   7.757  10.166   2.179 -1.5718 -1.6889  1.7016
   48bbb     H8 1452   7.840  10.204   2.334  3.5156 -1.6644  0.5176
   48bbb     C5 1453   8.283  10.273   2.136  0.4542  0.5552  0.0708
   48bbb     H9 1454   8.252  10.232   2.232  2.9009 -0.6553  0.4149
   48bbb    H10 1455   8.275  10.382   2.143 -0.8205  0.4999 -0.2660
   48bbb     C6 1456   7.949  10.417   1.914 -0.1945  0.8602  0.5717
   48bbb    H11 1457   8.053  10.413   1.878 -0.6039  1.5734 -0.7543
   48bbb    H12 1458   7.953  10.505   1.980  2.7711 -0.4905  2.3752
   48bbb     C7 1459   7.795  10.001   2.313  0.0828  0.0128  0.1833
   48bbb    H13 1460   7.805   9.924   2.235  0.9783  1.8548 -1.5981
   48bbb    H14 1461   7.689   9.996   2.339  0.2629  2.7177  1.8045
   48bbb     C8 1462   7.865  10.452   1.790 -0.1454  0.3029 -0.4719
   48bbb    H15 1463   7.908  10.546   1.751  0.9518  1.2665  2.7603
   48bbb    H16 1464   7.887  10.378   1.711 -2.9392 -0.4320 -0.6617
   48bbb     C9 1465   8.426  10.218   2.084 -0.3403  0.3312  0.3505
   48bbb    H17 1466   8.500  10.235   2.163  1.4012  1.1503 -1.3645
   48bbb    H18 1467   8.466  10.273   1.998 -0.6568 -0.8940 -0.6129
   48bbb     O1 1468   7.873   9.964   2.429 -0.1186 -0.5416 -0.3590
   48bbb    H19 1469   8.033  10.323   2.173 -0.6686  2.8468 -2.0898
   49bbb     N1 1470   6.986   9.852   2.193  0.1380 -0.0776 -0.6213
   49bbb     C1 1471   6.999   9.936   2.065 -0.9057  0.9959 -0.7008
   49bbb     H1 1472   7.104   9.967   2.068 -0.0911 -1.6155 -0.3924
   49bbb     H2 1473   6.937  10.024   2.087  0.1285  1.7232 -0.6109
   49bbb     C2 1474   7.067   9.722   2.171  0.0332 -0.2264  0.5327
   49bbb     H3 1475   7.169   9.756   2.151 -0.3693  4.4517  4.5502
   49bbb     H4 1476   7.023   9.675   2.083 -0.6177 -1.3355  1.4256
   49bbb     C3 1477   7.039   9.940   2.306 -0.3498 -0.3379 -0.1455
   49bbb     H5 1478   7.044  10.046   2.282  2.1049 -0.5586 -0.9408
   49bbb     H6 1479   7.136   9.898   2.334  0.3813  0.9829 -0.6150
   49bbb     C4 1480   6.953   9.929   2.436 -0.0790  0.6754 -0.0503
   49bbb     H7 1481   6.961   9.825   2.470 -0.8434  0.8622  0.7721
   49bbb     H8 1482   6.845   9.940   2.417 -0.0441  1.0528 -0.0373
   49bbb     C5 1483   6.966   9.874   1.938 -0.2680  0.2593  0.1651
   49bbb     H9 1484   6.874   9.814   1.945  0.6960 -1.5903 -1.9441
   49bbb    H10 1485   7.045   9.803   1.910 -1.5348 -0.7708 -0.9013
   49bbb     C6 1486   7.081   9.619   2.287 -0.4544 -0.4989 -0.0677
   49bbb    H11 1487   7.105   9.672   2.380 -0.0791  0.1479 -0.5301
   49bbb    H12 1488   7.169   9.557   2.264  0.9402  1.0265  0.9543
   49bbb     C7 1489   6.997  10.029   2.543 -0.0805  0.4835 -0.1683
   49bbb    H13 1490   6.943  10.014   2.638  1.9657 -1.2124  0.8091
   49bbb    H14 1491   6.966  10.131   2.519  0.7554  1.1614  1.5074
   49bbb     C8 1492   6.956   9.537   2.317  1.0837 -0.1572  0.2350
   49bbb    H15 1493   6.913   9.504   2.222 -0.8170 -0.9863  1.3220
   49bbb    H16 1494   6.968   9.446   2.377  1.0126 -0.9719 -0.9474
   49bbb     C9 1495   6.947   9.976   1.828  0.5084  0.8159  0.6258
   49bbb    H17 1496   7.041  10.030   1.818  1.6980 -1.1337  0.7493
   49bbb    H18 1497   6.867  10.043   1.862  0.4118 -0.3057  2.8028
   49bbb     O1 1498   7.137  10.021   2.560 -1.2853  0.7612 -0.0520
   49bbb    H19 1499   6.886   9.838   2.211 -0.3058  2.2445 -0.9296
   50bbb     N1 1500   9.801   9.928   4.787 -0.0085 -0.8328 -0.0964
   50bbb     C1 1501   9.944   9.927   4.839 -0.3239 -0.0569 -0.4704
   50bbb     H1 1502  10.004   9.976   4.762  1.5376 -1.6767 -0.1278
   50bbb     H2 1503   9.980   9.824   4.839  0.8636  0.3238  0.5914
   50bbb     C2 1504   9.742  10.072   4.802 -0.4796  1.1127 -0.4791
   50bbb     H3 1505   9.742  10.096   4.908 -0.9169 -0.7998 -0.0137
   50bbb     H4 1506   9.638  10.069   4.769 -1.0612  0.0173  1.3118
   50bbb     C3 1507   9.804   9.899   4.638 -0.3863  0.0363 -0.0770
   50bbb     H5 1508   9.842   9.797   4.632 -3.3696 -1.2639  0.9147
   50bbb     H6 1509   9.871   9.974   4.596 -0.2453 -0.9623 -1.7495
   50bbb     C4 1510   9.684   9.916   4.547 -0.5178 -0.0628  0.4745
   50bbb     H7 1511   9.662  10.023   4.533 -2.6770 -0.0024  3.3837
   50bbb     H8 1512   9.596   9.860   4.581 -0.5080 -0.6649 -0.4560
   50bbb     C5 1513   9.971   9.985   4.975  0.4928  0.6504  0.1003
   50bbb     H9 1514   9.915   9.928   5.050 -0.4611  0.0995 -1.0131
   50bbb    H10 1515   9.946  10.092   4.971 -0.9840  0.4145  1.9508
   50bbb     C6 1516   9.817  10.189   4.741 -0.2441 -0.2350  0.2209
   50bbb    H11 1517   9.806  10.181   4.632  1.7138 -2.0279  0.0970
   50bbb    H12 1518   9.925  10.176   4.750  0.1978  2.4066 -0.4758
   50bbb     C7 1519   9.733   9.862   4.412  0.2943 -0.3480 -0.2425
   50bbb    H13 1520   9.787   9.770   4.438 -1.0448 -0.3510  3.1469
   50bbb    H14 1521   9.803   9.937   4.375  0.2469 -0.0400  0.2856
   50bbb     C8 1522   9.769  10.322   4.795  0.2368  0.3467 -0.1085
   50bbb    H15 1523   9.818  10.344   4.890  1.7503  1.5160 -1.1000
   50bbb    H16 1524   9.808  10.401   4.730  1.2898  1.5637  1.9112
   50bbb     C9 1525  10.115   9.982   5.019 -0.5507 -0.1523  0.2514
   50bbb    H17 1526  10.123  10.022   5.121 -3.9155  0.5858  0.3504
   50bbb    H18 1527  10.170  10.043   4.947  2.0111 -0.0268  2.1595
   50bbb     O1 1528   9.627   9.843   4.317 -0.5587  0.4065  0.4756
   50bbb    H19 1529   9.747   9.855   4.834 -0.3168 -0.5123  0.0459
   51bbb     N1 1530   9.780   9.336   3.117  0.4016 -0.0965 -0.4943
   51bbb     C1 1531   9.657   9.269   3.063  0.8780  0.2929  0.7092
   51bbb     H1 1532   9.688   9.234   2.964 -0.2671  0.7778  0.1629
   51bbb     H2 1533   9.579   9.345   3.052  0.0895 -0.6509 -0.5003
   51bbb     C2 1534   9.856   9.417   3.010  0.5907  0.4772 -0.1439
   51bbb     H3 1535   9.922   9.498   3.044  0.7202  0.6684 -0.8406
   51bbb     H4 1536   9.781   9.459   2.943 -1.0891  0.7079  1.8026
   51bbb     C3 1537   9.753   9.437   3.224 -0.2370 -0.0835 -0.1164
   51bbb     H5 1538   9.668   9.397   3.280 -0.3471  0.6711  0.2723
   51bbb     H6 1539   9.728   9.530   3.173 -0.6283  0.2262  0.6182
   51bbb     C4 1540   9.880   9.448   3.314 -0.7863  0.3920 -0.0694
   51bbb     H7 1541   9.971   9.436   3.253 -1.3307 -0.4847 -0.7363
   51bbb     H8 1542   9.890   9.361   3.380  1.7967 -0.2196 -1.1265
   51bbb     C5 1543   9.616   9.145   3.148  0.6165 -0.1163 -0.0573
   51bbb     H9 1544   9.514   9.179   3.174 -0.1868 -1.2866 -1.5386
   51bbb    H10 1545   9.667   9.129   3.244 -1.7866  1.0634  1.5412
   51bbb     C6 1546   9.950   9.328   2.924 -0.2095 -0.2645 -0.2542
   51bbb    H11 1547   9.918   9.227   2.898 -0.8910  0.1352 -0.9987
   51bbb    H12 1548  10.044   9.317   2.980  0.1243 -2.2244 -1.1271
   51bbb     C7 1549   9.871   9.575   3.400  0.6500  0.4704 -0.1128
   51bbb    H13 1550   9.873   9.660   3.331 -0.5955  1.7366  1.3224
   51bbb    H14 1551   9.961   9.577   3.461  0.2322  0.3634  0.5161
   51bbb     C8 1552   9.986   9.409   2.799 -0.1084  0.0559  0.4780
   51bbb    H15 1553  10.039   9.341   2.732 -1.5855  0.7344 -1.4932
   51bbb    H16 1554   9.895   9.444   2.748  0.4054  0.4297 -0.1996
   51bbb     C9 1555   9.608   9.026   3.055 -0.4643  0.2749 -0.1059
   51bbb    H17 1556   9.536   9.047   2.976 -0.1833  3.4858  0.3634
   51bbb    H18 1557   9.571   8.939   3.111 -2.7812  0.9752 -0.4495
   51bbb     O1 1558   9.747   9.586   3.476 -0.4434  0.2571 -0.6061
   51bbb    H19 1559   9.835   9.259   3.159 -1.7388 -1.3140  0.2772
   52bbb     N1 1560   9.050   8.120   3.624 -0.3233  0.7735 -0.0308
   52bbb     C1 1561   9.160   8.220   3.612  0.0343  0.2468 -0.1024
   52bbb     H1 1562   9.181   8.263   3.710  0.9743 -1.3246  0.4252
   52bbb     H2 1563   9.119   8.299   3.549 -2.5407 -1.2746 -0.5118
   52bbb     C2 1564   9.093   8.003   3.700  0.2919  0.6173 -0.5764
   52bbb     H3 1565   9.183   7.967   3.651 -0.1073 -2.5450  0.7530
   52bbb     H4 1566   9.011   7.932   3.692 -1.1646  1.8810  1.9833
   52bbb     C3 1567   8.935   8.195   3.686 -0.3059 -0.0815 -0.2006
   52bbb     H5 1568   8.966   8.277   3.752  0.8465  0.2580 -1.1146
   52bbb     H6 1569   8.872   8.127   3.743 -1.1879 -0.2140 -1.2939
   52bbb     C4 1570   8.835   8.259   3.587 -0.4083  0.0470  0.4449
   52bbb     H7 1571   8.762   8.185   3.552  0.9503 -1.5313  0.8476
   52bbb     H8 1572   8.885   8.294   3.495 -0.7749 -0.6768 -0.0445
   52bbb     C5 1573   9.285   8.171   3.527  0.5053  0.4729 -0.0080
   52bbb     H9 1574   9.341   8.084   3.563  1.8459  0.7351 -1.3569
   52bbb    H10 1575   9.352   8.259   3.532  1.3072  0.0132 -1.7058
   52bbb     C6 1576   9.117   8.022   3.855  0.5355 -0.1984 -0.2630
   52bbb    H11 1577   9.027   8.069   3.896 -0.5844 -1.4747 -1.1829
   52bbb    H12 1578   9.205   8.084   3.878  0.4436 -0.7861  1.9633
   52bbb     C7 1579   8.766   8.369   3.661  0.3341  0.6705 -0.2780
   52bbb    H13 1580   8.742   8.334   3.763 -0.6574  1.1741 -0.3210
   52bbb    H14 1581   8.675   8.394   3.605  0.5373  2.2382  0.0391
   52bbb     C8 1582   9.126   7.889   3.933  0.7541 -1.0857 -0.3040
   52bbb    H15 1583   9.024   7.851   3.928  0.1020  0.5423 -0.1272
   52bbb    H16 1584   9.198   7.820   3.889 -0.2818 -2.3507 -0.0750
   52bbb     C9 1585   9.252   8.149   3.373  0.9502  0.7688 -0.0325
   52bbb    H17 1586   9.340   8.148   3.307  2.4369 -1.9597  1.7915
   52bbb    H18 1587   9.175   8.218   3.338 -0.6955 -1.3578 -0.8250
   52bbb     O1 1588   8.853   8.481   3.675 -0.2558  0.8175 -0.1045
   52bbb    H19 1589   9.025   8.102   3.526 -0.1132  0.5061 -0.0338
   53bbb     N1 1590   8.699   8.667   3.250  0.3849  0.0622 -0.2420
   53bbb     C1 1591   8.848   8.700   3.229 -0.1705  0.3943  0.4781
   53bbb     H1 1592   8.852   8.764   3.141  0.5523 -1.5337 -0.9381
   53bbb     H2 1593   8.912   8.613   3.217  0.3792  0.9730 -1.0428
   53bbb     C2 1594   8.650   8.584   3.138 -0.5725  0.3563 -0.0644
   53bbb     H3 1595   8.548   8.547   3.150 -0.1202 -1.0550 -0.3715
   53bbb     H4 1596   8.717   8.499   3.155  3.5147  3.6318  2.2096
   53bbb     C3 1597   8.683   8.587   3.377  0.0907 -0.2267  0.5303
   53bbb     H5 1598   8.741   8.645   3.448  1.3601  0.8767 -1.3236
   53bbb     H6 1599   8.721   8.486   3.358 -0.4229 -0.5862  1.3641
   53bbb     C4 1600   8.534   8.598   3.430  0.3051  0.2252 -0.1287
   53bbb     H7 1601   8.535   8.523   3.510 -0.7601 -0.5048 -0.7634
   53bbb     H8 1602   8.461   8.556   3.359 -0.4779  0.3075  0.6119
   53bbb     C5 1603   8.919   8.787   3.337  0.1467  0.0735  0.6811
   53bbb     H9 1604   8.921   8.736   3.434 -1.0313 -1.3656 -0.0036
   53bbb    H10 1605   8.871   8.885   3.351 -0.0880  0.1121 -0.2862
   53bbb     C6 1606   8.673   8.640   2.998 -0.4778  0.3591 -0.2409
   53bbb    H11 1607   8.648   8.558   2.929 -0.3063 -1.1224  1.3761
   53bbb    H12 1608   8.779   8.649   2.970 -0.9478  1.6109 -1.7123
   53bbb     C7 1609   8.484   8.735   3.476  0.0064  0.4007  0.2880
   53bbb    H13 1610   8.411   8.716   3.556 -0.1126 -0.4557 -0.0188
   53bbb    H14 1611   8.425   8.784   3.398  0.3617  1.7287  0.8226
   53bbb     C8 1612   8.594   8.771   2.975 -0.3882  0.3897 -0.3449
   53bbb    H15 1613   8.612   8.814   2.876 -3.0235  0.6475 -0.7736
   53bbb    H16 1614   8.489   8.740   2.976 -0.1673 -0.4240  1.5895
   53bbb     C9 1615   9.067   8.812   3.292 -0.1262 -0.1639  0.1533
   53bbb    H17 1616   9.120   8.853   3.379 -1.6452  2.4954 -0.0668
   53bbb    H18 1617   9.069   8.880   3.206 -1.4128 -0.9145 -0.5167
   53bbb     O1 1618   8.597   8.825   3.510  0.3327  0.1988 -0.1771
   53bbb    H19 1619   8.636   8.748   3.259 -3.1693 -2.3247 -1.7018
   54bbb     N1 1620   5.293  11.651   3.372 -0.1926  0.7252 -0.1203
   54bbb     C1 1621   5.185  11.588   3.469 -0.4159  0.1810 -0.2736
   54bbb     H1 1622   5.180  11.644   3.563 -3.7683  0.3315 -0.4393
   54bbb     H2 1623   5.210  11.484   3.492  1.9984  0.6768 -0.4438
   54bbb     C2 1624   5.306  11.803   3.405 -0.5325 -0.1111  0.1581
   54bbb     H3 1625   5.383  11.816   3.482  0.0496  0.2029 -0.4593
   54bbb     H4 1626   5.213  11.836   3.451 -0.7376  1.3030 -1.1906
   54bbb     C3 1627   5.422  11.573   3.398  0.0842 -0.1904 -0.3393
   54bbb     H5 1628   5.400  11.468   3.377  0.6116 -0.6661  1.3495
   54bbb     H6 1629   5.455  11.588   3.501  2.7956 -1.0524 -0.9918
   54bbb     C4 1630   5.541  11.615   3.296  0.2817 -0.7288 -0.1704
   54bbb     H7 1631   5.567  11.719   3.319  0.6575 -0.7514 -0.4770
   54bbb     H8 1632   5.507  11.620   3.192  1.1097 -0.4318 -0.4334
   54bbb     C5 1633   5.043  11.604   3.414  0.4966  0.7208  0.0899
   54bbb     H9 1634   5.015  11.710   3.404  0.4805  0.5346 -3.1441
   54bbb    H10 1635   4.974  11.543   3.473  0.4738 -0.3651 -1.0082
   54bbb     C6 1636   5.330  11.899   3.286 -0.2497 -0.4467 -0.3102
   54bbb    H11 1637   5.240  11.891   3.223 -0.1559  0.7393 -0.6072
   54bbb    H12 1638   5.420  11.877   3.228 -0.2790  0.8457 -0.8653
   54bbb     C7 1639   5.668  11.524   3.291  0.1689 -0.2312  0.0047
   54bbb    H13 1640   5.747  11.564   3.227  1.3575 -1.6230  0.5570
   54bbb    H14 1641   5.643  11.424   3.251 -0.3334  0.2794 -0.9970
   54bbb     C8 1642   5.341  12.048   3.329 -0.2359  0.6780  0.3003
   54bbb    H15 1643   5.323  12.104   3.237 -0.9376 -4.6033 -3.2463
   54bbb    H16 1644   5.266  12.071   3.405 -0.9813  2.7212 -0.9586
   54bbb     C9 1645   5.028  11.548   3.267  1.2873  0.0617  0.1659
   54bbb    H17 1646   4.921  11.545   3.241  1.2917  1.3838 -0.0878
   54bbb    H18 1647   5.078  11.451   3.255  1.3599 -0.2218  2.2974
   54bbb     O1 1648   5.724  11.504   3.422  0.4801 -0.1404  0.1381
   54bbb    H19 1649   5.259  11.638   3.276  0.6128 -1.6334 -0.1423
   55bbb     N1 1650   5.194  11.968   4.154  0.5113 -0.6037  0.1003
   55bbb     C1 1651   5.153  12.111   4.182  0.1907  0.0594  0.0430
   55bbb     H1 1652   5.044  12.112   4.192  0.0957  1.3802 -0.8298
   55bbb     H2 1653   5.172  12.168   4.091 -2.4273 -0.6803 -1.0759
   55bbb     C2 1654   5.091  11.907   4.048 -1.0995  0.1547  0.2449
   55bbb     H3 1655   5.144  11.824   4.001  0.2580  2.0192 -1.7417
   55bbb     H4 1656   5.081  11.970   3.959 -0.7735  0.0668  0.1429
   55bbb     C3 1657   5.323  11.957   4.077 -0.1316  0.0374 -0.2739
   55bbb     H5 1658   5.311  12.012   3.983 -1.5942 -1.2559 -0.8903
   55bbb     H6 1659   5.340  11.852   4.052 -0.5929 -0.1228  0.0817
   55bbb     C4 1660   5.460  11.996   4.139  0.0813 -0.2512 -0.3042
   55bbb     H7 1661   5.468  11.964   4.243  0.9476 -0.4321 -0.4227
   55bbb     H8 1662   5.466  12.106   4.147  0.3290 -0.3149  0.4492
   55bbb     C5 1663   5.217  12.182   4.305  0.6712  0.6102  0.0592
   55bbb     H9 1664   5.173  12.283   4.308 -1.2265 -0.1771  0.3484
   55bbb    H10 1665   5.325  12.194   4.291  0.8661 -1.2511 -0.3549
   55bbb     C6 1666   4.952  11.887   4.102 -0.1933  0.0731 -0.0670
   55bbb    H11 1667   4.907  11.980   4.137 -1.7469 -0.4794 -0.5452
   55bbb    H12 1668   4.960  11.825   4.192 -1.0935  0.6586  0.4247
   55bbb     C7 1669   5.579  11.945   4.053  0.1877  0.2045  0.0665
   55bbb    H13 1670   5.674  11.991   4.081  0.9458 -0.7188 -0.9219
   55bbb    H14 1671   5.565  11.960   3.945 -2.0223 -2.0771 -0.0642
   55bbb     C8 1672   4.836  11.839   4.004 -0.0920 -0.3804  1.1873
   55bbb    H15 1673   4.847  11.730   4.001  0.4359 -0.3159  0.6361
   55bbb    H16 1674   4.740  11.865   4.050 -0.5739  1.1229 -0.5482
   55bbb     C9 1675   5.195  12.104   4.434  0.7255 -0.3465  0.3257
   55bbb    H17 1676   5.196  12.182   4.511 -2.3049  0.2170 -0.0599
   55bbb    H18 1677   5.277  12.036   4.457  1.5877  0.5634  0.0014
   55bbb     O1 1678   5.603  11.800   4.065  0.0254 -0.2376 -0.0045
   55bbb    H19 1679   5.176  11.924   4.245 -0.7130  1.6747  1.0547
   56bbb     N1 1680   5.273  10.134   5.146 -0.3971 -0.1361 -0.2828
   56bbb     C1 1681   5.143  10.187   5.209 -0.4484  0.3594 -0.0951
   56bbb     H1 1682   5.129  10.170   5.315 -1.5222  0.4063 -0.2162
   56bbb     H2 1683   5.068  10.118   5.171 -0.7357  2.1927 -3.2229
   56bbb     C2 1684   5.316  10.006   5.227  0.3003  0.0718 -0.4368
   56bbb     H3 1685   5.402   9.964   5.176  2.3241  0.0252  2.7583
   56bbb     H4 1686   5.226   9.945   5.219  0.0361  0.2335  0.9427
   56bbb     C3 1687   5.245  10.083   5.002  0.4054 -0.1248  0.2308
   56bbb     H5 1688   5.166  10.136   4.950 -0.5660  0.0121  1.7605
   56bbb     H6 1689   5.206   9.981   5.007  0.0310 -0.0200 -0.4417
   56bbb     C4 1690   5.379  10.065   4.932 -0.4124  0.4585  0.0403
   56bbb     H7 1691   5.433   9.978   4.973  1.0446  1.1126 -0.4074
   56bbb     H8 1692   5.446  10.149   4.953  0.4864 -0.3931  0.7170
   56bbb     C5 1693   5.107  10.333   5.177  0.0021 -0.0938 -0.5379
   56bbb     H9 1694   5.003  10.336   5.211 -0.2921 -0.1597 -1.4140
   56bbb    H10 1695   5.104  10.356   5.070  0.2996  2.4264 -0.0751
   56bbb     C6 1696   5.355  10.032   5.379  0.4574 -0.6234 -1.2376
   56bbb    H11 1697   5.278  10.088   5.433  1.6946  1.9619 -2.0260
   56bbb    H12 1698   5.443  10.097   5.373 -0.8835  1.2821 -0.9884
   56bbb     C7 1699   5.366  10.057   4.782  0.2880  0.5485 -0.1186
   56bbb    H13 1700   5.347   9.959   4.738 -1.6169  1.2076 -0.8552
   56bbb    H14 1701   5.458  10.098   4.737 -0.5056  1.5249 -0.9222
   56bbb     C8 1702   5.391   9.902   5.450 -0.2353 -0.3054  0.5219
   56bbb    H15 1703   5.474   9.854   5.397  0.9167  0.4780  1.5612
   56bbb    H16 1704   5.422   9.915   5.554 -0.2208 -0.3204  0.5192
   56bbb     C9 1705   5.199  10.434   5.258 -0.1293 -0.1763 -0.3320
   56bbb    H17 1706   5.163  10.532   5.224 -1.0359 -0.3467  0.1233
   56bbb    H18 1707   5.304  10.416   5.231  0.1807  3.9131 -2.7453
   56bbb     O1 1708   5.266  10.155   4.730 -0.4532 -0.2976 -0.5437
   56bbb    H19 1709   5.348  10.205   5.140  0.7208 -1.2688 -0.2412
   57bbb     N1 1710   4.542  10.265   3.854  0.4188 -1.0554 -0.0984
   57bbb     C1 1711   4.495  10.124   3.840 -0.2225 -0.2184  0.2742
   57bbb     H1 1712   4.390  10.130   3.867  0.1735 -0.7721  2.0797
   57bbb     H2 1713   4.544  10.062   3.916 -0.0205 -0.7148 -0.2500
   57bbb     C2 1714   4.484  10.326   3.981 -0.0389 -0.2949  0.1850
   57bbb     H3 1715   4.530  10.424   3.993 -1.1899  0.2589  0.2137
   57bbb     H4 1716   4.512  10.267   4.068 -0.2999  1.3610  1.4466
   57bbb     C3 1717   4.685  10.268   3.860  0.0204  0.3320 -0.0794
   57bbb     H5 1718   4.724  10.196   3.787 -0.3097  2.9080 -2.9806
   57bbb     H6 1719   4.704  10.225   3.959 -1.0069 -1.9852 -0.8059
   57bbb     C4 1720   4.747  10.403   3.840  0.2325  0.2164 -0.5390
   57bbb     H7 1721   4.698  10.471   3.911  1.4141  0.2224  0.3038
   57bbb     H8 1722   4.718  10.430   3.737 -3.3697 -0.1854  0.2353
   57bbb     C5 1723   4.494  10.058   3.704 -0.1244  0.3385 -0.0805
   57bbb     H9 1724   4.579  10.083   3.639  0.5686 -1.4573  0.0705
   57bbb    H10 1725   4.398  10.078   3.654 -1.0946 -1.4534  0.9704
   57bbb     C6 1726   4.333  10.349   3.986 -0.6734  0.0095 -0.2933
   57bbb    H11 1727   4.303  10.372   4.088 -0.8488 -2.2863  0.2336
   57bbb    H12 1728   4.270  10.263   3.960 -0.0186 -0.6234  0.1504
   57bbb     C7 1729   4.904  10.403   3.854 -0.0253 -0.0915 -0.9713
   57bbb    H13 1730   4.937  10.496   3.807 -2.2230  1.3089  0.0982
   57bbb    H14 1731   4.957  10.323   3.801  1.2053 -0.6744  1.0414
   57bbb     C8 1732   4.294  10.467   3.892 -0.1020  0.1100  0.0166
   57bbb    H15 1733   4.192  10.504   3.909 -0.3819  0.0775 -1.4876
   57bbb    H16 1734   4.358  10.553   3.918  0.6514 -0.2896 -0.4920
   57bbb     C9 1735   4.497   9.901   3.717  0.5636  0.0356 -0.8469
   57bbb    H17 1736   4.417   9.866   3.784  2.2153  1.0562  1.8056
   57bbb    H18 1737   4.591   9.871   3.765  0.0850 -0.1502  0.0088
   57bbb     O1 1738   4.938  10.410   3.996 -0.4860 -0.2887 -0.6320
   57bbb    H19 1739   4.496  10.321   3.780 -0.7502 -0.8241  0.7931
   58bbb     N1 1740   8.050  12.255   6.333  0.3671 -0.3199  0.3420
   58bbb     C1 1741   7.967  12.378   6.351  0.5517 -0.4948  0.1238
   58bbb     H1 1742   7.894  12.376   6.432  0.3926  0.1535  0.0083
   58bbb     H2 1743   7.906  12.382   6.261  0.3659 -3.0597  0.0578
   58bbb     C2 1744   8.126  12.221   6.456 -0.3085  0.0962  0.0012
   58bbb     H3 1745   8.175  12.312   6.491  0.6152 -0.3995  0.0315
   58bbb     H4 1746   8.199  12.143   6.436  0.1467  0.4062  0.4288
   58bbb     C3 1747   7.960  12.145   6.279  0.5054  0.2251 -0.1381
   58bbb     H5 1748   7.872  12.137   6.343 -1.0000 -0.5255 -2.2217
   58bbb     H6 1749   8.010  12.051   6.303 -2.4762 -0.9399  2.3014
   58bbb     C4 1750   7.926  12.173   6.135  0.4068  0.3459  0.5011
   58bbb     H7 1751   8.017  12.199   6.079  0.1500 -0.1611 -0.1639
   58bbb     H8 1752   7.852  12.253   6.134  1.2319  1.1212  0.5831
   58bbb     C5 1753   8.052  12.508   6.340  0.1246  0.6295 -0.0891
   58bbb     H9 1754   8.130  12.514   6.417 -0.2662 -0.4118  0.4005
   58bbb    H10 1755   7.986  12.595   6.338  0.0647  0.5853 -1.5668
   58bbb     C6 1756   8.048  12.174   6.581  1.3471 -0.4815  0.6602
   58bbb    H11 1757   7.996  12.079   6.565  0.5472  0.1675 -0.8841
   58bbb    H12 1758   7.976  12.253   6.606  1.8053 -0.4397  1.8933
   58bbb     C7 1759   7.855  12.060   6.059  0.1381 -0.0119  0.0329
   58bbb    H13 1760   7.898  11.965   6.095  0.6967  0.0837 -0.3647
   58bbb    H14 1761   7.879  12.069   5.952 -0.4125 -1.2351 -0.2107
   58bbb     C8 1762   8.142  12.159   6.698  0.5175  0.2398 -0.6621
   58bbb    H15 1763   8.183  12.255   6.731  0.0978  0.4449 -0.7364
   58bbb    H16 1764   8.074  12.121   6.776 -1.7331  1.9564 -1.6669
   58bbb     C9 1765   8.132  12.512   6.203  0.9243  0.6667  0.1556
   58bbb    H17 1766   8.163  12.615   6.179  1.8262  0.4098  0.1922
   58bbb    H18 1767   8.066  12.478   6.122  2.9221  2.2546 -2.2776
   58bbb     O1 1768   7.713  12.062   6.071  0.0150  0.7630  0.1631
   58bbb    H19 1769   8.124  12.279   6.264 -2.2598  1.4761 -2.0832
   59bbb     N1 1770   7.243  12.534   6.950 -0.3194  0.5404  0.4935
   59bbb     C1 1771   7.158  12.539   7.076 -0.1362 -0.3666 -1.3256
   59bbb     H1 1772   7.070  12.599   7.052  0.2609  0.6428 -0.3232
   59bbb     H2 1773   7.210  12.598   7.152  0.5147 -0.2097 -1.8796
   59bbb     C2 1774   7.380  12.491   6.990 -0.3905 -0.3831  0.6992
   59bbb     H3 1775   7.445  12.490   6.903 -1.3376 -1.5094 -0.0172
   59bbb     H4 1776   7.368  12.390   7.032  1.1686 -1.2611 -0.8631
   59bbb     C3 1777   7.180  12.442   6.845  0.4307 -0.2535  0.3824
   59bbb     H5 1778   7.074  12.465   6.837  0.9892  1.7074 -3.1429
   59bbb     H6 1779   7.196  12.342   6.886 -0.6868 -0.5630  0.0861
   59bbb     C4 1780   7.242  12.440   6.698  0.5169  0.4752 -0.7775
   59bbb     H7 1781   7.351  12.435   6.707  0.4372 -1.0530 -0.3391
   59bbb     H8 1782   7.216  12.525   6.633 -1.1622 -0.8624 -1.9636
   59bbb     C5 1783   7.125  12.399   7.137  0.6339  0.4309 -0.6065
   59bbb     H9 1784   7.212  12.333   7.125  1.3693  0.9300  1.5163
   59bbb    H10 1785   7.039  12.357   7.083  1.4781 -0.1167 -1.5446
   59bbb     C6 1786   7.444  12.582   7.097 -0.0762  0.4363 -0.0538
   59bbb    H11 1787   7.426  12.552   7.201  0.6208 -0.3618 -0.1499
   59bbb    H12 1788   7.412  12.687   7.088 -1.9416 -0.2470 -2.0770
   59bbb     C7 1789   7.204  12.311   6.624  0.0036  1.2120  0.4969
   59bbb    H13 1790   7.094  12.308   6.617  0.0916  0.4585 -1.2025
   59bbb    H14 1791   7.238  12.221   6.676  0.2307 -0.8510 -2.8726
   59bbb     C8 1792   7.600  12.564   7.102 -0.1139  0.4953  0.0617
   59bbb    H15 1793   7.653  12.586   7.008 -1.3402 -1.4456 -1.1727
   59bbb    H16 1794   7.636  12.633   7.179  1.4306  2.1336 -2.0184
   59bbb     C9 1795   7.092  12.421   7.287 -0.7016  0.8432  0.3786
   59bbb    H17 1796   7.048  12.331   7.333 -3.5533  2.6332  1.4388
   59bbb    H18 1797   7.016  12.499   7.300 -2.7560 -1.2622  1.9014
   59bbb     O1 1798   7.255  12.301   6.490 -0.3953 -0.1365  0.4625
   59bbb    H19 1799   7.257  12.633   6.924  1.7927 -0.5626 -3.3472
   60bbb     N1 1800   7.314  12.717   5.109  0.5786  0.6435  0.4222
   60bbb     C1 1801   7.315  12.646   4.974  0.7216  0.7166  0.3218
   60bbb     H1 1802   7.307  12.541   5.002 -0.0670  0.1596 -1.8046
   60bbb     H2 1803   7.415  12.669   4.936  1.0758  0.8364  1.3107
   60bbb     C2 1804   7.291  12.864   5.092  0.4476 -0.3797  0.4015
   60bbb     H3 1805   7.264  12.920   5.182  1.3864 -0.6007  0.8345
   60bbb     H4 1806   7.211  12.875   5.018 -0.3595  3.9952  1.6498
   60bbb     C3 1807   7.201  12.671   5.194  0.8575 -0.3501 -0.0629
   60bbb     H5 1808   7.204  12.562   5.201  2.4886 -0.2748  0.9908
   60bbb     H6 1809   7.102  12.680   5.150  0.8398 -1.8939 -0.3857
   60bbb     C4 1810   7.190  12.715   5.341  0.7910  0.8726 -0.3907
   60bbb     H7 1811   7.127  12.804   5.352  2.2306  2.0216 -1.0646
   60bbb     H8 1812   7.293  12.740   5.371  0.8251 -0.2944  0.5269
   60bbb     C5 1813   7.216  12.683   4.857 -1.1593  0.2585 -0.2392
   60bbb     H9 1814   7.222  12.789   4.830  0.8647 -0.5488 -3.6265
   60bbb    H10 1815   7.112  12.662   4.884 -1.0644 -1.9829 -1.4262
   60bbb     C6 1816   7.408  12.951   5.037 -0.4805  1.3043 -0.0330
   60bbb    H11 1817   7.441  12.903   4.944  1.9134  0.8072  1.0024
   60bbb    H12 1818   7.497  12.939   5.100 -0.0554  0.0826 -0.8278
   60bbb     C7 1819   7.132  12.598   5.440 -0.0090  0.3738  0.8520
   60bbb    H13 1820   7.102  12.632   5.540  1.7071  1.7500  0.9522
   60bbb    H14 1821   7.211  12.525   5.459 -1.5620 -2.3126 -2.0190
   60bbb     C8 1822   7.366  13.100   4.995 -0.5498 -0.2883  0.2170
   60bbb    H15 1823   7.419  13.108   4.899 -0.9612 -0.5238 -0.0371
   60bbb    H16 1824   7.262  13.105   4.961  0.0819 -1.5925 -2.1815
   60bbb     C9 1825   7.262  12.608   4.731  0.3137 -0.1141 -0.0046
   60bbb    H17 1826   7.176  12.601   4.664 -0.7580  1.2359  1.1716
   60bbb    H18 1827   7.294  12.507   4.761  2.0115  0.1990 -0.6485
   60bbb     O1 1828   7.032  12.529   5.366  0.1518  0.3536 -0.0786
   60bbb    H19 1829   7.402  12.692   5.156  0.8113 -1.0185 -0.7861
   61bbb     N1 1830   6.291  12.607   5.471  0.2593  0.2859  0.4557
   61bbb     C1 1831   6.135  12.606   5.459 -0.4892  0.9225 -0.0770
   61bbb     H1 1832   6.092  12.655   5.546  0.5016 -0.1141  1.0329
   61bbb     H2 1833   6.106  12.502   5.473 -0.3080  0.9332  0.3918
   61bbb     C2 1834   6.327  12.532   5.593 -0.3685  0.7526  0.1486
   61bbb     H3 1835   6.429  12.493   5.586  0.2255  2.4345 -1.1508
   61bbb     H4 1836   6.257  12.448   5.602 -0.7122  0.7933 -1.8101
   61bbb     C3 1837   6.349  12.542   5.346 -0.1791 -0.6869  0.3007
   61bbb     H5 1838   6.311  12.595   5.259  1.2416 -2.8919 -1.8062
   61bbb     H6 1839   6.313  12.439   5.338 -1.0267 -0.3545 -0.1868
   61bbb     C4 1840   6.500  12.548   5.327 -0.3938 -0.3980  0.2183
   61bbb     H7 1841   6.548  12.479   5.397  1.1729 -1.1684 -1.5474
   61bbb     H8 1842   6.534  12.650   5.346 -1.3745 -0.3556  2.0812
   61bbb     C5 1843   6.080  12.661   5.327  0.3522  0.5530 -0.2586
   61bbb     H9 1844   6.113  12.597   5.243 -0.7034 -0.5076  0.1172
   61bbb    H10 1845   6.131  12.757   5.309 -1.2702  1.8926  1.8988
   61bbb     C6 1846   6.337  12.616   5.724  0.1966  0.0009  1.0360
   61bbb    H11 1847   6.256  12.689   5.726  2.1483  2.6718 -2.7777
   61bbb    H12 1848   6.429  12.672   5.703  0.1077 -0.2118 -0.0230
   61bbb     C7 1849   6.525  12.523   5.183 -0.9071  0.1230 -0.6008
   61bbb    H13 1850   6.629  12.546   5.156 -0.3645  0.7203  1.8179
   61bbb    H14 1851   6.457  12.591   5.130 -3.1942 -1.9247 -0.5026
   61bbb     C8 1852   6.355  12.529   5.848 -0.0401  0.5792 -0.8970
   61bbb    H15 1853   6.268  12.471   5.880 -0.1833  2.6804  3.1966
   61bbb    H16 1854   6.439  12.463   5.825 -0.3899  0.1969 -1.0973
   61bbb     C9 1855   5.926  12.692   5.337  0.0469 -0.0131 -0.0047
   61bbb    H17 1856   5.872  12.609   5.384 -0.2012  0.2161  0.1176
   61bbb    H18 1857   5.887  12.705   5.235  0.2431  0.6559  0.0009
   61bbb     O1 1858   6.478  12.387   5.154  0.1380  0.0907  0.4948
   61bbb    H19 1859   6.325  12.704   5.477  0.8371  0.2041 -1.0092
   62bbb     N1 1860   4.362   8.239   3.471 -0.0630  0.7663  0.1880
   62bbb     C1 1861   4.322   8.372   3.536  0.1284 -0.0156 -0.0682
   62bbb     H1 1862   4.302   8.444   3.456  0.2918 -0.3425 -0.4058
   62bbb     H2 1863   4.409   8.405   3.593  1.4253 -2.6068 -0.4041
   62bbb     C2 1864   4.468   8.263   3.367  0.2142 -0.4357 -0.1953
   62bbb     H3 1865   4.505   8.163   3.344 -1.9402 -1.1579 -0.7827
   62bbb     H4 1866   4.550   8.323   3.407 -1.1360  1.6606 -0.4248
   62bbb     C3 1867   4.443   8.170   3.586 -0.6707  0.5909 -0.2554
   62bbb     H5 1868   4.433   8.236   3.672 -1.5961  1.2751 -0.8704
   62bbb     H6 1869   4.549   8.178   3.560 -0.8453  0.0572 -1.2166
   62bbb     C4 1870   4.412   8.027   3.632 -0.8310  0.6509 -0.3375
   62bbb     H7 1871   4.403   7.969   3.539 -0.5331 -0.0532  0.0680
   62bbb     H8 1872   4.316   8.013   3.682 -1.0529 -3.6549 -1.5237
   62bbb     C5 1873   4.202   8.365   3.632 -0.5233  0.1020  0.4448
   62bbb     H9 1874   4.169   8.468   3.651  0.9842  0.7813 -0.4648
   62bbb    H10 1875   4.234   8.325   3.729 -0.6982 -1.9916 -0.3152
   62bbb     C6 1876   4.423   8.328   3.234  0.2703  0.3085 -0.1696
   62bbb    H11 1877   4.517   8.353   3.184  0.9687 -0.0461  0.9180
   62bbb    H12 1878   4.362   8.415   3.260  0.3443  0.7660 -1.4651
   62bbb     C7 1879   4.521   7.956   3.716 -0.0250  0.5623  0.4592
   62bbb    H13 1880   4.610   7.934   3.656  0.0025 -1.0859  1.0393
   62bbb    H14 1881   4.489   7.866   3.771 -0.3298  2.2408  3.2339
   62bbb     C8 1882   4.345   8.232   3.149  0.6336  0.3981 -0.6948
   62bbb    H15 1883   4.403   8.139   3.152  0.1658  0.1260  0.9302
   62bbb    H16 1884   4.248   8.210   3.196  1.5433 -0.4575  0.8509
   62bbb     C9 1885   4.089   8.276   3.579  0.2500  0.4112 -0.0626
   62bbb    H17 1886   3.997   8.284   3.640  0.7830 -0.4208  0.8803
   62bbb    H18 1887   4.123   8.172   3.588  0.7867  0.6414  0.6565
   62bbb     O1 1888   4.571   8.049   3.823 -0.0370  0.3554 -0.3341
   62bbb    H19 1889   4.281   8.191   3.429  0.6455  0.0108 -0.3569
   63bbb     N1 1890   4.291   7.330   4.722 -0.6369 -0.0994 -0.3155
   63bbb     C1 1891   4.187   7.349   4.848  0.2761 -0.1284 -0.2356
   63bbb     H1 1892   4.247   7.350   4.938  0.6911 -2.3045 -0.4429
   63bbb     H2 1893   4.116   7.266   4.853 -0.4258  0.4341 -0.5767
   63bbb     C2 1894   4.210   7.271   4.607 -1.0185  0.0463 -0.2126
   63bbb     H3 1895   4.145   7.344   4.558 -0.2627  0.7570 -0.1814
   63bbb     H4 1896   4.146   7.199   4.657  1.6001  0.1385  3.6872
   63bbb     C3 1897   4.361   7.457   4.680 -0.4353 -0.2427 -0.1844
   63bbb     H5 1898   4.365   7.520   4.769 -0.1403  0.1140 -0.4469
   63bbb     H6 1899   4.310   7.503   4.594 -1.9799  0.5654  1.1030
   63bbb     C4 1900   4.509   7.431   4.643 -0.7267  0.4431  0.3689
   63bbb     H7 1901   4.512   7.336   4.587  0.1884  1.1488 -0.8357
   63bbb     H8 1902   4.564   7.399   4.732 -0.9786 -3.2449 -0.6062
   63bbb     C5 1903   4.098   7.479   4.844  0.0295 -0.6529  0.0409
   63bbb     H9 1904   4.051   7.499   4.747  0.3722  1.2123  0.2249
   63bbb    H10 1905   4.152   7.574   4.856 -1.2220 -0.0065  0.7057
   63bbb     C6 1906   4.291   7.195   4.499  0.3146 -0.2292 -0.1879
   63bbb    H11 1907   4.342   7.110   4.545 -4.3291 -2.0825  2.2561
   63bbb    H12 1908   4.351   7.273   4.451 -1.4848  1.0782 -0.4283
   63bbb     C7 1909   4.580   7.546   4.557  0.1774  0.3581  0.2360
   63bbb    H13 1910   4.681   7.508   4.537  0.2054 -1.1689  2.7865
   63bbb    H14 1911   4.592   7.633   4.623  1.7625 -1.1809  2.0907
   63bbb     C8 1912   4.199   7.129   4.392  0.7969  0.1912 -0.4940
   63bbb    H15 1913   4.145   7.203   4.332  1.3687  0.6646 -0.4379
   63bbb    H16 1914   4.277   7.081   4.331  1.0335 -0.9803  0.6873
   63bbb     C9 1915   3.976   7.480   4.942 -0.6988 -0.9976 -0.2302
   63bbb    H17 1916   3.950   7.585   4.956 -1.2129 -0.9544 -1.3486
   63bbb    H18 1917   4.006   7.444   5.041 -0.6822 -0.1471  0.0764
   63bbb     O1 1918   4.502   7.570   4.441  0.4694  0.3598 -0.4984
   63bbb    H19 1919   4.359   7.263   4.760 -0.1621  0.5391 -0.0220
   64bbb     N1 1920   5.723   8.246   4.036  0.0881 -0.2467  0.2268
   64bbb     C1 1921   5.598   8.311   3.987  0.9686  0.2025  0.2199
   64bbb     H1 1922   5.586   8.404   4.042  0.8974  0.4709 -0.2532
   64bbb     H2 1923   5.518   8.240   4.012 -0.1156  1.9143  1.8581
   64bbb     C2 1924   5.725   8.237   4.189 -0.1785 -0.6184  0.1421
   64bbb     H3 1925   5.808   8.168   4.207  0.1676  0.0532  1.1927
   64bbb     H4 1926   5.636   8.186   4.226 -0.6163  2.0802  3.3413
   64bbb     C3 1927   5.741   8.105   3.973  0.2063  0.1491 -0.0624
   64bbb     H5 1928   5.701   8.107   3.872 -2.3640  1.0060  0.8950
   64bbb     H6 1929   5.669   8.040   4.023 -0.2383  0.8203  0.1900
   64bbb     C4 1930   5.868   8.035   3.988 -0.2253  0.1114 -0.4840
   64bbb     H7 1931   5.905   8.021   4.090  0.0542  0.8048 -0.4852
   64bbb     H8 1932   5.936   8.093   3.924  1.4579  1.1871  2.1117
   64bbb     C5 1933   5.583   8.335   3.839 -0.2871  0.6551  0.6872
   64bbb     H9 1934   5.481   8.365   3.811 -0.5026  0.1317  0.8950
   64bbb    H10 1935   5.612   8.250   3.777 -1.3235 -1.1982  2.6179
   64bbb     C6 1936   5.740   8.379   4.256 -0.7610 -0.1771 -1.1129
   64bbb    H11 1937   5.664   8.442   4.208  0.5962  0.9881 -1.7871
   64bbb    H12 1938   5.840   8.420   4.240 -1.3128  0.6375 -2.6591
   64bbb     C7 1939   5.849   7.891   3.933 -0.0754 -0.0861  0.3765
   64bbb    H13 1940   5.946   7.844   3.914 -0.3908 -0.8163  0.5386
   64bbb    H14 1941   5.810   7.890   3.831  1.3029 -0.1893 -0.1705
   64bbb     C8 1942   5.713   8.368   4.409 -0.3308  0.1144 -0.3671
   64bbb    H15 1943   5.682   8.467   4.444 -1.4592  0.5251 -2.3295
   64bbb    H16 1944   5.642   8.287   4.428  1.8068 -2.0570 -1.0279
   64bbb     C9 1945   5.668   8.462   3.799  0.3848 -0.4081  0.2136
   64bbb    H17 1946   5.638   8.497   3.700  1.0433  0.6124  0.3684
   64bbb    H18 1947   5.771   8.424   3.794  1.0283  1.4331 -2.8829
   64bbb     O1 1948   5.787   7.805   4.030  0.2565 -0.1238 -0.3587
   64bbb    H19 1949   5.799   8.307   4.002 -0.9069  0.1399 -1.3888
   65bbb     N1 1950   5.199   6.619   3.802  0.1069 -0.4662 -0.0132
   65bbb     C1 1951   5.307   6.532   3.857  0.5933 -0.1542  0.1597
   65bbb     H1 1952   5.318   6.548   3.964  0.3624  0.7747  0.0577
   65bbb     H2 1953   5.401   6.551   3.804  0.9733 -2.1127  0.0808
   65bbb     C2 1954   5.074   6.617   3.889  0.0416 -0.1470 -0.3783
   65bbb     H3 1955   5.098   6.680   3.974 -0.4598  0.8180 -0.9298
   65bbb     H4 1956   5.063   6.512   3.918  0.5687 -0.6255 -1.7788
   65bbb     C3 1957   5.255   6.758   3.790  0.9259 -0.2234  0.6247
   65bbb     H5 1958   5.307   6.767   3.886 -2.0003  0.0702  2.2854
   65bbb     H6 1959   5.177   6.833   3.792  0.7786 -0.3762  0.6460
   65bbb     C4 1960   5.345   6.801   3.675  0.5451  0.3459  0.3522
   65bbb     H7 1961   5.320   6.739   3.588  0.7670  2.4376 -1.2886
   65bbb     H8 1962   5.449   6.772   3.694  0.9536  1.1308 -0.5902
   65bbb     C5 1963   5.281   6.383   3.830  0.4470 -0.2011  0.2148
   65bbb     H9 1964   5.178   6.353   3.853 -0.3712  0.8003 -1.9115
   65bbb    H10 1965   5.353   6.325   3.888  1.3631  1.5258  0.8916
   65bbb     C6 1966   4.944   6.669   3.818  0.2132 -0.1804 -0.4276
   65bbb    H11 1967   4.928   6.640   3.713 -1.4612 -2.9027  0.4589
   65bbb    H12 1968   4.955   6.778   3.814  0.3761 -0.1780  0.1182
   65bbb     C7 1969   5.327   6.954   3.649  1.0323  0.8548 -0.3064
   65bbb    H13 1970   5.220   6.962   3.626  0.8177 -1.1764 -0.2300
   65bbb    H14 1971   5.388   6.977   3.560  0.0784 -0.7713 -1.4225
   65bbb     C8 1972   4.812   6.636   3.887 -0.2016 -0.1756  0.3237
   65bbb    H15 1973   4.806   6.695   3.980 -0.3156 -1.2843  1.0409
   65bbb    H16 1974   4.716   6.659   3.839 -0.1955 -0.5369  0.1380
   65bbb     C9 1975   5.312   6.346   3.680 -0.0752 -0.4033 -0.4966
   65bbb    H17 1976   5.229   6.394   3.627 -1.1892 -1.8439 -0.1133
   65bbb    H18 1977   5.296   6.239   3.661 -1.6195 -0.6046  1.5787
   65bbb     O1 1978   5.357   7.043   3.760  0.5792  0.0161  0.4034
   65bbb    H19 1979   5.179   6.587   3.706  1.5373  2.9127 -1.6154
   66bbb     N1 1980   3.599   7.321   5.809  0.1129 -0.9124 -0.2827
   66bbb     C1 1981   3.507   7.447   5.794 -0.7064  0.5499 -0.4196
   66bbb     H1 1982   3.525   7.473   5.690 -1.3869 -0.0372 -0.6916
   66bbb     H2 1983   3.550   7.528   5.854  0.0386  1.0071 -1.5361
   66bbb     C2 1984   3.546   7.214   5.718  0.0467  0.1585  0.7419
   66bbb     H3 1985   3.445   7.203   5.758  0.3174 -0.2457  1.3364
   66bbb     H4 1986   3.597   7.120   5.738  2.0043  1.1505  0.7404
   66bbb     C3 1987   3.738   7.364   5.775  0.4751  0.8321 -0.2672
   66bbb     H5 1988   3.722   7.426   5.687 -2.1490  0.9319  0.1906
   66bbb     H6 1989   3.796   7.276   5.747  2.3997  2.2439 -0.9305
   66bbb     C4 1990   3.815   7.434   5.886 -1.1405  0.3361  0.7550
   66bbb     H7 1991   3.836   7.362   5.967 -2.5823 -1.8840 -0.7314
   66bbb     H8 1992   3.746   7.509   5.925 -1.5039  0.8909 -0.8879
   66bbb     C5 1993   3.356   7.428   5.810  0.3319  0.3528 -0.1420
   66bbb     H9 1994   3.337   7.427   5.918  1.1790  1.4066  0.0367
   66bbb    H10 1995   3.319   7.341   5.755  1.4805  1.1962 -2.4246
   66bbb     C6 1996   3.546   7.239   5.567  0.7110 -0.1470  0.6054
   66bbb    H11 1997   3.647   7.256   5.527  0.0233  0.3331 -1.0292
   66bbb    H12 1998   3.488   7.331   5.553 -0.7651 -1.3268 -1.7018
   66bbb     C7 1999   3.951   7.489   5.837  0.3551  0.5753  0.0878
   66bbb    H13 2000   3.996   7.406   5.781 -0.5696 -0.7967  1.3009
   66bbb    H14 2001   4.011   7.514   5.925  0.4910  0.4874  0.0196
   66bbb     C8 2002   3.483   7.118   5.488  0.7755  0.1813  0.5317
   66bbb    H15 2003   3.374   7.123   5.501  0.7389 -0.7131  0.5953
   66bbb    H16 2004   3.512   7.137   5.384 -0.4826  2.3745  0.5225
   66bbb     C9 2005   3.278   7.550   5.755 -0.0478 -0.2605  0.0283
   66bbb    H17 2006   3.174   7.517   5.769 -0.0282 -0.4397 -0.2401
   66bbb    H18 2007   3.292   7.569   5.648 -0.0198  1.7766  0.3691
   66bbb     O1 2008   3.935   7.604   5.747  0.0328 -0.1988  0.0607
   66bbb    H19 2009   3.593   7.295   5.908 -3.6064 -1.5419 -0.5174
   67bbb     N1 2010   4.801   7.129   5.865  0.4761  0.5746  0.0560
   67bbb     C1 2011   4.710   7.035   5.794  0.3571 -0.0568 -0.4787
   67bbb     H1 2012   4.734   7.032   5.688 -1.6923  1.5755 -1.0471
   67bbb     H2 2013   4.611   7.081   5.799 -0.7237 -2.1843 -1.0941
   67bbb     C2 2014   4.933   7.069   5.828  0.0587 -0.2451 -0.3811
   67bbb     H3 2015   4.949   7.052   5.721  0.1425 -1.6018 -0.1629
   67bbb     H4 2016   4.932   6.967   5.867 -1.2611  0.9297  2.9859
   67bbb     C3 2017   4.766   7.270   5.808 -0.3875  0.2979 -0.5121
   67bbb     H5 2018   4.815   7.342   5.874 -1.4295  0.8522 -0.3191
   67bbb     H6 2019   4.658   7.282   5.819 -0.6844 -0.6975 -1.9936
   67bbb     C4 2020   4.809   7.296   5.661 -0.5918 -0.1426  0.7227
   67bbb     H7 2021   4.760   7.228   5.590  2.8484 -1.5902 -0.4975
   67bbb     H8 2022   4.912   7.262   5.642 -0.8145 -0.9751  0.9630
   67bbb     C5 2023   4.691   6.897   5.857 -0.3215 -0.5785 -0.8987
   67bbb     H9 2024   4.633   6.913   5.949  0.4070  0.3520 -0.5792
   67bbb    H10 2025   4.787   6.848   5.876  0.7537  1.5116 -0.6448
   67bbb     C6 2026   5.045   7.155   5.896  0.2087  1.1063  1.0988
   67bbb    H11 2027   5.036   7.153   6.006  1.0771 -1.4587  1.1825
   67bbb    H12 2028   5.035   7.253   5.847  0.3964 -0.4463 -2.3307
   67bbb     C7 2029   4.802   7.453   5.631 -0.2468  0.1104  0.0074
   67bbb    H13 2030   4.841   7.476   5.531 -1.8554  2.0413 -0.2373
   67bbb    H14 2031   4.860   7.515   5.701  0.2885  0.9320 -1.1356
   67bbb     C8 2032   5.179   7.088   5.868 -0.3928  0.0988 -0.0327
   67bbb    H15 2033   5.253   7.148   5.922  0.2932  0.2275 -1.1082
   67bbb    H16 2034   5.180   6.994   5.925 -2.4596 -0.2774 -0.5461
   67bbb     C9 2035   4.614   6.805   5.756 -0.1962 -0.1643 -0.0101
   67bbb    H17 2036   4.618   6.700   5.786  3.0375  0.0699  0.8057
   67bbb    H18 2037   4.656   6.818   5.655  3.6551  0.9018  1.5363
   67bbb     O1 2038   4.661   7.482   5.631  0.2357  0.0155  0.1948
   67bbb    H19 2039   4.791   7.116   5.967  1.3393 -1.7490 -0.0970
   68bbb     N1 2040   4.418   7.934   6.829 -0.6028 -0.2861 -0.3392
   68bbb     C1 2041   4.296   8.014   6.871  0.4926 -0.2661  0.2864
   68bbb     H1 2042   4.271   8.073   6.783 -1.4576  0.6264  1.3609
   68bbb     H2 2043   4.322   8.090   6.945 -0.0825 -0.9233  1.1804
   68bbb     C2 2044   4.383   7.865   6.694 -0.7797 -0.2724 -0.3976
   68bbb     H3 2045   4.372   7.946   6.621 -2.9246  0.6068  0.8219
   68bbb     H4 2046   4.286   7.819   6.715 -0.6440 -0.2530  0.3018
   68bbb     C3 2047   4.539   8.030   6.825  0.1481  0.5006  0.7357
   68bbb     H5 2048   4.505   8.121   6.776 -0.9900 -0.9621 -1.3339
   68bbb     H6 2049   4.608   7.993   6.750  0.2964  2.6916 -0.2709
   68bbb     C4 2050   4.609   8.049   6.959 -0.4051  0.4957 -0.1844
   68bbb     H7 2051   4.654   7.953   6.988  0.2358  0.1877 -2.1010
   68bbb     H8 2052   4.538   8.076   7.039 -1.0356 -3.0378  0.6158
   68bbb     C5 2053   4.176   7.925   6.935 -0.1068 -0.5252  0.0974
   68bbb     H9 2054   4.211   7.864   7.020  0.1632 -1.6414 -0.7911
   68bbb    H10 2055   4.134   7.859   6.858 -0.0880  1.6772 -1.8918
   68bbb     C6 2056   4.473   7.751   6.651 -0.8457 -0.2276 -0.4154
   68bbb    H11 2057   4.580   7.776   6.641 -0.4009 -0.5880  2.5324
   68bbb    H12 2058   4.442   7.710   6.554  1.4198 -1.7024 -0.5939
   68bbb     C7 2059   4.720   8.151   6.956  0.1490  0.0182 -0.5660
   68bbb    H13 2060   4.805   8.105   6.905  1.2202  0.1742  1.0313
   68bbb    H14 2061   4.758   8.180   7.054  2.4265  0.3934 -1.4950
   68bbb     C8 2062   4.464   7.634   6.755 -0.0822  0.3892  0.0337
   68bbb    H15 2063   4.360   7.601   6.759  0.2394 -1.0731 -1.9259
   68bbb    H16 2064   4.517   7.549   6.709  1.2019  1.7178 -1.0580
   68bbb     C9 2065   4.064   8.018   6.984  0.1084  0.0222 -0.2462
   68bbb    H17 2066   3.978   7.955   7.007 -0.5457  1.0501  0.1943
   68bbb    H18 2067   4.032   8.080   6.899 -0.1518 -1.8827 -1.6068
   68bbb     O1 2068   4.676   8.272   6.879  0.3663 -0.0348 -0.4530
   68bbb    H19 2069   4.443   7.859   6.895 -1.6266 -1.2858 -1.0490
   69bbb     N1 2070   3.777   8.448   6.257  0.0664  0.2479 -0.1520
   69bbb     C1 2071   3.658   8.531   6.297 -0.1592  0.0961 -0.0892
   69bbb     H1 2072   3.597   8.452   6.341  0.8702 -0.6724  0.0037
   69bbb     H2 2073   3.607   8.577   6.212  0.1984 -0.8955 -0.8605
   69bbb     C2 2074   3.730   8.345   6.154 -0.2524  0.1464  0.1870
   69bbb     H3 2075   3.817   8.290   6.116 -1.7030  0.0683 -3.3600
   69bbb     H4 2076   3.699   8.402   6.067 -2.2138  0.2304  0.8799
   69bbb     C3 2077   3.891   8.532   6.201 -0.1798 -0.8766  0.2120
   69bbb     H5 2078   3.902   8.611   6.275 -3.4442 -1.1169  1.1040
   69bbb     H6 2079   3.857   8.578   6.108  1.4907  0.6618  0.3204
   69bbb     C4 2080   4.031   8.476   6.190 -0.0594  0.6346 -0.6823
   69bbb     H7 2081   4.089   8.568   6.178 -0.3182  0.9711  0.4833
   69bbb     H8 2082   4.041   8.414   6.100  1.8623 -1.4240  0.8409
   69bbb     C5 2083   3.689   8.624   6.418 -0.1652  0.3501 -0.5183
   69bbb     H9 2084   3.763   8.697   6.384 -0.5172  0.3464 -1.3188
   69bbb    H10 2085   3.742   8.566   6.494 -0.2880  0.4008 -0.3929
   69bbb     C6 2086   3.612   8.250   6.189  0.1062  0.1790 -0.1092
   69bbb    H11 2087   3.584   8.208   6.092  2.6641 -0.3108 -0.7103
   69bbb    H12 2088   3.530   8.315   6.224  0.2697  0.1110  0.4045
   69bbb     C7 2089   4.070   8.401   6.316 -0.7677  0.0254  0.0390
   69bbb    H13 2090   4.161   8.344   6.293 -1.1505 -0.7691  0.4460
   69bbb    H14 2091   3.990   8.331   6.345  0.4295 -1.0909  0.7240
   69bbb     C8 2092   3.650   8.147   6.295  0.2793 -0.1759  0.0707
   69bbb    H15 2093   3.557   8.095   6.320 -0.4571  1.7198  1.5177
   69bbb    H16 2094   3.721   8.068   6.270 -0.2649 -0.5925 -0.1791
   69bbb     C9 2095   3.562   8.689   6.476 -0.2086  0.1176 -0.0477
   69bbb    H17 2096   3.492   8.607   6.495  1.0916 -1.3059 -1.1507
   69bbb    H18 2097   3.521   8.756   6.400  1.2402  0.6999 -0.3505
   69bbb     O1 2098   4.088   8.489   6.425 -0.2013 -0.1536  0.0332
   69bbb    H19 2099   3.805   8.406   6.347 -0.6944  0.3643  0.1490
   70bbb     N1 2100   8.632   6.579   5.206 -0.5878  0.2049  0.5716
   70bbb     C1 2101   8.682   6.545   5.343 -0.1077  0.3771 -0.1527
   70bbb     H1 2102   8.592   6.519   5.399  0.2073  0.8563  0.6069
   70bbb     H2 2103   8.719   6.633   5.396 -1.7146 -0.3631  2.3988
   70bbb     C2 2104   8.557   6.457   5.158 -0.2754 -0.7107 -0.0048
   70bbb     H3 2105   8.452   6.463   5.189 -0.9935 -2.5338 -1.8189
   70bbb     H4 2106   8.587   6.367   5.212 -0.1111 -0.7870 -0.2219
   70bbb     C3 2107   8.552   6.709   5.221 -0.5887  0.7365  0.1281
   70bbb     H5 2108   8.617   6.771   5.282 -1.8859  0.5527  1.7839
   70bbb     H6 2109   8.463   6.686   5.281 -0.1898  0.9998  0.8291
   70bbb     C4 2110   8.527   6.783   5.089  0.0956 -0.1453 -0.1680
   70bbb     H7 2111   8.495   6.704   5.019  0.8090 -3.4073  2.8810
   70bbb     H8 2112   8.620   6.828   5.053  0.7153 -1.2963 -0.0627
   70bbb     C5 2113   8.786   6.428   5.355  0.5683  0.4195 -0.2902
   70bbb     H9 2114   8.754   6.326   5.329 -0.8443  0.5240  0.9297
   70bbb    H10 2115   8.809   6.412   5.461  0.2596 -0.5565 -0.3606
   70bbb     C6 2116   8.562   6.428   5.007 -0.0614  0.0944 -0.6387
   70bbb    H11 2117   8.659   6.385   4.981 -0.4141 -2.0012  1.2277
   70bbb    H12 2118   8.540   6.520   4.951 -2.2813 -0.1547 -0.2582
   70bbb     C7 2119   8.424   6.886   5.110  0.6030 -0.5695  0.4018
   70bbb    H13 2120   8.331   6.830   5.128  0.3677 -0.3462 -0.0976
   70bbb    H14 2121   8.418   6.952   5.022  0.0044 -0.0312  0.8391
   70bbb     C8 2122   8.449   6.334   4.968 -0.7107  1.2082  0.4239
   70bbb    H15 2123   8.455   6.236   5.017  0.0819  0.9963 -0.0783
   70bbb    H16 2124   8.350   6.371   5.000 -1.5415 -1.9604  1.9543
   70bbb     C9 2125   8.916   6.475   5.285  0.3781 -0.0580 -0.2081
   70bbb    H17 2126   8.999   6.404   5.297  0.9776  0.6416 -0.1440
   70bbb    H18 2127   8.955   6.564   5.336 -0.4100 -0.9950  2.1456
   70bbb     O1 2128   8.457   6.970   5.226  0.0484 -0.2531  0.1803
   70bbb    H19 2129   8.718   6.587   5.149 -1.1922 -2.0209 -0.7960
   71bbb     N1 2130   8.942   7.363   5.116  0.1940 -0.2247 -0.4539
   71bbb     C1 2131   9.029   7.484   5.106  0.1673  0.6673 -0.2036
   71bbb     H1 2132   9.110   7.452   5.039 -0.3796 -0.3144 -0.4139
   71bbb     H2 2133   9.071   7.487   5.207 -0.5269 -0.1767  0.1171
   71bbb     C2 2134   9.023   7.255   5.185  0.4301 -0.1895 -0.0458
   71bbb     H3 2135   8.958   7.185   5.237 -0.3628  0.6244  0.0754
   71bbb     H4 2136   9.089   7.309   5.254  1.8847 -1.2238 -0.5810
   71bbb     C3 2137   8.815   7.392   5.200 -0.3218  0.5329  0.7258
   71bbb     H5 2138   8.753   7.303   5.212 -1.2308  1.2772  1.6927
   71bbb     H6 2139   8.758   7.457   5.135  0.0800 -1.4036 -1.7423
   71bbb     C4 2140   8.832   7.456   5.337  0.6439 -0.5312 -0.4568
   71bbb     H7 2141   8.889   7.550   5.332  0.2655 -0.3582 -1.8180
   71bbb     H8 2142   8.906   7.401   5.396  0.8596  1.2962  1.0678
   71bbb     C5 2143   8.963   7.620   5.057 -0.2089  0.1488 -0.2718
   71bbb     H9 2144   8.888   7.667   5.123 -1.2236  0.0647 -1.3328
   71bbb    H10 2145   8.921   7.591   4.960  0.8177 -1.2000 -0.3409
   71bbb     C6 2146   9.117   7.172   5.098 -0.4849  0.2372 -0.6723
   71bbb    H11 2147   9.204   7.227   5.059 -0.2698  0.4112  0.0462
   71bbb    H12 2148   9.058   7.138   5.012  0.4854 -0.8491 -0.9279
   71bbb     C7 2149   8.695   7.477   5.411 -0.2496  0.4874  0.2097
   71bbb    H13 2150   8.713   7.516   5.512 -0.2605  1.5875 -0.1957
   71bbb    H14 2151   8.648   7.379   5.424  3.4880 -1.5520 -0.2220
   71bbb     C8 2152   9.166   7.039   5.161  0.6902 -0.3271  0.2294
   71bbb    H15 2153   9.085   6.979   5.205  0.0639 -0.0661 -0.5387
   71bbb    H16 2154   9.205   6.984   5.075  0.0172  0.8926 -0.9042
   71bbb     C9 2155   9.075   7.717   5.027  0.4764 -0.4695 -0.1556
   71bbb    H17 2156   9.030   7.814   5.004 -0.7135  0.2813  4.2813
   71bbb    H18 2157   9.131   7.672   4.944  1.0158 -2.8209  1.3810
   71bbb     O1 2158   8.618   7.568   5.328 -0.2642  0.0570 -0.0810
   71bbb    H19 2159   8.910   7.339   5.021 -1.9025 -0.4857  0.2761
   72bbb     N1 2160   7.008   7.928   3.967 -0.4158  0.5296  0.1041
   72bbb     C1 2161   6.927   7.809   3.920  0.1973  0.0108  0.3265
   72bbb     H1 2162   6.985   7.730   3.872 -0.1812  0.7872 -1.5128
   72bbb     H2 2163   6.850   7.845   3.852 -2.1875 -0.4029  2.6454
   72bbb     C2 2164   7.097   7.977   3.851 -0.0285  0.5508  0.2323
   72bbb     H3 2165   7.146   8.070   3.879  0.9111 -0.4220  2.0390
   72bbb     H4 2166   7.033   8.009   3.769  3.2177 -1.4765 -3.4516
   72bbb     C3 2167   6.925   8.032   4.026 -0.4188  1.2267 -0.2786
   72bbb     H5 2168   6.841   7.981   4.074 -0.2130  0.7885 -0.3818
   72bbb     H6 2169   6.891   8.087   3.938  1.2809  2.2969 -0.3140
   72bbb     C4 2170   7.000   8.132   4.119 -0.1261  0.5812 -0.0609
   72bbb     H7 2171   6.940   8.220   4.144  0.0577  0.0490  2.5247
   72bbb     H8 2172   7.087   8.172   4.065  1.4891 -1.9516  0.4581
   72bbb     C5 2173   6.837   7.747   4.025 -0.5441  0.6473 -0.1116
   72bbb     H9 2174   6.757   7.813   4.061 -0.7511 -0.2891  1.2073
   72bbb    H10 2175   6.894   7.720   4.114 -2.0599  2.2314  1.3989
   72bbb     C6 2176   7.202   7.878   3.798 -0.5740 -0.3338  0.2190
   72bbb    H11 2177   7.139   7.800   3.754 -0.8694  0.6302 -1.0940
   72bbb    H12 2178   7.262   7.824   3.872 -0.4387 -1.9692 -1.0313
   72bbb     C7 2179   7.047   8.057   4.246 -0.3477  0.1019 -0.2320
   72bbb    H13 2180   6.959   8.014   4.296  1.3165 -1.9702  1.0847
   72bbb    H14 2181   7.102   8.134   4.302 -0.2197 -1.6185  2.1647
   72bbb     C8 2182   7.307   7.942   3.689  0.5406  0.0053  0.0387
   72bbb    H15 2183   7.371   8.019   3.735  0.1983  0.4351 -0.1968
   72bbb    H16 2184   7.370   7.866   3.642 -1.0166 -0.7907 -0.8460
   72bbb     C9 2185   6.764   7.622   3.965 -0.2240  0.3833 -0.2271
   72bbb    H17 2186   6.739   7.550   4.045  2.1596 -1.7614 -1.2821
   72bbb    H18 2187   6.837   7.558   3.914  0.2928  3.0253 -3.0235
   72bbb     O1 2188   7.137   7.959   4.205 -0.2655  0.2813 -0.3331
   72bbb    H19 2189   7.071   7.900   4.043 -0.0454 -0.6077 -0.5797
   73bbb     N1 2190   7.683   7.064   3.848 -0.1216 -0.2574 -0.8463
   73bbb     C1 2191   7.706   6.956   3.949  0.5905  0.2537 -0.2363
   73bbb     H1 2192   7.611   6.912   3.980 -0.0914 -0.8272 -3.4491
   73bbb     H2 2193   7.742   7.003   4.041 -1.1624  0.7792  0.2210
   73bbb     C2 2194   7.582   7.025   3.739 -0.8119 -0.2348 -0.3334
   73bbb     H3 2195   7.634   6.982   3.654  0.6420 -1.1507  0.9589
   73bbb     H4 2196   7.547   7.124   3.709  0.3924  0.0617 -0.7900
   73bbb     C3 2197   7.637   7.186   3.929  0.1247  0.7912 -0.3771
   73bbb     H5 2198   7.564   7.144   3.998  0.2323  1.1125 -0.0683
   73bbb     H6 2199   7.594   7.253   3.855 -0.1155 -0.6485 -1.5748
   73bbb     C4 2200   7.732   7.264   4.021  0.4374 -0.4901 -0.9610
   73bbb     H7 2201   7.831   7.288   3.980 -0.7150  2.2346 -2.3923
   73bbb     H8 2202   7.744   7.189   4.099 -2.7524  0.7052  0.8516
   73bbb     C5 2203   7.798   6.841   3.913 -0.6617 -0.1571  0.0380
   73bbb     H9 2204   7.752   6.777   3.837 -3.1436 -1.1678  2.2581
   73bbb    H10 2205   7.806   6.772   3.997  3.2363 -0.3300 -0.2941
   73bbb     C6 2206   7.452   6.959   3.793  0.0500 -0.3412 -0.3848
   73bbb    H11 2207   7.419   6.999   3.889 -0.5809 -2.7695  0.4726
   73bbb    H12 2208   7.475   6.855   3.816 -0.5446 -0.1335  1.2947
   73bbb     C7 2209   7.669   7.386   4.088  0.1038  0.5369 -0.0912
   73bbb    H13 2210   7.633   7.457   4.013 -1.5450  0.4720  0.5906
   73bbb    H14 2211   7.745   7.432   4.153  0.7972  1.9502 -1.8357
   73bbb     C8 2212   7.327   6.982   3.693  0.1189 -0.0774  0.2398
   73bbb    H15 2213   7.239   6.935   3.738 -0.3546 -1.3120 -1.8205
   73bbb    H16 2214   7.320   7.088   3.667 -1.0853  0.1510  1.4273
   73bbb     C9 2215   7.944   6.874   3.864  0.8007 -0.6830  0.7331
   73bbb    H17 2216   8.002   6.781   3.865 -0.5659 -1.5564  0.9632
   73bbb    H18 2217   7.996   6.946   3.928  0.3451  2.1949 -1.9077
   73bbb     O1 2218   7.561   7.335   4.172  0.1038 -0.2006  0.0077
   73bbb    H19 2219   7.772   7.084   3.801 -0.0573  1.4688 -0.0598
   74bbb     N1 2220   6.813   5.245   5.580  0.5095  0.5254  0.4260
   74bbb     C1 2221   6.691   5.175   5.630  0.4579  0.5010 -0.1329
   74bbb     H1 2222   6.657   5.229   5.718 -0.3368 -2.4497  1.4842
   74bbb     H2 2223   6.719   5.077   5.667  1.5525  0.7252 -0.3255
   74bbb     C2 2224   6.900   5.171   5.478 -0.4624  0.4544 -0.1456
   74bbb     H3 2225   6.845   5.152   5.385  0.4984 -1.7057 -0.3268
   74bbb     H4 2226   6.906   5.068   5.515 -0.5818 -0.3182 -2.1613
   74bbb     C3 2227   6.777   5.380   5.524 -0.4983  0.6463  0.5014
   74bbb     H5 2228   6.707   5.349   5.447 -0.2408 -0.0815  0.5598
   74bbb     H6 2229   6.865   5.415   5.469  0.5694 -0.8433  1.1760
   74bbb     C4 2230   6.724   5.486   5.618  0.4623  0.1412  0.5029
   74bbb     H7 2231   6.798   5.533   5.684  0.9250  0.4285 -0.2208
   74bbb     H8 2232   6.646   5.442   5.682 -0.3973 -0.1171 -0.6945
   74bbb     C5 2233   6.573   5.144   5.530  0.1314 -0.4362  0.5769
   74bbb     H9 2234   6.615   5.083   5.450 -0.1131  0.3237 -0.1478
   74bbb    H10 2235   6.528   5.232   5.481  1.3061 -0.4213 -0.5029
   74bbb     C6 2236   7.041   5.230   5.451 -0.2887 -0.1366  0.1212
   74bbb    H11 2237   7.092   5.242   5.547 -2.3911  1.4771  1.1169
   74bbb    H12 2238   7.040   5.328   5.403  0.6338  1.1437  2.5658
   74bbb     C7 2239   6.639   5.589   5.540 -0.1351 -0.1110  0.4233
   74bbb    H13 2240   6.536   5.551   5.536 -0.4850  0.9048 -0.8283
   74bbb    H14 2241   6.678   5.591   5.438 -0.7215  0.4827  0.2009
   74bbb     C8 2242   7.126   5.129   5.366 -0.3657 -0.4569  0.2759
   74bbb    H15 2243   7.210   5.176   5.314 -0.4763 -0.8328 -0.2523
   74bbb    H16 2244   7.190   5.064   5.427  0.5815  0.4003  0.2037
   74bbb     C9 2245   6.459   5.072   5.598  0.2923  0.6541  0.0558
   74bbb    H17 2246   6.382   5.054   5.521  0.7865  1.1595 -0.5707
   74bbb    H18 2247   6.413   5.130   5.679 -1.2621 -2.2469  1.3926
   74bbb     O1 2248   6.642   5.713   5.611 -0.2975 -0.3955 -0.0523
   74bbb    H19 2249   6.873   5.249   5.663  2.8077  1.0827 -1.1493
   75bbb     N1 2250   7.025   6.004   6.551 -0.7407 -0.7351 -0.7557
   75bbb     C1 2251   7.169   6.048   6.521 -0.2976 -0.9441  0.1320
   75bbb     H1 2252   7.209   5.973   6.453  1.0829 -1.9393  1.9499
   75bbb     H2 2253   7.216   6.034   6.618 -0.9983  1.2162  0.8272
   75bbb     C2 2254   6.964   6.114   6.640 -0.1629  0.6258  0.2438
   75bbb     H3 2255   6.958   6.202   6.576 -0.1647 -0.3468 -1.1394
   75bbb     H4 2256   7.040   6.126   6.718  0.4241  1.8008 -0.4855
   75bbb     C3 2257   6.947   5.974   6.427 -0.0923 -0.2006  0.1209
   75bbb     H5 2258   6.940   6.064   6.366  0.5945 -0.3644 -0.2042
   75bbb     H6 2259   6.843   5.956   6.456 -0.2560  0.6373  0.0685
   75bbb     C4 2260   6.990   5.865   6.333 -0.3490  0.0971 -0.9098
   75bbb     H7 2261   7.000   5.775   6.396  0.0320  0.8199  0.0959
   75bbb     H8 2262   7.087   5.889   6.290 -0.4064  0.9459 -0.5825
   75bbb     C5 2263   7.194   6.185   6.458 -0.3995 -0.5322 -0.7384
   75bbb     H9 2264   7.117   6.259   6.486  1.6760  1.7263 -0.6229
   75bbb    H10 2265   7.187   6.173   6.350  0.6903 -2.6900 -0.6125
   75bbb     C6 2266   6.833   6.075   6.713 -0.9129 -0.2413  0.6089
   75bbb    H11 2267   6.856   5.986   6.774  0.6993  0.3317  0.8684
   75bbb    H12 2268   6.761   6.045   6.636  0.4164  1.8001 -1.5096
   75bbb     C7 2269   6.888   5.846   6.214 -0.1529 -0.4114  0.1432
   75bbb    H13 2270   6.794   5.807   6.254 -0.2507  0.3027  0.6333
   75bbb    H14 2271   6.931   5.766   6.153 -0.6605 -0.7510  0.2230
   75bbb     C8 2272   6.774   6.193   6.802 -0.0002 -0.4229  0.5579
   75bbb    H15 2273   6.686   6.151   6.851  0.6881 -1.0846  1.2624
   75bbb    H16 2274   6.853   6.215   6.875  1.4169  0.6063 -1.1830
   75bbb     C9 2275   7.327   6.249   6.497 -0.8642 -0.1737  0.0332
   75bbb    H17 2276   7.328   6.251   6.607  0.5201 -3.0062  0.1612
   75bbb    H18 2277   7.336   6.353   6.463  0.0969 -0.9089 -2.1355
   75bbb     O1 2278   6.877   5.976   6.142  0.4633  0.2933 -0.2670
   75bbb    H19 2279   7.028   5.914   6.599  0.1555 -0.4847 -0.3206
   76bbb     N1 2280   7.049   6.600   4.511 -0.0325  0.1334 -0.0801
   76bbb     C1 2281   7.190   6.541   4.490  0.2690  0.2705  0.0195
   76bbb     H1 2282   7.232   6.619   4.426 -3.3994  1.7173 -0.8299
   76bbb     H2 2283   7.176   6.443   4.444 -1.0302  0.0097  0.9103
   76bbb     C2 2284   7.049   6.742   4.553  0.3930 -0.3746  0.0805
   76bbb     H3 2285   7.073   6.803   4.465  4.4060  0.4500  1.5404
   76bbb     H4 2286   7.123   6.756   4.632 -0.8306 -1.0821  1.3884
   76bbb     C3 2287   6.959   6.583   4.390  0.1611  0.4124  0.1098
   76bbb     H5 2288   6.994   6.650   4.312 -2.0948  1.5030 -0.0415
   76bbb     H6 2289   6.866   6.609   4.441 -0.0770  0.0170 -0.1217
   76bbb     C4 2290   6.958   6.442   4.323  0.4765  0.1586  0.2411
   76bbb     H7 2291   7.059   6.402   4.311  0.2473 -1.0212  1.8768
   76bbb     H8 2292   6.905   6.448   4.227 -0.9842  1.9916  1.0860
   76bbb     C5 2293   7.253   6.530   4.629  0.3608 -0.8044 -0.3085
   76bbb     H9 2294   7.172   6.513   4.701  0.6001 -0.6971 -0.0131
   76bbb    H10 2295   7.297   6.630   4.640 -0.0462 -0.6224 -0.3201
   76bbb     C6 2296   6.915   6.786   4.607 -0.5197  0.8430  0.4200
   76bbb    H11 2297   6.830   6.747   4.551  0.0766 -1.8601  1.2517
   76bbb    H12 2298   6.908   6.895   4.618 -0.5407  0.9691 -0.8038
   76bbb     C7 2299   6.882   6.331   4.409  0.4840  0.9303 -0.6248
   76bbb    H13 2300   6.919   6.334   4.513 -2.6502  0.7902  0.6107
   76bbb    H14 2301   6.896   6.228   4.377 -1.3956  0.4780 -0.1331
   76bbb     C8 2302   6.916   6.728   4.753 -0.3198 -0.4360 -0.4039
   76bbb    H15 2303   7.004   6.771   4.803  0.1125 -1.7553  0.0078
   76bbb    H16 2304   6.831   6.772   4.807 -2.2601 -2.0930 -1.9702
   76bbb     C9 2305   7.368   6.429   4.648  0.3418  0.0282 -0.1160
   76bbb    H17 2306   7.448   6.475   4.707 -0.8233  1.1928  0.6298
   76bbb    H18 2307   7.403   6.399   4.549 -1.6452  0.8495 -1.1210
   76bbb     O1 2308   6.741   6.364   4.414 -0.2882 -0.2905  0.2709
   76bbb    H19 2309   6.998   6.553   4.588 -1.0864  0.4532 -0.5552
   77bbb     N1 2310   6.327   6.262   4.004  0.0593  0.0130 -0.1296
   77bbb     C1 2311   6.345   6.288   3.852 -0.8657 -0.2136 -1.1415
   77bbb     H1 2312   6.451   6.278   3.830 -1.0125  0.2616 -2.1211
   77bbb     H2 2313   6.318   6.393   3.858  0.1593 -0.0058  1.0117
   77bbb     C2 2314   6.456   6.225   4.062 -0.6388 -0.1649  0.2209
   77bbb     H3 2315   6.441   6.250   4.168  2.8548  0.0036  0.7855
   77bbb     H4 2316   6.531   6.296   4.028 -0.4787 -0.3333  0.2212
   77bbb     C3 2317   6.287   6.391   4.090 -0.3816 -0.2818 -0.0962
   77bbb     H5 2318   6.356   6.472   4.064 -0.1446 -0.3775  0.2268
   77bbb     H6 2319   6.298   6.362   4.195  1.0919  0.2004 -0.0840
   77bbb     C4 2320   6.147   6.440   4.074  0.6785 -0.1971 -0.9527
   77bbb     H7 2321   6.077   6.360   4.103  1.9483 -0.7759  0.7494
   77bbb     H8 2322   6.144   6.477   3.971  0.4373  2.2345 -0.1223
   77bbb     C5 2323   6.265   6.204   3.755 -0.0307 -0.4159 -0.1307
   77bbb     H9 2324   6.281   6.255   3.659 -0.6546  1.8100  0.8768
   77bbb    H10 2325   6.162   6.226   3.785 -0.2335  0.5970 -1.4736
   77bbb     C6 2326   6.511   6.080   4.042  0.0326 -0.0196  0.3375
   77bbb    H11 2327   6.534   6.057   3.937  2.2435 -0.8564  0.9603
   77bbb    H12 2328   6.434   6.007   4.069  0.9253 -1.0037  0.2589
   77bbb     C7 2329   6.127   6.564   4.172 -0.2593  0.1086  0.1524
   77bbb    H13 2330   6.041   6.616   4.127 -0.0819 -0.3618 -0.7442
   77bbb    H14 2331   6.206   6.638   4.152 -1.0474  0.5432 -1.4749
   77bbb     C8 2332   6.636   6.045   4.126 -0.3296  0.3003  0.4186
   77bbb    H15 2333   6.630   6.114   4.211 -1.1492 -1.9937  2.3398
   77bbb    H16 2334   6.641   5.943   4.166  0.8938 -0.7456 -2.1515
   77bbb     C9 2335   6.295   6.052   3.760 -0.2233 -1.6761 -0.0172
   77bbb    H17 2336   6.274   6.011   3.860 -1.0863  0.5888  0.7901
   77bbb    H18 2337   6.402   6.042   3.738 -0.4404 -0.8307 -1.6164
   77bbb     O1 2338   6.118   6.534   4.314 -0.3880  0.3183  0.3114
   77bbb    H19 2339   6.261   6.183   4.008  0.5016 -0.5035 -2.0540
   78bbb     N1 2340   7.211   8.825   9.488  0.0225 -0.3385  0.5574
   78bbb     C1 2341   7.229   8.768   9.623 -0.3142 -0.5055  1.1598
   78bbb     H1 2342   7.183   8.827   9.702  0.2076 -0.0137  1.1033
   78bbb     H2 2343   7.337   8.767   9.637  0.1149 -0.7168 -1.6051
   78bbb     C2 2344   7.241   8.974   9.491  0.2946  0.5079  0.2761
   78bbb     H3 2345   7.239   9.008   9.387 -2.1924  0.1137  0.1362
   78bbb     H4 2346   7.347   8.989   9.512  1.0615  2.7902 -3.9974
   78bbb     C3 2347   7.312   8.763   9.391 -0.7430  0.1229  0.7775
   78bbb     H5 2348   7.367   8.684   9.443 -0.0946  1.4921  2.2432
   78bbb     H6 2349   7.382   8.843   9.365 -0.9185 -0.4891 -1.9446
   78bbb     C4 2350   7.259   8.707   9.256 -0.2798 -0.2721  0.5759
   78bbb     H7 2351   7.202   8.616   9.277  0.7586 -1.1097 -0.1280
   78bbb     H8 2352   7.346   8.673   9.199  0.0916 -0.1990  1.0928
   78bbb     C5 2353   7.189   8.620   9.625  0.3801  0.3988 -0.0023
   78bbb     H9 2354   7.251   8.558   9.560  1.0476  1.2695 -0.2129
   78bbb    H10 2355   7.084   8.617   9.592 -0.6136 -3.3157  2.7990
   78bbb     C6 2356   7.143   9.069   9.571  0.9962  0.4769  0.2683
   78bbb    H11 2357   7.141   9.044   9.677 -1.3587 -3.9162 -0.5905
   78bbb    H12 2358   7.043   9.040   9.538  1.1011 -0.0842  0.4302
   78bbb     C7 2359   7.180   8.818   9.170  0.3981  0.1556 -0.5691
   78bbb    H13 2360   7.132   8.772   9.083 -0.3275  2.9021 -1.7329
   78bbb    H14 2361   7.254   8.893   9.139 -0.2401  0.9972 -0.0994
   78bbb     C8 2362   7.161   9.217   9.547  0.0610  0.1747 -0.3042
   78bbb    H15 2363   7.136   9.239   9.443  2.0003 -0.8057 -1.0465
   78bbb    H16 2364   7.100   9.281   9.612 -0.2103 -0.7108  0.3424
   78bbb     C9 2365   7.202   8.565   9.771 -0.7070 -0.0062  0.4396
   78bbb    H17 2366   7.301   8.566   9.818 -0.7177 -0.5928  0.4780
   78bbb    H18 2367   7.157   8.465   9.766  0.0457 -0.2987 -2.8005
   78bbb     O1 2368   7.061   8.863   9.250  0.0353 -0.0847  0.0150
   78bbb    H19 2369   7.112   8.815   9.461 -0.0727  1.2156  0.2576
   79bbb     N1 2370   6.440   8.665   9.408 -0.3694  0.1933  0.5789
   79bbb     C1 2371   6.497   8.540   9.477 -0.5476  0.1395  0.0125
   79bbb     H1 2372   6.604   8.542   9.460 -0.7726 -1.0698 -1.7621
   79bbb     H2 2373   6.462   8.453   9.421 -1.5514  0.7192 -0.3003
   79bbb     C2 2374   6.499   8.787   9.477 -0.0603  0.0887  0.1739
   79bbb     H3 2375   6.605   8.784   9.500 -0.4705  0.4509  2.3917
   79bbb     H4 2376   6.460   8.789   9.579  0.5878  0.3275  0.4211
   79bbb     C3 2377   6.496   8.663   9.269  0.1277  0.6113 -0.3582
   79bbb     H5 2378   6.597   8.622   9.261  1.6405  4.0302 -0.7268
   79bbb     H6 2379   6.510   8.768   9.242 -0.1142  0.5615 -0.6848
   79bbb     C4 2380   6.397   8.604   9.159  0.1296  0.2570 -0.1004
   79bbb     H7 2381   6.311   8.670   9.141 -0.4889 -0.0462  1.6030
   79bbb     H8 2382   6.347   8.516   9.199 -2.8197  0.5476 -2.7188
   79bbb     C5 2383   6.459   8.520   9.624  0.0560  0.6920 -0.1845
   79bbb     H9 2384   6.352   8.547   9.626 -0.1423  0.1584 -1.9588
   79bbb    H10 2385   6.513   8.582   9.697  1.4008 -0.3149 -0.3021
   79bbb     C6 2386   6.456   8.919   9.419 -0.2453  0.1927  0.6543
   79bbb    H11 2387   6.350   8.913   9.392 -0.1058  0.2318  0.0865
   79bbb    H12 2388   6.502   8.954   9.326 -3.0384  0.1904 -0.8401
   79bbb     C7 2389   6.479   8.551   9.040  0.2429 -0.4585 -0.3210
   79bbb    H13 2390   6.412   8.483   8.985 -1.8147  0.5655  0.8085
   79bbb    H14 2391   6.573   8.500   9.064  1.3216  1.9426  0.8815
   79bbb     C8 2392   6.478   9.034   9.516 -0.0972 -0.2583  0.3091
   79bbb    H15 2393   6.579   9.022   9.558 -0.0888  0.4039  0.4960
   79bbb    H16 2394   6.482   9.130   9.463  1.0913 -0.6293 -0.3022
   79bbb     C9 2395   6.476   8.374   9.662  0.4013  0.4314 -0.3045
   79bbb    H17 2396   6.463   8.317   9.569  2.0465 -0.7298  0.1363
   79bbb    H18 2397   6.384   8.341   9.713 -0.5405  1.7934 -1.0623
   79bbb     O1 2398   6.509   8.676   8.960 -0.5915  0.0082  0.6545
   79bbb    H19 2399   6.337   8.670   9.404 -0.5179 -2.0710 -2.7548
   80bbb     N1 2400   6.396   8.029   8.154 -0.6301  0.4326 -0.3863
   80bbb     C1 2401   6.419   8.102   8.016 -0.0234  0.6666 -0.6654
   80bbb     H1 2402   6.357   8.050   7.943  1.6316 -1.8856 -0.3713
   80bbb     H2 2403   6.523   8.088   7.986  0.4333  0.0271  1.1019
   80bbb     C2 2404   6.429   7.885   8.128  0.4123  0.1032 -0.0540
   80bbb     H3 2405   6.380   7.854   8.036 -0.9419  0.5286  0.5058
   80bbb     H4 2406   6.381   7.831   8.210 -0.4908  1.9570  0.6909
   80bbb     C3 2407   6.482   8.078   8.269  0.4354 -0.8349 -0.2100
   80bbb     H5 2408   6.461   8.185   8.270 -3.6752 -1.4960 -0.6945
   80bbb     H6 2409   6.585   8.053   8.241  0.2582 -2.2421  0.3186
   80bbb     C4 2410   6.460   8.029   8.410 -0.4845  0.6567 -0.1985
   80bbb     H7 2411   6.486   7.922   8.409 -1.4814  0.3872  0.6520
   80bbb     H8 2412   6.353   8.023   8.434 -0.1201 -0.2263  1.3339
   80bbb     C5 2413   6.372   8.248   8.020 -0.4111 -0.2781 -0.3630
   80bbb     H9 2414   6.458   8.314   8.035 -1.7406  1.4495 -0.1209
   80bbb    H10 2415   6.304   8.269   8.102 -0.9402 -0.2765 -0.7950
   80bbb     C6 2416   6.573   7.847   8.127 -0.1239  0.2635 -0.2750
   80bbb    H11 2417   6.623   7.865   8.224 -1.3734 -0.9495  0.6261
   80bbb    H12 2418   6.627   7.902   8.049 -0.0603  0.6044  0.0073
   80bbb     C7 2419   6.547   8.105   8.515 -0.6333 -0.1910 -0.6498
   80bbb    H13 2420   6.525   8.051   8.608 -0.9201 -1.3486 -1.3650
   80bbb    H14 2421   6.509   8.208   8.517  1.3244  0.5519  0.0977
   80bbb     C8 2422   6.601   7.698   8.096  0.5631 -0.6685 -0.1863
   80bbb    H15 2423   6.545   7.633   8.164  0.2094  0.5141  0.6869
   80bbb    H16 2424   6.574   7.687   7.990  0.0434 -0.4407 -0.0793
   80bbb     C9 2425   6.286   8.283   7.895  0.1255  0.3829 -0.6653
   80bbb    H17 2426   6.349   8.296   7.807 -0.8708 -0.5935 -1.5466
   80bbb    H18 2427   6.243   8.380   7.921 -1.1816 -0.0390 -1.1731
   80bbb     O1 2428   6.686   8.086   8.474 -0.4389  0.9747 -0.2094
   80bbb    H19 2429   6.295   8.026   8.175 -0.3788 -0.3453  0.8300
   81bbb     N1 2430   7.374   7.086   8.562 -0.2594 -0.4121  0.2614
   81bbb     C1 2431   7.521   7.078   8.587 -0.9669 -0.1832  0.3340
   81bbb     H1 2432   7.545   6.973   8.604  3.2515  0.3254 -1.3001
   81bbb     H2 2433   7.538   7.132   8.680 -0.8360  0.8816 -0.3003
   81bbb     C2 2434   7.300   7.026   8.681 -0.0920 -0.3249 -0.1389
   81bbb     H3 2435   7.320   7.093   8.765 -0.8693 -0.0894 -0.1307
   81bbb     H4 2436   7.342   6.929   8.706 -0.5854 -0.9517 -1.6464
   81bbb     C3 2437   7.335   7.230   8.538  0.3117  0.0685  0.0671
   81bbb     H5 2438   7.229   7.216   8.515  0.5083  0.6306 -1.2772
   81bbb     H6 2439   7.374   7.267   8.443 -2.7963  0.5124 -1.1449
   81bbb     C4 2440   7.365   7.340   8.640  0.2965  0.4328 -0.0624
   81bbb     H7 2441   7.467   7.320   8.677 -0.0908 -2.0533 -0.1504
   81bbb     H8 2442   7.299   7.338   8.728 -0.5913  0.3555 -0.7199
   81bbb     C5 2443   7.624   7.125   8.473  0.6893 -0.5645  0.3050
   81bbb     H9 2444   7.610   7.228   8.436 -1.1334 -0.2792  1.6319
   81bbb    H10 2445   7.616   7.065   8.382  0.8889 -0.6609  0.3517
   81bbb     C6 2446   7.153   7.009   8.646 -0.3081 -0.4953 -0.2868
   81bbb    H11 2447   7.143   6.954   8.551 -2.2666  0.5978 -0.7641
   81bbb    H12 2448   7.107   7.107   8.633  1.0289  0.2759  0.5298
   81bbb     C7 2449   7.357   7.479   8.566 -0.5365  0.6454  0.0715
   81bbb    H13 2450   7.438   7.483   8.493 -0.4749  0.4123  0.1254
   81bbb    H14 2451   7.375   7.564   8.633  0.1515 -0.3699  1.2310
   81bbb     C8 2452   7.071   6.933   8.755  1.0593 -0.6736 -0.1119
   81bbb    H15 2453   6.968   6.917   8.723  0.6140 -0.1517  1.0073
   81bbb    H16 2454   7.115   6.836   8.782 -1.0565 -1.9979 -1.1885
   81bbb     C9 2455   7.766   7.104   8.534  0.8630  0.6514  0.3979
   81bbb    H17 2456   7.783   7.171   8.618 -0.5595  2.6920 -0.8450
   81bbb    H18 2457   7.827   7.126   8.446  1.2896  0.3080  0.6052
   81bbb     O1 2458   7.228   7.475   8.486 -0.2769 -0.6688 -0.5596
   81bbb    H19 2459   7.362   7.027   8.479  0.0740 -0.0563 -0.0438
   82bbb     N1 2460   5.710  10.287   8.859  0.2397  0.2172  0.4268
   82bbb     C1 2461   5.639  10.158   8.896  0.7411  0.4185  0.5605
   82bbb     H1 2462   5.540  10.165   8.849  1.3767 -1.1934 -1.1468
   82bbb     H2 2463   5.618  10.150   9.002 -2.4508  1.9404  0.1621
   82bbb     C2 2464   5.829  10.309   8.948  0.0703  0.2888 -0.0583
   82bbb     H3 2465   5.876  10.403   8.918  1.7593 -0.7671 -0.8483
   82bbb     H4 2466   5.900  10.230   8.925 -0.1513  0.3933 -1.1343
   82bbb     C3 2467   5.749  10.292   8.713 -0.0369 -0.2149 -0.1150
   82bbb     H5 2468   5.672  10.230   8.666  0.9922 -2.0697  0.5014
   82bbb     H6 2469   5.842  10.236   8.697  2.2054  2.7234  1.5579
   82bbb     C4 2470   5.750  10.434   8.649 -0.2905 -0.1723 -0.1722
   82bbb     H7 2471   5.804  10.507   8.711 -2.1873 -0.0695  1.4462
   82bbb     H8 2472   5.648  10.474   8.643 -0.0237  1.1180  2.6441
   82bbb     C5 2473   5.701  10.026   8.835 -0.1090  0.3940 -0.9656
   82bbb     H9 2474   5.808  10.021   8.858  0.1221  2.0549 -1.5493
   82bbb    H10 2475   5.680  10.022   8.727 -1.5229 -4.0248 -0.7180
   82bbb     C6 2476   5.795  10.316   9.099  0.1007  0.2965  0.1208
   82bbb    H11 2477   5.756  10.218   9.131  1.2110 -0.6189 -1.2021
   82bbb    H12 2478   5.716  10.390   9.117  0.3141  0.0034  2.6992
   82bbb     C7 2479   5.812  10.425   8.513 -0.1957 -0.1791  0.4388
   82bbb    H13 2480   5.823  10.527   8.475  1.2383  0.2521  1.8821
   82bbb    H14 2481   5.755  10.359   8.447 -1.2578  0.9639  0.1744
   82bbb     C8 2482   5.918  10.357   9.180  0.7178 -0.0446 -0.0727
   82bbb    H15 2483   5.995  10.284   9.153 -1.5183 -2.4221 -0.4208
   82bbb    H16 2484   5.949  10.456   9.146 -3.3066  1.6019  0.5221
   82bbb     C9 2485   5.638   9.895   8.894  0.5040  0.0813 -0.1320
   82bbb    H17 2486   5.704   9.809   8.877  0.9871  0.5014 -0.4251
   82bbb    H18 2487   5.540   9.887   8.844  0.1968  2.3707  0.0116
   82bbb     O1 2488   5.944  10.372   8.526  0.0873  0.9394  0.0815
   82bbb    H19 2489   5.650  10.368   8.877 -1.0329 -1.0933  2.5718
   83bbb     N1 2490   6.467  10.784   8.570 -0.0520 -0.1663  0.1204
   83bbb     C1 2491   6.309  10.807   8.584 -0.7829 -1.1159  0.5873
   83bbb     H1 2492   6.285  10.895   8.524 -0.7074 -0.1416  1.9470
   83bbb     H2 2493   6.287  10.844   8.684 -1.1449  0.9459 -0.2076
   83bbb     C2 2494   6.542  10.898   8.634  0.7265  0.0777 -0.4683
   83bbb     H3 2495   6.636  10.850   8.662  1.6018  0.0523 -3.1835
   83bbb     H4 2496   6.500  10.925   8.731  0.1995 -2.7342  0.1634
   83bbb     C3 2497   6.501  10.653   8.635  0.2463  0.0237 -0.6159
   83bbb     H5 2498   6.457  10.576   8.572  2.2638 -0.8630 -1.0147
   83bbb     H6 2499   6.452  10.642   8.732 -0.7045  0.2204 -1.0606
   83bbb     C4 2500   6.651  10.613   8.662  0.7914  0.1797 -0.1843
   83bbb     H7 2501   6.711  10.686   8.717  0.3551  1.5272 -1.4429
   83bbb     H8 2502   6.705  10.602   8.567  4.1797  2.0858  1.3563
   83bbb     C5 2503   6.222  10.683   8.549 -0.3384 -0.5388 -0.4659
   83bbb     H9 2504   6.239  10.612   8.631  0.3065  0.9678  0.7613
   83bbb    H10 2505   6.263  10.621   8.468  1.1294 -1.3282  0.8267
   83bbb     C6 2506   6.571  11.010   8.537  0.6972 -0.1326 -0.2867
   83bbb    H11 2507   6.489  11.083   8.540  1.4563  0.7580  2.6372
   83bbb    H12 2508   6.583  10.975   8.434  1.0900 -0.1351 -0.2437
   83bbb     C7 2509   6.666  10.481   8.742  0.6248  0.1021 -0.1447
   83bbb    H13 2510   6.641  10.492   8.848  0.8253  0.4702 -0.1343
   83bbb    H14 2511   6.769  10.443   8.734  0.2536 -0.8564 -0.5303
   83bbb     C8 2512   6.688  11.097   8.585  0.2970  0.5588 -0.8611
   83bbb    H15 2513   6.659  11.152   8.675 -1.3887  0.5810 -1.3873
   83bbb    H16 2514   6.772  11.030   8.608 -0.6609 -0.8152 -1.2527
   83bbb     C9 2515   6.072  10.713   8.541 -0.4657 -0.8214 -0.0219
   83bbb    H17 2516   6.020  10.637   8.481  1.3164 -2.3902  0.3358
   83bbb    H18 2517   6.053  10.806   8.485  0.0888 -0.7414 -0.0834
   83bbb     O1 2518   6.575  10.382   8.685  0.1478 -0.0193  0.6435
   83bbb    H19 2519   6.502  10.778   8.473  0.6383 -0.1873  0.3596
   84bbb     N1 2520   5.164   9.753   8.509  0.3224 -0.6852 -0.3813
   84bbb     C1 2521   5.231   9.660   8.606  0.5567 -0.3504 -0.0037
   84bbb     H1 2522   5.156   9.641   8.683  0.5948 -0.0002  0.1229
   84bbb     H2 2523   5.317   9.705   8.657 -1.2858  0.9252  2.1657
   84bbb     C2 2524   5.100   9.866   8.596  0.1291 -0.0406 -0.0515
   84bbb     H3 2525   5.086   9.953   8.533  0.0278 -0.2319 -0.2934
   84bbb     H4 2526   5.161   9.898   8.681 -0.8293  0.5706  0.4218
   84bbb     C3 2527   5.269   9.821   8.427 -0.6683  0.1812 -0.0184
   84bbb     H5 2528   5.335   9.740   8.395  1.2904  1.1324  1.4023
   84bbb     H6 2529   5.331   9.886   8.489  0.6276  1.6597 -2.6884
   84bbb     C4 2530   5.236   9.900   8.299  0.9543  0.1470  0.2008
   84bbb     H7 2531   5.325   9.961   8.281  0.6505  1.3087  2.3062
   84bbb     H8 2532   5.150   9.964   8.322  0.7524 -0.5839  1.5946
   84bbb     C5 2533   5.246   9.529   8.534 -0.4223  1.0380 -0.3229
   84bbb     H9 2534   5.273   9.458   8.613 -0.2378  2.2347  0.7165
   84bbb    H10 2535   5.329   9.536   8.463 -1.8579 -0.1429 -2.2102
   84bbb     C6 2536   4.971   9.821   8.669 -0.1508 -0.1504  0.1164
   84bbb    H11 2537   4.937   9.910   8.723  1.1656  0.4478  0.0168
   84bbb    H12 2538   4.974   9.736   8.739 -1.3029  1.1792  1.8375
   84bbb     C7 2539   5.200   9.804   8.176 -0.0221 -0.4058 -0.3842
   84bbb    H13 2540   5.155   9.866   8.098  0.8922 -0.1319 -0.7062
   84bbb    H14 2541   5.113   9.748   8.213 -2.3765  3.7868  1.0839
   84bbb     C8 2542   4.866   9.784   8.562 -0.2456 -0.4342  0.6207
   84bbb    H15 2543   4.854   9.861   8.484 -4.4232 -2.0545 -0.6008
   84bbb    H16 2544   4.887   9.689   8.513 -0.8379  0.9308 -2.5650
   84bbb     C9 2545   5.112   9.463   8.486 -0.1972 -0.7687  0.3114
   84bbb    H17 2546   5.035   9.459   8.563  1.1271 -0.4933  1.6915
   84bbb    H18 2547   5.136   9.358   8.464 -3.1950 -1.1209 -1.8647
   84bbb     O1 2548   5.308   9.724   8.138 -0.0823  0.0074  0.5625
   84bbb    H19 2549   5.094   9.707   8.448 -0.7126  1.0063 -0.5491
   85bbb     N1 2550   5.137   8.736   7.631 -0.2039 -0.2772 -0.8118
   85bbb     C1 2551   5.033   8.846   7.655  0.2743 -0.0041 -0.6271
   85bbb     H1 2552   5.041   8.920   7.575  0.8261  1.4462  0.7164
   85bbb     H2 2553   5.050   8.903   7.747  1.3095  0.2657 -0.9751
   85bbb     C2 2554   5.126   8.693   7.485 -0.0408  0.4041 -0.9415
   85bbb     H3 2555   5.034   8.637   7.467  0.7275 -1.3764  0.3715
   85bbb     H4 2556   5.210   8.624   7.476  0.0132  0.4572 -0.8371
   85bbb     C3 2557   5.277   8.799   7.664 -1.1882  0.0195  0.1509
   85bbb     H5 2558   5.283   8.887   7.600 -0.0193 -0.1545  0.0013
   85bbb     H6 2559   5.357   8.726   7.651  0.1776  0.8194  3.2734
   85bbb     C4 2560   5.299   8.854   7.810  0.7230 -0.3125 -0.2558
   85bbb     H7 2561   5.297   8.774   7.885 -1.1659 -1.6092 -1.6010
   85bbb     H8 2562   5.221   8.922   7.847 -0.7943 -1.8318 -0.5085
   85bbb     C5 2563   4.885   8.790   7.659 -0.0763 -0.5997  0.3237
   85bbb     H9 2564   4.854   8.759   7.559  0.5461 -2.1517  0.5764
   85bbb    H10 2565   4.824   8.878   7.685 -0.0966 -0.8850  1.2846
   85bbb     C6 2566   5.136   8.803   7.379 -0.4235  0.6797  0.1619
   85bbb    H11 2567   5.217   8.870   7.409 -0.3592 -0.1021  1.8066
   85bbb    H12 2568   5.051   8.872   7.388  0.9477  2.6500 -1.0276
   85bbb     C7 2569   5.435   8.929   7.830  0.0967 -0.3405  0.4573
   85bbb    H13 2570   5.516   8.878   7.776  0.7585  0.5462  0.5988
   85bbb    H14 2571   5.454   8.931   7.938  1.9486  1.1710  0.1465
   85bbb     C8 2572   5.161   8.744   7.240 -0.0629 -0.2361 -0.1423
   85bbb    H15 2573   5.086   8.668   7.216  0.9352 -1.4843  0.5239
   85bbb    H16 2574   5.145   8.830   7.174 -2.5029  0.4572  1.2373
   85bbb     C9 2575   4.862   8.684   7.764  0.0661 -0.2314 -0.4146
   85bbb    H17 2576   4.754   8.664   7.773  0.6291 -3.1114  1.2953
   85bbb    H18 2577   4.903   8.718   7.860  0.4293 -1.4127 -0.1453
   85bbb     O1 2578   5.432   9.065   7.776  0.1120  0.2640  0.6532
   85bbb    H19 2579   5.116   8.654   7.690  0.2092 -0.6854 -1.2284
   86bbb     N1 2580   8.046   7.588   7.283  0.7645  0.1965  0.3123
   86bbb     C1 2581   7.903   7.593   7.345  0.3959 -0.3411 -0.4090
   86bbb     H1 2582   7.828   7.543   7.283 -0.8731 -1.3194  1.7980
   86bbb     H2 2583   7.870   7.696   7.331 -1.8344 -0.7699  1.1454
   86bbb     C2 2584   8.095   7.450   7.271  0.5600 -0.1421  0.0558
   86bbb     H3 2585   8.039   7.400   7.192  1.1385 -2.3715  0.9835
   86bbb     H4 2586   8.067   7.382   7.351  1.4826 -2.7879 -1.7556
   86bbb     C3 2587   8.033   7.655   7.146  0.2809  0.1654 -0.1429
   86bbb     H5 2588   7.964   7.603   7.080 -0.5730 -0.5611  1.2928
   86bbb     H6 2589   8.133   7.636   7.105  0.8102  1.5070  0.4612
   86bbb     C4 2590   8.012   7.807   7.142  0.0366  0.0948 -0.4060
   86bbb     H7 2591   8.092   7.859   7.196  0.7514 -2.2995  0.9796
   86bbb     H8 2592   7.919   7.823   7.199  0.5507 -0.9734  0.7915
   86bbb     C5 2593   7.879   7.539   7.483  1.2886 -0.0560  0.0171
   86bbb     H9 2594   7.945   7.590   7.554 -0.4178 -1.4437  2.7671
   86bbb    H10 2595   7.899   7.431   7.484 -0.7893 -0.5136 -1.2393
   86bbb     C6 2596   8.245   7.425   7.237  0.1284 -0.3533 -0.0768
   86bbb    H11 2597   8.310   7.444   7.323 -0.2237  0.7118 -0.0252
   86bbb    H12 2598   8.276   7.489   7.154  0.0907  0.4594  0.5163
   86bbb     C7 2599   7.992   7.849   7.000  0.0002 -0.0859 -0.4128
   86bbb    H13 2600   7.890   7.824   6.969  1.1413 -3.6516 -1.6657
   86bbb    H14 2601   8.049   7.796   6.923  0.8346 -0.1662  0.2523
   86bbb     C8 2602   8.271   7.280   7.196  0.3400 -0.0770 -0.5710
   86bbb    H15 2603   8.202   7.249   7.117  0.0895 -0.0256 -0.3740
   86bbb    H16 2604   8.379   7.280   7.173  0.2346 -1.6089 -1.2403
   86bbb     C9 2605   7.735   7.576   7.542 -0.5922 -0.0575  0.5554
   86bbb    H17 2606   7.715   7.684   7.542  1.0275  0.2707  0.1550
   86bbb    H18 2607   7.721   7.540   7.645 -2.2905 -1.0419  0.0164
   86bbb     O1 2608   8.004   7.997   6.990  0.5992 -0.6451 -0.2940
   86bbb    H19 2609   8.108   7.643   7.343  1.2178  0.4568 -0.3803
   87bbb     N1 2610   8.476   8.475   7.723  0.6137 -0.0702 -0.1742
   87bbb     C1 2611   8.424   8.516   7.857 -0.0287 -0.6987  0.9999
   87bbb     H1 2612   8.383   8.422   7.894 -0.1802 -1.7139 -1.5255
   87bbb     H2 2613   8.342   8.586   7.839 -0.2631 -1.2293 -0.0989
   87bbb     C2 2614   8.574   8.364   7.726 -0.0277  0.2098 -0.1020
   87bbb     H3 2615   8.666   8.405   7.768 -0.3759 -1.7420  2.8521
   87bbb     H4 2616   8.597   8.325   7.627 -0.0403 -2.7661  0.9691
   87bbb     C3 2617   8.360   8.418   7.641  0.0137 -0.1733 -0.3043
   87bbb     H5 2618   8.318   8.343   7.707 -1.4441  0.5165 -0.3982
   87bbb     H6 2619   8.417   8.372   7.560  3.7055  0.4129  1.7477
   87bbb     C4 2620   8.247   8.514   7.590 -0.4915  0.1109  0.1266
   87bbb     H7 2621   8.291   8.598   7.534  1.6663 -0.5890  0.6552
   87bbb     H8 2622   8.178   8.536   7.672 -0.8263  1.4790 -0.4834
   87bbb     C5 2623   8.531   8.587   7.948 -0.2192  0.2697  0.4710
   87bbb     H9 2624   8.602   8.643   7.886 -2.3085  2.7189  0.1625
   87bbb    H10 2625   8.590   8.514   8.004  0.7587 -0.3113 -1.2307
   87bbb     C6 2626   8.545   8.231   7.810  0.0655 -0.3702  0.1513
   87bbb    H11 2627   8.472   8.170   7.757  2.3985 -2.7638 -0.4986
   87bbb    H12 2628   8.506   8.259   7.909 -1.1387 -0.3351 -0.3206
   87bbb     C7 2629   8.156   8.422   7.502  0.1235 -0.2300  0.7531
   87bbb    H13 2630   8.076   8.478   7.452  1.3325  1.3629  0.5123
   87bbb    H14 2631   8.097   8.364   7.573  0.7608 -1.8762 -0.0043
   87bbb     C8 2632   8.671   8.140   7.821 -0.6049  0.2543 -0.2519
   87bbb    H15 2633   8.703   8.108   7.722  0.5462  1.3048 -0.2331
   87bbb    H16 2634   8.750   8.202   7.864 -1.7637  3.4824 -2.4482
   87bbb     C9 2635   8.477   8.689   8.050 -0.4807  0.6299 -0.1960
   87bbb    H17 2636   8.402   8.752   8.000  0.0779  0.1736 -1.6727
   87bbb    H18 2637   8.557   8.752   8.091  0.9751 -0.5897 -1.0479
   87bbb     O1 2638   8.218   8.333   7.403 -0.0398  0.1358  0.7639
   87bbb    H19 2639   8.522   8.544   7.662  1.2719 -2.3352 -2.4075
   88bbb     N1 2640   9.629   8.242   6.455  0.0189 -0.4858 -0.1319
   88bbb     C1 2641   9.519   8.208   6.354  0.0850 -0.1079 -0.1618
   88bbb     H1 2642   9.557   8.131   6.286  1.7854 -2.6861  3.4133
   88bbb     H2 2643   9.502   8.299   6.297  0.8233  1.0070  1.3406
   88bbb     C2 2644   9.756   8.167   6.405  0.5361 -0.5282 -0.1794
   88bbb     H3 2645   9.783   8.211   6.309  0.7144  1.6906  0.8093
   88bbb     H4 2646   9.726   8.063   6.391  1.0997 -0.6191 -0.7402
   88bbb     C3 2647   9.666   8.392   6.449 -1.0496  0.4634  0.1614
   88bbb     H5 2648   9.688   8.406   6.343  0.3675 -0.4697  0.3137
   88bbb     H6 2649   9.755   8.398   6.512  0.0459 -0.8472 -1.2074
   88bbb     C4 2650   9.561   8.496   6.504 -0.6833  0.6257 -0.2840
   88bbb     H7 2651   9.592   8.522   6.606 -0.8809  2.0660 -0.5676
   88bbb     H8 2652   9.459   8.455   6.507  0.2076 -1.7535  3.2161
   88bbb     C5 2653   9.404   8.147   6.432  0.8222 -0.2575 -0.5042
   88bbb     H9 2654   9.331   8.109   6.360  0.2599  0.9749 -0.6083
   88bbb    H10 2655   9.357   8.223   6.496  0.5526 -0.9071  0.0842
   88bbb     C6 2656   9.876   8.157   6.495  0.2447 -0.4697  0.0578
   88bbb    H11 2657   9.842   8.129   6.595 -0.5491  0.5183  0.0859
   88bbb    H12 2658   9.917   8.258   6.504  0.6139 -0.5393 -0.7643
   88bbb     C7 2659   9.567   8.624   6.420  0.5311 -0.3118 -0.1859
   88bbb    H13 2660   9.512   8.618   6.325  0.0499  2.4623 -0.1615
   88bbb    H14 2661   9.667   8.652   6.385  0.1779  0.1997 -0.8101
   88bbb     C8 2662   9.988   8.073   6.456 -0.3466  0.8138  0.4756
   88bbb    H15 2663  10.038   8.108   6.366 -0.0384 -0.6632  0.0529
   88bbb    H16 2664  10.060   8.063   6.538  2.0000 -0.0808 -1.5719
   88bbb     C9 2665   9.445   8.027   6.519 -0.0264 -0.6312  0.1784
   88bbb    H17 2666   9.512   7.963   6.460  0.0943 -0.5498  0.2287
   88bbb    H18 2667   9.353   7.969   6.533 -1.0791  1.0828  0.7276
   88bbb     O1 2668   9.512   8.737   6.496 -0.0159 -0.0281  0.7617
   88bbb    H19 2669   9.599   8.213   6.549 -0.3301  1.6267  0.4716
   89bbb     N1 2670  10.103   9.363   5.936 -0.0406  0.3188 -0.5345
   89bbb     C1 2671  10.090   9.514   5.960  0.1025  0.2743  0.4475
   89bbb     H1 2672  10.186   9.542   6.004  1.4055 -1.6237 -1.0187
   89bbb     H2 2673  10.011   9.530   6.033 -0.1672 -0.4302  0.3189
   89bbb     C2 2674  10.218   9.290   6.008 -0.6422  0.6614  1.1717
   89bbb     H3 2675  10.200   9.185   5.988 -2.4623  1.2418 -0.6502
   89bbb     H4 2676  10.199   9.298   6.115  1.0816 -1.8198  1.7496
   89bbb     C3 2677   9.978   9.289   5.984 -0.3657  0.5915 -0.7067
   89bbb     H5 2678   9.950   9.323   6.084 -1.8617  0.9258 -1.2079
   89bbb     H6 2679  10.000   9.182   5.986  0.1848  0.6955  2.3464
   89bbb     C4 2680   9.855   9.317   5.894 -0.0670 -0.2424  0.1453
   89bbb     H7 2681   9.881   9.283   5.793  0.9770  0.5005  0.1530
   89bbb     H8 2682   9.834   9.424   5.890  0.8522 -0.0584  0.1223
   89bbb     C5 2683  10.069   9.599   5.836 -0.2431  0.0330  0.4973
   89bbb     H9 2684  10.062   9.706   5.860  1.5076  0.6518 -1.4038
   89bbb    H10 2685   9.977   9.567   5.786  1.5257 -3.6900 -0.7339
   89bbb     C6 2686  10.372   9.331   5.981  0.2008  0.3311  0.3528
   89bbb    H11 2687  10.394   9.437   5.993  0.8623  0.2207  0.1144
   89bbb    H12 2688  10.405   9.312   5.879 -1.1567  0.7698 -0.1963
   89bbb     C7 2689   9.724   9.241   5.939  0.6972 -0.3957 -0.2777
   89bbb    H13 2690   9.758   9.138   5.959  1.2803 -0.2169 -0.3335
   89bbb    H14 2691   9.645   9.235   5.863 -1.6477  1.2421  1.8412
   89bbb     C8 2692  10.464   9.239   6.069  0.5523 -0.3938 -0.1933
   89bbb    H15 2693  10.450   9.135   6.039 -1.2948 -0.4067  0.5930
   89bbb    H16 2694  10.569   9.272   6.060  0.4528  0.2124  0.7648
   89bbb     C9 2695  10.185   9.586   5.737  0.3420  0.2845  0.0252
   89bbb    H17 2696  10.274   9.633   5.781 -0.5672  1.8739  0.2336
   89bbb    H18 2697  10.156   9.640   5.645 -0.4236  1.7653  1.0914
   89bbb     O1 2698   9.674   9.285   6.068  0.5948  0.0273 -0.2404
   89bbb    H19 2699  10.119   9.343   5.836 -1.1296  0.8684 -0.8333
   90bbb     N1 2700   9.510   9.618   7.499  0.2114 -0.8752  0.0255
   90bbb     C1 2701   9.439   9.728   7.420  0.3371  0.1690  1.0020
   90bbb     H1 2702   9.369   9.778   7.488  0.8098  0.5481  1.2131
   90bbb     H2 2703   9.376   9.679   7.346 -1.7727  0.8832  2.2172
   90bbb     C2 2704   9.521   9.683   7.637  0.1240 -0.4530 -0.7064
   90bbb     H3 2705   9.422   9.685   7.684  0.9762  2.1826  1.2587
   90bbb     H4 2706   9.536   9.790   7.623  2.0055 -0.0771  2.8362
   90bbb     C3 2707   9.431   9.493   7.497  0.4276 -0.3466  0.2802
   90bbb     H5 2708   9.326   9.516   7.519  0.4778  1.2591 -0.9416
   90bbb     H6 2709   9.471   9.423   7.569  0.9499 -0.9614 -0.5884
   90bbb     C4 2710   9.444   9.411   7.370  0.5213 -0.3810 -0.3931
   90bbb     H7 2711   9.408   9.310   7.395  2.0731 -0.9121 -0.2357
   90bbb     H8 2712   9.551   9.413   7.347  0.7548  0.4367  0.6570
   90bbb     C5 2713   9.536   9.831   7.351  0.2400  0.1551 -0.5158
   90bbb     H9 2714   9.624   9.786   7.303 -0.8394 -2.1513 -0.4809
   90bbb    H10 2715   9.580   9.896   7.427  1.6843 -1.6238  0.2394
   90bbb     C6 2716   9.631   9.636   7.733 -0.0616 -0.7667  0.5966
   90bbb    H11 2717   9.614   9.530   7.757  0.3199 -0.8258  0.6138
   90bbb    H12 2718   9.633   9.684   7.832  1.3074 -0.7554  0.5780
   90bbb     C7 2719   9.369   9.447   7.243  0.0877  0.3497 -0.1720
   90bbb    H13 2720   9.358   9.361   7.176  1.8108 -0.5145  0.5766
   90bbb    H14 2721   9.423   9.530   7.196 -1.5678  1.1877 -0.6666
   90bbb     C8 2722   9.768   9.652   7.665 -0.4262 -0.1133  0.0580
   90bbb    H15 2723   9.848   9.630   7.737  1.6672  3.6632 -0.8551
   90bbb    H16 2724   9.782   9.587   7.577  1.5480 -1.8302  1.5131
   90bbb     C9 2725   9.465   9.902   7.239 -0.3638  0.1273  0.1170
   90bbb    H17 2726   9.384   9.962   7.282  0.1749  0.8315  0.1697
   90bbb    H18 2727   9.421   9.828   7.171 -1.3028 -0.6238  1.4991
   90bbb     O1 2728   9.239   9.501   7.280  0.4113  0.0823  0.0188
   90bbb    H19 2729   9.604   9.604   7.459  0.8297 -1.2376  1.5469
   91bbb     N1 2730   8.221  10.053   6.968 -0.0187 -0.7297 -0.0583
   91bbb     C1 2731   8.232  10.134   6.842  0.0204  0.1625  0.1173
   91bbb     H1 2732   8.211  10.071   6.756 -0.7061  1.1479 -0.4575
   91bbb     H2 2733   8.336  10.164   6.829  0.3233  0.0130  1.8849
   91bbb     C2 2734   8.088   9.979   6.983 -1.0092 -0.2887  0.8700
   91bbb     H3 2735   8.021  10.061   7.007 -1.8000 -0.5821 -0.2199
   91bbb     H4 2736   8.095   9.917   7.073  1.0680  1.3589  1.9344
   91bbb     C3 2737   8.342   9.961   6.971  1.1171 -0.4596 -0.4557
   91bbb     H5 2738   8.430  10.014   6.936 -1.1837  1.8829 -3.2510
   91bbb     H6 2739   8.309   9.892   6.893 -2.8126  1.1395 -0.4337
   91bbb     C4 2740   8.374   9.894   7.111  0.7633  0.0682  0.2368
   91bbb     H7 2741   8.282   9.837   7.131 -1.1448  2.9564  0.3057
   91bbb     H8 2742   8.383   9.970   7.190 -0.4327  0.3721  0.0955
   91bbb     C5 2743   8.150  10.262   6.826  0.1524 -0.2337  0.4034
   91bbb     H9 2744   8.178  10.326   6.911 -0.4027 -0.1363  0.5199
   91bbb    H10 2745   8.041  10.247   6.826 -0.1816  1.8025 -0.2762
   91bbb     C6 2746   8.029   9.918   6.856  0.1242 -0.0578 -0.5751
   91bbb    H11 2747   8.076   9.820   6.842 -1.7113 -1.3094  1.3766
   91bbb    H12 2748   8.045   9.980   6.767  1.7700 -0.9062 -0.9161
   91bbb     C7 2749   8.494   9.797   7.107 -0.2418  0.4686  0.7156
   91bbb    H13 2750   8.466   9.698   7.068  0.8503  0.5556 -0.3668
   91bbb    H14 2751   8.532   9.781   7.208  1.8268  3.2243  0.4919
   91bbb     C8 2752   7.876   9.899   6.884  0.0629  0.3405 -0.1332
   91bbb    H15 2753   7.845   9.847   6.793 -1.9147  1.6398 -0.2555
   91bbb    H16 2754   7.860   9.842   6.977 -0.6071  0.9856  0.1585
   91bbb     C9 2755   8.183  10.337   6.690  0.2547 -0.1917  0.1727
   91bbb    H17 2756   8.292  10.339   6.684  0.2357  2.6986 -0.4740
   91bbb    H18 2757   8.154  10.442   6.696  1.5196  0.1462  0.5371
   91bbb     O1 2758   8.608   9.849   7.036  0.2236 -0.7002  0.1794
   91bbb    H19 2759   8.234  10.114   7.050  3.4269  0.2158 -1.1581
   92bbb     N1 2760   8.409  10.727   8.618 -0.4994 -0.8881  0.2027
   92bbb     C1 2761   8.372  10.713   8.768  0.1447 -0.1207  0.4635
   92bbb     H1 2762   8.459  10.671   8.819 -0.3516 -1.4775  0.2117
   92bbb     H2 2763   8.288  10.645   8.779 -0.4114  0.1651 -1.5431
   92bbb     C2 2764   8.548  10.804   8.604 -0.5714 -0.4830 -0.0207
   92bbb     H3 2765   8.619  10.740   8.657  0.4943 -0.1671 -1.0051
   92bbb     H4 2766   8.549  10.897   8.660  3.5462 -1.2785  1.6437
   92bbb     C3 2767   8.418  10.587   8.554 -0.2580 -0.3807 -0.8544
   92bbb     H5 2768   8.451  10.598   8.451 -0.2843 -1.2366 -0.9610
   92bbb     H6 2769   8.318  10.544   8.548 -0.1416 -0.5925 -1.3108
   92bbb     C4 2770   8.507  10.480   8.619  0.2416  0.1883 -0.6451
   92bbb     H7 2771   8.462  10.387   8.582 -1.3063  0.4231  0.5288
   92bbb     H8 2772   8.483  10.472   8.726  1.6872 -0.5716 -0.3447
   92bbb     C5 2773   8.334  10.848   8.834  0.3255 -0.5913 -0.2117
   92bbb     H9 2774   8.256  10.906   8.782 -0.9660  0.6274  2.8490
   92bbb    H10 2775   8.418  10.919   8.843 -0.7287  0.6717 -0.0047
   92bbb     C6 2776   8.601  10.821   8.466  0.4523 -0.1912  1.2330
   92bbb    H11 2777   8.625  10.724   8.422 -0.1742 -0.3747  1.2919
   92bbb    H12 2778   8.691  10.883   8.466 -1.3323  2.7538 -2.0444
   92bbb     C7 2779   8.659  10.483   8.579  0.7012  0.3724 -0.0664
   92bbb    H13 2780   8.730  10.436   8.648  1.4014  0.5920 -0.6115
   92bbb    H14 2781   8.690  10.588   8.568 -0.4517  0.5776 -1.7724
   92bbb     C8 2782   8.501  10.890   8.372  0.5016  0.0983 -0.8684
   92bbb    H15 2783   8.409  10.831   8.362  0.4997 -0.1991  0.6573
   92bbb    H16 2784   8.473  10.989   8.410  1.3991 -0.8275  2.5275
   92bbb     C9 2785   8.301  10.838   8.985 -0.8109 -0.2407  0.8785
   92bbb    H17 2786   8.237  10.921   9.017  3.0360  3.3279  0.2412
   92bbb    H18 2787   8.401  10.844   9.031  0.3575 -0.5719 -1.4828
   92bbb     O1 2788   8.685  10.433   8.445  0.7539  0.0173  0.4646
   92bbb    H19 2789   8.336  10.778   8.565  0.2082 -1.8929 -1.8363
   93bbb     N1 2790   8.875   9.799   9.149 -0.5464  0.2591  0.4145
   93bbb     C1 2791   9.006   9.780   9.062  0.1624  0.0455 -0.7256
   93bbb     H1 2792   9.019   9.884   9.033 -1.5633  0.3642 -0.4676
   93bbb     H2 2793   8.969   9.724   8.977  0.2695 -1.5098  0.2021
   93bbb     C2 2794   8.908   9.875   9.273  0.0694 -0.2356 -0.2883
   93bbb     H3 2795   8.913   9.982   9.251 -2.2390 -0.3984 -1.9486
   93bbb     H4 2796   9.003   9.832   9.306 -0.9812 -2.0512  0.4822
   93bbb     C3 2797   8.772   9.885   9.075 -0.1607 -0.1871 -0.1531
   93bbb     H5 2798   8.808   9.976   9.026 -1.5804 -0.0988 -1.0733
   93bbb     H6 2799   8.683   9.902   9.135  0.9435  1.6249  1.0846
   93bbb     C4 2800   8.717   9.808   8.954 -0.3768 -0.0621 -0.2353
   93bbb     H7 2801   8.699   9.705   8.986  0.6534 -0.4013 -0.6860
   93bbb     H8 2802   8.786   9.794   8.869  0.9973 -0.8771  0.9585
   93bbb     C5 2803   9.135   9.717   9.129 -0.0534  0.5526 -0.0422
   93bbb     H9 2804   9.178   9.785   9.203  0.8316  1.2075 -1.1348
   93bbb    H10 2805   9.211   9.707   9.051  0.5221 -0.8850  0.6697
   93bbb     C6 2806   8.807   9.859   9.385 -0.1605  0.6455  0.2396
   93bbb    H11 2807   8.856   9.812   9.471 -0.0693 -0.1376 -0.2220
   93bbb    H12 2808   8.727   9.789   9.357 -0.8764  0.5055  2.4677
   93bbb     C7 2809   8.580   9.845   8.901  0.2678  0.3144 -0.2703
   93bbb    H13 2810   8.521   9.870   8.990 -0.5652  2.0989 -1.2688
   93bbb    H14 2811   8.535   9.762   8.845  2.0063  0.3255 -1.7769
   93bbb     C8 2812   8.746   9.993   9.430 -0.0984  0.4847 -0.1828
   93bbb    H15 2813   8.674   9.958   9.505 -0.5878 -2.0401 -1.7007
   93bbb    H16 2814   8.822  10.058   9.475  2.4683 -1.4140 -1.5313
   93bbb     C9 2815   9.112   9.571   9.202  0.1715 -0.2316  0.1985
   93bbb    H17 2816   9.209   9.519   9.208 -0.3413 -1.1098  1.1338
   93bbb    H18 2817   9.048   9.519   9.129  0.9780  2.0252 -2.3027
   93bbb     O1 2818   8.588   9.959   8.815 -0.7062 -0.2892 -0.1687
   93bbb    H19 2819   8.837   9.707   9.178  0.4706 -0.7531 -1.2798
   94bbb     N1 2820   7.983  11.907   3.032 -0.4380  0.2834 -0.1239
   94bbb     C1 2821   8.120  11.957   2.978 -0.3323  0.3055 -0.6804
   94bbb     H1 2822   8.115  11.960   2.869  1.6941 -0.3209 -0.8353
   94bbb     H2 2823   8.188  11.875   3.002  0.3147  1.7352  3.1996
   94bbb     C2 2824   7.876  12.001   2.996 -0.1671 -1.2190 -0.0203
   94bbb     H3 2825   7.839  11.985   2.895  2.3085 -0.5913 -1.1101
   94bbb     H4 2826   7.908  12.106   2.990  1.7247 -1.8505 -2.8643
   94bbb     C3 2827   7.944  11.768   2.979  0.5731  0.5301  1.1586
   94bbb     H5 2828   8.004  11.752   2.889  0.7171 -0.0341  1.3509
   94bbb     H6 2829   7.842  11.768   2.940  0.7788  0.9703  0.5979
   94bbb     C4 2830   7.955  11.646   3.084 -0.3771 -0.2905 -0.1583
   94bbb     H7 2831   7.906  11.556   3.045 -2.9468  0.6347  0.7442
   94bbb     H8 2832   7.893  11.664   3.173  1.2234 -1.2472  1.2141
   94bbb     C5 2833   8.190  12.083   3.050 -0.1583  0.1102  0.3501
   94bbb     H9 2834   8.201  12.072   3.159  1.5422  4.4314  0.8226
   94bbb    H10 2835   8.130  12.174   3.041 -0.7248 -0.3229 -0.3236
   94bbb     C6 2836   7.765  11.999   3.109 -0.2841  0.1179 -0.5330
   94bbb    H11 2837   7.706  11.908   3.122 -1.3753  0.8409 -0.2643
   94bbb    H12 2838   7.682  12.068   3.088 -2.4822 -2.3647 -0.4451
   94bbb     C7 2839   8.094  11.615   3.145 -0.1266 -0.1731  0.1250
   94bbb    H13 2840   8.083  11.529   3.211 -0.6734 -1.6093 -1.7478
   94bbb    H14 2841   8.129  11.700   3.205 -0.7998 -0.0795  0.3888
   94bbb     C8 2842   7.822  12.041   3.251 -0.2588  0.5686  0.2101
   94bbb    H15 2843   7.862  12.143   3.252  1.2995  0.0073  2.2905
   94bbb    H16 2844   7.738  12.041   3.321 -0.0968 -1.1990  0.4481
   94bbb     C9 2845   8.336  12.105   2.995  0.0673 -0.1952  0.2400
   94bbb    H17 2846   8.386  12.189   3.045  0.1301  0.3322 -0.6939
   94bbb    H18 2847   8.342  12.144   2.893 -0.1288  0.6550  0.5452
   94bbb     O1 2848   8.188  11.575   3.040  0.5879  0.0125 -0.7195
   94bbb    H19 2849   7.983  11.912   3.135  0.4760  1.6838 -0.1682
   95bbb     N1 2850   9.012  11.320   2.289  0.0130 -0.8017 -0.3904
   95bbb     C1 2851   8.943  11.189   2.275  0.9010  0.5869  0.0453
   95bbb     H1 2852   8.858  11.197   2.208 -2.3492 -0.9887  3.6069
   95bbb     H2 2853   8.893  11.157   2.366 -0.9423 -1.1043 -1.4572
   95bbb     C2 2854   9.059  11.371   2.161  0.6721  0.5206  0.1568
   95bbb     H3 2855   8.968  11.396   2.106 -0.3969 -2.8307  0.1811
   95bbb     H4 2856   9.116  11.291   2.112  4.1564  1.6070  2.0563
   95bbb     C3 2857   8.908  11.427   2.333 -0.6191 -0.3380  0.1797
   95bbb     H5 2858   8.956  11.522   2.356  0.3500 -1.1233  1.6315
   95bbb     H6 2859   8.872  11.405   2.434  1.5294 -2.1445  0.6378
   95bbb     C4 2860   8.774  11.450   2.256  0.3465  0.0349 -0.2752
   95bbb     H7 2861   8.738  11.356   2.215  0.3245  1.6949 -4.5967
   95bbb     H8 2862   8.802  11.517   2.174 -1.6184  0.8907 -0.3139
   95bbb     C5 2863   9.037  11.073   2.220  0.1829 -0.1029 -0.0326
   95bbb     H9 2864   9.053  11.083   2.112 -1.8763  3.4376 -0.1528
   95bbb    H10 2865   8.974  10.983   2.228  0.2047 -0.0503  0.8978
   95bbb     C6 2866   9.149  11.491   2.171  0.1891 -0.4488 -0.3234
   95bbb    H11 2867   9.206  11.486   2.265 -0.0424  0.0778 -0.1520
   95bbb    H12 2868   9.088  11.582   2.173  1.4611  0.4474 -0.5327
   95bbb     C7 2869   8.673  11.537   2.340 -0.8544  0.0525 -0.6290
   95bbb    H13 2870   8.572  11.535   2.298 -1.7978 -1.2712  1.5533
   95bbb    H14 2871   8.725  11.634   2.338  0.8810 -0.8087  0.2140
   95bbb     C8 2872   9.239  11.487   2.040 -0.1940  0.5154  0.2854
   95bbb    H15 2873   9.320  11.560   2.045  0.4698 -0.2127  0.3972
   95bbb    H16 2874   9.284  11.387   2.032  0.1029  0.6668  0.0416
   95bbb     C9 2875   9.163  11.055   2.305 -0.7726 -0.5273  0.1656
   95bbb    H17 2876   9.225  10.973   2.267 -0.0875 -0.3620  0.9211
   95bbb    H18 2877   9.133  11.036   2.408  0.1668  1.7227  0.9219
   95bbb     O1 2878   8.662  11.481   2.480 -0.2777 -0.3955  0.1475
   95bbb    H19 2879   9.095  11.303   2.348 -0.9184  2.0833  1.9347
   96bbb     N1 2880  10.051  10.835   3.105 -0.2613  0.2018 -0.1807
   96bbb     C1 2881  10.140  10.721   3.061  0.6978 -0.2772 -0.2956
   96bbb     H1 2882  10.107  10.692   2.961  0.6283 -1.0024 -0.0618
   96bbb     H2 2883  10.122  10.643   3.134 -1.6367  0.6912  0.2487
   96bbb     C2 2884  10.048  10.940   3.002  0.0334 -0.0322  1.1205
   96bbb     H3 2885   9.970  10.906   2.933 -0.1593 -2.1613  2.2797
   96bbb     H4 2886  10.140  10.937   2.944 -1.6539 -1.1857 -1.7162
   96bbb     C3 2887   9.911  10.791   3.150 -0.8492  0.1118 -0.1220
   96bbb     H5 2888   9.868  10.733   3.068 -1.7133  2.1849 -1.2136
   96bbb     H6 2889   9.848  10.880   3.160 -1.1301  0.1269 -1.6737
   96bbb     C4 2890   9.908  10.720   3.289  0.0291  0.3480  0.0554
   96bbb     H7 2891   9.968  10.774   3.364 -0.6372  0.5740  0.4253
   96bbb     H8 2892   9.953  10.620   3.286 -1.2116 -0.1861 -1.3318
   96bbb     C5 2893  10.289  10.749   3.075  0.1061 -0.7675  0.0009
   96bbb     H9 2894  10.312  10.832   3.007 -2.6211  0.0743 -0.0473
   96bbb    H10 2895  10.339  10.656   3.048  0.5590 -1.5302  3.0460
   96bbb     C6 2896  10.037  11.084   3.046 -0.3714 -0.4054 -0.4884
   96bbb    H11 2897  10.113  11.102   3.123  0.7159  0.9114 -1.7934
   96bbb    H12 2898   9.944  11.118   3.094  1.0857  2.1950  0.7085
   96bbb     C7 2899   9.764  10.701   3.331  0.6129  0.5006  0.6721
   96bbb    H13 2900   9.771  10.638   3.420  1.6104 -0.7918 -0.2868
   96bbb    H14 2901   9.703  10.647   3.257  1.8325 -0.0814  0.0657
   96bbb     C8 2902  10.070  11.164   2.925  0.0036  0.2992 -0.6257
   96bbb    H15 2903  10.006  11.126   2.845  1.1639 -1.7194 -0.6439
   96bbb    H16 2904  10.040  11.269   2.942  0.4068  0.4927 -1.0921
   96bbb     C9 2905  10.336  10.787   3.214  0.6699 -0.0413  0.4232
   96bbb    H17 2906  10.440  10.756   3.230  0.3273 -1.8291 -0.5640
   96bbb    H18 2907  10.262  10.740   3.280 -0.7521 -1.0543 -1.7733
   96bbb     O1 2908   9.711  10.823   3.362 -0.5913 -0.2330  0.0617
   96bbb    H19 2909  10.099  10.872   3.188 -0.2059 -1.6550  0.6623
   97bbb     N1 2910   9.774  11.625   4.092  0.2964 -0.5654  0.1505
   97bbb     C1 2911   9.718  11.737   4.014  0.7917  0.0828  0.0733
   97bbb     H1 2912   9.650  11.795   4.077 -0.9999 -1.4028 -0.3926
   97bbb     H2 2913   9.663  11.704   3.926  0.9733  1.7095 -0.6927
   97bbb     C2 2914   9.770  11.667   4.237 -0.3066 -0.6574 -0.8841
   97bbb     H3 2915   9.666  11.695   4.254  0.2425  0.7836  0.2921
   97bbb     H4 2916   9.842  11.748   4.249 -1.1369 -0.2875  2.7004
   97bbb     C3 2917   9.682  11.500   4.079  0.7228  0.0739  0.7120
   97bbb     H5 2918   9.586  11.526   4.123 -0.1494 -1.3540 -0.2593
   97bbb     H6 2919   9.731  11.426   4.142  0.8522 -0.7215 -0.2779
   97bbb     C4 2920   9.671  11.434   3.937  0.3783  0.4932 -0.4692
   97bbb     H7 2921   9.771  11.413   3.897 -0.5853 -0.8946 -2.3057
   97bbb     H8 2922   9.613  11.500   3.872 -0.0962  1.7226  1.1348
   97bbb     C5 2923   9.820  11.839   3.964 -0.2229 -0.4834  0.2231
   97bbb     H9 2924   9.761  11.885   3.883  1.4808  1.5909  0.0665
   97bbb    H10 2925   9.908  11.794   3.916 -1.0507  0.0760 -1.9588
   97bbb     C6 2926   9.817  11.564   4.342  0.4457  0.4834 -0.0538
   97bbb    H11 2927   9.899  11.494   4.321 -1.7524 -2.1466 -0.5989
   97bbb    H12 2928   9.736  11.490   4.355 -1.4803  2.7920  2.0122
   97bbb     C7 2929   9.603  11.291   3.942  0.2029 -0.0964 -0.6942
   97bbb    H13 2930   9.545  11.282   4.034  2.2791  1.2215  0.8387
   97bbb    H14 2931   9.679  11.213   3.952 -1.0255 -1.2866 -0.3808
   97bbb     C8 2932   9.847  11.633   4.474  0.2677 -0.3763 -0.3116
   97bbb    H15 2933   9.896  11.728   4.448 -1.5032  1.0126  1.1411
   97bbb    H16 2934   9.757  11.663   4.529  0.4568 -0.1463 -0.1243
   97bbb     C9 2935   9.842  11.951   4.065  0.0646  0.6147 -0.3119
   97bbb    H17 2936   9.893  12.034   4.015  0.1867  0.5104 -0.3600
   97bbb    H18 2937   9.911  11.919   4.143  0.4023  0.6323 -0.6029
   97bbb     O1 2938   9.521  11.261   3.825  0.1929 -0.5889 -0.2690
   97bbb    H19 2939   9.872  11.612   4.063  0.4232  1.9292 -0.7639
   98bbb     N1 2940   7.626  10.751   1.809 -0.4035 -0.2552 -0.6078
   98bbb     C1 2941   7.642  10.889   1.748 -0.1801 -0.2300  0.0096
   98bbb     H1 2942   7.693  10.946   1.825 -1.3347 -0.3183  0.8644
   98bbb     H2 2943   7.548  10.942   1.731  0.0613 -0.3736 -2.0600
   98bbb     C2 2944   7.589  10.751   1.958  0.2635  0.1402 -0.2400
   98bbb     H3 2945   7.540  10.658   1.987 -3.1346  1.0950 -2.3275
   98bbb     H4 2946   7.508  10.825   1.962  0.2614  0.2864 -1.9099
   98bbb     C3 2947   7.516  10.681   1.738  0.3496  0.1563 -0.5611
   98bbb     H5 2948   7.538  10.701   1.633  1.6127 -1.9665 -0.7590
   98bbb     H6 2949   7.418  10.719   1.767 -1.3108 -3.1970 -1.1556
   98bbb     C4 2950   7.509  10.526   1.755  0.2561  0.5054  0.0919
   98bbb     H7 2951   7.426  10.474   1.704  1.9791 -1.7550 -0.5613
   98bbb     H8 2952   7.494  10.510   1.863  0.6085  2.0526  0.3919
   98bbb     C5 2953   7.731  10.901   1.623 -0.4386 -0.4118  0.1903
   98bbb     H9 2954   7.742  11.009   1.606 -1.8330 -0.2034  0.4558
   98bbb    H10 2955   7.682  10.860   1.534 -1.0345 -0.5695  0.5776
   98bbb     C6 2956   7.707  10.790   2.056  0.3748  0.0319  0.5216
   98bbb    H11 2957   7.740  10.887   2.016 -1.8921  0.2460 -1.0108
   98bbb    H12 2958   7.782  10.712   2.038 -0.1499 -0.2938 -0.2790
   98bbb     C7 2959   7.634  10.460   1.708 -0.2014  0.2725 -0.4742
   98bbb    H13 2960   7.683  10.489   1.614 -0.0592  0.4011 -0.3606
   98bbb    H14 2961   7.612  10.354   1.691 -1.6570  0.1642  1.7028
   98bbb     C8 2962   7.680  10.781   2.207 -0.1849  0.0050 -0.0432
   98bbb    H15 2963   7.623  10.690   2.230  1.2227 -1.0126 -0.4710
   98bbb    H16 2964   7.769  10.770   2.271 -1.5666 -3.0319  1.5749
   98bbb     C9 2965   7.877  10.845   1.637 -0.1601 -0.3415 -0.2155
   98bbb    H17 2966   7.938  10.900   1.565  2.3888 -0.4170  1.7326
   98bbb    H18 2967   7.872  10.738   1.611 -0.2289 -0.2813 -0.4466
   98bbb     O1 2968   7.729  10.470   1.818  0.2776 -0.0166  0.1620
   98bbb    H19 2969   7.716  10.702   1.799 -0.3142 -0.1986 -0.1156
   99bbb     N1 2970   8.384   9.691   1.846  0.2943  0.6191 -0.0341
   99bbb     C1 2971   8.486   9.681   1.730 -0.3516 -0.3497 -0.1899
   99bbb     H1 2972   8.573   9.623   1.758 -0.2296 -0.7725 -1.4023
   99bbb     H2 2973   8.518   9.781   1.700  2.0291 -0.4104  1.8297
   99bbb     C2 2974   8.415   9.593   1.960 -0.7439  0.2464  0.5216
   99bbb     H3 2975   8.335   9.615   2.031 -0.3026  3.2941  0.2037
   99bbb     H4 2976   8.513   9.614   2.005 -1.2056 -1.5311  2.5131
   99bbb     C3 2977   8.388   9.833   1.902 -0.1262 -0.1382 -0.0808
   99bbb     H5 2978   8.308   9.852   1.974  1.1696  3.4782  0.6089
   99bbb     H6 2979   8.365   9.898   1.817 -1.9562 -1.1605 -0.4116
   99bbb     C4 2980   8.526   9.875   1.968 -0.0869 -0.0951 -0.6143
   99bbb     H7 2981   8.611   9.849   1.903 -1.9128 -0.8806 -2.8069
   99bbb     H8 2982   8.544   9.817   2.059 -0.9849  1.3859  0.5350
   99bbb     C5 2983   8.416   9.609   1.615 -0.0449 -0.3565  0.0736
   99bbb     H9 2984   8.318   9.654   1.594 -0.7718 -1.4669  1.0150
   99bbb    H10 2985   8.395   9.507   1.648 -0.5223  0.4331  2.3865
   99bbb     C6 2986   8.406   9.439   1.931 -0.2525  0.0044  0.3642
   99bbb    H11 2987   8.421   9.378   2.021 -0.7085 -0.8075 -0.1009
   99bbb    H12 2988   8.475   9.401   1.855 -1.3336  0.2379 -0.7833
   99bbb     C7 2989   8.543  10.021   2.004  0.4253 -0.1357 -0.2313
   99bbb    H13 2990   8.586  10.076   1.919  2.9023  1.2942  1.7927
   99bbb    H14 2991   8.622  10.036   2.078  0.0716  0.3191  0.0658
   99bbb     C8 2992   8.269   9.386   1.888 -0.1634 -0.8023 -0.5591
   99bbb    H15 2993   8.235   9.439   1.798  0.0571 -1.0116 -0.7655
   99bbb    H16 2994   8.272   9.280   1.862 -1.5445 -0.5537 -1.8269
   99bbb     C9 2995   8.502   9.605   1.481 -0.6148  0.2500  0.1161
   99bbb    H17 2996   8.558   9.699   1.470 -2.4558  1.3911  0.0280
   99bbb    H18 2997   8.438   9.594   1.393 -0.2152 -1.1955 -0.0128
   99bbb     O1 2998   8.412  10.075   2.048  0.3144  0.0727 -0.0687
   99bbb    H19 2999   8.289   9.664   1.816  0.8421 -1.0467 -0.3723
  100bbb     N1 3000   6.525   9.693   2.715 -0.2523 -0.1044  0.2229
  100bbb     C1 3001   6.404   9.594   2.711  0.6781 -0.0703 -0.2149
  100bbb     H1 3002   6.362   9.595   2.610  0.7590  0.4766 -0.2458
  100bbb     H2 3003   6.327   9.639   2.774  1.6705 -0.7846  1.5565
  100bbb     C2 3004   6.568   9.703   2.856  0.0810  0.6711 -0.7439
  100bbb     H3 3005   6.629   9.613   2.863  0.6811  0.9895 -1.6844
  100bbb     H4 3006   6.476   9.693   2.914  0.5365 -0.9821 -0.2663
  100bbb     C3 3007   6.647   9.641   2.632 -0.0373  0.1211  0.3240
  100bbb     H5 3008   6.660   9.535   2.657  1.3865  0.6008  1.6904
  100bbb     H6 3009   6.735   9.685   2.678 -0.2700 -1.5623  2.5289
  100bbb     C4 3010   6.636   9.663   2.482 -0.2666 -0.0837  0.5020
  100bbb     H7 3011   6.649   9.766   2.448 -1.0228  0.1229  0.8165
  100bbb     H8 3012   6.533   9.641   2.449 -0.0637  1.9613 -1.7599
  100bbb     C5 3013   6.432   9.453   2.750 -0.3740 -0.5681 -0.3285
  100bbb     H9 3014   6.484   9.456   2.846 -0.4532  1.3186 -0.3203
  100bbb    H10 3015   6.490   9.397   2.674  1.4599 -0.1821  0.7160
  100bbb     C6 3016   6.638   9.838   2.884 -0.7590  0.4772  0.1346
  100bbb    H11 3017   6.685   9.881   2.795  1.5750 -1.0926  0.4917
  100bbb    H12 3018   6.728   9.824   2.946 -0.0229  0.8118 -0.8468
  100bbb     C7 3019   6.727   9.580   2.392 -0.3885  0.6729 -0.0779
  100bbb    H13 3020   6.691   9.582   2.288  3.0446 -2.1092 -1.5321
  100bbb    H14 3021   6.715   9.476   2.423 -2.9903  1.1790  0.8286
  100bbb     C8 3022   6.546   9.936   2.957  0.3114  0.4299 -0.0039
  100bbb    H15 3023   6.460   9.957   2.892 -0.9396 -1.8884  0.7836
  100bbb    H16 3024   6.510   9.889   3.050 -1.0404 -0.7927 -1.0942
  100bbb     C9 3025   6.302   9.375   2.765  0.0051 -0.2195 -0.7188
  100bbb    H17 3026   6.231   9.423   2.834  0.4329 -1.5680  0.7302
  100bbb    H18 3027   6.332   9.279   2.810 -1.3149 -0.7356 -0.8901
  100bbb     O1 3028   6.864   9.623   2.391  0.0751 -0.2316  0.5579
  100bbb    H19 3029   6.494   9.788   2.690 -0.3907 -0.0417  0.6297
  101bbb     N1 3030   6.868   9.644   1.349 -0.1860  0.4699  0.5691
  101bbb     C1 3031   6.921   9.496   1.341  0.4441 -0.7262  0.5493
  101bbb     H1 3032   6.860   9.437   1.273  2.3862 -3.2001  0.8105
  101bbb     H2 3033   6.899   9.448   1.436  0.1446 -2.7754 -0.4996
  101bbb     C2 3034   6.728   9.647   1.395  0.9561  0.5194 -0.5769
  101bbb     H3 3035   6.697   9.751   1.402  1.2321  0.5115  1.3319
  101bbb     H4 3036   6.727   9.604   1.495 -3.3512 -2.4725 -1.6339
  101bbb     C3 3037   6.933   9.717   1.464  0.3463  0.4794 -0.0574
  101bbb     H5 3038   7.039   9.697   1.454  0.1214 -1.1658  0.5603
  101bbb     H6 3039   6.908   9.671   1.559  0.8642 -2.1491 -1.1218
  101bbb     C4 3040   6.915   9.869   1.467  0.3846 -1.3189  0.5826
  101bbb     H7 3041   6.811   9.904   1.458  0.2574 -2.0773 -1.5509
  101bbb     H8 3042   6.967   9.916   1.382 -2.0582 -0.6243 -0.6334
  101bbb     C5 3043   7.065   9.465   1.292 -0.1082  0.2266  0.0075
  101bbb     H9 3044   7.077   9.357   1.301 -1.0084  0.0794 -0.4667
  101bbb    H10 3045   7.138   9.513   1.359  2.4566 -3.9107  0.5220
  101bbb     C6 3046   6.625   9.585   1.299 -0.3696 -0.3738  0.6136
  101bbb    H11 3047   6.645   9.478   1.289 -0.1293 -0.1933 -1.2649
  101bbb    H12 3048   6.625   9.626   1.197  1.5111  0.6278  0.9642
  101bbb     C7 3049   6.972   9.940   1.595 -0.1894 -0.4385  0.4790
  101bbb    H13 3050   6.961  10.047   1.577  2.0197 -0.5814 -2.2320
  101bbb    H14 3051   7.075   9.903   1.603 -0.1075  0.0116  1.9373
  101bbb     C8 3052   6.476   9.608   1.337 -0.2389  0.0411  0.1254
  101bbb    H15 3053   6.406   9.571   1.261 -0.3828  0.0788  0.2380
  101bbb    H16 3054   6.448   9.550   1.425 -0.9501  2.1557  1.3812
  101bbb     C9 3055   7.095   9.518   1.153 -0.0847 -0.5839  0.3748
  101bbb    H17 3056   7.200   9.496   1.133 -0.3216  0.1803 -2.1421
  101bbb    H18 3057   7.081   9.627   1.156  0.9945 -0.4242  0.0292
  101bbb     O1 3058   6.907   9.894   1.717  0.3748 -0.2918  0.0662
  101bbb    H19 3059   6.897   9.688   1.260  2.0037 -2.4221 -0.3005
  102bbb     N1 3060   9.264  10.557   4.871 -0.0974 -0.0604 -0.0463
  102bbb     C1 3061   9.285  10.609   5.009 -0.5013 -0.4569 -0.9338
  102bbb     H1 3062   9.198  10.668   5.038  1.3460  2.2238 -0.5680
  102bbb     H2 3063   9.365  10.683   5.009 -0.3158 -0.6148 -2.5518
  102bbb     C2 3064   9.207  10.663   4.780 -1.0436  0.4567 -0.5450
  102bbb     H3 3065   9.234  10.647   4.675 -2.5730  1.1507 -1.0842
  102bbb     H4 3066   9.263  10.752   4.810  0.8900 -0.8489 -0.0858
  102bbb     C3 3067   9.403  10.509   4.820 -0.5155 -0.1672 -0.0362
  102bbb     H5 3068   9.442  10.449   4.903 -1.3230  1.1582  1.3497
  102bbb     H6 3069   9.480  10.586   4.816  0.5821 -1.2488 -0.3185
  102bbb     C4 3070   9.414  10.412   4.694 -0.4357  0.0660 -0.8851
  102bbb     H7 3071   9.388  10.467   4.603 -0.3981 -1.7092 -2.0075
  102bbb     H8 3072   9.340  10.332   4.704 -1.7923  1.4269  0.6734
  102bbb     C5 3073   9.309  10.498   5.110  0.3576  0.3947 -0.8672
  102bbb     H9 3074   9.404  10.448   5.089  0.6356  0.2830  0.5245
  102bbb    H10 3075   9.227  10.428   5.093 -0.0743  1.5047 -3.9503
  102bbb     C6 3076   9.056  10.678   4.803  0.5815 -0.3740 -0.2130
  102bbb    H11 3077   9.018  10.730   4.714 -0.4425  0.4645  0.6786
  102bbb    H12 3078   9.034  10.735   4.894  0.4788 -0.8249  0.0466
  102bbb     C7 3079   9.563  10.368   4.674  0.0328  0.5905 -0.3550
  102bbb    H13 3080   9.631  10.446   4.637  1.2163 -0.8436 -1.3068
  102bbb    H14 3081   9.564  10.284   4.604 -1.5530  0.2074  0.0425
  102bbb     C8 3082   8.975  10.553   4.794 -0.7313 -0.1540  0.3043
  102bbb    H15 3083   8.868  10.578   4.794 -0.8392 -0.4279 -1.9336
  102bbb    H16 3084   8.995  10.503   4.699 -1.2504  2.3171 -1.2229
  102bbb     C9 3085   9.327  10.547   5.258  0.4979  0.4407 -0.7610
  102bbb    H17 3086   9.263  10.632   5.282  0.7061 -0.1579  2.1868
  102bbb    H18 3087   9.433  10.570   5.278  1.0424 -4.1683  3.8765
  102bbb     O1 3088   9.620  10.325   4.802 -0.1453  0.2048  0.1370
  102bbb    H19 3089   9.197  10.479   4.876 -1.8780  1.4581  1.8057
  103bbb     N1 3090  10.499   9.377   4.999 -0.3502  0.1932  0.2047
  103bbb     C1 3091  10.655   9.332   5.030  0.2400 -0.7536 -0.5127
  103bbb     H1 3092  10.655   9.231   5.071  2.6260 -0.3614  0.6146
  103bbb     H2 3093  10.692   9.399   5.107  1.5704 -0.1586 -1.6203
  103bbb     C2 3094  10.463   9.220   4.976  0.5296 -0.3217 -0.1793
  103bbb     H3 3095  10.357   9.206   4.996  0.5143 -0.3624 -0.2917
  103bbb     H4 3096  10.497   9.154   5.056  1.9510 -1.2205 -1.4555
  103bbb     C3 3097  10.344   9.586   5.073  0.0844 -0.3056  0.0077
  103bbb     H5 3098  10.368   9.674   5.013 -1.0758  0.5574  0.7828
  103bbb     H6 3099  10.380   9.632   5.165 -0.9588 -2.4935  1.6080
  103bbb     C4 3100  10.186   9.616   5.086 -0.1937  0.0646  0.3999
  103bbb     H7 3101  10.135   9.551   5.157  0.0063 -1.4060 -0.7561
  103bbb     H8 3102  10.135   9.614   4.988  0.4482  3.7717 -0.1937
  103bbb     C5 3103  10.773   9.328   4.932  0.6330 -0.2519  0.2732
  103bbb     H9 3104  10.800   9.433   4.918 -0.8907  0.3901  1.8028
  103bbb    H10 3105  10.731   9.292   4.838  1.6854  1.7039 -1.0080
  103bbb     C6 3106  10.506   9.142   4.850 -0.1388 -0.2742 -0.2489
  103bbb    H11 3107  10.595   9.085   4.880  0.6359  1.2941  0.5337
  103bbb    H12 3108  10.549   9.202   4.769  0.7900 -1.4434 -0.6472
  103bbb     C7 3109  10.151   9.761   5.140  0.2336  0.5594  0.2826
  103bbb    H13 3110  10.203   9.795   5.230 -2.1034  1.6407  1.3105
  103bbb    H14 3111  10.043   9.749   5.160  0.4300 -3.4872 -0.1377
  103bbb     C8 3112  10.387   9.057   4.808 -0.0590  0.3250  0.0818
  103bbb    H15 3113  10.413   9.007   4.714  0.4698 -0.3615  0.5792
  103bbb    H16 3114  10.372   8.976   4.881  1.2925  1.3679  1.6066
  103bbb     C9 3115  10.877   9.232   4.985  0.2944  0.0730  0.5354
  103bbb    H17 3116  10.904   9.266   5.086 -1.2480  0.7334  0.7563
  103bbb    H18 3117  10.964   9.243   4.919 -0.7170 -0.1909 -0.8906
  103bbb     O1 3118  10.172   9.840   5.018 -0.0919 -0.5788  0.0004
  103bbb    H19 3119  10.507   9.391   4.897 -1.0530 -0.2024  0.0958
  104bbb     N1 3120  10.234   9.732   2.581 -0.0262  0.1661 -1.1187
  104bbb     C1 3121  10.333   9.694   2.478 -0.2415 -0.3311  0.4299
  104bbb     H1 3122  10.383   9.605   2.513 -0.1279  0.1892  1.6144
  104bbb     H2 3123  10.405   9.776   2.469 -1.9962  1.7608  3.6139
  104bbb     C2 3124  10.203   9.886   2.565  0.2658 -0.2957  0.3539
  104bbb     H3 3125  10.107   9.903   2.615 -0.5181  0.0573 -1.1972
  104bbb     H4 3126  10.175   9.906   2.462 -1.1953  2.4737  1.1842
  104bbb     C3 3127  10.109   9.647   2.577 -0.1913  0.6871 -0.5594
  104bbb     H5 3128  10.126   9.540   2.595 -0.5271  0.9891  1.9159
  104bbb     H6 3129  10.069   9.661   2.477 -0.3650  1.2486 -0.4104
  104bbb     C4 3130   9.998   9.686   2.681 -0.3469  0.5460  0.8554
  104bbb     H7 3131   9.914   9.620   2.655  2.0646 -2.3312 -0.1961
  104bbb     H8 3132   9.962   9.790   2.686 -0.9992  0.4229 -0.7556
  104bbb     C5 3133  10.273   9.676   2.336 -0.7110  0.3248 -0.6220
  104bbb     H9 3134  10.189   9.745   2.320 -0.0756  1.6253  1.3181
  104bbb    H10 3135  10.232   9.574   2.336  1.9753 -0.8185 -0.3723
  104bbb     C6 3136  10.317   9.982   2.618  0.3312  0.1973  1.2294
  104bbb    H11 3137  10.291  10.088   2.600 -0.9714 -0.2204  0.4821
  104bbb    H12 3138  10.405   9.970   2.554 -0.7319 -0.8534 -0.0968
  104bbb     C7 3139  10.040   9.658   2.826 -0.1671 -0.2400  0.3246
  104bbb    H13 3140   9.964   9.698   2.894 -0.9135  3.0111 -2.1786
  104bbb    H14 3141  10.128   9.718   2.847  0.6842 -2.2350  3.0413
  104bbb     C8 3142  10.345   9.965   2.767  0.2951 -0.6169  0.1198
  104bbb    H15 3143  10.411  10.048   2.794 -1.1740  1.2900 -1.8033
  104bbb    H16 3144  10.248   9.979   2.816  0.5474 -0.0525  0.4610
  104bbb     C9 3145  10.385   9.666   2.226  0.2174  0.4193 -0.3521
  104bbb    H17 3146  10.330   9.644   2.134 -0.8369  0.5786  0.2271
  104bbb    H18 3147  10.453   9.582   2.245  0.6480  0.8829  0.1970
  104bbb     O1 3148  10.075   9.514   2.835  0.2934  0.4365  0.6100
  104bbb    H19 3149  10.286   9.728   2.670 -0.6677  2.0069 -0.6212
  105bbb     N1 3150  10.071   8.679   2.920 -0.1895 -0.1758  0.7727
  105bbb     C1 3151  10.199   8.755   2.893 -0.5058  0.3936  0.4830
  105bbb     H1 3152  10.252   8.768   2.987 -0.0291  0.8054  0.1663
  105bbb     H2 3153  10.166   8.851   2.853 -2.9740 -0.0582  1.2362
  105bbb     C2 3154  10.108   8.590   3.033 -0.3664 -0.3183 -0.9625
  105bbb     H3 3155  10.159   8.646   3.112  1.2730 -1.7167 -0.9465
  105bbb     H4 3156  10.183   8.526   2.986 -1.2677 -1.6820 -0.6064
  105bbb     C3 3157   9.964   8.781   2.962  0.5466  0.5105  0.0146
  105bbb     H5 3158  10.001   8.822   3.056  1.5255 -1.9771  0.8283
  105bbb     H6 3159   9.877   8.718   2.981  1.3959 -0.7505 -0.0706
  105bbb     C4 3160   9.899   8.874   2.856  0.0709  0.1191 -0.1875
  105bbb     H7 3161   9.909   8.827   2.757  0.2887  0.0048 -0.1132
  105bbb     H8 3162   9.950   8.971   2.859  0.0284  0.1288  0.2755
  105bbb     C5 3163  10.288   8.694   2.782  0.4481 -0.4877  0.0383
  105bbb     H9 3164  10.241   8.702   2.683 -1.4004  0.4207  0.9435
  105bbb    H10 3165  10.283   8.587   2.808 -2.4302  0.0700  2.2370
  105bbb     C6 3166   9.997   8.503   3.092  0.6777 -0.4822 -0.4431
  105bbb    H11 3167   9.941   8.463   3.007  1.3169  0.8914 -1.5533
  105bbb    H12 3168   9.930   8.558   3.160 -1.2782 -3.0245 -0.1434
  105bbb     C7 3169   9.749   8.905   2.889 -0.2727 -0.7602 -0.2592
  105bbb    H13 3170   9.702   8.810   2.916 -2.6175 -0.3117 -2.3007
  105bbb    H14 3171   9.689   8.949   2.808 -0.9800 -0.5425  0.3703
  105bbb     C8 3172  10.051   8.386   3.169 -0.3145  0.0684 -0.3662
  105bbb    H15 3173   9.971   8.321   3.208  0.3574 -0.9734 -0.6790
  105bbb    H16 3174  10.092   8.324   3.089  1.0093  0.4223  0.0018
  105bbb     C9 3175  10.427   8.755   2.771  0.4225  0.2178 -0.1533
  105bbb    H17 3176  10.497   8.707   2.840  1.8728  1.9150 -0.3666
  105bbb    H18 3177  10.432   8.861   2.799 -1.6172  0.3571 -0.1539
  105bbb     O1 3178   9.740   9.000   2.998 -0.1422 -0.5031 -0.0216
  105bbb    H19 3179  10.046   8.618   2.841  0.1178 -2.0053  2.0306
  106bbb     N1 3180   9.457   7.893   4.216  0.1605  0.0360  0.3039
  106bbb     C1 3181   9.423   8.041   4.219 -0.0382 -0.4032  0.1644
  106bbb     H1 3182   9.439   8.081   4.319  0.5016  0.1625 -0.1436
  106bbb     H2 3183   9.318   8.055   4.194 -0.5218 -1.2128  1.6194
  106bbb     C2 3184   9.599   7.869   4.272  0.0759  0.0526  0.6491
  106bbb     H3 3185   9.662   7.905   4.191 -0.6644 -0.2670 -0.0940
  106bbb     H4 3186   9.604   7.760   4.273 -3.8028 -0.3532 -1.3110
  106bbb     C3 3187   9.364   7.813   4.311 -0.3785 -0.5215 -0.5594
  106bbb     H5 3188   9.388   7.845   4.412  1.8476  0.3755 -1.3103
  106bbb     H6 3189   9.396   7.709   4.303 -1.4183 -0.7836 -1.4966
  106bbb     C4 3190   9.213   7.832   4.286  0.3971  0.4466  0.7419
  106bbb     H7 3191   9.187   7.935   4.314  1.1963  0.8112  0.1740
  106bbb     H8 3192   9.159   7.770   4.358 -1.7851  1.1194 -0.2172
  106bbb     C5 3193   9.507   8.112   4.108 -0.1997 -0.6218  1.0646
  106bbb     H9 3194   9.511   8.051   4.018 -1.3201  2.5194 -1.3018
  106bbb    H10 3195   9.611   8.123   4.141  0.3204  1.4484 -1.0012
  106bbb     C6 3196   9.636   7.926   4.412  0.4863  0.2038  0.1862
  106bbb    H11 3197   9.573   7.876   4.486 -1.3823 -0.5284 -1.7586
  106bbb    H12 3198   9.616   8.034   4.412  0.7951  0.2618  0.3483
  106bbb     C7 3199   9.162   7.794   4.146 -0.1753  0.2086 -0.1341
  106bbb    H13 3200   9.057   7.766   4.155 -0.6182  1.1522 -1.8733
  106bbb    H14 3201   9.213   7.703   4.113 -0.6550 -0.4154  0.8108
  106bbb     C8 3202   9.784   7.909   4.460  0.3647 -0.9951  0.0984
  106bbb    H15 3203   9.841   7.936   4.370 -0.2526  0.9325  0.2282
  106bbb    H16 3204   9.802   7.982   4.540 -0.8746  0.0421 -0.5181
  106bbb     C9 3205   9.446   8.250   4.082 -0.3355 -0.5206  0.4718
  106bbb    H17 3206   9.446   8.308   4.175 -1.5506 -0.4490  0.4372
  106bbb    H18 3207   9.338   8.246   4.064 -0.2510  0.7373 -0.4361
  106bbb     O1 3208   9.177   7.914   4.067  0.2967 -0.2406  0.1675
  106bbb    H19 3209   9.451   7.861   4.118 -0.4335 -0.0856  0.3806
  107bbb     N1 3210   9.261   7.517   3.277  0.5014  0.0246  0.1700
  107bbb     C1 3211   9.195   7.532   3.139 -0.4394  0.2836  0.3882
  107bbb     H1 3212   9.275   7.560   3.070 -0.9576 -0.9760 -0.7772
  107bbb     H2 3213   9.128   7.618   3.140 -0.6148  0.2445 -2.1107
  107bbb     C2 3214   9.377   7.418   3.262  0.0962 -0.6095  0.3222
  107bbb     H3 3215   9.466   7.462   3.308 -0.9955 -1.0899  3.1068
  107bbb     H4 3216   9.401   7.392   3.159  0.1530 -0.5989  0.3321
  107bbb     C3 3217   9.317   7.651   3.322  0.0754  0.7450 -0.2256
  107bbb     H5 3218   9.409   7.670   3.267  1.3352  0.9566  1.8417
  107bbb     H6 3219   9.333   7.647   3.430 -1.2532  2.7453  0.0914
  107bbb     C4 3220   9.222   7.775   3.311 -0.2559 -0.3341  0.0853
  107bbb     H7 3221   9.138   7.752   3.378  0.2394 -0.2152  0.7609
  107bbb     H8 3222   9.186   7.791   3.208  0.1050 -0.6364 -0.0898
  107bbb     C5 3223   9.120   7.406   3.077 -0.0701  0.6232 -0.9015
  107bbb     H9 3224   9.038   7.382   3.146 -0.3017  2.6439 -0.4144
  107bbb    H10 3225   9.190   7.322   3.065 -0.9146 -0.6085  1.9363
  107bbb     C6 3226   9.353   7.283   3.332  0.0776 -0.7718  0.1840
  107bbb    H11 3227   9.245   7.265   3.332 -0.1700  0.4844 -1.4342
  107bbb    H12 3228   9.392   7.292   3.435 -0.3109 -0.0032  0.2693
  107bbb     C7 3229   9.296   7.900   3.365  0.1359 -0.8421 -0.3706
  107bbb    H13 3230   9.386   7.922   3.306 -0.1717 -1.5594 -1.1352
  107bbb    H14 3231   9.329   7.876   3.467 -2.4155 -2.7506  0.1110
  107bbb     C8 3232   9.414   7.166   3.257 -0.3705 -0.4888  0.6201
  107bbb    H15 3233   9.370   7.163   3.156 -1.0922  2.8759  0.7038
  107bbb    H16 3234   9.523   7.180   3.247 -0.1007 -1.5735  1.8834
  107bbb     C9 3235   9.054   7.453   2.947 -0.4354 -0.0338  0.6109
  107bbb    H17 3236   9.133   7.475   2.874 -0.2405 -1.0155  0.5089
  107bbb    H18 3237   9.000   7.547   2.963  2.2504  2.0600 -1.6032
  107bbb     O1 3238   9.200   8.016   3.357  0.5126  0.5815 -1.2470
  107bbb    H19 3239   9.188   7.483   3.341  0.3867  0.5395  0.3121
  108bbb     N1 3240   8.493   9.224   2.789  0.2144 -0.1499  0.5671
  108bbb     C1 3241   8.639   9.279   2.774 -0.1276  0.2630  0.3925
  108bbb     H1 3242   8.682   9.298   2.873  1.0967 -0.4207  0.0073
  108bbb     H2 3243   8.637   9.377   2.726  0.0153 -0.6905 -1.6563
  108bbb     C2 3244   8.420   9.218   2.652 -0.2055  0.0997 -0.3357
  108bbb     H3 3245   8.461   9.136   2.593 -1.0050 -1.0322  0.6563
  108bbb     H4 3246   8.436   9.321   2.618 -3.1968  1.0096  0.7439
  108bbb     C3 3247   8.494   9.086   2.856  0.2928  0.2173  0.3192
  108bbb     H5 3248   8.573   9.028   2.809 -1.0338 -0.4343 -1.1940
  108bbb     H6 3249   8.401   9.030   2.847  0.9228 -0.6842 -0.6921
  108bbb     C4 3250   8.529   9.100   3.005 -0.5739  0.1794  0.4576
  108bbb     H7 3251   8.464   9.179   3.045 -1.4123  1.1601 -2.6333
  108bbb     H8 3252   8.631   9.139   3.016  0.2360 -1.3476 -1.1238
  108bbb     C5 3253   8.731   9.190   2.692 -0.3023  0.1298  0.6363
  108bbb     H9 3254   8.684   9.180   2.594 -3.7823 -0.1735  2.1678
  108bbb    H10 3255   8.739   9.086   2.727 -0.0325  0.3087  1.1180
  108bbb     C6 3256   8.267   9.212   2.674 -0.5366  0.7233 -0.3130
  108bbb    H11 3257   8.243   9.119   2.727 -1.3207  0.7538 -0.6004
  108bbb    H12 3258   8.218   9.209   2.576 -2.0521  0.3735  0.4297
  108bbb     C7 3259   8.522   8.974   3.094  0.2176 -0.1713  0.3779
  108bbb    H13 3260   8.420   8.932   3.085 -0.0894  0.9076 -2.1612
  108bbb    H14 3261   8.543   9.010   3.195  0.0661  1.0754 -0.0232
  108bbb     C8 3262   8.210   9.315   2.773  0.4954 -0.4182 -0.1761
  108bbb    H15 3263   8.244   9.418   2.758 -1.2900  0.5259  1.6764
  108bbb    H16 3264   8.103   9.337   2.762  0.7438  0.9539 -0.0913
  108bbb     C9 3265   8.870   9.241   2.650 -0.6548  0.4680 -0.7781
  108bbb    H17 3266   8.917   9.168   2.583 -0.1024 -0.5298  0.6267
  108bbb    H18 3267   8.946   9.253   2.729 -3.3439 -1.7394  2.4323
  108bbb     O1 3268   8.620   8.871   3.078 -0.1571  0.0580 -0.9112
  108bbb    H19 3269   8.441   9.286   2.853 -0.7942  0.5272 -0.8795
  109bbb     N1 3270   9.153   8.382   2.940 -0.6429  0.0492  0.4514
  109bbb     C1 3271   9.186   8.249   3.014  0.1317 -0.0337  0.2644
  109bbb     H1 3272   9.105   8.182   2.985 -0.5721 -0.3562  2.7822
  109bbb     H2 3273   9.172   8.281   3.117 -0.7585  0.7751 -0.0956
  109bbb     C2 3274   9.017   8.369   2.878 -0.9327  0.6631  0.0624
  109bbb     H3 3275   8.944   8.353   2.958  0.7902  0.1285  1.6166
  109bbb     H4 3276   9.032   8.271   2.832  3.4415  0.2275  1.9266
  109bbb     C3 3277   9.135   8.498   3.038 -0.7435 -0.0937 -0.1587
  109bbb     H5 3278   9.056   8.479   3.110  0.3961 -1.7894  0.7269
  109bbb     H6 3279   9.096   8.581   2.979  1.3470  1.7989  0.9528
  109bbb     C4 3280   9.270   8.548   3.096  0.4015  0.0423  0.0650
  109bbb     H7 3281   9.341   8.562   3.014 -0.1733 -0.4064 -0.5161
  109bbb     H8 3282   9.311   8.480   3.172 -1.7345 -0.1775  1.1074
  109bbb     C5 3283   9.324   8.185   2.992  0.3752  0.0231  0.0801
  109bbb     H9 3284   9.347   8.113   3.072  0.9503 -0.7771 -0.7906
  109bbb    H10 3285   9.405   8.260   2.996  1.8756 -1.5624  0.9913
  109bbb     C6 3286   8.965   8.475   2.778 -0.2450 -0.0699  0.2939
  109bbb    H11 3287   9.032   8.482   2.691 -0.7851 -1.0700 -0.2206
  109bbb    H12 3288   8.975   8.578   2.815  2.2556 -0.0877 -0.1586
  109bbb     C7 3289   9.244   8.680   3.173  0.4857  0.1160  0.0024
  109bbb    H13 3290   9.231   8.763   3.103  1.7786  0.4530  0.1437
  109bbb    H14 3291   9.329   8.689   3.242 -1.3010 -1.2385  2.5339
  109bbb     C8 3292   8.822   8.438   2.738  0.5785  0.3821  0.0896
  109bbb    H15 3293   8.830   8.352   2.671  2.0346  2.0082 -1.9601
  109bbb    H16 3294   8.773   8.400   2.829  0.8267 -0.3332 -0.0690
  109bbb     C9 3295   9.334   8.117   2.853  0.0180 -0.1482 -0.0077
  109bbb    H17 3296   9.305   8.194   2.780  0.5097 -1.2350 -1.3903
  109bbb    H18 3297   9.262   8.035   2.846 -0.3071  0.1337 -0.0118
  109bbb     O1 3298   9.118   8.685   3.248  0.3401 -0.3294 -0.4872
  109bbb    H19 3299   9.225   8.401   2.869 -1.1933 -1.8692 -0.6798
  110bbb     N1 3300   5.825  12.387   3.572  0.0245  0.0942 -0.2818
  110bbb     C1 3301   5.884  12.450   3.450 -0.5768  0.5220 -0.1536
  110bbb     H1 3302   5.892  12.374   3.373 -1.0429 -0.9875  1.2372
  110bbb     H2 3303   5.985  12.482   3.478 -0.2425 -0.3092 -0.3787
  110bbb     C2 3304   5.837  12.489   3.683 -0.1677  0.4996 -0.8173
  110bbb     H3 3305   5.762  12.567   3.667 -0.6400  0.1307 -0.4158
  110bbb     H4 3306   5.941  12.519   3.692  0.3553 -1.4137 -0.0258
  110bbb     C3 3307   5.677  12.350   3.553  0.2999 -0.1885  0.1788
  110bbb     H5 3308   5.635  12.440   3.508  1.0284  0.0707 -0.0082
  110bbb     H6 3309   5.624  12.336   3.647  0.6313 -2.7547  0.0520
  110bbb     C4 3310   5.650  12.233   3.446  0.3611 -0.1048 -0.5722
  110bbb     H7 3311   5.707  12.144   3.474  0.7471 -0.0302 -1.1091
  110bbb     H8 3312   5.692  12.264   3.350 -1.0512  0.0737 -1.1590
  110bbb     C5 3313   5.811  12.573   3.399  0.2833 -0.1838 -0.6956
  110bbb     H9 3314   5.806  12.651   3.476  1.1885  0.4521 -1.2643
  110bbb    H10 3315   5.709  12.553   3.364  0.6857 -0.5918 -1.6713
  110bbb     C6 3316   5.791  12.442   3.822  0.2421  0.2700  0.3768
  110bbb    H11 3317   5.816  12.339   3.853  1.0064  0.4915  0.5222
  110bbb    H12 3318   5.682  12.441   3.824  0.2257  0.9000  2.6166
  110bbb     C7 3319   5.496  12.208   3.423  0.1506 -0.6891  0.2735
  110bbb    H13 3320   5.462  12.282   3.349 -1.8550 -1.3696  0.4657
  110bbb    H14 3321   5.437  12.236   3.511  1.9586  3.0938  0.5125
  110bbb     C8 3322   5.843  12.537   3.936 -0.1560  0.0080  0.0210
  110bbb    H15 3323   5.795  12.633   3.916 -3.7487 -1.8240 -1.0406
  110bbb    H16 3324   5.806  12.506   4.034  0.2575 -1.3886 -0.2432
  110bbb     C9 3325   5.887  12.644   3.277 -0.8294 -0.3783 -0.8794
  110bbb    H17 3326   5.851  12.747   3.271  1.1126  0.5318  1.4636
  110bbb    H18 3327   5.877  12.582   3.187  0.0337  1.8302 -2.5758
  110bbb     O1 3328   5.471  12.071   3.379 -0.4177  0.4353  0.0352
  110bbb    H19 3329   5.886  12.308   3.598  0.8864  0.8515  0.0678
  111bbb     N1 3330   5.155  11.899   2.807 -0.1308 -0.0676  0.1012
  111bbb     C1 3331   5.223  11.837   2.680 -0.2519 -0.0094 -0.0443
  111bbb     H1 3332   5.146  11.816   2.606  0.4019 -2.7716 -0.0555
  111bbb     H2 3333   5.275  11.743   2.705 -1.0391  0.2751  3.1184
  111bbb     C2 3334   5.045  12.007   2.773  0.0890  0.1106 -0.0931
  111bbb     H3 3335   5.084  12.090   2.714 -0.0952  1.3054  1.4166
  111bbb     H4 3336   5.015  12.050   2.868  2.1668  0.6116  0.3810
  111bbb     C3 3337   5.111  11.802   2.921 -0.0437 -1.1266 -0.0066
  111bbb     H5 3338   5.013  11.761   2.897 -0.4512  0.8281 -2.1000
  111bbb     H6 3339   5.090  11.867   3.006  0.4067  0.4074 -1.0209
  111bbb     C4 3340   5.194  11.684   2.952  0.2065  0.4498 -0.1350
  111bbb     H7 3341   5.291  11.702   3.000 -0.6454 -0.7662  2.2157
  111bbb     H8 3342   5.218  11.631   2.859 -0.5656 -0.8133  0.3606
  111bbb     C5 3343   5.329  11.923   2.610 -0.1629  0.3308  0.0600
  111bbb     H9 3344   5.410  11.942   2.681  1.4524 -3.2834 -0.5827
  111bbb    H10 3345   5.288  12.021   2.582  0.5020  0.3387 -0.9214
  111bbb     C6 3346   4.925  11.960   2.684 -0.1212 -0.4078 -0.5533
  111bbb    H11 3347   4.900  11.857   2.713  2.0832 -0.7433  0.3638
  111bbb    H12 3348   4.955  11.960   2.579  0.1606 -0.7013 -0.4744
  111bbb     C7 3349   5.107  11.589   3.046 -0.4497 -0.3442 -1.0435
  111bbb    H13 3350   5.158  11.492   3.038  0.0026 -0.0610 -1.7215
  111bbb    H14 3351   5.011  11.570   2.997  0.3478  0.5653 -3.0986
  111bbb     C8 3352   4.806  12.044   2.702 -0.0371 -1.1055  0.1099
  111bbb    H15 3353   4.724  12.009   2.637 -0.4561  1.0622 -0.6195
  111bbb    H16 3354   4.758  12.043   2.801 -2.8477 -0.7973 -1.1315
  111bbb     C9 3355   5.393  11.860   2.483 -0.0386  0.0504  0.8218
  111bbb    H17 3356   5.431  11.941   2.420 -2.4069  1.8267  1.4998
  111bbb    H18 3357   5.307  11.809   2.438 -2.3089  2.0293  2.6200
  111bbb     O1 3358   5.091  11.639   3.176 -0.1270 -0.4367  0.2513
  111bbb    H19 3359   5.230  11.951   2.854 -2.5729  1.0815  3.0064
  112bbb     N1 3360   4.450  12.090   3.704 -0.4017 -0.5324 -0.5949
  112bbb     C1 3361   4.415  12.236   3.728  0.3285 -0.3507  0.5632
  112bbb     H1 3362   4.318  12.256   3.682  0.1032  1.1712  1.6058
  112bbb     H2 3363   4.491  12.306   3.692 -0.9178  0.0937 -1.3803
  112bbb     C2 3364   4.385  12.035   3.581  0.1478 -0.5991  0.1148
  112bbb     H3 3365   4.281  12.068   3.584  0.2373 -0.2087 -0.9082
  112bbb     H4 3366   4.380  11.927   3.596  1.3633 -0.9054 -1.4193
  112bbb     C3 3367   4.599  12.054   3.722 -0.1415  0.4820  0.7302
  112bbb     H5 3368   4.610  12.117   3.810 -3.7474 -0.0027  1.7026
  112bbb     H6 3369   4.665  12.078   3.638 -1.6345 -0.2588 -0.7264
  112bbb     C4 3370   4.619  11.916   3.777 -0.8965 -0.2426 -0.4173
  112bbb     H7 3371   4.562  11.843   3.719 -0.3848 -1.4200  0.5118
  112bbb     H8 3372   4.585  11.912   3.881 -0.2881  2.9523  0.0033
  112bbb     C5 3373   4.377  12.257   3.880 -0.3101 -0.1952 -0.1400
  112bbb     H9 3374   4.463  12.224   3.941 -0.3867  0.5563  0.3945
  112bbb    H10 3375   4.295  12.191   3.912  0.6512 -1.0712  0.6126
  112bbb     C6 3376   4.450  12.074   3.439  1.2546 -0.3313 -0.2823
  112bbb    H11 3377   4.541  12.014   3.424  0.6167 -1.0363 -1.5403
  112bbb    H12 3378   4.477  12.179   3.451  0.9498 -0.1485 -1.1246
  112bbb     C7 3379   4.766  11.858   3.767  0.2210 -0.1990 -0.0290
  112bbb    H13 3380   4.805  11.883   3.668 -1.4758 -2.8333 -1.4726
  112bbb    H14 3381   4.765  11.748   3.773 -2.2055 -0.1526  4.0089
  112bbb     C8 3382   4.352  12.066   3.320  0.5750 -0.3831 -0.3834
  112bbb    H15 3383   4.342  11.962   3.286  1.9702 -0.3074 -1.0890
  112bbb    H16 3384   4.253  12.104   3.348 -0.0510 -1.7005 -0.7214
  112bbb     C9 3385   4.342  12.399   3.921  0.1715 -1.0766  0.0296
  112bbb    H17 3386   4.413  12.469   3.874 -0.9985 -0.9311 -1.5963
  112bbb    H18 3387   4.363  12.405   4.028  1.5515 -0.8952 -0.2339
  112bbb     O1 3388   4.853  11.905   3.877 -0.0388 -0.5760  0.2932
  112bbb    H19 3389   4.404  12.039   3.781 -1.6853  0.5162 -0.6411
  113bbb     N1 3390   5.050  12.139   4.882 -0.0646 -0.2871  0.4182
  113bbb     C1 3391   4.981  12.048   4.981  0.5404 -0.7612  0.1626
  113bbb     H1 3392   4.917  11.990   4.915  2.6884 -0.5406 -2.2774
  113bbb     H2 3393   4.920  12.106   5.050  0.5862 -0.7936  0.2315
  113bbb     C2 3394   5.165  12.209   4.942  0.1676  1.2869 -0.3759
  113bbb     H3 3395   5.234  12.127   4.961 -1.1222  0.1019 -0.6352
  113bbb     H4 3396   5.125  12.250   5.035 -0.2612  2.3018 -0.9901
  113bbb     C3 3397   5.104  12.058   4.767 -1.0404  0.5401  1.4917
  113bbb     H5 3398   5.186  11.995   4.801  1.9654  3.0409 -0.5530
  113bbb     H6 3399   5.154  12.124   4.696  0.8042 -0.7344  1.5324
  113bbb     C4 3400   4.999  11.989   4.674 -0.9145  0.4398  0.3658
  113bbb     H7 3401   4.930  12.068   4.642 -1.6867  0.3420  1.7211
  113bbb     H8 3402   4.946  11.909   4.726 -0.1975 -1.0991 -1.1895
  113bbb     C5 3403   5.076  11.955   5.068 -0.0239  0.2534 -0.5029
  113bbb     H9 3404   5.132  12.015   5.141 -0.8105  1.4821 -0.8801
  113bbb    H10 3405   5.149  11.917   4.995 -0.5771 -0.9093 -0.4800
  113bbb     C6 3406   5.234  12.327   4.864  0.0683 -0.6556  0.0290
  113bbb    H11 3407   5.238  12.313   4.755 -0.4608  3.2155 -0.6490
  113bbb    H12 3408   5.336  12.330   4.904  1.1286 -1.8150 -2.3775
  113bbb     C7 3409   5.058  11.932   4.539  0.6059  0.1370 -0.6569
  113bbb    H13 3410   4.995  11.849   4.503  1.2330 -0.4289 -0.4583
  113bbb    H14 3411   5.151  11.881   4.564 -0.7303 -1.1069  2.2363
  113bbb     C8 3412   5.157  12.460   4.880 -0.6202  0.0960  0.3435
  113bbb    H15 3413   5.143  12.485   4.986 -0.5311  0.3651  0.2944
  113bbb    H16 3414   5.217  12.539   4.833 -0.0295  0.4516  1.6369
  113bbb     C9 3415   5.007  11.831   5.120  0.2463  0.7045  0.2510
  113bbb    H17 3416   5.074  11.781   5.191  0.5992  1.6825  0.6323
  113bbb    H18 3417   4.976  11.767   5.036 -1.9973  2.1092 -0.0812
  113bbb     O1 3418   5.067  12.035   4.439  0.5789  0.4568  0.3091
  113bbb    H19 3419   4.977  12.206   4.854 -0.8233 -1.1737  0.2129
  114bbb     N1 3420   5.115   9.464   5.254 -1.0208  0.0744 -0.0987
  114bbb     C1 3421   5.126   9.330   5.309 -0.5379  0.8724  0.0947
  114bbb     H1 3422   5.024   9.290   5.314 -0.0333 -0.2574  3.1990
  114bbb     H2 3423   5.156   9.353   5.411 -2.2491  1.9102  0.4104
  114bbb     C2 3424   4.975   9.516   5.267  0.6843  0.2726  0.5089
  114bbb     H3 3425   4.974   9.624   5.253 -1.5614  0.4827  1.8371
  114bbb     H4 3426   4.946   9.496   5.370 -2.5334  0.0216 -0.3290
  114bbb     C3 3427   5.205   9.563   5.333 -0.1163  0.2003 -0.0467
  114bbb     H5 3428   5.195   9.664   5.295 -0.0961 -0.0955 -0.8656
  114bbb     H6 3429   5.306   9.540   5.298  0.2315  1.0976  0.3525
  114bbb     C4 3430   5.211   9.565   5.478 -0.6472 -0.1745  0.7395
  114bbb     H7 3431   5.265   9.479   5.520  2.2939  0.9728 -0.4406
  114bbb     H8 3432   5.107   9.571   5.514 -0.8355  0.9192  0.0462
  114bbb     C5 3433   5.222   9.229   5.238 -0.2225 -0.6390  0.9305
  114bbb     H9 3434   5.233   9.139   5.299 -0.5839 -0.6616  0.9660
  114bbb    H10 3435   5.323   9.271   5.226 -0.5356  0.7381  2.5577
  114bbb     C6 3436   4.870   9.446   5.178  0.4232  0.8165  0.1243
  114bbb    H11 3437   4.864   9.336   5.181 -0.7403  0.8419 -0.5631
  114bbb    H12 3438   4.893   9.461   5.071  2.7915  2.3728  0.7755
  114bbb     C7 3439   5.301   9.686   5.526  0.1480  0.1475  0.3802
  114bbb    H13 3440   5.407   9.660   5.518 -0.1971 -1.0747 -0.7030
  114bbb    H14 3441   5.276   9.711   5.630 -0.7568 -1.1252  0.4932
  114bbb     C8 3442   4.726   9.495   5.197 -0.4260  0.2387 -0.1961
  114bbb    H15 3443   4.719   9.600   5.166 -0.4626  0.2579 -0.1234
  114bbb    H16 3444   4.653   9.436   5.140 -1.8085  1.0922  0.6233
  114bbb     C9 3445   5.160   9.180   5.105 -0.4827 -0.0046 -0.2367
  114bbb    H17 3446   5.071   9.118   5.120 -0.7848  0.5520  0.2847
  114bbb    H18 3447   5.236   9.120   5.052 -2.5772 -1.0950 -2.2040
  114bbb     O1 3448   5.276   9.810   5.443 -0.8510  0.1533 -0.3178
  114bbb    H19 3449   5.143   9.458   5.155 -0.0062 -0.5888  0.2064
  115bbb     N1 3450   5.614  10.481   5.520  0.5552 -0.0458  0.5392
  115bbb     C1 3451   5.664  10.625   5.532 -0.2980  0.9506  0.3578
  115bbb     H1 3452   5.597  10.662   5.610  0.0551  0.5908  0.8380
  115bbb     H2 3453   5.643  10.681   5.441  2.2555 -1.2727 -1.7806
  115bbb     C2 3454   5.625  10.401   5.656 -0.0477  0.1247  0.6553
  115bbb     H3 3455   5.572  10.460   5.731  0.4080  0.3272  0.8214
  115bbb     H4 3456   5.732  10.409   5.675  0.1048  0.5495 -0.2940
  115bbb     C3 3457   5.468  10.469   5.468 -0.1906 -0.3546  1.5285
  115bbb     H5 3458   5.442  10.378   5.414 -0.3410  1.9635 -2.7109
  115bbb     H6 3459   5.477  10.543   5.388  0.2378 -0.0236  1.8808
  115bbb     C4 3460   5.344  10.494   5.557 -0.6519 -0.0140 -0.7905
  115bbb     H7 3461   5.379  10.578   5.618  0.4920  1.3556 -3.2032
  115bbb     H8 3462   5.328  10.403   5.615 -1.6331  0.0253 -0.9748
  115bbb     C5 3463   5.810  10.640   5.565 -0.0568  0.3366 -0.5653
  115bbb     H9 3464   5.863  10.596   5.479  3.2246 -0.7199  1.7607
  115bbb    H10 3465   5.849  10.587   5.653 -0.1202  0.2014 -0.6167
  115bbb     C6 3466   5.581  10.257   5.655  0.4521 -0.1206 -0.4126
  115bbb    H11 3467   5.618  10.209   5.564  0.2683 -1.2589  0.0935
  115bbb    H12 3468   5.473  10.238   5.660  0.5984 -1.1689 -1.0263
  115bbb     C7 3469   5.211  10.520   5.485 -0.6863  0.0661  0.4981
  115bbb    H13 3470   5.218  10.616   5.433  1.1835  0.6728  1.7632
  115bbb    H14 3471   5.141  10.533   5.568 -2.0871  0.0319 -0.6487
  115bbb     C8 3472   5.651  10.188   5.769 -0.4850  0.1455 -0.2542
  115bbb    H15 3473   5.760  10.191   5.761 -0.4528 -0.1896  0.0247
  115bbb    H16 3474   5.628  10.243   5.861  0.8955 -1.1041  0.8994
  115bbb     C9 3475   5.844  10.787   5.578  0.5395 -0.9983 -0.8583
  115bbb    H17 3476   5.820  10.853   5.494  0.5685  2.4511  1.6407
  115bbb    H18 3477   5.949  10.813   5.594  0.0526 -0.6248  2.4352
  115bbb     O1 3478   5.171  10.417   5.396 -0.4005  0.1240  0.2939
  115bbb    H19 3479   5.678  10.438   5.452  2.4285  2.2884  0.7035
  116bbb     N1 3480   4.059  10.279   3.628  0.5376 -0.0009  0.1186
  116bbb     C1 3481   3.926  10.332   3.574 -0.4172  0.1771  0.2307
  116bbb     H1 3482   3.919  10.439   3.592 -2.1703 -0.1155  1.5786
  116bbb     H2 3483   3.842  10.295   3.632 -1.2690  0.3083 -0.8764
  116bbb     C2 3484   4.040  10.127   3.636 -0.1660  0.5596 -0.2409
  116bbb     H3 3485   4.106  10.070   3.570 -1.3094  0.5052 -1.3580
  116bbb     H4 3486   3.937  10.106   3.607  0.4681 -1.5051 -1.1884
  116bbb     C3 3487   4.180  10.296   3.541  0.0579 -0.4781  0.4287
  116bbb     H5 3488   4.152  10.266   3.440 -0.9381  1.0025  0.2170
  116bbb     H6 3489   4.264  10.238   3.578  0.0392 -0.7713  0.0104
  116bbb     C4 3490   4.242  10.445   3.533  0.3094  0.0543 -1.1322
  116bbb     H7 3491   4.182  10.510   3.468 -2.2738 -0.6394  0.4165
  116bbb     H8 3492   4.344  10.427   3.498  0.5490 -0.8777 -0.0269
  116bbb     C5 3493   3.908  10.308   3.423 -0.1716  0.1985  0.9958
  116bbb     H9 3494   3.915  10.201   3.397 -1.0779  0.6477 -1.3697
  116bbb    H10 3495   3.989  10.361   3.371  0.2321 -1.8353 -0.6237
  116bbb     C6 3496   4.059  10.065   3.774 -0.1093 -0.7500 -0.5136
  116bbb    H11 3497   3.974  10.103   3.832  1.2673  4.0926 -1.2159
  116bbb    H12 3498   4.153  10.101   3.819 -1.2123 -0.7249  1.9607
  116bbb     C7 3499   4.247  10.509   3.673  0.3134 -0.2442  0.9073
  116bbb    H13 3500   4.147  10.546   3.701 -0.0820 -0.9102  0.3783
  116bbb    H14 3501   4.307  10.601   3.670  0.5665 -0.3995  1.2179
  116bbb     C8 3502   4.057   9.914   3.771 -0.6078 -0.3092 -0.4629
  116bbb    H15 3503   3.995   9.872   3.692  1.6115  0.8165 -2.9585
  116bbb    H16 3504   4.160   9.885   3.745  0.4327  1.6331  1.1764
  116bbb     C9 3505   3.777  10.366   3.384  0.4696  0.9093  0.1033
  116bbb    H17 3506   3.693  10.318   3.435 -1.0036  0.6703 -2.3599
  116bbb    H18 3507   3.752  10.350   3.278  1.6901 -0.7281  0.0237
  116bbb     O1 3508   4.310  10.426   3.760 -0.0249  0.1832  0.1643
  116bbb    H19 3509   4.075  10.304   3.726  0.3586  3.0761 -0.5358
  117bbb     N1 3510   4.580   9.907   3.321  0.0542  1.2100 -0.5341
  117bbb     C1 3511   4.703   9.978   3.264 -0.5250  0.6245 -0.0926
  117bbb     H1 3512   4.688  10.086   3.272 -0.9699  0.4861  1.0972
  117bbb     H2 3513   4.705   9.952   3.158 -0.0955  1.3423 -0.2677
  117bbb     C2 3514   4.456   9.953   3.244 -0.4301 -0.3255  0.1464
  117bbb     H3 3515   4.372   9.895   3.283  0.3260 -0.6989  1.2799
  117bbb     H4 3516   4.464   9.930   3.138 -0.2148 -0.4847  0.1972
  117bbb     C3 3517   4.591   9.758   3.306  0.0594  0.1273  0.1255
  117bbb     H5 3518   4.690   9.719   3.329 -1.2104 -1.7900  2.9938
  117bbb     H6 3519   4.562   9.728   3.204  1.2027 -0.8927  0.0684
  117bbb     C4 3520   4.501   9.682   3.408 -0.7371  0.0717 -0.4119
  117bbb     H7 3521   4.522   9.575   3.395 -1.0590 -0.0216 -0.1825
  117bbb     H8 3522   4.396   9.697   3.380 -0.6197  0.4672 -0.6500
  117bbb     C5 3523   4.839   9.948   3.328  0.2147  0.0515 -0.1939
  117bbb     H9 3524   4.856   9.840   3.328 -0.4308 -0.0490 -0.1591
  117bbb    H10 3525   4.844   9.972   3.435  1.6547  0.9565 -0.4189
  117bbb     C6 3526   4.406  10.102   3.265  0.3907 -0.0655  0.3709
  117bbb    H11 3527   4.464  10.174   3.206  1.1308  0.0891  1.2642
  117bbb    H12 3528   4.427  10.134   3.367  0.9478 -1.4786  0.7266
  117bbb     C7 3529   4.527   9.713   3.556  0.1855  0.0239 -0.3448
  117bbb    H13 3530   4.632   9.711   3.588 -0.8460 -0.4748  3.5237
  117bbb    H14 3531   4.470   9.643   3.618  1.8441 -0.4523  0.7096
  117bbb     C8 3532   4.257  10.118   3.227 -0.0823 -0.4240 -0.3394
  117bbb    H15 3533   4.215  10.216   3.253  0.0631 -0.1081 -1.2655
  117bbb    H16 3534   4.246  10.105   3.119 -0.1013 -1.1448 -0.2556
  117bbb     C9 3535   4.958  10.022   3.262  0.3926  0.1974 -0.4641
  117bbb    H17 3536   5.045   9.977   3.311  0.8460  1.4634 -0.0669
  117bbb    H18 3537   4.960  10.127   3.292  0.6026  0.6098 -1.8600
  117bbb     O1 3538   4.478   9.849   3.584  0.3634 -0.1033  0.4730
  117bbb    H19 3539   4.574   9.923   3.422  0.5457 -0.6493 -0.1631
  118bbb     N1 3540   8.575  11.826   6.693  0.5384  0.0794  0.1383
  118bbb     C1 3541   8.677  11.887   6.793  0.4001  0.3475  0.5907
  118bbb     H1 3542   8.676  11.995   6.809  3.5519  0.7174 -1.0650
  118bbb     H2 3543   8.776  11.867   6.753  0.0172 -0.0332 -0.1941
  118bbb     C2 3544   8.595  11.674   6.671  0.0341 -0.5752  0.1313
  118bbb     H3 3545   8.499  11.625   6.689 -0.5302  0.8993  1.3471
  118bbb     H4 3546   8.658  11.636   6.752  1.7024  1.1455 -0.2746
  118bbb     C3 3547   8.439  11.858   6.750  0.2655 -0.4623 -0.4279
  118bbb     H5 3548   8.436  11.963   6.779 -0.6071  0.3445 -3.1079
  118bbb     H6 3549   8.425  11.789   6.833 -0.9042  0.0056 -0.2068
  118bbb     C4 3550   8.316  11.836   6.649 -0.2873 -0.5163 -0.5271
  118bbb     H7 3551   8.289  11.730   6.653 -2.3716  0.0132  0.9333
  118bbb     H8 3552   8.345  11.862   6.546 -0.7139  2.4473  0.0052
  118bbb     C5 3553   8.666  11.831   6.938  0.3626 -0.4769 -0.2607
  118bbb     H9 3554   8.679  11.723   6.926 -0.4970 -0.5032 -1.1422
  118bbb    H10 3555   8.572  11.851   6.991  0.9550 -0.0935  0.6579
  118bbb     C6 3556   8.664  11.629   6.544 -0.5585 -0.6156 -0.0427
  118bbb    H11 3557   8.674  11.520   6.552 -3.1919 -1.1267 -2.2079
  118bbb    H12 3558   8.768  11.666   6.542 -0.4680 -0.8321  0.4863
  118bbb     C7 3559   8.204  11.928   6.686  0.2153  0.2224  0.2550
  118bbb    H13 3560   8.161  11.909   6.785 -0.4266 -0.3812 -0.1258
  118bbb    H14 3561   8.126  11.906   6.612 -0.8138 -0.7407  1.5713
  118bbb     C8 3562   8.582  11.681   6.420 -0.6618  0.1313 -0.5933
  118bbb    H15 3563   8.567  11.790   6.416  2.2056  0.6015 -0.6664
  118bbb    H16 3564   8.637  11.642   6.333  2.4894  0.7256  0.9691
  118bbb     C9 3565   8.788  11.865   7.020  0.7038 -0.6147  0.1955
  118bbb    H17 3566   8.797  11.974   7.025 -0.3712 -0.5823  2.5066
  118bbb    H18 3567   8.875  11.825   6.965  0.1208 -2.7815  0.7490
  118bbb     O1 3568   8.245  12.068   6.684 -0.6962  0.1408  0.3917
  118bbb    H19 3569   8.586  11.880   6.606  0.8733  0.6921  0.5554
  119bbb     N1 3570   8.525  12.716   6.099 -0.0812  0.8367  0.2892
  119bbb     C1 3571   8.577  12.728   5.960 -0.4439 -0.6338  0.2723
  119bbb     H1 3572   8.495  12.777   5.907  0.0880  1.7963  1.5866
  119bbb     H2 3573   8.594  12.629   5.916  0.0864 -0.9908  1.2335
  119bbb     C2 3574   8.412  12.813   6.130  0.1331  1.5090  0.4644
  119bbb     H3 3575   8.358  12.785   6.221  0.2158  0.5604  0.2347
  119bbb     H4 3576   8.336  12.783   6.058  0.0459 -0.8344  1.4225
  119bbb     C3 3577   8.472  12.569   6.128  0.1619 -0.0973 -0.0958
  119bbb     H5 3578   8.424  12.571   6.226  1.4902  1.5235  0.5650
  119bbb     H6 3579   8.557  12.502   6.138 -0.7256 -1.5660 -1.8820
  119bbb     C4 3580   8.378  12.514   6.023 -0.1305  0.6029  0.5373
  119bbb     H7 3581   8.426  12.493   5.926 -2.4592  1.7211 -0.9484
  119bbb     H8 3582   8.297  12.584   5.999 -0.7473  0.1710  1.2985
  119bbb     C5 3583   8.706  12.816   5.937  0.3570  0.2744  0.0087
  119bbb     H9 3584   8.690  12.922   5.956 -0.0199  0.1956  0.1387
  119bbb    H10 3585   8.730  12.808   5.830  0.1355 -0.5721  0.0132
  119bbb     C6 3586   8.443  12.959   6.127  0.5734  0.1811  0.2390
  119bbb    H11 3587   8.346  13.010   6.131  1.0223  1.1177 -0.4401
  119bbb    H12 3588   8.497  12.994   6.037  0.1781  3.3521  1.1191
  119bbb     C7 3589   8.308  12.386   6.075  0.7470 -0.4908 -0.1094
  119bbb    H13 3590   8.390  12.316   6.094  0.9281 -0.0939  0.5892
  119bbb    H14 3591   8.236  12.351   6.000  1.1599 -0.8694 -0.3295
  119bbb     C8 3592   8.522  13.000   6.256  0.0974  0.4757 -0.1689
  119bbb    H15 3593   8.462  12.999   6.348 -0.0264  1.7599 -0.2194
  119bbb    H16 3594   8.609  12.936   6.271 -0.7152 -0.3079  1.4947
  119bbb     C9 3595   8.817  12.760   6.034  0.0319 -0.0011  0.1191
  119bbb    H17 3596   8.908  12.818   6.017  0.0497 -0.1698 -0.3703
  119bbb    H18 3597   8.850  12.659   6.007  1.4077  0.6467 -0.7417
  119bbb     O1 3598   8.237  12.415   6.206 -0.3703  0.8341  0.4588
  119bbb    H19 3599   8.601  12.738   6.164 -2.0324  0.2893  2.9394
  120bbb     N1 3600   7.686  12.010   7.234  0.4361  0.2333  0.2591
  120bbb     C1 3601   7.594  12.019   7.358 -0.1725 -0.6758 -0.1831
  120bbb     H1 3602   7.488  12.027   7.332 -0.0377  0.8396 -0.3127
  120bbb     H2 3603   7.614  12.114   7.408 -1.2170 -0.1988 -0.6439
  120bbb     C2 3604   7.628  11.908   7.140 -0.6356  0.5507  0.2265
  120bbb     H3 3605   7.543  11.967   7.104  0.1612  2.6187  1.5710
  120bbb     H4 3606   7.594  11.818   7.190 -0.5960 -0.4333 -1.4312
  120bbb     C3 3607   7.692  12.151   7.167 -0.0284 -0.7945 -0.5594
  120bbb     H5 3608   7.591  12.191   7.154  0.7496  1.6207  0.1850
  120bbb     H6 3609   7.724  12.135   7.064  0.8073  3.3318 -1.1291
  120bbb     C4 3610   7.781  12.264   7.234 -0.6072  0.2403 -0.0564
  120bbb     H7 3611   7.882  12.226   7.218 -0.6364 -0.3153  0.9625
  120bbb     H8 3612   7.773  12.265   7.344  1.4515  0.5521  0.1237
  120bbb     C5 3613   7.602  11.913   7.467  0.5743 -0.2415  0.0115
  120bbb     H9 3614   7.569  11.815   7.432  0.3791 -0.0586 -0.3253
  120bbb    H10 3615   7.525  11.941   7.541  0.2579 -1.2378  0.0666
  120bbb     C6 3616   7.710  11.873   7.016  0.7146  0.8452  0.1820
  120bbb    H11 3617   7.804  11.821   7.036 -0.2933 -2.3251 -2.3178
  120bbb    H12 3618   7.739  11.960   6.954  1.9857 -1.5009 -2.7996
  120bbb     C7 3619   7.762  12.411   7.189 -0.4527  0.8625 -0.5053
  120bbb    H13 3620   7.837  12.431   7.112 -0.1920 -0.1752 -0.5402
  120bbb    H14 3621   7.774  12.470   7.281 -0.3075 -0.9344  0.6769
  120bbb     C8 3622   7.631  11.773   6.928 -0.5965 -0.2359 -0.0229
  120bbb    H15 3623   7.629  11.678   6.983 -1.4982  1.0163  2.2335
  120bbb    H16 3624   7.529  11.807   6.907 -0.6582 -0.1690  0.3698
  120bbb     C9 3625   7.739  11.909   7.535 -0.3439  0.0215 -0.1904
  120bbb    H17 3626   7.726  11.819   7.597 -3.8704  0.4517 -0.0802
  120bbb    H18 3627   7.750  11.998   7.598 -1.9860 -0.6452  1.1367
  120bbb     O1 3628   7.629  12.428   7.142  0.2816  0.5183  0.3052
  120bbb    H19 3629   7.781  11.981   7.261 -0.0035 -1.8785 -0.2893
  121bbb     N1 3630   7.386  12.711   7.758  0.0356  0.2006 -0.3097
  121bbb     C1 3631   7.320  12.796   7.867  1.1366  0.0261  0.1903
  121bbb     H1 3632   7.389  12.875   7.899 -2.1135  3.2654 -0.1585
  121bbb     H2 3633   7.283  12.741   7.953  1.6871 -1.0761 -0.2562
  121bbb     C2 3634   7.501  12.632   7.815 -0.2830 -0.0356  0.2517
  121bbb     H3 3635   7.492  12.530   7.777  1.2855  0.3290 -1.2186
  121bbb     H4 3636   7.487  12.629   7.923  1.6941  1.3700  0.5881
  121bbb     C3 3637   7.282  12.617   7.700 -0.0130 -0.1710 -0.4354
  121bbb     H5 3638   7.179  12.654   7.707 -0.4945 -1.3062 -1.2911
  121bbb     H6 3639   7.288  12.532   7.767 -1.4913  1.9023  2.5993
  121bbb     C4 3640   7.305  12.579   7.551  0.6481 -0.7466 -0.0359
  121bbb     H7 3641   7.389  12.508   7.551  1.3238  0.0248  0.8745
  121bbb     H8 3642   7.343  12.676   7.516 -0.0046  0.2612  1.9324
  121bbb     C5 3643   7.197  12.878   7.807  0.0566  0.8959 -0.0060
  121bbb     H9 3644   7.109  12.814   7.797  1.2990 -0.7935 -0.6671
  121bbb    H10 3645   7.212  12.918   7.706 -3.2554  0.9363 -0.5962
  121bbb     C6 3646   7.646  12.678   7.772  0.1848 -0.7735 -1.1306
  121bbb    H11 3647   7.717  12.600   7.803  1.6715 -0.0168 -2.4554
  121bbb    H12 3648   7.672  12.770   7.825  0.9182 -1.7120  0.2221
  121bbb     C7 3649   7.179  12.515   7.489 -0.3182 -0.0397  0.1427
  121bbb    H13 3650   7.098  12.588   7.482  0.3771  0.6693 -0.6673
  121bbb    H14 3651   7.144  12.437   7.558  0.0909  1.1875  1.7841
  121bbb     C8 3652   7.663  12.704   7.622 -0.0521 -0.3890 -0.5220
  121bbb    H15 3653   7.766  12.743   7.622  0.5336 -1.8763  0.3081
  121bbb    H16 3654   7.660  12.611   7.564 -2.2269  1.3655 -3.4606
  121bbb     C9 3655   7.157  12.997   7.899  0.3480 -0.2566  0.2322
  121bbb    H17 3656   7.242  13.065   7.915 -0.5403  0.8539  0.3593
  121bbb    H18 3657   7.121  12.969   7.998  0.6188  2.0550  1.0357
  121bbb     O1 3658   7.212  12.461   7.356  0.5306 -0.0490 -0.2141
  121bbb    H19 3659   7.423  12.768   7.680 -0.5873 -0.6357 -1.2547
  122bbb     N1 3660   7.509  13.646   5.114 -0.2455 -0.2188  0.7433
  122bbb     C1 3661   7.646  13.703   5.143 -0.0909  0.8183 -0.0095
  122bbb     H1 3662   7.686  13.741   5.049  0.4308  1.4081  0.4395
  122bbb     H2 3663   7.711  13.619   5.167  0.3970  1.3455  0.5414
  122bbb     C2 3664   7.426  13.731   5.020 -0.0464 -0.1595 -0.4675
  122bbb     H3 3665   7.491  13.747   4.934  1.9393 -2.5894  0.4443
  122bbb     H4 3666   7.418  13.830   5.066  0.0124 -0.2894 -0.1731
  122bbb     C3 3667   7.520  13.508   5.054 -0.6231 -0.5471 -0.2239
  122bbb     H5 3668   7.593  13.506   4.973  0.0091 -1.0277  0.3453
  122bbb     H6 3669   7.423  13.476   5.016 -0.6779 -1.4408  0.6349
  122bbb     C4 3670   7.551  13.399   5.156  0.0785 -0.0548 -0.3172
  122bbb     H7 3671   7.484  13.403   5.242 -2.9717  1.1371 -2.5613
  122bbb     H8 3672   7.653  13.426   5.185  0.7226  0.8949 -3.0978
  122bbb     C5 3673   7.661  13.815   5.252  0.1994 -0.1684  0.4329
  122bbb     H9 3674   7.613  13.907   5.217 -0.1844  0.0769  1.5663
  122bbb    H10 3675   7.764  13.836   5.283  1.0593  0.5383 -2.5879
  122bbb     C6 3676   7.292  13.683   4.973 -0.1526  0.2622 -0.1740
  122bbb    H11 3677   7.228  13.632   5.045 -1.0786 -1.6064 -2.1959
  122bbb    H12 3678   7.305  13.599   4.903 -0.0766 -0.7846  1.0721
  122bbb     C7 3679   7.549  13.254   5.097 -0.3144 -0.2768  0.3488
  122bbb    H13 3680   7.608  13.192   5.166 -2.6090 -1.8494  1.0286
  122bbb    H14 3681   7.593  13.259   4.996 -0.5132 -1.7660  0.1540
  122bbb     C8 3682   7.227  13.782   4.888 -0.6433 -0.4425 -0.8068
  122bbb    H15 3683   7.298  13.811   4.810 -0.6897 -0.2024 -0.7606
  122bbb    H16 3684   7.134  13.750   4.839 -2.3644  1.8733  0.7283
  122bbb     C9 3685   7.585  13.785   5.378  0.2157  0.7524  0.3099
  122bbb    H17 3686   7.595  13.865   5.453 -0.1122 -0.7402  2.0373
  122bbb    H18 3687   7.630  13.694   5.419  0.2993  0.2805 -0.8073
  122bbb     O1 3688   7.405  13.212   5.085 -0.1004  0.5078  0.6032
  122bbb    H19 3689   7.453  13.640   5.201  0.1177 -1.1834  0.9176
  123bbb     N1 3690   7.202  12.750   4.276  0.9589 -0.2361 -0.2136
  123bbb     C1 3691   7.123  12.887   4.272  1.1839 -0.0077 -0.5394
  123bbb     H1 3692   7.082  12.908   4.173  1.5272  1.4819 -0.3905
  123bbb     H2 3693   7.195  12.966   4.292 -0.1127  1.5061 -1.5921
  123bbb     C2 3694   7.280  12.724   4.149 -0.3816 -0.3377  0.4119
  123bbb     H3 3695   7.202  12.729   4.072 -1.7707  2.2747  1.8337
  123bbb     H4 3696   7.323  12.624   4.152  1.6948  0.4454 -1.1002
  123bbb     C3 3697   7.283  12.744   4.402  0.6660 -0.0431 -0.8521
  123bbb     H5 3698   7.213  12.759   4.484  1.3236  1.9554 -0.6094
  123bbb     H6 3699   7.353  12.827   4.392 -0.5811  1.3703  1.1993
  123bbb     C4 3700   7.353  12.604   4.439  0.2526  0.2771 -0.0243
  123bbb     H7 3701   7.407  12.568   4.351 -1.8396  0.8667 -1.6299
  123bbb     H8 3702   7.272  12.533   4.461  1.2431 -0.8070  0.1921
  123bbb     C5 3703   7.006  12.898   4.363 -0.0479 -0.0543  0.1971
  123bbb     H9 3704   7.036  12.889   4.467 -1.7399  0.6848  0.7909
  123bbb    H10 3705   6.934  12.815   4.353 -0.6393  0.4199  0.4916
  123bbb     C6 3706   7.392  12.821   4.103  0.0622  0.1599 -0.4225
  123bbb    H11 3707   7.471  12.819   4.179 -0.3505 -2.2050  0.0049
  123bbb    H12 3708   7.363  12.926   4.097  0.6057  0.3190 -0.3346
  123bbb     C7 3709   7.438  12.608   4.572  0.2485  0.4611  0.3746
  123bbb    H13 3710   7.533  12.658   4.547  0.0665  1.0934  0.9180
  123bbb    H14 3711   7.465  12.507   4.605  0.2582 -0.5943 -2.5951
  123bbb     C8 3712   7.454  12.782   3.965 -0.0664  0.1319 -0.1875
  123bbb    H15 3713   7.542  12.846   3.947  0.6950 -0.7337  0.3419
  123bbb    H16 3714   7.497  12.681   3.965  0.1253  0.1962 -1.9047
  123bbb     C9 3715   6.932  13.034   4.358  0.0293  0.5667  0.1849
  123bbb    H17 3716   6.993  13.109   4.408  0.4766  0.0824  0.3696
  123bbb    H18 3717   6.837  13.019   4.411 -0.1852  0.2582 -0.2773
  123bbb     O1 3718   7.374  12.685   4.675 -0.0953 -0.0825 -0.6121
  123bbb    H19 3719   7.130  12.677   4.282  1.0960 -0.2610  1.7461
  124bbb     N1 3720   6.381  12.804   6.382 -0.6050 -0.4663  0.8281
  124bbb     C1 3721   6.519  12.872   6.387 -0.0797  0.2613  0.4917
  124bbb     H1 3722   6.510  12.954   6.315  1.0116  0.5314  0.6463
  124bbb     H2 3723   6.592  12.803   6.344 -2.0531 -1.1339 -0.7732
  124bbb     C2 3724   6.275  12.900   6.441  0.7210  0.0029  0.1780
  124bbb     H3 3725   6.303  12.934   6.541  0.8701  0.8487 -0.1448
  124bbb     H4 3726   6.191  12.832   6.455  0.2395  0.7550  1.0502
  124bbb     C3 3727   6.349  12.747   6.238  0.1465 -0.3245 -1.1183
  124bbb     H5 3728   6.375  12.834   6.176  1.2247 -0.1845 -0.4811
  124bbb     H6 3729   6.245  12.714   6.246  1.0898 -3.0412  1.7428
  124bbb     C4 3730   6.443  12.634   6.192 -0.1256 -0.2684  0.6109
  124bbb     H7 3731   6.448  12.571   6.282  2.3197 -1.0842 -0.0292
  124bbb     H8 3732   6.540  12.677   6.168 -1.3575  1.5615 -1.4111
  124bbb     C5 3733   6.561  12.931   6.522 -0.8584  0.3938 -0.5945
  124bbb     H9 3734   6.486  13.004   6.556 -1.1608  0.3472 -1.1571
  124bbb    H10 3735   6.652  12.991   6.523 -0.4411 -0.2246 -0.2274
  124bbb     C6 3736   6.229  13.013   6.348 -0.2439  0.2590  0.0020
  124bbb    H11 3737   6.170  12.971   6.266 -0.7505  2.2085 -0.6649
  124bbb    H12 3738   6.314  13.058   6.296  0.8505 -1.7813 -0.0972
  124bbb     C7 3739   6.397  12.542   6.075 -0.5805  0.3623  0.2094
  124bbb    H13 3740   6.308  12.482   6.102 -0.1600 -1.1191 -1.5343
  124bbb    H14 3741   6.468  12.461   6.055 -1.1471 -0.6884  2.1667
  124bbb     C8 3742   6.136  13.118   6.414 -0.1768 -0.3989 -0.7728
  124bbb    H15 3743   6.107  13.201   6.348 -3.2017 -0.3317  0.4638
  124bbb    H16 3744   6.045  13.061   6.439  0.5930 -1.1704  0.3406
  124bbb     C9 3745   6.591  12.819   6.626  0.9267  0.1124  0.3594
  124bbb    H17 3746   6.619  12.866   6.722 -0.2562 -1.2236  1.3948
  124bbb    H18 3747   6.670  12.759   6.579 -1.3094 -0.3538 -3.1503
  124bbb     O1 3748   6.391  12.626   5.954  0.2840  0.2429  0.3882
  124bbb    H19 3749   6.385  12.723   6.445 -0.5746 -1.8771 -0.9035
  125bbb     N1 3750   5.846  13.251   5.504  0.0579  0.6934 -0.0938
  125bbb     C1 3751   5.933  13.250   5.633  0.5346 -0.3517  0.0562
  125bbb     H1 3752   6.027  13.198   5.615  0.7036 -1.1093  2.6501
  125bbb     H2 3753   5.874  13.179   5.692  2.1395 -1.5215  0.3146
  125bbb     C2 3754   5.885  13.364   5.411 -0.8273 -0.4735  0.3897
  125bbb     H3 3755   5.850  13.462   5.445 -0.2370 -0.1565  0.1028
  125bbb     H4 3756   5.815  13.341   5.331 -1.3396  1.3841  0.2516
  125bbb     C3 3757   5.856  13.117   5.436  0.3747 -0.3636 -0.8714
  125bbb     H5 3758   5.963  13.095   5.426  0.7906  1.4486 -0.7703
  125bbb     H6 3759   5.806  13.125   5.340 -1.6864 -0.1910  0.1664
  125bbb     C4 3760   5.790  12.994   5.515  0.0897 -0.8816 -0.0658
  125bbb     H7 3761   5.686  13.026   5.534 -0.1229 -2.4095  1.5199
  125bbb     H8 3762   5.840  12.983   5.612  1.9659 -0.4631 -0.9444
  125bbb     C5 3763   5.940  13.380   5.710 -0.1168 -0.2179 -0.8335
  125bbb     H9 3764   5.842  13.409   5.748  1.1487  1.5939  1.3024
  125bbb    H10 3765   5.978  13.461   5.647  2.0348 -0.7597 -0.3403
  125bbb     C6 3766   6.039  13.361   5.362 -0.1729 -0.2128 -0.2092
  125bbb    H11 3767   6.081  13.260   5.365  0.1835 -0.1085 -1.2771
  125bbb    H12 3768   6.093  13.432   5.426  1.2870 -0.0827 -1.5365
  125bbb     C7 3769   5.786  12.857   5.437 -0.0948 -0.2380  0.2667
  125bbb    H13 3770   5.753  12.881   5.335  0.9617  2.3827  0.4594
  125bbb    H14 3771   5.715  12.788   5.484  1.2539 -0.8544  1.5030
  125bbb     C8 3772   6.046  13.402   5.215 -0.4604 -0.2272 -0.7963
  125bbb    H15 3773   6.150  13.377   5.194  0.2664  0.1820  1.9419
  125bbb    H16 3774   5.984  13.336   5.153 -2.2711  0.2475  0.4252
  125bbb     C9 3775   6.032  13.361   5.830  0.8004 -0.2157  0.8140
  125bbb    H17 3776   6.137  13.354   5.798  0.2155 -2.5640 -0.8336
  125bbb    H18 3777   6.009  13.271   5.887 -0.3491  0.6865  1.8411
  125bbb     O1 3778   5.919  12.806   5.425 -0.2218 -0.0291 -0.0596
  125bbb    H19 3779   5.747  13.268   5.526  0.0220  1.1332 -0.5640
  126bbb     N1 3780   4.014   8.469   2.846 -0.3968 -0.0486  0.2582
  126bbb     C1 3781   3.964   8.405   2.716  0.1078 -0.0305 -0.2263
  126bbb     H1 3782   3.898   8.323   2.742 -0.2238  0.1311 -0.5472
  126bbb     H2 3783   4.055   8.365   2.671 -0.4500 -3.1749  1.2470
  126bbb     C2 3784   3.896   8.521   2.927 -0.2325 -0.3051 -1.0086
  126bbb     H3 3785   3.837   8.436   2.961  0.8622 -0.2612  1.1963
  126bbb     H4 3786   3.841   8.592   2.865 -0.8463  0.6039  0.5051
  126bbb     C3 3787   4.094   8.360   2.917  0.0755  0.7922  0.3082
  126bbb     H5 3788   4.018   8.286   2.942  1.3228 -0.1286  1.5180
  126bbb     H6 3789   4.141   8.395   3.009  0.0482 -0.6055  0.8828
  126bbb     C4 3790   4.204   8.283   2.834 -0.3403 -0.1945  0.6703
  126bbb     H7 3791   4.273   8.354   2.786  0.6765 -0.2918  1.9407
  126bbb     H8 3792   4.158   8.218   2.759 -0.8282 -0.2673  1.0296
  126bbb     C5 3793   3.892   8.498   2.611  0.1199 -0.2579 -0.1654
  126bbb     H9 3794   3.956   8.582   2.580 -0.6749  0.6526  0.6000
  126bbb    H10 3795   3.803   8.538   2.661  2.3152  2.9408  1.5171
  126bbb     C6 3796   3.931   8.598   3.057 -0.4606  0.6764 -0.0526
  126bbb    H11 3797   3.971   8.694   3.021  0.2403  1.2546  2.1290
  126bbb    H12 3798   4.003   8.558   3.129 -0.9235  0.1662  0.1345
  126bbb     C7 3799   4.283   8.186   2.917  0.3089 -0.3180 -0.0413
  126bbb    H13 3800   4.368   8.135   2.869  0.7177 -0.8318  1.1692
  126bbb    H14 3801   4.213   8.110   2.955  0.0432  0.0692  0.2497
  126bbb     C8 3802   3.806   8.642   3.136 -0.3364 -0.0173  0.4398
  126bbb    H15 3803   3.842   8.735   3.182  2.0940 -1.1077  0.8848
  126bbb    H16 3804   3.726   8.662   3.062 -0.8137  0.4281  1.0629
  126bbb     C9 3805   3.855   8.423   2.482  0.3949  0.1637 -0.2068
  126bbb    H17 3806   3.944   8.375   2.437 -0.0629 -0.3107 -0.6256
  126bbb    H18 3807   3.819   8.488   2.401  2.1532  0.9400 -0.4133
  126bbb     O1 3808   4.341   8.281   3.017  0.1409  0.4994  0.0039
  126bbb    H19 3809   4.085   8.539   2.819  1.7462 -1.7412  1.2380
  127bbb     N1 3810   3.732   8.090   3.165 -0.2169 -0.0035 -0.3506
  127bbb     C1 3811   3.646   8.204   3.123 -0.2758 -0.6876  0.2473
  127bbb     H1 3812   3.601   8.173   3.028 -0.0349 -1.0038  0.2337
  127bbb     H2 3813   3.702   8.296   3.105 -3.0695  1.5154  2.0024
  127bbb     C2 3814   3.704   7.984   3.058  0.0600  0.0650  0.0018
  127bbb     H3 3815   3.766   8.021   2.976 -1.6656  1.5319 -0.7119
  127bbb     H4 3816   3.603   7.992   3.018 -0.3040 -1.4207  0.5598
  127bbb     C3 3817   3.887   8.119   3.157  1.0434  0.2506  0.3675
  127bbb     H5 3818   3.902   8.140   3.051  0.1779 -2.3905 -0.3605
  127bbb     H6 3819   3.949   8.033   3.181  1.3503  0.5348  0.6101
  127bbb     C4 3820   3.938   8.245   3.234 -0.2448  0.6950 -0.2139
  127bbb     H7 3821   3.883   8.338   3.218 -0.6987  0.4497 -0.1027
  127bbb     H8 3822   4.032   8.274   3.186  0.3001 -2.5798 -1.3653
  127bbb     C5 3823   3.533   8.243   3.221  0.3128  0.3849  0.3617
  127bbb     H9 3824   3.572   8.309   3.299  1.1495  0.6188 -0.2412
  127bbb    H10 3825   3.481   8.151   3.250 -0.8817  1.1855  0.8343
  127bbb     C6 3826   3.726   7.835   3.090 -0.1010  0.0626  0.5761
  127bbb    H11 3827   3.646   7.805   3.160 -0.3102 -1.2029 -0.1653
  127bbb    H12 3828   3.823   7.819   3.138  1.4901  2.4532 -1.6498
  127bbb     C7 3829   3.952   8.220   3.386  0.0850  0.6266 -0.1498
  127bbb    H13 3830   3.965   8.113   3.401 -0.0544  0.0227 -3.4682
  127bbb    H14 3831   3.855   8.246   3.429 -0.8991 -3.1992  0.2441
  127bbb     C8 3832   3.716   7.738   2.966 -0.2302  0.4322 -0.1146
  127bbb    H15 3833   3.767   7.781   2.879  0.3748  1.5413  0.7602
  127bbb    H16 3834   3.762   7.643   2.994 -1.7826  0.0419  1.2206
  127bbb     C9 3835   3.422   8.313   3.131  0.4075 -0.3784  0.6621
  127bbb    H17 3836   3.338   8.354   3.190 -0.9071 -1.6269 -0.2765
  127bbb    H18 3837   3.381   8.233   3.069  1.2225 -0.1166 -0.2408
  127bbb     O1 3838   4.064   8.295   3.436 -0.8784 -0.9185  0.5377
  127bbb    H19 3839   3.700   8.044   3.252 -1.4569 -0.1756 -0.8682
  128bbb     N1 3840   3.945   6.636   4.444 -0.4280  0.3239  0.0957
  128bbb     C1 3841   3.988   6.521   4.361  1.0315 -0.2020  0.4902
  128bbb     H1 3842   4.000   6.438   4.430 -1.2092  0.1540  1.3831
  128bbb     H2 3843   4.078   6.550   4.305 -0.5097  2.6669 -0.7583
  128bbb     C2 3844   3.981   6.614   4.593 -0.0945  0.1776 -0.8606
  128bbb     H3 3845   3.933   6.689   4.656  0.1658  0.0879 -0.5496
  128bbb     H4 3846   4.089   6.629   4.588  0.3397 -2.0151  0.6075
  128bbb     C3 3847   3.998   6.773   4.388  0.2066  0.4530  0.6271
  128bbb     H5 3848   4.009   6.754   4.281  1.4871 -1.0097  0.9768
  128bbb     H6 3849   4.098   6.791   4.428  0.3364  0.2925  0.3840
  128bbb     C4 3850   3.911   6.893   4.408  0.0458  0.7341 -0.1369
  128bbb     H7 3851   3.875   6.881   4.511 -1.8717 -2.3931 -1.0111
  128bbb     H8 3852   3.816   6.886   4.354 -0.3768  1.2038  0.5207
  128bbb     C5 3853   3.873   6.490   4.257 -0.5617  0.5796  0.3721
  128bbb     H9 3854   3.770   6.510   4.287 -0.5538  0.5804  0.4001
  128bbb    H10 3855   3.876   6.381   4.244  2.0949  0.6085  0.2258
  128bbb     C6 3856   3.949   6.480   4.660 -0.0214  0.0375 -0.4911
  128bbb    H11 3857   4.016   6.403   4.620  4.5855  3.9277 -1.1232
  128bbb    H12 3858   3.845   6.447   4.645  0.0956 -0.5478 -0.0342
  128bbb     C7 3859   3.987   7.026   4.380  0.8598  0.2935 -0.2564
  128bbb    H13 3860   3.931   7.109   4.424  0.3136 -0.8652  1.3674
  128bbb    H14 3861   4.002   7.036   4.272  1.0361 -0.9003 -0.3559
  128bbb     C8 3862   3.988   6.488   4.808 -0.1771  0.1637  0.5435
  128bbb    H15 3863   3.912   6.543   4.865 -3.0516 -0.7656 -2.1183
  128bbb    H16 3864   3.979   6.383   4.838 -0.4253 -0.5605 -1.8829
  128bbb     C9 3865   3.909   6.532   4.115  0.3929  0.6806 -0.1555
  128bbb    H17 3866   3.829   6.488   4.054  1.1509 -1.5609  0.3564
  128bbb    H18 3867   4.003   6.494   4.073 -0.3452 -1.1818 -0.2352
  128bbb     O1 3868   4.114   7.032   4.451  0.0267 -0.1281  0.6211
  128bbb    H19 3869   3.842   6.635   4.443 -0.4441 -1.6518  0.8958
  129bbb     N1 3870   3.454   7.305   4.738 -0.3763  0.1612  0.2287
  129bbb     C1 3871   3.427   7.343   4.592  0.2104 -0.0397  0.0492
  129bbb     H1 3872   3.326   7.310   4.566  0.7530 -0.7341 -1.2692
  129bbb     H2 3873   3.496   7.293   4.524 -1.5177 -1.4574 -0.7416
  129bbb     C2 3874   3.437   7.152   4.755 -0.3565 -0.5406  0.3569
  129bbb     H3 3875   3.466   7.113   4.852 -0.7537 -3.5085 -0.6043
  129bbb     H4 3876   3.488   7.103   4.672  1.3444  0.1488  0.9556
  129bbb     C3 3877   3.594   7.350   4.775 -0.2656 -0.0037  0.5466
  129bbb     H5 3878   3.600   7.458   4.762  0.3148 -0.1365 -0.4756
  129bbb     H6 3879   3.669   7.302   4.711 -3.0401 -4.8871  0.4318
  129bbb     C4 3880   3.630   7.317   4.917  0.0996 -0.4417 -0.1116
  129bbb     H7 3881   3.660   7.211   4.916  1.7652 -0.0023 -1.3151
  129bbb     H8 3882   3.536   7.331   4.973  0.6206 -2.1101  1.2638
  129bbb     C5 3883   3.436   7.499   4.567  0.0530 -0.6095  0.7295
  129bbb     H9 3884   3.538   7.528   4.596  0.1052  0.4938 -0.4774
  129bbb    H10 3885   3.361   7.558   4.620 -0.9553  0.9770 -2.2673
  129bbb     C6 3886   3.286   7.120   4.742  0.4669 -0.2168  0.8303
  129bbb    H11 3887   3.254   7.017   4.762 -1.5817  0.3969  1.0478
  129bbb    H12 3888   3.260   7.140   4.637  2.1165  0.6472  0.5600
  129bbb     C7 3889   3.746   7.400   4.975  0.7017 -0.1002  0.4024
  129bbb    H13 3890   3.775   7.355   5.071 -0.4297 -0.5267  0.5488
  129bbb    H14 3891   3.718   7.505   4.987  1.1578 -0.1888  2.6916
  129bbb     C8 3892   3.188   7.207   4.828  0.0562 -0.5035  0.2148
  129bbb    H15 3893   3.186   7.310   4.788  1.4873 -0.9777 -1.1935
  129bbb    H16 3894   3.088   7.162   4.840 -0.0527 -0.7222 -1.2608
  129bbb     C9 3895   3.419   7.543   4.421  0.6875 -0.4202  0.4430
  129bbb    H17 3896   3.441   7.650   4.407 -1.4917  0.0337  0.1489
  129bbb    H18 3897   3.320   7.521   4.380  1.2040 -1.5727 -0.2232
  129bbb     O1 3898   3.867   7.394   4.888  0.2817 -0.1222  0.5147
  129bbb    H19 3899   3.381   7.347   4.798 -0.5223 -2.1536  1.8205
  130bbb     N1 3900   6.225   8.503   4.642  0.1704  0.1500  0.2206
  130bbb     C1 3901   6.293   8.564   4.521 -0.6061 -0.3382 -0.1202
  130bbb     H1 3902   6.251   8.663   4.506  0.1470  0.1372  0.7915
  130bbb     H2 3903   6.266   8.507   4.432  0.5255  1.0535 -1.4129
  130bbb     C2 3904   6.250   8.593   4.759  0.7559  0.4198  0.5336
  130bbb     H3 3905   6.229   8.696   4.729 -1.9236 -0.1166  0.3896
  130bbb     H4 3906   6.354   8.576   4.790  0.6943  0.4209  0.7448
  130bbb     C3 3907   6.074   8.494   4.606  0.0283  0.0186  0.2628
  130bbb     H5 3908   6.048   8.502   4.500 -1.8877 -2.4834  0.4682
  130bbb     H6 3909   6.028   8.580   4.655  2.0321  1.4174 -0.1692
  130bbb     C4 3910   6.011   8.366   4.649 -0.5043 -0.2452  0.7406
  130bbb     H7 3911   6.027   8.358   4.757  2.6985 -1.8550  0.2773
  130bbb     H8 3912   6.073   8.286   4.607  1.7116  1.7305  0.0089
  130bbb     C5 3913   6.443   8.570   4.537  0.4733 -0.1834  0.0959
  130bbb     H9 3914   6.484   8.472   4.565  0.2546 -0.8262 -1.7132
  130bbb    H10 3915   6.473   8.643   4.613 -1.1777  2.6584 -1.8352
  130bbb     C6 3916   6.169   8.568   4.885 -0.5037 -0.3854  0.0383
  130bbb    H11 3917   6.188   8.469   4.927  3.8043  0.8003  1.4386
  130bbb    H12 3918   6.060   8.576   4.873 -0.4507 -1.1555 -1.0301
  130bbb     C7 3919   5.860   8.334   4.607 -0.2029  0.1063  0.2684
  130bbb    H13 3920   5.802   8.420   4.644  0.3954  1.3703 -1.5894
  130bbb    H14 3921   5.834   8.234   4.645 -0.2250 -0.4914 -1.2562
  130bbb     C8 3922   6.217   8.659   4.993  0.0408 -0.3696 -0.2779
  130bbb    H15 3923   6.184   8.761   4.968 -0.2805 -0.7630 -1.5519
  130bbb    H16 3924   6.179   8.645   5.094  1.6033 -1.5994  0.1805
  130bbb     C9 3925   6.510   8.607   4.405 -0.2407  0.2194 -0.1398
  130bbb    H17 3926   6.529   8.510   4.356 -0.8400 -1.8854  3.4462
  130bbb    H18 3927   6.604   8.661   4.421  0.6374 -0.7693 -1.6606
  130bbb     O1 3928   5.844   8.324   4.460  0.0141  0.2992 -0.1524
  130bbb    H19 3929   6.269   8.410   4.651  1.3974  0.3103 -2.8143
  131bbb     N1 3930   5.603   8.927   4.130 -0.5625 -0.3571 -0.0560
  131bbb     C1 3931   5.712   9.031   4.119 -0.1358  0.5668 -0.8384
  131bbb     H1 3932   5.810   8.983   4.118 -0.9001 -1.4124  2.6646
  131bbb     H2 3933   5.711   9.084   4.214  1.1452  0.1357 -0.5591
  131bbb     C2 3934   5.461   8.989   4.106 -0.0854  0.3372  0.2002
  131bbb     H3 3935   5.391   8.906   4.112  2.2004 -1.8573 -1.3045
  131bbb     H4 3936   5.458   9.035   4.007  0.2885  0.4588  0.2428
  131bbb     C3 3937   5.625   8.831   4.023 -0.4352  1.0189  0.0244
  131bbb     H5 3938   5.646   8.882   3.929 -0.2626  0.8250 -0.0426
  131bbb     H6 3939   5.536   8.768   4.018  0.4679 -0.2710 -0.4592
  131bbb     C4 3940   5.747   8.742   4.029 -1.0228 -0.6248  0.4861
  131bbb     H7 3941   5.754   8.677   4.117  2.4252 -0.4404  0.4741
  131bbb     H8 3942   5.835   8.807   4.030 -0.5836 -1.1989 -0.0034
  131bbb     C5 3943   5.698   9.140   4.012 -0.2651  0.6379 -0.6722
  131bbb     H9 3944   5.633   9.227   4.027  0.4278  1.2318 -1.0205
  131bbb    H10 3945   5.667   9.093   3.918 -2.0312  1.2040 -0.4018
  131bbb     C6 3946   5.419   9.103   4.209  0.1776 -0.4190  0.5676
  131bbb    H11 3947   5.323   9.148   4.178  0.2329  0.3927  1.5246
  131bbb    H12 3948   5.488   9.188   4.207 -0.7624  0.3589 -1.6935
  131bbb     C7 3949   5.761   8.641   3.911  0.2392 -0.7782 -0.6183
  131bbb    H13 3950   5.856   8.589   3.925  0.2121 -0.5432  0.5072
  131bbb    H14 3951   5.760   8.702   3.820 -1.4576  0.6756  0.3147
  131bbb     C8 3952   5.404   9.030   4.346  1.1610 -0.4699 -0.2478
  131bbb    H15 3953   5.348   9.090   4.419  2.2866  0.2502  0.0614
  131bbb    H16 3954   5.337   8.947   4.320  0.7429 -0.7612  1.5713
  131bbb     C9 3955   5.833   9.207   3.983  0.2552  0.4065  0.3126
  131bbb    H17 3956   5.824   9.269   3.893 -1.9678  0.6968  0.6595
  131bbb    H18 3957   5.908   9.132   3.958 -1.0111 -0.7189 -0.2447
  131bbb     O1 3958   5.646   8.555   3.904 -0.3970  0.2070  0.2471
  131bbb    H19 3959   5.600   8.877   4.220 -0.4071 -1.8750 -0.8574
  132bbb     N1 3960   4.795   6.093   4.124 -0.1075  0.3151 -0.1000
  132bbb     C1 3961   4.862   5.994   4.032 -0.5793 -0.1302  0.0358
  132bbb     H1 3962   4.957   6.040   4.004 -0.3318  0.4274  1.6350
  132bbb     H2 3963   4.808   5.984   3.939  2.9517 -2.3867 -1.9989
  132bbb     C2 3964   4.886   6.142   4.241  0.4653  0.6557  0.5841
  132bbb     H3 3965   4.852   6.242   4.268 -1.3130  0.8654 -2.0821
  132bbb     H4 3966   4.986   6.131   4.198  0.2879  1.9263 -0.1866
  132bbb     C3 3967   4.797   6.217   4.040  0.3046  0.6755 -0.6201
  132bbb     H5 3968   4.757   6.200   3.940 -0.5708 -0.6171 -0.0728
  132bbb     H6 3969   4.902   6.246   4.036  0.6082 -0.1242  0.8705
  132bbb     C4 3970   4.708   6.329   4.092  0.2377 -0.8311  0.5528
  132bbb     H7 3971   4.740   6.376   4.186  0.1252 -0.4751  0.4166
  132bbb     H8 3972   4.610   6.283   4.106 -0.0511 -1.0436 -1.8113
  132bbb     C5 3973   4.891   5.852   4.089 -0.2851 -0.0202 -0.6173
  132bbb     H9 3974   4.802   5.797   4.121  0.0542  0.1379  0.6288
  132bbb    H10 3975   4.959   5.865   4.174 -0.1719  1.5138 -0.9073
  132bbb     C6 3976   4.881   6.052   4.370  0.0730 -0.0957 -0.0522
  132bbb    H11 3977   4.936   6.106   4.448  0.8338 -2.8391  1.4718
  132bbb    H12 3978   4.943   5.963   4.354  0.9542  0.7425 -1.4734
  132bbb     C7 3979   4.683   6.447   3.978  0.1032  0.4637 -0.3183
  132bbb    H13 3980   4.637   6.525   4.041 -0.7785 -1.2879  1.3022
  132bbb    H14 3981   4.614   6.417   3.898  1.1724  0.9019 -1.4403
  132bbb     C8 3982   4.732   6.026   4.413  0.2764  0.3347 -0.0303
  132bbb    H15 3983   4.674   5.987   4.329 -1.0036 -0.7774  1.3183
  132bbb    H16 3984   4.719   5.945   4.486 -2.4011 -0.1612 -0.9569
  132bbb     C9 3985   4.951   5.744   3.997 -0.1719  0.0231  0.7219
  132bbb    H17 3986   4.887   5.728   3.910  1.4953 -1.0892 -0.3552
  132bbb    H18 3987   4.963   5.652   4.055  0.1690 -1.0484 -0.9924
  132bbb     O1 3988   4.804   6.490   3.914 -0.4943 -0.0391  0.1135
  132bbb    H19 3989   4.700   6.060   4.147 -1.3660  2.9350 -1.0976
  133bbb     N1 3990   5.805   6.592   3.449  0.4080 -0.4407 -0.4982
  133bbb     C1 3991   5.945   6.571   3.518  0.2583 -0.0188 -0.3062
  133bbb     H1 3992   6.023   6.611   3.453  3.1028 -2.6854  1.1784
  133bbb     H2 3993   5.961   6.463   3.529 -1.5126 -0.6566 -3.0361
  133bbb     C2 3994   5.807   6.584   3.301  0.1284  0.5593 -0.2116
  133bbb     H3 3995   5.896   6.643   3.278  2.0828 -1.7399  1.1187
  133bbb     H4 3996   5.717   6.633   3.262 -0.5017  0.0406  0.5540
  133bbb     C3 3997   5.698   6.504   3.510  0.6551 -0.1367  0.2029
  133bbb     H5 3998   5.691   6.514   3.618  0.9466 -1.2774  0.3386
  133bbb     H6 3999   5.731   6.403   3.483 -1.5859 -0.2869 -2.2967
  133bbb     C4 4000   5.552   6.522   3.467 -0.7325 -0.0203 -0.5566
  133bbb     H7 4001   5.551   6.533   3.358 -4.3850 -0.7955 -0.7100
  133bbb     H8 4002   5.514   6.621   3.495 -0.8496  0.2330 -1.5437
  133bbb     C5 4003   5.962   6.643   3.653  0.2773  0.3656  0.4789
  133bbb     H9 4004   5.948   6.751   3.651  0.0430  0.3275 -0.2870
  133bbb    H10 4005   6.068   6.631   3.680  0.9457 -1.2561 -2.4309
  133bbb     C6 4006   5.829   6.443   3.238 -0.1623 -0.6860  0.5860
  133bbb    H11 4007   5.741   6.378   3.243 -0.3209 -0.6045 -0.8195
  133bbb    H12 4008   5.912   6.407   3.299 -0.2080  0.5047  1.3807
  133bbb     C7 4009   5.449   6.410   3.500 -0.2517 -0.5638  0.9354
  133bbb    H13 4010   5.479   6.317   3.450  0.3050  0.4598 -0.6876
  133bbb    H14 4011   5.358   6.454   3.459  0.8105 -0.0568 -1.0131
  133bbb     C8 4012   5.878   6.453   3.086  0.2560 -0.1065  0.1881
  133bbb    H15 4013   5.977   6.500   3.091 -0.0362  0.4462  0.9488
  133bbb    H16 4014   5.894   6.352   3.046  0.3676  0.3048 -0.8461
  133bbb     C9 4015   5.889   6.575   3.770 -0.0924  0.5337 -0.2807
  133bbb    H17 4016   5.782   6.599   3.758 -0.1753 -0.3507 -1.5627
  133bbb    H18 4017   5.917   6.623   3.864  2.5058  2.5089 -1.9227
  133bbb     O1 4018   5.443   6.392   3.639 -0.5748 -0.4721  0.2140
  133bbb    H19 4019   5.781   6.689   3.474  0.2407  0.2286 -3.0386
  134bbb     N1 4020   3.387   6.695   5.668  0.5386 -0.2475  0.0033
  134bbb     C1 4021   3.361   6.546   5.701 -0.0362 -0.3054 -0.4774
  134bbb     H1 4022   3.254   6.532   5.691 -0.7350  2.5003  1.7263
  134bbb     H2 4023   3.376   6.541   5.809 -0.3278  0.9711 -0.3573
  134bbb     C2 4024   3.302   6.779   5.766  0.4169 -0.1860 -0.0867
  134bbb     H3 4025   3.324   6.741   5.866  0.5580  2.9599  1.1976
  134bbb     H4 4026   3.198   6.756   5.745 -0.3803  2.1612  0.9636
  134bbb     C3 4027   3.533   6.730   5.667 -0.1796  0.7821 -0.1255
  134bbb     H5 4028   3.607   6.657   5.700 -0.5957 -0.0002 -0.8815
  134bbb     H6 4029   3.550   6.814   5.735  2.3246 -0.8832  1.4621
  134bbb     C4 4030   3.590   6.763   5.532 -0.0243  0.0054  0.2060
  134bbb     H7 4031   3.574   6.675   5.469  1.6666  0.4541 -0.9113
  134bbb     H8 4032   3.700   6.760   5.539  0.0304 -2.0035 -0.7582
  134bbb     C5 4033   3.440   6.426   5.621  0.1508 -0.1469 -0.2205
  134bbb     H9 4034   3.545   6.454   5.606  0.5579 -0.8057  1.2432
  134bbb    H10 4035   3.403   6.407   5.519  0.1792  0.0859 -0.2749
  134bbb     C6 4036   3.311   6.933   5.759 -0.9844 -0.4841  0.2461
  134bbb    H11 4037   3.302   6.963   5.654  0.9315 -0.8662 -0.0561
  134bbb    H12 4038   3.402   6.970   5.807 -2.5504  1.9794  1.5496
  134bbb     C7 4039   3.510   6.885   5.470 -0.3739  0.4027 -0.1519
  134bbb    H13 4040   3.401   6.874   5.468 -0.4327  1.0544 -2.4712
  134bbb    H14 4041   3.540   6.891   5.365  1.0400  1.3819  0.2795
  134bbb     C8 4042   3.201   7.003   5.845 -0.8412  0.0226 -0.3466
  134bbb    H15 4043   3.177   7.101   5.802  1.3319  1.1084  0.7425
  134bbb    H16 4044   3.108   6.947   5.833  0.4487 -2.6062  1.0577
  134bbb     C9 4045   3.416   6.298   5.706  0.0795  0.0111  0.5480
  134bbb    H17 4046   3.461   6.210   5.660 -2.5317 -1.4258  0.5912
  134bbb    H18 4047   3.310   6.273   5.713 -0.2289  0.5180 -1.6593
  134bbb     O1 4048   3.548   7.002   5.547  0.2594 -0.0086  0.6790
  134bbb    H19 4049   3.344   6.707   5.575 -0.8654 -1.0911  0.5139
  135bbb     N1 4050   3.077   7.918   5.851 -0.1298  0.2594 -0.4422
  135bbb     C1 4051   2.937   7.929   5.786 -0.4496  0.2360  0.4912
  135bbb     H1 4052   2.930   8.030   5.746  2.9103  0.0742 -0.8824
  135bbb     H2 4053   2.863   7.913   5.864 -0.5295 -0.3303  0.3090
  135bbb     C2 4054   3.121   8.057   5.889  0.4595  0.5159 -0.2411
  135bbb     H3 4055   3.199   8.060   5.965 -2.1967  0.7814  2.6323
  135bbb     H4 4056   3.031   8.103   5.930  0.5873  0.2457  0.3577
  135bbb     C3 4057   3.071   7.836   5.971 -0.0060  0.2221 -0.0907
  135bbb     H5 4058   3.016   7.743   5.955  0.8491 -0.1691 -0.8635
  135bbb     H6 4059   3.017   7.900   6.041 -1.6541 -0.4512 -0.7114
  135bbb     C4 4060   3.204   7.790   6.036 -0.3929 -0.0758  0.0088
  135bbb     H7 4061   3.192   7.779   6.144 -0.6831  1.1862  0.1222
  135bbb     H8 4062   3.285   7.864   6.027 -0.7706  0.2695 -0.6124
  135bbb     C5 4063   2.923   7.826   5.673 -0.5714 -0.5952  0.6292
  135bbb     H9 4064   2.819   7.818   5.640  0.4472 -1.2413 -2.8141
  135bbb    H10 4065   2.957   7.726   5.704  2.6868 -0.0379 -0.7582
  135bbb     C6 4066   3.164   8.151   5.779 -0.1539  0.0355 -0.2011
  135bbb    H11 4067   3.129   8.250   5.809 -1.0803 -0.9318  2.2124
  135bbb    H12 4068   3.125   8.132   5.679  0.0321  0.9633 -0.4566
  135bbb     C7 4069   3.253   7.659   5.977  0.3169 -0.2948  0.0735
  135bbb    H13 4070   3.172   7.586   5.988  0.0771 -0.3223 -1.5230
  135bbb    H14 4071   3.334   7.629   6.044  0.4713  0.0135  0.0274
  135bbb     C8 4072   3.318   8.144   5.762 -0.4528 -0.2124  0.0117
  135bbb    H15 4073   3.346   8.226   5.694  0.4344  0.7092  1.4541
  135bbb    H16 4074   3.361   8.166   5.860 -1.9577 -2.2863  1.2166
  135bbb     C9 4075   2.992   7.851   5.541 -0.1881  0.0805 -0.0857
  135bbb    H17 4076   2.953   7.948   5.508  2.5422  1.4417  0.3720
  135bbb    H18 4077   2.965   7.776   5.466  0.9616 -0.3580 -0.0848
  135bbb     O1 4078   3.299   7.670   5.836 -0.0327  0.4524  0.0261
  135bbb    H19 4079   3.150   7.879   5.790  0.5374  1.0409 -0.1675
  136bbb     N1 4080   5.235   6.646   5.594  0.1687  0.1699 -0.2843
  136bbb     C1 4081   5.172   6.611   5.462 -0.6444 -0.1999  0.1324
  136bbb     H1 4082   5.091   6.683   5.452 -1.7423 -1.4309 -0.1009
  136bbb     H2 4083   5.137   6.508   5.474  0.8772 -0.6112  1.3766
  136bbb     C2 4084   5.370   6.566   5.606 -0.2319  0.3340  0.3732
  136bbb     H3 4085   5.415   6.606   5.697 -1.7371  0.4704  1.1095
  136bbb     H4 4086   5.433   6.591   5.521  1.8324 -0.2201  1.6614
  136bbb     C3 4087   5.251   6.802   5.590  0.3121  0.8681  0.3245
  136bbb     H5 4088   5.148   6.838   5.595  0.2386  0.7231 -0.0469
  136bbb     H6 4089   5.282   6.836   5.491 -0.7286  2.3807  0.4806
  136bbb     C4 4090   5.340   6.858   5.706 -0.2433 -0.1209 -0.2963
  136bbb     H7 4091   5.442   6.820   5.714 -0.3694 -0.2643  0.7500
  136bbb     H8 4092   5.295   6.841   5.805  0.3590 -1.7068 -0.2688
  136bbb     C5 4093   5.247   6.619   5.327 -0.0179  0.8206  0.9553
  136bbb     H9 4094   5.338   6.559   5.340 -0.1344  0.4901  0.2743
  136bbb    H10 4095   5.277   6.720   5.295  1.1803 -0.6123 -3.0127
  136bbb     C6 4096   5.359   6.414   5.600 -0.0013  0.1166  0.3332
  136bbb    H11 4097   5.455   6.365   5.583 -1.0102 -0.8467 -3.4771
  136bbb    H12 4098   5.302   6.403   5.507 -0.3836 -0.7712  0.6568
  136bbb     C7 4099   5.334   7.011   5.698 -0.2228  0.1389 -0.1811
  136bbb    H13 4100   5.368   7.043   5.599  1.5123  1.0170  0.6508
  136bbb    H14 4101   5.409   7.050   5.768 -0.4817  1.3628 -0.5671
  136bbb     C8 4102   5.284   6.343   5.714 -0.4798  0.2177  0.4349
  136bbb    H15 4103   5.283   6.237   5.686  1.4341  0.3889 -0.4743
  136bbb    H16 4104   5.334   6.367   5.809 -1.0348  1.1186  0.5184
  136bbb     C9 4105   5.170   6.544   5.214  0.0049 -0.4486 -0.8545
  136bbb    H17 4106   5.186   6.439   5.239  1.9157 -0.0414 -0.1254
  136bbb    H18 4107   5.214   6.559   5.114 -0.8802 -1.4171 -1.4056
  136bbb     O1 4108   5.206   7.066   5.730 -0.3429 -0.6457  0.7067
  136bbb    H19 4109   5.178   6.617   5.674  1.0493 -0.2599  0.2032
  137bbb     N1 4110   4.240   6.492   5.882  0.5164  0.0712  0.6941
  137bbb     C1 4111   4.341   6.409   5.959 -0.0715  0.5994  0.7165
  137bbb     H1 4112   4.336   6.432   6.065  0.4764 -0.8626  1.0779
  137bbb     H2 4113   4.435   6.448   5.920 -1.1591  1.1459 -1.5192
  137bbb     C2 4114   4.099   6.502   5.951  0.2163 -0.0898 -0.0305
  137bbb     H3 4115   4.070   6.399   5.968  3.4630 -0.7825  2.2117
  137bbb     H4 4116   4.041   6.565   5.884  1.1445  0.6308 -0.1873
  137bbb     C3 4117   4.304   6.624   5.850  0.0326 -0.2991  0.1065
  137bbb     H5 4118   4.390   6.639   5.916 -0.8337  1.2682  0.9410
  137bbb     H6 4119   4.229   6.701   5.864 -0.5884 -1.2439  2.5114
  137bbb     C4 4120   4.355   6.646   5.703  0.1991  0.1875 -0.3225
  137bbb     H7 4121   4.282   6.601   5.635  0.2712 -0.6563  0.1425
  137bbb     H8 4122   4.443   6.583   5.685 -0.1365 -0.2384 -0.4892
  137bbb     C5 4123   4.333   6.256   5.931  0.8806 -0.9334  0.4936
  137bbb     H9 4124   4.233   6.218   5.954  0.6570 -0.4731  0.2892
  137bbb    H10 4125   4.405   6.203   5.996  0.7178 -0.8875  0.7115
  137bbb     C6 4126   4.098   6.575   6.079  0.5764  0.4254 -0.1177
  137bbb    H11 4127   4.145   6.674   6.068  2.1592 -0.2442  0.3641
  137bbb    H12 4128   4.146   6.528   6.165 -0.1114 -0.3229 -0.1328
  137bbb     C7 4129   4.377   6.795   5.662 -0.3607 -0.2098 -0.1461
  137bbb    H13 4130   4.275   6.834   5.666 -0.9696 -1.6369 -0.8825
  137bbb    H14 4131   4.409   6.806   5.558 -1.9119 -1.3003 -0.7704
  137bbb     C8 4132   3.958   6.620   6.129  0.6566  0.3312 -0.5770
  137bbb    H15 4133   3.959   6.695   6.209 -1.5064 -0.8758  0.6923
  137bbb    H16 4134   3.896   6.653   6.044 -1.0573  0.8614  0.8104
  137bbb     C9 4135   4.360   6.194   5.795 -0.2397  0.9449 -0.0629
  137bbb    H17 4136   4.311   6.096   5.782 -1.1566  1.4822 -0.7268
  137bbb    H18 4137   4.468   6.180   5.779 -0.3783  0.0227 -0.2436
  137bbb     O1 4138   4.481   6.862   5.758  0.0027 -0.3665  0.3584
  137bbb    H19 4139   4.218   6.446   5.792  0.6577 -1.1198  1.2546
  138bbb     N1 4140   4.807   7.343   7.016 -0.1966 -0.0972 -0.0826
  138bbb     C1 4141   4.957   7.387   7.014  0.1675 -0.0636 -0.1982
  138bbb     H1 4142   5.017   7.303   6.977  2.4924  0.5598  1.8857
  138bbb     H2 4143   4.983   7.422   7.114  1.2291  1.0720 -0.8372
  138bbb     C2 4144   4.781   7.240   7.135 -0.0579  0.2418  0.9941
  138bbb     H3 4145   4.678   7.252   7.169 -0.2660 -1.1698  0.9041
  138bbb     H4 4146   4.841   7.274   7.220  0.0145  0.8855  0.6884
  138bbb     C3 4147   4.713   7.466   7.036  0.0099  0.2064 -0.4770
  138bbb     H5 4148   4.752   7.542   6.967  1.5635 -0.5119 -0.4430
  138bbb     H6 4149   4.722   7.507   7.137  1.0190  2.4944 -1.4083
  138bbb     C4 4150   4.567   7.446   6.993  0.3349 -0.5716 -0.5297
  138bbb     H7 4151   4.527   7.380   7.071  0.9703  1.8859  2.0538
  138bbb     H8 4152   4.554   7.395   6.897 -0.2488  0.5396 -1.0675
  138bbb     C5 4153   5.002   7.504   6.927  0.6904  0.0927  0.0472
  138bbb     H9 4154   4.946   7.594   6.955  2.6874  0.6965  2.4750
  138bbb    H10 4155   4.970   7.489   6.823 -0.6688  0.4572  0.3948
  138bbb     C6 4156   4.810   7.091   7.110 -0.2757 -0.2782  0.5311
  138bbb    H11 4157   4.912   7.079   7.070  0.9717  1.8788  2.7703
  138bbb    H12 4158   4.751   7.051   7.026  0.2855 -1.2762  0.5912
  138bbb     C7 4159   4.492   7.583   6.995  0.2840 -0.6412 -0.2632
  138bbb    H13 4160   4.492   7.630   7.095  1.5777  0.1719 -0.6231
  138bbb    H14 4161   4.386   7.555   6.991  0.6737 -2.0710 -1.6276
  138bbb     C8 4162   4.780   7.003   7.232 -0.2852  0.3942  0.7788
  138bbb    H15 4163   4.674   7.014   7.259 -1.1409 -0.8147 -1.7245
  138bbb    H16 4164   4.811   6.898   7.229 -1.9604 -0.1421  1.2460
  138bbb     C9 4165   5.158   7.534   6.928  0.2564  0.6527  0.2362
  138bbb    H17 4166   5.181   7.632   6.883 -1.4505  0.2921 -1.5525
  138bbb    H18 4167   5.204   7.452   6.873 -1.3165 -0.4632  0.5156
  138bbb     O1 4168   4.523   7.676   6.879  0.1994  0.1510 -0.1906
  138bbb    H19 4169   4.784   7.300   6.925 -0.8214 -1.1943  0.5691
  139bbb     N1 4170   4.004   8.513   7.365  0.1350 -0.5755 -0.1648
  139bbb     C1 4171   4.131   8.584   7.323 -0.2476 -0.6175 -0.7179
  139bbb     H1 4172   4.203   8.504   7.305  0.4135  0.1544 -1.6093
  139bbb     H2 4173   4.174   8.647   7.400 -0.4064 -1.4113  0.0317
  139bbb     C2 4174   3.887   8.610   7.379 -0.2577 -0.4280  0.6116
  139bbb     H3 4175   3.867   8.647   7.278 -1.0110  1.3753  1.3753
  139bbb     H4 4176   3.910   8.696   7.443 -3.1792  0.5425  0.5179
  139bbb     C3 4177   3.969   8.408   7.261  0.2328 -0.5508 -0.3895
  139bbb     H5 4178   3.932   8.460   7.173  0.7050 -0.0530 -0.2958
  139bbb     H6 4179   3.883   8.359   7.307  1.0051  0.1658  1.9656
  139bbb     C4 4180   4.080   8.295   7.246  0.4305 -0.7832  0.3819
  139bbb     H7 4181   4.101   8.253   7.345 -2.8342 -0.4244  1.3462
  139bbb     H8 4182   4.173   8.330   7.199 -1.1941  1.2161 -1.5784
  139bbb     C5 4183   4.125   8.674   7.206  0.0522  0.4906 -0.2528
  139bbb     H9 4184   4.053   8.754   7.228  1.4341  1.7835 -0.2849
  139bbb    H10 4185   4.089   8.612   7.123  1.4175 -0.1269 -0.4010
  139bbb     C6 4186   3.761   8.553   7.439 -0.0226 -0.4723 -0.1092
  139bbb    H11 4187   3.784   8.487   7.523  1.2966 -0.0399 -0.1127
  139bbb    H12 4188   3.714   8.497   7.357 -1.2150  0.7276 -0.2993
  139bbb     C7 4189   4.016   8.187   7.159  0.6110 -0.0149 -0.5402
  139bbb    H13 4190   3.950   8.231   7.083  0.5229  0.3528 -0.2546
  139bbb    H14 4191   3.945   8.124   7.215 -0.3761  0.3310 -1.3791
  139bbb     C8 4192   3.659   8.664   7.475  0.0212  0.3880 -0.4316
  139bbb    H15 4193   3.561   8.623   7.503 -0.0253  1.2440  0.7185
  139bbb    H16 4194   3.695   8.726   7.558 -0.2558 -0.2652  0.1823
  139bbb     C9 4195   4.259   8.730   7.169 -0.0147 -0.2112  0.3225
  139bbb    H17 4196   4.258   8.779   7.071  0.7559 -0.0021  0.4150
  139bbb    H18 4197   4.328   8.646   7.158 -0.5287 -0.4393 -1.3821
  139bbb     O1 4198   4.118   8.104   7.092  0.0533  0.4333  0.0495
  139bbb    H19 4199   4.020   8.471   7.458  1.9574 -0.9503 -0.6017
  140bbb     N1 4200   3.520   8.227   6.679  0.1159 -0.2525  1.0613
  140bbb     C1 4201   3.523   8.137   6.800  0.6138 -0.1105  0.2760
  140bbb     H1 4202   3.524   8.202   6.888  0.4402 -0.6140  0.6517
  140bbb     H2 4203   3.617   8.082   6.804  0.4381 -0.3467  1.5467
  140bbb     C2 4204   3.398   8.311   6.681 -0.1120 -0.0592  0.1940
  140bbb     H3 4205   3.319   8.238   6.698 -1.2156  1.2386  0.7949
  140bbb     H4 4206   3.390   8.346   6.578  2.4251 -0.8278 -0.3325
  140bbb     C3 4207   3.644   8.311   6.668  0.8955 -0.0131 -0.0809
  140bbb     H5 4208   3.663   8.380   6.750  0.7835  0.5166 -0.4961
  140bbb     H6 4209   3.624   8.372   6.579 -0.1180 -0.6193 -0.2910
  140bbb     C4 4210   3.760   8.232   6.641 -0.4830  0.2189  0.4342
  140bbb     H7 4211   3.777   8.163   6.725 -0.4963  0.1943  0.4162
  140bbb     H8 4212   3.845   8.299   6.626 -1.1495  0.7760 -1.0507
  140bbb     C5 4213   3.413   8.030   6.813 -0.3157 -0.2547 -0.3793
  140bbb     H9 4214   3.312   8.069   6.796 -0.4907  1.5401  3.6518
  140bbb    H10 4215   3.416   7.988   6.914  1.9643  0.6104 -0.0324
  140bbb     C6 4216   3.388   8.433   6.778 -0.4079 -0.2387 -0.4724
  140bbb    H11 4217   3.479   8.495   6.775 -1.0272  1.0539  3.0476
  140bbb    H12 4218   3.394   8.397   6.881  0.6997  0.3774 -0.2973
  140bbb     C7 4219   3.748   8.141   6.514 -0.1295  0.6026 -0.7504
  140bbb    H13 4220   3.686   8.056   6.546  0.3077 -0.0699 -1.6258
  140bbb    H14 4221   3.843   8.102   6.476  0.8127  0.3463  1.7107
  140bbb     C8 4222   3.267   8.525   6.742 -0.3832  0.3988 -0.0549
  140bbb    H15 4223   3.292   8.555   6.640  0.6275 -0.2186 -0.0047
  140bbb    H16 4224   3.177   8.464   6.736  0.8337 -1.3772 -1.1832
  140bbb     C9 4225   3.434   7.917   6.704  0.2963 -0.0618 -1.1053
  140bbb    H17 4226   3.432   7.962   6.604  2.3937 -0.0574 -1.1933
  140bbb    H18 4227   3.348   7.848   6.710  0.4283 -0.0990  1.1502
  140bbb     O1 4228   3.685   8.219   6.410 -0.2531  0.1255 -0.2505
  140bbb    H19 4229   3.517   8.164   6.597 -0.4092  0.8627  0.2045
  141bbb     N1 4230   3.629   9.110   6.745 -0.4264 -0.3194  0.0618
  141bbb     C1 4231   3.518   9.186   6.820 -0.0459  0.3185 -0.2648
  141bbb     H1 4232   3.558   9.208   6.919 -2.3385  1.2066  0.5202
  141bbb     H2 4233   3.429   9.122   6.822  0.3534 -0.3110 -1.3842
  141bbb     C2 4234   3.763   9.186   6.756 -0.3171  0.0387 -0.2852
  141bbb     H3 4235   3.793   9.180   6.861  0.5306  3.5989 -0.2003
  141bbb     H4 4236   3.741   9.290   6.732 -0.0170  0.1902  0.0749
  141bbb     C3 4237   3.643   8.968   6.797  0.4315  0.0541 -0.0242
  141bbb     H5 4238   3.688   8.966   6.897 -0.6134 -0.3679  0.4518
  141bbb     H6 4239   3.718   8.918   6.736  0.0363  0.9823 -1.3043
  141bbb     C4 4240   3.517   8.869   6.796 -0.1148 -0.1251 -0.0671
  141bbb     H7 4241   3.432   8.923   6.839  0.6944  1.0275  0.1416
  141bbb     H8 4242   3.533   8.779   6.857  0.8319  0.0206 -0.0816
  141bbb     C5 4243   3.472   9.318   6.749 -0.3422 -0.2655 -0.2240
  141bbb     H9 4244   3.557   9.383   6.723 -0.1807  0.5881  2.1645
  141bbb    H10 4245   3.408   9.373   6.819 -1.4468 -0.0350 -1.3769
  141bbb     C6 4246   3.886   9.144   6.666  0.1326  0.7025 -0.4916
  141bbb    H11 4247   3.854   9.162   6.562 -0.3621 -1.7556 -0.8440
  141bbb    H12 4248   3.909   9.037   6.679  0.7782  0.9563  0.5163
  141bbb     C7 4249   3.490   8.823   6.653  0.6816 -0.4208 -0.4452
  141bbb    H13 4250   3.471   8.913   6.592 -3.9109 -1.2412 -0.6220
  141bbb    H14 4251   3.401   8.759   6.647  0.0343  0.3018  1.0876
  141bbb     C8 4252   4.007   9.228   6.686 -0.0833  0.2420  0.0641
  141bbb    H15 4253   4.045   9.224   6.789 -0.6351  2.3771  0.3866
  141bbb    H16 4254   4.084   9.195   6.615  0.5481  1.1804  0.3051
  141bbb     C9 4255   3.412   9.281   6.616  0.2936 -0.5334  0.8380
  141bbb    H17 4256   3.371   9.375   6.578  0.4590  0.3237  2.6490
  141bbb    H18 4257   3.331   9.211   6.637 -0.4284 -0.8682 -2.5371
  141bbb     O1 4258   3.601   8.753   6.591 -0.1134 -0.3811 -0.2988
  141bbb    H19 4259   3.597   9.104   6.648 -1.3800 -0.4471  0.3769
  142bbb     N1 4260   8.408   6.243   4.399 -0.1915 -0.0803 -0.0640
  142bbb     C1 4261   8.439   6.368   4.310 -0.6087 -0.5584  0.3352
  142bbb     H1 4262   8.407   6.351   4.208 -0.1741  3.9383 -0.7618
  142bbb     H2 4263   8.548   6.367   4.310 -0.5647  1.1675 -0.3869
  142bbb     C2 4264   8.453   6.119   4.321  0.6743  0.5671  0.1850
  142bbb     H3 4265   8.439   6.028   4.379 -2.5489 -0.3049 -1.7417
  142bbb     H4 4266   8.560   6.120   4.303  1.0448  0.8425  2.1215
  142bbb     C3 4267   8.477   6.258   4.534  0.0466 -0.6125 -0.3810
  142bbb     H5 4268   8.437   6.356   4.560  1.8750  0.2843 -0.7846
  142bbb     H6 4269   8.582   6.260   4.505 -0.0683 -0.7291 -0.8179
  142bbb     C4 4270   8.459   6.155   4.641  0.4056  0.3312 -0.1965
  142bbb     H7 4271   8.551   6.108   4.675  1.3787  1.8554 -0.6233
  142bbb     H8 4272   8.385   6.083   4.605  1.0574 -0.4057 -0.0736
  142bbb     C5 4273   8.387   6.510   4.352 -0.3434 -0.0833 -0.6629
  142bbb     H9 4274   8.437   6.539   4.445 -0.1464  0.9165 -1.0658
  142bbb    H10 4275   8.283   6.497   4.383 -0.6254  1.9622 -0.6232
  142bbb     C6 4276   8.371   6.096   4.199 -0.1610  0.6369 -0.5797
  142bbb    H11 4277   8.396   6.171   4.123 -3.1829  2.2680 -0.1385
  142bbb    H12 4278   8.264   6.105   4.223  0.3264  0.0504  2.1761
  142bbb     C7 4279   8.387   6.206   4.771 -0.3907  0.0854 -0.0207
  142bbb    H13 4280   8.372   6.120   4.838  0.9850  1.1890  1.7842
  142bbb    H14 4281   8.288   6.251   4.756  0.2332  1.5288  0.0018
  142bbb     C8 4282   8.388   5.955   4.137 -0.1296  0.0253 -1.0060
  142bbb    H15 4283   8.343   5.886   4.209 -1.9623  0.7087 -1.4345
  142bbb    H16 4284   8.341   5.946   4.039  2.7760  1.8232 -2.7011
  142bbb     C9 4285   8.415   6.620   4.245 -0.3985  0.8618  0.6119
  142bbb    H17 4286   8.343   6.702   4.259 -0.6785  1.2284 -2.2349
  142bbb    H18 4287   8.396   6.582   4.143 -0.3252  1.0753  0.5180
  142bbb     O1 4288   8.460   6.317   4.830 -0.2915  0.4193  0.1696
  142bbb    H19 4289   8.306   6.230   4.410 -0.4310  1.5201 -0.1366
  143bbb     N1 4290   9.037   6.338   4.800  0.6708  0.1691 -0.4366
  143bbb     C1 4291   8.992   6.208   4.752  0.5380  0.3818  0.0198
  143bbb     H1 4292   8.918   6.175   4.825  1.5531  1.8796  1.8166
  143bbb     H2 4293   9.068   6.130   4.751  0.0219 -0.1257 -0.0643
  143bbb     C2 4294   9.117   6.413   4.694  0.1117  0.1379  0.1948
  143bbb     H3 4295   9.139   6.509   4.739 -2.8499  0.9814  0.0413
  143bbb     H4 4296   9.053   6.428   4.606 -0.8213 -0.0865  0.8208
  143bbb     C3 4297   8.919   6.423   4.836  0.4193  0.1078  0.8260
  143bbb     H5 4298   8.853   6.363   4.899  0.0301 -0.3659 -0.0095
  143bbb     H6 4299   8.856   6.440   4.748  0.3490 -1.1124  0.6158
  143bbb     C4 4300   8.947   6.559   4.916  0.0475 -0.2138  0.0981
  143bbb     H7 4301   8.853   6.615   4.909  0.5610  0.6931  0.4314
  143bbb     H8 4302   9.026   6.619   4.871  0.1803 -0.1302  0.4446
  143bbb     C5 4303   8.911   6.200   4.626 -0.1280 -0.6112 -0.0422
  143bbb     H9 4304   8.967   6.222   4.534 -0.7952 -0.8061 -0.5034
  143bbb    H10 4305   8.833   6.276   4.638  0.4737 -0.1617  1.1571
  143bbb     C6 4306   9.255   6.356   4.656 -0.1761  0.7280  0.0434
  143bbb    H11 4307   9.258   6.247   4.667  0.0581  0.8326  1.1076
  143bbb    H12 4308   9.333   6.391   4.725  0.4990  0.7281 -0.6911
  143bbb     C7 4309   8.990   6.541   5.061 -0.7200 -0.3357 -0.1370
  143bbb    H13 4310   9.027   6.638   5.095 -1.0589  0.3529 -1.6461
  143bbb    H14 4311   9.074   6.471   5.063  0.3551  0.9365  2.0903
  143bbb     C8 4312   9.286   6.404   4.510  0.2815 -0.4076  0.1532
  143bbb    H15 4313   9.328   6.506   4.507 -1.1617  0.1927 -1.6641
  143bbb    H16 4314   9.365   6.338   4.471  1.2314 -0.3794  1.8996
  143bbb     C9 4315   8.854   6.055   4.605 -0.2963  0.0832  0.5781
  143bbb    H17 4316   8.921   5.987   4.550 -0.5524  0.9168 -0.8090
  143bbb    H18 4317   8.763   6.056   4.545  1.6761  0.1487 -2.6455
  143bbb     O1 4318   8.883   6.490   5.145  0.0415  0.2726  0.0938
  143bbb    H19 4319   9.095   6.329   4.885  0.9014 -1.0598 -0.7028
  144bbb     N1 4320   9.664   6.934   5.168  0.1674  0.4355 -0.5573
  144bbb     C1 4321   9.628   6.891   5.024  0.6401 -0.1020 -0.1173
  144bbb     H1 4322   9.532   6.839   5.014  0.0473  1.2881 -2.3347
  144bbb     H2 4323   9.707   6.821   5.000 -0.5830 -1.9721  1.0366
  144bbb     C2 4324   9.769   7.039   5.178 -0.0081 -0.0465  0.0320
  144bbb     H3 4325   9.714   7.132   5.162  1.3480  0.4163 -2.6019
  144bbb     H4 4326   9.832   7.045   5.088  0.6916  0.4808  0.5392
  144bbb     C3 4327   9.544   6.983   5.248  0.8238 -0.3474  0.2803
  144bbb     H5 4328   9.505   7.070   5.195  0.4327 -1.1462 -0.7881
  144bbb     H6 4329   9.568   7.009   5.351 -2.1890 -1.3997  1.3220
  144bbb     C4 4330   9.423   6.887   5.256  0.4489  0.2781  0.0199
  144bbb     H7 4331   9.451   6.803   5.321  1.4217 -0.5196 -1.3854
  144bbb     H8 4332   9.393   6.853   5.157 -0.9321  0.4732  0.3393
  144bbb     C5 4333   9.614   6.999   4.909  0.1409  0.6515 -0.6095
  144bbb     H9 4334   9.619   6.948   4.812 -1.1549 -0.8207  0.0529
  144bbb    H10 4335   9.696   7.071   4.921 -0.6093  1.6280 -1.1788
  144bbb     C6 4336   9.867   7.033   5.298 -0.0417 -0.0864  0.2688
  144bbb    H11 4337   9.894   6.930   5.327 -0.2331 -0.6236 -1.3573
  144bbb    H12 4338   9.817   7.071   5.388  0.7772  0.3599  0.5416
  144bbb     C7 4339   9.312   6.956   5.336 -0.2860 -0.2000  0.4198
  144bbb    H13 4340   9.339   6.986   5.438  1.1252 -0.7472  0.2269
  144bbb    H14 4341   9.231   6.884   5.346 -1.2383  0.6197 -0.9343
  144bbb     C8 4342   9.989   7.115   5.277 -0.9953  0.0382  0.7097
  144bbb    H15 4343   9.959   7.219   5.261 -0.9850 -0.1949 -0.9259
  144bbb    H16 4344  10.051   7.098   5.367 -1.1217 -2.1386  0.4420
  144bbb     C9 4345   9.471   7.068   4.917 -0.1948 -0.3284  0.0324
  144bbb    H17 4346   9.470   7.156   4.851  0.2801 -0.5629 -0.2960
  144bbb    H18 4347   9.458   7.110   5.017 -1.1532 -1.9136  0.6011
  144bbb     O1 4348   9.261   7.077   5.263  0.2740  0.1968  0.1155
  144bbb    H19 4349   9.705   6.849   5.209 -0.3803 -0.4196 -1.7223
  145bbb     N1 4350   9.242   7.617   5.575  0.4603 -0.3540  0.2600
  145bbb     C1 4351   9.197   7.475   5.615 -0.5425  0.3115  0.0020
  145bbb     H1 4352   9.090   7.483   5.634 -0.2100  0.1596  2.2291
  145bbb     H2 4353   9.237   7.461   5.716  2.3616 -2.0072 -1.3299
  145bbb     C2 4354   9.387   7.645   5.608 -1.3341  0.7591 -0.3434
  145bbb     H3 4355   9.408   7.619   5.712 -1.0752  0.3511 -0.4941
  145bbb     H4 4356   9.387   7.753   5.621  0.9596  0.8320 -0.5488
  145bbb     C3 4357   9.208   7.640   5.429  0.8440  0.0676  0.6052
  145bbb     H5 4358   9.107   7.608   5.405 -0.4851  3.3361  1.3598
  145bbb     H6 4359   9.273   7.581   5.364 -1.8161 -0.7636 -1.4842
  145bbb     C4 4360   9.212   7.785   5.373  0.5613 -0.1299 -0.2485
  145bbb     H7 4361   9.312   7.812   5.338  0.2370 -1.6808 -2.5809
  145bbb     H8 4362   9.179   7.858   5.448  0.1079  0.9372 -1.4718
  145bbb     C5 4363   9.246   7.359   5.522 -0.1003 -0.3521  0.1517
  145bbb     H9 4364   9.355   7.363   5.516 -0.1445  2.5056  0.1719
  145bbb    H10 4365   9.216   7.374   5.417 -1.1223 -0.9608  0.3423
  145bbb     C6 4366   9.499   7.626   5.502 -0.8812  1.0555 -0.0767
  145bbb    H11 4367   9.480   7.667   5.402 -1.2599 -1.6202 -1.1856
  145bbb    H12 4368   9.509   7.519   5.479  3.3667  0.8846  1.5370
  145bbb     C7 4369   9.121   7.814   5.252 -0.7799 -0.0630 -0.2753
  145bbb    H13 4370   9.142   7.918   5.223  2.0570 -0.8631 -1.4637
  145bbb    H14 4371   9.018   7.809   5.288 -0.5502 -3.0348  0.2376
  145bbb     C8 4372   9.636   7.664   5.550  0.2393  0.2010 -0.1371
  145bbb    H15 4373   9.682   7.598   5.624  0.0498  0.2888  0.0585
  145bbb    H16 4374   9.704   7.669   5.464  0.1448 -0.0238 -0.2264
  145bbb     C9 4375   9.185   7.223   5.552 -0.1106  0.0823 -0.0509
  145bbb    H17 4376   9.231   7.196   5.648 -0.8370  0.0309  0.2885
  145bbb    H18 4377   9.196   7.150   5.470 -3.0525  0.9598 -1.3885
  145bbb     O1 4378   9.157   7.719   5.148  0.2115 -0.5110 -0.6852
  145bbb    H19 4379   9.183   7.682   5.628  0.6415 -0.3296  0.4349
  146bbb     N1 4380   7.088   7.826   3.381  0.1164  0.1087 -0.4014
  146bbb     C1 4381   6.954   7.897   3.405 -1.0551  0.1921 -0.5613
  146bbb     H1 4382   6.909   7.907   3.306  0.6718 -2.4166 -1.7181
  146bbb     H2 4383   6.990   7.994   3.440 -1.0825  0.1447 -0.3978
  146bbb     C2 4384   7.068   7.688   3.317 -0.5059  0.3094  1.0805
  146bbb     H3 4385   7.012   7.619   3.381  0.2770 -2.4157 -0.9545
  146bbb     H4 4386   7.165   7.638   3.312 -0.7979 -0.1375 -0.8962
  146bbb     C3 4387   7.174   7.909   3.286 -0.4909 -0.1442 -0.2175
  146bbb     H5 4388   7.122   7.914   3.190 -0.4029  0.8153 -0.2326
  146bbb     H6 4389   7.263   7.849   3.273  0.2316  0.3277  2.0334
  146bbb     C4 4390   7.213   8.048   3.338 -0.7856 -0.0011  0.2699
  146bbb     H7 4391   7.123   8.105   3.362 -0.6483 -0.4773  2.0475
  146bbb     H8 4392   7.268   8.101   3.259  1.4561  0.8609  2.2842
  146bbb     C5 4393   6.860   7.838   3.505  0.1778  0.3224 -0.4201
  146bbb     H9 4394   6.797   7.918   3.546  0.8914  0.3017  0.7728
  146bbb    H10 4395   6.917   7.793   3.588 -0.1934 -0.5881 -0.6584
  146bbb     C6 4396   7.005   7.693   3.174  0.1015  0.7594 -0.4864
  146bbb    H11 4397   7.084   7.727   3.107  1.2336  0.7689  0.8112
  146bbb    H12 4398   6.919   7.760   3.160  1.4683  2.6349 -0.2645
  146bbb     C7 4399   7.301   8.044   3.467 -0.1321 -0.2207 -0.0318
  146bbb    H13 4400   7.326   8.149   3.486 -0.6565 -0.0127 -0.4723
  146bbb    H14 4401   7.389   7.980   3.455  0.2652 -0.0131  1.5174
  146bbb     C8 4402   6.968   7.551   3.128  0.0145 -0.1907 -0.1098
  146bbb    H15 4403   6.865   7.548   3.089 -0.4090  3.1579  0.5207
  146bbb    H16 4404   7.038   7.529   3.046  0.2627 -2.1267  0.5640
  146bbb     C9 4405   6.765   7.731   3.443  0.1396  0.2641 -0.2450
  146bbb    H17 4406   6.708   7.681   3.522  0.8290 -0.1799 -0.0142
  146bbb    H18 4407   6.819   7.650   3.392  1.0394  0.7934 -0.1478
  146bbb     O1 4408   7.226   7.998   3.579  0.3649 -0.1543 -0.7224
  146bbb    H19 4409   7.139   7.826   3.470 -0.5117  2.8193  0.0411
  147bbb     N1 4410   6.381   7.366   4.033 -0.2843 -0.2334 -0.2735
  147bbb     C1 4411   6.337   7.425   4.163  0.4398  0.4741 -0.5206
  147bbb     H1 4412   6.325   7.343   4.234  2.2311  0.9789  0.4471
  147bbb     H2 4413   6.242   7.475   4.145  0.0119 -0.2910 -0.4074
  147bbb     C2 4414   6.265   7.309   3.951 -0.0399  0.2076 -0.8425
  147bbb     H3 4415   6.297   7.334   3.850  1.4346 -0.0348 -0.4486
  147bbb     H4 4416   6.174   7.364   3.977 -0.9344 -1.9145  0.8356
  147bbb     C3 4417   6.443   7.470   3.938 -0.2298  0.5236 -0.3152
  147bbb     H5 4418   6.468   7.558   3.996 -0.4035  0.6982 -0.5039
  147bbb     H6 4419   6.370   7.515   3.870  0.8328  1.0956 -1.1029
  147bbb     C4 4420   6.565   7.425   3.860 -0.3336 -0.2518  0.1484
  147bbb     H7 4421   6.550   7.341   3.792 -0.9828  0.2573 -0.3578
  147bbb     H8 4422   6.644   7.386   3.925  0.5258 -1.1797 -1.3958
  147bbb     C5 4423   6.424   7.522   4.248 -1.0199  0.3252 -0.1069
  147bbb     H9 4424   6.450   7.607   4.184  1.2601  0.4695  0.9013
  147bbb    H10 4425   6.524   7.479   4.264 -0.7907  0.3633 -1.3038
  147bbb     C6 4426   6.242   7.155   3.974  0.2698  0.1184 -0.3071
  147bbb    H11 4427   6.157   7.131   3.909 -0.5616  1.8770  0.0668
  147bbb    H12 4428   6.213   7.134   4.078 -0.2436 -2.2656 -0.8671
  147bbb     C7 4429   6.625   7.544   3.784  0.1666 -0.1962  0.2808
  147bbb    H13 4430   6.549   7.577   3.712 -0.5594 -0.6680  0.8048
  147bbb    H14 4431   6.712   7.512   3.727 -0.2507  0.9633 -1.0522
  147bbb     C8 4432   6.373   7.078   3.948 -0.0931  0.3192  1.1548
  147bbb    H15 4433   6.443   7.114   4.024  1.5874 -1.8916  0.7420
  147bbb    H16 4434   6.382   6.971   3.969  3.1271  0.3367  0.4378
  147bbb     C9 4435   6.369   7.579   4.379 -0.1913  0.0299 -0.9083
  147bbb    H17 4436   6.318   7.673   4.352 -3.9988 -1.9260 -1.1311
  147bbb    H18 4437   6.445   7.600   4.455 -0.8613  2.1158 -0.7455
  147bbb     O1 4438   6.659   7.650   3.874  0.0968 -0.2280  0.3631
  147bbb    H19 4439   6.447   7.292   4.061  1.0901  1.2089  0.4139
  148bbb     N1 4440   7.253   6.588   3.248 -0.2796 -0.6093 -0.6511
  148bbb     C1 4441   7.270   6.451   3.322  0.4103  0.4777  0.1654
  148bbb     H1 4442   7.224   6.375   3.259 -1.5374  0.9532  0.9386
  148bbb     H2 4443   7.207   6.448   3.411  1.6535 -1.1115  1.0453
  148bbb     C2 4444   7.108   6.597   3.201  0.8747  0.0869 -0.1615
  148bbb     H3 4445   7.046   6.637   3.281 -0.6180 -1.4838 -0.4722
  148bbb     H4 4446   7.065   6.500   3.176 -1.0687  0.3113  2.0134
  148bbb     C3 4447   7.288   6.692   3.365 -0.0574 -0.2461  0.1675
  148bbb     H5 4448   7.391   6.667   3.392 -1.0299 -4.1582  0.7422
  148bbb     H6 4449   7.222   6.669   3.448 -0.3426  0.2928  0.0970
  148bbb     C4 4450   7.291   6.843   3.339 -0.0070 -0.2546  0.0507
  148bbb     H7 4451   7.211   6.861   3.266 -0.1105  0.4474  0.3333
  148bbb     H8 4452   7.387   6.879   3.299 -1.2497  2.8151 -0.4449
  148bbb     C5 4453   7.410   6.408   3.358  0.1875  0.0492  0.5311
  148bbb     H9 4454   7.429   6.435   3.462 -0.7708 -1.0828  1.0305
  148bbb    H10 4455   7.478   6.469   3.297  0.2640 -0.4626  0.0980
  148bbb     C6 4456   7.089   6.675   3.071 -0.0181 -0.0658 -0.1866
  148bbb    H11 4457   7.140   6.622   2.989 -0.1099  0.7747 -0.7958
  148bbb    H12 4458   7.126   6.778   3.078  1.7065 -0.6431 -0.4144
  148bbb     C7 4459   7.255   6.920   3.469  0.4346  0.8506 -0.1924
  148bbb    H13 4460   7.156   6.891   3.504 -0.1417 -0.0581 -2.3698
  148bbb    H14 4461   7.249   7.025   3.438 -0.5612  1.0423  0.6200
  148bbb     C8 4462   6.940   6.678   3.039 -0.1241 -0.3379  0.5756
  148bbb    H15 4463   6.933   6.742   2.950  1.3970  0.4049  0.9561
  148bbb    H16 4464   6.906   6.577   3.013  0.0169 -0.7363  1.8953
  148bbb     C9 4465   7.434   6.257   3.338 -0.0346  0.0580 -0.5928
  148bbb    H17 4466   7.409   6.210   3.242  3.1572 -2.3702 -0.4032
  148bbb    H18 4467   7.371   6.199   3.406  0.8803  0.3172  0.4992
  148bbb     O1 4468   7.351   6.902   3.569 -0.2263  0.0240 -0.1829
  148bbb    H19 4469   7.316   6.602   3.168  0.0853  1.4381 -0.0648
  149bbb     N1 4470   8.088   7.129   3.523 -0.1551 -0.1326 -0.4518
  149bbb     C1 4471   8.168   7.103   3.655 -0.2446 -0.1673  0.3304
  149bbb     H1 4472   8.274   7.093   3.631  0.3823 -1.2040  3.2195
  149bbb     H2 4473   8.142   7.003   3.689  0.9265 -0.1614  1.2882
  149bbb     C2 4474   8.167   7.223   3.436  0.1090 -0.8373  0.1308
  149bbb     H3 4475   8.254   7.171   3.395  1.0701 -0.4781  1.6527
  149bbb     H4 4476   8.201   7.296   3.510 -0.7168 -1.0319  0.7079
  149bbb     C3 4477   8.064   6.998   3.446  0.0421 -0.3281 -0.2874
  149bbb     H5 4478   8.145   6.925   3.454  1.6059  1.2748 -0.9883
  149bbb     H6 4479   8.058   7.027   3.341 -1.1147 -3.1251 -1.0992
  149bbb     C4 4480   7.922   6.931   3.483 -0.1932  0.1898  0.0482
  149bbb     H7 4481   7.907   6.856   3.404  1.9732 -1.5809  1.1947
  149bbb     H8 4482   7.834   6.997   3.487 -0.1994  0.1506  0.7144
  149bbb     C5 4483   8.135   7.208   3.765 -0.4056 -0.3382  0.2368
  149bbb     H9 4484   8.034   7.193   3.804 -0.1546  0.5727  1.3023
  149bbb    H10 4485   8.143   7.310   3.724  0.2167 -1.3602 -2.4101
  149bbb     C6 4486   8.080   7.293   3.324  0.0322 -0.2557 -0.4410
  149bbb    H11 4487   8.122   7.393   3.306 -0.3328 -0.0360 -0.0975
  149bbb    H12 4488   7.975   7.309   3.353 -0.4209 -1.7432 -1.1832
  149bbb     C7 4489   7.921   6.860   3.619  0.0167  0.3691 -0.4128
  149bbb    H13 4490   7.992   6.776   3.627 -0.0923  0.4627  3.3981
  149bbb    H14 4491   7.825   6.810   3.634  1.0090 -1.1857  1.1941
  149bbb     C8 4492   8.064   7.212   3.190 -0.2651  0.0549  0.1126
  149bbb    H15 4493   8.005   7.126   3.223 -0.4270 -0.4284 -1.3765
  149bbb    H16 4494   7.999   7.264   3.118 -2.1693 -3.9734 -1.3446
  149bbb     C9 4495   8.235   7.194   3.878  0.9364 -0.8907  0.5077
  149bbb    H17 4496   8.327   7.243   3.844  0.3937 -0.8426 -0.9658
  149bbb    H18 4497   8.259   7.088   3.890 -0.9740 -1.1730  2.3449
  149bbb     O1 4498   7.936   6.941   3.737 -0.2509  0.3850  0.3934
  149bbb    H19 4499   7.999   7.166   3.559  0.6612 -0.6501  2.4046
  150bbb     N1 4500   6.989   4.710   5.220  0.2839 -0.8273  0.7624
  150bbb     C1 4501   7.018   4.765   5.353  0.0442 -0.4260 -0.2216
  150bbb     H1 4502   6.927   4.770   5.413 -0.9863  0.1694 -1.7699
  150bbb     H2 4503   7.074   4.859   5.349  0.3131 -0.3307  2.9380
  150bbb     C2 4504   6.900   4.583   5.208 -0.2609  0.0747 -0.4181
  150bbb     H3 4505   6.958   4.504   5.255  1.1443  0.6416 -1.1394
  150bbb     H4 4506   6.889   4.565   5.101 -1.1476  0.0200 -0.3257
  150bbb     C3 4507   6.907   4.811   5.138 -0.1732 -0.2604  0.1415
  150bbb     H5 4508   6.838   4.857   5.208  0.4176 -1.2864  1.4360
  150bbb     H6 4509   6.837   4.762   5.070  0.1343 -0.6300  0.0843
  150bbb     C4 4510   6.988   4.927   5.063 -0.7239 -0.2274  0.0995
  150bbb     H7 4511   6.910   4.998   5.031  1.1827  1.2621 -1.5434
  150bbb     H8 4512   7.041   4.887   4.976 -1.3897  1.1769 -0.9822
  150bbb     C5 4513   7.098   4.664   5.442 -0.2248 -0.5712 -0.1229
  150bbb     H9 4514   7.197   4.662   5.395 -0.7910  0.2709 -1.4324
  150bbb    H10 4515   7.057   4.564   5.429 -0.6207 -0.4302  0.0312
  150bbb     C6 4516   6.758   4.595   5.269  0.1657 -0.0959  0.4993
  150bbb    H11 4517   6.702   4.676   5.219  1.8146  0.0491 -1.2348
  150bbb    H12 4518   6.758   4.617   5.376 -0.9090  1.3505  0.2556
  150bbb     C7 4519   7.095   5.003   5.150  0.8599 -1.4136  0.3530
  150bbb    H13 4520   7.131   5.092   5.097  1.3620 -0.0313  2.8817
  150bbb    H14 4521   7.178   4.933   5.165  1.5387 -1.7706 -3.8326
  150bbb     C8 4522   6.683   4.460   5.254 -0.4752  0.0494 -0.8037
  150bbb    H15 4523   6.585   4.475   5.300 -0.1662 -0.4890  0.0607
  150bbb    H16 4524   6.661   4.437   5.149  0.6232 -0.3135 -0.9709
  150bbb     C9 4525   7.101   4.702   5.592 -0.1677  0.0205 -0.7859
  150bbb    H17 4526   7.000   4.681   5.629 -0.4185 -0.4718 -1.7097
  150bbb    H18 4527   7.118   4.810   5.601 -1.9182  0.2254  0.6521
  150bbb     O1 4528   7.034   5.058   5.276 -0.6404 -1.1702  0.4782
  150bbb    H19 4529   7.083   4.692   5.182 -0.1270 -1.7428  0.1373
  151bbb     N1 4530   6.624   4.583   5.874 -0.3012  0.3794 -0.8158
  151bbb     C1 4531   6.512   4.555   5.977 -0.0740  0.1712  0.5471
  151bbb     H1 4532   6.424   4.509   5.932 -0.0280  0.2947  0.3287
  151bbb     H2 4533   6.474   4.654   6.002 -1.6313 -0.0217 -0.9200
  151bbb     C2 4534   6.624   4.470   5.782 -0.4037 -0.1742  0.2876
  151bbb     H3 4535   6.532   4.491   5.726  0.1875  1.3167 -0.1741
  151bbb     H4 4536   6.598   4.380   5.839 -0.4928 -0.9891 -0.9823
  151bbb     C3 4537   6.590   4.701   5.791 -0.4758 -1.0877  0.5652
  151bbb     H5 4538   6.661   4.702   5.709 -3.3856 -1.7514 -2.1781
  151bbb     H6 4539   6.610   4.783   5.860 -1.2366 -1.9826  1.8986
  151bbb     C4 4540   6.445   4.724   5.740 -0.0101 -0.5662 -0.0294
  151bbb     H7 4541   6.370   4.667   5.796  0.5515 -1.8905 -0.5799
  151bbb     H8 4542   6.444   4.678   5.640  1.3032  0.2357 -0.4332
  151bbb     C5 4543   6.542   4.492   6.113 -0.0696  0.2769  0.4665
  151bbb     H9 4544   6.446   4.489   6.166  0.4717  0.6936  1.5212
  151bbb    H10 4545   6.605   4.564   6.167 -1.5392  0.0466  2.6421
  151bbb     C6 4546   6.734   4.465   5.680 -0.6127  0.3902  0.5920
  151bbb    H11 4547   6.749   4.565   5.636 -0.3898 -0.0309 -0.3033
  151bbb    H12 4548   6.706   4.399   5.598  1.7326  0.1113 -0.0606
  151bbb     C7 4549   6.401   4.871   5.716 -1.0466 -0.2241 -0.3215
  151bbb    H13 4550   6.382   4.921   5.812  0.4428  0.6403 -0.4452
  151bbb    H14 4551   6.305   4.869   5.664 -0.7995 -0.3432 -0.7727
  151bbb     C8 4552   6.867   4.410   5.732  0.0298 -0.3140  0.3235
  151bbb    H15 4553   6.922   4.468   5.808  2.9811 -1.8491 -0.5122
  151bbb    H16 4554   6.843   4.312   5.775  0.9894 -0.3100  0.9014
  151bbb     C9 4555   6.608   4.350   6.106 -0.4345 -0.2565  0.1727
  151bbb    H17 4556   6.618   4.317   6.210 -0.1133  2.0412  0.9313
  151bbb    H18 4557   6.714   4.362   6.079 -0.8183 -0.2331 -1.4299
  151bbb     O1 4558   6.507   4.948   5.647 -0.0372  0.5959  0.4488
  151bbb    H19 4559   6.719   4.594   5.913 -1.3498 -0.4055  2.2054
  152bbb     N1 4560   6.430   6.358   6.937  0.0804  0.3812 -0.2405
  152bbb     C1 4561   6.393   6.459   7.043 -0.2831  0.3502  0.2982
  152bbb     H1 4562   6.325   6.530   6.995 -0.0894  0.7649  0.6371
  152bbb     H2 4563   6.486   6.515   7.050 -0.1822  0.5322 -1.8342
  152bbb     C2 4564   6.311   6.277   6.886 -0.8597  0.5753 -0.3403
  152bbb     H3 4565   6.247   6.239   6.967  0.0324 -1.1295 -0.3810
  152bbb     H4 4566   6.349   6.185   6.842 -2.0988 -1.3793  2.3505
  152bbb     C3 4567   6.516   6.419   6.832  0.0055 -0.1012 -0.1686
  152bbb     H5 4568   6.469   6.511   6.796 -2.3831 -0.7574  1.0661
  152bbb     H6 4569   6.518   6.347   6.750 -1.5805 -1.3132  0.7911
  152bbb     C4 4570   6.658   6.462   6.874 -0.9429  0.3332  0.8453
  152bbb     H7 4571   6.680   6.412   6.969 -0.2788  0.6134  0.8381
  152bbb     H8 4572   6.660   6.570   6.892  0.2500  0.4115  0.3159
  152bbb     C5 4573   6.354   6.409   7.186 -0.1295  0.2272  0.9307
  152bbb     H9 4574   6.287   6.322   7.187 -2.1074  1.6723  0.6897
  152bbb    H10 4575   6.287   6.480   7.236 -2.0862 -1.0703  0.2366
  152bbb     C6 4576   6.224   6.345   6.773 -0.0431 -0.2631 -0.0935
  152bbb    H11 4577   6.162   6.268   6.725  0.4101 -0.0682 -1.0154
  152bbb    H12 4578   6.297   6.382   6.701  1.3947 -1.0764  0.8830
  152bbb     C7 4579   6.762   6.434   6.768 -0.2510 -0.2595  0.3596
  152bbb    H13 4580   6.863   6.447   6.809 -0.3659 -0.9738  0.8941
  152bbb    H14 4581   6.746   6.515   6.695  1.0505  1.2885  1.6938
  152bbb     C8 4582   6.126   6.453   6.807 -1.1117  0.2803 -0.2125
  152bbb    H15 4583   6.181   6.547   6.791  1.2551 -1.2523 -1.9383
  152bbb    H16 4584   6.051   6.453   6.728  0.7767 -0.1648 -2.1020
  152bbb     C9 4585   6.483   6.380   7.269  0.4654 -0.0639 -0.3104
  152bbb    H17 4586   6.537   6.289   7.245  0.6271 -0.2363  0.6515
  152bbb    H18 4587   6.455   6.354   7.372  2.8577  0.2187  0.4544
  152bbb     O1 4588   6.747   6.301   6.706  0.1024  0.2539  0.1708
  152bbb    H19 4589   6.498   6.296   6.983 -0.2612  0.7090  0.7419
  153bbb     N1 4590   7.797   5.989   6.279  0.1898 -0.5893 -0.3628
  153bbb     C1 4591   7.760   5.878   6.181  0.1482  0.2889 -0.3822
  153bbb     H1 4592   7.847   5.840   6.128  1.4691  2.3749  0.2087
  153bbb     H2 4593   7.698   5.914   6.098  2.8456  0.2374 -2.5705
  153bbb     C2 4594   7.855   6.104   6.200  0.1217 -0.0827 -0.3459
  153bbb     H3 4595   7.776   6.179   6.198  2.3245  2.4204 -0.0218
  153bbb     H4 4596   7.876   6.063   6.101  1.2195  0.7174 -0.4698
  153bbb     C3 4597   7.676   6.031   6.359 -0.2702  0.2466 -0.9130
  153bbb     H5 4598   7.658   5.952   6.433 -3.2252  1.6233 -0.0161
  153bbb     H6 4599   7.595   6.051   6.289 -1.3270  1.8422  0.6722
  153bbb     C4 4600   7.687   6.163   6.449  0.3581 -0.6189  0.0797
  153bbb     H7 4601   7.715   6.250   6.388  0.0763 -0.9812 -0.5678
  153bbb     H8 4602   7.766   6.156   6.525  0.5687 -0.3500 -0.1129
  153bbb     C5 4603   7.688   5.760   6.248  0.2236 -0.1980 -0.4960
  153bbb     H9 4604   7.593   5.796   6.289 -0.4140 -0.1189 -2.0097
  153bbb    H10 4605   7.758   5.728   6.327  0.0421  0.4828 -0.0573
  153bbb     C6 4606   7.988   6.159   6.248  0.1631  0.1517 -0.6238
  153bbb    H11 4607   7.999   6.160   6.357  1.3262 -0.5556 -0.7209
  153bbb    H12 4608   8.003   6.252   6.193  0.3284  0.8819  0.6092
  153bbb     C7 4609   7.561   6.211   6.523 -0.6472 -0.0844 -0.6776
  153bbb    H13 4610   7.570   6.319   6.536 -0.5434  0.0401 -1.6505
  153bbb    H14 4611   7.553   6.167   6.623  0.9818  0.6916 -0.1686
  153bbb     C8 4612   8.105   6.073   6.191 -0.4593  1.1251 -0.0166
  153bbb    H15 4613   8.198   6.088   6.246 -1.1335 -1.4743  2.0410
  153bbb    H16 4614   8.075   5.968   6.200 -0.8164  1.0479 -1.7575
  153bbb     C9 4615   7.656   5.636   6.157  0.0904  0.2298  0.1233
  153bbb    H17 4616   7.562   5.656   6.104  0.3187  1.3124  0.0991
  153bbb    H18 4617   7.642   5.545   6.217  0.5837 -0.0194 -0.1371
  153bbb     O1 4618   7.444   6.173   6.454 -0.8433 -0.5260  0.1680
  153bbb    H19 4619   7.863   5.951   6.348 -0.9559  0.8664  1.6547
  154bbb     N1 4620   6.865   6.147   4.883  0.0444  0.2467 -0.5776
  154bbb     C1 4621   6.940   6.039   4.812 -0.7959  0.8018  0.4845
  154bbb     H1 4622   6.966   5.959   4.882 -1.2427 -0.5796 -0.8542
  154bbb     H2 4623   7.034   6.081   4.778  0.8995 -2.6266  0.5190
  154bbb     C2 4624   6.868   6.126   5.039  0.5599  0.0276  0.9567
  154bbb     H3 4625   6.862   6.224   5.087  0.2838  0.6060 -0.1975
  154bbb     H4 4626   6.961   6.079   5.071  0.9651  0.4534  0.4257
  154bbb     C3 4627   6.931   6.280   4.863 -0.2557  0.1499  0.5326
  154bbb     H5 4628   6.949   6.302   4.758 -0.7894 -0.0484  0.3978
  154bbb     H6 4629   7.029   6.274   4.911 -0.3005 -0.5748  0.5518
  154bbb     C4 4630   6.847   6.398   4.911 -0.2544 -0.1532 -0.8315
  154bbb     H7 4631   6.841   6.392   5.021 -1.3574  4.0363 -0.4974
  154bbb     H8 4632   6.749   6.402   4.863 -0.4288 -1.3674 -0.6204
  154bbb     C5 4633   6.869   5.974   4.693 -0.1704 -0.2600 -0.4122
  154bbb     H9 4634   6.940   5.910   4.640  0.8246  1.4779 -1.2536
  154bbb    H10 4635   6.828   6.048   4.624 -0.8389 -1.0336 -0.8627
  154bbb     C6 4636   6.744   6.043   5.090  0.1574  0.5140 -0.2664
  154bbb    H11 4637   6.731   5.955   5.027  1.1262 -2.1484  2.9573
  154bbb    H12 4638   6.649   6.098   5.078 -0.5460 -0.3766  0.9010
  154bbb     C7 4639   6.923   6.528   4.888  0.3756 -0.4101  0.3787
  154bbb    H13 4640   7.019   6.505   4.937  0.4330 -1.2885 -0.1332
  154bbb    H14 4641   6.868   6.594   4.956  0.4684 -1.1892  1.2423
  154bbb     C8 4642   6.761   6.003   5.240  0.5028 -0.9467  0.2689
  154bbb    H15 4643   6.798   6.087   5.299 -1.6305  1.1919 -1.2795
  154bbb    H16 4644   6.660   5.984   5.278 -0.3450  3.0919  0.4271
  154bbb     C9 4645   6.754   5.884   4.736  0.0824  0.6928  0.3195
  154bbb    H17 4646   6.703   5.840   4.650 -1.9994  3.5757 -0.0729
  154bbb    H18 4647   6.670   5.937   4.783 -0.7554 -1.8353  1.9425
  154bbb     O1 4648   6.926   6.582   4.754  0.3666 -0.4540  0.6631
  154bbb    H19 4649   6.768   6.140   4.850  0.1917 -2.3207 -0.6375
  155bbb     N1 4650   7.510   6.075   5.013 -0.0919 -0.1305  0.5288
  155bbb     C1 4651   7.470   6.096   5.159 -0.0089  0.9050  0.5603
  155bbb     H1 4652   7.427   6.002   5.195  0.3516  0.0419 -1.1404
  155bbb     H2 4653   7.390   6.169   5.165 -1.5354 -0.6488 -0.0248
  155bbb     C2 4654   7.573   5.944   4.981  0.2194 -0.3890  0.4907
  155bbb     H3 4655   7.669   5.935   5.032  1.6396  1.6362 -1.6238
  155bbb     H4 4656   7.594   5.951   4.874  2.0577  4.2373  0.9278
  155bbb     C3 4657   7.371   6.087   4.935 -0.0630  0.0918 -0.0786
  155bbb     H5 4658   7.326   6.177   4.978  0.2822  0.2052  0.0495
  155bbb     H6 4659   7.312   6.004   4.975  1.2312 -0.3153  1.0596
  155bbb     C4 4660   7.367   6.079   4.781 -0.4914  0.5274 -0.2402
  155bbb     H7 4661   7.268   6.054   4.743 -0.7800 -1.0111  1.4237
  155bbb     H8 4662   7.428   5.998   4.740  0.5275  1.7105 -1.1571
  155bbb     C5 4663   7.582   6.127   5.261  0.6674 -0.0571  0.0068
  155bbb     H9 4664   7.590   6.236   5.254  0.5050 -0.1136 -1.5689
  155bbb    H10 4665   7.681   6.086   5.239  0.8982  0.4755  0.0411
  155bbb     C6 4666   7.489   5.813   5.013 -0.0957  0.6886 -0.4936
  155bbb    H11 4667   7.434   5.783   4.923 -0.4959 -0.0878  0.0010
  155bbb    H12 4668   7.416   5.819   5.095 -0.3840 -0.3603 -0.6511
  155bbb     C7 4669   7.414   6.205   4.712 -0.3376 -0.6842  0.4130
  155bbb    H13 4670   7.445   6.186   4.609  1.1898  1.4516  0.4162
  155bbb    H14 4671   7.506   6.230   4.767 -1.2333  2.1307  0.7987
  155bbb     C8 4672   7.574   5.697   5.060 -1.0042 -0.1392 -0.6417
  155bbb    H15 4673   7.509   5.614   5.089  0.3024 -0.3333  2.0767
  155bbb    H16 4674   7.642   5.658   4.983  1.5308 -1.8334  2.2289
  155bbb     C9 4675   7.545   6.095   5.405 -0.1957  0.2297 -0.6605
  155bbb    H17 4676   7.464   6.162   5.436 -0.1928 -0.0052 -0.1475
  155bbb    H18 4677   7.636   6.107   5.466  0.0042 -2.1005 -0.4122
  155bbb     O1 4678   7.322   6.321   4.721 -0.1391 -0.1678 -0.7078
  155bbb    H19 4679   7.575   6.151   4.993  0.5963 -0.5249  1.2010
  156bbb     N1 4680   7.080   6.083   3.780  0.0059  0.1258 -0.1241
  156bbb     C1 4681   7.012   6.074   3.640 -0.5812 -0.1519 -0.3181
  156bbb     H1 4682   7.087   6.100   3.565  1.7747 -1.6028  1.4151
  156bbb     H2 4683   6.943   6.158   3.633 -0.0143  0.1694 -2.8689
  156bbb     C2 4684   7.144   6.217   3.787  0.2253 -0.4944  0.0468
  156bbb     H3 4685   7.171   6.243   3.890  2.7171  0.8369 -0.8565
  156bbb     H4 4686   7.074   6.295   3.755  0.8188 -0.6782 -1.8061
  156bbb     C3 4687   6.965   6.075   3.871  0.3973 -0.0311 -0.6206
  156bbb     H5 4688   6.914   5.979   3.863 -1.7566  0.9993 -0.0226
  156bbb     H6 4689   6.906   6.158   3.833  3.2486  0.2230 -5.3311
  156bbb     C4 4690   6.998   6.080   4.023 -0.3160  0.1537  0.2487
  156bbb     H7 4691   7.038   6.177   4.055 -1.0672  0.4016  0.4753
  156bbb     H8 4692   7.076   6.005   4.040 -1.9329 -1.3462  1.5834
  156bbb     C5 4693   6.936   5.950   3.602  0.0563 -0.0099 -0.9232
  156bbb     H9 4694   6.863   5.925   3.680  0.4072  0.6507 -0.3752
  156bbb    H10 4695   7.004   5.865   3.592 -0.0409 -0.3355  0.8817
  156bbb     C6 4696   7.268   6.236   3.700 -0.0084 -0.7451 -0.4013
  156bbb    H11 4697   7.294   6.342   3.704 -0.4032 -0.6297 -0.7974
  156bbb    H12 4698   7.234   6.219   3.597  0.2961  0.7514 -0.7651
  156bbb     C7 4699   6.878   6.038   4.114  0.3405 -0.1848 -0.0489
  156bbb    H13 4700   6.890   6.094   4.207 -0.1420 -1.1124  0.5834
  156bbb    H14 4701   6.878   5.933   4.146 -0.5051 -0.6199 -1.3596
  156bbb     C8 4702   7.395   6.157   3.736 -0.5784 -0.3592 -0.6979
  156bbb    H15 4703   7.485   6.190   3.682 -0.4157  1.7460  0.7346
  156bbb    H16 4704   7.418   6.183   3.840 -1.9207 -0.0031 -0.4716
  156bbb     C9 4705   6.864   5.960   3.468 -0.0326 -0.6487 -0.5386
  156bbb    H17 4706   6.803   5.871   3.447  0.2972 -1.6029  2.1748
  156bbb    H18 4707   6.929   5.973   3.380 -0.0177  2.3747 -0.1895
  156bbb     O1 4708   6.754   6.064   4.045  0.3254  0.0416  0.4883
  156bbb    H19 4709   7.150   6.008   3.793 -1.1904 -0.7513  1.4890
  157bbb     N1 4710   6.180   5.640   3.342  0.3388  0.0713  0.1633
  157bbb     C1 4711   6.027   5.653   3.319 -0.0140  0.0602  0.2244
  157bbb     H1 4712   5.980   5.672   3.416 -1.8493  2.1900 -0.9973
  157bbb     H2 4713   5.985   5.558   3.287 -2.4569  0.8575  0.9070
  157bbb     C2 4714   6.251   5.632   3.212  0.1382 -0.1743 -0.1386
  157bbb     H3 4715   6.270   5.737   3.189  0.1512 -0.5296 -1.9082
  157bbb     H4 4716   6.186   5.584   3.139  0.3836  1.1079 -1.2431
  157bbb     C3 4717   6.238   5.743   3.435  0.5906 -0.3923 -0.1039
  157bbb     H5 4718   6.246   5.844   3.394 -0.3300  0.0688  0.8060
  157bbb     H6 4719   6.343   5.716   3.446  1.0424  1.2542 -0.1123
  157bbb     C4 4720   6.166   5.753   3.574 -0.6272  0.6621  0.1987
  157bbb     H7 4721   6.161   5.649   3.609 -0.7081  0.1981 -1.1306
  157bbb     H8 4722   6.064   5.792   3.578 -0.9128  0.0203 -0.5364
  157bbb     C5 4723   5.979   5.771   3.231 -0.3458  0.0627  0.1254
  157bbb     H9 4724   6.004   5.749   3.127 -0.4599  1.1499 -0.1483
  157bbb    H10 4725   6.013   5.873   3.252 -0.5142  0.7296 -2.5093
  157bbb     C6 4726   6.393   5.567   3.221  0.0563  0.4652  0.0200
  157bbb    H11 4727   6.384   5.466   3.262  1.6392  0.8174  1.3106
  157bbb    H12 4728   6.455   5.624   3.291  0.5653 -0.9651  0.7737
  157bbb     C7 4729   6.233   5.840   3.674  0.3498  0.2650  0.0674
  157bbb    H13 4730   6.338   5.807   3.676  0.2762  0.0195 -0.1420
  157bbb    H14 4731   6.192   5.821   3.774  0.5626 -1.8062 -0.1995
  157bbb     C8 4732   6.449   5.554   3.080 -0.1282  0.2469 -0.0058
  157bbb    H15 4733   6.557   5.535   3.091  0.4107  1.9560 -1.7420
  157bbb    H16 4734   6.400   5.478   3.019 -3.1606  2.7995 -1.0344
  157bbb     C9 4735   5.828   5.776   3.246 -0.5390 -0.0392  0.2297
  157bbb    H17 4736   5.784   5.688   3.197 -0.6168  0.4271 -0.5434
  157bbb    H18 4737   5.788   5.862   3.192  1.3019 -1.0423 -2.9855
  157bbb     O1 4738   6.222   5.988   3.651  0.6367  0.0771 -0.2985
  157bbb    H19 4739   6.195   5.550   3.389 -2.3732  0.4915  2.0498
  158bbb     N1 4740   7.712   9.273   9.554  0.6181 -0.3839 -0.4528
  158bbb     C1 4741   7.761   9.369   9.663 -0.0754 -0.8582  0.2989
  158bbb     H1 4742   7.810   9.310   9.741  0.5634 -0.9961 -0.1970
  158bbb     H2 4743   7.684   9.423   9.718 -0.0374  0.4580 -0.8855
  158bbb     C2 4744   7.753   9.125   9.577  0.5030 -0.7283 -0.6578
  158bbb     H3 4745   7.712   9.063   9.497  0.9177 -1.1436 -0.5566
  158bbb     H4 4746   7.690   9.098   9.662  0.9914  1.2560  0.3964
  158bbb     C3 4747   7.563   9.278   9.576  0.3138  0.0732  0.2128
  158bbb     H5 4748   7.545   9.261   9.683  0.0417  1.9129  0.5044
  158bbb     H6 4749   7.517   9.203   9.512  1.7827 -1.2829  0.7059
  158bbb     C4 4750   7.479   9.408   9.540  0.5155  0.6772 -0.3981
  158bbb     H7 4751   7.488   9.420   9.432 -0.0833  2.8749 -0.2539
  158bbb     H8 4752   7.529   9.499   9.576  0.1285  0.7136  0.0673
  158bbb     C5 4753   7.873   9.478   9.628  0.2246  0.0267 -0.3645
  158bbb     H9 4754   7.831   9.554   9.561  0.5228  1.4208  0.9763
  158bbb    H10 4755   7.965   9.435   9.587  0.3939  0.6654 -0.6659
  158bbb     C6 4756   7.904   9.097   9.605  1.1215  0.2129  0.7300
  158bbb    H11 4757   7.929   9.137   9.704 -0.8047  1.1157  0.9187
  158bbb    H12 4758   7.974   9.143   9.534  0.8446  1.9055  1.4869
  158bbb     C7 4759   7.329   9.387   9.580 -1.0186  0.2476  0.3189
  158bbb    H13 4760   7.262   9.452   9.522 -1.2595  1.5172  1.9383
  158bbb    H14 4761   7.323   9.425   9.683  0.2524  0.7735  0.2200
  158bbb     C8 4762   7.937   8.945   9.608 -0.5371 -0.4646 -0.1104
  158bbb    H15 4763   8.045   8.934   9.616 -0.5518 -0.3117  0.3242
  158bbb    H16 4764   7.888   8.913   9.701 -0.6174  1.8838  0.7442
  158bbb     C9 4765   7.904   9.546   9.760  0.1515 -0.5085 -0.2568
  158bbb    H17 4766   7.822   9.600   9.808 -0.5143 -1.2152 -0.5928
  158bbb    H18 4767   7.978   9.627   9.756 -1.1029  0.7122  0.3908
  158bbb     O1 4768   7.296   9.246   9.573 -0.1095 -0.0668  0.3452
  158bbb    H19 4769   7.740   9.315   9.464  1.8589 -0.1873  0.0090
  159bbb     N1 4770   7.100   9.007  10.070 -0.8086  0.2739  0.4836
  159bbb     C1 4771   7.228   9.046  10.132 -0.7356 -0.5438 -0.5650
  159bbb     H1 4772   7.299   9.088  10.061  0.6522  2.3046  2.2891
  159bbb     H2 4773   7.273   8.956  10.176  1.2337 -0.0302 -1.4202
  159bbb     C2 4774   7.042   9.120   9.984  0.7236 -0.1648  0.0446
  159bbb     H3 4775   7.113   9.145   9.905  0.6090  0.1465  0.0419
  159bbb     H4 4776   7.035   9.205  10.051 -1.2453 -0.2195 -0.0444
  159bbb     C3 4777   7.121   8.884   9.993 -0.2528  0.7423 -0.1120
  159bbb     H5 4778   7.228   8.892   9.973  0.0063  1.6010  1.4822
  159bbb     H6 4779   7.070   8.887   9.896 -1.7910  2.0178  0.6793
  159bbb     C4 4780   7.085   8.756  10.075  0.0283  0.5379  0.4784
  159bbb     H7 4781   6.977   8.756  10.093 -0.3556 -2.6205 -1.0993
  159bbb     H8 4782   7.133   8.752  10.173  0.3488 -0.8615  0.2887
  159bbb     C5 4783   7.216   9.157  10.237  0.0729 -0.4957  0.0426
  159bbb     H9 4784   7.182   9.250  10.188  0.7462 -0.9253 -1.2560
  159bbb    H10 4785   7.317   9.185  10.269  0.2677 -0.7478 -0.3626
  159bbb     C6 4786   6.905   9.091   9.920  0.9203 -0.4171  0.5513
  159bbb    H11 4787   6.898   8.987   9.884  0.2692 -0.5995  1.1906
  159bbb    H12 4788   6.885   9.150   9.830 -1.7212 -2.4351 -0.3181
  159bbb     C7 4789   7.130   8.638   9.995 -0.5816 -0.2486  0.7610
  159bbb    H13 4790   7.080   8.546  10.028 -0.9201 -0.9052 -1.4290
  159bbb    H14 4791   7.238   8.622  10.011 -0.1057  1.8695 -0.0809
  159bbb     C8 4792   6.786   9.089  10.024 -0.2585  0.0411 -0.1871
  159bbb    H15 4793   6.758   9.192  10.050 -2.1047 -0.3202 -0.6688
  159bbb    H16 4794   6.692   9.052   9.982 -1.1664 -4.0085  4.4432
  159bbb     C9 4795   7.133   9.126  10.365 -0.2798  0.8366  0.6609
  159bbb    H17 4796   7.026   9.134  10.340 -0.1610  0.1742 -0.0851
  159bbb    H18 4797   7.170   9.196  10.441  4.4586 -0.3802 -0.2085
  159bbb     O1 4798   7.117   8.656   9.856  0.3493 -0.1874  0.1849
  159bbb    H19 4799   7.031   8.984  10.144 -0.4727 -1.6523  0.2426
  160bbb     N1 4800   6.219   9.410   9.609  0.3487  0.3610  0.8892
  160bbb     C1 4801   6.084   9.349   9.614 -0.0779 -0.0314  0.3747
  160bbb     H1 4802   6.018   9.431   9.643 -0.1235  0.1367 -0.2000
  160bbb     H2 4803   6.076   9.286   9.703 -0.8105 -0.3530  0.0967
  160bbb     C2 4804   6.243   9.518   9.714  0.2032  0.2422  0.4993
  160bbb     H3 4805   6.236   9.472   9.813  0.7088 -0.2205  0.3296
  160bbb     H4 4806   6.169   9.593   9.688  1.8728  1.3077 -1.3955
  160bbb     C3 4807   6.322   9.304   9.624 -0.1859  0.5897 -0.0879
  160bbb     H5 4808   6.418   9.354   9.611  0.3395 -0.3703  0.0207
  160bbb     H6 4809   6.300   9.232   9.545 -1.5434  0.4031  0.4335
  160bbb     C4 4810   6.320   9.225   9.759 -0.2656 -0.6077 -0.1177
  160bbb     H7 4811   6.219   9.190   9.784  0.6482 -1.4641  2.7501
  160bbb     H8 4812   6.353   9.283   9.846 -0.8611 -0.2599 -0.1163
  160bbb     C5 4813   6.034   9.295   9.482 -0.6079  0.1347  0.5645
  160bbb     H9 4814   6.096   9.208   9.460 -0.9187  0.3750 -1.4333
  160bbb    H10 4815   6.053   9.361   9.396  1.3009  0.6581  1.3504
  160bbb     C6 4816   6.382   9.584   9.704  0.6354  0.3016 -0.5087
  160bbb    H11 4817   6.396   9.593   9.596 -3.1480 -2.8265 -1.5294
  160bbb    H12 4818   6.454   9.510   9.741 -0.9551 -0.4094  1.3951
  160bbb     C7 4819   6.411   9.095   9.745  0.3724  0.3047  0.6053
  160bbb    H13 4820   6.388   9.019   9.821  1.0560 -1.3808 -0.8135
  160bbb    H14 4821   6.520   9.099   9.760  0.3174 -1.9116  2.1001
  160bbb     C8 4822   6.393   9.716   9.778  0.1644  0.0270 -0.1823
  160bbb    H15 4823   6.374   9.690   9.882 -0.2329 -0.9269 -0.4814
  160bbb    H16 4824   6.495   9.752   9.762  0.5655 -1.5858 -1.4729
  160bbb     C9 4825   5.893   9.242   9.489  0.5351 -0.0734  0.2310
  160bbb    H17 4826   5.895   9.173   9.574 -3.1067 -0.7477 -0.0859
  160bbb    H18 4827   5.878   9.167   9.410  0.3371  1.0197 -0.7886
  160bbb     O1 4828   6.376   9.023   9.624 -0.2233 -0.0727  0.3988
  160bbb    H19 4829   6.232   9.464   9.522 -2.0524  1.4150  1.1150
  161bbb     N1 4830   6.660   8.098   9.965  0.9503 -0.1820 -0.3414
  161bbb     C1 4831   6.726   8.142  10.101 -0.4074  0.1218  0.6867
  161bbb     H1 4832   6.754   8.247  10.100  0.3027 -0.0371  1.7690
  161bbb     H2 4833   6.823   8.092  10.102 -0.6630 -0.3833  0.6495
  161bbb     C2 4834   6.649   7.945   9.969  0.1443  0.4098  0.4186
  161bbb     H3 4835   6.601   7.924  10.064 -2.9767 -1.9742 -1.4611
  161bbb     H4 4836   6.755   7.919   9.970  0.4272  1.5148  2.4130
  161bbb     C3 4837   6.526   8.165   9.952 -0.9455 -0.0563  0.1170
  161bbb     H5 4838   6.461   8.120  10.028  0.1429  2.2610  2.5874
  161bbb     H6 4839   6.492   8.138   9.852 -1.8393  2.0979 -0.2104
  161bbb     C4 4840   6.518   8.319   9.972  0.8575  0.0489 -0.0076
  161bbb     H7 4841   6.545   8.343  10.075 -0.2702 -0.2615  0.3617
  161bbb     H8 4842   6.418   8.358   9.952  0.4273 -0.7536  0.5676
  161bbb     C5 4843   6.648   8.105  10.228 -0.5174 -0.5784  0.2924
  161bbb     H9 4844   6.626   7.998  10.234  1.6163 -1.0904 -0.0480
  161bbb    H10 4845   6.559   8.169  10.227 -0.7879 -0.9590 -0.4818
  161bbb     C6 4846   6.560   7.870   9.871  0.0822  0.7096  0.3899
  161bbb    H11 4847   6.598   7.866   9.768 -2.7120 -1.9441 -0.6870
  161bbb    H12 4848   6.462   7.919   9.868  0.2011  0.9228 -0.6853
  161bbb     C7 4849   6.614   8.394   9.874 -0.3139 -0.1868 -0.9026
  161bbb    H13 4850   6.717   8.369   9.902 -0.7574 -0.6265  0.3896
  161bbb    H14 4851   6.598   8.502   9.889 -1.4930 -0.4063 -0.4466
  161bbb     C8 4852   6.525   7.726   9.900  0.5700 -0.1762 -0.1760
  161bbb    H15 4853   6.484   7.726  10.002 -0.7098 -1.0823 -0.6570
  161bbb    H16 4854   6.445   7.689   9.835 -1.5055  0.0410  2.1122
  161bbb     C9 4855   6.727   8.135  10.358 -0.2190 -0.1621  0.0342
  161bbb    H17 4856   6.811   8.068  10.380 -0.7121 -0.4880  0.9816
  161bbb    H18 4857   6.661   8.118  10.445 -0.6197  0.2311 -0.1920
  161bbb     O1 4858   6.603   8.348   9.731 -0.6210  0.3797  0.4837
  161bbb    H19 4859   6.730   8.129   9.897 -0.1786  2.5535 -0.4171
  162bbb     N1 4860   6.658   7.351   8.346 -0.2570 -0.3933  0.3924
  162bbb     C1 4861   6.709   7.210   8.332  0.0391 -0.6205 -0.3948
  162bbb     H1 4862   6.705   7.195   8.224  0.9872 -0.1191 -0.5034
  162bbb     H2 4863   6.638   7.146   8.385  2.6550 -1.3593  2.5313
  162bbb     C2 4864   6.642   7.388   8.500  0.4142 -0.4622 -0.3977
  162bbb     H3 4865   6.596   7.486   8.513  0.1573 -0.6041 -0.2193
  162bbb     H4 4866   6.745   7.389   8.535 -0.0093 -1.8597  0.9850
  162bbb     C3 4867   6.746   7.445   8.278 -0.5130  0.2311 -0.1892
  162bbb     H5 4868   6.848   7.434   8.315 -0.6041 -1.4340 -0.3462
  162bbb     H6 4869   6.723   7.548   8.305  0.9717  1.1580 -2.1887
  162bbb     C4 4870   6.752   7.437   8.124 -0.7758  0.7196 -0.2378
  162bbb     H7 4871   6.651   7.418   8.087  0.4306  0.3144 -3.6682
  162bbb     H8 4872   6.820   7.357   8.091 -0.4507 -0.2061  2.3914
  162bbb     C5 4873   6.851   7.187   8.386 -0.7032  0.4081 -0.7326
  162bbb     H9 4874   6.859   7.196   8.495 -2.1152 -1.1244 -0.4601
  162bbb    H10 4875   6.921   7.250   8.330  0.3734  0.2159  0.3557
  162bbb     C6 4876   6.563   7.290   8.592  0.2167 -0.2355  0.0514
  162bbb    H11 4877   6.566   7.330   8.694 -0.9225  0.6152 -0.2273
  162bbb    H12 4878   6.624   7.201   8.611  2.3479  1.2056  0.3019
  162bbb     C7 4879   6.809   7.564   8.065  0.5476 -0.9689  0.1195
  162bbb    H13 4880   6.799   7.565   7.955 -2.0405  2.5996  0.2263
  162bbb    H14 4881   6.915   7.570   8.095  0.0686 -0.7093  1.8497
  162bbb     C8 4882   6.418   7.256   8.560 -0.4751  0.3562 -0.0018
  162bbb    H15 4883   6.370   7.198   8.640  0.7471 -1.1815 -0.3278
  162bbb    H16 4884   6.361   7.349   8.544  0.3029  1.1384  1.5421
  162bbb     C9 4885   6.907   7.048   8.359  0.3969 -0.6819  0.1409
  162bbb    H17 4886   7.013   7.040   8.386  1.0598 -2.7406 -2.6150
  162bbb    H18 4887   6.888   7.025   8.253  0.9369 -0.3061 -0.0393
  162bbb     O1 4888   6.749   7.690   8.116  0.0995  0.1219 -0.1960
  162bbb    H19 4889   6.565   7.365   8.305  0.9180  2.9946 -1.5126
  163bbb     N1 4890   5.785   8.311   8.015  0.2551  0.0724  0.2394
  163bbb     C1 4891   5.779   8.424   8.113 -0.4528  0.5534 -0.5099
  163bbb     H1 4892   5.681   8.444   8.156 -0.0425  1.0970  0.2038
  163bbb     H2 4893   5.801   8.511   8.052  1.6385 -0.7457 -1.7405
  163bbb     C2 4894   5.664   8.314   7.919 -0.0165 -0.6654  0.0536
  163bbb     H3 4895   5.686   8.366   7.826 -3.1692  1.0821  0.1741
  163bbb     H4 4896   5.588   8.373   7.970  0.0591 -2.4404  2.4009
  163bbb     C3 4897   5.911   8.320   7.929  0.7469  0.2310  0.1160
  163bbb     H5 4898   5.995   8.316   7.998  1.9413  0.9517 -1.2462
  163bbb     H6 4899   5.913   8.418   7.880  1.6777  0.4994  0.6671
  163bbb     C4 4900   5.926   8.223   7.809  0.0278  0.8975 -0.3061
  163bbb     H7 4901   5.862   8.255   7.725 -1.6067  1.5166  1.0992
  163bbb     H8 4902   5.895   8.122   7.839 -0.7363  0.8935 -1.0566
  163bbb     C5 4903   5.878   8.421   8.229 -0.2682  0.0963 -0.4295
  163bbb     H9 4904   5.984   8.421   8.202 -0.6261  0.6931 -1.9197
  163bbb    H10 4905   5.853   8.333   8.290 -1.6783  0.8369  0.1400
  163bbb     C6 4906   5.608   8.177   7.876  0.3674 -0.0234  0.1742
  163bbb    H11 4907   5.545   8.152   7.963  0.1271  1.7271  0.5572
  163bbb    H12 4908   5.681   8.099   7.853  1.9999  1.1147  1.2250
  163bbb     C7 4909   6.076   8.222   7.767  0.0618  0.3356  0.6922
  163bbb    H13 4910   6.097   8.309   7.705  1.1989 -1.3406 -1.4076
  163bbb    H14 4911   6.082   8.143   7.691 -0.9577  1.0855 -0.1876
  163bbb     C8 4912   5.526   8.191   7.746  0.2680  0.2089  0.3151
  163bbb    H15 4913   5.483   8.091   7.728  0.0200 -0.0557  2.1793
  163bbb    H16 4914   5.442   8.261   7.752  0.8734  1.1962 -1.9402
  163bbb     C9 4915   5.858   8.549   8.318  0.7021 -0.0693  0.4752
  163bbb    H17 4916   5.893   8.530   8.421  1.4382 -1.3775  0.0137
  163bbb    H18 4917   5.752   8.574   8.328  1.2447  2.0381  1.6450
  163bbb     O1 4918   6.172   8.189   7.875  0.1636  0.3548 -0.3113
  163bbb    H19 4919   5.782   8.224   8.070  1.0900  0.9383  1.7197
  164bbb     N1 4920   7.332   6.992   9.194 -0.0551  0.2445 -0.2647
  164bbb     C1 4921   7.438   6.909   9.105 -0.2512 -0.1231  0.6376
  164bbb     H1 4922   7.485   6.975   9.032 -0.4732 -1.4169 -0.7191
  164bbb     H2 4923   7.375   6.842   9.046 -0.7484  0.3005  0.6808
  164bbb     C2 4924   7.403   7.119   9.237  0.5600  0.9650 -0.2464
  164bbb     H3 4925   7.422   7.171   9.143  1.0887 -1.3087 -1.4845
  164bbb     H4 4926   7.503   7.091   9.272 -0.0201  1.4789  1.9992
  164bbb     C3 4927   7.222   7.027   9.102 -0.0813 -0.3713  0.2581
  164bbb     H5 4928   7.273   7.071   9.016  1.2852  0.4487  1.4531
  164bbb     H6 4929   7.160   7.101   9.153 -1.9870 -1.7280  0.0255
  164bbb     C4 4930   7.116   6.914   9.058 -0.8324 -0.1408 -0.5010
  164bbb     H7 4931   7.076   6.874   9.151 -0.7280  0.4419 -0.2004
  164bbb     H8 4932   7.165   6.836   8.999 -0.5221 -1.2888  1.2144
  164bbb     C5 4933   7.535   6.839   9.195  0.0431  0.7803  0.8593
  164bbb     H9 4934   7.536   6.884   9.295  1.8801  2.3754  0.2011
  164bbb    H10 4935   7.637   6.857   9.157 -0.6180  3.3742  0.0971
  164bbb     C6 4936   7.343   7.208   9.344  0.4217 -0.4059 -0.2297
  164bbb    H11 4937   7.236   7.230   9.326  0.5405  2.1507  1.7265
  164bbb    H12 4938   7.393   7.304   9.328 -0.4794  0.3772  1.4247
  164bbb     C7 4939   7.000   6.979   8.978 -0.6927 -0.4334 -0.6069
  164bbb    H13 4940   6.956   7.064   9.031  0.2955 -1.2692  1.7008
  164bbb    H14 4941   6.919   6.911   8.951 -0.5032 -0.1180 -2.0651
  164bbb     C8 4942   7.367   7.161   9.490  0.5036  0.6854  0.7304
  164bbb    H15 4943   7.319   7.062   9.494 -0.6224  0.9065 -3.1055
  164bbb    H16 4944   7.471   7.148   9.522  0.0947  1.8254  2.6402
  164bbb     C9 4945   7.504   6.690   9.190  0.2936 -0.0984  0.7123
  164bbb    H17 4946   7.569   6.628   9.253 -1.4063  1.5453  4.3725
  164bbb    H18 4947   7.520   6.658   9.086  1.6138 -0.2129  0.9340
  164bbb     O1 4948   7.063   7.031   8.859  0.0101 -0.0278  0.1666
  164bbb    H19 4949   7.303   6.936   9.275 -0.1286  1.5349  0.6150
  165bbb     N1 4950   7.804   6.564   8.718  0.2267 -0.3053 -0.2190
  165bbb     C1 4951   7.890   6.514   8.831 -0.1455 -0.2731  0.0166
  165bbb     H1 4952   7.840   6.429   8.876 -0.3083  0.1200  0.5891
  165bbb     H2 4953   7.898   6.590   8.910 -0.5618  0.2469 -0.4321
  165bbb     C2 4954   7.654   6.534   8.748 -0.4592  0.4446 -0.1069
  165bbb     H3 4955   7.599   6.593   8.675  1.8979  4.1112  0.7841
  165bbb     H4 4956   7.637   6.595   8.837  2.4870  2.0944 -0.5281
  165bbb     C3 4957   7.810   6.711   8.709 -0.3844  0.3505 -0.1994
  165bbb     H5 4958   7.801   6.745   8.813  1.1988  1.1534 -0.2920
  165bbb     H6 4959   7.722   6.751   8.659 -1.0595  1.5180  1.7727
  165bbb     C4 4960   7.922   6.783   8.629  0.0752  0.0646 -0.0257
  165bbb     H7 4961   7.923   6.738   8.529 -1.7693 -1.5591  0.6139
  165bbb     H8 4962   8.019   6.754   8.672  0.8349  0.1863 -1.5979
  165bbb     C5 4963   8.027   6.460   8.800 -0.2787  0.0690 -0.6228
  165bbb     H9 4964   8.074   6.431   8.896 -3.0530  2.2508  1.5740
  165bbb    H10 4965   8.089   6.542   8.760 -1.2016  2.3527  2.2310
  165bbb     C6 4966   7.608   6.385   8.747  0.3859  0.2846 -0.2353
  165bbb    H11 4967   7.645   6.335   8.837  2.3541  1.2069 -0.4976
  165bbb    H12 4968   7.644   6.329   8.660 -0.7421 -0.2266 -0.3982
  165bbb     C7 4969   7.907   6.939   8.625  0.6486  0.2471 -0.5930
  165bbb    H13 4970   7.989   6.980   8.565  1.0855  0.1513 -0.0661
  165bbb    H14 4971   7.922   6.985   8.723 -1.2984  1.5843 -0.8589
  165bbb     C8 4972   7.453   6.371   8.745 -0.4031  0.1610 -0.1822
  165bbb    H15 4973   7.401   6.428   8.822 -2.9417 -2.6214  0.3814
  165bbb    H16 4974   7.425   6.408   8.646  1.1606  1.1919 -0.2789
  165bbb     C9 4975   8.028   6.337   8.702  0.7328  0.0353  0.9565
  165bbb    H17 4976   8.128   6.293   8.694 -0.1757 -2.0513  0.5666
  165bbb    H18 4977   7.990   6.362   8.603 -2.3439 -1.1719  1.7283
  165bbb     O1 4978   7.775   6.966   8.562 -0.5802  0.0805 -0.4774
  165bbb    H19 4979   7.827   6.520   8.627  0.5845  0.0624 -0.3062
  166bbb     N1 4980   5.999  10.567   9.724 -0.7241  0.0359  0.1045
  166bbb     C1 4981   6.127  10.650   9.737 -0.1041 -0.6914  0.1169
  166bbb     H1 4982   6.096  10.755   9.745 -0.5094 -0.7762 -0.3335
  166bbb     H2 4983   6.176  10.635   9.640 -0.0009 -2.1826  0.3859
  166bbb     C2 4984   5.877  10.630   9.794 -0.6775  0.0740 -0.5765
  166bbb     H3 4985   5.886  10.617   9.902  1.7546 -0.2320 -0.7558
  166bbb     H4 4986   5.795  10.570   9.754  0.9418 -2.9932  0.4156
  166bbb     C3 4987   5.978  10.549   9.573  0.3316  0.0252 -0.1148
  166bbb     H5 4988   6.068  10.508   9.527  2.0661  0.3315  2.7104
  166bbb     H6 4989   5.961  10.650   9.535  0.5156  0.3660  0.6927
  166bbb     C4 4990   5.856  10.457   9.533 -0.6497  0.1683  0.5083
  166bbb     H7 4991   5.768  10.497   9.584 -0.6364  0.2905  0.4374
  166bbb     H8 4992   5.876  10.351   9.550  0.0035  0.0025 -1.0955
  166bbb     C5 4993   6.232  10.612   9.843 -0.4414  0.2153  0.0089
  166bbb     H9 4994   6.329  10.664   9.838 -0.2518 -0.1991 -0.7729
  166bbb    H10 4995   6.260  10.508   9.825 -1.5474  0.0082 -0.5742
  166bbb     C6 4996   5.855  10.776   9.755 -0.0410 -0.1911  0.1865
  166bbb    H11 4997   5.886  10.803   9.654  0.5171  1.2787  0.7270
  166bbb    H12 4998   5.909  10.839   9.827  0.7141 -1.3315  0.6342
  166bbb     C7 4999   5.832  10.459   9.379 -0.3291  0.3976  0.4041
  166bbb    H13 5000   5.861  10.555   9.334 -0.1968 -0.6351 -1.9045
  166bbb    H14 5001   5.730  10.434   9.347  0.2487 -2.3965  0.5228
  166bbb     C8 5002   5.699  10.804   9.763 -0.0157 -0.2986 -0.6937
  166bbb    H15 5003   5.666  10.765   9.860  1.5037  1.6547  0.6880
  166bbb    H16 5004   5.670  10.908   9.745 -1.6507 -0.7670 -0.9316
  166bbb     C9 5005   6.177  10.619   9.987  0.3791 -0.3210  0.4793
  166bbb    H17 5006   6.128  10.715  10.006 -1.9184 -1.1833 -0.7039
  166bbb    H18 5007   6.257  10.612  10.063 -0.1924  0.2792  1.1476
  166bbb     O1 5008   5.907  10.352   9.322  0.2936  0.1052  0.0560
  166bbb    H19 5009   6.010  10.473   9.766  0.2044 -0.2077 -0.6573
  167bbb     N1 5010   5.484   9.734   9.199  0.1551 -0.6576 -0.2833
  167bbb     C1 5011   5.482   9.601   9.144  0.8132  0.4545  0.7801
  167bbb     H1 5012   5.433   9.539   9.219  1.3703 -0.0368  0.7451
  167bbb     H2 5013   5.582   9.560   9.128  0.5385 -1.3384  3.1504
  167bbb     C2 5014   5.357   9.763   9.280 -0.2652  0.6446  0.5171
  167bbb     H3 5015   5.359   9.686   9.358  0.1713  1.6625  1.5420
  167bbb     H4 5016   5.272   9.746   9.214 -1.0431 -0.1074  1.6596
  167bbb     C3 5017   5.610   9.757   9.285  0.9161  0.2143 -0.3211
  167bbb     H5 5018   5.677   9.674   9.262  0.6774  0.6178 -2.7223
  167bbb     H6 5019   5.586   9.748   9.391  1.5913  2.2212  0.0465
  167bbb     C4 5020   5.692   9.885   9.266  0.0583  0.5080 -0.1512
  167bbb     H7 5021   5.787   9.880   9.320  1.0481 -0.9161 -1.9065
  167bbb     H8 5022   5.625   9.965   9.300 -0.3274  0.0107  0.2793
  167bbb     C5 5023   5.406   9.590   9.013 -0.4756 -0.6947 -0.1095
  167bbb     H9 5024   5.461   9.655   8.944 -0.6773 -0.0285  0.3519
  167bbb    H10 5025   5.312   9.645   9.025 -0.0813 -0.0790  0.1516
  167bbb     C6 5026   5.336   9.899   9.346  0.4415  0.4634  0.0555
  167bbb    H11 5027   5.318   9.981   9.275  2.3743  0.9838  0.1058
  167bbb    H12 5028   5.420   9.929   9.410 -0.8468  1.4616  1.3811
  167bbb     C7 5029   5.737   9.901   9.116  0.5514 -0.2719  0.4961
  167bbb    H13 5030   5.802   9.816   9.094  1.0946  0.2835 -0.0885
  167bbb    H14 5031   5.789   9.996   9.098 -1.0048  0.5272 -0.0137
  167bbb     C8 5032   5.218   9.892   9.452  0.0826 -0.0179 -0.7924
  167bbb    H15 5033   5.224   9.793   9.498  3.3592  0.2793 -0.3484
  167bbb    H16 5034   5.234   9.974   9.523  0.5606  2.2516 -3.3525
  167bbb     C9 5035   5.377   9.442   8.962  0.0961 -0.1220 -0.0463
  167bbb    H17 5036   5.466   9.383   8.939  0.0633  0.4510 -1.8404
  167bbb    H18 5037   5.331   9.460   8.864  0.3521  0.6562 -0.0297
  167bbb     O1 5038   5.615   9.906   9.035 -0.2737  0.1932 -0.2665
  167bbb    H19 5039   5.497   9.796   9.118  1.3615  0.7920  0.9619
  168bbb     N1 5040   6.821  11.141   8.206 -0.4993  0.2004 -0.5484
  168bbb     C1 5041   6.772  11.207   8.080 -0.0125 -0.0717 -0.1181
  168bbb     H1 5042   6.830  11.181   7.991  0.5753 -0.4466  0.3717
  168bbb     H2 5043   6.776  11.316   8.079  1.5355 -0.1043 -1.9215
  168bbb     C2 5044   6.872  11.004   8.181  0.1304  0.2484  0.4093
  168bbb     H3 5045   6.973  11.009   8.142  0.4297 -0.4501  1.0744
  168bbb     H4 5046   6.818  10.961   8.096  2.5341 -0.6058 -0.7592
  168bbb     C3 5047   6.940  11.211   8.260 -0.0915  0.0002 -0.1694
  168bbb     H5 5048   6.998  11.256   8.179  1.0309  0.1216  0.6755
  168bbb     H6 5049   6.989  11.137   8.324 -1.0158  0.0602  0.6351
  168bbb     C4 5050   6.901  11.317   8.364  0.1823  0.3175 -1.0823
  168bbb     H7 5051   6.827  11.391   8.333 -2.2451 -1.3849  0.3567
  168bbb     H8 5052   6.992  11.374   8.390 -0.6186  1.2638 -0.2531
  168bbb     C5 5053   6.622  11.164   8.051  0.0548 -0.2051 -0.6001
  168bbb     H9 5054   6.605  11.061   8.018 -0.0787 -0.3020 -0.2219
  168bbb    H10 5055   6.579  11.212   7.962  1.4000 -0.7863 -1.6100
  168bbb     C6 5056   6.861  10.912   8.307  0.3159  0.4374  0.8708
  168bbb    H11 5057   6.757  10.904   8.342  0.5916  1.8389  2.0843
  168bbb    H12 5058   6.899  10.964   8.396 -1.3332 -0.1551  1.9859
  168bbb     C7 5059   6.842  11.256   8.499 -0.0660  0.2802  0.1151
  168bbb    H13 5060   6.827  11.330   8.579  1.0590 -0.3891  0.9810
  168bbb    H14 5061   6.922  11.191   8.536 -0.4687 -0.5302 -0.4240
  168bbb     C8 5062   6.916  10.771   8.282 -0.6629  0.2447  0.6616
  168bbb    H15 5063   6.903  10.717   8.376 -0.6543  0.4669  0.7918
  168bbb    H16 5064   6.865  10.728   8.196 -1.1829  0.1176  1.0289
  168bbb     C9 5065   6.528  11.186   8.170 -0.6105 -0.1110 -0.0078
  168bbb    H17 5066   6.568  11.135   8.259 -0.5383 -1.5333 -0.8204
  168bbb    H18 5067   6.431  11.136   8.156  1.0400 -3.2391 -1.1613
  168bbb     O1 5068   6.725  11.181   8.471  0.4643  0.2825  0.7580
  168bbb    H19 5069   6.749  11.145   8.280  0.0104 -0.4518 -0.0113
  169bbb     N1 5070   5.951  10.955   9.031  0.0930  0.2970  0.3021
  169bbb     C1 5071   6.073  10.897   9.106  0.0222  0.3873  0.0342
  169bbb     H1 5072   6.080  10.933   9.209  0.6531 -0.4116  0.2781
  169bbb     H2 5073   6.161  10.937   9.056 -0.4576  2.2930  0.6445
  169bbb     C2 5074   5.958  11.110   9.053 -0.3134  0.4745  0.7960
  169bbb     H3 5075   6.051  11.136   9.002  0.0233 -0.5800  0.8346
  169bbb     H4 5076   5.974  11.133   9.158 -0.0158  1.7749  0.4834
  169bbb     C3 5077   5.953  10.935   8.878 -0.0548  0.0531 -0.6389
  169bbb     H5 5078   6.049  10.892   8.847  0.3552  0.7036 -0.3005
  169bbb     H6 5079   5.939  11.034   8.834 -2.7063  0.3739  0.7288
  169bbb     C4 5080   5.854  10.836   8.822  0.3263 -0.4764  0.4742
  169bbb     H7 5081   5.752  10.873   8.838  1.0251  1.3145  1.0454
  169bbb     H8 5082   5.868  10.743   8.879  2.8953 -1.3203 -1.3769
  169bbb     C5 5083   6.076  10.738   9.125  0.2331  0.2425 -0.1127
  169bbb     H9 5084   6.076  10.678   9.034  1.4118 -1.4304  0.9315
  169bbb    H10 5085   5.977  10.712   9.166  0.7643 -2.3988 -0.3253
  169bbb     C6 5086   5.845  11.203   9.009 -0.9186  0.1648 -0.4680
  169bbb    H11 5087   5.850  11.207   8.899 -1.3008 -0.8227 -0.5372
  169bbb    H12 5088   5.866  11.304   9.046  0.6775 -0.6036  0.8489
  169bbb     C7 5089   5.885  10.794   8.681  0.2735 -0.3688  0.0794
  169bbb    H13 5090   5.884  10.886   8.621 -0.7058 -0.0497  0.5601
  169bbb    H14 5091   5.801  10.732   8.648  0.2003  0.3361 -1.1050
  169bbb     C8 5092   5.710  11.167   9.060  0.1974 -0.2370  0.1151
  169bbb    H15 5093   5.633  11.237   9.025 -0.4829 -0.4978  1.0278
  169bbb    H16 5094   5.678  11.070   9.019 -2.8934 -0.0083  1.6940
  169bbb     C9 5095   6.177  10.692   9.234  0.1559 -0.0808 -0.2410
  169bbb    H17 5096   6.164  10.761   9.317 -0.7775  1.1414 -1.3628
  169bbb    H18 5097   6.275  10.720   9.191  0.4589  0.3159  0.6918
  169bbb     O1 5098   6.015  10.726   8.672  0.1640  0.4311 -0.1377
  169bbb    H19 5099   5.865  10.917   9.074  0.9161  0.0091  1.7654
  170bbb     N1 5100   4.337   9.710   8.818 -0.4945 -0.0545  0.3105
  170bbb     C1 5101   4.241   9.643   8.722  0.7444 -0.4857  0.3458
  170bbb     H1 5102   4.234   9.535   8.735 -2.9264 -0.4475 -0.3599
  170bbb     H2 5103   4.270   9.656   8.618  1.1877 -1.8381  0.2828
  170bbb     C2 5104   4.365   9.635   8.949  0.0043 -0.2819 -0.1190
  170bbb     H3 5105   4.424   9.697   9.017  0.4133 -1.3716  0.5399
  170bbb     H4 5106   4.425   9.552   8.911 -2.0653 -1.3598 -1.2100
  170bbb     C3 5107   4.473   9.702   8.750 -0.2618 -0.0612  0.8253
  170bbb     H5 5108   4.495   9.599   8.722 -0.4929 -0.0407  0.5678
  170bbb     H6 5109   4.538   9.728   8.834 -0.8084 -0.0817  1.2674
  170bbb     C4 5110   4.500   9.815   8.643 -0.3645  0.3026  1.0612
  170bbb     H7 5111   4.510   9.915   8.687  0.3276  1.3320 -1.3110
  170bbb     H8 5112   4.423   9.832   8.567  1.7586  1.9406 -0.8517
  170bbb     C5 5113   4.102   9.715   8.714 -0.3258  0.4125  0.7141
  170bbb     H9 5114   4.109   9.806   8.652  1.0121  1.0669  1.7798
  170bbb    H10 5115   4.068   9.735   8.816 -0.8901 -2.5751  1.1949
  170bbb     C6 5116   4.239   9.580   9.031 -0.1583  0.2545  0.6411
  170bbb    H11 5117   4.161   9.529   8.973  1.2947 -0.7440 -0.5170
  170bbb    H12 5118   4.192   9.664   9.084  2.7817  2.7079 -0.3504
  170bbb     C7 5119   4.619   9.782   8.551  1.0191 -0.0287  0.0713
  170bbb    H13 5120   4.635   9.853   8.469  1.4887  1.4399  1.3778
  170bbb    H14 5121   4.600   9.680   8.515  1.6925  0.1426 -0.8058
  170bbb     C8 5122   4.300   9.482   9.139  0.6119  0.5353  0.5216
  170bbb    H15 5123   4.366   9.530   9.213 -0.2339 -0.2186  1.8000
  170bbb    H16 5124   4.224   9.427   9.195  1.7352 -0.3307  1.2397
  170bbb     C9 5125   3.997   9.622   8.645 -0.3645 -0.1025 -0.2659
  170bbb    H17 5126   4.029   9.602   8.542  2.4562  1.1792  0.2605
  170bbb    H18 5127   3.903   9.679   8.644 -0.4090  0.0371  2.6233
  170bbb     O1 5128   4.737   9.790   8.630 -0.2853 -0.3624 -0.4717
  170bbb    H19 5129   4.315   9.808   8.841  0.8375  0.0962  1.0473
  171bbb     N1 5130   4.670   9.627   8.071  0.1218  0.2226  0.9743
  171bbb     C1 5131   4.757   9.709   7.979  0.2085 -0.4019  0.0337
  171bbb     H1 5132   4.809   9.628   7.927 -0.2078 -0.4634 -0.2879
  171bbb     H2 5133   4.833   9.759   8.039 -2.0726  1.1600  1.8049
  171bbb     C2 5134   4.574   9.535   7.988  0.6079 -0.0825 -0.1131
  171bbb     H3 5135   4.635   9.448   7.965  1.0038 -0.1723  1.1753
  171bbb     H4 5136   4.543   9.580   7.894  0.4120 -0.8736 -0.4288
  171bbb     C3 5137   4.744   9.530   8.158 -0.4117 -0.5340 -0.2224
  171bbb     H5 5138   4.789   9.460   8.086 -1.9882 -1.3573 -0.4466
  171bbb     H6 5139   4.671   9.483   8.224 -1.0386  0.3715 -0.2555
  171bbb     C4 5140   4.852   9.592   8.256 -0.0902  0.8342  0.0105
  171bbb     H7 5141   4.801   9.659   8.326 -0.1431  1.9288 -1.0261
  171bbb     H8 5142   4.920   9.651   8.193  1.0349 -2.2316 -1.8586
  171bbb     C5 5143   4.689   9.800   7.866  0.6327 -0.6095 -0.2559
  171bbb     H9 5144   4.724   9.903   7.875  1.3185 -0.8812  0.2382
  171bbb    H10 5145   4.582   9.795   7.889  1.1285 -1.0543  2.2684
  171bbb     C6 5146   4.453   9.464   8.056 -0.4904 -0.0683  0.4101
  171bbb    H11 5147   4.378   9.539   8.083  0.3382  0.0035  2.7580
  171bbb    H12 5148   4.487   9.420   8.150 -2.0452  2.1883  2.1171
  171bbb     C7 5149   4.932   9.483   8.327  0.2015 -0.5693  0.1795
  171bbb    H13 5150   4.955   9.402   8.256 -0.7737 -0.7861  0.0964
  171bbb    H14 5151   4.870   9.438   8.406  2.3578 -2.2726  0.9869
  171bbb     C8 5152   4.369   9.364   7.976  0.0533  0.1642 -0.6316
  171bbb    H15 5153   4.298   9.312   8.041  1.3226  0.8952  1.4352
  171bbb    H16 5154   4.325   9.420   7.893  2.5440  2.1534 -0.7407
  171bbb     C9 5155   4.726   9.759   7.725  0.1127  0.2596  0.1626
  171bbb    H17 5156   4.834   9.758   7.708  0.0366 -0.4320 -0.2894
  171bbb    H18 5157   4.692   9.834   7.652  1.1544 -0.1174 -0.7386
  171bbb     O1 5158   5.052   9.538   8.382  0.6745  0.8438 -0.1507
  171bbb    H19 5159   4.621   9.693   8.134  1.1513  1.4949  0.4966
  172bbb     N1 5160   5.561   8.889   7.160 -0.1822  0.4211 -0.0152
  172bbb     C1 5161   5.648   8.857   7.287  0.1001 -0.9858  0.4834
  172bbb     H1 5162   5.747   8.899   7.264 -0.9212  2.6362  2.0593
  172bbb     H2 5163   5.663   8.749   7.279 -1.3354 -1.1994  0.3954
  172bbb     C2 5164   5.629   9.011   7.091 -0.7657 -0.2682 -0.4451
  172bbb     H3 5165   5.731   8.977   7.070 -0.0834  1.4340 -0.0600
  172bbb     H4 5166   5.642   9.081   7.174 -0.5640  0.7674 -1.3278
  172bbb     C3 5167   5.577   8.765   7.070  0.3043 -0.4085  0.2243
  172bbb     H5 5168   5.684   8.743   7.067  0.5430  0.8092 -1.4337
  172bbb     H6 5169   5.548   8.791   6.968  3.0086 -0.1186 -0.5411
  172bbb     C4 5170   5.487   8.647   7.112 -0.6372  0.2344 -0.7114
  172bbb     H7 5171   5.512   8.605   7.210 -2.5886  1.4821  0.3831
  172bbb     H8 5172   5.510   8.549   7.069 -1.1550  0.4894 -1.5860
  172bbb     C5 5173   5.587   8.901   7.422  0.6680 -0.2750  0.1692
  172bbb     H9 5174   5.655   8.874   7.504  0.0530 -0.2303  0.7062
  172bbb    H10 5175   5.498   8.839   7.442  0.6151 -0.5541 -0.8571
  172bbb     C6 5176   5.569   9.065   6.967  0.6352  0.1575  0.1651
  172bbb    H11 5177   5.469   9.108   6.980  0.4283 -0.6080  1.2540
  172bbb    H12 5178   5.550   8.988   6.892  1.5209 -0.9758  1.0593
  172bbb     C7 5179   5.336   8.657   7.110  0.0943 -0.3124 -0.2405
  172bbb    H13 5180   5.292   8.558   7.092 -1.5893  0.2056  0.8432
  172bbb    H14 5181   5.304   8.732   7.036 -4.0628  0.6167  2.2096
  172bbb     C8 5182   5.658   9.167   6.905 -0.5929 -0.4901 -0.0498
  172bbb    H15 5183   5.758   9.130   6.879  0.3946 -0.7406  3.6514
  172bbb    H16 5184   5.624   9.203   6.807  0.0809 -0.5740 -0.3154
  172bbb     C9 5185   5.545   9.050   7.440 -0.6978  0.0666  0.4341
  172bbb    H17 5186   5.619   9.128   7.417 -0.9267  0.2319  0.2661
  172bbb    H18 5187   5.527   9.052   7.548 -0.5862  1.4982  0.4382
  172bbb     O1 5188   5.292   8.703   7.241 -0.9271  0.4545  0.4136
  172bbb    H19 5189   5.464   8.909   7.188 -1.1301 -0.8779 -2.1098
  173bbb     N1 5190   4.821   8.355   7.547  0.6995  0.1473  0.3777
  173bbb     C1 5191   4.879   8.211   7.535 -0.9514  0.1340 -0.1970
  173bbb     H1 5192   4.907   8.176   7.635  1.0242 -0.8588 -1.0483
  173bbb     H2 5193   4.964   8.214   7.467 -0.7485 -1.7645 -0.0691
  173bbb     C2 5194   4.754   8.407   7.427 -0.0638 -0.2906  0.5585
  173bbb     H3 5195   4.729   8.510   7.450  1.8101  0.3906 -0.2684
  173bbb     H4 5196   4.661   8.354   7.404 -0.7458  0.3714  1.6842
  173bbb     C3 5197   4.722   8.362   7.662  0.2391  0.2007 -0.5190
  173bbb     H5 5198   4.656   8.276   7.654 -1.4938  1.3841  0.4217
  173bbb     H6 5199   4.663   8.453   7.650 -1.4329 -0.4836  1.8483
  173bbb     C4 5200   4.786   8.382   7.802 -0.7314 -0.6675 -0.6335
  173bbb     H7 5201   4.795   8.278   7.834  0.4332 -1.1662 -2.4039
  173bbb     H8 5202   4.715   8.432   7.868 -0.9603  1.9473 -2.6887
  173bbb     C5 5203   4.785   8.097   7.484  0.0748 -0.1054 -0.4734
  173bbb     H9 5204   4.735   8.120   7.389 -4.4647 -2.4390  1.0273
  173bbb    H10 5205   4.702   8.087   7.555 -0.5777  0.5051 -1.1257
  173bbb     C6 5206   4.854   8.422   7.310 -0.2100 -0.3168  0.6736
  173bbb    H11 5207   4.862   8.323   7.263  1.7907 -0.3883  1.0499
  173bbb    H12 5208   4.956   8.455   7.336 -0.8901  2.2425  0.2861
  173bbb     C7 5209   4.923   8.456   7.818  0.0508 -0.3497  0.9221
  173bbb    H13 5210   5.004   8.384   7.802  0.4149  0.2684 -0.0958
  173bbb    H14 5211   4.942   8.488   7.921  2.0510 -1.1874  0.8531
  173bbb     C8 5212   4.803   8.527   7.212 -0.2661 -0.5579 -0.1151
  173bbb    H15 5213   4.890   8.544   7.147  1.1245  0.7355  1.9682
  173bbb    H16 5214   4.718   8.488   7.155  0.0247  0.7255 -1.5061
  173bbb     C9 5215   4.871   7.965   7.479  0.1900 -0.2454  0.3957
  173bbb    H17 5216   4.963   7.990   7.425 -0.4729  3.2865  0.6584
  173bbb    H18 5217   4.817   7.884   7.427  0.9566 -0.3692 -0.2244
  173bbb     O1 5218   4.927   8.562   7.721 -0.2518  0.1045 -0.2025
  173bbb    H19 5219   4.894   8.427   7.554  1.7411 -0.8336 -0.1697
  174bbb     N1 5220   8.030   7.031   7.423  0.0648 -0.5071  0.0134
  174bbb     C1 5221   7.965   7.056   7.284 -0.2232  0.2653 -0.8925
  174bbb     H1 5222   7.939   6.958   7.243  2.5743  0.3152 -3.1049
  174bbb     H2 5223   8.040   7.094   7.215 -0.5428  1.6099 -0.5122
  174bbb     C2 5224   7.917   6.989   7.520 -0.2634  0.5514  0.2331
  174bbb     H3 5225   7.853   7.076   7.535 -0.8422  0.6934 -2.5646
  174bbb     H4 5226   7.964   6.962   7.614 -1.4449  1.4326  1.0990
  174bbb     C3 5227   8.143   6.921   7.428  0.1928 -0.6587  0.2405
  174bbb     H5 5228   8.133   6.845   7.350  2.4883  0.2000 -0.9552
  174bbb     H6 5229   8.133   6.869   7.524  2.2602 -2.7802 -0.6037
  174bbb     C4 5230   8.285   6.979   7.420 -0.5324 -0.2541 -0.5201
  174bbb     H7 5231   8.349   6.890   7.416 -0.1042  0.0592 -0.7998
  174bbb     H8 5232   8.308   7.027   7.516 -0.5359  0.5999 -0.9350
  174bbb     C5 5233   7.852   7.159   7.278 -0.1447 -0.3006 -0.0292
  174bbb     H9 5234   7.876   7.257   7.321 -1.2384  1.7057 -3.5793
  174bbb    H10 5235   7.762   7.127   7.332 -0.1276 -1.7111 -0.7754
  174bbb     C6 5236   7.825   6.868   7.473 -0.0835 -0.9179 -0.3652
  174bbb    H11 5237   7.888   6.790   7.429  0.1870 -1.1291  0.3705
  174bbb    H12 5238   7.769   6.908   7.388  0.1517  2.4326  0.9327
  174bbb     C7 5239   8.310   7.062   7.293  0.6912 -1.0995 -0.5051
  174bbb    H13 5240   8.266   7.008   7.208 -1.7201  1.8084 -1.2661
  174bbb    H14 5241   8.415   7.076   7.265  0.4612 -0.2384 -0.9775
  174bbb     C8 5242   7.722   6.809   7.574  0.5606 -0.7475 -0.1577
  174bbb    H15 5243   7.651   6.742   7.524  0.4969  0.9464 -2.4638
  174bbb    H16 5244   7.764   6.749   7.656  0.3220  0.4034  0.8395
  174bbb     C9 5245   7.799   7.189   7.137 -0.8625 -0.4281  0.6758
  174bbb    H17 5246   7.770   7.092   7.096  1.8093 -0.7168 -0.7708
  174bbb    H18 5247   7.879   7.233   7.076 -1.2151  0.3514  0.7537
  174bbb     O1 5248   8.259   7.197   7.315 -0.2004 -0.1992  0.1447
  174bbb    H19 5249   8.067   7.122   7.453 -1.1164 -0.2220  0.6914
  175bbb     N1 5250   7.316   7.232   7.375  0.4865 -0.2400 -0.5914
  175bbb     C1 5251   7.356   7.086   7.396  0.3457 -0.1598  0.4253
  175bbb     H1 5252   7.272   7.017   7.393 -0.7499  1.1683 -1.1346
  175bbb     H2 5253   7.399   7.072   7.495  2.1982 -3.7972 -0.7077
  175bbb     C2 5254   7.183   7.255   7.455 -0.2746  0.5515 -0.3837
  175bbb     H3 5255   7.184   7.364   7.464 -0.2106  0.6959 -1.8243
  175bbb     H4 5256   7.196   7.212   7.554  0.2737  0.1512 -0.6220
  175bbb     C3 5257   7.421   7.317   7.449 -0.4845  0.3309 -0.7396
  175bbb     H5 5258   7.523   7.298   7.417 -0.6897 -1.6013 -0.3424
  175bbb     H6 5259   7.416   7.291   7.555  1.1993  1.7105 -0.2924
  175bbb     C4 5260   7.404   7.475   7.437 -0.5401  0.0414 -0.1396
  175bbb     H7 5261   7.307   7.508   7.477 -0.5029 -1.8621  1.6758
  175bbb     H8 5262   7.394   7.497   7.330 -2.3700 -0.4796 -0.1221
  175bbb     C5 5263   7.460   7.030   7.307  0.0997  0.2207  0.1648
  175bbb     H9 5264   7.488   6.932   7.347  0.9812 -0.0133 -0.9498
  175bbb    H10 5265   7.550   7.092   7.310 -0.0802  0.8479 -3.1444
  175bbb     C6 5266   7.047   7.201   7.397  0.2612  0.3031  0.1505
  175bbb    H11 5267   6.973   7.221   7.475 -0.0061 -0.4499  0.0961
  175bbb    H12 5268   7.031   7.093   7.383  2.6393 -0.1600  0.6055
  175bbb     C7 5269   7.512   7.556   7.507  0.2533  0.2649  0.2687
  175bbb    H13 5270   7.490   7.546   7.614 -1.2136  3.2612  0.3585
  175bbb    H14 5271   7.508   7.665   7.489 -0.6715 -0.0903 -2.0133
  175bbb     C8 5272   6.997   7.271   7.271 -0.0618  0.8696  0.0340
  175bbb    H15 5273   6.893   7.239   7.256 -1.2284  2.2039  4.0171
  175bbb    H16 5274   7.003   7.380   7.284  1.3289  0.6992  1.0529
  175bbb     C9 5275   7.421   7.019   7.159  0.2037  0.2710  0.1773
  175bbb    H17 5276   7.503   6.967   7.108  0.8948  1.0819  0.4365
  175bbb    H18 5277   7.420   7.122   7.123 -0.9375  0.7259  1.4350
  175bbb     O1 5278   7.639   7.504   7.463  0.1919 -0.3834  0.2457
  175bbb    H19 5279   7.318   7.259   7.276  1.3564 -0.4526 -0.6353
  176bbb     N1 5280   8.573   7.634   8.113 -0.7458  0.4910  0.3412
  176bbb     C1 5281   8.442   7.574   8.098 -0.1974  0.0702  0.9757
  176bbb     H1 5282   8.418   7.492   8.165 -1.4930 -1.0625 -0.7934
  176bbb     H2 5283   8.440   7.548   7.992 -0.0853  4.3697 -0.2761
  176bbb     C2 5284   8.690   7.538   8.083 -0.0228  0.4770 -0.1602
  176bbb     H3 5285   8.778   7.600   8.067 -2.0281  3.3560 -0.6022
  176bbb     H4 5286   8.676   7.489   7.986 -1.7651  1.5562 -0.4891
  176bbb     C3 5287   8.592   7.743   8.008 -0.3283  0.5559 -0.1280
  176bbb     H5 5288   8.501   7.803   8.003  0.2552  1.4686 -0.0901
  176bbb     H6 5289   8.599   7.682   7.918  0.6942  1.0029 -0.3679
  176bbb     C4 5290   8.716   7.837   8.026  0.3021  0.4412  0.5252
  176bbb     H7 5291   8.805   7.782   8.060 -1.6838 -3.1339  0.3663
  176bbb     H8 5292   8.692   7.896   8.116  1.4022  0.6690  0.6902
  176bbb     C5 5293   8.333   7.671   8.117  0.1948  0.0928  0.1583
  176bbb     H9 5294   8.325   7.749   8.040 -0.6360 -0.2812 -0.1429
  176bbb    H10 5295   8.347   7.710   8.219 -0.1493 -1.3705  0.7973
  176bbb     C6 5296   8.723   7.436   8.195  0.5733 -0.4025 -0.0265
  176bbb    H11 5297   8.648   7.357   8.181 -2.8239  2.6378 -0.2208
  176bbb    H12 5298   8.703   7.482   8.292  0.8998  2.9501 -1.4091
  176bbb     C7 5299   8.740   7.919   7.899  0.2202  0.1346  0.1936
  176bbb    H13 5300   8.727   7.848   7.818  2.8123  0.0110 -0.1974
  176bbb    H14 5301   8.838   7.969   7.902  0.2211  0.3463 -2.1633
  176bbb     C8 5302   8.867   7.380   8.176 -0.1822  0.1715  0.1621
  176bbb    H15 5303   8.932   7.464   8.205 -1.4433  2.0256 -2.0185
  176bbb    H16 5304   8.881   7.293   8.241 -0.7291  0.2516  0.3976
  176bbb     C9 5305   8.192   7.614   8.103 -0.8672  0.0503 -0.3522
  176bbb    H17 5306   8.114   7.691   8.112 -0.6403  0.0837  2.0299
  176bbb    H18 5307   8.176   7.549   8.190  0.7401  1.3323  0.9510
  176bbb     O1 5308   8.637   8.023   7.904 -0.1204 -0.2669 -0.2747
  176bbb    H19 5309   8.599   7.672   8.206  1.5301  1.1292 -0.4864
  177bbb     N1 5310   8.576   8.639   8.547 -0.1626 -0.2502 -0.3226
  177bbb     C1 5311   8.444   8.717   8.589 -0.0355 -0.1824 -0.5794
  177bbb     H1 5312   8.372   8.711   8.507 -1.3085 -1.2906  0.5843
  177bbb     H2 5313   8.473   8.820   8.608  0.8545 -0.6591  0.7713
  177bbb     C2 5314   8.672   8.622   8.667  0.7319 -0.7317 -0.5899
  177bbb     H3 5315   8.756   8.558   8.640  1.3492  0.1701 -0.8440
  177bbb     H4 5316   8.621   8.568   8.747  2.7512  0.3828  1.5715
  177bbb     C3 5317   8.553   8.497   8.504 -0.2837  0.3853 -0.5295
  177bbb     H5 5318   8.505   8.450   8.590 -0.1674  0.4781 -0.4112
  177bbb     H6 5319   8.649   8.445   8.495 -0.3458  0.2098 -0.2116
  177bbb     C4 5320   8.470   8.483   8.380  0.5617 -1.0511  0.4313
  177bbb     H7 5321   8.375   8.536   8.396  0.7995 -0.9833  1.7251
  177bbb     H8 5322   8.450   8.379   8.354 -0.8036 -0.8444  0.5683
  177bbb     C5 5323   8.361   8.649   8.702 -0.1514  0.0751 -0.2265
  177bbb     H9 5324   8.420   8.654   8.794 -0.7224  0.5854  0.1172
  177bbb    H10 5325   8.344   8.542   8.691  3.8698 -0.8137  0.7642
  177bbb     C6 5326   8.721   8.743   8.746 -0.0477 -0.2579 -0.8647
  177bbb    H11 5327   8.769   8.702   8.835  0.5390 -0.6224 -1.3423
  177bbb    H12 5328   8.635   8.809   8.762  1.2371  1.3973 -0.4933
  177bbb     C7 5329   8.529   8.548   8.249  0.3384  0.0701 -0.5408
  177bbb    H13 5330   8.569   8.459   8.200 -1.6816 -1.1221 -0.1537
  177bbb    H14 5331   8.611   8.619   8.265  0.7692 -0.3697 -0.8001
  177bbb     C8 5332   8.830   8.825   8.679  0.1388 -0.0865  0.4762
  177bbb    H15 5333   8.865   8.910   8.737 -2.0930 -0.4944  2.6100
  177bbb    H16 5334   8.914   8.755   8.671 -1.5532 -2.3514  1.1037
  177bbb     C9 5335   8.237   8.745   8.720  0.2581 -0.9132  0.3049
  177bbb    H17 5336   8.266   8.848   8.745 -0.9438 -0.8441  1.5108
  177bbb    H18 5337   8.167   8.709   8.796 -0.6997  0.7683  0.2607
  177bbb     O1 5338   8.428   8.605   8.161 -0.6281 -0.5196 -0.4694
  177bbb    H19 5339   8.630   8.693   8.477  0.6204 -1.1493 -0.4228
  178bbb     N1 5340   9.716   7.686   6.194 -0.5322 -0.0614 -0.1174
  178bbb     C1 5341   9.636   7.769   6.094 -0.3833 -0.2000  0.6866
  178bbb     H1 5342   9.559   7.711   6.043 -0.9721  1.9817 -1.0579
  178bbb     H2 5343   9.700   7.808   6.015 -0.7676  2.8220  1.7293
  178bbb     C2 5344   9.748   7.546   6.137 -0.7900  0.3529  0.1779
  178bbb     H3 5345   9.825   7.496   6.196  0.3002  0.3773 -1.1518
  178bbb     H4 5346   9.798   7.570   6.043  3.0707  0.4566  2.0476
  178bbb     C3 5347   9.846   7.767   6.213  0.8007  0.1729  0.4427
  178bbb     H5 5348   9.814   7.870   6.227 -0.4801 -0.2957  1.0729
  178bbb     H6 5349   9.899   7.767   6.118 -0.9082  1.1934 -0.5645
  178bbb     C4 5350   9.923   7.723   6.336 -0.6088 -0.0603 -0.0156
  178bbb     H7 5351   9.984   7.634   6.318 -0.5985  0.4757 -3.1273
  178bbb     H8 5352   9.862   7.699   6.424  1.0365 -0.6720  0.9857
  178bbb     C5 5353   9.573   7.893   6.158  0.2034  0.2587  0.6711
  178bbb     H9 5354   9.643   7.953   6.218  1.1193 -0.0923 -0.0229
  178bbb    H10 5355   9.505   7.853   6.234 -0.9740  0.3958 -0.2721
  178bbb     C6 5356   9.630   7.439   6.133  0.5778  0.0111 -0.0961
  178bbb    H11 5357   9.553   7.472   6.063 -1.1648 -0.4441  1.5367
  178bbb    H12 5358   9.583   7.434   6.232  0.5580 -2.4641 -0.1686
  178bbb     C7 5359  10.020   7.836   6.382  0.0663  0.1339  0.2481
  178bbb    H13 5360  10.083   7.853   6.294 -1.5394  0.6713 -0.8389
  178bbb    H14 5361  10.094   7.807   6.458  0.2787 -0.1878 -0.0768
  178bbb     C8 5362   9.683   7.298   6.093  0.4216 -0.0398 -0.6093
  178bbb    H15 5363   9.599   7.232   6.120  1.2924 -0.6526  0.6575
  178bbb    H16 5364   9.687   7.281   5.984 -4.1739  0.1785 -1.0391
  178bbb     C9 5365   9.511   7.984   6.050 -0.2859  0.2108  0.0051
  178bbb    H17 5366   9.591   8.043   6.004  0.1263  1.4991  2.2150
  178bbb    H18 5367   9.434   8.050   6.092 -0.0690  0.5908 -0.1951
  178bbb     O1 5368   9.930   7.941   6.417 -0.1232  0.2955  0.1004
  178bbb    H19 5369   9.659   7.671   6.278 -1.2022 -0.9215 -0.7053
  179bbb     N1 5370   9.776   8.205   6.981  0.5189 -0.2780 -0.5245
  179bbb     C1 5371   9.683   8.295   7.060 -0.1601  0.3772  0.4297
  179bbb     H1 5372   9.740   8.314   7.151 -0.3831  2.0777  0.2439
  179bbb     H2 5373   9.597   8.230   7.079 -0.1905  0.1784 -0.3507
  179bbb     C2 5374   9.840   8.087   7.058 -0.2445  0.0812  0.2667
  179bbb     H3 5375   9.895   8.026   6.986 -1.1069  0.6578 -0.9232
  179bbb     H4 5376   9.753   8.024   7.079 -0.4577  0.6986  1.2610
  179bbb     C3 5377   9.711   8.135   6.861  0.5779  0.8928 -0.2853
  179bbb     H5 5378   9.786   8.063   6.827 -2.3249 -2.0664 -0.9164
  179bbb     H6 5379   9.691   8.209   6.783 -1.6894 -0.3219 -0.9450
  179bbb     C4 5380   9.581   8.055   6.885  0.5790  0.2067  0.3905
  179bbb     H7 5381   9.501   8.119   6.925  0.0112 -0.2591  0.0305
  179bbb     H8 5382   9.605   7.972   6.952 -3.1826 -1.2802  0.1473
  179bbb     C5 5383   9.638   8.432   7.002 -0.5169  0.3961 -0.1912
  179bbb     H9 5384   9.572   8.425   6.915  0.3861  0.7892 -0.9278
  179bbb    H10 5385   9.729   8.478   6.962  0.4674 -0.0597  1.4298
  179bbb     C6 5386   9.915   8.130   7.188  0.0663 -0.0702  0.2349
  179bbb    H11 5387   9.959   8.037   7.227 -0.2766  0.1007  1.0441
  179bbb    H12 5388   9.844   8.172   7.260  0.4520  1.0288 -0.0115
  179bbb     C7 5389   9.537   7.986   6.752 -0.3867  0.1693  0.4448
  179bbb    H13 5390   9.453   7.918   6.773 -0.9931  0.6793 -0.2858
  179bbb    H14 5391   9.610   7.912   6.719  0.8899  1.4385  0.3257
  179bbb     C8 5392  10.040   8.220   7.160 -0.0400 -0.4905 -0.2270
  179bbb    H15 5393  10.098   8.235   7.252  0.6183  1.7475 -0.9469
  179bbb    H16 5394  10.109   8.175   7.087  0.2015  0.5215 -0.6402
  179bbb     C9 5395   9.587   8.528   7.106 -0.4248 -0.2417  0.5206
  179bbb    H17 5396   9.492   8.494   7.149 -1.3160  3.6380  1.9967
  179bbb    H18 5397   9.566   8.623   7.056 -0.1168  0.8813  2.4283
  179bbb     O1 5398   9.504   8.080   6.648 -0.1640 -0.3611  0.2511
  179bbb    H19 5399   9.854   8.264   6.947  1.6046 -1.4389 -0.1542
  180bbb     N1 5400  10.629   9.506   6.482 -0.2000 -0.0802 -0.1389
  180bbb     C1 5401  10.486   9.550   6.514 -0.0178  0.1396 -0.4347
  180bbb     H1 5402  10.438   9.470   6.572 -0.6012  1.8955  1.6287
  180bbb     H2 5403  10.438   9.548   6.416  2.5213  0.9985 -1.7581
  180bbb     C2 5404  10.697   9.469   6.609  0.1264 -0.0700  0.4281
  180bbb     H3 5405  10.641   9.386   6.654 -1.5842  0.4023 -0.7415
  180bbb     H4 5406  10.669   9.553   6.673 -1.9076 -0.0107 -0.4795
  180bbb     C3 5407  10.623   9.391   6.384  0.5454  0.7477 -0.2992
  180bbb     H5 5408  10.725   9.363   6.361 -0.3896 -1.9867 -1.5127
  180bbb     H6 5409  10.585   9.432   6.290 -1.0089  1.8884  0.7631
  180bbb     C4 5410  10.546   9.264   6.419  0.0817  0.4307  0.6032
  180bbb     H7 5411  10.451   9.293   6.463 -0.2010  2.7376 -1.2921
  180bbb     H8 5412  10.606   9.207   6.491 -1.0199  0.4148  1.5234
  180bbb     C5 5413  10.458   9.685   6.584 -0.8534 -0.6521  0.1986
  180bbb     H9 5414  10.515   9.760   6.528 -0.0733 -1.4892 -0.1434
  180bbb    H10 5415  10.499   9.697   6.685 -0.1831  0.6302 -0.2003
  180bbb     C6 5416  10.853   9.450   6.603  0.3575 -0.2497 -0.1516
  180bbb    H11 5417  10.910   9.487   6.689  1.4443  1.2975 -1.4741
  180bbb    H12 5418  10.895   9.502   6.516  1.3592 -1.9490 -0.7360
  180bbb     C7 5419  10.535   9.184   6.293  0.5246 -0.5491 -0.3553
  180bbb    H13 5420  10.489   9.087   6.319 -1.8078  0.5054 -0.2947
  180bbb    H14 5421  10.630   9.165   6.242  0.0968  0.9077 -1.7638
  180bbb     C8 5422  10.897   9.297   6.596 -0.1753  0.1293  0.3457
  180bbb    H15 5423  10.874   9.256   6.497  1.2972  0.8462 -0.3273
  180bbb    H16 5424  11.006   9.292   6.589 -0.3260 -1.7967 -1.2844
  180bbb     C9 5425  10.314   9.727   6.590  0.0458  1.0080 -0.2230
  180bbb    H17 5426  10.306   9.831   6.626 -1.4336  0.6469  0.5936
  180bbb    H18 5427  10.264   9.651   6.651  1.7912 -0.2020 -0.2287
  180bbb     O1 5428  10.436   9.254   6.205  0.1945  0.1364 -0.5067
  180bbb    H19 5429  10.676   9.593   6.450 -1.6833  0.1992 -1.7267
  181bbb     N1 5430  10.217   9.066   5.545 -0.1223  0.2105 -0.0310
  181bbb     C1 5431  10.074   9.011   5.521  0.8418  0.7729 -0.2453
  181bbb     H1 5432  10.088   8.912   5.478 -1.7844  0.8985 -1.6199
  181bbb     H2 5433  10.011   9.064   5.450  0.8640 -0.0375 -0.8869
  181bbb     C2 5434  10.307   9.025   5.430 -0.1088  0.2518  0.0086
  181bbb     H3 5435  10.335   8.922   5.451  1.7696 -0.1461 -3.6110
  181bbb     H4 5436  10.390   9.095   5.423  0.1022 -0.0185 -0.1911
  181bbb     C3 5437  10.208   9.215   5.548  0.0832 -0.4155  0.8262
  181bbb     H5 5438  10.144   9.250   5.630 -0.7008  0.6790 -0.2166
  181bbb     H6 5439  10.160   9.251   5.458 -1.9076 -1.4957  1.3954
  181bbb     C4 5440  10.342   9.290   5.571  0.2299 -0.0282 -0.4202
  181bbb     H7 5441  10.409   9.276   5.484  3.0173  0.3348  1.5240
  181bbb     H8 5442  10.396   9.247   5.656  0.8494  2.1520  0.3613
  181bbb     C5 5443   9.985   8.992   5.643  0.5605  0.1878 -0.0771
  181bbb     H9 5444   9.950   9.086   5.688  0.7802  0.0552  0.3842
  181bbb    H10 5445  10.036   8.947   5.729 -1.0528  2.7692  2.4109
  181bbb     C6 5446  10.245   9.028   5.280 -0.2250  0.0750 -0.3583
  181bbb    H11 5447  10.153   8.969   5.271  1.7619 -3.0274 -1.8923
  181bbb    H12 5448  10.314   8.963   5.225 -0.5026 -1.6349  1.2264
  181bbb     C7 5449  10.319   9.448   5.592  0.1180  0.3613  0.6988
  181bbb    H13 5450  10.276   9.493   5.502  0.2022  1.3187  1.1312
  181bbb    H14 5451  10.406   9.508   5.620  1.1989 -1.2770  0.9815
  181bbb     C8 5452  10.224   9.161   5.215 -1.0531  0.1771  1.1592
  181bbb    H15 5453  10.199   9.155   5.108 -1.3668 -0.0189  1.2440
  181bbb    H16 5454  10.143   9.215   5.266 -1.8989 -0.2501  0.2988
  181bbb     C9 5455   9.849   8.914   5.615 -0.3898  0.4009 -0.2083
  181bbb    H17 5456   9.794   8.946   5.526 -2.9259 -2.1756  0.2675
  181bbb    H18 5457   9.781   8.929   5.700  0.2896  2.9998 -0.0385
  181bbb     O1 5458  10.217   9.454   5.699  0.3604  0.1264  0.2279
  181bbb    H19 5459  10.260   9.037   5.634  0.7496  1.5950  0.0359
  182bbb     N1 5460  10.105  10.022   7.671  0.1510 -0.0027 -1.0101
  182bbb     C1 5461  10.196  10.062   7.561  0.3678 -0.3940  0.4191
  182bbb     H1 5462  10.179  10.168   7.545 -0.0105 -0.5481 -0.2136
  182bbb     H2 5463  10.162  10.009   7.472 -0.6835 -1.4405  1.4148
  182bbb     C2 5464  10.139  10.104   7.799 -0.1172 -0.2896  0.2854
  182bbb     H3 5465  10.152  10.210   7.773  0.3292 -0.1451  1.0650
  182bbb     H4 5466  10.233  10.075   7.846 -0.3789  0.6956  1.4967
  182bbb     C3 5467   9.964  10.053   7.633  0.5057 -0.3172 -0.1218
  182bbb     H5 5468   9.957  10.161   7.616  0.7992  0.3548  3.4155
  182bbb     H6 5469   9.908  10.020   7.720  0.8320  1.6110  0.8719
  182bbb     C4 5470   9.910   9.973   7.512  0.2241  0.3535  0.6937
  182bbb     H7 5471   9.968   9.997   7.422 -2.9062  0.4718 -1.4836
  182bbb     H8 5472   9.808  10.009   7.491  0.3883  0.6422  0.3741
  182bbb     C5 5473  10.346  10.031   7.583 -0.2476  0.9303 -0.4817
  182bbb     H9 5474  10.368   9.925   7.597  1.4759  1.1300 -1.3942
  182bbb    H10 5475  10.379  10.085   7.672 -2.5129  0.6936  0.5942
  182bbb     C6 5476  10.044  10.095   7.919  0.3717  0.7961 -0.2545
  182bbb    H11 5477  10.040   9.998   7.969 -1.0391  0.4948 -0.8913
  182bbb    H12 5478   9.942  10.126   7.891  0.4770  1.2407 -0.1515
  182bbb     C7 5479   9.890   9.822   7.538  0.4528  0.1194  0.7300
  182bbb    H13 5480   9.984   9.788   7.584  0.3605 -1.1673 -0.0031
  182bbb    H14 5481   9.881   9.765   7.445  1.2040 -0.3521  0.9337
  182bbb     C8 5482  10.085  10.203   8.024 -0.1372 -0.6237 -0.1634
  182bbb    H15 5483  10.048  10.301   7.992  0.5645 -0.2421  0.1543
  182bbb    H16 5484  10.032  10.177   8.117  3.4142  0.3206  2.3385
  182bbb     C9 5485  10.439  10.083   7.469 -0.6622 -0.7223 -0.5428
  182bbb    H17 5486  10.395  10.055   7.373 -0.4067 -0.1591 -0.8310
  182bbb    H18 5487  10.532  10.032   7.498 -0.0481  0.2246 -0.8155
  182bbb     O1 5488   9.783   9.788   7.626  0.7886 -0.2000 -0.0955
  182bbb    H19 5489  10.105   9.921   7.688  2.1361  0.2484  0.8657
  183bbb     N1 5490   9.602  10.410   6.901  0.1137  0.2273 -0.0838
  183bbb     C1 5491   9.504  10.489   6.811 -0.2247  0.6601 -0.9152
  183bbb     H1 5492   9.428  10.522   6.882  0.4533 -3.3325  2.0911
  183bbb     H2 5493   9.466  10.410   6.747 -2.0133  0.4345  0.3622
  183bbb     C2 5494   9.650  10.487   7.031 -0.2765  0.0800 -0.5533
  183bbb     H3 5495   9.622  10.431   7.120 -0.3477 -0.6910 -1.0489
  183bbb     H4 5496   9.606  10.586   7.038  0.0903  0.1047  2.7909
  183bbb     C3 5497   9.516  10.292   6.950 -0.3637  0.3139 -0.4433
  183bbb     H5 5498   9.479  10.250   6.857 -2.0160  1.1284 -0.1815
  183bbb     H6 5499   9.426  10.330   6.998 -1.4974 -1.5625 -0.9705
  183bbb     C4 5500   9.588  10.174   7.019 -0.1783 -0.3732 -0.4485
  183bbb     H7 5501   9.649  10.212   7.102 -0.5482 -0.2833 -0.2172
  183bbb     H8 5502   9.648  10.120   6.944 -0.0075 -0.5374 -0.1941
  183bbb     C5 5503   9.568  10.614   6.752 -0.2532  0.0401  1.0211
  183bbb     H9 5504   9.610  10.682   6.827  2.2128  1.4420 -1.4392
  183bbb    H10 5505   9.491  10.677   6.706 -0.7711 -0.3852  1.3011
  183bbb     C6 5506   9.803  10.514   7.015  0.0783 -0.0325 -0.4913
  183bbb    H11 5507   9.809  10.553   6.912 -1.4091  0.5155 -0.3864
  183bbb    H12 5508   9.863  10.422   7.024 -2.7989 -1.8921  1.0153
  183bbb     C7 5509   9.488  10.069   7.076 -0.3701  0.0875  0.0289
  183bbb    H13 5510   9.442  10.007   6.998 -0.5644  2.3906 -1.7904
  183bbb    H14 5511   9.402  10.114   7.128 -1.7922 -0.1867 -1.9602
  183bbb     C8 5512   9.848  10.617   7.115 -0.4156 -0.1143  0.5170
  183bbb    H15 5513   9.957  10.625   7.100 -0.4944  1.3339  0.6539
  183bbb    H16 5514   9.812  10.718   7.092  0.7617  0.7753  2.3414
  183bbb     C9 5515   9.671  10.571   6.645 -0.0087  0.2419  0.0926
  183bbb    H17 5516   9.751  10.507   6.684  0.9507  1.0147 -0.5657
  183bbb    H18 5517   9.711  10.659   6.593 -0.2165  1.4642  1.9064
  183bbb     O1 5518   9.554   9.987   7.174  0.6893  0.1427  0.2829
  183bbb    H19 5519   9.680  10.375   6.844 -1.2007  0.8672 -2.3699
  184bbb     N1 5520   7.653  10.365   7.121 -0.0237  0.2026  0.0439
  184bbb     C1 5521   7.530  10.364   7.215  0.1421  0.0485  0.5604
  184bbb     H1 5522   7.556  10.299   7.299 -0.1451 -1.7071 -0.6473
  184bbb     H2 5523   7.453  10.309   7.161  1.9622 -1.0023 -1.1137
  184bbb     C2 5524   7.760  10.449   7.199  0.1422  0.3876  0.4905
  184bbb     H3 5525   7.754  10.403   7.298 -1.4038 -1.4289 -0.3782
  184bbb     H4 5526   7.718  10.549   7.194  0.3089  0.4203 -0.3795
  184bbb     C3 5527   7.695  10.220   7.088  0.1764  0.0568 -0.2002
  184bbb     H5 5528   7.707  10.176   7.187 -1.7232  1.5061  0.7451
  184bbb     H6 5529   7.795  10.219   7.045  0.1626  0.5168 -0.2482
  184bbb     C4 5530   7.608  10.150   6.988  0.3024  0.5881 -0.2924
  184bbb     H7 5531   7.598  10.211   6.897 -2.2241  0.6402 -0.0313
  184bbb     H8 5532   7.510  10.130   7.033  0.6065 -0.1498  0.0599
  184bbb     C5 5533   7.471  10.501   7.251  0.8306 -0.2062 -0.5650
  184bbb     H9 5534   7.472  10.572   7.167 -0.1419 -0.2433 -0.6228
  184bbb    H10 5535   7.526  10.541   7.337  1.2636  1.3090 -1.5029
  184bbb     C6 5536   7.907  10.449   7.146  0.4312  0.1504  0.7072
  184bbb    H11 5537   7.959  10.353   7.159 -1.0425 -0.5068  2.2090
  184bbb    H12 5538   7.959  10.516   7.216  0.8122 -0.8329  1.3915
  184bbb     C7 5539   7.663  10.011   6.942 -0.3758 -0.1600  0.1787
  184bbb    H13 5540   7.597   9.972   6.864 -1.2979  2.1802 -0.2981
  184bbb    H14 5541   7.662   9.944   7.028  1.5223 -0.2954  0.1354
  184bbb     C8 5542   7.926  10.514   7.002  0.3529 -0.0762  0.3113
  184bbb    H15 5543   7.882  10.613   7.017 -0.3214 -0.2916 -0.1898
  184bbb    H16 5544   8.030  10.526   6.970  0.1284 -3.0631 -2.0271
  184bbb     C9 5545   7.321  10.489   7.282 -0.0425 -0.3962  0.7054
  184bbb    H17 5546   7.313  10.418   7.365  0.6505 -0.4923  0.6896
  184bbb    H18 5547   7.283  10.584   7.322  0.3397 -0.4274  1.1429
  184bbb     O1 5548   7.808  10.023   6.904 -0.2016  0.8501 -0.0041
  184bbb    H19 5549   7.627  10.411   7.033  2.4711  2.2924  0.2627
  185bbb     N1 5550   7.828  10.277   6.240 -0.5119 -0.5695 -0.2315
  185bbb     C1 5551   7.693  10.230   6.289  0.1379 -0.1912 -0.6994
  185bbb     H1 5552   7.626  10.254   6.206  1.2792  1.4356 -1.2127
  185bbb     H2 5553   7.667  10.298   6.370  0.4823 -1.8945  0.8906
  185bbb     C2 5554   7.822  10.409   6.168  0.2418  1.0725 -0.3657
  185bbb     H3 5555   7.922  10.451   6.163  0.1492  1.8537  2.7309
  185bbb     H4 5556   7.764  10.470   6.237  0.0919 -0.3767  0.8554
  185bbb     C3 5557   7.922  10.296   6.359 -0.5633 -0.1986 -0.2429
  185bbb     H5 5558   7.898  10.206   6.415  0.7919 -0.9835 -0.8439
  185bbb     H6 5559   7.895  10.380   6.423  1.5758  0.0654  0.4127
  185bbb     C4 5560   8.077  10.296   6.334  0.3165 -0.3305 -0.5086
  185bbb     H7 5561   8.090  10.358   6.244 -0.2432 -0.3464 -0.5994
  185bbb     H8 5562   8.106  10.194   6.308  0.9621  0.0592 -1.4117
  185bbb     C5 5563   7.678  10.081   6.339  1.0827 -0.0087 -0.1762
  185bbb     H9 5564   7.725  10.073   6.438 -2.6358  2.3506  2.0311
  185bbb    H10 5565   7.727  10.015   6.266  0.5993  1.7117 -2.1775
  185bbb     C6 5566   7.749  10.422   6.028  0.4420  0.4512  0.2656
  185bbb    H11 5567   7.696  10.518   6.023  0.7821  0.8561  2.8600
  185bbb    H12 5568   7.665  10.352   6.017  0.9984 -0.2869  0.5741
  185bbb     C7 5569   8.167  10.336   6.453 -0.4161 -0.0573  0.2965
  185bbb    H13 5570   8.154  10.443   6.471 -3.1124 -0.0380 -1.1486
  185bbb    H14 5571   8.266  10.310   6.413 -0.4132  0.3295  0.0478
  185bbb     C8 5572   7.845  10.399   5.908  0.0079 -0.0516  0.5098
  185bbb    H15 5573   7.887  10.297   5.902  0.7551  0.3191 -1.0981
  185bbb    H16 5574   7.794  10.428   5.816 -0.2197  1.1550  1.0056
  185bbb     C9 5575   7.531  10.035   6.353  0.5018  0.0508  0.5505
  185bbb    H17 5576   7.520   9.926   6.363 -1.3989  0.2796  1.4524
  185bbb    H18 5577   7.474  10.075   6.268  1.0658  0.3843  0.3232
  185bbb     O1 5578   8.130  10.267   6.576  0.6437 -0.1978  0.4632
  185bbb    H19 5579   7.867  10.205   6.178 -0.8550  0.0663 -1.2062
  186bbb     N1 5580   8.717  10.655   8.011  0.0130  0.2036  0.7989
  186bbb     C1 5581   8.652  10.610   7.879  0.1345 -0.0387  0.3836
  186bbb     H1 5582   8.727  10.609   7.800 -1.6389 -0.2044 -1.3710
  186bbb     H2 5583   8.581  10.686   7.848  0.5022  1.1474  2.2583
  186bbb     C2 5584   8.857  10.611   8.028 -1.0101  0.0724  0.2853
  186bbb     H3 5585   8.865  10.502   8.029 -1.6642  0.0134  0.0382
  186bbb     H4 5586   8.887  10.647   8.127  1.1574  1.5717 -0.8505
  186bbb     C3 5587   8.713  10.810   8.005  0.6372  0.2417 -0.7955
  186bbb     H5 5588   8.761  10.849   7.915  0.6658  2.7404  0.2202
  186bbb     H6 5589   8.775  10.835   8.091 -2.1108  3.1407  0.5251
  186bbb     C4 5590   8.579  10.886   8.008  0.4688  0.1952  0.2221
  186bbb     H7 5591   8.513  10.857   7.925  0.0740  0.5318  0.4151
  186bbb     H8 5592   8.610  10.990   7.996 -0.6349  0.6071  0.8574
  186bbb     C5 5593   8.578  10.469   7.890 -0.2144 -0.9671 -0.0628
  186bbb     H9 5594   8.626  10.388   7.946  1.3001 -1.2724 -1.6849
  186bbb    H10 5595   8.572  10.425   7.790  0.9259 -0.2732 -0.4657
  186bbb     C6 5596   8.962  10.664   7.930  0.5927 -0.3070 -0.1643
  186bbb    H11 5597   8.988  10.769   7.946 -0.2258 -0.2481  0.8106
  186bbb    H12 5598   8.936  10.657   7.823 -2.2571 -0.9710  0.4856
  186bbb     C7 5599   8.493  10.874   8.133  0.2056 -0.0038 -0.1028
  186bbb    H13 5600   8.451  10.773   8.144 -2.2580  1.1182  1.7311
  186bbb    H14 5601   8.416  10.951   8.124  1.0361  0.6823 -1.8213
  186bbb     C8 5602   9.091  10.589   7.966 -0.0285  0.0830  0.6758
  186bbb    H15 5603   9.086  10.481   7.947 -1.8619  0.0582  1.1314
  186bbb    H16 5604   9.177  10.623   7.907 -1.7097  1.0777 -1.3226
  186bbb     C9 5605   8.430  10.493   7.940 -0.0029  0.4109 -0.0249
  186bbb    H17 5606   8.435  10.550   8.034  1.2855 -1.9508  1.4637
  186bbb    H18 5607   8.377  10.399   7.964 -1.1088  1.0470  0.0870
  186bbb     O1 5608   8.571  10.903   8.247 -0.1447  0.1576  0.1042
  186bbb    H19 5609   8.656  10.626   8.089  0.3108  0.1455  1.0089
  187bbb     N1 5610   7.889  10.808   8.902  0.0035  0.9052 -0.1861
  187bbb     C1 5611   7.870  10.773   8.761 -0.5281  0.8407  0.5143
  187bbb     H1 5612   7.801  10.845   8.717 -0.4764  0.2336 -0.5837
  187bbb     H2 5613   7.834  10.670   8.754  2.8742 -0.4240 -0.3906
  187bbb     C2 5614   7.761  10.861   8.963 -0.2868  0.0145 -0.1570
  187bbb     H3 5615   7.727  10.946   8.903 -1.2434  0.4915  1.0152
  187bbb     H4 5616   7.790  10.893   9.063 -0.5861  0.2573 -0.1452
  187bbb     C3 5617   7.954  10.688   8.983  0.1824  0.0760  0.1000
  187bbb     H5 5618   8.015  10.629   8.914  1.3753  1.2705  0.0994
  187bbb     H6 5619   7.868  10.632   9.019 -0.2882  1.0322  0.4890
  187bbb     C4 5620   8.029  10.735   9.112 -0.7148 -0.2178  0.3888
  187bbb     H7 5621   7.973  10.703   9.201  0.1533 -1.0716  0.6466
  187bbb     H8 5622   8.028  10.845   9.116 -1.7116 -0.1006 -1.7253
  187bbb     C5 5623   8.002  10.763   8.677  0.0592 -0.4012 -0.2264
  187bbb     H9 5624   8.088  10.729   8.737  0.5039  3.0458  1.3260
  187bbb    H10 5625   8.035  10.866   8.659 -0.6696  0.4733  2.7621
  187bbb     C6 5626   7.645  10.765   8.961 -0.3908  0.3561  0.3488
  187bbb    H11 5627   7.662  10.661   8.993  0.2132  0.3871  0.1298
  187bbb    H12 5628   7.598  10.752   8.862 -1.0595 -3.6238  1.0165
  187bbb     C7 5629   8.172  10.676   9.119  0.3039  0.1992 -0.0694
  187bbb    H13 5630   8.160  10.568   9.127 -0.2821  0.2697  0.0023
  187bbb    H14 5631   8.229  10.720   9.202  0.3256 -1.1483  0.6613
  187bbb     C8 5632   7.524  10.812   9.045 -0.2575 -0.3586  0.0933
  187bbb    H15 5633   7.565  10.853   9.138 -1.1403 -0.7048  0.6478
  187bbb    H16 5634   7.479  10.893   8.986  1.0594  0.4705  0.1919
  187bbb     C9 5635   7.986  10.668   8.552  0.2996  0.3629 -0.3089
  187bbb    H17 5636   7.952  10.571   8.589 -1.2059  0.7427 -0.6393
  187bbb    H18 5637   8.080  10.659   8.495 -0.3364 -0.4825 -1.2517
  187bbb     O1 5638   8.237  10.708   8.995  0.3457  0.4852 -1.0119
  187bbb    H19 5639   7.952  10.889   8.903  1.3064 -0.0741 -0.6922
  188bbb     N1 5640   8.487  10.471   9.394  0.6799 -0.0749  0.0463
  188bbb     C1 5641   8.554  10.609   9.370  0.5042 -0.0015  0.1544
  188bbb     H1 5642   8.641  10.619   9.436  1.1704  2.7460 -0.9864
  188bbb     H2 5643   8.486  10.683   9.413  0.1006 -0.8460  0.9983
  188bbb     C2 5644   8.341  10.491   9.359  0.0896 -0.8106  0.0486
  188bbb     H3 5645   8.331  10.505   9.251  0.6785 -1.9164 -0.1636
  188bbb     H4 5646   8.301  10.578   9.411  0.4532  0.6442 -1.9693
  188bbb     C3 5647   8.552  10.351   9.312 -0.2022  0.6785 -0.0179
  188bbb     H5 5648   8.556  10.362   9.204  2.3733 -0.1753 -0.0753
  188bbb     H6 5649   8.490  10.264   9.335 -1.3254  1.3477 -0.4333
  188bbb     C4 5650   8.693  10.314   9.352 -0.0044 -0.3968 -0.4641
  188bbb     H7 5651   8.695  10.300   9.461  0.3661  0.9969 -0.2627
  188bbb     H8 5652   8.765  10.393   9.326 -1.1883  0.0693 -2.5572
  188bbb     C5 5653   8.578  10.645   9.223  0.2257  0.5914  0.1561
  188bbb     H9 5654   8.484  10.642   9.166  0.9964 -0.2637 -1.1148
  188bbb    H10 5655   8.638  10.560   9.188  1.9147  1.7160  0.2452
  188bbb     C6 5656   8.251  10.371   9.372  0.3599  0.1289 -0.9513
  188bbb    H11 5657   8.296  10.311   9.453 -1.8782  1.0495  1.0836
  188bbb    H12 5658   8.250  10.295   9.293  2.2236 -1.3144  0.3174
  188bbb     C7 5659   8.734  10.187   9.277  0.0902  0.6334  0.6546
  188bbb    H13 5660   8.843  10.189   9.265 -0.2279  0.9673 -3.5521
  188bbb    H14 5661   8.703  10.197   9.172  1.9265  0.5130  0.0677
  188bbb     C8 5662   8.111  10.411   9.409  0.0339  0.0083  0.2765
  188bbb    H15 5663   8.057  10.414   9.314  0.1764 -1.6582  0.1134
  188bbb    H16 5664   8.070  10.333   9.475  0.6240  0.0301  0.6747
  188bbb     C9 5665   8.655  10.773   9.182  0.0313 -0.1825  0.2370
  188bbb    H17 5666   8.664  10.777   9.073  3.1412 -2.2458  0.2978
  188bbb    H18 5667   8.759  10.761   9.214  0.6382  2.1348 -0.6427
  188bbb     O1 5668   8.673  10.064   9.330 -0.1936 -0.5655  0.6688
  188bbb    H19 5669   8.490  10.448   9.495  1.3217  0.4393  0.1514
  189bbb     N1 5670   8.822   9.351   9.713 -0.4019  0.1431 -0.3442
  189bbb     C1 5671   8.727   9.236   9.693 -0.2219 -0.3902  0.0638
  189bbb     H1 5672   8.644   9.242   9.764  1.5138 -1.6719  2.3379
  189bbb     H2 5673   8.778   9.141   9.713  2.2369  1.0926  1.2194
  189bbb     C2 5674   8.911   9.331   9.838 -1.0300 -0.3654 -0.0680
  189bbb     H3 5675   8.984   9.412   9.839 -0.1084 -1.1892  0.3691
  189bbb     H4 5676   8.965   9.240   9.811  0.9540  0.7121  0.1001
  189bbb     C3 5677   8.917   9.359   9.592 -0.3803 -0.3619 -0.1779
  189bbb     H5 5678   8.857   9.327   9.506  0.7858  2.1741 -2.0914
  189bbb     H6 5679   9.002   9.293   9.608  0.5457 -0.0452 -3.1474
  189bbb     C4 5680   8.971   9.495   9.546  0.3840 -0.0676 -0.3168
  189bbb     H7 5681   9.043   9.548   9.608 -1.0091  0.6302  0.7752
  189bbb     H8 5682   8.891   9.569   9.536  2.0704  1.9528  0.5259
  189bbb     C5 5683   8.637   9.213   9.566 -0.5724  0.4566 -0.0448
  189bbb     H9 5684   8.573   9.128   9.593  1.1278 -0.1578  2.5113
  189bbb    H10 5685   8.700   9.187   9.480  1.2848  0.0232  1.3629
  189bbb     C6 5686   8.842   9.318   9.976  0.4635  0.5623  0.2539
  189bbb    H11 5687   8.914   9.289  10.053 -0.0858 -0.1583  0.5031
  189bbb    H12 5688   8.758   9.248   9.971  1.0148 -0.2871  2.0425
  189bbb     C7 5689   9.034   9.483   9.411 -0.1234 -0.0328  0.1442
  189bbb    H13 5690   8.978   9.418   9.343 -2.7762  0.2370  1.8968
  189bbb    H14 5691   9.127   9.426   9.422 -0.4170 -0.4696  0.4077
  189bbb     C8 5692   8.796   9.458  10.015 -0.6550 -0.5820  0.4317
  189bbb    H15 5693   8.778   9.450  10.123  0.7248 -0.4042  0.6987
  189bbb    H16 5694   8.872   9.537  10.010 -2.0921  0.7994 -0.5120
  189bbb     C9 5695   8.555   9.329   9.533  0.0646 -0.5620  0.3480
  189bbb    H17 5696   8.496   9.375   9.613 -1.3101  2.1117 -2.0333
  189bbb    H18 5697   8.484   9.292   9.458 -0.8900  0.3017  0.8012
  189bbb     O1 5698   9.062   9.601   9.337  0.4581 -0.3673  0.0672
  189bbb    H19 5699   8.777   9.443   9.718 -1.7642 -0.5513  3.4408
  190bbb     N1 5700   8.178  11.969   3.676 -0.1858  0.0420  0.0992
  190bbb     C1 5701   8.141  11.853   3.763 -0.4438  0.0269 -0.2974
  190bbb     H1 5702   8.204  11.774   3.720 -2.7386 -0.7301 -2.5083
  190bbb     H2 5703   8.043  11.808   3.750 -1.0642  1.0032  0.8436
  190bbb     C2 5704   8.310  12.035   3.720  0.6169  0.3514  0.3992
  190bbb     H3 5705   8.302  12.072   3.822  0.3182 -0.2089  0.5815
  190bbb     H4 5706   8.321  12.124   3.657  2.3235 -1.3830 -1.9362
  190bbb     C3 5707   8.198  11.937   3.537 -0.2044  0.1089 -0.7411
  190bbb     H5 5708   8.266  11.851   3.531 -2.1195 -1.4256 -1.4197
  190bbb     H6 5709   8.241  12.024   3.487 -0.2693  0.4370 -0.2318
  190bbb     C4 5710   8.080  11.884   3.456  0.7469  0.4405  0.5745
  190bbb     H7 5711   8.023  11.809   3.512 -0.5746  0.6679 -0.4304
  190bbb     H8 5712   8.119  11.824   3.373  1.0924  1.6709 -0.1853
  190bbb     C5 5713   8.173  11.864   3.915 -0.1043 -0.3909  0.0433
  190bbb     H9 5714   8.280  11.883   3.930 -0.0564  1.3096 -2.0222
  190bbb    H10 5715   8.140  11.773   3.968 -0.0336 -0.3783  0.1084
  190bbb     C6 5716   8.442  11.959   3.710  0.5677 -0.1677 -0.2772
  190bbb    H11 5717   8.469  11.938   3.606  2.2592  1.5821 -0.2496
  190bbb    H12 5718   8.443  11.866   3.768 -0.2554  0.2733  0.4674
  190bbb     C7 5719   7.981  11.990   3.416 -0.8077 -0.4182 -1.1767
  190bbb    H13 5720   8.035  12.082   3.388 -2.2755  0.6871 -0.4961
  190bbb    H14 5721   7.915  12.010   3.501  0.9388 -0.2382  0.1817
  190bbb     C8 5722   8.555  12.052   3.762  0.0869  0.2660 -0.7545
  190bbb    H15 5723   8.553  12.050   3.871 -1.9654 -2.4093 -0.7214
  190bbb    H16 5724   8.646  11.999   3.730  0.0611 -1.1969  1.3821
  190bbb     C9 5725   8.089  11.967   3.985 -0.4262  0.6031  0.7464
  190bbb    H17 5726   8.098  12.065   3.937 -0.7645  0.6169  0.7054
  190bbb    H18 5727   8.123  11.981   4.088 -2.9168 -0.7845  1.8540
  190bbb     O1 5728   7.911  11.947   3.299 -0.3405  0.1684 -0.4293
  190bbb    H19 5729   8.106  12.041   3.690 -0.1434  0.1246 -0.1002
  191bbb     N1 5730   8.609  12.129   2.648  0.1081  0.5324 -0.0890
  191bbb     C1 5731   8.755  12.182   2.661 -0.0151 -0.3925  0.0594
  191bbb     H1 5732   8.822  12.100   2.634  0.3285  0.4144 -1.6844
  191bbb     H2 5733   8.784  12.213   2.762  1.1532  0.7935 -0.6196
  191bbb     C2 5734   8.574  12.072   2.503  0.2808  0.1584 -0.4004
  191bbb     H3 5735   8.566  12.163   2.445 -0.6592  0.6862  0.5329
  191bbb     H4 5736   8.473  12.031   2.504  1.6902 -3.8345 -0.3376
  191bbb     C3 5737   8.598  12.023   2.756  0.5995  0.2965  0.3910
  191bbb     H5 5738   8.663  11.938   2.740 -0.0430 -0.3722  1.2325
  191bbb     H6 5739   8.501  11.980   2.731  0.2934  1.9913 -1.5788
  191bbb     C4 5740   8.615  12.072   2.902  0.1524 -0.4651  0.0593
  191bbb     H7 5741   8.567  12.171   2.906  0.5776 -0.2926  1.2096
  191bbb     H8 5742   8.721  12.091   2.921 -0.4137  0.7401  2.3720
  191bbb     C5 5743   8.785  12.296   2.561  0.0313  0.2995  0.6240
  191bbb     H9 5744   8.798  12.251   2.462 -0.1009  1.6290 -0.0130
  191bbb    H10 5745   8.882  12.340   2.588  0.4293 -0.5035  0.5191
  191bbb     C6 5746   8.667  11.960   2.448  0.1912  0.6017 -0.4953
  191bbb    H11 5747   8.688  11.874   2.513 -1.4474 -0.8690 -1.7913
  191bbb    H12 5748   8.765  12.000   2.421  0.6760  0.7119  1.3280
  191bbb     C7 5749   8.546  11.988   3.013 -0.3399  0.4073 -0.0498
  191bbb    H13 5750   8.570  12.029   3.112 -1.5942  0.9380  0.0686
  191bbb    H14 5751   8.597  11.891   3.012 -2.8368 -1.1761  3.4612
  191bbb     C8 5752   8.622  11.905   2.313 -0.1109 -0.6907  0.0941
  191bbb    H15 5753   8.613  11.986   2.240 -0.8173 -0.4542  0.4362
  191bbb    H16 5754   8.700  11.841   2.270 -1.1748 -0.8596 -1.6876
  191bbb     C9 5755   8.672  12.404   2.568 -0.0565  0.3134  0.1533
  191bbb    H17 5756   8.589  12.375   2.503  1.4422 -0.0288 -1.7264
  191bbb    H18 5757   8.714  12.494   2.522  0.9327  1.4438  3.0447
  191bbb     O1 5758   8.403  11.976   2.989 -0.1171  0.0120 -0.5174
  191bbb    H19 5759   8.542  12.204   2.667 -1.2740 -1.1171  1.9537
  192bbb     N1 5760   9.011  11.394   1.495  0.0752 -0.2952  0.2393
  192bbb     C1 5761   8.898  11.492   1.504 -0.4549 -0.1591  0.3373
  192bbb     H1 5762   8.864  11.524   1.405 -1.9652  0.9197  1.1597
  192bbb     H2 5763   8.929  11.587   1.549 -0.8887  1.6814 -2.9335
  192bbb     C2 5764   9.101  11.432   1.376  0.5481  0.0630  0.4921
  192bbb     H3 5765   9.139  11.534   1.383  0.6464 -0.0020  0.9378
  192bbb     H4 5766   9.038  11.435   1.287  0.0285 -1.0310  0.8042
  192bbb     C3 5767   9.099  11.387   1.622  0.0025  0.1809 -0.4499
  192bbb     H5 5768   9.160  11.297   1.615 -2.0629 -1.1468 -2.6906
  192bbb     H6 5769   9.038  11.357   1.707  0.4456  1.0601  0.1971
  192bbb     C4 5770   9.180  11.511   1.670  0.2991 -0.1634  0.2772
  192bbb     H7 5771   9.118  11.602   1.678  1.4889  0.6625  0.2861
  192bbb     H8 5772   9.250  11.538   1.591  0.1568  1.5749  0.6970
  192bbb     C5 5773   8.776  11.435   1.583  1.0715 -0.3246  0.2751
  192bbb     H9 5774   8.711  11.518   1.612 -0.7869 -1.8372  0.6346
  192bbb    H10 5775   8.811  11.388   1.676 -0.1868  0.2217  1.0519
  192bbb     C6 5776   9.216  11.335   1.349  0.4097 -0.7216  0.3141
  192bbb    H11 5777   9.167  11.247   1.305  0.4162  0.0965 -1.4423
  192bbb    H12 5778   9.272  11.309   1.439  1.1276  1.4359  0.5633
  192bbb     C7 5779   9.256  11.493   1.804 -0.7359  0.2368  0.0822
  192bbb    H13 5780   9.333  11.570   1.792 -0.8182 -0.0963 -3.5837
  192bbb    H14 5781   9.309  11.398   1.816 -0.3659  0.3436 -0.6837
  192bbb     C8 5782   9.320  11.389   1.252 -0.3091  0.1588 -0.6971
  192bbb    H15 5783   9.405  11.320   1.251  0.7521  1.3603  0.7836
  192bbb    H16 5784   9.267  11.392   1.156  0.2987 -1.4666 -1.1179
  192bbb     C9 5785   8.693  11.338   1.494 -0.9867 -1.1242 -0.3304
  192bbb    H17 5786   8.638  11.392   1.416 -0.2722  0.5447  0.2570
  192bbb    H18 5787   8.620  11.290   1.560 -1.5109 -0.4011 -0.3702
  192bbb     O1 5788   9.168  11.511   1.920  0.1380  0.0315 -0.1315
  192bbb    H19 5789   8.972  11.299   1.481  0.1546 -0.3459  0.3593
  193bbb     N1 5790   9.613  11.408   2.231 -0.1757  0.0307  0.5461
  193bbb     C1 5791   9.635  11.425   2.080  0.3774 -0.9024 -0.3364
  193bbb     H1 5792   9.732  11.470   2.061  0.3833 -1.2386 -1.1913
  193bbb     H2 5793   9.569  11.502   2.040  1.5569  1.2817  1.6686
  193bbb     C2 5794   9.606  11.545   2.293  0.4427 -0.7187  0.7094
  193bbb     H3 5795   9.555  11.549   2.390 -1.6186 -1.8871 -0.2639
  193bbb     H4 5796   9.562  11.614   2.220  2.0251  2.0559  2.1796
  193bbb     C3 5797   9.483  11.342   2.252 -0.1753 -0.8820 -0.2149
  193bbb     H5 5798   9.483  11.254   2.187  1.0219  0.7582 -2.5921
  193bbb     H6 5799   9.408  11.408   2.210  0.4970 -0.6446 -1.0684
  193bbb     C4 5800   9.435  11.311   2.394 -0.8476  0.1188  0.6635
  193bbb     H7 5801   9.374  11.394   2.430 -0.9453  1.1308 -1.6894
  193bbb     H8 5802   9.522  11.287   2.456  1.6977 -3.7078 -3.6851
  193bbb     C5 5803   9.630  11.307   1.978  0.2573 -0.7024  0.0561
  193bbb     H9 5804   9.527  11.282   1.951  0.1029  1.1327 -1.2696
  193bbb    H10 5805   9.671  11.218   2.027 -0.3629  0.1845  2.3097
  193bbb     C6 5806   9.749  11.604   2.316 -0.4503  0.4806  0.0632
  193bbb    H11 5807   9.807  11.591   2.223 -1.2646 -0.9238 -0.2795
  193bbb    H12 5808   9.802  11.540   2.388 -1.9541  1.6917  2.3350
  193bbb     C7 5809   9.345  11.176   2.398 -0.7062 -0.5593  0.5142
  193bbb    H13 5810   9.299  11.168   2.497 -0.2332 -0.3946  0.7499
  193bbb    H14 5811   9.410  11.089   2.386  0.0094  0.0378 -0.0316
  193bbb     C8 5812   9.749  11.753   2.356  0.5139  0.7063  0.2435
  193bbb    H15 5813   9.849  11.795   2.342  0.7092 -0.1745 -1.3282
  193bbb    H16 5814   9.676  11.804   2.291 -1.5475 -0.3342  1.6450
  193bbb     C9 5815   9.713  11.330   1.848 -0.9610  0.0109 -0.0613
  193bbb    H17 5816   9.690  11.257   1.770 -1.4847 -0.1506  0.2377
  193bbb    H18 5817   9.817  11.316   1.878 -1.1977  0.1992  0.9159
  193bbb     O1 5818   9.243  11.174   2.292 -0.1847 -0.4422  0.1124
  193bbb    H19 5819   9.684  11.352   2.280 -0.0416  0.0364  0.3581
  194bbb     N1 5820  10.567  10.965   2.791 -0.5174  0.1421  0.6761
  194bbb     C1 5821  10.635  10.975   2.655 -0.3368 -0.1489 -0.7086
  194bbb     H1 5822  10.740  10.967   2.682 -0.3772  0.7926 -0.2140
  194bbb     H2 5823  10.616  11.078   2.623 -2.1317 -0.0233  0.5698
  194bbb     C2 5824  10.636  11.030   2.907  0.4049 -1.2745 -0.5175
  194bbb     H3 5825  10.632  11.139   2.910 -1.9622 -1.3336  1.7455
  194bbb     H4 5826  10.744  11.014   2.895  1.0900  2.1151  0.1914
  194bbb     C3 5827  10.426  11.018   2.783 -0.3704 -0.0873  0.2989
  194bbb     H5 5828  10.374  11.003   2.878 -0.8151  0.4907  0.1491
  194bbb     H6 5829  10.387  10.940   2.717  0.6536 -0.6071  0.2871
  194bbb     C4 5830  10.395  11.164   2.745 -0.1199  0.5856  0.1509
  194bbb     H7 5831  10.415  11.173   2.637  0.2134 -0.1861  0.1434
  194bbb     H8 5832  10.465  11.237   2.789 -0.6838  1.1048  0.2047
  194bbb     C5 5833  10.587  10.874   2.550 -0.5922 -0.0956 -0.0459
  194bbb     H9 5834  10.481  10.890   2.529 -0.5271  1.2706  0.5434
  194bbb    H10 5835  10.598  10.772   2.588 -0.9623 -1.4481 -3.2430
  194bbb     C6 5836  10.599  10.983   3.046 -0.1351  0.1628 -0.0864
  194bbb    H11 5837  10.605  10.873   3.043  2.9867  0.1338  1.9440
  194bbb    H12 5838  10.500  11.016   3.080 -0.2016  0.0632 -0.1816
  194bbb     C7 5839  10.247  11.202   2.766 -0.1736 -0.1086  0.4925
  194bbb    H13 5840  10.181  11.142   2.703  0.7597  0.0420 -0.6555
  194bbb    H14 5841  10.229  11.309   2.749  3.1173  0.1402 -2.7344
  194bbb     C8 5842  10.702  11.030   3.154  0.2420 -0.1791 -0.8897
  194bbb    H15 5843  10.681  10.974   3.246 -1.7518 -1.3353 -1.9868
  194bbb    H16 5844  10.808  11.009   3.134  0.8578  1.6796  0.1773
  194bbb     C9 5845  10.670  10.895   2.421 -0.0869  0.4475  0.5737
  194bbb    H17 5846  10.638  10.982   2.363 -0.7638 -0.5089 -0.5419
  194bbb    H18 5847  10.653  10.815   2.348 -0.8855  1.3442 -0.2458
  194bbb     O1 5848  10.211  11.162   2.905  0.0923 -0.3033 -0.1659
  194bbb    H19 5849  10.561  10.865   2.815  3.1133 -0.1608  0.8778
  195bbb     N1 5850  10.315  11.354   3.219 -0.1764 -0.8031  0.5797
  195bbb     C1 5851  10.355  11.369   3.076 -0.8867  0.3439 -0.4090
  195bbb     H1 5852  10.268  11.353   3.012 -1.2547 -1.3760  0.4858
  195bbb     H2 5853  10.435  11.297   3.057  0.0341  1.0756  0.5980
  195bbb     C2 5854  10.161  11.374   3.210 -0.0723 -0.0067 -0.2640
  195bbb     H3 5855  10.109  11.290   3.163  1.0539 -0.4466 -0.7372
  195bbb     H4 5856  10.147  11.454   3.138 -0.0590 -1.0016 -1.4015
  195bbb     C3 5857  10.364  11.214   3.250  0.4129  0.7214 -0.2208
  195bbb     H5 5858  10.472  11.224   3.262  0.5505 -0.2568 -0.5525
  195bbb     H6 5859  10.340  11.158   3.160  0.5185  0.4048 -0.0518
  195bbb     C4 5860  10.306  11.124   3.363 -0.8316  0.2202 -0.4608
  195bbb     H7 5861  10.198  11.136   3.353 -0.7092  1.3719 -0.6298
  195bbb     H8 5862  10.326  11.170   3.461 -0.3296 -0.3589 -0.2878
  195bbb     C5 5863  10.399  11.515   3.032  0.0993  0.2121  0.1828
  195bbb     H9 5864  10.472  11.566   3.096 -0.8248  0.9714  0.6526
  195bbb    H10 5865  10.304  11.570   3.027 -0.3668 -0.5231  0.8522
  195bbb     C6 5866  10.091  11.402   3.347 -0.7304 -0.4998 -0.4515
  195bbb    H11 5867  10.157  11.468   3.404 -0.5819 -0.4283 -0.7064
  195bbb    H12 5868  10.083  11.311   3.408  1.4609 -0.4066  0.0599
  195bbb     C7 5869  10.342  10.981   3.357  0.5885  0.8201 -0.3559
  195bbb    H13 5870  10.292  10.926   3.438  0.9307 -0.5636 -1.0523
  195bbb    H14 5871  10.450  10.974   3.378  0.5177 -1.2223 -0.4385
  195bbb     C8 5872   9.951  11.460   3.325  0.1132 -0.6241  0.2143
  195bbb    H15 5873   9.892  11.415   3.245 -1.1298  1.2597 -0.0083
  195bbb    H16 5874   9.899  11.438   3.420 -1.1467 -1.2395 -0.5906
  195bbb     C9 5875  10.449  11.516   2.884  0.0860 -0.5329 -0.4990
  195bbb    H17 5876  10.430  11.618   2.850 -1.3939 -0.4311  0.5570
  195bbb    H18 5877  10.381  11.459   2.819  1.8434 -2.7006 -0.5797
  195bbb     O1 5878  10.319  10.929   3.226  0.0381 -0.1749 -0.5833
  195bbb    H19 5879  10.351  11.426   3.283  0.6940 -1.0955  0.4228
  196bbb     N1 5880  10.145  11.346   4.570 -0.2490  0.2475 -0.3339
  196bbb     C1 5881  10.217  11.361   4.434  0.0414  0.1096  0.6340
  196bbb     H1 5882  10.207  11.470   4.428 -1.4700 -0.0356 -0.1679
  196bbb     H2 5883  10.150  11.317   4.360  0.7929  0.9483 -0.5991
  196bbb     C2 5884  10.178  11.214   4.634  0.3635  0.3362  0.2979
  196bbb     H3 5885  10.279  11.235   4.672  0.4041  0.2062  0.2612
  196bbb     H4 5886  10.179  11.143   4.552 -2.8538  1.3250 -0.7081
  196bbb     C3 5887  10.200  11.445   4.673  0.3056 -0.5808 -0.2545
  196bbb     H5 5888  10.272  11.505   4.617  1.1820 -2.8485 -1.7182
  196bbb     H6 5889  10.247  11.385   4.750 -0.5227 -0.5356  0.3041
  196bbb     C4 5890  10.099  11.530   4.747 -0.0892  0.0122 -0.2119
  196bbb     H7 5891  10.152  11.599   4.814 -0.8589 -0.0970  0.5213
  196bbb     H8 5892  10.021  11.467   4.791  0.8993 -0.5806  0.7456
  196bbb     C5 5893  10.363  11.321   4.411 -0.5403  0.3442  0.5555
  196bbb     H9 5894  10.365  11.212   4.424  2.1732  0.2635  0.1784
  196bbb    H10 5895  10.420  11.366   4.494  2.4217  0.5004 -1.3883
  196bbb     C6 5896  10.084  11.156   4.745  0.0097  0.2341 -0.1799
  196bbb    H11 5897   9.979  11.156   4.715 -0.3186 -0.2112  0.9182
  196bbb    H12 5898  10.082  11.220   4.833 -1.9056 -1.9824  1.5027
  196bbb     C7 5899  10.007  11.619   4.658  0.0184 -0.1821  0.1252
  196bbb    H13 5900  10.069  11.693   4.606  0.8863 -0.3438  0.8999
  196bbb    H14 5901   9.930  11.668   4.718  0.1150 -0.6023  0.6029
  196bbb     C8 5902  10.130  11.015   4.786 -0.3129 -0.1388 -0.6291
  196bbb    H15 5903  10.236  11.001   4.808 -0.4543 -2.3960 -1.2184
  196bbb    H16 5904  10.073  10.993   4.878 -0.3277  0.4680 -0.4885
  196bbb     C9 5905  10.403  11.370   4.272 -0.1986 -0.5507  0.1486
  196bbb    H17 5906  10.512  11.363   4.259 -0.0841  1.5642 -0.3529
  196bbb    H18 5907  10.380  11.476   4.263  0.8045 -0.3282  0.0150
  196bbb     O1 5908   9.935  11.548   4.557  0.1955 -0.0513  0.2404
  196bbb    H19 5909  10.044  11.363   4.560 -0.7220 -1.2627  1.4480
  197bbb     N1 5910   9.466  12.353   4.381  0.4930 -0.5967  0.2739
  197bbb     C1 5911   9.480  12.443   4.509 -0.5323 -0.8332 -0.4487
  197bbb     H1 5912   9.555  12.519   4.488 -0.8170 -0.5506 -0.4606
  197bbb     H2 5913   9.530  12.383   4.585  0.2664 -1.8800 -1.7445
  197bbb     C2 5914   9.421  12.432   4.261 -0.1484  0.1495 -0.1387
  197bbb     H3 5915   9.339  12.500   4.285 -1.0606 -0.5535 -1.2083
  197bbb     H4 5916   9.397  12.367   4.177  0.0865 -0.2743  0.1144
  197bbb     C3 5917   9.592  12.276   4.351 -0.1769  0.0752 -0.4147
  197bbb     H5 5918   9.627  12.241   4.448 -1.4001 -2.7026 -0.8980
  197bbb     H6 5919   9.664  12.350   4.316  0.9099 -0.0432  1.4422
  197bbb     C4 5920   9.585  12.161   4.257 -0.0618 -0.0360 -0.5579
  197bbb     H7 5921   9.531  12.180   4.164  1.4665  0.4754 -1.3741
  197bbb     H8 5922   9.541  12.083   4.320 -0.0435  0.7648  0.4685
  197bbb     C5 5923   9.352  12.506   4.565 -0.0434 -0.1416  0.4990
  197bbb     H9 5924   9.301  12.420   4.611 -0.7347  0.9413  1.8350
  197bbb    H10 5925   9.287  12.539   4.483  0.6111  1.2934  0.5414
  197bbb     C6 5926   9.528  12.533   4.205 -0.3220 -0.2216  0.4313
  197bbb    H11 5927   9.624  12.484   4.182 -0.4607 -0.5103  0.4729
  197bbb    H12 5928   9.558  12.608   4.280 -0.0672  2.6897 -2.3540
  197bbb     C7 5929   9.720  12.105   4.211 -0.5665  0.0780 -0.0601
  197bbb    H13 5930   9.788  12.082   4.293 -0.6731  0.5569  0.1682
  197bbb    H14 5931   9.764  12.190   4.157  0.5257 -0.7006 -0.4233
  197bbb     C8 5932   9.480  12.603   4.080  0.1325 -0.6441 -0.4357
  197bbb    H15 5933   9.560  12.672   4.050  2.6638 -1.8688  2.9436
  197bbb    H16 5934   9.465  12.534   3.996 -0.5977  0.7805 -1.5077
  197bbb     C9 5935   9.359  12.621   4.660 -0.3286 -0.0663  0.4834
  197bbb    H17 5936   9.258  12.647   4.693 -0.7286  0.9185 -1.4051
  197bbb    H18 5937   9.385  12.716   4.613 -2.0088  0.4469  0.5572
  197bbb     O1 5938   9.710  11.997   4.118  0.2433  0.4894  0.6617
  197bbb    H19 5939   9.395  12.280   4.392  1.6549 -1.8745 -0.4129
  198bbb     N1 5940   7.300  10.804   2.561  0.4429  0.1344  0.0885
  198bbb     C1 5941   7.315  10.868   2.696  0.1813  0.2594 -0.2262
  198bbb     H1 5942   7.268  10.967   2.698  0.5690  0.4473 -0.3845
  198bbb     H2 5943   7.421  10.889   2.711 -0.1551 -0.4124  4.9874
  198bbb     C2 5944   7.150  10.814   2.521 -0.8628 -1.3462  0.0181
  198bbb     H3 5945   7.112  10.915   2.506 -0.8336 -1.2289  0.7017
  198bbb     H4 5946   7.095  10.773   2.606 -0.1483  1.5751  2.0299
  198bbb     C3 5947   7.394  10.865   2.454  0.4095 -0.2677  0.2546
  198bbb     H5 5948   7.363  10.969   2.438 -0.9250 -0.2863  2.3413
  198bbb     H6 5949   7.391  10.814   2.358  1.3459  0.7294 -0.3255
  198bbb     C4 5950   7.546  10.866   2.493 -0.3527 -0.5168 -0.3944
  198bbb     H7 5951   7.588  10.764   2.488 -2.1364 -1.2265 -1.9720
  198bbb     H8 5952   7.566  10.918   2.588 -0.1623  1.8819 -1.6769
  198bbb     C5 5953   7.282  10.784   2.814 -0.3063  0.0034 -0.2102
  198bbb     H9 5954   7.354  10.702   2.815 -0.7618 -0.4717 -1.9064
  198bbb    H10 5955   7.183  10.741   2.791  0.1929 -0.4606 -1.6482
  198bbb     C6 5956   7.111  10.734   2.399  0.1462 -0.3224 -0.2421
  198bbb    H11 5957   7.166  10.640   2.403  0.1909 -0.2727  1.8130
  198bbb    H12 5958   7.144  10.793   2.313  0.0455 -0.7101 -0.5433
  198bbb     C7 5959   7.615  10.953   2.383 -0.2113  0.3535  0.1718
  198bbb    H13 5960   7.723  10.961   2.401 -0.1619 -0.8777  0.5221
  198bbb    H14 5961   7.573  11.054   2.386 -1.9221 -0.3497  1.6707
  198bbb     C8 5962   6.959  10.710   2.396 -0.6641  0.6153  0.1187
  198bbb    H15 5963   6.928  10.626   2.459 -0.8135  0.4532 -0.1652
  198bbb    H16 5964   6.893  10.793   2.426 -0.9557  0.9480 -1.3327
  198bbb     C9 5965   7.281  10.869   2.945  0.4236  0.2460 -0.1348
  198bbb    H17 5966   7.203  10.946   2.945  1.8045  1.7075 -0.7527
  198bbb    H18 5967   7.378  10.918   2.964  1.3562 -0.4454 -2.7264
  198bbb     O1 5968   7.607  10.901   2.243  0.5738 -0.0706 -0.0466
  198bbb    H19 5969   7.321  10.704   2.576  0.0683  0.0900  0.3573
  199bbb     N1 5970   8.012  11.141   1.783  0.8595  0.2820  0.8887
  199bbb     C1 5971   7.964  11.241   1.878  0.3683  0.6699 -0.2882
  199bbb     H1 5972   7.893  11.304   1.823 -0.1197  0.1824 -0.2229
  199bbb     H2 5973   8.049  11.303   1.908  0.6107  0.3253 -0.2606
  199bbb     C2 5974   8.051  11.213   1.659  0.7820  0.0110  0.7515
  199bbb     H3 5975   8.115  11.145   1.603  2.1686  0.5433  1.6380
  199bbb     H4 5976   8.110  11.296   1.699 -0.2524  1.2140 -0.1281
  199bbb     C3 5977   8.132  11.069   1.839  0.0567  0.9312 -0.2968
  199bbb     H5 5978   8.117  11.059   1.947 -0.2944  0.2757 -0.4002
  199bbb     H6 5979   8.222  11.129   1.822  0.7665 -0.3273 -1.1028
  199bbb     C4 5980   8.151  10.928   1.775 -0.4291 -0.4065  0.3431
  199bbb     H7 5981   8.253  10.894   1.794 -0.2119 -0.2918 -0.5563
  199bbb     H8 5982   8.169  10.942   1.667 -0.3411  0.5437  0.4769
  199bbb     C5 5983   7.889  11.187   1.998  0.0848 -0.2456  0.6248
  199bbb     H9 5984   7.959  11.142   2.069 -0.2174  0.1890  1.2055
  199bbb    H10 5985   7.820  11.108   1.965 -1.1172  0.4665  1.3467
  199bbb     C6 5986   7.940  11.269   1.572 -0.9094  0.7144 -0.4612
  199bbb    H11 5987   7.870  11.322   1.637 -0.0291 -0.7638  1.8234
  199bbb    H12 5988   7.884  11.195   1.515 -1.0012  1.3896 -1.2641
  199bbb     C7 5989   8.051  10.819   1.819  0.4885  0.0382  0.2067
  199bbb    H13 5990   8.061  10.812   1.928 -0.3743 -2.2676  0.1860
  199bbb    H14 5991   8.076  10.721   1.778  1.1853  0.1705  0.3047
  199bbb     C8 5992   8.006  11.377   1.480  0.6228  0.1389 -0.4929
  199bbb    H15 5993   8.099  11.348   1.429  0.5622  1.3128 -1.3112
  199bbb    H16 5994   7.934  11.406   1.403  1.0080  0.7940 -0.6158
  199bbb     C9 5995   7.818  11.291   2.074  0.1466 -0.0172 -0.8614
  199bbb    H17 5996   7.767  11.261   2.167  0.1357  2.3523 -0.0330
  199bbb    H18 5997   7.733  11.323   2.012  0.2913  0.1964 -0.9496
  199bbb     O1 5998   7.925  10.874   1.773  0.1058 -0.0480 -0.4174
  199bbb    H19 5999   7.936  11.077   1.756  0.3521  1.4992 -0.7390
  200bbb     N1 6000   7.761   9.328   2.114  0.2577  0.0742  0.3981
  200bbb     C1 6001   7.726   9.241   1.995 -0.7827  0.5686  0.9717
  200bbb     H1 6002   7.807   9.169   1.980  0.9378  2.6437 -0.2969
  200bbb     H2 6003   7.741   9.299   1.904 -1.1743  0.2032  0.6688
  200bbb     C2 6004   7.740   9.262   2.254 -0.0220 -0.2909 -0.6061
  200bbb     H3 6005   7.816   9.293   2.325 -0.4717  2.5249 -1.2207
  200bbb     H4 6006   7.738   9.154   2.248  2.7061 -0.4415  0.1274
  200bbb     C3 6007   7.904   9.383   2.100  0.0977  0.1623 -0.2263
  200bbb     H5 6008   7.922   9.448   2.186  0.6635 -1.8008  1.2232
  200bbb     H6 6009   7.907   9.452   2.016  2.8300 -0.8166 -1.0166
  200bbb     C4 6010   8.018   9.280   2.087  0.6429  0.9557  0.2728
  200bbb     H7 6011   8.014   9.228   1.990  1.3315 -0.4284  0.9623
  200bbb     H8 6012   8.016   9.204   2.166 -0.6278 -0.0774 -0.6997
  200bbb     C5 6013   7.600   9.155   2.010 -0.4470  0.1925  1.0964
  200bbb     H9 6014   7.514   9.220   2.029 -0.3237  1.8458 -3.0716
  200bbb    H10 6015   7.609   9.086   2.095 -0.7012 -0.8096  0.3261
  200bbb     C6 6016   7.610   9.318   2.312 -0.1991 -0.3432  0.0563
  200bbb    H11 6017   7.520   9.293   2.255  0.0910 -0.1455 -0.4866
  200bbb    H12 6018   7.606   9.427   2.311 -0.7989 -0.3196  1.6262
  200bbb     C7 6019   8.158   9.337   2.104  0.3658 -0.2772 -0.2612
  200bbb    H13 6020   8.228   9.252   2.106 -0.4296 -0.9313  0.7744
  200bbb    H14 6021   8.169   9.402   2.191 -1.6256  0.4926 -0.5389
  200bbb     C8 6022   7.599   9.289   2.463  0.0284 -0.2974  0.0820
  200bbb    H15 6023   7.690   9.325   2.512 -0.4366 -0.3455  0.9856
  200bbb    H16 6024   7.516   9.352   2.497  1.0191  0.3116  1.4361
  200bbb     C9 6025   7.585   9.065   1.885 -0.3621 -0.1225  0.0562
  200bbb    H17 6026   7.582   9.124   1.793  0.4179 -1.1926 -0.6804
  200bbb    H18 6027   7.487   9.015   1.877 -0.0673 -0.4366 -2.4105
  200bbb     O1 6028   8.176   9.428   1.989 -0.1300  0.6960  0.0916
  200bbb    H19 6029   7.700   9.411   2.118 -1.9250 -1.3166 -1.5818
  201bbb     N1 6030   8.590   9.314   1.012 -0.1091  0.0330  0.9306
  201bbb     C1 6031   8.459   9.369   0.942  0.1164  0.3804  0.0728
  201bbb     H1 6032   8.378   9.378   1.015 -0.3073  0.7496 -0.4396
  201bbb     H2 6033   8.437   9.283   0.878  1.0035  1.2738 -1.4857
  201bbb     C2 6034   8.702   9.283   0.910 -0.5083 -0.1551  0.2732
  201bbb     H3 6035   8.774   9.224   0.967  1.1988 -0.1199 -1.7481
  201bbb     H4 6036   8.752   9.377   0.887  1.4406 -0.6258  2.2503
  201bbb     C3 6037   8.652   9.407   1.107  0.0368  0.5717  0.1948
  201bbb     H5 6038   8.672   9.500   1.054  1.8289  0.2868  0.3409
  201bbb     H6 6039   8.740   9.352   1.138 -0.9522 -1.8071 -0.9440
  201bbb     C4 6040   8.576   9.426   1.236  1.0133  0.6500 -0.4107
  201bbb     H7 6041   8.520   9.337   1.265  0.5949  0.8797 -0.4974
  201bbb     H8 6042   8.492   9.492   1.213  0.4552 -0.4633 -1.6965
  201bbb     C5 6043   8.464   9.495   0.862  0.4673 -0.1693 -0.3882
  201bbb     H9 6044   8.559   9.516   0.811 -0.4614  2.7237 -1.1178
  201bbb    H10 6045   8.456   9.575   0.936 -0.0840 -0.4215 -0.1710
  201bbb     C6 6046   8.665   9.200   0.783  0.2480  0.3842 -0.8861
  201bbb    H11 6047   8.756   9.190   0.722  0.1417  1.7264 -1.2952
  201bbb    H12 6048   8.604   9.243   0.703 -0.9365 -1.8306 -1.2456
  201bbb     C7 6049   8.662   9.475   1.354  0.1260  0.4482 -0.1977
  201bbb    H13 6050   8.703   9.568   1.314  0.6441  0.8804  1.2582
  201bbb    H14 6051   8.740   9.399   1.367 -1.1693 -1.1280 -1.2275
  201bbb     C8 6052   8.596   9.063   0.812 -0.6325 -0.3576 -0.1447
  201bbb    H15 6053   8.620   8.995   0.730  0.5123  2.1402 -2.0414
  201bbb    H16 6054   8.641   9.020   0.902  1.1245  0.5984 -0.5271
  201bbb     C9 6055   8.346   9.502   0.760  0.5650  0.3206  0.3619
  201bbb    H17 6056   8.355   9.598   0.707 -0.4534  0.4457  0.3944
  201bbb    H18 6057   8.249   9.497   0.811 -0.3821  1.1400 -1.2587
  201bbb     O1 6058   8.589   9.492   1.479 -0.0503 -0.2098  0.0453
  201bbb    H19 6059   8.560   9.229   1.062 -1.5766 -1.3016 -1.9478
  202bbb     N1 6060   6.310  10.436   2.904  0.0370 -0.0872  0.3904
  202bbb     C1 6061   6.307  10.586   2.920 -0.2469 -1.0178  0.1771
  202bbb     H1 6062   6.231  10.628   2.854 -1.2347 -0.3038  1.7275
  202bbb     H2 6063   6.405  10.614   2.881 -0.5739  0.8674  0.6246
  202bbb     C2 6064   6.311  10.392   2.760  0.1152 -0.0392  0.3686
  202bbb     H3 6065   6.318  10.284   2.772 -3.3000 -0.7273 -2.1960
  202bbb     H4 6066   6.402  10.426   2.710  0.7940 -2.8720 -0.4624
  202bbb     C3 6067   6.418  10.376   2.995 -0.6368  0.5948 -0.2931
  202bbb     H5 6068   6.395  10.400   3.099  0.6104  0.1151  0.1164
  202bbb     H6 6069   6.506  10.437   2.976 -1.4741  1.7570 -0.5534
  202bbb     C4 6070   6.446  10.217   2.972  0.0351  0.1855  0.0956
  202bbb     H7 6071   6.458  10.204   2.864 -1.4677  1.5602 -0.2842
  202bbb     H8 6072   6.359  10.154   2.994  1.8252 -2.5150 -0.1050
  202bbb     C5 6073   6.275  10.637   3.059  0.2091 -0.4376 -0.9737
  202bbb     H9 6074   6.281  10.745   3.076 -1.9734 -0.4459  0.1643
  202bbb    H10 6075   6.347  10.601   3.134 -0.7097 -0.5868 -0.1369
  202bbb     C6 6076   6.178  10.425   2.684  0.0249  0.2485 -0.5004
  202bbb    H11 6077   6.094  10.447   2.752 -0.8876 -0.7282 -1.2655
  202bbb    H12 6078   6.153  10.335   2.627 -0.8504  1.9986 -3.0471
  202bbb     C7 6079   6.578  10.175   3.041  0.2854 -0.2314 -0.2346
  202bbb    H13 6080   6.569  10.159   3.149 -2.7055 -1.0383 -0.5074
  202bbb    H14 6081   6.653  10.255   3.037 -0.9257  0.9908  0.6297
  202bbb     C8 6082   6.196  10.537   2.589 -0.0318 -0.5319 -0.4678
  202bbb    H15 6083   6.097  10.574   2.556 -0.2510  0.2736  1.0332
  202bbb    H16 6084   6.248  10.611   2.650 -2.6961  0.7759  0.3921
  202bbb     C9 6085   6.140  10.591   3.114  0.2674  0.7009  0.9140
  202bbb    H17 6086   6.119  10.656   3.199 -0.5566 -0.9224  2.0175
  202bbb    H18 6087   6.150  10.486   3.145  3.9459  0.8000  0.5313
  202bbb     O1 6088   6.632  10.055   2.971  1.0937 -0.2721  0.4606
  202bbb    H19 6089   6.217  10.399   2.932  0.5066 -2.9110 -1.4226
  203bbb     N1 6090   5.956   9.402   2.322  0.4603 -0.8423  0.2306
  203bbb     C1 6091   5.820   9.328   2.317  0.4826 -0.0394 -0.1352
  203bbb     H1 6092   5.836   9.220   2.322 -1.8200 -0.3827  0.9572
  203bbb     H2 6093   5.782   9.336   2.215  1.9642 -0.6339 -0.7606
  203bbb     C2 6094   5.940   9.545   2.280 -0.1146 -0.5674  0.1588
  203bbb     H3 6095   6.030   9.605   2.296  0.1351 -1.0455  0.5455
  203bbb     H4 6096   5.857   9.575   2.344 -1.1688 -1.0619 -0.9164
  203bbb     C3 6097   6.012   9.398   2.462  0.3680 -0.2853  0.1292
  203bbb     H5 6098   5.928   9.421   2.528 -0.9822 -0.3943 -1.4709
  203bbb     H6 6099   6.091   9.469   2.485  1.2551 -0.5645 -1.8107
  203bbb     C4 6100   6.062   9.255   2.501 -0.1509 -0.3472  0.4825
  203bbb     H7 6101   6.119   9.202   2.423 -0.2937 -2.6898  1.8791
  203bbb     H8 6102   5.967   9.200   2.504  0.0161 -0.5955  1.3154
  203bbb     C5 6103   5.713   9.364   2.417 -0.5392 -0.3154  0.7321
  203bbb     H9 6104   5.705   9.472   2.437 -1.1076 -0.3702  0.8098
  203bbb    H10 6105   5.734   9.299   2.503  2.4436 -0.4992 -0.0348
  203bbb     C6 6106   5.887   9.575   2.138  0.5899  0.6991  0.2072
  203bbb    H11 6107   5.814   9.656   2.141 -1.9652 -1.4719  2.1265
  203bbb    H12 6108   5.824   9.488   2.112  0.6337  0.2326  1.5996
  203bbb     C7 6109   6.137   9.254   2.640  0.4398  0.0610 -0.7819
  203bbb    H13 6110   6.169   9.152   2.664  2.0212  0.0807 -2.5861
  203bbb    H14 6111   6.060   9.276   2.714  1.0741 -1.5110  0.4028
  203bbb     C8 6112   5.986   9.610   2.028  0.2993 -0.0079 -0.4430
  203bbb    H15 6113   6.043   9.521   1.999 -2.4377 -2.0025 -0.1153
  203bbb    H16 6114   5.923   9.650   1.947 -2.1603 -0.6305  1.0392
  203bbb     C9 6115   5.578   9.313   2.366 -0.0435 -0.3030 -0.8228
  203bbb    H17 6116   5.548   9.360   2.272  1.5067  2.7797  0.1158
  203bbb    H18 6117   5.509   9.325   2.451  0.0799 -0.8525 -0.6375
  203bbb     O1 6118   6.245   9.342   2.638 -0.0295 -0.3538  0.8549
  203bbb    H19 6119   6.021   9.355   2.257  0.6793  1.3498 -1.2326
  204bbb     N1 6120   6.468  10.140   1.383  0.1458  0.4426  0.0243
  204bbb     C1 6121   6.559  10.051   1.467 -0.4252  0.0533 -0.4421
  204bbb     H1 6122   6.639  10.021   1.398  0.1493  0.8200 -0.1303
  204bbb     H2 6123   6.503   9.961   1.490 -0.5796  0.5934  1.4723
  204bbb     C2 6124   6.542  10.253   1.319  0.8936  0.1348  0.6793
  204bbb     H3 6125   6.620  10.205   1.260  0.1605  0.1098 -0.2968
  204bbb     H4 6126   6.594  10.308   1.398 -2.1951  2.8435  1.0292
  204bbb     C3 6127   6.396  10.048   1.285  0.0138  0.4734 -0.0303
  204bbb     H5 6128   6.474   9.977   1.257 -0.8955 -0.4697 -0.2289
  204bbb     H6 6129   6.363  10.107   1.200 -1.3420  1.1202  0.9035
  204bbb     C4 6130   6.293   9.941   1.337  0.0009  0.6512  0.2145
  204bbb     H7 6131   6.192   9.954   1.297 -0.8222  0.5317  2.1280
  204bbb     H8 6132   6.276   9.948   1.445  0.5879 -1.0118  0.4433
  204bbb     C5 6133   6.608  10.113   1.601 -0.1977  0.0849  0.5348
  204bbb     H9 6134   6.652  10.213   1.591  2.5060 -1.1368 -1.1026
  204bbb    H10 6135   6.697  10.064   1.643  1.1026 -1.1070 -3.1593
  204bbb     C6 6136   6.458  10.354   1.233  0.4257  0.1386 -0.0761
  204bbb    H11 6137   6.392  10.302   1.162 -1.9176  0.6462  1.5976
  204bbb    H12 6138   6.525  10.408   1.165  0.6932  3.0840  2.3027
  204bbb     C7 6139   6.331   9.795   1.305  0.5934  0.3915  0.3057
  204bbb    H13 6140   6.330   9.777   1.196  0.8096 -1.1276  0.5258
  204bbb    H14 6141   6.247   9.735   1.342 -0.4295  1.6663  0.1361
  204bbb     C8 6142   6.367  10.447   1.316 -0.4374  0.6264 -0.0646
  204bbb    H15 6143   6.319  10.522   1.252 -0.0427  1.8497  1.0182
  204bbb    H16 6144   6.287  10.390   1.365  1.0523  0.7957  2.7838
  204bbb     C9 6145   6.497  10.111   1.699  0.1700  0.2767  0.0346
  204bbb    H17 6146   6.528  10.120   1.803  0.8416 -0.7229 -0.0670
  204bbb    H18 6147   6.452  10.013   1.680 -0.0148  0.6804 -1.8007
  204bbb     O1 6148   6.458   9.750   1.359  0.0012 -0.8838  0.0525
  204bbb    H19 6149   6.400  10.190   1.442 -1.2798 -1.1913 -0.1541
  205bbb     N1 6150   7.139   9.230   0.834 -0.6206  0.1394 -0.3303
  205bbb     C1 6151   7.243   9.282   0.933 -0.5531  0.5651  0.4719
  205bbb     H1 6152   7.285   9.196   0.986 -0.8879  0.5483  0.7128
  205bbb     H2 6153   7.188   9.326   1.017 -0.4221 -0.6553  1.2301
  205bbb     C2 6154   7.042   9.145   0.922  0.0674 -0.2201 -0.2210
  205bbb     H3 6155   6.964   9.105   0.858  1.8711 -3.1646 -0.7781
  205bbb     H4 6156   7.000   9.216   0.993 -1.5129 -0.9724 -0.3633
  205bbb     C3 6157   7.056   9.336   0.755  0.1980 -0.2050 -0.5169
  205bbb     H5 6158   7.003   9.283   0.675  0.3946  2.2635 -2.3836
  205bbb     H6 6159   7.128   9.396   0.700 -0.5948  0.8743 -0.3977
  205bbb     C4 6160   6.960   9.436   0.827  0.1863  0.7902  1.0692
  205bbb     H7 6161   6.872   9.382   0.866  1.6735 -1.5480  1.3719
  205bbb     H8 6162   6.917   9.499   0.748 -1.6951 -0.5938  0.9038
  205bbb     C5 6163   7.344   9.372   0.861 -0.5765  0.2855 -0.3597
  205bbb     H9 6164   7.307   9.470   0.829  0.8063  0.7657 -0.5463
  205bbb    H10 6165   7.382   9.326   0.769 -0.7138 -0.9074  0.1636
  205bbb     C6 6166   7.104   9.029   1.006  0.4787 -0.8327  0.2000
  205bbb    H11 6167   7.036   8.987   1.081  1.0600 -0.3545  1.0078
  205bbb    H12 6168   7.162   9.077   1.086 -3.1435  1.9581  1.4159
  205bbb     C7 6169   7.026   9.518   0.932  0.1091 -0.1519 -0.0466
  205bbb    H13 6170   6.956   9.600   0.954 -0.5696 -0.3037 -1.5480
  205bbb    H14 6171   7.129   9.544   0.904 -0.2862  0.6335 -0.8131
  205bbb     C8 6172   7.182   8.923   0.925  0.1102 -0.5670  1.2263
  205bbb    H15 6173   7.215   8.852   1.002 -0.8850 -1.1863  1.1007
  205bbb    H16 6174   7.119   8.876   0.849  0.3488  1.1805 -0.1142
  205bbb     C9 6175   7.460   9.397   0.963  0.1016 -0.3319  0.2324
  205bbb    H17 6176   7.424   9.416   1.064 -0.2200  0.0563  0.0439
  205bbb    H18 6177   7.515   9.490   0.944 -0.2535  0.0605  1.0856
  205bbb     O1 6178   7.022   9.439   1.055 -0.0548  0.4758  0.1159
  205bbb    H19 6179   7.179   9.168   0.762  0.6456  0.6410 -0.0737
  206bbb     N1 6180   8.771  10.518   5.089 -0.7648  0.2918 -0.0354
  206bbb     C1 6181   8.645  10.584   5.042 -0.1013 -0.3064 -0.3881
  206bbb     H1 6182   8.565  10.548   5.107 -0.2828  1.0469  0.1709
  206bbb     H2 6183   8.619  10.549   4.942  0.1331 -2.6338  0.2899
  206bbb     C2 6184   8.800  10.549   5.233  0.4565 -0.6137 -0.5784
  206bbb     H3 6185   8.720  10.498   5.286  0.9990 -1.2798 -0.3819
  206bbb     H4 6186   8.795  10.656   5.252 -1.4711 -0.9092  0.8557
  206bbb     C3 6187   8.752  10.366   5.060  0.0129 -0.6145 -0.4713
  206bbb     H5 6188   8.648  10.345   5.089  0.8150 -0.8383  2.5761
  206bbb     H6 6189   8.818  10.311   5.127  1.2058  2.0989  0.7449
  206bbb     C4 6190   8.803  10.322   4.924 -0.2289  0.4654 -0.3377
  206bbb     H7 6191   8.751  10.378   4.845  0.0890 -0.4115 -1.1983
  206bbb     H8 6192   8.775  10.218   4.903 -0.3283  1.0821 -4.0606
  206bbb     C5 6193   8.643  10.737   5.024  0.1320  0.2380  0.5042
  206bbb     H9 6194   8.639  10.754   4.916  1.9125  0.9985  0.5177
  206bbb    H10 6195   8.740  10.783   5.049  0.3372  0.5857 -0.8411
  206bbb     C6 6196   8.944  10.507   5.278  0.2881 -0.1980 -0.2812
  206bbb    H11 6197   9.012  10.550   5.203 -1.7689  1.4582 -1.3273
  206bbb    H12 6198   8.955  10.399   5.288 -1.6509 -0.3748  0.4283
  206bbb     C7 6199   8.957  10.338   4.908  0.2860  0.1257 -0.8860
  206bbb    H13 6200   8.975  10.283   4.815 -2.4020 -3.6266  0.5627
  206bbb    H14 6201   9.008  10.291   4.993  1.0452  0.6129 -1.0638
  206bbb     C8 6202   8.977  10.568   5.414 -0.5509  0.3156  0.1139
  206bbb    H15 6203   9.077  10.538   5.447 -0.3700 -0.3741 -1.0430
  206bbb    H16 6204   8.993  10.675   5.397 -2.5402  0.3819 -1.7576
  206bbb     C9 6205   8.522  10.797   5.110 -0.5558 -0.2535  0.8255
  206bbb    H17 6206   8.435  10.735   5.087  1.3283 -2.8401  0.1368
  206bbb    H18 6207   8.516  10.906   5.095  1.8076  0.1566  2.2390
  206bbb     O1 6208   9.007  10.473   4.908  0.1344 -0.3955 -0.0282
  206bbb    H19 6209   8.851  10.550   5.032 -1.6656  1.2360 -0.8060
  207bbb     N1 6210   9.129  10.180   5.638  0.0188 -0.0803 -0.3857
  207bbb     C1 6211   9.127  10.206   5.790  0.3644 -0.4378  0.9362
  207bbb     H1 6212   9.040  10.272   5.804 -1.0084 -1.6376 -1.3276
  207bbb     H2 6213   9.223  10.255   5.804 -0.1086  0.4392  1.1829
  207bbb     C2 6214   8.994  10.137   5.592 -0.4834  0.2346  0.2124
  207bbb     H3 6215   8.920  10.215   5.612  0.2442  0.5598  1.7696
  207bbb     H4 6216   8.968  10.050   5.653  0.8772 -0.4828 -0.1801
  207bbb     C3 6217   9.161  10.305   5.567  0.0659 -0.4468  0.4319
  207bbb     H5 6218   9.088  10.382   5.590  2.4241  1.8365  0.8154
  207bbb     H6 6219   9.149  10.306   5.459  0.6482  2.5926  0.3053
  207bbb     C4 6220   9.309  10.353   5.580  0.2602  0.4536  0.0352
  207bbb     H7 6221   9.369  10.267   5.549  0.7112  0.0950  1.7913
  207bbb     H8 6222   9.327  10.375   5.686  1.2861  0.4717 -0.1373
  207bbb     C5 6223   9.123  10.076   5.873 -0.3343 -0.5429 -0.7341
  207bbb     H9 6224   9.227  10.044   5.858 -0.2416 -1.3124  1.2655
  207bbb    H10 6225   9.066   9.995   5.827 -2.0906  0.3964 -0.2820
  207bbb     C6 6226   8.975  10.089   5.443  0.2788  0.1154  0.1316
  207bbb    H11 6227   9.034  10.000   5.418 -0.2644 -0.1455 -0.2509
  207bbb    H12 6228   8.997  10.171   5.373 -1.8318  0.9115  0.3199
  207bbb     C7 6229   9.321  10.477   5.490  0.3147  0.1681 -0.3499
  207bbb    H13 6230   9.422  10.519   5.490 -0.2150  1.4784 -0.3044
  207bbb    H14 6231   9.263  10.560   5.532 -1.3880 -0.9236 -0.4088
  207bbb     C8 6232   8.825  10.072   5.415  0.2811  0.0339 -0.3703
  207bbb    H15 6233   8.805  10.068   5.307 -0.2428 -0.4099 -0.2634
  207bbb    H16 6234   8.779   9.987   5.468  0.6901  1.1257  1.8266
  207bbb     C9 6235   9.101  10.090   6.028 -0.3659  0.9490 -0.2565
  207bbb    H17 6236   9.185  10.131   6.087 -1.6016  0.4293  1.9966
  207bbb    H18 6237   9.085   9.988   6.064 -1.5235  0.1904 -2.7638
  207bbb     O1 6238   9.295  10.437   5.344  0.3068 -0.3377 -0.3945
  207bbb    H19 6239   9.189  10.098   5.622 -1.1096 -0.8440 -0.7937
  208bbb     N1 6240  10.134   9.174   4.484 -0.4380 -0.2569  0.2527
  208bbb     C1 6241  10.224   9.233   4.371 -0.1346 -0.9879 -0.6735
  208bbb     H1 6242  10.173   9.323   4.334  1.2782  0.7349  1.3297
  208bbb     H2 6243  10.237   9.151   4.301 -1.3696 -0.7680 -1.1892
  208bbb     C2 6244  10.000   9.154   4.424  0.0855  0.4427 -0.0533
  208bbb     H3 6245   9.966   9.066   4.479  1.5643 -0.6061 -0.7659
  208bbb     H4 6246  10.011   9.123   4.320 -0.7293 -0.0932  0.0054
  208bbb     C3 6247  10.193   9.048   4.535 -0.4009  1.1015 -0.1561
  208bbb     H5 6248  10.294   9.080   4.560 -1.2454  2.2297  2.0768
  208bbb     H6 6249  10.201   8.978   4.452  2.3353 -0.3228  1.1746
  208bbb     C4 6250  10.137   8.975   4.654 -0.3093  0.0816 -0.1387
  208bbb     H7 6251  10.193   8.881   4.665  1.8397  1.1726 -1.1516
  208bbb     H8 6252  10.032   8.953   4.634 -0.2290 -0.8814  0.4360
  208bbb     C5 6253  10.373   9.274   4.417  0.2412  0.2122  0.3174
  208bbb     H9 6254  10.400   9.213   4.504  0.3095  0.7187  0.6608
  208bbb    H10 6255  10.368   9.379   4.449 -0.4402  0.2792 -0.0062
  208bbb     C6 6256   9.898   9.275   4.450  0.1841 -0.6845 -0.2491
  208bbb    H11 6257   9.808   9.275   4.388 -0.2901 -1.8233  0.4000
  208bbb    H12 6258   9.941   9.371   4.419 -0.1608 -0.7809 -1.0402
  208bbb     C7 6259  10.142   9.057   4.787  0.2094  0.1890 -0.2027
  208bbb    H13 6260  10.124   8.995   4.875 -0.6824  0.8587  0.0983
  208bbb    H14 6261  10.059   9.127   4.774 -0.5387 -0.8296 -1.0977
  208bbb     C8 6262   9.850   9.294   4.600 -0.6690  0.0535  0.4139
  208bbb    H15 6263   9.940   9.335   4.647 -0.5152  0.2922 -0.0823
  208bbb    H16 6264   9.772   9.371   4.599 -1.9665 -1.1958 -0.8227
  208bbb     C9 6265  10.479   9.257   4.310 -1.0209 -0.0005  0.2637
  208bbb    H17 6266  10.569   9.311   4.342 -0.2138 -0.3122 -1.3544
  208bbb    H18 6267  10.445   9.305   4.217  0.4427  1.4279  0.4024
  208bbb     O1 6268  10.264   9.137   4.798  0.1352  0.2418 -0.3836
  208bbb    H19 6269  10.134   9.239   4.564  0.9226  1.9928 -1.4614
  209bbb     N1 6270  10.807   8.659   4.885  0.1967 -0.1252 -0.3360
  209bbb     C1 6271  10.653   8.636   4.884 -0.9208  0.0749  0.4003
  209bbb     H1 6272  10.626   8.672   4.983  0.1501  1.0832  0.3552
  209bbb     H2 6273  10.639   8.529   4.873 -1.8792  0.0962  1.2781
  209bbb     C2 6274  10.890   8.602   4.771  0.1396 -0.4795  0.2533
  209bbb     H3 6275  10.991   8.644   4.778 -0.1863  0.9919 -2.3369
  209bbb     H4 6276  10.858   8.649   4.678  1.1286  0.1769  0.2292
  209bbb     C3 6277  10.843   8.812   4.906 -0.1488 -0.5481  0.0127
  209bbb     H5 6278  10.787   8.875   4.837  1.6308 -0.4855 -1.4504
  209bbb     H6 6279  10.945   8.831   4.871 -0.6634  0.2811 -1.0740
  209bbb     C4 6280  10.821   8.868   5.048  0.2495 -0.6032 -0.4845
  209bbb     H7 6281  10.857   8.799   5.125 -0.8874  1.7232  2.3437
  209bbb     H8 6282  10.714   8.879   5.068  0.2077 -1.1012 -0.4281
  209bbb     C5 6283  10.572   8.716   4.779 -0.2951 -0.5723 -0.0141
  209bbb     H9 6284  10.623   8.703   4.683  0.1145 -1.4845  0.3226
  209bbb    H10 6285  10.579   8.824   4.797  0.9519 -0.1207 -2.6289
  209bbb     C6 6286  10.886   8.449   4.752  0.3347 -0.1958 -0.0790
  209bbb    H11 6287  10.915   8.406   4.849  0.5968  0.4548  0.1364
  209bbb    H12 6288  10.972   8.427   4.687 -1.8523 -1.2770 -2.8354
  209bbb     C7 6289  10.876   9.005   5.086 -0.7234  0.3393  0.2265
  209bbb    H13 6290  10.984   8.998   5.103 -0.9723 -2.5141  1.1708
  209bbb    H14 6291  10.825   9.037   5.179  2.8127  0.2380  2.3664
  209bbb     C8 6292  10.761   8.390   4.675  0.1477 -0.2286 -0.3333
  209bbb    H15 6293  10.792   8.294   4.631 -1.1131 -0.6484 -0.3466
  209bbb    H16 6294  10.676   8.368   4.741 -0.3658  0.5818 -0.7081
  209bbb     C9 6295  10.422   8.689   4.769  0.0216  0.3693 -0.1605
  209bbb    H17 6296  10.411   8.584   4.740 -0.7338  0.6631 -0.9852
  209bbb    H18 6297  10.396   8.758   4.687  1.1322  0.7830 -0.1753
  209bbb     O1 6298  10.833   9.097   4.986  1.0161  0.0895 -0.2096
  209bbb    H19 6299  10.850   8.609   4.965  0.2511 -0.6673 -0.6987
  210bbb     N1 6300  10.676   9.519   2.863  0.5573  0.0963  0.8268
  210bbb     C1 6301  10.611   9.389   2.823  0.6092  0.0989 -0.2730
  210bbb     H1 6302  10.599   9.388   2.714 -2.8095  0.3303 -0.0022
  210bbb     H2 6303  10.508   9.394   2.858  0.0123 -0.0716 -1.9301
  210bbb     C2 6304  10.801   9.542   2.779  0.2697 -0.5281 -0.4488
  210bbb     H3 6305  10.872   9.467   2.815  0.4572 -0.5609 -0.8729
  210bbb     H4 6306  10.834   9.643   2.803  0.7567 -0.7400 -0.1941
  210bbb     C3 6307  10.589   9.631   2.837 -0.0293 -0.5072  0.4923
  210bbb     H5 6308  10.533   9.612   2.745  0.8972  2.6290 -0.8720
  210bbb     H6 6309  10.646   9.722   2.819 -0.9170 -0.2960 -1.4922
  210bbb     C4 6310  10.493   9.660   2.955 -0.4880  0.9624  0.0015
  210bbb     H7 6311  10.540   9.630   3.049 -0.9996 -0.0914 -0.0631
  210bbb     H8 6312  10.407   9.596   2.931 -0.2588  0.4642  0.5111
  210bbb     C5 6313  10.665   9.261   2.881 -0.2996  0.1802 -0.3508
  210bbb     H9 6314  10.641   9.258   2.988  2.0328  1.5680  0.2847
  210bbb    H10 6315  10.772   9.249   2.864 -0.3987 -1.4263 -0.0172
  210bbb     C6 6316  10.802   9.533   2.624  0.3357 -0.5715 -0.1013
  210bbb    H11 6317  10.734   9.610   2.585  2.1087  0.6249 -0.9701
  210bbb    H12 6318  10.781   9.430   2.592  0.5321 -0.8870  0.7447
  210bbb     C7 6319  10.437   9.804   2.942 -0.2743  0.0762 -0.6488
  210bbb    H13 6320  10.514   9.875   2.977 -1.0617 -0.1910  1.8094
  210bbb    H14 6321  10.361   9.809   3.020 -0.1668  0.3677 -0.5612
  210bbb     C8 6322  10.939   9.565   2.567 -0.8025 -0.6826 -0.1327
  210bbb    H15 6323  10.936   9.550   2.458 -1.8974  0.3096 -0.2591
  210bbb    H16 6324  10.960   9.668   2.597 -4.6577 -0.0619  0.9509
  210bbb     C9 6325  10.588   9.138   2.824  0.0006 -0.0324  0.3677
  210bbb    H17 6326  10.585   9.138   2.714 -0.0258 -0.8354  0.3609
  210bbb    H18 6327  10.483   9.143   2.855  1.0516  2.2544  4.2916
  210bbb     O1 6328  10.400   9.835   2.802  0.3970  0.2187  0.0458
  210bbb    H19 6329  10.707   9.510   2.961 -0.3273 -0.7111  1.0509
  211bbb     N1 6330  10.418  10.144   1.944 -0.5706  0.0124 -0.0420
  211bbb     C1 6331  10.526  10.196   1.858  0.3805  0.3148  0.0046
  211bbb     H1 6332  10.617  10.183   1.917 -0.0072  0.9287  0.7524
  211bbb     H2 6333  10.523  10.304   1.843  2.3027  0.5316  0.9652
  211bbb     C2 6334  10.292  10.193   1.887 -0.1551 -1.1366 -0.1760
  211bbb     H3 6335  10.236  10.118   1.830 -2.0980 -0.2776  0.4979
  211bbb     H4 6336  10.306  10.279   1.822 -1.5343  0.9961  2.1619
  211bbb     C3 6337  10.423   9.991   1.968  0.3949 -0.1554  0.5392
  211bbb     H5 6338  10.399   9.944   1.872 -1.6278  0.3643  0.7469
  211bbb     H6 6339  10.344   9.978   2.042  1.5606  0.0066  1.8472
  211bbb     C4 6340  10.555   9.939   2.040 -0.2328 -0.3971  0.0836
  211bbb     H7 6341  10.567  10.015   2.117  1.5336 -1.0679  0.5231
  211bbb     H8 6342  10.642   9.944   1.972 -0.5684  0.1857 -0.3116
  211bbb     C5 6343  10.528  10.135   1.720 -0.1822 -0.0822  0.8236
  211bbb     H9 6344  10.426  10.144   1.681  0.3856  0.2075 -0.6888
  211bbb    H10 6345  10.559  10.030   1.712  1.9741  0.5895 -0.7494
  211bbb     C6 6346  10.187  10.239   1.987  0.1729  0.5402  0.1057
  211bbb    H11 6347  10.214  10.324   2.051 -0.0347  0.9169 -0.2937
  211bbb    H12 6348  10.173  10.158   2.058  1.9682 -0.4777 -0.6315
  211bbb     C7 6349  10.547   9.791   2.089 -0.5001 -0.2007  0.1203
  211bbb    H13 6350  10.647   9.773   2.130 -0.1900  0.1759 -0.4553
  211bbb    H14 6351  10.522   9.720   2.009 -1.7813 -0.1833  0.4815
  211bbb     C8 6352  10.052  10.255   1.920  0.3293 -0.0251 -0.2574
  211bbb    H15 6353   9.978  10.283   1.996  2.7839 -0.9844  2.6629
  211bbb    H16 6354  10.060  10.334   1.844  3.7697 -0.8149 -0.8741
  211bbb     C9 6355  10.623  10.216   1.625 -0.5634 -0.4175 -0.0545
  211bbb    H17 6356  10.569  10.301   1.583 -0.7809 -1.3958 -1.8626
  211bbb    H18 6357  10.646  10.152   1.538 -0.9562 -1.1261  0.3530
  211bbb     O1 6358  10.454   9.792   2.200  0.2694  0.2659 -0.2524
  211bbb    H19 6359  10.427  10.186   2.037  0.7146 -1.8607  0.7463
  212bbb     N1 6360  10.409   8.643   3.584 -0.3206  0.1583  0.1154
  212bbb     C1 6361  10.506   8.743   3.518 -0.0215  0.1129 -0.4902
  212bbb     H1 6362  10.549   8.799   3.601  0.1658 -1.8420  0.8007
  212bbb     H2 6363  10.438   8.806   3.461 -1.8092 -0.4125  0.9610
  212bbb     C2 6364  10.321   8.700   3.687  0.4918  0.2349 -0.1485
  212bbb     H3 6365  10.373   8.755   3.766  0.1388  0.4435 -0.0532
  212bbb     H4 6366  10.288   8.613   3.744  0.4742  1.3500  1.6284
  212bbb     C3 6367  10.327   8.600   3.467  0.7511  0.0836  0.4275
  212bbb     H5 6368  10.404   8.572   3.394 -0.7881  1.0206 -1.6540
  212bbb     H6 6369  10.272   8.683   3.423  1.4165  0.9704  1.2384
  212bbb     C4 6370  10.231   8.479   3.494  0.2249 -0.6000 -0.3765
  212bbb     H7 6371  10.183   8.490   3.592 -0.3015 -3.2881 -0.2515
  212bbb     H8 6372  10.286   8.384   3.493 -2.1231 -2.0468 -1.2121
  212bbb     C5 6373  10.631   8.675   3.444  0.2362 -0.3650 -0.2830
  212bbb     H9 6374  10.703   8.757   3.454  0.1482 -0.3056 -0.1194
  212bbb    H10 6375  10.610   8.668   3.337 -1.0042  2.3097 -0.3075
  212bbb     C6 6376  10.193   8.779   3.652  0.2434 -0.4349 -0.3167
  212bbb    H11 6377  10.113   8.721   3.604 -0.4650  0.4507 -0.2344
  212bbb    H12 6378  10.234   8.842   3.572 -2.8159  1.4919 -0.5331
  212bbb     C7 6379  10.114   8.463   3.391  0.0660  0.4978  0.2888
  212bbb    H13 6380  10.063   8.560   3.383 -0.9194  0.0497  0.9841
  212bbb    H14 6381  10.054   8.377   3.423  3.0661 -1.2672  1.6262
  212bbb     C8 6382  10.134   8.866   3.760  0.2132 -0.2520  0.2430
  212bbb    H15 6383  10.208   8.937   3.799  0.0345  0.3731 -0.5279
  212bbb    H16 6384  10.069   8.943   3.718 -2.3419 -0.8252  2.8340
  212bbb     C9 6385  10.697   8.551   3.511 -0.6435 -0.4010  0.0718
  212bbb    H17 6386  10.737   8.583   3.608 -0.6185  2.8707 -0.8899
  212bbb    H18 6387  10.790   8.524   3.460 -0.6260  0.1271 -0.1823
  212bbb     O1 6388  10.157   8.425   3.261 -0.3645  0.0147  0.4615
  212bbb    H19 6389  10.466   8.576   3.636 -1.9960 -0.7858  0.8190
  213bbb     N1 6390  10.553   8.572   2.398  0.6794  0.0170 -0.0938
  213bbb     C1 6391  10.489   8.442   2.367  0.6114  0.3653  0.1477
  213bbb     H1 6392  10.559   8.359   2.379 -1.1561 -0.9230  2.4127
  213bbb     H2 6393  10.456   8.458   2.265 -0.1055  0.2553  0.3586
  213bbb     C2 6394  10.697   8.572   2.354  0.3865  0.1202  0.8519
  213bbb     H3 6395  10.756   8.502   2.414  0.2342 -0.8398 -0.0731
  213bbb     H4 6396  10.738   8.670   2.376  0.1724  0.5528 -0.5461
  213bbb     C3 6397  10.483   8.685   2.326 -0.1220 -0.3857  1.2444
  213bbb     H5 6398  10.381   8.666   2.293  0.3393 -1.7568  0.4877
  213bbb     H6 6399  10.528   8.690   2.227 -1.5111 -1.3406  0.5342
  213bbb     C4 6400  10.501   8.826   2.397  0.2268  0.6945 -0.8051
  213bbb     H7 6401  10.460   8.909   2.338  0.3441  0.4839 -1.1836
  213bbb     H8 6402  10.604   8.842   2.429  0.2685  2.6559 -1.7781
  213bbb     C5 6403  10.380   8.406   2.474 -0.1171 -0.1582  0.4008
  213bbb     H9 6404  10.316   8.328   2.431  0.7556 -1.0144  0.6113
  213bbb    H10 6405  10.312   8.488   2.500 -2.1867 -1.3375 -0.9743
  213bbb     C6 6406  10.732   8.522   2.210  0.1093  0.3280 -0.0937
  213bbb    H11 6407  10.670   8.586   2.146 -0.6893 -1.3123 -1.0336
  213bbb    H12 6408  10.694   8.423   2.184 -1.1699  1.5089 -3.2401
  213bbb     C7 6409  10.415   8.825   2.522 -0.0115  0.6582 -0.2634
  213bbb    H13 6410  10.317   8.780   2.504  0.4529 -1.1150  1.2927
  213bbb    H14 6411  10.393   8.926   2.559 -2.0313 -0.0082  0.4698
  213bbb     C8 6412  10.880   8.535   2.166 -0.7272 -0.3510 -0.7331
  213bbb    H15 6413  10.936   8.464   2.228  1.0250 -0.9412 -2.8839
  213bbb    H16 6414  10.897   8.506   2.062  1.0639 -0.9868 -0.3024
  213bbb     C9 6415  10.434   8.340   2.610  0.8302  0.1560  0.8199
  213bbb    H17 6416  10.472   8.240   2.587  0.7842 -0.0122  1.4480
  213bbb    H18 6417  10.349   8.329   2.678 -1.4511  0.3850 -1.8140
  213bbb     O1 6418  10.472   8.740   2.633  0.0618 -0.1203 -0.0780
  213bbb    H19 6419  10.540   8.590   2.498 -1.8437 -1.0850 -0.1489
  214bbb     N1 6420   9.886   7.518   4.390 -0.3238  0.7345 -0.1966
  214bbb     C1 6421   9.985   7.578   4.293 -0.8516  0.0971 -0.1341
  214bbb     H1 6422  10.029   7.671   4.329 -1.2800  0.7185 -1.1767
  214bbb     H2 6423   9.936   7.603   4.199  1.7110  1.7749 -1.1457
  214bbb     C2 6424   9.820   7.380   4.354  0.2881  0.1834 -0.3220
  214bbb     H3 6425   9.750   7.340   4.427  1.7091  0.8427  1.5134
  214bbb     H4 6426   9.909   7.317   4.356  1.4670  1.6583 -2.3673
  214bbb     C3 6427   9.944   7.501   4.533  0.4863 -0.0305 -0.1067
  214bbb     H5 6428  10.050   7.480   4.521  0.2771 -0.2409 -1.8641
  214bbb     H6 6429   9.902   7.410   4.576  1.5309 -0.0841  0.8638
  214bbb     C4 6430   9.916   7.616   4.635  0.0096  0.9388  0.2044
  214bbb     H7 6431   9.983   7.602   4.720  1.2050 -0.9124 -0.9521
  214bbb     H8 6432   9.823   7.593   4.690  2.5271 -3.6147  3.2206
  214bbb     C5 6433  10.108   7.479   4.271 -0.0284  0.1594 -0.0538
  214bbb     H9 6434  10.068   7.386   4.231 -3.1193  2.4366 -2.7950
  214bbb    H10 6435  10.161   7.463   4.366  0.7104  2.0777 -0.0835
  214bbb     C6 6436   9.761   7.362   4.213 -0.0754 -0.7065 -0.6174
  214bbb    H11 6437   9.838   7.392   4.140 -1.2253  0.6039 -1.3309
  214bbb    H12 6438   9.690   7.442   4.192  0.9249  0.7985  1.4358
  214bbb     C7 6439   9.919   7.755   4.574  0.5612 -0.4298 -0.5509
  214bbb    H13 6440  10.007   7.761   4.509  2.0727  0.8337  1.5186
  214bbb    H14 6441   9.940   7.830   4.650  0.4357 -0.9834  0.0379
  214bbb     C8 6442   9.698   7.221   4.191  0.2365  0.4878 -0.3818
  214bbb    H15 6443   9.622   7.184   4.261  1.5027 -0.6337  0.4520
  214bbb    H16 6444   9.641   7.215   4.097 -0.1560 -2.4588 -0.0463
  214bbb     C9 6445  10.212   7.534   4.166  0.5336 -0.8240  0.6100
  214bbb    H17 6446  10.268   7.452   4.120 -1.9017 -2.2653  0.0332
  214bbb    H18 6447  10.282   7.603   4.215  2.9058 -4.3956  2.7361
  214bbb     O1 6448   9.796   7.778   4.498 -0.5212 -0.3649 -0.1557
  214bbb    H19 6449   9.813   7.590   4.394 -0.9646  0.0771  0.3613
  215bbb     N1 6450   9.509   8.600   3.856  0.3016  0.0494 -0.4391
  215bbb     C1 6451   9.540   8.747   3.844 -0.1611 -0.4451 -0.3314
  215bbb     H1 6452   9.532   8.782   3.947  0.0783 -2.4720  0.4110
  215bbb     H2 6453   9.462   8.804   3.793  0.1793  1.2342  0.9605
  215bbb     C2 6454   9.360   8.571   3.903  0.3956  0.6125  0.8650
  215bbb     H3 6455   9.366   8.475   3.954  1.7492  0.1252 -0.1273
  215bbb     H4 6456   9.299   8.560   3.813  1.8398  2.2651 -0.3819
  215bbb     C3 6457   9.531   8.523   3.729  0.1574  0.2425 -0.5479
  215bbb     H5 6458   9.620   8.565   3.682  1.3023 -0.5000  0.8891
  215bbb     H6 6459   9.442   8.537   3.666  0.1096 -2.6911 -1.2756
  215bbb     C4 6460   9.567   8.371   3.743  0.4267 -0.3352  0.0333
  215bbb     H7 6461   9.672   8.357   3.773 -0.2292  2.0773  4.1461
  215bbb     H8 6462   9.551   8.320   3.647 -0.7157  0.2126 -0.0751
  215bbb     C5 6463   9.679   8.781   3.787  0.6248  0.6040  0.3689
  215bbb     H9 6464   9.678   8.761   3.679 -1.4380 -1.3629  0.6779
  215bbb    H10 6465   9.757   8.727   3.841  0.8002  1.0015  0.5165
  215bbb     C6 6466   9.283   8.669   3.999 -0.9546  0.5603  0.6033
  215bbb    H11 6467   9.175   8.649   3.995 -0.6908 -0.7814 -0.5521
  215bbb    H12 6468   9.303   8.770   3.962 -1.8807  0.0184 -1.5486
  215bbb     C7 6469   9.484   8.281   3.847  0.0975  0.1456  0.4749
  215bbb    H13 6470   9.501   8.175   3.821 -2.9878 -0.6393  1.1690
  215bbb    H14 6471   9.377   8.302   3.834  0.8002  3.4174 -0.9129
  215bbb     C8 6472   9.331   8.662   4.143 -0.0824 -0.0635  0.1879
  215bbb    H15 6473   9.274   8.740   4.196  1.4672  1.2560 -0.0376
  215bbb    H16 6474   9.302   8.560   4.173  1.1124 -0.5500 -0.2678
  215bbb     C9 6475   9.715   8.929   3.788 -0.2144 -0.5315  0.3968
  215bbb    H17 6476   9.640   8.997   3.746  2.2688  1.8824 -0.3944
  215bbb    H18 6477   9.799   8.934   3.717 -1.8755 -0.9033 -1.6924
  215bbb     O1 6478   9.527   8.318   3.981  0.0576 -0.0933  0.1591
  215bbb    H19 6479   9.569   8.567   3.933  0.5487  0.4828 -0.4432
  216bbb     N1 6480   9.461   6.544   3.378  0.1808 -0.8685 -0.4267
  216bbb     C1 6481   9.558   6.566   3.489 -0.0356  0.3765  0.2643
  216bbb     H1 6482   9.515   6.635   3.561  2.3760  2.4188 -0.1185
  216bbb     H2 6483   9.643   6.613   3.439  0.6484 -1.8811 -0.8949
  216bbb     C2 6484   9.328   6.488   3.425 -0.0221  0.0210 -0.5612
  216bbb     H3 6485   9.278   6.571   3.476  1.8335  0.8936 -0.0530
  216bbb     H4 6486   9.349   6.400   3.485 -1.4566  0.9381  1.3962
  216bbb     C3 6487   9.438   6.673   3.303 -0.5146  0.4211  0.1114
  216bbb     H5 6488   9.364   6.648   3.226  2.0414 -1.1754 -1.9878
  216bbb     H6 6489   9.525   6.689   3.240 -0.2807 -1.9980 -0.2600
  216bbb     C4 6490   9.393   6.809   3.369  0.0272  0.4647 -0.4645
  216bbb     H7 6491   9.448   6.819   3.463  1.5556  1.6792 -1.4324
  216bbb     H8 6492   9.284   6.815   3.383 -0.0046 -0.4979 -0.2681
  216bbb     C5 6493   9.614   6.430   3.540 -0.0068  0.4524  0.2987
  216bbb     H9 6494   9.571   6.346   3.485  1.0820 -0.1610  0.3648
  216bbb    H10 6495   9.574   6.415   3.641 -0.0428 -1.6136  0.0222
  216bbb     C6 6496   9.234   6.431   3.315  0.1950 -0.1232  0.2521
  216bbb    H11 6497   9.195   6.517   3.259  0.0926  0.4805  1.2231
  216bbb    H12 6498   9.152   6.379   3.365  0.9123  0.7618  2.4722
  216bbb     C7 6499   9.432   6.924   3.276 -0.6694 -0.3139 -0.0850
  216bbb    H13 6500   9.389   6.921   3.175  0.4535  2.5023 -0.7494
  216bbb    H14 6501   9.541   6.916   3.273 -0.6339  0.1941 -0.3470
  216bbb     C8 6502   9.302   6.339   3.213 -0.2223 -0.0933  0.2059
  216bbb    H15 6503   9.234   6.296   3.137  1.7261 -0.5756 -1.3551
  216bbb    H16 6504   9.379   6.388   3.151  0.8793 -1.0815  0.7534
  216bbb     C9 6505   9.768   6.422   3.544  0.0493 -0.1215 -0.1842
  216bbb    H17 6506   9.789   6.324   3.588  0.9230  0.3880  0.5596
  216bbb    H18 6507   9.820   6.420   3.448 -0.1130 -0.0010 -0.2746
  216bbb     O1 6508   9.385   7.049   3.334 -0.0486 -0.5241 -0.5319
  216bbb    H19 6509   9.505   6.487   3.304  0.9782  1.0551 -1.4941
  217bbb     N1 6510   8.918   7.054   2.546 -0.9397  0.7672 -0.2297
  217bbb     C1 6511   8.844   6.941   2.618  0.1965 -0.8910  0.0199
  217bbb     H1 6512   8.808   6.871   2.541  0.3191 -1.0702  0.1248
  217bbb     H2 6513   8.752   6.973   2.667 -1.0335 -0.1379 -2.5733
  217bbb     C2 6514   8.823   7.098   2.435  0.0179 -0.4335  0.0883
  217bbb     H3 6515   8.732   7.127   2.488  0.5873 -1.9353  1.9938
  217bbb     H4 6516   8.794   7.010   2.378  1.0477 -0.8174  0.1337
  217bbb     C3 6517   8.970   7.164   2.644  0.3120 -0.2946 -0.2479
  217bbb     H5 6518   9.044   7.224   2.590  0.9553  0.4411  1.3774
  217bbb     H6 6519   9.030   7.117   2.722 -0.5537 -1.6481 -0.3618
  217bbb     C4 6520   8.855   7.244   2.708 -0.1995 -1.0992  0.2712
  217bbb     H7 6521   8.809   7.195   2.795 -0.1249 -3.0446 -0.7430
  217bbb     H8 6522   8.779   7.275   2.635 -3.9485  1.9424  4.8110
  217bbb     C5 6523   8.933   6.879   2.730 -0.2431 -0.2913 -0.5813
  217bbb     H9 6524   8.934   6.951   2.813 -0.1967  0.6449 -1.3733
  217bbb    H10 6525   9.038   6.874   2.700 -0.5376 -0.8761 -1.5609
  217bbb     C6 6526   8.872   7.213   2.339  0.3975 -0.2319 -0.0910
  217bbb    H11 6527   8.896   7.297   2.406 -0.3099  0.4936 -0.7304
  217bbb    H12 6528   8.795   7.254   2.273  0.4521  1.2837  0.7370
  217bbb     C7 6529   8.912   7.373   2.769  0.2135  0.7388 -0.0300
  217bbb    H13 6530   8.826   7.438   2.786 -1.0233 -0.9565  0.4087
  217bbb    H14 6531   8.991   7.424   2.712  0.4921  0.8694  0.4630
  217bbb     C8 6532   8.992   7.164   2.256 -0.4285 -0.2480 -0.2939
  217bbb    H15 6533   8.972   7.066   2.211  1.9462 -0.1504 -1.7691
  217bbb    H16 6534   8.998   7.224   2.164  0.1364  0.6650  0.3324
  217bbb     C9 6535   8.879   6.739   2.783  0.5409  0.5068  0.7280
  217bbb    H17 6536   8.770   6.736   2.770  0.7407  1.7632 -1.8413
  217bbb    H18 6537   8.909   6.728   2.888  4.7594  1.8450 -0.1550
  217bbb     O1 6538   8.977   7.342   2.895  0.5929 -0.1886 -0.5296
  217bbb    H19 6539   9.003   7.012   2.505  0.1515 -0.0246  2.5412
  218bbb     N1 6540   7.931   9.068   3.121 -0.1687  0.0385 -0.1948
  218bbb     C1 6541   7.956   8.918   3.096 -0.2800 -0.0098 -0.2433
  218bbb     H1 6542   8.062   8.897   3.115  0.4521  0.9475 -2.8319
  218bbb     H2 6543   7.951   8.892   2.990  4.7608 -0.0441 -0.7287
  218bbb     C2 6544   7.890   9.101   3.262 -0.9059  0.4105  0.3646
  218bbb     H3 6545   7.931   9.200   3.280 -0.9275  0.0378  2.8156
  218bbb     H4 6546   7.946   9.033   3.327 -2.0054 -0.3580  0.5238
  218bbb     C3 6547   8.068   9.131   3.097  0.2883 -0.7494  0.3569
  218bbb     H5 6548   8.106   9.082   3.007  2.1405  0.4759  0.4072
  218bbb     H6 6549   8.134   9.103   3.180 -0.6230 -2.4374  0.5631
  218bbb     C4 6550   8.059   9.281   3.074 -0.4670 -0.2989  0.0232
  218bbb     H7 6551   8.034   9.326   3.171  1.2969  0.6471  0.0876
  218bbb     H8 6552   7.984   9.295   2.994  1.1170 -2.1157 -1.9023
  218bbb     C5 6553   7.858   8.821   3.176  0.4021 -0.0386 -1.0714
  218bbb     H9 6554   7.753   8.848   3.158 -0.2338 -1.2142  0.6064
  218bbb    H10 6555   7.863   8.843   3.283 -1.4339 -0.6650 -0.8192
  218bbb     C6 6556   7.733   9.110   3.285  0.4601 -0.1918 -0.8940
  218bbb    H11 6557   7.674   9.043   3.221 -1.6570  0.2446  0.4941
  218bbb    H12 6558   7.699   9.214   3.270 -1.8812 -0.8095 -0.3402
  218bbb     C7 6559   8.195   9.342   3.021 -0.1213  0.5268 -0.0857
  218bbb    H13 6560   8.260   9.340   3.110 -0.9785 -1.7625  0.5473
  218bbb    H14 6561   8.180   9.448   2.995  1.7219  1.1088  1.0422
  218bbb     C8 6562   7.700   9.070   3.425  0.0586  0.0909 -0.2805
  218bbb    H15 6563   7.767   9.132   3.486  0.7093 -0.4808 -0.3989
  218bbb    H16 6564   7.595   9.093   3.448 -0.6753 -1.7138 -1.5742
  218bbb     C9 6565   7.884   8.667   3.139 -1.3625 -0.3282  0.3492
  218bbb    H17 6566   7.990   8.641   3.143 -1.1001 -0.1020 -2.8441
  218bbb    H18 6567   7.848   8.641   3.039  0.3316 -4.2443  0.5439
  218bbb     O1 6568   8.251   9.268   2.906  0.4526 -0.5226  0.7591
  218bbb    H19 6569   7.866   9.113   3.056  0.2757  1.8118  0.5273
  219bbb     N1 6570   9.081   9.664   2.605  0.0272 -0.3945  0.0010
  219bbb     C1 6571   8.939   9.696   2.649  0.4659 -0.7180 -0.3404
  219bbb     H1 6572   8.869   9.636   2.590 -0.2841 -0.3633  0.1651
  219bbb     H2 6573   8.929   9.804   2.639 -0.8476 -0.7445  0.3903
  219bbb     C2 6574   9.180   9.751   2.677 -0.0756  0.5730 -0.9498
  219bbb     H3 6575   9.174   9.726   2.783  0.0571 -0.1556 -1.1041
  219bbb     H4 6576   9.148   9.852   2.651 -1.6135  0.2975 -0.2445
  219bbb     C3 6577   9.111   9.508   2.630  0.2709 -0.4684  0.1402
  219bbb     H5 6578   9.045   9.476   2.710  2.3561  0.4040  2.3400
  219bbb     H6 6579   9.216   9.497   2.659  0.6404  0.1595 -0.8883
  219bbb     C4 6580   9.081   9.423   2.507 -0.4925 -0.1672  0.1323
  219bbb     H7 6581   9.105   9.320   2.537  0.6615  0.7988  2.7724
  219bbb     H8 6582   9.134   9.460   2.418  1.0390 -1.5078  0.4428
  219bbb     C5 6583   8.919   9.685   2.805  0.0235 -0.2220 -0.3639
  219bbb     H9 6584   8.973   9.765   2.858 -0.2221 -1.4381  1.8428
  219bbb    H10 6585   8.959   9.593   2.849  0.3240 -0.9122 -2.0083
  219bbb     C6 6586   9.324   9.742   2.638 -0.1536  0.4838 -0.0471
  219bbb    H11 6587   9.370   9.644   2.655  1.1777  1.0915 -0.0397
  219bbb    H12 6588   9.381   9.821   2.688  0.1207  0.8453 -0.9114
  219bbb     C7 6589   8.929   9.409   2.470 -0.0134 -0.1359  0.7404
  219bbb    H13 6590   8.919   9.342   2.384  1.1557  0.9628 -0.2992
  219bbb    H14 6591   8.897   9.505   2.427  0.0726 -1.1796 -1.8537
  219bbb     C8 6592   9.349   9.775   2.489 -0.3460 -0.3747 -0.3340
  219bbb    H15 6593   9.308   9.872   2.459 -1.3116 -1.2412 -1.9214
  219bbb    H16 6594   9.457   9.770   2.473 -0.3948  0.1436 -0.8616
  219bbb     C9 6595   8.770   9.693   2.843  0.0459 -0.5530 -0.3748
  219bbb    H17 6596   8.751   9.673   2.949  2.0844  1.1844  0.4088
  219bbb    H18 6597   8.713   9.618   2.787 -0.9296  0.6915 -1.0909
  219bbb     O1 6598   8.849   9.372   2.587 -0.0751 -0.3681  0.5562
  219bbb    H19 6599   9.090   9.692   2.506  1.4211 -0.8989 -0.0270
  220bbb     N1 6600   8.541   8.508   2.279 -0.1006 -0.3499 -0.0558
  220bbb     C1 6601   8.547   8.626   2.185  0.2579  0.5378  0.7422
  220bbb     H1 6602   8.495   8.591   2.096 -0.0055 -0.5019  1.2915
  220bbb     H2 6603   8.653   8.636   2.158  0.0849 -1.4767 -0.9588
  220bbb     C2 6604   8.639   8.396   2.235 -0.2036 -0.2430  0.2476
  220bbb     H3 6605   8.639   8.327   2.320 -0.1983  0.1241  0.5478
  220bbb     H4 6606   8.732   8.446   2.208 -1.0030  0.8797 -0.5125
  220bbb     C3 6607   8.585   8.563   2.411 -0.2236  0.1218  0.2035
  220bbb     H5 6608   8.522   8.651   2.427  0.0666  0.6085 -1.2035
  220bbb     H6 6609   8.687   8.599   2.399 -0.3748 -0.0384 -1.9828
  220bbb     C4 6610   8.575   8.467   2.534 -0.0918  0.4457  0.9285
  220bbb     H7 6611   8.637   8.377   2.520  0.4835  1.1046 -1.0115
  220bbb     H8 6612   8.474   8.430   2.557  0.8905 -1.8729  1.8781
  220bbb     C5 6613   8.483   8.762   2.220 -0.9232  0.4631 -0.5964
  220bbb     H9 6614   8.494   8.831   2.135 -2.3164  2.4677  0.7564
  220bbb    H10 6615   8.550   8.803   2.296 -1.0029  0.0834 -0.3183
  220bbb     C6 6616   8.596   8.311   2.107 -0.5286 -0.1044 -0.6945
  220bbb    H11 6617   8.538   8.378   2.043  1.7500  2.2031 -0.4867
  220bbb    H12 6618   8.528   8.233   2.144  3.4046 -3.1927  0.7777
  220bbb     C7 6619   8.612   8.530   2.667 -0.6533 -0.7837 -0.1249
  220bbb    H13 6620   8.569   8.461   2.741 -1.7504  1.0001  0.9944
  220bbb    H14 6621   8.548   8.617   2.685  1.3788  0.6937  0.2318
  220bbb     C8 6622   8.718   8.254   2.033 -0.1180 -0.4927 -0.4310
  220bbb    H15 6623   8.686   8.213   1.936 -2.5406  0.8556 -0.3040
  220bbb    H16 6624   8.788   8.338   2.019 -0.1046 -0.1642  1.3423
  220bbb     C9 6625   8.335   8.753   2.259  0.3824  0.8254 -0.5824
  220bbb    H17 6626   8.300   8.848   2.301  1.5001  0.0429  2.3363
  220bbb    H18 6627   8.320   8.679   2.339 -0.3910  0.2559 -1.2300
  220bbb     O1 6628   8.757   8.554   2.688  0.1585  0.3328  0.0568
  220bbb    H19 6629   8.448   8.465   2.287 -0.7265  0.7933 -0.7844
  221bbb     N1 6630   9.870   7.992   2.695 -0.5353  0.2837  0.0289
  221bbb     C1 6631   9.924   7.941   2.565  0.8398  0.4832 -0.7022
  221bbb     H1 6632   9.967   8.027   2.512 -0.1743 -0.4499 -3.2263
  221bbb     H2 6633   9.849   7.906   2.494  2.3039  0.6674 -2.4301
  221bbb     C2 6634   9.974   8.095   2.746  0.2145 -0.3384  0.3161
  221bbb     H3 6635   9.979   8.184   2.682  0.2463 -0.4770  0.1244
  221bbb     H4 6636  10.075   8.061   2.726  0.5218  1.1596 -0.8619
  221bbb     C3 6637   9.734   8.061   2.677 -0.0281  0.5771  0.1262
  221bbb     H5 6638   9.733   8.136   2.598 -2.3670  0.7045  0.2022
  221bbb     H6 6639   9.714   8.105   2.774 -0.2555  1.2120 -0.2026
  221bbb     C4 6640   9.608   7.967   2.646 -0.2390  0.0660 -0.6764
  221bbb     H7 6641   9.619   7.877   2.709  0.3413 -0.2259 -1.1807
  221bbb     H8 6642   9.610   7.940   2.540 -1.7031 -1.8341 -0.2756
  221bbb     C5 6643  10.024   7.829   2.588  0.4767  0.0332 -0.1060
  221bbb     H9 6644  10.112   7.858   2.645 -1.2694  3.7544  0.9808
  221bbb    H10 6645  10.052   7.800   2.486 -0.8698 -2.6452  0.1858
  221bbb     C6 6646   9.965   8.121   2.899  0.1842 -0.6045 -0.3160
  221bbb    H11 6647   9.865   8.155   2.928 -0.0432 -0.4847 -1.1942
  221bbb    H12 6648  10.034   8.203   2.924  0.8833 -0.9519 -1.0651
  221bbb     C7 6649   9.475   8.033   2.690  0.0258 -0.9208  0.0987
  221bbb    H13 6650   9.393   7.964   2.664  0.6440 -1.6411  0.0489
  221bbb    H14 6651   9.463   8.122   2.627 -0.6009 -0.3697  0.9693
  221bbb     C8 6652  10.016   8.000   2.979  0.4477 -0.1901 -0.4204
  221bbb    H15 6653   9.937   7.927   2.998  1.6481 -1.5866 -0.5923
  221bbb    H16 6654  10.095   7.955   2.918 -1.0649 -2.1061 -1.0685
  221bbb     C9 6655   9.950   7.705   2.651 -0.3247 -0.4454 -0.7070
  221bbb    H17 6656   9.947   7.718   2.760  1.2731 -1.6061 -0.4933
  221bbb    H18 6657  10.006   7.613   2.635 -2.0735 -1.8939  0.9253
  221bbb     O1 6658   9.463   8.065   2.831  0.0360 -0.4160 -0.1631
  221bbb    H19 6659   9.864   7.908   2.755  1.8715 -1.8737 -2.4826
  222bbb     N1 6660   6.435  12.454   3.974 -0.3125  0.1767 -0.1851
  222bbb     C1 6661   6.497  12.398   3.844  0.9158 -0.5523 -0.2094
  222bbb     H1 6662   6.498  12.471   3.762  1.1589 -0.0978  0.1924
  222bbb     H2 6663   6.426  12.325   3.806 -0.5685  1.2084 -0.9602
  222bbb     C2 6664   6.523  12.573   4.029 -0.8648 -0.3414  0.6891
  222bbb     H3 6665   6.628  12.542   4.023 -0.7809 -0.1377  1.0344
  222bbb     H4 6666   6.506  12.583   4.137 -0.2449  0.9378  0.6833
  222bbb     C3 6667   6.293  12.494   3.975 -1.1535 -0.3006  0.1443
  222bbb     H5 6668   6.282  12.586   3.918 -2.0229  0.1766  1.0537
  222bbb     H6 6669   6.276  12.530   4.076 -0.3511 -1.1974  0.6182
  222bbb     C4 6670   6.180  12.392   3.941 -1.1722  0.7812  0.7377
  222bbb     H7 6671   6.201  12.291   3.980 -1.7692  0.4788  0.2987
  222bbb     H8 6672   6.164  12.370   3.835 -0.0127 -2.0361  1.0521
  222bbb     C5 6673   6.642  12.345   3.855 -0.4387 -0.2047  0.1103
  222bbb     H9 6674   6.644  12.265   3.930 -1.4846 -0.1935  0.1645
  222bbb    H10 6675   6.714  12.421   3.885 -0.1018 -0.3798 -0.2385
  222bbb     C6 6676   6.501  12.709   3.959 -0.0832 -0.1159  0.7604
  222bbb    H11 6677   6.541  12.793   4.016 -1.2667  1.4826 -0.6867
  222bbb    H12 6678   6.394  12.731   3.955 -0.2428 -0.5981  1.9763
  222bbb     C7 6679   6.047  12.439   4.006 -0.5041  0.2359  0.4192
  222bbb    H13 6680   6.066  12.478   4.107  3.0396  2.4904 -0.9287
  222bbb    H14 6681   5.981  12.353   4.024 -0.0824 -0.3858 -0.9055
  222bbb     C8 6682   6.557  12.726   3.815 -0.0550  0.6711 -0.1517
  222bbb    H15 6683   6.498  12.662   3.748  1.4251  0.0777 -0.9569
  222bbb    H16 6684   6.536  12.827   3.779  2.9667  1.4526 -0.0437
  222bbb     C9 6685   6.689  12.286   3.719 -0.1186 -0.6808 -0.6698
  222bbb    H17 6686   6.791  12.247   3.729 -0.2160 -0.7976 -0.0640
  222bbb    H18 6687   6.683  12.366   3.645 -0.9898 -0.8685 -0.8198
  222bbb     O1 6688   5.985  12.546   3.932  0.0193 -0.4150  0.5983
  222bbb    H19 6689   6.453  12.381   4.044 -0.0408  1.5011  1.1708
  223bbb     N1 6690   6.254  12.503   3.056 -0.6479  0.5143  0.2699
  223bbb     C1 6691   6.320  12.570   2.932 -0.0376  0.1598 -0.6139
  223bbb     H1 6692   6.407  12.508   2.908 -1.9365 -3.6980  1.3660
  223bbb     H2 6693   6.360  12.664   2.970 -0.3697  0.4721 -1.0380
  223bbb     C2 6694   6.303  12.359   3.061 -0.2071  0.1456 -0.4690
  223bbb     H3 6695   6.411  12.347   3.048 -0.6898 -2.6417 -3.2480
  223bbb     H4 6696   6.271  12.297   2.977 -2.1433 -0.7873  0.8804
  223bbb     C3 6697   6.289  12.573   3.183  0.3994 -0.2562 -0.2001
  223bbb     H5 6698   6.397  12.570   3.198  0.3108 -0.4804  0.3980
  223bbb     H6 6699   6.236  12.521   3.262  0.1484  1.7106  0.9909
  223bbb     C4 6700   6.244  12.720   3.201  0.1460  0.1956 -0.5906
  223bbb     H7 6701   6.290  12.796   3.137  0.1216 -0.3709 -1.3040
  223bbb     H8 6702   6.270  12.751   3.302  2.2908  2.8576 -1.8462
  223bbb     C5 6703   6.237  12.594   2.807 -0.2433  0.0009  0.1956
  223bbb     H9 6704   6.143  12.648   2.827  0.2780  1.0097  0.0212
  223bbb    H10 6705   6.206  12.497   2.767 -1.6268 -0.7279  2.8224
  223bbb     C6 6706   6.251  12.283   3.183 -0.3527 -0.0802 -0.2942
  223bbb    H11 6707   6.155  12.329   3.209  0.3284  2.0882 -1.3836
  223bbb    H12 6708   6.321  12.298   3.267 -1.0582 -0.7976  0.4426
  223bbb     C7 6709   6.094  12.718   3.184  0.6522 -0.0960 -0.4150
  223bbb    H13 6710   6.069  12.684   3.082  1.9050 -1.6704 -0.2319
  223bbb    H14 6711   6.060  12.821   3.199 -0.7387 -0.8810  2.2502
  223bbb     C8 6712   6.233  12.131   3.154  0.0220 -0.3128  0.1179
  223bbb    H15 6713   6.225  12.074   3.247  0.9938  0.4083  0.6573
  223bbb    H16 6714   6.158  12.110   3.077  0.6202 -1.3113 -0.2184
  223bbb     C9 6715   6.313  12.680   2.710 -0.2478  0.1160  0.3560
  223bbb    H17 6716   6.254  12.682   2.618 -2.4413  1.5259  1.7119
  223bbb    H18 6717   6.411  12.634   2.693 -0.1755  0.6553 -0.8070
  223bbb     O1 6718   6.032  12.635   3.288 -0.1071  0.4657  0.3806
  223bbb    H19 6719   6.152  12.501   3.038 -0.5441 -1.7480 -0.4320
  224bbb     N1 6720   4.876  12.412   2.423 -0.1147  0.0955 -0.2286
  224bbb     C1 6721   5.003  12.382   2.346 -0.4667 -0.3883  0.6179
  224bbb     H1 6722   5.067  12.470   2.338 -1.9123  0.6243 -0.2828
  224bbb     H2 6723   4.961  12.364   2.247 -1.5363 -2.6640  1.4073
  224bbb     C2 6724   4.815  12.543   2.371 -0.2874 -0.4749  0.1066
  224bbb     H3 6725   4.903  12.601   2.345  0.2093 -1.9442 -1.7373
  224bbb     H4 6726   4.762  12.598   2.449  3.2060  1.3705  1.3861
  224bbb     C3 6727   4.775  12.303   2.406 -0.5823  0.1926 -0.2008
  224bbb     H5 6728   4.831  12.210   2.423 -0.8471 -0.5900 -3.1635
  224bbb     H6 6729   4.736  12.299   2.304 -1.1194 -0.3544  0.0133
  224bbb     C4 6730   4.676  12.291   2.528  0.0505  0.2835 -0.4677
  224bbb     H7 6731   4.608  12.206   2.510 -0.8993  1.4296 -2.7133
  224bbb     H8 6732   4.604  12.373   2.522  1.1380  1.5989  2.5189
  224bbb     C5 6733   5.105  12.271   2.389  0.4396 -0.2038 -0.5956
  224bbb     H9 6734   5.188  12.257   2.318  0.6499 -0.6179 -0.2726
  224bbb    H10 6735   5.059  12.172   2.394 -0.7866  0.3669 -0.2426
  224bbb     C6 6736   4.736  12.557   2.236 -0.8442 -0.3996 -0.2207
  224bbb    H11 6737   4.646  12.496   2.230 -1.0623 -0.0036 -1.0836
  224bbb    H12 6738   4.799  12.531   2.150  0.8512  0.4305  0.6920
  224bbb     C7 6739   4.745  12.275   2.669  0.1993 -0.2675  0.3963
  224bbb    H13 6740   4.673  12.236   2.742 -0.0583  0.1464  0.3633
  224bbb    H14 6741   4.796  12.368   2.697  2.0540  0.1453 -3.6215
  224bbb     C8 6742   4.679  12.700   2.220 -0.3783  0.4659 -0.6731
  224bbb    H15 6743   4.621  12.709   2.128  2.3959  2.5661 -2.3800
  224bbb    H16 6744   4.605  12.718   2.299  0.1826  1.1347 -0.2940
  224bbb     C9 6745   5.180  12.313   2.519  0.4654 -0.7768 -0.4471
  224bbb    H17 6746   5.222  12.414   2.509  1.6025 -1.2449 -0.6197
  224bbb    H18 6747   5.263  12.243   2.537  2.2484  1.6763  1.7217
  224bbb     O1 6748   4.849  12.176   2.664 -0.3688 -0.7511  0.3722
  224bbb    H19 6749   4.907  12.421   2.520 -0.9582  0.4736  0.0187
  225bbb     N1 6750   5.843  11.409   2.402  0.5887  0.6492 -0.0872
  225bbb     C1 6751   5.791  11.275   2.354 -0.5562 -0.5604 -0.1177
  225bbb     H1 6752   5.862  11.199   2.388 -1.7853 -1.2770  0.9854
  225bbb     H2 6753   5.791  11.280   2.245  1.9542  0.7875 -0.1339
  225bbb     C2 6754   5.975  11.433   2.338  0.1871 -0.4341  0.1379
  225bbb     H3 6755   6.008  11.531   2.373 -1.2480  0.1096  0.0047
  225bbb     H4 6756   5.955  11.437   2.231  0.8608  1.0713  0.0434
  225bbb     C3 6757   5.751  11.517   2.347 -0.6510  1.0963 -0.8485
  225bbb     H5 6758   5.702  11.467   2.263 -0.1250 -1.7201  0.4083
  225bbb     H6 6759   5.812  11.595   2.301 -0.4494  2.9611  2.2730
  225bbb     C4 6760   5.655  11.582   2.451 -0.4194  0.4578  0.1199
  225bbb     H7 6761   5.718  11.613   2.535  1.3477 -0.1572 -0.9073
  225bbb     H8 6762   5.592  11.499   2.486  0.3568 -0.9788 -1.6767
  225bbb     C5 6763   5.647  11.229   2.400  0.0256 -0.0635  0.3138
  225bbb     H9 6764   5.563  11.285   2.358  0.1165 -1.1383 -1.4128
  225bbb    H10 6765   5.646  11.252   2.507 -0.2771  2.2033 -0.1244
  225bbb     C6 6766   6.092  11.335   2.363 -0.4306 -0.6441  0.9718
  225bbb    H11 6767   6.180  11.374   2.312 -0.9019 -1.8711 -0.8765
  225bbb    H12 6768   6.075  11.237   2.316  0.3446 -0.6471  0.6908
  225bbb     C7 6769   5.559  11.697   2.405  0.0781  0.1855  0.4102
  225bbb    H13 6770   5.477  11.654   2.347 -0.2213 -0.9477  1.6035
  225bbb    H14 6771   5.606  11.770   2.338 -1.7815  1.3292  0.2836
  225bbb     C8 6772   6.105  11.316   2.515  0.5453 -0.2278  0.3595
  225bbb    H15 6773   6.206  11.294   2.552 -0.4764 -2.1833  2.2180
  225bbb    H16 6774   6.067  11.406   2.564  0.5497 -0.0034 -0.0480
  225bbb     C9 6775   5.632  11.073   2.372  0.5935 -0.5648 -0.2220
  225bbb    H17 6776   5.643  11.036   2.269 -0.5192 -0.9428 -0.2247
  225bbb    H18 6777   5.529  11.040   2.394  0.3171 -1.2327 -2.2677
  225bbb     O1 6778   5.500  11.770   2.518 -0.4282 -0.0891  0.0794
  225bbb    H19 6779   5.855  11.417   2.504  1.5873  0.7490 -0.2007
  226bbb     N1 6780   4.244  12.519   3.238  0.3368  0.1766  0.3674
  226bbb     C1 6781   4.103  12.513   3.289  0.7104 -0.2486 -1.1403
  226bbb     H1 6782   4.097  12.461   3.384 -0.5175  0.2871 -0.9061
  226bbb     H2 6783   4.039  12.455   3.222 -1.4520  2.0097 -1.1751
  226bbb     C2 6784   4.329  12.604   3.325 -0.0167 -0.0487 -0.5245
  226bbb     H3 6785   4.327  12.559   3.425 -0.2301  0.8511 -0.1144
  226bbb     H4 6786   4.288  12.703   3.346  2.0438  0.4649  1.4546
  226bbb     C3 6787   4.312  12.381   3.230 -0.3063 -0.1270 -0.3555
  226bbb     H5 6788   4.329  12.338   3.329 -0.7878  0.6828  0.0895
  226bbb     H6 6789   4.415  12.394   3.197 -0.9031  0.8793 -1.8630
  226bbb     C4 6790   4.245  12.286   3.134  0.7247  0.3932  0.0440
  226bbb     H7 6791   4.201  12.336   3.047  0.7049 -0.5417 -0.4923
  226bbb     H8 6792   4.150  12.252   3.176  0.9962  0.4614  0.7237
  226bbb     C5 6793   4.025  12.650   3.284 -0.1513 -0.3919 -0.4573
  226bbb     H9 6794   4.066  12.722   3.356  1.7554 -0.4317 -1.4123
  226bbb    H10 6795   3.922  12.622   3.309  0.0282 -0.8711 -0.2397
  226bbb     C6 6796   4.471  12.627   3.282 -0.1796 -0.4659  0.6231
  226bbb    H11 6797   4.465  12.626   3.172 -3.6157  0.9706  0.6734
  226bbb    H12 6798   4.536  12.540   3.299  4.2594  2.2087 -0.7475
  226bbb     C7 6799   4.337  12.169   3.096 -0.9085 -0.4095  0.0485
  226bbb    H13 6800   4.398  12.196   3.009 -2.8995  2.3711 -0.6342
  226bbb    H14 6801   4.269  12.086   3.073 -1.9619  0.2667  0.6304
  226bbb     C8 6802   4.553  12.744   3.339  0.2871  0.5510  0.2143
  226bbb    H15 6803   4.566  12.711   3.443 -0.0704 -0.1309  0.0492
  226bbb    H16 6804   4.648  12.758   3.286  0.1289 -1.4809 -0.7105
  226bbb     C9 6805   4.035  12.709   3.136 -0.6731 -0.3240 -0.5447
  226bbb    H17 6806   3.942  12.762   3.113 -1.8405 -1.5987  0.9768
  226bbb    H18 6807   4.036  12.625   3.066  1.1789  1.1478 -2.4380
  226bbb     O1 6808   4.420  12.138   3.210 -0.4888  0.3346  0.6989
  226bbb    H19 6809   4.242  12.563   3.145  0.3267  0.1541  0.3571
  227bbb     N1 6810   3.803  12.739   3.835  0.8010  0.0424  0.1510
  227bbb     C1 6811   3.743  12.855   3.920 -0.1273 -0.1953  0.8831
  227bbb     H1 6812   3.662  12.892   3.858  1.1972 -2.1109 -2.2474
  227bbb     H2 6813   3.826  12.924   3.935 -1.1639  0.7755  2.4059
  227bbb     C2 6814   3.830  12.779   3.686  0.2434 -0.1434 -0.1088
  227bbb     H3 6815   3.861  12.685   3.641  1.4661  0.0845  0.2090
  227bbb     H4 6816   3.915  12.847   3.675  0.6396 -0.5859  0.1861
  227bbb     C3 6817   3.937  12.708   3.904 -0.0336 -0.4879  0.5910
  227bbb     H5 6818   3.914  12.697   4.011  0.7379  1.1379  0.9483
  227bbb     H6 6819   4.005  12.793   3.899 -0.6081 -0.0312  0.3314
  227bbb     C4 6820   4.008  12.581   3.849 -0.1905 -0.6205 -0.3130
  227bbb     H7 6821   4.013  12.579   3.739 -3.3050 -3.8480 -0.5807
  227bbb     H8 6822   3.951  12.488   3.864  1.6377 -2.1238 -2.1353
  227bbb     C5 6823   3.690  12.822   4.060 -0.1906  0.3495  0.6299
  227bbb     H9 6824   3.767  12.776   4.123 -1.0748  1.7340  2.8346
  227bbb    H10 6825   3.608  12.751   4.048 -1.1479  1.4349  0.5777
  227bbb     C6 6826   3.711  12.844   3.610  0.6739 -0.0210  0.4483
  227bbb    H11 6827   3.685  12.943   3.651  2.4792  1.1823 -1.1370
  227bbb    H12 6828   3.619  12.785   3.616 -0.6280  1.7371 -0.8426
  227bbb     C7 6829   4.153  12.559   3.902  0.0241  0.2632 -0.6886
  227bbb    H13 6830   4.146  12.554   4.011  1.1407  1.5788 -0.5213
  227bbb    H14 6831   4.227  12.637   3.879  2.2630 -2.0975 -1.9439
  227bbb     C8 6832   3.738  12.870   3.462 -0.1542  0.1030  0.1311
  227bbb    H15 6833   3.744  12.775   3.407  1.0458  0.3316 -0.1681
  227bbb    H16 6834   3.658  12.933   3.421 -2.2439 -1.6587  1.3216
  227bbb     C9 6835   3.638  12.948   4.127  0.0521 -0.2675 -0.5645
  227bbb    H17 6836   3.707  13.028   4.096  0.5492  0.0973  1.3277
  227bbb    H18 6837   3.630  12.942   4.237 -1.4352 -1.6473 -0.7033
  227bbb     O1 6838   4.207  12.425   3.869  0.4576  0.3368 -0.0833
  227bbb    H19 6839   3.738  12.660   3.845  0.1569  0.2280 -2.0706
  228bbb     N1 6840   4.855  12.595   4.557  0.3246 -0.6156  0.0797
  228bbb     C1 6841   4.852  12.560   4.407 -0.6738 -0.1585 -0.2889
  228bbb     H1 6842   4.917  12.630   4.355 -2.5048  0.6620 -1.5940
  228bbb     H2 6843   4.753  12.579   4.364  0.4516  3.1707 -1.6980
  228bbb     C2 6844   4.788  12.725   4.588  0.2809  0.6111 -0.3120
  228bbb     H3 6845   4.831  12.797   4.517 -0.2347 -0.8839 -2.2053
  228bbb     H4 6846   4.817  12.759   4.687  1.2032 -0.0456 -0.3357
  228bbb     C3 6847   4.806  12.477   4.645 -0.2712  0.0927  0.0624
  228bbb     H5 6848   4.871  12.389   4.643 -2.6313 -1.7729  0.8814
  228bbb     H6 6849   4.710  12.433   4.617 -0.2393 -0.9926  1.5546
  228bbb     C4 6850   4.801  12.513   4.796 -0.8930 -0.5725  1.0394
  228bbb     H7 6851   4.776  12.422   4.852  0.1848 -0.0268  2.4775
  228bbb     H8 6852   4.725  12.590   4.817 -0.9656 -0.0924 -0.8430
  228bbb     C5 6853   4.891  12.416   4.378 -0.7479 -0.5642 -0.0438
  228bbb     H9 6854   4.816  12.343   4.410 -2.2757  0.0076 -2.1503
  228bbb    H10 6855   4.983  12.388   4.432  0.0661 -1.1684 -1.6814
  228bbb     C6 6856   4.634  12.722   4.580  1.3420  0.2997 -0.0123
  228bbb    H11 6857   4.597  12.627   4.622  1.5015  0.1971 -0.1022
  228bbb    H12 6858   4.591  12.728   4.479  0.2658  0.1212  0.4193
  228bbb     C7 6859   4.940  12.558   4.849 -0.0025  0.3674 -0.4566
  228bbb    H13 6860   4.923  12.553   4.957  0.3418 -1.4370 -0.4569
  228bbb    H14 6861   4.978  12.654   4.812  0.9054 -0.1593 -0.9262
  228bbb     C8 6862   4.569  12.831   4.666  0.7998  0.2541 -0.3229
  228bbb    H15 6863   4.602  12.931   4.633  1.3519  0.6928  1.4118
  228bbb    H16 6864   4.462  12.827   4.642  0.7106 -0.8015  0.2197
  228bbb     C9 6865   4.914  12.386   4.229 -0.3766 -0.6902  0.3229
  228bbb    H17 6866   4.828  12.421   4.171  1.1885  1.4086 -0.8631
  228bbb    H18 6867   4.923  12.279   4.208 -1.0705 -0.8885  0.9839
  228bbb     O1 6868   5.031  12.448   4.818 -0.0727  0.0130  0.0154
  228bbb    H19 6869   4.949  12.627   4.585 -0.5290  2.2201  0.0925
  229bbb     N1 6870   4.594  12.146   5.423 -0.4895  0.8774 -0.2919
  229bbb     C1 6871   4.624  12.293   5.429  0.8913 -0.3320  0.9458
  229bbb     H1 6872   4.529  12.344   5.448 -0.3634 -1.3184 -1.9746
  229bbb     H2 6873   4.666  12.321   5.332  0.5269 -0.0178  0.8770
  229bbb     C2 6874   4.473  12.129   5.338 -0.0980  0.3485 -0.5759
  229bbb     H3 6875   4.513  12.180   5.250 -0.2966  1.3811 -0.0782
  229bbb     H4 6876   4.390  12.181   5.387 -0.2118 -1.4815  1.2666
  229bbb     C3 6877   4.721  12.090   5.356  0.1255  0.1756 -0.1306
  229bbb     H5 6878   4.796  12.166   5.378  1.3460 -1.2526  0.8136
  229bbb     H6 6879   4.714  12.083   5.248  0.8428  0.9295 -0.2336
  229bbb     C4 6880   4.767  11.945   5.403  0.6304 -0.1261  0.4985
  229bbb     H7 6881   4.684  11.878   5.377  0.8787  0.3951 -1.8190
  229bbb     H8 6882   4.779  11.939   5.512 -2.0941  0.1955  0.8901
  229bbb     C5 6883   4.732  12.329   5.535  0.0336  0.1057 -0.0461
  229bbb     H9 6884   4.830  12.298   5.497 -0.0169  0.0268 -0.1112
  229bbb    H10 6885   4.706  12.273   5.626  0.0238 -0.6747 -0.5208
  229bbb     C6 6886   4.412  11.987   5.310 -0.1664 -0.3715 -0.4560
  229bbb    H11 6887   4.481  11.925   5.252  0.9272 -0.2166  0.6519
  229bbb    H12 6888   4.341  12.014   5.231  0.0320  0.2845 -0.4102
  229bbb     C7 6889   4.902  11.900   5.329 -0.1210 -0.3733  0.2700
  229bbb    H13 6890   4.936  11.815   5.388 -0.2471 -0.0399  0.8393
  229bbb    H14 6891   4.971  11.982   5.355 -0.7553 -0.2053  1.4941
  229bbb     C8 6892   4.339  11.927   5.435  0.0602 -0.3314  0.0904
  229bbb    H15 6893   4.291  11.833   5.405  0.5235 -0.5936  0.1552
  229bbb    H16 6894   4.408  11.900   5.516 -1.1713  0.9592  1.6461
  229bbb     C9 6895   4.735  12.480   5.568 -0.1291  0.6871 -0.9368
  229bbb    H17 6896   4.678  12.490   5.661  2.2651 -0.8348  0.8117
  229bbb    H18 6897   4.686  12.537   5.488  0.6428  2.0310 -0.4819
  229bbb     O1 6898   4.891  11.868   5.187  0.4322 -0.4688 -0.4478
  229bbb    H19 6899   4.578  12.106   5.517 -0.1007  1.2210 -0.0787
  230bbb     N1 6900   4.404   9.413   5.737  1.1137  0.8154  0.1128
  230bbb     C1 6901   4.457   9.525   5.827  0.1725 -0.2917  0.1388
  230bbb     H1 6902   4.422   9.619   5.783  0.9403  0.5977  1.3874
  230bbb     H2 6903   4.565   9.533   5.820  0.0712 -0.0272 -1.7332
  230bbb     C2 6904   4.254   9.379   5.757 -0.4756 -0.0480 -0.1472
  230bbb     H3 6905   4.202   9.475   5.748  0.8968  0.7668  0.2808
  230bbb     H4 6906   4.245   9.362   5.865  1.0996  0.3292  0.0641
  230bbb     C3 6907   4.420   9.440   5.590 -0.0197 -0.6855 -0.0641
  230bbb     H5 6908   4.344   9.506   5.550 -0.4052 -1.5294 -0.7643
  230bbb     H6 6909   4.399   9.341   5.550 -1.7062 -1.2778  2.0553
  230bbb     C4 6910   4.561   9.473   5.541 -0.0474 -0.3116 -0.6335
  230bbb     H7 6911   4.621   9.386   5.569 -2.1684 -1.6815 -0.0962
  230bbb     H8 6912   4.610   9.563   5.578  2.1786 -0.9037 -1.9783
  230bbb     C5 6913   4.407   9.511   5.975  0.3511  0.0225 -0.1044
  230bbb     H9 6914   4.407   9.408   6.012 -1.3689  0.6465  1.8162
  230bbb    H10 6915   4.302   9.542   5.974 -0.3074 -2.1064 -0.5146
  230bbb     C6 6916   4.181   9.264   5.693  0.0202  0.0573 -0.1909
  230bbb    H11 6917   4.184   9.164   5.739  1.3248 -0.2240 -0.8516
  230bbb    H12 6918   4.223   9.246   5.593 -0.0999 -3.8750  0.3061
  230bbb     C7 6919   4.567   9.487   5.386 -0.3429  0.1693  0.8875
  230bbb    H13 6920   4.525   9.583   5.355 -0.2182  0.5223  1.7967
  230bbb    H14 6921   4.508   9.405   5.341 -0.5681  0.3036  0.9388
  230bbb     C8 6922   4.030   9.295   5.667 -0.5249  0.3905 -0.1593
  230bbb    H15 6923   4.008   9.368   5.588 -0.8178  1.3558  0.7981
  230bbb    H16 6924   3.988   9.199   5.634  1.0061 -0.4887  0.2918
  230bbb     C9 6925   4.482   9.613   6.073  0.2979 -0.3389  0.4482
  230bbb    H17 6926   4.438   9.610   6.173  2.7849 -0.6405  1.6285
  230bbb    H18 6927   4.477   9.715   6.033  0.2810  0.0394  1.3951
  230bbb     O1 6928   4.707   9.483   5.337 -0.2328 -0.4109 -0.0203
  230bbb    H19 6929   4.462   9.331   5.762  0.7604  0.9562  1.4837
  231bbb     N1 6930   4.999   9.616   4.714 -0.1555  0.5988  0.0767
  231bbb     C1 6931   4.903   9.735   4.717  0.2910 -0.1300  0.1036
  231bbb     H1 6932   4.931   9.798   4.633  3.4309 -0.7967  0.5153
  231bbb     H2 6933   4.921   9.781   4.814 -0.5521 -0.6408  0.5195
  231bbb     C2 6934   5.134   9.679   4.691  0.0491 -0.0004  0.1960
  231bbb     H3 6935   5.211   9.605   4.713  0.9296  1.0480  0.7341
  231bbb     H4 6936   5.137   9.765   4.758 -1.2768  0.6234 -0.4968
  231bbb     C3 6937   5.011   9.530   4.837  0.8573 -0.1018  0.1483
  231bbb     H5 6938   4.910   9.514   4.875  1.7474 -0.2607  2.6471
  231bbb     H6 6939   5.065   9.586   4.914  0.9888 -0.5086  0.3584
  231bbb     C4 6940   5.066   9.395   4.799  0.0985  0.4422  0.4263
  231bbb     H7 6941   5.172   9.408   4.772  1.0511 -1.6106  2.7949
  231bbb     H8 6942   5.020   9.357   4.707  0.4173  1.8638 -0.3604
  231bbb     C5 6943   4.753   9.693   4.710  0.3015 -0.6537 -0.5887
  231bbb     H9 6944   4.731   9.603   4.769  0.1760  0.5002  1.2162
  231bbb    H10 6945   4.723   9.677   4.606 -0.9610 -0.9677 -0.1971
  231bbb     C6 6946   5.156   9.723   4.547  0.2765  0.7363  0.1102
  231bbb    H11 6947   5.080   9.798   4.523 -1.9107 -1.7261 -1.2352
  231bbb    H12 6948   5.141   9.639   4.478 -2.6555 -0.2274  1.7759
  231bbb     C7 6949   5.062   9.277   4.903  0.5860  0.3204 -0.2544
  231bbb    H13 6950   5.103   9.191   4.848  1.7532  0.4261  0.4204
  231bbb    H14 6951   4.956   9.260   4.927  0.8497 -0.6567  0.2651
  231bbb     C8 6952   5.298   9.786   4.522 -0.4417  0.0005 -0.6159
  231bbb    H15 6953   5.316   9.789   4.414 -0.7257  0.1570 -0.6612
  231bbb    H16 6954   5.286   9.889   4.560  0.6105  0.0014 -0.2565
  231bbb     C9 6955   4.655   9.816   4.751 -0.3169  0.2513 -0.1735
  231bbb    H17 6956   4.551   9.794   4.723  0.0980 -2.8095  0.3185
  231bbb    H18 6957   4.685   9.899   4.686 -1.4607 -1.0771 -2.5429
  231bbb     O1 6958   5.131   9.302   5.029 -0.1141  0.5404  0.5679
  231bbb    H19 6959   4.967   9.559   4.633 -0.9390 -0.7109  1.2664
  232bbb     N1 6960   5.365   9.890   5.969  0.5181  0.7436 -0.2661
  232bbb     C1 6961   5.239   9.934   5.902  0.5075 -0.9663 -0.2249
  232bbb     H1 6962   5.176   9.970   5.983  1.4314 -2.5301  1.2653
  232bbb     H2 6963   5.192   9.843   5.863 -2.1027  0.7394 -1.3191
  232bbb     C2 6964   5.329   9.806   6.093 -0.4077 -0.1569  0.1235
  232bbb     H3 6965   5.306   9.705   6.060 -1.1276 -0.9521  2.7840
  232bbb     H4 6966   5.245   9.851   6.147 -0.2822 -2.2790  2.2853
  232bbb     C3 6967   5.449   9.806   5.864 -0.2119 -0.1572  0.0058
  232bbb     H5 6968   5.415   9.839   5.766 -0.2792  1.1073  0.4360
  232bbb     H6 6969   5.417   9.705   5.887  0.7302 -0.6016 -0.5535
  232bbb     C4 6970   5.608   9.817   5.873 -0.5111 -0.0475  0.9036
  232bbb     H7 6971   5.660   9.765   5.792 -1.7776 -2.1704  1.3817
  232bbb     H8 6972   5.655   9.768   5.960  1.8458 -0.5871 -0.5816
  232bbb     C5 6973   5.252  10.045   5.796 -0.4527 -0.4295  0.0881
  232bbb     H9 6974   5.315  10.023   5.709 -0.9932 -1.7296  0.0092
  232bbb    H10 6975   5.301  10.130   5.846  0.4698 -0.7678 -0.2246
  232bbb     C6 6976   5.446   9.790   6.204  0.5875 -0.3700  0.7244
  232bbb    H11 6977   5.479   9.893   6.222  0.4625 -0.2482  0.2843
  232bbb    H12 6978   5.521   9.729   6.151  0.2816  0.2120 -0.4217
  232bbb     C7 6979   5.655   9.968   5.874  0.0051  0.6835  0.1360
  232bbb    H13 6980   5.764   9.960   5.874  0.0453  0.3170  2.5270
  232bbb    H14 6981   5.637  10.014   5.972 -0.9984  0.5274  0.0390
  232bbb     C8 6982   5.407   9.717   6.330  0.5762 -0.2353 -0.3341
  232bbb    H15 6983   5.365   9.617   6.312 -1.3541  0.5092 -0.2349
  232bbb    H16 6984   5.491   9.697   6.398  0.0639 -2.5208 -0.2852
  232bbb     C9 6985   5.117  10.094   5.741 -0.4713 -0.0373 -0.7115
  232bbb    H17 6986   5.130  10.198   5.709  1.4273 -0.0994 -0.2948
  232bbb    H18 6987   5.042  10.074   5.818  0.4776 -0.2275  0.1802
  232bbb     O1 6988   5.596  10.053   5.770 -0.3175 -1.0786 -0.0726
  232bbb    H19 6989   5.408   9.973   6.013  2.1792 -0.9659  1.5429
  233bbb     N1 6990   5.449  11.000   5.914  0.2123  0.7323 -0.1875
  233bbb     C1 6991   5.471  11.128   5.996  0.0364  0.7328 -0.1199
  233bbb     H1 6992   5.452  11.217   5.935  1.6889  1.3539  0.2062
  233bbb     H2 6993   5.579  11.132   6.013  0.0155  1.2611 -0.0832
  233bbb     C2 6994   5.298  10.974   5.876 -0.0440  0.1378 -1.0618
  233bbb     H3 6995   5.263  11.045   5.800 -0.8290 -0.7296 -1.5335
  233bbb     H4 6996   5.237  10.976   5.966 -1.3947  0.5549 -1.9589
  233bbb     C3 6997   5.526  11.022   5.785 -0.7754 -0.6734 -0.4217
  233bbb     H5 6998   5.484  11.086   5.707  0.0619 -1.3227 -1.4225
  233bbb     H6 6999   5.521  10.928   5.730  2.1657 -1.1319 -0.0451
  233bbb     C4 7000   5.678  11.041   5.811 -0.5418  0.2889  0.7510
  233bbb     H7 7001   5.699  10.992   5.906 -0.8114 -1.1840  0.0779
  233bbb     H8 7002   5.706  11.146   5.831  1.5035 -0.5108  2.3885
  233bbb     C5 7003   5.393  11.121   6.125  0.4190 -0.0270  0.2763
  233bbb     H9 7004   5.285  11.125   6.107  1.0130 -1.4121 -5.6294
  233bbb    H10 7005   5.410  11.214   6.181  2.6153 -0.1877 -0.0393
  233bbb     C6 7006   5.287  10.829   5.825  0.4525  0.3546 -0.5570
  233bbb    H11 7007   5.349  10.755   5.877  0.4391 -0.9830 -2.3181
  233bbb    H12 7008   5.336  10.829   5.726  1.3213  0.7918 -0.1383
  233bbb     C7 7009   5.761  10.985   5.690 -0.3248  0.5215 -0.0819
  233bbb    H13 7010   5.863  11.018   5.711 -0.3681  2.5537 -2.6718
  233bbb    H14 7011   5.729  11.030   5.596 -0.1308  0.5195 -0.1498
  233bbb     C8 7012   5.138  10.782   5.829  0.5579  0.0372  0.3942
  233bbb    H15 7013   5.072  10.866   5.806 -0.7651 -0.8217  0.9442
  233bbb    H16 7014   5.108  10.702   5.760 -1.5394  1.0712  0.0414
  233bbb     C9 7015   5.446  11.011   6.213  0.1760  0.1551 -0.1031
  233bbb    H17 7016   5.446  11.038   6.320  2.3956 -2.4973  0.6843
  233bbb    H18 7017   5.554  10.994   6.204  0.3415  0.4106  1.1482
  233bbb     O1 7018   5.759  10.837   5.684 -0.4558 -0.1751 -0.5762
  233bbb    H19 7019   5.480  10.912   5.958  1.0865  0.6174 -0.9911
  234bbb     N1 7020   3.685   9.545   3.907 -0.4513 -0.5433 -0.7951
  234bbb     C1 7021   3.685   9.408   3.981 -0.1133 -0.1951  0.0638
  234bbb     H1 7022   3.686   9.440   4.085 -1.3678  1.8566 -0.4896
  234bbb     H2 7023   3.786   9.370   3.964  1.2350  1.8960  2.6525
  234bbb     C2 7024   3.542   9.595   3.917 -0.4675  0.3231  0.3501
  234bbb     H3 7025   3.486   9.526   3.856  1.2519 -0.7229 -0.1168
  234bbb     H4 7026   3.519   9.693   3.874 -1.6912 -0.1815 -0.1856
  234bbb     C3 7027   3.786   9.645   3.955 -0.5396  0.0823 -0.7686
  234bbb     H5 7028   3.885   9.604   3.935  0.2551  0.9607  1.1124
  234bbb     H6 7029   3.776   9.644   4.064 -3.2242 -0.3678 -0.9476
  234bbb     C4 7030   3.783   9.777   3.893  0.3455  0.4132 -0.8032
  234bbb     H7 7031   3.684   9.816   3.918 -0.6465 -2.4242  0.0360
  234bbb     H8 7032   3.790   9.772   3.784  0.4372  0.9897 -0.8274
  234bbb     C5 7033   3.580   9.296   3.951  0.0037 -0.0905 -0.6032
  234bbb     H9 7034   3.576   9.272   3.844 -4.1509  1.3688 -0.9534
  234bbb    H10 7035   3.485   9.329   3.994  1.4428  1.1158  1.8855
  234bbb     C6 7036   3.480   9.608   4.063 -0.6725 -0.3820 -0.1610
  234bbb    H11 7037   3.525   9.695   4.112  1.2680 -1.4567  0.0954
  234bbb    H12 7038   3.493   9.525   4.134 -0.8477 -0.6106 -0.3950
  234bbb     C7 7039   3.890   9.871   3.956 -0.2359 -0.6314 -0.0707
  234bbb    H13 7040   3.886   9.864   4.066  0.3502 -1.9000 -0.1104
  234bbb    H14 7041   3.857   9.972   3.928 -2.3757 -0.5894  2.2349
  234bbb     C8 7042   3.329   9.632   4.045  0.7344  0.3786 -0.2877
  234bbb    H15 7043   3.284   9.557   3.979  1.8146 -2.0820  1.6197
  234bbb    H16 7044   3.279   9.635   4.142  2.0578  0.5188  0.4136
  234bbb     C9 7045   3.643   9.171   4.033 -0.4055 -0.1926  0.4806
  234bbb    H17 7046   3.578   9.083   4.021 -0.8008  0.3390 -1.7328
  234bbb    H18 7047   3.657   9.191   4.140  2.4391 -1.4796  0.4390
  234bbb     O1 7048   4.025   9.854   3.902  0.0484 -0.3334 -0.0952
  234bbb    H19 7049   3.702   9.525   3.807 -1.7073 -0.3252 -1.0666
  235bbb     N1 7050   3.515  10.744   3.719 -0.3667 -0.7651  0.3348
  235bbb     C1 7051   3.497  10.713   3.866 -0.0236 -0.0823 -0.2875
  235bbb     H1 7052   3.411  10.773   3.894  1.3788  1.4783  0.8191
  235bbb     H2 7053   3.583  10.757   3.916  0.4393 -1.0731 -0.1950
  235bbb     C2 7054   3.563  10.892   3.707 -0.1022  0.2487  0.2180
  235bbb     H3 7055   3.585  10.912   3.602  1.1784  1.3125  0.6643
  235bbb     H4 7056   3.644  10.913   3.777  0.2745  0.2559 -0.2147
  235bbb     C3 7057   3.605  10.649   3.639  0.1409  0.3979  0.1079
  235bbb     H5 7058   3.550  10.555   3.633  1.3358 -0.3758  0.8539
  235bbb     H6 7059   3.697  10.624   3.692  0.4100  0.4266 -0.3428
  235bbb     C4 7060   3.631  10.689   3.495  0.3112 -0.4774  0.1354
  235bbb     H7 7061   3.718  10.755   3.484 -0.9920  1.1152 -1.2302
  235bbb     H8 7062   3.539  10.741   3.465 -1.1097 -2.1456  1.3948
  235bbb     C5 7063   3.457  10.565   3.910 -0.3866 -0.1941  0.0609
  235bbb     H9 7064   3.536  10.506   3.862 -0.0974  0.8452 -0.7619
  235bbb    H10 7065   3.360  10.539   3.866 -0.6984  0.2655  0.4643
  235bbb     C6 7066   3.457  11.001   3.745 -0.2815 -0.3631  0.1425
  235bbb    H11 7067   3.431  10.987   3.850 -2.0232 -1.7480 -0.4180
  235bbb    H12 7068   3.369  10.988   3.680  0.2461  0.2049 -0.7104
  235bbb     C7 7069   3.646  10.565   3.402 -0.3257  0.2970 -0.2936
  235bbb    H13 7070   3.644  10.598   3.297 -0.7863  2.0662  0.2251
  235bbb    H14 7071   3.561  10.499   3.426  0.7095 -1.0002 -0.0927
  235bbb     C8 7072   3.522  11.141   3.722 -0.6324 -0.0250  0.1158
  235bbb    H15 7073   3.436  11.209   3.729  0.3903  1.4453 -1.1584
  235bbb    H16 7074   3.596  11.160   3.800  0.4048  4.1952 -1.6491
  235bbb     C9 7075   3.447  10.539   4.061  0.1923 -0.0125 -0.4411
  235bbb    H17 7076   3.538  10.566   4.116 -0.2531  1.9744 -0.6042
  235bbb    H18 7077   3.431  10.431   4.074  2.3397 -0.3377 -0.0613
  235bbb     O1 7078   3.778  10.503   3.427 -0.4557  0.2680 -0.6215
  235bbb    H19 7079   3.422  10.739   3.675  0.1162  0.6693 -0.9400
  236bbb     N1 7080   4.034   9.655   3.078  0.3351  0.0560  0.1800
  236bbb     C1 7081   4.068   9.519   3.134 -0.3976  0.6171 -0.1206
  236bbb     H1 7082   4.030   9.439   3.070  1.1366 -1.3522  1.2645
  236bbb     H2 7083   4.019   9.498   3.229  2.9463 -1.9886  1.2192
  236bbb     C2 7084   3.880   9.662   3.044 -0.4641  0.1431 -0.1846
  236bbb     H3 7085   3.883   9.759   2.993 -0.4590  0.0630 -0.3371
  236bbb     H4 7086   3.824   9.686   3.134  1.8965  1.6909  0.9902
  236bbb     C3 7087   4.064   9.760   3.187 -0.1207 -0.2998  0.0898
  236bbb     H5 7088   4.170   9.759   3.210 -0.0507  1.8334  0.1333
  236bbb     H6 7089   4.012   9.720   3.274  1.3785 -1.2471  0.5905
  236bbb     C4 7090   4.019   9.904   3.166  0.0466 -0.2410 -0.3406
  236bbb     H7 7091   3.912   9.918   3.145 -0.0457 -0.0951  0.2150
  236bbb     H8 7092   4.067   9.937   3.072  0.4536 -1.2343 -0.4934
  236bbb     C5 7093   4.222   9.486   3.152  0.0940  0.6428  0.3034
  236bbb     H9 7094   4.254   9.547   3.237  0.8002  0.4706  0.1705
  236bbb    H10 7095   4.270   9.521   3.060 -0.2325 -0.7048 -0.4096
  236bbb     C6 7096   3.812   9.549   2.955  0.4814 -0.3573  0.0893
  236bbb    H11 7097   3.883   9.473   2.917 -0.9175 -2.0843  0.7833
  236bbb    H12 7098   3.772   9.598   2.866  1.2703  0.6398  0.2641
  236bbb     C7 7099   4.042  10.005   3.278  0.3407 -0.3058  0.0764
  236bbb    H13 7100   3.999   9.959   3.368 -2.8451 -2.3516 -2.2545
  236bbb    H14 7101   3.991  10.096   3.246 -1.7838 -2.4122 -3.1410
  236bbb     C8 7102   3.704   9.472   3.033 -1.0953  0.8633  0.6551
  236bbb    H15 7103   3.608   9.522   3.015  0.2221  2.9770 -0.9290
  236bbb    H16 7104   3.692   9.372   2.988 -3.4249  1.7157 -0.8477
  236bbb     C9 7105   4.266   9.338   3.186  0.0256 -0.3053  0.1200
  236bbb    H17 7106   4.375   9.332   3.176 -0.0817 -0.1138 -1.4626
  236bbb    H18 7107   4.225   9.271   3.109 -1.6635  0.9059 -0.0921
  236bbb     O1 7108   4.182  10.008   3.298 -0.6082  0.2298  0.1332
  236bbb    H19 7109   4.091   9.663   2.992  2.8307 -0.5349  1.6622
  237bbb     N1 7110   5.221  10.190   2.772  0.0873  0.5734 -0.3719
  237bbb     C1 7111   5.199  10.343   2.779  0.2156  0.5915  0.7175
  237bbb     H1 7112   5.098  10.351   2.819 -0.0434 -0.7304  0.3813
  237bbb     H2 7113   5.202  10.377   2.675  2.1957  0.6994  0.7626
  237bbb     C2 7114   5.346  10.154   2.679  0.4291  0.6163 -0.1988
  237bbb     H3 7115   5.362  10.046   2.690  0.7323  0.8073  1.4948
  237bbb     H4 7116   5.435  10.197   2.725  1.7694 -2.2459  0.1131
  237bbb     C3 7117   5.238  10.125   2.910 -0.1580 -0.4401  0.2557
  237bbb     H5 7118   5.325  10.169   2.959  0.5420 -0.7797 -0.6541
  237bbb     H6 7119   5.253  10.017   2.900 -1.0807 -0.5078 -0.6221
  237bbb     C4 7120   5.108  10.136   2.998  0.4366 -0.7367 -0.2319
  237bbb     H7 7121   5.025  10.174   2.938  1.4621  0.7017 -0.8148
  237bbb     H8 7122   5.115  10.210   3.079 -0.5014  0.8763 -1.5661
  237bbb     C5 7123   5.307  10.424   2.856 -0.2229  0.6324  0.3792
  237bbb     H9 7124   5.399  10.419   2.796 -0.7654 -0.3499 -0.3959
  237bbb    H10 7125   5.337  10.386   2.955  2.4796  1.4691 -0.0473
  237bbb     C6 7126   5.341  10.200   2.533 -0.1876 -0.2344  0.1515
  237bbb    H11 7127   5.323  10.308   2.530 -1.4348 -0.4185 -2.6415
  237bbb    H12 7128   5.259  10.141   2.489 -2.2241  1.0869  1.9299
  237bbb     C7 7129   5.063  10.002   3.046 -0.2645  0.9161  0.8211
  237bbb    H13 7130   5.139   9.962   3.115 -1.1483 -1.9523  0.2360
  237bbb    H14 7131   5.049   9.936   2.960 -1.6677  1.4513  0.6116
  237bbb     C8 7132   5.472  10.172   2.461  0.0626 -0.3698  0.2842
  237bbb    H15 7133   5.484  10.063   2.463  0.9553 -0.2822  2.3975
  237bbb    H16 7134   5.473  10.200   2.355  1.2652 -2.1073 -0.2171
  237bbb     C9 7135   5.270  10.570   2.861 -0.4192  0.4055 -0.3386
  237bbb    H17 7136   5.178  10.583   2.919  0.0525  3.9648 -0.1866
  237bbb    H18 7137   5.254  10.611   2.761  0.6310 -0.8350 -1.0470
  237bbb     O1 7138   4.941  10.007   3.115 -0.5792 -0.2099  0.1353
  237bbb    H19 7139   5.136  10.152   2.727  0.7472  1.9129 -2.9688
  238bbb     N1 7140   8.378  11.340   6.111 -0.0289  0.2943 -0.3418
  238bbb     C1 7141   8.432  11.343   5.971  0.0725  0.9607  0.3301
  238bbb     H1 7142   8.416  11.245   5.926 -1.9296  1.1484  0.5226
  238bbb     H2 7143   8.536  11.375   5.968  0.5545 -0.6613 -1.8150
  238bbb     C2 7144   8.427  11.223   6.182 -0.3778  0.5884  0.3620
  238bbb     H3 7145   8.375  11.136   6.139  0.6918 -1.0012  2.1315
  238bbb     H4 7146   8.382  11.241   6.279  1.0465  4.4055  0.4714
  238bbb     C3 7147   8.424  11.463   6.182  0.3874  0.1100  0.0617
  238bbb     H5 7148   8.464  11.532   6.107 -0.6679  0.3371 -0.3098
  238bbb     H6 7149   8.508  11.447   6.250 -0.8764 -1.9038  1.2506
  238bbb     C4 7150   8.308  11.531   6.248 -0.1765 -0.5578  0.2636
  238bbb     H7 7151   8.264  11.455   6.313 -1.1984 -1.3273 -1.2519
  238bbb     H8 7152   8.221  11.556   6.186 -1.0349  0.7168  1.9116
  238bbb     C5 7153   8.356  11.434   5.873 -0.6693 -0.1647  0.4135
  238bbb     H9 7154   8.412  11.433   5.778 -0.2987  1.3905  0.5954
  238bbb    H10 7155   8.364  11.539   5.904  3.5412 -0.4251  0.7877
  238bbb     C6 7156   8.578  11.183   6.199  0.5303 -0.0290  0.1634
  238bbb    H11 7157   8.632  11.273   6.229 -1.1307  0.8504  0.6848
  238bbb    H12 7158   8.603  11.147   6.099 -2.2297  0.0631 -0.6467
  238bbb     C7 7159   8.354  11.652   6.335 -0.0375 -0.3541 -0.0246
  238bbb    H13 7160   8.263  11.687   6.384 -0.1731 -1.2168  0.3444
  238bbb    H14 7161   8.391  11.735   6.272 -0.9145  0.5534  0.6298
  238bbb     C8 7162   8.601  11.062   6.292  0.3463  0.0450 -0.3517
  238bbb    H15 7163   8.707  11.048   6.315  0.1504  0.8206  1.1232
  238bbb    H16 7164   8.548  11.083   6.385  0.2973 -0.4356 -0.2694
  238bbb     C9 7165   8.208  11.394   5.855  0.1256 -1.2157 -0.0208
  238bbb    H17 7166   8.159  11.453   5.776  0.1401 -3.5528 -1.9012
  238bbb    H18 7167   8.149  11.418   5.944  0.0191 -0.7908 -0.2041
  238bbb     O1 7168   8.455  11.613   6.434 -0.1771  0.1146  0.2547
  238bbb    H19 7169   8.275  11.336   6.111 -0.0853  0.3989  2.0231
  239bbb     N1 7170   8.859  12.143   7.442 -0.3100 -0.0977  0.5255
  239bbb     C1 7171   8.770  12.168   7.563 -0.4782  0.5507  0.4464
  239bbb     H1 7172   8.799  12.265   7.603 -0.4139  1.5435 -1.8689
  239bbb     H2 7173   8.807  12.093   7.634 -0.5508  1.8795  1.9560
  239bbb     C2 7174   9.006  12.162   7.487 -0.0182  0.0245 -0.5916
  239bbb     H3 7175   9.043  12.065   7.519 -0.0637  0.5810  1.2679
  239bbb     H4 7176   8.994  12.226   7.575 -2.2364  0.1944 -0.9691
  239bbb     C3 7177   8.836  12.005   7.393  0.7382 -0.3716  0.0881
  239bbb     H5 7178   8.743  12.009   7.337  1.9549 -1.6184 -2.1983
  239bbb     H6 7179   8.809  11.928   7.467 -1.3352 -2.5474 -2.7231
  239bbb     C4 7180   8.936  11.950   7.283 -0.8245 -0.3331 -0.2413
  239bbb     H7 7181   9.032  11.941   7.334  0.3045 -2.5209 -2.5551
  239bbb     H8 7182   8.960  12.022   7.204  1.6236  1.6033  2.0756
  239bbb     C5 7183   8.615  12.164   7.552  0.2215  0.6753  0.2612
  239bbb     H9 7184   8.580  12.184   7.654  0.4661 -1.4273  0.8060
  239bbb    H10 7185   8.581  12.061   7.539 -0.9218  0.5324  3.4328
  239bbb     C6 7186   9.103  12.231   7.381  0.0633 -0.3299  0.0022
  239bbb    H11 7187   9.107  12.169   7.291 -1.5470 -0.1586 -0.2048
  239bbb    H12 7188   9.202  12.225   7.428 -0.0970  0.7961  0.5265
  239bbb     C7 7189   8.899  11.811   7.220  0.2355 -0.8787 -0.1403
  239bbb    H13 7190   8.885  11.748   7.309 -0.8651 -2.5736 -1.4416
  239bbb    H14 7191   8.980  11.773   7.156  0.0277  0.0979 -1.0041
  239bbb     C8 7192   9.074  12.377   7.350  1.0555 -0.4824  0.8327
  239bbb    H15 7193   9.092  12.447   7.432 -1.0014 -1.0267  1.8417
  239bbb    H16 7194   9.148  12.403   7.274  1.6609 -0.3867  1.4441
  239bbb     C9 7195   8.568  12.256   7.437 -0.1370  0.3660 -0.4239
  239bbb    H17 7196   8.593  12.361   7.456 -1.5438  0.2721  2.3420
  239bbb    H18 7197   8.459  12.268   7.438 -0.0908  0.7831  0.0886
  239bbb     O1 7198   8.773  11.803   7.149  0.1552 -0.2003  0.2332
  239bbb    H19 7199   8.839  12.210   7.366  2.9548 -0.0617 -0.4939
  240bbb     N1 7200   8.469  13.490   6.506  0.0125  0.0037 -0.6230
  240bbb     C1 7201   8.542  13.485   6.637  0.0556  0.1665 -0.3267
  240bbb     H1 7202   8.462  13.495   6.711  1.5061  0.7913  1.2278
  240bbb     H2 7203   8.610  13.570   6.647  1.8879 -1.3244  0.6449
  240bbb     C2 7204   8.383  13.613   6.490 -1.2949 -0.4509  0.1855
  240bbb     H3 7205   8.453  13.697   6.489  0.9078 -2.1821 -1.1853
  240bbb     H4 7206   8.308  13.607   6.569 -3.6665 -2.0185 -2.0183
  240bbb     C3 7207   8.569  13.492   6.393 -0.1826 -0.2803  1.0090
  240bbb     H5 7208   8.672  13.504   6.429  0.7924 -1.7480 -1.0858
  240bbb     H6 7209   8.561  13.589   6.344 -0.1994  0.7553  2.9389
  240bbb     C4 7210   8.562  13.377   6.291 -0.0028  0.0211  0.0050
  240bbb     H7 7211   8.638  13.399   6.215 -0.7686 -0.6515 -0.9634
  240bbb     H8 7212   8.474  13.385   6.226  0.2857 -1.8521 -0.6663
  240bbb     C5 7213   8.626  13.364   6.665 -0.6454  0.2146  0.2264
  240bbb     H9 7214   8.727  13.367   6.621 -0.3769 -1.1847  0.6875
  240bbb    H10 7215   8.582  13.273   6.624  1.1953 -0.1838 -0.9928
  240bbb     C6 7216   8.303  13.623   6.361 -0.3395 -0.0551 -0.1248
  240bbb    H11 7217   8.224  13.547   6.376 -0.7406  0.2995 -0.3988
  240bbb    H12 7218   8.345  13.605   6.261 -0.1842 -1.4480  0.1719
  240bbb     C7 7219   8.574  13.235   6.345  0.0361  0.3716 -0.3883
  240bbb    H13 7220   8.504  13.211   6.425  0.1905 -1.8609 -0.8780
  240bbb    H14 7221   8.676  13.221   6.383 -0.2910  1.3255  0.9275
  240bbb     C8 7222   8.244  13.760   6.363 -0.0284  0.0934  0.1984
  240bbb    H15 7223   8.320  13.838   6.354  0.6252 -0.3375  1.7577
  240bbb    H16 7224   8.199  13.761   6.263  0.3817  0.0269  0.0122
  240bbb     C9 7225   8.654  13.349   6.816 -0.1089 -0.6873  0.4062
  240bbb    H17 7226   8.682  13.449   6.852 -0.6638 -0.5333  0.4125
  240bbb    H18 7227   8.747  13.297   6.842  0.3330  0.6551  1.6740
  240bbb     O1 7228   8.568  13.135   6.227  0.1353  0.3638 -0.1705
  240bbb    H19 7229   8.411  13.405   6.502  2.0694 -1.6383  1.5086
  241bbb     N1 7230   8.927  12.902   6.578  0.0867  0.0079 -1.1056
  241bbb     C1 7231   8.994  13.039   6.590 -0.2078 -0.1505  0.1819
  241bbb     H1 7232   9.009  13.044   6.698 -2.0353  0.9764  0.4418
  241bbb     H2 7233   8.922  13.119   6.570  1.3688  1.7188  1.6240
  241bbb     C2 7234   8.800  12.907   6.658 -0.0430 -1.2678 -0.2114
  241bbb     H3 7235   8.817  12.961   6.751 -1.3492  0.9903 -1.1898
  241bbb     H4 7236   8.781  12.801   6.676  0.4996 -1.5251 -1.0818
  241bbb     C3 7237   8.901  12.865   6.432 -0.4534  0.4591 -0.4482
  241bbb     H5 7238   8.985  12.910   6.378 -0.1967  1.6344  0.8780
  241bbb     H6 7239   8.813  12.926   6.410 -0.4417  0.5915 -0.1221
  241bbb     C4 7240   8.878  12.716   6.394  0.2210  0.0823 -0.5665
  241bbb     H7 7241   8.789  12.664   6.432  1.5709 -1.7471  0.2633
  241bbb     H8 7242   8.961  12.664   6.444 -0.1201 -1.2445 -1.3443
  241bbb     C5 7243   9.129  13.060   6.520 -0.2688  1.1832  0.2703
  241bbb     H9 7244   9.118  13.076   6.412 -2.1671  2.0579  0.5480
  241bbb    H10 7245   9.183  12.965   6.520  1.3247  1.9516 -2.5843
  241bbb     C6 7246   8.679  12.981   6.595  0.5024  0.1386 -0.2238
  241bbb    H11 7247   8.656  12.933   6.499 -2.3886  1.7601 -0.4611
  241bbb    H12 7248   8.696  13.088   6.578 -0.4312  0.5199  1.1022
  241bbb     C7 7249   8.882  12.688   6.248 -0.1053 -0.4483 -0.6059
  241bbb    H13 7250   8.885  12.579   6.233  2.4054 -0.7664  1.5811
  241bbb    H14 7251   8.977  12.727   6.211 -0.8119 -0.8595 -3.0316
  241bbb     C8 7252   8.552  12.985   6.685 -0.2485 -0.0490 -0.0304
  241bbb    H15 7253   8.514  12.883   6.699  0.9259 -0.7562 -1.6554
  241bbb    H16 7254   8.569  13.028   6.784 -1.1992 -3.0974  1.5918
  241bbb     C9 7255   9.218  13.172   6.572 -0.0976 -0.1573 -1.2746
  241bbb    H17 7256   9.181  13.272   6.548 -0.3326 -0.1094 -0.7137
  241bbb    H18 7257   9.319  13.170   6.530 -0.0852  0.9143 -1.3232
  241bbb     O1 7258   8.778  12.754   6.167 -0.4087 -0.1364 -0.6426
  241bbb    H19 7259   8.993  12.834   6.618 -1.3599  0.7312  2.8730
  242bbb     N1 7260   7.725  11.322   6.902 -0.1013 -0.2992  0.0194
  242bbb     C1 7261   7.706  11.213   6.793  0.2742  0.2383 -0.4802
  242bbb     H1 7262   7.601  11.221   6.764 -0.4782 -1.0074  1.6713
  242bbb     H2 7263   7.707  11.113   6.835  1.3121  0.6118  0.4557
  242bbb     C2 7264   7.855  11.291   6.986  0.0709  0.5779  0.6952
  242bbb     H3 7265   7.929  11.349   6.930 -0.7676  0.9471 -0.0811
  242bbb     H4 7266   7.878  11.185   6.983 -0.4481  0.4333  1.5281
  242bbb     C3 7267   7.733  11.463   6.850  0.4146 -0.5369  0.1514
  242bbb     H5 7268   7.820  11.483   6.787 -0.5488 -1.5056 -1.5671
  242bbb     H6 7269   7.750  11.528   6.936  1.6148 -0.3266 -0.2258
  242bbb     C4 7270   7.603  11.513   6.782  0.3413 -0.0505 -0.4608
  242bbb     H7 7271   7.517  11.517   6.850  1.8193  0.9826  1.4483
  242bbb     H8 7272   7.570  11.447   6.700 -1.4837  1.8635 -1.3491
  242bbb     C5 7273   7.808  11.217   6.676 -0.8069 -0.3847 -0.1503
  242bbb     H9 7274   7.912  11.197   6.704 -0.4947  0.3785 -0.7086
  242bbb    H10 7275   7.805  11.320   6.637 -1.3277  0.5338  2.1404
  242bbb     C6 7276   7.846  11.351   7.126 -0.0081 -0.4464  0.2190
  242bbb    H11 7277   7.823  11.459   7.121  0.4386 -0.3372  0.4137
  242bbb    H12 7278   7.950  11.350   7.162 -0.4600  2.9433  2.1362
  242bbb     C7 7279   7.618  11.658   6.720 -0.4160  0.1881  0.1670
  242bbb    H13 7280   7.527  11.708   6.685 -0.9122 -0.7775  0.0343
  242bbb    H14 7281   7.674  11.649   6.626 -0.3325 -0.2551  0.2577
  242bbb     C8 7282   7.764  11.267   7.229 -0.3434  0.0261  0.7988
  242bbb    H15 7283   7.771  11.310   7.330  0.2534  0.2306  0.6764
  242bbb    H16 7284   7.658  11.267   7.200  0.1909  1.0683 -1.4061
  242bbb     C9 7285   7.769  11.115   6.568 -0.1587 -0.0431 -0.0084
  242bbb    H17 7286   7.676  11.145   6.519  0.3123  0.5805 -0.5440
  242bbb    H18 7287   7.753  11.021   6.621  1.0147 -0.7062 -0.7920
  242bbb     O1 7288   7.696  11.744   6.809  0.2115  0.2049  0.0540
  242bbb    H19 7289   7.651  11.319   6.974  1.1595  1.9960  1.5823
  243bbb     N1 7290   8.166  11.593   7.502  0.2581 -0.3514 -0.1790
  243bbb     C1 7291   8.070  11.510   7.590  0.0071  0.1647  0.0079
  243bbb     H1 7292   8.055  11.557   7.687 -0.7503  2.7308 -1.2629
  243bbb     H2 7293   8.136  11.427   7.614 -0.8484  0.2086  2.9102
  243bbb     C2 7294   8.227  11.512   7.388  0.0651 -0.1839  0.2049
  243bbb     H3 7295   8.242  11.588   7.311 -1.7719  1.2922  1.2165
  243bbb     H4 7296   8.150  11.442   7.356 -1.6636  1.2506  1.0431
  243bbb     C3 7297   8.106  11.718   7.439  0.2456  0.7799  0.4348
  243bbb     H5 7298   8.018  11.693   7.379  0.5735  0.3618  0.1258
  243bbb     H6 7299   8.171  11.766   7.366  0.4629 -0.6710 -0.3678
  243bbb     C4 7300   8.049  11.816   7.535  0.7084  0.0433 -0.3679
  243bbb     H7 7301   8.137  11.859   7.584  0.8040 -2.0320  1.4039
  243bbb     H8 7302   7.975  11.780   7.608  0.4306  2.6100  0.7079
  243bbb     C5 7303   7.933  11.472   7.525 -0.1615  0.2801 -0.3345
  243bbb     H9 7304   7.944  11.418   7.431 -0.3058  1.1646 -0.8655
  243bbb    H10 7305   7.887  11.569   7.504 -0.3199  0.4079  0.5649
  243bbb     C6 7306   8.364  11.440   7.418  0.6195  0.0738 -0.4279
  243bbb    H11 7307   8.349  11.385   7.512  2.0592  0.7111  0.2048
  243bbb    H12 7308   8.444  11.511   7.439  0.7108 -0.6043  1.8373
  243bbb     C7 7309   7.978  11.928   7.461  0.8518 -0.0098  0.3705
  243bbb    H13 7310   8.028  11.971   7.373  1.1735 -0.0347  0.5380
  243bbb    H14 7311   7.970  12.010   7.534 -1.1764 -1.5331  1.9813
  243bbb     C8 7312   8.400  11.341   7.310 -0.6331  0.4682 -0.0506
  243bbb    H15 7313   8.434  11.392   7.219  1.3833 -2.1427 -0.8754
  243bbb    H16 7314   8.487  11.279   7.335  0.6948  1.0384 -2.8606
  243bbb     C9 7315   7.839  11.397   7.622  0.1320  0.5015 -0.1039
  243bbb    H17 7316   7.742  11.384   7.574 -1.2495  1.9609  2.1077
  243bbb    H18 7317   7.825  11.450   7.717 -0.1919 -1.4780  1.0243
  243bbb     O1 7318   7.841  11.891   7.432  0.2618  0.7519 -0.0247
  243bbb    H19 7319   8.245  11.617   7.563  0.3444 -1.8224  0.3327
  244bbb     N1 7320   7.476  13.220   7.415 -0.2160 -0.4256 -0.1470
  244bbb     C1 7321   7.484  13.246   7.265  0.5346  0.0658  0.2837
  244bbb     H1 7322   7.419  13.327   7.233  0.7020 -1.1242 -3.5628
  244bbb     H2 7323   7.448  13.154   7.218 -1.2128  0.0904  1.4958
  244bbb     C2 7324   7.329  13.194   7.452  0.2027  0.4342  0.2283
  244bbb     H3 7325   7.295  13.099   7.411 -0.0209 -0.1555  1.7377
  244bbb     H4 7326   7.272  13.271   7.401  3.1998  2.2010 -0.7184
  244bbb     C3 7327   7.562  13.099   7.450  0.0060  0.2697  0.2393
  244bbb     H5 7328   7.561  13.096   7.559  0.9035 -1.8567  0.2317
  244bbb     H6 7329   7.663  13.126   7.421 -0.5489  1.2507 -0.8208
  244bbb     C4 7330   7.519  12.960   7.388 -0.3723 -0.5659  0.0358
  244bbb     H7 7331   7.526  12.973   7.279 -0.0371 -0.5355  0.0607
  244bbb     H8 7332   7.415  12.960   7.423 -0.6125  2.7979 -0.3695
  244bbb     C5 7333   7.617  13.289   7.205 -0.6167 -1.3556 -0.0161
  244bbb     H9 7334   7.621  13.277   7.095  3.5638 -0.1730 -0.1754
  244bbb    H10 7335   7.708  13.232   7.226 -0.1948 -1.4699 -1.9710
  244bbb     C6 7336   7.287  13.184   7.597 -0.4678 -0.6428 -0.3405
  244bbb    H11 7337   7.361  13.111   7.631 -0.2584  0.2258  1.1480
  244bbb    H12 7338   7.186  13.142   7.601  0.2979 -2.6279 -0.5453
  244bbb     C7 7339   7.592  12.837   7.433 -0.5013  0.3191 -0.2618
  244bbb    H13 7340   7.697  12.842   7.400  0.1217 -1.2405  1.3091
  244bbb    H14 7341   7.535  12.757   7.384 -0.8067 -0.5715  1.4427
  244bbb     C8 7342   7.289  13.321   7.674 -0.0003 -0.0267 -0.1426
  244bbb    H15 7343   7.296  13.306   7.782 -3.5783  1.5282  0.4517
  244bbb    H16 7344   7.370  13.383   7.635 -1.0877  1.3216 -0.3426
  244bbb     C9 7345   7.641  13.446   7.229 -0.1968 -0.5354 -0.1618
  244bbb    H17 7346   7.689  13.478   7.323  1.7809 -1.5801 -0.7691
  244bbb    H18 7347   7.543  13.496   7.225 -0.8811 -1.7978  0.2061
  244bbb     O1 7348   7.582  12.814   7.578  0.2370 -0.8250 -0.1039
  244bbb    H19 7349   7.503  13.305   7.466  0.7111 -0.6156 -0.2982
  245bbb     N1 7350   6.804  13.005   8.183 -0.3788 -0.1636  0.1866
  245bbb     C1 7351   6.684  12.908   8.159 -0.2550 -0.1074 -0.0835
  245bbb     H1 7352   6.682  12.840   8.244 -0.8579 -0.7653 -0.6100
  245bbb     H2 7353   6.714  12.847   8.073  1.8144  1.2292 -0.3997
  245bbb     C2 7354   6.915  12.928   8.257  0.6611  0.9018  0.3470
  245bbb     H3 7355   6.880  12.894   8.355 -0.1671 -1.3085 -0.6434
  245bbb     H4 7356   7.002  12.992   8.275  1.8441 -0.9030  1.3407
  245bbb     C3 7357   6.858  13.053   8.050 -0.6806 -0.2436 -0.1031
  245bbb     H5 7358   6.782  13.104   7.990 -0.7498 -2.0192 -1.6408
  245bbb     H6 7359   6.896  12.963   8.001  2.2181  1.2917 -0.8334
  245bbb     C4 7360   6.969  13.168   8.056  0.2274 -0.4689  0.1765
  245bbb     H7 7361   7.051  13.137   8.122  0.6533 -1.0034 -0.5830
  245bbb     H8 7362   6.923  13.259   8.096  1.1796  0.5416 -0.9460
  245bbb     C5 7363   6.550  12.979   8.141  0.3869 -0.1451 -0.5268
  245bbb     H9 7364   6.564  13.056   8.064 -1.9249 -0.4102 -1.2887
  245bbb    H10 7365   6.519  13.014   8.240 -0.4454 -3.1586  0.3804
  245bbb     C6 7366   6.968  12.798   8.191  0.2172  0.4913 -0.0216
  245bbb    H11 7367   6.982  12.810   8.082 -0.4810  0.9350 -0.0735
  245bbb    H12 7368   6.889  12.723   8.200 -0.4638  0.8947 -2.0297
  245bbb     C7 7369   7.022  13.194   7.910  0.1290 -0.4862 -0.1394
  245bbb    H13 7370   7.110  13.259   7.905 -2.6249  3.9298  2.2036
  245bbb    H14 7371   6.948  13.244   7.846  0.5917 -1.0155 -1.1164
  245bbb     C8 7372   7.106  12.770   8.247 -0.4142  1.3399  0.1509
  245bbb    H15 7373   7.099  12.770   8.357  2.3137 -0.1317  0.4179
  245bbb    H16 7374   7.135  12.671   8.211 -0.5333  1.5895 -0.6545
  245bbb     C9 7375   6.434  12.893   8.083 -0.1146  0.3150 -0.2368
  245bbb    H17 7376   6.340  12.949   8.076 -0.5185 -0.1281  1.2558
  245bbb    H18 7377   6.417  12.814   8.156  1.1167 -0.1442 -0.4251
  245bbb     O1 7378   7.049  13.064   7.841  0.3931  0.2644  0.1305
  245bbb    H19 7379   6.774  13.086   8.240 -3.4710  1.2000 -2.9737
  246bbb     N1 7380   7.340  14.221   5.047  0.2142  0.2651  0.3115
  246bbb     C1 7381   7.419  14.305   5.146 -0.4517 -0.2700 -0.0358
  246bbb     H1 7382   7.525  14.309   5.121  0.1163 -2.4750  1.6644
  246bbb     H2 7383   7.412  14.248   5.239 -0.3039  0.7360  0.6032
  246bbb     C2 7384   7.441  14.116   4.988  0.3787 -0.5068 -0.9311
  246bbb     H3 7385   7.390  14.031   4.943 -2.3401  1.4632 -1.8228
  246bbb     H4 7386   7.504  14.089   5.072  0.8570 -0.9162 -1.4167
  246bbb     C3 7387   7.215  14.164   5.108 -0.3634  0.4003 -0.0451
  246bbb     H5 7388   7.180  14.233   5.185  0.2324  0.7001 -0.0384
  246bbb     H6 7389   7.256  14.078   5.161  1.2770  1.6012  0.7097
  246bbb     C4 7390   7.102  14.122   5.012  0.4754 -0.0056  0.6872
  246bbb     H7 7391   7.077  14.209   4.950 -0.5533  0.1397  1.2739
  246bbb     H8 7392   7.016  14.086   5.071  0.9440  0.2327  1.5217
  246bbb     C5 7393   7.360  14.445   5.169  0.1747  0.7940  0.2751
  246bbb     H9 7394   7.253  14.440   5.147  0.0295  2.2888  0.5840
  246bbb    H10 7395   7.409  14.508   5.093 -0.4584 -1.0223 -1.7412
  246bbb     C6 7396   7.540  14.178   4.891  0.6430 -0.0004  0.4547
  246bbb    H11 7397   7.621  14.108   4.864 -0.0365 -1.9546  3.0619
  246bbb    H12 7398   7.594  14.256   4.946  1.0268 -1.4357  2.2248
  246bbb     C7 7399   7.131  14.002   4.918 -0.3075 -0.7802  0.4602
  246bbb    H13 7400   7.193  14.032   4.832 -1.0882 -0.3092  0.0493
  246bbb    H14 7401   7.041  13.969   4.865 -0.1517 -1.7190  0.7635
  246bbb     C8 7402   7.465  14.216   4.763  0.1178  0.3520  0.0137
  246bbb    H15 7403   7.397  14.294   4.799  1.0627  0.6245  1.2651
  246bbb    H16 7404   7.536  14.250   4.686 -1.0095 -1.6824 -2.0757
  246bbb     C9 7405   7.382  14.509   5.310  0.4696 -0.1291 -0.3886
  246bbb    H17 7406   7.342  14.611   5.307 -1.9030 -0.8984  1.8686
  246bbb    H18 7407   7.486  14.504   5.346  0.0012 -1.4401  0.8643
  246bbb     O1 7408   7.200  13.896   4.978  0.4444  0.2574  0.1794
  246bbb    H19 7409   7.311  14.284   4.970 -1.7375  0.1262  0.8684
  247bbb     N1 7410   7.008  13.833   5.330 -0.3511 -0.2128 -0.2961
  247bbb     C1 7411   6.966  13.982   5.332  0.3605  0.4673 -0.8703
  247bbb     H1 7412   6.865  13.997   5.295  0.9775  3.5995 -1.5215
  247bbb     H2 7413   7.030  14.027   5.256  1.8707  0.3853  0.2840
  247bbb     C2 7414   7.000  13.773   5.192  0.3014  0.8570  0.7574
  247bbb     H3 7415   7.063  13.684   5.195  1.5834  1.7011 -0.1867
  247bbb     H4 7416   7.048  13.846   5.127  1.7413 -0.4651  0.2880
  247bbb     C3 7417   7.155  13.835   5.380  0.2495 -0.2828 -0.0198
  247bbb     H5 7418   7.176  13.902   5.464  2.2804 -0.2457 -0.5192
  247bbb     H6 7419   7.214  13.866   5.293  1.5277 -0.4671  0.7575
  247bbb     C4 7420   7.213  13.696   5.405 -0.1418 -0.0749  0.2473
  247bbb     H7 7421   7.213  13.632   5.316 -1.8456  0.5217 -0.2233
  247bbb     H8 7422   7.166  13.641   5.488  0.7037 -0.7400  0.2911
  247bbb     C5 7423   6.972  14.060   5.468  0.1496  0.3990 -0.4299
  247bbb     H9 7424   7.072  14.050   5.514  0.1475 -0.4083 -0.5783
  247bbb    H10 7425   6.904  14.010   5.538 -1.6228  1.4108 -1.3737
  247bbb     C6 7426   6.862  13.714   5.139  0.3179 -0.3240  0.9367
  247bbb    H11 7427   6.776  13.732   5.205  0.4147 -3.3531  2.0486
  247bbb    H12 7428   6.865  13.605   5.127 -0.0996 -0.3860  1.3666
  247bbb     C7 7429   7.361  13.710   5.446 -0.3562  0.8664  0.1468
  247bbb    H13 7430   7.391  13.606   5.467  0.9294  1.7661  3.4041
  247bbb    H14 7431   7.365  13.771   5.538  0.6982  1.5781 -0.3495
  247bbb     C8 7432   6.829  13.766   4.999 -0.0272 -0.0727  0.3641
  247bbb    H15 7433   6.916  13.755   4.932  0.0178 -0.2294  0.4485
  247bbb    H16 7434   6.747  13.710   4.954  1.4313 -2.3234  0.3709
  247bbb     C9 7435   6.918  14.207   5.447 -0.2921  0.1885 -0.4418
  247bbb    H17 7436   6.919  14.267   5.538  0.3827 -1.4162  0.6611
  247bbb    H18 7437   6.812  14.195   5.423 -0.8751  1.1409  1.4731
  247bbb     O1 7438   7.443  13.766   5.344 -0.0384 -0.0581 -0.3993
  247bbb    H19 7439   6.950  13.781   5.398  0.5477  0.0199  0.6675
  248bbb     N1 7440   7.460  13.038   3.603 -0.1850 -0.1113 -0.3046
  248bbb     C1 7441   7.523  12.984   3.470  0.3182 -0.1115 -0.6333
  248bbb     H1 7442   7.471  13.027   3.384 -1.7106 -1.6073 -0.2083
  248bbb     H2 7443   7.491  12.880   3.470  0.4435 -0.1493 -0.5082
  248bbb     C2 7444   7.448  13.190   3.578 -0.5049  0.4008 -0.7080
  248bbb     H3 7445   7.372  13.198   3.500 -2.0468 -3.1338  0.2260
  248bbb     H4 7446   7.546  13.215   3.539  2.2330 -5.6656  0.9670
  248bbb     C3 7447   7.318  12.977   3.620  0.4226 -0.3312  0.2209
  248bbb     H5 7448   7.255  13.024   3.545  0.0208 -0.7208  0.3087
  248bbb     H6 7449   7.294  13.011   3.720 -1.5461  0.7775 -0.5642
  248bbb     C4 7450   7.313  12.819   3.624  0.1061 -0.6660  0.5713
  248bbb     H7 7451   7.333  12.781   3.523 -0.9371  1.2620 -0.4178
  248bbb     H8 7452   7.207  12.797   3.645 -0.7075  1.8039 -0.6239
  248bbb     C5 7453   7.678  12.997   3.456 -0.1371  0.1775 -0.1346
  248bbb     H9 7454   7.731  12.923   3.516  0.7473 -2.1866 -3.5281
  248bbb    H10 7455   7.717  13.094   3.490 -1.1849  0.5866 -0.0514
  248bbb     C6 7456   7.407  13.272   3.700 -0.5243  0.1497 -0.2972
  248bbb    H11 7457   7.460  13.246   3.792 -3.0880  1.4429  1.6432
  248bbb    H12 7458   7.306  13.249   3.735 -0.5197  1.0158  0.3218
  248bbb     C7 7459   7.410  12.758   3.730  0.0474 -0.3044  0.2916
  248bbb    H13 7460   7.514  12.785   3.714  0.1344 -0.2734  0.8839
  248bbb    H14 7461   7.405  12.649   3.714  0.0996 -0.2863  0.1463
  248bbb     C8 7462   7.427  13.423   3.691  0.8557  1.4061  0.0355
  248bbb    H15 7463   7.531  13.453   3.674  1.4966  0.0337  1.3019
  248bbb    H16 7464   7.378  13.476   3.608  1.7648  0.9219 -0.8316
  248bbb     C9 7465   7.714  12.973   3.310 -0.9316  0.0044  0.5817
  248bbb    H17 7466   7.653  13.050   3.261 -1.0608  1.1284  2.4226
  248bbb    H18 7467   7.687  12.873   3.275 -2.6079  0.7629 -0.4160
  248bbb     O1 7468   7.354  12.803   3.862 -0.4637 -0.0229  0.0933
  248bbb    H19 7469   7.524  13.020   3.682 -0.4470  2.2894  0.5215
  249bbb     N1 7470   6.867  13.295   4.052 -0.3023  0.2558  0.2649
  249bbb     C1 7471   6.956  13.366   3.952 -0.0852 -0.0112  0.0123
  249bbb     H1 7472   6.967  13.466   3.995 -1.2471 -0.4140  1.3128
  249bbb     H2 7473   6.900  13.374   3.859  0.0560  0.7146 -0.0114
  249bbb     C2 7474   6.806  13.407   4.134 -0.2607 -0.8647 -0.1247
  249bbb     H3 7475   6.738  13.459   4.066  1.2810  1.8456  0.2926
  249bbb     H4 7476   6.885  13.479   4.152 -0.7628  0.0203 -1.3255
  249bbb     C3 7477   6.762  13.201   3.994 -0.3753  0.1645  0.3501
  249bbb     H5 7478   6.743  13.236   3.893  0.0247 -0.9821 -0.1291
  249bbb     H6 7479   6.667  13.209   4.048 -0.8743  0.8440 -0.5903
  249bbb     C4 7480   6.803  13.051   3.999  0.6042  0.1405  0.2360
  249bbb     H7 7481   6.904  13.041   3.958  0.3391  1.8574 -0.9371
  249bbb     H8 7482   6.727  12.990   3.949  0.1680 -0.0922  1.1464
  249bbb     C5 7483   7.101  13.304   3.951  0.1331  1.1451 -0.2200
  249bbb     H9 7484   7.162  13.363   3.882 -0.3280 -0.9825 -2.6139
  249bbb    H10 7485   7.106  13.210   3.894  2.0309  0.4529  1.0120
  249bbb     C6 7486   6.734  13.358   4.265  0.2672 -0.7577  0.0253
  249bbb    H11 7487   6.707  13.253   4.254 -0.1976 -0.4030 -2.9049
  249bbb    H12 7488   6.643  13.419   4.276  1.3451  0.8232  0.5797
  249bbb     C7 7489   6.809  12.994   4.142  0.7191 -0.4156  0.7687
  249bbb    H13 7490   6.834  12.887   4.144  0.8531 -0.4027 -0.1041
  249bbb    H14 7491   6.713  13.010   4.193  1.7164  0.6895  2.3879
  249bbb     C8 7492   6.814  13.377   4.390 -0.3677  0.6963  0.1193
  249bbb    H15 7493   6.757  13.329   4.470  0.1398  0.0240  0.0836
  249bbb    H16 7494   6.912  13.328   4.380 -0.6227 -0.1485  1.5080
  249bbb     C9 7495   7.162  13.288   4.091  0.5036  0.1041 -0.1399
  249bbb    H17 7496   7.271  13.279   4.079  0.4579  1.0908 -1.5168
  249bbb    H18 7497   7.115  13.208   4.149 -0.8476  1.8829  1.3258
  249bbb     O1 7498   6.907  13.062   4.220  0.1668 -1.0756  0.2513
  249bbb    H19 7499   6.926  13.245   4.120  0.2900  1.0431  0.3506
  250bbb     N1 7500   6.091  13.108   6.798  0.0605  0.7087  0.7249
  250bbb     C1 7501   6.177  13.027   6.897 -0.1505 -0.5679  0.1201
  250bbb     H1 7502   6.126  12.933   6.918 -0.2755 -0.2710  1.2270
  250bbb     H2 7503   6.178  13.073   6.996  0.8751 -1.8682  0.7578
  250bbb     C2 7504   5.952  13.060   6.817  0.2876 -0.2093 -0.3744
  250bbb     H3 7505   5.923  13.108   6.911  0.8152 -1.1922  0.3081
  250bbb     H4 7506   5.947  12.952   6.831 -1.1718  0.0469  1.6506
  250bbb     C3 7507   6.098  13.258   6.811 -0.7744 -0.8757 -0.3239
  250bbb     H5 7508   6.137  13.280   6.911  0.8670  0.9431 -1.2960
  250bbb     H6 7509   5.997  13.298   6.798 -0.0361  0.7323 -1.4535
  250bbb     C4 7510   6.188  13.337   6.712  0.3972  0.6634  0.5339
  250bbb     H7 7511   6.289  13.308   6.744  0.2814 -0.8684 -0.3870
  250bbb     H8 7512   6.182  13.445   6.727  1.0990  0.7148  0.4508
  250bbb     C5 7513   6.322  13.014   6.853 -0.5259  0.2116 -0.2709
  250bbb     H9 7514   6.357  13.117   6.834  2.0475 -0.3476  0.9392
  250bbb    H10 7515   6.323  12.974   6.751 -0.2237  0.4673 -0.3739
  250bbb     C6 7516   5.850  13.099   6.707  0.2303 -0.3045  0.4892
  250bbb    H11 7517   5.861  13.039   6.616  2.4327  0.9556 -0.1368
  250bbb    H12 7518   5.863  13.202   6.672 -2.0962  0.2457  1.0651
  250bbb     C7 7519   6.151  13.299   6.570  0.0258 -0.6875 -0.2262
  250bbb    H13 7520   6.191  13.367   6.494 -0.5950 -0.4111 -0.3178
  250bbb    H14 7521   6.042  13.297   6.556  0.1597 -0.3959 -1.4396
  250bbb     C8 7522   5.713  13.071   6.749  0.1590 -0.6090 -0.0701
  250bbb    H15 7523   5.645  13.107   6.670  0.8191  1.3996  0.2411
  250bbb    H16 7524   5.701  12.962   6.751 -1.7406 -0.6141 -3.2463
  250bbb     C9 7525   6.424  12.949   6.959  0.1046  0.1743  0.3472
  250bbb    H17 7526   6.458  13.033   7.021 -1.9752  0.6202  0.9497
  250bbb    H18 7527   6.504  12.908   6.896 -0.4732 -0.4277 -0.0034
  250bbb     O1 7528   6.199  13.169   6.537 -0.3443 -0.3670 -0.0226
  250bbb    H19 7529   6.125  13.080   6.705 -0.2557 -0.0157  0.8135
  251bbb     N1 7530   6.194  12.524   6.869  0.7226  0.1161  1.0065
  251bbb     C1 7531   6.099  12.622   6.934  0.1462  0.0759 -0.0101
  251bbb     H1 7532   6.021  12.642   6.861 -0.7459 -0.9481  0.6304
  251bbb     H2 7533   6.172  12.701   6.949  0.4887 -0.2469  0.0417
  251bbb     C2 7534   6.120  12.387   6.842 -0.4301 -1.0102  0.6472
  251bbb     H3 7535   6.062  12.398   6.750 -0.9092  0.8512  1.1300
  251bbb     H4 7536   6.049  12.378   6.925 -1.0313  1.8201  0.5507
  251bbb     C3 7537   6.247  12.594   6.742 -0.5586 -0.3989 -0.1944
  251bbb     H5 7538   6.267  12.699   6.762 -0.0863 -0.5608  0.2220
  251bbb     H6 7539   6.166  12.590   6.669  0.3780 -0.7189 -1.2627
  251bbb     C4 7540   6.377  12.533   6.684  0.4685  0.2716  0.4927
  251bbb     H7 7541   6.355  12.525   6.577 -0.5177  3.8052  0.2994
  251bbb     H8 7542   6.407  12.433   6.716 -0.1439 -0.5013 -1.2668
  251bbb     C5 7543   6.032  12.577   7.069 -0.6706  0.5846  0.6345
  251bbb     H9 7544   6.100  12.528   7.139 -1.0172  2.0690  2.0781
  251bbb    H10 7545   5.944  12.517   7.045  0.0959  0.2930 -1.6844
  251bbb     C6 7546   6.203  12.264   6.823 -0.5226 -0.5814 -0.4027
  251bbb    H11 7547   6.243  12.263   6.721  0.2436 -1.6164 -0.1068
  251bbb    H12 7548   6.139  12.175   6.835 -1.0184 -0.1136  0.5726
  251bbb     C7 7549   6.497  12.620   6.713 -0.1281  0.6390 -0.2202
  251bbb    H13 7550   6.581  12.560   6.676  0.6596  1.2881  0.4620
  251bbb    H14 7551   6.510  12.637   6.821  1.9678  0.6385 -0.4344
  251bbb     C8 7552   6.321  12.257   6.910 -0.5428  0.1313  0.3993
  251bbb    H15 7553   6.359  12.155   6.896 -0.4823  0.6021 -4.3984
  251bbb    H16 7554   6.404  12.326   6.895 -0.5262 -0.2461 -1.4869
  251bbb     C9 7555   5.972  12.703   7.144  0.5772  0.2784  0.2730
  251bbb    H17 7556   5.891  12.674   7.213  0.9888 -0.1007  0.6035
  251bbb    H18 7557   5.930  12.774   7.072  0.6387  0.4163  0.3739
  251bbb     O1 7558   6.472  12.743   6.639  0.0404  0.4978  0.1576
  251bbb    H19 7559   6.282  12.509   6.920  2.2271 -2.0682 -1.9661
  252bbb     N1 7560   5.650  13.790   5.192 -0.2233 -0.2907 -0.1024
  252bbb     C1 7561   5.614  13.699   5.317  0.8189 -0.0890 -0.3765
  252bbb     H1 7562   5.692  13.706   5.393  0.3026 -0.0939  0.1601
  252bbb     H2 7563   5.615  13.596   5.280  1.1497 -0.7111  1.2854
  252bbb     C2 7564   5.661  13.935   5.241 -0.3132  0.0763  0.7285
  252bbb     H3 7565   5.755  13.937   5.297  0.5049 -0.1912 -0.6124
  252bbb     H4 7566   5.584  13.956   5.316 -1.7548  0.2343 -0.7597
  252bbb     C3 7567   5.787  13.759   5.137 -0.7232  0.6976 -0.4448
  252bbb     H5 7568   5.860  13.789   5.212  0.6535  1.4623 -2.0187
  252bbb     H6 7569   5.800  13.828   5.054  0.3811 -0.3678 -1.2004
  252bbb     C4 7570   5.813  13.609   5.090 -0.5249  0.1139  0.1564
  252bbb     H7 7571   5.758  13.598   4.996  2.2106 -0.3988 -1.5145
  252bbb     H8 7572   5.770  13.535   5.158 -2.2986 -0.7251 -1.7630
  252bbb     C5 7573   5.485  13.724   5.395  0.4883 -0.5874  0.4953
  252bbb     H9 7574   5.467  13.827   5.426  0.1454 -0.2509 -0.7710
  252bbb    H10 7575   5.470  13.659   5.482  1.3368 -0.8116  0.4761
  252bbb     C6 7576   5.653  14.043   5.131  0.1112  0.1408 -0.2422
  252bbb    H11 7577   5.708  14.007   5.043  0.8204 -2.2094  1.0756
  252bbb    H12 7578   5.701  14.136   5.161 -1.1965  0.3276  1.4044
  252bbb     C7 7579   5.960  13.573   5.062  0.2543  0.4172 -0.4213
  252bbb    H13 7580   6.009  13.659   5.014  0.7758  0.5224  0.2926
  252bbb    H14 7581   5.969  13.482   5.002  1.9716  0.0614  0.3358
  252bbb     C8 7582   5.503  14.075   5.099 -0.2247  0.4417  0.2590
  252bbb    H15 7583   5.450  14.110   5.189  2.2725  1.1019  1.5773
  252bbb    H16 7584   5.499  14.159   5.028  0.2618 -1.2909 -1.9347
  252bbb     C9 7585   5.361  13.696   5.303  0.3039 -0.7452 -0.3886
  252bbb    H17 7586   5.349  13.762   5.217 -0.6543 -1.2830 -0.6764
  252bbb    H18 7587   5.273  13.719   5.364 -0.0634 -2.3425 -0.2688
  252bbb     O1 7588   6.015  13.539   5.191 -0.5041 -0.5343 -0.2610
  252bbb    H19 7589   5.579  13.776   5.119 -0.8933 -1.0588  0.6814
  253bbb     N1 7590   6.387  13.681   6.076 -0.3267  0.0857 -0.3843
  253bbb     C1 7591   6.419  13.824   6.044  0.4457  0.0552 -0.1583
  253bbb     H1 7592   6.373  13.881   6.126  3.9487  1.9065  0.6915
  253bbb     H2 7593   6.367  13.841   5.950 -3.1269 -2.1645  1.1598
  253bbb     C2 7594   6.409  13.660   6.225  0.1269 -0.3993  0.5437
  253bbb     H3 7595   6.336  13.715   6.285 -0.2969  0.0974 -0.4009
  253bbb     H4 7596   6.511  13.696   6.245  0.3462 -1.3122  1.1217
  253bbb     C3 7597   6.238  13.653   6.048  0.8269 -0.2807 -0.2857
  253bbb     H5 7598   6.184  13.741   6.082  0.6470 -0.7833  0.7836
  253bbb     H6 7599   6.215  13.571   6.117  2.4008 -0.0921  0.5053
  253bbb     C4 7600   6.198  13.631   5.904  0.1868  0.0537  0.0346
  253bbb     H7 7601   6.255  13.547   5.863  0.1654  0.0017  0.1122
  253bbb     H8 7602   6.223  13.723   5.850  0.3759  1.4619  2.3679
  253bbb     C5 7603   6.566  13.861   6.057 -1.0497 -0.2914  0.1148
  253bbb     H9 7604   6.632  13.795   5.999 -0.1943 -0.2698  1.0300
  253bbb    H10 7605   6.608  13.853   6.158  0.7020 -0.5370 -0.5971
  253bbb     C6 7606   6.412  13.520   6.285  0.5246 -0.3281 -0.3817
  253bbb    H11 7607   6.478  13.450   6.233 -0.2540 -1.2242 -0.1805
  253bbb    H12 7608   6.310  13.480   6.287 -0.2658  1.4541  3.2553
  253bbb     C7 7609   6.046  13.605   5.898 -0.3723  0.2066  0.2534
  253bbb    H13 7610   6.013  13.633   5.797 -0.0177 -0.0593  0.0588
  253bbb    H14 7611   5.994  13.666   5.972 -1.3158  2.5333 -2.1745
  253bbb     C8 7612   6.449  13.547   6.436  0.7715 -0.1558  0.7588
  253bbb    H15 7613   6.477  13.450   6.481  0.6401 -0.5773 -0.0556
  253bbb    H16 7614   6.545  13.601   6.438  0.3048  0.8126 -1.2904
  253bbb     C9 7615   6.596  14.008   6.018 -0.0682  0.7829 -0.1014
  253bbb    H17 7616   6.526  14.081   6.060  0.7840 -0.4023  3.8556
  253bbb    H18 7617   6.595  14.025   5.910  1.4917 -0.9988 -0.4600
  253bbb     O1 7618   6.003  13.468   5.929  0.1201  0.6034 -0.1690
  253bbb    H19 7619   6.449  13.615   6.026  0.0258  1.2258 -1.4859
  254ccc     C1 7620   3.477   8.711   3.339 -0.0368  0.0985  0.3037
  254ccc     C2 7621   3.531   8.801   3.452  0.5209  0.3410  0.3375
  254ccc     H1 7622   3.408   8.644   3.392 -2.1623  2.2179  0.3672
  254ccc     H2 7623   3.445   8.828   3.515 -1.1634 -3.8110  0.1232
  254ccc     C3 7624   3.649   8.747   3.542 -0.5720  0.1992  0.4026
  254ccc     C4 7625   3.750   8.667   3.452 -0.9598  0.4104 -0.1770
  254ccc     C5 7626   3.681   8.584   3.334 -0.1973 -0.5827  0.0605
  254ccc     H3 7627   3.812   8.744   3.404 -1.0304  0.2044 -0.6026
  254ccc     H4 7628   3.611   8.672   3.612  4.6029 -1.6776  1.6971
  254ccc     H5 7629   3.645   8.486   3.367  4.0577 -3.5959 -3.1186
  254ccc     O1 7630   3.779   8.547   3.235  0.4782  0.2169 -0.5773
  254ccc     O2 7631   3.844   8.590   3.529  0.4445 -0.2426  0.5549
  254ccc     O3 7632   3.722   8.846   3.617  0.7788  0.7447  0.0244
  254ccc     O4 7633   3.599   8.913   3.389  0.5005  0.5285 -0.5520
  254ccc     C6 7634   3.379   8.784   3.242 -1.1046  0.0433  0.7516
  254ccc     H6 7635   3.790   8.803   3.670  1.8682  3.6570  1.2120
  254ccc     H7 7636   3.563   8.901   3.299  0.6141 -0.7309 -0.4577
  254ccc     H8 7637   3.920   8.576   3.470 -0.1034 -1.3612  0.0972
  254ccc     H9 7638   3.311   8.834   3.312  1.4394  1.4758  2.3299
  254ccc    H10 7639   3.330   8.707   3.181  0.6325 -0.1567 -0.4594
  254ccc     O5 7640   3.462   8.866   3.157  0.2038 -0.6569 -0.1043
  254ccc    H11 7641   3.481   8.795   3.094  1.0007 -2.7028  2.2869
  254ccc     O6 7642   3.581   8.656   3.265  0.0453  1.0963 -0.1198
  255ccc     C1 7643   3.746   8.165   2.186 -0.8166  0.0698  0.6973
  255ccc     C2 7644   3.606   8.104   2.203  0.3687  0.2155  0.6702
  255ccc     H1 7645   3.823   8.092   2.213 -0.1909 -0.2715 -1.7613
  255ccc     H2 7646   3.599   8.017   2.136  2.0252  0.8265 -0.3597
  255ccc     C3 7647   3.579   8.040   2.340 -0.2266  0.2782  0.4087
  255ccc     C4 7648   3.614   8.140   2.448  0.1645  0.0275 -1.1249
  255ccc     C5 7649   3.748   8.213   2.416 -0.1427 -0.5227  0.4138
  255ccc     H3 7650   3.534   8.215   2.459 -0.2959 -0.4879 -0.9284
  255ccc     H4 7651   3.643   7.951   2.335 -0.1022  0.4213 -0.7569
  255ccc     H5 7652   3.830   8.141   2.423 -2.4942 -3.7669 -2.4458
  255ccc     O1 7653   3.765   8.317   2.521  0.3556 -0.1031  0.4999
  255ccc     O2 7654   3.627   8.072   2.577 -0.5612  0.0080 -0.0573
  255ccc     O3 7655   3.447   7.989   2.345 -0.3286  0.0155  0.4037
  255ccc     O4 7656   3.512   8.204   2.160 -0.2107 -0.8839 -0.5509
  255ccc     C6 7657   3.779   8.215   2.041 -0.1652 -0.4213 -0.6904
  255ccc     H6 7658   3.452   7.902   2.389 -0.4714 -0.3177 -0.2243
  255ccc     H7 7659   3.559   8.263   2.099 -1.7099 -0.3544 -1.2188
  255ccc     H8 7660   3.554   8.009   2.589 -1.5599  1.0185 -0.5882
  255ccc     H9 7661   3.786   8.128   1.973  2.2394 -0.1798 -0.8364
  255ccc    H10 7662   3.877   8.263   2.041  0.0784 -0.8755  0.7205
  255ccc     O5 7663   3.681   8.305   2.000 -0.1935  0.0281  0.0654
  255ccc    H11 7664   3.695   8.329   1.907 -0.1053  4.6649  1.0310
  255ccc     O6 7665   3.751   8.273   2.279  0.0839  0.0897 -0.3542
  256ccc     C1 7666   3.582   7.475   2.664 -0.4893 -0.1410 -0.0200
  256ccc     C2 7667   3.585   7.567   2.545 -0.1011  0.0712 -0.4012
  256ccc     H1 7668   3.479   7.437   2.671 -1.3455  2.0277  0.0521
  256ccc     H2 7669   3.549   7.509   2.459  2.1730 -2.5017  0.2323
  256ccc     C3 7670   3.486   7.679   2.568 -0.1814 -0.2432  0.5765
  256ccc     C4 7671   3.528   7.758   2.694  0.2746 -0.7860 -0.7811
  256ccc     C5 7672   3.529   7.667   2.819 -0.7629  0.5692  0.1173
  256ccc     H3 7673   3.633   7.789   2.683  0.2682 -0.2220  0.5804
  256ccc     H4 7674   3.393   7.628   2.595 -1.3824  1.9272  0.8129
  256ccc     H5 7675   3.424   7.641   2.837 -0.1531 -0.7862  2.0994
  256ccc     O1 7676   3.574   7.728   2.943  0.0572  0.3750 -0.6080
  256ccc     O2 7677   3.440   7.867   2.719  0.0531 -0.3213  0.2065
  256ccc     O3 7678   3.464   7.758   2.447 -0.5987  0.2144  0.8183
  256ccc     O4 7679   3.720   7.615   2.527  0.6329 -0.3053 -0.2890
  256ccc     C6 7680   3.684   7.366   2.651 -0.2218 -0.4338  0.4942
  256ccc     H6 7681   3.375   7.726   2.422  0.0665 -2.6259  1.6986
  256ccc     H7 7682   3.739   7.632   2.433  1.7100 -1.4058 -0.3034
  256ccc     H8 7683   3.353   7.859   2.675  0.1126  0.7919 -0.1569
  256ccc     H9 7684   3.773   7.403   2.703 -1.1115  0.5320  1.3725
  256ccc    H10 7685   3.711   7.351   2.545  0.7734  1.5186  0.4370
  256ccc     O5 7686   3.626   7.253   2.711 -0.4026  0.1505 -0.3343
  256ccc    H11 7687   3.586   7.217   2.629  1.6504  0.9431 -1.7759
  256ccc     O6 7688   3.614   7.551   2.786  0.5931  0.2442  0.5151
  257ccc     C1 7689   3.289   8.428   2.753  0.3747  0.3840 -0.1333
  257ccc     C2 7690   3.387   8.506   2.661  0.3308 -0.0940  0.4724
  257ccc     H1 7691   3.204   8.495   2.775 -1.4134 -1.3135 -1.5459
  257ccc     H2 7692   3.322   8.537   2.578 -0.4352 -0.6475  0.8486
  257ccc     C3 7693   3.430   8.631   2.743  0.4480 -0.0679  0.1437
  257ccc     C4 7694   3.493   8.585   2.878 -0.7649  0.5847 -0.0260
  257ccc     C5 7695   3.403   8.486   2.958 -0.1138  0.0331 -0.0119
  257ccc     H3 7696   3.588   8.538   2.850  1.0991  1.3091  4.2820
  257ccc     H4 7697   3.341   8.685   2.777  0.1534  0.2296 -1.0589
  257ccc     H5 7698   3.329   8.543   3.016 -2.7229 -2.0268 -1.0857
  257ccc     O1 7699   3.487   8.415   3.048  1.1137 -0.5254 -0.4556
  257ccc     O2 7700   3.510   8.702   2.954  0.7660 -0.6557  0.5615
  257ccc     O3 7701   3.527   8.710   2.672 -1.0248 -0.1892  0.5956
  257ccc     O4 7702   3.503   8.426   2.620 -0.2587  0.0102  0.4518
  257ccc     C6 7703   3.242   8.293   2.690  0.6462 -0.7867  0.3418
  257ccc     H6 7704   3.485   8.761   2.600  1.3513 -0.0984 -0.8579
  257ccc     H7 7705   3.556   8.479   2.558  1.1458  0.1491  1.7265
  257ccc     H8 7706   3.545   8.751   2.877  2.7422 -2.6399  0.0768
  257ccc     H9 7707   3.184   8.319   2.600  0.7120  2.4732  1.0909
  257ccc    H10 7708   3.175   8.243   2.762  0.7140 -2.1337 -0.5045
  257ccc     O5 7709   3.347   8.211   2.651  0.4208 -0.3203  0.2897
  257ccc    H11 7710   3.417   8.279   2.647  0.1016  0.0845  1.1737
  257ccc     O6 7711   3.355   8.389   2.863 -0.3133  0.1764 -0.5688
  258ccc     C1 7712   4.136   6.759   5.123  0.0078 -0.4501 -0.0915
  258ccc     C2 7713   4.258   6.835   5.067  0.6680  0.0430  0.1639
  258ccc     H1 7714   4.162   6.690   5.203  2.7781  2.3800  1.6903
  258ccc     H2 7715   4.291   6.904   5.145 -2.1127  2.8236 -0.8612
  258ccc     C3 7716   4.368   6.741   5.027  0.2067 -0.6260 -0.3041
  258ccc     C4 7717   4.315   6.637   4.922  0.3528  0.0414 -0.0173
  258ccc     C5 7718   4.172   6.580   4.949 -0.3207  0.3167 -0.3792
  258ccc     H3 7719   4.313   6.685   4.823 -0.0908  2.2840  1.0021
  258ccc     H4 7720   4.380   6.684   5.120 -1.7068  0.9243  0.9943
  258ccc     H5 7721   4.182   6.497   5.020 -2.8828 -0.0421 -0.3567
  258ccc     O1 7722   4.128   6.536   4.822  0.0025 -0.5236 -0.1167
  258ccc     O2 7723   4.407   6.523   4.904  0.1842  0.1908  0.4710
  258ccc     O3 7724   4.492   6.804   4.980  0.1565 -0.4677 -0.1135
  258ccc     O4 7725   4.218   6.923   4.961  0.0192 -0.4856  0.4084
  258ccc     C6 7726   4.024   6.851   5.173  0.3026 -0.4720 -0.8156
  258ccc     H6 7727   4.470   6.854   4.899  1.1488 -0.1869 -0.2189
  258ccc     H7 7728   4.146   6.873   4.920  0.5085 -1.1503  0.3599
  258ccc     H8 7729   4.391   6.507   4.810 -0.4440  1.2469  0.3802
  258ccc     H9 7730   3.969   6.887   5.086 -0.2932  0.4110 -0.0880
  258ccc    H10 7731   4.066   6.936   5.228 -2.4542 -0.1757  1.0171
  258ccc     O5 7732   3.934   6.764   5.252 -0.6302  0.1863 -0.4520
  258ccc    H11 7733   3.860   6.828   5.258 -0.0255  0.8243  0.4873
  258ccc     O6 7734   4.090   6.689   5.009 -0.4550  0.0041  0.0702
  259ccc     C1 7735   4.161   6.716   3.860 -0.2446  0.3904 -0.3481
  259ccc     C2 7736   4.167   6.873   3.869 -0.4567  1.0268 -0.2910
  259ccc     H1 7737   4.114   6.689   3.765  0.6440  1.0229 -0.9836
  259ccc     H2 7738   4.237   6.911   3.793 -0.6633 -0.1631 -1.1042
  259ccc     C3 7739   4.019   6.935   3.852 -0.0975 -0.7345  0.1185
  259ccc     C4 7740   3.940   6.876   3.973  0.6155  0.5477 -0.3139
  259ccc     C5 7741   3.950   6.718   3.980 -0.4225  0.6897 -0.4016
  259ccc     H3 7742   3.984   6.912   4.067  0.1092 -1.0839  0.5844
  259ccc     H4 7743   3.974   6.889   3.763 -0.4255  2.3395 -1.4354
  259ccc     H5 7744   3.891   6.668   3.902 -0.9044  0.8255 -0.1290
  259ccc     O1 7745   3.900   6.676   4.110  0.0773  0.0488  0.2066
  259ccc     O2 7746   3.803   6.913   3.958  0.2153 -0.2259  0.1884
  259ccc     O3 7747   4.019   7.079   3.847  0.2298  0.3583  0.4338
  259ccc     O4 7748   4.224   6.901   4.004 -0.2267  0.4704 -0.2346
  259ccc     C6 7749   4.296   6.649   3.856  0.5217  0.1213  0.1717
  259ccc     H6 7750   3.923   7.096   3.846 -0.1738 -1.6127  0.7926
  259ccc     H7 7751   4.268   6.988   4.007  2.7090 -0.8869  2.0961
  259ccc     H8 7752   3.799   6.989   4.020  1.5147  0.2949 -0.3323
  259ccc     H9 7753   4.334   6.639   3.959 -0.6811  0.2437  0.6463
  259ccc    H10 7754   4.365   6.715   3.802  0.6388 -2.4685 -3.1223
  259ccc     O5 7755   4.270   6.525   3.794 -0.6777 -0.0753 -0.4639
  259ccc    H11 7756   4.273   6.557   3.702  0.3076 -1.5178 -0.9674
  259ccc     O6 7757   4.089   6.673   3.975 -0.0513  0.3800  0.5732
  260ccc     C1 7758   2.950   7.407   5.098  0.4314  0.4386 -0.3221
  260ccc     C2 7759   3.031   7.491   5.203  0.1224  0.9521  1.0309
  260ccc     H1 7760   2.902   7.326   5.155 -1.1814  0.9761 -0.8880
  260ccc     H2 7761   2.961   7.526   5.280 -0.2040  0.8366  0.7915
  260ccc     C3 7762   3.124   7.392   5.280 -0.0684 -0.2571 -0.2666
  260ccc     C4 7763   3.220   7.326   5.176  0.0025  0.2810  0.5269
  260ccc     C5 7764   3.140   7.256   5.065  0.2615  0.0817 -0.1382
  260ccc     H3 7765   3.287   7.395   5.125  1.2421 -2.1915 -1.3683
  260ccc     H4 7766   3.071   7.308   5.326  0.9553 -0.3736  0.7499
  260ccc     H5 7767   3.087   7.169   5.104  2.1691 -0.9462  0.2948
  260ccc     O1 7768   3.241   7.215   4.962 -0.1917 -0.2691  0.0994
  260ccc     O2 7769   3.296   7.227   5.254  0.1918  0.7131 -0.2057
  260ccc     O3 7770   3.190   7.464   5.382  0.3008  0.3475 -0.2978
  260ccc     O4 7771   3.089   7.600   5.142 -0.3611 -0.3742 -0.3193
  260ccc     C6 7772   2.831   7.474   5.024  0.0933 -0.5210 -0.2919
  260ccc     H6 7773   3.204   7.396   5.451 -0.3896 -1.5638 -1.9230
  260ccc     H7 7774   3.029   7.609   5.066  0.3368 -1.2114 -0.9954
  260ccc     H8 7775   3.239   7.166   5.305 -0.7869  1.2953 -0.5769
  260ccc     H9 7776   2.758   7.502   5.101 -0.1165 -0.8780 -0.3601
  260ccc    H10 7777   2.777   7.410   4.953 -0.4439  0.0470 -0.4029
  260ccc     O5 7778   2.898   7.588   4.966  0.1007  0.5916 -0.3440
  260ccc    H11 7779   2.834   7.627   4.905 -0.8426 -0.3546  0.0064
  260ccc     O6 7780   3.046   7.347   5.007 -0.1608  0.7196  0.0124
  261ccc     C1 7781   3.469   7.633   4.030 -0.1254 -0.3872  1.0576
  261ccc     C2 7782   3.397   7.523   3.949  0.1336 -0.5841 -0.3504
  261ccc     H1 7783   3.570   7.636   3.989 -1.6104 -1.6459 -3.2044
  261ccc     H2 7784   3.409   7.538   3.841 -0.6955  0.8042 -0.2741
  261ccc     C3 7785   3.449   7.378   3.984 -0.3037 -0.3104 -0.5093
  261ccc     C4 7786   3.479   7.356   4.137  0.5531  0.9201 -0.7534
  261ccc     C5 7787   3.532   7.484   4.210 -0.3983  0.4511  0.9312
  261ccc     H3 7788   3.385   7.337   4.189  0.5095 -2.4678 -1.8481
  261ccc     H4 7789   3.544   7.381   3.931 -0.6592  0.8443 -1.1232
  261ccc     H5 7790   3.640   7.497   4.194 -0.5240  1.5619  0.8822
  261ccc     O1 7791   3.514   7.467   4.350 -0.1112  0.0087 -0.8605
  261ccc     O2 7792   3.574   7.242   4.152  0.4774 -0.3036  0.0293
  261ccc     O3 7793   3.347   7.278   3.933 -0.2385  0.2538 -0.2896
  261ccc     O4 7794   3.261   7.540   3.982  0.2653 -0.0680 -0.5462
  261ccc     C6 7795   3.424   7.782   4.004 -0.0787  0.1171 -0.6009
  261ccc     H6 7796   3.262   7.310   3.966  0.2915  0.0870  1.3377
  261ccc     H7 7797   3.265   7.638   3.988  2.3086 -0.1028 -0.5079
  261ccc     H8 7798   3.541   7.177   4.088  2.4951 -1.6047  0.2337
  261ccc     H9 7799   3.466   7.801   3.904 -0.6953 -0.1247 -0.9177
  261ccc    H10 7800   3.471   7.853   4.073  0.7291 -0.7055 -0.2965
  261ccc     O5 7801   3.281   7.797   4.008  0.1347 -0.3600 -0.3722
  261ccc    H11 7802   3.278   7.887   3.971  3.2516  0.2485  0.4770
  261ccc     O6 7803   3.469   7.607   4.168 -0.3288 -0.1719 -0.3116
  262ccc     C1 7804   6.497   8.951   5.088  0.5530 -0.2856 -0.2117
  262ccc     C2 7805   6.652   8.932   5.067  0.1204  0.4224  0.1089
  262ccc     H1 7806   6.470   8.935   5.193 -1.2481  0.2442 -0.5505
  262ccc     H2 7807   6.703   8.999   5.137 -1.1677 -0.4430  1.9673
  262ccc     C3 7808   6.693   8.790   5.110 -0.3468  0.7171 -0.3803
  262ccc     C4 7809   6.594   8.682   5.056 -0.1874 -0.3070 -0.6050
  262ccc     C5 7810   6.447   8.719   5.076  0.2688 -0.2372 -0.2613
  262ccc     H3 7811   6.604   8.676   4.947 -0.1443 -1.0028 -0.5704
  262ccc     H4 7812   6.680   8.790   5.219 -0.7402  1.5870 -0.4153
  262ccc     H5 7813   6.426   8.729   5.184  0.6945 -1.1022 -0.0899
  262ccc     O1 7814   6.358   8.631   5.002  0.4395 -0.6032  0.0024
  262ccc     O2 7815   6.627   8.552   5.116  0.0023  0.5233  0.0683
  262ccc     O3 7816   6.836   8.761   5.087  0.5222  0.3610  0.1668
  262ccc     O4 7817   6.681   8.958   4.931  0.0019 -0.2480 -0.2778
  262ccc     C6 7818   6.439   9.084   5.029  0.0739  0.2005  0.2288
  262ccc     H6 7819   6.885   8.796   5.164  0.6783  0.0566  0.2085
  262ccc     H7 7820   6.731   8.881   4.900  0.6873  0.8593 -2.0461
  262ccc     H8 7821   6.723   8.545   5.108 -0.0012  2.0015 -2.7362
  262ccc     H9 7822   6.462   9.101   4.923  1.6052  1.8450  0.7655
  262ccc    H10 7823   6.502   9.162   5.075 -1.1916  0.9986  0.6503
  262ccc     O5 7824   6.310   9.109   5.069  0.0440  0.2059 -0.4676
  262ccc    H11 7825   6.332   9.145   5.157 -0.2797  1.9878 -1.0921
  262ccc     O6 7826   6.427   8.849   5.020 -0.0902 -0.2701 -0.8091
  263ccc     C1 7827   6.612   8.763   4.017  0.5118 -0.9032 -0.0939
  263ccc     C2 7828   6.522   8.877   3.966  0.0539 -0.2701 -0.6827
  263ccc     H1 7829   6.584   8.679   3.953  2.3719 -1.0264 -0.7934
  263ccc     H2 7830   6.550   8.895   3.862  2.3063  0.5465 -0.0077
  263ccc     C3 7831   6.369   8.846   3.987  0.4336  0.0512 -0.1693
  263ccc     C4 7832   6.338   8.816   4.132  0.3334 -0.0672 -0.0845
  263ccc     C5 7833   6.431   8.706   4.182  0.0243 -0.8852  0.1071
  263ccc     H3 7834   6.354   8.907   4.191  0.4597  0.2281 -0.5676
  263ccc     H4 7835   6.353   8.751   3.935  0.7034 -0.8351  1.3061
  263ccc     H5 7836   6.406   8.609   4.137 -0.5835 -0.0326 -1.4813
  263ccc     O1 7837   6.418   8.690   4.322  0.5730  0.2338 -0.6289
  263ccc     O2 7838   6.198   8.772   4.129 -0.2538  0.2974  0.1771
  263ccc     O3 7839   6.274   8.942   3.931 -0.9343 -0.5481  0.5984
  263ccc     O4 7840   6.568   8.988   4.041 -0.6587  0.6341  0.4544
  263ccc     C6 7841   6.760   8.782   4.000  0.0124 -0.1677 -0.2279
  263ccc     H6 7842   6.294   8.955   3.837  2.4634 -0.9470  1.1067
  263ccc     H7 7843   6.569   9.052   3.968  2.0259  0.7618  0.5270
  263ccc     H8 7844   6.155   8.859   4.134 -0.4656  0.3235 -1.6265
  263ccc     H9 7845   6.790   8.864   4.066  2.2136 -1.4501  0.4698
  263ccc    H10 7846   6.784   8.810   3.896  1.6316 -0.0441  0.1436
  263ccc     O5 7847   6.827   8.664   4.042 -0.2227  0.3368  0.2101
  263ccc    H11 7848   6.920   8.693   4.045 -0.7091  2.1530 -0.8784
  263ccc     O6 7849   6.566   8.730   4.151 -0.2965  0.0324  0.2946
  264ccc     C1 7850   5.484   8.958   4.744  0.3425 -0.0050  0.6409
  264ccc     C2 7851   5.607   8.879   4.787  0.0733 -0.2900  0.5401
  264ccc     H1 7852   5.399   8.889   4.750 -2.1348  2.9222  1.9197
  264ccc     H2 7853   5.589   8.846   4.890 -2.4146 -1.8735 -0.3101
  264ccc     C3 7854   5.644   8.767   4.689 -1.1000  0.4468 -0.4709
  264ccc     C4 7855   5.653   8.825   4.548 -0.2988 -0.3777  0.0161
  264ccc     C5 7856   5.522   8.909   4.521  0.0370  0.5966  0.2389
  264ccc     H3 7857   5.739   8.893   4.553 -1.4128  1.0679  0.1748
  264ccc     H4 7858   5.556   8.701   4.692 -1.7032  1.2498  1.4176
  264ccc     H5 7859   5.434   8.844   4.520  1.1300 -0.9357 -1.3918
  264ccc     O1 7860   5.535   8.972   4.392 -0.4921 -0.3481  0.1256
  264ccc     O2 7861   5.680   8.721   4.459  0.0927 -0.1301  0.4834
  264ccc     O3 7862   5.765   8.683   4.730  0.1625 -0.7932  0.3820
  264ccc     O4 7863   5.715   8.961   4.801  0.3920 -0.2608 -0.1782
  264ccc     C6 7864   5.458   9.066   4.850  0.1582  0.2587 -1.0280
  264ccc     H6 7865   5.842   8.742   4.719 -0.4861 -0.3807 -3.0356
  264ccc     H7 7866   5.696   9.030   4.735 -2.8837 -0.8392  0.0018
  264ccc     H8 7867   5.777   8.712   4.458  0.1779  0.1661 -2.3801
  264ccc     H9 7868   5.549   9.126   4.860  1.5306 -1.6896 -1.0805
  264ccc    H10 7869   5.431   9.028   4.949  0.0073  1.2390 -0.6924
  264ccc     O5 7870   5.355   9.149   4.802 -0.1522  0.0485  0.2231
  264ccc    H11 7871   5.287   9.096   4.759 -1.1693 -0.1687  2.0089
  264ccc     O6 7872   5.515   9.013   4.618  0.2093  0.0303 -0.1857
  265ccc     C1 7873   6.222   9.359   4.068 -0.5281  0.2097 -0.3956
  265ccc     C2 7874   6.251   9.414   4.212 -0.3243 -0.6857  0.1187
  265ccc     H1 7875   6.217   9.447   4.003 -2.9004  1.4132  1.2623
  265ccc     H2 7876   6.337   9.483   4.211 -1.9469  1.4442  0.5359
  265ccc     C3 7877   6.128   9.496   4.269 -0.1857  0.3568  0.2807
  265ccc     C4 7878   5.996   9.421   4.248 -0.6200 -0.1853 -0.4646
  265ccc     C5 7879   5.979   9.362   4.104  0.1962 -0.8205  0.1732
  265ccc     H3 7880   6.005   9.329   4.307  1.8528  0.5216  0.3849
  265ccc     H4 7881   6.119   9.595   4.223 -1.6125  0.5928  0.9892
  265ccc     H5 7882   5.970   9.453   4.044  3.7157 -0.5789 -0.1798
  265ccc     O1 7883   5.863   9.275   4.107  0.1459 -0.0762  0.1961
  265ccc     O2 7884   5.881   9.503   4.290  0.2201 -0.0943 -0.1093
  265ccc     O3 7885   6.158   9.524   4.409 -0.1195  0.4288  0.0967
  265ccc     O4 7886   6.278   9.297   4.286 -0.3148  0.4267  0.5834
  265ccc     C6 7887   6.329   9.257   4.008 -0.2909  0.1519 -0.0431
  265ccc     H6 7888   6.155   9.436   4.451 -2.0261  0.2911 -0.2265
  265ccc     H7 7889   6.308   9.231   4.221  1.3144  2.0550 -0.3968
  265ccc     H8 7890   5.892   9.526   4.384  0.4320 -2.4869  0.5081
  265ccc     H9 7891   6.426   9.306   4.020 -0.2751 -0.0725  0.8716
  265ccc    H10 7892   6.314   9.232   3.903  0.3289  1.8085 -0.5545
  265ccc     O5 7893   6.325   9.133   4.091  0.5316  0.2308  0.5108
  265ccc    H11 7894   6.307   9.057   4.033 -1.8555  0.1665  1.2610
  265ccc     O6 7895   6.101   9.293   4.059  0.8431  0.1805  0.3142
  266ccc     C1 7896   4.323   6.133   4.450  0.7948  0.3393 -0.3114
  266ccc     C2 7897   4.284   6.271   4.503 -0.1503 -0.0633 -0.5273
  266ccc     H1 7898   4.310   6.052   4.522  0.0096 -2.1275 -3.0136
  266ccc     H2 7899   4.182   6.268   4.545 -0.1231 -1.7729 -0.5319
  266ccc     C3 7900   4.387   6.318   4.607  0.0084 -0.1029 -0.3032
  266ccc     C4 7901   4.534   6.312   4.557 -0.5134  0.0581 -0.1662
  266ccc     C5 7902   4.551   6.165   4.512  0.0415 -0.0787 -0.1033
  266ccc     H3 7903   4.539   6.378   4.469 -2.1277  1.3519  0.6581
  266ccc     H4 7904   4.381   6.249   4.693  1.1629  0.5128  0.2986
  266ccc     H5 7905   4.551   6.098   4.599 -0.8811  0.9237  0.6909
  266ccc     O1 7906   4.685   6.155   4.459  0.0360  0.1382  0.1022
  266ccc     O2 7907   4.624   6.356   4.660 -0.2400 -0.6638 -0.1487
  266ccc     O3 7908   4.357   6.454   4.652 -0.4304 -0.4645 -0.1811
  266ccc     O4 7909   4.286   6.363   4.395 -0.3337  0.7196  0.2726
  266ccc     C6 7910   4.234   6.091   4.334  0.1007 -0.1637 -0.2055
  266ccc     H6 7911   4.345   6.504   4.570 -1.9795 -1.0105 -0.3332
  266ccc     H7 7912   4.305   6.301   4.323  1.3806 -0.8966  2.0069
  266ccc     H8 7913   4.601   6.450   4.664 -0.5882 -0.7790  0.7837
  266ccc     H9 7914   4.132   6.102   4.373  0.5449 -0.7866  1.2243
  266ccc    H10 7915   4.251   5.984   4.318  0.5879  0.1462 -1.9709
  266ccc     O5 7916   4.258   6.159   4.215  0.5218  0.3360 -0.1085
  266ccc    H11 7917   4.343   6.123   4.184  0.9178  0.1435  1.1640
  266ccc     O6 7918   4.458   6.125   4.417 -0.3268  0.1593 -0.4618
  267ccc     C1 7919   5.286   5.734   4.265 -0.0560 -0.2365 -0.5382
  267ccc     C2 7920   5.333   5.880   4.267  0.4430 -0.0154 -0.1111
  267ccc     H1 7921   5.374   5.675   4.239  2.1679  2.5048  0.3748
  267ccc     H2 7922   5.405   5.902   4.348 -0.4990 -0.9823  1.0427
  267ccc     C3 7923   5.385   5.925   4.126  0.1808 -0.8978  0.5329
  267ccc     C4 7924   5.275   5.908   4.018 -0.4522  0.3697 -0.0346
  267ccc     C5 7925   5.204   5.772   4.026  0.3159  0.0625 -0.4339
  267ccc     H3 7926   5.197   5.981   4.045 -3.1121 -1.8420 -1.1800
  267ccc     H4 7927   5.477   5.875   4.096  0.2283  0.5144 -1.9583
  267ccc     H5 7928   5.258   5.691   3.975  1.8586  2.0254 -2.0403
  267ccc     O1 7929   5.080   5.787   3.944 -0.2917  0.3034 -0.0733
  267ccc     O2 7930   5.316   5.943   3.884 -0.6013 -0.2424  0.5010
  267ccc     O3 7931   5.416   6.069   4.107  0.2703  0.3349 -0.1640
  267ccc     O4 7932   5.218   5.961   4.289  0.3602 -0.0406  0.1176
  267ccc     C6 7933   5.225   5.693   4.400 -0.3408 -0.0657 -0.5715
  267ccc     H6 7934   5.496   6.078   4.163 -0.7606 -1.2077  1.6652
  267ccc     H7 7935   5.207   5.989   4.382 -0.7822 -1.6885  0.5151
  267ccc     H8 7936   5.240   5.985   3.840  0.0492  0.9482  0.4874
  267ccc     H9 7937   5.132   5.748   4.418  0.3289  0.5290  1.2775
  267ccc    H10 7938   5.282   5.722   4.489  1.5995 -0.7639 -1.5411
  267ccc     O5 7939   5.196   5.551   4.387 -0.4600  0.4044  0.2118
  267ccc    H11 7940   5.122   5.545   4.325 -1.6903 -0.5691  1.6989
  267ccc     O6 7941   5.178   5.731   4.167  0.0093 -0.4777 -0.2639
  268ccc     C1 7942   5.966   6.822   2.869 -0.9675  0.0078  0.7054
  268ccc     C2 7943   5.849   6.880   2.786 -0.0711  0.4739  0.3511
  268ccc     H1 7944   6.027   6.786   2.785 -3.3164  0.1167 -1.1435
  268ccc     H2 7945   5.883   6.962   2.721  0.7410  3.0098  3.6983
  268ccc     C3 7946   5.770   6.765   2.716  0.6346 -0.6673 -0.4438
  268ccc     C4 7947   5.723   6.657   2.813 -0.2123  0.7556 -0.3905
  268ccc     C5 7948   5.842   6.600   2.899  0.1171 -0.2295  0.5146
  268ccc     H3 7949   5.658   6.709   2.885 -0.5746 -0.2018 -0.0049
  268ccc     H4 7950   5.846   6.714   2.657  1.1275  0.4282 -0.7649
  268ccc     H5 7951   5.903   6.534   2.836  1.2428  1.3296 -0.1019
  268ccc     O1 7952   5.786   6.526   3.007 -0.3791 -0.3660  0.0012
  268ccc     O2 7953   5.666   6.543   2.742  0.0387 -0.6954  0.3030
  268ccc     O3 7954   5.657   6.804   2.640  0.5533  0.5540 -0.7587
  268ccc     O4 7955   5.756   6.952   2.857  0.0849  0.1897 -0.5760
  268ccc     C6 7956   6.037   6.923   2.956 -0.6650 -0.5958  0.0558
  268ccc     H6 7957   5.676   6.864   2.566 -4.7886  2.7837 -0.7669
  268ccc     H7 7958   5.759   7.040   2.817  3.2418  2.1194  3.2454
  268ccc     H8 7959   5.573   6.572   2.738  0.8079  1.8794 -1.8742
  268ccc     H9 7960   5.963   6.942   3.035 -0.3876  0.5604  0.0525
  268ccc    H10 7961   6.046   7.018   2.902 -1.5788 -0.2603  0.4736
  268ccc     O5 7962   6.163   6.881   3.010  0.3446  0.3685 -0.0940
  268ccc    H11 7963   6.195   6.832   2.933 -0.3082 -0.7288  0.2992
  268ccc     O6 7964   5.922   6.707   2.953  0.5635 -0.0391  0.4669
  269ccc     C1 7965   5.901   6.146   3.987 -0.5647 -0.3022  0.1229
  269ccc     C2 7966   5.765   6.083   3.938 -0.2686 -0.0836  0.0267
  269ccc     H1 7967   5.889   6.191   4.086  1.5390 -2.2422  1.3805
  269ccc     H2 7968   5.724   6.019   4.016 -0.2019 -0.0278  0.1083
  269ccc     C3 7969   5.665   6.197   3.914  0.0983  0.3257  0.6788
  269ccc     C4 7970   5.710   6.307   3.827 -0.3752 -0.3538  0.1449
  269ccc     C5 7971   5.852   6.357   3.870 -0.1485  0.1976  0.1414
  269ccc     H3 7972   5.722   6.269   3.724  1.3516  1.1510 -0.2665
  269ccc     H4 7973   5.639   6.242   4.011 -0.2176 -0.7297  1.0989
  269ccc     H5 7974   5.854   6.413   3.964  2.0359 -0.4033  0.5114
  269ccc     O1 7975   5.913   6.428   3.767  0.8077 -0.6407 -0.2028
  269ccc     O2 7976   5.623   6.420   3.826 -0.8724  0.2034  0.6792
  269ccc     O3 7977   5.536   6.148   3.876  0.2400 -0.0032 -0.1856
  269ccc     O4 7978   5.780   6.010   3.815 -0.1476 -0.2692 -0.4397
  269ccc     C6 7979   6.001   6.026   4.001  0.1830  0.4109  0.4525
  269ccc     H6 7980   5.489   6.102   3.948 -0.9391  0.3746 -0.6978
  269ccc     H7 7981   5.696   5.962   3.806 -1.0762  1.5506 -2.3565
  269ccc     H8 7982   5.549   6.395   3.768  0.2448 -1.3461 -0.1554
  269ccc     H9 7983   6.034   6.001   3.900  0.1275  0.4012  0.4370
  269ccc    H10 7984   5.948   5.949   4.058 -1.0945  0.1430 -1.0497
  269ccc     O5 7985   6.110   6.070   4.085  0.1406 -0.0641 -0.3210
  269ccc    H11 7986   6.054   6.076   4.165 -0.8317 -2.4969 -0.7266
  269ccc     O6 7987   5.936   6.239   3.883 -0.4993  0.1461 -0.4607
  270ccc     C1 7988   2.958   7.219   6.109 -0.7653  0.1401 -0.4116
  270ccc     C2 7989   3.016   7.296   6.229  0.1838 -0.1350  0.4830
  270ccc     H1 7990   2.899   7.139   6.157 -0.6388  1.5305  2.2263
  270ccc     H2 7991   2.935   7.328   6.296  0.3457 -0.7732  0.9861
  270ccc     C3 7992   3.118   7.213   6.306 -0.2622 -0.4079 -0.2707
  270ccc     C4 7993   3.224   7.139   6.209  0.1117  0.0504 -0.1073
  270ccc     C5 7994   3.156   7.077   6.086  0.2917  0.0032  0.1600
  270ccc     H3 7995   3.295   7.213   6.170  0.6983  0.5091  1.6880
  270ccc     H4 7996   3.066   7.142   6.370 -0.7400  0.3641  0.2028
  270ccc     H5 7997   3.095   6.993   6.122  0.9873 -0.8287 -0.5593
  270ccc     O1 7998   3.245   7.028   5.978 -0.9290  0.1913  0.1017
  270ccc     O2 7999   3.301   7.042   6.289 -0.4126 -0.0078 -0.5306
  270ccc     O3 8000   3.187   7.311   6.389 -0.0973  0.1621  0.2404
  270ccc     O4 8001   3.077   7.421   6.179 -0.2178  0.2209 -0.8349
  270ccc     C6 8002   2.848   7.303   6.035 -0.5953  0.5175  0.2706
  270ccc     H6 8003   3.224   7.264   6.467 -0.9562 -0.0047  0.5555
  270ccc     H7 8004   3.140   7.434   6.252 -1.5708  0.3234  0.3707
  270ccc     H8 8005   3.380   7.087   6.322  0.5272 -1.8872 -0.0489
  270ccc     H9 8006   2.773   7.335   6.108  0.9039  1.0909  1.5940
  270ccc    H10 8007   2.795   7.226   5.976 -1.6881  1.6479 -0.2628
  270ccc     O5 8008   2.921   7.401   5.965 -0.1974  0.5170  0.2131
  270ccc    H11 8009   2.964   7.442   6.043 -1.4781  1.2564  0.5489
  270ccc     O6 8010   3.060   7.171   6.022 -0.0066  0.3432 -0.4297
  271ccc     C1 8011   3.275   6.027   5.994 -0.3769 -0.2735  0.6555
  271ccc     C2 8012   3.315   6.052   6.142 -0.2028  0.6280 -0.1789
  271ccc     H1 8013   3.322   5.934   5.961  1.2655  1.4839 -2.4279
  271ccc     H2 8014   3.301   5.960   6.200 -1.4030  2.5983  2.8704
  271ccc     C3 8015   3.466   6.097   6.156  0.7385  0.6363 -0.1178
  271ccc     C4 8016   3.498   6.219   6.072 -0.8041 -0.3089 -0.0120
  271ccc     C5 8017   3.450   6.193   5.924  0.5863 -0.3134 -0.2174
  271ccc     H3 8018   3.449   6.312   6.101  0.5211  0.1522  0.8280
  271ccc     H4 8019   3.526   6.013   6.117  0.5830 -0.5471  2.0348
  271ccc     H5 8020   3.520   6.119   5.883 -0.8758 -1.9527  0.1582
  271ccc     O1 8021   3.466   6.314   5.837  0.4693  0.1133 -0.0878
  271ccc     O2 8022   3.639   6.234   6.056  0.8346  0.3355  0.4195
  271ccc     O3 8023   3.508   6.119   6.288 -0.2126 -0.3059 -0.1852
  271ccc     O4 8024   3.245   6.161   6.207 -0.3188 -0.2274 -0.3594
  271ccc     C6 8025   3.121   6.020   5.986  0.2534 -0.7231 -0.1815
  271ccc     H6 8026   3.519   6.032   6.329  0.0479 -1.7283 -3.0440
  271ccc     H7 8027   3.278   6.158   6.298  1.5136  2.4698 -0.8322
  271ccc     H8 8028   3.678   6.246   6.144  2.1901  1.5244 -0.3093
  271ccc     H9 8029   3.082   6.121   6.005  2.0194 -0.2331  1.1189
  271ccc    H10 8030   3.074   5.958   6.063 -1.7867  0.9102 -0.0163
  271ccc     O5 8031   3.093   5.967   5.857  0.5125 -0.0413 -0.0728
  271ccc    H11 8032   3.139   5.881   5.857 -1.6983 -1.3175 -0.0307
  271ccc     O6 8033   3.315   6.146   5.910 -0.2707  0.1806 -0.5263
  272ccc     C1 8034   3.656   8.062   5.538 -0.0489  0.4216  0.6641
  272ccc     C2 8035   3.704   7.911   5.525 -0.3011 -0.5528 -0.4387
  272ccc     H1 8036   3.721   8.108   5.613  1.7500  1.2896 -1.3197
  272ccc     H2 8037   3.807   7.905   5.490 -0.1628  1.5950 -0.5053
  272ccc     C3 8038   3.673   7.833   5.655 -0.3153  0.1996 -0.0401
  272ccc     C4 8039   3.531   7.843   5.708  1.1930  0.1396  0.3167
  272ccc     C5 8040   3.495   7.996   5.706 -0.2686 -0.2892 -0.1797
  272ccc     H3 8041   3.467   7.804   5.627  1.8091  1.5025 -0.8812
  272ccc     H4 8042   3.742   7.871   5.732 -0.2407  0.0721 -0.0442
  272ccc     H5 8043   3.551   8.033   5.794 -0.6320 -1.2184  0.4544
  272ccc     O1 8044   3.359   8.013   5.728  0.0403  0.1699  0.3995
  272ccc     O2 8045   3.518   7.785   5.846  0.1666  0.4160 -0.7031
  272ccc     O3 8046   3.705   7.691   5.637  0.2206  0.2471  0.0314
  272ccc     O4 8047   3.621   7.851   5.419 -0.3740  0.0947 -0.0986
  272ccc     C6 8048   3.667   8.149   5.407 -0.1648  0.1539  0.6237
  272ccc     H6 8049   3.781   7.674   5.696 -0.2933 -1.6192  0.2460
  272ccc     H7 8050   3.619   7.928   5.360  2.1643 -0.1583 -0.6582
  272ccc     H8 8051   3.438   7.732   5.835 -0.3994  1.4944 -2.0693
  272ccc     H9 8052   3.770   8.173   5.378 -0.3579 -1.2136 -1.4581
  272ccc    H10 8053   3.619   8.245   5.428  0.5695  0.4923  0.7886
  272ccc     O5 8054   3.613   8.075   5.298  0.4462  0.2468 -0.3410
  272ccc    H11 8055   3.642   8.131   5.224  2.3505 -2.1944 -1.5820
  272ccc     O6 8056   3.520   8.066   5.583 -0.4246 -0.6633 -0.5737
  273ccc     C1 8057   3.256   8.073   5.291  0.1028 -1.3054 -0.5761
  273ccc     C2 8058   3.275   7.972   5.174  0.3515 -0.0581  0.5031
  273ccc     H1 8059   3.360   8.087   5.323  0.1893 -0.2784 -1.2545
  273ccc     H2 8060   3.348   8.011   5.101 -1.1416 -0.7573 -1.4607
  273ccc     C3 8061   3.329   7.836   5.226 -0.2740  0.0661 -0.0166
  273ccc     C4 8062   3.251   7.795   5.352  0.5655  0.1924 -0.4118
  273ccc     C5 8063   3.229   7.901   5.463  0.0776 -0.2515  0.3648
  273ccc     H3 8064   3.151   7.772   5.314  0.2023  0.1370  0.5459
  273ccc     H4 8065   3.431   7.852   5.264  0.7880 -1.9571 -1.8118
  273ccc     H5 8066   3.333   7.917   5.494  0.8988 -1.0820 -1.7838
  273ccc     O1 8067   3.135   7.845   5.565  0.2048  0.0310 -0.4735
  273ccc     O2 8068   3.309   7.681   5.414  0.0878 -0.0482 -0.8383
  273ccc     O3 8069   3.330   7.735   5.131  0.2142  0.1495  0.6696
  273ccc     O4 8070   3.147   7.952   5.105 -0.1415 -0.2993 -0.2136
  273ccc     C6 8071   3.192   8.201   5.237  1.1407 -0.5739  0.4844
  273ccc     H6 8072   3.246   7.687   5.143  0.4649 -0.1827  1.1545
  273ccc     H7 8073   3.162   7.884   5.037  2.2766 -0.5454  0.4657
  273ccc     H8 8074   3.251   7.605   5.396 -1.5853  1.0106 -0.1649
  273ccc     H9 8075   3.088   8.175   5.214  0.2326 -0.3476  3.8131
  273ccc    H10 8076   3.250   8.240   5.152  0.6001 -0.3693  0.2091
  273ccc     O5 8077   3.175   8.293   5.347 -0.4031  0.0153 -0.0905
  273ccc    H11 8078   3.093   8.263   5.389 -0.3572 -0.5843 -0.4212
  273ccc     O6 8079   3.172   8.019   5.399  0.3276 -0.0858  0.0890
  274ccc     C1 8080   4.950   6.202   5.954  0.0500 -0.0361 -0.2950
  274ccc     C2 8081   4.806   6.256   5.918  0.3662 -0.3527  0.3818
  274ccc     H1 8082   4.983   6.259   6.042 -0.4730  1.2244 -0.8937
  274ccc     H2 8083   4.731   6.242   5.997  1.5423 -0.0031  1.5803
  274ccc     C3 8084   4.811   6.413   5.892 -0.0752  0.0948  0.0127
  274ccc     C4 8085   4.918   6.439   5.777  0.4582 -0.6806 -0.1248
  274ccc     C5 8086   5.056   6.379   5.822 -0.0472  0.4029  0.4863
  274ccc     H3 8087   4.885   6.386   5.687 -0.2412 -1.9744  0.8602
  274ccc     H4 8088   4.845   6.458   5.986  0.1645  0.5829 -0.3018
  274ccc     H5 8089   5.102   6.443   5.898  0.2741 -0.3190  0.8961
  274ccc     O1 8090   5.151   6.401   5.712  0.7280  0.3297  0.2395
  274ccc     O2 8091   4.924   6.584   5.754 -0.5622 -0.0693 -0.4796
  274ccc     O3 8092   4.682   6.466   5.857  0.3655  0.1755  0.1373
  274ccc     O4 8093   4.771   6.174   5.797 -0.2184 -0.4355  0.6846
  274ccc     C6 8094   4.965   6.053   5.993 -0.6340  0.3154  0.1711
  274ccc     H6 8095   4.664   6.436   5.767  3.3637 -0.4050 -0.3883
  274ccc     H7 8096   4.841   6.108   5.815 -0.0451 -0.9427 -1.6006
  274ccc     H8 8097   4.871   6.597   5.673 -3.0267  1.7619  1.3001
  274ccc     H9 8098   4.915   6.048   6.090  0.4332  1.0683  0.7771
  274ccc    H10 8099   5.067   6.020   6.015 -0.7513 -1.3517 -1.4561
  274ccc     O5 8100   4.927   5.978   5.877 -0.1523 -0.1602  0.0725
  274ccc    H11 8101   4.952   5.887   5.900  2.2486  0.3439 -0.3021
  274ccc     O6 8102   5.055   6.238   5.855  0.0235  0.1821  0.0085
  275ccc     C1 8103   4.885   6.519   4.903  0.2753 -0.5341 -0.4508
  275ccc     C2 8104   4.735   6.560   4.950  0.6724  0.1459 -0.2977
  275ccc     H1 8105   4.888   6.411   4.885  0.3626 -0.7863  0.9649
  275ccc     H2 8106   4.668   6.532   4.868  2.6149 -1.9842 -1.2819
  275ccc     C3 8107   4.703   6.472   5.073  0.1627 -0.4720  0.3792
  275ccc     C4 8108   4.801   6.515   5.185 -0.3250 -0.0789 -0.6865
  275ccc     C5 8109   4.953   6.503   5.142  0.3892 -0.0178  0.0580
  275ccc     H3 8110   4.794   6.623   5.206  1.5357 -0.1085  0.3517
  275ccc     H4 8111   4.719   6.370   5.037 -2.9900 -0.6377 -0.8089
  275ccc     H5 8112   4.976   6.396   5.139 -1.0145 -0.3195 -0.9916
  275ccc     O1 8113   5.036   6.582   5.228  0.5370  0.3102  0.3800
  275ccc     O2 8114   4.785   6.419   5.294 -0.7452  0.0542 -0.5570
  275ccc     O3 8115   4.563   6.478   5.105  0.4730  0.0989 -0.0304
  275ccc     O4 8116   4.733   6.701   4.985 -0.1518 -0.4943 -0.4626
  275ccc     C6 8117   4.928   6.592   4.774 -0.1609  0.6611  0.0854
  275ccc     H6 8118   4.511   6.476   5.023  1.1419  1.6662 -0.5172
  275ccc     H7 8119   4.639   6.725   4.990  0.2918  1.3621 -0.4273
  275ccc     H8 8120   4.695   6.382   5.289 -0.5038 -0.6258 -0.1131
  275ccc     H9 8121   4.863   6.564   4.690 -0.9099  1.5089  0.3711
  275ccc    H10 8122   5.032   6.571   4.749 -1.3305 -1.4131 -3.9814
  275ccc     O5 8123   4.911   6.729   4.800  0.6879 -0.0702  0.1049
  275ccc    H11 8124   4.850   6.731   4.875 -0.2749  2.3582 -0.6547
  275ccc     O6 8125   4.979   6.558   5.010  0.4186 -0.4270  0.3569
  276ccc     C1 8126   3.612   6.664   6.348  0.6905  0.2157 -0.4496
  276ccc     C2 8127   3.562   6.553   6.438 -0.0236  0.1011 -0.6002
  276ccc     H1 8128   3.540   6.679   6.268 -1.3883 -0.9312  1.1093
  276ccc     H2 8129   3.453   6.557   6.450 -0.0718 -1.8875  0.0242
  276ccc     C3 8130   3.592   6.413   6.378 -0.4793  0.3036  0.3092
  276ccc     C4 8131   3.739   6.399   6.332 -0.0800  0.6168  0.5753
  276ccc     C5 8132   3.768   6.511   6.239 -0.1280  0.1110  0.2317
  276ccc     H3 8133   3.809   6.401   6.417 -1.5145  2.0867  1.7923
  276ccc     H4 8134   3.532   6.401   6.287  0.0419  0.6367 -0.0867
  276ccc     H5 8135   3.702   6.500   6.153 -1.0135  1.4659  0.7082
  276ccc     O1 8136   3.905   6.494   6.189  0.5694 -0.0951 -0.0576
  276ccc     O2 8137   3.748   6.270   6.275  0.3590 -0.1116 -0.6802
  276ccc     O3 8138   3.547   6.308   6.465 -0.0811 -0.0878 -0.9312
  276ccc     O4 8139   3.621   6.566   6.563 -0.1310  0.2985  0.2753
  276ccc     C6 8140   3.601   6.809   6.421  0.3874  0.7695 -0.3647
  276ccc     H6 8141   3.514   6.237   6.407 -0.2964 -0.0274 -0.8829
  276ccc     H7 8142   3.609   6.480   6.609  1.7677 -1.1162 -1.6970
  276ccc     H8 8143   3.728   6.222   6.357  1.2494  2.1039  0.9287
  276ccc     H9 8144   3.661   6.798   6.512  0.9228 -1.9980 -0.9564
  276ccc    H10 8145   3.495   6.836   6.431  0.7928  3.6270 -2.3624
  276ccc     O5 8146   3.660   6.903   6.338  0.4995 -0.0718  0.1661
  276ccc    H11 8147   3.754   6.915   6.358  0.7711  1.3207 -1.7064
  276ccc     O6 8148   3.749   6.633   6.310  0.0424 -0.1862  0.3135
  277ccc     C1 8149   4.494   6.119   5.413  0.3827  0.3164 -0.5153
  277ccc     C2 8150   4.473   6.223   5.300 -0.0040 -0.3017 -0.5141
  277ccc     H1 8151   4.422   6.041   5.385  1.1502 -0.8722  0.7304
  277ccc     H2 8152   4.505   6.176   5.206  1.0596 -1.6979  0.4981
  277ccc     C3 8153   4.325   6.262   5.308 -0.1912 -0.0281 -0.1182
  277ccc     C4 8154   4.269   6.307   5.445  0.3016 -0.6874 -0.2177
  277ccc     C5 8155   4.325   6.225   5.562 -0.2759  0.2295  0.4738
  277ccc     H3 8156   4.297   6.412   5.461 -0.9114 -0.3721 -0.0745
  277ccc     H4 8157   4.265   6.170   5.298  0.2439 -0.4996  1.3042
  277ccc     H5 8158   4.274   6.128   5.557  2.4734 -1.2545 -2.2710
  277ccc     O1 8159   4.318   6.285   5.697  0.6874  0.6459 -0.1595
  277ccc     O2 8160   4.120   6.294   5.439  0.3085  0.4789  0.2970
  277ccc     O3 8161   4.294   6.364   5.212  0.2629 -0.0267 -0.1554
  277ccc     O4 8162   4.550   6.343   5.326 -0.2315  0.0029 -0.0047
  277ccc     C6 8163   4.634   6.071   5.407 -0.2197  0.2752 -0.7842
  277ccc     H6 8164   4.272   6.313   5.132  0.1325  0.4518 -0.4272
  277ccc     H7 8165   4.521   6.388   5.245 -1.0053  1.4752  1.0478
  277ccc     H8 8166   4.098   6.365   5.375 -1.3535  0.0733  0.3738
  277ccc     H9 8167   4.714   6.146   5.406  2.6587 -2.4990  0.7873
  277ccc    H10 8168   4.642   6.009   5.317  0.9872 -1.7286  0.6116
  277ccc     O5 8169   4.663   5.978   5.518  0.3073 -0.1207 -0.2017
  277ccc    H11 8170   4.618   6.028   5.588  0.6418  0.4531 -0.3854
  277ccc     O6 8171   4.464   6.186   5.546  0.4461  0.2391 -0.2394
  278ccc     C1 8172   4.642   6.988   7.631  0.0442 -0.1058  1.1302
  278ccc     C2 8173   4.705   7.080   7.741 -0.8539 -0.3852  0.1551
  278ccc     H1 8174   4.673   6.885   7.655  0.6997  0.1744  1.4972
  278ccc     H2 8175   4.691   7.051   7.846 -2.9593 -1.5046 -0.3705
  278ccc     C3 8176   4.858   7.095   7.719  0.0227 -0.4750 -0.1208
  278ccc     C4 8177   4.917   7.110   7.572  0.3379  0.2009 -0.1422
  278ccc     C5 8178   4.836   7.017   7.473 -0.8203  0.4128  0.0644
  278ccc     H3 8179   4.901   7.214   7.544 -0.0067  0.7301  1.8489
  278ccc     H4 8180   4.888   6.997   7.758 -1.3268 -1.7188 -1.9827
  278ccc     H5 8181   4.875   6.915   7.483 -0.4020  0.7113  1.7790
  278ccc     O1 8182   4.857   7.069   7.333 -0.2705 -0.3758  0.5713
  278ccc     O2 8183   5.055   7.066   7.570 -0.6425  0.1388  0.6643
  278ccc     O3 8184   4.907   7.207   7.804  0.4502  0.2510  0.4876
  278ccc     O4 8185   4.651   7.213   7.712  1.1527  0.3791 -0.1631
  278ccc     C6 8186   4.495   6.989   7.639 -0.2296 -0.3798  0.1307
  278ccc     H6 8187   4.938   7.161   7.883  1.9323  1.2408  0.5269
  278ccc     H7 8188   4.574   7.185   7.658 -1.1306 -0.5631  3.2435
  278ccc     H8 8189   5.120   7.138   7.575  0.4351 -0.1557 -4.0341
  278ccc     H9 8190   4.456   6.980   7.741 -0.3173  1.3053  0.2762
  278ccc    H10 8191   4.456   6.904   7.580 -0.3908  0.7249 -1.4296
  278ccc     O5 8192   4.440   7.106   7.579  0.7880 -0.1613 -0.2090
  278ccc    H11 8193   4.359   7.077   7.533  0.8441 -0.0896 -0.3541
  278ccc     O6 8194   4.689   7.020   7.496  0.1555  0.4265 -0.7499
  279ccc     C1 8195   5.482   7.312   7.051  1.1153  0.7835  0.3791
  279ccc     C2 8196   5.497   7.265   7.200 -0.7927  0.3426 -0.3815
  279ccc     H1 8197   5.558   7.391   7.044  1.3177  0.7319  1.6879
  279ccc     H2 8198   5.602   7.233   7.209 -0.9313 -0.6807 -1.9711
  279ccc     C3 8199   5.474   7.387   7.300  0.7441  0.1748  0.1295
  279ccc     C4 8200   5.350   7.473   7.255  0.7290 -0.0608 -0.3931
  279ccc     C5 8201   5.334   7.494   7.102 -0.3029 -0.2649 -0.0284
  279ccc     H3 8202   5.259   7.415   7.276  0.2026  0.5164 -1.0338
  279ccc     H4 8203   5.568   7.444   7.296  0.7311  0.1933  0.0886
  279ccc     H5 8204   5.407   7.568   7.067 -2.3103  2.4783  1.2876
  279ccc     O1 8205   5.202   7.531   7.069  0.1077  0.1542 -0.4071
  279ccc     O2 8206   5.359   7.600   7.321 -0.3134  0.1407 -0.2778
  279ccc     O3 8207   5.451   7.330   7.430  0.1732 -0.4104  0.0821
  279ccc     O4 8208   5.395   7.161   7.220 -0.0843  0.2703  0.6185
  279ccc     C6 8209   5.504   7.202   6.942 -0.4349 -0.8079  0.0435
  279ccc     H6 8210   5.533   7.284   7.456 -0.2294 -2.2025 -1.6307
  279ccc     H7 8211   5.415   7.130   7.310 -0.1578  0.3506  0.6618
  279ccc     H8 8212   5.285   7.662   7.308 -0.6489  0.1845  1.5264
  279ccc     H9 8213   5.610   7.172   6.947  0.1331  1.0604  0.2456
  279ccc    H10 8214   5.486   7.237   6.840  0.3634 -1.4231 -0.3162
  279ccc     O5 8215   5.416   7.100   6.975  0.0842  0.1992  0.2029
  279ccc    H11 8216   5.404   7.115   7.070  0.1338  0.9485  0.1001
  279ccc     O6 8217   5.355   7.372   7.028  0.0421  0.0871  0.2724
  280ccc     C1 8218   3.348   8.935   7.492  0.7505 -0.1108  0.6030
  280ccc     C2 8219   3.285   8.977   7.357  0.4256 -0.0857  0.8573
  280ccc     H1 8220   3.383   9.024   7.546 -0.0147 -1.0588  2.7748
  280ccc     H2 8221   3.210   9.056   7.366  0.6943  0.2270  0.3772
  280ccc     C3 8222   3.401   9.033   7.267  0.5108  0.9159  0.0341
  280ccc     C4 8223   3.520   8.928   7.249  0.0143 -0.1845 -0.0538
  280ccc     C5 8224   3.563   8.870   7.385  0.2544  0.4844 -0.3881
  280ccc     H3 8225   3.481   8.850   7.184  1.3669 -0.2972 -0.7743
  280ccc     H4 8226   3.454   9.114   7.318  2.2532  1.0160 -1.8167
  280ccc     H5 8227   3.624   8.944   7.439  2.5176 -0.6521 -1.2247
  280ccc     O1 8228   3.643   8.752   7.364 -0.9987 -0.0288  0.6180
  280ccc     O2 8229   3.621   8.996   7.182 -0.1333 -0.2606  0.6979
  280ccc     O3 8230   3.364   9.070   7.130  0.0481  0.3951 -0.5798
  280ccc     O4 8231   3.234   8.858   7.295 -0.1467 -0.5320 -0.8746
  280ccc     C6 8232   3.252   8.869   7.592  0.6299  1.0784 -0.2645
  280ccc     H6 8233   3.275   9.035   7.114 -0.3113  1.1560 -0.2663
  280ccc     H7 8234   3.212   8.816   7.380  0.2356  0.9436  0.0012
  280ccc     H8 8235   3.591   9.077   7.139  0.3273 -1.5453 -2.2945
  280ccc     H9 8236   3.186   8.951   7.623 -1.6219 -0.7307  0.0660
  280ccc    H10 8237   3.311   8.834   7.678  0.4019  1.0029 -0.1381
  280ccc     O5 8238   3.182   8.755   7.532  0.4800  0.3660  0.3101
  280ccc    H11 8239   3.090   8.758   7.563  0.2373  0.1483 -0.3736
  280ccc     O6 8240   3.451   8.835   7.475  0.0154 -0.1185  0.0822
  281ccc     C1 8241   4.113   9.128   7.245  0.3534 -0.2866  0.6360
  281ccc     C2 8242   4.208   9.229   7.316  0.3670  0.1552 -0.5853
  281ccc     H1 8243   4.036   9.118   7.323  1.8890  0.0363  2.2625
  281ccc     H2 8244   4.152   9.314   7.357  0.5468 -0.2286  0.4969
  281ccc     C3 8245   4.277   9.162   7.436  0.3976  0.5765 -0.5596
  281ccc     C4 8246   4.331   9.017   7.412 -0.0442 -0.5146  0.5071
  281ccc     C5 8247   4.233   8.932   7.328  0.0647 -0.6132 -0.7363
  281ccc     H3 8248   4.424   9.034   7.356 -1.2834  0.4141 -1.3826
  281ccc     H4 8249   4.196   9.151   7.509  0.8198 -0.0129 -0.1664
  281ccc     H5 8250   4.153   8.896   7.394  1.4105 -1.3333  0.5657
  281ccc     O1 8251   4.309   8.816   7.279 -0.1585 -0.0144 -0.0770
  281ccc     O2 8252   4.355   8.948   7.536 -0.0307  0.4293  0.1067
  281ccc     O3 8253   4.380   9.244   7.506  0.9929  0.3215 -0.1362
  281ccc     O4 8254   4.302   9.270   7.226  0.1379  0.5067 -0.0506
  281ccc     C6 8255   4.062   9.186   7.107  0.4270  0.1342  0.5131
  281ccc     H6 8256   4.323   9.286   7.574 -0.3120 -1.7652  0.1788
  281ccc     H7 8257   4.351   9.333   7.281 -2.4631  1.7320  1.0387
  281ccc     H8 8258   4.450   8.968   7.547  0.7216 -1.8549 -1.3751
  281ccc     H9 8259   4.144   9.183   7.034  0.6457  2.4887  0.5869
  281ccc    H10 8260   4.031   9.291   7.117 -1.8568 -0.5912  1.7691
  281ccc     O5 8261   3.951   9.112   7.060  0.0206 -0.4938  0.1902
  281ccc    H11 8262   3.885   9.184   7.052 -0.2439 -0.6378  0.9792
  281ccc     O6 8263   4.179   9.007   7.217  0.3197  0.3338 -0.0853
  282ccc     C1 8264   3.062   8.906   6.705  0.0124  0.6221  0.4744
  282ccc     C2 8265   3.095   9.007   6.820 -0.1573  0.1664 -0.8233
  282ccc     H1 8266   2.961   8.865   6.706  0.0264  0.5932  1.1137
  282ccc     H2 8267   3.020   9.087   6.817 -0.1351  0.1648 -2.5259
  282ccc     C3 8268   3.077   8.937   6.956  0.9636  0.4002  0.2975
  282ccc     C4 8269   3.162   8.806   6.959 -0.7229  0.6418 -0.5261
  282ccc     C5 8270   3.152   8.714   6.831 -0.5550 -0.5975  0.5070
  282ccc     H3 8271   3.267   8.837   6.962 -1.0226  1.6187  1.3336
  282ccc     H4 8272   2.971   8.909   6.960  1.3942 -1.2262  1.1981
  282ccc     H5 8273   3.056   8.661   6.840 -0.6735 -0.1515  2.2896
  282ccc     O1 8274   3.264   8.628   6.836 -0.5413 -0.5677  0.6248
  282ccc     O2 8275   3.153   8.728   7.082  0.3734 -0.8586 -0.2939
  282ccc     O3 8276   3.110   9.023   7.069  0.1013 -0.0657  0.1199
  282ccc     O4 8277   3.227   9.060   6.800  0.4561  0.6694 -0.5298
  282ccc     C6 8278   3.082   8.973   6.568  0.6995  0.8502  0.5277
  282ccc     H6 8279   3.025   9.065   7.091  1.1406  0.9429  2.5512
  282ccc     H7 8280   3.215   9.142   6.851 -1.2092 -0.7372  1.5183
  282ccc     H8 8281   3.169   8.792   7.154  0.7147  0.4873 -1.5052
  282ccc     H9 8282   3.191   8.982   6.556  0.6825  0.1064 -0.2907
  282ccc    H10 8283   3.043   9.076   6.559  0.5760  0.7430 -0.2798
  282ccc     O5 8284   3.020   8.891   6.471 -0.0393  0.7210 -0.2396
  282ccc    H11 8285   2.924   8.896   6.489  0.0758  3.4346  0.0103
  282ccc     O6 8286   3.157   8.797   6.713 -0.2467  0.3281 -0.0224
  283ccc     C1 8287   3.556   7.589   6.485 -0.0929  0.2201  0.3090
  283ccc     C2 8288   3.615   7.477   6.572  0.2561 -0.3064  0.3122
  283ccc     H1 8289   3.630   7.633   6.416 -0.4347  1.1845  0.5364
  283ccc     H2 8290   3.661   7.399   6.511  1.1468  1.2949 -1.1657
  283ccc     C3 8291   3.727   7.537   6.665  0.5216  0.8563  0.2320
  283ccc     C4 8292   3.669   7.651   6.742 -0.0734  0.7663 -0.0917
  283ccc     C5 8293   3.615   7.759   6.651 -0.4169 -0.0918  0.6760
  283ccc     H3 8294   3.592   7.619   6.814 -1.5608  3.3263 -0.3913
  283ccc     H4 8295   3.818   7.570   6.614 -0.2336  0.6666 -1.3001
  283ccc     H5 8296   3.691   7.815   6.595  0.2644 -1.3375  0.3284
  283ccc     O1 8297   3.557   7.853   6.748 -0.4307  0.1191  0.0476
  283ccc     O2 8298   3.781   7.703   6.819  0.1195 -0.4110  0.3705
  283ccc     O3 8299   3.768   7.433   6.755  0.1681 -0.6622  0.0087
  283ccc     O4 8300   3.508   7.426   6.651  0.2327 -0.1141  0.3541
  283ccc     C6 8301   3.436   7.533   6.406  0.0514 -0.1340  0.4137
  283ccc     H6 8302   3.858   7.463   6.777 -0.3281  1.6535 -0.8736
  283ccc     H7 8303   3.554   7.381   6.725  1.6832  1.8859  0.7664
  283ccc     H8 8304   3.731   7.764   6.875 -4.0618 -2.1153 -1.1473
  283ccc     H9 8305   3.344   7.531   6.465 -0.4788  1.0145 -0.3360
  283ccc    H10 8306   3.461   7.433   6.370 -3.2803 -1.2916  1.0097
  283ccc     O5 8307   3.402   7.611   6.298  0.2625 -0.1762  0.2778
  283ccc    H11 8308   3.326   7.653   6.342  0.1632 -0.3492  0.2708
  283ccc     O6 8309   3.507   7.699   6.573 -0.0754  0.4647  0.0921
  284ccc     C1 8310   4.233   9.554   6.846  0.4388 -0.3793  0.6656
  284ccc     C2 8311   4.177   9.701   6.830  0.0542  0.1981 -0.0358
  284ccc     H1 8312   4.328   9.541   6.793  1.7869 -0.4511  2.9638
  284ccc     H2 8313   4.260   9.772   6.837  0.9115 -0.6942 -0.7848
  284ccc     C3 8314   4.130   9.716   6.678  0.2284  0.4649  0.2104
  284ccc     C4 8315   4.029   9.604   6.629  0.1982  0.6070  0.0042
  284ccc     C5 8316   4.086   9.463   6.669 -0.3345 -0.0521  0.3413
  284ccc     H3 8317   3.931   9.615   6.675  0.1024  0.4378 -0.1554
  284ccc     H4 8318   4.218   9.703   6.615 -0.3138  1.2431 -0.7378
  284ccc     H5 8319   4.171   9.433   6.607  1.8846  2.0924  2.1788
  284ccc     O1 8320   3.977   9.363   6.658 -0.2805 -0.1080  0.1614
  284ccc     O2 8321   4.020   9.619   6.482  0.1403 -0.1409 -0.8735
  284ccc     O3 8322   4.074   9.851   6.649 -0.0657  0.4564  1.3325
  284ccc     O4 8323   4.074   9.714   6.928 -0.3382 -0.1840  0.2928
  284ccc     C6 8324   4.268   9.524   6.993 -0.1128 -0.0725 -0.6541
  284ccc     H6 8325   4.150   9.908   6.626 -0.0887 -0.3398 -0.9398
  284ccc     H7 8326   4.031   9.800   6.914 -2.1391 -1.0393  0.2812
  284ccc     H8 8327   4.016   9.714   6.462 -0.1877 -0.2661 -1.4079
  284ccc     H9 8328   4.181   9.521   7.060 -0.3708  0.0718 -0.9839
  284ccc    H10 8329   4.335   9.603   7.029 -0.9132  0.5003 -0.3789
  284ccc     O5 8330   4.338   9.398   7.002  0.2519 -0.4378  0.1750
  284ccc    H11 8331   4.307   9.357   7.085 -1.8205  2.9250  1.3100
  284ccc     O6 8332   4.134   9.462   6.806  0.5987 -0.2563 -0.2427
  285ccc     C1 8333   3.310   9.109   6.227  0.1446 -0.1630 -0.1033
  285ccc     C2 8334   3.423   9.044   6.148 -0.5960  0.0789 -0.0066
  285ccc     H1 8335   3.279   9.207   6.186  4.2625  1.2849 -0.2276
  285ccc     H2 8336   3.392   9.016   6.046  1.6157 -1.6835 -0.2949
  285ccc     C3 8337   3.546   9.148   6.147  0.1672  0.4673  0.2985
  285ccc     C4 8338   3.591   9.182   6.295  0.0170  0.3534 -0.0952
  285ccc     C5 8339   3.471   9.218   6.384  0.0361  0.2877  0.4013
  285ccc     H3 8340   3.640   9.095   6.340 -2.6214 -1.1415  0.0637
  285ccc     H4 8341   3.501   9.242   6.113 -3.0414 -1.1338 -0.3458
  285ccc     H5 8342   3.443   9.320   6.353  1.0488  0.6074  0.4925
  285ccc     O1 8343   3.510   9.217   6.526  0.0240 -0.4910  0.2635
  285ccc     O2 8344   3.683   9.294   6.296  0.2233  0.2995 -0.4715
  285ccc     O3 8345   3.646   9.102   6.056 -0.2796  0.1810 -0.2092
  285ccc     O4 8346   3.460   8.931   6.217 -0.0340 -0.2760  0.3164
  285ccc     C6 8347   3.185   9.011   6.233 -0.2795 -0.4834 -0.3207
  285ccc     H6 8348   3.700   9.181   6.037  0.2014 -0.6998 -2.9583
  285ccc     H7 8349   3.380   8.913   6.269  0.8058  0.8374  2.0991
  285ccc     H8 8350   3.731   9.289   6.212  0.3983 -3.0644 -0.2825
  285ccc     H9 8351   3.146   8.993   6.132 -0.8949 -0.8919 -0.0184
  285ccc    H10 8352   3.106   9.066   6.285 -0.7636 -0.9906 -0.5114
  285ccc     O5 8353   3.211   8.884   6.296 -0.6306 -0.3356 -0.3609
  285ccc    H11 8354   3.143   8.891   6.365 -1.7075  1.6308 -1.5365
  285ccc     O6 8355   3.355   9.131   6.365 -0.1637  0.2121 -0.3974
  286ccc     C1 8356   8.550   5.562   4.114 -0.0340  0.2792 -0.1245
  286ccc     C2 8357   8.700   5.538   4.139  0.0131  0.4098 -0.4408
  286ccc     H1 8358   8.526   5.548   4.008  3.4555 -1.1394 -0.8311
  286ccc     H2 8359   8.740   5.442   4.105  1.3614  0.7120  0.2531
  286ccc     C3 8360   8.782   5.653   4.072 -0.5080  0.4889 -0.5729
  286ccc     C4 8361   8.728   5.793   4.111 -0.5544  0.5506 -0.0224
  286ccc     C5 8362   8.578   5.798   4.089  0.3873 -0.6363 -0.2571
  286ccc     H3 8363   8.746   5.791   4.219 -2.0825 -0.3219  0.2405
  286ccc     H4 8364   8.769   5.635   3.965 -1.4708  0.0761 -0.3912
  286ccc     H5 8365   8.562   5.784   3.982 -0.5645 -1.1021 -0.0719
  286ccc     O1 8366   8.529   5.928   4.139  0.6607 -0.0845 -0.5209
  286ccc     O2 8367   8.804   5.899   4.041 -0.2272 -0.1655  0.3237
  286ccc     O3 8368   8.921   5.650   4.120  0.4129  0.3704 -0.0683
  286ccc     O4 8369   8.723   5.548   4.276  0.0281  0.2755  0.0810
  286ccc     C6 8370   8.464   5.460   4.191  0.5792 -0.7774 -0.0022
  286ccc     H6 8371   8.973   5.618   4.045 -3.0390 -0.0824 -2.5561
  286ccc     H7 8372   8.820   5.556   4.284 -0.0596  1.0108  0.4544
  286ccc     H8 8373   8.808   5.973   4.104 -2.2233  0.9476 -0.7705
  286ccc     H9 8374   8.473   5.465   4.301  1.8884 -0.6695 -0.0947
  286ccc    H10 8375   8.481   5.360   4.150 -2.7786 -0.0774 -3.6620
  286ccc     O5 8376   8.325   5.502   4.159  0.0193  0.1459  0.4770
  286ccc    H11 8377   8.309   5.460   4.073 -0.9179 -2.5391  1.8495
  286ccc     O6 8378   8.508   5.694   4.162 -0.1383  0.1546  0.1139
  287ccc     C1 8379   8.593   6.890   3.962  0.1072 -0.4812  0.0708
  287ccc     C2 8380   8.750   6.879   3.952 -0.0278  0.0596 -0.5317
  287ccc     H1 8381   8.565   6.984   4.010  2.1399 -0.7804  2.0183
  287ccc     H2 8382   8.795   6.956   3.888 -0.3757  1.1585  0.5100
  287ccc     C3 8383   8.817   6.890   4.094 -0.0443  0.0337  0.0066
  287ccc     C4 8384   8.756   6.780   4.182 -0.4105 -0.4165  0.2026
  287ccc     C5 8385   8.600   6.785   4.179  0.7979  0.1054  0.0908
  287ccc     H3 8386   8.797   6.683   4.152  3.3542  0.6594  1.2972
  287ccc     H4 8387   8.792   6.986   4.141  2.2151  0.9117 -0.4829
  287ccc     H5 8388   8.561   6.874   4.231  0.1734  0.5226 -1.0514
  287ccc     O1 8389   8.551   6.663   4.252  0.3564 -0.4100 -0.6062
  287ccc     O2 8390   8.809   6.804   4.319  0.0073 -0.0903 -0.1468
  287ccc     O3 8391   8.958   6.892   4.087  0.0070 -0.2840 -0.2570
  287ccc     O4 8392   8.781   6.746   3.900  0.1032  0.4954  0.0118
  287ccc     C6 8393   8.541   6.872   3.819  0.1349  0.0140  0.5339
  287ccc     H6 8394   8.984   6.984   4.067 -1.5538 -0.1404 -1.8041
  287ccc     H7 8395   8.872   6.759   3.867  0.6023 -0.1757  1.0470
  287ccc     H8 8396   8.895   6.758   4.322  0.9906  1.7397  1.8590
  287ccc     H9 8397   8.542   6.763   3.805 -2.1235 -0.2982  2.1292
  287ccc    H10 8398   8.606   6.921   3.746  0.7534 -2.5187 -0.7317
  287ccc     O5 8399   8.406   6.917   3.816 -0.0867 -0.1970 -0.2717
  287ccc    H11 8400   8.363   6.893   3.732 -2.2213  0.7793  0.4631
  287ccc     O6 8401   8.543   6.785   4.046 -0.0452 -0.2866  0.1560
  288ccc     C1 8402   9.276   6.411   4.079  0.2208  0.1081 -0.2129
  288ccc     C2 8403   9.272   6.560   4.057 -0.7876 -0.2144 -0.0779
  288ccc     H1 8404   9.185   6.371   4.032  1.2481 -0.3981 -1.8614
  288ccc     H2 8405   9.263   6.583   3.950  0.5117  2.6583  0.3445
  288ccc     C3 8406   9.149   6.624   4.129  0.8035  1.0112  0.3382
  288ccc     C4 8407   9.147   6.586   4.280  0.1693 -0.2478 -0.2345
  288ccc     C5 8408   9.162   6.430   4.294  0.0067  0.2319 -0.2124
  288ccc     H3 8409   9.234   6.636   4.324 -0.2384  1.1290 -0.9359
  288ccc     H4 8410   9.058   6.592   4.077  1.2647 -0.9226  0.6416
  288ccc     H5 8411   9.076   6.380   4.250  1.3769 -1.0504 -1.5623
  288ccc     O1 8412   9.165   6.391   4.429 -0.2386  0.1906 -0.4756
  288ccc     O2 8413   9.025   6.639   4.338  0.0485  0.4233 -0.5364
  288ccc     O3 8414   9.168   6.766   4.137 -0.2654 -0.2096  0.0192
  288ccc     O4 8415   9.392   6.619   4.109  0.5049  0.3905 -0.8566
  288ccc     C6 8416   9.388   6.332   4.013 -0.5858 -0.2070  0.3251
  288ccc     H6 8417   9.085   6.816   4.140  0.4002  0.8871  0.5007
  288ccc     H7 8418   9.361   6.694   4.163 -1.6517 -0.8959 -0.1965
  288ccc     H8 8419   9.048   6.635   4.432 -1.3703  0.3809 -0.1683
  288ccc     H9 8420   9.383   6.346   3.905  0.4523 -2.0330 -0.0005
  288ccc    H10 8421   9.380   6.225   4.035  1.9978 -0.3988  0.5609
  288ccc     O5 8422   9.510   6.387   4.065  0.4809  0.0028 -0.1617
  288ccc    H11 8423   9.484   6.477   4.093  1.6274 -0.2935  2.0886
  288ccc     O6 8424   9.278   6.384   4.222 -0.1227  0.2438  0.3352
  289ccc     C1 8425   8.612   5.721   4.600 -0.9550 -0.0362 -0.0589
  289ccc     C2 8426   8.537   5.685   4.727 -0.1506  0.0177  0.5537
  289ccc     H1 8427   8.691   5.646   4.585  0.0094  1.2203 -1.5489
  289ccc     H2 8428   8.499   5.584   4.715  0.9378 -0.1936 -1.4867
  289ccc     C3 8429   8.631   5.679   4.850 -0.2773  0.0084  0.0251
  289ccc     C4 8430   8.723   5.807   4.856  0.3218 -0.2692 -0.2532
  289ccc     C5 8431   8.776   5.858   4.721 -0.6364 -0.1235 -0.1427
  289ccc     H3 8432   8.655   5.886   4.888 -0.8315 -0.4066 -2.1715
  289ccc     H4 8433   8.697   5.592   4.841  0.3781  0.5900 -0.9330
  289ccc     H5 8434   8.860   5.797   4.683  0.1695  0.6383  0.3793
  289ccc     O1 8435   8.824   5.992   4.727  0.0652  0.4971  0.1424
  289ccc     O2 8436   8.831   5.781   4.955 -0.3610 -0.1003  0.1426
  289ccc     O3 8437   8.558   5.656   4.974 -0.5917  0.1048  0.7070
  289ccc     O4 8438   8.429   5.784   4.743 -0.9960  0.8770  0.7666
  289ccc     C6 8439   8.527   5.718   4.469  0.2195 -0.2250  0.1193
  289ccc     H6 8440   8.558   5.559   4.988  4.2756 -0.0967  1.0852
  289ccc     H7 8441   8.412   5.800   4.649  0.3244  0.7720  0.4894
  289ccc     H8 8442   8.777   5.785   5.036  0.3541 -1.1101  0.6927
  289ccc     H9 8443   8.490   5.616   4.453  1.4896 -0.6935  0.0411
  289ccc    H10 8444   8.593   5.741   4.384  0.9504 -0.8656  0.4987
  289ccc     O5 8445   8.428   5.807   4.476  0.6343 -0.5032 -0.5181
  289ccc    H11 8446   8.365   5.774   4.410 -0.7754 -0.0577  0.5509
  289ccc     O6 8447   8.671   5.857   4.621  0.2987  0.3418  0.0584
  290ccc     C1 8448  10.346   7.300   5.162  0.3937 -0.5767  1.1232
  290ccc     C2 8449  10.415   7.243   5.035 -0.4852  0.8961 -0.8785
  290ccc     H1 8450  10.413   7.275   5.246  1.0813  1.9916  1.4106
  290ccc     H2 8451  10.520   7.276   5.031  0.7979 -2.5244  0.8423
  290ccc     C3 8452  10.420   7.086   5.024 -0.6526  0.1155  0.5930
  290ccc     C4 8453  10.280   7.027   5.049  0.8176  0.1118  0.3533
  290ccc     C5 8454  10.205   7.091   5.171 -0.0403 -0.5140 -0.5496
  290ccc     H3 8455  10.221   7.054   4.961 -0.1151  1.4099  1.3297
  290ccc     H4 8456  10.488   7.053   5.104 -1.1041  0.5677  1.1716
  290ccc     H5 8457  10.246   7.045   5.262  1.1531  0.2814 -0.6624
  290ccc     O1 8458  10.066   7.057   5.169 -0.3256 -0.7444 -0.0945
  290ccc     O2 8459  10.274   6.881   5.070 -0.0643 -0.2919 -0.4853
  290ccc     O3 8460  10.470   7.057   4.896  0.5621  0.4106  0.3472
  290ccc     O4 8461  10.347   7.296   4.928 -0.5684 -0.3917  0.6144
  290ccc     C6 8462  10.341   7.458   5.175 -0.2646 -0.2723  0.0186
  290ccc     H6 8463  10.542   6.991   4.898  1.5455  1.4031  2.7657
  290ccc     H7 8464  10.396   7.264   4.851 -0.6590 -1.2825  0.9086
  290ccc     H8 8465  10.319   6.836   4.996  0.9565 -2.1976  1.1998
  290ccc     H9 8466  10.442   7.495   5.154 -1.4585  1.8682 -2.6141
  290ccc    H10 8467  10.318   7.490   5.277 -1.3580 -2.3102  0.4749
  290ccc     O5 8468  10.246   7.487   5.073 -0.3604  0.0217  0.0047
  290ccc    H11 8469  10.271   7.410   5.020 -0.6476  0.3376 -0.5980
  290ccc     O6 8470  10.214   7.239   5.177  0.1514 -0.0868 -0.2571
  291ccc     C1 8471   9.276   7.027   4.538 -0.2159  0.3973  0.1780
  291ccc     C2 8472   9.161   6.928   4.529 -0.5393 -0.3634  0.1985
  291ccc     H1 8473   9.360   6.997   4.473 -0.7680 -0.5062 -0.1440
  291ccc     H2 8474   9.141   6.898   4.425 -2.2429  0.1950  0.3368
  291ccc     C3 8475   9.198   6.789   4.591 -0.6455 -0.6204 -1.0755
  291ccc     C4 8476   9.252   6.818   4.739 -0.2663 -0.5929  0.5581
  291ccc     C5 8477   9.352   6.935   4.751 -0.3046  0.6272  0.3821
  291ccc     H3 8478   9.171   6.842   4.809 -0.9766 -1.4170  0.0408
  291ccc     H4 8479   9.276   6.766   4.518  0.2504  0.6251 -0.5549
  291ccc     H5 8480   9.452   6.904   4.717 -0.8804  0.5012 -1.2751
  291ccc     O1 8481   9.369   6.967   4.883 -0.6692  0.0272  0.1892
  291ccc     O2 8482   9.314   6.695   4.786  0.3595  0.0670  0.2247
  291ccc     O3 8483   9.087   6.702   4.586 -0.1162  0.7203 -0.0851
  291ccc     O4 8484   9.048   6.982   4.601 -1.6301  0.1290  0.6886
  291ccc     C6 8485   9.258   7.165   4.479  0.3141 -0.2032 -0.3508
  291ccc     H6 8486   9.005   6.739   4.622 -1.1537 -1.6103  0.1578
  291ccc     H7 8487   8.995   7.025   4.531 -1.2201 -1.3512 -0.6020
  291ccc     H8 8488   9.305   6.680   4.882 -1.4887 -0.8204 -0.0313
  291ccc     H9 8489   9.198   7.243   4.528  0.1216  0.8956 -2.2435
  291ccc    H10 8490   9.221   7.148   4.377 -0.2186 -0.2185 -0.1610
  291ccc     O5 8491   9.385   7.225   4.449  0.0873 -0.1531  0.6267
  291ccc    H11 8492   9.450   7.212   4.521  0.0871  1.2478  0.9275
  291ccc     O6 8493   9.322   7.043   4.671 -0.0529  0.1292 -0.1645
  292ccc     C1 8494   9.970   7.849   5.718 -0.0531 -0.1191 -0.4473
  292ccc     C2 8495   9.950   7.980   5.792  0.7199 -0.6344 -0.0109
  292ccc     H1 8496  10.008   7.882   5.621 -0.4262 -1.4798 -1.0738
  292ccc     H2 8497  10.044   8.034   5.811  0.1328  0.9504 -1.3261
  292ccc     C3 8498   9.847   8.068   5.715 -0.1128  0.5089 -0.6704
  292ccc     C4 8499   9.718   7.996   5.676  0.2119 -0.1211 -0.2014
  292ccc     C5 8500   9.755   7.862   5.610 -0.5088 -0.8813  0.0500
  292ccc     H3 8501   9.656   7.966   5.762  2.0621  0.4052  1.4041
  292ccc     H4 8502   9.904   8.100   5.627  0.2697  0.9857 -0.2538
  292ccc     H5 8503   9.808   7.871   5.515 -0.6222 -5.1543 -0.6297
  292ccc     O1 8504   9.624   7.792   5.601 -0.0195 -0.3681  0.6495
  292ccc     O2 8505   9.643   8.081   5.589  0.2675  0.1874 -0.2957
  292ccc     O3 8506   9.820   8.189   5.790 -0.1852  0.5220 -0.2270
  292ccc     O4 8507   9.888   7.934   5.912 -0.1667  0.8194 -0.3261
  292ccc     C6 8508  10.063   7.748   5.786 -0.3408  0.3176 -0.2611
  292ccc     H6 8509   9.760   8.243   5.735 -0.6325 -0.3883 -0.6503
  292ccc     H7 8510   9.910   7.840   5.910 -1.0733  0.6047 -1.7878
  292ccc     H8 8511   9.696   8.158   5.563 -0.0499  0.7084  0.5566
  292ccc     H9 8512  10.142   7.803   5.840  0.8405  0.3593 -1.9713
  292ccc    H10 8513  10.111   7.682   5.713  1.1366  1.5262 -0.4310
  292ccc     O5 8514   9.981   7.680   5.883 -0.0287  0.2992 -0.2185
  292ccc    H11 8515  10.026   7.626   5.949  0.1197 -1.6873 -1.8343
  292ccc     O6 8516   9.841   7.782   5.695 -0.0966 -0.0225  0.3317
  293ccc     C1 8517   9.015   6.866   5.705 -0.4672 -0.3799  0.4705
  293ccc     C2 8518   8.931   6.817   5.590 -0.3554 -0.5863  0.0652
  293ccc     H1 8519   8.952   6.871   5.794  0.8966 -1.4670  1.5584
  293ccc     H2 8520   8.892   6.719   5.622  0.3568 -0.7957  0.3140
  293ccc     C3 8521   8.822   6.924   5.558 -0.2932 -0.6894 -0.1130
  293ccc     C4 8522   8.886   7.062   5.510  0.2817 -0.6341  0.0894
  293ccc     C5 8523   8.975   7.108   5.626  0.3748 -0.6236  0.4526
  293ccc     H3 8524   8.942   7.046   5.417  1.9075  1.0341  0.7207
  293ccc     H4 8525   8.781   6.965   5.651  0.0400 -1.2897  0.3032
  293ccc     H5 8526   8.910   7.138   5.709  0.0481 -1.6746  0.5957
  293ccc     O1 8527   9.047   7.232   5.573  0.3442  0.4382 -0.4164
  293ccc     O2 8528   8.776   7.148   5.485  0.0529  0.0163  0.6086
  293ccc     O3 8529   8.717   6.876   5.470 -0.5125  0.1872  0.0034
  293ccc     O4 8530   9.019   6.805   5.477  0.7079 -0.0711 -0.4503
  293ccc     C6 8531   9.122   6.762   5.750 -0.5718  0.1063  0.4182
  293ccc     H6 8532   8.676   6.807   5.524 -0.2910  0.1544  0.1323
  293ccc     H7 8533   9.099   6.783   5.528 -0.8508 -0.7738  1.8273
  293ccc     H8 8534   8.737   7.110   5.404 -0.4742  0.0340  0.8504
  293ccc     H9 8535   9.083   6.663   5.779 -1.1099  0.3962  0.6969
  293ccc    H10 8536   9.170   6.807   5.838  1.3943  3.4435 -2.1191
  293ccc     O5 8537   9.219   6.749   5.645  0.9009  0.3606 -0.1888
  293ccc    H11 8538   9.275   6.828   5.648  2.8587 -0.9866  1.2019
  293ccc     O6 8539   9.064   7.003   5.669  0.4852  0.3913 -0.2349
  294ccc     C1 8540   6.979   7.161   3.011 -0.2924  1.1221  1.1819
  294ccc     C2 8541   6.914   7.057   3.114 -0.7482 -0.3892  0.7219
  294ccc     H1 8542   7.086   7.145   2.999 -0.2609  0.9852  1.6156
  294ccc     H2 8543   6.927   6.952   3.083 -5.7027 -0.8512 -0.6507
  294ccc     C3 8544   6.978   7.068   3.252 -0.5376  0.4078 -0.2317
  294ccc     C4 8545   6.959   7.213   3.306 -0.5638  0.2802  0.3344
  294ccc     C5 8546   7.017   7.315   3.196 -0.2133 -0.2786  0.3378
  294ccc     H3 8547   6.853   7.237   3.303 -0.5258  0.5024  0.7786
  294ccc     H4 8548   7.085   7.057   3.230  0.0100  2.0842  1.3063
  294ccc     H5 8549   7.126   7.306   3.192 -0.2762 -0.7788 -0.2705
  294ccc     O1 8550   6.986   7.451   3.231 -0.2806  0.6151 -0.4876
  294ccc     O2 8551   7.021   7.237   3.429  0.1853 -0.1659  0.3425
  294ccc     O3 8552   6.932   6.961   3.337 -0.6714 -0.6395 -0.2971
  294ccc     O4 8553   6.778   7.097   3.114  0.1972 -0.3965  0.5059
  294ccc     C6 8554   6.930   7.146   2.863 -0.0480  0.2223 -0.6880
  294ccc     H6 8555   6.841   6.985   3.362 -0.5289 -2.2022  2.1006
  294ccc     H7 8556   6.765   7.106   3.018  0.6332 -1.0715  0.3740
  294ccc     H8 8557   6.945   7.220   3.488  0.0628 -2.2729 -0.3424
  294ccc     H9 8558   6.967   7.049   2.826  0.1302 -0.9271  2.1952
  294ccc    H10 8559   6.974   7.221   2.796 -0.8199  0.2182 -1.2151
  294ccc     O5 8560   6.790   7.148   2.857 -0.4486  0.0863  0.7488
  294ccc    H11 8561   6.773   7.116   2.767 -0.1576  1.1486  0.3099
  294ccc     O6 8562   6.965   7.294   3.062  0.0578  0.1349 -0.3113
  295ccc     C1 8563   6.549   7.488   3.193 -0.1051 -1.1725 -0.7354
  295ccc     C2 8564   6.474   7.545   3.074  0.5065 -0.1679 -0.0408
  295ccc     H1 8565   6.466   7.470   3.263  1.7503  0.8480  2.2107
  295ccc     H2 8566   6.388   7.485   3.045  0.5780  0.1618 -0.9828
  295ccc     C3 8567   6.409   7.686   3.095 -0.3732  0.1865 -1.0386
  295ccc     C4 8568   6.514   7.780   3.170 -0.1559 -0.0234  0.1723
  295ccc     C5 8569   6.575   7.707   3.289  0.2070 -0.7111  0.0876
  295ccc     H3 8570   6.599   7.801   3.104  0.0981 -2.2238 -0.2806
  295ccc     H4 8571   6.316   7.681   3.153  0.0937  0.8340 -0.1919
  295ccc     H5 8572   6.506   7.685   3.371  0.7694  1.2546  1.1507
  295ccc     O1 8573   6.681   7.790   3.341 -0.2705 -0.1809  0.0978
  295ccc     O2 8574   6.449   7.903   3.202  0.0470 -0.2182 -0.2040
  295ccc     O3 8575   6.384   7.745   2.968 -0.0857  0.0488 -0.1738
  295ccc     O4 8576   6.573   7.561   2.975 -0.1430  0.0552  0.6461
  295ccc     C6 8577   6.623   7.360   3.154 -0.0732  0.5886 -0.1402
  295ccc     H6 8578   6.330   7.825   2.978  0.2864  0.4323 -1.1640
  295ccc     H7 8579   6.539   7.635   2.921  1.3801  0.9942  0.9253
  295ccc     H8 8580   6.483   7.971   3.141 -1.5744 -0.1207 -1.0627
  295ccc     H9 8581   6.723   7.381   3.114  1.1823 -0.9653  1.9440
  295ccc    H10 8582   6.573   7.305   3.073  0.5339 -1.0452  0.5424
  295ccc     O5 8583   6.630   7.269   3.259 -0.2757 -0.2075  0.1700
  295ccc    H11 8584   6.675   7.190   3.223 -3.0129 -1.0492 -1.7900
  295ccc     O6 8585   6.632   7.589   3.242  0.2714 -0.0198 -0.2140
  296ccc     C1 8586   6.771   7.040   3.784  0.0481  0.2514 -0.0544
  296ccc     C2 8587   6.801   7.053   3.628 -0.8873  0.1668 -0.3933
  296ccc     H1 8588   6.753   6.932   3.791  0.3669  0.0976 -1.3249
  296ccc     H2 8589   6.884   6.985   3.607  0.2257  1.2753  0.2413
  296ccc     C3 8590   6.674   7.009   3.540 -0.3515  1.1038  0.6284
  296ccc     C4 8591   6.542   7.062   3.604  0.3459  0.5484  0.0115
  296ccc     C5 8592   6.526   7.040   3.755  0.0993  0.9550 -0.6336
  296ccc     H3 8593   6.564   7.166   3.576  2.6548 -0.1379 -1.0099
  296ccc     H4 8594   6.670   6.900   3.551 -0.2110  1.2306  2.2261
  296ccc     H5 8595   6.526   6.932   3.779  0.7468  0.3364 -3.1650
  296ccc     O1 8596   6.417   7.107   3.810  0.3251  0.8166 -0.3632
  296ccc     O2 8597   6.421   7.024   3.524  0.4859 -0.1587  0.1234
  296ccc     O3 8598   6.694   7.044   3.402 -0.0568  0.4487 -0.6515
  296ccc     O4 8599   6.833   7.190   3.602  0.3106 -0.0505 -0.4260
  296ccc     C6 8600   6.881   7.108   3.871 -0.1285 -0.0224  0.1280
  296ccc     H6 8601   6.614   7.038   3.347  1.5223 -1.1727 -2.9017
  296ccc     H7 8602   6.831   7.220   3.694 -2.4382  2.1001 -1.0404
  296ccc     H8 8603   6.398   7.107   3.478  1.1486  0.5912  1.1042
  296ccc     H9 8604   6.977   7.058   3.854 -0.5840 -0.8212 -0.1658
  296ccc    H10 8605   6.853   7.085   3.975 -0.5348  1.9993  0.5167
  296ccc     O5 8606   6.876   7.257   3.854  0.1188 -0.0507 -0.1882
  296ccc    H11 8607   6.892   7.282   3.946 -1.9074 -1.4218  0.6157
  296ccc     O6 8608   6.644   7.092   3.824  0.0966  0.2214  0.0495
  297ccc     C1 8609   6.299   7.534   4.799  0.0301  0.3359 -0.4051
  297ccc     C2 8610   6.242   7.399   4.839 -0.4183  0.0453 -0.1067
  297ccc     H1 8611   6.229   7.611   4.834 -1.4242 -1.7897  1.7266
  297ccc     H2 8612   6.218   7.404   4.946 -0.5704 -0.6433 -0.1008
  297ccc     C3 8613   6.112   7.388   4.755 -0.5366  0.4631 -1.2486
  297ccc     C4 8614   6.122   7.404   4.598 -0.2896 -0.2173 -0.4778
  297ccc     C5 8615   6.219   7.529   4.570  0.1648  0.4944 -0.0994
  297ccc     H3 8616   6.178   7.315   4.564  0.5542  0.1030  0.0496
  297ccc     H4 8617   6.057   7.473   4.797  1.0475 -0.7271  3.8960
  297ccc     H5 8618   6.162   7.623   4.572 -0.9800 -0.1831 -0.1420
  297ccc     O1 8619   6.262   7.496   4.433  0.4495 -0.1288 -0.3525
  297ccc     O2 8620   5.994   7.418   4.539  0.1942 -0.2898  0.1088
  297ccc     O3 8621   6.033   7.273   4.781  0.1625  0.1598  0.2629
  297ccc     O4 8622   6.340   7.298   4.799  0.1617 -0.1731 -0.3002
  297ccc     C6 8623   6.434   7.570   4.866  0.2826  0.1615  0.8552
  297ccc     H6 8624   5.992   7.286   4.868 -1.2772  4.4312 -0.8089
  297ccc     H7 8625   6.299   7.213   4.820 -1.3408 -0.1065 -2.5755
  297ccc     H8 8626   5.941   7.380   4.611 -1.1169 -0.3292 -0.8347
  297ccc     H9 8627   6.511   7.509   4.817 -0.8279 -1.7147  1.3658
  297ccc    H10 8628   6.422   7.557   4.974  0.7719  2.8269  1.2842
  297ccc     O5 8629   6.467   7.708   4.839  0.4763  0.1723  0.1825
  297ccc    H11 8630   6.552   7.710   4.792 -0.3935 -0.9810 -1.5312
  297ccc     O6 8631   6.331   7.544   4.662 -0.3523 -0.5245  0.3305
  298ccc     C1 8632   6.535   6.840   3.033 -0.0194  0.3093  0.0959
  298ccc     C2 8633   6.470   6.861   3.170 -0.1615  0.5850 -0.1623
  298ccc     H1 8634   6.504   6.742   2.994 -0.4046  0.3297  0.3473
  298ccc     H2 8635   6.361   6.860   3.154 -0.2025 -1.7837 -0.1032
  298ccc     C3 8636   6.505   6.744   3.265 -0.1888 -0.4439  0.4625
  298ccc     C4 8637   6.657   6.728   3.280 -0.6216  0.3541  0.1077
  298ccc     C5 8638   6.720   6.713   3.138 -0.2245  0.1467  0.3174
  298ccc     H3 8639   6.689   6.824   3.323  0.7153  0.7609 -1.6830
  298ccc     H4 8640   6.479   6.651   3.213  0.5053  0.4097 -1.5282
  298ccc     H5 8641   6.694   6.611   3.105  0.4737  0.2427 -0.5762
  298ccc     O1 8642   6.868   6.727   3.145  0.1922  0.5713 -0.5827
  298ccc     O2 8643   6.704   6.612   3.364  0.4227  0.0793  0.2745
  298ccc     O3 8644   6.435   6.758   3.389  0.0469  0.2983 -0.4535
  298ccc     O4 8645   6.517   6.988   3.220  0.3894  0.3163  0.1876
  298ccc     C6 8646   6.494   6.940   2.926  0.9832  0.0483 -0.2870
  298ccc     H6 8647   6.437   6.851   3.417  0.0385  0.4758 -1.0174
  298ccc     H7 8648   6.514   7.038   3.136  3.0521 -0.4241 -0.4543
  298ccc     H8 8649   6.653   6.537   3.327 -1.3884  1.9769 -1.3244
  298ccc     H9 8650   6.404   6.915   2.868 -0.4392  0.9319  1.4688
  298ccc    H10 8651   6.576   6.956   2.854  1.7129 -1.6351  0.1194
  298ccc     O5 8652   6.470   7.070   2.975 -0.8335  1.0626  0.0061
  298ccc    H11 8653   6.447   7.124   2.897 -1.7534  2.3114  1.1079
  298ccc     O6 8654   6.678   6.829   3.052  0.1210 -0.0219  0.0501
  299ccc     C1 8655   7.733   6.390   3.082 -0.2622 -0.0371 -0.1808
  299ccc     C2 8656   7.838   6.294   3.026 -1.2576 -0.2409 -0.6319
  299ccc     H1 8657   7.779   6.460   3.153  1.4303 -0.6812 -0.6070
  299ccc     H2 8658   7.927   6.352   3.002 -0.7124  0.1584  2.0640
  299ccc     C3 8659   7.886   6.200   3.140  0.8684  0.4155 -1.0092
  299ccc     C4 8660   7.774   6.157   3.241  0.3904 -0.5302  0.1415
  299ccc     C5 8661   7.676   6.273   3.282 -0.3202  0.0542  0.6665
  299ccc     H3 8662   7.716   6.084   3.183 -0.3037 -1.0235  1.4323
  299ccc     H4 8663   7.943   6.268   3.204  3.7724 -1.2802 -1.5919
  299ccc     H5 8664   7.729   6.358   3.327  0.3168 -0.4813  0.9578
  299ccc     O1 8665   7.571   6.219   3.365  0.1032 -0.2543  0.1608
  299ccc     O2 8666   7.847   6.099   3.346 -0.0646  0.0351 -0.5467
  299ccc     O3 8667   7.966   6.086   3.101 -0.0097  0.6717 -0.2350
  299ccc     O4 8668   7.784   6.214   2.915  0.0225 -0.4709  0.5190
  299ccc     C6 8669   7.657   6.462   2.968  0.0967  0.1110  0.0205
  299ccc     H6 8670   7.985   6.038   3.184  1.6753 -1.4295 -1.7203
  299ccc     H7 8671   7.853   6.153   2.883 -0.9939 -1.3978  0.0151
  299ccc     H8 8672   7.792   6.029   3.384 -1.0219  1.8670  1.6672
  299ccc     H9 8673   7.634   6.398   2.882 -0.6700  0.1655  0.1792
  299ccc    H10 8674   7.721   6.539   2.922  0.6328  0.5465  1.4347
  299ccc     O5 8675   7.545   6.540   3.025  0.4804  0.0259 -0.1990
  299ccc    H11 8676   7.473   6.475   3.027 -0.4160  1.0056  1.0697
  299ccc     O6 8677   7.636   6.318   3.154  0.2312  0.2274  0.1371
  300ccc     C1 8678   8.083   6.855   2.977 -0.3153  0.5598  0.1391
  300ccc     C2 8679   8.214   6.777   2.969 -0.2840  0.8430 -0.3861
  300ccc     H1 8680   8.063   6.890   2.875  2.3977  0.7876 -0.3780
  300ccc     H2 8681   8.204   6.705   2.887 -1.3762  0.4485  0.0756
  300ccc     C3 8682   8.336   6.873   2.934 -0.6514  0.7863 -0.2442
  300ccc     C4 8683   8.333   6.993   3.029 -0.6862  0.1245 -0.0225
  300ccc     C5 8684   8.198   7.056   3.048  0.6769  0.2110 -0.1871
  300ccc     H3 8685   8.358   6.960   3.131  2.1467 -1.0325 -1.0013
  300ccc     H4 8686   8.323   6.907   2.831 -0.0027 -0.7519 -0.8663
  300ccc     H5 8687   8.156   7.103   2.959 -1.2954 -0.2692  0.4133
  300ccc     O1 8688   8.198   7.166   3.151  0.5220 -0.2285 -0.3637
  300ccc     O2 8689   8.431   7.088   2.973  0.4184 -0.3469 -0.0723
  300ccc     O3 8690   8.459   6.798   2.955 -0.0080 -0.5273  0.1989
  300ccc     O4 8691   8.234   6.706   3.096  0.4212  0.0531 -0.2629
  300ccc     C6 8692   7.970   6.759   3.007  0.2119 -0.5058 -0.0171
  300ccc     H6 8693   8.533   6.861   2.964 -0.0219 -0.3302 -0.8901
  300ccc     H7 8694   8.329   6.686   3.095  0.8641  0.6255  4.3335
  300ccc     H8 8695   8.512   7.052   3.012  0.1286 -0.0170  0.8599
  300ccc     H9 8696   7.954   6.734   3.113 -1.6512  0.0422 -0.1436
  300ccc    H10 8697   7.974   6.665   2.950  1.4730  0.9810 -2.5371
  300ccc     O5 8698   7.853   6.821   2.960  0.2217 -0.1481 -0.1966
  300ccc    H11 8699   7.856   6.820   2.862 -2.5057 -0.7057 -0.3415
  300ccc     O6 8700   8.099   6.956   3.087 -0.2032 -0.1721  0.6715
  301ccc     C1 8701   8.496   7.322   4.153  0.8208 -0.3056 -0.2567
  301ccc     C2 8702   8.481   7.246   4.285  0.1727 -0.4568 -0.6924
  301ccc     H1 8703   8.491   7.428   4.183  1.3109 -0.3142 -0.1390
  301ccc     H2 8704   8.542   7.291   4.365 -0.8090  0.6066 -0.5105
  301ccc     C3 8705   8.336   7.249   4.328 -0.1771 -0.9435  0.0217
  301ccc     C4 8706   8.238   7.200   4.221  0.4378  0.5270 -0.2739
  301ccc     C5 8707   8.260   7.299   4.102  1.2521 -0.5005 -0.5819
  301ccc     H3 8708   8.252   7.096   4.190 -1.8095 -0.1876  0.8854
  301ccc     H4 8709   8.315   7.356   4.336 -1.2632 -1.1451 -0.0020
  301ccc     H5 8710   8.225   7.401   4.121  3.3492  0.5562 -1.9448
  301ccc     O1 8711   8.182   7.243   3.993 -0.1310  0.3206  0.2324
  301ccc     O2 8712   8.106   7.220   4.274 -0.2495 -0.1904 -0.7549
  301ccc     O3 8713   8.313   7.195   4.461  0.5102 -0.1100  0.6508
  301ccc     O4 8714   8.518   7.115   4.261 -0.8405 -0.2585 -0.3853
  301ccc     C6 8715   8.636   7.323   4.086  0.1854 -0.5564 -1.6137
  301ccc     H6 8716   8.220   7.217   4.480  0.3672  2.0378 -2.0251
  301ccc     H7 8717   8.566   7.130   4.178 -0.5895 -1.1738 -0.4158
  301ccc     H8 8718   8.056   7.149   4.229  0.3051  0.1066 -1.8838
  301ccc     H9 8719   8.708   7.378   4.148 -0.2229  0.1732 -1.7743
  301ccc    H10 8720   8.618   7.376   3.992 -0.2150 -0.7997 -1.6758
  301ccc     O5 8721   8.671   7.194   4.059 -0.1466  0.2212  0.3900
  301ccc    H11 8722   8.683   7.184   3.963 -0.4126 -0.5650  0.4363
  301ccc     O6 8723   8.395   7.297   4.059 -0.4312 -0.3203  0.3837
  302ccc     C1 8724   6.515   4.084   5.289 -0.5740 -0.1698  0.6781
  302ccc     C2 8725   6.559   3.997   5.409 -0.5604 -0.2830  0.1793
  302ccc     H1 8726   6.549   4.042   5.193 -0.6657 -0.2692  0.6891
  302ccc     H2 8727   6.526   3.896   5.383 -1.7512  0.1104  0.0819
  302ccc     C3 8728   6.714   3.986   5.401  0.1093 -0.4773 -0.1211
  302ccc     C4 8729   6.781   4.129   5.419  0.3914 -0.0973 -0.5210
  302ccc     C5 8730   6.712   4.224   5.310 -0.5424 -0.5974  0.9941
  302ccc     H3 8731   6.758   4.162   5.521  1.8367 -1.6849  0.3875
  302ccc     H4 8732   6.727   3.955   5.297 -1.9258 -0.9641 -0.2683
  302ccc     H5 8733   6.747   4.193   5.211 -1.6976  1.6388 -0.1935
  302ccc     O1 8734   6.756   4.362   5.336 -0.6083  0.1188  0.4885
  302ccc     O2 8735   6.923   4.108   5.388  0.2786  0.0434 -0.3062
  302ccc     O3 8736   6.772   3.884   5.489  0.6019 -0.5209 -0.1106
  302ccc     O4 8737   6.522   4.061   5.534 -0.1311 -0.2446  0.0629
  302ccc     C6 8738   6.361   4.104   5.281  0.0862  0.1276 -0.3996
  302ccc     H6 8739   6.743   3.792   5.475 -3.6229  0.6064 -0.3018
  302ccc     H7 8740   6.505   3.986   5.593 -1.6566  0.0015 -0.0115
  302ccc     H8 8741   6.944   4.020   5.422  1.7313 -0.2978 -1.9115
  302ccc     H9 8742   6.321   4.168   5.361  1.0510 -0.4572  0.5829
  302ccc    H10 8743   6.327   4.000   5.287  3.9959 -1.5324 -3.1106
  302ccc     O5 8744   6.333   4.156   5.147 -0.0649  0.6325 -0.1037
  302ccc    H11 8745   6.237   4.170   5.146  0.0141  1.2090  0.0511
  302ccc     O6 8746   6.571   4.214   5.308  0.2787  0.1516 -0.0444
  303ccc     C1 8747   7.091   4.638   6.006 -0.3254 -0.3057 -0.1557
  303ccc     C2 8748   7.193   4.749   6.056  0.4072 -0.4108 -0.2056
  303ccc     H1 8749   7.127   4.538   6.032  0.0876 -0.2361 -0.4414
  303ccc     H2 8750   7.219   4.723   6.159 -0.5435 -1.2459 -0.1609
  303ccc     C3 8751   7.329   4.742   5.986 -0.1203 -0.0625  0.3514
  303ccc     C4 8752   7.320   4.729   5.826  0.0090 -0.2857 -0.3217
  303ccc     C5 8753   7.215   4.621   5.801  0.0118 -0.1048  0.1800
  303ccc     H3 8754   7.288   4.825   5.785  0.8384  0.3507  0.4961
  303ccc     H4 8755   7.383   4.650   6.012  0.1196 -0.2643 -0.8315
  303ccc     H5 8756   7.256   4.523   5.829 -0.8484 -1.1965 -2.1542
  303ccc     O1 8757   7.197   4.617   5.659 -0.5114 -0.3253 -0.2131
  303ccc     O2 8758   7.446   4.694   5.772 -0.3120  0.1390  0.8039
  303ccc     O3 8759   7.404   4.856   6.029  0.0896  0.2468 -0.2392
  303ccc     O4 8760   7.141   4.885   6.045 -0.5322  0.6177 -0.1992
  303ccc     C6 8761   6.951   4.661   6.066  0.1546  0.0666  0.3893
  303ccc     H6 8762   7.498   4.834   6.023  0.6928  2.2472  0.7962
  303ccc     H7 8763   7.229   4.925   6.032 -0.1554  0.0648  0.6078
  303ccc     H8 8764   7.474   4.606   5.804  0.4239 -0.4513 -1.2843
  303ccc     H9 8765   6.901   4.749   6.022  0.0047 -0.7249 -1.0913
  303ccc    H10 8766   6.958   4.677   6.174  0.3493  0.3277  0.3400
  303ccc     O5 8767   6.869   4.552   6.036 -0.1748 -0.2599  0.2736
  303ccc    H11 8768   6.911   4.470   6.067  1.1956  0.4287  0.3167
  303ccc     O6 8769   7.092   4.653   5.860 -0.6268 -0.2070  0.1739
  304ccc     C1 8770   7.226   4.186   5.731 -0.9269  0.4951  0.2493
  304ccc     C2 8771   7.327   4.212   5.609  0.3174  0.2747 -0.0230
  304ccc     H1 8772   7.185   4.085   5.724 -0.4985  0.3396  0.0124
  304ccc     H2 8773   7.397   4.127   5.604  0.7422  0.6579 -0.8907
  304ccc     C3 8774   7.254   4.215   5.471 -0.0937  0.2728  0.4664
  304ccc     C4 8775   7.139   4.317   5.479 -0.4539 -0.6820 -0.0968
  304ccc     C5 8776   7.047   4.296   5.602  0.5492 -0.0781  0.6797
  304ccc     H3 8777   7.187   4.414   5.495 -2.2998  0.2297  0.1938
  304ccc     H4 8778   7.210   4.116   5.464 -0.6117  0.4695  0.8583
  304ccc     H5 8779   7.000   4.197   5.602  1.3891 -0.5915  4.1743
  304ccc     O1 8780   6.950   4.399   5.608  0.7594  0.5657 -0.6298
  304ccc     O2 8781   7.075   4.319   5.349 -0.0826  0.0333 -0.1668
  304ccc     O3 8782   7.352   4.236   5.367 -0.1172  0.0389 -0.3700
  304ccc     O4 8783   7.412   4.335   5.619  0.2800 -0.6687  0.8105
  304ccc     C6 8784   7.287   4.203   5.865  0.2126  0.4335 -0.1308
  304ccc     H6 8785   7.428   4.276   5.411 -0.2155 -0.2395  0.0519
  304ccc     H7 8786   7.396   4.346   5.715  0.0711 -3.0621  1.0986
  304ccc     H8 8787   7.015   4.243   5.342 -0.2100 -0.1479  2.0932
  304ccc     H9 8788   7.357   4.120   5.878  0.9755  1.0915 -0.0039
  304ccc    H10 8789   7.196   4.190   5.925  0.0568 -0.1014 -0.4741
  304ccc     O5 8790   7.342   4.333   5.892 -0.1451 -0.0911  0.0588
  304ccc    H11 8791   7.349   4.344   5.988  0.4201  2.4676 -0.2011
  304ccc     O6 8792   7.121   4.287   5.723 -0.8309  0.4130  0.4818
  305ccc     C1 8793   6.808   4.009   5.949 -0.6636 -0.4335  0.0616
  305ccc     C2 8794   6.737   3.943   5.827  0.3411  0.0936  0.1895
  305ccc     H1 8795   6.789   3.953   6.042  0.6824  2.5261  2.3062
  305ccc     H2 8796   6.773   3.840   5.811  0.5768  0.3496 -1.0056
  305ccc     C3 8797   6.582   3.934   5.848  0.0118  0.4499 -0.1854
  305ccc     C4 8798   6.527   4.070   5.883  0.3634 -0.7999 -0.6887
  305ccc     C5 8799   6.603   4.130   6.000  0.6245  0.0437 -0.7357
  305ccc     H3 8800   6.543   4.133   5.795 -0.9970  1.5617  0.6447
  305ccc     H4 8801   6.559   3.867   5.932 -1.5185  0.9897 -0.1382
  305ccc     H5 8802   6.586   4.067   6.089  3.6791 -1.1937 -0.9254
  305ccc     O1 8803   6.544   4.260   6.013 -0.7793  0.1994 -0.6660
  305ccc     O2 8804   6.387   4.059   5.910 -0.2009 -0.6140 -0.1544
  305ccc     O3 8805   6.534   3.882   5.727  0.1866  0.1165 -0.0997
  305ccc     O4 8806   6.764   4.022   5.715 -0.0118 -0.0390  0.2961
  305ccc     C6 8807   6.964   4.036   5.925 -0.0911 -0.3179  0.1766
  305ccc     H6 8808   6.521   3.786   5.732 -0.9419  0.2043 -0.9739
  305ccc     H7 8809   6.743   3.960   5.642  0.2815 -0.4088  0.5213
  305ccc     H8 8810   6.357   4.139   5.863  0.1019 -0.1052  0.5067
  305ccc     H9 8811   6.984   4.118   5.855  2.3421 -0.4266  0.6604
  305ccc    H10 8812   7.004   3.941   5.888 -2.7874 -1.6618  0.4729
  305ccc     O5 8813   7.031   4.059   6.049  0.2349  0.1386 -0.0928
  305ccc    H11 8814   7.074   3.972   6.055 -0.9736 -0.4975 -0.2017
  305ccc     O6 8815   6.745   4.137   5.975  0.1772  0.0947 -0.0537
  306ccc     C1 8816   6.011   6.772   7.059 -0.0636 -0.1253  0.4208
  306ccc     C2 8817   5.972   6.741   7.203  1.2561 -0.3730 -0.5718
  306ccc     H1 8818   5.921   6.804   7.004 -0.2531  1.9671  1.8346
  306ccc     H2 8819   5.920   6.832   7.236  0.7327 -0.9412  0.2252
  306ccc     C3 8820   5.878   6.617   7.202 -1.0040 -0.1943  0.5278
  306ccc     C4 8821   5.950   6.501   7.126  0.5902 -0.3605 -0.4848
  306ccc     C5 8822   5.991   6.540   6.988  0.4742 -0.4060 -0.2677
  306ccc     H3 8823   6.042   6.485   7.185  1.0746 -1.8896 -1.5738
  306ccc     H4 8824   5.789   6.636   7.141 -0.1346 -0.5383 -0.9014
  306ccc     H5 8825   5.905   6.549   6.922 -1.1376 -0.6603  1.7024
  306ccc     O1 8826   6.072   6.438   6.941 -0.3309  0.1260 -0.5113
  306ccc     O2 8827   5.863   6.389   7.135 -0.2955  0.7341  0.3549
  306ccc     O3 8828   5.843   6.580   7.341  0.2895 -0.0063  0.4833
  306ccc     O4 8829   6.093   6.719   7.272  0.3210  0.4393 -0.3624
  306ccc     C6 8830   6.102   6.897   7.048 -0.8671  0.5175 -0.2641
  306ccc     H6 8831   5.926   6.539   7.372 -0.3845 -2.3525 -0.5480
  306ccc     H7 8832   6.067   6.723   7.365  2.1320 -0.1829  0.2181
  306ccc     H8 8833   5.913   6.316   7.095 -2.5280 -0.3063 -0.7366
  306ccc     H9 8834   6.078   6.962   7.133 -0.6127 -0.0576  0.2549
  306ccc    H10 8835   6.093   6.954   6.954  2.9905  0.8700 -0.5880
  306ccc     O5 8836   6.233   6.856   7.076 -0.1352  0.4809 -0.0065
  306ccc    H11 8837   6.216   6.790   7.145  1.8834 -0.7677 -0.6219
  306ccc     O6 8838   6.075   6.653   6.996 -0.1502 -0.2259 -0.1167
  307ccc     C1 8839   6.739   6.442   7.580 -0.8102  1.0274 -0.4062
  307ccc     C2 8840   6.826   6.571   7.591 -0.1609 -0.1313 -0.3805
  307ccc     H1 8841   6.807   6.360   7.552 -1.3314  0.9006 -1.3475
  307ccc     H2 8842   6.906   6.558   7.665 -3.0746 -3.2853  2.5830
  307ccc     C3 8843   6.879   6.617   7.450 -0.0721 -0.1772  0.5789
  307ccc     C4 8844   6.759   6.618   7.343 -0.0688 -0.0909 -0.0972
  307ccc     C5 8845   6.679   6.490   7.355  0.3663  0.4311  0.0363
  307ccc     H3 8846   6.703   6.706   7.377  0.8288  0.6066 -0.3838
  307ccc     H4 8847   6.944   6.535   7.421  0.3665  0.6815 -0.9654
  307ccc     H5 8848   6.732   6.398   7.329  1.0923  0.0731  2.5391
  307ccc     O1 8849   6.567   6.503   7.274  0.5782  0.1284 -0.5602
  307ccc     O2 8850   6.802   6.638   7.203 -0.0956  0.2155  0.0119
  307ccc     O3 8851   6.947   6.744   7.454 -0.0578  0.0280 -0.4651
  307ccc     O4 8852   6.728   6.668   7.637  0.0794 -0.6730  0.3837
  307ccc     C6 8853   6.668   6.405   7.719  0.2343  0.7091 -0.3738
  307ccc     H6 8854   6.963   6.774   7.363  0.1813  2.2733  0.2660
  307ccc     H7 8855   6.785   6.742   7.663 -0.7739 -0.0679  0.5512
  307ccc     H8 8856   6.726   6.688   7.168  0.7858  0.1579 -2.1784
  307ccc     H9 8857   6.586   6.477   7.730  0.2928  0.7761 -0.3681
  307ccc    H10 8858   6.735   6.418   7.805 -1.1465 -1.2046  1.0722
  307ccc     O5 8859   6.620   6.276   7.710  0.1379  0.6856  0.3871
  307ccc    H11 8860   6.592   6.261   7.802  1.1837 -0.6971  0.5117
  307ccc     O6 8861   6.632   6.467   7.486 -0.1149 -0.1614  0.4143
  308ccc     C1 8862   8.463   5.991   5.953  0.4517  0.0543 -0.1850
  308ccc     C2 8863   8.467   6.062   5.818 -0.4554 -0.1290 -0.3511
  308ccc     H1 8864   8.433   5.887   5.941 -1.4310  0.5279  0.1253
  308ccc     H2 8865   8.529   6.007   5.746 -1.3650 -3.2631  1.0720
  308ccc     C3 8866   8.332   6.076   5.746  1.0759 -0.3887  0.5284
  308ccc     C4 8867   8.207   6.090   5.836 -0.0920  0.2169 -0.4415
  308ccc     C5 8868   8.224   6.029   5.978 -0.1982  0.0220  0.0553
  308ccc     H3 8869   8.197   6.197   5.858 -1.5008 -0.1730  1.0026
  308ccc     H4 8870   8.305   5.987   5.687 -4.5778  1.2918 -0.0155
  308ccc     H5 8871   8.210   5.921   5.965  1.7769 -0.0739 -1.7862
  308ccc     O1 8872   8.114   6.100   6.048 -0.1449 -0.1591 -0.2303
  308ccc     O2 8873   8.092   6.047   5.757 -1.2666  0.1515 -0.4908
  308ccc     O3 8874   8.344   6.189   5.651  0.4259  0.6707 -0.6700
  308ccc     O4 8875   8.513   6.183   5.857  0.1666  0.4319  0.6589
  308ccc     C6 8876   8.595   5.992   6.035  0.6934  0.1017 -0.2073
  308ccc     H6 8877   8.259   6.236   5.657 -0.1316 -0.4856  1.6905
  308ccc     H7 8878   8.506   6.240   5.779  2.6238  0.1698  0.1627
  308ccc     H8 8879   8.015   6.101   5.782  0.0394  2.8310 -1.9041
  308ccc     H9 8880   8.606   6.094   6.075  0.2413 -0.0462  0.3041
  308ccc    H10 8881   8.687   5.969   5.980  0.2727 -0.3732 -0.7232
  308ccc     O5 8882   8.590   5.897   6.146 -0.5693 -0.2980 -0.1960
  308ccc    H11 8883   8.681   5.899   6.182 -0.2639  0.8437 -0.9745
  308ccc     O6 8884   8.355   6.061   6.029 -0.4262  0.0204 -0.1781
  309ccc     C1 8885   7.715   5.253   6.010 -0.4049 -0.0274  0.3103
  309ccc     C2 8886   7.808   5.234   5.887  0.3875  0.2967 -0.5367
  309ccc     H1 8887   7.612   5.247   5.972 -0.2906 -2.9442  0.2430
  309ccc     H2 8888   7.776   5.140   5.840 -1.6989 -0.3019  1.8590
  309ccc     C3 8889   7.805   5.357   5.783  0.3524  0.2334  0.4496
  309ccc     C4 8890   7.816   5.495   5.856 -0.0941  0.4133  0.3238
  309ccc     C5 8891   7.730   5.496   5.983 -0.1068  1.1568  0.6706
  309ccc     H3 8892   7.924   5.506   5.876  0.0370 -0.2552  0.0156
  309ccc     H4 8893   7.703   5.367   5.742  1.2773  2.9288 -1.5228
  309ccc     H5 8894   7.626   5.497   5.949 -0.2419  0.2507  1.0009
  309ccc     O1 8895   7.759   5.611   6.064 -0.6817  0.2845  0.3656
  309ccc     O2 8896   7.768   5.594   5.761  0.3370  0.2538  0.2349
  309ccc     O3 8897   7.901   5.347   5.674 -0.2182 -0.4278  0.3946
  309ccc     O4 8898   7.947   5.232   5.929 -0.2852  0.3581 -0.1524
  309ccc     C6 8899   7.725   5.141   6.108 -0.7893 -0.1204  0.1612
  309ccc     H6 8900   7.986   5.375   5.710 -1.4988  1.5915  2.0698
  309ccc     H7 8901   7.991   5.163   5.876 -0.2434  1.0126 -0.9826
  309ccc     H8 8902   7.832   5.587   5.688 -0.3452 -0.0065 -0.3448
  309ccc     H9 8903   7.814   5.156   6.170  1.5982  1.1266 -3.2514
  309ccc    H10 8904   7.750   5.049   6.053 -1.3173 -0.0625 -0.1836
  309ccc     O5 8905   7.605   5.138   6.185 -0.3662 -0.7746 -0.2264
  309ccc    H11 8906   7.626   5.059   6.239 -0.8723 -0.4610  0.4431
  309ccc     O6 8907   7.753   5.384   6.066 -0.3092  0.1866 -0.4189
  310ccc     C1 8908   6.952   5.895   5.582 -0.4954  0.2271 -0.5009
  310ccc     C2 8909   7.066   5.796   5.571 -0.4459 -0.1341  0.5945
  310ccc     H1 8910   6.860   5.853   5.626 -0.2147 -0.3412 -0.4392
  310ccc     H2 8911   7.090   5.766   5.674  0.7422 -1.0650  0.0533
  310ccc     C3 8912   7.027   5.670   5.493 -0.0747 -0.3380 -0.3288
  310ccc     C4 8913   6.971   5.706   5.358  0.3589 -0.4262  0.0841
  310ccc     C5 8914   6.871   5.833   5.377 -0.9831  0.2412 -0.0017
  310ccc     H3 8915   7.052   5.749   5.299 -0.1124  1.4538  0.7328
  310ccc     H4 8916   6.945   5.623   5.547  1.1922  0.2705  2.2968
  310ccc     H5 8917   6.775   5.806   5.421 -2.0486  2.9910 -0.4650
  310ccc     O1 8918   6.845   5.889   5.248 -0.3792  0.6203  0.1835
  310ccc     O2 8919   6.906   5.591   5.300  0.2385 -0.4344  0.2827
  310ccc     O3 8920   7.141   5.572   5.479 -0.3045  0.4224  0.7568
  310ccc     O4 8921   7.169   5.860   5.497 -0.5279  0.0791  0.7890
  310ccc     C6 8922   6.985   6.012   5.674  0.0970 -0.8678 -0.1380
  310ccc     H6 8923   7.152   5.530   5.566 -0.4257  2.0732  1.5932
  310ccc     H7 8924   7.238   5.794   5.483  0.0032  0.7605  0.1289
  310ccc     H8 8925   6.975   5.536   5.259 -0.4673 -1.2618  0.1730
  310ccc     H9 8926   7.069   6.067   5.630 -0.2329  2.1164  2.6592
  310ccc    H10 8927   7.025   5.981   5.771 -0.7671  0.7993  0.7835
  310ccc     O5 8928   6.858   6.085   5.698 -0.1786  0.3021  0.0219
  310ccc    H11 8929   6.855   6.140   5.618  1.1469 -0.8644 -0.8963
  310ccc     O6 8930   6.920   5.941   5.454 -0.2274 -0.4304 -0.1058
  311ccc     C1 8931   6.480   5.705   4.976 -0.2605 -0.8627 -0.4082
  311ccc     C2 8932   6.526   5.639   5.105 -0.0670  0.3076 -0.2823
  311ccc     H1 8933   6.444   5.630   4.905  0.7141 -0.2696 -1.5741
  311ccc     H2 8934   6.442   5.590   5.156  0.9713 -1.2489 -0.0135
  311ccc     C3 8935   6.646   5.543   5.078  0.3116  0.5046 -0.1232
  311ccc     C4 8936   6.765   5.621   5.011 -0.3091 -0.5230  0.5390
  311ccc     C5 8937   6.708   5.698   4.883 -0.4621 -0.1963 -0.2542
  311ccc     H3 8938   6.803   5.699   5.079  0.1843 -0.7716  0.5477
  311ccc     H4 8939   6.610   5.465   5.010  0.0050  0.9779 -0.5142
  311ccc     H5 8940   6.684   5.622   4.808 -1.3699  0.5174 -0.6994
  311ccc     O1 8941   6.807   5.783   4.825  0.5512  0.5501  0.0749
  311ccc     O2 8942   6.866   5.533   4.966 -0.2373 -0.1712  0.4118
  311ccc     O3 8943   6.690   5.482   5.199 -0.0398 -0.6204  0.5328
  311ccc     O4 8944   6.568   5.747   5.187  0.3707  0.2416 -0.0526
  311ccc     C6 8945   6.366   5.817   4.983 -0.2696  0.9734  0.6186
  311ccc     H6 8946   6.755   5.540   5.242 -0.1810 -0.1919  0.1802
  311ccc     H7 8947   6.505   5.815   5.156 -0.2989 -0.2473  0.2210
  311ccc     H8 8948   6.940   5.587   4.996 -1.8830  1.4127  1.9043
  311ccc     H9 8949   6.267   5.768   4.987 -1.7896  3.8788  0.8348
  311ccc    H10 8950   6.376   5.879   4.893  2.4372 -1.3626 -0.8838
  311ccc     O5 8951   6.378   5.906   5.092 -0.3104  0.3453 -0.1874
  311ccc    H11 8952   6.297   5.958   5.105  0.4623  1.7357 -0.6730
  311ccc     O6 8953   6.595   5.773   4.916 -0.4166  0.0330 -0.2693
  312ccc     C1 8954   7.856   5.441   5.217 -0.3731  0.7864  0.1185
  312ccc     C2 8955   7.896   5.455   5.363  0.2949 -0.8045 -0.8806
  312ccc     H1 8956   7.941   5.468   5.152 -0.3776 -0.5513 -0.4788
  312ccc     H2 8957   7.990   5.399   5.374 -0.4938 -1.8837  0.6192
  312ccc     C3 8958   7.924   5.606   5.399 -0.1203  0.6297  0.3128
  312ccc     C4 8959   7.806   5.700   5.358  0.5522 -0.2612 -0.0062
  312ccc     C5 8960   7.767   5.672   5.209  0.3507 -0.6244  0.5051
  312ccc     H3 8961   7.715   5.676   5.414 -0.9595  0.5529 -1.9973
  312ccc     H4 8962   8.013   5.638   5.343  0.5052  1.6006  1.7755
  312ccc     H5 8963   7.845   5.713   5.144  0.7446 -0.8864  0.8061
  312ccc     O1 8964   7.641   5.740   5.180 -0.0320  0.3143  0.5323
  312ccc     O2 8965   7.850   5.840   5.364 -0.1742  0.6290  0.8819
  312ccc     O3 8966   7.957   5.620   5.537 -0.9857  0.2245 -0.4448
  312ccc     O4 8967   7.792   5.395   5.449 -0.0887 -0.0318  0.5388
  312ccc     C6 8968   7.808   5.302   5.177 -0.3314  0.1745 -0.1785
  312ccc     H6 8969   8.032   5.682   5.535 -0.1982 -0.6694  0.1467
  312ccc     H7 8970   7.838   5.366   5.530  1.9239 -1.4459 -0.9818
  312ccc     H8 8971   7.849   5.870   5.456  2.0102 -0.1594  1.2083
  312ccc     H9 8972   7.708   5.279   5.214 -0.2361  1.2283  0.7753
  312ccc    H10 8973   7.878   5.231   5.225 -2.2196 -1.9517 -0.4166
  312ccc     O5 8974   7.817   5.287   5.034  0.1239 -0.0860 -0.4513
  312ccc    H11 8975   7.909   5.262   5.014 -0.0345 -0.1924 -1.0459
  312ccc     O6 8976   7.746   5.527   5.188  0.0651  0.7588 -0.0753
  313ccc     C1 8977   7.465   6.007   5.797  0.4712  0.5257  0.4780
  313ccc     C2 8978   7.513   5.871   5.841  0.2620  0.1889  0.3964
  313ccc     H1 8979   7.356   6.007   5.795  0.4388  0.7073  1.7071
  313ccc     H2 8980   7.479   5.857   5.945  1.9201  1.1963  1.1096
  313ccc     C3 8981   7.467   5.752   5.745  0.5038 -0.3829 -0.2905
  313ccc     C4 8982   7.487   5.786   5.598  0.4039  0.2899  0.7261
  313ccc     C5 8983   7.464   5.938   5.559  0.2292 -0.0094 -0.7113
  313ccc     H3 8984   7.591   5.765   5.574  0.0983 -0.2622 -0.1453
  313ccc     H4 8985   7.359   5.741   5.762  0.5843  0.3609  0.9126
  313ccc     H5 8986   7.359   5.970   5.570  0.5978  0.7354  0.9408
  313ccc     O1 8987   7.513   5.958   5.424 -0.0828 -0.0423  0.5260
  313ccc     O2 8988   7.399   5.714   5.510 -0.6519  0.3831  0.3181
  313ccc     O3 8989   7.526   5.627   5.778 -0.2166  0.4300 -0.0727
  313ccc     O4 8990   7.659   5.873   5.837 -0.5206  0.0119 -0.0504
  313ccc     C6 8991   7.496   6.134   5.888  0.1319  0.1914 -0.3621
  313ccc     H6 8992   7.622   5.636   5.767 -0.3939  0.3186 -1.9236
  313ccc     H7 8993   7.666   5.966   5.864  0.4398  0.3244 -1.2658
  313ccc     H8 8994   7.410   5.622   5.540 -0.3099  0.3798  0.1831
  313ccc     H9 8995   7.412   6.155   5.954 -0.2552 -0.4786 -0.6296
  313ccc    H10 8996   7.505   6.223   5.824 -1.3972  0.0968 -0.7409
  313ccc     O5 8997   7.620   6.107   5.954 -0.1573 -0.0968 -0.0093
  313ccc    H11 8998   7.614   6.161   6.035  3.2997 -0.9219  0.9574
  313ccc     O6 8999   7.520   6.027   5.661 -0.1307  0.1445 -0.3232
  314ccc     C1 9000   7.695   5.897   3.854  1.0111 -0.3844  0.3815
  314ccc     C2 9001   7.779   5.911   3.721 -0.0734 -0.1328  0.1646
  314ccc     H1 9002   7.673   5.791   3.869 -1.0645  0.1697  1.6087
  314ccc     H2 9003   7.872   5.853   3.719 -0.2709 -0.4296 -0.3894
  314ccc     C3 9004   7.689   5.858   3.605 -0.1353  0.0600  0.5909
  314ccc     C4 9005   7.552   5.924   3.587 -0.5482  0.1590  0.3085
  314ccc     C5 9006   7.480   5.925   3.722 -0.3348  0.1469  0.0501
  314ccc     H3 9007   7.560   6.029   3.556 -2.8822  0.2092 -0.2866
  314ccc     H4 9008   7.660   5.754   3.627 -0.0838 -0.5490 -1.9677
  314ccc     H5 9009   7.437   5.825   3.736  0.6725 -0.6183 -1.9719
  314ccc     O1 9010   7.371   6.019   3.714 -0.2381 -0.1012  0.2460
  314ccc     O2 9011   7.468   5.852   3.492 -0.4375 -0.0387  0.0683
  314ccc     O3 9012   7.761   5.864   3.484  0.4877  0.4822  0.0506
  314ccc     O4 9013   7.808   6.052   3.690  0.6080  0.3508 -0.1809
  314ccc     C6 9014   7.761   5.954   3.981  0.6048  0.1826 -0.5724
  314ccc     H6 9015   7.811   5.781   3.483  0.3500  0.3945 -1.2633
  314ccc     H7 9016   7.876   6.056   3.621 -2.3486 -2.4911 -3.7164
  314ccc     H8 9017   7.522   5.838   3.413 -0.5852  1.2882 -0.2890
  314ccc     H9 9018   7.844   5.888   4.011  1.5595 -0.2851 -3.8471
  314ccc    H10 9019   7.698   5.962   4.071  2.3606  1.9258  0.6018
  314ccc     O5 9020   7.807   6.085   3.951 -0.3342 -0.2008  0.2100
  314ccc    H11 9021   7.793   6.089   3.854  2.6998  0.9244 -0.3232
  314ccc     O6 9022   7.566   5.964   3.833  0.2262  0.2123  0.0836
  315ccc     C1 9023   6.676   6.095   3.122  0.0754  0.7015  0.3983
  315ccc     C2 9024   6.648   6.245   3.117 -0.8882  0.0508 -0.4611
  315ccc     H1 9025   6.576   6.050   3.112 -0.0906  1.2554 -0.6905
  315ccc     H2 9026   6.591   6.259   3.024 -1.2487 -0.9683 -0.4092
  315ccc     C3 9027   6.567   6.290   3.243  0.2445 -0.2551  0.8045
  315ccc     C4 9028   6.633   6.246   3.369  0.3450 -0.1910 -0.4244
  315ccc     C5 9029   6.680   6.094   3.373 -0.1374  0.0382  0.2764
  315ccc     H3 9030   6.722   6.308   3.385 -0.0565  0.4182 -0.5176
  315ccc     H4 9031   6.468   6.242   3.239 -0.6337  1.5335 -2.0440
  315ccc     H5 9032   6.602   6.019   3.390 -0.9606  1.0564  1.1454
  315ccc     O1 9033   6.784   6.087   3.472  0.0193  0.6027  0.0365
  315ccc     O2 9034   6.545   6.268   3.487  0.2989  0.6643 -0.6437
  315ccc     O3 9035   6.551   6.433   3.242 -0.1457 -0.0970  0.2766
  315ccc     O4 9036   6.771   6.314   3.104 -0.8566 -0.0180 -0.0401
  315ccc     C6 9037   6.760   6.045   2.999  0.3275  0.0273  1.0223
  315ccc     H6 9038   6.519   6.457   3.154 -0.7522  2.1061  1.0295
  315ccc     H7 9039   6.788   6.329   3.010  0.7832 -1.2997  0.0143
  315ccc     H8 9040   6.535   6.362   3.506 -0.4530  0.2640  1.0478
  315ccc     H9 9041   6.864   6.079   2.999 -0.4652  2.6873 -0.0408
  315ccc    H10 9042   6.708   6.077   2.908  1.5208 -1.5765 -0.2899
  315ccc     O5 9043   6.754   5.903   2.999 -0.0741 -0.7704 -0.0233
  315ccc    H11 9044   6.785   5.882   2.909 -1.4307  1.1059 -0.9906
  315ccc     O6 9045   6.740   6.062   3.247 -0.9142  0.7985  0.1483
  316ccc     C1 9046   6.706   5.614   2.757  0.2202  0.5183  0.1428
  316ccc     C2 9047   6.692   5.736   2.667 -0.6391  0.4467  0.2390
  316ccc     H1 9048   6.656   5.528   2.711  1.4210 -0.9277  1.4106
  316ccc     H2 9049   6.716   5.712   2.563 -2.3508 -1.6987  0.2804
  316ccc     C3 9050   6.551   5.781   2.659 -0.7606 -0.1145  0.1461
  316ccc     C4 9051   6.492   5.802   2.802 -0.2709 -0.2895  0.4144
  316ccc     C5 9052   6.509   5.666   2.882 -0.0493 -0.2002  0.1955
  316ccc     H3 9053   6.552   5.884   2.843  0.5937 -0.2986 -0.7654
  316ccc     H4 9054   6.501   5.689   2.625  0.2377 -0.1310 -1.3955
  316ccc     H5 9055   6.453   5.587   2.831 -1.5307 -0.1696  1.7096
  316ccc     O1 9056   6.450   5.679   3.014 -0.0971  0.1688  0.6103
  316ccc     O2 9057   6.354   5.838   2.801  0.3542 -0.4428 -0.1054
  316ccc     O3 9058   6.522   5.888   2.560  0.1025 -0.0147  0.2490
  316ccc     O4 9059   6.777   5.840   2.731 -0.2534 -0.7130 -0.3081
  316ccc     C6 9060   6.860   5.574   2.771  0.3581  0.0278 -0.2524
  316ccc     H6 9061   6.434   5.871   2.523 -0.5112  0.6988  1.3330
  316ccc     H7 9062   6.826   5.881   2.658 -0.3695 -3.5876 -2.1644
  316ccc     H8 9063   6.338   5.898   2.727 -1.2548 -2.3742 -1.4225
  316ccc     H9 9064   6.915   5.638   2.840 -0.0385 -1.0018  1.0563
  316ccc    H10 9065   6.913   5.579   2.675  1.9841  1.5068  0.6687
  316ccc     O5 9066   6.864   5.443   2.838 -0.0087  0.0851 -0.4314
  316ccc    H11 9067   6.844   5.386   2.761  1.0646  2.5572 -2.7058
  316ccc     O6 9068   6.651   5.642   2.887  0.1863  0.2419  0.3051
  317ccc     C1 9069   5.482   5.935   3.441 -0.0149  0.5823  0.3880
  317ccc     C2 9070   5.494   5.968   3.590  0.4427  0.1210  0.1493
  317ccc     H1 9071   5.408   5.855   3.453 -2.2658  2.2015 -1.7898
  317ccc     H2 9072   5.390   5.983   3.621  0.2957 -1.2298  0.3436
  317ccc     C3 9073   5.553   5.848   3.666 -0.5323  0.6946  0.0954
  317ccc     C4 9074   5.682   5.790   3.601 -0.4254  0.2961  0.6479
  317ccc     C5 9075   5.670   5.776   3.443  0.0526  0.0015 -0.4774
  317ccc     H3 9076   5.776   5.841   3.625 -0.4803  0.3602  0.7272
  317ccc     H4 9077   5.473   5.774   3.657  1.1577 -1.0642 -1.3467
  317ccc     H5 9078   5.609   5.688   3.419 -1.9102  1.1164  0.1638
  317ccc     O1 9079   5.807   5.764   3.389  0.5931  0.1941  0.0234
  317ccc     O2 9080   5.690   5.664   3.663 -0.1964  0.6063  0.1037
  317ccc     O3 9081   5.566   5.882   3.804  0.3497  0.5423  0.4188
  317ccc     O4 9082   5.560   6.090   3.607  0.3397 -0.0299 -0.1724
  317ccc     C6 9083   5.428   6.052   3.358 -0.7810  0.6781 -0.5287
  317ccc     H6 9084   5.480   5.884   3.849  0.2352 -3.2734  0.6532
  317ccc     H7 9085   5.544   6.107   3.701 -0.3464 -1.9510  0.1026
  317ccc     H8 9086   5.723   5.682   3.753 -2.5630 -0.8566  1.3836
  317ccc     H9 9087   5.511   6.119   3.332 -0.2473  0.4128  0.4589
  317ccc    H10 9088   5.366   6.104   3.432  2.1515  3.5331  0.1432
  317ccc     O5 9089   5.357   6.012   3.239 -0.3086 -0.3711  0.2972
  317ccc    H11 9090   5.266   5.996   3.270 -1.3979 -0.6101 -2.7088
  317ccc     O6 9091   5.611   5.893   3.382  0.0823  0.1082  0.2391
  318ccc     C1 9092   7.987   8.541   9.616 -0.1540  0.2004  0.9789
  318ccc     C2 9093   8.102   8.504   9.515 -0.1798  0.0076  0.8027
  318ccc     H1 9094   7.900   8.486   9.579  1.1502 -0.2036 -1.7190
  318ccc     H2 9095   8.094   8.395   9.499 -2.8706  0.1388  0.7201
  318ccc     C3 9096   8.076   8.574   9.377 -0.0086  0.0914  0.3842
  318ccc     C4 9097   8.037   8.718   9.389  0.8962 -0.3320  0.5128
  318ccc     C5 9098   7.917   8.732   9.486 -1.3733  0.2648 -0.1039
  318ccc     H3 9099   8.119   8.769   9.440  0.5746  1.2845 -0.5026
  318ccc     H4 9100   7.989   8.527   9.330  0.6916 -2.4205  1.4718
  318ccc     H5 9101   7.831   8.677   9.446  0.0090 -0.3738 -2.3286
  318ccc     O1 9102   7.882   8.875   9.496 -0.4954  0.0649  0.3611
  318ccc     O2 9103   8.013   8.783   9.258  0.3953 -0.0212 -0.2364
  318ccc     O3 9104   8.194   8.559   9.292 -0.0514 -0.8652 -0.2328
  318ccc     O4 9105   8.221   8.554   9.559 -1.0127 -0.2443 -0.7031
  318ccc     C6 9106   8.028   8.495   9.759 -0.6849 -0.0261 -0.4352
  318ccc     H6 9107   8.156   8.496   9.228  0.5285 -0.7548 -0.6873
  318ccc     H7 9108   8.268   8.585   9.480 -0.0209 -0.8033 -0.3520
  318ccc     H8 9109   8.094   8.807   9.210 -0.3738  0.1810 -1.4629
  318ccc     H9 9110   8.101   8.567   9.797  0.0652 -0.5607 -0.8411
  318ccc    H10 9111   8.065   8.392   9.765  1.6076  0.7084 -1.2282
  318ccc     O5 9112   7.904   8.502   9.833 -0.0012 -0.0162  0.2597
  318ccc    H11 9113   7.920   8.489   9.928 -0.2809  0.4474  0.3695
  318ccc     O6 9114   7.963   8.679   9.615  0.2287  0.3485  0.2045
  319ccc     C1 9115   7.815   9.581  10.177  0.5965  0.2679 -0.6731
  319ccc     C2 9116   7.945   9.648  10.224 -0.1904 -0.0909 -0.0811
  319ccc     H1 9117   7.814   9.484  10.229  1.8260  1.0724  0.9282
  319ccc     H2 9118   7.943   9.665  10.332  0.3515  2.4299 -0.4042
  319ccc     C3 9119   8.073   9.575  10.186 -0.4989 -0.3004  0.3911
  319ccc     C4 9120   8.074   9.543  10.035 -0.3702 -0.0337 -0.9585
  319ccc     C5 9121   7.942   9.468   9.999 -0.3461  0.1018  0.0850
  319ccc     H3 9122   8.079   9.637   9.978 -1.3755  0.4623 -0.2639
  319ccc     H4 9123   8.084   9.485  10.249  1.9266 -0.9465 -0.8123
  319ccc     H5 9124   7.939   9.376  10.059 -0.3495  0.0739  0.0431
  319ccc     O1 9125   7.939   9.443   9.855 -0.0310 -0.1565 -0.4829
  319ccc     O2 9126   8.188   9.460  10.010 -0.2561  0.4321  0.0048
  319ccc     O3 9127   8.176   9.677  10.217  0.7303  0.3187 -0.7547
  319ccc     O4 9128   7.959   9.770  10.160 -0.3954  0.6025 -0.1184
  319ccc     C6 9129   7.690   9.660  10.219  0.3653 -0.4217  0.2111
  319ccc     H6 9130   8.120   9.754  10.200  0.2305  0.1458  0.0558
  319ccc     H7 9131   7.864   9.793  10.156 -0.4446  0.8307  1.6787
  319ccc     H8 9132   8.262   9.505  10.054 -0.3716  1.7635 -1.0968
  319ccc     H9 9133   7.674   9.674  10.327 -0.5909 -0.7802  0.1236
  319ccc    H10 9134   7.596   9.620  10.181 -0.7939  1.4250  1.0231
  319ccc     O5 9135   7.703   9.794  10.167  0.6828  0.0445 -0.1359
  319ccc    H11 9136   7.670   9.782  10.076  2.5285 -3.3043 -0.4794
  319ccc     O6 9137   7.828   9.549  10.040  0.2284 -0.0150 -0.2050
  320ccc     C1 9138   6.645   9.177  10.401 -0.1886  0.0375 -0.1081
  320ccc     C2 9139   6.722   9.110  10.521  0.2162  0.4354 -0.1369
  320ccc     H1 9140   6.548   9.132  10.376 -0.2051  0.8324 -1.5652
  320ccc     H2 9141   6.667   9.132  10.613  1.2250  0.7348  0.4087
  320ccc     C3 9142   6.724   8.952  10.500  0.3366 -0.5693 -0.3150
  320ccc     C4 9143   6.797   8.921  10.367 -0.0544 -0.0982  0.3722
  320ccc     C5 9144   6.737   9.013  10.245 -0.4573  0.4501 -0.6564
  320ccc     H3 9145   6.903   8.946  10.381 -0.2971  1.2896 -0.1338
  320ccc     H4 9146   6.624   8.906  10.499  1.3394 -2.8612 -0.8648
  320ccc     H5 9147   6.639   8.965  10.234  0.3465 -1.9810  1.6646
  320ccc     O1 9148   6.821   9.003  10.135  0.6779 -0.2469 -0.4887
  320ccc     O2 9149   6.776   8.788  10.330 -0.0655  0.4610  0.0208
  320ccc     O3 9150   6.792   8.895  10.610 -0.0327 -0.8865  0.1692
  320ccc     O4 9151   6.847   9.175  10.535 -0.7190 -0.2035  0.2641
  320ccc     C6 9152   6.637   9.328  10.421  0.0454  0.4219 -0.1326
  320ccc     H6 9153   6.740   8.904  10.691  1.5964  3.4196  1.0637
  320ccc     H7 9154   6.877   9.157  10.626 -0.3048  1.0616  0.3872
  320ccc     H8 9155   6.848   8.747  10.380  0.5746 -2.0274 -2.6488
  320ccc     H9 9156   6.585   9.344  10.516  2.4756 -0.6676  1.4619
  320ccc    H10 9157   6.576   9.371  10.340 -0.2456 -1.4795 -0.9877
  320ccc     O5 9158   6.764   9.393  10.435  0.0260  0.3111 -0.0472
  320ccc    H11 9159   6.822   9.318  10.455 -1.0985 -0.8390 -0.9033
  320ccc     O6 9160   6.727   9.149  10.281 -0.0334  0.0983  0.2307
  321ccc     C1 9161   7.058   9.044  10.754 -0.0985 -0.7623  0.2786
  321ccc     C2 9162   7.164   8.956  10.826 -0.3491  0.7734 -0.2841
  321ccc     H1 9163   6.958   8.998  10.757 -1.1317  1.3403  0.0342
  321ccc     H2 9164   7.123   8.943  10.927  0.4261 -0.2651 -0.0865
  321ccc     C3 9165   7.188   8.818  10.759 -0.6677  0.3209 -0.3182
  321ccc     C4 9166   7.219   8.850  10.608 -0.1129  0.3375 -0.7320
  321ccc     C5 9167   7.124   8.950  10.534  0.6459 -0.1492 -0.4068
  321ccc     H3 9168   7.318   8.894  10.592 -0.0388  0.0870 -0.9562
  321ccc     H4 9169   7.095   8.759  10.766 -0.2156 -0.4628 -0.7440
  321ccc     H5 9170   7.026   8.903  10.527  0.6883 -0.3373  0.2005
  321ccc     O1 9171   7.166   8.995  10.400  0.4235  0.3081  0.0087
  321ccc     O2 9172   7.221   8.726  10.531 -0.6115 -0.4136 -0.1367
  321ccc     O3 9173   7.301   8.746  10.820  0.2521  0.6288  0.6204
  321ccc     O4 9174   7.283   9.031  10.821  0.1896  0.1834  0.3552
  321ccc     C6 9175   7.036   9.180  10.830  0.1069 -0.2418  0.1950
  321ccc     H6 9176   7.343   8.820  10.867 -0.6674  0.8846  1.0611
  321ccc     H7 9177   7.288   9.079  10.905  2.1171 -0.4691  0.6775
  321ccc     H8 9178   7.296   8.675  10.566 -0.3236 -1.7493 -2.5112
  321ccc     H9 9179   7.125   9.244  10.841  0.3059 -0.6900  1.3517
  321ccc    H10 9180   7.015   9.156  10.935  0.3999 -0.2736  0.2476
  321ccc     O5 9181   6.920   9.240  10.784  0.2714  0.5018 -0.4073
  321ccc    H11 9182   6.955   9.323  10.748  0.8360 -0.8041 -3.0654
  321ccc     O6 9183   7.108   9.073  10.617 -0.7387 -0.2500  0.2796
  322ccc     C1 9184   6.308  10.071   9.964  1.5014 -0.3563  0.2225
  322ccc     C2 9185   6.224  10.182   9.886 -0.7260  0.7166 -0.0180
  322ccc     H1 9186   6.406  10.119   9.972  0.6819  1.2235  1.1665
  322ccc     H2 9187   6.251  10.286   9.907 -1.5445  1.0939 -0.7306
  322ccc     C3 9188   6.246  10.175   9.736  0.5106  0.1818 -0.3206
  322ccc     C4 9189   6.222  10.035   9.681 -0.2460 -1.0557  0.4990
  322ccc     C5 9190   6.321   9.937   9.751  0.0227 -0.1283 -0.6566
  322ccc     H3 9191   6.124   9.990   9.706  0.2080 -2.4540 -0.1257
  322ccc     H4 9192   6.351  10.205   9.729 -0.2686  3.2399 -0.5329
  322ccc     H5 9193   6.423   9.961   9.719 -0.1704 -1.8987 -2.7674
  322ccc     O1 9194   6.294   9.805   9.716 -0.4483  0.2250 -0.3264
  322ccc     O2 9195   6.226  10.031   9.537 -0.3036 -0.1264 -0.4525
  322ccc     O3 9196   6.167  10.283   9.680 -0.0120  0.0528  0.9363
  322ccc     O4 9197   6.085  10.160   9.915 -0.0187 -0.8834  0.7010
  322ccc     C6 9198   6.264  10.053  10.109  0.7380 -0.3845  0.2814
  322ccc     H6 9199   6.167  10.272   9.583 -0.9950 -0.2506  0.9586
  322ccc     H7 9200   6.041  10.216   9.848  0.7483  0.0386  0.9478
  322ccc     H8 9201   6.188   9.943   9.521  0.7474 -0.8483  0.8341
  322ccc     H9 9202   6.159  10.020  10.113  1.3161 -2.2415  0.8630
  322ccc    H10 9203   6.276  10.148  10.163 -0.5906  0.4153 -0.7648
  322ccc     O5 9204   6.348   9.948  10.162 -0.2582 -0.0790 -0.1369
  322ccc    H11 9205   6.405   9.921  10.088  0.5811  0.9794  0.1050
  322ccc     O6 9206   6.303   9.941   9.896  0.1143 -0.7605 -0.0003
  323ccc     C1 9207   5.464   9.178   9.518  0.1623 -0.0913  0.2199
  323ccc     C2 9208   5.382   9.304   9.494 -0.1638  0.1885 -0.4670
  323ccc     H1 9209   5.447   9.150   9.623 -1.3317  0.8084  0.2347
  323ccc     H2 9210   5.280   9.284   9.526  0.4868 -0.6052  1.2016
  323ccc     C3 9211   5.438   9.424   9.586 -0.3689  0.2522  0.7976
  323ccc     C4 9212   5.590   9.445   9.560  0.1281  0.3971 -0.0380
  323ccc     C5 9213   5.670   9.314   9.564 -0.2953  1.1965 -0.6614
  323ccc     H3 9214   5.609   9.492   9.463 -0.3535 -0.8149 -0.7502
  323ccc     H4 9215   5.422   9.387   9.688 -1.0529 -0.4141  0.4621
  323ccc     H5 9216   5.685   9.280   9.666 -1.6625 -1.6030 -1.3057
  323ccc     O1 9217   5.790   9.344   9.502  0.0943  0.5191  0.4160
  323ccc     O2 9218   5.641   9.542   9.654 -0.5101  0.2751  0.2101
  323ccc     O3 9219   5.359   9.548   9.575 -0.1272 -0.5294 -0.2412
  323ccc     O4 9220   5.386   9.340   9.357 -0.4959 -0.2377 -0.7535
  323ccc     C6 9221   5.414   9.058   9.436  0.2376  0.6635  0.2853
  323ccc     H6 9222   5.289   9.529   9.510 -1.7898 -1.5372  1.7192
  323ccc     H7 9223   5.319   9.291   9.306  0.5552  0.0393 -2.4946
  323ccc     H8 9224   5.574   9.544   9.724 -0.1747  1.8494  0.5219
  323ccc     H9 9225   5.436   9.082   9.332 -0.5510 -0.2325 -0.1038
  323ccc    H10 9226   5.306   9.055   9.454  0.0511 -0.2880 -0.8629
  323ccc     O5 9227   5.483   8.944   9.486  0.6024 -0.3132 -0.5030
  323ccc    H11 9228   5.564   8.976   9.528 -0.5042 -0.7922  2.2450
  323ccc     O6 9229   5.602   9.210   9.485  0.7719 -0.1783 -0.5351
  324ccc     C1 9230   6.495   7.375  10.102  0.3020  0.1396 -0.8494
  324ccc     C2 9231   6.621   7.285  10.135 -1.0550  0.4045 -0.3657
  324ccc     H1 9232   6.428   7.323  10.032  0.7496 -0.8025 -0.6016
  324ccc     H2 9233   6.597   7.182  10.165  2.3166 -0.9068 -1.6333
  324ccc     C3 9234   6.717   7.281  10.006  0.1391 -0.2464  0.4116
  324ccc     C4 9235   6.747   7.423   9.957  0.2567 -0.1891  0.6451
  324ccc     C5 9236   6.612   7.496   9.926  0.4660  0.2994  0.1406
  324ccc     H3 9237   6.794   7.485  10.035  0.7118  0.7301 -0.3343
  324ccc     H4 9238   6.664   7.230   9.924 -0.1559 -1.1045  1.1272
  324ccc     H5 9239   6.544   7.444   9.857 -1.1903  2.6177 -0.1264
  324ccc     O1 9240   6.638   7.644   9.890  0.5775 -0.1065  0.4175
  324ccc     O2 9241   6.836   7.416   9.837  0.5837  0.0225 -0.2639
  324ccc     O3 9242   6.841   7.206  10.030  0.2788 -0.0465  0.8470
  324ccc     O4 9243   6.689   7.350  10.244  0.1250 -0.8254 -0.3619
  324ccc     C6 9244   6.402   7.407  10.223 -0.0352 -0.0118 -0.2043
  324ccc     H6 9245   6.848   7.212  10.126  2.6934  3.9756  0.6781
  324ccc     H7 9246   6.620   7.411  10.277  0.4761 -0.8140  0.3496
  324ccc     H8 9247   6.918   7.381   9.875 -0.8081 -0.7381  2.2967
  324ccc     H9 9248   6.362   7.312  10.258 -0.4055  0.2557  0.1024
  324ccc    H10 9249   6.313   7.463  10.191 -0.2753  0.2709  0.9138
  324ccc     O5 9250   6.465   7.459  10.343 -0.3426 -0.2579 -0.0753
  324ccc    H11 9251   6.389   7.472  10.402 -0.3334  0.4708 -0.2213
  324ccc     O6 9252   6.539   7.500  10.053  0.1095 -0.5427  0.0535
  325ccc     C1 9253   6.905   8.376  10.673 -0.0273 -0.2059  0.1959
  325ccc     C2 9254   6.947   8.518  10.643  0.6329  0.1996  0.3884
  325ccc     H1 9255   6.994   8.313  10.681  0.6321  0.7671  0.7912
  325ccc     H2 9256   7.024   8.554  10.712  0.1221 -0.4286  1.3070
  325ccc     C3 9257   6.973   8.545  10.496 -0.4945  0.1817  0.1233
  325ccc     C4 9258   6.890   8.476  10.392  0.0757  0.1338  0.4690
  325ccc     C5 9259   6.856   8.327  10.432  0.1295  0.2610  0.3861
  325ccc     H3 9260   6.790   8.519  10.383 -0.1548 -0.6420 -0.8848
  325ccc     H4 9261   7.072   8.501  10.475 -1.3480 -1.1901 -1.2533
  325ccc     H5 9262   6.945   8.262  10.432 -1.3596 -2.0253 -2.2434
  325ccc     O1 9263   6.765   8.273  10.338 -0.0735  0.0997 -0.6563
  325ccc     O2 9264   6.962   8.472  10.270  0.2557 -0.7837  0.1657
  325ccc     O3 9265   6.979   8.685  10.469  0.1247 -0.1822 -0.4786
  325ccc     O4 9266   6.834   8.596  10.672  0.1297 -0.1661  0.0440
  325ccc     C6 9267   6.851   8.369  10.814  0.3845  0.2446 -0.2764
  325ccc     H6 9268   7.074   8.707  10.475 -0.0074  1.0141 -2.0526
  325ccc     H7 9269   6.862   8.679  10.631  0.2710  0.3370  1.1437
  325ccc     H8 9270   6.904   8.514  10.204 -0.7978 -0.1045  1.4788
  325ccc     H9 9271   6.745   8.398  10.807 -0.2839 -2.1638 -1.3993
  325ccc    H10 9272   6.909   8.434  10.879 -0.7262  0.5804  0.4078
  325ccc     O5 9273   6.851   8.236  10.862 -0.3009 -0.2031 -0.3330
  325ccc    H11 9274   6.801   8.193  10.791  0.0587 -0.2090 -0.5838
  325ccc     O6 9275   6.809   8.330  10.572 -0.8439 -0.1766  0.8395
  326ccc     C1 9276   6.052   7.094   8.424  0.0905 -0.1518 -0.5404
  326ccc     C2 9277   6.051   6.992   8.312 -0.2781  0.5345  0.2689
  326ccc     H1 9278   6.013   7.184   8.375  1.9204  0.9426 -0.0903
  326ccc     H2 9279   5.956   7.009   8.260 -0.1474 -0.2982 -0.2620
  326ccc     C3 9280   6.164   7.025   8.205  0.2445 -0.0104 -0.6987
  326ccc     C4 9281   6.296   7.065   8.269  0.6130  0.6030 -0.0479
  326ccc     C5 9282   6.279   7.170   8.375 -0.3031 -0.8650  0.6509
  326ccc     H3 9283   6.330   6.974   8.320  1.4197  0.2794 -1.0988
  326ccc     H4 9284   6.136   7.121   8.161  1.3021  1.1099  0.9755
  326ccc     H5 9285   6.247   7.264   8.329 -0.9208 -0.9094  0.9774
  326ccc     O1 9286   6.415   7.179   8.437  0.3716 -0.7357 -0.8626
  326ccc     O2 9287   6.401   7.098   8.173 -0.0380 -0.6015 -0.8076
  326ccc     O3 9288   6.194   6.922   8.109 -0.4646 -0.7291  0.2906
  326ccc     O4 9289   6.068   6.857   8.363  0.1173  0.4184 -0.4047
  326ccc     C6 9290   5.949   7.071   8.536  0.3685  0.4919  0.4358
  326ccc     H6 9291   6.271   6.957   8.061  0.2649  0.2882  2.0786
  326ccc     H7 9292   6.020   6.798   8.302  1.9611 -1.7633  0.1355
  326ccc     H8 9293   6.474   7.041   8.201 -1.2593 -1.4462  0.8488
  326ccc     H9 9294   5.851   7.050   8.492 -0.7155  1.8143  2.0791
  326ccc    H10 9295   5.950   7.157   8.604  0.1225  1.3898 -0.6650
  326ccc     O5 9296   5.990   6.948   8.599  0.6667 -0.1255  0.6931
  326ccc    H11 9297   6.001   6.896   8.518 -1.5248  0.8197 -0.3107
  326ccc     O6 9298   6.187   7.124   8.472  0.2580 -0.6999  0.0634
  327ccc     C1 9299   6.866   6.651   8.237 -0.1013  0.6558  0.2888
  327ccc     C2 9300   6.751   6.573   8.293  0.5196  0.3427 -0.4207
  327ccc     H1 9301   6.959   6.615   8.282  0.8246  1.2906 -1.0695
  327ccc     H2 9302   6.779   6.471   8.266 -1.5763  0.4940 -3.7248
  327ccc     C3 9303   6.732   6.589   8.447  0.9169 -0.0914  0.4145
  327ccc     C4 9304   6.724   6.744   8.484 -0.6007 -0.0963 -0.5518
  327ccc     C5 9305   6.848   6.814   8.417  0.0813  0.7016 -0.2788
  327ccc     H3 9306   6.634   6.791   8.442 -1.7328 -1.7776 -0.0890
  327ccc     H4 9307   6.824   6.545   8.487  1.1911 -0.0930 -0.2100
  327ccc     H5 9308   6.942   6.787   8.467  0.2118  3.1182  0.8989
  327ccc     O1 9309   6.828   6.954   8.435 -0.5120  0.3169  0.2399
  327ccc     O2 9310   6.724   6.745   8.631 -0.1787  0.3038 -0.3082
  327ccc     O3 9311   6.617   6.520   8.500 -0.2432  0.0508  0.2492
  327ccc     O4 9312   6.629   6.610   8.221 -0.1848  0.0525 -0.2549
  327ccc     C6 9313   6.886   6.634   8.085 -0.2950  0.1854  0.2935
  327ccc     H6 9314   6.633   6.494   8.592  0.0208  0.9066  0.4591
  327ccc     H7 9315   6.562   6.542   8.240 -0.9030  0.3940 -1.4725
  327ccc     H8 9316   6.635   6.713   8.655 -0.1290 -0.8986 -1.5742
  327ccc     H9 9317   6.843   6.716   8.027  0.4579 -0.5826 -1.4472
  327ccc    H10 9318   6.857   6.535   8.048  1.5696 -0.5521  0.6557
  327ccc     O5 9319   7.033   6.660   8.059  0.3915  0.4159  0.0441
  327ccc    H11 9320   7.036   6.595   7.986 -0.6692 -0.3079  0.6133
  327ccc     O6 9321   6.853   6.790   8.277  0.0612  0.1478  0.4339
  328ccc     C1 9322   5.408   8.247   7.330  0.0161 -0.5452  0.0033
  328ccc     C2 9323   5.426   8.108   7.280 -0.1545 -0.1926 -0.2948
  328ccc     H1 9324   5.470   8.314   7.270  1.1357 -1.1691  0.4416
  328ccc     H2 9325   5.405   8.096   7.173 -3.2810 -0.2507  0.2331
  328ccc     C3 9326   5.573   8.071   7.290 -0.3219  0.0510  0.3876
  328ccc     C4 9327   5.623   8.097   7.432  0.3526 -0.4188 -0.6933
  328ccc     C5 9328   5.584   8.235   7.491  0.3305  0.4770  0.2747
  328ccc     H3 9329   5.568   8.017   7.484  1.0433 -1.4005 -1.4396
  328ccc     H4 9330   5.627   8.141   7.225 -1.4719  1.6309  1.0560
  328ccc     H5 9331   5.650   8.310   7.445 -0.0321  0.9629  0.5265
  328ccc     O1 9332   5.619   8.227   7.639 -1.0398 -0.6407  0.2713
  328ccc     O2 9333   5.760   8.074   7.424 -0.6284  0.0322  0.0777
  328ccc     O3 9334   5.599   7.930   7.255 -0.4338  0.5402 -0.1528
  328ccc     O4 9335   5.339   8.020   7.354 -0.7548  0.4710 -0.3666
  328ccc     C6 9336   5.262   8.309   7.307 -0.3659  0.0779 -0.1790
  328ccc     H6 9337   5.570   7.873   7.329  1.8942 -1.2419 -0.4885
  328ccc     H7 9338   5.272   8.087   7.373 -0.0207  1.2185 -0.3829
  328ccc     H8 9339   5.770   8.012   7.350  2.1635  1.2229 -0.6617
  328ccc     H9 9340   5.230   8.289   7.204 -1.8204 -2.6916  0.6951
  328ccc    H10 9341   5.259   8.416   7.330  0.1714 -0.2663  1.7450
  328ccc     O5 9342   5.173   8.231   7.387  0.1703 -0.4734 -0.2513
  328ccc    H11 9343   5.189   8.266   7.476 -1.0999 -1.5938  0.4561
  328ccc     O6 9344   5.446   8.257   7.470 -0.0295  0.2352  0.5798
  329ccc     C1 9345   5.842   8.924   8.505 -0.5026 -0.4685  1.0055
  329ccc     C2 9346   5.898   9.045   8.420 -0.0271 -0.4042  0.1084
  329ccc     H1 9347   5.927   8.896   8.569  2.1706  0.7692 -1.6928
  329ccc     H2 9348   5.908   9.130   8.489 -0.4291  0.4140 -0.8045
  329ccc     C3 9349   6.029   9.012   8.339 -0.4104  0.0279  0.1768
  329ccc     C4 9350   6.015   8.875   8.259 -0.5950 -0.3397 -1.0222
  329ccc     C5 9351   5.950   8.760   8.350 -0.3989  0.4656  1.2284
  329ccc     H3 9352   5.941   8.904   8.183 -1.5914  2.2467  0.7734
  329ccc     H4 9353   6.105   9.007   8.419  0.0743 -3.2334 -0.3542
  329ccc     H5 9354   6.017   8.729   8.430  0.2400  0.4094  0.6870
  329ccc     O1 9355   5.933   8.650   8.259 -0.7238  0.2528 -0.4683
  329ccc     O2 9356   6.139   8.836   8.193 -0.3010 -0.2599  0.0227
  329ccc     O3 9357   6.068   9.124   8.248 -0.5996 -0.7328 -0.2418
  329ccc     O4 9358   5.789   9.082   8.336  0.5346  0.8730  0.1643
  329ccc     C6 9359   5.713   8.948   8.592  0.3885 -0.0186  0.9163
  329ccc     H6 9360   5.987   9.125   8.193 -1.7029  1.6072  1.2907
  329ccc     H7 9361   5.716   9.060   8.397 -0.5105  0.3812 -1.2109
  329ccc     H8 9362   6.160   8.911   8.134  1.1369  2.3066  3.4885
  329ccc     H9 9363   5.740   9.026   8.665  2.0367 -1.6841  2.1740
  329ccc    H10 9364   5.690   8.861   8.654  0.7521 -0.3792  0.5553
  329ccc     O5 9365   5.607   8.987   8.513  0.0714 -0.1142  0.4157
  329ccc    H11 9366   5.530   8.960   8.567  0.5093 -2.2068  0.0953
  329ccc     O6 9367   5.818   8.811   8.405  0.5656 -0.2375 -0.7713
  330ccc     C1 9368   7.226   7.048   9.885  0.2172 -0.0780 -0.6342
  330ccc     C2 9369   7.116   7.132   9.933  0.7203 -0.1220  0.4797
  330ccc     H1 9370   7.305   7.061   9.960  2.0201 -2.0998 -2.0652
  330ccc     H2 9371   7.076   7.112  10.034  0.6626  1.8985  0.8945
  330ccc     C3 9372   7.163   7.281   9.937 -0.2366  0.4767  0.6618
  330ccc     C4 9373   7.207   7.328   9.793 -0.2344  0.5778  0.8077
  330ccc     C5 9374   7.300   7.219   9.722  0.4189  0.0476 -0.3321
  330ccc     H3 9375   7.118   7.330   9.730  0.7487 -0.7264 -0.7009
  330ccc     H4 9376   7.253   7.286   9.999 -1.0815 -1.9342  2.1879
  330ccc     H5 9377   7.404   7.232   9.755  1.4355 -0.8288 -2.9388
  330ccc     O1 9378   7.296   7.248   9.581 -0.5772 -0.0480 -0.5251
  330ccc     O2 9379   7.273   7.456   9.792  0.1298  0.0605 -0.4740
  330ccc     O3 9380   7.060   7.371   9.992  0.1943  0.3224  0.2209
  330ccc     O4 9381   7.006   7.121   9.835 -0.4185 -0.2159  0.0030
  330ccc     C6 9382   7.194   6.902   9.889 -0.1523  0.8413 -0.1874
  330ccc     H6 9383   7.079   7.412  10.079 -2.0113  1.7615  0.1269
  330ccc     H7 9384   6.940   7.172   9.886  0.3221  0.5708  0.2043
  330ccc     H8 9385   7.209   7.521   9.827  1.2681  1.4159 -0.8425
  330ccc     H9 9386   7.123   6.883   9.807  0.8720  0.4633 -1.0118
  330ccc    H10 9387   7.157   6.879   9.990 -0.8012 -0.1252 -0.6248
  330ccc     O5 9388   7.306   6.822   9.850 -0.2749  0.4710 -0.2575
  330ccc    H11 9389   7.300   6.737   9.896  1.3801 -0.3543 -1.4858
  330ccc     O6 9390   7.259   7.084   9.750  0.5293 -0.3670 -0.0352
  331ccc     C1 9391   7.360   6.300   9.187  0.1771  0.0812 -0.9033
  331ccc     C2 9392   7.208   6.274   9.167  0.5678 -0.1127 -0.2861
  331ccc     H1 9393   7.384   6.269   9.289  0.8665  2.7395 -0.2006
  331ccc     H2 9394   7.172   6.170   9.169  0.4820 -0.0897 -0.5528
  331ccc     C3 9395   7.123   6.370   9.258 -0.7807  0.3295 -0.1945
  331ccc     C4 9396   7.179   6.513   9.242  0.0313 -0.1300 -0.4337
  331ccc     C5 9397   7.334   6.529   9.265  0.6175 -0.2557 -0.0130
  331ccc     H3 9398   7.153   6.534   9.137 -2.3444 -1.3654 -0.1732
  331ccc     H4 9399   7.154   6.340   9.359 -1.1883 -0.0810 -0.1912
  331ccc     H5 9400   7.363   6.521   9.370  0.3279  0.1049  0.0943
  331ccc     O1 9401   7.370   6.666   9.230  0.2754  0.0925 -0.1073
  331ccc     O2 9402   7.104   6.601   9.333  0.5387  0.3671  0.1635
  331ccc     O3 9403   6.981   6.371   9.243  0.2309  0.2086 -0.2780
  331ccc     O4 9404   7.187   6.314   9.026 -0.3382 -0.2955  0.5167
  331ccc     C6 9405   7.444   6.222   9.090 -0.6672 -0.7007 -0.0728
  331ccc     H6 9406   6.958   6.412   9.158 -1.9018 -0.0303  0.1395
  331ccc     H7 9407   7.135   6.243   8.985  1.0329  0.1645 -2.2510
  331ccc     H8 9408   7.011   6.605   9.304  0.2068  0.1282  1.1457
  331ccc     H9 9409   7.473   6.287   9.007  2.3125  1.1440  2.2034
  331ccc    H10 9410   7.398   6.132   9.048  0.3188 -1.5350  0.6051
  331ccc     O5 9411   7.562   6.178   9.159  0.7530 -0.0323  0.0850
  331ccc    H11 9412   7.585   6.093   9.118 -0.8252  0.1432 -1.3034
  331ccc     O6 9413   7.403   6.438   9.179  0.4763 -0.1657  0.3535
  332ccc     C1 9414   7.068   6.204   8.698 -0.3135 -0.0473  0.1514
  332ccc     C2 9415   7.039   6.084   8.784  0.1485  0.6081 -0.1193
  332ccc     H1 9416   7.060   6.166   8.596  0.0677  0.6131 -0.1311
  332ccc     H2 9417   6.937   6.053   8.761  0.4825 -0.5928 -0.0745
  332ccc     C3 9418   7.139   5.966   8.753 -1.4779  1.2242  0.1963
  332ccc     C4 9419   7.291   6.018   8.763 -0.1753 -0.1411  0.2154
  332ccc     C5 9420   7.311   6.161   8.704 -0.4880 -0.2937  0.2770
  332ccc     H3 9421   7.306   6.036   8.870 -1.0415  1.6271  0.0719
  332ccc     H4 9422   7.115   5.933   8.652 -1.1241 -0.3958  0.6054
  332ccc     H5 9423   7.322   6.143   8.597  0.0585  1.3943  0.0171
  332ccc     O1 9424   7.425   6.229   8.756  0.3168  0.1684 -0.7735
  332ccc     O2 9425   7.389   5.918   8.709  0.2104  0.9849 -0.2027
  332ccc     O3 9426   7.114   5.853   8.844 -0.2944  0.1762  0.3685
  332ccc     O4 9427   7.049   6.122   8.927 -0.1929 -0.0035 -0.0334
  332ccc     C6 9428   6.964   6.319   8.723  0.2812  0.1163 -0.1246
  332ccc     H6 9429   7.136   5.766   8.806 -2.0829 -1.2313  2.3383
  332ccc     H7 9430   6.972   6.085   8.974 -1.6719  2.4033 -0.4135
  332ccc     H8 9431   7.387   5.863   8.789 -4.3967  1.3321  0.2174
  332ccc     H9 9432   6.970   6.357   8.826 -1.5692  1.0508 -0.3161
  332ccc    H10 9433   6.861   6.286   8.704  0.6565 -2.2003  1.4749
  332ccc     O5 9434   7.002   6.418   8.624 -0.0510  0.0868  0.0808
  332ccc    H11 9435   7.091   6.386   8.599  1.9852  1.3223  4.7104
  332ccc     O6 9436   7.196   6.250   8.734  0.6107  0.2915  0.9526
  333ccc     C1 9437   7.805   6.073   8.464  0.8552  0.2629 -0.2020
  333ccc     C2 9438   7.698   5.983   8.534 -0.8662 -0.9912  0.3159
  333ccc     H1 9439   7.896   6.017   8.439  0.8293 -0.3539  1.0168
  333ccc     H2 9440   7.659   5.907   8.465 -3.5387 -0.9541  1.6750
  333ccc     C3 9441   7.761   5.919   8.656 -0.2904 -0.4637 -0.3204
  333ccc     C4 9442   7.811   6.032   8.746  0.2211 -0.2790  0.8096
  333ccc     C5 9443   7.901   6.131   8.673 -0.1782  0.6733  0.6121
  333ccc     H3 9444   7.730   6.096   8.785  0.2563  0.9585 -1.0009
  333ccc     H4 9445   7.846   5.858   8.621 -0.9824 -1.7719  0.2025
  333ccc     H5 9446   7.989   6.074   8.640 -1.4062 -0.2452 -1.2632
  333ccc     O1 9447   7.941   6.238   8.763  0.8646  0.1172 -0.1820
  333ccc     O2 9448   7.887   5.963   8.854 -0.1906 -0.3411  0.7483
  333ccc     O3 9449   7.662   5.844   8.722  0.1019  0.0382  0.6462
  333ccc     O4 9450   7.585   6.061   8.573 -0.2502 -0.4491 -0.3898
  333ccc     C6 9451   7.752   6.138   8.332  0.0860  0.2715 -0.0794
  333ccc     H6 9452   7.721   5.788   8.776  0.7937  0.3215  0.1987
  333ccc     H7 9453   7.523   6.010   8.627 -2.2262  1.0983 -1.0753
  333ccc     H8 9454   7.910   6.039   8.910 -0.8564  0.4217  0.0109
  333ccc     H9 9455   7.707   6.066   8.263 -0.2311  1.2857 -0.9688
  333ccc    H10 9456   7.840   6.181   8.283  2.1003 -3.4181 -0.0195
  333ccc     O5 9457   7.650   6.226   8.376  0.3014 -0.0610 -0.3469
  333ccc    H11 9458   7.621   6.175   8.453 -0.9693  0.7072 -0.2829
  333ccc     O6 9459   7.830   6.176   8.557 -0.5602  0.5758 -0.0085
  334ccc     C1 9460   5.320  10.617   9.805  0.2572  0.1897 -0.0592
  334ccc     C2 9461   5.254  10.550   9.682 -0.9851 -0.1363 -0.7188
  334ccc     H1 9462   5.266  10.710   9.828 -2.3239 -1.4442  0.9447
  334ccc     H2 9463   5.152  10.529   9.716 -1.0604 -0.8760 -1.3942
  334ccc     C3 9464   5.274  10.648   9.569 -0.2038  0.0744  0.0036
  334ccc     C4 9465   5.423  10.669   9.548 -0.6897  0.0392  0.1935
  334ccc     C5 9466   5.488  10.729   9.669 -0.3021  0.1449  0.1100
  334ccc     H3 9467   5.477  10.575   9.539 -0.0294  0.4654 -0.5095
  334ccc     H4 9468   5.217  10.740   9.584  1.7622  1.3966 -0.3009
  334ccc     H5 9469   5.451  10.830   9.694 -1.5607 -0.4583  0.7512
  334ccc     O1 9470   5.634  10.729   9.662  0.0395  0.1559  0.3513
  334ccc     O2 9471   5.432  10.737   9.423  0.4377 -1.1308 -0.4051
  334ccc     O3 9472   5.217  10.592   9.441  0.3660  0.3358 -0.7024
  334ccc     O4 9473   5.330  10.437   9.668 -0.0965 -0.6703  0.2647
  334ccc     C6 9474   5.312  10.535   9.939 -0.9350  0.2855 -0.3407
  334ccc     H6 9475   5.193  10.500   9.464 -1.0762  0.9176  0.2505
  334ccc     H7 9476   5.345  10.416   9.762  0.6337 -2.1418 -0.1529
  334ccc     H8 9477   5.359  10.700   9.370 -1.2732 -0.8848  1.6644
  334ccc     H9 9478   5.209  10.552   9.972 -1.4672  2.8830 -2.9244
  334ccc    H10 9479   5.373  10.588  10.013 -1.0596  0.6170 -0.4772
  334ccc     O5 9480   5.360  10.409   9.919 -0.0721  0.8417 -0.4549
  334ccc    H11 9481   5.353  10.374  10.010 -0.7102  0.0722 -0.7821
  334ccc     O6 9482   5.461  10.649   9.785  0.3916  0.3294  0.1665
  335ccc     C1 9483   6.125  10.440  10.357 -0.4951 -0.0127  0.3126
  335ccc     C2 9484   6.031  10.326  10.385  0.4842  0.6678  0.0884
  335ccc     H1 9485   6.077  10.534  10.385  0.8750  0.3287  1.6289
  335ccc     H2 9486   6.004  10.326  10.491 -1.1806 -2.8250 -0.1713
  335ccc     C3 9487   5.897  10.346  10.303  0.2218  0.0375  0.0608
  335ccc     C4 9488   5.937  10.357  10.151  0.1720  0.1231 -1.0653
  335ccc     C5 9489   6.030  10.482  10.130 -1.0098 -0.0105  0.6196
  335ccc     H3 9490   6.003  10.271  10.134  2.6322  1.4586  1.0007
  335ccc     H4 9491   5.854  10.442  10.334  1.9426  1.1200 -0.7295
  335ccc     H5 9492   5.976  10.573  10.159 -0.4022  0.6136 -0.1491
  335ccc     O1 9493   6.085  10.507   9.997 -0.4113  0.3906  0.3750
  335ccc     O2 9494   5.816  10.361  10.071  0.3419 -0.6553 -0.6755
  335ccc     O3 9495   5.811  10.228  10.335  0.0187  0.1317 -0.1084
  335ccc     O4 9496   6.104  10.205  10.351 -0.3877 -0.2778  0.0201
  335ccc     C6 9497   6.271  10.440  10.427  0.5280 -0.2476 -0.6964
  335ccc     H6 9498   5.861  10.146  10.319  2.5247  0.6143  4.0172
  335ccc     H7 9499   6.192  10.242  10.372 -1.6630  4.0635 -1.2579
  335ccc     H8 9500   5.767  10.441  10.096 -0.6452 -0.9374 -1.6775
  335ccc     H9 9501   6.270  10.458  10.535  0.8527  2.0495 -1.0286
  335ccc    H10 9502   6.332  10.520  10.383  1.1865 -0.0913  0.4641
  335ccc     O5 9503   6.331  10.311  10.403 -0.6523  0.4787 -0.4269
  335ccc    H11 9504   6.368  10.331  10.315  3.3676  0.2540  1.0511
  335ccc     O6 9505   6.154  10.468  10.212  0.3438  0.1959  0.1308
  336ccc     C1 9506   4.841   9.695   9.532  0.1228  0.0362  0.1740
  336ccc     C2 9507   4.721   9.727   9.440 -0.0514  0.8572 -0.4712
  336ccc     H1 9508   4.817   9.755   9.621 -1.0648  1.7976 -1.2636
  336ccc     H2 9509   4.624   9.705   9.485  0.5938 -1.2732 -0.0111
  336ccc     C3 9510   4.707   9.878   9.395  0.2689 -0.3620 -0.4673
  336ccc     C4 9511   4.851   9.939   9.351  0.5854  0.0037  0.1079
  336ccc     C5 9512   4.970   9.885   9.448  0.2817 -0.0095  0.1957
  336ccc     H3 9513   4.876   9.897   9.252  0.9325  1.0805 -0.2815
  336ccc     H4 9514   4.665   9.934   9.479  1.7563 -2.2347  1.6478
  336ccc     H5 9515   4.977   9.938   9.543 -1.5758  2.0954 -0.7537
  336ccc     O1 9516   5.096   9.912   9.377  0.0931 -0.0887 -0.0523
  336ccc     O2 9517   4.857  10.075   9.325 -0.7335  0.5861  0.3512
  336ccc     O3 9518   4.615   9.893   9.285  0.1749  0.0607  0.7394
  336ccc     O4 9519   4.730   9.645   9.316 -0.2640 -0.0843  0.4665
  336ccc     C6 9520   4.848   9.549   9.569  0.3350  0.7085 -0.3375
  336ccc     H6 9521   4.596   9.987   9.270  1.1085  0.2592  0.8035
  336ccc     H7 9522   4.690   9.708   9.253  1.3524  1.0826  0.5301
  336ccc     H8 9523   4.950  10.104   9.328 -0.9234  1.2684 -0.0806
  336ccc     H9 9524   4.891   9.503   9.480 -0.9362 -2.4116  0.5211
  336ccc    H10 9525   4.745   9.513   9.576  0.7311 -0.1904  1.7480
  336ccc     O5 9526   4.916   9.537   9.694  0.2398 -0.4895 -0.2016
  336ccc    H11 9527   4.874   9.471   9.753  0.7113  0.5572  1.3697
  336ccc     O6 9528   4.961   9.744   9.482 -0.0358 -0.0788 -0.1602
  337ccc     C1 9529   5.129   9.124   8.849 -0.1703  0.1617 -0.3972
  337ccc     C2 9530   5.026   9.070   8.950  1.0886 -0.0250 -0.1122
  337ccc     H1 9531   5.216   9.057   8.844 -0.9212 -0.8692 -0.0585
  337ccc     H2 9532   5.002   8.965   8.928  0.7734  0.0718 -0.2382
  337ccc     C3 9533   5.075   9.076   9.096  0.1864  0.7979 -0.4665
  337ccc     C4 9534   5.133   9.216   9.135 -0.0232 -0.4721 -0.1996
  337ccc     C5 9535   5.241   9.252   9.028 -0.5788  0.4479 -0.2969
  337ccc     H3 9536   5.056   9.293   9.124  0.8769  0.5526  0.3552
  337ccc     H4 9537   5.160   9.009   9.105 -0.3346  0.0770 -0.8259
  337ccc     H5 9538   5.318   9.174   9.032 -1.8742 -0.8030  1.0798
  337ccc     O1 9539   5.291   9.382   9.063  0.2391 -0.1253  0.5800
  337ccc     O2 9540   5.179   9.216   9.266 -0.2962 -0.6382  0.3699
  337ccc     O3 9541   4.964   9.051   9.189 -0.0283 -0.2569  0.4439
  337ccc     O4 9542   4.920   9.157   8.937 -0.0713  0.6328  0.3193
  337ccc     C6 9543   5.081   9.148   8.704  0.4835 -0.7165 -0.1906
  337ccc     H6 9544   4.975   8.960   9.222 -0.2253 -0.8287 -0.9916
  337ccc     H7 9545   4.853   9.108   8.989 -0.7017  0.5519 -0.5444
  337ccc     H8 9546   5.110   9.188   9.329  1.5382 -2.4983  1.7070
  337ccc     H9 9547   5.034   9.247   8.695 -0.6532 -1.2427 -0.2390
  337ccc    H10 9548   5.011   9.071   8.669 -0.2482  0.0813 -0.5164
  337ccc     O5 9549   5.192   9.135   8.621 -0.4252  0.5458 -0.3253
  337ccc    H11 9550   5.258   9.200   8.651 -1.6249  1.2227  0.9254
  337ccc     O6 9551   5.180   9.254   8.898  0.2294 -0.3585  0.4195
  338ccc     C1 9552   7.134  10.428   8.150 -0.2066  0.2513 -0.4080
  338ccc     C2 9553   7.256  10.412   8.241 -0.2251  0.3713  0.7517
  338ccc     H1 9554   7.155  10.448   8.044  0.9862 -0.5566 -0.3502
  338ccc     H2 9555   7.328  10.341   8.199  0.3000  0.1351  1.9967
  338ccc     C3 9556   7.350  10.539   8.243 -0.3219 -0.3349  0.2566
  338ccc     C4 9557   7.275  10.670   8.283  0.7080  0.2348  0.2699
  338ccc     C5 9558   7.138  10.671   8.200 -0.3672 -0.0152  0.5104
  338ccc     H3 9559   7.246  10.642   8.385 -0.4412  0.5593  0.0409
  338ccc     H4 9560   7.387  10.546   8.140 -1.3135 -1.6795 -0.2199
  338ccc     H5 9561   7.171  10.690   8.097  1.7030  0.0527  1.1312
  338ccc     O1 9562   7.054  10.782   8.243 -0.7150  0.4430  0.2092
  338ccc     O2 9563   7.361  10.788   8.277  0.0515  0.0713  0.0600
  338ccc     O3 9564   7.451  10.502   8.337 -0.3597 -0.0247 -0.0248
  338ccc     O4 9565   7.204  10.373   8.368 -0.1517 -0.1023  0.3502
  338ccc     C6 9566   7.040  10.305   8.148 -0.1013  0.6105  0.6415
  338ccc     H6 9567   7.520  10.570   8.336  0.6768 -1.0370  0.2364
  338ccc     H7 9568   7.277  10.395   8.429  0.1714  1.6206 -0.6036
  338ccc     H8 9569   7.370  10.822   8.367  0.2401  2.1729 -0.7002
  338ccc     H9 9570   6.986  10.295   8.243  1.4877  0.2090  1.5322
  338ccc    H10 9571   7.091  10.212   8.122  0.2509  1.5479 -2.3752
  338ccc     O5 9572   6.946  10.327   8.039 -0.7268 -0.6128 -0.3757
  338ccc    H11 9573   6.913  10.237   8.021 -1.9476 -0.2234 -0.1684
  338ccc     O6 9574   7.064  10.539   8.205 -0.5470 -0.7601  0.3906
  339ccc     C1 9575   6.281  11.325   8.478 -0.1300  0.1186 -0.0596
  339ccc     C2 9576   6.276  11.478   8.493 -0.2758  0.2449  0.3455
  339ccc     H1 9577   6.334  11.281   8.563  0.2962 -1.0467 -0.8970
  339ccc     H2 9578   6.236  11.497   8.593  0.0916 -1.0149  0.7561
  339ccc     C3 9579   6.409  11.556   8.482  0.8922  0.8240 -0.3812
  339ccc     C4 9580   6.471  11.518   8.346 -0.2578  0.2811 -0.7767
  339ccc     C5 9581   6.485  11.365   8.331  0.4655  0.3535 -0.0045
  339ccc     H3 9582   6.398  11.554   8.272  0.2801 -0.3858 -1.6574
  339ccc     H4 9583   6.476  11.519   8.561  1.3027  0.5997 -0.8296
  339ccc     H5 9584   6.568  11.322   8.388  0.2217 -2.4341 -1.5732
  339ccc     O1 9585   6.510  11.333   8.195 -0.1844 -0.3238  0.3017
  339ccc     O2 9586   6.601  11.580   8.334  0.0942 -0.1570 -0.1992
  339ccc     O3 9587   6.389  11.695   8.496 -0.3377 -0.2356  0.3863
  339ccc     O4 9588   6.176  11.525   8.394 -0.4771 -0.4272  0.2689
  339ccc     C6 9589   6.134  11.261   8.461  0.1975  0.9762 -0.2387
  339ccc     H6 9590   6.339  11.724   8.418  2.6267  1.6771 -1.0046
  339ccc     H7 9591   6.141  11.611   8.423 -1.0492 -0.4412 -0.3389
  339ccc     H8 9592   6.637  11.565   8.244 -0.5231  2.2206 -0.9158
  339ccc     H9 9593   6.104  11.257   8.356  1.1298 -1.6361 -0.4803
  339ccc    H10 9594   6.061  11.317   8.521  0.6913  1.3499  0.0198
  339ccc     O5 9595   6.133  11.128   8.527 -0.5943  0.5181 -0.8830
  339ccc    H11 9596   6.044  11.095   8.504 -0.8819  1.4558 -1.1693
  339ccc     O6 9597   6.361  11.292   8.366  0.1779 -0.0788 -0.3430
  340ccc     C1 9598   5.371  11.251   9.304  0.0077  0.4374  1.1907
  340ccc     C2 9599   5.385  11.215   9.453  0.0848  0.3632 -0.1522
  340ccc     H1 9600   5.311  11.175   9.254  2.2976 -1.0248  0.5023
  340ccc     H2 9601   5.284  11.198   9.491  0.4671  2.8607  2.3024
  340ccc     C3 9602   5.461  11.081   9.476  0.4570 -0.1338 -0.6290
  340ccc     C4 9603   5.597  11.080   9.408 -0.1747  0.2673  0.6179
  340ccc     C5 9604   5.581  11.125   9.257 -0.7588 -0.3585 -0.0597
  340ccc     H3 9605   5.657  11.151   9.465  0.4411  0.0101  0.3097
  340ccc     H4 9606   5.396  11.007   9.428 -0.9999  0.9303 -0.3589
  340ccc     H5 9607   5.537  11.046   9.196 -0.3413 -0.1515 -0.6416
  340ccc     O1 9608   5.715  11.142   9.200 -0.1646 -0.0969 -0.5164
  340ccc     O2 9609   5.652  10.938   9.419 -0.5037 -0.0318 -0.0562
  340ccc     O3 9610   5.471  11.061   9.617  0.7336  0.3556 -0.2075
  340ccc     O4 9611   5.444  11.319   9.526 -0.5683 -0.5559  0.0245
  340ccc     C6 9612   5.304  11.382   9.279  0.5119 -0.2215 -0.2021
  340ccc     H6 9613   5.542  11.118   9.650  0.7304  0.8715 -1.0587
  340ccc     H7 9614   5.372  11.358   9.580 -0.3451 -1.2217  0.8301
  340ccc     H8 9615   5.577  10.882   9.444  0.4021 -0.5182  1.7703
  340ccc     H9 9616   5.352  11.468   9.327 -2.9280  1.0792  1.2005
  340ccc    H10 9617   5.201  11.394   9.316  0.1605  1.4073 -1.5934
  340ccc     O5 9618   5.293  11.411   9.135 -0.2508  0.2710 -0.1665
  340ccc    H11 9619   5.216  11.468   9.120 -0.5669 -0.3078 -0.8080
  340ccc     O6 9620   5.506  11.251   9.245 -0.0143 -0.6111 -0.0025
  341ccc     C1 9621   6.521  10.463   9.305 -0.1764  0.5165  0.7678
  341ccc     C2 9622   6.517  10.308   9.299  0.3072 -0.1926 -0.0200
  341ccc     H1 9623   6.540  10.497   9.407  0.3995  0.7974  0.5739
  341ccc     H2 9624   6.607  10.261   9.342  0.9895  1.0091 -0.0828
  341ccc     C3 9625   6.387  10.263   9.371 -0.2111 -0.4128 -0.0004
  341ccc     C4 9626   6.255  10.334   9.330  0.0539 -0.5972  0.2907
  341ccc     C5 9627   6.273  10.490   9.330 -0.5726  0.3088  0.2340
  341ccc     H3 9628   6.243  10.304   9.225 -2.7363  0.2179  0.3066
  341ccc     H4 9629   6.406  10.280   9.478  1.4744 -0.4699 -0.2540
  341ccc     H5 9630   6.289  10.509   9.437 -0.1463 -2.5036  0.7562
  341ccc     O1 9631   6.157  10.552   9.268 -0.0121  0.3205  0.1032
  341ccc     O2 9632   6.147  10.294   9.421 -0.0157  0.2715  1.0193
  341ccc     O3 9633   6.387  10.118   9.363  0.1349 -0.1507 -0.2726
  341ccc     O4 9634   6.509  10.276   9.152  0.3489  0.2750  0.2529
  341ccc     C6 9635   6.642  10.522   9.235 -0.1477 -0.3385  0.2380
  341ccc     H6 9636   6.323  10.103   9.435 -0.1452 -1.6300 -0.7995
  341ccc     H7 9637   6.502  10.180   9.140  0.9509  0.4927 -2.5551
  341ccc     H8 9638   6.060  10.323   9.388 -0.6673  0.1563  2.5734
  341ccc     H9 9639   6.734  10.476   9.271  1.3988  0.7179 -2.1069
  341ccc    H10 9640   6.638  10.631   9.252  2.4271  0.0533 -1.1104
  341ccc     O5 9641   6.629  10.493   9.100 -0.0624 -0.5803  0.4080
  341ccc    H11 9642   6.565  10.420   9.099  0.0598 -0.6879  0.0413
  341ccc     O6 9643   6.396  10.525   9.260  0.1861 -0.4478  0.0483
  342ccc     C1 9644   4.578   9.226   9.345 -0.0080  0.4496 -0.3682
  342ccc     C2 9645   4.683   9.146   9.263 -0.0158 -0.0768  0.6472
  342ccc     H1 9646   4.509   9.153   9.387  0.0851 -0.3726 -1.5983
  342ccc     H2 9647   4.722   9.059   9.319 -3.5646 -2.5312 -0.3409
  342ccc     C3 9648   4.621   9.091   9.142  0.0063  0.2617 -0.0316
  342ccc     C4 9649   4.549   9.200   9.061 -0.5733  0.5359  0.0917
  342ccc     C5 9650   4.441   9.275   9.148  0.6921 -0.0210  0.2676
  342ccc     H3 9651   4.629   9.271   9.035 -0.6655  0.6352  0.0779
  342ccc     H4 9652   4.546   9.018   9.175 -0.8241  0.3001 -1.7351
  342ccc     H5 9653   4.361   9.205   9.177  0.7341 -0.6071 -0.9395
  342ccc     O1 9654   4.377   9.378   9.071  0.2045 -0.4251 -0.1807
  342ccc     O2 9655   4.483   9.147   8.943 -0.0639 -0.1754 -0.1632
  342ccc     O3 9656   4.709   9.021   9.056  0.2295  0.2491  0.1747
  342ccc     O4 9657   4.787   9.241   9.230 -0.3511  0.0405 -0.1102
  342ccc     C6 9658   4.652   9.280   9.471 -0.1841 -0.2877  0.1266
  342ccc     H6 9659   4.646   8.971   9.001 -1.4209  1.7968  0.5517
  342ccc     H7 9660   4.855   9.175   9.207 -2.2377 -3.3442  2.9199
  342ccc     H8 9661   4.413   9.100   8.992 -0.2642  0.1262 -0.1567
  342ccc     H9 9662   4.730   9.350   9.440  2.6975 -1.9993  2.8817
  342ccc    H10 9663   4.705   9.202   9.528 -0.9359  0.9511  2.7036
  342ccc     O5 9664   4.547   9.345   9.537  0.3468 -0.2260 -0.2302
  342ccc    H11 9665   4.500   9.358   9.452 -0.2522 -1.3450 -0.0860
  342ccc     O6 9666   4.508   9.327   9.264  0.3482  0.2865 -0.1141
  343ccc     C1 9667   3.611   9.547   8.822 -0.0428  1.0530  0.2202
  343ccc     C2 9668   3.593   9.409   8.887 -0.6054 -0.0883 -0.1317
  343ccc     H1 9669   3.558   9.552   8.726  2.5644  1.0277 -1.2990
  343ccc     H2 9670   3.491   9.377   8.910 -0.0346 -1.2510  0.8929
  343ccc     C3 9671   3.661   9.296   8.809  0.5940  0.8656 -0.0708
  343ccc     C4 9672   3.807   9.326   8.792 -0.0278 -0.6191  0.1956
  343ccc     C5 9673   3.830   9.466   8.728  0.5087  0.2017 -0.2983
  343ccc     H3 9674   3.862   9.337   8.886  0.7003  0.0805 -0.3020
  343ccc     H4 9675   3.610   9.293   8.712 -1.8018 -0.1581  1.1367
  343ccc     H5 9676   3.794   9.454   8.625  0.9620  0.4414 -0.4877
  343ccc     O1 9677   3.969   9.500   8.722  0.1720  0.0136 -0.7477
  343ccc     O2 9678   3.873   9.223   8.710  0.1652  0.1276 -0.0625
  343ccc     O3 9679   3.631   9.165   8.865 -0.4128  0.1089  0.1005
  343ccc     O4 9680   3.665   9.423   9.009  0.4585  0.1848 -0.0777
  343ccc     C6 9681   3.558   9.666   8.908 -0.2720  0.3698 -0.3953
  343ccc     H6 9682   3.684   9.169   8.947 -0.0133  3.2205 -0.1906
  343ccc     H7 9683   3.658   9.518   9.028  0.1663  0.2195 -0.3666
  343ccc     H8 9684   3.828   9.143   8.740  0.4838 -1.3735 -3.2258
  343ccc     H9 9685   3.457   9.635   8.940 -0.0673  0.2541  0.1457
  343ccc    H10 9686   3.553   9.756   8.845  2.0217 -0.0121 -1.2105
  343ccc     O5 9687   3.639   9.688   9.022  0.4467 -0.3380 -0.3695
  343ccc    H11 9688   3.589   9.766   9.053  0.2046 -0.2805 -0.9054
  343ccc     O6 9689   3.755   9.568   8.788  0.5455  0.4069 -0.5769
  344ccc     C1 9690   4.191   9.015   7.855 -0.6067  0.1467  0.0977
  344ccc     C2 9691   4.254   8.895   7.935  0.0288 -0.6836 -0.0064
  344ccc     H1 9692   4.203   8.990   7.749 -0.8111 -0.6164  0.2463
  344ccc     H2 9693   4.206   8.797   7.921  0.2554 -1.0253  1.3856
  344ccc     C3 9694   4.410   8.887   7.904 -0.4288 -0.0201  0.0989
  344ccc     C4 9695   4.479   9.030   7.925 -0.4365  0.8086 -0.6768
  344ccc     C5 9696   4.400   9.149   7.864 -0.3892 -0.5327  0.0930
  344ccc     H3 9697   4.495   9.049   8.032  3.1450  0.2607 -0.9892
  344ccc     H4 9698   4.412   8.870   7.795 -0.8468 -0.0565  0.0938
  344ccc     H5 9699   4.410   9.151   7.755 -1.9074  2.0270 -0.0665
  344ccc     O1 9700   4.459   9.261   7.932 -0.1500  0.4153  0.6618
  344ccc     O2 9701   4.611   9.028   7.865  0.0223 -0.3834  0.3251
  344ccc     O3 9702   4.488   8.773   7.967  0.1850  0.8200  0.5935
  344ccc     O4 9703   4.234   8.933   8.069 -0.3348 -0.0504 -0.2685
  344ccc     C6 9704   4.042   9.050   7.876  0.4248  0.1524 -0.2450
  344ccc     H6 9705   4.502   8.704   7.900  1.4949  0.1672  1.4881
  344ccc     H7 9706   4.176   9.011   8.062 -0.1681  0.3917  2.3520
  344ccc     H8 9707   4.670   8.973   7.918  0.1464 -1.0659 -0.4861
  344ccc     H9 9708   3.988   8.957   7.853 -0.8555  1.0268 -0.9180
  344ccc    H10 9709   4.007   9.120   7.800 -1.1561  0.9493  1.1392
  344ccc     O5 9710   4.021   9.103   8.007  0.2842  0.1626 -0.3202
  344ccc    H11 9711   3.925   9.096   8.019  0.1205  1.5325 -0.6098
  344ccc     O6 9712   4.260   9.138   7.881 -0.3771 -0.2854 -0.2930
  345ccc     C1 9713   4.604   9.669   7.334 -0.3832  0.1785 -0.1797
  345ccc     C2 9714   4.557   9.523   7.299  0.2727 -0.6434  0.6617
  345ccc     H1 9715   4.703   9.676   7.287 -1.5564  0.9712 -2.7312
  345ccc     H2 9716   4.559   9.512   7.190  0.3211 -0.2062  0.6155
  345ccc     C3 9717   4.639   9.411   7.380 -0.0675 -0.7379  0.2617
  345ccc     C4 9718   4.636   9.446   7.535 -0.3467  0.3198 -0.3997
  345ccc     C5 9719   4.692   9.592   7.560  0.5372  0.5337 -0.5091
  345ccc     H3 9720   4.530   9.457   7.559 -0.1260 -0.1112  0.8695
  345ccc     H4 9721   4.742   9.410   7.344 -0.1388  0.1261  0.0006
  345ccc     H5 9722   4.798   9.604   7.535  0.6237  1.6929  0.3377
  345ccc     O1 9723   4.667   9.628   7.699  0.2228  0.5074  0.3267
  345ccc     O2 9724   4.712   9.341   7.605  0.2568  0.8840  0.8664
  345ccc     O3 9725   4.586   9.279   7.357 -0.1938 -0.3628  0.0622
  345ccc     O4 9726   4.418   9.521   7.324  0.0358 -0.0908  0.0840
  345ccc     C6 9727   4.544   9.791   7.262 -1.0326 -0.2824  0.4499
  345ccc     H6 9728   4.511   9.269   7.418 -0.2078  0.7779  0.2468
  345ccc     H7 9729   4.397   9.615   7.313  1.2055  0.6761  3.3272
  345ccc     H8 9730   4.742   9.366   7.694  0.6788 -1.1618  1.3592
  345ccc     H9 9731   4.592   9.807   7.165  0.9862  0.9382  1.5789
  345ccc    H10 9732   4.576   9.878   7.321  1.6232  0.9751 -2.5537
  345ccc     O5 9733   4.400   9.780   7.256  0.3342  0.1335  0.5516
  345ccc    H11 9734   4.370   9.838   7.183  0.9433  0.3969  0.5105
  345ccc     O6 9735   4.610   9.685   7.482 -0.1952  0.1624  0.2852
  346ccc     C1 9736   5.575   9.565   6.810 -0.3707 -0.5454  1.0272
  346ccc     C2 9737   5.603   9.684   6.907 -0.4992 -0.2136 -0.0889
  346ccc     H1 9738   5.469   9.539   6.809 -0.7834  0.7771  3.1095
  346ccc     H2 9739   5.532   9.765   6.887 -1.1096 -0.7998 -0.3249
  346ccc     C3 9740   5.587   9.645   7.055  0.4107 -0.0950  0.3452
  346ccc     C4 9741   5.639   9.502   7.087 -0.5907  0.7481  0.0793
  346ccc     C5 9742   5.603   9.395   6.981 -0.0978 -0.0351 -0.2146
  346ccc     H3 9743   5.748   9.511   7.092 -0.3042 -2.1424  0.7658
  346ccc     H4 9744   5.483   9.634   7.087  0.6859  0.4509  1.4696
  346ccc     H5 9745   5.494   9.383   6.978 -0.2906  0.6396  2.1863
  346ccc     O1 9746   5.668   9.276   7.004  0.0555  0.3743  0.1170
  346ccc     O2 9747   5.587   9.455   7.221 -0.2184  0.2534  0.2535
  346ccc     O3 9748   5.643   9.746   7.146 -0.3991  0.6901  0.0577
  346ccc     O4 9749   5.739   9.724   6.896  0.4666 -0.0552 -0.0792
  346ccc     C6 9750   5.618   9.594   6.663 -0.5574 -0.3892  0.1080
  346ccc     H6 9751   5.590   9.744   7.227 -1.5838 -0.8691 -0.6999
  346ccc     H7 9752   5.763   9.735   6.990 -1.2430 -0.2880  0.4302
  346ccc     H8 9753   5.655   9.388   7.242 -0.0119  0.5196  0.4366
  346ccc     H9 9754   5.723   9.567   6.648 -0.1598  1.1035  0.1279
  346ccc    H10 9755   5.612   9.700   6.638  0.4452 -0.2831  0.2831
  346ccc     O5 9756   5.539   9.514   6.580 -0.3307  0.1430 -0.3043
  346ccc    H11 9757   5.591   9.433   6.564  0.0493  0.1956  0.6153
  346ccc     O6 9758   5.649   9.454   6.852 -0.1113 -0.4791 -0.1494
  347ccc     C1 9759   5.175   9.235   7.547  0.1237  0.2618 -0.1630
  347ccc     C2 9760   5.066   9.228   7.439 -0.7996  0.1347  0.8172
  347ccc     H1 9761   5.215   9.337   7.550  0.5187  0.1061 -0.0687
  347ccc     H2 9762   4.989   9.303   7.461 -0.8201  0.3468  0.0364
  347ccc     C3 9763   5.123   9.256   7.299  0.1550  0.0099 -0.1080
  347ccc     C4 9764   5.240   9.163   7.257 -0.0992  0.0738 -0.1313
  347ccc     C5 9765   5.341   9.158   7.372  0.1673 -0.4516  0.6158
  347ccc     H3 9766   5.196   9.063   7.254  0.3117 -0.1236  0.3345
  347ccc     H4 9767   5.169   9.354   7.313 -0.1729 -0.0966  1.9958
  347ccc     H5 9768   5.391   9.255   7.383 -3.0089  1.0787  3.6163
  347ccc     O1 9769   5.432   9.056   7.349  0.5397 -0.1236 -0.2994
  347ccc     O2 9770   5.290   9.211   7.133 -0.5288 -0.2938 -0.1002
  347ccc     O3 9771   5.010   9.252   7.204 -0.0854  0.1741  0.0672
  347ccc     O4 9772   5.012   9.098   7.438  0.1372 -0.1242 -0.3421
  347ccc     C6 9773   5.116   9.186   7.686 -0.0664 -0.2463  0.4425
  347ccc     H6 9774   4.974   9.342   7.217  1.9176  0.6099  4.1837
  347ccc     H7 9775   4.926   9.108   7.394 -0.2097 -1.8111 -0.1429
  347ccc     H8 9776   5.261   9.148   7.064 -1.7858  1.2985 -1.0948
  347ccc     H9 9777   5.095   9.078   7.679 -2.4011  0.2482 -1.1310
  347ccc    H10 9778   5.025   9.245   7.702  1.2506  1.6031  1.5055
  347ccc     O5 9779   5.210   9.218   7.790  0.2378  0.0282 -0.4461
  347ccc    H11 9780   5.285   9.163   7.761 -0.1825 -0.1816 -1.1679
  347ccc     O6 9781   5.275   9.144   7.501  0.0178 -0.0235 -0.1533
  348ccc     C1 9782   4.768   8.886   7.016 -0.4078 -0.0054 -0.0721
  348ccc     C2 9783   4.799   9.008   7.110 -0.3627  0.2320 -0.0220
  348ccc     H1 9784   4.661   8.879   6.991 -1.2023  0.9387  2.6923
  348ccc     H2 9785   4.781   9.101   7.056  0.3003  0.9591  0.9590
  348ccc     C3 9786   4.716   9.017   7.241 -0.4371 -0.3389 -0.3152
  348ccc     C4 9787   4.722   8.883   7.312 -0.9812 -0.9924  1.3680
  348ccc     C5 9788   4.704   8.758   7.219  0.5260 -0.2715 -0.4504
  348ccc     H3 9789   4.822   8.868   7.354 -0.5329 -1.2855  0.2331
  348ccc     H4 9790   4.610   9.036   7.218 -0.3641 -0.4939 -0.7805
  348ccc     H5 9791   4.598   8.761   7.190 -0.0633  0.9503  1.6317
  348ccc     O1 9792   4.754   8.646   7.284 -0.2165  0.4912 -0.3234
  348ccc     O2 9793   4.634   8.882   7.410 -0.0481  0.0762 -0.1341
  348ccc     O3 9794   4.770   9.115   7.334 -0.3382  0.0228  0.7261
  348ccc     O4 9795   4.941   9.015   7.143 -0.4225  0.4968 -0.2881
  348ccc     C6 9796   4.855   8.891   6.885 -1.1584 -0.5444 -0.4077
  348ccc     H6 9797   4.703   9.183   7.348 -0.0285  0.6349 -0.5776
  348ccc     H7 9798   4.942   9.094   7.199 -1.3390  2.1710 -2.4835
  348ccc     H8 9799   4.652   8.958   7.468 -2.1518 -0.0944  0.8462
  348ccc     H9 9800   4.851   8.988   6.834  0.7842 -0.9753 -1.4781
  348ccc    H10 9801   4.828   8.812   6.814 -0.9199  0.7250 -1.9849
  348ccc     O5 9802   4.986   8.858   6.935  0.3416 -0.8324 -0.1383
  348ccc    H11 9803   4.978   8.879   7.030 -2.9414 -0.0985 -0.4543
  348ccc     O6 9804   4.794   8.768   7.102  0.1585  0.0972 -0.2418
  349ccc     C1 9805   5.002   7.583   7.519  0.1271  0.2757  0.5634
  349ccc     C2 9806   4.968   7.508   7.646  0.5080 -0.3628  0.0834
  349ccc     H1 9807   5.110   7.604   7.521 -0.0770  1.3729  0.7653
  349ccc     H2 9808   5.029   7.418   7.665 -1.4789 -1.4815  1.5421
  349ccc     C3 9809   4.962   7.594   7.780 -0.1609 -0.4874 -0.3404
  349ccc     C4 9810   4.894   7.729   7.758  0.0424  0.1023  0.0512
  349ccc     C5 9811   4.958   7.802   7.636  0.0620  0.3917 -0.2667
  349ccc     H3 9812   4.792   7.704   7.725  0.0449 -1.0247  0.8805
  349ccc     H4 9813   5.064   7.610   7.817 -0.1338  0.2064 -0.6980
  349ccc     H5 9814   5.064   7.824   7.651 -0.0331  0.7616 -0.1048
  349ccc     O1 9815   4.884   7.928   7.620  0.1701 -0.1809  0.4884
  349ccc     O2 9816   4.904   7.823   7.871  0.0461 -0.6738 -0.1563
  349ccc     O3 9817   4.893   7.526   7.889  0.1561 -0.1067 -0.3951
  349ccc     O4 9818   4.831   7.464   7.623 -0.4386  0.7414 -0.4058
  349ccc     C6 9819   4.978   7.517   7.377  0.1212  0.1862 -0.2409
  349ccc     H6 9820   4.881   7.584   7.966 -0.5319 -1.7031  0.7576
  349ccc     H7 9821   4.811   7.491   7.532  2.8118  0.4201 -1.3392
  349ccc     H8 9822   4.823   7.806   7.921  0.3897 -1.6127  0.0946
  349ccc     H9 9823   5.010   7.413   7.385 -1.2346 -0.1176  2.9388
  349ccc    H10 9824   5.029   7.560   7.290  2.9699  0.0788  1.2558
  349ccc     O5 9825   4.830   7.513   7.362 -0.0509 -0.6077 -0.5490
  349ccc    H11 9826   4.824   7.597   7.315  1.5654 -0.9997 -1.5417
  349ccc     O6 9827   4.938   7.714   7.518 -0.3852 -0.1512  0.1304
  350ccc     C1 9828   7.320   6.856   7.747  0.0129  0.9477 -0.0067
  350ccc     C2 9829   7.277   6.990   7.809 -0.1489  0.2183 -0.5925
  350ccc     H1 9830   7.359   6.788   7.824 -1.6328 -0.5169 -0.4240
  350ccc     H2 9831   7.201   6.972   7.886  0.8796 -0.2415  0.3298
  350ccc     C3 9832   7.399   7.050   7.888  0.3799  0.3777  0.5806
  350ccc     C4 9833   7.534   7.056   7.803  0.0017  0.0975  0.3263
  350ccc     C5 9834   7.561   6.922   7.730 -0.5244 -0.1412  0.5083
  350ccc     H3 9835   7.520   7.138   7.732  0.6947  0.2800  0.3989
  350ccc     H4 9836   7.413   6.978   7.970 -0.5681 -0.1114  0.3289
  350ccc     H5 9837   7.580   6.850   7.810 -0.6015  1.0674  1.6418
  350ccc     O1 9838   7.669   6.929   7.633  0.3954 -0.3613 -0.4514
  350ccc     O2 9839   7.639   7.091   7.894 -0.4103 -0.0847 -0.2072
  350ccc     O3 9840   7.358   7.184   7.932 -0.2536 -0.0750 -0.0760
  350ccc     O4 9841   7.218   7.072   7.714 -0.6200 -0.4507  0.1393
  350ccc     C6 9842   7.228   6.764   7.661 -0.1547 -0.0931  0.5684
  350ccc     H6 9843   7.428   7.211   7.994  1.5408 -2.1052 -1.0934
  350ccc     H7 9844   7.177   7.005   7.657  0.4585  0.5862 -1.9587
  350ccc     H8 9845   7.648   7.006   7.942 -2.0043 -0.8041 -1.1005
  350ccc     H9 9846   7.148   6.714   7.718 -1.4979 -0.2516 -1.3673
  350ccc    H10 9847   7.290   6.692   7.607 -0.6581  1.2410 -1.9193
  350ccc     O5 9848   7.154   6.854   7.576 -0.0662 -0.3367 -0.1178
  350ccc    H11 9849   7.075   6.807   7.544 -0.5300 -0.1452  0.7058
  350ccc     O6 9850   7.439   6.873   7.666  0.2691  0.3335 -0.6393
  351ccc     C1 9851   7.679   7.443   6.828 -0.5209 -0.3910  0.2022
  351ccc     C2 9852   7.597   7.569   6.870 -0.5906 -0.8023 -0.4509
  351ccc     H1 9853   7.608   7.376   6.777  0.3505 -0.0712 -1.5228
  351ccc     H2 9854   7.557   7.623   6.783  1.9025  1.4431 -0.3448
  351ccc     C3 9855   7.479   7.531   6.966 -0.1975  0.3689  0.1831
  351ccc     C4 9856   7.513   7.424   7.071  0.6186  0.7620 -0.4369
  351ccc     C5 9857   7.617   7.321   7.025  0.7943 -0.2457  0.3058
  351ccc     H3 9858   7.554   7.471   7.161  1.2549  0.5769 -0.6238
  351ccc     H4 9859   7.402   7.496   6.896 -0.0441  1.5547 -0.6073
  351ccc     H5 9860   7.568   7.236   6.976  1.4285  0.0760 -0.9064
  351ccc     O1 9861   7.684   7.270   7.147 -0.1463 -0.0288 -0.0830
  351ccc     O2 9862   7.390   7.362   7.113  0.5828 -0.2382 -0.2925
  351ccc     O3 9863   7.441   7.651   7.031 -0.2390 -1.2475 -0.5933
  351ccc     O4 9864   7.680   7.665   6.933 -0.0283 -0.2478 -0.3831
  351ccc     C6 9865   7.799   7.470   6.737  0.6960  0.2199  0.7342
  351ccc     H6 9866   7.347   7.639   7.054 -0.3311 -0.0801 -0.3005
  351ccc     H7 9867   7.618   7.708   6.995  1.3797 -1.7515  2.2891
  351ccc     H8 9868   7.338   7.320   7.042 -0.1124  0.8436 -0.4395
  351ccc     H9 9869   7.756   7.516   6.647 -0.0729 -2.5995 -0.4509
  351ccc    H10 9870   7.842   7.372   6.717 -0.9317  0.0691 -2.7259
  351ccc     O5 9871   7.879   7.558   6.815 -0.2765 -0.7486  0.0638
  351ccc    H11 9872   7.811   7.602   6.869 -0.8053 -0.2700 -0.9498
  351ccc     O6 9873   7.724   7.383   6.945  0.6492 -0.1086 -0.2440
  352ccc     C1 9874   6.848   7.276   6.880 -0.0680  0.3238  0.6757
  352ccc     C2 9875   6.932   7.209   6.766 -0.1736  0.3535 -0.3221
  352ccc     H1 9876   6.862   7.381   6.851  1.0630  0.2404  0.8674
  352ccc     H2 9877   6.896   7.240   6.667 -0.3332  3.1703  0.5152
  352ccc     C3 9878   7.085   7.237   6.779  0.6809  0.4171 -0.6552
  352ccc     C4 9879   7.119   7.209   6.924  0.4245 -0.0586  0.7687
  352ccc     C5 9880   7.038   7.285   7.032  0.0329  0.6194  0.1759
  352ccc     H3 9881   7.085   7.106   6.935 -3.6154  1.1796  1.2481
  352ccc     H4 9882   7.103   7.341   6.753  1.0490  0.8411  1.1721
  352ccc     H5 9883   7.060   7.391   7.021 -2.5091  1.0084 -2.3459
  352ccc     O1 9884   7.085   7.236   7.157 -0.0075  0.0557 -0.7778
  352ccc     O2 9885   7.262   7.226   6.936 -0.0917 -0.1010  0.0715
  352ccc     O3 9886   7.156   7.155   6.685 -0.5125  0.1275  0.0968
  352ccc     O4 9887   6.912   7.068   6.772 -0.0370 -0.1400 -0.0542
  352ccc     C6 9888   6.692   7.250   6.870 -0.4313  0.9521 -0.2292
  352ccc     H6 9889   7.123   7.065   6.703  0.7628 -0.4165 -0.1725
  352ccc     H7 9890   6.824   7.063   6.812 -0.2697  0.8902 -0.4099
  352ccc     H8 9891   7.292   7.173   6.860 -1.1467 -0.0151 -0.4254
  352ccc     H9 9892   6.669   7.279   6.766  1.0692  1.5370 -0.4353
  352ccc    H10 9893   6.633   7.313   6.939 -2.4530  0.2405 -1.2200
  352ccc     O5 9894   6.672   7.108   6.903  0.2710 -0.2785  0.0517
  352ccc    H11 9895   6.576   7.103   6.914  0.3045  1.0021  1.1097
  352ccc     O6 9896   6.895   7.250   7.016 -0.3496 -0.0179 -0.0471
  353ccc     C1 9897   7.383   6.593   7.212 -0.5828 -0.7428  0.1128
  353ccc     C2 9898   7.261   6.523   7.147  0.1632 -0.0640 -0.2242
  353ccc     H1 9899   7.370   6.586   7.321 -1.2567  1.0465  0.1778
  353ccc     H2 9900   7.247   6.423   7.190 -2.5993 -0.6344 -2.1227
  353ccc     C3 9901   7.133   6.605   7.176  0.0078  0.6909 -0.2660
  353ccc     C4 9902   7.141   6.759   7.154 -0.0353  1.0612  0.0382
  353ccc     C5 9903   7.277   6.819   7.198 -0.2610 -0.0734  0.0515
  353ccc     H3 9904   7.134   6.777   7.046 -1.5561 -1.0304 -0.2923
  353ccc     H4 9905   7.101   6.585   7.280  0.9935 -0.2205 -0.1189
  353ccc     H5 9906   7.266   6.841   7.305  1.2651  1.0878 -0.0114
  353ccc     O1 9907   7.291   6.943   7.132 -0.4594  0.5441 -0.0348
  353ccc     O2 9908   7.033   6.822   7.225  0.0205 -0.0658  0.2334
  353ccc     O3 9909   7.024   6.547   7.095 -0.3907 -0.2445  0.1876
  353ccc     O4 9910   7.275   6.526   7.001 -0.2828  0.8570  0.5803
  353ccc     C6 9911   7.519   6.521   7.183  0.0484 -0.4819  0.1775
  353ccc     H6 9912   6.943   6.592   7.126  0.7589  0.5668  2.2204
  353ccc     H7 9913   7.208   6.461   6.973 -0.6170  1.1758  0.6171
  353ccc     H8 9914   6.968   6.847   7.157  0.5057  0.9101  0.1197
  353ccc     H9 9915   7.545   6.541   7.078  0.9746 -2.2122  0.0436
  353ccc    H10 9916   7.507   6.413   7.192  3.5512 -1.0891 -1.0005
  353ccc     O5 9917   7.618   6.570   7.275  0.1308  0.2739 -0.2158
  353ccc    H11 9918   7.580   6.541   7.360 -0.6124 -0.4841 -0.7895
  353ccc     O6 9919   7.393   6.733   7.181  0.2222 -0.6017  0.7460
  354ccc     C1 9920   9.229   7.352   7.977  0.8652  0.6250  0.5734
  354ccc     C2 9921   9.241   7.337   7.821  1.2952  0.3090 -0.1957
  354ccc     H1 9922   9.257   7.257   8.025  0.4532  0.4851  0.5423
  354ccc     H2 9923   9.341   7.298   7.797  1.5075  0.0288  1.0983
  354ccc     C3 9924   9.128   7.247   7.768  0.1281  0.1317  0.0366
  354ccc     C4 9925   8.994   7.285   7.832  0.6550 -0.2628 -0.5194
  354ccc     C5 9926   8.995   7.285   7.991 -0.5725  0.0855  0.0194
  354ccc     H3 9927   8.970   7.388   7.802 -2.8011 -1.2959 -1.7921
  354ccc     H4 9928   9.141   7.142   7.796  0.4607  0.5361  1.4549
  354ccc     H5 9929   9.019   7.186   8.031 -0.1060  0.8126  1.5976
  354ccc     O1 9930   8.875   7.337   8.042 -0.8873  0.0972  0.0091
  354ccc     O2 9931   8.887   7.199   7.778  0.1572  0.2951  0.1898
  354ccc     O3 9932   9.131   7.260   7.624 -0.5340  0.1679  0.5133
  354ccc     O4 9933   9.222   7.466   7.760 -0.2773  0.3490 -0.2862
  354ccc     C6 9934   9.327   7.461   8.033 -0.2820  0.6230 -0.3920
  354ccc     H6 9935   9.100   7.174   7.592 -0.3704  0.5632 -0.7656
  354ccc     H7 9936   9.201   7.431   7.671 -1.9397  1.1552 -0.2524
  354ccc     H8 9937   8.897   7.214   7.683 -1.3345  0.7798  0.0913
  354ccc     H9 9938   9.306   7.554   7.980 -0.4214  1.0853  0.4627
  354ccc    H10 9939   9.431   7.432   8.013 -0.3347 -0.3864  0.7210
  354ccc     O5 9940   9.315   7.488   8.173 -0.2459 -0.3370  0.0391
  354ccc    H11 9941   9.369   7.565   8.198  0.6942 -0.8957 -0.2155
  354ccc     O6 9942   9.099   7.375   8.028  0.5870  0.3945  0.0358
  355ccc     C1 9943   7.910   7.296   7.990 -0.5900 -0.0027 -0.0551
  355ccc     C2 9944   7.971   7.207   7.881  0.4087  0.2490 -0.2155
  355ccc     H1 9945   7.826   7.359   7.959  0.5966  2.5729  1.6686
  355ccc     H2 9946   7.897   7.130   7.853  0.9064 -0.4432  0.3243
  355ccc     C3 9947   8.012   7.301   7.762  0.0564 -0.2465 -0.6049
  355ccc     C4 9948   8.116   7.409   7.805  0.1649  0.1548  0.1424
  355ccc     C5 9949   8.076   7.482   7.932 -0.2810 -0.1063 -0.2616
  355ccc     H3 9950   8.212   7.362   7.830 -0.6679 -0.3303  2.6507
  355ccc     H4 9951   7.926   7.347   7.712  1.1698  0.4328 -1.9727
  355ccc     H5 9952   8.000   7.561   7.923  0.9588  1.4079  1.7903
  355ccc     O1 9953   8.194   7.548   7.977 -0.0643  0.1134 -0.3848
  355ccc     O2 9954   8.134   7.501   7.699  0.4294 -0.2840  0.8033
  355ccc     O3 9955   8.071   7.221   7.657 -0.0385  0.2133  0.0210
  355ccc     O4 9956   8.081   7.133   7.934 -0.1736 -0.0728 -0.2681
  355ccc     C6 9957   7.852   7.227   8.112 -0.3343 -0.5643  0.6751
  355ccc     H6 9958   8.138   7.158   7.687  1.7659  1.3344 -1.3870
  355ccc     H7 9959   8.114   7.069   7.868 -0.2127  0.5551 -0.9181
  355ccc     H8 9960   8.203   7.449   7.654 -0.8630 -1.8496  0.5325
  355ccc     H9 9961   7.933   7.198   8.180 -1.7002 -0.5320  2.3657
  355ccc    H10 9962   7.797   7.135   8.087 -0.7880  0.0398 -0.6167
  355ccc     O5 9963   7.764   7.312   8.177 -0.0274 -0.3444 -0.5387
  355ccc    H11 9964   7.808   7.398   8.172 -2.1027  0.7968 -0.5739
  355ccc     O6 9965   8.016   7.394   8.032  0.0091  0.0466 -0.3400
  356ccc     C1 9966   9.084   9.054   8.439  0.1252  0.6167 -0.8540
  356ccc     C2 9967   9.018   9.139   8.329  0.5845 -0.1326  0.6701
  356ccc     H1 9968   9.144   8.977   8.389 -0.5437 -2.3456  2.4815
  356ccc     H2 9969   9.092   9.186   8.263  0.2796 -0.0469  0.3858
  356ccc     C3 9970   8.915   9.054   8.250 -0.6499 -0.0998  0.2901
  356ccc     C4 9971   8.821   8.970   8.343 -0.5293  0.6930  0.3418
  356ccc     C5 9972   8.894   8.898   8.455 -0.5014  0.3139 -0.3942
  356ccc     H3 9973   8.746   9.038   8.384 -3.0886 -1.0335 -1.1862
  356ccc     H4 9974   8.967   8.970   8.202 -1.1738 -1.6932  2.3197
  356ccc     H5 9975   8.962   8.819   8.421  0.5919  0.8369  0.5198
  356ccc     O1 9976   8.790   8.843   8.543 -0.3391 -0.1373 -0.0728
  356ccc     O2 9977   8.760   8.866   8.265 -0.7538 -0.3694  0.2969
  356ccc     O3 9978   8.854   9.135   8.147  0.3332 -0.1641 -0.1763
  356ccc     O4 9979   8.947   9.249   8.385  0.1438 -0.0333  0.0424
  356ccc     C6 9980   9.182   9.128   8.535  0.1718  0.2328 -0.0296
  356ccc     H6 9981   8.823   9.078   8.075 -0.3805 -0.9823  0.7472
  356ccc     H7 9982   8.887   9.282   8.317  1.5694  0.7509 -0.8845
  356ccc     H8 9983   8.706   8.911   8.197  0.4318 -2.5253 -2.2425
  356ccc     H9 9984   9.121   9.190   8.603  0.0671  1.9133 -1.5832
  356ccc    H10 9985   9.231   9.201   8.470 -0.6729  0.4671 -0.4264
  356ccc     O5 9986   9.269   9.037   8.590  0.0255 -0.2143 -0.8865
  356ccc    H11 9987   9.315   9.095   8.654  1.1087 -1.7914 -0.1909
  356ccc     O6 9988   8.979   8.999   8.519  0.4397  0.2345 -0.4938
  357ccc     C1 9989   7.812   8.810   8.666 -0.4741  0.5346 -0.4190
  357ccc     C2 9990   7.761   8.789   8.523 -0.0572 -0.0298 -0.4364
  357ccc     H1 9991   7.813   8.919   8.677  3.2029  0.4818  1.3012
  357ccc     H2 9992   7.658   8.824   8.510 -0.1637  0.6254  1.7850
  357ccc     C3 9993   7.852   8.860   8.418  0.0706  0.0776 -0.4531
  357ccc     C4 9994   8.000   8.810   8.439 -0.3967  0.9601  0.5798
  357ccc     C5 9995   8.050   8.823   8.585  0.2593 -0.2302 -0.8260
  357ccc     H3 9996   8.017   8.707   8.404  3.5417  1.7480 -0.2123
  357ccc     H4 9997   7.860   8.967   8.440  0.3029  0.1308 -0.7925
  357ccc     H5 9998   8.064   8.928   8.611 -4.0562  0.2484  0.4923
  357ccc     O1 9999   8.170   8.742   8.590  0.4724 -0.4464  0.3557
  357ccc     O210000   8.091   8.889   8.358 -0.0071 -0.1129 -0.5555
  357ccc     O310001   7.793   8.845   8.284  0.3240  0.3553 -0.5757
  357ccc     O410002   7.770   8.647   8.522  0.5300  0.1281  0.3910
  357ccc     C610003   7.729   8.754   8.782 -0.1091 -0.2823  0.0401
  357ccc     H610004   7.777   8.752   8.259  0.4860  0.7178 -2.0805
  357ccc     H710005   7.749   8.622   8.613 -0.4124 -1.9170 -0.3315
  357ccc     H810006   8.129   8.835   8.286  0.0907 -0.6184 -0.1332
  357ccc     H910007   7.626   8.786   8.761 -0.1116 -0.8121 -0.8541
  357ccc    H1010008   7.755   8.802   8.877  0.5346  0.4954 -0.5119
  357ccc     O510009   7.755   8.613   8.785  0.1197 -0.1884  0.1745
  357ccc    H1110010   7.828   8.599   8.846 -0.3093 -1.6534  0.3735
  357ccc     O610011   7.955   8.768   8.678  0.4328 -0.4938 -0.6268
  358ccc     C110012   9.821   6.903   6.155 -0.2908 -0.3481  0.0713
  358ccc     C210013   9.902   6.865   6.279  0.6085 -0.0299  0.1075
  358ccc     H110014   9.891   6.918   6.071 -1.3002  2.2465 -0.4082
  358ccc     H210015   9.958   6.778   6.242 -0.6297 -0.4020 -0.9829
  358ccc     C310016  10.007   6.978   6.307  0.2613  0.1230  0.1116
  358ccc     C410017   9.949   7.118   6.300 -0.0545 -0.1051 -0.1256
  358ccc     C510018   9.861   7.140   6.178  0.8116 -0.1316 -0.5884
  358ccc     H310019   9.887   7.108   6.390 -0.0898 -2.2895 -0.3482
  358ccc     H410020  10.074   6.972   6.221 -2.6195 -0.5766 -2.2815
  358ccc     H510021   9.921   7.129   6.087  0.7919  0.7799 -0.7174
  358ccc     O110022   9.799   7.269   6.180 -0.3476  0.0480  0.3308
  358ccc     O210023  10.045   7.223   6.305 -0.7626 -0.4059  0.0163
  358ccc     O310024  10.090   6.936   6.421  0.2130 -0.1617 -0.2465
  358ccc     O410025   9.819   6.841   6.394  0.0987 -0.3415  0.0746
  358ccc     C610026   9.716   6.804   6.114 -0.1059  0.2379  0.2412
  358ccc     H610027  10.172   6.899   6.385  0.2444 -0.4428  0.1073
  358ccc     H710028   9.878   6.815   6.467 -0.6392 -2.8126 -0.0929
  358ccc     H810029  10.137   7.191   6.303 -0.5514  0.0783  0.9980
  358ccc     H910030   9.651   6.790   6.202 -0.6791  0.9302 -0.0661
  358ccc    H1010031   9.772   6.713   6.091 -0.2533  0.2110 -0.0098
  358ccc     O510032   9.646   6.840   5.993 -0.1456 -0.2842  0.5470
  358ccc    H1110033   9.701   6.835   5.913 -0.3756  2.1284  0.1455
  358ccc     O610034   9.763   7.037   6.176 -0.4445  0.4647 -0.5668
  359ccc     C110035   9.282   8.198   5.792 -0.7868 -0.8871 -0.0046
  359ccc     C210036   9.140   8.148   5.787 -0.0083 -0.4331  1.2288
  359ccc     H110037   9.324   8.213   5.692 -0.2193 -0.6161  0.2673
  359ccc     H210038   9.076   8.201   5.716  2.7108  3.1044  1.1830
  359ccc     C310039   9.137   8.002   5.746  0.9254 -0.8724  0.3002
  359ccc     C410040   9.217   7.920   5.846 -0.9379  0.3731  0.2304
  359ccc     C510041   9.366   7.964   5.851  0.2864 -0.1843 -0.2995
  359ccc     H310042   9.178   7.922   5.948  0.3300 -1.6118  0.8109
  359ccc     H410043   9.182   8.002   5.646  0.2704  2.2908 -0.0940
  359ccc     H510044   9.410   7.941   5.753 -0.4673  0.4719 -0.8027
  359ccc     O110045   9.439   7.900   5.955 -0.5956 -0.7128  0.3005
  359ccc     O210046   9.219   7.778   5.805  0.3338  0.0694  0.2726
  359ccc     O310047   9.002   7.962   5.746  0.0604  0.3524 -0.2875
  359ccc     O410048   9.091   8.171   5.917  0.3901 -0.2271  0.1124
  359ccc     C610049   9.301   8.334   5.860  0.5187 -0.8873 -0.4584
  359ccc     H610050   8.997   7.870   5.716 -0.2214 -0.1714  1.3103
  359ccc     H710051   9.002   8.205   5.899  1.1243  2.2598  0.8924
  359ccc     H810052   9.148   7.734   5.855 -0.7853  1.9231  0.3980
  359ccc     H910053   9.262   8.332   5.963 -1.5439 -0.0000 -1.1603
  359ccc    H1010054   9.239   8.406   5.805 -0.4840 -2.8961 -2.0556
  359ccc     O510055   9.440   8.362   5.850  0.0712 -0.2825  0.2294
  359ccc    H1110056   9.478   8.299   5.913 -1.5133 -1.9288 -0.3498
  359ccc     O610057   9.369   8.111   5.871 -0.3925  0.3434  0.0495
  360ccc     C110058  10.288   8.554   7.193 -0.3438 -0.4514 -0.7395
  360ccc     C210059  10.214   8.692   7.197  0.1042  0.7130  0.2335
  360ccc     H110060  10.345   8.550   7.099  1.9850  2.9469  0.3460
  360ccc     H210061  10.296   8.764   7.207  0.9372 -0.2946  0.7978
  360ccc     C310062  10.125   8.714   7.071 -0.6160  0.3424 -0.0947
  360ccc     C410063  10.029   8.591   7.062 -0.7335  0.2996  0.1492
  360ccc     C510064  10.093   8.453   7.087 -0.2924 -0.1144 -0.2767
  360ccc     H310065   9.949   8.607   7.136 -0.5998 -0.2790  0.4246
  360ccc     H410066  10.183   8.716   6.977  0.6710  0.0415  0.6705
  360ccc     H510067  10.149   8.422   6.998  0.7996 -1.2187  0.7564
  360ccc     O110068   9.991   8.348   7.111  0.0488 -0.0916 -0.5220
  360ccc     O210069   9.962   8.585   6.938  0.6066 -0.1001  0.6102
  360ccc     O310070  10.035   8.826   7.077 -0.7310  0.5835  0.4790
  360ccc     O410071  10.134   8.685   7.321 -0.0016 -0.0038  0.2766
  360ccc     C610072  10.390   8.529   7.303 -0.0312 -0.4375  0.4363
  360ccc     H610073   9.995   8.827   7.166 -1.6591  0.4578  0.0712
  360ccc     H710074  10.190   8.625   7.374 -1.2871  0.1803  1.9709
  360ccc     H810075   9.958   8.680   6.918  3.0360 -0.2410 -0.9880
  360ccc     H910076  10.468   8.607   7.300 -0.3921 -0.1089 -0.8347
  360ccc    H1010077  10.428   8.431   7.274 -0.3144 -0.3705 -0.1589
  360ccc     O510078  10.323   8.544   7.431  0.1142  0.5260  0.3809
  360ccc    H1110079  10.285   8.455   7.435  0.2926  0.3903 -0.6286
  360ccc     O610080  10.183   8.457   7.202 -0.1183 -0.2481 -0.4580
  361ccc     C110081   9.672   8.910   7.297 -0.6144 -0.0618 -0.0069
  361ccc     C210082   9.802   8.918   7.384 -0.6923  0.8150 -0.8638
  361ccc     H110083   9.577   8.921   7.351  0.3968  0.0035  1.8381
  361ccc     H210084   9.802   9.004   7.451  1.0134 -0.5328  0.9896
  361ccc     C310085   9.803   8.793   7.478  0.9935 -0.5381 -0.5969
  361ccc     C410086   9.784   8.654   7.405  0.0486 -0.7870  0.3999
  361ccc     C510087   9.671   8.658   7.294 -0.3035  0.6459 -0.8137
  361ccc     H310088   9.872   8.624   7.346 -0.4794 -1.1208 -0.2364
  361ccc     H410089   9.712   8.800   7.538  0.4830 -1.9169 -1.1731
  361ccc     H510090   9.577   8.653   7.349  0.5166  1.1347  0.6901
  361ccc     O110091   9.694   8.551   7.200  0.4147  0.2033 -0.3877
  361ccc     O210092   9.781   8.550   7.500  0.1425 -0.6137 -0.1784
  361ccc     O310093   9.922   8.795   7.552  0.4344 -0.2793  0.4615
  361ccc     O410094   9.918   8.912   7.300 -0.2919 -0.4720 -0.2478
  361ccc     C610095   9.661   9.025   7.201 -0.3907  0.5614  0.4022
  361ccc     H610096   9.898   8.748   7.634 -0.6618 -0.2355  0.1868
  361ccc     H710097   9.880   8.966   7.228  1.1346  0.8681 -0.0392
  361ccc     H810098   9.873   8.542   7.531  0.6895  1.7625 -1.0165
  361ccc     H910099   9.672   9.123   7.251 -0.4365 -0.2493  2.0762
  361ccc    H1010100   9.558   9.031   7.163 -0.7810  0.7747  1.4572
  361ccc     O510101   9.767   9.009   7.109  0.3371 -0.5416 -0.0916
  361ccc    H1110102   9.725   8.954   7.040 -0.8016 -1.1664  1.0726
  361ccc     O610103   9.658   8.784   7.227  0.3504 -0.3340  0.1589
  362ccc     C110104  11.076   8.903   6.681 -0.0798 -0.9923 -0.0591
  362ccc     C210105  11.010   8.834   6.561 -0.0036 -0.4195  0.2853
  362ccc     H110106  11.048   8.859   6.777  1.0265  0.3872  0.9211
  362ccc     H210107  11.030   8.726   6.568 -2.8609 -0.9387  1.8221
  362ccc     C310108  10.856   8.842   6.589 -0.5424 -0.2636  0.0271
  362ccc     C410109  10.812   8.994   6.599 -0.0428  0.1164  0.3122
  362ccc     C510110  10.893   9.070   6.710 -0.0243 -0.0550  0.3593
  362ccc     H310111  10.823   9.040   6.501 -0.3342  0.0975  0.2704
  362ccc     H410112  10.843   8.787   6.683  1.3391 -1.2729 -0.2339
  362ccc     H510113  10.867   9.015   6.801 -1.2716 -2.5489 -1.3913
  362ccc     O110114  10.852   9.211   6.708  0.6359 -0.3251 -0.5010
  362ccc     O210115  10.682   9.005   6.650  1.3334  0.4102 -0.0660
  362ccc     O310116  10.784   8.777   6.481 -0.3718  0.5672 -0.0707
  362ccc     O410117  11.055   8.890   6.440 -0.4201 -0.0000  0.2163
  362ccc     C610118  11.227   8.906   6.659 -0.6858  0.1709 -0.2408
  362ccc     H610119  10.817   8.686   6.474  0.4206  0.7464  1.0343
  362ccc     H710120  11.033   8.824   6.372 -3.4537  1.7583 -0.7518
  362ccc     H810121  10.623   8.945   6.600 -1.0926  2.2346  0.4536
  362ccc     H910122  11.258   8.977   6.581 -2.0002  0.6967 -0.3292
  362ccc    H1010123  11.264   8.806   6.635  1.8692  0.7873  0.8538
  362ccc     O510124  11.281   8.944   6.784 -0.7910 -0.4410  0.1668
  362ccc    H1110125  11.251   9.036   6.782 -0.0962 -0.1898  0.7388
  362ccc     O610126  11.028   9.038   6.688 -0.0916 -0.4678  0.0485
  363ccc     C110127   9.895   9.691   6.501  0.1921 -0.0070 -0.0998
  363ccc     C210128   9.850   9.702   6.350 -0.7461  0.1691  0.2999
  363ccc     H110129   9.874   9.790   6.545 -0.8516 -0.4516  0.4353
  363ccc     H210130   9.747   9.739   6.341  0.0828  2.0391 -3.6257
  363ccc     C310131   9.939   9.800   6.268  0.0698 -0.5235 -1.0850
  363ccc     C410132  10.093   9.782   6.289 -0.2506  0.2466 -0.1426
  363ccc     C510133  10.127   9.763   6.440 -0.4948  0.2450  0.5223
  363ccc     H310134  10.134   9.706   6.221 -1.0038  1.0965 -1.6137
  363ccc     H410135   9.918   9.901   6.303 -0.7732 -0.7554 -0.9028
  363ccc     H510136  10.114   9.860   6.490 -1.3486 -0.2724  1.3399
  363ccc     O110137  10.263   9.717   6.450  0.0723 -0.5192 -0.5288
  363ccc     O210138  10.149   9.912   6.248 -0.1416  0.2672  0.1142
  363ccc     O310139   9.912   9.798   6.125  0.6783  0.2883 -0.5306
  363ccc     O410140   9.860   9.565   6.299 -0.3635 -0.0436 -0.6561
  363ccc     C610141   9.818   9.581   6.578 -0.1474 -0.2479 -0.1560
  363ccc     H610142   9.816   9.805   6.115  0.6747 -0.6657 -1.3100
  363ccc     H710143   9.793   9.553   6.229 -0.7656  0.7994 -0.4189
  363ccc     H810144  10.101   9.937   6.167 -0.8482 -1.0716  0.0984
  363ccc     H910145   9.860   9.486   6.541 -0.1044  0.4317 -1.9216
  363ccc    H1010146   9.711   9.593   6.562 -0.0206  0.4328 -0.5131
  363ccc     O510147   9.842   9.590   6.718 -0.3355 -0.0822 -0.1468
  363ccc    H1110148   9.837   9.496   6.742 -0.2189  0.0908  0.5661
  363ccc     O610149  10.034   9.664   6.506  0.1466 -0.1710  0.1940
  364ccc     C110150  10.340   9.485   4.861  0.1064  0.2721  0.9337
  364ccc     C210151  10.507   9.589   4.894  0.1557 -0.0934 -0.4677
  364ccc     H110152  10.262   9.558   4.837 -0.4999 -0.7589 -0.4207
  364ccc     H210153  10.488   9.693   4.864  0.0377  0.6122  1.8912
  364ccc     C310154  10.579   9.589   5.081 -0.0486  0.0149 -0.2697
  364ccc     C410155  10.500   9.474   5.223  0.4916 -0.1665 -0.9821
  364ccc     C510156  10.343   9.370   5.171  0.5254  0.2293  0.5238
  364ccc     H310157  10.571   9.398   5.259  1.3134  0.8363 -0.4328
  364ccc     H410158  10.549   9.690   5.113 -0.4226  0.0078 -0.5876
  364ccc     H510159  10.270   9.414   5.240  0.0199 -1.5720  1.1727
  364ccc     O110160  10.346   9.239   5.225 -0.0358  0.3856  0.2375
  364ccc     O210161  10.474   9.543   5.351 -0.2803 -0.3076  0.4886
  364ccc     O310162  10.725   9.607   5.078  0.5769  0.6679 -0.2809
  364ccc     O410163  10.609   9.549   4.808  0.3510 -0.3463  0.3045
  364ccc     C610164  10.341   9.413   4.720  0.3614  0.2612 -0.1488
  364ccc     H610165  10.744   9.701   5.065 -0.6278  0.9458 -0.1461
  364ccc     H710166  10.680   9.614   4.808 -1.9575  2.4926 -2.1878
  364ccc     H810167  10.560   9.564   5.393  0.2337 -2.1428  0.4246
  364ccc     H910168  10.420   9.338   4.711  0.4207  0.2366  0.4973
  364ccc    H1010169  10.359   9.485   4.640 -1.9646  0.4271 -0.5846
  364ccc     O510170  10.213   9.364   4.690  0.1827  1.2144 -0.2740
  364ccc    H1110171  10.203   9.292   4.755 -1.9053  0.9956 -0.7612
  364ccc     O610172  10.269   9.385   4.996 -0.2362 -0.1022 -0.1986
  365ccc     C110173   9.561   8.598   5.591  0.0822  0.0201  0.1516
  365ccc     C210174   9.611   8.459   5.592 -0.0243  0.6784 -0.0071
  365ccc     H110175   9.538   8.614   5.485  0.1738  2.2891  0.4066
  365ccc     H210176   9.534   8.385   5.566 -1.3627  1.0082  2.6763
  365ccc     C310177   9.738   8.444   5.510 -0.0486 -0.6195  0.4377
  365ccc     C410178   9.849   8.549   5.550  0.5946  0.3208  0.4488
  365ccc     C510179   9.779   8.685   5.556  0.1214 -0.0972  0.0286
  365ccc     H310180   9.889   8.528   5.650 -2.5913 -0.5549  1.6575
  365ccc     H410181   9.719   8.470   5.405 -0.9861 -0.7280  0.5745
  365ccc     H510182   9.741   8.708   5.456 -1.6690 -1.4433  0.3517
  365ccc     O110183   9.879   8.769   5.605 -0.0509 -0.5086 -0.0472
  365ccc     O210184   9.947   8.546   5.439  0.7796 -0.7039 -0.4952
  365ccc     O310185   9.780   8.303   5.515 -0.0116  0.5071 -0.3554
  365ccc     O410186   9.657   8.437   5.727  0.2099  0.0487  0.2420
  365ccc     C610187   9.431   8.631   5.667 -0.8269  0.3374  0.1661
  365ccc     H610188   9.873   8.300   5.487  0.0579 -0.9300 -0.0175
  365ccc     H710189   9.574   8.419   5.774 -0.5097  1.6734 -0.3221
  365ccc     H810190   9.973   8.454   5.455  2.4315 -0.0421  1.0525
  365ccc     H910191   9.455   8.660   5.770  1.1977 -0.7808  0.0652
  365ccc    H1010192   9.361   8.548   5.676 -1.0238  0.4053 -0.6535
  365ccc     O510193   9.372   8.747   5.608  0.2585 -0.0365 -0.6300
  365ccc    H1110194   9.313   8.713   5.538 -0.9641 -0.5479  0.6004
  365ccc     O610195   9.666   8.684   5.638  0.3827 -0.9496  0.8074
  366ccc     C110196  10.263  10.520   8.228  0.1652  1.2392  0.1783
  366ccc     C210197  10.418  10.536   8.224  0.4218 -0.4371  0.0332
  366ccc     H110198  10.232  10.464   8.317  1.5167 -0.9588 -0.6558
  366ccc     H210199  10.459  10.596   8.306 -0.7547 -0.8768  0.9537
  366ccc     C310200  10.494  10.401   8.233  0.8452 -0.8084  0.9220
  366ccc     C410201  10.433  10.304   8.129 -0.2045  0.0835  0.1232
  366ccc     C510202  10.278  10.298   8.145  0.2736 -0.1520  0.8279
  366ccc     H310203  10.461  10.348   8.033 -1.2348 -1.8501 -1.1011
  366ccc     H410204  10.479  10.373   8.338 -0.1317  1.3800  1.4320
  366ccc     H510205  10.252  10.252   8.241 -0.7402 -1.2972  0.0333
  366ccc     O110206  10.228  10.208   8.042  0.2057  0.7617  0.0448
  366ccc     O210207  10.491  10.182   8.160  0.1032 -0.1750  0.0609
  366ccc     O310208  10.633  10.416   8.231  0.1374  0.2204  0.4446
  366ccc     O410209  10.462  10.595   8.099 -0.5977 -0.2686 -0.2181
  366ccc     C610210  10.174  10.645   8.212  0.1644 -0.3023 -0.7577
  366ccc     H610211  10.642  10.471   8.151 -2.4669 -0.7078 -0.5748
  366ccc     H710212  10.517  10.667   8.134 -0.4930 -0.3538 -0.2080
  366ccc     H810213  10.584  10.203   8.179 -0.3724  0.6043  1.6562
  366ccc     H910214  10.148  10.678   8.110 -0.4961  2.2920  0.1643
  366ccc    H1010215  10.222  10.736   8.251 -1.6269  0.7133 -0.8008
  366ccc     O510216  10.046  10.620   8.277  0.3715  0.2273 -0.0361
  366ccc    H1110217  10.018  10.710   8.303  0.5532  0.4910 -0.7122
  366ccc     O610218  10.218  10.425   8.129 -0.0175 -0.9504 -0.6807
  367ccc     C110219  10.810  10.308   7.483  0.4901  0.2143  0.8460
  367ccc     C210220  10.808  10.461   7.462  0.3826 -0.1836  0.2418
  367ccc     H110221  10.837  10.266   7.385 -0.6443  0.4481  0.4112
  367ccc     H210222  10.900  10.493   7.412 -0.4697  1.4519 -0.3461
  367ccc     C310223  10.691  10.503   7.370  0.4687  0.0467 -0.0858
  367ccc     C410224  10.552  10.429   7.395 -0.3306 -0.2516 -0.1245
  367ccc     C510225  10.564  10.275   7.413 -0.4043 -0.4473 -0.0916
  367ccc     H310226  10.520  10.464   7.494  0.9467 -2.1360  1.0236
  367ccc     H410227  10.719  10.481   7.267  0.6124 -0.9541  0.1634
  367ccc     H510228  10.582  10.211   7.326  1.7309 -1.1891  0.8073
  367ccc     O110229  10.452  10.224   7.485  0.3019  0.9311 -0.5103
  367ccc     O210230  10.459  10.472   7.293 -0.1249 -0.2069 -0.5967
  367ccc     O310231  10.670  10.644   7.389 -0.0514 -0.3123  0.2107
  367ccc     O410232  10.797  10.511   7.590  0.0961  0.0272 -0.0604
  367ccc     C610233  10.904  10.241   7.585  0.7271  0.0348 -0.0277
  367ccc     H610234  10.617  10.676   7.315  1.0227  0.6282 -0.1961
  367ccc     H710235  10.810  10.434   7.648 -1.3573 -0.4096 -0.2701
  367ccc     H810236  10.386  10.523   7.332  1.0661  1.0168  0.1216
  367ccc     H910237  11.006  10.279   7.571  0.1407  2.3421  1.3837
  367ccc    H1010238  10.904  10.133   7.567  0.9723 -0.1824  1.1856
  367ccc     O510239  10.859  10.278   7.716  0.2795  0.3678 -0.2777
  367ccc    H1110240  10.898  10.205   7.768 -0.9871  0.6810  1.2075
  367ccc     O610241  10.673  10.253   7.507 -0.1280  0.1163 -1.0544
  368ccc     C110242   9.954  10.831   7.482 -0.1639 -0.1525  0.1245
  368ccc     C210243   9.911  10.762   7.614  0.3091 -0.0591 -0.8402
  368ccc     H110244   9.882  10.911   7.460  0.8520  0.9501  0.6946
  368ccc     H210245   9.897  10.832   7.697 -0.3051 -0.2564 -0.7707
  368ccc     C310246   9.778  10.693   7.598  0.7066  0.3063  1.0587
  368ccc     C410247   9.773  10.594   7.477 -0.8059 -0.1066 -0.9295
  368ccc     C510248   9.818  10.671   7.351  0.3992  0.0925  0.3422
  368ccc     H310249   9.835  10.506   7.498 -0.2105  0.7587  1.1097
  368ccc     H410250   9.703  10.769   7.574 -0.8922 -1.0708  1.4913
  368ccc     H510251   9.750  10.753   7.324 -1.3045 -0.9690  1.1749
  368ccc     O110252   9.817  10.572   7.248 -0.0637  0.1447 -0.0382
  368ccc     O210253   9.640  10.545   7.489  0.2172  0.4281  0.4874
  368ccc     O310254   9.731  10.627   7.715 -0.4325  0.7457  0.6815
  368ccc     O410255  10.020  10.677   7.652  0.2143  0.1014  0.2624
  368ccc     C610256  10.093  10.904   7.483 -0.0624 -0.3523  0.1411
  368ccc     H610257   9.788  10.649   7.791  0.5389 -0.1210  0.2413
  368ccc     H710258  10.096  10.727   7.617 -0.0117  1.0026  1.0212
  368ccc     H810259   9.640  10.536   7.586  0.9088 -0.3336  0.4244
  368ccc     H910260  10.090  10.980   7.562  0.6033 -0.3020  0.1284
  368ccc    H1010261  10.111  10.952   7.386 -0.2912  1.9593  1.1949
  368ccc     O510262  10.199  10.814   7.505 -0.7181  0.7560 -0.4181
  368ccc    H1110263  10.271  10.863   7.461 -0.6179  1.7854  0.8152
  368ccc     O610264   9.948  10.728   7.377 -0.2682  0.1846 -0.3150
  369ccc     C110265   9.865  10.311   6.371  0.0005 -0.5283 -0.2660
  369ccc     C210266   9.909  10.413   6.270 -0.3382 -0.0864  0.4358
  369ccc     H110267   9.800  10.229   6.339 -0.4052 -1.9456  3.6193
  369ccc     H210268   9.965  10.369   6.187  1.2678  0.9509  0.9323
  369ccc     C310269   9.782  10.489   6.217 -0.5424  0.1514 -0.0964
  369ccc     C410270   9.693  10.543   6.334 -0.0134  0.4202  0.3204
  369ccc     C510271   9.661  10.433   6.437  0.5381 -0.3884 -0.2840
  369ccc     H310272   9.748  10.617   6.393 -1.4483 -0.0138  2.2992
  369ccc     H410273   9.721  10.415   6.165 -0.8642 -0.5957  1.2947
  369ccc     H510274   9.597  10.350   6.403  0.6982 -1.8016  2.5605
  369ccc     O110275   9.592  10.484   6.560  0.0487 -0.2071 -0.0541
  369ccc     O210276   9.567  10.607   6.289  0.3244 -1.0717  0.4042
  369ccc     O310277   9.806  10.601   6.126 -0.0022  0.1368  0.4722
  369ccc     O410278   9.990  10.507   6.337 -0.5852  0.4648  0.1059
  369ccc     C610279   9.986  10.243   6.438  0.2072 -0.7530 -0.1727
  369ccc     H610280   9.731  10.601   6.064 -1.3150  2.2224  1.9419
  369ccc     H710281   9.969  10.586   6.284  0.2016  1.3484  1.0486
  369ccc     H810282   9.589  10.698   6.259 -0.9095 -1.2529 -1.1949
  369ccc     H910283  10.055  10.319   6.476 -0.7992  0.0326  0.1269
  369ccc    H1010284  10.038  10.183   6.362 -0.9603 -1.4746 -0.4342
  369ccc     O510285   9.950  10.146   6.535  0.5231  0.1715 -0.0639
  369ccc    H1110286  10.034  10.114   6.571 -0.6856 -1.9681  1.1099
  369ccc     O610287   9.784  10.373   6.477  0.1442 -0.1797 -0.2520
  370ccc     C110288   7.952  10.667   6.631 -0.0189  0.0274 -0.2189
  370ccc     C210289   7.815  10.719   6.602  0.1599  0.3024 -0.1496
  370ccc     H110290   7.994  10.606   6.550 -0.9097 -1.4660  0.4078
  370ccc     H210291   7.820  10.782   6.513 -0.0618  1.1148  0.4023
  370ccc     C310292   7.722  10.600   6.585  0.9294  0.1090  0.1933
  370ccc     C410293   7.717  10.514   6.713  0.1971  0.2337 -0.3856
  370ccc     C510294   7.861  10.482   6.772 -0.1257 -0.0375 -0.0508
  370ccc     H310295   7.678  10.574   6.796  0.4880 -0.9909  0.6588
  370ccc     H410296   7.766  10.539   6.504  1.8561  0.4179  0.4507
  370ccc     H510297   7.901  10.396   6.717 -0.2290 -0.1652  0.0734
  370ccc     O110298   7.856  10.438   6.907  0.5822  0.2886 -0.0060
  370ccc     O210299   7.637  10.396   6.695 -0.1058 -0.0545  0.5684
  370ccc     O310300   7.590  10.644   6.544  0.2772 -0.2372 -0.4241
  370ccc     O410301   7.769  10.800   6.719 -0.6362 -0.4520 -0.0112
  370ccc     C610302   8.049  10.787   6.652  0.2956 -0.0832  0.8320
  370ccc     H610303   7.551  10.560   6.512  1.8324 -1.3074  0.3722
  370ccc     H710304   7.674  10.822   6.718 -0.7291 -0.7851  1.0469
  370ccc     H810305   7.701  10.324   6.681  1.0124  1.0911 -0.5007
  370ccc     H910306   8.028  10.817   6.756 -0.5166  1.6587  0.2024
  370ccc    H1010307   8.029  10.878   6.594  1.6959  0.4469  1.1386
  370ccc     O510308   8.183  10.748   6.653  0.0761  0.6076  0.1044
  370ccc    H1110309   8.192  10.696   6.735  0.9065  1.2611  0.4434
  370ccc     O610310   7.948  10.592   6.756  0.3361  0.1084  0.4199
  371ccc     C110311   6.974  10.266   7.319  0.1136  0.3873  0.1451
  371ccc     C210312   6.932  10.175   7.205 -0.5573  0.1330  0.1161
  371ccc     H110313   6.903  10.349   7.327  1.8409  1.8125  1.2293
  371ccc     H210314   6.832  10.133   7.221 -0.7017  0.6575  0.6158
  371ccc     C310315   6.930  10.262   7.074  0.3445  0.0322  0.2187
  371ccc     C410316   7.071  10.336   7.047  0.8528  0.2630  0.2154
  371ccc     C510317   7.114  10.402   7.182 -0.6048  0.0442 -0.4641
  371ccc     H310318   7.136  10.249   7.032 -0.3104 -0.6523  0.3804
  371ccc     H410319   6.857  10.343   7.085 -2.9290 -2.5415 -0.9652
  371ccc     H510320   7.044  10.482   7.206 -3.2256 -2.5278  1.1101
  371ccc     O110321   7.247  10.446   7.162  0.3423 -0.0952 -0.2343
  371ccc     O210322   7.059  10.432   6.941 -0.3628  0.4755  0.1144
  371ccc     O310323   6.885  10.180   6.957  0.3673  0.0344 -0.0730
  371ccc     O410324   7.026  10.066   7.196  0.1704 -0.1373 -0.3824
  371ccc     C610325   6.964  10.187   7.450  0.3495  0.3041  0.1223
  371ccc     H610326   6.816  10.120   6.991  1.0795  0.3844  2.0850
  371ccc     H710327   7.014  10.045   7.101  0.2574  0.8669 -0.6370
  371ccc     H810328   6.996  10.498   6.975  0.4893  1.5041 -0.2535
  371ccc     H910329   7.058  10.135   7.472 -0.5030 -1.0718  0.6164
  371ccc    H1010330   6.888  10.110   7.431 -0.6694  1.3411 -0.0891
  371ccc     O510331   6.912  10.266   7.558  0.5267  0.4970 -0.4526
  371ccc    H1110332   6.942  10.208   7.631  0.1861 -0.9718 -1.4222
  371ccc     O610333   7.103  10.314   7.291  0.5584  0.2631 -0.2717
  372ccc     C110334   8.250  10.282   5.888  0.0657 -0.7508 -0.3099
  372ccc     C210335   8.358  10.389   5.934  0.0119 -0.2168 -0.5603
  372ccc     H110336   8.272  10.279   5.780  2.7257 -0.1414  0.1250
  372ccc     H210337   8.457  10.356   5.903 -0.2212 -1.0352 -0.4700
  372ccc     C310338   8.323  10.526   5.857 -0.2227 -0.2403  0.5898
  372ccc     C410339   8.186  10.577   5.896 -0.0923 -0.0666  0.1411
  372ccc     C510340   8.082  10.457   5.870 -0.7737 -0.1782  0.2826
  372ccc     H310341   8.182  10.601   6.002 -0.1477 -0.1387  0.1555
  372ccc     H410342   8.316  10.500   5.751 -1.6603 -1.2007  0.8947
  372ccc     H510343   8.073  10.442   5.762  0.0394 -1.3484  0.3636
  372ccc     O110344   7.954  10.484   5.932  0.3947 -0.3992  0.3401
  372ccc     O210345   8.150  10.688   5.811  0.1811 -0.4736  0.1599
  372ccc     O310346   8.415  10.637   5.881  0.6651 -0.2180 -0.6242
  372ccc     O410347   8.342  10.416   6.071  0.7888 -0.2944  0.1973
  372ccc     C610348   8.280  10.141   5.932 -0.6140  0.3746 -0.0218
  372ccc     H610349   8.417  10.702   5.809 -1.2506  2.4486  1.5174
  372ccc     H710350   8.425  10.448   6.111  0.2839 -1.7745  2.5856
  372ccc     H810351   8.225  10.749   5.816  2.5270 -3.0200 -1.2927
  372ccc     H910352   8.380  10.109   5.900 -1.4641 -2.4844 -0.0947
  372ccc    H1010353   8.206  10.069   5.894 -1.0484 -2.2985  5.0185
  372ccc     O510354   8.268  10.153   6.074  0.5667 -1.1420  0.2545
  372ccc    H1110355   8.284  10.248   6.090 -0.5889 -1.3952  3.8367
  372ccc     O610356   8.119  10.330   5.926  0.2403 -0.4162 -0.4411
  373ccc     C110357   7.143  10.223   6.400 -0.7959 -0.9698  0.0735
  373ccc     C210358   7.131  10.324   6.513 -0.6874  0.7095 -0.5095
  373ccc     H110359   7.077  10.138   6.423 -1.9758  0.1752  1.0865
  373ccc     H210360   7.028  10.357   6.530 -0.2548  0.4089  4.0176
  373ccc     C310361   7.176  10.261   6.647  0.3137 -0.6989 -0.2094
  373ccc     C410362   7.307  10.170   6.642  0.4649  0.4947 -0.2466
  373ccc     C510363   7.343  10.103   6.502 -0.6406  1.0660  0.6330
  373ccc     H310364   7.382  10.249   6.657 -0.5907  2.0795 -2.7898
  373ccc     H410365   7.090  10.212   6.694  0.5481  0.4317  1.4768
  373ccc     H510366   7.315   9.997   6.511  1.9737  0.3896  1.8290
  373ccc     O110367   7.485  10.093   6.478  0.0302 -0.3605 -0.2894
  373ccc     O210368   7.308  10.074   6.754 -0.1645  0.3365 -0.0667
  373ccc     O310369   7.219  10.367   6.736  0.3814  0.8537  0.1297
  373ccc     O410370   7.214  10.436   6.493  0.6967 -0.1509 -0.0803
  373ccc     C610371   7.115  10.292   6.268 -0.6768 -0.7116  0.1167
  373ccc     H610372   7.155  10.371   6.809 -1.5283  0.5345 -1.4119
  373ccc     H710373   7.230  10.441   6.589  0.0039  0.2596  0.0180
  373ccc     H810374   7.234  10.016   6.729  0.6069 -0.2552 -1.0183
  373ccc     H910375   7.206  10.347   6.242 -1.6903  0.8513 -0.2937
  373ccc    H1010376   7.037  10.369   6.272  0.9686  1.1921 -1.6490
  373ccc     O510377   7.072  10.198   6.172 -0.1915  0.2689 -0.6749
  373ccc    H1110378   6.981  10.189   6.203 -0.2972 -0.8255 -1.2437
  373ccc     O610379   7.280  10.173   6.398  0.9511  0.4314  0.3170
  374ccc     C110380   9.240  10.330   8.281 -0.3996  0.2156  0.6886
  374ccc     C210381   9.256  10.382   8.427 -0.0500  0.1536  0.3929
  374ccc     H110382   9.328  10.339   8.216 -2.0965  1.7168 -1.5377
  374ccc     H210383   9.334  10.325   8.479 -1.1508 -2.0095 -0.2404
  374ccc     C310384   9.293  10.538   8.423  0.1305  0.9139  0.1394
  374ccc     C410385   9.210  10.616   8.317  0.3155 -0.4870  0.6405
  374ccc     C510386   9.207  10.548   8.181  0.4263  0.4017  0.1229
  374ccc     H310387   9.111  10.625   8.362 -0.2378  0.3198 -0.6853
  374ccc     H410388   9.399  10.543   8.395  0.5812  1.6213  1.8852
  374ccc     H510389   9.308  10.547   8.140  0.2363  2.3193 -0.4834
  374ccc     O110390   9.110  10.613   8.105  0.3891 -0.2887 -0.0405
  374ccc     O210391   9.272  10.745   8.311  0.3726  0.0776  0.3383
  374ccc     O310392   9.293  10.595   8.559 -1.1541 -0.0051 -0.2263
  374ccc     O410393   9.141  10.370   8.501 -0.1644  0.2592 -0.3621
  374ccc     C610394   9.189  10.179   8.273  0.7504  0.7496 -0.5132
  374ccc     H610395   9.266  10.530   8.627 -0.0154  0.0637  0.3134
  374ccc     H710396   9.081  10.305   8.459 -0.4105  0.8788 -0.9876
  374ccc     H810397   9.256  10.781   8.400 -0.1234 -0.9071  0.6612
  374ccc     H910398   9.266  10.104   8.295  0.1736  0.2731 -0.0515
  374ccc    H1010399   9.156  10.167   8.169 -2.6404 -0.0559  0.5242
  374ccc     O510400   9.079  10.155   8.359 -0.1278 -0.1442  0.6990
  374ccc    H1110401   9.036  10.079   8.316 -0.2661 -0.2214  0.9699
  374ccc     O610402   9.152  10.420   8.208 -0.6162  0.2195  0.1773
  375ccc     C110403   8.055  10.402   7.749  0.7955  0.2151  0.5628
  375ccc     C210404   8.010  10.487   7.632  0.2085 -0.5777  0.8120
  375ccc     H110405   7.986  10.434   7.828  1.1996  1.8760  0.2925
  375ccc     H210406   7.910  10.453   7.602  0.1830 -0.4711  0.7767
  375ccc     C310407   8.005  10.637   7.678 -0.2273 -0.6816  0.4016
  375ccc     C410408   8.154  10.673   7.724  0.5707 -0.4126 -0.0080
  375ccc     C510409   8.218  10.569   7.826  0.0889  0.0965  0.6527
  375ccc     H310410   8.223  10.678   7.639  1.2754 -1.9782  0.4280
  375ccc     H410411   7.942  10.641   7.768  1.3929 -1.2482  1.6091
  375ccc     H510412   8.172  10.588   7.924  3.3845  3.5049  1.7941
  375ccc     O110413   8.361  10.584   7.844  0.1308  0.2103 -0.0563
  375ccc     O210414   8.153  10.806   7.788  0.1352 -0.3572  0.1197
  375ccc     O310415   7.946  10.728   7.585 -0.5304  0.1422  0.4491
  375ccc     O410416   8.091  10.477   7.511  0.2326 -0.1183 -0.9919
  375ccc     C610417   8.045  10.247   7.705  0.1085 -0.2387  0.4536
  375ccc     H610418   7.956  10.816   7.625  0.4973  0.3749 -0.2860
  375ccc     H710419   8.048  10.546   7.457 -0.5827  0.5120  0.4112
  375ccc     H810420   8.243  10.840   7.776  0.1218 -0.5439 -0.5508
  375ccc     H910421   7.943  10.227   7.671 -0.1834 -2.6759  2.4634
  375ccc    H1010422   8.062  10.181   7.791  1.1178  0.2595  0.6502
  375ccc     O510423   8.152  10.230   7.609  0.1064  0.1440 -0.4878
  375ccc    H1110424   8.155  10.320   7.572 -0.3945 -0.2836 -1.5835
  375ccc     O610425   8.192  10.438   7.781  0.1762  0.0673 -0.1886
  376ccc     C110426   7.285  10.747   9.407  0.1599  0.5100 -0.3213
  376ccc     C210427   7.156  10.662   9.384  0.0629  0.1220 -0.3693
  376ccc     H110428   7.267  10.855   9.400 -1.7957  0.1461 -1.7919
  376ccc     H210429   7.082  10.680   9.463  0.8862  0.1730  0.4083
  376ccc     C310430   7.099  10.698   9.244  0.0869  0.1271 -0.1658
  376ccc     C410431   7.200  10.678   9.132 -0.1002  0.5036  0.2994
  376ccc     C510432   7.326  10.754   9.167 -0.3306  0.1437 -1.0769
  376ccc     H310433   7.231  10.573   9.119  0.5383  0.6246  0.7748
  376ccc     H410434   7.092  10.807   9.241 -1.9915  0.0563  0.5822
  376ccc     H510435   7.314  10.862   9.153 -0.7219  0.0074 -1.8650
  376ccc     O110436   7.434  10.697   9.081 -0.1922 -0.0587  0.2296
  376ccc     O210437   7.139  10.738   9.017 -0.1342  0.4236  0.1572
  376ccc     O310438   6.976  10.633   9.214  0.6008 -0.0118 -0.0993
  376ccc     O410439   7.184  10.524   9.389  0.3292 -0.0379 -0.1635
  376ccc     C610440   7.340  10.733   9.553  0.2071  0.9663  0.6517
  376ccc     H610441   6.912  10.668   9.279  0.7869 -2.7510  1.6942
  376ccc     H710442   7.095  10.486   9.372  1.1758 -1.4359 -1.8489
  376ccc     H810443   7.044  10.728   9.037 -0.2630  0.0032 -0.6106
  376ccc     H910444   7.258  10.750   9.624 -1.1408 -0.3219 -0.5275
  376ccc    H1010445   7.416  10.810   9.569  0.3516  1.4442 -1.8599
  376ccc     O510446   7.395  10.601   9.564 -0.4068  0.3785 -0.6717
  376ccc    H1110447   7.326  10.553   9.516 -1.1192  0.3082  0.4000
  376ccc     O610448   7.371  10.716   9.301 -0.3766  0.1630  0.7087
  377ccc     C110449   7.917  10.448   8.196 -0.4177  0.3947  0.9153
  377ccc     C210450   7.855  10.521   8.078 -0.4946  0.2306 -0.0432
  377ccc     H110451   7.844  10.375   8.233 -1.4421  1.0991  0.3308
  377ccc     H210452   7.822  10.449   8.002  1.7219 -1.0971  0.1689
  377ccc     C310453   7.726  10.604   8.122 -0.0602 -0.1225  0.0671
  377ccc     C410454   7.764  10.691   8.242  0.0850  0.6522  0.7590
  377ccc     C510455   7.838  10.619   8.361  0.4828 -0.2338  0.8107
  377ccc     H310456   7.829  10.774   8.211  0.8411 -0.1364  0.1739
  377ccc     H410457   7.642  10.541   8.154 -0.1054 -0.2775 -0.3509
  377ccc     H510458   7.775  10.542   8.407  0.1772 -1.1253 -1.0005
  377ccc     O110459   7.893  10.715   8.456 -0.3090 -0.2685 -0.4672
  377ccc     O210460   7.641  10.743   8.302  0.1351 -0.1933  0.6908
  377ccc     O310461   7.693  10.687   8.007 -0.6653  0.1160  0.2321
  377ccc     O410462   7.950  10.610   8.022  0.0057  0.7367  0.5671
  377ccc     C610463   8.039  10.364   8.146  0.3112 -0.3725 -0.9567
  377ccc     H610464   7.615  10.737   8.038 -1.6659 -1.0745 -0.2984
  377ccc     H710465   7.885  10.677   7.994  0.5685  0.8809 -0.4636
  377ccc     H810466   7.663  10.832   8.335 -0.6054 -0.1011  0.9492
  377ccc     H910467   8.019  10.313   8.051  1.7818  0.0923 -1.5540
  377ccc    H1010468   8.062  10.289   8.222 -0.9150  0.0810 -0.1050
  377ccc     O510469   8.145  10.457   8.133  0.8694 -0.3683 -0.5315
  377ccc    H1110470   8.092  10.533   8.102  0.7113 -0.8595 -1.5013
  377ccc     O610471   7.945  10.545   8.300 -0.7531  0.0340 -0.1770
  378ccc     C110472   7.725  10.554   9.451 -0.3865 -0.0487 -0.0169
  378ccc     C210473   7.709  10.708   9.465  0.1426  0.4697 -1.0454
  378ccc     H110474   7.700  10.502   9.545 -0.1826 -0.2118 -0.0535
  378ccc     H210475   7.607  10.719   9.505  0.0740 -1.0518 -0.7348
  378ccc     C310476   7.812  10.765   9.565 -0.6439  0.8442  0.1669
  378ccc     C410477   7.964  10.730   9.527 -0.3695  0.2305 -0.7301
  378ccc     C510478   7.965  10.570   9.519 -0.2909  0.4319 -0.5488
  378ccc     H310479   7.984  10.775   9.429 -0.5578 -0.4704 -1.0967
  378ccc     H410480   7.788  10.709   9.657 -0.5246  0.5678  0.0326
  378ccc     H510481   7.945  10.512   9.610 -0.6961 -2.5510 -2.3985
  378ccc     O110482   8.099  10.530   9.478  0.3192 -0.2705  0.1689
  378ccc     O210483   8.047  10.780   9.631 -0.4200 -0.1076  0.0174
  378ccc     O310484   7.795  10.901   9.604 -0.0524 -0.5063 -0.0135
  378ccc     O410485   7.729  10.780   9.344 -0.8045 -0.2008  0.0760
  378ccc     C610486   7.638  10.504   9.329 -0.1864  0.4637  0.2962
  378ccc     H610487   7.719  10.912   9.663  0.0680  0.3085  0.0081
  378ccc     H710488   7.676  10.858   9.369  0.0391 -0.2635  2.2848
  378ccc     H810489   8.005  10.866   9.649 -1.7048  0.2098 -3.7756
  378ccc     H910490   7.693  10.525   9.236  2.5492 -2.8811  0.9460
  378ccc    H1010491   7.540  10.552   9.338  0.0606  1.0324  0.0110
  378ccc     O510492   7.620  10.358   9.330  0.2808 -0.3879  0.2056
  378ccc    H1110493   7.545  10.333   9.274  1.3545 -1.6379 -0.7243
  378ccc     O610494   7.866  10.531   9.418  0.0819 -0.1870 -0.6924
  379ccc     C110495   8.811  11.153   9.161 -0.0891  0.1861  0.5425
  379ccc     C210496   8.750  11.264   9.247  0.4136  0.1995 -0.1724
  379ccc     H110497   8.799  11.163   9.053 -0.6582 -1.9909  0.3718
  379ccc     H210498   8.795  11.355   9.204 -0.0147  0.3737 -0.2636
  379ccc     C310499   8.594  11.264   9.225 -0.2023 -0.3993  0.0689
  379ccc     C410500   8.527  11.126   9.256 -0.5709 -0.2860  0.0174
  379ccc     C510501   8.609  11.017   9.179 -0.5120 -0.4328  0.2648
  379ccc     H310502   8.561  11.119   9.360  1.1255 -0.8346 -0.5365
  379ccc     H410503   8.578  11.285   9.119 -1.9194 -1.7723  0.0268
  379ccc     H510504   8.585  11.025   9.072 -0.3575  0.6316  0.2945
  379ccc     O110505   8.582  10.885   9.239 -0.3248  0.3890 -0.2612
  379ccc     O210506   8.379  11.132   9.252 -0.3776 -1.1283  0.1200
  379ccc     O310507   8.536  11.370   9.302 -0.1018 -0.5850 -0.1635
  379ccc     O410508   8.783  11.237   9.379  0.0268  0.2484 -0.0614
  379ccc     C610509   8.967  11.134   9.178  0.2373  0.1163  0.1159
  379ccc     H610510   8.581  11.453   9.278  0.0596 -0.6864 -0.2139
  379ccc     H710511   8.867  11.188   9.367 -0.4020 -1.1446  1.9838
  379ccc     H810512   8.356  11.204   9.313  2.1520  0.1927 -0.3617
  379ccc     H910513   9.017  11.221   9.134  0.2696  0.6200  1.1252
  379ccc    H1010514   9.005  11.044   9.128  0.5450  0.4656 -0.2875
  379ccc     O510515   9.004  11.135   9.317  0.5640  0.1598  0.1221
  379ccc    H1110516   9.100  11.116   9.319  0.4485 -0.7070 -1.1789
  379ccc     O610517   8.752  11.026   9.196 -0.1144 -0.2605 -0.2354
  380ccc     C110518   8.675   9.866  10.025  0.4125  0.3341  0.5013
  380ccc     C210519   8.588   9.863  10.158 -0.2870 -0.5287  0.2872
  380ccc     H110520   8.616   9.900   9.939 -1.1390 -3.4279 -0.1240
  380ccc     H210521   8.535   9.959  10.166  1.3125  0.2565  2.3442
  380ccc     C310522   8.479   9.756  10.155 -0.9667  0.8108 -0.2730
  380ccc     C410523   8.534   9.614  10.109 -0.0639 -0.1409 -0.0604
  380ccc     C510524   8.612   9.636   9.971 -0.3322  0.3087  0.1747
  380ccc     H310525   8.614   9.576  10.174  0.1652  1.7186  0.8044
  380ccc     H410526   8.404   9.785  10.080 -1.7392  1.2457  0.6531
  380ccc     H510527   8.546   9.666   9.889  0.7958  0.2407 -0.7896
  380ccc     O110528   8.678   9.501   9.935 -0.5098 -0.4536 -0.7887
  380ccc     O210529   8.421   9.529  10.095  0.4268 -0.2120  0.4923
  380ccc     O310530   8.424   9.742  10.289 -0.0545  0.1297 -1.0379
  380ccc     O410531   8.663   9.837  10.273  0.3045 -0.2172 -0.1439
  380ccc     C610532   8.786   9.963  10.042  0.4289 -0.4598 -0.3615
  380ccc     H610533   8.329   9.736  10.270 -0.5104  3.1701 -0.1460
  380ccc     H710534   8.582   9.823  10.323 -0.0390  1.6227 -0.1282
  380ccc     H810535   8.445   9.435  10.090 -0.5356 -0.5207  1.2848
  380ccc     H910536   8.873   9.915  10.090  1.2882 -0.5995 -1.9844
  380ccc    H1010537   8.763  10.050  10.105  0.6514 -0.8121  0.2145
  380ccc     O510538   8.813  10.011   9.906 -0.4573  0.4407  0.1392
  380ccc    H1110539   8.848  10.099   9.928 -0.3568  0.9869 -1.9898
  380ccc     O610540   8.714   9.732   9.992 -0.0206  0.3163  0.0387
  381ccc     C110541   8.361   9.648   9.391  0.4434  0.1061  0.2802
  381ccc     C210542   8.350   9.626   9.240 -0.3787  0.2823 -0.4848
  381ccc     H110543   8.413   9.740   9.422  3.0496 -0.8816 -0.8219
  381ccc     H210544   8.326   9.716   9.183 -2.3632 -0.5426 -1.0171
  381ccc     C310545   8.486   9.610   9.180 -0.3971 -0.2888  0.0743
  381ccc     C410546   8.582   9.517   9.256 -0.0224  0.2389 -0.6047
  381ccc     C510547   8.575   9.537   9.409  0.5469 -0.0910  0.3850
  381ccc     H310548   8.550   9.412   9.243 -0.7973  0.2233  1.1624
  381ccc     H410549   8.535   9.708   9.175  0.0888 -0.5436 -0.1890
  381ccc     H510550   8.615   9.633   9.443 -0.3239  0.2256  0.5434
  381ccc     O110551   8.639   9.433   9.480  0.8675 -0.1863  0.0895
  381ccc     O210552   8.711   9.550   9.208 -0.1527  0.5428 -0.3875
  381ccc     O310553   8.468   9.565   9.034 -0.0201  0.4825  0.5450
  381ccc     O410554   8.274   9.505   9.213 -0.2171  0.1556  0.2788
  381ccc     C610555   8.223   9.657   9.456  0.1582  0.5431  0.1308
  381ccc     H610556   8.444   9.470   9.034 -2.7612  1.1041  0.4855
  381ccc     H710557   8.184   9.533   9.190  0.4280  1.9671 -0.1741
  381ccc     H810558   8.709   9.500   9.125  1.3187 -0.4866  0.1518
  381ccc     H910559   8.171   9.561   9.465  0.2463  0.5489  0.7399
  381ccc    H1010560   8.161   9.720   9.391  2.1720  0.9548 -1.4840
  381ccc     O510561   8.233   9.717   9.581  0.3565 -0.4178 -0.4708
  381ccc    H1110562   8.232   9.642   9.643  1.1889  1.3741  1.8754
  381ccc     O610563   8.432   9.538   9.450 -0.0476 -0.2907 -0.5394
  382ccc     C110564   8.845  12.318   3.907  0.0353  0.3269 -0.1799
  382ccc     C210565   8.786  12.454   3.946  0.1943  0.6359  0.1627
  382ccc     H110566   8.914  12.333   3.823  1.0055  2.3645  0.8901
  382ccc     H210567   8.861  12.527   3.979 -0.4038  0.4486  2.0459
  382ccc     C310568   8.694  12.514   3.829  0.0742 -0.2834  0.2371
  382ccc     C410569   8.587  12.415   3.784 -0.1807  0.3922 -0.5719
  382ccc     C510570   8.651  12.277   3.751 -0.4929 -0.0875 -0.3902
  382ccc     H310571   8.514  12.398   3.865  1.5301  2.6475  1.6168
  382ccc     H410572   8.763  12.532   3.745  0.1952 -1.9857 -0.0556
  382ccc     H510573   8.720  12.276   3.667  0.5214 -0.3554  0.4241
  382ccc     O110574   8.544  12.188   3.717  0.0013 -0.3880  0.3839
  382ccc     O210575   8.508  12.465   3.677 -0.1764  0.3881 -0.0811
  382ccc     O310576   8.639  12.639   3.873 -0.1013  0.2894 -0.4272
  382ccc     O410577   8.703  12.426   4.065 -0.3846 -0.2516  0.0018
  382ccc     C610578   8.928  12.252   4.029  0.2058  0.4245 -0.3788
  382ccc     H610579   8.714  12.691   3.905  0.5394 -0.4381 -0.7126
  382ccc     H710580   8.755  12.463   4.139 -0.7992 -0.2049  0.2743
  382ccc     H810581   8.440  12.530   3.701 -1.4615 -0.2084 -1.8739
  382ccc     H910582   8.866  12.222   4.114 -0.9066 -0.9105 -1.6120
  382ccc    H1010583   9.003  12.325   4.061  2.6385 -0.4627 -3.4805
  382ccc     O510584   8.997  12.143   3.977 -0.2417  0.5523 -0.5943
  382ccc    H1110585   9.061  12.125   4.049  0.2220  1.8434 -0.6532
  382ccc     O610586   8.731  12.238   3.868 -0.0501  0.3390 -0.4434
  383ccc     C110587   7.809  12.165   4.222  0.0635 -0.5223 -0.4627
  383ccc     C210588   7.678  12.090   4.259  0.4136 -0.3586 -0.3678
  383ccc     H110589   7.773  12.240   4.152 -0.6354 -0.7547 -0.3660
  383ccc     H210590   7.600  12.144   4.314 -0.1211 -3.1802  1.9220
  383ccc     C310591   7.608  12.044   4.131 -0.4498  0.8449  0.0814
  383ccc     C410592   7.716  11.950   4.054  0.6800 -0.0550  0.2869
  383ccc     C510593   7.853  12.027   4.034 -0.7381 -0.1874  0.1308
  383ccc     H310594   7.729  11.867   4.125 -0.0490 -1.5344 -1.2588
  383ccc     H410595   7.601  12.136   4.071 -1.3757  0.3487 -0.6119
  383ccc     H510596   7.844  12.099   3.951  1.7425  1.0528  0.8554
  383ccc     O110597   7.953  11.927   3.986 -0.0728  0.0119  0.2289
  383ccc     O210598   7.658  11.911   3.929  0.3368  0.0459  0.3225
  383ccc     O310599   7.473  11.975   4.150 -0.0429 -0.2549 -0.6299
  383ccc     O410600   7.714  11.990   4.341 -0.1743  0.2410  0.1669
  383ccc     C610601   7.883  12.244   4.328 -0.0975 -0.8660 -0.1221
  383ccc     H610602   7.452  11.977   4.245  4.1192  1.3095  0.5018
  383ccc     H710603   7.794  12.025   4.385 -0.5505 -0.4676  1.4855
  383ccc     H810604   7.567  11.878   3.944  0.1218 -1.2276 -2.8790
  383ccc     H910605   7.817  12.323   4.367  1.7354  1.2283 -1.0778
  383ccc    H1010606   7.972  12.274   4.273 -0.5166  0.4662 -0.0974
  383ccc     O510607   7.918  12.156   4.435  0.2366 -0.8759 -0.4873
  383ccc    H1110608   7.979  12.195   4.500 -0.0673 -0.5954 -0.3705
  383ccc     O610609   7.908  12.080   4.159  0.1823  0.8311  0.3370
  384ccc     C110610   8.499  11.688   1.988  0.8246  0.2309 -0.1618
  384ccc     C210611   8.376  11.766   1.938 -0.2040  0.4257  0.3686
  384ccc     H110612   8.467  11.584   2.002  1.6826 -0.3135 -2.0186
  384ccc     H210613   8.338  11.714   1.849 -2.2654  0.6424  1.0718
  384ccc     C310614   8.265  11.778   2.047  0.4099 -0.6767  0.3027
  384ccc     C410615   8.322  11.851   2.175  0.0294  0.2931  0.4805
  384ccc     C510616   8.438  11.767   2.223  0.5446  0.1889 -0.3565
  384ccc     H310617   8.367  11.948   2.151  1.8978 -0.8030 -0.7090
  384ccc     H410618   8.238  11.676   2.075  0.0707 -0.9549 -1.0112
  384ccc     H510619   8.404  11.679   2.278  1.5812  0.1157  0.2038
  384ccc     O110620   8.495  11.845   2.329  0.9682  0.7294 -0.1013
  384ccc     O210621   8.220  11.857   2.277  0.1924  0.5235 -0.3035
  384ccc     O310622   8.144  11.848   1.993  0.0797 -0.5335 -0.1992
  384ccc     O410623   8.421  11.897   1.903  0.7869 -0.2604  0.1687
  384ccc     C610624   8.617  11.679   1.895  0.0884  0.5050  0.4386
  384ccc     H610625   8.076  11.850   2.063 -0.4452 -0.0107 -0.7224
  384ccc     H710626   8.362  11.904   1.826 -0.3725  2.1131  1.1639
  384ccc     H810627   8.235  11.946   2.313  1.7008 -0.3789  1.4652
  384ccc     H910628   8.670  11.775   1.895 -0.9682  1.1505 -1.5600
  384ccc    H1010629   8.587  11.650   1.793 -1.2646 -0.6958  1.1367
  384ccc     O510630   8.703  11.581   1.954  0.9930 -0.2735 -0.0579
  384ccc    H1110631   8.795  11.608   1.938  1.4816 -2.4684 -1.5303
  384ccc     O610632   8.540  11.743   2.120 -0.7295 -0.5981 -0.0133
  385ccc     C110633   8.626  12.797   2.718  0.0465  0.1548 -0.4143
  385ccc     C210634   8.571  12.821   2.867  1.0210 -0.5066 -0.1431
  385ccc     H110635   8.547  12.824   2.647 -1.2786 -0.8016  0.6509
  385ccc     H210636   8.535  12.924   2.875  0.4301 -0.7375  0.2705
  385ccc     C310637   8.457  12.717   2.899  0.3838  0.4041  0.5688
  385ccc     C410638   8.502  12.578   2.856  0.5417  0.1171 -0.1763
  385ccc     C510639   8.560  12.573   2.719 -0.4940  0.1007  0.2863
  385ccc     H310640   8.586  12.551   2.920  2.8371  4.0914 -1.1782
  385ccc     H410641   8.380  12.741   2.825  0.1376 -1.5069  0.1611
  385ccc     H510642   8.481  12.594   2.646 -0.7055 -0.0091  0.4792
  385ccc     O110643   8.618  12.435   2.698 -0.7281 -0.7467 -0.6290
  385ccc     O210644   8.397  12.481   2.871 -0.3762 -0.3504  0.1706
  385ccc     O310645   8.401  12.712   3.033 -0.3330 -0.3042  0.1865
  385ccc     O410646   8.679  12.795   2.961  0.2555  0.1874  0.9164
  385ccc     C610647   8.749  12.881   2.686 -0.2187 -0.1001  0.3655
  385ccc     H610648   8.398  12.805   3.063 -1.3988 -0.9573  2.3832
  385ccc     H710649   8.650  12.825   3.049 -0.8802  0.3800  0.4989
  385ccc     H810650   8.381  12.471   2.966 -1.2241  2.4216  0.4031
  385ccc     H910651   8.837  12.830   2.728 -2.1383 -2.1451  2.1305
  385ccc    H1010652   8.731  12.986   2.709  0.6888  0.3256 -0.7389
  385ccc     O510653   8.773  12.862   2.542  0.4161 -0.3836 -0.4867
  385ccc    H1110654   8.822  12.779   2.556 -1.3987 -1.7572 -1.9523
  385ccc     O610655   8.665  12.663   2.704 -0.4404 -0.1223 -0.7416
  386ccc     C110656   9.633  11.519   1.030 -0.4316  0.8658  0.8186
  386ccc     C210657   9.728  11.632   1.076  0.0653 -0.1039 -0.1242
  386ccc     H110658   9.571  11.558   0.949 -1.4328  0.4522  1.3638
  386ccc     H210659   9.775  11.677   0.988 -1.8346  2.7215  0.1618
  386ccc     C310660   9.642  11.743   1.147 -0.8162 -0.0509  0.1839
  386ccc     C410661   9.538  11.694   1.248 -0.4286 -0.0692  0.1930
  386ccc     C510662   9.460  11.579   1.192 -0.1304  0.0642  0.8095
  386ccc     H310663   9.587  11.672   1.344  0.6157 -0.3256 -0.3767
  386ccc     H410664   9.583  11.788   1.067 -0.0680  2.4634  0.9322
  386ccc     H510665   9.408  11.611   1.101  1.4633  2.3119  0.6354
  386ccc     O110666   9.374  11.519   1.293  0.5915  0.1516 -0.2969
  386ccc     O210667   9.448  11.807   1.273  0.1432  0.6784  0.1223
  386ccc     O310668   9.723  11.848   1.203 -0.1451  0.8133  0.3393
  386ccc     O410669   9.838  11.574   1.152  0.3346  0.5709 -0.1053
  386ccc     C610670   9.699  11.399   0.960 -0.1410  0.9274 -0.4748
  386ccc     H610671   9.702  11.835   1.297 -0.2336 -1.2871  0.0904
  386ccc     H710672   9.897  11.646   1.182  0.9674  0.2813 -0.6300
  386ccc     H810673   9.415  11.797   1.363  0.7403  0.9773  0.3788
  386ccc     H910674   9.736  11.337   1.043 -0.7582  2.8394  1.3264
  386ccc    H1010675   9.769  11.449   0.892 -1.3365  1.2423 -1.5154
  386ccc     O510676   9.598  11.326   0.887  0.7674 -0.1837  0.0018
  386ccc    H1110677   9.637  11.245   0.849  0.2665 -0.2638 -0.3510
  386ccc     O610678   9.555  11.480   1.149  0.0638 -0.4076  0.1010
  387ccc     C110679   8.584  10.957   1.332  0.5130  0.9050 -0.5782
  387ccc     C210680   8.703  10.865   1.292  0.2870 -0.8851 -0.0170
  387ccc     H110681   8.542  10.993   1.237 -0.9062 -1.2731 -0.8342
  387ccc     H210682   8.662  10.793   1.220 -0.9027 -0.8778  0.6160
  387ccc     C310683   8.813  10.950   1.212  0.5042 -0.0487  0.0931
  387ccc     C410684   8.859  11.073   1.283  0.1676 -0.9941 -0.4770
  387ccc     C510685   8.737  11.153   1.335  0.2885  0.4930 -0.0815
  387ccc     H310686   8.907  11.041   1.376  0.3596  0.6719  0.0400
  387ccc     H410687   8.765  10.989   1.121 -0.7197 -1.4413  0.1187
  387ccc     H510688   8.689  11.211   1.255  0.3558 -0.9064 -1.1783
  387ccc     O110689   8.781  11.241   1.434 -0.1343 -0.0523 -0.4715
  387ccc     O210690   8.952  11.150   1.199 -0.3616 -0.3900  0.0739
  387ccc     O310691   8.926  10.863   1.175  0.1485 -0.2438 -0.2919
  387ccc     O410692   8.756  10.800   1.414  0.7108 -0.0846  0.6053
  387ccc     C610693   8.485  10.867   1.410  0.3021 -0.4431 -0.7914
  387ccc     H610694   8.920  10.858   1.078  0.9358 -1.7303 -0.2871
  387ccc     H710695   8.817  10.731   1.383  0.7636  0.3097 -0.2060
  387ccc     H810696   9.000  11.099   1.131 -2.9675 -0.8060 -1.5882
  387ccc     H910697   8.528  10.814   1.495  1.0447  2.7766  0.9881
  387ccc    H1010698   8.425  10.803   1.343 -1.5502  1.3845 -0.9813
  387ccc     O510699   8.388  10.955   1.476  0.2864 -0.3345  0.0910
  387ccc    H1110700   8.437  10.994   1.550 -0.2396  0.1134  0.2067
  387ccc     O610701   8.633  11.075   1.402 -0.2017  0.3245  0.2790
  388ccc     C110702   9.908  12.026   2.640  0.1907 -0.0079  0.7766
  388ccc     C210703   9.864  12.000   2.785  0.6650 -0.6915 -0.1672
  388ccc     H110704   9.864  12.124   2.619 -1.5948 -1.0494 -0.6413
  388ccc     H210705   9.878  12.086   2.852 -0.2127  0.4338 -1.3757
  388ccc     C310706   9.711  11.993   2.789 -0.3786  0.1119 -0.0058
  388ccc     C410707   9.665  11.883   2.691 -0.2282  0.2513 -0.4561
  388ccc     C510708   9.727  11.889   2.551 -0.8011  0.3668 -0.4864
  388ccc     H310709   9.701  11.791   2.739  2.5918  1.7439  0.5227
  388ccc     H410710   9.677  12.087   2.744  1.1378  0.7437  0.0787
  388ccc     H510711   9.676  11.971   2.498 -0.6770  0.8222  0.0883
  388ccc     O110712   9.706  11.761   2.488 -0.0718  0.7577 -0.9414
  388ccc     O210713   9.529  11.864   2.693  0.0804 -0.3129 -0.1166
  388ccc     O310714   9.656  11.966   2.918  0.1219  0.1655 -0.5010
  388ccc     O410715   9.925  11.886   2.833  0.4358  0.1447 -0.3048
  388ccc     C610716  10.061  12.039   2.628  0.1826  0.2800 -0.2234
  388ccc     H610717   9.655  12.053   2.961 -0.4725 -0.4905  0.8821
  388ccc     H710718   9.868  11.866   2.909 -0.0850  1.6732 -0.2693
  388ccc     H810719   9.497  11.861   2.785  1.1950 -0.9822  0.2701
  388ccc     H910720  10.111  11.941   2.620 -1.0165 -0.2960 -0.8939
  388ccc    H1010721  10.091  12.101   2.713  0.9880  2.1907 -1.8384
  388ccc     O510722  10.096  12.116   2.518 -0.4474 -0.1991  0.2166
  388ccc    H1110723  10.049  12.201   2.526  0.3537  0.1930  0.8156
  388ccc     O610724   9.870  11.922   2.554 -0.3598  0.5520 -0.4864
  389ccc     C110725   9.977  11.618   1.630  0.5606 -0.1402  0.1957
  389ccc     C210726   9.911  11.742   1.586  0.0320 -0.2005 -0.0618
  389ccc     H110727   9.980  11.553   1.542 -3.6239 -2.4863  1.4865
  389ccc     H210728   9.961  11.795   1.504 -0.9526 -1.4445 -1.5072
  389ccc     C310729   9.772  11.718   1.529 -0.1416 -0.0091 -1.0003
  389ccc     C410730   9.691  11.651   1.638  0.1325 -0.1565 -0.4559
  389ccc     C510731   9.754  11.520   1.687 -0.5744 -0.4212  0.3153
  389ccc     H310732   9.697  11.721   1.722  1.7469  0.2971 -0.9042
  389ccc     H410733   9.780  11.648   1.445  0.2109 -0.6686 -0.4318
  389ccc     H510734   9.753  11.448   1.603  2.8437 -1.6475  1.1600
  389ccc     O110735   9.683  11.463   1.799 -0.4602 -0.6114  0.4646
  389ccc     O210736   9.558  11.636   1.582  0.3224  0.1666  0.2508
  389ccc     O310737   9.708  11.842   1.477  0.2187  0.6245  0.0905
  389ccc     O410738   9.907  11.821   1.709  0.2210 -0.2791  0.0236
  389ccc     C610739  10.117  11.632   1.690 -0.1231  0.3919  0.5879
  389ccc     H610740   9.670  11.877   1.560 -1.5443 -2.5488  0.7679
  389ccc     H710741   9.967  11.760   1.756 -0.7617 -2.2244 -1.1066
  389ccc     H810742   9.546  11.543   1.557  0.8332  0.2132 -0.1798
  389ccc     H910743  10.174  11.707   1.634 -1.2501  1.8169  1.2964
  389ccc    H1010744  10.172  11.537   1.693  0.1554  0.5325  4.3032
  389ccc     O510745  10.089  11.680   1.813  0.0662  0.1362 -0.1684
  389ccc    H1110746  10.163  11.737   1.840  1.0188 -1.0301 -0.2579
  389ccc     O610747   9.892  11.541   1.723 -0.1271 -0.6941 -0.6142
  390ccc     C110748  10.744  11.250   3.517  0.4303  0.4797 -0.7776
  390ccc     C210749  10.695  11.399   3.507 -0.2800  0.3086  0.0493
  390ccc     H110750  10.850  11.246   3.544 -0.5553 -2.4298  3.9997
  390ccc     H210751  10.716  11.460   3.596 -1.5467 -0.2697  0.7774
  390ccc     C310752  10.774  11.470   3.394  0.7884  0.4779  0.6571
  390ccc     C410753  10.756  11.394   3.259  0.2062  0.3945  0.9996
  390ccc     C510754  10.773  11.238   3.267 -0.0209  0.0302 -0.0830
  390ccc     H310755  10.651  11.414   3.232 -0.1394 -2.0928  0.2877
  390ccc     H410756  10.883  11.458   3.404  1.1784  0.6078 -2.4641
  390ccc     H510757  10.873  11.202   3.242 -1.8459 -3.7529 -3.2384
  390ccc     O110758  10.690  11.174   3.168  0.2961 -0.2681 -0.4042
  390ccc     O210759  10.852  11.453   3.169  0.3026  0.4411 -0.6045
  390ccc     O310760  10.739  11.608   3.367 -0.1897  0.0253 -0.7828
  390ccc     O410761  10.553  11.398   3.479 -0.5515 -0.3510  0.4468
  390ccc     C610762  10.674  11.166   3.625  0.2794  0.3322 -0.2614
  390ccc     H610763  10.747  11.656   3.452  0.3125 -1.2819 -0.0570
  390ccc     H710764  10.527  11.309   3.510 -2.5486  0.1129  0.2502
  390ccc     H810765  10.844  11.413   3.081  1.4690 -0.0229 -0.5145
  390ccc     H910766  10.682  11.211   3.725 -1.2984  2.0733 -0.8672
  390ccc    H1010767  10.727  11.071   3.633 -1.2704 -0.6856 -1.5583
  390ccc     O510768  10.537  11.146   3.596 -0.2401 -0.0463  0.0974
  390ccc    H1110769  10.524  11.049   3.598 -1.5693  0.1073 -0.5437
  390ccc     O610770  10.722  11.178   3.393 -0.3583  0.0757  0.0287
  391ccc     C110771  10.989  10.802   2.145 -0.7611  0.3896 -0.4076
  391ccc     C210772  11.126  10.791   2.215  0.4315 -0.1268  0.0004
  391ccc     H110773  10.994  10.890   2.080  0.6401  0.4263 -0.2793
  391ccc     H210774  11.204  10.765   2.143  0.1710 -1.6113  0.2342
  391ccc     C310775  11.153  10.918   2.295 -0.3681 -0.2486  0.0272
  391ccc     C410776  11.035  10.939   2.395 -0.4272 -0.6898  0.2939
  391ccc     C510777  10.893  10.937   2.335 -0.3527 -0.0262  1.1057
  391ccc     H310778  11.044  10.863   2.473  2.6741  1.3511  2.1344
  391ccc     H410779  11.154  11.006   2.230 -1.4140 -0.0000  0.3479
  391ccc     H510780  10.872  11.031   2.284 -2.3658  0.1456  2.1726
  391ccc     O110781  10.811  10.911   2.444 -0.3653 -0.4655 -0.1728
  391ccc     O210782  11.063  11.063   2.467 -0.1243  0.1303 -0.0897
  391ccc     O310783  11.287  10.911   2.363 -0.3186 -0.3034 -0.0921
  391ccc     O410784  11.112  10.681   2.301 -0.1900  0.5771 -0.4885
  391ccc     C610785  10.955  10.678   2.061  0.5389  0.3558 -0.0427
  391ccc     H610786  11.351  10.898   2.290 -1.1390  0.7999 -1.0426
  391ccc     H710787  11.197  10.633   2.302 -0.5999 -0.1406  0.1745
  391ccc     H810788  11.157  11.053   2.490  0.2192  0.9952 -1.0733
  391ccc     H910789  10.941  10.600   2.137 -0.5907 -1.6163 -2.1448
  391ccc    H1010790  11.043  10.654   2.001  0.1719 -0.0519 -0.4264
  391ccc     O510791  10.830  10.706   1.991 -0.5785 -0.2864 -0.0442
  391ccc    H1110792  10.771  10.686   2.065 -0.8096  1.0701  0.1771
  391ccc     O610793  10.878  10.827   2.238  0.2656  0.0219 -0.5011
  392ccc     C110794   9.629  11.718   3.435 -0.1568  0.0967  0.0096
  392ccc     C210795   9.557  11.725   3.297 -0.1733  0.1157  0.6147
  392ccc     H110796   9.671  11.816   3.458 -1.2062  0.9448 -1.5597
  392ccc     H210797   9.479  11.802   3.297 -0.7369 -0.4393  1.2855
  392ccc     C310798   9.646  11.773   3.181  0.9096  0.3193 -0.2427
  392ccc     C410799   9.773  11.682   3.175  0.5002 -0.4122  0.2268
  392ccc     C510800   9.843  11.680   3.309  0.9471  0.0162 -0.5111
  392ccc     H310801   9.746  11.582   3.138 -1.1294 -0.4515  1.4109
  392ccc     H410802   9.677  11.876   3.204  0.4618  0.3994  0.0018
  392ccc     H510803   9.873  11.784   3.328 -0.3431 -0.2732  4.4762
  392ccc     O110804   9.959  11.605   3.300 -0.4184  0.3281  0.0381
  392ccc     O210805   9.861  11.753   3.081 -0.0359  0.0947 -0.1780
  392ccc     O310806   9.573  11.766   3.058 -0.4284  0.2596 -0.0250
  392ccc     O410807   9.495  11.601   3.272  0.4167  0.0212  0.8447
  392ccc     C610808   9.542  11.660   3.551  0.1933 -0.3756 -0.4112
  392ccc     H610809   9.608  11.838   3.003  0.0143  0.6519  0.7569
  392ccc     H710810   9.435  11.629   3.201 -0.3379 -1.9186  0.6249
  392ccc     H810811   9.916  11.681   3.046 -0.1957 -0.2838  0.3489
  392ccc     H910812   9.534  11.551   3.549  1.3777 -0.5009  0.6885
  392ccc    H1010813   9.442  11.700   3.531 -0.4153 -2.3153 -1.4747
  392ccc     O510814   9.597  11.710   3.676  0.1047  0.0178 -0.9591
  392ccc    H1110815   9.520  11.711   3.736  1.0737 -0.3393  0.3586
  392ccc     O610816   9.749  11.634   3.421 -0.9723  0.3964  0.0726
  393ccc     C110817  10.789  11.729   2.758 -0.0572  0.6714  0.2210
  393ccc     C210818  10.902  11.650   2.695 -0.7427  0.1143  0.7137
  393ccc     H110819  10.821  11.779   2.851  0.2895  2.0036 -0.5947
  393ccc     H210820  10.996  11.706   2.685  0.3100 -1.0658  3.2029
  393ccc     C310821  10.933  11.526   2.782 -0.3512  0.2782  0.2433
  393ccc     C410822  10.807  11.450   2.825  0.4287  0.0069 -0.4533
  393ccc     C510823  10.693  11.540   2.877 -0.7856  0.0050  0.1694
  393ccc     H310824  10.769  11.397   2.737 -2.0626 -1.5784  1.4653
  393ccc     H410825  10.973  11.561   2.878  2.9890  1.5645 -1.4731
  393ccc     H510826  10.708  11.576   2.979 -1.2438  0.7365 -0.0132
  393ccc     O110827  10.580  11.456   2.867  0.2991 -0.2794 -0.6612
  393ccc     O210828  10.845  11.359   2.933  0.0042 -0.3479 -0.1359
  393ccc     O310829  11.038  11.449   2.734  0.3862 -0.0635  0.0756
  393ccc     O410830  10.856  11.607   2.563 -0.0844 -0.2470 -0.1761
  393ccc     C610831  10.761  11.858   2.678  0.6540 -0.3628  0.2018
  393ccc     H610832  11.017  11.399   2.654  0.6989 -0.1466  0.0423
  393ccc     H710833  10.914  11.533   2.536 -2.4614 -2.0901 -0.5926
  393ccc     H810834  10.907  11.296   2.891  0.2191  0.2356 -0.7226
  393ccc     H910835  10.686  11.833   2.602  1.7961  1.8952 -1.8319
  393ccc    H1010836  10.853  11.895   2.630  0.8079 -1.3840 -0.3281
  393ccc     O510837  10.699  11.946   2.772 -0.2212 -0.4902 -0.0773
  393ccc    H1110838  10.649  12.016   2.727 -1.7084  1.0829  3.5871
  393ccc     O610839  10.673  11.646   2.780  0.2162 -0.2712 -0.0655
  394ccc     C110840  10.268  10.631   4.760 -0.2675  0.0571 -0.4572
  394ccc     C210841  10.241  10.558   4.635  0.1066  1.1212 -0.2046
  394ccc     H110842  10.207  10.602   4.847 -0.7999  3.3852  0.4241
  394ccc     H210843  10.261  10.452   4.658  0.3509  1.5719  1.8276
  394ccc     C310844  10.090  10.576   4.594 -0.2060 -0.9045  0.2842
  394ccc     C410845  10.044  10.718   4.585 -0.6375 -0.1280 -0.9245
  394ccc     C510846  10.087  10.795   4.714  0.0521  0.5673  0.4816
  394ccc     H310847  10.104  10.763   4.504 -0.1421  0.6196 -0.1600
  394ccc     H410848  10.032  10.535   4.677  0.6038  0.5414  1.6220
  394ccc     H510849  10.041  10.762   4.809  0.7496  3.4344  1.9070
  394ccc     O110850  10.068  10.933   4.697  0.2019 -0.2549 -0.3753
  394ccc     O210851   9.902  10.713   4.581  0.3366 -0.1174  0.0326
  394ccc     O310852  10.063  10.507   4.474 -0.1851 -0.2646  0.0512
  394ccc     O410853  10.330  10.610   4.533  0.4277  0.3275  0.2397
  394ccc     C610854  10.416  10.614   4.802 -0.6485  0.1311 -0.4065
  394ccc     H610855  10.118  10.546   4.404 -0.9530 -0.0063 -0.4259
  394ccc     H710856  10.391  10.542   4.499 -2.0026 -1.7062 -0.4413
  394ccc     H810857   9.890  10.683   4.489 -0.2827 -0.0734  0.0958
  394ccc     H910858  10.485  10.684   4.753  0.6569  0.3022  1.5589
  394ccc    H1010859  10.458  10.513   4.800  2.2675  1.2221  0.3581
  394ccc     O510860  10.415  10.653   4.940  0.0524  0.0247  0.3614
  394ccc    H1110861  10.410  10.749   4.928 -1.7816 -0.0803 -0.0181
  394ccc     O610862  10.229  10.770   4.735  0.6044 -0.4925 -0.4033
  395ccc     C110863  10.463  11.419   3.838 -1.0414  0.0097  0.0039
  395ccc     C210864  10.337  11.373   3.757 -0.7581  0.3101 -0.8098
  395ccc     H110865  10.545  11.349   3.822 -0.8603  0.2099  0.0554
  395ccc     H210866  10.377  11.353   3.657  1.3139  0.3378 -0.0295
  395ccc     C310867  10.305  11.227   3.805  0.6745 -0.3636  0.2601
  395ccc     C410868  10.269  11.223   3.958  0.1835 -0.0885 -0.3364
  395ccc     C510869  10.385  11.285   4.035  0.4469 -0.0792  0.2180
  395ccc     H310870  10.182  11.285   3.979 -0.2871 -1.3454  1.7379
  395ccc     H410871  10.390  11.160   3.787 -0.2265 -1.0335 -1.7899
  395ccc     H510872  10.467  11.216   4.015  1.9358  1.2788  1.4572
  395ccc     O110873  10.338  11.295   4.175 -0.5787 -0.2683  0.1035
  395ccc     O210874  10.247  11.082   3.993  0.0860 -0.3228  0.2062
  395ccc     O310875  10.188  11.175   3.732 -0.2831  0.4624 -0.4347
  395ccc     O410876  10.231  11.466   3.763 -0.2036  0.6067  0.2342
  395ccc     C610877  10.514  11.562   3.798  0.2505  0.5216  0.4335
  395ccc     H610878  10.198  11.079   3.743  0.1016  0.5397 -0.0797
  395ccc     H710879  10.290  11.540   3.785  0.5561  0.9742 -2.6298
  395ccc     H810880  10.154  11.063   3.974  0.3012 -2.4308  1.0338
  395ccc     H910881  10.540  11.569   3.692  0.1104  2.7525  0.5124
  395ccc    H1010882  10.607  11.580   3.854  0.3500  0.9313  0.1425
  395ccc     O510883  10.403  11.655   3.833  0.5973 -0.3533 -0.1350
  395ccc    H1110884  10.434  11.746   3.821  2.6155 -0.8093  1.1665
  395ccc     O610885  10.420  11.416   3.982 -0.9596  0.3780  0.2519
  396ccc     C110886   9.390  12.930   3.830 -0.5620 -0.3230  0.4454
  396ccc     C210887   9.259  13.003   3.847  0.2310 -0.1080  0.4534
  396ccc     H110888   9.390  12.869   3.739 -0.0955  0.0499  0.1891
  396ccc     H210889   9.231  13.059   3.756  0.5972  1.2717  1.1636
  396ccc     C310890   9.144  12.908   3.877 -0.0451 -0.0616 -0.8547
  396ccc     C410891   9.174  12.810   3.995 -0.4706 -0.2526 -0.9344
  396ccc     C510892   9.315  12.742   3.979 -0.3375 -0.7434  0.5690
  396ccc     H310893   9.182  12.868   4.087 -1.5818 -2.7770  0.8643
  396ccc     H410894   9.120  12.851   3.786 -1.4241  3.4103 -2.8921
  396ccc     H510895   9.307  12.667   3.899  0.2494  0.5882 -0.7921
  396ccc     O110896   9.360  12.677   4.102  0.1845  0.6996 -0.3542
  396ccc     O210897   9.075  12.712   4.008  0.3118 -0.0583 -0.2539
  396ccc     O310898   9.032  12.988   3.921  0.1466 -0.3351  0.0293
  396ccc     O410899   9.263  13.095   3.956 -0.2885  0.0777 -0.2603
  396ccc     C610900   9.511  13.020   3.812  0.3307 -0.2855  0.3262
  396ccc     H610901   9.072  13.073   3.944 -0.9664  0.1757  0.1263
  396ccc     H710902   9.358  13.107   3.972 -0.2088 -0.1266 -0.5680
  396ccc     H810903   9.027  12.742   4.088  2.8758  1.4505  0.8420
  396ccc     H910904   9.500  13.088   3.727  0.8971 -0.1639  0.3396
  396ccc    H1010905   9.593  12.953   3.782  0.8619  0.8267 -0.7632
  396ccc     O510906   9.529  13.107   3.926 -0.2933  0.7889  1.0308
  396ccc    H1110907   9.626  13.118   3.922  0.0131 -1.7449 -1.4916
  396ccc     O610908   9.418  12.840   3.940 -0.5349  0.1575  0.0553
  397ccc     C110909   9.378  12.877   4.996  0.1411 -0.3776  0.7531
  397ccc     C210910   9.469  12.833   5.119  0.4185  0.2308  0.0715
  397ccc     H110911   9.270  12.872   5.016 -0.3614 -0.3388 -1.6176
  397ccc     H210912   9.428  12.875   5.212 -0.5439 -0.5640  0.0168
  397ccc     C310913   9.464  12.685   5.138  0.5203  0.3077 -0.6895
  397ccc     C410914   9.480  12.602   5.011 -1.1566  0.0660  0.0179
  397ccc     C510915   9.397  12.656   4.889  0.0369 -0.4000 -0.4765
  397ccc     H310916   9.583  12.622   4.981 -0.8767  0.7916  1.3325
  397ccc     H410917   9.361  12.674   5.176  0.1794 -3.1655 -2.2526
  397ccc     H510918   9.289  12.649   4.904 -0.1321 -0.3988 -1.6456
  397ccc     O110919   9.439  12.581   4.769 -0.1674  0.3784 -0.2038
  397ccc     O210920   9.445  12.467   5.039 -0.6276  0.1736 -0.3938
  397ccc     O310921   9.556  12.641   5.235 -0.1307  0.0968  0.0658
  397ccc     O410922   9.606  12.866   5.112 -0.6153 -0.0902 -0.3102
  397ccc     C610923   9.417  13.025   4.961 -0.3717 -0.1552 -0.0255
  397ccc     H610924   9.544  12.547   5.255 -0.6395 -0.4829 -2.6298
  397ccc     H710925   9.642  12.816   5.187  0.5148 -0.4503 -1.0778
  397ccc     H810926   9.521  12.413   5.011 -0.1302 -0.3254  1.7473
  397ccc     H910927   9.407  13.094   5.046 -0.7563  1.0349 -1.0087
  397ccc    H1010928   9.344  13.072   4.894 -1.4364 -0.7469  0.6871
  397ccc     O510929   9.549  13.017   4.900 -0.3427  0.7064 -0.2091
  397ccc    H1110930   9.589  12.954   4.963 -3.0634 -1.0982 -0.1004
  397ccc     O610931   9.420  12.795   4.882 -0.1477  0.6742 -0.4692
  398ccc     C110932   6.780  10.994   2.131  0.9479 -0.1700  0.1889
  398ccc     C210933   6.710  10.923   2.014  0.0293 -0.2070 -0.0240
  398ccc     H110934   6.864  11.056   2.097 -0.4269  1.1927 -0.8836
  398ccc     H210935   6.669  10.999   1.946 -3.4445 -0.2596  1.7803
  398ccc     C310936   6.812  10.836   1.934  0.0863  0.0878  1.1465
  398ccc     C410937   6.882  10.737   2.027 -0.3193  0.3271  0.2627
  398ccc     C510938   6.923  10.789   2.164 -0.1123 -0.5239 -0.6164
  398ccc     H310939   6.816  10.650   2.042  0.1676  0.1796  1.7520
  398ccc     H410940   6.892  10.898   1.892  0.3649 -1.2727 -0.4041
  398ccc     H510941   7.020  10.838   2.151  1.7830 -3.4927  1.1691
  398ccc     O110942   6.937  10.678   2.252  0.3575 -0.2624 -0.5935
  398ccc     O210943   7.004  10.696   1.962  0.5090  0.6524 -0.6672
  398ccc     O310944   6.738  10.764   1.830 -0.6235  0.1915 -0.5393
  398ccc     O410945   6.610  10.835   2.063  0.0311  0.6518  0.4568
  398ccc     C610946   6.690  11.088   2.221  0.1485 -0.0282  0.3864
  398ccc     H610947   6.699  10.830   1.771 -0.9268 -0.3299 -0.9319
  398ccc     H710948   6.593  10.888   2.143  1.4803  1.6176  0.1615
  398ccc     H810949   7.009  10.602   1.985 -1.1635  1.0881  1.9541
  398ccc     H910950   6.674  11.175   2.157 -0.3336 -0.9041 -0.7181
  398ccc    H1010951   6.745  11.124   2.309  3.0972 -0.6074 -1.0916
  398ccc     O510952   6.572  11.016   2.246 -0.1881  0.1727  0.6364
  398ccc    H1110953   6.499  11.079   2.263  0.6828  1.5861 -0.6079
  398ccc     O610954   6.825  10.887   2.218 -0.2987 -0.1456  0.0267
  399ccc     C110955   7.378  10.958   3.366 -0.3991 -0.7448 -0.2780
  399ccc     C210956   7.344  10.850   3.466  0.1234 -0.5249  0.4864
  399ccc     H110957   7.297  11.031   3.371 -1.7994 -2.3438  1.5988
  399ccc     H210958   7.326  10.905   3.559 -2.7354 -0.7709  0.1987
  399ccc     C310959   7.216  10.768   3.434  0.6046  0.2695  0.0054
  399ccc     C410960   7.196  10.731   3.285  0.1230  0.1203  0.1618
  399ccc     C510961   7.258  10.844   3.189  0.2208  0.7853  0.3126
  399ccc     H310962   7.252  10.639   3.265 -0.4508 -1.1673  3.6721
  399ccc     H410963   7.124  10.823   3.459  0.1231 -0.3312 -0.4073
  399ccc     H510964   7.184  10.924   3.181 -0.1730  0.2622 -2.1565
  399ccc     O110965   7.267  10.780   3.060  0.7498  0.7077  0.0113
  399ccc     O210966   7.058  10.703   3.252 -0.2972  0.2426 -0.4513
  399ccc     O310967   7.209  10.647   3.518  0.0837  0.6887  0.3265
  399ccc     O410968   7.449  10.751   3.489  0.1105  0.1924 -0.1294
  399ccc     C610969   7.510  11.039   3.383 -0.3982  0.0788  0.6235
  399ccc     H610970   7.295  10.641   3.563  1.0116 -3.3216 -1.5117
  399ccc     H710971   7.527  10.799   3.456  0.8188  0.0549  1.2771
  399ccc     H810972   7.041  10.622   3.304  1.1116  0.7390  0.8387
  399ccc     H910973   7.494  11.106   3.468 -0.1557 -1.0255  1.5671
  399ccc    H1010974   7.529  11.100   3.294  1.8712 -2.2876 -0.6633
  399ccc     O510975   7.625  10.958   3.412 -0.6079  0.2817 -0.4066
  399ccc    H1110976   7.666  10.987   3.496  1.1141  0.0303 -1.1247
  399ccc     O610977   7.385  10.890   3.241 -0.3630 -0.1516  0.1233
  400ccc     C110978   8.274  11.668   1.340 -0.1057 -0.2888  0.0063
  400ccc     C210979   8.347  11.749   1.446  0.0812 -0.9289 -0.9134
  400ccc     H110980   8.195  11.720   1.285 -2.0575 -1.3904  1.6458
  400ccc     H210981   8.401  11.833   1.400  0.7846 -1.0673 -0.3551
  400ccc     C310982   8.239  11.806   1.546  0.6121 -0.0282 -0.1468
  400ccc     C410983   8.154  11.697   1.613  0.1189 -0.6972 -0.7262
  400ccc     C510984   8.099  11.607   1.503  0.1316 -0.0811  0.5958
  400ccc     H310985   8.224  11.635   1.670 -0.9627 -1.0012  0.2976
  400ccc     H410986   8.166  11.861   1.485  0.5189  0.3206  0.2695
  400ccc     H510987   8.026  11.661   1.442  0.7802  0.6154  0.4257
  400ccc     O110988   8.043  11.484   1.573  0.4338 -0.2530  0.3050
  400ccc     O210989   8.054  11.760   1.697  0.3799 -0.2909  0.0009
  400ccc     O310990   8.304  11.887   1.643  0.1847 -0.4278  0.4084
  400ccc     O410991   8.431  11.661   1.520 -0.7107 -0.5564 -0.0882
  400ccc     C610992   8.372  11.602   1.242 -0.1685 -0.5033  0.1303
  400ccc     H610993   8.348  11.965   1.605 -2.1149  0.8734  0.3069
  400ccc     H710994   8.446  11.591   1.453 -1.0856 -0.9563  0.2363
  400ccc     H810995   8.106  11.803   1.767 -2.6786  1.0747  1.6404
  400ccc     H910996   8.432  11.677   1.189 -0.6470 -1.5629 -2.0153
  400ccc    H1010997   8.311  11.564   1.159 -0.8922 -0.3819  0.5972
  400ccc     O510998   8.439  11.497   1.313 -0.3822  0.1422 -0.4626
  400ccc    H1110999   8.375  11.425   1.320  0.4064 -0.7804 -2.0885
  400ccc     O611000   8.201  11.563   1.420 -0.3143 -0.1522  0.2538
  401ccc     C111001   7.641  11.642   2.185  0.0736 -0.7429 -0.2615
  401ccc     C211002   7.719  11.772   2.148 -0.5296  0.1627  1.0881
  401ccc     H111003   7.633  11.631   2.294 -1.2728 -0.2713 -0.2900
  401ccc     H211004   7.665  11.855   2.195 -0.3481  0.7017  0.3565
  401ccc     C311005   7.867  11.758   2.195  0.9211 -0.7630 -0.6103
  401ccc     C411006   7.935  11.631   2.163 -0.5915  0.7413  0.9295
  401ccc     C511007   7.846  11.507   2.178 -0.4737 -0.0648 -0.2967
  401ccc     H311008   7.960  11.641   2.057 -0.9517  0.5436  0.8262
  401ccc     H411009   7.852  11.773   2.303  2.1834 -0.9558 -0.3978
  401ccc     H511010   7.837  11.476   2.283  2.7636  0.4602  0.2182
  401ccc     O111011   7.910  11.397   2.109  0.2573  0.3059  0.1048
  401ccc     O211012   8.054  11.614   2.242 -0.2501  0.5236  0.6251
  401ccc     O311013   7.948  11.873   2.157 -0.1395  0.0748 -1.0669
  401ccc     O411014   7.708  11.789   2.003 -0.2871  0.4625 -0.2047
  401ccc     C611015   7.492  11.635   2.150 -1.0802  0.2611  0.1585
  401ccc     H611016   7.932  11.951   2.213  0.8263  0.7323 -1.6851
  401ccc     H711017   7.770  11.860   1.979  0.2302 -0.4067 -1.5259
  401ccc     H811018   8.082  11.707   2.246  3.1379 -0.3254  0.0540
  401ccc     H911019   7.447  11.730   2.182  0.3676  0.8702  0.4542
  401ccc    H1011020   7.450  11.554   2.211 -1.6604  0.4787  0.0480
  401ccc     O511021   7.492  11.621   2.008  0.2481  0.6487  0.3250
  401ccc    H1111022   7.552  11.695   1.988  0.0780  0.7568  0.2184
  401ccc     O611023   7.714  11.523   2.130  0.2840  0.3455 -0.0129
  402ccc     C111024   7.573   9.113   2.853 -0.3130 -0.3270 -0.0724
  402ccc     C211025   7.640   8.976   2.861  0.4239  0.0484 -0.2770
  402ccc     H111026   7.465   9.106   2.873 -0.0373  0.9699  2.2314
  402ccc     H211027   7.625   8.938   2.963 -0.5539  3.2733  0.8980
  402ccc     C311028   7.581   8.884   2.751 -0.2236 -0.4804 -0.2741
  402ccc     C411029   7.589   8.948   2.611  1.2135 -0.3610 -0.6619
  402ccc     C511030   7.540   9.094   2.601 -0.1405 -0.0266 -0.2391
  402ccc     H311031   7.693   8.957   2.578  1.5236  0.0915  0.4078
  402ccc     H411032   7.474   8.869   2.770 -0.7478 -2.3196 -3.9033
  402ccc     H511033   7.431   9.085   2.601 -0.1054 -0.6193 -1.3723
  402ccc     O111034   7.578   9.149   2.476 -0.2868  0.3955  0.3124
  402ccc     O211035   7.510   8.863   2.516 -0.0808 -0.3858 -0.5416
  402ccc     O311036   7.646   8.754   2.756 -0.0370  0.7771 -0.0257
  402ccc     O411037   7.780   9.006   2.852 -0.3648  0.1072  0.8071
  402ccc     C611038   7.601   9.213   2.958  0.8239  0.2463  0.0984
  402ccc     H611039   7.742   8.758   2.766  0.3422 -3.6936  0.1999
  402ccc     H711040   7.776   9.102   2.867  1.1348  0.6137 -1.5513
  402ccc     H811041   7.539   8.873   2.424  0.7657  1.0813 -0.1538
  402ccc     H911042   7.561   9.173   3.052 -1.3203  1.5849 -0.1754
  402ccc    H1011043   7.565   9.311   2.922  2.9035  0.2620 -2.2381
  402ccc     O511044   7.743   9.235   2.966 -0.3961 -0.4549 -0.3769
  402ccc    H1111045   7.754   9.331   2.966  0.2140 -0.2978 -4.6892
  402ccc     O611046   7.587   9.169   2.720  0.4842  0.0589  0.2984
  403ccc     C111047   7.558   8.722   1.635 -1.2494  0.7833  0.3767
  403ccc     C211048   7.642   8.608   1.690  0.7670 -0.5591 -0.0534
  403ccc     H111049   7.587   8.746   1.532 -0.5594  0.0234  0.3779
  403ccc     H211050   7.645   8.524   1.619 -3.3109 -1.3621  0.4254
  403ccc     C311051   7.785   8.644   1.708 -0.2924 -0.3422 -0.6631
  403ccc     C411052   7.809   8.769   1.803  0.4473 -0.6577  0.2586
  403ccc     C511053   7.704   8.881   1.768 -0.2610  0.3857 -0.1858
  403ccc     H311054   7.793   8.738   1.906 -0.1873  0.2243  0.4347
  403ccc     H411055   7.831   8.685   1.618 -1.3536 -0.8185 -1.4448
  403ccc     H511056   7.733   8.928   1.674 -2.2292 -0.1262 -1.1047
  403ccc     O111057   7.698   8.971   1.881  0.2896  0.0049 -0.5944
  403ccc     O211058   7.939   8.824   1.776  0.6172 -0.3662 -0.6767
  403ccc     O311059   7.885   8.539   1.741  0.9370 -0.4324 -0.1278
  403ccc     O411060   7.589   8.559   1.818 -0.0497  0.0877 -0.3609
  403ccc     C611061   7.407   8.686   1.633  0.1000  0.4594 -0.3275
  403ccc     H611062   7.947   8.549   1.667  0.5995  0.9873 -0.2535
  403ccc     H711063   7.628   8.471   1.834 -0.8926 -0.2797 -0.2586
  403ccc     H811064   8.003   8.776   1.831  0.4562  0.3810  0.1929
  403ccc     H911065   7.367   8.708   1.733 -0.8102  0.1281 -0.6086
  403ccc    H1011066   7.397   8.579   1.610  0.1731  0.6077 -1.0933
  403ccc     O511067   7.332   8.762   1.539 -0.6034  0.1647 -0.1045
  403ccc    H1111068   7.385   8.760   1.458 -1.8112  0.0502 -0.9154
  403ccc     O611069   7.571   8.835   1.728  0.4008 -0.7914  0.7168
  404ccc     C111070   8.273   8.785   0.720  0.3975  0.1843 -0.4719
  404ccc     C211071   8.130   8.818   0.773 -0.1305 -0.3134 -0.2720
  404ccc     H111072   8.312   8.719   0.799 -1.1073  0.6846  0.7512
  404ccc     H211073   8.076   8.726   0.798  0.9278 -1.2799 -1.4215
  404ccc     C311074   8.128   8.908   0.903 -0.3455 -0.6010  0.1277
  404ccc     C411075   8.222   9.030   0.886  0.0621 -0.4748  0.4081
  404ccc     C511076   8.360   8.977   0.841  0.2129 -0.1940 -0.0745
  404ccc     H311077   8.183   9.081   0.797  0.8645 -2.0163 -0.8572
  404ccc     H411078   8.159   8.860   0.997  0.4098 -0.0976  0.1470
  404ccc     H511079   8.394   8.907   0.918  0.3568  0.2767  0.2932
  404ccc     O111080   8.452   9.087   0.826 -0.0344 -0.2306  0.5459
  404ccc     O211081   8.226   9.111   1.004 -0.0417  0.3652  0.2098
  404ccc     O311082   7.987   8.952   0.922 -0.3859 -0.6599  0.3747
  404ccc     O411083   8.060   8.896   0.684 -0.3233  0.0026 -0.4168
  404ccc     C611084   8.283   8.710   0.587 -0.7001 -0.2836 -0.2049
  404ccc     H611085   7.983   9.004   1.004 -1.7429  1.8641 -1.1580
  404ccc     H711086   7.991   8.933   0.742  0.4377 -0.1605  0.6205
  404ccc     H811087   8.146   9.166   0.996 -0.4374 -0.0746  1.0503
  404ccc     H911088   8.219   8.621   0.591 -0.1350 -0.8887 -2.9171
  404ccc    H1011089   8.391   8.694   0.574 -0.2864  1.7553  0.2901
  404ccc     O511090   8.228   8.799   0.490 -0.0536 -0.0509 -0.1368
  404ccc    H1111091   8.221   8.742   0.411 -2.2217  1.7413 -1.3809
  404ccc     O611092   8.346   8.909   0.717 -0.8180 -0.3185 -0.2228
  405ccc     C111093   8.063   9.376   0.483 -0.1721 -0.7700  0.2622
  405ccc     C211094   8.073   9.232   0.431 -0.7067 -0.4857  0.2746
  405ccc     H111095   8.092   9.442   0.401 -1.5420  1.1362  1.2274
  405ccc     H211096   8.012   9.212   0.342 -0.0029 -2.9830  0.2566
  405ccc     C311097   8.215   9.194   0.396  0.5105  0.1018  0.1890
  405ccc     C411098   8.315   9.221   0.512  0.4909 -0.3024  0.1197
  405ccc     C511099   8.298   9.369   0.553 -0.1686  0.1718 -0.0062
  405ccc     H311100   8.298   9.164   0.605 -0.1001  1.3296  1.0488
  405ccc     H411101   8.250   9.261   0.316  1.6457  2.5466  2.5734
  405ccc     H511102   8.322   9.429   0.464 -1.0087  0.1231 -0.2678
  405ccc     O111103   8.377   9.397   0.671  0.1653  0.4522 -0.4323
  405ccc     O211104   8.457   9.208   0.474  0.5807 -0.3357 -0.1942
  405ccc     O311105   8.213   9.057   0.357  0.2314  0.1464  0.0957
  405ccc     O411106   8.023   9.152   0.537  0.1001  0.2579 -0.0983
  405ccc     C611107   7.922   9.428   0.527 -0.1832  0.4001  0.4610
  405ccc     H611108   8.282   9.031   0.293  0.1814 -1.4328  0.6476
  405ccc     H711109   7.977   9.219   0.590  0.9525  0.7464  0.0392
  405ccc     H811110   8.476   9.113   0.470  2.6799 -0.0085  0.6310
  405ccc     H911111   7.848   9.396   0.453 -0.1874  1.2776  0.0809
  405ccc    H1011112   7.926   9.536   0.547 -1.3724  0.5475 -0.0110
  405ccc     O511113   7.890   9.348   0.642 -0.0901 -0.5786  0.8086
  405ccc    H1111114   7.902   9.413   0.713 -0.0891  1.4374 -0.9256
  405ccc     O611115   8.159   9.386   0.591 -0.0583  0.5739  0.2980
  406ccc     C111116   6.256  10.817   2.294 -0.2100  0.8681  0.3161
  406ccc     C211117   6.255  10.766   2.150 -0.2761  0.6099 -0.2763
  406ccc     H111118   6.357  10.849   2.323  0.5346 -1.9498  1.1523
  406ccc     H211119   6.289  10.849   2.086 -2.8710  1.4227 -0.7297
  406ccc     C311120   6.352  10.646   2.138  0.4103  0.2073 -0.6544
  406ccc     C411121   6.318  10.532   2.236  0.5934  0.0610  0.3777
  406ccc     C511122   6.319  10.589   2.379  0.8007 -0.2164  0.2463
  406ccc     H311123   6.217  10.492   2.218 -0.1134  0.8886  2.1547
  406ccc     H411124   6.449  10.687   2.169  0.4540 -1.1166  1.1190
  406ccc     H511125   6.419  10.623   2.409  0.1338  0.0325  2.3734
  406ccc     O111126   6.274  10.495   2.473 -0.6008 -0.1374 -0.4965
  406ccc     O211127   6.422  10.432   2.226 -0.0230  0.0991 -0.9906
  406ccc     O311128   6.371  10.604   1.999  0.1073 -0.0233 -0.1036
  406ccc     O411129   6.118  10.734   2.109 -0.2399  0.4767  0.4853
  406ccc     C611130   6.162  10.932   2.327 -0.2019 -0.0359  0.2651
  406ccc     H611131   6.282  10.566   1.991 -0.5811  0.9120  2.1863
  406ccc     H711132   6.067  10.785   2.174 -0.2286 -0.7214  1.4736
  406ccc     H811133   6.375  10.347   2.230 -1.3239  0.8051  1.8121
  406ccc     H911134   6.193  11.026   2.281 -2.3563  1.2819  1.3902
  406ccc    H1011135   6.159  10.962   2.432  3.2883 -0.9364  0.7444
  406ccc     O511136   6.026  10.894   2.288 -0.2566 -0.5386 -0.5520
  406ccc    H1111137   5.989  10.858   2.370 -2.1650  0.4776 -0.9222
  406ccc     O611138   6.234  10.711   2.392  0.3225 -0.1800 -0.0491
  407ccc     C111139   5.763  10.412   3.147 -0.5252 -0.2947 -0.3535
  407ccc     C211140   5.699  10.355   3.020 -0.0387  0.5767 -0.2117
  407ccc     H111141   5.698  10.496   3.174 -0.1932 -0.6499  1.6863
  407ccc     H211142   5.598  10.333   3.056  0.5394  0.8250  1.7079
  407ccc     C311143   5.708  10.467   2.911 -0.0139 -0.4250 -0.8324
  407ccc     C411144   5.845  10.527   2.895 -0.2185  0.6747  0.1733
  407ccc     C511145   5.906  10.578   3.027  0.4622  0.7049 -0.5697
  407ccc     H311146   5.907  10.448   2.850 -2.5802 -0.2015 -1.7911
  407ccc     H411147   5.639  10.544   2.947  0.6116 -0.7144  1.1056
  407ccc     H511148   5.841  10.652   3.074  0.8890 -0.8808  2.7848
  407ccc     O111149   6.043  10.620   3.002  0.2364  0.1365 -0.2426
  407ccc     O211150   5.839  10.622   2.794  0.8673  0.0829 -0.0617
  407ccc     O311151   5.656  10.420   2.787 -0.6052  0.5982  0.3893
  407ccc     O411152   5.764  10.237   2.985  0.6562  0.7356  0.3645
  407ccc     C611153   5.774  10.309   3.257 -0.1529 -0.8121  0.7119
  407ccc     H611154   5.703  10.343   2.750 -0.6894  0.9672 -0.5174
  407ccc     H711155   5.701  10.163   2.996  1.1298 -0.6393 -4.0236
  407ccc     H811156   5.833  10.578   2.707  1.0286  0.8024 -0.4479
  407ccc     H911157   5.838  10.224   3.234 -1.5068 -1.4646 -0.8357
  407ccc    H1011158   5.675  10.268   3.281 -1.9241  2.9750  0.5995
  407ccc     O511159   5.812  10.378   3.371  0.4864 -0.3870  0.3939
  407ccc    H1111160   5.901  10.410   3.348 -0.4475  3.7057  1.5566
  407ccc     O611161   5.897  10.466   3.125 -0.2893 -0.4795  0.2067
  408ccc     C111162   6.395   9.636   1.982 -0.2525 -0.3588 -0.2810
  408ccc     C211163   6.470   9.763   2.029 -0.1620 -0.6186 -0.6733
  408ccc     H111164   6.393   9.648   1.873  0.0200 -1.2012 -0.3811
  408ccc     H211165   6.573   9.771   1.991  0.9190  0.5377  2.2268
  408ccc     C311166   6.389   9.898   1.997 -0.3471 -0.5491  0.6182
  408ccc     C411167   6.245   9.889   2.064 -0.4432  0.1126 -0.2930
  408ccc     C511168   6.181   9.755   2.018  0.2594 -0.4551  0.3635
  408ccc     H311169   6.251   9.887   2.173 -4.9836 -0.8526  0.1431
  408ccc     H411170   6.371   9.898   1.889  0.1150 -0.5793  0.5357
  408ccc     H511171   6.158   9.761   1.911 -0.1167 -1.7489  0.3481
  408ccc     O111172   6.056   9.725   2.079  0.4719 -0.2014  0.3522
  408ccc     O211173   6.163  10.001   2.013  0.0288  0.6971  0.0516
  408ccc     O311174   6.466  10.011   2.040  0.0978 -0.0343 -0.1154
  408ccc     O411175   6.476   9.754   2.171  0.6543  0.4468  0.7012
  408ccc     C611176   6.461   9.499   2.017  0.4370 -1.1186  0.4350
  408ccc     H611177   6.405  10.085   2.021  0.5725  0.9400  1.9298
  408ccc     H711178   6.508   9.663   2.183  0.6241  0.2050 -0.8454
  408ccc     H811179   6.166  10.077   2.074  0.3105  0.7659 -0.0457
  408ccc     H911180   6.548   9.482   1.953  0.2549  1.3064 -0.5641
  408ccc    H1011181   6.380   9.426   2.002 -2.0015  1.3074  0.9045
  408ccc     O511182   6.496   9.492   2.153 -0.0465  0.0082 -0.0818
  408ccc    H1111183   6.551   9.411   2.157 -0.1252  0.0160  2.0080
  408ccc     O611184   6.263   9.636   2.048 -0.2706 -0.1181 -0.4484
  409ccc     C111185   5.269   9.007   2.339  0.3258 -0.4508 -0.1788
  409ccc     C211186   5.307   8.860   2.331 -0.4716  0.0525 -0.0006
  409ccc     H111187   5.229   9.021   2.238 -1.4758 -2.9366  0.0973
  409ccc     H211188   5.219   8.819   2.279  0.0699 -0.5741 -0.4533
  409ccc     C311189   5.437   8.834   2.249 -0.1065  0.5326 -0.1747
  409ccc     C411190   5.548   8.938   2.295 -0.0355  0.2930 -0.0046
  409ccc     C511191   5.499   9.084   2.284 -0.2839  0.2551  0.7984
  409ccc     H311192   5.571   8.913   2.399  1.4364  0.2318 -0.3218
  409ccc     H411193   5.409   8.857   2.146 -3.1105  0.0170  0.4126
  409ccc     H511194   5.477   9.101   2.178  2.3170 -0.7421  0.0210
  409ccc     O111195   5.601   9.173   2.340  0.4373  0.2406  0.0193
  409ccc     O211196   5.659   8.916   2.211 -0.2363 -0.0758 -0.2020
  409ccc     O311197   5.465   8.698   2.270  0.3413  0.3947 -0.0651
  409ccc     O411198   5.321   8.806   2.460  0.0994  0.3134  0.1325
  409ccc     C611199   5.152   9.045   2.431  0.3105 -0.3317  0.5853
  409ccc     H611200   5.413   8.653   2.202  0.1250  2.0170 -1.0429
  409ccc     H711201   5.394   8.743   2.446 -0.8902 -0.4102 -2.1932
  409ccc     H811202   5.728   8.933   2.278 -0.9419  0.8376  0.3184
  409ccc     H911203   5.177   9.060   2.537 -2.4900  2.8820  0.9940
  409ccc    H1011204   5.068   8.974   2.423 -1.4775  1.5765  1.3387
  409ccc     O511205   5.113   9.174   2.375 -0.3105  0.1986  0.0818
  409ccc    H1111206   5.016   9.162   2.370 -0.4183  1.0693 -0.0202
  409ccc     O611207   5.383   9.093   2.364 -0.2668  0.8381 -0.3276
  410ccc     C111208   6.188  10.769   1.501 -0.1560 -0.0958  0.7858
  410ccc     C211209   6.273  10.852   1.607  0.3306 -0.2773 -0.0847
  410ccc     H111210   6.117  10.709   1.561 -1.1500  0.3306  0.0607
  410ccc     H211211   6.200  10.910   1.664 -0.2165  1.9551 -2.8395
  410ccc     C311212   6.365  10.760   1.707  0.3509  0.1566  0.5353
  410ccc     C411213   6.452  10.660   1.620  0.3807  0.2044  0.2904
  410ccc     C511214   6.364  10.588   1.516 -0.3398 -0.2638  0.5256
  410ccc     H311215   6.532  10.720   1.576  1.8483 -1.7208  0.2315
  410ccc     H411216   6.300  10.691   1.761  2.4273 -1.9189  0.5397
  410ccc     H511217   6.296  10.522   1.572  0.6118 -2.6732 -1.0435
  410ccc     O111218   6.447  10.512   1.419  0.2955 -0.4109  0.1187
  410ccc     O211219   6.507  10.567   1.715  0.2296  0.1109 -0.4692
  410ccc     O311220   6.440  10.839   1.801  0.1630  0.1864 -0.8441
  410ccc     O411221   6.359  10.935   1.535 -0.0170 -0.0845 -0.1689
  410ccc     C611222   6.101  10.851   1.402 -0.3991  0.2930 -0.3153
  410ccc     H611223   6.382  10.906   1.841  1.6177  1.7586 -1.2720
  410ccc     H711224   6.311  10.968   1.457  1.3912  2.0589 -0.2101
  410ccc     H811225   6.590  10.529   1.680  0.7324 -1.9041  2.5043
  410ccc     H911226   6.014  10.897   1.452 -0.2726  0.0509  0.1333
  410ccc    H1011227   6.064  10.786   1.322  1.0354 -1.0449  0.0620
  410ccc     O511228   6.182  10.957   1.356 -0.6738  0.0900  0.0232
  410ccc    H1111229   6.149  10.987   1.270  1.4627 -0.7859 -1.1785
  410ccc     O611230   6.276  10.677   1.435  0.3783 -0.0410 -0.4073
  411ccc     C111231   6.055  10.313   1.654  0.3847  0.0991  0.0664
  411ccc     C211232   6.062  10.420   1.762  0.2898 -0.3345 -0.1278
  411ccc     H111233   6.006  10.229   1.704 -1.6171  1.5390  0.6165
  411ccc     H211234   5.958  10.429   1.795  0.1608  0.0122 -0.6111
  411ccc     C311235   6.146  10.364   1.884  0.3434 -0.0647 -0.1839
  411ccc     C411236   6.290  10.311   1.845  0.7164 -0.7785 -0.0745
  411ccc     C511237   6.271  10.217   1.719  0.0367  0.2346 -0.1311
  411ccc     H311238   6.348  10.394   1.805 -0.0315 -1.7119 -3.4519
  411ccc     H411239   6.093  10.279   1.929  1.0577  0.1499  1.0927
  411ccc     H511240   6.238  10.118   1.754 -0.3349  1.3084  2.8572
  411ccc     O111241   6.404  10.218   1.662  0.0495  0.0325  0.7458
  411ccc     O211242   6.341  10.235   1.958  0.1834  0.3570 -0.3579
  411ccc     O311243   6.147  10.468   1.976 -0.4176 -0.5680  0.2916
  411ccc     O411244   6.112  10.536   1.708  0.6954 -0.5422 -0.0775
  411ccc     C611245   5.972  10.342   1.519  0.4936 -0.7645  0.3639
  411ccc     H611246   6.056  10.479   2.007  0.0728 -0.1917  1.6731
  411ccc     H711247   6.097  10.604   1.776  0.3003  1.0462 -1.6798
  411ccc     H811248   6.301  10.263   2.042 -1.1217 -1.1919 -0.4013
  411ccc     H911249   5.868  10.373   1.537  1.3082  1.1666  2.3032
  411ccc    H1011250   5.983  10.257   1.451 -0.6447 -0.0779 -0.7263
  411ccc     O511251   6.045  10.448   1.457 -0.0705  0.0917  0.0232
  411ccc    H1111252   6.078  10.493   1.536 -1.9585  1.4541  0.0767
  411ccc     O611253   6.193  10.280   1.619  0.3436 -0.5078  0.6770
  412ccc     C111254   7.561   8.709   0.930  0.3428  0.5148  0.5229
  412ccc     C211255   7.690   8.783   0.861  1.4994 -1.0692 -0.3883
  412ccc     H111256   7.534   8.631   0.857 -1.0102 -0.1281  1.6753
  412ccc     H211257   7.773   8.723   0.823  1.8452 -0.5341 -0.4804
  412ccc     C311258   7.648   8.875   0.746 -0.3112  0.3006 -0.5417
  412ccc     C411259   7.524   8.960   0.776  0.5580  0.0357 -0.2784
  412ccc     C511260   7.407   8.880   0.831 -0.7090 -0.2657  0.4542
  412ccc     H311261   7.543   9.032   0.857 -0.4373 -0.8332  0.7771
  412ccc     H411262   7.619   8.811   0.662 -0.1667  0.2593 -0.5598
  412ccc     H511263   7.359   8.813   0.759  0.4047 -1.3054  0.6361
  412ccc     O111264   7.309   8.986   0.875 -0.2950 -0.1088 -0.0429
  412ccc     O211265   7.470   9.025   0.659 -0.4552 -0.1102 -0.1964
  412ccc     O311266   7.763   8.947   0.711 -0.5059 -0.3974  0.0257
  412ccc     O411267   7.742   8.866   0.965 -0.5723 -0.2454  0.3414
  412ccc     C611268   7.582   8.641   1.063 -0.4203 -0.1275 -0.3047
  412ccc     H611269   7.748   8.976   0.619  0.2657 -0.5216 -0.1509
  412ccc     H711270   7.826   8.900   0.929 -0.2777 -1.6051 -0.3546
  412ccc     H811271   7.532   9.100   0.652 -1.9330  1.1717 -0.2187
  412ccc     H911272   7.627   8.712   1.133  1.5642 -1.9401  0.3647
  412ccc    H1011273   7.656   8.562   1.048  1.3718  1.3316  0.5024
  412ccc     O511274   7.457   8.584   1.115  0.4694  0.0019  0.2208
  412ccc    H1111275   7.426   8.529   1.042  0.2917  2.0858 -1.3621
  412ccc     O611276   7.452   8.806   0.951  0.1296  0.3186  0.8316
  413ccc     C111277   7.871   9.437   1.044  0.0506  0.1502 -0.7963
  413ccc     C211278   7.945   9.305   1.084 -0.1043 -0.7434 -0.2298
  413ccc     H111279   7.835   9.482   1.137  0.0942 -0.7607 -0.3339
  413ccc     H211280   8.018   9.341   1.157  0.9584  0.9110 -2.0080
  413ccc     C311281   7.864   9.184   1.146  0.3552 -0.5871  0.6430
  413ccc     C411282   7.743   9.156   1.048 -0.1727 -0.5627  0.2595
  413ccc     C511283   7.667   9.291   1.032 -0.3118 -0.0355 -0.5212
  413ccc     H311284   7.787   9.140   0.949 -1.0248  1.5322 -0.4912
  413ccc     H411285   7.814   9.210   1.240  2.3115  0.5059  1.4461
  413ccc     H511286   7.643   9.326   1.132 -1.4083 -1.4673 -0.2441
  413ccc     O111287   7.545   9.281   0.956 -0.1533 -0.2202 -0.2933
  413ccc     O211288   7.648   9.060   1.100 -0.4229 -0.4618  0.3540
  413ccc     O311289   7.956   9.069   1.166  0.7913 -0.4777  0.0542
  413ccc     O411290   8.012   9.269   0.966  0.2276 -0.1656  0.0421
  413ccc     C611291   7.944   9.552   0.975  0.0502  0.1981 -0.3182
  413ccc     H611292   8.019   9.099   1.234  0.8875  0.3520 -0.3879
  413ccc     H711293   8.016   9.359   0.929  1.0200 -0.4804 -0.6561
  413ccc     H811294   7.683   8.976   1.065  0.0601 -0.4648  0.8129
  413ccc     H911295   8.035   9.576   1.031 -1.5947  1.0124  2.1719
  413ccc    H1011296   7.889   9.646   0.971  0.3355  0.3297 -1.3130
  413ccc     O511297   7.987   9.502   0.850  0.4691  0.2781 -0.4801
  413ccc    H1111298   8.015   9.578   0.797 -1.8727  1.1767 -0.5197
  413ccc     O611299   7.749   9.386   0.973 -0.3789 -0.0508  0.6446
  414ccc     C111300   9.033  10.638   5.821  0.6994  0.1878 -0.5261
  414ccc     C211301   8.929  10.582   5.926  0.6284  0.1859  0.1770
  414ccc     H111302   9.022  10.747   5.816  1.9152  0.2845 -1.6058
  414ccc     H211303   8.935  10.633   6.024 -0.0364 -0.6995  0.6909
  414ccc     C311304   8.785  10.619   5.865 -0.5175  0.0754  0.0500
  414ccc     C411305   8.779  10.550   5.729  0.5519  0.0850 -0.1954
  414ccc     C511306   8.887  10.602   5.628  0.2610 -0.0537  0.4020
  414ccc     H311307   8.800  10.443   5.741 -0.3884  0.0752  1.6896
  414ccc     H411308   8.792  10.727   5.848 -1.0816  0.3291  1.2854
  414ccc     H511309   8.880  10.709   5.604 -1.5589 -0.1738  0.2286
  414ccc     O111310   8.872  10.524   5.506 -0.1512 -0.6245  0.0293
  414ccc     O211311   8.640  10.561   5.682  0.0463 -0.6553 -0.1407
  414ccc     O311312   8.669  10.576   5.941 -0.0543  0.3594  0.2438
  414ccc     O411313   8.952  10.439   5.939  0.0338  0.2520 -0.3410
  414ccc     C611314   9.177  10.611   5.867  0.2163 -0.2723 -0.1968
  414ccc     H611315   8.600  10.576   5.872  0.9804  0.0780 -0.8274
  414ccc     H711316   9.046  10.435   5.915  0.0013  0.4436 -0.4979
  414ccc     H811317   8.639  10.650   5.643 -1.2234  0.1208  1.5329
  414ccc     H911318   9.181  10.673   5.958 -0.9204  0.0585 -0.3612
  414ccc    H1011319   9.245  10.642   5.787  2.5200 -2.4637  0.7639
  414ccc     O511320   9.195  10.476   5.895 -0.6017 -0.1411  0.6716
  414ccc    H1111321   9.263  10.467   5.964  1.5955  0.6690 -1.2649
  414ccc     O611322   9.009  10.583   5.688 -0.0410 -0.6016  0.1582
  415ccc     C111323   8.223  10.758   5.380 -0.0509  0.0605 -0.2115
  415ccc     C211324   8.249  10.808   5.516 -0.4426  0.2045  0.0314
  415ccc     H111325   8.196  10.652   5.388 -1.7325  0.5547  1.1952
  415ccc     H211326   8.171  10.759   5.575  0.5289 -0.5841  0.7027
  415ccc     C311327   8.391  10.771   5.571 -0.0671 -0.3816 -0.2800
  415ccc     C411328   8.510  10.803   5.470  0.2597  0.7202 -0.2362
  415ccc     C511329   8.467  10.735   5.340  0.1740  0.3539  0.0793
  415ccc     H311330   8.524  10.911   5.456 -0.3615  1.0258  1.2619
  415ccc     H411331   8.387  10.662   5.580  2.1870 -0.3750  1.3635
  415ccc     H511332   8.467  10.625   5.340  1.1759  0.2556 -2.9853
  415ccc     O111333   8.566  10.779   5.246 -0.4993 -0.7670  0.3165
  415ccc     O211334   8.633  10.756   5.523 -0.6829 -0.0151 -0.4166
  415ccc     O311335   8.408  10.836   5.698 -0.3892  0.2114  0.1171
  415ccc     O411336   8.238  10.948   5.522 -0.2335  0.1326  0.7681
  415ccc     C611337   8.099  10.814   5.309  0.0496 -0.4038  0.4412
  415ccc     H611338   8.441  10.925   5.678  0.9037 -0.2161  0.2443
  415ccc     H711339   8.242  10.957   5.619  0.0886 -0.7388  0.8503
  415ccc     H811340   8.705  10.779   5.462 -0.0099 -2.3556 -0.5821
  415ccc     H911341   8.131  10.902   5.253  0.7904 -0.6482  0.4686
  415ccc    H1011342   8.022  10.847   5.380 -0.3435  0.5837 -0.4241
  415ccc     O511343   8.048  10.723   5.214 -0.1186 -0.0852  0.3479
  415ccc    H1111344   7.953  10.714   5.229 -0.4229 -0.1493 -1.3833
  415ccc     O611345   8.338  10.790   5.295  0.0766  0.1544 -0.0799
  416ccc     C111346   8.452  10.172   5.266  0.2096 -0.1897 -0.6120
  416ccc     C211347   8.367  10.290   5.309 -0.0024 -0.3910 -0.3371
  416ccc     H111348   8.419  10.082   5.319  0.7233  0.7798  1.4658
  416ccc     H211349   8.259  10.271   5.309 -0.0092 -0.7839  2.6751
  416ccc     C311350   8.401  10.324   5.460  0.8135  0.0176 -0.2080
  416ccc     C411351   8.552  10.314   5.502  0.3419 -0.9506 -0.1038
  416ccc     C511352   8.613  10.193   5.438  0.5211 -0.0872 -0.1303
  416ccc     H311353   8.599  10.404   5.460 -3.1678  1.1994  0.0817
  416ccc     H411354   8.364  10.239   5.519  0.2970  0.0462 -0.4851
  416ccc     H511355   8.572  10.106   5.491 -0.6719  0.4310 -0.1679
  416ccc     O111356   8.756  10.194   5.467 -0.2373  0.2465  0.2857
  416ccc     O211357   8.558  10.306   5.647 -0.3960 -0.0678 -0.7025
  416ccc     O311358   8.332  10.446   5.505  0.0415 -0.1999 -0.0174
  416ccc     O411359   8.392  10.411   5.224 -0.9501  0.0872 -0.0969
  416ccc     C611360   8.437  10.156   5.113 -0.4642 -0.6002 -0.4670
  416ccc     H611361   8.238  10.445   5.478  0.0328  1.3819 -0.1466
  416ccc     H711362   8.310  10.433   5.177  0.8791  2.3828 -2.4846
  416ccc     H811363   8.566  10.400   5.670  2.4119 -0.8309  2.1631
  416ccc     H911364   8.523  10.194   5.057  0.0703 -0.7640  0.2324
  416ccc    H1011365   8.338  10.190   5.082 -1.4120 -3.1091 -0.4677
  416ccc     O511366   8.441  10.003   5.084 -0.0848 -0.3275 -0.4458
  416ccc    H1111367   8.512   9.995   5.018  0.3680  0.5850 -0.0922
  416ccc     O611368   8.592  10.187   5.301 -0.2564  0.0905 -0.1220
  417ccc     C111369   8.778   9.957   6.268  0.1841  0.1415 -0.1347
  417ccc     C211370   8.647  10.031   6.246 -0.9613 -0.3787  0.4109
  417ccc     H111371   8.807   9.993   6.367 -0.1278 -1.1563  0.4409
  417ccc     H211372   8.579  10.002   6.327 -1.7485 -0.1852 -0.1655
  417ccc     C311373   8.665  10.186   6.238 -0.3023  0.4521  0.0211
  417ccc     C411374   8.779  10.226   6.139 -0.3959 -0.0353 -0.1996
  417ccc     C511375   8.904  10.139   6.160 -0.3792 -0.3625 -0.5282
  417ccc     H311376   8.743  10.211   6.037  0.6689 -2.7809 -0.2584
  417ccc     H411377   8.686  10.219   6.340  1.1443 -1.0470  0.2474
  417ccc     H511378   8.962  10.170   6.248 -0.6051  2.2899 -1.2188
  417ccc     O111379   8.983  10.170   6.040 -0.3696 -0.2163  0.0881
  417ccc     O211380   8.808  10.357   6.161  0.1622 -0.7951 -0.2013
  417ccc     O311381   8.542  10.241   6.193  0.2762 -0.3366  0.4416
  417ccc     O411382   8.583   9.982   6.127  0.1504 -0.3093 -0.2493
  417ccc     C611383   8.760   9.807   6.263 -0.8342 -0.1157  0.6769
  417ccc     H611384   8.549  10.337   6.176 -0.8029 -0.3916 -0.4991
  417ccc     H711385   8.504  10.039   6.128 -1.5083 -2.4360  1.5470
  417ccc     H811386   8.873  10.370   6.090  0.2753  0.5325  0.1247
  417ccc     H911387   8.745   9.774   6.159  1.3439 -3.3788  1.2268
  417ccc    H1011388   8.671   9.794   6.326 -1.6054  4.1205  0.7373
  417ccc     O511389   8.856   9.728   6.322 -0.3868  0.0074 -0.3675
  417ccc    H1111390   8.849   9.654   6.259 -1.4882  0.2750 -0.5919
  417ccc     O611391   8.875  10.000   6.165  0.3144 -0.0337  0.0492
  418ccc     C111392   9.804   9.260   5.007 -0.2174  0.2460  0.4244
  418ccc     C211393   9.796   9.121   5.078  0.3274 -0.7083 -0.5235
  418ccc     H111394   9.705   9.308   5.010  0.2060  1.1611  0.1834
  418ccc     H211395   9.750   9.129   5.177  0.1093 -0.1844 -0.6661
  418ccc     C311396   9.698   9.040   4.983 -0.3803 -0.4362 -0.1709
  418ccc     C411397   9.730   9.033   4.835 -0.5054 -0.0059  0.2904
  418ccc     C511398   9.768   9.173   4.779  0.4351 -0.2147  0.0826
  418ccc     H311399   9.820   8.971   4.825 -0.1023  0.5061  0.6425
  418ccc     H411400   9.597   9.083   4.980 -0.6633 -1.0959 -0.5299
  418ccc     H511401   9.673   9.227   4.762  1.0442  0.4359 -1.4380
  418ccc     O111402   9.823   9.161   4.648  0.3835  0.1984  0.7243
  418ccc     O211403   9.620   8.975   4.758 -0.1476  0.4889  0.1013
  418ccc     O311404   9.682   8.902   5.026  0.5362 -0.5055 -0.4009
  418ccc     O411405   9.935   9.072   5.078 -0.2059  0.1511 -0.4735
  418ccc     C611406   9.903   9.352   5.079  0.9976  0.1112  0.0361
  418ccc     H611407   9.587   8.886   5.036  0.6810 -0.8568  0.6408
  418ccc     H711408   9.931   9.011   5.154  1.5957  1.2364  0.5551
  418ccc     H811409   9.619   8.882   4.785 -1.2271  0.5326  0.2452
  418ccc     H911410  10.007   9.325   5.056  1.5680  1.0304  1.4051
  418ccc    H1011411   9.901   9.338   5.188  3.4451 -0.4424  0.0742
  418ccc     O511412   9.868   9.484   5.045  0.2501 -0.6250 -0.5426
  418ccc    H1111413   9.784   9.493   5.093  0.9172 -0.1120  0.5586
  418ccc     O611414   9.850   9.253   4.869  0.0752  0.3656 -0.3503
  419ccc     C111415  10.663   9.059   3.952 -0.5143  0.1387  0.3451
  419ccc     C211416  10.685   8.906   3.958 -0.2904 -0.0068 -0.6597
  419ccc     H111417  10.756   9.109   3.979 -0.7006  1.3747 -1.1481
  419ccc     H211418  10.755   8.883   3.877 -0.3754  1.3875 -1.1459
  419ccc     C311419  10.738   8.868   4.103  0.3456  0.9157  0.2644
  419ccc     C411420  10.649   8.921   4.215  0.2252 -0.7951  0.2706
  419ccc     C511421  10.616   9.074   4.203 -0.1160 -0.0014  0.9976
  419ccc     H311422  10.553   8.868   4.209  0.3372 -1.6853  4.0011
  419ccc     H411423  10.837   8.914   4.112  0.5699  0.4226  0.3499
  419ccc     H511424  10.706   9.129   4.233  0.6277 -0.6190 -0.0228
  419ccc     O111425  10.507   9.113   4.295 -0.1291 -0.1488 -0.1094
  419ccc     O211426  10.703   8.889   4.347 -0.2997 -0.2180  0.0248
  419ccc     O311427  10.736   8.721   4.117  0.2188 -0.7744 -0.5771
  419ccc     O411428  10.562   8.848   3.946 -0.0549 -0.4302  0.3265
  419ccc     C611429  10.609   9.116   3.825  0.2350 -0.1707 -0.2664
  419ccc     H611430  10.792   8.716   4.197  0.8119  0.4703 -0.8822
  419ccc     H711431  10.519   8.923   3.901 -0.7862 -0.9901  0.0655
  419ccc     H811432  10.794   8.922   4.350 -0.0526 -0.7754 -1.1376
  419ccc     H911433  10.672   9.085   3.740  1.9122  0.7265  0.5962
  419ccc    H1011434  10.606   9.226   3.828  3.0221 -0.0473  1.8951
  419ccc     O511435  10.468   9.067   3.818  0.1128 -0.2963 -0.7087
  419ccc    H1111436  10.423   9.086   3.734 -0.9951 -3.3467 -0.9545
  419ccc     O611437  10.578   9.107   4.066  0.4495  0.3532  0.0965
  420ccc     C111438  10.566   8.265   4.335 -0.4937  0.1164 -0.6453
  420ccc     C211439  10.554   8.367   4.213  0.4598  0.0506  0.2371
  420ccc     H111440  10.465   8.269   4.378 -1.4029 -0.2575 -2.6057
  420ccc     H211441  10.468   8.335   4.152  1.2268 -0.4323 -0.6268
  420ccc     C311442  10.517   8.509   4.262  0.2078  0.7811  0.0573
  420ccc     C411443  10.606   8.556   4.374  0.1776 -0.2060 -0.5189
  420ccc     C511444  10.631   8.449   4.482  0.1437  0.2227 -0.0228
  420ccc     H311445  10.701   8.573   4.321 -1.3892  0.6881 -3.2252
  420ccc     H411446  10.420   8.507   4.312  0.8485  1.4408  1.3818
  420ccc     H511447  10.539   8.448   4.541  1.9435  0.5690  3.0699
  420ccc     O111448  10.739   8.483   4.566 -0.3051 -0.0521  0.2936
  420ccc     O211449  10.553   8.678   4.442  0.4904  0.4887  0.0896
  420ccc     O311450  10.507   8.607   4.155 -0.7515  0.0487  0.0666
  420ccc     O411451  10.680   8.362   4.143  0.2387 -0.3026  0.3279
  420ccc     C611452  10.592   8.125   4.283  0.3986  0.2203 -0.9485
  420ccc     H611453  10.590   8.655   4.138 -0.8176  0.6760  1.4107
  420ccc     H711454  10.657   8.333   4.053 -1.5878 -0.9490  0.9682
  420ccc     H811455  10.625   8.743   4.434 -0.2159  1.2142 -0.4452
  420ccc     H911456  10.690   8.128   4.235 -0.4868  3.2943 -2.8088
  420ccc    H1011457  10.517   8.100   4.206  1.1215 -0.0352 -1.5861
  420ccc     O511458  10.568   8.029   4.390 -0.1109  0.0759  0.0776
  420ccc    H1111459  10.656   8.028   4.433  0.3958  0.9159 -0.8928
  420ccc     O611460  10.657   8.315   4.429  0.6083 -0.5988 -0.2468
  421ccc     C111461  10.032   8.599   4.809  0.6309 -0.6914 -0.5753
  421ccc     C211462   9.951   8.632   4.939  0.6794  0.5415  1.1589
  421ccc     H111463  10.074   8.498   4.818  1.7808 -0.2093 -0.2515
  421ccc     H211464   9.861   8.570   4.935  0.6551  0.6164 -1.6252
  421ccc     C311465  10.037   8.605   5.065 -0.5367  0.4397  0.7937
  421ccc     C411466  10.179   8.668   5.051  0.5247 -0.0634 -0.3947
  421ccc     C511467  10.244   8.645   4.909  0.3831  0.1913  0.2528
  421ccc     H311468  10.163   8.776   5.059  2.2545  0.1091  1.3456
  421ccc     H411469  10.064   8.499   5.070 -1.3036  0.1963  0.1472
  421ccc     H511470  10.259   8.537   4.910 -0.8149 -0.0142 -1.0906
  421ccc     O111471  10.365   8.716   4.897 -0.4739 -0.0728 -0.1275
  421ccc     O211472  10.259   8.618   5.166 -0.3387  0.4099  0.0753
  421ccc     O311473   9.956   8.639   5.177 -0.0289 -0.4208  0.0664
  421ccc     O411474   9.921   8.770   4.925 -0.5623  0.0136 -0.4043
  421ccc     C611475   9.955   8.609   4.675  0.6552 -0.2863  0.1750
  421ccc     H611476   9.976   8.583   5.253  0.9270 -1.0245 -0.6100
  421ccc     H711477   9.856   8.804   4.988 -0.4187  1.4291 -0.9865
  421ccc     H811478  10.210   8.655   5.241  0.3365 -0.4287  0.9397
  421ccc     H911479   9.866   8.545   4.681  1.0331 -0.7056  1.9455
  421ccc    H1011480  10.017   8.586   4.588 -0.0296  1.5512 -0.8547
  421ccc     O511481   9.915   8.742   4.660  0.0525 -0.5223  0.4545
  421ccc    H1111482   9.915   8.773   4.752  0.8193  2.3315 -0.4303
  421ccc     O611483  10.151   8.679   4.805  0.5408  0.1163  0.4356
  422ccc     C111484  11.268   9.428   2.346  0.3677  0.9183 -0.4222
  422ccc     C211485  11.347   9.302   2.396 -0.4187  0.2585  0.5227
  422ccc     H111486  11.326   9.519   2.363  1.0043  0.1461  1.9184
  422ccc     H211487  11.440   9.287   2.339 -0.2622  0.4703  0.7201
  422ccc     C311488  11.383   9.320   2.548 -0.1976 -0.1386  1.1432
  422ccc     C411489  11.249   9.337   2.623  0.3298  0.4955 -0.3148
  422ccc     C511490  11.159   9.455   2.561  0.0796 -0.2548  0.9664
  422ccc     H311491  11.188   9.247   2.608  0.8701 -0.0076  0.3858
  422ccc     H411492  11.430   9.419   2.551 -0.4548  0.1347 -1.3209
  422ccc     H511493  11.205   9.553   2.570 -2.0274  0.9645 -0.6270
  422ccc     O111494  11.019   9.458   2.609 -0.7322 -0.5772 -0.1709
  422ccc     O211495  11.268   9.357   2.768 -0.0356  0.2243  0.7672
  422ccc     O311496  11.469   9.211   2.595 -0.0483 -0.4250  0.1688
  422ccc     O411497  11.268   9.186   2.378  0.8482  0.1353  0.2964
  422ccc     C611498  11.223   9.412   2.197 -0.1296 -0.2312 -0.9169
  422ccc     H611499  11.502   9.231   2.684 -0.7363  1.4245  0.0391
  422ccc     H711500  11.271   9.159   2.285  3.2221 -0.6219  0.5169
  422ccc     H811501  11.327   9.285   2.796 -2.8238 -3.5760 -1.9548
  422ccc     H911502  11.140   9.340   2.201 -0.5113  0.1044 -2.3814
  422ccc    H1011503  11.302   9.352   2.150  0.8652 -0.1559  0.6080
  422ccc     O511504  11.198   9.538   2.139  0.2732 -0.1385  0.2420
  422ccc    H1111505  11.191   9.520   2.043 -1.9482 -2.3402  0.6959
  422ccc     O611506  11.142   9.436   2.421 -0.1316 -0.4148 -0.7716
  423ccc     C111507  10.934   9.027   2.622  0.1940  0.3653  0.1190
  423ccc     C211508  10.963   8.874   2.596  0.4494  0.6639 -0.5355
  423ccc     H111509  11.017   9.065   2.683 -0.0123 -0.4098  0.9059
  423ccc     H211510  11.066   8.864   2.560  0.9281  0.2953  0.8609
  423ccc     C311511  10.960   8.809   2.742  0.3676 -0.5905 -0.2818
  423ccc     C411512  10.821   8.837   2.807  0.5326 -0.6167 -0.1425
  423ccc     C511513  10.790   8.990   2.813  0.3584 -0.0082 -0.2004
  423ccc     H311514  10.748   8.785   2.744  1.4933  2.6781 -4.4106
  423ccc     H411515  11.029   8.866   2.805 -2.5626  2.7447  0.1896
  423ccc     H511516  10.852   9.035   2.891 -1.9099 -3.4666  4.0502
  423ccc     O111517  10.650   9.014   2.855  0.0609  0.0813  0.1314
  423ccc     O211518  10.823   8.791   2.950  0.1022 -0.3430 -0.1860
  423ccc     O311519  10.990   8.663   2.740  0.0450  0.2594 -0.6007
  423ccc     O411520  10.860   8.819   2.511  0.0698 -0.4267 -0.2882
  423ccc     C611521  10.929   9.112   2.490  0.0589  0.9496 -0.2000
  423ccc     H611522  11.085   8.653   2.753 -0.1319 -0.6506  0.0715
  423ccc     H711523  10.890   8.729   2.492  3.7630  0.6725 -0.3232
  423ccc     H811524  10.845   8.696   2.956 -0.1308 -0.3478  1.0993
  423ccc     H911525  11.030   9.100   2.447  1.6065  3.7708  2.2735
  423ccc    H1011526  10.921   9.219   2.512  3.2804  1.4265 -0.8482
  423ccc     O511527  10.821   9.060   2.411 -0.0625  0.2370  0.2650
  423ccc    H1111528  10.817   8.969   2.447 -3.2834  0.3133  0.3286
  423ccc     O611529  10.804   9.051   2.682 -0.3692 -0.5473  0.4947
  424ccc     C111530   9.654  10.115   1.905  0.6640 -0.1389  0.0074
  424ccc     C211531   9.637   9.964   1.880  0.3743 -0.2309  0.4135
  424ccc     H111532   9.620  10.172   1.818 -0.0287 -1.9425 -0.9517
  424ccc     H211533   9.529   9.948   1.876  0.5679 -2.3135  1.6740
  424ccc     C311534   9.715   9.918   1.753  0.3667 -0.9077 -0.0654
  424ccc     C411535   9.864   9.951   1.771 -0.0318 -0.0540 -0.0497
  424ccc     C511536   9.883  10.105   1.813 -0.1805  0.2155 -0.1895
  424ccc     H311537   9.899   9.886   1.852  0.1153  0.3359  0.2005
  424ccc     H411538   9.690   9.976   1.664  1.9147 -2.4409 -1.5709
  424ccc     H511539   9.861  10.167   1.726 -0.3772  2.2174  1.2364
  424ccc     O111540  10.016  10.127   1.861 -0.2078  0.0952 -0.3940
  424ccc     O211541   9.925   9.935   1.636 -0.3761  0.5189 -0.2185
  424ccc     O311542   9.691   9.779   1.720 -0.2424  0.7357 -0.7258
  424ccc     O411543   9.682   9.889   1.996 -0.4007 -0.2097  0.9302
  424ccc     C611544   9.559  10.170   2.019  0.2612 -0.2115 -0.0175
  424ccc     H611545   9.726   9.767   1.630 -0.8262  3.3344 -1.4061
  424ccc     H711546   9.679   9.795   1.970 -1.0455 -0.0244  0.2823
  424ccc     H811547   9.906   9.846   1.601  0.6378 -0.0707  0.6520
  424ccc     H911548   9.628  10.150   2.102  0.7977 -0.0386 -0.4148
  424ccc    H1011549   9.473  10.103   2.029  1.4734 -1.9850 -0.9160
  424ccc     O511550   9.532  10.310   1.987 -0.2101  0.4760  0.4855
  424ccc    H1111551   9.440  10.330   1.962  0.2486  0.8878 -0.9932
  424ccc     O611552   9.791  10.140   1.924 -0.3233 -0.3135 -0.4321
  425ccc     C111553  10.937  10.417   1.446 -0.5654 -0.6570  0.4936
  425ccc     C211554  11.077  10.388   1.501  0.0281  0.1123 -0.0918
  425ccc     H111555  10.907  10.519   1.473  0.3899  0.1686 -1.3772
  425ccc     H211556  11.136  10.459   1.443 -2.0137  1.8294 -0.2022
  425ccc     C311557  11.083  10.399   1.657  0.2803 -0.0216  0.7014
  425ccc     C411558  10.969  10.311   1.720 -0.0486  0.0691 -0.5538
  425ccc     C511559  10.830  10.341   1.652  0.5038  0.2690  0.5835
  425ccc     H311560  10.988  10.208   1.687 -1.9977 -0.3232 -0.5800
  425ccc     H411561  11.059  10.505   1.672  2.3087  0.4830  0.6823
  425ccc     H511562  10.804  10.443   1.681 -2.1954 -0.0049 -0.6180
  425ccc     O111563  10.737  10.255   1.706 -0.0455 -0.3940 -0.0998
  425ccc     O211564  10.967  10.320   1.862 -0.3648  0.0758  0.0914
  425ccc     O311565  11.217  10.360   1.694 -0.2858 -0.7128 -0.1334
  425ccc     O411566  11.119  10.254   1.463 -0.0759  0.2962  0.5382
  425ccc     C611567  10.917  10.416   1.295 -0.3021  0.1765 -0.3862
  425ccc     H611568  11.274  10.438   1.704 -1.7403  0.5408 -1.1164
  425ccc     H711569  11.084  10.240   1.374 -0.5914  0.1494  0.7611
  425ccc     H811570  11.060  10.307   1.886 -0.3107  2.2061  1.2563
  425ccc     H911571  10.981  10.491   1.246  1.3190 -0.8533  0.0687
  425ccc    H1011572  10.815  10.451   1.277 -0.4060  1.0128  1.6288
  425ccc     O511573  10.954  10.287   1.235  0.3224 -0.2996 -0.0522
  425ccc    H1111574  10.897  10.218   1.274  1.8868 -0.5611  1.9149
  425ccc     O611575  10.846  10.327   1.505  0.4607 -0.0777  0.7921
  426ccc     C111576  10.216   8.487   3.966  0.2971 -0.2268  0.9429
  426ccc     C211577  10.116   8.446   4.078  0.3269  0.0348  0.4258
  426ccc     H111578  10.309   8.528   4.006  0.5532  1.3337 -1.1129
  426ccc     H211579  10.167   8.364   4.130 -0.7415  0.0062  1.4867
  426ccc     C311580  10.076   8.571   4.169 -0.3397  0.9605  0.4361
  426ccc     C411581  10.021   8.688   4.088 -0.1098  0.4625 -0.3999
  426ccc     C511582  10.108   8.715   3.961 -0.0152 -0.3128  0.8926
  426ccc     H311583   9.929   8.656   4.038 -0.2337  1.2360 -0.6755
  426ccc     H411584  10.172   8.614   4.204  0.4759 -1.5013  1.4251
  426ccc     H511585  10.199   8.766   3.995 -0.9674  1.2429  1.2247
  426ccc     O111586  10.044   8.797   3.858  0.0511 -0.1741 -0.4110
  426ccc     O211587  10.009   8.804   4.164 -0.4961  0.0653  0.1302
  426ccc     O311588   9.991   8.534   4.283  0.3524 -0.0877 -0.2621
  426ccc     O411589  10.001   8.392   4.017 -0.1720  0.4514  0.1687
  426ccc     C611590  10.252   8.372   3.869  0.0412  0.0027 -0.0073
  426ccc     H611591  10.024   8.449   4.317  2.1786  0.6915  0.0834
  426ccc     H711592   9.950   8.341   4.082 -1.7438  0.7452 -0.7673
  426ccc     H811593   9.970   8.778   4.249 -0.1606  0.0200  0.2714
  426ccc     H911594  10.188   8.369   3.780  0.1989  2.1738 -0.2432
  426ccc    H1011595  10.240   8.272   3.911  0.7879  0.0207  0.2650
  426ccc     O511596  10.382   8.392   3.823  0.0383  0.1011  0.1482
  426ccc    H1111597  10.394   8.307   3.778 -0.7749  0.0328  0.0503
  426ccc     O611598  10.153   8.595   3.895  0.2687 -0.1385 -0.0204
  427ccc     C111599  10.798   8.161   3.413 -0.0988 -0.5373 -0.0550
  427ccc     C211600  10.684   8.055   3.379  0.2983  0.1575  0.2267
  427ccc     H111601  10.842   8.127   3.507  2.3422  1.8516 -0.1988
  427ccc     H211602  10.732   7.957   3.383 -0.2744 -0.1149  0.6587
  427ccc     C311603  10.583   8.065   3.495  0.5511  0.6971  0.2846
  427ccc     C411604  10.536   8.206   3.520 -0.7555  0.1625  0.0838
  427ccc     C511605  10.651   8.308   3.538 -0.0826  0.3701  1.1219
  427ccc     H311606  10.478   8.244   3.435 -1.1686  0.9772  0.7198
  427ccc     H411607  10.635   8.034   3.587 -1.4454  0.2870  1.3380
  427ccc     H511608  10.700   8.294   3.635  0.3200 -3.0222  0.5227
  427ccc     O111609  10.604   8.444   3.524  0.2752  0.1152 -0.0531
  427ccc     O211610  10.445   8.202   3.633 -0.6909  0.7520 -0.2910
  427ccc     O311611  10.467   7.976   3.469 -0.0584  0.5074 -0.1231
  427ccc     O411612  10.632   8.089   3.246 -0.6426 -0.3861  0.0447
  427ccc     C611613  10.905   8.163   3.305 -0.0774 -0.3831 -0.0077
  427ccc     H611614  10.495   7.885   3.490  2.2017  0.6710 -2.0229
  427ccc     H711615  10.565   8.024   3.218 -1.3987  1.2782 -2.2268
  427ccc     H811616  10.381   8.142   3.591  0.0507 -1.3202  1.3373
  427ccc     H911617  10.938   8.060   3.286 -0.3603 -0.7772  1.5306
  427ccc    H1011618  10.989   8.223   3.341 -0.8358  0.2832  0.6692
  427ccc     O511619  10.851   8.211   3.178  0.4786 -0.0347 -0.4619
  427ccc    H1111620  10.758   8.187   3.190 -0.2026  2.3693 -0.3715
  427ccc     O611621  10.736   8.287   3.423 -0.2471 -0.1078 -0.1259
  428ccc     C111622  11.272   8.714   2.205 -0.3789 -0.1587  0.1954
  428ccc     C211623  11.274   8.868   2.236 -0.0771  0.3259  0.4006
  428ccc     H111624  11.314   8.683   2.108 -0.8790 -1.5384  0.4024
  428ccc     H211625  11.379   8.899   2.225  0.0164  1.1995  2.9952
  428ccc     C311626  11.187   8.935   2.130 -0.5342 -0.3048 -0.3658
  428ccc     C411627  11.046   8.877   2.142  0.4376 -0.0611  0.0455
  428ccc     C511628  11.041   8.721   2.135  0.6393 -0.0244 -0.4833
  428ccc     H311629  11.009   8.909   2.240 -1.8569  0.4577 -0.9367
  428ccc     H411630  11.211   8.905   2.027 -0.2090  1.5689 -0.8828
  428ccc     H511631  11.055   8.688   2.031 -2.3217  1.6992 -1.5522
  428ccc     O111632  10.911   8.673   2.173 -0.1992 -0.4391 -0.6939
  428ccc     O211633  10.941   8.936   2.058  0.0385  0.3277 -0.3932
  428ccc     O311634  11.188   9.077   2.148  0.1331 -0.2663  0.0983
  428ccc     O411635  11.233   8.902   2.366  0.1745  0.0860 -0.2444
  428ccc     C611636  11.347   8.638   2.313  0.0629 -0.2275 -0.0613
  428ccc     H611637  11.149   9.118   2.069  2.2709 -1.3317 -1.5963
  428ccc     H711638  11.231   8.999   2.375 -1.0831 -0.0492  1.3334
  428ccc     H811639  10.914   9.021   2.094  0.1541  0.9407 -1.6873
  428ccc     H911640  11.280   8.627   2.400  0.2224  0.9584  0.2177
  428ccc    H1011641  11.441   8.686   2.341  0.8818 -0.6957 -1.8866
  428ccc     O511642  11.379   8.509   2.265 -0.2809 -0.1647  0.2888
  428ccc    H1111643  11.376   8.448   2.341 -0.5628  0.0558  0.4550
  428ccc     O611644  11.135   8.668   2.223 -0.0679 -0.0304  0.0320
  429ccc     C111645  10.543   8.362   3.014  0.2538  0.5995  0.2297
  429ccc     C211646  10.662   8.452   3.050  0.7858  0.2794  0.1933
  429ccc     H111647  10.585   8.261   3.017  0.1049  0.5491  1.0732
  429ccc     H211648  10.692   8.407   3.145 -2.0452 -2.2769  0.0666
  429ccc     C311649  10.781   8.445   2.948 -0.2399 -0.7518  0.4732
  429ccc     C411650  10.729   8.476   2.806 -0.2156 -0.2757 -0.0240
  429ccc     C511651  10.600   8.384   2.773  0.6789  0.1828 -1.5161
  429ccc     H311652  10.699   8.582   2.801  3.9277  1.0552 -0.3671
  429ccc     H411653  10.822   8.343   2.945 -1.4189 -1.2446  0.6177
  429ccc     H511654  10.630   8.279   2.765 -0.3722 -0.4210  1.2451
  429ccc     O111655  10.537   8.435   2.659 -0.3955  0.6903 -0.0400
  429ccc     O211656  10.830   8.452   2.711 -0.4650  0.2075 -0.0421
  429ccc     O311657  10.898   8.526   2.981 -0.2933 -0.2247  0.2823
  429ccc     O411658  10.618   8.580   3.049 -0.7767  0.2216 -0.2680
  429ccc     C611659  10.428   8.358   3.114  0.2038 -0.3643  0.2734
  429ccc     H611660  10.967   8.465   2.949 -0.3274  0.2001 -0.6137
  429ccc     H711661  10.523   8.570   3.068 -1.3902  0.1436 -2.9017
  429ccc     H811662  10.896   8.520   2.732 -1.0388 -0.2228  3.8676
  429ccc     H911663  10.455   8.301   3.204 -0.4278 -0.1025  0.6356
  429ccc    H1011664  10.349   8.299   3.066  0.0589 -0.4815  0.6537
  429ccc     O511665  10.377   8.489   3.151 -0.1028 -0.5488  0.7086
  429ccc    H1111666  10.297   8.467   3.202  0.0022 -0.2213  1.0246
  429ccc     O611667  10.494   8.399   2.879 -0.7296 -0.8481 -0.6797
  430ccc     C111668   9.638   6.803   4.245  0.7472  0.1059  0.1317
  430ccc     C211669   9.758   6.709   4.253  0.2777 -0.6954 -0.3731
  430ccc     H111670   9.587   6.774   4.153  0.7055 -1.2871  0.5782
  430ccc     H211671   9.724   6.606   4.240  2.4743 -1.5630  0.3499
  430ccc     C311672   9.856   6.741   4.143  1.5990  0.1005 -0.0593
  430ccc     C411673   9.888   6.890   4.123 -0.0847 -0.5282  0.2836
  430ccc     C511674   9.763   6.989   4.135 -0.1470 -0.3070  0.0054
  430ccc     H311675   9.953   6.916   4.208  1.7426 -1.1518 -0.8564
  430ccc     H411676   9.804   6.704   4.054  1.0690  1.5822 -0.3888
  430ccc     H511677   9.706   6.986   4.041  0.7944  0.9529 -0.6491
  430ccc     O111678   9.802   7.123   4.174 -0.8297  0.5807  0.1244
  430ccc     O211679   9.970   6.905   3.999 -0.1513 -0.5687 -0.2029
  430ccc     O311680   9.972   6.671   4.169  0.2803 -0.1337  0.3597
  430ccc     O411681   9.831   6.720   4.374  0.1953 -0.0771  0.6059
  430ccc     C611682   9.558   6.787   4.369  0.2096 -0.0101 -0.1229
  430ccc     H611683  10.030   6.689   4.094  1.2465 -0.5461  0.9852
  430ccc     H711684   9.916   6.698   4.331 -0.1321  0.2265 -0.2194
  430ccc     H811685  10.035   6.972   4.025 -0.2867 -0.5512  0.0935
  430ccc     H911686   9.564   6.877   4.431  0.9297 -2.3187  3.4955
  430ccc    H1011687   9.576   6.694   4.424  0.0056  0.4468  0.7440
  430ccc     O511688   9.424   6.790   4.319  0.1628  0.2990  0.5182
  430ccc    H1111689   9.417   6.877   4.275  0.7899 -0.0960 -0.3899
  430ccc     O611690   9.678   6.941   4.242  0.4197  0.0654 -0.1953
  431ccc     C111691  10.441   7.770   3.913 -0.3281  0.3050  0.0411
  431ccc     C211692  10.369   7.911   3.883 -0.2354 -0.3253 -0.2797
  431ccc     H111693  10.463   7.712   3.823  0.9799  0.9274 -0.0727
  431ccc     H211694  10.425   7.964   3.804 -0.4877 -0.3318 -0.4634
  431ccc     C311695  10.229   7.887   3.819 -0.0945 -0.2520 -0.1347
  431ccc     C411696  10.144   7.799   3.909  0.0014  0.0317 -0.2739
  431ccc     C511697  10.223   7.666   3.952 -0.3773 -0.2172  1.3460
  431ccc     H311698  10.108   7.868   3.987 -0.0171  0.8090 -0.9536
  431ccc     H411699  10.245   7.837   3.723 -0.5074  1.3813 -1.0950
  431ccc     H511700  10.225   7.592   3.872 -2.8121  0.7992  0.2497
  431ccc     O111701  10.144   7.615   4.064 -0.1075  0.2480 -0.2623
  431ccc     O211702  10.021   7.765   3.837 -0.1316  0.5439  0.2648
  431ccc     O311703  10.163   8.011   3.796  0.2461  0.0747 -0.1787
  431ccc     O411704  10.362   7.990   4.004 -0.2447  0.0609 -0.3116
  431ccc     C611705  10.577   7.772   3.978 -0.2457  0.1195  0.1027
  431ccc     H611706  10.142   8.049   3.883 -1.0037 -1.2808  0.1490
  431ccc     H711707  10.440   7.953   4.050 -0.0523 -2.5923 -2.5052
  431ccc     H811708  10.045   7.718   3.755 -2.1230  1.1457 -0.7318
  431ccc     H911709  10.649   7.821   3.912 -1.4562  0.4348 -1.0339
  431ccc    H1011710  10.601   7.669   4.006 -1.4485 -0.0382  0.6212
  431ccc     O511711  10.562   7.846   4.094 -0.1135  0.4079  0.2590
  431ccc    H1111712  10.640   7.836   4.151 -1.8779 -0.0253  2.7554
  431ccc     O611713  10.352   7.700   3.997  0.0273  0.3396 -0.3653
  432ccc     C111714   9.503   8.917   4.426 -0.6409  0.3152  0.5990
  432ccc     C211715   9.658   8.940   4.417 -0.3945  0.2461 -0.0131
  432ccc     H111716   9.483   8.848   4.509 -0.4758 -0.1872  0.2247
  432ccc     H211717   9.694   8.980   4.513  1.7281 -0.4441 -0.4590
  432ccc     C311718   9.727   8.805   4.401 -0.5824  0.4888 -0.0229
  432ccc     C411719   9.675   8.728   4.279 -0.5543  0.7281 -0.3649
  432ccc     C511720   9.522   8.719   4.276 -0.0561  0.1291  0.2227
  432ccc     H311721   9.708   8.788   4.193 -0.3530  0.0821 -0.7441
  432ccc     H411722   9.686   8.752   4.488 -1.0655  2.1524  0.8066
  432ccc     H511723   9.496   8.647   4.355  1.2872  0.0115  0.5933
  432ccc     O111724   9.477   8.681   4.147  0.1869  0.0469  0.3287
  432ccc     O211725   9.725   8.593   4.278  0.3014 -0.4056 -0.2849
  432ccc     O311726   9.873   8.826   4.407 -0.2365  0.2138 -0.1849
  432ccc     O411727   9.678   9.028   4.309 -0.5878 -0.3487  0.2845
  432ccc     C611728   9.418   9.041   4.461  0.4129  0.1276 -0.7847
  432ccc     H611729   9.904   8.778   4.486 -0.6963  1.6468  0.9110
  432ccc     H711730   9.765   9.015   4.267 -0.2102 -1.2887  1.3378
  432ccc     H811731   9.822   8.595   4.275  0.5549  2.4039  3.2763
  432ccc     H911732   9.425   9.058   4.569 -0.6758  1.0258 -0.8343
  432ccc    H1011733   9.312   9.020   4.441 -0.0890  2.3169 -0.6748
  432ccc     O511734   9.453   9.146   4.376  0.2265 -0.2242  0.4539
  432ccc    H1111735   9.539   9.117   4.341  0.3423  0.0392  0.5214
  432ccc     O611736   9.465   8.852   4.302  0.7179 -0.1721 -0.2897
  433ccc     C111737   9.845   9.312   3.813  0.3211  0.5601 -0.2574
  433ccc     C211738   9.986   9.310   3.877  0.0140 -0.4006 -0.0923
  433ccc     H111739   9.790   9.379   3.879 -0.7150 -0.6496  0.1498
  433ccc     H211740  10.035   9.407   3.890  0.6423 -0.6774 -0.3496
  433ccc     C311741   9.988   9.248   4.022  0.4912 -0.5306 -0.1034
  433ccc     C411742   9.930   9.101   4.014 -0.5001  0.0113  0.3144
  433ccc     C511743   9.799   9.106   3.945 -0.1822  0.1200  0.2452
  433ccc     H311744   9.995   9.037   3.953  0.4792  1.1961  0.0778
  433ccc     H411745   9.924   9.312   4.084  0.3422  0.5436 -1.3208
  433ccc     H511746   9.736   9.163   4.013  1.1206  2.6725 -0.5662
  433ccc     O111747   9.749   8.969   3.925 -0.1809  0.0480  0.4975
  433ccc     O211748   9.913   9.040   4.147  0.5494  0.0675  0.1650
  433ccc     O311749  10.119   9.244   4.075 -0.5040 -0.1943 -0.1990
  433ccc     O411750  10.062   9.221   3.797  0.1048  0.2858 -0.4163
  433ccc     C611751   9.850   9.367   3.672  0.5079 -0.3225 -0.4603
  433ccc     H611752  10.161   9.160   4.048 -0.9779 -0.9898  1.3994
  433ccc     H711753  10.149   9.263   3.795  0.4323 -0.3936 -2.6818
  433ccc     H811754   9.961   8.956   4.148  0.2058 -0.1410  2.2587
  433ccc     H911755   9.905   9.301   3.605 -0.6717 -0.5474 -1.2437
  433ccc    H1011756   9.902   9.464   3.669 -2.4174  1.4441  0.9889
  433ccc     O511757   9.715   9.383   3.630 -0.0617 -0.0373 -0.0771
  433ccc    H1111758   9.722   9.456   3.566  0.5278 -0.5042 -0.5517
  433ccc     O611759   9.798   9.174   3.819 -0.7886 -0.2147  0.2303
  434ccc     C111760   9.358   5.979   3.009 -0.2059 -0.3906 -0.2168
  434ccc     C211761   9.366   5.847   3.084 -0.1698  0.4690 -0.1159
  434ccc     H111762   9.460   6.000   2.976  0.0884 -1.7423 -0.2218
  434ccc     H211763   9.413   5.767   3.025  2.2442  2.3378 -0.9056
  434ccc     C311764   9.448   5.861   3.221 -0.2648 -0.2467  0.6176
  434ccc     C411765   9.414   5.988   3.299  0.1949 -0.7363 -0.3802
  434ccc     C511766   9.408   6.115   3.208  0.8751 -0.1593  0.9992
  434ccc     H311767   9.314   5.977   3.343  0.1468 -2.5104 -0.8829
  434ccc     H411768   9.554   5.853   3.193  0.0064 -1.5595  1.9038
  434ccc     H511769   9.510   6.126   3.169 -0.3397  0.3403 -2.4021
  434ccc     O111770   9.357   6.227   3.282 -0.1940 -0.2468 -0.4238
  434ccc     O211771   9.509   6.013   3.404 -0.1257  0.3642  0.7343
  434ccc     O311772   9.422   5.740   3.303 -0.0188 -0.9374 -0.3406
  434ccc     O411773   9.237   5.809   3.127  0.4877 -0.2291  0.7702
  434ccc     C611774   9.268   5.967   2.879 -0.5332  0.1209  0.5604
  434ccc     H611775   9.492   5.750   3.370  2.4074 -1.4069 -2.5959
  434ccc     H711776   9.259   5.760   3.208 -1.7260  0.4614  1.8726
  434ccc     H811777   9.597   6.035   3.368 -0.4244 -0.4491 -0.5670
  434ccc     H911778   9.160   5.960   2.893 -0.7406  1.4832 -0.1344
  434ccc    H1011779   9.302   5.881   2.821 -1.4240 -0.3548  0.7313
  434ccc     O511780   9.299   6.080   2.801  0.2377  0.0330  0.2723
  434ccc    H1111781   9.227   6.089   2.736  0.4710  0.5713  0.0915
  434ccc     O611782   9.310   6.080   3.104  0.4849 -0.5305  0.1767
  435ccc     C111783  10.162   6.405   3.667 -0.4797 -0.2688 -0.4136
  435ccc     C211784  10.189   6.464   3.810 -0.1743 -0.5004 -0.4598
  435ccc     H111785  10.212   6.470   3.594 -0.2668 -1.2101 -1.1244
  435ccc     H211786  10.295   6.473   3.836 -0.7378  0.3037  1.7545
  435ccc     C311787  10.131   6.609   3.821 -0.0816 -0.3685  0.1329
  435ccc     C411788   9.982   6.607   3.773 -0.0975 -0.3078 -0.4995
  435ccc     C511789   9.954   6.537   3.641  0.2338 -0.0859 -0.2601
  435ccc     H311790   9.933   6.547   3.851  0.2447  0.2852  0.1862
  435ccc     H411791  10.185   6.677   3.753 -0.4599 -0.5606 -0.3661
  435ccc     H511792   9.981   6.601   3.556 -2.3280  2.7497  0.8653
  435ccc     O111793   9.814   6.527   3.632  0.1910  0.3039  0.7205
  435ccc     O211794   9.927   6.740   3.770  0.0247 -0.1356  0.0362
  435ccc     O311795  10.153   6.658   3.955 -0.0915  0.3796  0.2320
  435ccc     O411796  10.130   6.372   3.900  0.0155  0.3342 -0.0728
  435ccc     C611797  10.223   6.261   3.650  0.6744 -0.4719  0.0886
  435ccc     H611798  10.209   6.736   3.941 -1.6081  1.2862 -1.2876
  435ccc     H711799  10.208   6.325   3.934  0.2240  0.9049  0.2585
  435ccc     H811800   9.946   6.779   3.857  0.1058  0.8330 -0.4026
  435ccc     H911801  10.196   6.192   3.730  2.3380 -0.6210  0.5396
  435ccc    H1011802  10.331   6.279   3.656  0.7666 -1.1630  0.5787
  435ccc     O511803  10.198   6.215   3.516 -0.2373  0.5397 -0.1627
  435ccc    H1111804  10.113   6.171   3.531  0.2978 -0.4039  0.2113
  435ccc     O611805  10.020   6.407   3.644  0.0271 -0.4549  0.2677
  436ccc     C111806   9.242   6.820   2.348  0.6505 -0.2945 -0.1983
  436ccc     C211807   9.367   6.842   2.429 -0.1638 -0.4310  1.1322
  436ccc     H111808   9.277   6.819   2.244 -0.6622  0.2934 -0.6739
  436ccc     H211809   9.440   6.767   2.397  0.4526  0.3992  0.5639
  436ccc     C311810   9.436   6.984   2.397  0.0622 -0.0581 -0.6223
  436ccc     C411811   9.338   7.099   2.379 -0.1054  0.0405  0.3429
  436ccc     C511812   9.208   7.063   2.310  0.1381 -0.1300  0.7200
  436ccc     H311813   9.308   7.132   2.479  2.7037  0.2352  1.2159
  436ccc     H411814   9.490   6.982   2.302 -0.3996 -1.3150 -0.8852
  436ccc     H511815   9.224   7.066   2.201  0.6491 -0.8436  0.7690
  436ccc     O111816   9.108   7.161   2.340 -0.0233  0.5634  0.0094
  436ccc     O211817   9.406   7.202   2.305  0.1796 -0.2083 -0.0508
  436ccc     O311818   9.526   7.019   2.504 -0.3217 -0.3855 -0.2883
  436ccc     O411819   9.340   6.820   2.563 -0.1606  0.3355  0.4340
  436ccc     C611820   9.171   6.684   2.360 -0.0284 -0.1502  0.2622
  436ccc     H611821   9.618   6.991   2.486 -0.1718 -0.3547  0.3963
  436ccc     H711822   9.405   6.870   2.615  2.3826 -1.9749 -0.2561
  436ccc     H811823   9.431   7.276   2.364  0.5790  0.6149 -1.2063
  436ccc     H911824   9.242   6.608   2.327  0.1731  1.2940 -2.9554
  436ccc    H1011825   9.080   6.682   2.298 -0.5901  2.4232  0.8771
  436ccc     O511826   9.117   6.674   2.489  0.4167 -0.2394 -0.2902
  436ccc    H1111827   9.192   6.714   2.535  1.3222 -1.9401 -0.2096
  436ccc     O611828   9.157   6.930   2.358 -0.4745  0.0065  0.2324
  437ccc     C111829   8.898   6.334   2.925  0.2849  0.2371  0.6628
  437ccc     C211830   8.995   6.242   2.850  0.0113  0.3384  0.2288
  437ccc     H111831   8.798   6.297   2.901  1.0459 -0.0587 -2.6296
  437ccc     H211832   8.970   6.139   2.880  0.4718  0.1240 -0.1083
  437ccc     C311833   8.998   6.258   2.697 -1.1784  0.0782  0.1305
  437ccc     C411834   9.022   6.411   2.673  0.0603  0.5427  0.1452
  437ccc     C511835   8.911   6.500   2.732  0.3685  0.0772  0.0183
  437ccc     H311836   9.117   6.436   2.721 -0.3544  1.1267  0.6708
  437ccc     H411837   8.901   6.222   2.660  0.6661 -3.9735 -1.2440
  437ccc     H511838   8.814   6.478   2.685  0.7610 -0.8780 -0.3735
  437ccc     O111839   8.943   6.635   2.706 -0.2935 -0.7744 -0.1884
  437ccc     O211840   9.039   6.436   2.529  0.2062  0.4922 -0.4767
  437ccc     O311841   9.114   6.183   2.650  0.0830 -0.3142  0.4349
  437ccc     O411842   9.122   6.278   2.901 -0.7087  0.1196 -0.5932
  437ccc     C611843   8.919   6.334   3.077 -0.3617 -0.2314 -0.1338
  437ccc     H611844   9.128   6.216   2.560  1.9457 -2.2676 -0.0730
  437ccc     H711845   9.177   6.208   2.860  1.1594  1.4068 -0.4235
  437ccc     H811846   9.062   6.530   2.525  1.0480  0.2662 -1.4005
  437ccc     H911847   8.996   6.406   3.109  0.3316 -1.5291  1.2191
  437ccc    H1011848   8.944   6.231   3.105 -0.2302  0.1980  1.4534
  437ccc     O511849   8.794   6.363   3.128 -0.2387  0.1995 -0.1475
  437ccc    H1111850   8.754   6.406   3.051 -0.8967  1.4978  0.8855
  437ccc     O611851   8.919   6.472   2.878  0.2163  0.2467 -0.4008
  438ccc     C111852   7.854   8.911   3.793 -0.0090 -0.6381 -0.2625
  438ccc     C211853   7.888   8.761   3.792  0.6242 -0.3001 -0.3148
  438ccc     H111854   7.760   8.912   3.850  0.0673  0.3580 -0.1325
  438ccc     H211855   7.902   8.717   3.891 -0.7926 -2.7166 -1.1121
  438ccc     C311856   7.782   8.677   3.710  0.0906 -0.1654  0.1126
  438ccc     C411857   7.750   8.735   3.572 -0.2330 -0.0618  0.1902
  438ccc     C511858   7.737   8.886   3.575 -0.1262  0.9614 -0.5133
  438ccc     H311859   7.828   8.698   3.504 -0.4085 -0.3395  0.1371
  438ccc     H411860   7.690   8.694   3.766  0.2125 -0.8935  0.5348
  438ccc     H511861   7.637   8.913   3.611 -0.2659  0.0612 -0.2227
  438ccc     O111862   7.733   8.934   3.446  0.8217  0.1751 -0.1889
  438ccc     O211863   7.625   8.666   3.536 -0.0833  0.6487 -0.1323
  438ccc     O311864   7.811   8.532   3.708  0.7393  0.2647 -0.6135
  438ccc     O411865   8.007   8.759   3.727  0.1873  0.3515 -0.3190
  438ccc     C611866   7.959   9.009   3.858 -0.4625  0.2728  0.6304
  438ccc     H611867   7.900   8.522   3.745  0.1454  0.6305  1.0338
  438ccc     H711868   8.044   8.847   3.744  3.4591 -0.8290 -0.7567
  438ccc     H811869   7.645   8.575   3.508 -3.0443 -0.1310 -0.0207
  438ccc     H911870   7.972   8.993   3.966 -0.5209  1.5393  0.8335
  438ccc    H1011871   7.917   9.107   3.835  0.1083  0.0831 -1.4082
  438ccc     O511872   8.082   9.003   3.792  0.0390 -0.1763 -0.8333
  438ccc    H1111873   8.135   9.077   3.827 -1.1822 -0.5818  2.0679
  438ccc     O611874   7.828   8.960   3.661 -0.4646  0.0623  0.1026
  439ccc     C111875   7.711   8.310   3.028  0.2638 -0.2342  0.3014
  439ccc     C211876   7.600   8.242   3.110 -0.6498 -0.1332  0.0189
  439ccc     H111877   7.795   8.242   3.042  0.2361 -0.6065 -1.1629
  439ccc     H211878   7.596   8.135   3.087 -1.4656  0.3049 -2.0723
  439ccc     C311879   7.618   8.270   3.263  0.0229 -0.0152 -0.2186
  439ccc     C411880   7.656   8.417   3.294 -0.0801  0.5154 -0.3251
  439ccc     C511881   7.779   8.453   3.212 -0.1977 -0.0852 -0.0895
  439ccc     H311882   7.572   8.482   3.267  0.0079  0.7425 -0.0489
  439ccc     H411883   7.698   8.213   3.313  0.9045  1.6567  0.3458
  439ccc     H511884   7.862   8.388   3.243 -1.4773 -1.2794  0.9162
  439ccc     O111885   7.811   8.591   3.237 -0.3682 -0.2038  0.5100
  439ccc     O211886   7.677   8.430   3.439 -0.4729  0.0002  0.3373
  439ccc     O311887   7.493   8.243   3.319  0.0351  0.1610 -0.3920
  439ccc     O411888   7.472   8.279   3.081  0.3289 -0.4470 -0.1624
  439ccc     C611889   7.681   8.307   2.877 -0.2794  0.7355 -0.3111
  439ccc     H611890   7.512   8.218   3.411  0.3326  1.3393 -0.1146
  439ccc     H711891   7.436   8.261   3.170 -1.2851 -0.9445 -0.8748
  439ccc     H811892   7.746   8.367   3.469  0.3940  0.8293  0.1467
  439ccc     H911893   7.685   8.203   2.842  1.0385  0.4809  0.5353
  439ccc    H1011894   7.760   8.366   2.828  2.1338 -0.9309  1.3415
  439ccc     O511895   7.553   8.363   2.852  0.2531  0.1027  0.3363
  439ccc    H1111896   7.508   8.352   2.938 -0.3394  0.0622  0.0271
  439ccc     O611897   7.743   8.439   3.077  0.2321  0.2896  0.0587
  440ccc     C111898   9.206   9.587   2.064 -1.0043 -0.4157  0.0856
  440ccc     C211899   9.353   9.543   2.017  0.7036 -0.7573 -0.0614
  440ccc     H111900   9.189   9.683   2.013  1.6100 -0.6830 -1.4750
  440ccc     H211901   9.339   9.523   1.910  1.2895 -0.6560 -0.1572
  440ccc     C311902   9.456   9.660   2.044  0.0283  0.3145  0.9633
  440ccc     C411903   9.455   9.691   2.202  0.8948  0.0363  1.1371
  440ccc     C511904   9.304   9.701   2.257 -0.0513  1.0317  0.0428
  440ccc     H311905   9.506   9.609   2.254  2.0921  0.1014  0.1023
  440ccc     H411906   9.419   9.751   1.994 -0.0287  0.0168  0.4617
  440ccc     H511907   9.268   9.802   2.235 -1.9553  0.4249  0.1820
  440ccc     O111908   9.296   9.676   2.402  0.4120  0.6889  0.3826
  440ccc     O211909   9.525   9.819   2.223 -0.0346  0.0724  0.0845
  440ccc     O311910   9.584   9.620   1.996  0.5126 -0.1699  0.0256
  440ccc     O411911   9.396   9.426   2.081 -0.5453  0.1247  0.1795
  440ccc     C611912   9.098   9.492   2.019 -0.6186 -0.4596  0.0915
  440ccc     H611913   9.573   9.524   2.005 -1.6416 -0.1099 -1.2017
  440ccc     H711914   9.315   9.372   2.080 -1.6290  1.6664  0.4159
  440ccc     H811915   9.609   9.815   2.173 -0.0099  4.0841 -0.5311
  440ccc     H911916   9.087   9.499   1.910 -1.6535 -1.9193  0.0664
  440ccc    H1011917   9.002   9.517   2.067  0.0703 -2.4830  2.8075
  440ccc     O511918   9.134   9.362   2.060 -0.1215  0.1596 -0.1533
  440ccc    H1111919   9.073   9.297   2.021 -1.0505 -0.2230  1.8161
  440ccc     O611920   9.209   9.600   2.201 -0.5229  0.1489  0.2807
  441ccc     C111921   8.393   9.845   2.923 -0.2120  0.2487  0.0076
  441ccc     C211922   8.317   9.795   2.795  0.7441  0.1067 -0.4264
  441ccc     H111923   8.389   9.953   2.938 -0.0121  0.4819 -1.4779
  441ccc     H211924   8.216   9.835   2.810  0.7991  0.8235 -1.8192
  441ccc     C311925   8.391   9.844   2.670  0.2698 -0.0637 -0.1024
  441ccc     C411926   8.544   9.830   2.664 -0.5509 -0.1399 -0.0207
  441ccc     C511927   8.610   9.879   2.799 -0.2084  0.8930  0.0146
  441ccc     H311928   8.563   9.724   2.646  0.3683  0.1907 -1.1106
  441ccc     H411929   8.367   9.951   2.670  1.8382  0.3256  0.4558
  441ccc     H511930   8.616   9.988   2.806 -1.7294  1.1555 -1.8873
  441ccc     O111931   8.743   9.832   2.799 -0.6101  0.0994  0.4464
  441ccc     O211932   8.596   9.906   2.553  0.5972  0.6196  0.1851
  441ccc     O311933   8.319   9.790   2.548 -0.1688 -0.5875 -0.4559
  441ccc     O411934   8.324   9.650   2.801  0.9556  0.0124 -0.5027
  441ccc     C611935   8.362   9.769   3.056 -0.2844 -0.5930 -0.3718
  441ccc     H611936   8.239   9.843   2.536  0.7964  1.4157  1.3187
  441ccc     H711937   8.349   9.633   2.894  1.6392  1.5450 -0.3866
  441ccc     H811938   8.516   9.915   2.498  0.4685 -0.1300  0.2421
  441ccc     H911939   8.266   9.805   3.093 -0.9274 -3.9100  1.5577
  441ccc    H1011940   8.443   9.799   3.124 -0.1569 -2.1776  0.2144
  441ccc     O511941   8.375   9.617   3.053  0.3061 -0.5189 -0.4364
  441ccc    H1111942   8.350   9.603   3.146 -0.7576  0.7459 -0.5009
  441ccc     O611943   8.537   9.811   2.907  0.0762  0.0033 -0.1844
  442ccc     C111944   8.841   7.878   1.888  0.3832  0.4095 -0.1232
  442ccc     C211945   8.920   7.784   1.987  0.0217  0.4670 -0.1354
  442ccc     H111946   8.920   7.917   1.823  0.4783  1.3364  0.5308
  442ccc     H211947   8.974   7.706   1.932  1.0037  0.6407  0.5684
  442ccc     C311948   9.026   7.859   2.075  0.6735 -0.1298 -0.2043
  442ccc     C411949   8.946   7.976   2.138 -0.3162 -0.5598  0.1242
  442ccc     C511950   8.864   8.061   2.044 -0.2274  0.4696  0.9081
  442ccc     H311951   8.874   7.927   2.205  0.2521  1.0400  2.0320
  442ccc     H411952   9.092   7.911   2.004  0.3622 -0.8097 -1.0181
  442ccc     H511953   8.931   8.119   1.980  0.8051 -2.5055 -0.8946
  442ccc     O111954   8.774   8.151   2.115 -0.1513 -0.6076 -0.1162
  442ccc     O211955   9.039   8.055   2.227  0.0896  0.0457  0.3016
  442ccc     O311956   9.085   7.772   2.178 -0.1556 -0.5761 -0.5288
  442ccc     O411957   8.818   7.719   2.067 -0.5506 -0.1381 -0.5095
  442ccc     C611958   8.738   7.806   1.795 -0.2379 -0.3554  0.5522
  442ccc     H611959   9.181   7.770   2.161 -0.1212 -0.7462 -0.3055
  442ccc     H711960   8.869   7.646   2.107 -0.5290 -0.0142 -0.3115
  442ccc     H811961   9.103   8.085   2.159  0.6060  1.9443  1.5381
  442ccc     H911962   8.657   7.762   1.855 -1.6969  2.8682  1.1380
  442ccc    H1011963   8.786   7.725   1.737  0.5412 -0.0535  0.7636
  442ccc     O511964   8.684   7.906   1.714  0.4803 -0.3289  0.1488
  442ccc    H1111965   8.630   7.950   1.782 -0.6952  0.9705 -1.5382
  442ccc     O611966   8.776   7.977   1.964 -0.0644  0.1160  0.6224
  443ccc     C111967   7.958   8.571   2.312 -0.0645  0.7177  0.1570
  443ccc     C211968   7.924   8.463   2.206  0.2956 -0.1650  0.2109
  443ccc     H111969   7.882   8.650   2.314  1.2594  2.1546  4.5716
  443ccc     H211970   7.824   8.424   2.228  0.4632 -1.4533 -1.1355
  443ccc     C311971   7.939   8.514   2.061 -0.2533 -0.1694  0.0634
  443ccc     C411972   8.082   8.581   2.044 -0.1925  0.0720 -0.1380
  443ccc     C511973   8.113   8.687   2.151  0.4844 -0.6976 -1.0236
  443ccc     H311974   8.150   8.495   2.055 -1.6060 -1.3829 -2.0337
  443ccc     H411975   7.868   8.593   2.037 -0.2531 -0.3344 -0.5068
  443ccc     H511976   8.057   8.779   2.131  2.9227  1.0380 -0.3527
  443ccc     O111977   8.255   8.709   2.145  0.2407 -0.0208 -0.4440
  443ccc     O211978   8.085   8.650   1.922 -0.3277  0.5037 -0.0198
  443ccc     O311979   7.908   8.410   1.962 -0.1278  0.1323 -0.2041
  443ccc     O411980   8.018   8.360   2.213 -0.2544 -0.5524 -0.1726
  443ccc     C611981   7.963   8.507   2.452  0.2172 -0.2204  0.3401
  443ccc     H611982   7.919   8.457   1.878  0.8441 -0.5794 -0.5012
  443ccc     H711983   7.973   8.277   2.189 -1.9428  0.7831 -1.8744
  443ccc     H811984   8.176   8.629   1.895  0.0711  0.8376  1.0286
  443ccc     H911985   8.047   8.437   2.462 -0.7068 -1.5080 -0.6018
  443ccc    H1011986   7.872   8.455   2.484 -0.4533  1.6220  1.6133
  443ccc     O511987   7.976   8.619   2.533  0.3595  0.0029 -0.5435
  443ccc    H1111988   8.071   8.632   2.551  0.3711 -1.0935  0.3042
  443ccc     O611989   8.090   8.629   2.280  0.1558  0.9477  0.3610
  444ccc     C111990   9.946   7.878   3.406 -0.0165  0.4588 -0.8483
  444ccc     C211991   9.996   7.986   3.503 -0.0597  0.3670 -0.1031
  444ccc     H111992  10.014   7.792   3.415  1.4274  1.4994 -1.4262
  444ccc     H211993   9.987   7.940   3.602  2.8359  1.2968  0.7133
  444ccc     C311994  10.142   8.019   3.477 -0.1922 -0.5722 -0.7615
  444ccc     C411995  10.160   8.063   3.333  0.2523 -0.1605 -0.5211
  444ccc     C511996  10.092   7.967   3.224 -0.3841 -0.0142 -0.0373
  444ccc     H311997  10.121   8.165   3.333  4.9242  1.9121  0.0736
  444ccc     H411998  10.202   7.930   3.497  1.0730  0.5976  1.0529
  444ccc     H511999  10.151   7.875   3.215 -2.7400 -1.6284  0.0709
  444ccc     O112000  10.077   8.053   3.100  0.8290  0.0342  0.5510
  444ccc     O212001  10.301   8.081   3.298  0.8154  0.4640 -0.0082
  444ccc     O312002  10.187   8.130   3.557  0.1892  0.6967 -0.7410
  444ccc     O412003   9.905   8.099   3.490  0.4136 -0.0585  0.2092
  444ccc     C612004   9.799   7.833   3.429 -0.0670  0.2559  0.1247
  444ccc     H612005  10.160   8.106   3.647  2.5683 -0.2158 -0.2049
  444ccc     H712006   9.940   8.170   3.547  3.2808 -1.1086 -0.0930
  444ccc     H812007  10.349   8.038   3.371  0.7311 -0.8765 -0.7186
  444ccc     H912008   9.733   7.915   3.398  1.6294  2.1745  1.3264
  444ccc    H1012009   9.786   7.810   3.535 -1.4833  3.7756  0.8584
  444ccc     O512010   9.794   7.714   3.357 -0.0954 -0.3215  0.4789
  444ccc    H1112011   9.853   7.727   3.280 -0.8007  0.0817 -0.0068
  444ccc     O612012   9.959   7.925   3.270 -0.6723  0.0382  0.3302
  445ccc     C112013   9.755   7.348   2.676 -0.6285 -0.6810  0.4683
  445ccc     C212014   9.645   7.315   2.575 -0.1222 -0.4288  0.6683
  445ccc     H112015   9.703   7.369   2.770 -2.0226 -3.2606  0.3630
  445ccc     H212016   9.584   7.234   2.615 -2.9873  1.7621  1.0873
  445ccc     C312017   9.551   7.433   2.545  0.0361  0.3360  0.1586
  445ccc     C412018   9.638   7.557   2.507  0.1144  0.0071  0.2166
  445ccc     C512019   9.742   7.584   2.616  0.5639 -0.1818  0.1843
  445ccc     H312020   9.689   7.532   2.413 -0.8421 -0.4471 -0.1954
  445ccc     H412021   9.500   7.440   2.642 -1.1096 -1.6355 -0.2464
  445ccc     H512022   9.679   7.611   2.701 -0.2792  0.7563 -0.7154
  445ccc     O112023   9.826   7.696   2.579  0.5899  0.2415 -0.4666
  445ccc     O212024   9.553   7.670   2.483 -0.0089 -0.1561 -0.8606
  445ccc     O312025   9.446   7.408   2.448  0.1752  0.0663  0.1289
  445ccc     O412026   9.712   7.267   2.456  0.0982  0.7896  0.6185
  445ccc     C612027   9.860   7.241   2.711 -1.0036 -0.3319 -0.4299
  445ccc     H612028   9.460   7.486   2.391 -1.3169  0.5290  0.3686
  445ccc     H712029   9.801   7.251   2.490  0.7505 -0.3823 -1.4655
  445ccc     H812030   9.613   7.729   2.435  1.9547 -0.8031  0.6466
  445ccc     H912031   9.798   7.152   2.725 -0.0359 -0.5915  3.1577
  445ccc    H1012032   9.914   7.264   2.804 -0.2669  0.5443 -1.0442
  445ccc     O512033   9.952   7.215   2.608  0.1819  0.1143 -0.8573
  445ccc    H1112034   9.983   7.126   2.635 -1.5797 -0.9696 -2.1873
  445ccc     O612035   9.821   7.465   2.635  0.6029  0.1677  0.4436
  446ccc     C112036   6.738  12.688   3.450  0.5557 -0.1903  0.3897
  446ccc     C212037   6.878  12.621   3.448 -0.4192 -0.1908 -0.3278
  446ccc     H112038   6.754  12.795   3.437  0.1703  0.0611  1.7540
  446ccc     H212039   6.929  12.643   3.353  0.7256  0.1747  0.3554
  446ccc     C312040   6.976  12.661   3.561  0.1220  0.2472 -0.4719
  446ccc     C412041   6.906  12.650   3.694 -0.1508 -0.1704  0.1686
  446ccc     C512042   6.767  12.723   3.694  1.2855  0.6806  0.5833
  446ccc     H312043   6.879  12.544   3.705 -0.0621 -0.1591  0.5165
  446ccc     H412044   7.004  12.766   3.545  0.7631  0.2509  0.6259
  446ccc     H512045   6.777  12.830   3.671 -0.1722  0.6054 -0.5763
  446ccc     O112046   6.697  12.692   3.814 -0.5554  0.5648  0.1456
  446ccc     O212047   6.995  12.688   3.803  0.0672 -0.6049 -0.1652
  446ccc     O312048   7.098  12.586   3.564  0.4295  0.0042 -0.2016
  446ccc     O412049   6.857  12.477   3.461 -0.7511 -0.0614 -0.1757
  446ccc     C612050   6.651  12.630   3.333 -0.4104 -0.5022  0.0870
  446ccc     H612051   7.143  12.587   3.478 -0.6975  1.7242 -0.8159
  446ccc     H712052   6.828  12.441   3.375  1.0597  0.5148 -1.0843
  446ccc     H812053   7.071  12.630   3.786 -0.0989 -0.9114  0.1218
  446ccc     H912054   6.617  12.529   3.357 -3.4720  0.4739  0.2581
  446ccc    H1012055   6.702  12.622   3.236 -1.7650  0.2946 -0.7280
  446ccc     O512056   6.547  12.725   3.314 -0.0923 -0.1038  0.7003
  446ccc    H1112057   6.583  12.771   3.237  1.7684 -2.0632  0.2851
  446ccc     O612058   6.687  12.661   3.589 -0.4667  0.0946 -0.3447
  447ccc     C112059   6.843  11.944   3.528 -0.5552  0.7423  0.1500
  447ccc     C212060   6.848  11.998   3.382 -0.5711 -0.3768 -0.4023
  447ccc     H112061   6.775  11.858   3.524 -1.0016  1.0719 -3.8470
  447ccc     H212062   6.884  11.916   3.320  0.5614  0.3055 -0.6768
  447ccc     C312063   6.706  12.037   3.339  0.1001  0.2582  0.2588
  447ccc     C412064   6.648  12.139   3.438  1.0283  0.0087 -0.3348
  447ccc     C512065   6.651  12.079   3.586 -0.0744  0.0744  0.2820
  447ccc     H312066   6.710  12.229   3.430  2.1369 -0.7663 -0.7552
  447ccc     H412067   6.640  11.950   3.349 -1.2339  1.1650 -0.4284
  447ccc     H512068   6.590  11.988   3.586  0.4461 -0.3326 -1.9464
  447ccc     O112069   6.606  12.173   3.690  0.5328 -0.0201  0.2536
  447ccc     O212070   6.509  12.150   3.395  0.6301  0.0326 -0.2126
  447ccc     O312071   6.690  12.096   3.203 -0.1685 -0.3421  0.2477
  447ccc     O412072   6.925  12.114   3.369 -0.3631 -0.2802  0.1810
  447ccc     C612073   6.982  11.892   3.577 -0.3042  0.5423  0.5988
  447ccc     H612074   6.753  12.052   3.143  1.6296 -0.7543  2.3176
  447ccc     H712075   6.999  12.082   3.314 -1.9230  0.1944 -2.3880
  447ccc     H812076   6.520  12.129   3.301  0.2329 -2.9142  0.3293
  447ccc     H912077   7.015  11.950   3.664 -0.5535  2.1746 -0.3526
  447ccc    H1012078   7.066  11.918   3.511 -0.7450 -2.3819 -1.3361
  447ccc     O512079   6.973  11.753   3.607  0.4864  0.4298  0.3941
  447ccc    H1112080   6.972  11.701   3.525 -1.1181 -1.6905  1.6607
  447ccc     O612081   6.783  12.038   3.621  0.1222  0.5830  0.3233
  448ccc     C112082   6.379  11.720   3.096 -0.3419  0.1209 -0.0925
  448ccc     C212083   6.512  11.697   3.021  0.2142 -0.5952  0.2627
  448ccc     H112084   6.296  11.702   3.026 -1.6924  2.2723  0.8493
  448ccc     H212085   6.505  11.600   2.969 -0.5931  0.1247 -0.9985
  448ccc     C312086   6.535  11.810   2.911 -0.2208 -0.3744  1.0095
  448ccc     C412087   6.502  11.955   2.955 -0.4961 -0.4064 -0.4799
  448ccc     C512088   6.375  11.954   3.039 -0.1311 -0.1055  0.7028
  448ccc     H312089   6.585  11.990   3.018 -1.1924 -1.7301  1.2250
  448ccc     H412090   6.458  11.788   2.836  0.1373  0.2160  0.4567
  448ccc     H512091   6.288  11.928   2.977 -0.2405  0.4312  0.6197
  448ccc     O112092   6.355  12.094   3.088  0.4958  0.2817 -0.4105
  448ccc     O212093   6.488  12.036   2.837 -0.1508  0.3982  0.1241
  448ccc     O312094   6.675  11.804   2.848  0.4281 -0.1470  0.0169
  448ccc     O412095   6.620  11.704   3.112  0.3699  0.0741 -0.1539
  448ccc     C612096   6.358  11.625   3.220  0.0908  0.0595  0.3879
  448ccc     H612097   6.677  11.869   2.775  0.8108 -0.3509 -0.1548
  448ccc     H712098   6.695  11.724   3.053 -0.9243 -0.5204 -2.0692
  448ccc     H812099   6.573  12.084   2.834  0.9482 -1.0545  2.9450
  448ccc     H912100   6.359  11.521   3.185  2.4055 -0.1773  1.0152
  448ccc    H1012101   6.261  11.648   3.265 -0.9803  0.8802 -2.1845
  448ccc     O512102   6.468  11.648   3.311  0.5137  0.3532 -0.3706
  448ccc    H1112103   6.539  11.684   3.255  2.2388 -1.6992  0.3711
  448ccc     O612104   6.379  11.861   3.142  0.2323  0.6011  0.2573
  449ccc     C112105   6.496  12.923   2.436  0.4299  0.8366  0.7827
  449ccc     C212106   6.647  12.941   2.488 -0.5141 -0.4660  0.6902
  449ccc     H112107   6.452  13.023   2.420 -1.5070 -0.3316 -1.8598
  449ccc     H212108   6.699  13.006   2.417 -2.8737  0.9652  0.1504
  449ccc     C312109   6.651  12.987   2.632  0.5003 -0.4570 -0.1363
  449ccc     C412110   6.553  12.903   2.722  0.2702  0.2288  0.0923
  449ccc     C512111   6.410  12.901   2.661  0.0709  0.5934  0.2330
  449ccc     H312112   6.587  12.799   2.734  0.5084  0.2902 -0.0511
  449ccc     H412113   6.617  13.091   2.632  2.6858  0.3091  0.6257
  449ccc     H512114   6.376  13.005   2.660  1.2166  1.0134  1.7154
  449ccc     O112115   6.339  12.816   2.750 -0.0208 -0.0470  0.5090
  449ccc     O212116   6.551  12.979   2.848 -0.1013 -0.9787  0.3977
  449ccc     O312117   6.790  12.985   2.690 -0.3088 -0.3975  0.0241
  449ccc     O412118   6.705  12.805   2.486 -0.0202 -0.3185 -0.1371
  449ccc     C612119   6.502  12.849   2.304  0.4718  0.1222  0.1700
  449ccc     H612120   6.779  12.944   2.778  0.7084  0.8982  0.7942
  449ccc     H712121   6.798  12.825   2.464  0.1315 -1.5426 -0.7034
  449ccc     H812122   6.478  13.043   2.845  1.3595  0.7523 -1.0588
  449ccc     H912123   6.494  12.741   2.318 -1.8366  0.1543 -0.5129
  449ccc    H1012124   6.597  12.858   2.251 -0.0677 -0.1045 -0.8555
  449ccc     O512125   6.394  12.886   2.223  0.1092  0.3569  0.1808
  449ccc    H1112126   6.421  12.974   2.190  2.6721 -1.0312 -1.8347
  449ccc     O612127   6.418  12.842   2.528 -0.5022 -0.1364  0.0142
  450ccc     C112128   4.566  13.087   2.152  0.7462  1.6496 -0.7907
  450ccc     C212129   4.670  13.178   2.080  0.1570 -0.0814  1.0728
  450ccc     H112130   4.565  13.120   2.257 -0.8061 -3.1239  0.9611
  450ccc     H212131   4.634  13.281   2.092  1.1379  0.5600 -1.0134
  450ccc     C312132   4.806  13.164   2.144 -0.3147 -0.0094  0.7901
  450ccc     C412133   4.847  13.020   2.142  0.0542 -0.0080 -0.0416
  450ccc     C512134   4.744  12.939   2.225 -0.2704 -0.1070  0.6307
  450ccc     H312135   4.849  12.996   2.035  1.1446  0.2654 -0.0922
  450ccc     H412136   4.794  13.195   2.248 -0.3425  2.0909  0.2235
  450ccc     H512137   4.739  12.976   2.327  0.1259  1.8812 -0.0358
  450ccc     O112138   4.785  12.799   2.225 -0.3218  0.2586 -0.7255
  450ccc     O212139   4.978  13.015   2.198  0.1210  0.5924  0.1447
  450ccc     O312140   4.898  13.259   2.078  0.4847  0.7390 -0.2454
  450ccc     O412141   4.667  13.149   1.938  0.2098  0.1448  0.6781
  450ccc     C612142   4.419  13.084   2.110 -0.6474 -0.4280  0.7295
  450ccc     H612143   4.976  13.265   2.136 -0.2475 -0.3208  0.8883
  450ccc     H712144   4.705  13.230   1.901  1.8260  0.3988  2.7198
  450ccc     H812145   5.043  13.020   2.125  1.1110 -1.0038  0.8524
  450ccc     H912146   4.379  13.186   2.116  1.1866  0.3588  0.2504
  450ccc    H1012147   4.345  13.019   2.158 -1.5286 -0.6464 -0.8380
  450ccc     O512148   4.425  13.045   1.975 -0.2769 -0.3286 -0.4815
  450ccc    H1112149   4.515  13.070   1.947 -0.7849  1.3966 -0.6418
  450ccc     O612150   4.616  12.956   2.165  0.6032 -0.0777  0.1402
  451ccc     C112151   5.321  12.279   2.910 -0.0954  0.1214  0.3941
  451ccc     C212152   5.222  12.285   3.032 -0.5307 -0.6567  0.2011
  451ccc     H112153   5.375  12.374   2.901  0.5738 -0.4472 -2.6607
  451ccc     H212154   5.273  12.313   3.124 -0.1327 -0.4194 -0.0902
  451ccc     C312155   5.116  12.394   3.007  0.0327  0.5767 -0.2176
  451ccc     C412156   5.048  12.387   2.869  0.0039 -0.1049  0.0014
  451ccc     C512157   5.152  12.356   2.756  0.2663 -0.3698 -0.8788
  451ccc     H312158   4.973  12.306   2.868 -1.8155  1.5127  0.5820
  451ccc     H412159   5.169  12.490   3.006  1.2132 -0.0333  0.4422
  451ccc     H512160   5.220  12.442   2.749  1.1702 -1.1441 -2.0827
  451ccc     O112161   5.090  12.326   2.632 -0.3325 -0.3756 -0.3300
  451ccc     O212162   4.985  12.513   2.840  0.6351  0.1921  0.5006
  451ccc     O312163   5.016  12.388   3.115 -0.2145  0.2946  0.3391
  451ccc     O412164   5.164  12.154   3.046 -0.3127  0.0609  0.0633
  451ccc     C612165   5.436  12.169   2.917 -0.1848  0.9125  0.2092
  451ccc     H612166   4.974  12.476   3.106 -0.2822  0.1439 -1.1065
  451ccc     H712167   5.233  12.100   3.002 -0.3556 -0.6485  0.8367
  451ccc     H812168   4.892  12.499   2.864  0.6812 -0.8247  0.1188
  451ccc     H912169   5.500  12.199   3.001  1.3783  1.2497 -1.0592
  451ccc    H1012170   5.496  12.198   2.830  1.0976  2.3717  1.5190
  451ccc     O512171   5.388  12.040   2.929  0.2310  0.3756  0.1227
  451ccc    H1112172   5.470  11.987   2.935  0.2782  0.3267 -0.7602
  451ccc     O612173   5.238  12.251   2.793 -0.9449 -0.3935 -0.4689
  452ccc     C112174   6.189  11.014   2.805 -0.6348 -0.0893 -0.2077
  452ccc     C212175   6.076  10.910   2.825 -0.4157  0.4022  0.2607
  452ccc     H112176   6.178  11.085   2.888 -0.1764 -1.0921  0.7316
  452ccc     H212177   6.088  10.862   2.923 -1.8366 -2.4637 -0.8530
  452ccc     C312178   5.938  10.979   2.841 -0.0196 -0.5803 -0.3182
  452ccc     C412179   5.913  11.072   2.724  0.0523  0.1325 -0.7404
  452ccc     C512180   6.037  11.160   2.682 -0.0336 -0.0180  0.1205
  452ccc     H312181   5.896  11.001   2.642 -0.7587 -2.3414  1.4030
  452ccc     H412182   5.938  11.046   2.928  1.1896 -0.0232 -0.7284
  452ccc     H512183   6.047  11.245   2.751 -0.4279 -0.3292  0.5693
  452ccc     O112184   6.012  11.212   2.550 -0.0394 -0.0581  0.2557
  452ccc     O212185   5.792  11.154   2.748 -0.2032  0.4513  0.1376
  452ccc     O312186   5.839  10.873   2.858 -0.0890  0.1754  0.0760
  452ccc     O412187   6.077  10.815   2.719  0.3969 -0.2388  0.3335
  452ccc     C612188   6.323  10.952   2.819  0.0516  0.2906  0.7695
  452ccc     H612189   5.874  10.785   2.835 -2.2345 -0.4674 -0.9917
  452ccc     H712190   6.169  10.816   2.688  0.8629  0.7129  1.6471
  452ccc     H812191   5.717  11.093   2.754  0.2921 -0.0483  1.8799
  452ccc     H912192   6.341  10.904   2.916  0.1728 -2.8166 -0.6531
  452ccc    H1012193   6.389  11.039   2.809 -0.8712  1.3111  2.9466
  452ccc     O512194   6.341  10.853   2.712 -0.2045  0.6334  0.0249
  452ccc    H1112195   6.382  10.907   2.643 -1.5965 -0.0512 -1.4186
  452ccc     O612196   6.159  11.079   2.679 -0.3863  0.3598 -0.0570
  453ccc     C112197   5.534  10.661   2.392 -1.0821  0.2958 -0.1171
  453ccc     C212198   5.622  10.576   2.489  0.2419  0.1221 -0.5897
  453ccc     H112199   5.560  10.637   2.288 -0.8923 -1.5228  0.3128
  453ccc     H212200   5.613  10.469   2.463  0.9576  0.0146 -0.4020
  453ccc     C312201   5.769  10.610   2.483  0.0305  0.6458 -0.8614
  453ccc     C412202   5.787  10.763   2.519  0.1607  0.5287  0.3902
  453ccc     C512203   5.705  10.855   2.419  0.5016  1.1135 -0.1267
  453ccc     H312204   5.754  10.771   2.623  3.9849 -1.6599  1.9833
  453ccc     H412205   5.794  10.595   2.377  0.9717 -1.5503 -0.3784
  453ccc     H512206   5.745  10.834   2.319  0.3901  0.0704  0.0282
  453ccc     O112207   5.718  10.993   2.457  0.1865  0.2628 -0.1242
  453ccc     O212208   5.932  10.787   2.499  0.4192  0.4628  0.1934
  453ccc     O312209   5.861  10.533   2.558 -0.1042 -0.7719 -0.5363
  453ccc     O412210   5.576  10.607   2.623 -0.5037  0.6913 -0.6370
  453ccc     C612211   5.378  10.645   2.397 -0.1059 -0.1781 -0.0858
  453ccc     H612212   5.916  10.477   2.500  0.9081 -1.5729  1.1175
  453ccc     H712213   5.606  10.538   2.685 -2.1377  1.2984  0.9229
  453ccc     H812214   5.972  10.780   2.587 -0.3942 -0.3367  0.5091
  453ccc     H912215   5.348  10.540   2.384 -0.2212 -0.0250 -1.1078
  453ccc    H1012216   5.337  10.704   2.315 -2.4898  0.2904  1.3490
  453ccc     O512217   5.352  10.699   2.529  0.0028  0.3723  0.2951
  453ccc    H1112218   5.435  10.672   2.573 -0.4960  0.7975  1.5728
  453ccc     O612219   5.570  10.807   2.411  0.5121 -0.2445 -0.5336
  454ccc     C112220   4.654  13.067   3.582 -0.1738 -0.2089  0.3208
  454ccc     C212221   4.545  13.177   3.608  0.3771  0.5614  0.4387
  454ccc     H112222   4.734  13.116   3.525 -1.5626  1.4213 -0.3281
  454ccc     H212223   4.596  13.269   3.640 -0.7752  1.8365 -1.1725
  454ccc     C312224   4.487  13.210   3.467  0.6524 -0.4865  0.6510
  454ccc     C412225   4.431  13.093   3.385 -0.9399  0.5108  0.6600
  454ccc     C512226   4.540  12.981   3.382 -0.3757 -0.7881  0.4946
  454ccc     H312227   4.342  13.050   3.432 -0.4484 -1.0676  0.1929
  454ccc     H412228   4.571  13.257   3.414 -1.5552  2.4725 -0.5250
  454ccc     H512229   4.629  13.005   3.322 -0.8843  0.5732  0.2563
  454ccc     O112230   4.470  12.862   3.338 -0.1464 -0.2652  0.1513
  454ccc     O212231   4.413  13.129   3.247 -0.0568  0.4088  0.1178
  454ccc     O312232   4.382  13.312   3.494 -0.1745 -0.1611  0.4568
  454ccc     O412233   4.444  13.134   3.699 -0.1809  0.2161  0.1565
  454ccc     C612234   4.712  13.012   3.713  0.2384 -0.0149 -0.1614
  454ccc     H612235   4.398  13.385   3.431  1.5905 -0.9135 -0.0397
  454ccc     H712236   4.459  13.202   3.767  1.6587  0.7302 -0.6902
  454ccc     H812237   4.334  13.187   3.248 -0.6461 -0.3055 -1.2780
  454ccc     H912238   4.638  12.957   3.772  0.8589  0.2830  0.9069
  454ccc    H1012239   4.752  13.092   3.776  1.1343  0.6371 -1.4934
  454ccc     O512240   4.814  12.923   3.674  0.3283 -0.8969  0.1331
  454ccc    H1112241   4.821  12.861   3.748 -1.3884  0.5310  1.5890
  454ccc     O612242   4.589  12.959   3.513 -0.5150  0.7102  0.0303
  455ccc     C112243   4.323  12.659   2.848  0.2591  0.4550  0.0834
  455ccc     C212244   4.446  12.747   2.842  0.6355 -0.2340  0.6145
  455ccc     H112245   4.255  12.692   2.769  1.3710  0.4130 -0.9319
  455ccc     H212246   4.476  12.756   2.737 -0.1998  0.2100  0.4109
  455ccc     C312247   4.435  12.889   2.899 -0.3595 -0.1613 -0.5265
  455ccc     C412248   4.334  12.897   3.018  0.2894 -0.1115 -0.6720
  455ccc     C512249   4.212  12.806   3.004  0.0564  0.0869  0.5078
  455ccc     H312250   4.393  12.852   3.099 -0.4412  0.5941  0.2705
  455ccc     H412251   4.404  12.960   2.822 -1.6415  2.2377  1.9888
  455ccc     H512252   4.140  12.844   2.930 -1.6630 -1.5156  1.2733
  455ccc     O112253   4.149  12.795   3.128  0.3046  0.5964  0.3588
  455ccc     O212254   4.297  13.030   3.042  0.9222  0.6531  0.0831
  455ccc     O312255   4.573  12.932   2.930  0.2542  0.3822  0.0628
  455ccc     O412256   4.539  12.683   2.930 -0.2737  0.3216  0.3685
  455ccc     C612257   4.362  12.514   2.813  0.8181 -0.5746  0.1876
  455ccc     H612258   4.567  13.029   2.938 -2.5343  0.5753 -2.6524
  455ccc     H712259   4.586  12.763   2.959 -1.8507  1.2787  0.3707
  455ccc     H812260   4.340  13.057   3.124  1.5062 -0.6877  0.2392
  455ccc     H912261   4.414  12.456   2.891  0.1724 -2.0183 -0.4200
  455ccc    H1012262   4.429  12.510   2.726  0.3830 -1.1075 -0.1338
  455ccc     O512263   4.240  12.448   2.782  0.9410 -0.4067 -0.4864
  455ccc    H1112264   4.278  12.361   2.762 -1.0074 -2.2475  2.8563
  455ccc     O612265   4.261  12.676   2.973  0.3396 -0.5124  0.3776
  456ccc     C112266   3.827  13.166   3.148  0.5931  0.2774 -0.2652
  456ccc     C212267   3.974  13.199   3.122 -0.4902 -0.7747 -0.4217
  456ccc     H112268   3.777  13.246   3.204  1.9087 -0.1115  1.5378
  456ccc     H212269   3.983  13.281   3.049  0.6856 -0.4029  0.1123
  456ccc     C312270   4.045  13.226   3.258 -0.2517 -0.0138 -1.2342
  456ccc     C412271   4.030  13.105   3.357  0.6152 -0.1436 -0.2426
  456ccc     C512272   3.877  13.064   3.370  0.0388 -0.6966 -0.7763
  456ccc     H312273   4.085  13.014   3.329  0.3143 -1.0294  1.8412
  456ccc     H412274   3.997  13.313   3.304  1.5483 -0.5915  2.1016
  456ccc     H512275   3.814  13.142   3.416 -1.8131 -0.4930 -3.4299
  456ccc     O112276   3.864  12.936   3.444 -0.2625 -0.4673 -0.0031
  456ccc     O212277   4.075  13.151   3.488 -0.5394 -0.3552 -0.8448
  456ccc     O312278   4.186  13.259   3.255 -0.4848  0.2607  0.8187
  456ccc     O412279   4.034  13.086   3.066  0.4861 -0.0890 -0.2051
  456ccc     C612280   3.746  13.127   3.020 -0.1744 -0.4975 -0.6173
  456ccc     H612281   4.187  13.330   3.188 -1.2725 -1.2436 -0.8588
  456ccc     H712282   4.131  13.089   3.067  0.5668 -0.6427  3.1438
  456ccc     H812283   4.148  13.209   3.460 -1.4387  0.2363 -2.0995
  456ccc     H912284   3.759  13.207   2.947  2.5487  0.4930  0.8303
  456ccc    H1012285   3.637  13.116   3.034 -0.3304  2.2087  1.1777
  456ccc     O512286   3.809  13.002   2.981  0.4982  0.2453  0.4954
  456ccc    H1112287   3.896  13.014   3.022  0.6801 -1.7466  0.7937
  456ccc     O612288   3.820  13.046   3.235  0.1037  0.0217  0.6414
  457ccc     C112289   3.394  13.224   4.328  0.1520 -0.1102  0.8848
  457ccc     C212290   3.244  13.224   4.316 -0.5453  0.8226  0.2728
  457ccc     H112291   3.423  13.308   4.263 -2.1533 -0.3412 -0.5810
  457ccc     H212292   3.204  13.321   4.348 -0.0396  1.0089  0.3388
  457ccc     C312293   3.204  13.199   4.164  0.2923  0.1982 -0.0568
  457ccc     C412294   3.292  13.101   4.086 -0.1246  0.0456 -0.6824
  457ccc     C512295   3.438  13.099   4.132  0.1917  0.7183 -0.1385
  457ccc     H312296   3.243  13.004   4.099 -0.8664  0.4206 -0.6461
  457ccc     H412297   3.203  13.295   4.112  0.0466 -0.5542 -1.4849
  457ccc     H512298   3.487  13.192   4.100  0.2064  1.3673  1.6848
  457ccc     O112299   3.512  12.982   4.067  0.4291 -0.3476 -0.5610
  457ccc     O212300   3.292  13.137   3.949 -0.6477  0.1859  0.0136
  457ccc     O312301   3.065  13.146   4.166  0.1413  0.3517  0.0120
  457ccc     O412302   3.185  13.115   4.384  0.2420 -0.0382 -0.0662
  457ccc     C612303   3.450  13.237   4.472 -0.2694  0.2231  0.1954
  457ccc     H612304   2.995  13.214   4.161  0.4478  0.5969 -2.1582
  457ccc     H712305   3.115  13.090   4.321 -0.2707 -1.6571  1.0546
  457ccc     H812306   3.223  13.085   3.904  0.6060  0.0246 -1.8412
  457ccc     H912307   3.409  13.333   4.506  0.7232  0.9680 -0.6613
  457ccc    H1012308   3.559  13.248   4.473 -0.1244 -0.3673  3.8925
  457ccc     O512309   3.402  13.119   4.535  0.0084 -0.3937  0.3375
  457ccc    H1112310   3.331  13.104   4.470  1.8606 -0.2413 -1.8316
  457ccc     O612311   3.446  13.098   4.274 -0.1612  0.1144  0.3254
  458ccc     C112312   4.389  13.077   4.935 -0.0610 -0.2237  0.4435
  458ccc     C212313   4.495  13.161   5.011 -0.2664 -0.0054  0.3179
  458ccc     H112314   4.341  13.006   5.004 -1.6990  1.5419  1.2259
  458ccc     H212315   4.462  13.230   5.090  4.7331  0.6495  2.1955
  458ccc     C312316   4.603  13.065   5.073 -0.2383  0.4488 -0.4606
  458ccc     C412317   4.665  12.957   4.972  0.3419 -0.3720 -0.5899
  458ccc     C512318   4.548  12.885   4.902  0.4094 -0.0980  0.1486
  458ccc     H312319   4.714  13.025   4.902 -1.4210  0.0299 -1.4973
  458ccc     H412320   4.544  13.013   5.150 -0.5343 -0.2729 -1.1600
  458ccc     H512321   4.495  12.833   4.982 -1.6988  2.1519  0.3297
  458ccc     O112322   4.596  12.794   4.804 -0.1404  0.2449 -0.2602
  458ccc     O212323   4.750  12.879   5.058 -0.3402 -0.7617  0.1499
  458ccc     O312324   4.714  13.133   5.142 -0.2727  0.6160  0.3746
  458ccc     O412325   4.552  13.241   4.911  0.3110 -0.7078 -0.2754
  458ccc     C612326   4.272  13.164   4.867 -0.7648  0.8003  0.2183
  458ccc     H612327   4.734  13.216   5.096 -0.5154  0.0827 -0.7333
  458ccc     H712328   4.483  13.242   4.843 -1.6387  2.3153  1.4932
  458ccc     H812329   4.835  12.926   5.067 -1.6745  1.6309  1.0135
  458ccc     H912330   4.247  13.244   4.937 -2.3335  1.2690 -0.8263
  458ccc    H1012331   4.188  13.093   4.863  0.5798 -0.9281  1.3813
  458ccc     O512332   4.327  13.213   4.745  0.2709  0.0227  0.0441
  458ccc    H1112333   4.320  13.138   4.683  1.5533 -1.8045  1.9598
  458ccc     O612334   4.458  12.987   4.838  0.3461  0.0188 -0.4631
  459ccc     C112335   5.034  12.342   3.847 -0.3454 -1.0257 -0.2204
  459ccc     C212336   5.177  12.395   3.815 -0.3605 -0.7739  1.1978
  459ccc     H112337   4.970  12.409   3.789  0.3627  0.7998  1.0419
  459ccc     H212338   5.200  12.382   3.708  0.0724 -0.1696  1.2177
  459ccc     C312339   5.187  12.543   3.860 -0.1976 -0.1949 -0.4485
  459ccc     C412340   5.159  12.550   4.009 -0.2957 -0.4998 -0.0204
  459ccc     C512341   5.026  12.481   4.046 -0.3508 -0.3941  0.0183
  459ccc     H312342   5.238  12.504   4.070 -0.2625 -0.4844 -0.0516
  459ccc     H412343   5.109  12.589   3.800 -1.2426 -2.7697 -1.2131
  459ccc     H512344   4.942  12.545   4.017  0.6565  0.9173 -0.0618
  459ccc     O112345   5.025  12.467   4.192 -0.3604 -0.9927 -0.0035
  459ccc     O212346   5.148  12.694   4.045 -0.2561 -0.0611  0.0009
  459ccc     O312347   5.320  12.597   3.832 -0.2566 -0.3831  0.1346
  459ccc     O412348   5.270  12.315   3.891  0.3401  0.3369  0.1580
  459ccc     C612349   5.004  12.199   3.803 -0.3235  0.1514  1.0368
  459ccc     H612350   5.328  12.563   3.741  2.2447  1.0011 -0.2632
  459ccc     H712351   5.350  12.366   3.910  2.6100 -1.9632 -2.2229
  459ccc     H812352   5.173  12.716   4.136  0.3838 -0.4570 -0.0686
  459ccc     H912353   5.080  12.125   3.830  0.4852  0.4421 -0.3414
  459ccc    H1012354   5.012  12.195   3.694 -0.9725 -1.2678  1.0158
  459ccc     O512355   4.866  12.162   3.841  0.0706 -0.0365 -0.1180
  459ccc    H1112356   4.868  12.070   3.872  1.5904 -0.2601 -0.7619
  459ccc     O612357   5.014  12.349   3.990 -0.4292 -0.0166  0.2844
  460ccc     C112358   4.120  11.820   5.777 -0.5582 -0.1347 -0.0528
  460ccc     C212359   3.998  11.906   5.817  0.0489  0.1891  0.5442
  460ccc     H112360   4.193  11.840   5.856  0.1011 -0.6066 -0.5309
  460ccc     H212361   3.974  11.887   5.922 -1.4051  1.3764  0.4637
  460ccc     C312362   4.038  12.051   5.808 -0.8700  0.4418 -0.3949
  460ccc     C412363   4.083  12.079   5.665  0.1696 -0.7227  0.4143
  460ccc     C512364   4.208  11.996   5.626 -0.0847  0.1625 -0.7410
  460ccc     H312365   4.001  12.038   5.607 -0.5906 -1.5520  2.0041
  460ccc     H412366   4.123  12.060   5.876 -0.4795 -1.3779 -0.5805
  460ccc     H512367   4.294  12.024   5.687 -1.0183 -0.3155  0.8366
  460ccc     O112368   4.244  12.015   5.485  0.3129  0.5346  0.1720
  460ccc     O212369   4.108  12.226   5.637  0.3274 -0.2511 -0.2162
  460ccc     O312370   3.925  12.124   5.851  0.0339  0.0124 -0.0416
  460ccc     O412371   3.887  11.861   5.734 -0.5540 -0.0000 -0.5108
  460ccc     C612372   4.092  11.670   5.781  0.7017  0.2903 -0.2963
  460ccc     H612373   3.848  12.118   5.793 -0.4695 -0.7869  0.6939
  460ccc     H712374   3.808  11.855   5.790 -0.0153 -2.9986  0.1337
  460ccc     H812375   4.063  12.246   5.553 -1.0316  1.9290  0.9183
  460ccc     H912376   4.059  11.639   5.682 -1.2666  0.1323  0.3753
  460ccc    H1012377   4.008  11.634   5.842  0.7045 -0.6206 -0.8217
  460ccc     O512378   4.214  11.608   5.828  0.3558 -0.0682 -0.1593
  460ccc    H1112379   4.215  11.636   5.921 -0.1119  0.5280 -0.3262
  460ccc     O612380   4.177  11.856   5.650 -0.9616  0.2860  0.1761
  461ccc     C112381   4.906  12.875   5.512 -0.1350 -0.1489  0.0752
  461ccc     C212382   5.052  12.894   5.563  0.4729  0.7516  0.4413
  461ccc     H112383   4.831  12.923   5.576 -0.4283  0.7126 -0.8737
  461ccc     H212384   5.080  13.000   5.570  0.8140  0.7430 -0.5809
  461ccc     C312385   5.088  12.815   5.690  0.5433  0.4313  0.3128
  461ccc     C412386   5.048  12.663   5.680 -1.0861  0.3765  0.2110
  461ccc     C512387   4.904  12.650   5.626 -0.0511 -0.6859 -0.3139
  461ccc     H312388   5.109  12.622   5.598 -2.7947  0.2862 -1.0906
  461ccc     H412389   5.025  12.843   5.775 -0.8580 -0.6797 -0.3172
  461ccc     H512390   4.836  12.675   5.709  1.7375 -2.1346  1.7308
  461ccc     O112391   4.874  12.516   5.577 -0.1478  0.4169 -0.1136
  461ccc     O212392   5.080  12.580   5.801 -0.1343 -0.3022 -0.2578
  461ccc     O312393   5.224  12.841   5.734 -0.4962 -0.0263  0.2316
  461ccc     O412394   5.143  12.834   5.472 -0.1297 -0.7731 -0.3097
  461ccc     C612395   4.878  12.933   5.371  0.0583  1.3350 -0.7615
  461ccc     H612396   5.222  12.929   5.776 -1.2114 -0.5105  1.2624
  461ccc     H712397   5.226  12.880   5.490 -0.2045 -0.8567  0.2727
  461ccc     H812398   5.129  12.506   5.761 -0.0499 -0.1633 -0.4156
  461ccc     H912399   4.913  12.848   5.311  0.2440 -0.7435  2.0729
  461ccc    H1012400   4.937  13.024   5.363  1.9200  0.1722 -0.7723
  461ccc     O512401   4.734  12.946   5.347 -0.1574 -0.4821 -0.3643
  461ccc    H1112402   4.731  13.003   5.269  3.1280  0.1790 -0.1586
  461ccc     O612403   4.883  12.732   5.507  0.8048  0.4212  0.5619
  462ccc     C112404   3.624   9.397   5.646 -0.2275 -0.4211  0.1511
  462ccc     C212405   3.572   9.475   5.762 -0.2762 -0.6655  0.4423
  462ccc     H112406   3.582   9.296   5.645 -0.4154 -0.3458  0.2883
  462ccc     H212407   3.462   9.483   5.757 -0.0632  3.2859 -1.5329
  462ccc     C312408   3.598   9.403   5.898 -0.0654 -0.3353 -0.3951
  462ccc     C412409   3.750   9.384   5.906 -0.6482  0.3018  0.6472
  462ccc     C512410   3.813   9.313   5.783 -0.9200 -0.1438  0.0243
  462ccc     H312411   3.787   9.486   5.919 -1.3154  0.6897 -0.4287
  462ccc     H412412   3.559   9.301   5.891 -0.1536 -0.2094 -2.1437
  462ccc     H512413   3.778   9.209   5.780 -0.1200 -0.4143  0.0554
  462ccc     O112414   3.954   9.329   5.792  0.0253  0.8476  0.6000
  462ccc     O212415   3.791   9.305   6.029  0.2622 -0.1833  0.0901
  462ccc     O312416   3.557   9.469   6.017  0.3284 -0.5638 -0.7403
  462ccc     O412417   3.636   9.604   5.769 -0.5391 -0.4681 -0.3197
  462ccc     C612418   3.584   9.457   5.509 -0.2560  0.3131 -0.4094
  462ccc     H612419   3.461   9.458   6.030  0.2311  0.1624 -0.7947
  462ccc     H712420   3.584   9.637   5.844 -1.2282 -2.3999  0.1286
  462ccc     H812421   3.885   9.324   6.043  0.4881  0.3423 -1.9080
  462ccc     H912422   3.485   9.501   5.525  0.5449  2.4178 -0.7826
  462ccc    H1012423   3.590   9.390   5.423  3.9751 -1.9325  1.3275
  462ccc     O512424   3.671   9.573   5.508  0.0529  0.2701  0.1295
  462ccc    H1112425   3.684   9.578   5.604  1.5683  0.5151 -0.0630
  462ccc     O612426   3.767   9.376   5.662 -0.5955  0.1103  0.4640
  463ccc     C112427   4.843   9.847   6.152  0.4739 -0.0009  0.3225
  463ccc     C212428   4.971   9.766   6.139 -0.0097 -0.0913 -0.8143
  463ccc     H112429   4.823   9.863   6.259 -1.3621  2.2230 -0.2516
  463ccc     H212430   5.045   9.818   6.201 -1.0448  0.6988 -0.2311
  463ccc     C312431   4.970   9.625   6.209  0.0715 -0.1259  0.3910
  463ccc     C412432   4.848   9.548   6.158 -0.1301 -0.4691  0.0334
  463ccc     C512433   4.715   9.627   6.164  0.0183 -0.5985  0.4707
  463ccc     H312434   4.860   9.535   6.050 -0.7975  1.1984 -0.2796
  463ccc     H412435   4.965   9.654   6.314  0.2253 -1.6452  0.8403
  463ccc     H512436   4.691   9.639   6.271  0.2363 -1.4225  0.6142
  463ccc     O112437   4.616   9.561   6.079  0.1336 -0.3983  0.1187
  463ccc     O212438   4.830   9.421   6.224  0.6936 -0.0798 -0.3656
  463ccc     O312439   5.092   9.544   6.183 -0.0976 -0.8634  0.2745
  463ccc     O412440   5.004   9.749   6.002 -0.2919 -0.0170 -0.0572
  463ccc     C612441   4.841   9.991   6.093  0.9909 -0.6998  0.3487
  463ccc     H612442   5.106   9.501   6.269 -0.2827  0.4568  0.9920
  463ccc     H712443   4.958   9.833   5.983 -1.2431 -0.6514 -0.6598
  463ccc     H812444   4.905   9.371   6.188  1.2633  2.0101 -2.3472
  463ccc     H912445   4.915  10.050   6.148  1.1307 -1.6498  1.2211
  463ccc    H1012446   4.741  10.033   6.107  0.2311 -2.2541 -0.1377
  463ccc     O512447   4.875   9.974   5.959  0.5432  0.0921  0.0009
  463ccc    H1112448   4.797   9.977   5.901  1.2236 -0.2986 -0.9492
  463ccc     O612449   4.733   9.765   6.109 -0.1777  0.8800  0.1456
  464ccc     C112450   5.671   9.901   4.435 -0.2337 -0.6351 -0.0207
  464ccc     C212451   5.779   9.788   4.413  0.4375  0.3053 -0.2003
  464ccc     H112452   5.716   9.957   4.518 -0.6672  0.8096 -0.7145
  464ccc     H212453   5.881   9.826   4.398  1.7298 -2.9266 -0.4893
  464ccc     C312454   5.768   9.708   4.546 -0.6820 -0.0085  0.4073
  464ccc     C412455   5.632   9.652   4.576  1.4189 -0.2887  0.2562
  464ccc     C512456   5.536   9.772   4.593  0.3145 -0.4432  0.1208
  464ccc     H312457   5.603   9.590   4.490  1.0325  0.6176 -0.2867
  464ccc     H412458   5.813   9.773   4.622  0.7452  1.8673 -1.8952
  464ccc     H512459   5.566   9.838   4.675  3.6486 -0.5269 -0.8845
  464ccc     O112460   5.399   9.718   4.606  0.0901  0.3036  0.7056
  464ccc     O212461   5.635   9.570   4.696 -0.5602 -0.1155 -0.1372
  464ccc     O312462   5.850   9.594   4.534  0.1427  0.2769  0.2555
  464ccc     O412463   5.728   9.717   4.293  0.0230  0.0763 -0.7665
  464ccc     C612464   5.645   9.996   4.316  0.4785  0.5118  0.2063
  464ccc     H612465   5.868   9.547   4.617  1.4847 -2.1893 -1.3426
  464ccc     H712466   5.786   9.643   4.270 -1.8923 -0.5930 -4.1647
  464ccc     H812467   5.553   9.517   4.704 -0.0845 -0.6717  1.3272
  464ccc     H912468   5.591   9.938   4.241 -0.3919 -0.5742  1.6208
  464ccc    H1012469   5.736  10.031   4.265 -0.2605 -1.0409 -2.3139
  464ccc     O512470   5.561  10.102   4.370 -0.5497  0.1781  0.0664
  464ccc    H1112471   5.610  10.131   4.449  1.0674 -2.8576  0.3675
  464ccc     O612472   5.541   9.848   4.473 -0.7111  0.2307 -0.0363
  465ccc     C112473   4.551  10.168   4.947 -0.3619 -0.4433  0.5188
  465ccc     C212474   4.588  10.196   5.094 -0.6624 -0.1243 -0.7864
  465ccc     H112475   4.442  10.155   4.937 -0.3073 -0.3099 -0.3976
  465ccc     H212476   4.543  10.288   5.134  2.5687 -0.3747  4.2075
  465ccc     C312477   4.542  10.069   5.174  0.3172 -0.6377  0.8010
  465ccc     C412478   4.610   9.938   5.112  0.1257 -0.1769  0.2776
  465ccc     C512479   4.588   9.926   4.963 -0.7017 -0.2969  0.5757
  465ccc     H312480   4.718   9.952   5.116  0.6562 -1.4315 -4.4016
  465ccc     H412481   4.433  10.059   5.167  0.4770 -2.1052  0.0017
  465ccc     H512482   4.487   9.899   4.929 -1.0751  0.1560  1.2793
  465ccc     O112483   4.671   9.828   4.897 -0.5102 -0.7672 -0.0356
  465ccc     O212484   4.575   9.815   5.176 -0.0221  0.6767 -0.5059
  465ccc     O312485   4.571  10.084   5.316 -0.8259 -0.1785  0.3487
  465ccc     O412486   4.733  10.209   5.100 -0.0676  0.6635 -0.0567
  465ccc     C612487   4.582  10.286   4.851 -0.2352 -0.8958 -0.4872
  465ccc     H612488   4.489  10.102   5.364 -0.3495  3.1169  0.1311
  465ccc     H712489   4.752  10.255   5.183  5.1335  3.3125 -2.2389
  465ccc     H812490   4.652   9.796   5.232  0.0743 -0.0430 -0.8754
  465ccc     H912491   4.687  10.318   4.856 -0.5479 -0.0597  2.2102
  465ccc    H1012492   4.526  10.374   4.887  1.5368  0.4811 -0.9455
  465ccc     O512493   4.535  10.253   4.722  0.4715  0.4313  0.0094
  465ccc    H1112494   4.596  10.181   4.699  1.1396 -0.1438  3.1554
  465ccc     O612495   4.620  10.053   4.900 -0.8274  0.0735  0.3184
  466ccc     C112496   5.443  10.108   6.503  0.2911  0.3313  0.3667
  466ccc     C212497   5.434  10.081   6.657  0.0628 -0.7028 -0.0635
  466ccc     H112498   5.353  10.157   6.464  0.2694 -0.7782 -1.0820
  466ccc     H212499   5.427  10.178   6.708 -0.6793 -1.1492  0.6985
  466ccc     C312500   5.332   9.982   6.706 -0.2100 -0.0507  0.7409
  466ccc     C412501   5.319   9.863   6.605  0.1776  0.0644 -0.0615
  466ccc     C512502   5.314   9.910   6.462  0.1025 -0.0196 -0.0972
  466ccc     H312503   5.405   9.796   6.616  0.2569  0.0771 -0.6135
  466ccc     H412504   5.231  10.026   6.708 -0.6703 -1.0315 -0.0826
  466ccc     H512505   5.235   9.985   6.447  0.9303  0.1725 -5.0081
  466ccc     O112506   5.301   9.786   6.391 -0.6590 -0.4340 -0.1091
  466ccc     O212507   5.200   9.795   6.647  0.3685 -0.1604 -0.1334
  466ccc     O312508   5.376   9.926   6.832 -1.0948 -0.5944 -0.2443
  466ccc     O412509   5.561  10.022   6.690 -0.0517 -0.0454  0.0469
  466ccc     C612510   5.564  10.195   6.466 -0.8002 -0.2322  0.1992
  466ccc     H612511   5.302   9.871   6.860 -1.1440 -1.7508 -2.3947
  466ccc     H712512   5.538   9.997   6.782 -1.2898  1.9757  0.3557
  466ccc     H812513   5.223   9.706   6.616 -0.6632 -0.1235 -1.0683
  466ccc     H912514   5.650  10.127   6.466 -0.2192  0.4892  0.7030
  466ccc    H1012515   5.584  10.286   6.523  2.9002 -1.1763  0.7004
  466ccc     O512516   5.542  10.239   6.327  1.1338  0.3146  0.0917
  466ccc    H1112517   5.631  10.241   6.289  0.9228 -0.2916 -0.4767
  466ccc     O612518   5.444   9.979   6.438  0.4282 -0.0289 -0.0051
  467ccc     C112519   4.726  10.032   5.608  0.1336  0.4775 -0.4417
  467ccc     C212520   4.708   9.895   5.542  0.3369  0.1503 -0.3287
  467ccc     H112521   4.706  10.107   5.531 -1.1169  1.0634  0.4375
  467ccc     H212522   4.601   9.889   5.519 -0.4228  0.4673  2.6563
  467ccc     C312523   4.805   9.889   5.422 -0.2875 -0.2899 -0.1677
  467ccc     C412524   4.949   9.895   5.475 -0.3237  0.5813  0.2009
  467ccc     C512525   4.966  10.030   5.556  0.4184 -0.5518 -0.4693
  467ccc     H312526   4.985   9.816   5.543 -1.0755 -0.0157 -0.0770
  467ccc     H412527   4.793   9.978   5.359 -2.4992 -0.4618 -0.0771
  467ccc     H512528   4.967  10.120   5.493  0.1025 -1.4852 -1.8552
  467ccc     O112529   5.094  10.012   5.624  0.1967  0.1790  0.1346
  467ccc     O212530   5.042   9.896   5.360 -0.7132 -0.5792  0.0709
  467ccc     O312531   4.768   9.772   5.347  0.6463  0.0532 -0.0801
  467ccc     O412532   4.736   9.791   5.636  0.2284 -0.2330  0.3740
  467ccc     C612533   4.630  10.049   5.719  0.7406 -0.0646  1.0219
  467ccc     H612534   4.762   9.698   5.410  0.2565 -0.9061 -1.2213
  467ccc     H712535   4.701   9.835   5.716 -0.8088 -0.3824  0.0161
  467ccc     H812536   5.134   9.886   5.390 -0.2654  1.1586 -0.5954
  467ccc     H912537   4.529  10.046   5.676  1.6742 -1.6702 -1.2473
  467ccc    H1012538   4.641  10.149   5.762  0.1078 -0.1512  1.4042
  467ccc     O512539   4.635   9.951   5.817 -0.4453 -0.3906  0.0190
  467ccc    H1112540   4.542   9.929   5.836 -1.7731  0.0148 -4.6876
  467ccc     O612541   4.861  10.046   5.658 -0.1219  0.9658  0.0276
  468ccc     C112542   4.736  10.768   5.941 -0.0541 -0.6929 -0.0658
  468ccc     C212543   4.701  10.738   6.089  0.6839  0.6121  0.4856
  468ccc     H112544   4.729  10.675   5.883 -0.1164 -0.8150  0.1344
  468ccc     H212545   4.604  10.692   6.110  0.5512  0.4585 -0.4070
  468ccc     C312546   4.796  10.627   6.143 -0.0818 -0.4831 -0.5420
  468ccc     C412547   4.951  10.670   6.121  0.2007 -0.2478 -0.4886
  468ccc     C512548   4.967  10.705   5.972  0.3381  0.8623 -0.3043
  468ccc     H312549   4.972  10.757   6.184  1.5674  0.0134 -1.2557
  468ccc     H412550   4.771  10.537   6.085 -2.5029  0.0688 -0.4558
  468ccc     H512551   4.955  10.618   5.906 -0.1026 -0.8685  1.9410
  468ccc     O112552   5.100  10.753   5.965 -0.3166 -0.2700 -0.2779
  468ccc     O212553   5.033  10.563   6.164 -0.0184 -1.0470  0.2334
  468ccc     O312554   4.769  10.603   6.293 -0.6867  0.1109  0.3625
  468ccc     O412555   4.716  10.857   6.162  0.2979  0.3151  0.5716
  468ccc     C612556   4.642  10.875   5.881 -0.8360 -0.0295 -0.3600
  468ccc     H612557   4.851  10.560   6.323 -0.7520  1.4208  2.7647
  468ccc     H712558   4.728  10.916   6.085 -0.3871 -0.4368 -0.1354
  468ccc     H812559   5.112  10.600   6.205 -1.2086  1.5262  0.3982
  468ccc     H912560   4.535  10.856   5.897 -0.8140  1.8843  2.7555
  468ccc    H1012561   4.661  10.881   5.773  1.4359  4.2581  0.0374
  468ccc     O512562   4.684  11.005   5.936 -0.3937  0.5995 -0.3646
  468ccc    H1112563   4.641  11.077   5.887  2.7999  2.6636 -0.4210
  468ccc     O612564   4.875  10.805   5.928 -0.8980 -0.6098  0.2178
  469ccc     C112565   5.614  10.645   6.086  0.1102  0.6300 -0.1925
  469ccc     C212566   5.522  10.525   6.067 -0.6745  0.1007 -0.1398
  469ccc     H112567   5.661  10.627   6.184  0.4906 -0.5697 -0.5885
  469ccc     H212568   5.578  10.433   6.084  0.1384  0.4695 -0.7900
  469ccc     C312569   5.411  10.524   6.174 -0.1433 -1.0180 -0.7092
  469ccc     C412570   5.343  10.660   6.197 -0.7881 -0.0856 -0.2175
  469ccc     C512571   5.451  10.775   6.205 -0.2869 -0.4723 -0.9596
  469ccc     H312572   5.293  10.681   6.101 -2.4019 -3.9553 -0.4029
  469ccc     H412573   5.468  10.511   6.266  0.9054  2.8449 -0.6691
  469ccc     H512574   5.502  10.767   6.301  1.2870 -2.0889 -1.8678
  469ccc     O112575   5.365  10.892   6.195 -0.5260 -0.3652  0.4041
  469ccc     O212576   5.245  10.660   6.300 -0.2849  0.4719  0.0184
  469ccc     O312577   5.326  10.411   6.155 -0.3017 -0.1444 -0.1113
  469ccc     O412578   5.466  10.535   5.941  0.2824  0.0064  0.3837
  469ccc     C612579   5.721  10.663   5.980 -0.7711  0.0039  1.2366
  469ccc     H612580   5.287  10.388   6.241 -0.0141 -0.0298  0.0504
  469ccc     H712581   5.532  10.598   5.909  0.7885 -0.1849  1.0358
  469ccc     H812582   5.294  10.633   6.379 -0.8893  1.8579  0.8887
  469ccc     H912583   5.789  10.579   5.964  0.9628  1.3098  1.4879
  469ccc    H1012584   5.787  10.748   6.002  0.8116 -0.6884 -0.5642
  469ccc     O512585   5.655  10.674   5.858 -0.2265  0.4756  0.5285
  469ccc    H1112586   5.714  10.727   5.801 -0.9847  1.7048  0.8346
  469ccc     O612587   5.544  10.765   6.101  0.4334 -0.3081  0.0841
  470ccc     C112588   2.979   9.902   4.066  0.0404 -0.4522 -0.2139
  470ccc     C212589   2.895   9.830   3.958 -0.0478 -0.4370 -0.0846
  470ccc     H112590   2.986  10.003   4.024 -2.3779 -0.5768 -1.0696
  470ccc     H212591   2.817   9.900   3.924  0.9856  0.1896 -1.2832
  470ccc     C312592   2.970   9.806   3.823  0.4214  0.1415 -0.0579
  470ccc     C412593   3.109   9.749   3.851 -0.4450 -0.4580 -0.9790
  470ccc     C512594   3.185   9.824   3.964 -0.1861  0.6243  0.1769
  470ccc     H312595   3.087   9.649   3.889  0.2120  0.4075  1.9768
  470ccc     H412596   2.978   9.904   3.773 -0.6599  0.7463  0.9015
  470ccc     H512597   3.194   9.928   3.929  0.8213  0.3080 -0.5493
  470ccc     O112598   3.313   9.758   3.974 -0.1024 -0.1650 -0.4385
  470ccc     O212599   3.183   9.746   3.725 -0.0666  0.2832 -0.3780
  470ccc     O312600   2.895   9.707   3.754 -0.0942  0.4322 -0.1424
  470ccc     O412601   2.850   9.705   4.015 -0.4444  0.1019 -0.1286
  470ccc     C612602   2.904   9.897   4.199  0.7167  0.3157  0.3991
  470ccc     H612603   2.901   9.736   3.661  1.3700 -0.0552 -0.2233
  470ccc     H712604   2.811   9.648   3.947  0.3062 -1.5117  0.7186
  470ccc     H812605   3.148   9.672   3.672  1.5242 -0.1298 -0.8891
  470ccc     H912606   2.928   9.803   4.252 -0.5327 -0.0020  0.4418
  470ccc    H1012607   2.795   9.903   4.193  0.6326 -1.4393 -0.3801
  470ccc     O512608   2.946  10.001   4.287  0.3261  0.3637 -0.3719
  470ccc    H1112609   2.902   9.973   4.370 -0.4944  0.5128 -0.7414
  470ccc     O612610   3.106   9.825   4.080  0.1777 -0.7690 -0.5590
  471ccc     C112611   3.862   8.843   4.150 -0.2731 -0.7500 -0.1681
  471ccc     C212612   4.022   8.849   4.141 -1.3332 -0.0284  0.1565
  471ccc     H112613   3.840   8.778   4.065  0.4024 -1.7946  0.4295
  471ccc     H212614   4.068   8.750   4.150  0.0944  0.7497  2.1176
  471ccc     C312615   4.063   8.911   4.000 -0.6224  0.0597 -0.8777
  471ccc     C412616   4.000   9.047   3.979  0.0751  0.1315 -0.8640
  471ccc     C512617   3.848   9.023   3.990  0.0653 -0.4352  0.1946
  471ccc     H312618   4.030   9.108   4.065 -1.3475  1.0378 -0.9723
  471ccc     H412619   4.029   8.845   3.919  2.4253 -0.3563 -1.9501
  471ccc     H512620   3.825   8.950   3.912  1.0218 -0.2511 -0.2751
  471ccc     O112621   3.775   9.150   3.979  0.0442  0.2074  0.1212
  471ccc     O212622   4.038   9.099   3.848  0.3191  0.4201 -0.0499
  471ccc     O312623   4.208   8.920   3.999  0.6402 -0.2748 -0.3415
  471ccc     O412624   4.067   8.934   4.248  0.3406 -0.1851  0.3995
  471ccc     C612625   3.812   8.788   4.282  0.1525 -0.6274 -0.0157
  471ccc     H612626   4.245   8.830   3.999  2.1150  0.2715  0.8442
  471ccc     H712627   4.164   8.927   4.244  0.3219 -0.0621 -0.5212
  471ccc     H812628   4.135   9.098   3.859  0.2059  0.6255  1.1406
  471ccc     H912629   3.862   8.821   4.374  0.2571  0.4971 -0.4649
  471ccc    H1012630   3.818   8.679   4.289  1.2149 -0.6590 -0.9971
  471ccc     O512631   3.671   8.801   4.283  0.2583 -0.0581  0.6207
  471ccc    H1112632   3.655   8.890   4.319  0.0342 -0.5700  1.8180
  471ccc     O612633   3.812   8.974   4.122 -0.4255  0.3329 -0.2962
  472ccc     C112634   3.547  11.319   3.270 -0.3761 -0.0644  0.1544
  472ccc     C212635   3.657  11.427   3.284 -0.8437  0.2253  0.2116
  472ccc     H112636   3.455  11.379   3.271  0.1293  0.7526  1.5521
  472ccc     H212637   3.619  11.507   3.219 -1.8587 -0.2146  0.2492
  472ccc     C312638   3.661  11.484   3.431 -0.4069 -0.0556  0.1250
  472ccc     C412639   3.666  11.365   3.531  0.1653 -0.2499 -0.0626
  472ccc     C512640   3.551  11.266   3.509  0.4577  0.0924  0.0251
  472ccc     H312641   3.766  11.321   3.528  1.2733  1.9731  1.4663
  472ccc     H412642   3.573  11.548   3.444 -0.7596 -0.7338  1.1433
  472ccc     H512643   3.451  11.307   3.528  0.2027  0.9618 -2.7438
  472ccc     O112644   3.577  11.147   3.588  0.2220 -0.8877  0.1861
  472ccc     O212645   3.633  11.425   3.662 -0.3758  0.3185 -0.4042
  472ccc     O312646   3.771  11.571   3.458  0.0238 -0.5302 -0.6195
  472ccc     O412647   3.780  11.365   3.244  0.0096  0.0930  0.5128
  472ccc     C612648   3.560  11.237   3.136 -0.3211 -0.2540 -0.1519
  472ccc     H612649   3.743  11.630   3.530  0.7728 -1.5815  0.5883
  472ccc     H712650   3.826  11.445   3.212  1.3777 -0.5031  0.9196
  472ccc     H812651   3.715  11.443   3.712 -0.2933 -1.2467  0.0814
  472ccc     H912652   3.629  11.153   3.144 -0.8841 -0.5805  4.8835
  472ccc    H1012653   3.584  11.309   3.057 -2.1010 -0.0329 -0.5515
  472ccc     O512654   3.426  11.190   3.117 -0.1014 -0.3392  0.1095
  472ccc    H1112655   3.413  11.173   3.022 -0.1196  0.4507 -0.0339
  472ccc     O612656   3.553  11.217   3.375 -0.8065 -0.1338  0.5153
  473ccc     C112657   3.202  10.396   4.358 -0.6381  0.3979 -0.2666
  473ccc     C212658   3.090  10.484   4.414  0.4631  1.1838  0.1879
  473ccc     H112659   3.286  10.392   4.428 -0.8328  0.9863  0.0111
  473ccc     H212660   3.064  10.442   4.512 -0.6006  0.8159 -0.2306
  473ccc     C312661   3.113  10.638   4.410 -0.1359  0.7251  0.0611
  473ccc     C412662   3.189  10.677   4.279 -0.5092 -0.1164 -0.1438
  473ccc     C512663   3.305  10.582   4.241 -0.5054  0.0319 -0.1705
  473ccc     H312664   3.119  10.665   4.196 -0.6079 -0.0815 -0.0653
  473ccc     H412665   3.177  10.666   4.494 -0.6346 -2.1316  1.4823
  473ccc     H512666   3.392  10.597   4.306 -0.8394  4.2080 -0.4021
  473ccc     O112667   3.338  10.624   4.105 -0.1463  0.5506 -0.5175
  473ccc     O212668   3.239  10.808   4.309  0.0347 -0.6973 -0.2982
  473ccc     O312669   2.986  10.709   4.427 -0.3949  0.1718 -0.2948
  473ccc     O412670   2.987  10.466   4.322  0.5309  0.1029  0.0274
  473ccc     C612671   3.154  10.248   4.341  0.3324 -0.4519  0.5058
  473ccc     H612672   3.010  10.792   4.471  2.3239  0.1385 -1.4776
  473ccc     H712673   3.000  10.372   4.300 -0.7893 -0.0447 -0.1468
  473ccc     H812674   3.161  10.864   4.322  0.9479  0.3681  0.9278
  473ccc     H912675   3.122  10.217   4.441 -0.0418 -1.5824  0.0465
  473ccc    H1012676   3.237  10.182   4.314 -0.0076 -0.8551  0.4435
  473ccc     O512677   3.048  10.233   4.253 -0.0866  0.3497  0.0090
  473ccc    H1112678   3.026  10.138   4.258 -0.9466  0.5435  0.0316
  473ccc     O612679   3.255  10.441   4.232 -0.5869 -0.3987 -0.5532
  474ccc     C112680   3.502   9.508   3.445  0.3112  0.1715  0.1881
  474ccc     C212681   3.566   9.417   3.556  0.3277 -0.3618  0.3789
  474ccc     H112682   3.407   9.464   3.411 -1.3310  2.9666  0.8339
  474ccc     H212683   3.486   9.389   3.626  1.1820 -0.0591  1.4918
  474ccc     C312684   3.623   9.290   3.497  0.5584  0.3053 -0.4250
  474ccc     C412685   3.725   9.324   3.380  0.5959  0.3930  0.4642
  474ccc     C512686   3.649   9.411   3.269 -0.5626  0.5841 -0.3444
  474ccc     H312687   3.808   9.386   3.415  0.1157  2.6067 -2.0064
  474ccc     H412688   3.548   9.241   3.435 -0.0327  0.0914  0.4430
  474ccc     H512689   3.576   9.353   3.212 -1.0260  1.4872 -0.6975
  474ccc     O112690   3.742   9.460   3.174 -0.3351  0.4994  0.5527
  474ccc     O212691   3.794   9.203   3.336  0.6237 -0.0371  0.6750
  474ccc     O312692   3.673   9.209   3.601 -0.1017  0.5671 -0.4753
  474ccc     O412693   3.667   9.498   3.616 -0.3887 -0.3051 -0.2359
  474ccc     C612694   3.451   9.654   3.480  0.7110 -0.2099 -0.2817
  474ccc     H612695   3.740   9.269   3.639  1.3256 -0.1064 -1.7834
  474ccc     H712696   3.647   9.587   3.584  1.2117  0.3369  0.4429
  474ccc     H812697   3.837   9.222   3.251 -0.3377  1.3706  0.4619
  474ccc     H912698   3.371   9.649   3.555 -1.6125  0.0453 -2.5724
  474ccc    H1012699   3.411   9.701   3.389  2.6093  1.2622 -0.4072
  474ccc     O512700   3.558   9.725   3.536 -0.1032 -0.3808 -0.5118
  474ccc    H1112701   3.521   9.801   3.584  0.9783 -0.8977  1.2804
  474ccc     O612702   3.589   9.527   3.328 -0.6924 -0.0897 -0.3802
  475ccc     C112703   4.163   8.946   3.279 -0.4620  0.4282 -0.2025
  475ccc     C212704   4.060   8.925   3.392  0.2157 -0.7620 -0.0793
  475ccc     H112705   4.257   8.927   3.332 -1.8175  0.4614  2.3802
  475ccc     H212706   4.074   8.822   3.428 -1.8521 -1.0857 -0.1081
  475ccc     C312707   4.078   9.022   3.515 -0.2820  0.0491  0.4444
  475ccc     C412708   4.123   9.163   3.480  0.4787 -0.2850 -0.0786
  475ccc     C512709   4.218   9.174   3.360 -0.0161 -0.1153 -0.3278
  475ccc     H312710   4.034   9.221   3.453 -0.4007 -1.1262  0.9118
  475ccc     H412711   4.156   8.978   3.578 -2.4133  0.6958  3.8033
  475ccc     H512712   4.312   9.138   3.403 -0.9778  0.5124  2.5285
  475ccc     O112713   4.225   9.307   3.316 -0.3774  0.1753  0.0834
  475ccc     O212714   4.176   9.225   3.595 -0.0253  0.0897  0.1286
  475ccc     O312715   3.960   9.018   3.594  0.0820  0.3930 -0.6295
  475ccc     O412716   3.931   8.951   3.327 -0.5289 -0.0559  0.1485
  475ccc     C612717   4.148   8.863   3.152  0.1866 -0.3065  0.1513
  475ccc     H612718   3.991   9.049   3.681  2.4853 -1.0863 -0.8697
  475ccc     H712719   3.945   8.964   3.232 -0.7457  1.9382  0.3469
  475ccc     H812720   4.245   9.161   3.620 -0.7902 -0.9676 -0.4132
  475ccc     H912721   4.136   8.755   3.170 -3.2763 -0.4271 -2.1445
  475ccc    H1012722   4.238   8.890   3.095 -0.0864 -0.2399 -0.2534
  475ccc     O512723   4.035   8.912   3.084 -0.0335 -0.1739  0.0481
  475ccc    H1112724   4.059   8.899   2.991  1.7971  0.6075  0.3807
  475ccc     O612725   4.175   9.088   3.249 -0.0755 -0.0262 -0.3816
  476ccc     C112726   5.840  10.051   2.311  0.1459 -0.2397 -0.1551
  476ccc     C212727   5.928   9.988   2.419  0.1083  1.4750  0.3557
  476ccc     H112728   5.895  10.125   2.252 -1.4341  1.0786 -0.0712
  476ccc     H212729   6.029   9.978   2.379  0.2060 -1.2794  1.0706
  476ccc     C312730   5.941  10.088   2.534 -0.1430 -0.4879  0.0770
  476ccc     C412731   5.808  10.137   2.597  0.5147 -0.3074  0.6269
  476ccc     C512732   5.725  10.198   2.479 -0.2425  0.0525  0.7357
  476ccc     H312733   5.752  10.053   2.643 -1.8513  0.8629  0.0392
  476ccc     H412734   5.985  10.174   2.482  0.6113 -0.8080  0.1722
  476ccc     H512735   5.769  10.292   2.445 -0.9109  0.2800  0.4786
  476ccc     O112736   5.591  10.223   2.529 -0.4158 -0.5561  0.4541
  476ccc     O212737   5.839  10.243   2.693 -0.4798  0.6078  0.3311
  476ccc     O312738   6.033  10.045   2.641 -0.6140  0.2417  0.0239
  476ccc     O412739   5.874   9.856   2.457  0.4263 -0.3040  0.1573
  476ccc     C612740   5.790   9.949   2.204 -0.2746 -0.5948 -0.1561
  476ccc     H612741   5.984   9.976   2.690 -2.2574  1.1367 -0.2925
  476ccc     H712742   5.952   9.802   2.480  1.4651  0.0614 -2.2892
  476ccc     H812743   5.921  10.226   2.743  0.6125 -0.1463 -1.5944
  476ccc     H912744   5.720   9.882   2.256 -0.0471  0.3861  1.4728
  476ccc    H1012745   5.880   9.897   2.169  0.9050  0.8626  0.5919
  476ccc     O512746   5.721  10.024   2.103  0.2571  0.2585 -0.3664
  476ccc    H1112747   5.732   9.964   2.027  1.4182 -3.2505  2.2871
  476ccc     O612748   5.717  10.103   2.366 -0.1048 -0.0459 -0.1990
  477ccc     C112749   5.348  10.979   2.823  0.7212 -0.2654 -0.3389
  477ccc     C212750   5.491  11.026   2.849 -0.5129 -0.6277 -0.2810
  477ccc     H112751   5.279  11.011   2.902 -0.6293  1.8492 -2.2427
  477ccc     H212752   5.487  11.133   2.874  1.7712 -0.5881  0.1450
  477ccc     C312753   5.550  10.965   2.979  0.4790  0.6534  0.5125
  477ccc     C412754   5.546  10.807   2.973 -0.1059 -0.3153  0.8591
  477ccc     C512755   5.398  10.774   2.940  0.1338 -0.1822  0.4314
  477ccc     H312756   5.612  10.781   2.889 -0.5585 -1.8301  0.9469
  477ccc     H412757   5.489  10.998   3.064 -0.8566 -2.3784  0.8636
  477ccc     H512758   5.326  10.800   3.019 -0.8817  0.8968 -0.7922
  477ccc     O112759   5.384  10.625   2.930 -0.4733 -0.2889 -0.5269
  477ccc     O212760   5.583  10.747   3.098 -0.9067  0.4155  0.4432
  477ccc     O312761   5.681  11.010   3.008 -0.1144  0.0122  0.3390
  477ccc     O412762   5.578  11.002   2.735  0.0023 -0.4120  0.3283
  477ccc     C612763   5.290  11.024   2.688  0.4347 -0.0827  0.3554
  477ccc     H612764   5.734  10.944   2.960 -1.3477 -0.5577 -0.2767
  477ccc     H712765   5.525  11.003   2.652  2.8467 -0.1013 -1.6295
  477ccc     H812766   5.645  10.804   3.147 -1.1745  1.1149 -0.0131
  477ccc     H912767   5.281  11.134   2.694 -1.6572 -0.2386  1.0466
  477ccc    H1012768   5.186  10.995   2.670 -0.0147  1.4860  0.2676
  477ccc     O512769   5.372  10.974   2.581 -0.4195  0.2896  0.0484
  477ccc    H1112770   5.350  10.880   2.583 -0.5527  0.2944 -0.7390
  477ccc     O612771   5.346  10.829   2.823  0.3596  0.4968  0.0463
  478ccc     C112772   8.675  10.706   6.459 -0.4644 -0.3113 -0.0720
  478ccc     C212773   8.691  10.595   6.351 -0.7453 -0.0506 -0.7096
  478ccc     H112774   8.589  10.683   6.524 -0.1095  1.1806  0.9982
  478ccc     H212775   8.700  10.503   6.410  1.9805  0.1175 -0.7375
  478ccc     C312776   8.568  10.597   6.260  0.1418  0.0554  1.0320
  478ccc     C412777   8.537  10.737   6.196 -0.2329  0.2024 -0.0760
  478ccc     C512778   8.534  10.845   6.306  0.2460  0.5238  0.5702
  478ccc     H312779   8.623  10.763   6.134  0.1573  0.8131  0.6980
  478ccc     H412780   8.487  10.568   6.328  0.6803 -1.8034  0.9281
  478ccc     H512781   8.449  10.833   6.374  0.6180  1.4280  1.2101
  478ccc     O112782   8.535  10.961   6.232 -0.1586 -0.3207  0.1939
  478ccc     O212783   8.412  10.729   6.121 -0.0175 -0.3243  0.2281
  478ccc     O312784   8.564  10.498   6.159  0.1839 -0.3943  0.0126
  478ccc     O412785   8.807  10.606   6.268  0.2223 -0.1485  0.1485
  478ccc     C612786   8.795  10.732   6.559  0.0987  0.3232 -1.0803
  478ccc     H612787   8.630  10.525   6.092 -0.7347  1.6355 -0.1367
  478ccc     H712788   8.817  10.518   6.229  0.6064  0.7717 -1.9242
  478ccc     H812789   8.423  10.681   6.037  1.8287 -0.4059  0.4910
  478ccc     H912790   8.810  10.643   6.621 -0.0891 -0.5979 -2.2994
  478ccc    H1012791   8.773  10.816   6.626 -0.6994 -0.1680 -0.7104
  478ccc     O512792   8.909  10.754   6.472  0.6026  0.3605  0.1554
  478ccc    H1112793   8.860  10.723   6.394  1.0693 -0.0025  0.0035
  478ccc     O612794   8.654  10.833   6.387  0.3503  0.9987  0.1505
  479ccc     C112795   7.857  11.230   5.713 -0.0872  0.5029 -0.4962
  479ccc     C212796   7.829  11.077   5.744 -1.2941  0.0227  0.4629
  479ccc     H112797   7.882  11.253   5.609  0.8322  2.6400  0.1508
  479ccc     H212798   7.750  11.039   5.678 -1.0004 -1.6238  1.0210
  479ccc     C312799   7.957  10.992   5.716 -1.1196  0.3044  0.1755
  479ccc     C412800   8.072  11.047   5.801  0.1210  0.2026  0.0191
  479ccc     C512801   8.095  11.195   5.762  0.6125  0.2699  0.3741
  479ccc     H312802   8.042  11.049   5.907  1.4609 -1.1454  0.4586
  479ccc     H412803   7.989  11.004   5.612  1.0067 -0.9610  0.6204
  479ccc     H512804   8.123  11.195   5.656  0.7028 -1.3240  0.3705
  479ccc     O112805   8.196  11.252   5.841 -0.2717 -0.1669  0.1182
  479ccc     O212806   8.189  10.972   5.773 -0.0937  0.5921  1.0802
  479ccc     O312807   7.931  10.853   5.744  0.0505 -0.5754 -0.3419
  479ccc     O412808   7.792  11.066   5.875  0.1074  0.4809 -0.1733
  479ccc     C612809   7.744  11.320   5.743  0.8973 -1.0348 -0.1104
  479ccc     H612810   8.010  10.809   5.781  0.9764  0.6135 -0.8321
  479ccc     H712811   7.759  10.975   5.881  0.7496  0.2886  0.6671
  479ccc     H812812   8.233  10.959   5.859 -0.9905 -2.0784  1.2272
  479ccc     H912813   7.744  11.343   5.850  2.2993 -0.0254 -0.3067
  479ccc    H1012814   7.647  11.272   5.722  0.3754 -0.7555  1.5459
  479ccc     O512815   7.744  11.446   5.662 -0.4456  0.5870 -0.1879
  479ccc    H1112816   7.720  11.411   5.575  0.2681  0.1523 -0.2117
  479ccc     O612817   7.973  11.269   5.787  0.0258  0.3195 -0.0495
  480ccc     C112818   8.705  12.663   7.302 -1.1366 -0.2027  0.5718
  480ccc     C212819   8.708  12.720   7.160  1.3659 -0.0883 -0.3521
  480ccc     H112820   8.772  12.726   7.362 -3.0169  1.8953  0.5934
  480ccc     H212821   8.678  12.825   7.157 -2.0072 -0.9116 -3.5614
  480ccc     C312822   8.856  12.717   7.115 -0.5856 -0.2096 -0.3156
  480ccc     C412823   8.930  12.580   7.145  0.0212 -0.3786  0.2180
  480ccc     C512824   8.897  12.526   7.293 -0.0750 -0.8084 -0.1593
  480ccc     H312825   8.885  12.505   7.079  0.3994  0.7265 -1.3768
  480ccc     H412826   8.907  12.795   7.174 -1.6108  0.4269 -0.2396
  480ccc     H512827   8.935  12.581   7.380 -0.0318 -1.5341  0.2867
  480ccc     O112828   8.939  12.391   7.306  0.2342  0.3715 -0.1711
  480ccc     O212829   9.074  12.597   7.128 -0.1541 -0.3710  0.0557
  480ccc     O312830   8.872  12.769   6.976 -0.0290 -0.2048  0.5014
  480ccc     O412831   8.611  12.645   7.081  0.5267 -0.5859 -0.4049
  480ccc     C612832   8.571  12.679   7.375  0.8707  0.1600  0.2954
  480ccc     H612833   8.840  12.700   6.916 -1.9837  0.2013  1.0003
  480ccc     H712834   8.550  12.639   7.157  0.9759 -1.3679 -0.0964
  480ccc     H812835   9.094  12.533   7.058 -1.4202 -3.9201  2.6679
  480ccc     H912836   8.541  12.784   7.385 -0.5442 -0.1249 -0.6106
  480ccc    H1012837   8.581  12.638   7.476 -0.9289 -2.8728 -0.6144
  480ccc     O512838   8.468  12.615   7.297 -0.5204 -0.3260  0.6845
  480ccc    H1112839   8.413  12.569   7.363 -1.5676  0.4534  0.3692
  480ccc     O612840   8.756  12.534   7.302 -0.3763  0.6231 -0.4601
  481ccc     C112841   8.359  12.340   7.084 -0.3607  0.2172  0.4862
  481ccc     C212842   8.402  12.281   6.948 -0.2238 -0.5159  0.7477
  481ccc     H112843   8.386  12.447   7.088 -0.5935  0.2449  1.9995
  481ccc     H212844   8.349  12.327   6.864 -0.2774 -1.8654  0.0056
  481ccc     C312845   8.560  12.291   6.934 -0.6266  0.4673  0.7300
  481ccc     C412846   8.620  12.229   7.064 -0.5434  0.5626  0.2346
  481ccc     C512847   8.572  12.295   7.194  0.3376 -0.1016  0.5748
  481ccc     H312848   8.585  12.126   7.074 -0.2473  0.2119 -1.7525
  481ccc     H412849   8.593  12.395   6.925  0.6412 -0.1186 -2.7721
  481ccc     H512850   8.598  12.401   7.204  0.2481  0.4398 -3.3505
  481ccc     O112851   8.624  12.214   7.307  0.6110  0.3756 -0.2811
  481ccc     O212852   8.765  12.233   7.059 -0.2704  0.5216  0.1083
  481ccc     O312853   8.597  12.234   6.801 -0.9606 -0.2364 -0.5864
  481ccc     O412854   8.354  12.144   6.942 -0.6724 -0.0401 -0.8834
  481ccc     C612855   8.201  12.336   7.093 -0.3897  0.7227  0.2168
  481ccc     H612856   8.693  12.244   6.794 -1.2031  2.8991 -0.8958
  481ccc     H712857   8.326  12.126   6.850  0.6730  2.0521 -1.7816
  481ccc     H812858   8.798  12.215   6.970  0.8422 -1.1980  0.8304
  481ccc     H912859   8.173  12.230   7.102  3.9776 -0.7195 -1.0665
  481ccc    H1012860   8.151  12.382   7.007 -2.3483 -1.7648 -0.0809
  481ccc     O512861   8.172  12.402   7.217 -0.1855  0.0160  0.0977
  481ccc    H1112862   8.141  12.491   7.192  1.4071  0.7523  0.5793
  481ccc     O612863   8.431  12.281   7.193  0.4594  0.0283  0.1926
  482ccc     C112864   8.012  14.102   6.399  0.3532 -0.1903  0.5902
  482ccc     C212865   7.965  14.162   6.531 -0.0835 -0.3731  0.1160
  482ccc     H112866   7.928  14.059   6.342  1.5662  0.7724 -2.0790
  482ccc     H212867   7.888  14.240   6.520  1.2501  1.2182  1.4830
  482ccc     C312868   7.918  14.046   6.626 -0.1539  0.0799 -0.0456
  482ccc     C412869   8.022  13.922   6.627 -0.4375 -0.4612  0.6447
  482ccc     C512870   8.055  13.874   6.484  0.0272 -0.1485 -0.2607
  482ccc     H312871   8.117  13.956   6.670  0.2583 -0.9451 -0.4652
  482ccc     H412872   7.828  14.004   6.581 -0.3626  0.6390 -0.1527
  482ccc     H512873   7.963  13.846   6.432  0.1917  0.9619 -1.1839
  482ccc     O112874   8.163  13.776   6.485  0.1826  0.1463 -0.3969
  482ccc     O212875   7.955  13.828   6.710  0.0694  0.4932 -0.0194
  482ccc     O312876   7.889  14.091   6.762  0.0888 -0.0779  0.3392
  482ccc     O412877   8.083  14.220   6.591 -0.0725 -0.2743 -0.3554
  482ccc     C612878   8.052  14.203   6.289 -0.3683 -0.6343 -0.5146
  482ccc     H612879   7.972  14.117   6.806  0.3161 -0.3626  0.0881
  482ccc     H712880   8.098  14.307   6.548 -0.5165 -0.7416 -1.5048
  482ccc     H812881   7.978  13.840   6.803 -1.5274  0.6724  0.3827
  482ccc     H912882   8.153  14.231   6.319 -1.1884  1.3895  0.5776
  482ccc    H1012883   7.986  14.291   6.282 -1.4493 -1.5133 -2.2688
  482ccc     O512884   8.053  14.133   6.168 -0.4977 -0.2834  0.4660
  482ccc    H1112885   8.131  14.076   6.178  0.4228  1.1203  1.9463
  482ccc     O612886   8.111  13.993   6.420 -0.0684  0.1348  0.0521
  483ccc     C112887   8.721  13.245   7.228 -0.2863  1.3905  0.0394
  483ccc     C212888   8.599  13.191   7.309  0.5964 -0.2438 -0.0337
  483ccc     H112889   8.734  13.351   7.255  1.2526  1.5672 -1.2179
  483ccc     H212890   8.613  13.203   7.417  1.4751 -0.7265 -0.0787
  483ccc     C312891   8.473  13.271   7.263 -0.0525 -0.1974  0.3882
  483ccc     C412892   8.439  13.259   7.104 -0.4375  0.7827 -0.6614
  483ccc     C512893   8.571  13.307   7.033  0.2193  0.1777 -0.3706
  483ccc     H312894   8.416  13.154   7.080 -0.6011  0.7850 -0.5145
  483ccc     H412895   8.508  13.373   7.285  2.5486 -0.5378 -1.6348
  483ccc     H512896   8.574  13.412   7.065  0.4795  0.0834 -0.0877
  483ccc     O112897   8.549  13.298   6.893  0.0176 -0.0857  0.4155
  483ccc     O212898   8.323  13.336   7.073 -0.2302 -0.0288 -0.2133
  483ccc     O312899   8.362  13.227   7.351 -0.3467 -0.1225  0.1985
  483ccc     O412900   8.584  13.054   7.273 -0.0739 -0.0480 -0.4178
  483ccc     C612901   8.849  13.162   7.262  0.5925  0.1326  0.0313
  483ccc     H612902   8.398  13.197   7.436  4.1862  1.1056 -1.0385
  483ccc     H712903   8.675  13.021   7.261  0.5946  1.4922  0.0548
  483ccc     H812904   8.268  13.298   7.144 -0.2401 -0.2760 -0.3517
  483ccc     H912905   8.883  13.180   7.365  0.5708  1.5659 -0.1823
  483ccc    H1012906   8.934  13.192   7.200  0.5552 -1.1889 -0.6864
  483ccc     O512907   8.832  13.021   7.235  0.2363  0.1257 -0.2681
  483ccc    H1112908   8.907  12.981   7.282 -0.7488 -0.1008  1.1855
  483ccc     O612909   8.690  13.240   7.080 -0.1219  0.1089  0.0951
  484ccc     C112910   8.167  13.037   6.835 -0.0158  0.1540  0.1716
  484ccc     C212911   8.054  13.053   6.733  0.5662  0.9492 -0.0214
  484ccc     H112912   8.167  13.132   6.891  0.3064 -0.2987  0.9591
  484ccc     H212913   7.963  13.070   6.791  1.4692  0.8276  1.5066
  484ccc     C312914   8.088  13.178   6.644 -0.5815  0.4698  0.2076
  484ccc     C412915   8.224  13.156   6.568  0.4303  0.5477  0.1880
  484ccc     C512916   8.333  13.110   6.669 -0.3769 -0.1054  0.5815
  484ccc     H312917   8.222  13.074   6.496 -0.5868 -0.4231  1.2786
  484ccc     H412918   8.105  13.269   6.703 -0.6119  1.2589 -0.9583
  484ccc     H512919   8.365  13.196   6.729 -1.3713  1.1963 -0.6688
  484ccc     O112920   8.449  13.056   6.607  0.3783  0.0962  0.4144
  484ccc     O212921   8.266  13.279   6.505 -0.2942 -0.3006 -0.4026
  484ccc     O312922   7.985  13.198   6.549  0.1370  0.7153 -0.2811
  484ccc     O412923   8.040  12.933   6.652 -0.1680  0.2766  0.1274
  484ccc     C612924   8.133  12.916   6.932 -0.9613 -0.0777 -0.3923
  484ccc     H612925   8.001  13.288   6.517  2.1004  0.8171  0.8433
  484ccc     H712926   7.956  12.953   6.608  0.1784 -0.2955 -0.8116
  484ccc     H812927   8.247  13.276   6.410  0.5311  2.2078 -0.7318
  484ccc     H912928   8.039  12.931   6.987 -0.6049  0.0720  0.1799
  484ccc    H1012929   8.211  12.915   7.009 -0.8664 -0.3938 -0.4919
  484ccc     O512930   8.126  12.800   6.855  0.1614 -0.0892  0.1723
  484ccc    H1112931   8.088  12.833   6.772  0.4166 -1.9008 -0.7166
  484ccc     O612932   8.292  13.008   6.760  0.4420 -0.1917  0.2316
  485ccc     C112933   9.179  13.497   6.804 -0.0273 -0.3538 -0.1435
  485ccc     C212934   9.326  13.532   6.789 -0.0399  0.2033  0.1324
  485ccc     H112935   9.164  13.492   6.913  0.3344 -1.1421 -0.1253
  485ccc     H212936   9.328  13.629   6.840 -0.5907 -0.0425  0.6366
  485ccc     C312937   9.420  13.423   6.854 -1.0436  0.0500 -0.1605
  485ccc     C412938   9.389  13.281   6.800 -0.2464 -0.7317  0.0507
  485ccc     C512939   9.237  13.259   6.800  0.8518  0.1619  0.2664
  485ccc     H312940   9.424  13.283   6.696  0.8892  0.8347  0.4301
  485ccc     H412941   9.397  13.416   6.961  0.7174  0.5773  0.2823
  485ccc     H512942   9.207  13.223   6.899 -0.7809  1.8426  0.4232
  485ccc     O112943   9.218  13.149   6.719  0.0932 -0.3291 -0.2573
  485ccc     O212944   9.467  13.188   6.869 -0.1652 -0.1055 -0.1599
  485ccc     O312945   9.563  13.460   6.844  0.2169  0.4307  0.4070
  485ccc     O412946   9.356  13.553   6.649 -0.5721 -0.2023 -0.3192
  485ccc     C612947   9.079  13.608   6.749  0.2421 -0.4366  0.2700
  485ccc     H612948   9.565  13.541   6.897 -4.1803 -0.5038  2.4557
  485ccc     H712949   9.453  13.562   6.649 -0.6648  1.3060  1.3687
  485ccc     H812950   9.558  13.222   6.868  0.1202 -0.7387  1.7009
  485ccc     H912951   9.096  13.619   6.641 -0.0749  0.8198  0.3361
  485ccc    H1012952   9.106  13.703   6.796  0.1480 -0.1676 -0.2149
  485ccc     O512953   8.944  13.566   6.775 -0.3798  0.0096 -0.1651
  485ccc    H1112954   8.904  13.597   6.692  1.4943 -2.2035 -2.0547
  485ccc     O612955   9.159  13.374   6.741  0.6491  0.4135  0.1232
  486ccc     C112956   7.557  10.956   7.398  0.8321 -0.3449 -0.6599
  486ccc     C212957   7.626  10.824   7.444  0.0449  0.2523 -0.8552
  486ccc     H112958   7.498  10.930   7.309  0.3436 -0.0451 -0.4238
  486ccc     H212959   7.558  10.739   7.458 -0.3644  0.4924 -1.3527
  486ccc     C312960   7.732  10.791   7.334  0.0360 -0.1300 -0.0435
  486ccc     C412961   7.832  10.907   7.299  0.7935  0.2630  0.1347
  486ccc     C512962   7.743  11.020   7.250 -0.0587  0.1559  0.4004
  486ccc     H312963   7.882  10.935   7.393 -1.4090 -1.0225  1.7997
  486ccc     H412964   7.687  10.766   7.238  1.7455 -0.2099 -0.8512
  486ccc     H512965   7.678  10.988   7.167 -1.6922  0.2544  1.6154
  486ccc     O112966   7.825  11.135   7.220 -0.0061 -0.0541  0.5678
  486ccc     O212967   7.935  10.859   7.204 -0.0436  0.8519  0.0082
  486ccc     O312968   7.805  10.685   7.379 -0.3630  0.4285  0.2216
  486ccc     O412969   7.691  10.855   7.562 -0.2767 -0.6986 -0.1675
  486ccc     C612970   7.453  11.014   7.497 -0.1708  0.1405  0.6451
  486ccc     H612971   7.853  10.710   7.459  0.0811 -0.6619  0.3095
  486ccc     H712972   7.649  10.933   7.602  0.5380 -1.1794  1.7234
  486ccc     H812973   7.953  10.772   7.243 -1.3810 -0.7814 -2.6511
  486ccc     H912974   7.382  10.939   7.534  0.4140 -0.4712  0.5601
  486ccc    H1012975   7.399  11.093   7.443  2.2187 -0.2201 -2.6728
  486ccc     O512976   7.534  11.058   7.605 -0.1408  0.2745 -0.1507
  486ccc    H1112977   7.525  11.155   7.613  2.0546  0.5831 -0.8847
  486ccc     O612978   7.654  11.051   7.357 -0.2075 -0.0214  0.3263
  487ccc     C112979   7.721  10.867   6.220  0.0654 -0.2400  0.2197
  487ccc     C212980   7.847  10.787   6.177  0.1501 -0.4500  0.9931
  487ccc     H112981   7.705  10.932   6.134  0.6175 -0.9435 -0.4255
  487ccc     H212982   7.831  10.743   6.078 -1.9619 -0.5991  1.3407
  487ccc     C312983   7.962  10.897   6.145  0.0855  0.8667 -0.5688
  487ccc     C412984   7.992  10.983   6.278  0.5983 -0.1646  0.7740
  487ccc     C512985   7.866  11.038   6.347  0.3403 -0.3285 -0.7784
  487ccc     H312986   8.039  10.912   6.346  2.1325  0.7672  0.7461
  487ccc     H412987   7.932  10.968   6.068  0.7112 -0.4536 -2.0867
  487ccc     H512988   7.826  11.123   6.289  0.3694  1.9088  2.2095
  487ccc     O112989   7.884  11.100   6.480  0.2139 -0.5129  0.2564
  487ccc     O212990   8.096  11.078   6.242  0.1486  0.0713 -0.6530
  487ccc     O312991   8.074  10.840   6.086  0.1209  0.4904 -0.1200
  487ccc     O412992   7.883  10.689   6.270  0.2631 -0.6138 -0.1922
  487ccc     C612993   7.595  10.786   6.241  0.2225 -1.0959 -0.3129
  487ccc     H612994   8.144  10.907   6.095 -0.6881  1.0661  2.9310
  487ccc     H712995   7.970  10.656   6.240  0.6513 -0.0989  0.3369
  487ccc     H812996   8.133  11.119   6.322 -1.6624  1.7787 -0.5990
  487ccc     H912997   7.522  10.840   6.303  1.2345 -0.1906  0.1272
  487ccc    H1012998   7.611  10.694   6.298 -1.1487 -0.3315  1.3743
  487ccc     O512999   7.541  10.755   6.108  0.5048  0.3258 -0.5273
  487ccc    H1113000   7.457  10.710   6.132  1.1629 -0.3735  0.5251
  487ccc     O613001   7.754  10.936   6.350 -0.1591 -0.1623 -0.1256
  488ccc     C113002   8.285  11.161   6.925 -0.0891 -0.0242  0.0974
  488ccc     C213003   8.194  11.041   6.931  0.5133  0.0447 -0.2232
  488ccc     H113004   8.387  11.120   6.924 -1.2873 -3.2862 -0.9661
  488ccc     H213005   8.210  10.983   6.839 -1.4590 -0.3833 -0.3514
  488ccc     C313006   8.225  10.953   7.053  0.2526 -0.3730 -0.6998
  488ccc     C413007   8.205  11.041   7.185  0.1077 -0.0181  0.2637
  488ccc     C513008   8.303  11.166   7.167 -0.7996 -0.4963  0.7186
  488ccc     H313009   8.102  11.078   7.182  0.4625  1.0027  0.1632
  488ccc     H413010   8.328  10.914   7.045  0.2664 -0.0793 -2.3019
  488ccc     H513011   8.406  11.137   7.145 -0.9920  0.0612 -1.1749
  488ccc     O113012   8.286  11.265   7.268 -0.3895  0.4169 -0.3707
  488ccc     O213013   8.235  10.958   7.304  0.3082 -0.0241  0.1957
  488ccc     O313014   8.142  10.834   7.059 -0.0188 -0.0689  0.1213
  488ccc     O413015   8.056  11.083   6.922 -0.2817 -0.4064 -0.7766
  488ccc     C613016   8.271  11.257   6.803  0.6209  0.5746 -0.4305
  488ccc     H613017   8.064  10.867   7.107  0.2313 -0.2573  0.6738
  488ccc     H713018   8.068  11.169   6.879  1.0492  0.0184  0.3785
  488ccc     H813019   8.331  10.947   7.309  0.5542  0.7958 -1.9216
  488ccc     H913020   8.309  11.212   6.710 -1.4054 -0.5627 -0.7651
  488ccc    H1013021   8.328  11.350   6.814 -0.5244  1.1648  0.7629
  488ccc     O513022   8.132  11.281   6.782 -0.2404 -0.0428 -0.4275
  488ccc    H1113023   8.137  11.348   6.712  1.5101  1.6122  1.1541
  488ccc     O613024   8.258  11.241   7.044  0.3633 -0.2732 -0.4433
  489ccc     C113025   7.680  11.153   7.909 -0.8545 -0.0644  0.4709
  489ccc     C213026   7.770  11.048   7.974  0.0112 -0.1332 -0.6807
  489ccc     H113027   7.607  11.097   7.848  1.1931 -2.6572  0.2353
  489ccc     H213028   7.716  10.980   8.041 -0.6347  0.1845 -0.8761
  489ccc     C313029   7.849  10.958   7.876 -0.4105 -0.0215  0.2863
  489ccc     C413030   7.906  11.052   7.767  0.1236  0.3042  0.0243
  489ccc     C513031   7.820  11.176   7.715 -0.3699  0.4898 -0.1090
  489ccc     H313032   8.000  11.091   7.809  0.3714 -0.6305  0.3672
  489ccc     H413033   7.766  10.901   7.832 -1.4559  1.2739  0.5075
  489ccc     H513034   7.754  11.129   7.640  1.0409 -0.6899 -0.6806
  489ccc     O113035   7.904  11.273   7.654 -0.2043  0.0422 -0.2678
  489ccc     O213036   7.949  10.972   7.659 -0.3546  0.3655  0.1525
  489ccc     O313037   7.957  10.882   7.946  0.0222  0.3182  0.3128
  489ccc     O413038   7.858  11.112   8.060 -0.0762 -0.2647 -0.1508
  489ccc     C613039   7.611  11.235   8.018 -0.1742 -0.3799 -0.1404
  489ccc     H613040   8.028  10.868   7.882 -0.7173  1.6482 -0.8673
  489ccc     H713041   7.908  11.035   8.093 -1.4547 -0.3088  2.0247
  489ccc     H813042   8.007  11.033   7.610  0.1223  1.5163  2.0437
  489ccc     H913043   7.679  11.286   8.088  0.3419 -0.8809 -0.2634
  489ccc    H1013044   7.547  11.165   8.073  0.2640 -0.2190  0.5932
  489ccc     O513045   7.539  11.329   7.945 -0.1517  0.5279 -0.0013
  489ccc    H1113046   7.546  11.286   7.858  1.5286 -2.1520  1.3309
  489ccc     O613047   7.752  11.239   7.819 -0.8084  0.1004 -0.1613
  490ccc     C113048   7.160  13.621   7.935 -0.4669  0.3866 -0.3849
  490ccc     C213049   7.025  13.689   7.907  0.3368  0.0670  0.0041
  490ccc     H113050   7.236  13.696   7.910  0.1027  0.5312  1.5739
  490ccc     H213051   7.010  13.781   7.966  0.7051 -1.8041  3.2409
  490ccc     C313052   7.015  13.720   7.752 -0.2066  0.2208 -0.1073
  490ccc     C413053   7.018  13.583   7.674  0.2996 -0.1996 -0.2126
  490ccc     C513054   7.158  13.518   7.706 -0.1235  0.6294 -0.6839
  490ccc     H313055   6.938  13.516   7.707  0.8874  0.7468  3.6365
  490ccc     H413056   7.086  13.792   7.711  0.5695 -0.2450  0.3960
  490ccc     H513057   7.234  13.578   7.656 -1.5397  1.2776 -2.1571
  490ccc     O113058   7.165  13.389   7.653  0.2735  0.3463 -0.0131
  490ccc     O213059   7.016  13.627   7.535 -0.1563 -0.6324 -0.7866
  490ccc     O313060   6.877  13.764   7.731 -0.4397  0.2453 -0.0758
  490ccc     O413061   6.928  13.597   7.944 -0.2461  0.7570 -0.0874
  490ccc     C613062   7.178  13.579   8.084  0.4883  0.1189  0.2205
  490ccc     H613063   6.879  13.766   7.633 -1.7572  0.2687 -0.1170
  490ccc     H713064   6.979  13.550   8.013  0.8189  1.5499 -0.3023
  490ccc     H813065   7.006  13.542   7.488 -0.1179  0.0509 -2.0829
  490ccc     H913066   7.159  13.666   8.149  0.2915  0.1891  0.0681
  490ccc    H1013067   7.280  13.551   8.114  0.7224  1.0965  0.3912
  490ccc     O513068   7.077  13.476   8.113  0.2443  0.5704 -0.1364
  490ccc    H1113069   7.108  13.429   8.192 -1.8166  1.7123  1.4757
  490ccc     O613070   7.178  13.501   7.853  0.0391  0.5310  0.0167
  491ccc     C113071   7.653  13.838   7.108 -0.0814  0.3795 -0.2377
  491ccc     C213072   7.770  13.907   7.031 -0.1403 -0.1288 -0.4002
  491ccc     H113073   7.668  13.864   7.213 -2.4664 -0.1928  0.3096
  491ccc     H213074   7.778  14.010   7.067 -0.7660 -0.1694 -0.1293
  491ccc     C313075   7.906  13.831   7.058 -0.1563 -0.2525  0.3278
  491ccc     C413076   7.890  13.677   7.049  0.5829  0.4541  0.3852
  491ccc     C513077   7.763  13.628   7.136 -0.3850 -0.1274  0.3707
  491ccc     H313078   7.873  13.649   6.945 -1.1058  0.9320  0.5125
  491ccc     H413079   7.924  13.868   7.160  2.3810 -0.4660  0.0145
  491ccc     H513080   7.784  13.658   7.240  2.6587  1.0663 -0.4841
  491ccc     O113081   7.739  13.484   7.131 -0.6706 -0.6167  0.3439
  491ccc     O213082   8.002  13.608   7.099 -0.5457  0.1885 -0.6320
  491ccc     O313083   8.002  13.878   6.961 -0.0716 -0.1114 -0.0990
  491ccc     O413084   7.736  13.910   6.896  0.0997  0.0318 -0.0820
  491ccc     C613085   7.511  13.906   7.079 -0.7630 -0.7200 -0.1007
  491ccc     H613086   8.068  13.924   7.016  0.0892 -0.3773 -0.0679
  491ccc     H713087   7.793  13.971   6.847 -1.9931  2.1421 -0.0129
  491ccc     H813088   8.067  13.618   7.027  0.5906 -2.5477 -0.1218
  491ccc     H913089   7.463  13.858   6.994 -1.5245 -0.6404  0.2792
  491ccc    H1013090   7.522  14.013   7.053 -3.4267  0.0594  1.6506
  491ccc     O513091   7.438  13.898   7.198  0.3933 -0.1599  0.0447
  491ccc    H1113092   7.380  13.976   7.202 -0.0357 -0.3946 -1.0822
  491ccc     O613093   7.644  13.697   7.090 -0.2935  0.8062 -0.0525
  492ccc     C113094   7.480  12.804   8.456  0.2416  0.1861 -0.6678
  492ccc     C213095   7.535  12.949   8.451 -0.1420 -0.3582  0.4145
  492ccc     H113096   7.552  12.733   8.413 -0.4277 -1.3387  0.6521
  492ccc     H213097   7.636  12.961   8.491 -0.5778 -0.5263  1.6122
  492ccc     C313098   7.540  13.008   8.310 -0.1838 -0.0460 -0.1726
  492ccc     C413099   7.408  12.996   8.233 -0.1520  0.1701  0.0668
  492ccc     C513100   7.342  12.860   8.247  0.4275  0.3061 -0.3561
  492ccc     H313101   7.333  13.062   8.277  0.6752  1.3891 -0.3061
  492ccc     H413102   7.620  12.952   8.259  0.0534 -0.2985  0.4638
  492ccc     H513103   7.379  12.787   8.173 -1.2232 -1.5530  0.5792
  492ccc     O113104   7.202  12.871   8.204 -0.1425  0.6130  0.2575
  492ccc     O213105   7.445  13.022   8.093  0.2265  0.4416  0.5290
  492ccc     O313106   7.579  13.144   8.314 -0.1925 -0.5521 -0.6215
  492ccc     O413107   7.449  13.031   8.523 -0.4089  0.0812  0.1418
  492ccc     C613108   7.463  12.759   8.601 -0.7218  0.3653 -0.8266
  492ccc     H613109   7.676  13.150   8.321 -0.3638  2.1351  1.5492
  492ccc     H713110   7.480  13.119   8.495 -1.0507  0.8374  1.6785
  492ccc     H813111   7.459  13.118   8.086  2.0902  0.0959 -2.0287
  492ccc     H913112   7.386  12.820   8.649  0.0630  0.4957  0.3054
  492ccc    H1013113   7.559  12.789   8.645 -1.6017  1.7977  0.1817
  492ccc     O513114   7.437  12.627   8.606 -0.1995 -0.0154  0.0243
  492ccc    H1113115   7.356  12.624   8.660 -0.6757 -0.4041 -0.6940
  492ccc     O613116   7.355  12.801   8.379 -0.6651  0.2445  0.2833
  493ccc     C113117   6.306  12.524   7.934  0.1318 -0.4521 -0.2673
  493ccc     C213118   6.346  12.493   7.784  0.0914 -0.1053 -0.8695
  493ccc     H113119   6.203  12.560   7.927  0.3918  0.1493 -1.2321
  493ccc     H213120   6.287  12.406   7.755  1.1986 -1.5241  0.9300
  493ccc     C313121   6.333  12.620   7.695  0.7187  1.0439 -0.4493
  493ccc     C413122   6.418  12.742   7.746 -0.3050  0.0167 -0.7006
  493ccc     C513123   6.380  12.747   7.900  0.3132 -0.2736  0.4959
  493ccc     H313124   6.526  12.722   7.747 -0.3412 -0.8948  3.1982
  493ccc     H413125   6.229  12.647   7.715  0.0150 -0.8450 -1.3652
  493ccc     H513126   6.281  12.792   7.907  0.5264 -0.0355  2.7617
  493ccc     O113127   6.472  12.838   7.955 -0.1386  0.0449 -0.1859
  493ccc     O213128   6.371  12.859   7.688 -0.1511 -0.5847  0.6650
  493ccc     O313129   6.357  12.594   7.555  0.3611 -0.0167  0.2321
  493ccc     O413130   6.488  12.453   7.784  0.0228  0.7279 -0.0865
  493ccc     C613131   6.312  12.404   8.021 -0.4896 -0.4712 -0.0649
  493ccc     H613132   6.323  12.673   7.511  0.6727 -0.0554 -0.0826
  493ccc     H713133   6.498  12.399   7.865  2.2431 -1.1452 -1.5080
  493ccc     H813134   6.438  12.927   7.706 -1.3264  0.2895  1.9899
  493ccc     H913135   6.246  12.330   7.975 -0.6177 -1.2657  1.3382
  493ccc    H1013136   6.286  12.419   8.127 -0.4152 -0.5885 -0.0299
  493ccc     O513137   6.453  12.362   8.029  0.0867 -0.1670 -0.5929
  493ccc    H1113138   6.452  12.282   8.084  0.1008  1.1542  1.4562
  493ccc     O613139   6.384  12.631   7.981  0.0192  0.0680  1.0779
  494ccc     C113140   7.108  14.281   4.548  0.2219 -0.2294 -0.0852
  494ccc     C213141   7.036  14.150   4.492  0.1221 -0.1346 -0.2233
  494ccc     H113142   7.164  14.332   4.469  0.8064 -0.7417 -0.0070
  494ccc     H213143   6.956  14.178   4.422 -1.0424  0.2250  1.1915
  494ccc     C313144   7.130  14.040   4.440 -0.0456 -0.1409 -0.1377
  494ccc     C413145   7.236  14.000   4.551  0.3300  0.7996  0.2639
  494ccc     C513146   7.297  14.134   4.603 -0.3612 -0.2732 -0.4928
  494ccc     H313147   7.180  13.958   4.635  1.1602 -0.6397  0.1279
  494ccc     H413148   7.190  14.085   4.361  0.8428  0.5534  0.9044
  494ccc     H513149   7.359  14.181   4.526 -2.0005  1.1718 -0.9891
  494ccc     O113150   7.386  14.106   4.713  0.4572  0.0167  1.0062
  494ccc     O213151   7.332  13.895   4.514 -0.1169  0.5252  0.6973
  494ccc     O313152   7.061  13.923   4.390 -0.1799 -0.1791 -0.6094
  494ccc     O413153   6.971  14.092   4.605 -0.3702  0.2878 -0.0389
  494ccc     C613154   7.014  14.383   4.609  0.1075 -0.2809 -0.0166
  494ccc     H613155   6.984  13.949   4.336  0.3126  0.4875 -1.0088
  494ccc     H713156   6.885  14.057   4.577  0.1153 -1.1506  0.1811
  494ccc     H813157   7.275  13.817   4.501  1.1800 -0.3371 -0.0335
  494ccc     H913158   6.961  14.339   4.694  1.0525 -0.9727  0.2266
  494ccc    H1013159   6.933  14.407   4.540 -2.2782 -2.7149  1.7154
  494ccc     O513160   7.091  14.502   4.647  0.3475 -0.0057 -0.1711
  494ccc    H1113161   7.022  14.570   4.661  1.3445  0.5215  2.9709
  494ccc     O613162   7.195  14.230   4.646 -0.8475  0.5245 -0.1935
  495ccc     C113163   7.518  14.260   5.638  0.2803  0.0020 -0.3883
  495ccc     C213164   7.422  14.164   5.710  0.7044  0.1787 -0.0445
  495ccc     H113165   7.540  14.345   5.704 -1.2484  0.7949 -0.8450
  495ccc     H213166   7.465  14.141   5.808  1.1399  0.0142 -0.2686
  495ccc     C313167   7.288  14.237   5.731 -0.0977  0.7180  0.0506
  495ccc     C413168   7.232  14.300   5.599  0.5110  0.2922 -0.1459
  495ccc     C513169   7.337  14.388   5.534  0.4904 -0.6504  0.5583
  495ccc     H313170   7.209  14.223   5.524  1.7376  0.6626 -0.9268
  495ccc     H413171   7.301  14.317   5.805 -1.3935 -0.8605  2.0892
  495ccc     H513172   7.353  14.477   5.596 -2.2260  1.5953 -1.6487
  495ccc     O113173   7.294  14.434   5.403 -0.1540 -0.0259  0.3822
  495ccc     O213174   7.117  14.383   5.627  0.5177 -0.1522  0.0019
  495ccc     O313175   7.195  14.143   5.788  0.8051 -0.1932  0.8924
  495ccc     O413176   7.405  14.054   5.629  0.0605  0.1938  0.1053
  495ccc     C613177   7.652  14.198   5.610  0.0195  0.2042  0.1905
  495ccc     H613178   7.156  14.184   5.867 -1.5880  0.5194 -0.5403
  495ccc     H713179   7.350  13.990   5.679  0.2832 -0.3111 -0.2878
  495ccc     H813180   7.068  14.339   5.698  0.2804  1.1803  0.6929
  495ccc     H913181   7.642  14.112   5.543  2.4322 -0.7355  0.8911
  495ccc    H1013182   7.694  14.161   5.705  1.8920  0.9411 -0.2930
  495ccc     O513183   7.733  14.302   5.554  0.7556 -0.5143 -0.0815
  495ccc    H1113184   7.689  14.305   5.467  1.3701  0.0381 -0.3790
  495ccc     O613185   7.455  14.310   5.517  0.3827  0.2476  0.5873
  496ccc     C113186   6.441  13.904   4.953  0.2264 -0.4576 -0.9709
  496ccc     C213187   6.413  14.058   4.965 -0.2053 -0.4822  0.4347
  496ccc     H113188   6.419  13.868   5.054  0.5468 -2.4377 -1.5696
  496ccc     H213189   6.309  14.077   4.995 -0.9950 -0.0060 -2.2868
  496ccc     C313190   6.508  14.133   5.065 -0.0005  0.0422  0.0546
  496ccc     C413191   6.656  14.087   5.041 -0.5452 -0.4046 -0.0072
  496ccc     C513192   6.671  13.931   5.047  0.0508 -0.4523  1.0268
  496ccc     H313193   6.686  14.116   4.939 -0.6038  1.4651  0.4717
  496ccc     H413194   6.484  14.105   5.168 -2.6648  2.1435  0.1141
  496ccc     H513195   6.658  13.893   5.149 -3.1629  0.1776  0.9398
  496ccc     O113196   6.802  13.904   5.005 -0.2234 -0.4636 -0.5157
  496ccc     O213197   6.747  14.144   5.135  0.7188  0.6042  0.0873
  496ccc     O313198   6.492  14.271   5.052  0.0645 -0.2593 -0.3029
  496ccc     O413199   6.435  14.106   4.840 -0.4103  0.0517 -0.2240
  496ccc     C613200   6.362  13.843   4.830 -0.4726 -0.6444  0.6687
  496ccc     H613201   6.573  14.304   5.009 -0.7166 -1.2150 -2.6651
  496ccc     H713202   6.397  14.194   4.859 -1.7277 -0.8089  1.3974
  496ccc     H813203   6.774  14.232   5.101  0.5304  0.6572  0.0709
  496ccc     H913204   6.417  13.867   4.738  1.0770 -1.5360  1.3352
  496ccc    H1013205   6.271  13.901   4.809  0.6776  0.9341 -0.1791
  496ccc     O513206   6.356  13.705   4.841  0.3202  0.6538 -0.1057
  496ccc    H1113207   6.329  13.688   4.932 -1.7773  4.0147  0.0960
  496ccc     O613208   6.581  13.880   4.939 -0.0738  0.1512 -0.7866
  497ccc     C113209   6.835  14.510   5.085  0.1245 -0.1299 -0.1504
  497ccc     C213210   6.921  14.642   5.112  0.7478 -0.0780  0.9335
  497ccc     H113211   6.732  14.522   5.121 -0.7703  0.9991 -2.8080
  497ccc     H213212   6.874  14.729   5.066  0.8570 -1.0461 -1.1230
  497ccc     C313213   6.937  14.654   5.271 -0.5633 -0.7185  0.4791
  497ccc     C413214   6.980  14.520   5.339  0.0009  0.0670 -0.1600
  497ccc     C513215   6.903  14.397   5.296 -0.0663 -1.5312 -0.0101
  497ccc     H313216   7.084  14.511   5.305  0.4480  3.7927 -0.1375
  497ccc     H413217   6.839  14.691   5.301 -0.6084 -0.5222  0.0926
  497ccc     H513218   6.801  14.403   5.333  0.7794  0.6009  2.2058
  497ccc     O113219   6.979  14.276   5.337 -0.0284 -0.1036 -0.2137
  497ccc     O213220   6.973  14.538   5.483  0.9140 -0.4249 -0.0524
  497ccc     O313221   7.033  14.761   5.306  0.0339  0.6544  0.3644
  497ccc     O413222   7.037  14.630   5.040 -0.0307  0.1669 -0.5702
  497ccc     C613223   6.816  14.474   4.939  0.6568  0.5114  0.1509
  497ccc     H613224   7.043  14.764   5.403 -1.5269  1.6550  0.5314
  497ccc     H713225   7.064  14.722   5.021 -0.4830  0.4792  0.2315
  497ccc     H813226   7.034  14.479   5.531 -0.5410 -1.2508  0.8616
  497ccc     H913227   6.911  14.434   4.901 -0.1555 -0.0816 -1.3897
  497ccc    H1013228   6.786  14.560   4.878 -1.3363  0.5511  1.1060
  497ccc     O513229   6.714  14.369   4.922  0.1994 -0.6152  0.5871
  497ccc    H1113230   6.688  14.396   4.832  2.1906 -1.7770 -0.4034
  497ccc     O613231   6.896  14.396   5.149  0.1161 -0.0380 -0.3158
  498ccc     C113232   7.617  13.757   3.863 -0.6363 -0.5810  0.1915
  498ccc     C213233   7.583  13.789   4.014 -0.4313  0.1942  0.4415
  498ccc     H113234   7.557  13.828   3.806 -0.0109  2.1388  2.6869
  498ccc     H213235   7.602  13.896   4.026 -0.6118  0.3282 -0.4405
  498ccc     C313236   7.437  13.760   4.051  0.4644 -0.1886 -0.1667
  498ccc     C413237   7.378  13.627   3.999  0.3884 -0.0879  0.2249
  498ccc     C513238   7.425  13.603   3.852  0.7761 -0.1918  0.3415
  498ccc     H313239   7.424  13.541   4.049  1.3741 -0.0524 -0.5711
  498ccc     H413240   7.373  13.832   4.000 -0.0662  1.6341  2.8697
  498ccc     H513241   7.377  13.662   3.773  0.0106 -1.3730 -0.1042
  498ccc     O113242   7.394  13.466   3.819 -0.3398  0.5843  0.0722
  498ccc     O213243   7.230  13.629   4.003  0.1748  0.0364 -0.1456
  498ccc     O313244   7.423  13.775   4.191  0.2223  0.4797  0.1491
  498ccc     O413245   7.671  13.711   4.091 -0.0227 -0.4343 -0.4106
  498ccc     C613246   7.764  13.773   3.817  0.5097 -0.0959  0.0133
  498ccc     H613247   7.333  13.755   4.224  1.7264 -1.1090  3.8258
  498ccc     H713248   7.713  13.770   4.156  2.0272 -3.1365  0.9879
  498ccc     H813249   7.212  13.643   4.097 -0.4595 -0.6516 -0.1604
  498ccc     H913250   7.818  13.685   3.855  1.6478  0.5198 -0.1266
  498ccc    H1013251   7.806  13.869   3.850  2.3838 -0.8806  0.0290
  498ccc     O513252   7.774  13.779   3.675 -0.1673  0.7636 -0.5877
  498ccc    H1113253   7.748  13.688   3.652 -2.4435  0.6799  1.8877
  498ccc     O613254   7.567  13.625   3.835 -0.2150 -0.1391  0.7661
  499ccc     C113255   7.937  12.875   2.974 -0.2504 -0.0793  0.2830
  499ccc     C213256   8.094  12.856   2.970  0.0406  0.3896 -0.0379
  499ccc     H113257   7.909  12.962   2.914  1.5575  0.5635  0.3090
  499ccc     H213258   8.123  12.848   2.864  0.0023 -0.9981  0.0490
  499ccc     C313259   8.154  12.978   3.039 -0.9141  0.5012  0.2074
  499ccc     C413260   8.089  12.992   3.181  0.1218 -0.2460  0.8147
  499ccc     C513261   7.931  13.003   3.175 -0.6740 -0.2465  0.1793
  499ccc     H313262   8.114  12.901   3.237  0.3844  0.2525  1.5309
  499ccc     H413263   8.139  13.068   2.978 -1.4696 -0.2082 -0.7398
  499ccc     H513264   7.900  13.097   3.127  1.0440  0.4440  0.3671
  499ccc     O113265   7.859  12.998   3.309  0.1413  0.0323 -0.4511
  499ccc     O213266   8.146  13.103   3.248  0.5227  0.5579 -0.5362
  499ccc     O313267   8.297  12.960   3.059 -0.2179  0.3311 -0.6636
  499ccc     O413268   8.122  12.732   3.041  0.6538 -0.1126 -0.4517
  499ccc     C613269   7.856  12.763   2.911 -0.6921  0.5871  0.1817
  499ccc     H613270   8.317  13.022   3.132 -0.2806  1.1650 -1.3346
  499ccc     H713271   8.218  12.729   3.052  0.4719 -0.1859  1.6245
  499ccc     H813272   8.095  13.110   3.331 -1.2320 -1.4174 -1.3567
  499ccc     H913273   7.871  12.765   2.802 -1.8144 -1.1809 -0.0397
  499ccc    H1013274   7.748  12.782   2.922 -0.2745  1.4453  4.7790
  499ccc     O513275   7.896  12.639   2.961 -0.1770 -0.4920 -0.1835
  499ccc    H1113276   7.983  12.656   3.001 -0.4679 -0.8129  0.6226
  499ccc     O613277   7.888  12.889   3.107  0.2514 -0.1204 -0.2018
  500ccc     C113278   6.513  13.678   4.522 -0.3667 -0.5140  0.5477
  500ccc     C213279   6.562  13.825   4.516  1.2264  0.8158 -0.1541
  500ccc     H113280   6.501  13.649   4.627  0.6530  0.8870  1.0699
  500ccc     H213281   6.486  13.890   4.560 -1.6295 -2.5164  0.2593
  500ccc     C313282   6.706  13.845   4.571 -0.2218  0.2261 -0.2288
  500ccc     C413283   6.811  13.740   4.518  0.1480 -0.7214 -0.6115
  500ccc     C513284   6.750  13.593   4.499 -0.4878  0.9502 -0.0971
  500ccc     H313285   6.839  13.780   4.420 -0.7181 -0.4176 -0.7476
  500ccc     H413286   6.695  13.830   4.679 -0.6145  3.0858  0.1926
  500ccc     H513287   6.759  13.542   4.596  2.4445  1.9270  0.2481
  500ccc     O113288   6.840  13.515   4.412 -0.1782  1.3511  0.1998
  500ccc     O213289   6.914  13.752   4.617  0.2035  0.1886 -0.0758
  500ccc     O313290   6.751  13.983   4.561 -0.3031  0.1401 -0.1681
  500ccc     O413291   6.560  13.850   4.375 -0.2708 -0.0489 -0.2831
  500ccc     C613292   6.372  13.653   4.461 -0.1195  0.1076 -0.2242
  500ccc     H613293   6.675  14.033   4.526 -1.6537 -1.9990 -0.4943
  500ccc     H713294   6.482  13.799   4.347 -3.0339  2.1480  2.6882
  500ccc     H813295   6.923  13.848   4.615  1.3626  0.0822 -0.6714
  500ccc     H913296   6.303  13.714   4.521  2.6447  4.2781 -0.8237
  500ccc    H1013297   6.336  13.550   4.464 -0.5420  0.2467 -0.4466
  500ccc     O513298   6.350  13.698   4.327  0.3382 -0.1903  0.0171
  500ccc    H1113299   6.253  13.693   4.329  0.3304  0.1171  0.6606
  500ccc     O613300   6.609  13.590   4.456  0.0576 -0.2310 -0.0040
  501ccc     C113301   7.239  13.331   4.496 -0.1925 -0.6146 -0.8941
  501ccc     C213302   7.195  13.459   4.574  0.3373  0.4319  0.1464
  501ccc     H113303   7.348  13.331   4.491 -0.0055  1.8703  1.3328
  501ccc     H213304   7.250  13.476   4.667  0.7611  0.0620 -0.0346
  501ccc     C313305   7.221  13.587   4.489 -0.2214 -0.1682  0.1368
  501ccc     C413306   7.167  13.574   4.351  0.8850 -0.4480  0.2646
  501ccc     C513307   7.212  13.443   4.284  0.0528 -0.3540 -0.4717
  501ccc     H313308   7.060  13.555   4.359  0.3351 -0.0177 -3.7881
  501ccc     H413309   7.330  13.596   4.483 -0.2208 -0.9886 -3.1341
  501ccc     H513310   7.321  13.445   4.283  0.1425  0.0840  2.1189
  501ccc     O113311   7.141  13.419   4.160  0.1682 -0.2632 -0.1272
  501ccc     O213312   7.194  13.694   4.270  0.0880 -0.1122 -0.3934
  501ccc     O313313   7.169  13.691   4.566  0.3416  0.1390  0.0260
  501ccc     O413314   7.058  13.455   4.610 -0.2073 -0.4527  0.4936
  501ccc     C613315   7.195  13.201   4.573 -0.8187 -0.5484 -0.6082
  501ccc     H613316   7.082  13.667   4.602  1.0473 -1.2017  0.9521
  501ccc     H713317   7.042  13.359   4.612  0.3433 -0.5925 -0.5498
  501ccc     H813318   7.131  13.761   4.301 -0.0410 -0.6295  0.5040
  501ccc     H913319   7.259  13.199   4.662 -0.9732  2.9833 -0.2439
  501ccc    H1013320   7.220  13.127   4.497 -2.3536  0.2407 -1.9441
  501ccc     O513321   7.065  13.204   4.617 -0.6860 -0.4200  0.4951
  501ccc    H1113322   7.054  13.129   4.677  0.0386 -1.1897 -0.3001
  501ccc     O613323   7.176  13.329   4.372  0.2120  0.2140 -0.0392
  502ccc     C113324   5.765  13.489   6.854  0.0371 -0.4048  0.2398
  502ccc     C213325   5.721  13.529   6.991  0.6400 -0.4029 -0.8923
  502ccc     H113326   5.702  13.524   6.771  2.3410  2.0672 -0.6441
  502ccc     H213327   5.717  13.639   6.993 -1.5154 -0.4372  0.3033
  502ccc     C313328   5.574  13.464   7.031 -0.0527 -0.9474  0.8551
  502ccc     C413329   5.571  13.319   6.999  1.3701 -0.1793  0.5249
  502ccc     C513330   5.648  13.273   6.869 -0.0328  0.1555  0.5146
  502ccc     H313331   5.626  13.276   7.084 -0.0288  0.6752  1.9096
  502ccc     H413332   5.493  13.509   6.973  0.6000 -0.0170  0.6347
  502ccc     H513333   5.581  13.284   6.783  1.6889 -1.5619 -1.1396
  502ccc     O113334   5.679  13.133   6.879 -0.0489  0.5292 -0.8212
  502ccc     O213335   5.436  13.266   6.997 -0.0800 -0.7180  0.0758
  502ccc     O313336   5.546  13.481   7.169 -0.3197 -0.1874  0.0147
  502ccc     O413337   5.813  13.478   7.082 -0.0478 -0.1477  0.0812
  502ccc     C613338   5.902  13.560   6.828  0.6623  0.0547 -0.0689
  502ccc     H613339   5.568  13.572   7.197  1.8737 -0.7405  0.2085
  502ccc     H713340   5.789  13.513   7.169  0.1779 -1.2093  0.5899
  502ccc     H813341   5.409  13.284   7.088  0.7208  1.1326 -0.0205
  502ccc     H913342   5.978  13.508   6.887 -0.2837 -2.4002 -0.8805
  502ccc    H1013343   5.898  13.668   6.848 -1.9200  0.8443 -3.6962
  502ccc     O513344   5.936  13.540   6.692  0.6955 -0.5065  0.3785
  502ccc    H1113345   5.866  13.490   6.646  2.1026  0.2678 -2.9299
  502ccc     O613346   5.773  13.346   6.847  0.2173  0.4727 -0.1743
  503ccc     C113347   6.608  12.812   7.323 -0.4770 -0.9967  0.8408
  503ccc     C213348   6.699  12.698   7.270  0.4434  0.2968  0.0673
  503ccc     H113349   6.544  12.780   7.406 -0.4858 -0.4541  1.0502
  503ccc     H213350   6.756  12.650   7.351 -0.9753  0.0466  0.9481
  503ccc     C313351   6.610  12.586   7.207  0.4669 -0.0519  0.7705
  503ccc     C413352   6.511  12.643   7.106  0.4282 -0.4231  0.7850
  503ccc     C513353   6.437  12.771   7.149 -0.0487  0.2761 -0.3162
  503ccc     H313354   6.569  12.667   7.015 -2.9505  1.1165 -1.1593
  503ccc     H413355   6.552  12.555   7.295  1.7816  3.0102  2.8734
  503ccc     H513356   6.366  12.742   7.227 -0.2213  0.1706 -0.5123
  503ccc     O113357   6.368  12.840   7.034  0.4075  0.1495 -0.4004
  503ccc     O213358   6.414  12.541   7.060 -0.5445  0.0003 -0.2696
  503ccc     O313359   6.681  12.473   7.150  0.2188 -0.1992  0.2314
  503ccc     O413360   6.782  12.757   7.171 -0.7534 -0.3009 -0.8516
  503ccc     C613361   6.679  12.931   7.386  0.3390  0.0550  0.0751
  503ccc     H613362   6.731  12.518   7.080 -2.7551 -0.6034 -2.3484
  503ccc     H713363   6.780  12.845   7.212  0.2802 -1.1500  1.1730
  503ccc     H813364   6.381  12.507   7.145  3.8201 -2.1451  0.8317
  503ccc     H913365   6.742  12.901   7.471  2.3960  0.5101 -1.1969
  503ccc    H1013366   6.609  13.003   7.429 -0.1620 -0.2037 -0.3049
  503ccc     O513367   6.769  12.991   7.293 -0.1775 -0.0371  0.3593
  503ccc    H1113368   6.828  13.053   7.338 -2.0314  1.2604  1.1313
  503ccc     O613369   6.528  12.862   7.209  0.2446 -0.2423 -0.1293
  504ccc     C113370   6.456  12.052   7.273 -0.1355 -1.1997  0.5663
  504ccc     C213371   6.402  12.111   7.406 -0.8973 -0.0464 -0.0824
  504ccc     H113372   6.560  12.087   7.267  0.1638 -1.0699  4.0454
  504ccc     H213373   6.468  12.072   7.484  0.5065 -0.0705 -1.2533
  504ccc     C313374   6.406  12.266   7.400 -0.4452 -0.9527  0.5458
  504ccc     C413375   6.317  12.311   7.287 -0.3742  0.6616 -0.8530
  504ccc     C513376   6.372  12.256   7.154  0.6018  0.1987 -0.4294
  504ccc     H313377   6.213  12.275   7.295 -0.1365 -0.3954 -2.3011
  504ccc     H413378   6.508  12.284   7.366 -0.6011  0.1379  0.5857
  504ccc     H513379   6.472  12.292   7.126  1.1965 -0.2203  1.0798
  504ccc     O113380   6.280  12.281   7.045 -0.3745 -0.1125  0.7689
  504ccc     O213381   6.306  12.456   7.287 -0.1744  0.0948 -0.3466
  504ccc     O313382   6.372  12.324   7.525  0.2076 -0.2274  0.0828
  504ccc     O413383   6.269  12.055   7.417 -0.0068 -0.2168  0.4939
  504ccc     C613384   6.454  11.905   7.277 -0.2391  0.8091 -0.4698
  504ccc     H613385   6.379  12.421   7.529 -3.0963  0.0787  2.4351
  504ccc     H713386   6.235  12.101   7.496  2.9575 -0.8501  2.2668
  504ccc     H813387   6.229  12.475   7.345  0.1519 -1.3775  0.6366
  504ccc     H913388   6.350  11.875   7.297 -0.5787  0.2140 -2.7860
  504ccc    H1013389   6.518  11.879   7.362  0.8336 -1.2049 -1.8065
  504ccc     O513390   6.511  11.843   7.157  0.4642  0.0329  0.7161
  504ccc    H1113391   6.592  11.892   7.135 -0.6572  1.1515 -1.2133
  504ccc     O613392   6.377  12.112   7.166  0.0891 -0.2030  0.2699
  505ccc     C113393   5.945  13.089   7.313  0.5146  0.4477 -0.1912
  505ccc     C213394   6.075  13.151   7.377  0.3807 -0.1985 -0.2165
  505ccc     H113395   5.882  13.061   7.399 -1.3074  0.3171 -1.5221
  505ccc     H213396   6.053  13.228   7.452  0.8477  0.3884 -0.6675
  505ccc     C313397   6.155  13.039   7.453 -0.2176 -0.0500  0.5338
  505ccc     C413398   6.181  12.919   7.371  0.1975  0.2854 -0.0875
  505ccc     C513399   6.047  12.863   7.312 -0.4496  0.2951 -0.3202
  505ccc     H313400   6.240  12.929   7.279 -3.1156 -1.7025 -2.6670
  505ccc     H413401   6.084  13.015   7.533 -1.8636  2.5147 -0.0448
  505ccc     H513402   5.977  12.827   7.389 -1.9681  3.1807 -0.2050
  505ccc     O113403   6.084  12.765   7.217  0.4838  0.1567 -0.4746
  505ccc     O213404   6.237  12.819   7.454 -0.1013  0.6644 -0.2463
  505ccc     O313405   6.279  13.089   7.513  0.1658  0.0458  0.2975
  505ccc     O413406   6.142  13.197   7.261  0.3838 -0.8987 -0.7796
  505ccc     C613407   5.858  13.188   7.235 -0.3887 -0.1125  0.2545
  505ccc     H613408   6.252  13.159   7.576  1.5303 -0.6081  1.6851
  505ccc     H713409   6.067  13.214   7.201 -0.7888  0.9160  1.1066
  505ccc     H813410   6.276  12.868   7.528  0.2161  1.8954 -1.2022
  505ccc     H913411   5.818  13.265   7.302 -1.9287 -0.7604  0.1131
  505ccc    H1013412   5.766  13.140   7.200 -0.6007  0.8606 -0.5739
  505ccc     O513413   5.923  13.236   7.116 -0.3588  0.5869 -0.2408
  505ccc    H1113414   5.877  13.318   7.090  0.5824  1.2376  0.1194
  505ccc     O613415   5.976  12.967   7.239  0.5998 -0.0251  0.2319
  506ccc     C113416   5.081  13.976   5.117  0.4967 -0.4452 -0.5865
  506ccc     C213417   5.026  13.880   5.010  0.4067 -0.4449  0.3007
  506ccc     H113418   5.056  14.079   5.089  0.9860 -0.0213  0.5031
  506ccc     H213419   4.918  13.892   4.993  0.2268 -1.2238  0.8743
  506ccc     C313420   5.091  13.917   4.871 -0.0855 -0.5795  0.1600
  506ccc     C413421   5.240  13.916   4.888  0.3900  0.3556 -0.4541
  506ccc     C513422   5.293  14.001   5.011 -0.4858 -0.6608 -0.2892
  506ccc     H313423   5.265  13.812   4.911  1.6487  0.9354  1.0394
  506ccc     H413424   5.058  14.020   4.851  0.5115 -0.0415  1.7206
  506ccc     H513425   5.280  14.109   4.992  1.2784 -0.8428 -3.2451
  506ccc     O113426   5.430  13.966   5.031  0.4160  0.7761 -0.1672
  506ccc     O213427   5.303  13.955   4.765  0.3935  0.0597 -0.3049
  506ccc     O313428   5.046  13.827   4.767  0.3885  0.3277  0.4136
  506ccc     O413429   5.063  13.756   5.051 -0.1611  0.3024 -0.1727
  506ccc     C613430   5.018  13.964   5.261 -0.7933 -0.4930  0.3076
  506ccc     H613431   5.071  13.738   4.797  0.0662  0.2638  0.4971
  506ccc     H713432   5.052  13.769   5.147  0.7185  2.0742 -0.2643
  506ccc     H813433   5.251  14.031   4.732 -0.4241 -1.2416 -2.1839
  506ccc     H913434   4.914  13.996   5.246 -0.7245 -0.2860  0.2761
  506ccc    H1013435   5.064  14.024   5.340  0.8424 -3.3105  1.6583
  506ccc     O513436   5.014  13.823   5.299 -0.1049 -0.4480  0.1816
  506ccc    H1113437   5.043  13.834   5.392 -2.4020  1.8695  0.7431
  506ccc     O613438   5.219  13.969   5.129 -0.5830  0.7316  0.1873
  507ccc     C113439   5.020  13.389   5.290 -0.2051  0.1145 -0.0467
  507ccc     C213440   5.036  13.277   5.181 -0.5749 -0.0068  0.4673
  507ccc     H113441   4.956  13.459   5.234  0.7544  0.8661 -0.2415
  507ccc     H213442   4.939  13.229   5.167  0.3358 -1.5025 -1.0825
  507ccc     C313443   5.101  13.345   5.059 -0.8807 -0.0375 -0.4402
  507ccc     C413444   5.243  13.404   5.107 -0.0777  0.2115 -1.2377
  507ccc     C513445   5.227  13.508   5.227  0.0136  0.2209  0.4436
  507ccc     H313446   5.307  13.322   5.142  0.2308  0.3518 -1.4589
  507ccc     H413447   5.034  13.428   5.037 -1.0716  0.3925  1.5857
  507ccc     H513448   5.166  13.597   5.208 -0.9121 -0.4924 -0.0381
  507ccc     O113449   5.359  13.552   5.268  0.4217  0.1473  0.0669
  507ccc     O213450   5.298  13.466   4.992  0.3860 -0.2766  0.1099
  507ccc     O313451   5.117  13.249   4.949 -0.2169  0.5408  0.1610
  507ccc     O413452   5.121  13.181   5.238 -0.4917  0.6080  0.3404
  507ccc     C613453   4.938  13.350   5.420  0.3958  0.1300 -0.3023
  507ccc     H613454   5.185  13.182   4.966 -1.5360 -2.1310 -3.7039
  507ccc     H713455   5.094  13.183   5.332  0.9883 -1.6743  0.8970
  507ccc     H813456   5.317  13.400   4.923  0.6157  1.8348 -2.0222
  507ccc     H913457   4.838  13.314   5.392  0.5172 -1.0560  0.6979
  507ccc    H1013458   4.938  13.436   5.489 -2.6857  0.7452 -0.8849
  507ccc     O513459   4.998  13.235   5.479  0.5754  0.0207  0.0570
  507ccc    H1113460   5.023  13.250   5.572 -1.3827 -2.5161  1.1261
  507ccc     O613461   5.154  13.444   5.333  0.1830  0.0295  0.1555
  508ccc     C113462   6.503  13.630   6.842  0.3267 -0.0057 -0.8713
  508ccc     C213463   6.393  13.684   6.922 -0.0912 -0.1353  0.2412
  508ccc     H113464   6.572  13.713   6.824 -0.0059  0.6551  0.7360
  508ccc     H213465   6.438  13.725   7.014  0.7669 -4.2162  1.8474
  508ccc     C313466   6.305  13.802   6.847 -0.8304  0.1909 -0.4196
  508ccc     C413467   6.262  13.749   6.710  0.0960  0.1918  0.6232
  508ccc     C513468   6.386  13.684   6.635  0.8262  0.1057 -0.2880
  508ccc     H313469   6.186  13.670   6.718  0.9999 -0.9896 -1.5712
  508ccc     H413470   6.373  13.885   6.824 -0.8526  0.4169  0.2911
  508ccc     H513471   6.454  13.763   6.599 -0.8855  1.4463 -0.7349
  508ccc     O113472   6.340  13.605   6.514 -0.5192 -0.0115 -0.6352
  508ccc     O213473   6.206  13.864   6.638 -0.4559 -0.1525 -0.0964
  508ccc     O313474   6.201  13.857   6.936 -0.2524 -0.2874 -0.0890
  508ccc     O413475   6.315  13.572   6.956 -0.0893  0.3513  0.4761
  508ccc     C613476   6.579  13.513   6.913  0.5126 -0.5260  0.3456
  508ccc     H613477   6.222  13.945   6.971  0.1714  0.0022 -1.0300
  508ccc     H713478   6.242  13.594   7.017 -1.3517  0.3072 -0.9666
  508ccc     H813479   6.122  13.835   6.599 -1.3036 -0.0115  1.5345
  508ccc     H913480   6.536  13.417   6.882  0.3061 -0.3879  0.2003
  508ccc    H1013481   6.571  13.519   7.023 -0.4680  3.1967  0.2038
  508ccc     O513482   6.718  13.517   6.870  0.8112 -0.0162  0.3876
  508ccc    H1113483   6.710  13.514   6.773  0.1239  0.4959  0.4135
  508ccc     O613484   6.447  13.583   6.718  0.0237  0.6056 -0.5708
  509ccc     C113485   6.753  14.367   5.897 -0.9600  0.2544  0.3724
  509ccc     C213486   6.905  14.377   5.883 -0.3772 -0.3293 -0.2841
  509ccc     H113487   6.736  14.439   5.978  0.9908 -0.2321  1.2817
  509ccc     H213488   6.942  14.475   5.850 -3.4394  0.7637 -0.7925
  509ccc     C313489   6.974  14.319   6.015  0.3616 -0.4248 -0.2657
  509ccc     C413490   6.927  14.173   6.049  0.4618  0.4777 -0.5577
  509ccc     C513491   6.764  14.173   6.054  0.3372  0.1416 -0.2661
  509ccc     H313492   6.954  14.107   5.966 -0.9404 -1.1432  0.2102
  509ccc     H413493   6.939  14.385   6.096 -1.7509  0.4374 -1.8036
  509ccc     H513494   6.719  14.233   6.134 -1.8270 -1.2445 -0.3838
  509ccc     O113495   6.724  14.037   6.067  0.1280 -0.3882 -0.0707
  509ccc     O213496   6.985  14.123   6.172  0.1074  0.3054 -0.4910
  509ccc     O313497   7.122  14.309   5.997  0.1535  0.6496  0.0412
  509ccc     O413498   6.939  14.288   5.783 -0.0796 -0.0435  0.3864
  509ccc     C613499   6.674  14.415   5.774  0.0438 -0.1689 -0.2377
  509ccc     H613500   7.157  14.399   6.004  0.8511  0.2935  1.6032
  509ccc     H713501   6.859  14.304   5.730 -0.0272  0.3371  0.4225
  509ccc     H813502   7.081  14.118   6.158  0.3020 -0.2197  0.9106
  509ccc     H913503   6.683  14.524   5.784 -0.9406 -0.2060  1.2183
  509ccc    H1013504   6.569  14.388   5.789  0.2225 -0.0248  1.4621
  509ccc     O513505   6.726  14.344   5.664 -0.4880  0.0935  0.4234
  509ccc    H1113506   6.650  14.336   5.604  0.7297 -0.4658 -1.1388
  509ccc     O613507   6.716  14.232   5.926 -0.0473 -0.0495 -0.0598
  510SOL     OW13508   1.308   9.900   8.737 -0.3268  0.4376  0.5576
  510SOL    HW113509   1.288   9.985   8.696 -0.4504  0.5038  0.7514
  510SOL    HW213510   1.304   9.837   8.665 -2.2415  0.2941  0.7448
  511SOL     OW13511   4.196   7.011  11.768  0.1962  0.0656  0.3199
  511SOL    HW113512   4.235   6.999  11.681 -1.3473  3.9207 -1.1369
  511SOL    HW213513   4.116   7.060  11.752 -0.7240  0.0251  3.8878
  512SOL     OW13514  10.210  11.053   8.807 -0.1881  0.0780  0.2368
  512SOL    HW113515  10.201  11.056   8.903  0.7480  1.0864  0.3073
  512SOL    HW213516  10.247  11.138   8.784  0.3117 -0.4465 -0.9524
  513SOL     OW13517  11.462   4.803   1.102  0.4608  0.4047 -0.2849
  513SOL    HW113518  11.492   4.894   1.104 -0.6644  0.8671 -2.0673
  513SOL    HW213519  11.498   4.767   1.021 -2.2438  0.4807 -1.6176
  514SOL     OW13520  10.772   2.608   9.754  0.0775 -0.2165 -0.1464
  514SOL    HW113521  10.681   2.638   9.753  0.6111  1.4639 -1.1862
  514SOL    HW213522  10.780   2.555   9.674  0.0883 -0.1727 -0.1738
  515SOL     OW13523  11.381   3.521   7.691  0.6673 -0.0948  0.2112
  515SOL    HW113524  11.407   3.457   7.624  0.7417  1.6556 -1.5217
  515SOL    HW213525  11.445   3.509   7.761  0.6523 -1.9158 -0.0443
  516SOL     OW13526  11.245   4.432   9.571  0.2990  0.0671 -0.2946
  516SOL    HW113527  11.218   4.506   9.626  0.5449  1.2769 -1.7263
  516SOL    HW213528  11.168   4.375   9.569 -0.5976  1.2330 -0.6580
  517SOL     OW13529   5.890   0.303   6.428 -0.7782 -0.3773 -0.3310
  517SOL    HW113530   5.857   0.386   6.462  0.3025 -0.4254  0.9471
  517SOL    HW213531   5.963   0.328   6.371 -1.6853 -0.3685 -1.5059
  518SOL     OW13532   9.292   2.369   0.932 -0.0801 -0.0234 -0.3458
  518SOL    HW113533   9.251   2.295   0.976  0.5047  0.1547  0.5144
  518SOL    HW213534   9.385   2.347   0.927  0.4211  1.3791  1.5325
  519SOL     OW13535   3.800   6.153  11.235  0.2797  0.1785 -0.5326
  519SOL    HW113536   3.827   6.236  11.272  0.8822  0.5613 -1.7806
  519SOL    HW213537   3.723   6.127  11.287  0.1596  1.4369 -0.0570
  520SOL     OW13538  12.377   0.350  10.927  0.0117 -0.4640 -0.0681
  520SOL    HW113539  12.383   0.389  11.014 -2.0514 -0.3315  0.0747
  520SOL    HW213540  12.302   0.393  10.886  0.5805 -0.9342 -1.7151
  521SOL     OW13541  12.208   6.615  12.975 -0.9331  0.3178  0.4825
  521SOL    HW113542  12.221   6.613  12.880  0.0028 -0.0240  0.6002
  521SOL    HW213543  12.113   6.616  12.987 -1.0602  1.0955 -0.4648
  522SOL     OW13544   0.337   6.083  13.269 -0.3022 -0.0136 -0.0814
  522SOL    HW113545   0.422   6.107  13.305 -0.7883  0.2192  0.9556
  522SOL    HW213546   0.318   6.151  13.204 -0.2566  0.6552  0.5882
  523SOL     OW13547   4.954  12.398   6.960  0.0884  0.3258  0.4791
  523SOL    HW113548   4.863  12.427   6.961  0.3191  1.0573  0.4559
  523SOL    HW213549   4.973  12.376   7.052 -0.5744 -1.3468  0.2545
  524SOL     OW13550   4.101   4.321   9.387  1.1802 -0.2882 -0.1245
  524SOL    HW113551   4.011   4.346   9.366  1.2960  0.9111  0.7138
  524SOL    HW213552   4.136   4.395   9.437  1.6362 -2.0312  2.3236
  525SOL     OW13553  13.320  11.091   7.545  0.2505  0.1719  0.2637
  525SOL    HW113554  13.344  11.022   7.607 -1.9585 -0.6753  0.3013
  525SOL    HW213555  13.402  11.134   7.523  1.6944 -2.3166  0.4315
  526SOL     OW13556   2.325   6.692  10.997 -0.1684 -0.3126  0.4088
  526SOL    HW113557   2.351   6.624  10.935  2.1086  0.0495  0.8712
  526SOL    HW213558   2.353   6.658  11.083  1.3931  1.3178  0.6017
  527SOL     OW13559   8.855   3.749   6.535  0.6036 -0.0705  0.8441
  527SOL    HW113560   8.780   3.690   6.532  0.9183 -0.4913 -2.0120
  527SOL    HW213561   8.924   3.698   6.577  0.4646 -1.2762 -0.3280
  528SOL     OW13562   8.415  10.101  10.380 -0.0316  0.3704 -0.0445
  528SOL    HW113563   8.441  10.154  10.455  1.7768  0.1842 -0.5035
  528SOL    HW213564   8.483  10.117  10.314  1.2996 -3.3599  0.1993
  529SOL     OW13565   6.111   2.479   4.160 -0.4271 -0.9604 -0.1581
  529SOL    HW113566   6.063   2.417   4.216  0.0316 -1.5657 -0.4244
  529SOL    HW213567   6.047   2.503   4.092 -0.5985 -1.1621 -0.0709
  530SOL     OW13568  13.471   0.990   4.721  0.3524 -0.0226 -0.1266
  530SOL    HW113569  13.445   1.076   4.689  0.3989 -0.2599 -0.8070
  530SOL    HW213570  13.432   0.984   4.808 -0.2242  0.4102 -0.3532
  531SOL     OW13571   3.675   5.250   3.835 -0.3586 -0.6181 -0.3683
  531SOL    HW113572   3.656   5.157   3.829 -0.1039 -0.8343  1.5689
  531SOL    HW213573   3.692   5.265   3.928  0.6647  1.1632 -0.8010
  532SOL     OW13574  13.809  13.116   7.182 -0.2838 -0.2007  0.1378
  532SOL    HW113575  13.754  13.088   7.109  0.3656 -0.7907 -0.1333
  532SOL    HW213576  13.898  13.096   7.154  0.2300  2.0098 -0.0154
  533SOL     OW13577   3.101  11.331   8.170  0.7539 -0.0627  0.2015
  533SOL    HW113578   3.041  11.287   8.110  1.0338  0.2213 -0.2932
  533SOL    HW213579   3.067  11.420   8.176  0.4641 -0.2086  0.8272
  534SOL     OW13580   0.562   2.388   1.407  0.2098 -0.5412  0.4664
  534SOL    HW113581   0.535   2.316   1.464 -0.6395  0.6907  1.6734
  534SOL    HW213582   0.483   2.440   1.395  0.9108  0.4325 -0.0271
  535SOL     OW13583   7.479   2.527   3.590 -0.1070  0.0263 -0.4391
  535SOL    HW113584   7.386   2.507   3.593  0.3619 -2.3521 -0.3713
  535SOL    HW213585   7.495   2.556   3.500 -0.6935 -0.7682 -0.8050
  536SOL     OW13586   4.555   5.063   6.893 -0.0656 -0.3791  0.3323
  536SOL    HW113587   4.570   5.118   6.816  1.2666  1.4881  1.8442
  536SOL    HW213588   4.610   4.986   6.879 -1.7313 -1.3051 -1.6815
  537SOL     OW13589  10.766   1.392   7.682  0.5088  0.0970 -0.0382
  537SOL    HW113590  10.799   1.305   7.703  0.2752 -0.1786 -0.8013
  537SOL    HW213591  10.682   1.397   7.729  0.1944 -0.3583 -0.5329
  538SOL     OW13592   4.140  13.341   7.202  0.3342  0.0146 -0.4678
  538SOL    HW113593   4.138  13.348   7.297  2.5954  2.2593 -0.4850
  538SOL    HW213594   4.231  13.358   7.178  0.0705 -1.5305 -3.0085
  539SOL     OW13595   3.660   2.767   5.901  0.1970 -0.6321 -0.4408
  539SOL    HW113596   3.565   2.764   5.884  0.1951 -3.5658 -0.4512
  539SOL    HW213597   3.677   2.688   5.953  2.3594  0.9355  1.4182
  540SOL     OW13598   0.651   2.703  13.320 -0.5977  0.1993 -0.5612
  540SOL    HW113599   0.592   2.640  13.361 -1.3693  1.9292  1.1665
  540SOL    HW213600   0.668   2.667  13.233 -1.9899 -1.7316 -0.1047
  541SOL     OW13601   2.284   7.933   7.564 -0.0582 -0.4198 -0.3522
  541SOL    HW113602   2.341   7.877   7.617  1.3844  1.0958 -0.1914
  541SOL    HW213603   2.340   8.007   7.539 -1.6269  0.5240 -1.2769
  542SOL     OW13604   4.934  13.403   9.314 -0.5432 -0.8635 -0.0755
  542SOL    HW113605   4.902  13.459   9.243 -1.3663  0.9981  1.6264
  542SOL    HW213606   4.915  13.314   9.285 -1.2372 -0.1540 -1.9846
  543SOL     OW13607  11.935   7.423   9.169  0.4373  0.3415 -0.1119
  543SOL    HW113608  11.842   7.433   9.186 -0.1977 -0.6710 -2.5487
  543SOL    HW213609  11.975   7.504   9.203 -1.5020  1.3990 -0.2276
  544SOL     OW13610  12.542   1.326   4.276  0.6163 -0.0571  0.1957
  544SOL    HW113611  12.540   1.364   4.364  2.1718 -0.1625  0.2882
  544SOL    HW213612  12.529   1.232   4.290  1.9669 -0.2220  0.4234
  545SOL     OW13613   5.204   6.808  11.803 -0.4706  0.3111 -0.0295
  545SOL    HW113614   5.264   6.880  11.784  0.1169  0.2123  1.3655
  545SOL    HW213615   5.249   6.755  11.869 -1.6871 -0.2750  0.3674
  546SOL     OW13616   9.394   9.835   3.444 -0.2965 -0.2241 -0.1928
  546SOL    HW113617   9.430   9.884   3.369  1.0043 -1.2801 -0.2904
  546SOL    HW213618   9.301   9.825   3.423 -0.0941  0.1008 -1.3330
  547SOL     OW13619  10.783   9.973   4.690 -0.0477  0.5915 -0.1354
  547SOL    HW113620  10.738  10.041   4.739 -0.0325 -0.8271  1.9862
  547SOL    HW213621  10.725   9.954   4.616 -0.9138  1.6330  0.2578
  548SOL     OW13622   5.932   7.827  12.254  0.0961  0.4513  0.3094
  548SOL    HW113623   5.923   7.877  12.335  2.3232  1.4333  0.0377
  548SOL    HW213624   5.892   7.883  12.187 -1.7366 -0.3567  0.6838
  549SOL     OW13625  11.535  12.661  11.209 -0.1770 -0.0491  0.3968
  549SOL    HW113626  11.587  12.592  11.168 -0.9076 -0.5191  0.2551
  549SOL    HW213627  11.504  12.623  11.291 -1.9020 -0.4835 -0.4123
  550SOL     OW13628   3.717   2.447   5.838  0.0796 -0.1113  0.2830
  550SOL    HW113629   3.799   2.490   5.862 -0.7931  2.0627 -0.3841
  550SOL    HW213630   3.664   2.450   5.918  0.6730 -1.7319  0.7849
  551SOL     OW13631   4.835   3.391   1.868 -0.0803  0.1582  0.4853
  551SOL    HW113632   4.904   3.457   1.857  1.1892 -1.1040  0.6482
  551SOL    HW213633   4.853   3.352   1.953 -0.6924 -0.5365  0.3014
  552SOL     OW13634  12.134  11.543  10.992 -0.3236 -0.2295  0.0711
  552SOL    HW113635  12.137  11.608  11.062  1.0752  0.2207 -0.3720
  552SOL    HW213636  12.225  11.513  10.983 -0.3860  0.0166 -1.8049
  553SOL     OW13637  12.941  11.514  13.541 -0.3118 -0.3135  0.6282
  553SOL    HW113638  12.942  11.459  13.462  1.6788  0.5008  0.0336
  553SOL    HW213639  12.896  11.594  13.514 -0.4331 -0.3950  0.5869
  554SOL     OW13640  13.305   4.860   4.733  0.4579  0.5646  0.3938
  554SOL    HW113641  13.339   4.895   4.651  0.2661 -1.2887 -0.5216
  554SOL    HW213642  13.216   4.894   4.739  0.3688  0.4730 -0.3306
  555SOL     OW13643   5.952   5.302   0.104 -0.6268 -0.2826  0.2970
  555SOL    HW113644   5.990   5.388   0.086  0.0292 -0.1869  1.9138
  555SOL    HW213645   6.026   5.243   0.106 -1.1498 -1.0538 -1.5033
  556SOL     OW13646   3.250   0.580   4.077 -0.1086 -0.0830  0.0285
  556SOL    HW113647   3.158   0.562   4.057  0.0895 -2.2061  0.7592
  556SOL    HW213648   3.253   0.591   4.172  0.3113  0.5653 -0.0544
  557SOL     OW13649  10.999   1.403   8.093  0.1854  0.3525 -0.1897
  557SOL    HW113650  10.922   1.367   8.048 -0.1607  0.8842 -0.0236
  557SOL    HW213651  10.981   1.389   8.186  2.1768 -3.4585 -0.1646
  558SOL     OW13652   7.861   6.386   6.034  0.3906 -0.1809 -0.1050
  558SOL    HW113653   7.952   6.388   6.064  1.3611 -0.3140 -2.7363
  558SOL    HW213654   7.815   6.446   6.093  2.4421  0.8095  0.5787
  559SOL     OW13655  10.848  10.971   0.669 -0.2006 -0.2154  0.2233
  559SOL    HW113656  10.779  10.920   0.628 -0.6237  1.2067 -0.9083
  559SOL    HW213657  10.859  10.932   0.755 -1.7534 -1.0603  0.0686
  560SOL     OW13658   2.039   3.152   9.429  0.0839 -0.0202  0.3196
  560SOL    HW113659   1.973   3.097   9.471 -0.7285  0.4169 -0.3546
  560SOL    HW213660   2.061   3.106   9.349  2.4204 -1.3991  1.6491
  561SOL     OW13661   6.275  11.065   0.453 -0.1262 -0.0950 -0.4182
  561SOL    HW113662   6.180  11.067   0.444 -0.3362  0.1921  1.4631
  561SOL    HW213663   6.293  11.117   0.532  1.7154  1.0323 -1.5142
  562SOL     OW13664   5.765   3.703  13.706  0.4437 -0.2668 -0.3850
  562SOL    HW113665   5.681   3.657  13.697  1.3646 -2.0002 -0.6804
  562SOL    HW213666   5.772   3.722  13.799 -1.1571  1.7652 -0.5996
  563SOL     OW13667   2.435  12.045  13.148  0.6843 -0.1215 -0.2724
  563SOL    HW113668   2.403  11.971  13.201 -2.3773  0.9187 -0.4299
  563SOL    HW213669   2.510  12.079  13.196  0.9618 -2.1089  0.8199
  564SOL     OW13670  13.897  13.032   3.254  0.2701 -0.3744 -0.4254
  564SOL    HW113671  13.945  13.086   3.317  0.6650  0.8753 -1.7680
  564SOL    HW213672  13.841  12.977   3.309  2.3130 -1.0267  1.1405
  565SOL     OW13673   7.921   8.147   7.407  0.6637  0.0322 -0.0261
  565SOL    HW113674   7.940   8.062   7.446 -0.0957  0.4636  1.3541
  565SOL    HW213675   8.000   8.199   7.423  1.1894 -0.4311 -1.0087
  566SOL     OW13676   9.690   2.019   3.715  0.1434  0.7855 -0.0934
  566SOL    HW113677   9.616   2.072   3.746  0.0068 -0.5123  2.0415
  566SOL    HW213678   9.652   1.932   3.698  0.6083  0.9525 -2.2093
  567SOL     OW13679   5.960  10.863   4.978 -0.7881  0.4279  0.3152
  567SOL    HW113680   5.902  10.796   4.943 -1.0688 -0.6158  2.6138
  567SOL    HW213681   5.920  10.946   4.950 -1.8441 -0.3056 -0.4324
  568SOL     OW13682   4.789   2.769   9.848  0.3183 -0.0316 -0.3723
  568SOL    HW113683   4.784   2.673   9.847  0.3788 -0.0325 -0.6321
  568SOL    HW213684   4.807   2.793   9.757  3.3628  0.0539  0.1321
  569SOL     OW13685   3.602   2.447   2.121 -0.2780 -0.2382  0.2745
  569SOL    HW113686   3.539   2.416   2.187 -1.8651  0.6276 -0.7794
  569SOL    HW213687   3.645   2.521   2.163 -1.9478  0.9105  0.0595
  570SOL     OW13688   5.448  10.099   1.994 -0.4685  0.3539  0.4432
  570SOL    HW113689   5.529  10.068   2.033 -1.1157 -0.5672  1.1185
  570SOL    HW213690   5.442  10.052   1.911 -0.1597  0.6635  0.2442
  571SOL     OW13691   3.532   0.400   5.538 -0.3923  0.2327  0.3532
  571SOL    HW113692   3.453   0.399   5.484  0.3814 -1.1959 -0.8365
  571SOL    HW213693   3.526   0.481   5.587 -2.2241  0.5269 -0.2650
  572SOL     OW13694  12.183   5.529   2.035  0.4206  0.2035  0.1509
  572SOL    HW113695  12.237   5.573   1.969  0.6760  1.3465  1.0762
  572SOL    HW213696  12.198   5.436   2.022  0.1604  0.3897 -1.6398
  573SOL     OW13697   7.226   3.343  11.962 -0.0905  0.3099 -0.2156
  573SOL    HW113698   7.153   3.329  11.901  0.8540  0.3595 -1.3915
  573SOL    HW213699   7.286   3.401  11.915  1.4689 -0.9930  0.0845
  574SOL     OW13700   6.941   0.301   3.967 -0.1998  0.2889 -0.0392
  574SOL    HW113701   7.013   0.362   3.954 -1.0752  0.9733 -1.9636
  574SOL    HW213702   6.865   0.356   3.988 -0.6756 -0.2457 -0.3175
  575SOL     OW13703   5.195   7.727   3.014  0.6522 -0.5711  0.0250
  575SOL    HW113704   5.162   7.804   3.061  0.3274 -0.7705  0.1262
  575SOL    HW213705   5.286   7.748   2.995 -0.0337  0.9048 -2.0850
  576SOL     OW13706   3.385   7.243  13.165 -0.0503  0.4259 -0.0996
  576SOL    HW113707   3.362   7.182  13.234  3.2278 -1.2905 -0.3286
  576SOL    HW213708   3.436   7.311  13.208  0.6714  0.1938 -0.5617
  577SOL     OW13709   8.528   1.156   1.045 -0.0203 -0.2319  0.4455
  577SOL    HW113710   8.444   1.159   1.089  0.8665 -1.1675  2.3505
  577SOL    HW213711   8.582   1.220   1.091  0.4353  0.1252 -0.5399
  578SOL     OW13712   2.123  12.146  11.738  0.0664  0.4045  0.3271
  578SOL    HW113713   2.192  12.148  11.804  0.2903  2.0257  0.0771
  578SOL    HW213714   2.135  12.062  11.694  0.6441 -0.1882  1.5570
  579SOL     OW13715   3.718   9.377   2.505 -0.1996 -0.1347  0.4415
  579SOL    HW113716   3.712   9.350   2.414 -1.0169  1.6100 -0.0614
  579SOL    HW213717   3.793   9.329   2.540 -0.9475 -2.1800 -0.6381
  580SOL     OW13718   7.030  10.575  11.461 -0.2021  0.1610  0.0363
  580SOL    HW113719   7.106  10.518  11.452 -0.6926 -0.7884  1.4481
  580SOL    HW213720   7.067  10.661  11.480  0.5702 -0.4726  1.6651
  581SOL     OW13721   3.477   9.280   4.996 -0.5924 -0.4607 -0.0350
  581SOL    HW113722   3.484   9.364   5.041 -2.5959  0.8047 -1.8627
  581SOL    HW213723   3.567   9.259   4.970  0.0147  0.8883  0.8693
  582SOL     OW13724   8.343   9.495  11.238 -0.6928 -0.1199  0.2620
  582SOL    HW113725   8.437   9.489  11.221 -0.8506 -1.5877 -0.1635
  582SOL    HW213726   8.337   9.524  11.329  0.1611  0.4658  0.1466
  583SOL     OW13727   9.898   5.902   0.162 -0.6338 -0.2099 -0.1074
  583SOL    HW113728   9.929   5.992   0.165 -1.9058  0.3235 -1.6788
  583SOL    HW213729   9.841   5.895   0.239 -0.6470  0.3779 -0.0561
  584SOL     OW13730   3.901  10.304   4.545 -0.4894  0.1042 -0.0358
  584SOL    HW113731   3.912  10.340   4.457 -0.3299  0.5148  0.1511
  584SOL    HW213732   3.952  10.362   4.601  0.7092 -1.0630  0.1199
  585SOL     OW13733   2.754   8.752   0.231 -0.6715  0.6406  0.4635
  585SOL    HW113734   2.777   8.845   0.230  1.2022  0.2220  0.8147
  585SOL    HW213735   2.735   8.733   0.323 -0.2197  0.5110  0.5357
  586SOL     OW13736  12.779   9.245  10.643 -0.6364  0.5756 -0.2984
  586SOL    HW113737  12.800   9.273  10.733 -1.6944  0.9927 -0.1590
  586SOL    HW213738  12.742   9.324  10.603  1.3164  0.8734 -1.6411
  587SOL     OW13739   5.922  11.390   1.659  0.3736  0.1952 -0.0686
  587SOL    HW113740   6.014  11.385   1.633  0.3277 -1.2879 -0.0147
  587SOL    HW213741   5.888  11.302   1.643 -0.6962  0.3593  1.1723
  588SOL     OW13742  13.113   7.325   0.204  0.1171 -0.4058 -0.7518
  588SOL    HW113743  13.187   7.347   0.260 -1.1800 -1.3495  1.5024
  588SOL    HW213744  13.135   7.239   0.167 -0.7587 -1.9374  1.9374
  589SOL     OW13745   0.558   9.684   5.705  0.2551 -0.2225  0.5225
  589SOL    HW113746   0.635   9.636   5.676  0.3118  0.2859 -0.1920
  589SOL    HW213747   0.484   9.632   5.675  0.2990 -1.0073  1.7041
  590SOL     OW13748   4.167  10.268   1.505  0.3198  0.8466 -0.6325
  590SOL    HW113749   4.192  10.182   1.541 -3.1982 -0.0599  0.0426
  590SOL    HW213750   4.200  10.331   1.569  1.9324 -0.0217 -0.5376
  591SOL     OW13751  10.558   7.238   6.902  0.4670 -0.0931 -0.0869
  591SOL    HW113752  10.472   7.235   6.944  0.5453 -1.1342  0.0164
  591SOL    HW213753  10.560   7.161   6.845  2.4859 -1.8985  2.2433
  592SOL     OW13754   6.232  10.840  10.433 -0.0183  0.3080  0.4080
  592SOL    HW113755   6.211  10.849  10.340  1.3052 -1.3089 -0.0983
  592SOL    HW213756   6.169  10.777  10.466 -1.5807  2.1252  1.0699
  593SOL     OW13757  13.275   7.977   8.692  0.1174  0.2956  0.0220
  593SOL    HW113758  13.362   7.983   8.731  0.9406  0.5256 -1.7470
  593SOL    HW213759  13.288   7.928   8.611 -1.5368 -0.2388  0.0325
  594SOL     OW13760  12.072   3.814   2.925 -0.7557 -0.2192  0.5753
  594SOL    HW113761  12.099   3.892   2.875 -1.7547 -0.9262 -1.1348
  594SOL    HW213762  12.003   3.846   2.983 -0.6146  0.3175  0.4600
  595SOL     OW13763   7.883   1.975   8.291  0.1267 -0.0942  0.3473
  595SOL    HW113764   7.900   2.042   8.358  0.0774 -0.5804  0.8505
  595SOL    HW213765   7.833   1.908   8.336  1.3449 -1.1325  0.2207
  596SOL     OW13766  12.758   7.805   7.190 -0.0915 -0.3023 -0.1267
  596SOL    HW113767  12.853   7.811   7.180 -0.1575  0.8852 -0.1629
  596SOL    HW213768  12.724   7.879   7.140 -0.9051  0.6761  1.7646
  597SOL     OW13769   1.372  13.712   7.983 -0.1458  0.0838 -0.5875
  597SOL    HW113770   1.346  13.751   8.066  0.4590  0.0270 -0.3675
  597SOL    HW213771   1.468  13.720   7.981 -0.1734  0.3363 -1.4025
  598SOL     OW13772  13.072  10.715   2.880 -0.1603  0.1320 -0.2901
  598SOL    HW113773  13.097  10.627   2.851  1.4459  0.3876  0.2304
  598SOL    HW213774  12.990  10.701   2.928  0.1226 -1.1012 -0.1228
  599SOL     OW13775   5.925   4.080   9.351  0.2048  0.3477  0.3130
  599SOL    HW113776   5.997   4.041   9.302  0.7412  0.1257  1.2711
  599SOL    HW213777   5.933   4.174   9.336  0.6719  0.3201  0.3959
  600SOL     OW13778  13.906   2.218  10.877  0.2091  0.2117 -0.1459
  600SOL    HW113779  13.827   2.260  10.844  0.2100  0.3554  0.0361
  600SOL    HW213780  13.967   2.290  10.893 -0.1938  0.2613  1.2846
  601SOL     OW13781  10.527  12.906  13.853  0.1031 -0.1401  0.3160
  601SOL    HW113782  10.535  12.952  13.769 -0.2817 -0.7723 -0.0750
  601SOL    HW213783  10.477  12.828  13.833 -0.9729  0.2449  1.3449
  602SOL     OW13784   9.888   7.940   4.123 -0.1912  0.4100 -0.1661
  602SOL    HW113785   9.967   7.922   4.174 -1.0169  0.7119  1.2636
  602SOL    HW213786   9.857   7.854   4.095 -0.3645  0.1282  0.8506
  603SOL     OW13787   0.885   5.554  10.165  0.0728 -0.7852  0.3980
  603SOL    HW113788   0.922   5.643  10.167 -1.9925  0.1242  0.7080
  603SOL    HW213789   0.911   5.520  10.079  0.4626  0.3271  0.0511
  604SOL     OW13790  12.490  13.747  13.218  0.2457  0.1476 -0.5611
  604SOL    HW113791  12.547  13.706  13.153  1.3187 -2.2291  1.7101
  604SOL    HW213792  12.548  13.809  13.263 -0.6041  2.1093 -1.9956
  605SOL     OW13793   5.416   9.740   2.337  0.0846 -0.0420 -0.1553
  605SOL    HW113794   5.399   9.819   2.287 -0.4697  0.5788  0.9633
  605SOL    HW213795   5.415   9.670   2.272 -2.1588  0.5293 -0.8405
  606SOL     OW13796   9.482   5.627  13.486 -0.0479 -0.2089  0.1623
  606SOL    HW113797   9.555   5.581  13.526  0.8092  1.9597  1.2846
  606SOL    HW213798   9.408   5.611  13.545 -0.0268 -0.9222  0.0032
  607SOL     OW13799   6.431   2.412   2.944 -0.1165 -0.1461  0.6448
  607SOL    HW113800   6.489   2.402   3.020  0.9137  1.3109  0.1111
  607SOL    HW213801   6.491   2.425   2.870 -1.0345 -3.1675 -0.7689
  608SOL     OW13802   4.774   0.083   0.119  0.6200 -0.0516  0.3944
  608SOL    HW113803   4.766   0.082   0.214  1.8821  0.0795  0.5123
  608SOL    HW213804   4.866   0.065   0.102  0.3071 -0.6101 -0.8237
  609SOL     OW13805   0.010  11.661   5.609 -0.0809 -0.5557  0.5978
  609SOL    HW113806   0.062  11.645   5.531 -0.4349 -0.3640  0.3222
  609SOL    HW213807  -0.027  11.748   5.597  0.5703 -0.1543  1.3779
  610SOL     OW13808   2.651   9.297   1.550 -0.3051 -0.3774  0.1225
  610SOL    HW113809   2.591   9.254   1.489 -0.9735 -0.6699  0.9587
  610SOL    HW213810   2.730   9.245   1.548 -0.7818 -1.1277  0.4428
  611SOL     OW13811   4.689   1.922  10.864  0.0526 -0.1666  0.0743
  611SOL    HW113812   4.735   1.852  10.911  0.2484  0.6231  1.1034
  611SOL    HW213813   4.738   2.001  10.886 -1.4928  0.6304  0.8309
  612SOL     OW13814   7.070   7.466   7.685 -0.2421 -0.1269  0.3215
  612SOL    HW113815   7.146   7.459   7.742 -0.0531  0.3652  0.1368
  612SOL    HW213816   7.016   7.390   7.707  0.4133 -0.6102  0.2900
  613SOL     OW13817   0.792   0.754   4.000 -0.3048  0.0735 -0.2889
  613SOL    HW113818   0.867   0.809   4.021 -0.4704  0.1618  0.0708
  613SOL    HW213819   0.824   0.665   4.010 -0.6186  0.0991  1.2484
  614SOL     OW13820  10.132   2.510  12.658  0.6229 -0.4451  0.3771
  614SOL    HW113821  10.121   2.439  12.595  0.9902  0.9910 -1.3722
  614SOL    HW213822  10.067   2.492  12.726 -0.9056 -1.1824 -1.2119
  615SOL     OW13823  12.743   4.072  12.238  0.2892  0.8673  0.2729
  615SOL    HW113824  12.708   4.151  12.198 -0.9813  1.5909  2.6238
  615SOL    HW213825  12.683   4.053  12.309  1.6362 -1.1489  0.9578
  616SOL     OW13826  11.654   9.709   7.578 -0.0167  0.0414 -0.0363
  616SOL    HW113827  11.705   9.786   7.553 -1.5373  1.5113  1.1384
  616SOL    HW213828  11.563   9.740   7.581 -0.6448 -1.7388  0.6971
  617SOL     OW13829  10.179   5.554   7.371 -0.1759 -0.1656 -0.5526
  617SOL    HW113830  10.194   5.459   7.368  1.1301  0.0429 -1.9492
  617SOL    HW213831  10.206   5.579   7.460  0.2429 -1.0003 -0.4298
  618SOL     OW13832   0.239   9.597  13.190  0.1568 -0.3456  0.6092
  618SOL    HW113833   0.226   9.547  13.110 -1.0149  1.1627 -0.2053
  618SOL    HW213834   0.159   9.650  13.198  1.4254  1.5466  1.2780
  619SOL     OW13835  10.305  12.267   8.139 -0.2737 -0.5527  0.0722
  619SOL    HW113836  10.313  12.358   8.110 -1.6583 -1.0123 -1.9543
  619SOL    HW213837  10.394  12.232   8.135 -0.0195  0.1802 -1.0405
  620SOL     OW13838   0.558  12.620   4.093  0.4056 -0.3624  0.0599
  620SOL    HW113839   0.631  12.628   4.155  0.0085 -1.9340  0.7830
  620SOL    HW213840   0.528  12.710   4.079  0.3610  0.0358  2.3426
  621SOL     OW13841   3.737   1.699   0.446 -0.0824  0.5200  0.0963
  621SOL    HW113842   3.766   1.643   0.374  0.2076  0.3643  0.3303
  621SOL    HW213843   3.718   1.783   0.405 -0.8853  0.1483 -0.3251
  622SOL     OW13844   6.457   7.836   6.642  0.1775 -0.2476  0.2654
  622SOL    HW113845   6.382   7.801   6.691  1.1300 -0.8795  1.3152
  622SOL    HW213846   6.513   7.876   6.709 -0.3101  2.3583 -0.7517
  623SOL     OW13847  13.055  11.738   5.526  0.6055 -0.6227  0.9100
  623SOL    HW113848  13.120  11.808   5.519  1.5468 -1.5802 -0.5224
  623SOL    HW213849  12.976  11.781   5.556  1.0304  1.1555 -0.3733
  624SOL     OW13850  12.220  11.426   5.099 -0.3582 -0.6341 -0.0060
  624SOL    HW113851  12.254  11.496   5.044  0.5644 -0.3059  0.9348
  624SOL    HW213852  12.136  11.402   5.060 -0.5634  0.8153 -0.4985
  625SOL     OW13853  10.470   2.018  10.207 -0.0045  0.3881  1.0665
  625SOL    HW113854  10.410   1.945  10.199 -0.7766  0.9706  1.3993
  625SOL    HW213855  10.512   2.024  10.121 -0.7010  0.2023  0.7043
  626SOL     OW13856  13.559   3.869   9.420 -0.0858 -0.3143  0.0692
  626SOL    HW113857  13.572   3.964   9.420  0.2640 -0.3595 -0.0940
  626SOL    HW213858  13.591   3.841   9.334 -1.7990 -0.3711 -0.5968
  627SOL     OW13859  11.117   5.177   0.160  0.2121 -0.2740  0.1419
  627SOL    HW113860  11.077   5.091   0.162  1.1310 -0.7106  0.5199
  627SOL    HW213861  11.159   5.186   0.245 -2.3151  1.7846  1.3075
  628SOL     OW13862   2.944  10.342   3.487  0.2195  0.2468  0.2120
  628SOL    HW113863   2.859  10.330   3.529  0.5523 -1.0836  0.5487
  628SOL    HW213864   2.999  10.382   3.554  0.3273 -0.4822  0.5679
  629SOL     OW13865  14.011   5.636   1.923 -0.6008 -0.3778 -0.4504
  629SOL    HW113866  14.026   5.729   1.901  0.0730 -0.3465  0.1051
  629SOL    HW213867  14.099   5.602   1.939 -0.7361 -1.3890 -1.6802
  630SOL     OW13868  11.391   3.949   0.480 -0.0598 -0.2429 -0.1125
  630SOL    HW113869  11.359   3.872   0.433  0.4606 -1.5484  1.5702
  630SOL    HW213870  11.325   4.016   0.464 -1.0388 -1.3462 -0.8214
  631SOL     OW13871   5.367  12.905   0.491 -0.1164  0.0401  0.2486
  631SOL    HW113872   5.363  12.810   0.497  1.3143 -0.0527 -0.0448
  631SOL    HW213873   5.349  12.936   0.580  2.4220 -0.6371  1.0524
  632SOL     OW13874  12.072  12.715   8.320  0.7368 -0.2227  0.6118
  632SOL    HW113875  12.014  12.787   8.345 -0.3683 -1.4846  1.8814
  632SOL    HW213876  12.121  12.694   8.399  2.9564  0.7634 -0.4201
  633SOL     OW13877   6.451   0.280  12.855 -0.0981  0.0544  0.2694
  633SOL    HW113878   6.504   0.215  12.900  1.1723  0.3106 -0.7950
  633SOL    HW213879   6.375   0.231  12.822  0.8457 -0.9046 -0.5295
  634SOL     OW13880   2.066   4.958   2.663  0.0369 -0.2873 -0.8162
  634SOL    HW113881   2.020   4.957   2.747  1.0557 -0.9806 -0.2457
  634SOL    HW213882   2.057   5.048   2.632  0.6337  0.3035  0.6114
  635SOL     OW13883   0.213   3.239   6.688  0.4457  0.3719  0.0228
  635SOL    HW113884   0.176   3.197   6.611 -0.0737 -0.4757  0.7131
  635SOL    HW213885   0.143   3.238   6.753  1.3329 -0.3354  1.0186
  636SOL     OW13886   1.712   3.396   8.858  0.0202  0.2566 -0.1898
  636SOL    HW113887   1.624   3.433   8.867 -1.0623 -2.3966  1.3799
  636SOL    HW213888   1.700   3.320   8.802  1.6584  0.6511 -1.1487
  637SOL     OW13889   5.357  10.062   3.998 -0.0506 -0.4512  0.2029
  637SOL    HW113890   5.391  10.138   3.950  1.0881 -1.5956 -0.9074
  637SOL    HW213891   5.266  10.055   3.970  0.3432 -0.5504 -1.1208
  638SOL     OW13892   6.758   3.083   6.883 -0.2926 -0.0351 -0.0109
  638SOL    HW113893   6.688   3.027   6.849  1.7872 -1.4330 -2.2581
  638SOL    HW213894   6.727   3.172   6.865 -1.4183 -0.6113 -1.1390
  639SOL     OW13895  14.037   4.399   2.775  0.2964  0.6423  0.3731
  639SOL    HW113896  14.014   4.492   2.767 -2.3320  0.1109  0.8769
  639SOL    HW213897  13.964   4.360   2.822 -0.2640 -2.3232 -2.6039
  640SOL     OW13898  11.571   5.275   8.123 -0.3589 -0.0740 -0.3186
  640SOL    HW113899  11.491   5.260   8.174 -0.4098 -0.1250 -0.4135
  640SOL    HW213900  11.629   5.322   8.183 -0.5608  0.2040 -0.3343
  641SOL     OW13901  13.004  11.685   9.273  0.7500  0.1420  0.3862
  641SOL    HW113902  12.996  11.675   9.178  1.2798  0.5515  0.2899
  641SOL    HW213903  12.964  11.606   9.309  0.8719 -0.1901 -0.1920
  642SOL     OW13904   7.784   8.639   4.888  0.3636 -0.3649 -0.5485
  642SOL    HW113905   7.849   8.682   4.834  1.1851 -1.6151 -0.5986
  642SOL    HW213906   7.832   8.613   4.967 -0.7871  1.3614  0.8100
  643SOL     OW13907  10.259   6.513   6.847  0.3614  0.0792  0.4821
  643SOL    HW113908  10.252   6.573   6.773 -0.5651  0.5737  0.9494
  643SOL    HW213909  10.232   6.428   6.812  0.6045  0.1619  0.0912
  644SOL     OW13910  11.292   0.215   3.229 -0.1593  0.4872  0.1813
  644SOL    HW113911  11.273   0.123   3.246  0.5654 -0.0344 -1.6114
  644SOL    HW213912  11.352   0.241   3.299 -0.9249 -0.1772  1.1080
  645SOL     OW13913   0.246  12.341   2.944 -0.1409 -0.1131 -0.3003
  645SOL    HW113914   0.179  12.273   2.954 -0.3874  0.3608  1.5860
  645SOL    HW213915   0.211  12.399   2.876 -1.5969  0.0317  0.5189
  646SOL     OW13916   8.582  13.691   6.100  0.5127  0.2094 -0.2988
  646SOL    HW113917   8.638  13.768   6.105 -0.6129  1.0837 -0.6859
  646SOL    HW213918   8.641  13.617   6.114  1.4549  1.1762  1.1283
  647SOL     OW13919  10.835  12.412  11.211  0.2638 -0.5008 -0.1988
  647SOL    HW113920  10.880  12.496  11.219 -1.8829  0.7579 -0.5898
  647SOL    HW213921  10.842  12.390  11.118 -0.1466 -0.1561 -0.3159
  648SOL     OW13922  12.907  11.166   4.066 -0.2484 -0.4589  0.1794
  648SOL    HW113923  12.882  11.130   3.980 -0.5206  0.3607 -0.0947
  648SOL    HW213924  12.927  11.089   4.119  0.4782 -0.9703 -0.7902
  649SOL     OW13925   4.515   3.050  13.620  0.5131 -0.0750 -0.8008
  649SOL    HW113926   4.508   3.005  13.535  1.8775 -0.7494 -0.5729
  649SOL    HW213927   4.541   2.982  13.681 -1.0627  0.2724  0.3209
  650SOL     OW13928  12.302  13.994  10.207  0.0147  0.2107 -0.2654
  650SOL    HW113929  12.263  14.005  10.120  0.0532  1.0171 -0.1895
  650SOL    HW213930  12.393  13.971  10.189 -0.3824 -1.3622 -0.4381
  651SOL     OW13931   7.740   6.474   1.976 -0.0890  0.0486  0.3126
  651SOL    HW113932   7.753   6.557   2.022  0.4658 -0.5030  1.1682
  651SOL    HW213933   7.824   6.456   1.935 -0.6215  0.6117 -1.0869
  652SOL     OW13934   4.063  10.781   0.915 -0.4595  0.1129  0.1978
  652SOL    HW113935   4.122  10.821   0.979 -1.6777  4.4602 -1.0537
  652SOL    HW213936   4.120  10.760   0.840  0.3138 -1.2829  1.1276
  653SOL     OW13937   0.166   5.655  12.288  0.7858 -0.6274  0.0907
  653SOL    HW113938   0.083   5.663  12.241  2.0258 -0.0080 -2.1974
  653SOL    HW213939   0.201   5.571  12.259  1.6135 -0.1946 -0.2156
  654SOL     OW13940  12.773   2.836   5.769 -0.3714  0.5075 -0.1478
  654SOL    HW113941  12.779   2.756   5.716  1.9892 -0.8856  1.9524
  654SOL    HW213942  12.694   2.824   5.822  0.1464 -0.6796  0.4051
  655SOL     OW13943  10.944  11.358   7.055 -0.3031 -0.3437  0.2100
  655SOL    HW113944  10.990  11.439   7.032  0.4952 -0.7201  0.4276
  655SOL    HW213945  10.867  11.357   6.999 -0.2141  0.4659  0.0596
  656SOL     OW13946   7.492   8.667   5.957  0.1691  0.1534 -0.1783
  656SOL    HW113947   7.521   8.741   6.011  0.2160 -1.3285  1.9525
  656SOL    HW213948   7.573   8.628   5.924  0.1355  1.1659 -1.5956
  657SOL     OW13949   0.564   9.086   1.315  0.0976  0.0505  0.4727
  657SOL    HW113950   0.577   9.159   1.376  0.6794  1.0376 -0.7830
  657SOL    HW213951   0.474   9.095   1.286  0.4914  0.9737 -0.5245
  658SOL     OW13952  11.444   1.912  13.909  0.0442 -0.3626 -0.3534
  658SOL    HW113953  11.436   1.987  13.850 -1.0830  2.4368  2.9945
  658SOL    HW213954  11.535   1.914  13.938 -0.3142  0.6780  0.7799
  659SOL     OW13955   8.178   6.147   2.151  0.3696  0.0575  0.3969
  659SOL    HW113956   8.088   6.116   2.146  0.4405 -0.2684  1.0906
  659SOL    HW213957   8.220   6.110   2.073 -0.2597  0.7876 -0.3095
  660SOL     OW13958   3.180   2.748  11.169  0.1642 -0.3933 -0.2840
  660SOL    HW113959   3.105   2.726  11.225  0.1179  0.6640  0.0848
  660SOL    HW213960   3.216   2.663  11.143 -1.5095 -0.9473 -0.9470
  661SOL     OW13961   8.197   6.072   0.662 -0.0232  0.1574  0.4243
  661SOL    HW113962   8.163   6.083   0.574 -2.7121  0.6202  1.4305
  661SOL    HW213963   8.254   6.148   0.675  1.8708 -0.8513 -1.4683
  662SOL     OW13964   1.665   4.557   2.492 -0.2964  0.1529  0.2496
  662SOL    HW113965   1.574   4.562   2.522  0.1507  0.3674  1.6267
  662SOL    HW213966   1.717   4.568   2.571  0.9478  0.9850 -0.6521
  663SOL     OW13967   0.844   1.129   5.586 -0.6414 -0.1709  0.8242
  663SOL    HW113968   0.785   1.138   5.511  0.3505 -0.3539  0.0054
  663SOL    HW213969   0.851   1.217   5.622 -2.6561 -0.3915  1.9423
  664SOL     OW13970   4.225   2.429  11.995  0.1832  0.5130 -0.0846
  664SOL    HW113971   4.216   2.502  11.934 -0.7749  0.6984  0.2562
  664SOL    HW213972   4.313   2.438  12.030 -0.5457  2.7003  1.4171
  665SOL     OW13973   1.813   2.142   2.238 -0.2642 -0.0849 -0.4566
  665SOL    HW113974   1.741   2.183   2.190  0.3594  2.0744  0.3076
  665SOL    HW213975   1.775   2.113   2.321 -0.5274 -0.2046 -0.6190
  666SOL     OW13976  11.695   9.475   4.053 -0.1941  0.7138 -0.0452
  666SOL    HW113977  11.672   9.382   4.056 -0.3479  0.7644  0.4589
  666SOL    HW213978  11.658   9.506   3.970  1.9212 -0.1931 -1.3980
  667SOL     OW13979   1.296   7.206   7.466 -0.0270 -0.1312  0.5326
  667SOL    HW113980   1.275   7.257   7.388  1.9153  1.0314  0.7087
  667SOL    HW213981   1.238   7.130   7.461 -3.0012  2.0063  0.2178
  668SOL     OW13982  11.870  13.927   0.878  0.8444  0.6282  0.5405
  668SOL    HW113983  11.946  13.977   0.905  0.0938  1.6026  0.9049
  668SOL    HW213984  11.862  13.944   0.784  0.5319  1.3110  0.6800
  669SOL     OW13985   8.823   1.816   3.635 -0.0663 -0.1888 -0.2961
  669SOL    HW113986   8.898   1.860   3.596 -1.4328  1.7200 -0.9555
  669SOL    HW213987   8.769   1.789   3.561 -0.7735 -0.1246  0.1794
  670SOL     OW13988   5.804   3.843   2.616 -0.1569  0.0614  0.3157
  670SOL    HW113989   5.789   3.931   2.582  1.5481  0.8722  1.5192
  670SOL    HW213990   5.887   3.816   2.576 -0.2162 -0.6326  0.6539
  671SOL     OW13991  11.586   7.446   5.276 -0.6004  0.2989  0.7886
  671SOL    HW113992  11.602   7.526   5.226  0.8338 -0.7195 -0.4478
  671SOL    HW213993  11.518   7.400   5.228 -0.0097 -0.1459  0.3523
  672SOL     OW13994   5.436   3.048   9.425  0.2965 -0.1354  0.0994
  672SOL    HW113995   5.347   3.071   9.399  0.5088 -0.4176 -0.9409
  672SOL    HW213996   5.490   3.076   9.351  1.4380  2.4664  1.7856
  673SOL     OW13997   2.271   1.384   8.741 -0.0181 -0.1622 -0.0496
  673SOL    HW113998   2.209   1.429   8.799  1.1242 -0.4648  1.4598
  673SOL    HW213999   2.265   1.292   8.766 -0.2972 -0.4812 -1.2022
  674SOL     OW14000   5.147  11.712   7.686 -0.4150  0.4141 -0.4265
  674SOL    HW114001   5.163  11.676   7.773 -1.1338 -0.5105 -0.6654
  674SOL    HW214002   5.222  11.683   7.633 -0.9851 -0.7712 -0.6178
  675SOL     OW14003  11.234   2.453  11.608  0.3132  0.1157  0.1648
  675SOL    HW114004  11.283   2.382  11.566  0.0835 -0.5170  0.9491
  675SOL    HW214005  11.179   2.489  11.538  0.9751  0.0174 -0.4157
  676SOL     OW14006   2.482   8.844   2.292  0.0286 -0.1511 -0.3004
  676SOL    HW114007   2.445   8.932   2.288 -1.3530 -0.6227  1.1917
  676SOL    HW214008   2.546   8.849   2.363 -1.1131 -0.6822  0.8024
  677SOL     OW14009   7.117   1.722   0.645  0.5383 -0.1581 -0.7408
  677SOL    HW114010   7.098   1.812   0.621  0.7267 -0.1139 -0.7276
  677SOL    HW214011   7.059   1.703   0.719  0.6312  0.0122 -0.6254
  678SOL     OW14012  10.276   4.877   4.883  0.0487  0.2570  0.2917
  678SOL    HW114013  10.296   4.898   4.974 -0.9257 -0.2412  0.6353
  678SOL    HW214014  10.202   4.817   4.888 -1.2790  1.7086 -0.8909
  679SOL     OW14015   1.521   5.234   5.801  0.2697 -0.1191 -0.0898
  679SOL    HW114016   1.598   5.262   5.851 -0.5098 -0.3147  1.2683
  679SOL    HW214017   1.525   5.285   5.720  2.4484 -0.9666 -0.5892
  680SOL     OW14018   4.033  13.774   5.524  0.4728  0.6124 -0.3925
  680SOL    HW114019   3.986  13.826   5.459 -0.7335  2.1079  1.5507
  680SOL    HW214020   3.988  13.689   5.525 -0.4001  1.0689 -0.5257
  681SOL     OW14021   3.490  11.519   0.009  0.1765  0.4453  0.8282
  681SOL    HW114022   3.558  11.452   0.007  0.6558  0.7944  2.9791
  681SOL    HW214023   3.418  11.482  -0.041  0.4819 -1.6266  1.8383
  682SOL     OW14024   4.543  12.408   9.617 -0.3524 -0.1858 -0.0346
  682SOL    HW114025   4.507  12.444   9.536 -0.0726 -0.0029 -0.0783
  682SOL    HW214026   4.507  12.320   9.623 -1.4800  0.2785  0.3373
  683SOL     OW14027   7.079   5.240  10.268 -0.2701 -0.3396  0.4271
  683SOL    HW114028   7.164   5.276  10.292  1.5435 -2.4826 -2.1106
  683SOL    HW214029   7.037   5.217  10.351  2.1061 -0.2256  1.7313
  684SOL     OW14030   1.891  12.655   5.558  0.4969  0.1848  0.0780
  684SOL    HW114031   1.849  12.717   5.618 -0.8687  0.4988 -1.1417
  684SOL    HW214032   1.834  12.578   5.561  0.5637  0.1046 -0.5917
  685SOL     OW14033  13.568  12.562   5.265 -0.5685 -0.2334  0.1804
  685SOL    HW114034  13.657  12.582   5.292  0.1512 -1.0245 -1.4771
  685SOL    HW214035  13.544  12.634   5.206 -0.8403 -0.2932  0.2147
  686SOL     OW14036   8.474   2.607   6.985  0.2318  0.1922  0.6593
  686SOL    HW114037   8.516   2.677   6.936 -2.4874  2.4648  1.2957
  686SOL    HW214038   8.380   2.625   6.975 -0.5150 -2.3370  2.3696
  687SOL     OW14039  13.821   1.186  11.595  0.1262  0.2336 -0.2227
  687SOL    HW114040  13.876   1.204  11.671  2.0975  0.6966 -1.6848
  687SOL    HW214041  13.769   1.265  11.583  1.5201  1.1041 -0.7146
  688SOL     OW14042   7.166   8.205  12.944 -0.2759  0.0413 -0.1638
  688SOL    HW114043   7.138   8.230  13.032  0.8429  1.4969 -0.1887
  688SOL    HW214044   7.190   8.287  12.902  1.2454 -0.8329 -1.1090
  689SOL     OW14045   5.512  12.759   3.511  0.4074  0.1283  0.0482
  689SOL    HW114046   5.429  12.805   3.502  1.0832  1.2408 -0.7687
  689SOL    HW214047   5.547  12.754   3.422  0.6662 -1.4023  0.2093
  690SOL     OW14048   7.527   3.434   5.184  0.3059  0.0908 -0.2226
  690SOL    HW114049   7.554   3.506   5.241  0.7732  0.3509 -0.7591
  690SOL    HW214050   7.597   3.370   5.191  0.1861 -0.0400 -0.2145
  691SOL     OW14051  10.003   5.945   2.741  0.5263 -0.3510 -0.3220
  691SOL    HW114052  10.076   5.883   2.739 -1.1897 -2.5408  0.8147
  691SOL    HW214053   9.983   5.955   2.834 -0.7753  0.0105 -0.6239
  692SOL     OW14054   6.315   9.657   9.104  0.1658  0.0548  0.1640
  692SOL    HW114055   6.231   9.691   9.071 -0.4007 -0.3973  1.1057
  692SOL    HW214056   6.338   9.588   9.043 -0.2066  0.1132 -0.0496
  693SOL     OW14057  13.008   8.591   6.243  0.0379 -0.3934 -0.5738
  693SOL    HW114058  12.922   8.588   6.284  0.0514  0.0661 -0.5027
  693SOL    HW214059  13.006   8.521   6.177  0.3782 -1.8159  0.8614
  694SOL     OW14060   1.322  13.594  13.952 -0.1274 -0.3352 -0.0062
  694SOL    HW114061   1.324  13.639  13.867 -0.4300  0.6304  0.4830
  694SOL    HW214062   1.319  13.664  14.016  1.4469 -1.0347  0.8681
  695SOL     OW14063  10.285   3.339  12.955  0.4620 -0.5254 -0.1827
  695SOL    HW114064  10.320   3.347  12.866  3.1052 -0.4198  0.7984
  695SOL    HW214065  10.323   3.258  12.989  0.0075 -0.2259  1.0788
  696SOL     OW14066  11.145  13.321   2.661 -0.0471 -0.0673 -0.3042
  696SOL    HW114067  11.165  13.229   2.676  0.8254  0.1167 -0.2983
  696SOL    HW214068  11.086  13.321   2.586  0.5618 -0.5906 -0.7934
  697SOL     OW14069   4.654   6.037   3.372 -0.5350 -0.2868  0.1188
  697SOL    HW114070   4.710   6.016   3.297 -0.1537 -0.3658  0.4253
  697SOL    HW214071   4.671   6.130   3.390 -0.7488 -0.2239  0.0086
  698SOL     OW14072   6.380   5.846   0.801 -0.0935  0.1869 -0.2836
  698SOL    HW114073   6.441   5.791   0.751  0.0721  1.0582 -1.0656
  698SOL    HW214074   6.433   5.919   0.831 -0.9125  1.4747 -1.7983
  699SOL     OW14075   9.005   0.921   6.652  0.6253 -0.3367  0.7188
  699SOL    HW114076   9.089   0.967   6.650  0.9779 -0.8052  2.3782
  699SOL    HW214077   8.977   0.928   6.743 -1.0463 -0.3866  0.2336
  700SOL     OW14078   5.863  11.746  13.769 -0.5257 -0.8161 -0.0318
  700SOL    HW114079   5.886  11.814  13.706  0.9239 -0.7701  0.5150
  700SOL    HW214080   5.813  11.792  13.837  0.7711 -0.1828  0.5312
  701SOL     OW14081   3.241  12.248   1.986  0.0078  0.4136 -0.4244
  701SOL    HW114082   3.164  12.218   2.034 -0.0271  0.3286 -0.5330
  701SOL    HW214083   3.259  12.336   2.021 -1.8589  1.6928 -2.3699
  702SOL     OW14084  11.090  12.520  13.550 -0.4628 -0.4160  0.0097
  702SOL    HW114085  11.141  12.590  13.509  0.5831 -1.0019  0.2721
  702SOL    HW214086  11.001  12.533  13.517  0.1618 -0.3509 -1.7841
  703SOL     OW14087  11.044  11.527   6.410 -0.1527  0.0440 -0.5679
  703SOL    HW114088  11.043  11.620   6.389  1.2849  0.5122  1.1771
  703SOL    HW214089  11.119  11.492   6.362 -0.4418 -0.1257 -0.8970
  704SOL     OW14090   0.418   9.055   6.979  0.1856  0.5240 -0.1020
  704SOL    HW114091   0.487   9.117   6.953  0.1352  1.1371  1.1292
  704SOL    HW214092   0.453   9.015   7.059 -0.7670  0.6460  0.3817
  705SOL     OW14093   7.547   3.278  11.047  0.4552  0.1512  0.2779
  705SOL    HW114094   7.480   3.289  10.979  0.9276 -0.5603 -0.3277
  705SOL    HW214095   7.535   3.188  11.078  0.5814  0.3020  0.7731
  706SOL     OW14096   2.405   5.635  13.832  0.2576 -0.0164 -0.5539
  706SOL    HW114097   2.363   5.559  13.791  0.0740  0.4566 -1.2642
  706SOL    HW214098   2.437   5.603  13.916  1.6105 -1.3116 -1.5117
  707SOL     OW14099   1.133   4.650   7.340  0.4727  0.6994  0.2790
  707SOL    HW114100   1.125   4.633   7.246  0.8565  3.1701 -0.2641
  707SOL    HW214101   1.056   4.702   7.362 -0.0415 -0.5296  1.5593
  708SOL     OW14102   4.238  10.851   8.757 -0.2439  0.3464 -0.1536
  708SOL    HW114103   4.297  10.805   8.816 -0.1841  1.1836  0.4550
  708SOL    HW214104   4.153  10.807   8.769 -0.0346 -0.0390 -0.0861
  709SOL     OW14105  12.772   1.625   0.228 -0.2627  0.2646  0.2465
  709SOL    HW114106  12.848   1.683   0.221 -0.4351  0.4907  0.2690
  709SOL    HW214107  12.741   1.615   0.138 -0.9376  1.1389  0.3772
  710SOL     OW14108   1.716  13.198   8.201 -0.2460  0.3872  0.2912
  710SOL    HW114109   1.640  13.151   8.169  0.0440  0.4378 -0.5001
  710SOL    HW214110   1.723  13.275   8.144  2.1446 -1.1412 -1.7064
  711SOL     OW14111   8.801   3.287  11.407  0.0953 -0.3430 -0.2666
  711SOL    HW114112   8.747   3.331  11.472  0.4161 -0.7047  0.2545
  711SOL    HW214113   8.817   3.200  11.444  0.6720 -0.3881 -0.6125
  712SOL     OW14114   7.872   4.710  12.805 -0.3673 -0.0451 -0.3434
  712SOL    HW114115   7.851   4.800  12.779 -1.1075  0.4335  1.7891
  712SOL    HW214116   7.967   4.710  12.815 -0.2194  0.1321 -1.5310
  713SOL     OW14117   8.623   7.538   9.725 -0.6959  0.2157 -0.5729
  713SOL    HW114118   8.582   7.594   9.660 -2.3426  0.2003  0.3832
  713SOL    HW214119   8.605   7.581   9.809  0.0600 -0.5335 -0.0003
  714SOL     OW14120   1.153   3.998  12.032 -0.1075 -0.0130  0.5643
  714SOL    HW114121   1.173   3.942  12.107 -0.8653 -0.5629  0.3673
  714SOL    HW214122   1.206   3.962  11.961  0.6943  0.5754  0.8533
  715SOL     OW14123   0.992  10.983   1.673 -1.0857 -0.4839  0.2243
  715SOL    HW114124   1.042  10.911   1.636 -1.0629 -0.1326 -0.4406
  715SOL    HW214125   1.017  10.984   1.766 -0.2586 -0.6389  0.0137
  716SOL     OW14126   1.044  11.346  13.485  0.4788  0.3518  0.6044
  716SOL    HW114127   1.014  11.280  13.548 -1.0122  0.9105  0.5275
  716SOL    HW214128   1.109  11.396  13.533 -0.9132  1.0249  1.9005
  717SOL     OW14129  12.604   4.632   6.138 -0.2311  0.1596  0.3110
  717SOL    HW114130  12.633   4.542   6.148  0.2054  0.3516  0.8025
  717SOL    HW214131  12.631   4.656   6.050 -2.2467 -0.8672 -0.6582
  718SOL     OW14132   5.600   4.287  11.019 -0.0292 -0.1159 -0.1533
  718SOL    HW114133   5.565   4.371  10.991  2.1716  0.5737 -1.0879
  718SOL    HW214134   5.604   4.293  11.115 -2.1410 -0.1560 -0.0317
  719SOL     OW14135   5.526  12.513  10.829  0.1498 -0.6142 -0.2568
  719SOL    HW114136   5.486  12.551  10.750 -2.8924 -1.3706  0.7957
  719SOL    HW214137   5.545  12.423  10.804  1.1448 -0.2981 -0.7095
  720SOL     OW14138   0.044  13.465   0.238  0.2120  0.5099 -0.1824
  720SOL    HW114139   0.137  13.465   0.261  0.0296 -0.1949  0.6180
  720SOL    HW214140   0.008  13.542   0.283  0.4087  0.7874 -0.4994
  721SOL     OW14141   4.366   8.388   9.751  0.0245  0.1671 -0.2643
  721SOL    HW114142   4.446   8.335   9.747 -0.2675 -0.3847  0.7857
  721SOL    HW214143   4.372   8.446   9.676  0.5300 -1.1316 -1.2747
  722SOL     OW14144   6.942   9.201   2.829  0.1949 -0.9902  0.6767
  722SOL    HW114145   6.909   9.129   2.776  1.4058 -1.6098  0.7218
  722SOL    HW214146   6.968   9.160   2.911 -2.4227  0.0798  2.1484
  723SOL     OW14147   9.172   9.367  13.536  0.3371 -0.3564 -0.3523
  723SOL    HW114148   9.150   9.291  13.483 -2.2141  0.4122 -0.5566
  723SOL    HW214149   9.208   9.330  13.617 -0.4829 -1.7868 -0.6042
  724SOL     OW14150   1.950   8.924   1.271  0.7565 -0.7645 -0.2684
  724SOL    HW114151   1.976   8.893   1.184  0.6015  1.4266 -1.1505
  724SOL    HW214152   2.023   8.898   1.328  1.6128 -0.8386 -1.3663
  725SOL     OW14153  11.819   0.324   6.707 -0.3915  0.2730  0.3009
  725SOL    HW114154  11.737   0.292   6.669 -0.2268 -1.2802  1.1631
  725SOL    HW214155  11.886   0.302   6.641 -0.5938  1.1995 -0.2343
  726SOL     OW14156   0.271  10.543   9.544  0.6856  0.0689 -0.5119
  726SOL    HW114157   0.293  10.570   9.455 -0.6191  0.9447 -0.5997
  726SOL    HW214158   0.251  10.450   9.537  3.0712 -0.4742 -0.6358
  727SOL     OW14159   0.914   1.384  11.584 -0.0075  0.5882  0.3329
  727SOL    HW114160   0.950   1.325  11.649 -0.2332 -0.7942 -0.7288
  727SOL    HW214161   0.820   1.364  11.584  0.0811  0.0384 -0.8666
  728SOL     OW14162   4.587  12.748   8.844 -0.0056  0.4002 -0.1016
  728SOL    HW114163   4.527  12.819   8.865 -1.3838 -0.8235  0.2417
  728SOL    HW214164   4.546  12.703   8.770 -0.6169 -1.6817  1.4270
  729SOL     OW14165  10.486   3.387   2.726 -0.4174  0.3417  0.0226
  729SOL    HW114166  10.391   3.392   2.728 -0.4178  0.6860 -0.5741
  729SOL    HW214167  10.513   3.399   2.817 -0.8735  1.6595 -0.0008
  730SOL     OW14168   4.975  13.803   0.252  0.2987  0.1784  0.6362
  730SOL    HW114169   4.936  13.818   0.166 -0.3494  0.3665  0.9602
  730SOL    HW214170   4.902  13.779   0.308  0.9499 -1.9327  0.7034
  731SOL     OW14171  13.562   2.760   0.732  0.4602 -0.4129 -0.0311
  731SOL    HW114172  13.632   2.822   0.711  1.0542 -0.7910  0.7471
  731SOL    HW214173  13.608   2.683   0.767 -0.3568 -0.5682  0.7536
  732SOL     OW14174   7.597  12.371  12.721 -0.0473 -0.4571  0.4645
  732SOL    HW114175   7.689  12.351  12.735  0.0121 -1.0528 -0.6555
  732SOL    HW214176   7.597  12.449  12.665 -0.1937 -0.9408 -0.2288
  733SOL     OW14177  11.427  13.479   6.768  0.2607  0.4239 -0.0916
  733SOL    HW114178  11.498  13.526   6.726 -0.5301  1.8002  0.0507
  733SOL    HW214179  11.354  13.541   6.770  0.0348  0.2305  2.6960
  734SOL     OW14180   6.993   8.463   3.790 -0.3578  0.6707  0.6131
  734SOL    HW114181   7.031   8.551   3.784 -0.0411  0.4425 -1.6671
  734SOL    HW214182   7.064   8.409   3.825 -0.0417  1.0498  0.5651
  735SOL     OW14183  12.567  11.933   1.718 -0.0952 -0.6795 -0.9950
  735SOL    HW114184  12.580  11.858   1.775 -0.4744 -0.1806 -0.2428
  735SOL    HW214185  12.475  11.929   1.692 -0.7521  0.7492  0.8702
  736SOL     OW14186  10.220   3.144   3.531 -0.2749  0.0942  0.1684
  736SOL    HW114187  10.231   3.227   3.578  0.7515 -1.0876  2.1529
  736SOL    HW214188  10.302   3.097   3.546 -1.3635 -1.8641  0.2965
  737SOL     OW14189   0.014   9.461  12.669 -0.4421  0.0911 -0.0428
  737SOL    HW114190  -0.069   9.419  12.645  0.5373 -1.1210 -1.4727
  737SOL    HW214191   0.072   9.388  12.691  0.4403  0.8883  0.3236
  738SOL     OW14192   7.593   4.728   3.931  0.0195  0.4326 -0.4614
  738SOL    HW114193   7.524   4.692   3.987  0.5191  0.0254 -0.0979
  738SOL    HW214194   7.561   4.714   3.842  1.7006 -4.3356 -0.5976
  739SOL     OW14195  13.408  10.914  13.201 -0.2197 -0.0760 -0.1740
  739SOL    HW114196  13.437  10.941  13.114 -1.4248 -0.1381 -0.6102
  739SOL    HW214197  13.315  10.892  13.190 -0.0923 -1.2504  0.8679
  740SOL     OW14198   4.682   4.995   5.806 -0.4334 -0.4252 -0.7232
  740SOL    HW114199   4.696   5.087   5.780  0.3366 -0.2381  0.2983
  740SOL    HW214200   4.770   4.961   5.820 -0.7280 -1.2966 -0.9736
  741SOL     OW14201  11.624  12.989  13.881  0.3716 -0.2527  0.2070
  741SOL    HW114202  11.684  12.964  13.952  2.3502  0.5971 -1.0761
  741SOL    HW214203  11.614  12.909  13.830 -1.0231 -0.8565  1.3631
  742SOL     OW14204  13.540  10.517   6.182 -0.1179 -0.2116 -0.2785
  742SOL    HW114205  13.472  10.474   6.130  1.6618 -2.7406 -0.7386
  742SOL    HW214206  13.610  10.451   6.188  2.8313  2.6076 -0.8912
  743SOL     OW14207   5.135  11.036   4.706  0.0161  0.3712  0.2915
  743SOL    HW114208   5.039  11.041   4.700  0.0976  2.2901 -0.0020
  743SOL    HW214209   5.165  11.053   4.617  0.6530  0.0514  0.4408
  744SOL     OW14210   2.462  12.369   4.638  0.1417  0.0968 -0.1714
  744SOL    HW114211   2.505  12.298   4.589  1.1558  1.0611 -0.7293
  744SOL    HW214212   2.448  12.333   4.725  1.2221 -0.5911 -0.2598
  745SOL     OW14213   9.579   5.930   7.750 -0.7427  0.0203  0.2139
  745SOL    HW114214   9.565   5.931   7.845 -0.5478 -1.2848  0.2748
  745SOL    HW214215   9.492   5.920   7.713 -0.6943 -0.8474  0.3164
  746SOL     OW14216   7.744  11.163   8.836 -0.2399 -0.7723  0.0174
  746SOL    HW114217   7.771  11.144   8.746  1.3129  1.9884 -0.1985
  746SOL    HW214218   7.820  11.141   8.889 -0.5919 -0.9182  0.4672
  747SOL     OW14219  11.021  13.886   6.345 -0.4699 -0.3840 -0.2400
  747SOL    HW114220  10.999  13.803   6.303 -1.3301  0.7300 -2.1019
  747SOL    HW214221  10.996  13.953   6.281 -0.8547  1.3750  1.6533
  748SOL     OW14222   5.899   9.376   6.664  0.5500 -0.3201 -0.6070
  748SOL    HW114223   5.822   9.354   6.612 -1.1616 -1.2697  2.1394
  748SOL    HW214224   5.965   9.311   6.638  0.2424  0.0390 -2.4479
  749SOL     OW14225  13.384  11.039   4.630 -0.1140  0.3916 -0.3178
  749SOL    HW114226  13.437  11.093   4.690 -1.7269  1.0491  0.5742
  749SOL    HW214227  13.308  11.014   4.682  0.6914 -3.1239 -0.5491
  750SOL     OW14228   3.312   1.408   2.103  0.8510 -0.1624  0.3062
  750SOL    HW114229   3.309   1.502   2.085  0.4462 -0.1151  0.6081
  750SOL    HW214230   3.299   1.402   2.198  0.5339 -0.5427  0.2395
  751SOL     OW14231   4.856  10.905   6.949  0.3327 -1.1291 -0.0416
  751SOL    HW114232   4.813  10.969   7.007  1.2348 -0.1664 -0.4060
  751SOL    HW214233   4.815  10.920   6.863  1.7680  0.2270 -0.5362
  752SOL     OW14234   7.205   6.246   5.529  0.2367  0.1635  0.1572
  752SOL    HW114235   7.210   6.339   5.508  0.8037 -0.2914 -1.9571
  752SOL    HW214236   7.212   6.243   5.625  0.2536  2.2762  0.2714
  753SOL     OW14237  13.548   2.049   9.698 -0.6516  0.6106  0.6542
  753SOL    HW114238  13.522   1.979   9.637 -1.1074  0.4161  1.0632
  753SOL    HW214239  13.563   2.004   9.781 -1.8880  1.1083  1.1759
  754SOL     OW14240   0.547   8.047  12.627  0.4419 -0.0489 -0.2301
  754SOL    HW114241   0.484   7.976  12.638  0.6300 -0.3992 -1.3020
  754SOL    HW214242   0.494   8.122  12.601  0.3579 -0.0699 -0.1194
  755SOL     OW14243   0.010   0.977   4.645  0.1751 -0.5467 -0.2780
  755SOL    HW114244  -0.005   1.068   4.618  0.5921 -1.1650 -2.8260
  755SOL    HW214245   0.090   0.980   4.697 -0.9605  0.7956  1.5174
  756SOL     OW14246  10.018   9.155  12.162  0.0594  0.5163 -0.2441
  756SOL    HW114247  10.017   9.094  12.088 -2.6210  0.6642 -0.3929
  756SOL    HW214248  10.064   9.107  12.231  0.8726 -0.3799 -1.3727
  757SOL     OW14249   6.932   4.366  10.605  0.4564  0.1368  0.2567
  757SOL    HW114250   6.996   4.320  10.659  1.2787  0.0145 -0.7965
  757SOL    HW214251   6.975   4.448  10.580  0.1413  0.1417 -0.2976
  758SOL     OW14252  12.253   5.162   1.140  0.1044 -0.2455  0.6452
  758SOL    HW114253  12.321   5.152   1.074  0.6739 -0.8021  1.3007
  758SOL    HW214254  12.233   5.256   1.140 -0.7614 -0.3977 -1.1384
  759SOL     OW14255   2.577   6.109   7.422  0.3649 -0.5855 -0.0538
  759SOL    HW114256   2.555   6.120   7.330  1.0780  0.2819 -0.1349
  759SOL    HW214257   2.668   6.079   7.422  1.2515  1.8486  0.3790
  760SOL     OW14258   6.877   8.436  13.535  0.2350  0.5790 -0.4989
  760SOL    HW114259   6.937   8.364  13.516 -0.0518 -0.0685  0.9156
  760SOL    HW214260   6.793   8.408  13.498  0.3315  0.6019 -0.7393
  761SOL     OW14261   1.292  13.642  12.579 -0.5870 -0.1222  0.3531
  761SOL    HW114262   1.251  13.728  12.569  0.0847  0.3611  1.5406
  761SOL    HW214263   1.290  13.604  12.491 -0.4271  1.3107 -0.3015
  762SOL     OW14264   1.092  10.198   7.338  0.8162 -0.1157 -0.0834
  762SOL    HW114265   1.105  10.259   7.265 -0.9297 -0.2361 -0.5434
  762SOL    HW214266   1.046  10.250   7.404  0.1657 -0.6667 -0.0970
  763SOL     OW14267   4.253   3.915   2.762  0.0317  0.3578  0.5402
  763SOL    HW114268   4.198   3.838   2.748 -0.6560  0.7341  1.1044
  763SOL    HW214269   4.273   3.947   2.674 -1.2058  0.6015  0.3337
  764SOL     OW14270   0.617   3.966   3.823 -0.5229  0.1693  0.0606
  764SOL    HW114271   0.645   3.907   3.893  0.3052  0.6796  0.1707
  764SOL    HW214272   0.695   4.017   3.802 -0.5674 -0.4097 -1.6749
  765SOL     OW14273   7.727   4.788   4.395  0.0018 -0.2319 -0.0987
  765SOL    HW114274   7.644   4.826   4.425 -0.2998  0.4895 -1.7107
  765SOL    HW214275   7.732   4.813   4.302  1.7251 -0.8047 -0.1905
  766SOL     OW14276   8.458   4.732  12.875  0.4843  1.0284 -0.0510
  766SOL    HW114277   8.367   4.726  12.901  0.4832  0.0292 -0.2507
  766SOL    HW214278   8.458   4.712  12.781  1.0910 -0.7790  0.2976
  767SOL     OW14279   4.889   2.062   6.495 -0.1839 -0.0491  0.0515
  767SOL    HW114280   4.900   2.129   6.562 -0.8802 -0.7351  0.8728
  767SOL    HW214281   4.820   2.096   6.438  0.1118  0.3467 -0.0680
  768SOL     OW14282  12.789   5.343   1.615 -0.0480  0.4692 -0.1712
  768SOL    HW114283  12.799   5.433   1.582 -0.8677  0.4905 -0.3928
  768SOL    HW214284  12.826   5.288   1.547  0.6140  0.6363  0.0389
  769SOL     OW14285  11.202   7.460   2.183  0.4318 -0.5204  0.0836
  769SOL    HW114286  11.291   7.438   2.157  0.3281 -0.1034 -0.6669
  769SOL    HW214287  11.147   7.416   2.118  0.0495 -1.3021  0.9092
  770SOL     OW14288  12.364   6.462  11.913  0.5916 -0.3343 -0.1328
  770SOL    HW114289  12.432   6.484  11.849 -0.6797 -0.9615 -1.7797
  770SOL    HW214290  12.282   6.472  11.865 -0.3095 -3.4441  0.5693
  771SOL     OW14291  12.887   0.964   7.076  0.1801  0.0665  0.2717
  771SOL    HW114292  12.973   0.984   7.114  0.2058  2.0281 -0.7137
  771SOL    HW214293  12.861   1.045   7.032 -1.3471 -1.0734 -1.0306
  772SOL     OW14294   8.824  12.824   3.919  0.0512  0.4544  0.2165
  772SOL    HW114295   8.917  12.843   3.920  0.0510  0.4371  0.6629
  772SOL    HW214296   8.789  12.867   3.997 -0.3927  0.8483 -0.1933
  773SOL     OW14297   6.455   3.658   1.145  0.6857 -0.0947  0.0416
  773SOL    HW114298   6.389   3.725   1.159 -1.6282 -1.8565 -1.5960
  773SOL    HW214299   6.425   3.583   1.195  0.6244 -1.3936 -1.8303
  774SOL     OW14300   0.151  11.602   2.435  0.0135 -0.0476 -0.3406
  774SOL    HW114301   0.120  11.690   2.415 -0.5446 -0.2587 -0.4258
  774SOL    HW214302   0.106  11.546   2.371  0.4776 -0.3739 -0.3843
  775SOL     OW14303  11.539   4.589   5.238 -0.5926 -0.4635 -0.3162
  775SOL    HW114304  11.577   4.536   5.308  1.3972  0.1120 -0.9033
  775SOL    HW214305  11.499   4.525   5.178 -1.1676 -1.0412  0.6643
  776SOL     OW14306  13.806  10.268   2.921 -0.0044 -0.6063 -0.2337
  776SOL    HW114307  13.848  10.225   2.995  1.3896 -0.7457 -1.0592
  776SOL    HW214308  13.799  10.360   2.948  0.6972 -0.6109 -0.0042
  777SOL     OW14309   5.156   9.304  10.677 -0.1074  0.6056 -0.1685
  777SOL    HW114310   5.177   9.397  10.685  1.6089  0.3067 -0.7734
  777SOL    HW214311   5.233   9.265  10.635 -0.2379 -1.3130  1.2142
  778SOL     OW14312   6.936   6.757  12.736 -0.1063 -0.0561 -0.1360
  778SOL    HW114313   6.898   6.715  12.658 -0.7306 -0.8657  0.5836
  778SOL    HW214314   7.019   6.792  12.706  0.4840 -1.8868 -0.7738
  779SOL     OW14315  12.093  10.580   4.262  0.3603 -0.1549  0.7073
  779SOL    HW114316  12.156  10.603   4.194  0.2036  1.5460  1.0943
  779SOL    HW214317  12.090  10.484   4.261  0.2216 -0.1968 -1.7951
  780SOL     OW14318   2.624   0.116   2.636 -0.2783 -0.0122 -0.0970
  780SOL    HW114319   2.588   0.155   2.556 -1.1068  0.6845  0.5852
  780SOL    HW214320   2.548   0.104   2.693  0.0653 -1.9744  0.0127
  781SOL     OW14321   1.038  11.676   8.873  0.1468  0.9064 -0.0276
  781SOL    HW114322   1.108  11.644   8.816 -1.1805 -0.0345 -1.1954
  781SOL    HW214323   1.010  11.758   8.833 -0.3090  0.6049 -0.3325
  782SOL     OW14324   3.933   0.050  13.284  0.2453  0.2438 -0.3583
  782SOL    HW114325   3.980   0.078  13.362 -0.0569  0.0553 -0.1077
  782SOL    HW214326   3.935   0.127  13.226 -0.9502  0.9396  0.4934
  783SOL     OW14327   3.240   6.963   3.515 -0.1356 -0.0840  0.5175
  783SOL    HW114328   3.331   6.937   3.527  0.1752  0.1079 -1.1205
  783SOL    HW214329   3.206   6.900   3.452 -0.9496  0.2246  0.6399
  784SOL     OW14330   9.517   9.546   0.643 -0.3397 -0.5635  0.3095
  784SOL    HW114331   9.539   9.637   0.662 -1.2947 -0.0760 -0.8273
  784SOL    HW214332   9.598   9.508   0.609  0.1595 -0.2531  1.1165
  785SOL     OW14333   6.458   6.515   1.842 -0.3321 -0.0578 -0.4059
  785SOL    HW114334   6.407   6.445   1.884  0.0745 -1.7555 -2.5845
  785SOL    HW214335   6.533   6.470   1.803  0.1724  1.6761 -1.5449
  786SOL     OW14336   9.663  11.741   5.868 -0.0468  0.1414 -0.1009
  786SOL    HW114337   9.724  11.668   5.884  0.1736 -0.4627 -3.0083
  786SOL    HW214338   9.577  11.704   5.888  0.2659  0.0082  1.0929
  787SOL     OW14339   0.137   6.681  10.032 -0.8232  0.5758 -0.3558
  787SOL    HW114340   0.056   6.640  10.062 -1.2158  0.2091 -1.8532
  787SOL    HW214341   0.140   6.663   9.938  1.1483  0.3274 -0.2945
  788SOL     OW14342  12.703   6.230   0.061  0.3965  0.1096  0.0272
  788SOL    HW114343  12.759   6.175   0.116 -0.3238 -0.4098  0.2548
  788SOL    HW214344  12.631   6.257   0.118  0.7856  1.3934 -0.0476
  789SOL     OW14345   2.633   5.849   9.127  0.1919  0.0471  1.0006
  789SOL    HW114346   2.718   5.812   9.104  0.2345  1.0266 -0.5354
  789SOL    HW214347   2.570   5.780   9.103  0.4657 -0.1575  0.8635
  790SOL     OW14348  12.503   6.725  13.712  0.1124 -0.1662 -0.0385
  790SOL    HW114349  12.530   6.720  13.804  2.5857 -1.0135 -0.7265
  790SOL    HW214350  12.486   6.634  13.687  0.5723 -0.0777 -0.7008
  791SOL     OW14351  10.779   5.036  10.483  0.3287 -0.2461 -0.4214
  791SOL    HW114352  10.728   5.074  10.555 -0.5874  0.7699 -1.5668
  791SOL    HW214353  10.830   4.967  10.525  0.3665  0.7769  1.3324
  792SOL     OW14354   4.070   7.279  13.073  0.1869  0.4119  0.1997
  792SOL    HW114355   4.111   7.357  13.036  1.1612 -0.7057 -1.1843
  792SOL    HW214356   4.042   7.228  12.997  0.8909 -1.2698  1.0316
  793SOL     OW14357   3.106  13.027  11.507 -0.5565 -0.2721 -0.0342
  793SOL    HW114358   3.134  12.960  11.445 -0.0668  0.3846 -0.5441
  793SOL    HW214359   3.038  13.076  11.460 -0.6655 -0.1930  0.2024
  794SOL     OW14360   0.346   7.862   6.773 -0.3350 -0.3126 -0.5785
  794SOL    HW114361   0.383   7.934   6.824 -2.4302 -0.5579  1.4603
  794SOL    HW214362   0.421   7.811   6.744  1.0179 -0.0736  2.1967
  795SOL     OW14363   0.994   0.295  11.680  0.2172  0.2696 -0.3704
  795SOL    HW114364   1.072   0.340  11.650  1.1261 -0.0045  1.4731
  795SOL    HW214365   0.928   0.364  11.689  0.9367  0.8874  0.2927
  796SOL     OW14366   4.034   8.433  11.990  0.6103 -0.0008  0.2910
  796SOL    HW114367   3.966   8.368  11.974  2.3160 -1.9199  0.4133
  796SOL    HW214368   4.006   8.511  11.942 -1.7061 -0.6691  0.4780
  797SOL     OW14369  10.180   5.563   6.777 -0.3199 -0.6729  0.0337
  797SOL    HW114370  10.208   5.525   6.860 -0.4137 -1.2462 -0.1849
  797SOL    HW214371  10.218   5.504   6.711  0.8289  0.4837 -0.3791
  798SOL     OW14372   6.463  10.315  10.161 -0.9393 -0.4593  0.7697
  798SOL    HW114373   6.462  10.321  10.066  0.4711 -0.4848  0.7301
  798SOL    HW214374   6.554  10.291  10.183 -1.0946  0.0955  2.1484
  799SOL     OW14375  13.675  13.370  10.658  0.3391 -0.5039 -0.0306
  799SOL    HW114376  13.755  13.326  10.629  0.3623 -1.0699  0.8533
  799SOL    HW214377  13.706  13.445  10.709  0.2944  0.0726 -0.8250
  800SOL     OW14378   0.254   4.547   5.887 -0.3367  0.2125 -0.0979
  800SOL    HW114379   0.232   4.454   5.884 -0.7960  0.3214 -0.1342
  800SOL    HW214380   0.225   4.581   5.802 -3.3349  1.0797  1.1723
  801SOL     OW14381   1.226  12.301   0.258  0.3345  0.4466 -0.7332
  801SOL    HW114382   1.217  12.229   0.195  0.6036  0.8251 -1.2191
  801SOL    HW214383   1.315  12.333   0.244 -0.3090  1.9456 -1.7256
  802SOL     OW14384  13.906   4.062   1.066 -0.3681 -0.1043  0.0278
  802SOL    HW114385  13.877   4.047   0.976  1.0456  2.2282 -0.8947
  802SOL    HW214386  13.976   3.998   1.080 -0.3505 -0.2403 -0.6679
  803SOL     OW14387  13.707  11.794   1.348  0.0768 -0.8061 -0.0482
  803SOL    HW114388  13.759  11.874   1.361  0.1373 -0.8167 -0.2177
  803SOL    HW214389  13.744  11.730   1.408 -0.0196 -0.6840  0.1424
  804SOL     OW14390   4.810   5.112   3.579 -0.3575  0.0311 -0.2220
  804SOL    HW114391   4.855   5.196   3.576  0.5349 -0.3755  0.8705
  804SOL    HW214392   4.828   5.072   3.494  1.2643 -0.0643  0.1410
  805SOL     OW14393   7.799  12.585   0.306 -0.3406 -0.0668  0.2605
  805SOL    HW114394   7.783  12.491   0.310 -0.5860 -0.1260 -1.5004
  805SOL    HW214395   7.893  12.593   0.289 -0.5371 -0.0565 -0.9118
  806SOL     OW14396  13.441   2.979   1.662  0.0372 -0.2144 -0.3189
  806SOL    HW114397  13.465   2.932   1.742 -2.5702 -0.3852  0.4353
  806SOL    HW214398  13.408   2.911   1.603 -2.9652  0.4074  0.4743
  807SOL     OW14399   3.575   8.166   9.506 -0.1514  0.6473  0.0596
  807SOL    HW114400   3.640   8.197   9.442 -0.2206  0.8862  0.1027
  807SOL    HW214401   3.557   8.076   9.480  1.5340 -0.0355  1.1257
  808SOL     OW14402   9.907  11.079   5.687 -0.3574  0.8952  0.1492
  808SOL    HW114403   9.849  11.137   5.637  0.3227  0.7517 -0.8454
  808SOL    HW214404   9.850  11.012   5.722 -0.8008  0.7280 -0.8499
  809SOL     OW14405  10.881  13.704  10.537  0.5773  0.3283  0.3152
  809SOL    HW114406  10.788  13.729  10.538  0.5137  0.2371  2.7938
  809SOL    HW214407  10.900  13.679  10.628  2.1762 -2.9245 -0.7529
  810SOL     OW14408  10.935  13.885   3.464  0.4425 -0.3637  0.1191
  810SOL    HW114409  10.941  13.974   3.497  0.8079 -0.9536  1.7301
  810SOL    HW214410  10.904  13.894   3.374 -0.9289  1.3111  0.7155
  811SOL     OW14411   1.702   4.124   0.725 -0.0006 -0.5062 -0.1895
  811SOL    HW114412   1.747   4.132   0.641  2.4436 -1.8808  0.8860
  811SOL    HW214413   1.691   4.214   0.755  2.0371 -0.0771 -0.5616
  812SOL     OW14414   0.258  11.818  10.280  0.0477  0.3264  0.0130
  812SOL    HW114415   0.332  11.772  10.319  0.2595  1.6088  1.2050
  812SOL    HW214416   0.246  11.895  10.336 -2.2663  0.0967 -0.0939
  813SOL     OW14417   2.251   1.139   4.413  0.2235 -0.1295  0.0405
  813SOL    HW114418   2.272   1.077   4.344  1.2503 -0.7387  0.8624
  813SOL    HW214419   2.245   1.085   4.492 -1.7328  0.4323  0.3221
  814SOL     OW14420  13.122   4.614  10.569 -0.1602 -0.6232  0.3017
  814SOL    HW114421  13.187   4.630  10.500 -0.3061  0.6068  0.4283
  814SOL    HW214422  13.153   4.667  10.643 -0.7938 -0.7899  0.6897
  815SOL     OW14423  10.190  11.034   1.182  0.0722 -0.1154  0.1311
  815SOL    HW114424  10.155  11.114   1.220 -0.4161 -0.1772 -0.1844
  815SOL    HW214425  10.152  11.030   1.094  2.8118  1.1475 -1.2270
  816SOL     OW14426  10.864  10.558   2.389 -0.1945  0.3230 -0.0727
  816SOL    HW114427  10.891  10.648   2.372  0.0685  0.0742 -1.0481
  816SOL    HW214428  10.946  10.508   2.390 -0.4406 -0.1218 -0.9994
  817SOL     OW14429   9.528   2.515   7.482  0.5169 -0.0060  0.1160
  817SOL    HW114430   9.466   2.576   7.443  0.2204  0.0948  0.7371
  817SOL    HW214431   9.486   2.430   7.475 -1.0153  0.3807  3.0533
  818SOL     OW14432   5.555   7.936   9.291 -0.0685 -0.3020  0.4800
  818SOL    HW114433   5.594   7.946   9.204  0.0690 -1.7530  0.3438
  818SOL    HW214434   5.551   8.025   9.326 -0.8236  0.4218 -1.3060
  819SOL     OW14435  13.335  10.109   7.986  0.2337  0.3701 -0.3057
  819SOL    HW114436  13.303  10.195   8.016  2.3561  1.2779 -0.4427
  819SOL    HW214437  13.345  10.058   8.067 -0.2607  0.5400 -0.1356
  820SOL     OW14438   2.684   2.726   2.417 -0.2966 -0.1080  0.0159
  820SOL    HW114439   2.744   2.680   2.358 -0.0989 -0.5189  0.5243
  820SOL    HW214440   2.732   2.802   2.447  0.1602 -0.6955  0.7997
  821SOL     OW14441   9.019   8.934   2.586 -0.3569 -0.0253 -0.2542
  821SOL    HW114442   9.094   8.881   2.558  1.2586  0.5247  2.6295
  821SOL    HW214443   8.996   8.985   2.508  3.0664  0.6650 -0.9889
  822SOL     OW14444   6.297   7.763   6.453  0.3776  0.6379  0.3517
  822SOL    HW114445   6.330   7.678   6.484  0.6408  0.4781 -0.3523
  822SOL    HW214446   6.332   7.826   6.516 -0.4868  0.1477  1.3419
  823SOL     OW14447  10.369   0.588   6.382  0.6265 -0.2562 -0.8918
  823SOL    HW114448  10.345   0.598   6.289 -0.4608  0.5853 -0.5415
  823SOL    HW214449  10.438   0.652   6.396  2.0612 -1.5945 -1.5194
  824SOL     OW14450   0.449   9.501   4.710  0.9186 -0.6514 -0.3465
  824SOL    HW114451   0.417   9.482   4.799 -1.8951  0.0336 -1.1445
  824SOL    HW214452   0.521   9.563   4.724  1.4539 -1.5823  1.4902
  825SOL     OW14453   7.440   7.810  12.288 -0.3440  0.0842  0.2109
  825SOL    HW114454   7.519   7.804  12.235  0.2514 -0.6121  1.1386
  825SOL    HW214455   7.369   7.781  12.230  0.3755 -1.2309 -0.0339
  826SOL     OW14456  10.203   8.784   7.594  0.0521 -0.2894 -0.5182
  826SOL    HW114457  10.292   8.748   7.585  0.7464  1.2578 -0.0697
  826SOL    HW214458  10.170   8.744   7.674  0.6106 -0.3211 -0.2973
  827SOL     OW14459   7.130   8.173   6.525 -0.1156 -0.1175 -0.0986
  827SOL    HW114460   7.113   8.214   6.440  0.5811  0.4191  0.0098
  827SOL    HW214461   7.225   8.176   6.535 -0.0983 -1.1812  0.2169
  828SOL     OW14462   6.305   7.970  10.131 -0.3247 -0.1414 -0.0638
  828SOL    HW114463   6.261   7.922  10.060  0.7890 -0.2413 -0.7007
  828SOL    HW214464   6.277   7.925  10.210 -2.1162  0.3681 -0.3536
  829SOL     OW14465   4.354   7.615   2.701  0.2880 -0.0375 -0.3373
  829SOL    HW114466   4.397   7.613   2.616  0.1150 -2.7151 -0.4568
  829SOL    HW214467   4.345   7.523   2.725 -0.9355  0.6053  1.9452
  830SOL     OW14468   6.110   0.939  12.156 -0.1554 -0.8014  0.1726
  830SOL    HW114469   6.144   0.955  12.244 -0.6600 -1.0393  0.4180
  830SOL    HW214470   6.097   0.844  12.152 -3.3293 -0.5370  1.0927
  831SOL     OW14471   8.765   9.892  12.288  0.1466  0.0799  0.2505
  831SOL    HW114472   8.711   9.970  12.274 -0.2022 -0.4390 -1.6833
  831SOL    HW214473   8.784   9.860  12.199  0.9375 -1.5959  0.9704
  832SOL     OW14474  13.405   1.442   3.412  0.1463  0.1515 -0.0014
  832SOL    HW114475  13.407   1.409   3.502 -0.5862 -1.3571 -0.5059
  832SOL    HW214476  13.394   1.363   3.358  0.6640  1.0222 -1.4174
  833SOL     OW14477   4.587   9.457   1.690  0.0397  0.3151  0.6389
  833SOL    HW114478   4.595   9.522   1.620  1.5011  0.6296  1.0716
  833SOL    HW214479   4.497   9.424   1.682 -0.2702  1.3702 -0.4722
  834SOL     OW14480  10.550   5.271  12.817  0.3761  0.2826 -0.1464
  834SOL    HW114481  10.488   5.343  12.804  1.2376  0.8486 -1.2948
  834SOL    HW214482  10.517   5.224  12.894 -0.3199  1.7800  0.5116
  835SOL     OW14483   2.869   5.141   1.557 -0.6102 -0.2132  0.1793
  835SOL    HW114484   2.822   5.072   1.603 -0.6854  0.7864  1.6922
  835SOL    HW214485   2.960   5.112   1.556 -0.9182 -1.1868 -0.8905
  836SOL     OW14486   1.974  11.593   0.429  0.2896  0.2660 -1.2199
  836SOL    HW114487   1.902  11.577   0.368 -0.7103 -3.3024  0.5819
  836SOL    HW214488   1.933  11.639   0.502  0.2750 -0.0561 -1.0243
  837SOL     OW14489   9.420   5.723   1.976 -0.1220 -0.1949 -0.5839
  837SOL    HW114490   9.376   5.798   2.016  1.0082  0.2680 -0.1586
  837SOL    HW214491   9.353   5.681   1.922 -0.9876  0.6521 -0.1893
  838SOL     OW14492  12.993  12.865   3.122  0.1924 -0.2439  0.1767
  838SOL    HW114493  12.923  12.921   3.154  1.8406  0.4367  2.9820
  838SOL    HW214494  13.067  12.924   3.107  0.6567 -1.1228 -1.2010
  839SOL     OW14495   2.734   3.639   7.570 -0.4171  0.2472  0.4702
  839SOL    HW114496   2.787   3.632   7.490 -0.5877 -0.0046  0.3760
  839SOL    HW214497   2.714   3.732   7.578  1.7024  0.6850  1.5949
  840SOL     OW14498  12.522   8.365  12.921  0.4238 -0.1687 -0.3399
  840SOL    HW114499  12.452   8.411  12.874  0.6674  0.1612 -0.3780
  840SOL    HW214500  12.601   8.413  12.899  0.4521  0.3974  0.9325
  841SOL     OW14501   8.509  12.160   8.493  0.1133  0.0267  0.1446
  841SOL    HW114502   8.488  12.187   8.583  0.6133  0.7281  0.0565
  841SOL    HW214503   8.505  12.064   8.496 -2.5656  0.0532  0.2541
  842SOL     OW14504   5.797   8.189   1.697 -0.4570 -0.4076 -0.0191
  842SOL    HW114505   5.864   8.210   1.763 -1.1474 -0.4200  0.7089
  842SOL    HW214506   5.773   8.098   1.716 -2.2149  0.2390  1.1666
  843SOL     OW14507  13.373  11.924   9.638 -0.0569  0.6077  0.1076
  843SOL    HW114508  13.450  11.870   9.655  0.3262  0.6125 -1.5270
  843SOL    HW214509  13.299  11.869   9.666  0.4894  0.5949  1.6714
  844SOL     OW14510  12.767   7.618   2.588  0.5053  0.0285  0.1554
  844SOL    HW114511  12.768   7.540   2.644 -0.6731  0.7656  1.2374
  844SOL    HW214512  12.854   7.655   2.598  0.3381  0.1089  1.4632
  845SOL     OW14513   5.230   7.153   7.912 -0.4963 -0.0277 -0.7332
  845SOL    HW114514   5.179   7.214   7.966  1.1147  1.3598 -0.6927
  845SOL    HW214515   5.238   7.196   7.827 -1.0406 -1.1428 -1.3749
  846SOL     OW14516   2.443  11.998  11.515 -0.6503 -0.1095  0.0163
  846SOL    HW114517   2.471  11.922  11.567  0.9928  0.1374 -0.4646
  846SOL    HW214518   2.355  12.017  11.547 -0.6251 -1.4751  0.9910
  847SOL     OW14519   1.494   7.105   4.688 -0.7143  0.0871 -0.0347
  847SOL    HW114520   1.416   7.159   4.671 -1.3234 -1.0014 -0.8158
  847SOL    HW214521   1.520   7.071   4.603  0.7399  0.5628  0.1951
  848SOL     OW14522  10.259  11.705   8.567 -0.2251  0.0778  0.3995
  848SOL    HW114523  10.314  11.643   8.615  0.7635  1.3435  0.9437
  848SOL    HW214524  10.242  11.776   8.628  1.7900  2.1553 -1.2858
  849SOL     OW14525  11.247   9.570   8.418 -0.5314 -0.4101  0.3103
  849SOL    HW114526  11.334   9.555   8.381 -0.2119  0.5767  0.6463
  849SOL    HW214527  11.197   9.492   8.393  0.2902 -0.7424 -0.3427
  850SOL     OW14528  12.310   8.414   8.693  0.3199 -0.0296  0.3013
  850SOL    HW114529  12.287   8.507   8.696  0.5339  0.0186  2.7144
  850SOL    HW214530  12.403   8.414   8.669  0.8416  0.5759  2.0901
  851SOL     OW14531   9.027   0.632   5.825  0.1419 -0.2855  0.7451
  851SOL    HW114532   8.942   0.623   5.782  0.2777 -2.1408  0.7840
  851SOL    HW214533   9.042   0.547   5.867  1.7188  0.2258  1.2968
  852SOL     OW14534  10.072  11.756  12.669 -0.6968 -0.3515  0.0688
  852SOL    HW114535  10.086  11.820  12.600 -3.6899  0.9299  0.4745
  852SOL    HW214536  10.040  11.678  12.623 -0.7193 -0.2122 -0.1541
  853SOL     OW14537  12.990   7.062   7.498  0.1396  0.0113 -0.3320
  853SOL    HW114538  12.926   7.107   7.553  0.5767 -0.2247  0.3866
  853SOL    HW214539  12.985   7.106   7.413 -0.0444  0.8429  0.1077
  854SOL     OW14540   1.820   6.557   5.712  0.4127  0.0002  0.2238
  854SOL    HW114541   1.774   6.609   5.646  0.8188 -0.5167 -0.4865
  854SOL    HW214542   1.912   6.581   5.702  0.6056 -0.8452 -0.1195
  855SOL     OW14543   8.645   4.850   4.945  0.0213  0.1182  0.1252
  855SOL    HW114544   8.595   4.789   4.891 -2.3574  2.7909 -0.9761
  855SOL    HW214545   8.635   4.818   5.034 -0.7543 -1.3254 -0.4475
  856SOL     OW14546   4.840   7.657   1.136 -0.2354  0.4116  0.0600
  856SOL    HW114547   4.898   7.596   1.182 -1.0252  1.2198  2.2274
  856SOL    HW214548   4.881   7.743   1.148 -0.9686  0.7574  0.1173
  857SOL     OW14549   9.822   7.196   1.309  0.2773 -0.0819  0.4476
  857SOL    HW114550   9.908   7.239   1.312  0.3920  0.2595 -3.2441
  857SOL    HW214551   9.838   7.112   1.266 -1.2389  0.1084 -0.5657
  858SOL     OW14552  12.402  12.926   2.629  0.7686 -0.1594 -0.1861
  858SOL    HW114553  12.479  12.965   2.587  0.4624  0.4601 -0.1800
  858SOL    HW214554  12.363  12.871   2.560 -0.0248  1.2527 -0.9155
  859SOL     OW14555   4.467  10.611   9.710  0.1872  0.4692 -0.8689
  859SOL    HW114556   4.522  10.656   9.645  1.2286 -2.6561 -2.3534
  859SOL    HW214557   4.488  10.518   9.699 -2.1736 -0.4960  1.6407
  860SOL     OW14558   8.529   8.007   0.950 -0.1256 -0.0315 -0.1832
  860SOL    HW114559   8.435   8.009   0.964  0.0720  0.2251  1.1960
  860SOL    HW214560   8.561   7.941   1.012  0.6946  0.4771 -0.0582
  861SOL     OW14561  12.875   0.955   9.142  0.1660 -0.0296  0.1750
  861SOL    HW114562  12.898   1.048   9.132  0.9039  0.0728  2.4616
  861SOL    HW214563  12.781   0.956   9.162 -0.3049  0.0360 -1.8209
  862SOL     OW14564   3.353   1.426  10.964  0.2874  0.1272  0.6845
  862SOL    HW114565   3.373   1.449  10.873 -2.3019 -0.6884 -0.1863
  862SOL    HW214566   3.381   1.335  10.972  1.3609  0.4733  1.0235
  863SOL     OW14567  12.308   3.568   4.416  0.0222  0.2930 -0.2891
  863SOL    HW114568  12.392   3.614   4.407 -0.7597  1.8078 -0.2046
  863SOL    HW214569  12.247   3.635   4.448 -1.9842  0.0694 -3.2325
  864SOL     OW14570   9.347   2.393   9.548  0.2871 -0.3233 -0.6054
  864SOL    HW114571   9.410   2.380   9.477 -0.2170 -0.4586 -1.0340
  864SOL    HW214572   9.322   2.304   9.574 -0.3895 -0.2638 -1.0368
  865SOL     OW14573   8.766   7.932  13.544 -0.0745 -0.4391  0.1527
  865SOL    HW114574   8.713   7.952  13.468 -0.2743  0.6606  0.5663
  865SOL    HW214575   8.747   7.840  13.563  0.1112 -0.7813 -1.2042
  866SOL     OW14576   3.147   9.561   8.252 -0.5174 -0.6096  0.1833
  866SOL    HW114577   3.239   9.541   8.272 -0.8452 -0.9669  1.4773
  866SOL    HW214578   3.108   9.577   8.338 -1.5354  0.1436 -0.4089
  867SOL     OW14579  10.024  13.936   7.993 -0.0780 -0.4588  0.3806
  867SOL    HW114580  10.101  13.931   7.936 -0.4782  1.0825 -0.3599
  867SOL    HW214581  10.051  13.991   8.066 -0.5532  0.3419 -0.0378
  868SOL     OW14582   7.600   4.402  14.018 -0.2573 -0.5363 -0.1463
  868SOL    HW114583   7.561   4.489  14.022 -0.0157 -0.4759  1.7891
  868SOL    HW214584   7.652   4.403  13.938 -0.8057  0.8536 -0.5138
  869SOL     OW14585  10.327  11.051  11.621 -0.6800 -0.2020  0.5230
  869SOL    HW114586  10.254  11.074  11.563 -0.2718 -0.1207  0.0355
  869SOL    HW214587  10.402  11.099  11.585  0.0093 -1.6110 -0.0082
  870SOL     OW14588   3.981  10.718  11.120 -0.0149  0.1101  0.4960
  870SOL    HW114589   3.958  10.734  11.028 -0.2186 -2.5045 -0.0086
  870SOL    HW214590   4.075  10.734  11.125  0.1502 -0.4903 -0.4080
  871SOL     OW14591  10.372  10.152   5.218 -0.6077 -0.4521 -0.1657
  871SOL    HW114592  10.438  10.213   5.249 -1.4379  0.7255 -0.6262
  871SOL    HW214593  10.294  10.206   5.204 -1.6372 -1.7687  0.2337
  872SOL     OW14594  11.179   2.715  12.506  0.1419 -0.0109 -0.2218
  872SOL    HW114595  11.177   2.725  12.411  0.5841 -2.6452 -0.5944
  872SOL    HW214596  11.141   2.796  12.539  0.1386  1.0702 -2.6203
  873SOL     OW14597   9.117   1.467  11.973  0.0274 -0.5038  0.0318
  873SOL    HW114598   9.183   1.534  11.956 -0.7478 -0.0143 -1.1882
  873SOL    HW214599   9.163   1.399  12.023  1.1495  0.3406  0.1672
  874SOL     OW14600   6.842   3.841  11.558  0.4781 -0.0488 -0.3875
  874SOL    HW114601   6.870   3.906  11.623 -0.2822  0.6288 -0.7169
  874SOL    HW214602   6.811   3.893  11.484 -0.4481 -0.7890 -0.5347
  875SOL     OW14603   9.030   4.369  12.444  0.4218  0.1247  0.4924
  875SOL    HW114604   9.087   4.412  12.380 -0.0533 -0.1697 -0.1387
  875SOL    HW214605   8.949   4.353  12.397 -0.4672  1.1815  1.5791
  876SOL     OW14606   0.012   4.677   7.068 -0.0082 -0.1988  0.3507
  876SOL    HW114607  -0.007   4.757   7.117 -1.5919 -0.6519  0.5525
  876SOL    HW214608  -0.023   4.607   7.123  2.7323 -1.2249  0.9121
  877SOL     OW14609  11.942  11.312   3.247 -0.7912 -0.2005  0.2366
  877SOL    HW114610  11.902  11.370   3.182 -1.0630  2.3164  2.4506
  877SOL    HW214611  11.869  11.263   3.284 -0.9426 -0.0566  0.1278
  878SOL     OW14612   3.550  12.761  10.078  0.6048  0.5938  0.1751
  878SOL    HW114613   3.497  12.811  10.017  0.2634 -0.0486 -0.0626
  878SOL    HW214614   3.640  12.782  10.054  0.5033 -0.3251 -1.1483
  879SOL     OW14615   3.738   3.243   7.379  0.0399 -0.7337  0.8448
  879SOL    HW114616   3.658   3.212   7.421 -0.2122 -0.0474  0.8748
  879SOL    HW214617   3.791   3.277   7.451 -0.6489  1.0100  0.5591
  880SOL     OW14618   0.449   0.152   1.192  0.1153 -0.7427  0.1058
  880SOL    HW114619   0.431   0.081   1.130  2.3959 -0.2675 -1.2400
  880SOL    HW214620   0.433   0.232   1.142  1.3925 -0.3476  0.2868
  881SOL     OW14621  12.301   3.706   6.994  0.1822 -0.1880  0.0066
  881SOL    HW114622  12.241   3.700   7.068  0.2675  0.1334  0.1036
  881SOL    HW214623  12.299   3.619   6.955  0.3602 -0.4539  0.5684
  882SOL     OW14624   6.318   8.737   1.208 -0.0010  0.0088 -0.0271
  882SOL    HW114625   6.406   8.752   1.173  0.2229 -0.8462  0.1364
  882SOL    HW214626   6.287   8.823   1.233  0.6370  0.3727 -0.4622
  883SOL     OW14627   3.706   4.731   0.840  0.1286  0.2216  0.1468
  883SOL    HW114628   3.632   4.709   0.897 -0.6397  0.7985 -0.5978
  883SOL    HW214629   3.759   4.652   0.839 -0.6587 -0.3288  0.4277
  884SOL     OW14630  13.536   9.359   9.122  0.1575  0.2285  0.2948
  884SOL    HW114631  13.545   9.303   9.045 -0.6192  0.5830 -0.0745
  884SOL    HW214632  13.441   9.370   9.132  0.1613 -0.9797  2.1758
  885SOL     OW14633   2.579   0.216   9.131  0.4886 -0.5155  0.0731
  885SOL    HW114634   2.619   0.267   9.202  0.0776  0.0100 -0.0742
  885SOL    HW214635   2.520   0.155   9.176  0.3234 -0.2704  0.1876
  886SOL     OW14636   4.303   3.328   3.212  0.2930 -0.6700  0.1727
  886SOL    HW114637   4.313   3.372   3.127  1.1873 -0.1612  0.5303
  886SOL    HW214638   4.218   3.357   3.244  0.3246 -0.1808 -0.1732
  887SOL     OW14639  12.291   1.891  13.679 -0.2253 -0.1382 -0.0263
  887SOL    HW114640  12.314   1.983  13.665  2.0015 -0.9521 -2.2859
  887SOL    HW214641  12.215   1.876  13.622  1.7672 -0.5527 -2.7552
  888SOL     OW14642  13.481  10.240   8.824 -0.2782  0.2276 -0.2538
  888SOL    HW114643  13.548  10.184   8.865  0.3794  0.8047 -0.5208
  888SOL    HW214644  13.515  10.257   8.737 -0.9691  0.2211 -0.5298
  889SOL     OW14645   8.472   9.525   5.347 -0.3530  0.4827 -0.1032
  889SOL    HW114646   8.460   9.562   5.259  0.1918  0.1503 -0.3214
  889SOL    HW214647   8.474   9.431   5.333 -1.5021  0.3641  0.4287
  890SOL     OW14648   5.794   4.700   2.980 -0.3961  0.0969 -0.1311
  890SOL    HW114649   5.848   4.661   3.048 -0.8949  0.1460  0.2944
  890SOL    HW214650   5.851   4.765   2.938 -0.2672  0.4792  0.6199
  891SOL     OW14651   2.764   4.319   8.720  0.0202  0.5116  0.0253
  891SOL    HW114652   2.747   4.394   8.777  1.6497  0.0583  1.1929
  891SOL    HW214653   2.853   4.332   8.689  0.1457 -0.6724 -0.1653
  892SOL     OW14654   7.418   8.914   4.925 -0.5959 -0.3499  0.0183
  892SOL    HW114655   7.489   8.977   4.917 -0.0938 -0.9388 -0.1925
  892SOL    HW214656   7.450   8.850   4.989 -0.9210 -0.6377 -0.1053
  893SOL     OW14657   7.338  12.616   5.924  0.6045  0.1224  0.6938
  893SOL    HW114658   7.340  12.633   5.830 -1.4151  1.5794  0.8503
  893SOL    HW214659   7.363  12.699   5.964 -1.9416  0.6362  1.4074
  894SOL     OW14660   6.003  13.841   0.002 -0.0544  0.5995  0.7996
  894SOL    HW114661   5.968  13.754   0.017  1.0848  0.1435  0.9079
  894SOL    HW214662   6.087  13.826  -0.042 -0.4746  1.6904 -0.4387
  895SOL     OW14663   5.370   2.243   4.794  0.0059 -0.4066  0.2244
  895SOL    HW114664   5.336   2.264   4.707  1.1597 -1.4955 -0.5402
  895SOL    HW214665   5.368   2.325   4.842 -0.1809  0.3295 -1.0033
  896SOL     OW14666  13.232  11.085  10.511  0.1268 -0.5898 -0.1701
  896SOL    HW114667  13.151  11.034  10.510 -0.7755  0.7361 -1.6982
  896SOL    HW214668  13.245  11.111  10.419  0.0876  2.4704  0.5720
  897SOL     OW14669  11.823   7.067  12.893  0.3926  0.3680  0.2032
  897SOL    HW114670  11.761   7.013  12.943 -0.4078 -0.3413 -1.4884
  897SOL    HW214671  11.908   7.028  12.911  0.2671  0.6891  1.7007
  898SOL     OW14672  12.030   2.030   1.123  0.0767 -0.3240 -0.0066
  898SOL    HW114673  12.087   1.985   1.061  0.6935 -0.6371  0.7636
  898SOL    HW214674  12.061   2.121   1.122 -0.3891 -0.1677 -0.6834
  899SOL     OW14675   2.609   4.140   2.844 -0.1054 -0.4735  0.6023
  899SOL    HW114676   2.692   4.167   2.884  0.1802 -2.8886  1.8171
  899SOL    HW214677   2.620   4.158   2.750  1.3954  0.1473  0.8769
  900SOL     OW14678  10.693  13.459   7.062 -0.1611 -0.0820 -0.1492
  900SOL    HW114679  10.632  13.432   6.993  1.1311 -3.1154 -0.2440
  900SOL    HW214680  10.771  13.490   7.016 -0.2828  0.4493 -0.0138
  901SOL     OW14681   2.695   8.951  13.891 -0.2675  0.2674 -0.3394
  901SOL    HW114682   2.604   8.927  13.907 -0.3800  0.8440 -0.0978
  901SOL    HW214683   2.710   9.028  13.946  0.5245 -0.1342  0.0222
  902SOL     OW14684  11.421   2.437   7.807  0.2258  0.3938 -0.2916
  902SOL    HW114685  11.414   2.436   7.903  2.1748 -0.2507 -0.1233
  902SOL    HW214686  11.401   2.348   7.781  0.2609  0.4298 -0.4411
  903SOL     OW14687   8.955   5.205   0.059  0.4127 -0.2711  0.1379
  903SOL    HW114688   9.030   5.253   0.095 -0.3444  0.4096  0.8573
  903SOL    HW214689   8.880   5.238   0.109 -0.1962 -1.8854  0.3224
  904SOL     OW14690   0.731  12.757  10.046  0.4221  0.0848 -0.0281
  904SOL    HW114691   0.739  12.765   9.951 -1.2001  2.0884 -0.0554
  904SOL    HW214692   0.808  12.802  10.081  0.9428 -0.5257 -0.3581
  905SOL     OW14693   1.471  11.249  12.493 -0.2962 -0.0805  0.3065
  905SOL    HW114694   1.417  11.178  12.459 -0.4791 -0.2385  0.9087
  905SOL    HW214695   1.522  11.279  12.418  0.6718 -1.6412  0.2883
  906SOL     OW14696   9.853   9.016   3.474 -0.2017  0.3764  0.3024
  906SOL    HW114697   9.872   9.048   3.385 -0.4648 -0.7582 -0.1714
  906SOL    HW214698   9.759   9.028   3.484 -0.1336  0.7437  0.5385
  907SOL     OW14699   4.573  11.248   3.396  0.0393  0.0095  0.0567
  907SOL    HW114700   4.638  11.188   3.433  1.5258  1.6465  0.2360
  907SOL    HW214701   4.573  11.228   3.303 -0.3128 -1.0094  0.2615
  908SOL     OW14702   3.970  10.221   6.805  0.4511 -0.6318  0.3726
  908SOL    HW114703   4.063  10.236   6.790  0.4716 -0.7877  0.3455
  908SOL    HW214704   3.928  10.246   6.723  0.3734  0.3499  0.6960
  909SOL     OW14705   0.033  11.263   9.514  0.0529 -0.3293 -0.1010
  909SOL    HW114706   0.084  11.263   9.596 -3.2857  0.2153  2.1705
  909SOL    HW214707   0.022  11.355   9.493 -2.2854 -0.2361  1.1485
  910SOL     OW14708  13.971  10.154   3.809 -0.0335  0.2791 -0.2689
  910SOL    HW114709  14.065  10.144   3.827  0.2516  0.9890 -1.2802
  910SOL    HW214710  13.931  10.075   3.845  1.0547 -0.4102 -0.5323
  911SOL     OW14711   3.630   6.966  12.894  0.0248  0.0037  0.3027
  911SOL    HW114712   3.718   7.000  12.878  0.2042 -1.0884 -1.1546
  911SOL    HW214713   3.574   7.044  12.893  0.3603  0.3801 -3.4673
  912SOL     OW14714   0.157  10.853   8.639 -0.2441  0.5778 -0.2290
  912SOL    HW114715   0.172  10.776   8.694  0.1267  0.4753 -0.4737
  912SOL    HW214716   0.077  10.831   8.590  0.9526 -0.5230 -1.7912
  913SOL     OW14717   9.002   2.196   0.780 -0.0056  0.1655  0.4198
  913SOL    HW114718   9.069   2.134   0.808 -1.6193 -2.0054 -0.2440
  913SOL    HW214719   8.975   2.165   0.694 -2.2784  0.5835  0.9282
  914SOL     OW14720   7.897   8.003   9.934 -0.0386  0.0285  0.4310
  914SOL    HW114721   7.906   8.065   9.862  1.7628 -1.3344 -0.6001
  914SOL    HW214722   7.847   8.051  10.001 -0.1171  1.9862 -0.9451
  915SOL     OW14723   5.444   8.760  11.950 -0.2579 -0.3505 -0.1337
  915SOL    HW114724   5.501   8.689  11.917 -1.7893 -1.0283 -1.4587
  915SOL    HW214725   5.502   8.836  11.954  1.4527 -1.6294  1.3517
  916SOL     OW14726   4.889   6.428  12.653  0.1788 -0.1301 -0.7369
  916SOL    HW114727   4.931   6.492  12.710 -1.2734  0.3471 -0.1331
  916SOL    HW214728   4.798   6.459  12.646 -1.0661 -2.9605  0.9295
  917SOL     OW14729   9.832  12.493   4.754  0.0191 -0.0186  0.2103
  917SOL    HW114730   9.806  12.575   4.713  1.0040  0.8115  1.1662
  917SOL    HW214731   9.919  12.510   4.789  0.5465 -1.6974 -0.1494
  918SOL     OW14732   1.006   7.727   8.056 -0.7302  0.3443 -0.7048
  918SOL    HW114733   0.952   7.775   8.119  1.4886  1.6165  0.3430
  918SOL    HW214734   0.945   7.701   7.987 -2.6685  1.6033  0.4351
  919SOL     OW14735   0.622  11.909   7.636  0.3457 -0.0342 -0.2655
  919SOL    HW114736   0.545  11.876   7.681  0.7953  0.2885  0.7759
  919SOL    HW214737   0.589  11.981   7.582  0.0936  1.0639  1.2711
  920SOL     OW14738   2.517   9.239   4.424 -0.1846 -0.4287  0.1264
  920SOL    HW114739   2.491   9.225   4.333  0.6107 -0.9040 -0.0413
  920SOL    HW214740   2.543   9.152   4.455  1.2001  0.0066  0.2588
  921SOL     OW14741   0.054   1.194   0.856 -0.1375 -0.4439  0.2234
  921SOL    HW114742   0.107   1.167   0.781 -1.6968  0.7366 -1.4039
  921SOL    HW214743   0.024   1.111   0.894  2.5989 -1.1325  1.1022
  922SOL     OW14744   0.889   1.691   0.854  0.7150  0.7053 -0.4363
  922SOL    HW114745   0.886   1.599   0.881 -0.7890  1.2638  1.5673
  922SOL    HW214746   0.809   1.703   0.802  0.9645  0.8689 -0.7877
  923SOL     OW14747   0.064   2.807  11.453 -0.2346  0.0861 -0.3156
  923SOL    HW114748  -0.014   2.783  11.403 -0.3916 -2.2956  0.9347
  923SOL    HW214749   0.031   2.857  11.528 -0.1943  1.7831 -1.3671
  924SOL     OW14750   2.503  11.671   1.431  0.1999 -0.0508 -0.0177
  924SOL    HW114751   2.572  11.606   1.423 -0.2509 -1.0384  2.9171
  924SOL    HW214752   2.435  11.628   1.483 -2.1348  1.2910 -1.7866
  925SOL     OW14753   5.965   3.176   6.573  0.1612 -0.3353  0.4907
  925SOL    HW114754   5.882   3.221   6.588 -0.7105 -2.0769  1.1665
  925SOL    HW214755   6.021   3.241   6.531 -2.3111  0.2192 -2.2313
  926SOL     OW14756   7.293   1.083   1.089 -0.6115 -0.0108 -0.4839
  926SOL    HW114757   7.237   1.012   1.120  0.4753 -0.4570  0.5595
  926SOL    HW214758   7.359   1.092   1.158  0.1806  0.9549 -1.3497
  927SOL     OW14759   6.813  12.902   6.926  0.3753 -0.4472  0.3316
  927SOL    HW114760   6.881  12.881   6.862  0.2497  0.2643 -0.0541
  927SOL    HW214761   6.800  12.821   6.975  3.5748  0.0961  2.4131
  928SOL     OW14762  13.411   1.703   8.526 -0.4874 -0.6605  0.3595
  928SOL    HW114763  13.432   1.721   8.435 -1.1134 -0.7261  0.1963
  928SOL    HW214764  13.422   1.609   8.536 -0.0372 -0.5992  0.4565
  929SOL     OW14765   8.334   8.621   4.506  0.0719  0.2559  0.1696
  929SOL    HW114766   8.382   8.624   4.589 -0.1928  0.9555  0.3050
  929SOL    HW214767   8.359   8.702   4.461 -0.5848  0.3830  0.0227
  930SOL     OW14768   1.802   8.058   5.518  0.0061 -0.2037  0.2561
  930SOL    HW114769   1.814   8.130   5.456  0.3977 -0.4391  0.0550
  930SOL    HW214770   1.888   8.046   5.558  0.6269 -2.2263 -1.5432
  931SOL     OW14771  10.516   6.027   3.382  0.0089 -0.0419 -0.2820
  931SOL    HW114772  10.495   6.116   3.411  0.3254  0.3977 -1.3382
  931SOL    HW214773  10.609   6.031   3.360 -0.2903 -0.2349 -1.6804
  932SOL     OW14774   6.412   3.106  13.362  0.3178  0.1952 -0.0388
  932SOL    HW114775   6.390   3.014  13.345  0.7066 -0.2292  1.5600
  932SOL    HW214776   6.422   3.111  13.457  1.1966  1.7004 -0.1730
  933SOL     OW14777   1.042   1.146  10.848  0.4267  0.1044  0.1979
  933SOL    HW114778   0.980   1.196  10.795  0.5043 -0.9444 -0.9023
  933SOL    HW214779   1.022   1.055  10.830  1.1238 -0.2708  1.2150
  934SOL     OW14780   4.595   6.640   4.302  0.3524  0.1560 -0.7289
  934SOL    HW114781   4.525   6.705   4.302 -0.1958 -0.4156 -1.4712
  934SOL    HW214782   4.667   6.681   4.253  0.3990  0.5956 -0.2946
  935SOL     OW14783   4.396   2.007   0.078  0.0901  0.6308  0.1082
  935SOL    HW114784   4.357   2.024   0.163 -3.0454 -0.1101 -1.0153
  935SOL    HW214785   4.395   1.911   0.070  0.9854  0.6606 -0.4848
  936SOL     OW14786   5.701   3.594   1.357  0.1074  0.3236  0.2509
  936SOL    HW114787   5.700   3.658   1.287  0.7496  0.2496  0.1676
  936SOL    HW214788   5.756   3.523   1.324 -0.5870 -0.2678  0.3443
  937SOL     OW14789   3.365   9.170   1.104  0.1912 -0.1508  0.3007
  937SOL    HW114790   3.353   9.236   1.171 -0.2719 -0.2794  0.3493
  937SOL    HW214791   3.458   9.174   1.082  0.0274  1.0355 -0.2437
  938SOL     OW14792   6.731  13.065   1.835 -0.3392 -0.0520 -0.0509
  938SOL    HW114793   6.643  13.028   1.829 -0.6926  0.7449  0.0751
  938SOL    HW214794   6.763  13.035   1.920 -1.7256  2.2146  1.3656
  939SOL     OW14795   5.783  11.530   9.146 -0.1180  0.5839 -0.2213
  939SOL    HW114796   5.830  11.605   9.110  0.2874  0.1830 -0.5560
  939SOL    HW214797   5.852  11.474   9.182 -0.2950 -0.1965 -1.0559
  940SOL     OW14798  12.983   5.727  14.023 -0.3444 -0.0980 -0.1089
  940SOL    HW114799  13.032   5.717  14.104 -1.0881 -0.8777  0.2566
  940SOL    HW214800  12.899   5.685  14.039  0.1127 -1.8231 -1.8156
  941SOL     OW14801  12.019   9.805   2.849  0.1473 -0.6259 -0.0064
  941SOL    HW114802  11.925   9.821   2.844  0.4872  1.6538 -0.4505
  941SOL    HW214803  12.042   9.771   2.763 -0.3538 -2.0071  0.3732
  942SOL     OW14804   0.191  13.228   5.381  0.5408  0.4892 -0.0390
  942SOL    HW114805   0.245  13.235   5.302 -0.1950 -0.3888 -0.6379
  942SOL    HW214806   0.132  13.303   5.376 -1.5500 -1.1738 -1.9482
  943SOL     OW14807   0.730  11.479   7.030 -0.5899 -0.4809 -0.2486
  943SOL    HW114808   0.807  11.449   7.078 -0.6769  0.0723  0.2560
  943SOL    HW214809   0.690  11.399   6.995  0.0324 -0.7973 -0.2494
  944SOL     OW14810   0.335   4.452   0.046 -0.2505 -0.3390  0.1396
  944SOL    HW114811   0.338   4.521   0.113 -1.4367 -1.5721  1.5381
  944SOL    HW214812   0.339   4.499  -0.037 -1.0500  1.4236  1.0453
  945SOL     OW14813   1.220   6.700   8.848 -0.4724  0.7511 -0.0604
  945SOL    HW114814   1.251   6.646   8.921 -1.0666  2.0837  1.2415
  945SOL    HW214815   1.136   6.661   8.824  0.0454 -0.1167 -0.5382
  946SOL     OW14816   2.293  11.885   8.600 -0.1691  0.3572 -0.1625
  946SOL    HW114817   2.369  11.912   8.652  0.6125  0.7374 -1.4553
  946SOL    HW214818   2.327  11.820   8.539 -1.4060 -1.2804  0.8175
  947SOL     OW14819  13.164   8.007   9.622  0.1386 -0.5545 -0.0943
  947SOL    HW114820  13.101   8.078   9.640 -1.0391 -0.9328 -2.3126
  947SOL    HW214821  13.242   8.052   9.590  1.1452 -0.0733  2.7438
  948SOL     OW14822   8.990   9.552  13.465 -0.6732  0.2038  0.0697
  948SOL    HW114823   9.061   9.490  13.482  0.7952  1.4833 -0.9770
  948SOL    HW214824   8.930   9.505  13.408 -0.1666 -0.6165  0.1954
  949SOL     OW14825   9.299   2.104   7.051  0.2246 -0.2631  0.1072
  949SOL    HW114826   9.382   2.150   7.039 -0.2945  0.3778 -1.3162
  949SOL    HW214827   9.243   2.166   7.096 -0.9340  1.2144 -3.0413
  950SOL     OW14828  13.204   3.599  13.756 -0.4501  0.3916  0.5300
  950SOL    HW114829  13.136   3.533  13.739  0.0668 -0.0282  0.0811
  950SOL    HW214830  13.262   3.595  13.680  0.4481  0.3002  1.2062
  951SOL     OW14831   6.355  13.259   4.990  0.7085  0.4171  0.6762
  951SOL    HW114832   6.413  13.192   4.954 -1.3278 -2.0511  1.7160
  951SOL    HW214833   6.326  13.224   5.074 -2.5666  1.2907  0.0656
  952SOL     OW14834   7.515   2.871   7.831 -0.1740  0.1624 -0.1326
  952SOL    HW114835   7.505   2.782   7.797 -0.6449  0.4074 -0.6429
  952SOL    HW214836   7.428   2.909   7.826  0.2749  1.1219 -1.2605
  953SOL     OW14837   0.278   0.984  13.097  0.4502  0.0513  0.2755
  953SOL    HW114838   0.317   0.903  13.063  1.9064  0.3540  1.1160
  953SOL    HW214839   0.207   1.004  13.036 -0.2359 -2.0717  0.2768
  954SOL     OW14840   8.902  11.422   5.673 -0.8825  0.5440  0.4635
  954SOL    HW114841   8.951  11.441   5.592 -0.4702 -1.2118  0.2532
  954SOL    HW214842   8.813  11.451   5.654 -1.2343 -1.4207 -1.3608
  955SOL     OW14843   2.005   1.700   4.744  0.1874  0.0703  0.5732
  955SOL    HW114844   1.939   1.768   4.748 -1.5069 -1.4781  0.3091
  955SOL    HW214845   2.088   1.746   4.753 -0.7167  2.4338 -1.8091
  956SOL     OW14846   2.943   1.771   1.329  0.0058  0.5222  0.2753
  956SOL    HW114847   2.894   1.689   1.334  1.1062 -0.1047  1.9521
  956SOL    HW214848   3.020   1.750   1.275 -0.2690  0.7720 -0.2164
  957SOL     OW14849   8.990   6.649   8.162  0.0698  0.5490 -0.3996
  957SOL    HW114850   8.910   6.615   8.122  0.8278 -2.3612  0.3410
  957SOL    HW214851   8.962   6.682   8.248 -0.2177 -1.5970  0.3826
  958SOL     OW14852   8.587   9.494   6.806  0.0508 -0.0581 -0.5604
  958SOL    HW114853   8.572   9.433   6.878 -0.4547  0.5782 -0.1286
  958SOL    HW214854   8.672   9.466   6.769 -0.3155 -1.2197 -0.5786
  959SOL     OW14855   1.171  12.308  11.086 -0.0460  0.0848 -0.2197
  959SOL    HW114856   1.181  12.388  11.034  1.3885 -0.0856 -0.2258
  959SOL    HW214857   1.078  12.308  11.110  0.2685  2.8322  1.4725
  960SOL     OW14858  12.749   9.988   0.555 -0.4447  0.2821  0.5272
  960SOL    HW114859  12.707  10.042   0.489  0.0123  1.0900  0.8922
  960SOL    HW214860  12.753   9.901   0.516 -2.7094  0.0885  0.5825
  961SOL     OW14861   7.225  13.759   2.398 -0.2162  0.0797  0.6077
  961SOL    HW114862   7.291  13.690   2.398 -1.2666 -0.9586  0.3452
  961SOL    HW214863   7.261  13.827   2.455  0.2162 -1.3262  2.0946
  962SOL     OW14864   5.890   7.363  11.653  0.3255 -0.0782 -0.2958
  962SOL    HW114865   5.961   7.386  11.592  1.5098 -1.6859  0.4008
  962SOL    HW214866   5.935   7.337  11.733 -0.9958 -2.1224 -0.1585
  963SOL     OW14867   2.196   3.383   4.999 -0.4813 -0.0844 -0.0279
  963SOL    HW114868   2.184   3.292   5.026 -0.8009 -0.3895 -1.1439
  963SOL    HW214869   2.290   3.389   4.978 -0.4416 -0.1354  0.1381
  964SOL     OW14870   5.201  10.112   0.713  0.5607  0.5514  0.1760
  964SOL    HW114871   5.197  10.145   0.803  1.6109  3.5539 -0.7456
  964SOL    HW214872   5.286  10.068   0.707  2.1227  3.3483 -0.1149
  965SOL     OW14873   2.673  13.359   6.270 -0.2551 -0.1408 -0.6567
  965SOL    HW114874   2.704  13.389   6.184  0.0828  0.4633 -0.3314
  965SOL    HW214875   2.674  13.437   6.325  1.5497 -0.8891  0.4750
  966SOL     OW14876   1.561   3.548   9.154  0.2538 -0.5865  0.1624
  966SOL    HW114877   1.645   3.592   9.140  0.9005 -1.6536  0.5556
  966SOL    HW214878   1.527   3.535   9.066  0.8157 -0.7393 -0.0395
  967SOL     OW14879   6.749  13.449  11.553 -0.0969 -0.0163 -0.2883
  967SOL    HW114880   6.691  13.522  11.576 -0.6591 -0.2336 -0.9738
  967SOL    HW214881   6.715  13.375  11.602 -0.0279 -0.0042 -0.2228
  968SOL     OW14882   1.269   5.109  11.859  0.1471 -0.1964  0.1879
  968SOL    HW114883   1.333   5.121  11.789 -0.7632  0.4931 -0.5515
  968SOL    HW214884   1.307   5.041  11.915  0.6667 -1.1351 -1.2411
  969SOL     OW14885   4.213   4.199  13.943  0.8484 -0.1718 -0.1061
  969SOL    HW114886   4.244   4.174  13.856  1.0324  0.5751 -0.2685
  969SOL    HW214887   4.257   4.283  13.960 -1.6785  1.3746 -0.6981
  970SOL     OW14888  13.453   8.221   9.924  0.0337 -0.3666 -0.0170
  970SOL    HW114889  13.454   8.176   9.840  0.2569 -1.5112  0.5901
  970SOL    HW214890  13.446   8.152   9.989  2.5684  0.2543  1.0472
  971SOL     OW14891   5.049   6.764   1.862 -0.4825  0.4788  0.7221
  971SOL    HW114892   5.018   6.832   1.803  2.2875  0.5041 -0.8983
  971SOL    HW214893   4.973   6.708   1.877 -1.8430  1.7447 -1.0768
  972SOL     OW14894  11.705   1.215  10.605 -0.0906  0.3260  0.4238
  972SOL    HW114895  11.777   1.192  10.664  0.4574  2.2372  0.5799
  972SOL    HW214896  11.688   1.308  10.623 -1.2667  0.4304 -1.0181
  973SOL     OW14897  11.761   3.515   7.514  0.1468  0.4594 -0.1951
  973SOL    HW114898  11.718   3.597   7.539  1.7689  1.3460 -0.1930
  973SOL    HW214899  11.837   3.509   7.571  2.2292  0.9799 -2.7047
  974SOL     OW14900   1.663   0.072  13.899 -0.3477  0.3812 -0.5089
  974SOL    HW114901   1.706   0.145  13.943 -1.0309  1.4227 -1.5264
  974SOL    HW214902   1.732   0.006  13.889  0.1817  0.7165  0.7498
  975SOL     OW14903   0.402   0.828   0.351 -0.0308  0.2227 -0.7587
  975SOL    HW114904   0.388   0.807   0.258 -1.3896  1.4794 -0.8771
  975SOL    HW214905   0.338   0.774   0.397 -1.8599  2.1413 -0.8833
  976SOL     OW14906   7.392  13.810  10.359 -0.5248  0.6105  0.3383
  976SOL    HW114907   7.432  13.765  10.285  1.4348 -2.0552  2.8048
  976SOL    HW214908   7.298  13.789  10.352 -0.2772 -0.1605 -1.0010
  977SOL     OW14909  13.874   3.371   1.356  0.3686 -0.0979 -0.1340
  977SOL    HW114910  13.797   3.401   1.405  0.1969  1.0326 -1.0525
  977SOL    HW214911  13.948   3.404   1.407  0.2394 -0.4340  0.2818
  978SOL     OW14912   8.938   7.761  14.014 -0.5454  0.4319 -0.7417
  978SOL    HW114913   8.852   7.794  13.990 -1.4567 -1.0768  0.2794
  978SOL    HW214914   8.969   7.715  13.936 -1.3782 -0.3325 -0.6502
  979SOL     OW14915  11.477  12.972   3.905  0.2540 -0.1840 -0.1419
  979SOL    HW114916  11.437  12.942   3.823 -0.8438  1.8884 -0.4345
  979SOL    HW214917  11.403  12.994   3.961  1.0020  0.1430  0.7482
  980SOL     OW14918   1.152  12.692   2.263 -0.4896  0.3034 -0.0769
  980SOL    HW114919   1.229  12.690   2.320 -0.2879  1.6658 -0.2641
  980SOL    HW214920   1.156  12.611   2.214 -0.4076 -0.6962  1.5035
  981SOL     OW14921   1.115   5.040  11.359 -0.4874 -0.1352  0.2040
  981SOL    HW114922   1.184   5.103  11.339 -0.6935  0.7237  2.1106
  981SOL    HW214923   1.090   5.005  11.273  0.5362  1.3930 -0.7620
  982SOL     OW14924   4.885   1.314  10.116  0.0910 -0.0000 -0.0084
  982SOL    HW114925   4.941   1.314  10.039 -0.9096 -0.0594 -0.7597
  982SOL    HW214926   4.796   1.316  10.081 -0.3852  1.9324  1.1589
  983SOL     OW14927   9.128   7.582   0.278 -0.3371  0.4228 -0.1047
  983SOL    HW114928   9.174   7.541   0.205 -1.0263 -2.0462  0.7393
  983SOL    HW214929   9.087   7.660   0.241 -0.5033 -0.6489 -2.2865
  984SOL     OW14930   1.317   3.609   4.470  0.3409 -0.2805 -0.2194
  984SOL    HW114931   1.382   3.542   4.493  0.5575  0.4847  1.6198
  984SOL    HW214932   1.242   3.589   4.526  0.5271  1.1703  0.6018
  985SOL     OW14933   2.599  12.071   4.734 -0.6086 -0.0983  0.1458
  985SOL    HW114934   2.559  12.003   4.787 -0.3357 -1.4062 -1.2614
  985SOL    HW214935   2.649  12.124   4.797 -0.9088 -1.1133  1.2778
  986SOL     OW14936   1.582   5.637   3.730 -0.2825 -0.6670  0.0989
  986SOL    HW114937   1.517   5.701   3.699  0.5307  1.0996  1.8672
  986SOL    HW214938   1.554   5.617   3.819  3.2132  2.6885  2.2372
  987SOL     OW14939  10.111   3.483   3.459  0.0861 -0.0995 -0.0657
  987SOL    HW114940  10.089   3.482   3.552  0.9033 -0.1284  0.1378
  987SOL    HW214941  10.044   3.538   3.418  1.7496  3.0053  1.0828
  988SOL     OW14942   8.898   3.456   5.756 -0.2517  0.1049 -0.2386
  988SOL    HW114943   8.988   3.423   5.760 -0.8619 -1.5236  0.4619
  988SOL    HW214944   8.902   3.540   5.803  0.6378 -0.5878  0.9937
  989SOL     OW14945  13.425   0.905  13.797  0.1798 -0.0523  0.7354
  989SOL    HW114946  13.359   0.967  13.765  0.5463 -0.7579 -1.5922
  989SOL    HW214947  13.391   0.874  13.881 -1.9960  0.2929  0.0335
  990SOL     OW14948   7.684  13.895   9.956  0.1109 -0.2801  0.2134
  990SOL    HW114949   7.740  13.845  10.016  0.8458  0.9700  0.6182
  990SOL    HW214950   7.596  13.885   9.992  0.0890 -1.9697 -0.2210
  991SOL     OW14951   0.385   3.651   8.193  0.5115 -0.0161 -0.0105
  991SOL    HW114952   0.395   3.645   8.288 -0.4533 -0.1077  0.0987
  991SOL    HW214953   0.305   3.702   8.180  1.4887  1.3877 -0.8059
  992SOL     OW14954   9.906   7.444   2.149  0.7275  0.5192  0.6193
  992SOL    HW114955   9.925   7.529   2.188  0.3725  0.2103  1.4891
  992SOL    HW214956   9.813   7.428   2.170  0.3893  0.5662 -0.7875
  993SOL     OW14957  10.569   0.819   7.141 -0.0619  0.1108 -0.1446
  993SOL    HW114958  10.642   0.824   7.080 -0.5859 -0.0656 -0.8070
  993SOL    HW214959  10.571   0.729   7.175 -0.6975 -0.2847 -1.1100
  994SOL     OW14960   4.020   6.607  11.754 -0.2548 -0.0974  0.1731
  994SOL    HW114961   4.077   6.681  11.732 -0.8356  1.4732  3.3281
  994SOL    HW214962   4.072   6.552  11.812 -1.0640 -0.0067  1.0229
  995SOL     OW14963   1.275  10.504   9.542  0.6102  0.4977  0.7971
  995SOL    HW114964   1.219  10.468   9.473  0.6078  1.7957  0.0942
  995SOL    HW214965   1.361  10.466   9.527  0.3639 -0.0511  0.7461
  996SOL     OW14966   1.468   2.918   8.513  0.0658 -0.4350  0.2033
  996SOL    HW114967   1.506   2.836   8.479  0.2114 -0.4939  0.5060
  996SOL    HW214968   1.467   2.976   8.437 -0.1245 -0.7472 -0.0396
  997SOL     OW14969  10.656   0.457   6.352 -0.0250  0.4461 -0.3412
  997SOL    HW114970  10.599   0.526   6.385 -0.6914 -0.6020  0.8154
  997SOL    HW214971  10.654   0.390   6.420 -1.0995 -1.6611 -2.2861
  998SOL     OW14972   7.861   4.596   2.108  0.7234  0.2447 -0.0146
  998SOL    HW114973   7.842   4.521   2.052  2.5766 -0.7608  0.6270
  998SOL    HW214974   7.817   4.670   2.065  0.6262 -0.8092 -1.8130
  999SOL     OW14975  13.697   0.302  11.082 -0.2580 -0.0580 -0.3123
  999SOL    HW114976  13.650   0.321  11.001 -0.2114 -0.9012 -0.5476
  999SOL    HW214977  13.733   0.214  11.069  1.0304  0.3981  0.0266
 1000SOL     OW14978   0.478   2.206   7.005  0.2713  0.5668  0.1844
 1000SOL    HW114979   0.441   2.118   7.008  1.4787  0.0560  2.6091
 1000SOL    HW214980   0.402   2.263   6.994 -0.6181 -0.7203 -0.5889
 1001SOL     OW14981  13.696   0.349  12.103 -0.2113 -0.3327 -0.0051
 1001SOL    HW114982  13.690   0.408  12.028 -1.0322  0.5162  0.6913
 1001SOL    HW214983  13.707   0.407  12.179  0.5833 -1.1636  0.5468
 1002SOL     OW14984  11.557   7.303  13.958  0.0810 -0.5640 -0.1013
 1002SOL    HW114985  11.562   7.380  13.901  2.1347 -0.8828 -0.4389
 1002SOL    HW214986  11.526   7.337  14.041 -0.2478  0.4168 -0.6070
 1003SOL     OW14987  11.928   1.010   0.383  0.2964 -0.7055 -0.0693
 1003SOL    HW114988  11.953   1.074   0.316  1.0360  1.0181  1.7530
 1003SOL    HW214989  11.849   0.968   0.348  0.0184  0.9113 -1.5139
 1004SOL     OW14990  13.936   0.922  11.572 -0.2105 -0.0915  0.4676
 1004SOL    HW114991  13.921   1.016  11.561  2.5599  0.2259 -1.7796
 1004SOL    HW214992  13.986   0.916  11.654 -0.4379  0.3850  0.6493
 1005SOL     OW14993  11.697   6.714   7.739  0.1334 -0.7756 -0.0451
 1005SOL    HW114994  11.652   6.696   7.657  0.8435  1.3684 -0.9494
 1005SOL    HW214995  11.630   6.752   7.795 -0.3093 -2.0844  0.3547
 1006SOL     OW14996   0.249   2.872  12.060  0.0657  0.1070 -0.2457
 1006SOL    HW114997   0.153   2.883  12.061  0.1816  1.2778 -0.2982
 1006SOL    HW214998   0.265   2.816  11.984 -0.5291  0.5801 -0.7411
 1007SOL     OW14999   1.452   8.532  11.958 -0.3845  0.0945 -0.5855
 1007SOL    HW115000   1.514   8.496  11.894  1.1942 -1.3201  1.5879
 1007SOL    HW215001   1.505   8.595  12.009 -0.8562 -0.6620  0.9033
 1008SOL     OW15002   2.158   0.546  13.665 -0.1303  0.2349  0.4004
 1008SOL    HW115003   2.196   0.478  13.720 -0.0784 -0.6982 -0.7615
 1008SOL    HW215004   2.064   0.527  13.664 -0.0263 -0.3103 -0.5444
 1009SOL     OW15005  11.615   0.529   8.725 -0.1340  0.1775  0.6575
 1009SOL    HW115006  11.678   0.549   8.795  3.5764  0.8284 -2.5451
 1009SOL    HW215007  11.649   0.451   8.682 -1.7524  0.3232 -1.0427
 1010SOL     OW15008  11.971   1.620  11.230 -0.0316 -0.5109 -0.4690
 1010SOL    HW115009  11.888   1.575  11.245 -0.3664  0.1747 -0.2052
 1010SOL    HW215010  11.963   1.701  11.279  1.1129 -0.7878  0.2065
 1011SOL     OW15011   5.210  10.744  12.858 -0.1324 -0.3110 -0.4258
 1011SOL    HW115012   5.228  10.830  12.894  0.4647 -1.2789  1.7499
 1011SOL    HW215013   5.117  10.729  12.878 -0.0961 -0.3920 -0.3187
 1012SOL     OW15014   7.510   2.068   4.533 -0.3661 -0.3537  0.1220
 1012SOL    HW115015   7.439   2.055   4.596  0.5387  0.3308  1.3235
 1012SOL    HW215016   7.544   1.980   4.516 -0.8956 -0.5883  0.2506
 1013SOL     OW15017  10.075  11.114   5.932 -0.4728 -0.2545 -0.6062
 1013SOL    HW115018  10.158  11.085   5.894  0.7349  0.6507  1.1616
 1013SOL    HW215019  10.022  11.141   5.857  0.5200 -1.5747 -1.8320
 1014SOL     OW15020   6.418   4.574  10.194 -0.5305 -0.7392 -0.0055
 1014SOL    HW115021   6.348   4.518  10.228  0.4838 -3.0426 -1.4247
 1014SOL    HW215022   6.499   4.525  10.212  0.6482  1.2833  0.5153
 1015SOL     OW15023   1.336   3.516  12.701  0.3280 -0.2546 -0.0243
 1015SOL    HW115024   1.378   3.592  12.741 -1.3577  0.7977 -0.1777
 1015SOL    HW215025   1.405   3.476  12.648  1.4391  0.7686  0.6038
 1016SOL     OW15026   2.985   5.401   0.815 -0.2074  0.0631  0.2247
 1016SOL    HW115027   2.946   5.486   0.798 -0.0468  0.3939  1.3844
 1016SOL    HW215028   3.047   5.387   0.743 -0.7022  0.6299 -0.3129
 1017SOL     OW15029   8.949   0.916  12.439  0.5296 -0.3861 -0.3820
 1017SOL    HW115030   8.947   0.918  12.343 -1.7812  0.9413 -0.3922
 1017SOL    HW215031   8.861   0.886  12.464  0.1040  1.9139  1.2644
 1018SOL     OW15032   4.416  12.512   6.221  0.1123  0.1935 -0.2493
 1018SOL    HW115033   4.384  12.435   6.269 -1.7591  1.1483  0.1425
 1018SOL    HW215034   4.340  12.544   6.173  0.6960  2.0705 -0.0237
 1019SOL     OW15035  11.452  10.401  13.561  0.1347  0.5659  0.4685
 1019SOL    HW115036  11.464  10.309  13.584 -0.5303  0.4265  0.2759
 1019SOL    HW215037  11.482  10.449  13.638  6.1289  0.5255 -1.3266
 1020SOL     OW15038  11.878  13.202   3.930  0.3615  0.0146  0.3403
 1020SOL    HW115039  11.950  13.231   3.874 -0.0556 -1.0059 -0.7587
 1020SOL    HW215040  11.914  13.207   4.019  1.0752  1.5487  0.0086
 1021SOL     OW15041   6.551  11.591   7.853  0.0238  0.4773  0.1260
 1021SOL    HW115042   6.513  11.640   7.780  0.2339  0.4131 -0.0258
 1021SOL    HW215043   6.579  11.508   7.815  0.7360  0.7032  0.1395
 1022SOL     OW15044  12.017   2.559  12.361 -0.2799 -0.8005 -0.0684
 1022SOL    HW115045  11.935   2.562  12.311  0.0635  1.3663 -0.6032
 1022SOL    HW215046  11.996   2.604  12.443  0.6134  0.7724 -0.6606
 1023SOL     OW15047   8.705   4.903   1.262  0.4688  0.2105  0.6313
 1023SOL    HW115048   8.699   4.866   1.350  0.5915  1.2268  1.0870
 1023SOL    HW215049   8.645   4.850   1.210 -2.3221  1.6588  2.1001
 1024SOL     OW15050  10.000  10.806   8.837 -0.7197  0.0132  0.1394
 1024SOL    HW115051  10.052  10.822   8.758 -0.6598  0.2922  0.2332
 1024SOL    HW215052   9.979  10.893   8.870 -1.9857 -0.0732 -0.3744
 1025SOL     OW15053  11.521   0.836   7.661 -0.0490 -0.1801 -0.7003
 1025SOL    HW115054  11.544   0.771   7.727 -0.7052 -3.4875 -3.4268
 1025SOL    HW215055  11.429   0.855   7.677  0.6313  1.8083  1.3428
 1026SOL     OW15056  10.707   3.921   6.355  0.2767 -0.1106 -0.0400
 1026SOL    HW115057  10.747   3.891   6.273  1.2143 -0.2927  0.4626
 1026SOL    HW215058  10.700   3.842   6.409 -0.7455 -0.0721 -0.0991
 1027SOL     OW15059   5.980  11.758  10.315 -0.7362 -0.0596 -0.8505
 1027SOL    HW115060   5.896  11.771  10.270 -0.6854 -1.8510 -1.5291
 1027SOL    HW215061   5.974  11.669  10.351 -0.5034  1.0343  2.1739
 1028SOL     OW15062   6.856   7.296   6.292  0.2005  0.4320 -0.0593
 1028SOL    HW115063   6.911   7.270   6.365 -0.6245 -0.4696  0.2635
 1028SOL    HW215064   6.918   7.327   6.225  1.0793 -0.3635  0.3640
 1029SOL     OW15065   6.814   8.500  11.714 -0.0094 -0.4183 -0.4321
 1029SOL    HW115066   6.897   8.455  11.699 -0.5994 -2.1130  1.0869
 1029SOL    HW215067   6.805   8.503  11.809 -1.1183  0.8554 -0.5482
 1030SOL     OW15068   7.000   4.326   6.079  0.0509 -0.1938  0.5753
 1030SOL    HW115069   7.085   4.289   6.055 -1.3528 -1.2094 -3.5655
 1030SOL    HW215070   6.940   4.251   6.078 -1.4113  0.9367  0.3023
 1031SOL     OW15071   8.421   0.456   4.359  0.1904 -0.3550  0.1940
 1031SOL    HW115072   8.420   0.471   4.264  0.0919  0.2713  0.2869
 1031SOL    HW215073   8.394   0.365   4.369  0.2350 -0.4363 -0.3832
 1032SOL     OW15074   3.350   1.414   1.223 -0.1357  0.0595  0.7285
 1032SOL    HW115075   3.369   1.428   1.316 -1.2527  1.2500  0.8206
 1032SOL    HW215076   3.427   1.449   1.178 -0.4611  1.4190  1.1683
 1033SOL     OW15077   9.207   7.818   1.339 -0.3335  0.0482  0.1496
 1033SOL    HW115078   9.268   7.827   1.267  0.0900  0.2375  0.5262
 1033SOL    HW215079   9.125   7.854   1.305 -0.3428 -0.5421 -0.4760
 1034SOL     OW15080   5.778  11.841   8.193 -0.2512 -0.0394 -0.6114
 1034SOL    HW115081   5.770  11.934   8.171 -1.3942 -0.0111 -0.1316
 1034SOL    HW215082   5.733  11.796   8.121 -0.3442 -0.1790 -0.4661
 1035SOL     OW15083   4.140   5.318   1.073  0.1493 -0.0035 -0.5730
 1035SOL    HW115084   4.073   5.282   1.132  0.6377  0.7830  0.4945
 1035SOL    HW215085   4.165   5.401   1.114  1.0240  0.2091 -1.5230
 1036SOL     OW15086   9.056   4.269   4.176 -0.0027  0.0432  0.2187
 1036SOL    HW115087   9.009   4.255   4.093 -2.0216  1.5577  1.0233
 1036SOL    HW215088   9.117   4.195   4.181 -2.4398 -2.2465 -0.8299
 1037SOL     OW15089   1.804   3.398   1.150  0.2720  0.2955 -0.1867
 1037SOL    HW115090   1.871   3.395   1.082 -0.3685 -0.0010 -0.8116
 1037SOL    HW215091   1.845   3.445   1.222  1.5060 -0.7368 -0.1747
 1038SOL     OW15092   9.516  12.220   0.060 -0.4280 -0.3555 -0.2285
 1038SOL    HW115093   9.430  12.189   0.032 -0.9981  1.0343 -0.1168
 1038SOL    HW215094   9.520  12.310   0.028  0.3094  0.1470  1.2049
 1039SOL     OW15095   7.863   2.635   2.377 -0.8296 -0.0965  0.0980
 1039SOL    HW115096   7.832   2.652   2.288  0.7359 -1.2104 -0.7139
 1039SOL    HW215097   7.958   2.644   2.371 -0.7594  1.1722  2.0069
 1040SOL     OW15098   2.223   0.422   8.248  0.4642  0.0514 -0.2408
 1040SOL    HW115099   2.239   0.498   8.303 -1.6920 -0.6167  1.4348
 1040SOL    HW215100   2.308   0.379   8.241  1.3388  1.6295  0.2673
 1041SOL     OW15101   5.464  10.194   3.620 -0.1096  0.1660  0.4205
 1041SOL    HW115102   5.512  10.255   3.675  0.2681 -0.3544  0.6804
 1041SOL    HW215103   5.530  10.132   3.590 -0.5142 -0.2106  0.2943
 1042SOL     OW15104   9.312   5.061  11.349  0.1496  0.1243 -0.0566
 1042SOL    HW115105   9.278   4.978  11.315  0.7201 -0.3563  0.5226
 1042SOL    HW215106   9.306   5.121  11.275 -0.7335 -0.2965 -0.3406
 1043SOL     OW15107  11.139   8.709  12.659  0.5174 -0.5691 -0.3499
 1043SOL    HW115108  11.184   8.626  12.643  1.1458 -0.0728 -1.2501
 1043SOL    HW215109  11.194   8.755  12.722  0.9621 -0.2252 -0.9767
 1044SOL     OW15110   2.753  10.460   3.976 -0.5101 -0.6886  0.1029
 1044SOL    HW115111   2.819  10.466   4.046 -0.4560 -0.0024 -0.0070
 1044SOL    HW215112   2.756  10.368   3.950 -0.7770 -1.0364  1.2358
 1045SOL     OW15113   8.130   2.948   2.090 -0.0620 -0.1920 -0.2117
 1045SOL    HW115114   8.098   2.859   2.103 -0.5276 -0.0683 -0.4873
 1045SOL    HW215115   8.064   3.003   2.133  0.4303 -0.0004  0.3128
 1046SOL     OW15116  12.358   2.597   7.756  0.6080 -0.0603  0.3823
 1046SOL    HW115117  12.340   2.503   7.758 -1.3086  0.2408 -0.0320
 1046SOL    HW215118  12.271   2.638   7.751  1.3232  1.7922  1.7532
 1047SOL     OW15119   4.385   5.792   0.383 -0.3629  0.1901  0.0735
 1047SOL    HW115120   4.333   5.712   0.392 -1.2228  0.8812  1.9352
 1047SOL    HW215121   4.443   5.776   0.309 -0.8730 -1.9486  0.0854
 1048SOL     OW15122   2.602   9.115   3.931  0.0105 -0.0605 -0.2142
 1048SOL    HW115123   2.583   9.119   3.837 -1.9404 -0.4086  0.1198
 1048SOL    HW215124   2.689   9.077   3.936  0.3637  0.4479 -1.9001
 1049SOL     OW15125   0.604   6.066   2.809  0.1002 -0.3737  0.4277
 1049SOL    HW115126   0.592   6.032   2.898  1.3914 -1.3851  0.2590
 1049SOL    HW215127   0.542   6.016   2.756 -0.1942 -0.2510  0.6520
 1050SOL     OW15128  12.505   7.237   8.063  0.3381  0.6363  0.0659
 1050SOL    HW115129  12.522   7.220   8.155  2.2148  0.2298 -0.3148
 1050SOL    HW215130  12.473   7.154   8.028  0.3574  0.5797  0.1833
 1051SOL     OW15131  13.428   0.453   1.413  0.5214 -0.0973 -0.3623
 1051SOL    HW115132  13.460   0.415   1.495 -0.1497  0.6732  0.2805
 1051SOL    HW215133  13.422   0.379   1.352  2.4769 -0.4479 -0.2029
 1052SOL     OW15134   7.050   1.015   0.927  0.3087 -0.0863  0.0077
 1052SOL    HW115135   7.125   1.071   0.943 -0.9146  1.3793  0.9388
 1052SOL    HW215136   7.074   0.963   0.851  1.7345  1.3050 -0.5383
 1053SOL     OW15137   2.350   6.137   0.515 -0.0919  0.6680 -0.3561
 1053SOL    HW115138   2.347   6.224   0.475 -2.1467  0.1941 -1.3553
 1053SOL    HW215139   2.346   6.077   0.440 -1.2166 -0.2617  0.4280
 1054SOL     OW15140   6.853   6.135  13.016  0.1740  0.0996 -0.0479
 1054SOL    HW115141   6.926   6.151  12.957  0.6447  0.0737  0.5228
 1054SOL    HW215142   6.841   6.218  13.062  0.2810 -0.1036  0.3446
 1055SOL     OW15143   1.759   8.324   2.961 -0.1514  0.0313 -0.0587
 1055SOL    HW115144   1.801   8.397   2.917  0.7541  0.1252  0.9267
 1055SOL    HW215145   1.776   8.248   2.905  0.0164  0.3391 -0.4271
 1056SOL     OW15146  13.518  11.378   0.946  1.0090  0.3519 -0.3561
 1056SOL    HW115147  13.527  11.285   0.923 -1.3698  0.3255 -1.4197
 1056SOL    HW215148  13.547  11.424   0.867 -1.7301  0.3631 -1.4595
 1057SOL     OW15149   6.138   3.142  13.557 -0.1425 -0.1676  1.0292
 1057SOL    HW115150   6.056   3.113  13.515  0.0351 -0.3144  0.7836
 1057SOL    HW215151   6.206   3.121  13.494 -0.1153  1.9386  0.2897
 1058SOL     OW15152   1.658  10.850   7.203 -0.2202 -0.0217  0.7886
 1058SOL    HW115153   1.650  10.855   7.299 -1.3304 -1.8157  0.8404
 1058SOL    HW215154   1.617  10.931   7.172 -0.6020  0.2008  1.8149
 1059SOL     OW15155   5.477   0.995  11.243  0.3028  0.4246  0.0229
 1059SOL    HW115156   5.550   1.045  11.207  0.2053 -0.7478 -1.9339
 1059SOL    HW215157   5.518   0.927  11.297  0.6007  0.4053 -0.2273
 1060SOL     OW15158   4.589   0.156   3.777 -0.2629  0.5019 -0.3617
 1060SOL    HW115159   4.680   0.128   3.773  0.0869  1.5116  0.2286
 1060SOL    HW215160   4.546   0.106   3.708  0.9514  0.7901 -1.3734
 1061SOL     OW15161   2.763  11.027  10.488 -0.3236 -0.5878 -0.9739
 1061SOL    HW115162   2.843  11.078  10.476 -1.4642  1.1799 -1.4459
 1061SOL    HW215163   2.777  10.979  10.570  0.8253  0.4399 -0.5423
 1062SOL     OW15164   0.052  11.344   4.175 -0.4572 -0.0706  0.2274
 1062SOL    HW115165  -0.008  11.403   4.128  0.4725  0.3988 -0.4046
 1062SOL    HW215166   0.118  11.320   4.109  0.8430  0.5430  1.2578
 1063SOL     OW15167  12.326  11.154   3.770  0.5005  0.3398 -0.6578
 1063SOL    HW115168  12.400  11.202   3.804 -0.0488  1.3217 -0.8218
 1063SOL    HW215169  12.250  11.211   3.785 -0.5437 -1.3987  1.2168
 1064SOL     OW15170   8.278  11.876  13.526 -0.4797  0.0072  0.0725
 1064SOL    HW115171   8.263  11.793  13.572 -1.5556 -0.1294 -0.4982
 1064SOL    HW215172   8.193  11.920  13.528 -0.3631  0.3154 -1.1483
 1065SOL     OW15173   9.047  10.811  12.518 -0.0236 -0.8301  0.6986
 1065SOL    HW115174   9.083  10.899  12.510  0.2418 -0.8284  1.7785
 1065SOL    HW215175   9.124  10.754  12.526 -0.2065 -0.9175  2.1503
 1066SOL     OW15176   3.792   1.639   7.088  0.2374  0.7419 -0.5535
 1066SOL    HW115177   3.728   1.685   7.142  0.5867  1.2633 -0.5718
 1066SOL    HW215178   3.757   1.643   6.999 -0.6438 -0.6566 -0.2962
 1067SOL     OW15179   1.040   5.683   4.790  0.6429  0.2758 -0.2112
 1067SOL    HW115180   1.113   5.621   4.799  0.1742 -0.3483 -0.6613
 1067SOL    HW215181   0.983   5.644   4.724 -0.3646  0.4958  0.5007
 1068SOL     OW15182   0.989   6.886   3.361  0.4686  0.0695 -0.0249
 1068SOL    HW115183   0.950   6.916   3.279 -1.3351 -0.1360  0.7005
 1068SOL    HW215184   1.017   6.967   3.405  1.6131  0.1700 -0.8808
 1069SOL     OW15185   0.081   6.248  10.811  0.3519  0.1421 -0.0349
 1069SOL    HW115186   0.132   6.318  10.769 -0.6334  0.6196 -0.4795
 1069SOL    HW215187   0.107   6.250  10.903 -0.7918  2.1851  0.3072
 1070SOL     OW15188   6.315  11.547  13.189 -0.3838  0.3358 -0.5725
 1070SOL    HW115189   6.227  11.510  13.185 -0.1509 -0.1382 -1.5355
 1070SOL    HW215190   6.358  11.498  13.259 -0.2090 -0.9767 -1.5632
 1071SOL     OW15191   9.860   1.797   7.990 -0.2707  0.0742  0.2139
 1071SOL    HW115192   9.895   1.761   7.908 -4.1058 -1.0661 -1.1148
 1071SOL    HW215193   9.880   1.731   8.056  1.5654  0.3216 -0.0455
 1072SOL     OW15194  13.816   4.986   3.706  0.3577 -0.0868  0.1764
 1072SOL    HW115195  13.743   4.924   3.707  1.5162 -1.5075 -0.5774
 1072SOL    HW215196  13.844   4.991   3.797 -1.5105  1.5825  0.7549
 1073SOL     OW15197   4.066  13.120  12.045 -0.1664  0.1899  0.3716
 1073SOL    HW115198   4.127  13.193  12.031  0.6274 -0.4908  0.2033
 1073SOL    HW215199   3.981  13.155  12.020  0.1052  1.2473  0.8576
 1074SOL     OW15200  10.632   8.211  10.101  0.0138  0.0487  0.0883
 1074SOL    HW115201  10.666   8.148  10.165 -0.5155  1.0806  1.4247
 1074SOL    HW215202  10.659   8.175  10.017  2.2213 -0.4766  0.9403
 1075SOL     OW15203   1.827  12.994   1.975  0.4904 -0.0041  0.4674
 1075SOL    HW115204   1.785  13.076   2.000  0.3986 -0.1461  0.7835
 1075SOL    HW215205   1.921  13.013   1.977  0.4461  0.3671 -0.4275
 1076SOL     OW15206   8.119  13.922  10.280 -0.3401  0.1943 -0.1995
 1076SOL    HW115207   8.197  13.881  10.315 -0.9511 -1.6434 -0.8897
 1076SOL    HW215208   8.100  13.874  10.199 -2.1748  0.5967 -0.0548
 1077SOL     OW15209  12.316   9.472   5.250 -0.8771  0.1073  0.3518
 1077SOL    HW115210  12.384   9.516   5.198 -1.8763  0.8037 -0.3975
 1077SOL    HW215211  12.326   9.509   5.338 -0.0833 -0.0439  0.3363
 1078SOL     OW15212   4.824  12.587   9.362  0.2146  0.2459 -0.1855
 1078SOL    HW115213   4.735  12.608   9.336 -0.3653 -0.4386  1.1441
 1078SOL    HW215214   4.849  12.513   9.307 -0.4827 -0.3093  0.2294
 1079SOL     OW15215  11.639   6.262   9.407 -0.2451 -0.2222 -0.5530
 1079SOL    HW115216  11.573   6.232   9.469 -0.5124 -0.2553 -0.8509
 1079SOL    HW215217  11.643   6.357   9.420 -1.2684 -0.0488 -1.4140
 1080SOL     OW15218   5.221   1.110  10.885 -0.0298 -0.5502  0.3042
 1080SOL    HW115219   5.265   1.067  10.811 -0.5824  0.3608 -0.5719
 1080SOL    HW215220   5.156   1.167  10.845 -1.4485 -1.2254  1.5608
 1081SOL     OW15221   5.567  13.628   3.950 -0.6706 -0.1925 -0.0277
 1081SOL    HW115222   5.601  13.612   4.038  1.0633  0.3645 -0.5544
 1081SOL    HW215223   5.488  13.574   3.945  0.5807 -2.2597  1.0007
 1082SOL     OW15224   9.440   1.546   3.866 -0.6789  0.2073 -0.4364
 1082SOL    HW115225   9.386   1.549   3.945 -0.9976 -0.6876 -0.6193
 1082SOL    HW215226   9.517   1.496   3.892 -0.8575 -0.2245 -0.7384
 1083SOL     OW15227  11.906   8.437   8.928  0.1171  0.0409  0.0433
 1083SOL    HW115228  11.819   8.397   8.925 -0.2139  0.8002 -1.7619
 1083SOL    HW215229  11.951   8.390   8.998 -0.7863 -2.3928 -0.8818
 1084SOL     OW15230   8.118   0.694   0.008 -0.4528  0.4849 -0.3534
 1084SOL    HW115231   8.171   0.679   0.087  0.7601  2.0488 -0.7999
 1084SOL    HW215232   8.057   0.620   0.005 -0.1046  0.0482  1.6877
 1085SOL     OW15233   2.624   1.013   2.025  0.7169 -0.1407  0.7436
 1085SOL    HW115234   2.664   0.952   2.086 -1.6217 -1.4626  1.0869
 1085SOL    HW215235   2.580   0.958   1.961  0.8061  1.2260 -0.5589
 1086SOL     OW15236  10.273   1.598  12.123 -0.0026  0.3788 -0.5910
 1086SOL    HW115237  10.226   1.555  12.052 -1.1960  1.9581 -0.8167
 1086SOL    HW215238  10.280   1.689  12.096 -0.0558  0.9285  1.0962
 1087SOL     OW15239  12.671   1.796  10.296  0.1084  0.0315 -0.2538
 1087SOL    HW115240  12.717   1.868  10.340 -0.4116  1.1677 -1.4736
 1087SOL    HW215241  12.741   1.744  10.256  0.4383  0.6698 -0.5281
 1088SOL     OW15242  11.436   5.967   9.162  0.3775 -0.1553  0.3222
 1088SOL    HW115243  11.361   6.001   9.211 -0.1022 -2.9694  1.7159
 1088SOL    HW215244  11.427   6.006   9.075 -3.3112 -1.1145  0.1114
 1089SOL     OW15245   1.189   3.457   6.239 -0.5220  0.1307 -0.2115
 1089SOL    HW115246   1.128   3.443   6.167 -1.3319  1.7225  0.1197
 1089SOL    HW215247   1.144   3.422   6.316  0.4739 -1.8624 -0.4735
 1090SOL     OW15248   4.090  12.521  10.577 -0.1414  0.1167 -0.3467
 1090SOL    HW115249   4.185  12.529  10.580 -0.3010  2.4252 -0.1438
 1090SOL    HW215250   4.059  12.573  10.650 -1.5867 -0.3603 -0.5942
 1091SOL     OW15251   2.884   5.210   5.170  0.4760 -0.5171 -0.3336
 1091SOL    HW115252   2.873   5.150   5.095 -1.9979 -2.8022  1.6439
 1091SOL    HW215253   2.878   5.297   5.132  0.8843 -1.5323 -2.9717
 1092SOL     OW15254   5.504  11.246   3.898  0.2483  0.0843 -0.0023
 1092SOL    HW115255   5.450  11.237   3.820 -1.7123  0.2452  1.2446
 1092SOL    HW215256   5.454  11.304   3.955  2.4599  1.4472  0.6921
 1093SOL     OW15257  10.360   4.339   4.020 -0.1598  0.7627 -0.6876
 1093SOL    HW115258  10.346   4.330   3.925  3.0868 -0.7310 -1.1847
 1093SOL    HW215259  10.452   4.365   4.027  1.0092 -3.2990  2.0751
 1094SOL     OW15260   8.900   6.664   3.153 -0.1815  0.1257  0.0615
 1094SOL    HW115261   8.834   6.595   3.146 -0.7356  0.7813 -1.5465
 1094SOL    HW215262   8.856   6.744   3.125  0.7373  0.9735  0.9218
 1095SOL     OW15263   9.468   9.993   9.547 -0.6253  0.2393  0.3227
 1095SOL    HW115264   9.455   9.898   9.549  2.1896 -0.2259  0.5331
 1095SOL    HW215265   9.404  10.027   9.610 -0.9960 -1.6248  1.0324
 1096SOL     OW15266   6.098   1.180   5.560  0.5370  0.1933 -0.8509
 1096SOL    HW115267   6.139   1.234   5.627 -1.5688 -0.4423  1.0632
 1096SOL    HW215268   6.097   1.092   5.597  0.2912 -0.4067 -2.1998
 1097SOL     OW15269  13.219   1.833   6.810 -0.2572  0.0446 -0.6127
 1097SOL    HW115270  13.157   1.819   6.738 -1.1562  0.7423  0.0168
 1097SOL    HW215271  13.241   1.926   6.805 -0.6341  0.1900  0.2499
 1098SOL     OW15272   8.117   6.337   5.618  0.0574 -0.0904 -0.4574
 1098SOL    HW115273   8.102   6.402   5.687 -2.4470 -1.3247  0.2673
 1098SOL    HW215274   8.139   6.388   5.541  0.8403  1.4399  0.7076
 1099SOL     OW15275   5.119   8.794   9.454 -0.3558 -0.1400 -0.3596
 1099SOL    HW115276   5.175   8.784   9.531 -1.4178  0.2047  0.4812
 1099SOL    HW215277   5.034   8.819   9.490 -0.4350  1.7710 -1.7352
 1100SOL     OW15278   9.196   3.442   8.125 -0.4628 -0.4049 -0.0971
 1100SOL    HW115279   9.242   3.524   8.143  0.3908 -0.9880  0.4248
 1100SOL    HW215280   9.265   3.380   8.102 -0.9560 -1.3211  0.7970
 1101SOL     OW15281   7.504   0.435  10.562  0.3792 -0.0810 -0.1627
 1101SOL    HW115282   7.422   0.464  10.602 -1.3959 -1.5157 -2.4909
 1101SOL    HW215283   7.507   0.341  10.580  1.6335 -0.0153  0.0422
 1102SOL     OW15284   6.427  11.963  13.569  0.0635  0.2071  0.3008
 1102SOL    HW115285   6.421  11.894  13.502 -3.0909  0.8359 -0.1926
 1102SOL    HW215286   6.432  12.044  13.519 -0.1849  0.5608  0.8429
 1103SOL     OW15287   1.908   4.413   0.689  0.3332  0.3045 -0.2227
 1103SOL    HW115288   1.829   4.466   0.699 -0.1991  0.0685 -2.5255
 1103SOL    HW215289   1.930   4.385   0.778 -1.5010  1.3075  0.6031
 1104SOL     OW15290   9.893   7.637   7.625 -0.8652  0.1712  0.6978
 1104SOL    HW115291   9.935   7.569   7.677 -0.2164  0.3411  0.4055
 1104SOL    HW215292   9.960   7.664   7.562 -0.7288  1.7970  1.4644
 1105SOL     OW15293   1.388   6.489  10.462  0.3961  0.0804  0.6414
 1105SOL    HW115294   1.439   6.517  10.386 -0.5829  0.6102  0.1618
 1105SOL    HW215295   1.430   6.532  10.537  0.6250  0.5408  0.2530
 1106SOL     OW15296   2.730   3.934  11.960  0.4076  0.3612  0.0509
 1106SOL    HW115297   2.686   4.006  12.006 -0.6631  0.0006 -0.3816
 1106SOL    HW215298   2.732   3.962  11.868 -1.5052 -0.8298 -0.4096
 1107SOL     OW15299  13.427   8.251   3.272  0.1332  0.5606  0.0025
 1107SOL    HW115300  13.410   8.186   3.203  0.7529  0.5353 -0.1318
 1107SOL    HW215301  13.490   8.208   3.330  0.9304  1.2264 -0.3624
 1108SOL     OW15302   5.177   7.739  13.249  0.1867 -0.0634 -0.0783
 1108SOL    HW115303   5.224   7.822  13.236 -2.2077  1.2664 -0.8315
 1108SOL    HW215304   5.206   7.684  13.176  3.2738 -0.7340  1.4740
 1109SOL     OW15305   9.527   3.948  10.187 -0.1315 -0.3070 -0.1927
 1109SOL    HW115306   9.600   3.903  10.144 -0.6768 -1.3622 -0.0381
 1109SOL    HW215307   9.555   3.956  10.279  0.6856  1.2279 -0.5347
 1110SOL     OW15308   0.381  12.355   7.973 -0.4459 -0.3576 -0.1387
 1110SOL    HW115309   0.405  12.298   8.046 -1.1927  0.0717  0.4623
 1110SOL    HW215310   0.434  12.324   7.900  0.3213 -0.8004  0.5806
 1111SOL     OW15311   3.365   6.227   8.438  0.3121 -0.3826 -0.3266
 1111SOL    HW115312   3.441   6.216   8.496 -0.0996 -0.1289  0.2758
 1111SOL    HW215313   3.297   6.173   8.479 -0.4614  1.0413  0.3282
 1112SOL     OW15314   5.186   6.739  13.411  0.4600  0.4709 -0.1380
 1112SOL    HW115315   5.222   6.793  13.482 -0.8219  0.2673  0.7084
 1112SOL    HW215316   5.091   6.745  13.423  0.2505 -0.2832 -1.3151
 1113SOL     OW15317   6.052   5.002   4.070  0.4406  0.1256 -0.0338
 1113SOL    HW115318   6.036   4.941   3.998 -0.1691  0.1678  0.0640
 1113SOL    HW215319   5.985   4.981   4.135  0.0540  1.0877 -0.1150
 1114SOL     OW15320   7.640   9.771   5.174 -0.1010  0.3305 -0.4959
 1114SOL    HW115321   7.703   9.836   5.205 -0.1301 -0.8669  2.4130
 1114SOL    HW215322   7.577   9.763   5.246  0.2354 -3.2891 -0.4521
 1115SOL     OW15323   2.974   3.206   6.087  0.9450 -0.1688 -0.3687
 1115SOL    HW115324   2.957   3.268   6.157  1.0793 -0.3092 -0.2112
 1115SOL    HW215325   2.963   3.120   6.128  0.7888 -0.2495 -0.5771
 1116SOL     OW15326   2.154   4.548   1.730 -0.0771 -0.1218  0.3395
 1116SOL    HW115327   2.076   4.492   1.732 -0.5870  0.5347 -0.2753
 1116SOL    HW215328   2.129   4.625   1.781  0.0553  0.2233 -0.1122
 1117SOL     OW15329   0.974   3.117   2.642  0.3954  0.0067 -0.1457
 1117SOL    HW115330   1.064   3.089   2.623  0.7312  1.4369 -0.7578
 1117SOL    HW215331   0.937   3.139   2.556 -1.2301 -2.3876 -0.1712
 1118SOL     OW15332  13.600   3.795   3.496  0.0910  0.3445  0.3376
 1118SOL    HW115333  13.640   3.718   3.535  1.2950  0.6506 -0.2310
 1118SOL    HW215334  13.535   3.760   3.435  1.9400 -0.3543 -1.3631
 1119SOL     OW15335   7.145   4.368   3.512 -0.1739  0.1159  0.4371
 1119SOL    HW115336   7.052   4.369   3.489 -0.2462  0.7216  0.7131
 1119SOL    HW215337   7.168   4.276   3.517 -0.9551 -0.0532  1.1190
 1120SOL     OW15338   0.837   6.374   6.434 -0.8217  0.3035 -0.0867
 1120SOL    HW115339   0.865   6.311   6.368 -1.5628  0.1832 -0.2974
 1120SOL    HW215340   0.879   6.344   6.515 -1.5564 -0.7658 -0.0778
 1121SOL     OW15341   1.904   3.314   9.217  0.1044  0.6322  0.4065
 1121SOL    HW115342   1.812   3.297   9.236  0.4050 -0.6020  0.8610
 1121SOL    HW215343   1.948   3.307   9.302  0.3858  3.1475  0.5362
 1122SOL     OW15344  10.003   0.078   4.629 -0.7574 -0.4999 -0.1647
 1122SOL    HW115345   9.942   0.013   4.596 -1.9786  0.6058 -0.1741
 1122SOL    HW215346   9.983   0.157   4.579 -0.1165  0.2069  0.6587
 1123SOL     OW15347   7.873  10.192   5.539 -0.4561 -0.4479 -0.0154
 1123SOL    HW115348   7.798  10.201   5.599 -0.1722 -1.1149  0.4581
 1123SOL    HW215349   7.845  10.126   5.476 -0.2659 -0.7203  0.1801
 1124SOL     OW15350   3.650   3.877   1.182 -0.2477 -0.0576 -0.5290
 1124SOL    HW115351   3.744   3.884   1.166 -0.5195  0.6804 -1.9243
 1124SOL    HW215352   3.616   3.965   1.166 -1.2781 -0.4895 -0.7942
 1125SOL     OW15353   1.285   8.851   1.713  0.3728  0.0363 -0.1828
 1125SOL    HW115354   1.247   8.926   1.760  0.7659  1.1152 -1.5066
 1125SOL    HW215355   1.373   8.843   1.750  0.8032  1.0987 -0.9317
 1126SOL     OW15356  13.139   9.826  10.644  0.0366 -0.3377  0.0281
 1126SOL    HW115357  13.123   9.738  10.611 -0.4961  0.2507 -1.3676
 1126SOL    HW215358  13.171   9.875  10.568  1.6315  0.3482  1.0810
 1127SOL     OW15359   0.588   6.897  10.590  0.0639 -1.1526 -0.2982
 1127SOL    HW115360   0.534   6.916  10.512 -0.1600 -1.6370 -0.2613
 1127SOL    HW215361   0.525   6.871  10.657  0.3255 -1.4742 -0.1762
 1128SOL     OW15362   7.906  10.776   4.125  0.5895  0.3473  0.1334
 1128SOL    HW115363   7.922  10.731   4.208 -1.8399  0.3760  0.7050
 1128SOL    HW215364   7.813  10.800   4.129  0.8624  1.9472 -1.8386
 1129SOL     OW15365   4.824   4.870   1.585  0.2435  0.3640  0.2653
 1129SOL    HW115366   4.828   4.899   1.676  0.4210  1.4032 -0.0542
 1129SOL    HW215367   4.738   4.898   1.554 -0.1205 -0.6655  0.3243
 1130SOL     OW15368  13.564   1.678   7.651 -0.8044  0.1784  0.8069
 1130SOL    HW115369  13.537   1.770   7.662 -0.6905  0.6212 -2.0069
 1130SOL    HW215370  13.659   1.682   7.642 -0.9194  0.0084 -0.7790
 1131SOL     OW15371  13.332   3.193   5.324 -0.0107 -0.0784 -0.3720
 1131SOL    HW115372  13.347   3.167   5.415  2.3164  1.2910 -0.2818
 1131SOL    HW215373  13.367   3.120   5.273  0.7392  0.1125 -0.1443
 1132SOL     OW15374   5.012   4.611  11.489  0.3076 -0.1641  0.7929
 1132SOL    HW115375   4.991   4.560  11.410  1.0401  1.2865 -0.3968
 1132SOL    HW215376   5.054   4.548  11.547  0.5393 -1.0879 -0.3192
 1133SOL     OW15377   3.273  13.653  13.356 -0.4323  0.1139 -0.0482
 1133SOL    HW115378   3.230  13.688  13.434 -2.6302 -0.3991 -0.9598
 1133SOL    HW215379   3.208  13.596  13.315  0.6152  0.3922 -2.2844
 1134SOL     OW15380  11.101   1.150   2.527  0.9711  0.1414  0.3208
 1134SOL    HW115381  11.145   1.182   2.448 -0.1337  1.0736  0.0664
 1134SOL    HW215382  11.022   1.202   2.534 -0.9967 -2.5375 -0.1448
 1135SOL     OW15383  12.770   1.349  12.178 -0.0051 -0.0915  0.0580
 1135SOL    HW115384  12.724   1.265  12.175 -2.0354  0.9743 -0.6088
 1135SOL    HW215385  12.827   1.348  12.101 -1.0272 -0.3505 -0.7198
 1136SOL     OW15386   3.671   6.664   4.504 -0.0626 -0.6173  0.2973
 1136SOL    HW115387   3.615   6.740   4.486  0.3619 -0.0926  1.1487
 1136SOL    HW215388   3.611   6.596   4.534 -0.3989 -0.5103 -0.1128
 1137SOL     OW15389   5.846   5.202   5.303 -0.2075 -0.1445  0.2428
 1137SOL    HW115390   5.765   5.244   5.274 -0.8837 -1.6397 -0.1275
 1137SOL    HW215391   5.883   5.163   5.224 -0.3316 -1.4011  0.7758
 1138SOL     OW15392  11.041   6.003   1.256 -0.3300 -0.0404  0.1330
 1138SOL    HW115393  10.985   5.947   1.203 -0.7754 -0.2197  0.7831
 1138SOL    HW215394  10.980   6.050   1.313  0.1090  0.4772  0.1845
 1139SOL     OW15395   8.618  10.358  13.945  0.5882  0.2499 -0.1932
 1139SOL    HW115396   8.526  10.381  13.937  0.6357 -0.0751 -2.1426
 1139SOL    HW215397   8.656  10.382  13.861  1.9813 -0.9696  0.0517
 1140SOL     OW15398   1.487   7.735   1.061 -0.6651  0.3477  0.1465
 1140SOL    HW115399   1.409   7.683   1.047  0.3022 -1.2230  0.3121
 1140SOL    HW215400   1.455   7.819   1.093 -2.2791 -0.1412 -0.1186
 1141SOL     OW15401   2.118   4.234   2.826 -0.1829  0.3207 -0.3209
 1141SOL    HW115402   2.045   4.188   2.786 -0.2094 -2.3450  2.4062
 1141SOL    HW215403   2.077   4.308   2.872 -0.9491 -0.2160 -0.1234
 1142SOL     OW15404   4.899  11.563   5.984  0.5300  0.0049  0.0552
 1142SOL    HW115405   4.816  11.601   5.955  1.9651  2.4638 -1.1883
 1142SOL    HW215406   4.915  11.491   5.923 -0.2773  0.0762 -0.2429
 1143SOL     OW15407  10.806   8.859   0.331 -0.3303  0.1502  0.2385
 1143SOL    HW115408  10.780   8.790   0.269 -2.5289  0.9960  0.1415
 1143SOL    HW215409  10.848   8.926   0.277  1.6376 -0.9354  0.3064
 1144SOL     OW15410   5.884   3.129   8.589 -0.1230  0.6501 -0.1000
 1144SOL    HW115411   5.808   3.101   8.640  1.2569 -0.9125  1.1791
 1144SOL    HW215412   5.916   3.207   8.635  1.1819 -0.8140  1.6219
 1145SOL     OW15413   0.031   6.939   1.904 -0.2722  0.2151 -0.5838
 1145SOL    HW115414   0.112   6.953   1.953 -0.9917  0.7387  0.5156
 1145SOL    HW215415  -0.001   7.027   1.885 -1.9592  0.1181  1.4267
 1146SOL     OW15416   2.369   7.343   2.067  0.0027 -0.2537 -0.1779
 1146SOL    HW115417   2.356   7.437   2.077 -2.8167 -0.4310 -1.1660
 1146SOL    HW215418   2.320   7.304   2.139 -0.4970 -0.9564 -0.8732
 1147SOL     OW15419   6.550  10.947   7.785 -0.1126 -0.1850  1.1439
 1147SOL    HW115420   6.575  10.914   7.698  1.8840  1.6662  0.9003
 1147SOL    HW215421   6.543  11.042   7.772 -0.0614  0.0934  2.9362
 1148SOL     OW15422   4.691   0.146  13.061  0.3578  0.5851 -0.6929
 1148SOL    HW115423   4.758   0.213  13.045  3.9248 -2.5319 -0.0136
 1148SOL    HW215424   4.689   0.136  13.156  1.7358 -1.8495 -0.8545
 1149SOL     OW15425   6.642   2.857   6.341 -0.2131 -0.5549  0.8134
 1149SOL    HW115426   6.586   2.849   6.264 -0.6204  1.4728  0.8360
 1149SOL    HW215427   6.666   2.767   6.363 -0.6345 -1.2310 -1.2591
 1150SOL     OW15428   0.424   0.907   4.358 -0.0175 -0.3733 -0.0712
 1150SOL    HW115429   0.411   0.851   4.435 -0.7643  0.1122  0.1678
 1150SOL    HW215430   0.490   0.861   4.307 -0.3440 -1.2939  0.2969
 1151SOL     OW15431   3.881   5.512   3.229  0.3200  0.1336  0.3815
 1151SOL    HW115432   3.929   5.433   3.207 -1.3828 -0.5652 -1.0558
 1151SOL    HW215433   3.815   5.483   3.293  0.4550  0.6468  0.7627
 1152SOL     OW15434   1.836   8.659   6.501  0.0633 -0.5637  0.0149
 1152SOL    HW115435   1.853   8.715   6.425  3.7621 -0.6828  0.5894
 1152SOL    HW215436   1.740   8.660   6.510 -0.3091  2.2117 -2.5346
 1153SOL     OW15437   2.824   4.522   2.579 -0.7324 -0.6437 -0.3627
 1153SOL    HW115438   2.777   4.589   2.629 -2.8230 -1.5132 -1.0306
 1153SOL    HW215439   2.916   4.538   2.599 -0.9953  3.1202 -1.3313
 1154SOL     OW15440  11.353   0.445  12.641  0.0317  0.3882  0.0530
 1154SOL    HW115441  11.402   0.500  12.580  1.4223 -2.4937 -1.6427
 1154SOL    HW215442  11.261   0.467  12.625  0.5197  2.1401 -0.5672
 1155SOL     OW15443  10.499   0.589  12.324  0.1310  0.1662 -0.0352
 1155SOL    HW115444  10.482   0.607  12.417 -0.2400  3.3876 -0.5819
 1155SOL    HW215445  10.498   0.494  12.317 -0.3946 -0.1834  3.1463
 1156SOL     OW15446   0.072   5.045   0.347  0.0228 -0.1010  0.0316
 1156SOL    HW115447   0.034   5.050   0.258 -2.2837 -0.3498  0.9166
 1156SOL    HW215448   0.048   5.127   0.388 -0.8527 -0.8514  1.0849
 1157SOL     OW15449   3.447   4.868   0.660 -0.2268 -0.4844  0.0624
 1157SOL    HW115450   3.367   4.919   0.669 -1.1887 -2.1243  1.3687
 1157SOL    HW215451   3.497   4.886   0.739  0.5380  0.2407 -0.5726
 1158SOL     OW15452   5.800   3.060   7.112  0.1410 -0.0823  0.1528
 1158SOL    HW115453   5.831   3.150   7.126 -1.6694  0.3773  1.6034
 1158SOL    HW215454   5.709   3.070   7.083  0.7561 -1.4167 -2.5426
 1159SOL     OW15455   9.095   1.121   2.866 -0.0084  0.2619  0.1714
 1159SOL    HW115456   9.187   1.097   2.881  0.2285  2.0864  2.1741
 1159SOL    HW215457   9.096   1.217   2.865 -1.7935  0.3029 -0.6501
 1160SOL     OW15458   6.287  10.276   4.526  0.0579  0.0237 -0.2910
 1160SOL    HW115459   6.346  10.306   4.456 -1.1244 -0.9092 -1.7508
 1160SOL    HW215460   6.299  10.181   4.528  0.3104  0.0650  1.0428
 1161SOL     OW15461   2.248   5.462   6.996 -0.0792  0.0220  0.1915
 1161SOL    HW115462   2.264   5.454   6.902  0.3127  1.4565  0.1177
 1161SOL    HW215463   2.323   5.419   7.037 -0.1996 -0.5158 -0.1420
 1162SOL     OW15464   6.710   9.152   3.470 -0.0738 -0.2918 -0.4645
 1162SOL    HW115465   6.761   9.195   3.539  0.4044 -0.8027 -0.4956
 1162SOL    HW215466   6.619   9.172   3.492  0.1407  0.9388 -0.6125
 1163SOL     OW15467  12.440  12.665   4.322  0.5541  0.1965 -0.1023
 1163SOL    HW115468  12.352  12.699   4.305  1.4382  1.4260 -2.6679
 1163SOL    HW215469  12.441  12.579   4.281  0.7777  0.5373 -0.8284
 1164SOL     OW15470   6.664   2.744  10.310  0.2857 -0.0705 -0.0771
 1164SOL    HW115471   6.704   2.809  10.252  1.6270  0.2811  1.1657
 1164SOL    HW215472   6.730   2.730  10.379 -0.6824 -1.4807  0.6136
 1165SOL     OW15473   4.463   9.736   8.263 -0.2350 -0.0200  0.2701
 1165SOL    HW115474   4.388   9.793   8.278 -0.6513 -0.9426  1.9814
 1165SOL    HW215475   4.432   9.648   8.288  0.6303 -0.8861 -1.5147
 1166SOL     OW15476   5.730   7.080  10.211  0.6471  0.5221 -0.2446
 1166SOL    HW115477   5.653   7.119  10.252  0.5759  0.1631 -0.0278
 1166SOL    HW215478   5.791   7.067  10.283 -0.3642 -2.3106  0.2538
 1167SOL     OW15479  10.833  10.772   2.898 -0.3924  0.4915 -0.2270
 1167SOL    HW115480  10.882  10.700   2.937 -0.8671  1.2439  1.9108
 1167SOL    HW215481  10.750  10.733   2.872  0.4516 -0.3214 -1.8522
 1168SOL     OW15482  11.025   2.939  12.454  0.2340 -0.0411  0.1123
 1168SOL    HW115483  10.941   2.985  12.449 -0.3797 -0.8970  1.8609
 1168SOL    HW215484  11.038   2.903  12.366 -1.2351  0.0962 -0.1811
 1169SOL     OW15485  10.016   6.354  13.587  0.4120 -0.0296 -0.0712
 1169SOL    HW115486  10.081   6.362  13.658  0.7639 -0.9808 -0.2716
 1169SOL    HW215487   9.932   6.353  13.632  0.6790 -4.3779  0.8180
 1170SOL     OW15488  10.726  13.484  13.833 -0.2563 -0.8901  0.3305
 1170SOL    HW115489  10.653  13.458  13.889 -0.1882  2.3616  2.1854
 1170SOL    HW215490  10.802  13.487  13.891  0.4044  0.0267 -0.5256
 1171SOL     OW15491  13.739   4.143   7.105 -0.0001 -0.3307 -0.4962
 1171SOL    HW115492  13.678   4.089   7.054  1.8992 -0.4071 -2.8545
 1171SOL    HW215493  13.727   4.231   7.071  0.0534 -0.0493  0.1992
 1172SOL     OW15494   7.540   1.969   5.639 -0.1723  0.4279 -0.1598
 1172SOL    HW115495   7.445   1.984   5.637 -0.3393 -0.1814  1.3073
 1172SOL    HW215496   7.564   1.954   5.548 -1.2802  1.7225 -0.7084
 1173SOL     OW15497   2.173   0.920   7.020 -0.1510 -0.0030 -0.3179
 1173SOL    HW115498   2.092   0.909   7.069 -0.0425 -0.5153 -0.2496
 1173SOL    HW215499   2.206   0.831   7.008 -0.4132  0.0582 -1.7149
 1174SOL     OW15500  10.664   7.311  11.526 -0.3112  0.1072 -0.1047
 1174SOL    HW115501  10.754   7.282  11.516 -0.2964 -0.2060  0.8513
 1174SOL    HW215502  10.639   7.282  11.614 -1.3205  0.2372 -0.3393
 1175SOL     OW15503   6.621   7.146   5.920  0.3667 -0.0045  0.2975
 1175SOL    HW115504   6.622   7.241   5.931 -2.0751 -0.1113  2.4571
 1175SOL    HW215505   6.530   7.121   5.934  0.5696 -2.5497 -2.0527
 1176SOL     OW15506   2.270   3.352   4.144 -0.5642  0.1080  0.3825
 1176SOL    HW115507   2.334   3.318   4.082 -0.8748 -0.5198  0.4017
 1176SOL    HW215508   2.320   3.415   4.197 -0.3817  0.9187 -0.7206
 1177SOL     OW15509   8.608   7.360  12.712  0.1769 -0.1514  0.3369
 1177SOL    HW115510   8.560   7.333  12.790 -1.7593  1.2413 -0.3040
 1177SOL    HW215511   8.671   7.425  12.744  0.0912 -0.3324  0.8824
 1178SOL     OW15512   1.185   4.021   6.881 -0.2602  0.2322  0.0147
 1178SOL    HW115513   1.139   4.021   6.797 -1.3632  0.3944  0.5994
 1178SOL    HW215514   1.118   3.997   6.945  1.1714 -2.7447  0.5606
 1179SOL     OW15515  13.217  13.573  13.026  0.0906  0.5141 -0.2783
 1179SOL    HW115516  13.310  13.596  13.021  0.5831 -1.3336 -0.6103
 1179SOL    HW215517  13.207  13.501  12.964 -1.3243 -0.0432  0.5485
 1180SOL     OW15518  10.609  11.541  11.183 -0.2937 -0.3190  0.1819
 1180SOL    HW115519  10.657  11.624  11.193 -1.9355  0.7009  0.0413
 1180SOL    HW215520  10.605  11.527  11.089 -0.3107 -0.3777  0.1916
 1181SOL     OW15521  12.212   7.289  12.863  0.6473  1.0324 -0.5548
 1181SOL    HW115522  12.291   7.260  12.818 -0.1969  1.3769 -2.3543
 1181SOL    HW215523  12.221   7.385  12.866  0.9541  0.9866  0.5748
 1182SOL     OW15524   0.528  13.738   3.783 -0.3332  0.2164 -0.7454
 1182SOL    HW115525   0.562  13.695   3.861  0.3270  0.3762 -0.9360
 1182SOL    HW215526   0.598  13.729   3.718 -1.3420 -0.9671 -1.7158
 1183SOL     OW15527   4.484  13.758   3.285  0.0868 -0.1945 -0.0784
 1183SOL    HW115528   4.485  13.824   3.216  0.3724  0.9741  1.0057
 1183SOL    HW215529   4.509  13.805   3.364 -2.6326 -0.9259  1.3448
 1184SOL     OW15530   1.071  13.979   6.717  0.8810 -0.8836  0.1067
 1184SOL    HW115531   1.105  13.890   6.726  1.2122 -0.6870  0.9148
 1184SOL    HW215532   1.126  14.019   6.650 -0.3245 -1.7777 -1.4661
 1185SOL     OW15533   7.032   6.292   9.646  0.1014  0.0460 -0.4537
 1185SOL    HW115534   7.030   6.233   9.571  0.0726 -0.3322 -0.1557
 1185SOL    HW215535   7.047   6.235   9.721  1.0648  0.5118 -0.2675
 1186SOL     OW15536   3.949  13.098   2.750 -0.4645 -0.0997  0.2294
 1186SOL    HW115537   3.927  13.063   2.836 -0.9928  1.5898  0.8409
 1186SOL    HW215538   3.889  13.173   2.739  0.1903  0.2460 -1.2163
 1187SOL     OW15539   3.031   4.605   2.236  0.6459 -0.1241 -0.0858
 1187SOL    HW115540   2.980   4.671   2.282  1.7900 -0.6842  2.1654
 1187SOL    HW215541   2.968   4.560   2.179 -0.2246  2.5686 -1.3909
 1188SOL     OW15542  10.584  13.488   7.551  0.3930 -0.5593  0.0956
 1188SOL    HW115543  10.654  13.545   7.519  0.0880 -0.4680 -0.4134
 1188SOL    HW215544  10.570  13.425   7.480 -2.4912  1.5601 -1.4261
 1189SOL     OW15545   3.472  13.755  13.555 -0.0479 -0.4299 -0.4135
 1189SOL    HW115546   3.409  13.824  13.533 -0.8341 -1.1457 -0.4693
 1189SOL    HW215547   3.476  13.701  13.475 -2.2471 -2.5508  0.7794
 1190SOL     OW15548   9.296   6.086  13.504 -0.1338 -0.2033  0.7824
 1190SOL    HW115549   9.215   6.056  13.463  0.5649 -0.0014 -0.8384
 1190SOL    HW215550   9.282   6.073  13.598 -1.2932 -2.0207  0.4164
 1191SOL     OW15551   4.233  10.966   7.778 -0.2914 -0.8374  0.7061
 1191SOL    HW115552   4.269  10.995   7.862 -2.5768  1.2527  1.0818
 1191SOL    HW215553   4.160  10.909   7.802 -1.3864  0.3150  0.2161
 1192SOL     OW15554   2.907  10.388  11.155  0.1756  0.3377 -0.1980
 1192SOL    HW115555   2.903  10.419  11.065  1.5805  2.2346  0.3369
 1192SOL    HW215556   2.817  10.396  11.187 -0.6978 -1.9156 -1.8446
 1193SOL     OW15557   5.845  13.838   2.128 -0.0223  0.0645  0.1748
 1193SOL    HW115558   5.758  13.857   2.163 -0.3478 -1.0578  0.0339
 1193SOL    HW215559   5.905  13.869   2.195 -0.5513  0.3657  0.5187
 1194SOL     OW15560  13.675   8.876   1.280 -0.2968  0.1406 -0.3734
 1194SOL    HW115561  13.727   8.798   1.260 -0.3762  0.5196 -2.2379
 1194SOL    HW215562  13.674   8.880   1.375  2.0018 -0.6071 -0.2454
 1195SOL     OW15563   3.236   2.372  10.138 -0.0035 -0.7708 -0.1962
 1195SOL    HW115564   3.185   2.448  10.109 -1.6508 -1.2152  1.3816
 1195SOL    HW215565   3.293   2.353  10.064 -0.7131  0.9881 -1.2754
 1196SOL     OW15566   6.872   0.486   7.999 -0.1549  0.0376  0.6387
 1196SOL    HW115567   6.809   0.417   8.020 -1.3080  0.5006 -1.0826
 1196SOL    HW215568   6.940   0.478   8.066 -0.0376 -2.9984  0.2866
 1197SOL     OW15569   2.950   9.841  12.201 -0.0800  0.2898  0.4617
 1197SOL    HW115570   2.975   9.854  12.110 -0.4386  0.5841  0.4008
 1197SOL    HW215571   2.960   9.927  12.242  0.5645  0.0487  0.8252
 1198SOL     OW15572   5.990   0.121   8.008 -0.2713 -0.3264  0.1009
 1198SOL    HW115573   6.003   0.053   7.942 -2.0034  1.7173 -2.5871
 1198SOL    HW215574   6.075   0.163   8.017 -0.1980 -0.0102 -1.6845
 1199SOL     OW15575   8.148   0.818   5.191 -0.1702  0.2928  0.6271
 1199SOL    HW115576   8.057   0.841   5.169 -1.2471 -1.8268  2.3958
 1199SOL    HW215577   8.177   0.764   5.116 -1.6266 -1.7749  1.4441
 1200SOL     OW15578   8.500   6.681  12.307  0.4468  0.6037 -0.8411
 1200SOL    HW115579   8.478   6.616  12.374 -1.3603 -0.4304 -2.3483
 1200SOL    HW215580   8.486   6.766  12.350  0.8179 -0.0040  0.5311
 1201SOL     OW15581   7.104   3.351   7.315 -0.1572  0.0659 -0.0243
 1201SOL    HW115582   7.141   3.273   7.355 -0.4048 -0.0572 -0.0376
 1201SOL    HW215583   7.063   3.399   7.387 -0.5219 -0.1098 -0.1165
 1202SOL     OW15584   3.784  11.919   7.260  0.1074  0.8015 -0.5366
 1202SOL    HW115585   3.879  11.908   7.252  0.0101 -1.7509  0.7536
 1202SOL    HW215586   3.769  11.930   7.354 -0.9232  0.5248 -0.6607
 1203SOL     OW15587   2.490   0.694   1.175  0.0820  0.0941  0.1937
 1203SOL    HW115588   2.556   0.701   1.106  0.4804 -0.8330  0.4626
 1203SOL    HW215589   2.425   0.634   1.140  1.2813 -1.9827  1.3371
 1204SOL     OW15590   4.293  13.119   2.427  0.0703 -0.2356  0.0317
 1204SOL    HW115591   4.289  13.211   2.452  0.1460  0.6495 -2.8370
 1204SOL    HW215592   4.256  13.117   2.338  0.2723 -2.9438 -0.0663
 1205SOL     OW15593  10.119   2.457   7.838 -0.0778 -0.2728  0.2957
 1205SOL    HW115594  10.119   2.363   7.817 -2.1148 -0.3179  0.2709
 1205SOL    HW215595  10.058   2.495   7.776  0.9281  1.1441  0.1361
 1206SOL     OW15596  13.310   1.311  13.143 -0.1695  0.0080  0.3710
 1206SOL    HW115597  13.236   1.330  13.085 -0.3120  0.1570  0.5993
 1206SOL    HW215598  13.384   1.353  13.101  0.0731 -1.3157 -0.5982
 1207SOL     OW15599   5.358   4.824  11.001 -0.2697 -0.6315  0.2167
 1207SOL    HW115600   5.317   4.899  10.959  1.9337 -0.3057 -1.5117
 1207SOL    HW215601   5.407   4.861  11.075  1.8861 -0.0456 -1.3877
 1208SOL     OW15602   5.190   3.881   8.657  0.1819 -0.4638 -0.1572
 1208SOL    HW115603   5.199   3.974   8.640  1.7443 -1.0137 -2.7768
 1208SOL    HW215604   5.276   3.853   8.687 -0.7738 -0.7964  2.5842
 1209SOL     OW15605   9.525  12.633   5.817  0.1571 -0.2474 -0.0574
 1209SOL    HW115606   9.535  12.616   5.911 -1.2264 -2.5219 -0.2272
 1209SOL    HW215607   9.443  12.682   5.810 -0.0149 -0.5352 -0.0940
 1210SOL     OW15608   5.295   7.292   8.212 -0.2997  0.2771  0.2295
 1210SOL    HW115609   5.315   7.371   8.262 -2.1562  1.0806 -0.2048
 1210SOL    HW215610   5.248   7.324   8.135 -2.5056 -1.3252  0.8138
 1211SOL     OW15611   6.491   2.944   8.593 -0.0489 -0.3003 -0.0745
 1211SOL    HW115612   6.583   2.918   8.584  0.1083 -0.0688  0.8234
 1211SOL    HW215613   6.458   2.891   8.666 -0.6214 -0.3553 -0.3682
 1212SOL     OW15614   5.383   1.216   7.421  0.3184  0.0030  0.2294
 1212SOL    HW115615   5.447   1.276   7.383 -0.2263  1.5834  1.6680
 1212SOL    HW215616   5.310   1.216   7.358  0.7611 -0.0269 -0.2986
 1213SOL     OW15617  13.649   8.880   9.895  0.2524  0.7520  0.3442
 1213SOL    HW115618  13.647   8.901   9.988 -1.2094  0.1191  0.4861
 1213SOL    HW215619  13.683   8.790   9.891 -1.0415  0.2324  0.4190
 1214SOL     OW15620   5.201   1.124   6.587  0.2281 -0.0964 -0.5217
 1214SOL    HW115621   5.249   1.196   6.629  0.2727  0.4520 -1.4834
 1214SOL    HW215622   5.268   1.072   6.543  0.2308 -0.9208  0.4094
 1215SOL     OW15623   0.323   6.632   7.647  0.0318  0.1888  0.2449
 1215SOL    HW115624   0.303   6.662   7.735 -0.5240 -1.7365  0.8250
 1215SOL    HW215625   0.383   6.558   7.660  0.5969  0.3898 -1.0456
 1216SOL     OW15626  13.308  12.596   8.444  0.2922  0.4131  0.0549
 1216SOL    HW115627  13.358  12.644   8.510 -0.4968 -0.2788  1.1952
 1216SOL    HW215628  13.363  12.521   8.423  0.2172  0.2254  0.5102
 1217SOL     OW15629  11.286   6.502   0.270  0.3095 -0.0056 -0.1104
 1217SOL    HW115630  11.251   6.582   0.232 -0.2533 -0.2254 -0.0629
 1217SOL    HW215631  11.370   6.489   0.227  1.3559  1.6906  1.2933
 1218SOL     OW15632   0.269   2.445   9.026 -0.0167 -0.0833  0.0561
 1218SOL    HW115633   0.257   2.536   9.000  0.1775  0.2886  1.2148
 1218SOL    HW215634   0.186   2.419   9.065  0.8643  0.6128  2.5851
 1219SOL     OW15635   9.635  10.944  12.042 -0.2462 -0.0942 -0.0856
 1219SOL    HW115636   9.676  10.860  12.022  1.7769  0.3003  1.9596
 1219SOL    HW215637   9.673  11.006  11.979 -0.0233 -0.3032 -0.1564
 1220SOL     OW15638   7.743   4.105   9.220  0.2424 -0.3018 -0.2460
 1220SOL    HW115639   7.689   4.036   9.261  2.7026 -2.4427 -0.3762
 1220SOL    HW215640   7.732   4.091   9.126  1.6701 -1.3817 -0.2861
 1221SOL     OW15641   5.705   6.827   8.884 -0.4265 -0.2841 -0.1276
 1221SOL    HW115642   5.796   6.851   8.901 -0.3076 -0.1038 -0.9765
 1221SOL    HW215643   5.684   6.762   8.951  0.1424  0.0906  0.4278
 1222SOL     OW15644   2.477  13.722   7.172  0.3068 -0.4223  0.4868
 1222SOL    HW115645   2.442  13.791   7.228  0.2373  0.3646 -0.4946
 1222SOL    HW215646   2.556  13.761   7.134 -0.6655 -0.1993 -1.4307
 1223SOL     OW15647  13.313   7.907  10.530  0.4770  0.3196  0.6371
 1223SOL    HW115648  13.326   7.825  10.482  1.3204  1.0454 -0.4170
 1223SOL    HW215649  13.353   7.974  10.475 -1.0360  1.5877  1.0199
 1224SOL     OW15650   4.994   3.283   4.328 -0.0446 -0.1667  0.1456
 1224SOL    HW115651   5.033   3.306   4.244 -0.8825  0.4502 -0.0883
 1224SOL    HW215652   4.974   3.189   4.321 -1.1615  0.1199 -0.7991
 1225SOL     OW15653  13.132  13.135   5.760 -0.5190 -0.5646  0.1388
 1225SOL    HW115654  13.222  13.123   5.791 -0.3872 -2.2835 -0.7900
 1225SOL    HW215655  13.127  13.083   5.680 -2.1127  0.1900 -0.2894
 1226SOL     OW15656  13.085   1.462   9.429 -0.1290 -0.2022  0.2329
 1226SOL    HW115657  13.005   1.466   9.482  0.4960  1.4707  1.1139
 1226SOL    HW215658  13.150   1.510   9.480  1.4300 -1.3972 -0.5432
 1227SOL     OW15659   5.435   8.881   0.595  0.4917  0.4602  0.0602
 1227SOL    HW115660   5.510   8.939   0.583  0.0882  0.8027 -0.9327
 1227SOL    HW215661   5.468   8.809   0.648  1.8387  0.0480 -1.2758
 1228SOL     OW15662   2.990  13.340   3.883  0.2045  0.1672 -0.3229
 1228SOL    HW115663   2.909  13.390   3.894  0.2874  0.1058  0.6458
 1228SOL    HW215664   3.059  13.407   3.875 -0.0286  0.2476 -2.2088
 1229SOL     OW15665   2.911   2.899  11.950  0.3284  0.4724 -0.1568
 1229SOL    HW115666   2.870   2.844  12.017  0.0094 -1.4375 -1.8142
 1229SOL    HW215667   3.002   2.908  11.979  0.4458 -1.1535  0.0796
 1230SOL     OW15668   8.117   8.435   4.574  0.1303  0.3909  0.4944
 1230SOL    HW115669   8.202   8.467   4.543 -0.8781  1.5519 -1.2280
 1230SOL    HW215670   8.113   8.464   4.665  1.0931  1.3406  0.2607
 1231SOL     OW15671   5.528   3.941   4.533  0.4164 -0.6428  1.1194
 1231SOL    HW115672   5.475   3.991   4.596 -1.1313  2.9324 -2.5720
 1231SOL    HW215673   5.468   3.875   4.499 -0.6251  0.9502 -0.3224
 1232SOL     OW15674  10.937  11.510  12.074 -0.2348 -0.2585 -0.2919
 1232SOL    HW115675  10.947  11.547  12.162 -3.4300  0.6254 -0.1602
 1232SOL    HW215676  10.994  11.433  12.073  1.8243  1.0939  1.6203
 1233SOL     OW15677   8.083   7.303   1.467 -0.0394  0.0544 -0.0655
 1233SOL    HW115678   8.003   7.283   1.516  0.5177 -1.0203  0.4368
 1233SOL    HW215679   8.072   7.394   1.439 -0.4411  0.6843  1.9719
 1234SOL     OW15680  13.104   5.387   4.867 -0.6123 -0.2305 -0.4568
 1234SOL    HW115681  13.028   5.384   4.809 -1.2357  0.0178  0.3413
 1234SOL    HW215682  13.092   5.313   4.926 -1.0791  0.7470  0.7032
 1235SOL     OW15683   4.522   1.277  11.717 -0.0725 -0.6138  0.2929
 1235SOL    HW115684   4.529   1.204  11.655 -0.3293 -0.4507  0.0673
 1235SOL    HW215685   4.470   1.342  11.670 -1.8017 -1.1854  1.3298
 1236SOL     OW15686   5.021   1.408  11.235  0.1862  0.0436 -0.3203
 1236SOL    HW115687   5.105   1.364  11.250  0.7985  1.8544  2.4053
 1236SOL    HW215688   4.957   1.351  11.278  0.4862  0.1612  0.2927
 1237SOL     OW15689   5.979   9.261  11.507  0.1350 -0.0591 -0.1597
 1237SOL    HW115690   5.896   9.257  11.554  0.9007 -0.1554  1.2529
 1237SOL    HW215691   5.955   9.249  11.415 -1.4456  0.3497  0.1598
 1238SOL     OW15692  12.115   3.217   4.536  0.9945 -0.3963  0.3354
 1238SOL    HW115693  12.180   3.253   4.476  1.0142 -0.6636  0.1949
 1238SOL    HW215694  12.104   3.126   4.508  0.0840 -0.1805 -0.0643
 1239SOL     OW15695  10.060   3.617   9.532 -0.2926 -1.2500 -0.0249
 1239SOL    HW115696   9.973   3.604   9.495  0.4894 -2.0719 -1.7274
 1239SOL    HW215697  10.114   3.548   9.492  1.4449  0.0944 -0.1550
 1240SOL     OW15698   3.618  10.012  10.220 -0.0411  0.8605  0.4218
 1240SOL    HW115699   3.531  10.051  10.217  0.3961  1.8309 -0.0487
 1240SOL    HW215700   3.667  10.066  10.282 -0.2719 -0.7911  2.1666
 1241SOL     OW15701   1.807  10.565   3.258  0.5264  0.1354 -0.5125
 1241SOL    HW115702   1.801  10.642   3.202 -0.6526  0.8914  0.6163
 1241SOL    HW215703   1.752  10.585   3.333  4.5928  0.5977  2.6647
 1242SOL     OW15704  11.669   6.143   9.696  0.3492 -0.4052 -0.0835
 1242SOL    HW115705  11.715   6.217   9.654  0.1580  0.5855  1.3614
 1242SOL    HW215706  11.578   6.153   9.669  0.0465  0.7965  1.2484
 1243SOL     OW15707  13.317   7.363   3.773 -0.7933 -0.4246 -0.4551
 1243SOL    HW115708  13.407   7.358   3.740 -0.4486 -3.6900  0.6021
 1243SOL    HW215709  13.271   7.292   3.728 -1.4800 -2.0516  2.5355
 1244SOL     OW15710  12.175   0.857   7.332  0.4352 -0.3223 -0.3986
 1244SOL    HW115711  12.228   0.866   7.412 -0.4701 -1.9746  0.4582
 1244SOL    HW215712  12.173   0.762   7.316  0.3360 -0.0368 -2.2219
 1245SOL     OW15713   0.440   7.132   1.857 -0.2903  0.0062  0.3520
 1245SOL    HW115714   0.469   7.222   1.875 -0.4789  0.0306  0.5452
 1245SOL    HW215715   0.435   7.127   1.761  0.4682 -0.0396  0.3109
 1246SOL     OW15716  13.470  12.727  10.523  0.1643  0.0689 -0.2840
 1246SOL    HW115717  13.498  12.710  10.434  1.1316 -1.2537  0.2505
 1246SOL    HW215718  13.527  12.798  10.554  0.3595 -0.0217 -0.4410
 1247SOL     OW15719  10.196   1.072  12.561 -0.5739 -0.2293  0.1209
 1247SOL    HW115720  10.260   1.138  12.587 -0.8258 -0.1264  0.4905
 1247SOL    HW215721  10.180   1.088  12.468 -0.7250  0.3042  0.2390
 1248SOL     OW15722   5.343   4.207  10.060 -0.0552 -0.4745 -0.0326
 1248SOL    HW115723   5.250   4.195  10.076 -0.4179  1.7014 -0.1524
 1248SOL    HW215724   5.350   4.296  10.025  2.2233  0.1323  1.6876
 1249SOL     OW15725   8.408   1.890   0.522  0.3930 -0.5666  0.6644
 1249SOL    HW115726   8.374   1.918   0.437 -1.4774 -0.7388  1.3154
 1249SOL    HW215727   8.495   1.930   0.527  0.5508 -0.5550 -1.3138
 1250SOL     OW15728  10.709   5.852   8.721 -0.5270 -0.8882 -0.9221
 1250SOL    HW115729  10.617   5.838   8.741 -0.5663  1.3504  0.8273
 1250SOL    HW215730  10.721   5.816   8.633 -2.5788 -2.9600 -0.4371
 1251SOL     OW15731  13.066   6.549   1.665  0.1715  0.1524 -0.1814
 1251SOL    HW115732  13.029   6.469   1.704 -0.7654  0.0878 -1.1610
 1251SOL    HW215733  13.158   6.547   1.690  0.0025 -0.8528  0.4340
 1252SOL     OW15734   9.919   2.423   9.310  0.2890  0.2860 -0.0963
 1252SOL    HW115735   9.903   2.331   9.287 -0.1352  0.5681 -0.9516
 1252SOL    HW215736   9.922   2.423   9.406 -1.5453 -0.3420  0.0079
 1253SOL     OW15737  13.073   9.526   4.433  0.1786  0.2452  0.6139
 1253SOL    HW115738  13.158   9.566   4.448  0.5772 -0.1908 -0.4269
 1253SOL    HW215739  13.080   9.485   4.347 -0.9655 -0.1033  0.6695
 1254SOL     OW15740   9.420   4.378   8.173  0.1978 -0.0421 -1.0164
 1254SOL    HW115741   9.457   4.319   8.107 -0.2055  0.7944 -2.0122
 1254SOL    HW215742   9.349   4.424   8.127  0.3908  1.0925 -0.2112
 1255SOL     OW15743   9.159  11.904   5.307 -0.0909 -0.1167  0.6359
 1255SOL    HW115744   9.156  11.926   5.400  0.6358 -1.7213  1.0754
 1255SOL    HW215745   9.176  11.810   5.306  0.6094  0.0060 -1.1331
 1256SOL     OW15746   7.718  13.485  11.420  0.0351 -0.5639  0.3483
 1256SOL    HW115747   7.728  13.466  11.514 -0.4051  0.3960  0.5955
 1256SOL    HW215748   7.628  13.462  11.400 -0.4874  1.1210  0.6374
 1257SOL     OW15749   3.604   8.759   4.927  0.1887  0.4094 -0.0048
 1257SOL    HW115750   3.636   8.792   5.011 -0.1372  0.4883  0.0908
 1257SOL    HW215751   3.606   8.664   4.936  0.3675  0.4165  0.0127
 1258SOL     OW15752   2.317   7.787  10.013  0.2392  0.0611  0.0493
 1258SOL    HW115753   2.243   7.728  10.021  1.0909 -1.0307  0.2089
 1258SOL    HW215754   2.286   7.870  10.048 -0.5963 -0.6534  1.0904
 1259SOL     OW15755   6.569  11.248   4.588  0.0284 -0.2957  0.1140
 1259SOL    HW115756   6.483  11.290   4.592  0.1530  0.0092 -0.3286
 1259SOL    HW215757   6.627  11.316   4.554  0.8369  0.0976  2.1061
 1260SOL     OW15758   9.367  13.688  12.360 -0.2312  0.3308 -0.0794
 1260SOL    HW115759   9.419  13.635  12.420 -0.5671 -0.1261 -0.1933
 1260SOL    HW215760   9.279  13.687  12.398  0.0774  2.1354  0.8116
 1261SOL     OW15761   8.075  11.810   5.229 -0.6873  0.0671 -0.7207
 1261SOL    HW115762   7.995  11.834   5.276 -0.1699 -2.1306  1.5022
 1261SOL    HW215763   8.138  11.878   5.253 -0.3868 -1.0800  2.1009
 1262SOL     OW15764   1.755   1.015   3.480 -0.2445  0.2561 -0.3574
 1262SOL    HW115765   1.828   0.956   3.462  0.4538  0.3648  1.8277
 1262SOL    HW215766   1.691   0.960   3.525 -0.2989  0.7976  0.2360
 1263SOL     OW15767   8.951   6.011  14.005 -0.5612 -0.3710 -0.2594
 1263SOL    HW115768   8.905   5.996  13.923 -0.7925  0.9982 -0.4003
 1263SOL    HW215769   8.916   6.094  14.038 -0.0006 -0.5658  0.8880
 1264SOL     OW15770   8.833   4.968   6.328  0.4556 -0.0210  0.4917
 1264SOL    HW115771   8.747   4.941   6.360 -0.7890  2.5609 -0.4504
 1264SOL    HW215772   8.847   4.914   6.251 -1.0536  0.5387 -0.2191
 1265SOL     OW15773  13.949  13.383   8.630 -0.7641  0.2685  0.1704
 1265SOL    HW115774  13.907  13.303   8.661  1.5427 -1.2012 -0.2984
 1265SOL    HW215775  13.932  13.385   8.536  1.1210 -0.9901 -0.2454
 1266SOL     OW15776   8.516   3.832   9.000  0.3344 -0.1320 -0.0148
 1266SOL    HW115777   8.491   3.923   9.010  0.2529 -0.3050  1.5345
 1266SOL    HW215778   8.589   3.819   9.060  0.3548 -1.0804 -0.2173
 1267SOL     OW15779   9.619  12.256   6.362  0.4640 -0.0735  0.0453
 1267SOL    HW115780   9.633  12.344   6.396 -2.0719 -0.2868  1.9356
 1267SOL    HW215781   9.565  12.268   6.284 -0.6560  0.0582  0.8147
 1268SOL     OW15782   8.105   2.144  13.587  0.0532 -0.0324 -0.3308
 1268SOL    HW115783   8.142   2.229  13.562 -2.2272  0.2279 -3.3495
 1268SOL    HW215784   8.159   2.080  13.541 -0.3332  0.0449 -0.9050
 1269SOL     OW15785   4.377   4.598   8.728  0.4680  0.9182 -0.0745
 1269SOL    HW115786   4.312   4.668   8.728 -0.4511  0.1361  1.7496
 1269SOL    HW215787   4.350   4.540   8.800  2.0474 -0.5070 -0.5602
 1270SOL     OW15788  12.142   9.911   6.180 -0.1009 -0.1777 -0.1706
 1270SOL    HW115789  12.120   9.850   6.110  0.0095 -0.0168 -0.3487
 1270SOL    HW215790  12.238   9.910   6.182 -0.0722  0.5705 -0.6995
 1271SOL     OW15791   3.910  10.649   6.709  0.7874  0.0061  0.8669
 1271SOL    HW115792   3.889  10.672   6.799  0.6852  1.1665  0.5665
 1271SOL    HW215793   3.843  10.693   6.657  2.3175  1.5203  0.0713
 1272SOL     OW15794   7.678  10.263  12.024  0.0335 -0.1207  0.2285
 1272SOL    HW115795   7.598  10.260  11.972 -0.3861 -0.6894  0.8895
 1272SOL    HW215796   7.749  10.256  11.960 -0.4540 -0.0514 -0.3225
 1273SOL     OW15797   0.985   5.531   3.715  0.4148 -0.4775  0.0498
 1273SOL    HW115798   1.080   5.531   3.702  0.3561 -0.2617 -0.3979
 1273SOL    HW215799   0.967   5.614   3.759  0.2688  0.1825 -1.1961
 1274SOL     OW15800  12.070   5.103   1.759 -0.4595 -0.1993 -0.5430
 1274SOL    HW115801  12.102   5.021   1.722 -0.4245 -0.9299  1.0260
 1274SOL    HW215802  11.989   5.120   1.710 -2.6326 -3.2787  1.5852
 1275SOL     OW15803   7.151  11.692  13.933  0.1321 -0.2446 -0.1695
 1275SOL    HW115804   7.115  11.779  13.914 -0.7085 -0.5457  0.0163
 1275SOL    HW215805   7.226  11.684  13.874 -0.9434 -0.1614 -1.5991
 1276SOL     OW15806   7.999   0.797   9.455  0.0169  0.0363  0.2373
 1276SOL    HW115807   8.022   0.889   9.465  1.3569 -0.3436  0.9093
 1276SOL    HW215808   8.024   0.776   9.365 -2.1098  0.7835 -0.5859
 1277SOL     OW15809   9.343   9.055  13.522  0.0850  0.2878  0.0050
 1277SOL    HW115810   9.256   9.058  13.561  0.5491  2.0756  0.9972
 1277SOL    HW215811   9.330   9.080  13.430 -0.3453  1.4645  0.3759
 1278SOL     OW15812  12.957   3.014   4.541 -0.1103  0.7329  0.3872
 1278SOL    HW115813  13.023   3.031   4.609 -0.0136  0.4355  0.3696
 1278SOL    HW215814  12.952   2.918   4.537  1.2004  0.6969 -1.2949
 1279SOL     OW15815  10.266   8.527  13.639 -0.1393 -0.0320 -0.1448
 1279SOL    HW115816  10.346   8.580  13.630  0.2836 -0.4543  0.9639
 1279SOL    HW215817  10.203   8.568  13.580 -0.3447  2.6951  1.7782
 1280SOL     OW15818   9.544   2.761  12.773 -0.2645 -0.2082  0.1280
 1280SOL    HW115819   9.543   2.838  12.830 -1.9324  1.2684 -1.7196
 1280SOL    HW215820   9.548   2.798  12.684 -0.2912 -2.3046 -0.7906
 1281SOL     OW15821   1.058   6.905   3.787  0.3082 -0.4734 -0.4978
 1281SOL    HW115822   1.033   6.982   3.838  0.0670 -0.5931 -0.4366
 1281SOL    HW215823   1.028   6.924   3.698 -2.4296 -1.7273  0.0625
 1282SOL     OW15824   0.314   9.191  10.769 -0.7419  0.1200 -0.2678
 1282SOL    HW115825   0.252   9.254  10.732 -1.0953 -0.6682 -1.0647
 1282SOL    HW215826   0.260   9.135  10.825 -0.3929  0.6461  0.6105
 1283SOL     OW15827   8.413   0.752  12.442 -0.0204 -0.1331 -0.3549
 1283SOL    HW115828   8.440   0.660  12.443 -1.3113 -0.5322  0.1370
 1283SOL    HW215829   8.360   0.763  12.521  0.1524  1.0542 -0.3801
 1284SOL     OW15830   7.756   4.241   0.410  0.4293  0.2428 -0.4145
 1284SOL    HW115831   7.663   4.260   0.406  0.3289 -0.1549 -0.0735
 1284SOL    HW215832   7.781   4.219   0.320  0.0493 -0.2876 -0.3968
 1285SOL     OW15833   1.339   1.110   3.992 -0.2342  0.9122  0.5232
 1285SOL    HW115834   1.297   1.166   4.057 -0.0738  0.7269  0.7860
 1285SOL    HW215835   1.403   1.060   4.041 -1.4080 -0.6086  0.5656
 1286SOL     OW15836   6.745  11.495  13.355 -0.0710 -0.5991 -0.5533
 1286SOL    HW115837   6.682  11.548  13.308 -0.7215 -1.2936 -0.4887
 1286SOL    HW215838   6.770  11.426  13.294  0.9934 -0.0592 -0.7411
 1287SOL     OW15839   5.051   5.114   1.683  0.2519  0.4094  0.1468
 1287SOL    HW115840   5.005   5.080   1.606  0.8482  0.2376 -0.1455
 1287SOL    HW215841   4.999   5.189   1.711  1.6224  2.4668 -2.3154
 1288SOL     OW15842   0.147   7.583   0.641  0.2055  0.5556 -0.5888
 1288SOL    HW115843   0.101   7.560   0.722 -0.6185 -0.2220 -1.2647
 1288SOL    HW215844   0.100   7.660   0.609 -0.6382 -0.2289 -1.2709
 1289SOL     OW15845  10.846   6.081   1.421  0.1569  0.2553  0.0731
 1289SOL    HW115846  10.812   6.171   1.428  0.4598  0.3123  0.9747
 1289SOL    HW215847  10.768   6.026   1.419 -0.0418  0.5575 -0.9107
 1290SOL     OW15848   5.677   5.623  12.044  0.1434  0.0718  0.1221
 1290SOL    HW115849   5.771   5.613  12.056  0.2874 -0.1895 -1.0806
 1290SOL    HW215850   5.660   5.715  12.063  0.5093 -0.0336  1.0419
 1291SOL     OW15851   8.094   3.008  13.220  0.2054  0.9311  0.7985
 1291SOL    HW115852   8.142   2.964  13.289  2.3872  1.0369 -0.5642
 1291SOL    HW215853   8.036   3.069  13.266 -0.3778 -0.8657  2.5759
 1292SOL     OW15854   8.352   4.845   1.065  0.1791  0.5175 -0.6340
 1292SOL    HW115855   8.408   4.804   0.999  0.0623  1.2584 -1.2124
 1292SOL    HW215856   8.268   4.857   1.020 -0.6090 -0.9795  0.3575
 1293SOL     OW15857  12.539   4.102  12.400 -0.5894  0.5049 -0.5245
 1293SOL    HW115858  12.592   4.163  12.452 -0.2715  0.0608 -0.3197
 1293SOL    HW215859  12.456   4.147  12.388 -1.4748 -0.2084  2.2080
 1294SOL     OW15860   9.695   6.468   1.338 -0.3622 -0.4423  0.3670
 1294SOL    HW115861   9.676   6.376   1.356  0.7042 -1.0403 -1.3562
 1294SOL    HW215862   9.621   6.498   1.286 -1.1741 -0.0168  1.7095
 1295SOL     OW15863  12.085   6.251  10.812  0.0307  0.6054  0.4088
 1295SOL    HW115864  12.139   6.232  10.889 -0.1627 -0.0329  0.3950
 1295SOL    HW215865  12.134   6.213  10.739 -1.2054 -1.4847  0.5984
 1296SOL     OW15866  13.580   0.999  11.698 -0.6456 -0.3497  0.0736
 1296SOL    HW115867  13.620   0.913  11.682 -1.2705 -0.5277 -0.5950
 1296SOL    HW215868  13.639   1.061  11.655 -0.2861 -0.4614  0.4031
 1297SOL     OW15869   2.220   7.596   2.418  0.3791 -0.1313  0.6468
 1297SOL    HW115870   2.171   7.594   2.500 -0.5266 -1.7512  0.1201
 1297SOL    HW215871   2.248   7.687   2.409 -0.8605  0.4234  1.9618
 1298SOL     OW15872  12.218  13.999   2.890 -0.6115  0.3411 -0.0893
 1298SOL    HW115873  12.220  14.031   2.800 -2.3037  0.5334 -0.0913
 1298SOL    HW215874  12.302  13.954   2.902 -0.5794 -0.1557 -1.9360
 1299SOL     OW15875   7.113   6.232   4.591 -0.1121  0.0996 -0.3354
 1299SOL    HW115876   7.191   6.262   4.637 -0.0229  0.9772 -1.0339
 1299SOL    HW215877   7.143   6.160   4.536  0.1713  0.2959 -0.4402
 1300SOL     OW15878  12.461  10.597   1.820 -0.1251  0.1592  0.2974
 1300SOL    HW115879  12.468  10.565   1.910  1.0901  1.3567  0.6644
 1300SOL    HW215880  12.512  10.678   1.820  0.6389 -0.2790 -1.7013
 1301SOL     OW15881   1.403   3.154   5.807  0.3960 -0.6261 -0.0855
 1301SOL    HW115882   1.353   3.132   5.885 -1.8458 -0.3111 -1.3573
 1301SOL    HW215883   1.340   3.195   5.748  2.5421  1.4981 -1.1135
 1302SOL     OW15884   0.966   8.616   7.797  0.0743  0.0513  0.3937
 1302SOL    HW115885   0.957   8.706   7.768  0.0100 -0.2773 -0.6606
 1302SOL    HW215886   0.879   8.591   7.828  0.2067  0.4927  1.1293
 1303SOL     OW15887  13.030   5.463   7.055  0.2116 -0.3073  0.1494
 1303SOL    HW115888  13.041   5.551   7.091 -3.2292 -0.1024  1.0115
 1303SOL    HW215889  13.018   5.477   6.961 -2.9315  0.5548  0.5774
 1304SOL     OW15890  12.490   8.322  10.600  0.1465  0.3390 -0.3199
 1304SOL    HW115891  12.544   8.313  10.521  1.3282 -0.3622  0.5266
 1304SOL    HW215892  12.414   8.372  10.571  1.2133  1.3122 -1.5836
 1305SOL     OW15893   9.685   4.253  13.836 -0.1439  0.2226  0.0897
 1305SOL    HW115894   9.649   4.176  13.793 -0.2623  0.3264 -0.0003
 1305SOL    HW215895   9.772   4.265  13.798  1.0129 -1.4457  2.0138
 1306SOL     OW15896  11.342  10.147   4.463 -0.5696 -0.4129  0.8353
 1306SOL    HW115897  11.296  10.072   4.426 -2.4883  1.0261  0.1405
 1306SOL    HW215898  11.285  10.177   4.534 -0.1761  0.7635  0.6783
 1307SOL     OW15899   0.350   5.853   1.075 -0.1403  0.2352 -0.2632
 1307SOL    HW115900   0.311   5.938   1.056  0.2991  0.2829 -1.0090
 1307SOL    HW215901   0.289   5.789   1.037  0.0409  0.2700 -0.6209
 1308SOL     OW15902  11.765   1.926   3.394 -0.1431  0.2391 -0.1767
 1308SOL    HW115903  11.685   1.877   3.376  0.0363 -0.5174  0.9362
 1308SOL    HW215904  11.748   2.014   3.361 -2.8232  1.1298  2.9985
 1309SOL     OW15905   5.672   3.361   7.916  0.2291 -0.2188  0.0444
 1309SOL    HW115906   5.691   3.267   7.913  0.8099 -0.1100  0.2431
 1309SOL    HW215907   5.652   3.384   7.826 -0.4228 -0.6305  0.0710
 1310SOL     OW15908   7.386   1.427  12.049  0.1787 -0.2835 -0.0131
 1310SOL    HW115909   7.304   1.451  12.093 -0.2834 -2.2759  0.2853
 1310SOL    HW215910   7.395   1.333  12.063  2.3796 -0.1706 -0.3152
 1311SOL     OW15911   8.193   8.799   4.219  0.2157  0.1522  0.5797
 1311SOL    HW115912   8.259   8.812   4.287  1.0191  0.6076 -0.2588
 1311SOL    HW215913   8.160   8.887   4.200 -0.4889 -0.0474  0.8421
 1312SOL     OW15914   9.187   1.687  12.825  0.2755  0.2957  0.4767
 1312SOL    HW115915   9.267   1.729  12.794  0.8167 -0.6634  0.5557
 1312SOL    HW215916   9.184   1.707  12.918  0.2278  0.6285  0.4077
 1313SOL     OW15917   8.615   0.088   5.783  0.0336 -0.2523  0.7402
 1313SOL    HW115918   8.570   0.152   5.838 -0.3094  0.6302 -0.5284
 1313SOL    HW215919   8.687   0.136   5.744 -1.4833  0.0457 -1.9376
 1314SOL     OW15920   0.931  10.408   8.280 -0.0183  0.4624  0.1206
 1314SOL    HW115921   0.896  10.496   8.291  1.8766  1.5459 -1.7806
 1314SOL    HW215922   1.012  10.408   8.332 -1.0154 -0.9042  1.7808
 1315SOL     OW15923   4.516  10.811   0.481 -0.4418 -0.5870 -0.1220
 1315SOL    HW115924   4.558  10.887   0.442 -0.7664 -0.0244  0.5808
 1315SOL    HW215925   4.426  10.840   0.499  0.1957 -0.0533  2.8965
 1316SOL     OW15926  13.073   7.349  11.771 -0.0367  0.0809  0.1619
 1316SOL    HW115927  13.137   7.285  11.738  0.0624 -0.9063  2.1570
 1316SOL    HW215928  13.007   7.296  11.815 -1.3572  1.2180 -0.3839
 1317SOL     OW15929  13.992  10.984   4.676 -0.0069 -0.6401  0.3121
 1317SOL    HW115930  13.979  10.963   4.584  0.3912 -0.8703  0.3020
 1317SOL    HW215931  14.087  10.998   4.684 -0.2645  1.5016  0.2533
 1318SOL     OW15932  13.738   7.517  10.676  0.0306  0.0537 -0.2382
 1318SOL    HW115933  13.739   7.455  10.603 -0.6184  0.3882 -0.5406
 1318SOL    HW215934  13.651   7.558  10.671  0.7222  1.5508 -0.5314
 1319SOL     OW15935   9.236   6.570   6.171 -0.0447 -0.0427 -0.2481
 1319SOL    HW115936   9.277   6.630   6.108  0.1274  0.4138  0.2900
 1319SOL    HW215937   9.142   6.588   6.163  0.0531  0.8551  0.4503
 1320SOL     OW15938   2.340  12.769  11.603  0.0738 -0.1993 -0.2630
 1320SOL    HW115939   2.325  12.863  11.598  1.2159 -0.0174 -0.7531
 1320SOL    HW215940   2.418  12.755  11.549 -0.8370 -1.6125 -1.3007
 1321SOL     OW15941   8.563   3.305  11.245  0.5461 -0.3181 -1.0719
 1321SOL    HW115942   8.652   3.294  11.278  0.4148  0.4065 -0.4764
 1321SOL    HW215943   8.506   3.276  11.316  0.2931 -1.2795 -1.6361
 1322SOL     OW15944   3.191   5.424   9.582 -0.3303 -0.0144 -0.2034
 1322SOL    HW115945   3.230   5.383   9.504 -0.9128 -0.1116 -0.4472
 1322SOL    HW215946   3.191   5.517   9.563  2.9243  0.4245  1.1900
 1323SOL     OW15947   2.562   7.892   5.403 -0.0621 -0.0442 -0.4205
 1323SOL    HW115948   2.525   7.804   5.402 -2.2209  0.7745  0.6663
 1323SOL    HW215949   2.510   7.941   5.339 -0.5456  1.0135  0.7444
 1324SOL     OW15950   5.386  12.666  12.595 -0.6674  0.3882  0.2619
 1324SOL    HW115951   5.436  12.735  12.638  1.4988 -1.5770  1.0893
 1324SOL    HW215952   5.308  12.655  12.649  0.2934  0.3802  1.6883
 1325SOL     OW15953   0.880   5.621   5.593 -0.3791 -0.6003 -0.1668
 1325SOL    HW115954   0.895   5.698   5.649 -1.2485 -0.4274 -0.1540
 1325SOL    HW215955   0.787   5.626   5.571 -0.5598 -1.9314  0.2380
 1326SOL     OW15956   8.723   4.635   1.888  0.5650  0.5048 -0.2849
 1326SOL    HW115957   8.779   4.713   1.881  0.9800  0.2943  0.5345
 1326SOL    HW215958   8.759   4.587   1.962  1.7543 -1.6471 -2.1364
 1327SOL     OW15959   9.128  10.930   6.809  0.9653 -0.8178 -0.0437
 1327SOL    HW115960   9.222  10.913   6.811  1.3356  0.9172  2.5385
 1327SOL    HW215961   9.118  11.013   6.856 -1.8222 -0.6735 -0.7221
 1328SOL     OW15962   3.864   4.189   1.333  0.1057  0.1648 -0.2749
 1328SOL    HW115963   3.943   4.213   1.381  1.2680 -2.0080 -0.9288
 1328SOL    HW215964   3.796   4.180   1.400  0.9508  0.0345  0.5778
 1329SOL     OW15965  10.377   5.535  10.858  0.7307  0.1910  0.1268
 1329SOL    HW115966  10.430   5.588  10.799 -0.2049  1.8318  0.6836
 1329SOL    HW215967  10.363   5.590  10.935 -2.1326  0.0638 -0.1784
 1330SOL     OW15968  11.391   0.045   1.168 -0.3669  0.6179 -0.3202
 1330SOL    HW115969  11.478   0.037   1.128 -0.0087  0.3768  0.4984
 1330SOL    HW215970  11.397   0.122   1.224 -1.0381  1.2768 -1.1203
 1331SOL     OW15971   8.515  10.993  12.312 -0.1468 -0.8045 -0.5236
 1331SOL    HW115972   8.421  10.973  12.319 -0.1154 -0.8902 -0.3443
 1331SOL    HW215973   8.531  10.999  12.217 -0.1441 -1.6869 -0.5822
 1332SOL     OW15974   3.942  11.575  12.632  0.3211 -0.2600  0.0794
 1332SOL    HW115975   3.938  11.491  12.587 -0.4442 -0.0995 -0.1727
 1332SOL    HW215976   3.860  11.619  12.609  1.1314  0.9625 -0.5781
 1333SOL     OW15977  11.720  13.339  12.816 -0.2729  0.5537  0.0609
 1333SOL    HW115978  11.719  13.415  12.758 -1.8972 -0.1826 -0.9689
 1333SOL    HW215979  11.627  13.317  12.828  0.1433 -1.4501  0.0297
 1334SOL     OW15980  11.904   5.827   5.115 -0.2649 -0.2879  0.0406
 1334SOL    HW115981  11.817   5.866   5.109 -0.9813 -1.8254 -0.0780
 1334SOL    HW215982  11.913   5.804   5.208  1.4958  2.9722  0.8328
 1335SOL     OW15983  10.776   1.812   0.131 -0.3630 -0.3239 -0.3692
 1335SOL    HW115984  10.811   1.806   0.041  1.0570 -0.3342  0.1490
 1335SOL    HW215985  10.775   1.906   0.150 -1.4891 -0.2577 -0.6798
 1336SOL     OW15986   0.068  12.391   1.388  0.2820  0.0563 -0.0637
 1336SOL    HW115987   0.092  12.478   1.420  0.4430  0.3400 -0.9177
 1336SOL    HW215988   0.139  12.368   1.327 -0.0315 -0.4380 -0.2478
 1337SOL     OW15989  10.915   4.247  12.756  0.1428  0.5297 -0.1223
 1337SOL    HW115990  10.821   4.258  12.771  0.3950  1.4421  0.8318
 1337SOL    HW215991  10.956   4.317  12.806  1.3422  0.1276 -0.5165
 1338SOL     OW15992   0.012   8.223   2.485 -0.0769  0.3060 -0.1497
 1338SOL    HW115993   0.037   8.315   2.480  0.0940  0.3199  0.7834
 1338SOL    HW215994   0.068   8.180   2.420  1.5041  0.5336  1.0049
 1339SOL     OW15995   2.430   5.576  10.124  0.5102 -0.4552  0.0556
 1339SOL    HW115996   2.433   5.665  10.089 -0.6745 -0.4109  0.0217
 1339SOL    HW215997   2.498   5.529  10.076  0.1139  0.0437 -1.0349
 1340SOL     OW15998  11.540   4.359  12.339  0.3055 -0.1121  0.0637
 1340SOL    HW115999  11.567   4.444  12.308 -2.1871  0.7314 -0.0619
 1340SOL    HW216000  11.506   4.314  12.262 -1.4172  0.1192  0.6245
 1341SOL     OW16001   2.472  12.514   2.493 -0.8413 -0.1128 -0.0530
 1341SOL    HW116002   2.436  12.516   2.405  1.1863  2.7519 -0.9788
 1341SOL    HW216003   2.537  12.445   2.491  1.0801  1.6101 -1.7724
 1342SOL     OW16004   9.347   9.059  10.690 -0.0222 -0.2888 -0.0484
 1342SOL    HW116005   9.263   9.014  10.697 -0.3846  0.5717  1.7042
 1342SOL    HW216006   9.390   9.018  10.615 -2.2879 -0.2567 -1.4449
 1343SOL     OW16007  12.215   9.538   7.695 -0.7029  0.5538  0.1635
 1343SOL    HW116008  12.283   9.584   7.645 -1.9245  3.4017  0.9074
 1343SOL    HW216009  12.240   9.550   7.786 -1.2327 -0.0259  0.3877
 1344SOL     OW16010  10.026   7.191   7.613 -0.2586 -0.0925  0.1292
 1344SOL    HW116011   9.937   7.155   7.616 -0.2499 -0.3346 -1.3891
 1344SOL    HW216012  10.082   7.114   7.601  0.0866  0.1177  0.3901
 1345SOL     OW16013   2.611   1.685  10.386 -0.1810  0.1765 -0.5094
 1345SOL    HW116014   2.688   1.633  10.361 -0.0933 -0.6524  1.3324
 1345SOL    HW216015   2.596   1.742  10.311  1.7018 -0.2567 -1.2890
 1346SOL     OW16016   4.761  11.579  12.250 -0.1097  0.0306 -0.1444
 1346SOL    HW116017   4.847  11.537  12.257  0.6186  1.4689 -0.1315
 1346SOL    HW216018   4.701  11.519  12.294  1.1809 -0.1503  1.4434
 1347SOL     OW16019   4.912   0.604   3.497  0.5312  0.2644 -0.6613
 1347SOL    HW116020   4.998   0.563   3.482  1.0858  1.2856 -0.3996
 1347SOL    HW216021   4.930   0.698   3.492 -0.4398  0.5016  0.1202
 1348SOL     OW16022   5.690   4.595  10.072  0.6991 -0.0667  0.3953
 1348SOL    HW116023   5.702   4.584  10.167 -2.4015 -2.8577  0.6669
 1348SOL    HW216024   5.764   4.550  10.033  1.3312 -0.0271  1.4966
 1349SOL     OW16025   6.678   8.261  13.390 -0.7075  0.1389  0.4025
 1349SOL    HW116026   6.712   8.259  13.301 -1.0630  3.3533  0.0624
 1349SOL    HW216027   6.710   8.180  13.430  0.6771 -0.7131 -2.1936
 1350SOL     OW16028  13.489   1.997   4.830  0.5196  0.6847 -0.2600
 1350SOL    HW116029  13.554   2.037   4.772  1.4070  0.8809  0.8367
 1350SOL    HW216030  13.464   1.916   4.785  0.3851  1.3416 -1.4162
 1351SOL     OW16031   7.815  10.847  13.811  0.0120  0.0348 -0.7183
 1351SOL    HW116032   7.887  10.829  13.872 -0.0238 -1.1226 -0.9872
 1351SOL    HW216033   7.826  10.939  13.788  0.1542  0.4484  0.8575
 1352SOL     OW16034   3.818  13.187   8.515  0.0020 -0.3045  0.2828
 1352SOL    HW116035   3.898  13.203   8.564 -0.1383 -0.9998  0.7482
 1352SOL    HW216036   3.816  13.092   8.501 -0.5888 -0.2621  0.0192
 1353SOL     OW16037  11.713   9.376   0.776  0.2721 -0.1763 -0.2731
 1353SOL    HW116038  11.633   9.373   0.829  0.7650 -1.2220  0.4416
 1353SOL    HW216039  11.691   9.434   0.703 -0.8543  0.2322  0.3663
 1354SOL     OW16040  10.099  12.327   3.691  0.7502  0.2706 -0.4992
 1354SOL    HW116041  10.120  12.370   3.773  0.8849  0.5014 -0.6535
 1354SOL    HW216042  10.107  12.234   3.709  0.9333  0.3273 -0.2955
 1355SOL     OW16043   0.442   5.604  13.787  0.1269 -0.0057 -0.2395
 1355SOL    HW116044   0.519   5.618  13.731  1.1034 -1.9856  0.5251
 1355SOL    HW216045   0.407   5.692  13.801  2.2027  0.9664 -0.6939
 1356SOL     OW16046   9.297   4.551   9.622  0.3075 -0.0959 -0.1518
 1356SOL    HW116047   9.238   4.488   9.663 -0.3008  1.3143  1.2440
 1356SOL    HW216048   9.366   4.566   9.686  0.9324 -0.0156 -0.8340
 1357SOL     OW16049   7.657   8.142   4.921  0.0568 -0.0057 -0.0699
 1357SOL    HW116050   7.672   8.173   5.011  0.6934 -2.7967  0.9142
 1357SOL    HW216051   7.598   8.068   4.932 -1.6343  0.9371 -2.2666
 1358SOL     OW16052   9.401   5.480   3.370  0.4837 -0.4350  0.6204
 1358SOL    HW116053   9.393   5.568   3.333  1.6763 -0.6038 -0.1089
 1358SOL    HW216054   9.495   5.466   3.377  0.3060 -0.8541  2.7504
 1359SOL     OW16055   5.611   2.134   1.785 -0.4028 -0.0563 -0.7571
 1359SOL    HW116056   5.692   2.083   1.779  1.4280  2.3607  1.0964
 1359SOL    HW216057   5.585   2.147   1.694  1.2968 -0.9171 -1.4207
 1360SOL     OW16058   5.416   8.700  12.675 -0.0237  0.1227  0.3630
 1360SOL    HW116059   5.327   8.725  12.651 -0.7376 -2.0123  0.5781
 1360SOL    HW216060   5.461   8.687  12.591 -0.3206 -0.0847  0.2345
 1361SOL     OW16061   3.027   4.714   0.564  0.2113 -0.3898 -0.3972
 1361SOL    HW116062   3.006   4.622   0.549  0.1367 -0.2959 -0.8887
 1361SOL    HW216063   3.096   4.733   0.500  1.5128 -0.5853  0.9124
 1362SOL     OW16064   7.958  10.232  13.020 -0.0698  0.4631  0.3389
 1362SOL    HW116065   8.052  10.216  13.020  0.0975  1.0764 -1.7909
 1362SOL    HW216066   7.949  10.320  12.983 -1.5061  0.0309 -0.4067
 1363SOL     OW16067   6.185   8.197  10.292  0.3902  0.0801  0.0080
 1363SOL    HW116068   6.219   8.122  10.244 -0.9317 -1.0084  0.7280
 1363SOL    HW216069   6.263   8.238  10.331  0.9430 -2.1369  1.3711
 1364SOL     OW16070   6.102   5.820  12.912  0.5447 -0.2881  0.2678
 1364SOL    HW116071   6.042   5.758  12.954  0.9899 -1.2936 -0.5493
 1364SOL    HW216072   6.098   5.898  12.968 -1.7116 -0.2183  0.0863
 1365SOL     OW16073  11.296  13.771   3.137  0.1826  0.2026 -0.0963
 1365SOL    HW116074  11.325  13.681   3.127  1.2387  0.7084 -2.1319
 1365SOL    HW216075  11.324  13.815   3.057  0.3192  2.5183  1.1159
 1366SOL     OW16076   1.079   4.904   7.478  0.4594 -0.1712 -0.1375
 1366SOL    HW116077   1.127   4.857   7.547 -0.8096  0.7800  1.4843
 1366SOL    HW216078   0.993   4.862   7.475  0.0066  0.7276 -0.0907
 1367SOL     OW16079   3.657   4.654  11.340 -0.1876 -0.1845 -0.4049
 1367SOL    HW116080   3.680   4.713  11.267 -1.0809  1.3076  0.4710
 1367SOL    HW216081   3.741   4.623  11.373  0.2975  0.4161 -1.0391
 1368SOL     OW16082   5.829   6.672   7.921  0.1905  0.0097 -0.2212
 1368SOL    HW116083   5.845   6.761   7.951 -0.4776  0.0265  0.0959
 1368SOL    HW216084   5.916   6.631   7.920  0.4421  0.5315  0.0532
 1369SOL     OW16085  13.183   6.151  13.457  0.0739 -0.0318 -0.0739
 1369SOL    HW116086  13.123   6.196  13.398 -1.1881  1.2047  2.0313
 1369SOL    HW216087  13.168   6.192  13.543  2.9962 -0.5838  0.8174
 1370SOL     OW16088  13.194   4.279   2.588 -0.0757  0.7575  0.3751
 1370SOL    HW116089  13.231   4.331   2.516 -1.3460  0.7562 -0.3056
 1370SOL    HW216090  13.105   4.313   2.598 -0.7262 -0.8894  0.3228
 1371SOL     OW16091   2.179   6.709   2.122  0.1882 -0.1003  0.1996
 1371SOL    HW116092   2.221   6.717   2.036  2.3322  0.3921  1.2339
 1371SOL    HW216093   2.181   6.615   2.142 -0.8803 -0.2940 -0.5210
 1372SOL     OW16094   9.765   2.504   0.672 -0.1697 -0.0496 -0.3556
 1372SOL    HW116095   9.796   2.562   0.603 -0.0890  2.2389  1.5062
 1372SOL    HW216096   9.672   2.524   0.682  0.0021  0.2581  0.7489
 1373SOL     OW16097   3.751  12.313  12.582 -0.3388 -0.7221 -0.2962
 1373SOL    HW116098   3.826  12.364  12.549 -0.7723 -0.0873 -0.3304
 1373SOL    HW216099   3.678  12.340  12.527 -0.3965 -2.0679 -0.8929
 1374SOL     OW16100   1.569   0.749  12.046 -0.0666  0.1369 -0.2795
 1374SOL    HW116101   1.656   0.787  12.042 -1.0887  2.5344 -1.4543
 1374SOL    HW216102   1.557   0.707  11.961  0.2204 -0.9812  0.2053
 1375SOL     OW16103   6.352   0.323   6.297  0.5636 -0.0422  0.6479
 1375SOL    HW116104   6.330   0.231   6.314 -1.2091  0.3240  0.5374
 1375SOL    HW216105   6.370   0.359   6.383  0.8461 -0.3847  0.7369
 1376SOL     OW16106  11.389   3.429  12.832  0.0418  0.0143 -0.0744
 1376SOL    HW116107  11.330   3.451  12.759 -0.3471  0.7810  0.4663
 1376SOL    HW216108  11.469   3.478  12.813  0.9222 -1.7804 -1.3317
 1377SOL     OW16109   3.109  10.466   1.055 -0.1459  0.8543 -0.1274
 1377SOL    HW116110   3.123  10.494   1.145 -1.2239  1.3335 -0.0901
 1377SOL    HW216111   3.015  10.451   1.049  0.1278 -0.8743 -0.7043
 1378SOL     OW16112  11.388   1.615  13.799 -0.2310  0.1239  0.2777
 1378SOL    HW116113  11.363   1.703  13.771  0.1060  0.4686  1.0333
 1378SOL    HW216114  11.373   1.560  13.722 -1.3786  0.6657  0.0952
 1379SOL     OW16115   3.845   8.853   9.203  0.2818 -0.1948 -0.6499
 1379SOL    HW116116   3.852   8.758   9.193 -0.5394 -0.4612  1.0532
 1379SOL    HW216117   3.751   8.869   9.213  0.5762  0.5600  1.1546
 1380SOL     OW16118   4.170   0.692   6.915  0.3237 -0.2922  0.1018
 1380SOL    HW116119   4.115   0.764   6.885  0.1345 -1.0043 -1.3390
 1380SOL    HW216120   4.207   0.724   6.998 -2.7298 -0.0433  1.5091
 1381SOL     OW16121   6.810   7.735  12.661 -0.4338  0.0299 -0.1712
 1381SOL    HW116122   6.888   7.739  12.716 -0.6683 -0.5986  0.2247
 1381SOL    HW216123   6.837   7.684  12.585 -0.0199  1.1658 -0.8099
 1382SOL     OW16124   7.510   9.247   6.099 -0.6323 -0.0294 -0.1393
 1382SOL    HW116125   7.525   9.335   6.064  0.1570  0.4982  1.4567
 1382SOL    HW216126   7.416   9.243   6.113 -0.6982  0.4972 -0.3974
 1383SOL     OW16127  10.544   4.390   2.643 -0.2032  0.1209 -0.1910
 1383SOL    HW116128  10.503   4.462   2.595  0.8254 -0.3058 -1.8029
 1383SOL    HW216129  10.605   4.351   2.580  2.0289  0.1815  1.7975
 1384SOL     OW16130   4.761   2.981   3.200 -0.0376 -0.0826  0.3387
 1384SOL    HW116131   4.710   3.033   3.138 -1.1973 -1.4313  0.1142
 1384SOL    HW216132   4.706   2.975   3.278  0.7280  0.2610  0.9223
 1385SOL     OW16133   3.872  12.287   8.617  0.0066 -0.0500  0.0502
 1385SOL    HW116134   3.871  12.283   8.712  3.5328  1.9360  0.3148
 1385SOL    HW216135   3.935  12.220   8.591 -2.6622 -2.2974 -1.2184
 1386SOL     OW16136   6.573   4.347  13.511 -0.1951  0.2530 -0.0608
 1386SOL    HW116137   6.516   4.293  13.565  1.0066  0.0832  1.0845
 1386SOL    HW216138   6.652   4.359  13.563  0.1566  1.9022 -0.8871
 1387SOL     OW16139   9.997  13.169   7.392 -0.2196 -0.1130 -0.3649
 1387SOL    HW116140   9.965  13.108   7.326 -0.8083 -0.8500  0.5594
 1387SOL    HW216141  10.038  13.239   7.343  0.5675 -1.3023 -1.4631
 1388SOL     OW16142  12.947   1.037   0.310  0.1873  0.3086  0.2184
 1388SOL    HW116143  12.942   0.982   0.388  0.9342  0.0463  0.0812
 1388SOL    HW216144  12.856   1.062   0.293 -0.0415 -0.0649  0.8630
 1389SOL     OW16145   6.118   0.405  13.296  0.3923  0.3981 -0.1616
 1389SOL    HW116146   6.153   0.447  13.218  2.1816 -0.3958  0.1652
 1389SOL    HW216147   6.164   0.447  13.369  0.6970 -0.6878  0.2904
 1390SOL     OW16148   2.833   7.146   2.419 -0.2225 -0.0131 -0.1022
 1390SOL    HW116149   2.816   7.064   2.466  0.5285 -0.8721 -1.2778
 1390SOL    HW216150   2.765   7.150   2.353 -0.6935  0.6958  0.4195
 1391SOL     OW16151   9.082   8.965   1.297  0.1858  0.5309 -0.0213
 1391SOL    HW116152   9.033   8.908   1.238 -0.0077  0.0564  0.5900
 1391SOL    HW216153   9.029   8.970   1.376  0.4729  1.1121  0.1410
 1392SOL     OW16154   1.099  13.061   2.687 -0.7989  0.2993 -0.0556
 1392SOL    HW116155   1.176  13.073   2.742 -1.2591  1.1634  0.4189
 1392SOL    HW216156   1.025  13.061   2.748 -1.3233  1.3739 -0.6598
 1393SOL     OW16157   5.841   0.958  12.748  0.0020  0.0039  0.0962
 1393SOL    HW116158   5.800   0.923  12.828 -0.4864  0.3187 -0.0168
 1393SOL    HW216159   5.786   0.925  12.677 -0.3225  0.7966 -0.0281
 1394SOL     OW16160   8.093   5.109   1.325 -0.0094 -0.1121  0.4420
 1394SOL    HW116161   8.073   5.093   1.417  0.8082 -0.4001  0.5769
 1394SOL    HW216162   8.143   5.032   1.298  0.0314  0.1190 -0.1570
 1395SOL     OW16163   2.920   9.563   8.696 -0.2591  0.6183 -0.1734
 1395SOL    HW116164   2.961   9.582   8.780  0.4935  2.1498 -0.8475
 1395SOL    HW216165   2.921   9.468   8.689  0.3736  0.5110  1.1963
 1396SOL     OW16166  13.811   1.256   8.146 -0.4122 -0.4143  0.0121
 1396SOL    HW116167  13.903   1.273   8.125 -0.6478 -0.2124 -0.9229
 1396SOL    HW216168  13.762   1.315   8.087 -1.1410 -0.7657  0.2567
 1397SOL     OW16169  13.349   7.234   3.131  0.0932  0.1108 -0.2918
 1397SOL    HW116170  13.439   7.258   3.154  0.4315 -0.7561 -0.6902
 1397SOL    HW216171  13.337   7.265   3.041  0.1039 -0.0689 -0.3555
 1398SOL     OW16172   0.403  11.620  11.989  0.0741 -0.3580 -0.3705
 1398SOL    HW116173   0.413  11.711  11.961 -0.8241  0.1371  0.8171
 1398SOL    HW216174   0.487  11.598  12.030 -0.4028  0.6805  1.2514
 1399SOL     OW16175   5.309   8.156   1.423  0.5620  0.2346 -0.2276
 1399SOL    HW116176   5.297   8.221   1.353  1.3395  1.1150  0.4400
 1399SOL    HW216177   5.397   8.174   1.457  0.0425  0.0637  1.2336
 1400SOL     OW16178  12.584  11.904  12.779  0.5413 -0.9506  0.0918
 1400SOL    HW116179  12.568  11.844  12.706  0.2188 -1.0744  0.2624
 1400SOL    HW216180  12.566  11.991  12.743  0.8656 -0.9647 -0.1150
 1401SOL     OW16181   6.482   4.923   9.428 -0.3319  0.1299 -0.6652
 1401SOL    HW116182   6.391   4.953   9.431 -0.4122 -0.0226 -1.4214
 1401SOL    HW216183   6.521   4.971   9.355  0.0217 -0.2855 -0.7508
 1402SOL     OW16184  12.182   4.208   0.200 -0.3706  0.3223 -0.2303
 1402SOL    HW116185  12.167   4.302   0.207 -1.0224  0.3086 -1.1347
 1402SOL    HW216186  12.108   4.176   0.147  1.3363 -0.2244 -2.4637
 1403SOL     OW16187   2.788   8.629   8.069 -0.7461 -0.1427 -0.4709
 1403SOL    HW116188   2.807   8.542   8.033  0.0406  0.0600 -0.5612
 1403SOL    HW216189   2.785   8.686   7.992 -1.2661 -0.0912 -0.4120
 1404SOL     OW16190  12.209   9.060   3.281 -0.2480  0.0460  0.4610
 1404SOL    HW116191  12.273   9.025   3.218 -0.8992  0.6972 -0.5827
 1404SOL    HW216192  12.204   8.992   3.349  0.3723 -0.7374 -0.2396
 1405SOL     OW16193   4.807   0.020   8.980 -0.5946  0.1175  0.0609
 1405SOL    HW116194   4.724  -0.021   8.957 -0.2833  0.1971 -1.2726
 1405SOL    HW216195   4.782   0.091   9.039 -1.6254  0.8650 -1.2059
 1406SOL     OW16196   0.025   3.959   7.626  0.5118  0.1401  0.0030
 1406SOL    HW116197   0.035   3.985   7.718 -1.1207  1.0581 -0.0353
 1406SOL    HW216198  -0.054   3.905   7.625 -0.8830  2.0881 -1.1701
 1407SOL     OW16199   4.196   2.428  10.322 -0.2946 -0.3395 -0.0019
 1407SOL    HW116200   4.237   2.391  10.244  1.7793  1.4654  0.1231
 1407SOL    HW216201   4.160   2.512  10.293  1.6138  0.9627  1.1323
 1408SOL     OW16202   5.599  13.385   5.593  0.2983 -0.1520  0.0991
 1408SOL    HW116203   5.660  13.459   5.588 -1.0612  0.9812 -0.1574
 1408SOL    HW216204   5.515  13.424   5.616 -0.5884 -1.5607 -0.6003
 1409SOL     OW16205   9.384   1.139   9.793  0.0657 -0.0043  0.5961
 1409SOL    HW116206   9.335   1.191   9.857  0.4720 -0.0674  0.9610
 1409SOL    HW216207   9.385   1.193   9.714  0.6566  0.6348  1.0330
 1410SOL     OW16208   2.455   6.691   7.753 -0.3198  1.1399  0.2553
 1410SOL    HW116209   2.425   6.630   7.821  0.0720  0.4361 -0.1947
 1410SOL    HW216210   2.380   6.747   7.737 -1.5135 -0.6944 -0.9699
 1411SOL     OW16211  12.854   6.401  11.204  0.4041 -0.2366 -0.8171
 1411SOL    HW116212  12.871   6.438  11.291  1.4610 -1.4169 -0.4825
 1411SOL    HW216213  12.937   6.411  11.157 -0.6014  1.8682 -2.3142
 1412SOL     OW16214  10.616   4.455   1.302  0.1585  0.7075  0.4480
 1412SOL    HW116215  10.566   4.510   1.242  1.0067  0.4894 -0.4923
 1412SOL    HW216216  10.704   4.493   1.301  0.7211 -0.5506 -0.0933
 1413SOL     OW16217   9.100  13.291  10.858 -0.1072 -0.2443  0.0798
 1413SOL    HW116218   9.181  13.242  10.877 -0.7572 -1.1586  0.5938
 1413SOL    HW216219   9.059  13.303  10.944  0.0374  1.2465 -0.0366
 1414SOL     OW16220   0.392   6.603   2.857 -0.4142  0.2095  0.3635
 1414SOL    HW116221   0.358   6.591   2.946 -1.6942  0.9355 -0.0031
 1414SOL    HW216222   0.405   6.698   2.850 -0.8800  0.2180 -0.4210
 1415SOL     OW16223  11.526   8.717   1.588 -0.6982  0.1154 -0.0306
 1415SOL    HW116224  11.594   8.709   1.521 -0.2454  0.9897  0.3052
 1415SOL    HW216225  11.509   8.627   1.616 -0.8628 -0.2571 -1.2762
 1416SOL     OW16226  12.123   0.134  11.895 -0.3256 -0.2861 -1.1098
 1416SOL    HW116227  12.085   0.058  11.939  1.1316 -0.8691 -0.7949
 1416SOL    HW216228  12.173   0.096  11.822  1.7731  0.1853  0.0212
 1417SOL     OW16229  11.432   8.422   7.852 -0.6747 -0.2660  0.3466
 1417SOL    HW116230  11.441   8.416   7.947 -1.5464 -0.1422  0.4488
 1417SOL    HW216231  11.521   8.415   7.819 -0.4306 -1.0318  1.1290
 1418SOL     OW16232   3.590   8.200   0.561  0.2511  0.8510 -0.0084
 1418SOL    HW116233   3.611   8.218   0.652 -2.3451  0.0976  0.8102
 1418SOL    HW216234   3.543   8.278   0.531  1.4093  1.2513 -0.8525
 1419SOL     OW16235  13.136  12.821  12.508  0.5104  0.2560 -0.5664
 1419SOL    HW116236  13.052  12.852  12.542  1.6637  1.6849  1.1587
 1419SOL    HW216237  13.156  12.744  12.561  0.4960  0.1632 -0.6944
 1420SOL     OW16238   6.361  10.772   3.673 -1.0453  0.2266  0.3059
 1420SOL    HW116239   6.279  10.790   3.628 -1.6230 -1.9560  0.3817
 1420SOL    HW216240   6.335  10.730   3.755  0.1458 -2.0481 -0.4126
 1421SOL     OW16241  13.897   5.228   2.822 -0.4524 -0.2880  0.2194
 1421SOL    HW116242  13.828   5.196   2.880 -0.1073  1.8883  2.0006
 1421SOL    HW216243  13.977   5.186   2.853 -0.9309 -3.4859 -2.3921
 1422SOL     OW16244   6.612   4.414   6.483  0.4039 -0.2685  0.5495
 1422SOL    HW116245   6.587   4.359   6.557 -2.1775 -3.3004 -2.2221
 1422SOL    HW216246   6.672   4.360   6.432 -0.2302  0.4356 -1.0203
 1423SOL     OW16247   9.899   0.603   6.101  0.4136  0.0873 -0.0211
 1423SOL    HW116248   9.868   0.685   6.061 -1.4108 -0.3846  0.3311
 1423SOL    HW216249   9.921   0.547   6.027  0.0245  0.2999 -0.3050
 1424SOL     OW16250  10.989   8.278   0.604 -0.4064 -0.3289 -0.2980
 1424SOL    HW116251  10.993   8.249   0.695 -0.2432  1.4216  0.2867
 1424SOL    HW216252  10.912   8.235   0.568 -0.7260 -0.6888  0.7971
 1425SOL     OW16253   5.519   7.777   7.447 -0.3654 -0.4938 -0.5044
 1425SOL    HW116254   5.589   7.734   7.495  0.5229  1.4176  0.0083
 1425SOL    HW216255   5.468   7.705   7.408  1.8498 -1.9428 -0.8812
 1426SOL     OW16256   0.003  11.910   6.720  0.4131  0.0083  0.0542
 1426SOL    HW116257  -0.080  11.883   6.681 -0.0466  0.4716  0.7019
 1426SOL    HW216258   0.063  11.837   6.701  0.4937  0.6383 -2.3981
 1427SOL     OW16259   6.652   2.097   6.550  0.1618  0.4443 -0.6514
 1427SOL    HW116260   6.686   2.054   6.629 -2.9831 -1.6780 -0.2762
 1427SOL    HW216261   6.727   2.099   6.490  1.7591 -1.1033  1.1413
 1428SOL     OW16262   7.370   1.519   5.899 -0.1531  0.3187  0.3179
 1428SOL    HW116263   7.291   1.562   5.868  0.1595  1.2424  0.7900
 1428SOL    HW216264   7.397   1.569   5.976 -0.4904 -1.4948  1.6822
 1429SOL     OW16265  12.485  11.998   8.038  0.0378  0.4128  0.6683
 1429SOL    HW116266  12.564  11.970   8.084 -0.5500 -2.1488  0.2281
 1429SOL    HW216267  12.413  11.974   8.095 -0.7130 -2.8956 -1.4220
 1430SOL     OW16268  12.498  12.244   5.747  0.7420 -0.2697  0.5051
 1430SOL    HW116269  12.444  12.308   5.794  0.4248 -1.3312  1.6154
 1430SOL    HW216270  12.446  12.223   5.669 -1.3308 -2.5201  2.3690
 1431SOL     OW16271   5.426   5.189   5.058 -0.2903 -0.6752 -0.2875
 1431SOL    HW116272   5.378   5.169   4.978  0.2111  0.3043 -0.8538
 1431SOL    HW216273   5.517   5.170   5.037  0.1712  1.7292 -0.7584
 1432SOL     OW16274   2.683   0.419   4.113 -0.2715 -0.1787  0.0000
 1432SOL    HW116275   2.614   0.484   4.098  1.9788  2.3814  0.0822
 1432SOL    HW216276   2.689   0.413   4.209  0.5544  0.7311  0.0213
 1433SOL     OW16277   9.883   7.135   5.647  0.0715  0.1214 -0.1900
 1433SOL    HW116278   9.975   7.115   5.633 -0.4476 -3.2254  0.1836
 1433SOL    HW216279   9.851   7.064   5.703 -2.4984  1.7891  0.6628
 1434SOL     OW16280   1.562   7.144   7.495  0.1770 -0.4564  0.1538
 1434SOL    HW116281   1.469   7.125   7.483  0.0316  0.1472  0.2786
 1434SOL    HW216282   1.603   7.113   7.415 -0.0319 -1.3401  0.3723
 1435SOL     OW16283   9.195   6.163   0.803 -0.2345  0.1859 -0.2763
 1435SOL    HW116284   9.201   6.103   0.877 -0.3120  0.8619  0.2907
 1435SOL    HW216285   9.212   6.249   0.841  0.3009  0.4786 -1.1517
 1436SOL     OW16286  12.418  13.872   6.931 -0.1946  0.0652 -0.4863
 1436SOL    HW116287  12.500  13.823   6.938  0.9946  2.0774  0.7061
 1436SOL    HW216288  12.373  13.853   7.014  0.3645  1.0898  0.0696
 1437SOL     OW16289   8.238   9.855  12.368  0.3935  0.0223  0.1959
 1437SOL    HW116290   8.174   9.815  12.428  1.7134 -1.6271  0.5761
 1437SOL    HW216291   8.260   9.938  12.410 -0.2278 -0.1627  0.9260
 1438SOL     OW16292   5.318   8.590   5.870 -0.0730  0.5398  0.0459
 1438SOL    HW116293   5.386   8.571   5.806 -0.6637 -2.1016  0.0882
 1438SOL    HW216294   5.237   8.558   5.830 -0.7657  0.6948  1.2621
 1439SOL     OW16295  10.736   7.918   0.339 -0.3245  0.2012  0.3923
 1439SOL    HW116296  10.672   7.901   0.270  0.7813  0.5377 -0.7483
 1439SOL    HW216297  10.742   8.013   0.344 -1.6121  0.2452  2.1540
 1440SOL     OW16298   1.617   6.395   0.665  0.1661  0.0910  0.1827
 1440SOL    HW116299   1.580   6.447   0.737  2.6082  0.3136  1.3706
 1440SOL    HW216300   1.595   6.305   0.688 -2.3205  0.3648 -0.8273
 1441SOL     OW16301   6.509  13.661  10.440  0.0199 -0.2995 -0.3201
 1441SOL    HW116302   6.517  13.645  10.534  1.9202 -0.8086 -0.5237
 1441SOL    HW216303   6.562  13.592  10.399  1.3630  1.3908 -1.6232
 1442SOL     OW16304  13.427   9.691   6.021  0.2963  0.0247  0.1382
 1442SOL    HW116305  13.414   9.662   5.931 -0.4733  0.0250  0.2435
 1442SOL    HW216306  13.425   9.787   6.016  3.6447  0.1856 -0.3341
 1443SOL     OW16307  13.236   1.608   3.853 -0.1613  0.5688 -0.1111
 1443SOL    HW116308  13.234   1.684   3.911 -1.4024  1.1152 -0.8293
 1443SOL    HW216309  13.227   1.644   3.765  0.8882 -0.3049 -0.5924
 1444SOL     OW16310   1.669   9.897   1.596 -0.0021 -0.1096 -0.1929
 1444SOL    HW116311   1.728   9.822   1.603  0.3741  0.1556 -0.5331
 1444SOL    HW216312   1.694   9.954   1.669  0.7821  0.4347 -0.8713
 1445SOL     OW16313   9.523   1.700   9.870 -0.8306  0.1864 -0.5461
 1445SOL    HW116314   9.598   1.720   9.814 -0.7882  0.4178 -0.4070
 1445SOL    HW216315   9.478   1.784   9.881 -0.5835  0.2334  0.1376
 1446SOL     OW16316   2.725  11.361   9.098 -0.2937  0.1217 -0.3705
 1446SOL    HW116317   2.782  11.380   9.172  0.3422 -1.6705 -0.3530
 1446SOL    HW216318   2.642  11.403   9.121  0.5211  1.4477  0.3218
 1447SOL     OW16319   6.070   8.204   1.084 -0.3176  0.2433 -0.5433
 1447SOL    HW116320   6.053   8.167   0.997 -0.4931 -0.4657 -0.2228
 1447SOL    HW216321   6.019   8.148   1.143 -1.0725  1.3845 -0.0919
 1448SOL     OW16322  12.621   8.569   2.069  0.1331  0.3160  0.4789
 1448SOL    HW116323  12.683   8.547   2.138  2.3201 -2.0692 -1.9915
 1448SOL    HW216324  12.673   8.621   2.007 -1.8597  2.7232  0.6848
 1449SOL     OW16325  11.189   3.158  11.247 -0.5342 -0.2097 -0.1957
 1449SOL    HW116326  11.201   3.068  11.277  1.6854 -0.0623 -0.4203
 1449SOL    HW216327  11.267   3.175  11.193  0.2732  2.5589  1.6530
 1450SOL     OW16328   2.188  11.267   4.117 -0.3844 -0.2565  0.2116
 1450SOL    HW116329   2.175  11.186   4.166 -0.1241 -1.8692 -2.1963
 1450SOL    HW216330   2.130  11.259   4.042 -0.1284  1.6764 -0.2437
 1451SOL     OW16331   6.795   2.845   5.229 -0.2958 -0.2057  0.6943
 1451SOL    HW116332   6.788   2.802   5.314  1.3889 -0.6497  0.6487
 1451SOL    HW216333   6.878   2.892   5.233  0.4720 -1.2956 -1.1581
 1452SOL     OW16334  11.358   6.780   3.657  0.1066 -0.2199 -0.1764
 1452SOL    HW116335  11.451   6.794   3.639 -0.0576 -0.3038 -1.1577
 1452SOL    HW216336  11.322   6.747   3.574 -0.8939  0.2874  0.0324
 1453SOL     OW16337  12.002   4.331   8.291 -0.1222  0.0768 -0.5002
 1453SOL    HW116338  12.053   4.311   8.213 -2.0574  0.6072 -1.9721
 1453SOL    HW216339  11.985   4.246   8.332  1.9393 -0.1064  0.1063
 1454SOL     OW16340  13.480   8.795   0.750  0.1411  0.0888  0.1301
 1454SOL    HW116341  13.439   8.838   0.676 -1.3827  0.0561  0.9058
 1454SOL    HW216342  13.513   8.712   0.715 -2.1498 -0.7558 -0.2025
 1455SOL     OW16343   3.183   1.137  11.566  0.1731 -0.3116  0.3204
 1455SOL    HW116344   3.134   1.056  11.552 -0.1630 -0.1556  0.5917
 1455SOL    HW216345   3.216   1.131  11.655 -1.8138  0.8732  1.2036
 1456SOL     OW16346   2.665  13.519   5.403 -1.0837  0.1443  0.3441
 1456SOL    HW116347   2.702  13.514   5.315 -0.8896  1.0325  0.3719
 1456SOL    HW216348   2.733  13.559   5.456 -1.3939  0.0833  0.7973
 1457SOL     OW16349  13.059  11.575  10.776  0.2220 -0.6408  0.5265
 1457SOL    HW116350  12.989  11.520  10.740  1.5302 -0.8581 -1.9293
 1457SOL    HW216351  13.136  11.519  10.774  1.0269  0.4375  0.5503
 1458SOL     OW16352   2.943   6.001  10.859 -0.2041  0.4278 -0.2953
 1458SOL    HW116353   2.993   5.948  10.796 -0.4590 -1.4352  0.9994
 1458SOL    HW216354   2.955   5.958  10.943 -1.9626  1.3658  0.5125
 1459SOL     OW16355   6.734   1.254   5.313 -0.3441  0.4744 -0.5529
 1459SOL    HW116356   6.700   1.311   5.244  0.4542  1.1261 -0.4162
 1459SOL    HW216357   6.826   1.243   5.292 -0.2174  0.2286  0.1075
 1460SOL     OW16358  13.766   6.611   0.917 -0.3463 -0.8356 -0.3395
 1460SOL    HW116359  13.681   6.576   0.944 -0.6537 -1.1141 -1.5823
 1460SOL    HW216360  13.755   6.706   0.918 -0.6808 -0.8718 -0.4933
 1461SOL     OW16361   1.887   6.360   5.175  0.4173  0.6328 -0.2253
 1461SOL    HW116362   1.797   6.364   5.142 -0.6494  0.0182  2.3194
 1461SOL    HW216363   1.898   6.442   5.223  0.7335  0.1595  0.5305
 1462SOL     OW16364   1.587   8.187   3.248  0.8615 -0.1730  0.1064
 1462SOL    HW116365   1.569   8.193   3.341  1.6955  0.1486  0.2601
 1462SOL    HW216366   1.682   8.191   3.242  0.8037  0.1372 -0.7773
 1463SOL     OW16367  12.655   3.519   1.063  0.1833 -0.0924  0.0158
 1463SOL    HW116368  12.730   3.576   1.082 -1.7473  2.7739 -0.3614
 1463SOL    HW216369  12.693   3.445   1.016  2.9369  0.4861  1.1071
 1464SOL     OW16370   1.785   4.299   6.259 -0.7635 -0.2269  0.7836
 1464SOL    HW116371   1.868   4.268   6.222 -1.2844 -1.3939  0.5251
 1464SOL    HW216372   1.735   4.330   6.184  0.5900  3.5514  1.2477
 1465SOL     OW16373  11.543   8.310   8.306 -0.7084 -0.1818  0.4026
 1465SOL    HW116374  11.636   8.323   8.292 -0.8428  1.1492  0.5685
 1465SOL    HW216375  11.535   8.296   8.401 -0.6186 -1.0239  0.2955
 1466SOL     OW16376   7.366   2.274   0.962 -0.4699  0.1673  0.5677
 1466SOL    HW116377   7.338   2.204   0.903  1.1044 -0.8190  0.9435
 1466SOL    HW216378   7.460   2.261   0.972 -0.5600  0.7825  2.6671
 1467SOL     OW16379  13.575   3.236   9.815  0.3270 -0.1436  0.0636
 1467SOL    HW116380  13.642   3.255   9.881 -0.3965 -0.2545  0.8482
 1467SOL    HW216381  13.580   3.310   9.754 -1.2467  1.7932  2.0988
 1468SOL     OW16382   5.128   9.665  11.132 -0.8578 -0.3262  0.1626
 1468SOL    HW116383   5.204   9.607  11.124 -2.0354 -1.8576 -0.2536
 1468SOL    HW216384   5.155   9.745  11.087  0.9281 -0.3915  1.0280
 1469SOL     OW16385  11.296  13.406   8.307  0.2603 -0.1729 -0.6854
 1469SOL    HW116386  11.314  13.500   8.310  0.7627 -0.2439 -1.2420
 1469SOL    HW216387  11.251  13.394   8.223 -1.3763 -0.1776  0.1476
 1470SOL     OW16388  10.688   9.417  12.466 -0.6550  1.0081  0.2524
 1470SOL    HW116389  10.755   9.469  12.421  0.7079  1.0789  2.2156
 1470SOL    HW216390  10.605   9.461  12.446  0.1011  2.0341 -0.7320
 1471SOL     OW16391   0.817   6.464   7.238 -0.1029  0.0828  0.0546
 1471SOL    HW116392   0.906   6.433   7.222  0.9808  3.1656 -0.6556
 1471SOL    HW216393   0.794   6.428   7.323  2.2718  0.0246  0.7469
 1472SOL     OW16394   9.476   8.072  10.382  0.1525  0.1354 -0.0954
 1472SOL    HW116395   9.382   8.069  10.365  0.2396  0.1734 -0.5884
 1472SOL    HW216396   9.485   8.039  10.471 -0.2648 -0.5062 -0.2853
 1473SOL     OW16397   1.897   2.584  11.239  0.1630 -0.0746 -0.1733
 1473SOL    HW116398   1.832   2.628  11.183 -0.4925 -3.1238 -2.0466
 1473SOL    HW216399   1.858   2.586  11.326 -1.9820 -0.8219 -1.0338
 1474SOL     OW16400   0.624  14.026   3.979  0.0625 -0.3781 -0.3855
 1474SOL    HW116401   0.592  14.068   4.059 -2.2160 -0.3981 -1.2289
 1474SOL    HW216402   0.649  14.099   3.922  1.6997 -0.3638  0.2755
 1475SOL     OW16403   8.454   9.258   7.601  0.0037 -0.3163 -0.4861
 1475SOL    HW116404   8.370   9.212   7.592  0.1871 -1.2466  1.7087
 1475SOL    HW216405   8.457   9.283   7.693  1.6930  0.6078 -0.7549
 1476SOL     OW16406   4.206  10.245   4.382 -0.7517  0.4444 -0.4520
 1476SOL    HW116407   4.180  10.213   4.468 -1.8177 -0.1823 -0.9756
 1476SOL    HW216408   4.239  10.333   4.397 -0.5182  0.1754  0.6468
 1477SOL     OW16409  12.276   2.964   8.888 -0.2737  0.0631  0.2022
 1477SOL    HW116410  12.184   2.989   8.893 -0.1480  0.3623  2.8172
 1477SOL    HW216411  12.323   3.042   8.919  0.6019 -1.0006  1.6945
 1478SOL     OW16412  12.732   8.987   4.876 -0.5390 -0.1705  0.0951
 1478SOL    HW116413  12.692   9.022   4.955 -0.8068  1.1909 -0.6164
 1478SOL    HW216414  12.658   8.960   4.821 -0.4836  1.1659 -0.6875
 1479SOL     OW16415   3.281  10.117  11.232 -0.0522  0.8359 -0.3883
 1479SOL    HW116416   3.369  10.146  11.205 -0.4053  1.2394 -1.1321
 1479SOL    HW216417   3.269  10.033  11.189 -0.1671  0.9417 -0.5610
 1480SOL     OW16418  11.753   5.656  11.168 -0.7248 -0.6362  0.1475
 1480SOL    HW116419  11.816   5.695  11.107  2.0357 -1.4391  2.2817
 1480SOL    HW216420  11.670   5.658  11.120  0.8677  0.4003 -2.8938
 1481SOL     OW16421   4.791   0.618   4.399 -0.0602  0.1113 -0.2906
 1481SOL    HW116422   4.781   0.523   4.405 -0.8481  0.2462  0.8804
 1481SOL    HW216423   4.732   0.652   4.466  0.7151  1.4035 -0.2407
 1482SOL     OW16424   8.131  11.929   9.813 -0.3372 -0.8423  0.4447
 1482SOL    HW116425   8.118  11.914   9.719  0.0400  0.5204  0.1581
 1482SOL    HW216426   8.225  11.924   9.826 -0.2764  0.2113  0.5089
 1483SOL     OW16427   6.172  10.784  12.357  0.0029  0.0629 -0.0662
 1483SOL    HW116428   6.241  10.843  12.327 -0.0625  0.6112  0.8357
 1483SOL    HW216429   6.210  10.737  12.431 -0.2841 -0.3000 -0.1429
 1484SOL     OW16430  11.469   8.883   1.973  0.0077  0.4296  0.1146
 1484SOL    HW116431  11.526   8.927   1.909  1.3542  0.7989  1.5053
 1484SOL    HW216432  11.528   8.824   2.020 -1.1388 -0.4671  0.4625
 1485SOL     OW16433   8.303   7.386   1.213 -0.3789 -0.7573 -0.0084
 1485SOL    HW116434   8.397   7.407   1.212 -0.3167 -0.7666 -2.6733
 1485SOL    HW216435   8.300   7.293   1.235  0.2404 -0.7308  0.2107
 1486SOL     OW16436   9.962   8.864  10.663  0.2654  0.0786  0.5071
 1486SOL    HW116437   9.877   8.848  10.622  0.1241 -0.2345  0.9181
 1486SOL    HW216438  10.012   8.912  10.597 -0.8321  1.8430  0.9140
 1487SOL     OW16439   8.665   3.824  11.836  0.1514  0.3379  0.1678
 1487SOL    HW116440   8.572   3.842  11.829  0.3367  1.5804  0.5985
 1487SOL    HW216441   8.686   3.769  11.761 -1.1346 -0.9049  0.6783
 1488SOL     OW16442   6.992   3.440   0.318  0.0303  0.5442  0.3433
 1488SOL    HW116443   6.977   3.412   0.228 -0.8499 -1.2856  0.9853
 1488SOL    HW216444   7.063   3.503   0.313  0.3687  0.0679 -1.5668
 1489SOL     OW16445  11.801  13.521   9.737 -1.1792  0.2295 -1.3570
 1489SOL    HW116446  11.864  13.574   9.688 -0.5326  0.6463 -0.1352
 1489SOL    HW216447  11.852  13.447   9.769 -0.7073  1.6186  1.3941
 1490SOL     OW16448   5.710   7.289  11.948 -0.1490 -0.3536  0.8268
 1490SOL    HW116449   5.688   7.277  11.856 -2.2727 -0.9705  1.3576
 1490SOL    HW216450   5.800   7.257  11.956  0.1390 -0.0944 -1.0587
 1491SOL     OW16451   0.900  10.546   1.869 -0.2649  0.2476  0.5487
 1491SOL    HW116452   0.884  10.615   1.806  1.7170  0.5897  0.3526
 1491SOL    HW216453   0.995  10.542   1.878 -0.3818 -1.3605  1.7772
 1492SOL     OW16454  12.366  11.937  11.328 -0.1322  0.2412  0.0860
 1492SOL    HW116455  12.299  11.978  11.383  0.2640  0.6821  0.2450
 1492SOL    HW216456  12.416  12.010  11.293 -1.6320  0.1172 -2.5462
 1493SOL     OW16457   8.216  12.641  13.577  0.4021  0.6316  0.7472
 1493SOL    HW116458   8.221  12.582  13.503 -3.4113  1.1390 -0.1277
 1493SOL    HW216459   8.306  12.673  13.589  1.3766 -0.2743 -2.9464
 1494SOL     OW16460   0.512   4.376   2.763 -0.1481 -0.4494  0.1947
 1494SOL    HW116461   0.475   4.288   2.758 -1.5074  0.1387 -1.2446
 1494SOL    HW216462   0.445   4.428   2.808  0.3888 -0.0289  0.5209
 1495SOL     OW16463  10.922   3.298   7.265  0.5022  0.0224 -0.1844
 1495SOL    HW116464  10.917   3.370   7.327 -0.2498 -1.0443  1.0437
 1495SOL    HW216465  10.967   3.228   7.312  0.9077 -0.4572 -1.2302
 1496SOL     OW16466   6.690   2.574   5.092 -0.2422 -0.7118 -0.7689
 1496SOL    HW116467   6.707   2.612   5.179  0.4959 -0.1443 -1.1493
 1496SOL    HW216468   6.608   2.526   5.103 -1.0335  0.7046 -0.1696
 1497SOL     OW16469   6.838  10.804   0.026  0.1442 -0.2131  0.0834
 1497SOL    HW116470   6.873  10.888  -0.004 -2.2057  1.9692  2.8865
 1497SOL    HW216471   6.903  10.773   0.088  0.5286  0.0533 -0.1763
 1498SOL     OW16472  13.463   6.892   7.604 -0.1484 -0.6915  0.1951
 1498SOL    HW116473  13.389   6.947   7.579  0.2715  0.3146  1.0411
 1498SOL    HW216474  13.451   6.810   7.556 -0.1444  0.5764 -2.0879
 1499SOL     OW16475   3.907  11.269  11.500 -0.0414  0.4730  0.1467
 1499SOL    HW116476   3.970  11.335  11.529  0.7678 -0.1487 -0.1501
 1499SOL    HW216477   3.873  11.231  11.581  1.2303 -0.3460  0.3219
 1500SOL     OW16478   3.944   7.300   9.780  0.5162  0.3823 -0.0999
 1500SOL    HW116479   3.900   7.216   9.794  2.5144 -0.5611  0.9659
 1500SOL    HW216480   3.961   7.334   9.868 -0.1042  1.8542 -0.5123
 1501SOL     OW16481   7.335   3.655  13.879  0.6646  0.2172  0.1045
 1501SOL    HW116482   7.393   3.620  13.946 -1.2605 -0.2500  1.6072
 1501SOL    HW216483   7.316   3.581  13.822 -1.1249 -0.5370  1.6137
 1502SOL     OW16484  12.241   1.549  13.899 -0.1685 -0.4789 -0.3396
 1502SOL    HW116485  12.201   1.633  13.924 -0.1835 -0.9273  1.2497
 1502SOL    HW216486  12.171   1.500  13.857 -1.1488 -0.9589  1.7273
 1503SOL     OW16487  11.561  12.572   0.877  0.1921 -0.5996 -0.1307
 1503SOL    HW116488  11.484  12.629   0.879  0.8085  0.2250  1.2687
 1503SOL    HW216489  11.630  12.621   0.921  1.0854 -1.9464  0.0513
 1504SOL     OW16490   0.197   9.595  10.531  0.4465  0.5474  0.3312
 1504SOL    HW116491   0.287   9.586  10.500 -0.0520 -0.4012 -0.9178
 1504SOL    HW216492   0.144   9.604  10.451 -0.9098 -2.2685  0.7862
 1505SOL     OW16493   0.910  12.571   3.571 -0.2519 -0.4424  0.0602
 1505SOL    HW116494   0.999  12.604   3.586 -0.8383  1.3142 -0.0710
 1505SOL    HW216495   0.895  12.510   3.644  0.4541  0.5336  1.0705
 1506SOL     OW16496   1.747   6.209   6.662 -0.3483  0.2939  0.5267
 1506SOL    HW116497   1.654   6.211   6.638 -0.2187  0.1107 -0.0007
 1506SOL    HW216498   1.747   6.215   6.758 -0.9870 -1.6334  0.6731
 1507SOL     OW16499   6.902   1.657   5.583 -0.1082  0.1032  0.0316
 1507SOL    HW116500   6.943   1.660   5.496  1.5905 -0.2470  0.7726
 1507SOL    HW216501   6.823   1.605   5.571  0.3903 -0.3984 -1.1984
 1508SOL     OW16502  12.188  12.697   4.267 -0.5611  0.2649  0.0530
 1508SOL    HW116503  12.147  12.620   4.227 -1.0447  0.7365 -0.3735
 1508SOL    HW216504  12.119  12.762   4.271  0.5783  1.8263 -2.6523
 1509SOL     OW16505  12.599   3.608  12.907  0.6032  0.2725 -0.1472
 1509SOL    HW116506  12.574   3.678  12.967  0.6694  0.5743 -0.4707
 1509SOL    HW216507  12.671   3.645  12.855  0.5325  0.0202 -0.4269
 1510SOL     OW16508   7.914   5.054   0.664 -0.0088  0.0317  0.5252
 1510SOL    HW116509   7.828   5.042   0.704  0.7944 -1.2250  1.9898
 1510SOL    HW216510   7.927   5.149   0.660 -2.5182  0.4107 -2.2029
 1511SOL     OW16511   9.529   1.664   4.864  0.6408 -0.5709 -0.1989
 1511SOL    HW116512   9.603   1.607   4.886  1.7547  0.4739 -1.0996
 1511SOL    HW216513   9.569   1.748   4.842 -1.0124  0.9792  2.2146
 1512SOL     OW16514   9.185  10.709  13.562 -0.2106  0.1747  0.5287
 1512SOL    HW116515   9.277  10.681  13.565  0.3487  1.6312 -1.2549
 1512SOL    HW216516   9.155  10.682  13.475 -0.0976  3.5146 -0.6783
 1513SOL     OW16517   9.432   3.625   5.782  0.5724  0.4668 -0.3877
 1513SOL    HW116518   9.466   3.688   5.719  0.4958  0.2466 -0.6553
 1513SOL    HW216519   9.397   3.678   5.853 -1.0256  0.8064 -1.3758
 1514SOL     OW16520  12.553   5.847  12.785 -0.6282 -0.3090  0.2015
 1514SOL    HW116521  12.531   5.927  12.833  0.3413  0.1313 -0.0681
 1514SOL    HW216522  12.645   5.830  12.806 -0.9228 -1.5639  0.5386
 1515SOL     OW16523   2.365  12.988   6.515 -0.4638 -0.0905 -0.1355
 1515SOL    HW116524   2.344  13.020   6.427 -0.5455  0.8914  0.2258
 1515SOL    HW216525   2.283  12.951   6.548 -0.4436 -0.4234 -0.4555
 1516SOL     OW16526   6.173  10.658   0.017 -0.2682 -0.3183  0.3837
 1516SOL    HW116527   6.190  10.611   0.099 -1.8403 -0.6724  0.5316
 1516SOL    HW216528   6.156  10.748   0.045 -0.8367 -0.4459  0.4506
 1517SOL     OW16529   5.352   0.451  12.296 -0.0116  0.0808 -0.2088
 1517SOL    HW116530   5.342   0.360  12.325  1.2897  0.7207  2.6594
 1517SOL    HW216531   5.307   0.502  12.363  3.0109  1.6986  0.8022
 1518SOL     OW16532   8.998  12.380   1.196 -0.0700 -0.5576  0.1416
 1518SOL    HW116533   9.056  12.380   1.119 -0.0873 -0.7232  0.1265
 1518SOL    HW216534   8.930  12.443   1.174  0.1422 -0.3083  0.1890
 1519SOL     OW16535  11.595   9.777   6.334  0.3209  0.4192 -0.3652
 1519SOL    HW116536  11.688   9.796   6.345  0.4744 -0.1268 -0.6792
 1519SOL    HW216537  11.575   9.715   6.404  1.0143 -2.1095 -2.2551
 1520SOL     OW16538   1.375   9.624   8.949  0.9239  0.2351  0.2076
 1520SOL    HW116539   1.464   9.647   8.924  0.2253  1.3175 -1.4802
 1520SOL    HW216540   1.348   9.557   8.887  0.1374  0.8412 -0.1195
 1521SOL     OW16541   6.727  13.600  13.826 -0.1496  0.2287 -1.0871
 1521SOL    HW116542   6.667  13.553  13.769  0.7375 -1.9476 -0.3462
 1521SOL    HW216543   6.797  13.629  13.769 -0.3288 -0.0389 -1.4439
 1522SOL     OW16544   5.653  14.044   7.713  0.8360  0.2859 -0.1966
 1522SOL    HW116545   5.673  14.111   7.647  0.1585  0.8421  0.1480
 1522SOL    HW216546   5.559  14.054   7.729  0.8736 -0.2660  0.3993
 1523SOL     OW16547   1.160   6.075   6.910 -0.5746 -0.0987 -0.4878
 1523SOL    HW116548   1.088   6.016   6.888 -0.4111 -0.9461  1.0552
 1523SOL    HW216549   1.239   6.020   6.906 -0.2879  0.2658 -0.0279
 1524SOL     OW16550   8.510  10.611   2.625 -0.1005  0.3448 -0.5482
 1524SOL    HW116551   8.571  10.630   2.696 -0.4879 -0.0507 -0.0999
 1524SOL    HW216552   8.471  10.695   2.603  0.6740  0.6231 -0.9177
 1525SOL     OW16553  11.790   2.999  13.179 -0.1232 -0.2486  0.2891
 1525SOL    HW116554  11.816   2.980  13.269  1.0820  0.1140  0.0495
 1525SOL    HW216555  11.861   2.962  13.126 -0.8257 -0.4757 -0.5087
 1526SOL     OW16556   8.128   8.291   4.207  0.5644  0.2554 -0.2970
 1526SOL    HW116557   8.161   8.215   4.255 -0.7770  0.1896  0.5472
 1526SOL    HW216558   8.150   8.366   4.262 -1.5020  0.1318  0.7789
 1527SOL     OW16559   3.166  11.161   3.522 -0.1184 -0.1076 -0.1386
 1527SOL    HW116560   3.188  11.070   3.505  1.6542  0.5796 -1.8567
 1527SOL    HW216561   3.182  11.206   3.439 -1.3574  1.7220  0.5350
 1528SOL     OW16562   4.341  13.961   4.526 -0.0989  0.8791  0.0189
 1528SOL    HW116563   4.385  14.046   4.536  0.6816  0.5039 -0.2283
 1528SOL    HW216564   4.366  13.912   4.603  2.0605 -0.2806 -1.3360
 1529SOL     OW16565  11.803   7.553   4.204 -0.8321 -0.4950  0.4658
 1529SOL    HW116566  11.884   7.541   4.156  0.4157  1.0746  2.0410
 1529SOL    HW216567  11.778   7.464   4.231 -0.4345 -1.1487 -1.1971
 1530SOL     OW16568   2.303   2.619  11.341 -0.0004 -0.1868  0.8713
 1530SOL    HW116569   2.370   2.614  11.273 -0.9206 -0.1438 -0.0707
 1530SOL    HW216570   2.253   2.538  11.332 -0.2808 -0.0721  1.3352
 1531SOL     OW16571  10.864  12.495  11.560  0.0123 -0.1960 -0.4792
 1531SOL    HW116572  10.855  12.400  11.569 -0.2024 -0.2738 -1.3490
 1531SOL    HW216573  10.950  12.516  11.596 -0.2550 -0.6158  0.4157
 1532SOL     OW16574   2.253   4.440   8.767 -0.0898  0.5472 -0.3657
 1532SOL    HW116575   2.205   4.521   8.784  1.0974  1.1281  0.3262
 1532SOL    HW216576   2.271   4.403   8.853 -1.1459 -0.8026 -0.6890
 1533SOL     OW16577   7.041   0.988   8.207  0.4563  0.3030  0.3863
 1533SOL    HW116578   6.982   0.982   8.282  0.8408 -1.4688  0.5798
 1533SOL    HW216579   7.114   1.042   8.238  0.5348 -0.2835  1.2581
 1534SOL     OW16580   3.661   4.440   2.449 -0.2331 -0.0450  0.5535
 1534SOL    HW116581   3.698   4.521   2.484  0.2573 -0.3651  0.7835
 1534SOL    HW216582   3.578   4.430   2.494 -0.3871  0.4303  0.3851
 1535SOL     OW16583   4.483  10.391  10.568  0.0510  0.3982 -0.2865
 1535SOL    HW116584   4.397  10.429  10.555  0.2819  0.4391 -1.8007
 1535SOL    HW216585   4.515  10.431  10.649 -0.8033  1.3899 -0.4199
 1536SOL     OW16586  11.361   3.967  13.783 -0.0180  0.2319  0.0966
 1536SOL    HW116587  11.321   4.025  13.848 -0.2003 -0.7180  0.8663
 1536SOL    HW216588  11.328   3.879  13.806 -0.8199 -0.0320 -1.8450
 1537SOL     OW16589   9.522   4.616  13.203  0.4611 -0.3642 -0.1348
 1537SOL    HW116590   9.480   4.543  13.157 -0.0591  0.5049 -1.0732
 1537SOL    HW216591   9.453   4.654  13.256  0.6193 -0.2805  0.0120
 1538SOL     OW16592  13.795   4.628   6.735  0.3077 -0.6241 -0.1190
 1538SOL    HW116593  13.869   4.598   6.788  3.0324  1.7284 -2.3118
 1538SOL    HW216594  13.752   4.694   6.789  0.9088 -0.7117  0.4791
 1539SOL     OW16595   3.811   9.694   2.567 -0.2398  0.1039  0.3431
 1539SOL    HW116596   3.807   9.718   2.475  1.0796 -0.7268  0.0446
 1539SOL    HW216597   3.787   9.601   2.569 -2.5684  0.6378  1.1489
 1540SOL     OW16598   4.605   1.838   9.718 -0.2932 -0.0151 -0.3945
 1540SOL    HW116599   4.518   1.869   9.693 -0.5365  0.8403  1.3407
 1540SOL    HW216600   4.625   1.886   9.798  0.9727 -1.5873  0.2855
 1541SOL     OW16601   3.853  11.064   9.444  0.3516 -0.5927 -0.5776
 1541SOL    HW116602   3.771  11.048   9.491 -1.2277  1.8243 -2.2510
 1541SOL    HW216603   3.835  11.034   9.355  1.6931 -1.0329 -0.7086
 1542SOL     OW16604   4.195   6.866   6.347  0.5254 -0.3912 -0.4476
 1542SOL    HW116605   4.182   6.777   6.382 -1.1176 -0.3326 -0.8242
 1542SOL    HW216606   4.266   6.856   6.283  0.4047 -1.4237 -0.4414
 1543SOL     OW16607   0.760   8.476  11.616 -0.6079 -0.4522  0.5778
 1543SOL    HW116608   0.809   8.529  11.680 -1.2317 -0.7301  1.2943
 1543SOL    HW216609   0.733   8.399  11.665 -0.5536 -0.9683 -0.2032
 1544SOL     OW16610   7.267   0.983  13.912 -0.2228  0.1493  0.4002
 1544SOL    HW116611   7.194   1.029  13.953 -0.0137 -0.3474  1.3576
 1544SOL    HW216612   7.309   0.936  13.984  1.0007  0.3731 -0.1449
 1545SOL     OW16613   7.462   7.095   5.222 -0.1316  0.3357  0.2142
 1545SOL    HW116614   7.465   7.084   5.127  0.6869  2.2845 -0.0441
 1545SOL    HW216615   7.421   7.015   5.255 -0.2039 -0.4835 -1.7507
 1546SOL     OW16616   9.301   6.027   5.715 -0.3379  0.0563 -0.3329
 1546SOL    HW116617   9.287   5.933   5.723 -1.1396  0.1198 -0.9297
 1546SOL    HW216618   9.316   6.041   5.622 -2.9527  0.8639 -0.6822
 1547SOL     OW16619  10.213   8.396  11.826 -0.1478  0.1665 -0.1140
 1547SOL    HW116620  10.170   8.403  11.911  1.1817 -1.2183  0.7351
 1547SOL    HW216621  10.209   8.484  11.789  0.3837  1.1184  1.9732
 1548SOL     OW16622   1.968  13.186   3.359  0.3163 -0.4104 -0.1836
 1548SOL    HW116623   1.885  13.183   3.311  0.3403  0.3996 -0.2828
 1548SOL    HW216624   1.942  13.179   3.451  0.0989  0.3595 -0.1849
 1549SOL     OW16625   1.014  13.945  14.023  0.2469 -0.4093 -0.1963
 1549SOL    HW116626   1.095  13.993  14.040 -0.3479 -0.0954  2.1660
 1549SOL    HW216627   0.991  13.967  13.933  2.3766  0.0810 -0.6766
 1550SOL     OW16628  13.137   9.613  12.095  0.1208  1.1856 -0.1976
 1550SOL    HW116629  13.096   9.616  12.182 -1.5108  0.9557 -0.9259
 1550SOL    HW216630  13.230   9.629  12.112 -0.2248  1.5527  1.5418
 1551SOL     OW16631   3.377   8.864   4.833  0.4699 -0.5063 -0.1879
 1551SOL    HW116632   3.325   8.926   4.885  2.0587  1.5637 -0.8984
 1551SOL    HW216633   3.439   8.828   4.896 -0.6792 -1.6907  0.3028
 1552SOL     OW16634   4.999   4.753  10.530  0.4844 -0.2552 -0.2746
 1552SOL    HW116635   4.980   4.664  10.558 -0.7623  0.2905  0.7383
 1552SOL    HW216636   5.078   4.777  10.579  0.4874 -0.6112 -0.1026
 1553SOL     OW16637  13.185   2.706  10.600  0.5482 -0.3000  0.1066
 1553SOL    HW116638  13.231   2.707  10.684  0.4895  1.1231  0.1416
 1553SOL    HW216639  13.253   2.723  10.535  0.2667  0.7104  0.0639
 1554SOL     OW16640   5.406   7.976  11.536  0.1725 -0.2987  0.1714
 1554SOL    HW116641   5.405   8.071  11.527 -2.8542 -0.0790  1.5898
 1554SOL    HW216642   5.468   7.960  11.607 -1.3075  0.9758  1.8757
 1555SOL     OW16643   1.270  13.517   7.460 -0.4263  0.0062  0.2836
 1555SOL    HW116644   1.253  13.525   7.554  1.2619  0.1295  0.6220
 1555SOL    HW216645   1.268  13.607   7.428 -2.3960 -0.1359 -0.1138
 1556SOL     OW16646   8.435   0.135   1.079 -0.1127 -0.3961 -0.4384
 1556SOL    HW116647   8.523   0.171   1.065 -0.6138  0.3087 -2.0398
 1556SOL    HW216648   8.408   0.104   0.993 -1.7382  0.1255 -0.1534
 1557SOL     OW16649  11.287   2.075   3.023 -0.2826 -0.0572  0.5464
 1557SOL    HW116650  11.212   2.135   3.026  0.3884  0.8612 -0.0758
 1557SOL    HW216651  11.263   2.009   2.958 -0.8889 -0.2624  0.9739
 1558SOL     OW16652   0.746  13.472   8.184 -0.1794  0.2288 -0.7950
 1558SOL    HW116653   0.729  13.548   8.128 -1.2317  0.4770 -0.1586
 1558SOL    HW216654   0.703  13.399   8.140 -0.1432  0.2271 -0.8283
 1559SOL     OW16655   1.891   7.274   4.802 -0.1087  0.3003  0.2452
 1559SOL    HW116656   1.911   7.248   4.892 -2.2886 -1.1933  0.3981
 1559SOL    HW216657   1.966   7.243   4.751  1.0669  0.9925  1.4922
 1560SOL     OW16658   2.358  12.301   0.171  0.4413 -0.1036  0.0102
 1560SOL    HW116659   2.299  12.249   0.115  0.8914  1.2780 -1.8406
 1560SOL    HW216660   2.302  12.371   0.205 -0.1488 -1.6392  2.4511
 1561SOL     OW16661   3.397   6.628  13.483  0.3168  0.1980 -0.6146
 1561SOL    HW116662   3.323   6.588  13.437 -0.3736  0.6944  0.0418
 1561SOL    HW216663   3.435   6.689  13.420 -0.0830  0.2304 -0.8228
 1562SOL     OW16664   5.585   7.001  10.666 -0.2154  0.0244 -0.1295
 1562SOL    HW116665   5.568   6.909  10.688  1.4876 -0.3175 -0.1043
 1562SOL    HW216666   5.522   7.020  10.596 -0.6782 -1.1250 -0.0544
 1563SOL     OW16667   3.130   6.535   4.821  0.8194  0.0852  0.2946
 1563SOL    HW116668   3.222   6.559   4.830  0.9357 -0.2960  0.1209
 1563SOL    HW216669   3.115   6.533   4.727  1.3288 -2.4526  0.2107
 1564SOL     OW16670  11.777   8.840  12.582  0.4313  0.2433 -0.1236
 1564SOL    HW116671  11.859   8.800  12.614 -0.6481 -2.0927 -0.0605
 1564SOL    HW216672  11.754   8.903  12.650  0.7502 -1.0997  1.3115
 1565SOL     OW16673   7.090   7.143   0.401  0.2837 -0.3595 -0.2664
 1565SOL    HW116674   7.099   7.158   0.495 -0.4673  0.9772 -0.3738
 1565SOL    HW216675   7.009   7.094   0.392 -1.4550  2.3477 -0.3752
 1566SOL     OW16676   1.782  10.704   1.725 -0.0700  0.0769  0.5035
 1566SOL    HW116677   1.824  10.767   1.784  2.2838 -1.6521  0.8161
 1566SOL    HW216678   1.718  10.659   1.779 -2.7633  2.9320 -0.0381
 1567SOL     OW16679   1.645  11.343  10.532 -0.3607 -0.5919 -0.5062
 1567SOL    HW116680   1.635  11.260  10.486  1.0780 -1.1618  0.1529
 1567SOL    HW216681   1.740  11.358  10.534 -0.3594 -0.4371  1.9391
 1568SOL     OW16682   4.447   9.785   4.024  0.3611  0.0812 -0.1254
 1568SOL    HW116683   4.450   9.872   4.064  1.5052 -0.2215  0.4760
 1568SOL    HW216684   4.360   9.752   4.045  0.6549  0.2514  1.4569
 1569SOL     OW16685   9.038   4.853   5.563 -0.6576  0.2130  0.0733
 1569SOL    HW116686   9.016   4.792   5.634  0.2805  1.3652  1.4252
 1569SOL    HW216687   9.030   4.939   5.603  2.2067  0.8384 -0.4599
 1570SOL     OW16688  10.450   1.083   3.231  0.3593  0.0297  0.1393
 1570SOL    HW116689  10.405   1.142   3.171  0.6168 -1.0009 -1.1233
 1570SOL    HW216690  10.515   1.138   3.275 -0.9502  1.1600  0.7382
 1571SOL     OW16691   0.220  13.631  10.574 -0.7388  0.1439 -0.3005
 1571SOL    HW116692   0.268  13.554  10.545 -0.4014  0.4926 -0.6869
 1571SOL    HW216693   0.275  13.705  10.547 -1.3624  0.5394 -0.5134
 1572SOL     OW16694   1.274   1.081   3.339 -0.1397 -0.2233  0.2440
 1572SOL    HW116695   1.251   1.002   3.388  1.3003  0.6495  2.4761
 1572SOL    HW216696   1.197   1.137   3.347  0.0130 -0.1527  1.4492
 1573SOL     OW16697  10.352   8.604   1.053  0.2702  0.0925 -0.5071
 1573SOL    HW116698  10.346   8.563   0.967 -0.5500  0.8501 -0.8233
 1573SOL    HW216699  10.271   8.579   1.097  2.1276 -3.2286  1.4269
 1574SOL     OW16700   4.770   3.760   7.977 -0.0208  0.4015  0.5491
 1574SOL    HW116701   4.783   3.845   8.019 -1.4899  0.2461  1.4059
 1574SOL    HW216702   4.828   3.762   7.901 -0.5611  2.4721  0.1084
 1575SOL     OW16703  10.426   2.667  10.856 -0.1757  0.0111  0.3777
 1575SOL    HW116704  10.457   2.667  10.765  1.9492  1.6766  1.0367
 1575SOL    HW216705  10.491   2.614  10.903 -0.8238 -0.1773  1.0809
 1576SOL     OW16706  10.463   4.442  11.758  0.4871 -0.1300  0.2667
 1576SOL    HW116707  10.393   4.498  11.791  0.3320  0.3443 -0.8297
 1576SOL    HW216708  10.526   4.437  11.830 -0.3114  0.0495  0.9898
 1577SOL     OW16709   7.353   3.179  10.232  0.3593  0.3356 -0.2321
 1577SOL    HW116710   7.448   3.184  10.226  0.4615 -1.2320 -0.2218
 1577SOL    HW216711   7.333   3.206  10.321  0.9576 -1.0277  0.3345
 1578SOL     OW16712  10.846   5.480   7.629  0.3969  0.7559 -0.0080
 1578SOL    HW116713  10.864   5.433   7.710  0.1841  0.2031 -0.2758
 1578SOL    HW216714  10.801   5.416   7.573 -0.1663  1.3609 -0.2661
 1579SOL     OW16715   3.252   5.013   1.959  0.5354 -0.0091  0.2354
 1579SOL    HW116716   3.168   5.053   1.938  0.5244 -0.4599 -0.6296
 1579SOL    HW216717   3.313   5.049   1.895  1.0846  0.5616  1.0602
 1580SOL     OW16718  12.332   2.180  10.953 -0.0188  0.0428 -0.2746
 1580SOL    HW116719  12.400   2.226  11.001 -0.8822  0.1494  0.9068
 1580SOL    HW216720  12.308   2.239  10.881 -1.0590  1.4608  1.1740
 1581SOL     OW16721  11.841   2.526   1.328 -0.0500 -0.2398  0.0248
 1581SOL    HW116722  11.814   2.535   1.237  0.1701 -0.2429 -0.0423
 1581SOL    HW216723  11.936   2.539   1.326 -0.1291  0.3990  0.3466
 1582SOL     OW16724   9.252   8.516   7.435 -0.7848 -0.1238 -0.0782
 1582SOL    HW116725   9.176   8.461   7.417  0.0509 -1.2341 -0.3173
 1582SOL    HW216726   9.324   8.454   7.451  0.3063  0.8788 -0.8834
 1583SOL     OW16727   4.251   8.591  13.531 -0.1686 -0.4880 -0.1580
 1583SOL    HW116728   4.175   8.534  13.540 -1.0572  0.6984  0.0366
 1583SOL    HW216729   4.293   8.590  13.617 -0.8271  0.0225  0.1786
 1584SOL     OW16730   5.884   4.535  13.535 -0.3904 -0.2024  0.5031
 1584SOL    HW116731   5.926   4.565  13.455  2.2339 -1.8209  1.1572
 1584SOL    HW216732   5.838   4.456  13.510 -1.3876  0.4526  0.2058
 1585SOL     OW16733   6.863   6.973   5.390 -0.3640  0.0780 -0.2115
 1585SOL    HW116734   6.896   6.890   5.426 -1.5101 -0.9234 -1.3667
 1585SOL    HW216735   6.906   6.981   5.305 -0.2031  0.7299 -0.0745
 1586SOL     OW16736   9.797   1.014   3.288  0.2059 -0.1137 -0.1891
 1586SOL    HW116737   9.819   1.050   3.373  0.1575 -0.1542 -0.1592
 1586SOL    HW216738   9.807   0.920   3.298  1.7177 -0.0312 -0.6642
 1587SOL     OW16739   1.457   7.532   5.658  0.2395 -0.0808  0.0007
 1587SOL    HW116740   1.387   7.507   5.719 -0.0499 -0.1203 -0.3458
 1587SOL    HW216741   1.414   7.536   5.573  0.7440 -0.4801 -0.2758
 1588SOL     OW16742  10.724   4.321  12.321 -0.8493 -0.2471  0.8444
 1588SOL    HW116743  10.730   4.413  12.295  0.9029 -0.5050  0.1947
 1588SOL    HW216744  10.788   4.311  12.391 -0.2923 -1.1859  0.2195
 1589SOL     OW16745   2.375   6.001   9.714 -0.5175 -0.3675  0.0606
 1589SOL    HW116746   2.463   5.968   9.702 -0.5968 -1.0226  1.1894
 1589SOL    HW216747   2.355   6.046   9.631  0.8687 -0.1676 -0.1901
 1590SOL     OW16748  11.054  12.742  13.880 -0.0660 -0.8826 -0.1406
 1590SOL    HW116749  10.964  12.722  13.857 -0.0630 -1.0399 -0.0141
 1590SOL    HW216750  11.095  12.768  13.797 -0.8960  1.7319  0.1728
 1591SOL     OW16751  11.773   3.383   2.038 -0.5378 -0.6113  0.1938
 1591SOL    HW116752  11.825   3.404   1.960 -1.5565 -0.3035 -0.4349
 1591SOL    HW216753  11.687   3.359   2.003 -0.6397 -1.7237  1.1650
 1592SOL     OW16754   5.735  12.805   7.389 -0.2767  1.0116 -0.2729
 1592SOL    HW116755   5.775  12.799   7.476  0.4668  0.7718 -0.6276
 1592SOL    HW216756   5.712  12.897   7.379 -0.0383  1.1045  0.0327
 1593SOL     OW16757   5.044  10.854  10.668  0.0121 -0.2693 -0.2138
 1593SOL    HW116758   4.986  10.925  10.695 -0.6470 -0.0005 -2.1787
 1593SOL    HW216759   4.997  10.810  10.597  2.9421  1.3528 -3.5064
 1594SOL     OW16760  14.035   0.921   2.098  0.0972  0.2824 -0.1649
 1594SOL    HW116761  13.999   1.000   2.139  1.1909  0.7126 -0.0147
 1594SOL    HW216762  14.016   0.931   2.005 -1.7131 -0.3329  0.0944
 1595SOL     OW16763  11.566   9.617   6.541 -0.0560  0.1444  0.2644
 1595SOL    HW116764  11.627   9.546   6.560 -0.4848 -0.4825 -0.6248
 1595SOL    HW216765  11.538   9.648   6.627  1.3583  0.3238  0.6832
 1596SOL     OW16766  11.707   8.296   4.030 -0.0746 -0.1736  0.0607
 1596SOL    HW116767  11.733   8.342   3.950  0.5785  0.6534  0.7424
 1596SOL    HW216768  11.789   8.280   4.077 -0.6581  1.9891  1.9869
 1597SOL     OW16769   7.110   4.489   0.688  0.3793  0.4201 -0.2787
 1597SOL    HW116770   7.138   4.563   0.633 -2.3306  0.2106 -2.1098
 1597SOL    HW216771   7.158   4.414   0.653 -0.6455  0.4558 -1.8780
 1598SOL     OW16772   7.174   8.078   4.964 -0.4200 -0.0095 -0.2672
 1598SOL    HW116773   7.207   8.120   4.884 -2.2277 -0.2806 -1.2284
 1598SOL    HW216774   7.113   8.012   4.931 -0.8586 -0.4356  1.3530
 1599SOL     OW16775   2.696  13.167  13.547  0.1808  0.9798  0.0859
 1599SOL    HW116776   2.634  13.239  13.536  1.1457  1.4886 -3.0150
 1599SOL    HW216777   2.708  13.132  13.459  2.6524 -0.4950  0.9122
 1600SOL     OW16778  13.249  12.016   0.395  0.1228  0.2555  0.1430
 1600SOL    HW116779  13.274  11.924   0.398  0.1022  0.2648  0.7084
 1600SOL    HW216780  13.159  12.017   0.427  0.3060  0.5334  0.6521
 1601SOL     OW16781  13.795   0.824   1.353 -0.4758 -0.6104 -0.5100
 1601SOL    HW116782  13.810   0.743   1.401  0.7752 -0.6168 -0.8881
 1601SOL    HW216783  13.722   0.805   1.294 -0.3475 -1.3790 -0.4218
 1602SOL     OW16784   5.909   4.231  13.786  0.1114  0.4472  0.0039
 1602SOL    HW116785   5.870   4.265  13.867 -1.1759 -1.2988  0.1668
 1602SOL    HW216786   5.836   4.192  13.738  1.1951 -0.4160 -1.0330
 1603SOL     OW16787   1.850   5.187   9.081 -0.3604 -0.0786 -0.1455
 1603SOL    HW116788   1.864   5.134   9.159 -0.5821  0.8827  0.5512
 1603SOL    HW216789   1.916   5.255   9.085 -0.5456  0.1390 -0.6655
 1604SOL     OW16790  12.137   3.787  11.685  0.6552 -0.2553 -0.4096
 1604SOL    HW116791  12.105   3.697  11.690  0.1154 -0.0893 -0.7400
 1604SOL    HW216792  12.130   3.820  11.774  0.2167 -0.3325 -0.4117
 1605SOL     OW16793   4.632  12.644   0.116  0.6578 -0.3425 -0.2082
 1605SOL    HW116794   4.657  12.589   0.041  0.0361 -1.2783  0.2638
 1605SOL    HW216795   4.566  12.703   0.081  0.5136 -0.6448 -0.4537
 1606SOL     OW16796   0.111   7.660   1.365  0.1833  0.1752  0.1344
 1606SOL    HW116797   0.184   7.658   1.303 -0.8114 -0.6233 -1.0612
 1606SOL    HW216798   0.035   7.630   1.314 -0.5677 -1.0787  1.8967
 1607SOL     OW16799  12.451   6.995   4.311 -0.0942  0.0737 -0.1815
 1607SOL    HW116800  12.441   7.063   4.245 -0.1326  1.3320  1.0523
 1607SOL    HW216801  12.372   7.003   4.365  0.6558  0.1515  0.9378
 1608SOL     OW16802  10.834   3.496   3.685  0.1414 -0.3753  0.0744
 1608SOL    HW116803  10.797   3.546   3.612 -0.2728 -0.7868 -0.0043
 1608SOL    HW216804  10.929   3.500   3.670  0.0388 -1.0469 -0.9069
 1609SOL     OW16805   0.734  10.254   9.222  0.1156 -0.3426  0.2088
 1609SOL    HW116806   0.709  10.162   9.221  1.5851 -0.7818 -1.3574
 1609SOL    HW216807   0.756  10.273   9.313 -3.3459 -0.5633  1.2243
 1610SOL     OW16808   0.049   6.984   2.764 -0.0401  0.4979  0.0430
 1610SOL    HW116809   0.081   6.902   2.727 -0.5464  0.4107 -0.2087
 1610SOL    HW216810   0.126   7.042   2.764  0.9307 -0.6557  2.2959
 1611SOL     OW16811   1.531   6.677   7.610  0.0074  0.2111 -0.1711
 1611SOL    HW116812   1.569   6.716   7.531  0.0024  0.3940 -0.0846
 1611SOL    HW216813   1.544   6.743   7.678 -0.6217  0.3541 -0.1816
 1612SOL     OW16814   1.705   5.261  11.091  0.2303  0.1823  0.4510
 1612SOL    HW116815   1.671   5.326  11.152  0.2981  1.0648 -0.4287
 1612SOL    HW216816   1.760   5.204  11.145 -1.1439 -0.1616  1.5455
 1613SOL     OW16817   4.331   4.516   8.309 -0.3033  0.5613 -0.1712
 1613SOL    HW116818   4.322   4.508   8.214 -1.3796 -1.1027  0.0267
 1613SOL    HW216819   4.259   4.573   8.335 -1.7399 -1.1977 -0.1086
 1614SOL     OW16820  10.494   3.831   4.172  0.7321  0.2197  0.2848
 1614SOL    HW116821  10.465   3.765   4.235  0.5854  0.9870  1.0445
 1614SOL    HW216822  10.414   3.860   4.128  0.2876  2.1101  2.1592
 1615SOL     OW16823   9.365   7.811   7.423  0.3189  0.2675  0.4956
 1615SOL    HW116824   9.376   7.719   7.445 -0.9523 -0.2558 -0.9118
 1615SOL    HW216825   9.409   7.858   7.494 -2.1091 -1.3221  3.2853
 1616SOL     OW16826   6.608   2.531   6.615  0.4237  0.0453 -0.3794
 1616SOL    HW116827   6.626   2.539   6.521 -0.8418  1.1058 -0.5597
 1616SOL    HW216828   6.611   2.437   6.632  0.8753 -0.1497 -1.4333
 1617SOL     OW16829   4.466  12.642   2.500 -0.3409  0.2401  0.1692
 1617SOL    HW116830   4.447  12.724   2.455  1.6201 -0.5386 -2.2738
 1617SOL    HW216831   4.538  12.664   2.560 -1.7466  0.8715  1.7011
 1618SOL     OW16832  10.651   7.652   4.838  0.0927 -0.3180  0.1874
 1618SOL    HW116833  10.606   7.718   4.893 -0.0001  0.2881 -0.6006
 1618SOL    HW216834  10.716   7.614   4.896 -0.2280  0.0770  0.8264
 1619SOL     OW16835   3.166  10.411   2.952  0.0595  0.4427 -0.6183
 1619SOL    HW116836   3.258  10.396   2.929  0.1880 -1.0012  0.7193
 1619SOL    HW216837   3.154  10.506   2.940  1.7322  0.6714 -0.7442
 1620SOL     OW16838  12.911   4.622  13.980  0.2679  0.3828  0.8638
 1620SOL    HW116839  12.816   4.635  13.971 -0.1558 -1.9010  1.4231
 1620SOL    HW216840  12.942   4.701  14.025 -1.3880  1.0878  0.8351
 1621SOL     OW16841   2.809   9.030  11.155  0.0677 -0.1527  0.3564
 1621SOL    HW116842   2.804   9.049  11.061 -1.6773 -0.8191  0.2903
 1621SOL    HW216843   2.723   8.994  11.177  1.6751 -3.8598  1.3588
 1622SOL     OW16844   3.040  12.538   3.616 -0.3748  0.9053 -0.0640
 1622SOL    HW116845   3.069  12.607   3.556 -0.0434  1.2085  0.4399
 1622SOL    HW216846   3.009  12.585   3.693  1.6836  0.4500  1.0947
 1623SOL     OW16847   2.746   2.317  13.666  0.0390 -0.0695 -0.0519
 1623SOL    HW116848   2.685   2.310  13.739  0.4752  0.3391  0.3654
 1623SOL    HW216849   2.692   2.340  13.590 -0.4047 -0.4053  0.1671
 1624SOL     OW16850   3.711  13.505   5.898  0.2150 -0.1480  0.6869
 1624SOL    HW116851   3.700  13.487   5.991  1.7171  1.2548  1.1786
 1624SOL    HW216852   3.699  13.600   5.891  0.0978 -0.2433 -0.5578
 1625SOL     OW16853   1.550   3.325  10.862  0.3786  0.0533  0.0642
 1625SOL    HW116854   1.560   3.231  10.848  3.1684 -0.1368  2.4878
 1625SOL    HW216855   1.457   3.336  10.883 -0.0091 -2.1640 -0.2814
 1626SOL     OW16856   4.421   9.332   8.726  0.4194 -0.0487  0.1724
 1626SOL    HW116857   4.330   9.303   8.732  0.2484  0.3071 -0.5698
 1626SOL    HW216858   4.472   9.261   8.767 -0.0545 -1.0449 -0.8934
 1627SOL     OW16859   4.289   8.679  12.085  0.0942 -0.3848  0.1130
 1627SOL    HW116860   4.344   8.604  12.106 -0.7995 -1.0220  0.2029
 1627SOL    HW216861   4.297   8.689  11.990 -1.5257 -1.9967 -0.2325
 1628SOL     OW16862   2.845   3.715   6.931  0.3364 -0.7101 -0.2429
 1628SOL    HW116863   2.932   3.679   6.948  1.7230  2.2416 -0.3108
 1628SOL    HW216864   2.858   3.772   6.855 -1.8915 -0.8526 -0.7878
 1629SOL     OW16865   2.699   4.263   0.062  0.1552  0.1185  0.3531
 1629SOL    HW116866   2.734   4.318  -0.008 -0.5334  1.6812  1.1802
 1629SOL    HW216867   2.604   4.273   0.055 -0.0886 -1.9239 -0.1789
 1630SOL     OW16868   5.913   8.057   2.804 -0.3258  0.2086 -0.0684
 1630SOL    HW116869   5.823   8.087   2.816 -0.1003  0.5870  0.7965
 1630SOL    HW216870   5.949   8.055   2.893  0.7536  0.8196 -0.4682
 1631SOL     OW16871   8.914   8.448   0.375  0.1777 -0.1075  0.2310
 1631SOL    HW116872   8.880   8.444   0.286 -0.5562 -2.3385  0.5651
 1631SOL    HW216873   8.979   8.519   0.372 -0.5499  0.5550 -1.7889
 1632SOL     OW16874  13.524  10.968   5.695  0.4105  0.6528 -0.1277
 1632SOL    HW116875  13.607  10.931   5.663 -0.8800 -0.6002 -2.2038
 1632SOL    HW216876  13.547  11.058   5.719  2.3223  0.4196 -0.8506
 1633SOL     OW16877   9.727   7.182   7.052  0.3426  0.7416  0.4313
 1633SOL    HW116878   9.748   7.165   6.960 -1.9898  1.3105 -0.2634
 1633SOL    HW216879   9.752   7.273   7.066  1.4606  0.4226  0.6355
 1634SOL     OW16880   7.098   1.815  10.525 -0.4454  0.1883 -0.3411
 1634SOL    HW116881   7.043   1.764  10.584 -2.0883 -0.8771 -2.6554
 1634SOL    HW216882   7.036   1.871  10.478  0.3397 -1.0047 -2.9835
 1635SOL     OW16883  11.861  11.219   4.654  0.2288 -0.2772  0.3274
 1635SOL    HW116884  11.928  11.152   4.644  1.1719  0.9035 -1.8106
 1635SOL    HW216885  11.886  11.289   4.593 -1.3204  1.5465  1.6367
 1636SOL     OW16886  10.036   7.285   3.938  0.3322  0.1489  0.1013
 1636SOL    HW116887  10.127   7.315   3.938  0.0135  1.2328  1.4227
 1636SOL    HW216888  10.035   7.216   4.004 -0.3033  1.9827  2.1150
 1637SOL     OW16889   9.108   8.302   8.768  0.0779 -0.0012 -0.0631
 1637SOL    HW116890   9.182   8.324   8.825  1.0713 -0.9786 -0.9178
 1637SOL    HW216891   9.145   8.240   8.704 -1.2700  0.1868 -1.0638
 1638SOL     OW16892   3.780  13.497  10.749 -0.0892 -0.2113 -0.1927
 1638SOL    HW116893   3.773  13.530  10.838  0.8094  1.7334 -0.7943
 1638SOL    HW216894   3.693  13.511  10.711 -0.2156 -0.2116  0.0935
 1639SOL     OW16895   8.688  11.571   1.234 -0.3822 -0.1526  0.2724
 1639SOL    HW116896   8.603  11.533   1.253 -1.6757  2.1303 -0.4878
 1639SOL    HW216897   8.682  11.661   1.266  1.7961  0.0512  0.2925
 1640SOL     OW16898   4.051   5.474   3.949  0.2430 -0.0696 -0.3657
 1640SOL    HW116899   4.003   5.444   3.872 -0.8388 -1.4643  0.7921
 1640SOL    HW216900   4.132   5.423   3.947 -1.0293 -2.3128  0.8942
 1641SOL     OW16901  12.425   4.589  11.004  0.3989  0.0404 -0.0130
 1641SOL    HW116902  12.336   4.593  11.039  0.7881  2.3973  0.9219
 1641SOL    HW216903  12.428   4.659  10.938  1.8567  0.8941  0.8755
 1642SOL     OW16904   5.797  12.278   4.673 -0.0552  0.3430 -0.0365
 1642SOL    HW116905   5.882  12.249   4.639 -0.4382  0.1270 -0.8256
 1642SOL    HW216906   5.733  12.240   4.613 -0.7672 -0.1975  1.0242
 1643SOL     OW16907  11.797   3.408   0.640  0.0495 -0.4145  0.1003
 1643SOL    HW116908  11.719   3.355   0.655  0.0713 -0.1608  1.2270
 1643SOL    HW216909  11.862   3.371   0.700 -0.0789  1.1684  1.2627
 1644SOL     OW16910   1.319   3.313   4.731 -0.0486 -0.3526  0.7443
 1644SOL    HW116911   1.390   3.249   4.722  0.8067  0.8326 -3.8552
 1644SOL    HW216912   1.239   3.262   4.719  0.5199 -0.9374 -0.9833
 1645SOL     OW16913  10.387  11.393  10.907 -0.4222 -0.4384 -0.4897
 1645SOL    HW116914  10.480  11.374  10.897 -0.4844 -0.4258 -1.1527
 1645SOL    HW216915  10.351  11.316  10.951  0.0766 -0.0043  0.7216
 1646SOL     OW16916  10.212   0.651   0.068  0.4972 -0.0307  0.1144
 1646SOL    HW116917  10.160   0.571   0.079  0.7130 -0.0978  0.6751
 1646SOL    HW216918  10.148   0.719   0.050  0.1304  0.0417  1.5634
 1647SOL     OW16919   0.728   5.471   6.601 -0.1611  0.5753 -0.3425
 1647SOL    HW116920   0.688   5.498   6.518 -0.0124  1.8770 -0.0132
 1647SOL    HW216921   0.659   5.423   6.646 -0.3665  0.1883 -1.0429
 1648SOL     OW16922  11.849   3.300   4.346  0.1504 -0.3685  0.0372
 1648SOL    HW116923  11.765   3.321   4.386  0.1274 -2.0246  0.9308
 1648SOL    HW216924  11.914   3.343   4.401 -0.1083  1.6740 -1.1700
 1649SOL     OW16925   8.510   3.644   7.500  0.7959  0.3439 -0.8810
 1649SOL    HW116926   8.462   3.561   7.504 -0.4420  0.9283 -2.2912
 1649SOL    HW216927   8.596   3.624   7.536  1.0337 -1.9463 -2.4724
 1650SOL     OW16928   1.355   0.555   8.235 -0.0567  0.4833 -0.1062
 1650SOL    HW116929   1.314   0.485   8.183 -0.8207  1.0077 -0.2363
 1650SOL    HW216930   1.440   0.569   8.194 -0.1598  0.0628 -0.4718
 1651SOL     OW16931   8.727   5.042   7.900 -0.1585  0.4835  0.7485
 1651SOL    HW116932   8.717   4.951   7.930 -1.6468  0.3260 -0.1305
 1651SOL    HW216933   8.811   5.043   7.855 -1.3862 -1.2654 -1.8210
 1652SOL     OW16934  13.592   9.904  13.925  0.3153  0.0376  0.6056
 1652SOL    HW116935  13.531   9.976  13.911  1.0581  0.5593 -0.0135
 1652SOL    HW216936  13.559   9.860  14.004 -0.1457  1.0507  0.9955
 1653SOL     OW16937   3.375   6.918   4.425 -0.2389  0.0448 -0.4916
 1653SOL    HW116938   3.377   6.855   4.353  0.6575 -0.6200  0.1010
 1653SOL    HW216939   3.388   7.003   4.383  0.0167 -0.3123 -1.1384
 1654SOL     OW16940  13.621  10.409   7.552  0.9538 -0.3158 -0.5100
 1654SOL    HW116941  13.717  10.401   7.550  1.0218 -0.3348  1.2436
 1654SOL    HW216942  13.604  10.474   7.620 -0.2594  0.4456 -1.5144
 1655SOL     OW16943   4.448   9.463   2.610  0.2029  0.6863 -0.6276
 1655SOL    HW116944   4.413   9.484   2.523  0.8012  1.8086 -0.6110
 1655SOL    HW216945   4.387   9.506   2.671  0.1087  0.3877 -0.5119
 1656SOL     OW16946   1.265   1.035   5.162 -0.1775 -0.3356 -0.3085
 1656SOL    HW116947   1.208   1.006   5.234  0.2730 -1.4597 -0.3788
 1656SOL    HW216948   1.211   1.096   5.112 -1.7273 -2.1396 -0.9670
 1657SOL     OW16949  11.001   5.410  11.909 -0.2603  0.1776 -0.0069
 1657SOL    HW116950  11.034   5.325  11.881 -0.1493  0.5355 -0.9906
 1657SOL    HW216951  10.916   5.391  11.949 -0.3078 -0.3822 -0.3684
 1658SOL     OW16952   0.673  10.944   6.632  0.5128  0.5842 -0.2813
 1658SOL    HW116953   0.630  10.868   6.671  2.5665 -0.3562  0.2585
 1658SOL    HW216954   0.607  11.014   6.638 -0.7968 -0.6757  0.8380
 1659SOL     OW16955   4.731   0.004   5.091 -0.6937 -0.1338  0.0529
 1659SOL    HW116956   4.700   0.008   5.001  1.5205 -1.0479 -0.8458
 1659SOL    HW216957   4.726   0.094   5.123 -1.9781  0.1118 -0.7824
 1660SOL     OW16958   1.638  10.278   1.627  0.2594  0.4796  0.0102
 1660SOL    HW116959   1.715  10.333   1.642  0.7126  0.4668 -1.9442
 1660SOL    HW216960   1.668  10.189   1.643 -0.5948  0.7134  3.6311
 1661SOL     OW16961   4.070   1.546   7.359 -0.2777 -0.2108  0.3813
 1661SOL    HW116962   4.075   1.517   7.450  0.4972 -0.7289  0.1811
 1661SOL    HW216963   3.996   1.608   7.357 -0.4559 -0.3888  1.3009
 1662SOL     OW16964   6.189  10.203  12.743  0.0106 -0.2533 -0.5898
 1662SOL    HW116965   6.262  10.262  12.760 -1.0510  0.5608  1.5103
 1662SOL    HW216966   6.143  10.242  12.668  0.1662  0.7770 -0.1579
 1663SOL     OW16967   3.359  11.360  13.068  0.0725 -0.0741 -0.0199
 1663SOL    HW116968   3.268  11.359  13.098  0.0985 -2.3150  0.1600
 1663SOL    HW216969   3.361  11.426  12.999 -1.2173  1.3996  1.2683
 1664SOL     OW16970   6.597   6.023   0.049 -0.6798 -0.3365  0.5156
 1664SOL    HW116971   6.512   6.032   0.007  0.3160 -0.7542 -1.7608
 1664SOL    HW216972   6.585   5.954   0.114 -2.9228  2.0530  2.8954
 1665SOL     OW16973   2.480  12.272  11.081  0.1881 -0.1445  0.7821
 1665SOL    HW116974   2.448  12.185  11.107 -0.2202 -0.0136  0.7220
 1665SOL    HW216975   2.505  12.314  11.164 -1.0592  0.2498  0.9754
 1666SOL     OW16976  13.929  13.333   3.115 -0.0431  0.0068  0.0858
 1666SOL    HW116977  13.981  13.372   3.185 -0.2442  0.2030  0.1265
 1666SOL    HW216978  13.839  13.360   3.134 -0.1623 -0.3305  0.0183
 1667SOL     OW16979  12.134   0.640  11.845  0.1014  0.0366 -0.2107
 1667SOL    HW116980  12.100   0.638  11.755 -0.7140 -0.9184  0.0962
 1667SOL    HW216981  12.111   0.554  11.881  1.5640 -0.0823  0.5079
 1668SOL     OW16982   9.676   5.647   7.787  0.0892  0.2491 -0.1630
 1668SOL    HW116983   9.629   5.625   7.867 -1.3227  2.7067 -0.2302
 1668SOL    HW216984   9.667   5.569   7.732 -2.0582 -0.1879  0.6910
 1669SOL     OW16985   1.057  12.344  12.007  0.1688 -0.2917  0.3075
 1669SOL    HW116986   1.142  12.307  11.983 -0.2737 -0.9708 -0.2496
 1669SOL    HW216987   1.025  12.288  12.078  0.0759 -0.1834  0.3519
 1670SOL     OW16988   5.872   0.028  13.889 -0.0163 -0.2859  0.4244
 1670SOL    HW116989   5.899  -0.003  13.975  2.2061 -0.3314 -0.2305
 1670SOL    HW216990   5.946   0.080  13.858 -1.0074  0.2185 -1.2359
 1671SOL     OW16991   5.216   1.105  11.148 -0.1523  0.0757 -0.0216
 1671SOL    HW116992   5.302   1.075  11.177 -0.2459 -2.0840 -1.7649
 1671SOL    HW216993   5.228   1.129  11.056 -1.4571 -0.6309 -0.4041
 1672SOL     OW16994   6.047   3.562   9.716  0.0672  0.2660 -0.3010
 1672SOL    HW116995   6.046   3.475   9.677 -0.0359  0.8447 -1.6472
 1672SOL    HW216996   5.977   3.560   9.781 -0.4876 -0.4078 -0.8945
 1673SOL     OW16997   1.240   8.596   8.553  0.4562 -0.0865 -0.5349
 1673SOL    HW116998   1.248   8.691   8.544  0.9912 -0.0378  0.3213
 1673SOL    HW216999   1.217   8.566   8.466 -1.0869  0.9594 -0.5282
 1674SOL     OW17000  12.146   3.007  12.910 -0.3522 -0.3750  0.3052
 1674SOL    HW117001  12.075   3.060  12.875 -0.4111  0.5097  1.6938
 1674SOL    HW217002  12.111   2.918  12.913 -0.9909 -0.1372 -0.1093
 1675SOL     OW17003   4.377   8.279   5.533 -0.3624 -0.3066  0.4196
 1675SOL    HW117004   4.449   8.237   5.484 -0.5284  0.6276 -0.6651
 1675SOL    HW217005   4.356   8.357   5.482 -0.7456  0.5617  1.8557
 1676SOL     OW17006   8.113   7.656  11.842  0.3884 -0.3638 -0.2587
 1676SOL    HW117007   8.107   7.733  11.785  0.5874  0.0354  0.2616
 1676SOL    HW217008   8.178   7.679  11.908 -0.2176 -0.6274  0.4400
 1677SOL     OW17009   4.153   9.933  10.128 -0.3612  0.0547  0.0165
 1677SOL    HW117010   4.192  10.020  10.142  1.6124 -0.9129  0.8440
 1677SOL    HW217011   4.211   9.873  10.174 -3.3872 -1.4466  2.2533
 1678SOL     OW17012  13.214   9.921   8.561  0.4445 -0.0875  0.0092
 1678SOL    HW117013  13.308   9.916   8.546  0.2152  0.7901 -2.1065
 1678SOL    HW217014  13.205   9.964   8.646  1.9179 -1.3320  0.8465
 1679SOL     OW17015   6.289   9.591   5.704 -0.3131  0.5507  0.1788
 1679SOL    HW117016   6.273   9.520   5.765 -0.4275 -0.0040 -0.4926
 1679SOL    HW217017   6.229   9.575   5.631  0.4848  0.6642 -0.5205
 1680SOL     OW17018   6.416  12.543  10.399 -0.3513  0.2679 -0.1614
 1680SOL    HW117019   6.437  12.631  10.369 -0.3913  0.0267 -0.9148
 1680SOL    HW217020   6.418  12.549  10.495 -0.7008  1.1641 -0.2006
 1681SOL     OW17021   3.986   0.139   3.264 -0.1290  0.0480 -0.1630
 1681SOL    HW117022   3.992   0.228   3.231 -2.6594  0.0586 -0.8122
 1681SOL    HW217023   4.055   0.091   3.217  1.0321  1.5459 -0.0594
 1682SOL     OW17024  12.079   8.977   5.707  0.1546 -0.0965  0.3978
 1682SOL    HW117025  12.039   8.933   5.782  0.9735 -0.4129  0.6543
 1682SOL    HW217026  12.070   9.070   5.726  0.3456 -0.1756  0.8891
 1683SOL     OW17027   7.292   8.215   4.477 -0.5667 -0.6213 -0.5709
 1683SOL    HW117028   7.318   8.258   4.395  0.7511 -1.2954 -0.5341
 1683SOL    HW217029   7.217   8.266   4.508  1.0575  1.8480 -0.3974
 1684SOL     OW17030  10.225   8.327   1.273 -0.8081  0.5146  0.0900
 1684SOL    HW117031  10.177   8.262   1.324  0.7257 -1.8071 -1.2276
 1684SOL    HW217032  10.312   8.328   1.313 -0.1915  0.1400 -1.1794
 1685SOL     OW17033   6.416   3.519   5.507 -0.2394  0.1455  0.1187
 1685SOL    HW117034   6.435   3.433   5.469  0.2443  0.5771 -0.6451
 1685SOL    HW217035   6.362   3.563   5.441  0.8101  0.9982 -0.1880
 1686SOL     OW17036   7.343   8.924   3.540  0.0586 -0.1477  0.3646
 1686SOL    HW117037   7.411   8.885   3.485  1.2209  1.0537  0.8852
 1686SOL    HW217038   7.389   8.954   3.618 -1.2915 -0.3653  1.2705
 1687SOL     OW17039  12.181  12.893   8.971  0.4689  0.4127  0.7931
 1687SOL    HW117040  12.230  12.845   9.038 -2.5670  1.4594  4.0321
 1687SOL    HW217041  12.138  12.824   8.920  3.1254 -0.4128 -0.5770
 1688SOL     OW17042   9.855  10.832  12.549  0.2264  0.2584  0.1397
 1688SOL    HW117043   9.774  10.781  12.536 -1.6576  2.5250  1.9946
 1688SOL    HW217044   9.878  10.816  12.641  0.5364  1.4223  0.2770
 1689SOL     OW17045   9.436   8.870   3.563 -0.2823 -1.0205 -0.0312
 1689SOL    HW117046   9.397   8.902   3.482  1.0409 -0.8911 -0.6315
 1689SOL    HW217047   9.421   8.940   3.626  1.0607  0.0976 -0.8830
 1690SOL     OW17048  13.589  13.620   9.379 -0.2336  0.5146 -0.2481
 1690SOL    HW117049  13.547  13.534   9.376 -0.5119  0.6527 -0.4109
 1690SOL    HW217050  13.577  13.649   9.470  0.1902  0.2233 -0.0964
 1691SOL     OW17051  10.619   9.825  10.520  0.1959 -0.1501  0.2097
 1691SOL    HW117052  10.706   9.824  10.561  0.4982 -0.7443 -0.4118
 1691SOL    HW217053  10.609   9.913  10.486  0.6216 -0.1216  0.1574
 1692SOL     OW17054   3.823  13.337   4.486 -0.0890  0.1059  0.1527
 1692SOL    HW117055   3.883  13.393   4.437  1.6812 -1.5131  0.3592
 1692SOL    HW217056   3.761  13.397   4.527  0.6738  1.7546 -1.0131
 1693SOL     OW17057   2.341   6.066   5.320  0.1320  0.4379  0.9363
 1693SOL    HW117058   2.309   6.109   5.399  0.8561  1.0148  0.9246
 1693SOL    HW217059   2.278   5.995   5.304 -0.4301  0.7773  1.6034
 1694SOL     OW17060   5.300   7.037   2.593 -0.2792  0.4262  0.5492
 1694SOL    HW117061   5.285   7.062   2.684 -2.3547  0.2592  0.3023
 1694SOL    HW217062   5.296   7.120   2.545  2.6695  0.7806  0.7330
 1695SOL     OW17063   5.791   2.703  13.433  0.0878 -0.1937  0.3116
 1695SOL    HW117064   5.731   2.634  13.460 -0.6736  0.2745 -0.1550
 1695SOL    HW217065   5.803   2.689  13.339 -1.6218  1.4449 -0.2034
 1696SOL     OW17066   4.033   3.575   0.627  0.2516  0.1471  0.0796
 1696SOL    HW117067   4.037   3.484   0.659  0.1347  0.8442  2.2250
 1696SOL    HW217068   4.043   3.628   0.706  3.1244  2.0591 -1.4240
 1697SOL     OW17069   8.682   1.941  13.794 -0.0610  0.5163 -0.0907
 1697SOL    HW117070   8.768   1.940  13.837 -0.4532 -0.4815  0.7311
 1697SOL    HW217071   8.692   1.882  13.719 -0.0784  0.2248  0.1328
 1698SOL     OW17072  10.696   1.411  11.499 -0.3284  0.0142 -0.2645
 1698SOL    HW117073  10.778   1.444  11.463 -0.3866  0.6531  0.1737
 1698SOL    HW217074  10.703   1.316  11.492  2.2643 -0.2855  3.4975
 1699SOL     OW17075   0.415   2.802   5.983 -0.5723 -0.6225 -0.1376
 1699SOL    HW117076   0.392   2.711   5.962  0.0702 -0.5185 -1.4459
 1699SOL    HW217077   0.358   2.855   5.926 -1.2951 -0.1769  0.9768
 1700SOL     OW17078   2.332   1.729   3.294 -0.4741  0.5092 -0.0253
 1700SOL    HW117079   2.259   1.730   3.356  0.2582  1.0304  0.8583
 1700SOL    HW217080   2.358   1.821   3.286 -0.0450  0.3554 -0.5014
 1701SOL     OW17081   5.502   8.353   4.785 -0.2097  0.0669  0.3920
 1701SOL    HW117082   5.580   8.387   4.831 -0.7773  0.4465  1.0883
 1701SOL    HW217083   5.437   8.340   4.853 -0.6276 -0.6690 -0.1309
 1702SOL     OW17084  10.450  10.725  12.011  0.0968 -0.1710 -0.1792
 1702SOL    HW117085  10.448  10.747  12.105 -0.1453 -1.3369  0.1128
 1702SOL    HW217086  10.509  10.789  11.972 -0.1947  0.6510  0.6881
 1703SOL     OW17087   8.126   9.743  12.636 -0.8386 -0.2228  0.2099
 1703SOL    HW117088   8.069   9.817  12.614  0.9121  0.7364 -1.3801
 1703SOL    HW217089   8.184   9.777  12.705 -2.1977 -1.2433  1.9448
 1704SOL     OW17090   7.363  12.281   4.537 -0.0208  0.8685  0.3806
 1704SOL    HW117091   7.457  12.275   4.550 -0.1116 -0.8651  0.4545
 1704SOL    HW217092   7.350  12.268   4.443 -0.2744 -0.6186  0.6018
 1705SOL     OW17093  12.362   8.366   7.758 -0.5766  0.3169 -0.4318
 1705SOL    HW117094  12.323   8.343   7.842 -0.8074  2.3595  0.0757
 1705SOL    HW217095  12.392   8.457   7.769  1.6920 -0.1843 -1.7398
 1706SOL     OW17096   5.338   9.059   6.731 -0.4897  0.0055 -0.5864
 1706SOL    HW117097   5.418   9.032   6.685 -0.4207 -0.2902 -0.2956
 1706SOL    HW217098   5.267   9.040   6.670 -0.5590 -1.8974  0.0184
 1707SOL     OW17099   6.777   2.942   8.474  0.5076  0.2153  0.9999
 1707SOL    HW117100   6.823   3.023   8.452 -0.7817  0.4600 -1.0734
 1707SOL    HW217101   6.846   2.876   8.481  1.2568  0.3879 -2.7924
 1708SOL     OW17102   1.913   1.176   0.247 -0.2534 -0.1985  1.1100
 1708SOL    HW117103   1.936   1.124   0.170  1.1719  1.2192  0.5173
 1708SOL    HW217104   1.891   1.111   0.314  0.8819 -1.5487  0.2397
 1709SOL     OW17105  13.612  10.698   5.398 -0.0930 -0.0464  0.0346
 1709SOL    HW117106  13.675  10.765   5.427  1.8076 -1.3972 -0.7982
 1709SOL    HW217107  13.576  10.733   5.317 -1.1596  1.1599  0.9894
 1710SOL     OW17108   3.767   5.223  11.595 -0.0040 -0.2715  0.1605
 1710SOL    HW117109   3.785   5.296  11.655 -1.6798  0.5701 -0.2931
 1710SOL    HW217110   3.850   5.211  11.548  0.0631  2.0587 -0.4699
 1711SOL     OW17111   3.702   7.705   3.639 -0.6366 -0.2241 -0.5540
 1711SOL    HW117112   3.770   7.762   3.675 -0.4736  1.5049 -3.3496
 1711SOL    HW217113   3.621   7.757   3.647 -0.8603 -0.4673 -1.2364
 1712SOL     OW17114  13.469   9.262   4.164  0.2490 -0.2491 -0.3930
 1712SOL    HW117115  13.454   9.174   4.131  2.2244 -1.1856  1.0102
 1712SOL    HW217116  13.422   9.265   4.247 -0.7023  0.4318 -0.9333
 1713SOL     OW17117  12.320   9.141   2.914  0.1907  0.0533  0.3781
 1713SOL    HW117118  12.299   9.227   2.952 -0.2514 -1.1105  2.9086
 1713SOL    HW217119  12.296   9.151   2.821 -0.6602  2.3968  0.7637
 1714SOL     OW17120   0.166  11.289   3.180 -0.2841 -0.0392 -0.2675
 1714SOL    HW117121   0.196  11.199   3.170 -1.0087 -0.3046 -0.1775
 1714SOL    HW217122   0.239  11.335   3.222  0.8829 -0.0721 -2.1823
 1715SOL     OW17123   6.409  11.808   0.893  0.2136 -0.5642 -0.2871
 1715SOL    HW117124   6.461  11.732   0.917  1.0635  0.8490  2.8823
 1715SOL    HW217125   6.321  11.789   0.925  0.1153 -0.7106 -0.6399
 1716SOL     OW17126   0.798   0.400   8.520  0.0868  0.1059 -0.5536
 1716SOL    HW117127   0.739   0.458   8.472  0.1419  2.8667  2.3421
 1716SOL    HW217128   0.879   0.400   8.469 -0.0073  2.5151 -0.8341
 1717SOL     OW17129  13.338   2.943  11.040  0.0331  0.4013 -0.6978
 1717SOL    HW117130  13.364   3.035  11.051 -1.1045  0.6889 -0.2636
 1717SOL    HW217131  13.242   2.946  11.033  0.0395 -0.6801 -1.4914
 1718SOL     OW17132   2.214   4.273   4.790  0.7126  0.1282 -0.0116
 1718SOL    HW117133   2.264   4.348   4.757  0.8707 -0.2811 -0.7305
 1718SOL    HW217134   2.221   4.208   4.721  0.7060 -0.6115  0.6788
 1719SOL     OW17135   3.464   3.707   0.998  0.1117  0.4249  0.3873
 1719SOL    HW117136   3.403   3.689   1.070  1.7896  1.0841  2.0681
 1719SOL    HW217137   3.545   3.731   1.042  2.3616 -2.6845 -1.6763
 1720SOL     OW17138   5.042   3.545   6.653  0.5686 -0.0868 -0.2574
 1720SOL    HW117139   5.058   3.639   6.664  1.0012  0.3133 -3.3360
 1720SOL    HW217140   5.129   3.506   6.645  0.3723 -0.3668 -1.1864
 1721SOL     OW17141   0.332   5.210   6.950  0.0715 -0.0116 -0.5027
 1721SOL    HW117142   0.402   5.151   6.978  2.0201  2.5135  0.2605
 1721SOL    HW217143   0.346   5.290   6.999 -4.0260  0.3543  0.4568
 1722SOL     OW17144   9.288   0.493   6.186 -0.2352 -0.6926 -0.6980
 1722SOL    HW117145   9.358   0.474   6.248 -0.3277 -2.0014 -0.9720
 1722SOL    HW217146   9.333   0.512   6.104 -0.1652 -0.3526 -0.5832
 1723SOL     OW17147   9.730   5.968  10.935 -0.2047 -0.7984 -0.1718
 1723SOL    HW117148   9.798   5.919  10.981 -0.4539 -1.6937 -0.7265
 1723SOL    HW217149   9.775   6.046  10.901  0.2608 -0.7711  0.4965
 1724SOL     OW17150  11.083   6.925   2.145 -0.4333 -0.2428  0.0872
 1724SOL    HW117151  11.178   6.917   2.155 -0.2771  1.3308  0.2413
 1724SOL    HW217152  11.066   7.018   2.161 -2.1358 -0.6883  1.0854
 1725SOL     OW17153   3.742   0.461  11.900 -0.3710  0.3809  0.0667
 1725SOL    HW117154   3.673   0.504  11.850 -1.2507  1.1260  1.8469
 1725SOL    HW217155   3.696   0.401  11.959  0.5082  0.6188  1.0248
 1726SOL     OW17156  13.065  10.939   3.792 -0.0131  0.2847 -0.4486
 1726SOL    HW117157  12.986  10.992   3.803 -0.4922 -0.7420  1.7941
 1726SOL    HW217158  13.032  10.849   3.790  1.0903 -0.2552  1.8208
 1727SOL     OW17159   1.940  10.855   7.155  0.6124  0.1358 -0.3119
 1727SOL    HW117160   1.856  10.809   7.143  0.7818 -0.3011  0.1320
 1727SOL    HW217161   1.951  10.906   7.074 -0.2436  0.4648 -0.2298
 1728SOL     OW17162   6.922   4.014   5.126  0.5755 -0.6311  0.6987
 1728SOL    HW117163   6.879   4.074   5.066 -0.1144 -1.5803  0.2160
 1728SOL    HW217164   7.015   4.035   5.118  0.3583  0.2605  0.4240
 1729SOL     OW17165   3.544   5.369   8.317 -0.3226 -0.6742 -0.5752
 1729SOL    HW117166   3.589   5.346   8.235  0.4041 -0.8980 -0.1230
 1729SOL    HW217167   3.606   5.426   8.362 -1.9501  2.1170 -1.5673
 1730SOL     OW17168   9.788   4.572  10.535 -0.4908  0.0953  0.3200
 1730SOL    HW117169   9.812   4.647  10.590 -2.1561 -0.4294  1.8279
 1730SOL    HW217170   9.812   4.495  10.586  1.0337 -0.4599 -1.1409
 1731SOL     OW17171  10.352  13.951   5.562 -0.0621 -0.1085 -0.3517
 1731SOL    HW117172  10.402  13.916   5.489 -0.4889 -1.3857 -0.0695
 1731SOL    HW217173  10.261  13.942   5.536 -0.2815 -1.9068  0.8595
 1732SOL     OW17174   0.610   4.948   5.943 -0.2144 -0.5593  0.5184
 1732SOL    HW117175   0.667   4.872   5.955 -1.9108 -1.9832 -0.0440
 1732SOL    HW217176   0.583   4.945   5.851 -1.5640 -0.2043  0.8778
 1733SOL     OW17177  11.832   5.566   4.287 -0.1593  0.0266 -0.0342
 1733SOL    HW117178  11.928   5.568   4.296 -0.2836  0.2823  1.4631
 1733SOL    HW217179  11.800   5.623   4.357 -1.3699  1.3290 -1.5774
 1734SOL     OW17180   3.412   7.758   8.865  0.1535  0.1867 -0.3142
 1734SOL    HW117181   3.351   7.803   8.922 -0.0423  0.7213 -0.9336
 1734SOL    HW217182   3.496   7.763   8.911  0.0176  0.6899 -0.1169
 1735SOL     OW17183   1.200   2.204   2.329 -0.3746  0.0017  0.2097
 1735SOL    HW117184   1.189   2.145   2.254  0.7539 -0.3673  0.3215
 1735SOL    HW217185   1.180   2.149   2.405 -0.3288  0.0481  0.2548
 1736SOL     OW17186   4.665   7.954   0.442 -0.6101 -0.3507 -0.4286
 1736SOL    HW117187   4.739   7.986   0.390 -0.0745  0.8871  0.9907
 1736SOL    HW217188   4.596   7.935   0.379  0.5396 -0.4338 -1.6949
 1737SOL     OW17189   1.431  11.486  11.301  0.3831 -0.4439  0.1171
 1737SOL    HW117190   1.361  11.474  11.236 -0.6885  0.6746  1.0182
 1737SOL    HW217191   1.408  11.567  11.346  1.2885 -1.0091  1.6721
 1738SOL     OW17192   1.430   0.014  12.818  0.3879 -0.1266 -0.1780
 1738SOL    HW117193   1.453  -0.077  12.838  1.0813  0.1580  0.3868
 1738SOL    HW217194   1.335   0.013  12.808  0.2565 -0.7174  0.9292
 1739SOL     OW17195   8.646   3.378   9.807  0.2559 -0.5750 -0.0052
 1739SOL    HW117196   8.636   3.444   9.738  0.2949 -0.0759  0.4575
 1739SOL    HW217197   8.560   3.336   9.812  0.2156 -0.5279 -0.2762
 1740SOL     OW17198   3.670   3.909  11.684 -0.0487  0.8033  0.2630
 1740SOL    HW117199   3.656   3.818  11.710 -1.3918  0.9820  0.2601
 1740SOL    HW217200   3.715   3.948  11.759 -0.4873  0.4036  0.7443
 1741SOL     OW17201  11.597   9.504   8.577  0.2441 -0.5634  0.1905
 1741SOL    HW117202  11.546   9.486   8.656  0.8455  0.9561  0.9543
 1741SOL    HW217203  11.688   9.506   8.607  0.3661  1.7597 -0.1565
 1742SOL     OW17204   6.569   3.113   0.983  0.1268 -0.2448 -0.0902
 1742SOL    HW117205   6.624   3.180   1.023 -0.9368  0.8200 -0.3203
 1742SOL    HW217206   6.481   3.134   1.014 -0.1527 -1.9812  0.3773
 1743SOL     OW17207   1.701  11.772   7.376  0.0129  0.1251 -0.0696
 1743SOL    HW117208   1.797  11.779   7.372  0.1611 -1.7004 -0.7853
 1743SOL    HW217209   1.672  11.790   7.286  0.0560 -2.8224 -0.7953
 1744SOL     OW17210  12.596   0.161  13.985 -0.4199  0.5020 -0.3933
 1744SOL    HW117211  12.682   0.196  13.962  0.5245 -0.2784  1.6964
 1744SOL    HW217212  12.612   0.070  14.008 -1.7946  0.3726  0.1373
 1745SOL     OW17213   5.066  10.354   9.485  0.5526  0.1006 -0.1976
 1745SOL    HW117214   5.003  10.387   9.421  0.1958  1.9087  1.0280
 1745SOL    HW217215   5.013  10.303   9.547  0.6323 -0.1410 -0.3251
 1746SOL     OW17216   7.309   1.033   4.575 -0.3293 -0.2827 -0.3436
 1746SOL    HW117217   7.287   1.071   4.660 -1.0226 -2.8203  0.7365
 1746SOL    HW217218   7.232   1.050   4.521 -1.3146 -1.4339  0.6241
 1747SOL     OW17219  11.803  12.811   8.831 -0.1687 -0.3210  0.3914
 1747SOL    HW117220  11.787  12.902   8.808 -1.6950 -0.8238 -0.6770
 1747SOL    HW217221  11.751  12.760   8.768 -0.9190 -1.8857  2.1789
 1748SOL     OW17222  11.590   4.959   2.758 -0.0212  0.0975  0.2036
 1748SOL    HW117223  11.659   4.935   2.696 -1.2272  1.4201 -1.7563
 1748SOL    HW217224  11.603   5.053   2.774 -0.5760  0.0735  0.8755
 1749SOL     OW17225  12.127   7.728   1.177  0.4124  0.7102  0.3197
 1749SOL    HW117226  12.048   7.679   1.198  0.6138  0.0993 -0.3144
 1749SOL    HW217227  12.096   7.808   1.134  0.1665 -0.0587 -0.9898
 1750SOL     OW17228   0.740   1.901   1.473 -0.3030  0.2513 -0.0783
 1750SOL    HW117229   0.776   1.933   1.390 -0.5595  0.8496  0.0333
 1750SOL    HW217230   0.658   1.949   1.483 -0.7994 -0.5953  0.0104
 1751SOL     OW17231   5.111   1.634   4.199 -0.2491 -0.2187 -0.1111
 1751SOL    HW117232   5.086   1.576   4.271  0.4680 -0.8043 -0.3210
 1751SOL    HW217233   5.198   1.603   4.173 -0.8486 -0.5516 -1.7793
 1752SOL     OW17234  10.631   9.542   6.014 -0.0214 -0.0647 -0.2511
 1752SOL    HW117235  10.561   9.551   6.078 -0.7296 -1.9268 -0.7038
 1752SOL    HW217236  10.664   9.631   6.001 -2.5240  0.9158 -0.2963
 1753SOL     OW17237   4.205   4.361   3.126  0.3109  0.3651  0.0516
 1753SOL    HW117238   4.215   4.305   3.203 -1.4146 -2.1751 -1.3787
 1753SOL    HW217239   4.282   4.342   3.072  0.0222 -0.2507 -0.1617
 1754SOL     OW17240   8.452   2.119   6.638  0.3013 -0.5834 -0.1534
 1754SOL    HW117241   8.547   2.108   6.647  0.6810  1.4069 -1.0830
 1754SOL    HW217242   8.435   2.207   6.670 -1.2833 -0.9715  0.1464
 1755SOL     OW17243  10.488   5.783   3.515 -0.2147 -0.1791  0.6482
 1755SOL    HW117244  10.439   5.793   3.597  0.4084 -1.7939  1.2469
 1755SOL    HW217245  10.477   5.867   3.471 -1.6922  0.2592  1.7602
 1756SOL     OW17246   8.205   7.774  12.290 -0.1156  0.5644  0.0901
 1756SOL    HW117247   8.241   7.802  12.375 -1.5485  1.5498  0.3996
 1756SOL    HW217248   8.134   7.835  12.273 -0.0683  0.1626 -1.6865
 1757SOL     OW17249  12.388   5.346   2.060  0.0909 -0.1465  0.1111
 1757SOL    HW117250  12.315   5.298   2.021  0.6342  1.1513 -2.8467
 1757SOL    HW217251  12.402   5.305   2.145 -3.2807 -1.2085  0.3086
 1758SOL     OW17252   8.701  11.909   6.152 -0.3773 -1.2846 -0.3742
 1758SOL    HW117253   8.754  11.844   6.199 -0.3099 -1.3639 -0.5594
 1758SOL    HW217254   8.758  11.985   6.145 -0.5577 -1.1078  0.0906
 1759SOL     OW17255   0.837   9.669  10.515 -0.3023 -0.2023 -0.4747
 1759SOL    HW117256   0.751   9.700  10.484 -0.5326 -1.8532 -1.6110
 1759SOL    HW217257   0.861   9.600  10.453  2.1109  0.5772 -0.4925
 1760SOL     OW17258   3.680   9.604  12.836 -0.0707  0.7987 -0.0745
 1760SOL    HW117259   3.737   9.527  12.844 -2.4589 -1.0917 -0.2565
 1760SOL    HW217260   3.650   9.622  12.925  0.1381  1.2911 -0.0959
 1761SOL     OW17261  11.564   8.752   0.683  0.1659 -0.0446 -0.1663
 1761SOL    HW117262  11.588   8.691   0.614  0.5753  0.5007 -0.5104
 1761SOL    HW217263  11.491   8.709   0.729  0.4993 -0.8208 -0.3497
 1762SOL     OW17264  10.665  11.301   0.144  0.1536  0.8993 -0.1590
 1762SOL    HW117265  10.648  11.255   0.062 -0.5824 -3.0242  1.9197
 1762SOL    HW217266  10.595  11.365   0.150 -0.7428  0.1626 -1.8551
 1763SOL     OW17267  11.203   7.644   3.395  0.2797 -0.1985  0.4737
 1763SOL    HW117268  11.289   7.602   3.391  0.2620 -0.1884 -0.3263
 1763SOL    HW217269  11.220   7.736   3.375  0.2609  0.0927  1.7631
 1764SOL     OW17270   1.009  10.451   2.757  0.0648  0.6393  0.6228
 1764SOL    HW117271   1.089  10.501   2.775  0.6583 -0.2893  0.6955
 1764SOL    HW217272   0.956  10.508   2.703  1.3343  0.8233 -0.4828
 1765SOL     OW17273   0.023  11.702  12.306 -0.0757 -0.1493 -0.5652
 1765SOL    HW117274  -0.012  11.790  12.315 -0.0181 -0.2899  1.5803
 1765SOL    HW217275   0.041  11.692  12.212  0.7517  2.4031 -0.7433
 1766SOL     OW17276   2.661  11.006   6.998  0.7629  0.2748 -0.5032
 1766SOL    HW117277   2.595  10.953   7.042  0.0296  1.0336 -0.6788
 1766SOL    HW217278   2.730  10.943   6.976  0.0676 -0.5450 -0.4117
 1767SOL     OW17279   8.189  10.266   2.591 -0.2041  0.7148 -0.8435
 1767SOL    HW117280   8.096  10.282   2.602 -0.4142 -0.9045  0.0269
 1767SOL    HW217281   8.220  10.341   2.540 -1.8730  1.5175 -0.7592
 1768SOL     OW17282   8.098  13.787   3.324 -0.4916  0.3283 -0.1865
 1768SOL    HW117283   8.041  13.758   3.253  0.8694 -1.2380 -0.6935
 1768SOL    HW217284   8.070  13.736   3.400 -0.8080  0.7506 -0.0120
 1769SOL     OW17285  12.209   8.286  13.821  0.0401  0.3746  0.1883
 1769SOL    HW117286  12.278   8.323  13.766 -1.3465  0.2926 -1.7173
 1769SOL    HW217287  12.172   8.216  13.767 -1.2889  0.1847  1.3135
 1770SOL     OW17288   5.343   9.019  12.694 -0.2267  0.1046  0.0212
 1770SOL    HW117289   5.362   9.105  12.654 -0.8254 -0.1505 -0.8614
 1770SOL    HW217290   5.337   8.960  12.619 -3.2789 -0.0531  0.2414
 1771SOL     OW17291   7.386   5.604   0.471 -0.2205  0.1455 -0.4785
 1771SOL    HW117292   7.353   5.624   0.558  1.3726 -0.9536  0.4249
 1771SOL    HW217293   7.432   5.684   0.445 -1.9124  1.0088 -0.9780
 1772SOL     OW17294   8.763   7.149  11.618  0.2386  0.0554 -0.2446
 1772SOL    HW117295   8.850   7.121  11.590  0.9697  1.6597  0.3374
 1772SOL    HW217296   8.761   7.242  11.599 -0.9988  0.2290  0.6612
 1773SOL     OW17297  11.270   0.528   9.652  0.3902  0.3578  0.4322
 1773SOL    HW117298  11.289   0.465   9.722  0.4867  0.4271  0.4701
 1773SOL    HW217299  11.186   0.500   9.616  1.3907 -1.0758 -0.9704
 1774SOL     OW17300  10.604   1.757   1.802  0.1504  0.1281  0.2545
 1774SOL    HW117301  10.561   1.711   1.730 -0.6310 -0.7244  1.2287
 1774SOL    HW217302  10.674   1.806   1.761 -0.3448 -0.2554 -1.0984
 1775SOL     OW17303   3.823   2.826  10.265 -0.0953 -0.3889  0.0029
 1775SOL    HW117304   3.873   2.874  10.199 -0.2174 -1.3319 -0.7931
 1775SOL    HW217305   3.762   2.772  10.215 -0.7355 -0.5415  0.9124
 1776SOL     OW17306   1.053   2.698  11.976 -0.1042  0.2996 -0.0822
 1776SOL    HW117307   0.988   2.725  12.041  0.5775  0.2621  0.6207
 1776SOL    HW217308   1.058   2.603  11.986 -2.0714 -0.1345 -2.1534
 1777SOL     OW17309   8.730   6.246   7.086 -0.0308  0.0047  0.6009
 1777SOL    HW117310   8.671   6.170   7.082 -0.3297  0.2124  0.9582
 1777SOL    HW217311   8.691   6.303   7.153  0.4621  0.2446  0.6872
 1778SOL     OW17312   8.758   2.045   9.878  0.8869 -0.2618 -0.6773
 1778SOL    HW117313   8.848   2.062   9.849  1.1616 -1.5751 -0.6469
 1778SOL    HW217314   8.707   2.118   9.843  2.1739  1.2175  0.3907
 1779SOL     OW17315   4.585  11.300   6.869  0.0323  0.4573 -0.1430
 1779SOL    HW117316   4.549  11.389   6.861  1.8358  1.2462  0.0613
 1779SOL    HW217317   4.549  11.253   6.794 -2.0728  0.9208  0.5029
 1780SOL     OW17318   9.573   4.211  11.559  0.5427 -0.0334 -0.5137
 1780SOL    HW117319   9.508   4.221  11.490  0.8736 -0.8367 -0.9670
 1780SOL    HW217320   9.654   4.246  11.521  0.2913  1.3873  0.2118
 1781SOL     OW17321   3.898   7.678   7.258  0.2034  0.2426  0.8000
 1781SOL    HW117322   3.927   7.624   7.332  3.5877  1.2394  0.4078
 1781SOL    HW217323   3.885   7.616   7.187  0.4705 -0.3967  1.2984
 1782SOL     OW17324  13.530   8.298   9.472 -0.3429 -0.2975 -0.2692
 1782SOL    HW117325  13.575   8.380   9.448  0.3730 -0.8563 -0.8941
 1782SOL    HW217326  13.454   8.326   9.522  0.7091  0.6928  0.8360
 1783SOL     OW17327   1.741  12.144  13.227 -0.1539  0.2826 -0.2552
 1783SOL    HW117328   1.714  12.210  13.290 -0.8124 -1.3156  1.2226
 1783SOL    HW217329   1.825  12.175  13.193 -0.5553  1.9513  0.2239
 1784SOL     OW17330  10.625   5.408   1.607  0.1010 -0.3124  0.3610
 1784SOL    HW117331  10.591   5.441   1.524  0.1532  2.0782  1.2188
 1784SOL    HW217332  10.556   5.350   1.640  0.0817 -1.3143 -1.2942
 1785SOL     OW17333   4.034   9.728   2.744  0.1709  0.3099 -0.7846
 1785SOL    HW117334   3.962   9.705   2.685 -0.7892 -0.4386  0.6238
 1785SOL    HW217335   4.039   9.824   2.740 -1.3190  0.4229 -0.4529
 1786SOL     OW17336   6.883  11.215   0.379  0.4791  0.0797  0.2207
 1786SOL    HW117337   6.813  11.194   0.317  0.2780 -1.8988  1.0267
 1786SOL    HW217338   6.964  11.207   0.328  0.1901  1.6116 -0.5239
 1787SOL     OW17339  11.726   1.956  10.733  0.1525  0.4808 -0.0006
 1787SOL    HW117340  11.686   2.007  10.802 -1.4148 -0.7312  0.0308
 1787SOL    HW217341  11.777   1.889  10.778 -0.9075 -0.3388  0.0090
 1788SOL     OW17342   4.492   3.799   3.349 -0.0534  0.1954 -0.0381
 1788SOL    HW117343   4.450   3.725   3.305  0.3935 -0.5697  0.8099
 1788SOL    HW217344   4.546   3.760   3.417  0.1338  1.3085  0.4754
 1789SOL     OW17345  10.164   2.181  10.576 -0.7134  0.3450 -0.9351
 1789SOL    HW117346  10.237   2.138  10.620  0.0176  1.3266 -1.1740
 1789SOL    HW217347  10.160   2.268  10.614 -0.7411  0.8508 -2.0494
 1790SOL     OW17348   3.460   3.154  10.974  0.4093 -0.0588 -0.2632
 1790SOL    HW117349   3.464   3.221  10.906  0.4794  0.7006  0.4690
 1790SOL    HW217350   3.537   3.171  11.029 -0.0527 -0.1858  0.4376
 1791SOL     OW17351  11.031   9.586   3.387 -0.0594 -0.8459  0.4298
 1791SOL    HW117352  10.942   9.621   3.380  0.1084 -0.4700  0.1550
 1791SOL    HW217353  11.053   9.594   3.479 -0.3193 -0.9578  0.5019
 1792SOL     OW17354   3.457   9.429  12.263 -0.0148 -0.3228  0.0741
 1792SOL    HW117355   3.442   9.342  12.226 -0.3494 -0.3184  0.2018
 1792SOL    HW217356   3.533   9.462  12.215  0.0200 -0.6226 -0.0821
 1793SOL     OW17357  10.761  12.085   3.439 -0.2913  0.1878 -0.0587
 1793SOL    HW117358  10.700  12.097   3.366  0.6526  0.6435 -0.8132
 1793SOL    HW217359  10.718  12.024   3.498  0.0265 -2.4787 -2.3825
 1794SOL     OW17360  13.920   3.062   8.052  0.4549 -0.6526 -0.2999
 1794SOL    HW117361  13.833   3.061   8.012  0.2737  1.1661 -0.0623
 1794SOL    HW217362  13.923   2.985   8.108 -2.1693  0.7542  2.0241
 1795SOL     OW17363  10.587   8.331   1.539 -0.1601  0.3603 -0.1071
 1795SOL    HW117364  10.680   8.351   1.538 -0.4267  1.9480  1.5015
 1795SOL    HW217365  10.551   8.383   1.467 -0.0707  1.4001  0.5844
 1796SOL     OW17366   3.404  12.227  12.961  0.0969 -0.5034 -0.2676
 1796SOL    HW117367   3.369  12.155  13.013  1.1181  0.8815  2.5062
 1796SOL    HW217368   3.486  12.193  12.925 -0.0297 -1.1049 -0.0052
 1797SOL     OW17369  12.965  10.650   1.198 -0.0773  0.5505  0.4297
 1797SOL    HW117370  13.005  10.575   1.155  1.0283  0.1512  2.0600
 1797SOL    HW217371  12.872  10.644   1.175  0.0417 -1.1224  0.2607
 1798SOL     OW17372  13.853   2.898   7.259 -0.2759 -0.5148  0.7117
 1798SOL    HW117373  13.871   2.842   7.184 -0.4894  0.3171  0.0174
 1798SOL    HW217374  13.939   2.928   7.288 -0.2381 -0.2731  0.3504
 1799SOL     OW17375   5.899   1.081   2.777 -0.3521 -0.1741 -0.5490
 1799SOL    HW117376   5.909   1.018   2.848 -1.4169 -0.5909 -0.7521
 1799SOL    HW217377   5.931   1.035   2.699  1.8898  0.6687 -0.2071
 1800SOL     OW17378   6.952   7.883  10.116 -0.1704 -0.2033  0.2421
 1800SOL    HW117379   7.012   7.909  10.186 -0.0091 -1.0626  0.4359
 1800SOL    HW217380   6.931   7.791  10.135 -1.8732  0.1908  0.4156
 1801SOL     OW17381   1.664   6.852  12.783 -0.7955  0.1429  0.1004
 1801SOL    HW117382   1.638   6.826  12.695 -1.0603  0.1188  0.1838
 1801SOL    HW217383   1.760   6.854  12.781 -0.7955 -0.0746 -0.1239
 1802SOL     OW17384  11.089   9.207   7.879  0.4017 -0.3311  0.1992
 1802SOL    HW117385  11.077   9.150   7.803 -1.3647 -2.0480  1.6644
 1802SOL    HW217386  11.016   9.269   7.873 -0.3524 -1.1184  1.0005
 1803SOL     OW17387  11.599  13.590   2.178  0.7394 -0.3779  0.6633
 1803SOL    HW117388  11.594  13.509   2.128  0.0461  0.1215 -0.1065
 1803SOL    HW217389  11.693  13.608   2.186  0.8893  0.3428 -1.8534
 1804SOL     OW17390   9.754   7.117   9.819 -0.1038  0.1390 -0.1263
 1804SOL    HW117391   9.834   7.168   9.825 -0.5609  0.6775  2.5631
 1804SOL    HW217392   9.701   7.146   9.893 -3.2053  0.4267 -2.2508
 1805SOL     OW17393  12.034  12.927   0.192 -0.1529  0.1154 -0.2255
 1805SOL    HW117394  11.986  12.844   0.187  0.9499 -0.5822  0.4270
 1805SOL    HW217395  11.985  12.986   0.135 -2.9793  0.0391  1.8678
 1806SOL     OW17396   6.994  13.602  11.638 -0.2917 -0.5945 -0.5552
 1806SOL    HW117397   6.952  13.530  11.590 -0.8403 -0.9580  0.4341
 1806SOL    HW217398   7.030  13.659  11.570 -0.7255 -1.2833 -1.3796
 1807SOL     OW17399   7.035   7.149  11.519 -0.2417 -0.2074  0.4475
 1807SOL    HW117400   7.024   7.121  11.610 -1.5084  1.6638  0.9166
 1807SOL    HW217401   6.968   7.102  11.470 -2.8086  2.2248  1.3376
 1808SOL     OW17402   8.891   8.282   8.555  0.3421  0.0834  0.6451
 1808SOL    HW117403   8.818   8.234   8.595 -0.3623  1.0925  0.6192
 1808SOL    HW217404   8.956   8.290   8.625  2.2607 -4.2266 -0.3437
 1809SOL     OW17405   0.009   5.472  12.527  0.0634  0.0241 -0.1035
 1809SOL    HW117406   0.099   5.443  12.542 -0.3949 -1.4967 -0.1109
 1809SOL    HW217407  -0.021   5.502  12.612 -1.2729 -4.9854  1.5643
 1810SOL     OW17408   6.658   0.827  11.087 -0.2814 -0.1013  0.2083
 1810SOL    HW117409   6.585   0.811  11.027 -2.2028  0.1267  2.3716
 1810SOL    HW217410   6.625   0.803  11.173  2.1292  0.2709  1.3320
 1811SOL     OW17411  11.620  10.030   3.694  0.2847  0.1571 -0.2303
 1811SOL    HW117412  11.529  10.014   3.719  0.9310 -0.3563  2.0167
 1811SOL    HW217413  11.670  10.018   3.775  2.3720  0.3826 -1.4040
 1812SOL     OW17414   6.540  12.845   9.365  0.1180 -0.1511  0.1719
 1812SOL    HW117415   6.621  12.794   9.373 -0.2676 -0.6739  0.8460
 1812SOL    HW217416   6.527  12.853   9.270 -0.0283 -1.6957  0.0301
 1813SOL     OW17417  10.298   6.279  12.123  0.0668 -0.0032 -0.2341
 1813SOL    HW117418  10.249   6.359  12.104  1.1171  0.0932 -3.0904
 1813SOL    HW217419  10.386   6.297  12.088  0.8042 -1.8356  0.5574
 1814SOL     OW17420  10.827   4.107   2.824 -0.4137 -0.0774 -0.1785
 1814SOL    HW117421  10.775   4.083   2.900  1.0058  1.3805  1.3428
 1814SOL    HW217422  10.880   4.181   2.854  0.6656  0.1264 -2.3997
 1815SOL     OW17423  11.381   3.810   5.762 -0.4946 -0.1908  0.0933
 1815SOL    HW117424  11.475   3.808   5.742 -0.4038  0.9878  0.2915
 1815SOL    HW217425  11.374   3.770   5.848  0.1216  1.4873  0.9825
 1816SOL     OW17426  11.432   2.856   7.710 -0.1174 -0.0615  0.2078
 1816SOL    HW117427  11.524   2.838   7.728  0.6814 -0.0074 -3.0762
 1816SOL    HW217428  11.418   2.945   7.743  1.1667  0.1226  0.3011
 1817SOL     OW17429   7.391  12.850  12.409  0.1194  0.7598  0.1888
 1817SOL    HW117430   7.483  12.855  12.435 -0.4333  0.4305  2.4302
 1817SOL    HW217431   7.354  12.935  12.434 -0.2922  0.7087 -0.2356
 1818SOL     OW17432   7.694   9.756  12.048  0.0467  0.0837 -0.2358
 1818SOL    HW117433   7.693   9.749  12.144  0.6683  1.6769 -0.0857
 1818SOL    HW217434   7.616   9.807  12.026  0.1181  0.0605 -0.5451
 1819SOL     OW17435   4.475   3.171   9.037 -0.3805  0.2874 -0.4916
 1819SOL    HW117436   4.463   3.259   9.072  0.7120  0.2217  0.0916
 1819SOL    HW217437   4.548   3.135   9.087 -1.4204 -1.3079 -0.0893
 1820SOL     OW17438   2.205   3.700   5.660 -0.3361 -0.5775  0.3031
 1820SOL    HW117439   2.118   3.677   5.627  0.4906 -2.1169 -0.9389
 1820SOL    HW217440   2.197   3.791   5.689 -2.4667 -0.8312  0.6541
 1821SOL     OW17441   7.440   8.089   9.461  0.2744  0.4006  0.1172
 1821SOL    HW117442   7.418   8.139   9.539  1.3698 -0.6859  1.1632
 1821SOL    HW217443   7.513   8.034   9.487  0.1821 -0.5495 -1.4670
 1822SOL     OW17444   0.212  11.405   1.502  0.0025  0.0819 -0.5256
 1822SOL    HW117445   0.222  11.394   1.596  3.6272 -0.0613 -0.7936
 1822SOL    HW217446   0.188  11.497   1.490 -0.6992  0.0447  0.4962
 1823SOL     OW17447   8.412  12.352   8.060  0.6065 -0.5893 -0.4054
 1823SOL    HW117448   8.460  12.434   8.071  0.6119 -0.5960 -0.3762
 1823SOL    HW217449   8.466  12.287   8.104 -0.3340 -0.2803  1.3028
 1824SOL     OW17450   8.769   8.193   4.004  0.1381  0.5452  0.4031
 1824SOL    HW117451   8.772   8.113   4.057 -1.5891  0.3243  0.2380
 1824SOL    HW217452   8.789   8.264   4.065 -1.1520  0.2275  1.2485
 1825SOL     OW17453   3.127  11.265   8.874 -0.2984  0.0378 -0.3332
 1825SOL    HW117454   3.089  11.220   8.949 -0.9361 -0.9184 -1.1898
 1825SOL    HW217455   3.210  11.219   8.858  1.1237  1.8682  1.2912
 1826SOL     OW17456   6.209   7.629   8.717 -0.6586 -0.2447 -0.2753
 1826SOL    HW117457   6.132   7.654   8.768 -0.7715 -0.2925 -0.4198
 1826SOL    HW217458   6.175   7.567   8.652 -0.7181  0.6440 -1.1219
 1827SOL     OW17459   9.817   1.709   0.226 -0.9548 -0.3625 -0.0602
 1827SOL    HW117460   9.749   1.750   0.172 -0.3814  0.6417 -0.0387
 1827SOL    HW217461   9.770   1.674   0.302 -1.4724  0.1525 -0.1402
 1828SOL     OW17462   0.175  11.701   9.169  0.7416 -0.0714 -0.0255
 1828SOL    HW117463   0.125  11.779   9.145  0.9922  0.9112  2.3746
 1828SOL    HW217464   0.263  11.733   9.185  0.8878 -0.8493  0.8411
 1829SOL     OW17465  12.676   7.278  12.502 -0.1431  0.0591 -0.0844
 1829SOL    HW117466  12.620   7.289  12.579  1.2794  1.0133  0.8548
 1829SOL    HW217467  12.694   7.184  12.498 -0.6412 -0.0619  0.4390
 1830SOL     OW17468   3.940   0.752   3.299  0.2674 -0.4793 -0.5667
 1830SOL    HW117469   3.880   0.747   3.374  0.0223 -0.3221 -0.7520
 1830SOL    HW217470   3.927   0.669   3.253 -0.4766 -0.0718 -1.1119
 1831SOL     OW17471   5.025   1.108  13.427  0.6137 -0.5318  0.0682
 1831SOL    HW117472   5.099   1.133  13.482  0.9252 -0.0620 -0.5566
 1831SOL    HW217473   5.062   1.097  13.340 -0.1697  0.4784 -0.4176
 1832SOL     OW17474   0.556  11.555   3.116 -0.1539  0.4758  0.0547
 1832SOL    HW117475   0.637  11.569   3.067 -0.2289  1.0014  0.0720
 1832SOL    HW217476   0.556  11.624   3.183 -0.0157 -0.2869  0.8494
 1833SOL     OW17477  10.986   5.457  13.868  0.1274  0.2700 -0.6117
 1833SOL    HW117478  10.893   5.451  13.844 -0.3951  1.6300  0.8822
 1833SOL    HW217479  11.016   5.367  13.873 -1.3124 -0.2200 -0.4015
 1834SOL     OW17480  11.607  13.395   7.121 -0.2872 -0.3639 -0.7343
 1834SOL    HW117481  11.675  13.350   7.070 -1.5455 -1.2114 -1.7251
 1834SOL    HW217482  11.548  13.325   7.149 -0.8560  0.3810 -0.0255
 1835SOL     OW17483   4.320   3.534   3.695  0.3782  0.4781 -0.7344
 1835SOL    HW117484   4.357   3.466   3.751 -0.6012  0.1140 -0.5240
 1835SOL    HW217485   4.364   3.522   3.610  1.7865  0.9645 -0.1010
 1836SOL     OW17486  10.585  11.936  11.862 -0.0864 -0.5756 -0.2954
 1836SOL    HW117487  10.533  11.857  11.870  0.0741 -0.7281 -0.7137
 1836SOL    HW217488  10.522  12.003  11.834  0.0771 -0.9465 -1.6138
 1837SOL     OW17489   9.873  12.327   5.449  0.1526 -0.1517 -0.6632
 1837SOL    HW117490   9.851  12.283   5.530 -0.7244 -1.5871 -1.6452
 1837SOL    HW217491   9.966  12.307   5.435  0.8641  1.7448  0.9340
 1838SOL     OW17492  11.919  12.117   1.533  0.0829 -0.5371 -0.2894
 1838SOL    HW117493  11.946  12.068   1.611 -0.0912  0.3658  0.3604
 1838SOL    HW217494  11.844  12.068   1.499 -1.6312  0.5242  1.7327
 1839SOL     OW17495   4.215   7.054  13.281  0.3736 -0.0163  0.2387
 1839SOL    HW117496   4.253   7.119  13.341  0.5391 -1.2374  1.4903
 1839SOL    HW217497   4.221   7.096  13.195  1.9163  1.0138  0.7919
 1840SOL     OW17498   8.132   4.065  12.038  0.0292 -0.6168 -0.1242
 1840SOL    HW117499   8.041   4.048  12.061 -0.1211 -0.3661 -0.5288
 1840SOL    HW217500   8.161   4.131  12.102 -0.4105  0.1379 -0.6948
 1841SOL     OW17501   7.878   6.277  13.150 -0.3628  0.0342 -0.0399
 1841SOL    HW117502   7.927   6.344  13.103  1.7453 -1.4742 -0.1601
 1841SOL    HW217503   7.867   6.313  13.238 -0.0191  0.8797 -0.3290
 1842SOL     OW17504  13.180   9.815  13.772 -0.0277  0.2341  0.5620
 1842SOL    HW117505  13.269   9.844  13.756 -0.6202  0.9072 -1.9715
 1842SOL    HW217506  13.142   9.885  13.827  0.9116  0.0028  1.5494
 1843SOL     OW17507   0.904   4.048   3.878 -0.2639  0.0010 -0.2531
 1843SOL    HW117508   0.954   3.984   3.827  2.6170  3.1093 -1.7551
 1843SOL    HW217509   0.852   4.095   3.813 -1.2644  0.1147  0.6103
 1844SOL     OW17510   1.144   7.782  10.172 -0.0932 -0.4241 -0.2511
 1844SOL    HW117511   1.089   7.847  10.128  0.4996 -1.2491 -2.3353
 1844SOL    HW217512   1.190   7.738  10.101  0.9914 -1.8053  1.2400
 1845SOL     OW17513   8.422  13.665   1.872 -0.2797 -0.8419  0.5021
 1845SOL    HW117514   8.360  13.717   1.822  0.9723 -0.3228 -0.5683
 1845SOL    HW217515   8.473  13.730   1.921  0.0947 -1.1802  0.5663
 1846SOL     OW17516  12.573   5.555   2.184  0.2165  0.1277 -0.3048
 1846SOL    HW117517  12.540   5.485   2.128 -0.3458  0.2214 -0.1016
 1846SOL    HW217518  12.656   5.521   2.219 -1.0541 -1.3759  1.4930
 1847SOL     OW17519   3.281  12.243   6.526  0.4076  0.5117  1.1633
 1847SOL    HW117520   3.340  12.299   6.474  0.1793  0.8466  1.2595
 1847SOL    HW217521   3.326  12.159   6.529 -0.9391 -0.4975 -2.1456
 1848SOL     OW17522  11.652   8.985   2.414 -0.2869  0.2625 -0.0534
 1848SOL    HW117523  11.697   8.941   2.487 -1.3009  0.0009  0.4329
 1848SOL    HW217524  11.610   9.060   2.454  0.4722  1.0357 -0.6791
 1849SOL     OW17525  10.828   9.308   1.893  0.7323 -0.0627 -0.3198
 1849SOL    HW117526  10.781   9.275   1.969  0.5218 -0.3533 -0.5726
 1849SOL    HW217527  10.764   9.308   1.822 -0.6809  5.2664  0.6026
 1850SOL     OW17528   3.643  11.125   5.209  0.1008  0.2233 -0.6815
 1850SOL    HW117529   3.565  11.114   5.155 -1.3227 -0.4947  1.3996
 1850SOL    HW217530   3.624  11.077   5.290  1.9008  1.6367  0.6828
 1851SOL     OW17531   3.457   6.599   6.029  0.3131 -0.2505  0.3697
 1851SOL    HW117532   3.368   6.577   6.058 -0.1946 -1.0289 -1.6099
 1851SOL    HW217533   3.474   6.686   6.066 -0.1839 -1.2031  3.0094
 1852SOL     OW17534   7.671   2.092  12.554 -0.3242  0.2369  0.2062
 1852SOL    HW117535   7.594   2.131  12.597  0.4643  0.3814  1.5377
 1852SOL    HW217536   7.745   2.142  12.589  0.2543  1.5084 -2.6224
 1853SOL     OW17537  12.067   2.942  13.901 -0.7707 -0.0190  0.4075
 1853SOL    HW117538  12.158   2.954  13.925 -0.2027  1.7246 -2.2274
 1853SOL    HW217539  12.018   2.994  13.966  0.2965  0.9716  0.4486
 1854SOL     OW17540   4.170  11.095   3.088  0.3621  0.2694  0.5583
 1854SOL    HW117541   4.262  11.116   3.071  0.2927  0.6869  0.6901
 1854SOL    HW217542   4.173  11.010   3.131  0.5862 -0.4099 -0.7583
 1855SOL     OW17543   1.050   0.488   2.118  0.0491 -0.3850  0.6269
 1855SOL    HW117544   1.013   0.413   2.166  0.5856 -0.7150  0.5357
 1855SOL    HW217545   1.072   0.453   2.032  0.2958 -0.1190  0.5797
 1856SOL     OW17546  10.567   6.827  13.460  0.2718 -0.6510 -0.4403
 1856SOL    HW117547  10.561   6.840  13.555  0.3861 -0.1060 -0.5020
 1856SOL    HW217548  10.600   6.910  13.427  0.0508 -0.7739 -0.9800
 1857SOL     OW17549   9.065   0.046   2.159  0.1898  0.6706 -0.4048
 1857SOL    HW117550   9.146   0.047   2.107  0.2877  1.0142 -0.2456
 1857SOL    HW217551   9.044   0.138   2.174 -1.7617  0.7154 -2.7993
 1858SOL     OW17552  10.596   6.813   1.856 -0.1356 -0.0234 -0.6443
 1858SOL    HW117553  10.646   6.777   1.782  0.5858 -1.7216  0.6038
 1858SOL    HW217554  10.658   6.869   1.902  0.5280 -1.7127  0.6030
 1859SOL     OW17555   9.199  10.273   6.861  0.0504 -0.6202 -1.0663
 1859SOL    HW117556   9.147  10.335   6.810  1.4556 -0.0164 -1.8208
 1859SOL    HW217557   9.175  10.290   6.952  2.0021  2.6791 -1.0206
 1860SOL     OW17558   5.267  13.048  10.993 -0.1307 -0.8144  0.3664
 1860SOL    HW117559   5.199  13.055  11.059 -0.3437 -1.7101  0.2583
 1860SOL    HW217560   5.346  13.080  11.036 -0.4404 -0.6006  0.7791
 1861SOL     OW17561   4.844   5.233   5.774 -0.0393  0.2106 -0.5525
 1861SOL    HW117562   4.918   5.174   5.789 -0.0051 -0.1812 -2.0993
 1861SOL    HW217563   4.845   5.249   5.680 -0.5680  2.0325 -0.2858
 1862SOL     OW17564  10.264  12.526  13.594  0.0119  0.3796 -0.1716
 1862SOL    HW117565  10.262  12.561  13.683  0.5683  0.1542 -0.0684
 1862SOL    HW217566  10.186  12.564  13.552 -0.4606  0.1994  0.5174
 1863SOL     OW17567   5.560  10.554   5.148  0.1127 -0.1270  0.2104
 1863SOL    HW117568   5.516  10.635   5.176  0.5572  0.1616  0.0982
 1863SOL    HW217569   5.624  10.584   5.084 -0.2264 -0.6689 -0.3848
 1864SOL     OW17570   2.261   5.211   5.989 -0.4314  0.0958  0.5199
 1864SOL    HW117571   2.280   5.121   5.964 -0.6339 -0.2822  1.6656
 1864SOL    HW217572   2.338   5.261   5.960 -0.6024 -0.3276 -0.6932
 1865SOL     OW17573  10.315   6.264   5.546 -0.6327 -0.1693 -0.4277
 1865SOL    HW117574  10.405   6.243   5.571 -0.7222 -1.6956 -1.2699
 1865SOL    HW217575  10.264   6.245   5.624 -0.3389 -0.2112 -0.2439
 1866SOL     OW17576   3.716   7.518   8.814  0.5319 -0.1977 -0.5998
 1866SOL    HW117577   3.736   7.425   8.802  2.6197  0.1334  0.0266
 1866SOL    HW217578   3.758   7.561   8.739  0.2437  0.3181 -0.4679
 1867SOL     OW17579   5.066   6.938   2.079 -0.2888 -0.3080 -0.1030
 1867SOL    HW117580   5.023   6.992   2.013  0.3982  0.2304 -0.1257
 1867SOL    HW217581   5.117   6.874   2.029  0.7480  0.5099 -0.1212
 1868SOL     OW17582  11.112   1.735   4.590  0.1416  0.2333 -0.4837
 1868SOL    HW117583  11.183   1.799   4.593 -0.1857  0.7006 -2.0156
 1868SOL    HW217584  11.072   1.741   4.677  2.7760 -1.0617  0.9413
 1869SOL     OW17585   6.695   4.113   6.762 -0.1752  0.8933  1.0614
 1869SOL    HW117586   6.760   4.095   6.830  1.4615 -1.3136 -0.8728
 1869SOL    HW217587   6.742   4.098   6.680 -2.4102  2.0684 -0.5514
 1870SOL     OW17588   4.206   6.241   8.907  0.5221 -0.2020  0.2459
 1870SOL    HW117589   4.280   6.182   8.898 -0.4561 -1.5452  0.5968
 1870SOL    HW217590   4.205   6.291   8.825 -0.3193 -2.7746 -1.4798
 1871SOL     OW17591   7.259   8.456   6.610  0.7579 -0.4803  0.2887
 1871SOL    HW117592   7.167   8.483   6.601  0.4762  0.7522  4.4227
 1871SOL    HW217593   7.257   8.385   6.674  2.6724 -0.2299  0.6995
 1872SOL     OW17594   9.424  13.008   1.176  0.5120  0.2136  0.3077
 1872SOL    HW117595   9.394  12.982   1.089  0.1029 -0.8582  0.7458
 1872SOL    HW217596   9.513  12.973   1.182  0.9991  1.3445 -0.1178
 1873SOL     OW17597   1.898   9.956   8.531  0.0332  0.1687 -0.0615
 1873SOL    HW117598   1.971   9.998   8.577  1.0800  0.2527 -1.7161
 1873SOL    HW217599   1.844  10.028   8.500  0.1786  0.1717 -0.3062
 1874SOL     OW17600   9.405  10.106   8.023 -0.1416 -0.2837 -0.6676
 1874SOL    HW117601   9.398  10.013   8.042 -0.7009 -0.0132  0.5882
 1874SOL    HW217602   9.499  10.124   8.022 -0.0123 -0.2960  2.3545
 1875SOL     OW17603   1.516  10.272  11.299 -0.0999 -0.2839  0.3584
 1875SOL    HW117604   1.574  10.290  11.225  0.5610  0.4377  1.0345
 1875SOL    HW217605   1.450  10.213  11.264  0.1172  0.1611 -0.8481
 1876SOL     OW17606   2.692   4.981  11.284  0.1037 -0.2126 -0.3754
 1876SOL    HW117607   2.619   5.031  11.321  0.0324 -1.0436  0.6407
 1876SOL    HW217608   2.724   5.036  11.212 -1.7142  0.0283 -1.0600
 1877SOL     OW17609   5.895   0.546   3.333 -0.1212 -0.4884  0.6950
 1877SOL    HW117610   5.848   0.489   3.273 -0.7750  0.9084 -0.1596
 1877SOL    HW217611   5.918   0.489   3.407 -0.6118 -1.8726 -0.1812
 1878SOL     OW17612   0.317   6.717  13.421  0.0202  0.0068 -0.2959
 1878SOL    HW117613   0.311   6.797  13.370 -1.3424  0.4709  0.5387
 1878SOL    HW217614   0.351   6.652  13.360  0.6380  1.0850 -1.1330
 1879SOL     OW17615   1.263  12.868   7.925  0.1279 -0.3345  0.1992
 1879SOL    HW117616   1.322  12.798   7.953 -0.0498 -0.3825  0.4603
 1879SOL    HW217617   1.321  12.937   7.892  0.3130 -0.5158  0.1432
 1880SOL     OW17618  10.854   3.550   3.362  0.6538  0.0310 -0.6677
 1880SOL    HW117619  10.785   3.583   3.419 -1.1254  0.1932 -2.8007
 1880SOL    HW217620  10.892   3.477   3.410  0.2231  1.0469  1.3204
 1881SOL     OW17621   3.123   3.213  13.348  0.3799  0.5047  0.2702
 1881SOL    HW117622   3.092   3.267  13.421 -0.0133 -1.3761  1.5668
 1881SOL    HW217623   3.123   3.124  13.382  2.9052 -0.1383 -1.1440
 1882SOL     OW17624   3.494   6.868   4.680 -0.6067  0.6948  0.1758
 1882SOL    HW117625   3.430   6.875   4.609  0.0981  0.6420 -0.4791
 1882SOL    HW217626   3.465   6.791   4.729  0.5686 -1.1559 -1.8259
 1883SOL     OW17627   5.290  12.862   8.003 -0.0706  0.3939  0.6701
 1883SOL    HW117628   5.285  12.919   8.080 -0.3507  2.0570 -0.5144
 1883SOL    HW217629   5.200  12.833   7.989 -0.7285  2.8703 -0.9383
 1884SOL     OW17630   4.211   0.498  10.555 -0.1934  0.3029 -0.1361
 1884SOL    HW117631   4.262   0.566  10.600 -2.6867  0.7313  2.2535
 1884SOL    HW217632   4.174   0.544  10.479  1.9361  0.2574 -1.2997
 1885SOL     OW17633   5.232  13.098   6.125 -0.1790 -0.0259 -0.0203
 1885SOL    HW117634   5.185  13.036   6.180  1.1576 -1.2739 -0.1959
 1885SOL    HW217635   5.180  13.178   6.127 -0.4285 -0.1667  2.6406
 1886SOL     OW17636  11.665   8.712  10.432  1.2541  0.0179 -0.0500
 1886SOL    HW117637  11.686   8.719  10.526 -0.5815 -1.1561  0.4990
 1886SOL    HW217638  11.716   8.638  10.401  0.5459 -0.7064  0.4677
 1887SOL     OW17639   0.072  10.438   0.812  0.2638  0.5000  0.4810
 1887SOL    HW117640   0.056  10.346   0.790 -0.0747 -0.0407  2.7374
 1887SOL    HW217641  -0.004  10.464   0.865  0.7096  1.8519  0.4913
 1888SOL     OW17642  11.186   8.595  11.814 -0.4566 -0.5388  0.0491
 1888SOL    HW117643  11.141   8.513  11.835 -0.4553 -0.6926 -0.5182
 1888SOL    HW217644  11.279   8.575  11.827 -0.5567 -0.0628  1.7501
 1889SOL     OW17645  11.858  13.042   1.898 -0.7714  0.0852 -0.0536
 1889SOL    HW117646  11.831  12.976   1.961  0.0187  0.9029  1.1957
 1889SOL    HW217647  11.862  12.996   1.814 -1.9043 -1.0133  0.4607
 1890SOL     OW17648   5.556  11.315   8.680  0.1810  0.0930  0.0351
 1890SOL    HW117649   5.531  11.319   8.773  0.6984  1.0406  0.1443
 1890SOL    HW217650   5.510  11.389   8.640  0.2468 -0.0986 -0.3952
 1891SOL     OW17651  10.034   4.654   1.035 -0.0422  0.0648  0.2327
 1891SOL    HW117652  10.072   4.721   0.977  0.3889  0.2563  0.7371
 1891SOL    HW217653   9.970   4.703   1.088  0.6762  0.2003  0.9960
 1892SOL     OW17654   6.156   5.288  11.488 -0.5086 -0.4147 -0.1157
 1892SOL    HW117655   6.249   5.272  11.497 -0.3362 -0.0018 -1.0773
 1892SOL    HW217656   6.114   5.218  11.539  0.3094 -0.6749  0.2137
 1893SOL     OW17657  10.346   1.900   5.911  0.1729 -0.4205  0.1300
 1893SOL    HW117658  10.406   1.889   5.985  0.7926 -3.2293 -0.6690
 1893SOL    HW217659  10.400   1.882   5.834 -0.7888  1.0781 -0.9512
 1894SOL     OW17660  10.852   1.079  10.651  0.0135  0.0504 -0.2843
 1894SOL    HW117661  10.854   1.056  10.559 -0.4515  2.4215 -0.9470
 1894SOL    HW217662  10.939   1.058  10.684  0.6027  0.4037 -1.5843
 1895SOL     OW17663   4.197   4.149   8.385 -0.2480 -0.0419  0.5226
 1895SOL    HW117664   4.229   4.083   8.446 -0.6382  0.3488  1.1657
 1895SOL    HW217665   4.267   4.213   8.379  0.3602 -0.7761 -0.5326
 1896SOL     OW17666   0.803   0.025   2.109 -0.0165  0.2480 -0.2465
 1896SOL    HW117667   0.830   0.089   2.174  0.1988 -0.5428  0.4620
 1896SOL    HW217668   0.885  -0.004   2.068  0.0721 -0.7852  0.6089
 1897SOL     OW17669   4.767   7.058   2.671 -0.1380 -0.4949  0.6394
 1897SOL    HW117670   4.724   7.106   2.742  0.6500  0.3660  0.5636
 1897SOL    HW217671   4.696   7.022   2.619 -0.7375 -0.5980  1.5049
 1898SOL     OW17672   7.738   4.849   0.554 -0.3801  0.3024 -0.2851
 1898SOL    HW117673   7.811   4.907   0.535  0.6443 -0.9705 -0.3892
 1898SOL    HW217674   7.713   4.813   0.469  1.0298 -1.7118  0.0840
 1899SOL     OW17675  13.383   0.797   5.886 -0.0555 -0.0258 -0.0411
 1899SOL    HW117676  13.378   0.741   5.963 -1.3145  1.7436  1.2510
 1899SOL    HW217677  13.303   0.778   5.838  0.7480 -1.1574 -0.9788
 1900SOL     OW17678   1.651  11.188   3.907 -0.1581  0.2685  0.0450
 1900SOL    HW117679   1.686  11.099   3.912 -0.6803 -0.2934 -3.3870
 1900SOL    HW217680   1.641  11.216   3.998  2.4728 -2.1600  1.2354
 1901SOL     OW17681   5.369  10.767  11.974 -0.4507 -0.1926  0.6312
 1901SOL    HW117682   5.449  10.715  11.976 -0.1383  0.2781  0.6940
 1901SOL    HW217683   5.316  10.734  12.046  0.1328  0.1736  1.2486
 1902SOL     OW17684   4.850   0.499   6.257  0.1610 -0.3149  0.4795
 1902SOL    HW117685   4.821   0.411   6.235  1.1292 -0.4098 -0.4892
 1902SOL    HW217686   4.853   0.546   6.173  0.9184  0.2464  0.8033
 1903SOL     OW17687   1.971   3.845   3.400  0.4672  0.1456 -0.1056
 1903SOL    HW117688   1.977   3.820   3.308  0.4002  0.7214 -0.2668
 1903SOL    HW217689   1.974   3.941   3.400 -0.5349  0.1870  0.4198
 1904SOL     OW17690   0.617   3.297  13.301 -0.1487  0.2708  0.4957
 1904SOL    HW117691   0.701   3.342  13.287 -0.7578  1.3152  0.0641
 1904SOL    HW217692   0.590   3.324  13.389 -0.5738  0.8663  0.1888
 1905SOL     OW17693   6.114   2.668   2.692 -0.2958  0.4986 -0.1520
 1905SOL    HW117694   6.113   2.668   2.596  1.6213  0.9116 -0.2164
 1905SOL    HW217695   6.033   2.713   2.717  0.0472  2.0412 -1.6410
 1906SOL     OW17696  10.987   5.911   7.249  0.0041 -0.2668  0.4543
 1906SOL    HW117697  10.984   5.817   7.234  1.2102 -0.3318  0.5567
 1906SOL    HW217698  10.932   5.925   7.326  0.0760 -0.9267  0.6293
 1907SOL     OW17699  13.881   9.574  10.717 -0.5357 -0.3208 -0.3022
 1907SOL    HW117700  13.899   9.659  10.756 -0.5846 -0.6949  0.5608
 1907SOL    HW217701  13.878   9.514  10.791 -2.3935 -0.7725 -0.7031
 1908SOL     OW17702   3.286   8.334  12.562  0.2128 -0.4087  0.1623
 1908SOL    HW117703   3.244   8.420  12.568 -1.1983 -1.0680  0.1620
 1908SOL    HW217704   3.227   8.275  12.608  1.3156 -1.3433  0.4242
 1909SOL     OW17705   6.007   7.983   8.806  0.0917 -0.0652 -0.3007
 1909SOL    HW117706   6.100   7.990   8.827  0.2705  0.0575 -1.0927
 1909SOL    HW217707   5.963   8.035   8.873  0.5846 -0.1874  0.1250
 1910SOL     OW17708   1.742  12.319  12.185  0.6250  0.2674  0.0396
 1910SOL    HW117709   1.663  12.286  12.142 -0.1469 -0.4306  1.8945
 1910SOL    HW217710   1.814  12.285  12.133 -0.2587 -0.6844 -0.5996
 1911SOL     OW17711   2.586   9.414  13.465  0.6377 -0.5192  0.1380
 1911SOL    HW117712   2.534   9.447  13.538  1.4253 -0.7088  0.7986
 1911SOL    HW217713   2.521   9.381  13.402 -0.1517  1.6223 -0.2519
 1912SOL     OW17714  11.470   8.136   5.782 -0.4409  0.9399  0.3602
 1912SOL    HW117715  11.544   8.190   5.811  0.6724 -1.2019  1.7091
 1912SOL    HW217716  11.489   8.117   5.690  1.2989 -0.4480  0.9574
 1913SOL     OW17717   8.015  11.980  13.558 -0.0440 -0.1740 -0.2655
 1913SOL    HW117718   8.037  12.071  13.580  0.2155 -0.5525  1.1284
 1913SOL    HW217719   7.966  11.948  13.634 -1.2071 -0.8497 -1.2491
 1914SOL     OW17720  12.662   6.629  12.090  0.5693 -0.3398  0.2114
 1914SOL    HW117721  12.624   6.621  12.003  1.3265  0.2755 -0.1849
 1914SOL    HW217722  12.639   6.717  12.119 -1.2788 -1.1678  1.4315
 1915SOL     OW17723   4.403   2.895   2.828  0.2932  0.2493  0.0940
 1915SOL    HW117724   4.392   2.990   2.833 -4.4877 -0.0833  0.9244
 1915SOL    HW217725   4.346   2.868   2.756 -1.1121 -2.1579  1.9545
 1916SOL     OW17726   2.089  11.108   8.268  0.6756  0.7368 -0.1593
 1916SOL    HW117727   2.180  11.135   8.278  0.4541  0.7282  2.6238
 1916SOL    HW217728   2.061  11.147   8.184  2.8837  1.6636 -0.5185
 1917SOL     OW17729   9.684   0.000   6.964  0.1512  0.1037  0.3124
 1917SOL    HW117730   9.648   0.050   6.891  0.1705  0.9138  0.8403
 1917SOL    HW217731   9.724  -0.077   6.924 -2.0495 -0.7879 -0.3133
 1918SOL     OW17732   9.543   4.634   3.753 -0.0818  0.6909  0.5209
 1918SOL    HW117733   9.494   4.560   3.716  1.1722  0.3474 -0.5114
 1918SOL    HW217734   9.492   4.660   3.829 -1.3392 -0.2915  0.0522
 1919SOL     OW17735  12.857   3.046   3.761  0.6271 -0.0845 -0.5719
 1919SOL    HW117736  12.872   3.082   3.674 -2.7713 -0.5878 -1.4877
 1919SOL    HW217737  12.828   3.120   3.814 -0.3188 -0.3251 -0.7431
 1920SOL     OW17738   7.089   1.460   0.099 -0.5047  0.6654 -0.4071
 1920SOL    HW117739   7.114   1.368   0.111 -1.6123  0.3485 -0.4266
 1920SOL    HW217740   7.171   1.504   0.076 -0.2118 -0.6063 -2.0246
 1921SOL     OW17741   0.128  13.884   6.226 -0.0925 -0.4902 -0.2426
 1921SOL    HW117742   0.135  13.950   6.158 -2.5366  0.9526  0.7464
 1921SOL    HW217743   0.099  13.932   6.304  2.4735 -2.0596  1.8565
 1922SOL     OW17744  12.211   2.383  13.293 -0.2374  0.3906  0.2317
 1922SOL    HW117745  12.234   2.312  13.234  0.3781  1.3413 -0.7123
 1922SOL    HW217746  12.161   2.342  13.363 -1.2706 -0.7093 -1.1180
 1923SOL     OW17747   4.490   3.947   4.591 -0.1430 -0.5287 -0.4942
 1923SOL    HW117748   4.564   3.900   4.553 -0.6020  0.0197 -2.1379
 1923SOL    HW217749   4.416   3.888   4.580  0.2734 -1.9144  2.8756
 1924SOL     OW17750   6.778   3.230  11.325 -0.2540  0.0591 -0.8093
 1924SOL    HW117751   6.747   3.320  11.316 -0.6911 -0.0705 -0.6220
 1924SOL    HW217752   6.706   3.176  11.290 -0.4635 -0.2692  0.1012
 1925SOL     OW17753   2.759   5.119   2.502  0.2900 -1.0974 -0.2798
 1925SOL    HW117754   2.773   5.110   2.408 -1.0245  0.3102 -0.6616
 1925SOL    HW217755   2.817   5.190   2.529 -0.3169 -0.5868 -0.3056
 1926SOL     OW17756   3.975   7.394   1.518 -0.3701  0.1887  0.0160
 1926SOL    HW117757   3.985   7.414   1.425 -0.3767  0.1232  0.0011
 1926SOL    HW217758   3.995   7.300   1.525  1.6187  0.5815  0.3654
 1927SOL     OW17759   3.597   5.421   5.662  0.7005  0.0238  0.4084
 1927SOL    HW117760   3.673   5.448   5.713  2.0948  0.2148 -1.6715
 1927SOL    HW217761   3.613   5.329   5.641  0.8324  0.2934 -0.7664
 1928SOL     OW17762   3.067   7.478   2.516 -0.4142 -0.0213 -0.0578
 1928SOL    HW117763   2.986   7.515   2.482  0.9451  1.8628 -1.4463
 1928SOL    HW217764   3.081   7.398   2.465  0.4345  1.5879 -2.4893
 1929SOL     OW17765   6.802   0.166   1.944 -0.2746  0.2410 -0.5158
 1929SOL    HW117766   6.761   0.140   2.026  3.1568  2.3285  2.1420
 1929SOL    HW217767   6.837   0.085   1.908 -1.9529 -0.7304 -0.0779
 1930SOL     OW17768  10.356  11.888   5.420 -0.6775  0.2269  0.1943
 1930SOL    HW117769  10.296  11.939   5.475 -1.2452 -0.2292  0.0086
 1930SOL    HW217770  10.319  11.894   5.332 -0.8793 -0.6794  0.2078
 1931SOL     OW17771   6.681  13.187  10.916  0.2509  0.5775 -0.2205
 1931SOL    HW117772   6.657  13.257  10.977  0.1725  1.2402 -0.9859
 1931SOL    HW217773   6.614  13.191  10.848  2.0059  1.9364 -1.9861
 1932SOL     OW17774   3.597  13.186   2.730 -0.1430 -0.2770 -0.2566
 1932SOL    HW117775   3.609  13.276   2.760 -0.2828 -0.5026  0.5124
 1932SOL    HW217776   3.527  13.191   2.665 -1.4017 -0.0499  1.0509
 1933SOL     OW17777   4.938  13.983  10.840 -0.3984 -0.0062  0.0058
 1933SOL    HW117778   4.979  14.024  10.764  0.6159  1.3737  1.2503
 1933SOL    HW217779   4.951  14.045  10.912 -2.2095 -0.8034  1.1127
 1934SOL     OW17780   1.877   0.219   4.253 -0.1953  0.3020 -0.5257
 1934SOL    HW117781   1.892   0.296   4.199 -2.4556 -1.0904 -3.4549
 1934SOL    HW217782   1.782   0.205   4.249  0.0271 -2.1446  0.6034
 1935SOL     OW17783   0.687   5.090   6.884 -0.7551  0.1003  0.0820
 1935SOL    HW117784   0.735   5.170   6.906  0.3803 -0.5648  0.0707
 1935SOL    HW217785   0.627   5.077   6.958 -0.3317  0.4767  0.4979
 1936SOL     OW17786   2.047   3.569  13.657 -0.2289  0.2724  0.4285
 1936SOL    HW117787   2.114   3.568  13.588  1.5258  1.3360  2.0136
 1936SOL    HW217788   1.969   3.533  13.615  1.3427 -1.1357 -1.5077
 1937SOL     OW17789   0.430   5.646   0.230  0.2731 -0.3954 -0.2069
 1937SOL    HW117790   0.484   5.568   0.220 -0.3091 -1.0251  1.2535
 1937SOL    HW217791   0.487   5.718   0.204  0.8651 -1.2672 -1.4662
 1938SOL     OW17792   9.269  12.123   5.951 -0.5074  0.2571  0.0653
 1938SOL    HW117793   9.269  12.217   5.932  0.2447 -0.0603 -1.6337
 1938SOL    HW217794   9.274  12.080   5.866 -0.1081 -1.3233  0.8390
 1939SOL     OW17795   3.560   5.203   5.888  0.6727  0.1460 -0.0496
 1939SOL    HW117796   3.471   5.220   5.921  0.8041 -0.3980  0.6075
 1939SOL    HW217797   3.578   5.276   5.828 -0.1901  0.2980 -0.1359
 1940SOL     OW17798   2.467   2.406  11.457 -0.1940 -0.8322 -0.3248
 1940SOL    HW117799   2.502   2.457  11.384 -0.5528 -0.6558 -0.3779
 1940SOL    HW217800   2.511   2.321  11.450  1.7442  0.0070  0.8078
 1941SOL     OW17801  10.447   5.977  12.331  0.3573 -0.8646 -0.5592
 1941SOL    HW117802  10.507   6.047  12.358 -0.4782 -0.4564  0.3326
 1941SOL    HW217803  10.462   5.906  12.393  0.5745 -1.1307 -0.9132
 1942SOL     OW17804   0.437   3.513  12.548 -0.0305  0.5034  0.2407
 1942SOL    HW117805   0.449   3.520  12.453  1.4974  0.6006  0.4213
 1942SOL    HW217806   0.366   3.574  12.567 -1.2489 -0.4586 -0.9859
 1943SOL     OW17807  12.737  10.874  12.718  0.1111 -0.1679  0.3858
 1943SOL    HW117808  12.693  10.900  12.637 -0.4703 -2.7332 -0.1854
 1943SOL    HW217809  12.699  10.789  12.740  0.9582  0.0092  2.8513
 1944SOL     OW17810   8.222   6.494  11.896 -0.3876  0.8933  0.3340
 1944SOL    HW117811   8.156   6.507  11.964 -0.1508 -0.8464  0.9652
 1944SOL    HW217812   8.304   6.482  11.943 -0.5241 -2.4047  0.0201
 1945SOL     OW17813   8.382   0.963   9.369 -0.3834 -0.1876  0.8016
 1945SOL    HW117814   8.324   1.023   9.416 -0.4481  0.2101  0.2242
 1945SOL    HW217815   8.464   1.012   9.359 -0.5364 -0.0738  0.0642
 1946SOL     OW17816   0.799   4.956   8.580 -0.0545  0.1842  0.2967
 1946SOL    HW117817   0.820   5.018   8.650  0.4976  0.7093 -0.3210
 1946SOL    HW217818   0.872   4.963   8.519 -1.0459  0.5383 -0.8794
 1947SOL     OW17819   4.695   5.905  12.151  0.3260  0.9395 -0.0835
 1947SOL    HW117820   4.734   5.832  12.105  1.1482  0.0369  1.9181
 1947SOL    HW217821   4.760   5.975  12.147  1.7901 -0.1725  2.2457
 1948SOL     OW17822   5.524   7.871   6.049 -0.1343  0.1763  0.4806
 1948SOL    HW117823   5.497   7.886   5.958 -1.0612  2.2856  1.0619
 1948SOL    HW217824   5.459   7.810   6.083 -1.6137  1.7793  0.5906
 1949SOL     OW17825   1.965   6.166   2.371  0.1504  0.3896  0.5410
 1949SOL    HW117826   1.918   6.227   2.428  0.4021  0.3233  0.8233
 1949SOL    HW217827   1.914   6.165   2.290 -0.7649 -0.2261  1.0856
 1950SOL     OW17828   6.947   4.176   0.153 -0.1102  0.3232  0.2812
 1950SOL    HW117829   6.952   4.247   0.216  3.0717  1.5593 -1.1349
 1950SOL    HW217830   6.970   4.217   0.069  1.8035 -2.2994 -0.6056
 1951SOL     OW17831  12.066  13.930   5.418  0.4361 -0.1131 -0.3346
 1951SOL    HW117832  12.161  13.944   5.416  0.4096  0.1131 -0.0954
 1951SOL    HW217833  12.054  13.840   5.387  0.8962 -0.9462  1.7011
 1952SOL     OW17834   6.495  11.693  11.370  0.1604  0.1949 -0.3317
 1952SOL    HW117835   6.470  11.758  11.305 -1.5399 -0.7759 -0.7160
 1952SOL    HW217836   6.481  11.609  11.326  0.4474 -0.4567  0.7897
 1953SOL     OW17837   0.116   6.924   8.348  0.0295  0.0295 -0.0104
 1953SOL    HW117838   0.120   6.985   8.422  0.8853 -0.3147  0.2374
 1953SOL    HW217839   0.162   6.846   8.379 -0.2796 -0.4142 -0.6422
 1954SOL     OW17840  12.132  10.735  11.683  0.1585  0.3842 -0.6449
 1954SOL    HW117841  12.087  10.814  11.651 -0.5007 -0.0091 -0.7017
 1954SOL    HW217842  12.178  10.764  11.762 -0.7981  0.6244 -0.1631
 1955SOL     OW17843  10.002   0.246   0.548 -0.0970  0.3469  0.0432
 1955SOL    HW117844   9.936   0.302   0.507 -0.4123 -0.2920 -0.3277
 1955SOL    HW217845  10.062   0.307   0.591  1.3765  1.1886 -2.9827
 1956SOL     OW17846   0.707   9.340   6.080 -0.6221 -0.0762  0.0551
 1956SOL    HW117847   0.798   9.372   6.076 -0.4139 -0.5645  0.6580
 1956SOL    HW217848   0.656   9.406   6.034  0.0663  0.1263 -0.4292
 1957SOL     OW17849   2.462   5.158   3.712 -0.1138  0.1726  0.8369
 1957SOL    HW117850   2.443   5.204   3.794  0.4828 -0.4131  1.3218
 1957SOL    HW217851   2.557   5.153   3.709 -0.1501 -0.4261  0.4602
 1958SOL     OW17852   9.411  12.145   2.934 -0.0418  0.0068 -0.4234
 1958SOL    HW117853   9.390  12.237   2.950 -1.4829 -0.5800  1.5493
 1958SOL    HW217854   9.401  12.134   2.840 -0.8527  1.6357 -0.5656
 1959SOL     OW17855   7.947   1.400   2.534  0.8581 -0.0432  0.3722
 1959SOL    HW117856   7.975   1.446   2.455 -0.2254 -1.5440 -0.9463
 1959SOL    HW217857   7.999   1.319   2.534  1.5603  0.3639  1.7711
 1960SOL     OW17858   8.422  12.300   1.057  0.0475  0.3916 -0.0218
 1960SOL    HW117859   8.467  12.247   1.123 -1.0587 -1.3491 -0.5996
 1960SOL    HW217860   8.488  12.311   0.988  0.8358  1.2576  0.8285
 1961SOL     OW17861   5.460  11.012   8.825 -0.5147  0.9222 -0.2749
 1961SOL    HW117862   5.416  11.043   8.746  0.3796  0.3382 -1.0152
 1961SOL    HW217863   5.422  11.065   8.896 -2.0926  0.7079 -0.9376
 1962SOL     OW17864  10.938   3.353   4.206 -0.2048 -0.1889 -0.0653
 1962SOL    HW117865  11.010   3.416   4.201  0.5142 -0.9028  0.9564
 1962SOL    HW217866  10.897   3.357   4.120 -0.1418  1.6134 -0.0522
 1963SOL     OW17867   4.939   4.520  10.975 -0.7173  0.6776 -0.0337
 1963SOL    HW117868   5.000   4.592  10.992 -0.7116  0.7367 -0.2934
 1963SOL    HW217869   4.853   4.561  10.971 -0.5730  0.9082 -1.5975
 1964SOL     OW17870   8.714   6.936  12.433  0.4034 -0.0254 -0.2903
 1964SOL    HW117871   8.774   6.875  12.478 -0.0106  0.4839  1.0155
 1964SOL    HW217872   8.671   6.983  12.505  0.5440  1.6473 -1.2630
 1965SOL     OW17873   1.968  12.978   2.895  0.2270 -0.3380  0.5343
 1965SOL    HW117874   1.974  13.059   2.945 -1.6059  0.0439  0.1954
 1965SOL    HW217875   1.970  12.908   2.961 -2.1136  0.1516  1.2065
 1966SOL     OW17876  12.514   2.982   9.748  0.2306 -0.3363  0.3393
 1966SOL    HW117877  12.527   2.899   9.794  0.9866 -0.4322 -0.0352
 1966SOL    HW217878  12.459   2.959   9.673  1.8294 -0.8611 -0.7402
 1967SOL     OW17879   3.312   6.007  13.372 -0.6960  0.3118 -0.1749
 1967SOL    HW117880   3.386   6.036  13.425 -0.4650 -0.5544 -0.0124
 1967SOL    HW217881   3.283   6.085  13.325 -0.5957  0.9836  0.8601
 1968SOL     OW17882   8.119  12.933  10.170 -0.2643 -0.4242 -0.2548
 1968SOL    HW117883   8.146  13.013  10.125  1.2171  0.1898  1.5684
 1968SOL    HW217884   8.161  12.862  10.121 -0.4513  0.0202 -1.0726
 1969SOL     OW17885   3.665   6.872   1.060 -0.5430 -0.0308 -0.5407
 1969SOL    HW117886   3.649   6.899   0.969 -1.9559  1.9602  0.2337
 1969SOL    HW217887   3.758   6.850   1.062 -0.1083  1.4233 -2.1197
 1970SOL     OW17888  12.560  12.472  13.786 -0.1625  0.0784  0.1205
 1970SOL    HW117889  12.563  12.540  13.719 -1.4740  0.0060 -0.0205
 1970SOL    HW217890  12.547  12.520  13.868 -2.3346 -0.0437 -0.1140
 1971SOL     OW17891   1.824   6.379   8.233 -0.2403  0.3315  0.1032
 1971SOL    HW117892   1.919   6.368   8.240  0.0971  2.4485 -0.5307
 1971SOL    HW217893   1.800   6.328   8.156  0.6862  1.2456 -0.8201
 1972SOL     OW17894   6.005   5.487   3.017 -0.0259 -0.1814  0.2891
 1972SOL    HW117895   6.057   5.505   2.939 -0.5723 -3.1485 -0.8958
 1972SOL    HW217896   6.064   5.437   3.075 -0.1405  0.5272  1.0332
 1973SOL     OW17897   0.490  12.774   1.904  0.1994  0.0115  0.2877
 1973SOL    HW117898   0.443  12.827   1.839 -0.4940  0.7394  1.3451
 1973SOL    HW217899   0.577  12.812   1.908 -0.0648  0.5985  0.4985
 1974SOL     OW17900  11.723   6.695   5.170 -0.0496 -0.3933 -0.5143
 1974SOL    HW117901  11.707   6.766   5.232 -0.4064 -0.0554 -0.9745
 1974SOL    HW217902  11.658   6.629   5.192  0.0996 -0.4556 -0.2620
 1975SOL     OW17903   5.595  10.431   7.794  0.5894 -0.4726 -0.1043
 1975SOL    HW117904   5.583  10.486   7.716 -1.8673 -0.4824  0.1921
 1975SOL    HW217905   5.641  10.354   7.761 -0.7843 -0.6773 -1.7031
 1976SOL     OW17906   0.278   8.474   1.031 -0.4718  0.3295 -0.2260
 1976SOL    HW117907   0.235   8.476   0.945 -0.1669  0.0806 -0.3867
 1976SOL    HW217908   0.253   8.389   1.068 -0.1980  0.2268 -0.2782
 1977SOL     OW17909   3.288   1.552  13.646  0.3403 -0.6923 -0.0636
 1977SOL    HW117910   3.383   1.552  13.646  0.3465 -1.5875  0.1877
 1977SOL    HW217911   3.263   1.587  13.731  0.4387 -0.2290 -0.2239
 1978SOL     OW17912  13.366  13.749   7.169 -0.1233 -0.7183 -0.3071
 1978SOL    HW117913  13.461  13.736   7.164 -0.2060 -1.3945 -0.2575
 1978SOL    HW217914  13.356  13.835   7.210  0.4716 -1.0585  0.5946
 1979SOL     OW17915   9.210   1.330  12.910  0.2547 -0.2291  0.0993
 1979SOL    HW117916   9.202   1.368  12.997  0.9856  2.6150 -0.9806
 1979SOL    HW217917   9.122   1.336  12.872 -0.2149 -2.0429  0.7644
 1980SOL     OW17918   7.953   8.741   4.705  0.4446 -0.4471  0.7657
 1980SOL    HW117919   7.916   8.800   4.639  0.3033  0.2221  1.4346
 1980SOL    HW217920   8.039   8.778   4.725  0.8584 -1.1469  0.3227
 1981SOL     OW17921   9.701  12.135   0.861  0.2989 -0.7036 -0.0881
 1981SOL    HW117922   9.607  12.119   0.865 -0.1892  1.3062 -1.9834
 1981SOL    HW217923   9.720  12.147   0.768  2.0462  0.9277  0.4186
 1982SOL     OW17924   8.520   2.257   0.272 -0.1861  0.1181 -0.1341
 1982SOL    HW117925   8.540   2.166   0.295  3.1770  0.1127 -2.4075
 1982SOL    HW217926   8.605   2.301   0.271 -1.2889  2.4755 -2.2691
 1983SOL     OW17927   1.775  12.575   9.544  0.0157 -0.2009  0.5287
 1983SOL    HW117928   1.859  12.545   9.580  0.6041  1.1883  0.3955
 1983SOL    HW217929   1.768  12.531   9.460  2.0358  1.7295 -0.7826
 1984SOL     OW17930   9.800   1.901  10.835  0.3542 -0.0203 -0.1638
 1984SOL    HW117931   9.882   1.852  10.829  0.1233 -0.6567  1.5044
 1984SOL    HW217932   9.813   1.963  10.907 -1.0626 -1.0655  1.0572
 1985SOL     OW17933   4.594  11.411   5.174  0.5022 -0.2564 -0.0042
 1985SOL    HW117934   4.560  11.331   5.135  0.8900  0.1956 -1.3450
 1985SOL    HW217935   4.522  11.473   5.170  0.0830 -0.6275  1.3802
 1986SOL     OW17936   4.017   2.634   6.706 -0.0777  0.2474 -0.4145
 1986SOL    HW117937   3.944   2.694   6.691  0.7420  1.3669 -0.0612
 1986SOL    HW217938   4.015   2.616   6.800 -0.5550 -0.6284 -0.5730
 1987SOL     OW17939   3.498  13.673   3.464  0.0674 -0.1486 -0.3644
 1987SOL    HW117940   3.490  13.670   3.369 -1.2344 -1.1012 -0.2444
 1987SOL    HW217941   3.452  13.753   3.490  0.2082 -0.0192 -0.5070
 1988SOL     OW17942   0.132   6.504   3.526 -0.0383 -0.3965  0.3225
 1988SOL    HW117943   0.129   6.600   3.523  1.3379 -0.3562 -1.0692
 1988SOL    HW217944   0.130   6.477   3.434  0.6922 -1.6484  0.6514
 1989SOL     OW17945  13.220   1.687   8.047  0.2711  0.0823  0.0650
 1989SOL    HW117946  13.193   1.625   8.115 -1.2481  0.7242  0.0909
 1989SOL    HW217947  13.194   1.645   7.965  0.6074  0.0407 -0.0237
 1990SOL     OW17948  13.758   1.593   4.730  0.0271 -0.0089 -0.2653
 1990SOL    HW117949  13.768   1.666   4.791  0.0058 -0.1133 -0.1363
 1990SOL    HW217950  13.847   1.559   4.719 -0.0562 -0.3806  0.1912
 1991SOL     OW17951   7.473   6.160   0.861  0.7049  0.1572 -0.4836
 1991SOL    HW117952   7.536   6.121   0.801  0.9910 -3.7034  1.9881
 1991SOL    HW217953   7.506   6.139   0.948 -2.1098  1.2677  0.9870
 1992SOL     OW17954   6.873  10.047   8.012 -0.5563  0.0058 -0.0563
 1992SOL    HW117955   6.922   9.978   8.056  0.9041  0.3653 -1.0638
 1992SOL    HW217956   6.803  10.069   8.074 -0.1189 -1.2792  0.9449
 1993SOL     OW17957   1.933   4.028   9.191  0.3802  0.2996  0.6962
 1993SOL    HW117958   2.025   4.043   9.212  0.9298 -1.1284 -0.5072
 1993SOL    HW217959   1.928   4.040   9.096 -0.1740 -1.8148  0.4070
 1994SOL     OW17960   3.199   9.794   1.863  0.0186  0.1671 -0.4827
 1994SOL    HW117961   3.256   9.722   1.835 -0.6947 -0.7907  0.4464
 1994SOL    HW217962   3.234   9.871   1.818  0.7982 -0.7545 -1.5153
 1995SOL     OW17963   7.925  11.682   5.651  0.4437  0.5503  0.7922
 1995SOL    HW117964   7.856  11.618   5.668 -1.7711  2.7629  0.7018
 1995SOL    HW217965   7.934  11.683   5.556  2.0453 -1.0756  0.8714
 1996SOL     OW17966   2.293   4.287  13.826 -0.0233  0.5691  0.9959
 1996SOL    HW117967   2.303   4.199  13.861 -1.2308  0.5122  1.2578
 1996SOL    HW217968   2.273   4.274  13.733 -1.9095  0.4443  1.3750
 1997SOL     OW17969   2.491   4.589   4.634 -0.4209 -0.2670 -0.3507
 1997SOL    HW117970   2.552   4.556   4.701  0.7126  0.5420 -0.9538
 1997SOL    HW217971   2.533   4.567   4.551 -0.9177  0.3664 -0.7759
 1998SOL     OW17972   9.117   7.566  13.424 -0.0825 -0.1346  0.1252
 1998SOL    HW117973   9.157   7.558  13.510 -1.1086 -0.3676  0.5936
 1998SOL    HW217974   9.061   7.643  13.430  1.4686  1.1455 -1.0222
 1999SOL     OW17975   9.708  12.009  10.877 -0.2409  0.2685 -0.1763
 1999SOL    HW117976   9.655  12.053  10.810  0.8305  0.6069 -0.8306
 1999SOL    HW217977   9.655  12.013  10.956 -1.2533  0.4583 -0.8402
 2000SOL     OW17978   1.809   2.741   2.392 -0.2323 -0.0271 -0.4522
 2000SOL    HW117979   1.852   2.814   2.347 -1.4205  0.4895 -0.7949
 2000SOL    HW217980   1.724   2.734   2.349 -0.1903 -1.5504 -0.3363
 2001SOL     OW17981  10.706  10.459   4.901  0.0658  0.0483  0.3292
 2001SOL    HW117982  10.660  10.449   4.818  0.7458 -0.6651  0.0248
 2001SOL    HW217983  10.685  10.548   4.929 -1.7584 -0.3672  0.3886
 2002SOL     OW17984   4.760   1.004   1.643 -0.0700  0.4392 -0.0541
 2002SOL    HW117985   4.795   0.986   1.730  0.2976  0.7580 -0.1354
 2002SOL    HW217986   4.820   1.069   1.605  0.2591 -0.3167 -0.8666
 2003SOL     OW17987  11.222   1.698  11.900  0.7281 -0.0796  0.4224
 2003SOL    HW117988  11.211   1.644  11.979 -2.5183  1.1065  0.9412
 2003SOL    HW217989  11.267   1.777  11.931  1.9481 -0.7597  0.4569
 2004SOL     OW17990  11.928   5.855   9.492 -0.1263 -0.5447  0.2285
 2004SOL    HW117991  11.838   5.858   9.526 -0.4682  2.5980 -0.6760
 2004SOL    HW217992  11.981   5.897   9.560  0.1653  0.2439 -0.4686
 2005SOL     OW17993  10.152   1.060   5.481 -0.7098  0.3558  0.2640
 2005SOL    HW117994  10.234   1.011   5.487  0.0444  1.5689  0.2795
 2005SOL    HW217995  10.114   1.054   5.568 -0.7654 -0.4159  0.1919
 2006SOL     OW17996   2.732   6.022  11.649 -0.6523  0.5131  0.2943
 2006SOL    HW117997   2.749   6.108  11.685  1.8326  1.1063 -1.9252
 2006SOL    HW217998   2.803   5.967  11.683 -0.8564 -0.0382 -0.1506
 2007SOL     OW17999   2.806  11.451   5.455 -0.2608  0.3672 -0.3797
 2007SOL    HW118000   2.865  11.499   5.398  1.0101  1.5508  1.8517
 2007SOL    HW218001   2.738  11.514   5.478 -1.4631 -0.4640 -1.4717
 2008SOL     OW18002   0.279   3.207   8.894  0.4372  0.0795 -0.7726
 2008SOL    HW118003   0.200   3.251   8.925  2.3101  2.1581  1.4274
 2008SOL    HW218004   0.294   3.244   8.807 -0.0202  1.0467 -0.4544
 2009SOL     OW18005  11.809   5.220   8.877 -0.2861  0.4401  0.1503
 2009SOL    HW118006  11.860   5.295   8.907  1.1552 -0.1409 -0.7771
 2009SOL    HW218007  11.752   5.199   8.951 -0.9491  2.5926  0.3462
 2010SOL     OW18008   2.294  11.369  10.303  0.1598  0.2089 -0.0709
 2010SOL    HW118009   2.294  11.312  10.379  0.2117  0.8209  0.3979
 2010SOL    HW218010   2.280  11.311  10.229  0.1269 -0.3953  0.4049
 2011SOL     OW18011  11.977   0.072   3.289  0.2728 -0.1624  0.4022
 2011SOL    HW118012  12.025   0.100   3.211 -1.4036  0.2884 -0.5239
 2011SOL    HW218013  11.988  -0.023   3.291  3.2279  0.0999  1.6684
 2012SOL     OW18014  11.431   2.477  10.964  0.3391  0.3856  0.0194
 2012SOL    HW118015  11.433   2.410  10.896 -0.7703  1.2247 -0.8905
 2012SOL    HW218016  11.515   2.469  11.009  0.4370 -1.2575 -0.3874
 2013SOL     OW18017   1.860   7.175   9.165 -0.4615 -0.1419  0.4371
 2013SOL    HW118018   1.913   7.254   9.174 -0.3584 -0.2125  0.4410
 2013SOL    HW218019   1.822   7.161   9.252  2.9518 -2.5665  1.7331
 2014SOL     OW18020   1.312   1.271  11.408  0.0394 -0.2311  0.7350
 2014SOL    HW118021   1.279   1.181  11.409 -0.7278  0.0166 -0.2547
 2014SOL    HW218022   1.406   1.262  11.397 -0.1304 -0.9276 -0.3705
 2015SOL     OW18023   9.640   1.222   5.867 -0.2390 -0.2863  0.4712
 2015SOL    HW118024   9.675   1.263   5.788 -0.5245  1.6696  1.2898
 2015SOL    HW218025   9.670   1.131   5.863 -1.1628 -0.5519 -2.4033
 2016SOL     OW18026   1.607   4.703   6.705 -0.1401  0.7981  0.1893
 2016SOL    HW118027   1.663   4.644   6.755 -2.1551  0.9020  2.7847
 2016SOL    HW218028   1.547   4.645   6.657  1.0434  0.7218 -1.2591
 2017SOL     OW18029   0.304  13.711   8.949 -0.1793 -0.4391  0.5180
 2017SOL    HW118030   0.249  13.779   8.911 -0.6008 -0.5609  0.9030
 2017SOL    HW218031   0.320  13.650   8.878 -2.0449 -1.3613  0.8237
 2018SOL     OW18032   7.964   2.199   1.703 -0.5344  0.2270 -0.0512
 2018SOL    HW118033   8.037   2.260   1.694 -0.8698  0.6574  0.0732
 2018SOL    HW218034   7.899   2.230   1.639  0.2858 -1.5224 -1.8444
 2019SOL     OW18035   1.324   3.192   8.058 -0.0533  0.1001 -0.2833
 2019SOL    HW118036   1.388   3.262   8.048  0.0185  0.4129  1.8164
 2019SOL    HW218037   1.340   3.134   7.984  0.3774  1.8886 -1.6610
 2020SOL     OW18038  10.151   9.822   9.533 -0.1566  0.4054  0.1875
 2020SOL    HW118039  10.126   9.787   9.618  1.9796 -0.1423  0.6530
 2020SOL    HW218040  10.151   9.747   9.474 -0.0621  0.4816  0.0879
 2021SOL     OW18041   4.639   2.068   5.407 -0.9728 -0.1158 -0.1899
 2021SOL    HW118042   4.630   1.980   5.372 -0.3549  0.0483 -0.7873
 2021SOL    HW218043   4.693   2.114   5.342  1.5507 -0.2470  1.6366
 2022SOL     OW18044   1.043   1.285  11.799 -0.0945 -0.0963 -0.7978
 2022SOL    HW118045   1.017   1.198  11.769 -0.8377  0.3724 -1.5574
 2022SOL    HW218046   1.125   1.304  11.753 -0.9990  0.4347 -2.2406
 2023SOL     OW18047   5.536   4.899   9.112  0.6955 -0.3203 -0.2499
 2023SOL    HW118048   5.462   4.873   9.058  0.8934 -1.9620  0.2164
 2023SOL    HW218049   5.608   4.909   9.049  0.2613  0.6628 -0.6214
 2024SOL     OW18050   5.202   0.032  13.263 -0.3245  0.0947  0.3662
 2024SOL    HW118051   5.160  -0.011  13.338 -0.6550 -1.1320 -0.4897
 2024SOL    HW218052   5.275  -0.025  13.241 -0.2703  0.4097 -0.2810
 2025SOL     OW18053   9.091   4.374   3.521  0.0094  0.3756 -0.0889
 2025SOL    HW118054   9.064   4.287   3.550  1.4795  0.6346  2.3009
 2025SOL    HW218055   9.047   4.386   3.436 -2.2974 -1.6056  0.7287
 2026SOL     OW18056  12.894   1.783   4.048 -0.1600 -0.2787  0.3121
 2026SOL    HW118057  12.849   1.701   4.030 -2.0050  0.8634 -0.6497
 2026SOL    HW218058  12.843   1.823   4.118  0.2136  0.4201  0.1967
 2027SOL     OW18059   2.230   8.135  10.580  0.6074  1.2509  0.5862
 2027SOL    HW118060   2.217   8.166  10.669 -1.5468 -1.0123  1.1894
 2027SOL    HW218061   2.278   8.053  10.589  1.9261  1.8696 -0.5167
 2028SOL     OW18062  11.971  10.767   0.872  0.2747  0.1975 -0.3550
 2028SOL    HW118063  12.043  10.780   0.933 -0.7629 -1.0074  1.2205
 2028SOL    HW218064  11.987  10.830   0.802  0.8634  2.5891  1.7587
 2029SOL     OW18065   3.210   2.880   8.398  0.0900 -0.2349  0.1330
 2029SOL    HW118066   3.139   2.938   8.425 -0.2401 -0.1029 -0.9440
 2029SOL    HW218067   3.226   2.903   8.306  0.1017 -1.6917 -0.2610
 2030SOL     OW18068  11.095   9.618   0.501 -0.3157 -0.2321  0.0055
 2030SOL    HW118069  11.056   9.690   0.451  1.2892  0.8454  0.2348
 2030SOL    HW218070  11.020   9.563   0.526 -1.3068 -0.0402 -2.3283
 2031SOL     OW18071   2.437   1.134  12.773  0.1448  0.3013 -0.3323
 2031SOL    HW118072   2.377   1.122  12.699 -1.2382 -1.9304  1.0444
 2031SOL    HW218073   2.524   1.119  12.735 -0.2858  1.4943 -1.9321
 2032SOL     OW18074   7.839   1.082   9.937  0.4327  0.1859  0.1120
 2032SOL    HW118075   7.761   1.070   9.990 -0.3231  1.8131 -0.5799
 2032SOL    HW218076   7.812   1.055   9.849  0.3140  1.7305 -0.3441
 2033SOL     OW18077  10.598   2.699  11.304  0.0627 -0.4725  0.2079
 2033SOL    HW118078  10.605   2.606  11.283 -0.4442 -0.6998  1.0223
 2033SOL    HW218079  10.514   2.708  11.348 -0.3368  0.5415 -0.7053
 2034SOL     OW18080   1.001   6.653   5.826 -0.3191  0.3724  0.4652
 2034SOL    HW118081   1.083   6.696   5.852  0.6968  0.0057 -1.8683
 2034SOL    HW218082   0.958   6.717   5.770  0.2800 -0.8406 -1.4660
 2035SOL     OW18083   8.763   3.497   6.080  0.2780 -0.0144 -0.0896
 2035SOL    HW118084   8.668   3.508   6.085 -0.0125 -1.2235 -1.9320
 2035SOL    HW218085   8.790   3.556   6.009  0.5446 -1.3637 -1.1416
 2036SOL     OW18086   0.892   7.061   0.836 -0.2137 -0.2462 -0.7555
 2036SOL    HW118087   0.885   7.095   0.925  1.2617 -0.4845 -0.5136
 2036SOL    HW218088   0.805   7.072   0.798 -0.2485  2.2477 -0.1451
 2037SOL     OW18089   1.549  10.063  12.635  0.3701  0.2769 -0.0084
 2037SOL    HW118090   1.505  10.041  12.718 -0.2539 -0.1122 -0.4370
 2037SOL    HW218091   1.508  10.145  12.607  2.2307  1.7252  1.2453
 2038SOL     OW18092   7.343   9.974   1.364  0.3652  0.3626  0.1783
 2038SOL    HW118093   7.320  10.011   1.279 -0.6549 -0.9147 -0.1363
 2038SOL    HW218094   7.328  10.046   1.426 -1.9676  0.4116 -0.3573
 2039SOL     OW18095   5.551   5.187   5.527  0.0932 -0.2115 -0.4076
 2039SOL    HW118096   5.606   5.198   5.604 -0.9429  0.6865  0.2295
 2039SOL    HW218097   5.537   5.276   5.494 -0.9582 -0.4163 -0.5530
 2040SOL     OW18098  12.447   7.571   6.357  0.4163 -0.5745 -0.2752
 2040SOL    HW118099  12.358   7.581   6.391  0.2262 -1.5284 -0.4534
 2040SOL    HW218100  12.455   7.640   6.291 -0.2042 -0.5050 -0.2887
 2041SOL     OW18101   8.064   7.794  10.000 -0.0399 -0.2485  0.7452
 2041SOL    HW118102   8.031   7.884   9.995  0.6925  0.0577  1.2491
 2041SOL    HW218103   7.991   7.740   9.969 -0.5628  0.5018  0.6423
 2042SOL     OW18104  10.695   8.051  13.032 -0.0765 -0.1691  0.0268
 2042SOL    HW118105  10.723   8.127  13.083 -0.4090  0.3648 -0.5776
 2042SOL    HW218106  10.765   7.986  13.046  0.7651  0.6323 -0.3021
 2043SOL     OW18107  13.594   4.657   7.800  0.6858 -0.2052  0.4481
 2043SOL    HW118108  13.532   4.644   7.872  0.5691 -1.6616  0.1063
 2043SOL    HW218109  13.607   4.570   7.763  0.8456  0.4863 -1.2201
 2044SOL     OW18110  12.902   5.127   6.542  0.4949 -0.0202 -0.2261
 2044SOL    HW118111  12.866   5.124   6.454 -0.9616  1.2947  0.2665
 2044SOL    HW218112  12.963   5.053   6.546 -0.7470 -1.1999 -1.7357
 2045SOL     OW18113   2.101   4.638   3.826  0.1118  0.2922 -0.4630
 2045SOL    HW118114   2.111   4.712   3.766  0.6662  0.8393  0.2809
 2045SOL    HW218115   2.182   4.588   3.816  0.6020  0.8817  0.4760
 2046SOL     OW18116  13.934   8.081   3.294  0.1525 -0.0128 -0.1624
 2046SOL    HW118117  13.996   8.034   3.350 -0.5428 -0.7037  0.0572
 2046SOL    HW218118  13.933   8.031   3.212  1.1265  0.9650 -0.7898
 2047SOL     OW18119  13.171  12.258   5.214 -0.2854 -0.3539 -0.3679
 2047SOL    HW118120  13.142  12.168   5.228 -2.7676  0.1053 -1.8579
 2047SOL    HW218121  13.185  12.292   5.303 -0.1677 -1.9371  0.2559
 2048SOL     OW18122  11.882   2.699   6.548 -0.7098 -0.1856 -0.4168
 2048SOL    HW118123  11.929   2.667   6.625 -0.2554 -0.4355 -0.7911
 2048SOL    HW218124  11.816   2.760   6.583  2.0712  2.8879 -0.0670
 2049SOL     OW18125  10.913   5.958   7.987 -0.5750 -0.0718 -0.1796
 2049SOL    HW118126  10.873   5.885   8.036  1.4356 -1.2551 -0.1972
 2049SOL    HW218127  10.979   5.993   8.046  1.0721 -0.7413 -1.5490
 2050SOL     OW18128   7.341   6.067  13.751 -0.8429 -0.3873 -0.5901
 2050SOL    HW118129   7.291   5.991  13.781 -0.8958  0.1485  0.7541
 2050SOL    HW218130   7.315   6.137  13.811  2.4641 -0.3859  1.0782
 2051SOL     OW18131  12.256   6.099   9.850 -0.1314  0.2549  0.5646
 2051SOL    HW118132  12.249   6.175   9.908  0.7719  0.2359  0.7190
 2051SOL    HW218133  12.335   6.053   9.880 -0.0008 -0.1010 -0.2787
 2052SOL     OW18134   3.910  13.163   7.836  0.9232  0.1951  0.6511
 2052SOL    HW118135   3.895  13.107   7.760 -0.3117  0.3865  0.7219
 2052SOL    HW218136   3.875  13.248   7.810  0.7150  0.3273  1.3394
 2053SOL     OW18137  11.016   2.549  13.628 -0.0483  0.0931 -0.2533
 2053SOL    HW118138  11.082   2.603  13.671 -0.2993  1.3933 -1.4387
 2053SOL    HW218139  11.002   2.590  13.543 -0.5744 -1.6043 -1.0347
 2054SOL     OW18140  12.483   4.526   6.766 -0.4428 -0.1290  0.0471
 2054SOL    HW118141  12.499   4.446   6.815 -0.5143 -1.1275 -1.4977
 2054SOL    HW218142  12.436   4.497   6.687 -0.0586  1.3574 -0.7652
 2055SOL     OW18143  10.340   5.310   4.709  1.0268 -0.4095  0.3287
 2055SOL    HW118144  10.431   5.305   4.737  1.1903 -1.5540 -0.3638
 2055SOL    HW218145  10.291   5.268   4.779  1.1458 -0.6990  0.2426
 2056SOL     OW18146   1.989   3.718   3.076 -0.4408  0.4585  0.5853
 2056SOL    HW118147   2.036   3.782   3.022 -0.2478  0.6394  0.9662
 2056SOL    HW218148   2.044   3.640   3.073 -0.3372  0.5269  0.6650
 2057SOL     OW18149   1.439   9.400   2.024 -0.4162  1.1447 -0.1129
 2057SOL    HW118150   1.472   9.465   2.087 -1.8658  0.6725  1.2015
 2057SOL    HW218151   1.404   9.330   2.079  0.8773 -0.6797 -1.4838
 2058SOL     OW18152   4.097   7.446   8.234 -0.0718  0.5270  0.5367
 2058SOL    HW118153   4.107   7.370   8.178  0.2007  0.5854  0.5049
 2058SOL    HW218154   4.023   7.424   8.291  0.1965  0.1124  0.7319
 2059SOL     OW18155  12.036   0.514  11.005  0.0859 -0.2520 -0.1629
 2059SOL    HW118156  11.993   0.595  11.032  0.1632 -0.1901 -0.2221
 2059SOL    HW218157  12.115   0.544  10.959  1.0323 -0.3789  1.3201
 2060SOL     OW18158   0.056   1.416   9.469  0.2370  0.1660 -0.2917
 2060SOL    HW118159  -0.022   1.447   9.423  1.6210  1.4268 -1.9193
 2060SOL    HW218160   0.127   1.423   9.405  1.8308 -0.2739  1.3269
 2061SOL     OW18161  12.648   2.107   6.569  0.4472  0.0203 -0.3819
 2061SOL    HW118162  12.733   2.150   6.570 -0.1623  1.3711 -1.9772
 2061SOL    HW218163  12.663   2.024   6.525  0.8797  0.4518 -1.0649
 2062SOL     OW18164   8.186   6.482   8.464  0.4342  0.1293  0.2399
 2062SOL    HW118165   8.243   6.407   8.449  0.4798  0.1075  0.5096
 2062SOL    HW218166   8.244   6.558   8.465  0.2840  0.2732 -0.9008
 2063SOL     OW18167   7.283  13.650   8.508 -0.1032  0.2607  0.3327
 2063SOL    HW118168   7.364  13.617   8.547 -1.5175 -1.7708  1.7490
 2063SOL    HW218169   7.277  13.741   8.537 -0.1063 -0.6022  3.3535
 2064SOL     OW18170  13.482  11.469  13.848  0.0885 -0.3964  0.6581
 2064SOL    HW118171  13.389  11.479  13.825  0.4918  1.5972 -0.3282
 2064SOL    HW218172  13.520  11.423  13.773  0.2886  0.7786  0.0204
 2065SOL     OW18173   2.651   1.246   4.882 -1.0728  0.4776  0.2435
 2065SOL    HW118174   2.725   1.265   4.940 -0.0544 -1.6335 -0.2456
 2065SOL    HW218175   2.606   1.329   4.872  1.0420  1.7724  0.8629
 2066SOL     OW18176   2.391  12.631   8.876 -0.3810 -0.0231 -0.4254
 2066SOL    HW118177   2.398  12.589   8.790 -0.3359  0.7726 -0.8191
 2066SOL    HW218178   2.379  12.724   8.856 -3.0313 -0.1006  0.3427
 2067SOL     OW18179   6.239   8.771  11.219 -0.0010  0.0536 -0.0777
 2067SOL    HW118180   6.289   8.736  11.294 -1.7604 -0.7238  0.7977
 2067SOL    HW218181   6.200   8.851  11.252  0.7545  0.7407 -0.8090
 2068SOL     OW18182   2.246   4.425   6.171  0.2332  0.1482  0.6420
 2068SOL    HW118183   2.238   4.431   6.266 -0.5319 -0.8004  0.6511
 2068SOL    HW218184   2.325   4.374   6.157 -0.9427 -1.8299  0.8502
 2069SOL     OW18185   7.696   1.688   8.325 -0.0294 -0.4052 -0.3097
 2069SOL    HW118186   7.786   1.656   8.316  0.4437  0.9812 -0.8144
 2069SOL    HW218187   7.661   1.683   8.236 -0.1444 -0.0967 -0.2815
 2070SOL     OW18188   5.453   6.352   2.430  0.6114  0.6052 -0.3604
 2070SOL    HW118189   5.442   6.434   2.381  2.2296  1.1338  0.1056
 2070SOL    HW218190   5.496   6.293   2.368 -0.2125  0.2148 -0.5740
 2071SOL     OW18191   4.703  13.632   7.575 -0.8316  0.2886  0.0970
 2071SOL    HW118192   4.732  13.628   7.666 -1.4755  1.2880  0.3569
 2071SOL    HW218193   4.608  13.625   7.580 -0.7949 -1.1437 -0.6213
 2072SOL     OW18194   2.678   1.130   0.933  0.2348 -0.2197  0.0074
 2072SOL    HW118195   2.595   1.138   0.980  0.6195  2.1097  0.4044
 2072SOL    HW218196   2.727   1.064   0.982 -1.1926 -1.3328  0.0022
 2073SOL     OW18197   1.428   4.634   5.691 -0.1684  0.2510  0.2988
 2073SOL    HW118198   1.350   4.584   5.716  0.0222  0.8976  2.3887
 2073SOL    HW218199   1.495   4.606   5.753  1.3907 -0.4454 -1.5905
 2074SOL     OW18200   2.534   5.856   4.116 -0.1795  0.3382 -0.0638
 2074SOL    HW118201   2.592   5.839   4.041  0.3149 -0.6662  0.5194
 2074SOL    HW218202   2.446   5.861   4.078 -0.1643 -1.9644 -0.5152
 2075SOL     OW18203  13.382  10.658  12.718  0.3243 -0.4966 -0.4635
 2075SOL    HW118204  13.434  10.653  12.638  2.0118  2.3446  0.3087
 2075SOL    HW218205  13.295  10.683  12.688  0.8501  0.2435 -1.4523
 2076SOL     OW18206   8.840   1.438  11.527  0.1979  0.2294 -0.3575
 2076SOL    HW118207   8.828   1.521  11.481  0.0584  1.4442  1.7546
 2076SOL    HW218208   8.765   1.385  11.501 -0.6599  1.4238 -0.3989
 2077SOL     OW18209   6.113   7.624  13.950  0.2412 -0.1871 -0.3577
 2077SOL    HW118210   6.081   7.537  13.927  0.5264 -0.3763 -0.0418
 2077SOL    HW218211   6.173   7.609  14.024  1.2650  0.1330 -1.1046
 2078SOL     OW18212  12.767   2.436   8.798  0.2119 -0.6464 -0.0764
 2078SOL    HW118213  12.850   2.469   8.764  0.2412 -0.6823 -0.0392
 2078SOL    HW218214  12.756   2.351   8.755 -0.3620 -0.1522 -0.9560
 2079SOL     OW18215   4.250   6.045  13.518 -0.4487  0.1430  0.5563
 2079SOL    HW118216   4.240   5.999  13.435  0.1711  0.0539  0.5314
 2079SOL    HW218217   4.337   6.084  13.514 -0.8537  1.1020  0.6859
 2080SOL     OW18218  13.980   6.691   7.088  0.0782  0.5175 -0.1752
 2080SOL    HW118219  13.942   6.776   7.065 -0.6499  0.2592  0.0344
 2080SOL    HW218220  13.970   6.685   7.183 -0.9186 -0.2738 -0.3137
 2081SOL     OW18221  10.732  13.202   4.159 -0.4553  0.2078 -0.0317
 2081SOL    HW118222  10.823  13.206   4.188 -0.1021  1.6357 -1.2090
 2081SOL    HW218223  10.725  13.269   4.091 -2.9368  1.6708  1.4907
 2082SOL     OW18224   0.127   0.666   2.379 -0.2166  0.4297  0.1773
 2082SOL    HW118225   0.137   0.751   2.421  1.9000 -0.4525  1.5857
 2082SOL    HW218226   0.215   0.629   2.375 -0.6831 -0.6606 -2.7623
 2083SOL     OW18227  10.476   8.211   9.197 -0.0078 -0.2292  0.3350
 2083SOL    HW118228  10.532   8.135   9.178 -0.4383 -0.5966  0.5213
 2083SOL    HW218229  10.472   8.258   9.114  1.0144  0.0992  0.4519
 2084SOL     OW18230   8.634   7.359  11.254  0.1158 -0.4204 -0.1647
 2084SOL    HW118231   8.705   7.335  11.314  1.1378  0.2441 -1.0855
 2084SOL    HW218232   8.585   7.277  11.241  0.7913 -0.9182  0.3665
 2085SOL     OW18233   1.099   4.494   9.228  0.6186 -0.0955 -0.5479
 2085SOL    HW118234   1.040   4.570   9.231  0.6165 -0.0895 -0.7485
 2085SOL    HW218235   1.138   4.497   9.141  1.0557  0.0048 -0.3499
 2086SOL     OW18236   1.021   5.342  11.058  0.1999  0.3438 -0.0605
 2086SOL    HW118237   0.939   5.294  11.072  0.8316 -0.6346  0.3688
 2086SOL    HW218238   1.022   5.360  10.964 -0.5610  0.4751 -0.0508
 2087SOL     OW18239  12.809   8.541  11.671 -0.1773  0.1286 -0.4862
 2087SOL    HW118240  12.875   8.481  11.704  0.4799  0.7825 -0.5680
 2087SOL    HW218241  12.728   8.513  11.712  0.2538 -0.3441  0.0582
 2088SOL     OW18242   1.493  10.655   3.695  0.3267  0.1630 -0.2510
 2088SOL    HW118243   1.415  10.682   3.646 -0.3475 -1.5773 -0.2013
 2088SOL    HW218244   1.546  10.608   3.631  0.1822 -0.7579  0.2895
 2089SOL     OW18245  10.734   9.741   1.318 -0.1810 -0.0199 -0.1451
 2089SOL    HW118246  10.815   9.740   1.266  0.6714 -1.2359  1.1312
 2089SOL    HW218247  10.757   9.789   1.398  0.1939 -2.7163  1.4937
 2090SOL     OW18248   0.611  12.203  10.314  0.1192  0.4442 -0.1495
 2090SOL    HW118249   0.644  12.288  10.285 -0.4975  1.4543  1.9260
 2090SOL    HW218250   0.560  12.171  10.240 -1.7217  3.0741 -0.1744
 2091SOL     OW18251   0.658  12.857   8.364 -0.1340 -0.0683  0.1814
 2091SOL    HW118252   0.645  12.862   8.459 -1.1970 -0.0154  0.0433
 2091SOL    HW218253   0.582  12.809   8.331 -0.0638  0.3982 -0.7013
 2092SOL     OW18254   7.540  11.683   4.731  0.7873  0.0038 -0.3858
 2092SOL    HW118255   7.560  11.774   4.708  2.0625 -0.1975 -0.1422
 2092SOL    HW218256   7.596  11.631   4.674  0.4402 -0.6147 -0.1695
 2093SOL     OW18257   7.870   5.324   9.871 -0.3443  0.0130  0.5103
 2093SOL    HW118258   7.870   5.358   9.960  0.3346  4.6608 -1.0096
 2093SOL    HW218259   7.958   5.290   9.857 -0.3543 -0.4151  1.4504
 2094SOL     OW18260   2.681  13.492   3.699  0.3473  0.7801 -0.2902
 2094SOL    HW118261   2.709  13.456   3.783 -2.4802  0.9124  0.8228
 2094SOL    HW218262   2.692  13.587   3.709 -0.3230  0.8254  0.1077
 2095SOL     OW18263   9.292   6.132   5.441 -0.4986  0.0022  0.6689
 2095SOL    HW118264   9.305   6.037   5.444  1.3656  0.1837 -0.0413
 2095SOL    HW218265   9.212   6.144   5.389 -0.4010 -1.1560  0.2257
 2096SOL     OW18266   0.155  11.477  12.401 -0.4036  0.4865 -0.0738
 2096SOL    HW118267   0.126  11.566  12.385 -0.4842  0.4758  0.0196
 2096SOL    HW218268   0.106  11.424  12.338  0.8031  0.6942 -1.2436
 2097SOL     OW18269  11.380   3.627  13.329  0.3478 -0.3489  0.5133
 2097SOL    HW118270  11.397   3.650  13.238 -0.0505 -0.8639  0.2947
 2097SOL    HW218271  11.462   3.643  13.375  0.7266 -0.6276 -0.0551
 2098SOL     OW18272   4.153   0.155   0.064 -0.1451 -0.2500  0.4669
 2098SOL    HW118273   4.245   0.129   0.068 -0.4086 -1.9063 -1.7875
 2098SOL    HW218274   4.154   0.250   0.066  1.8748 -0.1330 -1.6876
 2099SOL     OW18275  11.542   7.805   6.858  0.4207  0.1759 -0.2316
 2099SOL    HW118276  11.600   7.881   6.858 -2.0145  2.2047 -0.4703
 2099SOL    HW218277  11.526   7.787   6.951  1.0874 -0.1249 -0.1729
 2100SOL     OW18278   0.762   0.780   5.139 -0.2563  0.1002 -0.0926
 2100SOL    HW118279   0.828   0.739   5.196 -0.1823  0.8976  0.4012
 2100SOL    HW218280   0.678   0.748   5.172 -0.2064  0.4564  0.3785
 2101SOL     OW18281  11.661  11.267   1.867  0.0020 -0.0538  0.4267
 2101SOL    HW118282  11.657  11.353   1.825 -0.8812 -0.1153  0.3547
 2101SOL    HW218283  11.680  11.286   1.959 -1.3875  0.3210  0.6636
 2102SOL     OW18284   4.315   4.390  12.246 -0.0419 -0.3432 -0.4539
 2102SOL    HW118285   4.346   4.441  12.321  0.0246  0.4831 -1.0316
 2102SOL    HW218286   4.371   4.312  12.245 -0.2226 -0.4975  0.5105
 2103SOL     OW18287  12.040  10.668  12.066 -0.4720  0.1644 -0.6228
 2103SOL    HW118288  11.988  10.734  12.112  0.6187 -0.1980  1.2067
 2103SOL    HW218289  12.103  10.718  12.015 -1.5658  0.5642 -1.6470
 2104SOL     OW18290  11.480   4.982   3.018 -0.4792  0.1539 -0.0073
 2104SOL    HW118291  11.488   4.963   2.924  0.9168 -0.4459  0.2124
 2104SOL    HW218292  11.385   4.979   3.035 -0.7451  0.1839 -1.3708
 2105SOL     OW18293   8.631   5.609   9.647  0.8837  0.1557 -0.0641
 2105SOL    HW118294   8.663   5.535   9.595  0.7714  0.6391 -0.8389
 2105SOL    HW218295   8.546   5.629   9.608  0.6533  0.3170  0.5268
 2106SOL     OW18296   7.983  13.981   1.299  0.7804 -0.2516 -0.4003
 2106SOL    HW118297   7.967  14.040   1.226 -1.0967  1.0405  0.9335
 2106SOL    HW218298   7.937  13.900   1.275  0.4229  0.0585 -0.7804
 2107SOL     OW18299   9.172   8.111   9.390  0.0086 -0.3253  0.1827
 2107SOL    HW118300   9.141   8.193   9.427  1.2497  0.8908 -1.3307
 2107SOL    HW218301   9.150   8.118   9.297 -1.8008 -2.6711  0.3381
 2108SOL     OW18302   2.212   3.921  11.300  0.0999  0.0700  0.6170
 2108SOL    HW118303   2.202   3.827  11.318  1.4199 -0.4523 -1.1469
 2108SOL    HW218304   2.304   3.932  11.280 -0.4002  1.3538 -1.2575
 2109SOL     OW18305  10.849  12.135   0.160 -0.0171 -0.0986  0.3233
 2109SOL    HW118306  10.824  12.057   0.111 -1.8601  0.9880 -0.5763
 2109SOL    HW218307  10.805  12.126   0.245 -1.9549  0.8486 -0.5172
 2110SOL     OW18308   5.679   7.814   0.460  0.1441 -0.0589 -0.4333
 2110SOL    HW118309   5.720   7.891   0.420  0.6236 -0.4321 -0.6633
 2110SOL    HW218310   5.753   7.761   0.491 -0.1976 -0.1710  0.2090
 2111SOL     OW18311   2.521  13.100  12.797 -0.3106  0.6197  0.0969
 2111SOL    HW118312   2.504  13.008  12.776 -0.9342  1.0873 -1.6400
 2111SOL    HW218313   2.571  13.097  12.879 -2.9085 -1.1409  1.7969
 2112SOL     OW18314   8.262   7.932   2.945  0.1355 -0.6906  0.9080
 2112SOL    HW118315   8.331   7.930   3.011  1.5382  1.5808 -0.3581
 2112SOL    HW218316   8.297   7.988   2.875 -1.5120 -2.4706 -1.5143
 2113SOL     OW18317   2.814   3.870   0.084  0.0434  0.2324 -0.0886
 2113SOL    HW118318   2.866   3.925   0.143  0.8704 -0.6868  0.0681
 2113SOL    HW218319   2.797   3.926   0.009 -0.9748  1.4121  0.9670
 2114SOL     OW18320  11.522   7.749   7.435 -0.8778 -0.3561  0.0600
 2114SOL    HW118321  11.494   7.659   7.421 -2.5289 -0.2054  2.0093
 2114SOL    HW218322  11.494   7.770   7.524 -0.4350  2.0560 -0.2945
 2115SOL     OW18323   2.974  11.274   0.474  0.4250  0.4739 -0.5004
 2115SOL    HW118324   2.887  11.291   0.440 -0.5075 -2.4200  0.1450
 2115SOL    HW218325   3.017  11.221   0.406  0.4486 -0.8689  0.5169
 2116SOL     OW18326   3.146  11.199  11.535  0.3507 -0.2657 -0.0323
 2116SOL    HW118327   3.119  11.286  11.565  0.3414  0.8323 -2.8508
 2116SOL    HW218328   3.205  11.167  11.603  0.5070  2.0541  1.0177
 2117SOL     OW18329   2.888   3.383  12.679 -0.7184  0.1879  0.2285
 2117SOL    HW118330   2.801   3.384  12.640  0.0456 -0.6377 -1.6159
 2117SOL    HW218331   2.921   3.472  12.666  0.1448 -0.4680 -2.6410
 2118SOL     OW18332   3.125   3.250  11.586  0.3590 -0.2619  0.7620
 2118SOL    HW118333   3.037   3.286  11.594 -0.9683 -3.2395  1.0911
 2118SOL    HW218334   3.142   3.246  11.492 -0.5232 -1.0328  0.6250
 2119SOL     OW18335   1.274   4.219  10.124 -0.3746 -0.5322  0.6721
 2119SOL    HW118336   1.255   4.177  10.208 -0.3008 -0.3575  0.7772
 2119SOL    HW218337   1.366   4.202  10.108 -0.8007 -2.1427 -0.2740
 2120SOL     OW18338   0.399   7.437   4.251  0.4785  0.0139 -0.1438
 2120SOL    HW118339   0.481   7.476   4.279  0.0685  0.5363  0.3669
 2120SOL    HW218340   0.419   7.344   4.238  1.0949  0.0991  0.1708
 2121SOL     OW18341   0.400  10.264   0.629 -0.0672 -0.1574  0.2873
 2121SOL    HW118342   0.422  10.347   0.672 -0.4658  1.3652 -2.2215
 2121SOL    HW218343   0.469  10.204   0.656  3.0233  2.3188 -1.3235
 2122SOL     OW18344  11.910  10.013   8.040  0.0686  0.1401 -0.2379
 2122SOL    HW118345  11.892   9.980   7.952  0.7363 -0.0745 -0.2998
 2122SOL    HW218346  11.868   9.950   8.098  0.5129 -0.2892 -0.3800
 2123SOL     OW18347   0.852  13.444  12.153 -0.1292 -0.4300  0.0757
 2123SOL    HW118348   0.888  13.447  12.064 -0.4571 -0.3078 -0.0541
 2123SOL    HW218349   0.801  13.524  12.161  1.6658  0.6700  1.1519
 2124SOL     OW18350  11.216   0.103  13.447  0.3042  0.0801  0.3807
 2124SOL    HW118351  11.176   0.062  13.370  1.0169 -0.8473  0.4949
 2124SOL    HW218352  11.148   0.098  13.515 -0.9485  2.3641 -0.5884
 2125SOL     OW18353  13.598   8.638   5.221 -0.0004  0.3423 -0.1489
 2125SOL    HW118354  13.651   8.718   5.222  1.2705 -0.4220  2.4712
 2125SOL    HW218355  13.613   8.600   5.134  0.5315  2.1802 -0.8991
 2126SOL     OW18356  12.252  10.652   3.782 -0.5775 -0.0885 -0.6284
 2126SOL    HW118357  12.274  10.688   3.696 -3.4399 -0.0580 -1.4503
 2126SOL    HW218358  12.206  10.570   3.762 -1.2790 -0.0780  0.8698
 2127SOL     OW18359  13.896   3.387  10.811  0.0872  0.8818 -0.5163
 2127SOL    HW118360  13.840   3.381  10.734 -1.7114  2.5556  0.5556
 2127SOL    HW218361  13.968   3.444  10.783 -0.0522  0.7185 -1.2263
 2128SOL     OW18362   6.278   9.656   3.345 -0.3685 -0.6429 -0.3723
 2128SOL    HW118363   6.319   9.741   3.328 -3.5211  0.8467 -1.4137
 2128SOL    HW218364   6.246   9.663   3.435 -0.1992 -0.9467 -0.2874
 2129SOL     OW18365   2.175   5.676   4.917  0.2693  0.2754 -0.1550
 2129SOL    HW118366   2.111   5.605   4.909  0.9517 -0.4676  0.7689
 2129SOL    HW218367   2.219   5.678   4.832 -2.0382  1.8915 -1.4129
 2130SOL     OW18368   5.109   4.044  10.416  0.0417 -0.7879  0.0896
 2130SOL    HW118369   5.090   4.092  10.336  1.2975 -0.4156 -0.0010
 2130SOL    HW218370   5.048   4.081  10.481  0.7926  0.7726 -0.0456
 2131SOL     OW18371  13.246   9.189   7.097 -0.7640  0.2296  0.4207
 2131SOL    HW118372  13.261   9.151   7.184 -0.7201  0.3246  0.4541
 2131SOL    HW218373  13.305   9.264   7.093 -0.5634  0.0633  0.2030
 2132SOL     OW18374  13.193   4.775  10.785 -0.6384 -0.1027  0.6044
 2132SOL    HW118375  13.264   4.838  10.797  0.1484 -0.3078 -2.3423
 2132SOL    HW218376  13.115   4.820  10.819  0.4772  1.0193  1.7716
 2133SOL     OW18377   0.406   9.799   5.305  0.1978 -0.0925  0.5916
 2133SOL    HW118378   0.341   9.808   5.235  0.0990  0.8857  0.7896
 2133SOL    HW218379   0.361   9.749   5.373 -0.8321  1.6437  1.2611
 2134SOL     OW18380   1.386   3.110  12.906  0.3621  0.4212  0.0540
 2134SOL    HW118381   1.407   3.056  12.830  1.6542 -0.4156  0.9649
 2134SOL    HW218382   1.290   3.116  12.906  0.3183  0.0877 -1.3757
 2135SOL     OW18383   2.804   0.324   2.414  0.1408  0.0343 -0.7101
 2135SOL    HW118384   2.738   0.365   2.470  0.1516 -0.2735 -0.4704
 2135SOL    HW218385   2.851   0.398   2.375 -1.1451  0.2902 -1.8531
 2136SOL     OW18386  11.580  12.816   8.084  0.2669 -0.5979 -0.3181
 2136SOL    HW118387  11.663  12.859   8.062  1.4289 -2.6582 -0.2330
 2136SOL    HW218388  11.605  12.748   8.147 -1.4156 -1.5614 -0.6482
 2137SOL     OW18389   0.083   9.302   8.969  0.4601 -0.3756 -0.4281
 2137SOL    HW118390   0.119   9.390   8.980 -1.5928  0.3315  1.2158
 2137SOL    HW218391   0.154   9.252   8.928  2.3836  1.5253  0.3868
 2138SOL     OW18392   5.330   7.829   5.088  0.2784  0.3431 -0.3590
 2138SOL    HW118393   5.281   7.911   5.080  0.9131  0.8138  0.4524
 2138SOL    HW218394   5.296   7.789   5.168  1.5573  0.9389  0.5259
 2139SOL     OW18395   4.505   2.217   1.252  0.2856  0.0238  0.2907
 2139SOL    HW118396   4.543   2.214   1.340 -0.5636 -4.3608  0.7710
 2139SOL    HW218397   4.434   2.281   1.259  0.6949  0.3237  2.5914
 2140SOL     OW18398   0.264   0.337  14.021 -0.6183 -0.7751  0.1437
 2140SOL    HW118399   0.324   0.344  13.947 -2.6932  0.7908 -1.5298
 2140SOL    HW218400   0.321   0.340  14.099  1.6073 -2.0937 -1.3206
 2141SOL     OW18401  13.425   1.765   0.825 -0.6008 -0.1367  0.2094
 2141SOL    HW118402  13.450   1.749   0.734 -0.1420  1.0118  0.1092
 2141SOL    HW218403  13.458   1.690   0.873  2.4309  0.9122 -0.0444
 2142SOL     OW18404   3.985   4.227   2.797  0.6566  0.3374  0.5890
 2142SOL    HW118405   4.005   4.298   2.736  0.9295  0.4784  0.8428
 2142SOL    HW218406   4.071   4.191   2.820  0.5971  0.6877  1.3764
 2143SOL     OW18407  11.993   5.224  12.441  0.4355 -0.3277 -0.2277
 2143SOL    HW118408  11.994   5.158  12.510  0.5727  0.6801  0.7398
 2143SOL    HW218409  11.921   5.282  12.464 -0.4944 -0.8181 -1.7513
 2144SOL     OW18410   2.133   2.304   5.235  0.3705 -0.6081  0.1843
 2144SOL    HW118411   2.225   2.284   5.218  0.4234 -0.8978  0.7882
 2144SOL    HW218412   2.107   2.363   5.163  1.5527  1.0395  1.0607
 2145SOL     OW18413   5.762   2.124   8.517 -0.5919 -0.0907 -0.2139
 2145SOL    HW118414   5.816   2.059   8.561  0.6089  1.3755  0.6060
 2145SOL    HW218415   5.710   2.074   8.454  0.3863 -1.7893  0.2601
 2146SOL     OW18416   3.406  12.948   9.941  0.0763 -0.6714 -0.1796
 2146SOL    HW118417   3.428  13.032   9.899 -2.4358  0.8741  1.3238
 2146SOL    HW218418   3.376  12.893   9.869  0.3979  0.2181 -1.0238
 2147SOL     OW18419   1.315   4.856   8.314  0.7885 -0.7254 -0.1263
 2147SOL    HW118420   1.387   4.916   8.294 -0.5392  0.2344 -2.3106
 2147SOL    HW218421   1.238   4.912   8.320 -0.0065 -1.8858  0.9640
 2148SOL     OW18422   4.962  11.753   0.399  0.1715  0.3955 -0.2169
 2148SOL    HW118423   5.013  11.778   0.322 -2.9195  0.9657 -2.2976
 2148SOL    HW218424   4.976  11.825   0.461  2.3598  0.1726 -0.4033
 2149SOL     OW18425   9.452  13.046   9.819 -0.0688 -0.1259 -0.2895
 2149SOL    HW118426   9.410  13.003   9.744  1.8615 -0.2609 -1.3613
 2149SOL    HW218427   9.422  12.997   9.895 -1.8003 -0.2199 -0.9795
 2150SOL     OW18428   2.681  10.909   9.609  0.1946  0.0155 -0.2038
 2150SOL    HW118429   2.617  10.907   9.538  0.5313  1.7031 -0.6132
 2150SOL    HW218430   2.629  10.910   9.689 -0.2324 -0.2471 -0.4735
 2151SOL     OW18431   9.057   2.931   0.664 -0.8940  0.2037 -0.9380
 2151SOL    HW118432   9.086   2.899   0.578 -0.0915  0.1960 -0.6691
 2151SOL    HW218433   9.007   2.858   0.700 -0.2874 -0.2192 -0.9354
 2152SOL     OW18434   4.314   0.467   8.051 -0.2256  0.4514  0.2940
 2152SOL    HW118435   4.370   0.501   8.121  0.3408 -1.2699  0.7235
 2152SOL    HW218436   4.346   0.378   8.036  0.4043  1.0712 -2.9070
 2153SOL     OW18437   0.225   4.227   0.118 -0.0868 -0.1541 -0.3773
 2153SOL    HW118438   0.202   4.319   0.131 -1.5380 -0.2622 -1.8761
 2153SOL    HW218439   0.299   4.230   0.057  0.7780  0.0194  0.6321
 2154SOL     OW18440  13.110   2.265   2.256  0.3924  0.2771  0.4430
 2154SOL    HW118441  13.110   2.353   2.293 -1.8120  1.1415 -1.3286
 2154SOL    HW218442  13.043   2.269   2.187  1.2677 -2.3844 -0.6745
 2155SOL     OW18443  13.809  11.916   7.243  1.1064  0.4928 -0.0735
 2155SOL    HW118444  13.842  11.954   7.324  1.2804  0.2367 -0.0221
 2155SOL    HW218445  13.887  11.907   7.187  1.7499 -2.9474  1.1457
 2156SOL     OW18446   9.469   2.337  13.003  0.3306  0.1303  0.3199
 2156SOL    HW118447   9.527   2.295  13.066 -0.8589 -1.1927  0.5923
 2156SOL    HW218448   9.443   2.267  12.943  1.7402  1.4175 -1.9548
 2157SOL     OW18449   5.223   9.355  12.363  0.1222  0.0794 -0.0581
 2157SOL    HW118450   5.127   9.351  12.361  0.1496 -3.0301 -1.5944
 2157SOL    HW218451   5.247   9.294  12.433  0.9600 -0.6651 -0.9716
 2158SOL     OW18452  13.777   2.280   1.873 -0.4759 -0.7523 -0.3231
 2158SOL    HW118453  13.727   2.359   1.855  0.5054 -0.0196  0.1041
 2158SOL    HW218454  13.744   2.216   1.811 -2.0216 -0.3246  0.0245
 2159SOL     OW18455   7.992  11.082   9.626 -0.5559  0.0137 -0.0306
 2159SOL    HW118456   7.982  11.176   9.639 -0.8222  0.2968 -1.9475
 2159SOL    HW218457   7.906  11.053   9.595 -0.1535 -0.6314 -0.5801
 2160SOL     OW18458   2.824   3.584   0.013 -0.0274 -0.3107  0.3198
 2160SOL    HW118459   2.803   3.582  -0.080  1.9182 -1.3025 -0.1593
 2160SOL    HW218460   2.826   3.677   0.035 -1.9571 -0.0971 -0.2209
 2161SOL     OW18461  12.487   6.668   5.675 -0.1273  0.0494  0.1156
 2161SOL    HW118462  12.573   6.673   5.716  0.2372  0.0876 -0.6458
 2161SOL    HW218463  12.454   6.581   5.698  0.3574 -0.1848 -0.0745
 2162SOL     OW18464  10.304   0.143   2.894  0.0746 -0.3180 -0.4918
 2162SOL    HW118465  10.233   0.135   2.958 -0.2935  0.6687 -0.7563
 2162SOL    HW218466  10.328   0.235   2.897  1.7140 -0.7303 -0.0439
 2163SOL     OW18467   0.207   6.165   8.278  0.1271  0.1357  0.2165
 2163SOL    HW118468   0.157   6.244   8.256  0.4235  0.0913 -0.6841
 2163SOL    HW218469   0.261   6.150   8.200 -0.6205 -1.5009 -0.0245
 2164SOL     OW18470  11.066   6.543   3.437  0.4560  0.0336 -0.0881
 2164SOL    HW118471  11.151   6.538   3.395 -0.3090 -2.1216 -1.5480
 2164SOL    HW218472  11.027   6.457   3.424 -1.8043  0.8171  0.8636
 2165SOL     OW18473   1.720  12.373  10.168 -0.5464 -0.4115  0.4001
 2165SOL    HW118474   1.699  12.327  10.249 -0.6228  0.0291  0.6306
 2165SOL    HW218475   1.807  12.409  10.182  0.3294 -2.0719 -0.4848
 2166SOL     OW18476   5.434   7.839  13.597  0.6539  0.7832  0.2235
 2166SOL    HW118477   5.410   7.926  13.630  1.4524  1.3619 -0.6691
 2166SOL    HW218478   5.476   7.796  13.671 -0.8187  0.6790  1.0524
 2167SOL     OW18479  12.694   5.133   2.129  0.1370 -0.5779  0.1518
 2167SOL    HW118480  12.744   5.126   2.210  0.6057 -0.1009 -0.0889
 2167SOL    HW218481  12.745   5.193   2.075 -0.9549  0.3426  0.1075
 2168SOL     OW18482   7.999   5.828   9.518  0.1040 -0.7254  0.2780
 2168SOL    HW118483   8.024   5.749   9.567 -0.4009 -0.4266  1.0381
 2168SOL    HW218484   8.059   5.896   9.550 -0.7802 -0.3238  1.1403
 2169SOL     OW18485  12.289  13.654  12.789  0.0239 -0.3677  0.3585
 2169SOL    HW118486  12.259  13.592  12.855 -0.3643 -1.8434 -1.1375
 2169SOL    HW218487  12.360  13.609  12.744 -0.0253  0.4111 -0.5370
 2170SOL     OW18488   4.488   7.827  10.095 -0.1503 -0.6271  0.2811
 2170SOL    HW118489   4.458   7.804  10.183 -0.5931 -1.7715 -0.1444
 2170SOL    HW218490   4.458   7.917  10.083 -0.0145 -0.4242  1.3231
 2171SOL     OW18491   0.019   8.822   9.688 -0.3111 -0.2600  0.2244
 2171SOL    HW118492  -0.005   8.776   9.769  0.6792  1.5521  1.6086
 2171SOL    HW218493  -0.060   8.870   9.664  0.0531  0.9853  1.4214
 2172SOL     OW18494   1.284  12.228  11.933 -0.1775 -0.3170  0.1528
 2172SOL    HW118495   1.272  12.190  11.846  0.2489  0.6464 -0.3285
 2172SOL    HW218496   1.359  12.181  11.969 -0.1342 -0.4642 -0.1260
 2173SOL     OW18497  11.495   1.862   3.377 -0.0419 -0.3451 -0.0520
 2173SOL    HW118498  11.440   1.818   3.314  0.0228 -1.0811  0.3921
 2173SOL    HW218499  11.453   1.847   3.462  1.7145 -2.4835  0.5528
 2174SOL     OW18500   0.324   9.314   0.999  0.4798 -0.2171 -0.0269
 2174SOL    HW118501   0.345   9.267   0.919  1.3468  0.2609 -0.0905
 2174SOL    HW218502   0.366   9.399   0.989 -0.8027  0.4671  0.2234
 2175SOL     OW18503  12.923   6.660   1.064  0.2351 -0.2104 -0.3475
 2175SOL    HW118504  12.830   6.668   1.087  0.3200 -1.4127  0.4771
 2175SOL    HW218505  12.958   6.598   1.127  1.2837 -0.9018 -1.5690
 2176SOL     OW18506   1.552   9.493   9.939 -0.1402 -0.3196  0.3702
 2176SOL    HW118507   1.550   9.521   9.847 -0.2267  2.1286  1.0313
 2176SOL    HW218508   1.465   9.457   9.955 -0.6050  0.5330 -0.1631
 2177SOL     OW18509   4.426   2.940   9.297 -0.1989 -0.5492 -0.4672
 2177SOL    HW118510   4.347   2.920   9.347 -1.5057 -0.0075 -2.1803
 2177SOL    HW218511   4.401   2.923   9.206  1.6146 -0.1974 -1.0684
 2178SOL     OW18512  10.795   4.891   1.947  0.5126 -0.0459  0.0392
 2178SOL    HW118513  10.743   4.829   1.895  0.6893 -0.6583  0.5875
 2178SOL    HW218514  10.877   4.899   1.899  0.6241 -0.5072  0.1458
 2179SOL     OW18515   2.566   7.129   4.116 -0.0076 -0.2190  0.0093
 2179SOL    HW118516   2.557   7.179   4.197  0.3060  2.0778 -1.2716
 2179SOL    HW218517   2.557   7.194   4.047 -1.7226 -2.3020 -1.8873
 2180SOL     OW18518   8.673   5.323   2.087  0.8341 -0.0855  0.2140
 2180SOL    HW118519   8.629   5.318   2.002 -0.9818  1.6082  0.9759
 2180SOL    HW218520   8.719   5.407   2.086  3.1755 -1.2893 -0.0900
 2181SOL     OW18521   2.017  12.848   9.601  0.1437  0.4155 -0.5165
 2181SOL    HW118522   1.939  12.830   9.548  0.0467 -2.1665  0.3342
 2181SOL    HW218523   1.983  12.858   9.690  0.7443 -1.1893 -0.0662
 2182SOL     OW18524   3.608   3.275   0.852  0.4238 -0.5481 -0.0598
 2182SOL    HW118525   3.594   3.255   0.760  2.3837 -0.7429 -0.3440
 2182SOL    HW218526   3.569   3.361   0.864  1.7689  0.3130 -1.5420
 2183SOL     OW18527  10.124   4.726   9.497  0.2890  0.0013  0.1345
 2183SOL    HW118528  10.109   4.769   9.413  0.4544  1.0507  0.6257
 2183SOL    HW218529  10.122   4.632   9.477  2.6376  0.2173 -1.4616
 2184SOL     OW18530   9.010   1.793   4.875  0.5082 -0.6228  0.1719
 2184SOL    HW118531   9.037   1.856   4.808  0.8112 -0.5607  0.3476
 2184SOL    HW218532   9.088   1.782   4.929 -0.1722  0.4493  1.4042
 2185SOL     OW18533  12.979   1.378   5.689  0.5991 -0.1147  0.0609
 2185SOL    HW118534  13.046   1.319   5.723 -0.5078 -1.7593 -0.5073
 2185SOL    HW218535  12.929   1.405   5.765  1.1014  0.1188  0.3185
 2186SOL     OW18536   6.395   9.455   9.390 -0.4023 -0.0561  0.8241
 2186SOL    HW118537   6.481   9.425   9.364 -0.8567 -0.6278 -0.0651
 2186SOL    HW218538   6.395   9.549   9.371 -0.9449 -0.5385 -2.0454
 2187SOL     OW18539   3.890   7.142   4.822 -0.4951  0.5844  0.5643
 2187SOL    HW118540   3.892   7.237   4.809  0.9142  0.3502 -1.1576
 2187SOL    HW218541   3.820   7.111   4.764 -0.3607  0.4675  0.4659
 2188SOL     OW18542   3.800   4.547  12.737  0.2560 -0.2812  0.1981
 2188SOL    HW118543   3.829   4.637  12.719  0.9593 -0.5842 -0.2246
 2188SOL    HW218544   3.713   4.541  12.696  0.7884 -0.2020 -0.9826
 2189SOL     OW18545   3.450   3.398   1.964 -0.5016  0.5448 -0.2952
 2189SOL    HW118546   3.460   3.493   1.973 -1.7431  0.9280 -2.3617
 2189SOL    HW218547   3.398   3.386   1.884 -1.6174 -1.8415  0.6816
 2190SOL     OW18548  11.554  12.410   1.323 -0.5573 -0.0442  0.6858
 2190SOL    HW118549  11.628  12.389   1.380 -0.6106  0.2453  0.8595
 2190SOL    HW218550  11.547  12.333   1.265  0.6185  0.4181 -0.1172
 2191SOL     OW18551   5.066  10.053   7.944 -0.2669  0.0653 -0.1804
 2191SOL    HW118552   4.978  10.060   7.906  0.0165  0.6194 -0.7708
 2191SOL    HW218553   5.111  10.131   7.912  0.7597 -0.7413 -0.7403
 2192SOL     OW18554   5.989   0.659   9.562 -0.1203 -0.2850  0.1451
 2192SOL    HW118555   6.043   0.652   9.483 -0.7463 -1.1621 -0.2192
 2192SOL    HW218556   6.017   0.586   9.617  1.7645  1.4679  1.6992
 2193SOL     OW18557  12.335  13.241   8.354 -0.0147  0.0835  0.3161
 2193SOL    HW118558  12.323  13.333   8.380  0.2298 -0.0495  0.9011
 2193SOL    HW218559  12.393  13.205   8.421 -0.5525 -0.6523  0.3894
 2194SOL     OW18560   8.596   3.432   8.234  0.2100  0.1418  0.1757
 2194SOL    HW118561   8.526   3.484   8.195  0.2724 -1.3487 -2.1258
 2194SOL    HW218562   8.676   3.481   8.214 -0.0481  1.3814  2.0053
 2195SOL     OW18563   9.195   2.517   5.702 -0.1116 -0.3679 -0.2795
 2195SOL    HW118564   9.251   2.554   5.634  0.1294 -0.6059 -0.2112
 2195SOL    HW218565   9.243   2.441   5.734  0.3453  0.4374  1.0135
 2196SOL     OW18566  12.414   6.994  11.017  0.4183  0.8183 -0.5138
 2196SOL    HW118567  12.336   6.952  11.053  0.2101  1.5688 -0.0554
 2196SOL    HW218568  12.399   6.998  10.923 -0.2254  1.2085 -0.3982
 2197SOL     OW18569   9.870   3.767   8.278 -0.5709 -0.1559  0.0236
 2197SOL    HW118570   9.836   3.843   8.325  0.8194 -0.1210  1.0384
 2197SOL    HW218571   9.849   3.784   8.186  0.6863  2.0347  0.0728
 2198SOL     OW18572  12.711  11.662   5.647 -1.1393 -0.2077 -0.3861
 2198SOL    HW118573  12.670  11.672   5.733 -0.6592  0.6266 -0.2431
 2198SOL    HW218574  12.789  11.609   5.663 -1.6156 -0.9588 -0.4951
 2199SOL     OW18575   4.033   5.960  11.358 -0.4302  0.1065 -0.1658
 2199SOL    HW118576   3.968   6.030  11.360  2.0342  2.5529  0.0149
 2199SOL    HW218577   4.064   5.954  11.448  1.0923  0.5258 -0.6391
 2200SOL     OW18578   9.031  13.153  10.245  0.3587  0.0051  0.2600
 2200SOL    HW118579   9.057  13.153  10.153  1.0400 -1.2409  0.4294
 2200SOL    HW218580   9.095  13.210  10.288 -1.0151  2.0483 -0.2710
 2201SOL     OW18581   8.000   3.694  14.000 -0.4390  0.7700 -0.1328
 2201SOL    HW118582   8.062   3.764  14.019  0.8244  0.4130 -2.5169
 2201SOL    HW218583   8.051   3.614  14.011 -0.8871  0.4048 -0.6418
 2202SOL     OW18584   9.833   0.571   6.677  0.0566 -0.5291 -0.0749
 2202SOL    HW118585   9.801   0.535   6.760  0.8789 -0.0498  0.4621
 2202SOL    HW218586   9.760   0.625   6.645 -0.0597 -0.2628  0.6260
 2203SOL     OW18587   8.747  13.314   5.167  0.2172  0.1700 -0.3511
 2203SOL    HW118588   8.741  13.407   5.188 -1.4741  0.2080 -0.8197
 2203SOL    HW218589   8.763  13.271   5.251  0.8131  0.8577 -0.1036
 2204SOL     OW18590   3.962   5.133   8.793  0.0216  0.3402  0.1104
 2204SOL    HW118591   4.057   5.143   8.797  0.0827 -0.2090  0.0480
 2204SOL    HW218592   3.935   5.185   8.717  0.4287 -0.5846 -0.6885
 2205SOL     OW18593   5.310   6.950   9.299 -0.4897 -0.7162  0.1180
 2205SOL    HW118594   5.350   6.964   9.385  0.6955 -1.4388 -0.2923
 2205SOL    HW218595   5.240   7.016   9.294  0.4844  0.4290  0.9668
 2206SOL     OW18596   6.410   5.486  14.040  0.7173  0.4603 -0.4120
 2206SOL    HW118597   6.497   5.462  14.072  0.1667 -1.9008 -0.5566
 2206SOL    HW218598   6.363   5.403  14.029 -0.9638  1.5283 -2.1012
 2207SOL     OW18599   2.283  13.731  12.416  0.3576  0.0289  0.9430
 2207SOL    HW118600   2.258  13.790  12.344  2.2645  0.1935  0.3566
 2207SOL    HW218601   2.217  13.662  12.414 -0.0335  0.3986 -0.5296
 2208SOL     OW18602  13.769   7.823   9.483  0.0129 -0.1818 -0.2216
 2208SOL    HW118603  13.782   7.914   9.456 -1.9962 -0.1528 -1.2958
 2208SOL    HW218604  13.727   7.829   9.569  0.1888 -0.0978 -0.1427
 2209SOL     OW18605   6.859   5.215   9.304  0.1650 -0.3610  0.3531
 2209SOL    HW118606   6.802   5.219   9.381 -0.4760 -0.6454 -0.1023
 2209SOL    HW218607   6.939   5.259   9.332 -0.5182  0.6513  0.7905
 2210SOL     OW18608  12.828   7.798  11.256 -0.1891  0.0052 -0.6878
 2210SOL    HW118609  12.757   7.849  11.295  0.3667  0.5000 -0.2870
 2210SOL    HW218610  12.827   7.715  11.303  1.4776  1.1627  1.6069
 2211SOL     OW18611   5.219  10.421   5.892 -0.5054 -0.1066  0.1728
 2211SOL    HW118612   5.304  10.464   5.903 -0.9949  0.8875  0.1935
 2211SOL    HW218613   5.191  10.400   5.982 -0.0812 -0.8458  0.1351
 2212SOL     OW18614   7.651   0.590  12.946  0.1694  0.0543  0.0222
 2212SOL    HW118615   7.656   0.496  12.930  2.0960  0.2079 -0.5246
 2212SOL    HW218616   7.724   0.609  13.005  0.1852  1.3029 -0.3647
 2213SOL     OW18617   3.188  12.016  11.655 -0.4651  0.1735  0.1916
 2213SOL    HW118618   3.222  12.038  11.742  0.6202 -0.2963 -0.1000
 2213SOL    HW218619   3.209  11.924  11.643 -1.4867 -0.0309 -0.1916
 2214SOL     OW18620  11.919   5.510  13.142  0.0447  0.4785 -0.0382
 2214SOL    HW118621  11.852   5.445  13.120  1.3978 -1.1535  0.4622
 2214SOL    HW218622  11.893   5.588  13.093 -2.8361  0.2979  0.9932
 2215SOL     OW18623   3.785   2.478  10.804  0.0237 -0.3464  0.6826
 2215SOL    HW118624   3.697   2.515  10.799  0.8524  1.6074 -0.8595
 2215SOL    HW218625   3.773   2.392  10.844 -2.4668  0.1748  1.2086
 2216SOL     OW18626   0.637   9.438   6.337 -0.3385 -0.2584  0.0167
 2216SOL    HW118627   0.676   9.412   6.254  2.6663  3.6492 -0.0701
 2216SOL    HW218628   0.694   9.399   6.403  0.6158  1.0604  0.0151
 2217SOL     OW18629   0.060   0.946   8.138 -0.1185 -0.1991 -0.4508
 2217SOL    HW118630   0.002   0.894   8.194 -1.2022 -1.6451 -2.7273
 2217SOL    HW218631   0.003   0.977   8.068  1.0233  2.1718 -0.4049
 2218SOL     OW18632  11.961   1.543   5.338 -0.0971  0.2249  0.2204
 2218SOL    HW118633  11.878   1.549   5.385 -0.6646  1.4655 -0.8958
 2218SOL    HW218634  12.023   1.591   5.393 -0.4727  0.6148  0.3079
 2219SOL     OW18635  10.386  10.839   2.176  0.0795  0.1109 -0.6725
 2219SOL    HW118636  10.399  10.773   2.244  0.5008  0.6105 -0.2609
 2219SOL    HW218637  10.292  10.858   2.179 -0.1317 -0.7907 -1.1064
 2220SOL     OW18638   4.582   9.776  13.245 -0.5344 -0.2022 -0.2235
 2220SOL    HW118639   4.646   9.719  13.290 -1.2157  0.2804  1.4321
 2220SOL    HW218640   4.636   9.840  13.199  0.2092 -0.1251  0.7163
 2221SOL     OW18641  12.749   2.495   5.255  0.5589  0.0488  0.0351
 2221SOL    HW118642  12.725   2.516   5.164  2.3026  2.8550  0.0829
 2221SOL    HW218643  12.845   2.500   5.255  0.7491 -2.3896  1.5539
 2222SOL     OW18644   7.783   7.348   9.776  0.5314 -0.8051  0.4817
 2222SOL    HW118645   7.834   7.429   9.789 -1.4462  0.6267 -0.2344
 2222SOL    HW218646   7.776   7.340   9.681 -2.1094  0.1296  0.5204
 2223SOL     OW18647   0.803   5.098   0.477 -0.5749 -0.3380  0.0167
 2223SOL    HW118648   0.893   5.073   0.498 -0.4608 -0.6184 -0.7889
 2223SOL    HW218649   0.751   5.062   0.549 -0.2333 -1.6031 -0.3533
 2224SOL     OW18650   2.709   9.319  11.962  0.3136 -0.3188 -0.1193
 2224SOL    HW118651   2.706   9.332  11.868  1.3516  0.7783 -0.0267
 2224SOL    HW218652   2.653   9.243  11.978 -1.0174  0.3436 -1.4398
 2225SOL     OW18653   6.705   3.961   3.796  0.4279  0.6050 -0.7379
 2225SOL    HW118654   6.755   4.040   3.817  0.4289  0.6620 -0.9463
 2225SOL    HW218655   6.744   3.930   3.714  0.6648  0.1866 -0.4660
 2226SOL     OW18656   6.722   3.608   7.477 -0.0684  0.5799 -0.0448
 2226SOL    HW118657   6.701   3.516   7.458 -1.0119  0.4682  1.4104
 2226SOL    HW218658   6.805   3.623   7.432 -1.0488 -0.2789 -2.3184
 2227SOL     OW18659   3.637   0.348   1.878  0.4698  0.3491 -0.5050
 2227SOL    HW118660   3.609   0.405   1.807 -0.1209  1.7925  0.8309
 2227SOL    HW218661   3.557   0.323   1.923  0.9056  0.2903  0.2659
 2228SOL     OW18662   0.782   2.104   4.341  0.2126 -0.3541 -0.1504
 2228SOL    HW118663   0.826   2.188   4.331 -0.4270  0.0195  0.1004
 2228SOL    HW218664   0.815   2.050   4.270  2.3305 -0.6532  0.9853
 2229SOL     OW18665   0.376   1.274  11.573  0.1505  0.1506  0.2506
 2229SOL    HW118666   0.457   1.304  11.614 -0.9211  0.3343  2.3524
 2229SOL    HW218667   0.399   1.189  11.534  2.1420  1.6371 -2.1387
 2230SOL     OW18668   2.414   2.361  12.569  0.0208 -0.1022  0.4212
 2230SOL    HW118669   2.369   2.407  12.640  0.8236  3.1225 -0.9895
 2230SOL    HW218670   2.352   2.364  12.496  0.1245 -1.2622  0.2759
 2231SOL     OW18671   9.121  12.410   5.614  0.0711 -0.6686 -0.1201
 2231SOL    HW118672   9.109  12.337   5.553  0.7697 -1.3129  0.4955
 2231SOL    HW218673   9.194  12.383   5.670 -0.4576 -0.0216  0.9058
 2232SOL     OW18674   5.359   9.392   3.608 -0.8394 -0.6887 -0.1851
 2232SOL    HW118675   5.279   9.441   3.591 -0.8583  0.3154  2.4707
 2232SOL    HW218676   5.420   9.423   3.541 -2.3562 -0.8165 -1.6925
 2233SOL     OW18677   9.622   1.537   1.665  0.3027 -0.3816 -0.1483
 2233SOL    HW118678   9.581   1.595   1.602 -0.8711 -0.7311  0.2564
 2233SOL    HW218679   9.683   1.484   1.614  0.9369  0.7611 -0.6155
 2234SOL     OW18680   2.515  12.789   8.288  0.3767  0.1500 -0.1267
 2234SOL    HW118681   2.480  12.791   8.377 -0.4864 -0.0066 -0.4519
 2234SOL    HW218682   2.531  12.881   8.267 -0.2577  0.2691 -0.1223
 2235SOL     OW18683   9.818  10.486  12.875 -0.2604  0.6172 -0.4001
 2235SOL    HW118684   9.898  10.537  12.859 -0.4337  1.3757  1.0262
 2235SOL    HW218685   9.801  10.443  12.791  1.2104  1.0468 -0.9638
 2236SOL     OW18686   2.141   7.398   0.675 -0.0731 -0.3065  0.0509
 2236SOL    HW118687   2.169   7.411   0.766 -1.1941 -0.7381  0.4847
 2236SOL    HW218688   2.100   7.311   0.675 -2.0088  0.5501 -0.3408
 2237SOL     OW18689   0.313   1.655   8.230  0.2853  0.9508 -0.0402
 2237SOL    HW118690   0.346   1.600   8.158  1.3268  1.8139 -0.2497
 2237SOL    HW218691   0.311   1.744   8.193 -0.3342  1.2224  0.6306
 2238SOL     OW18692   3.961  13.755   1.575  0.2633 -0.0381 -0.3073
 2238SOL    HW118693   4.013  13.711   1.642  2.0642 -0.3264 -1.8108
 2238SOL    HW218694   4.024  13.806   1.525 -0.6462 -1.2687 -2.9220
 2239SOL     OW18695   9.917   9.428   9.952  0.3287  0.1226 -0.0349
 2239SOL    HW118696   9.901   9.397  10.040 -1.0178 -0.6063 -0.5149
 2239SOL    HW218697   9.962   9.512   9.964 -0.4072  0.3412  1.3386
 2240SOL     OW18698   7.060   1.029   6.966 -0.6074 -0.2307 -0.3924
 2240SOL    HW118699   6.994   0.969   7.002  0.3725  0.2742  2.5546
 2240SOL    HW218700   7.062   1.101   7.029  0.4379  1.3942 -2.1995
 2241SOL     OW18701   3.857   7.844   4.013  0.4993  0.5862 -0.5456
 2241SOL    HW118702   3.870   7.749   4.010  0.1027  0.5211 -0.2987
 2241SOL    HW218703   3.814   7.860   4.097  0.1940  0.9402 -0.7634
 2242SOL     OW18704  10.043   7.392   0.983  0.1250 -0.3426 -0.0744
 2242SOL    HW118705  10.051   7.472   0.933 -0.7005  1.1143  1.9939
 2242SOL    HW218706   9.951   7.386   1.007  0.6402 -0.2975  2.2194
 2243SOL     OW18707  11.488  10.024   6.528 -0.4587 -0.2887 -0.4144
 2243SOL    HW118708  11.501  10.047   6.620 -0.3447  0.1752 -0.5457
 2243SOL    HW218709  11.576  10.004   6.496 -0.7057 -2.6085  0.1273
 2244SOL     OW18710   8.629  13.255   5.720  0.0076 -0.2401 -0.4778
 2244SOL    HW118711   8.673  13.245   5.635  2.0130  0.7101  0.3671
 2244SOL    HW218712   8.616  13.166   5.751 -0.4399 -0.5914 -1.6204
 2245SOL     OW18713  12.956   6.972   3.449 -0.4791  0.2185  0.1682
 2245SOL    HW118714  13.034   7.026   3.463  0.6909 -2.0611  3.9201
 2245SOL    HW218715  12.991   6.888   3.420 -1.1886 -1.2716  3.1922
 2246SOL     OW18716   3.186   4.682  10.652  0.0829  0.0372  0.2038
 2246SOL    HW118717   3.252   4.728  10.704  0.5263 -1.9239  1.4612
 2246SOL    HW218718   3.103   4.716  10.684  0.3773 -0.5432  1.6602
 2247SOL     OW18719   5.301   0.878   0.424  0.0491  0.6437  0.0368
 2247SOL    HW118720   5.287   0.961   0.469 -0.9157  0.7403 -0.4249
 2247SOL    HW218721   5.258   0.813   0.480 -1.5716  0.8237 -0.9304
 2248SOL     OW18722  14.001   0.290   8.000  0.4166  0.1327  0.1051
 2248SOL    HW118723  13.945   0.213   7.991  2.1681 -1.0300 -1.4688
 2248SOL    HW218724  14.060   0.286   7.925  1.3120  2.4073  0.6048
 2249SOL     OW18725   2.467   3.567   7.612 -0.0519  0.1442  0.7905
 2249SOL    HW118726   2.558   3.595   7.605 -0.6172  2.1518  0.8133
 2249SOL    HW218727   2.416   3.646   7.595 -1.8057 -0.9436  0.7122
 2250SOL     OW18728  10.068   3.743   1.810 -0.1687  0.0348 -0.6332
 2250SOL    HW118729  10.153   3.725   1.769  2.0524  0.7361  3.1378
 2250SOL    HW218730  10.014   3.668   1.787  2.3141 -1.7036 -1.2304
 2251SOL     OW18731   0.533   2.940   5.595  0.1183 -0.4050  0.6702
 2251SOL    HW118732   0.545   2.943   5.690  0.6588  1.4828  0.5841
 2251SOL    HW218733   0.560   3.027   5.565 -0.1231 -0.9423 -1.2097
 2252SOL     OW18734   6.962   0.048  13.026 -0.1811 -0.3215 -0.0873
 2252SOL    HW118735   6.993   0.057  12.936  0.3144  0.7343  0.1611
 2252SOL    HW218736   6.867   0.058  13.021 -0.3383 -1.8842 -0.6653
 2253SOL     OW18737  13.787  13.684  11.707  0.0580 -0.0052 -0.1584
 2253SOL    HW118738  13.775  13.589  11.703  1.3868 -0.1755 -0.7238
 2253SOL    HW218739  13.865  13.700  11.654  0.2039  1.3428  0.4283
 2254SOL     OW18740   7.597   5.395  13.963 -0.2247  0.8152 -0.0421
 2254SOL    HW118741   7.538   5.419  13.891  0.8086  1.6304 -0.6337
 2254SOL    HW218742   7.668   5.346  13.921  0.6018  1.6556  0.3504
 2255SOL     OW18743   1.517   1.707  13.670 -0.4657 -0.2779 -0.3336
 2255SOL    HW118744   1.487   1.780  13.615 -1.6850  0.2526  0.9947
 2255SOL    HW218745   1.564   1.651  13.609 -0.4952  1.0272 -1.6357
 2256SOL     OW18746   1.945   2.938   5.501 -0.2722  0.0459 -0.2229
 2256SOL    HW118747   1.895   2.873   5.452  1.3564 -1.8734  0.5199
 2256SOL    HW218748   2.012   2.888   5.548  0.6248  2.1874  0.9874
 2257SOL     OW18749  13.584   1.969   0.923  0.6011  0.1089 -0.1560
 2257SOL    HW118750  13.503   1.918   0.919  0.7610 -0.1431 -0.2652
 2257SOL    HW218751  13.651   1.909   0.891  0.5882  0.8381 -1.5921
 2258SOL     OW18752   2.882   5.715   9.160 -0.3456 -0.0904 -0.0471
 2258SOL    HW118753   2.863   5.644   9.221 -1.7800  1.7538  1.7897
 2258SOL    HW218754   2.936   5.776   9.210 -1.5654  1.4829 -0.5663
 2259SOL     OW18755  11.266  11.432   5.069  0.1350  0.0596 -0.2439
 2259SOL    HW118756  11.237  11.522   5.052 -1.5721 -0.5370 -0.7313
 2259SOL    HW218757  11.349  11.442   5.115 -0.0124  1.8867 -0.2864
 2260SOL     OW18758   2.776  11.587   1.424 -0.4732 -0.5548 -0.5679
 2260SOL    HW118759   2.778  11.677   1.458 -1.1446 -0.7762  0.0719
 2260SOL    HW218760   2.842  11.541   1.476  0.0158 -0.3928 -1.0339
 2261SOL     OW18761   2.848  10.504   2.404 -0.5236 -0.2557  0.6520
 2261SOL    HW118762   2.867  10.418   2.365 -0.2367 -0.0920  0.4277
 2261SOL    HW218763   2.760  10.525   2.373  0.1441  0.4161 -0.9309
 2262SOL     OW18764   9.797   6.401  11.380  0.4771 -0.0930  0.1870
 2262SOL    HW118765   9.782   6.322  11.431 -0.1661 -0.8551 -1.1317
 2262SOL    HW218766   9.743   6.390  11.302 -0.5292  2.1631  0.4915
 2263SOL     OW18767   1.447   2.082  10.047  0.0310 -0.1188 -0.1301
 2263SOL    HW118768   1.540   2.061  10.055 -0.2976 -0.8223  2.3616
 2263SOL    HW218769   1.401   2.000  10.065 -1.1195  0.4768 -0.2135
 2264SOL     OW18770  11.367  13.236   3.760  0.1908  0.0450  0.1279
 2264SOL    HW118771  11.311  13.158   3.762 -1.5772  1.2607  0.5958
 2264SOL    HW218772  11.376  13.257   3.667  0.3538 -0.4880  0.0209
 2265SOL     OW18773   2.688   8.854   1.030  0.3415  0.1634  0.1705
 2265SOL    HW118774   2.735   8.800   0.966  0.2423 -0.4249  0.5832
 2265SOL    HW218775   2.598   8.855   0.997  0.5678  1.0635 -0.4706
 2266SOL     OW18776   2.929   0.203   5.578  0.0678  0.1203  0.3224
 2266SOL    HW118777   2.984   0.272   5.543 -0.3773 -0.1007 -0.8531
 2266SOL    HW218778   2.841   0.224   5.548  0.0575 -1.4592 -0.9009
 2267SOL     OW18779   8.579   5.383   9.454  0.0568 -0.8036  0.0813
 2267SOL    HW118780   8.577   5.288   9.451  0.8310 -0.8880  1.2391
 2267SOL    HW218781   8.487   5.410   9.457 -0.1588 -1.5788  0.7793
 2268SOL     OW18782   7.652   0.863  13.575  0.1931  0.4007 -0.2208
 2268SOL    HW118783   7.675   0.779  13.535 -0.2581  0.4831 -0.6671
 2268SOL    HW218784   7.701   0.865  13.658  0.4607 -0.1545 -0.3623
 2269SOL     OW18785   3.564   6.443  10.523  0.0588 -0.2459 -0.3370
 2269SOL    HW118786   3.543   6.535  10.539  0.2125 -0.5011  1.5344
 2269SOL    HW218787   3.659   6.442  10.507  0.0482 -0.0736 -0.4078
 2270SOL     OW18788  10.320   3.706   1.679 -0.0278  0.5373  0.1031
 2270SOL    HW118789  10.256   3.679   1.613  1.8522 -0.4649 -1.3890
 2270SOL    HW218790  10.387   3.637   1.678  0.5738  0.9815  2.3907
 2271SOL     OW18791   5.078  11.036  11.890 -0.1349  0.5860 -0.7050
 2271SOL    HW118792   5.170  11.020  11.908 -0.2097 -0.5493 -1.2410
 2271SOL    HW218793   5.078  11.102  11.822  0.2912  0.5370 -0.7558
 2272SOL     OW18794   2.183   9.931   1.236  0.3483 -0.4083 -0.7052
 2272SOL    HW118795   2.147   9.939   1.325 -1.4651  3.3254 -1.5752
 2272SOL    HW218796   2.277   9.944   1.247  0.0775  0.7081  0.6568
 2273SOL     OW18797   5.906   9.309   1.933 -0.0102  0.2650  0.1193
 2273SOL    HW118798   5.896   9.231   1.879  1.1222  1.0341 -1.2695
 2273SOL    HW218799   5.957   9.279   2.008  1.7607 -0.0668 -1.1520
 2274SOL     OW18800  10.969   8.470   5.635  0.5427 -0.8167 -0.6728
 2274SOL    HW118801  10.975   8.540   5.699 -1.2276 -0.0178 -1.3230
 2274SOL    HW218802  11.026   8.498   5.563  2.1617 -1.4927  0.3064
 2275SOL     OW18803  13.470   8.280   2.346  0.2987  0.2394  0.3345
 2275SOL    HW118804  13.479   8.351   2.283  1.8799 -1.4288 -1.4191
 2275SOL    HW218805  13.541   8.295   2.409  0.2897  0.4897  0.2886
 2276SOL     OW18806   1.717   1.114  11.788 -0.1943 -0.3792  0.0623
 2276SOL    HW118807   1.656   1.042  11.770 -0.5935  0.1112 -0.6116
 2276SOL    HW218808   1.662   1.182  11.827  0.0418 -0.1612  0.0131
 2277SOL     OW18809   3.300   8.251   7.070  0.9664  0.1645  0.1273
 2277SOL    HW118810   3.268   8.235   7.159  0.5226 -1.8174 -0.3382
 2277SOL    HW218811   3.322   8.344   7.069  1.6914  0.0827  2.5142
 2278SOL     OW18812   5.741  12.096   9.556 -0.2211 -0.6805 -0.0352
 2278SOL    HW118813   5.647  12.115   9.551  0.2885  1.9086 -1.6237
 2278SOL    HW218814   5.768  12.134   9.639 -0.1947  0.8091 -0.6956
 2279SOL     OW18815   8.879  13.914  11.185  0.3358  0.2375  0.4588
 2279SOL    HW118816   8.932  13.901  11.106  0.8447  1.0526  0.6555
 2279SOL    HW218817   8.823  13.836  11.189  0.4631  0.0776 -0.5731
 2280SOL     OW18818  11.106   8.763  13.331 -0.5476 -0.4918 -0.4016
 2280SOL    HW118819  11.158   8.741  13.408 -2.0457  0.9878  1.1289
 2280SOL    HW218820  11.070   8.680  13.302 -0.2494 -1.0460  0.7523
 2281SOL     OW18821  12.552   5.800   8.070 -0.0810 -0.4010  0.0617
 2281SOL    HW118822  12.600   5.874   8.035 -1.8191  0.0339 -1.5452
 2281SOL    HW218823  12.547   5.738   7.998 -1.9894 -0.3723  0.1107
 2282SOL     OW18824  11.654  12.638   7.624  0.1125 -0.2104  0.1135
 2282SOL    HW118825  11.650  12.733   7.624 -0.7552 -0.2185 -1.2867
 2282SOL    HW218826  11.609  12.612   7.705 -0.2693  0.5493  0.1554
 2283SOL     OW18827   3.004   6.248   1.076 -0.3395 -0.2575 -0.0270
 2283SOL    HW118828   2.912   6.224   1.063 -0.5296  0.3268  0.1947
 2283SOL    HW218829   3.043   6.240   0.989 -0.6185 -0.4321 -0.1387
 2284SOL     OW18830   9.997   7.211  12.466 -0.3980  0.0570  0.2425
 2284SOL    HW118831  10.060   7.170  12.407 -1.3436 -0.9243 -0.1198
 2284SOL    HW218832   9.971   7.291  12.420  1.3833  1.0789  0.9131
 2285SOL     OW18833   6.407  13.029   5.990 -0.3137 -0.1409 -0.1827
 2285SOL    HW118834   6.449  13.005   5.907  0.5019  0.4864  0.0321
 2285SOL    HW218835   6.331  12.971   5.996  1.1932 -2.1915  0.0116
 2286SOL     OW18836   6.886   5.879   9.651 -0.0367  0.2462 -0.0298
 2286SOL    HW118837   6.837   5.875   9.569  0.2883 -0.4119 -0.2038
 2286SOL    HW218838   6.819   5.877   9.719 -0.3024  0.6411 -0.2782
 2287SOL     OW18839   3.623   0.367   7.927 -0.1374 -0.6304  0.1655
 2287SOL    HW118840   3.623   0.402   8.015  0.0964 -0.4819  0.1082
 2287SOL    HW218841   3.577   0.432   7.874 -0.0767 -0.6085  0.1384
 2288SOL     OW18842   8.542  10.736  11.053 -0.3598  0.0326  0.4121
 2288SOL    HW118843   8.638  10.742  11.056 -0.3142 -1.1228  2.3406
 2288SOL    HW218844   8.512  10.785  11.129 -1.2487 -0.5623  0.4643
 2289SOL     OW18845  10.728   7.676   3.317  0.1649 -0.2221 -0.5411
 2289SOL    HW118846  10.700   7.601   3.265  1.7869 -1.1197 -0.2112
 2289SOL    HW218847  10.776   7.731   3.255  2.1799 -1.3383 -0.0854
 2290SOL     OW18848  11.510  12.045   0.840 -0.4791  0.0942 -0.8239
 2290SOL    HW118849  11.549  12.106   0.777 -1.7130  0.7427 -0.9950
 2290SOL    HW218850  11.432  12.012   0.796  0.1705 -1.6447 -0.7267
 2291SOL     OW18851  10.087   2.974   0.884  0.2697 -0.0067  0.1800
 2291SOL    HW118852  10.137   3.044   0.842  1.5006 -0.0641  1.4688
 2291SOL    HW218853  10.031   2.939   0.815  0.3486  1.5903 -0.7342
 2292SOL     OW18854   2.124   4.078  11.525 -0.0678  0.6856 -0.4842
 2292SOL    HW118855   2.040   4.033  11.517 -0.0973  1.0709 -3.1898
 2292SOL    HW218856   2.180   4.036  11.460  0.9172  2.3501 -0.7648
 2293SOL     OW18857   6.077   0.449   1.677 -0.5958  0.7929 -0.6874
 2293SOL    HW118858   5.994   0.436   1.630 -1.6296 -0.9983  1.4574
 2293SOL    HW218859   6.136   0.386   1.637 -1.3966 -0.5421  0.1500
 2294SOL     OW18860   4.043  12.933  12.333  0.2626 -0.7545 -0.3024
 2294SOL    HW118861   3.974  12.957  12.272 -0.8644 -1.1315  0.7814
 2294SOL    HW218862   4.107  12.886  12.279 -0.7470 -1.1591 -1.1922
 2295SOL     OW18863  11.729   4.184   9.061 -0.1479  0.2045  0.6943
 2295SOL    HW118864  11.782   4.113   9.098 -0.7590 -0.1438  0.9050
 2295SOL    HW218865  11.728   4.251   9.130  0.8535  0.6444  0.2990
 2296SOL     OW18866   3.631   0.445   2.221  0.2818  0.5402 -1.2844
 2296SOL    HW118867   3.541   0.422   2.197  1.0155 -1.8975 -1.9644
 2296SOL    HW218868   3.628   0.451   2.317 -0.4552 -0.3385 -1.2281
 2297SOL     OW18869   1.483   5.025   8.816 -0.1752 -0.0088  0.7884
 2297SOL    HW118870   1.432   4.947   8.792 -0.2722  0.4177 -0.4625
 2297SOL    HW218871   1.502   5.068   8.733  0.6333  0.8460  1.3930
 2298SOL     OW18872  11.208   6.924   5.965 -0.1235 -0.1663  0.5173
 2298SOL    HW118873  11.246   6.842   5.933  0.0898  0.8183 -1.9317
 2298SOL    HW218874  11.278   6.965   6.016  0.4438 -0.6255  0.1256
 2299SOL     OW18875   6.891  12.459   6.474  0.4331  0.2092 -0.2624
 2299SOL    HW118876   6.982  12.487   6.465 -0.0511  1.9203 -0.1980
 2299SOL    HW218877   6.847  12.494   6.396 -0.6910  1.7621  1.0179
 2300SOL     OW18878  13.219   0.015   0.592  0.0089 -0.7734  0.5151
 2300SOL    HW118879  13.222  -0.080   0.606 -0.7757 -0.6718  1.4730
 2300SOL    HW218880  13.271   0.029   0.513 -0.9406 -2.1492 -0.3986
 2301SOL     OW18881   1.465   9.438   2.947  0.7163  0.8104 -0.4257
 2301SOL    HW118882   1.464   9.420   3.041  0.3840  2.0920 -0.1672
 2301SOL    HW218883   1.521   9.369   2.910  0.6187  0.1262  0.6646
 2302SOL     OW18884   0.204  14.000  13.090 -0.5135  0.0468  0.1679
 2302SOL    HW118885   0.241  13.937  13.152  3.0188  0.3026 -1.4452
 2302SOL    HW218886   0.176  13.947  13.016 -0.1097  0.1249 -0.0444
 2303SOL     OW18887   7.824  10.213  11.556 -0.2361  0.4176  0.6294
 2303SOL    HW118888   7.776  10.145  11.605  1.1759 -1.5972 -0.6386
 2303SOL    HW218889   7.805  10.194  11.464  1.8957  0.3728  0.1586
 2304SOL     OW18890  11.336  12.827   3.679 -0.5914  0.1042  0.5118
 2304SOL    HW118891  11.291  12.746   3.654 -0.0803  0.5157 -2.0329
 2304SOL    HW218892  11.269  12.895   3.669 -0.7294  0.1546  1.6311
 2305SOL     OW18893   9.464  13.007   4.187 -0.1817 -0.1836 -0.2589
 2305SOL    HW118894   9.506  13.020   4.102  0.0677  0.4783 -0.0450
 2305SOL    HW218895   9.523  12.950   4.236 -0.4752 -0.8182 -0.6308
 2306SOL     OW18896   3.715   0.537   8.692 -0.3248  0.1387  0.3501
 2306SOL    HW118897   3.776   0.463   8.695 -0.3334 -0.0641 -2.0342
 2306SOL    HW218898   3.644   0.511   8.750 -0.2912 -1.7544 -0.3693
 2307SOL     OW18899   9.199   3.522   5.192 -0.7988 -0.2582  0.1874
 2307SOL    HW118900   9.109   3.551   5.204  0.2675  3.3349  0.7896
 2307SOL    HW218901   9.232   3.508   5.281 -0.0071  1.3450  0.1825
 2308SOL     OW18902   4.744   7.277   6.735 -0.4057 -0.4625  0.7007
 2308SOL    HW118903   4.801   7.211   6.695  0.9282  0.3326  1.2089
 2308SOL    HW218904   4.657   7.257   6.702  0.4908 -0.3473 -1.9878
 2309SOL     OW18905   9.620  10.627   2.557  0.4569 -0.1966 -0.0425
 2309SOL    HW118906   9.596  10.545   2.514 -2.6938 -1.4050  3.4326
 2309SOL    HW218907   9.683  10.602   2.624 -0.1528  0.2298  0.7166
 2310SOL     OW18908   3.171   3.014   1.858 -0.4829  0.8652 -0.2109
 2310SOL    HW118909   3.089   3.016   1.810 -1.4069  0.0881  1.2643
 2310SOL    HW218910   3.198   2.922   1.857  0.7512  1.1993 -1.2400
 2311SOL     OW18911  13.543  10.903  13.999  0.3519 -0.0017 -0.1797
 2311SOL    HW118912  13.510  10.969  13.938 -0.7182 -0.3533  0.0005
 2311SOL    HW218913  13.484  10.910  14.075  0.8870 -0.4384  0.2771
 2312SOL     OW18914   7.765   2.089  13.258  0.7069  0.1294  0.2076
 2312SOL    HW118915   7.697   2.046  13.310  0.7216 -0.6172 -0.3626
 2312SOL    HW218916   7.821   2.017  13.227  1.2672  0.6499 -0.0259
 2313SOL     OW18917   2.273  12.443  13.148  0.4049 -0.2385 -0.0240
 2313SOL    HW118918   2.204  12.449  13.215  2.2763  0.7326  1.9442
 2313SOL    HW218919   2.349  12.484  13.189  1.9077 -0.4238 -2.4726
 2314SOL     OW18920   0.599  11.916  10.272  0.2242  0.4755 -0.2691
 2314SOL    HW118921   0.589  11.834  10.223  0.0106 -0.3564  1.1192
 2314SOL    HW218922   0.577  11.985  10.208 -0.0623 -0.5610 -1.3264
 2315SOL     OW18923  10.456   2.058   6.220  0.0481  0.1710  0.0785
 2315SOL    HW118924  10.516   1.987   6.196 -0.0509 -0.1142  0.6464
 2315SOL    HW218925  10.415   2.027   6.301 -0.2426  0.7343  0.1473
 2316SOL     OW18926   9.531   8.274  11.231  0.4183  0.1590 -0.3551
 2316SOL    HW118927   9.611   8.287  11.283  0.3754 -1.1780  0.0912
 2316SOL    HW218928   9.461   8.266  11.295  0.1492 -0.0898 -0.6728
 2317SOL     OW18929   1.179  11.667  11.014 -0.4557 -0.5390 -0.2347
 2317SOL    HW118930   1.172  11.586  11.064  0.2643 -0.8119 -0.5704
 2317SOL    HW218931   1.267  11.666  10.977 -1.3560 -0.9680 -2.5675
 2318SOL     OW18932  10.401   8.574  12.505  0.1996 -0.4572  0.2194
 2318SOL    HW118933  10.437   8.657  12.475 -0.1503 -0.8738 -1.4479
 2318SOL    HW218934  10.317   8.566  12.459 -0.2985 -1.2350  1.2010
 2319SOL     OW18935   1.453   9.032   0.526 -0.4851  0.5273 -0.1234
 2319SOL    HW118936   1.530   8.999   0.480 -1.0193 -0.0044 -0.6472
 2319SOL    HW218937   1.487   9.068   0.608  0.4569  1.2834 -0.8227
 2320SOL     OW18938   9.502   7.608   0.150  0.3041  1.1540  0.0037
 2320SOL    HW118939   9.435   7.668   0.184 -0.6756  0.1993 -0.1936
 2320SOL    HW218940   9.455   7.551   0.090  1.0683 -0.2519  0.6875
 2321SOL     OW18941   4.711  13.493   3.408 -0.2704  0.5751 -0.1782
 2321SOL    HW118942   4.626  13.474   3.368 -0.3897 -1.0877  0.7606
 2321SOL    HW218943   4.690  13.523   3.496  0.0934 -0.4821  0.2942
 2322SOL     OW18944  10.067   1.887   3.242 -0.0931 -0.4966 -0.3773
 2322SOL    HW118945  10.160   1.868   3.254 -0.1732 -0.5713  0.1674
 2322SOL    HW218946  10.029   1.876   3.330 -0.0823  2.4650  0.1170
 2323SOL     OW18947   7.559   5.591   2.853 -0.0511  0.4642  0.1198
 2323SOL    HW118948   7.575   5.563   2.943  0.4742 -0.5301 -0.2710
 2323SOL    HW218949   7.467   5.619   2.853 -0.6320 -1.2927  0.5452
 2324SOL     OW18950  11.980   0.459   2.478  0.9685  0.5686 -0.2295
 2324SOL    HW118951  11.906   0.400   2.492  0.0244  1.9035  0.5912
 2324SOL    HW218952  11.998   0.496   2.565  2.4001  0.5160 -0.4805
 2325SOL     OW18953  12.504   3.106   9.458  0.0515  0.3776 -0.0977
 2325SOL    HW118954  12.594   3.099   9.427 -0.5158 -1.6050 -1.5288
 2325SOL    HW218955  12.458   3.151   9.387  0.0366  2.1106  0.9774
 2326SOL     OW18956  13.122  13.215   1.523  0.4838 -0.1973 -0.6825
 2326SOL    HW118957  13.151  13.143   1.578 -0.1451  0.5685  0.7165
 2326SOL    HW218958  13.190  13.223   1.456  2.2579 -0.0290  1.0296
 2327SOL     OW18959   9.363   4.721   7.879 -0.2386  0.0039  0.1809
 2327SOL    HW118960   9.454   4.730   7.853 -0.9137  1.1045 -2.0352
 2327SOL    HW218961   9.335   4.637   7.841 -0.8525  0.9569 -1.5468
 2328SOL     OW18962   6.395   3.066   7.677 -0.0625  0.4062  0.2120
 2328SOL    HW118963   6.300   3.079   7.683  0.0583  1.5110 -0.0043
 2328SOL    HW218964   6.415   3.086   7.586  0.6352  2.1530  0.7112
 2329SOL     OW18965  11.660   7.259   2.920 -0.2080 -0.3173 -0.4398
 2329SOL    HW118966  11.678   7.320   2.991  0.7374  0.8587 -1.6243
 2329SOL    HW218967  11.574   7.284   2.887 -1.1440 -1.5584  0.9118
 2330SOL     OW18968   9.910   3.332   2.160 -0.5576 -0.4402 -0.2979
 2330SOL    HW118969  10.005   3.320   2.170 -0.4941 -1.6017 -1.9174
 2330SOL    HW218970   9.902   3.411   2.106 -0.5368 -0.1686  0.0897
 2331SOL     OW18971   6.876   1.614   2.964  0.1720 -0.0611 -1.1683
 2331SOL    HW118972   6.925   1.620   3.046  0.8209  0.9093 -1.5960
 2331SOL    HW218973   6.791   1.654   2.983 -0.2197 -1.1469 -0.5957
 2332SOL     OW18974  13.828   9.385   9.509  0.5247  0.0542 -0.1840
 2332SOL    HW118975  13.788   9.380   9.595  2.6362 -1.4842  0.7889
 2332SOL    HW218976  13.772   9.331   9.453 -2.0212  2.6721 -0.3773
 2333SOL     OW18977   4.373   0.053   1.368 -0.2743 -0.6789  0.2251
 2333SOL    HW118978   4.450   0.089   1.325  0.1882 -2.8534 -0.8904
 2333SOL    HW218979   4.373   0.093   1.455  1.3967  0.3164 -0.1966
 2334SOL     OW18980  11.701   6.318  13.802  0.1365  0.4017  0.1707
 2334SOL    HW118981  11.712   6.242  13.860 -0.1199  0.5115  0.3634
 2334SOL    HW218982  11.789   6.355  13.795 -0.2303  1.8740  2.5277
 2335SOL     OW18983  13.538   5.042   8.275  0.2430 -0.4654  0.4823
 2335SOL    HW118984  13.549   5.020   8.182  1.8169 -3.8214  1.2943
 2335SOL    HW218985  13.443   5.044   8.288 -0.0601  1.9026 -1.4667
 2336SOL     OW18986   8.844   0.290  10.414 -0.6491  0.3043  0.1216
 2336SOL    HW118987   8.816   0.206  10.378  0.2060  0.8172 -1.8847
 2336SOL    HW218988   8.796   0.298  10.496 -1.3880 -1.7456 -0.0565
 2337SOL     OW18989   1.288   0.985  11.367 -0.2866  0.3465  0.0197
 2337SOL    HW118990   1.366   0.980  11.312  0.1358 -1.6013  0.7445
 2337SOL    HW218991   1.217   0.955  11.311 -0.4304  1.4632 -0.4253
 2338SOL     OW18992  11.482   1.150   5.168 -0.6191 -0.2231 -0.0449
 2338SOL    HW118993  11.540   1.101   5.110 -2.3283  1.3121 -3.3383
 2338SOL    HW218994  11.405   1.094   5.178 -1.1480  0.2949 -1.0013
 2339SOL     OW18995   9.415   3.337  13.435  0.0387 -0.0964 -0.2932
 2339SOL    HW118996   9.424   3.266  13.498  1.1242  0.1755 -0.1114
 2339SOL    HW218997   9.459   3.305  13.356  0.9452  0.5195 -0.0620
 2340SOL     OW18998   4.946  13.638  13.654 -0.0614 -0.0872 -0.6952
 2340SOL    HW118999   4.931  13.564  13.714 -1.2898 -0.1832 -1.0979
 2340SOL    HW219000   4.975  13.597  13.573  0.4972 -0.0291 -0.5313
 2341SOL     OW19001  11.087   8.341   1.621  0.0643 -0.7336 -0.1843
 2341SOL    HW119002  11.121   8.340   1.710 -2.3599 -1.7013  0.8354
 2341SOL    HW219003  11.143   8.281   1.572  1.3971 -0.2329  0.6752
 2342SOL     OW19004   2.605   2.933   8.845 -0.4283 -0.1412 -0.2388
 2342SOL    HW119005   2.555   2.984   8.909 -0.2718  2.1965 -1.8585
 2342SOL    HW219006   2.696   2.942   8.873 -0.2673  1.6154 -1.1776
 2343SOL     OW19007  13.860   9.335  11.447  0.0596 -0.2184  0.3066
 2343SOL    HW119008  13.903   9.410  11.405  0.1753 -0.7793 -0.5968
 2343SOL    HW219009  13.843   9.365  11.536 -2.3833  1.9213 -0.7504
 2344SOL     OW19010  11.220   6.418   4.413 -0.3502 -0.1696 -0.2240
 2344SOL    HW119011  11.139   6.374   4.439 -0.0515  0.2306  1.4798
 2344SOL    HW219012  11.232   6.488   4.477  1.0403  0.1608 -0.7955
 2345SOL     OW19013   3.814   8.602   8.533  0.1011 -0.2086  0.4344
 2345SOL    HW119014   3.734   8.655   8.539  1.2502  1.6804  0.0344
 2345SOL    HW219015   3.859   8.619   8.616 -0.3436 -2.0902  1.1072
 2346SOL     OW19016  11.025   2.187   3.033 -0.6393 -0.1014  0.0070
 2346SOL    HW119017  11.037   2.141   2.949  0.8153 -0.6664  0.4924
 2346SOL    HW219018  10.946   2.149   3.070 -2.2535  1.2637 -1.7886
 2347SOL     OW19019  12.722   3.239   3.907  0.2812 -0.4905  0.5290
 2347SOL    HW119020  12.655   3.213   3.970  1.6068 -1.1501  1.7478
 2347SOL    HW219021  12.753   3.324   3.939 -0.1937 -0.0288 -0.2216
 2348SOL     OW19022   2.040   3.095   0.472 -0.1953  0.3111  0.0416
 2348SOL    HW119023   1.970   3.050   0.520  0.4542  0.7643  1.4605
 2348SOL    HW219024   2.002   3.180   0.449 -0.7052 -0.1249 -0.8055
 2349SOL     OW19025   9.620   7.689   0.684  0.8839 -0.0766  0.3663
 2349SOL    HW119026   9.611   7.666   0.592 -0.2922 -0.0017  0.4448
 2349SOL    HW219027   9.542   7.652   0.726  1.9974 -1.1534  1.5521
 2350SOL     OW19028   4.438   0.773  13.417 -0.0343  0.3383  0.3214
 2350SOL    HW119029   4.509   0.768  13.353  0.0368  0.2135  0.4087
 2350SOL    HW219030   4.358   0.765  13.365  0.0272  0.0253  0.2667
 2351SOL     OW19031   0.152   0.538   7.371  0.6349 -0.3375  0.0791
 2351SOL    HW119032   0.240   0.502   7.359  1.7396  1.7177  1.4080
 2351SOL    HW219033   0.097   0.462   7.388  1.8519 -1.8144 -2.1350
 2352SOL     OW19034   4.821   5.221   0.740 -0.1253 -0.6270 -0.1398
 2352SOL    HW119035   4.762   5.269   0.798 -0.2837 -0.1097 -0.7096
 2352SOL    HW219036   4.905   5.223   0.784  0.2737  1.5710 -0.8298
 2353SOL     OW19037   7.184   6.070   5.339  0.1017 -0.1661 -1.0795
 2353SOL    HW119038   7.155   5.991   5.384  1.6695 -0.8216 -1.1437
 2353SOL    HW219039   7.192   6.135   5.409  0.5933 -0.6079 -0.7111
 2354SOL     OW19040   2.885   5.409   1.693 -0.0237 -0.1736  0.1430
 2354SOL    HW119041   2.859   5.324   1.657  1.4862 -0.9990  0.9043
 2354SOL    HW219042   2.853   5.408   1.784  1.9548 -0.9283  0.8802
 2355SOL     OW19043  10.622  13.712  10.643  0.7870  0.4696  0.3550
 2355SOL    HW119044  10.649  13.622  10.627 -0.8031  0.3344 -2.1789
 2355SOL    HW219045  10.621  13.720  10.739 -0.3420 -2.6495  0.7289
 2356SOL     OW19046   0.821   7.449   7.242  0.4349 -0.0235 -0.4176
 2356SOL    HW119047   0.803   7.402   7.324 -1.2287  1.4720  0.1397
 2356SOL    HW219048   0.914   7.434   7.226  1.3114  1.1106  2.7566
 2357SOL     OW19049   2.644  13.795   6.338 -0.3742 -0.0079  0.5713
 2357SOL    HW119050   2.584  13.801   6.412 -0.7409 -1.1287  0.3857
 2357SOL    HW219051   2.702  13.722   6.360 -0.1066  0.0349  0.0250
 2358SOL     OW19052   3.056  11.419  11.644 -0.2020  0.4157 -0.5867
 2358SOL    HW119053   3.069  11.505  11.684 -1.3315  0.5162 -0.3894
 2358SOL    HW219054   3.004  11.370  11.709  0.5412 -0.4629 -0.6366
 2359SOL     OW19055   6.159   5.019  10.768  0.1740 -0.1336 -0.1999
 2359SOL    HW119056   6.196   4.995  10.853  1.1481  1.6550 -0.0818
 2359SOL    HW219057   6.165   4.938  10.717  0.8846 -0.8673  0.9754
 2360SOL     OW19058   9.807   1.482   1.863  0.3816 -0.1977  0.2667
 2360SOL    HW119059   9.731   1.519   1.818  0.0595  0.3283  1.1869
 2360SOL    HW219060   9.851   1.429   1.798 -0.1667  0.3826 -0.5981
 2361SOL     OW19061  11.079   7.354   6.800 -0.2020 -0.6554 -0.1309
 2361SOL    HW119062  10.987   7.355   6.824  0.3762  1.3477  2.5236
 2361SOL    HW219063  11.096   7.442   6.766  1.1337 -0.2264  1.4957
 2362SOL     OW19064   9.899   0.687   2.779  0.2898  0.4201  0.3345
 2362SOL    HW119065   9.899   0.616   2.715  1.4350  0.5375  0.1818
 2362SOL    HW219066   9.828   0.744   2.751 -0.4043 -0.4561  0.2359
 2363SOL     OW19067   6.219   0.053  10.907  0.6641  1.0913 -0.0759
 2363SOL    HW119068   6.185  -0.034  10.885  0.9990  0.4528  1.7202
 2363SOL    HW219069   6.157   0.114  10.868 -0.5531  0.0135  0.1007
 2364SOL     OW19070   3.766   6.256   5.411 -0.1695 -0.8806 -0.6047
 2364SOL    HW119071   3.753   6.296   5.325  0.7279  1.0372  0.1126
 2364SOL    HW219072   3.827   6.314   5.456 -2.1777 -0.6477  2.0966
 2365SOL     OW19073   9.502   1.388   4.781 -0.1652  0.3057  0.8210
 2365SOL    HW119074   9.430   1.363   4.723  0.5692  1.0472 -0.4491
 2365SOL    HW219075   9.479   1.476   4.810  0.3019  0.6125  0.2743
 2366SOL     OW19076   6.037   1.912  11.612  1.0661 -0.4938  0.2201
 2366SOL    HW119077   6.109   1.975  11.613 -0.3549  1.1881  0.1173
 2366SOL    HW219078   5.998   1.920  11.525 -0.9315  0.6569  1.1588
 2367SOL     OW19079   1.056   7.550   5.286  0.7718  0.2593  0.6692
 2367SOL    HW119080   1.108   7.509   5.217  1.0609  0.4535  0.7681
 2367SOL    HW219081   1.121   7.595   5.340  0.5180  0.3351  0.9089
 2368SOL     OW19082   0.869   7.556   4.395 -0.4781  0.2575  0.0396
 2368SOL    HW119083   0.815   7.531   4.470 -0.0241 -0.1492  0.2464
 2368SOL    HW219084   0.809   7.597   4.334 -1.2327 -1.1010 -0.1851
 2369SOL     OW19085   3.817   7.915   3.387  0.0075 -0.3670 -0.6109
 2369SOL    HW119086   3.800   7.821   3.390  1.3377 -0.6151 -0.3927
 2369SOL    HW219087   3.860   7.934   3.470  0.5440  0.2775 -1.0328
 2370SOL     OW19088   4.717  10.824   0.798  0.2093  0.1806  0.7580
 2370SOL    HW119089   4.783  10.880   0.839 -0.4794  1.0908  0.6639
 2370SOL    HW219090   4.634  10.859   0.829 -0.2652 -0.3064  0.0708
 2371SOL     OW19091   4.234  10.060   6.613  0.2491 -0.3965 -0.1511
 2371SOL    HW119092   4.318  10.098   6.640  0.0694  0.0488 -0.2092
 2371SOL    HW219093   4.200  10.121   6.547  0.7066 -1.4889 -1.4474
 2372SOL     OW19094   4.699   5.761   2.609  0.3261 -0.5134 -0.0351
 2372SOL    HW119095   4.712   5.711   2.529  0.8746 -0.7039  0.1678
 2372SOL    HW219096   4.779   5.746   2.660 -0.0292 -0.4254  0.5596
 2373SOL     OW19097   8.308   0.619   7.694  0.0033 -0.2823  0.1619
 2373SOL    HW119098   8.321   0.529   7.725 -2.4343 -1.0719 -0.8839
 2373SOL    HW219099   8.262   0.663   7.766  0.4220 -0.1064  0.3269
 2374SOL     OW19100   1.975   5.610   2.738 -0.1616  0.0037  0.2313
 2374SOL    HW119101   1.984   5.557   2.817  2.3452  0.1271  0.1268
 2374SOL    HW219102   2.064   5.615   2.702 -0.8550  1.6727 -1.4706
 2375SOL     OW19103   2.580   6.410   3.903 -0.0567 -0.4610  0.3950
 2375SOL    HW119104   2.594   6.324   3.943  0.5203 -0.9168 -0.7334
 2375SOL    HW219105   2.537   6.462   3.971  0.0081 -1.4997  1.2506
 2376SOL     OW19106   5.354  13.965   9.897 -0.0250  0.1750  0.2537
 2376SOL    HW119107   5.261  13.953   9.878  0.0823 -0.3425  0.0624
 2376SOL    HW219108   5.354  14.011   9.982 -0.4504  0.0492  0.3277
 2377SOL     OW19109   5.017  11.956  13.170 -0.1976  0.2961 -0.7492
 2377SOL    HW119110   5.063  11.998  13.097 -0.7844  1.0528 -0.6900
 2377SOL    HW219111   4.926  11.949  13.141 -0.3661  0.2687 -0.2320
 2378SOL     OW19112   1.067  13.695   1.321 -0.1145 -0.0094 -0.1047
 2378SOL    HW119113   1.010  13.620   1.339  0.6101 -0.6948 -0.6064
 2378SOL    HW219114   1.010  13.771   1.330 -0.6752 -0.5584  1.2360
 2379SOL     OW19115   9.636   7.404   0.269  0.3118  0.1426  0.4734
 2379SOL    HW119116   9.636   7.411   0.364  0.3361 -0.9005  0.5661
 2379SOL    HW219117   9.569   7.466   0.240 -1.0979 -0.9259  1.3126
 2380SOL     OW19118   2.457   6.721   6.274 -0.1873  0.1781 -0.0132
 2380SOL    HW119119   2.443   6.735   6.181 -3.0378 -0.2192  0.2366
 2380SOL    HW219120   2.418   6.635   6.291  0.3408  0.2071  1.5301
 2381SOL     OW19121  10.432   8.627   1.953 -0.2036 -0.2056  0.4885
 2381SOL    HW119122  10.524   8.633   1.981  0.3090 -1.6866 -0.7737
 2381SOL    HW219123  10.436   8.634   1.858 -1.2370 -1.8123  0.2992
 2382SOL     OW19124   6.930   2.526   7.712 -0.0944  0.4566  0.5305
 2382SOL    HW119125   6.932   2.531   7.616  0.1440  0.4169  0.5340
 2382SOL    HW219126   6.843   2.491   7.732  0.3366 -0.7997  0.2746
 2383SOL     OW19127   3.596  13.900   8.508 -0.0871 -0.1090 -0.0003
 2383SOL    HW119128   3.688  13.919   8.524 -0.0894  0.1423 -0.2721
 2383SOL    HW219129   3.551  13.934   8.586  0.1797 -1.5196  0.7997
 2384SOL     OW19130   8.276  12.559   1.498 -0.0838 -0.0902  0.1477
 2384SOL    HW119131   8.311  12.555   1.409  0.6439 -1.2767  0.4611
 2384SOL    HW219132   8.191  12.601   1.489 -0.2210 -0.6089 -1.1780
 2385SOL     OW19133  12.477   5.716   5.916  0.1072 -0.6697 -0.1307
 2385SOL    HW119134  12.449   5.633   5.954 -2.1888 -1.8257 -3.7807
 2385SOL    HW219135  12.408   5.778   5.940 -0.2844 -0.8905 -0.6506
 2386SOL     OW19136  12.725   7.930  10.026  0.5007  0.2832  0.1846
 2386SOL    HW119137  12.643   7.886  10.006  0.7283 -0.0903  0.0663
 2386SOL    HW219138  12.710   8.021  10.000 -0.3886  0.5618  1.5744
 2387SOL     OW19139   6.001  13.376   9.241 -0.0900 -0.1232  0.1621
 2387SOL    HW119140   6.020  13.439   9.311  0.7857 -0.0610 -0.1180
 2387SOL    HW219141   5.907  13.384   9.227 -0.5823 -1.2026  2.3512
 2388SOL     OW19142  12.350   8.514   9.748 -0.2123  0.3609 -0.0380
 2388SOL    HW119143  12.360   8.465   9.666 -0.9602  3.2949 -2.0639
 2388SOL    HW219144  12.261   8.549   9.745  0.4966  2.4000  0.8855
 2389SOL     OW19145   9.107  13.087   4.966  0.3996  0.3495 -0.4459
 2389SOL    HW119146   9.012  13.101   4.962  0.0990 -1.0586  0.7827
 2389SOL    HW219147   9.136  13.144   5.037  0.7374  1.8547 -1.7415
 2390SOL     OW19148  11.262   2.435   2.721 -0.1114  0.2956  0.1645
 2390SOL    HW119149  11.298   2.350   2.695 -0.5989 -0.0521  0.5835
 2390SOL    HW219150  11.337   2.494   2.723  0.0784  0.1254 -1.1230
 2391SOL     OW19151   1.131  13.008   0.681  0.3378  0.0941  0.1965
 2391SOL    HW119152   1.207  13.044   0.636  0.1877 -2.5823 -2.5624
 2391SOL    HW219153   1.158  12.920   0.708 -1.0650 -0.0376  1.3293
 2392SOL     OW19154   3.575   0.017   3.895 -0.2023  0.2415 -0.0179
 2392SOL    HW119155   3.596   0.045   3.984  0.8730  0.4550 -0.3143
 2392SOL    HW219156   3.588   0.097   3.842 -0.9672  0.1529 -0.3443
 2393SOL     OW19157   4.557  13.495   9.876 -0.7001 -0.1060 -0.5094
 2393SOL    HW119158   4.557  13.590   9.873  1.8104  0.0973  1.8434
 2393SOL    HW219159   4.470  13.472   9.910 -1.8251  1.1835 -2.3360
 2394SOL     OW19160  11.414   1.816   9.080 -0.3362 -0.1717  0.1743
 2394SOL    HW119161  11.343   1.756   9.057  1.2308 -1.6194 -1.1169
 2394SOL    HW219162  11.493   1.775   9.044  0.8905  2.4192 -0.2961
 2395SOL     OW19163   9.240   0.893   1.558 -0.0340  0.6714 -0.4529
 2395SOL    HW119164   9.164   0.906   1.614  0.8113 -0.8794  1.1484
 2395SOL    HW219165   9.310   0.866   1.618  0.8165 -1.4262 -2.2660
 2396SOL     OW19166   3.832   6.686   0.796 -0.0536  0.5690 -0.3233
 2396SOL    HW119167   3.738   6.699   0.809 -0.3690  0.0272 -1.8527
 2396SOL    HW219168   3.843   6.683   0.701  1.5572  0.8872 -0.1785
 2397SOL     OW19169   7.087  10.792  10.577 -0.4795  0.2678  0.1531
 2397SOL    HW119170   7.042  10.711  10.601 -1.4844  0.4815 -0.9183
 2397SOL    HW219171   7.019  10.847  10.538  0.2335  1.5423  0.6233
 2398SOL     OW19172   1.226  10.868   0.225 -0.1001 -0.1688  0.2578
 2398SOL    HW119173   1.243  10.782   0.263 -0.0198 -0.8134 -1.1556
 2398SOL    HW219174   1.148  10.855   0.171 -0.4883  0.8205  0.5770
 2399SOL     OW19175   8.344   8.191   1.674  0.0635 -0.6611  0.0235
 2399SOL    HW119176   8.286   8.194   1.749 -0.1254 -1.3268 -0.0873
 2399SOL    HW219177   8.403   8.117   1.692 -0.0127 -0.8540 -0.4927
 2400SOL     OW19178  11.388   3.064  13.421 -0.0031  0.2541  0.1927
 2400SOL    HW119179  11.383   2.986  13.476  2.0076  1.2918  2.0317
 2400SOL    HW219180  11.351   3.134  13.475 -0.3268  0.8627 -0.7967
 2401SOL     OW19181  13.901  11.521   1.191  0.1555 -0.0425  0.0762
 2401SOL    HW119182  13.827  11.577   1.166 -0.5696 -0.3312  1.4489
 2401SOL    HW219183  13.929  11.480   1.109 -0.7688  0.5923 -0.5795
 2402SOL     OW19184   2.171   8.002  13.711 -0.2913  0.5892 -0.2152
 2402SOL    HW119185   2.092   7.955  13.738 -0.4701  0.6687 -0.5911
 2402SOL    HW219186   2.211   7.945  13.644  0.4625  0.1125  0.6251
 2403SOL     OW19187   1.874  11.534   5.776 -0.1610 -0.4373 -0.1349
 2403SOL    HW119188   1.927  11.460   5.745  0.6992  0.2053 -0.2307
 2403SOL    HW219189   1.853  11.583   5.697  0.9795  0.5150  0.1224
 2404SOL     OW19190   9.350   2.330  12.620  0.4020 -0.5675 -0.1582
 2404SOL    HW119191   9.408   2.406  12.617 -0.4665  0.1022 -0.5360
 2404SOL    HW219192   9.278   2.356  12.677 -1.7710  0.3198 -3.0579
 2405SOL     OW19193  11.103   3.304  11.457  0.4365  0.2309 -0.0200
 2405SOL    HW119194  11.143   3.241  11.397  0.0011  0.7237 -0.8492
 2405SOL    HW219195  11.176   3.353  11.492  0.5768  1.6338 -2.1010
 2406SOL     OW19196   5.196   7.002   4.686  1.0565  0.0167  0.0253
 2406SOL    HW119197   5.152   7.055   4.752  1.9164  0.9411 -0.1116
 2406SOL    HW219198   5.283   6.986   4.723  0.6938 -1.6185  0.2131
 2407SOL     OW19199  11.680   8.908   9.992 -0.0792 -0.0284  0.0517
 2407SOL    HW119200  11.602   8.925  10.045  0.3780  0.1282  0.6873
 2407SOL    HW219201  11.647   8.861   9.915 -0.4365 -2.6608  1.7175
 2408SOL     OW19202  12.739   8.379   4.694 -0.1321 -0.2241 -0.0092
 2408SOL    HW119203  12.817   8.429   4.716  1.0723 -2.1114  0.2470
 2408SOL    HW219204  12.700   8.356   4.778 -2.0733  2.2331 -0.1331
 2409SOL     OW19205   5.944  10.708   6.237  0.2418 -0.7607  0.4637
 2409SOL    HW119206   5.918  10.627   6.281 -0.3152 -0.1322  1.3170
 2409SOL    HW219207   5.900  10.777   6.285  2.2491  0.2384  0.9726
 2410SOL     OW19208   5.093   8.259  10.907 -0.8055  0.1479 -0.0026
 2410SOL    HW119209   5.095   8.316  10.831 -1.3918  1.0330  0.6243
 2410SOL    HW219210   5.183   8.227  10.916 -0.7373  0.0384 -1.0578
 2411SOL     OW19211   3.275   9.853   9.322  0.1499 -0.2134 -0.2587
 2411SOL    HW119212   3.344   9.847   9.256  0.8536 -1.9781  0.5642
 2411SOL    HW219213   3.204   9.899   9.278  1.1105 -0.0854 -1.7765
 2412SOL     OW19214  10.903  13.799  12.900  0.2757  0.7378 -0.2178
 2412SOL    HW119215  10.958  13.818  12.824 -0.7286  0.9367 -0.9219
 2412SOL    HW219216  10.859  13.717  12.878  1.7358 -0.4833  1.1903
 2413SOL     OW19217   7.877   4.998  11.599 -0.4082  0.1504  0.6288
 2413SOL    HW119218   7.873   5.078  11.652 -1.7284  0.8704 -0.4923
 2413SOL    HW219219   7.817   4.937  11.643 -3.3167  1.5139 -1.1146
 2414SOL     OW19220   7.496   2.251   7.808  0.6677 -0.1876 -0.3245
 2414SOL    HW119221   7.453   2.263   7.893 -1.3051 -0.0855 -1.2905
 2414SOL    HW219222   7.496   2.156   7.794  0.8960 -0.1967 -0.2721
 2415SOL     OW19223   6.413  11.143   0.257 -0.2631 -0.0417  0.2764
 2415SOL    HW119224   6.447  11.223   0.299  0.0039 -0.5557  1.0672
 2415SOL    HW219225   6.354  11.106   0.323 -0.3811 -0.4983 -0.0881
 2416SOL     OW19226   5.783   4.676   1.581 -0.6040  0.2149 -0.3219
 2416SOL    HW119227   5.701   4.664   1.532 -2.3084  1.3572  2.0699
 2416SOL    HW219228   5.774   4.617   1.657 -0.0619  1.6720  0.9181
 2417SOL     OW19229   2.829   2.555   9.776 -0.3660  0.0720  0.2864
 2417SOL    HW119230   2.899   2.489   9.775  0.2567  0.7369 -0.3951
 2417SOL    HW219231   2.822   2.581   9.868  1.2947  1.0561  0.1624
 2418SOL     OW19232   8.691   0.940  10.456 -0.3089  0.1356 -0.0071
 2418SOL    HW119233   8.757   0.992  10.411 -1.1660  1.7836  0.5750
 2418SOL    HW219234   8.650   0.888  10.386  0.1248  0.7031 -0.7013
 2419SOL     OW19235  11.395   9.535   5.020 -0.2779 -0.5710 -0.0917
 2419SOL    HW119236  11.379   9.522   5.114  0.7131  0.3324  0.2274
 2419SOL    HW219237  11.487   9.559   5.015 -0.5417  0.2801 -1.2022
 2420SOL     OW19238  12.085  13.364   3.083  0.2976  0.5931 -0.3307
 2420SOL    HW119239  12.058  13.339   2.994  0.1478 -1.1228  0.1502
 2420SOL    HW219240  12.128  13.285   3.118 -2.1306  0.1937  2.0935
 2421SOL     OW19241   8.135  11.701   7.907 -0.2379  0.1309  0.1597
 2421SOL    HW119242   8.126  11.797   7.906 -1.6244  0.0323  0.8676
 2421SOL    HW219243   8.049  11.669   7.934  0.1147 -1.3428 -0.3699
 2422SOL     OW19244   7.259  11.987   9.919  0.2677  0.4382 -0.6345
 2422SOL    HW119245   7.185  12.048   9.924 -0.4502 -0.4397 -0.4272
 2422SOL    HW219246   7.322  12.022   9.982  0.0516  1.2082 -0.8253
 2423SOL     OW19247   7.718   7.946   0.097 -0.7611  0.5970  0.0755
 2423SOL    HW119248   7.759   7.951   0.183 -0.5378 -0.7794  0.0623
 2423SOL    HW219249   7.668   7.864   0.098 -0.5531  0.4307 -1.1822
 2424SOL     OW19250   8.367   4.954   2.520  0.3625  0.2638  0.7561
 2424SOL    HW119251   8.327   4.889   2.577  2.0144  1.4027  3.4182
 2424SOL    HW219252   8.435   4.906   2.472  1.0020 -0.1776  2.0564
 2425SOL     OW19253   1.679   8.873   4.453  0.1052 -0.7517  0.8038
 2425SOL    HW119254   1.723   8.846   4.372 -0.3804  0.3214  0.1585
 2425SOL    HW219255   1.589   8.842   4.443 -0.4604  0.9948  0.0548
 2426SOL     OW19256   2.367  11.468  12.474  0.3274 -0.1974 -0.1356
 2426SOL    HW119257   2.295  11.442  12.417  0.2157 -0.0679 -0.0544
 2426SOL    HW219258   2.446  11.453  12.422  0.4097 -2.3351  0.4764
 2427SOL     OW19259   9.333  13.719   7.306 -0.6605 -0.0300 -0.5641
 2427SOL    HW119260   9.427  13.724   7.285 -0.2342  3.1995  1.4442
 2427SOL    HW219261   9.321  13.631   7.342  1.4397 -0.7184 -1.3809
 2428SOL     OW19262   7.129   5.887   0.515  0.2243 -0.1970  0.2436
 2428SOL    HW119263   7.201   5.886   0.452 -0.8354 -1.9544 -1.0165
 2428SOL    HW219264   7.146   5.965   0.569  2.3064  0.1888 -0.8555
 2429SOL     OW19265  12.805  12.346  13.796 -0.1629 -0.7123  0.1062
 2429SOL    HW119266  12.721  12.391  13.790 -1.0725 -2.1846  1.0885
 2429SOL    HW219267  12.799  12.297  13.878  0.4626 -3.1927 -1.2611
 2430SOL     OW19268   9.238   6.506  10.427  0.3595 -0.4570  0.2539
 2430SOL    HW119269   9.238   6.474  10.337 -3.2064  2.7663 -1.1933
 2430SOL    HW219270   9.171   6.454  10.472 -1.5330  1.1285 -0.5617
 2431SOL     OW19271   7.134  11.755  12.616 -0.6867  0.3989  0.3197
 2431SOL    HW119272   7.152  11.693  12.546  0.5841  1.2873 -0.1913
 2431SOL    HW219273   7.211  11.813  12.617 -1.7736  1.9033  0.8202
 2432SOL     OW19274  10.561   4.938  10.262 -0.8186  0.3074 -0.3024
 2432SOL    HW119275  10.510   5.017  10.245 -1.8169  0.3674  2.5095
 2432SOL    HW219276  10.648   4.969  10.287 -1.0397  0.5071  0.2313
 2433SOL     OW19277   9.454   6.443   6.005  0.1896  0.6094 -0.0381
 2433SOL    HW119278   9.414   6.519   5.962  0.6074  0.4512 -0.7235
 2433SOL    HW219279   9.400   6.369   5.978  0.4003  0.5200 -0.2112
 2434SOL     OW19280   4.208  11.616   0.433  0.0825  0.7361 -0.0445
 2434SOL    HW119281   4.277  11.551   0.438  0.2133  0.6061 -2.3848
 2434SOL    HW219282   4.162  11.597   0.351 -3.1017  0.5002  1.6345
 2435SOL     OW19283   8.089   9.579   6.355  0.4050 -0.1997 -0.0272
 2435SOL    HW119284   8.098   9.619   6.269  0.5403  0.1706  0.1580
 2435SOL    HW219285   8.164   9.521   6.363  1.5059  1.2470  0.6339
 2436SOL     OW19286  13.516  12.147  12.050 -0.0466 -0.5670 -0.3681
 2436SOL    HW119287  13.585  12.088  12.079  0.4912 -0.5038 -1.4779
 2436SOL    HW219288  13.546  12.181  11.965 -1.0043  0.1838 -0.4350
 2437SOL     OW19289  13.459   9.686   3.000 -0.0828 -0.0602 -0.7303
 2437SOL    HW119290  13.476   9.776   3.030  0.4948  0.4642 -2.5450
 2437SOL    HW219291  13.396   9.652   3.064 -1.1194  1.9843 -0.5596
 2438SOL     OW19292   1.536   1.178   1.591  0.2375  0.1220  0.6203
 2438SOL    HW119293   1.519   1.160   1.684 -2.0181  0.4039  0.3183
 2438SOL    HW219294   1.511   1.097   1.547  0.5398  0.2643  0.1887
 2439SOL     OW19295   3.842   8.436   5.588  0.5895 -0.1129  0.3576
 2439SOL    HW119296   3.878   8.524   5.575  0.2263 -0.2158 -1.5366
 2439SOL    HW219297   3.890   8.381   5.526 -0.2705 -0.9515  0.4205
 2440SOL     OW19298   0.970   8.782  10.100  0.1015 -0.0013 -0.2917
 2440SOL    HW119299   0.914   8.858  10.083  0.2038  0.3604  0.8825
 2440SOL    HW219300   0.911   8.716  10.138  0.2902  0.0644  0.1264
 2441SOL     OW19301   1.451   0.556  13.222 -0.2265  0.1920 -0.1437
 2441SOL    HW119302   1.452   0.544  13.317 -1.7676  0.7632 -0.0305
 2441SOL    HW219303   1.458   0.651  13.209  0.5653  0.0783 -0.6364
 2442SOL     OW19304   9.765   6.847  13.918 -0.0075  0.1080 -0.0089
 2442SOL    HW119305   9.692   6.826  13.859  0.2595 -2.9361  0.5643
 2442SOL    HW219306   9.834   6.786  13.891  1.3132  0.9922  1.2841
 2443SOL     OW19307   9.732   2.838   9.788  0.2200 -0.0711 -0.3188
 2443SOL    HW119308   9.698   2.920   9.751 -0.6383 -0.0483  0.4930
 2443SOL    HW219309   9.813   2.864   9.832 -0.4774  0.5196  0.6594
 2444SOL     OW19310   9.568   3.240  13.232 -0.4320  0.2458 -0.1560
 2444SOL    HW119311   9.582   3.187  13.153 -1.3384 -0.7528  0.3301
 2444SOL    HW219312   9.609   3.189  13.302  1.2472  1.5988 -0.0954
 2445SOL     OW19313   6.908   5.733   9.957 -0.6458 -0.0743  0.4452
 2445SOL    HW119314   6.830   5.732   9.903 -0.4279  1.1181  0.0788
 2445SOL    HW219315   6.900   5.812  10.010 -0.2730 -0.5866  1.2849
 2446SOL     OW19316   2.915   6.175  11.287  0.2386 -0.6858  0.1517
 2446SOL    HW119317   2.848   6.114  11.254  0.8370 -1.6356  0.6523
 2446SOL    HW219318   2.870   6.260  11.289 -1.1698 -1.4067  1.0862
 2447SOL     OW19319   1.043   7.541  11.884 -0.2998  0.8216 -0.3038
 2447SOL    HW119320   1.052   7.498  11.969  0.3394  1.0952 -0.2327
 2447SOL    HW219321   0.982   7.485  11.835 -0.2999  0.4106  0.1633
 2448SOL     OW19322   1.830   7.431   0.159  0.3973 -0.1376  0.8439
 2448SOL    HW119323   1.810   7.373   0.233 -0.8846 -1.1526 -0.2429
 2448SOL    HW219324   1.794   7.386   0.083 -0.1193  1.8114 -0.1399
 2449SOL     OW19325  10.513   1.553   2.113  0.6623 -0.0650 -0.4693
 2449SOL    HW119326  10.497   1.506   2.195  0.2598 -0.4134 -0.7487
 2449SOL    HW219327  10.602   1.588   2.123  0.7496 -0.4068 -0.0297
 2450SOL     OW19328   4.209   2.182  10.897 -0.2880 -0.3302  1.0582
 2450SOL    HW119329   4.124   2.139  10.909 -0.5280 -0.6519 -1.2194
 2450SOL    HW219330   4.204   2.261  10.950 -1.4578 -1.0480  2.0666
 2451SOL     OW19331   1.736  13.790   5.885  0.3980  0.5798 -0.0958
 2451SOL    HW119332   1.750  13.828   5.798  1.3428  0.6240  0.0597
 2451SOL    HW219333   1.706  13.863   5.939  0.3509  0.6788 -0.2569
 2452SOL     OW19334   2.361   1.656   9.394 -0.2506 -0.0781 -0.5219
 2452SOL    HW119335   2.328   1.736   9.435  0.7847  0.9011 -1.5366
 2452SOL    HW219336   2.452   1.675   9.373  0.1380 -1.6792 -0.4269
 2453SOL     OW19337  12.542   9.401   4.900 -0.0951 -0.0597  0.4375
 2453SOL    HW119338  12.484   9.326   4.913 -0.0650 -0.5281 -1.7933
 2453SOL    HW219339  12.629   9.367   4.918 -0.1311 -0.4435 -0.0942
 2454SOL     OW19340  10.991   8.817   8.460  0.0358  0.3568  0.1346
 2454SOL    HW119341  10.966   8.906   8.438 -0.1432  0.1970 -0.3208
 2454SOL    HW219342  10.917   8.763   8.431 -0.3746  0.1637  1.4628
 2455SOL     OW19343   9.519  11.914   8.673 -0.2568 -0.4045  0.8143
 2455SOL    HW119344   9.559  11.995   8.640  0.8260  0.2665  3.5244
 2455SOL    HW219345   9.425  11.933   8.674 -0.2528 -0.1260 -0.8611
 2456SOL     OW19346  10.342   0.466  11.578 -0.3202  0.1497  0.1139
 2456SOL    HW119347  10.407   0.500  11.640 -1.3998 -0.4436  1.6208
 2456SOL    HW219348  10.302   0.544  11.540 -0.1240  0.5356  0.6873
 2457SOL     OW19349   7.136   2.954   8.503 -0.4470 -0.5814 -0.1564
 2457SOL    HW119350   7.085   2.872   8.507  0.7860 -1.3699 -0.2313
 2457SOL    HW219351   7.178   2.960   8.588 -1.2908  0.5096  0.2062
 2458SOL     OW19352  12.164  10.316  11.396  0.3010 -0.0146 -0.0175
 2458SOL    HW119353  12.085  10.266  11.378  1.8615 -1.9281 -2.3446
 2458SOL    HW219354  12.170  10.320  11.491 -1.7400 -1.2207  0.2032
 2459SOL     OW19355   9.620   6.487   6.639  0.4955  0.2306 -0.0715
 2459SOL    HW119356   9.662   6.568   6.666 -1.5673  1.4517 -0.3789
 2459SOL    HW219357   9.659   6.466   6.554  2.3932 -0.1665  0.8579
 2460SOL     OW19358   3.089   2.641   1.571 -0.2896  0.8252  0.5056
 2460SOL    HW119359   3.073   2.577   1.502  1.2477  0.8474  0.0819
 2460SOL    HW219360   3.043   2.720   1.542 -0.6217  0.4854  0.0924
 2461SOL     OW19361  12.280   6.757   1.188  0.0895 -0.5651 -0.1972
 2461SOL    HW119362  12.328   6.712   1.257 -0.8117 -0.4600  0.5186
 2461SOL    HW219363  12.259   6.843   1.225 -2.1282 -1.2144  0.2016
 2462SOL     OW19364   8.814   4.411  10.386  0.3388  0.0719  0.6388
 2462SOL    HW119365   8.735   4.449  10.348  0.7917 -0.9157 -1.4659
 2462SOL    HW219366   8.796   4.406  10.480 -0.7533  2.8887  0.6640
 2463SOL     OW19367   3.760   7.019  13.865 -0.1988  0.0080 -0.0421
 2463SOL    HW119368   3.697   6.968  13.916 -0.3987  1.4975  1.2582
 2463SOL    HW219369   3.846   6.983  13.891 -0.3869 -0.4180 -0.0015
 2464SOL     OW19370   4.253   1.453   3.725 -0.2919 -0.4723  0.0816
 2464SOL    HW119371   4.302   1.376   3.695 -1.5021 -0.3890 -2.3320
 2464SOL    HW219372   4.314   1.526   3.713  0.0165 -0.7401 -0.0011
 2465SOL     OW19373   2.168   4.273   8.567 -0.4955  0.3745 -0.6528
 2465SOL    HW119374   2.211   4.326   8.634  0.1035  1.8002 -2.1366
 2465SOL    HW219375   2.223   4.195   8.560  0.1318  0.7837 -0.3656
 2466SOL     OW19376  10.250   6.485   8.499  0.5108  0.2241 -0.6222
 2466SOL    HW119377  10.194   6.555   8.467  0.2545 -0.0398 -0.7575
 2466SOL    HW219378  10.242   6.416   8.433  1.3538  0.3602 -0.8840
 2467SOL     OW19379   5.546   1.050   4.104  0.0444  0.6532 -0.4633
 2467SOL    HW119380   5.538   0.963   4.065 -1.1211  1.7317 -2.7700
 2467SOL    HW219381   5.457   1.084   4.105  0.3565  1.5314  1.2421
 2468SOL     OW19382   4.410   2.295   2.198  0.0545  0.0538  0.6509
 2468SOL    HW119383   4.437   2.303   2.107 -0.5401  1.2375  0.5528
 2468SOL    HW219384   4.485   2.256   2.242 -0.1578 -1.8468 -0.5651
 2469SOL     OW19385   8.511  12.702  11.095  0.8223  0.2178  0.0413
 2469SOL    HW119386   8.544  12.791  11.100  2.3708 -0.3226  0.1734
 2469SOL    HW219387   8.418  12.711  11.078  1.1357  1.8461 -1.0288
 2470SOL     OW19388  12.127   7.265   4.703 -0.1309 -0.4710 -0.4653
 2470SOL    HW119389  12.065   7.338   4.702  1.0218  0.5784  0.8580
 2470SOL    HW219390  12.177   7.277   4.783  1.9994 -1.0849 -1.6243
 2471SOL     OW19391   4.778   5.715   3.319  0.2891  0.4201 -0.4149
 2471SOL    HW119392   4.838   5.770   3.369  0.4573  0.7096 -0.9275
 2471SOL    HW219393   4.696   5.764   3.318  0.3755  0.5664 -0.6798
 2472SOL     OW19394   7.913  11.501  13.537 -0.5251  0.0845  0.0887
 2472SOL    HW119395   7.922  11.427  13.477  1.8274 -0.1984  0.6810
 2472SOL    HW219396   7.882  11.462  13.619 -3.5303  0.4408 -0.7846
 2473SOL     OW19397   4.519   1.872   3.596  0.1206 -0.2765 -0.4704
 2473SOL    HW119398   4.612   1.894   3.586  0.2463 -0.6965 -0.2417
 2473SOL    HW219399   4.484   1.941   3.653  0.4105 -0.4105 -0.1266
 2474SOL     OW19400   3.649  10.861   4.878  0.1630  0.0499  0.1184
 2474SOL    HW119401   3.620  10.876   4.967 -0.5496 -0.7938  0.0330
 2474SOL    HW219402   3.601  10.784   4.848  0.2438  0.4245 -1.0584
 2475SOL     OW19403   5.609  11.010   8.130 -0.0651  0.0689  0.2348
 2475SOL    HW119404   5.561  10.980   8.207  0.1167  0.4863  0.5182
 2475SOL    HW219405   5.699  10.979   8.144 -0.5084 -1.9032 -0.9542
 2476SOL     OW19406  13.207   4.847  13.865 -0.3230 -0.1578  0.4032
 2476SOL    HW119407  13.282   4.805  13.823 -0.3060 -0.2144  0.4891
 2476SOL    HW219408  13.137   4.841  13.801  0.0851  0.9955 -0.1789
 2477SOL     OW19409  12.599   8.398   1.531 -0.2958 -0.3336  0.3753
 2477SOL    HW119410  12.574   8.487   1.509  0.6110 -0.1131  0.1697
 2477SOL    HW219411  12.518   8.347   1.525 -0.5959  0.2446 -0.6979
 2478SOL     OW19412   9.136   5.659   7.676  0.2268 -0.1489  0.7693
 2478SOL    HW119413   9.053   5.706   7.679  0.2522 -0.0062 -0.3405
 2478SOL    HW219414   9.195   5.711   7.731 -0.1775  0.2221  0.8612
 2479SOL     OW19415   5.520  13.880  10.263  0.2050  0.3651  0.0252
 2479SOL    HW119416   5.587  13.944  10.285  0.7497  0.2002 -1.0715
 2479SOL    HW219417   5.448  13.931  10.226  0.1664  0.4401  0.2013
 2480SOL     OW19418   2.518  12.251   0.951 -0.0039 -0.3781  0.2385
 2480SOL    HW119419   2.555  12.237   0.863 -1.0975  0.8223 -0.4473
 2480SOL    HW219420   2.488  12.164   0.978 -0.2866 -0.6561 -0.8872
 2481SOL     OW19421   6.452   8.558   6.867  0.0077  0.1262  0.0235
 2481SOL    HW119422   6.514   8.496   6.829  0.0127  0.9074 -1.3064
 2481SOL    HW219423   6.446   8.629   6.802 -1.6208  0.4812  0.5211
 2482SOL     OW19424  10.445   1.565  13.955 -0.5518 -0.0930 -0.3239
 2482SOL    HW119425  10.472   1.655  13.975 -1.1801  0.5456 -2.2128
 2482SOL    HW219426  10.381   1.544  14.024 -0.5538  0.9706  0.0194
 2483SOL     OW19427  12.925  12.086   1.739 -0.1714 -0.5083 -0.0866
 2483SOL    HW119428  12.982  12.160   1.761 -0.8646 -0.3291  1.1726
 2483SOL    HW219429  12.959  12.014   1.793 -1.5442 -0.2111  1.2403
 2484SOL     OW19430  13.725   1.891   6.375  0.3498 -0.0912 -0.3386
 2484SOL    HW119431  13.795   1.915   6.314 -0.1068 -2.4618 -1.9305
 2484SOL    HW219432  13.678   1.821   6.330 -2.1104  0.3651  1.3543
 2485SOL     OW19433   0.043   3.484   4.665 -0.1334 -0.0026  0.6126
 2485SOL    HW119434   0.002   3.414   4.715  0.6329  0.0869  1.4031
 2485SOL    HW219435   0.137   3.463   4.667  0.4930  2.3952  3.2195
 2486SOL     OW19436  11.923  12.707   6.110  0.5069 -0.4625 -0.8866
 2486SOL    HW119437  11.983  12.651   6.159  2.0352  1.9261  0.1799
 2486SOL    HW219438  11.843  12.656   6.103  0.9315 -1.8055  2.2510
 2487SOL     OW19439  11.201   1.609  12.174 -0.4466 -0.5621 -0.7855
 2487SOL    HW119440  11.109   1.633  12.182  0.0996  1.3104  0.5953
 2487SOL    HW219441  11.215   1.544  12.243 -0.6806 -0.6764 -0.8447
 2488SOL     OW19442   1.354  12.761   1.550 -0.1766  0.2296  0.2338
 2488SOL    HW119443   1.307  12.823   1.606  2.5702  0.8207  2.0495
 2488SOL    HW219444   1.423  12.726   1.605  0.7305 -1.5998 -1.9105
 2489SOL     OW19445  12.191   9.504   0.596  0.0541 -0.1085  0.1221
 2489SOL    HW119446  12.223   9.483   0.684 -1.6182  0.4417  0.9022
 2489SOL    HW219447  12.103   9.466   0.593 -1.3213  2.8219 -0.0168
 2490SOL     OW19448   4.375  12.329   0.200 -0.9058  0.1244  0.4028
 2490SOL    HW119449   4.420  12.274   0.136 -0.9669  0.2820  0.2207
 2490SOL    HW219450   4.283  12.301   0.195 -0.4845 -2.0725  2.6707
 2491SOL     OW19451   8.110  13.942  12.572  0.1556  0.2116  0.2332
 2491SOL    HW119452   8.026  13.914  12.608 -0.7109  0.8129 -1.2353
 2491SOL    HW219453   8.167  13.867  12.584 -0.7185 -0.3792  0.8282
 2492SOL     OW19454   2.944   3.873   6.734 -0.4728  0.5635 -0.3233
 2492SOL    HW119455   2.993   3.952   6.711 -0.3396  0.7546  0.6025
 2492SOL    HW219456   2.891   3.855   6.656  0.3648  0.8883 -0.9864
 2493SOL     OW19457   6.273  12.906   4.250 -0.1595 -0.1866  0.4166
 2493SOL    HW119458   6.183  12.932   4.233  0.3171  0.5309 -1.2005
 2493SOL    HW219459   6.267  12.847   4.325 -2.1110 -1.1250 -0.4021
 2494SOL     OW19460  14.006  12.212   4.964  0.1421  0.1555 -0.2035
 2494SOL    HW119461  14.061  12.282   4.929  0.2698  0.1572  0.0038
 2494SOL    HW219462  13.949  12.255   5.027 -0.2830  0.2024 -0.6079
 2495SOL     OW19463  11.192   4.191   2.834  0.1390  0.1886  0.4038
 2495SOL    HW119464  11.215   4.242   2.756  2.7091  0.2263  1.1216
 2495SOL    HW219465  11.117   4.237   2.871  1.5900  2.7876  0.3461
 2496SOL     OW19466   4.366   9.831  13.468 -0.7366  0.1845  0.6747
 2496SOL    HW119467   4.345   9.924  13.479 -0.4878  0.1887  1.1847
 2496SOL    HW219468   4.462   9.829  13.459 -0.4444 -0.1872  3.0625
 2497SOL     OW19469   3.269   3.308   1.230  0.1923  0.1560  0.0569
 2497SOL    HW119470   3.190   3.280   1.184  0.4203  0.4797 -0.5446
 2497SOL    HW219471   3.288   3.237   1.292  0.3199 -0.6601 -0.8887
 2498SOL     OW19472  10.091   6.228   3.036  0.3188 -0.2381  0.1131
 2498SOL    HW119473  10.008   6.182   3.027 -0.9354  2.1444 -1.8820
 2498SOL    HW219474  10.104   6.238   3.130 -1.5397 -0.8500  0.4624
 2499SOL     OW19475   9.630  13.743  10.655 -0.1016 -0.3828 -0.0446
 2499SOL    HW119476   9.649  13.694  10.575 -1.6679 -2.5521  0.8221
 2499SOL    HW219477   9.681  13.699  10.723 -0.2195  0.2637  0.4753
 2500SOL     OW19478   3.676  12.927   0.443  0.1440  0.0729 -0.7129
 2500SOL    HW119479   3.760  12.901   0.404  1.2123 -0.0205  1.4995
 2500SOL    HW219480   3.675  13.022   0.436  0.4672  0.0771 -0.7119
 2501SOL     OW19481  13.753   0.151   0.009  0.2257 -0.7376 -0.8138
 2501SOL    HW119482  13.744   0.242   0.037  0.6814  0.4761 -4.1341
 2501SOL    HW219483  13.668   0.111   0.027  0.5002 -0.1804  2.1307
 2502SOL     OW19484  14.040  12.387   4.555  0.0456 -0.3834  0.5084
 2502SOL    HW119485  13.973  12.364   4.490  0.2217  0.2985  0.0755
 2502SOL    HW219486  14.056  12.306   4.602 -0.2440 -0.8402 -0.1608
 2503SOL     OW19487  10.698  12.262  12.007 -0.3469 -0.0188 -0.3863
 2503SOL    HW119488  10.789  12.254  12.038  0.2349  1.4269 -1.5889
 2503SOL    HW219489  10.685  12.186  11.951 -0.0542 -0.4895  0.1638
 2504SOL     OW19490   1.390  12.990   1.326 -0.1660 -0.1422 -0.1524
 2504SOL    HW119491   1.452  13.063   1.323  0.4584 -0.6915 -0.9123
 2504SOL    HW219492   1.378  12.973   1.420 -0.5076  1.0778  0.0476
 2505SOL     OW19493   1.963   1.586   1.123  0.1584  0.2502 -0.0370
 2505SOL    HW119494   1.943   1.679   1.130  0.6712  0.4540 -1.0881
 2505SOL    HW219495   1.879   1.545   1.101  0.2169  0.6704 -1.0849
 2506SOL     OW19496   1.036   4.926  11.905 -0.9386  0.1176 -0.0045
 2506SOL    HW119497   1.088   5.006  11.897 -2.4832  1.2262  0.4810
 2506SOL    HW219498   1.094   4.856  11.875  0.3564  1.4520 -0.7254
 2507SOL     OW19499   3.236  12.542   2.109 -0.2501 -0.6931 -0.4201
 2507SOL    HW119500   3.203  12.474   2.168 -0.1166 -0.0408  0.4257
 2507SOL    HW219501   3.225  12.624   2.158 -0.8140 -0.0451 -1.5834
 2508SOL     OW19502   0.939  10.651   0.602 -0.1513  0.4501  0.7241
 2508SOL    HW119503   1.003  10.583   0.619  1.9708  1.7040 -1.5480
 2508SOL    HW219504   0.896  10.623   0.521 -0.4987  0.9632  0.7257
 2509SOL     OW19505  11.944   6.770   2.324  0.1336  0.6028 -0.6180
 2509SOL    HW119506  11.928   6.706   2.255  0.6606 -1.0445  0.7337
 2509SOL    HW219507  11.961   6.852   2.277 -1.7513  0.0807 -2.3647
 2510SOL     OW19508   7.958   3.069   6.619 -0.9314  0.4622  0.3748
 2510SOL    HW119509   7.961   2.989   6.566  0.0003  0.9833 -0.3870
 2510SOL    HW219510   8.022   3.127   6.579 -1.5090  1.5626  0.9847
 2511SOL     OW19511   1.099   4.527   5.986  0.1686  0.3366 -0.0727
 2511SOL    HW119512   1.125   4.615   6.011  0.0422  0.2655  0.3258
 2511SOL    HW219513   1.114   4.474   6.065 -1.5379  0.3677  0.3078
 2512SOL     OW19514   6.655   2.449   5.585  0.2985  0.2464  0.0413
 2512SOL    HW119515   6.566   2.413   5.591  0.6439 -0.3910  1.8125
 2512SOL    HW219516   6.713   2.374   5.595  1.1105  0.4224 -2.5671
 2513SOL     OW19517   2.157   4.102  11.779  0.0796  0.3276 -0.0030
 2513SOL    HW119518   2.063   4.084  11.788  0.3686 -1.4101 -0.0826
 2513SOL    HW219519   2.170   4.116  11.685 -0.0064 -0.1523 -0.0913
 2514SOL     OW19520   8.566   3.420   2.754  0.2543 -0.1669 -0.9264
 2514SOL    HW119521   8.601   3.401   2.667 -0.3720 -1.7896 -0.8631
 2514SOL    HW219522   8.570   3.336   2.800 -0.2647  0.4628  0.3128
 2515SOL     OW19523  13.586   6.055   8.887 -0.7711 -0.5075  0.2075
 2515SOL    HW119524  13.626   6.043   8.973  0.3405  1.5243  0.0437
 2515SOL    HW219525  13.661   6.063   8.828 -1.4665  0.6068 -0.5529
 2516SOL     OW19526  10.428   7.907   1.479 -0.6818 -0.2013 -0.4577
 2516SOL    HW119527  10.376   7.966   1.425  0.0606  1.3501  0.4584
 2516SOL    HW219528  10.397   7.923   1.568 -0.7717 -1.5504 -0.2164
 2517SOL     OW19529  10.683   8.501  10.173 -0.3909  0.3628  0.3496
 2517SOL    HW119530  10.628   8.426  10.154  0.0617  0.1927 -0.3359
 2517SOL    HW219531  10.665   8.564  10.103  1.3724 -0.3118 -0.7763
 2518SOL     OW19532   0.244  13.981  11.847 -0.8644 -0.2689 -0.3879
 2518SOL    HW119533   0.323  14.007  11.800 -0.6471  1.7343  0.9754
 2518SOL    HW219534   0.275  13.916  11.910 -0.3836  0.1379 -0.1975
 2519SOL     OW19535   6.750  13.802   5.710 -0.3605 -0.6922  0.6186
 2519SOL    HW119536   6.831  13.812   5.760  0.5763 -0.9038 -0.8052
 2519SOL    HW219537   6.741  13.886   5.664 -0.6541 -0.8796  0.3377
 2520SOL     OW19538   8.214  11.181   4.271 -0.3125  0.0765 -0.3083
 2520SOL    HW119539   8.144  11.192   4.207  1.0624  0.6217 -1.7878
 2520SOL    HW219540   8.283  11.240   4.241  0.0372  1.1116  2.2485
 2521SOL     OW19541   8.581   4.808   6.559  0.1268 -0.8917 -0.2717
 2521SOL    HW119542   8.535   4.837   6.480  1.1468  1.7238 -0.0071
 2521SOL    HW219543   8.641   4.740   6.528 -0.9952 -1.4535 -1.3256
 2522SOL     OW19544   4.700  12.699   2.648  0.6334 -0.0299 -0.2144
 2522SOL    HW119545   4.772  12.707   2.711  0.9098  1.3979 -0.6644
 2522SOL    HW219546   4.674  12.789   2.631 -0.1384 -0.4503 -1.3488
 2523SOL     OW19547  11.923   6.996   7.886 -0.3705  0.2925  0.5686
 2523SOL    HW119548  11.866   7.068   7.860  0.9359  1.7484  1.5529
 2523SOL    HW219549  12.010   7.024   7.858  0.3034 -0.4699  1.8519
 2524SOL     OW19550   9.203   6.726  11.335  0.2477  0.1945 -0.7358
 2524SOL    HW119551   9.137   6.673  11.379 -0.5182  2.8479  1.6012
 2524SOL    HW219552   9.156   6.806  11.308  1.7921  0.6876 -2.1502
 2525SOL     OW19553   1.196  12.979   4.083  0.2348 -0.5009 -0.2941
 2525SOL    HW119554   1.116  12.927   4.094  0.5523 -0.9225  0.0739
 2525SOL    HW219555   1.259  12.919   4.043  0.4088 -0.2122 -0.4581
 2526SOL     OW19556  13.285   7.304   8.654  0.0241 -0.1304 -0.4816
 2526SOL    HW119557  13.308   7.394   8.632  1.1135  0.2274  1.7428
 2526SOL    HW219558  13.302   7.298   8.749  0.1350 -2.7006 -0.5950
 2527SOL     OW19559  13.876   5.117   0.757  0.4980 -0.1695 -0.0287
 2527SOL    HW119560  13.949   5.094   0.816  1.0775 -0.7600 -0.9544
 2527SOL    HW219561  13.888   5.061   0.681  0.3940  1.3520 -1.2073
 2528SOL     OW19562   0.115   7.752   5.307 -0.2237 -0.6884 -0.0285
 2528SOL    HW119563   0.065   7.674   5.330  2.1325 -2.6616 -1.1210
 2528SOL    HW219564   0.152   7.782   5.390  2.0406 -3.2078  0.0298
 2529SOL     OW19565  10.177   9.664  12.205 -0.7006  0.5110 -0.0061
 2529SOL    HW119566  10.102   9.670  12.147  1.6235  0.8183 -3.2862
 2529SOL    HW219567  10.176   9.574  12.237 -3.5580  1.0955  1.8813
 2530SOL     OW19568   0.348   0.650   4.081  0.7802 -0.5917 -0.3237
 2530SOL    HW119569   0.272   0.597   4.055 -1.4913  3.1296 -2.1674
 2530SOL    HW219570   0.356   0.715   4.011  4.6468  0.3048  0.7254
 2531SOL     OW19571   8.015   3.895   0.351 -0.0176 -0.4251 -0.0609
 2531SOL    HW119572   8.032   3.981   0.312 -2.2742  1.0891  2.0005
 2531SOL    HW219573   7.951   3.855   0.291 -0.1958  0.0242 -0.1759
 2532SOL     OW19574  13.769  12.099   1.853 -0.6322  0.5766  0.8631
 2532SOL    HW119575  13.772  12.152   1.773  0.3834  2.2850  1.9826
 2532SOL    HW219576  13.831  12.027   1.836 -2.6896 -0.8895 -1.0134
 2533SOL     OW19577   9.596   8.500   3.076  0.5894 -0.0931  0.0309
 2533SOL    HW119578   9.572   8.486   3.167  0.7740  1.3596  0.3157
 2533SOL    HW219579   9.604   8.594   3.067  0.5700 -0.2115 -1.4980
 2534SOL     OW19580  12.410   3.552   6.544 -0.0003  0.2341 -0.4233
 2534SOL    HW119581  12.347   3.498   6.496 -0.4679  0.4413 -0.0526
 2534SOL    HW219582  12.362   3.631   6.566  0.2824  0.2523  0.1672
 2535SOL     OW19583  11.055   5.315   3.963 -0.1383  0.6624  0.5575
 2535SOL    HW119584  11.009   5.269   4.034 -1.6646  0.8963 -0.2352
 2535SOL    HW219585  11.124   5.254   3.936 -1.0151 -0.4166  0.6964
 2536SOL     OW19586   8.617   0.268   1.578  0.2911 -0.0870 -0.0274
 2536SOL    HW119587   8.554   0.317   1.631  1.1946 -0.0348  1.0175
 2536SOL    HW219588   8.662   0.210   1.640  1.0395 -0.3728 -0.8124
 2537SOL     OW19589  12.893   9.273  13.935  0.0463 -0.5262 -0.5169
 2537SOL    HW119590  12.944   9.342  13.976 -0.4525 -0.5210  0.1022
 2537SOL    HW219591  12.855   9.314  13.857 -0.6229  0.0406  0.0957
 2538SOL     OW19592   1.374   5.441   6.372  0.3614 -0.2039 -0.1989
 2538SOL    HW119593   1.454   5.396   6.346 -0.0228 -2.3681  2.0211
 2538SOL    HW219594   1.383   5.453   6.467 -1.4662  0.5235 -0.0714
 2539SOL     OW19595  13.285  10.836   4.939 -0.2061  0.0876 -0.2259
 2539SOL    HW119596  13.240  10.890   4.874  0.4043  1.6237  0.5901
 2539SOL    HW219597  13.377  10.837   4.912 -0.0072  0.4352  0.4276
 2540SOL     OW19598   8.812   6.646   8.875 -0.1237  0.0998  0.5423
 2540SOL    HW119599   8.858   6.706   8.817  1.5509 -1.7196 -0.0973
 2540SOL    HW219600   8.860   6.650   8.958 -1.3783  1.2587  1.2768
 2541SOL     OW19601   2.994  10.727   8.568 -0.0555  0.4721  0.0523
 2541SOL    HW119602   3.088  10.741   8.586  0.2600 -0.0346 -1.1070
 2541SOL    HW219603   2.976  10.783   8.492 -0.6065  0.2833  0.0399
 2542SOL     OW19604  10.126   1.527   2.497  0.1585  0.5037  0.1561
 2542SOL    HW119605  10.082   1.451   2.458  1.4069 -0.3749  0.4277
 2542SOL    HW219606  10.118   1.595   2.430 -0.3308 -0.0853 -0.4062
 2543SOL     OW19607   3.591   6.607   5.191 -0.4322 -0.5621 -0.2117
 2543SOL    HW119608   3.606   6.702   5.185 -1.1313 -0.4736 -0.6927
 2543SOL    HW219609   3.528   6.588   5.121  0.3980 -1.5421 -0.7159
 2544SOL     OW19610  13.250  13.321   3.146  0.0705 -0.0130  0.2687
 2544SOL    HW119611  13.194  13.385   3.102  0.6156 -0.8586 -1.7988
 2544SOL    HW219612  13.191  13.275   3.206 -0.9457  0.6120 -0.2103
 2545SOL     OW19613  11.294   8.843   8.919  0.0266 -0.2681 -0.1091
 2545SOL    HW119614  11.298   8.765   8.975  1.1616 -0.1102  0.0628
 2545SOL    HW219615  11.274   8.808   8.832  2.1275 -0.9957 -0.3732
 2546SOL     OW19616   6.719   4.705   6.378 -0.0559 -0.5052  0.2098
 2546SOL    HW119617   6.690   4.634   6.434  0.1325 -1.0136 -0.3237
 2546SOL    HW219618   6.805   4.728   6.410  0.1006 -0.8751  0.0619
 2547SOL     OW19619   2.884  11.554  10.213 -0.0033  0.0540  0.3739
 2547SOL    HW119620   2.949  11.608  10.168  0.1281 -0.6295 -0.2602
 2547SOL    HW219621   2.878  11.593  10.301  1.2856  0.1023  0.4551
 2548SOL     OW19622   1.514   1.303  12.008  1.0326 -0.5725  0.2809
 2548SOL    HW119623   1.512   1.207  12.000  0.5662 -0.5458  0.0797
 2548SOL    HW219624   1.576   1.319  12.079  0.4251 -1.0699  0.9388
 2549SOL     OW19625   1.656  13.963   6.529 -0.1183  0.0356  0.2875
 2549SOL    HW119626   1.634  13.933   6.441 -1.4410  1.3977  0.1104
 2549SOL    HW219627   1.721  13.900   6.561 -1.6010 -2.0610 -0.6147
 2550SOL     OW19628   1.102   3.137   8.251 -0.4210 -0.4483 -0.2912
 2550SOL    HW119629   1.146   3.173   8.327 -1.5262 -0.7810  0.5344
 2550SOL    HW219630   1.152   3.169   8.176 -0.4717  1.5320  0.4647
 2551SOL     OW19631  11.689   5.720   8.204  0.4478  0.4131  0.5405
 2551SOL    HW119632  11.595   5.728   8.183  0.7140  0.8256 -0.5870
 2551SOL    HW219633  11.691   5.676   8.289 -0.7546 -0.3351  0.2149
 2552SOL     OW19634  10.115   6.784   1.586 -0.6787  0.2314  1.3076
 2552SOL    HW119635  10.100   6.845   1.513  0.4773 -2.1626 -1.1065
 2552SOL    HW219636  10.032   6.781   1.632 -1.4195  1.9675  0.1873
 2553SOL     OW19637   8.182  10.155   7.229 -0.2123 -0.4246 -0.2893
 2553SOL    HW119638   8.167  10.233   7.283  0.9715 -0.2318 -0.2145
 2553SOL    HW219639   8.151  10.083   7.283 -1.5537 -0.0012 -0.4595
 2554SOL     OW19640  10.360  11.205  10.427  0.4218 -0.1693  0.4805
 2554SOL    HW119641  10.332  11.287  10.468  1.1829 -0.0926  0.8671
 2554SOL    HW219642  10.285  11.178  10.374  0.7994  1.7851 -1.2168
 2555SOL     OW19643  12.972   2.129   6.277 -0.0953  0.2492 -0.0370
 2555SOL    HW119644  13.065   2.144   6.257  0.0765  0.3020  0.7628
 2555SOL    HW219645  12.972   2.096   6.367 -0.9098  0.9685  0.2383
 2556SOL     OW19646  12.159   8.818   7.135 -0.0934  0.6058  0.1392
 2556SOL    HW119647  12.220   8.879   7.093  0.3474  1.0045  1.3175
 2556SOL    HW219648  12.197   8.731   7.118 -0.1284  0.7308 -0.6007
 2557SOL     OW19649   2.275  13.142  12.534 -0.1009  0.1277 -0.7964
 2557SOL    HW119650   2.237  13.082  12.598  0.8458  1.7749  1.4323
 2557SOL    HW219651   2.203  13.164  12.475 -1.4257 -0.2945  0.6043
 2558SOL     OW19652   6.357   9.953   4.572  0.3517  0.2108 -0.3560
 2558SOL    HW119653   6.297   9.918   4.506  0.2425 -3.0982  1.2553
 2558SOL    HW219654   6.306   9.951   4.653  1.0592  2.4333  0.1967
 2559SOL     OW19655  11.791   6.429   2.494  0.4831  0.6128  0.7980
 2559SOL    HW119656  11.868   6.374   2.510  0.5468  0.2291 -0.6691
 2559SOL    HW219657  11.719   6.383   2.538  0.7073 -0.1672  0.3682
 2560SOL     OW19658  11.686   0.462  12.967 -0.0359  0.6820  0.5228
 2560SOL    HW119659  11.715   0.411  12.892  1.2861  1.2479  0.6212
 2560SOL    HW219660  11.595   0.435  12.981  1.0433 -2.9502  1.6423
 2561SOL     OW19661   4.540   2.701   1.206 -0.0863  0.7484 -0.2505
 2561SOL    HW119662   4.502   2.712   1.119  0.2984  1.2149 -0.3652
 2561SOL    HW219663   4.485   2.755   1.263 -1.0464 -0.4482  0.0192
 2562SOL     OW19664  13.803   0.065  12.415 -0.1762  0.3698 -0.0925
 2562SOL    HW119665  13.810   0.128  12.343  1.6643  0.8203  0.4176
 2562SOL    HW219666  13.717   0.082  12.454 -0.8175  0.7305 -1.6060
 2563SOL     OW19667   9.120  12.215   3.098  0.7482 -0.0585 -0.2184
 2563SOL    HW119668   9.188  12.282   3.106  0.4329  0.1339  1.1805
 2563SOL    HW219669   9.126  12.164   3.179 -1.6214  0.8337  0.6399
 2564SOL     OW19670   5.914   1.469   9.578  0.0556 -0.4664  0.1867
 2564SOL    HW119671   5.864   1.448   9.657  1.9021 -0.3402  1.4655
 2564SOL    HW219672   5.993   1.415   9.586 -0.0515 -1.0077 -1.9846
 2565SOL     OW19673  12.961   6.427   7.717 -0.4026 -0.1848  0.1310
 2565SOL    HW119674  12.955   6.347   7.664  0.1917 -0.4402  0.4436
 2565SOL    HW219675  13.055   6.442   7.728 -0.5155  0.2478  0.5430
 2566SOL     OW19676  11.708   9.360  13.494  0.0503 -0.1212 -0.6875
 2566SOL    HW119677  11.746   9.333  13.577  1.1356 -0.1051 -1.1514
 2566SOL    HW219678  11.648   9.289  13.470  1.5449 -1.3238 -1.0403
 2567SOL     OW19679   7.015   4.285   6.660 -0.6656  0.0591  0.4173
 2567SOL    HW119680   6.966   4.318   6.584  0.5539 -0.2777 -0.5434
 2567SOL    HW219681   6.957   4.302   6.735 -2.2711 -0.3796 -0.6748
 2568SOL     OW19682  10.678   5.368  13.765 -0.2891 -0.7430  0.8291
 2568SOL    HW119683  10.646   5.317  13.691 -0.6284 -1.3291  1.3709
 2568SOL    HW219684  10.707   5.451  13.726  0.1583 -1.2896 -0.0455
 2569SOL     OW19685  12.703   7.709   9.055  0.1504 -0.0907 -0.4744
 2569SOL    HW119686  12.714   7.766   9.131  0.1084 -0.5023 -0.1541
 2569SOL    HW219687  12.662   7.630   9.090 -0.8004  0.1087 -1.0983
 2570SOL     OW19688   2.740   1.821   8.376  0.2441  0.3543 -0.2050
 2570SOL    HW119689   2.790   1.741   8.393 -2.5987 -1.1087  2.1689
 2570SOL    HW219690   2.693   1.803   8.295 -0.3369 -0.4028  0.2872
 2571SOL     OW19691   3.742   1.153  11.685 -0.5430  0.4211  0.5384
 2571SOL    HW119692   3.789   1.127  11.764 -0.3926 -1.9198 -0.2672
 2571SOL    HW219693   3.656   1.111  11.693 -2.5173  4.1883  1.7448
 2572SOL     OW19694   9.084   1.104  10.796 -0.9531 -0.0284  0.3291
 2572SOL    HW119695   9.117   1.121  10.884  0.5630 -1.3163  0.0528
 2572SOL    HW219696   9.099   1.186  10.748  0.1328  0.0119  0.7233
 2573SOL     OW19697   0.482   2.582  10.469 -0.3712  0.0907 -0.3688
 2573SOL    HW119698   0.443   2.503  10.433  1.7929 -1.2790  0.1241
 2573SOL    HW219699   0.496   2.639  10.393 -0.6876 -0.5759 -0.9318
 2574SOL     OW19700   7.412   0.520   9.251 -0.3625 -0.1999  0.2626
 2574SOL    HW119701   7.435   0.595   9.197  1.2508 -0.9154 -0.1213
 2574SOL    HW219702   7.496   0.479   9.272 -1.1193 -1.2296  1.4261
 2575SOL     OW19703  12.443   2.806   3.622 -0.0669 -0.3834  0.0376
 2575SOL    HW119704  12.442   2.894   3.659 -0.3872  0.5494 -2.0592
 2575SOL    HW219705  12.398   2.753   3.687 -1.1477  1.2784  0.7225
 2576SOL     OW19706   2.898  10.687   6.938 -0.0742  0.3036  0.3412
 2576SOL    HW119707   2.904  10.645   6.853  3.7478  0.5477  0.3165
 2576SOL    HW219708   2.933  10.775   6.924  0.4535  0.4090  2.1048
 2577SOL     OW19709  11.146  11.545   4.739  0.2345 -0.0393  0.4044
 2577SOL    HW119710  11.171  11.489   4.666  0.7522 -0.6381  1.0330
 2577SOL    HW219711  11.172  11.633   4.712  1.1515 -0.3673  0.2016
 2578SOL     OW19712   4.332   7.120   3.557  0.5156 -0.0235  0.3903
 2578SOL    HW119713   4.411   7.095   3.510  0.0919 -0.8684  0.1106
 2578SOL    HW219714   4.340   7.215   3.568  0.7635  0.1556 -1.1369
 2579SOL     OW19715   9.408   3.834   6.001 -0.3599 -0.0669  0.0530
 2579SOL    HW119716   9.440   3.924   5.998  0.3952 -0.2483  1.5469
 2579SOL    HW219717   9.314   3.842   5.987 -0.2001  0.8615 -0.6095
 2580SOL     OW19718   0.560   0.033  10.408 -0.1508  0.1813  0.0994
 2580SOL    HW119719   0.599  -0.025  10.342 -0.6758 -1.9589  1.5430
 2580SOL    HW219720   0.634   0.085  10.440  0.1682  1.0712 -1.8984
 2581SOL     OW19721  11.658  11.812  10.949  0.8775  0.1118 -0.4599
 2581SOL    HW119722  11.597  11.801  11.023 -0.0573 -0.4083 -1.2812
 2581SOL    HW219723  11.744  11.818  10.990  0.3543  0.0888  0.6946
 2582SOL     OW19724   5.360   0.710   3.221  0.0008 -0.0158 -0.2216
 2582SOL    HW119725   5.425   0.691   3.289 -1.6781  0.0989  1.5209
 2582SOL    HW219726   5.317   0.626   3.204 -1.4164  0.4193  0.9338
 2583SOL     OW19727  13.432   0.873  10.443  0.4684  0.6098 -0.0318
 2583SOL    HW119728  13.346   0.838  10.467  0.2027  1.0343 -0.3530
 2583SOL    HW219729  13.473   0.896  10.527  0.5212 -0.1658  0.1643
 2584SOL     OW19730   2.020   4.702   9.348  0.2434  0.2187 -0.7091
 2584SOL    HW119731   2.067   4.625   9.316  1.4241  0.6754 -0.1294
 2584SOL    HW219732   1.965   4.668   9.419  1.3045  0.0016  0.0389
 2585SOL     OW19733   6.118   3.972   9.207  0.0570 -0.0444 -0.0370
 2585SOL    HW119734   6.209   3.976   9.237  0.3029  0.7087 -0.8200
 2585SOL    HW219735   6.115   4.034   9.134  0.0766 -3.3238 -3.0917
 2586SOL     OW19736   7.388  11.714  12.912 -0.0154 -0.1138  0.7743
 2586SOL    HW119737   7.292  11.712  12.906  0.0634 -0.8765 -0.9090
 2586SOL    HW219738   7.407  11.796  12.959 -1.4322  2.0001 -2.0018
 2587SOL     OW19739   0.383   9.902   4.573 -0.1869  0.9255  0.4221
 2587SOL    HW119740   0.377   9.870   4.663  1.1954 -0.3218  0.1064
 2587SOL    HW219741   0.449   9.846   4.532 -0.7783  1.4785 -1.3706
 2588SOL     OW19742   6.323   0.934   9.860 -0.4756  0.3456  0.0867
 2588SOL    HW119743   6.389   1.002   9.876 -1.1527  0.6096  1.9457
 2588SOL    HW219744   6.239   0.980   9.864 -0.8595 -0.2407 -0.8556
 2589SOL     OW19745   4.880   2.064   3.269 -0.4707 -0.2115  0.1790
 2589SOL    HW119746   4.964   2.019   3.280  0.6115  1.4508 -0.8586
 2589SOL    HW219747   4.831   2.042   3.348  0.7522 -1.5945  0.6033
 2590SOL     OW19748  10.893   2.328   0.124 -0.2342 -0.0364  0.1464
 2590SOL    HW119749  10.964   2.356   0.182 -0.5333 -0.3562  0.6704
 2590SOL    HW219750  10.934   2.323   0.037  0.5467 -0.8251  0.5468
 2591SOL     OW19751   7.584   1.960   7.774  0.0089  0.1207  0.3785
 2591SOL    HW119752   7.491   1.964   7.797 -0.6658 -0.0270 -2.0055
 2591SOL    HW219753   7.585   1.919   7.687  2.3278 -0.0030  0.4027
 2592SOL     OW19754   6.453  12.724   1.356 -0.2384  0.0852 -0.5917
 2592SOL    HW119755   6.502  12.805   1.343  0.0205  0.0664  0.1657
 2592SOL    HW219756   6.477  12.669   1.282  1.8126 -0.3493  0.3087
 2593SOL     OW19757   4.395  11.217  12.082  0.2809  0.5440  0.5420
 2593SOL    HW119758   4.387  11.145  12.144 -2.2586  0.5364  0.3024
 2593SOL    HW219759   4.340  11.287  12.119 -1.6949  0.3790 -1.8363
 2594SOL     OW19760   5.674   6.888   3.119 -0.0654  0.1538  0.0659
 2594SOL    HW119761   5.751   6.843   3.155 -1.1577 -1.6123  0.2868
 2594SOL    HW219762   5.699   6.910   3.030  0.5899 -0.6994  0.0302
 2595SOL     OW19763  13.155   3.584   8.106  0.4314  0.3207 -0.3795
 2595SOL    HW119764  13.158   3.532   8.186 -0.2126  0.6055 -0.1656
 2595SOL    HW219765  13.184   3.524   8.037  0.1913 -0.1659 -0.0587
 2596SOL     OW19766   0.362   4.459   4.927  0.0134  0.5228  0.1428
 2596SOL    HW119767   0.312   4.470   5.008 -0.4861  0.8915 -0.2086
 2596SOL    HW219768   0.356   4.366   4.908 -0.3583  0.5290  0.2189
 2597SOL     OW19769  11.422  13.058  11.060  0.7046  0.1209 -0.1156
 2597SOL    HW119770  11.362  13.016  10.998  0.6799 -0.1488  0.0871
 2597SOL    HW219771  11.488  13.101  11.005  0.0152  0.8917 -0.3548
 2598SOL     OW19772   2.882   8.185  11.817  0.1297 -0.0203  0.0904
 2598SOL    HW119773   2.925   8.235  11.748 -0.2039  0.5251  0.2724
 2598SOL    HW219774   2.920   8.219  11.898 -0.1031 -0.0483  0.2142
 2599SOL     OW19775   0.273   3.636  12.199 -0.2815  0.1209 -0.1429
 2599SOL    HW119776   0.322   3.708  12.240 -0.4881 -0.6789  1.6382
 2599SOL    HW219777   0.339   3.585  12.154 -0.3971  2.5647 -3.4198
 2600SOL     OW19778  11.689   7.278  10.625 -0.4910  0.1332 -0.5205
 2600SOL    HW119779  11.761   7.215  10.633 -1.0253 -0.3383  0.9998
 2600SOL    HW219780  11.614   7.225  10.598 -0.9082  0.1075  0.6290
 2601SOL     OW19781   0.873   7.554  11.258 -0.2025 -0.5172 -0.1598
 2601SOL    HW119782   0.871   7.528  11.350 -1.2784 -0.3398 -0.1165
 2601SOL    HW219783   0.959   7.527  11.227 -0.1542 -1.3654  0.6704
 2602SOL     OW19784  10.718   9.522  11.621  0.1961 -0.6848 -0.2675
 2602SOL    HW119785  10.695   9.603  11.667  0.4125 -1.5450  1.4209
 2602SOL    HW219786  10.676   9.530  11.536  0.2969  1.2473 -0.1769
 2603SOL     OW19787   0.689   6.498  13.112  0.8094 -0.3708 -0.1090
 2603SOL    HW119788   0.611   6.553  13.122  1.2010  0.1189  0.3517
 2603SOL    HW219789   0.747   6.549  13.056  1.6817  0.2742  1.3251
 2604SOL     OW19790  10.176   5.619   8.360  0.8120  0.0244 -0.1314
 2604SOL    HW119791  10.128   5.670   8.295 -0.1783 -0.7887 -0.0620
 2604SOL    HW219792  10.146   5.529   8.348 -0.7779  0.0691  2.5592
 2605SOL     OW19793  13.200  11.521   2.106  0.5032 -0.1950 -0.2321
 2605SOL    HW119794  13.165  11.505   2.194 -0.2724  0.2286 -0.4500
 2605SOL    HW219795  13.282  11.473   2.104  0.1055 -0.9340  0.4249
 2606SOL     OW19796   1.220   8.315  11.901  0.4171 -0.4142 -0.2032
 2606SOL    HW119797   1.307   8.337  11.933 -0.2364 -0.4147  1.6753
 2606SOL    HW219798   1.210   8.222  11.922 -0.0987 -0.3716 -0.2511
 2607SOL     OW19799   5.480   4.532  10.953 -0.6647 -0.9207 -0.2801
 2607SOL    HW119800   5.485   4.625  10.976  2.6911 -0.8340 -0.9052
 2607SOL    HW219801   5.495   4.529  10.858  1.0465 -2.1173 -0.0352
 2608SOL     OW19802   1.655  13.935   9.928 -0.3270  0.4726 -0.3577
 2608SOL    HW119803   1.603  13.912   9.850 -0.4185  0.5240 -0.3113
 2608SOL    HW219804   1.627  13.872   9.994 -0.3127  0.4855 -0.3392
 2609SOL     OW19805   5.812  12.266   8.408 -0.1567  0.1195 -0.2665
 2609SOL    HW119806   5.765  12.292   8.487 -1.4231  0.8018 -1.1968
 2609SOL    HW219807   5.901  12.248   8.437 -0.7318 -0.1723  1.3933
 2610SOL     OW19808   9.705   3.089  11.978  0.6120  0.1352 -0.0849
 2610SOL    HW119809   9.736   2.999  11.975 -1.2178 -0.5332 -0.0262
 2610SOL    HW219810   9.624   3.088  11.928 -1.4857  0.8679  3.0280
 2611SOL     OW19811   0.168   3.873   1.778 -0.3647  0.2453  0.5176
 2611SOL    HW119812   0.235   3.811   1.749  1.4981  1.9556  0.9474
 2611SOL    HW219813   0.168   3.942   1.711 -1.6529  0.3389  0.5782
 2612SOL     OW19814   1.331  13.579   7.746 -0.0190  0.5219 -0.3257
 2612SOL    HW119815   1.281  13.503   7.775  2.0216 -0.0393  1.9992
 2612SOL    HW219816   1.339  13.635   7.823  2.4398  0.8280 -0.7067
 2613SOL     OW19817   9.705   7.439   5.137  0.1326  0.2712  0.1329
 2613SOL    HW119818   9.680   7.529   5.121  1.0049  0.7164  1.1273
 2613SOL    HW219819   9.785   7.426   5.086 -0.2215 -0.0809 -0.3446
 2614SOL     OW19820  10.446   7.285   2.279  0.0936 -0.6695  0.1979
 2614SOL    HW119821  10.529   7.305   2.321 -0.0251  1.2859 -0.3533
 2614SOL    HW219822  10.421   7.367   2.236 -0.3313 -2.1761 -2.7309
 2615SOL     OW19823   4.227   9.264   4.491 -0.2439 -0.1608  0.2688
 2615SOL    HW119824   4.174   9.212   4.430 -1.6253 -0.0660  1.3426
 2615SOL    HW219825   4.263   9.335   4.436 -2.3841  0.5954 -0.2805
 2616SOL     OW19826  11.829   9.165  11.242  0.5361 -0.6709 -0.2467
 2616SOL    HW119827  11.858   9.238  11.297 -0.3796 -1.4626  1.3892
 2616SOL    HW219828  11.768   9.204  11.179  0.4538  0.0575  0.2742
 2617SOL     OW19829   4.700   9.658   1.511  0.0175  0.4798 -0.0337
 2617SOL    HW119830   4.685   9.729   1.449  1.7850  0.7706 -0.1693
 2617SOL    HW219831   4.776   9.611   1.476 -0.8614 -1.2371  0.2793
 2618SOL     OW19832   9.964  11.942   0.245  0.0334 -0.4734 -0.1496
 2618SOL    HW119833   9.993  11.884   0.315 -0.4781 -0.7786 -0.1832
 2618SOL    HW219834   9.949  11.884   0.170 -0.4357 -0.2897 -0.1977
 2619SOL     OW19835  11.686   5.973  10.792  0.4185  0.2775 -0.1050
 2619SOL    HW119836  11.740   6.049  10.810 -1.0076  1.3208 -0.0837
 2619SOL    HW219837  11.603   6.009  10.762 -0.5568 -1.2631  0.6444
 2620SOL     OW19838   7.180   1.518   4.207  0.2768  0.0558 -0.3335
 2620SOL    HW119839   7.252   1.567   4.167  0.4642  0.2352  0.2243
 2620SOL    HW219840   7.148   1.461   4.136  0.0759  0.9563 -0.9823
 2621SOL     OW19841   3.807   6.873   6.003  0.4022  0.3723  0.3758
 2621SOL    HW119842   3.840   6.957   6.034 -0.0631  0.8075 -0.2768
 2621SOL    HW219843   3.720   6.865   6.040  0.9949 -0.5279  1.6557
 2622SOL     OW19844   3.815  11.434   2.380  0.1930 -0.3389 -0.4294
 2622SOL    HW119845   3.759  11.359   2.400  0.8471 -0.5564  0.7134
 2622SOL    HW219846   3.770  11.508   2.421  0.8706 -0.5649  0.7651
 2623SOL     OW19847   5.736   9.251   6.248 -0.3825 -0.2465 -0.2869
 2623SOL    HW119848   5.713   9.338   6.214 -2.4590 -0.6380 -0.0239
 2623SOL    HW219849   5.791   9.213   6.181 -0.9671  0.5955 -1.2824
 2624SOL     OW19850  10.443   1.006   1.715  0.0428  0.3021  0.0882
 2624SOL    HW119851  10.440   1.092   1.757  0.6607  0.4990 -0.2669
 2624SOL    HW219852  10.530   1.000   1.676 -0.1547 -0.2953 -0.2901
 2625SOL     OW19853   2.233   3.451   1.369 -0.0473 -0.1308  0.3496
 2625SOL    HW119854   2.312   3.491   1.405  0.0679  0.0169 -0.0634
 2625SOL    HW219855   2.221   3.371   1.420  1.0055 -0.7404 -0.3326
 2626SOL     OW19856   7.065   9.740   0.716 -0.6382 -0.0774  0.2227
 2626SOL    HW119857   7.028   9.808   0.659 -1.5018  0.0467  0.9092
 2626SOL    HW219858   7.077   9.785   0.800  1.5738  0.0318 -0.0932
 2627SOL     OW19859   9.723   4.188   0.534 -0.1696 -0.1288  0.1155
 2627SOL    HW119860   9.648   4.246   0.520 -1.9076 -1.9965  1.0280
 2627SOL    HW219861   9.799   4.244   0.526 -1.7152  2.1226  0.2932
 2628SOL     OW19862   0.032  12.456   8.784  0.2511 -0.5662 -0.4932
 2628SOL    HW119863   0.061  12.546   8.769  3.5065 -1.3886  0.0558
 2628SOL    HW219864   0.071  12.406   8.712 -2.2985 -1.4815 -1.3442
 2629SOL     OW19865   2.054   2.166   8.633  0.3484 -0.0340 -0.6123
 2629SOL    HW119866   2.087   2.204   8.552  0.5314 -0.5532 -0.7864
 2629SOL    HW219867   2.064   2.071   8.621 -0.7881 -0.1832 -0.4822
 2630SOL     OW19868   0.692  11.274  10.032 -0.3769 -0.5621 -0.0224
 2630SOL    HW119869   0.728  11.225  10.106 -1.7741  0.6342  1.5253
 2630SOL    HW219870   0.697  11.366  10.059 -1.6884 -0.1512 -1.0611
 2631SOL     OW19871   0.722   2.213   2.786  0.4422  0.6296  0.5189
 2631SOL    HW119872   0.808   2.254   2.789  1.1405 -0.7959  0.9527
 2631SOL    HW219873   0.688   2.225   2.875  0.7768  0.0402  0.7351
 2632SOL     OW19874   1.384  12.215   4.419  0.5366 -0.0412 -0.5116
 2632SOL    HW119875   1.335  12.207   4.338 -2.1687 -2.0342  1.1229
 2632SOL    HW219876   1.329  12.271   4.474  1.0515 -0.7150  0.7295
 2633SOL     OW19877   8.667   9.881   5.878  0.0281 -0.3959 -0.5474
 2633SOL    HW119878   8.673   9.787   5.897 -1.2905 -0.5857 -0.9924
 2633SOL    HW219879   8.651   9.921   5.963 -2.1821 -0.8784 -0.6783
 2634SOL     OW19880   6.246   6.225  11.095 -0.2674  0.3211  0.2395
 2634SOL    HW119881   6.301   6.151  11.068  0.7467  1.8355 -2.2269
 2634SOL    HW219882   6.298   6.271  11.160  0.4946  0.5395 -0.4972
 2635SOL     OW19883   8.016   3.485   5.826 -0.2796  0.2684  0.1246
 2635SOL    HW119884   7.957   3.550   5.865 -0.9569 -0.6918  0.7533
 2635SOL    HW219885   8.104   3.519   5.844 -0.6035  0.4305  1.5072
 2636SOL     OW19886   6.248   7.159   3.137  0.0680  0.5630  0.0986
 2636SOL    HW119887   6.226   7.241   3.093 -0.6472 -0.1772 -0.9747
 2636SOL    HW219888   6.313   7.118   3.080  0.9842  0.7175  1.0147
 2637SOL     OW19889   7.084   2.590   4.609  0.5413  0.1227  0.1335
 2637SOL    HW119890   7.147   2.655   4.640  1.0359 -0.6055  0.6807
 2637SOL    HW219891   7.014   2.641   4.569  1.5447  0.9560 -0.6233
 2638SOL     OW19892   5.971   8.881   5.456 -0.0900 -0.1882 -0.0634
 2638SOL    HW119893   5.973   8.806   5.515 -1.1201  1.3362  2.0872
 2638SOL    HW219894   6.037   8.941   5.491  0.2250  0.2207 -1.2986
 2639SOL     OW19895   3.149   3.941  10.950 -0.0901  0.0815  0.1362
 2639SOL    HW119896   3.219   3.883  10.982  0.6371  1.7674  1.8199
 2639SOL    HW219897   3.077   3.882  10.930  1.3837 -1.6113 -0.4843
 2640SOL     OW19898  12.163   5.726  11.222 -0.2036  0.4969  0.1845
 2640SOL    HW119899  12.255   5.706  11.245 -0.7548 -0.6258  1.6290
 2640SOL    HW219900  12.164   5.818  11.196  0.8947  1.4410  3.0940
 2641SOL     OW19901   8.702  10.995  10.772 -0.2597  0.3995  0.2933
 2641SOL    HW119902   8.716  11.005  10.866  0.7593  1.3808  0.0568
 2641SOL    HW219903   8.655  11.075  10.746 -0.9707 -0.0873  0.0350
 2642SOL     OW19904   1.183  10.697   6.583  0.7019  0.0418  0.5669
 2642SOL    HW119905   1.176  10.674   6.676  0.7385  0.3045  0.6365
 2642SOL    HW219906   1.103  10.747   6.565  1.1574  0.8366  0.7104
 2643SOL     OW19907   5.510   2.395   7.201  0.0893  0.3702  0.7521
 2643SOL    HW119908   5.577   2.392   7.132 -0.4536  2.2081  0.0789
 2643SOL    HW219909   5.528   2.477   7.248 -0.0391 -0.4701  2.3126
 2644SOL     OW19910   9.751   3.701   0.625 -0.1605  0.5669 -0.3927
 2644SOL    HW119911   9.807   3.665   0.694 -1.8061 -0.4973  0.4557
 2644SOL    HW219912   9.787   3.788   0.609  0.5084  0.7127  1.5500
 2645SOL     OW19913  13.619   9.712  12.904 -0.3609  0.7348 -0.6090
 2645SOL    HW119914  13.665   9.792  12.878 -2.6947  2.0929 -0.8850
 2645SOL    HW219915  13.534   9.743  12.935 -0.2953 -1.4073  2.1136
 2646SOL     OW19916   0.728   8.704  10.581 -0.2533 -0.1420  0.2397
 2646SOL    HW119917   0.658   8.641  10.599 -1.0789  1.1306  1.8301
 2646SOL    HW219918   0.690   8.789  10.604  2.3341  0.4546  3.0125
 2647SOL     OW19919   7.142   5.531  12.304  0.3058 -0.4733  0.3464
 2647SOL    HW119920   7.182   5.495  12.383 -0.4343  0.4216  1.1544
 2647SOL    HW219921   7.200   5.602  12.278 -0.2323  0.2291  0.9936
 2648SOL     OW19922   2.420   8.109   0.703  0.6879  0.2678  0.4282
 2648SOL    HW119923   2.413   8.061   0.786 -0.7598 -0.4178 -0.0550
 2648SOL    HW219924   2.380   8.194   0.721  1.5805  0.6276  0.7770
 2649SOL     OW19925   2.864   0.691   8.974 -0.1251 -0.3367 -0.1665
 2649SOL    HW119926   2.853   0.600   8.946  0.5148 -0.5643  0.3002
 2649SOL    HW219927   2.904   0.735   8.900 -0.6217 -0.3898 -0.4687
 2650SOL     OW19928   0.678  12.062  13.859 -0.5121  0.0286 -0.1079
 2650SOL    HW119929   0.649  12.103  13.778 -1.1097  1.9734  1.0166
 2650SOL    HW219930   0.599  12.053  13.912 -0.1152 -1.0875  0.3437
 2651SOL     OW19931   5.691   3.011   0.533  0.0204  0.2475  0.0022
 2651SOL    HW119932   5.717   2.929   0.491  0.5875  1.0192 -1.1714
 2651SOL    HW219933   5.595   3.010   0.528  0.0307 -0.2405 -0.1918
 2652SOL     OW19934   1.078   8.999   3.472 -0.2387 -0.2734 -0.0059
 2652SOL    HW119935   1.100   8.906   3.479  1.6399  0.0862 -0.4709
 2652SOL    HW219936   1.143   9.035   3.411  1.1145  1.8977  2.4445
 2653SOL     OW19937   9.220   3.612  10.903  0.3741  0.1123  0.5434
 2653SOL    HW119938   9.199   3.651  10.818  0.6953 -1.5847 -0.3517
 2653SOL    HW219939   9.157   3.540  10.913  1.5084 -0.8710  0.8575
 2654SOL     OW19940  11.675  12.069   9.832 -0.4844 -0.4311 -0.1831
 2654SOL    HW119941  11.597  12.071   9.888  0.2663 -0.5353  0.8939
 2654SOL    HW219942  11.669  12.150   9.781 -0.1659  0.7069  1.5004
 2655SOL     OW19943   6.130   6.401   8.270 -0.0469  0.7335  0.2313
 2655SOL    HW119944   6.146   6.317   8.313  0.2357  0.5456 -0.2354
 2655SOL    HW219945   6.037   6.418   8.284 -0.9756 -1.3160 -2.5484
 2656SOL     OW19946   0.898   3.219  11.214  0.4578 -0.1669 -0.1786
 2656SOL    HW119947   0.967   3.154  11.202 -0.1757 -1.0332  0.7300
 2656SOL    HW219948   0.839   3.207  11.139  0.4335 -0.5375 -0.1011
 2657SOL     OW19949   9.128  12.878   6.937  0.7347 -0.2708  0.2769
 2657SOL    HW119950   9.170  12.853   7.019  0.4560  2.9800  1.5684
 2657SOL    HW219951   9.047  12.827   6.934  0.9378 -0.7214  1.8282
 2658SOL     OW19952   6.647   9.517  12.951 -0.2106  0.4372  0.3611
 2658SOL    HW119953   6.666   9.591  13.008  1.3247 -0.0473  0.5259
 2658SOL    HW219954   6.729   9.500  12.904 -1.0628  0.0113 -1.0654
 2659SOL     OW19955   2.127  11.765  13.193 -0.1645 -0.1916  0.1685
 2659SOL    HW119956   2.032  11.754  13.195 -0.1535 -0.2751  0.2427
 2659SOL    HW219957   2.145  11.834  13.256 -0.1851 -0.1095  0.0844
 2660SOL     OW19958   7.412   1.503   5.406 -0.1235 -0.3074  0.8688
 2660SOL    HW119959   7.323   1.471   5.423  0.0100 -0.5485  1.1296
 2660SOL    HW219960   7.400   1.594   5.377 -0.4401 -0.2559  1.1521
 2661SOL     OW19961   0.928  10.157  10.996 -0.3945  0.7001 -0.7031
 2661SOL    HW119962   0.922  10.252  11.004  0.3403  0.6912  0.1231
 2661SOL    HW219963   0.932  10.141  10.901 -2.3945  1.3427 -0.9401
 2662SOL     OW19964  10.451  12.715  13.666 -0.1580  0.0505 -0.4389
 2662SOL    HW119965  10.389  12.653  13.625 -0.4218  1.3145 -2.0701
 2662SOL    HW219966  10.514  12.734  13.597 -0.1146  1.6245  0.0009
 2663SOL     OW19967  13.124   5.223  13.584 -0.3968 -0.0035 -0.2109
 2663SOL    HW119968  13.110   5.183  13.499 -0.3943 -1.0660  0.2669
 2663SOL    HW219969  13.039   5.261  13.607 -1.1665 -1.9463  0.4049
 2664SOL     OW19970   4.778   6.009  13.622  0.2733  0.0469 -0.3038
 2664SOL    HW119971   4.720   5.935  13.609  1.2274 -0.3198 -3.2457
 2664SOL    HW219972   4.761   6.038  13.712 -0.8947 -3.0091  0.5708
 2665SOL     OW19973   9.819  10.199   8.250 -0.2124  0.1361 -0.1960
 2665SOL    HW119974   9.906  10.190   8.287  0.7517  0.9964 -2.0718
 2665SOL    HW219975   9.766  10.135   8.296  1.0240  0.6217  2.0547
 2666SOL     OW19976   0.135   9.055  11.725 -0.1960  0.1443  0.3767
 2666SOL    HW119977   0.128   9.147  11.699 -0.9055  0.1027  0.3941
 2666SOL    HW219978   0.207   9.053  11.789  1.2518  0.3316 -1.1684
 2667SOL     OW19979   9.645   9.895  10.971 -0.0794 -0.2687 -0.1256
 2667SOL    HW119980   9.677   9.819  10.923  0.0645  0.9296 -2.0125
 2667SOL    HW219981   9.579   9.934  10.914  0.3903  1.4379  0.4194
 2668SOL     OW19982  13.361   3.874   0.684 -0.2999 -0.1117 -0.0789
 2668SOL    HW119983  13.425   3.934   0.646  0.2096  0.3953  1.5067
 2668SOL    HW219984  13.366   3.796   0.629  0.8524  0.3551 -0.6752
 2669SOL     OW19985   7.992   0.066  10.917  0.1332 -0.0258 -0.0808
 2669SOL    HW119986   7.990  -0.000  10.986 -0.4511 -0.4797 -0.5295
 2669SOL    HW219987   7.906   0.108  10.921  0.7358  1.2114  0.6711
 2670SOL     OW19988  10.891   0.151   5.614 -0.0237  0.0363 -0.2799
 2670SOL    HW119989  10.931   0.235   5.595 -0.1233 -0.0487 -0.8885
 2670SOL    HW219990  10.965   0.091   5.625  0.0517 -0.2541 -2.0079
 2671SOL     OW19991   5.335   1.508   2.107 -0.1042 -0.4917  0.4703
 2671SOL    HW119992   5.307   1.462   2.028 -0.6446 -3.8650  2.4226
 2671SOL    HW219993   5.430   1.516   2.098 -0.0420 -1.6972 -0.1105
 2672SOL     OW19994   2.710   9.549   8.978  0.3470 -0.3398  0.0527
 2672SOL    HW119995   2.747   9.567   9.065  1.0551 -0.3873 -0.2294
 2672SOL    HW219996   2.674   9.461   8.985 -3.8769  1.2541  1.6970
 2673SOL     OW19997   9.855  12.347   6.727 -0.0352  0.3600 -0.6304
 2673SOL    HW119998   9.859  12.287   6.803 -0.2478  1.9288  0.6733
 2673SOL    HW219999   9.946  12.373   6.713  0.1704 -0.8216 -1.7135
 2674SOL     OW20000   9.795   8.786   9.038 -0.1656 -0.2730  0.4443
 2674SOL    HW120001   9.787   8.751   9.126  0.4813  0.0441  0.6283
 2674SOL    HW220002   9.746   8.868   9.040  1.7622  0.9120  1.1616
 2675SOL     OW20003   8.159  14.017   8.445  0.1000  0.2922 -0.0217
 2675SOL    HW120004   8.221  13.963   8.493  0.0291  1.8593  1.9693
 2675SOL    HW220005   8.176  14.106   8.476 -1.7914  1.0219 -0.9244
 2676SOL     OW20006   2.509  10.575   1.270 -0.0241 -0.5095 -0.5353
 2676SOL    HW120007   2.554  10.658   1.253 -1.2069  0.7438  1.9619
 2676SOL    HW220008   2.430  10.579   1.215  0.2741 -0.3201 -0.9550
 2677SOL     OW20009   0.036   3.657   3.331 -0.3060  0.2714 -0.1708
 2677SOL    HW120010   0.022   3.608   3.412  0.7223 -1.4468 -0.9824
 2677SOL    HW220011   0.065   3.743   3.360  1.8261 -0.8624  1.3295
 2678SOL     OW20012   1.530   4.092   1.470  0.5529 -0.1626  0.0325
 2678SOL    HW120013   1.572   4.177   1.486 -0.5630  0.2189  1.0584
 2678SOL    HW220014   1.453   4.093   1.526  0.8961 -2.1660  0.5933
 2679SOL     OW20015   0.517   2.437   5.645 -0.0967  0.1309 -0.4323
 2679SOL    HW120016   0.475   2.462   5.728  2.1100  0.0502  0.7934
 2679SOL    HW220017   0.597   2.491   5.642 -0.5568  0.7880 -2.9812
 2680SOL     OW20018  12.599   8.701   3.921  0.5539 -0.1617 -0.3503
 2680SOL    HW120019  12.615   8.791   3.948  0.6847  0.6068 -2.7840
 2680SOL    HW220020  12.678   8.654   3.949  0.9349  0.6743  0.0320
 2681SOL     OW20021   6.174   6.113   5.440  0.4528 -0.3244  0.2181
 2681SOL    HW120022   6.205   6.181   5.380 -0.8994  1.2745  1.2324
 2681SOL    HW220023   6.203   6.143   5.527 -0.1444 -1.0482  0.6782
 2682SOL     OW20024   6.055   4.647   2.637  0.4032 -0.2347 -0.3428
 2682SOL    HW120025   5.969   4.635   2.596 -0.0299 -1.5195  0.8823
 2682SOL    HW220026   6.096   4.561   2.632  1.3628  0.2127 -0.3088
 2683SOL     OW20027  13.813  11.413  13.659  0.5881 -0.1353  0.3981
 2683SOL    HW120028  13.742  11.361  13.622  0.8909 -0.6956  0.5981
 2683SOL    HW220029  13.829  11.374  13.745 -0.0216  1.0733  1.0920
 2684SOL     OW20030   4.626   8.268   9.720 -0.6941 -0.3665 -0.5275
 2684SOL    HW120031   4.674   8.349   9.701  0.2340 -1.1205 -1.5169
 2684SOL    HW220032   4.667   8.202   9.664 -0.0516 -2.0089  1.7307
 2685SOL     OW20033  12.372   7.724   8.891  0.1834  0.0491  0.9615
 2685SOL    HW120034  12.348   7.760   8.977  0.4249 -0.1081  1.0991
 2685SOL    HW220035  12.303   7.661   8.871 -1.2366  1.8596 -0.1207
 2686SOL     OW20036   2.816   3.167   3.210  0.5548 -0.0683  0.0698
 2686SOL    HW120037   2.857   3.090   3.249  1.5964  0.9642  1.1247
 2686SOL    HW220038   2.852   3.171   3.122 -2.3199 -2.8091 -1.4206
 2687SOL     OW20039  12.888   0.133   6.445  0.0454 -0.3927  0.3564
 2687SOL    HW120040  12.910   0.226   6.450  1.2816 -0.7098  2.2134
 2687SOL    HW220041  12.807   0.130   6.395 -0.6071  1.7821  1.1522
 2688SOL     OW20042  11.301  10.281  11.412  0.2044  0.2501 -0.1423
 2688SOL    HW120043  11.389  10.286  11.374 -0.7183  1.2658 -2.2993
 2688SOL    HW220044  11.276  10.189  11.400  0.4937  0.2305 -0.6313
 2689SOL     OW20045   7.545   3.044   6.483 -0.4143  0.6178 -0.1589
 2689SOL    HW120046   7.504   3.105   6.422  0.2855  1.0462 -0.2110
 2689SOL    HW220047   7.580   3.099   6.552  1.2117  0.4005 -0.7667
 2690SOL     OW20048   0.578   0.485   3.707 -0.7245 -0.3889 -0.1809
 2690SOL    HW120049   0.548   0.419   3.645 -1.0750  0.6609 -1.1691
 2690SOL    HW220050   0.499   0.535   3.729 -0.3230  0.2121 -0.0802
 2691SOL     OW20051  10.190  13.479   9.004 -0.5968 -0.3677 -0.3794
 2691SOL    HW120052  10.242  13.555   9.029  0.1121 -1.2666  1.0001
 2691SOL    HW220053  10.151  13.503   8.920  1.1822  0.7552 -0.9360
 2692SOL     OW20054   8.947   7.699   3.546  0.1527  0.4983  0.3371
 2692SOL    HW120055   8.915   7.644   3.475 -0.3622 -0.3531  1.2078
 2692SOL    HW220056   8.933   7.789   3.515  1.2759  0.1580 -1.2174
 2693SOL     OW20057   6.097   5.311  10.811 -0.0819  0.2649 -0.5540
 2693SOL    HW120058   6.002   5.316  10.826 -0.4740  1.9544 -2.9687
 2693SOL    HW220059   6.109   5.231  10.761 -0.0610 -0.5032  0.6536
 2694SOL     OW20060  12.829  13.591  11.836  0.3252  0.8523 -0.4069
 2694SOL    HW120061  12.868  13.606  11.923 -0.4060  2.3039 -0.3001
 2694SOL    HW220062  12.782  13.509  11.845 -0.7136  1.5572  0.9469
 2695SOL     OW20063   9.878  12.398   2.795 -0.4173  0.2172  0.2578
 2695SOL    HW120064   9.944  12.367   2.857  1.1245  0.9717 -0.9213
 2695SOL    HW220065   9.830  12.466   2.841 -0.6871 -0.6379  1.2783
 2696SOL     OW20066   1.440   9.513  13.549  0.1738  0.6383  0.1453
 2696SOL    HW120067   1.512   9.468  13.504 -0.3027 -1.9789  1.7359
 2696SOL    HW220068   1.367   9.509  13.488  0.4792  0.2894 -0.2065
 2697SOL     OW20069  12.173   8.812   4.739 -0.3634 -0.0602 -0.8347
 2697SOL    HW120070  12.168   8.859   4.823  1.4727  1.3849 -1.4720
 2697SOL    HW220071  12.243   8.748   4.752 -0.4315 -0.1903 -1.1038
 2698SOL     OW20072   7.547  10.229   5.458  0.3457 -0.2265 -0.3489
 2698SOL    HW120073   7.586  10.180   5.386  0.2806  2.9000 -2.7333
 2698SOL    HW220074   7.476  10.172   5.490  2.1754 -2.9135 -0.7346
 2699SOL     OW20075   0.056  11.553   6.997 -0.0313  0.2559  0.2961
 2699SOL    HW120076   0.025  11.548   6.906  0.2146  1.2003  0.1487
 2699SOL    HW220077  -0.010  11.505   7.047 -1.7416  2.0759 -0.0298
 2700SOL     OW20078   0.320   1.899  12.413  0.1194  0.3039  0.0150
 2700SOL    HW120079   0.305   1.903  12.507 -1.2213  1.7104 -0.2160
 2700SOL    HW220080   0.374   1.975  12.393  1.2713 -0.5492 -0.2416
 2701SOL     OW20081   6.877   0.984   1.758  0.4571  0.3591 -0.3242
 2701SOL    HW120082   6.918   0.905   1.722  0.9352 -0.0184  0.9775
 2701SOL    HW220083   6.911   1.055   1.704  2.0346 -0.0687  0.0463
 2702SOL     OW20084  10.112  13.879   4.679  0.0336  0.3089  0.4055
 2702SOL    HW120085  10.091  13.965   4.643  2.1744  0.8067  0.2280
 2702SOL    HW220086  10.027  13.835   4.685 -1.2441  2.7207  1.3513
 2703SOL     OW20087  11.689  10.235   6.881  0.1084 -0.0808  0.1888
 2703SOL    HW120088  11.733  10.166   6.932  0.4245 -1.2614 -1.6063
 2703SOL    HW220089  11.758  10.271   6.825 -0.5024  0.3549 -0.2925
 2704SOL     OW20090   5.050   7.144   0.886 -0.6231 -0.7219  0.1428
 2704SOL    HW120091   4.979   7.128   0.824 -2.2962  0.1904  1.6834
 2704SOL    HW220092   5.124   7.094   0.853 -1.9889 -1.7209 -1.5533
 2705SOL     OW20093   7.097   3.528  12.253 -0.4439 -0.0706  0.5072
 2705SOL    HW120094   7.108   3.432  12.249 -0.0028 -0.0172  0.3359
 2705SOL    HW220095   7.005   3.542  12.235 -0.2963 -0.4053 -0.6137
 2706SOL     OW20096  12.571   0.962   3.887 -0.1379  0.2841 -0.0420
 2706SOL    HW120097  12.527   0.918   3.960 -2.4663  1.3872 -0.6670
 2706SOL    HW220098  12.550   0.909   3.810  1.3627 -0.2559 -0.1175
 2707SOL     OW20099   1.718  11.518   0.327  0.0823 -0.7819  0.1295
 2707SOL    HW120100   1.705  11.456   0.399 -1.2865  2.5962  3.0696
 2707SOL    HW220101   1.630  11.530   0.290 -0.2848  1.4020  1.5368
 2708SOL     OW20102  12.089  11.404   1.580  0.2785 -0.1277  0.0359
 2708SOL    HW120103  12.150  11.470   1.613 -0.0031 -0.1039  0.5208
 2708SOL    HW220104  12.095  11.332   1.642  0.9672 -0.7907 -0.7793
 2709SOL     OW20105   6.283   0.366  10.622 -0.6204  0.0210 -0.3487
 2709SOL    HW120106   6.294   0.450  10.578 -3.1463  1.0968  0.9093
 2709SOL    HW220107   6.370   0.325  10.618  1.0194  3.1850  0.0354
 2710SOL     OW20108   6.015   2.590   9.168  0.4308  0.4838  0.2319
 2710SOL    HW120109   6.028   2.555   9.256  0.5154 -4.6937 -1.5017
 2710SOL    HW220110   6.100   2.627   9.143  0.2698  2.4876  2.3319
 2711SOL     OW20111  11.058  13.774   1.412  0.2765  0.4657 -0.4763
 2711SOL    HW120112  10.963  13.767   1.407  0.1588  0.7022  1.0612
 2711SOL    HW220113  11.075  13.823   1.492  1.7365 -1.3393  0.4170
 2712SOL     OW20114   9.364   0.622  13.691  0.3569 -1.1802 -0.0072
 2712SOL    HW120115   9.376   0.658  13.603 -0.4199 -2.2563 -0.5782
 2712SOL    HW220116   9.379   0.696  13.750 -0.2368 -0.1607 -1.0910
 2713SOL     OW20117   0.769   7.982  12.456 -0.5225  0.1468  0.0608
 2713SOL    HW120118   0.706   7.996  12.527  0.2458  0.3197  0.7297
 2713SOL    HW220119   0.805   8.069  12.440 -0.4872  0.0555 -0.3467
 2714SOL     OW20120  11.323   3.856  12.628 -0.8745 -0.4757  0.0236
 2714SOL    HW120121  11.307   3.911  12.551 -2.2322 -0.9478 -0.0522
 2714SOL    HW220122  11.412   3.824  12.616 -1.1583 -0.7519 -1.5056
 2715SOL     OW20123   8.516   0.840   0.855  0.4661 -0.1099 -0.4677
 2715SOL    HW120124   8.443   0.795   0.897 -0.7859  2.7780  0.7578
 2715SOL    HW220125   8.574   0.770   0.824 -1.6862 -2.4718  0.5251
 2716SOL     OW20126   2.685   3.285   9.505 -0.1214 -0.1575  0.3738
 2716SOL    HW120127   2.605   3.336   9.491  0.0929  0.8319  2.3138
 2716SOL    HW220128   2.752   3.331   9.456 -0.6954 -0.9568 -1.2158
 2717SOL     OW20129   0.651   4.130   0.313  0.1778 -0.1836 -0.0462
 2717SOL    HW120130   0.737   4.127   0.272 -0.2482  0.2045 -0.9784
 2717SOL    HW220131   0.669   4.153   0.404  1.0593 -0.1314 -0.2274
 2718SOL     OW20132   1.048   1.829   6.228  0.0612 -0.6267 -0.0178
 2718SOL    HW120133   1.087   1.741   6.229 -0.8785 -1.0496  0.3388
 2718SOL    HW220134   0.977   1.825   6.292 -0.9137 -0.0451 -1.0150
 2719SOL     OW20135   3.440   7.816   3.646  0.2027 -0.1995  0.0125
 2719SOL    HW120136   3.462   7.897   3.601  1.0524  0.5544  1.6983
 2719SOL    HW220137   3.347   7.802   3.626  0.5970 -0.0739 -2.1468
 2720SOL     OW20138   4.987   1.246   6.654 -0.0014  0.6284 -0.2092
 2720SOL    HW120139   5.065   1.201   6.620 -0.2022 -0.1847  0.3773
 2720SOL    HW220140   4.999   1.247   6.749 -1.0957 -0.2760 -0.0378
 2721SOL     OW20141   3.818  13.714  10.028  0.0535 -0.2887 -0.3430
 2721SOL    HW120142   3.728  13.715  10.061 -0.0428 -1.1769 -0.5700
 2721SOL    HW220143   3.872  13.696  10.105 -0.1221 -1.7166 -0.5331
 2722SOL     OW20144   6.415   6.420   0.720  0.4902 -0.1287  0.5111
 2722SOL    HW120145   6.504   6.386   0.711  0.3580 -0.6235  1.0255
 2722SOL    HW220146   6.424   6.495   0.779  0.4090 -0.8792  1.4998
 2723SOL     OW20147   3.043   9.636   2.889 -0.1234  0.1860 -0.2542
 2723SOL    HW120148   2.979   9.581   2.845 -0.0316  0.7767 -1.1666
 2723SOL    HW220149   3.067   9.701   2.823  2.1676 -0.6235 -0.3021
 2724SOL     OW20150  10.552  13.555  12.019 -0.2391 -0.3553  0.1547
 2724SOL    HW120151  10.517  13.634  12.058  0.0493 -0.8278  1.4101
 2724SOL    HW220152  10.647  13.568  12.019 -0.2081 -0.5690  0.0553
 2725SOL     OW20153   5.256  12.697   4.287 -0.1444 -0.3374  0.0198
 2725SOL    HW120154   5.338  12.694   4.336 -0.5909  0.5094  0.8563
 2725SOL    HW220155   5.187  12.688   4.353 -0.7599  0.8594 -0.4151
 2726SOL     OW20156  10.393   0.159   4.584  0.2677 -0.1038 -0.2659
 2726SOL    HW120157  10.484   0.176   4.607  0.0577  0.4680  0.1570
 2726SOL    HW220158  10.350   0.137   4.667 -0.4342  1.7145 -0.0987
 2727SOL     OW20159   1.038   6.679  10.346 -0.8504 -0.3012  0.3373
 2727SOL    HW120160   1.006   6.621  10.416 -0.4383  0.4726  1.1884
 2727SOL    HW220161   0.969   6.744  10.336 -0.8317 -0.3120  0.1400
 2728SOL     OW20162  10.313   3.535   8.431 -0.3874 -0.5834  0.2612
 2728SOL    HW120163  10.331   3.552   8.524  0.5424  0.7541 -0.1243
 2728SOL    HW220164  10.276   3.617   8.398 -1.4358 -1.2992 -0.3927
 2729SOL     OW20165   2.198  11.489   2.442 -0.3403 -0.6498 -0.2693
 2729SOL    HW120166   2.246  11.530   2.370 -1.3774 -0.1498 -0.6850
 2729SOL    HW220167   2.174  11.562   2.500 -0.5801 -0.8992 -0.0525
 2730SOL     OW20168   1.656  10.342   2.857  0.1280  0.5165 -0.1339
 2730SOL    HW120169   1.588  10.401   2.888 -0.2075  0.8756 -1.4904
 2730SOL    HW220170   1.726  10.348   2.922  0.2107  2.6041 -0.3579
 2731SOL     OW20171  11.299   0.332   2.965 -0.5682 -0.4827 -0.3084
 2731SOL    HW120172  11.231   0.290   2.913 -2.1114  1.3912  0.1021
 2731SOL    HW220173  11.306   0.278   3.044  0.7440 -2.4962 -1.6937
 2732SOL     OW20174   3.832   1.402  13.434 -0.0777  0.3522  0.0021
 2732SOL    HW120175   3.835   1.481  13.380  0.2123  0.7221  0.5483
 2732SOL    HW220176   3.744   1.367  13.420  0.0109  0.4085 -0.7446
 2733SOL     OW20177   6.267   7.673   3.474 -0.0842  0.0523  0.3627
 2733SOL    HW120178   6.298   7.589   3.507  0.2211  0.7919  2.0769
 2733SOL    HW220179   6.182   7.686   3.517 -0.5663  0.2091 -0.6122
 2734SOL     OW20180  11.775   1.069  10.123  0.1097 -0.2404  0.3734
 2734SOL    HW120181  11.761   1.152  10.169  1.2134 -0.3851  0.9945
 2734SOL    HW220182  11.768   1.002  10.192 -0.0145 -0.5989  0.0131
 2735SOL     OW20183  10.943   9.976  11.307  0.3134 -0.1130 -0.4835
 2735SOL    HW120184  10.905  10.064  11.314  1.0909  0.2183 -0.2844
 2735SOL    HW220185  10.879   9.926  11.256 -1.3728 -0.1588  1.5097
 2736SOL     OW20186  10.269  12.619  13.151 -0.1393 -0.6864  0.0789
 2736SOL    HW120187  10.254  12.673  13.228 -1.2225  0.9420 -1.1981
 2736SOL    HW220188  10.181  12.603  13.115  0.3926 -0.5596 -1.3565
 2737SOL     OW20189  11.628   4.299  10.216  0.8981 -0.2048 -0.2346
 2737SOL    HW120190  11.554   4.242  10.196  1.4867 -0.9569 -0.2931
 2737SOL    HW220191  11.604   4.341  10.298  1.3662 -2.1470  0.9493
 2738SOL     OW20192  12.934   8.833   5.909  0.1358 -0.0297 -0.3377
 2738SOL    HW120193  13.017   8.878   5.921  0.2760  0.0651 -1.5486
 2738SOL    HW220194  12.900   8.867   5.826 -1.1480 -0.0130  0.1614
 2739SOL     OW20195  10.165   6.604   2.318  0.1287  0.4070  0.0173
 2739SOL    HW120196  10.186   6.697   2.323 -0.1482  0.4937 -0.4218
 2739SOL    HW220197  10.224   6.569   2.251  1.3825 -0.0628  1.3286
 2740SOL     OW20198   5.379   7.551   1.537  0.3368 -0.4843 -0.0045
 2740SOL    HW120199   5.457   7.607   1.527 -0.9096  1.4680  0.5161
 2740SOL    HW220200   5.378   7.528   1.630  0.2085 -0.3661  0.0236
 2741SOL     OW20201   3.686  12.157   4.992  0.1537 -0.0035  0.8706
 2741SOL    HW120202   3.631  12.124   5.064 -0.1533 -2.4055 -0.3457
 2741SOL    HW220203   3.715  12.078   4.947  0.8770  1.3922 -1.2622
 2742SOL     OW20204   1.861   9.856  10.505  0.3151  0.3719 -0.5103
 2742SOL    HW120205   1.878   9.936  10.456 -2.8967  1.0020 -0.8001
 2742SOL    HW220206   1.816   9.886  10.584 -1.0097 -1.1085 -0.6566
 2743SOL     OW20207  11.117   7.421   3.243 -0.4703 -0.4953 -0.8962
 2743SOL    HW120208  11.135   7.375   3.325  0.9441  0.7764 -0.4408
 2743SOL    HW220209  11.138   7.512   3.262  0.2962 -0.2318 -2.7843
 2744SOL     OW20210   2.615   6.954  11.585  0.2363  0.0260  0.2411
 2744SOL    HW120211   2.534   6.921  11.623  2.2810 -3.3957  2.1339
 2744SOL    HW220212   2.617   6.919  11.496 -0.9747  1.4460 -0.3861
 2745SOL     OW20213   2.497   9.818   4.284  0.6216 -0.7200 -0.3380
 2745SOL    HW120214   2.462   9.814   4.195 -1.6247 -1.5494  0.5008
 2745SOL    HW220215   2.545   9.736   4.295 -0.2064 -1.2322 -0.4015
 2746SOL     OW20216   3.771   0.025  13.857 -0.9462  0.0759 -0.3489
 2746SOL    HW120217   3.855   0.055  13.891 -0.2973  1.6744 -2.9890
 2746SOL    HW220218   3.779  -0.070  13.853  0.3418  0.1246  0.3914
 2747SOL     OW20219  13.391   4.813   0.025  0.4388 -0.5318  0.2342
 2747SOL    HW120220  13.436   4.731   0.003  0.5991  0.0009 -1.5869
 2747SOL    HW220221  13.339   4.833  -0.053 -1.3692 -0.0545  1.5127
 2748SOL     OW20222   7.467   2.494  13.618  0.1071 -0.4608  0.0606
 2748SOL    HW120223   7.472   2.587  13.641 -3.0114  0.0868 -1.0777
 2748SOL    HW220224   7.473   2.448  13.702 -3.6727  1.1240  1.4137
 2749SOL     OW20225  11.345  13.495  11.372  0.1821 -0.1185  0.2921
 2749SOL    HW120226  11.278  13.427  11.363  0.6499 -0.4356 -1.0612
 2749SOL    HW220227  11.361  13.500  11.466  1.1816 -2.9387  0.3716
 2750SOL     OW20228  12.175   2.200   9.898  0.4589  0.6689 -0.1727
 2750SOL    HW120229  12.261   2.166   9.922 -0.7831 -1.9590  0.8707
 2750SOL    HW220230  12.191   2.292   9.878  3.1054  0.9308  2.4334
 2751SOL     OW20231  10.002  13.299  13.438  0.5731  0.1615  0.1615
 2751SOL    HW120232   9.962  13.321  13.522  1.5849 -0.9679  0.9822
 2751SOL    HW220233   9.945  13.339  13.373 -1.0048 -0.0775  1.3344
 2752SOL     OW20234   3.933   1.827   2.523 -0.0621 -0.2456 -0.5864
 2752SOL    HW120235   4.013   1.859   2.564 -0.6669  1.2931 -0.5243
 2752SOL    HW220236   3.863   1.875   2.569 -0.9646 -1.0550 -1.0968
 2753SOL     OW20237   6.857   4.870   8.858 -0.2129  0.0036 -0.3589
 2753SOL    HW120238   6.940   4.876   8.905 -1.0432 -1.1769  1.3960
 2753SOL    HW220239   6.859   4.783   8.818 -1.4575 -0.9609  1.5486
 2754SOL     OW20240  12.880   6.955   8.214  0.0025  0.5569 -0.2480
 2754SOL    HW120241  12.854   6.940   8.123 -0.0185 -0.5804 -0.0663
 2754SOL    HW220242  12.809   7.008   8.251 -0.4266  0.2625 -0.6455
 2755SOL     OW20243  11.485   8.513  11.285 -0.4060 -0.1851  0.6177
 2755SOL    HW120244  11.505   8.529  11.193  1.5462  2.3428  1.3640
 2755SOL    HW220245  11.569   8.492  11.325 -0.9192  0.4589  2.1055
 2756SOL     OW20246  11.582   2.529   4.441  0.0912 -0.2997  0.9498
 2756SOL    HW120247  11.627   2.605   4.404  0.0542 -0.4555  0.5850
 2756SOL    HW220248  11.634   2.506   4.518  2.3201 -2.1944 -0.9649
 2757SOL     OW20249   7.402  10.514   2.580  0.4995 -0.0924  0.4380
 2757SOL    HW120250   7.491  10.504   2.548 -0.1663  0.6547 -1.8577
 2757SOL    HW220251   7.358  10.432   2.555  0.1569  0.1964  0.0723
 2758SOL     OW20252   9.537   9.905   0.712  0.0610  0.3465  0.5218
 2758SOL    HW120253   9.502   9.952   0.637 -0.7783 -1.1589 -0.0750
 2758SOL    HW220254   9.629   9.889   0.689 -0.2447 -0.2938 -0.3060
 2759SOL     OW20255   3.391   4.860   3.320 -0.6924  0.0105 -0.7866
 2759SOL    HW120256   3.447   4.795   3.362 -0.4244  0.2540 -0.7601
 2759SOL    HW220257   3.451   4.932   3.299 -0.8873  0.0243 -1.2959
 2760SOL     OW20258   2.467  11.363   1.244 -0.4789  0.0905  0.2403
 2760SOL    HW120259   2.380  11.323   1.245  0.0505 -1.1025  0.6798
 2760SOL    HW220260   2.503  11.343   1.331  1.0062 -1.2319 -0.6390
 2761SOL     OW20261   5.171   3.845   7.827 -0.1139  0.0980  0.0987
 2761SOL    HW120262   5.082   3.828   7.799  0.2095 -0.4997 -0.5940
 2761SOL    HW220263   5.190   3.775   7.890 -0.4411  0.7619  0.9530
 2762SOL     OW20264   7.080   3.581  10.128  0.3424 -0.2842  0.6877
 2762SOL    HW120265   7.004   3.587  10.186  1.4597 -1.1907  2.3296
 2762SOL    HW220266   7.064   3.503  10.075 -0.9119  0.8164 -0.6228
 2763SOL     OW20267   9.829   3.300   2.435 -0.3548  0.4249  0.7510
 2763SOL    HW120268   9.842   3.395   2.437 -0.9718  0.5541 -0.2984
 2763SOL    HW220269   9.838   3.277   2.342 -2.6003 -0.1628  0.6164
 2764SOL     OW20270   2.931   7.372  11.692 -0.1575  0.5161  0.0054
 2764SOL    HW120271   2.972   7.457  11.679 -0.0433  0.3363 -0.9179
 2764SOL    HW220272   2.841   7.392  11.718  0.3958  0.9105  1.7470
 2765SOL     OW20273   4.577   2.332   7.207  0.1010 -0.0300 -0.3225
 2765SOL    HW120274   4.597   2.357   7.297  1.2058  0.4806 -0.6884
 2765SOL    HW220275   4.558   2.415   7.163  2.1833  0.0569 -1.1679
 2766SOL     OW20276   3.842   8.915  10.093  0.0523 -0.1690 -0.3277
 2766SOL    HW120277   3.895   8.993  10.081  0.5431 -0.3287  0.6710
 2766SOL    HW220278   3.868   8.881  10.179 -0.4972 -1.1585 -0.5302
 2767SOL     OW20279   3.424   3.501   2.560 -0.1044 -0.3281 -0.1568
 2767SOL    HW120280   3.373   3.574   2.594 -0.8777 -0.6115 -0.6783
 2767SOL    HW220281   3.359   3.434   2.539  0.5028 -0.7803 -0.6310
 2768SOL     OW20282   4.104   2.137   7.898  0.7211  0.1233 -0.8325
 2768SOL    HW120283   4.146   2.052   7.913 -0.9302 -0.2903  2.0945
 2768SOL    HW220284   4.167   2.200   7.932  0.9700 -0.0936 -0.8813
 2769SOL     OW20285   9.531   4.797   5.906 -0.2088  0.4408 -0.4251
 2769SOL    HW120286   9.583   4.848   5.968 -0.6964  0.5499 -0.0948
 2769SOL    HW220287   9.446   4.842   5.903 -1.1054 -1.0262  0.8621
 2770SOL     OW20288   5.326  12.365   7.282  0.1854 -0.8995  0.0570
 2770SOL    HW120289   5.288  12.300   7.223  0.5817 -1.7647  0.7360
 2770SOL    HW220290   5.320  12.326   7.369  1.5937 -0.5906  0.3220
 2771SOL     OW20291  11.685   6.704   3.845  0.1434 -0.2025  0.0722
 2771SOL    HW120292  11.726   6.624   3.812 -0.4158  0.0856 -1.3808
 2771SOL    HW220293  11.621   6.674   3.910  0.9968 -0.8080  0.6596
 2772SOL     OW20294   4.485   7.633   9.871 -0.2733  0.4772  0.1013
 2772SOL    HW120295   4.505   7.692   9.944  0.5538 -1.0997  1.1990
 2772SOL    HW220296   4.391   7.616   9.878 -0.7357  2.3448 -0.8079
 2773SOL     OW20297   1.121   0.302   2.628  0.2992 -0.0731  0.5271
 2773SOL    HW120298   1.214   0.325   2.626 -0.1522  1.8285 -0.1646
 2773SOL    HW220299   1.082   0.351   2.556 -1.0824 -1.7334  0.0624
 2774SOL     OW20300  12.927  10.003  12.201  0.1265  0.4044  0.1144
 2774SOL    HW120301  13.007  10.050  12.223  0.9815 -0.5943 -0.7826
 2774SOL    HW220302  12.912  10.022  12.109  0.7208 -1.3607 -0.3869
 2775SOL     OW20303  12.526   7.674   7.773  0.6554  0.4829  0.2326
 2775SOL    HW120304  12.471   7.596   7.784 -0.1846  0.9800 -0.3616
 2775SOL    HW220305  12.506   7.729   7.849  0.1891  0.7458 -0.0788
 2776SOL     OW20306   1.099   0.784   0.872 -0.4343 -0.2639 -0.4164
 2776SOL    HW120307   1.029   0.841   0.840 -0.8007 -0.7549 -0.5190
 2776SOL    HW220308   1.122   0.820   0.958 -1.4207 -0.5869  0.0031
 2777SOL     OW20309   1.009   7.941   7.032  0.1411  0.0923  0.2592
 2777SOL    HW120310   0.970   7.898   6.956 -0.2363  0.1694  0.4079
 2777SOL    HW220311   0.989   7.882   7.105  1.3910 -0.5052  0.1483
 2778SOL     OW20312   5.816   7.694   8.482 -0.0367 -0.4707 -0.4421
 2778SOL    HW120313   5.809   7.603   8.453 -3.0122 -0.8938  1.2412
 2778SOL    HW220314   5.763   7.743   8.419 -0.2838 -0.2380 -0.0544
 2779SOL     OW20315   4.336   6.868   6.730 -0.5192 -0.0401 -0.3512
 2779SOL    HW120316   4.349   6.929   6.803 -0.1279  1.6020 -1.7417
 2779SOL    HW220317   4.258   6.818   6.755  0.5973 -0.7396  1.9656
 2780SOL     OW20318   3.394   8.613   1.693 -0.5315 -0.4450  0.0699
 2780SOL    HW120319   3.403   8.543   1.628  0.8325 -0.2654  0.0243
 2780SOL    HW220320   3.470   8.669   1.678 -0.9357  0.3607  0.9226
 2781SOL     OW20321   9.184   6.177   2.368  0.7605  0.8363 -0.3199
 2781SOL    HW120322   9.144   6.098   2.332 -2.1340  2.4668 -0.9543
 2781SOL    HW220323   9.278   6.157   2.371  0.1611 -2.5834 -0.4259
 2782SOL     OW20324   5.733   7.196   5.755 -0.1503  0.1711  0.5886
 2782SOL    HW120325   5.802   7.200   5.821  0.7831 -0.6953 -0.2979
 2782SOL    HW220326   5.747   7.272   5.700  1.1144 -0.8221 -0.5251
 2783SOL     OW20327   5.050   9.425   2.117 -0.1393  0.1119  0.2780
 2783SOL    HW120328   5.129   9.462   2.157 -0.0923 -0.0229  0.3106
 2783SOL    HW220329   5.061   9.439   2.023 -0.9915  1.9058  0.3983
 2784SOL     OW20330   5.785   8.536  12.370  0.0393 -0.4285 -0.5813
 2784SOL    HW120331   5.829   8.470  12.423 -0.6706  0.4843  1.2321
 2784SOL    HW220332   5.752   8.488  12.294  1.2452 -1.7462 -0.3189
 2785SOL     OW20333   1.623  13.820  11.326 -0.4700 -0.2881 -0.4510
 2785SOL    HW120334   1.595  13.745  11.274 -1.9490 -0.6527  0.8083
 2785SOL    HW220335   1.635  13.785  11.414 -0.7208  0.8550  0.0542
 2786SOL     OW20336   7.252   3.847   4.437  0.0935 -0.0337  0.5469
 2786SOL    HW120337   7.166   3.837   4.397  1.9471 -0.7530 -3.8667
 2786SOL    HW220338   7.256   3.778   4.504 -2.3649 -0.5862  0.2033
 2787SOL     OW20339   0.012   2.920   1.248 -0.5283 -0.5265  0.1240
 2787SOL    HW120340  -0.072   2.894   1.211 -0.3539 -1.3571  0.2952
 2787SOL    HW220341  -0.012   2.978   1.321 -0.9869 -1.1367  0.4786
 2788SOL     OW20342   6.849   0.997  11.133 -0.4519 -0.2184  0.3384
 2788SOL    HW120343   6.781   0.933  11.111 -2.1697  1.1132  1.5031
 2788SOL    HW220344   6.928   0.944  11.146 -1.6693 -2.0430  0.7332
 2789SOL     OW20345   7.408  13.823  13.504 -0.2342  0.1261  0.4331
 2789SOL    HW120346   7.316  13.795  13.498 -0.1405 -0.2351  0.6672
 2789SOL    HW220347   7.433  13.803  13.594 -0.0210  0.5238  0.4594
 2790SOL     OW20348   7.086  11.915   7.403 -0.0763  0.1503 -0.0407
 2790SOL    HW120349   7.042  11.830   7.411 -0.7172  0.5992  1.9075
 2790SOL    HW220350   7.018  11.975   7.373 -0.2648  0.4210  0.8933
 2791SOL     OW20351  11.995   9.219  13.178  0.3207  0.7918 -0.1303
 2791SOL    HW120352  12.036   9.133  13.166 -0.0754  0.4176  1.0897
 2791SOL    HW220353  11.904   9.206  13.152  0.3831  0.9920 -0.4599
 2792SOL     OW20354  10.805   1.787   3.436  0.4367 -0.6083 -0.4125
 2792SOL    HW120355  10.727   1.735   3.418  0.1287 -0.2885 -0.0153
 2792SOL    HW220356  10.839   1.753   3.519  1.2169 -1.3266 -1.0128
 2793SOL     OW20357   0.726  11.455   3.632  0.5572 -0.4855 -0.0868
 2793SOL    HW120358   0.685  11.369   3.633 -1.0951  0.2737  0.8337
 2793SOL    HW220359   0.738  11.478   3.724 -2.2432  1.6723 -0.1141
 2794SOL     OW20360   0.809   4.467   6.967 -0.0198 -0.6883 -0.3543
 2794SOL    HW120361   0.777   4.523   6.896  0.6124 -1.6681 -1.4505
 2794SOL    HW220362   0.778   4.510   7.047 -1.1770  0.1773 -1.2301
 2795SOL     OW20363   4.304   1.136   0.949  0.5185  0.2155  0.1030
 2795SOL    HW120364   4.383   1.109   0.902 -1.0130 -0.5072 -2.2125
 2795SOL    HW220365   4.254   1.055   0.960 -0.0173  0.6902  1.4076
 2796SOL     OW20366   1.129   9.394   7.554 -0.0548  0.0436  0.2280
 2796SOL    HW120367   1.090   9.470   7.511  0.7263 -0.6827 -1.9008
 2796SOL    HW220368   1.055   9.343   7.586 -0.7783 -0.0391 -1.4781
 2797SOL     OW20369  10.028   5.789   6.634  0.1189  0.1521  0.1237
 2797SOL    HW120370  10.077   5.868   6.656 -1.5035  0.9326  1.1230
 2797SOL    HW220371  10.075   5.719   6.679  0.4190  0.8532  0.9374
 2798SOL     OW20372   9.181  11.172  13.837 -0.1185 -0.2351  0.1434
 2798SOL    HW120373   9.138  11.155  13.920  0.0773  0.1599  0.3267
 2798SOL    HW220374   9.272  11.192  13.860 -0.0279 -0.2663 -0.1742
 2799SOL     OW20375   6.829   4.431  13.602 -0.8188 -0.3083  1.3620
 2799SOL    HW120376   6.910   4.402  13.562  0.0052 -0.0822  2.8003
 2799SOL    HW220377   6.854   4.458  13.690 -2.1848  1.2546  1.3155
 2800SOL     OW20378  10.498   3.612   0.040  0.2014  0.0032 -0.3466
 2800SOL    HW120379  10.562   3.669   0.083 -1.4521  1.3491  0.4958
 2800SOL    HW220380  10.491   3.646  -0.049 -1.0369  1.4648  0.2514
 2801SOL     OW20381   2.893   0.294  10.824  0.0102 -0.0712  0.3704
 2801SOL    HW120382   2.814   0.278  10.772 -0.2183  0.8126  0.4298
 2801SOL    HW220383   2.861   0.314  10.912  0.3140 -0.0243  0.4724
 2802SOL     OW20384  13.083   9.566  10.543 -0.5044  0.0066 -0.1326
 2802SOL    HW120385  13.112   9.476  10.532 -0.3877  0.1617 -1.2051
 2802SOL    HW220386  12.990   9.565  10.522 -0.0604  0.4942 -2.4511
 2803SOL     OW20387   1.489  12.176  11.487  0.5300  0.0075 -0.7226
 2803SOL    HW120388   1.537  12.254  11.460  0.4542  0.8743  1.4546
 2803SOL    HW220389   1.554  12.122  11.531 -0.3200  1.0832  2.0360
 2804SOL     OW20390  11.423   6.605  10.332  0.3569 -0.5553 -0.0144
 2804SOL    HW120391  11.436   6.580  10.241 -1.7180 -1.9039 -0.0012
 2804SOL    HW220392  11.473   6.540  10.382  0.7791 -0.3343 -0.1394
 2805SOL     OW20393   7.832   9.281   4.775  0.4555  0.0960 -0.1730
 2805SOL    HW120394   7.771   9.304   4.705 -1.6019 -3.3357  0.2268
 2805SOL    HW220395   7.896   9.223   4.733  1.2743  0.7544  0.1427
 2806SOL     OW20396   2.077   6.682   9.171 -0.0890  0.1564 -0.3859
 2806SOL    HW120397   2.049   6.768   9.203 -1.6959 -0.3397 -0.3858
 2806SOL    HW220398   2.138   6.651   9.237  1.9228  2.0100 -1.2349
 2807SOL     OW20399   9.535   7.108   8.029  0.1540 -0.1476 -0.3071
 2807SOL    HW120400   9.613   7.083   7.981 -0.1183 -3.3187  0.6197
 2807SOL    HW220401   9.462   7.071   7.978 -0.3150 -1.2789  1.0750
 2808SOL     OW20402  11.612  13.189   6.604 -1.0013 -0.1452  0.3213
 2808SOL    HW120403  11.624  13.135   6.525 -1.3264 -1.6334  1.2545
 2808SOL    HW220404  11.699  13.191   6.645 -1.1419 -0.5634  0.6494
 2809SOL     OW20405   6.494  11.871   6.848 -0.2152 -0.3018 -0.3228
 2809SOL    HW120406   6.455  11.859   6.935  1.0600  1.2328  0.5227
 2809SOL    HW220407   6.582  11.835   6.856 -0.8704 -2.4486 -1.7906
 2810SOL     OW20408   8.375   6.848   5.463 -0.0558 -0.0286 -0.4661
 2810SOL    HW120409   8.406   6.868   5.375  0.4140 -3.2318 -1.1565
 2810SOL    HW220410   8.296   6.795   5.449 -0.7217  0.5012  1.0859
 2811SOL     OW20411   8.137  11.699   9.955 -0.4046  0.1513 -0.2764
 2811SOL    HW120412   8.129  11.628   9.891  0.6837 -0.9411  0.7294
 2811SOL    HW220413   8.132  11.779   9.904  0.1018 -0.6864 -1.6840
 2812SOL     OW20414  13.606   1.905   9.974  0.1674  0.4321 -0.9227
 2812SOL    HW120415  13.677   1.946   9.925  1.0469  0.0862  0.0223
 2812SOL    HW220416  13.616   1.938  10.063 -0.8660  0.3770 -0.7714
 2813SOL     OW20417   8.156   8.191   2.458 -0.1500  0.2364 -0.4613
 2813SOL    HW120418   8.166   8.098   2.476 -1.4274  0.1867  0.1015
 2813SOL    HW220419   8.062   8.204   2.449 -0.2196  1.8310  1.6046
 2814SOL     OW20420   1.936   5.781   3.352  0.4401 -0.3033  0.1032
 2814SOL    HW120421   1.850   5.781   3.394 -0.1223  0.9051 -0.9484
 2814SOL    HW220422   1.998   5.770   3.423 -0.5098  0.9225  1.1777
 2815SOL     OW20423   6.719   6.633   2.030  0.2994 -0.3656  0.3082
 2815SOL    HW120424   6.679   6.567   1.973  0.4099 -1.6376  1.6380
 2815SOL    HW220425   6.654   6.703   2.036  0.9421  0.6467 -2.6896
 2816SOL     OW20426   4.007   5.737  11.606  0.0084 -0.5378  0.3561
 2816SOL    HW120427   4.098   5.766  11.612  0.3338 -1.6511  1.2260
 2816SOL    HW220428   4.013   5.647  11.572 -0.6413 -1.1500  1.7856
 2817SOL     OW20429   0.808   7.287   6.537  0.1128 -0.1079 -0.1450
 2817SOL    HW120430   0.723   7.254   6.564  0.1402  0.8096  1.1249
 2817SOL    HW220431   0.866   7.211   6.537 -0.6490 -0.7002 -0.8542
 2818SOL     OW20432   3.402  12.896   0.510 -0.8489 -0.7649 -0.1918
 2818SOL    HW120433   3.354  12.859   0.436  0.4297  0.9850 -2.0327
 2818SOL    HW220434   3.494  12.895   0.482 -0.5385  1.8736  0.4144
 2819SOL     OW20435  13.553   9.341   2.754  0.2381  0.2657 -0.4719
 2819SOL    HW120436  13.512   9.358   2.669 -0.1923  0.5798 -0.2071
 2819SOL    HW220437  13.622   9.408   2.760  0.6591 -0.1341 -0.8305
 2820SOL     OW20438   7.096   7.495   0.106 -0.3655 -0.0804 -0.3014
 2820SOL    HW120439   7.170   7.492   0.045  1.0233 -1.8299  1.3265
 2820SOL    HW220440   7.019   7.485   0.050  0.7579 -0.2500 -1.8961
 2821SOL     OW20441   3.698   9.796  10.690 -0.2266  0.1026  0.4358
 2821SOL    HW120442   3.656   9.845  10.619 -0.8087 -0.0119  0.6948
 2821SOL    HW220443   3.659   9.709  10.686  0.6942 -0.3071  0.0799
 2822SOL     OW20444   0.790   2.640   6.334  0.1218  0.3648 -0.0481
 2822SOL    HW120445   0.796   2.656   6.240 -0.1112 -0.0518 -0.1362
 2822SOL    HW220446   0.751   2.721   6.369  1.8092  1.2195 -0.0681
 2823SOL     OW20447   1.519   4.170   3.754  0.3554 -0.2162 -0.0133
 2823SOL    HW120448   1.596   4.114   3.761  1.6801  1.6600  1.2721
 2823SOL    HW220449   1.552   4.253   3.719 -1.6650 -0.3494 -2.5371
 2824SOL     OW20450   0.115   7.930   6.903 -0.2372 -0.3078  0.0894
 2824SOL    HW120451   0.099   8.012   6.858  2.3658 -0.0606 -0.4949
 2824SOL    HW220452   0.181   7.885   6.851 -0.2069 -1.9220  1.4157
 2825SOL     OW20453  11.802   9.097   2.102 -0.5660  0.3106 -0.2295
 2825SOL    HW120454  11.846   9.044   2.168 -1.0690  0.3065  0.1104
 2825SOL    HW220455  11.849   9.181   2.103 -2.1275  1.2836  2.0054
 2826SOL     OW20456   0.607   3.854   9.949 -0.8408  0.2419 -0.3369
 2826SOL    HW120457   0.628   3.916   9.879  0.5856  1.1747  0.8470
 2826SOL    HW220458   0.540   3.897  10.001  0.6089  1.1758  0.8638
 2827SOL     OW20459   1.972   8.820   3.633  0.3712  0.1284  0.1905
 2827SOL    HW120460   1.901   8.867   3.677  1.2039  1.5801  0.0351
 2827SOL    HW220461   2.036   8.887   3.611  0.2034 -0.5431 -2.8960
 2828SOL     OW20462  10.106   1.871  12.292 -0.6615 -0.0618  0.1326
 2828SOL    HW120463  10.147   1.861  12.207 -0.6546 -1.3904  0.2631
 2828SOL    HW220464  10.016   1.897  12.273 -0.6332 -0.2613 -0.2791
 2829SOL     OW20465   4.796   9.189  12.820  0.1981 -0.1889  0.1549
 2829SOL    HW120466   4.719   9.175  12.876  0.8717 -0.1685  1.1166
 2829SOL    HW220467   4.858   9.122  12.848 -0.2371 -1.6966 -2.1430
 2830SOL     OW20468  11.311  10.240   5.487 -0.1856  0.4567 -0.4618
 2830SOL    HW120469  11.315  10.334   5.505 -3.6428  0.8531 -1.0689
 2830SOL    HW220470  11.329  10.199   5.572  1.2996  1.6010 -0.1723
 2831SOL     OW20471  13.950   0.528  10.826  0.0690 -0.2610 -0.4700
 2831SOL    HW120472  13.913   0.444  10.800 -2.4275 -0.2745  2.5140
 2831SOL    HW220473  13.896   0.593  10.781 -1.8819 -0.3105  1.6492
 2832SOL     OW20474   6.450   0.371   6.003 -0.2234  0.1387  0.7843
 2832SOL    HW120475   6.425   0.382   6.095 -1.3312  0.4306  0.4653
 2832SOL    HW220476   6.372   0.334   5.962  0.0734  0.5385 -0.1492
 2833SOL     OW20477   9.624   2.640  11.024 -0.1746 -0.3121  0.2263
 2833SOL    HW120478   9.644   2.733  11.009  2.1099 -0.7349  0.2138
 2833SOL    HW220479   9.566   2.616  10.952  0.3519  0.7845 -0.6081
 2834SOL     OW20480  10.621  14.022   0.238  0.3488 -0.1781 -0.3019
 2834SOL    HW120481  10.697  14.016   0.295  1.0956  0.1205 -1.2457
 2834SOL    HW220482  10.643  13.965   0.164  0.2640  0.9924 -1.2507
 2835SOL     OW20483  11.588   3.263   5.870 -0.2473 -0.2924 -0.5812
 2835SOL    HW120484  11.630   3.261   5.784 -0.6467 -0.5404 -0.7735
 2835SOL    HW220485  11.581   3.171   5.896 -0.8870 -0.2743 -0.6646
 2836SOL     OW20486  11.032  10.933   9.519  0.7933 -0.2527 -0.0475
 2836SOL    HW120487  11.099  10.984   9.564  0.5222 -1.3754  1.7507
 2836SOL    HW220488  11.080  10.886   9.450  1.8132 -0.8061  1.0086
 2837SOL     OW20489   5.854   6.190   9.939  0.0386  0.6274 -1.0361
 2837SOL    HW120490   5.760   6.173   9.934 -0.1753  1.3138  0.2616
 2837SOL    HW220491   5.876   6.179  10.032  1.4439 -0.4781 -1.4502
 2838SOL     OW20492  10.285   1.832   0.747  0.4295  0.3606 -0.0593
 2838SOL    HW120493  10.380   1.821   0.740  0.9185  1.9792  2.5695
 2838SOL    HW220494  10.273   1.893   0.819 -2.6939 -0.7481  0.5353
 2839SOL     OW20495   3.863   6.060  11.585  0.3511 -0.0027  0.3174
 2839SOL    HW120496   3.872   6.155  11.580 -1.7409  0.1724 -2.7047
 2839SOL    HW220497   3.922   6.034  11.656  3.3616  3.2130 -0.7196
 2840SOL     OW20498   7.078  12.024  12.820 -0.0740 -0.0882 -0.6045
 2840SOL    HW120499   7.047  12.112  12.797 -2.6454 -0.1596  1.9753
 2840SOL    HW220500   7.061  11.972  12.742 -1.4872  1.1077 -1.1541
 2841SOL     OW20501  11.362   2.975   2.500 -0.2149 -0.3585 -0.2833
 2841SOL    HW120502  11.365   3.036   2.427  1.0126 -0.6531 -0.5141
 2841SOL    HW220503  11.300   2.908   2.474 -0.3807 -0.0393 -0.7126
 2842SOL     OW20504   8.496   2.540   3.177  0.1467 -0.5001  0.2868
 2842SOL    HW120505   8.573   2.504   3.134  1.2994 -1.0939  2.6934
 2842SOL    HW220506   8.530   2.608   3.236 -1.5427  1.5418 -0.9334
 2843SOL     OW20507   6.138   7.324  11.259  0.2018 -0.4585 -0.1153
 2843SOL    HW120508   6.047   7.343  11.282  0.1014 -1.7181  0.5847
 2843SOL    HW220509   6.132   7.267  11.182  0.2354 -3.0231  1.6513
 2844SOL     OW20510   8.585   6.359   1.075 -0.0870  0.3072 -0.2380
 2844SOL    HW120511   8.558   6.449   1.057 -1.4840 -0.2457 -1.0371
 2844SOL    HW220512   8.678   6.366   1.094  0.0655  1.8018 -1.3091
 2845SOL     OW20513   5.881   6.567   2.020 -0.1396  0.5856 -0.0564
 2845SOL    HW120514   5.848   6.653   2.048 -1.8026  0.2556 -0.8980
 2845SOL    HW220515   5.817   6.536   1.956 -1.0417 -2.4254  2.0823
 2846SOL     OW20516   5.969  13.527   4.499  0.2841 -0.2266  0.2090
 2846SOL    HW120517   5.882  13.568   4.498 -0.2176 -1.2324  1.1475
 2846SOL    HW220518   6.026  13.593   4.539  0.4326  1.2669 -2.2226
 2847SOL     OW20519   2.930   6.407   6.374 -0.4101 -0.1093  0.1770
 2847SOL    HW120520   2.868   6.480   6.368  1.3739  1.4784  0.0711
 2847SOL    HW220521   2.922   6.376   6.464 -2.5141 -1.0608 -0.2811
 2848SOL     OW20522   5.509   3.373   6.952  0.3065 -0.3917 -0.2420
 2848SOL    HW120523   5.431   3.423   6.976 -2.1579 -2.7845 -2.4635
 2848SOL    HW220524   5.542   3.415   6.872  0.8204  0.1290  0.2367
 2849SOL     OW20525   0.793   7.295   9.697 -0.8860 -0.2267  0.5695
 2849SOL    HW120526   0.816   7.344   9.618  1.9164 -1.1781  0.6974
 2849SOL    HW220527   0.843   7.337   9.767 -2.0848 -0.4019  1.5596
 2850SOL     OW20528   3.670  11.864  11.989  0.0628  0.6006  0.1180
 2850SOL    HW120529   3.733  11.931  11.960 -0.4547  0.5715 -1.1551
 2850SOL    HW220530   3.613  11.909  12.050  1.1033  0.7140  1.0433
 2851SOL     OW20531  12.615  13.425   5.493  0.4549 -0.0498  0.1370
 2851SOL    HW120532  12.595  13.334   5.473  0.5023  0.0158 -0.2223
 2851SOL    HW220533  12.531  13.470   5.483  0.7506  0.2126 -1.2834
 2852SOL     OW20534   1.021   1.117   4.479  0.1485 -0.4498  0.0366
 2852SOL    HW120535   1.011   1.085   4.568 -0.4646  0.9504  0.5102
 2852SOL    HW220536   1.092   1.181   4.484 -0.7551  0.6061 -0.1735
 2853SOL     OW20537   7.111   2.603   0.200 -0.2223  0.5718  0.1349
 2853SOL    HW120538   7.019   2.579   0.205 -0.1320  0.1842 -0.0185
 2853SOL    HW220539   7.112   2.689   0.158 -0.5153  0.5881  0.1643
 2854SOL     OW20540   5.956  11.499   9.931  0.6625  0.7515  0.3077
 2854SOL    HW120541   5.960  11.561   9.859 -0.0928 -0.0598 -0.4579
 2854SOL    HW220542   6.011  11.538  10.000  1.1830  1.6565 -0.5985
 2855SOL     OW20543   8.325  13.507   8.147 -0.2576 -0.1948 -0.3395
 2855SOL    HW120544   8.324  13.418   8.112  1.2312 -0.9545  1.3759
 2855SOL    HW220545   8.375  13.557   8.083 -2.2465 -0.2094 -2.0073
 2856SOL     OW20546  10.021   4.404   6.688 -0.4034  0.1911  0.1201
 2856SOL    HW120547  10.033   4.459   6.610 -0.1529  0.1327  0.1182
 2856SOL    HW220548  10.053   4.318   6.662  0.3704  0.3519  0.5216
 2857SOL     OW20549   1.239  12.886  10.339  0.3729  0.5476  0.5091
 2857SOL    HW120550   1.194  12.809  10.374 -1.5634  1.0450 -0.7264
 2857SOL    HW220551   1.331  12.862  10.339 -0.3000 -2.7719 -2.0318
 2858SOL     OW20552   0.716  12.662   2.087  0.1366 -0.5605 -0.4317
 2858SOL    HW120553   0.788  12.694   2.033 -0.1730  1.2993  0.1832
 2858SOL    HW220554   0.641  12.657   2.027  0.4607 -1.2351 -0.7839
 2859SOL     OW20555  13.534   9.135   3.322 -0.3051 -0.5182 -0.6317
 2859SOL    HW120556  13.520   9.228   3.308 -0.0228 -0.0619  1.7407
 2859SOL    HW220557  13.609   9.113   3.266  1.1857  1.2517  0.5423
 2860SOL     OW20558  12.204   4.463   3.891 -0.0149  0.0797  0.2574
 2860SOL    HW120559  12.136   4.405   3.926  0.7469 -0.6651  0.5163
 2860SOL    HW220560  12.181   4.475   3.799 -1.2508  0.9269  0.6385
 2861SOL     OW20561   1.124   3.265  10.006  0.2516  0.4810  0.5280
 2861SOL    HW120562   1.210   3.254   9.964 -1.3380  0.9642 -3.2795
 2861SOL    HW220563   1.116   3.360  10.020  0.7544  0.3262  2.0265
 2862SOL     OW20564   0.676   9.742   0.357 -0.4499 -0.3605 -0.0314
 2862SOL    HW120565   0.645   9.696   0.279  0.5173  0.3068 -0.8346
 2862SOL    HW220566   0.651   9.685   0.430  2.1642 -3.0880 -1.0754
 2863SOL     OW20567  12.047  11.217  10.458  0.4101 -0.1703 -0.3937
 2863SOL    HW120568  12.005  11.160  10.394 -0.4278 -0.7366  0.6244
 2863SOL    HW220569  11.978  11.279  10.482  0.3644 -0.6699  0.7896
 2864SOL     OW20570  13.700  13.769   0.992 -0.0360 -0.1613 -0.4595
 2864SOL    HW120571  13.773  13.811   0.948  0.8945 -2.0570 -0.8162
 2864SOL    HW220572  13.662  13.838   1.047  3.0455  0.5028  1.0432
 2865SOL     OW20573   9.942   5.232   0.104 -0.1231  0.3385 -0.3693
 2865SOL    HW120574   9.899   5.287   0.039 -0.8547  0.2546  0.0244
 2865SOL    HW220575  10.034   5.234   0.081 -0.1149  1.8106 -0.3191
 2866SOL     OW20576   4.850   2.833   1.459  0.6599  0.2323 -0.2531
 2866SOL    HW120577   4.759   2.821   1.483  0.5710 -0.6212 -0.9415
 2866SOL    HW220578   4.899   2.808   1.538  0.2925  1.7088  0.4655
 2867SOL     OW20579   9.839   4.961   0.142  0.3479 -0.6781 -0.0460
 2867SOL    HW120580   9.878   5.044   0.113  0.6649 -0.3938  1.1252
 2867SOL    HW220581   9.914   4.903   0.156  0.1593 -1.0082 -0.4100
 2868SOL     OW20582   1.597   6.453   4.518  0.0523 -0.1567  0.2321
 2868SOL    HW120583   1.679   6.434   4.565  0.1022 -0.9555 -0.1736
 2868SOL    HW220584   1.542   6.497   4.584  0.2192 -1.0230  0.9667
 2869SOL     OW20585  13.854   6.085   0.891  0.4374 -0.0059  0.1909
 2869SOL    HW120586  13.914   6.122   0.826 -2.1624  1.4632 -1.5351
 2869SOL    HW220587  13.829   6.159   0.946  0.2256 -0.6181  0.9464
 2870SOL     OW20588   8.301   7.116   9.841  0.0585 -0.1264 -0.0334
 2870SOL    HW120589   8.230   7.149   9.896 -0.5948 -0.5416 -0.6252
 2870SOL    HW220590   8.375   7.175   9.861 -0.1973 -0.1775  1.1730
 2871SOL     OW20591   0.080  11.958   1.756 -0.9259  0.0160 -0.4695
 2871SOL    HW120592   0.135  12.036   1.764 -0.1976 -0.3705 -1.4350
 2871SOL    HW220593   0.051  11.958   1.665  1.0059 -2.0322 -1.1762
 2872SOL     OW20594  13.590  11.721  13.563  0.2892  0.2013 -0.6249
 2872SOL    HW120595  13.677  11.718  13.524  0.9997  0.7535  0.8653
 2872SOL    HW220596  13.554  11.633  13.549  0.5273  0.3551 -2.4279
 2873SOL     OW20597   7.961   8.195  13.968 -0.0328  0.2018 -0.6033
 2873SOL    HW120598   7.895   8.139  13.927 -0.4344  0.0405  0.2414
 2873SOL    HW220599   7.996   8.248  13.896 -1.7409  0.9554 -0.9137
 2874SOL     OW20600   5.981   8.645   6.652  0.4588  0.1787  0.2077
 2874SOL    HW120601   5.997   8.614   6.741 -1.1785 -1.3129  0.0323
 2874SOL    HW220602   5.990   8.740   6.658 -0.2090  0.1710  2.1110
 2875SOL     OW20603  12.287   3.829  12.863 -0.3635 -0.1921  0.5342
 2875SOL    HW120604  12.366   3.803  12.910  1.2525 -1.1291 -2.4215
 2875SOL    HW220605  12.219   3.769  12.895  0.9141 -1.4683  0.9650
 2876SOL     OW20606   7.308   1.600   0.300  0.3757  0.0195 -0.0746
 2876SOL    HW120607   7.239   1.595   0.366  1.3379 -0.9102  0.9244
 2876SOL    HW220608   7.289   1.679   0.251 -0.0499  1.0934  1.7227
 2877SOL     OW20609  11.024  11.082   3.802  0.1358  0.1840  0.8200
 2877SOL    HW120610  10.994  11.047   3.886 -1.9227  1.7981  0.8313
 2877SOL    HW220611  11.063  11.007   3.757  2.0202 -0.5643  3.4867
 2878SOL     OW20612   1.035   5.135   0.236 -0.0686 -0.4989 -0.2022
 2878SOL    HW120613   1.057   5.078   0.310  0.3601  1.2978  1.1311
 2878SOL    HW220614   0.943   5.115   0.217 -0.0963 -1.2255  0.5945
 2879SOL     OW20615   4.402  13.858   1.692 -0.3503 -0.1321  0.0555
 2879SOL    HW120616   4.308  13.844   1.703 -0.1766 -0.6939  0.9099
 2879SOL    HW220617   4.431  13.787   1.635 -0.7514  1.1336 -1.8164
 2880SOL     OW20618   4.337   6.959   2.888 -0.5314 -0.3176  0.3026
 2880SOL    HW120619   4.277   6.903   2.937  0.2950 -0.6199  0.9878
 2880SOL    HW220620   4.347   7.037   2.943 -1.9019  0.6748 -0.7779
 2881SOL     OW20621   4.408   1.883   9.105  0.0188 -0.0158 -0.5147
 2881SOL    HW120622   4.376   1.972   9.089  0.6629  0.7991  2.2149
 2881SOL    HW220623   4.504   1.891   9.104  0.1380  0.0437  2.6575
 2882SOL     OW20624   8.998   0.730   7.383 -0.0767  0.3024 -0.2161
 2882SOL    HW120625   8.923   0.733   7.442 -0.7161  2.0097 -1.0305
 2882SOL    HW220626   9.058   0.667   7.422 -2.1224 -1.4682  0.2081
 2883SOL     OW20627   3.879  11.530  11.771 -0.1223 -0.0397 -0.3620
 2883SOL    HW120628   3.887  11.580  11.690  1.1071  0.3908 -0.0065
 2883SOL    HW220629   3.813  11.576  11.822  0.6829  1.0088 -0.2197
 2884SOL     OW20630   7.215   8.296   3.797 -0.1229  0.3715  0.0675
 2884SOL    HW120631   7.267   8.359   3.748 -1.2512 -0.2248 -1.9817
 2884SOL    HW220632   7.259   8.291   3.883 -0.9116  5.1112  1.0324
 2885SOL     OW20633  12.654   2.668  10.234 -0.0805 -0.0147 -0.7610
 2885SOL    HW120634  12.599   2.693  10.160 -0.6153 -0.8059 -0.6498
 2885SOL    HW220635  12.614   2.714  10.309  0.1721  0.4030 -0.8766
 2886SOL     OW20636   4.332  12.627   7.696 -0.0764  0.3651 -0.0768
 2886SOL    HW120637   4.261  12.654   7.638  0.3874  1.0523 -0.3428
 2886SOL    HW220638   4.380  12.708   7.713  0.4211 -0.0289  0.3984
 2887SOL     OW20639   9.559  10.745  10.851 -0.0244 -0.2021  0.1230
 2887SOL    HW120640   9.555  10.801  10.929 -1.3641 -1.1257  0.7487
 2887SOL    HW220641   9.636  10.691  10.864  0.7556  0.8406 -0.0455
 2888SOL     OW20642  11.805   3.503   7.135  0.2170 -0.0794 -0.0935
 2888SOL    HW120643  11.836   3.489   7.046 -1.1059 -1.3596 -0.3859
 2888SOL    HW220644  11.743   3.576   7.128 -1.2511 -1.3234 -0.5889
 2889SOL     OW20645  10.495  13.782   1.522  0.9423 -0.2367 -0.4900
 2889SOL    HW120646  10.459  13.695   1.539 -2.0646  0.8444 -0.8284
 2889SOL    HW220647  10.481  13.831   1.603  1.8901  0.1868 -0.5648
 2890SOL     OW20648   7.935   8.843   0.386  0.0727 -0.1389  0.0109
 2890SOL    HW120649   7.889   8.785   0.446  1.5674 -1.0984  0.2821
 2890SOL    HW220650   7.883   8.840   0.306 -1.3487  0.3057  0.8874
 2891SOL     OW20651   8.822   6.755   8.388  0.6181  0.1063 -0.7465
 2891SOL    HW120652   8.764   6.715   8.324 -0.3066 -0.2849  0.3025
 2891SOL    HW220653   8.814   6.849   8.373  1.4006 -0.0022 -2.0204
 2892SOL     OW20654   6.313   3.817   5.490  0.6691  0.1404 -0.2896
 2892SOL    HW120655   6.268   3.833   5.573 -0.0155 -0.1227 -0.6052
 2892SOL    HW220656   6.258   3.753   5.445  1.3475 -0.1683 -0.6973
 2893SOL     OW20657  10.438  13.197   7.701  0.7674 -0.3369  0.1775
 2893SOL    HW120658  10.444  13.228   7.610  0.0150 -0.0939  0.2041
 2893SOL    HW220659  10.454  13.103   7.695  1.8443 -0.1615 -0.0591
 2894SOL     OW20660   5.401   1.956   0.127  0.1822  0.5657  0.0827
 2894SOL    HW120661   5.385   1.987   0.038  0.2848  2.2194  0.5978
 2894SOL    HW220662   5.347   1.878   0.136  0.5570  0.0843 -1.5773
 2895SOL     OW20663   0.368  10.970  13.137 -0.2420 -0.2843 -0.2945
 2895SOL    HW120664   0.419  10.971  13.218 -1.0634 -0.7110  0.2472
 2895SOL    HW220665   0.387  10.884  13.099 -0.4463 -0.3914 -0.1589
 2896SOL     OW20666  11.949   8.582  13.202  0.5885 -0.7051  0.4181
 2896SOL    HW120667  11.939   8.513  13.137  1.9624 -0.2277 -0.3383
 2896SOL    HW220668  11.959   8.535  13.285  1.9623 -1.4711 -0.1422
 2897SOL     OW20669   9.414   5.386   7.218 -0.1567 -0.1454  0.2794
 2897SOL    HW120670   9.413   5.343   7.304 -1.0214 -1.5867 -0.4156
 2897SOL    HW220671   9.332   5.360   7.178 -0.1237  1.1634 -0.6996
 2898SOL     OW20672   8.787  12.568   0.310 -0.5566  0.1865 -0.1398
 2898SOL    HW120673   8.698  12.586   0.340 -0.0880 -0.4049  1.7490
 2898SOL    HW220674   8.783  12.580   0.215 -2.4932  0.7590 -0.0346
 2899SOL     OW20675  10.090  10.055   2.297 -0.3688 -0.4226 -0.1421
 2899SOL    HW120676  10.054   9.993   2.234 -0.4959 -1.1523  0.6282
 2899SOL    HW220677  10.180  10.028   2.311  0.2227  0.8261 -1.3432
 2900SOL     OW20678   3.379   4.869   8.038  0.0729 -0.5263  0.4963
 2900SOL    HW120679   3.323   4.816   8.095 -0.1944  0.2771  1.0045
 2900SOL    HW220680   3.326   4.883   7.959  0.4943 -1.7527 -0.0216
 2901SOL     OW20681  11.049   6.063   0.973  0.1994 -0.7207  0.5041
 2901SOL    HW120682  11.044   6.150   1.013 -3.5347  1.2233 -3.4681
 2901SOL    HW220683  10.993   6.007   1.028  0.2128  0.1463  1.4198
 2902SOL     OW20684   5.808   5.242   7.431 -0.2136 -0.3533 -0.3159
 2902SOL    HW120685   5.746   5.207   7.366  0.8553 -1.5758 -0.7291
 2902SOL    HW220686   5.780   5.203   7.514  0.0999 -1.0507 -0.5311
 2903SOL     OW20687  11.467   1.760   8.466  0.2684 -0.6673  0.7901
 2903SOL    HW120688  11.528   1.730   8.398  1.9989  1.5437  1.2411
 2903SOL    HW220689  11.519   1.758   8.546  0.3997  2.7679  0.9482
 2904SOL     OW20690   2.185   9.792   1.890 -0.6886 -0.1838 -0.1543
 2904SOL    HW120691   2.221   9.730   1.952  0.8926  0.7691 -0.0501
 2904SOL    HW220692   2.171   9.741   1.810 -0.2138 -0.8546  0.1802
 2905SOL     OW20693  10.198  13.661   1.222 -0.2516 -0.0692  0.0030
 2905SOL    HW120694  10.289  13.690   1.232 -0.3114 -0.2321  1.2633
 2905SOL    HW220695  10.203  13.566   1.225 -0.6244 -0.0928  2.4480
 2906SOL     OW20696   0.975  11.878   2.321 -0.0724 -0.4731 -0.2394
 2906SOL    HW120697   0.998  11.818   2.250 -1.3325  0.7046 -1.7350
 2906SOL    HW220698   1.013  11.962   2.294 -0.0650 -0.1338  0.7882
 2907SOL     OW20699   9.191   2.935   1.355 -0.6163  0.2095  0.0586
 2907SOL    HW120700   9.251   2.956   1.284 -0.1367 -0.2646  0.3174
 2907SOL    HW220701   9.186   2.840   1.356 -0.3281  0.1927  0.8833
 2908SOL     OW20702   6.351   6.945   9.144 -0.2040 -0.4383  0.4441
 2908SOL    HW120703   6.323   6.861   9.181 -1.0220 -0.8451 -1.0342
 2908SOL    HW220704   6.326   7.010   9.210 -1.9922 -1.1037  0.4550
 2909SOL     OW20705  12.057  13.518  10.440  0.0500 -0.0061 -0.3666
 2909SOL    HW120706  12.090  13.607  10.445 -0.1838  0.0665 -0.1280
 2909SOL    HW220707  12.041  13.492  10.531 -0.8482  0.0753 -0.4933
 2910SOL     OW20708   7.281   4.327  10.583 -0.9084 -0.6683 -0.7258
 2910SOL    HW120709   7.251   4.414  10.556 -1.3102 -0.5441  0.0907
 2910SOL    HW220710   7.376   4.334  10.587 -0.9672 -0.1071 -0.1628
 2911SOL     OW20711   3.281   0.511   9.942  0.2030 -0.3185  0.1460
 2911SOL    HW120712   3.366   0.509   9.897 -0.4585 -0.5461 -1.1663
 2911SOL    HW220713   3.219   0.482   9.875 -0.9140 -0.1354  1.0787
 2912SOL     OW20714   6.816   8.475   4.788 -0.0011  0.3440  0.0150
 2912SOL    HW120715   6.886   8.429   4.834 -0.3651 -0.4487 -0.2150
 2912SOL    HW220716   6.813   8.435   4.702  1.2135  2.3462 -1.0429
 2913SOL     OW20717   8.220   1.661   0.948  0.1000 -0.0660  0.3809
 2913SOL    HW120718   8.274   1.718   1.003  0.1648 -0.6476  0.9202
 2913SOL    HW220719   8.195   1.717   0.874  0.5567  0.5225  0.6629
 2914SOL     OW20720   2.789   2.042  10.644 -0.4852  0.1241 -0.3844
 2914SOL    HW120721   2.878   2.015  10.622  0.0284  0.9930  0.5085
 2914SOL    HW220722   2.740   1.961  10.650  0.3853 -0.4188 -0.3449
 2915SOL     OW20723   4.385  10.528   0.352  0.2134  0.4199 -0.1068
 2915SOL    HW120724   4.403  10.442   0.389 -0.6520  0.3735  0.2290
 2915SOL    HW220725   4.471  10.563   0.329  1.1894  1.5066  4.2531
 2916SOL     OW20726   9.571  11.903  11.426  0.3344  0.1473 -0.5370
 2916SOL    HW120727   9.641  11.871  11.483 -0.5097 -0.6158  0.0925
 2916SOL    HW220728   9.490  11.880  11.472 -0.3443  0.6179 -1.4654
 2917SOL     OW20729  13.860  10.183   6.574 -0.3431  0.5111  0.0683
 2917SOL    HW120730  13.931  10.123   6.550  0.3333  0.9131  1.0010
 2917SOL    HW220731  13.866  10.190   6.669  0.8080  3.4904 -0.1129
 2918SOL     OW20732  10.714   2.385   4.056  0.3330 -0.7734 -0.4010
 2918SOL    HW120733  10.679   2.373   3.968 -1.0587  2.2768 -0.3892
 2918SOL    HW220734  10.806   2.408   4.042  0.4943 -1.6836 -0.9277
 2919SOL     OW20735   7.197   1.080   6.682  0.0285  0.3542  0.4514
 2919SOL    HW120736   7.223   0.997   6.641  0.0778  0.5542  0.0808
 2919SOL    HW220737   7.154   1.129   6.612  0.9388  1.0817  0.3822
 2920SOL     OW20738   5.208   1.662   3.522  0.7139  0.1357  0.0792
 2920SOL    HW120739   5.282   1.615   3.483  1.6901  0.8132  1.0645
 2920SOL    HW220740   5.231   1.671   3.615  0.3192  2.1011  0.0271
 2921SOL     OW20741   6.751  13.220  12.319 -0.0275  0.3176  0.0360
 2921SOL    HW120742   6.834  13.265  12.300  0.8538 -1.0556  0.4776
 2921SOL    HW220743   6.752  13.143  12.263 -1.2121  0.4885 -0.2430
 2922SOL     OW20744   3.114   1.036  11.951 -0.0146  0.1077 -0.6547
 2922SOL    HW120745   3.133   1.128  11.932  1.6938 -0.0291  0.1500
 2922SOL    HW220746   3.193   0.989  11.922 -0.1773 -0.8977  0.4560
 2923SOL     OW20747  11.517  11.938   1.554 -0.0847 -0.3550 -0.8578
 2923SOL    HW120748  11.572  11.972   1.484 -0.0795 -0.1440 -0.7535
 2923SOL    HW220749  11.469  11.866   1.514  1.8211 -1.9579 -0.3865
 2924SOL     OW20750  10.775   9.663   3.348  0.6119  0.5437 -0.2904
 2924SOL    HW120751  10.769   9.728   3.278  0.6435  0.6568 -0.1864
 2924SOL    HW220752  10.700   9.682   3.404  0.7950  0.6850 -0.0917
 2925SOL     OW20753  11.564   1.307  13.828  0.5219  0.2004 -0.0692
 2925SOL    HW120754  11.549   1.375  13.762  0.1978  0.8099  0.6156
 2925SOL    HW220755  11.476   1.283  13.858  0.6686  0.0368  0.2398
 2926SOL     OW20756   3.610   9.912   8.406  0.3236  0.0838  0.9098
 2926SOL    HW120757   3.672   9.928   8.335  0.3729  3.0281  1.4559
 2926SOL    HW220758   3.527   9.892   8.362  0.7316  0.2634  0.0423
 2927SOL     OW20759   3.656   2.121   8.229 -0.1549  0.0748 -0.4982
 2927SOL    HW120760   3.745   2.156   8.218  0.7776 -1.5040  1.3635
 2927SOL    HW220761   3.643   2.063   8.153  0.5725  0.0148 -0.5842
 2928SOL     OW20762   1.881   7.306   0.425 -0.3826 -0.0111 -0.2929
 2928SOL    HW120763   1.915   7.245   0.490 -0.0164  0.7106  0.2027
 2928SOL    HW220764   1.901   7.392   0.460  0.2142  0.3871 -1.5688
 2929SOL     OW20765   4.200   9.401   7.638  0.2862 -0.6088 -0.0282
 2929SOL    HW120766   4.248   9.479   7.666  1.7542 -1.4318 -0.1942
 2929SOL    HW220767   4.121   9.436   7.596  0.1272  0.7317  1.3247
 2930SOL     OW20768   5.419  11.890  13.245  0.3320 -0.2343  0.0650
 2930SOL    HW120769   5.331  11.854  13.260  1.1366 -1.6610  1.5391
 2930SOL    HW220770   5.406  11.985  13.250 -1.3374 -0.3353 -1.1248
 2931SOL     OW20771   6.286   4.280   5.814  0.1298  0.4893 -0.0393
 2931SOL    HW120772   6.229   4.352   5.842 -1.6488 -0.7594 -0.2512
 2931SOL    HW220773   6.321   4.308   5.729 -0.8976  0.9394 -0.3314
 2932SOL     OW20774   6.000   4.778  11.524  0.9389  0.2302 -0.3184
 2932SOL    HW120775   5.952   4.832  11.462  0.3338 -0.3972 -0.4037
 2932SOL    HW220776   6.032   4.704  11.473 -1.0445 -1.2228  0.3966
 2933SOL     OW20777   1.032   3.113  12.518 -0.2808  0.2076  0.1757
 2933SOL    HW120778   1.104   3.073  12.469 -0.5040 -1.3760  1.0768
 2933SOL    HW220779   1.071   3.192  12.557  0.5928  0.1043 -0.4591
 2934SOL     OW20780  13.037   0.119  11.851 -0.3315 -0.0190  0.1193
 2934SOL    HW120781  13.044   0.079  11.937  1.2537  1.9577  0.9650
 2934SOL    HW220782  13.114   0.089  11.804 -1.0626 -0.8885 -0.5687
 2935SOL     OW20783   9.570  10.739   8.250 -0.0387  0.1223 -0.1287
 2935SOL    HW120784   9.592  10.738   8.343 -0.0108 -2.2227 -0.0972
 2935SOL    HW220785   9.620  10.813   8.215  0.8607  0.3520  1.5018
 2936SOL     OW20786   9.502   6.527  12.840  0.3644  0.0948 -0.6794
 2936SOL    HW120787   9.580   6.576  12.863  0.8772 -0.3049 -1.4947
 2936SOL    HW220788   9.450   6.523  12.920  1.1335  0.4583 -0.1617
 2937SOL     OW20789   6.833   7.260  12.033  0.2067  0.0052 -0.6500
 2937SOL    HW120790   6.742   7.264  12.063  0.4263  1.4022 -0.0894
 2937SOL    HW220791   6.860   7.170  12.049 -0.7792 -0.1743  0.0744
 2938SOL     OW20792  13.499   1.069  11.955 -0.3828 -0.0441 -0.4247
 2938SOL    HW120793  13.537   1.032  11.875 -1.3771 -2.1126 -0.0072
 2938SOL    HW220794  13.544   1.023  12.026 -2.9073 -1.8963  0.0920
 2939SOL     OW20795   2.041  11.685   1.867  0.1470 -0.4333  0.4242
 2939SOL    HW120796   2.117  11.627   1.858  0.3399 -0.3042  1.1471
 2939SOL    HW220797   2.067  11.749   1.933 -0.0601  0.5010 -0.3862
 2940SOL     OW20798   3.022  10.891   8.063  0.4962  0.0396  0.8228
 2940SOL    HW120799   2.955  10.865   8.126 -0.1931  1.3096  0.6284
 2940SOL    HW220800   3.058  10.808   8.031 -1.6925 -0.7097  0.1407
 2941SOL     OW20801   8.846   9.760  10.938 -0.3362  0.2327  0.4480
 2941SOL    HW120802   8.860   9.803  11.022 -1.1149 -2.3669  2.0050
 2941SOL    HW220803   8.751   9.748  10.932 -0.1134 -1.7069  0.3520
 2942SOL     OW20804   6.261  10.289   5.202 -0.0494  0.1152  0.1281
 2942SOL    HW120805   6.310  10.361   5.242  0.7840 -0.3390 -0.0408
 2942SOL    HW220806   6.223  10.241   5.275 -0.9035  0.9266  0.2227
 2943SOL     OW20807   2.030  13.835   7.041 -0.9538 -0.3464  0.3814
 2943SOL    HW120808   1.999  13.744   7.047 -2.3575 -0.1303 -2.0475
 2943SOL    HW220809   2.119  13.828   7.006 -2.0988 -0.8761 -2.8574
 2944SOL     OW20810   7.381   5.406  13.777 -0.1561 -0.0644  0.1256
 2944SOL    HW120811   7.290   5.422  13.803  0.4228 -0.8915  2.9787
 2944SOL    HW220812   7.389   5.311  13.776  0.7680  0.0032  0.3344
 2945SOL     OW20813   4.439   4.564   1.252  0.0042 -0.7263  0.1388
 2945SOL    HW120814   4.483   4.591   1.333 -1.9451 -2.5536  1.9200
 2945SOL    HW220815   4.407   4.476   1.270  0.6789 -1.7835 -3.1768
 2946SOL     OW20816  13.098   6.662  10.512 -0.1176  0.7693  0.6821
 2946SOL    HW120817  13.142   6.577  10.510 -1.3389  0.0798 -2.2662
 2946SOL    HW220818  13.032   6.652  10.581  0.0452 -0.5309  0.6812
 2947SOL     OW20819  11.559  11.582  10.528  0.2721  0.1513  0.3518
 2947SOL    HW120820  11.635  11.608  10.475  1.3566 -0.6048  1.4797
 2947SOL    HW220821  11.558  11.487  10.524  0.1938  0.0981  1.4278
 2948SOL     OW20822  12.145   3.573   1.043  0.0680  0.3127  0.3657
 2948SOL    HW120823  12.178   3.655   1.079  2.0143  0.1783 -0.9862
 2948SOL    HW220824  12.126   3.519   1.120  0.2067  1.4632  1.2373
 2949SOL     OW20825   7.802   7.012  10.982  0.3364  0.8087  0.0511
 2949SOL    HW120826   7.713   7.024  10.951 -0.5098 -0.4873  1.8293
 2949SOL    HW220827   7.854   7.000  10.903 -1.2125  0.6482 -0.9752
 2950SOL     OW20828   8.013  12.446  13.121 -0.2846  0.0387  0.2508
 2950SOL    HW120829   7.952  12.482  13.057 -0.9585 -0.6191  0.5096
 2950SOL    HW220830   8.072  12.390  13.071 -0.1858  0.3008  0.0715
 2951SOL     OW20831   4.504   8.426  10.457  0.4199 -0.0822  0.0825
 2951SOL    HW120832   4.593   8.391  10.457  0.3081 -0.5273  2.2177
 2951SOL    HW220833   4.500   8.480  10.536 -1.4528 -0.8275  0.5549
 2952SOL     OW20834  12.866  10.730   3.076  0.3594  0.3339  0.1818
 2952SOL    HW120835  12.827  10.643   3.075 -1.2285  0.9503  1.7396
 2952SOL    HW220836  12.887  10.745   3.169  0.9903  1.4461 -0.1243
 2953SOL     OW20837  11.796   9.215   3.788 -0.2988 -0.3751 -0.3055
 2953SOL    HW120838  11.887   9.232   3.810  0.1506 -0.9773 -1.5906
 2953SOL    HW220839  11.750   9.213   3.872  0.7606  0.5216  0.3107
 2954SOL     OW20840  11.741   7.764   5.689 -0.3434 -0.1697  0.0056
 2954SOL    HW120841  11.658   7.716   5.682  0.0012 -1.1389  1.8422
 2954SOL    HW220842  11.750   7.782   5.782  0.0319  2.7100 -0.5160
 2955SOL     OW20843  11.653   8.229   6.413  0.4322  0.2004  0.3604
 2955SOL    HW120844  11.655   8.148   6.464 -0.8597  0.3066  0.6140
 2955SOL    HW220845  11.741   8.265   6.422  1.7469 -2.2770 -1.6368
 2956SOL     OW20846   2.186   8.620   1.302  0.0920  0.7801 -0.0771
 2956SOL    HW120847   2.268   8.666   1.319 -0.2906  1.5316 -0.2259
 2956SOL    HW220848   2.187   8.602   1.208 -1.0042  3.0235 -0.5992
 2957SOL     OW20849  11.378   2.075   1.488  0.9178 -0.3767 -0.1553
 2957SOL    HW120850  11.424   2.063   1.571  1.6975  1.7502 -0.2088
 2957SOL    HW220851  11.426   2.145   1.444 -1.2747  0.6854 -1.0290
 2958SOL     OW20852   3.106   3.837  13.780 -0.0395  0.2238  0.0798
 2958SOL    HW120853   3.181   3.844  13.722  0.6779  1.4226  1.0916
 2958SOL    HW220854   3.044   3.901  13.746 -0.0806  0.1339 -0.0151
 2959SOL     OW20855   0.174  13.119   2.529 -0.4686  0.6674  0.1961
 2959SOL    HW120856   0.201  13.108   2.620 -0.9492 -0.5350  0.2024
 2959SOL    HW220857   0.239  13.068   2.479  1.0888  3.0215 -0.3635
 2960SOL     OW20858   0.811  12.382  11.423  0.3930 -0.0728 -0.6404
 2960SOL    HW120859   0.834  12.333  11.344  1.5574 -0.4890 -0.0774
 2960SOL    HW220860   0.720  12.359  11.441 -0.5808  1.5500 -2.9278
 2961SOL     OW20861   7.872   9.035  13.304  0.4805  0.0286 -0.2507
 2961SOL    HW120862   7.899   9.108  13.359  0.0446 -1.5576  2.2015
 2961SOL    HW220863   7.776   9.036  13.306  0.3786  0.9388 -2.4552
 2962SOL     OW20864  13.122  12.487   3.984 -0.2494  0.2574 -0.4108
 2962SOL    HW120865  13.073  12.411   3.951 -0.5133  0.7820 -1.2620
 2962SOL    HW220866  13.187  12.505   3.917  1.2130 -0.4819  0.7473
 2963SOL     OW20867  12.356   0.618   2.389  0.3015 -0.1252 -0.6708
 2963SOL    HW120868  12.444   0.605   2.423  0.7207  1.2507 -1.1697
 2963SOL    HW220869  12.353   0.564   2.309 -0.1748 -2.1221  0.6070
 2964SOL     OW20870  12.537   1.093   3.306  0.1451 -0.2528 -0.1361
 2964SOL    HW120871  12.494   1.149   3.242  1.3313 -0.8984 -1.5687
 2964SOL    HW220872  12.630   1.112   3.296  0.3821 -0.6259  1.1677
 2965SOL     OW20873  12.631   0.033   8.498 -0.0608  0.7062  0.0322
 2965SOL    HW120874  12.638  -0.049   8.548 -1.4028  0.9167  0.6012
 2965SOL    HW220875  12.689   0.020   8.423 -0.3743 -0.8421  0.0224
 2966SOL     OW20876   4.381   1.628   9.515 -0.5024 -0.5348  0.9072
 2966SOL    HW120877   4.389   1.641   9.421 -0.3931  0.6142  1.0639
 2966SOL    HW220878   4.455   1.572   9.538  0.5594  0.6724  0.5749
 2967SOL     OW20879   4.003   4.923  11.646 -0.0667  0.2437  0.7662
 2967SOL    HW120880   4.082   4.871  11.664 -0.4013 -0.7316 -0.4173
 2967SOL    HW220881   4.032   4.991  11.585 -0.5678 -1.7556 -1.9104
 2968SOL     OW20882   2.461   3.924   6.918 -0.2799  0.0057 -0.3430
 2968SOL    HW120883   2.543   3.933   6.870 -1.2216 -0.0406 -2.0369
 2968SOL    HW220884   2.456   4.003   6.972  0.3743  0.5223 -1.0213
 2969SOL     OW20885   3.876  11.330   0.981  0.3158  0.1064 -0.1209
 2969SOL    HW120886   3.860  11.421   1.008 -0.3960  0.2091 -0.8400
 2969SOL    HW220887   3.822  11.278   1.041 -0.3035  0.2526 -0.5387
 2970SOL     OW20888   0.592   5.616   5.523  0.6592 -0.5810 -0.4702
 2970SOL    HW120889   0.560   5.529   5.498  0.4093 -0.2070 -1.4886
 2970SOL    HW220890   0.553   5.676   5.460  0.3846  0.3580  0.5478
 2971SOL     OW20891   7.695   6.652  10.186  0.4563 -0.1657  0.8017
 2971SOL    HW120892   7.716   6.697  10.268 -0.5260 -0.8993  1.4708
 2971SOL    HW220893   7.770   6.671  10.129  0.9269  0.7616  1.6924
 2972SOL     OW20894   4.799  10.704   2.660 -0.0632  0.0452  0.5050
 2972SOL    HW120895   4.887  10.724   2.694  0.4045  0.0562 -0.6665
 2972SOL    HW220896   4.770  10.786   2.620  0.7034 -0.7576 -1.8409
 2973SOL     OW20897   8.732   9.035   4.779 -0.0019  0.5105  0.0035
 2973SOL    HW120898   8.651   9.028   4.830 -0.3672  0.6335 -0.5482
 2973SOL    HW220899   8.749   8.945   4.749  0.0842  0.4794  0.1452
 2974SOL     OW20900  13.246   5.103   6.815 -0.1474 -0.2028 -0.0142
 2974SOL    HW120901  13.278   5.163   6.747  2.5851 -1.9841 -0.4313
 2974SOL    HW220902  13.238   5.158   6.893  3.5343  0.5961 -0.0383
 2975SOL     OW20903   7.884   2.773  11.578  0.0617 -0.1652  0.4214
 2975SOL    HW120904   7.811   2.820  11.537  0.3682 -0.3245 -0.3248
 2975SOL    HW220905   7.954   2.777  11.513 -0.2823 -2.7011 -0.2224
 2976SOL     OW20906  10.168   8.498  13.905  0.0977 -0.1008 -0.0581
 2976SOL    HW120907  10.074   8.481  13.911  0.0653  0.1008  0.0177
 2976SOL    HW220908  10.188   8.490  13.812  0.0741 -0.4988 -0.0340
 2977SOL     OW20909   0.973   3.295   3.763  0.5080 -0.4891 -0.3235
 2977SOL    HW120910   0.936   3.275   3.677 -0.5047  0.6042 -0.1704
 2977SOL    HW220911   1.064   3.318   3.745 -0.0431  1.0746 -1.3165
 2978SOL     OW20912  10.911   7.956   8.582 -0.1000  0.0790  0.1699
 2978SOL    HW120913  10.970   7.947   8.507  0.8176 -2.9596  1.1256
 2978SOL    HW220914  10.952   8.022   8.637  0.5799  0.4693 -0.7632
 2979SOL     OW20915   7.001   8.020  10.521 -0.7595 -0.7644 -0.6346
 2979SOL    HW120916   6.951   7.939  10.527 -1.1751 -0.5481 -1.0927
 2979SOL    HW220917   7.075   8.007  10.580 -1.7230 -0.8324  0.6102
 2980SOL     OW20918   0.893   6.627   6.493 -0.0783 -0.3536  0.6296
 2980SOL    HW120919   0.852   6.545   6.467 -1.0938  0.2355  0.3186
 2980SOL    HW220920   0.844   6.655   6.570 -0.0668  0.2143  0.4318
 2981SOL     OW20921   9.537   6.807  11.709  0.2812  0.4049 -0.2788
 2981SOL    HW120922   9.546   6.836  11.618  1.4319  0.3167 -0.2166
 2981SOL    HW220923   9.609   6.852  11.755  0.6042 -0.6653  0.2895
 2982SOL     OW20924   0.201   0.526   0.761 -0.2417  0.3456  0.3076
 2982SOL    HW120925   0.125   0.574   0.727  0.0278  0.1225 -0.6207
 2982SOL    HW220926   0.266   0.530   0.691 -0.1318 -1.1935  0.2835
 2983SOL     OW20927   7.735   2.641   1.900  0.0470  0.0353 -0.1332
 2983SOL    HW120928   7.776   2.612   1.818 -0.4250  0.3661 -0.4923
 2983SOL    HW220929   7.644   2.660   1.876 -0.3834 -0.9173  0.7065
 2984SOL     OW20930   4.197   3.010   8.958  0.2418 -0.1310  0.7121
 2984SOL    HW120931   4.238   3.095   8.974  1.1817 -0.6447  1.0620
 2984SOL    HW220932   4.113   3.016   9.004  0.1779  0.6985  0.5083
 2985SOL     OW20933   6.722  10.143   2.716  0.0534 -0.0145 -0.3685
 2985SOL    HW120934   6.797  10.198   2.738  0.9241 -1.5813  0.7636
 2985SOL    HW220935   6.693  10.107   2.799 -0.1187 -1.7196 -1.1361
 2986SOL     OW20936   1.082   3.288  13.904  0.2254 -0.2050  0.2214
 2986SOL    HW120937   1.037   3.234  13.839 -2.7406  1.0332  1.0377
 2986SOL    HW220938   1.122   3.358  13.854 -2.9581  1.3746 -0.3762
 2987SOL     OW20939   6.132  11.647  10.086 -0.1787 -0.3833 -0.1294
 2987SOL    HW120940   6.137  11.722  10.027 -3.7833 -0.3217 -0.5890
 2987SOL    HW220941   6.078  11.678  10.159  0.3069 -1.8410  0.8921
 2988SOL     OW20942   6.885   3.831   1.512  0.3015  0.1462 -0.3086
 2988SOL    HW120943   6.873   3.741   1.479  0.0276 -0.6400  1.7787
 2988SOL    HW220944   6.978   3.838   1.531 -0.0810 -0.7828  2.2667
 2989SOL     OW20945   1.282   2.141   1.871 -0.1637 -0.2812  0.0779
 2989SOL    HW120946   1.373   2.156   1.894 -0.2603  1.2360 -0.3978
 2989SOL    HW220947   1.239   2.121   1.954  0.0807  1.9948  0.8343
 2990SOL     OW20948   2.083  10.821   0.190 -0.1523  0.4264 -0.1807
 2990SOL    HW120949   2.004  10.843   0.141 -0.2102 -0.1189 -0.3411
 2990SOL    HW220950   2.153  10.868   0.143 -0.5953  2.5000  1.0991
 2991SOL     OW20951   2.922  11.851   8.415 -0.1132 -0.0384 -0.0319
 2991SOL    HW120952   2.970  11.932   8.435 -0.9202  0.2852  0.6815
 2991SOL    HW220953   2.894  11.819   8.501 -2.8234  0.8350 -0.5003
 2992SOL     OW20954  11.267   1.821   7.579  0.4663 -0.3129  0.4541
 2992SOL    HW120955  11.224   1.831   7.494 -0.1487  3.4023  1.0251
 2992SOL    HW220956  11.358   1.844   7.563  0.3342  0.4699  0.7842
 2993SOL     OW20957  10.006   3.065   7.305  0.5095 -0.1480  0.1768
 2993SOL    HW120958   9.999   2.978   7.344 -0.1095 -0.1308  0.1146
 2993SOL    HW220959   9.921   3.080   7.264  0.9503  0.0765 -0.6898
 2994SOL     OW20960   8.882   3.821  12.365  0.4987 -0.0006 -0.0997
 2994SOL    HW120961   8.936   3.900  12.358 -0.1871  0.4698 -0.1029
 2994SOL    HW220962   8.850   3.807  12.276  2.5406 -1.6793 -0.6655
 2995SOL     OW20963   1.654   3.042   5.707 -0.2300 -0.1989 -0.2710
 2995SOL    HW120964   1.628   3.030   5.615 -3.4427  0.5830  0.4213
 2995SOL    HW220965   1.628   2.960   5.750  2.2879 -1.0245 -0.1565
 2996SOL     OW20966  11.219   9.701   8.674 -0.2168 -0.3363 -0.2017
 2996SOL    HW120967  11.136   9.676   8.714 -0.5185  0.6473 -0.1771
 2996SOL    HW220968  11.227   9.645   8.597 -2.0137  1.0175 -1.4787
 2997SOL     OW20969   3.795   7.850   6.346  0.0855  0.1183 -0.5464
 2997SOL    HW120970   3.833   7.762   6.337  0.7254  0.3483 -0.1885
 2997SOL    HW220971   3.702   7.837   6.331  0.2908 -0.4729 -1.4300
 2998SOL     OW20972   1.733   4.952   4.394 -1.6949 -0.2633 -0.3234
 2998SOL    HW120973   1.759   4.893   4.465 -0.3837 -1.1492 -1.4909
 2998SOL    HW220974   1.641   4.972   4.412 -1.5632 -0.9469  1.2775
 2999SOL     OW20975  10.528   0.149  13.113 -0.4439 -0.4165 -0.5301
 2999SOL    HW120976  10.571   0.208  13.175 -0.4878 -0.6548 -0.2739
 2999SOL    HW220977  10.599   0.094  13.080 -0.8645 -2.4125  1.6416
 3000SOL     OW20978   5.911   7.651   2.228  0.1957 -0.3666  0.1783
 3000SOL    HW120979   5.961   7.618   2.154 -1.3200 -0.4581 -0.8574
 3000SOL    HW220980   5.909   7.746   2.216 -1.7142 -0.4890 -1.1152
 3001SOL     OW20981   0.142   5.353   0.962 -0.0948  0.1693 -0.1701
 3001SOL    HW120982   0.223   5.371   0.914  0.6910 -2.0082  0.2264
 3001SOL    HW220983   0.087   5.305   0.899 -0.1522 -0.3266  0.2523
 3002SOL     OW20984   8.298   8.165   8.473  0.4330 -0.7069  0.4577
 3002SOL    HW120985   8.388   8.164   8.442  0.9134  0.7661  1.6667
 3002SOL    HW220986   8.303   8.206   8.560 -1.3487 -0.9773  0.7345
 3003SOL     OW20987   8.593   3.846   1.271  0.0187 -0.0200  0.4788
 3003SOL    HW120988   8.565   3.866   1.182  0.8512 -0.3952  0.1240
 3003SOL    HW220989   8.563   3.756   1.286  2.0580 -0.8880 -0.3593
 3004SOL     OW20990   2.024   8.715  10.439 -0.4585  0.3716  0.4881
 3004SOL    HW120991   2.107   8.699  10.484  0.3141  2.0450 -0.2528
 3004SOL    HW220992   2.031   8.665  10.357  0.0770  0.9260  0.1822
 3005SOL     OW20993   1.699   1.685  12.027  0.4455 -0.5515 -0.7590
 3005SOL    HW120994   1.613   1.717  12.055  0.9734  1.2863 -1.0927
 3005SOL    HW220995   1.724   1.743  11.955  2.9002  0.4103  0.7331
 3006SOL     OW20996  11.637   7.974   7.404  0.0034  0.7058  0.4045
 3006SOL    HW120997  11.715   7.953   7.457 -0.0300 -0.3110  0.0738
 3006SOL    HW220998  11.588   7.892   7.401 -1.4408  1.4934  1.1683
 3007SOL     OW20999  10.776   0.935  11.936  0.1443  0.2338 -0.5842
 3007SOL    HW121000  10.853   0.948  11.991 -0.6650  1.3009  0.3456
 3007SOL    HW221001  10.797   0.980  11.855  0.8753 -0.3143 -0.7100
 3008SOL     OW21002  10.178   3.273   7.629 -0.1233  0.2331  0.0273
 3008SOL    HW121003  10.160   3.315   7.545  0.0249 -0.3690 -0.3140
 3008SOL    HW221004  10.096   3.281   7.678 -0.4870 -0.1705 -0.5076
 3009SOL     OW21005   4.005  11.445  13.123 -0.2818 -0.0789  0.4319
 3009SOL    HW121006   3.989  11.352  13.138 -0.0500 -0.1640  0.1714
 3009SOL    HW221007   4.088  11.463  13.166 -0.2128 -0.0473  0.2869
 3010SOL     OW21008   5.618   1.435  13.253 -0.3612 -0.0857 -0.0627
 3010SOL    HW121009   5.526   1.447  13.278  0.2717  1.1875  1.9060
 3010SOL    HW221010   5.626   1.480  13.168 -1.0431  2.0718  0.9306
 3011SOL     OW21011   4.049  12.330   0.822 -0.1646  0.0698 -0.2214
 3011SOL    HW121012   3.963  12.355   0.788 -0.5169  0.7417  1.0804
 3011SOL    HW221013   4.083  12.267   0.758 -1.3277  0.3047 -1.1070
 3012SOL     OW21014  11.644   7.129   6.933  0.5325  0.2078 -0.0655
 3012SOL    HW121015  11.659   7.223   6.943 -2.2660  0.7409 -0.0331
 3012SOL    HW221016  11.706   7.088   6.993  1.8358  2.0210 -0.1108
 3013SOL     OW21017   2.231   2.165  13.762  0.6066  0.2844 -0.0383
 3013SOL    HW121018   2.230   2.195  13.671  0.7531 -0.7676 -0.4034
 3013SOL    HW221019   2.163   2.097  13.764 -0.3461  1.2424  0.9783
 3014SOL     OW21020  13.232  12.739  11.576 -0.2616  0.1943 -0.1011
 3014SOL    HW121021  13.216  12.833  11.565  1.0165  0.5204  0.6201
 3014SOL    HW221022  13.208  12.701  11.491 -1.6514  1.0268 -0.1137
 3015SOL     OW21023   2.212   7.223  10.571 -0.2755 -1.0346 -0.3685
 3015SOL    HW121024   2.295   7.252  10.609 -0.0421 -0.5165 -1.2390
 3015SOL    HW221025   2.170   7.174  10.641  0.1815 -0.1927  0.5285
 3016SOL     OW21026   7.399   3.493   7.002  0.2827 -0.1191 -0.0712
 3016SOL    HW121027   7.321   3.512   6.950  0.8693  0.2355 -0.8291
 3016SOL    HW221028   7.364   3.456   7.084 -0.7590  1.4330  0.2392
 3017SOL     OW21029  11.021   2.185  11.659 -0.0425  0.3919 -0.3973
 3017SOL    HW121030  11.078   2.121  11.617  0.0581  0.3195 -0.1540
 3017SOL    HW221031  11.019   2.260  11.599 -0.2280  0.1269 -0.7214
 3018SOL     OW21032   0.054  12.833   9.707  0.2749 -0.0953 -0.0305
 3018SOL    HW121033   0.041  12.912   9.654  0.6711 -0.6817 -1.0338
 3018SOL    HW221034   0.041  12.863   9.797  0.8582  1.2232 -0.3448
 3019SOL     OW21035   5.126   1.939   8.360 -0.3642 -0.5718  0.1862
 3019SOL    HW121036   5.183   2.016   8.365  0.1534 -0.9993  1.2076
 3019SOL    HW221037   5.152   1.886   8.435 -1.5610 -1.1675  0.1915
 3020SOL     OW21038   6.572   6.524   3.989 -0.4322 -0.6775  0.0430
 3020SOL    HW121039   6.560   6.540   4.083  2.2020  1.3717  0.1305
 3020SOL    HW221040   6.636   6.452   3.985 -0.1440 -0.4101 -0.1687
 3021SOL     OW21041   8.007   3.139   4.317 -0.5251 -0.0575  0.4236
 3021SOL    HW121042   7.954   3.143   4.238 -1.5457 -2.1572  0.9274
 3021SOL    HW221043   8.081   3.084   4.293 -1.1949 -1.2792  1.0769
 3022SOL     OW21044   3.136   2.355   9.793  0.2897  0.4986  0.2241
 3022SOL    HW121045   3.069   2.304   9.840 -0.4647  0.1341 -1.1925
 3022SOL    HW221046   3.216   2.342   9.845 -0.4160 -0.2093  1.1820
 3023SOL     OW21047   1.500  11.450   1.422  0.6653 -0.0463  0.3600
 3023SOL    HW121048   1.522  11.504   1.346 -0.3044 -0.4590 -0.2382
 3023SOL    HW221049   1.481  11.514   1.491  0.5900  0.3654 -0.0308
 3024SOL     OW21050   5.613   8.105   1.382  0.0791  0.1155  0.4181
 3024SOL    HW121051   5.647   8.100   1.472 -0.2915 -0.8348  0.5161
 3024SOL    HW221052   5.566   8.022   1.370 -2.3182  1.4150  0.3229
 3025SOL     OW21053   6.786  12.908   0.031 -0.0183 -0.3451  0.0997
 3025SOL    HW121054   6.831  12.860   0.101 -0.3010  1.4854  1.6041
 3025SOL    HW221055   6.816  12.865  -0.049  2.5940 -0.7191  1.1548
 3026SOL     OW21056   5.864   8.592  13.234  0.6503  0.4235  0.2300
 3026SOL    HW121057   5.923   8.517  13.229  0.0700  0.0057 -0.7982
 3026SOL    HW221058   5.844   8.612  13.142  1.0602  2.0617  0.4613
 3027SOL     OW21059  11.268   8.093  11.030  0.2290  0.5088 -0.6191
 3027SOL    HW121060  11.258   8.069  11.122 -1.1688  3.0715 -0.0349
 3027SOL    HW221061  11.341   8.038  10.999  1.0115 -0.1218  2.0837
 3028SOL     OW21062  12.684   4.369   6.174  0.1001  0.0294 -0.0724
 3028SOL    HW121063  12.769   4.347   6.213 -0.3641 -0.6194  0.6262
 3028SOL    HW221064  12.682   4.320   6.092  0.1926 -0.3779  0.1632
 3029SOL     OW21065   5.454   9.982   1.746  0.1560 -0.1603  0.9180
 3029SOL    HW121066   5.471   9.958   1.655  0.9312  1.0550  0.7257
 3029SOL    HW221067   5.359   9.971   1.756 -0.1082  0.7036 -0.3658
 3030SOL     OW21068   0.384   5.889   4.645 -0.0091 -0.4282 -0.5485
 3030SOL    HW121069   0.352   5.820   4.703 -3.2076  0.7301 -0.7327
 3030SOL    HW221070   0.343   5.871   4.561  1.2630  0.2494 -1.3490
 3031SOL     OW21071  13.179   9.791   9.963 -0.2869 -0.2269  0.3338
 3031SOL    HW121072  13.176   9.866   9.904 -0.3443 -0.4778  0.0199
 3031SOL    HW221073  13.125   9.817  10.038  1.4972  0.9569  1.2944
 3032SOL     OW21074  13.101   0.256   0.620 -0.0774  0.0585  0.1781
 3032SOL    HW121075  13.104   0.160   0.622 -0.8609  0.0100 -0.2260
 3032SOL    HW221076  13.184   0.284   0.657 -0.5063 -0.7713  1.9030
 3033SOL     OW21077  13.394   6.286   3.439 -0.4077 -0.3696  0.0721
 3033SOL    HW121078  13.355   6.371   3.422  2.2895  0.9639  0.0760
 3033SOL    HW221079  13.439   6.296   3.523 -0.5845 -2.0558  0.4226
 3034SOL     OW21080   8.625   0.911   9.741  0.1545  0.3749 -0.1162
 3034SOL    HW121081   8.594   0.939   9.827 -0.3633  0.6803 -0.3948
 3034SOL    HW221082   8.712   0.876   9.757 -0.5563 -1.0841  0.7918
 3035SOL     OW21083   9.358  13.927   9.145 -0.0144  0.0758 -0.0535
 3035SOL    HW121084   9.355  14.022   9.143  0.5455  0.1122  0.4170
 3035SOL    HW221085   9.292  13.903   9.210 -0.7475  0.0956 -0.7821
 3036SOL     OW21086   8.711   8.336   8.797  0.3767 -0.2040  0.1373
 3036SOL    HW121087   8.695   8.308   8.887 -0.4793 -1.5304 -0.4099
 3036SOL    HW221088   8.660   8.276   8.743  0.6226  0.7671 -1.2282
 3037SOL     OW21089   7.651   2.109  11.107 -0.4095 -0.2751  0.1428
 3037SOL    HW121090   7.729   2.071  11.147 -0.5396  0.2878  0.9682
 3037SOL    HW221091   7.608   2.157  11.178 -3.5872 -3.5895  0.7873
 3038SOL     OW21092   0.001  12.535   3.846  0.4210 -0.5866  0.4229
 3038SOL    HW121093   0.025  12.622   3.812 -3.5013  1.5837  2.5145
 3038SOL    HW221094  -0.070  12.506   3.788  0.6090 -1.6300  0.7067
 3039SOL     OW21095   4.832   6.053   1.018  0.1932 -0.2158 -0.2392
 3039SOL    HW121096   4.920   6.028   1.046 -1.0204 -3.0689  1.4123
 3039SOL    HW221097   4.810   6.129   1.073  1.0612 -0.4137  0.3974
 3040SOL     OW21098   1.564   3.105   3.967  0.1174  0.4142 -0.2458
 3040SOL    HW121099   1.567   3.177   3.906  0.8705  0.5999 -0.0033
 3040SOL    HW221100   1.587   3.028   3.915  1.3585  0.6588 -0.0887
 3041SOL     OW21101  12.819  14.021  13.211 -0.0927  0.4540  0.3010
 3041SOL    HW121102  12.888  14.038  13.147  0.5197  2.8132  1.4716
 3041SOL    HW221103  12.845  13.938  13.252  2.4522  1.5208  1.0988
 3042SOL     OW21104   3.579   0.083  10.573 -0.5114  0.1622  0.0252
 3042SOL    HW121105   3.630   0.040  10.642  0.3714  1.1613  0.0349
 3042SOL    HW221106   3.498   0.032  10.566 -0.6363  0.0683  1.8243
 3043SOL     OW21107   2.789  10.554   1.040 -0.3141 -0.5682 -0.0667
 3043SOL    HW121108   2.744  10.617   1.097  0.6139 -1.4980  1.7795
 3043SOL    HW221109   2.729  10.543   0.965 -0.1565  3.0643 -0.9244
 3044SOL     OW21110   6.753  11.073  12.908 -0.3686  0.5452 -0.4545
 3044SOL    HW121111   6.800  11.156  12.913  0.9566 -0.1145 -1.5524
 3044SOL    HW221112   6.769  11.041  12.819  0.3538 -1.5721  0.3680
 3045SOL     OW21113   8.036   3.507   3.829 -0.8732 -0.1499 -0.3489
 3045SOL    HW121114   8.031   3.480   3.737  1.0112  0.7703 -0.7778
 3045SOL    HW221115   8.062   3.427   3.875  0.1809 -0.1776 -0.9467
 3046SOL     OW21116  12.197   2.905  10.597  0.3532  0.3273 -0.2884
 3046SOL    HW121117  12.253   2.831  10.579  0.2598  0.1765  0.0327
 3046SOL    HW221118  12.112   2.882  10.558 -0.1898 -0.5043  1.3016
 3047SOL     OW21119  13.505   8.117   5.619  0.3974  0.0769  0.0530
 3047SOL    HW121120  13.506   8.203   5.661  0.1075 -0.2700  0.7957
 3047SOL    HW221121  13.412   8.102   5.599  0.0411 -1.1076  2.2041
 3048SOL     OW21122  13.778   5.123  13.907  0.3463 -0.2757  0.0450
 3048SOL    HW121123  13.754   5.040  13.950 -0.6229  0.2243  0.5070
 3048SOL    HW221124  13.757   5.190  13.972 -0.7970  0.4684 -1.0610
 3049SOL     OW21125   3.410   4.732   3.832  0.5523 -0.7415 -0.3016
 3049SOL    HW121126   3.359   4.701   3.758  0.4817  1.2638 -1.1504
 3049SOL    HW221127   3.379   4.679   3.906 -1.3297 -0.9264 -1.1715
 3050SOL     OW21128   3.115   3.132   9.449 -0.3670 -0.3122  0.1600
 3050SOL    HW121129   3.123   3.091   9.363  1.0964 -1.1729  0.6694
 3050SOL    HW221130   3.024   3.116   9.475 -0.9366  0.2734 -1.3534
 3051SOL     OW21131  10.218  10.878   2.557 -0.3649 -0.0498  0.0510
 3051SOL    HW121132  10.125  10.853   2.554 -0.3410 -0.1097 -0.2611
 3051SOL    HW221133  10.220  10.965   2.518 -0.4759  0.5461  1.3138
 3052SOL     OW21134   8.881  12.666   0.885 -0.5321 -0.2557  0.3736
 3052SOL    HW121135   8.823  12.742   0.880  0.8541  0.9524  1.4930
 3052SOL    HW221136   8.845  12.613   0.957  0.0435  0.7785  1.4483
 3053SOL     OW21137   4.092  11.345  12.868  0.2706  0.4566 -0.0817
 3053SOL    HW121138   4.163  11.285  12.887 -0.6100 -1.8172 -3.1822
 3053SOL    HW221139   4.019  11.315  12.923  0.1439 -0.7258 -0.8610
 3054SOL     OW21140   3.224   2.389  11.714 -0.4956 -0.4591 -0.0717
 3054SOL    HW121141   3.315   2.384  11.743 -0.3552  0.0777 -0.3966
 3054SOL    HW221142   3.180   2.315  11.757  0.1784 -0.9629 -0.2368
 3055SOL     OW21143  12.192   5.804   6.284 -0.3790 -0.1529 -0.2649
 3055SOL    HW121144  12.193   5.891   6.324 -1.0794  0.4568 -1.5286
 3055SOL    HW221145  12.277   5.767   6.305 -0.1997  0.6985  0.5812
 3056SOL     OW21146   1.423  10.987   4.966  0.3446 -0.3597  0.8662
 3056SOL    HW121147   1.346  10.974   5.021 -0.7279 -1.4730 -0.8016
 3056SOL    HW221148   1.408  11.071   4.923 -0.1406 -0.7263  0.2942
 3057SOL     OW21149   4.818   8.054   4.452  0.7176 -0.2714 -0.2508
 3057SOL    HW121150   4.769   8.117   4.504  1.1535 -0.9700  1.0359
 3057SOL    HW221151   4.808   7.971   4.499  0.5078 -1.0893 -1.6764
 3058SOL     OW21152  12.660  13.105  12.234 -0.2814  0.2524  0.2075
 3058SOL    HW121153  12.655  13.017  12.272 -2.0665  0.2793  0.1119
 3058SOL    HW221154  12.601  13.102  12.159  0.2041  1.3227 -0.2251
 3059SOL     OW21155   0.044   8.341  10.685  0.1177 -0.0496 -0.1947
 3059SOL    HW121156  -0.052   8.347  10.685  0.1073  0.0742  1.1669
 3059SOL    HW221157   0.074   8.426  10.653 -0.2296  0.0453 -0.2673
 3060SOL     OW21158   5.630   4.013  12.769 -0.1884 -0.1240  0.5502
 3060SOL    HW121159   5.694   4.045  12.833  0.3015  1.3213 -0.5996
 3060SOL    HW221160   5.636   4.075  12.696 -1.2232 -1.3187 -0.6073
 3061SOL     OW21161   3.848   2.195   5.173  0.8413 -0.2147 -0.0545
 3061SOL    HW121162   3.880   2.147   5.250  0.8419  2.3532  1.6847
 3061SOL    HW221163   3.922   2.193   5.112  1.9819  0.1721  1.2577
 3062SOL     OW21164   6.945  12.870  12.851  0.3829  0.0142  0.7066
 3062SOL    HW121165   7.032  12.858  12.815 -0.1913 -1.6222 -0.2576
 3062SOL    HW221166   6.945  12.960  12.885  1.4800  1.1323 -1.9842
 3063SOL     OW21167   9.767  13.449   3.694  0.5694  1.0523  0.0328
 3063SOL    HW121168   9.741  13.413   3.609  1.4215  1.3527 -0.3580
 3063SOL    HW221169   9.687  13.444   3.747 -0.0741  1.2387 -0.9018
 3064SOL     OW21170  11.992   1.835  12.788  0.0708 -0.0260  0.0981
 3064SOL    HW121171  11.905   1.838  12.748 -0.0040  1.3060  0.3100
 3064SOL    HW221172  12.007   1.742  12.806 -0.1933 -0.6087 -2.3129
 3065SOL     OW21173   0.121  12.065   3.496 -0.3275 -0.4884 -0.2784
 3065SOL    HW121174   0.117  12.116   3.577 -0.7515 -0.7055 -0.1617
 3065SOL    HW221175   0.040  12.015   3.494 -0.3593 -0.4296 -0.8771
 3066SOL     OW21176   7.464  13.326   8.475 -0.2232 -0.4482 -0.4318
 3066SOL    HW121177   7.499  13.273   8.403  0.6407 -1.4672  0.6794
 3066SOL    HW221178   7.535  13.385   8.498 -1.1852  1.2709 -1.6590
 3067SOL     OW21179   3.415   9.336   7.902 -0.2888 -0.8241 -0.0464
 3067SOL    HW121180   3.325   9.322   7.931  0.4048 -1.6160  1.9281
 3067SOL    HW221181   3.414   9.424   7.863 -1.5337  0.0151  1.7165
 3068SOL     OW21182  10.507  10.006  12.548 -0.7081 -0.5874  0.1288
 3068SOL    HW121183  10.556   9.979  12.470 -1.5925  0.4608 -0.8137
 3068SOL    HW221184  10.570   9.994  12.620  0.9215  0.5800 -1.0134
 3069SOL     OW21185  12.077   4.523  12.277 -0.0698 -0.1010 -0.3689
 3069SOL    HW121186  12.007   4.458  12.273 -0.7650  0.6107 -0.1572
 3069SOL    HW221187  12.049   4.592  12.217  0.8220 -0.1522 -0.8565
 3070SOL     OW21188   3.428  10.210  13.789 -0.4581  0.6712  0.0149
 3070SOL    HW121189   3.359  10.270  13.818 -0.2269  0.8047  0.2966
 3070SOL    HW221190   3.384  10.150  13.729 -0.4703  1.7592 -1.0969
 3071SOL     OW21191   7.023   9.131  12.178  0.3362 -0.7326  0.4798
 3071SOL    HW121192   7.018   9.201  12.113 -0.0233 -0.2153  1.0488
 3071SOL    HW221193   6.949   9.148  12.237 -1.6793 -3.3565 -1.0777
 3072SOL     OW21194   1.103   2.496   8.913  0.1124  0.2671  0.3296
 3072SOL    HW121195   1.092   2.583   8.876 -0.3419  0.6526  1.3214
 3072SOL    HW221196   1.046   2.496   8.990  1.4996 -0.2525  1.4054
 3073SOL     OW21197   8.171   2.623   4.422  0.1073  0.3361  0.1068
 3073SOL    HW121198   8.143   2.546   4.471  2.8599 -0.5865  0.4469
 3073SOL    HW221199   8.164   2.695   4.484 -0.1151 -0.1235  0.6207
 3074SOL     OW21200   2.667  13.000  13.015  0.0913 -0.4670 -0.5101
 3074SOL    HW121201   2.594  12.939  13.024  0.7555 -1.3854 -1.1818
 3074SOL    HW221202   2.745  12.945  13.021  0.6952  0.0418 -2.8062
 3075SOL     OW21203  10.068  12.396   5.069 -0.5868  0.3482 -0.3761
 3075SOL    HW121204  10.120  12.357   5.138 -0.0617 -1.5914 -1.7936
 3075SOL    HW221205  10.084  12.490   5.077  1.5552 -0.0362  0.4791
 3076SOL     OW21206   0.332   2.902   7.472  0.4358 -0.2163 -0.4582
 3076SOL    HW121207   0.280   2.826   7.498  0.3245  0.1483  0.4012
 3076SOL    HW221208   0.301   2.973   7.528  0.6379  0.4328 -1.1570
 3077SOL     OW21209  12.977  12.322  10.573 -0.7053  0.1770  0.6974
 3077SOL    HW121210  13.038  12.395  10.560 -2.5219  1.2866 -2.6277
 3077SOL    HW221211  13.032  12.244  10.564  0.5337  1.1370 -0.5509
 3078SOL     OW21212   6.536   4.114   2.811  0.1247 -0.0091 -0.3267
 3078SOL    HW121213   6.584   4.091   2.731 -2.9049  0.1693 -2.3672
 3078SOL    HW221214   6.475   4.041   2.824  0.2324  0.1893  1.6115
 3079SOL     OW21215  13.360  12.185   6.261  0.1660  0.2237 -0.7383
 3079SOL    HW121216  13.413  12.242   6.317 -1.7555  2.6819 -1.2416
 3079SOL    HW221217  13.406  12.184   6.177  1.4719 -1.0345 -0.0590
 3080SOL     OW21218   3.051  11.493   1.453  0.2945 -0.2929  0.0179
 3080SOL    HW121219   3.075  11.569   1.398  0.0380  0.1402  0.4954
 3080SOL    HW221220   3.124  11.484   1.514 -0.2415  0.3454  0.7630
 3081SOL     OW21221   1.383   4.160   2.043 -0.0925 -0.3418 -0.6000
 3081SOL    HW121222   1.408   4.252   2.058  0.9372 -0.8554  1.0717
 3081SOL    HW221223   1.453   4.109   2.084 -1.0752 -1.8835 -0.7685
 3082SOL     OW21224   1.547   0.707   3.733 -0.0224 -0.5890 -0.2145
 3082SOL    HW121225   1.577   0.637   3.674  1.8266  0.0204 -0.0759
 3082SOL    HW221226   1.606   0.701   3.808 -1.9268 -0.9220  1.3143
 3083SOL     OW21227  10.900  11.179   9.000 -0.5480  0.5426 -0.9051
 3083SOL    HW121228  10.880  11.228   8.920 -1.6116  0.9625 -0.3970
 3083SOL    HW221229  10.908  11.088   8.970  0.2597  0.8382 -1.6627
 3084SOL     OW21230   2.818  11.424   4.291  0.3200  0.3052  0.3043
 3084SOL    HW121231   2.908  11.441   4.264  0.7651  1.1610  2.2190
 3084SOL    HW221232   2.782  11.511   4.309 -1.2663  0.0825 -1.4361
 3085SOL     OW21233   5.476   1.509  12.475  0.2523  0.6925  0.2770
 3085SOL    HW121234   5.453   1.517  12.383  1.8708  2.3160 -0.0421
 3085SOL    HW221235   5.480   1.415  12.491 -0.6926  0.3843 -1.1178
 3086SOL     OW21236  11.974   4.479  11.957 -0.6628  0.0371 -0.3375
 3086SOL    HW121237  11.923   4.442  12.029  0.3783 -0.1698  0.3285
 3086SOL    HW221238  11.936   4.440  11.878 -0.7729 -1.0458  0.2244
 3087SOL     OW21239   6.233  12.348  12.914 -0.7514 -0.3614 -0.1384
 3087SOL    HW121240   6.295  12.406  12.958 -0.0918 -0.8965 -0.3506
 3087SOL    HW221241   6.174  12.407  12.867  0.9457  0.1410 -1.7481
 3088SOL     OW21242  11.420   3.737   4.572  0.8294  0.3035  0.3183
 3088SOL    HW121243  11.511   3.745   4.542  0.9964 -1.5535  0.2265
 3088SOL    HW221244  11.422   3.769   4.662  2.3217 -2.6358  1.4568
 3089SOL     OW21245   1.097   8.226   2.208  0.0235  0.0120 -0.0361
 3089SOL    HW121246   1.091   8.258   2.298 -0.4602  1.5080 -0.5545
 3089SOL    HW221247   1.012   8.249   2.169 -1.0186 -3.4137 -0.0542
 3090SOL     OW21248  10.679   6.870   2.402 -0.2346 -0.4222  0.4450
 3090SOL    HW121249  10.658   6.827   2.319  0.8949  0.6872 -0.4641
 3090SOL    HW221250  10.693   6.962   2.378  0.1726 -0.0901  1.8606
 3091SOL     OW21251   5.394   9.622  11.059  0.0977  0.1585  0.0924
 3091SOL    HW121252   5.446   9.651  10.984  0.4141  0.0262  0.2572
 3091SOL    HW221253   5.432   9.538  11.083  0.3385  0.4431  0.7271
 3092SOL     OW21254   7.827   4.629   5.384  0.1276  0.9158  0.3510
 3092SOL    HW121255   7.896   4.657   5.443  1.2144  0.7753 -0.8128
 3092SOL    HW221256   7.872   4.578   5.317 -1.0232  1.2785 -0.7368
 3093SOL     OW21257   6.313   3.716  12.507  0.4300  0.0651  0.4576
 3093SOL    HW121258   6.281   3.671  12.585  1.2826 -0.4227  0.5284
 3093SOL    HW221259   6.353   3.796  12.541 -0.0873  0.3433  0.4260
 3094SOL     OW21260  10.615   7.662   9.223  0.0339 -0.3611  0.2132
 3094SOL    HW121261  10.545   7.613   9.267 -0.4429 -0.1154 -0.2708
 3094SOL    HW221262  10.571   7.711   9.154  0.7184 -0.3816 -0.2453
 3095SOL     OW21263   5.564   0.233   7.117 -0.4554  0.2658 -0.2694
 3095SOL    HW121264   5.512   0.313   7.113 -1.8122 -0.5888 -0.9032
 3095SOL    HW221265   5.638   0.254   7.174 -1.4351  1.5890  0.5712
 3096SOL     OW21266  12.817  12.881   9.715  0.0784 -0.5001 -0.6220
 3096SOL    HW121267  12.741  12.928   9.680  1.0864  0.2196 -1.9469
 3096SOL    HW221268  12.810  12.892   9.810 -1.2665 -0.1349 -0.7416
 3097SOL     OW21269   0.976   1.096   2.164 -0.3337 -0.0604 -0.3467
 3097SOL    HW121270   0.992   1.111   2.257 -0.2797  1.2150 -0.5374
 3097SOL    HW221271   0.950   1.182   2.130 -0.7067 -0.5842 -1.4380
 3098SOL     OW21272  13.939  12.024   9.648  0.4422 -0.1450  0.2365
 3098SOL    HW121273  13.923  12.013   9.742  0.1347  1.5598  0.4120
 3098SOL    HW221274  13.859  11.990   9.607 -0.5680  1.5026  0.7484
 3099SOL     OW21275   1.260   2.174   3.048 -0.1799  0.4865 -0.0502
 3099SOL    HW121276   1.309   2.093   3.059  1.2506  0.9834 -2.0849
 3099SOL    HW221277   1.327   2.241   3.032 -1.4066  1.5592 -0.9943
 3100SOL     OW21278   6.511   6.958   7.608 -0.9313  0.1261 -0.1992
 3100SOL    HW121279   6.496   6.890   7.673  0.7998  0.0084  0.1401
 3100SOL    HW221280   6.519   7.039   7.659 -1.3225  0.3182 -0.4386
 3101SOL     OW21281  10.916  12.622   8.749  0.0185  0.6332  0.7705
 3101SOL    HW121282  10.828  12.587   8.759  0.2968 -0.0852  0.7458
 3101SOL    HW221283  10.948  12.584   8.668  0.8566 -0.2230  1.4744
 3102SOL     OW21284   1.000  11.854  13.676  0.1481 -0.5123 -0.1933
 3102SOL    HW121285   1.094  11.862  13.665  0.2737  0.2362  1.1771
 3102SOL    HW221286   0.967  11.944  13.665 -0.4636 -0.8213 -1.0182
 3103SOL     OW21287   1.476   9.034   2.451  0.6047  0.1858  0.1457
 3103SOL    HW121288   1.437   9.099   2.391  1.1870  1.5400  1.1861
 3103SOL    HW221289   1.405   9.014   2.512  0.9627  1.3317  0.9799
 3104SOL     OW21290   7.148  11.988  13.792  0.1350  0.0087 -0.2802
 3104SOL    HW121291   7.206  11.979  13.867 -0.3545 -1.9535 -0.0914
 3104SOL    HW221292   7.205  11.979  13.716  0.4904  1.0700 -0.1570
 3105SOL     OW21293   5.202   7.669   3.379 -0.0305  0.4729  0.2584
 3105SOL    HW121294   5.192   7.648   3.472  1.2630 -0.1621  0.2748
 3105SOL    HW221295   5.113   7.691   3.350 -0.8158 -1.2075  1.2030
 3106SOL     OW21296   2.531   7.528   6.499  0.1982 -0.2735  0.0585
 3106SOL    HW121297   2.553   7.574   6.579  0.3277  0.2339 -0.2678
 3106SOL    HW221298   2.460   7.469   6.524 -0.0614  0.1998  0.4445
 3107SOL     OW21299  11.518   7.701   8.693  0.2303 -0.5058  0.1262
 3107SOL    HW121300  11.466   7.780   8.707  0.8722  0.1672 -1.1987
 3107SOL    HW221301  11.475   7.656   8.620  0.2945 -1.0241  0.3962
 3108SOL     OW21302   3.789  10.677  10.075 -0.0633 -0.2880  0.2916
 3108SOL    HW121303   3.737  10.693   9.996  0.0354 -1.5604 -0.0525
 3108SOL    HW221304   3.773  10.754  10.130 -0.2810  0.5362 -0.8789
 3109SOL     OW21305   5.753   4.056  13.555 -0.3138 -0.6648 -0.5145
 3109SOL    HW121306   5.691   4.053  13.628 -0.5275 -1.9559 -0.7228
 3109SOL    HW221307   5.707   4.015  13.482 -0.2443  0.9458 -1.5214
 3110SOL     OW21308  13.011   1.921   7.849 -0.2561  0.1649  0.4623
 3110SOL    HW121309  12.966   1.870   7.917 -1.6862  2.4596  1.3347
 3110SOL    HW221310  12.975   1.886   7.767 -2.4124  0.7353  1.0870
 3111SOL     OW21311  12.778  12.560  12.337  0.2235 -0.3866  0.6091
 3111SOL    HW121312  12.870  12.534  12.326 -0.6076 -2.9647 -0.9605
 3111SOL    HW221313  12.733  12.479  12.360 -2.1009  0.2163 -1.4797
 3112SOL     OW21314  13.779   4.470   8.305 -0.2464  0.5243 -0.2190
 3112SOL    HW121315  13.692   4.507   8.321 -0.6944 -0.8445  0.7536
 3112SOL    HW221316  13.798   4.491   8.213 -1.4643  1.1047 -0.3576
 3113SOL     OW21317  13.931   3.434  11.977  0.4097  0.2072  0.1127
 3113SOL    HW121318  13.988   3.509  11.962 -0.7494  1.0300 -0.2730
 3113SOL    HW221319  13.991   3.363  12.001  1.4825  1.4172  1.2023
 3114SOL     OW21320   3.886   7.110   3.478 -0.1921 -0.2917 -0.2580
 3114SOL    HW121321   3.869   7.204   3.483 -2.8573 -0.7488  0.7957
 3114SOL    HW221322   3.863   7.085   3.388 -1.4703 -0.2417  0.0430
 3115SOL     OW21323   9.244  10.035   0.295  0.3547  0.3639  0.1159
 3115SOL    HW121324   9.162   9.987   0.280  0.5292  0.0341  0.2079
 3115SOL    HW221325   9.246  10.101   0.225  0.8959 -0.7975 -1.0049
 3116SOL     OW21326   1.773  13.531  11.853 -0.4364  0.2447  0.7177
 3116SOL    HW121327   1.834  13.601  11.878 -0.5606  0.7712 -0.3804
 3116SOL    HW221328   1.708  13.529  11.923 -0.1516  0.9154  1.0061
 3117SOL     OW21329   0.782   2.410  12.120 -0.0192 -0.6063 -0.0765
 3117SOL    HW121330   0.760   2.317  12.120 -1.1102 -0.4372  2.8240
 3117SOL    HW221331   0.817   2.427  12.207 -0.4146  1.8321 -0.3203
 3118SOL     OW21332   0.712   5.803   2.407  0.2121 -0.5213 -0.0316
 3118SOL    HW121333   0.675   5.890   2.417 -0.1339 -0.5279 -1.1656
 3118SOL    HW221334   0.671   5.768   2.328  1.5058 -1.1057 -0.4706
 3119SOL     OW21335   7.028  12.672  10.143  0.5734  0.5317 -0.2234
 3119SOL    HW121336   6.938  12.704  10.133  0.4262  0.6633  1.2883
 3119SOL    HW221337   7.047  12.628  10.060 -0.6800  0.9881 -0.7833
 3120SOL     OW21338  11.282   0.791  13.998  0.0052  0.2122  0.2108
 3120SOL    HW121339  11.376   0.774  13.996 -0.3828 -2.4583 -2.4685
 3120SOL    HW221340  11.270   0.866  13.940  0.4022 -0.1671 -0.3730
 3121SOL     OW21341  10.381   8.334   4.786  0.4136  0.1857  0.4617
 3121SOL    HW121342  10.466   8.350   4.827 -0.0071  1.6163  0.8388
 3121SOL    HW221343  10.329   8.290   4.854  0.6177  0.0018  0.4972
 3122SOL     OW21344   5.169   0.365   5.969 -0.1708 -0.4906  0.6430
 3122SOL    HW121345   5.173   0.435   5.903  0.1329 -1.1891 -0.1004
 3122SOL    HW221346   5.108   0.301   5.932 -1.4387 -0.0603  1.8955
 3123SOL     OW21347   3.747   3.512   6.257 -0.2618  0.5751 -0.2852
 3123SOL    HW121348   3.779   3.567   6.186 -0.8827  0.1120 -0.9261
 3123SOL    HW221349   3.684   3.453   6.216 -0.9318  0.5737  0.7161
 3124SOL     OW21350   4.564   4.358   0.979  0.5495  0.1114 -0.2800
 3124SOL    HW121351   4.483   4.362   0.927 -0.0913 -0.1524  0.6682
 3124SOL    HW221352   4.579   4.448   1.006 -0.3189 -0.0588  0.8433
 3125SOL     OW21353   2.973   4.611  13.837  0.6391 -0.2327  0.4587
 3125SOL    HW121354   2.916   4.542  13.872 -0.2529  0.6547  0.7722
 3125SOL    HW221355   2.992   4.667  13.912  2.5603 -0.9145  0.5318
 3126SOL     OW21356   0.215   0.757   8.862 -0.0373  0.2599  0.1554
 3126SOL    HW121357   0.214   0.735   8.955 -0.5907  2.6735  0.7860
 3126SOL    HW221358   0.300   0.798   8.848  0.4326 -0.9435 -0.6553
 3127SOL     OW21359   4.184  13.455  12.887 -0.2154 -0.5850  0.5857
 3127SOL    HW121360   4.122  13.508  12.836 -0.5456  1.4367  2.8903
 3127SOL    HW221361   4.138  13.372  12.901 -1.6836  0.2167  0.7404
 3128SOL     OW21362   6.534   1.029   3.912 -0.1749 -0.0207 -0.1719
 3128SOL    HW121363   6.558   0.938   3.932 -1.1323 -0.3079 -0.2889
 3128SOL    HW221364   6.486   1.024   3.829  0.3451  0.6825 -0.5287
 3129SOL     OW21365   4.431   6.609   9.401 -0.7925  0.2156  0.0082
 3129SOL    HW121366   4.511   6.562   9.380 -1.1984 -0.8418  0.7374
 3129SOL    HW221367   4.453   6.702   9.389  0.5492 -0.0560  0.2657
 3130SOL     OW21368   3.609   4.291   4.255  0.2097 -0.3684 -0.2901
 3130SOL    HW121369   3.673   4.358   4.280  0.0545  0.9585 -3.0781
 3130SOL    HW221370   3.644   4.253   4.174 -1.0648 -1.7735 -0.2305
 3131SOL     OW21371   5.197   8.127   3.074 -0.0214 -0.4650 -0.0439
 3131SOL    HW121372   5.145   8.102   2.997 -0.4882  1.3215 -0.3752
 3131SOL    HW221373   5.163   8.072   3.145 -0.9349 -0.7938 -0.7065
 3132SOL     OW21374  12.755   8.297   8.196  0.2481 -0.1260  0.4060
 3132SOL    HW121375  12.773   8.221   8.252 -0.5004 -0.4219  0.2559
 3132SOL    HW221376  12.687   8.267   8.135 -0.1039  0.6820  0.3868
 3133SOL     OW21377   2.194   4.482   4.511 -0.6401 -0.2097 -0.3002
 3133SOL    HW121378   2.140   4.542   4.460  0.4738 -0.2132 -1.5254
 3133SOL    HW221379   2.255   4.540   4.558 -1.0707 -0.2660  0.3515
 3134SOL     OW21380  11.894   3.770  12.637 -0.4411  0.0261 -0.0250
 3134SOL    HW121381  11.802   3.794  12.632 -0.1013  1.8328  1.2043
 3134SOL    HW221382  11.933   3.809  12.559 -0.1587  2.4164  1.2216
 3135SOL     OW21383  13.617  10.670   3.645  0.3013  0.1426  0.2805
 3135SOL    HW121384  13.529  10.686   3.611  0.2944 -0.7117 -0.1445
 3135SOL    HW221385  13.655  10.608   3.583 -0.3161 -2.8598  2.6213
 3136SOL     OW21386  13.209   4.061  13.135  0.5469  0.3172  0.2420
 3136SOL    HW121387  13.208   4.030  13.226 -1.8405  0.9748  0.5090
 3136SOL    HW221388  13.210   3.981  13.083 -0.2886 -0.1350  0.8876
 3137SOL     OW21389   5.320   2.137   5.109  0.0053 -0.1299  0.0871
 3137SOL    HW121390   5.383   2.136   5.181 -1.4654  0.0227  1.4348
 3137SOL    HW221391   5.374   2.143   5.030  1.6212  1.4266  1.2242
 3138SOL     OW21392  10.088   7.886   9.485  0.2420  0.0041 -0.9277
 3138SOL    HW121393  10.078   7.968   9.438  0.8844  0.6915  0.0863
 3138SOL    HW221394  10.176   7.855   9.462  0.7287  0.5567  0.0898
 3139SOL     OW21395  11.744   5.942   8.074  0.7181 -0.1081  0.5855
 3139SOL    HW121396  11.727   5.877   8.141  0.4862  1.6812  2.3564
 3139SOL    HW221397  11.839   5.956   8.078  0.8057 -0.5222  0.0195
 3140SOL     OW21398  13.647   6.047   9.434  0.2692  0.7240 -0.2250
 3140SOL    HW121399  13.613   6.041   9.345 -0.4764  2.3597 -0.0809
 3140SOL    HW221400  13.593   5.987   9.485  0.6628 -0.1749 -0.8528
 3141SOL     OW21401   7.137   6.292   6.955  0.1804  0.1603  0.0150
 3141SOL    HW121402   7.175   6.217   6.909  0.4716 -0.3954  1.1182
 3141SOL    HW221403   7.128   6.262   7.046 -1.0124  0.9885  0.1891
 3142SOL     OW21404  12.002   1.969   5.556  0.2270  0.1543 -0.1587
 3142SOL    HW121405  12.023   2.043   5.614  3.2820 -0.1144 -0.7563
 3142SOL    HW221406  11.984   1.897   5.616  1.5159  0.3400  0.5006
 3143SOL     OW21407   2.800   6.523   3.563  0.1171 -0.5686 -0.1753
 3143SOL    HW121408   2.848   6.542   3.483 -0.4987  0.3478 -0.3430
 3143SOL    HW221409   2.825   6.593   3.623 -1.2031  0.0892 -0.3601
 3144SOL     OW21410   5.533   9.584   4.184  0.1810 -0.0611  0.1446
 3144SOL    HW121411   5.590   9.659   4.201 -0.1033  0.1148  0.3279
 3144SOL    HW221412   5.445   9.619   4.194  0.0458 -0.3896  0.0917
 3145SOL     OW21413  13.912   4.472   3.219  0.7619 -0.2619  0.2707
 3145SOL    HW121414  13.954   4.557   3.233 -0.3147  0.3659 -0.1787
 3145SOL    HW221415  13.851   4.464   3.293  0.2831 -0.2700 -0.1230
 3146SOL     OW21416   7.016   8.211  13.510  0.0877 -0.2382  0.0633
 3146SOL    HW121417   7.003   8.121  13.478  0.1907  0.0415 -0.7860
 3146SOL    HW221418   7.110   8.217  13.525  0.0105 -0.4372  0.6202
 3147SOL     OW21419   9.823  12.575   9.194 -0.0056 -0.0415  0.2501
 3147SOL    HW121420   9.859  12.653   9.151 -0.3616  0.4181  0.7630
 3147SOL    HW221421   9.891  12.549   9.257 -0.0569  0.1075  0.3692
 3148SOL     OW21422  13.240  13.248   6.291  0.4490 -0.1051 -0.2334
 3148SOL    HW121423  13.324  13.214   6.320  1.0226  1.1791 -0.3182
 3148SOL    HW221424  13.175  13.188   6.329  1.3553 -0.6101  0.5603
 3149SOL     OW21425   3.297   1.949   1.366  0.1926 -0.7059  0.1657
 3149SOL    HW121426   3.333   1.870   1.325  2.8916  0.3601  0.3288
 3149SOL    HW221427   3.326   1.945   1.457 -0.3892  0.0651  0.3993
 3150SOL     OW21428  13.298  10.485   9.280 -0.2441  0.4714 -0.0962
 3150SOL    HW121429  13.378  10.525   9.313  0.9439 -0.8468 -1.2417
 3150SOL    HW221430  13.310  10.482   9.185 -0.5243 -1.9978 -0.1094
 3151SOL     OW21431  10.266   8.854   8.721  0.0647 -0.0289 -0.7413
 3151SOL    HW121432  10.230   8.932   8.764  0.3369  0.0133 -0.5911
 3151SOL    HW221433  10.258   8.785   8.787  2.5913  0.5242  0.2594
 3152SOL     OW21434   3.532   9.031  12.851  0.1030  0.3652 -0.4961
 3152SOL    HW121435   3.495   9.119  12.856  1.9548  1.1649 -0.3663
 3152SOL    HW221436   3.458   8.973  12.870 -1.1606  1.8730 -0.6535
 3153SOL     OW21437   3.378   1.469  12.236  0.3441  0.4694 -0.0729
 3153SOL    HW121438   3.386   1.444  12.144 -1.6304  0.9227 -0.4196
 3153SOL    HW221439   3.373   1.565  12.234 -1.6440  0.4245  0.2479
 3154SOL     OW21440  13.291   1.570   5.211  0.6403 -0.1078 -0.1007
 3154SOL    HW121441  13.352   1.644   5.209 -0.0977  0.5378  0.6252
 3154SOL    HW221442  13.207   1.608   5.186 -0.1938 -0.2243  2.3157
 3155SOL     OW21443  13.475   0.525   0.226  0.0023  0.0722  0.4341
 3155SOL    HW121444  13.436   0.593   0.281 -1.2187  1.5258 -2.0481
 3155SOL    HW221445  13.464   0.444   0.276 -1.8476  1.1731  1.9245
 3156SOL     OW21446  11.207   9.665  11.094  0.1725 -0.2128 -0.3120
 3156SOL    HW121447  11.151   9.588  11.083 -1.8559  0.9454  1.1042
 3156SOL    HW221448  11.155   9.737  11.059  0.1633  1.1193  2.2487
 3157SOL     OW21449   3.185   6.157   2.881  0.0283  0.1053 -0.2356
 3157SOL    HW121450   3.271   6.191   2.857  1.0552 -1.6162  0.8177
 3157SOL    HW221451   3.124   6.207   2.827  1.8332 -0.1793 -2.7388
 3158SOL     OW21452   9.573   7.045   1.735  0.1914 -0.4150 -0.3688
 3158SOL    HW121453   9.603   6.963   1.773  0.7733  0.0719  0.2538
 3158SOL    HW221454   9.499   7.021   1.679  1.3595 -1.5594 -1.4686
 3159SOL     OW21455   7.820   5.378  13.781 -0.1336  0.3654  0.2943
 3159SOL    HW121456   7.908   5.345  13.765  0.1186  1.1574  0.0068
 3159SOL    HW221457   7.779   5.380  13.695 -0.4858 -0.1362  0.4463
 3160SOL     OW21458  13.220  13.583  12.605  0.1120 -0.8809 -1.2265
 3160SOL    HW121459  13.306  13.625  12.615 -0.5215 -0.1655  4.2878
 3160SOL    HW221460  13.224  13.507  12.662 -2.9984 -0.5375 -0.3966
 3161SOL     OW21461   0.580   3.358   5.076 -0.5457 -0.1094  0.1819
 3161SOL    HW121462   0.560   3.368   4.983 -1.2862 -2.3904  0.0460
 3161SOL    HW221463   0.613   3.269   5.085  2.2729  0.9467  1.6925
 3162SOL     OW21464  12.394   7.567   7.415  0.0240  0.0335 -0.3568
 3162SOL    HW121465  12.472   7.611   7.447  0.4289  0.3026 -1.6411
 3162SOL    HW221466  12.369   7.615   7.336 -2.5021  1.0613  0.9501
 3163SOL     OW21467  10.683   3.083  13.146 -0.2160  0.4864 -0.5006
 3163SOL    HW121468  10.766   3.124  13.122 -1.6807  3.9552 -0.2365
 3163SOL    HW221469  10.691   3.064  13.239  0.1490  1.1862 -0.3887
 3164SOL     OW21470   5.051  12.821   7.849  0.0355 -0.1137 -0.5509
 3164SOL    HW121471   4.982  12.788   7.906 -0.4556  0.5087 -0.7707
 3164SOL    HW221472   5.025  12.793   7.761 -1.2283  2.1166 -0.9665
 3165SOL     OW21473  11.425   8.658   6.332 -0.2516 -0.1564  0.2863
 3165SOL    HW121474  11.353   8.606   6.367 -0.0536  0.1936  1.2415
 3165SOL    HW221475  11.503   8.621   6.372 -0.0874  0.7109  0.7735
 3166SOL     OW21476   7.507   9.689   0.054  0.7270  0.3863  0.3587
 3166SOL    HW121477   7.435   9.748   0.032 -0.2827 -1.7885 -2.8831
 3166SOL    HW221478   7.583   9.727   0.010  0.7541  0.7614  0.7195
 3167SOL     OW21479   7.467   8.625   3.977  0.1045  0.8294  0.1325
 3167SOL    HW121480   7.435   8.613   3.887  0.5743 -0.3549  0.1002
 3167SOL    HW221481   7.451   8.541   4.019  2.5301  0.3657  0.2895
 3168SOL     OW21482   4.781   2.005  11.535  0.4867  0.2754 -0.0045
 3168SOL    HW121483   4.862   1.957  11.515 -0.2422 -0.5616 -1.0809
 3168SOL    HW221484   4.742   1.957  11.608 -0.0277 -0.5672 -0.8033
 3169SOL     OW21485   8.964   7.297   9.326  0.7095  0.2204 -0.1013
 3169SOL    HW121486   9.024   7.222   9.320  0.8026  0.2178  0.7164
 3169SOL    HW221487   8.964   7.320   9.419 -1.7475 -0.7453  0.2157
 3170SOL     OW21488   2.985  13.713   9.053 -0.1970 -0.0417 -0.2552
 3170SOL    HW121489   2.965  13.805   9.072  1.4062 -0.0734  1.8698
 3170SOL    HW221490   3.000  13.712   8.958 -1.4794  1.6205 -0.5328
 3171SOL     OW21491   6.671   3.455  11.905  0.4628  0.3971 -0.7487
 3171SOL    HW121492   6.643   3.364  11.909 -1.3055  0.9518  1.1010
 3171SOL    HW221493   6.598   3.505  11.941  1.4509  2.5521 -1.5303
 3172SOL     OW21494   4.590   9.716  11.107 -0.0474  0.1181  0.0265
 3172SOL    HW121495   4.540   9.718  11.188  0.5232  2.7744  0.4135
 3172SOL    HW221496   4.680   9.701  11.134 -0.1654 -1.4405 -0.3773
 3173SOL     OW21497   6.788  10.702   0.548 -0.0505  0.2546  0.8615
 3173SOL    HW121498   6.815  10.778   0.600 -0.0981  1.2693 -0.5359
 3173SOL    HW221499   6.807  10.627   0.604  0.7309  1.2431  1.9802
 3174SOL     OW21500   0.189  13.241   1.105 -1.2924  0.0646  0.5023
 3174SOL    HW121501   0.138  13.171   1.147 -1.6990  1.5348  2.6561
 3174SOL    HW221502   0.265  13.198   1.069 -1.9268 -1.6028  1.0762
 3175SOL     OW21503   1.106  13.563   8.942 -0.3867  0.2316  0.1501
 3175SOL    HW121504   1.099  13.577   8.847 -0.2943 -0.1317  0.0885
 3175SOL    HW221505   1.198  13.579   8.961 -0.4168  0.3588  0.1870
 3176SOL     OW21506  10.061   9.633   1.663 -0.0083  0.5811 -0.4680
 3176SOL    HW121507  10.074   9.556   1.608 -0.4120  0.4975 -0.4469
 3176SOL    HW221508  10.144   9.681   1.657  0.2709  0.1031 -0.4088
 3177SOL     OW21509   2.677   3.009   4.584  0.2679 -0.5305  0.0524
 3177SOL    HW121510   2.725   3.002   4.501  0.0257 -0.2551 -0.1142
 3177SOL    HW221511   2.637   2.923   4.595 -0.0692 -0.4283 -0.3505
 3178SOL     OW21512  12.725   4.989  13.871 -0.1436 -0.2740 -0.0066
 3178SOL    HW121513  12.676   4.970  13.791 -1.0059  1.9563 -0.0627
 3178SOL    HW221514  12.760   5.077  13.858  3.4330 -1.4663  0.3026
 3179SOL     OW21515  10.610  10.816   9.763 -0.2847 -0.4599 -0.0717
 3179SOL    HW121516  10.583  10.901   9.728 -0.8734 -0.1825  1.0145
 3179SOL    HW221517  10.530  10.764   9.765 -0.2784 -0.4374  0.9458
 3180SOL     OW21518   3.448   1.807   1.809  0.5732 -0.6241 -0.0230
 3180SOL    HW121519   3.522   1.765   1.766  0.2392 -2.6475  1.2546
 3180SOL    HW221520   3.483   1.842   1.890  0.2022 -1.3828  0.4767
 3181SOL     OW21521  12.325  11.042   0.402 -0.2927  0.1905 -0.5159
 3181SOL    HW121522  12.322  11.104   0.330  0.1509  1.2379  0.3389
 3181SOL    HW221523  12.353  10.960   0.363 -0.6604  0.5814 -1.6300
 3182SOL     OW21524   1.524   4.150  13.512  0.7939 -0.3353  0.1929
 3182SOL    HW121525   1.576   4.119  13.586 -1.1937 -0.0457  1.8209
 3182SOL    HW221526   1.570   4.228  13.481  1.9395 -0.7506  0.7887
 3183SOL     OW21527  11.261   6.287  10.776 -0.0417 -0.3240  0.4463
 3183SOL    HW121528  11.194   6.336  10.822  0.1527  0.3793 -0.0071
 3183SOL    HW221529  11.242   6.302  10.683 -1.2171 -2.7488  0.1974
 3184SOL     OW21530  12.090   1.487   9.970 -0.8329  0.3169  0.2637
 3184SOL    HW121531  12.045   1.460  10.050 -0.7661  0.3746  0.3205
 3184SOL    HW221532  12.183   1.482   9.992 -0.8300  1.1119  0.4387
 3185SOL     OW21533  13.855   3.563   9.093 -0.1354 -0.5250 -0.0647
 3185SOL    HW121534  13.868   3.589   9.184  0.8818  1.0406 -0.6036
 3185SOL    HW221535  13.768   3.595   9.070  0.6510  1.5795 -0.3766
 3186SOL     OW21536   3.485   6.851  10.023  0.1635  0.4565 -0.2012
 3186SOL    HW121537   3.391   6.834  10.011  0.5269 -1.4029 -0.6688
 3186SOL    HW221538   3.528   6.773   9.989  1.8503  0.7393  1.1687
 3187SOL     OW21539   7.635   5.956   9.044 -0.1010 -0.1629 -0.3637
 3187SOL    HW121540   7.616   5.895   9.116  0.1515  1.9629  1.6510
 3187SOL    HW221541   7.723   5.931   9.014  0.1322 -0.6133  0.6376
 3188SOL     OW21542   4.633  13.916   6.612  0.3607  0.3347 -0.1336
 3188SOL    HW121543   4.539  13.895   6.609 -0.5193  3.2837  2.0400
 3188SOL    HW221544   4.675  13.835   6.640 -1.6099 -0.8590 -0.4172
 3189SOL     OW21545   1.178  13.151  12.129  0.3119 -0.8927 -0.2151
 3189SOL    HW121546   1.162  13.090  12.200  0.8185 -0.9071 -0.1099
 3189SOL    HW221547   1.253  13.115  12.082  0.6336 -0.3492 -0.1382
 3190SOL     OW21548   2.713   3.615   5.885  0.0854 -0.4798 -0.7005
 3190SOL    HW121549   2.724   3.522   5.905  0.6052 -0.7735 -2.2591
 3190SOL    HW221550   2.801   3.647   5.865 -0.1726  0.2099 -0.7782
 3191SOL     OW21551   6.727   5.912  10.209  0.0868 -0.6547 -0.3547
 3191SOL    HW121552   6.685   5.986  10.252  0.3390 -0.4215 -0.5053
 3191SOL    HW221553   6.785   5.952  10.144 -1.0567 -1.0146 -1.6419
 3192SOL     OW21554  13.879   2.874   2.249 -0.3429 -0.4691  0.2153
 3192SOL    HW121555  13.894   2.780   2.243  0.8550 -0.2878  0.0562
 3192SOL    HW221556  13.962   2.910   2.280 -0.5280  0.6133 -0.4723
 3193SOL     OW21557   9.861  13.729   6.697  0.1018  0.3499  0.0984
 3193SOL    HW121558   9.908  13.756   6.776  1.1179  0.0249 -0.3725
 3193SOL    HW221559   9.922  13.750   6.625 -0.0178 -1.0704 -0.4434
 3194SOL     OW21560   1.667   3.696   2.238  0.1801  0.2994 -0.0069
 3194SOL    HW121561   1.740   3.636   2.222 -0.1970  0.4895 -2.9884
 3194SOL    HW221562   1.589   3.642   2.231 -0.0539  0.4394  1.3356
 3195SOL     OW21563   3.879   8.215  11.930 -0.2185  0.8708  0.4146
 3195SOL    HW121564   3.958   8.162  11.939 -0.8457 -0.0105  0.8709
 3195SOL    HW221565   3.823   8.189  12.003 -1.7897 -0.0327 -1.0253
 3196SOL     OW21566  10.674  14.021  13.554 -0.2394 -0.0805  0.5059
 3196SOL    HW121567  10.642  14.102  13.593 -2.6494 -0.8109  0.2363
 3196SOL    HW221568  10.637  13.951  13.609  3.0188 -1.0581  1.6405
 3197SOL     OW21569   2.228   5.049   8.537  0.2259 -0.2909  0.1795
 3197SOL    HW121570   2.181   5.087   8.611  0.3414 -1.3684  0.8359
 3197SOL    HW221571   2.239   5.121   8.476  1.4664  1.0231  1.8534
 3198SOL     OW21572   5.077   1.558   4.822 -0.4992 -0.2380  0.4531
 3198SOL    HW121573   5.141   1.489   4.840  1.9380  1.4073 -1.3193
 3198SOL    HW221574   5.091   1.622   4.891  1.1165  0.9534 -0.9153
 3199SOL     OW21575   8.042   7.437   1.796  0.0888 -0.2510 -0.3742
 3199SOL    HW121576   8.027   7.430   1.890 -2.4459 -0.2924 -0.6912
 3199SOL    HW221577   7.988   7.368   1.758 -0.6724  1.1242 -1.9457
 3200SOL     OW21578   2.354  12.029   9.907 -0.2576 -0.2402 -0.2175
 3200SOL    HW121579   2.273  12.016   9.956 -0.1946  1.3435  0.3549
 3200SOL    HW221580   2.329  12.019   9.815 -1.5412  2.1084 -0.1795
 3201SOL     OW21581  13.522   8.283   0.663 -0.0787 -0.7101 -0.1747
 3201SOL    HW121582  13.472   8.303   0.742  1.8399  1.6106  0.6031
 3201SOL    HW221583  13.533   8.188   0.664  1.2051 -0.6807  3.3050
 3202SOL     OW21584   0.835  12.947  10.590  0.4050  0.0855  0.4319
 3202SOL    HW121585   0.853  13.007  10.662  0.6014  1.4159 -0.6960
 3202SOL    HW221586   0.904  12.881  10.596  1.5814  1.2657  0.3152
 3203SOL     OW21587  11.295  12.125   1.482  0.2450 -0.6280 -0.2997
 3203SOL    HW121588  11.377  12.075   1.487 -0.0258 -1.0247  0.3872
 3203SOL    HW221589  11.240  12.075   1.422  0.3701 -0.5751 -0.4574
 3204SOL     OW21590   5.320   7.963   8.035 -0.2693  0.1637 -0.6863
 3204SOL    HW121591   5.347   7.959   7.943  0.6064 -1.2919 -0.3914
 3204SOL    HW221592   5.384   7.909   8.081 -1.5129 -0.2712  0.5841
 3205SOL     OW21593   3.219   8.048  10.071 -1.0507  0.1955 -0.1852
 3205SOL    HW121594   3.214   8.053   9.976  0.5669  0.4206 -0.2718
 3205SOL    HW221595   3.178   7.964  10.093  1.1258 -1.2376 -1.3188
 3206SOL     OW21596   4.599   7.624   8.681 -0.4020  0.8565 -0.0468
 3206SOL    HW121597   4.642   7.665   8.757  0.3821  1.6842 -0.9083
 3206SOL    HW221598   4.659   7.641   8.608  0.6145 -2.8831 -0.3027
 3207SOL     OW21599  12.500  12.280   2.153  0.3734 -0.6318 -0.4027
 3207SOL    HW121600  12.550  12.241   2.081 -0.6217 -0.3456 -1.2599
 3207SOL    HW221601  12.423  12.318   2.112 -0.4358 -0.8339  0.8681
 3208SOL     OW21602  12.194   6.352   1.476  0.0566  0.5084 -0.1915
 3208SOL    HW121603  12.113   6.305   1.455  0.0547 -1.0167  2.6841
 3208SOL    HW221604  12.262   6.285   1.475  0.8906  1.3376 -0.3513
 3209SOL     OW21605   0.601   4.521   0.659 -0.2701  0.0277  0.1098
 3209SOL    HW121606   0.634   4.611   0.664  1.6459 -0.6173  0.1020
 3209SOL    HW221607   0.650   4.474   0.726 -1.3665 -0.9910  0.2269
 3210SOL     OW21608  12.488   9.097  13.712 -0.0991 -0.4151  0.3426
 3210SOL    HW121609  12.415   9.040  13.690 -2.0147  1.9374  0.1530
 3210SOL    HW221610  12.519   9.066  13.797 -1.4277 -1.3744  0.5022
 3211SOL     OW21611   2.687   9.999   5.347 -0.4927 -0.2244 -0.0668
 3211SOL    HW121612   2.606   9.950   5.364  0.3011 -3.1878 -3.4111
 3211SOL    HW221613   2.665  10.058   5.275  0.0677 -0.3191 -0.3210
 3212SOL     OW21614   2.686   8.983  12.866 -0.4134 -0.2389 -0.7301
 3212SOL    HW121615   2.690   8.920  12.937  0.2316 -1.3243 -1.6946
 3212SOL    HW221616   2.602   9.028  12.878  0.1015  0.2653  1.2204
 3213SOL     OW21617   3.389   4.236   8.134  0.4819  0.4364 -0.9268
 3213SOL    HW121618   3.391   4.141   8.137  0.4573  0.2146 -4.2741
 3213SOL    HW221619   3.441   4.264   8.209  0.4451 -2.1733  0.1696
 3214SOL     OW21620   3.158  11.157   4.136 -0.0650  0.2394 -0.5528
 3214SOL    HW121621   3.076  11.139   4.092 -2.2537 -1.9515  3.7698
 3214SOL    HW221622   3.141  11.236   4.189  1.5493  1.2561 -1.4552
 3215SOL     OW21623   8.325   0.647   8.821 -0.0612 -0.2063 -0.0560
 3215SOL    HW121624   8.298   0.681   8.907 -1.1943 -2.0383  0.3869
 3215SOL    HW221625   8.417   0.671   8.813 -0.2414  1.0164  1.1469
 3216SOL     OW21626  13.169   7.992   4.801 -0.5650 -0.0268 -0.0978
 3216SOL    HW121627  13.152   7.898   4.814 -0.2497 -0.0037  0.5314
 3216SOL    HW221628  13.084   8.029   4.778 -0.4610 -0.6768 -1.6590
 3217SOL     OW21629   3.652  12.355  12.167  0.5087 -0.0896  0.0255
 3217SOL    HW121630   3.622  12.359  12.076 -1.3424  0.6464  0.6094
 3217SOL    HW221631   3.618  12.436  12.206  0.0047 -1.0755  1.7038
 3218SOL     OW21632  10.046   9.779  10.169  0.6303  0.4572 -0.0784
 3218SOL    HW121633  10.138   9.801  10.182  1.2155 -1.3537 -0.7485
 3218SOL    HW221634  10.027   9.714  10.237 -0.8818  2.4588  1.5599
 3219SOL     OW21635   3.987   5.207   3.616 -0.0510 -0.7400 -0.5280
 3219SOL    HW121636   3.934   5.209   3.536  0.8716 -1.2547 -1.1683
 3219SOL    HW221637   3.991   5.114   3.639  0.2175 -0.6594 -0.2438
 3220SOL     OW21638   6.872  10.879   4.559 -0.3692  0.0561 -0.3445
 3220SOL    HW121639   6.901  10.937   4.488 -0.1882 -2.0340 -2.1080
 3220SOL    HW221640   6.840  10.801   4.514 -1.6215 -0.7944  1.8705
 3221SOL     OW21641   4.094   1.932  10.735 -0.3831  0.2179  0.0153
 3221SOL    HW121642   4.077   1.875  10.661  0.4291  0.2103 -0.1778
 3221SOL    HW221643   4.115   1.872  10.807 -3.0837  0.1175  0.8366
 3222SOL     OW21644   6.309   0.706  12.393 -0.5783 -0.4431 -0.2842
 3222SOL    HW121645   6.299   0.681  12.485 -0.4575  0.4100 -0.0375
 3222SOL    HW221646   6.269   0.792  12.387  2.1533  0.9258 -0.3404
 3223SOL     OW21647  10.677   1.299   6.741 -0.1685 -0.0107 -0.1958
 3223SOL    HW121648  10.721   1.323   6.659 -0.1540  1.1867  0.1413
 3223SOL    HW221649  10.749   1.288   6.803 -0.2797  3.4019  0.7374
 3224SOL     OW21650  12.088   4.349   2.999  0.1928  0.2343  0.0102
 3224SOL    HW121651  12.128   4.264   3.015  0.2638  0.4057  0.8473
 3224SOL    HW221652  12.028   4.336   2.927  2.2160  0.0955 -1.7386
 3225SOL     OW21653  13.323  12.217   6.673 -0.2657 -0.0773  0.1807
 3225SOL    HW121654  13.284  12.292   6.718  0.5086 -0.5900  1.7828
 3225SOL    HW221655  13.417  12.226   6.690  0.1325 -0.0103 -1.8261
 3226SOL     OW21656   8.578  12.226   5.955 -0.1746 -0.2757 -0.1693
 3226SOL    HW121657   8.578  12.304   5.899 -0.1687  1.4022  2.0468
 3226SOL    HW221658   8.668  12.217   5.985  0.1599 -2.0883 -1.5631
 3227SOL     OW21659  11.865  13.392   8.252 -0.7217  0.6072 -0.2760
 3227SOL    HW121660  11.883  13.301   8.227  0.8123  1.0608 -0.9006
 3227SOL    HW221661  11.776  13.408   8.220 -0.2567 -0.0527 -2.0017
 3228SOL     OW21662   8.899  10.470   0.792  0.1661 -0.5622 -0.2079
 3228SOL    HW121663   8.822  10.465   0.735  0.2573 -0.4797 -0.3375
 3228SOL    HW221664   8.863  10.471   0.880  0.0535 -1.7504 -0.2172
 3229SOL     OW21665   0.673  11.491   2.082 -0.0775  0.3699  0.1725
 3229SOL    HW121666   0.581  11.510   2.064 -0.1314 -0.7097 -0.8751
 3229SOL    HW221667   0.721  11.552   2.025 -0.1027  1.5946  1.4258
 3230SOL     OW21668   2.968   1.383   2.097 -0.0416  0.8697  0.5121
 3230SOL    HW121669   3.058   1.352   2.107  0.3090  1.1560 -1.3303
 3230SOL    HW221670   2.976   1.476   2.076 -0.8200  1.0704  1.0418
 3231SOL     OW21671  13.863   4.198  13.457  0.3133 -0.2554 -0.5493
 3231SOL    HW121672  13.815   4.246  13.524  2.1703  1.4820 -0.3628
 3231SOL    HW221673  13.857   4.106  13.485 -0.6701  0.2055  0.8637
 3232SOL     OW21674  12.919  12.069  13.345  0.0610 -0.5755  0.5087
 3232SOL    HW121675  12.927  12.113  13.429 -1.6003 -0.1670  0.4990
 3232SOL    HW221676  12.995  12.098  13.295  1.4079 -1.2942  2.0476
 3233SOL     OW21677   7.136   7.847  13.075  0.0499  0.3927  0.3464
 3233SOL    HW121678   7.213   7.899  13.097  0.3838 -0.1134  0.3676
 3233SOL    HW221679   7.132   7.780  13.143 -0.2275  0.2175  0.1589
 3234SOL     OW21680   2.631  11.916   7.926  0.4511  0.2982  0.4002
 3234SOL    HW121681   2.705  11.967   7.895  0.5149  0.0685  0.1722
 3234SOL    HW221682   2.644  11.829   7.889 -0.1531  0.3636  0.0088
 3235SOL     OW21683  12.752   9.688   1.737  0.0738 -0.7815 -0.6471
 3235SOL    HW121684  12.693   9.693   1.812  1.0430  0.9354  0.0764
 3235SOL    HW221685  12.839   9.674   1.776  0.4175 -1.2035 -1.5453
 3236SOL     OW21686   4.122   2.805  13.229  0.1026  1.0886 -0.0240
 3236SOL    HW121687   4.213   2.786  13.249 -0.2451  0.0998  0.7045
 3236SOL    HW221688   4.100   2.748  13.156 -1.3717 -2.8225  3.1122
 3237SOL     OW21689  11.965   3.022  12.104  0.1404  0.4013 -0.3138
 3237SOL    HW121690  12.042   3.068  12.070  0.1039  1.1586  0.5843
 3237SOL    HW221691  11.960   3.048  12.196 -1.2427  0.4483 -0.3805
 3238SOL     OW21692   1.938   4.466   7.077  0.0393 -0.1253  0.1801
 3238SOL    HW121693   1.890   4.386   7.098 -0.1712 -0.8421 -2.6296
 3238SOL    HW221694   2.010   4.468   7.140 -2.4027 -0.1100  3.1763
 3239SOL     OW21695   8.642   1.376   6.441 -0.1154 -0.5837 -0.0223
 3239SOL    HW121696   8.730   1.396   6.410 -0.6994  0.6879 -0.9035
 3239SOL    HW221697   8.656   1.334   6.526  1.3163  0.0239  0.0629
 3240SOL     OW21698  12.922   4.562   9.502 -0.6757 -0.2411  0.2061
 3240SOL    HW121699  12.835   4.588   9.472 -0.9074 -0.8555  0.3438
 3240SOL    HW221700  12.906   4.503   9.576 -0.1623 -0.8710 -0.1721
 3241SOL     OW21701  10.087   7.441  10.535  0.2165  0.6091 -0.5272
 3241SOL    HW121702  10.001   7.407  10.558 -0.2396  1.3602 -1.0948
 3241SOL    HW221703  10.132   7.367  10.494 -0.3165  0.3419 -0.6325
 3242SOL     OW21704   5.663   0.567  11.630 -0.2521  0.2270  0.2575
 3242SOL    HW121705   5.598   0.498  11.643  1.2841 -1.2732  0.2520
 3242SOL    HW221706   5.718   0.536  11.559  0.9509  1.1092  0.7729
 3243SOL     OW21707  12.464   8.292   8.944  0.0592  0.5833 -0.0130
 3243SOL    HW121708  12.492   8.225   8.881 -2.4329  0.6051 -1.2386
 3243SOL    HW221709  12.515   8.369   8.920  1.4456 -0.2566  0.0811
 3244SOL     OW21710   3.648   0.306   5.786 -0.1318  0.6239 -0.2392
 3244SOL    HW121711   3.564   0.350   5.783  0.0705  0.9446 -2.0740
 3244SOL    HW221712   3.663   0.276   5.696  1.4603  0.1009  0.1682
 3245SOL     OW21713  10.324  10.633   8.898  0.0297 -0.0863 -0.3183
 3245SOL    HW121714  10.353  10.576   8.970 -0.0993  2.0866  1.5595
 3245SOL    HW221715  10.269  10.576   8.844 -0.2951 -1.6957  1.5850
 3246SOL     OW21716   8.648   2.711   6.042  0.4354 -0.3406  0.2440
 3246SOL    HW121717   8.555   2.723   6.028  0.6470 -0.9707 -2.1258
 3246SOL    HW221718   8.670   2.773   6.112 -1.7194 -0.1929  0.8667
 3247SOL     OW21719   1.309   7.313   6.625 -0.5072  0.4733  0.2328
 3247SOL    HW121720   1.314   7.249   6.554  0.4264 -3.3195  3.3525
 3247SOL    HW221721   1.218   7.343   6.624 -0.9975 -0.9045 -1.3827
 3248SOL     OW21722   9.750  13.953   3.444  0.1810  0.1846  0.1894
 3248SOL    HW121723   9.701  13.955   3.527 -0.3543  1.1445 -0.1365
 3248SOL    HW221724   9.831  13.906   3.466 -0.8639 -1.4858  0.7325
 3249SOL     OW21725   6.969   6.897   6.441  0.1740 -0.0762 -0.3017
 3249SOL    HW121726   6.968   6.828   6.508  1.7895  2.3197  2.4179
 3249SOL    HW221727   6.881   6.934   6.444  0.2277 -0.0019  0.5053
 3250SOL     OW21728   9.345   4.346  13.835  0.5330 -0.0398 -0.3727
 3250SOL    HW121729   9.346   4.316  13.926 -0.9275 -0.0604 -0.3391
 3250SOL    HW221730   9.398   4.282  13.787 -0.1920 -1.0815  0.1716
 3251SOL     OW21731   0.531   1.468   8.329  0.5475 -0.4478  0.9797
 3251SOL    HW121732   0.477   1.414   8.386 -0.7151  0.0913  0.3231
 3251SOL    HW221733   0.469   1.527   8.285  1.8271  1.3602  1.4715
 3252SOL     OW21734   7.721   2.470  10.463  0.2922  1.0178  0.5254
 3252SOL    HW121735   7.688   2.405  10.525  0.4152  0.7637  0.3265
 3252SOL    HW221736   7.812   2.485  10.490  0.2164  1.2252  0.6680
 3253SOL     OW21737   5.817   2.042  11.410  0.0177 -0.5088  0.5014
 3253SOL    HW121738   5.812   1.947  11.397 -1.3740 -0.5293  1.0521
 3253SOL    HW221739   5.743   2.063  11.466  1.3686  0.6578  1.9492
 3254SOL     OW21740   8.795   8.987   5.611 -0.5221 -0.3126  0.0041
 3254SOL    HW121741   8.724   9.045   5.639  0.6574  0.7338  0.9790
 3254SOL    HW221742   8.849   9.043   5.555  0.8332 -0.3247  1.2479
 3255SOL     OW21743   3.245  11.611   0.597 -0.4319 -0.6938  0.3101
 3255SOL    HW121744   3.317  11.570   0.644  0.8901 -0.0506 -1.0489
 3255SOL    HW221745   3.272  11.702   0.586 -1.7269 -0.2842  0.2505
 3256SOL     OW21746   8.707   4.099   1.366 -0.3165 -0.0404  0.4146
 3256SOL    HW121747   8.706   4.060   1.454 -0.5967 -0.9210  0.0326
 3256SOL    HW221748   8.679   4.028   1.308 -0.9279  0.7585 -0.2952
 3257SOL     OW21749  11.314   7.391   8.726 -0.1726  0.1882  0.0492
 3257SOL    HW121750  11.254   7.434   8.787 -1.1884  0.2567 -0.9483
 3257SOL    HW221751  11.301   7.438   8.643 -2.3847 -2.7983 -1.4819
 3258SOL     OW21752   6.301   6.532   2.211  0.1207 -0.4975  0.3144
 3258SOL    HW121753   6.388   6.561   2.240 -0.8300  1.1866  1.6359
 3258SOL    HW221754   6.285   6.582   2.131 -0.5555  0.9827  1.3357
 3259SOL     OW21755   6.407  13.369  12.616  0.3536 -0.4966  0.0269
 3259SOL    HW121756   6.408  13.465  12.623  0.5201 -0.2767 -2.2727
 3259SOL    HW221757   6.364  13.340  12.697 -0.5771  1.5765  0.3492
 3260SOL     OW21758  13.027   9.861   3.443 -0.3334 -0.0694  0.0249
 3260SOL    HW121759  13.113   9.881   3.480  3.2046 -0.2978 -6.6568
 3260SOL    HW221760  13.027   9.766   3.433 -0.5150  0.0804 -1.5829
 3261SOL     OW21761   9.270  10.741   0.353 -0.0843 -0.1606 -0.1399
 3261SOL    HW121762   9.201  10.780   0.406 -1.9441 -1.4142 -1.4988
 3261SOL    HW221763   9.318  10.684   0.413 -1.3370 -0.5856  0.4889
 3262SOL     OW21764   9.059   7.847  11.602 -1.2233  0.3908  0.1764
 3262SOL    HW121765   9.041   7.894  11.683  1.5670  0.3291  0.9294
 3262SOL    HW221766   9.106   7.768  11.629  0.2573  0.6227 -1.5169
 3263SOL     OW21767   5.250  11.236   6.481  0.4568 -0.2465 -0.6349
 3263SOL    HW121768   5.271  11.292   6.556 -0.3200  0.6021 -1.0245
 3263SOL    HW221769   5.184  11.174   6.514  2.4320 -2.0003  0.2128
 3264SOL     OW21770   4.561   8.741  11.947  0.0417 -0.0182 -0.9270
 3264SOL    HW121771   4.537   8.814  12.004  1.3028  0.3907 -0.8927
 3264SOL    HW221772   4.641   8.706  11.986  0.2719 -0.4687 -1.7941
 3265SOL     OW21773   9.878   6.531  12.372 -0.0216 -0.0310 -0.2150
 3265SOL    HW121774   9.970   6.548  12.351  0.2904 -0.3290  0.8320
 3265SOL    HW221775   9.881   6.476  12.451 -1.0861 -0.7840 -0.6756
 3266SOL     OW21776   6.272   0.859   3.333 -0.2633  0.5735 -0.0119
 3266SOL    HW121777   6.183   0.826   3.320 -0.8875  2.5191 -1.0416
 3266SOL    HW221778   6.261   0.942   3.380  1.0535  0.5392  0.3943
 3267SOL     OW21779  12.458   1.171   7.175  0.1935  0.1380 -0.0511
 3267SOL    HW121780  12.497   1.238   7.120  1.4726 -0.4947  0.0632
 3267SOL    HW221781  12.531   1.119   7.207 -0.8239 -2.1815 -1.2209
 3268SOL     OW21782   1.220   3.771   9.374 -0.0698 -0.2672  0.6749
 3268SOL    HW121783   1.314   3.756   9.360 -0.2203 -1.0710  0.4298
 3268SOL    HW221784   1.196   3.835   9.307  0.2172 -0.4105  0.4292
 3269SOL     OW21785   1.074   3.068   0.535 -0.2506  0.6414 -1.1344
 3269SOL    HW121786   1.043   2.988   0.577 -1.6119  0.3488 -2.5885
 3269SOL    HW221787   1.011   3.135   0.562  0.5726  1.1145 -0.3581
 3270SOL     OW21788   2.456   4.889   6.158  0.0507  0.1899 -0.4236
 3270SOL    HW121789   2.450   4.917   6.249  1.8599 -1.1454  0.1656
 3270SOL    HW221790   2.489   4.966   6.111 -1.5311  1.0955 -0.1232
 3271SOL     OW21791  13.027   2.493  10.689 -0.2177 -0.5150 -0.1011
 3271SOL    HW121792  13.069   2.408  10.673  1.7681 -0.1859  2.6387
 3271SOL    HW221793  13.082   2.556  10.642  0.2303 -0.4580  0.4845
 3272SOL     OW21794   6.447   7.928   1.409  0.2176 -0.2224  0.4564
 3272SOL    HW121795   6.430   7.944   1.501  0.3223 -2.0490  0.8170
 3272SOL    HW221796   6.477   8.013   1.375  2.0910  0.0237  2.5401
 3273SOL     OW21797   0.762   3.540  11.485  0.0584 -0.3530  0.1791
 3273SOL    HW121798   0.745   3.599  11.412  0.3432 -0.5602 -0.0588
 3273SOL    HW221799   0.857   3.539  11.494  0.1843 -2.0920 -0.9289
 3274SOL     OW21800   1.874   3.425   4.007  0.6192 -0.2928  0.3501
 3274SOL    HW121801   1.884   3.487   3.935  0.3249  0.5386  0.9925
 3274SOL    HW221802   1.791   3.450   4.048  1.9389  0.9482  2.5087
 3275SOL     OW21803  11.062   0.467   2.053  0.2695  0.2990 -0.3983
 3275SOL    HW121804  11.147   0.462   2.097  0.0332  0.3811  0.0737
 3275SOL    HW221805  11.081   0.510   1.970  0.9301 -0.9368 -0.9134
 3276SOL     OW21806   6.319   3.747   6.923  0.1398 -0.7223  0.0243
 3276SOL    HW121807   6.296   3.791   6.841  0.2486  2.2410  1.4528
 3276SOL    HW221808   6.240   3.699   6.947 -0.6685  0.1667 -0.7629
 3277SOL     OW21809  12.017   8.925  10.842  0.0107  0.2019  0.3284
 3277SOL    HW121810  12.031   9.020  10.846  0.6976  0.1120  0.1447
 3277SOL    HW221811  12.088   8.888  10.893  0.0580 -0.2445 -0.0574
 3278SOL     OW21812  11.592  10.428   8.239  0.3027  0.1143  0.1026
 3278SOL    HW121813  11.621  10.344   8.202  3.4067  1.1003  0.0336
 3278SOL    HW221814  11.616  10.423   8.332 -0.1116  0.6711  0.2441
 3279SOL     OW21815  11.912   4.428   0.831 -0.3388  0.0457 -0.4368
 3279SOL    HW121816  11.866   4.484   0.768  1.9865  0.2206 -2.0843
 3279SOL    HW221817  11.985   4.391   0.781 -0.1597 -2.2654  1.3620
 3280SOL     OW21818  10.148   6.835  11.851 -0.3877 -0.5488 -0.2365
 3280SOL    HW121819  10.072   6.891  11.842  1.6292  2.3316 -0.8631
 3280SOL    HW221820  10.145   6.776  11.776 -2.5056 -1.2364  0.3473
 3281SOL     OW21821   3.006   6.799   9.452 -0.0670 -0.5612 -0.3413
 3281SOL    HW121822   3.082   6.857   9.456 -1.0298  1.1232 -3.3774
 3281SOL    HW221823   3.043   6.713   9.432  1.1717 -0.2873  0.6578
 3282SOL     OW21824  13.067  11.462   8.758  0.2348 -0.0672 -0.0924
 3282SOL    HW121825  13.041  11.476   8.667 -0.2672  0.4579  0.1265
 3282SOL    HW221826  13.049  11.369   8.774  2.2660 -0.6996 -1.1386
 3283SOL     OW21827   1.333   7.472   0.176 -0.1827  0.3756  0.0811
 3283SOL    HW121828   1.353   7.467   0.082  2.7850  0.0752  0.6405
 3283SOL    HW221829   1.314   7.565   0.191 -0.9637  0.3826 -0.8341
 3284SOL     OW21830   7.108   1.768   2.475 -0.1575  0.1912 -0.0911
 3284SOL    HW121831   7.170   1.699   2.448 -2.1339 -1.7727  0.1170
 3284SOL    HW221832   7.054   1.726   2.542 -0.3261  2.5432  1.3484
 3285SOL     OW21833   4.620  12.079   7.577  0.1839 -0.0242  0.3073
 3285SOL    HW121834   4.688  12.014   7.555  0.7316  1.1622 -1.8493
 3285SOL    HW221835   4.549  12.027   7.613  1.1039 -1.6847 -0.1228
 3286SOL     OW21836   7.472   6.807  10.190  0.2079  0.1242 -0.3333
 3286SOL    HW121837   7.507   6.730  10.145  1.6645  1.4516 -1.5758
 3286SOL    HW221838   7.415   6.770  10.258  0.2587 -2.0214 -1.3532
 3287SOL     OW21839  11.934   1.869   0.278 -0.0119 -0.7666  0.1185
 3287SOL    HW121840  11.849   1.902   0.251  1.1240  0.7002 -1.8775
 3287SOL    HW221841  11.960   1.808   0.209  2.0725  1.5540 -1.3214
 3288SOL     OW21842  11.039   9.297  12.383  0.2974 -0.5095  0.0525
 3288SOL    HW121843  11.074   9.211  12.359  0.2543 -0.7469  0.8204
 3288SOL    HW221844  11.014   9.288  12.475  0.0121  0.2367  0.0532
 3289SOL     OW21845  10.845   0.098   4.862 -0.0051 -0.1437 -0.0709
 3289SOL    HW121846  10.776   0.034   4.845 -1.6333  1.3338  0.6657
 3289SOL    HW221847  10.838   0.115   4.956  0.3911  1.0809 -0.2463
 3290SOL     OW21848   3.135   4.644   0.135  0.0728 -0.1774 -0.0311
 3290SOL    HW121849   3.158   4.557   0.101 -0.1350 -0.7206  1.1646
 3290SOL    HW221850   3.106   4.628   0.225 -1.2738  0.9745 -0.2241
 3291SOL     OW21851   1.896  10.260  13.246 -0.0750 -0.1853 -0.3709
 3291SOL    HW121852   1.900  10.165  13.257  1.6746 -0.1895 -0.7004
 3291SOL    HW221853   1.987  10.286  13.231 -0.8017  1.2148 -2.9578
 3292SOL     OW21854   8.390   4.196  13.827  0.3232  0.1023  0.4191
 3292SOL    HW121855   8.480   4.231  13.830  0.6458 -0.6251 -0.2710
 3292SOL    HW221856   8.376   4.176  13.734  0.5403 -2.5522  0.8921
 3293SOL     OW21857   6.293   2.260   8.765  0.4540 -0.2747  0.1272
 3293SOL    HW121858   6.260   2.172   8.748  1.6080 -0.4966 -1.0608
 3293SOL    HW221859   6.283   2.271   8.860 -1.7322 -0.8222  0.0236
 3294SOL     OW21860   0.941   6.295  12.344 -0.7771 -0.0042 -0.2252
 3294SOL    HW121861   0.916   6.264  12.432 -0.6147  0.7585  0.0942
 3294SOL    HW221862   0.875   6.256  12.287 -1.3137  0.0704  0.3252
 3295SOL     OW21863  11.574  12.795   4.381 -0.3164  0.1785  0.5642
 3295SOL    HW121864  11.496  12.849   4.367  0.6799  1.2763 -1.2098
 3295SOL    HW221865  11.647  12.852   4.358  0.8512 -1.6046 -0.4012
 3296SOL     OW21866   6.229   8.986   7.231 -0.1395 -0.4443 -0.2737
 3296SOL    HW121867   6.298   8.975   7.166 -0.2006 -0.5965 -0.3147
 3296SOL    HW221868   6.220   9.080   7.241  0.1482 -0.4259 -0.1885
 3297SOL     OW21869   6.271   5.263  10.528 -0.4801  0.1333 -0.5668
 3297SOL    HW121870   6.302   5.178  10.496  0.1595  0.2925 -0.3938
 3297SOL    HW221871   6.176   5.254  10.531 -0.3634 -1.1577  1.0087
 3298SOL     OW21872   0.225   9.575   1.185 -0.0812 -0.1412 -0.5123
 3298SOL    HW121873   0.201   9.484   1.173 -1.4518  0.2420 -0.8054
 3298SOL    HW221874   0.166   9.624   1.128  1.5150  0.8613 -1.4090
 3299SOL     OW21875  12.199  10.354   2.639  0.1336  0.2912 -0.2596
 3299SOL    HW121876  12.269  10.401   2.683 -0.3789 -0.5050  1.4905
 3299SOL    HW221877  12.243  10.297   2.576  0.8154  2.2801 -1.6669
 3300SOL     OW21878   5.911   2.933   3.234  0.1843 -0.2958  0.0237
 3300SOL    HW121879   5.908   2.841   3.263  0.3262 -0.3946 -0.2706
 3300SOL    HW221880   5.987   2.937   3.177 -0.0799 -0.0930 -0.3127
 3301SOL     OW21881   1.364  13.836  11.630 -0.5134 -0.2164  0.5422
 3301SOL    HW121882   1.404  13.751  11.613  0.0202 -0.1780  1.4939
 3301SOL    HW221883   1.437  13.891  11.659 -0.6791  0.8582 -1.0049
 3302SOL     OW21884   3.258   1.332   3.432 -0.0287 -0.3494 -0.0372
 3302SOL    HW121885   3.286   1.291   3.514 -1.6021 -2.1961 -0.3711
 3302SOL    HW221886   3.273   1.266   3.365 -1.2664  0.1172 -0.8174
 3303SOL     OW21887   3.155   4.167   9.445 -0.5630  0.0178 -0.1529
 3303SOL    HW121888   3.108   4.191   9.365  0.8642  0.2078 -0.9660
 3303SOL    HW221889   3.175   4.250   9.487 -0.1120 -0.0106 -0.3111
 3304SOL     OW21890   8.328   0.886   1.429  0.3297  0.1719 -0.2474
 3304SOL    HW121891   8.396   0.953   1.441  1.9864 -1.4199 -0.3150
 3304SOL    HW221892   8.257   0.932   1.384  1.2052  1.9808  0.1239
 3305SOL     OW21893  13.651   5.604  12.225  0.7680  0.4746  0.1562
 3305SOL    HW121894  13.563   5.642  12.219  0.6258  0.1656  0.2107
 3305SOL    HW221895  13.674   5.584  12.134  1.2707  1.6176  0.0165
 3306SOL     OW21896   8.864   9.019   3.049  0.6417 -0.2254  0.0539
 3306SOL    HW121897   8.784   8.966   3.043  1.1921 -0.9552 -1.1835
 3306SOL    HW221898   8.932   8.966   3.009  2.3408 -0.6317  3.1152
 3307SOL     OW21899  10.976   0.675   6.617 -0.3565 -0.0480 -0.5214
 3307SOL    HW121900  11.071   0.685   6.624 -0.4907  1.3524 -0.4055
 3307SOL    HW221901  10.964   0.608   6.550  0.7222 -2.3331  1.3775
 3308SOL     OW21902   7.298   7.439  13.582 -0.0456  0.4871  0.4081
 3308SOL    HW121903   7.211   7.441  13.623  0.1991  0.3594  0.9295
 3308SOL    HW221904   7.335   7.525  13.601 -0.0478  0.5369  0.1946
 3309SOL     OW21905   6.471   1.427   5.911  0.6709  0.3607  0.0978
 3309SOL    HW121906   6.382   1.437   5.945  0.6782  0.1929  0.1635
 3309SOL    HW221907   6.478   1.496   5.844  0.3517  0.1120 -0.1940
 3310SOL     OW21908   6.770  12.330   7.374 -0.2144  0.2237  0.2097
 3310SOL    HW121909   6.770  12.356   7.282 -2.5318 -2.5551 -0.7743
 3310SOL    HW221910   6.712  12.392   7.417  0.2259  1.0548 -0.3838
 3311SOL     OW21911   5.059   1.871   7.791  0.8229  0.5733  0.4408
 3311SOL    HW121912   5.089   1.962   7.790 -0.8138  1.2495 -2.8078
 3311SOL    HW221913   4.970   1.875   7.756  1.6041 -2.4877 -2.4008
 3312SOL     OW21914  12.069   0.338   4.855 -0.2524 -0.2533 -0.3014
 3312SOL    HW121915  11.989   0.344   4.803  0.2426  0.0749 -1.0393
 3312SOL    HW221916  12.094   0.246   4.852 -0.9582 -0.4896  0.5000
 3313SOL     OW21917   8.168   6.466   2.893  0.2027  0.0060  0.2261
 3313SOL    HW121918   8.261   6.491   2.893  0.6137 -1.3629 -1.3549
 3313SOL    HW221919   8.153   6.430   2.806 -1.2034 -2.0865  1.2643
 3314SOL     OW21920   1.950   6.409   0.652 -0.3331 -0.4260  0.5177
 3314SOL    HW121921   1.935   6.498   0.620  0.3712  0.1536  1.7525
 3314SOL    HW221922   1.940   6.415   0.747 -0.1270 -1.6354  0.6315
 3315SOL     OW21923  13.248   8.334   8.070 -0.1227  0.3847  0.3152
 3315SOL    HW121924  13.238   8.370   7.982  1.1209 -1.6793 -0.7453
 3315SOL    HW221925  13.163   8.295   8.090 -0.6787  1.6060  0.4289
 3316SOL     OW21926  12.624   3.687   6.446 -0.5599  0.4796  0.5313
 3316SOL    HW121927  12.553   3.642   6.492 -0.4914  1.0804  1.2293
 3316SOL    HW221928  12.631   3.641   6.362  0.9362 -2.2825  2.0217
 3317SOL     OW21929   5.586  10.400  13.279 -0.1821 -0.7797 -0.0332
 3317SOL    HW121930   5.594  10.454  13.201 -0.6683 -1.4218 -0.5350
 3317SOL    HW221931   5.491  10.394  13.294 -0.0927 -0.5280  0.7063
 3318SOL     OW21932   8.837   9.403   7.756 -0.4747 -0.0807 -0.1146
 3318SOL    HW121933   8.910   9.346   7.732 -0.2402  0.4849 -0.7602
 3318SOL    HW221934   8.771   9.387   7.689  0.2581  1.6437 -1.3271
 3319SOL     OW21935   6.760   8.795   2.179 -0.7339 -0.8572  0.3560
 3319SOL    HW121936   6.677   8.807   2.133 -0.2011 -1.6150 -0.8915
 3319SOL    HW221937   6.767   8.700   2.190 -0.6041 -0.7123  1.5691
 3320SOL     OW21938   3.752   8.147   5.906  0.0315  0.1824 -0.2429
 3320SOL    HW121939   3.833   8.116   5.865  0.5636  1.3910 -0.1298
 3320SOL    HW221940   3.713   8.068   5.943  0.2045 -0.7378 -1.9090
 3321SOL     OW21941   9.048  13.721   4.575 -0.0403  0.2332  0.3019
 3321SOL    HW121942   9.101  13.645   4.600  2.3299  1.5948 -0.3025
 3321SOL    HW221943   9.085  13.793   4.625  1.0478  1.9096 -2.7038
 3322SOL     OW21944  13.264   1.976   0.849  0.0129  0.0056 -0.5707
 3322SOL    HW121945  13.308   1.892   0.831  2.0772  0.9392 -0.1816
 3322SOL    HW221946  13.254   1.978   0.944 -1.7175 -0.5510 -0.7059
 3323SOL     OW21947   8.955  11.182   6.369  0.0951  0.3381  0.4952
 3323SOL    HW121948   8.982  11.106   6.421  0.8659 -2.0598 -3.0664
 3323SOL    HW221949   8.988  11.257   6.419  1.6801 -1.7766  2.8960
 3324SOL     OW21950   5.873  12.016  12.487 -0.9345  0.3463 -1.1720
 3324SOL    HW121951   5.870  11.991  12.395  2.8992  1.7003 -1.8406
 3324SOL    HW221952   5.951  12.070  12.494 -0.4738 -0.5534  3.1011
 3325SOL     OW21953   7.816   6.369   4.563 -0.1684 -0.1167 -0.2198
 3325SOL    HW121954   7.790   6.435   4.627  1.4426 -0.0684  0.4395
 3325SOL    HW221955   7.889   6.409   4.516  0.6541 -1.3068  0.0014
 3326SOL     OW21956   1.417   1.233   0.085  0.4055  0.3268  0.1186
 3326SOL    HW121957   1.413   1.214   0.178 -0.5904 -1.5215 -0.2500
 3326SOL    HW221958   1.503   1.273   0.072 -0.5510  3.4171  2.2494
 3327SOL     OW21959   3.607  10.224   6.230  0.1250 -0.1993 -0.6547
 3327SOL    HW121960   3.598  10.311   6.268 -2.0042 -0.3624 -0.6908
 3327SOL    HW221961   3.550  10.225   6.153 -0.5815 -1.8434 -0.2040
 3328SOL     OW21962  12.787   9.130   8.530  0.2261  0.1770 -0.3408
 3328SOL    HW121963  12.767   9.080   8.451 -0.3739  2.5148 -1.7585
 3328SOL    HW221964  12.792   9.221   8.501  0.4673  1.0892  2.2447
 3329SOL     OW21965   1.264  12.773   3.182 -0.1376  0.8561 -0.2655
 3329SOL    HW121966   1.357  12.752   3.187 -0.0405  1.3968  0.2814
 3329SOL    HW221967   1.220  12.689   3.193  0.2769  0.6980  0.2540
 3330SOL     OW21968   3.469  11.502   8.969  0.5736  0.2213  0.4638
 3330SOL    HW121969   3.549  11.483   9.018 -0.2393 -0.4837  1.5953
 3330SOL    HW221970   3.493  11.492   8.877  1.1274 -2.9418  0.8445
 3331SOL     OW21971   6.572   3.681   1.664  0.2548 -0.7693  0.4971
 3331SOL    HW121972   6.609   3.669   1.576  1.8085  1.3768  0.7941
 3331SOL    HW221973   6.504   3.747   1.652 -0.1112 -1.0902  0.7885
 3332SOL     OW21974   7.261   8.095   8.901  0.4837  0.5672 -0.0687
 3332SOL    HW121975   7.262   8.001   8.921 -1.6419  0.5102  0.0138
 3332SOL    HW221976   7.313   8.103   8.822  0.4108 -0.7573 -0.2769
 3333SOL     OW21977   9.087  12.880   9.173  0.2241  0.8632  0.3676
 3333SOL    HW121978   9.126  12.928   9.246 -0.2292 -0.1372  1.2943
 3333SOL    HW221979   9.026  12.819   9.214  1.9488 -1.7060 -0.5872
 3334SOL     OW21980  10.876  11.206   9.658 -0.4383  0.3454  0.3263
 3334SOL    HW121981  10.836  11.222   9.572  0.3272  1.0244  0.0803
 3334SOL    HW221982  10.815  11.244   9.720 -0.7811  0.2532  0.0499
 3335SOL     OW21983   3.067  12.928  10.368  0.0943 -0.4354 -0.8379
 3335SOL    HW121984   3.149  12.956  10.326  0.2212  0.8490  0.2099
 3335SOL    HW221985   2.998  12.968  10.314  0.1506 -1.1188 -1.4371
 3336SOL     OW21986   8.826   7.387   4.439 -0.3418  1.0677  0.0512
 3336SOL    HW121987   8.879   7.435   4.504 -0.1432  0.6302  0.2139
 3336SOL    HW221988   8.755   7.349   4.491 -1.8317  3.0513 -0.3933
 3337SOL     OW21989   4.663  13.410   4.452 -0.5984 -0.1891  0.0674
 3337SOL    HW121990   4.752  13.446   4.454 -0.4322 -0.4989 -1.2349
 3337SOL    HW221991   4.610  13.475   4.499  0.3701 -0.2184  1.2491
 3338SOL     OW21992  13.096   8.580   2.222  0.3656 -0.1763 -0.2959
 3338SOL    HW121993  13.138   8.520   2.284  1.4599  0.8341 -0.0246
 3338SOL    HW221994  13.150   8.574   2.143  0.1203 -0.0064 -0.4767
 3339SOL     OW21995   8.765   1.688  12.980  0.4046  0.4292  0.2069
 3339SOL    HW121996   8.793   1.778  12.997  1.5280  0.2101 -0.3710
 3339SOL    HW221997   8.756   1.649  13.067  0.0703  1.0517  0.4575
 3340SOL     OW21998  12.576   6.618   6.579  0.2730  0.1749  0.1359
 3340SOL    HW121999  12.593   6.557   6.651 -0.2025  0.3532  0.3983
 3340SOL    HW222000  12.497   6.584   6.536 -1.1057  1.6108  1.4058
 3341SOL     OW22001   2.553   7.358   5.052  0.3476  0.4411  0.3152
 3341SOL    HW122002   2.593   7.341   5.138  1.7375 -0.6114 -0.4967
 3341SOL    HW222003   2.536   7.453   5.053  3.1404  1.0344  0.6578
 3342SOL     OW22004   1.469  12.334   6.896  0.6226 -0.2480  0.6236
 3342SOL    HW122005   1.504  12.278   6.966  1.1205 -0.2790  0.3486
 3342SOL    HW222006   1.470  12.422   6.933  2.7621  0.0370 -0.0395
 3343SOL     OW22007  10.216   3.923  13.314  0.1366 -0.1437 -0.4602
 3343SOL    HW122008  10.152   3.924  13.385  0.6090 -0.3363 -0.0297
 3343SOL    HW222009  10.272   3.848  13.333 -0.5302 -0.9938 -1.7481
 3344SOL     OW22010   7.214  11.071   7.901  0.0123 -0.1145 -0.0963
 3344SOL    HW122011   7.238  11.049   7.991  0.3262 -0.8944 -0.3528
 3344SOL    HW222012   7.147  11.007   7.878  2.1591 -2.0590 -1.4381
 3345SOL     OW22013   7.342   8.465   0.464  0.2607 -0.4078 -0.4074
 3345SOL    HW122014   7.343   8.381   0.511 -2.1140  0.1565  0.8246
 3345SOL    HW222015   7.306   8.527   0.527  2.6644  1.7761 -1.0438
 3346SOL     OW22016  10.385  11.997   5.911  0.4764 -0.2023 -0.0826
 3346SOL    HW122017  10.478  11.973   5.901  0.4187 -0.0001 -1.2951
 3346SOL    HW222018  10.339  11.936   5.853 -0.3355 -1.2998  1.6294
 3347SOL     OW22019   8.813  13.077   9.235 -0.1789 -0.5207 -1.0976
 3347SOL    HW122020   8.740  13.126   9.196 -0.2335 -0.2966 -0.7153
 3347SOL    HW222021   8.876  13.144   9.262 -0.9012 -0.5399  0.7781
 3348SOL     OW22022   7.364   2.891  10.889  0.0831  0.2239  0.0756
 3348SOL    HW122023   7.307   2.886  10.812  3.2340  0.3438 -2.4909
 3348SOL    HW222024   7.433   2.828  10.872  2.4730  2.3035  1.3431
 3349SOL     OW22025   2.151  11.188   9.509 -0.8264 -0.5415  0.2750
 3349SOL    HW122026   2.152  11.100   9.472 -0.6344  0.4791 -2.3510
 3349SOL    HW222027   2.058  11.212   9.513 -0.8021 -0.2080 -0.8008
 3350SOL     OW22028   2.092   0.346   2.880 -0.3694  0.0820  0.1750
 3350SOL    HW122029   2.132   0.326   2.795 -1.1369  0.8392 -0.3910
 3350SOL    HW222030   2.165   0.350   2.941  0.2084 -0.4039 -0.4699
 3351SOL     OW22031   8.654   0.204   6.543 -0.1043  0.4028 -0.1354
 3351SOL    HW122032   8.686   0.122   6.505 -3.1428 -0.1868 -1.7056
 3351SOL    HW222033   8.733   0.248   6.575  1.7049 -2.8222  0.2420
 3352SOL     OW22034   4.327   1.573   6.166  0.3952 -0.2932 -0.3237
 3352SOL    HW122035   4.346   1.581   6.259  0.5138  0.3386 -0.4006
 3352SOL    HW222036   4.363   1.488   6.141  1.4995  0.0908 -0.0688
 3353SOL     OW22037   9.686  13.435   4.097 -0.1235 -0.6135 -0.6077
 3353SOL    HW122038   9.639  13.514   4.070  1.7237  1.4552  1.6884
 3353SOL    HW222039   9.767  13.435   4.046 -0.2977 -1.2765 -0.8980
 3354SOL     OW22040  10.862   3.795   4.401 -0.3587  0.2068  0.1072
 3354SOL    HW122041  10.891   3.707   4.424  0.7865  0.2570 -1.0271
 3354SOL    HW222042  10.925   3.853   4.443 -0.2380  0.4156 -0.3548
 3355SOL     OW22043  12.802  13.584   9.722  0.6659 -0.3983  0.6877
 3355SOL    HW122044  12.868  13.515   9.731  0.6416 -0.4623  0.3949
 3355SOL    HW222045  12.832  13.654   9.780  0.8739 -0.5138  0.7207
 3356SOL     OW22046   8.425   4.085   6.022  0.1461 -0.1531  0.4619
 3356SOL    HW122047   8.492   4.132   6.072 -0.0011 -0.4443  0.9378
 3356SOL    HW222048   8.447   4.101   5.930  1.1361 -0.6399  0.6091
 3357SOL     OW22049   2.373   5.277   2.543  0.2166  0.0472 -0.0368
 3357SOL    HW122050   2.365   5.269   2.639 -0.3352 -0.4388 -0.1159
 3357SOL    HW222051   2.341   5.193   2.510 -0.4559  0.5532 -0.6853
 3358SOL     OW22052   8.969   7.229   1.022 -0.2702  0.5378  0.1725
 3358SOL    HW122053   8.960   7.195   1.111 -1.6618  0.8068  0.1548
 3358SOL    HW222054   8.943   7.156   0.965  1.0149  0.2306 -0.0461
 3359SOL     OW22055   8.393   9.646   2.242  0.2919  0.0304  0.3079
 3359SOL    HW122056   8.394   9.734   2.281 -0.1777 -0.1462  0.7297
 3359SOL    HW222057   8.343   9.593   2.304 -1.5491  0.0143 -1.1380
 3360SOL     OW22058   1.018  11.377   9.232  0.1723  0.0942  0.2710
 3360SOL    HW122059   0.977  11.341   9.153  0.4431  1.1115 -0.3461
 3360SOL    HW222060   0.982  11.324   9.304 -1.4958  0.3437 -0.3445
 3361SOL     OW22061   8.829  13.399   1.276 -0.0599  0.5518 -0.3249
 3361SOL    HW122062   8.858  13.487   1.300  2.1696 -0.7655  2.3062
 3361SOL    HW222063   8.843  13.346   1.354  0.5719 -2.6010 -2.3610
 3362SOL     OW22064   4.415   5.613  10.291  0.0334 -0.4335 -1.0332
 3362SOL    HW122065   4.466   5.598  10.211  1.9991 -0.3201  0.1345
 3362SOL    HW222066   4.395   5.707  10.291  1.4974 -0.1042 -0.5942
 3363SOL     OW22067   0.619  10.406   4.506  0.2625  0.0230  0.2450
 3363SOL    HW122068   0.664  10.336   4.554 -0.5189 -0.2333  0.6248
 3363SOL    HW222069   0.564  10.360   4.442  0.5574  0.3331 -0.2468
 3364SOL     OW22070  10.535   2.211  11.672  0.0331  0.2978  0.1627
 3364SOL    HW122071  10.512   2.180  11.760 -1.0120 -0.0452 -0.2060
 3364SOL    HW222072  10.472   2.281  11.654 -0.0026  0.1188 -0.4433
 3365SOL     OW22073  10.165  10.268  13.134  0.3169  0.1596 -0.0064
 3365SOL    HW122074  10.211  10.350  13.113 -0.1027  0.8401  1.5503
 3365SOL    HW222075  10.082  10.275  13.087  0.7551  0.0878 -0.8043
 3366SOL     OW22076  12.431   9.395  13.735 -0.3099 -0.0207 -0.7053
 3366SOL    HW122077  12.401   9.371  13.823 -1.5636  0.7292 -0.9012
 3366SOL    HW222078  12.439   9.311  13.689 -1.0681 -0.3215 -0.3091
 3367SOL     OW22079   3.802   8.734  13.346 -0.2701 -0.0020 -0.3816
 3367SOL    HW122080   3.750   8.781  13.412 -0.5491 -0.0431 -0.5705
 3367SOL    HW222081   3.892   8.747  13.373 -0.4399 -1.9571  1.3420
 3368SOL     OW22082  11.060  12.629   4.777 -0.0438  0.6482 -0.3479
 3368SOL    HW122083  11.067  12.651   4.870  1.0884 -0.1626 -0.2092
 3368SOL    HW222084  11.006  12.698   4.739 -0.3282  1.1144  0.8722
 3369SOL     OW22085  11.783   6.395   4.439 -0.3547 -0.4336  0.3222
 3369SOL    HW122086  11.690   6.400   4.416 -0.0320 -0.1039 -0.9978
 3369SOL    HW222087  11.812   6.311   4.403  0.4067  0.5599 -1.5298
 3370SOL     OW22088  11.709   8.013   9.056  0.1957 -0.3387 -0.2860
 3370SOL    HW122089  11.763   8.066   9.114 -0.9664  0.5110  0.0510
 3370SOL    HW222090  11.711   8.059   8.972  0.6049 -0.7313 -0.5021
 3371SOL     OW22091   7.459  10.452   3.632  0.2518  0.2627  0.3115
 3371SOL    HW122092   7.416  10.508   3.696  0.2255  1.8568 -1.0400
 3371SOL    HW222093   7.501  10.384   3.684 -0.4643  1.0256  1.9488
 3372SOL     OW22094  12.598   0.672   2.620 -0.1984 -0.4644 -0.1797
 3372SOL    HW122095  12.679   0.621   2.626 -0.9047 -1.7090 -0.7585
 3372SOL    HW222096  12.590   0.713   2.706  1.0865 -0.2332 -0.1382
 3373SOL     OW22097  10.032   7.129  13.384 -0.3415  0.1835 -0.2985
 3373SOL    HW122098  10.101   7.174  13.337 -0.0033  0.9056  0.8451
 3373SOL    HW222099  10.078   7.073  13.447 -0.7621  0.8488  0.6395
 3374SOL     OW22100  11.982   8.442   1.628 -0.0255  0.3046  0.3865
 3374SOL    HW122101  11.927   8.517   1.605 -0.0095  0.2111  0.0330
 3374SOL    HW222102  12.071   8.471   1.611 -0.1108 -0.3006 -1.2429
 3375SOL     OW22103  10.552  12.809   9.195 -0.1968 -0.0941  0.0745
 3375SOL    HW122104  10.626  12.749   9.203 -0.6389 -0.6490  0.0829
 3375SOL    HW222105  10.479  12.763   9.236  0.6509  2.7453  5.7017
 3376SOL     OW22106   3.013   2.307   2.479  0.1316 -0.0361  0.6814
 3376SOL    HW122107   3.065   2.348   2.548 -0.2291  0.0975  0.8744
 3376SOL    HW222108   3.076   2.293   2.407 -0.2488  3.2959 -0.4615
 3377SOL     OW22109   8.679   6.845   6.460 -0.0572  0.1720 -0.3712
 3377SOL    HW122110   8.659   6.854   6.366  1.2378 -0.1146 -0.6868
 3377SOL    HW222111   8.631   6.918   6.501 -2.4248 -0.9461 -0.9453
 3378SOL     OW22112   1.276   9.935  13.537 -0.6130 -0.7446  0.6720
 3378SOL    HW122113   1.227  10.017  13.527  1.5925  0.4366 -1.1853
 3378SOL    HW222114   1.232   9.891  13.610 -1.5250  2.3425  2.1871
 3379SOL     OW22115  10.238   2.767   1.275  0.0168 -0.3970  0.1777
 3379SOL    HW122116  10.323   2.755   1.234 -0.2928 -0.9139 -0.3354
 3379SOL    HW222117  10.231   2.861   1.291  1.5609 -0.5461  2.1576
 3380SOL     OW22118   0.856   4.831  11.234 -0.3612 -0.3689 -0.0919
 3380SOL    HW122119   0.787   4.789  11.284 -0.1114  1.8601  2.3397
 3380SOL    HW222120   0.813   4.863  11.154 -1.4607 -1.4270  0.0730
 3381SOL     OW22121  10.589   8.124   5.676 -0.2205 -0.1668 -0.0386
 3381SOL    HW122122  10.652   8.172   5.623  0.2512 -0.9134 -0.1626
 3381SOL    HW222123  10.609   8.032   5.660 -0.7401 -0.4046  0.6412
 3382SOL     OW22124   8.862   0.984  13.655 -0.2901 -0.3095 -0.5838
 3382SOL    HW122125   8.820   0.971  13.570  0.2617  0.2529 -0.9539
 3382SOL    HW222126   8.938   0.927  13.655 -0.1671 -0.1486 -0.5582
 3383SOL     OW22127   5.119   9.063  13.914 -0.0244 -0.6144  0.3674
 3383SOL    HW122128   5.082   9.148  13.891  0.5333 -0.3998  0.2702
 3383SOL    HW222129   5.061   9.000  13.870 -0.0529 -0.2664 -0.1077
 3384SOL     OW22130  13.921  11.415   1.451  0.0904 -0.3187 -0.0743
 3384SOL    HW122131  13.968  11.334   1.430 -1.1942 -0.7696 -1.3609
 3384SOL    HW222132  13.904  11.455   1.366 -1.9152 -0.2269  0.3358
 3385SOL     OW22133  12.436   8.184   0.474 -0.2990  0.1687  0.2210
 3385SOL    HW122134  12.480   8.148   0.397 -0.3930  1.8024 -0.6315
 3385SOL    HW222135  12.343   8.178   0.453 -0.5720 -2.5714  1.7046
 3386SOL     OW22136   5.848   5.357  10.968 -0.5701  0.1732  0.1165
 3386SOL    HW122137   5.912   5.428  10.979  0.1976 -0.4457 -0.2846
 3386SOL    HW222138   5.787   5.370  11.041 -0.0332  0.8154  0.4760
 3387SOL     OW22139   0.686   5.539   2.888  0.3497 -0.7008  0.0126
 3387SOL    HW122140   0.669   5.553   2.795  1.3691 -1.1011 -0.2390
 3387SOL    HW222141   0.726   5.620   2.918  0.3924 -0.7222  0.0134
 3388SOL     OW22142   8.268  13.953   7.787  0.2795  0.0608  0.0765
 3388SOL    HW122143   8.320  14.034   7.790  1.1186 -0.4192 -0.9462
 3388SOL    HW222144   8.243  13.945   7.695 -1.1129 -0.0461  0.4478
 3389SOL     OW22145   0.166   5.060   7.978 -0.2651 -0.4648 -0.1330
 3389SOL    HW122146   0.196   4.972   8.003 -2.8389 -0.7014  2.7998
 3389SOL    HW222147   0.219   5.120   8.030 -1.0026 -0.5414  0.7244
 3390SOL     OW22148   2.961   9.588  12.827  0.0820  0.3224 -0.3605
 3390SOL    HW122149   2.992   9.529  12.759  0.2503  0.4707 -0.4139
 3390SOL    HW222150   2.877   9.551  12.855  0.1539  0.0989 -0.4409
 3391SOL     OW22151   7.443   6.573  12.370 -0.1498 -0.2002 -0.5127
 3391SOL    HW122152   7.481   6.494  12.407 -1.6034 -1.0685 -0.7971
 3391SOL    HW222153   7.353   6.575  12.404  0.1923  1.9990  0.4753
 3392SOL     OW22154   1.370   8.454   3.298 -0.5027  0.7347 -0.5289
 3392SOL    HW122155   1.430   8.513   3.254  1.1695  0.6769  1.5013
 3392SOL    HW222156   1.421   8.374   3.312 -1.4755  0.1952  0.0836
 3393SOL     OW22157   8.304   7.357   7.553 -0.3681  0.2627 -0.3214
 3393SOL    HW122158   8.385   7.306   7.543 -1.0238 -0.9223  0.2313
 3393SOL    HW222159   8.249   7.330   7.479 -0.5377  0.5360 -0.2971
 3394SOL     OW22160  10.913  13.564   1.972 -0.0801 -0.5042  1.0700
 3394SOL    HW122161  10.831  13.519   1.951  0.3324 -0.9615  0.4004
 3394SOL    HW222162  10.886  13.647   2.011 -0.8799 -0.1186 -0.2538
 3395SOL     OW22163  13.666   9.075   2.666 -0.7827 -0.8354 -0.0634
 3395SOL    HW122164  13.603   9.144   2.683  0.6477  0.5739 -0.2853
 3395SOL    HW222165  13.746   9.103   2.710  0.7173 -0.8673 -2.5278
 3396SOL     OW22166   5.207   8.084   0.832  0.0178  0.2231 -0.1244
 3396SOL    HW122167   5.244   8.172   0.843 -1.9966  1.1049  0.0659
 3396SOL    HW222168   5.234   8.037   0.911  1.1043  0.6675 -0.2158
 3397SOL     OW22169   6.155   2.961   2.627  0.3707 -0.2819  0.6027
 3397SOL    HW122170   6.083   2.931   2.683 -0.7710  1.9491  0.4184
 3397SOL    HW222171   6.205   2.881   2.608 -1.6967 -1.8135  1.2201
 3398SOL     OW22172   7.854   1.535   9.932 -1.1719 -0.5512 -0.1255
 3398SOL    HW122173   7.812   1.602   9.877  0.0262  1.5824  1.4103
 3398SOL    HW222174   7.913   1.489   9.873 -1.0426  0.6473 -0.9767
 3399SOL     OW22175   0.369   3.902   3.144  0.5222 -0.1290  0.1386
 3399SOL    HW122176   0.392   3.813   3.171 -0.6444 -0.6012 -0.3940
 3399SOL    HW222177   0.320   3.938   3.219  0.1316 -0.2855 -0.0414
 3400SOL     OW22178   8.538  10.241  11.886 -0.0400 -0.3906  0.2122
 3400SOL    HW122179   8.517  10.278  11.972 -2.3575 -2.6551  0.7359
 3400SOL    HW222180   8.474  10.279  11.827 -2.1188 -2.9421  0.6615
 3401SOL     OW22181   6.446   4.305  13.258 -0.0585  0.4468  0.5384
 3401SOL    HW122182   6.477   4.338  13.343 -1.2431 -0.5710  1.4039
 3401SOL    HW222183   6.417   4.216  13.276 -0.5848  0.3039 -0.8947
 3402SOL     OW22184   8.843   9.058  11.589 -0.6653 -0.1859 -0.0334
 3402SOL    HW122185   8.833   9.151  11.573  1.4516  0.1950  0.4824
 3402SOL    HW222186   8.787   9.015  11.524 -0.0938  1.4093 -1.6355
 3403SOL     OW22187   9.116   0.577   1.537 -0.4347 -0.2230 -0.1455
 3403SOL    HW122188   9.152   0.497   1.575  1.8294  1.0648  0.6219
 3403SOL    HW222189   9.045   0.602   1.596  1.2934  0.3006  1.8466
 3404SOL     OW22190   9.115  10.531   3.753  0.4821  0.0751 -0.4362
 3404SOL    HW122191   9.179  10.595   3.722  0.5821  0.0684 -0.2409
 3404SOL    HW222192   9.038  10.584   3.777  1.2311  0.3360  1.5533
 3405SOL     OW22193  12.423   3.245   2.979 -0.3486 -0.0938 -0.2351
 3405SOL    HW122194  12.330   3.259   2.960 -0.3718  0.8320  0.4755
 3405SOL    HW222195  12.451   3.179   2.916 -0.5063  2.5410 -3.3093
 3406SOL     OW22196  10.122   9.712  11.535  0.1615 -0.1551 -0.1288
 3406SOL    HW122197  10.206   9.736  11.496 -0.4720  0.7947 -0.9577
 3406SOL    HW222198  10.100   9.628  11.495  1.3124 -1.0618  1.0717
 3407SOL     OW22199  12.438   7.849  10.029 -0.0969 -0.4481 -0.0929
 3407SOL    HW122200  12.468   7.775  10.082  2.8898 -0.4215 -1.5377
 3407SOL    HW222201  12.342   7.847  10.036  0.0020 -2.9953  1.7786
 3408SOL     OW22202   8.970  11.751  11.935 -0.4103  0.6439 -0.0105
 3408SOL    HW122203   9.018  11.762  12.017  0.6150  0.2283 -0.5272
 3408SOL    HW222204   8.883  11.721  11.961  0.6572 -1.9778  0.8757
 3409SOL     OW22205   6.581   5.602   6.233  0.4950  0.4759  0.6088
 3409SOL    HW122206   6.576   5.546   6.310  1.1636 -0.7509 -0.1999
 3409SOL    HW222207   6.496   5.646   6.229 -0.3420 -1.0546  0.8526
 3410SOL     OW22208   2.449  11.605   5.467  0.1308  0.4850 -0.1136
 3410SOL    HW122209   2.536  11.635   5.495  0.2098 -0.2767  0.4843
 3410SOL    HW222210   2.425  11.666   5.397  1.1633  0.6859 -0.3189
 3411SOL     OW22211   5.437  13.231   5.968  0.2372 -0.0946  0.5274
 3411SOL    HW122212   5.413  13.323   5.977 -0.4527 -0.1490 -0.5681
 3411SOL    HW222213   5.364  13.183   6.010 -0.7038 -0.1987 -1.1430
 3412SOL     OW22214   6.661   1.915   7.595  0.3449  0.3010  0.1680
 3412SOL    HW122215   6.734   1.854   7.585  0.5520  0.9245 -3.0254
 3412SOL    HW222216   6.702   1.995   7.627  0.2175 -0.7501  3.3309
 3413SOL     OW22217  13.375  12.342   8.436 -0.0802 -0.0549 -0.2564
 3413SOL    HW122218  13.314  12.269   8.435  1.2852 -1.2375 -0.8114
 3413SOL    HW222219  13.442  12.319   8.371  2.3369 -0.0688  2.0388
 3414SOL     OW22220  10.698   8.901   9.703 -0.2448  0.2267 -0.6526
 3414SOL    HW122221  10.752   8.978   9.690  0.0255  0.2421  0.5243
 3414SOL    HW222222  10.613   8.936   9.730 -1.0613  0.2320 -2.9980
 3415SOL     OW22223  12.918   2.308   6.092  1.0586 -0.6196 -0.3150
 3415SOL    HW122224  12.903   2.256   6.013 -0.4562 -1.0411  0.2233
 3415SOL    HW222225  12.926   2.244   6.162 -1.7550 -0.1821  0.5022
 3416SOL     OW22226  13.441   0.435   6.797  0.1864  0.2574  0.1300
 3416SOL    HW122227  13.364   0.475   6.837 -0.9825 -0.8222 -0.9569
 3416SOL    HW222228  13.474   0.373   6.863  0.4767  1.1184  0.8089
 3417SOL     OW22229   8.722   6.036   0.535 -0.5277 -0.2593  0.6173
 3417SOL    HW122230   8.770   6.110   0.575 -0.2068 -1.3997  2.4649
 3417SOL    HW222231   8.638   6.073   0.509 -0.1157  0.9194  0.8960
 3418SOL     OW22232   8.492   0.653   4.868 -0.0949  0.1638 -0.3085
 3418SOL    HW122233   8.444   0.701   4.800 -2.5306 -0.9536  0.4853
 3418SOL    HW222234   8.462   0.563   4.859  2.1665 -0.6911  0.0971
 3419SOL     OW22235  13.310  13.944   5.673 -0.4899 -0.5034  0.0271
 3419SOL    HW122236  13.319  13.877   5.606 -4.8000 -0.5331 -0.7795
 3419SOL    HW222237  13.270  14.018   5.628  2.0404  1.9066  1.3998
 3420SOL     OW22238   7.067  10.098  13.237  0.1652  0.1733  0.0161
 3420SOL    HW122239   7.108  10.076  13.320  0.4214  0.1686 -0.1113
 3420SOL    HW222240   6.981  10.132  13.261 -0.4068 -1.3574  0.1852
 3421SOL     OW22241   8.114   9.790   1.569  0.2776 -0.3845  0.1803
 3421SOL    HW122242   8.036   9.735   1.568 -0.5694  0.7169  1.8538
 3421SOL    HW222243   8.081   9.879   1.552  1.3592 -0.1058 -0.5343
 3422SOL     OW22244   6.583   2.717   5.687  0.0539  0.2636 -0.0434
 3422SOL    HW122245   6.495   2.699   5.655  0.3757 -0.9488 -0.3017
 3422SOL    HW222246   6.628   2.632   5.684  0.9136  0.6460  1.0800
 3423SOL     OW22247   2.362   4.303  12.911 -0.1878  0.1817  0.0795
 3423SOL    HW122248   2.287   4.244  12.923 -0.2780  0.5765  1.7298
 3423SOL    HW222249   2.402   4.308  12.997  1.8203 -0.0743 -0.7859
 3424SOL     OW22250   8.877  12.670  13.248  0.0318 -0.0925 -0.3340
 3424SOL    HW122251   8.939  12.608  13.210 -0.8038 -0.3684 -1.2722
 3424SOL    HW222252   8.833  12.620  13.317 -0.2491 -0.3829 -0.7167
 3425SOL     OW22253   9.000   4.489   1.313  0.0728  0.2884 -0.1910
 3425SOL    HW122254   8.995   4.506   1.407  0.6669  2.8277 -0.5446
 3425SOL    HW222255   9.007   4.394   1.306  0.9910  0.0890  2.3791
 3426SOL     OW22256  13.884   6.365   4.731 -0.7421  0.0119  0.0048
 3426SOL    HW122257  13.852   6.332   4.647 -1.1332 -1.0281  0.5379
 3426SOL    HW222258  13.865   6.458   4.730 -0.7750  0.0067 -1.0431
 3427SOL     OW22259   3.476   6.107   8.214  0.1121 -0.4473  0.1642
 3427SOL    HW122260   3.546   6.172   8.207 -0.7218  0.2897 -2.2001
 3427SOL    HW222261   3.419   6.142   8.283 -1.0917  2.2269 -1.9860
 3428SOL     OW22262   2.091   9.165   8.195 -0.7346 -0.2868  0.3525
 3428SOL    HW122263   2.034   9.211   8.132  0.0114 -0.7981 -0.7371
 3428SOL    HW222264   2.084   9.073   8.170 -1.7207 -0.7367  2.1140
 3429SOL     OW22265  12.215   4.083  12.869 -0.2978 -0.5543 -0.1109
 3429SOL    HW122266  12.258   4.001  12.844  1.2490 -0.3902  1.7988
 3429SOL    HW222267  12.185   4.068  12.959 -0.9166  0.6424 -0.0956
 3430SOL     OW22268   0.519  12.209   2.991 -0.5373 -0.2151 -0.0345
 3430SOL    HW122269   0.445  12.225   2.933  0.0629 -1.1969 -1.1035
 3430SOL    HW222270   0.482  12.164   3.067 -1.1113 -0.1986 -0.3080
 3431SOL     OW22271  11.331   2.018   1.207 -1.0060  0.3403  0.1920
 3431SOL    HW122272  11.410   2.051   1.164 -1.2750  0.3631 -0.2909
 3431SOL    HW222273  11.356   2.007   1.298  0.4328 -2.3632 -0.4123
 3432SOL     OW22274  13.920   9.979  11.096 -0.0927  0.3845 -0.0096
 3432SOL    HW122275  13.849  10.021  11.046  0.6841  0.9011 -0.7058
 3432SOL    HW222276  13.880   9.957  11.180 -0.4921  2.8546  0.5480
 3433SOL     OW22277  10.768   7.232   2.010 -0.1445 -0.2034 -0.1512
 3433SOL    HW122278  10.830   7.244   1.938 -1.0246 -1.4462 -1.1532
 3433SOL    HW222279  10.690   7.280   1.982  0.2226  1.1311  0.9824
 3434SOL     OW22280   3.728   8.151   9.745 -0.4614  0.1082 -0.4066
 3434SOL    HW122281   3.820   8.126   9.757 -0.3754  0.0117 -1.2466
 3434SOL    HW222282   3.719   8.165   9.651 -1.1447  0.7646 -0.2507
 3435SOL     OW22283   2.660   0.785   0.296 -0.0193 -0.6282 -0.2233
 3435SOL    HW122284   2.647   0.760   0.388 -0.5666  0.4832  0.0207
 3435SOL    HW222285   2.750   0.759   0.277  1.9640  3.4666  2.1864
 3436SOL     OW22286   4.986   6.456  11.911  0.6513 -0.1532 -0.5982
 3436SOL    HW122287   4.910   6.460  11.968  1.5524 -0.2211  0.6472
 3436SOL    HW222288   4.958   6.500  11.830 -0.8525 -0.6441 -0.3687
 3437SOL     OW22289   4.769   4.430   8.844  0.6601  0.2699 -0.0259
 3437SOL    HW122290   4.697   4.367   8.840  1.5042 -0.6732 -1.7052
 3437SOL    HW222291   4.727   4.516   8.840 -0.4406 -0.2096  0.8169
 3438SOL     OW22292   5.613   4.942  13.689  0.3884 -0.2568 -0.5638
 3438SOL    HW122293   5.680   4.999  13.651 -0.7237  0.3470 -1.6968
 3438SOL    HW222294   5.548   4.932  13.620 -0.9067 -0.4773  0.6406
 3439SOL     OW22295  12.695   2.168   5.706  0.1536 -0.1453  0.2149
 3439SOL    HW122296  12.772   2.159   5.762 -1.1503  0.4849  2.2118
 3439SOL    HW222297  12.705   2.254   5.665 -0.3337  0.7736  1.9285
 3440SOL     OW22298   7.283   5.589  11.471 -0.2763 -0.2316 -0.6018
 3440SOL    HW122299   7.265   5.680  11.494 -2.4639 -0.5455 -0.8769
 3440SOL    HW222300   7.267   5.541  11.552  0.0516 -0.4544 -0.6694
 3441SOL     OW22301  10.544  12.501   7.442  0.1884  0.4774 -0.3316
 3441SOL    HW122302  10.538  12.451   7.361  0.0752 -1.4263  0.7855
 3441SOL    HW222303  10.468  12.474   7.493  1.1490  0.3119  1.0874
 3442SOL     OW22304  12.131   7.453   0.785 -0.0258  0.0461  0.1232
 3442SOL    HW122305  12.047   7.431   0.746 -0.8141  2.7760  0.0983
 3442SOL    HW222306  12.189   7.467   0.711  0.7600 -2.5292  0.1384
 3443SOL     OW22307   9.891   1.465   7.561 -0.5262 -0.2535 -0.3483
 3443SOL    HW122308   9.951   1.492   7.492 -0.9575  1.6866 -0.0314
 3443SOL    HW222309   9.919   1.377   7.584  1.9112  0.3953 -0.5403
 3444SOL     OW22310   1.223  11.273   8.355 -0.3079 -0.6327  0.2020
 3444SOL    HW122311   1.222  11.356   8.308  0.5149 -1.1127 -0.6850
 3444SOL    HW222312   1.130  11.251   8.366 -0.5197 -0.5897 -1.3349
 3445SOL     OW22313   7.629   4.089   4.258 -0.8311 -0.2202  0.4074
 3445SOL    HW122314   7.537   4.113   4.254 -0.2840  1.9642 -1.2603
 3445SOL    HW222315   7.666   4.125   4.177  1.2216 -2.2931  0.3290
 3446SOL     OW22316   5.371   3.620   1.339  0.3459  0.2134 -0.3250
 3446SOL    HW122317   5.430   3.564   1.390  1.2259  0.6665 -0.8169
 3446SOL    HW222318   5.422   3.700   1.323  0.6856 -0.4612 -3.1307
 3447SOL     OW22319  10.374  11.080   0.078 -0.0723  0.0635  0.2461
 3447SOL    HW122320  10.454  11.107   0.034  0.5583 -0.5331  1.0073
 3447SOL    HW222321  10.319  11.043   0.008 -0.4707  2.1512 -0.6024
 3448SOL     OW22322   6.702   9.301   5.726  0.3701  0.1725  0.2408
 3448SOL    HW122323   6.761   9.310   5.800  0.7874  1.5388 -0.2208
 3448SOL    HW222324   6.630   9.246   5.758  1.2521 -0.4508  1.1902
 3449SOL     OW22325   4.815   5.613   7.854 -0.2526 -0.3374 -0.4579
 3449SOL    HW122326   4.720   5.605   7.842  0.0141 -2.4833 -1.7886
 3449SOL    HW222327   4.844   5.659   7.775 -0.3863  3.0855  1.2944
 3450SOL     OW22328   6.436  10.078   5.452  0.7292 -0.2422 -0.0729
 3450SOL    HW122329   6.429  10.071   5.357  0.3089  0.0264 -0.0659
 3450SOL    HW222330   6.528  10.063   5.471  0.7554 -0.6241 -0.4942
 3451SOL     OW22331   0.906   8.219  12.344 -0.1419 -0.4773 -0.1493
 3451SOL    HW122332   0.963   8.259  12.410 -1.1540  0.0549  0.4182
 3451SOL    HW222333   0.946   8.243  12.260  1.3580 -1.4523  0.2447
 3452SOL     OW22334   0.825   0.821   4.870 -0.1231  0.4408 -0.0612
 3452SOL    HW122335   0.876   0.901   4.883  1.1038 -0.2697 -0.3288
 3452SOL    HW222336   0.832   0.774   4.953  0.3702 -0.0426 -0.3701
 3453SOL     OW22337   9.237   1.296   9.494 -1.2845 -0.1850 -0.0091
 3453SOL    HW122338   9.180   1.230   9.533  0.8245 -2.3260 -0.3072
 3453SOL    HW222339   9.283   1.249   9.424  1.2666  1.2456  0.6034
 3454SOL     OW22340  10.440   4.187   9.924  0.1580 -0.1336  0.2677
 3454SOL    HW122341  10.355   4.144   9.928  0.2535 -0.2546  1.5488
 3454SOL    HW222342  10.500   4.119   9.892 -0.2048 -0.0570 -0.5995
 3455SOL     OW22343   5.037   7.665   5.489 -0.4226 -0.3902  0.2259
 3455SOL    HW122344   4.977   7.734   5.462 -0.9850 -1.1731 -0.5701
 3455SOL    HW222345   5.071   7.629   5.407  1.0169 -0.0736  0.6550
 3456SOL     OW22346   8.420   4.987   4.685  0.0676  0.7879  0.2649
 3456SOL    HW122347   8.379   5.005   4.600 -0.0609  2.9075  0.7251
 3456SOL    HW222348   8.480   4.914   4.668 -1.0975  0.1327 -1.2745
 3457SOL     OW22349  13.955  12.063   2.208 -0.6470  0.0917  0.4778
 3457SOL    HW122350  14.005  12.015   2.141 -1.4139 -2.1666  1.4131
 3457SOL    HW222351  13.934  12.147   2.167  0.5084 -0.4684 -1.3920
 3458SOL     OW22352   6.430   3.792   2.553 -0.3203 -0.5390 -0.7378
 3458SOL    HW122353   6.426   3.875   2.504 -0.4789 -0.4711 -0.6124
 3458SOL    HW222354   6.368   3.735   2.508  0.4806 -0.9110 -1.4081
 3459SOL     OW22355  13.944   0.843   6.243  0.0122  0.4223 -0.0781
 3459SOL    HW122356  13.924   0.771   6.303  0.9400  0.6255  0.5004
 3459SOL    HW222357  13.868   0.901   6.248  0.4252  0.8694  1.5751
 3460SOL     OW22358  12.678   8.637   5.737 -0.5618 -0.1329 -0.5608
 3460SOL    HW122359  12.727   8.712   5.704 -1.0180  1.1603  1.5357
 3460SOL    HW222360  12.595   8.673   5.768 -1.7227 -1.8582 -1.4938
 3461SOL     OW22361  12.361  13.129   8.099 -0.5351 -0.2726  0.7286
 3461SOL    HW122362  12.454  13.113   8.115 -0.4409 -0.1205  0.3363
 3461SOL    HW222363  12.333  13.181   8.175  0.1713  1.3788 -0.0894
 3462SOL     OW22364  13.893   8.575  13.435 -0.1776 -0.1856 -0.4630
 3462SOL    HW122365  13.859   8.601  13.349  0.2410  1.7279 -0.0920
 3462SOL    HW222366  13.982   8.545  13.417 -0.5647 -1.1628 -0.8574
 3463SOL     OW22367   2.394   1.180  11.614 -0.2069 -0.5574 -0.6642
 3463SOL    HW122368   2.459   1.122  11.654 -0.6123 -1.0933 -0.7687
 3463SOL    HW222369   2.317   1.173  11.672 -0.2500 -0.0989 -0.6620
 3464SOL     OW22370   2.935  12.420   5.164  0.0212 -0.1696 -0.0585
 3464SOL    HW122371   2.979  12.469   5.234  0.9420 -0.8328 -0.1544
 3464SOL    HW222372   2.889  12.350   5.209 -1.8446  1.1026  0.1471
 3465SOL     OW22373  11.688   4.697  10.383  0.0813  0.1982  0.4727
 3465SOL    HW122374  11.622   4.707  10.314 -0.4041 -0.6233  0.8108
 3465SOL    HW222375  11.702   4.787  10.415 -1.2081  0.3435  0.7023
 3466SOL     OW22376  11.645   2.360  12.340 -0.2972 -0.1469 -0.1169
 3466SOL    HW122377  11.628   2.440  12.291  1.1659 -1.5185 -3.1414
 3466SOL    HW222378  11.567   2.306  12.326  0.1655 -0.5814 -1.1105
 3467SOL     OW22379   4.360   0.834  10.486  0.6924  0.0301  0.5722
 3467SOL    HW122380   4.368   0.770  10.557  1.1939  0.7445  1.1800
 3467SOL    HW222381   4.288   0.891  10.514  0.7233  0.1592  0.3876
 3468SOL     OW22382   1.993  10.683  12.701 -0.3408 -0.3823  0.0159
 3468SOL    HW122383   2.073  10.709  12.655 -0.5895  0.4927  0.0702
 3468SOL    HW222384   1.956  10.765  12.733 -1.3428 -0.7643 -0.1394
 3469SOL     OW22385  12.563   2.494   1.052 -0.0180  0.0739  0.6961
 3469SOL    HW122386  12.635   2.431   1.056 -0.2784 -0.1469  2.4041
 3469SOL    HW222387  12.484   2.442   1.061 -0.2266  0.6459  2.4583
 3470SOL     OW22388   1.319   1.316  11.122  0.1596 -0.5030  0.4346
 3470SOL    HW122389   1.281   1.314  11.210 -1.7243  0.8245 -0.2622
 3470SOL    HW222390   1.406   1.352  11.134  0.4792 -1.6582  1.8981
 3471SOL     OW22391   6.844  12.704   7.592  0.2071  0.0836  0.3657
 3471SOL    HW122392   6.879  12.660   7.670 -0.4318  0.3269  0.7972
 3471SOL    HW222393   6.846  12.797   7.614 -0.3501  0.1247  0.2509
 3472SOL     OW22394   9.346   2.883  13.332  0.0512  0.1676  0.8393
 3472SOL    HW122395   9.418   2.821  13.342 -0.3135 -0.6413 -1.1509
 3472SOL    HW222396   9.375   2.961  13.379  2.1975 -0.1674  0.1798
 3473SOL     OW22397  12.780   6.565   3.482  0.3495 -0.0318 -0.4036
 3473SOL    HW122398  12.685   6.550   3.485  0.5747 -1.6964 -0.7149
 3473SOL    HW222399  12.796   6.590   3.391  0.4864 -2.1495 -1.0163
 3474SOL     OW22400  13.115   7.595   1.080 -0.0847 -0.6521 -0.7065
 3474SOL    HW122401  13.112   7.682   1.119 -0.8664 -0.8628 -0.2852
 3474SOL    HW222402  13.151   7.539   1.149 -1.2319 -0.9783 -0.3569
 3475SOL     OW22403   6.990  10.818   1.173 -0.0912 -1.0594  0.5145
 3475SOL    HW122404   7.039  10.779   1.245  1.6274 -0.4649 -0.2874
 3475SOL    HW222405   7.024  10.775   1.095  1.3765  1.4483 -0.3306
 3476SOL     OW22406   4.516   8.221   1.494 -0.2481 -0.6188  0.6613
 3476SOL    HW122407   4.464   8.175   1.429 -0.3776 -0.3330  0.5574
 3476SOL    HW222408   4.602   8.180   1.491  1.2602  2.2107 -2.9149
 3477SOL     OW22409  13.537   6.588   9.807  0.1406  0.3929 -0.4642
 3477SOL    HW122410  13.551   6.620   9.717 -0.5519 -0.9508 -1.0851
 3477SOL    HW222411  13.473   6.518   9.797  0.6772 -0.3377  0.9954
 3478SOL     OW22412   5.632   0.921   8.926  0.6020  0.3906  0.1070
 3478SOL    HW122413   5.557   0.901   8.983 -0.3430 -1.0760 -1.5508
 3478SOL    HW222414   5.661   1.007   8.955 -2.3211  1.4531  0.2191
 3479SOL     OW22415  11.595   8.520  11.016  0.3837  0.3836 -0.0488
 3479SOL    HW122416  11.639   8.561  10.941  0.7794 -0.1816 -0.1309
 3479SOL    HW222417  11.539   8.453  10.976 -0.2216  0.8050  0.0863
 3480SOL     OW22418   3.854   3.903   7.937  0.5373 -0.2554 -0.3554
 3480SOL    HW122419   3.879   3.826   7.989  1.6451  1.3598  1.6625
 3480SOL    HW222420   3.909   3.898   7.859  0.9971 -1.2177  0.0172
 3481SOL     OW22421   5.036   6.514   1.601  0.4486 -0.7429 -0.0499
 3481SOL    HW122422   5.016   6.436   1.652  1.4323 -0.1370  1.3309
 3481SOL    HW222423   5.125   6.538   1.627  1.1496 -0.5781 -2.3328
 3482SOL     OW22424   4.187  13.724  13.355 -0.3901 -0.3497  0.3000
 3482SOL    HW122425   4.203  13.659  13.286  0.3743 -2.7383  2.5773
 3482SOL    HW222426   4.092  13.725  13.364 -0.4195 -1.0668  0.1514
 3483SOL     OW22427   3.046   9.714  13.879 -0.0885  0.3623 -0.1633
 3483SOL    HW122428   2.983   9.642  13.883  1.0623 -0.6223  1.9385
 3483SOL    HW222429   3.005   9.779  13.822 -3.5167  0.2541  1.8620
 3484SOL     OW22430  13.339   0.492   5.054 -0.0985  0.5563  0.3132
 3484SOL    HW122431  13.272   0.449   5.000  0.9337  0.7538 -1.1796
 3484SOL    HW222432  13.421   0.449   5.030  0.4363  0.8159  1.5796
 3485SOL     OW22433  10.873   4.533   6.529  0.5780  0.1697 -0.5537
 3485SOL    HW122434  10.875   4.624   6.560 -1.5784  0.0308  0.1516
 3485SOL    HW222435  10.807   4.533   6.460  0.6034 -0.8532 -0.5839
 3486SOL     OW22436   9.321  13.853   7.629 -1.2554 -0.0060  0.0085
 3486SOL    HW122437   9.350  13.902   7.552 -0.6820 -0.7453 -0.2580
 3486SOL    HW222438   9.264  13.784   7.593 -2.3542  0.6591  0.4128
 3487SOL     OW22439   2.162   5.974   5.784  0.1571  0.2003  0.0736
 3487SOL    HW122440   2.124   6.062   5.778 -0.3466  0.0553  0.9582
 3487SOL    HW222441   2.210   5.975   5.867  0.0198 -0.4043  0.1607
 3488SOL     OW22442  12.104   9.262   4.485  0.4667 -0.7671  0.1050
 3488SOL    HW122443  12.088   9.175   4.523 -1.6330 -0.5260 -0.0786
 3488SOL    HW222444  12.165   9.304   4.545 -1.6918 -0.9096  2.5936
 3489SOL     OW22445   7.518  10.670  11.151 -0.5960 -0.0226 -0.4592
 3489SOL    HW122446   7.437  10.711  11.179 -0.9040  0.2101 -1.6514
 3489SOL    HW222447   7.578  10.743  11.134 -0.7177 -0.1142 -1.3018
 3490SOL     OW22448  13.038   3.411  12.439  0.2033 -0.0626  1.1161
 3490SOL    HW122449  13.029   3.388  12.532  2.0107  3.7258  2.4642
 3490SOL    HW222450  13.115   3.468  12.436  0.1075  0.1245 -2.7326
 3491SOL     OW22451   0.600  12.899   2.807 -0.2550  0.4630 -0.0117
 3491SOL    HW122452   0.677  12.851   2.835 -1.2241 -1.0575  0.1355
 3491SOL    HW222453   0.570  12.945   2.885 -0.5004 -0.3568  0.3837
 3492SOL     OW22454   3.735   8.513  12.828  0.0232  0.4409 -0.0283
 3492SOL    HW122455   3.807   8.484  12.885  0.7613  0.4033 -0.9537
 3492SOL    HW222456   3.732   8.448  12.758  0.1483  1.3165 -0.8629
 3493SOL     OW22457   3.541   0.490  10.212  0.2829 -0.4519  0.0859
 3493SOL    HW122458   3.474   0.559  10.218  0.5447 -0.2347  0.6155
 3493SOL    HW222459   3.525   0.434  10.288 -0.5360 -1.5404 -0.8808
 3494SOL     OW22460   0.264   6.131   0.810 -0.6619 -0.3622 -0.1769
 3494SOL    HW122461   0.288   6.205   0.866 -2.1412 -1.3522  1.9166
 3494SOL    HW222462   0.179   6.156   0.772 -1.3146 -1.0487  0.7760
 3495SOL     OW22463  14.025   4.682   9.991 -0.1526 -0.1887  0.4372
 3495SOL    HW122464  14.034   4.672  10.086 -2.8068  1.7477  1.0148
 3495SOL    HW222465  14.062   4.768   9.973  0.0071 -0.3969 -0.2377
 3496SOL     OW22466   4.938   6.116   8.813  0.4112 -0.5039  0.2516
 3496SOL    HW122467   4.935   6.181   8.744 -2.0836 -0.6779  0.1286
 3496SOL    HW222468   4.962   6.165   8.892  1.0961  0.0705 -0.3029
 3497SOL     OW22469   1.189   8.124   1.829 -0.0641 -0.5886 -0.2069
 3497SOL    HW122470   1.139   8.095   1.753 -0.3875  2.2633 -1.1995
 3497SOL    HW222471   1.154   8.211   1.850  0.5587 -0.9195  2.7426
 3498SOL     OW22472   5.523   5.731   7.479  0.4069  0.7169 -0.0659
 3498SOL    HW122473   5.476   5.743   7.561  2.4265  0.4286  1.2093
 3498SOL    HW222474   5.578   5.653   7.494 -0.9751 -0.8733 -2.6006
 3499SOL     OW22475   1.731  10.044   1.803 -0.0196 -0.3398 -0.8906
 3499SOL    HW122476   1.687  10.103   1.864  1.1818 -2.0755  1.8386
 3499SOL    HW222477   1.811  10.019   1.848  1.1335 -1.4874 -3.3902
 3500SOL     OW22478   8.604   2.198   4.923  0.0119  0.1224  0.1685
 3500SOL    HW122479   8.667   2.226   4.857 -1.0207  2.1428 -0.0692
 3500SOL    HW222480   8.640   2.228   5.006  0.5062 -0.9139  0.3401
 3501SOL     OW22481   2.015   5.824  10.427  0.2054  0.5693 -0.0585
 3501SOL    HW122482   2.089   5.765  10.414  0.5593  0.4981  1.9757
 3501SOL    HW222483   1.941   5.778  10.387  1.0439  0.1634 -1.1793
 3502SOL     OW22484   7.792   3.871  13.495  0.0772  0.4663 -0.5105
 3502SOL    HW122485   7.754   3.913  13.418 -0.8475  0.9990  0.2217
 3502SOL    HW222486   7.885   3.894  13.491  0.6562 -1.6932 -2.8837
 3503SOL     OW22487  13.815   3.146   8.605 -0.1271  0.0715  0.7832
 3503SOL    HW122488  13.765   3.075   8.645  0.9912 -0.3805  1.4586
 3503SOL    HW222489  13.906   3.129   8.632  1.0207 -1.1554 -3.2211
 3504SOL     OW22490  11.458   9.815   9.424  0.4844  0.0365 -0.0626
 3504SOL    HW122491  11.473   9.744   9.486  2.1117 -0.4322 -0.9205
 3504SOL    HW222492  11.505   9.890   9.461 -0.3430  0.3698  0.3211
 3505SOL     OW22493   7.647   9.574  11.616 -0.2259  0.0126 -0.5492
 3505SOL    HW122494   7.716   9.514  11.586  0.7190  0.2626  0.9693
 3505SOL    HW222495   7.579   9.516  11.651 -0.7396 -0.2297 -1.8762
 3506SOL     OW22496  10.398  11.307  13.796  0.2782 -0.2133 -0.5304
 3506SOL    HW122497  10.421  11.400  13.801 -1.9050  0.4024 -0.5344
 3506SOL    HW222498  10.463  11.263  13.850  1.4020  1.3125 -0.5738
 3507SOL     OW22499   6.275   2.771   7.715  0.3835 -0.1525 -0.1927
 3507SOL    HW122500   6.201   2.790   7.658  0.3967 -2.2321 -0.9718
 3507SOL    HW222501   6.251   2.811   7.799 -1.0798  0.2282 -0.7659
 3508SOL     OW22502   2.543  11.271   6.385  0.1715 -0.0929 -0.2793
 3508SOL    HW122503   2.524  11.362   6.360 -0.6365 -0.4175 -0.9110
 3508SOL    HW222504   2.580  11.232   6.306 -0.4118 -0.5738 -0.3199
 3509SOL     OW22505   9.445   9.086   6.916 -0.1836  0.2419  0.5417
 3509SOL    HW122506   9.477   8.996   6.922 -2.0331 -0.4505  0.7930
 3509SOL    HW222507   9.386   9.095   6.991  0.7549  2.0264  1.1233
 3510SOL     OW22508  12.325  12.000   7.701  0.0690 -0.5184 -0.4971
 3510SOL    HW122509  12.403  12.049   7.727  0.9745 -2.2776  0.2939
 3510SOL    HW222510  12.265  12.010   7.774  0.8678 -1.8049  0.3793
 3511SOL     OW22511   5.191  13.610   2.060 -0.3331 -0.0503 -0.2699
 3511SOL    HW122512   5.130  13.681   2.080 -1.8441 -1.2984 -0.2767
 3511SOL    HW222513   5.243  13.599   2.139 -1.5669 -0.3560  0.5231
 3512SOL     OW22514   0.202  11.059   3.421  0.3846 -0.1371 -0.2152
 3512SOL    HW122515   0.257  10.986   3.392 -0.5843 -0.6010 -0.9374
 3512SOL    HW222516   0.157  11.026   3.498  1.0224  0.2093  0.3170
 3513SOL     OW22517   0.151   5.485   8.683  0.2283  0.4054 -0.6584
 3513SOL    HW122518   0.244   5.499   8.667  0.0776  3.2124  0.2762
 3513SOL    HW222519   0.116   5.457   8.598  2.1336 -2.7917 -0.5593
 3514SOL     OW22520   8.369  13.340   0.604 -0.5207 -0.1133 -0.2047
 3514SOL    HW122521   8.312  13.415   0.623  0.0340  0.6119 -1.2657
 3514SOL    HW222522   8.358  13.325   0.510 -1.0975 -1.8016  0.0960
 3515SOL     OW22523   3.219   3.743  11.182 -0.3087 -0.7679 -0.0978
 3515SOL    HW122524   3.263   3.676  11.130  0.2102  1.2410 -2.4844
 3515SOL    HW222525   3.285   3.770  11.246  0.6061 -0.4613 -1.1309
 3516SOL     OW22526  13.762   4.733  12.035 -0.2454  0.8671 -0.3012
 3516SOL    HW122527  13.838   4.784  12.006 -1.1252  2.2565 -0.2139
 3516SOL    HW222528  13.691   4.759  11.976 -1.4851  2.0608  1.6135
 3517SOL     OW22529   3.959  10.255   0.837  0.0432  0.1438  0.4040
 3517SOL    HW122530   4.018  10.257   0.913  0.9582  1.6977 -0.3020
 3517SOL    HW222531   3.871  10.258   0.874  0.4856  1.2380  1.4162
 3518SOL     OW22532  11.335   4.446   6.539 -0.1850  0.1529 -0.0528
 3518SOL    HW122533  11.375   4.360   6.535  1.3917  0.8371  0.1999
 3518SOL    HW222534  11.299   4.453   6.627 -1.3960 -0.6782 -0.4613
 3519SOL     OW22535   6.071   1.687   4.943  0.0219 -0.2504 -0.2425
 3519SOL    HW122536   6.018   1.608   4.941  0.8520 -0.8318  0.1898
 3519SOL    HW222537   6.037   1.736   5.018 -0.5072 -0.1748 -0.5236
 3520SOL     OW22538   5.946   1.837  10.601  0.1041  0.3240  0.2356
 3520SOL    HW122539   5.893   1.788  10.663 -0.5335  2.0486  1.1076
 3520SOL    HW222540   5.894   1.839  10.521 -0.8160  1.2940  0.8303
 3521SOL     OW22541   0.978   2.366   9.703 -0.4234  0.1404  0.0801
 3521SOL    HW122542   1.038   2.380   9.777 -0.0775 -1.1925  0.0737
 3521SOL    HW222543   1.036   2.345   9.629 -0.8672 -2.9151  0.4597
 3522SOL     OW22544   0.563  12.857   0.507  0.0132 -0.4235 -0.5360
 3522SOL    HW122545   0.512  12.934   0.530  0.6512 -0.0693 -0.2776
 3522SOL    HW222546   0.609  12.881   0.427  1.1021 -0.1024  0.1616
 3523SOL     OW22547   5.482  13.061   2.742 -0.1694 -0.0999  0.4676
 3523SOL    HW122548   5.403  13.007   2.735 -0.9715  1.0881  0.0963
 3523SOL    HW222549   5.554  12.998   2.741 -1.1345 -1.4117  2.8827
 3524SOL     OW22550   1.890   2.936   7.522 -0.1393 -0.4775  0.1026
 3524SOL    HW122551   1.951   2.988   7.470  0.9913 -0.2147  1.6366
 3524SOL    HW222552   1.805   2.977   7.506 -0.0104 -0.9925 -2.2393
 3525SOL     OW22553  12.538   1.335  10.710 -0.0989 -0.3941  0.1082
 3525SOL    HW122554  12.584   1.348  10.793  1.1232 -0.4970 -0.5286
 3525SOL    HW222555  12.554   1.416  10.661 -1.9451  0.2297  0.4668
 3526SOL     OW22556   9.634   3.076   7.528 -0.4563  0.1885  0.6192
 3526SOL    HW122557   9.575   3.150   7.542 -0.2036 -0.0906  4.3212
 3526SOL    HW222558   9.721   3.110   7.548  0.4038 -0.0497 -2.2728
 3527SOL     OW22559   2.076   3.968   4.049 -0.1968  0.3663 -0.0993
 3527SOL    HW122560   2.059   4.021   3.972  1.1896  0.2459 -0.5103
 3527SOL    HW222561   2.123   4.026   4.109  1.5175 -0.3923 -0.6333
 3528SOL     OW22562   3.123   3.112   4.894 -0.1773  0.3679 -0.1017
 3528SOL    HW122563   3.061   3.068   4.835 -1.3671  1.9128 -0.0615
 3528SOL    HW222564   3.092   3.202   4.899  2.2160  1.2537 -0.2037
 3529SOL     OW22565   3.038   9.095   1.947  0.1257  0.8274 -0.6272
 3529SOL    HW122566   3.056   9.148   2.025 -0.0517 -1.7927  1.3031
 3529SOL    HW222567   2.965   9.039   1.972  1.3018 -1.4493 -1.9854
 3530SOL     OW22568  12.913  11.218   1.104 -0.8394 -0.1719  0.0502
 3530SOL    HW122569  12.889  11.305   1.071 -0.9178  0.0050  0.5599
 3530SOL    HW222570  12.832  11.184   1.142 -1.0578 -0.8755 -0.9935
 3531SOL     OW22571  10.350   0.194   3.676 -0.0846  0.6083  0.5585
 3531SOL    HW122572  10.314   0.253   3.610 -1.7401  1.2883  1.9782
 3531SOL    HW222573  10.378   0.252   3.747  1.6143 -0.1048  0.5064
 3532SOL     OW22574   9.351   9.397   8.563  0.3457  0.2733  0.0774
 3532SOL    HW122575   9.357   9.478   8.615  1.3279 -0.2348  0.7962
 3532SOL    HW222576   9.261   9.395   8.532  0.3287  1.6981 -0.0326
 3533SOL     OW22577  10.721   8.959  11.651 -0.1534  0.2473  0.0886
 3533SOL    HW122578  10.816   8.958  11.636 -0.3082  0.5081 -1.0324
 3533SOL    HW222579  10.697   8.866  11.657  0.0799  0.1495 -0.3761
 3534SOL     OW22580   7.087   1.414  11.447 -0.5395  0.2308 -0.4795
 3534SOL    HW122581   6.993   1.422  11.467 -1.0393 -1.1903 -2.0241
 3534SOL    HW222582   7.102   1.319  11.442  1.4248  0.3604  1.5390
 3535SOL     OW22583   3.708   2.691   2.187  0.4230  0.1923 -0.4439
 3535SOL    HW122584   3.692   2.731   2.272 -0.6313 -1.7948  0.3345
 3535SOL    HW222585   3.701   2.764   2.125 -0.5109  1.3713  0.9890
 3536SOL     OW22586   0.349   3.313   9.549  0.4215  0.1208  0.0391
 3536SOL    HW122587   0.261   3.350   9.551 -0.4062 -1.4372 -2.7223
 3536SOL    HW222588   0.398   3.370   9.489 -0.2325 -1.7202 -2.4311
 3537SOL     OW22589   3.675   8.570   2.150  0.7061 -0.2252  0.3398
 3537SOL    HW122590   3.654   8.497   2.092 -1.1181  0.0842  0.5582
 3537SOL    HW222591   3.627   8.552   2.231  0.1953  1.2247  0.3869
 3538SOL     OW22592   5.278   8.014   4.741  0.1127 -0.2623 -0.0757
 3538SOL    HW122593   5.242   8.031   4.828 -1.3453 -0.2182 -0.6582
 3538SOL    HW222594   5.363   7.972   4.757  0.6195  1.2168  1.3603
 3539SOL     OW22595   8.128  13.534  13.117 -0.1295 -0.2806  0.3806
 3539SOL    HW122596   8.146  13.624  13.145  0.4778 -0.6572  1.2485
 3539SOL    HW222597   8.044  13.539  13.073  2.1755  1.6949 -4.4736
 3540SOL     OW22598   0.236   6.794   3.721  0.1203 -0.0217  0.2446
 3540SOL    HW122599   0.314   6.825   3.675  1.5708 -1.6001  1.5504
 3540SOL    HW222600   0.269   6.738   3.791 -2.2221 -1.3406  0.3965
 3541SOL     OW22601  11.801   8.216   7.027 -0.0747 -0.6315  0.1234
 3541SOL    HW122602  11.708   8.222   7.048 -0.1672  0.8256 -0.5868
 3541SOL    HW222603  11.843   8.203   7.112 -0.6241  2.8280  1.0800
 3542SOL     OW22604   1.367  13.210   9.827 -0.2786  0.3436  0.3670
 3542SOL    HW122605   1.360  13.136   9.766  0.7332 -0.5927  1.3269
 3542SOL    HW222606   1.393  13.170   9.910 -1.4660  1.6035  1.3995
 3543SOL     OW22607   5.714   2.041   7.850  0.0051  0.1895 -0.0673
 3543SOL    HW122608   5.644   2.076   7.796  0.5755  0.9275 -0.3413
 3543SOL    HW222609   5.713   2.095   7.930 -1.1084 -1.1585  0.8825
 3544SOL     OW22610   1.628   9.757  13.282 -0.0543 -0.3860 -0.2026
 3544SOL    HW122611   1.682   9.831  13.256 -1.0754  0.5169  0.1493
 3544SOL    HW222612   1.676   9.680  13.252  0.7806  0.4374 -1.0473
 3545SOL     OW22613  11.762   3.446   0.101 -0.0877 -0.3238 -0.1141
 3545SOL    HW122614  11.779   3.485   0.015  2.2090 -1.3961 -0.2323
 3545SOL    HW222615  11.696   3.502   0.140 -0.9565  0.3988 -2.4298
 3546SOL     OW22616   9.266  10.728   2.411  0.1333  0.3823 -0.1325
 3546SOL    HW122617   9.315  10.701   2.489 -1.0978 -1.5180  0.0569
 3546SOL    HW222618   9.184  10.763   2.445 -0.1494  0.1347 -0.5470
 3547SOL     OW22619   0.311  13.767  11.990 -0.2758  0.0383 -0.5897
 3547SOL    HW122620   0.309  13.681  11.948  0.9931 -0.2613 -0.0753
 3547SOL    HW222621   0.398  13.773  12.029 -0.3712  1.5307 -0.5425
 3548SOL     OW22622   8.227  13.585   2.255  0.0238  0.3172  0.6159
 3548SOL    HW122623   8.145  13.536   2.246  0.2535  0.1357 -0.6437
 3548SOL    HW222624   8.240  13.592   2.350 -0.3792 -1.4515  0.8462
 3549SOL     OW22625   2.272   6.021   1.417 -0.3254  0.7260 -0.3783
 3549SOL    HW122626   2.189   5.978   1.399 -0.8376  1.1947  0.7853
 3549SOL    HW222627   2.281   6.086   1.347 -1.0667  0.8585 -0.3547
 3550SOL     OW22628  12.080   5.975   2.157 -0.4467 -0.8897 -0.0160
 3550SOL    HW122629  12.063   6.017   2.241 -0.7594  2.3173 -1.5362
 3550SOL    HW222630  12.174   5.986   2.143 -0.5022 -0.8483 -0.3618
 3551SOL     OW22631   2.608   5.393  12.445  0.6680 -0.7183  0.5492
 3551SOL    HW122632   2.665   5.452  12.494  1.0356 -0.9998  0.4646
 3551SOL    HW222633   2.659   5.368  12.368  0.3610 -0.8304  0.3777
 3552SOL     OW22634   8.286   0.503   9.335  0.1388  0.0554 -0.2694
 3552SOL    HW122635   8.246   0.416   9.347  1.2857 -0.7119 -1.7346
 3552SOL    HW222636   8.289   0.539   9.424 -0.4722 -1.3526  0.3660
 3553SOL     OW22637  10.183   3.794  11.543 -0.2211 -0.5843  0.3548
 3553SOL    HW122638  10.089   3.797  11.522 -0.3237  0.4910  0.8898
 3553SOL    HW222639  10.194   3.711  11.589 -0.3955 -1.9684 -1.9520
 3554SOL     OW22640  12.538   8.187   8.630  0.5651 -0.2354  0.9709
 3554SOL    HW122641  12.496   8.245   8.567  3.3493  1.1803  0.2473
 3554SOL    HW222642  12.476   8.115   8.641 -1.8132  1.4839 -0.2295
 3555SOL     OW22643  13.842  12.594   8.636  0.8152 -0.6721  0.0965
 3555SOL    HW122644  13.791  12.593   8.717 -1.2608 -2.0237 -1.1444
 3555SOL    HW222645  13.846  12.502   8.609  0.5927 -0.1621 -1.8200
 3556SOL     OW22646   3.623  13.095  10.174 -0.1752  0.0929 -0.0638
 3556SOL    HW122647   3.686  13.059  10.111  0.1684 -0.9177  0.8231
 3556SOL    HW222648   3.593  13.019  10.223 -0.6577  0.8286  0.8023
 3557SOL     OW22649   8.830  11.077  12.240 -0.2108  0.2260  0.0772
 3557SOL    HW122650   8.752  11.113  12.283 -0.7542 -0.1726 -0.5665
 3557SOL    HW222651   8.799  10.999  12.195  0.6737 -0.2445  0.2548
 3558SOL     OW22652   8.428   0.709  10.673 -0.2744 -0.6134  0.9456
 3558SOL    HW122653   8.487   0.635  10.666  0.6493  0.1692  0.2035
 3558SOL    HW222654   8.409   0.733  10.582 -1.5200 -0.6717  1.1707
 3559SOL     OW22655   8.533  11.824   5.918  0.4393 -0.0334  0.2993
 3559SOL    HW122656   8.502  11.859   5.835  1.4067  0.2755  0.0540
 3559SOL    HW222657   8.524  11.896   5.981 -1.1131 -0.5281  0.6961
 3560SOL     OW22658   9.394  11.441   7.978  0.2073 -0.4151 -0.2976
 3560SOL    HW122659   9.339  11.481   7.910  1.2578  0.3726 -0.7040
 3560SOL    HW222660   9.332  11.415   8.046 -0.5379  2.0235  0.0537
 3561SOL     OW22661   0.302   6.401  10.497  0.7621  0.0865  0.3451
 3561SOL    HW122662   0.279   6.460  10.425  0.6542  0.7631  0.9207
 3561SOL    HW222663   0.287   6.453  10.576  3.3084  0.2426  0.8070
 3562SOL     OW22664   1.126   2.706   7.559  0.2960  0.0049  0.1509
 3562SOL    HW122665   1.124   2.612   7.540  1.2517 -0.0103  0.0906
 3562SOL    HW222666   1.180   2.714   7.638  0.2944  0.5135  0.1063
 3563SOL     OW22667   8.371   1.550  11.348  0.4673  0.2455  0.0287
 3563SOL    HW122668   8.441   1.502  11.303 -1.2509 -0.1744 -2.3945
 3563SOL    HW222669   8.317   1.482  11.387  0.4962  0.4735  0.4644
 3564SOL     OW22670  13.480   5.068  12.150 -0.5275  0.0653  0.4001
 3564SOL    HW122671  13.527   5.022  12.219  0.1541 -1.4096 -0.9594
 3564SOL    HW222672  13.388   5.052  12.168 -0.3368 -0.7176  0.6996
 3565SOL     OW22673   2.345  10.346   3.695 -0.4761 -0.2689 -0.3592
 3565SOL    HW122674   2.275  10.363   3.632 -0.1369  0.1344 -0.6306
 3565SOL    HW222675   2.414  10.408   3.672 -1.0613  1.2257  1.5430
 3566SOL     OW22676   8.508   6.052   9.464  0.3675 -0.3865  0.0329
 3566SOL    HW122677   8.533   6.123   9.404  1.2627 -0.8440 -0.1550
 3566SOL    HW222678   8.511   6.092   9.551 -1.9311  0.5572 -0.2542
 3567SOL     OW22679   7.755   8.987   5.500 -0.0360  0.3578 -0.5142
 3567SOL    HW122680   7.836   9.021   5.463 -0.2318  1.1284 -0.2562
 3567SOL    HW222681   7.781   8.905   5.543  0.7613  0.9587  0.1944
 3568SOL     OW22682   4.868  13.569   5.839  0.6585  0.9016 -0.3551
 3568SOL    HW122683   4.957  13.535   5.844  0.7319  1.2063  0.7664
 3568SOL    HW222684   4.854  13.612   5.924 -0.4420  1.1357 -0.6359
 3569SOL     OW22685   2.301   3.990  13.188 -0.1661 -0.5360 -0.7074
 3569SOL    HW122686   2.356   3.921  13.225  0.6254 -0.7999 -2.2916
 3569SOL    HW222687   2.363   4.059  13.164 -0.5753 -0.6027 -1.9981
 3570SOL     OW22688   7.545   2.814   8.231  0.1690 -0.3584 -0.0685
 3570SOL    HW122689   7.589   2.845   8.152  0.4960  2.2960  1.0414
 3570SOL    HW222690   7.592   2.857   8.303 -2.1672 -0.0033  1.3611
 3571SOL     OW22691   4.623   8.256  11.161 -0.4865  0.1622  0.3055
 3571SOL    HW122692   4.556   8.196  11.195 -1.0586  0.3402 -0.4739
 3571SOL    HW222693   4.584   8.343  11.170 -0.0208  0.3452  0.6033
 3572SOL     OW22694  12.177  12.660   6.246 -0.4690 -0.2583  0.3891
 3572SOL    HW122695  12.197  12.569   6.267  1.3433 -0.1027 -0.4589
 3572SOL    HW222696  12.239  12.710   6.300 -2.3614  0.5781  1.8972
 3573SOL     OW22697   8.551   2.531   1.244  0.2810 -0.6879 -0.2134
 3573SOL    HW122698   8.502   2.476   1.305  1.7776 -2.5265 -0.5584
 3573SOL    HW222699   8.488   2.551   1.174 -0.9618  0.0599  1.0825
 3574SOL     OW22700   6.196   8.836   8.588 -0.4306  0.0125  0.0284
 3574SOL    HW122701   6.253   8.904   8.622  0.2109 -0.9123  0.8646
 3574SOL    HW222702   6.204   8.764   8.651 -2.5225 -0.1546  0.2049
 3575SOL     OW22703  12.376   2.151  13.638  0.2372 -0.0459 -0.1179
 3575SOL    HW122704  12.413   2.171  13.552  0.5778 -0.1102  0.0124
 3575SOL    HW222705  12.293   2.198  13.640  1.1043  1.5781  0.2637
 3576SOL     OW22706   5.323  11.799   3.734  0.3771 -0.5030 -0.0455
 3576SOL    HW122707   5.397  11.855   3.710  1.6607 -1.4032  1.5931
 3576SOL    HW222708   5.247  11.857   3.729  1.4781  1.0569  0.3947
 3577SOL     OW22709   7.005   2.499   2.128  0.4022  0.2109 -0.0548
 3577SOL    HW122710   7.064   2.439   2.081  0.3689  0.1967 -0.0781
 3577SOL    HW222711   7.018   2.477   2.221  0.9384  0.6618 -0.0110
 3578SOL     OW22712  13.359   0.903   0.596  0.3130 -0.4227  0.1711
 3578SOL    HW122713  13.443   0.862   0.615 -0.5038 -1.9623  0.6336
 3578SOL    HW222714  13.325   0.929   0.682 -0.3111 -1.1376  0.1563
 3579SOL     OW22715   9.432  13.087  12.251 -0.5821 -0.1133  0.2814
 3579SOL    HW122716   9.358  13.143  12.230 -0.5961 -0.6866 -1.3440
 3579SOL    HW222717   9.497  13.146  12.290 -1.0194  0.8210 -0.3757
 3580SOL     OW22718   6.513   2.663   9.456  0.0880 -1.0194  0.1399
 3580SOL    HW122719   6.434   2.702   9.494 -0.6575 -1.4481 -0.8983
 3580SOL    HW222720   6.569   2.738   9.434  0.0055 -0.7152  0.9495
 3581SOL     OW22721   7.765  12.034  10.633 -0.0787  0.2204 -0.2758
 3581SOL    HW122722   7.672  12.043  10.611 -0.0596  0.9585 -0.1029
 3581SOL    HW222723   7.792  12.123  10.658  1.1800  0.4892 -2.3502
 3582SOL     OW22724   2.683  10.212   4.258 -0.4766 -0.2566  0.2997
 3582SOL    HW122725   2.604  10.158   4.262 -0.6386  0.0169  0.9650
 3582SOL    HW222726   2.752  10.158   4.295 -0.6458 -0.0049  0.9971
 3583SOL     OW22727   4.055  12.065   2.621 -0.2226 -0.2636  0.5101
 3583SOL    HW122728   3.970  12.051   2.663 -0.7482  0.0937 -0.3955
 3583SOL    HW222729   4.110  11.994   2.654 -0.5108  0.1801  2.0276
 3584SOL     OW22730   1.208   8.394  10.817  0.2511 -0.1687  0.3721
 3584SOL    HW122731   1.163   8.461  10.868  2.0317  1.6876 -0.3193
 3584SOL    HW222732   1.152   8.317  10.823 -0.6538  0.5674  3.3520
 3585SOL     OW22733   2.170   2.781   8.145  0.4564  0.5087 -0.6980
 3585SOL    HW122734   2.198   2.719   8.212 -2.9088 -0.7665 -0.2991
 3585SOL    HW222735   2.133   2.854   8.194 -2.6051 -0.7087 -0.9936
 3586SOL     OW22736   8.823  13.867   3.718 -0.4106  0.3821 -0.3104
 3586SOL    HW122737   8.889  13.803   3.692 -0.4946 -0.8936  2.2592
 3586SOL    HW222738   8.858  13.951   3.689  0.4306 -0.6488 -2.4439
 3587SOL     OW22739   6.286  12.142   7.805  0.0993 -0.1601 -0.1774
 3587SOL    HW122740   6.379  12.163   7.798  0.5239 -0.9308  2.1875
 3587SOL    HW222741   6.282  12.047   7.790 -0.0824 -0.3608  1.0156
 3588SOL     OW22742  10.828   1.527   6.180  0.1920  0.5066 -0.1753
 3588SOL    HW122743  10.869   1.445   6.210 -0.8282  0.5093  1.3827
 3588SOL    HW222744  10.857   1.593   6.243  1.1998  1.4440 -1.5593
 3589SOL     OW22745   4.522   6.142  13.536  0.2310 -0.6474 -0.2510
 3589SOL    HW122746   4.603   6.122  13.583  0.7426 -0.6596 -1.1157
 3589SOL    HW222747   4.508   6.235  13.552 -1.6572 -1.3124  3.0224
 3590SOL     OW22748   6.053   3.400  13.169 -0.0225 -0.4536 -0.1459
 3590SOL    HW122749   6.122   3.434  13.225  0.0232  0.9718 -1.0298
 3590SOL    HW222750   6.096   3.336  13.113  0.0993 -1.2554  0.8365
 3591SOL     OW22751  10.949  13.114   6.382 -0.7198 -0.5185 -0.7192
 3591SOL    HW122752  10.946  13.198   6.335  0.9383  0.0929  0.1758
 3591SOL    HW222753  10.897  13.129   6.461  0.1885 -0.0728 -0.1963
 3592SOL     OW22754   2.452   1.413   6.021 -0.4716 -0.1543  0.4641
 3592SOL    HW122755   2.363   1.430   5.989 -0.3646 -0.1943  0.1418
 3592SOL    HW222756   2.508   1.433   5.946 -0.2595 -0.8134  0.4402
 3593SOL     OW22757   4.896   0.518   5.134  0.0607  0.4328  0.6102
 3593SOL    HW122758   4.974   0.568   5.111 -0.5530  1.0215 -0.2456
 3593SOL    HW222759   4.831   0.584   5.157 -0.1466 -0.0575  1.5158
 3594SOL     OW22760   3.452   1.477   9.154  0.1961  1.0269  0.1136
 3594SOL    HW122761   3.482   1.392   9.122  2.5825  1.4602  0.9969
 3594SOL    HW222762   3.388   1.506   9.089 -0.1455 -1.1065 -0.5724
 3595SOL     OW22763   8.330   7.940   0.697  0.1483 -0.0587 -0.3587
 3595SOL    HW122764   8.385   8.015   0.674  1.7042 -1.1126 -0.2052
 3595SOL    HW222765   8.332   7.885   0.619  3.6612 -2.5987  1.2668
 3596SOL     OW22766   0.995   1.141   6.317  0.1173 -0.1673  0.4052
 3596SOL    HW122767   0.967   1.215   6.264  0.1269  1.0793  2.0670
 3596SOL    HW222768   0.916   1.087   6.327 -0.6857  1.1791  1.6306
 3597SOL     OW22769   9.247  10.554   2.840 -0.0379 -0.0349 -0.2079
 3597SOL    HW122770   9.292  10.555   2.925  2.7441 -0.3582 -1.5625
 3597SOL    HW222771   9.294  10.619   2.788 -1.3041 -0.2806 -1.7099
 3598SOL     OW22772   3.399  10.857  11.802  0.1063 -0.2414 -0.0345
 3598SOL    HW122773   3.380  10.940  11.758  0.4414 -0.2335 -0.1629
 3598SOL    HW222774   3.316  10.810  11.801 -0.0657  0.0598 -0.0330
 3599SOL     OW22775   3.670   1.754   9.438  0.8654 -0.2228  0.4528
 3599SOL    HW122776   3.697   1.695   9.367 -0.3670 -0.3386  0.0482
 3599SOL    HW222777   3.657   1.839   9.394  1.8319  0.1600  0.8828
 3600SOL     OW22778   7.002   3.044   8.981  0.1049  0.0519  0.0135
 3600SOL    HW122779   6.957   2.979   9.034 -0.7317 -0.2567 -1.0416
 3600SOL    HW222780   6.951   3.124   8.993  0.3877  0.1873  0.3115
 3601SOL     OW22781   0.059  10.882   1.873 -0.4907  0.1672 -0.2701
 3601SOL    HW122782   0.032  10.952   1.933 -0.9855 -0.0809 -0.2018
 3601SOL    HW222783   0.149  10.861   1.900 -0.0092  1.3869 -0.8623
 3602SOL     OW22784   8.208   5.037   7.601  0.1536 -0.2879  0.2977
 3602SOL    HW122785   8.168   5.032   7.687 -1.0263 -1.7252 -0.2691
 3602SOL    HW222786   8.136   5.063   7.542  0.2238 -1.9579 -0.6010
 3603SOL     OW22787   9.348   4.390   0.834  0.7437  0.4269  0.1097
 3603SOL    HW122788   9.272   4.338   0.809  1.6287 -1.0592  0.3600
 3603SOL    HW222789   9.335   4.408   0.927  0.8759 -0.1576  0.2448
 3604SOL     OW22790   8.817   7.782   5.435 -0.3452 -0.4229 -0.4778
 3604SOL    HW122791   8.761   7.718   5.390  1.0802 -0.5504 -2.1691
 3604SOL    HW222792   8.779   7.867   5.412  1.0424 -0.3950 -3.1169
 3605SOL     OW22793   8.786   0.243  13.894 -0.4105  0.5107 -0.2610
 3605SOL    HW122794   8.791   0.335  13.919 -1.5089  0.7557 -0.8509
 3605SOL    HW222795   8.831   0.239  13.809  3.3000 -0.3153  1.5567
 3606SOL     OW22796   8.658  10.990   5.900  0.4781 -0.2192 -0.0367
 3606SOL    HW122797   8.723  11.055   5.874 -0.3860 -0.3029 -2.7507
 3606SOL    HW222798   8.703  10.935   5.964  2.9176  0.0317 -1.4321
 3607SOL     OW22799   2.595   6.925   1.228 -0.0836  0.0611  0.4750
 3607SOL    HW122800   2.575   7.015   1.202 -0.9346 -0.7797 -2.0185
 3607SOL    HW222801   2.673   6.903   1.178 -0.3057 -0.8279  0.5144
 3608SOL     OW22802   2.620   5.733   8.139  0.1273  0.1085  0.0445
 3608SOL    HW122803   2.709   5.765   8.151 -0.2780  2.5979 -2.4893
 3608SOL    HW222804   2.621   5.690   8.054 -1.0465  0.0291  0.0511
 3609SOL     OW22805  11.978  10.562   7.830 -0.9218  0.3870 -0.2713
 3609SOL    HW122806  11.971  10.466   7.838  0.4666  0.1185 -1.8477
 3609SOL    HW222807  12.064  10.583   7.864 -0.2492  0.7483 -2.0679
 3610SOL     OW22808  10.900   3.880   7.226 -0.2221 -0.2569 -0.0379
 3610SOL    HW122809  10.917   3.817   7.155 -1.0997 -1.3093  0.6490
 3610SOL    HW222810  10.818   3.923   7.200  0.7794  1.2377 -0.9030
 3611SOL     OW22811  11.707   4.800   9.173 -0.0359  0.2088 -0.3413
 3611SOL    HW122812  11.632   4.749   9.141 -1.2842  1.1101  1.0374
 3611SOL    HW222813  11.718   4.772   9.264  1.6664 -0.2728 -0.6525
 3612SOL     OW22814  10.557   7.755   6.425 -0.4310  0.0179 -0.0675
 3612SOL    HW122815  10.631   7.698   6.446 -0.7048 -0.3212 -0.0210
 3612SOL    HW222816  10.595   7.843   6.423 -0.1464 -0.0819  0.5940
 3613SOL     OW22817   7.114   8.270   8.572 -0.5151 -0.1972 -0.1645
 3613SOL    HW122818   7.064   8.211   8.628 -0.2487  0.0515  0.3428
 3613SOL    HW222819   7.166   8.212   8.516  0.1535 -0.4492  0.6969
 3614SOL     OW22820   1.897   4.268   8.881  0.3598  0.5505 -0.6155
 3614SOL    HW122821   1.829   4.209   8.915  2.4774 -0.9121  1.3955
 3614SOL    HW222822   1.920   4.323   8.956  2.2979  0.0914 -0.8348
 3615SOL     OW22823  13.520  10.477   5.047 -0.1842  0.0675  0.2665
 3615SOL    HW122824  13.445  10.528   5.079 -0.1956  0.5161 -0.4438
 3615SOL    HW222825  13.534  10.410   5.113 -1.5384 -0.3280  0.1872
 3616SOL     OW22826   7.223  10.104   3.487  0.2936 -0.9052  0.3959
 3616SOL    HW122827   7.209  10.198   3.472  2.1446 -0.9296 -2.2047
 3616SOL    HW222828   7.156  10.061   3.433  0.5660 -1.0607  0.1796
 3617SOL     OW22829   7.519  12.872   6.629 -0.4006 -0.6853  0.3024
 3617SOL    HW122830   7.487  12.868   6.539 -0.9008  0.6074  0.4073
 3617SOL    HW222831   7.458  12.930   6.675  1.4412  1.0293  0.7584
 3618SOL     OW22832   4.058   9.611   4.379  0.4286 -0.5365  0.2178
 3618SOL    HW122833   4.064   9.669   4.455 -0.1637 -1.3931  0.9311
 3618SOL    HW222834   4.149   9.594   4.355  0.6143  0.5423  0.0938
 3619SOL     OW22835   5.621   1.199   8.664 -0.0297 -0.3136 -0.4636
 3619SOL    HW122836   5.554   1.179   8.729 -0.7961  1.9233 -0.4743
 3619SOL    HW222837   5.634   1.117   8.617  0.2175 -1.8871  2.1457
 3620SOL     OW22838  12.634   3.004   7.805 -0.5288 -0.3130 -0.3002
 3620SOL    HW122839  12.664   3.018   7.895 -0.4147  0.7189 -0.4896
 3620SOL    HW222840  12.622   3.092   7.770 -2.1378 -0.7015 -0.7908
 3621SOL     OW22841   6.289   0.439   7.648  0.3329  0.0739 -0.0710
 3621SOL    HW122842   6.215   0.452   7.706  1.0375 -1.1786  1.1695
 3621SOL    HW222843   6.363   0.479   7.694  0.9241 -1.0444 -0.0032
 3622SOL     OW22844  10.230   6.325   7.461  0.3600 -0.5751  0.2515
 3622SOL    HW122845  10.231   6.265   7.536 -0.0731 -0.1231  0.6231
 3622SOL    HW222846  10.319   6.321   7.426  0.6761 -0.4929  1.0292
 3623SOL     OW22847   6.212   8.697   2.199  0.4722  0.6832  0.2965
 3623SOL    HW122848   6.198   8.726   2.109 -1.3497  0.4316  0.4645
 3623SOL    HW222849   6.188   8.604   2.199  0.7444  0.6046  0.9877
 3624SOL     OW22850   3.539   4.731  10.470  0.1135 -0.2185  0.0703
 3624SOL    HW122851   3.570   4.757  10.383  0.5365 -0.9131  0.0049
 3624SOL    HW222852   3.444   4.727  10.462  0.0662  0.8142 -0.0449
 3625SOL     OW22853  10.041  12.483  12.094  0.3767 -0.1537 -0.0490
 3625SOL    HW122854  10.121  12.485  12.145  0.5193  1.6542 -0.2712
 3625SOL    HW222855  10.013  12.575  12.089 -1.1479 -0.6160 -0.8430
 3626SOL     OW22856  13.828   9.121   4.809 -0.0241 -0.0256 -0.8508
 3626SOL    HW122857  13.878   9.175   4.748 -1.3704 -0.7710 -2.6818
 3626SOL    HW222858  13.737   9.145   4.795 -0.3331  0.8390  1.9738
 3627SOL     OW22859  11.152   5.646   6.353  0.1128  0.3758 -0.0200
 3627SOL    HW122860  11.234   5.691   6.374  1.1942 -0.7088 -1.7972
 3627SOL    HW222861  11.085   5.699   6.398  1.6971  1.5379  1.1058
 3628SOL     OW22862  12.222  11.050   2.028 -0.4863  0.1241 -0.2824
 3628SOL    HW122863  12.143  11.088   2.066 -1.0021 -0.5803 -0.6268
 3628SOL    HW222864  12.292  11.079   2.086 -1.1901 -0.5333  0.9367
 3629SOL     OW22865  11.288   7.379  13.539 -0.2791  0.0171  0.1972
 3629SOL    HW122866  11.378   7.390  13.509  0.2724  0.7703  1.9952
 3629SOL    HW222867  11.295   7.324  13.617 -1.6815 -2.1581 -1.0959
 3630SOL     OW22868   7.649  10.206   8.182  0.0442 -0.1287 -0.2218
 3630SOL    HW122869   7.579  10.166   8.235  0.0401  0.3942  0.1783
 3630SOL    HW222870   7.640  10.165   8.096 -1.2753  0.5051 -0.4203
 3631SOL     OW22871   0.783   6.255   4.133  0.2235  0.1917 -0.5029
 3631SOL    HW122872   0.712   6.193   4.120  0.3403  0.0799 -0.6135
 3631SOL    HW222873   0.837   6.246   4.055  2.0631 -1.9517  0.9174
 3632SOL     OW22874   8.537  11.725   7.847  0.0291  0.2146 -0.6027
 3632SOL    HW122875   8.514  11.738   7.939  0.7484 -2.1935 -0.0102
 3632SOL    HW222876   8.621  11.770   7.837  0.6291 -0.6609  0.3129
 3633SOL     OW22877   2.748   2.367   2.456 -0.1865 -0.0355 -0.5482
 3633SOL    HW122878   2.841   2.342   2.448 -0.2928 -0.6847  0.1589
 3633SOL    HW222879   2.700   2.292   2.423 -0.5040 -0.6075  1.1528
 3634SOL     OW22880   1.531   2.039   7.169  0.0787  0.1650 -0.2767
 3634SOL    HW122881   1.573   2.124   7.161 -1.1928  0.7052 -1.7951
 3634SOL    HW222882   1.594   1.978   7.131  0.2966  0.6914 -0.7826
 3635SOL     OW22883  12.669   9.076   1.867  0.0749 -0.0249  0.2634
 3635SOL    HW122884  12.702   9.146   1.924  1.1820  0.5649 -1.0246
 3635SOL    HW222885  12.625   9.015   1.926 -0.2989  1.3939  1.5194
 3636SOL     OW22886   4.747   5.101   5.171  0.4546  0.6123  0.4000
 3636SOL    HW122887   4.788   5.061   5.094 -0.1096 -0.2760  0.5503
 3636SOL    HW222888   4.654   5.101   5.151  0.4589  2.0378  0.3308
 3637SOL     OW22889   2.408   3.547   4.313 -0.4686  0.3702  0.0998
 3637SOL    HW122890   2.457   3.541   4.396 -0.0788 -1.2600 -0.2160
 3637SOL    HW222891   2.463   3.600   4.257 -0.8623  1.7336  0.9478
 3638SOL     OW22892  10.008  13.338   8.139 -0.5483 -0.5624 -0.0637
 3638SOL    HW122893  10.026  13.358   8.047 -1.1076  0.8153  0.1075
 3638SOL    HW222894  10.011  13.423   8.183  3.1159 -1.4392  1.8322
 3639SOL     OW22895   1.163   0.482   2.403 -0.6076  0.0404 -0.0321
 3639SOL    HW122896   1.248   0.502   2.443 -0.2952 -1.1226 -0.0800
 3639SOL    HW222897   1.181   0.482   2.309 -0.5665 -0.5862 -0.0279
 3640SOL     OW22898   4.022   3.168   4.971  0.4320 -0.3852 -0.7321
 3640SOL    HW122899   4.091   3.117   4.928 -0.4732 -1.5946 -0.8290
 3640SOL    HW222900   3.956   3.102   4.995  0.5023  0.3353  1.7607
 3641SOL     OW22901   6.019   0.497   5.656 -0.4983 -0.2940  0.2839
 3641SOL    HW122902   6.027   0.485   5.561  1.0655  0.7102  0.2392
 3641SOL    HW222903   6.010   0.409   5.691 -0.3693 -0.7301 -0.7533
 3642SOL     OW22904   1.214   1.178   1.511  0.2462 -0.4117  0.1309
 3642SOL    HW122905   1.158   1.144   1.581 -0.8686 -1.8223 -1.3658
 3642SOL    HW222906   1.266   1.103   1.483  0.7097  0.1414 -0.5271
 3643SOL     OW22907  10.823  10.029   2.870 -0.1890  0.1219  0.2531
 3643SOL    HW122908  10.788   9.999   2.786 -0.2231 -1.3518  0.7768
 3643SOL    HW222909  10.917  10.012   2.865  0.0606  1.4914 -0.0725
 3644SOL     OW22910   3.076  12.546   0.011 -0.4065 -0.8703 -0.2830
 3644SOL    HW122911   3.136  12.615   0.040 -0.6756 -0.5194 -0.5725
 3644SOL    HW222912   3.025  12.525   0.089 -0.3074 -0.7605 -0.1880
 3645SOL     OW22913   4.892   4.738   6.364  0.5528  0.2310  0.5290
 3645SOL    HW122914   4.843   4.733   6.446 -0.1791 -1.6663  0.0385
 3645SOL    HW222915   4.970   4.685   6.379  1.2210  1.1756  0.4854
 3646SOL     OW22916   4.493   3.281   1.542  0.0069  0.1420  0.1013
 3646SOL    HW122917   4.400   3.257   1.532  0.3260 -0.5815 -1.3029
 3646SOL    HW222918   4.512   3.336   1.466  1.1705 -1.1720 -0.6048
 3647SOL     OW22919   3.865   7.503  13.096  0.3721  0.3689 -0.6875
 3647SOL    HW122920   3.894   7.412  13.093  1.5403  0.6913  0.2718
 3647SOL    HW222921   3.901   7.537  13.178 -2.3324  0.9408  0.3915
 3648SOL     OW22922  10.754  13.032   8.515  0.1510 -0.1121  0.0359
 3648SOL    HW122923  10.843  13.007   8.538  0.2463 -0.5063 -0.7343
 3648SOL    HW222924  10.700  12.959   8.544  0.3592 -0.9852 -1.6487
 3649SOL     OW22925   0.438  10.120   7.474 -0.2682 -0.3527  0.5993
 3649SOL    HW122926   0.464  10.134   7.565 -0.2140 -1.1432  0.7167
 3649SOL    HW222927   0.395  10.201   7.448  1.1232  0.4727  0.8235
 3650SOL     OW22928   3.485   0.935   1.830  0.0666 -0.1882 -0.2631
 3650SOL    HW122929   3.399   0.901   1.857 -0.2240 -0.8074 -1.8427
 3650SOL    HW222930   3.466   0.987   1.752  1.1247 -0.3921 -0.6776
 3651SOL     OW22931   1.669   7.862  10.855 -0.0362 -0.4191 -0.0011
 3651SOL    HW122932   1.677   7.845  10.761  0.1967  0.5270 -0.1696
 3651SOL    HW222933   1.752   7.905  10.878 -0.5394  0.3621  0.3935
 3652SOL     OW22934  11.068   9.205   4.592  0.5575 -0.1223  0.3196
 3652SOL    HW122935  11.112   9.197   4.507 -0.7297  1.5328 -0.5624
 3652SOL    HW222936  11.120   9.150   4.651  0.9675 -2.0622 -1.7031
 3653SOL     OW22937  11.834   3.960   2.031 -0.2954  0.3995  0.4381
 3653SOL    HW122938  11.772   3.984   1.962 -0.5091  2.6166  1.3262
 3653SOL    HW222939  11.798   3.879   2.068 -1.0203  0.0349 -1.0032
 3654SOL     OW22940   4.028   4.631   0.542 -0.1472  0.1496  0.1651
 3654SOL    HW122941   3.952   4.687   0.525  0.6416  1.1626 -0.1647
 3654SOL    HW222942   4.100   4.692   0.559  0.4409 -0.7951  1.2024
 3655SOL     OW22943  12.235   1.279   5.279 -0.2224 -0.5172  0.3424
 3655SOL    HW122944  12.254   1.363   5.321  0.0880 -0.2919 -0.2367
 3655SOL    HW222945  12.139   1.278   5.270 -0.2376 -0.2789  0.4645
 3656SOL     OW22946  11.521   0.005  12.004  0.7069  0.7801 -0.5370
 3656SOL    HW122947  11.435  -0.031  11.983  0.5427 -0.3244  1.8094
 3656SOL    HW222948  11.583  -0.052  11.958  0.2515  0.9006 -1.3194
 3657SOL     OW22949   7.227   2.543   5.866  0.0105 -0.5194  0.6460
 3657SOL    HW122950   7.203   2.522   5.957 -2.2894  0.3390  0.2956
 3657SOL    HW222951   7.181   2.624   5.847  0.1864 -0.8474 -1.4164
 3658SOL     OW22952   0.686   7.882   2.130 -0.4632  0.3016  0.4333
 3658SOL    HW122953   0.718   7.948   2.192  0.1529  0.2141  0.2141
 3658SOL    HW222954   0.765   7.851   2.085 -0.5462 -1.6014  1.5120
 3659SOL     OW22955  10.386   5.725   1.764  0.7415  0.0953 -0.1192
 3659SOL    HW122956  10.319   5.659   1.742  0.5462  0.1290  0.3525
 3659SOL    HW222957  10.364   5.751   1.854  0.3908  1.3189 -0.5407
 3660SOL     OW22958   2.551   7.923  10.982  0.1475  0.1026 -0.1753
 3660SOL    HW122959   2.467   7.899  10.944  0.7370  0.5026 -1.8081
 3660SOL    HW222960   2.598   7.967  10.912  1.1702  1.2121  1.1421
 3661SOL     OW22961  11.370  10.180  12.011  0.4518  0.0912 -0.0867
 3661SOL    HW122962  11.340  10.154  11.923  0.5408  1.3129 -0.4898
 3661SOL    HW222963  11.380  10.097  12.058  1.9382 -0.7187 -1.7201
 3662SOL     OW22964   9.518   9.680   5.946  0.5483  0.6427  0.6303
 3662SOL    HW122965   9.424   9.687   5.963  0.6190 -0.1226  1.4303
 3662SOL    HW222966   9.529   9.708   5.855 -0.2159  2.3466  1.0411
 3663SOL     OW22967   7.448  13.982   2.071 -0.0638  0.0365 -0.2391
 3663SOL    HW122968   7.494  13.975   2.154 -0.1970 -1.1712 -0.2426
 3663SOL    HW222969   7.377  13.918   2.078 -1.2920  1.3387 -0.5154
 3664SOL     OW22970   2.392   8.909  13.865  0.0912 -0.4291 -0.6583
 3664SOL    HW122971   2.347   8.956  13.935  0.0934  0.0164 -0.9497
 3664SOL    HW222972   2.373   8.960  13.786  0.0965 -0.9175 -0.9824
 3665SOL     OW22973   0.354   7.555   9.018 -0.1889  0.4175 -0.4426
 3665SOL    HW122974   0.334   7.627   9.078 -0.5564 -0.4929  0.5586
 3665SOL    HW222975   0.278   7.550   8.960 -0.6384  0.1603  0.1641
 3666SOL     OW22976   9.606   3.875   8.618  0.0660  0.4481 -0.2442
 3666SOL    HW122977   9.678   3.890   8.679 -1.6003 -0.2038  2.0538
 3666SOL    HW222978   9.569   3.791   8.645  1.0392 -1.4852 -4.1965
 3667SOL     OW22979   3.076   6.857  10.192  0.0003  0.1741 -0.1124
 3667SOL    HW122980   3.055   6.846  10.285 -0.0507 -1.4418 -0.2896
 3667SOL    HW222981   3.123   6.941  10.188  0.4675  0.0201  1.4418
 3668SOL     OW22982   7.972   4.630   1.022 -0.1277 -0.5448 -0.2562
 3668SOL    HW122983   8.066   4.620   1.006  0.6763  1.5359  2.4544
 3668SOL    HW222984   7.954   4.722   1.004 -1.0205 -0.2643  1.7830
 3669SOL     OW22985   5.742   5.243   5.711  0.0398  0.1200  0.0882
 3669SOL    HW122986   5.822   5.288   5.685 -0.5471  1.2026  0.1015
 3669SOL    HW222987   5.751   5.232   5.806  0.1534  0.2905  0.0986
 3670SOL     OW22988  10.313   6.703   5.853  0.3971 -0.3411  0.8851
 3670SOL    HW122989  10.274   6.766   5.792 -0.7994 -1.0699  0.8719
 3670SOL    HW222990  10.307   6.619   5.808  0.8364 -0.6596  1.4189
 3671SOL     OW22991   5.547  13.450   3.201  0.0562  0.6411  0.0457
 3671SOL    HW122992   5.585  13.362   3.205  0.6387  0.8719 -0.2751
 3671SOL    HW222993   5.458  13.436   3.170  0.4246  0.2408 -0.8756
 3672SOL     OW22994   8.874  10.625   3.433 -0.1622 -0.1680 -0.0162
 3672SOL    HW122995   8.857  10.718   3.415  2.4809  0.6725  1.2495
 3672SOL    HW222996   8.961  10.609   3.396 -0.0769 -1.8261  0.8074
 3673SOL     OW22997   2.857  12.042   2.599  0.4043 -0.0064  0.7281
 3673SOL    HW122998   2.880  11.949   2.600  1.6524  0.2833  0.6595
 3673SOL    HW222999   2.864  12.070   2.690 -0.4605 -0.0809  0.8265
 3674SOL     OW23000  11.732   6.623  12.267  0.5200 -0.2517 -0.0960
 3674SOL    HW123001  11.731   6.715  12.293 -0.5245 -0.6714  1.4685
 3674SOL    HW223002  11.726   6.575  12.349  0.1300 -1.7085 -0.9481
 3675SOL     OW23003   3.015  13.856   3.752  0.2329 -0.1926  0.1512
 3675SOL    HW123004   2.965  13.935   3.732 -0.1274  0.2013  2.3694
 3675SOL    HW223005   3.104  13.888   3.770  0.5403 -0.5297 -0.6942
 3676SOL     OW23006   1.013   3.911  13.960 -0.0263 -0.7840  0.4237
 3676SOL    HW123007   1.024   3.961  14.041 -0.6611  0.3883 -0.1835
 3676SOL    HW223008   1.027   3.975  13.890 -0.8568 -1.4558 -0.3868
 3677SOL     OW23009   0.399  10.282   4.395  0.2749  0.7445 -0.1827
 3677SOL    HW123010   0.365  10.218   4.458  1.5438  0.2266  0.0137
 3677SOL    HW223011   0.340  10.275   4.320  0.9966 -1.4871 -0.6167
 3678SOL     OW23012   1.793   0.104   3.609 -0.1248  0.4608 -0.3376
 3678SOL    HW123013   1.709   0.148   3.600  0.3860  1.7760  0.9162
 3678SOL    HW223014   1.771   0.012   3.618 -1.5646  0.9104  1.3189
 3679SOL     OW23015   1.491  11.220  11.790  0.0574  0.3387  0.1542
 3679SOL    HW123016   1.430  11.262  11.730  2.2675 -0.2641 -2.7223
 3679SOL    HW223017   1.474  11.126  11.781  0.2773  0.2474  0.6258
 3680SOL     OW23018   8.982  10.918   0.128 -1.0009  0.1719  0.1836
 3680SOL    HW123019   9.042  10.886   0.061 -2.6338 -0.0328 -1.2793
 3680SOL    HW223020   8.979  11.012   0.114 -0.8746  0.2012  0.3626
 3681SOL     OW23021   5.651   2.836   9.029  0.3490  0.0719  0.5540
 3681SOL    HW123022   5.718   2.892   8.988 -2.3120  1.7229 -1.9194
 3681SOL    HW223023   5.606   2.894   9.091 -1.4875  0.3699 -0.9628
 3682SOL     OW23024  13.903   8.830   6.987  0.5093  0.2523  0.0455
 3682SOL    HW123025  13.895   8.848   7.081  0.5046 -1.6708  0.4534
 3682SOL    HW223026  13.959   8.900   6.954  1.7316  0.1565  1.7697
 3683SOL     OW23027   8.499  13.916   6.631 -0.3891 -0.3106 -0.1662
 3683SOL    HW123028   8.582  13.951   6.599  0.1068 -0.4500  0.9206
 3683SOL    HW223029   8.436  13.988   6.618  0.3798  0.6253  1.0011
 3684SOL     OW23030   4.934  10.238  11.750  0.2364  0.6777 -0.3594
 3684SOL    HW123031   4.939  10.266  11.841 -3.0929  0.1964  0.1223
 3684SOL    HW223032   4.914  10.318  11.701 -0.0292  0.6196 -0.3490
 3685SOL     OW23033  12.745   9.139   2.263  0.2092 -0.2817  0.2782
 3685SOL    HW123034  12.715   9.064   2.314 -1.4802  1.1288  1.4458
 3685SOL    HW223035  12.831   9.159   2.300 -0.6619  0.2527  2.1327
 3686SOL     OW23036   9.301   4.006  11.059 -0.8864  0.6644  0.1772
 3686SOL    HW123037   9.216   3.984  11.022 -0.4811 -0.2723 -0.2115
 3686SOL    HW223038   9.359   3.936  11.030 -0.0203  1.1933  0.5929
 3687SOL     OW23039  12.727   8.863   0.545 -0.5149 -0.3318  0.3444
 3687SOL    HW123040  12.760   8.797   0.484  0.1214  0.8201 -0.6088
 3687SOL    HW223041  12.670   8.918   0.492 -1.4646 -0.4116  1.2526
 3688SOL     OW23042  12.718  10.567   5.858 -0.0146 -0.1117 -0.9564
 3688SOL    HW123043  12.794  10.612   5.824  1.0603 -0.0389  1.3518
 3688SOL    HW223044  12.721  10.480   5.819  1.4266 -0.1903 -0.7040
 3689SOL     OW23045  13.790   6.006  12.222 -0.0880  0.4279 -0.2333
 3689SOL    HW123046  13.826   6.081  12.174 -0.8246  1.9002  1.3943
 3689SOL    HW223047  13.695   6.014  12.213 -0.1774 -1.4882 -1.6636
 3690SOL     OW23048  11.518   7.552  12.833  0.3023  0.0455  0.3986
 3690SOL    HW123049  11.442   7.534  12.888  0.3166  0.4408  0.5506
 3690SOL    HW223050  11.554   7.466  12.812 -1.1511 -0.2530 -1.0584
 3691SOL     OW23051  12.921  13.226   6.949 -0.4293 -0.0242 -0.1010
 3691SOL    HW123052  12.910  13.279   7.028  0.1383 -0.4665  0.2781
 3691SOL    HW223053  12.948  13.289   6.882  0.7791  0.1042  0.4767
 3692SOL     OW23054  13.521   6.228   8.190  0.2431 -0.1354  0.5556
 3692SOL    HW123055  13.554   6.145   8.224  0.1902  0.9567  3.5758
 3692SOL    HW223056  13.552   6.294   8.253 -2.1058  1.7862 -0.1509
 3693SOL     OW23057   4.289   2.626  13.988 -0.8245  0.0922  0.3020
 3693SOL    HW123058   4.223   2.694  13.998 -1.3821 -0.1751 -1.3033
 3693SOL    HW223059   4.338   2.652  13.910  1.0642  0.3396  1.5039
 3694SOL     OW23060   5.758   6.022   5.531 -0.0520 -0.7376  0.0620
 3694SOL    HW123061   5.767   6.104   5.580  0.2505 -0.2151 -0.8498
 3694SOL    HW223062   5.841   5.976   5.548 -0.3764 -1.0351  0.8814
 3695SOL     OW23063  12.685   4.119   3.267 -0.1005  0.1749 -0.7085
 3695SOL    HW123064  12.690   4.215   3.270  0.0366  0.2166 -1.7011
 3695SOL    HW223065  12.765   4.092   3.221  1.6679 -0.6986  2.6121
 3696SOL     OW23066  13.181   4.589   5.162  0.6523  0.0648  0.0157
 3696SOL    HW123067  13.113   4.655   5.150  1.1069  0.5298 -0.0390
 3696SOL    HW223068  13.142   4.508   5.129  1.3870  1.0222 -3.6915
 3697SOL     OW23069   5.108  12.804   3.546 -0.5812 -0.4543 -0.7717
 3697SOL    HW123070   5.084  12.713   3.565 -1.4531 -0.1974 -0.6030
 3697SOL    HW223071   5.035  12.856   3.580 -1.1970  0.1662 -2.8730
 3698SOL     OW23072   8.557   7.779   1.116 -0.3074  0.3015  0.0244
 3698SOL    HW123073   8.588   7.759   1.205  0.5306  1.2066 -0.0487
 3698SOL    HW223074   8.569   7.698   1.067 -1.0494 -0.2968  0.8036
 3699SOL     OW23075   1.002   8.608   2.404  0.6541  0.6492 -0.7108
 3699SOL    HW123076   0.984   8.688   2.452 -0.3082 -0.3012  0.5889
 3699SOL    HW223077   1.095   8.591   2.417  0.3165  0.1303  1.3360
 3700SOL     OW23078  10.919   5.032  13.829  0.0771 -0.2228 -0.3074
 3700SOL    HW123079  10.845   5.093  13.833  1.1397  1.4431 -2.9399
 3700SOL    HW223080  10.880   4.949  13.799 -0.9796  0.0132  0.3599
 3701SOL     OW23081   2.901   2.031   2.633  0.3271 -0.1959  0.4887
 3701SOL    HW123082   2.956   2.080   2.572  1.1810 -1.0803  0.5228
 3701SOL    HW223083   2.887   1.946   2.590  0.5048 -0.6405  1.2931
 3702SOL     OW23084   8.575   1.871   3.971 -0.0429 -0.0361 -0.2483
 3702SOL    HW123085   8.521   1.937   3.928  0.0797  0.2224 -0.0094
 3702SOL    HW223086   8.562   1.792   3.919 -2.6011 -0.6743  1.1887
 3703SOL     OW23087   3.716   8.333   1.736 -0.5030 -0.5559  0.4500
 3703SOL    HW123088   3.809   8.322   1.720 -0.2941 -0.5364  1.5690
 3703SOL    HW223089   3.695   8.420   1.704 -0.2642 -0.7830 -0.3297
 3704SOL     OW23090   1.280   0.670   4.257 -0.3053  1.2064 -0.9520
 3704SOL    HW123091   1.249   0.722   4.332  0.6466 -0.4296  0.6317
 3704SOL    HW223092   1.336   0.603   4.295  2.6041  2.0286 -3.3977
 3705SOL     OW23093   2.015   1.859  12.400 -0.2366  0.1074 -0.6708
 3705SOL    HW123094   2.030   1.796  12.329 -2.1039  0.0000 -1.0270
 3705SOL    HW223095   1.929   1.836  12.435  0.1776  0.8482  0.9352
 3706SOL     OW23096   5.601   7.732  12.273 -0.6969  0.4841  0.5520
 3706SOL    HW123097   5.666   7.766  12.334 -0.1891  0.5479 -0.0212
 3706SOL    HW223098   5.652   7.686  12.207 -1.1023  1.9303 -0.8125
 3707SOL     OW23099  11.126   6.011   4.123 -0.1182  0.1000 -0.3361
 3707SOL    HW123100  11.070   5.934   4.121 -1.8606  1.2749  0.4639
 3707SOL    HW223101  11.213   5.978   4.102 -0.3697 -2.4615  2.0205
 3708SOL     OW23102   6.920   2.476   8.921 -0.3893  0.1737 -0.3760
 3708SOL    HW123103   6.889   2.464   9.011  0.4000  0.2263 -0.0912
 3708SOL    HW223104   6.966   2.560   8.923 -0.1384  0.0460 -0.7645
 3709SOL     OW23105   1.277   4.303   8.215  0.0700 -0.0346 -0.2985
 3709SOL    HW123106   1.347   4.245   8.185  0.9706 -0.9076  3.0128
 3709SOL    HW223107   1.197   4.252   8.206  0.2821 -0.2250 -1.1923
 3710SOL     OW23108   3.253  11.196   2.006  0.2005 -0.9105  0.3106
 3710SOL    HW123109   3.334  11.145   2.003  0.1003 -1.3515  2.7488
 3710SOL    HW223110   3.184  11.131   1.995  0.1224 -1.1382  1.8633
 3711SOL     OW23111   3.393   7.198   7.464 -0.4141 -0.1642 -0.6911
 3711SOL    HW123112   3.314   7.251   7.455  0.2241  1.1212  0.7599
 3711SOL    HW223113   3.461   7.249   7.420  0.0034 -0.2578 -0.1598
 3712SOL     OW23114  11.734  11.488   9.296  0.0642 -0.1400 -0.8241
 3712SOL    HW123115  11.827  11.512   9.299  0.0656 -0.2359  0.4073
 3712SOL    HW223116  11.733  11.402   9.252  0.6474 -0.5239 -0.1082
 3713SOL     OW23117   1.045  10.041  13.257  0.0059 -0.0947  0.1037
 3713SOL    HW123118   1.093  10.053  13.339 -0.3844  0.4281  0.2660
 3713SOL    HW223119   0.971  10.102  13.264  1.5483  2.1995 -1.8713
 3714SOL     OW23120  11.563   3.313   3.460 -0.1313  0.9743  0.4654
 3714SOL    HW123121  11.598   3.387   3.411  0.2250  1.8996  2.0415
 3714SOL    HW223122  11.631   3.291   3.523 -0.4255 -0.4156  0.3269
 3715SOL     OW23123   1.731   4.604   0.663 -0.5731  0.0326 -0.2417
 3715SOL    HW123124   1.709   4.683   0.712  0.4339  0.4085 -0.3718
 3715SOL    HW223125   1.647   4.574   0.627 -0.9153  1.2595 -0.5178
 3716SOL     OW23126   7.900   9.738  11.177  0.0044 -0.4376  0.3294
 3716SOL    HW123127   7.928   9.675  11.111 -0.0345  0.8492 -0.9524
 3716SOL    HW223128   7.980   9.757  11.227  0.2299 -0.7640  0.0962
 3717SOL     OW23129  12.248   0.047  13.709 -0.1101 -0.0931  0.5732
 3717SOL    HW123130  12.321   0.065  13.649 -0.8666 -0.4648 -0.4801
 3717SOL    HW223131  12.241  -0.048  13.710  0.5837 -0.1674  2.1352
 3718SOL     OW23132   9.325  10.365   2.602  0.0966 -0.1125  0.7780
 3718SOL    HW123133   9.269  10.338   2.529  0.9636  1.5187 -0.5829
 3718SOL    HW223134   9.265  10.384   2.673 -1.0783  0.9412 -0.4260
 3719SOL     OW23135   6.269   7.903   7.678 -0.6429  0.0156 -0.5624
 3719SOL    HW123136   6.323   7.981   7.692 -0.3489 -0.4482  0.9898
 3719SOL    HW223137   6.211   7.928   7.606  1.0394  0.8204 -1.7378
 3720SOL     OW23138   9.012   3.529   9.505 -0.1225 -0.3092 -0.3464
 3720SOL    HW123139   9.027   3.512   9.412 -1.4929  0.2982 -0.7130
 3720SOL    HW223140   8.976   3.446   9.539 -0.1439 -0.3598 -0.4921
 3721SOL     OW23141   1.626   7.259   0.954 -0.2773 -0.0584 -0.0124
 3721SOL    HW123142   1.696   7.287   1.013  0.5079 -0.8940 -0.5135
 3721SOL    HW223143   1.635   7.315   0.877  0.9595 -1.2771 -0.7952
 3722SOL     OW23144   8.114   1.438  11.114  0.7173 -0.2558 -0.4575
 3722SOL    HW123145   8.110   1.526  11.075 -0.7732 -0.8318 -1.6826
 3722SOL    HW223146   8.031   1.428  11.160  0.0254 -1.7005 -1.9233
 3723SOL     OW23147   3.229  13.952  13.762  0.3675  0.5319  0.0598
 3723SOL    HW123148   3.281  13.966  13.683  0.7079  1.5294  0.4425
 3723SOL    HW223149   3.290  13.912  13.824 -0.1996 -1.3656 -0.5224
 3724SOL     OW23150   3.150  10.645   8.323 -0.2381 -0.3248 -0.2438
 3724SOL    HW123151   3.056  10.649   8.309 -0.3004 -0.6207  0.0805
 3724SOL    HW223152   3.162  10.573   8.385 -0.1537  2.1569  2.8542
 3725SOL     OW23153   6.559   5.096  11.605  0.5688 -0.1061  0.1519
 3725SOL    HW123154   6.560   5.179  11.558 -1.6012  0.4777  1.0570
 3725SOL    HW223155   6.647   5.060  11.591  1.5315  2.2650 -0.3545
 3726SOL     OW23156   1.754   5.622   9.027  0.5974 -0.5545 -0.2763
 3726SOL    HW123157   1.731   5.531   9.043  1.3845 -0.2906  3.2555
 3726SOL    HW223158   1.762   5.629   8.932 -2.0539 -3.4617 -0.8759
 3727SOL     OW23159   6.656  12.241   0.050  0.0358  0.2934  0.1658
 3727SOL    HW123160   6.663  12.273   0.140 -1.1495  1.0249  0.0261
 3727SOL    HW223161   6.741  12.200   0.031  0.1564 -0.2388  1.7477
 3728SOL     OW23162  12.414   8.838  13.495 -0.7833 -0.0527  0.0686
 3728SOL    HW123163  12.377   8.863  13.410 -0.6289 -2.3626 -0.7691
 3728SOL    HW223164  12.509   8.840  13.481 -0.7431  0.1644  0.3702
 3729SOL     OW23165  11.088   5.646  10.504  0.6826  0.0851  0.5769
 3729SOL    HW123166  10.994   5.663  10.514  0.9031  1.6793  0.3077
 3729SOL    HW223167  11.101   5.640  10.409  1.0421  1.2299  0.5421
 3730SOL     OW23168   7.786   5.870   1.420 -0.4762 -0.1207 -0.5674
 3730SOL    HW123169   7.713   5.810   1.435 -1.3900  1.2738  0.9715
 3730SOL    HW223170   7.744   5.955   1.409  0.8605  0.4890 -1.0520
 3731SOL     OW23171   9.909  12.719   0.245 -0.2371  0.4639 -0.3675
 3731SOL    HW123172   9.925  12.809   0.218 -0.8773  0.1478 -1.8922
 3731SOL    HW223173   9.974  12.668   0.196 -1.0520 -0.0703 -0.9021
 3732SOL     OW23174   0.390  11.941  10.769 -0.1402 -0.2464 -0.1300
 3732SOL    HW123175   0.345  12.017  10.732  0.1582 -0.9638 -2.0628
 3732SOL    HW223176   0.479  11.971  10.783  0.4483 -0.6433 -2.5268
 3733SOL     OW23177  12.199   6.713   4.727  0.1813 -0.2129  0.3257
 3733SOL    HW123178  12.138   6.769   4.775 -0.2112 -0.3446 -0.0164
 3733SOL    HW223179  12.170   6.624   4.746 -0.4518 -0.2556 -0.7524
 3734SOL     OW23180  13.697   6.854   8.458 -0.4680 -0.1372  0.2726
 3734SOL    HW123181  13.632   6.791   8.489  0.5936 -1.4661 -0.0780
 3734SOL    HW223182  13.764   6.855   8.527 -0.0396 -0.0865 -0.1362
 3735SOL     OW23183   4.531  11.486   3.818  0.1511  0.3235 -0.1736
 3735SOL    HW123184   4.518  11.400   3.779  3.0027 -0.8231  1.0740
 3735SOL    HW223185   4.514  11.473   3.911 -0.7481  1.4920 -0.1526
 3736SOL     OW23186  12.190   8.539   2.523  0.0728 -0.2473 -0.4896
 3736SOL    HW123187  12.277   8.525   2.561  0.2919 -1.7856 -1.5115
 3736SOL    HW223188  12.192   8.630   2.493  0.5918  0.3845  1.3169
 3737SOL     OW23189   9.892   6.534   5.842  0.6331 -0.0571  0.6371
 3737SOL    HW123190   9.910   6.502   5.754  0.1794 -1.5079  1.0308
 3737SOL    HW223191   9.871   6.626   5.831  1.2843 -0.0473 -0.6795
 3738SOL     OW23192   9.879  11.151   0.159 -0.0947 -0.3500 -0.0221
 3738SOL    HW123193   9.928  11.194   0.230 -0.5032  2.0132 -1.0768
 3738SOL    HW223194   9.791  11.139   0.194  0.7706 -3.5280  1.4528
 3739SOL     OW23195   2.747   3.340   3.996 -0.3429  0.3890  0.5564
 3739SOL    HW123196   2.722   3.432   3.997 -1.3038  0.1433  0.2587
 3739SOL    HW223197   2.780   3.322   4.084 -0.1327  1.0158  0.6065
 3740SOL     OW23198   6.665   3.651   5.470 -0.0976  0.4833 -0.0102
 3740SOL    HW123199   6.721   3.575   5.455  0.0639  0.6257 -0.1300
 3740SOL    HW223200   6.575   3.617   5.464 -0.0196  0.1424  0.7732
 3741SOL     OW23201  10.408  10.980   7.468  0.4293 -0.2410 -0.7413
 3741SOL    HW123202  10.380  11.014   7.383 -1.3558 -0.5364 -0.3235
 3741SOL    HW223203  10.420  11.057   7.523  0.6044 -0.0903 -0.9953
 3742SOL     OW23204   4.257   9.570   2.791  0.4933  0.0457  0.0766
 3742SOL    HW123205   4.208   9.489   2.803 -0.2943 -0.0284 -2.9679
 3742SOL    HW223206   4.192   9.634   2.762  1.3665  1.4070  0.9674
 3743SOL     OW23207  11.973   1.764   6.501  0.3787  0.0910  0.3259
 3743SOL    HW123208  11.932   1.735   6.419  0.1828  0.4443  0.2970
 3743SOL    HW223209  11.914   1.830   6.535  0.2267 -0.3859  0.9981
 3744SOL     OW23210  11.380   6.118   6.030 -0.5187  0.4007 -0.1471
 3744SOL    HW123211  11.371   6.213   6.031 -1.4743  0.3389  1.5022
 3744SOL    HW223212  11.474   6.102   6.033 -0.3449  1.2944 -0.6643
 3745SOL     OW23213   4.829   3.635   1.054 -0.0638  0.3818  0.3686
 3745SOL    HW123214   4.800   3.668   1.139 -0.8769 -1.5054  0.8721
 3745SOL    HW223215   4.789   3.548   1.047 -0.4877  0.7124 -2.1999
 3746SOL     OW23216   8.508   9.290  10.092  0.0160  0.2305 -0.1405
 3746SOL    HW123217   8.520   9.231  10.166  1.2808 -0.3921 -0.8177
 3746SOL    HW223218   8.487   9.232  10.018 -1.5957  0.8683 -0.2253
 3747SOL     OW23219   8.411   7.042   6.951 -0.5159 -0.7380 -0.0292
 3747SOL    HW123220   8.430   7.003   7.037  0.7726  0.6470  0.3536
 3747SOL    HW223221   8.493   7.083   6.925 -1.2072 -0.1992 -1.4439
 3748SOL     OW23222   2.350   0.968  13.511  0.5237  0.0558  0.3057
 3748SOL    HW123223   2.320   0.919  13.434  1.6309  1.5706 -1.1653
 3748SOL    HW223224   2.329   1.059  13.491  2.6880  0.7358  0.8526
 3749SOL     OW23225   7.694   4.045   9.526 -0.3074  0.4438  0.3172
 3749SOL    HW123226   7.624   3.993   9.486 -0.1781  0.9922 -0.6408
 3749SOL    HW223227   7.668   4.054   9.618 -0.7568 -0.5828  0.3065
 3750SOL     OW23228   7.203   3.671  13.107 -0.4512  0.1631 -0.4238
 3750SOL    HW123229   7.151   3.647  13.184  1.2384 -0.9564  0.4482
 3750SOL    HW223230   7.140   3.678  13.036 -1.8864 -0.2020  0.7624
 3751SOL     OW23231  11.606   4.389   8.260 -0.2870  0.6152 -0.2174
 3751SOL    HW123232  11.510   4.384   8.258 -0.2295 -0.8646 -1.1887
 3751SOL    HW223233  11.631   4.342   8.339 -0.3427  0.3182 -0.3746
 3752SOL     OW23234  13.813   2.625   7.803  0.2592 -0.6312  0.0335
 3752SOL    HW123235  13.842   2.608   7.892  0.7432  1.0672  0.2312
 3752SOL    HW223236  13.850   2.553   7.751  0.7439 -1.1311  1.0545
 3753SOL     OW23237  10.936   8.919  10.139  0.2300 -0.2012  0.3941
 3753SOL    HW123238  10.940   8.832  10.179 -0.0401 -0.1444  0.5477
 3753SOL    HW223239  10.844   8.944  10.145  0.3365  0.1699  0.5194
 3754SOL     OW23240   4.343   3.874   0.358  0.2863 -0.8545 -0.0121
 3754SOL    HW123241   4.298   3.875   0.274  2.5775 -1.2980 -1.3398
 3754SOL    HW223242   4.328   3.786   0.393 -0.7915 -0.6212  0.1484
 3755SOL     OW23243   0.706   8.652   3.962  0.0122 -0.0537 -0.1517
 3755SOL    HW123244   0.725   8.708   4.038  0.9573  2.4809 -2.0997
 3755SOL    HW223245   0.636   8.594   3.992 -0.5376  1.6858  2.2552
 3756SOL     OW23246  11.051   5.652   1.016  0.0446 -0.3772  0.2382
 3756SOL    HW123247  11.093   5.633   0.932  1.7363  1.0731  0.6864
 3756SOL    HW223248  11.101   5.599   1.079 -1.0324 -1.2388  0.3970
 3757SOL     OW23249   8.983   5.864   3.399  0.2448 -0.9016 -0.0210
 3757SOL    HW123250   8.982   5.773   3.368  1.2694 -0.7582 -0.5090
 3757SOL    HW223251   8.891   5.890   3.400 -0.0809 -2.0381  0.3978
 3758SOL     OW23252   1.100   3.305   3.371  0.3394 -0.1288  0.8424
 3758SOL    HW123253   1.192   3.318   3.348  0.6055 -0.0885  1.9016
 3758SOL    HW223254   1.081   3.216   3.340  0.4077  0.2489 -0.3616
 3759SOL     OW23255   1.360   6.207  13.409 -0.2865  0.1448 -0.2398
 3759SOL    HW123256   1.437   6.194  13.354  0.6520  0.2536  1.0181
 3759SOL    HW223257   1.299   6.139  13.380  0.8737 -0.9319 -0.2384
 3760SOL     OW23258  10.029   4.420   0.884  0.1722 -0.2991 -0.0815
 3760SOL    HW123259  10.032   4.472   0.804  0.0044  0.8206  0.6208
 3760SOL    HW223260  10.051   4.482   0.954  0.7769 -1.3557  0.6947
 3761SOL     OW23261   4.178   8.350   5.156 -0.0909 -0.2075 -0.4396
 3761SOL    HW123262   4.176   8.396   5.072  0.7981  2.1470  0.7344
 3761SOL    HW223263   4.094   8.304   5.161 -1.0364  1.3198 -1.7199
 3762SOL     OW23264   4.293   1.189  13.948  0.6526 -0.0475 -0.5602
 3762SOL    HW123265   4.353   1.133  13.999 -0.5612 -0.8185  0.0646
 3762SOL    HW223266   4.209   1.179  13.992 -0.4913 -0.8719 -2.7944
 3763SOL     OW23267   2.954   8.326   4.881  0.3473 -0.0300  0.4094
 3763SOL    HW123268   2.999   8.286   4.807 -1.3824  0.3045 -0.8862
 3763SOL    HW223269   2.908   8.252   4.923  1.1785 -0.1876  1.0755
 3764SOL     OW23270   1.418   8.285   7.619 -0.3847 -0.7468  0.5464
 3764SOL    HW123271   1.428   8.292   7.525 -0.2272  1.2082  0.6662
 3764SOL    HW223272   1.335   8.329   7.638  0.8700  1.3419  1.5418
 3765SOL     OW23273   2.216   0.460   8.713  0.3312 -0.4030  0.4694
 3765SOL    HW123274   2.132   0.473   8.670  0.5226 -1.2989 -0.1831
 3765SOL    HW223275   2.205   0.502   8.799 -0.5121  0.1685  0.0916
 3766SOL     OW23276   9.100  11.026  10.823  0.4876  0.0132 -0.5082
 3766SOL    HW123277   9.125  10.937  10.848  3.1711  0.7518 -0.2884
 3766SOL    HW223278   9.104  11.026  10.727  0.6451 -0.0429 -0.5007
 3767SOL     OW23279   8.254   7.886  13.200 -0.3922 -0.0553 -0.0383
 3767SOL    HW123280   8.173   7.924  13.233  0.3914  1.3377  0.3949
 3767SOL    HW223281   8.234   7.859  13.110 -1.5494 -0.5231  0.3449
 3768SOL     OW23282   7.812   9.505   4.333  0.8823  0.2136  0.3975
 3768SOL    HW123283   7.822   9.430   4.392  1.7515  0.4913  0.6139
 3768SOL    HW223284   7.850   9.579   4.380  3.3159  0.0841 -1.1890
 3769SOL     OW23285  11.632  13.648  11.654 -0.6512  0.3798 -0.5085
 3769SOL    HW123286  11.559  13.592  11.630  0.2413 -1.4863  0.8200
 3769SOL    HW223287  11.689  13.592  11.707  0.3115  2.5586  0.9309
 3770SOL     OW23288  12.217   7.538   9.277 -0.1122 -0.1195  0.8160
 3770SOL    HW123289  12.244   7.561   9.366  1.2202 -1.3731  0.7936
 3770SOL    HW223290  12.240   7.445   9.269 -0.7223 -0.1745 -0.6553
 3771SOL     OW23291   8.758   9.300   0.404 -0.0873  0.0246 -0.0589
 3771SOL    HW123292   8.715   9.374   0.446  1.4610  1.3875 -0.7731
 3771SOL    HW223293   8.784   9.332   0.317  2.1959 -0.7446  0.2611
 3772SOL     OW23294   1.241   7.754   7.626 -0.0259  0.1894 -0.1338
 3772SOL    HW123295   1.325   7.764   7.579  0.0327 -0.0148 -0.0743
 3772SOL    HW223296   1.266   7.718   7.711 -0.1975 -0.0906 -0.2031
 3773SOL     OW23297   8.045   3.876   8.522  0.6475 -0.0157  0.6430
 3773SOL    HW123298   8.024   3.967   8.503  1.1006  0.2295  1.3113
 3773SOL    HW223299   8.121   3.857   8.466 -0.4001 -0.4792 -0.6988
 3774SOL     OW23300   0.357   0.883   8.088 -0.9149  0.5941  0.1780
 3774SOL    HW123301   0.389   0.949   8.027  0.8702  1.0991  1.5751
 3774SOL    HW223302   0.276   0.921   8.123 -1.4264  0.7328 -1.0833
 3775SOL     OW23303  11.802   6.887  12.420  0.2382 -0.2489 -0.2212
 3775SOL    HW123304  11.842   6.903  12.505  0.6902  1.0423 -0.6448
 3775SOL    HW223305  11.724   6.943  12.420 -1.2625 -2.2104  0.3278
 3776SOL     OW23306  10.057   9.148   6.667  0.5546 -0.1546 -0.3448
 3776SOL    HW123307  10.095   9.108   6.745 -0.5057 -3.8793 -1.5266
 3776SOL    HW223308  10.099   9.103   6.594 -0.0253  1.7098 -1.9327
 3777SOL     OW23309  10.317   1.368  10.019  0.1849 -0.0489  0.1598
 3777SOL    HW123310  10.341   1.451  10.061  0.3067 -0.1638  0.3177
 3777SOL    HW223311  10.371   1.365   9.940 -0.0669  0.1818 -0.0231
 3778SOL     OW23312   7.661   0.212   7.088  0.3075 -1.0072 -0.4101
 3778SOL    HW123313   7.686   0.177   7.173 -4.9870  1.7310  2.8459
 3778SOL    HW223314   7.681   0.306   7.094 -0.6700 -0.6635 -1.9309
 3779SOL     OW23315   0.053  11.451  10.491 -0.2495 -0.3790 -0.2630
 3779SOL    HW123316   0.069  11.545  10.504  1.8675 -0.7122 -0.2733
 3779SOL    HW223317   0.077  11.410  10.574  0.4895 -1.0861 -0.8141
 3780SOL     OW23318   9.505   8.871   7.647  0.1006  0.2121 -0.3162
 3780SOL    HW123319   9.474   8.950   7.603  0.7833  0.3041 -0.6464
 3780SOL    HW223320   9.527   8.899   7.735 -0.0584  0.3004 -0.3041
 3781SOL     OW23321  12.267  10.626   6.566  0.7511 -0.4169  0.4642
 3781SOL    HW123322  12.290  10.560   6.632 -0.8145 -0.2987  1.1763
 3781SOL    HW223323  12.174  10.613   6.552  0.6733  0.8576 -0.2939
 3782SOL     OW23324   3.586   1.414   2.174  0.2310  0.2477 -0.1999
 3782SOL    HW123325   3.501   1.455   2.187  0.3089 -0.0492  1.4978
 3782SOL    HW223326   3.606   1.429   2.082 -1.7885  0.0688 -0.7252
 3783SOL     OW23327  11.066  11.849   0.262  0.1394 -0.1910  0.4440
 3783SOL    HW123328  11.019  11.771   0.292 -0.3137 -0.1104 -0.0431
 3783SOL    HW223329  11.124  11.818   0.193  0.0496 -0.1124  0.3344
 3784SOL     OW23330   6.648  13.850  12.549  0.1075 -0.2893  0.4647
 3784SOL    HW123331   6.578  13.910  12.523 -1.6361 -2.1859  0.6151
 3784SOL    HW223332   6.717  13.908  12.582 -0.7600  1.7237 -1.0476
 3785SOL     OW23333   9.265   1.077  13.908  0.2634  0.2152  0.3107
 3785SOL    HW123334   9.282   1.140  13.977 -1.3223 -0.0258  0.9623
 3785SOL    HW223335   9.256   1.130  13.829  1.5138  0.5444  0.3690
 3786SOL     OW23336   9.389   2.534  10.893 -0.0516  0.3420 -0.2103
 3786SOL    HW123337   9.434   2.513  10.811 -0.1905 -0.8037 -0.0060
 3786SOL    HW223338   9.338   2.456  10.913 -1.7941  1.4278 -0.1905
 3787SOL     OW23339   7.595  13.269   3.308  0.2782 -0.7614  0.0100
 3787SOL    HW123340   7.580  13.271   3.213 -0.6567 -0.5595  0.1476
 3787SOL    HW223341   7.684  13.302   3.319  0.6752 -1.5105 -0.8428
 3788SOL     OW23342   6.293   8.611  10.413 -0.1303 -0.0185 -0.2189
 3788SOL    HW123343   6.252   8.676  10.355  0.8580 -0.3491 -1.3255
 3788SOL    HW223344   6.220   8.573  10.462 -1.1130 -0.2436 -1.7869
 3789SOL     OW23345  13.779   1.849   1.851  0.3430 -0.1003 -0.8269
 3789SOL    HW123346  13.685   1.859   1.868  0.2739 -0.2066 -1.1387
 3789SOL    HW223347  13.817   1.836   1.938  0.2849  1.6079 -0.5033
 3790SOL     OW23348   0.136  10.345   6.507  0.5131  0.0624 -0.4163
 3790SOL    HW123349   0.123  10.273   6.445 -0.3721  0.3535 -0.5808
 3790SOL    HW223350   0.079  10.415   6.474 -0.3282  0.0622  0.9842
 3791SOL     OW23351   4.922   9.264  10.537  0.3895 -0.1759 -0.4397
 3791SOL    HW123352   4.913   9.359  10.538  1.3162 -0.0728 -0.8752
 3791SOL    HW223353   5.008   9.247  10.576  0.0669 -0.8618 -0.0004
 3792SOL     OW23354   8.199   0.500  13.242 -0.1841  0.3819 -0.0083
 3792SOL    HW123355   8.140   0.452  13.183 -0.3910 -0.2431  0.6873
 3792SOL    HW223356   8.209   0.442  13.317  2.2304 -0.0740 -0.5814
 3793SOL     OW23357   2.923   4.954   3.910  0.0838 -0.6507  0.0915
 3793SOL    HW123358   2.865   5.001   3.851  2.5742  0.6844 -1.4704
 3793SOL    HW223359   2.952   5.020   3.973 -0.1919 -1.3273  0.9458
 3794SOL     OW23360   5.312   7.038  10.199 -0.0023  0.2273 -0.3141
 3794SOL    HW123361   5.319   7.072  10.110 -0.2565 -1.1274 -0.8750
 3794SOL    HW223362   5.354   6.952  10.195 -0.9607 -0.3013  0.6062
 3795SOL     OW23363   8.650   2.495   0.865  0.0261 -0.0442  0.0816
 3795SOL    HW123364   8.587   2.559   0.899  1.9821  1.5759  0.8801
 3795SOL    HW223365   8.646   2.507   0.770  0.7216  1.7355  0.2275
 3796SOL     OW23366   9.410   1.984   4.148 -0.2881  0.2982  0.3021
 3796SOL    HW123367   9.353   1.949   4.216  0.3493  0.3552  0.8726
 3796SOL    HW223368   9.458   1.908   4.115 -0.7670  0.2322 -0.2549
 3797SOL     OW23369   8.872   3.576   8.399 -0.2835  0.1994  0.1728
 3797SOL    HW123370   8.924   3.498   8.382 -2.7730 -1.9009  1.4925
 3797SOL    HW223371   8.850   3.610   8.312  0.1197 -1.1061 -0.4627
 3798SOL     OW23372   2.888   3.781  10.380  0.1074 -0.2898  0.1905
 3798SOL    HW123373   2.932   3.739  10.306  0.0329 -1.4946  0.8008
 3798SOL    HW223374   2.797   3.789  10.353  0.3050  0.3894 -0.3063
 3799SOL     OW23375   9.498   2.695   0.580 -0.5691  0.5944 -0.5117
 3799SOL    HW123376   9.549   2.774   0.600  1.7718 -1.0386  0.4774
 3799SOL    HW223377   9.489   2.651   0.665  0.0945 -1.2427 -1.3557
 3800SOL     OW23378   0.007   7.238   8.732 -0.1334  0.2663  0.4827
 3800SOL    HW123379  -0.030   7.281   8.809 -0.1422  1.0703  0.0329
 3800SOL    HW223380  -0.062   7.245   8.665 -0.2740 -0.7535  0.5065
 3801SOL     OW23381   0.139   3.086   8.251 -0.0698 -0.1007 -0.0570
 3801SOL    HW123382   0.050   3.090   8.286  0.1337  0.6401  0.4081
 3801SOL    HW223383   0.177   3.008   8.293  0.0803  0.6151  1.1940
 3802SOL     OW23384   6.409   3.222   4.295 -0.2508  0.5465  0.0715
 3802SOL    HW123385   6.370   3.303   4.262 -0.9159  0.3048  0.2451
 3802SOL    HW223386   6.376   3.215   4.385  0.8398  0.7447  0.4979
 3803SOL     OW23387   5.434   4.886   9.508 -0.5734 -0.0452 -0.6394
 3803SOL    HW123388   5.437   4.791   9.511 -0.1969 -0.0124  0.9281
 3803SOL    HW223389   5.344   4.908   9.533 -1.2740  0.0013 -2.9870
 3804SOL     OW23390  13.792   2.307  10.492 -0.2355  0.6238  0.1142
 3804SOL    HW123391  13.859   2.300  10.424  0.9600  1.5108  1.1330
 3804SOL    HW223392  13.727   2.367  10.457 -1.2023 -1.2057 -1.3955
 3805SOL     OW23393  13.598   2.216   7.895 -0.4778  0.4013  0.1670
 3805SOL    HW123394  13.553   2.296   7.867 -0.7873 -0.2425 -1.2328
 3805SOL    HW223395  13.668   2.204   7.831 -0.2327 -0.2763  0.5510
 3806SOL     OW23396   9.951  13.296   6.233  0.5325 -0.3544 -0.7711
 3806SOL    HW123397   9.937  13.201   6.240  1.8354 -0.5347 -0.3054
 3806SOL    HW223398   9.905  13.321   6.154 -0.3851 -1.2651 -0.5479
 3807SOL     OW23399   1.930   8.280   4.218  0.3141 -0.3876 -0.1417
 3807SOL    HW123400   1.968   8.366   4.204  0.0452 -0.0877  0.9104
 3807SOL    HW223401   1.863   8.272   4.151 -0.4059  0.6812  0.4243
 3808SOL     OW23402   8.767   0.603  13.317  0.0730 -0.1154  0.0326
 3808SOL    HW123403   8.701   0.535  13.333 -0.6961  0.5252 -0.3101
 3808SOL    HW223404   8.818   0.605  13.398 -1.2417  0.3402  0.8996
 3809SOL     OW23405   8.674   0.585   9.411 -0.4984 -0.7200 -0.2643
 3809SOL    HW123406   8.633   0.499   9.421  0.2191 -0.8777  1.7327
 3809SOL    HW223407   8.612   0.646   9.453  0.5006 -0.7521  1.3504
 3810SOL     OW23408   0.798   5.248  12.287  0.0059  0.4656  0.1419
 3810SOL    HW123409   0.876   5.242  12.342  0.5994 -0.8706 -0.7811
 3810SOL    HW223410   0.822   5.201  12.207 -1.4002  0.9320 -0.5872
 3811SOL     OW23411  11.798   8.142   7.739 -0.1595 -0.2190  0.2348
 3811SOL    HW123412  11.812   8.054   7.773 -1.3393 -0.1117  1.0268
 3811SOL    HW223413  11.869   8.154   7.675  1.5824 -0.7449  1.9832
 3812SOL     OW23414   1.431   1.587  11.400 -0.1637  0.1879 -0.2573
 3812SOL    HW123415   1.412   1.649  11.329 -1.2399  0.4296  0.2167
 3812SOL    HW223416   1.364   1.606  11.466  0.0280 -0.9065  0.2620
 3813SOL     OW23417   3.149  11.107   2.298 -0.1340 -0.2590  0.3660
 3813SOL    HW123418   3.142  11.038   2.364  0.1858 -0.0596  0.6094
 3813SOL    HW223419   3.185  11.062   2.221  2.5413  0.1050  1.3013
 3814SOL     OW23420  12.047   4.974   8.862 -0.3294 -0.2615  0.2529
 3814SOL    HW123421  12.088   4.947   8.779 -0.7345 -0.1980  0.0308
 3814SOL    HW223422  12.102   4.935   8.930  0.7233  0.6833 -0.0191
 3815SOL     OW23423   0.716  10.736   6.079 -0.0002  0.3690  0.3657
 3815SOL    HW123424   0.637  10.749   6.131  0.1059  0.9485  0.3845
 3815SOL    HW223425   0.723  10.814   6.025 -0.3332 -0.3959 -0.8378
 3816SOL     OW23426   4.691   3.574   5.193  0.0451 -0.6955 -0.4079
 3816SOL    HW123427   4.610   3.584   5.143  1.3034 -0.1755 -2.4660
 3816SOL    HW223428   4.673   3.502   5.254 -1.1574 -2.3529 -2.5791
 3817SOL     OW23429  12.039   5.880   2.482 -0.2795 -0.7798 -0.1106
 3817SOL    HW123430  12.027   5.973   2.500  0.4956 -0.4247 -1.2764
 3817SOL    HW223431  11.951   5.846   2.467 -0.5315 -0.1496 -0.0687
 3818SOL     OW23432   8.828   2.740   3.315  0.3719 -0.6121 -0.1639
 3818SOL    HW123433   8.877   2.662   3.289  1.2971  0.1023 -0.6519
 3818SOL    HW223434   8.833   2.797   3.238  0.3699  0.2333  0.4556
 3819SOL     OW23435   9.078  13.137   2.726  0.2664  0.8099  0.4037
 3819SOL    HW123436   9.104  13.048   2.748  0.0128  0.9773  1.4597
 3819SOL    HW223437   8.987  13.130   2.697 -0.0887  0.8421  1.4751
 3820SOL     OW23438   8.124  13.143   8.477 -0.0744  0.1352 -0.1265
 3820SOL    HW123439   8.138  13.103   8.563 -0.6748 -0.6990 -0.4051
 3820SOL    HW223440   8.113  13.069   8.417  2.3578  0.6238 -1.3236
 3821SOL     OW23441   4.511   7.551   7.570  0.1924 -0.1027 -0.0733
 3821SOL    HW123442   4.423   7.521   7.593 -0.0103  1.2028  0.9698
 3821SOL    HW223443   4.539   7.492   7.500 -1.5073 -0.5364 -0.4309
 3822SOL     OW23444   1.553   3.936   5.799 -0.4362  0.1827  0.6314
 3822SOL    HW123445   1.578   3.966   5.887 -0.5151 -1.0827  1.1069
 3822SOL    HW223446   1.628   3.883   5.770 -0.7906 -0.1374  0.3055
 3823SOL     OW23447   5.617   9.824   2.520  0.2295  0.1976  0.2589
 3823SOL    HW123448   5.707   9.832   2.490 -0.1706  1.0010 -0.8162
 3823SOL    HW223449   5.569   9.791   2.443 -0.4038 -0.1592  0.7925
 3824SOL     OW23450   5.333   5.663  11.151 -0.0338  0.7090 -0.1908
 3824SOL    HW123451   5.260   5.638  11.207 -0.1404  0.3644 -0.4743
 3824SOL    HW223452   5.352   5.754  11.174  0.2825  0.4084  0.7855
 3825SOL     OW23453   1.070   7.245  13.476 -0.1597  0.6194  0.1656
 3825SOL    HW123454   1.157   7.206  13.485 -0.6014 -0.3009  0.6865
 3825SOL    HW223455   1.035   7.245  13.565 -1.5107 -1.0382 -0.3086
 3826SOL     OW23456  10.651   9.800   5.720  0.6848 -0.4543  0.0809
 3826SOL    HW123457  10.586   9.786   5.789  0.8309 -0.3444  0.2406
 3826SOL    HW223458  10.702   9.874   5.750  0.2373  0.1140 -0.5312
 3827SOL     OW23459  13.524   4.899   0.234  0.5173  0.1960 -0.4339
 3827SOL    HW123460  13.460   4.864   0.171  0.5238 -0.3019 -0.1717
 3827SOL    HW223461  13.606   4.903   0.184  1.1171 -2.4961  0.1486
 3828SOL     OW23462   8.242   0.596  11.893  0.2920  0.0282  0.1912
 3828SOL    HW123463   8.307   0.543  11.848  1.8754  1.7500  0.3389
 3828SOL    HW223464   8.290   0.635  11.967 -0.8333  1.5129  0.1832
 3829SOL     OW23465  11.041   3.977   9.996 -0.3482 -0.1870  0.1045
 3829SOL    HW123466  11.073   4.005   9.910 -0.8601 -0.4763 -0.1850
 3829SOL    HW223467  11.118   3.942  10.040 -0.0441  0.1404 -0.1662
 3830SOL     OW23468  10.275   5.433  11.843 -0.0940  0.2691  0.0968
 3830SOL    HW123469  10.180   5.436  11.855 -0.1719 -0.7092 -0.2206
 3830SOL    HW223470  10.295   5.513  11.794 -0.6899  0.7025  0.5477
 3831SOL     OW23471   2.804   8.627   6.315  0.1963 -0.6295  0.6651
 3831SOL    HW123472   2.811   8.537   6.285  1.4059 -0.1143 -0.7620
 3831SOL    HW223473   2.788   8.621   6.409  0.3509 -2.3228  0.5994
 3832SOL     OW23474   0.355   2.315   7.979  0.1909 -0.8201  0.2070
 3832SOL    HW123475   0.342   2.312   7.884 -2.6813 -2.0493  0.5420
 3832SOL    HW223476   0.299   2.388   8.008 -0.4911 -1.6751  1.1026
 3833SOL     OW23477   4.458   7.462   1.545 -0.1182  0.1691 -0.1492
 3833SOL    HW123478   4.527   7.528   1.548  0.8098 -0.7393 -0.8398
 3833SOL    HW223479   4.469   7.411   1.625 -0.0949  0.1268 -0.1795
 3834SOL     OW23480   4.461   8.601   1.618 -0.5824 -0.2517  0.0484
 3834SOL    HW123481   4.553   8.615   1.595 -0.4013  1.9261  1.7784
 3834SOL    HW223482   4.422   8.563   1.539  1.2132  1.4134 -1.7424
 3835SOL     OW23483   2.143   6.345   9.388  0.5684 -0.5211  0.8197
 3835SOL    HW123484   2.127   6.424   9.439  1.5223  0.6945 -0.6524
 3835SOL    HW223485   2.063   6.293   9.397 -0.2773  0.8499  1.4096
 3836SOL     OW23486   0.885  12.707  11.105 -0.0174  0.3920 -0.2255
 3836SOL    HW123487   0.915  12.638  11.045 -0.4345 -1.3618  1.4924
 3836SOL    HW223488   0.795  12.724  11.077 -0.6360 -1.3047  0.5911
 3837SOL     OW23489   2.975   9.142   4.666 -0.3947 -0.1621  0.7204
 3837SOL    HW123490   2.960   9.236   4.654 -1.0718 -0.4240 -0.7436
 3837SOL    HW223491   2.992   9.132   4.760 -0.7200  1.3651  0.9691
 3838SOL     OW23492   1.327   6.709  12.642 -0.0648 -0.1982  0.1575
 3838SOL    HW123493   1.342   6.614  12.649  0.1965 -0.1024  1.0323
 3838SOL    HW223494   1.358   6.744  12.725 -0.7903  0.5824  0.1090
 3839SOL     OW23495   2.865   4.403   5.345  0.2030 -0.4711 -0.4314
 3839SOL    HW123496   2.801   4.335   5.329 -0.4320 -0.3131  1.2150
 3839SOL    HW223497   2.940   4.380   5.290 -0.5193 -1.7366 -0.9097
 3840SOL     OW23498   0.330   1.013  11.755  0.8132  0.5473  0.2426
 3840SOL    HW123499   0.285   1.069  11.691  3.2049 -0.1003 -2.1906
 3840SOL    HW223500   0.357   1.073  11.824  1.2993  2.0129 -1.1515
 3841SOL     OW23501   2.543   6.324   7.928  0.4038  0.1039  0.1465
 3841SOL    HW123502   2.481   6.319   7.855 -1.9169 -1.2846  2.0591
 3841SOL    HW223503   2.509   6.395   7.983  0.6775 -0.4362  1.0432
 3842SOL     OW23504  13.332   5.973   2.301 -0.3387 -1.0297  0.1953
 3842SOL    HW123505  13.332   6.002   2.210  1.0652  0.2860  0.5632
 3842SOL    HW223506  13.424   5.953   2.319 -0.3096  0.2962  1.7590
 3843SOL     OW23507   1.998   7.743  13.438 -0.1059 -0.1397  0.1284
 3843SOL    HW123508   1.952   7.673  13.391  1.2663 -1.3053  0.4427
 3843SOL    HW223509   1.982   7.821  13.386 -0.4575 -0.9695 -1.0613
 3844SOL     OW23510  11.885   6.563   1.825 -0.4754 -0.5244 -0.4156
 3844SOL    HW123511  11.816   6.625   1.802  0.2634  0.2293 -0.6469
 3844SOL    HW223512  11.865   6.485   1.773 -0.3095  0.2233 -1.6517
 3845SOL     OW23513   1.584   3.011  11.985 -0.1034 -0.5496 -1.1846
 3845SOL    HW123514   1.601   3.098  11.947 -2.6598  0.5844  0.0276
 3845SOL    HW223515   1.512   2.976  11.933  0.4017 -1.6502 -1.1728
 3846SOL     OW23516   8.185   2.433  13.102 -0.7098  0.6315  0.5132
 3846SOL    HW123517   8.108   2.451  13.049 -0.9677  0.1684  0.7239
 3846SOL    HW223518   8.200   2.514  13.151 -0.1906  1.2308 -0.5915
 3847SOL     OW23519   1.108   6.648  12.961 -0.0021 -0.0508 -0.0729
 3847SOL    HW123520   1.096   6.619  12.870 -1.3447  0.1459  0.0142
 3847SOL    HW223521   1.161   6.727  12.954  1.5019 -1.0521 -0.5147
 3848SOL     OW23522  13.249   8.973   4.565  0.1323  0.3450  0.1676
 3848SOL    HW123523  13.241   8.891   4.516  0.0682 -0.1883  1.0508
 3848SOL    HW223524  13.164   8.984   4.609  0.2331  0.7390  0.2706
 3849SOL     OW23525   6.766   4.518  13.159 -1.0227 -0.0669  0.0973
 3849SOL    HW123526   6.713   4.598  13.148  0.0770  0.4959 -1.4377
 3849SOL    HW223527   6.702   4.448  13.164 -1.9528  0.6475 -1.2414
 3850SOL     OW23528   9.647   1.792   4.047  0.3661 -0.4868  0.5722
 3850SOL    HW123529   9.741   1.797   4.064  0.3377 -0.5788  0.7675
 3850SOL    HW223530   9.638   1.810   3.954  0.6176 -0.9008  0.4670
 3851SOL     OW23531   8.030   6.353  10.387  0.5629 -0.3566 -0.6651
 3851SOL    HW123532   8.045   6.437  10.430 -0.4574 -0.5568  0.1226
 3851SOL    HW223533   8.070   6.363  10.301 -0.0990  1.1653 -0.8292
 3852SOL     OW23534   6.527   1.144   5.947 -0.1134 -0.0014 -0.2678
 3852SOL    HW123535   6.498   1.116   6.034 -2.2027 -0.4385 -1.0618
 3852SOL    HW223536   6.523   1.239   5.950 -1.2375 -0.0402 -0.2091
 3853SOL     OW23537   4.890   8.014   0.290 -0.5351  0.3247 -0.1158
 3853SOL    HW123538   4.848   7.979   0.212 -1.2019 -0.1936  0.4585
 3853SOL    HW223539   4.972   7.966   0.298  0.4439  1.6746 -1.5172
 3854SOL     OW23540  13.674   9.842  13.379  0.1405 -0.4898 -0.3723
 3854SOL    HW123541  13.737   9.878  13.441  0.3059  0.0313 -0.8315
 3854SOL    HW223542  13.589   9.869  13.412  0.2767  0.5374 -0.8355
 3855SOL     OW23543   9.861  10.928  13.026  0.2246 -0.1858 -0.2608
 3855SOL    HW123544   9.950  10.961  13.031  0.2082 -0.2858  1.0598
 3855SOL    HW223545   9.833  10.921  13.117 -0.8409 -0.9492 -0.6261
 3856SOL     OW23546  12.420   9.454  10.288 -0.4739 -0.2231  0.4413
 3856SOL    HW123547  12.403   9.429  10.197  0.3968 -0.2942  0.2906
 3856SOL    HW223548  12.342   9.426  10.336 -1.5081  0.9592 -0.4760
 3857SOL     OW23549  12.973  12.183   9.600 -0.4195  0.1096 -0.2411
 3857SOL    HW123550  12.993  12.097   9.637  0.4753 -0.4113 -1.8386
 3857SOL    HW223551  12.878  12.181   9.586 -0.5039 -0.3562  0.3608
 3858SOL     OW23552   2.865   9.610   4.546 -0.3564  0.1712 -0.3955
 3858SOL    HW123553   2.799   9.589   4.612  1.1406 -1.8661  0.5693
 3858SOL    HW223554   2.866   9.534   4.488  1.1351  0.1185 -0.3504
 3859SOL     OW23555   3.513   9.113   2.758 -0.0608 -0.2998  0.2367
 3859SOL    HW123556   3.492   9.192   2.709  1.0398 -0.1146  0.0442
 3859SOL    HW223557   3.443   9.052   2.736 -1.1538  0.7289  0.6915
 3860SOL     OW23558   1.150  12.359  13.872  0.0252  0.2202 -0.5213
 3860SOL    HW123559   1.189  12.284  13.917  0.6123  0.7036 -0.2094
 3860SOL    HW223560   1.224  12.417  13.853 -0.5713  1.3829  0.5097
 3861SOL     OW23561  13.510   3.114   5.608  1.0206 -0.3818 -0.3649
 3861SOL    HW123562  13.513   3.086   5.700  0.5257 -0.2819 -0.3156
 3861SOL    HW223563  13.442   3.181   5.606  2.5333  1.2231 -0.3791
 3862SOL     OW23564   5.959   3.956   3.268  0.1523 -0.1442 -0.4910
 3862SOL    HW123565   6.036   3.929   3.218 -0.7049  1.3828 -2.7653
 3862SOL    HW223566   5.888   3.903   3.234 -0.8175  2.2062 -2.4217
 3863SOL     OW23567  10.764  11.652  10.365 -0.3104  0.2548  0.1412
 3863SOL    HW123568  10.829  11.683  10.429 -1.0047 -1.1038  1.5829
 3863SOL    HW223569  10.808  11.661  10.280  0.9953  1.2567  0.8794
 3864SOL     OW23570  12.913  11.298  13.695 -0.1276  0.2934 -0.0343
 3864SOL    HW123571  12.967  11.373  13.671  0.5357  0.1323  0.9016
 3864SOL    HW223572  12.951  11.224  13.649  0.7250  0.1065  0.9374
 3865SOL     OW23573  13.952  10.022  12.119 -0.3288 -0.2323 -0.2057
 3865SOL    HW123574  14.034   9.973  12.122  1.4163  2.4194 -0.9213
 3865SOL    HW223575  13.939  10.042  12.026 -1.3703  0.0715 -0.0140
 3866SOL     OW23576   9.335   0.103   1.349 -0.5179 -0.4097  0.7498
 3866SOL    HW123577   9.315   0.175   1.288 -0.7129 -1.0063  0.0948
 3866SOL    HW223578   9.427   0.084   1.334 -0.8093 -1.2254 -0.1012
 3867SOL     OW23579   3.935   2.402   1.260  0.0343 -0.2535 -0.4410
 3867SOL    HW123580   3.899   2.342   1.195 -1.7733  0.6063 -0.3200
 3867SOL    HW223581   3.860   2.424   1.316  0.5717  2.1709 -0.5483
 3868SOL     OW23582   9.215   0.368   0.236  0.0884 -0.2059  1.1982
 3868SOL    HW123583   9.248   0.296   0.183  0.9272  1.1033 -0.1559
 3868SOL    HW223584   9.192   0.328   0.320  1.0451 -1.9303  0.6918
 3869SOL     OW23585   5.421   1.037   3.311  0.3891  0.0793  0.1982
 3869SOL    HW123586   5.444   1.125   3.280 -2.0009  0.0162 -2.0989
 3869SOL    HW223587   5.498   0.984   3.294  0.2831  0.7522 -3.0478
 3870SOL     OW23588   3.803   6.840  10.041 -0.2796  0.2089 -0.1533
 3870SOL    HW123589   3.778   6.853  10.132 -0.4809 -0.6539 -0.0765
 3870SOL    HW223590   3.771   6.752  10.019  1.1653 -0.2432 -0.5731
 3871SOL     OW23591  12.316   9.064   7.764  0.1758  0.6458 -0.6000
 3871SOL    HW123592  12.409   9.061   7.740  0.9953 -1.7977  2.2451
 3871SOL    HW223593  12.276   8.996   7.710  0.3471  0.6353 -0.7177
 3872SOL     OW23594  11.774   5.149   1.254 -0.2651 -0.3188  0.3054
 3872SOL    HW123595  11.800   5.075   1.199 -0.8734  0.7101 -1.4318
 3872SOL    HW223596  11.682   5.165   1.231 -0.2847  0.6857  1.0243
 3873SOL     OW23597  12.595   2.031   3.418  0.6026 -0.1803  0.3282
 3873SOL    HW123598  12.636   2.070   3.496  2.2188 -1.6321  0.2660
 3873SOL    HW223599  12.544   1.958   3.452 -1.7905  1.4021  0.3603
 3874SOL     OW23600   0.181   5.567   5.114 -0.1885 -0.1326 -0.0585
 3874SOL    HW123601   0.217   5.478   5.121  1.1275  0.1271 -2.4577
 3874SOL    HW223602   0.121   5.563   5.039 -0.4584  0.8945  0.0855
 3875SOL     OW23603   7.407  11.074   1.636  0.4758  0.0246 -0.2368
 3875SOL    HW123604   7.352  11.120   1.699  0.2531 -0.1192 -0.3228
 3875SOL    HW223605   7.359  11.081   1.553 -0.1975 -1.4366 -0.0105
 3876SOL     OW23606  13.713   8.607   1.654  0.0641  0.1852 -0.3856
 3876SOL    HW123607  13.752   8.662   1.722  1.6923 -1.4562  0.0776
 3876SOL    HW223608  13.787   8.567   1.609 -1.0167 -1.9260 -0.4482
 3877SOL     OW23609  13.441   4.649   0.459  0.0816  1.2547  0.2742
 3877SOL    HW123610  13.461   4.564   0.499  0.2389  1.9535  1.7369
 3877SOL    HW223611  13.525   4.694   0.452  0.0175  1.2649 -0.6206
 3878SOL     OW23612   5.007   6.913   6.826  0.3525 -0.1599  0.2823
 3878SOL    HW123613   5.065   6.908   6.750  0.7919 -0.7459  0.6436
 3878SOL    HW223614   4.943   6.980   6.804  1.8976  1.4028  0.3804
 3879SOL     OW23615   4.144   8.091   8.831 -0.1154  0.5160  0.0588
 3879SOL    HW123616   4.089   8.016   8.853  1.9706 -1.0085  0.3537
 3879SOL    HW223617   4.097   8.134   8.760 -1.5608 -0.8651  0.1171
 3880SOL     OW23618  12.839   3.379   8.787  0.5232  0.8085 -0.4487
 3880SOL    HW123619  12.826   3.446   8.853 -1.2104  0.5154 -0.4461
 3880SOL    HW223620  12.774   3.311   8.808  2.1967 -0.8925 -0.4467
 3881SOL     OW23621   4.374   0.498  13.287 -0.5031  0.0717  0.0851
 3881SOL    HW123622   4.367   0.412  13.246  2.0162 -0.8620  1.3726
 3881SOL    HW223623   4.299   0.503  13.346 -0.7990 -1.1552 -0.1665
 3882SOL     OW23624   9.990   0.798   0.999 -0.7137 -0.2984 -0.3525
 3882SOL    HW123625  10.027   0.839   0.921  0.9621  1.1414  1.0900
 3882SOL    HW223626  10.007   0.861   1.069 -0.6337 -2.2375  1.4816
 3883SOL     OW23627  11.241  13.175   1.012 -0.4223  0.2533  0.6732
 3883SOL    HW123628  11.242  13.214   1.100  0.0863  0.9231  0.3756
 3883SOL    HW223629  11.332  13.152   0.995 -0.6493 -0.7195  0.6734
 3884SOL     OW23630   5.318   3.112  11.684 -0.3290  0.3071  0.2041
 3884SOL    HW123631   5.321   3.174  11.757  0.4148 -0.4032  0.8004
 3884SOL    HW223632   5.247   3.052  11.707  1.4986 -1.4564  1.6945
 3885SOL     OW23633  13.703   0.215   0.826  0.3699  0.4543  0.3118
 3885SOL    HW123634  13.654   0.294   0.803 -2.2306 -1.0462  0.3017
 3885SOL    HW223635  13.659   0.181   0.904  1.5266 -0.8928  0.4187
 3886SOL     OW23636   2.180   7.770   7.016 -0.2665  0.0399  0.4289
 3886SOL    HW123637   2.230   7.797   6.939 -0.4167 -1.8615 -0.3766
 3886SOL    HW223638   2.225   7.691   7.047 -1.2523 -0.2181  1.2487
 3887SOL     OW23639   2.921   5.580   6.020  1.0544 -0.6845 -0.7511
 3887SOL    HW123640   2.899   5.653   6.078  1.5285 -0.3807 -0.9407
 3887SOL    HW223641   2.915   5.503   6.075  2.1434 -0.3359 -0.1079
 3888SOL     OW23642   5.921  10.644   7.645 -0.4958 -0.2817  0.0215
 3888SOL    HW123643   5.912  10.695   7.725  1.5572  1.1404 -0.5832
 3888SOL    HW223644   5.968  10.701   7.584  0.5714 -2.3296 -1.2179
 3889SOL     OW23645  12.500  11.422   8.111  0.2145 -0.2366  0.3657
 3889SOL    HW123646  12.561  11.349   8.123 -0.7064 -0.9926  0.5432
 3889SOL    HW223647  12.496  11.433   8.016  0.3875 -0.4005  0.3384
 3890SOL     OW23648  11.909   3.778   4.309  0.0829  0.0532 -0.1500
 3890SOL    HW123649  11.988   3.823   4.338  0.2515 -0.5839  0.4155
 3890SOL    HW223650  11.876   3.830   4.236  0.5277  0.8180  0.1903
 3891SOL     OW23651   5.091   4.659   3.519  0.0307  0.3354 -0.0133
 3891SOL    HW123652   5.164   4.715   3.544 -0.6577  0.9802  0.6017
 3891SOL    HW223653   5.071   4.611   3.600  0.5271 -0.7155 -0.4957
 3892SOL     OW23654   6.583   0.681  12.087  0.1294  0.6451 -0.0999
 3892SOL    HW123655   6.673   0.671  12.119 -0.0990 -0.6411  0.1680
 3892SOL    HW223656   6.537   0.725  12.158 -0.1787 -1.4536  1.0562
 3893SOL     OW23657   8.702  10.118   0.471  0.5925 -0.1941  0.6643
 3893SOL    HW123658   8.658  10.146   0.551  0.0142  0.6219  0.0897
 3893SOL    HW223659   8.639  10.058   0.429 -0.8585  2.2959 -1.0118
 3894SOL     OW23660  10.251   3.019  11.675  0.6115 -0.1482 -0.0892
 3894SOL    HW123661  10.340   2.984  11.667  0.8262  0.6738 -1.6588
 3894SOL    HW223662  10.244   3.082  11.604 -0.5251  1.3566  1.2776
 3895SOL     OW23663   4.085   3.706   2.680  0.1297  0.0128  0.6565
 3895SOL    HW123664   4.061   3.614   2.668  1.7724 -0.2314 -1.3198
 3895SOL    HW223665   4.027   3.737   2.750 -1.0020 -2.2960  0.8407
 3896SOL     OW23666   2.648   9.925   9.433  0.0719 -0.0906 -0.4812
 3896SOL    HW123667   2.647   9.846   9.487 -2.0861  0.7400  0.8330
 3896SOL    HW223668   2.666   9.894   9.345  1.2468 -1.7882  0.2957
 3897SOL     OW23669  13.725   4.268   8.810 -0.0478  0.0031  0.4425
 3897SOL    HW123670  13.669   4.341   8.836 -0.4107 -0.5705  1.3222
 3897SOL    HW223671  13.801   4.310   8.770 -0.6427  0.8286  0.1377
 3898SOL     OW23672  13.284   7.074   1.677  0.2297  0.2562 -0.4226
 3898SOL    HW123673  13.301   7.015   1.751 -2.1122 -0.3364 -0.2721
 3898SOL    HW223674  13.277   7.016   1.601 -0.3992  0.5120 -0.5690
 3899SOL     OW23675  10.410  12.992   4.221  0.1133 -0.2056 -0.2427
 3899SOL    HW123676  10.506  12.999   4.219  0.5971 -3.7136  2.1299
 3899SOL    HW223677  10.390  12.925   4.155 -0.7187  0.3797 -0.5925
 3900SOL     OW23678   3.518  13.272   6.795  0.3362  0.8876 -0.0555
 3900SOL    HW123679   3.427  13.276   6.824  0.4860  0.4460  0.4805
 3900SOL    HW223680   3.569  13.292   6.874  0.7384 -0.0784 -0.0557
 3901SOL     OW23681   8.327  10.696   4.243  0.4858  0.0065 -0.6614
 3901SOL    HW123682   8.275  10.772   4.269  1.6204  0.4264  0.5447
 3901SOL    HW223683   8.397  10.693   4.308  1.8145 -0.6827 -2.0724
 3902SOL     OW23684   4.368   9.561   2.370  0.4510  0.3747  0.3760
 3902SOL    HW123685   4.359   9.656   2.359  0.6452  0.3258 -0.2731
 3902SOL    HW223686   4.362   9.526   2.281  2.8860  0.0117  0.2640
 3903SOL     OW23687   3.995   5.517  10.178 -0.2160 -0.4172 -0.0592
 3903SOL    HW123688   4.053   5.443  10.161  1.7817  1.2999 -1.2937
 3903SOL    HW223689   3.954   5.497  10.262  1.6348 -2.0833  0.5352
 3904SOL     OW23690   3.595   8.392   0.209  0.3988  0.1350  0.5193
 3904SOL    HW123691   3.552   8.308   0.224  0.9224 -0.4360 -0.9954
 3904SOL    HW223692   3.528   8.457   0.232 -0.5380 -0.7117  0.2778
 3905SOL     OW23693   5.785   0.768   8.487  0.1500 -0.3485  0.0164
 3905SOL    HW123694   5.822   0.686   8.521  2.3744  0.5560 -0.0999
 3905SOL    HW223695   5.806   0.768   8.394  1.3495  0.9355  0.2600
 3906SOL     OW23696   1.083   8.318   6.300  0.6997  0.7185  0.2071
 3906SOL    HW123697   1.163   8.367   6.319 -0.0399  1.6214  1.0988
 3906SOL    HW223698   1.024   8.340   6.373 -0.1848 -0.3188 -0.1748
 3907SOL     OW23699   6.927   3.446   3.135  0.5335 -0.1107 -0.0333
 3907SOL    HW123700   6.837   3.457   3.104  0.0905 -0.7894  0.9541
 3907SOL    HW223701   6.950   3.530   3.174  0.1837 -0.0537  0.0550
 3908SOL     OW23702   3.646   3.196  11.330  0.2670 -0.2387 -0.3203
 3908SOL    HW123703   3.646   3.228  11.241  1.4967  2.5614  0.5914
 3908SOL    HW223704   3.601   3.264  11.381  0.5006 -1.2614  1.3542
 3909SOL     OW23705  12.659   6.881   4.581 -0.1177 -0.1165 -0.1219
 3909SOL    HW123706  12.584   6.909   4.633 -0.2428 -0.7755  0.0609
 3909SOL    HW223707  12.634   6.796   4.545 -0.0330  0.3293 -1.2778
 3910SOL     OW23708  11.021   3.228  11.848  0.6203  0.5824  0.5444
 3910SOL    HW123709  11.108   3.199  11.822  1.7294  1.6565  2.8217
 3910SOL    HW223710  10.970   3.148  11.855  0.6350  0.0664 -3.0787
 3911SOL     OW23711  12.789   1.144  11.217  0.1110 -0.3422  0.0193
 3911SOL    HW123712  12.802   1.096  11.135  1.7229 -1.0027  0.6215
 3911SOL    HW223713  12.694   1.147  11.227 -0.1034 -1.0345 -1.4112
 3912SOL     OW23714   2.434   5.469  10.407 -0.3608  0.9101 -0.0257
 3912SOL    HW123715   2.497   5.397  10.421 -1.6760 -0.3284 -0.3038
 3912SOL    HW223716   2.428   5.477  10.312 -1.5948  0.1108 -0.0316
 3913SOL     OW23717   3.254   3.633   1.199  0.4908  0.4396  0.3777
 3913SOL    HW123718   3.250   3.544   1.234  0.0968  0.2491 -0.1435
 3913SOL    HW223719   3.189   3.634   1.129  1.2602  0.8192 -0.3449
 3914SOL     OW23720   0.980   2.436   2.536 -0.3640  0.2016 -0.1983
 3914SOL    HW123721   0.992   2.520   2.494  0.1066  0.8544  1.1824
 3914SOL    HW223722   0.971   2.456   2.629  2.8294 -1.4492  0.6050
 3915SOL     OW23723   4.344   7.014   0.000  0.0164 -0.1734  0.2998
 3915SOL    HW123724   4.400   7.091   0.015  0.2153  0.5467 -3.2569
 3915SOL    HW223725   4.265   7.032   0.050  0.2968  2.0759  0.0470
 3916SOL     OW23726   8.694   4.799  13.237 -0.1809  0.2572  0.4573
 3916SOL    HW123727   8.724   4.777  13.149 -0.3984 -0.3159  0.5192
 3916SOL    HW223728   8.599   4.790  13.233 -0.1515 -0.3158  0.8884
 3917SOL     OW23729   2.657  10.427   7.368  0.3010  0.5375 -0.7686
 3917SOL    HW123730   2.596  10.384   7.428  0.0529  1.8934 -0.0143
 3917SOL    HW223731   2.721  10.469   7.425 -0.4500  2.6089 -1.3736
 3918SOL     OW23732   9.676   9.047   9.014  0.1247 -0.3254 -0.0984
 3918SOL    HW123733   9.651   9.133   9.049 -0.3674 -1.2111  1.8921
 3918SOL    HW223734   9.770   9.055   8.997 -0.1064  0.8968 -0.9056
 3919SOL     OW23735  11.193   8.620   6.830 -0.1941 -0.0674  0.3584
 3919SOL    HW123736  11.266   8.680   6.840 -0.4149  0.4341 -0.8069
 3919SOL    HW223737  11.129   8.647   6.896  0.4480 -0.1915  1.0442
 3920SOL     OW23738  12.072   4.710  11.865 -0.0284 -0.5794  0.1845
 3920SOL    HW123739  12.019   4.638  11.900 -3.7021  1.7634 -0.0629
 3920SOL    HW223740  12.037   4.725  11.777  1.7306  0.5600 -0.3792
 3921SOL     OW23741  14.011  10.645   0.025 -0.0484 -0.2683  0.0240
 3921SOL    HW123742  14.013  10.736   0.056 -0.3825  0.3590 -1.6940
 3921SOL    HW223743  14.091  10.635  -0.026 -0.6456 -0.5250 -0.8812
 3922SOL     OW23744  12.303   9.156  10.072 -0.0302  0.0154  0.2237
 3922SOL    HW123745  12.395   9.130  10.067 -0.1851 -0.3718 -0.8071
 3922SOL    HW223746  12.254   9.079  10.045 -0.6910  0.0879  1.1576
 3923SOL     OW23747   5.209   6.257   4.121  0.6415 -0.0575 -0.2483
 3923SOL    HW123748   5.256   6.339   4.114  0.9469 -0.3795 -3.3465
 3923SOL    HW223749   5.277   6.190   4.124  0.4334 -0.3712 -1.8482
 3924SOL     OW23750   1.171  10.379   3.937 -0.2032 -0.3231 -0.5802
 3924SOL    HW123751   1.178  10.323   3.860  0.9935 -0.1477 -0.6184
 3924SOL    HW223752   1.261  10.391   3.966 -0.6970 -1.5670  1.7140
 3925SOL     OW23753   0.501   5.272  10.327 -0.7859 -0.3159  0.1890
 3925SOL    HW123754   0.530   5.323  10.402  1.0245 -1.1851  0.1401
 3925SOL    HW223755   0.545   5.312  10.252 -1.6330 -0.1958 -0.2579
 3926SOL     OW23756  10.585   3.165   3.897 -0.3216  0.1811 -0.3698
 3926SOL    HW123757  10.504   3.144   3.851 -0.7782  2.0749 -0.5015
 3926SOL    HW223758  10.580   3.116   3.979 -1.2187 -0.3371 -0.7217
 3927SOL     OW23759   8.855   2.793   0.398 -0.0716 -0.1269 -0.6293
 3927SOL    HW123760   8.870   2.720   0.458  0.0189 -0.5519 -1.1520
 3927SOL    HW223761   8.802   2.855   0.447  1.3083  0.2597  0.4228
 3928SOL     OW23762   5.146   3.175   6.829 -0.0818 -0.1759  0.2941
 3928SOL    HW123763   5.171   3.231   6.756 -2.2560  0.0740 -0.3489
 3928SOL    HW223764   5.227   3.133   6.857  1.2690  1.8275 -0.4559
 3929SOL     OW23765   5.031   3.544   2.164  0.5464 -0.4151  0.0245
 3929SOL    HW123766   5.091   3.573   2.232  0.5289  4.6161 -1.6717
 3929SOL    HW223767   5.086   3.531   2.087 -0.0720  0.9238 -0.6872
 3930SOL     OW23768   6.193   1.640   3.564  0.3201  0.2258  0.2599
 3930SOL    HW123769   6.098   1.628   3.564  0.0980  1.8362  1.2389
 3930SOL    HW223770   6.225   1.577   3.499 -1.4192 -0.2435 -0.1732
 3931SOL     OW23771  11.658  11.960   3.711  0.2848  0.1471 -0.1276
 3931SOL    HW123772  11.720  12.012   3.661 -1.1878 -0.5898 -2.9190
 3931SOL    HW223773  11.572  11.985   3.677 -0.7973 -0.5620  1.9364
 3932SOL     OW23774   7.923   1.082  11.325 -0.1276  0.3929 -0.1450
 3932SOL    HW123775   7.902   1.007  11.270 -2.5788  0.4709  0.5641
 3932SOL    HW223776   7.951   1.044  11.408  0.7978  0.2892 -0.4913
 3933SOL     OW23777  12.107   2.091  11.998  0.7218 -0.9246 -0.2128
 3933SOL    HW123778  12.171   2.147  12.042 -0.4835  0.0723  0.3418
 3933SOL    HW223779  12.089   2.022  12.061 -1.3192  0.7317  1.1536
 3934SOL     OW23780   1.989  13.929   6.405 -0.2655  0.1632 -0.2556
 3934SOL    HW123781   1.910  13.890   6.368 -0.4071  0.6822 -0.5089
 3934SOL    HW223782   1.985  13.906   6.498  0.4008 -1.6721 -0.6267
 3935SOL     OW23783  13.809   7.389  12.248 -0.4691  0.1679 -0.3391
 3935SOL    HW123784  13.755   7.461  12.216 -1.9563 -0.8429 -0.2097
 3935SOL    HW223785  13.749   7.333  12.295  0.7542 -0.9091  0.0019
 3936SOL     OW23786   6.258   8.642   3.185  0.9709 -0.3544 -0.2870
 3936SOL    HW123787   6.241   8.717   3.128 -2.7043 -0.5325  0.3261
 3936SOL    HW223788   6.266   8.567   3.125 -0.3847 -0.1727 -0.7221
 3937SOL     OW23789  12.604   4.060   2.936 -0.0374  0.5101 -0.8287
 3937SOL    HW123790  12.680   4.003   2.930  0.6827  1.5521 -2.4095
 3937SOL    HW223791  12.632   4.141   2.894 -1.7567  1.2236 -0.6727
 3938SOL     OW23792   5.939   6.697   6.154 -0.1918  0.2653 -0.5239
 3938SOL    HW123793   5.984   6.613   6.169 -1.1184  0.0136  1.1230
 3938SOL    HW223794   6.007   6.763   6.168 -0.1429 -0.1291  1.3115
 3939SOL     OW23795  10.215   1.850   1.599  0.2836  0.2336  0.4090
 3939SOL    HW123796  10.219   1.945   1.604 -0.3435  0.2141  2.1290
 3939SOL    HW223797  10.124   1.829   1.622  0.4860 -0.7897  0.3115
 3940SOL     OW23798   7.486  13.211   5.720  0.0692  0.1025  0.0511
 3940SOL    HW123799   7.450  13.283   5.771 -0.3345  0.9580 -1.3764
 3940SOL    HW223800   7.574  13.240   5.696  0.9129 -0.9992  1.5765
 3941SOL     OW23801   9.122   9.355   8.965  0.0476  0.1616  0.3461
 3941SOL    HW123802   9.077   9.289   9.018  0.9737 -2.2091 -1.6543
 3941SOL    HW223803   9.214   9.333   8.972  0.1667 -0.9175 -2.9152
 3942SOL     OW23804   9.482   9.237  13.796 -0.1142  0.3557  0.5144
 3942SOL    HW123805   9.508   9.161  13.847  1.2709 -0.9973 -2.0001
 3942SOL    HW223806   9.391   9.254  13.822  0.4133 -0.4310  3.0725
 3943SOL     OW23807   0.054  13.004   8.564  0.1055  0.1790  0.8927
 3943SOL    HW123808   0.124  12.944   8.540 -0.8726 -0.3131 -0.9358
 3943SOL    HW223809   0.093  13.062   8.630  1.8814 -0.7370  0.6997
 3944SOL     OW23810   3.755   7.829   0.977 -0.2606  0.6005 -0.0244
 3944SOL    HW123811   3.800   7.908   1.006  0.7897  0.3946 -1.0188
 3944SOL    HW223812   3.694   7.859   0.910  0.8753  0.4751 -1.1545
 3945SOL     OW23813  12.107   2.672   1.629  0.4032 -0.3810  0.0154
 3945SOL    HW123814  12.084   2.579   1.618 -0.5677 -0.2446  0.7349
 3945SOL    HW223815  12.197   2.678   1.598  0.4321 -1.5426 -0.1747
 3946SOL     OW23816   5.199  13.946  12.017 -0.3392  0.6046 -0.0293
 3946SOL    HW123817   5.221  13.952  11.924 -1.5623  0.4540 -0.3526
 3946SOL    HW223818   5.200  14.036  12.048  1.9203  0.5105  0.2952
 3947SOL     OW23819   2.424   9.208   7.582 -0.5566  0.0062 -0.0499
 3947SOL    HW123820   2.333   9.232   7.564 -0.8121 -0.0916  1.0337
 3947SOL    HW223821   2.462   9.286   7.624 -0.5354 -0.4042  0.7186
 3948SOL     OW23822  12.683   5.721   2.849  0.3140  0.1261  0.1033
 3948SOL    HW123823  12.730   5.802   2.870  0.1446 -0.1018  1.4468
 3948SOL    HW223824  12.604   5.750   2.804  0.0420  0.7379  0.9615
 3949SOL     OW23825   5.113   7.065  12.151 -0.6562  0.1109 -0.4722
 3949SOL    HW123826   5.111   7.104  12.063 -1.2510 -0.0257 -0.5214
 3949SOL    HW223827   5.205   7.072  12.177 -0.2403 -0.8598 -1.5703
 3950SOL     OW23828   1.517   0.930   5.090 -0.5745 -0.0095  0.1517
 3950SOL    HW123829   1.431   0.964   5.114 -2.1269 -0.2526 -4.1423
 3950SOL    HW223830   1.577   0.970   5.152 -3.7029  0.0417  3.4880
 3951SOL     OW23831   1.398   7.151  13.486 -0.4523  0.3880  0.5900
 3951SOL    HW123832   1.350   7.070  13.471 -1.5256  1.0806  0.1005
 3951SOL    HW223833   1.487   7.124  13.507 -0.5245 -0.8683 -0.6299
 3952SOL     OW23834   6.055   5.813   0.234  0.0996  0.1158  0.0258
 3952SOL    HW123835   6.130   5.761   0.204  3.1047  3.0181  1.7910
 3952SOL    HW223836   6.056   5.891   0.180 -1.4845  0.3756  0.3250
 3953SOL     OW23837   4.027  10.651   7.409  0.5098 -0.1191 -0.0218
 3953SOL    HW123838   3.966  10.580   7.391  3.0619 -2.4649 -0.1532
 3953SOL    HW223839   4.048  10.687   7.322  0.1462 -0.0533 -0.0830
 3954SOL     OW23840   7.498   1.885   8.154  0.0958 -0.1576  0.1466
 3954SOL    HW123841   7.488   1.830   8.231  0.0971 -2.0263 -1.1228
 3954SOL    HW223842   7.408   1.907   8.129  0.0515 -0.3731  0.1140
 3955SOL     OW23843  10.423   0.552   1.233 -0.3128  0.5293  0.0073
 3955SOL    HW123844  10.360   0.610   1.276 -0.6237 -0.0726  0.3614
 3955SOL    HW223845  10.410   0.567   1.139 -1.0481  0.3342  0.0748
 3956SOL     OW23846   4.564   0.948   4.378 -0.5682 -0.1943  0.3655
 3956SOL    HW123847   4.634   1.010   4.362  0.5842 -1.6049 -0.3144
 3956SOL    HW223848   4.509   0.953   4.300 -0.2980 -0.2701  0.1721
 3957SOL     OW23849  10.488  13.318   2.199 -0.3627  0.4014 -0.5656
 3957SOL    HW123850  10.425  13.247   2.186 -0.1740  0.3150 -1.0632
 3957SOL    HW223851  10.437  13.398   2.186 -0.1090  0.3178 -2.3893
 3958SOL     OW23852   5.470   4.080  11.414 -0.5783 -0.0030  0.5856
 3958SOL    HW123853   5.419   4.101  11.336 -1.7061  0.1538  1.3399
 3958SOL    HW223854   5.513   3.997  11.392  1.3857  1.4057 -1.2208
 3959SOL     OW23855   2.112  11.987   5.930 -0.5735  0.2371 -0.1347
 3959SOL    HW123856   2.154  11.911   5.891 -0.4815  0.8532 -1.2670
 3959SOL    HW223857   2.041  11.951   5.983  0.2180 -0.6945  0.3218
 3960SOL     OW23858  10.233   1.588  12.608  0.2013 -0.1645  0.5720
 3960SOL    HW123859  10.323   1.621  12.603 -0.4869  2.0017  1.2721
 3960SOL    HW223860  10.199   1.599  12.519 -0.3180  2.1362  0.9824
 3961SOL     OW23861   4.824  12.959   9.881  0.3013 -0.4419  0.2507
 3961SOL    HW123862   4.884  13.032   9.889 -0.1267 -0.1602  0.9611
 3961SOL    HW223863   4.874  12.883   9.910  0.2213 -0.1561  1.1737
 3962SOL     OW23864   4.684  13.806   4.202  0.1217  0.4933  0.2517
 3962SOL    HW123865   4.598  13.777   4.172  0.7978 -1.5465  0.1026
 3962SOL    HW223866   4.667  13.854   4.283 -1.1504 -0.0798  0.3394
 3963SOL     OW23867  11.325   6.470   8.647 -0.2389  0.0046  0.0985
 3963SOL    HW123868  11.246   6.416   8.648 -0.8001  0.7855  2.0286
 3963SOL    HW223869  11.292   6.559   8.640  0.5415  0.2558 -0.3818
 3964SOL     OW23870  10.962   1.088   9.675 -0.3576 -0.2980  0.1479
 3964SOL    HW123871  10.877   1.089   9.630  0.7554 -1.1332 -2.1429
 3964SOL    HW223872  11.026   1.094   9.605  1.5121  0.6139  1.8480
 3965SOL     OW23873   5.458  13.096  11.213  0.9128 -0.2067 -0.4838
 3965SOL    HW123874   5.436  13.155  11.285  1.0922 -1.7123  0.8648
 3965SOL    HW223875   5.552  13.081  11.223  1.1398  0.3430 -1.6583
 3966SOL     OW23876   3.447   1.135   1.640  0.6253  0.2470 -0.0932
 3966SOL    HW123877   3.526   1.131   1.586  0.9496  0.9335  0.3163
 3966SOL    HW223878   3.469   1.197   1.710 -0.2863  0.4613  0.0127
 3967SOL     OW23879   8.160   5.699  11.896 -0.1442 -0.1585  0.7280
 3967SOL    HW123880   8.082   5.663  11.938 -0.9634  0.2458 -0.3926
 3967SOL    HW223881   8.183   5.636  11.829  0.1370  0.0051  0.6696
 3968SOL     OW23882   2.859   5.755   3.083 -0.3773 -0.0185  0.0682
 3968SOL    HW123883   2.875   5.737   3.176  2.1708  1.6144  0.0395
 3968SOL    HW223884   2.807   5.835   3.083  0.0768  0.2819  0.1087
 3969SOL     OW23885   0.668  10.106   4.352  0.2488  0.6560  0.1595
 3969SOL    HW123886   0.604  10.147   4.410 -0.8351  2.1539 -1.9543
 3969SOL    HW223887   0.617  10.049   4.296  1.1431 -0.1249  0.1128
 3970SOL     OW23888   4.933   5.966   1.338  0.0335  0.6984  0.4115
 3970SOL    HW123889   4.848   6.003   1.312 -0.8373 -2.0647 -1.1360
 3970SOL    HW223890   4.993   5.992   1.268 -0.5405 -0.5885 -0.5982
 3971SOL     OW23891   1.507  13.709   3.578 -0.3270  0.2518 -0.3230
 3971SOL    HW123892   1.464  13.624   3.592  0.9364 -0.4734 -0.7292
 3971SOL    HW223893   1.472  13.739   3.494  0.5367 -0.7152 -1.0478
 3972SOL     OW23894   4.990   7.932   9.654  0.3839 -0.0171  0.1742
 3972SOL    HW123895   5.031   7.959   9.736 -0.8202 -1.8292  1.4146
 3972SOL    HW223896   5.003   7.837   9.650 -1.2666 -0.2407 -0.7510
 3973SOL     OW23897   7.577   3.325  13.469 -0.1925 -0.1333  0.1135
 3973SOL    HW123898   7.492   3.370  13.472  0.7704  1.7806  0.0808
 3973SOL    HW223899   7.641   3.395  13.473  1.4202 -1.5999  1.1702
 3974SOL     OW23900   8.688  11.614  11.808  0.0735 -0.6058  0.0517
 3974SOL    HW123901   8.678  11.632  11.901  2.8363 -2.3994  0.8227
 3974SOL    HW223902   8.601  11.586  11.779 -0.8643  0.0916  2.0474
 3975SOL     OW23903  13.103  12.819  10.327 -0.3651 -0.3760  0.2976
 3975SOL    HW123904  13.010  12.795  10.329 -0.8180  1.2128  0.0634
 3975SOL    HW223905  13.130  12.803  10.237 -0.4381 -0.7441  0.3411
 3976SOL     OW23906  10.447  11.642   1.678 -0.5341 -0.6180  0.5778
 3976SOL    HW123907  10.464  11.597   1.761  1.5681  0.2348  0.6698
 3976SOL    HW223908  10.517  11.707   1.671 -2.4726  1.5248 -0.3528
 3977SOL     OW23909   6.714   6.957   1.898 -0.4975  0.0974  0.0267
 3977SOL    HW123910   6.795   6.953   1.949 -1.3199  2.4188  1.6785
 3977SOL    HW223911   6.743   6.976   1.809  0.8020  1.4096  0.6823
 3978SOL     OW23912  11.998  11.659   5.905  0.0827 -0.1089 -0.0862
 3978SOL    HW123913  11.976  11.707   5.826  0.3856 -0.2082 -0.2312
 3978SOL    HW223914  12.046  11.582   5.875 -0.1998 -0.3872  0.1597
 3979SOL     OW23915   8.379   4.551   5.424  0.1814 -0.1020  0.1083
 3979SOL    HW123916   8.385   4.521   5.515 -0.3720  0.0344  0.1925
 3979SOL    HW223917   8.421   4.637   5.425 -1.1364  0.5684  0.5644
 3980SOL     OW23918   4.413   7.480   8.260 -0.0891  0.5974  0.4052
 3980SOL    HW123919   4.463   7.451   8.336 -2.5878 -0.9958  1.5820
 3980SOL    HW223920   4.410   7.404   8.202  0.5864  1.3515 -0.6573
 3981SOL     OW23921  12.678   1.184  13.475 -0.0694  0.0080  0.0323
 3981SOL    HW123922  12.767   1.189  13.442  0.5750  1.9768  1.8782
 3981SOL    HW223923  12.625   1.161  13.398  1.8840 -0.3558 -1.2653
 3982SOL     OW23924   4.478   2.570   6.511  0.7873  0.3266 -0.0774
 3982SOL    HW123925   4.468   2.664   6.492 -0.3437  0.6976  1.9489
 3982SOL    HW223926   4.484   2.567   6.607  1.5906 -1.6309 -0.1587
 3983SOL     OW23927   6.276  11.264   9.187 -0.7954  0.5026 -0.1759
 3983SOL    HW123928   6.232  11.273   9.102 -4.0856  0.8945  1.3941
 3983SOL    HW223929   6.267  11.351   9.227 -0.1910  0.0571  0.9508
 3984SOL     OW23930   2.067   0.949   9.977 -0.3354  0.4019  0.1443
 3984SOL    HW123931   2.158   0.931   9.952  0.4713  1.7365  1.9088
 3984SOL    HW223932   2.047   1.032   9.934 -1.2543 -0.5491 -1.3691
 3985SOL     OW23933   4.314   7.275   1.360 -0.3152 -0.2883 -0.1021
 3985SOL    HW123934   4.361   7.317   1.432 -1.7660 -0.7108  1.1312
 3985SOL    HW223935   4.339   7.326   1.283  1.3481  0.1140  0.6550
 3986SOL     OW23936   0.950  10.910   5.313  0.0499  0.2707 -0.0883
 3986SOL    HW123937   0.991  10.995   5.323  4.3676 -1.6514  1.0813
 3986SOL    HW223938   0.923  10.886   5.402  0.4133 -0.2350 -0.1085
 3987SOL     OW23939   8.385  11.817   8.771 -0.1613  0.0112 -0.1590
 3987SOL    HW123940   8.412  11.893   8.822  0.2070 -1.3881  1.8923
 3987SOL    HW223941   8.382  11.746   8.835 -2.4132 -1.2998 -1.5853
 3988SOL     OW23942   5.929   8.228   9.276  0.3385 -0.0706 -0.1139
 3988SOL    HW123943   5.952   8.171   9.349  0.7978  0.0444 -0.1674
 3988SOL    HW223944   5.880   8.300   9.316 -0.2079 -0.4706 -0.0417
 3989SOL     OW23945  10.266   5.888   3.993  0.0995  0.3827 -0.2289
 3989SOL    HW123946  10.252   5.971   4.037 -1.2684  0.2971 -0.4713
 3989SOL    HW223947  10.178   5.856   3.971  0.6340 -0.7012 -0.9222
 3990SOL     OW23948  10.181  13.537   1.860  0.4298 -0.0967 -0.4742
 3990SOL    HW123949  10.179  13.617   1.808  0.3944  1.4449  1.7321
 3990SOL    HW223950  10.236  13.559   1.935 -1.7434 -1.1950  1.5772
 3991SOL     OW23951   9.656   5.961   5.191 -0.0410 -0.3305 -0.4540
 3991SOL    HW123952   9.583   5.974   5.131  0.5577  2.0261 -0.7966
 3991SOL    HW223953   9.734   5.985   5.140  0.7547 -0.7001  0.5356
 3992SOL     OW23954   0.678  11.687   1.845 -0.0496  0.5999  0.9762
 3992SOL    HW123955   0.586  11.710   1.856 -0.2217 -0.8017  2.9721
 3992SOL    HW223956   0.725  11.768   1.863 -0.8652  1.2892  0.0899
 3993SOL     OW23957   3.687  10.928  10.233 -0.0094  0.4584  0.1492
 3993SOL    HW123958   3.617  10.889  10.286  1.5372  0.4022  2.2940
 3993SOL    HW223959   3.666  11.022  10.232  0.4541  0.6096  1.7864
 3994SOL     OW23960   0.976   9.218  13.824  0.8618 -0.6073 -0.0941
 3994SOL    HW123961   1.063   9.252  13.802  1.1318 -2.0034 -1.3912
 3994SOL    HW223962   0.982   9.124  13.805 -0.1594 -1.2269  2.3018
 3995SOL     OW23963   0.562   4.758   9.461  0.8733  0.3791  0.1276
 3995SOL    HW123964   0.512   4.788   9.385 -0.8417  1.9629  1.7848
 3995SOL    HW223965   0.647   4.800   9.453  0.5295  0.9446 -0.6496
 3996SOL     OW23966  13.453  10.288  10.304  0.3112 -0.0649 -0.5817
 3996SOL    HW123967  13.490  10.201  10.288  1.0594  0.2629 -0.6537
 3996SOL    HW223968  13.513  10.348  10.261 -0.5288  0.4565 -1.0492
 3997SOL     OW23969   1.862   6.156   2.125 -0.4415 -0.1531 -0.1546
 3997SOL    HW123970   1.881   6.208   2.048  3.5271 -3.2009 -1.5946
 3997SOL    HW223971   1.775   6.119   2.109 -0.9418  1.5911 -1.6821
 3998SOL     OW23972   4.546   9.408   0.364 -0.4471 -0.3910 -0.6818
 3998SOL    HW123973   4.508   9.343   0.423  1.3424  0.1346  1.1201
 3998SOL    HW223974   4.519   9.492   0.400  2.1290 -0.0033  0.5643
 3999SOL     OW23975   5.197  11.685   0.987  0.4833  0.2291  0.2890
 3999SOL    HW123976   5.132  11.722   0.927 -0.2684  0.7866  1.4102
 3999SOL    HW223977   5.264  11.753   0.996 -0.2135  0.7968  1.3015
 4000SOL     OW23978   7.883   5.666   4.168  0.3182 -0.7072  0.4449
 4000SOL    HW123979   7.830   5.589   4.146 -0.9227  0.1127  0.5241
 4000SOL    HW223980   7.905   5.654   4.260  0.6218 -1.2455  0.3112
 4001SOL     OW23981   6.585   7.562   6.056  0.1307  0.0937 -0.5854
 4001SOL    HW123982   6.636   7.496   6.009  1.0608  0.5649 -0.2718
 4001SOL    HW223983   6.597   7.539   6.148  2.3700  1.9551 -0.3061
 4002SOL     OW23984   9.655   2.246  13.190 -0.0793  0.2039 -0.2148
 4002SOL    HW123985   9.609   2.194  13.256  2.1013  1.1982  2.3022
 4002SOL    HW223986   9.717   2.299  13.241  0.4085  2.4907 -2.9511
 4003SOL     OW23987  13.983  10.938  10.187  0.7652 -0.1389 -0.1972
 4003SOL    HW123988  14.016  11.000  10.122 -1.1621  0.8063 -0.3244
 4003SOL    HW223989  13.992  10.984  10.271  0.7581 -0.3079 -0.1021
 4004SOL     OW23990   5.191  12.402   6.817  0.4316  0.3023  0.1663
 4004SOL    HW123991   5.189  12.474   6.754 -1.1005 -0.3286 -0.5351
 4004SOL    HW223992   5.112  12.414   6.869  1.4367  0.5441  1.7095
 4005SOL     OW23993   7.904  12.909   2.350 -0.5958 -0.0203  0.0726
 4005SOL    HW123994   7.886  13.003   2.349  0.7763  0.2634 -1.1606
 4005SOL    HW223995   7.976  12.897   2.287 -0.1530 -1.7746  0.8404
 4006SOL     OW23996   9.683  12.049  13.138 -0.1482  0.0313  0.1722
 4006SOL    HW123997   9.665  12.111  13.209 -0.7018 -1.1702  1.1199
 4006SOL    HW223998   9.685  11.964  13.181  1.2692 -0.5693 -0.9813
 4007SOL     OW23999   2.926   4.496   2.962  0.4030 -0.2955  0.6714
 4007SOL    HW124000   2.959   4.512   2.873 -0.5135  0.4204  0.4335
 4007SOL    HW224001   2.837   4.533   2.960 -0.4757 -2.2630  1.2208
 4008SOL     OW24002   0.274   7.722   9.499 -0.4358 -0.2490  0.1612
 4008SOL    HW124003   0.185   7.754   9.482 -0.0355  0.9998  0.3889
 4008SOL    HW224004   0.313   7.788   9.556  1.2887  0.2213 -1.4907
 4009SOL     OW24005  13.054  10.087   3.242 -0.2018 -0.0490 -0.1775
 4009SOL    HW124006  13.150  10.093   3.238  0.1018 -3.3973 -2.3534
 4009SOL    HW224007  13.037  10.032   3.319 -0.2006 -1.0428 -0.8753
 4010SOL     OW24008   8.510   8.540  11.081 -0.5705  0.2539  0.2004
 4010SOL    HW124009   8.602   8.541  11.106 -0.8170 -2.2614  1.6132
 4010SOL    HW224010   8.495   8.624  11.037  2.3019  0.8180  0.1340
 4011SOL     OW24011  13.911   6.428  11.071  0.2567  0.6744 -0.0178
 4011SOL    HW124012  13.872   6.359  11.018 -1.1391  0.7318  0.8823
 4011SOL    HW224013  13.940   6.494  11.008 -1.4924  0.8195 -0.7171
 4012SOL     OW24014  11.639  11.739   7.511 -0.3188  0.2423 -0.4085
 4012SOL    HW124015  11.557  11.770   7.473 -1.0943 -1.3777 -0.1502
 4012SOL    HW224016  11.632  11.643   7.508  1.2315  0.0760  0.3327
 4013SOL     OW24017   2.680   6.247   9.759 -0.4760 -0.7366  0.4748
 4013SOL    HW124018   2.696   6.253   9.853  1.3365  1.5511  0.1323
 4013SOL    HW224019   2.636   6.329   9.737 -0.7455 -1.1762 -0.7041
 4014SOL     OW24020   6.843   3.089   5.820 -0.1633  0.0461 -0.0381
 4014SOL    HW124021   6.778   3.019   5.827  0.4026 -0.5039 -0.2178
 4014SOL    HW224022   6.916   3.059   5.874 -0.2606  0.8977  0.5742
 4015SOL     OW24023   6.500   5.262   2.214 -0.7307  0.1037  0.5537
 4015SOL    HW124024   6.440   5.191   2.239  1.0088 -2.0189 -0.9576
 4015SOL    HW224025   6.449   5.317   2.154 -1.7873 -0.4249  0.9380
 4016SOL     OW24026  13.944   4.369   8.676 -0.3059  0.1665 -0.6100
 4016SOL    HW124027  14.012   4.378   8.743 -0.3314  0.3191 -0.6034
 4016SOL    HW224028  13.945   4.453   8.629 -1.8242  0.9455  0.6505
 4017SOL     OW24029   0.694   3.717   1.810 -0.6553  0.0121  0.2662
 4017SOL    HW124030   0.626   3.737   1.873 -1.7998 -1.1317 -0.5582
 4017SOL    HW224031   0.744   3.798   1.801 -0.6602  0.2850  2.3591
 4018SOL     OW24032   7.012  12.309  12.731  0.4610 -0.5711 -0.5902
 4018SOL    HW124033   7.075  12.338  12.665 -0.8781  0.5660 -1.4297
 4018SOL    HW224034   6.947  12.260  12.681  0.4491 -1.3748  0.1995
 4019SOL     OW24035  11.074   9.585   5.985 -0.6277  0.0695 -0.4438
 4019SOL    HW124036  11.069   9.673   6.022 -1.0769 -0.3548  0.5479
 4019SOL    HW224037  11.110   9.597   5.897 -1.5755  1.3424 -0.6841
 4020SOL     OW24038   3.639   7.976  12.965  0.3684 -0.0448 -0.8873
 4020SOL    HW124039   3.601   7.984  13.053  1.6666 -0.0253 -0.3022
 4020SOL    HW224040   3.632   7.883  12.945  1.2981 -0.2859 -0.1655
 4021SOL     OW24041  12.500   6.561   3.433  0.0422 -1.0347 -0.1093
 4021SOL    HW124042  12.507   6.567   3.337  1.8466  1.9747  0.1075
 4021SOL    HW224043  12.411   6.590   3.452  0.9688  2.7574 -0.7721
 4022SOL     OW24044   2.686   5.000   8.377  0.0466 -0.2073 -0.7105
 4022SOL    HW124045   2.611   4.956   8.417 -0.4011  0.8975 -0.2899
 4022SOL    HW224046   2.660   5.092   8.372  1.2363  0.1401 -0.8827
 4023SOL     OW24047   9.034   2.872   9.440 -0.4596 -0.0799  1.0464
 4023SOL    HW124048   9.118   2.831   9.459  0.6272  1.3807 -0.3015
 4023SOL    HW224049   8.985   2.867   9.522  0.4622 -2.0010  1.5312
 4024SOL     OW24050   5.495   1.905   9.912 -0.7101 -0.1936  0.1649
 4024SOL    HW124051   5.528   1.847   9.843  1.8720  2.0208 -0.6346
 4024SOL    HW224052   5.424   1.953   9.870 -1.0289 -0.8110 -0.0245
 4025SOL     OW24053  13.078   6.864  11.048 -0.5451  0.6118  0.0737
 4025SOL    HW124054  13.098   6.841  10.957  2.4586  2.3271  0.1659
 4025SOL    HW224055  13.119   6.794  11.100  0.1761  1.0641  0.1311
 4026SOL     OW24056   6.802   8.201  12.442 -0.4926  0.1022 -0.0159
 4026SOL    HW124057   6.764   8.244  12.365  0.9394 -0.2001 -0.9297
 4026SOL    HW224058   6.727   8.164  12.488 -1.2844 -1.1241 -2.1501
 4027SOL     OW24059   8.665   0.113  13.046  0.1674 -0.3912  0.1207
 4027SOL    HW124060   8.588   0.057  13.031  0.5700 -1.0478  0.4460
 4027SOL    HW224061   8.640   0.169  13.119 -0.5895  0.5286 -0.8143
 4028SOL     OW24062   7.561   7.396   4.716 -0.1743  0.6292 -0.0095
 4028SOL    HW124063   7.599   7.480   4.742 -0.9815  0.5086  1.7427
 4028SOL    HW224064   7.496   7.377   4.784 -0.0805 -1.3793 -0.4113
 4029SOL     OW24065   1.365   6.951  13.947 -0.7621  0.1673  0.0719
 4029SOL    HW124066   1.416   7.004  14.008 -0.7704  0.4286 -0.1478
 4029SOL    HW224067   1.348   6.870  13.995 -2.1360  0.9800  1.0370
 4030SOL     OW24068   6.149   1.157  13.047  0.2647  0.5161 -0.3705
 4030SOL    HW124069   6.202   1.146  13.126  2.5161 -2.4014 -2.0752
 4030SOL    HW224070   6.063   1.125  13.070  0.9769 -0.6031  0.8327
 4031SOL     OW24071   7.371   2.243   8.053 -0.4442  0.1088 -0.0191
 4031SOL    HW124072   7.342   2.152   8.064 -0.7888  0.2844  0.5435
 4031SOL    HW224073   7.419   2.263   8.133 -0.6326  0.5228 -0.0065
 4032SOL     OW24074   8.282  13.402  11.723 -0.2280  0.6198  0.2826
 4032SOL    HW124075   8.282  13.488  11.681  1.1334  0.7510  0.4951
 4032SOL    HW224076   8.193  13.369  11.712 -0.3771  1.4245 -1.1137
 4033SOL     OW24077   5.238   2.060   5.569  0.2120  0.0194  0.1347
 4033SOL    HW124078   5.284   2.126   5.620  0.6399 -0.6297  0.5967
 4033SOL    HW224079   5.189   2.009   5.634 -0.3707  0.0757 -0.2487
 4034SOL     OW24080  12.007   1.162   7.436  0.4107 -0.4882  0.6336
 4034SOL    HW124081  11.981   1.109   7.360 -0.0938  0.0195  0.4432
 4034SOL    HW224082  12.014   1.099   7.508  0.8274 -0.9626  0.1818
 4035SOL     OW24083   2.644   5.954  10.314  0.3463 -0.1661 -0.1946
 4035SOL    HW124084   2.734   5.984  10.327 -0.2660  2.8089 -1.8881
 4035SOL    HW224085   2.634   5.948  10.219 -1.1051 -0.9757 -0.0172
 4036SOL     OW24086  10.556   0.533   4.641 -0.3162 -0.6951  0.1001
 4036SOL    HW124087  10.574   0.441   4.661 -0.2507 -1.1690 -1.8798
 4036SOL    HW224088  10.496   0.562   4.710 -0.5009 -2.2877  0.6454
 4037SOL     OW24089   3.553   7.593   0.867  0.2731  0.0442 -0.1617
 4037SOL    HW124090   3.487   7.558   0.926  0.6859 -0.7896 -0.1864
 4037SOL    HW224091   3.631   7.603   0.922  0.3302  0.3718 -0.2965
 4038SOL     OW24092  13.617   8.463  11.668 -0.4117 -0.7642  0.5271
 4038SOL    HW124093  13.672   8.518  11.723 -1.2487 -0.2690  0.8945
 4038SOL    HW224094  13.678   8.402  11.626  0.8451  1.6253 -1.3990
 4039SOL     OW24095   7.620   9.173   7.401 -0.1135  0.3171  0.5261
 4039SOL    HW124096   7.597   9.115   7.329 -2.1873  0.0847  1.3109
 4039SOL    HW224097   7.544   9.230   7.411  0.4465  0.8449  2.0350
 4040SOL     OW24098   4.550   4.282   8.787 -0.1082  0.1429 -0.0195
 4040SOL    HW124099   4.522   4.247   8.702  0.1013  0.8613 -0.3895
 4040SOL    HW224100   4.478   4.339   8.814  0.5259  1.1819 -0.4821
 4041SOL     OW24101   7.874   2.165   6.356 -0.6140 -0.5417 -1.0680
 4041SOL    HW124102   7.805   2.230   6.341  1.0776  1.3299 -1.2230
 4041SOL    HW224103   7.900   2.137   6.268  0.1296  0.2868 -1.1403
 4042SOL     OW24104  11.416   9.769  13.249 -1.2738  0.2543 -0.1338
 4042SOL    HW124105  11.495   9.805  13.210 -0.5541 -0.1341  0.9232
 4042SOL    HW224106  11.443   9.683  13.283 -1.9749  0.3982  0.8120
 4043SOL     OW24107  13.466   4.301   7.010 -0.3826  0.2252  0.4755
 4043SOL    HW124108  13.551   4.331   6.980 -0.0817 -1.3194 -0.3529
 4043SOL    HW224109  13.420   4.380   7.037 -0.2257  1.6819 -2.9744
 4044SOL     OW24110   4.092  11.947   5.124  0.1641  0.0085 -0.3579
 4044SOL    HW124111   4.101  11.858   5.091 -1.9233 -0.7013  0.7741
 4044SOL    HW224112   4.018  11.942   5.185 -1.6524  3.0282 -2.1162
 4045SOL     OW24113   1.951   7.596   8.021 -0.6314 -0.3905 -0.0599
 4045SOL    HW124114   1.952   7.523   7.959 -1.1481  0.2999 -0.8946
 4045SOL    HW224115   2.029   7.583   8.075  0.2872 -0.5218 -1.3988
 4046SOL     OW24116   3.106   8.169   3.299 -0.1688  0.1808 -0.0660
 4046SOL    HW124117   3.163   8.092   3.294  0.9956  0.9001  1.4082
 4046SOL    HW224118   3.123   8.206   3.385 -1.1411  1.7744 -0.5153
 4047SOL     OW24119   9.347   0.069   8.450  0.0226  0.3765  0.2562
 4047SOL    HW124120   9.289   0.033   8.518  0.2946  1.2459  0.9603
 4047SOL    HW224121   9.414   0.002   8.437 -0.5952 -0.2310  0.1047
 4048SOL     OW24122   1.420  10.443   2.970  0.7878 -0.6152 -0.7050
 4048SOL    HW124123   1.430  10.465   3.063  2.3541  0.2934 -1.0506
 4048SOL    HW224124   1.344  10.492   2.941  0.4525 -0.6900  0.0356
 4049SOL     OW24125   3.682  13.312   4.002  0.0002  0.1169 -0.2676
 4049SOL    HW124126   3.592  13.343   4.014 -0.2928 -0.1837 -1.5378
 4049SOL    HW224127   3.723  13.377   3.945  0.4108 -0.0489 -0.1636
 4050SOL     OW24128  13.867   4.199  10.456 -0.2251  0.3723  0.1136
 4050SOL    HW124129  13.888   4.269  10.394 -1.9546  0.5397 -0.3324
 4050SOL    HW224130  13.821   4.243  10.527 -0.3910 -0.1705  0.3487
 4051SOL     OW24131   1.442  10.422   2.473 -0.2667 -0.3929  0.5571
 4051SOL    HW124132   1.393  10.455   2.549  0.6423  1.8840  0.2467
 4051SOL    HW224133   1.518  10.481   2.467  0.9615 -2.0267 -0.6947
 4052SOL     OW24134   6.510   0.055   7.792 -0.3938  0.8917 -0.0045
 4052SOL    HW124135   6.593   0.024   7.756 -0.9886  0.9498 -1.4842
 4052SOL    HW224136   6.462  -0.026   7.813 -0.4714  0.8349 -0.3846
 4053SOL     OW24137  10.436   9.791  12.188  0.0089  0.1757  0.3341
 4053SOL    HW124138  10.350   9.748  12.183 -0.4573  1.0204  0.9784
 4053SOL    HW224139  10.494   9.733  12.138 -0.6316 -1.1384  1.0661
 4054SOL     OW24140   1.969  10.894  13.727  0.4570 -0.0445 -0.0704
 4054SOL    HW124141   2.031  10.922  13.794  0.0506  1.0164 -0.1175
 4054SOL    HW224142   1.987  10.801  13.715 -1.8144 -1.2636  4.0882
 4055SOL     OW24143   7.257   2.038  10.426  0.1697 -0.0630 -0.0349
 4055SOL    HW124144   7.288   1.993  10.347 -1.4078  1.5190 -1.6435
 4055SOL    HW224145   7.221   1.968  10.481  1.0439 -1.1627 -0.8161
 4056SOL     OW24146  12.759  13.592   5.297  0.1799  0.5907  0.1855
 4056SOL    HW124147  12.711  13.546   5.366  0.9201  1.8173  1.5679
 4056SOL    HW224148  12.848  13.557   5.302  0.0930  0.2208 -0.6156
 4057SOL     OW24149  13.933   1.964   7.135  0.2839  0.3793  0.3696
 4057SOL    HW124150  13.951   2.052   7.169  0.6451  0.1555  0.7678
 4057SOL    HW224151  13.874   1.979   7.061 -1.6496  0.7908  1.9092
 4058SOL     OW24152   2.558  12.938   6.980  0.2708  0.0842 -0.1650
 4058SOL    HW124153   2.631  12.895   6.936  0.4486 -1.7130  1.7372
 4058SOL    HW224154   2.599  12.998   7.042  0.0700  0.8259 -0.7376
 4059SOL     OW24155   7.288  11.880   2.065  0.2092  0.2635  0.1392
 4059SOL    HW124156   7.250  11.829   2.136 -1.0854  1.1489  0.1158
 4059SOL    HW224157   7.232  11.861   1.989 -0.6563  2.1077  0.2702
 4060SOL     OW24158   0.755   8.256  13.648 -0.3060 -0.3663  0.4200
 4060SOL    HW124159   0.749   8.336  13.701  0.2167 -0.1354  0.1452
 4060SOL    HW224160   0.752   8.184  13.711 -1.0155 -0.1391  0.6535
 4061SOL     OW24161  11.116   9.671   9.945 -0.1095 -0.2449  0.6758
 4061SOL    HW124162  11.173   9.596   9.928 -1.9386 -1.4854 -0.4179
 4061SOL    HW224163  11.171   9.747   9.930  1.7105 -1.3421  1.4254
 4062SOL     OW24164   1.542   0.235   3.560  0.0352  0.1678 -0.0355
 4062SOL    HW124165   1.545   0.273   3.472  0.0682  3.3780  1.1909
 4062SOL    HW224166   1.472   0.170   3.555 -0.8681  1.1819 -2.1138
 4063SOL     OW24167  10.617  13.034   1.658 -0.1345 -0.4726  0.0176
 4063SOL    HW124168  10.652  12.945   1.666  1.0221 -0.0454 -0.0843
 4063SOL    HW224169  10.694  13.091   1.661 -0.6980  0.4444 -1.5107
 4064SOL     OW24170   2.397  12.343  11.681 -0.1457 -0.4581  0.6829
 4064SOL    HW124171   2.344  12.330  11.602  1.3569  0.0397 -0.4621
 4064SOL    HW224172   2.401  12.256  11.721 -0.3681 -0.8719 -0.1713
 4065SOL     OW24173   4.471  12.226  10.032 -0.1199 -0.8386  0.4431
 4065SOL    HW124174   4.521  12.289  10.084 -0.4265 -0.6672  0.5334
 4065SOL    HW224175   4.528  12.150  10.026  1.5065  0.4488 -2.1258
 4066SOL     OW24176  10.915  11.661  10.779 -0.4829  0.0320  0.1957
 4066SOL    HW124177  10.932  11.639  10.687 -1.6861 -0.0530 -0.0311
 4066SOL    HW224178  10.974  11.733  10.798 -0.4771  0.2997 -0.7699
 4067SOL     OW24179   2.432  11.891   0.688 -0.0867  0.0363  0.4030
 4067SOL    HW124180   2.488  11.898   0.765 -1.5496  0.4408  1.5008
 4067SOL    HW224181   2.363  11.829   0.714 -1.2454  1.0452 -0.1466
 4068SOL     OW24182  11.229   2.032   3.274 -0.3738  0.1162  0.2664
 4068SOL    HW124183  11.255   2.049   3.183 -0.0409 -0.1181  0.3133
 4068SOL    HW224184  11.185   2.112   3.302  2.0797  1.3591  0.8238
 4069SOL     OW24185  13.018   2.052   7.519 -0.0466 -0.3536  0.1828
 4069SOL    HW124186  12.972   1.977   7.557 -3.3183  1.0340 -0.6906
 4069SOL    HW224187  13.017   2.118   7.588 -1.9906  0.6244 -0.6957
 4070SOL     OW24188   6.707   1.473   6.964  0.2069 -0.1242 -0.1080
 4070SOL    HW124189   6.723   1.458   7.056  0.1205 -0.5003 -0.1539
 4070SOL    HW224190   6.758   1.406   6.918 -0.1892 -0.2959 -0.3086
 4071SOL     OW24191  11.100  11.261   3.395  0.3408 -0.1071 -0.0949
 4071SOL    HW124192  11.071  11.308   3.473  0.1581 -0.4123  0.0221
 4071SOL    HW224193  11.099  11.327   3.325 -0.4854 -0.0734 -0.0579
 4072SOL     OW24194   0.231   9.019  10.053 -0.3568 -0.4473  0.3018
 4072SOL    HW124195   0.149   9.041  10.008  0.9300  0.8397 -1.5666
 4072SOL    HW224196   0.212   9.033  10.145 -2.4658 -1.0031  0.0160
 4073SOL     OW24197  12.629   4.633   7.334  0.2080  0.0422 -0.6441
 4073SOL    HW124198  12.642   4.539   7.340  1.9820  0.2084 -1.4863
 4073SOL    HW224199  12.534   4.643   7.322 -0.3360 -1.4777  1.7448
 4074SOL     OW24200  11.211   5.809   8.767 -0.3677  0.2721 -0.0959
 4074SOL    HW124201  11.229   5.900   8.792 -2.0983  0.4060  0.7946
 4074SOL    HW224202  11.208   5.761   8.849  2.5235 -1.0767 -0.6403
 4075SOL     OW24203   3.518  12.572   1.752  0.6474  0.2905  0.4068
 4075SOL    HW124204   3.445  12.616   1.797  0.3737  1.1336 -0.8050
 4075SOL    HW224205   3.476  12.511   1.691  1.0070 -0.6482  1.0829
 4076SOL     OW24206   9.699   6.767   0.841 -0.1173  0.2104  0.0132
 4076SOL    HW124207   9.689   6.862   0.849 -0.8672  0.0798  0.7301
 4076SOL    HW224208   9.791   6.751   0.865 -0.2976  0.6377  1.0291
 4077SOL     OW24209   2.627   4.395   0.714 -0.2020  0.5343 -0.2763
 4077SOL    HW124210   2.585   4.477   0.690 -0.0650  1.2254  1.6865
 4077SOL    HW224211   2.642   4.402   0.808 -3.5639 -3.1981  0.7956
 4078SOL     OW24212   9.750   5.728   4.187 -0.9848  0.0674 -0.4969
 4078SOL    HW124213   9.726   5.797   4.125 -0.1788  0.1124 -0.7819
 4078SOL    HW224214   9.793   5.775   4.259 -2.4078  0.0720  0.3827
 4079SOL     OW24215   3.488   4.586   1.762 -0.1385 -0.2110 -0.4764
 4079SOL    HW124216   3.576   4.565   1.732  0.5229  2.2571 -0.4918
 4079SOL    HW224217   3.433   4.572   1.685  0.1842 -1.8703 -0.4401
 4080SOL     OW24218   6.373   3.127   0.518 -0.1387  0.4177  0.0205
 4080SOL    HW124219   6.408   3.215   0.503 -1.5915  0.7511 -1.7711
 4080SOL    HW224220   6.337   3.131   0.607  0.0221  1.5746  0.0551
 4081SOL     OW24221   5.309   2.538   9.257  0.4575 -0.0660  0.0264
 4081SOL    HW124222   5.244   2.582   9.203  0.5708 -0.8947 -0.8115
 4081SOL    HW224223   5.260   2.503   9.331  0.5105  2.2356  1.2047
 4082SOL     OW24224   3.704  12.327   7.672  0.4025  0.0836 -0.2375
 4082SOL    HW124225   3.794  12.327   7.637  0.2800 -0.3440 -0.5688
 4082SOL    HW224226   3.656  12.269   7.613  0.1051 -0.3744  0.4433
 4083SOL     OW24227   0.343   4.852   9.289 -0.6575 -0.0566 -0.3057
 4083SOL    HW124228   0.250   4.866   9.308 -0.1219  3.5726  0.3682
 4083SOL    HW224229   0.348   4.853   9.194 -1.3107 -0.5097 -0.3535
 4084SOL     OW24230  13.754  13.729  11.306  0.0619 -0.2035  0.5302
 4084SOL    HW124231  13.831  13.754  11.255  0.2265  0.3071  1.0233
 4084SOL    HW224232  13.680  13.767  11.258  0.0541 -1.1842 -0.2609
 4085SOL     OW24233   2.658  10.440  13.654  0.9703  0.2279 -0.0408
 4085SOL    HW124234   2.574  10.477  13.627  0.0592 -1.5180  0.2608
 4085SOL    HW224235   2.677  10.481  13.739  0.3289  0.4758 -0.0159
 4086SOL     OW24236  11.659   0.670  12.682 -0.6538 -0.3011  0.8896
 4086SOL    HW124237  11.749   0.643  12.701 -0.4859  0.0812  0.6385
 4086SOL    HW224238  11.639   0.735  12.750 -0.2433  0.6643  0.1067
 4087SOL     OW24239   0.992   3.181   6.144 -0.0063  0.0229 -0.3041
 4087SOL    HW124240   0.998   3.264   6.096 -0.5953  0.0201 -0.3867
 4087SOL    HW224241   0.900   3.175   6.170  0.3408  0.1241  1.0125
 4088SOL     OW24242   8.851   1.200   2.961 -0.2738  0.0193  0.3112
 4088SOL    HW124243   8.932   1.159   2.929  0.3537  0.2574  1.5420
 4088SOL    HW224244   8.820   1.252   2.888 -0.4793 -1.7357 -0.9252
 4089SOL     OW24245  13.651   2.330   8.557  0.3053  0.2706  0.1252
 4089SOL    HW124246  13.667   2.271   8.631 -0.2052  1.7415  1.4681
 4089SOL    HW224247  13.577   2.384   8.586  1.6223  2.4850 -0.4518
 4090SOL     OW24248   8.188   9.130   7.614  0.5345 -0.2154  0.1068
 4090SOL    HW124249   8.134   9.209   7.626  0.2623 -0.6265  1.8404
 4090SOL    HW224250   8.181   9.083   7.697  0.7189 -2.0723 -0.8744
 4091SOL     OW24251   5.315   1.205   9.503 -0.2953  0.1636 -0.5969
 4091SOL    HW124252   5.339   1.202   9.411 -4.0903 -0.0093 -1.7703
 4091SOL    HW224253   5.306   1.298   9.523 -1.5642  0.1728 -1.1122
 4092SOL     OW24254   1.744  10.092   8.196  0.3090  0.2577 -0.3524
 4092SOL    HW124255   1.768  10.142   8.274 -0.7922  0.4212 -0.1021
 4092SOL    HW224256   1.656  10.123   8.174  0.1898 -0.5397 -1.0447
 4093SOL     OW24257   4.574   7.893   7.241 -0.1815  0.3197  0.3543
 4093SOL    HW124258   4.564   7.862   7.331 -0.3588 -2.8173 -0.6304
 4093SOL    HW224259   4.498   7.950   7.226 -1.9190 -1.6303  1.2709
 4094SOL     OW24260  13.710  11.932   2.314  0.6948  0.4081  0.6210
 4094SOL    HW124261  13.792  11.962   2.276  0.8026 -1.8466 -1.1911
 4094SOL    HW224262  13.648  11.934   2.241  0.1133 -1.2623  1.0106
 4095SOL     OW24263  11.821  12.125   6.487  0.1067 -0.1861  0.9949
 4095SOL    HW124264  11.844  12.218   6.476 -0.7923 -0.0860 -0.1740
 4095SOL    HW224265  11.900  12.078   6.461  0.9706  0.2468  2.7059
 4096SOL     OW24266   9.330   2.021  11.733  0.6917 -0.4124  0.4546
 4096SOL    HW124267   9.271   1.946  11.724  0.8973 -0.9339  2.7516
 4096SOL    HW224268   9.393   2.010  11.662 -0.3873 -1.3308 -0.4149
 4097SOL     OW24269   6.181   1.308   0.555  0.4277  0.2413  0.6538
 4097SOL    HW124270   6.177   1.369   0.481  0.9251 -0.4107  0.0707
 4097SOL    HW224271   6.099   1.259   0.551  1.4038 -1.4011 -0.9214
 4098SOL     OW24272   0.414  13.424   9.018 -0.1284 -0.3974 -0.3962
 4098SOL    HW124273   0.461  13.476   9.084  1.3420 -0.7111 -1.1553
 4098SOL    HW224274   0.322  13.446   9.032  0.4403  3.2372 -1.3044
 4099SOL     OW24275   5.124   5.821  12.632  0.2002 -0.9776  0.2300
 4099SOL    HW124276   5.080   5.901  12.602  1.5756 -0.9731 -2.0173
 4099SOL    HW224277   5.203   5.853  12.677 -1.0548 -1.0363  2.6072
 4100SOL     OW24278  13.054  11.033  12.273 -0.1525 -0.2673  0.5598
 4100SOL    HW124279  13.145  11.005  12.275  0.2081  0.7569 -0.4297
 4100SOL    HW224280  13.005  10.959  12.307  1.0307 -0.9043  0.9211
 4101SOL     OW24281  13.308  11.533   8.827 -0.4121  0.5729  0.5385
 4101SOL    HW124282  13.225  11.494   8.799  0.0716  0.4000 -0.7138
 4101SOL    HW224283  13.293  11.627   8.822 -1.0614  0.5770  1.9897
 4102SOL     OW24284  11.703   4.979  10.455 -0.2688 -0.6501  0.4903
 4102SOL    HW124285  11.618   5.022  10.459 -0.2876 -0.6859  0.4740
 4102SOL    HW224286  11.737   4.998  10.368 -0.0936 -0.3227  0.6294
 4103SOL     OW24287   7.242  13.714   7.160 -0.3297 -0.5850  0.0010
 4103SOL    HW124288   7.148  13.726   7.171  0.0038  0.4670  2.5615
 4103SOL    HW224289   7.281  13.775   7.223  2.0216 -2.1113  0.1485
 4104SOL     OW24290   8.087  13.746   9.587 -0.1621 -0.3524 -0.1625
 4104SOL    HW124291   8.055  13.833   9.611  0.5262 -0.0659 -0.2463
 4104SOL    HW224292   8.010  13.700   9.555 -0.1465  1.0502 -2.4711
 4105SOL     OW24293  13.651  13.662   3.386  0.6248 -0.2592 -0.8425
 4105SOL    HW124294  13.621  13.622   3.467  1.3346 -0.9511 -0.9085
 4105SOL    HW224295  13.593  13.738   3.373 -0.3731 -0.9254 -0.4101
 4106SOL     OW24296   7.048  10.381   1.679  0.4021  0.4410 -0.1531
 4106SOL    HW124297   7.093  10.466   1.675  0.6192  0.2816 -1.0996
 4106SOL    HW224298   7.116  10.317   1.664  0.1261  0.1212 -0.0498
 4107SOL     OW24299   5.151  11.560   8.536 -0.0636 -0.1116  0.7555
 4107SOL    HW124300   5.161  11.514   8.453 -0.5058  0.1146  0.5736
 4107SOL    HW224301   5.182  11.498   8.602  1.3509  0.1156  0.3334
 4108SOL     OW24302   3.016   3.112   7.550 -0.9363  0.1687  0.1538
 4108SOL    HW124303   2.979   3.024   7.539 -0.3347 -0.2473  1.2682
 4108SOL    HW224304   2.974   3.165   7.482 -1.3992 -0.9522 -0.4570
 4109SOL     OW24305   9.733   5.940   9.748 -0.8550  0.3500 -0.0221
 4109SOL    HW124306   9.771   6.012   9.697  0.2794 -0.4536 -0.3547
 4109SOL    HW224307   9.722   5.977   9.836 -0.1503  0.8953 -0.1462
 4110SOL     OW24308   2.261   3.633  13.479 -0.6010  0.0404 -0.3536
 4110SOL    HW124309   2.354   3.613  13.478 -0.7045 -0.4535 -0.2953
 4110SOL    HW224310   2.238   3.647  13.387  0.1294  3.0620 -0.1865
 4111SOL     OW24311  11.777   1.575   3.935  0.0138 -0.6337  0.1478
 4111SOL    HW124312  11.695   1.625   3.935  0.1215 -0.3731 -1.6559
 4111SOL    HW224313  11.839   1.631   3.980  0.0114  0.7002 -1.4318
 4112SOL     OW24314  12.050   1.444   7.430  0.0974  0.3360 -0.2256
 4112SOL    HW124315  12.141   1.432   7.403 -0.6029  0.2730 -2.7195
 4112SOL    HW224316  12.019   1.355   7.448  0.1533  0.2307 -0.6488
 4113SOL     OW24317  12.012   4.290  12.496 -0.0771  0.2266  0.1684
 4113SOL    HW124318  11.964   4.252  12.570 -1.7325 -0.1160 -1.0327
 4113SOL    HW224319  11.973   4.249  12.419  1.2934  0.9289 -0.9271
 4114SOL     OW24320  13.330   8.587   5.055 -0.2572 -0.8704 -0.1694
 4114SOL    HW124321  13.415   8.556   5.025  0.7633  0.8646  0.7739
 4114SOL    HW224322  13.314   8.537   5.135  2.3449  2.1556  2.5070
 4115SOL     OW24323   3.314   1.052   4.555 -0.4010 -0.4465 -0.3850
 4115SOL    HW124324   3.262   0.985   4.599  0.4314 -0.1121  1.1883
 4115SOL    HW224325   3.405   1.025   4.567  0.1227  1.9865  2.2745
 4116SOL     OW24326   8.791   5.374   5.707  0.2213  0.1767 -0.0288
 4116SOL    HW124327   8.769   5.289   5.745  2.8282  0.5191  2.5871
 4116SOL    HW224328   8.740   5.436   5.757  0.3700  0.3286 -0.0651
 4117SOL     OW24329   0.459  10.377   1.903  0.1870  0.1934  0.2764
 4117SOL    HW124330   0.486  10.289   1.877 -0.3129 -0.1400  0.8912
 4117SOL    HW224331   0.489  10.386   1.993  0.1887  0.6379  0.2350
 4118SOL     OW24332   2.496  12.169   7.810 -0.0283  0.1127 -0.3665
 4118SOL    HW124333   2.498  12.076   7.787 -1.3525  0.3244 -1.4349
 4118SOL    HW224334   2.404  12.193   7.807  0.2368  1.3448  0.4582
 4119SOL     OW24335  10.561   9.206  13.972 -0.0017  0.1605 -0.1610
 4119SOL    HW124336  10.534   9.274  13.910 -0.9683  1.3754  1.4768
 4119SOL    HW224337  10.546   9.124  13.926  0.0442  1.0160 -1.7798
 4120SOL     OW24338   9.964   4.516  13.924 -0.4279 -0.0647 -0.4627
 4120SOL    HW124339  10.017   4.439  13.944  0.7160  1.0215  0.9427
 4120SOL    HW224340   9.883   4.481  13.887 -0.0136 -1.9435  0.3006
 4121SOL     OW24341   0.464   3.594   5.114  0.4439 -0.0320  0.6840
 4121SOL    HW124342   0.542   3.642   5.086  0.3303  1.0243  2.0480
 4121SOL    HW224343   0.495   3.505   5.128  1.2985  0.2472  0.6808
 4122SOL     OW24344  13.734   7.833   3.655  0.4845  0.1245  0.2392
 4122SOL    HW124345  13.665   7.804   3.715  1.0419 -0.1258  0.7707
 4122SOL    HW224346  13.697   7.820   3.568 -0.6498  1.2511  0.5269
 4123SOL     OW24347   2.274   8.964   1.162  0.5226 -0.0499  0.5243
 4123SOL    HW124348   2.278   8.920   1.077 -1.9540 -0.6091  0.6259
 4123SOL    HW224349   2.300   9.054   1.144  1.6223 -0.5542 -0.4966
 4124SOL     OW24350  11.274  11.445   4.050  0.1330 -0.3420 -0.1990
 4124SOL    HW124351  11.339  11.505   4.015  1.2536 -1.2444  0.2279
 4124SOL    HW224352  11.262  11.379   3.982 -2.2051  1.0858 -1.2874
 4125SOL     OW24353   6.933   2.284   9.567 -0.7365  0.6435  0.4342
 4125SOL    HW124354   7.005   2.245   9.516 -0.3549 -0.7328  1.9300
 4125SOL    HW224355   6.854   2.254   9.523 -0.4125 -0.4840  0.5761
 4126SOL     OW24356  12.843   9.649   3.742  0.3844 -0.2598  0.0732
 4126SOL    HW124357  12.919   9.621   3.691 -0.8189 -0.9421 -1.4284
 4126SOL    HW224358  12.879   9.710   3.807  2.2248 -0.7200 -0.4494
 4127SOL     OW24359   0.356  10.748   2.321 -0.0242  0.0654 -0.0465
 4127SOL    HW124360   0.273  10.792   2.338 -0.6636 -0.7933 -0.9064
 4127SOL    HW224361   0.366  10.750   2.226  1.1232  0.4676  0.0596
 4128SOL     OW24362  10.094   1.143  10.760 -0.0918 -0.1212 -0.1531
 4128SOL    HW124363  10.060   1.062  10.723 -0.6377  0.4199 -0.8453
 4128SOL    HW224364  10.088   1.130  10.855 -0.5224 -0.7396 -0.2632
 4129SOL     OW24365   8.431   0.191   5.591  0.4186  0.2163 -0.3709
 4129SOL    HW124366   8.487   0.199   5.667 -0.2030  0.0324  0.1125
 4129SOL    HW224367   8.414   0.281   5.564 -0.3357  0.3264  0.4371
 4130SOL     OW24368   9.477  10.254   8.715 -0.0917  0.2154  0.5723
 4130SOL    HW124369   9.554  10.242   8.660  0.5890  0.6916  1.3961
 4130SOL    HW224370   9.512  10.260   8.804 -1.1813 -0.7743  1.0929
 4131SOL     OW24371  13.677   8.329   8.300  0.4439  0.0127 -0.7228
 4131SOL    HW124372  13.589   8.361   8.280  0.7450  1.2347 -0.2108
 4131SOL    HW224373  13.709   8.293   8.217 -0.0842  0.6886 -1.2267
 4132SOL     OW24374   0.289   1.602   4.335  0.1142  0.4265  0.1749
 4132SOL    HW124375   0.381   1.578   4.347  1.0818  2.6633 -1.8931
 4132SOL    HW224376   0.256   1.537   4.273  1.7136  2.1385 -2.6840
 4133SOL     OW24377  12.439  11.117   0.125 -0.5481  0.0677 -0.2907
 4133SOL    HW124378  12.364  11.083   0.076 -0.8634  1.5109 -0.8736
 4133SOL    HW224379  12.408  11.200   0.162  0.9212  0.9733 -1.0095
 4134SOL     OW24380   5.244  10.469  11.851  0.0116 -0.0653 -0.2188
 4134SOL    HW124381   5.252  10.382  11.812 -0.6134 -0.1005 -0.2793
 4134SOL    HW224382   5.155  10.497  11.829  1.0135  1.6426 -2.3486
 4135SOL     OW24383  11.135   7.692  11.839 -0.3324  0.6781 -0.6673
 4135SOL    HW124384  11.194   7.736  11.777 -0.2784  1.0941 -0.3293
 4135SOL    HW224385  11.165   7.722  11.925 -0.3362  0.0187 -0.4311
 4136SOL     OW24386  12.101  11.888   7.856 -0.4926 -0.1490 -0.2058
 4136SOL    HW124387  12.024  11.852   7.901 -0.3162 -2.2142 -1.4171
 4136SOL    HW224388  12.174  11.834   7.886 -0.3952 -1.7553 -2.9640
 4137SOL     OW24389  10.265  10.783  13.136  0.0112  0.3213  0.1812
 4137SOL    HW124390  10.278  10.872  13.169 -1.0582  0.2581  0.8408
 4137SOL    HW224391  10.237  10.733  13.213  0.5958 -0.5935 -0.1814
 4138SOL     OW24392   6.665  11.614   2.193 -0.3545 -1.0016  1.1112
 4138SOL    HW124393   6.646  11.655   2.277  0.1398 -1.5801  1.5036
 4138SOL    HW224394   6.674  11.521   2.212  1.4406 -0.9388  0.7015
 4139SOL     OW24395   8.486   0.009   6.324  0.0441  0.1319 -0.0212
 4139SOL    HW124396   8.574  -0.008   6.357 -0.3352 -1.0582  0.4173
 4139SOL    HW224397   8.435   0.033   6.401 -0.5262 -1.3636  0.1125
 4140SOL     OW24398  13.026  11.538  10.210  0.3673 -0.2151 -0.1147
 4140SOL    HW124399  12.940  11.499  10.196  0.3013  0.3751 -1.4435
 4140SOL    HW224400  13.068  11.536  10.124  1.6694 -0.4552  0.5081
 4141SOL     OW24401  11.741  11.144   3.311  0.0023 -0.3055  0.6554
 4141SOL    HW124402  11.705  11.181   3.392  0.4807 -0.4891  0.9520
 4141SOL    HW224403  11.671  11.158   3.246 -0.2910  0.0534  1.0389
 4142SOL     OW24404   8.548  10.148   7.911  0.3475  0.2779 -0.2916
 4142SOL    HW124405   8.493  10.097   7.970  1.4534  1.5744  1.9916
 4142SOL    HW224406   8.495  10.159   7.832 -1.2576 -1.4235  0.4862
 4143SOL     OW24407  10.896  10.927  12.468 -0.4148  0.3608 -0.1750
 4143SOL    HW124408  10.981  10.944  12.427 -0.2872  1.4529  0.4919
 4143SOL    HW224409  10.890  10.992  12.538 -1.2152 -0.5865  0.6646
 4144SOL     OW24410   4.168  10.964   1.609  0.4022  0.1757 -0.7252
 4144SOL    HW124411   4.074  10.979   1.613  0.8594  3.9331 -0.0852
 4144SOL    HW224412   4.195  10.999   1.524  1.6003  3.3010  0.7707
 4145SOL     OW24413  12.171   8.345  11.051  0.0147  0.0027 -0.0887
 4145SOL    HW124414  12.182   8.328  10.957  1.0602 -0.2555  0.0672
 4145SOL    HW224415  12.221   8.276  11.094 -0.3376  0.2025  0.6609
 4146SOL     OW24416   0.135   2.362   8.245  0.4041 -0.0160 -0.1811
 4146SOL    HW124417   0.057   2.333   8.198  1.5781 -1.7897 -1.1519
 4146SOL    HW224418   0.101   2.395   8.328 -1.4035 -0.4396 -0.6965
 4147SOL     OW24419   2.992   0.133   6.713  0.2181  0.4913  0.4104
 4147SOL    HW124420   3.078   0.096   6.733 -0.8234 -1.2137  2.0287
 4147SOL    HW224421   2.957   0.159   6.798 -0.7062  1.6020 -0.2776
 4148SOL     OW24422   4.031  10.820   9.475  0.7324  0.0112  0.2215
 4148SOL    HW124423   3.976  10.758   9.429 -0.6473 -0.7294  2.6781
 4148SOL    HW224424   4.009  10.905   9.436 -0.8706 -0.4882 -0.0321
 4149SOL     OW24425  10.257   1.294   0.092 -0.1932  0.1503 -0.1022
 4149SOL    HW124426  10.209   1.307   0.174 -0.4894 -0.5025 -0.1725
 4149SOL    HW224427  10.303   1.377   0.079 -0.5246  0.4343  0.4743
 4150SOL     OW24428  12.451   2.776   8.971  0.0562  0.7676  0.0058
 4150SOL    HW124429  12.401   2.713   9.024  0.6190  2.1133  2.2754
 4150SOL    HW224430  12.384   2.832   8.932 -0.4014 -0.5695 -1.2080
 4151SOL     OW24431   0.166  11.594   5.409  0.3789  0.3323 -0.5215
 4151SOL    HW124432   0.250  11.629   5.380  0.9028 -0.4953 -0.0447
 4151SOL    HW224433   0.121  11.570   5.328  1.3107 -0.7971 -0.7224
 4152SOL     OW24434   2.200   1.647  10.906  0.2049 -0.1755  0.4238
 4152SOL    HW124435   2.112   1.613  10.890 -0.6905  1.8835  0.7085
 4152SOL    HW224436   2.214   1.710  10.835  0.8967  0.4936  1.1384
 4153SOL     OW24437   6.154  12.259   5.336  0.0551  0.0451  0.3521
 4153SOL    HW124438   6.224  12.194   5.328 -0.5950 -0.8682  1.7045
 4153SOL    HW224439   6.153  12.304   5.251  0.4039 -1.8383 -0.6972
 4154SOL     OW24440   4.045   6.547   3.041  0.0410 -0.4559 -0.1010
 4154SOL    HW124441   3.994   6.549   2.959 -0.9624  1.3272  0.4974
 4154SOL    HW224442   4.042   6.456   3.069 -2.9133 -0.4829 -0.1191
 4155SOL     OW24443   6.311   7.569   2.259 -0.1862  0.1925 -0.0413
 4155SOL    HW124444   6.344   7.543   2.345 -0.9206  3.9199  1.5475
 4155SOL    HW224445   6.232   7.620   2.277  1.5470  4.2627 -2.4347
 4156SOL     OW24446   4.043   1.225   3.302  0.0029  0.5085  0.4572
 4156SOL    HW124447   4.073   1.256   3.217 -0.1910  0.1891  0.2719
 4156SOL    HW224448   4.011   1.303   3.346  0.0694  0.6685  0.2228
 4157SOL     OW24449  12.549  10.200   7.292  0.1499  0.6418  0.6366
 4157SOL    HW124450  12.521  10.255   7.219  2.0680  0.9179  0.0612
 4157SOL    HW224451  12.496  10.120   7.283 -0.3500  1.0754 -0.4419
 4158SOL     OW24452  13.560   0.856  11.204 -0.1496 -0.2023  0.1934
 4158SOL    HW124453  13.564   0.782  11.144  0.3040  1.2247 -1.5983
 4158SOL    HW224454  13.648   0.862  11.241  0.3934  0.6362 -1.1852
 4159SOL     OW24455   4.404   3.437   6.085 -0.3155 -0.3410  0.5257
 4159SOL    HW124456   4.494   3.430   6.118  0.7844  1.2064 -1.8763
 4159SOL    HW224457   4.413   3.439   5.990 -2.7230  1.5958  0.2283
 4160SOL     OW24458   3.846   4.619   2.903  0.0714 -0.0605 -0.3571
 4160SOL    HW124459   3.779   4.573   2.954  0.7883  0.6895  1.3269
 4160SOL    HW224460   3.799   4.653   2.827 -0.7529 -2.3632 -0.9547
 4161SOL     OW24461   8.162   7.003   2.664 -0.2230 -0.6768  0.3753
 4161SOL    HW124462   8.074   7.036   2.648  0.2359 -0.2395 -1.5299
 4161SOL    HW224463   8.168   6.924   2.610  0.7693 -0.2727 -0.1434
 4162SOL     OW24464   1.687  13.458  12.899  0.0453 -0.1547  0.2832
 4162SOL    HW124465   1.670  13.530  12.837  0.2657 -0.0057  0.3976
 4162SOL    HW224466   1.782  13.457  12.910  0.0554 -0.5511  0.1812
 4163SOL     OW24467   7.607   4.220  11.502 -0.2400  0.0659 -0.1598
 4163SOL    HW124468   7.656   4.143  11.531 -0.1611  0.7357  1.6115
 4163SOL    HW224469   7.521   4.210  11.542 -0.6498  0.2660 -0.9832
 4164SOL     OW24470   4.641   3.652   4.667 -0.0654 -0.1015  0.3411
 4164SOL    HW124471   4.690   3.700   4.601  1.6777 -0.8764  1.0175
 4164SOL    HW224472   4.704   3.592   4.705 -1.3266 -0.5047  1.9089
 4165SOL     OW24473  13.964   6.419   2.671 -0.3036 -0.6853 -0.1243
 4165SOL    HW124474  13.987   6.359   2.601  2.1116 -2.9249  2.3720
 4165SOL    HW224475  14.042   6.473   2.683 -1.3181  0.8684 -0.2329
 4166SOL     OW24476   4.688   7.631  10.811 -0.0575  0.8498 -0.3413
 4166SOL    HW124477   4.748   7.558  10.822 -0.2530  0.6141 -0.8313
 4166SOL    HW224478   4.624   7.621  10.881 -0.9787 -0.3305 -1.3179
 4167SOL     OW24479  10.992   0.682   5.526  0.4796  0.1001  0.3138
 4167SOL    HW124480  10.991   0.613   5.592  1.1035  1.2513  1.5935
 4167SOL    HW224481  10.991   0.636   5.443 -0.2174 -1.4097  1.1187
 4168SOL     OW24482   2.669   5.104   3.444 -0.1186 -0.0816 -0.1787
 4168SOL    HW124483   2.618   5.134   3.368  0.1515  0.5353 -0.1192
 4168SOL    HW224484   2.737   5.049   3.406 -0.7469 -0.8086 -0.2710
 4169SOL     OW24485   5.354   9.827  12.986 -0.5096 -0.7276  0.4502
 4169SOL    HW124486   5.299   9.773  12.928 -0.4570 -0.7215  0.3938
 4169SOL    HW224487   5.421   9.862  12.928 -1.7714  1.1386  0.0308
 4170SOL     OW24488   8.769  12.140  13.775 -0.3898  0.2814 -0.4328
 4170SOL    HW124489   8.771  12.048  13.799 -0.2808  0.2986 -0.3754
 4170SOL    HW224490   8.827  12.183  13.838 -0.2384  0.3516 -0.6171
 4171SOL     OW24491   7.612   7.137   6.619 -0.6362 -0.5474  0.1568
 4171SOL    HW124492   7.543   7.119   6.555 -0.8827 -1.4214  0.6521
 4171SOL    HW224493   7.594   7.077   6.691  1.0855 -1.3209 -0.0204
 4172SOL     OW24494   0.480   4.279   2.478  0.2503  0.0436 -0.3852
 4172SOL    HW124495   0.540   4.331   2.532 -1.3904  0.4627  1.1409
 4172SOL    HW224496   0.483   4.192   2.518 -1.6653  0.5816  1.0774
 4173SOL     OW24497  11.255   8.664   0.872 -0.1707 -0.3216 -0.2400
 4173SOL    HW124498  11.307   8.596   0.915 -1.3299 -0.7882  0.4814
 4173SOL    HW224499  11.252   8.736   0.936  1.7056  0.7699 -1.3085
 4174SOL     OW24500   3.743  10.706  11.261 -0.0476  0.1677  0.3086
 4174SOL    HW124501   3.714  10.771  11.198 -0.0242 -1.3267 -1.3469
 4174SOL    HW224502   3.831  10.681  11.231 -1.1095 -2.5912 -0.8605
 4175SOL     OW24503   2.848   6.946   7.152 -0.5258  0.3850  0.2840
 4175SOL    HW124504   2.857   6.895   7.072  1.2147 -0.3112  0.8768
 4175SOL    HW224505   2.857   7.037   7.124 -2.3809  0.3392 -0.6071
 4176SOL     OW24506  13.163   4.255  11.708  0.7747 -0.0540 -0.0168
 4176SOL    HW124507  13.089   4.207  11.671 -0.5247  1.6418  0.2521
 4176SOL    HW224508  13.186   4.206  11.787 -1.8178  0.7394  1.3533
 4177SOL     OW24509   9.869   0.451   5.196 -0.5321 -0.1049  0.0750
 4177SOL    HW124510   9.895   0.540   5.217 -0.0898 -0.0458 -0.7069
 4177SOL    HW224511   9.932   0.396   5.244 -0.8714 -0.0052  0.6437
 4178SOL     OW24512   2.407   6.323  11.261 -0.2099 -0.3285  0.2943
 4178SOL    HW124513   2.373   6.412  11.251  0.7725  0.2604  1.8436
 4178SOL    HW224514   2.361   6.289  11.337 -1.6519 -1.7278 -1.1314
 4179SOL     OW24515   6.932  10.288  11.492 -0.2652  0.1428 -0.1971
 4179SOL    HW124516   7.014  10.293  11.442  0.3679  0.6912  0.8602
 4179SOL    HW224517   6.923  10.195  11.513  0.8878  0.2616  0.9354
 4180SOL     OW24518   1.544   9.738   5.227 -0.1630  0.5523 -0.1152
 4180SOL    HW124519   1.560   9.692   5.310 -0.3073  1.3296  0.3451
 4180SOL    HW224520   1.461   9.784   5.240 -0.7706 -0.2209 -1.0945
 4181SOL     OW24521   5.426  11.475   5.957  0.2744  0.1496  0.2716
 4181SOL    HW124522   5.504  11.512   6.000  0.6195 -0.1007 -0.1353
 4181SOL    HW224523   5.362  11.547   5.958 -0.1419 -0.1716  2.2248
 4182SOL     OW24524   1.263   1.602  13.944 -0.3016  0.3187 -0.4486
 4182SOL    HW124525   1.356   1.580  13.937 -0.4683 -0.8425  0.6721
 4182SOL    HW224526   1.230   1.544  14.012 -1.5297  1.7862  0.2535
 4183SOL     OW24527   7.847   3.955   9.911 -0.6005  0.1134 -0.0190
 4183SOL    HW124528   7.766   3.971   9.864 -2.0311 -2.1122  1.4629
 4183SOL    HW224529   7.886   4.041   9.924 -1.2828  1.0172 -3.1170
 4184SOL     OW24530   6.724   6.312   3.938  0.0258  0.1522 -0.2514
 4184SOL    HW124531   6.738   6.227   3.979  0.2733  1.1285  1.8202
 4184SOL    HW224532   6.689   6.292   3.851 -0.6151 -2.0302  0.4609
 4185SOL     OW24533  12.036   7.924  10.529  0.1813 -0.6619 -0.7767
 4185SOL    HW124534  12.118   7.887  10.562  1.4036  1.4356 -1.2500
 4185SOL    HW224535  12.010   7.987  10.597 -1.3600 -1.6532 -0.3953
 4186SOL     OW24536  12.199   2.853   4.646  0.1012 -0.0605 -0.5099
 4186SOL    HW124537  12.216   2.777   4.702  0.3105 -0.0346 -0.5403
 4186SOL    HW224538  12.277   2.907   4.654  0.3701 -0.3300 -1.2827
 4187SOL     OW24539   1.583   5.632   0.517 -0.1794 -0.6695  0.1779
 4187SOL    HW124540   1.600   5.546   0.556 -0.4346 -0.7254  0.1698
 4187SOL    HW224541   1.547   5.611   0.431 -1.1131 -0.5662  0.5338
 4188SOL     OW24542   3.454   3.188   2.598  0.7270 -0.1253 -0.0957
 4188SOL    HW124543   3.389   3.236   2.546  0.5459 -0.3657 -0.0931
 4188SOL    HW224544   3.425   3.097   2.595  0.6595 -0.1261  0.5112
 4189SOL     OW24545   6.800  11.075   5.772  0.0419  0.1891  0.2149
 4189SOL    HW124546   6.819  11.099   5.863  0.7353  0.6777 -0.0470
 4189SOL    HW224547   6.871  11.115   5.722 -1.6049  1.9633 -0.8205
 4190SOL     OW24548   2.528  11.104  11.475 -0.5877  0.2093 -0.4378
 4190SOL    HW124549   2.536  11.008  11.476 -0.4224  0.2214  0.2669
 4190SOL    HW224550   2.478  11.124  11.554 -0.2599  0.7330 -0.3608
 4191SOL     OW24551  11.370   9.421   3.926  0.0886  0.4579  0.4684
 4191SOL    HW124552  11.348   9.412   3.833 -1.7294  0.6606  0.8403
 4191SOL    HW224553  11.390   9.332   3.955 -1.5248  0.0383  0.3695
 4192SOL     OW24554  10.265  11.192  10.744 -0.0781 -0.3316  0.1881
 4192SOL    HW124555  10.251  11.231  10.657  0.6472 -0.7840 -0.1399
 4192SOL    HW224556  10.348  11.228  10.774 -0.3692 -0.1084  0.7462
 4193SOL     OW24557   5.752   3.837   7.524  0.0838 -0.1198 -0.0849
 4193SOL    HW124558   5.661   3.840   7.492 -0.1586  1.0468  0.6513
 4193SOL    HW224559   5.765   3.746   7.549 -1.1534 -0.1699  0.4831
 4194SOL     OW24560   6.894  12.927   5.803  0.2384  0.0203  0.2840
 4194SOL    HW124561   6.989  12.925   5.791  0.0004  1.8949 -2.9223
 4194SOL    HW224562   6.859  12.878   5.729 -1.3477 -0.3323  1.2088
 4195SOL     OW24563  11.089   4.961  10.419  0.6297  0.0903 -0.0467
 4195SOL    HW124564  11.171   4.912  10.428  0.4351 -0.1716  0.3144
 4195SOL    HW224565  11.029   4.920  10.482 -0.5289 -1.3052 -1.9378
 4196SOL     OW24566  12.133  13.666   4.201  0.0250  0.3869  0.0980
 4196SOL    HW124567  12.039  13.663   4.182 -0.0291  1.1318  0.2335
 4196SOL    HW224568  12.142  13.733   4.269  0.8783  1.6859 -1.2421
 4197SOL     OW24569   4.741   4.060   9.647 -0.0422 -0.4220 -0.4888
 4197SOL    HW124570   4.800   3.985   9.642  2.4097  1.1665  1.5515
 4197SOL    HW224571   4.705   4.058   9.736 -2.2150 -0.6742 -1.3170
 4198SOL     OW24572  12.128   0.582  13.618 -0.1272  0.0516  0.0686
 4198SOL    HW124573  12.121   0.673  13.590  2.6174  0.6078  0.8830
 4198SOL    HW224574  12.177   0.539  13.548  1.8030  0.1257  1.3066
 4199SOL     OW24575   4.101   4.606   0.272  0.5977  0.4046  0.4480
 4199SOL    HW124576   4.064   4.527   0.233 -1.8545  1.5078  0.3811
 4199SOL    HW224577   4.084   4.597   0.366 -1.1822  1.5287  0.2727
 4200SOL     OW24578   4.297   5.650   8.089  0.3739 -0.9049 -0.0852
 4200SOL    HW124579   4.376   5.598   8.101  1.5969  1.0686  1.0741
 4200SOL    HW224580   4.288   5.701   8.170 -0.9110  0.4279 -0.9878
 4201SOL     OW24581   6.880   4.784  12.601  0.2458  0.2133  0.1108
 4201SOL    HW124582   6.884   4.729  12.680  0.9748 -0.1041 -0.1456
 4201SOL    HW224583   6.862   4.872  12.635 -0.5757 -0.1055  0.5491
 4202SOL     OW24584   7.521   9.512   5.961  0.0532 -0.3125 -0.3066
 4202SOL    HW124585   7.614   9.533   5.948  1.0048 -2.9948  1.2073
 4202SOL    HW224586   7.478   9.542   5.881  2.0367  1.8294 -0.6762
 4203SOL     OW24587  12.018  10.344   0.395 -0.1922 -0.2754  0.0880
 4203SOL    HW124588  12.092  10.401   0.375  1.1324 -1.9085  0.1339
 4203SOL    HW224589  11.941  10.401   0.388  0.7986  0.8868 -2.5670
 4204SOL     OW24590   9.381  11.310   7.666  0.3050 -0.4246  0.0576
 4204SOL    HW124591   9.390  11.395   7.621 -0.0597  0.1590  1.0474
 4204SOL    HW224592   9.468  11.271   7.660  1.5462  1.6270  2.6733
 4205SOL     OW24593  12.423   7.035   2.616 -0.0117 -0.4138 -0.5536
 4205SOL    HW124594  12.504   7.078   2.642 -0.0090 -0.2467 -0.8314
 4205SOL    HW224595  12.429   7.029   2.520 -0.3388 -0.3749 -0.5790
 4206SOL     OW24596   9.567  10.820   5.271  0.0627  0.0831  0.3725
 4206SOL    HW124597   9.479  10.841   5.239  0.0740  0.9300  0.8745
 4206SOL    HW224598   9.623  10.825   5.194 -0.3451 -0.6239  0.0175
 4207SOL     OW24599   9.037   7.391  11.718  0.4622  0.5495 -0.1359
 4207SOL    HW124600   9.011   7.357  11.803 -0.0830 -1.5744 -1.0845
 4207SOL    HW224601   9.132   7.378  11.714  0.2247 -1.2807 -0.6030
 4208SOL     OW24602   9.938   4.873   9.652  0.3930 -0.4223  0.1258
 4208SOL    HW124603  10.022   4.845   9.617 -0.1449 -0.8604 -0.8314
 4208SOL    HW224604   9.961   4.922   9.732  1.7043  1.2628 -1.1949
 4209SOL     OW24605   0.186  12.903  11.228 -0.0585 -0.1958 -0.0416
 4209SOL    HW124606   0.227  12.987  11.248 -0.2591  0.3410 -1.6990
 4209SOL    HW224607   0.254  12.854  11.181 -0.6317 -0.0789 -1.0270
 4210SOL     OW24608   7.484   4.923   8.014 -0.1400  0.3705 -0.4619
 4210SOL    HW124609   7.481   5.016   7.992  0.5648  0.3493 -0.6572
 4210SOL    HW224610   7.532   4.883   7.941  0.2515 -0.0246  0.0099
 4211SOL     OW24611   0.649   4.153  12.927  0.5758 -0.1447  0.2691
 4211SOL    HW124612   0.731   4.142  12.878  0.3445 -1.1598  0.0856
 4211SOL    HW224613   0.586   4.099  12.881 -0.4772  1.4026 -0.1642
 4212SOL     OW24614   6.219   0.457   4.450 -0.0342  0.0262 -0.3989
 4212SOL    HW124615   6.191   0.483   4.362  0.0352 -0.9203 -0.7170
 4212SOL    HW224616   6.137   0.450   4.500 -0.2946 -1.4998 -0.9847
 4213SOL     OW24617  10.418   3.375   4.904 -0.1531 -0.3883  0.2554
 4213SOL    HW124618  10.407   3.297   4.849 -2.4864  0.4937 -0.6525
 4213SOL    HW224619  10.419   3.448   4.843 -1.8158  0.5541  1.2849
 4214SOL     OW24620  11.247   1.170   8.289  0.5868 -0.2700  0.5459
 4214SOL    HW124621  11.175   1.209   8.338  0.9562  0.2381  0.6917
 4214SOL    HW224622  11.305   1.135   8.357  0.9431  0.1606  0.4702
 4215SOL     OW24623   7.857  12.946   4.222  0.5548  0.6613 -0.0527
 4215SOL    HW124624   7.794  12.877   4.243  0.2267  1.3123  1.1865
 4215SOL    HW224625   7.915  12.907   4.156 -2.2328  0.6378 -2.6841
 4216SOL     OW24626  12.135  11.455   0.390 -0.2768 -0.4058 -0.2023
 4216SOL    HW124627  12.155  11.528   0.447  1.3974 -0.9044 -0.0938
 4216SOL    HW224628  12.135  11.492   0.302  1.1274 -0.3474 -0.1975
 4217SOL     OW24629  13.403   8.260   5.096  0.0955 -0.2396  0.0270
 4217SOL    HW124630  13.365   8.323   5.158 -0.3622  1.2840 -1.7054
 4217SOL    HW224631  13.479   8.225   5.141 -1.3858 -0.7825  2.2587
 4218SOL     OW24632   5.799  13.941   4.032 -0.1299 -0.1977 -0.9181
 4218SOL    HW124633   5.861  14.014   4.039 -0.6222  0.0736  2.0769
 4218SOL    HW224634   5.714  13.980   4.054 -0.6234 -1.3869 -0.6216
 4219SOL     OW24635   7.600   3.607  13.215 -0.2957 -0.2823 -0.0265
 4219SOL    HW124636   7.548   3.687  13.210 -0.2689 -0.2248  0.6082
 4219SOL    HW224637   7.667   3.618  13.148 -1.0387 -0.3196 -0.8025
 4220SOL     OW24638   2.118  11.740  10.028 -0.4481  0.0460 -0.6167
 4220SOL    HW124639   2.203  11.777  10.005 -1.0925  2.2000  0.2441
 4220SOL    HW224640   2.127  11.716  10.121 -1.1078  1.4227 -0.1712
 4221SOL     OW24641   3.066   8.783  13.094  0.1683 -0.0936 -0.1268
 4221SOL    HW124642   3.125   8.805  13.021 -1.4350  0.7085 -1.2414
 4221SOL    HW224643   2.993   8.843  13.084 -0.9928 -1.2561  1.0487
 4222SOL     OW24644   5.245   9.165   3.433  0.3004 -0.3057  0.5205
 4222SOL    HW124645   5.308   9.106   3.394  0.0555  0.1500 -0.5991
 4222SOL    HW224646   5.263   9.161   3.527  1.8446 -0.3425  0.2424
 4223SOL     OW24647   4.859   1.700   1.638  0.7310  0.2008 -0.0735
 4223SOL    HW124648   4.799   1.704   1.563  1.4311 -0.3004 -0.6794
 4223SOL    HW224649   4.940   1.738   1.606  0.8454  0.5799  0.6433
 4224SOL     OW24650   0.165   1.902   8.782  0.3356  0.1615  0.2752
 4224SOL    HW124651   0.176   1.926   8.690 -3.0613 -1.5130 -0.7389
 4224SOL    HW224652   0.205   1.975   8.830  1.6817  1.4177 -2.4701
 4225SOL     OW24653  10.869   9.787  12.508 -0.3355  0.6410 -0.1617
 4225SOL    HW124654  10.785   9.742  12.501 -0.8394  1.4342  0.5674
 4225SOL    HW224655  10.845   9.879  12.524  0.6689  0.8141  0.4203
 4226SOL     OW24656   4.149   3.438  11.762 -0.1696 -0.2418 -0.2411
 4226SOL    HW124657   4.071   3.394  11.796 -0.2579 -0.1406 -0.3097
 4226SOL    HW224658   4.180   3.381  11.692 -1.0261  0.4208 -1.2062
 4227SOL     OW24659   2.773   6.050   7.821 -0.3337  0.1506 -0.5025
 4227SOL    HW124660   2.808   6.136   7.796 -1.1497  0.8275  0.6296
 4227SOL    HW224661   2.694   6.041   7.769 -1.6263  1.2348  1.1607
 4228SOL     OW24662  11.829   0.981   3.248 -0.6738 -0.4280  0.1482
 4228SOL    HW124663  11.790   1.059   3.209 -0.2512 -0.3059 -0.0270
 4228SOL    HW224664  11.867   0.933   3.175  1.7346  0.6990  0.5655
 4229SOL     OW24665   1.422   7.365  13.684 -0.0884  0.1190 -0.0566
 4229SOL    HW124666   1.486   7.396  13.619  0.4505  0.3690  0.5824
 4229SOL    HW224667   1.386   7.285  13.646  0.1326  0.3247 -0.7187
 4230SOL     OW24668   8.807   2.338  12.961  0.4377 -0.0629 -0.1089
 4230SOL    HW124669   8.744   2.337  13.033  1.4796 -1.0793  0.8375
 4230SOL    HW224670   8.892   2.348  13.003  0.9981  0.3428 -1.2831
 4231SOL     OW24671   7.297   9.108   7.666  0.9854 -0.3533 -0.0312
 4231SOL    HW124672   7.318   9.178   7.604  2.5299 -1.5736 -0.9390
 4231SOL    HW224673   7.379   9.061   7.678  0.3189 -1.1574  1.6901
 4232SOL     OW24674   7.216  12.164   0.317  0.1881 -0.8680 -0.2786
 4232SOL    HW124675   7.254  12.211   0.392 -0.6236 -0.8069  0.1089
 4232SOL    HW224676   7.281  12.098   0.295  1.1589  0.1415 -0.5453
 4233SOL     OW24677   9.022  11.097  12.484  0.2852 -0.2119  0.1972
 4233SOL    HW124678   9.017  11.148  12.403  1.6360  0.0301  0.2396
 4233SOL    HW224679   8.934  11.060  12.495  0.0366 -0.1309 -1.3004
 4234SOL     OW24680   4.988   2.766   3.571  0.1447 -0.7032 -0.1277
 4234SOL    HW124681   5.067   2.727   3.534  0.9833  1.7098 -1.1050
 4234SOL    HW224682   4.916   2.715   3.535  1.2065 -2.3876  0.0496
 4235SOL     OW24683  13.661   4.020   2.254 -0.0813 -0.2102 -0.1657
 4235SOL    HW124684  13.729   4.085   2.274  1.1848 -1.4751 -0.2103
 4235SOL    HW224685  13.685   3.943   2.307 -2.1951 -0.2900  0.7820
 4236SOL     OW24686   4.634   6.892  11.170  0.6452  0.2645 -0.2714
 4236SOL    HW124687   4.548   6.877  11.132  0.4162 -1.5734  0.8515
 4236SOL    HW224688   4.616   6.925  11.258  1.0770  0.0088 -0.0808
 4237SOL     OW24689   6.071   8.471  10.475  0.0812 -0.9306  0.2577
 4237SOL    HW124690   6.065   8.394  10.418  2.6530 -0.0865 -1.3394
 4237SOL    HW224691   6.088   8.435  10.562  0.1553 -2.1879 -0.2516
 4238SOL     OW24692   6.793   3.596  12.333  0.6019 -0.2605 -0.1430
 4238SOL    HW124693   6.719   3.657  12.342  0.4180 -0.6143  0.8812
 4238SOL    HW224694   6.828   3.613  12.246 -0.6586 -0.0400 -0.6249
 4239SOL     OW24695   6.031   7.360   4.265 -0.2180  0.0897  0.5485
 4239SOL    HW124696   6.045   7.409   4.347 -0.4161  0.2294  0.5004
 4239SOL    HW224697   6.010   7.427   4.200  1.5679  0.1474 -0.0207
 4240SOL     OW24698  13.310   9.397   3.482  0.1530 -0.2264  0.5940
 4240SOL    HW124699  13.293   9.306   3.506  0.2077 -0.7708 -1.2340
 4240SOL    HW224700  13.358   9.433   3.556  0.4866 -1.8077  1.1953
 4241SOL     OW24701   3.162  10.699  10.811 -0.9075 -0.4998  0.3842
 4241SOL    HW124702   3.109  10.619  10.823  0.3073 -1.2159  1.1742
 4241SOL    HW224703   3.252  10.667  10.806 -0.3825  0.8446  0.9316
 4242SOL     OW24704   2.973   7.124   8.058  0.4118 -0.6615  0.1571
 4242SOL    HW124705   2.939   7.075   8.133  0.5367  0.5432  1.0192
 4242SOL    HW224706   2.938   7.078   7.981 -0.0658 -1.6545  0.9551
 4243SOL     OW24707  14.045  12.428   2.088 -0.0031  0.4174  0.4840
 4243SOL    HW124708  14.098  12.393   2.160  1.1859  0.6078 -0.2657
 4243SOL    HW224709  13.982  12.358   2.069  1.1516 -0.5849  0.2243
 4244SOL     OW24710   0.469   6.763   5.609 -0.5940 -0.4778 -0.2668
 4244SOL    HW124711   0.531   6.719   5.667  0.2178 -0.5431 -1.1582
 4244SOL    HW224712   0.519   6.779   5.529 -1.6389 -0.2286 -0.8792
 4245SOL     OW24713   3.957   6.676   6.531 -0.7182 -0.0303 -0.3111
 4245SOL    HW124714   3.922   6.640   6.613 -1.8130 -2.0940 -1.6187
 4245SOL    HW224715   4.007   6.605   6.492  0.3317  1.1288 -1.1679
 4246SOL     OW24716   2.291   3.562  12.653 -0.1714 -0.0529  0.2882
 4246SOL    HW124717   2.365   3.619  12.673 -0.9981  1.2871 -0.2603
 4246SOL    HW224718   2.227   3.580  12.722 -0.1745 -0.8428  0.4965
 4247SOL     OW24719   6.978   5.664   5.889  1.0147 -0.0293  0.4084
 4247SOL    HW124720   6.884   5.670   5.908  0.6703 -1.3814 -0.6734
 4247SOL    HW224721   7.006   5.584   5.934  1.3321 -0.3873 -0.4172
 4248SOL     OW24722   3.771   9.534   7.213 -0.2542  0.0578  0.6362
 4248SOL    HW124723   3.845   9.588   7.241 -1.7183  1.8864  1.1854
 4248SOL    HW224724   3.773   9.539   7.117 -0.0204  0.5739  0.6642
 4249SOL     OW24725  10.769   1.956   9.729  0.0699 -0.2765 -0.6694
 4249SOL    HW124726  10.743   1.978   9.819  0.7597  3.1720 -1.1684
 4249SOL    HW224727  10.687   1.951   9.681 -0.2227 -0.5399 -0.1514
 4250SOL     OW24728   1.035  10.422  13.394 -0.4303  0.3187 -0.3585
 4250SOL    HW124729   1.053  10.482  13.466  0.1502 -0.0947 -0.1522
 4250SOL    HW224730   0.941  10.407  13.398 -0.2733 -0.5258  0.9982
 4251SOL     OW24731   5.966   6.301   7.682 -0.2645 -0.1044  0.1874
 4251SOL    HW124732   5.896   6.323   7.744 -0.1066  2.6802 -0.4927
 4251SOL    HW224733   6.010   6.225   7.721 -2.2644 -0.5292  1.7397
 4252SOL     OW24734  12.954   0.357   5.181 -0.2835 -0.2794  0.3190
 4252SOL    HW124735  13.002   0.415   5.240 -0.2844 -0.7766  0.8254
 4252SOL    HW224736  12.875   0.333   5.231 -1.2912  0.8632 -0.6590
 4253SOL     OW24737   6.292   3.365   6.033 -0.2479 -0.1995  0.5413
 4253SOL    HW124738   6.207   3.325   6.013 -0.1489  0.3598 -1.1247
 4253SOL    HW224739   6.278   3.459   6.017  1.0612 -0.2656 -1.2638
 4254SOL     OW24740  10.791  11.742  11.986 -0.6436 -0.8486 -0.1598
 4254SOL    HW124741  10.842  11.662  12.003  0.2834 -0.2699 -0.1821
 4254SOL    HW224742  10.701  11.710  11.976 -0.5518 -1.7164  1.4135
 4255SOL     OW24743   6.365   8.985  12.081 -0.6442  0.2211 -0.7594
 4255SOL    HW124744   6.371   8.892  12.103  1.5880  0.3599 -0.5859
 4255SOL    HW224745   6.396   8.991  11.991 -0.3883  0.8312 -0.6375
 4256SOL     OW24746   7.719   4.759   9.386 -0.1248 -0.0424  0.1285
 4256SOL    HW124747   7.734   4.675   9.430  0.0589 -1.6689 -2.8136
 4256SOL    HW224748   7.626   4.776   9.399 -0.0530 -0.3767  1.2345
 4257SOL     OW24749  12.110  13.561   2.807 -0.3642 -0.1324  0.3558
 4257SOL    HW124750  12.080  13.645   2.842 -1.0549  0.0821 -0.6920
 4257SOL    HW224751  12.033  13.504   2.813  0.8906 -1.7879  4.0894
 4258SOL     OW24752   2.400   9.804   8.232 -0.0600 -0.1200  0.6197
 4258SOL    HW124753   2.483   9.836   8.196  0.6698 -2.0185  0.5218
 4258SOL    HW224754   2.375   9.871   8.296  1.0083  0.9892 -0.0650
 4259SOL     OW24755   2.910  11.143   0.760  0.5743  0.0355 -0.7194
 4259SOL    HW124756   2.925  11.203   0.832  0.4139  2.1608 -2.3631
 4259SOL    HW224757   2.967  11.175   0.690 -0.4260 -1.0042 -2.0629
 4260SOL     OW24758  12.394   7.647  13.777  0.0077  0.0673 -0.4917
 4260SOL    HW124759  12.373   7.588  13.849 -0.5569  0.8860  0.0345
 4260SOL    HW224760  12.438   7.592  13.712 -0.5817 -0.9423 -0.0525
 4261SOL     OW24761  13.982   9.032  12.741  0.5486  0.3658 -0.0520
 4261SOL    HW124762  14.015   9.031  12.831  0.9821  1.8784 -0.1773
 4261SOL    HW224763  13.903   8.977  12.744  1.2519 -0.6169  0.9653
 4262SOL     OW24764   3.326   0.338   7.797 -0.3372  0.6791 -0.2934
 4262SOL    HW124765   3.272   0.291   7.733 -1.0487 -0.4735  1.0927
 4262SOL    HW224766   3.407   0.358   7.750 -0.4121 -1.0724 -1.2761
 4263SOL     OW24767  12.055   2.311   4.910 -0.1616  0.3358 -0.0732
 4263SOL    HW124768  12.038   2.353   4.826  0.9111  2.1092  0.5572
 4263SOL    HW224769  12.117   2.369   4.954  2.3276 -2.4414  0.4080
 4264SOL     OW24770  11.207  13.297  13.992  0.3988 -0.0990 -0.1882
 4264SOL    HW124771  11.182  13.217  13.944 -0.2504  0.6284 -1.1202
 4264SOL    HW224772  11.133  13.314  14.050  1.2173 -1.0188  1.1574
 4265SOL     OW24773  10.182  11.612   5.364  0.3583  0.4487 -0.2780
 4265SOL    HW124774  10.121  11.542   5.341  0.2123  0.8436 -1.1508
 4265SOL    HW224775  10.211  11.646   5.279  2.4288 -0.2686  0.0817
 4266SOL     OW24776   0.106  10.537   9.080 -0.0086  0.4682 -0.1572
 4266SOL    HW124777   0.064  10.451   9.091  0.5825  0.2400  0.4003
 4266SOL    HW224778   0.035  10.600   9.090 -0.6005  0.0180 -1.4120
 4267SOL     OW24779  11.942  12.035   0.760 -0.0137  0.0691 -0.4806
 4267SOL    HW124780  11.905  11.953   0.793 -0.7592 -0.8280 -3.2373
 4267SOL    HW224781  12.036  12.018   0.751 -0.2864 -0.8546 -1.8687
 4268SOL     OW24782   5.881   1.981  13.703  0.7768  0.1302 -0.4195
 4268SOL    HW124783   5.838   1.976  13.617 -0.8460 -0.6291  0.3765
 4268SOL    HW224784   5.931   1.899  13.709 -0.3019 -0.5327 -0.0861
 4269SOL     OW24785   5.621   6.326   6.520  0.2432  0.0562  0.1152
 4269SOL    HW124786   5.647   6.244   6.479  0.5953  0.2244 -0.0021
 4269SOL    HW224787   5.668   6.327   6.604  1.5487  0.8905 -0.5928
 4270SOL     OW24788   7.436   8.532   3.676 -0.2276 -0.2292  0.1766
 4270SOL    HW124789   7.514   8.567   3.635 -0.1464 -1.5270 -0.8141
 4270SOL    HW224790   7.363   8.578   3.633 -0.0514  1.3154  1.4171
 4271SOL     OW24791   1.108  11.724   7.766 -0.1257 -0.3183  0.3243
 4271SOL    HW124792   1.145  11.812   7.779  0.6538 -0.9009  2.3520
 4271SOL    HW224793   1.017  11.733   7.795 -0.8162  0.3888 -1.8719
 4272SOL     OW24794   7.022  11.360   5.922 -0.8707 -0.2502  0.3225
 4272SOL    HW124795   6.959  11.395   5.985  0.1460 -0.2114  1.3393
 4272SOL    HW224796   7.101  11.411   5.936 -0.0527 -1.4680  0.2952
 4273SOL     OW24797   2.406   6.635  10.137  0.5304 -0.3218 -0.3275
 4273SOL    HW124798   2.447   6.571  10.195 -0.2940 -1.7992 -1.3263
 4273SOL    HW224799   2.393   6.712  10.193 -1.2322 -2.0322  1.8023
 4274SOL     OW24800   0.878  12.046  11.279  0.1307  0.0236  0.0103
 4274SOL    HW124801   0.909  12.119  11.227  0.6541 -1.3219 -1.6288
 4274SOL    HW224802   0.794  12.022  11.239 -0.3644  0.1081  0.9526
 4275SOL     OW24803   4.947   3.703   9.243  0.1920  0.5098 -0.0004
 4275SOL    HW124804   4.854   3.720   9.225  0.1937 -1.2945 -2.1571
 4275SOL    HW224805   4.947   3.653   9.324 -0.7354  0.4248 -0.0432
 4276SOL     OW24806  12.367   6.511   8.056  0.2966 -0.4679 -0.1534
 4276SOL    HW124807  12.308   6.518   7.981 -2.3209  0.0427  1.8310
 4276SOL    HW224808  12.388   6.601   8.079 -1.1129 -0.4714  1.2951
 4277SOL     OW24809   3.897  11.336   9.152 -0.2264  0.3479  0.2755
 4277SOL    HW124810   3.920  11.336   9.245  0.4106  3.5151  0.2334
 4277SOL    HW224811   3.981  11.339   9.107 -0.5156 -1.6987 -0.4808
 4278SOL     OW24812   1.253   7.773   0.184 -0.0844 -0.3707  0.1106
 4278SOL    HW124813   1.181   7.757   0.245 -1.2272 -0.2119 -1.1478
 4278SOL    HW224814   1.286   7.859   0.208 -0.1856 -0.5204  0.8183
 4279SOL     OW24815   3.660   3.439   2.333  0.0833 -0.1195 -0.0979
 4279SOL    HW124816   3.635   3.375   2.267 -1.1773 -0.9593  1.1311
 4279SOL    HW224817   3.577   3.468   2.371  0.5612  2.7238 -0.9992
 4280SOL     OW24818   7.615   9.748   1.099 -0.2037  0.1891 -0.3507
 4280SOL    HW124819   7.608   9.707   1.186  2.2392 -0.4991 -0.3957
 4280SOL    HW224820   7.639   9.839   1.118  1.8281 -0.3129 -0.2234
 4281SOL     OW24821   9.343  12.829   9.090  0.0759  0.0403 -0.5540
 4281SOL    HW124822   9.376  12.910   9.130  1.1848 -1.0177  0.7808
 4281SOL    HW224823   9.251  12.825   9.117  0.2337  0.4348  0.0681
 4282SOL     OW24824  12.520  10.986   5.698  0.0764  0.2481  0.0774
 4282SOL    HW124825  12.448  10.940   5.740 -2.1350  2.4490 -1.0225
 4282SOL    HW224826  12.539  11.059   5.756 -0.0145  0.8310 -0.6057
 4283SOL     OW24827   4.975  12.728   9.921 -0.2180 -0.0419 -0.3654
 4283SOL    HW124828   5.044  12.665   9.897  0.3807  0.5405 -0.1899
 4283SOL    HW224829   4.914  12.677   9.974  2.2615  0.3386  3.2038
 4284SOL     OW24830   5.181   5.163   8.510  0.1839 -0.0110 -0.3566
 4284SOL    HW124831   5.263   5.117   8.491  0.3921  0.0319  0.3845
 4284SOL    HW224832   5.136   5.169   8.426 -0.4439 -2.6931 -0.2929
 4285SOL     OW24833  11.760   2.668  13.033  0.2260  0.0918  1.0334
 4285SOL    HW124834  11.736   2.595  12.977  1.5330 -0.0666  0.6451
 4285SOL    HW224835  11.717   2.744  12.994  0.7120 -0.1020  0.0925
 4286SOL     OW24836   5.980   4.105   7.835  0.4521 -0.5190 -0.5575
 4286SOL    HW124837   5.915   4.111   7.906  0.2086  0.4497 -0.8454
 4286SOL    HW224838   6.059   4.074   7.878  0.4872  0.6619  0.2791
 4287SOL     OW24839   8.391   2.557   9.379 -0.1778  0.6775  0.3830
 4287SOL    HW124840   8.353   2.480   9.335 -0.5354  0.5327  0.9279
 4287SOL    HW224841   8.443   2.600   9.311 -1.7331  1.1737 -0.5712
 4288SOL     OW24842   8.238   5.760   1.709  0.0854 -0.1176  0.1613
 4288SOL    HW124843   8.326   5.787   1.735  0.4410  0.1024 -1.2254
 4288SOL    HW224844   8.200   5.726   1.790  1.7140 -0.9422  0.6411
 4289SOL     OW24845  10.851   3.799   5.148  0.1445  0.4990 -0.0970
 4289SOL    HW124846  10.923   3.749   5.111  0.3980  1.9608 -1.6722
 4289SOL    HW224847  10.774   3.744   5.135  0.6435 -0.1554 -0.3406
 4290SOL     OW24848   6.383  11.177   2.398  0.0751  0.0982  0.0736
 4290SOL    HW124849   6.413  11.258   2.440 -1.0459  0.4342  0.2624
 4290SOL    HW224850   6.404  11.108   2.462  0.9972  0.2234 -0.0709
 4291SOL     OW24851  13.743   3.616  12.567  0.2684  0.3428 -0.3411
 4291SOL    HW124852  13.649   3.618  12.584  0.2080  1.5531 -0.7020
 4291SOL    HW224853  13.776   3.547  12.624 -0.7260  0.4326  0.3859
 4292SOL     OW24854   0.577  13.983   3.356  0.1440 -0.2423  0.0515
 4292SOL    HW124855   0.658  14.021   3.390 -1.3201  1.1360  2.1934
 4292SOL    HW224856   0.569  14.020   3.268  0.5510  1.7140  0.7856
 4293SOL     OW24857   9.254   4.122  10.461  0.1340 -0.3138 -0.4910
 4293SOL    HW124858   9.269   4.169  10.379 -2.5243 -0.3857 -1.1127
 4293SOL    HW224859   9.181   4.168  10.502  0.4533 -1.1759  1.1344
 4294SOL     OW24860   9.509   2.323   6.994 -0.2622 -0.6983 -0.0791
 4294SOL    HW124861   9.598   2.292   6.978 -0.1077 -0.7595  0.8468
 4294SOL    HW224862   9.520   2.399   7.051 -0.8088 -0.7556  0.1067
 4295SOL     OW24863   4.778   0.434  11.585 -0.3070  0.1061 -0.0782
 4295SOL    HW124864   4.693   0.475  11.572 -0.8460 -0.8425  0.3449
 4295SOL    HW224865   4.759   0.356  11.638  0.6729 -0.7051 -0.8890
 4296SOL     OW24866  11.546   4.596   2.594  0.2598 -0.1469  0.4593
 4296SOL    HW124867  11.549   4.502   2.613 -1.9925  0.0364  2.0496
 4296SOL    HW224868  11.618   4.633   2.645 -0.8552 -0.6494  2.4886
 4297SOL     OW24869   3.971   4.319   6.457 -0.1575 -0.1582 -0.2854
 4297SOL    HW124870   4.047   4.369   6.487 -0.8587  0.4981  0.4736
 4297SOL    HW224871   3.906   4.331   6.527 -1.1347 -0.2832 -1.1485
 4298SOL     OW24872   4.990   5.500   0.366  0.4248  0.4136 -0.4873
 4298SOL    HW124873   5.017   5.503   0.458 -1.9828 -0.0859  0.2945
 4298SOL    HW224874   5.066   5.464   0.320  1.4773  0.1405  1.3757
 4299SOL     OW24875  10.955  11.140   2.012 -0.0159 -0.0494  0.5879
 4299SOL    HW124876  11.049  11.126   2.018  0.1816  0.7157 -0.4491
 4299SOL    HW224877  10.945  11.221   1.962 -1.2356 -0.6348 -0.1776
 4300SOL     OW24878   2.094   7.736  10.909  0.1189 -0.5174 -0.3549
 4300SOL    HW124879   2.005   7.730  10.942  1.1896  0.5041  3.1344
 4300SOL    HW224880   2.118   7.645  10.889 -0.4220 -1.3983  2.5956
 4301SOL     OW24881   4.107   3.814  13.156 -0.1699  0.2450  0.0243
 4301SOL    HW124882   4.046   3.741  13.164 -0.0913  0.2644  0.9556
 4301SOL    HW224883   4.193   3.776  13.176 -0.2365  0.7398  1.3364
 4302SOL     OW24884   6.353   4.680   2.771  0.0516  0.0746 -0.4845
 4302SOL    HW124885   6.327   4.772   2.768 -2.0238 -0.4022  0.9902
 4302SOL    HW224886   6.442   4.681   2.808  0.0359  1.4805 -0.4590
 4303SOL     OW24887   4.732   5.465   6.367  0.0669  0.2251  0.2723
 4303SOL    HW124888   4.777   5.536   6.321 -0.6442 -0.0959 -0.9528
 4303SOL    HW224889   4.650   5.503   6.397 -0.9341 -0.3729 -1.5465
 4304SOL     OW24890  10.033   9.086   7.867 -0.6352  0.1911 -0.2539
 4304SOL    HW124891  10.097   9.021   7.896  1.0386  1.3204 -1.2338
 4304SOL    HW224892   9.949   9.040   7.870  0.4531 -1.9718 -0.7655
 4305SOL     OW24893   1.897  13.987   1.072  0.1047 -0.3136 -0.5887
 4305SOL    HW124894   1.896  13.891   1.080  0.9931 -0.3257 -0.4674
 4305SOL    HW224895   1.936  14.003   0.986  1.3512 -0.0638 -0.0054
 4306SOL     OW24896  12.934   4.590   6.686 -0.0095  0.0142 -0.1081
 4306SOL    HW124897  12.888   4.673   6.689 -0.0616 -0.0250  0.2133
 4306SOL    HW224898  12.994   4.598   6.612  1.6684  1.2261  1.2868
 4307SOL     OW24899  10.764  10.690   5.535 -0.5708 -0.0878  0.5995
 4307SOL    HW124900  10.715  10.722   5.611 -1.8936  1.5053 -0.8413
 4307SOL    HW224901  10.722  10.732   5.460  2.6866  0.9611 -0.8167
 4308SOL     OW24902   2.762   7.970  12.659 -0.0956  0.4155 -0.1370
 4308SOL    HW124903   2.780   7.904  12.592 -1.0272  2.6163 -2.7554
 4308SOL    HW224904   2.828   8.038  12.643 -1.5426  1.8670 -0.1465
 4309SOL     OW24905   7.137   6.939  10.234 -0.0032  0.5120 -0.2060
 4309SOL    HW124906   7.171   6.896  10.312  1.6059 -2.2198 -2.2636
 4309SOL    HW224907   7.042   6.924  10.237  0.2782 -1.3898  0.2220
 4310SOL     OW24908   3.500   4.665   9.844  0.7592 -0.3905 -0.0972
 4310SOL    HW124909   3.424   4.691   9.895  1.2816 -0.8831  0.9743
 4310SOL    HW224910   3.574   4.710   9.885  1.2448 -1.0792 -0.1751
 4311SOL     OW24911   5.112  13.057   7.236 -0.4531  0.3605 -0.4222
 4311SOL    HW124912   5.093  13.097   7.151  2.1629  1.1823 -0.7193
 4311SOL    HW224913   5.078  13.120   7.300 -0.1043  1.0322 -0.8852
 4312SOL     OW24914  13.781  10.521   7.992 -0.4439  0.2262 -0.1317
 4312SOL    HW124915  13.705  10.463   7.991 -0.5623  0.3802 -0.1238
 4312SOL    HW224916  13.804  10.527   8.085 -0.0488 -0.3055 -0.1912
 4313SOL     OW24917   1.457   6.813   9.454 -0.4390 -0.1833  0.4899
 4313SOL    HW124918   1.461   6.825   9.359  0.5102  1.6887  0.7304
 4313SOL    HW224919   1.402   6.885   9.485  0.3020 -0.0275  1.4824
 4314SOL     OW24920   2.727   6.441  10.613  0.3067  0.2059  0.1408
 4314SOL    HW124921   2.766   6.370  10.563  0.0947 -0.5886  1.0754
 4314SOL    HW224922   2.767   6.434  10.700  0.2620  1.2122  0.2592
 4315SOL     OW24923  11.926   4.748  11.631 -0.3449 -0.4749 -0.0637
 4315SOL    HW124924  11.949   4.656  11.619 -1.1352 -0.7150  0.2309
 4315SOL    HW224925  11.849   4.762  11.576 -0.6895 -0.1911  0.4781
 4316SOL     OW24926   8.584   9.622  12.413 -0.6841  0.5290  0.9806
 4316SOL    HW124927   8.559   9.613  12.321  0.8501 -2.7673  0.7315
 4316SOL    HW224928   8.502   9.617  12.461 -1.3431  0.0523 -0.1545
 4317SOL     OW24929   4.028   3.766   0.026 -0.0947  0.0231  0.1783
 4317SOL    HW124930   4.038   3.677  -0.008  0.1688 -0.1455  0.6771
 4317SOL    HW224931   4.076   3.765   0.109  1.1359  1.0363 -0.4960
 4318SOL     OW24932  10.078   6.365   1.531 -0.4401 -0.5405  0.0450
 4318SOL    HW124933  10.043   6.298   1.472  0.7916 -1.7926  0.6803
 4318SOL    HW224934  10.002   6.416   1.558 -1.3122 -1.2832 -0.9589
 4319SOL     OW24935   7.833   8.042   8.573  0.5238 -0.3397  0.1691
 4319SOL    HW124936   7.913   7.991   8.560 -0.3580 -1.3785 -1.7151
 4319SOL    HW224937   7.827   8.055   8.667  1.5471 -2.5026  0.5857
 4320SOL     OW24938   2.113   5.569  13.655  0.5009  0.8575  0.2476
 4320SOL    HW124939   2.167   5.588  13.579 -1.1107 -0.3420 -1.2739
 4320SOL    HW224940   2.163   5.505  13.705  1.2071  1.0174 -0.2436
 4321SOL     OW24941   8.606  11.241  10.763 -0.0046 -0.0597  0.2610
 4321SOL    HW124942   8.570  11.325  10.733 -2.8584 -0.7392  1.4454
 4321SOL    HW224943   8.583  11.238  10.856 -0.6478 -2.4560  0.0704
 4322SOL     OW24944   5.863  11.978  12.147  0.4428  0.0714 -0.0621
 4322SOL    HW124945   5.937  12.035  12.129 -0.1717  0.5006 -1.3072
 4322SOL    HW224946   5.864  11.913  12.077  0.4582 -0.7771  0.7042
 4323SOL     OW24947  12.560  11.728   3.674  0.1869 -0.0160  0.4661
 4323SOL    HW124948  12.577  11.811   3.720  0.4083 -0.9601  2.1641
 4323SOL    HW224949  12.635  11.717   3.617  0.1401  0.9684  0.1926
 4324SOL     OW24950  11.114  13.436   8.717  0.0646 -0.5427  0.1106
 4324SOL    HW124951  11.191  13.470   8.762 -0.0626  0.1455 -0.1697
 4324SOL    HW224952  11.087  13.507   8.659 -0.7429 -0.7914  0.1653
 4325SOL     OW24953  12.060  13.841  10.119  0.2695  0.4697  0.5096
 4325SOL    HW124954  12.130  13.792  10.163  1.5361  1.4108 -0.3782
 4325SOL    HW224955  12.071  13.821  10.026  0.0377  1.4499  0.2555
 4326SOL     OW24956  12.601   1.941  12.900  0.2894  0.2871 -0.6146
 4326SOL    HW124957  12.638   1.941  12.811  0.2561 -0.3870 -0.6285
 4326SOL    HW224958  12.675   1.925  12.957  0.0860 -0.6749 -0.6158
 4327SOL     OW24959  10.308   8.095   6.928  0.4220 -0.5013  0.2245
 4327SOL    HW124960  10.328   8.187   6.946  1.2403 -0.5324 -0.4723
 4327SOL    HW224961  10.301   8.090   6.833 -1.9270 -0.7224  0.3604
 4328SOL     OW24962  11.666  13.789   3.642  0.3781  0.6103 -0.4576
 4328SOL    HW124963  11.600  13.823   3.581 -0.3295  1.7213  0.8527
 4328SOL    HW224964  11.648  13.695   3.646 -2.7503  1.1521  1.5801
 4329SOL     OW24965   2.357  13.540  10.031 -0.3614 -0.5108  0.4739
 4329SOL    HW124966   2.352  13.555   9.936  1.2558 -0.8192  0.3017
 4329SOL    HW224967   2.439  13.490  10.042  0.3707  0.9792  2.2080
 4330SOL     OW24968   9.795   5.881   5.663 -0.0409 -0.0951  0.0291
 4330SOL    HW124969   9.726   5.936   5.625 -1.1737 -1.0904  0.5527
 4330SOL    HW224970   9.858   5.869   5.593 -0.1953  1.1668 -0.3467
 4331SOL     OW24971  12.981  11.205   4.857 -0.1185  0.9267 -0.0510
 4331SOL    HW124972  12.995  11.194   4.951 -1.7934 -0.7629  0.0691
 4331SOL    HW224973  12.893  11.170   4.842  0.5683  0.0268 -2.4418
 4332SOL     OW24974  11.434   6.234  11.773  0.3953  0.2391 -0.2596
 4332SOL    HW124975  11.420   6.328  11.770  0.8467  0.2791 -2.0817
 4332SOL    HW224976  11.362   6.197  11.721 -0.6139 -0.5655  1.6142
 4333SOL     OW24977   7.311   0.913   6.925  0.2736 -0.0090  0.1844
 4333SOL    HW124978   7.381   0.850   6.912  1.0705  0.7034  0.9356
 4333SOL    HW224979   7.231   0.860   6.927  0.9549 -1.0451  1.2008
 4334SOL     OW24980  11.589   4.137   2.084 -0.6824 -0.3820  0.1164
 4334SOL    HW124981  11.593   4.080   2.160  3.4220 -0.6720 -0.0820
 4334SOL    HW224982  11.624   4.221   2.115  1.3797 -0.6005 -1.3886
 4335SOL     OW24983   0.460  13.206  10.368 -0.2411 -0.0965 -0.0969
 4335SOL    HW124984   0.544  13.208  10.322 -0.0323  0.3483  0.3092
 4335SOL    HW224985   0.463  13.125  10.420  0.0335  0.0471  0.1084
 4336SOL     OW24986  10.108   1.135   4.391  0.3489  0.2519  0.0171
 4336SOL    HW124987  10.045   1.205   4.375  0.7310  0.2669 -1.5577
 4336SOL    HW224988  10.094   1.111   4.483 -1.1273  1.0497  0.0304
 4337SOL     OW24989  11.070   7.182   2.189 -0.1808  0.1938 -0.0818
 4337SOL    HW124990  10.994   7.224   2.229 -0.3843 -0.1488 -0.1041
 4337SOL    HW224991  11.145   7.217   2.237 -0.2462  1.4695 -0.8541
 4338SOL     OW24992   7.373   8.621   2.786  0.5563  0.1548 -0.0315
 4338SOL    HW124993   7.313   8.693   2.807  0.1826 -0.0144 -0.4968
 4338SOL    HW224994   7.450   8.637   2.840  0.1789  0.5031  0.4057
 4339SOL     OW24995   3.799  13.440   2.136  0.2648  0.4620 -0.1250
 4339SOL    HW124996   3.844  13.361   2.106  1.2687  1.3060 -0.9188
 4339SOL    HW224997   3.706  13.421   2.124  0.4354 -0.9110  0.5182
 4340SOL     OW24998   2.839   0.988  11.588 -0.4875  0.3702  0.2888
 4340SOL    HW124999   2.878   1.000  11.501 -0.0899 -0.7613  0.2982
 4340SOL    HW225000   2.901   0.932  11.635 -1.6430 -0.6366  0.6513
 4341SOL     OW25001   8.435   0.414   6.561 -0.4684  0.9047  0.1037
 4341SOL    HW125002   8.386   0.468   6.499 -2.2996  0.5415  1.1718
 4341SOL    HW225003   8.514   0.389   6.513 -1.3522  1.4224 -1.7338
 4342SOL     OW25004   4.201   9.308   4.759  0.2577 -0.5237  0.2335
 4342SOL    HW125005   4.180   9.291   4.667 -0.0094  0.6306  0.0599
 4342SOL    HW225006   4.281   9.259   4.775 -0.1749 -1.4473 -0.3600
 4343SOL     OW25007   8.258   4.784   3.198 -0.3078  0.1680  0.6308
 4343SOL    HW125008   8.180   4.736   3.171  0.6243 -0.0373 -1.9198
 4343SOL    HW225009   8.317   4.716   3.230 -0.8717  0.2491  1.9095
 4344SOL     OW25010   7.246   7.287  11.389  0.0227 -0.3902 -0.3246
 4344SOL    HW125011   7.243   7.382  11.394  0.6741 -0.3383 -0.7683
 4344SOL    HW225012   7.178   7.257  11.449  0.3102  0.3420  0.3856
 4345SOL     OW25013   2.777   5.566  10.753 -0.0332  0.4661  0.1481
 4345SOL    HW125014   2.810   5.479  10.778 -0.0370  0.7070  1.0118
 4345SOL    HW225015   2.791   5.570  10.659 -0.1998 -0.5495  0.0611
 4346SOL     OW25016  13.915  12.582   4.688  0.1772 -0.0705 -0.0186
 4346SOL    HW125017  13.941  12.619   4.772 -1.3035 -0.8306  0.8017
 4346SOL    HW225018  13.978  12.511   4.673  1.0494  0.6923 -0.0490
 4347SOL     OW25019   4.267  10.334   7.449 -0.2128 -0.2308 -0.2001
 4347SOL    HW125020   4.256  10.395   7.377 -0.7101 -0.2688 -0.1602
 4347SOL    HW225021   4.341  10.279   7.423 -1.0185 -0.9045 -1.1558
 4348SOL     OW25022   1.892   7.509   8.883  0.2660  0.0043  0.6718
 4348SOL    HW125023   1.955   7.561   8.933  1.1354  1.3316 -1.6381
 4348SOL    HW225024   1.812   7.513   8.934  0.8259  2.1189  1.4875
 4349SOL     OW25025   4.411   7.837   1.757 -0.2981  0.7970  0.3945
 4349SOL    HW125026   4.483   7.884   1.800  1.1596 -0.1836 -0.8405
 4349SOL    HW225027   4.444   7.822   1.668 -2.1608  0.5278 -0.2809
 4350SOL     OW25028  12.214   1.324   9.720  0.0128 -0.4303  0.0308
 4350SOL    HW125029  12.190   1.232   9.729 -0.2667 -0.1764  3.9254
 4350SOL    HW225030  12.131   1.368   9.697 -0.2613 -0.9759 -0.0306
 4351SOL     OW25031   0.599   6.564   6.492 -0.0196 -0.3917 -0.0940
 4351SOL    HW125032   0.505   6.550   6.478 -0.1478  0.5962 -0.3354
 4351SOL    HW225033   0.641   6.484   6.460 -0.7775 -0.8353  0.0044
 4352SOL     OW25034   4.832   2.550   3.892 -0.3277  0.0782 -0.3030
 4352SOL    HW125035   4.880   2.631   3.904  0.7676 -0.5091 -0.5793
 4352SOL    HW225036   4.884   2.500   3.828  0.1352 -1.6961  1.3579
 4353SOL     OW25037  11.633   1.139   0.953 -0.3170  0.1207  0.1950
 4353SOL    HW125038  11.685   1.195   0.895  1.0919  0.3078  1.5481
 4353SOL    HW225039  11.633   1.186   1.037 -0.5212 -1.1005  0.8993
 4354SOL     OW25040   1.130   4.951   4.994  0.0802  0.2035  0.0360
 4354SOL    HW125041   1.205   4.951   5.053  0.2783 -1.1114 -0.1965
 4354SOL    HW225042   1.057   4.981   5.049 -0.3393 -3.5083  1.7944
 4355SOL     OW25043   2.899   3.995   7.596  0.1686 -0.0036 -0.0368
 4355SOL    HW125044   2.895   4.069   7.535  0.8052 -1.4798 -1.9642
 4355SOL    HW225045   2.830   3.935   7.566  1.1689 -1.2314  0.0320
 4356SOL     OW25046   0.155   9.824  12.455  0.2216 -0.2539 -0.1355
 4356SOL    HW125047   0.132   9.909  12.416  0.2962 -0.1762 -0.0113
 4356SOL    HW225048   0.240   9.839  12.497  0.5475 -0.5633 -0.6698
 4357SOL     OW25049  10.075   5.997  10.551 -0.0626  0.7107  0.9060
 4357SOL    HW125050  10.014   5.928  10.579 -0.4955  0.2366 -1.1036
 4357SOL    HW225051  10.030   6.041  10.479  2.4112 -0.3917 -1.4379
 4358SOL     OW25052  13.017   5.301   7.852  0.2809 -0.1199  0.3130
 4358SOL    HW125053  12.994   5.254   7.932  0.2795  0.7017  0.7956
 4358SOL    HW225054  13.080   5.367   7.879  0.6725 -0.1621 -0.4517
 4359SOL     OW25055   0.137   4.522  12.773  0.2450 -0.2149  0.0493
 4359SOL    HW125056   0.043   4.521  12.789  0.2034  0.4446 -0.1058
 4359SOL    HW225057   0.146   4.509  12.679  0.1546  2.2036 -0.3744
 4360SOL     OW25058  11.475  13.067  11.539  0.2450 -0.0129 -0.4147
 4360SOL    HW125059  11.498  13.101  11.452 -1.2818 -0.0150 -0.8494
 4360SOL    HW225060  11.380  13.059  11.537  0.3099 -1.4306  0.7594
 4361SOL     OW25061   0.114   2.708   5.855  0.6943  0.3000  0.2088
 4361SOL    HW125062   0.180   2.701   5.786 -0.7767 -1.2046 -1.1441
 4361SOL    HW225063   0.102   2.802   5.867  0.2858  0.6733 -2.3806
 4362SOL     OW25064  13.404   7.425   1.641  1.0487  0.6957 -0.1459
 4362SOL    HW125065  13.418   7.498   1.581  2.2409  0.4835 -0.1507
 4362SOL    HW225066  13.474   7.363   1.619  0.4546 -0.1441  0.3073
 4363SOL     OW25067   7.263   4.997   3.902  0.2016  0.1764 -0.1583
 4363SOL    HW125068   7.291   4.971   3.989 -0.5318  1.0780  0.3642
 4363SOL    HW225069   7.337   5.047   3.867  0.0845  0.7321  0.3758
 4364SOL     OW25070  13.573   6.594  13.490 -0.3609 -0.4102 -0.1299
 4364SOL    HW125071  13.521   6.665  13.530  0.4439  0.4197 -0.5162
 4364SOL    HW225072  13.623   6.637  13.421 -1.5381 -1.7838 -1.9083
 4365SOL     OW25073  11.028   2.994  13.933 -0.3844  0.0074 -0.5334
 4365SOL    HW125074  11.071   3.078  13.923 -1.6163  0.5766 -1.2436
 4365SOL    HW225075  10.945   3.014  13.977 -1.1375 -0.6675 -1.5843
 4366SOL     OW25076  12.590   2.706  12.326 -0.3046  0.6202 -0.5799
 4366SOL    HW125077  12.535   2.751  12.390 -0.0601 -0.2470  0.2549
 4366SOL    HW225078  12.558   2.738  12.241  0.4033  3.0107 -0.0399
 4367SOL     OW25079   0.384   9.487   6.420 -0.7521  0.2901 -0.3630
 4367SOL    HW125080   0.470   9.477   6.380 -0.5478 -0.8805  0.3129
 4367SOL    HW225081   0.347   9.565   6.379  0.3499  0.4153 -1.1602
 4368SOL     OW25082  11.158  13.290   4.218 -0.0205  0.6561  0.2570
 4368SOL    HW125083  11.154  13.362   4.280 -1.7042  0.4058  0.4624
 4368SOL    HW225084  11.151  13.332   4.132 -1.2683  0.7386  0.3849
 4369SOL     OW25085   8.195   5.904   3.720  0.0117 -0.3226 -0.1427
 4369SOL    HW125086   8.246   5.969   3.769  0.8992 -1.6030  0.7092
 4369SOL    HW225087   8.137   5.956   3.664  1.6805  1.1935 -0.5609
 4370SOL     OW25088   5.016   4.864  13.384  0.4302 -0.3364 -0.4980
 4370SOL    HW125089   4.991   4.786  13.335 -1.2739  0.5193 -1.0734
 4370SOL    HW225090   5.021   4.835  13.475 -1.4787 -0.8744 -0.5229
 4371SOL     OW25091   3.247  13.894   9.242  0.5180  0.2342  0.0783
 4371SOL    HW125092   3.182  13.886   9.171  1.4744 -0.9744 -0.7006
 4371SOL    HW225093   3.313  13.829   9.221  2.3725  1.9126  0.4802
 4372SOL     OW25094   0.598  12.826   3.634  0.0578  0.0476  0.4547
 4372SOL    HW125095   0.640  12.753   3.679  0.7342 -0.0136 -0.2699
 4372SOL    HW225096   0.618  12.903   3.688  0.6077 -0.0730  0.4270
 4373SOL     OW25097   9.691   3.641   8.866  0.2257  0.1144  0.5056
 4373SOL    HW125098   9.670   3.617   8.957 -2.4127  1.1172  0.2338
 4373SOL    HW225099   9.606   3.640   8.821  1.3100  0.8921 -1.6699
 4374SOL     OW25100  13.640  13.233   8.281 -0.1721 -0.3061 -0.3362
 4374SOL    HW125101  13.588  13.189   8.213  0.5533 -0.2646 -0.9286
 4374SOL    HW225102  13.677  13.162   8.333 -0.7198 -0.3382  0.0235
 4375SOL     OW25103   7.632   5.208  11.941  0.3411  0.1019  0.2223
 4375SOL    HW125104   7.608   5.212  11.848 -1.8686 -1.9183  0.6196
 4375SOL    HW225105   7.575   5.273  11.983  1.6056  1.2878  0.1716
 4376SOL     OW25106  12.876  12.690  10.466  0.1077  0.0866 -0.2305
 4376SOL    HW125107  12.800  12.639  10.437  0.9548 -1.4471  0.1203
 4376SOL    HW225108  12.876  12.681  10.561  1.5378 -1.2328 -0.3006
 4377SOL     OW25109  13.834   7.696   6.141  0.2742 -0.2611  0.2293
 4377SOL    HW125110  13.742   7.716   6.158  0.7624  2.2503  0.3737
 4377SOL    HW225111  13.876   7.703   6.227  0.8241  0.2568 -0.0737
 4378SOL     OW25112  10.018   5.469   9.270 -0.9104  0.3930  0.0229
 4378SOL    HW125113   9.973   5.553   9.281  1.2641  1.6523 -0.1249
 4378SOL    HW225114   9.996   5.420   9.349 -0.0672  2.2079  1.4647
 4379SOL     OW25115  13.943   4.913  11.496 -0.2586 -0.4422 -0.5747
 4379SOL    HW125116  13.967   5.002  11.524 -0.7836 -1.0285  1.9669
 4379SOL    HW225117  14.003   4.894  11.423 -0.4260  2.1182 -1.4861
 4380SOL     OW25118   0.689   4.204  11.660  0.0111 -0.2973  0.7933
 4380SOL    HW125119   0.767   4.164  11.699 -1.3037 -2.9260  0.9339
 4380SOL    HW225120   0.625   4.133  11.656 -1.3880  0.9811 -2.1497
 4381SOL     OW25121   7.823   4.209   2.158 -0.2135 -0.1719 -0.4667
 4381SOL    HW125122   7.795   4.254   2.078 -0.6181  1.6227  0.6167
 4381SOL    HW225123   7.748   4.156   2.184 -0.1865 -0.5285 -1.0915
 4382SOL     OW25124  10.941  13.938  11.495  0.4687  0.2785 -0.1919
 4382SOL    HW125125  10.977  13.849  11.485 -1.0636 -0.4549  0.6320
 4382SOL    HW225126  10.967  13.982  11.414 -0.4289 -1.5331 -1.5416
 4383SOL     OW25127   8.746   9.245   4.991  0.0459  0.0512  0.3292
 4383SOL    HW125128   8.672   9.185   4.999 -0.0047  0.1595  0.6927
 4383SOL    HW225129   8.812   9.196   4.940 -0.1174 -0.1918  0.3511
 4384SOL     OW25130   4.558   5.194   3.625 -0.4830 -0.2478  0.0955
 4384SOL    HW125131   4.651   5.177   3.608 -0.2769  1.7521 -1.0111
 4384SOL    HW225132   4.528   5.116   3.672  1.6773 -1.0607  0.2379
 4385SOL     OW25133  13.145   7.368   8.160 -0.2879 -0.3261  0.2461
 4385SOL    HW125134  13.111   7.371   8.070  0.5544  2.3751 -0.0745
 4385SOL    HW225135  13.093   7.300   8.203 -1.7769 -0.6285 -1.8692
 4386SOL     OW25136   3.061   7.308   3.239 -0.1171 -0.3555 -0.1133
 4386SOL    HW125137   3.042   7.269   3.325 -0.9792 -2.5487 -1.2113
 4386SOL    HW225138   3.024   7.396   3.244 -0.1585 -0.4341  1.7507
 4387SOL     OW25139   9.748  11.514   5.234 -0.5848  0.2312 -0.7787
 4387SOL    HW125140   9.820  11.466   5.194  0.2050  0.9867 -0.3127
 4387SOL    HW225141   9.685  11.528   5.164 -0.4274 -0.7145 -1.1180
 4388SOL     OW25142   4.990   8.573  10.854  0.4174 -0.9613 -0.7381
 4388SOL    HW125143   4.990   8.664  10.824  2.1610  0.2818  2.6007
 4388SOL    HW225144   4.898   8.547  10.851 -0.2480  1.2198 -0.9069
 4389SOL     OW25145   3.314  13.394  10.316 -0.9546  0.2263  0.5290
 4389SOL    HW125146   3.229  13.359  10.343 -0.0301 -3.1277 -0.3735
 4389SOL    HW225147   3.342  13.337  10.244  1.0691  2.6523 -0.7834
 4390SOL     OW25148  10.685   5.850   1.321 -0.1814 -0.2318  0.7582
 4390SOL    HW125149  10.628   5.775   1.339 -1.0704  0.1068 -0.4894
 4390SOL    HW225150  10.773   5.819   1.341 -0.5669 -1.5015  0.5864
 4391SOL     OW25151   3.450   9.912   3.689  0.2768  0.0344 -0.0734
 4391SOL    HW125152   3.374   9.905   3.632  1.6274  0.1335 -1.9689
 4391SOL    HW225153   3.413   9.923   3.777 -1.9362 -3.1822 -0.4133
 4392SOL     OW25154   4.343   6.357   1.973  0.1014  0.3153 -0.0235
 4392SOL    HW125155   4.371   6.267   1.992  0.9004  1.0090  2.5272
 4392SOL    HW225156   4.248   6.351   1.968 -0.0609 -0.3556  2.5559
 4393SOL     OW25157   3.403   5.679   4.269  0.1257 -0.4638  0.3221
 4393SOL    HW125158   3.466   5.607   4.265  0.8966  0.2632 -1.1110
 4393SOL    HW225159   3.435   5.735   4.339  1.3888  0.1513 -0.7098
 4394SOL     OW25160  12.909  10.095   3.557  0.1553 -0.0522 -0.1154
 4394SOL    HW125161  12.936  10.008   3.526  1.2484  0.5383 -0.8937
 4394SOL    HW225162  12.814  10.093   3.555  0.1520 -1.3955  0.3627
 4395SOL     OW25163   8.988   1.919   7.417 -0.4338 -0.3749  0.1625
 4395SOL    HW125164   8.893   1.916   7.401 -0.6148 -1.2028  1.2761
 4395SOL    HW225165   9.005   2.010   7.440 -1.3163 -0.6055  1.8545
 4396SOL     OW25166   1.064  11.701   8.089 -0.2373 -0.3747 -0.1972
 4396SOL    HW125167   1.006  11.705   8.165  0.1841  1.1244  0.0651
 4396SOL    HW225168   1.010  11.662   8.020 -1.0807 -0.3839  0.4477
 4397SOL     OW25169  12.265   8.936  10.962  0.4158  0.2246  0.3713
 4397SOL    HW125170  12.287   8.931  11.055 -0.5340  0.5492  0.6300
 4397SOL    HW225171  12.287   8.850  10.927  0.5907  0.0345  0.9472
 4398SOL     OW25172   9.050   4.819  12.611 -0.0808  0.0692 -0.1722
 4398SOL    HW125173   9.133   4.800  12.656 -0.6298  0.0144  0.8549
 4398SOL    HW225174   9.007   4.734  12.604 -0.4573  0.2341  0.1362
 4399SOL     OW25175  11.776   4.439  11.767 -0.2737 -0.2675  0.5414
 4399SOL    HW125176  11.818   4.454  11.682 -0.6498 -1.1275  0.1973
 4399SOL    HW225177  11.683   4.457  11.752 -0.3006 -0.1436  0.8489
 4400SOL     OW25178   2.996   0.476  10.335 -0.3269  0.0547 -0.8874
 4400SOL    HW125179   3.014   0.549  10.276 -0.2881  1.1756  0.4683
 4400SOL    HW225180   2.990   0.515  10.422  0.6818 -1.6919  0.0345
 4401SOL     OW25181   3.843  11.323  11.943 -0.1762 -0.1356  0.0618
 4401SOL    HW125182   3.889  11.386  11.888  2.5041 -0.2173  1.9865
 4401SOL    HW225183   3.757  11.362  11.957  0.5868  1.9879 -0.6794
 4402SOL     OW25184  10.370   2.139  12.761  0.3705  0.2082  0.3120
 4402SOL    HW125185  10.289   2.139  12.710  0.4953 -0.4613  0.1069
 4402SOL    HW225186  10.374   2.227  12.800 -1.2204 -0.2412  1.5650
 4403SOL     OW25187  12.183  13.975  10.665  0.2517 -0.0033  0.5341
 4403SOL    HW125188  12.124  14.019  10.726 -0.4484  0.1584 -0.2530
 4403SOL    HW225189  12.163  14.012  10.580  1.2220 -0.2325  0.1931
 4404SOL     OW25190  12.789   6.582   5.761  0.3006  0.0043 -0.1432
 4404SOL    HW125191  12.835   6.605   5.680  1.0310 -0.6670  0.0692
 4404SOL    HW225192  12.799   6.488   5.769 -1.7825 -0.2851 -0.4680
 4405SOL     OW25193   5.872   6.825   3.985  0.4457  0.0347 -0.0935
 4405SOL    HW125194   5.837   6.900   3.938  0.7973 -0.1567 -0.6687
 4405SOL    HW225195   5.796   6.789   4.033  0.6803  1.9227  1.8152
 4406SOL     OW25196   9.538   4.277   9.717  0.3052  0.0734 -0.6636
 4406SOL    HW125197   9.584   4.349   9.761  2.0642 -1.4322  0.0932
 4406SOL    HW225198   9.465   4.255   9.775  2.3739 -1.6347  1.4895
 4407SOL     OW25199  12.382  13.916   0.092  0.0677 -0.0034  0.3675
 4407SOL    HW125200  12.458  13.937   0.146  1.2371 -1.9226 -0.4066
 4407SOL    HW225201  12.418  13.903   0.004 -1.2070 -0.5510 -0.0975
 4408SOL     OW25202  13.797  10.267   4.585  0.0928 -0.0030 -0.0196
 4408SOL    HW125203  13.891  10.257   4.568 -0.1396  0.1178 -1.4861
 4408SOL    HW225204  13.765  10.324   4.515 -1.3278 -1.2154 -0.4355
 4409SOL     OW25205   5.447  12.593  13.777 -0.3055  0.7081  0.2309
 4409SOL    HW125206   5.438  12.499  13.789  2.8455  0.4528  1.6225
 4409SOL    HW225207   5.445  12.629  13.866  0.2042  1.7343 -0.1551
 4410SOL     OW25208   0.906   7.403  13.335 -0.4833  0.5141  0.2100
 4410SOL    HW125209   0.977   7.356  13.377 -0.1322 -0.4398 -1.3832
 4410SOL    HW225210   0.842   7.417  13.404  0.5375 -0.0505  1.2913
 4411SOL     OW25211   3.038   1.389  12.967  0.0867 -0.2978 -0.4279
 4411SOL    HW125212   2.947   1.364  12.982  0.1677 -0.2713  0.1125
 4411SOL    HW225213   3.088   1.309  12.983  0.2557 -0.0404  0.3438
 4412SOL     OW25214  10.917   1.704   1.690  0.0832 -0.3864  0.4733
 4412SOL    HW125215  10.998   1.687   1.641  1.4164 -0.4047  2.5292
 4412SOL    HW225216  10.879   1.617   1.703  0.1810 -0.4727  0.1970
 4413SOL     OW25217   3.568   4.627   8.374 -0.0072 -0.6461 -0.7953
 4413SOL    HW125218   3.481   4.666   8.384 -0.0290 -0.0305 -2.9606
 4413SOL    HW225219   3.620   4.695   8.331  1.8800 -0.6301  1.3306
 4414SOL     OW25220  12.324   1.689   2.948  0.0851  0.5946 -0.7504
 4414SOL    HW125221  12.344   1.781   2.931  1.6719  0.4717  0.2813
 4414SOL    HW225222  12.406   1.643   2.932 -0.1813 -0.3849  0.5354
 4415SOL     OW25223  11.233  11.729  11.474 -0.0604  0.2077 -0.3302
 4415SOL    HW125224  11.152  11.731  11.524 -0.1040 -0.2846 -0.3731
 4415SOL    HW225225  11.252  11.820  11.453  0.4985  0.5487  1.4700
 4416SOL     OW25226   9.882   6.004   9.349  0.2715  0.5393  0.4782
 4416SOL    HW125227   9.787   5.996   9.340  0.1688  1.3309  0.7790
 4416SOL    HW225228   9.914   6.008   9.259  0.0953 -0.4401  0.3624
 4417SOL     OW25229  12.991   3.052   5.099 -0.2323  0.0207 -0.0281
 4417SOL    HW125230  12.904   3.092   5.098 -1.4232 -2.3228  1.3095
 4417SOL    HW225231  12.984   2.981   5.162  2.2011 -1.3091 -1.1243
 4418SOL     OW25232   5.304   5.793   9.197 -0.2139 -0.0132  0.1692
 4418SOL    HW125233   5.393   5.797   9.163 -1.2813  2.2303 -2.8940
 4418SOL    HW225234   5.260   5.728   9.142 -0.6382 -0.5833  1.1741
 4419SOL     OW25235  12.508   6.221   3.359 -0.4124  0.0908 -0.2365
 4419SOL    HW125236  12.535   6.294   3.413  2.7751 -0.8773 -0.3029
 4419SOL    HW225237  12.496   6.148   3.420 -0.0959 -0.1819 -0.4917
 4420SOL     OW25238   7.693   6.653   2.363  0.1605  0.4629 -0.2817
 4420SOL    HW125239   7.690   6.587   2.433  1.2134  0.0915 -0.5668
 4420SOL    HW225240   7.601   6.671   2.343 -0.3617 -3.6694 -2.7786
 4421SOL     OW25241   3.815   3.841   8.768 -0.0420 -0.5245 -0.4319
 4421SOL    HW125242   3.903   3.809   8.786 -0.2881 -1.4981 -0.8580
 4421SOL    HW225243   3.804   3.829   8.674  0.4589  2.4732 -0.9824
 4422SOL     OW25244  10.856  13.680   0.623 -0.3674  0.2067  0.5890
 4422SOL    HW125245  10.941  13.644   0.598 -0.8095  1.1593 -2.7221
 4422SOL    HW225246  10.871  13.719   0.710  1.9390 -1.5680  1.0777
 4423SOL     OW25247  10.962   2.989   8.023  0.2847  0.4078  0.2652
 4423SOL    HW125248  11.046   2.979   7.977  0.0702  1.5625 -0.4302
 4423SOL    HW225249  10.897   2.955   7.962 -0.1588  3.2333 -0.9978
 4424SOL     OW25250   7.802   7.343   5.605  0.2845 -0.1894  0.4118
 4424SOL    HW125251   7.709   7.335   5.584  0.1198 -0.1032  1.0728
 4424SOL    HW225252   7.834   7.253   5.605  0.3997 -0.1554 -0.6580
 4425SOL     OW25253  10.829   0.388  12.710  0.3926  0.2107 -0.2796
 4425SOL    HW125254  10.915   0.409  12.673  1.5892 -2.8816  0.4539
 4425SOL    HW225255  10.828   0.432  12.795  2.2425 -1.4000  0.6537
 4426SOL     OW25256  10.401  11.199   0.738 -0.4629  0.2675  0.2739
 4426SOL    HW125257  10.457  11.126   0.764 -1.0549 -0.6426 -0.9134
 4426SOL    HW225258  10.382  11.246   0.820 -1.2376 -1.7321  1.2957
 4427SOL     OW25259   0.315   8.629   5.429  0.0546 -0.7895 -0.2363
 4427SOL    HW125260   0.325   8.660   5.339 -0.1569  0.3050  0.1066
 4427SOL    HW225261   0.404   8.611   5.458  0.0911 -1.6520 -0.8185
 4428SOL     OW25262   7.193   5.303  12.566  0.2223 -0.6939  0.0816
 4428SOL    HW125263   7.280   5.334  12.592  0.1113  1.3732 -1.7131
 4428SOL    HW225264   7.209   5.215  12.531  1.4477 -0.6700  0.5193
 4429SOL     OW25265   0.028   7.283  11.669  1.1272  0.1638 -0.2995
 4429SOL    HW125266   0.028   7.305  11.576 -1.2226  0.8898 -0.1924
 4429SOL    HW225267   0.005   7.190  11.672  1.8685 -0.0258 -0.4601
 4430SOL     OW25268   2.166  11.516   1.380  0.5410 -0.2085  0.2283
 4430SOL    HW125269   2.178  11.547   1.290 -1.9151  1.7759  0.4599
 4430SOL    HW225270   2.240  11.553   1.428  0.6400  0.6934 -0.5881
 4431SOL     OW25271   1.934   4.080   3.557  0.3774 -0.3614  0.2428
 4431SOL    HW125272   1.966   4.037   3.636 -0.1091  0.4773  0.9184
 4431SOL    HW225273   1.991   4.156   3.546 -0.2205  0.1290  0.4202
 4432SOL     OW25274   3.517   6.653   2.710  0.2797 -0.2040  0.1132
 4432SOL    HW125275   3.540   6.744   2.728  2.0175 -0.6096  0.0899
 4432SOL    HW225276   3.593   6.617   2.665 -0.8854 -1.3434 -1.0342
 4433SOL     OW25277   5.283   2.214   3.871 -0.0030 -0.1990  0.0579
 4433SOL    HW125278   5.209   2.213   3.932 -0.1558 -1.4311 -0.1112
 4433SOL    HW225279   5.244   2.226   3.785  0.1852  1.2029  0.1444
 4434SOL     OW25280   5.289   2.518  11.708 -0.2373 -0.6531  0.4417
 4434SOL    HW125281   5.296   2.444  11.648 -0.4286 -1.0964  0.9499
 4434SOL    HW225282   5.331   2.591  11.662  1.7858 -1.5711  0.7254
 4435SOL     OW25283  10.204   4.655   9.766  0.1001 -0.3243 -0.7251
 4435SOL    HW125284  10.224   4.717   9.696  2.1975 -0.6250 -0.4876
 4435SOL    HW225285  10.205   4.708   9.846 -1.2792 -0.1513 -0.8125
 4436SOL     OW25286  11.634   0.782  10.758 -0.3512  0.3810 -0.3340
 4436SOL    HW125287  11.558   0.768  10.702 -1.2646  3.1356  0.0613
 4436SOL    HW225288  11.598   0.784  10.847 -0.0592  2.6821 -0.2111
 4437SOL     OW25289   8.455   7.781  13.481 -0.2718  0.2162  0.3359
 4437SOL    HW125290   8.361   7.771  13.493 -0.4613  1.7876  0.3859
 4437SOL    HW225291   8.467   7.777  13.386 -0.2646 -0.8394  0.3741
 4438SOL     OW25292   4.273   9.778  10.337  0.4056  0.2364  0.4829
 4438SOL    HW125293   4.221   9.833  10.397  0.8022  0.2305  0.8356
 4438SOL    HW225294   4.227   9.694  10.336 -0.3191  0.6315 -0.2153
 4439SOL     OW25295  11.069   8.376   6.926  0.9301 -0.3298 -0.2487
 4439SOL    HW125296  11.124   8.449   6.897 -0.3015  1.2104  1.1043
 4439SOL    HW225297  11.099   8.356   7.014 -0.7934  0.7259  0.6218
 4440SOL     OW25298   4.230   4.701   4.047 -0.6491  0.0117  0.3044
 4440SOL    HW125299   4.139   4.700   4.075 -0.4206 -0.8906  1.0491
 4440SOL    HW225300   4.251   4.610   4.028  0.1336  0.1899  0.2609
 4441SOL     OW25301   8.385   6.954   9.467  0.2299  0.0763 -0.0796
 4441SOL    HW125302   8.391   6.964   9.372 -1.0293 -1.2529 -0.3296
 4441SOL    HW225303   8.441   6.879   9.487  1.2081  0.9035  0.3704
 4442SOL     OW25304  10.176   2.600   6.069  0.3093  0.1847  0.4818
 4442SOL    HW125305  10.168   2.691   6.098  5.3068  1.2222 -0.4434
 4442SOL    HW225306  10.204   2.552   6.147 -1.2669 -0.3877  0.7195
 4443SOL     OW25307   9.657   0.103   0.648 -0.0169  0.2484  0.1841
 4443SOL    HW125308   9.574   0.148   0.630 -0.3494  0.1017  1.2478
 4443SOL    HW225309   9.708   0.166   0.699  0.5900  0.3822 -0.5681
 4444SOL     OW25310   9.044   1.321   8.180 -0.5027 -0.5066  0.0804
 4444SOL    HW125311   9.011   1.232   8.177 -2.2081  0.1311 -1.6300
 4444SOL    HW225312   9.095   1.331   8.100 -0.5878  0.1377  0.0991
 4445SOL     OW25313   3.675   5.619  11.368 -0.2511 -0.0602 -0.3131
 4445SOL    HW125314   3.601   5.622  11.429  0.3315  0.9446  0.3663
 4445SOL    HW225315   3.751   5.602  11.424  0.2073  0.2663 -0.8315
 4446SOL     OW25316   3.413   8.602  10.610  0.1628  0.0115 -0.0998
 4446SOL    HW125317   3.393   8.616  10.703  1.1930 -0.2017  0.1693
 4446SOL    HW225318   3.358   8.664  10.564  0.7919  1.2355  0.7476
 4447SOL     OW25319   9.406   9.470   3.122  0.2418  0.3100  0.4291
 4447SOL    HW125320   9.388   9.429   3.207 -1.3799  1.6815  0.8079
 4447SOL    HW225321   9.420   9.563   3.143  1.0516  0.4561 -0.6832
 4448SOL     OW25322  11.780   2.621   8.325  0.2061  1.0350  0.1881
 4448SOL    HW125323  11.839   2.561   8.370  0.2862 -0.0965 -1.3552
 4448SOL    HW225324  11.722   2.654   8.394  2.2476  1.7549  1.6415
 4449SOL     OW25325   5.079   6.812   2.517 -0.3867  0.1882 -0.6555
 4449SOL    HW125326   5.157   6.784   2.470 -0.7117  0.8395 -1.6061
 4449SOL    HW225327   5.014   6.827   2.449 -0.9370  0.9597  0.0177
 4450SOL     OW25328  11.713  10.741   5.095  0.2454  0.4835  0.4200
 4450SOL    HW125329  11.784  10.746   5.031 -0.6218  0.7656 -0.5513
 4450SOL    HW225330  11.663  10.822   5.082 -0.8463 -0.1762  0.3550
 4451SOL     OW25331  12.106   8.902   4.097 -0.7924 -0.5098  0.2358
 4451SOL    HW125332  12.157   8.953   4.160  0.0446 -0.1220 -0.7267
 4451SOL    HW225333  12.171   8.849   4.051 -1.6646 -2.5566  1.2800
 4452SOL     OW25334   7.493   6.021  11.599  0.3119 -0.0231  0.2063
 4452SOL    HW125335   7.514   5.931  11.622 -0.4613 -0.0439  0.9065
 4452SOL    HW225336   7.563   6.073  11.637  0.5813 -0.3021  0.0925
 4453SOL     OW25337   8.451   1.247  13.984 -0.3742  0.4700 -0.6952
 4453SOL    HW125338   8.474   1.340  13.993  0.7507  0.0888  1.0231
 4453SOL    HW225339   8.533   1.201  14.003 -1.4775 -0.9009  1.0430
 4454SOL     OW25340   7.063   7.373   1.352 -0.4143 -0.2009 -0.0970
 4454SOL    HW125341   7.063   7.393   1.446 -0.6123 -0.5757 -0.0153
 4454SOL    HW225342   7.155   7.363   1.330 -0.3536  0.1269  0.0067
 4455SOL     OW25343   9.265   8.241   0.648 -0.3061 -0.0912  0.5620
 4455SOL    HW125344   9.282   8.205   0.561  2.1336 -0.2207  1.0260
 4455SOL    HW225345   9.171   8.230   0.660 -0.4848 -1.3804 -1.4804
 4456SOL     OW25346   0.688  13.689   1.306 -0.1984 -0.2802 -0.0864
 4456SOL    HW125347   0.604  13.728   1.328 -0.1944  0.0647 -0.6411
 4456SOL    HW225348   0.749  13.763   1.304 -0.1543 -0.3175 -0.9721
 4457SOL     OW25349   8.118   8.038   6.064  0.0550 -0.3070  0.2537
 4457SOL    HW125350   8.026   8.021   6.045  0.6175 -0.4098 -2.7969
 4457SOL    HW225351   8.166   8.004   5.988  2.7373 -1.1450  2.1531
 4458SOL     OW25352   9.760  11.164   6.311 -0.6253  0.4239  0.3485
 4458SOL    HW125353   9.724  11.200   6.229  0.3179  0.8090  0.0981
 4458SOL    HW225354   9.816  11.233   6.345  0.3698 -0.3979  0.4184
 4459SOL     OW25355   5.590   5.204   7.835 -0.4850  0.0365 -0.0101
 4459SOL    HW125356   5.561   5.296   7.834  0.6283  0.4250 -1.9517
 4459SOL    HW225357   5.514   5.155   7.807 -1.2503  0.2649  1.5314
 4460SOL     OW25358   3.148  11.917   2.838 -0.2216 -0.4332  0.0405
 4460SOL    HW125359   3.127  11.824   2.840  0.1432 -0.5243 -0.3083
 4460SOL    HW225360   3.227  11.923   2.785 -0.8635  0.1968 -0.8725
 4461SOL     OW25361   7.711   2.726   2.555 -0.3095 -0.1751 -0.1963
 4461SOL    HW125362   7.636   2.737   2.497  0.8242  0.5731 -1.5909
 4461SOL    HW225363   7.769   2.665   2.508  0.8153  0.7447 -0.0482
 4462SOL     OW25364   4.046  12.802   7.767  0.6250  0.4703 -0.2355
 4462SOL    HW125365   4.075  12.774   7.681  0.0415 -2.6784  0.4616
 4462SOL    HW225366   4.115  12.860   7.798  1.9557 -0.1379 -1.9233
 4463SOL     OW25367   7.566   3.759   0.255  0.1464 -0.4735  0.6131
 4463SOL    HW125368   7.496   3.811   0.294  0.3084 -0.6711  1.1757
 4463SOL    HW225369   7.630   3.823   0.224 -1.0250 -0.1937 -1.4186
 4464SOL     OW25370   3.745  13.925  11.501 -0.7534  0.3895 -0.1121
 4464SOL    HW125371   3.757  13.836  11.534 -2.4368  0.0063 -0.4211
 4464SOL    HW225372   3.806  13.933  11.428  1.4947  0.5133  1.6586
 4465SOL     OW25373   5.829  11.393   8.618 -0.3643 -0.0996  0.0891
 4465SOL    HW125374   5.778  11.458   8.570  0.2122 -0.3455 -0.8627
 4465SOL    HW225375   5.776  11.313   8.614  0.5310 -0.6514 -1.8166
 4466SOL     OW25376   6.381   8.014  13.612 -0.0295  0.3352  0.0842
 4466SOL    HW125377   6.355   8.099  13.576  0.1547  0.5006  0.3362
 4466SOL    HW225378   6.468   8.029  13.648  0.0554  0.0042  0.0198
 4467SOL     OW25379   2.923  12.295   4.163 -0.1276 -0.2428 -0.0961
 4467SOL    HW125380   2.855  12.229   4.180  0.7324 -1.1736 -0.1369
 4467SOL    HW225381   2.901  12.368   4.220  0.4089 -1.6714  2.1005
 4468SOL     OW25382   0.413   7.386  13.077 -0.1667  0.0453  0.2823
 4468SOL    HW125383   0.387   7.411  13.166  0.7261  1.3186  0.2233
 4468SOL    HW225384   0.361   7.444  13.020 -0.2442 -0.3001  0.0001
 4469SOL     OW25385   6.333  11.657   7.044 -0.6011  0.5104  0.5459
 4469SOL    HW125386   6.386  11.705   7.107 -0.4924  0.8955  0.1700
 4469SOL    HW225387   6.397  11.620   6.982 -0.5956 -0.9509  1.3617
 4470SOL     OW25388  10.584   7.816  13.681 -0.1861 -0.3771 -0.0450
 4470SOL    HW125389  10.554   7.844  13.768  1.6172 -0.3453  0.6091
 4470SOL    HW225390  10.554   7.725  13.674 -0.5065 -0.3251  0.5332
 4471SOL     OW25391   8.867  10.674   1.662 -0.7123  0.6967 -0.9841
 4471SOL    HW125392   8.904  10.586   1.653 -0.8420  0.6145 -0.7379
 4471SOL    HW225393   8.819  10.688   1.580 -0.8886  0.4431 -0.9250
 4472SOL     OW25394   5.181   9.754  11.661 -0.1270  0.4335 -0.5858
 4472SOL    HW125395   5.098   9.734  11.617 -0.2705 -1.1440  0.3144
 4472SOL    HW225396   5.213   9.669  11.692  0.6200  1.2936  1.1783
 4473SOL     OW25397  10.516  12.028  13.461  0.3421  0.1165  0.2356
 4473SOL    HW125398  10.462  12.059  13.388 -2.6547 -0.7677  1.8685
 4473SOL    HW225399  10.531  12.106  13.515 -0.5774  0.1444  0.4705
 4474SOL     OW25400  13.037   7.037   5.240 -0.9346  0.4633  0.0528
 4474SOL    HW125401  13.093   7.112   5.218 -0.0359 -0.5927 -1.5603
 4474SOL    HW225402  13.085   6.962   5.204 -1.6317 -0.9388  1.9227
 4475SOL     OW25403   4.233   8.466   0.385 -0.1825  0.8756  0.4963
 4475SOL    HW125404   4.254   8.373   0.396  1.2742  1.2214  0.9149
 4475SOL    HW225405   4.149   8.466   0.339 -0.5810 -0.6407  1.1389
 4476SOL     OW25406   2.797  10.923  11.233 -0.3692  0.0795 -0.3982
 4476SOL    HW125407   2.881  10.928  11.279 -0.2167 -1.4317 -0.4416
 4476SOL    HW225408   2.763  11.012  11.233  0.5993  0.4657  0.8250
 4477SOL     OW25409   3.158  11.373   5.662  0.5156  0.0937 -0.3525
 4477SOL    HW125410   3.239  11.327   5.684 -0.5047 -1.2376  0.7159
 4477SOL    HW225411   3.188  11.451   5.614  2.5937  0.9762  2.1577
 4478SOL     OW25412   0.111  10.590   2.104 -0.2487 -0.5263  0.9237
 4478SOL    HW125413   0.054  10.527   2.148  0.3873 -1.4989  0.4015
 4478SOL    HW225414   0.102  10.671   2.155 -1.7658 -0.7748  1.0804
 4479SOL     OW25415  10.921  11.901  10.461 -0.4339 -0.1931 -0.2655
 4479SOL    HW125416  10.856  11.892  10.531  0.9151 -0.7329  0.9510
 4479SOL    HW225417  10.982  11.967  10.493 -0.2358  0.1466 -1.2974
 4480SOL     OW25418   2.083   7.888   2.737  0.2114 -0.5506 -0.5205
 4480SOL    HW125419   2.045   7.967   2.700  1.0253  0.0388 -0.1252
 4480SOL    HW225420   2.177   7.896   2.721  0.4829 -0.7084  0.8446
 4481SOL     OW25421   5.275  10.835  10.923  0.1297  0.1646  0.0014
 4481SOL    HW125422   5.282  10.886  11.004  0.3588  1.0533 -0.5608
 4481SOL    HW225423   5.182  10.812  10.917  0.0978  0.1574  0.4757
 4482SOL     OW25424   1.676   9.878  11.795  0.1585 -0.1283 -0.4185
 4482SOL    HW125425   1.588   9.867  11.832 -0.1202 -0.2830 -1.1050
 4482SOL    HW225426   1.665   9.862  11.701  1.0333 -0.7855 -0.4284
 4483SOL     OW25427  12.873   5.912   0.744 -0.3019  0.5268 -0.2763
 4483SOL    HW125428  12.791   5.882   0.782 -1.4931  1.2843 -2.1400
 4483SOL    HW225429  12.887   5.855   0.668  0.7019  0.6918 -0.2370
 4484SOL     OW25430   0.557   0.978   9.972 -0.3834  0.0817  0.0995
 4484SOL    HW125431   0.601   1.061   9.955 -3.5721  2.1462  0.9094
 4484SOL    HW225432   0.563   0.930   9.890  1.3265  1.2156 -0.4783
 4485SOL     OW25433   9.294  11.515  12.060 -0.3542  0.0985 -0.0880
 4485SOL    HW125434   9.243  11.593  12.080  0.1903  1.1157 -2.3389
 4485SOL    HW225435   9.385  11.542  12.072 -0.1844 -0.4508 -0.0882
 4486SOL     OW25436   6.660   2.433   9.865 -0.6321 -0.4871 -0.2521
 4486SOL    HW125437   6.751   2.422   9.890 -0.1069  1.8917 -0.8800
 4486SOL    HW225438   6.648   2.378   9.788 -0.1964 -2.0367  0.7553
 4487SOL     OW25439   0.110  12.168   5.215  0.2347 -0.1091 -0.2465
 4487SOL    HW125440   0.093  12.223   5.139  0.3077  0.4830  0.1599
 4487SOL    HW225441   0.101  12.078   5.182  1.5760  0.1011 -1.2523
 4488SOL     OW25442   1.295   9.495   9.187 -0.3139 -0.3827 -0.1856
 4488SOL    HW125443   1.306   9.541   9.104 -0.4373  1.0771  0.5597
 4488SOL    HW225444   1.339   9.411   9.175  0.2125  0.0613 -1.5115
 4489SOL     OW25445  10.194   1.048   0.459 -0.2421  0.4627 -0.5493
 4489SOL    HW125446  10.272   1.102   0.448 -0.4115  1.2347  1.5503
 4489SOL    HW225447  10.218   0.983   0.525 -0.5431 -1.0530 -1.8907
 4490SOL     OW25448  11.413   2.106   7.810 -0.4901 -0.5979  0.0727
 4490SOL    HW125449  11.339   2.115   7.870 -0.3814  0.0353  0.1209
 4490SOL    HW225450  11.383   2.147   7.728 -0.1170 -0.1390  0.1632
 4491SOL     OW25451   5.961   6.089   3.630  0.4864  0.4957 -0.4928
 4491SOL    HW125452   6.049   6.054   3.642 -0.0964 -0.6359  0.7220
 4491SOL    HW225453   5.916   6.072   3.713 -0.1323  3.3648 -0.1328
 4492SOL     OW25454  11.834   8.764   4.912 -0.0121 -0.4939 -0.3546
 4492SOL    HW125455  11.844   8.859   4.904  1.7199 -0.6468 -0.3866
 4492SOL    HW225456  11.863   8.744   5.001 -3.0862 -0.7181  0.6970
 4493SOL     OW25457  11.645   8.568   8.054 -0.4364  0.1594  0.0864
 4493SOL    HW125458  11.660   8.523   8.138 -1.1413  0.1834  0.2368
 4493SOL    HW225459  11.732   8.586   8.020 -0.1193 -1.7926 -0.2305
 4494SOL     OW25460   2.466   7.898   5.817  0.1643  0.0637 -0.6620
 4494SOL    HW125461   2.375   7.920   5.837 -0.4781 -1.1388 -2.0606
 4494SOL    HW225462   2.460   7.828   5.751  2.1005 -0.1059 -0.7180
 4495SOL     OW25463   8.730  13.736  11.370 -0.2112  0.5242  0.3560
 4495SOL    HW125464   8.733  13.704  11.460  0.0061 -0.7115 -0.0697
 4495SOL    HW225465   8.641  13.767  11.358  0.1053  1.9331  1.3876
 4496SOL     OW25466   8.002   0.188  13.555 -0.5657  0.3402  0.4585
 4496SOL    HW125467   7.965   0.116  13.504 -1.2335  0.8656  0.1926
 4496SOL    HW225468   7.929   0.248  13.570  0.0144  1.0508  0.5305
 4497SOL     OW25469  13.190   0.493   6.463  0.3798  0.5248 -1.1959
 4497SOL    HW125470  13.173   0.586   6.475  1.1082  0.7344 -1.7099
 4497SOL    HW225471  13.116   0.461   6.410 -0.0052  0.7492 -0.7960
 4498SOL     OW25472   3.389   9.304   4.673  0.5886  0.2405  0.0616
 4498SOL    HW125473   3.320   9.346   4.622  0.7887  0.8870  0.3172
 4498SOL    HW225474   3.358   9.308   4.763 -0.0665 -1.4838 -0.0475
 4499SOL     OW25475   5.987   7.901   1.534  0.2904  0.0492 -0.3123
 4499SOL    HW125476   6.060   7.943   1.581 -0.1585  2.7568 -1.8014
 4499SOL    HW225477   5.911   7.916   1.589  0.3774 -0.1862 -0.1257
 4500SOL     OW25478   1.560   5.387   7.412 -0.3439  0.3257 -0.1764
 4500SOL    HW125479   1.489   5.324   7.402 -2.1853  2.5266 -1.9355
 4500SOL    HW225480   1.583   5.411   7.323  0.1441  2.2741  0.4411
 4501SOL     OW25481  10.260  12.146   1.572 -0.0702 -0.4077  0.5981
 4501SOL    HW125482  10.273  12.231   1.612 -0.5984  0.3206 -0.7089
 4501SOL    HW225483  10.169  12.123   1.593 -1.4528  1.4167 -2.5842
 4502SOL     OW25484   2.928   9.216   6.390 -0.1818 -0.1768 -0.2537
 4502SOL    HW125485   2.849   9.207   6.336 -0.5464  0.4524  0.1694
 4502SOL    HW225486   2.895   9.236   6.478  0.4493  0.0223 -0.0603
 4503SOL     OW25487  10.052   1.788  12.674 -0.5142  0.9217  0.5411
 4503SOL    HW125488  10.101   1.714  12.639 -1.9709  0.6211 -1.0192
 4503SOL    HW225489  10.078   1.794  12.765 -0.8824 -1.9898  0.9348
 4504SOL     OW25490   5.109   2.256   4.652  0.0654  0.1033  0.3516
 4504SOL    HW125491   5.088   2.304   4.572 -0.2861 -0.0962  0.3257
 4504SOL    HW225492   5.058   2.300   4.720  0.5589  0.4367  0.5186
 4505SOL     OW25493   0.572  12.472   0.266 -0.1610  0.7258  0.3116
 4505SOL    HW125494   0.584  12.562   0.236  1.0264  0.3963 -0.2744
 4505SOL    HW225495   0.535  12.427   0.190  1.1737  0.2903 -0.1206
 4506SOL     OW25496  10.065   8.245  13.629  0.1213 -0.2903  0.8238
 4506SOL    HW125497  10.067   8.177  13.562  0.7517  1.0330 -0.5721
 4506SOL    HW225498  10.154   8.245  13.665 -0.4204 -1.5123  2.2557
 4507SOL     OW25499  13.108  13.406   3.603  0.7360 -0.8250 -0.0955
 4507SOL    HW125500  13.071  13.485   3.643  0.6906 -0.8232 -0.1431
 4507SOL    HW225501  13.185  13.437   3.555 -0.7108 -0.4081 -2.2791
 4508SOL     OW25502   1.894  11.446   0.089  0.5369  0.3565 -0.1624
 4508SOL    HW125503   1.869  11.490   0.170  1.5156 -2.7516  2.0131
 4508SOL    HW225504   1.829  11.376   0.079  0.9257  0.1835 -1.6220
 4509SOL     OW25505   6.986   2.259  11.889 -0.0455  0.2641 -0.8663
 4509SOL    HW125506   6.959   2.256  11.980 -0.0404  0.5772 -0.8550
 4509SOL    HW225507   6.969   2.348  11.861  0.3546  0.2886 -1.0489
 4510SOL     OW25508   6.304   9.074   0.589 -0.7230 -0.4878 -0.3967
 4510SOL    HW125509   6.288   9.096   0.497 -0.1416  1.9040  0.0042
 4510SOL    HW225510   6.368   9.004   0.586 -0.5266 -0.2848 -1.8214
 4511SOL     OW25511  13.203   3.068   1.454 -0.4403  0.0575 -0.8175
 4511SOL    HW125512  13.118   3.031   1.429 -1.0317  0.3321  0.6918
 4511SOL    HW225513  13.242   3.002   1.510 -0.2497  0.4911 -0.4330
 4512SOL     OW25514  10.588   4.232  12.710 -0.1327 -0.6016  0.0178
 4512SOL    HW125515  10.511   4.207  12.762 -0.3414 -2.1897 -0.9746
 4512SOL    HW225516  10.627   4.148  12.684  0.9323  0.1745 -0.9550
 4513SOL     OW25517   7.151   8.956   4.154  0.2169 -0.4123  0.2368
 4513SOL    HW125518   7.238   8.991   4.173  0.5519 -1.9004  1.7185
 4513SOL    HW225519   7.091   9.019   4.194  0.6525  0.1468  0.0202
 4514SOL     OW25520   7.406   9.733   0.713 -0.2877  0.3536  0.7496
 4514SOL    HW125521   7.385   9.791   0.640 -0.7443 -1.0770 -0.2825
 4514SOL    HW225522   7.436   9.652   0.672  0.4882 -0.1166  2.1649
 4515SOL     OW25523  10.518   5.627  11.265  0.1837 -0.1292  0.0059
 4515SOL    HW125524  10.511   5.532  11.273  2.9689 -0.4526 -0.2798
 4515SOL    HW225525  10.579   5.652  11.334 -0.3323  1.4486 -0.0750
 4516SOL     OW25526  10.934   1.807   9.881  0.0185  0.6344  0.0746
 4516SOL    HW125527  10.873   1.736   9.899  0.5089  0.4121  0.8914
 4516SOL    HW225528  10.900   1.848   9.800  1.4001 -2.3924 -2.2164
 4517SOL     OW25529   9.672   0.570   2.412 -0.2649  0.2937 -0.4288
 4517SOL    HW125530   9.597   0.562   2.471  0.9355  1.8875  1.4394
 4517SOL    HW225531   9.748   0.561   2.469  0.9927 -0.1124 -2.0913
 4518SOL     OW25532   0.675  10.463   6.005  0.5682  0.3243 -0.1571
 4518SOL    HW125533   0.696  10.545   6.048 -0.5902  0.0831  0.9313
 4518SOL    HW225534   0.608  10.485   5.941  1.2704  0.4489 -0.8587
 4519SOL     OW25535   6.124   7.160   3.651  0.1966  0.1788  0.3267
 4519SOL    HW125536   6.033   7.132   3.660  0.5060 -0.8904  0.2315
 4519SOL    HW225537   6.175   7.079   3.654  0.9313  0.3741 -2.8863
 4520SOL     OW25538   5.943   7.428   7.379 -0.2750 -0.1662  0.3846
 4520SOL    HW125539   5.973   7.516   7.359 -0.7764 -0.0978 -0.0847
 4520SOL    HW225540   5.922   7.389   7.294 -1.0859 -0.3639  0.6631
 4521SOL     OW25541  12.725  11.369   6.824  0.2614  0.5715  0.2495
 4521SOL    HW125542  12.660  11.315   6.869  0.4646 -0.1861 -0.3610
 4521SOL    HW225543  12.756  11.429   6.892  2.3407 -2.1147  1.8973
 4522SOL     OW25544  12.391   8.595   7.380 -0.2536  0.1760 -0.1522
 4522SOL    HW125545  12.472   8.621   7.335  0.1129 -0.6854 -0.0037
 4522SOL    HW225546  12.417   8.584   7.471 -0.5781  0.0583 -0.0736
 4523SOL     OW25547   5.493  10.385   8.432 -0.1919  0.0153 -0.2364
 4523SOL    HW125548   5.536  10.450   8.376  2.1790  1.0116  2.5379
 4523SOL    HW225549   5.524  10.301   8.398  1.4268  0.6030 -0.3161
 4524SOL     OW25550   4.119  10.334   8.363  0.6825  0.2751  0.4425
 4524SOL    HW125551   4.048  10.288   8.318  0.8346  1.2705 -0.9223
 4524SOL    HW225552   4.076  10.381   8.434  0.3594 -1.0053  1.1176
 4525SOL     OW25553  13.071   8.378  10.356 -0.6156  0.6902 -0.2271
 4525SOL    HW125554  13.014   8.314  10.313  1.7242 -0.0109 -2.5144
 4525SOL    HW225555  13.011   8.437  10.401 -3.0968 -0.3854 -1.9087
 4526SOL     OW25556  11.714   7.659  11.858  0.4231  0.2795 -0.4679
 4526SOL    HW125557  11.723   7.754  11.849  0.7160  0.3142  0.1440
 4526SOL    HW225558  11.767   7.624  11.786 -0.3132  0.5837 -1.1679
 4527SOL     OW25559  12.156  12.218   2.127  0.1271  0.8923 -0.1742
 4527SOL    HW125560  12.221  12.288   2.118  1.3573 -0.2624 -0.8293
 4527SOL    HW225561  12.131  12.220   2.219  0.1994  2.1297 -0.1698
 4528SOL     OW25562   9.814   4.434   4.579 -0.1011  0.1705  0.4513
 4528SOL    HW125563   9.832   4.479   4.496  3.1774  0.3066  1.0957
 4528SOL    HW225564   9.776   4.500   4.635 -0.1258  0.7377 -0.2230
 4529SOL     OW25565   0.340   3.418   3.196 -0.5039  0.0776  0.1164
 4529SOL    HW125566   0.312   3.494   3.146 -0.3064 -1.3632 -2.3766
 4529SOL    HW225567   0.417   3.448   3.244  0.3756  1.1618 -1.8346
 4530SOL     OW25568   3.518   0.661   9.349  0.0110 -0.0583 -0.0207
 4530SOL    HW125569   3.580   0.626   9.413  0.3835  2.3137  1.0373
 4530SOL    HW225570   3.441   0.683   9.401  0.5210  2.4138 -0.1800
 4531SOL     OW25571  11.888   7.370   3.146 -0.0127 -0.4281  0.9302
 4531SOL    HW125572  11.859   7.333   3.230  0.0674  1.3231  1.7889
 4531SOL    HW225573  11.975   7.333   3.133  0.9668  0.9519  2.8492
 4532SOL     OW25574  13.856   8.645   7.250  0.5060  0.2679 -0.3334
 4532SOL    HW125575  13.882   8.738   7.254 -0.8148  0.6268  0.5897
 4532SOL    HW225576  13.815   8.629   7.335  0.4851 -1.1027 -0.5938
 4533SOL     OW25577  13.366   8.650   3.360  0.6977 -0.4972  0.0215
 4533SOL    HW125578  13.413   8.732   3.346 -0.2166  0.0593  0.1028
 4533SOL    HW225579  13.306   8.644   3.286 -1.3637  0.4540  1.5090
 4534SOL     OW25580   8.401   2.824   4.737 -0.0430  0.0020  0.0750
 4534SOL    HW125581   8.387   2.738   4.777  0.2431  0.4542  1.1885
 4534SOL    HW225582   8.334   2.830   4.669  1.5934 -2.1803 -1.8948
 4535SOL     OW25583  11.843   4.384   4.988  0.2503 -0.5987  0.0895
 4535SOL    HW125584  11.823   4.329   5.064 -0.8917 -0.0904  0.1777
 4535SOL    HW225585  11.907   4.334   4.938 -0.6267 -1.9268  0.2569
 4536SOL     OW25586   3.064   6.470  11.954  0.1936  0.3612  0.4025
 4536SOL    HW125587   3.015   6.402  12.000  1.1930 -0.0221  0.9272
 4536SOL    HW225588   3.108   6.519  12.023  0.4232  0.8009 -0.0454
 4537SOL     OW25589   2.396  11.346   0.156 -0.1154 -0.2005  0.4017
 4537SOL    HW125590   2.427  11.364   0.244 -2.0060 -2.5674  1.6619
 4537SOL    HW225591   2.451  11.273   0.127 -1.1238 -1.0757  0.6487
 4538SOL     OW25592  13.431   0.126   9.745  0.3305  0.4517 -0.9037
 4538SOL    HW125593  13.345   0.089   9.767  0.8982 -0.4863 -0.2080
 4538SOL    HW225594  13.411   0.213   9.711 -0.9208  0.1333 -1.0461
 4539SOL     OW25595   9.561   4.040   0.830 -0.0306 -0.4358 -0.1877
 4539SOL    HW125596   9.542   3.970   0.893  1.1345 -0.7235 -0.1354
 4539SOL    HW225597   9.544   3.999   0.745  0.5216 -0.7545 -0.1517
 4540SOL     OW25598   7.482  13.879   6.192  0.5979 -0.0902 -0.1910
 4540SOL    HW125599   7.392  13.896   6.164 -0.0803 -2.9933 -0.0803
 4540SOL    HW225600   7.536  13.920   6.125 -0.8729 -0.3667 -1.6099
 4541SOL     OW25601   1.369   7.675   8.567  0.2313  0.1990 -0.3201
 4541SOL    HW125602   1.288   7.724   8.554  0.8108  1.1330 -0.5253
 4541SOL    HW225603   1.438   7.738   8.547  0.9946 -1.0690 -1.8473
 4542SOL     OW25604   6.798   0.215   1.448 -0.0726 -0.2717  0.2111
 4542SOL    HW125605   6.797   0.225   1.543 -0.5401 -0.0890  0.1859
 4542SOL    HW225606   6.718   0.258   1.417 -0.4239 -1.1717 -0.1749
 4543SOL     OW25607  10.801   0.585  12.901 -0.3397 -0.0301 -0.2474
 4543SOL    HW125608  10.769   0.650  12.839 -0.7812 -1.2127 -1.3115
 4543SOL    HW225609  10.722   0.555  12.947 -0.1438  0.1381  0.2087
 4544SOL     OW25610   4.828   7.812  10.963  0.3017  0.3541  0.0293
 4544SOL    HW125611   4.817   7.732  10.911 -2.1616 -1.0688  2.4313
 4544SOL    HW225612   4.771   7.876  10.921 -1.3072 -0.6372  0.5883
 4545SOL     OW25613   2.465   0.461  11.849  0.5597  0.4088  0.2194
 4545SOL    HW125614   2.521   0.448  11.773  0.8460  1.0718  0.3064
 4545SOL    HW225615   2.379   0.431  11.822  0.8635 -0.2223 -0.0574
 4546SOL     OW25616   1.533  12.702   8.875  0.0680  0.0622 -0.1286
 4546SOL    HW125617   1.626  12.692   8.896 -0.0135  0.1223  0.2668
 4546SOL    HW225618   1.512  12.625   8.821  0.3407  0.0399 -0.2043
 4547SOL     OW25619  11.839   1.873   2.302  0.2977 -0.2346  0.4080
 4547SOL    HW125620  11.921   1.825   2.288  1.3905  1.4342  0.8063
 4547SOL    HW225621  11.830   1.927   2.223 -0.0253  0.1213  0.6875
 4548SOL     OW25622  11.834   8.702  10.133  0.0818  0.3363  0.0864
 4548SOL    HW125623  11.870   8.733  10.216  1.2722  0.4825 -0.4602
 4548SOL    HW225624  11.811   8.782  10.085  0.1748  0.2815 -0.0512
 4549SOL     OW25625   0.927   4.378   6.349 -0.1073  0.0891  0.0476
 4549SOL    HW125626   0.952   4.375   6.441 -1.5114  0.5894  0.4716
 4549SOL    HW225627   0.834   4.354   6.349 -0.4100  1.1558 -1.1032
 4550SOL     OW25628  11.661   8.832   2.196  0.1002  0.8310 -0.3585
 4550SOL    HW125629  11.750   8.797   2.200 -0.2682 -0.0955  0.0693
 4550SOL    HW225630  11.647   8.872   2.282 -0.8843 -1.6243  0.7467
 4551SOL     OW25631  11.356  11.978  13.653 -0.5969  0.4886  0.5536
 4551SOL    HW125632  11.339  12.034  13.729  0.8151  0.3076  1.0394
 4551SOL    HW225633  11.444  12.004  13.624 -0.6395 -0.2638 -0.3010
 4552SOL     OW25634   8.873   7.328  12.042  0.7102  0.5261 -0.0223
 4552SOL    HW125635   8.917   7.408  12.071  0.2874  1.4019 -1.7011
 4552SOL    HW225636   8.790   7.358  12.004  0.9699 -0.5872 -1.5771
 4553SOL     OW25637  11.370   6.667   9.679  0.0346  0.1938  0.3393
 4553SOL    HW125638  11.404   6.757   9.678  0.3568  0.1091 -1.7408
 4553SOL    HW225639  11.332   6.656   9.592  2.0848 -2.4195 -0.3419
 4554SOL     OW25640  13.242  13.023   1.679  0.4345 -0.2266 -0.0586
 4554SOL    HW125641  13.287  13.084   1.739  0.8800  0.0923 -0.7035
 4554SOL    HW225642  13.213  12.951   1.736  0.0117  0.5165  0.6990
 4555SOL     OW25643   6.656  14.045   5.640  0.0657  0.1611  0.5725
 4555SOL    HW125644   6.564  14.042   5.667 -0.6313 -2.0389 -1.6595
 4555SOL    HW225645   6.697  14.104   5.703 -2.8831  1.3794  1.5588
 4556SOL     OW25646  11.255   0.039   7.690 -0.0448 -0.0207  0.4569
 4556SOL    HW125647  11.221   0.122   7.723 -0.8057 -0.9970  2.2911
 4556SOL    HW225648  11.177  -0.016   7.679  0.2874 -0.1150 -2.0676
 4557SOL     OW25649   6.692   5.217   9.499 -0.1175  0.6894 -0.2084
 4557SOL    HW125650   6.637   5.166   9.558 -0.6304  0.7322 -0.6424
 4557SOL    HW225651   6.694   5.304   9.537  0.6015  0.4005  0.4316
 4558SOL     OW25652   0.805   5.927   3.410  0.0857  0.7148 -0.0975
 4558SOL    HW125653   0.871   5.948   3.344 -0.1184  0.3219 -0.4307
 4558SOL    HW225654   0.797   6.007   3.462 -0.4740  1.3780 -1.1644
 4559SOL     OW25655   1.749  10.395   6.754 -0.0688  0.0267 -0.3370
 4559SOL    HW125656   1.717  10.476   6.794 -1.0148 -0.9899  1.0571
 4559SOL    HW225657   1.741  10.411   6.660 -2.2661  0.8287 -0.0889
 4560SOL     OW25658   2.891  10.218   7.621  0.2829  0.4412 -0.2516
 4560SOL    HW125659   2.865  10.290   7.563 -2.7209 -0.3847 -0.0679
 4560SOL    HW225660   2.915  10.261   7.703 -1.1720  1.2954 -0.2417
 4561SOL     OW25661   3.163   7.680  10.307 -0.2704  0.0691  0.4058
 4561SOL    HW125662   3.121   7.753  10.353  0.2983  1.1149 -0.6801
 4561SOL    HW225663   3.092   7.641  10.256 -0.6630 -0.3966  1.2967
 4562SOL     OW25664   0.653   1.461   6.360  0.1313 -0.3691 -0.3974
 4562SOL    HW125665   0.708   1.403   6.306 -0.9684 -1.4301 -0.4320
 4562SOL    HW225666   0.616   1.524   6.297 -1.4848 -1.8624 -1.0305
 4563SOL     OW25667   5.863  12.428  12.968  1.0783 -0.1405 -0.1993
 4563SOL    HW125668   5.871  12.333  12.961  0.2102 -0.2793  0.5036
 4563SOL    HW225669   5.831  12.456  12.883  0.2155 -0.6260 -0.0464
 4564SOL     OW25670  11.218  13.252  11.044  0.4384  0.1435 -0.0480
 4564SOL    HW125671  11.309  13.238  11.016 -0.4007 -1.4324 -2.3080
 4564SOL    HW225672  11.186  13.322  10.987  0.2504  0.8305  0.8763
 4565SOL     OW25673  11.279  10.480   4.288  0.3238  0.2108 -0.2442
 4565SOL    HW125674  11.334  10.522   4.355 -1.2549  1.4517  0.3231
 4565SOL    HW225675  11.328  10.401   4.265  1.4246  0.2616  1.6262
 4566SOL     OW25676  12.359   6.571   1.434 -0.4060 -0.1668 -0.5410
 4566SOL    HW125677  12.413   6.525   1.370  1.8195  0.7346  0.6131
 4566SOL    HW225678  12.291   6.507   1.457  1.7960 -2.4619  0.0536
 4567SOL     OW25679   7.734  13.656   0.026 -0.1020  0.1822  0.3082
 4567SOL    HW125680   7.808  13.621  -0.023  0.8145 -0.8650  2.3261
 4567SOL    HW225681   7.747  13.751   0.024  1.3500  0.0143  0.6816
 4568SOL     OW25682  10.223   5.982   0.869 -0.0497 -0.6642 -0.3944
 4568SOL    HW125683  10.218   5.904   0.813  1.0026 -0.3734 -0.9127
 4568SOL    HW225684  10.293   6.034   0.831  0.6642 -0.4292  1.1779
 4569SOL     OW25685   1.151  11.963   4.491  0.3901  0.6365 -0.0782
 4569SOL    HW125686   1.159  11.926   4.579 -2.2277 -2.0957 -0.8429
 4569SOL    HW225687   1.066  12.005   4.490  0.7895  1.4579 -1.0708
 4570SOL     OW25688   2.486   5.639   3.204 -0.0903 -0.2265  0.1374
 4570SOL    HW125689   2.533   5.711   3.163  0.4174  0.0994  1.2498
 4570SOL    HW225690   2.443   5.678   3.280 -2.1733 -0.5280 -0.8223
 4571SOL     OW25691   0.764   5.499   8.785  0.0302 -0.2802  0.2976
 4571SOL    HW125692   0.724   5.577   8.747  1.8898  0.6728  0.1993
 4571SOL    HW225693   0.714   5.426   8.748 -0.9868  0.8026 -0.5366
 4572SOL     OW25694  10.559   0.096   1.913 -0.1233 -0.3799 -0.1346
 4572SOL    HW125695  10.619   0.032   1.950 -1.5874 -1.6904  0.0692
 4572SOL    HW225696  10.490   0.105   1.978 -0.0181  1.3649 -0.2085
 4573SOL     OW25697   1.704   5.026   5.271  0.0578 -0.5481  0.0661
 4573SOL    HW125698   1.757   5.062   5.201 -1.4121 -0.8466 -1.2696
 4573SOL    HW225699   1.614   5.031   5.238 -0.8695  0.7068  2.5540
 4574SOL     OW25700   4.872   3.444  13.267 -0.3458  0.0080  0.0888
 4574SOL    HW125701   4.943   3.416  13.209  1.0413 -0.7561  2.0554
 4574SOL    HW225702   4.909   3.516  13.317 -1.4642  0.5631  0.1374
 4575SOL     OW25703   9.004   2.650   7.554 -0.0436 -0.5100 -0.4429
 4575SOL    HW125704   8.912   2.657   7.529 -1.3773 -1.2991  3.5180
 4575SOL    HW225705   9.004   2.593   7.631  3.9056 -1.1841 -0.7231
 4576SOL     OW25706   8.707  11.714  10.008 -0.3690 -0.5345 -0.3918
 4576SOL    HW125707   8.690  11.620  10.017  0.3961 -0.5243  1.7887
 4576SOL    HW225708   8.767  11.721   9.934 -0.1017 -1.8213 -0.3122
 4577SOL     OW25709  12.829   8.298   9.028  0.3208  0.1365  0.8199
 4577SOL    HW125710  12.791   8.266   8.946  0.1016  1.0305  0.5677
 4577SOL    HW225711  12.782   8.249   9.096 -0.2965  0.2180  0.4569
 4578SOL     OW25712   5.159   2.162   0.065 -0.4871 -0.6795  0.1244
 4578SOL    HW125713   5.137   2.073   0.093 -0.5415 -1.0043 -0.8764
 4578SOL    HW225714   5.160   2.156  -0.031 -0.8373  0.4832  0.0362
 4579SOL     OW25715   8.542   9.011   8.198 -0.1652  0.0602  0.6267
 4579SOL    HW125716   8.530   9.058   8.281 -0.2535 -0.0566  0.6805
 4579SOL    HW225717   8.454   9.006   8.161 -0.1132  0.1866  0.4868
 4580SOL     OW25718   0.625   0.728   1.701  0.1725  0.4245 -0.0245
 4580SOL    HW125719   0.683   0.660   1.735  1.2892  1.7880  0.9014
 4580SOL    HW225720   0.678   0.808   1.702 -0.6601  1.0866 -2.3664
 4581SOL     OW25721   8.040   2.814   4.846  0.1011 -0.1952  0.0588
 4581SOL    HW125722   7.972   2.838   4.909 -1.7010  0.1089 -1.8837
 4581SOL    HW225723   8.060   2.722   4.866 -4.0013 -1.7103 -1.8557
 4582SOL     OW25724  13.871   2.433   6.684 -0.3827  0.1301 -0.4018
 4582SOL    HW125725  13.937   2.437   6.616 -0.0771  0.5551 -0.0861
 4582SOL    HW225726  13.808   2.368   6.653  1.8094 -2.7303  0.7516
 4583SOL     OW25727   7.036  11.323  12.488  0.2968 -0.5058  0.6693
 4583SOL    HW125728   6.968  11.330  12.420  2.1225 -0.0795 -1.2225
 4583SOL    HW225729   7.064  11.232  12.484  0.9641 -0.2863  0.2757
 4584SOL     OW25730  10.631   3.264   1.178 -0.0186  0.0284  0.6506
 4584SOL    HW125731  10.646   3.344   1.229  0.2555 -0.0026  0.6229
 4584SOL    HW225732  10.657   3.287   1.089  0.7039 -0.2851  0.7721
 4585SOL     OW25733  12.239   1.755   9.188  0.4244  0.0583  0.3107
 4585SOL    HW125734  12.319   1.801   9.163  0.0093  0.4989 -0.2411
 4585SOL    HW225735  12.234   1.681   9.129 -0.3051  0.8305 -0.6342
 4586SOL     OW25736   6.260   2.105  11.453 -0.0547  0.1140  0.2877
 4586SOL    HW125737   6.253   2.015  11.420  0.1618  1.1811 -2.9449
 4586SOL    HW225738   6.353   2.118  11.468 -0.1163 -0.2452  1.0724
 4587SOL     OW25739   4.344  12.171  12.747  0.0411 -0.2128 -0.3929
 4587SOL    HW125740   4.382  12.089  12.778  0.0699  0.0814  0.3825
 4587SOL    HW225741   4.254  12.168  12.779 -0.0114 -0.0297 -0.5283
 4588SOL     OW25742   0.460   3.161   8.439 -0.3857  0.4082 -0.1383
 4588SOL    HW125743   0.503   3.229   8.387  0.4728 -1.1418 -1.5279
 4588SOL    HW225744   0.465   3.083   8.385 -0.1836 -1.1029  1.9644
 4589SOL     OW25745   9.506   9.025   7.885 -0.3259  0.4955  0.4234
 4589SOL    HW125746   9.451   8.948   7.901 -1.0427  0.8513 -0.3060
 4589SOL    HW225747   9.504   9.073   7.968 -0.8393  0.3367  0.5073
 4590SOL     OW25748  10.758   8.239  13.200 -0.1141  0.1926  0.0350
 4590SOL    HW125749  10.842   8.218  13.240 -0.0460 -0.6009 -0.4936
 4590SOL    HW225750  10.698   8.248  13.273  0.1627 -0.5186  0.3591
 4591SOL     OW25751  13.219   8.610  10.524 -0.0503 -0.3355 -0.7474
 4591SOL    HW125752  13.244   8.703  10.527  0.7175 -0.5759  1.2801
 4591SOL    HW225753  13.240   8.584  10.434 -2.2614  1.9335 -2.0811
 4592SOL     OW25754  10.140  13.427   2.259 -0.1058 -0.3010  0.3062
 4592SOL    HW125755  10.149  13.437   2.353  1.1425 -2.5635  0.5182
 4592SOL    HW225756  10.193  13.497   2.222  0.2302 -0.0084  1.3144
 4593SOL     OW25757   7.852   4.405   1.079  0.1363 -0.4936  0.2140
 4593SOL    HW125758   7.800   4.426   1.156 -0.0663 -0.3632  0.0445
 4593SOL    HW225759   7.889   4.488   1.051 -2.0153  0.0152 -1.4388
 4594SOL     OW25760   3.445   1.042   6.658  0.0686  0.1359  0.0934
 4594SOL    HW125761   3.470   1.087   6.578  0.8139 -0.5608 -0.0846
 4594SOL    HW225762   3.515   1.063   6.721 -0.6756  0.9441  0.6770
 4595SOL     OW25763  12.821   3.752   1.083 -0.0012 -0.1685 -0.1331
 4595SOL    HW125764  12.913   3.778   1.085 -0.2297  0.6124  1.9472
 4595SOL    HW225765  12.780   3.815   1.023  0.5389  0.4815  0.1715
 4596SOL     OW25766  13.159  13.852   8.603  0.0377 -0.4996  0.0045
 4596SOL    HW125767  13.107  13.844   8.683  0.4230 -0.8741  0.2195
 4596SOL    HW225768  13.235  13.796   8.618  1.6517  1.7172  0.6228
 4597SOL     OW25769   5.512  13.411   6.560  0.2093  0.5102 -0.2069
 4597SOL    HW125770   5.421  13.383   6.550  0.3805 -0.9868  1.7569
 4597SOL    HW225771   5.506  13.502   6.588 -0.8389 -0.0780  1.7076
 4598SOL     OW25772  13.765   1.263   6.665 -0.0945 -0.5341  0.3233
 4598SOL    HW125773  13.710   1.190   6.693 -0.9666  0.1656  0.4729
 4598SOL    HW225774  13.704   1.332   6.642  0.6661 -0.3930 -1.4060
 4599SOL     OW25775   6.793   1.724   6.944  0.1809  0.2869  0.1172
 4599SOL    HW125776   6.784   1.630   6.954  0.5047  0.1612 -0.6921
 4599SOL    HW225777   6.704   1.758   6.949  0.0722 -0.0568  0.4706
 4600SOL     OW25778  10.016  13.215  13.934  0.3743 -0.0419  0.0141
 4600SOL    HW125779  10.048  13.179  14.017  0.6282 -1.1184 -0.5355
 4600SOL    HW225780  10.094  13.220  13.878  0.1762  0.5390 -0.2201
 4601SOL     OW25781   6.650   1.159   6.535 -0.2290  0.2760  0.5905
 4601SOL    HW125782   6.625   1.226   6.472 -0.0442 -0.3941 -0.2197
 4601SOL    HW225783   6.567   1.124   6.567 -0.3458 -0.3499 -0.3538
 4602SOL     OW25784   6.051   3.786  13.700  1.2224 -0.6769  0.1396
 4602SOL    HW125785   5.974   3.730  13.690  0.5571  0.2000  0.1693
 4602SOL    HW225786   6.031   3.840  13.776  2.1635 -0.8863  0.5416
 4603SOL     OW25787   6.511  13.265   1.330 -0.1132 -0.9569 -0.1220
 4603SOL    HW125788   6.437  13.221   1.289 -0.1396 -0.1295 -0.9940
 4603SOL    HW225789   6.563  13.298   1.257  0.6928 -0.8316  0.4936
 4604SOL     OW25790  13.184   3.446   1.237  0.2541 -0.1876  0.0100
 4604SOL    HW125791  13.172   3.391   1.314  2.7315 -2.0948 -0.8329
 4604SOL    HW225792  13.117   3.416   1.175 -0.0125 -0.5340  0.4590
 4605SOL     OW25793   0.566  11.768   2.694 -0.3897 -0.4284  0.3644
 4605SOL    HW125794   0.530  11.794   2.779  0.3046  0.0262  0.5272
 4605SOL    HW225795   0.532  11.680   2.679  0.5628 -1.0653  1.7466
 4606SOL     OW25796   2.262   6.990   6.284 -0.2067  0.2148  0.2930
 4606SOL    HW125797   2.342   6.937   6.280 -0.6694 -0.4360 -0.5663
 4606SOL    HW225798   2.193   6.932   6.253 -0.6501  1.4867 -1.2142
 4607SOL     OW25799  13.658  13.299   3.491  0.3889  0.0582 -0.4807
 4607SOL    HW125800  13.603  13.364   3.536 -1.4401 -2.0683  0.5668
 4607SOL    HW225801  13.747  13.318   3.520 -0.4285  0.3353  2.1725
 4608SOL     OW25802  13.674  13.684   4.186  0.1034  0.4678 -0.2400
 4608SOL    HW125803  13.651  13.643   4.102 -2.8031  1.9642 -0.3206
 4608SOL    HW225804  13.601  13.661   4.244 -0.2291  3.1163  0.5148
 4609SOL     OW25805   1.659   9.640   5.539 -0.2882 -0.2270 -0.6198
 4609SOL    HW125806   1.623   9.567   5.489  1.5195 -1.7463  0.1759
 4609SOL    HW225807   1.700   9.599   5.616  2.5979  1.3452 -1.1596
 4610SOL     OW25808  12.975   5.479   6.331 -0.4473 -0.0043 -0.1893
 4610SOL    HW125809  12.983   5.429   6.412 -0.2799 -1.2003 -0.9139
 4610SOL    HW225810  13.065   5.506   6.310 -0.4007 -0.2613 -0.3217
 4611SOL     OW25811  11.767  10.689  11.748 -0.5008 -0.7822  0.5193
 4611SOL    HW125812  11.758  10.780  11.776 -1.7489 -0.5414 -0.5784
 4611SOL    HW225813  11.862  10.675  11.743 -0.2952  0.3934  0.8591
 4612SOL     OW25814   4.932   1.429   3.620 -0.4123  0.2708 -0.6189
 4612SOL    HW125815   4.948   1.519   3.593  0.3736  0.0906 -0.7796
 4612SOL    HW225816   4.847   1.407   3.581 -0.8163  1.0707 -0.2194
 4613SOL     OW25817   2.072   9.929   2.373 -0.2490  0.0452 -0.4203
 4613SOL    HW125818   2.123   9.851   2.396  0.6052  0.5741 -0.4760
 4613SOL    HW225819   2.118   9.967   2.298 -0.3112  0.9177 -0.0357
 4614SOL     OW25820  13.317  11.943   4.403 -0.1497 -0.2936  0.3988
 4614SOL    HW125821  13.303  12.020   4.348 -0.5407 -0.5912  0.0769
 4614SOL    HW225822  13.407  11.952   4.435  1.0563 -1.4357 -2.3653
 4615SOL     OW25823  11.263  10.318  13.128  0.5121  0.8514  0.0200
 4615SOL    HW125824  11.308  10.235  13.116 -1.8448 -0.5579  0.1997
 4615SOL    HW225825  11.227  10.339  13.041 -2.2096 -0.4778  0.7024
 4616SOL     OW25826   6.572  11.077   5.652 -0.1363  0.1812  0.1183
 4616SOL    HW125827   6.532  10.990   5.661  1.0141 -0.5009 -1.0506
 4616SOL    HW225828   6.657  11.069   5.694 -0.9829  1.5265  2.2742
 4617SOL     OW25829  12.150   6.169   6.845  0.4337 -0.3339  0.6139
 4617SOL    HW125830  12.071   6.206   6.805  1.1779  2.2735  1.3386
 4617SOL    HW225831  12.118   6.120   6.921 -0.5904 -0.5838  0.0302
 4618SOL     OW25832   4.343   7.350  12.623 -0.3119  0.0436 -0.1088
 4618SOL    HW125833   4.282   7.389  12.685  0.1427  0.0920  0.3113
 4618SOL    HW225834   4.304   7.368  12.537 -0.9785 -0.0857  0.1593
 4619SOL     OW25835  12.333  11.747  12.519 -0.1796 -0.7312  0.3432
 4619SOL    HW125836  12.368  11.683  12.457  1.9951  0.1595  0.5497
 4619SOL    HW225837  12.333  11.830  12.471 -2.3302 -0.6960  0.2960
 4620SOL     OW25838   9.242   1.124   3.787  0.0984  0.5347 -0.0433
 4620SOL    HW125839   9.178   1.190   3.761 -1.2586 -0.3389  0.8839
 4620SOL    HW225840   9.269   1.150   3.875 -0.1328  0.0902  0.1633
 4621SOL     OW25841  10.009   4.324   8.698 -0.6524 -0.3059  0.0943
 4621SOL    HW125842   9.990   4.242   8.652  0.0591 -1.2890  1.4798
 4621SOL    HW225843  10.105   4.332   8.694 -0.6299 -0.1149  0.9133
 4622SOL     OW25844   3.197   5.092   8.187 -0.2064 -0.2466  0.6651
 4622SOL    HW125845   3.112   5.057   8.163 -0.8828  1.0889  1.0553
 4622SOL    HW225846   3.209   5.067   8.279 -0.2348 -0.3094  0.6515
 4623SOL     OW25847  12.943   9.601   7.863 -0.4924  0.4928 -0.1422
 4623SOL    HW125848  12.964   9.642   7.947 -1.4092  0.1151  0.2839
 4623SOL    HW225849  12.848   9.609   7.855 -0.2694  2.0895 -1.9729
 4624SOL     OW25850  13.182   4.626   4.674  0.1040 -0.1737  0.0278
 4624SOL    HW125851  13.227   4.579   4.603  0.7764  1.0056 -0.3480
 4624SOL    HW225852  13.246   4.690   4.704 -0.4416 -0.1784  1.2306
 4625SOL     OW25853  10.447   7.600  13.626 -0.9089  0.2467 -0.5492
 4625SOL    HW125854  10.481   7.525  13.577  1.4139  1.3507 -0.7158
 4625SOL    HW225855  10.449   7.571  13.717  1.3360  0.5338 -0.4617
 4626SOL     OW25856   3.198   0.777   9.818  0.0531 -0.7815  0.3119
 4626SOL    HW125857   3.123   0.752   9.873  0.2986  0.1572  1.0985
 4626SOL    HW225858   3.267   0.715   9.841 -0.6783 -2.1283 -0.9544
 4627SOL     OW25859   0.170  12.121   7.540 -0.2807  0.3925  0.4453
 4627SOL    HW125860   0.160  12.216   7.531 -1.3306  0.3990  1.4331
 4627SOL    HW225861   0.128  12.084   7.462 -3.2167  0.6518  1.7744
 4628SOL     OW25862  13.782  10.829   6.721 -0.2077 -0.2633 -0.4561
 4628SOL    HW125863  13.852  10.890   6.743  0.5814 -0.7823 -1.4998
 4628SOL    HW225864  13.772  10.775   6.800  1.4931 -1.0596 -0.7447
 4629SOL     OW25865  10.461  11.132   7.695  0.0049 -0.3499 -0.3236
 4629SOL    HW125866  10.455  11.214   7.745 -0.8513  0.0427 -1.0390
 4629SOL    HW225867  10.533  11.147   7.635 -0.4463  0.0749 -0.7731
 4630SOL     OW25868   5.468   7.640   1.999 -0.6512  0.3647 -0.2727
 4630SOL    HW125869   5.532   7.622   2.068 -2.6655 -2.8544  0.9888
 4630SOL    HW225870   5.402   7.694   2.042 -1.7229 -1.3396  0.3111
 4631SOL     OW25871   5.811  12.202   9.282 -0.5437 -0.1651  0.6061
 4631SOL    HW125872   5.813  12.147   9.360  0.7094  0.7273  1.2423
 4631SOL    HW225873   5.882  12.265   9.295  0.1337 -0.3989 -1.5467
 4632SOL     OW25874   7.387   6.560  10.729  0.7505 -0.2948  0.0408
 4632SOL    HW125875   7.402   6.472  10.694  0.2660  0.3176 -1.7865
 4632SOL    HW225876   7.383   6.547  10.824 -2.1587 -2.7474 -0.2312
 4633SOL     OW25877   3.675   7.692   1.719 -0.4737  0.4218 -0.2310
 4633SOL    HW125878   3.728   7.614   1.730 -0.8055  0.2225 -0.0253
 4633SOL    HW225879   3.728   7.763   1.754 -0.3019  0.2416 -0.1278
 4634SOL     OW25880   7.323   6.823   6.552  0.5355 -0.1321  0.1376
 4634SOL    HW125881   7.287   6.893   6.606  0.2326 -0.1950  0.0225
 4634SOL    HW225882   7.248   6.765   6.536  0.5284  0.0807 -0.6609
 4635SOL     OW25883  11.080   8.181  12.592 -0.5618 -0.1775 -0.3112
 4635SOL    HW125884  11.018   8.201  12.521  1.4641 -0.1267 -2.1645
 4635SOL    HW225885  11.132   8.107  12.558 -0.2726 -0.9251  1.6241
 4636SOL     OW25886   8.937  10.435   7.244  0.2593  0.0090 -0.2248
 4636SOL    HW125887   9.027  10.464   7.231 -0.2797  0.8483 -2.4258
 4636SOL    HW225888   8.884  10.513   7.231 -0.8399 -0.6011  0.4410
 4637SOL     OW25889  10.362   8.976   6.759 -0.2736 -0.3349  0.0431
 4637SOL    HW125890  10.399   8.941   6.677  0.7795  0.9152 -0.0459
 4637SOL    HW225891  10.432   9.030   6.796 -1.4187  0.6880  0.7930
 4638SOL     OW25892   0.129   2.191   7.576 -0.5735  0.5445  0.1402
 4638SOL    HW125893   0.071   2.141   7.518  1.2523 -2.6562  0.8104
 4638SOL    HW225894   0.083   2.191   7.660 -0.5760 -0.0931  0.1453
 4639SOL     OW25895   0.007   9.296   7.090  0.0166  0.1317 -0.6954
 4639SOL    HW125896   0.026   9.223   7.149  0.8943 -0.1551 -1.3105
 4639SOL    HW225897  -0.030   9.254   7.012 -2.0136  0.5793 -0.0309
 4640SOL     OW25898   9.376  10.895  10.537  0.2586 -0.1117  0.2578
 4640SOL    HW125899   9.467  10.883  10.561 -0.1959 -1.2691  1.4509
 4640SOL    HW225900   9.353  10.816  10.488  0.1444  0.6011 -0.8816
 4641SOL     OW25901   0.718   9.030  10.647  0.1937 -0.1319 -0.7836
 4641SOL    HW125902   0.667   9.109  10.628  0.9071  0.6338  0.3289
 4641SOL    HW225903   0.804   9.047  10.609 -0.4260 -1.6142 -3.0673
 4642SOL     OW25904   5.083  13.219   7.477 -0.0176  0.0573 -0.5102
 4642SOL    HW125905   4.996  13.192   7.508 -0.1947  0.0445 -1.0179
 4642SOL    HW225906   5.071  13.309   7.448  0.7793  1.0865  2.0711
 4643SOL     OW25907  11.664   4.654   8.380 -0.0451  0.0021 -0.0385
 4643SOL    HW125908  11.623   4.591   8.321  1.7729 -0.5957 -0.7143
 4643SOL    HW225909  11.754   4.623   8.391  0.3616  1.4545  1.1011
 4644SOL     OW25910  11.881   5.458   5.585  0.1576  0.4247 -0.1779
 4644SOL    HW125911  11.909   5.452   5.494  1.9626 -0.0511  0.3583
 4644SOL    HW225912  11.901   5.371   5.621  0.0148  0.7932  0.8068
 4645SOL     OW25913   9.061  13.846   6.453 -0.0449  0.6107  0.2803
 4645SOL    HW125914   9.054  13.796   6.371 -4.8661  0.8246  0.2603
 4645SOL    HW225915   8.990  13.909   6.448  1.3130  2.6245  3.4757
 4646SOL     OW25916   6.409   6.848  10.633 -0.8028 -0.5874  0.0773
 4646SOL    HW125917   6.450   6.835  10.718 -1.6029 -2.1977  0.2561
 4646SOL    HW225918   6.432   6.938  10.608  2.5161 -1.2437  0.3011
 4647SOL     OW25919  10.692   7.877   5.617  0.0635  0.3528  0.2271
 4647SOL    HW125920  10.778   7.837   5.628 -0.4384 -1.2258 -1.2182
 4647SOL    HW225921  10.637   7.835   5.682 -0.0484 -0.0366 -0.1150
 4648SOL     OW25922   1.114   6.304   8.084  1.3919 -0.1066 -0.0250
 4648SOL    HW125923   1.068   6.228   8.049  1.6461  0.0968 -0.8122
 4648SOL    HW225924   1.199   6.304   8.039  1.3287  0.7445 -0.1648
 4649SOL     OW25925   3.952   9.672   9.712  0.7996 -0.2800 -0.4082
 4649SOL    HW125926   3.944   9.679   9.617 -0.2884  0.6586 -0.2755
 4649SOL    HW225927   4.021   9.734   9.736  0.2717  0.3496 -0.4907
 4650SOL     OW25928   1.731   7.740   1.772 -0.1667  0.2998 -0.1076
 4650SOL    HW125929   1.817   7.776   1.750 -0.5031 -0.4321 -3.0902
 4650SOL    HW225930   1.745   7.646   1.779 -0.0248  0.4530  3.7655
 4651SOL     OW25931   4.460   5.814   1.133  0.2626 -0.0229  0.2838
 4651SOL    HW125932   4.375   5.823   1.090 -0.1303  0.5135  1.1397
 4651SOL    HW225933   4.440   5.770   1.215  0.9984 -1.0320 -0.0591
 4652SOL     OW25934   7.999   9.882   6.304 -0.1350 -0.0756 -0.0380
 4652SOL    HW125935   7.997   9.950   6.236  0.5844  0.3849  0.3773
 4652SOL    HW225936   7.951   9.809   6.267 -4.0603  1.8172  0.7832
 4653SOL     OW25937   6.913  12.233   6.037  0.3486  0.5798  0.1083
 4653SOL    HW125938   6.957  12.288   5.972 -0.7973  0.8470 -0.4815
 4653SOL    HW225939   6.894  12.292   6.110 -0.0556  0.7589 -0.1345
 4654SOL     OW25940   4.423   4.839  10.848  0.3176  0.3344  0.2502
 4654SOL    HW125941   4.419   4.906  10.779  0.6879 -1.7952 -2.0105
 4654SOL    HW225942   4.332   4.819  10.868  0.1418 -0.3743 -1.1149
 4655SOL     OW25943   1.768  10.945   3.966 -0.3693 -0.1318 -0.0499
 4655SOL    HW125944   1.760  10.886   3.891  0.2078 -1.6260  1.0254
 4655SOL    HW225945   1.752  10.890   4.042 -0.4960  1.2571  0.9698
 4656SOL     OW25946   8.399   1.915  12.229 -0.4913 -0.1115  0.3702
 4656SOL    HW125947   8.486   1.901  12.191 -1.0836 -0.5810 -0.8794
 4656SOL    HW225948   8.364   1.826  12.240 -1.7295  0.1122 -1.4080
 4657SOL     OW25949   2.331   3.723   1.212 -0.0132  0.6258 -0.0325
 4657SOL    HW125950   2.340   3.692   1.303  0.0297 -0.8464 -0.5105
 4657SOL    HW225951   2.243   3.696   1.187 -0.0370  1.0667 -0.4214
 4658SOL     OW25952   4.801  10.704  11.640  0.3452  0.0994 -0.4429
 4658SOL    HW125953   4.763  10.683  11.555 -1.6426  0.7999  0.2196
 4658SOL    HW225954   4.759  10.644  11.701 -0.2604  1.3690  0.4309
 4659SOL     OW25955   0.310   6.827   2.617 -0.2441  0.3957  0.2503
 4659SOL    HW125956   0.315   6.806   2.524 -0.9712  0.0136  0.2876
 4659SOL    HW225957   0.302   6.922   2.619 -2.3472  0.2811 -0.2070
 4660SOL     OW25958   3.129  12.755   7.926  0.3455 -0.3776 -0.2050
 4660SOL    HW125959   3.209  12.756   7.874  0.0210  1.2724 -0.7381
 4660SOL    HW225960   3.152  12.707   8.005  2.1001  0.7031 -0.0113
 4661SOL     OW25961  12.703   5.204   3.555 -0.7096  0.3091 -1.1756
 4661SOL    HW125962  12.754   5.237   3.481  0.2260  0.0386 -0.6648
 4661SOL    HW225963  12.740   5.249   3.631 -1.4382  0.3265 -0.8255
 4662SOL     OW25964   9.805   9.195   5.424  0.0280  0.1540 -0.3964
 4662SOL    HW125965   9.750   9.206   5.501  0.1469 -0.2093 -0.2552
 4662SOL    HW225966   9.863   9.271   5.425  0.2694 -0.0301  0.0756
 4663SOL     OW25967  11.982   8.443   4.597  0.3073  0.1048 -0.1315
 4663SOL    HW125968  12.065   8.419   4.636  0.0682  1.1695  1.1027
 4663SOL    HW225969  11.970   8.535   4.620 -0.1871  0.5972 -2.1624
 4664SOL     OW25970  11.070  13.470   2.901 -0.4578  0.2640  0.1005
 4664SOL    HW125971  10.987  13.506   2.870 -1.0805 -1.4371 -0.3171
 4664SOL    HW225972  11.107  13.426   2.825 -0.6360 -1.5332  0.9837
 4665SOL     OW25973  12.612   6.786   1.357  0.0736  0.0794  0.6559
 4665SOL    HW125974  12.658   6.740   1.428  0.9992 -0.8556 -0.5008
 4665SOL    HW225975  12.605   6.721   1.288 -2.6711  0.3262  0.6070
 4666SOL     OW25976  10.105   4.051   1.444  0.5518  0.7229  0.1813
 4666SOL    HW125977  10.022   4.084   1.410 -0.6177 -1.6325  0.5332
 4666SOL    HW225978  10.170   4.080   1.381 -1.0257 -0.1753 -1.9944
 4667SOL     OW25979   0.969   1.411   0.846 -0.3984 -0.2741  0.2405
 4667SOL    HW125980   0.898   1.382   0.789  0.4501 -0.6000 -0.6861
 4667SOL    HW225981   1.045   1.359   0.818  0.1644 -0.0425  1.3097
 4668SOL     OW25982   7.733   3.781   4.247 -0.4562  0.4946  0.3794
 4668SOL    HW125983   7.681   3.702   4.233  0.9811 -0.5016  0.4910
 4668SOL    HW225984   7.672   3.853   4.229 -0.9631 -0.6159 -2.8704
 4669SOL     OW25985  13.922   6.114   9.520 -0.1403 -0.5703 -0.1185
 4669SOL    HW125986  13.833   6.096   9.490 -0.0046  0.6214 -1.3292
 4669SOL    HW225987  13.948   6.034   9.566 -1.6105 -1.1591 -0.2480
 4670SOL     OW25988   1.910   5.479  11.062  0.1539  0.0470 -0.0471
 4670SOL    HW125989   1.926   5.386  11.080 -3.7531 -1.0380 -1.0975
 4670SOL    HW225990   1.866   5.511  11.141  3.6609  1.8605  1.3551
 4671SOL     OW25991   7.009  11.799   9.082 -0.1742  0.2350 -0.5924
 4671SOL    HW125992   6.914  11.789   9.072 -0.4339  2.0196 -0.1849
 4671SOL    HW225993   7.046  11.735   9.022 -1.6260 -0.8702 -0.3707
 4672SOL     OW25994   4.664   8.104   6.481 -0.3375  0.3378  0.5382
 4672SOL    HW125995   4.710   8.128   6.400 -0.9421 -0.8859 -0.1868
 4672SOL    HW225996   4.729   8.052   6.530 -0.2385  0.3971  0.4711
 4673SOL     OW25997   0.417   1.679  10.694  0.0560  0.1371 -0.8709
 4673SOL    HW125998   0.412   1.689  10.599  1.7678  0.8435 -0.9342
 4673SOL    HW225999   0.328   1.698  10.725 -0.7514 -0.9871 -2.3697
 4674SOL     OW26000   2.547   9.409   8.236 -0.3175  0.3613  0.9412
 4674SOL    HW126001   2.613   9.420   8.168 -2.2280  0.9368 -0.9448
 4674SOL    HW226002   2.562   9.321   8.270  0.0265 -0.4024 -1.0393
 4675SOL     OW26003   1.035   8.911  11.156  0.6872  0.7308 -0.3739
 4675SOL    HW126004   1.097   8.924  11.227  1.3021  1.2424 -0.9844
 4675SOL    HW226005   0.986   8.832  11.180  2.0614 -0.1052 -0.2045
 4676SOL     OW26006   8.888   8.398   0.095 -0.0106  0.5976  0.9662
 4676SOL    HW126007   8.957   8.349   0.051 -0.8724 -0.8565  1.1852
 4676SOL    HW226008   8.885   8.482   0.049 -0.3466 -0.5631 -1.2455
 4677SOL     OW26009   4.126  11.024   0.303 -0.5855 -0.0734 -0.3374
 4677SOL    HW126010   4.203  11.043   0.249 -1.5401  0.0624 -1.6898
 4677SOL    HW226011   4.070  10.970   0.247 -1.2448 -0.6348  0.8213
 4678SOL     OW26012   5.081   0.082  13.033  0.2307  0.2841  0.3307
 4678SOL    HW126013   5.145   0.087  12.962 -0.4485 -0.8014 -0.3950
 4678SOL    HW226014   5.132   0.056  13.110  0.6235 -0.9259 -0.3199
 4679SOL     OW26015  11.067   0.224   2.873  0.4355  0.3947 -0.2089
 4679SOL    HW126016  10.988   0.171   2.865 -0.5691  1.9511 -1.0842
 4679SOL    HW226017  11.053   0.277   2.951  1.0563  0.0122  0.1738
 4680SOL     OW26018  13.306  10.102   0.918  0.2522  0.1164 -0.1741
 4680SOL    HW126019  13.393  10.115   0.955  0.2013  0.7899 -0.2841
 4680SOL    HW226020  13.296  10.172   0.853 -1.8116  2.4418  2.3988
 4681SOL     OW26021   0.286   3.973  12.458  0.6462  0.3617 -0.1832
 4681SOL    HW126022   0.332   4.050  12.426  1.8894  0.5281  1.8176
 4681SOL    HW226023   0.327   3.900  12.412  0.9037  0.7412 -0.5669
 4682SOL     OW26024   7.226   6.514   0.364 -0.6676  0.3302  0.0114
 4682SOL    HW126025   7.190   6.577   0.427  0.9941 -0.1171  1.4758
 4682SOL    HW226026   7.258   6.569   0.292 -0.4584  1.0597  0.6427
 4683SOL     OW26027   2.271   3.889  10.485  0.6526  0.0453  0.3875
 4683SOL    HW126028   2.284   3.983  10.494  0.5847  0.5351 -3.1145
 4683SOL    HW226029   2.241   3.878  10.395  1.5415 -3.4146  0.3888
 4684SOL     OW26030  13.287   9.416   8.039 -0.3127  0.3319  0.5256
 4684SOL    HW126031  13.289   9.340   8.098 -1.1908  0.5239  0.8109
 4684SOL    HW226032  13.365   9.405   7.984 -0.6091 -0.9718  0.3172
 4685SOL     OW26033   8.132   3.748   4.853  0.0832  0.6189  0.0653
 4685SOL    HW126034   8.219   3.712   4.873 -0.2840 -1.1468 -1.2406
 4685SOL    HW226035   8.099   3.779   4.937  0.9976 -0.9755  1.0594
 4686SOL     OW26036   8.101   0.944  12.192 -0.3538 -0.6347  0.0370
 4686SOL    HW126037   8.154   1.011  12.235 -0.9141 -0.5568  0.6215
 4686SOL    HW226038   8.100   0.969  12.099 -3.4490  2.2544  0.6501
 4687SOL     OW26039   2.901   4.507   1.990 -0.4728 -0.2673  0.3012
 4687SOL    HW126040   2.830   4.549   1.941 -0.5824 -0.1723  0.5380
 4687SOL    HW226041   2.955   4.465   1.923 -0.8416 -0.4742  0.1258
 4688SOL     OW26042   2.627  10.037  11.852  0.3783 -0.3837 -0.4511
 4688SOL    HW126043   2.578  10.036  11.770 -1.0518  1.7867  0.2886
 4688SOL    HW226044   2.560  10.050  11.919  1.3348 -3.5429  1.2930
 4689SOL     OW26045   5.959   0.094   5.144  0.1705  0.3253  0.4398
 4689SOL    HW126046   5.981   0.030   5.077  0.0752  1.5509 -0.8042
 4689SOL    HW226047   6.004   0.063   5.223 -1.9425 -2.6963  0.6348
 4690SOL     OW26048  10.265   1.559   5.389 -0.2702 -0.1993 -0.3251
 4690SOL    HW126049  10.272   1.482   5.445  3.1885 -1.0092 -1.5995
 4690SOL    HW226050  10.340   1.613   5.413 -0.9055  1.2948 -1.5370
 4691SOL     OW26051  13.418   0.178   3.125 -0.0905 -0.7791  0.3735
 4691SOL    HW126052  13.368   0.160   3.205  0.7686  0.8140  1.3434
 4691SOL    HW226053  13.363   0.237   3.074  0.0686 -0.4109  0.6225
 4692SOL     OW26054   3.244   4.812  13.791  0.1805  0.0794  0.6888
 4692SOL    HW126055   3.321   4.832  13.738  0.0242 -1.3954 -0.1391
 4692SOL    HW226056   3.174   4.865  13.752  0.9777  2.3664  2.1987
 4693SOL     OW26057   9.362   8.882   1.145  0.1817  0.1193 -0.2171
 4693SOL    HW126058   9.341   8.847   1.058 -2.2154 -0.0274  0.3724
 4693SOL    HW226059   9.354   8.806   1.203  1.0298  0.3856  0.2622
 4694SOL     OW26060   0.175   9.676   3.966  0.1341 -0.1736  0.5759
 4694SOL    HW126061   0.180   9.771   3.957  0.0317 -0.3164 -1.3463
 4694SOL    HW226062   0.095   9.661   4.016 -0.2405  0.7409  0.2706
 4695SOL     OW26063  12.481   0.593  12.972 -0.0779 -0.2386  0.1575
 4695SOL    HW126064  12.452   0.674  12.930  0.2451  0.1524  0.6773
 4695SOL    HW226065  12.524   0.622  13.052 -1.7139 -1.0151  1.3681
 4696SOL     OW26066   5.947   4.965  11.293 -0.4861 -0.4745 -0.1038
 4696SOL    HW126067   6.019   5.016  11.331 -0.2053 -0.5357 -0.5459
 4696SOL    HW226068   5.868   5.002  11.333 -0.2462 -0.0640 -0.0003
 4697SOL     OW26069   0.696   9.469   9.856 -0.5366 -0.1853  0.1986
 4697SOL    HW126070   0.701   9.507   9.769  0.2043  0.2145  0.4038
 4697SOL    HW226071   0.609   9.492   9.888 -0.0625  1.4996  0.3711
 4698SOL     OW26072   7.443   4.592   5.486 -0.2497  0.3079  0.2517
 4698SOL    HW126073   7.423   4.615   5.577  0.0037 -0.0876  0.4076
 4698SOL    HW226074   7.472   4.501   5.489 -1.9223 -0.2797 -0.4693
 4699SOL     OW26075   1.278  10.796   4.101  0.1429  0.3424 -0.4342
 4699SOL    HW126076   1.215  10.750   4.045 -0.5846 -0.7712  1.2100
 4699SOL    HW226077   1.236  10.879   4.122  0.6462  0.9977 -1.9125
 4700SOL     OW26078   8.741   9.753   6.557  0.5422  0.0450 -0.1931
 4700SOL    HW126079   8.673   9.685   6.562 -0.9879  1.4481 -0.8910
 4700SOL    HW226080   8.786   9.735   6.474 -0.2806  0.2391 -0.6932
 4701SOL     OW26081   0.975   5.947   7.681 -0.1133  0.3200 -0.5123
 4701SOL    HW126082   1.037   5.883   7.645 -0.4362  0.1295 -0.7384
 4701SOL    HW226083   0.921   5.973   7.606 -0.4326  0.3346 -0.2817
 4702SOL     OW26084   1.617  12.875   8.525 -0.4806  0.4822  0.4327
 4702SOL    HW126085   1.697  12.826   8.504 -1.7902 -1.3647 -0.5057
 4702SOL    HW226086   1.631  12.961   8.485  0.7739 -0.0219 -0.2834
 4703SOL     OW26087   0.881   4.372   5.911 -0.1126 -0.3185 -0.2430
 4703SOL    HW126088   0.939   4.447   5.918 -0.5519  0.1499 -1.3442
 4703SOL    HW226089   0.812   4.401   5.851 -1.3912 -0.9084  0.8901
 4704SOL     OW26090   1.432  11.624   6.643 -0.9333 -0.0381  0.3203
 4704SOL    HW126091   1.419  11.557   6.575 -2.2519  1.5933 -1.1649
 4704SOL    HW226092   1.523  11.614   6.670  0.4297  0.5776 -3.3454
 4705SOL     OW26093   1.035   0.806  10.181 -0.4873  0.0648 -0.2923
 4705SOL    HW126094   0.959   0.861  10.201 -0.0369  0.2141  1.1747
 4705SOL    HW226095   1.091   0.815  10.258  0.4535 -1.0017 -0.8261
 4706SOL     OW26096   5.316   1.398  11.413  0.2691 -0.0864  0.3724
 4706SOL    HW126097   5.257   1.341  11.462 -1.3497  2.4323  1.5188
 4706SOL    HW226098   5.403   1.376  11.446 -0.2014 -2.2938  0.2964
 4707SOL     OW26099  12.188  11.617   3.086  0.5839  0.1144 -0.6690
 4707SOL    HW126100  12.130  11.597   3.012  0.5688  1.5836 -1.0980
 4707SOL    HW226101  12.137  11.593   3.163  0.5315 -1.2877 -1.0995
 4708SOL     OW26102   9.867   4.182   5.863  0.5572  0.3721  0.3735
 4708SOL    HW126103   9.898   4.194   5.773 -1.7750 -0.2761 -0.6041
 4708SOL    HW226104   9.914   4.105   5.895  0.3793 -0.2598 -0.8315
 4709SOL     OW26105  11.622   6.805  11.536 -0.3035 -0.3385  0.4239
 4709SOL    HW126106  11.564   6.800  11.460  1.3739  0.0384 -0.9697
 4709SOL    HW226107  11.642   6.713  11.556 -0.0238 -0.4310 -0.2279
 4710SOL     OW26108   7.778   4.675   2.448 -0.3409 -0.2615  0.0684
 4710SOL    HW126109   7.709   4.708   2.390 -0.2729 -0.1677  0.0409
 4710SOL    HW226110   7.810   4.752   2.494 -1.6252 -0.5788  1.5754
 4711SOL     OW26111   2.867   1.321   5.049  0.7284 -0.2750 -0.3528
 4711SOL    HW126112   2.861   1.415   5.033  0.2105  0.1335  1.9126
 4711SOL    HW226113   2.960   1.304   5.058  0.8358 -0.0376 -0.9448
 4712SOL     OW26114   2.692  12.542  12.432  0.3028 -0.1379  0.1591
 4712SOL    HW126115   2.784  12.565  12.420  0.6382 -0.2059  2.1906
 4712SOL    HW226116   2.685  12.518  12.525 -1.1411 -3.0766 -0.5709
 4713SOL     OW26117   8.529   7.364  12.246  0.5340 -0.4009  0.0746
 4713SOL    HW126118   8.494   7.275  12.251 -1.8230  0.4102 -0.6152
 4713SOL    HW226119   8.511   7.401  12.333 -1.9602  0.5129 -0.7449
 4714SOL     OW26120  12.504   8.872   4.753 -0.3638  0.3819 -0.2956
 4714SOL    HW126121  12.523   8.820   4.674  0.0765  2.6443 -1.7770
 4714SOL    HW226122  12.451   8.944   4.722 -2.7432 -0.1956  2.0684
 4715SOL     OW26123   8.646   8.600   7.009  0.5276 -0.0849 -0.3238
 4715SOL    HW126124   8.715   8.589   7.075  1.4223  0.2554 -1.1607
 4715SOL    HW226125   8.671   8.540   6.938 -1.0605 -1.3201  0.1230
 4716SOL     OW26126   5.608  13.026   7.428  0.0065 -0.1922  0.1724
 4716SOL    HW126127   5.514  13.013   7.433 -0.1088  0.4464 -0.2200
 4716SOL    HW226128   5.620  13.121   7.431  0.7339 -0.3032  1.7405
 4717SOL     OW26129   8.128   1.723   5.564  0.7218  0.0023 -0.3436
 4717SOL    HW126130   8.192   1.775   5.612  2.2599 -2.1250  0.0671
 4717SOL    HW226131   8.181   1.655   5.521 -1.3536 -3.6369  2.2973
 4718SOL     OW26132  11.809   8.104   8.251 -0.2309  0.3893 -0.3531
 4718SOL    HW126133  11.766   8.109   8.337  0.0346 -0.2708 -0.1731
 4718SOL    HW226134  11.876   8.037   8.263 -0.6941 -0.2553 -1.2962
 4719SOL     OW26135   5.947   4.370   9.325  0.2357  0.6311  0.0756
 4719SOL    HW126136   5.947   4.420   9.407  2.4969  1.0718 -0.1315
 4719SOL    HW226137   6.032   4.389   9.285 -0.2415 -0.6897 -1.7043
 4720SOL     OW26138   5.516  10.985  12.729 -0.9489  0.5775 -0.0324
 4720SOL    HW126139   5.587  10.982  12.793 -1.8582 -0.7217  0.9685
 4720SOL    HW226140   5.438  11.007  12.781 -1.8767 -1.3857 -0.4917
 4721SOL     OW26141   3.073  11.042   6.459  0.6483 -0.4389  0.3428
 4721SOL    HW126142   3.126  11.040   6.379  1.4966 -0.8874  0.9086
 4721SOL    HW226143   2.987  11.011   6.431  0.7088  0.1678 -0.5609
 4722SOL     OW26144  10.527   7.111  11.999  0.3032 -0.2231  0.1871
 4722SOL    HW126145  10.438   7.097  11.968  0.2803 -0.5353  0.3897
 4722SOL    HW226146  10.544   7.039  12.059  0.3587  0.3430  0.8728
 4723SOL     OW26147   5.372   2.676  12.414  0.0155 -0.9044  0.0934
 4723SOL    HW126148   5.331   2.615  12.354 -2.2935  0.1269  0.4922
 4723SOL    HW226149   5.378   2.758  12.365  0.0011 -0.5901  0.6074
 4724SOL     OW26150   6.324   6.960   9.508 -0.0650  0.6530 -0.2729
 4724SOL    HW126151   6.395   6.910   9.467  0.8986  1.4519  0.3682
 4724SOL    HW226152   6.249   6.900   9.509  1.0237 -0.7427  0.3698
 4725SOL     OW26153   6.088  11.935  10.016 -0.0309  0.2123 -0.1681
 4725SOL    HW126154   6.139  11.998   9.966 -0.7288  0.0469 -1.1188
 4725SOL    HW226155   5.999  11.942   9.981 -0.0723 -1.5073 -0.5338
 4726SOL     OW26156   9.061  12.801  13.491  0.2902 -0.3801 -0.1352
 4726SOL    HW126157   9.156  12.809  13.496  0.3156  0.1457 -1.2178
 4726SOL    HW226158   9.045  12.710  13.468  0.5811 -0.2439 -0.8974
 4727SOL     OW26159   9.254  10.294   0.915 -0.0859  0.2159  0.6402
 4727SOL    HW126160   9.208  10.226   0.866  0.3580 -0.2971  0.9245
 4727SOL    HW226161   9.204  10.304   0.996 -0.5604  0.7433  0.2891
 4728SOL     OW26162   2.823   4.756   4.881 -0.5243 -0.4044  0.6185
 4728SOL    HW126163   2.828   4.738   4.975 -0.8037  0.7613  0.8702
 4728SOL    HW226164   2.766   4.687   4.846  0.4265 -1.4797  1.1066
 4729SOL     OW26165   7.046   5.629   9.552 -0.3067 -0.1581 -0.1558
 4729SOL    HW126166   6.986   5.698   9.579 -0.0937  0.7395 -1.8455
 4729SOL    HW226167   7.118   5.633   9.615 -0.7526  0.5213  0.3202
 4730SOL     OW26168   5.742   5.408  12.936  0.5083  0.3732 -0.0492
 4730SOL    HW126169   5.689   5.359  12.872 -2.0398  0.6255  1.7266
 4730SOL    HW226170   5.757   5.346  13.007  2.1683  0.5082 -0.2358
 4731SOL     OW26171   9.515   3.908   9.843 -0.3139  0.0579 -0.0518
 4731SOL    HW126172   9.554   3.821   9.857 -2.3843 -1.2412 -1.8547
 4731SOL    HW226173   9.443   3.912   9.906  0.7650  1.1987  1.1609
 4732SOL     OW26174  10.006   3.125   6.017 -0.7483  0.2140 -0.4670
 4732SOL    HW126175   9.939   3.124   5.949 -0.2826 -0.4622 -0.9356
 4732SOL    HW226176  10.070   3.059   5.989 -1.2041 -1.0707  1.3062
 4733SOL     OW26177  11.385   3.091  12.294 -0.3109 -0.1952 -0.0096
 4733SOL    HW126178  11.322   3.110  12.225 -0.1314 -0.0876 -0.1453
 4733SOL    HW226179  11.405   2.998  12.284 -0.2833 -0.1785 -0.1020
 4734SOL     OW26180   9.979  12.530   1.130  0.0799  0.0658  0.1692
 4734SOL    HW126181   9.904  12.478   1.103  0.3387 -0.2721  0.0962
 4734SOL    HW226182  10.052  12.468   1.134  0.2338  0.2808  0.7968
 4735SOL     OW26183   8.323   3.517   5.954 -0.0722  0.0393 -0.1541
 4735SOL    HW126184   8.382   3.442   5.954  0.3637  0.3773  0.4033
 4735SOL    HW226185   8.339   3.560   5.870 -1.3302 -1.2511 -1.1141
 4736SOL     OW26186   5.605   1.907   1.119  0.2629  0.4480 -0.3829
 4736SOL    HW126187   5.553   1.871   1.047  0.8569 -0.7471 -0.2537
 4736SOL    HW226188   5.541   1.947   1.177 -0.4769 -0.5305 -0.4867
 4737SOL     OW26189   7.138  10.453   3.014  0.3933 -0.5806 -0.2174
 4737SOL    HW126190   7.119  10.404   3.094  0.0840 -1.0279 -0.5608
 4737SOL    HW226191   7.150  10.385   2.947 -1.4141 -0.1622 -1.0044
 4738SOL     OW26192   1.286   9.352   7.302  0.3661  0.1603  0.1504
 4738SOL    HW126193   1.311   9.435   7.343 -0.5387  1.0445 -1.0013
 4738SOL    HW226194   1.335   9.351   7.220  2.0478 -1.5132  1.0963
 4739SOL     OW26195   8.700   4.945   8.416 -0.1372 -0.3848 -0.8083
 4739SOL    HW126196   8.656   5.022   8.379 -0.9390 -0.0758  0.7102
 4739SOL    HW226197   8.629   4.888   8.445  0.4499 -0.5818  0.2897
 4740SOL     OW26198  11.346  11.771   3.344  0.7331 -0.2359 -0.0860
 4740SOL    HW126199  11.426  11.821   3.357  0.4219  0.0340  0.9766
 4740SOL    HW226200  11.277  11.837   3.338  0.2511 -0.4763  1.8451
 4741SOL     OW26201  11.200   5.206   1.604 -0.1626 -0.0475 -0.3645
 4741SOL    HW126202  11.150   5.225   1.525 -0.9345  0.9604  0.3301
 4741SOL    HW226203  11.134   5.187   1.671  0.4602 -0.6532  0.0914
 4742SOL     OW26204   6.256   1.140  13.495 -0.2751 -0.3779  0.3319
 4742SOL    HW126205   6.326   1.192  13.535  0.3264 -1.1083  0.2612
 4742SOL    HW226206   6.191   1.204  13.467  1.0538  0.4638 -0.9507
 4743SOL     OW26207   2.405  14.034  11.960 -0.3037  0.0991 -0.0373
 4743SOL    HW126208   2.312  14.055  11.969 -0.5894 -0.6771 -0.9283
 4743SOL    HW226209   2.422  14.041  11.866  0.0837 -1.4359 -0.1192
 4744SOL     OW26210   1.144   2.419  13.093 -0.4674 -0.0087  0.0894
 4744SOL    HW126211   1.214   2.434  13.157 -0.8554 -2.1912  1.1121
 4744SOL    HW226212   1.184   2.443  13.009  0.6152  1.2970  0.9289
 4745SOL     OW26213  13.297   5.047   1.535  0.2350 -0.3165  0.4615
 4745SOL    HW126214  13.368   5.084   1.588  1.0615 -0.2312 -0.6830
 4745SOL    HW226215  13.277   5.114   1.470 -2.4186  0.6014  2.0309
 4746SOL     OW26216   6.761  11.762   4.399  0.3168  0.1218  0.2351
 4746SOL    HW126217   6.697  11.709   4.352  0.8648 -0.8260  0.5226
 4746SOL    HW226218   6.765  11.844   4.351 -0.3912 -0.1850 -0.3586
 4747SOL     OW26219  12.644  13.955  12.735  0.5882  0.1767 -0.3015
 4747SOL    HW126220  12.578  13.975  12.801  0.2965  0.9611 -0.8190
 4747SOL    HW226221  12.660  13.861  12.746 -0.3240  0.0492  0.0988
 4748SOL     OW26222   9.197  12.485   5.120 -0.1060  0.0265 -0.3872
 4748SOL    HW126223   9.281  12.451   5.090 -0.6936 -0.7802 -1.1807
 4748SOL    HW226224   9.202  12.482   5.216  1.4045  1.6378 -0.3591
 4749SOL     OW26225   5.692   8.311  11.869  0.2788 -0.4513 -0.0945
 4749SOL    HW126226   5.755   8.254  11.825 -0.4416 -1.6958  0.4250
 4749SOL    HW226227   5.619   8.318  11.808  1.2320  1.7570 -1.1088
 4750SOL     OW26228  13.033   7.740  12.043  0.1988 -0.1255 -0.0135
 4750SOL    HW126229  13.098   7.688  11.996  1.1839  1.4875 -0.4915
 4750SOL    HW226230  13.076   7.765  12.125  1.3006  3.0846 -1.3885
 4751SOL     OW26231   9.959   1.384  10.667  0.8053 -0.2348  0.3064
 4751SOL    HW126232   9.904   1.451  10.709 -0.5417 -1.5052  0.6365
 4751SOL    HW226233   9.995   1.333  10.739 -0.5072 -1.6440  0.0088
 4752SOL     OW26234  12.689   8.293   6.268 -0.0825 -0.0125 -0.1522
 4752SOL    HW126235  12.616   8.325   6.214 -0.2741  0.4307  0.3621
 4752SOL    HW226236  12.760   8.279   6.205 -0.5815 -0.3763 -0.6479
 4753SOL     OW26237   6.800   3.209   8.714 -0.0053 -0.0885 -0.3992
 4753SOL    HW126238   6.881   3.193   8.665 -0.3321 -1.7045 -0.4772
 4753SOL    HW226239   6.745   3.258   8.654  1.4657  2.5288  0.2291
 4754SOL     OW26240   8.515   3.840   5.823  0.0598  0.5977  0.8767
 4754SOL    HW126241   8.514   3.935   5.822  1.5819  0.6277  0.2654
 4754SOL    HW226242   8.581   3.817   5.889  0.6804  0.0069  0.0706
 4755SOL     OW26243   4.221   9.151   5.340 -0.1847  0.6128  0.0272
 4755SOL    HW126244   4.195   9.126   5.252 -1.1728  0.0802  0.4503
 4755SOL    HW226245   4.210   9.246   5.343 -1.4578  0.4849 -0.0324
 4756SOL     OW26246   3.260   9.180  13.157  0.5170 -0.2861 -0.0108
 4756SOL    HW126247   3.241   9.138  13.072 -1.0315 -0.6915  0.4911
 4756SOL    HW226248   3.219   9.122  13.221  2.5704 -0.5544  1.1459
 4757SOL     OW26249   0.775   2.958  11.939 -0.0322  0.2396  0.3813
 4757SOL    HW126250   0.803   3.018  11.869  0.4222 -0.5798 -0.1593
 4757SOL    HW226251   0.708   2.903  11.899  1.0847 -1.0403  0.1981
 4758SOL     OW26252  11.350   2.554   9.082 -0.4101  0.0671 -0.0389
 4758SOL    HW126253  11.391   2.468   9.084 -0.2705  0.1339  0.0058
 4758SOL    HW226254  11.257   2.537   9.097 -0.2249  0.0282  1.1631
 4759SOL     OW26255   0.802  10.983   4.418  0.0126 -0.8804  0.3713
 4759SOL    HW126256   0.777  10.916   4.355 -2.5984  1.0356 -0.7948
 4759SOL    HW226257   0.735  10.977   4.487 -0.2310  0.4453  0.2723
 4760SOL     OW26258  12.114   4.203   2.322  0.1440 -0.0085  0.0573
 4760SOL    HW126259  12.179   4.133   2.318  1.1018  0.8266  0.5125
 4760SOL    HW226260  12.030   4.158   2.313  0.7606 -1.1397 -0.3077
 4761SOL     OW26261  10.311  13.242   9.066 -0.0464  0.4460  0.5670
 4761SOL    HW126262  10.258  13.315   9.036 -0.4411  0.1096  0.4324
 4761SOL    HW226263  10.357  13.212   8.987  0.4525  0.8200  0.7088
 4762SOL     OW26264   6.414   2.014   2.790 -0.5826 -0.1108  0.2302
 4762SOL    HW126265   6.357   1.971   2.725 -3.1321  2.1838  0.7603
 4762SOL    HW226266   6.428   1.947   2.857  0.2776 -1.8273 -1.5351
 4763SOL     OW26267   4.303   8.147  13.242  0.1467  0.6067  0.5407
 4763SOL    HW126268   4.295   8.231  13.198 -1.0208 -0.2241 -0.9318
 4763SOL    HW226269   4.255   8.086  13.186 -0.0340 -0.8225  2.1755
 4764SOL     OW26270   8.463   5.496  10.343 -0.0622 -0.3680  0.5107
 4764SOL    HW126271   8.519   5.418  10.338  1.0859  0.4514  0.3794
 4764SOL    HW226272   8.477   5.541  10.260  0.8510  1.0143  1.3724
 4765SOL     OW26273   3.818  13.996  12.097  0.0634  0.3548  0.3237
 4765SOL    HW126274   3.772  14.055  12.157 -0.8865 -0.1025  0.0518
 4765SOL    HW226275   3.804  13.909  12.133  0.7570  0.2056  0.2523
 4766SOL     OW26276   0.505   7.383   2.716 -0.3711  0.4379 -0.3415
 4766SOL    HW126277   0.457   7.446   2.662  0.3749  0.0152 -1.5542
 4766SOL    HW226278   0.502   7.419   2.804 -0.6332  1.7722 -0.8721
 4767SOL     OW26279  13.847   7.222   4.071 -0.3285  0.0950 -0.1659
 4767SOL    HW126280  13.936   7.203   4.041 -0.0208 -0.5009  1.0689
 4767SOL    HW226281  13.859   7.289   4.139 -0.5550 -1.5983  1.6327
 4768SOL     OW26282   0.210   5.946   8.706 -0.1903  0.0635 -0.0925
 4768SOL    HW126283   0.222   6.025   8.653 -1.0695 -0.7821 -1.6155
 4768SOL    HW226284   0.119   5.922   8.692  0.0625 -1.2187  0.3569
 4769SOL     OW26285  12.491   8.408   4.586  0.0628  0.2979 -0.3417
 4769SOL    HW126286  12.491   8.315   4.563 -0.5798  0.2424 -0.1460
 4769SOL    HW226287  12.565   8.418   4.646 -0.5709 -0.3381  0.5719
 4770SOL     OW26288   3.520   7.165   6.426  0.7143 -0.0765 -0.3577
 4770SOL    HW126289   3.610   7.132   6.421  0.2571 -1.4674  0.1976
 4770SOL    HW226290   3.494   7.149   6.516 -0.5701 -1.0194 -0.8695
 4771SOL     OW26291   5.891   3.560   9.949 -0.1783  0.4517 -0.7490
 4771SOL    HW126292   5.871   3.595  10.035 -0.3357  0.8828 -0.9584
 4771SOL    HW226293   5.814   3.506   9.926  0.6403 -1.1666  0.1526
 4772SOL     OW26294   8.164   3.211  10.699  1.0797  0.1850 -0.1781
 4772SOL    HW126295   8.088   3.169  10.740  0.9691 -0.6402 -1.1759
 4772SOL    HW226296   8.164   3.300  10.734 -0.2733  0.1650 -0.0647
 4773SOL     OW26297   7.383   8.858   8.909 -0.0484 -0.3887 -0.0870
 4773SOL    HW126298   7.375   8.920   8.836  2.0946 -2.1906 -2.0266
 4773SOL    HW226299   7.456   8.893   8.961  0.0138 -0.3524 -0.1970
 4774SOL     OW26300   6.569   5.435  13.628 -0.5411 -0.0450  0.3406
 4774SOL    HW126301   6.604   5.398  13.547 -1.5676 -0.1820 -0.0605
 4774SOL    HW226302   6.646   5.451  13.682  0.0496 -1.4406 -0.0362
 4775SOL     OW26303  10.279  12.081   4.550  0.2999  0.0463  0.1742
 4775SOL    HW126304  10.336  12.149   4.514  1.5791 -2.0701 -2.0676
 4775SOL    HW226305  10.280  12.097   4.644  2.1723  1.8936 -0.0828
 4776SOL     OW26306   8.165   9.944   0.944 -0.7963  0.0354  0.2124
 4776SOL    HW126307   8.173   9.998   1.022  1.0224 -0.6028  0.5282
 4776SOL    HW226308   8.229   9.980   0.883 -3.6359  1.8939 -1.9421
 4777SOL     OW26309   7.645   2.385   0.597  0.5670  0.1981  0.4500
 4777SOL    HW126310   7.653   2.395   0.502  0.3962 -0.8303  0.3150
 4777SOL    HW226311   7.735   2.368   0.626  0.4959 -0.3888  0.3464
 4778SOL     OW26312   5.868   1.019  10.702 -0.5437  0.1428  0.3662
 4778SOL    HW126313   5.837   1.097  10.747  0.3258  0.5398  0.3002
 4778SOL    HW226314   5.789   0.979  10.665 -0.9037  1.4153 -0.2897
 4779SOL     OW26315   5.113   8.190   4.114  0.1200 -0.3237  0.0246
 4779SOL    HW126316   5.082   8.229   4.196 -2.2434 -0.6155 -0.6663
 4779SOL    HW226317   5.208   8.191   4.123 -0.0175  0.5854  2.3312
 4780SOL     OW26318   3.423   8.718   9.519  0.4045  0.5719  0.2687
 4780SOL    HW126319   3.383   8.805   9.523 -0.2480  0.2573  0.9460
 4780SOL    HW226320   3.380   8.675   9.445 -1.6196 -0.2570  1.8237
 4781SOL     OW26321   2.492  11.659   8.654  0.4835  0.3663 -0.0951
 4781SOL    HW126322   2.539  11.644   8.572  0.7745  1.9403 -0.2563
 4781SOL    HW226323   2.470  11.572   8.686  2.0641 -0.3617 -0.8646
 4782SOL     OW26324   5.896   4.117   2.938 -0.5212  0.2131 -0.5301
 4782SOL    HW126325   5.953   4.039   2.935 -0.8114 -0.0356  0.1390
 4782SOL    HW226326   5.811   4.086   2.907 -1.0807 -0.1652  1.2232
 4783SOL     OW26327   8.249   6.902   4.422 -0.4558 -0.6550  0.2909
 4783SOL    HW126328   8.277   6.992   4.405 -0.9416 -0.4579  0.5143
 4783SOL    HW226329   8.299   6.875   4.499  0.3826 -0.9059 -0.3332
 4784SOL     OW26330   9.572  11.581   9.614  0.1057 -0.3109  0.5999
 4784SOL    HW126331   9.635  11.605   9.546 -1.4280  2.6599  0.0644
 4784SOL    HW226332   9.502  11.535   9.568 -1.5908  2.8638 -0.2708
 4785SOL     OW26333   8.157   6.786   5.632  0.1181 -0.0750  0.0378
 4785SOL    HW126334   8.146   6.775   5.537  0.5073 -0.9405  0.0904
 4785SOL    HW226335   8.192   6.875   5.641 -1.8036  0.7912 -0.4805
 4786SOL     OW26336   0.969  12.996   6.079  0.3015 -0.2705 -0.1425
 4786SOL    HW126337   0.913  13.027   6.008 -0.2835 -0.1447  0.3651
 4786SOL    HW226338   1.055  13.031   6.058  0.2927 -0.8419 -1.1658
 4787SOL     OW26339   5.695   6.051   0.045 -0.3841  0.4780 -0.3447
 4787SOL    HW126340   5.789   6.070   0.035 -0.4715  0.4586 -1.3800
 4787SOL    HW226341   5.652   6.134   0.026 -0.6075  0.2476 -0.8634
 4788SOL     OW26342  11.007   4.570  12.334 -0.4764 -0.0181  0.5087
 4788SOL    HW126343  11.026   4.633  12.265 -0.5364  0.6394  1.0819
 4788SOL    HW226344  10.917   4.591  12.361 -1.2935 -1.6824 -0.6919
 4789SOL     OW26345  13.055   6.712   0.302  0.3015  0.3196  0.0483
 4789SOL    HW126346  12.999   6.672   0.368 -0.5203  0.9827 -0.2315
 4789SOL    HW226347  13.071   6.642   0.239  1.7797 -0.5650  1.3372
 4790SOL     OW26348   0.495  12.292   1.506  0.2182 -0.4219 -0.5538
 4790SOL    HW126349   0.527  12.241   1.431  1.2342 -0.4722 -0.1127
 4790SOL    HW226350   0.570  12.347   1.530  0.1796 -0.9587  0.8940
 4791SOL     OW26351   7.044   6.392   3.553  0.3862  0.3960 -0.5079
 4791SOL    HW126352   7.019   6.367   3.464 -0.5800  2.6354 -0.9372
 4791SOL    HW226353   6.964   6.428   3.592  0.9258 -0.0203  1.0972
 4792SOL     OW26354   5.785   9.370   7.955  0.1389  0.4450  0.5941
 4792SOL    HW126355   5.860   9.389   7.900  0.6076  0.3817  1.1982
 4792SOL    HW226356   5.789   9.275   7.970 -2.1261 -0.2697 -2.3260
 4793SOL     OW26357  10.554   0.773   9.356 -0.2440  0.5311 -0.5213
 4793SOL    HW126358  10.608   0.700   9.387  0.9404  1.7152  0.3647
 4793SOL    HW226359  10.617   0.834   9.317 -1.2565  0.8865 -1.6303
 4794SOL     OW26360   6.753   5.646  10.200 -0.2187  0.1804  0.3575
 4794SOL    HW126361   6.775   5.737  10.222 -0.1278  0.4603 -0.8166
 4794SOL    HW226362   6.823   5.594  10.241  1.3023  0.8715 -1.2271
 4795SOL     OW26363   9.596   9.220   8.080  0.4476  0.1456  0.3220
 4795SOL    HW126364   9.660   9.270   8.130 -0.7430  2.0936  0.0165
 4795SOL    HW226365   9.514   9.230   8.128 -0.2425  0.1349 -0.8031
 4796SOL     OW26366   1.977   4.118  13.630 -0.1666  0.1181 -0.0656
 4796SOL    HW126367   2.054   4.172  13.611  0.6949 -0.1463  2.3258
 4796SOL    HW226368   1.983   4.045  13.568  1.3875  0.2509 -0.1200
 4797SOL     OW26369   2.803   3.956   8.869 -0.3028 -0.2047 -0.3491
 4797SOL    HW126370   2.803   3.908   8.786  0.1247  0.6167 -0.8320
 4797SOL    HW226371   2.725   4.011   8.865  0.1816  0.4714 -0.5851
 4798SOL     OW26372   8.438   5.122   6.672 -0.0151  0.5116  0.8036
 4798SOL    HW126373   8.529   5.098   6.690  0.4992  0.0997 -1.8819
 4798SOL    HW226374   8.387   5.043   6.694  0.1348  0.9090  2.8016
 4799SOL     OW26375   9.482  10.521  12.820  0.2743  0.0564 -0.0406
 4799SOL    HW126376   9.507  10.431  12.796 -1.1854 -0.2622 -0.5056
 4799SOL    HW226377   9.516  10.575  12.749  0.6504 -0.2049 -0.0618
 4800SOL     OW26378   7.906   5.659  11.677  0.8140  0.5819 -0.0789
 4800SOL    HW126379   7.984   5.629  11.630  0.5107  0.9005 -0.8053
 4800SOL    HW226380   7.833   5.623  11.626  0.4785  0.3421  0.5560
 4801SOL     OW26381   6.268  10.296   5.865 -0.0828  0.1029  0.7721
 4801SOL    HW126382   6.293  10.316   5.774 -2.7198  0.2252 -0.0110
 4801SOL    HW226383   6.265  10.382   5.908  0.0995  0.1560  0.6808
 4802SOL     OW26384   8.772   3.312  13.419  1.0531  0.1481  0.4361
 4802SOL    HW126385   8.773   3.292  13.512  1.6993  0.0456  0.4153
 4802SOL    HW226386   8.774   3.407  13.415  1.2561  0.1485  0.5293
 4803SOL     OW26387  12.286  12.728   0.672 -0.7496  0.3003  0.4628
 4803SOL    HW126388  12.205  12.738   0.623 -0.3290 -0.1527 -0.3332
 4803SOL    HW226389  12.288  12.636   0.696 -0.7108  0.4159  0.9173
 4804SOL     OW26390  13.556   5.812  12.801 -0.9788 -0.1109 -0.2113
 4804SOL    HW126391  13.587   5.807  12.711 -2.8031  1.3319 -1.0031
 4804SOL    HW226392  13.482   5.751  12.805 -1.5503  0.5745 -0.0121
 4805SOL     OW26393   9.941   1.187   7.627 -0.1729 -0.2410  0.1710
 4805SOL    HW126394   9.931   1.111   7.570  1.5438 -0.1828 -0.2606
 4805SOL    HW226395   9.879   1.172   7.698 -0.9843 -1.2584 -0.7131
 4806SOL     OW26396  13.046   1.909   2.763  1.0671  0.0859 -0.6412
 4806SOL    HW126397  13.093   1.826   2.758  0.3685 -0.2669 -1.4624
 4806SOL    HW226398  13.019   1.915   2.855 -0.0036 -1.2395 -0.8397
 4807SOL     OW26399   0.595   5.126   1.775 -0.8878  0.3473 -0.2421
 4807SOL    HW126400   0.568   5.215   1.798  0.0777  0.6471 -0.2035
 4807SOL    HW226401   0.647   5.137   1.695 -1.0684 -0.2304 -0.4429
 4808SOL     OW26402   9.271   5.582   9.831  0.2255 -0.2362  0.3743
 4808SOL    HW126403   9.363   5.571   9.855 -0.2310 -2.7952  1.2281
 4808SOL    HW226404   9.253   5.674   9.849  2.3328  0.0650  1.2590
 4809SOL     OW26405  12.313   1.437   8.421  0.1947  0.2136  0.0074
 4809SOL    HW126406  12.242   1.432   8.485 -0.2549 -0.1033 -0.5055
 4809SOL    HW226407  12.271   1.474   8.342  0.4508 -0.5639 -0.5014
 4810SOL     OW26408   2.095   4.724   1.938  0.0515  0.3819  0.0266
 4810SOL    HW126409   2.004   4.695   1.937 -0.5976  2.3434 -0.8931
 4810SOL    HW226410   2.093   4.811   1.977  1.4144  0.7759 -0.7032
 4811SOL     OW26411   3.472  12.260   9.078  0.6331  0.2632 -0.3877
 4811SOL    HW126412   3.488  12.290   9.168 -0.8797 -0.6018  0.2336
 4811SOL    HW226413   3.508  12.171   9.076 -1.6006 -0.7531  0.2687
 4812SOL     OW26414   3.946  10.588   1.905 -0.2260 -0.2686 -0.1844
 4812SOL    HW126415   3.855  10.572   1.930  0.2493 -1.6432  0.8101
 4812SOL    HW226416   3.989  10.503   1.916  1.3197  0.5063  0.0180
 4813SOL     OW26417   0.360   4.731   8.379  0.3758  0.4145  0.2301
 4813SOL    HW126418   0.274   4.697   8.404 -0.0035  0.6188 -0.7247
 4813SOL    HW226419   0.422   4.663   8.405 -0.4353 -1.4814 -2.3425
 4814SOL     OW26420   2.455   7.837  12.476 -0.4877  0.1950 -0.2709
 4814SOL    HW126421   2.522   7.898  12.444 -0.1745 -0.3826 -0.7453
 4814SOL    HW226422   2.383   7.893  12.505  0.8887  0.9544  1.9626
 4815SOL     OW26423  13.327   4.185   9.280 -0.0586  0.3973 -0.3351
 4815SOL    HW126424  13.280   4.268   9.295  0.2615  0.3642  1.0553
 4815SOL    HW226425  13.259   4.118   9.282 -0.3850  0.6406 -1.9532
 4816SOL     OW26426   2.712  10.789  13.281  0.5019 -0.2416 -0.9188
 4816SOL    HW126427   2.646  10.779  13.350  0.6067 -0.8847 -0.9097
 4816SOL    HW226428   2.697  10.878  13.247  0.9081  0.3613  0.4066
 4817SOL     OW26429   8.901  13.461  10.831  0.0028  0.2891 -0.7701
 4817SOL    HW126430   8.975  13.402  10.816 -0.4436 -0.5394  0.1147
 4817SOL    HW226431   8.929  13.545  10.797  1.9116  0.3491  0.7837
 4818SOL     OW26432   8.804   6.149   9.866  0.0993  0.5135  0.1924
 4818SOL    HW126433   8.849   6.086   9.809 -1.3152 -1.0408  0.6871
 4818SOL    HW226434   8.758   6.094   9.930 -1.4572  2.0630  0.4695
 4819SOL     OW26435  10.348   0.119   7.250  0.3142  1.1047 -0.2843
 4819SOL    HW126436  10.408   0.119   7.325  0.9755  0.0030 -0.7933
 4819SOL    HW226437  10.392   0.173   7.184  0.7247  0.3708 -0.6245
 4820SOL     OW26438  12.348   0.894  10.081 -0.2059 -0.0483  0.3227
 4820SOL    HW126439  12.357   0.989  10.084 -0.4391 -0.0049 -0.1973
 4820SOL    HW226440  12.254   0.878  10.082 -0.1923 -0.4177  3.4193
 4821SOL     OW26441  12.204   0.089  11.018  0.3145  0.2729  0.3327
 4821SOL    HW126442  12.217   0.165  11.075  2.0028  0.1313  0.2039
 4821SOL    HW226443  12.293   0.065  10.991  0.0165 -2.8008  1.6965
 4822SOL     OW26444   0.764   9.893   8.384  0.4119  0.2224  0.5364
 4822SOL    HW126445   0.781   9.985   8.365  0.2026  0.0940 -0.2903
 4822SOL    HW226446   0.808   9.845   8.314 -0.8876 -0.2317 -0.0129
 4823SOL     OW26447   3.675   5.274   1.015  0.5273  0.2187  0.4227
 4823SOL    HW126448   3.689   5.210   1.085 -0.0592 -0.4369 -0.0428
 4823SOL    HW226449   3.580   5.277   1.004  0.5914  0.6095 -0.0820
 4824SOL     OW26450   6.091   9.296   5.053  0.4366 -0.1025  0.4423
 4824SOL    HW126451   6.142   9.376   5.067  0.4294 -0.0010 -0.0787
 4824SOL    HW226452   6.156   9.226   5.051  0.8639  0.2307 -2.2518
 4825SOL     OW26453   5.875   3.524   0.335  0.3387  0.1099 -0.1206
 4825SOL    HW126454   5.821   3.545   0.411  0.5368  1.2385 -0.2688
 4825SOL    HW226455   5.848   3.587   0.268 -2.6365 -3.2001 -2.4094
 4826SOL     OW26456  12.642  13.158   7.115 -0.2163 -0.6078 -0.0264
 4826SOL    HW126457  12.668  13.172   7.206  0.9662 -0.5937 -0.3503
 4826SOL    HW226458  12.687  13.078   7.088  1.4820  0.7093 -1.3273
 4827SOL     OW26459  11.058   3.928   0.662  0.6972 -0.4874 -0.2053
 4827SOL    HW126460  11.140   3.938   0.709  0.9080 -2.9671  0.0942
 4827SOL    HW226461  11.050   3.833   0.648 -2.0284 -0.3041 -0.3722
 4828SOL     OW26462   3.532  11.997  11.761 -0.5359 -0.0400 -0.1924
 4828SOL    HW126463   3.595  12.068  11.747 -1.7601  1.2567  0.6748
 4828SOL    HW226464   3.488  12.019  11.843 -0.6960 -2.0138  0.3128
 4829SOL     OW26465  11.533  12.150   9.500 -0.2884 -0.3564 -0.1892
 4829SOL    HW126466  11.485  12.216   9.450 -0.9526 -1.2273 -0.7382
 4829SOL    HW226467  11.624  12.162   9.474 -0.3599  0.5286 -0.0562
 4830SOL     OW26468   1.426  10.225  13.371 -0.3435 -0.2216 -0.5414
 4830SOL    HW126469   1.468  10.148  13.331 -0.6517 -1.7045  1.7891
 4830SOL    HW226470   1.497  10.288  13.380  0.0585 -0.4213 -1.9448
 4831SOL     OW26471   5.322  12.399   4.496 -0.2726  0.1442 -0.1392
 4831SOL    HW126472   5.321  12.311   4.535  0.7482 -0.1490 -0.7229
 4831SOL    HW226473   5.372  12.452   4.558  0.2100 -0.0078 -0.3871
 4832SOL     OW26474  10.047   6.998   2.777 -0.0106  0.3696 -0.5160
 4832SOL    HW126475  10.015   6.978   2.865  1.0813  1.7732  0.2537
 4832SOL    HW226476  10.118   6.935   2.763 -0.8578 -0.5291 -0.8328
 4833SOL     OW26477  12.037   7.119  13.906  0.2560 -0.4768 -0.7489
 4833SOL    HW126478  11.958   7.117  13.852 -0.0335  0.5481 -0.3907
 4833SOL    HW226479  12.104   7.156  13.849  0.1485 -0.1301 -0.6506
 4834SOL     OW26480   6.692  13.351   8.948  0.1596 -0.0833  0.0142
 4834SOL    HW126481   6.714  13.398   9.029  0.4043 -0.2117  0.0230
 4834SOL    HW226482   6.620  13.402   8.910  1.0992  0.9089 -0.5117
 4835SOL     OW26483   0.047   9.864  10.104  0.3197 -0.4847 -0.0008
 4835SOL    HW126484   0.134   9.861  10.064 -0.2131 -0.6612 -1.1826
 4835SOL    HW226485  -0.010   9.821  10.040 -0.6271 -0.4191  0.7850
 4836SOL     OW26486   9.940  11.225  12.076  0.3920  0.1586  0.1576
 4836SOL    HW126487   9.980  11.196  11.994 -1.3972  0.3764 -0.8605
 4836SOL    HW226488   9.875  11.290  12.049 -0.2791  0.1890  1.7441
 4837SOL     OW26489  10.508   5.655   2.630 -0.4948 -0.3569  0.3113
 4837SOL    HW126490  10.434   5.611   2.672 -1.1356  0.6862  0.3186
 4837SOL    HW226491  10.468   5.723   2.575  0.4187 -0.3870 -0.4257
 4838SOL     OW26492  13.958   5.989   7.555  0.4681 -0.1178  0.1765
 4838SOL    HW126493  14.004   6.014   7.635  0.8634 -1.1364  0.2776
 4838SOL    HW226494  13.910   5.910   7.577  0.6194 -0.4403 -0.5979
 4839SOL     OW26495   1.050   8.380   3.922  0.1350 -0.6527  0.8643
 4839SOL    HW126496   1.076   8.331   4.000  0.7075 -0.8918  0.5246
 4839SOL    HW226497   1.091   8.466   3.932  0.1208 -0.6474  0.8763
 4840SOL     OW26498   9.048   9.592  10.196  0.1023  0.3240  0.5012
 4840SOL    HW126499   9.060   9.539  10.275 -0.6716 -1.4318 -0.4994
 4840SOL    HW226500   8.957   9.621  10.200 -0.8743 -2.1892 -1.0602
 4841SOL     OW26501   9.472  11.705   0.407  0.0922 -0.0648  0.0030
 4841SOL    HW126502   9.563  11.734   0.408  0.0497  0.0612  0.3400
 4841SOL    HW226503   9.429  11.758   0.474  0.0758 -1.0836  0.8330
 4842SOL     OW26504  10.332   8.849  10.239  0.1244 -0.2923  0.8256
 4842SOL    HW126505  10.254   8.834  10.185  1.0813  0.1856 -0.7771
 4842SOL    HW226506  10.403   8.805  10.191  1.0768  0.4612  1.4987
 4843SOL     OW26507   5.058   9.986   4.720 -0.0922  0.6789 -0.0957
 4843SOL    HW126508   5.101  10.068   4.693 -0.4445  0.8171 -0.2422
 4843SOL    HW226509   5.025  10.004   4.808  1.4161  0.0936  0.6265
 4844SOL     OW26510   3.439  10.711   1.654  0.1275 -0.0304  0.3061
 4844SOL    HW126511   3.458  10.736   1.563 -2.4306  0.4256 -0.1559
 4844SOL    HW226512   3.520  10.669   1.684  1.4246  0.8015 -1.8022
 4845SOL     OW26513  12.838   0.583   7.582 -0.7596  0.0173  0.0093
 4845SOL    HW126514  12.899   0.622   7.644  2.4956 -1.9385 -1.6848
 4845SOL    HW226515  12.752   0.602   7.618  0.7539  3.3551  2.3646
 4846SOL     OW26516   2.017   2.261   2.691 -0.4698 -0.0211 -0.2660
 4846SOL    HW126517   2.050   2.189   2.745  0.6909  0.5812 -0.1489
 4846SOL    HW226518   1.983   2.324   2.755 -0.5943 -0.0296 -0.3238
 4847SOL     OW26519  12.626   6.177   6.031 -0.0397  0.1122  0.0246
 4847SOL    HW126520  12.586   6.264   6.031  0.2010  0.2235 -0.0686
 4847SOL    HW226521  12.668   6.169   5.946 -2.9678 -1.4514 -1.4215
 4848SOL     OW26522   0.443  11.168   2.299  0.1874  0.6168  0.5132
 4848SOL    HW126523   0.531  11.131   2.291  0.0800  0.4880 -0.0555
 4848SOL    HW226524   0.385  11.101   2.265 -0.1613  0.5832  1.1608
 4849SOL     OW26525  13.529   2.446   7.775  0.1003 -0.0644  0.2084
 4849SOL    HW126526  13.545   2.515   7.839  1.3410 -0.0236 -0.1095
 4849SOL    HW226527  13.541   2.488   7.690  0.9559 -0.6752  0.0160
 4850SOL     OW26528   9.401   5.636  12.222  0.1762 -0.2964  0.1369
 4850SOL    HW126529   9.326   5.684  12.186  0.0504 -0.9329 -0.4598
 4850SOL    HW226530   9.471   5.701  12.227  0.0279 -0.0647 -0.7388
 4851SOL     OW26531   6.646  12.928   1.037  0.4379  0.6827 -0.3366
 4851SOL    HW126532   6.654  12.837   1.011 -0.8647  0.4427  0.0065
 4851SOL    HW226533   6.679  12.978   0.962 -1.3371 -0.0298 -1.6732
 4852SOL     OW26534  12.042  14.029   1.842 -0.1313  0.7534  0.2032
 4852SOL    HW126535  12.096  13.982   1.778  1.1402 -0.8485  2.3561
 4852SOL    HW226536  11.957  14.039   1.798  1.0933  1.0252 -2.2639
 4853SOL     OW26537   3.803   0.260   4.564 -0.0303  0.3726  0.2407
 4853SOL    HW126538   3.714   0.276   4.531  0.2717  2.0392  0.1278
 4853SOL    HW226539   3.790   0.219   4.649 -0.9021  0.1982  0.0363
 4854SOL     OW26540   6.164   7.639   9.725 -0.1646  0.2201 -0.2244
 4854SOL    HW126541   6.155   7.708   9.660 -1.2430 -1.2874 -1.7524
 4854SOL    HW226542   6.138   7.559   9.679  0.5661 -1.1426  1.6144
 4855SOL     OW26543  11.419  12.881   7.852  0.0753 -0.0511  0.0613
 4855SOL    HW126544  11.412  12.797   7.807  0.7940 -0.0104 -0.1418
 4855SOL    HW226545  11.480  12.864   7.925  1.4831  0.6573 -0.9116
 4856SOL     OW26546   4.086   0.874   8.163 -0.1763 -0.5073 -0.0789
 4856SOL    HW126547   4.015   0.832   8.115 -2.2873  2.8635 -0.2234
 4856SOL    HW226548   4.133   0.925   8.097 -1.7914  2.4680  0.8989
 4857SOL     OW26549   9.780   2.147   4.263  0.0750 -0.1070 -0.2893
 4857SOL    HW126550   9.721   2.124   4.192  1.1607 -0.5397 -1.0820
 4857SOL    HW226551   9.734   2.215   4.311 -1.1812 -0.6241 -0.7053
 4858SOL     OW26552  11.377  13.104   5.527  0.3716  0.3770  0.0264
 4858SOL    HW126553  11.456  13.077   5.575  1.0321 -0.4137 -1.4334
 4858SOL    HW226554  11.402  13.096   5.435 -1.7871 -0.9824 -0.4900
 4859SOL     OW26555   8.669   9.797   0.949  0.1650  0.8867  0.1912
 4859SOL    HW126556   8.762   9.805   0.970  0.2843  2.3730 -0.7648
 4859SOL    HW226557   8.624   9.826   1.027  0.5466  1.9823  0.0226
 4860SOL     OW26558  11.258  13.361   7.673 -0.5669 -0.2710 -0.1056
 4860SOL    HW126559  11.193  13.327   7.734 -0.6294 -0.8822 -0.5083
 4860SOL    HW226560  11.241  13.455   7.670 -0.6250 -0.2481  0.7400
 4861SOL     OW26561   7.717  13.910   3.052  0.4231  0.2559 -0.1504
 4861SOL    HW126562   7.715  13.836   2.990  0.5922  1.5304 -1.7287
 4861SOL    HW226563   7.768  13.877   3.126 -0.7366 -1.7018 -0.1273
 4862SOL     OW26564   1.582   5.661  11.045  0.0895 -0.3339  1.0883
 4862SOL    HW126565   1.497   5.704  11.050  0.4546  0.3851  1.2845
 4862SOL    HW226566   1.581   5.616  10.961 -0.2843  0.1168  0.8449
 4863SOL     OW26567   3.265   1.825   9.625 -0.2885  0.2483 -0.3998
 4863SOL    HW126568   3.357   1.843   9.644 -0.9577  1.5376  2.0645
 4863SOL    HW226569   3.256   1.730   9.639  0.7156  0.0226 -1.1362
 4864SOL     OW26570   2.000   0.895   8.008 -0.0218  0.0992 -0.0118
 4864SOL    HW126571   2.052   0.817   7.991 -1.4263 -1.3337  1.8888
 4864SOL    HW226572   2.061   0.968   7.996  2.5932 -1.4835  2.6233
 4865SOL     OW26573  13.759   6.681   5.489  0.0742 -0.1901 -0.2660
 4865SOL    HW126574  13.851   6.665   5.508 -0.3031 -1.8236  0.3891
 4865SOL    HW226575  13.719   6.696   5.575 -0.2084  0.9523 -0.5811
 4866SOL     OW26576   3.593   2.595   1.591 -0.1279 -0.1508  0.3617
 4866SOL    HW126577   3.590   2.584   1.686 -0.8540  0.0212  0.3593
 4866SOL    HW226578   3.505   2.574   1.562  0.1677 -0.4765 -0.3086
 4867SOL     OW26579   7.115   0.738   9.523 -0.1923 -0.5653  0.6272
 4867SOL    HW126580   7.076   0.750   9.609  0.4249 -1.0899  0.9942
 4867SOL    HW226581   7.209   0.750   9.537 -0.2316  1.1432 -0.3272
 4868SOL     OW26582  10.193  13.732   4.464  0.3710 -0.1488 -0.1496
 4868SOL    HW126583  10.210  13.779   4.383  4.0526 -0.1601  0.4364
 4868SOL    HW226584  10.157  13.798   4.523 -1.6997  0.0089 -1.4932
 4869SOL     OW26585   1.906   3.329   8.398 -0.7802  0.4645  0.3366
 4869SOL    HW126586   1.909   3.334   8.302  1.7593  0.7970  0.3683
 4869SOL    HW226587   1.889   3.418   8.426  0.0420  0.6747  0.1950
 4870SOL     OW26588   4.060   6.082   6.937  0.7937  0.3979 -0.1953
 4870SOL    HW126589   3.984   6.094   6.879  1.1495 -0.0663 -0.7740
 4870SOL    HW226590   4.069   5.987   6.945  1.2664  0.4528 -0.0668
 4871SOL     OW26591   8.023   9.847   9.872  0.2183 -0.3154 -0.2990
 4871SOL    HW126592   8.022   9.882   9.961  1.5101 -0.5070 -0.1869
 4871SOL    HW226593   7.943   9.881   9.831 -0.2260  0.0336  0.8257
 4872SOL     OW26594  12.778   7.463   6.908 -0.0338 -0.0426  0.0784
 4872SOL    HW126595  12.710   7.452   6.975  0.7913 -1.9038  0.7004
 4872SOL    HW226596  12.785   7.377   6.867  0.0641  0.8469 -1.8808
 4873SOL     OW26597   2.115  10.019   3.715 -0.1170  0.1385 -0.1727
 4873SOL    HW126598   2.211  10.012   3.719  0.1710  0.5867 -3.4659
 4873SOL    HW226599   2.091   9.970   3.636 -2.6708 -0.0729  0.6492
 4874SOL     OW26600   1.366  11.358   0.048 -0.0001 -0.9894  0.0864
 4874SOL    HW126601   1.417  11.374   0.128  0.8709 -0.9603 -0.4655
 4874SOL    HW226602   1.323  11.274   0.065 -0.3129 -0.6909  0.8273
 4875SOL     OW26603   3.560   5.111   2.546 -0.3987  0.5488 -0.1400
 4875SOL    HW126604   3.639   5.149   2.586  0.7092  0.3714 -2.0064
 4875SOL    HW226605   3.491   5.174   2.565  0.8106  2.1637 -0.8014
 4876SOL     OW26606   5.564   7.119  13.371 -0.6573  0.2589 -0.3164
 4876SOL    HW126607   5.646   7.119  13.420 -0.1480  0.4531 -1.1435
 4876SOL    HW226608   5.495   7.120  13.438  0.0151  0.5543  0.3811
 4877SOL     OW26609  13.412   2.564   2.969  0.3193  0.2414 -0.1570
 4877SOL    HW126610  13.322   2.537   2.954  0.3112  0.2211 -0.0759
 4877SOL    HW226611  13.460   2.535   2.892  0.5017 -0.9013  0.3622
 4878SOL     OW26612   6.299  12.641   9.969  0.0215  0.0622 -0.5728
 4878SOL    HW126613   6.328  12.710  10.029  0.0803  1.4704 -2.1311
 4878SOL    HW226614   6.334  12.560  10.006 -0.7883  0.7194  1.7951
 4879SOL     OW26615  11.491   3.380   7.081  0.0762  0.0516  0.0391
 4879SOL    HW126616  11.492   3.412   7.171 -2.5761  0.8915 -0.1526
 4879SOL    HW226617  11.551   3.438   7.034 -0.5635  1.3367  0.7668
 4880SOL     OW26618  10.921   6.232   2.757  0.2822 -0.1096 -0.1751
 4880SOL    HW126619  10.888   6.301   2.700  1.8464  0.5102 -0.3838
 4880SOL    HW226620  10.844   6.178   2.776 -0.7024  0.8997 -1.1094
 4881SOL     OW26621  13.935   8.175   0.760 -0.1324  0.0894  0.2734
 4881SOL    HW126622  14.012   8.206   0.713 -0.5561  0.8066  0.0280
 4881SOL    HW226623  13.967   8.152   0.847  0.3127  0.6530  0.2631
 4882SOL     OW26624  12.444  11.830   5.322  0.3850  0.3628 -0.2154
 4882SOL    HW126625  12.370  11.777   5.293 -0.1256  0.1955  1.2955
 4882SOL    HW226626  12.518  11.769   5.327  0.2618  0.2058 -0.3137
 4883SOL     OW26627   5.307   6.178  10.987  0.0646  0.5526  0.1622
 4883SOL    HW126628   5.214   6.182  11.011 -0.5804 -2.6076 -1.2276
 4883SOL    HW226629   5.307   6.182  10.891  0.8115 -3.3111 -0.1629
 4884SOL     OW26630   9.057   7.891  13.209 -0.3903 -0.1604  0.0643
 4884SOL    HW126631   9.149   7.871  13.190 -0.1037  1.4750 -0.4770
 4884SOL    HW226632   9.039   7.845  13.291  0.7077 -1.0468 -0.1638
 4885SOL     OW26633   3.505  13.533  10.667 -0.2946  0.5183  0.1059
 4885SOL    HW126634   3.439  13.467  10.687 -0.2944  0.4396 -0.1446
 4885SOL    HW226635   3.464  13.616  10.688 -1.1393  0.6081 -1.7428
 4886SOL     OW26636   5.791   4.958   7.618  0.1654  0.7134 -0.2461
 4886SOL    HW126637   5.746   4.902   7.681 -0.5897  2.0542  0.4656
 4886SOL    HW226638   5.790   4.909   7.536 -1.1150 -0.0038  0.1771
 4887SOL     OW26639   5.590  10.455   1.536 -0.2698 -0.2359 -0.1433
 4887SOL    HW126640   5.499  10.471   1.562  0.3887  0.9992  1.6804
 4887SOL    HW226641   5.616  10.378   1.587 -0.3590 -0.7432 -0.8584
 4888SOL     OW26642   0.439  13.563  10.891 -0.2821 -0.1029  0.1875
 4888SOL    HW126643   0.472  13.552  10.801  0.4886  0.9781  0.3270
 4888SOL    HW226644   0.512  13.537  10.947 -0.3078  0.4834  0.4994
 4889SOL     OW26645   4.306   3.937  12.001  0.6863  0.0394  0.1366
 4889SOL    HW126646   4.348   3.919  11.917 -0.5976  0.4492 -0.6201
 4889SOL    HW226647   4.271   4.026  11.992 -0.2524 -0.2525  0.7642
 4890SOL     OW26648  12.170   5.446  11.974  0.7554 -0.2220  0.8292
 4890SOL    HW126649  12.233   5.515  11.995  0.3988 -0.0890  1.4985
 4890SOL    HW226650  12.084   5.489  11.982  0.5650 -0.5069  0.3494
 4891SOL     OW26651  13.942   4.307   4.390 -0.2217 -0.3141 -0.5030
 4891SOL    HW126652  13.904   4.279   4.474  0.2364 -1.7695 -0.7545
 4891SOL    HW226653  13.866   4.323   4.334 -0.5121 -0.8947 -0.2867
 4892SOL     OW26654   0.833   6.972   9.566  0.5081 -0.7162 -0.3756
 4892SOL    HW126655   0.830   6.960   9.471  0.3159 -1.8183 -0.2446
 4892SOL    HW226656   0.821   6.884   9.602 -0.5760 -0.1645  0.6929
 4893SOL     OW26657  10.180   2.026   5.603  0.4277  0.0070  0.3565
 4893SOL    HW126658  10.097   2.074   5.594  0.0001 -0.6965  0.4925
 4893SOL    HW226659  10.168   1.947   5.551  1.4284  0.4068 -0.5190
 4894SOL     OW26660  10.255   5.281   9.561  0.0427  0.3327  0.8665
 4894SOL    HW126661  10.281   5.332   9.485 -2.8262 -0.6156 -0.9061
 4894SOL    HW226662  10.334   5.235   9.588  1.5762  2.1545 -0.3033
 4895SOL     OW26663   3.411   5.736  13.193  0.0077  0.1778 -0.0147
 4895SOL    HW126664   3.494   5.742  13.146 -0.5191 -0.0684 -0.9861
 4895SOL    HW226665   3.436   5.715  13.283  0.9924  0.0268 -0.3172
 4896SOL     OW26666   9.300  13.663   1.542 -0.1736  0.5237 -0.2436
 4896SOL    HW126667   9.218  13.643   1.587  0.3091 -1.9819 -0.3139
 4896SOL    HW226668   9.303  13.600   1.469  2.1960 -0.0587  0.2787
 4897SOL     OW26669  12.623   6.816   2.907  0.1047  0.2490  0.3295
 4897SOL    HW126670  12.716   6.804   2.922 -0.1044 -2.0207  0.1123
 4897SOL    HW226671  12.588   6.845   2.991  0.8123 -0.1679  0.7773
 4898SOL     OW26672  13.205   9.515   2.801  0.2720  0.2151  0.0631
 4898SOL    HW126673  13.277   9.560   2.756  0.8539 -0.6242  0.1174
 4898SOL    HW226674  13.167   9.581   2.858  0.4938  0.8905 -0.5516
 4899SOL     OW26675   1.373   4.698   4.082  0.1583  0.2454  0.1267
 4899SOL    HW126676   1.376   4.609   4.118 -1.3479 -1.4202 -3.3970
 4899SOL    HW226677   1.295   4.699   4.027  1.0487  3.2382 -1.2887
 4900SOL     OW26678   4.861  11.292   5.860 -0.4536 -0.1232 -0.3851
 4900SOL    HW126679   4.903  11.215   5.897 -0.2351 -0.3816 -1.1401
 4900SOL    HW226680   4.768  11.278   5.872 -0.4873 -1.0497 -1.5012
 4901SOL     OW26681   6.860   9.742   3.338  0.2717  0.2396  0.4788
 4901SOL    HW126682   6.790   9.677   3.336 -0.0223  0.5588  0.2883
 4901SOL    HW226683   6.833   9.808   3.274  1.3261 -0.2217 -0.4858
 4902SOL     OW26684   7.449   7.547  10.008  1.0616 -0.2935  0.3144
 4902SOL    HW126685   7.365   7.554   9.962  0.3516 -0.7666  1.4953
 4902SOL    HW226686   7.496   7.477   9.963  0.8431 -0.0053 -0.3741
 4903SOL     OW26687  11.106  11.280  12.039  0.0222  1.0765 -0.2692
 4903SOL    HW126688  11.177  11.286  12.103  0.7501  0.0929 -0.9640
 4903SOL    HW226689  11.046  11.216  12.076 -0.0875  1.2799 -0.0874
 4904SOL     OW26690  11.125  10.886   9.865  0.2091  0.1407 -0.2566
 4904SOL    HW126691  11.086  10.945   9.930  1.8318  0.8188  0.1455
 4904SOL    HW226692  11.131  10.802   9.911 -0.6305  0.0499 -0.2873
 4905SOL     OW26693   3.320   4.004  12.419 -0.2520  0.0259 -0.1977
 4905SOL    HW126694   3.347   4.089  12.383 -0.9183 -0.8642 -3.0682
 4905SOL    HW226695   3.265   4.026  12.494  1.2560  2.0412  0.4091
 4906SOL     OW26696   1.984  10.096   4.110 -0.4076  0.8244 -0.2328
 4906SOL    HW126697   2.014  10.147   4.184  0.0262  1.6539 -0.9650
 4906SOL    HW226698   2.058  10.095   4.049 -0.8078  0.2973 -0.7306
 4907SOL     OW26699   1.244  13.676  13.085  0.8407  0.2042 -0.7628
 4907SOL    HW126700   1.209  13.657  12.998  1.7361 -0.3476 -1.0173
 4907SOL    HW226701   1.221  13.599  13.137 -1.7076  1.4804  0.1583
 4908SOL     OW26702   0.348  13.487   0.257 -0.3966  0.4907 -0.8932
 4908SOL    HW126703   0.387  13.574   0.262 -0.7903  0.6387 -0.1712
 4908SOL    HW226704   0.391  13.445   0.183  0.7985  0.8031 -0.4034
 4909SOL     OW26705  11.939   5.192   6.916 -0.0853  0.2728  0.6913
 4909SOL    HW126706  11.880   5.220   6.846 -0.8728  1.2837  1.7417
 4909SOL    HW226707  12.020   5.240   6.899  0.5536 -1.2085 -0.8216
 4910SOL     OW26708   4.352   3.028  12.494 -0.2918  0.3080  0.5683
 4910SOL    HW126709   4.313   2.951  12.536 -0.7608  0.0991 -0.2379
 4910SOL    HW226710   4.286   3.096  12.502 -0.0166  0.5354  0.9675
 4911SOL     OW26711   3.387   0.340   2.467  0.0543 -0.6323  0.0028
 4911SOL    HW126712   3.473   0.378   2.482  1.4094 -3.7015  0.7588
 4911SOL    HW226713   3.388   0.313   2.375  1.0406 -3.0698  0.6618
 4912SOL     OW26714   0.758   1.962   5.966  0.1935 -0.2478 -0.4894
 4912SOL    HW126715   0.775   1.876   5.927  2.3742  0.0170 -0.2709
 4912SOL    HW226716   0.690   2.000   5.911 -0.4891 -1.9134 -0.8730
 4913SOL     OW26717  13.838   7.457  11.688 -0.2381  0.4436 -0.0328
 4913SOL    HW126718  13.869   7.367  11.699 -0.2044  0.4521 -0.0561
 4913SOL    HW226719  13.885   7.507  11.756 -0.7624  0.3258  0.4253
 4914SOL     OW26720   7.202  11.102  11.557 -0.5243 -0.1096  0.3815
 4914SOL    HW126721   7.283  11.120  11.605 -1.8405  2.8047  1.7709
 4914SOL    HW226722   7.184  11.182  11.509 -1.0791 -1.7653 -2.3879
 4915SOL     OW26723  11.379   8.954   2.610 -0.3052  0.0879 -0.1390
 4915SOL    HW126724  11.405   9.040   2.577 -1.3701  0.0176 -1.2441
 4915SOL    HW226725  11.323   8.918   2.541 -2.5792 -0.1073  1.6624
 4916SOL     OW26726   6.621   4.773  10.103  0.2526  0.0660 -0.0628
 4916SOL    HW126727   6.538   4.750  10.144  0.7857 -1.7431  0.0769
 4916SOL    HW226728   6.613   4.741  10.013  0.9989 -0.6699  0.1174
 4917SOL     OW26729   3.624   0.682   1.815  0.0563 -0.2838  0.5981
 4917SOL    HW126730   3.580   0.767   1.813  0.7339  0.0631  0.2230
 4917SOL    HW226731   3.658   0.675   1.904  1.3022  0.5274  0.2155
 4918SOL     OW26732   1.088  10.584  13.590 -0.1894  0.2805  0.2556
 4918SOL    HW126733   1.037  10.606  13.668 -0.6711 -1.4020  0.4732
 4918SOL    HW226734   1.111  10.668  13.551 -1.0621  1.1281  1.4933
 4919SOL     OW26735  10.259   3.492   0.516 -0.1933 -0.2958  0.0869
 4919SOL    HW126736  10.285   3.555   0.449 -0.7849  0.8922  0.9425
 4919SOL    HW226737  10.340   3.470   0.561  0.0171 -0.1646 -0.2204
 4920SOL     OW26738   2.073  13.167   3.085  0.0657 -0.1363 -0.1767
 4920SOL    HW126739   2.037  13.096   3.138  1.3881  0.7920  2.0841
 4920SOL    HW226740   2.167  13.149   3.081  0.1421  0.4328 -1.2783
 4921SOL     OW26741   6.292   0.412   2.745 -0.0603  0.0256 -0.2090
 4921SOL    HW126742   6.227   0.389   2.810  1.7243  0.4228  1.8431
 4921SOL    HW226743   6.314   0.503   2.764  2.0826 -0.5053  0.1357
 4922SOL     OW26744   8.780   1.001   1.999  0.0738 -0.2965  0.4823
 4922SOL    HW126745   8.706   1.062   1.988 -0.7432 -1.3635 -0.0872
 4922SOL    HW226746   8.761   0.930   1.939 -0.7124 -2.7678  3.4146
 4923SOL     OW26747   2.816   0.877  12.703 -0.2185  0.3341 -0.0363
 4923SOL    HW126748   2.880   0.835  12.646  0.3820 -1.6333  1.9160
 4923SOL    HW226749   2.737   0.824  12.693 -0.5930  0.9233 -0.2006
 4924SOL     OW26750   4.139   5.644  12.679 -0.3844  0.2780  0.3729
 4924SOL    HW126751   4.180   5.712  12.626  0.8900  0.9609  2.1196
 4924SOL    HW226752   4.205   5.575  12.684 -0.6064  0.0928  0.8053
 4925SOL     OW26753  13.694   1.929   4.501  0.1611  0.0548  0.3150
 4925SOL    HW126754  13.704   1.939   4.596 -0.6964  1.1642  0.3153
 4925SOL    HW226755  13.778   1.955   4.465  0.6356 -0.7810  0.7748
 4926SOL     OW26756  13.113  12.855   2.666 -0.4702  0.5164 -0.0733
 4926SOL    HW126757  13.119  12.948   2.641 -0.0758  0.5152  0.0076
 4926SOL    HW226758  13.079  12.856   2.755  1.0321  0.6686  0.5357
 4927SOL     OW26759   4.698   6.530   0.171 -0.2440  0.3971 -0.5702
 4927SOL    HW126760   4.771   6.592   0.163  0.9768 -0.6988  1.1853
 4927SOL    HW226761   4.739   6.451   0.207 -2.1680 -0.5787 -0.4277
 4928SOL     OW26762   6.647   5.028   1.850  0.4558 -0.3382 -0.3097
 4928SOL    HW126763   6.737   5.035   1.880  0.0588 -1.2078  1.1614
 4928SOL    HW226764   6.597   5.003   1.928 -0.9887 -0.3120 -1.1886
 4929SOL     OW26765   3.454   0.565   3.031  0.4536  0.5436 -0.4908
 4929SOL    HW126766   3.439   0.579   2.938  1.2004 -1.1827 -0.9154
 4929SOL    HW226767   3.471   0.471   3.039 -0.9347  0.3973  1.5835
 4930SOL     OW26768   4.759   2.945  11.942 -0.0057  1.0503 -0.0063
 4930SOL    HW126769   4.804   3.022  11.978  0.4144 -0.0358  1.9546
 4930SOL    HW226770   4.802   2.930  11.858  1.4294  1.6909  0.5626
 4931SOL     OW26771   5.527   3.993  10.217  0.4776 -0.5255  0.0560
 4931SOL    HW126772   5.470   4.036  10.153  0.7873 -0.1976 -0.0077
 4931SOL    HW226773   5.488   4.013  10.302  1.0086  0.5080  0.0781
 4932SOL     OW26774   1.513  12.664   1.782  0.1547  0.1873  0.6150
 4932SOL    HW126775   1.580  12.690   1.847  0.0648 -0.1363  0.8419
 4932SOL    HW226776   1.473  12.586   1.820 -1.1949  1.0761  1.0609
 4933SOL     OW26777   6.635   0.408   4.670 -0.0988 -0.1737  0.3829
 4933SOL    HW126778   6.561   0.465   4.690 -1.0360 -1.2541  0.0576
 4933SOL    HW226779   6.639   0.406   4.575  0.8090  0.4501  0.4001
 4934SOL     OW26780   5.899   0.472  11.447  0.6189  0.4858 -0.1918
 4934SOL    HW126781   5.977   0.521  11.422  1.6150 -0.8622  0.1590
 4934SOL    HW226782   5.846   0.469  11.367  0.0196  2.9820  0.0445
 4935SOL     OW26783   4.390   2.740   6.025  0.2064  0.2784 -0.2062
 4935SOL    HW126784   4.382   2.729   5.931 -0.4661 -3.1387  0.1114
 4935SOL    HW226785   4.301   2.735   6.058  0.5781 -0.5068  0.7340
 4936SOL     OW26786   8.555   8.628   9.568  0.2281  0.9350 -0.0509
 4936SOL    HW126787   8.599   8.566   9.510 -0.2876  0.8525 -0.3684
 4936SOL    HW226788   8.570   8.593   9.656  0.3938  0.6521 -0.1875
 4937SOL     OW26789   8.096   0.167   6.855  0.0657  0.4403 -0.2879
 4937SOL    HW126790   8.110   0.191   6.763 -1.7386 -0.3785 -0.8188
 4937SOL    HW226791   8.097   0.250   6.902 -0.7280  1.0501 -1.3142
 4938SOL     OW26792   9.273   0.448  11.652 -0.5298 -0.4893  0.4233
 4938SOL    HW126793   9.259   0.445  11.747 -1.0693 -1.0738  0.3330
 4938SOL    HW226794   9.220   0.375  11.618 -0.1692 -0.4187 -0.3034
 4939SOL     OW26795  13.254   6.888   1.928  0.2145  0.3691 -0.2262
 4939SOL    HW126796  13.299   6.920   2.007  1.1782 -1.3921 -0.0070
 4939SOL    HW226797  13.300   6.808   1.905 -2.2351 -1.0600 -0.5478
 4940SOL     OW26798  10.271   3.404   5.997 -0.3010  0.1138 -0.5578
 4940SOL    HW126799  10.334   3.355   5.945 -0.8373 -1.3942  0.1599
 4940SOL    HW226800  10.268   3.358   6.081  0.0983  2.1139  0.6216
 4941SOL     OW26801  10.909   9.801   2.298 -0.6081  0.4972 -0.7695
 4941SOL    HW126802  11.005   9.807   2.306 -0.6377  0.6399 -0.5012
 4941SOL    HW226803  10.885   9.875   2.241 -0.7280  1.5425  0.5752
 4942SOL     OW26804  11.698  13.891   5.268  1.0833 -0.2190  0.8244
 4942SOL    HW126805  11.750  13.840   5.205 -2.1453 -2.0601 -0.6015
 4942SOL    HW226806  11.714  13.982   5.245  2.2423 -0.7828 -0.7474
 4943SOL     OW26807   4.474   7.354   2.272 -0.8171 -0.2060 -0.6488
 4943SOL    HW126808   4.543   7.333   2.210 -1.1614 -0.1023 -1.0691
 4943SOL    HW226809   4.402   7.295   2.248 -0.1508 -1.8643  1.1283
 4944SOL     OW26810  10.433   7.214   4.053 -0.3367 -0.4800  0.0188
 4944SOL    HW126811  10.393   7.280   3.996 -0.2006  0.1758  0.6681
 4944SOL    HW226812  10.396   7.131   4.023 -3.0841  0.1779  1.2729
 4945SOL     OW26813  11.723   8.640   8.865  0.0018  0.2372 -0.0082
 4945SOL    HW126814  11.796   8.579   8.859 -0.8878 -0.8166 -0.3288
 4945SOL    HW226815  11.682   8.622   8.950 -0.8627 -0.3155 -0.5330
 4946SOL     OW26816   7.865  11.134  13.779 -0.1718  0.5540  0.2882
 4946SOL    HW126817   7.837  11.203  13.839 -1.7828  1.2134 -1.1252
 4946SOL    HW226818   7.941  11.170  13.734 -0.7747  1.2830 -0.1716
 4947SOL     OW26819   6.416   3.726   0.490  0.0088 -0.2006 -0.4573
 4947SOL    HW126820   6.465   3.668   0.548  0.3639  0.7866  0.2420
 4947SOL    HW226821   6.324   3.704   0.507  0.0248  1.0383  1.5699
 4948SOL     OW26822   8.881  11.638   4.432 -0.1987  0.0298  0.1665
 4948SOL    HW126823   8.842  11.716   4.392  0.8813  0.1018 -0.8175
 4948SOL    HW226824   8.831  11.565   4.395 -1.0451  0.2269  0.8918
 4949SOL     OW26825   1.163   4.791   6.476  0.6527  0.4729 -0.3316
 4949SOL    HW126826   1.116   4.873   6.461 -0.5863 -0.2049 -0.2745
 4949SOL    HW226827   1.252   4.808   6.444 -0.6398  0.5340 -4.4733
 4950SOL     OW26828   8.458   9.584  10.538 -0.4021 -0.4439 -0.2483
 4950SOL    HW126829   8.448   9.676  10.515 -0.2544 -0.5669 -0.8133
 4950SOL    HW226830   8.469   9.539  10.454  0.0174 -0.9179  0.0530
 4951SOL     OW26831   2.621   5.321  11.531  0.5912  0.5111 -0.3433
 4951SOL    HW126832   2.697   5.364  11.492  1.4305  0.4512  1.1456
 4951SOL    HW226833   2.609   5.365  11.616  0.5232 -1.1203  0.5427
 4952SOL     OW26834   5.981   9.606   2.764 -0.0913 -0.6444  0.2000
 4952SOL    HW126835   6.035   9.614   2.843 -1.4274  0.8582  1.0199
 4952SOL    HW226836   5.912   9.543   2.789 -1.9852  1.6611  1.2111
 4953SOL     OW26837   2.629   6.359   5.242 -0.1780  1.0712  0.1495
 4953SOL    HW126838   2.617   6.430   5.178  0.4365 -0.9050 -2.3065
 4953SOL    HW226839   2.588   6.283   5.202  1.7608 -0.6910  1.2934
 4954SOL     OW26840  13.221   0.477   7.657  0.3385  0.0191  0.4346
 4954SOL    HW126841  13.303   0.455   7.612 -0.8591 -1.1860 -1.3011
 4954SOL    HW226842  13.225   0.429   7.740  1.4693  0.1107  0.4375
 4955SOL     OW26843   9.037   6.239   5.633 -0.3383  0.2605  0.5393
 4955SOL    HW126844   9.131   6.238   5.618 -0.6861  0.5996 -1.9716
 4955SOL    HW226845   9.014   6.148   5.651  0.1848 -0.1741 -0.9218
 4956SOL     OW26846   9.208   7.075  11.188 -0.6833  0.1759 -0.1856
 4956SOL    HW126847   9.213   7.033  11.102  1.0244 -1.4086  0.6016
 4956SOL    HW226848   9.208   7.169  11.169 -0.0848 -0.1354 -1.9226
 4957SOL     OW26849   4.737  11.365   5.419  0.0190 -0.4455 -0.1183
 4957SOL    HW126850   4.682  11.422   5.473  0.7685  1.2656 -1.0840
 4957SOL    HW226851   4.714  11.388   5.329  2.6256  0.7397 -0.5804
 4958SOL     OW26852   1.106   3.055  12.928  0.2130 -0.2397 -0.0264
 4958SOL    HW126853   1.061   3.080  12.847 -0.2884 -0.3208  0.2244
 4958SOL    HW226854   1.041   3.069  12.997 -0.8363 -3.9344 -0.0044
 4959SOL     OW26855  12.233   7.526   6.924 -0.3866  0.1917 -0.5802
 4959SOL    HW126856  12.317   7.503   6.883  0.4439  1.8742  0.0542
 4959SOL    HW226857  12.202   7.602   6.875 -0.9124  0.3390 -0.0401
 4960SOL     OW26858  11.969   9.680   2.035 -0.1668  0.2466 -0.1286
 4960SOL    HW126859  12.029   9.662   1.963 -1.0908 -0.3259 -0.7602
 4960SOL    HW226860  11.908   9.745   2.001  0.8378  1.8355  0.9293
 4961SOL     OW26861  11.121  10.935  13.738  0.5241  0.1264  0.1334
 4961SOL    HW126862  11.158  11.022  13.722 -2.6382  1.5706 -0.1008
 4961SOL    HW226863  11.131  10.889  13.655  1.3113  0.6322 -0.0597
 4962SOL     OW26864   1.494   4.365   0.099  0.0729  0.4348 -0.2982
 4962SOL    HW126865   1.589   4.360   0.102  0.0004 -0.6810  1.3814
 4962SOL    HW226866   1.469   4.417   0.175 -0.6256  2.5646 -1.8728
 4963SOL     OW26867   5.820   9.977   7.133 -0.4496  0.1019 -0.4363
 4963SOL    HW126868   5.746   9.921   7.158  0.0675  0.0406  1.1106
 4963SOL    HW226869   5.800  10.062   7.174 -0.6059  0.6756 -1.6769
 4964SOL     OW26870   3.359   1.619  12.949 -0.0514 -1.1273  0.0984
 4964SOL    HW126871   3.328   1.563  12.877  2.3532 -0.3530 -1.6700
 4964SOL    HW226872   3.402   1.558  13.010 -1.9017 -1.7596  0.8536
 4965SOL     OW26873  12.821   8.590   1.147  0.8773 -0.5864  0.0343
 4965SOL    HW126874  12.806   8.676   1.185  0.2483 -0.6003 -0.1790
 4965SOL    HW226875  12.828   8.531   1.222 -0.6799 -0.6674  0.1324
 4966SOL     OW26876  13.351   5.585   8.075  0.4834 -0.0929  0.6679
 4966SOL    HW126877  13.414   5.521   8.109  1.0129  1.3730  2.6785
 4966SOL    HW226878  13.369   5.664   8.127 -1.8037  0.9175  0.0028
 4967SOL     OW26879   0.972   3.598  10.744  0.4151  0.0876 -0.1287
 4967SOL    HW126880   0.887   3.627  10.711  0.6916 -0.0871 -1.0210
 4967SOL    HW226881   0.951   3.523  10.801  0.0435 -0.6479 -1.1928
 4968SOL     OW26882   1.829   0.257   9.208  0.6266  0.3345 -0.2391
 4968SOL    HW126883   1.911   0.210   9.225 -1.2859 -2.9026  0.8911
 4968SOL    HW226884   1.781   0.200   9.149 -1.5950  1.1959  0.6458
 4969SOL     OW26885   7.608  11.802   5.055  0.0246 -0.1580  0.6193
 4969SOL    HW126886   7.663  11.782   4.979  2.0120  1.5756  1.4963
 4969SOL    HW226887   7.670  11.833   5.121 -1.6984 -1.1471  2.8089
 4970SOL     OW26888   7.025   8.129   1.189 -0.1741 -0.0730 -0.9228
 4970SOL    HW126889   7.027   8.132   1.285  0.2726 -0.0714 -0.9311
 4970SOL    HW226890   7.074   8.050   1.167 -1.2772 -0.7224 -1.1134
 4971SOL     OW26891  11.931   8.049  12.379 -0.2886 -0.3015  0.2733
 4971SOL    HW126892  11.992   8.056  12.305 -1.0308  0.1044 -0.3065
 4971SOL    HW226893  11.983   8.007  12.448 -0.0773 -2.3123 -1.0268
 4972SOL     OW26894   0.788   7.845   0.393  0.2675 -0.0867 -0.4091
 4972SOL    HW126895   0.879   7.827   0.416  0.1793 -0.6824 -0.5169
 4972SOL    HW226896   0.754   7.762   0.361 -1.0429 -0.5512  1.9736
 4973SOL     OW26897  10.085   4.285  14.010  0.2089 -0.3947 -0.1777
 4973SOL    HW126898  10.017   4.226  14.043  1.3758 -1.1909  0.8895
 4973SOL    HW226899  10.141   4.229  13.956  0.5848  0.0184 -0.2246
 4974SOL     OW26900  13.982  10.095  11.842  0.2823  0.2505 -0.4603
 4974SOL    HW126901  14.056  10.043  11.811 -0.8986 -2.1810  0.5517
 4974SOL    HW226902  13.936  10.122  11.763  0.5336 -0.8668 -0.9927
 4975SOL     OW26903  13.645  10.127   1.725 -0.0255 -0.5514 -0.3469
 4975SOL    HW126904  13.730  10.129   1.682 -0.5400 -0.1577 -1.3630
 4975SOL    HW226905  13.594  10.062   1.676 -0.4364 -0.5180  0.0231
 4976SOL     OW26906   9.930  12.983   6.857  0.6489 -1.3636 -0.5158
 4976SOL    HW126907  10.003  12.967   6.918  0.6318 -0.8909 -0.3724
 4976SOL    HW226908   9.881  13.054   6.896 -1.7686 -3.6988  1.0614
 4977SOL     OW26909   6.453  13.191  11.192 -0.1611  0.1871  0.1466
 4977SOL    HW126910   6.437  13.226  11.104 -1.0669  3.2164  1.3786
 4977SOL    HW226911   6.368  13.161  11.222 -0.3566  1.3669  0.8217
 4978SOL     OW26912   6.302   4.831   6.199  0.3155  0.2568 -1.4233
 4978SOL    HW126913   6.389   4.802   6.228 -1.4140 -3.4045  0.9953
 4978SOL    HW226914   6.258   4.857   6.280 -1.7586 -1.0832 -2.0336
 4979SOL     OW26915   1.573  11.622   2.336  0.1759  0.3382  0.0978
 4979SOL    HW126916   1.541  11.645   2.249  0.6391 -1.0126 -0.4565
 4979SOL    HW226917   1.514  11.667   2.396 -0.1265  1.3219 -0.9070
 4980SOL     OW26918   7.322   3.276  12.423 -0.5154  0.2287 -0.0198
 4980SOL    HW126919   7.287   3.268  12.335  0.1265 -1.5407 -0.1580
 4980SOL    HW226920   7.245   3.276  12.480 -0.8539 -1.2466 -0.4492
 4981SOL     OW26921   8.695   5.183   5.154 -0.1343 -0.4553  0.5117
 4981SOL    HW126922   8.776   5.176   5.205  0.6341  0.5762 -0.4924
 4981SOL    HW226923   8.725   5.210   5.067 -1.4941 -1.0237 -0.1615
 4982SOL     OW26924   9.878   3.022   2.839  0.7299 -0.0157 -0.0089
 4982SOL    HW126925   9.939   3.085   2.878  1.0192 -0.3532  0.0941
 4982SOL    HW226926   9.792   3.045   2.874  0.8054  0.4389 -0.1213
 4983SOL     OW26927  11.095   1.819   8.865  0.0884 -0.3448  0.7446
 4983SOL    HW126928  11.116   1.732   8.898  2.0792 -0.7847 -1.4443
 4983SOL    HW226929  11.056   1.804   8.779  0.3503  0.9046  0.3881
 4984SOL     OW26930   8.174   7.582   5.021 -0.4528 -0.8015  0.8806
 4984SOL    HW126931   8.250   7.638   5.038  0.5305 -2.1665  1.1418
 4984SOL    HW226932   8.099   7.635   5.048  0.2448  1.1391 -0.7192
 4985SOL     OW26933   5.204   3.183   8.346 -0.6451 -0.4119 -0.2485
 4985SOL    HW126934   5.176   3.260   8.397 -1.9340 -0.7968 -0.3446
 4985SOL    HW226935   5.194   3.210   8.255  0.4596 -0.1599 -0.3159
 4986SOL     OW26936   6.308   0.177   2.963  0.7158  0.1444  0.2914
 4986SOL    HW126937   6.235   0.225   2.924  1.3227  0.6493 -0.2587
 4986SOL    HW226938   6.336   0.232   3.036 -0.3160 -0.7221  1.3817
 4987SOL     OW26939   2.686  13.593   6.543  0.5871 -0.5282 -0.1819
 4987SOL    HW126940   2.594  13.581   6.521  0.3978 -0.7369  0.6823
 4987SOL    HW226941   2.702  13.530   6.614  1.6809 -1.2880 -1.0635
 4988SOL     OW26942   5.636  12.693   9.127  0.8242  0.5642  0.4317
 4988SOL    HW126943   5.701  12.623   9.117  2.1633  1.6715  1.0380
 4988SOL    HW226944   5.595  12.676   9.212  0.0545 -0.3236 -0.0972
 4989SOL     OW26945   5.236   0.347  10.064 -0.1123  0.0232 -0.2603
 4989SOL    HW126946   5.244   0.338  10.159  1.9486 -2.4840 -0.5530
 4989SOL    HW226947   5.324   0.328  10.031 -0.5917  1.5559 -2.6664
 4990SOL     OW26948   4.523   6.959   3.402 -0.1501 -0.2993 -0.8847
 4990SOL    HW126949   4.607   6.935   3.441  0.1312  0.7395 -0.8231
 4990SOL    HW226950   4.468   6.881   3.413  0.2009 -0.3413  0.8185
 4991SOL     OW26951   1.547   6.476   0.128  0.0174 -0.0534  0.0170
 4991SOL    HW126952   1.622   6.530   0.101  0.8755 -0.4398  1.4729
 4991SOL    HW226953   1.574   6.439   0.213 -1.0257 -1.8239 -0.3765
 4992SOL     OW26954   8.588  10.156   4.499 -0.8135  0.0217 -0.0275
 4992SOL    HW126955   8.561  10.132   4.410  0.7548 -0.1783 -0.4872
 4992SOL    HW226956   8.525  10.113   4.556 -0.0908 -2.4317 -0.9501
 4993SOL     OW26957   7.902   9.649  12.761 -0.1608 -0.5308 -0.3230
 4993SOL    HW126958   7.983   9.656  12.710 -0.0115  0.9458  0.0721
 4993SOL    HW226959   7.888   9.554  12.770 -0.1217 -0.8796 -2.9529
 4994SOL     OW26960   5.974   5.703  12.366  0.5054 -0.1927  0.2697
 4994SOL    HW126961   5.927   5.721  12.447  0.8207  0.3812  0.3263
 4994SOL    HW226962   5.907   5.701  12.298  0.3756  0.4737  0.3732
 4995SOL     OW26963  11.696   5.746   2.122 -0.2786  0.5500  0.2581
 4995SOL    HW126964  11.789   5.749   2.100 -0.1291 -0.3387  0.7055
 4995SOL    HW226965  11.690   5.676   2.187 -1.0955  1.3374  1.0509
 4996SOL     OW26966  13.102   7.762   9.737  0.5048 -0.3132 -0.0507
 4996SOL    HW126967  13.178   7.706   9.753 -0.0535 -1.2489 -0.6367
 4996SOL    HW226968  13.138   7.851   9.737  1.4135 -0.6528  0.8059
 4997SOL     OW26969   0.966  12.849   4.092  0.6616 -0.5316  0.3989
 4997SOL    HW126970   0.951  12.836   4.185  1.5616  0.3741  0.6959
 4997SOL    HW226971   0.879  12.858   4.054  0.2517 -1.6024  1.0255
 4998SOL     OW26972   4.626  11.075   0.185  0.2366  0.0260  0.2712
 4998SOL    HW126973   4.704  11.108   0.140 -0.3829  1.3514  0.1235
 4998SOL    HW226974   4.661  11.024   0.258  1.2428 -0.2708 -0.3980
 4999SOL     OW26975   8.116   4.461   3.884  0.4164  0.1154  0.2018
 4999SOL    HW126976   8.106   4.502   3.970  0.1101  0.1983  0.1300
 4999SOL    HW226977   8.080   4.373   3.895  0.0903  0.2297  0.0824
 5000SOL     OW26978   2.278   6.899   7.714  0.1383 -0.3366 -0.0354
 5000SOL    HW126979   2.237   6.933   7.794  1.3754  0.5779  0.2386
 5000SOL    HW226980   2.264   6.967   7.649  0.8863 -0.1840 -0.0402
 5001SOL     OW26981   1.890   9.632   3.328 -0.6004 -0.8540 -0.0062
 5001SOL    HW126982   1.883   9.576   3.406 -0.1085 -2.2719 -0.9289
 5001SOL    HW226983   1.982   9.624   3.302 -0.3748  0.8636  0.1328
 5002SOL     OW26984   3.906   4.070   6.441  0.0006 -0.0608 -0.0152
 5002SOL    HW126985   3.825   4.072   6.389  1.1052  0.1055 -1.8053
 5002SOL    HW226986   3.941   4.159   6.434  0.4395 -0.1806  0.6023
 5003SOL     OW26987   4.687   3.928   3.000 -0.2630  0.0898  0.3120
 5003SOL    HW126988   4.627   3.880   2.944  1.5141 -0.1436 -1.4875
 5003SOL    HW226989   4.726   3.994   2.943  2.5870 -1.0070  0.8424
 5004SOL     OW26990  11.375   5.662  13.491  0.2040 -0.1276  0.3098
 5004SOL    HW126991  11.289   5.701  13.479 -0.2601 -0.9369  0.9246
 5004SOL    HW226992  11.426   5.728  13.537 -1.1770 -0.9192  3.2175
 5005SOL     OW26993   3.608   0.902   0.018  0.4098  0.4385 -0.0575
 5005SOL    HW126994   3.551   0.932   0.088  1.3402  0.9731  0.4918
 5005SOL    HW226995   3.690   0.950   0.032  1.7455 -1.8539  0.4615
 5006SOL     OW26996   9.229  11.414  13.376 -0.2506 -0.0878  0.3044
 5006SOL    HW126997   9.253  11.507  13.380 -1.8652  0.3349  1.2584
 5006SOL    HW226998   9.300  11.373  13.326 -0.0509  1.8276 -1.1098
 5007SOL     OW26999  10.914   1.687   6.975 -0.2813 -0.0228 -0.2087
 5007SOL    HW127000  10.872   1.687   6.889 -2.4805  0.4806  0.7979
 5007SOL    HW227001  10.904   1.598   7.008 -2.2219  0.5023  0.7460
 5008SOL     OW27002  13.542  13.573   2.398 -0.2180 -0.4269 -0.3473
 5008SOL    HW127003  13.632  13.572   2.365 -0.0505 -1.2389  0.0909
 5008SOL    HW227004  13.503  13.492   2.363 -0.4050 -0.6787  0.4228
 5009SOL     OW27005  11.790  12.077   9.378  0.2134 -0.1092 -0.2198
 5009SOL    HW127006  11.764  12.072   9.286  0.3124 -1.1295 -0.2050
 5009SOL    HW227007  11.856  12.007   9.388 -0.0713 -0.2569  0.7010
 5010SOL     OW27008   3.525  13.309   6.338  0.3307  0.0876  0.1805
 5010SOL    HW127009   3.443  13.272   6.369  1.5032 -0.7120  2.5811
 5010SOL    HW227010   3.553  13.368   6.409  1.8501  0.2888 -0.5432
 5011SOL     OW27011  12.996  10.147  10.713  0.0074  0.2937  0.2515
 5011SOL    HW127012  12.954  10.105  10.788 -0.3772 -0.6549 -0.4752
 5011SOL    HW227013  12.955  10.107  10.636 -0.5201  2.1320 -0.4954
 5012SOL     OW27014   6.760   0.895   2.127 -0.1455  0.1333  0.3836
 5012SOL    HW127015   6.803   0.831   2.184  0.1159 -0.8047 -0.8362
 5012SOL    HW227016   6.761   0.976   2.178 -0.1091 -0.7139  1.7963
 5013SOL     OW27017   8.725   0.794   8.683  0.0511  0.3970  0.0419
 5013SOL    HW127018   8.670   0.855   8.633  0.8517  0.2532 -1.0471
 5013SOL    HW227019   8.663   0.738   8.730 -0.7030  1.6184  0.5569
 5014SOL     OW27020   6.488   8.385   3.843 -0.3717  0.2807 -0.3826
 5014SOL    HW127021   6.483   8.441   3.765 -0.4004 -0.7039 -1.1118
 5014SOL    HW227022   6.573   8.404   3.881 -1.1076  2.1605  0.4514
 5015SOL     OW27023  11.057  13.894  10.444  0.3315  0.1343 -0.2485
 5015SOL    HW127024  11.149  13.874  10.460  0.1533 -0.5699 -0.0600
 5015SOL    HW227025  11.011  13.811  10.458 -0.4783  0.7273  0.8126
 5016SOL     OW27026   0.001  11.012   5.558 -0.1335  0.7798  0.4596
 5016SOL    HW127027   0.046  10.971   5.632  0.7730  0.4973 -0.2269
 5016SOL    HW227028   0.012  11.106   5.574 -0.9632  0.7574  1.2797
 5017SOL     OW27029   4.411  10.420   1.000  0.0908 -0.3829  0.1494
 5017SOL    HW127030   4.323  10.442   1.030 -0.2989 -0.3372 -0.9763
 5017SOL    HW227031   4.400  10.392   0.909  1.3044  0.1735 -0.2021
 5018SOL     OW27032   2.677   9.899   2.855  0.6670 -0.0675 -0.4069
 5018SOL    HW127033   2.771   9.912   2.842  0.8462 -0.5080  0.3729
 5018SOL    HW227034   2.645   9.984   2.882  0.6838  0.2967 -1.4808
 5019SOL     OW27035  13.279   1.571   4.854  0.2048 -0.4290  0.0785
 5019SOL    HW127036  13.323   1.525   4.926  1.3203 -1.7440 -1.3615
 5019SOL    HW227037  13.197   1.523   4.842  0.2456 -0.5236  0.1700
 5020SOL     OW27038  11.390   8.527   3.234 -0.2682  0.4427 -0.2311
 5020SOL    HW127039  11.398   8.533   3.329  1.4483  1.1512 -0.3793
 5020SOL    HW227040  11.473   8.487   3.205 -1.1752 -0.7145 -1.3673
 5021SOL     OW27041   0.750  12.318   4.129 -0.7847 -0.4357 -0.1619
 5021SOL    HW127042   0.796  12.399   4.149 -0.6819 -0.9281  1.7138
 5021SOL    HW227043   0.683  12.310   4.196 -1.2098 -1.5933 -0.6919
 5022SOL     OW27044  13.199   6.753  12.140 -0.5401  0.2312  0.2408
 5022SOL    HW127045  13.112   6.718  12.154  0.2276 -1.5118  0.8892
 5022SOL    HW227046  13.258   6.689  12.181  1.3936 -1.2205 -4.2205
 5023SOL     OW27047   3.349   5.276   6.301  0.2107 -0.2383  0.0789
 5023SOL    HW127048   3.386   5.334   6.367  0.4358 -0.0337 -0.2209
 5023SOL    HW227049   3.255   5.292   6.305  0.2281 -0.1976  0.3192
 5024SOL     OW27050   6.990   1.637   7.154 -0.3906 -0.0518  0.0199
 5024SOL    HW127051   7.018   1.628   7.063  0.1751 -1.5302  0.3282
 5024SOL    HW227052   7.005   1.551   7.193 -0.7596  0.5201  1.4812
 5025SOL     OW27053   0.604   7.695   3.311  0.0502  0.3303  0.5350
 5025SOL    HW127054   0.668   7.749   3.357  0.3183  0.6854 -0.2270
 5025SOL    HW227055   0.652   7.664   3.233 -0.4074 -0.1929  0.4573
 5026SOL     OW27056   2.013   8.834   1.011 -0.1421  0.8287 -0.6905
 5026SOL    HW127057   2.061   8.759   1.048 -0.7168  1.1453  0.8036
 5026SOL    HW227058   2.061   8.858   0.933 -0.3462 -1.5689 -1.6328
 5027SOL     OW27059   3.647   3.709   5.314  0.2270 -0.2613  0.7326
 5027SOL    HW127060   3.725   3.686   5.365  0.8161  1.9737  0.9051
 5027SOL    HW227061   3.677   3.714   5.224 -0.3681 -2.0814  0.3720
 5028SOL     OW27062   0.155   7.576   4.154  0.0489 -1.0227  0.4488
 5028SOL    HW127063   0.230   7.521   4.178  1.5907  1.1268  0.8790
 5028SOL    HW227064   0.147   7.638   4.227 -2.8265 -1.7954  0.8815
 5029SOL     OW27065   1.546  12.287   5.995  0.3892 -0.8553  0.4405
 5029SOL    HW127066   1.582  12.347   6.061 -1.5155 -0.8432  1.5364
 5029SOL    HW227067   1.496  12.344   5.936 -0.1809 -1.1803  0.6067
 5030SOL     OW27068   0.598  13.977   9.996  0.1522  0.3171  0.0608
 5030SOL    HW127069   0.587  13.925   9.916 -0.7656 -1.1206  1.0720
 5030SOL    HW227070   0.687  14.012   9.990  0.5393 -0.7855 -1.0048
 5031SOL     OW27071   9.584  12.174  10.722  0.0952  0.1417  0.7801
 5031SOL    HW127072   9.574  12.258  10.768 -0.9438  0.3427  0.2173
 5031SOL    HW227073   9.502  12.164  10.672  0.0617 -1.3637  1.0901
 5032SOL     OW27074  13.872  13.677   9.574 -0.3041  0.1291  0.2484
 5032SOL    HW127075  13.907  13.764   9.559  0.0800  0.1837  1.3747
 5032SOL    HW227076  13.936  13.618   9.536 -2.3515  0.3289 -4.0995
 5033SOL     OW27077  10.357   4.274   0.447  0.1366  0.2006  0.3589
 5033SOL    HW127078  10.292   4.217   0.407  1.9920 -1.4505 -0.4380
 5033SOL    HW227079  10.353   4.355   0.395 -1.4335  0.2593  0.5171
 5034SOL     OW27080   7.249   4.490   6.386  0.1006 -0.2957 -0.5429
 5034SOL    HW127081   7.257   4.585   6.381  0.2331 -0.3147 -0.6996
 5034SOL    HW227082   7.282   4.467   6.473 -1.5679 -0.0277  0.2025
 5035SOL     OW27083   6.373   5.231   7.097 -0.3410 -0.3292 -0.2678
 5035SOL    HW127084   6.328   5.148   7.110 -0.5049 -0.0647  0.9239
 5035SOL    HW227085   6.465   5.207   7.085 -0.4842 -0.7188 -0.6210
 5036SOL     OW27086   3.114   1.087   0.357 -0.0963  0.0151  0.0381
 5036SOL    HW127087   3.176   1.136   0.411  0.1433 -1.4007  1.0969
 5036SOL    HW227088   3.136   1.112   0.267  0.2278  1.5684  0.5175
 5037SOL     OW27089   9.404   9.270  11.406 -0.9125 -0.7412  0.1478
 5037SOL    HW127090   9.368   9.190  11.368  0.2996 -0.4377 -1.7560
 5037SOL    HW227091   9.498   9.252  11.416 -0.5880  0.4736 -0.4788
 5038SOL     OW27092   1.720   5.969   0.727  0.7838 -0.3100 -0.3282
 5038SOL    HW127093   1.742   5.882   0.696  0.8315 -0.5251  0.3056
 5038SOL    HW227094   1.785   6.027   0.686 -0.7899 -0.1890 -2.8627
 5039SOL     OW27095  11.305   7.852   5.472 -0.8052 -0.2373 -0.4467
 5039SOL    HW127096  11.307   7.841   5.377 -0.7524 -1.2581 -0.3384
 5039SOL    HW227097  11.364   7.784   5.505 -0.4726  0.3976  0.2952
 5040SOL     OW27098   0.722   4.619  11.625 -0.1305  0.4949  0.2971
 5040SOL    HW127099   0.703   4.712  11.632 -1.2700  0.2157  1.2022
 5040SOL    HW227100   0.793   4.604  11.687  0.6360  0.8821 -0.4518
 5041SOL     OW27101   3.393   4.498   8.629 -0.2122 -0.2260 -0.6381
 5041SOL    HW127102   3.354   4.556   8.565  0.0617 -1.6512 -2.1646
 5041SOL    HW227103   3.488   4.508   8.617 -0.0493  1.6025  1.5539
 5042SOL     OW27104   8.269   4.860   2.020  0.1912 -1.2528 -0.5623
 5042SOL    HW127105   8.185   4.851   1.976  0.4496  0.8789 -1.5887
 5042SOL    HW227106   8.327   4.798   1.975  0.3691  0.6319 -3.1643
 5043SOL     OW27107   7.158   5.719   9.806  0.0785  0.3664  0.0828
 5043SOL    HW127108   7.072   5.742   9.842 -1.3072 -1.0552 -2.1080
 5043SOL    HW227109   7.192   5.653   9.866 -0.7586  0.2882  0.4882
 5044SOL     OW27110   0.420  13.880   8.047  0.1655 -0.0153  0.0771
 5044SOL    HW127111   0.451  13.967   8.073 -1.7120  0.7521 -0.1578
 5044SOL    HW227112   0.381  13.892   7.961 -0.5961 -0.9726  0.2688
 5045SOL     OW27113   6.790   9.883   4.805 -0.0660  0.3885 -0.1547
 5045SOL    HW127114   6.700   9.909   4.784 -0.1945 -0.2047 -0.3386
 5045SOL    HW227115   6.797   9.894   4.900 -0.4394  0.1078 -0.0934
 5046SOL     OW27116   9.994   0.393  11.470 -0.7085 -0.3659 -0.1863
 5046SOL    HW127117  10.006   0.437  11.554 -1.9589  0.2116 -0.2931
 5046SOL    HW227118  10.016   0.302  11.487 -2.9436 -0.6861  1.3189
 5047SOL     OW27119   2.090   4.341   3.432 -0.8250 -0.3909 -0.0128
 5047SOL    HW127120   2.122   4.251   3.427  0.8523  0.0655  1.4646
 5047SOL    HW227121   2.110   4.378   3.346  2.7621 -0.1762  0.7412
 5048SOL     OW27122   0.125   4.660   6.702  0.3747 -0.2869  0.3273
 5048SOL    HW127123   0.089   4.670   6.614 -0.0255 -0.5154  0.4582
 5048SOL    HW227124   0.182   4.583   6.696  0.1580 -0.4486  0.3244
 5049SOL     OW27125   0.609  13.700   0.591  0.3239 -0.0872  0.2364
 5049SOL    HW127126   0.673  13.762   0.554  0.4044 -0.4980 -0.3316
 5049SOL    HW227127   0.598  13.634   0.522  0.8385 -1.1454  1.1497
 5050SOL     OW27128  10.628   9.250   2.471 -0.0654  0.6698 -0.0337
 5050SOL    HW127129  10.679   9.168   2.467 -1.2686 -0.0492 -2.2269
 5050SOL    HW227130  10.630   9.283   2.381 -3.1555  0.7742 -0.1394
 5051SOL     OW27131   6.182   6.027   6.637 -0.1828 -0.6649  0.1827
 5051SOL    HW127132   6.276   6.045   6.649 -0.9474  3.1452  1.8347
 5051SOL    HW227133   6.158   6.079   6.560 -1.0402 -1.2475  0.0513
 5052SOL     OW27134   7.772   9.814  11.575 -0.0359 -0.2388 -0.0702
 5052SOL    HW127135   7.762   9.832  11.482  0.9299 -0.9436 -0.3220
 5052SOL    HW227136   7.747   9.722  11.585  2.2144 -0.8960 -0.0728
 5053SOL     OW27137  11.669   4.851   4.996 -0.9426 -0.5655 -0.0485
 5053SOL    HW127138  11.662   4.888   4.908 -0.4281  0.6531  0.4106
 5053SOL    HW227139  11.749   4.798   4.993 -0.8342 -0.3933 -0.2630
 5054SOL     OW27140  13.950  12.528   9.451 -0.3439  0.3914 -0.1732
 5054SOL    HW127141  13.883  12.553   9.388 -0.0611  0.1512 -0.5712
 5054SOL    HW227142  14.031  12.525   9.400 -0.2462 -0.6259  0.0200
 5055SOL     OW27143   9.333  12.018  11.753 -0.3255  0.4088 -0.9287
 5055SOL    HW127144   9.363  12.002  11.664  0.2575  2.5140 -1.1618
 5055SOL    HW227145   9.412  12.016  11.807 -0.1647  2.3499 -1.0011
 5056SOL     OW27146   5.365   8.846   1.834  0.1498 -0.1133  0.2887
 5056SOL    HW127147   5.336   8.765   1.792 -0.1534 -0.7268  1.6083
 5056SOL    HW227148   5.458   8.832   1.851 -0.0353 -0.4800  1.0882
 5057SOL     OW27149   9.095   5.421   9.955  0.4195  0.0102 -0.3781
 5057SOL    HW127150   9.132   5.333   9.949  1.1214  0.2208  0.6408
 5057SOL    HW227151   9.166   5.479   9.928  0.7181  0.3850  1.0999
 5058SOL     OW27152   4.523   8.294  14.024 -0.8608 -0.3668 -0.5698
 5058SOL    HW127153   4.472   8.288  13.944 -1.7586  3.4574 -0.4687
 5058SOL    HW227154   4.459   8.287  14.094 -0.6639  0.3790 -0.3113
 5059SOL     OW27155   9.636  11.392   3.252 -0.5098 -0.3194  0.0374
 5059SOL    HW127156   9.629  11.328   3.324 -0.0782  0.4837  0.8155
 5059SOL    HW227157   9.575  11.461   3.275  0.2251  0.3386  0.0691
 5060SOL     OW27158   3.538   0.243  10.346  0.1748  0.1263  0.0144
 5060SOL    HW127159   3.443   0.237  10.336  0.3936  0.4179 -2.9922
 5060SOL    HW227160   3.557   0.184  10.419 -1.9939 -2.5507 -1.3846
 5061SOL     OW27161  12.694   2.288  12.470  0.0004  0.3824 -0.0727
 5061SOL    HW127162  12.618   2.328  12.511  0.5182  0.4427  0.8471
 5061SOL    HW227163  12.768   2.343  12.496  0.8723 -1.6190  2.0309
 5062SOL     OW27164   8.992  10.920  11.527  0.5394 -0.1403  0.3858
 5062SOL    HW127165   8.980  10.825  11.521  0.0881 -0.1980  1.7478
 5062SOL    HW227166   8.908  10.952  11.560  0.3565  0.8625 -0.9879
 5063SOL     OW27167  11.450   9.494   7.665  1.0671  0.1117  0.1652
 5063SOL    HW127168  11.513   9.563   7.646  1.2495  0.5847  2.3218
 5063SOL    HW227169  11.432   9.502   7.759 -1.2645 -0.8094 -0.1362
 5064SOL     OW27170   0.966  13.096  13.678  0.0781 -0.4304  0.1766
 5064SOL    HW127171   0.981  13.150  13.756  0.2222 -0.3623  0.1036
 5064SOL    HW227172   1.053  13.089  13.637  0.1001 -0.8979  0.3010
 5065SOL     OW27173   1.820   7.522   1.399 -0.0430 -0.1125 -0.0326
 5065SOL    HW127174   1.750   7.586   1.382 -0.9981 -1.1603 -0.1660
 5065SOL    HW227175   1.799   7.486   1.485  0.2187 -0.5808 -0.1643
 5066SOL     OW27176  12.277   4.286   1.600 -0.3739  0.2894  0.3890
 5066SOL    HW127177  12.365   4.288   1.637 -0.5331 -1.1440  0.8951
 5066SOL    HW227178  12.247   4.196   1.613 -1.2667  0.2880 -1.3173
 5067SOL     OW27179   9.846   0.295   9.439  0.1606 -0.5302 -0.2713
 5067SOL    HW127180   9.846   0.306   9.534  1.9085 -0.5799 -0.2304
 5067SOL    HW227181   9.785   0.223   9.423 -1.2218  0.3845  0.6643
 5068SOL     OW27182   5.743   9.456  12.964  0.2064 -0.3997  0.4094
 5068SOL    HW127183   5.803   9.411  13.024  1.3921  0.8039  0.1784
 5068SOL    HW227184   5.725   9.392  12.895  2.4819 -0.3271 -0.3324
 5069SOL     OW27185  13.334   4.546   9.819 -0.0474  0.7087  0.5338
 5069SOL    HW127186  13.326   4.628   9.771 -0.2196  1.8282  2.3715
 5069SOL    HW227187  13.412   4.504   9.783  2.3981  3.5437  2.1089
 5070SOL     OW27188   7.672   1.956   9.103 -0.5896 -0.7774 -0.1821
 5070SOL    HW127189   7.742   1.902   9.066  2.2531  2.2302  0.2966
 5070SOL    HW227190   7.593   1.903   9.095  1.4681 -3.8499 -2.0802
 5071SOL     OW27191   6.482  13.179   0.951  0.0066 -0.1385 -0.6842
 5071SOL    HW127192   6.437  13.099   0.922 -0.6279  0.1545 -0.5241
 5071SOL    HW227193   6.437  13.250   0.905  0.6589  0.1193 -0.9361
 5072SOL     OW27194   4.512   6.895   4.702  0.4430 -0.2159 -0.0116
 5072SOL    HW127195   4.434   6.939   4.668  0.6292  0.3215  0.2402
 5072SOL    HW227196   4.580   6.962   4.702  1.0948 -0.8548 -0.8521
 5073SOL     OW27197   0.398  12.721   3.307 -0.1240  0.4608 -0.0267
 5073SOL    HW127198   0.387  12.632   3.275 -1.0406  0.5142  0.1259
 5073SOL    HW227199   0.341  12.775   3.252 -1.4596  0.6009  1.4220
 5074SOL     OW27200   9.225   0.441   2.386 -0.2355  0.3462  0.1404
 5074SOL    HW127201   9.309   0.432   2.432  0.4324  1.5113 -0.7787
 5074SOL    HW227202   9.227   0.530   2.351 -1.6708  0.2262 -0.3005
 5075SOL     OW27203   1.772  12.971   1.262 -0.1752  0.2119 -0.1904
 5075SOL    HW127204   1.855  12.960   1.308 -1.2460 -2.4656  1.3127
 5075SOL    HW227205   1.763  12.893   1.207 -0.3492  1.9216 -2.8017
 5076SOL     OW27206   3.714   8.603  10.314  0.4068 -0.3784  0.3086
 5076SOL    HW127207   3.715   8.526  10.372 -0.9719 -0.8672 -0.2756
 5076SOL    HW227208   3.624   8.607  10.282  0.6647  1.0313 -0.2897
 5077SOL     OW27209  11.852  12.389   4.917 -0.2275 -0.3538  0.6331
 5077SOL    HW127210  11.898  12.308   4.939 -0.3587 -0.6460 -0.1077
 5077SOL    HW227211  11.770  12.359   4.878  0.1593  0.0941 -0.5994
 5078SOL     OW27212   2.256   0.569   7.672  0.4016 -0.4014  0.0100
 5078SOL    HW127213   2.176   0.521   7.695 -0.3988 -0.4143 -2.4391
 5078SOL    HW227214   2.232   0.661   7.685 -0.1815 -0.3831 -1.0435
 5079SOL     OW27215  13.485   2.299  13.678  0.1535  0.3139 -0.2323
 5079SOL    HW127216  13.547   2.252  13.734  0.4685  0.6977 -0.2594
 5079SOL    HW227217  13.479   2.246  13.599 -1.0444 -0.7677  0.5322
 5080SOL     OW27218   0.033   2.444  10.903 -0.1198 -0.5052 -0.0513
 5080SOL    HW127219   0.102   2.385  10.871  1.2203  0.5259  0.7797
 5080SOL    HW227220   0.064   2.531  10.877 -1.4617 -0.0642 -0.2147
 5081SOL     OW27221   8.659   9.845   3.294  0.0820  0.2730 -0.0836
 5081SOL    HW127222   8.719   9.899   3.243 -0.0385  0.4481 -0.0393
 5081SOL    HW227223   8.707   9.763   3.308  0.0813  0.1847 -0.5619
 5082SOL     OW27224  13.146   6.779  10.776 -0.1740 -0.1558 -0.0700
 5082SOL    HW127225  13.099   6.713  10.725  1.0599  0.8973 -2.8014
 5082SOL    HW227226  13.233   6.782  10.737  1.5122 -0.4061  3.2950
 5083SOL     OW27227   3.620  12.531   3.862 -0.4060  0.6301 -0.6338
 5083SOL    HW127228   3.606  12.467   3.932  0.0557 -0.1428 -1.2343
 5083SOL    HW227229   3.617  12.480   3.781  0.1995  1.3347 -1.1177
 5084SOL     OW27230  13.696   5.496   0.519 -0.1153  0.4357 -0.3856
 5084SOL    HW127231  13.744   5.488   0.437  0.4014 -1.3389  0.0464
 5084SOL    HW227232  13.725   5.579   0.557  1.5459  0.0742 -0.8112
 5085SOL     OW27233  11.151   3.492   4.475 -0.1604 -0.0169 -0.6340
 5085SOL    HW127234  11.072   3.456   4.433 -1.2720  1.6892 -0.1084
 5085SOL    HW227235  11.189   3.417   4.522 -1.2604 -0.9644 -1.2005
 5086SOL     OW27236   5.650  13.350  11.795  0.4149  0.0363  0.4856
 5086SOL    HW127237   5.669  13.280  11.858  0.2163 -2.1999 -1.7903
 5086SOL    HW227238   5.734  13.367  11.753 -0.0037 -0.6927 -0.7034
 5087SOL     OW27239  12.274  12.394  10.778 -0.1697  0.4930  0.3059
 5087SOL    HW127240  12.245  12.388  10.869  0.8316 -3.7347  0.5721
 5087SOL    HW227241  12.195  12.378  10.726 -0.8418  3.4094  0.2902
 5088SOL     OW27242   4.324   2.311   8.070  0.3763 -0.4252 -0.0907
 5088SOL    HW127243   4.350   2.403   8.082  0.2661 -0.4848  0.6632
 5088SOL    HW227244   4.372   2.283   7.992  1.1562 -0.0068  0.2210
 5089SOL     OW27245  11.683   1.130  11.445 -0.0311  0.1257 -0.1394
 5089SOL    HW127246  11.773   1.125  11.476 -0.1205  2.8053  0.7537
 5089SOL    HW227247  11.643   1.200  11.496 -2.0944  0.2808 -1.8107
 5090SOL     OW27248   0.450  11.364  11.696  0.6052  0.2960 -0.0982
 5090SOL    HW127249   0.409  11.291  11.649  2.8730 -0.0352 -1.7651
 5090SOL    HW227250   0.411  11.442  11.658  0.2482 -0.0153 -0.3783
 5091SOL     OW27251   0.485   5.903  10.846 -0.5200 -0.1025 -0.1949
 5091SOL    HW127252   0.535   5.976  10.881 -0.1680 -0.2573 -0.3716
 5091SOL    HW227253   0.473   5.924  10.753 -0.3182 -0.3246 -0.2712
 5092SOL     OW27254   5.639   6.082   8.545 -0.1687  0.3725 -0.5874
 5092SOL    HW127255   5.676   6.109   8.461  0.3556 -0.8857 -0.7830
 5092SOL    HW227256   5.709   6.032   8.587 -0.7753  0.1347  0.1595
 5093SOL     OW27257   4.520   3.605  12.913  0.2449 -0.4334 -0.0835
 5093SOL    HW127258   4.536   3.511  12.916  1.2302 -0.3052 -0.7846
 5093SOL    HW227259   4.592   3.644  12.961  1.2072  0.0704 -1.8256
 5094SOL     OW27260   1.002   3.157   4.013 -0.3322 -0.2742 -0.0981
 5094SOL    HW127261   1.076   3.177   4.070 -0.2277 -1.2977  0.1455
 5094SOL    HW227262   1.019   3.209   3.934  2.3102 -2.6950 -1.3262
 5095SOL     OW27263  12.792   7.181   0.259  0.0421 -0.5230 -0.5067
 5095SOL    HW127264  12.833   7.253   0.211  0.2421  0.0992  0.5739
 5095SOL    HW227265  12.858   7.111   0.259 -0.2426 -0.8221 -1.7656
 5096SOL     OW27266   7.895  13.695   5.913 -0.0636  0.4176  0.2563
 5096SOL    HW127267   7.926  13.671   6.000 -0.2989 -0.4448  0.1083
 5096SOL    HW227268   7.810  13.736   5.928  0.0098  0.5048  0.4434
 5097SOL     OW27269   4.929   6.451   3.362  0.0888  0.4322  0.2455
 5097SOL    HW127270   4.844   6.415   3.388  0.1134  0.6891  0.6904
 5097SOL    HW227271   4.911   6.502   3.284 -0.2686  0.9466  0.6594
 5098SOL     OW27272   2.128  14.001   3.567  0.2882 -0.4630 -0.0865
 5098SOL    HW127273   2.112  13.988   3.474 -1.2712 -1.3731  0.2621
 5098SOL    HW227274   2.174  13.922   3.594  1.1681  0.0148 -0.1610
 5099SOL     OW27275  12.189   8.659   0.033  0.0943  0.1352  0.7243
 5099SOL    HW127276  12.184   8.673  -0.061 -2.7603 -1.3210  0.5602
 5099SOL    HW227277  12.223   8.570   0.043 -0.8961 -0.2282  0.9850
 5100SOL     OW27278   1.649   4.973  11.189  0.2269  0.2419  0.2512
 5100SOL    HW127279   1.741   4.998  11.189  1.2101 -3.0184  0.1395
 5100SOL    HW227280   1.624   4.970  11.097  0.8651 -1.5237  0.1050
 5101SOL     OW27281   1.383  13.100   7.863 -0.2793 -0.3417  0.5671
 5101SOL    HW127282   1.453  13.161   7.886 -0.0347 -0.7441  0.9049
 5101SOL    HW227283   1.386  13.095   7.767 -1.7217  1.8288  0.3358
 5102SOL     OW27284   1.424   6.068   3.200 -0.0882 -0.0521  0.0859
 5102SOL    HW127285   1.344   6.102   3.159  1.2591  1.9408 -1.0472
 5102SOL    HW227286   1.421   6.104   3.289 -1.7503 -2.2871  1.0281
 5103SOL     OW27287   8.203   3.991   3.452 -0.2296 -0.0083 -0.3731
 5103SOL    HW127288   8.110   3.973   3.467 -0.0139 -0.4482  0.5095
 5103SOL    HW227289   8.212   4.084   3.471 -0.6575  0.2395 -1.3499
 5104SOL     OW27290   5.616  13.070   5.143  0.2826 -0.2652 -0.3321
 5104SOL    HW127291   5.677  13.006   5.107  0.3961 -1.1922  1.4306
 5104SOL    HW227292   5.547  13.017   5.184 -1.0718  0.7630 -1.1773
 5105SOL     OW27293  10.101  12.297   6.219  0.1261 -0.0760 -0.7474
 5105SOL    HW127294  10.143  12.223   6.174 -0.8153 -1.2186  0.1828
 5105SOL    HW227295  10.171  12.362   6.227  0.9071 -0.7290 -1.8564
 5106SOL     OW27296  10.031   7.330   9.846 -0.1585  0.4967  0.4657
 5106SOL    HW127297  10.075   7.316   9.762  0.1239 -0.9615  0.8265
 5106SOL    HW227298   9.983   7.412   9.835 -0.5642  0.0645 -1.3160
 5107SOL     OW27299  10.984   1.337   1.689 -0.5896 -0.5198 -0.1380
 5107SOL    HW127300  11.037   1.334   1.768  0.1899  0.1655 -0.6209
 5107SOL    HW227301  10.900   1.371   1.717  0.2374  1.4406  0.1266
 5108SOL     OW27302   3.390   7.991   0.614  0.2435  0.5114 -0.4567
 5108SOL    HW127303   3.446   8.063   0.584  0.8275 -0.2810 -1.3106
 5108SOL    HW227304   3.325   7.980   0.545 -0.1814  0.5761 -0.0715
 5109SOL     OW27305  11.474   1.364  12.583 -0.1358  0.0251  0.5677
 5109SOL    HW127306  11.466   1.269  12.580  0.9961 -0.0656  0.0704
 5109SOL    HW227307  11.450   1.387  12.673  0.2289 -0.7993  0.8851
 5110SOL     OW27308   1.676  11.379  12.275  0.3364  0.4330  0.6464
 5110SOL    HW127309   1.677  11.474  12.289 -0.3586  0.7110 -1.0029
 5110SOL    HW227310   1.768  11.356  12.261  0.4279  0.9865  0.3057
 5111SOL     OW27311  11.598   7.805  12.663  0.4707 -0.1450  0.0425
 5111SOL    HW127312  11.600   7.748  12.586  3.2830 -1.2120  0.7973
 5111SOL    HW227313  11.622   7.891  12.631 -1.6929  0.2384 -0.7475
 5112SOL     OW27314   3.031  13.955  10.363  0.2455  0.2951  0.5642
 5112SOL    HW127315   2.958  14.002  10.323  0.4709 -0.4164 -0.7218
 5112SOL    HW227316   3.038  13.993  10.451 -1.9614  0.0602  0.8948
 5113SOL     OW27317   0.215  13.008  11.601 -0.7874 -0.4451  0.2337
 5113SOL    HW127318   0.164  13.067  11.657  0.5727  1.0829 -0.0524
 5113SOL    HW227319   0.184  13.027  11.512  0.4722  0.7613  0.0216
 5114SOL     OW27320  11.231   2.740   7.539  0.1261 -0.2297  0.0490
 5114SOL    HW127321  11.231   2.806   7.470  2.3634 -0.6396 -0.4070
 5114SOL    HW227322  11.311   2.755   7.588  0.5359 -2.3747  0.1472
 5115SOL     OW27323   8.599  13.260  13.793 -0.5352  0.4564 -0.6141
 5115SOL    HW127324   8.514  13.263  13.750 -1.1089  1.1438  0.4971
 5115SOL    HW227325   8.585  13.203  13.869 -0.0821  0.7941 -0.2726
 5116SOL     OW27326   9.765   7.562   9.312  0.1517  0.4184 -0.5116
 5116SOL    HW127327   9.758   7.637   9.253  0.4061 -0.9407 -2.3225
 5116SOL    HW227328   9.845   7.517   9.286 -0.7500 -1.3058 -0.4893
 5117SOL     OW27329  13.130   9.122  13.234 -0.1673  0.7299 -0.3495
 5117SOL    HW127330  13.195   9.135  13.165 -0.2993  0.5949 -0.5005
 5117SOL    HW227331  13.179   9.081  13.305  0.4097  2.6255  0.4004
 5118SOL     OW27332   8.604   6.229   9.249  0.4486 -0.5445  0.6380
 5118SOL    HW127333   8.548   6.273   9.185  0.7406  1.0509  1.4359
 5118SOL    HW227334   8.684   6.207   9.200 -0.1711 -1.2769 -0.0668
 5119SOL     OW27335   7.645   6.643   1.718  0.4417 -0.0392 -0.1414
 5119SOL    HW127336   7.739   6.646   1.736  0.1992  0.3195  1.1090
 5119SOL    HW227337   7.620   6.552   1.735  0.1731  0.3434  1.6431
 5120SOL     OW27338   0.514  13.550   0.000  0.2749  0.1815  0.3214
 5120SOL    HW127339   0.531  13.607  -0.076 -0.9445  2.9269  1.9381
 5120SOL    HW227340   0.468  13.475  -0.036  1.0600  0.6544 -1.8362
 5121SOL     OW27341   8.645   2.855   2.086  0.2109 -0.1329 -0.4813
 5121SOL    HW127342   8.678   2.830   1.999 -1.5163 -0.7180 -0.9999
 5121SOL    HW227343   8.668   2.947   2.095 -0.2183  0.1349 -1.8881
 5122SOL     OW27344  12.048  10.565   8.753 -0.5171  0.3581  0.5137
 5122SOL    HW127345  12.073  10.604   8.836 -1.0942 -0.0622  0.8904
 5122SOL    HW227346  12.059  10.636   8.689 -0.2350  0.7292  0.9694
 5123SOL     OW27347   0.406   0.093   2.393  0.4886 -0.0595  0.0289
 5123SOL    HW127348   0.478   0.029   2.396  0.5275 -0.0614 -0.7304
 5123SOL    HW227349   0.332   0.044   2.358  0.4638  0.2537 -0.3636
 5124SOL     OW27350   5.225   0.279  13.863  0.1069  0.3554  0.2607
 5124SOL    HW127351   5.318   0.281  13.840  0.2846 -0.7169  0.8565
 5124SOL    HW227352   5.203   0.371  13.877  1.1270  0.6091  0.3014
 5125SOL     OW27353   3.975   3.178   2.892 -0.4908 -0.6482 -0.3053
 5125SOL    HW127354   3.948   3.270   2.889  1.4601  0.0490  1.1125
 5125SOL    HW227355   3.893   3.129   2.895 -1.6103  0.9530 -2.1298
 5126SOL     OW27356   8.057  10.164   4.142  0.2860 -0.4988 -0.6439
 5126SOL    HW127357   8.127  10.124   4.091 -0.1886 -2.3239  0.0533
 5126SOL    HW227358   8.052  10.254   4.110  2.7248 -0.4039 -0.9058
 5127SOL     OW27359   6.559   3.669   0.907  0.0767 -0.4254  0.1523
 5127SOL    HW127360   6.520   3.649   0.992  0.7171 -0.6711  0.3963
 5127SOL    HW227361   6.641   3.714   0.929 -0.6543  1.2073 -0.3618
 5128SOL     OW27362  12.860  11.797   2.340 -0.0046  0.2306 -0.7958
 5128SOL    HW127363  12.827  11.809   2.429  0.6858 -1.7171 -0.2062
 5128SOL    HW227364  12.895  11.882   2.315 -0.3727  0.8600  0.7268
 5129SOL     OW27365  12.340   4.912  12.865 -0.1485 -0.5365  0.4811
 5129SOL    HW127366  12.353   4.995  12.911 -2.2800 -0.2169  0.5800
 5129SOL    HW227367  12.371   4.846  12.927 -0.4384  0.0538  1.2735
 5130SOL     OW27368  10.757   8.357  12.931 -0.4134 -0.7453 -0.2090
 5130SOL    HW127369  10.769   8.340  13.025 -1.3786 -2.4241 -0.3464
 5130SOL    HW227370  10.789   8.278  12.888 -0.3585 -0.1581 -1.2733
 5131SOL     OW27371  11.742  11.352   6.674 -0.4184 -0.1667 -0.3934
 5131SOL    HW127372  11.690  11.433   6.668  0.8002  0.6077 -0.7354
 5131SOL    HW227373  11.686  11.292   6.724 -1.0923  1.0894  0.4218
 5132SOL     OW27374   7.276   5.209   4.167  0.3122 -0.6058  0.3367
 5132SOL    HW127375   7.290   5.115   4.156  0.7203 -0.8198  2.3764
 5132SOL    HW227376   7.291   5.245   4.080  1.3462 -2.2836 -0.2310
 5133SOL     OW27377  11.330   3.322   1.093 -0.4762 -0.0590  0.2633
 5133SOL    HW127378  11.277   3.316   1.013 -0.5840 -1.5775  0.4293
 5133SOL    HW227379  11.271   3.293   1.163 -0.1671  0.5960  0.8153
 5134SOL     OW27380   5.790  11.823   7.621  0.2680 -0.5151  0.7906
 5134SOL    HW127381   5.827  11.890   7.563 -0.7748  1.2609  2.0588
 5134SOL    HW227382   5.695  11.834   7.613  0.0896 -0.4228  2.5480
 5135SOL     OW27383  12.976   9.024  12.704  0.0399 -0.0417  0.1591
 5135SOL    HW127384  13.008   8.940  12.670  2.5715  0.9453 -0.0801
 5135SOL    HW227385  13.019   9.090  12.649  0.4999  1.4768  2.2360
 5136SOL     OW27386  12.115   7.903   1.558 -0.1722  0.2533  0.1959
 5136SOL    HW127387  12.179   7.833   1.543 -0.6192  0.1302 -1.2982
 5136SOL    HW227388  12.038   7.858   1.593 -0.7451 -0.1705 -1.4951
 5137SOL     OW27389   5.851   1.687   4.111  0.5729  0.3521 -0.4969
 5137SOL    HW127390   5.795   1.610   4.115 -1.2146  1.6548  1.1100
 5137SOL    HW227391   5.798   1.758   4.148  2.5252  2.1427 -0.9206
 5138SOL     OW27392  13.760   1.189   1.756  0.1737 -0.2153  0.0322
 5138SOL    HW127393  13.813   1.118   1.719  0.3277  0.0810 -0.3123
 5138SOL    HW227394  13.786   1.267   1.708  1.9736  0.6413  2.2184
 5139SOL     OW27395   8.436   0.997   8.087  0.1982 -0.0021 -0.4897
 5139SOL    HW127396   8.520   0.997   8.132  0.5848 -1.0030 -1.1880
 5139SOL    HW227397   8.415   1.090   8.076  0.5081  0.2660  0.9555
 5140SOL     OW27398   6.049   1.092   0.870 -0.1331 -0.1327 -0.2842
 5140SOL    HW127399   5.987   1.164   0.862  0.5345  0.2743 -2.3212
 5140SOL    HW227400   6.091   1.106   0.954 -2.8598 -0.5346  1.2933
 5141SOL     OW27401  12.266   7.821   6.380  0.4099  0.2499  0.9483
 5141SOL    HW127402  12.189   7.766   6.393  1.0819 -1.1272 -0.5459
 5141SOL    HW227403  12.270   7.835   6.285  0.9425  1.9050  1.1858
 5142SOL     OW27404  12.276   9.734   9.880  0.2100  0.2089 -0.6468
 5142SOL    HW127405  12.195   9.774   9.847 -0.3158 -1.7924 -1.9421
 5142SOL    HW227406  12.346   9.787   9.842 -0.3803  2.8397  1.6004
 5143SOL     OW27407  12.783   5.138   9.362 -0.9406 -0.0783 -0.3988
 5143SOL    HW127408  12.727   5.156   9.438 -0.3496 -0.8497  0.2390
 5143SOL    HW227409  12.828   5.057   9.384  0.1333  0.3116 -1.0709
 5144SOL     OW27410   0.727   9.936  11.323 -0.3194 -0.6172 -0.2638
 5144SOL    HW127411   0.767   9.899  11.245  2.1223 -0.1195  0.6641
 5144SOL    HW227412   0.780  10.013  11.343 -0.9828 -0.6212  1.7597
 5145SOL     OW27413   9.130  13.602  12.949  0.2876  0.2771  0.1559
 5145SOL    HW127414   9.035  13.592  12.942  0.2845  0.2220  0.2772
 5145SOL    HW227415   9.155  13.545  13.021  0.2442  1.2739  0.9848
 5146SOL     OW27416   8.860   9.506   3.296 -0.0776 -0.0090 -0.3793
 5146SOL    HW127417   8.898   9.419   3.314 -0.9832 -0.4481 -0.5595
 5146SOL    HW227418   8.935   9.559   3.267  0.5656 -0.6020  0.1503
 5147SOL     OW27419  10.944  10.020  10.206  0.1668 -0.5192 -0.4642
 5147SOL    HW127420  11.018   9.960  10.215 -1.2952 -2.3516 -0.0640
 5147SOL    HW227421  10.940  10.065  10.291 -1.0046 -2.6957  0.7167
 5148SOL     OW27422  13.686   6.817   8.091  0.0096  0.1243 -1.0912
 5148SOL    HW127423  13.715   6.851   8.175  0.9027 -0.6590 -1.0724
 5148SOL    HW227424  13.688   6.722   8.101 -1.4222  0.0225 -1.4907
 5149SOL     OW27425   4.114   4.850   6.917  0.1441  0.4580  0.6620
 5149SOL    HW127426   4.133   4.943   6.925  0.5141  0.6480 -1.7060
 5149SOL    HW227427   4.019   4.846   6.902  0.0999  0.4392  0.9460
 5150SOL     OW27428  10.424  12.162  11.790  0.0104  0.3521  0.3227
 5150SOL    HW127429  10.354  12.226  11.794  0.2455  0.5570  1.3370
 5150SOL    HW227430  10.435  12.144  11.696 -0.9662  0.7719  0.1201
 5151SOL     OW27431   9.481   8.230  10.950 -0.6448 -0.3992 -0.0708
 5151SOL    HW127432   9.414   8.297  10.939 -0.3564 -0.3089 -1.3785
 5151SOL    HW227433   9.531   8.259  11.027 -1.4004  0.1181  0.2350
 5152SOL     OW27434   1.535  11.081   8.364 -0.0481  0.2719 -0.4734
 5152SOL    HW127435   1.507  11.153   8.420  0.1685  1.3402 -1.6998
 5152SOL    HW227436   1.631  11.087   8.362  0.5249 -2.9932  3.2115
 5153SOL     OW27437   0.012   9.731  12.663 -0.4888  0.2514 -0.4345
 5153SOL    HW127438   0.010   9.636  12.653  2.1496 -0.0188  0.6258
 5153SOL    HW227439   0.045   9.763  12.579 -1.0207  0.1875 -0.6667
 5154SOL     OW27440   4.519   4.155   4.394 -0.4043 -0.4477  0.7859
 5154SOL    HW127441   4.537   4.080   4.451  0.5854  0.2128  1.3813
 5154SOL    HW227442   4.514   4.118   4.306 -0.2945 -1.2648  1.1136
 5155SOL     OW27443   0.515  11.497   8.247 -0.6139 -0.3158  0.2345
 5155SOL    HW127444   0.489  11.580   8.287  0.2474  0.3212 -0.4990
 5155SOL    HW227445   0.587  11.466   8.302  1.4431  1.1923 -1.4380
 5156SOL     OW27446   6.108   2.242   5.609 -0.3407  0.4147  0.0703
 5156SOL    HW127447   6.017   2.255   5.636  0.4105 -0.1338  3.2381
 5156SOL    HW227448   6.158   2.244   5.690  2.2115 -1.7900 -1.2876
 5157SOL     OW27449  14.042   7.464   4.857  0.0460  0.2945 -0.2748
 5157SOL    HW127450  13.976   7.517   4.901  0.6128  0.4672  0.3874
 5157SOL    HW227451  13.996   7.426   4.782 -0.4518  1.4486 -0.5766
 5158SOL     OW27452  12.697   9.298  11.153  0.1822 -0.2251  0.0710
 5158SOL    HW127453  12.728   9.345  11.076  0.7476  2.8690  1.9883
 5158SOL    HW227454  12.605   9.281  11.136  0.7559 -1.5876 -2.0866
 5159SOL     OW27455  12.856   1.911  13.018 -0.1981 -0.3436 -0.6217
 5159SOL    HW127456  12.889   1.832  13.061  1.7172 -0.1547 -1.6319
 5159SOL    HW227457  12.919   1.928  12.947  0.6962  3.2614  0.8218
 5160SOL     OW27458   2.251   1.334   3.865  0.2246 -0.0793  0.2798
 5160SOL    HW127459   2.303   1.307   3.941  0.2198  1.2194  0.7684
 5160SOL    HW227460   2.313   1.338   3.793  0.6865  0.8209  0.7148
 5161SOL     OW27461  13.218  12.380  12.118 -0.0499  0.1971  0.1418
 5161SOL    HW127462  13.159  12.414  12.186 -0.5512 -0.8746  0.2777
 5161SOL    HW227463  13.243  12.456  12.067 -0.9095  0.8024  0.5906
 5162SOL     OW27464   1.592   4.597   7.240 -0.6168 -0.1627  0.4757
 5162SOL    HW127465   1.583   4.593   7.145 -2.5695  2.4452  0.4700
 5162SOL    HW227466   1.644   4.519   7.262 -0.9375 -1.3773 -2.5880
 5163SOL     OW27467   0.784  13.287   4.614 -0.0629 -0.4103  0.3182
 5163SOL    HW127468   0.710  13.348   4.602 -0.6238 -1.0996  0.1811
 5163SOL    HW227469   0.823  13.313   4.697 -1.6875 -1.2821  1.4090
 5164SOL     OW27470   1.239  11.438   9.107  0.0393 -0.2646  0.2884
 5164SOL    HW127471   1.156  11.416   9.149  0.1865 -0.7385  0.3340
 5164SOL    HW227472   1.281  11.500   9.167 -1.3278  1.9086 -0.8329
 5165SOL     OW27473   9.929   8.725  12.439 -0.7270  0.1040  0.5016
 5165SOL    HW127474   9.890   8.805  12.475 -1.0101 -0.1544  0.7685
 5165SOL    HW227475   9.999   8.703  12.500 -1.8565 -0.9049  1.4776
 5166SOL     OW27476   2.989   8.477   4.316  0.3307 -0.0257 -0.0453
 5166SOL    HW127477   2.940   8.537   4.372 -0.3980 -2.1092  1.6986
 5166SOL    HW227478   3.049   8.533   4.267 -0.3220  2.1120  1.4596
 5167SOL     OW27479   8.697  12.461   3.147  0.2589 -0.2177  0.5037
 5167SOL    HW127480   8.735  12.542   3.179  1.3554 -0.2665 -0.6038
 5167SOL    HW227481   8.771  12.411   3.113 -0.7526 -0.1710 -2.0318
 5168SOL     OW27482   8.776   2.786   3.846 -0.1683  0.3978 -0.4836
 5168SOL    HW127483   8.694   2.750   3.812 -0.7931  1.7527 -0.4808
 5168SOL    HW227484   8.814   2.832   3.771  1.4244 -1.5513 -0.9406
 5169SOL     OW27485   0.991  12.648  12.362  0.2371  0.7515 -0.2805
 5169SOL    HW127486   0.939  12.640  12.442  0.9445 -0.8332  0.0780
 5169SOL    HW227487   1.033  12.562  12.354 -1.5732  0.0157 -3.5917
 5170SOL     OW27488   0.522  11.209  10.458  0.0454 -0.4296 -0.4754
 5170SOL    HW127489   0.502  11.152  10.532 -0.1367 -1.6042 -1.3841
 5170SOL    HW227490   0.539  11.294  10.496 -1.8144 -0.5586  0.7857
 5171SOL     OW27491  13.347   0.072   7.690  0.5335  0.6082 -0.3540
 5171SOL    HW127492  13.337   0.144   7.627 -0.4569 -0.9403 -2.0617
 5171SOL    HW227493  13.260   0.061   7.728  0.9709  1.0852  0.8327
 5172SOL     OW27494   2.437   5.750   1.590 -0.6501 -0.0232  0.0415
 5172SOL    HW127495   2.480   5.793   1.516 -0.3613  0.2687  0.3773
 5172SOL    HW227496   2.473   5.661   1.589 -0.0024  0.2281  0.3390
 5173SOL     OW27497  13.223  13.441   7.375 -0.0948  0.4436 -0.2062
 5173SOL    HW127498  13.249  13.438   7.283 -0.0512 -1.5222 -0.1763
 5173SOL    HW227499  13.260  13.361   7.412 -0.7584  0.8302  1.3523
 5174SOL     OW27500   4.592  10.605   0.031  0.8015  0.3496  0.2127
 5174SOL    HW127501   4.630  10.648   0.108  4.1112 -1.8818  0.0536
 5174SOL    HW227502   4.653  10.627  -0.040 -1.0053  0.5939 -1.3236
 5175SOL     OW27503   4.590   2.230  10.913  0.2965  0.5841 -0.1602
 5175SOL    HW127504   4.637   2.235  10.997 -1.2944  1.1499  0.7412
 5175SOL    HW227505   4.544   2.146  10.916 -0.8831  1.2252  0.1758
 5176SOL     OW27506   4.898   3.458   8.567  0.3565 -0.1097  0.9435
 5176SOL    HW127507   4.889   3.533   8.508 -2.3133 -0.3938  0.8755
 5176SOL    HW227508   4.895   3.382   8.509 -0.4873 -0.3424  1.2835
 5177SOL     OW27509   9.512   0.292   3.618  0.2404 -0.0461  0.1342
 5177SOL    HW127510   9.549   0.369   3.576 -0.1233  0.4431  0.7091
 5177SOL    HW227511   9.573   0.221   3.595  0.4237  0.3441 -0.6290
 5178SOL     OW27512   3.545   3.297   6.147 -0.0758 -0.0985  0.5572
 5178SOL    HW127513   3.501   3.212   6.138  0.1975 -0.4438  2.1506
 5178SOL    HW227514   3.478   3.355   6.183 -0.1873  0.2995 -0.2803
 5179SOL     OW27515   0.451   8.600  11.442 -0.1034 -0.8657  0.4585
 5179SOL    HW127516   0.423   8.509  11.433  0.0635 -0.9692  0.9400
 5179SOL    HW227517   0.518   8.612  11.374 -2.0816 -0.2751 -1.5133
 5180SOL     OW27518  12.321   0.322   9.316  0.1211 -0.3479 -0.2498
 5180SOL    HW127519  12.319   0.347   9.408 -0.0946  0.9911 -0.5972
 5180SOL    HW227520  12.241   0.359   9.279  0.5973 -0.1601 -1.1353
 5181SOL     OW27521   7.037  12.172   3.839 -0.2299  0.2452 -0.7717
 5181SOL    HW127522   7.028  12.195   3.747 -0.3478  1.5664 -0.4527
 5181SOL    HW227523   7.116  12.118   3.843 -0.0654  0.4198 -1.5959
 5182SOL     OW27524  10.617   7.992  13.369  0.2054 -0.3804 -0.1242
 5182SOL    HW127525  10.665   8.041  13.301 -0.4842  0.7900  0.2092
 5182SOL    HW227526  10.686   7.953  13.423  0.8110  1.1608  0.2718
 5183SOL     OW27527   2.833   2.930   2.559  0.7334  0.0222  0.0808
 5183SOL    HW127528   2.773   2.931   2.633 -0.5878  0.3775 -0.9574
 5183SOL    HW227529   2.853   3.022   2.543 -1.0103  0.1824 -1.5364
 5184SOL     OW27530   6.798  12.777   5.571 -0.2498 -0.6605  0.2705
 5184SOL    HW127531   6.723  12.834   5.558  0.8755  0.3180 -2.9710
 5184SOL    HW227532   6.761  12.691   5.591 -2.3210 -0.4151 -2.0769
 5185SOL     OW27533   7.597   6.371  12.509  0.1205 -0.4912 -0.4158
 5185SOL    HW127534   7.543   6.318  12.568  1.1766 -1.6617 -0.4662
 5185SOL    HW227535   7.676   6.390  12.560  0.2593  0.0480 -0.8223
 5186SOL     OW27536   3.213   5.820   7.928  0.6264  0.4623  0.2080
 5186SOL    HW127537   3.252   5.802   8.013  2.4440 -0.3554 -0.7376
 5186SOL    HW227538   3.130   5.772   7.929  0.5856  0.5409  1.5448
 5187SOL     OW27539   0.519   8.150  12.011  0.2242 -0.2018 -0.1130
 5187SOL    HW127540   0.533   8.110  12.097  1.5677 -0.5096 -0.4495
 5187SOL    HW227541   0.512   8.075  11.951  0.4082  0.0263 -0.4192
 5188SOL     OW27542   0.416   4.553  13.834 -0.8043 -0.2757  0.2988
 5188SOL    HW127543   0.486   4.609  13.803 -0.6082 -0.6750  0.0143
 5188SOL    HW227544   0.338   4.583  13.787 -0.5820 -0.6351 -0.3065
 5189SOL     OW27545   7.043  13.980  12.758 -0.0639  0.5279 -0.0110
 5189SOL    HW127546   7.101  14.024  12.695  1.0634 -0.8414  0.0041
 5189SOL    HW227547   7.038  13.889  12.726 -0.7780  0.2081  0.9788
 5190SOL     OW27548  11.528   4.710  11.279 -0.0577  0.1324 -0.2360
 5190SOL    HW127549  11.607   4.719  11.333  0.6642  0.6790 -1.3463
 5190SOL    HW227550  11.556   4.658  11.204  0.0066  2.5460 -2.0159
 5191SOL     OW27551   5.562  13.392   7.942 -0.0816  0.1135 -0.4193
 5191SOL    HW127552   5.592  13.477   7.976  0.3521 -0.0421 -0.4049
 5191SOL    HW227553   5.587  13.330   8.010 -0.6504  0.0055 -0.3020
 5192SOL     OW27554   5.459   4.171   3.948  0.2513 -0.2454 -0.5256
 5192SOL    HW127555   5.465   4.075   3.940  0.6911 -0.2683 -0.0332
 5192SOL    HW227556   5.521   4.204   3.883  0.7876 -0.3245 -0.0673
 5193SOL     OW27557   7.871   1.203   8.718 -0.3065  0.0087  0.0609
 5193SOL    HW127558   7.895   1.277   8.662  0.4767 -0.7558 -0.6584
 5193SOL    HW227559   7.829   1.141   8.659  0.0267 -0.5797  0.4341
 5194SOL     OW27560  12.323   6.399   2.397 -0.4382 -0.2364  0.0863
 5194SOL    HW127561  12.272   6.478   2.417 -1.2639 -1.0381  1.3169
 5194SOL    HW227562  12.302   6.339   2.469 -0.0903 -1.6955 -0.9958
 5195SOL     OW27563  11.917   8.803   7.783 -0.4730 -0.3573 -0.0782
 5195SOL    HW127564  11.866   8.883   7.786 -1.6797 -1.1002 -0.1440
 5195SOL    HW227565  11.996   8.827   7.734 -0.7359  0.8127  0.0362
 5196SOL     OW27566   3.282  11.725   8.633 -0.0778 -0.4938 -0.3514
 5196SOL    HW127567   3.234  11.761   8.708  0.8126  1.1810 -0.5222
 5196SOL    HW227568   3.292  11.632   8.653 -1.0740 -0.3610  0.9266
 5197SOL     OW27569   1.323  12.011  12.900 -0.0265 -0.3704  0.0667
 5197SOL    HW127570   1.343  11.949  12.970  1.3661  0.5656  0.5419
 5197SOL    HW227571   1.246  12.059  12.931 -0.5733 -1.2414  0.0821
 5198SOL     OW27572   1.890   6.473   7.171 -0.5860 -0.1704  0.3584
 5198SOL    HW127573   1.810   6.426   7.192  0.9470 -3.1181  0.1468
 5198SOL    HW227574   1.946   6.460   7.247  0.0090  1.1436  0.1724
 5199SOL     OW27575   1.599   4.182  11.636 -0.5416 -0.7415 -0.0412
 5199SOL    HW127576   1.689   4.194  11.605 -0.2040 -0.1339  1.1311
 5199SOL    HW227577   1.547   4.175  11.556  0.3536  0.3302 -0.7475
 5200SOL     OW27578   4.116  11.398   4.002  0.4166 -0.4998 -0.3111
 5200SOL    HW127579   4.047  11.464   4.005 -1.1114 -1.9182 -1.6327
 5200SOL    HW227580   4.126  11.378   3.909  2.1709 -0.8074 -0.0869
 5201SOL     OW27581  11.794   9.299  13.765  0.6109 -0.1277  0.3093
 5201SOL    HW127582  11.853   9.240  13.811 -1.0783 -1.0983  1.3347
 5201SOL    HW227583  11.706   9.267  13.786 -0.3014  0.8131 -1.7330
 5202SOL     OW27584  10.126  10.726   9.083  0.0625 -0.2378  0.3061
 5202SOL    HW127585  10.201  10.685   9.039 -0.2131 -0.9230  0.4653
 5202SOL    HW227586  10.072  10.760   9.011 -0.1336 -0.9134  0.1324
 5203SOL     OW27587  10.018   2.284   1.882  0.2285  0.4904 -0.0554
 5203SOL    HW127588   9.994   2.193   1.864 -1.1965  0.7282  0.5420
 5203SOL    HW227589  10.048   2.318   1.797 -0.2763 -0.2143 -0.5255
 5204SOL     OW27590  10.891   7.661   3.812 -0.3921 -0.1428 -0.4009
 5204SOL    HW127591  10.906   7.666   3.906  0.4619  1.1874 -0.5776
 5204SOL    HW227592  10.962   7.606   3.779  0.1339  0.5278 -0.4146
 5205SOL     OW27593   7.867   0.199   8.102  0.1162 -0.1575 -0.2096
 5205SOL    HW127594   7.924   0.122   8.092  1.4221  0.5954  1.0450
 5205SOL    HW227595   7.862   0.213   8.196 -2.3147 -0.2574 -0.2796
 5206SOL     OW27596   2.332   2.975   7.688 -0.3522  0.1031  0.1463
 5206SOL    HW127597   2.426   2.975   7.710 -0.2463 -0.6986 -0.3085
 5206SOL    HW227598   2.329   2.960   7.594 -0.9109  1.2184 -0.0406
 5207SOL     OW27599   9.785   1.527   9.892 -0.1137 -0.7569  0.9642
 5207SOL    HW127600   9.810   1.487   9.809  3.0991 -2.1331  2.4193
 5207SOL    HW227601   9.761   1.617   9.870  1.5249 -0.8172 -1.3619
 5208SOL     OW27602   9.599   7.961   9.915  0.3659  0.2237  0.2966
 5208SOL    HW127603   9.511   7.989   9.889  0.1875  0.8150  1.4463
 5208SOL    HW227604   9.609   7.875   9.876 -0.7964  0.0711  0.2818
 5209SOL     OW27605   0.856   9.176  11.042  0.2223 -0.0377 -0.2047
 5209SOL    HW127606   0.873   9.135  11.126 -0.4512 -0.5469 -0.3088
 5209SOL    HW227607   0.891   9.265  11.051 -0.8216  0.2715  0.9786
 5210SOL     OW27608   5.248   3.893  10.998  0.0400  0.1874  0.1010
 5210SOL    HW127609   5.299   3.865  10.922  1.0436 -2.1626  1.5548
 5210SOL    HW227610   5.167   3.842  10.993  0.5986 -0.8492  1.1736
 5211SOL     OW27611   1.654  11.039   6.210  0.3879 -0.1849 -0.3005
 5211SOL    HW127612   1.669  10.994   6.127  0.4629 -1.9270  0.6290
 5211SOL    HW227613   1.731  11.096   6.220 -0.3257  1.1633 -2.0993
 5212SOL     OW27614   3.990   6.040   9.462  0.9045 -0.2485 -0.1980
 5212SOL    HW127615   3.961   5.977   9.528  0.4684 -0.5465 -0.6709
 5212SOL    HW227616   3.980   5.994   9.379 -1.1395  1.0192 -0.7264
 5213SOL     OW27617   4.133   6.936   1.939 -0.1797 -0.6553  0.0045
 5213SOL    HW127618   4.174   6.936   2.026 -1.5302  0.8720  0.6857
 5213SOL    HW227619   4.053   6.884   1.950 -1.6059  1.4817  0.3827
 5214SOL     OW27620   0.434   8.796   4.793  0.3553 -0.0966  0.3546
 5214SOL    HW127621   0.450   8.719   4.847  0.7073  0.7571  1.5190
 5214SOL    HW227622   0.388   8.856   4.852 -1.3818 -0.0257 -1.0017
 5215SOL     OW27623  13.448   0.844   8.568  0.2314  0.4707 -0.3452
 5215SOL    HW127624  13.488   0.923   8.605  0.8142 -0.1986  0.4913
 5215SOL    HW227625  13.354   0.856   8.581  0.3490  0.8336  0.1851
 5216SOL     OW27626   8.234   6.046   2.393  0.1058  0.2492 -0.1762
 5216SOL    HW127627   8.238   6.105   2.318  2.4504  0.1615 -0.1847
 5216SOL    HW227628   8.151   6.068   2.436 -0.1694  1.9291 -1.4555
 5217SOL     OW27629   5.501   7.038   0.807 -0.0535 -0.5661  0.0768
 5217SOL    HW127630   5.563   6.991   0.750  0.7368 -1.2457  1.4409
 5217SOL    HW227631   5.524   7.010   0.896 -0.0351  1.8851  0.9114
 5218SOL     OW27632  10.980   8.804  12.868  0.1527  0.5460  0.0260
 5218SOL    HW127633  11.023   8.775  12.787  0.2515 -1.7389  0.8224
 5218SOL    HW227634  10.899   8.753  12.871  0.1001  0.6809  1.3208
 5219SOL     OW27635  11.948   4.597  10.407 -0.1066 -0.2240  0.3363
 5219SOL    HW127636  11.996   4.615  10.488  2.2497 -0.7640 -0.8707
 5219SOL    HW227637  11.862   4.636  10.422  0.0895 -0.6435  3.2466
 5220SOL     OW27638   1.365   4.723  12.275  1.2473  0.0077 -0.0102
 5220SOL    HW127639   1.401   4.771  12.350  3.0239  0.1788 -0.9254
 5220SOL    HW227640   1.275   4.704  12.301  2.2828 -1.6024  2.9959
 5221SOL     OW27641   7.533   0.806   4.756  0.0366  0.2957 -0.1186
 5221SOL    HW127642   7.546   0.813   4.661 -1.0901  1.2751 -0.2157
 5221SOL    HW227643   7.440   0.786   4.766  0.2582 -0.3126  0.7722
 5222SOL     OW27644   9.971   1.495  11.447 -0.0011  0.4032  0.3756
 5222SOL    HW127645  10.006   1.471  11.362  0.0268  1.1940  0.1540
 5222SOL    HW227646   9.876   1.487  11.437  0.0214  0.0737  0.4086
 5223SOL     OW27647  12.230   1.458   3.184 -0.2098 -0.2803  0.0503
 5223SOL    HW127648  12.155   1.430   3.132 -1.5163  1.1845  1.0627
 5223SOL    HW227649  12.296   1.391   3.168 -1.3317 -1.0477 -1.7221
 5224SOL     OW27650   6.878   7.629  11.280 -0.4314  0.3746 -0.1439
 5224SOL    HW127651   6.916   7.657  11.363 -0.3991 -2.2281  0.8103
 5224SOL    HW227652   6.945   7.649  11.215 -0.2764  2.0403  0.4814
 5225SOL     OW27653   0.954   7.893   2.004 -0.2226 -0.4825  0.8383
 5225SOL    HW127654   1.038   7.862   1.971 -0.2485 -0.1547  0.4609
 5225SOL    HW227655   0.930   7.965   1.945  0.4408  1.1299  2.4181
 5226SOL     OW27656   1.090   0.503   6.834 -0.0991 -0.0268 -0.6289
 5226SOL    HW127657   1.003   0.508   6.793 -0.5578 -0.0833  0.3086
 5226SOL    HW227658   1.110   0.409   6.835 -0.7770 -0.1808  0.6418
 5227SOL     OW27659  10.376  13.145   4.508 -0.7580 -0.1125 -0.0486
 5227SOL    HW127660  10.344  13.086   4.439 -1.1221 -1.7127  1.4194
 5227SOL    HW227661  10.389  13.088   4.584  3.4219  0.8384  0.1452
 5228SOL     OW27662   8.624   4.823  13.556 -0.1889 -0.3892 -0.3203
 5228SOL    HW127663   8.528   4.825  13.547 -0.2396 -1.1429 -0.0753
 5228SOL    HW227664   8.642   4.735  13.590  0.6973 -0.7360 -1.6212
 5229SOL     OW27665   8.070   6.794   8.060 -0.0750  0.7454  0.3815
 5229SOL    HW127666   8.077   6.823   7.968  0.5141 -0.4952  0.0121
 5229SOL    HW227667   8.156   6.758   8.080 -0.4878  0.1309  1.1096
 5230SOL     OW27668   3.793   0.354   7.096 -0.4259 -0.1821 -0.3330
 5230SOL    HW127669   3.873   0.328   7.141 -0.0730 -2.2292 -1.9774
 5230SOL    HW227670   3.822   0.416   7.029 -0.8102  2.0348  1.4355
 5231SOL     OW27671   7.430   0.242   3.014  0.2231 -0.4090  0.1331
 5231SOL    HW127672   7.414   0.335   3.032  0.3250 -0.4663  0.5530
 5231SOL    HW227673   7.432   0.201   3.101  0.8816 -0.6841 -0.0032
 5232SOL     OW27674  13.776  12.649  12.860 -0.2595 -0.3164 -0.3237
 5232SOL    HW127675  13.844  12.699  12.815 -0.0824 -0.2962 -0.0307
 5232SOL    HW227676  13.762  12.694  12.943  0.9587 -1.5837  0.6176
 5233SOL     OW27677  12.777   3.111   0.323 -0.6220 -0.1230  0.2131
 5233SOL    HW127678  12.715   3.056   0.371 -0.0134 -1.3193 -0.3424
 5233SOL    HW227679  12.722   3.177   0.281 -1.2688  0.2993  1.6617
 5234SOL     OW27680   8.858  11.255   7.437  0.6325 -0.0090  0.8740
 5234SOL    HW127681   8.945  11.234   7.470  0.8108  0.8798  0.9872
 5234SOL    HW227682   8.870  11.264   7.342  0.4112 -1.1118  0.7334
 5235SOL     OW27683   3.231   5.549   1.645 -0.1230 -0.8309 -0.1347
 5235SOL    HW127684   3.209   5.477   1.704 -0.4596 -1.1733 -0.6639
 5235SOL    HW227685   3.160   5.550   1.581 -0.8690  0.8986  0.6710
 5236SOL     OW27686  13.971  13.247   8.100  0.2143 -0.0642  0.4380
 5236SOL    HW127687  14.052  13.243   8.049 -0.4085 -1.2639 -0.5143
 5236SOL    HW227688  13.982  13.180   8.168  1.0642  1.5642  1.9960
 5237SOL     OW27689  10.261   2.925   5.499  0.0003 -0.7012 -0.1602
 5237SOL    HW127690  10.328   2.858   5.517  1.6765  0.6328 -1.1613
 5237SOL    HW227691  10.285   2.960   5.413 -1.9119 -0.0272 -0.4632
 5238SOL     OW27692   9.646   9.891  11.436  0.0581  0.4642 -0.2742
 5238SOL    HW127693   9.631   9.819  11.497  0.7861  0.2764 -0.3028
 5238SOL    HW227694   9.559   9.926  11.418 -0.3059 -0.3798 -0.2177
 5239SOL     OW27695  11.769   8.824  11.479  0.5355  0.1145 -0.5275
 5239SOL    HW127696  11.699   8.887  11.462 -0.5360 -1.1437 -1.0107
 5239SOL    HW227697  11.736   8.742  11.442  1.6100 -0.8714  0.6077
 5240SOL     OW27698  10.511   1.873   5.700  0.1905 -0.5007  0.3317
 5240SOL    HW127699  10.506   1.886   5.606 -1.0245  1.2150  0.5836
 5240SOL    HW227700  10.600   1.898   5.724 -0.0004  0.6671 -0.1516
 5241SOL     OW27701  11.802   9.926  11.842  0.5099 -0.3331  0.7953
 5241SOL    HW127702  11.708   9.909  11.839  0.2901  0.8593  0.8321
 5241SOL    HW227703  11.812   9.994  11.908  0.9905  2.1036 -1.6293
 5242SOL     OW27704   0.058   9.302   9.476 -0.0725 -0.0791  0.3797
 5242SOL    HW127705   0.066   9.303   9.380  1.9744  3.2842  0.4333
 5242SOL    HW227706  -0.036   9.311   9.492 -0.3236  1.0444 -1.3841
 5243SOL     OW27707  12.415   9.296  12.478 -0.1096 -0.2410 -0.2672
 5243SOL    HW127708  12.352   9.261  12.416 -1.2180  0.2287  0.5430
 5243SOL    HW227709  12.408   9.391  12.468 -0.0868 -0.1684  0.3553
 5244SOL     OW27710   7.383   2.082   6.664 -0.4522 -0.3563  0.5204
 5244SOL    HW127711   7.469   2.118   6.640  0.1317 -0.3301  2.4531
 5244SOL    HW227712   7.395   1.987   6.662 -0.5858 -0.3653  0.1119
 5245SOL     OW27713  13.338  12.939   1.442 -0.0700  0.9359  0.0233
 5245SOL    HW127714  13.320  12.958   1.534 -1.5473  2.1047 -0.4659
 5245SOL    HW227715  13.358  13.024   1.403  1.5885  0.3223 -0.5626
 5246SOL     OW27716   9.828   6.863   4.599 -0.4683 -0.5360  0.0767
 5246SOL    HW127717   9.809   6.809   4.522 -1.5278 -1.3711  0.8915
 5246SOL    HW227718   9.848   6.949   4.563  1.3051 -1.4377 -1.2626
 5247SOL     OW27719   4.496   7.486  11.666  0.0148  0.3034  0.4817
 5247SOL    HW127720   4.574   7.513  11.616  0.1838 -0.0034  0.5766
 5247SOL    HW227721   4.424   7.493  11.603 -0.1308  2.0077  0.7962
 5248SOL     OW27722   8.173  12.412  12.277 -0.4981  0.2892  0.6189
 5248SOL    HW127723   8.099  12.405  12.338  0.8068  2.3069  2.6099
 5248SOL    HW227724   8.184  12.506  12.264  2.3099  0.1411  1.2636
 5249SOL     OW27725  10.268   8.035   8.055  0.4008  0.6575  0.0868
 5249SOL    HW127726  10.296   7.964   8.113 -0.4492  0.2797  0.0347
 5249SOL    HW227727  10.249   7.993   7.972 -1.0067  0.7832  0.3202
 5250SOL     OW27728  12.375   3.997  13.542 -0.0599 -0.6153 -0.6770
 5250SOL    HW127729  12.402   3.996  13.450  0.8957 -0.8187 -0.4125
 5250SOL    HW227730  12.452   4.032  13.589 -1.3645  1.8425 -0.1884
 5251SOL     OW27731   9.827  12.664  13.164 -0.6753 -0.2602  0.0801
 5251SOL    HW127732   9.837  12.689  13.256  0.0603 -0.3219  0.0189
 5251SOL    HW227733   9.822  12.568  13.166 -0.4065 -0.2759  0.0355
 5252SOL     OW27734   7.127   5.925   5.094  0.2568  1.0157 -0.1889
 5252SOL    HW127735   7.126   5.949   5.186  0.6716  2.1380 -0.4600
 5252SOL    HW227736   7.110   5.831   5.093 -3.3446  1.5059  0.8411
 5253SOL     OW27737   2.424  12.700   5.774 -0.2760 -0.2238  0.3910
 5253SOL    HW127738   2.338  12.662   5.793 -0.6218 -0.7346 -1.9025
 5253SOL    HW227739   2.410  12.751   5.694  1.5928 -0.5773 -0.2098
 5254SOL     OW27740   4.528  11.567   0.155 -0.0378  0.2117 -0.0958
 5254SOL    HW127741   4.521  11.655   0.192  0.0459  1.0082 -1.8643
 5254SOL    HW227742   4.576  11.516   0.221 -0.3153  1.4105  1.0606
 5255SOL     OW27743  10.090   2.201   5.824  0.1279  0.2700 -0.4201
 5255SOL    HW127744  10.162   2.149   5.788  1.0567  0.3051  1.2977
 5255SOL    HW227745  10.126   2.290   5.833 -0.5471  0.5851 -0.6990
 5256SOL     OW27746  11.510   2.564   2.716  0.0612 -0.3110 -0.2669
 5256SOL    HW127747  11.555   2.484   2.689  1.5890  0.6093 -0.5761
 5256SOL    HW227748  11.541   2.631   2.655  0.0466  0.8496  0.9436
 5257SOL     OW27749   4.051   0.670   2.944  0.4911 -0.4440 -0.9632
 5257SOL    HW127750   3.990   0.597   2.949  0.2569 -0.3079 -1.6485
 5257SOL    HW227751   4.001   0.745   2.975  1.0211 -0.7224  0.6515
 5258SOL     OW27752  10.900   5.019   6.080  0.2199  0.3907 -0.2569
 5258SOL    HW127753  10.950   4.952   6.125  0.5912  0.4900 -0.5133
 5258SOL    HW227754  10.814   5.018   6.122  0.4227  0.1853  0.1538
 5259SOL     OW27755   0.338   4.239  13.868  0.2472  1.0418 -0.2539
 5259SOL    HW127756   0.354   4.292  13.790 -1.1731 -0.3228 -1.5470
 5259SOL    HW227757   0.243   4.238  13.877  0.2473 -0.8859 -0.0139
 5260SOL     OW27758   3.964   1.216   7.902  0.1441 -0.3324  1.3805
 5260SOL    HW127759   3.892   1.157   7.879 -0.2049 -0.4388  2.6762
 5260SOL    HW227760   4.041   1.176   7.863 -0.5076 -0.1312 -0.1679
 5261SOL     OW27761   3.241   6.534   0.280 -0.0515  0.4860 -0.1254
 5261SOL    HW127762   3.148   6.538   0.259  0.1460  0.3399 -1.0652
 5261SOL    HW227763   3.250   6.454   0.332 -0.2538 -0.2305 -1.1580
 5262SOL     OW27764   0.812   6.970   2.809 -0.2090 -0.2429  0.0116
 5262SOL    HW127765   0.758   6.892   2.798 -0.9574  0.1725  0.5682
 5262SOL    HW227766   0.902   6.939   2.802 -0.5137 -0.7847 -2.0629
 5263SOL     OW27767  12.572   0.243   4.217  1.4898 -0.4421 -0.0775
 5263SOL    HW127768  12.618   0.316   4.257  0.2099  0.2910  0.1187
 5263SOL    HW227769  12.532   0.197   4.291 -0.2772  0.4920 -0.4006
 5264SOL     OW27770   4.008   5.445   7.582 -0.8626 -1.2176  0.5593
 5264SOL    HW127771   4.027   5.539   7.584 -3.7131 -0.5403  3.1590
 5264SOL    HW227772   3.935   5.436   7.521  0.8646 -2.2125 -1.4889
 5265SOL     OW27773  10.074  13.170   4.245  0.3696  0.1643  0.1266
 5265SOL    HW127774  10.065  13.259   4.279 -0.3380  0.3203 -0.4333
 5265SOL    HW227775  10.104  13.182   4.155  0.6249 -0.1746  0.1685
 5266SOL     OW27776   5.626  12.513   9.709  0.0788 -0.0303 -0.2006
 5266SOL    HW127777   5.613  12.534   9.802  1.1239 -1.0227  0.1937
 5266SOL    HW227778   5.692  12.575   9.679  0.5179 -0.4005  0.0015
 5267SOL     OW27779  11.327   2.183  11.781 -0.0974  0.0127  0.1266
 5267SOL    HW127780  11.358   2.210  11.695  1.8559  0.0532  0.8019
 5267SOL    HW227781  11.233   2.170  11.770 -0.1272  1.4357 -1.6333
 5268SOL     OW27782  11.059  10.596  11.732  0.1573 -0.6485  0.2517
 5268SOL    HW127783  11.033  10.663  11.668 -0.0611  0.1539  1.1549
 5268SOL    HW227784  11.153  10.587  11.720  0.0461 -0.8377 -0.4961
 5269SOL     OW27785  13.042  11.677  12.617 -0.5243 -0.3030 -0.0220
 5269SOL    HW127786  13.080  11.701  12.532  0.1077  0.3034  0.4220
 5269SOL    HW227787  13.118  11.655  12.672 -1.0370 -2.7857 -0.2182
 5270SOL     OW27788   3.302   1.664   1.586  0.8312  0.0696  0.3221
 5270SOL    HW127789   3.215   1.668   1.626  0.4493 -0.7151 -0.4046
 5270SOL    HW227790   3.361   1.698   1.654  0.0308  0.0938  1.0218
 5271SOL     OW27791  13.830   4.301   5.284  0.0985  0.0392 -0.2510
 5271SOL    HW127792  13.864   4.278   5.198 -0.7139  1.7675 -1.0673
 5271SOL    HW227793  13.743   4.261   5.287 -0.2453  0.7649 -0.5997
 5272SOL     OW27794   4.858   1.749   4.146 -0.3720 -0.1772 -0.3232
 5272SOL    HW127795   4.841   1.746   4.052  0.1375 -0.0381 -0.4216
 5272SOL    HW227796   4.951   1.728   4.154 -0.5650 -0.8523  0.2033
 5273SOL     OW27797  13.218   4.076  11.932 -0.5180 -0.0342  0.3980
 5273SOL    HW127798  13.196   3.995  11.886 -0.4207  0.5905 -0.7630
 5273SOL    HW227799  13.141   4.095  11.986 -1.8999  0.8249 -1.7776
 5274SOL     OW27800  12.242  12.082  10.086 -0.0904  0.2954 -0.2376
 5274SOL    HW127801  12.229  11.998  10.041 -0.7884 -0.5668  1.5106
 5274SOL    HW227802  12.337  12.095  10.084  0.0975 -0.8714  0.0513
 5275SOL     OW27803   0.669   6.328   4.991 -0.4499 -0.0886  0.0327
 5275SOL    HW127804   0.738   6.276   5.032  1.1579  0.7666 -1.4551
 5275SOL    HW227805   0.629   6.376   5.064  2.0446  1.0765  0.7269
 5276SOL     OW27806   0.527   3.451  13.822  0.4385  0.0117 -0.2825
 5276SOL    HW127807   0.450   3.404  13.853  0.5617 -0.1778 -0.2570
 5276SOL    HW227808   0.498   3.541  13.812 -0.0858 -0.2548 -1.3305
 5277SOL     OW27809   2.747  11.436   0.389  0.0258 -0.2753 -0.3436
 5277SOL    HW127810   2.668  11.383   0.399  1.1969 -1.7515  1.8397
 5277SOL    HW227811   2.715  11.526   0.387 -1.7852 -0.8696 -0.8163
 5278SOL     OW27812   3.185  10.237   7.183 -0.1879 -0.3271 -0.7137
 5278SOL    HW127813   3.224  10.323   7.171 -0.4648 -0.3076 -1.5081
 5278SOL    HW227814   3.120  10.230   7.113 -2.3082  0.0320  1.1137
 5279SOL     OW27815  12.496   7.782   6.773  0.3822 -0.3675 -0.3296
 5279SOL    HW127816  12.591   7.791   6.781  0.5098 -1.5119 -0.3639
 5279SOL    HW227817  12.461   7.864   6.808  1.3757 -0.0171 -0.1253
 5280SOL     OW27818  11.021   4.182   9.242  0.1730 -0.4172  0.2394
 5280SOL    HW127819  11.016   4.198   9.337 -1.4178 -0.6835  0.2343
 5280SOL    HW227820  10.968   4.252   9.203  0.9649 -0.2007 -0.4908
 5281SOL     OW27821   0.677   0.497  12.592 -0.0206 -0.6676 -0.4812
 5281SOL    HW127822   0.660   0.545  12.512  2.3036 -3.1057 -2.6389
 5281SOL    HW227823   0.712   0.563  12.653 -1.7225  1.2088 -1.4397
 5282SOL     OW27824   0.901  10.043   0.642 -0.1983  0.3073  0.9924
 5282SOL    HW127825   0.978  10.016   0.692  0.0746 -0.5312  0.1456
 5282SOL    HW227826   0.845  10.086   0.706 -1.0535 -3.0078  2.6879
 5283SOL     OW27827   5.896   2.352  13.282 -0.3387  0.1333  0.5694
 5283SOL    HW127828   5.834   2.284  13.252  0.6309 -0.9616  0.9923
 5283SOL    HW227829   5.857   2.385  13.363 -0.7680  0.0064  0.4202
 5284SOL     OW27830   9.430   1.699  13.447 -0.1559 -0.4885 -0.3570
 5284SOL    HW127831   9.472   1.769  13.497 -1.2668  1.1829 -1.6502
 5284SOL    HW227832   9.429   1.624  13.507  0.4239  0.8044  1.3618
 5285SOL     OW27833   8.316   0.896   1.957  0.3908 -0.2729  0.8804
 5285SOL    HW127834   8.224   0.887   1.982  0.2028 -0.9089 -0.0290
 5285SOL    HW227835   8.343   0.809   1.929  1.2215 -0.0487  0.9459
 5286SOL     OW27836   0.015  11.943   1.204 -0.3080  0.5384 -0.3094
 5286SOL    HW127837   0.016  11.848   1.209 -0.0742  0.5602  0.1306
 5286SOL    HW227838  -0.077  11.966   1.198 -0.4215  0.3185  0.4321
 5287SOL     OW27839   6.884   3.227   1.233 -0.3379 -0.2103 -0.0755
 5287SOL    HW127840   6.806   3.248   1.182  0.2007  1.6383 -0.1884
 5287SOL    HW227841   6.852   3.171   1.303 -1.6166 -0.1691 -0.5969
 5288SOL     OW27842  11.843   1.415  12.240  0.4873 -0.4778 -0.2972
 5288SOL    HW127843  11.780   1.486  12.251 -0.1238 -0.9602 -0.5577
 5288SOL    HW227844  11.878   1.399  12.327  2.3722  1.6752 -0.5838
 5289SOL     OW27845   6.811   9.189  12.374  0.0793  0.0082  0.0726
 5289SOL    HW127846   6.729   9.146  12.399  0.4852 -0.0709  1.2992
 5289SOL    HW227847   6.875   9.157  12.437  0.7829  1.0736 -0.0813
 5290SOL     OW27848   6.043   3.080   6.210 -0.2827 -0.4023 -0.4530
 5290SOL    HW127849   6.026   2.987   6.201 -1.4919 -0.2986  0.5243
 5290SOL    HW227850   6.129   3.085   6.252 -0.1846 -1.0572 -0.5662
 5291SOL     OW27851   8.065  12.604   0.352 -0.3938  0.2070  0.3440
 5291SOL    HW127852   8.079  12.518   0.313  0.4751  0.1500  0.7689
 5291SOL    HW227853   8.139  12.616   0.411  0.0070  1.6472 -0.4151
 5292SOL     OW27854   6.299   7.764  11.772 -0.1945  0.1754  0.4105
 5292SOL    HW127855   6.381   7.812  11.769 -0.6460  0.9315 -1.5614
 5292SOL    HW227856   6.232   7.828  11.748 -0.8689 -1.2828 -1.9550
 5293SOL     OW27857   7.290  10.804  13.533  0.0871 -0.3589  0.3142
 5293SOL    HW127858   7.227  10.734  13.547 -0.3523 -0.1517 -0.5210
 5293SOL    HW227859   7.357  10.766  13.476 -0.3819  0.0132 -0.5000
 5294SOL     OW27860  11.174  13.338   9.030 -0.1292 -0.3405  0.0397
 5294SOL    HW127861  11.193  13.427   9.004 -0.0313 -0.7727 -1.4324
 5294SOL    HW227862  11.205  13.332   9.121 -1.2294  1.4397  0.5674
 5295SOL     OW27863  11.314  12.780  12.428  0.0328  0.0002 -0.4463
 5295SOL    HW127864  11.361  12.718  12.371  1.6805  2.6396 -2.1431
 5295SOL    HW227865  11.223  12.774  12.399 -0.3151 -3.0205  0.8559
 5296SOL     OW27866   6.832  13.989   4.255  0.2764 -0.1993 -0.4865
 5296SOL    HW127867   6.824  14.026   4.167  0.9921  3.5455  0.8333
 5296SOL    HW227868   6.773  14.043   4.308 -1.0963 -3.1459  1.2428
 5297SOL     OW27869   8.615  13.157   4.551 -0.1465  0.5861  0.2266
 5297SOL    HW127870   8.646  13.237   4.593 -0.8316  1.0937 -0.2083
 5297SOL    HW227871   8.682  13.136   4.486  0.8724 -0.1528  1.4806
 5298SOL     OW27872   6.338   6.145   0.627  0.2391  0.0346  0.5171
 5298SOL    HW127873   6.253   6.179   0.598 -0.4030 -0.6453  1.5479
 5298SOL    HW227874   6.340   6.056   0.594  0.0572 -0.3163  1.4253
 5299SOL     OW27875  12.120   6.364  11.523  0.0541  0.3264  0.3060
 5299SOL    HW127876  12.031   6.343  11.495  0.4123 -0.1462 -0.5142
 5299SOL    HW227877  12.109   6.417  11.602 -0.9140 -1.1657  1.2075
 5300SOL     OW27878   3.447   2.669   4.086  0.5979  0.6666 -0.1559
 5300SOL    HW127879   3.406   2.686   4.002 -1.2734 -1.2761  0.2551
 5300SOL    HW227880   3.432   2.748   4.138  0.9780  1.5250 -1.3278
 5301SOL     OW27881   9.738   2.655   1.069 -0.0152 -0.4003 -1.0331
 5301SOL    HW127882   9.687   2.575   1.075  0.7706 -0.8635 -0.4010
 5301SOL    HW227883   9.673   2.724   1.056 -1.0454 -0.6392  2.0827
 5302SOL     OW27884   0.977   6.032   9.403  0.0477  0.0342 -0.3321
 5302SOL    HW127885   0.917   5.984   9.346 -0.3825 -0.7317  0.7319
 5302SOL    HW227886   0.925   6.055   9.479  0.8665  0.2001  0.1941
 5303SOL     OW27887  12.223   9.630   7.394  0.2955 -0.1378  1.2471
 5303SOL    HW127888  12.290   9.621   7.326 -0.6808  0.2982  0.1886
 5303SOL    HW227889  12.231   9.720   7.424  0.1565 -0.0741  1.0931
 5304SOL     OW27890  11.177   0.673   2.372  1.0559 -0.0017 -0.5619
 5304SOL    HW127891  11.149   0.725   2.297 -0.0519  0.9239  0.4648
 5304SOL    HW227892  11.189   0.736   2.443  1.8669 -0.8822  0.1099
 5305SOL     OW27893   3.660  13.986   9.721 -0.2163 -0.0066  0.1406
 5305SOL    HW127894   3.711  13.917   9.765 -0.8366 -0.0094  0.8648
 5305SOL    HW227895   3.711  14.066   9.734  0.5538 -0.3254 -0.7822
 5306SOL     OW27896   7.792   0.103   5.177 -0.5648  0.1334 -0.3058
 5306SOL    HW127897   7.749   0.185   5.200 -0.0081  0.1958  0.5790
 5306SOL    HW227898   7.828   0.071   5.260  1.4265  0.2802 -1.0643
 5307SOL     OW27899   0.265   0.803   6.956  0.0777  0.0082 -0.0836
 5307SOL    HW127900   0.229   0.791   7.044 -0.7392  1.6624 -0.1629
 5307SOL    HW227901   0.354   0.836   6.970 -0.2995  0.9561  0.1398
 5308SOL     OW27902   4.022  10.732   3.094 -0.1628 -0.0272 -0.1984
 5308SOL    HW127903   4.097  10.756   3.149 -1.4623 -0.4972  1.8723
 5308SOL    HW227904   4.050  10.756   3.005  2.1743  0.4050  0.5655
 5309SOL     OW27905   4.467  11.940   6.721 -0.6065 -0.0611 -0.6389
 5309SOL    HW127906   4.406  11.948   6.648  1.4773  1.8267 -2.3165
 5309SOL    HW227907   4.439  12.006   6.784 -2.8033 -2.1254  0.7000
 5310SOL     OW27908   4.500   8.871   1.760  0.2482  0.3526 -0.0092
 5310SOL    HW127909   4.554   8.885   1.682  0.4770  0.7845  0.2221
 5310SOL    HW227910   4.438   8.802   1.735  0.0572  0.7667 -0.7012
 5311SOL     OW27911   2.843   3.713  12.890 -0.2847  0.4961  0.3491
 5311SOL    HW127912   2.830   3.685  12.980 -1.5560  1.6947  0.5680
 5311SOL    HW227913   2.926   3.761  12.891  1.6430 -2.5789  0.0736
 5312SOL     OW27914   6.737   9.638  10.556 -0.2472 -0.3977  0.4078
 5312SOL    HW127915   6.726   9.642  10.651 -0.5460 -0.1643  0.3646
 5312SOL    HW227916   6.751   9.545  10.538 -0.6785 -0.5095  0.6306
 5313SOL     OW27917  13.981   2.224   7.251 -0.4723 -0.2879 -0.0376
 5313SOL    HW127918  13.912   2.289   7.266  1.2011  2.2105 -2.2454
 5313SOL    HW227919  14.060   2.276   7.236  1.7949 -3.0024  1.5146
 5314SOL     OW27920  11.703  12.401   4.576 -0.2884 -0.7224 -0.1417
 5314SOL    HW127921  11.749  12.326   4.614  1.0971  0.9328  1.6408
 5314SOL    HW227922  11.649  12.435   4.647  2.3656  2.4489  0.5831
 5315SOL     OW27923   1.452   9.280  13.933  0.0356 -0.1000 -0.5734
 5315SOL    HW127924   1.450   9.287  14.028  0.9703 -1.1095 -0.4563
 5315SOL    HW227925   1.542   9.254  13.913 -0.3471 -0.6483 -1.6755
 5316SOL     OW27926   5.925   9.090  13.355 -0.6468  0.2022 -0.3109
 5316SOL    HW127927   5.925   9.022  13.287 -0.9604  1.8590 -2.0626
 5316SOL    HW227928   6.007   9.077  13.403 -1.3625 -2.2754  0.3803
 5317SOL     OW27929   7.671  10.895  11.090 -0.6629 -0.0133  0.4660
 5317SOL    HW127930   7.698  10.957  11.157  0.8218 -0.7256  0.5497
 5317SOL    HW227931   7.658  10.949  11.012 -2.4676  0.8319  1.2822
 5318SOL     OW27932   9.145  13.783   6.131  0.5676  0.2407  0.3781
 5318SOL    HW127933   9.133  13.865   6.082 -2.5750  0.3159  1.0394
 5318SOL    HW227934   9.094  13.718   6.083  0.1699 -0.4844  1.7226
 5319SOL     OW27935  13.639   1.349   5.587  0.3620 -0.1358  0.4161
 5319SOL    HW127936  13.701   1.360   5.515  0.3922 -0.2140  0.4303
 5319SOL    HW227937  13.692   1.363   5.666  0.0918  1.1181  0.3990
 5320SOL     OW27938  13.896   3.296   2.253 -0.2036  0.0031 -0.3604
 5320SOL    HW127939  13.802   3.298   2.238 -0.7840 -0.6438  2.6329
 5320SOL    HW227940  13.909   3.346   2.333  1.3461 -3.5466  1.8392
 5321SOL     OW27941   8.138  12.344  12.830  0.0888 -0.8454  0.2132
 5321SOL    HW127942   8.211  12.356  12.769  0.9141 -1.4687  1.0567
 5321SOL    HW227943   8.099  12.432  12.839  0.7884 -0.4909 -0.1757
 5322SOL     OW27944  10.060   1.197   2.115 -0.9811  0.3777 -0.3664
 5322SOL    HW127945  10.053   1.153   2.031 -0.8622 -0.4096  0.0328
 5322SOL    HW227946   9.998   1.270   2.109 -2.8916 -1.1762 -0.1847
 5323SOL     OW27947   1.745   4.112   1.154 -0.4700 -0.0627  0.0680
 5323SOL    HW127948   1.692   4.186   1.184 -1.5303 -0.9812  0.4964
 5323SOL    HW227949   1.694   4.073   1.083  0.9281  0.6633 -1.4144
 5324SOL     OW27950  12.625   6.320   6.681  0.0650 -0.2127  0.0767
 5324SOL    HW127951  12.609   6.383   6.751  1.3584 -0.8169  0.9532
 5324SOL    HW227952  12.720   6.323   6.668 -0.2370  0.9027 -2.6350
 5325SOL     OW27953   4.209   8.875   1.043  0.1329  0.4558  0.2363
 5325SOL    HW127954   4.240   8.965   1.045 -0.0426  0.5660 -1.0391
 5325SOL    HW227955   4.271   8.830   0.986 -1.1399  0.3439 -1.1437
 5326SOL     OW27956  10.040  11.420   2.272  0.2431  0.0868  0.1078
 5326SOL    HW127957  10.105  11.449   2.336  0.6096  1.0336 -0.6854
 5326SOL    HW227958  10.047  11.482   2.200 -1.2352 -0.0536 -0.1854
 5327SOL     OW27959   9.288  11.163  11.686 -0.0709 -0.3009  0.6758
 5327SOL    HW127960   9.368  11.211  11.664 -0.0948  1.1123  3.2518
 5327SOL    HW227961   9.236  11.165  11.606  0.4743  2.9999  0.2462
 5328SOL     OW27962  13.849   3.558  12.316 -0.1858 -0.0754  0.1755
 5328SOL    HW127963  13.935   3.552  12.358 -0.3885  1.5081  0.8927
 5328SOL    HW227964  13.791   3.591  12.385 -0.3938  3.3495 -1.4099
 5329SOL     OW27965   0.278   2.063  14.037  0.2870  0.0759  0.5616
 5329SOL    HW127966   0.229   2.143  14.018  1.5912  0.4555 -1.4723
 5329SOL    HW227967   0.235   1.996  13.984  1.3688  0.2187 -0.5250
 5330SOL     OW27968   4.643  10.070  10.802  0.4417  1.1182 -0.2181
 5330SOL    HW127969   4.594  10.112  10.732 -0.2313  1.8743  0.6746
 5330SOL    HW227970   4.688  10.142  10.846  1.7102  0.5259 -0.5067
 5331SOL     OW27971   6.047   1.467  10.300 -0.6014  0.2611  0.4459
 5331SOL    HW127972   6.006   1.504  10.379 -0.5927 -0.6550  0.8886
 5331SOL    HW227973   6.097   1.392  10.332  1.2309  1.1867 -0.1158
 5332SOL     OW27974   6.762   8.833   0.622 -0.1916  0.3879 -0.0219
 5332SOL    HW127975   6.741   8.772   0.551 -0.0262  0.2151  0.0746
 5332SOL    HW227976   6.684   8.832   0.678  0.3988 -0.9674  0.8343
 5333SOL     OW27977  12.006   0.763  13.113  0.0896 -0.0785 -0.3321
 5333SOL    HW127978  12.051   0.716  13.043 -0.2585 -3.3247  1.4073
 5333SOL    HW227979  11.918   0.726  13.114  0.5295 -1.3149  2.6870
 5334SOL     OW27980   2.075   3.700  11.567 -0.7168 -0.9758  0.2304
 5334SOL    HW127981   2.153   3.734  11.524 -0.3931 -0.4016  1.2424
 5334SOL    HW227982   2.004   3.757  11.537 -0.5628 -0.8225  0.1554
 5335SOL     OW27983   2.199   5.346   9.499  0.5219  0.2485 -0.2969
 5335SOL    HW127984   2.231   5.434   9.519 -0.2489  0.6183 -0.6219
 5335SOL    HW227985   2.169   5.311   9.583 -0.4840  0.8573 -0.3876
 5336SOL     OW27986   3.452   0.353   4.101 -0.3782  0.3010 -0.3679
 5336SOL    HW127987   3.417   0.441   4.113 -2.3129 -0.6004  1.1425
 5336SOL    HW227988   3.377   0.295   4.112  0.9748 -1.5988 -0.5662
 5337SOL     OW27989   3.382  12.614   2.518  0.4113 -0.1395  0.0262
 5337SOL    HW127990   3.378  12.547   2.588  1.3301  0.2140  0.4271
 5337SOL    HW227991   3.465  12.598   2.475  1.2940  1.5932  0.9987
 5338SOL     OW27992   1.424   2.850   6.002  0.2943 -0.0873 -0.0234
 5338SOL    HW127993   1.479   2.843   5.924 -0.0917  0.5219 -0.3533
 5338SOL    HW227994   1.485   2.838   6.075  0.6537 -0.6889 -0.4070
 5339SOL     OW27995  13.517  11.859   2.129 -0.0102 -0.3182 -0.8234
 5339SOL    HW127996  13.551  11.786   2.078  0.6042 -0.8553  0.3258
 5339SOL    HW227997  13.460  11.818   2.195  0.7279  0.1764  0.1444
 5340SOL     OW27998   7.892  10.150   0.182 -0.2981  0.0939  0.0376
 5340SOL    HW127999   7.975  10.198   0.186  0.2004 -0.7635  0.2648
 5340SOL    HW228000   7.916  10.065   0.144 -1.4287  0.5776 -1.9191
 5341SOL     OW28001  11.087   4.491   4.542 -0.4098 -0.3710  0.0996
 5341SOL    HW128002  11.078   4.412   4.489 -0.5295 -0.1882 -0.1523
 5341SOL    HW228003  11.179   4.493   4.568 -0.4381 -0.6710  0.2295
 5342SOL     OW28004   6.738  13.359   9.810  0.1480  0.2837  0.5554
 5342SOL    HW128005   6.678  13.285   9.801 -0.7283  0.6738  2.6607
 5342SOL    HW228006   6.764  13.380   9.720 -0.2695 -1.9917 -0.1445
 5343SOL     OW28007   5.038  12.812  13.815 -0.1814  0.4047  0.1969
 5343SOL    HW128008   5.089  12.823  13.895  0.2787 -2.5804  0.4440
 5343SOL    HW228009   5.104  12.799  13.747 -0.5367 -1.1040  0.0994
 5344SOL     OW28010   4.446  12.264  10.463  0.4725 -0.6278  0.0592
 5344SOL    HW128011   4.363  12.243  10.421  0.3164  2.4683 -1.4114
 5344SOL    HW228012   4.508  12.200  10.427 -0.6940 -1.2407 -0.9459
 5345SOL     OW28013  10.648  11.082  11.673 -0.2699  0.2662 -0.4034
 5345SOL    HW128014  10.740  11.080  11.646 -0.3580 -0.3056 -0.6569
 5345SOL    HW228015  10.631  11.175  11.692  0.2982  0.4050 -0.5625
 5346SOL     OW28016  10.539   3.556   2.958 -0.1120  0.3435 -0.1899
 5346SOL    HW128017  10.536   3.651   2.947 -0.0742  0.1643 -2.1207
 5346SOL    HW228018  10.623   3.530   2.922 -1.4614 -0.7057 -2.8826
 5347SOL     OW28019   9.094  10.536  12.164 -0.2582  0.6521  0.4430
 5347SOL    HW128020   9.079  10.622  12.204  0.7962  1.3124 -0.5076
 5347SOL    HW228021   9.189  10.526  12.164 -0.2845  0.1876 -0.8544
 5348SOL     OW28022  13.333   8.611   7.488  0.2398 -0.2617  0.1357
 5348SOL    HW128023  13.344   8.528   7.535  0.8156 -0.6561 -0.6852
 5348SOL    HW228024  13.262   8.656   7.535  0.2069 -1.0345  0.8371
 5349SOL     OW28025   8.336   5.190  14.000 -0.2760 -0.4590  0.0603
 5349SOL    HW128026   8.379   5.134  13.934 -0.2404 -0.0784 -0.2410
 5349SOL    HW228027   8.244   5.189  13.975 -0.2286 -0.1277 -0.1360
 5350SOL     OW28028   6.897   1.596  13.650 -0.0337 -0.9386 -0.3196
 5350SOL    HW128029   6.981   1.633  13.621  0.0630  0.4375  1.5629
 5350SOL    HW228030   6.920   1.509  13.682  0.5969 -0.7610 -0.2714
 5351SOL     OW28031   0.990  12.348   8.321 -0.8148  0.2051 -0.1348
 5351SOL    HW128032   1.023  12.298   8.246  0.2420  0.8343 -0.1040
 5351SOL    HW228033   1.015  12.438   8.303 -0.0496  0.2945  1.2213
 5352SOL     OW28034   1.991   3.414   1.889 -0.6303 -0.1138  0.0553
 5352SOL    HW128035   1.913   3.389   1.839 -2.2000  3.1921  0.5959
 5352SOL    HW228036   2.062   3.416   1.824 -1.4563 -1.0637 -0.9041
 5353SOL     OW28037   3.296   2.746   7.804 -0.3065  0.0770 -0.2644
 5353SOL    HW128038   3.321   2.659   7.834 -1.9957 -1.4859 -2.9900
 5353SOL    HW228039   3.370   2.776   7.752 -0.1704 -0.2118 -0.2382
 5354SOL     OW28040   9.710   2.681   8.663  0.8072 -0.1636 -0.0094
 5354SOL    HW128041   9.695   2.622   8.589  0.3318 -0.9087  0.6672
 5354SOL    HW228042   9.645   2.655   8.728  0.4859  1.2286  0.2477
 5355SOL     OW28043   5.638   2.055   3.216 -0.0937 -0.6317  0.1702
 5355SOL    HW128044   5.725   2.094   3.206 -0.0926 -0.9513 -1.2647
 5355SOL    HW228045   5.592   2.114   3.275  1.8662 -1.7342  3.0575
 5356SOL     OW28046  10.226   4.422   0.210  0.3850 -0.3761 -0.3615
 5356SOL    HW128047  10.231   4.503   0.158  0.1366  0.3498  0.7156
 5356SOL    HW228048  10.220   4.352   0.144 -0.3723  0.5469 -1.3122
 5357SOL     OW28049   1.530   3.142   4.683  0.1872 -0.1665 -0.1926
 5357SOL    HW128050   1.509   3.085   4.609 -3.4570 -1.2642  1.4588
 5357SOL    HW228051   1.571   3.084   4.747  2.6357  0.6271 -0.9107
 5358SOL     OW28052   0.222   3.797  11.084  0.3608  0.1606 -0.2607
 5358SOL    HW128053   0.176   3.714  11.098  0.1406 -0.0227 -1.8744
 5358SOL    HW228054   0.311   3.770  11.058  0.5282  0.4421  0.0288
 5359SOL     OW28055  11.016  13.949   1.661  0.4866  0.1191  0.5795
 5359SOL    HW128056  11.054  14.031   1.692  1.4177 -0.9112  2.3447
 5359SOL    HW228057  10.928  13.973   1.632  1.3065  2.0127 -0.5526
 5360SOL     OW28058   4.519   0.483   6.165  0.0986  0.3126 -0.5884
 5360SOL    HW128059   4.452   0.551   6.160 -0.4999 -0.2820 -0.9148
 5360SOL    HW228060   4.582   0.516   6.228  0.7925  1.9951 -2.0788
 5361SOL     OW28061   3.076  11.075   8.691 -0.1510  0.0038  0.2008
 5361SOL    HW128062   3.073  11.158   8.738  0.3376  0.0885  0.0850
 5361SOL    HW228063   2.995  11.074   8.640 -0.7586 -0.1563  1.1387
 5362SOL     OW28064   3.429   6.423   2.430 -0.3915  0.0606 -0.5259
 5362SOL    HW128065   3.373   6.347   2.414  0.0809 -0.4087  0.0163
 5362SOL    HW228066   3.500   6.414   2.367 -0.1459 -0.1486 -0.2244
 5363SOL     OW28067  11.228   2.491  10.352 -0.2594 -0.4742 -0.3438
 5363SOL    HW128068  11.207   2.416  10.296 -1.8029  0.0379 -0.5061
 5363SOL    HW228069  11.170   2.481  10.428  2.1019 -1.4035  1.4591
 5364SOL     OW28070   4.182  12.825   6.629 -0.2282 -0.1505 -0.1518
 5364SOL    HW128071   4.231  12.758   6.676 -0.2440 -0.9286 -1.2034
 5364SOL    HW228072   4.157  12.783   6.547 -1.0594  0.8453 -0.4257
 5365SOL     OW28073   2.879   7.633  12.214 -0.3169  0.1243  0.4147
 5365SOL    HW128074   2.810   7.700  12.217 -0.4484  0.0111  0.0058
 5365SOL    HW228075   2.832   7.551  12.197 -0.0242  0.1327 -0.4532
 5366SOL     OW28076   7.099  12.023  12.494  0.0806  0.2028  0.2281
 5366SOL    HW128077   7.138  11.989  12.413  0.0109 -0.2128  0.3647
 5366SOL    HW228078   7.016  11.976  12.502 -0.0745  0.5010  0.3576
 5367SOL     OW28079   9.240   8.167   6.772  0.1692 -0.3520 -0.0304
 5367SOL    HW128080   9.245   8.206   6.859 -0.1574  1.1106 -0.6495
 5367SOL    HW228081   9.331   8.165   6.742 -0.0016  2.5838 -1.0809
 5368SOL     OW28082  11.561   4.015   1.597 -0.0886  0.5513 -0.2489
 5368SOL    HW128083  11.555   3.990   1.505  1.4352  1.4111 -0.6112
 5368SOL    HW228084  11.493   4.082   1.608 -3.6216 -2.7736  0.5244
 5369SOL     OW28085   6.323  12.818   8.609 -0.0450 -0.1166  0.5863
 5369SOL    HW128086   6.272  12.868   8.546 -1.1165  0.3057  1.7405
 5369SOL    HW228087   6.258  12.766   8.657  0.8053 -0.8995  0.9307
 5370SOL     OW28088   1.925   5.007  12.558 -0.1472 -0.2468 -0.5404
 5370SOL    HW128089   1.979   5.056  12.497  0.8176  0.0946  0.5526
 5370SOL    HW228090   1.836   5.013  12.522  0.0295  1.8720 -0.7256
 5371SOL     OW28091   1.785  10.707   2.831  0.3585 -0.4451 -0.2851
 5371SOL    HW128092   1.850  10.638   2.843  0.5056 -0.2546  0.0246
 5371SOL    HW228093   1.704  10.660   2.812  0.5341 -0.6914 -0.4370
 5372SOL     OW28094  12.802   3.411  11.659 -0.9458  0.2397  0.0353
 5372SOL    HW128095  12.839   3.324  11.674 -0.9275  0.0409 -1.0879
 5372SOL    HW228096  12.738   3.398  11.588 -1.0075  1.1212 -0.0804
 5373SOL     OW28097   0.151  13.816   2.538  0.3397  0.0804  0.2443
 5373SOL    HW128098   0.107  13.731   2.528 -0.2495  0.4260 -0.1318
 5373SOL    HW228099   0.139  13.859   2.454  0.2559  0.7152  0.5750
 5374SOL     OW28100   5.498  10.199  11.708  0.1348  0.0608  0.0438
 5374SOL    HW128101   5.403  10.190  11.723  0.6604 -3.0238  2.5897
 5374SOL    HW228102   5.523  10.118  11.665  1.5626  1.3294 -1.6555
 5375SOL     OW28103  11.863   6.156   0.861 -0.0436 -0.0406  0.0519
 5375SOL    HW128104  11.778   6.141   0.901 -0.1937 -2.0613 -0.9389
 5375SOL    HW228105  11.916   6.194   0.931 -1.9089  1.9186  0.4919
 5376SOL     OW28106  12.527   0.971  10.664 -0.2135  0.2799  0.2292
 5376SOL    HW128107  12.569   1.054  10.689 -2.7236  1.4865  0.7782
 5376SOL    HW228108  12.521   0.976  10.569  0.3936  0.3316  0.1902
 5377SOL     OW28109  11.691   6.904   8.016  0.3621  0.5839  0.1805
 5377SOL    HW128110  11.703   6.809   8.022 -0.1240  0.3646 -1.6137
 5377SOL    HW228111  11.773   6.936   7.979  0.8639  1.0117  1.5972
 5378SOL     OW28112   6.168  12.918  10.999 -0.5164  0.3966  0.7634
 5378SOL    HW128113   6.161  12.924  10.903  1.3210  3.0339  0.6964
 5378SOL    HW228114   6.100  12.978  11.031  0.4006  1.3477  0.9889
 5379SOL     OW28115   4.132   5.828   6.702  0.2505  0.4396 -0.2358
 5379SOL    HW128116   4.224   5.852   6.716  0.0758  0.2489  1.3235
 5379SOL    HW228117   4.129   5.734   6.718 -0.3412  0.5565  0.3622
 5380SOL     OW28118   3.372   5.628  10.507  0.3006  0.8007  0.0308
 5380SOL    HW128119   3.467   5.635  10.505  0.2041  2.1994 -0.3727
 5380SOL    HW228120   3.350   5.632  10.600  0.6872 -0.7353  0.2190
 5381SOL     OW28121   4.260  13.527   1.022 -0.2496 -0.2858  0.1584
 5381SOL    HW128122   4.286  13.491   0.938  1.2873 -1.7755  1.2142
 5381SOL    HW228123   4.185  13.474   1.049 -0.2563 -0.3186  0.0730
 5382SOL     OW28124   9.552  12.757   9.689 -0.1173 -0.0362  0.0787
 5382SOL    HW128125   9.615  12.777   9.758  0.0121 -0.4607  0.0856
 5382SOL    HW228126   9.602  12.708   9.624 -0.4440 -0.4186  0.1042
 5383SOL     OW28127   8.410   7.498  12.449 -0.5367  1.0766  0.2472
 5383SOL    HW128128   8.462   7.501  12.530 -3.1032 -3.3392  2.3880
 5383SOL    HW228129   8.372   7.586  12.442  1.7317  2.3644  2.3039
 5384SOL     OW28130  12.653   9.112  13.981 -0.7609 -0.2932 -0.2427
 5384SOL    HW128131  12.722   9.165  13.940  0.1716 -1.0045  0.3494
 5384SOL    HW228132  12.617   9.170  14.049  0.5538 -0.5085  0.7016
 5385SOL     OW28133   1.914   6.754  10.609 -0.2284  0.0013  0.6049
 5385SOL    HW128134   1.841   6.703  10.575 -1.0783  0.0062  2.3065
 5385SOL    HW228135   1.899   6.843  10.575 -1.1724  0.0573  1.1254
 5386SOL     OW28136   3.331  12.134   1.029 -0.3441  0.1669 -0.0210
 5386SOL    HW128137   3.341  12.215   1.079 -0.4573 -0.1036  0.4498
 5386SOL    HW228138   3.264  12.084   1.077  0.9403 -0.9471  0.6851
 5387SOL     OW28139   7.052   8.743  13.872 -0.4572  0.2488  0.3273
 5387SOL    HW128140   7.056   8.651  13.848 -0.0065  0.6156 -1.0529
 5387SOL    HW228141   7.117   8.786  13.817 -0.3269  1.3393  1.2744
 5388SOL     OW28142   4.472   1.386   0.953 -0.1482 -0.5950 -0.4017
 5388SOL    HW128143   4.542   1.382   0.888  2.3436  1.6467  1.9149
 5388SOL    HW228144   4.495   1.321   1.018 -1.6136 -1.5291 -0.7677
 5389SOL     OW28145   3.272   2.505   4.253  0.2085  0.7212  0.2340
 5389SOL    HW128146   3.180   2.507   4.226  0.1601  0.3761  0.3671
 5389SOL    HW228147   3.319   2.544   4.180 -0.1740  2.1334  0.7152
 5390SOL     OW28148   4.831   5.254   5.510  0.2374 -0.2604 -0.0549
 5390SOL    HW128149   4.890   5.307   5.458  1.0599 -0.9219  0.1920
 5390SOL    HW228150   4.837   5.166   5.473  0.1959 -0.5537  0.6108
 5391SOL     OW28151   0.023   4.310  12.595 -0.9942 -0.1369  0.0322
 5391SOL    HW128152   0.054   4.226  12.564 -1.0552 -0.2673  0.3192
 5391SOL    HW228153  -0.015   4.352  12.518 -1.5324 -0.6336  0.0181
 5392SOL     OW28154   7.615  11.799   5.662  0.1318  0.4908  0.4948
 5392SOL    HW128155   7.619  11.742   5.739 -1.1564 -1.9505 -1.0881
 5392SOL    HW228156   7.600  11.739   5.589  0.3392  2.7754 -1.5591
 5393SOL     OW28157  13.989   2.928  13.988 -0.3045 -0.7632 -0.3764
 5393SOL    HW128158  13.931   2.968  14.053 -0.3812  0.6553 -1.2674
 5393SOL    HW228159  13.930   2.893  13.922 -0.2295 -2.2788  0.3256
 5394SOL     OW28160   9.528   0.327   0.160  0.4252  0.8870 -0.1263
 5394SOL    HW128161   9.502   0.361   0.246 -0.4310 -0.3981  0.1523
 5394SOL    HW228162   9.534   0.405   0.105 -3.9761  1.4249 -0.2032
 5395SOL     OW28163   1.426   7.625  12.389  0.2080 -0.2216  0.4620
 5395SOL    HW128164   1.408   7.669  12.472 -2.4084  0.0839 -0.1713
 5395SOL    HW228165   1.339   7.602  12.355  0.9225  1.8876 -3.3309
 5396SOL     OW28166  10.269   1.570   0.141 -0.3126 -0.4658 -0.2840
 5396SOL    HW128167  10.259   1.552   0.234 -1.7461  1.1153 -0.0895
 5396SOL    HW228168  10.179   1.576   0.108  0.1137  1.6396 -1.2021
 5397SOL     OW28169  10.032   9.671   8.172 -0.2232  0.4751 -0.0778
 5397SOL    HW128170  10.035   9.766   8.190 -0.1382  0.4130  0.2482
 5397SOL    HW228171  10.124   9.645   8.168 -0.2318  0.5520 -0.9930
 5398SOL     OW28172   0.751  12.425   0.687 -0.1176  0.1285  0.5389
 5398SOL    HW128173   0.689  12.428   0.759 -0.5650  0.1476  0.1610
 5398SOL    HW228174   0.717  12.488   0.624  0.2171  0.0462  0.2721
 5399SOL     OW28175  11.079  11.586  10.188 -0.3246  0.2805 -0.1585
 5399SOL    HW128176  11.090  11.681  10.186  1.6855  0.1357 -3.4572
 5399SOL    HW228177  11.152  11.555  10.242 -0.0146  0.5468 -0.4211
 5400SOL     OW28178   8.852   6.061   4.288 -0.0022  0.2242 -0.4302
 5400SOL    HW128179   8.836   6.131   4.351  0.6307 -1.7703  2.0620
 5400SOL    HW228180   8.947   6.053   4.285 -0.0795 -0.7074 -0.4979
 5401SOL     OW28181   4.454   5.014   7.140  0.1528 -0.1202  0.3598
 5401SOL    HW128182   4.530   5.047   7.092 -0.1066 -0.7734 -0.5255
 5401SOL    HW228183   4.464   5.051   7.228  1.4007 -0.0532  0.2153
 5402SOL     OW28184  12.805   5.673   4.699  0.5203 -0.0625 -0.8375
 5402SOL    HW128185  12.737   5.648   4.636  0.7214  0.4176 -1.2550
 5402SOL    HW228186  12.785   5.764   4.721  0.3449 -0.2880 -0.0618
 5403SOL     OW28187   7.308   8.243  11.306 -0.0144  0.3905  0.4490
 5403SOL    HW128188   7.239   8.240  11.240 -2.8599  2.2803  3.0923
 5403SOL    HW228189   7.285   8.174  11.368 -0.4293  1.9910  2.1326
 5404SOL     OW28190   5.225   1.965   6.663  0.4363 -0.3580 -0.3216
 5404SOL    HW128191   5.141   1.919   6.663 -0.0071  0.2399 -3.0221
 5404SOL    HW228192   5.215   2.032   6.595  1.9978  1.9733  1.5776
 5405SOL     OW28193   8.995  12.011  10.702 -0.3227  0.2667  0.1217
 5405SOL    HW128194   8.929  11.941  10.699  0.3838 -0.6258  2.6051
 5405SOL    HW228195   9.075  11.966  10.732  0.4942  1.9234  0.5087
 5406SOL     OW28196  13.434   4.234   9.027  0.0099  0.3119 -0.5670
 5406SOL    HW128197  13.408   4.236   9.119 -0.7889  0.8491 -0.7897
 5406SOL    HW228198  13.352   4.240   8.979  0.5234  2.3661 -1.3111
 5407SOL     OW28199  11.835   0.149   6.090 -0.0821 -0.6007  0.2224
 5407SOL    HW128200  11.779   0.075   6.065 -1.0834  0.5479 -1.0441
 5407SOL    HW228201  11.775   0.222   6.103  1.1301  0.9211 -2.0714
 5408SOL     OW28202  10.631   6.700   4.252 -0.3886  0.0207  0.1494
 5408SOL    HW128203  10.610   6.652   4.333  1.2972  1.0972  1.2854
 5408SOL    HW228204  10.717   6.667   4.226  0.7072  2.1428  0.8227
 5409SOL     OW28205   8.644   2.386  13.920 -0.3908 -0.0304  0.3712
 5409SOL    HW128206   8.723   2.349  13.880 -1.1986 -1.7337  0.2594
 5409SOL    HW228207   8.675   2.429  13.999  0.7817  0.3273 -0.2570
 5410SOL     OW28208  12.382   3.788  11.003 -0.1207 -0.0233 -0.2103
 5410SOL    HW128209  12.375   3.871  10.956 -1.9287 -0.3210 -0.5667
 5410SOL    HW228210  12.445   3.804  11.072  1.3976  0.9207 -1.7338
 5411SOL     OW28211   6.257   4.390  11.741  0.0904  0.0303 -0.1742
 5411SOL    HW128212   6.203   4.468  11.726 -0.3319 -0.1987  0.1584
 5411SOL    HW228213   6.343   4.414  11.706 -0.0758  0.5934 -0.2048
 5412SOL     OW28214  11.888  13.022  10.003  0.1424  0.4599 -0.1279
 5412SOL    HW128215  11.978  13.026  10.036 -0.1046  0.6224  0.5352
 5412SOL    HW228216  11.898  13.015   9.908  0.8686 -0.4242  0.0027
 5413SOL     OW28217  11.290   1.878  12.922 -0.4157  0.3544  0.0856
 5413SOL    HW128218  11.296   1.809  12.988 -0.4836  1.8799  1.7516
 5413SOL    HW228219  11.331   1.840  12.844  0.0112 -1.3622  1.0873
 5414SOL     OW28220   9.042   6.125   1.198 -0.2116  0.2926  0.1506
 5414SOL    HW128221   9.086   6.091   1.121 -2.0514 -1.4089 -0.2546
 5414SOL    HW228222   8.964   6.069   1.207 -0.6016  1.1053  2.6221
 5415SOL     OW28223   4.360   4.842   5.367 -0.3514 -0.1408  0.3610
 5415SOL    HW128224   4.311   4.827   5.286  0.7869  3.1867 -1.1345
 5415SOL    HW228225   4.444   4.798   5.353 -0.5816 -0.5288  0.2073
 5416SOL     OW28226   6.904   5.492  12.009  0.6643  0.6523 -0.6786
 5416SOL    HW128227   6.904   5.438  12.088  0.4484  0.6535 -0.6775
 5416SOL    HW228228   6.917   5.430  11.937 -0.0421  0.5440 -0.7148
 5417SOL     OW28229   3.380   8.402   0.589 -0.0477  0.0191  0.0973
 5417SOL    HW128230   3.343   8.471   0.535  0.7360  1.0400  0.8030
 5417SOL    HW228231   3.338   8.413   0.674 -0.4248 -0.8295  0.0282
 5418SOL     OW28232   5.945   0.128  10.088  0.6305 -0.2892 -0.2423
 5418SOL    HW128233   5.934   0.050  10.142  0.7024  1.0396  1.8232
 5418SOL    HW228234   6.013   0.104  10.025  1.8650 -1.3934  1.4135
 5419SOL     OW28235   4.252   9.129   0.733 -0.2159  0.3241 -0.1593
 5419SOL    HW128236   4.329   9.073   0.720 -0.7808 -0.2568 -1.1206
 5419SOL    HW228237   4.247   9.141   0.828  2.2702  2.1198 -0.1699
 5420SOL     OW28238   5.100   0.322   4.428  0.2680  0.6317 -0.6157
 5420SOL    HW128239   5.192   0.339   4.451  0.4580 -0.1283 -0.7885
 5420SOL    HW228240   5.051   0.342   4.508  1.1203 -4.1897  1.4561
 5421SOL     OW28241   0.694   8.358   5.794  0.0712 -0.5971 -0.0105
 5421SOL    HW128242   0.765   8.386   5.736 -0.0732 -1.0263 -0.3995
 5421SOL    HW228243   0.704   8.263   5.800  0.4754 -0.4912  1.1941
 5422SOL     OW28244   5.035   0.052   2.367  0.0265 -0.5467 -0.1314
 5422SOL    HW128245   5.037   0.040   2.272  1.5491  0.9751 -0.3402
 5422SOL    HW228246   5.087  -0.021   2.401  0.1308 -0.6533 -0.5182
 5423SOL     OW28247   4.018   5.722   7.549  0.1254 -0.0840  0.1660
 5423SOL    HW128248   3.979   5.752   7.467 -0.4188  1.0555  0.8128
 5423SOL    HW228249   4.008   5.796   7.609  3.1101  0.2029  0.4425
 5424SOL     OW28250  10.432   9.071   7.633 -0.1580  0.1039 -0.1145
 5424SOL    HW128251  10.371   9.099   7.701  1.9707  1.9816  1.1589
 5424SOL    HW228252  10.471   8.990   7.667 -0.7580 -0.2360 -0.2142
 5425SOL     OW28253   3.153  11.258   7.118 -0.2330  0.4020  0.1878
 5425SOL    HW128254   3.136  11.353   7.117 -0.2051  0.4039 -0.0053
 5425SOL    HW228255   3.179  11.237   7.029 -1.0401  0.0691  0.0178
 5426SOL     OW28256   0.187  12.114   1.046 -0.0719 -0.0348  0.4888
 5426SOL    HW128257   0.124  12.052   1.083 -0.0770  0.1103  0.7307
 5426SOL    HW228258   0.166  12.118   0.953 -2.2057  2.0179  0.9472
 5427SOL     OW28259  11.764  13.604   6.175 -0.5350  0.8230 -0.6176
 5427SOL    HW128260  11.859  13.607   6.190 -0.4716 -0.9527 -0.4267
 5427SOL    HW228261  11.731  13.683   6.218  0.7419  0.9408  0.2343
 5428SOL     OW28262   4.826   3.794  12.037 -0.2513  0.2601 -0.1743
 5428SOL    HW128263   4.773   3.797  11.957 -0.0245 -3.6153 -0.6739
 5428SOL    HW228264   4.914   3.773  12.008 -0.2665 -1.7699  1.0210
 5429SOL     OW28265   4.662  11.920   0.848 -0.7785 -0.1944  0.0098
 5429SOL    HW128266   4.579  11.935   0.892  0.2945 -1.8020  2.8587
 5429SOL    HW228267   4.728  11.942   0.914  0.9578 -2.3749 -0.8588
 5430SOL     OW28268  12.960  12.952   0.995 -0.2027  0.7012 -0.9393
 5430SOL    HW128269  12.975  12.883   0.931  2.3208  0.9446 -0.6861
 5430SOL    HW228270  12.931  12.905   1.074  1.8644 -0.1672 -0.6447
 5431SOL     OW28271   6.118   5.119   1.609  0.2136  0.1523 -0.0742
 5431SOL    HW128272   6.188   5.180   1.583 -0.7202  2.2082  1.8431
 5431SOL    HW228273   6.113   5.130   1.704 -3.0430  0.5005 -0.1901
 5432SOL     OW28274  11.494   5.399  11.124 -0.0785  0.3906  0.2858
 5432SOL    HW128275  11.567   5.339  11.133 -0.4710 -0.1366  0.0215
 5432SOL    HW228276  11.438   5.381  11.200 -1.0813 -0.8361 -0.6941
 5433SOL     OW28277   5.724   1.994  13.480  0.0684  0.2616 -0.0794
 5433SOL    HW128278   5.694   1.905  13.459 -0.2211  0.3197  0.0833
 5433SOL    HW228279   5.698   2.047  13.405 -1.4175  0.5685  0.6236
 5434SOL     OW28280  10.634   9.187   8.663  0.0822  0.2857  0.1537
 5434SOL    HW128281  10.563   9.251   8.653  0.6940  1.1734  1.3287
 5434SOL    HW228282  10.588   9.104   8.679 -0.7100  0.9381  1.4255
 5435SOL     OW28283   9.747   8.148   1.785 -0.1103  0.3786 -0.4099
 5435SOL    HW128284   9.760   8.243   1.792  0.2985  0.3465 -0.6990
 5435SOL    HW228285   9.809   8.120   1.718 -0.5026 -0.0411 -0.6036
 5436SOL     OW28286   7.587  11.575  12.220 -0.1460  0.0023 -0.9991
 5436SOL    HW128287   7.506  11.525  12.228  0.4885 -0.9899 -0.4776
 5436SOL    HW228288   7.571  11.656  12.268 -1.0428  0.1139 -1.4631
 5437SOL     OW28289   6.546   3.968  11.114 -0.5202  0.2539  0.3012
 5437SOL    HW128290   6.547   3.896  11.051 -1.6982  1.0177 -0.6319
 5437SOL    HW228291   6.555   3.926  11.200  2.3751 -0.7292 -0.3590
 5438SOL     OW28292  11.663  13.041   9.401 -0.2289  0.3481 -0.3403
 5438SOL    HW128293  11.745  13.089   9.411 -0.0611  0.4918 -2.0362
 5438SOL    HW228294  11.666  12.973   9.468 -0.5836  2.7606  2.3165
 5439SOL     OW28295   9.619   5.035  13.225 -0.3892  0.0192  0.1125
 5439SOL    HW128296   9.586   5.035  13.315  1.0929 -1.2274  0.6953
 5439SOL    HW228297   9.657   5.122  13.214 -1.0327  0.3615  0.4968
 5440SOL     OW28298   9.694  12.811   4.699  0.2095  0.3534  0.8057
 5440SOL    HW128299   9.721  12.890   4.652 -0.4457  0.1955  0.1395
 5440SOL    HW228300   9.599  12.821   4.711  0.1082 -0.3570  0.6506
 5441SOL     OW28301   7.386  10.347  12.293 -0.7960  0.3921 -0.0991
 5441SOL    HW128302   7.396  10.410  12.222  0.2544  0.0483 -0.2670
 5441SOL    HW228303   7.366  10.401  12.370  1.2967  1.0808  0.0221
 5442SOL     OW28304  11.344   1.401   7.016  0.3929  0.1650  0.2452
 5442SOL    HW128305  11.293   1.376   6.939 -0.1512 -0.5569  0.8214
 5442SOL    HW228306  11.335   1.496   7.022 -0.4487  0.0996  0.0347
 5443SOL     OW28307  11.205   5.153   7.952  0.2231 -0.1463  0.1962
 5443SOL    HW128308  11.174   5.173   8.040 -1.5817  1.6088 -0.7586
 5443SOL    HW228309  11.160   5.073   7.928 -0.0392 -0.0989  0.5223
 5444SOL     OW28310   2.524   5.654   2.059 -0.0005  0.2848  0.4990
 5444SOL    HW128311   2.522   5.725   1.995 -0.1462 -0.7630 -0.7121
 5444SOL    HW228312   2.561   5.693   2.138  0.5571  1.5269 -0.3450
 5445SOL     OW28313   5.377   3.324   1.397  0.2894 -0.2422  0.0342
 5445SOL    HW128314   5.285   3.325   1.371  0.0455  2.0147  0.8204
 5445SOL    HW228315   5.423   3.372   1.329  0.3925  1.2932  1.1403
 5446SOL     OW28316   3.368  10.621   8.986 -0.1212  0.0831 -0.8501
 5446SOL    HW128317   3.325  10.579   9.061 -0.7301  1.8489 -0.1393
 5446SOL    HW228318   3.357  10.559   8.915 -1.3552 -0.7818  0.0310
 5447SOL     OW28319   3.149  12.102   7.159 -0.3268 -0.0739  0.6804
 5447SOL    HW128320   3.091  12.146   7.097  0.6404  0.9122  0.4436
 5447SOL    HW228321   3.181  12.172   7.216  0.9998 -0.4954  0.4915
 5448SOL     OW28322   5.621  11.281   2.085 -0.0525  0.3533 -0.3296
 5448SOL    HW128323   5.669  11.344   2.031  1.0906 -0.2214 -0.0221
 5448SOL    HW228324   5.547  11.254   2.032  0.2509  0.8952 -1.0294
 5449SOL     OW28325   1.890  11.718   0.007  0.4866  0.5972  0.2989
 5449SOL    HW128326   1.877  11.626   0.027 -1.8050  0.8408  0.1999
 5449SOL    HW228327   1.945  11.751   0.078  1.7657 -0.9189  0.0523
 5450SOL     OW28328   0.398   1.616   5.672  0.3272  0.1974 -0.3724
 5450SOL    HW128329   0.442   1.582   5.594  0.4577 -0.7186  0.0796
 5450SOL    HW228330   0.318   1.563   5.679 -1.3965  2.4543 -1.7141
 5451SOL     OW28331   8.343   9.551  12.550 -0.6890 -0.0809  0.0314
 5451SOL    HW128332   8.406   9.521  12.615  2.8100  2.9234 -1.5784
 5451SOL    HW228333   8.280   9.604  12.599  0.9983  0.9294  1.1863
 5452SOL     OW28334   4.254   7.766   7.295  0.4657  0.2222 -0.4789
 5452SOL    HW128335   4.214   7.771   7.208 -1.2058 -0.4300  0.2066
 5452SOL    HW228336   4.234   7.677   7.325  2.1585 -0.0062  0.0674
 5453SOL     OW28337  10.555  12.255   2.361 -0.0611  0.0094 -0.0717
 5453SOL    HW128338  10.534  12.171   2.321 -0.2991  0.5996 -1.2463
 5453SOL    HW228339  10.471  12.299   2.371 -0.0641 -0.3473  1.6423
 5454SOL     OW28340   5.913   3.170  12.817 -0.1975 -0.3267 -0.6625
 5454SOL    HW128341   5.938   3.078  12.823  0.1106 -0.2758 -1.1112
 5454SOL    HW228342   5.995   3.218  12.829 -0.3912 -0.1029 -0.2152
 5455SOL     OW28343   6.184   0.121  12.740 -1.1167  0.4780 -0.5630
 5455SOL    HW128344   6.106   0.089  12.695 -1.6525  2.4420 -1.1481
 5455SOL    HW228345   6.231   0.042  12.766 -2.8650 -0.7565 -0.9453
 5456SOL     OW28346  11.708   4.269  11.065 -0.2459 -0.3326 -0.5507
 5456SOL    HW128347  11.662   4.228  10.992  1.6028  0.0863 -2.0276
 5456SOL    HW228348  11.676   4.359  11.067  0.2005 -0.1509 -1.3174
 5457SOL     OW28349   7.494  11.433   4.307 -0.0823  0.8442 -0.2525
 5457SOL    HW128350   7.479  11.347   4.347  3.0497 -1.4379 -3.3603
 5457SOL    HW228351   7.546  11.480   4.371  1.1729 -1.0139  0.1799
 5458SOL     OW28352  10.538   1.723   6.312 -0.2768  0.2987 -0.0552
 5458SOL    HW128353  10.475   1.792   6.333 -1.0272 -0.3869 -0.0160
 5458SOL    HW228354  10.540   1.720   6.217 -2.1042 -1.2414 -0.1116
 5459SOL     OW28355  10.681   4.466   5.405 -0.2275  0.0379 -0.3168
 5459SOL    HW128356  10.628   4.389   5.385  1.5750 -1.4707  0.4525
 5459SOL    HW228357  10.644   4.500   5.486 -0.5939 -0.4249 -0.2871
 5460SOL     OW28358   0.989  12.739   5.900  0.6872  0.3515  0.1761
 5460SOL    HW128359   1.025  12.747   5.989  1.1533  1.0635 -0.0627
 5460SOL    HW228360   0.898  12.768   5.908  1.0619  1.5824  0.2115
 5461SOL     OW28361   0.838   4.465   0.834 -0.1084  0.0440  0.8142
 5461SOL    HW128362   0.911   4.524   0.817 -0.2769 -0.4919 -2.4672
 5461SOL    HW228363   0.877   4.389   0.877  0.9329  0.5166  0.7286
 5462SOL     OW28364   9.317   9.530  11.341  0.6212  0.3544  0.0859
 5462SOL    HW128365   9.365   9.464  11.391 -1.2376 -0.4504  0.8552
 5462SOL    HW228366   9.376   9.552  11.269  1.3833 -1.9751 -0.0726
 5463SOL     OW28367   8.241  13.120   4.721 -0.2934 -0.3572 -0.0413
 5463SOL    HW128368   8.294  13.135   4.643  0.6609 -1.3008  0.3923
 5463SOL    HW228369   8.300  13.139   4.794 -0.0221 -2.8394  0.4758
 5464SOL     OW28370   3.926  10.744   2.607  0.4609 -0.5943  0.0448
 5464SOL    HW128371   3.867  10.813   2.637 -1.2779 -1.0067 -2.1684
 5464SOL    HW228372   3.992  10.790   2.555 -0.7661 -0.5487 -1.5292
 5465SOL     OW28373   5.500   3.981   4.933 -0.1152 -0.3055  0.3381
 5465SOL    HW128374   5.586   3.943   4.912 -0.4419 -2.0472  1.9037
 5465SOL    HW228375   5.452   3.977   4.850  0.5435 -1.5277 -0.0127
 5466SOL     OW28376  11.321   4.884   9.992 -0.3908 -0.0206 -0.7328
 5466SOL    HW128377  11.362   4.913   9.910  0.0110  1.6763  0.0282
 5466SOL    HW228378  11.281   4.963  10.028 -0.7069 -0.7765  0.6329
 5467SOL     OW28379   2.912  10.634   2.098  0.0315 -0.1542 -0.0013
 5467SOL    HW128380   2.885  10.570   2.032  0.3233  0.6282 -0.9024
 5467SOL    HW228381   2.921  10.583   2.178 -0.0953 -1.1766 -0.6148
 5468SOL     OW28382   1.188  12.450   5.474  0.1137 -0.2605  0.3822
 5468SOL    HW128383   1.131  12.389   5.427 -0.7025  1.9251 -1.6484
 5468SOL    HW228384   1.134  12.482   5.547  0.3273 -1.3981  1.0720
 5469SOL     OW28385   3.579   9.344   9.616 -0.2118 -0.1153 -0.1023
 5469SOL    HW128386   3.649   9.320   9.677 -0.2532 -0.0588 -0.0316
 5469SOL    HW228387   3.542   9.423   9.653  0.3490  0.4304 -0.6777
 5470SOL     OW28388  11.273   4.246   4.195  0.1417  0.2157 -0.5341
 5470SOL    HW128389  11.341   4.290   4.144  0.7170 -1.3736 -1.1781
 5470SOL    HW228390  11.313   4.232   4.281 -0.3366  1.6417 -0.0520
 5471SOL     OW28391   5.865  10.181   7.895  1.0312 -0.3004  0.6485
 5471SOL    HW128392   5.893  10.247   7.831 -0.1526  0.8079  1.2169
 5471SOL    HW228393   5.941  10.168   7.951  2.0462 -1.2091 -0.9079
 5472SOL     OW28394  10.640   2.196   9.369 -0.4767  0.0525  0.1721
 5472SOL    HW128395  10.575   2.171   9.435  1.1346 -0.5293  1.6216
 5472SOL    HW228396  10.647   2.120   9.311 -0.4807 -0.2272  0.5318
 5473SOL     OW28397   2.595   3.010   6.229  0.1229  0.1153  0.0590
 5473SOL    HW128398   2.609   2.932   6.282 -0.4320 -0.6949 -0.9378
 5473SOL    HW228399   2.510   2.995   6.187 -0.5607  1.8004  0.7473
 5474SOL     OW28400   3.114  13.762   8.825  0.2299  0.1959  0.1816
 5474SOL    HW128401   3.123  13.809   8.742  1.1787  0.9881  0.7128
 5474SOL    HW228402   3.204  13.744   8.852 -0.1109 -2.0918 -0.0711
 5475SOL     OW28403   0.100  10.421   3.771  0.3426  0.0240 -0.1974
 5475SOL    HW128404   0.189  10.387   3.782  1.1841  2.4534  1.5176
 5475SOL    HW228405   0.111  10.500   3.718 -0.5467  1.0898  1.1382
 5476SOL     OW28406  10.927   8.441   8.670  0.3048  0.5884  0.0815
 5476SOL    HW128407  11.006   8.404   8.631 -0.0810  0.4086 -0.5309
 5476SOL    HW228408  10.870   8.461   8.596 -0.7318 -0.4391  0.5643
 5477SOL     OW28409   7.943   0.303   1.687  0.6384  0.1373 -0.1403
 5477SOL    HW128410   7.964   0.228   1.632  1.2419 -0.5932  1.0471
 5477SOL    HW228411   8.026   0.351   1.695  0.8499 -0.4177  1.0931
 5478SOL     OW28412   9.753   0.572   5.519 -0.2321  0.3141 -0.8169
 5478SOL    HW128413   9.771   0.503   5.583 -1.4895  1.1054  0.4402
 5478SOL    HW228414   9.839   0.597   5.486  0.2875 -1.5236 -0.9780
 5479SOL     OW28415   6.948   2.655   1.457 -0.2732  0.3216  0.2831
 5479SOL    HW128416   6.883   2.645   1.387  0.1816  0.8365 -0.2237
 5479SOL    HW228417   7.012   2.716   1.421  1.0345 -0.9399  0.3951
 5480SOL     OW28418   2.851   1.587   2.977 -0.4838  0.6569  0.1124
 5480SOL    HW128419   2.871   1.665   3.028  0.4669  1.5794 -1.5887
 5480SOL    HW228420   2.846   1.516   3.042  2.5554  1.4215  1.3089
 5481SOL     OW28421   2.514  10.810  11.572 -0.1346  0.3003 -0.3126
 5481SOL    HW128422   2.572  10.835  11.645 -1.2169 -0.6928  0.9387
 5481SOL    HW228423   2.546  10.724  11.545 -0.2511  0.3008 -0.4491
 5482SOL     OW28424  13.645   0.419  13.462 -0.8249  0.4199  0.1038
 5482SOL    HW128425  13.654   0.459  13.548  0.7947  0.2297  0.0560
 5482SOL    HW228426  13.665   0.490  13.400  1.0926 -0.1589 -0.0054
 5483SOL     OW28427   0.249   1.871  12.668  0.1634 -0.2426 -0.1160
 5483SOL    HW128428   0.233   1.792  12.719  0.2812 -1.0688 -1.3257
 5483SOL    HW228429   0.180   1.931  12.695  2.5043  0.9650  4.0770
 5484SOL     OW28430   4.462   3.541   5.025  0.1709  0.5191 -0.2701
 5484SOL    HW128431   4.478   3.447   5.034 -0.8039  0.3585 -0.0707
 5484SOL    HW228432   4.414   3.550   4.943 -3.0440  0.3566  1.4379
 5485SOL     OW28433   9.286   1.570   5.396  0.1037 -0.6446 -0.0952
 5485SOL    HW128434   9.359   1.549   5.455  0.0089 -0.3329  0.1347
 5485SOL    HW228435   9.285   1.665   5.393  0.1324 -0.6597 -0.6306
 5486SOL     OW28436   7.662   0.419   0.524  0.0451  0.1101 -0.1914
 5486SOL    HW128437   7.686   0.510   0.545 -2.6493  0.7179  0.6793
 5486SOL    HW228438   7.684   0.370   0.603 -1.1847  0.5923  0.4749
 5487SOL     OW28439   6.441   8.902  12.381  0.1765 -0.5225 -0.1873
 5487SOL    HW128440   6.509   8.969  12.387  1.0545 -1.2940 -1.0784
 5487SOL    HW228441   6.458   8.858  12.297 -1.9971 -0.1286 -0.9061
 5488SOL     OW28442  13.912   0.809   7.755 -0.0259  0.1383  0.0651
 5488SOL    HW128443  13.937   0.754   7.681  0.1786  0.5172 -0.1513
 5488SOL    HW228444  13.982   0.875   7.760  0.7082 -0.6960  1.4561
 5489SOL     OW28445   5.322   2.566   6.094 -0.1467  0.7312 -0.6297
 5489SOL    HW128446   5.345   2.650   6.057 -1.5005  1.6851  0.5581
 5489SOL    HW228447   5.239   2.543   6.052 -0.3712  0.5673 -0.1084
 5490SOL     OW28448  10.780   5.325  12.052  0.5446  0.0656  0.4859
 5490SOL    HW128449  10.695   5.336  12.009  0.6817 -1.5600 -0.2839
 5490SOL    HW228450  10.798   5.231  12.046  3.3426  0.5935 -1.2328
 5491SOL     OW28451   3.544   2.997   6.199 -0.1185 -0.1413 -0.2369
 5491SOL    HW128452   3.456   3.022   6.169  0.8941  0.2888 -3.1440
 5491SOL    HW228453   3.548   2.903   6.186  0.2383  0.0124 -1.3600
 5492SOL     OW28454   2.570   5.820   5.904 -0.3002  0.2657  0.2072
 5492SOL    HW128455   2.502   5.753   5.906  0.4206 -0.5188 -0.8815
 5492SOL    HW228456   2.522   5.902   5.892 -1.0371 -0.3305 -1.1643
 5493SOL     OW28457  12.483   7.004   3.094  0.3367 -0.3395 -0.1676
 5493SOL    HW128458  12.479   7.087   3.045  0.7958 -1.5748 -2.4697
 5493SOL    HW228459  12.410   7.009   3.155 -0.0145  1.5106 -0.6631
 5494SOL     OW28460   1.590  10.663   6.141  0.2373  0.3206 -0.3058
 5494SOL    HW128461   1.619  10.666   6.050 -0.3331 -0.3113 -0.5247
 5494SOL    HW228462   1.555  10.574   6.151 -0.4065  0.6340  0.3030
 5495SOL     OW28463   9.522  11.381   1.502 -0.3938 -0.1719 -0.3038
 5495SOL    HW128464   9.580  11.317   1.460 -0.5673 -0.0154 -0.7976
 5495SOL    HW228465   9.475  11.332   1.568  1.0127 -0.0952  0.8000
 5496SOL     OW28466   7.536   8.165  12.748  0.4053  0.2881  0.2081
 5496SOL    HW128467   7.480   8.092  12.775 -0.1705  0.7524  0.3014
 5496SOL    HW228468   7.625   8.130  12.750  0.0191 -0.9291 -1.3738
 5497SOL     OW28469  13.727  11.989   6.920  0.0091  0.3012  0.1509
 5497SOL    HW128470  13.706  12.008   7.011 -2.0507  1.8245 -0.5532
 5497SOL    HW228471  13.803  12.044   6.900  1.4793 -1.2090  1.3026
 5498SOL     OW28472   3.524   0.590   5.922  0.1342 -0.3098 -0.1673
 5498SOL    HW128473   3.452   0.647   5.897 -0.0812 -0.9488 -1.0172
 5498SOL    HW228474   3.485   0.504   5.934  0.5362 -0.3915  0.6654
 5499SOL     OW28475   2.234  11.923   1.401  0.2962  0.0412  0.2981
 5499SOL    HW128476   2.222  12.003   1.453  2.3199  0.1401  0.6897
 5499SOL    HW228477   2.329  11.908   1.402  0.1727 -1.1310 -1.6349
 5500SOL     OW28478  10.605  13.510  11.675  0.2406 -0.3030  0.2558
 5500SOL    HW128479  10.565  13.508  11.762 -1.8046  1.3474 -0.5446
 5500SOL    HW228480  10.562  13.439  11.627 -1.5483  1.1584 -0.4547
 5501SOL     OW28481   6.902  10.711   1.601 -0.3341  0.0786 -0.1771
 5501SOL    HW128482   6.843  10.688   1.674  0.3094  0.4277  0.4611
 5501SOL    HW228483   6.943  10.792   1.628  0.8344 -0.4245 -0.3854
 5502SOL     OW28484  12.134  12.448  12.862  0.0585  0.0125 -0.4958
 5502SOL    HW128485  12.051  12.407  12.885 -0.4067  0.0979 -1.9105
 5502SOL    HW228486  12.188  12.439  12.941 -0.7195 -1.5067 -0.0921
 5503SOL     OW28487  10.662   7.155   5.537 -0.3388  0.3340 -0.3553
 5503SOL    HW128488  10.689   7.198   5.619 -2.6797 -0.7600  1.1217
 5503SOL    HW228489  10.741   7.113   5.505  1.0270  2.1393  0.4563
 5504SOL     OW28490   6.924   4.173  13.040 -0.2743  0.2901  0.0097
 5504SOL    HW128491   6.861   4.161  13.111 -1.0208 -1.3368 -0.8895
 5504SOL    HW228492   6.938   4.086  13.004  0.8656  0.9302 -1.2143
 5505SOL     OW28493   4.877   3.137   6.338 -0.5829  0.2770 -0.1676
 5505SOL    HW128494   4.831   3.143   6.254  0.9665 -1.1866 -1.1849
 5505SOL    HW228495   4.825   3.076   6.390 -0.0834 -1.0172 -1.1368
 5506SOL     OW28496   1.481   7.836  10.181 -0.0467  0.5177  0.0289
 5506SOL    HW128497   1.411   7.871  10.125 -0.9625  0.3113  1.0087
 5506SOL    HW228498   1.482   7.895  10.257  3.1009  2.5334 -1.3698
 5507SOL     OW28499   1.651   9.552   9.095 -0.8406 -0.7343  0.4423
 5507SOL    HW128500   1.613   9.617   9.155  0.0209 -0.6506  0.9122
 5507SOL    HW228501   1.587   9.481   9.093 -1.1920 -0.4413  0.9359
 5508SOL     OW28502   1.450   3.961   6.975 -0.2611  0.5484  0.1752
 5508SOL    HW128503   1.395   3.934   7.048 -1.2887 -1.0467 -1.1179
 5508SOL    HW228504   1.389   4.000   6.912  0.4656  1.0500 -0.2315
 5509SOL     OW28505  13.699   2.824   6.582  0.3306 -0.7379 -0.2839
 5509SOL    HW128506  13.695   2.899   6.523 -1.5295 -0.6149 -0.0877
 5509SOL    HW228507  13.729   2.751   6.528 -2.4067 -0.8993 -1.7758
 5510SOL     OW28508   9.152   6.289  12.753 -0.2977  0.6599  0.4627
 5510SOL    HW128509   9.174   6.354  12.687  1.0599 -2.6880 -2.7320
 5510SOL    HW228510   9.235   6.269  12.796 -0.2723 -0.4087 -0.0644
 5511SOL     OW28511   9.819   2.541   6.749 -0.1659  0.1916  0.2271
 5511SOL    HW128512   9.828   2.621   6.697 -0.5506 -0.8313 -1.4733
 5511SOL    HW228513   9.907   2.504   6.752 -0.4878 -0.7584 -1.4081
 5512SOL     OW28514  10.326  11.906   8.742  0.0167 -0.3669  0.1659
 5512SOL    HW128515  10.393  11.938   8.803 -0.2846  0.9559 -0.1629
 5512SOL    HW228516  10.243  11.922   8.788 -0.1712 -0.0055 -0.2907
 5513SOL     OW28517   9.680  10.823   3.639  0.2375  0.3522  0.8469
 5513SOL    HW128518   9.683  10.846   3.546 -2.5630  2.1535  1.0796
 5513SOL    HW228519   9.641  10.736   3.641  2.2039 -0.5844  0.3032
 5514SOL     OW28520   5.261   6.034  13.805  0.2403  0.2298 -0.7891
 5514SOL    HW128521   5.278   6.012  13.714  2.0417  4.2975 -1.6896
 5514SOL    HW228522   5.217   6.119  13.801  1.9387  1.3992  2.0667
 5515SOL     OW28523   5.306  11.913   1.278 -0.1169 -0.8877  0.1469
 5515SOL    HW128524   5.309  11.921   1.183  1.8419 -2.0845  0.0498
 5515SOL    HW228525   5.277  11.999   1.309 -1.6928 -0.7570 -1.5340
 5516SOL     OW28526   4.899   6.214   0.056  0.0729  0.6656  0.3406
 5516SOL    HW128527   4.926   6.295   0.014 -0.6226  0.9356  0.4090
 5516SOL    HW228528   4.868   6.241   0.143  0.5189  0.2387  0.6401
 5517SOL     OW28529  12.695   3.364  13.577 -0.0901  0.2966  0.1745
 5517SOL    HW128530  12.645   3.285  13.598  1.1364 -0.7816 -0.7820
 5517SOL    HW228531  12.645   3.407  13.507 -0.9402  0.5798  0.9351
 5518SOL     OW28532   9.430   9.862  10.395 -1.0196 -0.2490  0.5490
 5518SOL    HW128533   9.515   9.842  10.433 -0.1633  0.9687 -0.6670
 5518SOL    HW228534   9.406   9.947  10.432 -0.7833  0.3330 -0.5997
 5519SOL     OW28535   5.729   0.013   1.517 -0.6104 -0.0320  0.2268
 5519SOL    HW128536   5.660  -0.051   1.502 -0.4957 -0.1401  0.1597
 5519SOL    HW228537   5.706   0.087   1.462 -0.9378  0.1312  0.5759
 5520SOL     OW28538   6.753   4.674  12.375  0.5745 -0.7258 -0.2558
 5520SOL    HW128539   6.841   4.671  12.337  0.9865  2.0751  0.2769
 5520SOL    HW228540   6.767   4.699  12.467 -0.7996  2.6882 -0.8269
 5521SOL     OW28541  12.857  12.289   7.785 -0.1199  0.2390 -0.4299
 5521SOL    HW128542  12.781  12.342   7.808  0.6464  1.9659 -1.6101
 5521SOL    HW228543  12.932  12.344   7.807  0.7770 -1.0332 -0.1876
 5522SOL     OW28544   7.496   3.801  10.351  0.0355  0.3583  0.0564
 5522SOL    HW128545   7.555   3.725  10.348  0.2963  0.5796 -1.6040
 5522SOL    HW228546   7.408   3.763  10.346  0.1467  0.1372 -0.2908
 5523SOL     OW28547   5.925  12.101  11.857 -0.4783  0.3912  1.4039
 5523SOL    HW128548   5.892  12.175  11.907 -0.4337  1.3735  0.0211
 5523SOL    HW228549   5.871  12.027  11.885 -1.5528  1.2629  1.6852
 5524SOL     OW28550   3.755   6.013   3.802  0.2828  0.2129 -0.1177
 5524SOL    HW128551   3.735   5.997   3.710  0.7538  0.7789 -0.3245
 5524SOL    HW228552   3.846   5.984   3.813 -0.0630 -0.7027  0.3920
 5525SOL     OW28553   3.694  12.915   7.849  0.2171 -0.0753  0.1750
 5525SOL    HW128554   3.694  12.976   7.923 -2.1919  0.0010  0.1732
 5525SOL    HW228555   3.741  12.961   7.780 -2.3706  2.3160 -0.1608
 5526SOL     OW28556  10.981  10.760   0.842 -0.0620 -0.0157  0.1140
 5526SOL    HW128557  10.937  10.756   0.927 -1.9140 -0.5222 -0.8123
 5526SOL    HW228558  10.952  10.681   0.796  2.2422 -0.6317 -0.4143
 5527SOL     OW28559   0.669   5.717  13.603  0.0859  0.0866  0.0717
 5527SOL    HW128560   0.629   5.789  13.555 -1.0055 -1.1631 -0.9583
 5527SOL    HW228561   0.763   5.726  13.586  0.2650  2.5057  1.7565
 5528SOL     OW28562   8.029   1.802   5.902 -0.0365  0.1083  0.8214
 5528SOL    HW128563   7.959   1.852   5.861  0.5096 -0.2905 -0.6335
 5528SOL    HW228564   7.991   1.716   5.919 -0.1426  0.1474  0.7807
 5529SOL     OW28565  11.299  11.598   1.067 -0.0476  0.0688  0.0128
 5529SOL    HW128566  11.276  11.684   1.102  3.0487  1.2459 -0.5715
 5529SOL    HW228567  11.287  11.606   0.972  0.6757  0.0260 -0.0888
 5530SOL     OW28568   3.287   9.465   6.071  0.2162  0.1281 -0.0041
 5530SOL    HW128569   3.220   9.417   6.023  1.4397  0.2134 -1.9574
 5530SOL    HW228570   3.240   9.533   6.118 -1.2864 -1.4071  0.8024
 5531SOL     OW28571   1.891   3.545   9.444  0.0694  0.2436  0.6984
 5531SOL    HW128572   1.804   3.508   9.454 -0.1100  0.2409 -0.7720
 5531SOL    HW228573   1.877   3.631   9.406  0.7401 -0.0646 -0.2829
 5532SOL     OW28574   3.119   2.994   6.321  0.4859 -0.6688 -0.0749
 5532SOL    HW128575   3.027   3.011   6.298  0.7520 -1.0861 -1.5359
 5532SOL    HW228576   3.116   2.968   6.413 -0.5738  1.7585  0.6743
 5533SOL     OW28577   1.136  10.512  10.191  0.0324 -0.6535 -0.1090
 5533SOL    HW128578   1.202  10.558  10.139  0.0248 -1.9870 -1.3729
 5533SOL    HW228579   1.140  10.553  10.277  2.1524 -0.3685 -0.3031
 5534SOL     OW28580   0.517   1.043   8.311 -0.4511 -0.1675 -0.0290
 5534SOL    HW128581   0.569   0.963   8.320 -0.7090 -0.3649 -0.2739
 5534SOL    HW228582   0.433   1.021   8.352 -0.3800  0.1148  0.2720
 5535SOL     OW28583  11.220   3.534   2.748  0.3384 -0.5047  0.0944
 5535SOL    HW128584  11.264   3.471   2.690  0.7842  0.5389 -0.7216
 5535SOL    HW228585  11.147   3.568   2.696  1.2797  1.1101 -0.2094
 5536SOL     OW28586  13.821   8.869   3.717 -0.1076  0.7263 -0.0718
 5536SOL    HW128587  13.730   8.900   3.716  0.1021  1.3454 -0.4887
 5536SOL    HW228588  13.859   8.911   3.794 -0.2978  0.1062  0.3600
 5537SOL     OW28589   6.394   8.697  10.721 -0.1691  0.1796 -0.3352
 5537SOL    HW128590   6.325   8.699  10.786  0.6093  0.6178  0.4967
 5537SOL    HW228591   6.391   8.783  10.679 -0.8152 -0.1795 -1.0598
 5538SOL     OW28592  12.338  10.910   5.319  0.5256  0.2124 -0.5516
 5538SOL    HW128593  12.349  11.005   5.328 -2.6116  0.8179 -1.5967
 5538SOL    HW228594  12.307  10.881   5.404 -1.0448  0.6637 -0.9332
 5539SOL     OW28595   3.853   5.137   0.500  0.2800 -0.0001  0.1411
 5539SOL    HW128596   3.932   5.191   0.504 -0.0587  0.9553 -2.9087
 5539SOL    HW228597   3.807   5.155   0.581  0.5273  3.8842 -0.3992
 5540SOL     OW28598   8.470   1.518   3.807 -0.2664  0.2137 -0.3117
 5540SOL    HW128599   8.536   1.543   3.871 -0.3644 -2.6721  1.0798
 5540SOL    HW228600   8.397   1.579   3.822 -0.7649 -1.0150  3.2731
 5541SOL     OW28601  12.625  13.462  13.088  0.0978  0.5240  0.2529
 5541SOL    HW128602  12.549  13.446  13.031  0.9261 -1.3866 -0.3803
 5541SOL    HW228603  12.649  13.553  13.070 -0.8072  0.5412 -1.0478
 5542SOL     OW28604  13.064   6.271   9.321  0.0132 -0.2973 -0.2296
 5542SOL    HW128605  13.142   6.306   9.363 -0.4598  1.7789 -0.9759
 5542SOL    HW228606  13.017   6.226   9.391  1.0496 -0.1188  0.6026
 5543SOL     OW28607   0.478   3.978   5.194  0.1627 -0.3828 -0.1812
 5543SOL    HW128608   0.478   3.996   5.288 -1.1784  1.4086 -0.4440
 5543SOL    HW228609   0.385   3.968   5.172  0.4598 -0.8077 -1.3069
 5544SOL     OW28610   3.678  12.688   8.356 -0.5778 -0.5282 -0.1268
 5544SOL    HW128611   3.729  12.617   8.394  0.0015 -0.7192 -1.2241
 5544SOL    HW228612   3.729  12.718   8.281 -2.4011 -1.2288 -1.7413
 5545SOL     OW28613   2.295   6.643   8.258  0.1944  0.1101  0.7482
 5545SOL    HW128614   2.271   6.629   8.349 -3.4282  1.9428  0.2345
 5545SOL    HW228615   2.368   6.704   8.261 -2.0500  2.9339  2.4941
 5546SOL     OW28616  11.741  10.194  12.723 -0.3101  0.3124  0.3973
 5546SOL    HW128617  11.831  10.225  12.712 -0.1310 -0.5213 -0.7354
 5546SOL    HW228618  11.749  10.116  12.778 -0.3614  0.3997  0.5259
 5547SOL     OW28619  11.594   9.061   1.197 -0.1753 -0.5048  0.5073
 5547SOL    HW128620  11.674   9.015   1.224  0.1883 -0.0648  0.1903
 5547SOL    HW228621  11.604   9.073   1.103 -0.5685 -0.3542  0.4857
 5548SOL     OW28622  10.423   7.174   0.819  0.1737  0.2040 -0.0615
 5548SOL    HW128623  10.500   7.164   0.764 -0.8082  1.8920 -1.8618
 5548SOL    HW228624  10.423   7.266   0.844 -2.3840  0.8565 -1.9993
 5549SOL     OW28625   9.265   0.286   8.926 -0.5548  0.1727  0.1009
 5549SOL    HW128626   9.335   0.346   8.902 -0.7598  0.0767 -0.7506
 5549SOL    HW228627   9.252   0.231   8.849 -0.6631 -0.6831  0.7217
 5550SOL     OW28628  12.546   7.493   9.769 -0.0256  0.4150  0.4143
 5550SOL    HW128629  12.473   7.432   9.777  0.0804  0.4453  1.7304
 5550SOL    HW228630  12.581   7.476   9.681  0.8951 -2.4542  1.2373
 5551SOL     OW28631   5.873   8.087   0.001 -0.1614  0.2372  0.1538
 5551SOL    HW128632   5.933   8.041   0.060 -1.8249 -3.3099 -0.7044
 5551SOL    HW228633   5.898   8.058  -0.087 -1.3281  0.9497 -0.4365
 5552SOL     OW28634   0.730  10.787   8.723  0.3715 -0.6990  0.5221
 5552SOL    HW128635   0.718  10.771   8.629  2.2088  1.7037 -0.2338
 5552SOL    HW228636   0.825  10.797   8.733  0.1472 -0.2346  2.5180
 5553SOL     OW28637  11.954   5.856  11.838 -0.1437  0.3538  0.7396
 5553SOL    HW128638  11.867   5.883  11.808  0.1836  0.8104  0.1669
 5553SOL    HW228639  11.942   5.836  11.930 -0.8093  0.6409  0.7251
 5554SOL     OW28640   5.382   0.239  11.927 -0.3702  0.1314 -0.2333
 5554SOL    HW128641   5.319   0.203  11.865 -0.3315  0.7297 -0.6377
 5554SOL    HW228642   5.342   0.321  11.957  0.6947  1.1480 -1.4013
 5555SOL     OW28643   0.999   6.168   3.572  0.2439 -0.0536 -0.3929
 5555SOL    HW128644   0.940   6.201   3.504 -0.1597 -0.7058 -0.3600
 5555SOL    HW228645   0.951   6.181   3.654  0.5103  0.2278 -0.2788
 5556SOL     OW28646   2.484  13.079   3.436  0.0072  0.5773  0.4638
 5556SOL    HW128647   2.396  13.100   3.404 -0.6716  0.7490  2.3275
 5556SOL    HW228648   2.514  13.007   3.380 -1.4429  0.3053  0.0042
 5557SOL     OW28649   0.244   3.853   4.946 -0.4434 -0.8090 -0.6472
 5557SOL    HW128650   0.299   3.862   4.868 -1.2529 -0.4776 -1.1910
 5557SOL    HW228651   0.245   3.759   4.965 -0.0063 -0.8523 -0.8809
 5558SOL     OW28652  11.583   6.645   2.068  0.5133 -0.1777  0.1856
 5558SOL    HW128653  11.654   6.686   2.019  0.8705 -0.3796  0.5252
 5558SOL    HW228654  11.602   6.551   2.064  0.4809 -0.2054  0.6035
 5559SOL     OW28655   2.164   0.346   1.844 -0.0050 -0.0557  0.1606
 5559SOL    HW128656   2.189   0.390   1.925  1.2774 -1.0661  0.3504
 5559SOL    HW228657   2.246   0.332   1.797 -0.5670 -0.7175 -0.6752
 5560SOL     OW28658   7.460  13.444  12.372  0.0068  0.3230  0.1386
 5560SOL    HW128659   7.491  13.370  12.423  0.5250 -0.9457 -1.8885
 5560SOL    HW228660   7.378  13.415  12.334  1.4299 -0.3175 -2.7343
 5561SOL     OW28661  11.943  10.426   2.789 -0.2143  0.0984 -0.0364
 5561SOL    HW128662  11.967  10.391   2.875 -1.2227 -1.1078 -0.2238
 5561SOL    HW228663  12.022  10.414   2.736  0.5880  1.3029  0.8071
 5562SOL     OW28664   2.658  12.353   5.993  0.1585  0.8186  0.2317
 5562SOL    HW128665   2.643  12.415   5.922 -1.9328  0.5475  0.3754
 5562SOL    HW228666   2.680  12.409   6.068  0.0862  1.2507 -0.0635
 5563SOL     OW28667   3.445  11.011   5.501  0.1250  0.4316 -0.6720
 5563SOL    HW128668   3.386  11.017   5.426  0.1535  0.4273 -0.6949
 5563SOL    HW228669   3.450  11.100   5.535 -0.5550  0.2853 -0.1600
 5564SOL     OW28670   9.642   8.821  12.481 -0.0266  0.0570  0.0207
 5564SOL    HW128671   9.627   8.745  12.538 -0.8943  0.0052 -0.2495
 5564SOL    HW228672   9.636   8.896  12.540  1.4538 -0.0971  0.3981
 5565SOL     OW28673   5.281   3.823   2.028 -0.1754 -0.2301 -0.0695
 5565SOL    HW128674   5.289   3.885   1.955  1.3408  0.2123  0.4381
 5565SOL    HW228675   5.367   3.780   2.033 -0.5325 -0.8760  0.9125
 5566SOL     OW28676  13.068   0.655  13.723 -0.1125  0.2017  0.7814
 5566SOL    HW128677  13.046   0.749  13.727  2.5927  0.9469  0.4875
 5566SOL    HW228678  13.012   0.614  13.789 -1.7156  1.9351  0.5795
 5567SOL     OW28679   3.695   1.663   0.729 -0.3214  0.4042  0.2654
 5567SOL    HW128680   3.688   1.689   0.637 -1.6610  0.3828  0.3324
 5567SOL    HW228681   3.744   1.581   0.728 -2.0912 -0.7161 -0.6744
 5568SOL     OW28682   4.768   0.078   3.192  0.3790  0.3326 -0.4098
 5568SOL    HW128683   4.789   0.016   3.122  0.1299  1.1270 -1.2055
 5568SOL    HW228684   4.853   0.108   3.224  0.4920  0.1936 -0.5739
 5569SOL     OW28685   1.999  12.982   5.448  0.4963 -0.0293  0.0002
 5569SOL    HW128686   2.041  13.019   5.371  0.0038 -0.3308 -0.4212
 5569SOL    HW228687   1.907  13.006   5.440  0.2198 -1.0676 -0.1254
 5570SOL     OW28688  11.987   9.785   5.984  0.2483  0.5927 -0.4807
 5570SOL    HW128689  11.917   9.735   6.026  1.1396 -1.0662 -0.8792
 5570SOL    HW228690  11.947   9.869   5.962 -0.5986  1.0702  2.5027
 5571SOL     OW28691   7.424  13.248  11.611 -0.8233 -0.3247 -0.4133
 5571SOL    HW128692   7.484  13.179  11.583 -0.9461 -0.4988 -0.2502
 5571SOL    HW228693   7.390  13.284  11.529  0.9444  1.0796 -0.5881
 5572SOL     OW28694  11.866  11.824  12.728 -0.2354 -0.0744  0.3425
 5572SOL    HW128695  11.789  11.879  12.741  0.9937  1.8829 -0.1654
 5572SOL    HW228696  11.850  11.778  12.646 -0.4769  1.0416 -0.2510
 5573SOL     OW28697   2.392   8.788   1.007  0.0235  0.3560 -0.0035
 5573SOL    HW128698   2.331   8.715   1.010  0.6931 -0.1956  0.3692
 5573SOL    HW228699   2.397   8.810   0.914 -0.6866  0.3745 -0.0465
 5574SOL     OW28700   2.731  12.311   9.729  0.1892  0.1787  0.2809
 5574SOL    HW128701   2.701  12.254   9.800  0.4446 -0.9273 -0.4745
 5574SOL    HW228702   2.817  12.343   9.758 -0.9837  2.1616  1.7846
 5575SOL     OW28703  12.779   6.705  12.356  0.2297 -0.4924 -0.9119
 5575SOL    HW128704  12.844   6.724  12.423  1.5039  0.1302 -2.2785
 5575SOL    HW228705  12.779   6.782  12.299 -1.3251 -0.7010 -1.2657
 5576SOL     OW28706   8.583   9.612   0.241 -0.1946  0.0960  0.4866
 5576SOL    HW128707   8.630   9.630   0.160  1.8076 -1.2670  1.2577
 5576SOL    HW228708   8.624   9.670   0.306 -0.6835  0.0228  0.8723
 5577SOL     OW28709   3.411  12.474   6.719 -0.1642 -0.8702 -0.2465
 5577SOL    HW128710   3.331  12.524   6.703 -0.9190 -2.2304 -0.9288
 5577SOL    HW228711   3.481  12.539   6.717 -1.3216  0.5239  1.4396
 5578SOL     OW28712   2.668   3.373   7.425 -0.3056  0.2188  0.5724
 5578SOL    HW128713   2.743   3.325   7.461  0.3619  2.1124  1.8435
 5578SOL    HW228714   2.609   3.385   7.499 -0.8077  0.7081  0.1036
 5579SOL     OW28715   5.951  12.462   7.898  0.8582 -0.8019  0.5748
 5579SOL    HW128716   5.987  12.513   7.971 -0.0450  0.3108  0.2579
 5579SOL    HW228717   5.921  12.380   7.939  0.3288 -0.1796  1.4678
 5580SOL     OW28718  12.566  13.091  10.040 -0.3524  0.5811 -0.2036
 5580SOL    HW128719  12.597  13.012  10.084  2.7687  0.3713 -2.4785
 5580SOL    HW228720  12.557  13.155  10.110  1.9766 -0.4020  1.1084
 5581SOL     OW28721  11.821   9.692  12.531  0.5240 -0.1861 -0.3667
 5581SOL    HW128722  11.763   9.719  12.459 -1.0335 -0.3875  0.7797
 5581SOL    HW228723  11.817   9.597  12.530 -0.2751 -0.1724  0.5775
 5582SOL     OW28724   6.741  11.883   9.503  0.5342 -0.1481  0.0189
 5582SOL    HW128725   6.833  11.910   9.510  1.0024 -0.5466 -2.9642
 5582SOL    HW228726   6.739  11.828   9.424 -2.3528  0.2240 -0.2741
 5583SOL     OW28727  11.347   5.452   5.779  0.5043 -0.3905  0.1373
 5583SOL    HW128728  11.441   5.437   5.774  0.4049 -0.7935 -0.6084
 5583SOL    HW228729  11.337   5.547   5.779  1.0005 -0.2817  2.1826
 5584SOL     OW28730   6.148   1.539   5.525  0.1158  0.1957  0.4516
 5584SOL    HW128731   6.237   1.535   5.491  0.7182 -1.5686  2.0444
 5584SOL    HW228732   6.092   1.526   5.449  1.2882 -0.5917 -0.2994
 5585SOL     OW28733  10.507   7.288   6.440  0.3411 -0.4266 -0.0969
 5585SOL    HW128734  10.457   7.369   6.431 -1.7976 -1.6819  0.0289
 5585SOL    HW228735  10.569   7.307   6.512 -0.5772  0.8658  0.3968
 5586SOL     OW28736  13.210  13.334   1.046  0.1969  0.2589 -0.1812
 5586SOL    HW128737  13.203  13.239   1.031 -0.5876 -0.0100  1.5742
 5586SOL    HW228738  13.120  13.365   1.049  0.4307  0.9588 -0.1496
 5587SOL     OW28739  13.203   0.274   8.660  0.1382 -0.3281 -0.2086
 5587SOL    HW128740  13.162   0.254   8.576  0.4537 -0.4957 -0.3251
 5587SOL    HW228741  13.282   0.219   8.662  0.5989  0.3239 -0.1838
 5588SOL     OW28742   8.803   4.764   7.750  0.3178  0.5788 -0.4642
 5588SOL    HW128743   8.882   4.798   7.793  0.2433  0.5135 -0.2755
 5588SOL    HW228744   8.828   4.755   7.658 -0.2057  2.9315 -0.9228
 5589SOL     OW28745  13.596   2.636   7.126 -0.2114 -0.6213 -0.0342
 5589SOL    HW128746  13.599   2.544   7.102  1.5501 -0.2442 -1.4174
 5589SOL    HW228747  13.618   2.637   7.219  0.2367 -1.5576 -0.1194
 5590SOL     OW28748   7.623  11.918   4.643  0.2837 -0.6092 -0.4153
 5590SOL    HW128749   7.594  11.958   4.561 -1.7863  0.9716  0.9785
 5590SOL    HW228750   7.710  11.954   4.658  0.3639 -0.3061 -1.5474
 5591SOL     OW28751  12.998  13.308  12.884  0.0517 -0.4981 -0.3186
 5591SOL    HW128752  12.936  13.294  12.956 -1.0238  2.9899 -0.3634
 5591SOL    HW228753  12.970  13.246  12.816 -1.2903 -1.2822  0.8869
 5592SOL     OW28754  11.695  10.711   0.210  0.6334 -0.1739  0.3468
 5592SOL    HW128755  11.638  10.787   0.222 -1.4362 -1.5159 -0.4314
 5592SOL    HW228756  11.658  10.665   0.135  1.8708 -1.9147  0.7418
 5593SOL     OW28757  12.856   7.207   3.366 -0.3697  0.3280 -0.2136
 5593SOL    HW128758  12.882   7.119   3.394 -0.5158 -0.1607 -1.5690
 5593SOL    HW228759  12.845   7.255   3.448  0.1909 -0.7732  0.5364
 5594SOL     OW28760   0.916   7.455   3.944  0.2155 -0.6504  0.2713
 5594SOL    HW128761   0.984   7.502   3.991 -0.9342  0.7361  0.6259
 5594SOL    HW228762   0.934   7.472   3.852  0.7202 -0.8386  0.3351
 5595SOL     OW28763   5.548   1.374  11.602 -0.1534 -0.2901 -0.1451
 5595SOL    HW128764   5.564   1.467  11.612 -1.7223 -0.0180  0.2474
 5595SOL    HW228765   5.518   1.345  11.688  0.3316 -1.1687 -0.2526
 5596SOL     OW28766   4.721  11.820   9.405 -0.4806 -0.2418  0.1544
 5596SOL    HW128767   4.658  11.786   9.341 -0.8623  1.4291 -0.4172
 5596SOL    HW228768   4.745  11.907   9.371  0.4311  0.0817  1.5320
 5597SOL     OW28769   2.101   2.436   7.930  0.1045  0.0982 -0.3357
 5597SOL    HW128770   2.110   2.346   7.958  0.0171  0.6348  1.5117
 5597SOL    HW228771   2.133   2.436   7.839  3.4540 -1.1217  0.7038
 5598SOL     OW28772   0.907   9.469   9.435 -0.7628 -0.5380 -0.2018
 5598SOL    HW128773   1.000   9.493   9.436 -0.9009  0.0491 -0.7817
 5598SOL    HW228774   0.879   9.484   9.345 -1.4597 -0.5721  0.0015
 5599SOL     OW28775   1.612   1.696   1.439 -0.7040 -0.3425 -0.2774
 5599SOL    HW128776   1.624   1.753   1.363  0.0371  0.1948  0.2322
 5599SOL    HW228777   1.525   1.718   1.472 -0.8359 -0.2412 -0.6764
 5600SOL     OW28778  13.935   1.550   5.179  0.9693  0.0034  0.1175
 5600SOL    HW128779  14.030   1.549   5.185  0.9638 -1.5808  0.4590
 5600SOL    HW228780  13.915   1.625   5.122  2.2951  1.3810  1.3915
 5601SOL     OW28781   9.979  13.808   9.822  0.0863  0.3251  0.1457
 5601SOL    HW128782   9.927  13.752   9.764  1.6284 -0.6450 -0.3550
 5601SOL    HW228783  10.069  13.777   9.811  0.6303  1.1874  1.8639
 5602SOL     OW28784  10.669   1.038   7.823  0.0454 -0.6977 -0.6798
 5602SOL    HW128785  10.598   1.091   7.788  0.8776  0.2426 -0.9809
 5602SOL    HW228786  10.746   1.062   7.771  1.1553  0.1506  1.2276
 5603SOL     OW28787   0.857   4.869   3.540 -0.2595  0.4557  0.2489
 5603SOL    HW128788   0.832   4.874   3.633 -2.9393 -1.1077 -0.2745
 5603SOL    HW228789   0.804   4.935   3.497 -1.2519 -0.7904 -0.5130
 5604SOL     OW28790   1.280   2.347   3.446  0.1340 -0.0246 -0.4209
 5604SOL    HW128791   1.241   2.389   3.369 -0.9074  1.2697  0.7676
 5604SOL    HW228792   1.290   2.418   3.510  1.2764 -1.0097  0.5403
 5605SOL     OW28793   0.380   5.712   3.148  0.0187  0.0258  0.2072
 5605SOL    HW128794   0.398   5.785   3.206  3.0194  1.1918 -1.9330
 5605SOL    HW228795   0.464   5.693   3.107 -1.0029 -3.5687 -0.5915
 5606SOL     OW28796   4.284   2.047   6.040 -0.1751 -0.0487 -0.2255
 5606SOL    HW128797   4.292   2.094   5.957 -1.3942 -3.1776 -2.2865
 5606SOL    HW228798   4.189   2.034   6.051  0.0963 -1.7340  0.3749
 5607SOL     OW28799   3.575   8.893   0.079  0.0445 -0.2664  0.1303
 5607SOL    HW128800   3.529   8.826   0.029  0.8158 -0.5402 -0.2418
 5607SOL    HW228801   3.579   8.969   0.021  1.3385 -0.7321 -0.4490
 5608SOL     OW28802   7.823   6.820  13.931  0.2256 -0.3010  0.1688
 5608SOL    HW128803   7.733   6.813  13.962  0.3722 -0.4397  0.5626
 5608SOL    HW228804   7.851   6.908  13.956  0.4540 -0.5310  0.7258
 5609SOL     OW28805  10.408   1.807   3.532 -0.4630  0.4040  0.2091
 5609SOL    HW128806  10.444   1.878   3.585 -0.2570  0.3687  0.1179
 5609SOL    HW228807  10.463   1.731   3.554  0.8496  0.8160 -1.4492
 5610SOL     OW28808   9.771   0.199   5.916  0.1927 -0.1912 -0.6341
 5610SOL    HW128809   9.690   0.149   5.921 -0.0355  0.1547 -0.8000
 5610SOL    HW228810   9.822   0.170   5.991  0.4016 -1.2508 -1.1540
 5611SOL     OW28811  10.924   0.982  11.685 -0.0475  0.1322 -0.4056
 5611SOL    HW128812  10.924   0.887  11.673  0.6821  0.2602 -1.4708
 5611SOL    HW228813  10.996   0.998  11.747 -0.0672  0.0120 -0.3507
 5612SOL     OW28814   7.105  10.331   5.942 -0.3561  0.0564 -0.5337
 5612SOL    HW128815   7.112  10.276   6.020  0.7046  0.4715 -0.3214
 5612SOL    HW228816   7.047  10.402   5.969  0.8623  0.7866  0.2528
 5613SOL     OW28817  10.322   0.307   2.467 -0.1715  0.1638  0.2336
 5613SOL    HW128818  10.387   0.265   2.522 -0.7633 -0.8378  0.2121
 5613SOL    HW228819  10.335   0.267   2.380 -1.9278 -1.4252  0.6213
 5614SOL     OW28820   1.736   3.688   5.450  0.4291 -0.7684 -0.0303
 5614SOL    HW128821   1.740   3.603   5.494 -0.0482 -0.9434 -0.3185
 5614SOL    HW228822   1.740   3.752   5.522 -2.6512 -1.0626  0.5412
 5615SOL     OW28823   2.764  10.448   4.555  0.0910 -0.5904 -0.5366
 5615SOL    HW128824   2.800  10.393   4.625  0.3716  0.2563  0.0047
 5615SOL    HW228825   2.709  10.511   4.600 -0.7296 -0.8133 -1.2131
 5616SOL     OW28826  11.463   0.346   3.428 -0.1025 -0.4062  0.2275
 5616SOL    HW128827  11.473   0.357   3.523 -3.4538  1.6704  0.4868
 5616SOL    HW228828  11.518   0.414   3.390 -0.7100  0.4242  0.8117
 5617SOL     OW28829   2.304  10.479  12.802  0.4774  0.7097 -0.0574
 5617SOL    HW128830   2.315  10.571  12.827 -1.3730  1.0076 -0.2408
 5617SOL    HW228831   2.338  10.475  12.712  1.9055  0.8718  0.4501
 5618SOL     OW28832   3.775  10.368  12.496  0.4967  0.6050  0.5495
 5618SOL    HW128833   3.731  10.434  12.442 -0.4861 -0.7566 -0.3737
 5618SOL    HW228834   3.817  10.310  12.433 -0.7767 -1.0958  1.1977
 5619SOL     OW28835   9.507   9.435   0.362 -0.3340  0.2431 -0.9020
 5619SOL    HW128836   9.517   9.340   0.361 -1.3268  0.1084 -0.1646
 5619SOL    HW228837   9.583   9.467   0.411 -1.0990 -0.3618  0.7484
 5620SOL     OW28838   3.004  10.954   4.271  0.3932  0.4765  0.5361
 5620SOL    HW128839   2.984  10.989   4.184 -2.8574  0.3129  1.1081
 5620SOL    HW228840   2.978  11.024   4.331  0.9571 -0.0717  1.4370
 5621SOL     OW28841   2.121  11.300   7.239  0.0620 -0.3640 -0.3214
 5621SOL    HW128842   2.195  11.262   7.191 -0.6477 -0.5272 -1.3238
 5621SOL    HW228843   2.131  11.267   7.328  0.8920 -0.8195 -0.5707
 5622SOL     OW28844  12.328  10.268  13.786 -0.0710  0.0537  0.5010
 5622SOL    HW128845  12.395  10.231  13.843 -0.2279  0.4277  0.9357
 5622SOL    HW228846  12.365  10.264  13.699  0.1123 -0.6707  0.6063
 5623SOL     OW28847  11.322   8.174  12.175  0.1547  0.0838 -0.5844
 5623SOL    HW128848  11.236   8.146  12.145  0.1500  0.3983 -0.8772
 5623SOL    HW228849  11.312   8.187  12.269  0.5223 -2.2222 -0.1781
 5624SOL     OW28850   0.466  11.010   8.775  0.5838  0.2044  0.2011
 5624SOL    HW128851   0.452  10.934   8.831 -2.4780  0.6461  0.1864
 5624SOL    HW228852   0.532  11.062   8.821  0.1863 -0.7811  1.9785
 5625SOL     OW28853   5.937   5.670   6.728  0.5700  0.0515  0.1653
 5625SOL    HW128854   5.948   5.729   6.653 -1.4267 -0.9784 -1.0481
 5625SOL    HW228855   5.981   5.590   6.702 -1.2259 -0.7623 -0.5596
 5626SOL     OW28856   2.752   8.857   7.069  0.6407  0.0890 -0.5860
 5626SOL    HW128857   2.762   8.913   7.146 -0.3944  0.3116 -0.6038
 5626SOL    HW228858   2.796   8.776   7.094 -0.3221 -0.1171  0.5352
 5627SOL     OW28859  11.595   9.273   9.916 -0.1553 -0.0530 -0.0205
 5627SOL    HW128860  11.531   9.321   9.864  0.1200  0.3178 -0.0161
 5627SOL    HW228861  11.636   9.213   9.853 -0.5003 -0.2863 -0.0244
 5628SOL     OW28862   7.805   4.562  12.037  0.3229  0.1344  0.2213
 5628SOL    HW128863   7.786   4.506  12.113  1.2787 -0.9826 -0.3274
 5628SOL    HW228864   7.821   4.500  11.966  2.2670  1.0790 -0.2222
 5629SOL     OW28865  13.505  12.114   3.219 -0.4490 -0.5331  0.1779
 5629SOL    HW128866  13.429  12.073   3.262 -0.8084  1.0659  1.1607
 5629SOL    HW228867  13.580  12.086   3.270 -0.4456 -1.5868 -0.3926
 5630SOL     OW28868   4.242   6.121   0.451  0.0132 -0.5620 -0.0258
 5630SOL    HW128869   4.160   6.136   0.499  0.0189  0.8939 -0.4199
 5630SOL    HW228870   4.308   6.171   0.499  0.6419 -1.4949  0.1242
 5631SOL     OW28871  10.627   1.824   8.167 -0.4418 -0.9233  0.1101
 5631SOL    HW128872  10.625   1.839   8.072  4.8783  0.9705 -0.0801
 5631SOL    HW228873  10.656   1.733   8.176  2.4191 -0.1551 -0.4039
 5632SOL     OW28874   0.748   5.180   3.007  0.4007 -0.0515 -0.3692
 5632SOL    HW128875   0.805   5.220   3.073 -0.0003  0.7050 -0.4706
 5632SOL    HW228876   0.727   5.094   3.043  0.4874  0.2097  0.3207
 5633SOL     OW28877   7.068   7.080   5.184 -0.9356  0.2656  0.0729
 5633SOL    HW128878   7.112   7.122   5.110 -0.2907 -1.6384 -0.6835
 5633SOL    HW228879   7.127   7.093   5.258 -0.2404 -0.1913 -0.3896
 5634SOL     OW28880   0.549   6.470   8.211  0.4916  0.1855  0.5368
 5634SOL    HW128881   0.626   6.503   8.257  0.6633  1.5540 -0.6407
 5634SOL    HW228882   0.495   6.548   8.195 -0.0599 -0.4039 -0.6103
 5635SOL     OW28883  12.782   2.070   3.167  0.6865 -0.0149 -0.4231
 5635SOL    HW128884  12.721   2.144   3.168  0.4221 -0.2018  1.3693
 5635SOL    HW228885  12.733   1.998   3.205  0.4908 -1.5797 -3.3874
 5636SOL     OW28886   0.443  10.057   5.012  0.2603 -0.2157  0.3993
 5636SOL    HW128887   0.374  10.102   4.963 -1.5783 -1.8326  1.4097
 5636SOL    HW228888   0.431  10.086   5.103  0.7304 -0.7387  0.6326
 5637SOL     OW28889   7.743   0.352   1.420 -0.6404 -0.1648  0.0526
 5637SOL    HW128890   7.775   0.352   1.510 -0.7747 -1.0808  0.1085
 5637SOL    HW228891   7.782   0.430   1.381  0.5607 -0.5143  0.5090
 5638SOL     OW28892  12.939   6.774   4.320 -0.8068  0.4592  0.5376
 5638SOL    HW128893  12.855   6.819   4.328 -0.4121  1.3580 -0.3391
 5638SOL    HW228894  13.004   6.843   4.325  0.0146 -0.3859  3.0672
 5639SOL     OW28895   2.796   1.859   3.059 -0.3037 -0.3138 -0.5860
 5639SOL    HW128896   2.715   1.822   3.093 -1.0170  0.3715 -1.5026
 5639SOL    HW228897   2.768   1.924   2.995  0.9497  0.8753  0.0346
 5640SOL     OW28898   7.658   0.325   9.386  0.2425  0.4786 -0.4355
 5640SOL    HW128899   7.652   0.420   9.402 -1.5530  0.3425 -0.1104
 5640SOL    HW228900   7.680   0.288   9.471 -0.0803  0.5144 -0.3366
 5641SOL     OW28901   5.979  12.678   9.450 -0.1175  0.2956  0.1897
 5641SOL    HW128902   5.912  12.670   9.517 -0.0202  1.4536  0.4525
 5641SOL    HW228903   5.955  12.758   9.402  0.7065  0.3690 -0.1204
 5642SOL     OW28904   7.865   8.358  10.862 -0.1586  0.1612 -0.2562
 5642SOL    HW128905   7.816   8.386  10.939 -0.5294  0.3144 -0.5423
 5642SOL    HW228906   7.937   8.306  10.896  0.4319  1.2985  0.2832
 5643SOL     OW28907  12.907   2.507   1.110 -0.6662  0.3746  0.0380
 5643SOL    HW128908  12.863   2.424   1.094  0.9886 -0.4114 -0.7862
 5643SOL    HW228909  12.973   2.487   1.177  0.1756  0.8447 -0.6262
 5644SOL     OW28910   0.470   5.063   5.147 -0.2796  0.8060 -0.0215
 5644SOL    HW128911   0.557   5.048   5.184 -0.3194 -0.6953 -0.4680
 5644SOL    HW228912   0.461   4.997   5.078 -1.2764  1.7650 -0.8655
 5645SOL     OW28913   4.806   4.282  12.725  0.5260  0.1514 -0.3442
 5645SOL    HW128914   4.825   4.369  12.761 -0.2408  0.1931 -0.0354
 5645SOL    HW228915   4.831   4.222  12.795 -1.6950  0.2645  0.6165
 5646SOL     OW28916   7.273   1.832  12.943 -0.2629 -0.4552 -0.3035
 5646SOL    HW128917   7.267   1.863  13.034  0.0050 -1.3214  0.0153
 5646SOL    HW228918   7.331   1.895  12.901 -1.1666  0.5246 -0.1373
 5647SOL     OW28919  13.299  13.693  12.148  0.4556  0.2562  0.5240
 5647SOL    HW128920  13.328  13.737  12.228  1.6203 -0.0042  0.2570
 5647SOL    HW228921  13.380  13.664  12.105 -0.2231 -0.8566 -0.0422
 5648SOL     OW28922   2.897   7.385   5.678 -0.0836 -0.5695  0.1024
 5648SOL    HW128923   2.848   7.306   5.655 -0.1722 -0.4822 -0.0073
 5648SOL    HW228924   2.918   7.374   5.771  1.5399 -1.6027 -0.3452
 5649SOL     OW28925   7.161   0.193  10.451 -0.2896 -0.4489  0.2518
 5649SOL    HW128926   7.097   0.205  10.521 -0.8260 -2.1253  0.0908
 5649SOL    HW228927   7.227   0.134  10.488  1.5848  1.7240  0.6327
 5650SOL     OW28928  13.007  10.826  11.697 -0.6128  0.0213 -0.4626
 5650SOL    HW128929  13.088  10.793  11.659  0.0415  0.0943  0.8037
 5650SOL    HW228930  12.942  10.816  11.628  0.0819 -1.6933 -0.9086
 5651SOL     OW28931   1.109   3.938   0.461  0.3014 -0.0678 -0.4387
 5651SOL    HW128932   1.121   3.946   0.366  1.4709 -0.6353 -0.3568
 5651SOL    HW228933   1.185   3.982   0.498  0.3222 -0.6440  0.2195
 5652SOL     OW28934   7.312   5.122   9.541 -0.1684 -0.6083  0.3661
 5652SOL    HW128935   7.402   5.089   9.546  1.0140  1.8399 -2.3433
 5652SOL    HW228936   7.310   5.197   9.601  0.1727  0.4054 -0.8544
 5653SOL     OW28937  13.144  10.591  14.038 -0.0794 -0.5398 -0.2606
 5653SOL    HW128938  13.225  10.600  14.089  0.9881 -0.0652 -1.9789
 5653SOL    HW228939  13.173  10.563  13.952 -1.4609  2.0761 -1.7147
 5654SOL     OW28940  13.728   0.866   2.730 -0.0253  0.3031  0.2876
 5654SOL    HW128941  13.782   0.852   2.652 -0.2304 -0.7661  0.3239
 5654SOL    HW228942  13.786   0.849   2.804 -0.9936 -3.9566  0.3693
 5655SOL     OW28943   1.145   3.785  11.309  0.9289  0.2634 -0.1187
 5655SOL    HW128944   1.172   3.695  11.291  0.0214 -0.1797  0.6315
 5655SOL    HW228945   1.055   3.790  11.277  0.8732  0.8138  0.1091
 5656SOL     OW28946   4.171  11.816   2.743 -0.4858  0.2469 -0.1194
 5656SOL    HW128947   4.193  11.815   2.836  1.2500 -0.8425 -0.4969
 5656SOL    HW228948   4.129  11.732   2.727 -1.4581  0.7315 -0.1954
 5657SOL     OW28949  13.774   3.366   7.548  0.0664 -0.2403  0.1596
 5657SOL    HW128950  13.771   3.345   7.455 -0.6587 -2.0609  0.5553
 5657SOL    HW228951  13.800   3.284   7.591 -2.9775 -0.4597  1.8271
 5658SOL     OW28952  10.827   3.961   2.392 -0.5345 -0.2493  0.1063
 5658SOL    HW128953  10.917   3.933   2.411 -0.7002 -0.6176  0.3619
 5658SOL    HW228954  10.777   3.933   2.468 -1.0639 -1.0402 -0.5125
 5659SOL     OW28955   8.019   0.535  10.071  0.3058 -0.0710 -0.5200
 5659SOL    HW128956   7.956   0.510  10.004 -0.5905  0.2476  0.1837
 5659SOL    HW228957   8.061   0.614  10.038 -0.8996  0.7040 -0.2428
 5660SOL     OW28958  13.564   8.459   4.064  0.2041  0.1019 -0.4042
 5660SOL    HW128959  13.572   8.434   4.156  0.6431 -0.1919 -0.5202
 5660SOL    HW228960  13.506   8.393   4.026 -0.1536  0.3499 -0.2903
 5661SOL     OW28961  11.034   5.161   5.244  0.0015 -0.4818  0.0686
 5661SOL    HW128962  11.089   5.236   5.265  0.6064 -1.2095  1.2327
 5661SOL    HW228963  10.946   5.197   5.233  0.0553  0.2729  1.7970
 5662SOL     OW28964   5.397   2.983  10.793 -0.3327  0.1205 -0.0262
 5662SOL    HW128965   5.406   2.948  10.881 -1.7428  1.3554  0.6667
 5662SOL    HW228966   5.407   2.908  10.735  0.4743 -0.7344  1.1880
 5663SOL     OW28967   7.370   9.863   7.539  0.4960 -0.1105 -0.7774
 5663SOL    HW128968   7.308   9.858   7.466  1.2417  1.4039 -1.5531
 5663SOL    HW228969   7.315   9.861   7.617 -0.4019 -0.5321 -1.4061
 5664SOL     OW28970   7.047   3.443   1.480 -0.3691 -0.0300 -0.0229
 5664SOL    HW128971   7.053   3.467   1.572  2.1928  0.5972 -0.2655
 5664SOL    HW228972   7.098   3.363   1.473  1.6684  1.2782 -1.2368
 5665SOL     OW28973   6.740   1.552  12.869 -0.2525 -0.2335  0.2436
 5665SOL    HW128974   6.793   1.486  12.825  0.4034 -0.0469  0.7327
 5665SOL    HW228975   6.748   1.531  12.962 -1.8495 -0.7991  0.2848
 5666SOL     OW28976   1.048   2.834   0.685 -0.5823  0.4848  0.2041
 5666SOL    HW128977   1.095   2.789   0.615 -2.2910  0.6221 -1.1094
 5666SOL    HW228978   1.113   2.846   0.754  1.9459  2.6276 -2.2842
 5667SOL     OW28979   4.707   1.079   6.326  0.1218  0.2802 -0.2594
 5667SOL    HW128980   4.711   1.169   6.359  1.1825  0.0269  0.3402
 5667SOL    HW228981   4.781   1.072   6.266 -0.1349 -0.1120 -0.5348
 5668SOL     OW28982  11.271  14.029   6.768 -0.1678  0.3847 -0.0102
 5668SOL    HW128983  11.357  14.068   6.750  0.2795 -0.7892 -0.5325
 5668SOL    HW228984  11.242  13.995   6.683  0.4572 -2.3243  0.7883
 5669SOL     OW28985   0.468  11.409   2.708  0.9637 -0.0415 -0.6052
 5669SOL    HW128986   0.441  11.475   2.643  1.4928  0.3784 -0.4116
 5669SOL    HW228987   0.386  11.379   2.747  0.7808  2.7020  1.4447
 5670SOL     OW28988   0.122   2.157   6.125  0.4716 -0.0652 -0.2380
 5670SOL    HW128989   0.068   2.161   6.046  0.1865  1.9509  0.0174
 5670SOL    HW228990   0.169   2.241   6.126  3.9978 -1.8451 -0.6682
 5671SOL     OW28991  11.689   3.102  11.204 -0.3090 -0.3528  0.2556
 5671SOL    HW128992  11.720   3.187  11.236 -0.7205 -0.4957  1.0532
 5671SOL    HW228993  11.598   3.118  11.179 -0.1164 -0.3452 -0.4725
 5672SOL     OW28994   5.650  13.653  13.081 -0.3803  0.1773 -0.4105
 5672SOL    HW128995   5.732  13.608  13.100  0.0117  1.8815  2.5959
 5672SOL    HW228996   5.586  13.582  13.072  0.7354 -1.1342  1.1990
 5673SOL     OW28997   5.715   7.797  10.310  0.4077 -0.0040 -0.8337
 5673SOL    HW128998   5.642   7.812  10.370 -0.3468  3.0129 -2.3240
 5673SOL    HW228999   5.677   7.743  10.240  0.1774 -0.1266 -0.6177
 5674SOL     OW29000  10.241   6.205   6.837  0.4004  0.1770 -0.1630
 5674SOL    HW129001  10.337   6.203   6.835  0.4148 -1.4634  0.5490
 5674SOL    HW229002  10.217   6.149   6.911 -1.1409 -1.7153 -1.9717
 5675SOL     OW29003   6.405  10.564   7.022 -0.2025  0.3799 -0.4144
 5675SOL    HW129004   6.394  10.557   6.927  1.5449  1.1428 -0.7056
 5675SOL    HW229005   6.317  10.585   7.054 -1.2913 -1.9123 -1.6025
 5676SOL     OW29006   2.250   3.616   8.015  0.5885  0.0199  0.5533
 5676SOL    HW129007   2.325   3.599   7.957  0.4363  1.5595 -0.1175
 5676SOL    HW229008   2.192   3.672   7.964 -0.7496 -0.6255  1.3088
 5677SOL     OW29009   6.896   9.390   8.751 -0.0374 -0.6783  0.4747
 5677SOL    HW129010   6.817   9.443   8.761 -0.2691 -1.2816  2.2070
 5677SOL    HW229011   6.891   9.356   8.662 -0.9658  0.4674  0.0596
 5678SOL     OW29012  12.159   5.720   7.063  0.3628  0.2750  0.8974
 5678SOL    HW129013  12.170   5.626   7.079  1.0658  0.3656  1.0083
 5678SOL    HW229014  12.233   5.743   7.007 -1.9338  0.0192 -2.4681
 5679SOL     OW29015   2.122   4.455   9.230 -0.5106  0.0169 -0.6933
 5679SOL    HW129016   2.030   4.440   9.209 -1.1467  2.0506  0.3966
 5679SOL    HW229017   2.142   4.395   9.301 -1.0935 -0.2101 -0.7240
 5680SOL     OW29018   5.667   8.726   0.408  0.2465  0.4210 -0.0414
 5680SOL    HW129019   5.681   8.642   0.363 -1.2829  0.4679 -0.6451
 5680SOL    HW229020   5.641   8.702   0.496  1.4974  0.3016  0.3080
 5681SOL     OW29021  11.149   8.357   7.192 -0.6027  0.1056 -0.1001
 5681SOL    HW129022  11.104   8.402   7.263  1.0608  0.4666  0.7674
 5681SOL    HW229023  11.240   8.351   7.221 -0.7051 -3.8414 -0.1724
 5682SOL     OW29024   6.814   7.807   4.438 -0.2450 -0.2643  0.2720
 5682SOL    HW129025   6.828   7.733   4.379  0.8867  0.7790 -0.8118
 5682SOL    HW229026   6.773   7.874   4.384  1.4310  0.9587  0.4135
 5683SOL     OW29027   0.129  12.276   7.078  0.6040 -0.5762 -0.0234
 5683SOL    HW129028   0.147  12.279   6.984  0.2307 -0.1024 -0.0823
 5683SOL    HW229029   0.178  12.351   7.114 -0.6838  0.3217 -0.0915
 5684SOL     OW29030   8.606   5.179   2.553  0.5668 -1.2561  0.3383
 5684SOL    HW129031   8.592   5.095   2.509 -0.8916 -1.3417  0.9050
 5684SOL    HW229032   8.616   5.242   2.482  0.5947 -1.7405 -0.0935
 5685SOL     OW29033   0.444   8.070   4.699  0.2946 -0.0827 -0.5990
 5685SOL    HW129034   0.372   8.059   4.761  0.2279  0.4027 -0.5879
 5685SOL    HW229035   0.513   8.113   4.750  0.7524 -0.9263 -0.4957
 5686SOL     OW29036   8.398   2.002   0.771  0.4983  0.1606  0.3205
 5686SOL    HW129037   8.482   2.046   0.752  0.5547  0.1712  0.5795
 5686SOL    HW229038   8.377   1.954   0.692  0.7226  0.2060  0.2330
 5687SOL     OW29039   8.804   5.997   8.302  0.1939  0.2380 -0.2945
 5687SOL    HW129040   8.786   6.007   8.396 -0.2255  0.1740 -0.3668
 5687SOL    HW229041   8.739   5.934   8.272  1.7238 -1.4599 -0.1967
 5688SOL     OW29042   6.042   2.730  12.388  0.0071 -0.2056 -0.2400
 5688SOL    HW129043   6.108   2.689  12.444  1.4526 -0.5351 -2.0861
 5688SOL    HW229044   6.072   2.819  12.376  0.7270 -0.6316 -1.9034
 5689SOL     OW29045  12.112   0.482  11.333 -0.2487  0.2560 -0.0117
 5689SOL    HW129046  12.160   0.400  11.330  1.5435  1.2583 -0.7538
 5689SOL    HW229047  12.037   0.469  11.275 -1.0729 -1.4320  1.3623
 5690SOL     OW29048   5.867  11.626  10.990  0.3281 -0.0544  0.0519
 5690SOL    HW129049   5.946  11.604  11.039  0.6375  0.3391 -0.2601
 5690SOL    HW229050   5.799  11.569  11.026  0.5685  0.1791  0.8807
 5691SOL     OW29051   3.081   6.737  10.966 -0.5685  0.3380  0.0138
 5691SOL    HW129052   3.130   6.807  10.922 -1.5312  0.6616 -0.5883
 5691SOL    HW229053   2.996   6.737  10.922 -0.6618 -1.0731  0.1621
 5692SOL     OW29054   4.154   9.655  12.219 -0.0793 -0.3664  0.2658
 5692SOL    HW129055   4.152   9.607  12.302 -1.0244 -0.8039 -0.0047
 5692SOL    HW229056   4.074   9.629  12.174  1.9937 -2.8690 -2.3275
 5693SOL     OW29057   6.768   4.272   0.684  0.0715 -0.0137  0.4682
 5693SOL    HW129058   6.817   4.336   0.735 -1.0505  0.6328  0.7622
 5693SOL    HW229059   6.811   4.188   0.703  0.1374  0.3164  1.8782
 5694SOL     OW29060  10.435  10.250  13.571  0.3455  0.1292  0.1182
 5694SOL    HW129061  10.434  10.343  13.550 -0.6408  0.1508  0.2189
 5694SOL    HW229062  10.355  10.216  13.532 -0.5703 -0.2095  2.1595
 5695SOL     OW29063   1.535   5.792   6.259  0.5385  0.2174  0.1011
 5695SOL    HW129064   1.463   5.777   6.321 -0.8562  0.4144 -1.3816
 5695SOL    HW229065   1.530   5.886   6.239 -0.6907 -0.2488 -2.1390
 5696SOL     OW29066  13.750   4.865  13.691 -0.0718 -0.3712  0.1081
 5696SOL    HW129067  13.826   4.916  13.661  0.5544 -1.1050  0.4128
 5696SOL    HW229068  13.769   4.846  13.783 -2.1260  2.1535  1.1986
 5697SOL     OW29069   2.220   4.140   1.940  0.0172 -0.5522  0.2233
 5697SOL    HW129070   2.246   4.048   1.928 -0.2380 -0.6892  0.7252
 5697SOL    HW229071   2.126   4.136   1.955  0.1114 -0.2555  0.8821
 5698SOL     OW29072  13.841  10.707   7.541  0.6789 -0.1229 -0.5130
 5698SOL    HW129073  13.830  10.626   7.590  2.8552 -0.2352 -0.1080
 5698SOL    HW229074  13.831  10.682   7.450 -0.4963 -0.4699 -0.3047
 5699SOL     OW29075   2.347   7.870   4.484  0.4067 -0.0935 -0.1816
 5699SOL    HW129076   2.442   7.877   4.486  0.4621 -0.8745  0.4251
 5699SOL    HW229077   2.321   7.915   4.404  1.5034 -2.1950 -1.7911
 5700SOL     OW29078  11.798   6.298   0.603  0.3125  0.1488 -0.1999
 5700SOL    HW129079  11.848   6.267   0.678 -0.1551 -0.3786 -0.0975
 5700SOL    HW229080  11.794   6.393   0.614 -0.3893  0.0137  0.8463
 5701SOL     OW29081   9.290   0.642   3.378  0.4790  0.4836 -0.3963
 5701SOL    HW129082   9.370   0.603   3.412  1.3792  2.9290  0.5567
 5701SOL    HW229083   9.239   0.665   3.456 -0.4725  0.2898 -0.9434
 5702SOL     OW29084   1.295   5.603   5.622 -0.9338  0.3453  0.2735
 5702SOL    HW129085   1.228   5.535   5.618 -0.7907  0.1645  0.8456
 5702SOL    HW229086   1.369   5.561   5.666  0.6766 -0.3713 -2.8479
 5703SOL     OW29087   7.687   5.081   0.845 -0.2698 -0.2056  0.5448
 5703SOL    HW129088   7.734   5.154   0.884  0.7975 -0.4471 -0.2261
 5703SOL    HW229089   7.595   5.099   0.862 -0.0158  1.2544  0.4701
 5704SOL     OW29090   5.142   8.336   0.256 -0.2823 -0.2372 -0.7238
 5704SOL    HW129091   5.080   8.383   0.312 -0.1914 -0.0105 -0.8083
 5704SOL    HW229092   5.206   8.403   0.231  0.1779 -0.5365 -0.3734
 5705SOL     OW29093   7.418  13.111   1.284 -0.4100 -0.3217  0.6330
 5705SOL    HW129094   7.453  13.062   1.209  3.4487  1.5327  0.9492
 5705SOL    HW229095   7.368  13.182   1.244  2.5735  1.3572 -0.4941
 5706SOL     OW29096   8.409   9.425   5.087  0.0742 -0.3749  0.8199
 5706SOL    HW129097   8.361   9.392   5.011 -0.6612 -1.0767  1.5749
 5706SOL    HW229098   8.360   9.393   5.162  0.8601  0.2133  1.5984
 5707SOL     OW29099   3.955   6.770   7.520  0.1589 -0.1981 -0.3027
 5707SOL    HW129100   4.024   6.749   7.457  1.9861  1.1838  1.0837
 5707SOL    HW229101   3.999   6.763   7.606 -1.7163 -0.2294  0.6986
 5708SOL     OW29102  13.200  10.491  11.672  0.2474  0.6950 -0.0127
 5708SOL    HW129103  13.206  10.565  11.611  0.0675 -0.2004 -1.1524
 5708SOL    HW229104  13.257  10.516  11.745  0.5010  1.7818 -0.5506
 5709SOL     OW29105   0.041  10.006   6.502 -0.5749 -0.1282  0.4879
 5709SOL    HW129106   0.078  10.033   6.419 -2.0205  0.3418 -0.0307
 5709SOL    HW229107   0.033   9.910   6.495 -1.7468  0.0113 -0.4009
 5710SOL     OW29108   0.966  13.951   3.375 -0.2229 -0.0587 -0.7075
 5710SOL    HW129109   0.885  13.999   3.357  0.1986  0.7691 -0.4298
 5710SOL    HW229110   0.953  13.913   3.462  0.1428  1.0587 -0.1561
 5711SOL     OW29111   3.657   1.938   8.021  0.2226  0.0844  0.2806
 5711SOL    HW129112   3.620   1.999   7.957 -0.7469 -1.5782 -0.8037
 5711SOL    HW229113   3.640   1.852   7.985 -0.6777 -0.9555  2.9338
 5712SOL     OW29114   2.497   9.239  11.556  0.0858 -0.1284 -0.0210
 5712SOL    HW129115   2.495   9.148  11.585  1.0186  0.2043  1.1961
 5712SOL    HW229116   2.405   9.264  11.547 -0.1797 -1.1010 -0.0775
 5713SOL     OW29117   8.689   0.191  12.183 -0.1447 -0.0377 -0.5446
 5713SOL    HW129118   8.673   0.243  12.261 -1.5999 -0.2759 -0.6548
 5713SOL    HW229119   8.664   0.102  12.208  0.0105 -0.2380 -1.0868
 5714SOL     OW29120   0.243   0.857   1.717 -0.1765 -0.7324 -0.8176
 5714SOL    HW129121   0.267   0.764   1.717  0.1462 -0.6601 -2.0295
 5714SOL    HW229122   0.167   0.862   1.660 -0.5252 -0.3200 -0.3264
 5715SOL     OW29123   0.751   0.512   0.759 -0.1982  0.9018  0.3842
 5715SOL    HW129124   0.694   0.445   0.797 -0.9660  1.4757  0.2781
 5715SOL    HW229125   0.699   0.551   0.689  1.1534 -0.0495 -1.2153
 5716SOL     OW29126   4.856   7.357   8.556  0.4123 -0.3295  0.0506
 5716SOL    HW129127   4.832   7.281   8.609 -0.2888 -0.2566 -0.1549
 5716SOL    HW229128   4.944   7.338   8.525  0.0408 -1.3086 -0.4411
 5717SOL     OW29129  12.663   5.853   0.197 -0.8551 -0.0666 -0.0787
 5717SOL    HW129130  12.697   5.764   0.188  1.6239  0.5002  2.2508
 5717SOL    HW229131  12.726   5.907   0.150 -1.5784  0.5651 -0.3248
 5718SOL     OW29132  13.676   9.359   8.512 -0.1489 -0.1823  0.4415
 5718SOL    HW129133  13.711   9.437   8.554 -0.1138  0.4545 -0.7228
 5718SOL    HW229134  13.664   9.384   8.420  0.4125 -1.7080 -0.0966
 5719SOL     OW29135   4.418   0.497   0.274  0.2633  0.1306 -0.4850
 5719SOL    HW129136   4.448   0.550   0.348 -0.8190  1.0295 -0.6758
 5719SOL    HW229137   4.495   0.446   0.249  1.1387  1.0986  0.1471
 5720SOL     OW29138   0.414   1.320   0.640  0.3945  0.0447 -0.3502
 5720SOL    HW129139   0.376   1.368   0.713  1.1714  0.1957 -0.0267
 5720SOL    HW229140   0.353   1.333   0.568 -1.1641 -1.3697  0.6459
 5721SOL     OW29141  12.276   0.438   6.647  0.3680 -0.7093 -0.0432
 5721SOL    HW129142  12.346   0.389   6.604  0.6156 -0.8875  0.5537
 5721SOL    HW229143  12.307   0.452   6.736  1.0764  2.0002 -0.6085
 5722SOL     OW29144   5.849   5.710   4.706  0.0172  0.0741 -0.5278
 5722SOL    HW129145   5.833   5.787   4.651 -2.6352 -0.4683 -0.6219
 5722SOL    HW229146   5.874   5.747   4.792  0.6186  0.9705 -1.0675
 5723SOL     OW29147  13.190   4.934  10.516 -0.3989  0.3835  0.6190
 5723SOL    HW129148  13.277   4.894  10.520 -1.3240 -1.6764  1.6181
 5723SOL    HW229149  13.196   4.996  10.444  1.2872 -1.3119 -0.8232
 5724SOL     OW29150   3.872  10.570  12.753 -0.1515 -0.3611  0.1524
 5724SOL    HW129151   3.929  10.510  12.801  0.2542  0.7813  1.1356
 5724SOL    HW229152   3.928  10.602  12.682  0.4955  0.8277  1.1684
 5725SOL     OW29153   9.894   0.005   0.907 -0.2602 -0.2893 -0.1927
 5725SOL    HW129154   9.926   0.036   0.992  1.8751 -2.0079 -0.2821
 5725SOL    HW229155   9.880   0.084   0.856 -1.6808  0.8014  1.7462
 5726SOL     OW29156   5.715   0.066  12.447 -0.6853 -0.1095  0.3095
 5726SOL    HW129157   5.652   0.001  12.479  1.1116 -2.1118  0.0532
 5726SOL    HW229158   5.704   0.063  12.351 -0.2720 -0.4028  0.2698
 5727SOL     OW29159   1.059  12.320  12.680  0.1643 -0.4502 -0.0121
 5727SOL    HW129160   1.060  12.251  12.614  1.3637 -0.3905 -0.0771
 5727SOL    HW229161   1.134  12.376  12.658  1.8891 -1.5334  2.4992
 5728SOL     OW29162   9.406   1.688   4.607  0.3674 -0.3834 -0.3044
 5728SOL    HW129163   9.497   1.703   4.583  0.4721 -1.8774 -0.9960
 5728SOL    HW229164   9.407   1.686   4.702  0.9125  0.3751 -0.2828
 5729SOL     OW29165   8.359   4.959  10.674  0.5975  0.6706 -0.6615
 5729SOL    HW129166   8.317   4.920  10.750  0.0778  0.5664 -0.9969
 5729SOL    HW229167   8.287   4.990  10.620  0.8644 -0.7302 -1.8920
 5730SOL     OW29168   9.126   0.754  13.358  0.4634  0.0695 -0.4432
 5730SOL    HW129169   9.046   0.769  13.308  1.3636 -0.3311 -2.0695
 5730SOL    HW229170   9.178   0.695  13.304  2.3608  1.2139  0.0314
 5731SOL     OW29171   1.832  11.382   2.131 -0.0145 -0.3005 -0.6078
 5731SOL    HW129172   1.876  11.445   2.188 -0.6955  0.9434 -1.4088
 5731SOL    HW229173   1.741  11.383   2.159 -0.0244 -0.9698 -0.6020
 5732SOL     OW29174  11.389   3.702   7.197  0.2169 -0.0356  0.0311
 5732SOL    HW129175  11.412   3.750   7.276 -0.1047 -0.6561  0.5113
 5732SOL    HW229176  11.471   3.663   7.167  1.0810  2.9208 -1.8849
 5733SOL     OW29177   7.304   2.029   0.827 -1.0435  0.3474 -0.5226
 5733SOL    HW129178   7.292   1.958   0.889 -0.0705 -0.0399 -0.7630
 5733SOL    HW229179   7.351   1.990   0.753 -1.0931  1.0800 -0.9602
 5734SOL     OW29180   7.384   7.560   2.055  0.4931  0.5229 -0.0502
 5734SOL    HW129181   7.312   7.568   2.119  0.8003  0.8057  0.2643
 5734SOL    HW229182   7.458   7.528   2.106  0.9223  1.3753 -0.1292
 5735SOL     OW29183   0.014   9.778   7.609  0.0761  0.5290 -0.0812
 5735SOL    HW129184   0.075   9.831   7.557  0.8527 -0.5796 -0.3410
 5735SOL    HW229185   0.041   9.792   7.700 -0.3425  1.3270 -0.0770
 5736SOL     OW29186   0.818  10.681   2.648 -0.0099  0.3157 -0.5329
 5736SOL    HW129187   0.725  10.669   2.626  0.1204 -2.2470  0.0056
 5736SOL    HW229188   0.818  10.754   2.710 -1.5263  1.0642 -1.3503
 5737SOL     OW29189   1.939   9.843   7.789 -0.2730  0.3923  0.1064
 5737SOL    HW129190   1.903   9.835   7.877 -0.4319  1.6093  0.1759
 5737SOL    HW229191   1.874   9.802   7.732  0.3111 -1.3287  0.6266
 5738SOL     OW29192   5.950   1.431  11.623 -0.2747 -0.3457 -0.5877
 5738SOL    HW129193   6.016   1.408  11.688 -1.1421 -0.0914  0.4285
 5738SOL    HW229194   5.923   1.348  11.585  1.2413 -0.3839 -1.6773
 5739SOL     OW29195   8.058   3.864   1.355 -0.4779  0.1739  0.1033
 5739SOL    HW129196   8.041   3.806   1.429  2.6077  1.1392  1.7908
 5739SOL    HW229197   8.077   3.949   1.395  1.2552  0.7622 -1.7590
 5740SOL     OW29198  10.294   0.498   8.365  0.1086 -0.2667  0.1408
 5740SOL    HW129199  10.281   0.418   8.314 -1.0628 -1.0719  1.6123
 5740SOL    HW229200  10.339   0.468   8.444 -1.7723  0.2023  1.4549
 5741SOL     OW29201  11.116   6.943   8.200 -0.1285  0.3622 -0.2435
 5741SOL    HW129202  11.119   6.941   8.295 -1.1176  2.3322 -0.1191
 5741SOL    HW229203  11.024   6.930   8.178 -0.5704  3.4603 -0.6881
 5742SOL     OW29204   4.524   1.120  10.509  0.0486 -0.5038  0.1828
 5742SOL    HW129205   4.434   1.122  10.478  0.5721 -1.7045 -1.5480
 5742SOL    HW229206   4.519   1.086  10.599 -1.3725  1.5939  0.9725
 5743SOL     OW29207   5.761   0.837  11.522 -0.0362 -0.8530 -0.2802
 5743SOL    HW129208   5.677   0.797  11.542 -1.3097  0.6022 -2.4145
 5743SOL    HW229209   5.756   0.925  11.561  0.5436 -0.7971 -0.3184
 5744SOL     OW29210   7.119   0.499   6.260 -0.4415 -0.5519  0.2514
 5744SOL    HW129211   7.048   0.549   6.222  0.0433 -0.5399 -0.6676
 5744SOL    HW229212   7.081   0.460   6.339 -1.4159 -0.4261 -0.1386
 5745SOL     OW29213   4.310  12.460  12.651 -0.5191  0.1952  0.2602
 5745SOL    HW129214   4.279  12.373  12.626 -0.8011  0.0965  0.9259
 5745SOL    HW229215   4.405  12.450  12.661 -0.2379  0.4837 -1.7324
 5746SOL     OW29216   9.509   4.742   0.440 -0.0190 -0.3520  0.2124
 5746SOL    HW129217   9.510   4.727   0.534 -2.3638  2.3383  0.8092
 5746SOL    HW229218   9.437   4.688   0.407 -0.7775  0.5170  0.4066
 5747SOL     OW29219   9.703   2.802   5.380  0.3215 -0.2305  0.6009
 5747SOL    HW129220   9.708   2.706   5.374 -1.5765 -0.2953 -0.8581
 5747SOL    HW229221   9.660   2.829   5.299 -0.6588  1.7141  1.7016
 5748SOL     OW29222  11.546   8.797   3.597  0.2295  0.3018  0.4126
 5748SOL    HW129223  11.601   8.741   3.652  0.4281  2.3304  2.4062
 5748SOL    HW229224  11.467   8.746   3.583  2.1184 -2.3396 -1.7855
 5749SOL     OW29225  13.643   9.431   0.146 -0.4813  0.5165  0.0926
 5749SOL    HW129226  13.721   9.485   0.137  0.8665 -1.3640  0.0230
 5749SOL    HW229227  13.675   9.341   0.153 -2.6553 -0.4144 -0.7273
 5750SOL     OW29228  11.647   0.928   2.977 -0.1547  0.0734 -0.9488
 5750SOL    HW129229  11.717   0.916   2.912  1.4995  0.3020  0.6772
 5750SOL    HW229230  11.666   1.012   3.018 -1.6520  0.3345 -0.7354
 5751SOL     OW29231   8.416   8.093  12.924 -0.3484  0.2720  0.3334
 5751SOL    HW129232   8.358   8.134  12.989  0.2424  2.1256 -0.2444
 5751SOL    HW229233   8.501   8.135  12.938  0.5614 -1.4783  0.3163
 5752SOL     OW29234   5.680  11.954   8.713  0.0320 -0.1039 -0.1375
 5752SOL    HW129235   5.693  11.879   8.655  0.9874  0.3723 -0.5547
 5752SOL    HW229236   5.585  11.964   8.717 -0.1218 -1.4720  0.1158
 5753SOL     OW29237   5.207   0.642   1.463 -0.7837 -0.4092 -0.4287
 5753SOL    HW129238   5.287   0.655   1.412  0.7481  1.9585  2.2896
 5753SOL    HW229239   5.235   0.592   1.539 -2.1447 -0.4825  0.0560
 5754SOL     OW29240   4.624   5.559   8.824 -0.1703 -0.7072 -0.3143
 5754SOL    HW129241   4.659   5.482   8.869 -0.7051 -0.3993  0.6356
 5754SOL    HW229242   4.702   5.609   8.798  0.1979 -1.7475 -1.2906
 5755SOL     OW29243   8.205   0.792   2.330 -0.2679 -0.8083  0.1180
 5755SOL    HW129244   8.151   0.821   2.256 -0.6611  0.5949  0.9210
 5755SOL    HW229245   8.291   0.832   2.314 -0.1494 -1.0710  0.0848
 5756SOL     OW29246   2.253   2.435   7.332 -0.2514 -0.7669 -0.2049
 5756SOL    HW129247   2.211   2.520   7.317 -0.1388 -0.9008 -1.3819
 5756SOL    HW229248   2.211   2.376   7.269 -0.6832 -1.7165  0.9386
 5757SOL     OW29249   8.869   9.743   5.066 -0.2844 -0.0423 -0.3894
 5757SOL    HW129250   8.917   9.686   5.006  0.0561  1.1748 -1.3282
 5757SOL    HW229251   8.779   9.711   5.064  0.0861 -1.1350 -0.1297
 5758SOL     OW29252  12.960   1.687   3.430 -0.2350  0.7519 -0.2043
 5758SOL    HW129253  12.873   1.650   3.416 -0.9570  0.9691  3.0052
 5758SOL    HW229254  13.019   1.631   3.379 -1.9803 -0.8402 -0.5625
 5759SOL     OW29255   9.321  10.523  11.660  0.1857 -0.6059  0.9121
 5759SOL    HW129256   9.281  10.441  11.690 -0.5330 -0.5918  0.0093
 5759SOL    HW229257   9.391  10.539  11.724 -2.1285  0.1653  3.4494
 5760SOL     OW29258   2.773   1.652   6.381  0.2858  0.4064 -0.0305
 5760SOL    HW129259   2.738   1.566   6.402 -0.4519  0.3361 -1.4256
 5760SOL    HW229260   2.776   1.698   6.465  1.5037 -1.2269  0.8845
 5761SOL     OW29261  12.837   9.595   2.653  0.0509 -0.4818  0.0447
 5761SOL    HW129262  12.773   9.608   2.584  1.3129 -0.9228 -1.2754
 5761SOL    HW229263  12.817   9.662   2.718 -1.3555 -0.2385 -0.6023
 5762SOL     OW29264   4.216   7.787  11.979 -0.2302 -0.6377 -0.4622
 5762SOL    HW129265   4.256   7.872  11.995  0.7039 -1.1564  0.0826
 5762SOL    HW229266   4.288   7.733  11.944 -0.5110 -1.5062  0.2658
 5763SOL     OW29267   5.728   1.414   0.557 -0.4803 -0.4841  0.1939
 5763SOL    HW129268   5.807   1.428   0.609 -0.6201  0.9387  0.0574
 5763SOL    HW229269   5.696   1.328   0.584  0.8812 -0.8990  0.5487
 5764SOL     OW29270   4.383   0.805   3.951  1.1421  0.5243  0.3405
 5764SOL    HW129271   4.434   0.723   3.956  1.7835  0.8524 -0.5837
 5764SOL    HW229272   4.308   0.783   3.895  1.3978  0.5982 -0.0382
 5765SOL     OW29273   8.618   8.432  11.458 -0.1049 -0.4505  0.2709
 5765SOL    HW129274   8.684   8.426  11.389  0.5600 -1.2899  0.9494
 5765SOL    HW229275   8.613   8.525  11.479 -0.4252 -0.1571 -0.9888
 5766SOL     OW29276   1.467   7.813   6.127  0.3566 -0.3925 -0.1364
 5766SOL    HW129277   1.454   7.794   6.220 -1.4948  0.0956 -0.2466
 5766SOL    HW229278   1.492   7.905   6.124 -2.1954  0.3928 -0.1861
 5767SOL     OW29279   4.475   2.648   3.439  0.5404  0.0978 -0.2983
 5767SOL    HW129280   4.488   2.737   3.407  0.7858  0.4825  0.8334
 5767SOL    HW229281   4.380   2.640   3.449  0.5655  0.5780  0.4836
 5768SOL     OW29282   6.285   2.984  11.612 -0.0864  0.2508  0.0954
 5768SOL    HW129283   6.254   2.903  11.653  1.8875 -0.7909 -0.3609
 5768SOL    HW229284   6.345   3.022  11.676 -1.3096  1.6326  0.4845
 5769SOL     OW29285   0.711   0.141  12.041 -1.0300 -0.3997 -0.2967
 5769SOL    HW129286   0.658   0.132  12.121 -1.4242  0.1947 -0.4869
 5769SOL    HW229287   0.800   0.120  12.069 -1.2556 -0.7501  0.1749
 5770SOL     OW29288   1.844   3.852   7.652  0.3042 -0.4635  0.0547
 5770SOL    HW129289   1.868   3.906   7.727 -0.6541 -0.2520  0.2128
 5770SOL    HW229290   1.875   3.765   7.675  0.5041 -0.2908  0.4596
 5771SOL     OW29291   5.005   6.584  10.349 -0.0049  0.2434  0.7863
 5771SOL    HW129292   4.929   6.527  10.359  0.9013 -1.0915  0.4012
 5771SOL    HW229293   4.985   6.637  10.272 -0.0673 -0.9396 -0.0491
 5772SOL     OW29294   4.002  10.351  11.434 -0.2848  0.3449  0.1054
 5772SOL    HW129295   3.989  10.256  11.440  2.4004 -0.0535  1.2075
 5772SOL    HW229296   4.015  10.367  11.340  2.7255 -1.0571  0.1494
 5773SOL     OW29297   8.007   0.533  11.739  0.2594  0.4725 -0.0425
 5773SOL    HW129298   8.013   0.547  11.644  1.2193  1.0625  0.0979
 5773SOL    HW229299   8.098   0.528  11.768 -0.0156 -1.0133  0.6724
 5774SOL     OW29300   0.085   9.461   6.228  0.1064  0.4371  0.0613
 5774SOL    HW129301   0.141   9.428   6.157 -0.9795  0.0028 -0.6186
 5774SOL    HW229302   0.113   9.552   6.240 -0.6118  0.9818 -1.9293
 5775SOL     OW29303  13.683   4.264   9.767 -0.0432  0.1609  0.1357
 5775SOL    HW129304  13.761   4.290   9.816  0.1810 -0.1921 -0.0293
 5775SOL    HW229305  13.631   4.214   9.831  0.8174 -1.3497 -0.3066
 5776SOL     OW29306   2.059   2.854  12.231  0.0494  0.2938  0.7350
 5776SOL    HW129307   1.979   2.871  12.182  0.0522 -2.5868 -0.4512
 5776SOL    HW229308   2.120   2.819  12.166  1.2716 -0.3088  2.1495
 5777SOL     OW29309   5.052  11.344   2.801  0.2747  0.1611  0.4323
 5777SOL    HW129310   5.057  11.379   2.712 -0.0622 -0.4718  0.1589
 5777SOL    HW229311   4.967  11.373   2.834  0.5174  0.6301  0.6519
 5778SOL     OW29312   8.310   8.499   4.254  0.1560  0.2344 -0.0375
 5778SOL    HW129313   8.304   8.556   4.330 -1.7434 -0.5877  0.5085
 5778SOL    HW229314   8.387   8.445   4.270 -0.9793 -0.9096  2.0995
 5779SOL     OW29315   2.930   0.492   2.638  0.4306  0.3705 -0.0448
 5779SOL    HW129316   2.861   0.550   2.670 -0.4655 -0.1875 -0.9161
 5779SOL    HW229317   2.924   0.414   2.693  0.2488  0.2545 -0.2268
 5780SOL     OW29318   6.258  13.279   5.575 -0.5202  0.6048 -0.1968
 5780SOL    HW129319   6.346  13.309   5.555 -0.0168  0.5328  1.7357
 5780SOL    HW229320   6.254  13.190   5.538  0.1625  0.6471 -0.3772
 5781SOL     OW29321   1.074   0.027   0.344  0.3569 -0.2185 -0.4695
 5781SOL    HW129322   1.043   0.053   0.430 -0.5658 -1.5318 -0.3671
 5781SOL    HW229323   1.003  -0.027   0.308  0.6075  0.5034 -2.1554
 5782SOL     OW29324   5.749  12.631  13.961 -0.2505  0.1733  0.0641
 5782SOL    HW129325   5.758  12.601  14.052  1.0363  0.3736  0.0238
 5782SOL    HW229326   5.776  12.556  13.908  2.2956  1.0953 -0.0534
 5783SOL     OW29327   6.351  12.287   3.577  0.1303  0.0683 -0.3163
 5783SOL    HW129328   6.421  12.241   3.530  1.5772  1.0956  0.7451
 5783SOL    HW229329   6.358  12.378   3.548 -1.1890  0.0800 -0.6588
 5784SOL     OW29330  12.204  11.991   0.709 -0.4363 -0.0159 -0.0931
 5784SOL    HW129331  12.176  11.986   0.618  0.6153 -0.6723 -0.3867
 5784SOL    HW229332  12.297  12.015   0.705 -0.3245 -0.2572  0.7980
 5785SOL     OW29333   6.954   7.769   2.543  0.0610  0.4897 -0.4756
 5785SOL    HW129334   6.948   7.809   2.630  0.6515  0.4654 -0.4229
 5785SOL    HW229335   6.867   7.732   2.529  0.5240 -1.2902  0.9688
 5786SOL     OW29336   0.586   3.229   1.684  0.0222 -0.2852  0.4546
 5786SOL    HW129337   0.655   3.217   1.620 -1.3560  2.1380 -1.6845
 5786SOL    HW229338   0.615   3.303   1.738 -0.3553 -0.0356  0.3227
 5787SOL     OW29339   9.913   2.075  12.710  0.1158  0.3060  0.5363
 5787SOL    HW129340   9.961   1.995  12.686  1.3598  1.3568 -0.6471
 5787SOL    HW229341   9.981   2.137  12.735 -0.9145  0.6407  2.7179
 5788SOL     OW29342  11.268   5.168   3.880  0.7708 -0.3590  0.7212
 5788SOL    HW129343  11.348   5.183   3.930  1.3638  2.1430 -0.7496
 5788SOL    HW229344  11.299   5.152   3.791 -0.3292 -1.8083  0.5740
 5789SOL     OW29345  13.405   0.309   2.127  0.5027  0.5985 -0.3469
 5789SOL    HW129346  13.487   0.276   2.092  0.5041  0.3078 -0.0694
 5789SOL    HW229347  13.417   0.310   2.221  0.3959  1.1108 -0.3320
 5790SOL     OW29348   9.361   9.050   8.191 -0.3045  0.0499  0.1744
 5790SOL    HW129349   9.332   8.959   8.201 -0.5660  0.2060  0.9098
 5790SOL    HW229350   9.436   9.057   8.250  1.2215 -0.3202 -1.6347
 5791SOL     OW29351  12.090   5.462   8.632  0.1410 -0.6724  0.3143
 5791SOL    HW129352  12.118   5.470   8.541  2.6400  1.5461  1.1395
 5791SOL    HW229353  12.021   5.528   8.642  0.2693 -0.5137  0.1580
 5792SOL     OW29354  11.366  11.427   3.620  0.4935  0.1147  0.1099
 5792SOL    HW129355  11.357  11.413   3.526 -1.0702  0.5890  0.1538
 5792SOL    HW229356  11.364  11.339   3.658 -1.1037 -0.0084 -0.1730
 5793SOL     OW29357  11.370   3.332  10.185 -0.6910 -0.4748  0.1118
 5793SOL    HW129358  11.353   3.387  10.262 -3.9261  1.3868 -1.7190
 5793SOL    HW229359  11.318   3.253  10.200  0.6140 -1.2506  0.8195
 5794SOL     OW29360  12.534   2.048   8.420  0.5741 -0.4552 -0.4892
 5794SOL    HW129361  12.627   2.064   8.435  0.0649  1.2190  1.2737
 5794SOL    HW229362  12.503   2.008   8.501 -0.5743  0.7275 -0.3093
 5795SOL     OW29363   6.009   5.305   9.533 -0.3948  0.0404 -0.5257
 5795SOL    HW129364   5.980   5.293   9.443 -0.8755 -0.7344 -0.2707
 5795SOL    HW229365   6.029   5.398   9.539 -4.1720  1.0067 -0.3336
 5796SOL     OW29366   0.647   0.978  13.530  0.8239  0.0578 -0.3261
 5796SOL    HW129367   0.561   0.995  13.491  1.5844  0.5904 -1.8243
 5796SOL    HW229368   0.631   0.909  13.594 -1.0896  1.5115  0.8934
 5797SOL     OW29369   0.138   1.312   7.456  0.5244  0.2137  0.1126
 5797SOL    HW129370   0.222   1.275   7.429  0.5051  0.0075  0.3320
 5797SOL    HW229371   0.155   1.353   7.541 -0.0307 -1.5868  1.1569
 5798SOL     OW29372   3.798   5.929   2.364 -0.0201 -0.2379  0.1353
 5798SOL    HW129373   3.794   5.834   2.379  1.9111 -0.2735  0.6642
 5798SOL    HW229374   3.782   5.967   2.451 -1.5594 -0.0232 -0.2147
 5799SOL     OW29375  12.229  13.280   5.401  0.0591 -0.4712  0.1950
 5799SOL    HW129376  12.312  13.267   5.355 -1.2081 -0.9177 -2.1039
 5799SOL    HW229377  12.216  13.375   5.402 -0.9435 -0.4862 -2.5397
 5800SOL     OW29378   4.314  10.577  12.956 -0.2748  0.3912  0.4211
 5800SOL    HW129379   4.283  10.599  13.044 -0.6871 -0.6234  0.5312
 5800SOL    HW229380   4.403  10.544  12.969 -1.5323 -3.2120  0.9496
 5801SOL     OW29381   7.174   7.718  12.501  0.0468  0.0681 -0.1293
 5801SOL    HW129382   7.217   7.727  12.416 -0.1923  0.6556 -0.1975
 5801SOL    HW229383   7.093   7.671  12.483  0.7017 -1.1424  0.0170
 5802SOL     OW29384   9.642  11.575   4.869 -0.5114 -0.2126  0.6875
 5802SOL    HW129385   9.717  11.617   4.912  0.1171 -1.8441  1.2433
 5802SOL    HW229386   9.663  11.482   4.870 -1.7733 -0.5452 -0.6984
 5803SOL     OW29387  12.344   5.341   9.678  0.9577  0.0373  0.0560
 5803SOL    HW129388  12.358   5.354   9.771 -0.2042 -0.8590  0.3767
 5803SOL    HW229389  12.414   5.391   9.636 -0.0511  2.6754  1.3113
 5804SOL     OW29390  13.130  11.007   7.118 -0.7719 -0.1251 -0.3553
 5804SOL    HW129391  13.117  10.970   7.031 -0.4957 -1.2229  0.0500
 5804SOL    HW229392  13.138  10.930   7.176  1.3888  0.5321  0.3045
 5805SOL     OW29393   5.643   7.461   0.020 -0.2087  0.0915 -0.4121
 5805SOL    HW129394   5.633   7.544   0.067 -1.6702  1.4094 -2.8514
 5805SOL    HW229395   5.697   7.484  -0.056  2.1667 -1.9921  0.4862
 5806SOL     OW29396   2.631   9.528   1.379  0.7448 -0.1084 -0.1555
 5806SOL    HW129397   2.646   9.454   1.439  0.8157  0.3592  0.4105
 5806SOL    HW229398   2.571   9.493   1.313  1.0684 -0.7824 -0.1041
 5807SOL     OW29399   9.238   9.649   4.498 -0.2520 -0.3122 -0.1294
 5807SOL    HW129400   9.309   9.701   4.461  0.4544 -0.6917  0.6484
 5807SOL    HW229401   9.262   9.559   4.478 -2.0009 -0.3480 -2.3973
 5808SOL     OW29402   2.807   2.625   0.842  0.2260 -0.2433 -0.6957
 5808SOL    HW129403   2.758   2.706   0.826 -1.0891 -0.6833  0.7907
 5808SOL    HW229404   2.802   2.576   0.760  0.3962  0.8545 -1.3714
 5809SOL     OW29405   5.380  13.111   4.030  0.3388 -0.7052 -0.0614
 5809SOL    HW129406   5.295  13.156   4.032 -0.2573 -1.7427 -0.8903
 5809SOL    HW229407   5.406  13.115   3.938  1.5556  0.2276  0.2950
 5810SOL     OW29408   3.287   0.823   7.463  0.6325 -0.1583 -0.2431
 5810SOL    HW129409   3.299   0.731   7.486  0.3400 -0.2251 -0.3464
 5810SOL    HW229410   3.374   0.862   7.472  0.5637 -0.2204  0.8041
 5811SOL     OW29411   8.152  10.626  10.977  0.4687  0.1945 -0.0003
 5811SOL    HW129412   8.167  10.532  10.980  1.3243  0.2784 -0.9930
 5811SOL    HW229413   8.089  10.637  10.905  1.8679  0.5239 -1.2161
 5812SOL     OW29414   8.638   2.966  13.158  0.3681 -0.4468  0.2389
 5812SOL    HW129415   8.715   2.932  13.113 -0.5002  0.5938 -2.2565
 5812SOL    HW229416   8.598   2.890  13.199  2.7351 -0.9807  1.7222
 5813SOL     OW29417   8.881   9.162  11.244 -0.3229 -0.1490 -0.4338
 5813SOL    HW129418   8.940   9.098  11.285 -0.9893  0.4551  1.5694
 5813SOL    HW229419   8.931   9.195  11.169  1.6185 -0.1818  0.7671
 5814SOL     OW29420   5.670   0.057  12.167 -0.2740 -0.0665  0.0351
 5814SOL    HW129421   5.670   0.140  12.119  0.7681  0.7006  1.2715
 5814SOL    HW229422   5.733   0.002  12.120  0.9827  0.7899  0.6397
 5815SOL     OW29423   4.148  11.401  11.558  0.1449 -0.2384  0.1323
 5815SOL    HW129424   4.141  11.445  11.473  1.2198 -2.2200 -1.0353
 5815SOL    HW229425   4.241  11.385  11.569  0.2973  1.6604  2.6601
 5816SOL     OW29426   5.233   5.335   3.173 -0.0378 -0.2904 -0.6724
 5816SOL    HW129427   5.256   5.421   3.140 -0.2134  1.1616  2.5857
 5816SOL    HW229428   5.147   5.347   3.213  1.7496 -0.5533  3.9095
 5817SOL     OW29429   4.780   1.519   4.323 -0.5568 -0.0493  0.0442
 5817SOL    HW129430   4.795   1.603   4.281  1.3072  0.2665  1.2394
 5817SOL    HW229431   4.868   1.485   4.341 -1.2820 -1.7543  0.5696
 5818SOL     OW29432   2.788   5.378  12.873 -0.3173 -0.6660  0.9067
 5818SOL    HW129433   2.858   5.392  12.936 -0.2739 -0.6670  0.8585
 5818SOL    HW229434   2.760   5.466  12.847  2.4846 -0.4975 -2.2317
 5819SOL     OW29435   2.565   1.829   6.319  0.7564  0.0623 -0.6837
 5819SOL    HW129436   2.629   1.759   6.335  1.6071  0.6896 -1.2939
 5819SOL    HW229437   2.545   1.822   6.226 -0.3984 -0.3911 -0.4202
 5820SOL     OW29438   5.982   9.090  10.381 -0.4200 -0.4213 -0.0199
 5820SOL    HW129439   6.045   9.069  10.450 -0.4556 -0.0107  0.1396
 5820SOL    HW229440   5.943   9.174  10.408 -0.7266 -0.4612 -0.3323
 5821SOL     OW29441   6.801   6.143   9.202  0.6229 -0.4554  0.5028
 5821SOL    HW129442   6.884   6.182   9.229  0.8134  0.9391 -1.7743
 5821SOL    HW229443   6.762   6.207   9.143 -1.2818 -1.8125  0.1677
 5822SOL     OW29444   7.352  12.986  12.738  0.1027 -0.1856 -0.1717
 5822SOL    HW129445   7.429  13.028  12.698  1.3295 -1.4150  0.7990
 5822SOL    HW229446   7.387  12.942  12.816 -1.7853  0.0879  0.8804
 5823SOL     OW29447   0.581   8.028  11.642 -0.3510  0.2171  0.6608
 5823SOL    HW129448   0.652   7.994  11.588 -2.5628 -1.2813 -1.5317
 5823SOL    HW229449   0.582   7.973  11.721  0.2612 -0.5207  0.1521
 5824SOL     OW29450   0.366   0.686  10.906 -0.3323 -0.2036  0.0975
 5824SOL    HW129451   0.290   0.685  10.848 -0.1252 -0.8557 -0.1768
 5824SOL    HW229452   0.428   0.745  10.861 -0.6168  0.2227  0.2555
 5825SOL     OW29453  13.764   3.823   0.054  0.0666  0.4908  0.3605
 5825SOL    HW129454  13.759   3.738   0.096 -0.5290  0.2175 -0.2442
 5825SOL    HW229455  13.857   3.847   0.059  0.3263 -0.4228  0.0769
 5826SOL     OW29456   7.549   2.560   7.802  0.0376  0.2010 -0.5324
 5826SOL    HW129457   7.579   2.536   7.890  0.4918 -1.7736 -1.1717
 5826SOL    HW229458   7.558   2.479   7.751 -1.8569  0.8367 -1.9730
 5827SOL     OW29459   6.469   1.760   7.497  0.0878  0.1888  0.7211
 5827SOL    HW129460   6.536   1.815   7.538  1.4685 -1.2696  0.5173
 5827SOL    HW229461   6.497   1.671   7.515 -1.3967 -0.4758 -0.0713
 5828SOL     OW29462   3.155   3.986   7.918  0.3390 -0.3704 -0.2037
 5828SOL    HW129463   3.125   4.035   7.995  0.2744 -1.8887  0.7868
 5828SOL    HW229464   3.169   3.897   7.951 -1.0900 -1.4475 -2.2609
 5829SOL     OW29465  12.803   2.555  12.998  0.0543 -0.4496  0.7233
 5829SOL    HW129466  12.736   2.603  13.046  1.4483  2.5143 -0.0425
 5829SOL    HW229467  12.775   2.559  12.906  0.9498  0.3551  0.4643
 5830SOL     OW29468   6.401   1.472   2.240  0.4939 -0.2262  0.3987
 5830SOL    HW129469   6.374   1.555   2.202  1.1661 -0.1570  0.0701
 5830SOL    HW229470   6.463   1.435   2.177 -0.8458 -1.6517 -0.1805
 5831SOL     OW29471   5.659   0.854   2.640  0.1816 -0.1300  0.2150
 5831SOL    HW129472   5.576   0.805   2.642  0.0950  0.0366  1.0749
 5831SOL    HW229473   5.726   0.786   2.653  0.0302  0.0072  2.0100
 5832SOL     OW29474  11.951   6.646   7.339  0.4942  0.9420 -0.0666
 5832SOL    HW129475  11.945   6.600   7.423  0.8802  0.3075 -0.3814
 5832SOL    HW229476  11.900   6.726   7.352  0.3465  0.7325  0.6938
 5833SOL     OW29477  10.929   3.994   4.884 -0.0089  0.1614 -0.4162
 5833SOL    HW129478  10.870   4.070   4.877 -0.8798 -0.1749  2.1239
 5833SOL    HW229479  10.873   3.919   4.867  0.3541 -0.0289 -0.7725
 5834SOL     OW29480   5.684   8.081  13.634  0.4610 -0.0703  0.1935
 5834SOL    HW129481   5.708   8.170  13.661  0.6871 -0.4673  1.3639
 5834SOL    HW229482   5.656   8.038  13.714 -1.2045 -0.5954 -0.6191
 5835SOL     OW29483   0.534   5.351  12.477  0.3970 -0.0389 -0.5970
 5835SOL    HW129484   0.559   5.299  12.552  1.3485  0.9835 -0.1847
 5835SOL    HW229485   0.605   5.414  12.466  0.2092 -0.0730 -2.2629
 5836SOL     OW29486   0.807   3.423  13.949  0.2692 -0.5488 -0.2973
 5836SOL    HW129487   0.724   3.375  13.943  0.3289 -0.6031 -0.7591
 5836SOL    HW229488   0.873   3.359  13.922  0.4532 -0.4820 -0.0066
 5837SOL     OW29489  10.393   3.429  12.659  0.3703  0.0809  0.8372
 5837SOL    HW129490  10.309   3.431  12.613  0.7708 -0.6760  0.0273
 5837SOL    HW229491  10.424   3.519  12.655 -0.2894  0.3194  0.9314
 5838SOL     OW29492  11.831   3.953   3.976 -0.1994  0.2627 -0.3259
 5838SOL    HW129493  11.821   3.858   3.982 -1.4673  0.2942 -1.4779
 5838SOL    HW229494  11.903   3.966   3.914  1.3035  0.0942  1.2760
 5839SOL     OW29495   0.705  11.609   5.677 -0.3906  0.4072 -0.3246
 5839SOL    HW129496   0.762  11.533   5.687 -1.5053 -0.4613 -0.4190
 5839SOL    HW229497   0.758  11.682   5.710  0.7246 -0.3803 -0.2855
 5840SOL     OW29498   8.664   4.989  12.248  0.1154 -0.3118 -0.3100
 5840SOL    HW129499   8.619   5.030  12.174 -0.2664  1.5025  0.8626
 5840SOL    HW229500   8.637   5.040  12.324  0.8787 -1.8145  1.0349
 5841SOL     OW29501   9.466  11.598  12.860 -0.0728  0.2060 -0.2188
 5841SOL    HW129502   9.422  11.526  12.815 -1.4700  2.9373 -3.7575
 5841SOL    HW229503   9.558  11.587  12.840 -0.1496 -0.9419 -0.0249
 5842SOL     OW29504   3.069   7.213   3.501  0.3539 -0.1439 -0.4627
 5842SOL    HW129505   3.076   7.122   3.528  0.7923 -0.7527 -2.4595
 5842SOL    HW229506   3.158   7.248   3.511  0.3071 -0.0808 -0.2457
 5843SOL     OW29507   9.502   4.372   3.292  0.1832  0.4467 -0.1527
 5843SOL    HW129508   9.514   4.277   3.284 -1.2984  0.3237 -1.4514
 5843SOL    HW229509   9.569   4.410   3.236  0.8641  0.1870  0.4739
 5844SOL     OW29510  10.499   0.742   0.493 -0.2247 -0.2972  0.0920
 5844SOL    HW129511  10.554   0.811   0.530 -0.5065 -0.8013  1.5279
 5844SOL    HW229512  10.494   0.762   0.400  1.4476  0.4006  0.1152
 5845SOL     OW29513   7.063  13.588   0.655 -0.2339  0.2633  0.1152
 5845SOL    HW129514   6.994  13.625   0.600  0.4283 -1.2709 -1.8700
 5845SOL    HW229515   7.144  13.612   0.612  0.5848  2.1120  2.4711
 5846SOL     OW29516  11.158   4.251   8.825 -0.5322 -0.0139  0.2545
 5846SOL    HW129517  11.248   4.251   8.793 -0.5772  0.6276  0.1106
 5846SOL    HW229518  11.136   4.158   8.836  0.2685 -0.1662  0.6475
 5847SOL     OW29519   3.667   7.101   1.235 -0.3120 -0.2314 -0.4819
 5847SOL    HW129520   3.678   7.028   1.175  1.3765 -0.2151 -0.2459
 5847SOL    HW229521   3.696   7.177   1.186 -0.9150  0.1039 -0.3270
 5848SOL     OW29522   2.066   3.547  13.950  0.1872  0.2077  0.3393
 5848SOL    HW129523   2.120   3.478  13.987 -0.3996  0.2115  1.2156
 5848SOL    HW229524   2.068   3.531  13.855  3.4394  1.4602  0.0728
 5849SOL     OW29525  13.073   3.490  10.553  0.2940 -0.3281  0.2129
 5849SOL    HW129526  12.980   3.488  10.578 -0.1450  0.7449 -1.1866
 5849SOL    HW229527  13.107   3.569  10.595  0.4209 -0.3925  0.2300
 5850SOL     OW29528  13.076   7.368   9.912  0.3194 -0.3248  0.0908
 5850SOL    HW129529  13.042   7.289   9.954  1.1178 -0.1659  1.0814
 5850SOL    HW229530  13.055   7.439   9.974  1.2300 -0.0376  0.0869
 5851SOL     OW29531   2.424  13.140   4.590 -0.3053  0.1757 -0.0185
 5851SOL    HW129532   2.479  13.140   4.668 -0.5866 -0.3919  0.1885
 5851SOL    HW229533   2.483  13.164   4.519  0.3379 -0.9027  0.1290
 5852SOL     OW29534   4.782   8.930  13.434  0.3776  0.8688 -0.3936
 5852SOL    HW129535   4.768   8.854  13.490  0.2761  0.2133 -1.2840
 5852SOL    HW229536   4.874   8.954  13.448  0.9975 -0.6837 -1.6168
 5853SOL     OW29537   7.543   3.732   3.734  0.3343 -0.4048 -0.5069
 5853SOL    HW129538   7.556   3.650   3.782 -1.5520 -1.4553 -1.6734
 5853SOL    HW229539   7.540   3.799   3.803 -2.8029 -1.9060  1.0647
 5854SOL     OW29540   4.283   2.573  13.341  0.0426  0.0916  0.1615
 5854SOL    HW129541   4.204   2.519  13.349  1.2346 -1.5877  1.3347
 5854SOL    HW229542   4.325   2.542  13.260  0.1120  0.0886  0.1983
 5855SOL     OW29543  10.454   8.045   4.663 -0.3610 -0.2988 -0.5733
 5855SOL    HW129544  10.455   8.140   4.675  1.7937 -0.4214  0.7389
 5855SOL    HW229545  10.478   8.033   4.571  0.7965  0.4312 -0.3864
 5856SOL     OW29546   1.948   5.402   3.151  0.4785 -0.4406  0.3673
 5856SOL    HW129547   1.903   5.353   3.082  0.9963  1.8912 -1.7675
 5856SOL    HW229548   1.936   5.349   3.229 -0.8572 -2.8268 -1.3205
 5857SOL     OW29549   7.417  10.984   4.914  0.7605 -0.6509 -0.2205
 5857SOL    HW129550   7.357  11.058   4.922  1.4313  0.2031 -2.3456
 5857SOL    HW229551   7.442  10.964   5.004 -1.4793 -0.0519  0.6236
 5858SOL     OW29552   8.857  13.161  10.486 -0.1506 -0.2114  0.1624
 5858SOL    HW129553   8.925  13.165  10.419 -1.2537  1.6356 -0.9382
 5858SOL    HW229554   8.825  13.251  10.493 -2.0781 -0.9047  1.0490
 5859SOL     OW29555   7.407  10.878   7.109  0.7773 -0.4461  0.1324
 5859SOL    HW129556   7.389  10.954   7.054  2.2142 -2.0587 -2.8612
 5859SOL    HW229557   7.347  10.811   7.077  2.5616 -1.8290 -0.5409
 5860SOL     OW29558   9.535   6.493   0.780 -0.0315  0.1214 -0.6584
 5860SOL    HW129559   9.580   6.444   0.849 -1.1695  1.1905  0.8941
 5860SOL    HW229560   9.585   6.574   0.771 -0.0996  0.1458 -0.8218
 5861SOL     OW29561   8.177   5.720   9.961 -0.1859 -0.0505 -0.3632
 5861SOL    HW129562   8.159   5.675  10.044  0.7253  0.1720 -0.0342
 5861SOL    HW229563   8.258   5.680   9.929  0.9002  1.6364  0.1608
 5862SOL     OW29564  13.201  12.083   1.485 -0.0963 -0.9341 -0.1882
 5862SOL    HW129565  13.259  12.133   1.542 -0.5612 -0.4710 -0.1183
 5862SOL    HW229566  13.118  12.130   1.487 -0.2758 -1.2065 -0.8318
 5863SOL     OW29567  12.514   4.407  11.907 -0.6365  0.2410  0.0588
 5863SOL    HW129568  12.420   4.415  11.921 -0.6119 -0.6299  0.8485
 5863SOL    HW229569  12.529   4.442  11.819 -1.5911  1.0178  0.1929
 5864SOL     OW29570  10.828   0.636   4.658  0.1349  0.2813 -0.6671
 5864SOL    HW129571  10.734   0.634   4.679  0.1361 -0.9623 -0.6814
 5864SOL    HW229572  10.833   0.681   4.574 -0.3033  1.5487 -0.0354
 5865SOL     OW29573   6.772   8.023   0.028  0.5815 -0.2475 -0.2246
 5865SOL    HW129574   6.703   7.965  -0.005  1.5921 -0.8462 -1.3531
 5865SOL    HW229575   6.841   7.964   0.057  2.3287  0.3064 -2.9165
 5866SOL     OW29576   7.754   4.667   5.632 -0.6194  0.6869  0.3449
 5866SOL    HW129577   7.683   4.618   5.673 -0.3072 -1.2201 -1.2457
 5866SOL    HW229578   7.758   4.633   5.543  0.1380  3.1348 -0.6371
 5867SOL     OW29579   6.869  11.260   3.930 -0.1791  0.1323  0.0582
 5867SOL    HW129580   6.887  11.331   3.869 -1.0847  0.4135  0.1033
 5867SOL    HW229581   6.940  11.264   3.993 -0.5277  1.3902  0.3983
 5868SOL     OW29582  12.979  10.457  11.837 -0.2465 -0.6807 -0.4553
 5868SOL    HW129583  12.953  10.374  11.797 -0.7981 -0.5804 -0.3195
 5868SOL    HW229584  13.045  10.493  11.778 -0.3192 -1.0105 -0.7419
 5869SOL     OW29585   9.806  11.201  10.686 -0.1594  0.4700  0.2287
 5869SOL    HW129586   9.840  11.119  10.650  1.6461  0.7562  1.1607
 5869SOL    HW229587   9.795  11.257  10.610 -3.2921 -1.1665 -0.6949
 5870SOL     OW29588   2.212   5.808   9.128 -0.2220  0.0763 -0.0190
 5870SOL    HW129589   2.251   5.888   9.092 -2.5277  0.9440 -0.7752
 5870SOL    HW229590   2.174   5.836   9.211  0.6297 -0.7330  0.6689
 5871SOL     OW29591  12.719  11.552  12.384 -0.1520 -0.2367 -0.1400
 5871SOL    HW129592  12.746  11.612  12.454  1.2028  1.2231 -1.8259
 5871SOL    HW229593  12.670  11.606  12.323  1.1484 -0.7796 -1.7423
 5872SOL     OW29594   5.177  13.792   5.950 -0.2091  0.2629 -0.7013
 5872SOL    HW129595   5.249  13.854   5.956 -0.5321  0.8286 -2.2652
 5872SOL    HW229596   5.209  13.714   5.998  1.3134  0.5974 -1.1123
 5873SOL     OW29597   1.976   7.926   4.058  0.2490  0.0800 -0.1501
 5873SOL    HW129598   1.961   7.960   4.146  0.0278 -0.1366 -0.1031
 5873SOL    HW229599   1.981   7.831   4.069 -1.7830 -0.1205 -0.6288
 5874SOL     OW29600   1.527   7.678   2.662  0.1900  0.4093  0.2431
 5874SOL    HW129601   1.461   7.642   2.603 -0.8632 -1.1113  2.2518
 5874SOL    HW229602   1.610   7.662   2.617 -0.5232 -1.3337 -0.5348
 5875SOL     OW29603   5.368   0.834  10.963  0.7933  0.1216  0.3764
 5875SOL    HW129604   5.318   0.913  10.982  1.2777  0.3438  0.7564
 5875SOL    HW229605   5.316   0.763  11.000  0.4094  0.2740  0.1311
 5876SOL     OW29606   7.855   0.726   2.598 -0.3430 -0.1416 -0.4260
 5876SOL    HW129607   7.791   0.720   2.669 -0.9318 -1.5610 -1.0589
 5876SOL    HW229608   7.834   0.808   2.554 -0.0514  0.7100  0.9314
 5877SOL     OW29609   5.350   0.245  12.626 -0.3819 -0.2084 -0.0125
 5877SOL    HW129610   5.436   0.267  12.662 -0.8091  0.7325  0.4606
 5877SOL    HW229611   5.370   0.204  12.542  0.5385 -0.2020  0.1861
 5878SOL     OW29612  11.465   3.372   8.726 -0.4127 -0.0164 -0.1272
 5878SOL    HW129613  11.541   3.387   8.670 -0.8613  1.6550 -0.3371
 5878SOL    HW229614  11.498   3.383   8.815 -0.1930 -0.3315 -0.1689
 5879SOL     OW29615   9.640   7.116   2.964  0.1325 -0.1711  0.1405
 5879SOL    HW129616   9.722   7.146   3.002  0.8611 -0.7511 -0.9453
 5879SOL    HW229617   9.647   7.021   2.960 -1.2049 -0.3650  1.3764
 5880SOL     OW29618   0.125   7.100  13.360  0.1382  0.6602 -0.1782
 5880SOL    HW129619   0.110   7.127  13.269 -1.3704 -0.1805 -0.2098
 5880SOL    HW229620   0.212   7.062  13.359 -0.0134  0.2871 -1.3786
 5881SOL     OW29621   4.958   5.602   3.614 -0.0123 -0.0521  0.8305
 5881SOL    HW129622   4.866   5.622   3.633 -0.2358 -0.8980  0.6911
 5881SOL    HW229623   4.957   5.511   3.585  0.5824  0.5712 -1.2941
 5882SOL     OW29624   9.045  10.684   6.888  0.0246 -0.6073  0.1897
 5882SOL    HW129625   8.986  10.712   6.958  0.1320  0.7626 -0.2433
 5882SOL    HW229626   9.091  10.764   6.861  1.3272 -1.4537 -0.1971
 5883SOL     OW29627  13.710   4.037   5.107  0.1570 -0.0919  0.1344
 5883SOL    HW129628  13.772   4.106   5.086 -1.2779  1.4090  0.6588
 5883SOL    HW229629  13.650   4.076   5.170 -1.6308 -1.3110 -0.7156
 5884SOL     OW29630  13.495  12.707   7.068 -0.1552 -0.6301  0.5236
 5884SOL    HW129631  13.458  12.662   7.143  0.5400  0.4129  1.5206
 5884SOL    HW229632  13.588  12.720   7.090 -0.3048  1.2208  0.2830
 5885SOL     OW29633  11.338  13.131   9.771 -0.7137 -0.4499 -0.7059
 5885SOL    HW129634  11.410  13.191   9.751 -2.3703  1.9725  0.1113
 5885SOL    HW229635  11.377  13.062   9.824  1.1652  0.2827 -1.0888
 5886SOL     OW29636  13.499  13.863  10.043 -0.5128  0.1627  0.0413
 5886SOL    HW129637  13.498  13.927  10.115  0.3643  0.8549 -0.5319
 5886SOL    HW229638  13.547  13.907   9.974  0.6210 -1.3518 -0.1804
 5887SOL     OW29639   2.388   9.227  13.812 -0.3914  0.4891  0.5119
 5887SOL    HW129640   2.467   9.174  13.807 -0.1208  0.9289  0.0060
 5887SOL    HW229641   2.405   9.301  13.753 -1.4880  0.1817 -0.2166
 5888SOL     OW29642   6.191   6.246   5.691 -0.3977  0.1697 -0.2094
 5888SOL    HW129643   6.136   6.198   5.754 -1.1822  1.2627 -0.0434
 5888SOL    HW229644   6.174   6.338   5.709  0.2097  0.5156 -1.3041
 5889SOL     OW29645  12.459   0.145   8.186  0.2805  0.7482 -0.0951
 5889SOL    HW129646  12.497   0.230   8.209  0.2300  0.7164  0.1053
 5889SOL    HW229647  12.418   0.114   8.266 -0.0156  0.6980 -0.2653
 5890SOL     OW29648  10.146   8.205   8.812  0.0470  0.0686  0.2262
 5890SOL    HW129649  10.072   8.257   8.844  0.5413  0.8326  0.1613
 5890SOL    HW229650  10.184   8.259   8.742  1.7522  0.5434  1.4643
 5891SOL     OW29651  10.569  13.769  11.532  0.0331  0.1508 -0.4200
 5891SOL    HW129652  10.497  13.710  11.554 -0.4002  0.3038 -1.3677
 5891SOL    HW229653  10.648  13.717  11.548 -0.3234 -0.4585 -0.5693
 5892SOL     OW29654   5.635   5.618  11.444  0.1626 -0.1624 -0.0005
 5892SOL    HW129655   5.631   5.655  11.356  2.0318 -1.2241 -0.5898
 5892SOL    HW229656   5.631   5.695  11.502  2.2871  0.9127 -1.1364
 5893SOL     OW29657  13.599   1.647   1.665 -0.0425  0.3476  0.2894
 5893SOL    HW129658  13.535   1.625   1.733 -2.5801  1.3721 -1.5909
 5893SOL    HW229659  13.564   1.726   1.624  2.5673  1.0387 -0.7713
 5894SOL     OW29660   1.258   6.054   2.216  0.3289 -0.1175  0.1595
 5894SOL    HW129661   1.286   5.994   2.146  0.0334  0.6259 -0.6127
 5894SOL    HW229662   1.166   6.033   2.229 -0.0913  0.9183 -0.9266
 5895SOL     OW29663   9.088   9.949   2.115 -0.0434 -0.0250 -1.0308
 5895SOL    HW129664   9.133   9.952   2.031  1.7165 -0.7781 -0.1860
 5895SOL    HW229665   9.014   9.891   2.101  0.0087  0.1698 -2.1585
 5896SOL     OW29666   6.906  10.408  11.731  0.1235 -0.1639  0.6367
 5896SOL    HW129667   6.881  10.325  11.772  0.8692 -0.3064  0.8084
 5896SOL    HW229668   6.943  10.383  11.647  2.0633 -0.1744  1.4423
 5897SOL     OW29669   2.585  12.869  10.589  0.0752  0.5560  0.0086
 5897SOL    HW129670   2.545  12.794  10.544 -0.9088 -0.0913  1.8500
 5897SOL    HW229671   2.662  12.832  10.632  0.1320  0.8230  0.1316
 5898SOL     OW29672  10.235  10.170   5.584 -0.9386  0.2870 -0.7391
 5898SOL    HW129673  10.285  10.089   5.572 -0.5260  0.4490 -0.1477
 5898SOL    HW229674  10.302  10.236   5.602 -1.3833  0.4880  0.1921
 5899SOL     OW29675  13.131  10.741   6.696  0.6883  0.3833 -0.5950
 5899SOL    HW129676  13.143  10.828   6.659  1.6533  1.1272  1.3516
 5899SOL    HW229677  13.201  10.732   6.760 -0.0570 -1.3994  0.0270
 5900SOL     OW29678  11.509   9.222   9.634  0.5230  0.0060 -0.4337
 5900SOL    HW129679  11.585   9.212   9.577  1.5214  1.1464  0.6609
 5900SOL    HW229680  11.499   9.137   9.676  1.7454  0.0859  0.0621
 5901SOL     OW29681  11.713  11.444   8.947  0.4081  0.3676  0.1819
 5901SOL    HW129682  11.733  11.376   9.011  0.0750  0.3886  0.3109
 5901SOL    HW229683  11.619  11.436   8.932  0.3524  0.8470  0.2574
 5902SOL     OW29684   3.332   4.591   0.765 -0.1141 -0.4760 -0.1623
 5902SOL    HW129685   3.404   4.624   0.712  1.0923 -2.0333  0.4371
 5902SOL    HW229686   3.324   4.499   0.740 -0.1694 -0.9846  1.6226
 5903SOL     OW29687   6.740  11.766   0.401 -0.3867 -0.3624  0.0535
 5903SOL    HW129688   6.749  11.671   0.394 -0.5254 -0.3410 -0.4262
 5903SOL    HW229689   6.752  11.785   0.494  0.8037 -0.7199 -0.0179
 5904SOL     OW29690   7.365   8.064   4.033  0.3949  0.1252  0.2103
 5904SOL    HW129691   7.378   8.156   4.056  0.2981  0.2560 -0.2489
 5904SOL    HW229692   7.291   8.036   4.087  1.2678 -0.0621  1.3447
 5905SOL     OW29693  13.961   9.956   0.521  0.1422 -0.1653 -1.1307
 5905SOL    HW129694  13.882  10.009   0.529 -0.5406 -1.3356  0.3482
 5905SOL    HW229695  14.023  10.012   0.474  0.0687  2.6482  1.8089
 5906SOL     OW29696  13.945   6.467   0.734  0.7838  0.0235 -0.0296
 5906SOL    HW129697  13.869   6.507   0.692  0.5100 -1.5046 -1.0478
 5906SOL    HW229698  13.922   6.464   0.827 -0.2119  0.0142 -0.2648
 5907SOL     OW29699  10.371   2.071   0.529 -0.3550  0.0881  0.6498
 5907SOL    HW129700  10.336   2.001   0.584 -1.7174  0.2029 -0.0353
 5907SOL    HW229701  10.301   2.090   0.467  0.9246  0.3086 -0.8060
 5908SOL     OW29702   7.193  13.297  12.275  0.0946  0.0391  0.0003
 5908SOL    HW129703   7.115  13.295  12.331  0.3171 -3.0168  0.3736
 5908SOL    HW229704   7.159  13.312  12.187 -0.5182  2.1758  0.5372
 5909SOL     OW29705  10.248   5.622   5.137 -0.4776 -0.1659  0.6289
 5909SOL    HW129706  10.206   5.571   5.068 -1.8621  1.0529  0.5081
 5909SOL    HW229707  10.193   5.609   5.214  0.0952 -0.1805  1.0391
 5910SOL     OW29708  10.593   0.899  11.447 -0.3115 -0.4916  0.1585
 5910SOL    HW129709  10.531   0.876  11.378 -0.4643 -0.4054  0.2665
 5910SOL    HW229710  10.674   0.855  11.422  0.3662  1.5124 -1.3945
 5911SOL     OW29711   2.775   1.283   2.705  0.2428  0.2967 -0.6956
 5911SOL    HW129712   2.720   1.223   2.655  1.9985 -0.9783 -1.1876
 5911SOL    HW229713   2.778   1.363   2.651 -0.5731  0.1462 -0.9743
 5912SOL     OW29714   3.211   9.039   8.509  0.2636 -0.3090 -0.6486
 5912SOL    HW129715   3.121   9.012   8.531  0.4093 -0.9642 -0.8490
 5912SOL    HW229716   3.199   9.115   8.452 -0.1363  1.7620  1.9865
 5913SOL     OW29717  13.161   5.917   2.936  0.1874 -0.2521  0.0149
 5913SOL    HW129718  13.128   5.852   2.997 -0.8545 -0.3769 -0.6637
 5913SOL    HW229719  13.116   5.899   2.853  1.7743 -0.2761 -0.9021
 5914SOL     OW29720   7.076  10.335  13.838 -0.3665 -0.0655  0.5143
 5914SOL    HW129721   6.992  10.371  13.868 -0.0989  2.7078 -1.5971
 5914SOL    HW229722   7.131  10.413  13.824  1.5644 -1.5850 -0.9286
 5915SOL     OW29723   2.641   1.342   8.759  0.0067  0.5464 -0.4712
 5915SOL    HW129724   2.580   1.295   8.702 -1.3881  1.1553  0.4971
 5915SOL    HW229725   2.643   1.431   8.724  0.3711  0.5249 -0.5108
 5916SOL     OW29726  12.714   6.628   1.566 -0.5087  0.0082  0.1609
 5916SOL    HW129727  12.654   6.561   1.599 -0.4434 -0.3858 -0.5154
 5916SOL    HW229728  12.785   6.580   1.524  0.8077  0.4435  1.7910
 5917SOL     OW29729   3.596   8.176   4.473 -0.1321  0.3154  0.4037
 5917SOL    HW129730   3.674   8.228   4.450 -0.7690  0.5988 -1.2175
 5917SOL    HW229731   3.531   8.201   4.408 -0.7305 -1.9255  0.0714
 5918SOL     OW29732  10.821  10.882  13.141  0.2643  0.3243  0.2879
 5918SOL    HW129733  10.769  10.806  13.113  0.5107  0.2805 -0.0478
 5918SOL    HW229734  10.907  10.867  13.104  0.1065  1.1479 -0.4204
 5919SOL     OW29735   7.075  11.478   8.102 -0.6602 -0.6147  0.4431
 5919SOL    HW129736   7.152  11.427   8.127 -1.0928 -0.6378  1.8132
 5919SOL    HW229737   7.035  11.427   8.031  1.0966 -0.0895 -0.9822
 5920SOL     OW29738  12.105   7.142  10.799 -0.1235 -0.8641  0.2343
 5920SOL    HW129739  12.159   7.067  10.776 -0.5415 -2.3145  3.4406
 5920SOL    HW229740  12.065   7.119  10.883 -1.3637  2.4048  0.7250
 5921SOL     OW29741  10.654   0.227   4.669  0.1239  0.6965  0.1058
 5921SOL    HW129742  10.668   0.139   4.704 -1.9244  0.3293  0.1244
 5921SOL    HW229743  10.741   0.255   4.640  0.3950 -2.5741 -2.8677
 5922SOL     OW29744  12.544   1.591   3.962  0.1364  0.3896  0.2693
 5922SOL    HW129745  12.532   1.546   3.878 -1.0832  1.4954 -0.1716
 5922SOL    HW229746  12.634   1.623   3.959 -0.2599  1.4660 -1.1630
 5923SOL     OW29747   4.489  11.605  12.995  0.0266  0.1914 -0.5676
 5923SOL    HW129748   4.430  11.668  12.953 -0.4380 -0.4938 -0.9653
 5923SOL    HW229749   4.574  11.649  12.997 -0.4153  1.0530 -0.3184
 5924SOL     OW29750   5.493  12.054   7.167 -0.2712 -0.1974  0.1595
 5924SOL    HW129751   5.555  12.052   7.095 -0.2852 -0.4362  0.1536
 5924SOL    HW229752   5.409  12.075   7.127  0.0569  1.6565  0.3482
 5925SOL     OW29753   6.430   2.401   6.878  0.2735  0.3905 -0.0556
 5925SOL    HW129754   6.374   2.324   6.890  0.3339  0.4475  0.6334
 5925SOL    HW229755   6.517   2.364   6.863  0.4043  0.3225  0.8177
 5926SOL     OW29756   6.021   9.961  11.388  0.0919 -0.6124  0.5622
 5926SOL    HW129757   5.968   9.948  11.466  1.0777  0.8452  1.5132
 5926SOL    HW229758   6.110   9.940  11.415  0.1819 -2.2274 -0.7914
 5927SOL     OW29759  12.274   8.760   3.268  0.3773 -0.0589 -0.1369
 5927SOL    HW129760  12.238   8.814   3.338  0.7250 -0.6010  0.4751
 5927SOL    HW229761  12.318   8.822   3.210 -0.0424  0.4122  0.0429
 5928SOL     OW29762   2.644   9.784   9.214  0.5571  0.5410 -0.0197
 5928SOL    HW129763   2.560   9.777   9.169  0.0569 -0.4538  1.0217
 5928SOL    HW229764   2.658   9.698   9.252 -0.2029  1.8788  3.7031
 5929SOL     OW29765   5.508  12.979   0.088 -1.1770  0.3416 -0.1181
 5929SOL    HW129766   5.585  12.957   0.139 -0.7625 -0.2270 -0.9659
 5929SOL    HW229767   5.483  13.066   0.119  0.2891  0.8885 -0.3903
 5930SOL     OW29768  11.051   5.335   2.436  0.2946 -0.1761 -0.1279
 5930SOL    HW129769  10.959   5.314   2.418 -0.7597  0.1985  3.7785
 5930SOL    HW229770  11.092   5.249   2.449  0.6814 -0.3669 -2.3340
 5931SOL     OW29771   2.650   6.799   9.893 -0.2427  0.4507 -0.0156
 5931SOL    HW129772   2.722   6.856   9.919  0.5069  0.8760 -2.7187
 5931SOL    HW229773   2.583   6.813   9.959  1.1070  2.1312  1.0785
 5932SOL     OW29774   1.624   3.576  11.787 -0.0348  0.0800  0.5793
 5932SOL    HW129775   1.642   3.564  11.694  0.8312 -1.7321  0.9447
 5932SOL    HW229776   1.558   3.509  11.807  0.4949 -0.1858  1.4571
 5933SOL     OW29777  13.519   6.035   3.762 -0.0129 -0.0150 -0.1774
 5933SOL    HW129778  13.537   6.017   3.670 -0.3522 -0.6290 -0.1309
 5933SOL    HW229779  13.604   6.058   3.800 -0.0179  1.1513 -0.8379
 5934SOL     OW29780   3.754   1.635   2.141 -0.0470  0.2525  0.1111
 5934SOL    HW129781   3.717   1.569   2.200  2.9054 -0.8408  0.8960
 5934SOL    HW229782   3.811   1.688   2.196 -0.2122  1.7392 -1.0739
 5935SOL     OW29783   9.916  12.811   5.161  0.6963 -0.0830 -0.0345
 5935SOL    HW129784   9.875  12.832   5.077  0.2165 -1.8364 -0.2777
 5935SOL    HW229785  10.010  12.822   5.145  0.6297 -0.6664 -0.8853
 5936SOL     OW29786   9.281   1.016   4.880  0.0325  0.5037 -0.4792
 5936SOL    HW129787   9.195   1.013   4.839  0.4434  2.1008 -1.5417
 5936SOL    HW229788   9.341   0.988   4.812  0.3368 -1.2926  0.4680
 5937SOL     OW29789   8.910  12.333  11.082  0.4373  0.5400  0.2052
 5937SOL    HW129790   8.874  12.268  11.021  0.5004 -0.1663  0.9004
 5937SOL    HW229791   8.882  12.417  11.047  0.0801  0.1213 -0.5412
 5938SOL     OW29792   7.891   8.940   4.496 -0.1764 -0.2717  0.0400
 5938SOL    HW129793   7.915   8.929   4.404  0.7548  2.6642 -0.1860
 5938SOL    HW229794   7.797   8.960   4.494 -0.3416 -1.0436 -0.1688
 5939SOL     OW29795   1.672   0.311  13.630 -0.4308  0.0680 -0.0522
 5939SOL    HW129796   1.707   0.221  13.624  1.4219  0.7529 -0.3984
 5939SOL    HW229797   1.611   0.318  13.556 -0.1853 -0.7467 -0.3456
 5940SOL     OW29798  13.204   2.126   7.024  0.3143 -0.3886 -0.0214
 5940SOL    HW129799  13.142   2.083   6.966  0.2964 -0.3012 -0.0680
 5940SOL    HW229800  13.166   2.117   7.111  0.4425 -0.7028  0.0044
 5941SOL     OW29801  11.061   8.462   6.174  0.3028 -0.0834  0.2889
 5941SOL    HW129802  11.112   8.384   6.151 -1.7961 -0.9114 -1.8857
 5941SOL    HW229803  10.971   8.432   6.179 -0.3423  1.8446  1.4688
 5942SOL     OW29804   5.870   8.070   3.651 -0.1356  0.3497  0.5024
 5942SOL    HW129805   5.871   8.135   3.581 -0.3949 -0.7926 -0.6064
 5942SOL    HW229806   5.961   8.061   3.678  0.4629 -1.2981 -1.7685
 5943SOL     OW29807  13.462   2.125   5.818 -0.0050  0.0487  0.9141
 5943SOL    HW129808  13.488   2.095   5.905  0.3967 -0.9984  0.4551
 5943SOL    HW229809  13.404   2.199   5.834 -0.1907 -0.3321  2.0815
 5944SOL     OW29810   1.692   8.158  13.767 -0.2954 -0.0036 -0.2960
 5944SOL    HW129811   1.721   8.068  13.778 -0.8444 -0.0050  1.4585
 5944SOL    HW229812   1.597   8.154  13.779 -0.3773  0.7576 -0.6176
 5945SOL     OW29813   7.422   4.976   5.295  0.3465 -0.1319 -0.7742
 5945SOL    HW129814   7.509   5.001   5.327 -0.0213  0.0553  0.1163
 5945SOL    HW229815   7.389   4.916   5.361  0.1070 -0.8380 -1.5141
 5946SOL     OW29816   0.859   6.145   0.116 -0.0007 -0.8979  0.1248
 5946SOL    HW129817   0.868   6.050   0.124 -0.6060 -0.9146  0.6568
 5946SOL    HW229818   0.790   6.168   0.178  0.0899 -0.1177 -0.0553
 5947SOL     OW29819   9.997   7.821   1.214 -0.1857  0.2832  0.7247
 5947SOL    HW129820   9.937   7.826   1.288  0.1244  1.8645  0.8961
 5947SOL    HW229821   9.963   7.748   1.161 -2.5360  1.3692  0.5910
 5948SOL     OW29822   0.805   3.092  12.688 -0.0614 -0.0171  0.0472
 5948SOL    HW129823   0.876   3.088  12.624 -0.4697  0.7130 -0.4653
 5948SOL    HW229824   0.783   3.185  12.695 -0.4997 -0.1619  0.7225
 5949SOL     OW29825   1.003  10.714   4.528  0.4376 -0.0459  0.0137
 5949SOL    HW129826   0.947  10.671   4.464  1.2237 -2.0502  0.5830
 5949SOL    HW229827   1.089  10.717   4.486  0.2601  1.7211 -0.3021
 5950SOL     OW29828   5.148   6.226   2.379  0.0521 -0.0318 -0.4495
 5950SOL    HW129829   5.221   6.287   2.389 -0.1929  0.3099 -0.7116
 5950SOL    HW229830   5.070   6.282   2.381 -0.3560 -0.5638  1.8781
 5951SOL     OW29831   6.542  10.020   9.002 -0.2472  0.1070  0.4740
 5951SOL    HW129832   6.615  10.079   9.018 -2.1469  2.4693  0.9906
 5951SOL    HW229833   6.559   9.982   8.916  0.7259  1.9588 -0.1918
 5952SOL     OW29834   9.522   0.494   9.832  0.1381  0.3788  1.1360
 5952SOL    HW129835   9.444   0.440   9.848 -0.2443  0.6318  0.1880
 5952SOL    HW229836   9.495   0.557   9.766  1.3213  0.0876  0.3359
 5953SOL     OW29837  13.376   8.294   0.178  0.1490  0.1338  0.2662
 5953SOL    HW129838  13.318   8.365   0.150  0.5028  0.4324  0.2707
 5953SOL    HW229839  13.402   8.320   0.267 -0.2045 -0.3145  0.5041
 5954SOL     OW29840  12.025   0.487  13.278 -0.4305  0.3630 -0.3669
 5954SOL    HW129841  12.114   0.482  13.313 -0.6600 -1.2167  0.0866
 5954SOL    HW229842  12.035   0.520  13.189  0.4529  1.6201  0.1713
 5955SOL     OW29843   8.023   2.760   8.986  0.5786  0.1199  0.3200
 5955SOL    HW129844   8.054   2.845   8.955 -0.4718  0.4417  0.1107
 5955SOL    HW229845   7.933   2.776   9.014  0.7102 -0.7021  1.2782
 5956SOL     OW29846  11.450   7.636  11.027 -0.1529  0.1910  0.1814
 5956SOL    HW129847  11.414   7.548  11.031 -0.8925  0.5020  0.5109
 5956SOL    HW229848  11.491   7.641  10.940  0.4937 -0.6942  0.4223
 5957SOL     OW29849   5.960   9.982  12.593  0.6241 -0.5503  0.5814
 5957SOL    HW129850   5.983  10.005  12.503 -1.4789  0.5566  0.2724
 5957SOL    HW229851   5.864   9.979  12.593  0.5961 -0.9292  2.7055
 5958SOL     OW29852  13.104   2.552   3.039 -0.0580 -0.3071  0.0455
 5958SOL    HW129853  13.033   2.560   2.975  0.7223 -0.4653 -0.8521
 5958SOL    HW229854  13.102   2.634   3.088  0.9560  0.9173 -1.8692
 5959SOL     OW29855   2.411   3.410   5.624  0.3762  0.5979 -0.5906
 5959SOL    HW129856   2.345   3.342   5.609  0.0818  0.8892 -0.6151
 5959SOL    HW229857   2.490   3.361   5.648  0.2555  0.2338 -0.9311
 5960SOL     OW29858   8.944  13.422   6.423  0.3208 -0.3503  0.2399
 5960SOL    HW129859   9.029  13.437   6.465  0.4100  2.2312 -0.7149
 5960SOL    HW229860   8.964  13.361   6.351  1.2240 -0.2985  0.4303
 5961SOL     OW29861   0.854   6.974  11.675  0.6418 -0.4522  0.4834
 5961SOL    HW129862   0.892   6.887  11.668 -0.2284 -0.9433  1.5560
 5961SOL    HW229863   0.769   6.968  11.631  0.7275 -0.0491  0.2560
 5962SOL     OW29864  11.642   4.959   3.702  0.0625  0.0298  0.4931
 5962SOL    HW129865  11.685   4.975   3.785 -0.2385  0.5054  0.5620
 5962SOL    HW229866  11.619   4.866   3.704 -0.2044  0.1023  1.0668
 5963SOL     OW29867   0.394   5.363  13.381 -0.3611 -0.8159  0.2037
 5963SOL    HW129868   0.332   5.364  13.308 -0.5797 -0.2610  0.3954
 5963SOL    HW229869   0.408   5.455  13.403 -0.4873 -0.9812  1.0236
 5964SOL     OW29870   8.528   1.972   9.339  0.0031  0.0919  0.4443
 5964SOL    HW129871   8.539   2.051   9.287  3.2331 -1.7748 -2.1422
 5964SOL    HW229872   8.569   1.992   9.423 -1.1249  1.7226  0.6572
 5965SOL     OW29873   1.420   0.300  10.747 -0.2486 -0.8642  0.3266
 5965SOL    HW129874   1.411   0.292  10.841  0.8479 -0.6232  0.4704
 5965SOL    HW229875   1.407   0.211  10.713  0.6046 -1.1862  0.8271
 5966SOL     OW29876   9.129   3.550   7.178 -0.2041  0.4640 -0.5394
 5966SOL    HW129877   9.218   3.530   7.208 -0.8754 -0.7993  0.7105
 5966SOL    HW229878   9.082   3.467   7.183 -1.4303  1.0840 -1.3102
 5967SOL     OW29879  12.752   3.764   1.794  0.4310  0.2006 -0.7806
 5967SOL    HW129880  12.795   3.825   1.735  0.0407 -0.4876 -1.7907
 5967SOL    HW229881  12.695   3.712   1.738 -1.7509  1.0796  0.5161
 5968SOL     OW29882  10.207   0.634  12.216 -0.9342  0.9121  0.0348
 5968SOL    HW129883  10.264   0.707  12.194  1.4793 -1.2246 -1.4283
 5968SOL    HW229884  10.239   0.601  12.300  1.7356 -1.6467 -1.7886
 5969SOL     OW29885  11.099   6.375   7.414 -0.0363 -0.1524  0.1753
 5969SOL    HW129886  11.009   6.380   7.384  0.1928  1.9518 -0.3482
 5969SOL    HW229887  11.131   6.466   7.408  1.8315 -0.6949  1.1838
 5970SOL     OW29888   2.949   0.902  12.930  0.0848  1.0647 -0.3211
 5970SOL    HW129889   2.972   0.809  12.925  0.3748  1.1258 -0.1383
 5970SOL    HW229890   2.922   0.924  12.841  2.2077  1.3677 -0.9642
 5971SOL     OW29891  10.847   9.422   6.090 -0.1690 -0.5769 -0.4185
 5971SOL    HW129892  10.919   9.471   6.051 -0.2004 -0.8460 -0.8233
 5971SOL    HW229893  10.768   9.464   6.055 -0.2332  0.1682  0.5738
 5972SOL     OW29894   9.854   3.118   3.975  0.5386  0.2467 -0.0515
 5972SOL    HW129895   9.824   3.103   4.065 -0.0498  2.7895  0.2602
 5972SOL    HW229896   9.846   3.213   3.963 -0.3385 -0.1311 -3.1374
 5973SOL     OW29897   0.456   8.092   6.893 -0.0219  0.1632 -0.4873
 5973SOL    HW129898   0.455   8.185   6.870 -1.3804  0.6115  1.1835
 5973SOL    HW229899   0.533   8.081   6.948 -0.1070  0.4129 -0.3154
 5974SOL     OW29900   1.245   7.912  13.110  0.1510 -0.0545 -0.7836
 5974SOL    HW129901   1.297   7.944  13.037 -0.8049 -0.0134 -1.4633
 5974SOL    HW229902   1.309   7.879  13.173  1.1672  2.7642 -0.2199
 5975SOL     OW29903  12.547  10.043  11.580  0.5620 -0.5713 -0.3857
 5975SOL    HW129904  12.543  10.106  11.507  3.1320 -0.1922 -0.2725
 5975SOL    HW229905  12.456  10.014  11.590 -0.0380 -0.0043 -3.1778
 5976SOL     OW29906   3.646   5.413  13.458  0.1515  0.1741 -0.3955
 5976SOL    HW129907   3.687   5.411  13.372  1.2971  1.5786  0.0854
 5976SOL    HW229908   3.581   5.483  13.453  1.5334  1.5555  0.4137
 5977SOL     OW29909   7.020   8.551   1.450  0.1295  0.5640  0.1983
 5977SOL    HW129910   6.950   8.564   1.386 -0.3520  1.0346  0.8160
 5977SOL    HW229911   6.995   8.604   1.525  1.5414  1.3980  0.1282
 5978SOL     OW29912  13.506   9.874   7.676 -0.0986  0.5916 -0.4058
 5978SOL    HW129913  13.524   9.781   7.687  0.9056  0.9199  1.1644
 5978SOL    HW229914  13.428   9.878   7.622  1.1379 -1.1131 -2.4614
 5979SOL     OW29915  12.295  13.172  12.380  0.1472  0.2620 -0.5813
 5979SOL    HW129916  12.301  13.258  12.338 -1.6212  0.4067 -0.5912
 5979SOL    HW229917  12.263  13.114  12.310  1.0483 -0.3588 -0.4951
 5980SOL     OW29918   2.103   3.805   7.844  0.3300 -0.0691 -0.3978
 5980SOL    HW129919   2.188   3.842   7.820  0.0442  0.2622 -0.9282
 5980SOL    HW229920   2.054   3.880   7.878 -0.0248 -0.0953 -0.8494
 5981SOL     OW29921   1.779   5.544   2.552  0.1411  1.0964 -0.3410
 5981SOL    HW129922   1.711   5.608   2.573  0.5905  1.6321 -0.5083
 5981SOL    HW229923   1.843   5.552   2.622  0.3586  1.0598 -0.5338
 5982SOL     OW29924   0.215  13.293  13.158  0.8415 -0.2948 -0.5889
 5982SOL    HW129925   0.142  13.352  13.179  1.0518  0.2295 -1.2594
 5982SOL    HW229926   0.244  13.260  13.242  0.6584  0.5072 -0.1978
 5983SOL     OW29927  12.329   4.888   7.478  0.0481  0.1319  0.2546
 5983SOL    HW129928  12.411   4.914   7.437 -0.4963 -0.5175 -1.2958
 5983SOL    HW229929  12.350   4.806   7.523  0.3352  0.1672  0.1882
 5984SOL     OW29930  10.927   2.863   1.981 -0.3625  0.1884  0.8853
 5984SOL    HW129931  10.857   2.926   1.997  0.3479  1.3801 -0.5674
 5984SOL    HW229932  10.881   2.781   1.960 -1.2858  0.3364  2.2074
 5985SOL     OW29933   7.664   6.858  12.121  0.1036  0.6510  0.6274
 5985SOL    HW129934   7.645   6.837  12.030  0.3489  0.1083  0.7016
 5985SOL    HW229935   7.646   6.778  12.169  0.6530  0.7264  0.9666
 5986SOL     OW29936   3.429   5.528   5.909  0.0714 -0.4973  0.4270
 5986SOL    HW129937   3.354   5.548   5.965 -0.8712 -0.4551 -0.7828
 5986SOL    HW229938   3.440   5.433   5.918 -2.2998 -1.1328 -1.8100
 5987SOL     OW29939   5.786   5.107   2.725 -0.7338  0.0063 -0.1982
 5987SOL    HW129940   5.850   5.041   2.751 -0.9148 -0.9069 -1.8804
 5987SOL    HW229941   5.711   5.093   2.783  0.6982  1.3875  2.0925
 5988SOL     OW29942   7.075   1.654  10.995  0.3671  0.0104  0.1825
 5988SOL    HW129943   7.110   1.582  11.048 -1.0783 -0.8200  0.0600
 5988SOL    HW229944   7.073   1.729  11.054 -1.7761 -1.0340  1.5693
 5989SOL     OW29945  10.429   2.818   7.714 -0.0604 -0.4495 -0.3375
 5989SOL    HW129946  10.349   2.816   7.765 -0.1246 -1.8612 -0.4678
 5989SOL    HW229947  10.437   2.909   7.686 -1.2668 -0.1577  0.2126
 5990SOL     OW29948  10.923   7.543  12.543 -0.4979 -0.6897  0.4557
 5990SOL    HW129949  10.857   7.513  12.606 -1.9066 -0.7155 -0.9839
 5990SOL    HW229950  10.886   7.522  12.457  0.4321  1.1874 -0.4616
 5991SOL     OW29951   8.207   1.385  10.250 -0.0779 -0.1420  0.8413
 5991SOL    HW129952   8.236   1.473  10.272  1.1060 -0.0641 -0.8529
 5991SOL    HW229953   8.164   1.394  10.165  1.6008 -1.4145 -0.2067
 5992SOL     OW29954   1.860  11.431  13.084 -0.3258  0.0002 -0.3720
 5992SOL    HW129955   1.823  11.441  12.996 -1.1178  1.2024  0.0767
 5992SOL    HW229956   1.802  11.482  13.141 -0.0634 -1.0744  0.9248
 5993SOL     OW29957  14.010   0.086   5.729 -0.3503 -0.5101 -0.1433
 5993SOL    HW129958  13.937   0.114   5.674 -0.1078  1.6426  0.5614
 5993SOL    HW229959  14.053   0.017   5.679 -0.4670  0.9773 -2.3895
 5994SOL     OW29960   2.036   5.867   9.520  0.2694 -0.3070  0.0242
 5994SOL    HW129961   2.086   5.920   9.582 -0.9647 -0.6416  1.3483
 5994SOL    HW229962   2.057   5.905   9.434  0.0141  1.8480  0.8621
 5995SOL     OW29963   4.287   7.708   8.336  0.5587  0.0855 -0.4158
 5995SOL    HW129964   4.312   7.630   8.288  2.1910  1.6656 -2.3142
 5995SOL    HW229965   4.343   7.709   8.414 -0.4538 -1.2838  0.3695
 5996SOL     OW29966   3.138  10.603   9.945 -0.3672  0.0258  0.1420
 5996SOL    HW129967   3.215  10.636   9.898 -1.5370 -0.3971 -2.1908
 5996SOL    HW229968   3.121  10.518   9.905 -1.2066 -0.5495  1.6535
 5997SOL     OW29969   7.774  12.221   1.952 -0.0674  0.0845 -0.2151
 5997SOL    HW129970   7.829  12.150   1.917 -1.7507 -1.5152  0.2254
 5997SOL    HW229971   7.743  12.187   2.036 -0.6092  1.5430  0.1992
 5998SOL     OW29972  13.266  10.841   3.018  0.0985 -1.0457  0.0647
 5998SOL    HW129973  13.205  10.879   3.081 -1.1897 -2.1083 -0.4889
 5998SOL    HW229974  13.212  10.782   2.965  1.0055  0.0736 -2.2976
 5999SOL     OW29975   6.288   7.221   9.617 -0.0553  0.4377 -0.0207
 5999SOL    HW129976   6.199   7.215   9.652  0.4704  1.3532  1.5954
 5999SOL    HW229977   6.297   7.144   9.562 -2.2422  0.9444 -1.2315
 6000SOL     OW29978  13.606  13.747   6.469  0.3746 -0.6889 -0.1784
 6000SOL    HW129979  13.516  13.728   6.497  1.1751 -0.1527  3.3356
 6000SOL    HW229980  13.608  13.725   6.376 -2.5876 -3.5923  0.2626
 6001SOL     OW29981   3.396  12.114   9.662  0.4530  0.0019  0.4606
 6001SOL    HW129982   3.312  12.139   9.623  0.7547  0.2727 -0.0218
 6001SOL    HW229983   3.462  12.155   9.606  1.0062 -2.4289 -0.7756
 6002SOL     OW29984   3.859  11.511  13.336  0.6679 -0.1318 -0.2661
 6002SOL    HW129985   3.854  11.502  13.241  0.8916 -1.6273 -0.1649
 6002SOL    HW229986   3.888  11.600  13.351 -0.6010  0.5426 -1.5649
 6003SOL     OW29987   4.733   0.838   0.896  0.3846 -0.5469  0.5191
 6003SOL    HW129988   4.766   0.751   0.917  0.6453 -0.3971  0.7233
 6003SOL    HW229989   4.718   0.835   0.801  1.9233 -0.3020  0.2401
 6004SOL     OW29990   6.848  12.152  13.435  0.1434 -0.1160  0.4689
 6004SOL    HW129991   6.891  12.168  13.351  1.1861  0.3259  1.0647
 6004SOL    HW229992   6.789  12.078  13.419 -0.8251  0.9249 -1.0340
 6005SOL     OW29993   1.705   2.855   9.351  0.0951 -0.3873 -0.0491
 6005SOL    HW129994   1.737   2.915   9.419 -1.3353 -2.0402  2.2111
 6005SOL    HW229995   1.775   2.790   9.341  0.7117  0.3801 -0.9099
 6006SOL     OW29996   7.044   3.902   5.535 -0.1048  0.0783 -0.7144
 6006SOL    HW129997   6.955   3.871   5.551 -0.1995  0.0382 -1.2972
 6006SOL    HW229998   7.095   3.823   5.520 -0.0689  0.1271 -0.8510
 6007SOL     OW29999   0.573  13.110   8.283 -1.3434 -0.2324  0.0954
 6007SOL    HW130000   0.600  13.146   8.368  1.4420  1.8856 -1.5183
 6007SOL    HW230001   0.631  13.035   8.270  0.9824  1.6698 -1.4205
 6008SOL     OW30002   8.062  13.367  10.133  0.7653 -0.6600 -0.4156
 6008SOL    HW130003   8.022  13.282  10.152  0.2761 -0.1676  0.8549
 6008SOL    HW230004   8.000  13.431  10.166  1.1241  0.2114 -1.3800
 6009SOL     OW30005   5.236   2.244   1.223  0.3673  0.5150  0.0875
 6009SOL    HW130006   5.227   2.325   1.273 -0.1745  0.7199 -0.3263
 6009SOL    HW230007   5.328   2.220   1.233 -0.1227 -0.5675  2.8675
 6010SOL     OW30008  11.850   3.444  12.495  0.3778 -0.1704  0.4726
 6010SOL    HW130009  11.869   3.511  12.429  0.1139 -0.9694 -0.4430
 6010SOL    HW230010  11.800   3.490  12.562  0.7940  0.7002  0.1977
 6011SOL     OW30011   3.700   3.518   9.509 -0.3722 -0.4986  0.1589
 6011SOL    HW130012   3.672   3.449   9.570  0.4527 -0.3647  0.7071
 6011SOL    HW230013   3.789   3.539   9.536 -0.6540  0.8786  0.0865
 6012SOL     OW30014   9.199   5.110  13.877 -0.6933 -0.1122  0.2340
 6012SOL    HW130015   9.113   5.148  13.897 -1.0623 -1.0420  0.4806
 6012SOL    HW230016   9.243   5.176  13.824 -1.5728  0.3734  0.0919
 6013SOL     OW30017   7.960  10.376   8.832  0.1918 -0.2690 -0.3944
 6013SOL    HW130018   7.875  10.409   8.802  0.8669  1.2430 -0.7655
 6013SOL    HW230019   7.939  10.317   8.905 -1.2698 -1.3428 -1.6224
 6014SOL     OW30020   7.548   3.216   3.896  0.6395 -0.4694 -0.1809
 6014SOL    HW130021   7.560   3.122   3.908  0.6906 -0.4103  0.2323
 6014SOL    HW230022   7.541   3.251   3.985 -0.4114 -0.2227 -0.3456
 6015SOL     OW30023   4.001   2.143  11.094  0.5275  0.2099  0.1401
 6015SOL    HW130024   3.977   2.215  11.152  1.8957  1.0737 -0.3137
 6015SOL    HW230025   3.924   2.128  11.040 -0.1704  0.5281  1.0374
 6016SOL     OW30026   3.224   6.210   1.592 -0.3472 -0.1243 -0.6258
 6016SOL    HW130027   3.226   6.280   1.526 -0.5743  0.5793  0.0954
 6016SOL    HW230028   3.197   6.254   1.673  2.3746 -0.4688  0.5619
 6017SOL     OW30029  11.370   7.567   8.475 -0.4416 -0.2428 -0.4014
 6017SOL    HW130030  11.348   7.503   8.407  0.3337 -0.9471 -0.0063
 6017SOL    HW230031  11.358   7.652   8.433 -0.0681 -0.6625 -1.3900
 6018SOL     OW30032   2.638   0.110   4.697 -0.5937 -0.7522 -0.4902
 6018SOL    HW130033   2.549   0.141   4.713 -0.7113 -0.5653 -1.4469
 6018SOL    HW230034   2.675   0.174   4.637  0.5947 -0.1888  0.8166
 6019SOL     OW30035  10.244  10.168  13.379  0.1005 -0.4328 -0.1408
 6019SOL    HW130036  10.222  10.220  13.301 -0.4270 -0.2400  0.1310
 6019SOL    HW230037  10.283  10.088  13.343 -1.1547 -0.8420 -0.6722
 6020SOL     OW30038   2.985   0.799  13.192  0.0621 -0.2969  0.1036
 6020SOL    HW130039   2.974   0.710  13.157 -3.6628  0.2371 -0.4876
 6020SOL    HW230040   2.949   0.856  13.124  0.5749  1.5294  1.2898
 6021SOL     OW30041   9.779  10.446   5.791 -1.1786 -0.2065 -0.1137
 6021SOL    HW130042   9.825  10.502   5.729  0.9636 -1.9943 -0.2765
 6021SOL    HW230043   9.686  10.458   5.771 -0.7168  1.9301 -1.2378
 6022SOL     OW30044  10.300   3.921   9.117 -0.1906  0.2140  0.5889
 6022SOL    HW130045  10.312   3.971   9.198  1.3956  1.2744 -0.2553
 6022SOL    HW230046  10.271   3.987   9.053  0.9581 -0.1248 -0.3014
 6023SOL     OW30047   1.802  13.391  11.592 -0.4941  0.3855 -0.2882
 6023SOL    HW130048   1.793  13.423  11.682 -1.8702  0.5656 -0.4622
 6023SOL    HW230049   1.752  13.309  11.592  0.0891  0.0256 -0.7210
 6024SOL     OW30050   7.414   7.849   8.965 -0.2701  0.3937 -0.0087
 6024SOL    HW130051   7.506   7.823   8.956 -0.4162  0.0018 -0.3914
 6024SOL    HW230052   7.408   7.884   9.054  0.1971  0.1959  0.1052
 6025SOL     OW30053   7.305   6.411  11.136  0.4482  0.1327  0.1109
 6025SOL    HW130054   7.228   6.450  11.095 -0.8555 -0.4348  1.8681
 6025SOL    HW230055   7.370   6.407  11.066 -0.6754  1.8043 -1.1076
 6026SOL     OW30056   4.829   7.949   6.652 -0.7294 -0.1929 -0.3203
 6026SOL    HW130057   4.816   7.882   6.720 -2.9137  0.6928  0.2378
 6026SOL    HW230058   4.839   7.900   6.571 -3.0209 -1.2778 -0.0359
 6027SOL     OW30059  11.010   7.295   1.132 -1.0148 -0.3914 -0.0850
 6027SOL    HW130060  10.985   7.278   1.041  2.5484  1.4233 -1.5908
 6027SOL    HW230061  11.082   7.234   1.149 -1.8748 -0.9872  1.7634
 6028SOL     OW30062  12.098   2.454  10.389  0.4978  0.0519 -0.7829
 6028SOL    HW130063  12.159   2.386  10.361 -1.3402 -1.4254 -1.4189
 6028SOL    HW230064  12.031   2.456  10.320  0.6988  2.8468 -1.0210
 6029SOL     OW30065   3.130  13.202   4.709  0.7031  0.1124  0.5957
 6029SOL    HW130066   3.189  13.246   4.769 -1.0526  0.9756  1.7656
 6029SOL    HW230067   3.083  13.138   4.763 -0.1625  0.1786 -0.0437
 6030SOL     OW30068   0.147   2.139  11.111 -0.2362 -0.3025 -0.2211
 6030SOL    HW130069   0.173   2.221  11.153 -2.8172  0.5957 -0.1907
 6030SOL    HW230070   0.067   2.113  11.157  0.2527 -2.6114 -0.5630
 6031SOL     OW30071  10.147   8.714   7.856 -0.4577 -0.0103 -0.5961
 6031SOL    HW130072  10.166   8.797   7.900  1.0805 -0.6455  0.0132
 6031SOL    HW230073  10.145   8.649   7.926 -3.7600 -0.2789 -0.7634
 6032SOL     OW30074  11.984  10.488   0.839 -0.2051  0.0786  0.1759
 6032SOL    HW130075  12.022  10.575   0.855 -0.1090 -0.1691  1.3809
 6032SOL    HW230076  11.988  10.478   0.744  0.8085  0.9345  0.0982
 6033SOL     OW30077   0.246   1.770  10.223 -0.6114  0.7931 -0.1515
 6033SOL    HW130078   0.298   1.834  10.174  1.0713  0.5505  1.2156
 6033SOL    HW230079   0.181   1.822  10.269 -1.5346  1.1260 -1.7565
 6034SOL     OW30080  13.905   4.011   9.571 -0.1333  0.1299 -0.0808
 6034SOL    HW130081  13.890   4.104   9.559  0.4421  0.0828 -1.2906
 6034SOL    HW230082  13.892   3.973   9.484  1.6254 -0.6361 -0.0399
 6035SOL     OW30083   4.167  12.182   4.271 -0.2263 -0.3892  0.0967
 6035SOL    HW130084   4.134  12.225   4.192  0.0757  0.3261  0.3428
 6035SOL    HW230085   4.143  12.241   4.342 -0.9523 -1.2821  0.6076
 6036SOL     OW30086   1.117   6.956  12.982  0.2520 -0.3139 -0.3205
 6036SOL    HW130087   1.033   6.937  12.942  0.8650  0.2058 -1.9523
 6036SOL    HW230088   1.124   7.051  12.980  1.4126 -0.3858 -1.4750
 6037SOL     OW30089   4.972   4.577  13.285 -0.5707  0.4176  0.1727
 6037SOL    HW130090   4.948   4.530  13.365  1.4024  2.0253  1.8295
 6037SOL    HW230091   5.058   4.542  13.261 -2.1126 -1.8155 -2.8280
 6038SOL     OW30092   3.997   5.826   9.669 -0.4739  0.0765 -0.6403
 6038SOL    HW130093   4.033   5.890   9.730 -1.3279  1.9559 -2.0221
 6038SOL    HW230094   4.028   5.742   9.702  0.8354  1.1890  1.1478
 6039SOL     OW30095   6.080   9.969   3.496 -0.1051 -0.0299  0.1816
 6039SOL    HW130096   6.082   9.907   3.568 -0.3087 -0.2445  0.0037
 6039SOL    HW230097   5.994  10.011   3.503  0.7652  1.6628  1.4992
 6040SOL     OW30098   2.076   5.139   9.963 -0.2286 -0.2342  0.1974
 6040SOL    HW130099   2.117   5.054   9.976  0.3714  0.1941  1.2502
 6040SOL    HW230100   1.990   5.131  10.003 -0.3627 -0.4962 -0.1449
 6041SOL     OW30101  13.616  13.802   0.405  0.3110 -0.3282 -0.4143
 6041SOL    HW130102  13.665  13.866   0.352 -0.9827  0.5251 -0.6293
 6041SOL    HW230103  13.607  13.726   0.347 -0.3446  0.2737 -1.1372
 6042SOL     OW30104  10.639   4.395  11.969 -0.2747 -0.0530 -0.3805
 6042SOL    HW130105  10.602   4.412  12.056 -0.9661  0.2371 -0.7254
 6042SOL    HW230106  10.678   4.307  11.976  1.7923  0.8873  0.9011
 6043SOL     OW30107   4.806   9.148   2.803 -0.2867  0.0499 -0.2873
 6043SOL    HW130108   4.898   9.157   2.775 -0.4509 -0.1296 -0.9028
 6043SOL    HW230109   4.811   9.097   2.883  0.2105  0.6807  0.0985
 6044SOL     OW30110   3.098   4.026   8.592  0.3580 -0.4263  0.3619
 6044SOL    HW130111   3.019   4.078   8.582 -0.8099 -2.1298  0.2500
 6044SOL    HW230112   3.116   4.027   8.686 -0.0929 -0.4226  0.4508
 6045SOL     OW30113   6.988   0.667   5.802 -0.7782  0.0591 -0.2508
 6045SOL    HW130114   6.935   0.690   5.725 -1.6496  3.6620  1.2288
 6045SOL    HW230115   6.932   0.687   5.877  1.4357  0.6147  1.3599
 6046SOL     OW30116   3.646   5.115   5.620 -0.0404  0.4072  0.1244
 6046SOL    HW130117   3.693   5.063   5.685  0.1090 -0.7802 -0.9091
 6046SOL    HW230118   3.560   5.073   5.613 -0.3457  1.0144  0.1221
 6047SOL     OW30119   0.630   8.469   9.940  0.5545 -0.0495 -0.3681
 6047SOL    HW130120   0.706   8.425   9.902 -0.9262 -1.4010 -1.9270
 6047SOL    HW230121   0.580   8.502   9.865 -0.2343  1.1445  0.6205
 6048SOL     OW30122   9.086   1.100   9.620 -0.2595  0.4280 -0.5168
 6048SOL    HW130123   9.056   1.173   9.674 -1.5148 -0.4426 -0.0181
 6048SOL    HW230124   9.142   1.048   9.679 -0.6698  0.1205 -0.3962
 6049SOL     OW30125   7.625   1.709   8.710 -0.0175  0.3053 -0.1958
 6049SOL    HW130126   7.714   1.741   8.727 -0.5607  1.8042  0.0136
 6049SOL    HW230127   7.635   1.614   8.700  1.7347  0.5422 -1.0920
 6050SOL     OW30128   1.573  10.700  12.622  0.3902 -0.5066 -0.3037
 6050SOL    HW130129   1.659  10.714  12.661  0.0477 -2.1091  1.1513
 6050SOL    HW230130   1.585  10.627  12.560  0.7935  1.6085 -2.9144
 6051SOL     OW30131  11.289   8.373  13.706 -0.2716 -0.0038  0.0853
 6051SOL    HW130132  11.383   8.387  13.712  0.0852 -1.8448 -0.7056
 6051SOL    HW230133  11.257   8.388  13.795  1.0141 -0.9435  0.7245
 6052SOL     OW30134   5.830   8.680   2.259  0.3397 -0.2023  0.1733
 6052SOL    HW130135   5.819   8.775   2.252  2.5899  0.1673  0.8257
 6052SOL    HW230136   5.854   8.665   2.350 -0.7767 -1.5191  0.2754
 6053SOL     OW30137   3.653   4.970   4.990 -0.0294 -0.3037 -0.2477
 6053SOL    HW130138   3.707   5.039   5.029 -0.3396  0.7066 -1.5204
 6053SOL    HW230139   3.568   4.979   5.031  0.6017 -1.6932  1.5295
 6054SOL     OW30140  13.843   0.970   4.816 -0.1268  0.1338 -0.0991
 6054SOL    HW130141  13.918   0.973   4.757 -0.9024  2.4967 -1.0862
 6054SOL    HW230142  13.792   0.894   4.786  0.9798 -0.4647 -0.5207
 6055SOL     OW30143   7.628  10.417  11.532  0.3127  0.0621  0.6736
 6055SOL    HW130144   7.699  10.357  11.555  0.9026  0.9456  1.2146
 6055SOL    HW230145   7.638  10.490  11.593 -0.2386  0.8259 -0.1304
 6056SOL     OW30146  13.670  12.928  10.000  0.0754  0.1691  0.3010
 6056SOL    HW130147  13.710  13.014   9.991  1.1496 -0.4310 -1.0419
 6056SOL    HW230148  13.576  12.944   9.992  0.3303  1.0914 -1.2992
 6057SOL     OW30149  12.420   5.675  10.951 -0.0743 -0.6142  0.1044
 6057SOL    HW130150  12.359   5.737  10.911 -1.4730 -1.4731  0.8157
 6057SOL    HW230151  12.486   5.730  10.993 -0.9394  0.3869  0.1897
 6058SOL     OW30152   3.488   7.329   7.997  0.0886  0.4986  0.0358
 6058SOL    HW130153   3.396   7.305   7.998  0.4499 -0.9781 -0.4458
 6058SOL    HW230154   3.496   7.391   7.924 -0.5988  1.0732  0.4317
 6059SOL     OW30155  10.922   5.919   8.288 -0.4191 -0.1678  0.0226
 6059SOL    HW130156  10.925   6.007   8.251  0.6510  0.4171  1.3833
 6059SOL    HW230157  10.951   5.930   8.379  0.2710 -1.9939  0.0778
 6060SOL     OW30158   2.215   9.357   0.152  0.6052  0.2649  0.4661
 6060SOL    HW130159   2.296   9.309   0.167  0.9639  0.8296  0.3572
 6060SOL    HW230160   2.200   9.349   0.057  1.8263  2.1655  0.0723
 6061SOL     OW30161  10.352  13.469  11.849  0.0157 -0.2707  0.1177
 6061SOL    HW130162  10.416  13.487  11.918  1.0417  0.8118 -1.0557
 6061SOL    HW230163  10.305  13.391  11.879  0.4350  0.1547  2.0015
 6062SOL     OW30164  10.998   2.061  10.026  0.5440  0.0515  0.3576
 6062SOL    HW130165  10.947   2.086  10.103 -0.0351 -1.2375  0.4153
 6062SOL    HW230166  10.994   1.965  10.024  1.7944 -0.0090 -0.4378
 6063SOL     OW30167   3.054   6.634   6.747 -0.3341  0.0137  0.5185
 6063SOL    HW130168   3.011   6.612   6.663 -2.0061 -1.1535  1.6057
 6063SOL    HW230169   3.147   6.620   6.730 -0.6051  0.0598 -1.2274
 6064SOL     OW30170   3.720   7.473  13.946  0.1083  0.7133  0.0134
 6064SOL    HW130171   3.652   7.523  13.991 -2.8467 -2.1051 -0.9095
 6064SOL    HW230172   3.718   7.387  13.987 -0.0848 -0.8246 -2.9006
 6065SOL     OW30173  12.931   2.026   9.535  0.3425  0.2156 -0.0785
 6065SOL    HW130174  12.872   2.000   9.606  0.1762  0.4442 -0.1317
 6065SOL    HW230175  12.874   2.033   9.458  0.3714  0.7891 -0.0548
 6066SOL     OW30176   4.241   9.428   9.499 -0.5651  0.1003 -0.2486
 6066SOL    HW130177   4.154   9.431   9.459 -0.8090 -3.2056 -0.1906
 6066SOL    HW230178   4.276   9.342   9.476  1.3554  0.0173  2.4714
 6067SOL     OW30179  11.932   8.851  10.353 -0.2533  0.2712  0.0143
 6067SOL    HW130180  12.024   8.825  10.348 -0.4594 -0.2645 -1.4633
 6067SOL    HW230181  11.909   8.840  10.445  0.6798 -1.3285  0.0946
 6068SOL     OW30182   7.265  11.566  13.622  0.0329  0.7326  0.3261
 6068SOL    HW130183   7.245  11.610  13.539 -0.0029 -0.9111 -0.5786
 6068SOL    HW230184   7.267  11.473  13.600  0.3361  0.2751  2.1229
 6069SOL     OW30185  11.602   7.435   2.418  0.2755  0.1452  0.0420
 6069SOL    HW130186  11.563   7.463   2.335 -1.2808  2.1282  1.3506
 6069SOL    HW230187  11.665   7.505   2.439 -0.4663  0.4580  1.2609
 6070SOL     OW30188  13.483   0.727  11.484 -0.0481  0.3820  0.6789
 6070SOL    HW130189  13.567   0.747  11.525 -0.0748  1.8628  0.0481
 6070SOL    HW230190  13.504   0.710  11.392 -0.3935  0.4312  0.5891
 6071SOL     OW30191   1.580   0.976   2.625 -0.2549  0.2745 -0.1534
 6071SOL    HW130192   1.567   0.989   2.719  0.1176  0.7559 -0.1655
 6071SOL    HW230193   1.673   0.993   2.610 -0.0938 -0.7858 -0.4560
 6072SOL     OW30194  12.946  13.924  13.929 -0.1050  0.1509 -0.0531
 6072SOL    HW130195  12.982  13.990  13.989 -2.3048  0.6984  0.7772
 6072SOL    HW230196  13.021  13.897  13.875  2.3650 -1.3266  3.7088
 6073SOL     OW30197   3.813   6.977   3.253  0.2435 -0.4033  0.3058
 6073SOL    HW130198   3.832   6.894   3.296  1.2298 -0.7416 -0.7472
 6073SOL    HW230199   3.870   6.979   3.177 -1.9095 -0.1238 -1.4054
 6074SOL     OW30200   6.485  13.154  10.700  0.3862  0.2509 -0.6424
 6074SOL    HW130201   6.461  13.070  10.738  0.0749  0.7150  0.1968
 6074SOL    HW230202   6.429  13.162  10.623  0.6088 -0.4232 -0.8881
 6075SOL     OW30203   9.097   0.238   0.951  0.2087  0.3040 -0.1064
 6075SOL    HW130204   9.005   0.260   0.955 -0.0160 -0.5034 -0.6291
 6075SOL    HW230205   9.105   0.179   0.877  1.0477 -0.0798  0.2699
 6076SOL     OW30206   0.845   2.167   5.227  0.9147  0.2555  0.1375
 6076SOL    HW130207   0.853   2.140   5.319 -0.6039 -5.6587 -1.1051
 6076SOL    HW230208   0.764   2.217   5.224 -0.5126 -1.7865  1.7347
 6077SOL     OW30209  12.478   3.641   3.423 -0.0353 -0.3836 -0.4238
 6077SOL    HW130210  12.569   3.667   3.428  0.3734 -1.9504  1.1330
 6077SOL    HW230211  12.440   3.670   3.506 -1.0650  0.4860 -1.1565
 6078SOL     OW30212   0.072   8.717  13.773  0.2358 -0.0001  0.2600
 6078SOL    HW130213   0.148   8.719  13.715 -0.8602  2.1021 -1.2489
 6078SOL    HW230214   0.067   8.805  13.809 -0.6370 -0.5414  1.5047
 6079SOL     OW30215   2.853   6.248   2.201  0.0471  0.5023  0.3463
 6079SOL    HW130216   2.925   6.281   2.147  0.3824 -1.1143 -0.2608
 6079SOL    HW230217   2.791   6.211   2.138 -0.6071  0.5337  0.9548
 6080SOL     OW30218   3.432   3.402   7.732 -0.0171 -1.2245  0.3624
 6080SOL    HW130219   3.446   3.309   7.715 -0.2129 -0.8808 -2.0132
 6080SOL    HW230220   3.447   3.444   7.648 -0.8854  0.8085  1.1635
 6081SOL     OW30221   7.065  11.441  11.775 -0.3674  0.1729 -0.0717
 6081SOL    HW130222   7.110  11.498  11.838  1.3670 -0.7463 -0.4092
 6081SOL    HW230223   7.105  11.462  11.691 -1.3325  0.0547 -0.5728
 6082SOL     OW30224   2.007  13.998  10.409 -0.1158 -0.3602  0.0309
 6082SOL    HW130225   1.913  13.979  10.411  0.2243 -2.1951  0.2876
 6082SOL    HW230226   2.019  14.064  10.478 -1.2293  0.0128 -0.1090
 6083SOL     OW30227   6.679   1.898  12.296 -0.0223  0.4924  0.1506
 6083SOL    HW130228   6.721   1.977  12.262  1.6705  0.7391  2.5934
 6083SOL    HW230229   6.751   1.835  12.307 -0.8884 -0.3832  1.0007
 6084SOL     OW30230  11.590   7.326   8.933  0.2758  0.4312  0.0271
 6084SOL    HW130231  11.574   7.417   8.959  1.2634  0.0456  2.1829
 6084SOL    HW230232  11.604   7.331   8.838 -1.4245  2.2490 -0.1811
 6085SOL     OW30233   5.120   7.892  11.409 -0.6005 -0.0717 -0.0483
 6085SOL    HW130234   5.185   7.962  11.399  0.7891 -1.4608 -1.3971
 6085SOL    HW230235   5.145   7.847  11.490  0.9368 -1.3209 -1.1538
 6086SOL     OW30236   0.335   5.881   9.152  0.3205 -0.0843  0.1266
 6086SOL    HW130237   0.402   5.828   9.108  0.3871  0.6221 -0.6461
 6086SOL    HW230238   0.276   5.817   9.192  0.9847 -0.7241  0.1085
 6087SOL     OW30239  12.367   4.536   0.195  0.4545 -0.8691 -0.4279
 6087SOL    HW130240  12.375   4.542   0.100  0.4995 -0.9714 -0.4317
 6087SOL    HW230241  12.299   4.599   0.218  0.7138 -0.5652 -0.4854
 6088SOL     OW30242   6.809   9.844  13.692  0.6598  0.3595 -0.3348
 6088SOL    HW130243   6.789   9.901  13.618 -0.3569 -1.2418 -1.3448
 6088SOL    HW230244   6.769   9.888  13.767 -1.3757  0.3127 -1.3158
 6089SOL     OW30245   4.088   3.170  10.120  0.3979 -0.9219  0.0280
 6089SOL    HW130246   4.173   3.172  10.076  0.7844 -0.7464  0.7766
 6089SOL    HW230247   4.083   3.252  10.168 -0.4468 -0.6732 -0.4551
 6090SOL     OW30248   4.170   8.190  11.714  0.7546 -0.2054  0.1677
 6090SOL    HW130249   4.096   8.139  11.746  0.7553 -0.6841 -0.5624
 6090SOL    HW230250   4.160   8.190  11.619  1.1303  0.5889  0.1204
 6091SOL     OW30251   1.619   0.060   2.665 -0.2332 -0.1212 -0.0974
 6091SOL    HW130252   1.640  -0.018   2.614  0.6045 -1.4100  2.0458
 6091SOL    HW230253   1.700   0.110   2.668  0.2005 -0.8483  1.1962
 6092SOL     OW30254  12.583   3.668   8.871 -0.7275 -0.1323  0.7133
 6092SOL    HW130255  12.602   3.721   8.793 -0.1074 -0.2918  0.7476
 6092SOL    HW230256  12.488   3.667   8.877 -0.7619  0.4249  0.3294
 6093SOL     OW30257  11.284  11.520   9.482  0.3444  0.0853 -0.2918
 6093SOL    HW130258  11.343  11.542   9.410 -0.7935  1.2301 -0.9224
 6093SOL    HW230259  11.213  11.471   9.442  0.1130  0.0072  0.2021
 6094SOL     OW30260   3.221   6.666  11.242  0.5154 -0.5013  0.1411
 6094SOL    HW130261   3.194   6.664  11.151  1.6057  0.3246 -0.2275
 6094SOL    HW230262   3.292   6.602  11.248 -1.2800 -2.5175  1.0535
 6095SOL     OW30263   4.509   8.527   2.698  0.0371  0.5498  0.1289
 6095SOL    HW130264   4.424   8.570   2.691  0.0638  1.0515  2.1262
 6095SOL    HW230265   4.569   8.583   2.648 -0.2980  1.7902  1.0753
 6096SOL     OW30266   1.785  12.812   3.714  0.0953 -0.0342 -0.3687
 6096SOL    HW130267   1.814  12.721   3.719 -1.0285 -0.3459  1.6975
 6096SOL    HW230268   1.690  12.807   3.725  0.0662  1.4169  0.2784
 6097SOL     OW30269  13.791   0.473   3.268 -0.0980 -0.0104 -0.4711
 6097SOL    HW130270  13.777   0.526   3.189  1.5355  2.1008  0.5547
 6097SOL    HW230271  13.848   0.527   3.323  0.1719 -2.1281  1.4542
 6098SOL     OW30272   0.276   9.365   3.884  0.0526  0.2341 -0.0442
 6098SOL    HW130273   0.247   9.450   3.915  0.9249  0.3112  0.6021
 6098SOL    HW230274   0.227   9.351   3.803 -1.4804  0.5075  0.7961
 6099SOL     OW30275   0.981   1.462   5.025  0.1643  0.0913 -0.2373
 6099SOL    HW130276   0.891   1.452   5.056  0.0593 -0.0340 -0.5774
 6099SOL    HW230277   1.000   1.556   5.033 -0.2383  0.2289 -0.8153
 6100SOL     OW30278   6.228   3.879   5.759 -0.0025  0.3741  0.4912
 6100SOL    HW130279   6.297   3.927   5.804  0.7354 -0.1335 -0.0742
 6100SOL    HW230280   6.157   3.942   5.748  1.2905  1.6387 -1.0528
 6101SOL     OW30281   8.609   7.231   8.747 -0.0522  0.0247 -0.2448
 6101SOL    HW130282   8.669   7.178   8.799  0.4594  0.6945 -0.1300
 6101SOL    HW230283   8.527   7.182   8.746 -0.1185  0.0491  1.3193
 6102SOL     OW30284  13.529   2.222  10.879 -0.5163 -0.0277 -0.0827
 6102SOL    HW130285  13.601   2.283  10.861  0.1220 -0.3409  1.2648
 6102SOL    HW230286  13.457   2.254  10.826  0.3507  0.8315 -0.7853
 6103SOL     OW30287  11.723   1.930   9.337 -0.4550  0.1748 -0.1104
 6103SOL    HW130288  11.708   1.991   9.264 -1.1804 -0.7822 -0.7948
 6103SOL    HW230289  11.640   1.930   9.385  0.0354  0.8379  0.7775
 6104SOL     OW30290   5.251   9.448   8.209  0.0796  0.3163 -0.2032
 6104SOL    HW130291   5.194   9.481   8.278  0.5513 -0.8289  0.7584
 6104SOL    HW230292   5.285   9.527   8.166  0.4436  1.0691  1.4195
 6105SOL     OW30293   8.635   6.871   1.065 -0.3269 -0.0522  0.1969
 6105SOL    HW130294   8.628   6.852   1.159 -3.0323  1.1710  0.3457
 6105SOL    HW230295   8.687   6.951   1.061  0.9197 -0.8182  0.5058
 6106SOL     OW30296   9.831  13.940   4.507 -0.5757 -0.1945  0.1794
 6106SOL    HW130297   9.748  13.971   4.472 -0.9227  0.2975  1.3793
 6106SOL    HW230298   9.856  13.867   4.450 -3.0623 -2.0168  1.2520
 6107SOL     OW30299   6.305   9.250   7.941 -0.9463  0.0568 -0.0842
 6107SOL    HW130300   6.344   9.187   7.881  0.0281  1.4314 -0.9805
 6107SOL    HW230301   6.221   9.212   7.966  0.8436 -3.0059  1.8789
 6108SOL     OW30302   5.086   4.727   7.888  0.1028 -0.1808 -0.8196
 6108SOL    HW130303   5.033   4.788   7.838 -1.7200 -1.7076 -0.8765
 6108SOL    HW230304   5.046   4.726   7.975 -0.8052 -2.2184 -1.1897
 6109SOL     OW30305   5.761   1.664  12.168 -0.3096  0.5854 -0.5630
 6109SOL    HW130306   5.679   1.615  12.155 -0.8968  0.7089  2.0599
 6109SOL    HW230307   5.756   1.694  12.258  2.4058  1.1135 -0.5133
 6110SOL     OW30308  11.701   2.722  11.028 -0.4814  0.4951  0.1673
 6110SOL    HW130309  11.707   2.778  11.106 -1.5556  0.6640  0.1418
 6110SOL    HW230310  11.716   2.633  11.061 -2.1868  0.4137  0.8090
 6111SOL     OW30311   0.263  10.615   0.063  0.0293 -0.3066  0.0884
 6111SOL    HW130312   0.335  10.560   0.033 -1.3307 -1.6995 -0.7310
 6111SOL    HW230313   0.262  10.603   0.158  1.0075 -0.0696  0.1422
 6112SOL     OW30314   4.340   8.941   4.370 -0.0416  0.4711  0.4730
 6112SOL    HW130315   4.410   8.876   4.364 -0.0015  0.4820  0.7921
 6112SOL    HW230316   4.383   9.025   4.352  0.0512  0.4889  0.7591
 6113SOL     OW30317  13.726   5.014  11.942  0.4121 -0.0580 -0.6712
 6113SOL    HW130318  13.732   5.036  11.849  2.0593  0.2641 -0.5137
 6113SOL    HW230319  13.774   5.083  11.986 -0.8407  0.1052  0.4901
 6114SOL     OW30320   9.321   8.844   0.317 -0.1713 -0.4495 -0.4816
 6114SOL    HW130321   9.317   8.881   0.229  3.2916 -1.1460 -1.0782
 6114SOL    HW230322   9.395   8.888   0.358  1.0670 -3.1823  0.4649
 6115SOL     OW30323   1.193   9.471   1.419 -0.0773  0.4040 -0.1771
 6115SOL    HW130324   1.110   9.425   1.407 -0.7496  1.2771  0.8995
 6115SOL    HW230325   1.258   9.401   1.429 -0.9704 -0.3344  0.7355
 6116SOL     OW30326  10.921   9.053   4.341 -0.0323 -0.0781 -0.2036
 6116SOL    HW130327  11.014   9.073   4.330 -0.1071  0.6561  0.4246
 6116SOL    HW230328  10.886   9.127   4.391 -0.3723 -1.6246  2.0041
 6117SOL     OW30329   2.702   8.554   9.403  0.0974  1.0398  0.1894
 6117SOL    HW130330   2.626   8.520   9.450 -1.2233  1.7123 -1.3449
 6117SOL    HW230331   2.760   8.478   9.391 -1.7934 -0.2617 -1.3055
 6118SOL     OW30332   7.526   6.791   0.867  0.2461  0.0061 -0.2667
 6118SOL    HW130333   7.500   6.752   0.785  0.2718 -0.7375  0.0742
 6118SOL    HW230334   7.465   6.864   0.880 -1.3286 -1.3339  0.2364
 6119SOL     OW30335  13.852   0.506   0.361 -0.6503 -0.3319  0.1397
 6119SOL    HW130336  13.922   0.453   0.401 -1.0618 -0.4771  0.6724
 6119SOL    HW230337  13.829   0.458   0.282  0.3093  0.0605 -0.4020
 6120SOL     OW30338  12.440   3.193   7.525 -0.2683  0.2977  0.3891
 6120SOL    HW130339  12.356   3.160   7.558 -0.9783  1.9368  0.2772
 6120SOL    HW230340  12.449   3.154   7.438 -0.8808  0.0731  0.4248
 6121SOL     OW30341   4.072  13.736  12.603  0.1160 -0.7458 -0.2831
 6121SOL    HW130342   4.108  13.662  12.555 -0.4738 -0.6054 -0.9583
 6121SOL    HW230343   4.111  13.813  12.563  0.0405 -0.6548 -0.1809
 6122SOL     OW30344   4.051   0.218   2.120 -0.0149 -0.4217 -0.2622
 6122SOL    HW130345   4.078   0.304   2.153  0.4066 -0.6443 -0.0200
 6122SOL    HW230346   3.959   0.210   2.147 -0.2276  0.1950 -0.7869
 6123SOL     OW30347   9.354   0.278   4.416 -0.2858  0.2671  0.0126
 6123SOL    HW130348   9.349   0.367   4.450 -0.5514  0.4731 -0.5513
 6123SOL    HW230349   9.377   0.289   4.323 -2.1404 -0.1345 -0.5451
 6124SOL     OW30350   8.518   9.140  11.803  0.2252 -0.3170  0.4979
 6124SOL    HW130351   8.499   9.150  11.710  0.0240 -0.6095  0.5036
 6124SOL    HW230352   8.487   9.052  11.824  2.4644 -1.2374  0.2922
 6125SOL     OW30353  10.850   6.931  11.335 -0.1954 -0.1075 -0.6785
 6125SOL    HW130354  10.911   6.988  11.288 -1.9870  1.3889 -1.2737
 6125SOL    HW230355  10.781   6.989  11.367 -0.8484 -1.6161  0.7987
 6126SOL     OW30356   7.522   1.285  10.303  0.1998  0.5138 -0.1291
 6126SOL    HW130357   7.457   1.346  10.339 -1.5807 -0.4587 -1.5212
 6126SOL    HW230358   7.579   1.339  10.249 -0.9061  1.0934 -0.7643
 6127SOL     OW30359   3.290   6.966  11.052  0.3251 -0.2301  0.0414
 6127SOL    HW130360   3.346   6.889  11.061  0.9872  0.3112  0.6289
 6127SOL    HW230361   3.301   6.992  10.960 -1.0421 -1.6651 -0.5906
 6128SOL     OW30362   9.012   9.667   5.281  0.0274 -0.3297 -0.3584
 6128SOL    HW130363   8.966   9.714   5.211 -0.7978  1.2315  1.1520
 6128SOL    HW230364   9.091   9.633   5.239 -0.5128  0.4304 -2.0726
 6129SOL     OW30365  10.994   3.161   4.566 -0.1860  0.1373 -0.6253
 6129SOL    HW130366  11.048   3.127   4.494 -1.1768 -0.7789 -0.9672
 6129SOL    HW230367  10.911   3.183   4.525 -0.3384  0.7979  0.0315
 6130SOL     OW30368  12.277   9.179  13.367  0.1737  0.3008  0.4925
 6130SOL    HW130369  12.307   9.136  13.448 -0.1293 -1.5973 -0.3483
 6130SOL    HW230370  12.190   9.142  13.351  1.1232 -1.1313 -1.8854
 6131SOL     OW30371  11.119   0.054   4.108  0.3058  0.1527 -0.3249
 6131SOL    HW130372  11.211   0.037   4.128 -0.1487 -1.6889  0.3383
 6131SOL    HW230373  11.102   0.005   4.028  0.1038  1.2436 -0.9775
 6132SOL     OW30374   0.302   6.553   6.528 -0.4149 -0.1950  0.5137
 6132SOL    HW130375   0.280   6.485   6.464 -0.2134  0.1177  0.0987
 6132SOL    HW230376   0.253   6.530   6.606 -1.6986  0.1169 -0.1660
 6133SOL     OW30377   1.114   6.104  10.497 -0.3283 -0.1444 -0.1687
 6133SOL    HW130378   1.077   6.188  10.468 -0.8719 -0.3227  0.0016
 6133SOL    HW230379   1.208   6.117  10.491 -0.4082 -0.4178 -2.7084
 6134SOL     OW30380   2.748   3.127  10.430 -0.2450  0.5717 -0.0875
 6134SOL    HW130381   2.702   3.210  10.438  0.5044  0.8317  2.3603
 6134SOL    HW230382   2.837   3.145  10.460 -0.1224 -1.1303  0.7406
 6135SOL     OW30383   1.298  11.988  10.309  0.5945 -0.3338 -0.3503
 6135SOL    HW130384   1.220  11.993  10.364 -0.3326  2.0713 -1.7116
 6135SOL    HW230385   1.309  11.895  10.291 -0.6135 -0.9333  1.7065
 6136SOL     OW30386   1.999   5.459   4.890  0.6487  0.6131  0.5193
 6136SOL    HW130387   1.953   5.452   4.807 -1.8322  0.5461  1.8105
 6136SOL    HW230388   2.059   5.385   4.891 -0.3940 -0.2842 -0.5925
 6137SOL     OW30389   4.877   5.019   3.337 -0.6838 -0.1740  0.1402
 6137SOL    HW130390   4.873   4.946   3.275  0.0517  1.7720 -2.3842
 6137SOL    HW230391   4.832   5.091   3.292 -1.7400  0.8769  2.6852
 6138SOL     OW30392  13.766   8.999  13.913 -0.1422 -0.2879 -0.4069
 6138SOL    HW130393  13.752   9.008  13.818  0.6033  1.3047 -0.3927
 6138SOL    HW230394  13.859   8.975  13.921  0.1563  0.9296 -0.0472
 6139SOL     OW30395   5.881   6.373   8.441 -0.7189  0.3647 -0.4110
 6139SOL    HW130396   5.840   6.335   8.519  2.4837 -1.1058  0.7486
 6139SOL    HW230397   5.953   6.425   8.476  1.8673 -1.6628 -2.3275
 6140SOL     OW30398   3.509  10.965   6.604  0.4644 -0.0950  0.0325
 6140SOL    HW130399   3.443  10.918   6.554  0.1573 -0.2674  0.5858
 6140SOL    HW230400   3.514  11.051   6.563 -2.5840  1.1963  1.9663
 6141SOL     OW30401  10.963   3.569  10.630  0.2579  0.0658 -0.4649
 6141SOL    HW130402  10.950   3.611  10.715  2.0227 -0.0958 -0.0906
 6141SOL    HW230403  11.026   3.499  10.646  0.2871 -0.2622 -1.8236
 6142SOL     OW30404   8.770  11.033  13.940  0.4385  0.0172  0.1197
 6142SOL    HW130405   8.683  11.072  13.940  0.7050  0.8264 -2.5147
 6142SOL    HW230406   8.823  11.091  13.995 -0.3790  0.2654  0.6516
 6143SOL     OW30407   1.610  11.696  11.668 -0.3401  0.1923 -0.3036
 6143SOL    HW130408   1.540  11.634  11.689  0.3162 -0.2538  0.6067
 6143SOL    HW230409   1.584  11.777  11.712 -0.6162  0.2203 -0.5187
 6144SOL     OW30410   0.507   9.889   3.391 -0.1639 -0.1528 -0.5139
 6144SOL    HW130411   0.417   9.920   3.378 -0.3779 -0.7212 -0.4201
 6144SOL    HW230412   0.550   9.905   3.307 -0.1558  0.7546 -0.3456
 6145SOL     OW30413   2.814   9.009   8.127 -0.4399 -0.4611  0.2183
 6145SOL    HW130414   2.785   8.956   8.053 -0.7726 -0.4323  0.3270
 6145SOL    HW230415   2.905   9.032   8.106 -0.1547 -1.4195  0.3696
 6146SOL     OW30416   8.862   3.039   2.274  0.1240  0.1938 -0.0360
 6146SOL    HW130417   8.904   3.092   2.342  0.6430  1.7342 -1.4895
 6146SOL    HW230418   8.812   3.102   2.223  1.9661 -0.3718 -2.7592
 6147SOL     OW30419  13.474   0.638  11.818  0.1267  0.3558  0.3175
 6147SOL    HW130420  13.422   0.718  11.814 -0.6066 -0.1072  0.2526
 6147SOL    HW230421  13.409   0.568  11.810  1.0282 -0.2424 -2.5240
 6148SOL     OW30422   2.230   0.766   2.006  0.0788  0.0086 -0.4787
 6148SOL    HW130423   2.168   0.696   1.989  0.6032 -0.2430 -1.4241
 6148SOL    HW230424   2.184   0.846   1.980  0.8165 -0.3492 -3.1535
 6149SOL     OW30425   1.690   1.479  12.207 -0.5418 -0.1715 -0.2097
 6149SOL    HW130426   1.766   1.434  12.172  0.9843  1.0016  1.3830
 6149SOL    HW230427   1.672   1.549  12.144  0.0523 -0.1218 -0.3308
 6150SOL     OW30428   3.993   5.850  10.641  0.3156 -0.1457 -0.4935
 6150SOL    HW130429   3.932   5.777  10.645  1.4387 -1.1013 -0.1680
 6150SOL    HW230430   4.071   5.814  10.598  2.1714 -0.1292  2.5330
 6151SOL     OW30431   3.489   7.016   8.310  0.0435  0.4859 -0.0208
 6151SOL    HW130432   3.522   7.032   8.222 -0.2110  2.3112  0.1871
 6151SOL    HW230433   3.402   7.055   8.311  0.5633  1.6873  1.4150
 6152SOL     OW30434   6.740   6.483  13.159 -0.7524 -0.0422 -0.6784
 6152SOL    HW130435   6.813   6.541  13.176  1.0605 -1.5386 -2.7628
 6152SOL    HW230436   6.679   6.499  13.231  1.5358  1.3536  1.0890
 6153SOL     OW30437   3.986   3.077   4.094 -0.3879 -0.1949  0.3254
 6153SOL    HW130438   3.903   3.041   4.064 -1.0568  1.3603  0.2630
 6153SOL    HW230439   4.017   3.131   4.021  0.1627  0.0689  0.7447
 6154SOL     OW30440   9.549   7.603   1.388 -0.3425  0.4893  0.3376
 6154SOL    HW130441   9.567   7.695   1.406 -0.4361 -0.0167  3.5868
 6154SOL    HW230442   9.461   7.588   1.423 -0.5064 -0.7616 -0.5377
 6155SOL     OW30443   3.484   2.925   4.779 -0.3766  0.0396  0.0528
 6155SOL    HW130444   3.410   2.940   4.719 -0.8827  0.5332  0.7803
 6155SOL    HW230445   3.553   2.889   4.724 -0.1749  2.1971 -1.2407
 6156SOL     OW30446   7.402  12.029   6.799 -0.1696 -0.1674 -0.1065
 6156SOL    HW130447   7.450  12.031   6.716  0.6467 -1.0405  0.3286
 6156SOL    HW230448   7.323  11.977   6.780  0.3692 -0.9749 -0.1623
 6157SOL     OW30449   0.043   5.396   0.036 -0.9915  0.9089  0.1897
 6157SOL    HW130450   0.019   5.363  -0.051 -0.6000  1.6963 -0.2263
 6157SOL    HW230451   0.115   5.456   0.020 -1.1928  1.3874  1.0165
 6158SOL     OW30452   1.831   8.424   8.616 -0.1342  0.4996  0.4039
 6158SOL    HW130453   1.852   8.498   8.673  0.7429  1.2501 -0.8329
 6158SOL    HW230454   1.837   8.460   8.527 -2.5972 -0.3348 -0.1643
 6159SOL     OW30455   4.156  11.363   3.740  0.0408  0.0942  0.5265
 6159SOL    HW130456   4.196  11.289   3.694  1.3181  0.2098  1.4169
 6159SOL    HW230457   4.119  11.417   3.670 -0.3255 -1.0309 -0.1775
 6160SOL     OW30458   0.004   8.875   1.705  0.3729  0.3668  0.3760
 6160SOL    HW130459  -0.016   8.945   1.767  0.4811  0.2167  0.5830
 6160SOL    HW230460  -0.048   8.895   1.628 -0.2471  0.2085  0.7523
 6161SOL     OW30461  12.545   2.335   9.755 -0.3368  0.2848  0.2143
 6161SOL    HW130462  12.633   2.371   9.768 -0.6263  1.1150 -0.0474
 6161SOL    HW230463  12.518   2.367   9.669 -0.5161 -0.7764 -0.1333
 6162SOL     OW30464   5.079   5.185   2.601 -0.2837 -0.6409 -0.0997
 6162SOL    HW130465   5.092   5.159   2.692  0.6780 -2.2488 -0.6353
 6162SOL    HW230466   5.144   5.253   2.586  0.0576 -0.8807  0.2402
 6163SOL     OW30467  11.492   6.335   5.032  0.7311 -0.3576  0.1696
 6163SOL    HW130468  11.556   6.355   5.100 -0.6721 -0.7803  1.6637
 6163SOL    HW230469  11.418   6.393   5.051 -0.7971 -2.3637  0.7060
 6164SOL     OW30470  13.725   3.795  11.129 -0.4703  0.3736 -0.0116
 6164SOL    HW130471  13.793   3.779  11.195  0.2305  1.0844 -0.5362
 6164SOL    HW230472  13.658   3.845  11.176  0.3758  1.5521 -0.0011
 6165SOL     OW30473  13.347   6.299   2.539 -0.1057 -0.1322 -0.2419
 6165SOL    HW130474  13.362   6.329   2.450  0.8920  0.6991  0.1744
 6165SOL    HW230475  13.427   6.324   2.586 -0.5111 -0.7663  0.8271
 6166SOL     OW30476   3.637  10.588  13.042 -0.3692  0.0710 -0.3335
 6166SOL    HW130477   3.654  10.509  13.093  0.6694 -0.4755 -1.4603
 6166SOL    HW230478   3.698  10.582  12.968 -1.2864  1.2054 -1.2205
 6167SOL     OW30479   6.647  11.595   3.944 -0.3271 -0.8416  0.4741
 6167SOL    HW130480   6.580  11.540   3.986 -0.7752 -0.8779 -0.2723
 6167SOL    HW230481   6.620  11.685   3.964 -0.4046 -0.8642  0.4725
 6168SOL     OW30482   8.987   1.788  10.377  0.7639 -0.2912 -0.6044
 6168SOL    HW130483   8.985   1.826  10.289  1.6716 -1.6953 -1.2640
 6168SOL    HW230484   8.951   1.857  10.433 -0.4627  0.3802 -2.1451
 6169SOL     OW30485  11.487   0.839   3.852  0.0179  0.0401  0.3808
 6169SOL    HW130486  11.449   0.927   3.841  0.7047  0.4105  0.9363
 6169SOL    HW230487  11.468   0.795   3.769 -1.4142  0.2866  0.5467
 6170SOL     OW30488   7.098   1.973   1.637 -0.1827  0.3949  0.2210
 6170SOL    HW130489   7.147   2.036   1.584 -1.5407 -1.0194 -2.9988
 6170SOL    HW230490   7.007   1.982   1.608 -0.7204 -1.7034  1.0505
 6171SOL     OW30491  11.550  11.769  12.121 -0.3558  0.1637 -0.2809
 6171SOL    HW130492  11.471  11.820  12.108 -0.4485 -0.0163 -0.4336
 6171SOL    HW230493  11.607  11.792  12.047  0.8245  2.2928  1.2021
 6172SOL     OW30494   6.847  11.563   6.468  0.0251 -0.3592  0.4338
 6172SOL    HW130495   6.912  11.493   6.466  0.1612 -0.2366  0.5379
 6172SOL    HW230496   6.847  11.598   6.379 -0.6876 -1.0728  0.1346
 6173SOL     OW30497  11.205   9.272  11.939  0.2370  0.2016 -0.4703
 6173SOL    HW130498  11.264   9.263  11.864 -0.2289 -0.7938 -0.7273
 6173SOL    HW230499  11.229   9.357  11.978 -0.9941  1.8308 -3.0270
 6174SOL     OW30500  10.633   8.453  12.441 -0.2639  0.0842  0.0657
 6174SOL    HW130501  10.544   8.476  12.469  0.4371  0.3929  2.2182
 6174SOL    HW230502  10.630   8.358  12.428 -1.4596  0.3515 -2.2766
 6175SOL     OW30503  12.429   0.549  11.478 -0.2425  0.9739 -0.2390
 6175SOL    HW130504  12.520   0.529  11.456 -0.2078  0.7667  0.0943
 6175SOL    HW230505  12.424   0.645  11.476  0.2638  1.0311  0.8585
 6176SOL     OW30506   8.306   7.342   9.412  0.0312  0.1391  0.2389
 6176SOL    HW130507   8.375   7.288   9.450 -0.6991  0.8416  2.7419
 6176SOL    HW230508   8.334   7.432   9.430 -1.6668  0.4298  1.6995
 6177SOL     OW30509  10.081   9.734  13.687  0.1039  0.1064  0.5423
 6177SOL    HW130510  10.075   9.687  13.770  0.1111 -0.5400  0.1833
 6177SOL    HW230511  10.136   9.810  13.706 -2.3983  1.6975  1.9114
 6178SOL     OW30512  10.890   3.039  11.538  0.0585  0.5318  0.0950
 6178SOL    HW130513  10.869   3.040  11.631 -0.3340  1.5739  0.0012
 6178SOL    HW230514  10.837   3.109  11.500  2.2707  2.0289 -0.4418
 6179SOL     OW30515   2.987  11.954  10.353 -0.0479  0.0038  0.2807
 6179SOL    HW130516   2.916  11.987  10.408  0.1927  1.1015 -0.0374
 6179SOL    HW230517   2.955  11.870  10.319 -0.4925 -0.3291  1.4940
 6180SOL     OW30518  13.658   1.870  11.172 -0.3992 -0.2032  0.0949
 6180SOL    HW130519  13.580   1.830  11.135 -0.0340 -0.7896 -0.0655
 6180SOL    HW230520  13.729   1.845  11.112 -0.0515  0.1344  0.3542
 6181SOL     OW30521   2.267   0.077   7.155  0.0503 -0.0480 -0.2375
 6181SOL    HW130522   2.271  -0.002   7.210 -1.0776 -0.2260 -0.3681
 6181SOL    HW230523   2.234   0.145   7.214 -1.2319 -0.2575 -0.6676
 6182SOL     OW30524   4.946  12.004  13.509  0.4456 -0.4564  0.0655
 6182SOL    HW130525   4.866  12.043  13.473  1.1269  0.4026 -0.5520
 6182SOL    HW230526   4.966  12.058  13.585  0.6110 -0.4755  0.0353
 6183SOL     OW30527  13.928   0.900  10.223 -0.4826  0.0797  0.4876
 6183SOL    HW130528  13.840   0.880  10.191  0.4976 -1.9649 -1.1099
 6183SOL    HW230529  13.958   0.972  10.168 -2.5303  3.7455  3.6765
 6184SOL     OW30530   0.643  10.196  10.783 -0.2232  0.2472  0.1820
 6184SOL    HW130531   0.642  10.163  10.873 -1.4861  1.4472  0.6615
 6184SOL    HW230532   0.551  10.216  10.764  0.2568  1.8790 -0.6433
 6185SOL     OW30533  10.149   9.018   2.576 -0.3445 -0.5452  0.3276
 6185SOL    HW130534  10.152   9.048   2.485 -0.6024  1.2590  0.8716
 6185SOL    HW230535  10.081   8.951   2.576 -0.9981  0.0817 -0.6448
 6186SOL     OW30536   1.704  12.186   1.247 -0.3443  0.7737  0.3318
 6186SOL    HW130537   1.718  12.135   1.327  0.3121  1.4635  0.6745
 6186SOL    HW230538   1.767  12.257   1.253  0.9073 -0.0950 -1.6278
 6187SOL     OW30539   3.635   2.073   2.568 -0.5406  0.4070  0.2337
 6187SOL    HW130540   3.668   2.122   2.494 -1.4144  1.2849  0.4061
 6187SOL    HW230541   3.573   2.132   2.611 -2.4170 -1.1751 -0.1509
 6188SOL     OW30542   9.757  13.335   2.268  0.2481 -0.1304 -0.2731
 6188SOL    HW130543   9.668  13.355   2.298  0.4676  0.8640 -0.2350
 6188SOL    HW230544   9.805  13.418   2.279  1.7302 -1.1480  1.6483
 6189SOL     OW30545  11.188  11.436   8.837  0.1285 -0.0999 -0.0237
 6189SOL    HW130546  11.204  11.493   8.912 -1.3027 -2.1169  1.9464
 6189SOL    HW230547  11.212  11.348   8.868  0.9509 -0.8084 -2.4658
 6190SOL     OW30548   2.618   0.609  12.049  0.1978 -0.0087  0.1893
 6190SOL    HW130549   2.637   0.540  12.113 -0.8348 -0.8031 -0.3131
 6190SOL    HW230550   2.575   0.562  11.977  0.7081  0.9688 -0.7763
 6191SOL     OW30551   8.150   8.445   6.022 -0.0578  0.2844 -0.2710
 6191SOL    HW130552   8.113   8.505   5.958 -1.0311  0.0531  0.0625
 6191SOL    HW230553   8.141   8.358   5.983 -0.7500  0.1327  0.2167
 6192SOL     OW30554  10.356  11.574  11.251 -0.1460  0.3513  0.0753
 6192SOL    HW130555  10.450  11.577  11.234 -0.0075  2.5113  0.8476
 6192SOL    HW230556  10.316  11.577  11.164  0.4740 -0.6391 -0.2637
 6193SOL     OW30557   4.342   0.933   6.013 -0.6135 -0.7985  0.0720
 6193SOL    HW130558   4.420   0.980   5.985  1.2636 -2.7054  1.6991
 6193SOL    HW230559   4.287   0.999   6.056  2.0447 -0.0141  2.5786
 6194SOL     OW30560   4.208   3.192   5.884  0.2707  0.0977  0.2784
 6194SOL    HW130561   4.229   3.275   5.841  0.6982  0.2368  0.7461
 6194SOL    HW230562   4.140   3.213   5.948  0.5017  0.1219  0.5176
 6195SOL     OW30563  12.984   7.526   2.972 -0.1552 -0.3146 -0.4525
 6195SOL    HW130564  13.036   7.560   3.045 -0.8598  0.6146 -0.3748
 6195SOL    HW230565  13.009   7.433   2.967  0.8730 -0.0854  0.1190
 6196SOL     OW30566   2.814   2.223   7.030  0.5469  0.3939 -0.3345
 6196SOL    HW130567   2.766   2.235   7.112  0.4911  1.3727 -0.5049
 6196SOL    HW230568   2.775   2.145   6.991  0.7831 -0.2692  0.7085
 6197SOL     OW30569   9.887   0.079  11.147  0.6193  0.5209 -0.5032
 6197SOL    HW130570   9.816   0.036  11.194  2.5634 -1.7186  0.6279
 6197SOL    HW230571   9.857   0.169  11.134 -1.6292  0.1677  1.5362
 6198SOL     OW30572   6.370   2.179   4.893  0.3316  0.5339 -0.2215
 6198SOL    HW130573   6.456   2.183   4.935 -0.3347  0.1000  1.2553
 6198SOL    HW230574   6.350   2.086   4.888 -0.8200  0.6811  1.1354
 6199SOL     OW30575  12.611   9.841  13.357  0.3523  0.3401 -0.4537
 6199SOL    HW130576  12.597   9.863  13.264 -0.9618 -0.2788 -0.4193
 6199SOL    HW230577  12.534   9.875  13.401  0.9089  0.5021  0.4159
 6200SOL     OW30578   7.822   1.281  13.068 -0.0105  0.0028 -0.6699
 6200SOL    HW130579   7.832   1.201  13.120 -2.1713 -0.3536 -0.7077
 6200SOL    HW230580   7.734   1.311  13.087  0.5285  2.0436 -1.1786
 6201SOL     OW30581  10.334   2.411   3.857 -0.2626 -0.3828  0.1944
 6201SOL    HW130582  10.248   2.433   3.822 -0.3481 -0.6516  0.2306
 6201SOL    HW230583  10.333   2.446   3.946  0.8672  2.5428 -0.8263
 6202SOL     OW30584   1.181  11.637   6.904  0.3890 -0.2398 -0.3365
 6202SOL    HW130585   1.162  11.707   6.967  2.0536 -0.1568  0.1230
 6202SOL    HW230586   1.270  11.610   6.925  0.6964 -0.7604 -2.1681
 6203SOL     OW30587   6.826  12.930   7.753 -1.1473  0.4073  0.1695
 6203SOL    HW130588   6.820  12.858   7.815  0.1901  0.6061  0.5582
 6203SOL    HW230589   6.907  12.975   7.776 -0.6131  0.4903 -1.7151
 6204SOL     OW30590   5.311   4.549   2.471  0.2058  0.1515  0.2657
 6204SOL    HW130591   5.304   4.502   2.554 -2.4420  1.3340  0.8033
 6204SOL    HW230592   5.231   4.527   2.423  1.1194  0.4362 -1.5062
 6205SOL     OW30593  12.732   1.900   2.197 -0.1358  0.3603  0.9828
 6205SOL    HW130594  12.750   1.939   2.282  0.0729  2.8246 -0.0950
 6205SOL    HW230595  12.673   1.828   2.215 -1.1659  1.6458  3.0956
 6206SOL     OW30596   1.920  13.512   0.391 -0.5473  0.0249  0.4442
 6206SOL    HW130597   2.005  13.481   0.360 -0.5263 -0.3153  0.8278
 6206SOL    HW230598   1.875  13.433   0.421 -1.7874 -0.1037 -1.5470
 6207SOL     OW30599   8.247   8.522  12.367 -0.2795 -0.1733  0.4719
 6207SOL    HW130600   8.174   8.514  12.305  0.9065 -0.6547 -0.9056
 6207SOL    HW230601   8.237   8.448  12.426  0.3630 -1.5944 -1.1336
 6208SOL     OW30602   0.933   9.790  10.740 -0.4264  0.3028  0.3198
 6208SOL    HW130603   0.894   9.763  10.657 -0.0560 -1.6846  0.7446
 6208SOL    HW230604   0.922   9.885  10.742 -0.6019  0.3726 -1.9045
 6209SOL     OW30605  13.456  13.639  13.841  0.2597  0.8799  0.1872
 6209SOL    HW130606  13.491  13.553  13.819  0.0982  1.0330 -0.7084
 6209SOL    HW230607  13.362  13.631  13.827  0.2323  1.1772  0.1995
 6210SOL     OW30608   0.683   7.453   4.119  0.1853  0.9496 -0.5270
 6210SOL    HW130609   0.615   7.500   4.071 -1.2674 -1.7250 -1.3041
 6210SOL    HW230610   0.738   7.414   4.052  0.3349  0.1702  0.0300
 6211SOL     OW30611   4.395   0.574   4.448  0.1255 -0.2476  0.4654
 6211SOL    HW130612   4.450   0.504   4.482  0.4026 -1.2097 -1.7422
 6211SOL    HW230613   4.324   0.528   4.403 -0.8603  0.9321  0.7837
 6212SOL     OW30614   5.898   2.154   6.007  0.0082 -0.1357  0.1938
 6212SOL    HW130615   5.854   2.070   5.990 -0.6893  0.3486 -0.4649
 6212SOL    HW230616   5.980   2.149   5.958 -0.3284 -0.1868 -0.3775
 6213SOL     OW30617  11.554   1.340  13.055  0.4301 -0.1923 -0.2634
 6213SOL    HW130618  11.497   1.267  13.079  1.9269 -1.2528  0.2504
 6213SOL    HW230619  11.513   1.378  12.978 -0.6163 -1.3271 -0.2995
 6214SOL     OW30620   3.666  11.897   9.455 -0.2010  0.2114  0.1712
 6214SOL    HW130621   3.570  11.894   9.463 -0.3771 -0.7939 -1.6816
 6214SOL    HW230622   3.687  11.820   9.403  1.4739  1.2977 -0.8271
 6215SOL     OW30623   9.568   0.424  13.148 -0.1685  0.6178  0.4871
 6215SOL    HW130624   9.591   0.338  13.182  0.8121  0.9980  0.8221
 6215SOL    HW230625   9.547   0.408  13.056  1.1978  0.1889  0.2282
 6216SOL     OW30626   2.845   1.066   7.155  0.2482  0.4284 -0.3200
 6216SOL    HW130627   2.817   1.085   7.066 -1.3024 -2.4146 -0.5615
 6216SOL    HW230628   2.940   1.055   7.148  0.2492  1.0124 -1.4465
 6217SOL     OW30629   8.388   7.042   9.128  0.1588 -0.0321 -0.8177
 6217SOL    HW130630   8.418   6.951   9.121 -1.9660 -0.6879 -2.1624
 6217SOL    HW230631   8.455   7.085   9.182  1.0885 -2.4257  0.0657
 6218SOL     OW30632   0.028  11.721   4.663 -0.0099 -0.2182  0.1487
 6218SOL    HW130633   0.008  11.644   4.610  1.3282 -0.5680  0.1166
 6218SOL    HW230634  -0.053  11.740   4.709 -0.9919 -0.3560 -1.4513
 6219SOL     OW30635  12.726   8.288   6.998 -0.3885 -0.3728  0.0683
 6219SOL    HW130636  12.696   8.373   6.965 -1.5517 -1.3989 -1.6716
 6219SOL    HW230637  12.683   8.278   7.082  0.4780  1.1182  0.7364
 6220SOL     OW30638  12.881   4.834   2.374  0.0363  0.9992  0.3252
 6220SOL    HW130639  12.802   4.800   2.416 -1.7545  2.5492 -1.5876
 6220SOL    HW230640  12.889   4.784   2.293  0.4141  1.5582  0.0078
 6221SOL     OW30641   6.825   8.304   4.548 -0.7978  0.0616 -0.2341
 6221SOL    HW130642   6.794   8.332   4.461 -0.3623 -0.1472 -0.4599
 6221SOL    HW230643   6.801   8.211   4.552  0.0124 -0.1656 -0.5124
 6222SOL     OW30644   6.832   2.499   4.270  0.1631 -0.9646 -0.2247
 6222SOL    HW130645   6.899   2.543   4.323 -0.1322 -0.4493 -0.2840
 6222SOL    HW230646   6.821   2.555   4.193  1.8849 -2.5872 -1.7591
 6223SOL     OW30647  11.384   4.408   9.081 -0.3746 -0.1435  0.3408
 6223SOL    HW130648  11.386   4.338   9.146 -0.6781 -0.5382 -0.0728
 6223SOL    HW230649  11.296   4.446   9.090 -0.3570 -0.0876  0.2743
 6224SOL     OW30650   3.904   3.025  11.595  0.4361  0.1018  0.1584
 6224SOL    HW130651   3.911   3.068  11.510 -1.2394 -0.1296 -0.1402
 6224SOL    HW230652   3.818   3.052  11.629 -0.4187 -2.4468  0.2417
 6225SOL     OW30653   4.099   2.718   8.432  0.5199 -0.1620  0.1659
 6225SOL    HW130654   4.045   2.648   8.467  0.6587 -0.0917  0.5252
 6225SOL    HW230655   4.086   2.714   8.337  0.3149 -0.4943  0.2089
 6226SOL     OW30656   2.563   0.474   4.692  0.0578 -0.3632  0.6656
 6226SOL    HW130657   2.582   0.560   4.729  2.0726 -0.8571  0.9143
 6226SOL    HW230658   2.530   0.423   4.766  0.9946 -0.4231  1.0545
 6227SOL     OW30659   9.145   3.928   6.814  0.1859 -0.1822  0.8036
 6227SOL    HW130660   9.177   4.017   6.826 -0.8925  0.5767 -1.3811
 6227SOL    HW230661   9.051   3.938   6.800  0.2636 -1.4738 -1.0045
 6228SOL     OW30662   1.363   4.932   0.971 -0.6295  0.2892  0.3695
 6228SOL    HW130663   1.455   4.955   0.957 -0.7146  1.1772  1.1820
 6228SOL    HW230664   1.365   4.841   1.001 -0.0497  0.1825  0.0196
 6229SOL     OW30665   8.855   5.119  10.780  0.1564 -0.1464 -0.1274
 6229SOL    HW130666   8.865   5.210  10.752  0.8168  0.1689  1.0733
 6229SOL    HW230667   8.762   5.100  10.768  0.5836 -0.6694 -4.2903
 6230SOL     OW30668   5.234  13.944   6.474 -0.1003 -0.4571  0.2709
 6230SOL    HW130669   5.237  13.894   6.556  0.3033 -1.8399 -0.5436
 6230SOL    HW230670   5.326  13.955   6.450 -0.2268 -2.0023 -1.0848
 6231SOL     OW30671   2.332   0.390   9.284 -0.0251  0.1371  0.3560
 6231SOL    HW130672   2.290   0.473   9.263 -1.7683 -0.1418  2.4433
 6231SOL    HW230673   2.303   0.330   9.216 -1.3347  0.4836  0.5859
 6232SOL     OW30674  12.620   1.206   3.761  0.0975 -0.3510  0.5410
 6232SOL    HW130675  12.601   1.280   3.818  0.8871 -0.8762  1.5276
 6232SOL    HW230676  12.604   1.129   3.815 -2.2404 -1.0011 -0.9390
 6233SOL     OW30677  10.142  12.950  13.793 -0.4560  0.3676 -0.3221
 6233SOL    HW130678  10.136  12.916  13.882 -0.8662 -1.8926 -1.1272
 6233SOL    HW230679  10.218  13.008  13.794 -0.5236  0.4719  1.5066
 6234SOL     OW30680  12.724   6.991   4.850 -0.5218 -0.0703 -0.1736
 6234SOL    HW130681  12.807   6.943   4.846 -0.9110 -0.7781  0.1065
 6234SOL    HW230682  12.749   7.083   4.839  0.0819 -0.4337 -2.3830
 6235SOL     OW30683  12.376   5.977   7.480 -0.1097  0.3916  0.0370
 6235SOL    HW130684  12.290   5.953   7.447 -0.4020  4.2576 -2.6986
 6235SOL    HW230685  12.360   6.052   7.537  1.3813  0.8716 -0.1259
 6236SOL     OW30686   7.153   2.405   8.308  0.1554  0.0866  0.0606
 6236SOL    HW130687   7.061   2.381   8.293  0.1471  0.2864 -0.2240
 6236SOL    HW230688   7.198   2.377   8.228  0.2238  0.6053 -0.0845
 6237SOL     OW30689  12.052  11.059  12.219  0.0386 -0.5068 -0.2641
 6237SOL    HW130690  12.030  11.054  12.312 -0.3591 -0.8116 -0.3739
 6237SOL    HW230691  12.005  10.986  12.179  1.5627 -1.4425 -0.4445
 6238SOL     OW30692   9.400   2.069   8.027  0.2781 -0.4707 -0.0397
 6238SOL    HW130693   9.460   2.007   7.985 -0.0617 -0.6267 -0.3062
 6238SOL    HW230694   9.364   2.121   7.955  0.4584 -0.0533  0.1692
 6239SOL     OW30695  13.432   5.631   4.543  0.4900  0.1228  0.0527
 6239SOL    HW130696  13.384   5.708   4.573  0.3709  0.2016 -0.3290
 6239SOL    HW230697  13.384   5.556   4.578  0.0889  0.2009 -0.3173
 6240SOL     OW30698   0.380   0.643   3.774  0.4615  0.1836  0.2950
 6240SOL    HW130699   0.416   0.717   3.824  0.4936 -0.1789  0.8134
 6240SOL    HW230700   0.292   0.672   3.749  0.7024  0.6457 -0.0502
 6241SOL     OW30701   8.088   7.743  11.288 -0.7084  0.2227  0.6086
 6241SOL    HW130702   8.031   7.819  11.272 -2.5991 -0.9287  1.5905
 6241SOL    HW230703   8.074   7.686  11.213  1.2477  1.0669 -0.4839
 6242SOL     OW30704  13.171   4.081   0.041 -0.1341  0.3795 -0.0849
 6242SOL    HW130705  13.220   4.161   0.061 -0.8068  1.3609 -2.0880
 6242SOL    HW230706  13.213   4.045  -0.037  0.4255 -1.4991  1.0382
 6243SOL     OW30707   4.056   0.315   7.277  0.5759  0.6919 -0.1996
 6243SOL    HW130708   4.151   0.325   7.290  0.8477 -1.4174 -0.1947
 6243SOL    HW230709   4.029   0.253   7.344 -0.3386 -0.6739 -1.7743
 6244SOL     OW30710   0.650  13.253   7.001 -0.0275  0.1879  0.3966
 6244SOL    HW130711   0.723  13.295   6.957 -0.0798  0.1579  0.2799
 6244SOL    HW230712   0.635  13.173   6.950 -0.6747  0.6018 -0.0851
 6245SOL     OW30713   5.688   1.998   9.392 -0.0334  0.1064 -1.0713
 6245SOL    HW130714   5.774   1.962   9.371  0.0056  0.2593 -1.1829
 6245SOL    HW230715   5.660   2.042   9.311 -0.7494 -0.9735 -1.4313
 6246SOL     OW30716   2.660   2.883   2.747  0.0633 -0.7046 -0.2828
 6246SOL    HW130717   2.565   2.888   2.734  0.1327 -0.0761 -0.5735
 6246SOL    HW230718   2.674   2.795   2.782 -0.7335 -0.4696  0.7032
 6247SOL     OW30719   3.297  11.450   8.704  0.1565 -0.2681 -0.6634
 6247SOL    HW130720   3.274  11.492   8.787 -0.0752 -1.0598 -0.3198
 6247SOL    HW230721   3.319  11.360   8.728 -0.9866 -0.8178 -1.6031
 6248SOL     OW30722   1.410   1.424   1.927  0.6957 -0.3903  0.2850
 6248SOL    HW130723   1.345   1.460   1.867  0.2492 -1.1364  0.3019
 6248SOL    HW230724   1.464   1.499   1.953  0.4368  0.0664 -0.4725
 6249SOL     OW30725   7.269   8.396   0.157  0.1708  0.6506  0.0836
 6249SOL    HW130726   7.232   8.328   0.213  0.2057  0.2004 -0.4263
 6249SOL    HW230727   7.358   8.408   0.190  0.2227  0.3190  0.0743
 6250SOL     OW30728   0.251   7.165   1.257  0.0095 -0.1608  0.3629
 6250SOL    HW130729   0.253   7.115   1.175  0.8017  0.0158  0.2604
 6250SOL    HW230730   0.220   7.103   1.322  0.9105 -0.7784  0.2210
 6251SOL     OW30731  11.973   5.597   0.192 -0.5909  0.7828 -0.0069
 6251SOL    HW130732  11.983   5.531   0.124 -0.4509  1.3996 -0.5921
 6251SOL    HW230733  11.879   5.598   0.211 -0.3076 -1.5576  2.0284
 6252SOL     OW30734   6.938   9.595   8.113 -0.7830 -0.4491  0.1746
 6252SOL    HW130735   7.013   9.554   8.068 -0.5683 -3.7464  3.1171
 6252SOL    HW230736   6.949   9.688   8.096  3.3663 -0.8521 -0.5021
 6253SOL     OW30737   9.650  12.264  10.464 -0.2045 -0.1983 -0.2786
 6253SOL    HW130738   9.671  12.191  10.406  0.3367 -1.4768  1.4235
 6253SOL    HW230739   9.627  12.222  10.547 -0.4905  1.5642  0.5831
 6254SOL     OW30740  13.054   6.647   2.647  0.5071  0.7521  0.0160
 6254SOL    HW130741  13.054   6.654   2.551  1.3560  0.1911 -0.0422
 6254SOL    HW230742  13.147   6.649   2.671  0.5223 -1.8955  0.5603
 6255SOL     OW30743   5.514   8.562   7.789  0.2568 -0.2993 -0.2364
 6255SOL    HW130744   5.581   8.618   7.827  0.3351 -1.4675  1.4616
 6255SOL    HW230745   5.539   8.552   7.697  1.2220  0.9735 -0.1286
 6256SOL     OW30746   6.982   4.087   4.807 -0.1641 -0.3677  0.0462
 6256SOL    HW130747   6.904   4.110   4.756 -0.4809  1.3401  1.2083
 6256SOL    HW230748   6.997   4.163   4.863  1.3012 -1.3907  1.1164
 6257SOL     OW30749   0.327   8.151   8.031  0.8170  0.7762 -0.1165
 6257SOL    HW130750   0.403   8.189   8.075  0.5849  0.6473  0.4093
 6257SOL    HW230751   0.252   8.192   8.074  0.5839  0.9310 -0.6568
 6258SOL     OW30752  13.171   3.110   8.631 -0.5997 -0.2474 -0.2818
 6258SOL    HW130753  13.155   3.204   8.628  2.8299  0.4641 -0.2773
 6258SOL    HW230754  13.196   3.092   8.721  1.5571 -0.5260 -0.8723
 6259SOL     OW30755  10.736   6.103   7.514  0.1535  0.0815 -0.2099
 6259SOL    HW130756  10.789   6.069   7.586 -0.5452  3.7274  2.3142
 6259SOL    HW230757  10.648   6.073   7.532  0.1313  0.2271 -0.0759
 6260SOL     OW30758   0.814   4.433  10.034 -0.3370 -0.1146 -0.1360
 6260SOL    HW130759   0.871   4.382   9.976 -0.9533 -1.2658  0.2431
 6260SOL    HW230760   0.779   4.502   9.978  0.4112 -0.1746 -0.6970
 6261SOL     OW30761  10.869   7.816   7.091  0.4167 -0.3546  0.4192
 6261SOL    HW130762  10.942   7.877   7.104 -2.4277  2.9406  2.8384
 6261SOL    HW230763  10.865   7.767   7.174  0.5268 -1.3844 -0.1651
 6262SOL     OW30764   4.296   2.438   3.351 -0.0457  0.0064 -0.1600
 6262SOL    HW130765   4.263   2.523   3.381 -0.7696  0.6410 -2.5512
 6262SOL    HW230766   4.218   2.384   3.342  0.3040 -0.5927  0.3734
 6263SOL     OW30767  11.492   9.027   0.687 -0.2168  0.3492 -0.4852
 6263SOL    HW130768  11.506   8.934   0.708  0.9789  0.9347  1.6601
 6263SOL    HW230769  11.415   9.028   0.631  0.5701 -2.0478 -1.7411
 6264SOL     OW30770  10.351  11.335   0.963  0.0449  0.0584  0.0909
 6264SOL    HW130771  10.357  11.308   1.055 -3.3174  0.3172  0.5373
 6264SOL    HW230772  10.404  11.414   0.958  2.9166 -1.6653  0.9226
 6265SOL     OW30773   8.352  10.447  13.886 -0.2990  0.0188 -0.2696
 6265SOL    HW130774   8.273  10.392  13.887 -0.2367 -0.0662  0.1379
 6265SOL    HW230775   8.367  10.466  13.793  0.2869 -1.5267 -0.5110
 6266SOL     OW30776  12.938   6.552   1.445 -0.4578  0.4478 -0.1843
 6266SOL    HW130777  12.993   6.563   1.522 -2.2031  1.8507  0.9637
 6266SOL    HW230778  12.946   6.635   1.398 -2.1513  1.0296  0.4594
 6267SOL     OW30779   4.341   4.868   1.243 -0.0443  0.4410  0.2437
 6267SOL    HW130780   4.325   4.793   1.300  0.7289 -0.1891 -0.3422
 6267SOL    HW230781   4.377   4.830   1.162 -0.5712  1.3576 -0.4449
 6268SOL     OW30782   1.134  10.208   3.716  0.0015 -0.2617  0.4859
 6268SOL    HW130783   1.107  10.209   3.624 -0.5228  0.3175  0.6391
 6268SOL    HW230784   1.124  10.117   3.743  0.5117 -0.5118 -0.1270
 6269SOL     OW30785   4.144   1.786   1.284  0.0792 -0.4841  0.0230
 6269SOL    HW130786   4.097   1.866   1.304 -0.0927 -0.3398 -0.8982
 6269SOL    HW230787   4.210   1.778   1.353 -0.6224 -0.1424  0.7340
 6270SOL     OW30788   9.205   6.214   1.427  0.2711  0.2614  0.0258
 6270SOL    HW130789   9.254   6.141   1.465 -0.6510 -0.3466  0.0637
 6270SOL    HW230790   9.135   6.173   1.377  0.8573  1.0722 -1.5296
 6271SOL     OW30791   4.125  11.889  13.226  0.2611 -0.0534 -0.8396
 6271SOL    HW130792   4.081  11.809  13.254  1.9851 -0.9146 -0.4844
 6271SOL    HW230793   4.203  11.895  13.281  1.7610  0.2231 -2.8596
 6272SOL     OW30794  13.614   0.113   0.435  0.1773  0.1847 -0.4407
 6272SOL    HW130795  13.646   0.070   0.356 -0.1308 -1.9774  0.5497
 6272SOL    HW230796  13.532   0.155   0.408  0.6418  0.4589 -1.5023
 6273SOL     OW30797   4.666   7.130  10.340  0.4779  0.6720 -0.0240
 6273SOL    HW130798   4.681   7.206  10.397 -0.0240  1.6896 -1.1802
 6273SOL    HW230799   4.703   7.157  10.256 -2.3607  0.8774 -1.3146
 6274SOL     OW30800   4.301  13.070  10.995 -0.2874 -0.3264 -0.5904
 6274SOL    HW130801   4.212  13.098  11.015  1.0680  2.3681  2.9497
 6274SOL    HW230802   4.316  13.099  10.905 -2.6660  0.0023 -0.9349
 6275SOL     OW30803   2.029   0.471   4.430  0.2663  0.1616 -0.4421
 6275SOL    HW130804   2.074   0.507   4.354 -1.0171  1.5919 -0.5522
 6275SOL    HW230805   1.990   0.390   4.398  0.3582  0.3714 -1.0979
 6276SOL     OW30806   0.102  10.408  11.588 -0.0258  0.1912  0.2625
 6276SOL    HW130807   0.148  10.440  11.665  0.4758  0.7286 -0.2542
 6276SOL    HW230808   0.058  10.485  11.552 -0.3971 -0.0903  0.1049
 6277SOL     OW30809   5.250  12.927   4.634  0.0165 -0.0585  0.1962
 6277SOL    HW130810   5.246  12.969   4.549 -0.4526  0.1588  0.3188
 6277SOL    HW230811   5.328  12.963   4.676  0.5717 -0.5954 -0.3542
 6278SOL     OW30812   7.824  11.038   5.412 -0.2097 -0.5586 -0.0228
 6278SOL    HW130813   7.895  11.093   5.380 -1.0355  0.1867 -0.6251
 6278SOL    HW230814   7.744  11.089   5.397 -0.9957 -1.8562 -0.4645
 6279SOL     OW30815   5.035   2.159  10.337 -0.1109  0.2898 -0.1195
 6279SOL    HW130816   5.096   2.233  10.343  0.9905 -0.4042 -1.8935
 6279SOL    HW230817   5.024   2.145  10.243 -0.3722 -1.7273  0.1664
 6280SOL     OW30818   9.169  11.945  10.449 -0.3319 -1.3388  0.2946
 6280SOL    HW130819   9.101  11.995  10.404  2.3105  0.7239 -1.7490
 6280SOL    HW230820   9.236  11.930  10.382  1.9105 -1.9771  2.5100
 6281SOL     OW30821   8.246   4.984   6.954  0.3083 -0.3721  0.0933
 6281SOL    HW130822   8.288   4.940   6.879 -0.2522 -1.0070  0.1427
 6281SOL    HW230823   8.319   5.013   7.008  0.7019 -0.7790 -0.2073
 6282SOL     OW30824   5.475   6.662   7.623  0.7362  0.6225 -0.3363
 6282SOL    HW130825   5.514   6.660   7.711  0.3506  1.9397 -0.1129
 6282SOL    HW230826   5.380   6.664   7.640  0.6478  3.8900 -0.6271
 6283SOL     OW30827  12.901   7.165  13.144  0.0171 -0.1991  0.4815
 6283SOL    HW130828  12.922   7.239  13.088  1.9587 -1.1300 -0.1168
 6283SOL    HW230829  12.975   7.105  13.133 -0.6660 -1.4511  2.2748
 6284SOL     OW30830   8.437   8.022   2.208 -0.3175  0.3115 -0.2004
 6284SOL    HW130831   8.370   7.958   2.233 -0.6840  0.1235 -1.5865
 6284SOL    HW230832   8.515   7.970   2.192 -0.3955  0.3003 -0.5460
 6285SOL     OW30833  12.985  11.450   6.308  0.0886  0.1179  0.1957
 6285SOL    HW130834  13.076  11.442   6.281  0.3545  1.6031  0.5708
 6285SOL    HW230835  12.980  11.401   6.390  0.7610  0.7190  0.6053
 6286SOL     OW30836   0.050   7.394  10.485 -0.2619 -0.3546 -0.4316
 6286SOL    HW130837   0.072   7.481  10.452  0.9483 -0.5813 -0.2554
 6286SOL    HW230838   0.130   7.363  10.526 -1.2170 -0.7892  1.2038
 6287SOL     OW30839   1.322   0.588   4.707  0.3402 -0.0939 -0.0863
 6287SOL    HW130840   1.302   0.665   4.760  0.0858  1.1916 -1.9627
 6287SOL    HW230841   1.382   0.537   4.761  0.4597  1.3843  1.2497
 6288SOL     OW30842   5.288   2.382  13.680  0.6936 -0.2846  0.1409
 6288SOL    HW130843   5.353   2.406  13.745  1.8068 -1.0098 -0.6772
 6288SOL    HW230844   5.307   2.291  13.658 -0.9171 -0.6730  0.2504
 6289SOL     OW30845   3.098   3.580  13.850 -0.6519 -0.5676  0.3032
 6289SOL    HW130846   3.092   3.668  13.813  1.6243 -0.9121 -1.0866
 6289SOL    HW230847   3.016   3.569  13.899 -1.0757  2.2224  0.3919
 6290SOL     OW30848  10.351   7.320   2.549 -0.1609 -0.1718  0.0816
 6290SOL    HW130849  10.374   7.259   2.479 -0.5820 -0.3073  0.0614
 6290SOL    HW230850  10.406   7.397   2.532 -0.9517  0.1900 -0.9659
 6291SOL     OW30851   2.560  11.818   1.178 -0.4655 -0.7785 -0.4627
 6291SOL    HW130852   2.551  11.754   1.107 -1.0133 -0.3293 -0.8059
 6291SOL    HW230853   2.540  11.769   1.258  0.6663 -1.4259 -0.5476
 6292SOL     OW30854  10.695  12.798   4.432  0.0185 -0.0331 -0.7993
 6292SOL    HW130855  10.717  12.705   4.428  0.6196 -0.1257  2.2585
 6292SOL    HW230856  10.764  12.841   4.382  1.5230 -1.0568  0.3144
 6293SOL     OW30857   8.316  12.039  12.990 -0.0769  0.0133 -0.1577
 6293SOL    HW130858   8.255  11.968  12.971 -0.2760  0.6089 -1.9133
 6293SOL    HW230859   8.389  12.026  12.930  0.1745  0.9380 -0.0727
 6294SOL     OW30860   8.367   1.294   2.445 -0.1887  0.2880  0.0393
 6294SOL    HW130861   8.317   1.366   2.407 -1.5307 -1.1675 -1.0799
 6294SOL    HW230862   8.443   1.285   2.388  0.7477  1.6797  1.0034
 6295SOL     OW30863  13.889  12.352   5.159 -0.1575  0.0800  0.3983
 6295SOL    HW130864  13.798  12.322   5.161  0.0520 -0.5202  1.4420
 6295SOL    HW230865  13.906  12.385   5.247  0.5426  0.4793  0.1216
 6296SOL     OW30866  12.493  11.352   8.427  0.3195  0.3927 -0.0025
 6296SOL    HW130867  12.580  11.348   8.388 -0.2159  0.0945 -1.2073
 6296SOL    HW230868  12.433  11.346   8.353 -0.7311  1.6769  0.7064
 6297SOL     OW30869   9.316   8.783   8.258 -0.0554  0.3201  0.4705
 6297SOL    HW130870   9.335   8.712   8.320  0.1961 -0.6181 -0.6372
 6297SOL    HW230871   9.297   8.738   8.176  0.7100  1.5722 -0.4183
 6298SOL     OW30872  12.144   3.362  13.297 -0.5627 -0.4940 -0.3987
 6298SOL    HW130873  12.142   3.392  13.206  0.7127 -1.5819 -0.8120
 6298SOL    HW230874  12.181   3.274  13.293 -0.8069 -0.7045  1.1495
 6299SOL     OW30875   1.767  13.709   0.301 -0.1748  0.4137 -0.2951
 6299SOL    HW130876   1.802  13.631   0.344 -3.8034 -1.2134  0.0477
 6299SOL    HW230877   1.759  13.773   0.372  3.6804  1.6499 -0.7379
 6300SOL     OW30878  11.815   3.716   4.865 -0.4442  0.5785 -0.0947
 6300SOL    HW130879  11.777   3.629   4.881 -0.5461  0.8669  1.3609
 6300SOL    HW230880  11.870   3.704   4.788 -1.0304 -0.6042 -0.3554
 6301SOL     OW30881   1.474   7.396   9.612 -0.0876  0.0529  1.0521
 6301SOL    HW130882   1.557   7.424   9.574 -0.5413 -1.5765 -1.3997
 6301SOL    HW230883   1.480   7.300   9.615 -1.1960 -0.0053  2.5534
 6302SOL     OW30884   3.182   8.547  10.999 -0.4964  0.2948 -0.0303
 6302SOL    HW130885   3.221   8.470  10.957 -1.6749  0.3782 -1.3631
 6302SOL    HW230886   3.221   8.622  10.954 -1.8722  0.3818 -1.1420
 6303SOL     OW30887  10.948  10.045  12.396  0.2393 -0.1974  0.3420
 6303SOL    HW130888  10.892  10.028  12.320 -0.7290  2.5682  0.3166
 6303SOL    HW230889  11.029  10.079  12.358 -1.0490  3.3648  0.4145
 6304SOL     OW30890   8.640  13.416   4.721 -0.2021 -0.4193 -0.0227
 6304SOL    HW130891   8.692  13.467   4.783  0.6591 -0.5384 -0.6460
 6304SOL    HW230892   8.565  13.472   4.702 -0.3968 -0.3077  0.9891
 6305SOL     OW30893   0.044  10.682   5.599 -0.1160 -0.0153 -0.5124
 6305SOL    HW130894   0.067  10.772   5.620 -1.3380  0.1658  0.1288
 6305SOL    HW230895   0.117  10.630   5.632  1.1985  0.8074 -2.0006
 6306SOL     OW30896   0.181   3.361   3.442  0.2812 -0.8353  0.4783
 6306SOL    HW130897   0.241   3.370   3.368  1.4352 -2.5121  1.1345
 6306SOL    HW230898   0.236   3.372   3.519 -0.6125 -0.6078  1.1005
 6307SOL     OW30899   2.826   8.658   4.433 -0.1221 -0.4458 -0.0004
 6307SOL    HW130900   2.808   8.750   4.412  1.7904 -0.2672 -0.9805
 6307SOL    HW230901   2.885   8.662   4.508  0.9821 -0.8017 -0.8225
 6308SOL     OW30902   5.857   2.021   0.769 -0.1522  0.1287 -0.3492
 6308SOL    HW130903   5.798   2.078   0.819 -2.1523  1.2305 -3.6970
 6308SOL    HW230904   5.902   2.080   0.709  1.1178 -1.3206 -0.8850
 6309SOL     OW30905  11.056   1.178  11.148 -0.9336 -0.3321 -0.3554
 6309SOL    HW130906  11.132   1.208  11.099 -0.7612 -1.4800 -0.8306
 6309SOL    HW230907  11.044   1.244  11.217  0.9605 -0.5200  0.2157
 6310SOL     OW30908   1.489   1.873   5.689  0.0543  0.1672 -0.0595
 6310SOL    HW130909   1.393   1.875   5.692 -0.0070  1.1128 -1.5127
 6310SOL    HW230910   1.514   1.965   5.694  0.8379  0.0007 -0.8054
 6311SOL     OW30911   1.785   8.449  13.466 -0.6826  0.5836  0.2626
 6311SOL    HW130912   1.790   8.542  13.443  0.1351  0.8856  1.6042
 6311SOL    HW230913   1.821   8.404  13.389  2.4687  1.5930  1.0244
 6312SOL     OW30914  13.840  12.024  11.902 -0.2361  0.2815  0.1616
 6312SOL    HW130915  13.774  11.970  11.944 -1.5876  0.8153 -1.1476
 6312SOL    HW230916  13.921  12.006  11.949 -1.0473 -1.3808  0.9914
 6313SOL     OW30917   8.914   3.692   5.896 -0.0241  0.0195 -0.1747
 6313SOL    HW130918   8.991   3.744   5.919  0.1187  0.5772 -1.7633
 6313SOL    HW230919   8.869   3.744   5.829 -0.3241 -1.5160 -1.2206
 6314SOL     OW30920  12.374   9.748  13.037  0.0950 -0.3521  0.3493
 6314SOL    HW130921  12.343   9.657  13.042 -2.7873  0.5402  1.2790
 6314SOL    HW230922  12.342   9.779  12.952 -1.0962  0.4125  1.0463
 6315SOL     OW30923   2.944   5.424   4.121  0.2656 -0.3017 -0.1692
 6315SOL    HW130924   2.987   5.492   4.174  2.8111  0.3870 -2.8734
 6315SOL    HW230925   2.852   5.452   4.117  0.0246 -0.1121  3.2448
 6316SOL     OW30926   4.522  13.325  11.958  0.1691 -0.2471 -0.3965
 6316SOL    HW130927   4.604  13.311  11.910  0.4601 -1.7798  0.4994
 6316SOL    HW230928   4.496  13.414  11.934  1.4615 -0.1625 -1.6358
 6317SOL     OW30929   6.937   4.140  12.633 -0.9210 -0.6918 -0.6142
 6317SOL    HW130930   6.992   4.113  12.560 -0.5385 -0.0129 -0.5782
 6317SOL    HW230931   6.886   4.061  12.655 -3.0498 -0.2234 -3.3766
 6318SOL     OW30932   5.256   7.337   5.668 -0.3050  0.1315  0.1773
 6318SOL    HW130933   5.196   7.328   5.594 -0.3024 -3.4269  0.4694
 6318SOL    HW230934   5.253   7.252   5.712  2.1330  1.0812  2.4024
 6319SOL     OW30935   3.140   9.233  10.686 -0.2042  0.0558 -0.5458
 6319SOL    HW130936   3.206   9.263  10.748 -0.6753  2.9929 -1.3206
 6319SOL    HW230937   3.178   9.248  10.600 -1.3116  0.4895 -0.9854
 6320SOL     OW30938  13.483   0.543   7.096  0.4769  0.1451 -0.2284
 6320SOL    HW130939  13.410   0.603   7.112 -0.5381 -1.1198  0.0692
 6320SOL    HW230940  13.492   0.494   7.178  0.9377 -0.4543 -0.6293
 6321SOL     OW30941   1.599   9.985   3.012  0.0969  0.5085  0.1044
 6321SOL    HW130942   1.565   9.901   2.980  2.1514  0.0790 -1.2009
 6321SOL    HW230943   1.528  10.047   2.998 -1.0263 -0.7682 -0.0821
 6322SOL     OW30944  12.797   5.139   6.851 -0.0413 -0.3684 -0.1602
 6322SOL    HW130945  12.823   5.110   6.764  0.2217  0.7921 -0.4898
 6322SOL    HW230946  12.730   5.077   6.878  0.3699 -1.1555 -0.8939
 6323SOL     OW30947  12.524   0.778   0.043  0.1961 -0.3261 -0.6582
 6323SOL    HW130948  12.550   0.703   0.097  0.8842 -0.0592 -0.6089
 6323SOL    HW230949  12.601   0.796  -0.011  0.3975  0.9606  0.0235
 6324SOL     OW30950   8.370   7.111   8.814  0.1206 -0.2025  0.3557
 6324SOL    HW130951   8.286   7.134   8.775  0.9956  0.1488 -1.3842
 6324SOL    HW230952   8.359   7.020   8.843 -0.2704 -0.8377 -1.6330
 6325SOL     OW30953   6.711   7.567   7.287  0.0289 -0.3112  0.1616
 6325SOL    HW130954   6.673   7.490   7.328  3.1812 -2.6589 -0.9358
 6325SOL    HW230955   6.662   7.579   7.206 -0.1507 -1.5083  0.0882
 6326SOL     OW30956  12.877  10.659  11.036  0.2018 -0.9565 -0.6128
 6326SOL    HW130957  12.854  10.724  10.970 -0.3844 -0.4124  0.1139
 6326SOL    HW230958  12.973  10.664  11.041  0.1106  0.7143  0.2663
 6327SOL     OW30959  11.807  12.768   2.475  0.0553  0.0073  0.0044
 6327SOL    HW130960  11.792  12.858   2.447 -0.4985 -0.3103 -0.7617
 6327SOL    HW230961  11.874  12.735   2.415 -0.3722 -0.3530 -0.2839
 6328SOL     OW30962  11.676   2.932   2.093 -0.3019 -0.6884  0.1666
 6328SOL    HW130963  11.766   2.925   2.061 -0.6740 -0.2073 -1.0375
 6328SOL    HW230964  11.680   2.999   2.162  0.0836  0.1053 -0.6101
 6329SOL     OW30965  13.546   1.881   1.502  0.1496 -0.4039 -0.1785
 6329SOL    HW130966  13.559   1.856   1.411  1.7042  0.6192 -0.2761
 6329SOL    HW230967  13.633   1.907   1.533 -0.6014  0.7092  1.1481
 6330SOL     OW30968  11.873   8.306   5.381 -0.4245  0.0795 -0.0002
 6330SOL    HW130969  11.940   8.301   5.449 -0.6122  1.2526  0.2935
 6330SOL    HW230970  11.874   8.219   5.340  2.7140  0.6390 -1.3829
 6331SOL     OW30971   9.460   7.869   9.501 -0.2856  0.0870 -0.1979
 6331SOL    HW130972   9.546   7.905   9.481  0.1760 -1.5123 -1.1879
 6331SOL    HW230973   9.416   7.863   9.416 -1.3813  0.8469  0.2893
 6332SOL     OW30974   0.069  11.074   0.969  0.3773  0.3935  0.2146
 6332SOL    HW130975   0.058  11.016   0.894  0.7323  0.2004  0.3098
 6332SOL    HW230976  -0.014  11.068   1.016  0.7055 -0.6954  0.6857
 6333SOL     OW30977   8.571   4.635  11.068 -0.0824 -0.3145  0.3863
 6333SOL    HW130978   8.516   4.623  11.146  0.1635 -0.9182  0.4685
 6333SOL    HW230979   8.647   4.580  11.084  0.5029  0.4222  0.2176
 6334SOL     OW30980   8.783  11.790   5.355  0.1103 -0.0064  0.5207
 6334SOL    HW130981   8.809  11.840   5.278 -2.3055 -0.8195 -0.9257
 6334SOL    HW230982   8.847  11.814   5.422  3.0585 -0.1619 -2.0267
 6335SOL     OW30983   0.444   8.927   9.912 -0.2381  0.3211  0.0571
 6335SOL    HW130984   0.455   8.993   9.843  0.1103  2.4605  2.0438
 6335SOL    HW230985   0.368   8.956   9.962  0.2032 -0.5241  1.2704
 6336SOL     OW30986   0.119   5.624   3.103 -0.1430 -0.6814 -0.1938
 6336SOL    HW130987   0.212   5.649   3.107 -0.8137  2.0943  0.1712
 6336SOL    HW230988   0.118   5.548   3.045  2.2851 -0.3235 -0.8468
 6337SOL     OW30989   6.415   1.438  14.021 -0.6938 -0.9780 -0.2143
 6337SOL    HW130990   6.434   1.510  14.082  2.2282 -2.3470  0.6520
 6337SOL    HW230991   6.487   1.440  13.959 -1.3865 -2.2612 -1.1000
 6338SOL     OW30992   0.315   6.101  13.990 -0.3876  0.2220 -0.2321
 6338SOL    HW130993   0.329   6.013  13.955  1.9621  0.5925 -0.3499
 6338SOL    HW230994   0.264   6.146  13.922 -1.9579 -1.1162  0.0045
 6339SOL     OW30995  12.328   2.537  11.008 -0.6426 -0.3298 -0.0744
 6339SOL    HW130996  12.380   2.521  11.087  0.6956  0.4257 -0.7605
 6339SOL    HW230997  12.334   2.456  10.957  0.0041 -0.2027 -0.2108
 6340SOL     OW30998   9.390  13.708   1.081  0.6282 -0.1076  0.5301
 6340SOL    HW130999   9.301  13.675   1.065  1.2019 -0.6930 -1.8766
 6340SOL    HW231000   9.377  13.798   1.112 -0.8322  0.2441 -0.9193
 6341SOL     OW31001  12.871   1.964   6.089 -0.2983 -0.1480 -0.1817
 6341SOL    HW131002  12.782   1.936   6.107 -0.4165 -0.0748 -0.6276
 6341SOL    HW231003  12.902   2.004   6.170 -1.0576  0.8266 -0.3485
 6342SOL     OW31004   5.222  13.578   9.089 -0.0072 -0.6841 -0.5439
 6342SOL    HW131005   5.309  13.587   9.049 -0.2524 -2.9758 -1.7361
 6342SOL    HW231006   5.237  13.525   9.167 -0.0169  1.1423  0.7860
 6343SOL     OW31007  12.919   5.929   8.830  0.1776  0.5326 -0.4574
 6343SOL    HW131008  12.900   5.961   8.918 -2.0003 -1.0072 -0.2799
 6343SOL    HW231009  12.936   6.008   8.779  1.9705  1.4387  1.3990
 6344SOL     OW31010  13.837  13.053  11.709  0.8986 -0.1015  0.2283
 6344SOL    HW131011  13.783  13.007  11.644 -0.2898  2.0587 -0.4241
 6344SOL    HW231012  13.774  13.104  11.759  1.8021 -1.6540  3.1374
 6345SOL     OW31013  10.880   2.017   7.987  0.0128  0.7408 -0.0792
 6345SOL    HW131014  10.825   2.048   7.915 -1.0864  0.7484  0.7415
 6345SOL    HW231015  10.845   2.059   8.065  1.2233  0.7794  0.4776
 6346SOL     OW31016  12.028  12.574   9.890 -0.9564  0.4187 -0.6111
 6346SOL    HW131017  11.990  12.521   9.960  1.5303  0.2574  0.7264
 6346SOL    HW231018  12.044  12.512   9.819  0.5923 -0.4224  0.4014
 6347SOL     OW31019  11.974   7.655  10.703  0.7322  0.5822 -0.1772
 6347SOL    HW131020  11.993   7.641  10.610  0.3698  0.6369 -0.2632
 6347SOL    HW231021  12.003   7.744  10.720  0.5916  0.6519 -0.2969
 6348SOL     OW31022   5.410  11.772   5.226 -0.0413  0.0064 -0.5257
 6348SOL    HW131023   5.412  11.823   5.145 -1.1090  1.0523  0.0671
 6348SOL    HW231024   5.369  11.689   5.200  1.7591 -0.6395 -1.5119
 6349SOL     OW31025   2.965  13.480   9.980  0.6771  0.3256 -0.0935
 6349SOL    HW131026   2.948  13.543  10.050  3.5523  1.6909 -0.4775
 6349SOL    HW231027   2.968  13.395  10.024  1.4618  1.0414  1.2861
 6350SOL     OW31028   5.572  10.808   7.714  0.1262  0.5469 -0.0130
 6350SOL    HW131029   5.535  10.760   7.640  0.2583 -0.3204  0.4670
 6350SOL    HW231030   5.595  10.893   7.678  2.2041 -0.5580 -1.5593
 6351SOL     OW31031   6.824   4.775   1.927 -0.8167 -0.5527  0.1946
 6351SOL    HW131032   6.877   4.775   2.007  1.1303 -1.0874 -1.0266
 6351SOL    HW231033   6.778   4.859   1.929  2.9391  1.7455 -0.4094
 6352SOL     OW31034   0.509   2.145   6.229 -0.0291  0.2932 -0.1455
 6352SOL    HW131035   0.480   2.189   6.310  0.0501 -1.1987  0.7258
 6352SOL    HW231036   0.597   2.115   6.250  0.1508  0.2600 -0.9521
 6353SOL     OW31037   6.091  11.653   7.880 -0.1279  0.2617 -0.0071
 6353SOL    HW131038   6.013  11.609   7.913  0.7844 -0.5893  1.0601
 6353SOL    HW231039   6.083  11.648   7.785 -0.8207 -0.8109  0.0991
 6354SOL     OW31040   3.777  10.200  10.360 -0.0055 -0.1338  0.6420
 6354SOL    HW131041   3.863  10.191  10.321  0.8472 -1.0051  2.5546
 6354SOL    HW231042   3.753  10.291  10.348  0.3026 -0.3000 -1.5819
 6355SOL     OW31043   5.533   7.014   8.806  0.0932  0.1526  0.4275
 6355SOL    HW131044   5.608   6.956   8.807  0.1119  0.1909  1.6311
 6355SOL    HW231045   5.542   7.068   8.884 -0.6859  0.7965  0.0926
 6356SOL     OW31046   7.353  12.089   3.394  0.5102 -0.1663 -0.1597
 6356SOL    HW131047   7.363  12.116   3.485  1.8898  0.1547 -0.3794
 6356SOL    HW231048   7.370  11.995   3.395  0.5205 -0.1642 -0.0826
 6357SOL     OW31049   6.344   9.794   0.234  0.0589 -0.2959  0.1789
 6357SOL    HW131050   6.278   9.729   0.256  1.6830 -1.8357  0.6665
 6357SOL    HW231051   6.427   9.756   0.263  0.9542  2.5745  1.7890
 6358SOL     OW31052   6.023  13.833  13.755 -0.0132 -0.0299  0.5688
 6358SOL    HW131053   5.989  13.897  13.817 -1.7550  0.4558 -0.8127
 6358SOL    HW231054   6.106  13.804  13.794  0.4314  2.4329  1.6417
 6359SOL     OW31055  11.084   0.939   4.427 -0.2819 -0.3194  0.1052
 6359SOL    HW131056  11.005   0.890   4.451  0.9288 -2.2555  0.3154
 6359SOL    HW231057  11.073   0.959   4.334 -1.7668  0.9575  0.5109
 6360SOL     OW31058   5.508   0.852   1.155  0.5177  0.2012 -0.1875
 6360SOL    HW131059   5.548   0.931   1.193  0.5782  0.6501 -1.1545
 6360SOL    HW231060   5.554   0.840   1.072 -0.5020 -0.0003 -0.7384
 6361SOL     OW31061   7.813   8.446   7.382 -0.1211 -0.2910 -0.4138
 6361SOL    HW131062   7.828   8.449   7.476 -1.1471  1.4696 -0.2509
 6361SOL    HW231063   7.776   8.359   7.366  1.6026 -1.2429  0.5032
 6362SOL     OW31064  13.053  10.279   2.056 -0.2058  0.3455  0.3565
 6362SOL    HW131065  13.147  10.261   2.059 -0.4042 -0.9455  3.3912
 6362SOL    HW231066  13.030  10.275   1.964  2.8780  1.8471 -0.6075
 6363SOL     OW31067   5.193  13.178  12.300 -0.3634 -0.3180  0.1274
 6363SOL    HW131068   5.130  13.188  12.372 -1.3266  0.2694 -0.7713
 6363SOL    HW231069   5.215  13.268  12.276 -1.1492 -0.4734 -1.2469
 6364SOL     OW31070   6.896  12.963   9.077 -0.1706  0.3662  0.1321
 6364SOL    HW131071   6.950  13.035   9.111 -1.5070  2.7055 -2.3139
 6364SOL    HW231072   6.808  13.000   9.071 -1.0771 -1.7730 -0.5196
 6365SOL     OW31073   6.043   4.817   3.593  0.6343  0.0728  0.1969
 6365SOL    HW131074   6.038   4.803   3.499  0.1518 -0.7640  0.3391
 6365SOL    HW231075   6.019   4.909   3.604 -1.7451 -0.4096 -0.3300
 6366SOL     OW31076   9.609   0.799   3.982 -0.7233  0.0025 -0.8524
 6366SOL    HW131077   9.611   0.867   4.049  0.4109  2.1898 -2.9407
 6366SOL    HW231078   9.649   0.722   4.024  1.7575  1.8641  0.4227
 6367SOL     OW31079   1.847   1.447   9.770 -0.0747 -0.5927 -0.2450
 6367SOL    HW131080   1.891   1.510   9.713 -0.5471 -0.2536 -0.2464
 6367SOL    HW231081   1.768   1.423   9.723 -0.2124 -0.7041  0.0399
 6368SOL     OW31082   3.661   3.584  10.546 -0.2415 -0.3825 -0.3016
 6368SOL    HW131083   3.581   3.636  10.548  0.1923  0.2905 -0.0653
 6368SOL    HW231084   3.659   3.540  10.461 -0.0960  0.8856 -0.9926
 6369SOL     OW31085  12.439   3.764  11.531 -0.1919  0.2765  0.2528
 6369SOL    HW131086  12.466   3.823  11.601  0.1266  0.2350  0.1662
 6369SOL    HW231087  12.412   3.684  11.576 -0.4298  0.4170  0.3575
 6370SOL     OW31088   7.147   5.864   5.927 -0.3254  0.4820  0.0074
 6370SOL    HW131089   7.211   5.837   5.993  0.0893 -0.3300 -0.7198
 6370SOL    HW231090   7.079   5.797   5.931 -0.8102  0.9760  0.2970
 6371SOL     OW31091  11.884   5.017  11.378  0.3415  0.0126  0.1284
 6371SOL    HW131092  11.976   5.016  11.401  0.4259  0.0804 -0.2048
 6371SOL    HW231093  11.847   5.090  11.427  0.5759  0.3287 -0.1676
 6372SOL     OW31094  11.460   7.727  13.223  0.2947  0.1611 -0.1438
 6372SOL    HW131095  11.367   7.719  13.204  0.1487 -0.6861  0.8358
 6372SOL    HW231096  11.492   7.637  13.225  0.9435  0.3965  0.4283
 6373SOL     OW31097   2.296  13.198  10.953  0.3925 -0.5428 -0.1109
 6373SOL    HW131098   2.385  13.164  10.947  0.0816 -1.1680 -1.4358
 6373SOL    HW231099   2.260  13.156  11.030  0.8824 -1.1506 -0.2044
 6374SOL     OW31100   7.421  11.238   5.116 -0.0380 -0.2830 -0.2007
 6374SOL    HW131101   7.359  11.209   5.049  2.3168 -1.9702 -1.8176
 6374SOL    HW231102   7.448  11.157   5.160  0.3155  0.5335  1.1265
 6375SOL     OW31103   2.163  13.507   1.958 -0.0479 -0.1199  0.1324
 6375SOL    HW131104   2.180  13.477   1.868 -0.6406 -2.6089  0.7834
 6375SOL    HW231105   2.112  13.587   1.947  0.7720  0.2147 -1.7351
 6376SOL     OW31106   6.125   1.077  10.577  0.3527 -0.0844  0.0136
 6376SOL    HW131107   6.044   1.048  10.619 -0.6711 -1.1464 -2.4486
 6376SOL    HW231108   6.191   1.015  10.607 -0.5260 -1.3235 -0.5064
 6377SOL     OW31109   6.610   2.542   0.065  0.4912 -0.5169 -0.1835
 6377SOL    HW131110   6.517   2.564   0.070  0.6807  0.1473  0.7556
 6377SOL    HW231111   6.612   2.447   0.060 -0.2314 -0.5569  0.1410
 6378SOL     OW31112   1.634   1.239   9.094 -0.1253 -0.2192  0.0450
 6378SOL    HW131113   1.670   1.165   9.142 -1.7409 -1.1347 -0.0797
 6378SOL    HW231114   1.599   1.297   9.161 -0.0318 -0.2067  0.0834
 6379SOL     OW31115   7.921  13.952  13.587  0.4957 -0.6640  0.2626
 6379SOL    HW131116   7.893  14.014  13.519  1.1250 -0.2170  0.4054
 6379SOL    HW231117   7.984  13.895  13.544  1.1156 -0.1982  0.5322
 6380SOL     OW31118   7.759   4.324   4.814  0.2080 -0.1736 -0.0236
 6380SOL    HW131119   7.714   4.398   4.772 -1.3759 -0.7594  0.5421
 6380SOL    HW231120   7.849   4.331   4.784 -0.3215  0.8558 -1.5452
 6381SOL     OW31121   9.938   1.039   8.437  0.6198  0.3311 -0.4308
 6381SOL    HW131122   9.879   1.114   8.437 -0.4808 -0.4879  0.7190
 6381SOL    HW231123   9.948   1.017   8.345 -2.2840 -0.5177 -0.6350
 6382SOL     OW31124   4.678   0.931  11.003 -0.2990 -0.1706  0.2480
 6382SOL    HW131125   4.730   0.933  10.922 -0.5990 -1.3906  0.0045
 6382SOL    HW231126   4.725   0.870  11.059 -2.0798 -2.2887 -0.4368
 6383SOL     OW31127  13.230   1.388   1.619 -0.3601 -0.2948 -0.5762
 6383SOL    HW131128  13.196   1.434   1.542 -2.6827  0.5802  0.8561
 6383SOL    HW231129  13.192   1.301   1.614 -0.0246 -0.4304 -0.7372
 6384SOL     OW31130   9.931   0.701   9.747  0.0670  0.4143  0.7156
 6384SOL    HW131131   9.909   0.693   9.840 -1.7755  1.7840  0.4500
 6384SOL    HW231132   9.847   0.707   9.702  0.9119 -0.0479 -1.0548
 6385SOL     OW31133  10.132  11.172  10.236 -0.0158  0.0828 -0.0117
 6385SOL    HW131134  10.040  11.178  10.212 -0.2582  0.1137  0.8734
 6385SOL    HW231135  10.178  11.158  10.154 -0.7500  0.6629 -0.5387
 6386SOL     OW31136   7.477   0.102   8.253 -0.4617  0.4431  0.0969
 6386SOL    HW131137   7.464   0.017   8.295  0.7232  0.1095 -0.1690
 6386SOL    HW231138   7.560   0.135   8.290 -0.7016  1.2979 -0.0965
 6387SOL     OW31139   7.449   2.061  11.607 -0.3047 -0.1130 -0.0642
 6387SOL    HW131140   7.420   2.020  11.526 -1.1347 -0.0203  0.1745
 6387SOL    HW231141   7.382   2.037  11.672 -0.8354  1.6071  0.0743
 6388SOL     OW31142  13.558   0.891   4.465  0.5964 -0.0481  0.2030
 6388SOL    HW131143  13.652   0.903   4.450  0.4869  2.1078  0.9360
 6388SOL    HW231144  13.545   0.916   4.557 -0.4809 -1.9790  0.6476
 6389SOL     OW31145   4.280  10.642   9.426  0.0646 -0.1859  0.0627
 6389SOL    HW131146   4.308  10.682   9.344 -0.7484  2.3269  0.9166
 6389SOL    HW231147   4.186  10.656   9.429  0.0011 -0.7399  1.1686
 6390SOL     OW31148   3.739   2.187   9.138  0.0830  0.2226  0.0997
 6390SOL    HW131149   3.797   2.194   9.214 -0.0141 -0.4573  0.2410
 6390SOL    HW231150   3.777   2.245   9.073 -0.2643  1.4492  0.9352
 6391SOL     OW31151   8.194   2.232  11.840 -0.7671 -0.2200  0.2091
 6391SOL    HW131152   8.203   2.158  11.780  2.8868  0.6594 -0.5978
 6391SOL    HW231153   8.214   2.195  11.926 -1.8952 -0.6938  0.2811
 6392SOL     OW31154  13.044   3.834  11.204  0.2431  0.2886  0.3959
 6392SOL    HW131155  13.065   3.813  11.295  0.3850 -0.6370  0.1605
 6392SOL    HW231156  13.126   3.819  11.157  0.8649  3.0352  0.4317
 6393SOL     OW31157   0.846  10.452   6.287 -1.0285 -0.3453  0.2310
 6393SOL    HW131158   0.827  10.546   6.290 -2.8921 -0.6355 -0.8733
 6393SOL    HW231159   0.873  10.436   6.197 -0.7277 -0.8915  0.4129
 6394SOL     OW31160   1.461  11.419   5.994 -0.0006  0.2610 -0.4503
 6394SOL    HW131161   1.498  11.452   5.912  0.8194  0.7986  0.1098
 6394SOL    HW231162   1.538  11.392   6.045 -0.4856  0.0953  0.1979
 6395SOL     OW31163   0.533   5.109  11.881 -0.2103 -0.2812  0.4754
 6395SOL    HW131164   0.621   5.103  11.919 -0.3001 -1.5679  0.5446
 6395SOL    HW231165   0.548   5.113  11.787 -0.0704 -3.7228  0.2293
 6396SOL     OW31166   1.307   7.980   4.751 -0.2591  0.2062  0.0299
 6396SOL    HW131167   1.267   8.022   4.674 -1.2562  0.1547  0.5026
 6396SOL    HW231168   1.260   7.897   4.760  2.3907 -1.6153 -1.5341
 6397SOL     OW31169   0.529   4.622  10.107 -0.1649  0.9463  0.1051
 6397SOL    HW131170   0.438   4.650  10.119 -0.7060 -0.0984 -1.2906
 6397SOL    HW231171   0.562   4.678  10.037 -0.3112  0.1431 -0.6220
 6398SOL     OW31172  12.988   3.485   6.994  0.5690  0.5367  0.3353
 6398SOL    HW131173  13.068   3.462   6.946 -0.1828 -0.3725 -0.5436
 6398SOL    HW231174  12.939   3.403   6.998 -0.9043  1.3528 -0.2836
 6399SOL     OW31175   2.203   2.895  12.476  0.3482  0.4389 -0.2719
 6399SOL    HW131176   2.159   2.933  12.400  1.2596 -1.4804 -1.8385
 6399SOL    HW231177   2.132   2.878  12.539 -1.2425 -2.1023 -2.5056
 6400SOL     OW31178   6.783  11.206   1.678  0.4629  0.0572  0.2037
 6400SOL    HW131179   6.715  11.258   1.721 -0.6683 -0.0836 -1.3305
 6400SOL    HW231180   6.767  11.116   1.707 -0.0094  0.0231 -0.1689
 6401SOL     OW31181  12.682   4.530   9.078  0.6201 -0.0599 -0.3416
 6401SOL    HW131182  12.705   4.445   9.039  1.1300  0.2341 -0.6808
 6401SOL    HW231183  12.591   4.518   9.108  0.0702 -0.1621 -1.9630
 6402SOL     OW31184   5.116  12.019  10.990 -0.5440  0.0353  0.2000
 6402SOL    HW131185   5.142  11.972  11.069 -0.0375  0.7058  0.4392
 6402SOL    HW231186   5.194  12.069  10.965 -0.7897  0.0512 -0.5577
 6403SOL     OW31187   2.468  10.783   0.277 -0.0034  0.6557  0.3817
 6403SOL    HW131188   2.548  10.745   0.241  0.3263  1.3241  0.3893
 6403SOL    HW231189   2.496  10.865   0.317 -0.8444  1.4618 -0.5967
 6404SOL     OW31190  11.757  11.606  11.755  0.2129 -0.3335  0.3241
 6404SOL    HW131191  11.679  11.572  11.799 -1.0874  0.8809 -0.9126
 6404SOL    HW231192  11.807  11.650  11.824 -0.3324 -0.8892  1.0848
 6405SOL     OW31193   7.171   6.779   1.074 -0.3541  0.2743  0.0847
 6405SOL    HW131194   7.153   6.685   1.068 -1.3184  0.3176  1.7938
 6405SOL    HW231195   7.193   6.793   1.166 -0.4289  1.7593 -0.1069
 6406SOL     OW31196   2.395  10.090   5.540 -0.3073  0.4541  0.2735
 6406SOL    HW131197   2.414  10.117   5.629 -1.6072  0.0141  0.7186
 6406SOL    HW231198   2.339  10.013   5.550 -1.6095  1.1936 -0.8725
 6407SOL     OW31199   9.605   1.765   6.020 -0.4815  0.3765 -0.2943
 6407SOL    HW131200   9.576   1.768   5.930 -0.2741  0.1153 -0.3714
 6407SOL    HW231201   9.525   1.763   6.072 -0.6166 -1.3289 -0.5288
 6408SOL     OW31202   6.181   2.518   8.212 -0.3299 -0.0453  0.2172
 6408SOL    HW131203   6.198   2.508   8.306  0.6109  0.4592  0.1108
 6408SOL    HW231204   6.205   2.609   8.192  1.1170 -0.6134 -0.8284
 6409SOL     OW31205   9.802   9.489   0.206 -0.4834 -0.0907 -0.1007
 6409SOL    HW131206   9.785   9.461   0.116  0.0558 -0.2141 -0.1687
 6409SOL    HW231207   9.782   9.583   0.206 -3.5357 -0.6451  0.4381
 6410SOL     OW31208  12.992   1.926   3.622  0.4616 -0.2101  0.0680
 6410SOL    HW131209  12.921   1.929   3.687  0.4445  0.5451  0.0300
 6410SOL    HW231210  12.952   1.885   3.545 -0.0015  0.3634 -0.0120
 6411SOL     OW31211   2.657   9.367   0.306  0.3336  0.1054 -0.3175
 6411SOL    HW131212   2.670   9.363   0.401 -0.2791  1.7700 -0.1363
 6411SOL    HW231213   2.742   9.340   0.270  0.5686 -0.5706  0.6774
 6412SOL     OW31214   5.005   1.747   2.431  0.0809  0.7632  0.0538
 6412SOL    HW131215   5.040   1.662   2.460 -1.1283  0.4359  0.6445
 6412SOL    HW231216   4.952   1.777   2.505 -1.0555  1.1210 -0.8745
 6413SOL     OW31217  13.553  12.541  12.767  0.5886  0.3989 -0.0713
 6413SOL    HW131218  13.639  12.578  12.788  0.0926  2.5341 -1.4737
 6413SOL    HW231219  13.491  12.611  12.788 -0.9403 -1.3652  1.6315
 6414SOL     OW31220  12.194   5.763   0.171 -0.0978 -0.0897 -0.0148
 6414SOL    HW131221  12.121   5.703   0.190  1.1003 -2.1453 -1.4696
 6414SOL    HW231222  12.245   5.718   0.104  2.9360  0.9437  1.4301
 6415SOL     OW31223   3.420  13.353   5.853 -0.1992  0.1359  0.0995
 6415SOL    HW131224   3.381  13.273   5.887  0.4502 -0.2077  0.0552
 6415SOL    HW231225   3.445  13.403   5.931  0.6933 -0.3553  0.1379
 6416SOL     OW31226  10.757   6.881   7.223 -0.1431  1.2622  0.8235
 6416SOL    HW131227  10.820   6.843   7.161 -0.4465  0.6283  0.8980
 6416SOL    HW231228  10.673   6.873   7.180 -0.5761 -0.5717  1.9211
 6417SOL     OW31229  11.551   4.676  12.533 -0.2776  0.4942 -0.0304
 6417SOL    HW131230  11.604   4.724  12.469 -0.2253 -0.7120 -0.9062
 6417SOL    HW231231  11.481   4.636  12.482 -1.0577  0.6583  0.8793
 6418SOL     OW31232   1.789  13.715  12.851  0.1565  0.2827 -0.0599
 6418SOL    HW131233   1.777  13.797  12.803  0.8070  0.8688  0.7294
 6418SOL    HW231234   1.878  13.721  12.885  0.1379 -0.6752  0.1650
 6419SOL     OW31235   4.930  13.463  10.765  0.6024 -0.0142  0.1689
 6419SOL    HW131236   4.977  13.389  10.802  0.2842 -0.4628 -0.3181
 6419SOL    HW231237   4.947  13.535  10.826 -1.4184 -1.1620  2.2518
 6420SOL     OW31238   1.132   8.229   8.451  0.4164  0.1379  0.5072
 6420SOL    HW131239   1.151   8.156   8.392 -0.3291 -1.0444  1.6606
 6420SOL    HW231240   1.179   8.207   8.532 -2.3465 -0.8028  2.0101
 6421SOL     OW31241  10.273  12.887   9.316  0.1867  0.0124  0.0434
 6421SOL    HW131242  10.216  12.819   9.280 -2.1697  1.1900  1.3605
 6421SOL    HW231243  10.321  12.842   9.386  0.1540 -0.7664 -0.4188
 6422SOL     OW31244   6.846  11.844   1.857 -0.2954  0.4043  0.5618
 6422SOL    HW131245   6.782  11.903   1.817  1.6240  1.6507 -0.8602
 6422SOL    HW231246   6.900  11.900   1.913  1.4682  0.0480 -0.6882
 6423SOL     OW31247   1.088   0.828   4.692  0.9152  0.3395  0.4102
 6423SOL    HW131248   1.037   0.892   4.740  0.6472  0.9947 -0.7202
 6423SOL    HW231249   1.158   0.802   4.753 -1.0953 -1.1038  2.2558
 6424SOL     OW31250   2.152   4.125   5.238  0.2596  0.1076 -0.7515
 6424SOL    HW131251   2.070   4.112   5.191 -0.6361 -0.7321  0.9655
 6424SOL    HW231252   2.165   4.044   5.287  1.8548  0.4298 -0.5785
 6425SOL     OW31253   4.911  12.488  13.400 -0.4046 -0.0009 -0.5844
 6425SOL    HW131254   4.863  12.569  13.416 -0.5751 -0.0071 -1.0499
 6425SOL    HW231255   4.898  12.436  13.480  0.0886  0.6109 -0.0939
 6426SOL     OW31256   8.501   8.131  12.483  0.1678  0.1302  0.0118
 6426SOL    HW131257   8.521   8.201  12.545  1.4513 -0.8027  0.7005
 6426SOL    HW231258   8.581   8.079  12.478 -1.0745 -1.9558  0.4094
 6427SOL     OW31259  13.316   1.414   4.093  0.3283 -0.3449  0.2074
 6427SOL    HW131260  13.397   1.364   4.085  1.2943  0.7971  2.1070
 6427SOL    HW231261  13.308   1.460   4.009  2.3054  0.4169  0.3809
 6428SOL     OW31262   2.760  12.842   6.831  0.7517  0.5033 -0.3725
 6428SOL    HW131263   2.836  12.885   6.791  0.7590 -0.2300 -1.1700
 6428SOL    HW231264   2.698  12.832   6.759  0.5042 -0.2596 -0.0601
 6429SOL     OW31265  11.211  13.304  11.739 -0.0243 -0.6490  0.3189
 6429SOL    HW131266  11.116  13.291  11.746 -0.3567  0.9473 -0.7978
 6429SOL    HW231267  11.246  13.262  11.818 -1.6107 -1.6161  0.5581
 6430SOL     OW31268   9.926  12.612   5.402 -0.1442  0.5330  0.1091
 6430SOL    HW131269   9.870  12.537   5.422 -1.1919  1.0024 -0.9115
 6430SOL    HW231270   9.897  12.640   5.315  1.0825  1.3557 -0.0554
 6431SOL     OW31271   8.127  10.182   3.132 -0.1352 -0.5734 -0.2998
 6431SOL    HW131272   8.215  10.144   3.124 -0.3833 -1.2658  0.2060
 6431SOL    HW231273   8.126  10.253   3.067  0.8122 -0.5213 -0.2769
 6432SOL     OW31274   9.343  11.573  11.761  0.1482  0.4051 -0.1427
 6432SOL    HW131275   9.352  11.534  11.848  0.9275 -0.8844 -0.7665
 6432SOL    HW231276   9.305  11.659  11.777  2.4633  1.2100  1.7186
 6433SOL     OW31277   2.380   7.452   9.890 -0.1982  0.3786  0.0042
 6433SOL    HW131278   2.449   7.513   9.913 -0.3324 -0.0328  1.5931
 6433SOL    HW231279   2.299   7.496   9.916 -0.4948  0.5427 -1.1458
 6434SOL     OW31280   2.999   6.712   8.423 -0.0293  0.3004  0.2245
 6434SOL    HW131281   3.006   6.689   8.330  0.8379 -2.0934  0.8135
 6434SOL    HW231282   3.019   6.631   8.470  0.9680  1.7543  2.5390
 6435SOL     OW31283   0.876  14.013   9.905  0.2115 -0.2096  0.0228
 6435SOL    HW131284   0.880  13.919   9.921  1.7804  0.1409  2.1941
 6435SOL    HW231285   0.949  14.031   9.846 -0.1178 -0.3630 -0.4293
 6436SOL     OW31286   8.600   3.859   7.105  0.5091  0.2921 -0.2776
 6436SOL    HW131287   8.618   3.783   7.161  0.8702 -0.7101 -1.6852
 6436SOL    HW231288   8.650   3.841   7.025 -0.3048  1.4876 -1.0773
 6437SOL     OW31289   9.122  13.947   2.927  0.1043 -0.8083 -0.3141
 6437SOL    HW131290   9.052  14.004   2.895 -0.1922 -1.7240 -1.3569
 6437SOL    HW231291   9.200  13.974   2.878 -0.3416 -2.1868 -1.8787
 6438SOL     OW31292   2.678   1.810  13.544 -0.6993 -0.2679  0.2320
 6438SOL    HW131293   2.602   1.846  13.589 -0.0512  0.0115  1.1296
 6438SOL    HW231294   2.753   1.840  13.595  0.1356  0.8036 -1.5403
 6439SOL     OW31295   9.442   1.984  11.200  0.2407 -0.3137 -0.4793
 6439SOL    HW131296   9.507   2.053  11.213 -1.5994  1.1974  1.4864
 6439SOL    HW231297   9.459   1.921  11.270  0.3270 -0.5577 -0.7160
 6440SOL     OW31298   1.128   7.893  10.990  0.6172  0.8131  0.0065
 6440SOL    HW131299   1.109   7.977  11.031  2.0393  2.1056 -1.7887
 6440SOL    HW231300   1.043   7.850  10.984  0.1248  1.2573  2.6458
 6441SOL     OW31301  11.615   1.696  11.328 -0.1423 -0.1248 -0.7402
 6441SOL    HW131302  11.659   1.700  11.413  0.3146 -0.3133 -0.9603
 6441SOL    HW231303  11.650   1.617  11.287 -2.0150 -1.2911 -0.2113
 6442SOL     OW31304   8.699   4.016   1.888  0.2319  0.7441 -0.7359
 6442SOL    HW131305   8.617   3.992   1.931  0.4299  2.7967  0.9870
 6442SOL    HW231306   8.720   4.102   1.925  2.9397  0.4709 -1.4626
 6443SOL     OW31307   1.292  11.399  12.622  0.7177  0.2474  0.0233
 6443SOL    HW131308   1.362  11.350  12.578 -0.2641 -0.1966 -1.0962
 6443SOL    HW231309   1.230  11.421  12.552 -0.9073 -0.4798  1.1695
 6444SOL     OW31310   2.311  12.066  12.762  0.0324  0.3454 -0.2710
 6444SOL    HW131311   2.231  12.024  12.794  0.6484 -0.0865  0.7927
 6444SOL    HW231312   2.304  12.157  12.791 -1.3996  1.1070 -2.7566
 6445SOL     OW31313  10.148   8.170  12.121 -0.2947 -0.3984 -0.7614
 6445SOL    HW131314  10.179   8.084  12.151  1.5283  0.5322  0.1507
 6445SOL    HW231315  10.124   8.216  12.201 -0.4447  0.2486 -1.1756
 6446SOL     OW31316  10.633  13.342   7.299 -0.0385  0.3687 -0.5765
 6446SOL    HW131317  10.641  13.365   7.207 -0.1956  0.2996 -0.6082
 6446SOL    HW231318  10.703  13.278   7.314  1.0577  1.6177 -0.2296
 6447SOL     OW31319  13.519   1.489   7.370  0.0392  0.3712 -0.1847
 6447SOL    HW131320  13.540   1.454   7.283 -2.8188  1.0588 -1.2668
 6447SOL    HW231321  13.550   1.579   7.367  0.0151  0.3723 -0.4591
 6448SOL     OW31322  10.419  13.230   7.424 -0.8127 -0.3589  0.2978
 6448SOL    HW131323  10.335  13.261   7.389  0.0690  2.1200  0.2035
 6448SOL    HW231324  10.484  13.259   7.360  0.1702 -2.1590  0.4135
 6449SOL     OW31325  11.139   2.548   1.231  0.0576 -0.1604 -0.3977
 6449SOL    HW131326  11.141   2.458   1.262 -1.4428 -0.2041 -0.3375
 6449SOL    HW231327  11.165   2.600   1.307  1.6988 -0.5629 -0.6542
 6450SOL     OW31328   8.878   8.852   2.090 -0.2469  0.0374 -0.1567
 6450SOL    HW131329   8.839   8.852   2.003 -1.2603  0.9765  0.2731
 6450SOL    HW231330   8.968   8.881   2.076 -0.1782 -0.5242 -0.9678
 6451SOL     OW31331   6.492   3.090   4.851  0.1024 -0.5418  0.1343
 6451SOL    HW131332   6.414   3.048   4.888 -0.0657 -1.2596 -0.9886
 6451SOL    HW231333   6.565   3.042   4.891 -0.0363 -0.3309  0.6538
 6452SOL     OW31334   0.307  12.680   0.447  0.0345 -0.1776 -0.4650
 6452SOL    HW131335   0.226  12.723   0.474  0.5863  1.8642 -1.8668
 6452SOL    HW231336   0.371  12.704   0.513 -0.7143 -3.0095  1.4870
 6453SOL     OW31337   9.133   8.692   6.525  0.1982  0.0738 -0.3269
 6453SOL    HW131338   9.174   8.606   6.535  1.3314  0.5206 -0.9857
 6453SOL    HW231339   9.093   8.689   6.438 -2.0194 -0.6697  0.6290
 6454SOL     OW31340   2.471   4.110   1.703 -0.2462  0.1830 -0.1637
 6454SOL    HW131341   2.383   4.142   1.680  0.2078  0.4955 -1.5186
 6454SOL    HW231342   2.512   4.185   1.746 -0.7973 -0.1233  0.9337
 6455SOL     OW31343   7.937   6.065  11.456  0.1334  0.0741  0.2286
 6455SOL    HW131344   7.995   6.041  11.384  1.7249  0.5294  1.2830
 6455SOL    HW231345   7.934   6.161  11.453 -2.0384  0.0208 -0.8681
 6456SOL     OW31346   4.061  13.429   1.852 -0.4205 -0.1019  0.4725
 6456SOL    HW131347   4.119  13.435   1.927  0.7822 -1.3368 -0.3292
 6456SOL    HW231348   3.988  13.487   1.874  0.3123  0.2196  2.2037
 6457SOL     OW31349   3.679   0.891   1.521  0.0602 -0.3406 -0.2339
 6457SOL    HW131350   3.745   0.958   1.504  0.2214 -0.8569 -1.8461
 6457SOL    HW231351   3.727   0.819   1.562 -0.0694  0.3904  1.2782
 6458SOL     OW31352   1.348   5.767   6.454 -1.0277 -0.4652 -0.1897
 6458SOL    HW131353   1.280   5.711   6.490 -2.2488  2.5216  2.5398
 6458SOL    HW231354   1.359   5.837   6.518  1.1656  1.8614 -2.8371
 6459SOL     OW31355  12.261  12.399   5.540  0.2897 -0.2491 -0.1291
 6459SOL    HW131356  12.246  12.469   5.477  1.3131  0.5732  0.5109
 6459SOL    HW231357  12.332  12.348   5.502  0.3489 -0.2351 -0.0384
 6460SOL     OW31358   6.679   7.398   5.848  0.1199  0.5672  0.4974
 6460SOL    HW131359   6.765   7.380   5.809 -0.1133  1.4825 -0.4927
 6460SOL    HW231360   6.617   7.381   5.777 -0.4107  1.1366  0.8198
 6461SOL     OW31361  10.025  10.584   5.971  0.0043  0.2384  0.0703
 6461SOL    HW131362   9.959  10.612   6.033  0.2652  0.1980  0.3686
 6461SOL    HW231363  10.051  10.664   5.926 -1.5634 -0.0012 -1.3617
 6462SOL     OW31364   3.593  12.269   8.582  0.0449  0.1148 -0.0075
 6462SOL    HW131365   3.572  12.262   8.675  1.2291  1.1278  0.3610
 6462SOL    HW231366   3.688  12.285   8.579  0.1255 -0.4235 -1.4160
 6463SOL     OW31367  11.559   6.005  10.020  0.1851 -0.1829  0.2878
 6463SOL    HW131368  11.645   6.044  10.003 -0.3130  0.5273 -0.7450
 6463SOL    HW231369  11.524   6.055  10.093  0.0083  0.6119 -0.3186
 6464SOL     OW31370   1.909   7.752  11.201  0.0625  1.0495  0.0945
 6464SOL    HW131371   2.002   7.764  11.218 -0.1906  2.2844  0.7092
 6464SOL    HW231372   1.868   7.753  11.288 -0.4467 -0.3564 -0.1037
 6465SOL     OW31373   6.096  13.707   4.698  0.1659  0.5868 -0.6084
 6465SOL    HW131374   6.105  13.768   4.771  0.1172  2.7474 -2.3023
 6465SOL    HW231375   6.126  13.623   4.733 -0.2972  1.4181  1.9874
 6466SOL     OW31376   0.370   6.342  12.515 -0.2008 -0.1223  0.3878
 6466SOL    HW131377   0.290   6.309  12.555 -0.5596  1.2156  0.8538
 6466SOL    HW231378   0.378   6.294  12.432 -1.4096 -0.3788  0.4079
 6467SOL     OW31379   9.729  12.185   7.417  0.1909  0.2812  0.4675
 6467SOL    HW131380   9.679  12.266   7.407  0.3771  0.2476 -0.8342
 6467SOL    HW231381   9.757  12.185   7.509  0.8886  2.0975  0.2822
 6468SOL     OW31382   6.171   4.094   3.417 -0.2131  0.0844 -0.1209
 6468SOL    HW131383   6.089   4.067   3.377 -0.8667 -2.9668  2.8137
 6468SOL    HW231384   6.239   4.051   3.366 -0.6184  0.4459 -0.9760
 6469SOL     OW31385   5.806   4.071  12.973  0.5607 -0.0464  0.2573
 6469SOL    HW131386   5.797   4.161  13.004 -0.5872 -0.4814  1.2439
 6469SOL    HW231387   5.825   4.020  13.052 -0.1175 -0.8593 -0.0933
 6470SOL     OW31388   4.602   9.074   7.584 -0.2878  0.5022 -0.0931
 6470SOL    HW131389   4.645   9.157   7.563  1.0255 -0.2139 -0.3392
 6470SOL    HW231390   4.619   9.060   7.677  2.4301 -1.0682 -0.7215
 6471SOL     OW31391   9.545   8.440   3.358 -0.0362  0.1476  0.1275
 6471SOL    HW131392   9.532   8.352   3.393  2.8045 -0.9158 -1.1555
 6471SOL    HW231393   9.624   8.472   3.401 -0.4330  1.6771 -0.2095
 6472SOL     OW31394   5.834   5.705   1.336  0.4975 -0.0862 -0.9399
 6472SOL    HW131395   5.780   5.639   1.293  2.3168 -0.4200 -2.8447
 6472SOL    HW231396   5.814   5.786   1.289  0.8026  0.0223 -0.8859
 6473SOL     OW31397   6.026   8.828   0.252 -0.1219  0.2517  0.1977
 6473SOL    HW131398   6.073   8.795   0.175 -1.3818 -1.2996  0.0308
 6473SOL    HW231399   6.006   8.749   0.303 -0.6371  1.0999  1.3545
 6474SOL     OW31400  11.964   5.597   1.058  0.4490  0.3145  0.1022
 6474SOL    HW131401  11.921   5.571   1.140 -0.3727  0.1970 -0.3584
 6474SOL    HW231402  11.894   5.600   0.994  1.1693 -0.1149 -0.7259
 6475SOL     OW31403   6.214   3.937  10.233 -0.0434 -0.2366 -0.0462
 6475SOL    HW131404   6.137   3.882  10.240 -0.3431  0.2096  0.1696
 6475SOL    HW231405   6.271   3.909  10.305  0.0029 -0.5660 -0.2075
 6476SOL     OW31406  13.537  13.590  11.927 -1.2317 -0.7732  0.2432
 6476SOL    HW131407  13.534  13.679  11.960 -2.1942 -0.2087 -1.2305
 6476SOL    HW231408  13.607  13.547  11.976 -1.2258  0.5817  1.4585
 6477SOL     OW31409  11.339  10.926   8.157  0.6044  0.1279  0.3426
 6477SOL    HW131410  11.407  10.895   8.097  0.5934  1.9238 -0.6758
 6477SOL    HW231411  11.358  10.882   8.240 -1.0969 -4.7657 -1.5318
 6478SOL     OW31412   0.363  11.850   3.873  0.4318  1.0846 -0.1856
 6478SOL    HW131413   0.342  11.780   3.935  2.4574  0.8804  0.3361
 6478SOL    HW231414   0.448  11.825   3.837  0.3180  2.3464 -1.3975
 6479SOL     OW31415   1.878   2.444   0.700  0.1205 -0.5069  0.6824
 6479SOL    HW131416   1.800   2.392   0.719 -0.6165 -0.0434 -0.9601
 6479SOL    HW231417   1.878   2.455   0.605  2.0692 -0.2873  0.6569
 6480SOL     OW31418   7.219  11.425   6.308  0.5410  0.2125  0.0034
 6480SOL    HW131419   7.259  11.367   6.243 -0.1667 -0.1903 -0.0857
 6480SOL    HW231420   7.211  11.509   6.263 -0.4375 -0.2052 -0.6293
 6481SOL     OW31421   7.182  11.364   0.273  0.5297  0.2894  0.3745
 6481SOL    HW131422   7.258  11.312   0.245  2.1034  2.6526 -0.0274
 6481SOL    HW231423   7.162  11.420   0.199 -0.1100  1.3476  1.3196
 6482SOL     OW31424  10.579   4.300   4.279 -0.4875 -0.4609  0.0654
 6482SOL    HW131425  10.542   4.314   4.192  0.3178 -0.3467 -0.2639
 6482SOL    HW231426  10.505   4.271   4.332 -0.6702 -2.1473 -1.0534
 6483SOL     OW31427   9.526   2.947   3.246 -0.1221  0.3101 -0.1317
 6483SOL    HW131428   9.521   3.006   3.321 -1.4161  0.7008 -0.4962
 6483SOL    HW231429   9.477   2.869   3.273 -0.1552  0.2428 -0.3799
 6484SOL     OW31430   7.719   6.186   7.271 -0.3204  0.6415 -0.0301
 6484SOL    HW131431   7.792   6.142   7.227 -0.3609  1.8516 -1.3995
 6484SOL    HW231432   7.752   6.210   7.357  0.9455  1.2363 -0.6555
 6485SOL     OW31433   3.671   7.398   8.374  0.0477  0.3315 -0.0001
 6485SOL    HW131434   3.577   7.417   8.375 -0.0344  0.0993 -1.2234
 6485SOL    HW231435   3.682   7.338   8.301  0.7498 -1.9278  1.8521
 6486SOL     OW31436   2.960   6.489   3.338 -0.4417  0.1865  0.0581
 6486SOL    HW131437   3.010   6.571   3.335 -2.0676  1.2052 -0.7216
 6486SOL    HW231438   2.960   6.457   3.248 -0.8582 -0.0200  0.1289
 6487SOL     OW31439   6.385  10.314   5.603 -0.5846  0.2185 -0.4500
 6487SOL    HW131440   6.474  10.323   5.635 -0.3907 -1.5487 -0.3942
 6487SOL    HW231441   6.387  10.238   5.545 -2.2280 -0.4297  0.2704
 6488SOL     OW31442  11.102   2.850   0.957 -0.1706  0.1378 -0.2648
 6488SOL    HW131443  11.152   2.841   1.038 -0.6081 -0.9558 -0.0946
 6488SOL    HW231444  11.047   2.927   0.971 -0.2453 -0.0414  0.4892
 6489SOL     OW31445   0.946  10.344  10.787 -0.2917  0.5919  0.3503
 6489SOL    HW131446   1.008  10.347  10.714 -1.4575  0.4845 -0.6855
 6489SOL    HW231447   0.898  10.427  10.782 -0.1111  0.7666  1.2612
 6490SOL     OW31448   3.178  13.727  11.454  0.1008 -0.7313 -0.4931
 6490SOL    HW131449   3.258  13.720  11.402  0.5062 -2.0147  0.2808
 6490SOL    HW231450   3.177  13.648  11.508  0.1373  0.9374  2.0928
 6491SOL     OW31451   3.048   3.193  10.345  0.3482  0.7787 -0.1790
 6491SOL    HW131452   3.001   3.276  10.343 -0.2624  0.4297 -1.1335
 6491SOL    HW231453   3.022   3.153  10.429  0.7886  1.6164  0.3688
 6492SOL     OW31454  12.421   9.123  10.567  0.3194  0.0167 -0.5783
 6492SOL    HW131455  12.475   9.119  10.488 -0.2375 -2.5686 -0.9225
 6492SOL    HW231456  12.340   9.078  10.543  0.0977 -0.7606  1.4285
 6493SOL     OW31457   3.700   2.456   4.615  0.2243 -0.7209 -0.1893
 6493SOL    HW131458   3.648   2.480   4.691  1.1738 -0.0695  0.2699
 6493SOL    HW231459   3.679   2.363   4.600 -0.7385 -0.5791  0.2290
 6494SOL     OW31460   2.442   7.448   9.211  0.5653 -0.3525  0.2030
 6494SOL    HW131461   2.495   7.421   9.287  0.0937 -0.9581  0.3295
 6494SOL    HW231462   2.386   7.372   9.194  0.0381  0.1220 -0.1940
 6495SOL     OW31463   8.470   2.264   1.361 -0.0095  0.0997 -0.3249
 6495SOL    HW131464   8.377   2.273   1.381  0.2800  1.4747  0.6240
 6495SOL    HW231465   8.473   2.214   1.280 -1.6436  1.1976 -1.1286
 6496SOL     OW31466   3.629   3.939   0.823 -0.6140  0.1484 -0.0590
 6496SOL    HW131467   3.547   3.987   0.839 -1.2277 -0.8637 -0.0873
 6496SOL    HW231468   3.607   3.847   0.841  0.8697  0.0065  1.1951
 6497SOL     OW31469   0.743  13.410  13.931 -0.2786 -0.0205  0.0467
 6497SOL    HW131470   0.702  13.332  13.894 -1.1795 -0.2114  1.3769
 6497SOL    HW231471   0.687  13.434  14.005 -0.0301  1.8796 -0.3075
 6498SOL     OW31472   0.661   9.682   8.838  0.0491 -0.0928 -0.2169
 6498SOL    HW131473   0.636   9.715   8.752  1.7220 -2.1182 -1.5786
 6498SOL    HW231474   0.614   9.599   8.847  1.0447 -0.6361  0.1312
 6499SOL     OW31475  11.634   4.096   9.479  0.2563 -0.1235 -0.6415
 6499SOL    HW131476  11.604   4.151   9.551  0.7932 -1.0801  0.3309
 6499SOL    HW231477  11.593   4.011   9.494  1.8777 -0.9001 -0.3552
 6500SOL     OW31478   7.296   6.458   9.640 -0.0602 -0.7450  0.3251
 6500SOL    HW131479   7.201   6.451   9.650 -0.2804 -1.5345 -1.7483
 6500SOL    HW231480   7.330   6.377   9.678 -0.0203  0.2397  2.5252
 6501SOL     OW31481   4.337   6.740  11.379  0.2303  0.0585  0.3827
 6501SOL    HW131482   4.349   6.785  11.462  0.0615  1.0596 -0.1112
 6501SOL    HW231483   4.277   6.797  11.330  0.6352 -0.3112 -0.5669
 6502SOL     OW31484  12.539   4.055  13.770  0.1640  0.1433  0.1042
 6502SOL    HW131485  12.549   4.101  13.854 -1.6805 -0.8347  0.9322
 6502SOL    HW231486  12.559   3.964  13.790 -1.9351 -0.4051 -0.0443
 6503SOL     OW31487   4.214  13.361  12.038 -0.3868  0.4875  0.4285
 6503SOL    HW131488   4.265  13.412  11.975 -0.9356  0.9342  0.3380
 6503SOL    HW231489   4.222  13.410  12.120  0.5703 -0.2517  0.7891
 6504SOL     OW31490  12.801   4.744  10.029  0.3301  0.0220  0.2623
 6504SOL    HW131491  12.782   4.805  10.101 -0.2330  1.8081 -1.3127
 6504SOL    HW231492  12.767   4.660  10.060 -0.1985  0.7975  1.9465
 6505SOL     OW31493   5.906  11.835   0.891 -0.0852  0.1639  0.2061
 6505SOL    HW131494   5.876  11.919   0.859 -2.3663 -0.3643  0.8117
 6505SOL    HW231495   5.827  11.782   0.898  1.2948 -2.1089 -0.3164
 6506SOL     OW31496   2.201   5.776   2.895  0.2586 -0.4327  0.1854
 6506SOL    HW131497   2.200   5.864   2.933  0.7306 -1.0312  1.6422
 6506SOL    HW231498   2.142   5.725   2.950  2.4942 -1.8344  1.4415
 6507SOL     OW31499   9.043  11.061   6.116  0.3519 -0.0329 -0.7178
 6507SOL    HW131500   9.010  11.114   6.189 -0.6845  0.8848 -1.8009
 6507SOL    HW231501   9.131  11.095   6.100  0.0812  0.6800 -0.7449
 6508SOL     OW31502   8.098   2.505  11.293  0.0686 -0.2622 -0.0324
 6508SOL    HW131503   8.120   2.575  11.354  1.3064 -1.1517  0.5927
 6508SOL    HW231504   8.164   2.437  11.310 -1.2889 -1.7229 -0.3756
 6509SOL     OW31505   1.244   3.052  10.134  0.3829  0.4466 -0.1711
 6509SOL    HW131506   1.172   2.994  10.109 -0.6403  1.4795  0.3158
 6509SOL    HW231507   1.216   3.139  10.104  1.5475  0.8237 -0.1947
 6510SOL     OW31508   1.332   3.247   4.361 -0.2504 -0.4765 -0.4020
 6510SOL    HW131509   1.384   3.178   4.403  0.6565  0.3649 -0.0964
 6510SOL    HW231510   1.353   3.326   4.411 -3.3651 -0.4155  1.0496
 6511SOL     OW31511  11.242   9.517   7.162 -0.5436 -0.1339 -0.0368
 6511SOL    HW131512  11.203   9.429   7.170 -2.3136  0.7644  2.1972
 6511SOL    HW231513  11.167   9.576   7.164  0.6811  1.5122 -0.5959
 6512SOL     OW31514  11.910  11.800  11.016 -0.0493  0.6628  0.5633
 6512SOL    HW131515  11.951  11.823  11.100  0.4765  2.6713 -0.1837
 6512SOL    HW231516  11.983  11.782  10.957 -0.2578  2.2238 -0.2272
 6513SOL     OW31517   1.604  10.732   5.859 -0.2171  0.1827 -0.1095
 6513SOL    HW131518   1.627  10.816   5.900 -0.9544  0.1421  0.4119
 6513SOL    HW231519   1.514  10.744   5.829 -0.8187 -0.8621  1.1983
 6514SOL     OW31520  12.857   5.325  13.940 -0.0417 -0.3691 -0.2114
 6514SOL    HW131521  12.842   5.382  13.864  1.2554  0.7687  0.3371
 6514SOL    HW231522  12.952   5.314  13.943 -0.1808 -1.5694  0.4400
 6515SOL     OW31523  11.649   3.781   7.595 -0.1307 -0.0585  0.4212
 6515SOL    HW131524  11.574   3.809   7.647 -1.8498  0.2005 -1.9811
 6515SOL    HW231525  11.724   3.826   7.634 -1.5370  1.3029  1.6934
 6516SOL     OW31526  11.259  10.553   5.993  0.2218  0.6121  0.2363
 6516SOL    HW131527  11.351  10.554   6.018  0.3196 -0.1002 -0.0717
 6516SOL    HW231528  11.211  10.553   6.075  0.5147 -0.0520  0.4124
 6517SOL     OW31529  10.445   7.701   8.135 -0.0311  0.0378  0.3375
 6517SOL    HW131530  10.354   7.716   8.160  0.4556  1.7873  1.1936
 6517SOL    HW231531  10.440   7.665   8.046 -1.5569 -0.2467  0.5188
 6518SOL     OW31532  10.995   8.677   1.519  0.1608  1.0329 -0.6224
 6518SOL    HW131533  11.079   8.635   1.499 -0.8021 -0.1721 -2.3783
 6518SOL    HW231534  10.996   8.685   1.615  2.1147  0.7360 -0.5620
 6519SOL     OW31535   8.683   3.364   1.361 -0.1569  0.9884 -0.4454
 6519SOL    HW131536   8.713   3.424   1.429 -1.6201  1.5057 -0.2207
 6519SOL    HW231537   8.763   3.340   1.314  1.0560 -0.1940  2.0422
 6520SOL     OW31538   4.602  12.356   8.361  0.0662 -0.5109 -0.0086
 6520SOL    HW131539   4.660  12.343   8.285 -1.7077  0.3833 -1.5784
 6520SOL    HW231540   4.571  12.268   8.382  0.8204 -0.8089 -0.0982
 6521SOL     OW31541   6.328   0.561   8.015 -0.3612  0.2518 -0.5958
 6521SOL    HW131542   6.341   0.572   8.109 -1.1154  2.1544 -0.6702
 6521SOL    HW231543   6.264   0.490   8.007 -1.0201  0.7172  0.3773
 6522SOL     OW31544  13.084   2.031   4.216 -0.3239 -0.2377  0.3154
 6522SOL    HW131545  13.176   2.058   4.214 -0.2437 -0.5175  0.0712
 6522SOL    HW231546  13.037   2.101   4.172  0.0540 -1.1282 -1.6235
 6523SOL     OW31547   9.229   3.090   3.152  0.0701 -0.2386  0.0833
 6523SOL    HW131548   9.151   3.052   3.111 -1.5626  1.2293  1.6478
 6523SOL    HW231549   9.302   3.050   3.106 -1.6051 -1.1536 -1.9506
 6524SOL     OW31550  12.042   8.781   7.395  0.4677  0.0127  0.4128
 6524SOL    HW131551  12.095   8.796   7.317  1.8544  0.6202  1.4378
 6524SOL    HW231552  12.054   8.688   7.414  0.6925  0.0217  0.3195
 6525SOL     OW31553   0.277  13.420  11.231 -0.1718 -0.2508  0.1628
 6525SOL    HW131554   0.371  13.431  11.219  0.2954 -0.6913  2.8162
 6525SOL    HW231555   0.249  13.369  11.155  1.5783  0.4134 -1.0091
 6526SOL     OW31556  11.629   5.479   5.679  0.1457  0.0090 -0.6610
 6526SOL    HW131557  11.719   5.461   5.650  0.4439  1.3072 -0.6006
 6526SOL    HW231558  11.606   5.562   5.636 -1.0943 -0.3879 -0.8072
 6527SOL     OW31559   5.756  12.683   1.771  0.0978 -0.0279 -0.1621
 6527SOL    HW131560   5.810  12.680   1.693 -0.4293 -0.8484 -0.5040
 6527SOL    HW231561   5.763  12.774   1.801  0.5770  0.2092 -0.9583
 6528SOL     OW31562   7.486   7.641  10.863  0.1186  0.4692 -0.4540
 6528SOL    HW131563   7.482   7.623  10.957 -1.8604  2.0626 -0.1539
 6528SOL    HW231564   7.479   7.555  10.822  0.0795 -0.1785  0.8449
 6529SOL     OW31565   9.793   8.772   0.194  0.8046 -0.1209 -0.2518
 6529SOL    HW131566   9.796   8.848   0.135 -0.1298 -0.8518 -1.2768
 6529SOL    HW231567   9.709   8.730   0.175  1.1416 -1.2080  0.5718
 6530SOL     OW31568   8.282   3.040   4.982  0.4719 -0.8385  0.2174
 6530SOL    HW131569   8.371   3.027   4.949 -0.6726 -2.3696 -2.5931
 6530SOL    HW231570   8.238   3.093   4.915 -0.5631  0.6916  1.9886
 6531SOL     OW31571   6.179   7.122   6.776  0.3875  0.1058 -0.3875
 6531SOL    HW131572   6.194   7.056   6.708 -0.5163 -1.3012  0.7348
 6531SOL    HW231573   6.084   7.134   6.777  0.5526  1.6811 -0.7731
 6532SOL     OW31574   8.541   6.385  11.527  0.6299 -0.2898 -0.3204
 6532SOL    HW131575   8.577   6.301  11.497 -0.0909 -0.1820 -1.5675
 6532SOL    HW231576   8.455   6.363  11.562  0.7040 -0.1550 -0.0516
 6533SOL     OW31577   2.928   8.093  10.278  0.2989 -0.1870 -0.1968
 6533SOL    HW131578   2.995   8.156  10.252 -1.6091  1.3574 -1.6765
 6533SOL    HW231579   2.847   8.129  10.244 -1.2188 -2.3452  0.9018
 6534SOL     OW31580   2.502  13.436   0.029 -0.1904 -0.0863  0.1982
 6534SOL    HW131581   2.410  13.429   0.001  0.0783  0.2165 -0.7945
 6534SOL    HW231582   2.536  13.347   0.024 -0.4570 -0.2241  0.7095
 6535SOL     OW31583   6.126   8.140   8.352  0.4091 -0.5144 -0.0433
 6535SOL    HW131584   6.062   8.102   8.413  0.1775  0.0401  0.0605
 6535SOL    HW231585   6.172   8.206   8.402 -1.3350  1.5705 -1.0322
 6536SOL     OW31586   0.265   8.587  13.158  0.1898 -0.3728 -0.1932
 6536SOL    HW131587   0.229   8.552  13.239 -3.0284  1.1203 -0.7879
 6536SOL    HW231588   0.255   8.516  13.095  1.1613 -0.9881  0.3338
 6537SOL     OW31589  13.994  13.334   0.003  0.5188 -0.7962 -0.2156
 6537SOL    HW131590  14.041  13.355   0.084  0.7270  1.1923 -0.8030
 6537SOL    HW231591  14.061  13.337  -0.065  0.0019 -0.4947 -0.7203
 6538SOL     OW31592  10.188  11.530   8.849 -0.0956 -0.1452  0.1127
 6538SOL    HW131593  10.123  11.598   8.829 -0.1407  0.0511  0.8787
 6538SOL    HW231594  10.260  11.578   8.891 -0.1763 -0.5828  0.7589
 6539SOL     OW31595  13.051   9.271   3.124 -0.2028 -0.0876  0.6476
 6539SOL    HW131596  13.146   9.286   3.120 -0.4548  1.6054  0.2388
 6539SOL    HW231597  13.031   9.228   3.041  0.4241 -2.0970  1.4728
 6540SOL     OW31598   9.104   4.430  10.376 -0.0439  0.2356 -0.2176
 6540SOL    HW131599   9.152   4.436  10.459  0.8788  2.6210 -0.8362
 6540SOL    HW231600   9.012   4.445  10.400 -0.0776 -1.1045  0.5779
 6541SOL     OW31601   9.266   0.031   6.575  0.0720  0.3841  0.1408
 6541SOL    HW131602   9.262  -0.055   6.617  0.3926  0.9439  1.3471
 6541SOL    HW231603   9.219   0.019   6.493  0.3682 -1.0230  0.1489
 6542SOL     OW31604   5.559  13.391   8.787  0.1977 -0.7403 -0.1062
 6542SOL    HW131605   5.485  13.331   8.795  0.3335 -0.8019  0.7807
 6542SOL    HW231606   5.528  13.460   8.727 -1.1015  0.0084  1.3696
 6543SOL     OW31607   1.784   3.364   3.641 -0.0004  0.1231  0.2696
 6543SOL    HW131608   1.726   3.293   3.613  1.4452 -1.1724  0.4199
 6543SOL    HW231609   1.795   3.418   3.563  1.3559 -1.6064 -0.8021
 6544SOL     OW31610  13.837   6.058   8.713 -0.0707  0.1716  0.6204
 6544SOL    HW131611  13.801   6.138   8.674  2.9139  0.6276 -1.4780
 6544SOL    HW231612  13.871   6.087   8.798 -0.5986  0.6909  0.6678
 6545SOL     OW31613  13.593   3.516   2.740  0.6742  0.2620  0.0013
 6545SOL    HW131614  13.619   3.596   2.785 -2.1510  1.0377  0.4613
 6545SOL    HW231615  13.615   3.531   2.648 -0.0443  1.7060  0.0384
 6546SOL     OW31616  12.871   0.855  11.295 -0.8581 -0.2705  0.2366
 6546SOL    HW131617  12.920   0.870  11.214  0.3585 -0.4147  0.9155
 6546SOL    HW231618  12.887   0.933  11.347 -0.2551 -0.8671  0.9835
 6547SOL     OW31619   0.319   9.590   3.330 -0.3182  0.3492  0.0712
 6547SOL    HW131620   0.353   9.547   3.251  0.5291  1.2668 -0.0873
 6547SOL    HW231621   0.397   9.607   3.384 -0.9410 -0.7911  1.3944
 6548SOL     OW31622   5.614  13.724   7.233  0.1870 -0.1082 -0.2624
 6548SOL    HW131623   5.643  13.728   7.324 -1.2329 -1.5882  0.3078
 6548SOL    HW231624   5.578  13.811   7.215 -0.0968  0.0029  0.8053
 6549SOL     OW31625   6.569   8.886   3.545 -0.9202 -0.0721  0.4500
 6549SOL    HW131626   6.652   8.846   3.569  0.1661 -0.0829 -2.8529
 6549SOL    HW231627   6.590   8.978   3.528 -1.0893 -0.4354 -2.1245
 6550SOL     OW31628  12.449  11.363  12.068  0.3315 -0.2833  0.2789
 6550SOL    HW131629  12.360  11.337  12.043  0.5306 -0.4872 -0.2247
 6550SOL    HW231630  12.468  11.439  12.012  0.7584 -0.7109 -0.1695
 6551SOL     OW31631   9.442  10.661  13.678  0.5145 -0.3505  0.0082
 6551SOL    HW131632   9.442  10.621  13.765 -0.7789 -0.2256  0.0837
 6551SOL    HW231633   9.452  10.755  13.695 -0.4758 -0.2540  0.0684
 6552SOL     OW31634  12.042   8.964   2.219  0.4076 -0.1637  0.4614
 6552SOL    HW131635  12.100   8.981   2.145 -1.9804 -0.0400 -1.5443
 6552SOL    HW231636  12.006   8.877   2.201 -1.8831  0.7616  0.1514
 6553SOL     OW31637   8.466   9.264   5.306  0.3758 -0.6005 -0.8794
 6553SOL    HW131638   8.440   9.183   5.263 -0.4827 -1.4487  1.1112
 6553SOL    HW231639   8.502   9.236   5.390  3.1342  0.8930 -1.4335
 6554SOL     OW31640   8.746  11.046  12.505  0.2223  0.2814 -0.8445
 6554SOL    HW131641   8.713  11.031  12.593 -0.6095 -3.0971 -1.5773
 6554SOL    HW231642   8.667  11.062  12.452  0.5804  0.8698 -1.2132
 6555SOL     OW31643  12.143  11.092   7.493  0.3476 -0.4529 -0.0766
 6555SOL    HW131644  12.141  11.042   7.576  0.7132 -2.1784 -1.0487
 6555SOL    HW231645  12.210  11.047   7.441  0.5333  0.9758 -1.0982
 6556SOL     OW31646   1.499  13.978   3.727 -0.9150 -0.5678  0.2606
 6556SOL    HW131647   1.458  13.935   3.652  2.0706  0.6688 -2.3193
 6556SOL    HW231648   1.590  13.949   3.725 -0.1492  1.4732  1.8751
 6557SOL     OW31649   3.446   5.130   9.517  0.1381  0.0383  0.7947
 6557SOL    HW131650   3.387   5.175   9.456 -1.0567  1.1564  2.6537
 6557SOL    HW231651   3.399   5.132   9.600  1.1535 -2.5600  1.5181
 6558SOL     OW31652   1.961   7.955  12.083  0.3126 -0.5689  0.7491
 6558SOL    HW131653   1.927   7.920  12.165  2.3934 -2.1580  1.0327
 6558SOL    HW231654   2.003   7.879  12.041 -0.9966  0.0983 -1.9776
 6559SOL     OW31655   5.869   0.394   2.566 -0.3877  0.3310  1.2497
 6559SOL    HW131656   5.894   0.443   2.488 -0.3908 -0.9864  0.3978
 6559SOL    HW231657   5.855   0.305   2.536  0.7740 -0.4921  2.9569
 6560SOL     OW31658   6.100   6.245   4.681  0.3186  0.4184 -0.2868
 6560SOL    HW131659   6.010   6.248   4.714  0.2477 -1.4338 -0.2234
 6560SOL    HW231660   6.092   6.269   4.589 -0.3953 -0.6534 -0.5224
 6561SOL     OW31661   8.099   2.867   2.455  0.4806  0.0452  0.6009
 6561SOL    HW131662   8.101   2.808   2.379 -0.3219 -0.0410  0.6366
 6561SOL    HW231663   8.190   2.887   2.472  0.7713 -1.0977  0.5023
 6562SOL     OW31664   0.408   7.628   7.929  0.3016 -0.2774 -0.1498
 6562SOL    HW131665   0.493   7.619   7.971  0.5786 -0.4114 -0.7199
 6562SOL    HW231666   0.413   7.712   7.884 -0.0454 -0.0658  0.2031
 6563SOL     OW31667   1.623   5.004   6.113  0.1190 -0.7470 -1.4254
 6563SOL    HW131668   1.671   5.073   6.067 -0.1547 -0.2631 -0.9943
 6563SOL    HW231669   1.628   5.027   6.205 -0.1622 -1.1858 -1.2931
 6564SOL     OW31670  10.954   6.852  10.884  0.1302 -0.5859  0.1265
 6564SOL    HW131671  11.012   6.861  10.960  0.9103 -2.3373 -0.2157
 6564SOL    HW231672  10.997   6.903  10.815  0.1228 -0.0960  0.4822
 6565SOL     OW31673  12.279  11.915   1.683 -0.4436  0.8155 -0.3196
 6565SOL    HW131674  12.243  11.936   1.769 -2.6857  1.1186 -1.2656
 6565SOL    HW231675  12.264  11.821   1.672 -0.9012  0.9253 -0.6801
 6566SOL     OW31676   0.322   4.135  11.490  0.4911 -0.3690 -0.6900
 6566SOL    HW131677   0.282   4.064  11.540  1.4123 -0.1719  0.3930
 6566SOL    HW231678   0.393   4.093  11.441 -0.8489 -0.6868 -2.4570
 6567SOL     OW31679   8.117   9.980   3.333  0.0715 -0.1404  0.6214
 6567SOL    HW131680   8.127  10.074   3.345 -0.8758 -0.1631  1.7690
 6567SOL    HW231681   8.103   9.946   3.421 -2.6568 -0.9405 -0.0012
 6568SOL     OW31682  13.827   8.375  10.701 -0.2039  0.6737 -0.2823
 6568SOL    HW131683  13.766   8.304  10.681 -0.7932  1.3181 -0.8107
 6568SOL    HW231684  13.838   8.370  10.796 -0.4978  0.0864 -0.2693
 6569SOL     OW31685   7.563   1.067  11.902  0.2409 -0.3333 -0.3068
 6569SOL    HW131686   7.537   1.134  11.965  0.6553 -0.3108 -0.1554
 6569SOL    HW231687   7.481   1.033  11.867  0.0366  0.3681 -0.5080
 6570SOL     OW31688   2.877   9.232   6.665 -0.0145  0.5583 -0.5920
 6570SOL    HW131689   2.857   9.141   6.689  0.7742  0.2061 -1.2280
 6570SOL    HW231690   2.792   9.276   6.666 -0.6499 -0.5523 -1.7772
 6571SOL     OW31691  10.589   6.454   5.775 -0.5944  0.1059  0.1190
 6571SOL    HW131692  10.653   6.432   5.708  1.0550 -0.0001  1.6262
 6571SOL    HW231693  10.529   6.515   5.733  0.5920  0.3162 -1.3437
 6572SOL     OW31694   8.888  13.599  12.508 -0.2139  0.8000 -0.3825
 6572SOL    HW131695   8.808  13.577  12.554 -0.0417 -0.9257 -0.8281
 6572SOL    HW231696   8.866  13.590  12.415  0.6813 -0.5569 -0.4986
 6573SOL     OW31697   9.811  13.270   6.481  0.1584 -0.1774  0.8295
 6573SOL    HW131698   9.818  13.321   6.561 -0.4460  1.4304 -0.0947
 6573SOL    HW231699   9.872  13.311   6.420 -0.1253 -0.7428  0.1438
 6574SOL     OW31700   9.739   9.032   1.569 -0.2555  0.5858  0.2168
 6574SOL    HW131701   9.738   9.085   1.489 -0.9831  1.8549  1.0193
 6574SOL    HW231702   9.770   8.946   1.541 -1.0193  0.8351 -1.5304
 6575SOL     OW31703   8.228   1.501  10.668  0.3117  0.0027 -0.6763
 6575SOL    HW131704   8.261   1.413  10.649  1.9081  0.5093 -0.4394
 6575SOL    HW231705   8.136   1.499  10.642 -0.0488 -2.1101  0.5320
 6576SOL     OW31706   1.613   7.058  11.558 -0.1861  0.6634 -0.0816
 6576SOL    HW131707   1.644   7.147  11.575  0.8253  0.4825 -0.8966
 6576SOL    HW231708   1.610   7.051  11.463  2.1849 -0.9462 -0.1234
 6577SOL     OW31709   6.398   1.498  11.632  0.1534 -0.2288  0.1847
 6577SOL    HW131710   6.423   1.421  11.582  1.3371 -1.3515  2.3479
 6577SOL    HW231711   6.355   1.464  11.710  1.0637  1.2390  1.3992
 6578SOL     OW31712   6.123   7.178   0.620  0.4494 -0.0101  0.1541
 6578SOL    HW131713   6.055   7.200   0.556 -1.1387  0.3313  1.8867
 6578SOL    HW231714   6.167   7.260   0.639  1.8088 -0.3244 -1.3939
 6579SOL     OW31715  11.211   6.425  13.812  0.5793  0.3968  0.2229
 6579SOL    HW131716  11.168   6.342  13.835  1.8056  0.0148  1.2137
 6579SOL    HW231717  11.298   6.399  13.780  0.3636  1.2044 -1.1049
 6580SOL     OW31718   7.723   7.346   5.182  0.5898 -0.2729 -0.3054
 6580SOL    HW131719   7.790   7.322   5.118 -1.1077  0.1378 -2.3596
 6580SOL    HW231720   7.732   7.281   5.252  2.2305 -1.0191 -1.1562
 6581SOL     OW31721   6.266   1.215   2.347 -0.5711 -0.7401 -0.4873
 6581SOL    HW131722   6.268   1.233   2.441  0.6529 -1.6220 -0.3112
 6581SOL    HW231723   6.264   1.301   2.306 -0.9323 -0.3391  0.3488
 6582SOL     OW31724  13.651  11.504   0.731  0.5380 -0.3433  0.2035
 6582SOL    HW131725  13.696  11.562   0.792  2.8844 -2.9667  1.1779
 6582SOL    HW231726  13.648  11.553   0.649  0.8607  1.7707  1.3973
 6583SOL     OW31727  13.721   3.788   0.442 -0.0341 -0.1082 -0.3362
 6583SOL    HW131728  13.665   3.854   0.484  0.3235  0.0845 -0.1526
 6583SOL    HW231729  13.776   3.755   0.513 -0.8516 -1.3010 -0.2181
 6584SOL     OW31730  12.683  10.798   7.242  0.7411 -0.0092  0.4169
 6584SOL    HW131731  12.733  10.834   7.316  0.0232  0.5859  0.6272
 6584SOL    HW231732  12.595  10.833   7.254 -0.0408 -1.9287  0.6927
 6585SOL     OW31733   7.896  13.346  10.760  0.8937 -0.2468 -0.0187
 6585SOL    HW131734   7.913  13.440  10.767  0.6518  0.0193 -2.1804
 6585SOL    HW231735   7.802  13.337  10.775  0.9348 -0.1585  0.2956
 6586SOL     OW31736   3.708  12.924   1.962 -0.6240 -0.8142  0.0890
 6586SOL    HW131737   3.681  12.893   2.049 -0.6408 -0.5809  0.1688
 6586SOL    HW231738   3.765  12.855   1.929  0.2011 -0.4395  0.7047
 6587SOL     OW31739   7.805   9.159   7.147 -0.8064  0.2451  0.3257
 6587SOL    HW131740   7.887   9.127   7.183 -1.4878  0.8853  2.5663
 6587SOL    HW231741   7.749   9.081   7.139 -1.3422  0.3169  2.6851
 6588SOL     OW31742   2.175   5.529  11.246  0.6517 -0.1073 -0.7368
 6588SOL    HW131743   2.176   5.437  11.273  0.5612 -1.2192 -4.0912
 6588SOL    HW231744   2.132   5.574  11.318 -0.0006 -2.7974  0.7142
 6589SOL     OW31745   5.263   3.723  13.793  0.2809  0.3086 -0.0072
 6589SOL    HW131746   5.279   3.704  13.886  1.0770 -1.1242 -0.4026
 6589SOL    HW231747   5.240   3.638  13.755 -1.2136  1.0811 -0.9107
 6590SOL     OW31748   5.471   4.568   1.826  0.1220 -0.3762  0.2552
 6590SOL    HW131749   5.452   4.648   1.777 -1.3432 -0.8479 -0.0091
 6590SOL    HW231750   5.389   4.547   1.870  0.5163 -1.6631  0.4253
 6591SOL     OW31751   3.595   9.014   5.814  0.0416 -0.2563 -0.0591
 6591SOL    HW131752   3.616   9.013   5.907 -0.1605  1.6044  0.0329
 6591SOL    HW231753   3.527   9.080   5.805  2.1776  1.9090 -1.8905
 6592SOL     OW31754  11.485   4.978  11.110  0.6312 -0.2528 -0.0044
 6592SOL    HW131755  11.505   5.008  11.199  1.3996 -0.6493 -0.0424
 6592SOL    HW231756  11.404   4.927  11.120 -1.0794  2.2450 -0.0182
 6593SOL     OW31757   0.263   8.109  13.853  0.0965 -0.1701 -0.0287
 6593SOL    HW131758   0.296   8.170  13.919 -0.2870 -1.1965  1.1467
 6593SOL    HW231759   0.286   8.022  13.886 -2.7760 -0.8999  0.3293
 6594SOL     OW31760   7.322   9.822   6.117 -0.0495  0.0527 -0.5539
 6594SOL    HW131761   7.412   9.803   6.092 -0.7595 -0.4804 -2.9889
 6594SOL    HW231762   7.269   9.778   6.051 -2.1166  0.5730  0.6531
 6595SOL     OW31763   4.564  12.280   7.869 -0.2173 -0.0751  0.2006
 6595SOL    HW131764   4.521  12.212   7.816  0.2595  1.1289 -1.8303
 6595SOL    HW231765   4.644  12.301   7.821  1.0986 -0.0424  2.2835
 6596SOL     OW31766   0.196  10.365  12.819  0.0575  0.5822  0.0880
 6596SOL    HW131767   0.196  10.271  12.836 -1.8992  0.2744 -1.4216
 6596SOL    HW231768   0.174  10.404  12.904  0.3741 -0.3202  0.6013
 6597SOL     OW31769  11.099   9.674   6.337 -0.3301  1.0007  0.8020
 6597SOL    HW131770  11.166   9.737   6.364  1.4573  1.0475 -3.1003
 6597SOL    HW231771  11.141   9.589   6.348 -1.4880  0.6064  2.7573
 6598SOL     OW31772   0.413   9.704  12.661 -0.1256  0.7150 -0.2747
 6598SOL    HW131773   0.493   9.660  12.632 -1.1612 -0.2448 -1.8246
 6598SOL    HW231774   0.444   9.784  12.703  1.6916 -0.2023  0.2664
 6599SOL     OW31775   1.126   2.969   0.304  0.0996 -0.0395 -0.1028
 6599SOL    HW131776   1.122   2.874   0.315 -2.0311 -0.1316 -1.0376
 6599SOL    HW231777   1.107   3.004   0.391  1.7348 -0.4142  0.4435
 6600SOL     OW31778   9.287   3.606   1.442  0.5922 -1.0546  0.1435
 6600SOL    HW131779   9.256   3.602   1.532  0.4822 -0.2441  0.1440
 6600SOL    HW231780   9.254   3.526   1.402 -2.6224  0.2985 -0.2022
 6601SOL     OW31781  13.888   7.235   7.388 -0.1625 -0.3637  0.1412
 6601SOL    HW131782  13.807   7.183   7.386  0.2886 -1.0662 -0.8751
 6601SOL    HW231783  13.944   7.195   7.321  1.6233 -0.8619  1.8265
 6602SOL     OW31784   3.995   7.197   1.178  0.2388 -0.2508  0.1607
 6602SOL    HW131785   3.987   7.292   1.181  1.6494 -0.1348  0.5329
 6602SOL    HW231786   4.022   7.172   1.266 -1.5579 -1.1691  0.5121
 6603SOL     OW31787   3.120  11.996   3.099 -0.6052 -0.0908  0.2681
 6603SOL    HW131788   3.066  11.917   3.097 -1.2516  0.3561 -0.2287
 6603SOL    HW231789   3.153  12.005   3.010  0.6790 -0.6046  0.6651
 6604SOL     OW31790  11.617  13.420  11.252  0.4842 -0.2691  0.1116
 6604SOL    HW131791  11.661  13.415  11.336 -0.3782  0.1003  0.5982
 6604SOL    HW231792  11.528  13.448  11.273 -0.8773 -3.5638 -0.5095
 6605SOL     OW31793   6.619   8.362  13.965  0.0959 -0.1941 -0.3949
 6605SOL    HW131794   6.621   8.310  14.046 -1.2178  1.4846  0.8108
 6605SOL    HW231795   6.534   8.341  13.925  0.6743 -0.9005 -1.2779
 6606SOL     OW31796   9.818  12.507  11.413  0.1666  0.4014 -0.0385
 6606SOL    HW131797   9.823  12.597  11.381  0.7799  1.4573  2.7532
 6606SOL    HW231798   9.728  12.496  11.443  0.2040  0.2479  0.0201
 6607SOL     OW31799  11.289   4.725   3.546 -0.0116  0.4308 -0.1233
 6607SOL    HW131800  11.321   4.713   3.457  0.8484  1.4372  0.0334
 6607SOL    HW231801  11.239   4.807   3.543  1.2680  1.2586  0.6255
 6608SOL     OW31802   9.224   9.543   5.144 -0.2583  0.1367 -0.1664
 6608SOL    HW131803   9.289   9.497   5.091  0.8969 -0.8624  1.9655
 6608SOL    HW231804   9.153   9.480   5.155 -0.1982  0.0913 -0.0268
 6609SOL     OW31805  12.040  11.209   0.465 -0.1492  0.0353 -0.1273
 6609SOL    HW131806  12.088  11.175   0.541 -2.2560 -0.6649  0.9636
 6609SOL    HW231807  12.094  11.282   0.435  0.6099  0.5892  2.2887
 6610SOL     OW31808   0.515  11.696  10.113  0.1448 -0.1891  0.4189
 6610SOL    HW131809   0.447  11.647  10.159  0.4901 -0.2084  0.9194
 6610SOL    HW231810   0.582  11.630  10.092 -0.0677 -0.2026 -0.2242
 6611SOL     OW31811  13.021  12.525   9.189  0.0374  0.9530 -0.1647
 6611SOL    HW131812  13.060  12.442   9.160 -0.9145  0.2736  0.4600
 6611SOL    HW231813  13.044  12.531   9.282 -0.8249  0.8422  0.0625
 6612SOL     OW31814  11.072   5.676   6.854 -0.5379  0.1593 -0.1641
 6612SOL    HW131815  10.988   5.644   6.887 -0.6531 -1.2352 -1.7244
 6612SOL    HW231816  11.084   5.632   6.770  1.3666  0.9853 -0.3765
 6613SOL     OW31817  12.597  11.987   2.791  0.0609  0.2021 -0.3558
 6613SOL    HW131818  12.539  11.991   2.867  1.2513  1.5339  0.5543
 6613SOL    HW231819  12.663  12.055   2.808  0.9581 -0.1677 -2.0971
 6614SOL     OW31820   3.948  11.315   0.039 -0.4398 -0.0572 -0.0750
 6614SOL    HW131821   3.902  11.362  -0.031 -0.0603 -0.5905 -0.6946
 6614SOL    HW231822   4.016  11.266  -0.007  0.4121  0.3153  0.7758
 6615SOL     OW31823  13.501  12.522  10.856  0.0921 -0.1569  0.2666
 6615SOL    HW131824  13.458  12.586  10.800  1.9007  1.3454  0.4924
 6615SOL    HW231825  13.554  12.574  10.916 -0.9427 -1.7376  2.7329
 6616SOL     OW31826   4.286  12.962   7.821  0.4771 -0.8599  0.1360
 6616SOL    HW131827   4.345  12.903   7.773 -0.2140 -1.6444  0.2318
 6616SOL    HW231828   4.254  13.023   7.754  0.0667 -1.5124 -0.2783
 6617SOL     OW31829   5.882   1.792   6.190 -0.7607  0.0985  0.1843
 6617SOL    HW131830   5.915   1.797   6.100  1.3952 -2.3459  0.7405
 6617SOL    HW231831   5.829   1.713   6.191 -0.5226 -0.0538  1.1244
 6618SOL     OW31832   9.575   1.292   7.674 -0.3710  0.8785 -0.6782
 6618SOL    HW131833   9.610   1.211   7.711 -0.3117  1.5132  0.7195
 6618SOL    HW231834   9.550   1.269   7.584  0.2119 -0.5179 -0.5047
 6619SOL     OW31835  11.484   2.010   3.804 -0.1338 -0.1591  0.5058
 6619SOL    HW131836  11.421   2.072   3.766 -0.2810  0.0679  1.0946
 6619SOL    HW231837  11.569   2.050   3.789 -0.2727  0.6094  1.5823
 6620SOL     OW31838   3.359   6.788   1.410 -1.1612  0.3042 -0.0846
 6620SOL    HW131839   3.286   6.817   1.465 -0.3247 -0.0608  1.2680
 6620SOL    HW231840   3.325   6.711   1.363 -1.4726 -0.2483  1.0108
 6621SOL     OW31841  12.907   1.323   9.892  0.2197  0.3891 -0.2554
 6621SOL    HW131842  12.878   1.246   9.941  0.5414  1.3259  1.4601
 6621SOL    HW231843  13.001   1.310   9.880 -0.1100 -0.6308 -2.1544
 6622SOL     OW31844   4.165   1.901   2.312  0.3975 -0.1657  0.4875
 6622SOL    HW131845   4.211   1.961   2.371  1.1463  0.6993 -0.9045
 6622SOL    HW231846   4.120   1.959   2.249  0.5254 -1.0440 -0.4421
 6623SOL     OW31847   6.172   6.648   3.160  0.3262  0.0547  0.5016
 6623SOL    HW131848   6.164   6.711   3.088 -0.0687  0.1525  0.6275
 6623SOL    HW231849   6.215   6.573   3.121 -0.7522 -0.2797 -0.0966
 6624SOL     OW31850   1.625   9.625   3.543  0.4751 -0.1765  0.1201
 6624SOL    HW131851   1.694   9.559   3.545  1.4426  0.8057  0.4535
 6624SOL    HW231852   1.668   9.703   3.508 -1.0429 -0.1419 -1.8299
 6625SOL     OW31853   4.362   7.896   9.089  0.1172 -0.0417  0.3380
 6625SOL    HW131854   4.435   7.952   9.061  0.4322 -1.5832 -2.2157
 6625SOL    HW231855   4.287   7.955   9.093  1.2206  1.3522  1.8930
 6626SOL     OW31856   7.460   2.952   9.583 -0.3971 -0.7368 -0.8616
 6626SOL    HW131857   7.509   2.897   9.523 -1.9714 -1.1841 -1.7938
 6626SOL    HW231858   7.448   2.898   9.661  2.3906  0.1418  0.3282
 6627SOL     OW31859   2.437   4.679   6.730 -0.6849 -0.2150  0.9350
 6627SOL    HW131860   2.506   4.733   6.767  0.9356 -2.2553  1.0327
 6627SOL    HW231861   2.368   4.679   6.797 -0.2318  0.7469  1.4231
 6628SOL     OW31862  13.447   9.636  10.802 -0.4663  0.4423  0.2795
 6628SOL    HW131863  13.493   9.562  10.840  0.0957  0.0860 -1.0237
 6628SOL    HW231864  13.511   9.708  10.804 -1.1301  1.0264  1.8756
 6629SOL     OW31865   4.383   1.746   0.062  0.4608 -0.6072 -0.3473
 6629SOL    HW131866   4.467   1.703   0.049  1.0618  0.2917  0.3605
 6629SOL    HW231867   4.333   1.686   0.117 -0.6971 -2.7072 -3.4321
 6630SOL     OW31868   8.572   8.154  11.104 -0.0521 -0.4118  0.2918
 6630SOL    HW131869   8.576   8.072  11.154  0.9018  0.1942  1.2596
 6630SOL    HW231870   8.661   8.190  11.110 -0.2663  0.3233 -0.7557
 6631SOL     OW31871   4.052  10.446  10.259 -0.6017 -0.0709  0.6678
 6631SOL    HW131872   4.019  10.364  10.221 -1.2518 -0.0357  1.1559
 6631SOL    HW231873   4.073  10.500  10.183 -2.2769  0.1593  0.3393
 6632SOL     OW31874  12.825   1.024   8.321  0.0031  0.2727 -0.4142
 6632SOL    HW131875  12.814   0.946   8.376  0.6081  0.6308  0.2262
 6632SOL    HW231876  12.859   1.091   8.380  1.1812  0.5198 -1.3297
 6633SOL     OW31877   0.058  10.182   1.105  0.0566 -0.5403 -0.2581
 6633SOL    HW131878   0.017  10.267   1.090  1.1922  0.5380  2.1230
 6633SOL    HW231879  -0.004  10.119   1.071 -0.1967  1.2314 -3.4360
 6634SOL     OW31880   0.416   6.964  10.381 -0.1425  0.2925  0.2383
 6634SOL    HW131881   0.328   6.993  10.409 -1.7399 -2.6757 -1.2731
 6634SOL    HW231882   0.405   6.943  10.288  2.7675  1.6746 -0.5226
 6635SOL     OW31883  13.301  10.893   3.470  0.1741  0.1202 -0.4242
 6635SOL    HW131884  13.335  10.806   3.491  0.5294  0.2022 -0.6546
 6635SOL    HW231885  13.335  10.949   3.540 -1.0444 -0.1386  0.4055
 6636SOL     OW31886   5.029  12.402  11.979  0.1413  0.4359  0.1249
 6636SOL    HW131887   5.066  12.324  11.937 -0.8138 -1.4989  2.6617
 6636SOL    HW231888   4.937  12.402  11.951  0.4525  1.5262 -0.9911
 6637SOL     OW31889   9.225   9.245   1.368 -0.1468  0.7268  0.8063
 6637SOL    HW131890   9.279   9.322   1.390 -0.0058  1.2841 -1.3058
 6637SOL    HW231891   9.153   9.280   1.316  0.4318 -0.6335 -1.0187
 6638SOL     OW31892   7.337   1.445   7.069  0.4226 -0.0940 -0.1654
 6638SOL    HW131893   7.314   1.451   6.976  3.9991  0.1133 -1.2001
 6638SOL    HW231894   7.326   1.353   7.090 -1.9136  0.1095 -0.2784
 6639SOL     OW31895   7.144   2.504   8.737  0.1448 -0.4808 -0.1192
 6639SOL    HW131896   7.060   2.485   8.779  0.1026  0.5480  0.2810
 6639SOL    HW231897   7.186   2.418   8.728 -0.5265 -0.8951  0.5741
 6640SOL     OW31898  10.180   1.919   1.163 -0.1817  0.7514  0.1513
 6640SOL    HW131899  10.204   1.942   1.073 -1.0451  0.6905 -0.1006
 6640SOL    HW231900  10.258   1.877   1.198  0.0309  0.4165 -0.7024
 6641SOL     OW31901  12.445   6.006   4.848  0.5349 -0.2013  0.3732
 6641SOL    HW131902  12.369   6.063   4.859  1.4306  0.8520  1.3778
 6641SOL    HW231903  12.408   5.919   4.829 -0.8613  0.6440 -0.9258
 6642SOL     OW31904   8.252  13.493   6.749  0.0076 -0.2186 -0.6142
 6642SOL    HW131905   8.161  13.524   6.742  0.4231  0.9159 -1.4029
 6642SOL    HW231906   8.272  13.500   6.842 -0.6719 -0.3659 -0.4463
 6643SOL     OW31907   3.834   0.775   8.500  0.2892  0.0713 -0.3000
 6643SOL    HW131908   3.827   0.769   8.595  0.0544  1.2115 -0.2385
 6643SOL    HW231909   3.878   0.694   8.475 -1.2483 -1.0973  0.5913
 6644SOL     OW31910   0.957   0.752  13.431 -0.3122 -0.4111 -0.3194
 6644SOL    HW131911   0.913   0.784  13.352  0.7145  0.9452 -0.3797
 6644SOL    HW231912   0.918   0.802  13.502  1.3689  1.1576 -0.4232
 6645SOL     OW31913   1.368   2.766   6.407 -0.1145  0.4449  0.5094
 6645SOL    HW131914   1.278   2.738   6.424 -0.3079  1.8088  2.0662
 6645SOL    HW231915   1.412   2.688   6.372 -1.2449 -1.0190  2.1601
 6646SOL     OW31916   3.011   0.951  10.038  0.4225 -0.6641  0.2898
 6646SOL    HW131917   3.094   0.983  10.004  1.0287 -1.0158  1.3848
 6646SOL    HW231918   3.005   0.861  10.007  0.8553 -0.9048  0.8891
 6647SOL     OW31919   7.682   6.553   6.202 -0.2227 -0.5120  0.7398
 6647SOL    HW131920   7.633   6.548   6.284 -3.6762 -0.5267 -1.1529
 6647SOL    HW231921   7.697   6.647   6.188 -1.1716 -0.3683  0.6054
 6648SOL     OW31922   2.391  13.233   1.551 -0.0226 -0.4391 -0.1656
 6648SOL    HW131923   2.463  13.253   1.611 -1.2231  0.6820  0.9810
 6648SOL    HW231924   2.325  13.192   1.607 -1.6982  1.7924 -0.3755
 6649SOL     OW31925   2.828  13.303   8.632  0.7809  0.2378  0.4892
 6649SOL    HW131926   2.822  13.325   8.725 -2.4991 -1.0417  0.7065
 6649SOL    HW231927   2.889  13.230   8.629 -0.7827 -1.2181  2.0244
 6650SOL     OW31928   9.990   0.147   2.681 -0.0987 -0.1015  0.1325
 6650SOL    HW131929   9.941   0.156   2.763 -1.2418 -1.0891 -0.4128
 6650SOL    HW231930  10.032   0.061   2.687  1.3346  0.5899  0.4448
 6651SOL     OW31931  13.457  12.336   1.378  0.1535 -0.1621 -0.2809
 6651SOL    HW131932  13.477  12.320   1.470  0.7707  0.8948 -0.2102
 6651SOL    HW231933  13.518  12.406   1.352 -1.4793  1.1019 -0.8810
 6652SOL     OW31934   4.840  11.916  13.927  0.0372  0.5050 -0.6457
 6652SOL    HW131935   4.776  11.913  13.856 -2.2309  0.8911  1.2634
 6652SOL    HW231936   4.789  11.939  14.005  2.5589  1.1065  0.9652
 6653SOL     OW31937   1.611  10.121   2.691 -0.2709  0.0711  0.3333
 6653SOL    HW131938   1.605  10.176   2.614 -0.5628 -0.2464  0.1258
 6653SOL    HW231939   1.620  10.182   2.764 -2.0950  0.4779  0.2641
 6654SOL     OW31940   3.925  12.944   8.826 -0.4427 -0.0417  0.4330
 6654SOL    HW131941   3.925  12.993   8.908 -1.9195  1.5910 -0.4736
 6654SOL    HW231942   3.834  12.946   8.797  0.0308 -0.6428 -1.1957
 6655SOL     OW31943   9.521  11.627   9.255 -0.1808  0.5818 -0.0418
 6655SOL    HW131944   9.553  11.716   9.245 -3.2433  1.6643 -1.6981
 6655SOL    HW231945   9.585  11.573   9.210  1.6451  1.9092  0.8365
 6656SOL     OW31946   0.167   2.936   1.659 -0.0295  0.4027  0.4768
 6656SOL    HW131947   0.247   2.978   1.692 -0.2844  1.2899 -0.0099
 6656SOL    HW231948   0.189   2.843   1.655  1.1034  0.6726  0.0200
 6657SOL     OW31949  11.579  13.309   3.216 -0.0700  0.1876 -0.6680
 6657SOL    HW131950  11.591  13.402   3.197  0.1114  0.4288  0.5569
 6657SOL    HW231951  11.597  13.265   3.133 -0.0097  1.2335 -1.2204
 6658SOL     OW31952  11.749   2.885   3.678 -0.1115 -0.7122  0.4215
 6658SOL    HW131953  11.796   2.811   3.715 -0.0299 -0.9787 -0.1960
 6658SOL    HW231954  11.660   2.853   3.665 -0.1846 -0.5632  0.5641
 6659SOL     OW31955   9.240   7.545  12.242 -0.7550  0.1922  0.1560
 6659SOL    HW131956   9.275   7.456  12.254 -0.3147  0.5753  1.8989
 6659SOL    HW231957   9.299   7.601  12.292 -1.2705  1.4327 -0.5896
 6660SOL     OW31958   2.961   8.429   0.923 -0.6844 -0.1886 -0.1492
 6660SOL    HW131959   2.986   8.511   0.965 -1.6097  0.0790 -0.1034
 6660SOL    HW231960   3.017   8.363   0.964  0.5839  0.5010 -0.7044
 6661SOL     OW31961   2.594   1.332   6.851  0.1497 -0.1585 -0.1441
 6661SOL    HW131962   2.585   1.389   6.927  1.1807 -0.7609  0.4690
 6661SOL    HW231963   2.505   1.304   6.831 -0.1257 -0.1860  1.0120
 6662SOL     OW31964   1.850   8.435   1.324  0.0183  0.2562  0.2175
 6662SOL    HW131965   1.934   8.413   1.283 -0.4042 -0.2217 -0.4064
 6662SOL    HW231966   1.856   8.398   1.412 -0.6847 -2.5160 -0.7916
 6663SOL     OW31967   2.893  13.978   5.824  0.3903  0.7170  0.3520
 6663SOL    HW131968   2.881  13.884   5.831  0.5309  0.7269  0.7699
 6663SOL    HW231969   2.859  14.012   5.907  0.1635  1.0497  0.1260
 6664SOL     OW31970  11.225   2.376   5.354 -0.6572  0.1944 -0.2452
 6664SOL    HW131971  11.304   2.426   5.334 -0.8478  0.1358 -1.2117
 6664SOL    HW231972  11.251   2.316   5.424 -0.1547  0.9405  0.2205
 6665SOL     OW31973  13.954   0.933   6.945  0.1613 -0.5085  0.1669
 6665SOL    HW131974  14.007   0.995   6.995  1.0274 -0.2199 -1.0723
 6665SOL    HW231975  13.975   0.952   6.854 -1.7648 -0.6842 -0.3481
 6666SOL     OW31976   1.982   9.633   9.793  0.3816 -0.2972  0.0232
 6666SOL    HW131977   1.943   9.720   9.792  1.3560  0.1448 -1.4875
 6666SOL    HW231978   1.987   9.607   9.701 -0.0583 -2.0340  0.4526
 6667SOL     OW31979   7.076   4.588  10.919  0.7215  0.5050 -0.4246
 6667SOL    HW131980   7.000   4.645  10.934 -1.9707 -1.9506 -3.2776
 6667SOL    HW231981   7.062   4.515  10.979  1.5038  0.5553 -0.1767
 6668SOL     OW31982   2.281   4.585   9.675 -0.1965 -0.0932  0.0490
 6668SOL    HW131983   2.350   4.638   9.633 -0.8006 -0.4556 -1.4899
 6668SOL    HW231984   2.200   4.633   9.655 -0.6607 -1.1298 -0.6176
 6669SOL     OW31985   6.847  13.848  11.138 -0.1355 -0.6800 -0.1014
 6669SOL    HW131986   6.907  13.778  11.160  0.5579 -0.3414 -0.8752
 6669SOL    HW231987   6.895  13.904  11.077  0.0757  1.5617  1.9639
 6670SOL     OW31988   5.332   6.547   6.725  0.6569 -0.0047 -0.5210
 6670SOL    HW131989   5.422   6.568   6.747  0.3725 -0.4882  1.2882
 6670SOL    HW231990   5.294   6.630   6.694  1.5011  0.3771 -0.5501
 6671SOL     OW31991   3.287   4.198   3.293 -0.5892 -0.1814 -0.4764
 6671SOL    HW131992   3.289   4.239   3.207 -1.9140 -1.2723 -1.0546
 6671SOL    HW231993   3.295   4.104   3.275  1.2549 -0.3102  0.7406
 6672SOL     OW31994   8.541   1.629   7.640 -0.0822 -0.5270 -0.0939
 6672SOL    HW131995   8.564   1.721   7.648 -0.5089 -0.3966 -0.3009
 6672SOL    HW231996   8.474   1.627   7.571 -0.7646 -0.8689  0.5597
 6673SOL     OW31997   5.690  12.892   9.807  0.3635 -0.0012 -0.3868
 6673SOL    HW131998   5.660  12.964   9.862 -0.3076 -1.4043  1.2084
 6673SOL    HW231999   5.617  12.875   9.747  0.7080  0.9111 -1.0826
 6674SOL     OW32000   5.398   4.899   6.529  0.0637  0.4618 -0.4220
 6674SOL    HW132001   5.322   4.938   6.573 -1.0418 -0.7395 -1.2080
 6674SOL    HW232002   5.365   4.870   6.444  0.5879 -2.8698  0.3861
 6675SOL     OW32003   9.867   0.671  10.405  0.2342  0.1334  0.0580
 6675SOL    HW132004   9.862   0.750  10.352 -0.5206 -0.7432 -1.2547
 6675SOL    HW232005   9.959   0.665  10.431  0.5823  0.7192 -0.9964
 6676SOL     OW32006   4.635   6.636  12.903  0.1516 -0.2599 -0.1894
 6676SOL    HW132007   4.622   6.542  12.888  0.2879 -0.4669  0.8722
 6676SOL    HW232008   4.638   6.644  12.999 -1.3300  1.0423 -0.2236
 6677SOL     OW32009  13.658   3.543  11.795  1.2285 -0.4324 -0.3900
 6677SOL    HW132010  13.746   3.550  11.757  0.3763 -0.3207 -2.5349
 6677SOL    HW232011  13.612   3.621  11.763  0.5217 -0.1527  1.2409
 6678SOL     OW32012   3.696  10.387   4.874 -0.6098 -0.4197  0.8994
 6678SOL    HW132013   3.618  10.443   4.877 -0.1824  0.4042 -1.5801
 6678SOL    HW232014   3.767  10.446   4.851  0.7905 -1.2036  2.9066
 6679SOL     OW32015   2.862   1.149   0.119  0.0400  0.0838 -0.5330
 6679SOL    HW132016   2.847   1.213   0.049  2.7263  0.9887 -0.4052
 6679SOL    HW232017   2.778   1.103   0.128 -0.3524 -0.2806 -4.4830
 6680SOL     OW32018   9.899   5.081   8.683  0.4342 -0.0049 -0.7914
 6680SOL    HW132019   9.890   5.063   8.590 -0.9339  2.9191 -1.3598
 6680SOL    HW232020   9.967   5.149   8.688  0.9998 -0.6237  0.4331
 6681SOL     OW32021   7.964   5.472   0.376 -0.1192 -0.1875  0.3297
 6681SOL    HW132022   8.042   5.484   0.431  0.5749 -0.2211 -0.6124
 6681SOL    HW232023   7.971   5.541   0.310 -0.9403 -0.1484  0.2777
 6682SOL     OW32024   4.209   4.926  13.774 -0.2473 -0.9828 -0.4262
 6682SOL    HW132025   4.287   4.934  13.829  1.7974 -1.7317 -2.9789
 6682SOL    HW232026   4.220   4.841  13.730 -2.1673 -0.7888 -1.3849
 6683SOL     OW32027   3.815   0.051   6.339  0.1760 -0.1887  0.0233
 6683SOL    HW132028   3.859  -0.007   6.401 -0.7743  0.2944  1.1932
 6683SOL    HW232029   3.883   0.113   6.312  0.6498 -0.5317  0.4150
 6684SOL     OW32030   6.760   9.274  13.072 -0.0110  0.5646 -0.1679
 6684SOL    HW132031   6.702   9.347  13.054 -0.0865  0.2527 -1.2815
 6684SOL    HW232032   6.768   9.272  13.167 -0.4359  1.6774 -0.0934
 6685SOL     OW32033   1.724  13.222  13.739  0.0785  0.3912 -0.4243
 6685SOL    HW132034   1.673  13.160  13.686  3.6509 -0.7779 -2.8835
 6685SOL    HW232035   1.730  13.300  13.684 -1.0866  1.5121  0.9606
 6686SOL     OW32036   5.280  11.241   1.879 -0.2680  0.4698  0.3222
 6686SOL    HW132037   5.289  11.329   1.843  2.5498  0.8502  1.7004
 6686SOL    HW232038   5.222  11.252   1.955 -1.9860  0.6010 -0.9475
 6687SOL     OW32039  11.606   9.456   7.389 -0.4833  0.1255  0.1715
 6687SOL    HW132040  11.643   9.481   7.304 -0.7673  0.7497  0.2297
 6687SOL    HW232041  11.562   9.534   7.420 -2.4100 -0.7705 -0.1713
 6688SOL     OW32042  11.593   4.703   3.763 -0.4876 -0.4249 -0.7297
 6688SOL    HW132043  11.507   4.668   3.787 -0.9831 -0.4197 -2.3421
 6688SOL    HW232044  11.642   4.705   3.845 -0.8335 -3.6981 -0.2915
 6689SOL     OW32045  11.836   6.276   7.000  0.1667 -0.1135  0.0447
 6689SOL    HW132046  11.758   6.329   7.016 -0.1344 -0.8314  1.1019
 6689SOL    HW232047  11.901   6.308   7.061 -0.3888 -1.6608  1.5315
 6690SOL     OW32048   9.322   8.779  12.555 -0.7508 -0.0110  0.3169
 6690SOL    HW132049   9.284   8.836  12.489  0.3255  0.0621 -0.2747
 6690SOL    HW232050   9.393   8.733  12.509 -0.3240 -0.3517  1.2782
 6691SOL     OW32051   0.306  11.461   4.453  0.0331 -0.1487 -0.8916
 6691SOL    HW132052   0.351  11.411   4.384 -0.9849 -0.9962 -0.9654
 6691SOL    HW232053   0.250  11.396   4.496  1.2582  0.1704  1.2966
 6692SOL     OW32054   2.262  12.099   8.467 -0.4058  0.1054 -0.0249
 6692SOL    HW132055   2.261  12.023   8.525 -0.2593 -0.4362 -0.7161
 6692SOL    HW232056   2.173  12.134   8.472 -1.2749 -1.6621 -1.6762
 6693SOL     OW32057  13.749   9.464  12.871  0.2024  0.0057  0.4646
 6693SOL    HW132058  13.700   9.546  12.871  0.7367  0.3293  0.4674
 6693SOL    HW232059  13.799   9.466  12.953 -1.1112 -1.1379  1.3565
 6694SOL     OW32060  12.814  13.369   1.712 -0.3463  0.1794 -0.0068
 6694SOL    HW132061  12.810  13.309   1.637  2.0250 -0.5726  0.3834
 6694SOL    HW232062  12.761  13.444   1.685 -1.4184 -1.0281 -1.4904
 6695SOL     OW32063  14.002   0.660   7.063  0.1748  0.1312 -0.0586
 6695SOL    HW132064  14.082   0.685   7.109 -0.5219  0.0795  1.2131
 6695SOL    HW232065  13.996   0.723   6.991  3.9712 -2.7812 -3.3974
 6696SOL     OW32066   0.089  12.823  13.860  0.1024  0.2231  0.1212
 6696SOL    HW132067   0.156  12.789  13.920 -0.8168  0.5832  1.3925
 6696SOL    HW232068   0.029  12.871  13.916 -0.9620  0.3285 -1.0642
 6697SOL     OW32069  13.687  13.643   1.549  0.4618  0.3203  0.1781
 6697SOL    HW132070  13.767  13.682   1.514  2.3619 -2.1779  1.3638
 6697SOL    HW232071  13.713  13.606   1.634 -1.8747 -0.8806  0.4726
 6698SOL     OW32072   5.989   0.072   6.681 -0.3642 -0.1444 -0.3600
 6698SOL    HW132073   6.084   0.081   6.675 -0.5215  0.7807 -2.2351
 6698SOL    HW232074   5.976  -0.007   6.734  1.5059 -1.9605 -2.3751
 6699SOL     OW32075   0.805  11.145   7.601  0.6031  0.1044 -0.1008
 6699SOL    HW132076   0.798  11.174   7.692 -0.2011  0.9049 -0.3997
 6699SOL    HW232077   0.898  11.122   7.590  0.7230  0.0663  0.8900
 6700SOL     OW32078  13.076   3.052  12.472  0.4810  0.4669  0.6431
 6700SOL    HW132079  13.009   3.006  12.423  1.6437 -1.9607  1.2081
 6700SOL    HW232080  13.031   3.084  12.551 -0.2243 -0.2475  0.5371
 6701SOL     OW32081   8.419   3.680   9.482 -0.3828 -0.0106  0.4139
 6701SOL    HW132082   8.411   3.751   9.418  0.8017 -0.1778  0.0515
 6701SOL    HW232083   8.329   3.649   9.494 -0.6179 -0.1657 -1.4048
 6702SOL     OW32084   6.144  11.017   0.825  0.1365 -0.2226  0.5213
 6702SOL    HW132085   6.212  10.958   0.792  0.7575  0.4731  0.5179
 6702SOL    HW232086   6.073  10.960   0.853  0.2900 -0.9135 -0.4592
 6703SOL     OW32087   1.758   1.818   5.211 -0.1066 -0.7786 -0.6844
 6703SOL    HW132088   1.734   1.731   5.242 -0.7526 -0.6939 -0.9297
 6703SOL    HW232089   1.741   1.815   5.117  0.2124 -0.4948 -0.7548
 6704SOL     OW32090  11.602   6.914  12.977 -0.1997  0.4564  0.1473
 6704SOL    HW132091  11.563   6.828  12.959 -1.4443  0.7329  1.3528
 6704SOL    HW232092  11.664   6.898  13.049  1.5258  0.1370 -1.3366
 6705SOL     OW32093   7.203  11.563  11.521  0.2629  0.4033  0.4805
 6705SOL    HW132094   7.134  11.628  11.532 -0.2054  0.2015 -1.0617
 6705SOL    HW232095   7.282  11.607  11.551 -0.0979  1.5844 -0.2501
 6706SOL     OW32096   9.014  11.971  12.153  0.1093  0.4119  0.4031
 6706SOL    HW132097   8.987  11.962  12.245 -0.7414  0.6117  0.1817
 6706SOL    HW232098   9.046  12.061  12.147  0.9773  0.1316  0.7010
 6707SOL     OW32099  12.279  10.298  11.046  0.5527 -0.3609  0.1726
 6707SOL    HW132100  12.350  10.339  10.996 -0.3778  0.7140 -0.2995
 6707SOL    HW232101  12.242  10.369  11.098  0.0308 -0.9788  0.6604
 6708SOL     OW32102  13.974  13.054   4.956  0.2926 -0.0564 -0.4751
 6708SOL    HW132103  13.990  13.096   4.871  0.2894  0.9517  0.0101
 6708SOL    HW232104  14.009  13.116   5.020 -1.0301 -0.1107  0.3288
 6709SOL     OW32105   7.758   1.800   5.173  0.1790 -0.2684  0.6546
 6709SOL    HW132106   7.687   1.800   5.108  1.5497 -1.7036 -0.9584
 6709SOL    HW232107   7.765   1.708   5.200  0.8372  0.0099  1.4851
 6710SOL     OW32108  10.077   5.686   9.030 -0.9040 -0.5318  0.2580
 6710SOL    HW132109  10.152   5.650   9.077  1.1482 -0.2956 -2.5335
 6710SOL    HW232110  10.005   5.682   9.092  0.9568 -2.5491  2.4802
 6711SOL     OW32111   8.591  12.884   3.204 -0.3603 -0.5522  0.0701
 6711SOL    HW132112   8.566  12.799   3.240 -1.2502 -0.9418 -1.3720
 6711SOL    HW232113   8.567  12.947   3.272 -1.3382 -1.3097  0.4489
 6712SOL     OW32114   3.569   3.118   8.460 -0.0165  0.1955  0.6103
 6712SOL    HW132115   3.626   3.074   8.397 -1.4184  0.6109 -1.0056
 6712SOL    HW232116   3.528   3.047   8.509  0.2830 -0.1678  0.3437
 6713SOL     OW32117   8.465   5.469   3.726 -0.1217  0.3123 -0.1413
 6713SOL    HW132118   8.405   5.431   3.662 -1.6570  0.7475  0.9730
 6713SOL    HW232119   8.552   5.440   3.698 -0.7284  0.5081 -2.4019
 6714SOL     OW32120   5.564   0.519   4.083 -0.2997 -0.2147  0.2241
 6714SOL    HW132121   5.476   0.483   4.085 -0.1575 -0.5511  1.8124
 6714SOL    HW232122   5.556   0.606   4.121 -0.1847  0.3851 -1.0692
 6715SOL     OW32123   0.754  10.503   2.181 -0.2913 -0.0270  0.3532
 6715SOL    HW132124   0.782  10.594   2.186 -1.7749  0.3578  2.7407
 6715SOL    HW232125   0.835  10.454   2.163  0.8713  1.5643  1.0532
 6716SOL     OW32126  11.086   2.510   8.827  0.3076  0.3317  0.8156
 6716SOL    HW132127  11.016   2.503   8.891 -0.3393 -0.4009  0.0432
 6716SOL    HW232128  11.116   2.601   8.834  0.7309  0.0816  2.6375
 6717SOL     OW32129   0.892   1.560   3.477  0.1249 -0.1918  0.0573
 6717SOL    HW132130   0.935   1.495   3.532  1.1151 -0.9224 -1.4963
 6717SOL    HW232131   0.962   1.592   3.420 -0.4879  1.8051  0.3683
 6718SOL     OW32132   6.902   5.451   4.703 -0.3659 -0.0561  0.2084
 6718SOL    HW132133   6.942   5.530   4.666  1.6290 -0.9535  0.3160
 6718SOL    HW232134   6.904   5.464   4.798 -0.3843 -0.0747  0.2113
 6719SOL     OW32135   4.540  10.383   7.926 -0.3116  0.2003  0.3262
 6719SOL    HW132136   4.492  10.456   7.963  0.6352  0.0337  2.0002
 6719SOL    HW232137   4.629  10.393   7.959 -0.2893 -2.0286  1.1816
 6720SOL     OW32138   0.760   7.806   7.381 -0.3089  0.2309 -0.1557
 6720SOL    HW132139   0.743   7.897   7.407 -0.1536  0.1251  0.3183
 6720SOL    HW232140   0.674   7.772   7.357 -0.6488 -0.0178  1.3444
 6721SOL     OW32141  12.332  12.108   3.778  0.4910  0.3909  0.0450
 6721SOL    HW132142  12.272  12.067   3.841  0.5257  1.1286  0.5768
 6721SOL    HW232143  12.418  12.077   3.804  0.4845  0.5280  0.2317
 6722SOL     OW32144  13.462   3.980   6.430 -0.3170 -0.0227  0.1352
 6722SOL    HW132145  13.555   3.995   6.412 -0.7239  2.0445 -0.6233
 6722SOL    HW232146  13.425   3.955   6.345 -0.8262  1.5471 -0.1393
 6723SOL     OW32147  13.484   5.995   0.009  0.1445 -0.3117 -0.0962
 6723SOL    HW132148  13.405   6.040  -0.020  0.8157  0.7652 -0.2969
 6723SOL    HW232149  13.464   5.902  -0.005 -0.4927  0.0206 -1.6591
 6724SOL     OW32150  10.911   9.576  10.113 -0.0239  0.3728  0.1710
 6724SOL    HW132151  10.950   9.593  10.198 -0.0251 -2.4513  0.8396
 6724SOL    HW232152  10.975   9.608  10.050  1.3300 -0.1224  1.2529
 6725SOL     OW32153   8.562   1.950   6.122 -0.1287  0.3849  0.5202
 6725SOL    HW132154   8.472   1.940   6.154 -0.1937 -1.4053 -0.0819
 6725SOL    HW232155   8.614   1.962   6.201 -0.8775  1.4364  0.8791
 6726SOL     OW32156   5.244   0.747   5.878  0.1523 -0.2557  0.7122
 6726SOL    HW132157   5.214   0.671   5.828 -0.1298  0.3360 -0.0372
 6726SOL    HW232158   5.267   0.812   5.812 -0.9822  0.8327  1.3391
 6727SOL     OW32159   2.789   2.394  10.139  0.7757 -0.6543 -0.0221
 6727SOL    HW132160   2.714   2.379  10.195 -0.2065 -1.0023 -1.3728
 6727SOL    HW232161   2.847   2.320  10.157 -0.2383 -1.6114 -0.5699
 6728SOL     OW32162   6.748   5.829   0.840  0.4404  0.1403  0.8241
 6728SOL    HW132163   6.798   5.756   0.875 -2.7842 -3.4183 -1.2692
 6728SOL    HW232164   6.691   5.856   0.912  0.0523 -1.0399  0.9706
 6729SOL     OW32165   3.815   5.084   8.124 -0.6466 -0.1171  0.1708
 6729SOL    HW132166   3.900   5.084   8.080 -0.1398 -2.5914  0.9814
 6729SOL    HW232167   3.751   5.079   8.053 -0.0846  0.5395 -0.4018
 6730SOL     OW32168   0.791  12.163   7.122 -0.6404 -0.2483 -0.2350
 6730SOL    HW132169   0.772  12.251   7.089 -0.8634  0.4788  1.7424
 6730SOL    HW232170   0.887  12.158   7.124 -0.5444  1.0909  2.3524
 6731SOL     OW32171   3.506   2.342   9.237  0.0839 -0.3144  0.4938
 6731SOL    HW132172   3.544   2.287   9.168 -1.2133 -2.0383  1.0765
 6731SOL    HW232173   3.510   2.288   9.316 -0.9891  0.5402  1.1601
 6732SOL     OW32174   0.649   7.573   8.044 -0.3034 -0.3823 -0.1645
 6732SOL    HW132175   0.664   7.481   8.069  1.1495  0.5975  3.0642
 6732SOL    HW232176   0.727   7.597   7.994  0.9520 -0.0755  1.8343
 6733SOL     OW32177   0.797  11.159   2.401  0.2024  0.3362 -0.4073
 6733SOL    HW132178   0.812  11.248   2.432 -1.0791 -0.1368  1.7392
 6733SOL    HW232179   0.770  11.171   2.310  0.5951  2.0893 -0.3432
 6734SOL     OW32180   9.159   1.428  11.594 -1.1494 -0.0986 -0.3397
 6734SOL    HW132181   9.189   1.348  11.551 -0.6585  0.9051 -1.9554
 6734SOL    HW232182   9.067   1.436  11.568 -0.8076  0.5954 -1.3874
 6735SOL     OW32183   1.113   7.466  10.102  0.3533  0.0665 -0.1282
 6735SOL    HW132184   1.081   7.471  10.192  2.2638 -0.5679  0.6309
 6735SOL    HW232185   1.157   7.381  10.097  0.7174  0.3149 -1.5168
 6736SOL     OW32186  10.221  10.479  12.291 -0.1379 -0.2244 -0.5548
 6736SOL    HW132187  10.143  10.436  12.327 -1.0682  1.4118 -0.4994
 6736SOL    HW232188  10.186  10.540  12.225  1.1598  0.0841 -0.9778
 6737SOL     OW32189   6.912  10.237   1.431 -0.3610  0.1797  0.1540
 6737SOL    HW132190   7.000  10.220   1.465 -0.6324 -0.2096  0.6701
 6737SOL    HW232191   6.903  10.176   1.358  0.3861  1.3155 -0.9352
 6738SOL     OW32192  12.608   4.806   9.765 -0.5285  0.3287  0.3868
 6738SOL    HW132193  12.571   4.883   9.810 -0.5550  0.4497  0.1582
 6738SOL    HW232194  12.665   4.766   9.831  0.2404  1.0847  0.2041
 6739SOL     OW32195  12.588   6.842   0.435 -0.3882 -1.0181  0.0075
 6739SOL    HW132196  12.624   6.914   0.487  0.9404 -1.2406 -0.5862
 6739SOL    HW232197  12.657   6.776   0.433 -0.0757 -0.7069 -2.6751
 6740SOL     OW32198   2.294  10.269  11.739 -0.0675 -0.4935  0.2711
 6740SOL    HW132199   2.350  10.346  11.743 -2.0020  0.9412  2.1765
 6740SOL    HW232200   2.250  10.267  11.824 -2.2271 -2.0199 -0.7795
 6741SOL     OW32201   7.651   4.609  12.987 -0.5087  0.1588  0.3747
 6741SOL    HW132202   7.570   4.637  12.944  0.1375  1.7110  0.1082
 6741SOL    HW232203   7.721   4.643  12.932  0.3375 -0.0362  1.2952
 6742SOL     OW32204   6.199   8.300  13.570  0.3894 -0.1656  0.0669
 6742SOL    HW132205   6.199   8.325  13.662  0.8429 -1.6218  0.4868
 6742SOL    HW232206   6.111   8.322  13.539  1.1007  3.1338  0.0031
 6743SOL     OW32207   5.538   7.654  10.136 -0.6264  0.1675  0.0746
 6743SOL    HW132208   5.476   7.655  10.209 -2.4421  0.6346 -1.3786
 6743SOL    HW232209   5.497   7.710  10.069  0.4455 -1.0665 -1.7066
 6744SOL     OW32210   2.878   2.380   6.506  0.0505 -0.3830  0.0412
 6744SOL    HW132211   2.889   2.326   6.428 -1.8922  1.1241 -1.3730
 6744SOL    HW232212   2.792   2.357   6.540  0.3282 -0.0787  0.9916
 6745SOL     OW32213   4.225   6.226   5.009  0.2273 -0.2979 -0.0891
 6745SOL    HW132214   4.130   6.234   5.015  0.4000  4.5680  0.9413
 6745SOL    HW232215   4.244   6.226   4.915 -0.7933  0.1886 -0.3075
 6746SOL     OW32216   0.612   4.903  10.224  0.5822 -0.0367 -0.1090
 6746SOL    HW132217   0.539   4.845  10.201  1.9717 -1.7640 -0.3852
 6746SOL    HW232218   0.582   4.991  10.198 -1.2441 -0.7400 -0.5311
 6747SOL     OW32219   5.419  13.820   0.930  0.3824  0.0539  0.5246
 6747SOL    HW132220   5.426  13.911   0.904  1.8381 -0.4621 -1.0007
 6747SOL    HW232221   5.377  13.776   0.856  0.0040 -0.5921  1.1025
 6748SOL     OW32222  13.976   3.746   2.769  0.0937  0.7390 -0.0196
 6748SOL    HW132223  13.988   3.730   2.862  1.2101  0.9709 -0.1137
 6748SOL    HW232224  14.038   3.816   2.748 -1.5386  2.1266 -0.5231
 6749SOL     OW32225  12.755   5.519  13.747  0.3318 -0.1087 -0.3327
 6749SOL    HW132226  12.797   5.594  13.789  1.8688  0.4345 -2.6422
 6749SOL    HW232227  12.677   5.556  13.705  0.6427  0.0423 -0.7814
 6750SOL     OW32228   2.679   3.907   2.970 -0.4644 -0.4499 -0.0365
 6750SOL    HW132229   2.608   3.870   3.022  1.0402 -1.0279  1.7165
 6750SOL    HW232230   2.640   3.982   2.925 -1.6872  0.6289  2.6418
 6751SOL     OW32231   8.878   7.044   7.120 -0.0186 -0.1668  0.0787
 6751SOL    HW132232   8.935   7.045   7.043 -1.2614  1.4004 -0.9007
 6751SOL    HW232233   8.814   6.975   7.102 -1.1232  1.0765 -0.9989
 6752SOL     OW32234  10.004  10.469  10.486 -0.5935 -0.0013 -0.3502
 6752SOL    HW132235  10.034  10.548  10.531  0.7233 -1.5171  1.6151
 6752SOL    HW232236   9.909  10.467  10.501 -0.4782  0.6322  0.5212
 6753SOL     OW32237   6.974   1.818   6.259 -0.3557  0.2987 -0.1195
 6753SOL    HW132238   6.991   1.724   6.263 -1.1482  0.1780  0.4774
 6753SOL    HW232239   7.032   1.849   6.189  0.0249 -0.6003 -0.2222
 6754SOL     OW32240  13.221   5.631   6.294 -0.3760  0.1243  0.2377
 6754SOL    HW132241  13.201   5.695   6.362 -0.3272  0.7043 -0.2832
 6754SOL    HW232242  13.282   5.676   6.235  1.6334 -1.2297  1.1895
 6755SOL     OW32243   4.955  12.278   6.159 -0.6236  0.2975 -0.4757
 6755SOL    HW132244   4.937  12.329   6.080 -1.3751  0.0891 -0.4483
 6755SOL    HW232245   4.876  12.289   6.213  0.0423  0.7756  0.4355
 6756SOL     OW32246  12.394  11.432   5.713  0.4701  0.0033  0.4222
 6756SOL    HW132247  12.308  11.393   5.698  0.5186  0.1390 -0.2546
 6756SOL    HW232248  12.380  11.527   5.703  0.9920 -0.0605 -1.3857
 6757SOL     OW32249   4.463   8.464   7.320 -0.7319 -0.4161 -0.6248
 6757SOL    HW132250   4.486   8.445   7.229  2.9599  0.3382 -0.0267
 6757SOL    HW232251   4.439   8.379   7.357 -1.4394 -0.8721 -2.0615
 6758SOL     OW32252  12.741   3.532  11.152 -0.4908  0.2830 -0.5090
 6758SOL    HW132253  12.680   3.597  11.187 -1.1110  0.3714 -1.6984
 6758SOL    HW232254  12.817   3.537  11.210 -1.1715  0.9336  0.3644
 6759SOL     OW32255  10.574   6.472   1.114 -0.0025  0.1336 -0.3629
 6759SOL    HW132256  10.554   6.459   1.206 -0.3665 -1.4564 -0.6401
 6759SOL    HW232257  10.603   6.387   1.083  0.6193  0.7645 -1.6072
 6760SOL     OW32258   4.634   7.449   4.003  0.1072 -0.1294 -0.1823
 6760SOL    HW132259   4.688   7.396   4.062  0.4968  0.2070 -0.2314
 6760SOL    HW232260   4.545   7.439   4.037  0.4779  1.0750  1.2639
 6761SOL     OW32261   4.640  13.536   3.655 -0.1990  0.2828 -0.0950
 6761SOL    HW132262   4.576  13.598   3.690  0.7312  1.0939  0.1822
 6761SOL    HW232263   4.690  13.507   3.731 -1.6184 -2.0440  0.0534
 6762SOL     OW32264   7.280   6.602   9.985 -0.0560 -1.0932  0.1439
 6762SOL    HW132265   7.363   6.563  10.014  0.6509 -0.9939 -1.6124
 6762SOL    HW232266   7.213   6.549  10.027  0.8897 -1.5869  1.0948
 6763SOL     OW32267   2.629   3.583   1.827 -0.0783 -0.2229  0.2485
 6763SOL    HW132268   2.649   3.660   1.774 -3.0839  0.1001 -0.5845
 6763SOL    HW232269   2.642   3.611   1.918 -1.4222  1.3758 -0.0329
 6764SOL     OW32270   9.916   2.005   3.846  0.4984  0.2945  0.5083
 6764SOL    HW132271  10.002   2.035   3.816  0.6934 -0.8560 -0.1288
 6764SOL    HW232272   9.854   2.054   3.792  0.8387 -1.4147 -1.5504
 6765SOL     OW32273   3.977  13.298   9.346 -0.8099  0.3068  0.0219
 6765SOL    HW132274   4.056  13.244   9.336 -2.3928 -2.0660 -0.3143
 6765SOL    HW232275   4.009  13.388   9.337  2.1402 -0.4292  1.6394
 6766SOL     OW32276   9.581   3.282   4.243  0.6795 -0.3572 -0.3773
 6766SOL    HW132277   9.642   3.332   4.297  0.2983 -0.2221 -0.0638
 6766SOL    HW232278   9.494   3.316   4.267  0.5420  0.0994 -1.4811
 6767SOL     OW32279   4.888   0.420   3.004  0.3019 -0.2408 -0.1137
 6767SOL    HW132280   4.890   0.325   3.013  1.1657 -0.2206 -0.0593
 6767SOL    HW232281   4.808   0.446   3.051 -0.3192 -0.9898 -0.7227
 6768SOL     OW32282   5.774   8.819   8.044  0.1516 -0.0041  0.1182
 6768SOL    HW132283   5.696   8.768   8.063 -0.6556  1.4541  0.8821
 6768SOL    HW232284   5.820   8.769   7.976 -0.0790 -2.2036  1.4926
 6769SOL     OW32285   5.514   3.370   8.134  0.3575 -0.2506 -0.2153
 6769SOL    HW132286   5.581   3.363   8.066  0.7311 -2.3089  0.2857
 6769SOL    HW232287   5.435   3.336   8.093 -0.1251  1.1095 -0.4503
 6770SOL     OW32288  10.415  12.145  12.725  0.3974 -0.0163  0.1878
 6770SOL    HW132289  10.508  12.165  12.716  0.3140 -0.3308 -1.9732
 6770SOL    HW232290  10.413  12.055  12.758  0.8083  0.5873  1.9675
 6771SOL     OW32291   7.714   1.679  13.469 -0.2781 -0.0712 -0.4851
 6771SOL    HW132292   7.627   1.680  13.508 -0.1235  0.5870 -0.1469
 6771SOL    HW232293   7.735   1.586  13.460 -0.1966 -0.2520  1.2724
 6772SOL     OW32294   5.782  13.495   2.787 -0.0181  0.0853  0.3582
 6772SOL    HW132295   5.719  13.558   2.752  0.7187  0.5675 -0.1348
 6772SOL    HW232296   5.754  13.411   2.752 -0.8638  0.1700  0.8144
 6773SOL     OW32297   2.192   0.263   9.075  0.2298  0.1440 -0.2789
 6773SOL    HW132298   2.217   0.245   8.984  1.7444  1.1839 -0.1140
 6773SOL    HW232299   2.148   0.183   9.104  0.0695 -0.3564 -1.7918
 6774SOL     OW32300   6.663  10.562  11.773  0.2883 -0.4336  0.0964
 6774SOL    HW132301   6.714  10.489  11.810  1.7966  1.1053  1.1714
 6774SOL    HW232302   6.723  10.604  11.712 -1.5404 -1.7664 -2.8674
 6775SOL     OW32303  10.440   6.156   0.748 -0.1500  0.0569 -0.0935
 6775SOL    HW132304  10.524   6.118   0.722  1.0155  1.6042  1.2089
 6775SOL    HW232305  10.383   6.142   0.672  0.8896 -2.1092 -0.5554
 6776SOL     OW32306   6.300   7.228  10.787 -0.3715  0.1244 -0.1382
 6776SOL    HW132307   6.335   7.186  10.708 -0.8698 -1.3112  0.3612
 6776SOL    HW232308   6.206   7.229  10.774 -0.4990 -0.5463  0.6057
 6777SOL     OW32309   5.806   0.199   8.363  1.0209  0.1675 -0.3594
 6777SOL    HW132310   5.825   0.122   8.417 -0.0759 -0.6363 -1.0806
 6777SOL    HW232311   5.783   0.267   8.426  2.5818  0.1164  0.3216
 6778SOL     OW32312   9.576  13.451   4.685  0.2915 -0.5207 -0.0053
 6778SOL    HW132313   9.504  13.388   4.688 -0.2140  0.0707  0.7489
 6778SOL    HW232314   9.605  13.451   4.594  0.6151 -2.1757  0.0744
 6779SOL     OW32315   9.624   6.358   6.897 -0.1290 -0.5028 -0.3827
 6779SOL    HW132316   9.696   6.300   6.920 -0.5613 -1.2975 -0.9890
 6779SOL    HW232317   9.667   6.432   6.853  0.4346 -0.2772  0.5148
 6780SOL     OW32318   1.432   9.581   3.912  0.3334 -0.0551 -0.5394
 6780SOL    HW132319   1.461   9.669   3.891  0.3174  0.2554  0.6354
 6780SOL    HW232320   1.337   9.582   3.895  0.5384 -0.2652 -1.7949
 6781SOL     OW32321   9.155  13.710  12.513 -0.0971  0.0340 -0.0073
 6781SOL    HW132322   9.127  13.793  12.550 -0.1800  1.0608 -2.2083
 6781SOL    HW232323   9.079  13.653  12.520 -1.5804  1.5636 -2.4046
 6782SOL     OW32324   0.413   3.818   0.655 -0.1434  0.1596  0.4083
 6782SOL    HW132325   0.418   3.727   0.627  1.1704  0.0309  0.9740
 6782SOL    HW232326   0.435   3.869   0.576  0.0733 -0.0529  0.3305
 6783SOL     OW32327   0.090  10.738   4.619 -0.4112  0.2153  0.2603
 6783SOL    HW132328   0.005  10.755   4.578  0.1854 -0.3178 -1.2774
 6783SOL    HW232329   0.094  10.643   4.628 -1.1362  0.3678  3.0173
 6784SOL     OW32330   6.469   1.559  13.387  0.6458  0.2095 -0.4269
 6784SOL    HW132331   6.539   1.572  13.323  0.3948 -0.3534 -0.8254
 6784SOL    HW232332   6.490   1.475  13.428  2.3801  1.8328  2.2730
 6785SOL     OW32333   3.991   8.446   6.945 -0.5256  0.3499 -0.8292
 6785SOL    HW132334   4.028   8.520   6.898 -1.8938  0.5435 -1.6640
 6785SOL    HW232335   3.908   8.428   6.901  0.0407 -2.1004 -1.0941
 6786SOL     OW32336  10.671  10.560   6.710 -0.0066 -0.7749 -0.0351
 6786SOL    HW132337  10.654  10.478   6.663 -0.5373 -0.6803 -0.0147
 6786SOL    HW232338  10.649  10.628   6.647  0.2834 -0.6443  0.0019
 6787SOL     OW32339   3.072  13.352   6.061  0.1069 -0.3631 -0.3669
 6787SOL    HW132340   3.020  13.301   6.124 -2.1281  0.7692 -1.1759
 6787SOL    HW232341   3.104  13.287   5.999  0.0295 -1.1607  0.4061
 6788SOL     OW32342   2.743  13.919   2.675 -0.1479  0.1019 -0.0320
 6788SOL    HW132343   2.711  13.850   2.617 -1.0361 -0.1400  0.7180
 6788SOL    HW232344   2.683  13.992   2.660 -1.1532 -0.3734  1.4234
 6789SOL     OW32345  12.011   5.241   3.474 -0.4411 -0.3305  0.2667
 6789SOL    HW132346  11.986   5.252   3.382 -0.0777 -0.3971  0.1601
 6789SOL    HW232347  11.973   5.157   3.499 -1.2165  0.0560  0.4052
 6790SOL     OW32348   6.733   8.723   3.663  0.0485  0.2433  0.0633
 6790SOL    HW132349   6.734   8.660   3.591  1.4640 -0.0430  0.2935
 6790SOL    HW232350   6.821   8.761   3.663 -0.8125  2.3537 -0.1517
 6791SOL     OW32351   4.395   0.065  13.948 -0.3034  0.3370  0.1864
 6791SOL    HW132352   4.469   0.010  13.972  0.1689  0.6044 -0.6365
 6791SOL    HW232353   4.375   0.041  13.858 -0.6056  0.9452  0.0872
 6792SOL     OW32354   5.082   2.143   9.563  0.1810  0.0565  0.3769
 6792SOL    HW132355   5.145   2.094   9.509  0.3443  0.0832  0.5390
 6792SOL    HW232356   5.102   2.115   9.653  0.0952  0.2192  0.4459
 6793SOL     OW32357  11.007  11.920   1.841  0.6785 -0.3603  0.1747
 6793SOL    HW132358  11.028  11.832   1.810 -1.2703 -0.4662 -0.9679
 6793SOL    HW232359  10.989  11.970   1.762  0.2558  0.6668  0.9019
 6794SOL     OW32360   4.296   1.910   1.985  0.4635  0.5629  0.5636
 6794SOL    HW132361   4.275   1.948   1.900  0.9232 -0.1222  0.1371
 6794SOL    HW232362   4.219   1.858   2.008  0.5703  0.2730  0.2825
 6795SOL     OW32363   9.063   3.390   0.114  0.2886 -0.0953  0.2703
 6795SOL    HW132364   9.135   3.388   0.052  0.9395 -0.1373  1.0119
 6795SOL    HW232365   8.985   3.407   0.061  0.5592 -1.9199 -0.8121
 6796SOL     OW32366   7.435   1.211   6.816  0.2544  0.0042  0.2361
 6796SOL    HW132367   7.462   1.136   6.762  2.6968  0.2041  1.0400
 6796SOL    HW232368   7.511   1.228   6.872 -0.9805  1.8688  1.4431
 6797SOL     OW32369   5.013   3.832   5.754  0.3656  0.0341 -0.2822
 6797SOL    HW132370   5.075   3.889   5.708  0.8317  0.2909  0.6189
 6797SOL    HW232371   4.937   3.888   5.771 -0.3958 -0.4433 -1.8993
 6798SOL     OW32372   1.841  11.852   2.571 -0.3144 -0.1184 -0.3514
 6798SOL    HW132373   1.916  11.908   2.594  0.1600 -0.1896 -1.6256
 6798SOL    HW232374   1.840  11.853   2.475 -1.1731 -1.1595 -0.3653
 6799SOL     OW32375   2.096  11.862   0.799  0.7022  0.3382  0.6845
 6799SOL    HW132376   2.120  11.792   0.861 -0.2425  0.1675  0.8670
 6799SOL    HW232377   2.069  11.935   0.855  0.4122  0.3874  0.4793
 6800SOL     OW32378   2.578   5.956   5.044  0.5491  0.1965  0.4187
 6800SOL    HW132379   2.576   6.050   5.059 -2.5697  0.3427 -0.3246
 6800SOL    HW232380   2.555   5.945   4.952  0.5282 -1.2968  0.5706
 6801SOL     OW32381   8.846   8.241   4.438 -0.1568  0.7555  0.2248
 6801SOL    HW132382   8.763   8.197   4.456 -0.8161  2.0403  0.5078
 6801SOL    HW232383   8.885   8.252   4.525  0.2560  0.2542  0.1022
 6802SOL     OW32384   7.356   3.351   0.001 -0.6243 -0.0807  0.4120
 6802SOL    HW132385   7.404   3.271  -0.019 -0.1436  0.0887  0.8734
 6802SOL    HW232386   7.424   3.416   0.018 -0.9800  0.6345 -0.7201
 6803SOL     OW32387  12.426   5.746  12.561  0.2020 -0.0093  0.1600
 6803SOL    HW132388  12.480   5.781  12.490  0.0531 -1.1565 -0.5451
 6803SOL    HW232389  12.451   5.797  12.638  1.9081 -0.1599 -0.2570
 6804SOL     OW32390   7.608  11.724  10.590  0.0339  0.3769  0.2621
 6804SOL    HW132391   7.581  11.815  10.583 -0.1960  0.2717 -0.2189
 6804SOL    HW232392   7.612  11.692  10.500 -0.9885 -0.3981  0.4633
 6805SOL     OW32393   8.649   3.675   2.784  0.1153 -0.5289  0.0399
 6805SOL    HW132394   8.610   3.588   2.782  1.0466 -0.9769  0.6789
 6805SOL    HW232395   8.585   3.729   2.829 -0.2053 -1.0259  0.1865
 6806SOL     OW32396   0.135   1.782   3.537 -0.1955  0.2376 -0.2063
 6806SOL    HW132397   0.059   1.737   3.502  0.5873 -0.1534 -1.4721
 6806SOL    HW232398   0.174   1.719   3.599 -0.4728  0.1499 -0.1182
 6807SOL     OW32399  12.973   8.141   9.975 -0.6770  0.3595 -0.0985
 6807SOL    HW132400  13.037   8.101  10.033 -1.7362  1.2351  1.7739
 6807SOL    HW232401  13.018   8.217   9.937 -0.2391  0.2986  0.2931
 6808SOL     OW32402   5.328   2.560   0.232  0.2509  0.6991  0.5058
 6808SOL    HW132403   5.239   2.546   0.199  0.4012  1.6228 -0.3766
 6808SOL    HW232404   5.363   2.472   0.245 -0.2691  0.2916 -0.6490
 6809SOL     OW32405   4.651  11.336   0.679 -0.2362  0.1310 -0.1423
 6809SOL    HW132406   4.671  11.280   0.604 -0.2176 -1.1305  0.7823
 6809SOL    HW232407   4.735  11.377   0.702 -0.3435  0.9281 -1.1067
 6810SOL     OW32408   8.042   3.591   8.417  0.2792 -0.0927 -0.5203
 6810SOL    HW132409   8.072   3.678   8.445  0.4910 -0.9321  2.0490
 6810SOL    HW232410   7.949   3.604   8.396  0.2987  0.7509 -0.1487
 6811SOL     OW32411  12.327  13.608   2.291  0.3866  0.2103 -0.6846
 6811SOL    HW132412  12.276  13.605   2.372  0.3490 -0.1862 -0.7190
 6811SOL    HW232413  12.341  13.701   2.275 -0.6372  0.3542 -0.8617
 6812SOL     OW32414   9.540   2.044   4.470  0.9165 -0.0026 -0.0015
 6812SOL    HW132415   9.490   2.069   4.547 -0.1047 -0.8310 -0.3739
 6812SOL    HW232416   9.629   2.029   4.503  0.5691 -0.0198  0.9487
 6813SOL     OW32417   5.193   8.596   2.858 -0.2352  0.2941 -0.2958
 6813SOL    HW132418   5.228   8.523   2.808  1.6827  0.8199  0.2113
 6813SOL    HW232419   5.195   8.566   2.949  0.8880  1.0813 -0.0496
 6814SOL     OW32420   4.279   8.412  11.868 -0.0131 -0.0921 -0.6581
 6814SOL    HW132421   4.190   8.427  11.899  0.2007 -1.6191  0.9068
 6814SOL    HW232422   4.274   8.328  11.822  0.7943 -0.7982  0.4782
 6815SOL     OW32423   3.794   9.574  11.117 -0.3612  0.9390  0.4409
 6815SOL    HW132424   3.719   9.629  11.097 -0.4085  0.6845 -0.1047
 6815SOL    HW232425   3.867   9.635  11.129 -0.5468  1.1544  0.4637
 6816SOL     OW32426  12.631   1.219  11.653  0.9169  0.2624  0.8729
 6816SOL    HW132427  12.673   1.268  11.582 -0.1503 -0.1151 -0.0561
 6816SOL    HW232428  12.703   1.197  11.713  2.0017 -0.1291 -0.5173
 6817SOL     OW32429   2.644   7.265   3.864 -0.3225 -0.1801  0.4284
 6817SOL    HW132430   2.721   7.274   3.808  0.7563 -3.2467  1.2353
 6817SOL    HW232431   2.577   7.318   3.821  1.3227  0.0482 -2.0601
 6818SOL     OW32432   2.771  10.526   6.201 -0.0012  0.7340 -0.0805
 6818SOL    HW132433   2.807  10.501   6.286 -4.7203 -1.7377  1.5620
 6818SOL    HW232434   2.773  10.445   6.150  0.3101  1.5100 -1.3236
 6819SOL     OW32435  13.519  10.438   2.180  0.1359 -0.2084  0.2344
 6819SOL    HW132436  13.537  10.383   2.104  0.8902  0.6060 -0.1952
 6819SOL    HW232437  13.552  10.525   2.155 -0.9552  0.4258  0.9214
 6820SOL     OW32438  11.947   2.728   6.100 -0.0230  0.2801 -0.3360
 6820SOL    HW132439  11.982   2.783   6.030 -0.5175  0.4785 -0.4276
 6820SOL    HW232440  11.959   2.639   6.068 -0.6874  0.3814 -0.8930
 6821SOL     OW32441   9.674  12.005  14.006 -0.1399  0.1559 -0.5321
 6821SOL    HW132442   9.628  12.079  14.047 -0.8627  0.2093 -1.3992
 6821SOL    HW232443   9.724  12.045  13.935  2.0166  0.2216  0.9541
 6822SOL     OW32444  10.453  11.785   5.038  0.0892 -0.2029  0.2623
 6822SOL    HW132445  10.548  11.773   5.043  0.0969  0.3272  2.9559
 6822SOL    HW232446  10.442  11.865   4.987  0.9832 -1.0475 -1.3208
 6823SOL     OW32447   7.091   5.070   6.368 -0.2323 -0.2843 -0.1482
 6823SOL    HW132448   7.161   5.014   6.400  1.3774  2.4879  1.5971
 6823SOL    HW232449   7.131   5.122   6.299 -0.9401  0.4435 -0.0296
 6824SOL     OW32450   7.158   1.627   2.112  0.1262  0.1375 -0.2661
 6824SOL    HW132451   7.250   1.615   2.092  0.2047  1.3293 -0.6839
 6824SOL    HW232452   7.123   1.538   2.120  1.0988 -0.3227 -1.0505
 6825SOL     OW32453   3.904   7.669   8.683 -0.1143 -0.4257  0.1095
 6825SOL    HW132454   3.960   7.675   8.606  1.4593  1.2779  1.2937
 6825SOL    HW232455   3.955   7.615   8.744 -1.4739 -2.0149 -0.0932
 6826SOL     OW32456   4.844   4.301   8.243  0.3483 -0.1067 -0.6525
 6826SOL    HW132457   4.825   4.231   8.305 -1.3015 -1.4147 -2.5093
 6826SOL    HW232458   4.772   4.363   8.254 -1.4622 -1.6213 -2.8835
 6827SOL     OW32459  12.230   8.135   0.000 -0.3676  0.0325  0.4128
 6827SOL    HW132460  12.229   8.194  -0.075 -1.4240 -0.6943 -0.1775
 6827SOL    HW232461  12.268   8.054  -0.034 -0.0465 -0.0239  0.8945
 6828SOL     OW32462   8.956   5.388   5.074 -0.3164 -0.0097  0.5943
 6828SOL    HW132463   8.975   5.464   5.020 -0.6689  0.7162  1.4647
 6828SOL    HW232464   8.894   5.336   5.023  1.4977 -0.8007 -0.9063
 6829SOL     OW32465  12.087  11.623   8.717  0.3434 -0.6285  0.1735
 6829SOL    HW132466  11.992  11.612   8.730 -0.2694  1.3589 -1.8094
 6829SOL    HW232467  12.120  11.535   8.700 -1.3573 -1.2487 -0.1080
 6830SOL     OW32468   9.207   8.775  11.784  0.1188  0.4186  0.1700
 6830SOL    HW132469   9.297   8.784  11.755  0.0019  0.6104 -0.1303
 6830SOL    HW232470   9.177   8.693  11.745 -0.2701  1.0387 -0.8681
 6831SOL     OW32471   2.914   0.005   7.485 -0.3373  0.4192 -0.0836
 6831SOL    HW132472   2.883  -0.084   7.500 -0.9128  0.7495  0.7225
 6831SOL    HW232473   3.009  -0.002   7.491 -0.3310 -0.2696 -0.7672
 6832SOL     OW32474   6.741   1.057   4.662  0.7591 -0.0896  0.1374
 6832SOL    HW132475   6.701   1.033   4.578  1.6061 -1.3698  0.0820
 6832SOL    HW232476   6.715   1.149   4.675 -3.1701 -1.0993  0.6839
 6833SOL     OW32477   2.280   3.708   8.438 -0.3280  0.7500  0.2039
 6833SOL    HW132478   2.361   3.746   8.405 -0.7582  2.7973  1.2905
 6833SOL    HW232479   2.307   3.630   8.487  0.7313  0.2331 -1.1437
 6834SOL     OW32480  13.487   3.685  10.046  0.1914  0.3733  0.3703
 6834SOL    HW132481  13.455   3.623  10.111 -0.3873  0.8724  0.5635
 6834SOL    HW232482  13.521   3.759  10.097 -0.0625  0.6701  0.1168
 6835SOL     OW32483   8.232  10.812  13.074 -0.0579  0.0985  0.2494
 6835SOL    HW132484   8.293  10.776  13.138  0.4140  0.9369  0.2736
 6835SOL    HW232485   8.145  10.797  13.112  0.1274 -0.8612  0.3306
 6836SOL     OW32486   5.832   0.297   0.534  0.0442  0.0835  0.7950
 6836SOL    HW132487   5.896   0.260   0.594 -1.2908 -1.4842  1.3506
 6836SOL    HW232488   5.806   0.380   0.574  1.1724  0.3853  0.9229
 6837SOL     OW32489   9.293  10.368  11.357  0.0861  0.0547 -0.3024
 6837SOL    HW132490   9.374  10.417  11.339 -0.7597  0.9230 -2.0628
 6837SOL    HW232491   9.268  10.332  11.272 -0.5377 -1.5770  0.5356
 6838SOL     OW32492  10.144   3.721   6.326  0.9489  0.3085 -0.1649
 6838SOL    HW132493  10.196   3.643   6.347  1.5194  0.8585  0.5094
 6838SOL    HW232494  10.204   3.794   6.337 -0.6014  1.2398  3.3442
 6839SOL     OW32495  12.698   4.737   8.051  0.1560  0.7552 -0.1788
 6839SOL    HW132496  12.780   4.742   8.003 -0.0835 -0.0824 -0.7048
 6839SOL    HW232497  12.633   4.776   7.992 -0.3962 -1.5211 -1.2032
 6840SOL     OW32498   7.105   6.657   6.537  0.3194 -0.2055  0.6859
 6840SOL    HW132499   7.100   6.606   6.618  0.2981 -1.2496  0.0434
 6840SOL    HW232500   7.084   6.594   6.467  0.6831  0.5845 -0.1599
 6841SOL     OW32501   6.771   9.914   5.060  0.3517  0.5708 -0.1183
 6841SOL    HW132502   6.738   9.874   5.141 -2.0375 -0.1849 -1.3771
 6841SOL    HW232503   6.751  10.007   5.069 -0.4238  0.4012 -0.0825
 6842SOL     OW32504   2.914  10.163  12.683  0.3647  0.2822  0.2009
 6842SOL    HW132505   2.843  10.156  12.618  1.5761  1.1188 -1.2897
 6842SOL    HW232506   2.993  10.143  12.633  1.1762 -1.2081  1.9536
 6843SOL     OW32507  13.954   5.258   4.472 -0.0837 -0.2504  0.3009
 6843SOL    HW132508  14.015   5.318   4.428 -0.2605  1.8094  2.6243
 6843SOL    HW232509  13.981   5.171   4.443  2.1790  0.7385 -0.8727
 6844SOL     OW32510  13.202   4.623   3.204 -0.0322  0.7734 -0.0450
 6844SOL    HW132511  13.285   4.617   3.157 -1.6157 -1.7944 -2.8635
 6844SOL    HW232512  13.150   4.685   3.154 -0.7520  0.2766  0.0777
 6845SOL     OW32513   9.690   7.159  11.080  0.4427 -0.6255 -0.4381
 6845SOL    HW132514   9.681   7.221  11.008  0.2064 -0.7266 -0.4991
 6845SOL    HW232515   9.659   7.076  11.044 -1.9773 -0.2088  0.4385
 6846SOL     OW32516   0.826   5.921   5.309 -0.0724  0.1705 -0.1872
 6846SOL    HW132517   0.890   5.969   5.361 -0.4230  1.0423 -0.5479
 6846SOL    HW232518   0.866   5.835   5.296  0.3895  0.2184  0.7965
 6847SOL     OW32519   6.398  10.865  12.949  0.3852 -0.0211  0.4353
 6847SOL    HW132520   6.457  10.931  12.986 -2.4498  2.4090  0.9928
 6847SOL    HW232521   6.366  10.815  13.025  0.2597 -0.0363  0.3732
 6848SOL     OW32522  12.579   7.474  12.319  0.2531  0.2640 -0.1196
 6848SOL    HW132523  12.633   7.443  12.246 -1.4704 -1.1342 -0.8819
 6848SOL    HW232524  12.566   7.396  12.373  0.2124  0.9291  0.8607
 6849SOL     OW32525   7.771   4.146  10.131  0.0966  0.0377  0.4549
 6849SOL    HW132526   7.703   4.164  10.196 -1.2359 -1.3126 -0.5035
 6849SOL    HW232527   7.745   4.063  10.091  1.6437  0.1167 -0.8324
 6850SOL     OW32528  12.534  13.365   4.679  0.2568 -0.1864 -0.1654
 6850SOL    HW132529  12.456  13.374   4.625  1.5981  0.4947 -2.0977
 6850SOL    HW232530  12.545  13.270   4.689 -2.0935 -0.3190  2.2276
 6851SOL     OW32531   8.292  10.031   3.986  0.2253  0.1468  0.5929
 6851SOL    HW132532   8.374  10.046   3.938 -0.3947 -0.2088 -0.6133
 6851SOL    HW232533   8.315   9.962   4.050  1.4744  1.7486  1.9734
 6852SOL     OW32534  11.732  10.694   4.026  0.0780 -0.1948 -0.1147
 6852SOL    HW132535  11.661  10.637   3.997 -0.8445  0.1705  1.2974
 6852SOL    HW232536  11.706  10.781   3.998  0.5290 -0.1903 -0.5470
 6853SOL     OW32537   6.297   6.442   0.469  0.2671 -0.3086  0.0364
 6853SOL    HW132538   6.350   6.449   0.549  1.2933 -0.0230 -0.6484
 6853SOL    HW232539   6.240   6.367   0.484  3.3041 -2.9221 -0.5395
 6854SOL     OW32540  13.533   6.225   5.011  0.1154  0.1357  0.2777
 6854SOL    HW132541  13.471   6.159   5.039 -0.9070  1.0013  0.1048
 6854SOL    HW232542  13.618   6.193   5.042 -0.4378 -0.9469  0.7102
 6855SOL     OW32543   6.050   5.839   4.472 -0.2919 -0.0583 -0.2535
 6855SOL    HW132544   6.030   5.923   4.430 -0.2361 -0.0878 -0.3414
 6855SOL    HW232545   6.118   5.859   4.535 -1.3434  0.2371  0.8163
 6856SOL     OW32546   2.123   5.741   6.997  0.2368 -0.5318  0.3085
 6856SOL    HW132547   2.158   5.819   6.953 -0.1106 -0.2411  0.5382
 6856SOL    HW232548   2.194   5.677   6.993  1.3299  0.5188  2.0446
 6857SOL     OW32549   2.330   2.722   4.123 -0.2166  0.5472  0.3436
 6857SOL    HW132550   2.258   2.661   4.104 -0.7832  0.8512  1.4073
 6857SOL    HW232551   2.307   2.801   4.074 -0.9665  0.8722  1.2031
 6858SOL     OW32552   5.303   3.175   0.958 -1.2329 -0.2031  0.8218
 6858SOL    HW132553   5.334   3.124   0.882 -0.9753  0.6852  0.3153
 6858SOL    HW232554   5.344   3.133   1.033 -2.0832 -1.5658  0.5565
 6859SOL     OW32555   3.940  11.069   9.965  0.4504 -0.8018  0.1461
 6859SOL    HW132556   3.897  11.004   9.908 -1.3358  0.6409 -0.2510
 6859SOL    HW232557   3.885  11.146   9.958  0.8231 -0.1832  2.9719
 6860SOL     OW32558   4.770  10.638   5.282 -0.3061 -0.0356 -0.3788
 6860SOL    HW132559   4.816  10.689   5.349 -0.7269 -0.9606  0.6278
 6860SOL    HW232560   4.678  10.662   5.291 -0.5771 -1.2966  0.4212
 6861SOL     OW32561   3.984  11.919  13.666 -0.0018 -0.2675  0.2680
 6861SOL    HW132562   3.957  11.860  13.738 -0.4804 -1.3656 -0.7717
 6861SOL    HW232563   4.057  11.969  13.702  1.7239 -2.8549  0.6467
 6862SOL     OW32564   1.769   2.960   0.352  0.1828  0.1230  0.0014
 6862SOL    HW132565   1.677   2.932   0.352  1.1490 -3.8994 -2.4941
 6862SOL    HW232566   1.769   3.043   0.305 -2.1915  0.6594  0.7898
 6863SOL     OW32567   2.680  10.518  10.621 -0.7200  0.1205  0.2088
 6863SOL    HW132568   2.626  10.597  10.628 -0.7679  0.1923 -0.8480
 6863SOL    HW232569   2.617  10.446  10.626 -1.0508  0.2144 -1.7748
 6864SOL     OW32570   9.657   1.014   4.136 -0.3946  0.3857  0.4809
 6864SOL    HW132571   9.752   1.003   4.137 -0.5829 -3.1879 -1.8270
 6864SOL    HW232572   9.643   1.106   4.116  2.6142  0.7133 -0.5231
 6865SOL     OW32573   3.151   6.262  10.181  0.5115 -0.2841 -0.1464
 6865SOL    HW132574   3.152   6.305  10.266 -1.1947 -1.6380  0.6129
 6865SOL    HW232575   3.158   6.333  10.118  0.3135  0.8706  1.0916
 6866SOL     OW32576   7.687   5.431  13.500  0.1758  0.1969  0.6309
 6866SOL    HW132577   7.636   5.353  13.479  1.7657 -0.8685  0.5427
 6866SOL    HW232578   7.622   5.495  13.531 -1.4176 -0.4481 -1.1845
 6867SOL     OW32579  10.655   9.128   5.629 -0.2382 -0.6266 -0.1978
 6867SOL    HW132580  10.642   9.215   5.666 -4.1000 -0.9132 -0.4515
 6867SOL    HW232581  10.682   9.144   5.538 -0.6000  0.3163 -0.1452
 6868SOL     OW32582  11.717  13.130   0.195 -0.1579  0.0222 -0.0818
 6868SOL    HW132583  11.657  13.194   0.157 -1.7333 -0.2484  1.8319
 6868SOL    HW232584  11.754  13.174   0.271 -0.7150 -1.0561  0.8437
 6869SOL     OW32585   5.311   3.489   7.120  0.1796 -0.9506 -0.3069
 6869SOL    HW132586   5.268   3.440   7.190 -1.0693  0.3277 -0.1452
 6869SOL    HW232587   5.291   3.580   7.138  2.3845 -0.3354 -0.6633
 6870SOL     OW32588   2.539   7.108   6.563  0.1816  0.2180  0.9536
 6870SOL    HW132589   2.586   7.072   6.638 -0.8813 -0.4686  1.3099
 6870SOL    HW232590   2.572   7.059   6.488 -0.7294 -1.0576  1.3422
 6871SOL     OW32591   8.729   3.755  11.224  0.1908 -0.2523  0.0682
 6871SOL    HW132592   8.726   3.679  11.166  0.7112  0.1365 -0.4900
 6871SOL    HW232593   8.647   3.752  11.272 -0.5569 -0.2438 -1.1506
 6872SOL     OW32594   5.106   7.238   6.566  0.2034  0.5610  0.4360
 6872SOL    HW132595   5.104   7.216   6.660  1.2138 -2.9510 -0.2133
 6872SOL    HW232596   5.193   7.277   6.552 -0.0971  1.4595  0.9833
 6873SOL     OW32597   6.959   4.117   3.795  0.4135  0.0854  0.8632
 6873SOL    HW132598   7.039   4.132   3.745  0.8082 -1.7793  0.8974
 6873SOL    HW232599   6.985   4.059   3.866 -0.8887 -0.2083  1.1214
 6874SOL     OW32600   7.071   0.342   6.931  0.3046 -0.5703 -0.3549
 6874SOL    HW132601   7.125   0.351   7.009  1.5557  0.4064 -1.2825
 6874SOL    HW232602   6.983   0.326   6.965  0.6802  0.5322  1.2815
 6875SOL     OW32603   3.058  11.666   2.801  0.7700 -0.3062  0.1195
 6875SOL    HW132604   3.072  11.616   2.721 -0.6525 -1.0051  0.2675
 6875SOL    HW232605   2.974  11.634   2.835 -0.6845  2.7384 -0.2301
 6876SOL     OW32606  12.380   2.486   8.501  0.1106  0.8480 -0.3258
 6876SOL    HW132607  12.401   2.438   8.421  0.1350  0.7657 -0.2696
 6876SOL    HW232608  12.363   2.418   8.566  0.3168  0.9155 -0.2005
 6877SOL     OW32609   7.379   4.642   9.180 -0.5739 -0.0364  0.6557
 6877SOL    HW132610   7.289   4.666   9.204 -0.7610  1.1431 -1.0887
 6877SOL    HW232611   7.433   4.680   9.249 -1.2748  1.0144  0.6481
 6878SOL     OW32612   0.419   8.684   0.618  0.7745  0.2337 -0.4213
 6878SOL    HW132613   0.439   8.761   0.671 -0.8882  1.5268 -1.5856
 6878SOL    HW232614   0.382   8.718   0.537 -0.9974 -1.7870 -0.5649
 6879SOL     OW32615   7.816  11.842   6.372  0.0896 -0.4502  0.0569
 6879SOL    HW132616   7.836  11.835   6.466  0.8930 -1.2589 -0.1582
 6879SOL    HW232617   7.893  11.804   6.329 -0.4974 -0.5519 -0.9126
 6880SOL     OW32618  10.657   7.544   0.876 -0.2466 -0.6639 -0.1570
 6880SOL    HW132619  10.608   7.523   0.796 -1.1269  0.3723  0.0770
 6880SOL    HW232620  10.734   7.590   0.845 -1.1590  0.7786 -0.3924
 6881SOL     OW32621   6.082   8.286  10.903 -0.0244  0.3790  0.2761
 6881SOL    HW132622   6.145   8.268  10.973  0.5799 -1.4156 -0.6759
 6881SOL    HW232623   6.135   8.314  10.829 -0.4097 -0.3907 -0.2974
 6882SOL     OW32624   7.843  12.021   4.743  0.1658  0.3279 -0.7115
 6882SOL    HW132625   7.926  12.065   4.724  0.0608  0.5457 -0.6738
 6882SOL    HW232626   7.843  12.010   4.838  0.4848 -0.3443 -0.7876
 6883SOL     OW32627   4.855  10.447   9.319  0.5152 -0.1560  0.4052
 6883SOL    HW132628   4.860  10.540   9.296 -1.2271 -0.3858 -1.0838
 6883SOL    HW232629   4.796  10.443   9.394 -1.0219 -0.2133 -0.7767
 6884SOL     OW32630   7.904   0.656  13.069  0.2815  0.4829  0.7929
 6884SOL    HW132631   7.888   0.619  13.156 -2.5250  0.1210  0.2285
 6884SOL    HW232632   7.978   0.605  13.035 -0.5823 -1.5608  1.7774
 6885SOL     OW32633  10.312  12.125   8.382  0.4817  0.5104 -0.2172
 6885SOL    HW132634  10.243  12.153   8.323 -0.1645 -0.2013  0.1908
 6885SOL    HW232635  10.326  12.200   8.441  1.3242  1.3303 -1.4097
 6886SOL     OW32636   4.935   9.632   5.742 -0.7030 -0.1969  0.0727
 6886SOL    HW132637   4.948   9.642   5.837  2.0222  1.7874 -0.3713
 6886SOL    HW232638   4.857   9.684   5.723 -0.2508  0.8789  1.0335
 6887SOL     OW32639   9.355   1.440   9.963  0.3554  0.0356 -0.1923
 6887SOL    HW132640   9.435   1.469  10.006 -0.3291  1.5256  0.1351
 6887SOL    HW232641   9.371   1.454   9.869  0.1577  1.2550 -0.0641
 6888SOL     OW32642  10.495   8.374   6.598  0.0981  0.1344  0.1592
 6888SOL    HW132643  10.509   8.325   6.516  0.8153  0.5596  0.0254
 6888SOL    HW232644  10.578   8.367   6.645 -0.1258  0.3854  0.5971
 6889SOL     OW32645   1.649   2.107  10.577  0.3295  0.4852  0.4059
 6889SOL    HW132646   1.684   2.196  10.585  0.5293  0.3380  1.2698
 6889SOL    HW232647   1.584   2.101  10.647  1.5019 -0.5777  1.4691
 6890SOL     OW32648   6.368   3.330   7.002 -0.0513  0.0081  0.1120
 6890SOL    HW132649   6.384   3.407   6.946 -0.1522  0.2085  0.3573
 6890SOL    HW232650   6.402   3.356   7.088  0.0013 -0.2597  0.1720
 6891SOL     OW32651  12.067  13.874   1.410 -0.2484 -0.2747  0.1640
 6891SOL    HW132652  12.114  13.947   1.371 -0.0466 -0.5822 -0.1782
 6891SOL    HW232653  12.047  13.816   1.337 -0.7422 -0.3825  0.3731
 6892SOL     OW32654   1.561   4.212  12.562 -0.2099  0.0027  0.3433
 6892SOL    HW132655   1.484   4.206  12.506 -1.3396  1.6883  1.5791
 6892SOL    HW232656   1.586   4.305  12.558  1.7680 -0.4943 -0.0007
 6893SOL     OW32657   7.486  13.570  10.489  0.2165  0.2934  0.2111
 6893SOL    HW132658   7.517  13.501  10.431  2.0930  0.9793  0.3215
 6893SOL    HW232659   7.465  13.643  10.429 -3.5648 -0.8331 -0.1118
 6894SOL     OW32660  11.452  12.810   4.911  0.5475 -0.1507  0.7156
 6894SOL    HW132661  11.483  12.762   4.834 -1.9577 -0.4838 -0.1639
 6894SOL    HW232662  11.463  12.748   4.983 -0.4107 -1.1968 -0.0010
 6895SOL     OW32663  13.682   9.701   2.593  0.0932 -0.7037 -0.3160
 6895SOL    HW132664  13.711   9.790   2.614  0.8840 -0.2907 -2.8076
 6895SOL    HW232665  13.693   9.652   2.674  1.4200  1.0357  0.6271
 6896SOL     OW32666   1.702  12.878   3.983 -0.2678 -0.5545  0.5817
 6896SOL    HW132667   1.764  12.844   4.048  0.6483 -0.0718 -0.0065
 6896SOL    HW232668   1.756  12.890   3.905 -0.8979  0.8343  0.3461
 6897SOL     OW32669   3.517  14.016   1.935 -0.2577 -0.4176  0.1759
 6897SOL    HW132670   3.503  14.111   1.939  2.4527  0.0167  1.9076
 6897SOL    HW232671   3.455  13.979   1.997 -1.5518  0.1316 -0.7392
 6898SOL     OW32672   0.992   6.746   8.603 -0.5063 -0.0012  0.6742
 6898SOL    HW132673   0.931   6.700   8.661  0.3368 -0.2658  1.3814
 6898SOL    HW232674   1.030   6.815   8.658 -0.5036  0.4450  0.1119
 6899SOL     OW32675   8.967   1.930   0.415  0.0771 -0.1559 -0.1077
 6899SOL    HW132676   8.932   1.911   0.328  1.2835 -0.0489 -0.6374
 6899SOL    HW232677   8.922   1.869   0.473 -0.4879 -0.4698 -0.8613
 6900SOL     OW32678   2.340   0.577   9.796  0.0306  0.3737  0.0377
 6900SOL    HW132679   2.359   0.511   9.730  0.4002  1.2319 -0.7399
 6900SOL    HW232680   2.284   0.533   9.859  2.0534 -1.3497  0.7433
 6901SOL     OW32681  10.105   0.667   8.133  0.0979 -0.1531 -0.0559
 6901SOL    HW132682  10.142   0.581   8.151  0.1784 -0.2899 -0.8264
 6901SOL    HW232683  10.032   0.651   8.073 -0.4279  0.2368  0.4669
 6902SOL     OW32684   3.370   0.376   2.189  0.3218  0.0511 -0.6556
 6902SOL    HW132685   3.366   0.283   2.169  2.0012 -0.2369  0.1421
 6902SOL    HW232686   3.282   0.409   2.170 -0.7353 -1.9642  0.3937
 6903SOL     OW32687   4.744  11.052  12.950  0.3168 -0.2686  0.0344
 6903SOL    HW132688   4.680  11.082  13.015 -0.5155 -0.6566 -0.5848
 6903SOL    HW232689   4.740  11.118  12.880 -0.4409 -0.9945 -0.6427
 6904SOL     OW32690   3.826   7.629  12.690  0.5479 -0.0527 -0.1507
 6904SOL    HW132691   3.821   7.648  12.784 -0.0077 -2.0698  0.2711
 6904SOL    HW232692   3.813   7.714  12.648  0.4543  0.8406  1.5818
 6905SOL     OW32693   7.987  11.545   0.352 -0.5909 -0.5256 -0.5902
 6905SOL    HW132694   8.043  11.613   0.391 -0.2228 -1.7218  1.0505
 6905SOL    HW232695   7.898  11.577   0.366 -0.4165 -0.2921  0.0301
 6906SOL     OW32696  10.344  10.526  13.780  0.0273  0.1097  0.3437
 6906SOL    HW132697  10.320  10.582  13.854 -1.3495  1.8986 -1.3520
 6906SOL    HW232698  10.332  10.437  13.813 -0.8475  0.8465  2.1765
 6907SOL     OW32699  12.185   3.094   1.697  0.3411  0.8198 -0.3220
 6907SOL    HW132700  12.195   3.135   1.611 -0.5022  3.2894  0.6548
 6907SOL    HW232701  12.131   3.156   1.746  1.1044 -0.3487  2.1151
 6908SOL     OW32702  10.710   7.326   6.641 -0.0334 -0.0766  0.0055
 6908SOL    HW132703  10.719   7.231   6.650 -0.2183 -0.0358  0.6481
 6908SOL    HW232704  10.776   7.362   6.699  1.3527  0.2019 -1.6793
 6909SOL     OW32705   8.114   4.873  11.393 -0.5198 -0.2945 -0.5480
 6909SOL    HW132706   8.105   4.839  11.482  0.9110  2.2738  0.7039
 6909SOL    HW232707   8.193   4.831  11.358  1.0149  1.2998  0.8255
 6910SOL     OW32708   7.092   1.426  13.816  0.0398 -0.3746 -0.0136
 6910SOL    HW132709   7.169   1.451  13.867 -0.2413  0.9458 -0.2035
 6910SOL    HW232710   7.124   1.359  13.755  1.2794  0.8162 -0.7212
 6911SOL     OW32711   0.430   4.484   6.444  0.2341 -0.1888  0.2131
 6911SOL    HW132712   0.433   4.502   6.538 -1.9493 -1.3256  0.5719
 6911SOL    HW232713   0.460   4.565   6.403  0.8995  0.4531  1.8563
 6912SOL     OW32714   6.789   8.898  11.831 -0.5486  0.5833  0.2950
 6912SOL    HW132715   6.848   8.883  11.758 -0.1546  0.5592  0.6160
 6912SOL    HW232716   6.782   8.993  11.837  0.2418  0.6170  0.8721
 6913SOL     OW32717   3.904   4.103  10.137  0.1581  0.3762  0.1896
 6913SOL    HW132718   3.951   4.030  10.096  1.5548 -0.4123  2.9226
 6913SOL    HW232719   3.851   4.062  10.205  0.9469  1.8815  1.7790
 6914SOL     OW32720   4.549   8.448   1.850 -0.1349  0.3225 -0.2710
 6914SOL    HW132721   4.494   8.500   1.909  0.3845  1.1185 -0.4745
 6914SOL    HW232722   4.505   8.453   1.765  2.0764  4.1782 -1.4419
 6915SOL     OW32723  11.474   2.263  10.792  0.0016  0.0428  0.4782
 6915SOL    HW132724  11.421   2.281  10.714  1.1374 -0.2973 -0.4104
 6915SOL    HW232725  11.485   2.168  10.792  1.6922  0.1903 -0.1500
 6916SOL     OW32726   7.744   9.737  13.917 -0.2685 -0.1292  0.4130
 6916SOL    HW132727   7.758   9.659  13.863  1.6306 -0.2818  1.0525
 6916SOL    HW232728   7.825   9.746  13.967 -1.6102  0.5150  2.6037
 6917SOL     OW32729  11.695   0.742   1.949 -0.0145 -0.8004 -0.5129
 6917SOL    HW132730  11.738   0.660   1.973 -0.0194 -0.8334 -0.6127
 6917SOL    HW232731  11.751   0.811   1.983 -0.6759 -0.8509  0.7352
 6918SOL     OW32732   0.977  13.330  13.163 -0.4471  0.1918 -0.2883
 6918SOL    HW132733   1.066  13.343  13.196 -1.0992 -1.0888  2.2162
 6918SOL    HW232734   0.971  13.236  13.146 -1.0157  0.4340 -1.5488
 6919SOL     OW32735   0.500   7.052  12.578 -1.0840 -0.0274 -0.4422
 6919SOL    HW132736   0.461   7.139  12.589 -0.7661 -0.0173  0.7017
 6919SOL    HW232737   0.488   7.010  12.663  1.6494  0.0734  0.0689
 6920SOL     OW32738   7.988   5.733   3.153  0.7048 -1.0243  0.3182
 6920SOL    HW132739   8.061   5.767   3.204  0.2163 -0.3159  0.5790
 6920SOL    HW232740   7.974   5.645   3.186  1.4416 -1.1653  0.2589
 6921SOL     OW32741   3.656   9.772  13.632 -0.2072  0.1001 -0.0218
 6921SOL    HW132742   3.684   9.723  13.555  0.0468  1.2492 -0.6807
 6921SOL    HW232743   3.577   9.818  13.604  1.0173  2.1786 -0.3101
 6922SOL     OW32744  11.289   4.484   0.165 -0.6017  0.3168 -0.1573
 6922SOL    HW132745  11.298   4.389   0.157  0.4563  0.3432  0.5677
 6922SOL    HW232746  11.334   4.519   0.087  1.5518  0.2885  1.0184
 6923SOL     OW32747   0.349   4.274   4.069 -0.0811 -0.2452  0.5952
 6923SOL    HW132748   0.320   4.351   4.022 -0.1961 -1.8017 -2.0662
 6923SOL    HW232749   0.416   4.306   4.129 -0.9014  2.0271  0.4013
 6924SOL     OW32750   6.981   1.805  11.921  0.1951  0.5387  0.4119
 6924SOL    HW132751   6.990   1.710  11.912  2.0507  0.6884  0.3124
 6924SOL    HW232752   7.070   1.838  11.920 -0.4435  2.3961 -0.5252
 6925SOL     OW32753   2.332   8.088   1.571  0.3490  0.4574 -0.0033
 6925SOL    HW132754   2.363   8.174   1.542  0.2866  0.6960  0.6190
 6925SOL    HW232755   2.339   8.032   1.494  0.3402  1.0367 -0.4293
 6926SOL     OW32756   2.051   5.958   2.119  0.6527  0.6454 -0.0225
 6926SOL    HW132757   2.056   5.901   2.042  2.1974  1.1418 -0.3352
 6926SOL    HW232758   1.976   6.014   2.103 -0.6768 -1.0073  0.1088
 6927SOL     OW32759  12.314   3.013   2.318 -0.0797 -0.2694  0.0683
 6927SOL    HW132760  12.367   3.064   2.258  0.0289  0.8992  1.1158
 6927SOL    HW232761  12.284   3.076   2.384 -2.2238 -1.0028 -0.1132
 6928SOL     OW32762   1.466  10.159   5.374  0.1826 -0.5283  0.6605
 6928SOL    HW132763   1.497  10.160   5.464 -0.9284 -1.3896  1.0749
 6928SOL    HW232764   1.422  10.242   5.362  0.2037 -0.4758  0.9567
 6929SOL     OW32765  12.441   3.286   1.547  0.1769  0.6155  0.2159
 6929SOL    HW132766  12.509   3.269   1.482 -1.4103 -1.1992 -1.0551
 6929SOL    HW232767  12.419   3.378   1.535  0.3751  0.4767 -1.3588
 6930SOL     OW32768  10.773   7.664  13.969 -0.4971 -0.6407  0.4256
 6930SOL    HW132769  10.699   7.723  13.954 -0.9662 -0.7324  2.1455
 6930SOL    HW232770  10.847   7.722  13.986 -0.4544 -0.5530 -0.0426
 6931SOL     OW32771  11.572   1.536   1.776 -0.4696 -0.3154  0.4116
 6931SOL    HW132772  11.589   1.442   1.773  0.6624 -0.1062 -0.4134
 6931SOL    HW232773  11.637   1.574   1.717 -2.1593  0.8185 -0.8201
 6932SOL     OW32774  12.153  10.139   9.133 -0.0863 -0.1456 -0.2894
 6932SOL    HW132775  12.119  10.135   9.223 -1.5342  0.7498 -0.7548
 6932SOL    HW232776  12.112  10.064   9.089 -0.2053  0.0196 -0.4593
 6933SOL     OW32777   9.713   5.478   9.692  0.0928 -0.5402 -0.1600
 6933SOL    HW132778   9.769   5.450   9.764  0.6743 -1.2678 -0.8850
 6933SOL    HW232779   9.672   5.398   9.660 -1.1649 -0.0552  0.1815
 6934SOL     OW32780   0.323   4.181   4.910 -0.3367  0.0959 -0.0131
 6934SOL    HW132781   0.311   4.109   4.972 -0.5476  0.3178  0.2058
 6934SOL    HW232782   0.235   4.203   4.881 -0.2576  0.1514 -0.2110
 6935SOL     OW32783   0.701   9.079   5.484  0.1952 -0.2677 -0.1220
 6935SOL    HW132784   0.662   9.137   5.550 -1.5097 -0.4448 -0.9020
 6935SOL    HW232785   0.703   9.132   5.404  3.3229  0.3456  0.2396
 6936SOL     OW32786   6.714   5.450   1.959  0.0168  0.0581  0.5578
 6936SOL    HW132787   6.655   5.509   2.007  1.0388  1.5206  0.0619
 6936SOL    HW232788   6.655   5.395   1.908 -0.9702  2.1940 -0.7593
 6937SOL     OW32789   7.561   5.176  11.086 -0.1344 -0.7221 -0.1554
 6937SOL    HW132790   7.498   5.245  11.102  1.7106  0.6167  1.9376
 6937SOL    HW232791   7.583   5.185  10.993 -1.0704  0.4806 -0.2832
 6938SOL     OW32792  10.115  13.503   9.843 -0.6730  0.1929  0.2847
 6938SOL    HW132793  10.147  13.522   9.931 -1.5560  0.1406  0.6289
 6938SOL    HW232794  10.123  13.586   9.796  0.3597  0.0673  0.2307
 6939SOL     OW32795   6.635   5.112   4.429  0.2400 -0.1774  0.1305
 6939SOL    HW132796   6.612   5.121   4.521 -0.0162  0.5384  0.0017
 6939SOL    HW232797   6.617   5.020   4.409  1.6176 -0.7015  1.1402
 6940SOL     OW32798   1.483   6.819   9.186  0.3411 -0.1843  0.1417
 6940SOL    HW132799   1.541   6.779   9.121  0.8040 -1.1856  1.1309
 6940SOL    HW232800   1.419   6.867   9.135 -1.4714 -3.7364 -1.3041
 6941SOL     OW32801   1.427   6.806   4.376  0.2670  0.0578  0.6223
 6941SOL    HW132802   1.363   6.736   4.371  0.3454  0.0264  0.0132
 6941SOL    HW232803   1.375   6.885   4.392  0.1470 -0.0809  0.9172
 6942SOL     OW32804   1.531   5.085   6.991 -0.2983 -0.1360  0.0119
 6942SOL    HW132805   1.578   5.011   6.953  0.3270 -0.0159  0.5286
 6942SOL    HW232806   1.488   5.049   7.069 -1.6731 -0.4121 -0.8330
 6943SOL     OW32807   7.035   4.480   7.879  0.0725  0.5935 -0.3205
 6943SOL    HW132808   6.950   4.450   7.912  1.1902 -0.7881  1.5005
 6943SOL    HW232809   7.056   4.556   7.934  0.7062 -0.0556  0.3684
 6944SOL     OW32810  12.534   0.578   0.249 -0.5014  0.3362 -0.1384
 6944SOL    HW132811  12.497   0.492   0.233 -0.0564  0.1200 -0.0192
 6944SOL    HW232812  12.499   0.604   0.335 -1.4102  0.6991 -0.6120
 6945SOL     OW32813   5.187   6.700   7.418  0.1125 -0.1536 -0.5420
 6945SOL    HW132814   5.174   6.631   7.483  1.1539  0.8971  0.8462
 6945SOL    HW232815   5.255   6.665   7.361  1.9776  0.3689  1.2391
 6946SOL     OW32816   2.062   0.953  13.141  0.0378 -0.4048 -0.0494
 6946SOL    HW132817   2.057   0.878  13.083 -2.1744  0.8058 -1.5737
 6946SOL    HW232818   2.085   0.916  13.226 -1.2823 -2.8658 -0.6615
 6947SOL     OW32819  11.283  12.844   6.551  0.3845  0.0818 -0.2584
 6947SOL    HW132820  11.307  12.932   6.583  1.0899  0.1668 -0.9720
 6947SOL    HW232821  11.200  12.857   6.506 -0.7530 -0.0856  1.6843
 6948SOL     OW32822   6.932  13.552  10.200  0.3017  0.2261  0.0330
 6948SOL    HW132823   7.008  13.497  10.181  0.0994 -0.2231  0.4840
 6948SOL    HW232824   6.867  13.528  10.134 -0.8689 -2.2571  1.9084
 6949SOL     OW32825   9.274  11.765   2.816 -0.8103 -0.4072 -0.1825
 6949SOL    HW132826   9.226  11.694   2.774  0.6869 -1.0783 -0.8150
 6949SOL    HW232827   9.213  11.799   2.881 -2.3497 -0.8394 -1.3308
 6950SOL     OW32828  12.089  13.618   1.584 -0.5130  0.3141 -0.3855
 6950SOL    HW132829  12.118  13.617   1.493 -0.4804 -1.2733 -0.3862
 6950SOL    HW232830  12.020  13.684   1.587 -0.7754  0.1131 -1.6564
 6951SOL     OW32831   4.576   2.427   1.091  0.3446  0.0579 -0.0265
 6951SOL    HW132832   4.560   2.498   1.153 -2.9292 -0.2338 -0.3109
 6951SOL    HW232833   4.555   2.347   1.139 -0.1090 -0.3326 -0.8337
 6952SOL     OW32834   0.566   0.859  10.782 -0.3871 -0.6678  0.2260
 6952SOL    HW132835   0.543   0.948  10.807  0.5165 -0.1815 -0.6354
 6952SOL    HW232836   0.661   0.857  10.783 -0.2669 -0.7381 -2.6586
 6953SOL     OW32837   7.487   1.415   5.673 -0.0492 -0.1396  0.1541
 6953SOL    HW132838   7.479   1.474   5.598  0.0163  1.2177  1.1865
 6953SOL    HW232839   7.427   1.450   5.738  1.2948 -0.1539  1.4401
 6954SOL     OW32840   7.535   2.962   3.972 -0.1819  0.1330 -0.1023
 6954SOL    HW132841   7.611   2.995   4.020 -0.9308  0.8109  0.6441
 6954SOL    HW232842   7.475   2.933   4.041  0.4833 -2.9803 -0.7072
 6955SOL     OW32843   0.092   7.051  13.658 -0.2949 -0.2769 -0.4171
 6955SOL    HW132844   0.171   7.066  13.607 -1.0267  0.0249 -1.4927
 6955SOL    HW232845   0.023   7.038  13.593 -0.7617 -2.6902  0.4623
 6956SOL     OW32846   9.549  11.576   8.895 -0.3100  0.8851  0.1197
 6956SOL    HW132847   9.551  11.529   8.812  0.4648 -1.0586  1.1742
 6956SOL    HW232848   9.635  11.562   8.934 -0.5540  2.0023  1.1442
 6957SOL     OW32849   2.217  10.013   4.613  0.2456  0.2223 -0.0280
 6957SOL    HW132850   2.174   9.973   4.538  0.7960  1.1781 -0.8725
 6957SOL    HW232851   2.273  10.080   4.576 -1.0682  2.2055  1.3751
 6958SOL     OW32852   7.165   6.662   0.584  0.0469 -0.4790 -0.2480
 6958SOL    HW132853   7.170   6.606   0.661  1.8558  0.3585  0.2845
 6958SOL    HW232854   7.146   6.749   0.618 -0.9939 -0.4113 -0.9300
 6959SOL     OW32855   8.674   8.512   5.222 -0.2453  0.0709  0.5964
 6959SOL    HW132856   8.629   8.581   5.270 -0.1458  0.4880  0.1058
 6959SOL    HW232857   8.618   8.435   5.230 -0.1952  0.1131  1.4275
 6960SOL     OW32858   3.430  11.493   1.529  0.6462 -0.3549  0.3532
 6960SOL    HW132859   3.346  11.493   1.575  0.4498  1.4000  0.0458
 6960SOL    HW232860   3.495  11.498   1.599  0.3717  1.4683  0.5158
 6961SOL     OW32861   6.339   1.646   4.422  0.4143  0.0006  0.2020
 6961SOL    HW132862   6.319   1.583   4.353 -1.9190  1.1090 -0.2270
 6961SOL    HW232863   6.396   1.711   4.380  1.1784 -0.7360  0.0854
 6962SOL     OW32864   1.370   7.742   5.145  0.1484 -0.1494  0.0071
 6962SOL    HW132865   1.286   7.703   5.120  1.5472 -3.6333  0.1536
 6962SOL    HW232866   1.433   7.706   5.082  1.9640  0.0586  1.5958
 6963SOL     OW32867   7.734  10.373   7.740 -0.5464  0.1982  0.2064
 6963SOL    HW132868   7.658  10.327   7.705  0.2171  0.4981 -1.9794
 6963SOL    HW232869   7.719  10.465   7.718  1.1185  0.0755 -1.7028
 6964SOL     OW32870  10.511  11.941   3.489 -0.1295 -0.0859  0.5310
 6964SOL    HW132871  10.534  11.955   3.397  0.8986  0.8872  0.9078
 6964SOL    HW232872  10.446  11.871   3.487  3.0588 -3.3046 -0.6403
 6965SOL     OW32873   9.467  10.540   2.135  0.2145  0.1786  0.7994
 6965SOL    HW132874   9.515  10.478   2.080 -0.8693 -0.7976  0.9066
 6965SOL    HW232875   9.429  10.487   2.204  0.2482  1.1572  1.5948
 6966SOL     OW32876   3.496   1.520   5.880 -0.4258  0.6289 -0.3123
 6966SOL    HW132877   3.556   1.527   5.805 -0.8741  1.1267 -0.6316
 6966SOL    HW232878   3.416   1.482   5.843 -0.0638 -0.7456  0.2621
 6967SOL     OW32879  11.832  12.752   6.800 -0.3543 -1.0208 -0.0168
 6967SOL    HW132880  11.899  12.747   6.732  1.1402  1.2368  1.1456
 6967SOL    HW232881  11.750  12.732   6.755  0.6384 -0.2208 -2.3417
 6968SOL     OW32882   2.148  11.153  10.131 -0.5460 -0.5961 -0.5719
 6968SOL    HW132883   2.225  11.099  10.151  0.0608  0.1260 -0.8892
 6968SOL    HW232884   2.156  11.173  10.038 -1.3221 -0.8079 -0.6911
 6969SOL     OW32885  12.356   1.241   0.234 -0.5201  0.3172  0.1881
 6969SOL    HW132886  12.401   1.286   0.163  0.4002  0.7287  1.0095
 6969SOL    HW232887  12.295   1.306   0.269 -1.1583  0.0335 -0.3703
 6970SOL     OW32888   8.179  10.599   2.535 -0.0358  0.2839  0.2803
 6970SOL    HW132889   8.119  10.672   2.518  0.6594  0.8701  0.2707
 6970SOL    HW232890   8.259  10.642   2.564  0.4528 -0.4754  0.0574
 6971SOL     OW32891   4.579   0.475  10.543 -0.7964 -0.3398 -1.5861
 6971SOL    HW132892   4.507   0.524  10.582 -1.4117 -0.7805 -2.1510
 6971SOL    HW232893   4.544   0.443  10.460 -0.2570 -1.3662 -1.4270
 6972SOL     OW32894   1.474   4.640   9.202 -0.2832 -0.5113 -0.2394
 6972SOL    HW132895   1.478   4.719   9.255 -0.9450  0.8065 -2.0354
 6972SOL    HW232896   1.386   4.641   9.164 -0.1248 -1.8422 -0.6774
 6973SOL     OW32897   8.567  13.222   0.770  0.3197 -0.0358 -0.4140
 6973SOL    HW132898   8.496  13.269   0.727 -0.4432  0.0819  0.9327
 6973SOL    HW232899   8.638  13.286   0.776 -0.9930  1.3247  2.1640
 6974SOL     OW32900   6.167   4.991   5.331 -0.3057  0.4830 -0.9245
 6974SOL    HW132901   6.158   5.076   5.289 -2.8803  0.6667 -0.1586
 6974SOL    HW232902   6.084   4.946   5.313 -0.0535 -0.8282  0.9017
 6975SOL     OW32903   1.206   5.243   2.770 -0.2030  0.0662 -0.4387
 6975SOL    HW132904   1.256   5.322   2.748 -0.5505  0.9934  1.8658
 6975SOL    HW232905   1.126   5.276   2.811 -0.1315 -1.4639  1.0500
 6976SOL     OW32906   0.799   3.052  13.624  0.4084  0.3304  0.6320
 6976SOL    HW132907   0.870   3.022  13.682  0.6963  2.3126  1.3814
 6976SOL    HW232908   0.822   3.142  13.603 -1.8302  1.0031  0.8116
 6977SOL     OW32909   1.068   3.824   9.898  0.0491 -0.1981  0.0973
 6977SOL    HW132910   1.098   3.778   9.819  0.9231  1.2479 -0.4492
 6977SOL    HW232911   1.098   3.914   9.886 -0.1080  0.1329  1.9352
 6978SOL     OW32912   6.612   1.060   9.989  0.3735 -0.5450  0.0400
 6978SOL    HW132913   6.573   1.078  10.074  0.8471  0.4158  0.0671
 6978SOL    HW232914   6.704   1.085   9.999  0.0801  1.2238 -1.2225
 6979SOL     OW32915   6.950  11.101   6.066 -0.5044 -0.2679  0.2052
 6979SOL    HW132916   7.042  11.100   6.092 -0.6572  0.3708  0.8070
 6979SOL    HW232917   6.932  11.193   6.045 -1.0343 -0.3694  0.1915
 6980SOL     OW32918   6.420   4.411   0.067 -0.0221 -0.5607  0.6110
 6980SOL    HW132919   6.509   4.399   0.103 -0.5635 -2.2078  1.4999
 6980SOL    HW232920   6.392   4.323   0.042 -1.3253 -0.0250  0.1061
 6981SOL     OW32921   2.854   1.622  10.064 -0.3351 -0.2512  0.0996
 6981SOL    HW132922   2.931   1.600  10.012 -0.6019 -1.3333  0.1507
 6981SOL    HW232923   2.787   1.646  10.000 -0.3635 -0.6248 -0.0134
 6982SOL     OW32924   6.618  10.773   2.434 -0.3269 -0.1232 -0.2868
 6982SOL    HW132925   6.631  10.680   2.416  0.3742 -0.0906  0.0273
 6982SOL    HW232926   6.658  10.818   2.359 -0.2419 -0.0628 -0.2048
 6983SOL     OW32927   8.547  14.022  13.442 -0.0035 -1.1402 -0.6341
 6983SOL    HW132928   8.461  14.008  13.401  0.2822 -0.0763 -1.6754
 6983SOL    HW232929   8.527  14.067  13.525 -0.4826 -1.3431 -0.6359
 6984SOL     OW32930  12.765  13.873   1.808  0.0529 -0.3300 -0.3903
 6984SOL    HW132931  12.797  13.917   1.887  3.9092 -3.3674  0.0645
 6984SOL    HW232932  12.810  13.917   1.736  1.1051 -1.1687 -0.2695
 6985SOL     OW32933   4.185   4.159  11.982  0.2959 -0.2474  0.4644
 6985SOL    HW132934   4.096   4.164  12.017  0.2579  2.7640  0.2470
 6985SOL    HW232935   4.222   4.246  11.998  3.1308 -1.3108  0.2764
 6986SOL     OW32936   6.101  12.409   0.014  0.7673 -0.8973  0.2963
 6986SOL    HW132937   6.151  12.383  -0.064  0.3707  0.1148 -0.3088
 6986SOL    HW232938   6.095  12.504   0.007 -1.9007 -1.0309 -0.0532
 6987SOL     OW32939   6.928   0.396   3.302  0.1646 -0.2512 -0.0364
 6987SOL    HW132940   7.009   0.362   3.265  0.7981  1.3938 -0.2724
 6987SOL    HW232941   6.908   0.337   3.375  1.4047 -0.8704 -0.1725
 6988SOL     OW32942   3.109  12.560   9.607 -0.7253  0.6228  0.0049
 6988SOL    HW132943   3.132  12.589   9.519 -0.0084  1.2200  0.3771
 6988SOL    HW232944   3.191  12.567   9.656 -1.2538  0.8562  0.8613
 6989SOL     OW32945  10.820  12.448   7.502 -0.4502  0.8597 -0.0824
 6989SOL    HW132946  10.734  12.485   7.521 -0.0675  0.0834  4.2045
 6989SOL    HW232947  10.810  12.354   7.515  1.2472  0.8775  1.8698
 6990SOL     OW32948   7.100  10.054   4.158 -0.2015  0.5551  0.9616
 6990SOL    HW132949   7.118   9.961   4.170  0.6250  0.7705  1.5260
 6990SOL    HW232950   7.005  10.062   4.170 -0.2245 -0.1498  1.3305
 6991SOL     OW32951   3.234   7.810   8.354  0.5205  0.4138 -0.4340
 6991SOL    HW132952   3.156   7.763   8.325 -0.9759  0.9559  2.3950
 6991SOL    HW232953   3.271   7.756   8.423  0.7753  1.6720  0.4530
 6992SOL     OW32954   5.095   3.931   1.699 -0.2820 -0.4152 -0.2839
 6992SOL    HW132955   5.068   3.851   1.744  0.2129 -0.8898 -0.7954
 6992SOL    HW232956   5.032   3.997   1.726  0.3361 -0.5291  1.5409
 6993SOL     OW32957   4.358   1.617   1.041 -0.3415  0.1814  0.5909
 6993SOL    HW132958   4.420   1.639   1.111  1.2467 -0.3280 -0.6022
 6993SOL    HW232959   4.395   1.539   1.000 -1.7951 -0.1409 -0.1832
 6994SOL     OW32960   1.698   6.229   6.930  0.2309 -0.3161  0.4051
 6994SOL    HW132961   1.658   6.316   6.927  2.1949  0.6794  1.3702
 6994SOL    HW232962   1.674   6.194   7.015 -0.8649 -0.9017 -0.1288
 6995SOL     OW32963  13.652   4.165   5.614  0.7409 -0.1770  0.4044
 6995SOL    HW132964  13.593   4.240   5.611  1.6411  0.5075 -0.8133
 6995SOL    HW232965  13.632   4.123   5.698 -0.3148  0.9663  0.7623
 6996SOL     OW32966   7.809   4.131   6.947  0.0592  0.0158  0.0358
 6996SOL    HW132967   7.836   4.220   6.922 -1.5249 -0.0554 -2.2329
 6996SOL    HW232968   7.716   4.129   6.929  0.0552 -2.1194  0.1009
 6997SOL     OW32969   9.797  12.136  12.221  0.2374 -0.2115  0.4301
 6997SOL    HW132970   9.888  12.112  12.239  0.1546 -0.5417  0.4116
 6997SOL    HW232971   9.798  12.232  12.218  0.7823 -0.2392 -0.6095
 6998SOL     OW32972  13.519  11.169  10.306 -0.1596  0.3053  0.9130
 6998SOL    HW132973  13.530  11.126  10.221  0.4042  3.3298 -0.6876
 6998SOL    HW232974  13.571  11.116  10.367  2.8086  0.2031 -1.4582
 6999SOL     OW32975   4.805  12.676   3.526 -0.7234 -0.0664  0.2004
 6999SOL    HW132976   4.865  12.746   3.553 -0.5841 -0.3943  0.7614
 6999SOL    HW232977   4.718  12.709   3.547 -0.7515  0.4536 -0.7106
 7000SOL     OW32978   0.586   3.172   5.445 -0.3046 -0.5799 -0.1240
 7000SOL    HW132979   0.648   3.228   5.398 -0.2527  0.7367  1.4253
 7000SOL    HW232980   0.501   3.191   5.405 -0.0480 -0.6116 -0.6859
 7001SOL     OW32981   3.681   4.110   3.729 -0.0057 -0.5540 -0.3531
 7001SOL    HW132982   3.749   4.174   3.709 -0.1513 -0.1811  0.3188
 7001SOL    HW232983   3.675   4.056   3.650  0.9293 -0.4702 -0.4920
 7002SOL     OW32984  12.418   4.548   1.229 -0.0315 -0.3456  0.0492
 7002SOL    HW132985  12.360   4.482   1.266  1.3904 -1.3479  0.6252
 7002SOL    HW232986  12.497   4.543   1.283  1.5111 -0.7325 -2.0751
 7003SOL     OW32987   8.138   6.514   7.858 -0.4944  0.3586  0.0088
 7003SOL    HW132988   8.059   6.461   7.872 -0.7138  0.7943  0.4548
 7003SOL    HW232989   8.170   6.534   7.946  0.7840 -0.7864 -0.1579
 7004SOL     OW32990   7.738   7.368  10.285  0.1612 -0.2925  0.2642
 7004SOL    HW132991   7.767   7.301  10.223  2.5960  1.6114 -0.7959
 7004SOL    HW232992   7.756   7.331  10.371  1.4355 -1.0400 -0.2976
 7005SOL     OW32993  13.637   8.655   8.740 -0.2190 -0.7679  0.2024
 7005SOL    HW132994  13.573   8.725   8.739  0.6904  0.0924 -0.8729
 7005SOL    HW232995  13.585   8.575   8.751 -1.6080 -0.2094 -1.7249
 7006SOL     OW32996  12.411  11.834   6.446 -0.7190 -0.3627  0.1074
 7006SOL    HW132997  12.446  11.795   6.365  1.2904  0.0165  0.7260
 7006SOL    HW232998  12.324  11.797   6.455 -0.4235 -1.5509 -1.4643
 7007SOL     OW32999   8.511   3.583   1.543  0.3112  0.3362 -0.2571
 7007SOL    HW133000   8.602   3.556   1.537  0.1465 -0.6072  1.2689
 7007SOL    HW233001   8.514   3.666   1.591  0.4930  1.2963 -1.8442
 7008SOL     OW33002  11.282   7.833   0.016 -0.4803 -0.3372  0.1483
 7008SOL    HW133003  11.315   7.780  -0.056  0.0455 -0.4883  0.4919
 7008SOL    HW233004  11.358   7.884   0.044 -0.8221  0.1276  0.2341
 7009SOL     OW33005   6.865  11.400  11.344  0.1588 -0.2009  0.0812
 7009SOL    HW133006   6.799  11.337  11.315  1.7310 -1.6262 -0.5254
 7009SOL    HW233007   6.842  11.417  11.436 -0.2482 -1.7715  0.3046
 7010SOL     OW33008   9.468   2.605  13.097  0.2579 -0.6082 -0.4707
 7010SOL    HW133009   9.420   2.659  13.034 -3.1211 -1.7435  0.8942
 7010SOL    HW233010   9.477   2.520  13.053  2.5841  0.0083 -1.3209
 7011SOL     OW33011  10.571   3.433   7.199 -0.2895 -0.4156 -0.0386
 7011SOL    HW133012  10.547   3.477   7.281  1.1862  0.9144 -0.2713
 7011SOL    HW233013  10.620   3.355   7.227  0.7751  0.3772  0.3799
 7012SOL     OW33014   1.347   5.208   7.381  0.3708 -0.1859 -0.3017
 7012SOL    HW133015   1.284   5.267   7.420 -0.2914 -1.1885  0.1952
 7012SOL    HW233016   1.308   5.181   7.298 -0.9930 -2.5500  0.9941
 7013SOL     OW33017   8.055  11.982   8.301 -0.5468  0.3230 -0.0610
 7013SOL    HW133018   8.143  11.943   8.306 -0.5037  0.0696 -1.8944
 7013SOL    HW233019   8.071  12.074   8.282 -0.5863 -0.2324 -3.3456
 7014SOL     OW33020   8.521   2.583   7.318 -0.9258  0.6054  0.6055
 7014SOL    HW133021   8.432   2.548   7.327 -0.6308  0.0580  1.6192
 7014SOL    HW233022   8.529   2.607   7.226 -1.0390 -2.3534 -0.2893
 7015SOL     OW33023   6.916  13.946   3.461 -0.0208 -0.0821  0.3276
 7015SOL    HW133024   6.983  13.983   3.404  0.3246 -3.4980 -1.7593
 7015SOL    HW233025   6.834  13.986   3.432  0.5046  0.3223 -0.6271
 7016SOL     OW33026  10.507   0.086  13.932 -0.5326  0.0242 -0.0263
 7016SOL    HW133027  10.458   0.112  14.010 -0.0798  1.8600 -0.2967
 7016SOL    HW233028  10.587   0.139  13.936  0.2403 -1.0379 -0.9131
 7017SOL     OW33029   7.050   3.006   5.983 -0.1132 -0.0864 -0.0897
 7017SOL    HW133030   6.972   2.962   6.019 -0.7305 -0.1347 -1.4173
 7017SOL    HW233031   7.044   3.096   6.016  0.1043 -0.4729  1.0500
 7018SOL     OW33032  13.549   9.559  10.197  0.5986  0.3341  0.4329
 7018SOL    HW133033  13.642   9.549  10.213  0.9855 -1.9211 -2.5073
 7018SOL    HW233034  13.507   9.492  10.251  0.8043  0.3141  0.5664
 7019SOL     OW33035  13.706   7.830  11.492  0.6880  0.2527  0.0467
 7019SOL    HW133036  13.688   7.781  11.412 -0.7152 -1.3114  1.2355
 7019SOL    HW233037  13.801   7.825  11.502  0.6465 -1.9410 -0.1210
 7020SOL     OW33038   5.568   6.137   2.249 -0.2880  0.4766  0.0257
 7020SOL    HW133039   5.521   6.159   2.168 -2.1971 -0.8938  0.6802
 7020SOL    HW233040   5.580   6.043   2.244 -0.2340  0.4117  1.2413
 7021SOL     OW33041   4.016   5.198   1.312  0.4632 -0.5796 -0.3640
 7021SOL    HW133042   4.059   5.170   1.393 -0.4244 -0.9376  0.0049
 7021SOL    HW233043   3.923   5.179   1.327  0.0434  0.9918 -0.7854
 7022SOL     OW33044  13.091  12.189   4.175  0.0306 -0.0646 -0.1182
 7022SOL    HW133045  13.049  12.248   4.238  1.9716  2.7458 -1.2670
 7022SOL    HW233046  13.183  12.188   4.200  0.2756 -1.6672 -0.9222
 7023SOL     OW33047   6.672  10.265   4.849 -0.1407  0.3477 -0.3958
 7023SOL    HW133048   6.677  10.226   4.936 -0.7281  1.4786  0.1638
 7023SOL    HW233049   6.761  10.256   4.814 -0.4435 -2.2837 -0.6834
 7024SOL     OW33050  10.662   4.935  12.282 -0.1262  0.1723  0.3737
 7024SOL    HW133051  10.734   4.883  12.318 -0.3771 -0.7696 -0.4384
 7024SOL    HW233052  10.673   5.022  12.320  4.2433  1.5379 -3.2018
 7025SOL     OW33053   1.987  11.694   1.006  0.1986  0.0079 -0.3733
 7025SOL    HW133054   1.928  11.763   1.037 -0.8817 -0.0012 -2.2090
 7025SOL    HW233055   1.928  11.624   0.976  1.2417 -1.2464  0.3750
 7026SOL     OW33056   4.770   0.139   2.876 -1.1397  0.2688  0.2230
 7026SOL    HW133057   4.678   0.112   2.886 -0.8410 -0.8615  0.1161
 7026SOL    HW233058   4.800   0.089   2.799 -0.0634 -0.4360  1.0813
 7027SOL     OW33059  11.301   0.435   4.298 -0.0556 -0.1536 -0.0346
 7027SOL    HW133060  11.380   0.392   4.330  0.1848  0.5269  0.3193
 7027SOL    HW233061  11.331   0.523   4.273 -0.7148  0.1326  0.1749
 7028SOL     OW33062   0.647  10.605   7.132  0.1065 -0.0659 -0.3749
 7028SOL    HW133063   0.733  10.582   7.168 -0.3011 -0.2079  0.5490
 7028SOL    HW233064   0.629  10.693   7.167 -0.0774  0.0110 -0.6560
 7029SOL     OW33065   8.386  11.853   0.979 -0.5879 -0.5562 -0.0537
 7029SOL    HW133066   8.420  11.896   1.058  1.4595 -0.1877 -1.0555
 7029SOL    HW233067   8.304  11.899   0.960 -1.6719 -1.3431  2.3956
 7030SOL     OW33068   2.603   2.241   7.680  0.7208 -0.3100  0.0084
 7030SOL    HW133069   2.561   2.288   7.607  0.4767  0.5024  0.6596
 7030SOL    HW233070   2.652   2.308   7.726  0.8695 -0.8226  0.6011
 7031SOL     OW33071  10.691  13.821  13.110 -0.0960 -0.0239 -0.0551
 7031SOL    HW133072  10.684  13.781  13.023  0.7136 -0.5477  0.1070
 7031SOL    HW233073  10.696  13.915  13.093 -0.8964 -0.0559 -0.5104
 7032SOL     OW33074   9.941   8.303   1.023 -0.2777  0.3746  0.2507
 7032SOL    HW133075   9.956   8.232   1.086 -1.6525  0.5224  0.7819
 7032SOL    HW233076   9.898   8.261   0.949  0.8533  0.2948 -0.3714
 7033SOL     OW33077  10.770  10.988  10.128  0.2866 -0.2371  0.3139
 7033SOL    HW133078  10.787  11.012  10.037  0.6733 -0.0301  0.4361
 7033SOL    HW233079  10.716  11.059  10.162 -0.6528 -0.7797 -0.0107
 7034SOL     OW33080   6.516   7.238  11.883  0.1716  0.5174  0.3827
 7034SOL    HW133081   6.511   7.317  11.829  0.1808  0.4965  0.3510
 7034SOL    HW233082   6.539   7.270  11.970  1.7388  0.4200  0.0360
 7035SOL     OW33083   0.346   5.777  11.192  0.0907  1.0241 -0.5423
 7035SOL    HW133084   0.282   5.840  11.160  0.1709  1.3722 -0.0220
 7035SOL    HW233085   0.412   5.829  11.237  1.2587  0.7611 -1.8640
 7036SOL     OW33086   7.078   2.660   4.081  0.2733 -0.3129  0.0392
 7036SOL    HW133087   7.166   2.634   4.110  0.1056 -0.0645  0.7959
 7036SOL    HW233088   7.054   2.594   4.015  1.8726  0.8312 -1.7851
 7037SOL     OW33089   0.467   0.332  11.235  0.0683  0.2726  0.1957
 7037SOL    HW133090   0.449   0.258  11.177 -0.4848 -0.3452  1.1170
 7037SOL    HW233091   0.437   0.409  11.187 -0.2315 -0.2118 -0.4045
 7038SOL     OW33092   3.744   7.092   7.054 -0.0208 -0.0052  0.0925
 7038SOL    HW133093   3.669   7.152   7.048 -0.2118 -0.0454  1.6664
 7038SOL    HW233094   3.714   7.023   7.113  1.5326  0.4444  1.4876
 7039SOL     OW33095  12.230   5.068   1.402  0.2432 -0.9218 -0.6181
 7039SOL    HW133096  12.252   5.096   1.313  0.0550  0.1925 -0.3292
 7039SOL    HW233097  12.152   5.013   1.391  0.7950 -1.5999 -1.2288
 7040SOL     OW33098   6.117  10.599  10.874 -0.2923 -0.0041 -0.1951
 7040SOL    HW133099   6.185  10.532  10.882 -0.0676  0.0276 -1.6317
 7040SOL    HW233100   6.047  10.570  10.932  0.8650 -0.1256  1.1886
 7041SOL     OW33101   2.101  12.656   3.913  0.4338 -0.4378  0.4671
 7041SOL    HW133102   2.071  12.565   3.911 -2.5735  0.4414  0.1193
 7041SOL    HW233103   2.140  12.670   3.826 -0.9259 -0.8836 -0.2495
 7042SOL     OW33104   0.673  13.338   1.796  0.0004  0.1405  0.0474
 7042SOL    HW133105   0.746  13.310   1.852  0.2411  0.3519 -0.1615
 7042SOL    HW233106   0.713  13.399   1.734 -0.2895 -0.0149 -0.2889
 7043SOL     OW33107   2.800  10.150   2.545 -0.0588  0.1576 -0.2333
 7043SOL    HW133108   2.885  10.145   2.503 -0.2417  1.0625 -0.7372
 7043SOL    HW233109   2.816  10.123   2.636  0.2784 -2.0940 -0.9187
 7044SOL     OW33110   2.911   4.732  11.612  0.4872 -0.0895  0.1483
 7044SOL    HW133111   2.930   4.821  11.642  1.7811 -0.5538  0.7694
 7044SOL    HW233112   2.881   4.744  11.522 -0.3389  1.0566  0.5460
 7045SOL     OW33113   2.965   1.179   6.156  0.2453 -0.0804 -0.2556
 7045SOL    HW133114   2.918   1.198   6.075 -1.7007  0.8347  1.0287
 7045SOL    HW233115   2.944   1.087   6.176 -2.0789  0.6266  0.9025
 7046SOL     OW33116   8.530   9.913  12.528  0.0762  0.2043 -0.2516
 7046SOL    HW133117   8.492   9.970  12.461 -0.2917  1.6999  1.1737
 7046SOL    HW233118   8.466   9.912  12.598 -0.1754 -2.4665 -0.4275
 7047SOL     OW33119   4.109  12.054  10.077 -0.2314  0.2147  0.0809
 7047SOL    HW133120   4.177  12.028  10.015  0.3920  0.1942  0.7637
 7047SOL    HW233121   4.101  11.980  10.137 -0.3507  0.5055  0.4239
 7048SOL     OW33122   7.947   2.503  10.565  0.5046 -1.1661 -0.3388
 7048SOL    HW133123   7.964   2.490  10.658 -0.4811  2.0465  0.4274
 7048SOL    HW233124   8.016   2.564  10.536 -0.8305  0.1394 -0.9283
 7049SOL     OW33125   8.387  13.785   5.486 -0.4759  0.3175  0.1503
 7049SOL    HW133126   8.368  13.692   5.493  1.5820 -0.1941 -0.4993
 7049SOL    HW233127   8.419  13.810   5.572  0.5073  0.0292 -0.1236
 7050SOL     OW33128   6.107   6.294   1.322  0.4502 -0.9232  0.1688
 7050SOL    HW133129   6.159   6.323   1.397  1.3045  1.0260 -1.0897
 7050SOL    HW233130   6.172   6.263   1.258 -0.3375 -4.1478  0.7533
 7051SOL     OW33131   9.233  12.703  11.408 -0.4479 -0.6827  0.3891
 7051SOL    HW133132   9.173  12.635  11.437 -1.3231 -1.0565 -2.1247
 7051SOL    HW233133   9.184  12.785  11.420 -0.0214 -0.6031  1.8097
 7052SOL     OW33134   2.905  13.393  11.738  0.1216 -0.2962  0.8752
 7052SOL    HW133135   2.857  13.468  11.774  0.5795  0.8522 -0.7366
 7052SOL    HW233136   2.968  13.370  11.806  0.5230  1.3608  1.1249
 7053SOL     OW33137  10.948   4.747   3.715  0.0800 -0.9317 -0.0991
 7053SOL    HW133138  11.039   4.776   3.713  0.2223 -1.3833 -0.3858
 7053SOL    HW233139  10.932   4.712   3.627 -0.3391 -0.9525 -0.0196
 7054SOL     OW33140   7.105   2.208  13.767 -0.0177 -0.2923  0.0770
 7054SOL    HW133141   7.088   2.114  13.757  0.8812 -0.2510 -2.5186
 7054SOL    HW233142   7.056   2.249  13.696  0.7262  1.0743  0.3148
 7055SOL     OW33143   7.085   6.979   5.682  0.2460  0.2126  0.5286
 7055SOL    HW133144   7.029   6.912   5.642 -1.6895 -0.7191  4.2359
 7055SOL    HW233145   7.030   7.016   5.752  2.7884  2.5974  1.4364
 7056SOL     OW33146   7.344   0.525  11.999  0.4424  0.6259 -0.3429
 7056SOL    HW133147   7.434   0.495  11.985  1.2485  2.5108  0.4171
 7056SOL    HW233148   7.354   0.616  12.028 -1.5996  0.2920  1.6889
 7057SOL     OW33149   1.283   9.060   5.065  0.2738 -0.4234 -0.2149
 7057SOL    HW133150   1.210   9.114   5.035 -0.1741 -0.3046  1.0218
 7057SOL    HW233151   1.266   9.046   5.158  0.5764 -2.3799 -0.3970
 7058SOL     OW33152   9.516   6.042   2.650 -0.3294 -0.4800  0.6076
 7058SOL    HW133153   9.601   6.027   2.692 -0.1891  1.5427  1.1186
 7058SOL    HW233154   9.457   6.062   2.722 -0.5005  1.2096  0.0357
 7059SOL     OW33155   6.811   0.928   5.214  0.0810 -0.1392  0.2408
 7059SOL    HW133156   6.851   1.013   5.195 -0.7964  0.0796 -0.6683
 7059SOL    HW233157   6.885   0.872   5.240  0.8612  0.5044 -0.5369
 7060SOL     OW33158   2.961   4.395   9.479 -0.5286 -0.3016  0.0793
 7060SOL    HW133159   2.923   4.465   9.426  0.0745 -1.4827 -2.0171
 7060SOL    HW233160   3.033   4.436   9.526 -0.7103  0.6609 -0.4598
 7061SOL     OW33161  11.026   0.581   5.254  0.1993 -0.0640  0.1757
 7061SOL    HW133162  10.973   0.604   5.177  2.9704 -0.6560 -2.0869
 7061SOL    HW233163  11.059   0.493   5.235  1.4822  0.0349  1.7526
 7062SOL     OW33164   3.246   6.252   0.380 -0.5022  0.1115 -0.4608
 7062SOL    HW133165   3.299   6.175   0.363 -0.8659 -0.3291  0.3799
 7062SOL    HW233166   3.156   6.220   0.382 -0.8439  0.8784 -2.0377
 7063SOL     OW33167   3.166   8.501   1.380  0.1993 -0.2121  0.5056
 7063SOL    HW133168   3.237   8.565   1.376 -0.8593  0.9890  0.4875
 7063SOL    HW233169   3.205   8.421   1.344  1.2348  0.7129 -0.5241
 7064SOL     OW33170   3.960   1.045   5.196 -0.0171  0.0752  0.2364
 7064SOL    HW133171   3.970   0.957   5.160  1.3669  0.6450 -0.8750
 7064SOL    HW233172   3.921   1.096   5.125 -1.5351  0.2227  1.1283
 7065SOL     OW33173  12.659   0.498  11.250 -0.2237  0.0618 -0.4149
 7065SOL    HW133174  12.722   0.567  11.272 -0.0301 -0.1981 -0.1479
 7065SOL    HW233175  12.645   0.508  11.156  0.1873  0.1466 -0.4698
 7066SOL     OW33176   9.340   4.233   6.524  0.1349 -0.3562  0.5248
 7066SOL    HW133177   9.276   4.164   6.510 -1.5128  0.7140  2.2488
 7066SOL    HW233178   9.413   4.211   6.466 -1.9303 -1.4216 -1.8283
 7067SOL     OW33179  11.003   7.794  14.016  0.1828 -0.4088  0.3017
 7067SOL    HW133180  11.099   7.784  14.013  0.3775  1.2135 -0.0795
 7067SOL    HW233181  10.989   7.888  14.008 -1.4340 -0.5418  1.1924
 7068SOL     OW33182   9.052   8.067   4.910  0.1402  0.0871 -0.4518
 7068SOL    HW133183   9.131   8.115   4.936 -1.0947  2.0549 -0.1151
 7068SOL    HW233184   8.981   8.131   4.920 -1.2650 -1.0166 -2.5873
 7069SOL     OW33185   5.484  12.270   5.168 -0.2576  0.3234  0.1618
 7069SOL    HW133186   5.565  12.243   5.211 -0.3843  1.5218  1.2040
 7069SOL    HW233187   5.504  12.263   5.074  0.4574 -1.0548  0.3832
 7070SOL     OW33188   2.794  12.149   5.253 -0.8129 -0.2759 -0.3829
 7070SOL    HW133189   2.703  12.125   5.271 -0.6345 -1.7276 -1.2496
 7070SOL    HW233190   2.833  12.161   5.339 -1.2576 -1.9727  0.1013
 7071SOL     OW33191   1.691   8.945   6.052 -0.6115  0.0450 -0.0733
 7071SOL    HW133192   1.650   8.972   6.134 -1.0438  1.8073 -0.8127
 7071SOL    HW233193   1.621   8.954   5.987  0.0076 -0.3245 -0.7950
 7072SOL     OW33194   7.402  12.566  13.177 -0.3192 -0.0008 -0.2302
 7072SOL    HW133195   7.352  12.490  13.146  0.1581 -0.1457 -0.6491
 7072SOL    HW233196   7.490  12.532  13.195 -0.4039  0.2113  0.6829
 7073SOL     OW33197   4.707  10.024   9.953  0.0881 -0.1186  0.2254
 7073SOL    HW133198   4.791  10.064   9.930  0.6363 -1.0144  0.6113
 7073SOL    HW233199   4.724   9.930   9.952 -0.8739 -0.3068  0.4632
 7074SOL     OW33200  10.946   5.920  13.555 -0.0047 -0.0615 -0.2306
 7074SOL    HW133201  10.857   5.949  13.572 -0.0876 -1.0074  1.0217
 7074SOL    HW233202  10.998   5.954  13.628  0.1423 -1.8006  0.5296
 7075SOL     OW33203   8.692   0.469   9.873  0.2892 -0.7073  0.3012
 7075SOL    HW133204   8.710   0.554   9.833  0.5014 -1.5446 -1.5044
 7075SOL    HW233205   8.732   0.406   9.813 -1.2961 -2.1575  0.7031
 7076SOL     OW33206   0.008   2.876   6.652 -0.2080 -0.1562  0.0552
 7076SOL    HW133207   0.058   2.795   6.656 -1.3021 -0.8402  0.3827
 7076SOL    HW233208   0.061   2.934   6.597 -0.0647 -1.5853 -1.4124
 7077SOL     OW33209   4.677  12.113  10.437 -0.0177  0.4473 -0.0272
 7077SOL    HW133210   4.684  12.038  10.379 -0.1877 -0.2314  0.8030
 7077SOL    HW233211   4.686  12.076  10.525 -2.9731  0.9405  0.5853
 7078SOL     OW33212   1.775   8.667  10.509 -0.0496 -0.0187 -0.3180
 7078SOL    HW133213   1.778   8.571  10.508 -1.0064 -0.0634  0.3599
 7078SOL    HW233214   1.867   8.693  10.518  0.2149 -0.8672 -0.4511
 7079SOL     OW33215   6.080   1.155   9.095  0.6786  0.0714  0.1804
 7079SOL    HW133216   6.172   1.173   9.112  0.6444  0.1442  0.2896
 7079SOL    HW233217   6.071   1.060   9.108  0.6976  0.0938  0.3600
 7080SOL     OW33218   1.787   8.146  12.016  0.1183  0.4632  0.4870
 7080SOL    HW133219   1.859   8.085  12.032 -0.6641 -0.4540  0.6071
 7080SOL    HW233220   1.718   8.092  11.978  0.0393  1.6171 -1.1249
 7081SOL     OW33221   8.833   9.400  10.941 -0.0524  0.1534 -0.0104
 7081SOL    HW133222   8.751   9.388  10.893 -0.5591  0.2801  0.8068
 7081SOL    HW233223   8.809   9.454  11.017  0.8024  0.2573  0.1995
 7082SOL     OW33224   5.308   6.814   1.726  0.2186  0.3502  0.2967
 7082SOL    HW133225   5.344   6.732   1.691 -2.4981 -0.2843 -1.2910
 7082SOL    HW233226   5.233   6.786   1.779 -0.7912  1.8189 -0.3124
 7083SOL     OW33227   2.599  11.730   6.832  0.4015 -0.0415  0.5707
 7083SOL    HW133228   2.682  11.684   6.845  1.2175  1.4337  0.7510
 7083SOL    HW233229   2.590  11.786   6.909 -0.9956 -0.5051  0.7633
 7084SOL     OW33230   6.427  13.610   2.299  0.2045  0.0725 -0.1110
 7084SOL    HW133231   6.342  13.585   2.263 -0.3634  0.2564  1.0561
 7084SOL    HW233232   6.465  13.528   2.329  0.3821  0.0092 -0.5016
 7085SOL     OW33233  11.005   6.901   3.058  0.3291  0.1670 -0.1131
 7085SOL    HW133234  10.931   6.962   3.063  0.0062 -0.2824  0.6966
 7085SOL    HW233235  10.970   6.825   3.011  0.0036 -0.4081  1.0204
 7086SOL     OW33236   6.456   5.783   8.289 -0.3058 -0.2312  0.7687
 7086SOL    HW133237   6.384   5.845   8.278  1.2809  1.2171 -3.1998
 7086SOL    HW233238   6.439   5.715   8.223  2.0949  0.4196 -0.6206
 7087SOL     OW33239  10.748   4.993   0.978  0.4737  0.2764  0.0523
 7087SOL    HW133240  10.794   5.072   0.951  1.3616 -0.1519  0.2715
 7087SOL    HW233241  10.721   4.952   0.896  2.2490 -0.4877 -0.2067
 7088SOL     OW33242   4.881   3.923  10.061  0.7379  0.1112 -0.1622
 7088SOL    HW133243   4.958   3.885  10.020  0.7103  1.0498 -1.1433
 7088SOL    HW233244   4.822   3.942   9.988  0.1584  0.6825  0.4371
 7089SOL     OW33245   4.418   4.032   1.192  0.5589 -0.0623  0.0769
 7089SOL    HW133246   4.425   4.015   1.286 -0.0696 -2.2504 -0.2151
 7089SOL    HW233247   4.496   3.989   1.154 -0.3474 -1.1931 -0.5777
 7090SOL     OW33248   3.046   4.925  10.499 -0.4673  0.0943 -0.1036
 7090SOL    HW133249   2.992   4.851  10.526 -2.2206  1.6369  0.8942
 7090SOL    HW233250   3.055   4.915  10.404 -1.2402 -1.0185 -0.0833
 7091SOL     OW33251   7.181   2.239   1.775  0.5259  0.1207 -0.2874
 7091SOL    HW133252   7.086   2.235   1.763  0.2946 -1.5147  1.6309
 7091SOL    HW233253   7.193   2.292   1.853  1.1424 -0.3407 -0.0627
 7092SOL     OW33254  12.823   2.469  10.143 -0.3114  0.3059  0.3437
 7092SOL    HW133255  12.912   2.505  10.137  0.0287 -0.5230  0.2386
 7092SOL    HW233256  12.767   2.545  10.159  0.5801  0.6818  1.8554
 7093SOL     OW33257   8.197   1.702   4.108 -0.1304  0.0107  0.2963
 7093SOL    HW133258   8.223   1.707   4.016 -2.2203 -0.2069 -0.3616
 7093SOL    HW233259   8.259   1.759   4.153  0.1257  1.2133 -1.4525
 7094SOL     OW33260  12.562  11.418   6.473  0.6639 -1.0098 -0.1462
 7094SOL    HW133261  12.548  11.344   6.414  0.0688 -1.1337  0.1459
 7094SOL    HW233262  12.649  11.403   6.510  0.1399 -2.1257  0.6926
 7095SOL     OW33263  13.555  11.681   5.918 -0.3884  0.6818 -0.0256
 7095SOL    HW133264  13.464  11.689   5.888 -1.2710 -0.0760  2.3003
 7095SOL    HW233265  13.581  11.771   5.936 -0.3135  1.0058 -1.5518
 7096SOL     OW33266  10.161   5.786   1.543 -0.0918  0.9233 -0.5165
 7096SOL    HW133267  10.164   5.702   1.589  0.8486  1.3308  0.1991
 7096SOL    HW233268  10.100   5.839   1.594  0.6092  1.2246  0.0325
 7097SOL     OW33269  10.326  11.127  10.042  0.2072  0.0464 -0.1116
 7097SOL    HW133270  10.343  11.180   9.964  2.1717  1.5044  1.1916
 7097SOL    HW233271  10.412  11.109  10.078 -0.6555  0.3136  2.2667
 7098SOL     OW33272   5.713   3.666  12.523 -0.0032  0.4425 -0.1110
 7098SOL    HW133273   5.693   3.677  12.616 -1.7497  0.3158 -0.4341
 7098SOL    HW233274   5.739   3.574  12.515  0.8011  0.6205  0.3401
 7099SOL     OW33275  12.193   3.110   7.621 -0.4648  0.7463  0.1142
 7099SOL    HW133276  12.215   3.032   7.671  2.5387 -0.4622 -2.7484
 7099SOL    HW233277  12.104   3.095   7.590 -1.1607  0.0805  2.2236
 7100SOL     OW33278   8.277   2.338  10.901  0.4207 -0.4975 -0.2525
 7100SOL    HW133279   8.338   2.370  10.967 -1.8973  0.4284  1.6060
 7100SOL    HW233280   8.276   2.243  10.913  1.5318 -0.5323 -0.3752
 7101SOL     OW33281  13.740   8.113   4.062  0.5184  0.1978 -1.0543
 7101SOL    HW133282  13.775   8.104   3.973  1.1523 -1.2996 -0.6841
 7101SOL    HW233283  13.647   8.095   4.052  0.5801  0.0532 -1.4274
 7102SOL     OW33284   1.877   9.250   7.792 -0.0169  0.1362  0.0314
 7102SOL    HW133285   1.837   9.327   7.752 -0.8110  1.1192  2.5455
 7102SOL    HW233286   1.832   9.176   7.751 -3.6413  1.1582  1.7358
 7103SOL     OW33287   0.716   4.543   6.640  0.4197  0.5239 -0.1354
 7103SOL    HW133288   0.639   4.593   6.669  1.2039  1.8403 -0.2233
 7103SOL    HW233289   0.692   4.452   6.653 -0.6075  0.9614  1.2552
 7104SOL     OW33290  12.366   5.117   5.287  0.2259 -0.0590 -0.2050
 7104SOL    HW133291  12.329   5.113   5.199  1.3222  0.9396 -0.7552
 7104SOL    HW233292  12.460   5.104   5.273  0.2178 -1.7793  1.0492
 7105SOL     OW33293  11.652  13.800  12.407  0.2048  0.3752  0.1725
 7105SOL    HW133294  11.672  13.724  12.352 -0.5850  0.4641 -0.2499
 7105SOL    HW233295  11.648  13.873  12.347 -0.9966  0.4193  0.2821
 7106SOL     OW33296   7.062   5.338  10.555 -0.8061 -0.1362 -0.1649
 7106SOL    HW133297   6.996   5.277  10.588 -2.3261  1.8265  0.5937
 7106SOL    HW233298   7.056   5.414  10.613  0.9284  0.8291 -1.1612
 7107SOL     OW33299   7.024  12.985   4.773  0.0728  0.0318 -0.4153
 7107SOL    HW133300   6.995  12.955   4.860  1.8598 -0.1468  0.1674
 7107SOL    HW233301   6.990  12.919   4.713 -0.4408 -0.3290  0.2446
 7108SOL     OW33302  11.267   4.716   6.968  0.1131  0.0664 -0.2911
 7108SOL    HW133303  11.177   4.747   6.958 -0.2809 -1.0208 -0.2797
 7108SOL    HW233304  11.297   4.756   7.049 -0.2372  0.7353 -0.4893
 7109SOL     OW33305   0.196   7.037  11.703  0.5433  0.1433  0.5931
 7109SOL    HW133306   0.239   6.999  11.780 -0.9953  1.4758  2.1897
 7109SOL    HW233307   0.247   7.115  11.684  0.8152 -0.0887  0.3565
 7110SOL     OW33308   1.110   6.857   4.296 -0.6470 -0.8767 -0.3204
 7110SOL    HW133309   1.045   6.910   4.248  0.3135  0.7694  0.1152
 7110SOL    HW233310   1.082   6.766   4.282 -3.5662 -0.2383  0.5737
 7111SOL     OW33311   1.194   2.283  10.511  0.6158  0.4377  0.1135
 7111SOL    HW133312   1.139   2.340  10.564  1.3111  0.7552  0.5128
 7111SOL    HW233313   1.228   2.340  10.442 -0.8109 -0.1210 -1.1050
 7112SOL     OW33314  10.798   1.886  11.243  0.2978 -0.4816  0.0817
 7112SOL    HW133315  10.764   1.975  11.234 -0.3386 -0.7895 -0.7659
 7112SOL    HW233316  10.870   1.893  11.305  0.9124  0.7991 -0.7494
 7113SOL     OW33317   3.489   9.595   7.435 -0.4905 -0.2237 -0.4815
 7113SOL    HW133318   3.438   9.670   7.404  0.0326  0.1091 -0.5363
 7113SOL    HW233319   3.559   9.585   7.371  0.4346  0.2935  0.4371
 7114SOL     OW33320   3.549  11.315  12.021  0.2498  0.4470 -0.2152
 7114SOL    HW133321   3.476  11.343  11.966  0.7395 -0.7236 -1.5092
 7114SOL    HW233322   3.526  11.226  12.048  1.3936 -0.1166 -1.0327
 7115SOL     OW33323   5.484  10.069   9.629  0.2338  0.2493 -0.2916
 7115SOL    HW133324   5.575  10.052   9.654  0.0363 -0.8701 -0.3028
 7115SOL    HW233325   5.440   9.984   9.636 -1.8406  1.4017  3.6568
 7116SOL     OW33326   1.260   7.065   4.901 -0.5997  0.2919  0.5470
 7116SOL    HW133327   1.199   7.039   4.832  1.7279 -0.2031 -1.4660
 7116SOL    HW233328   1.284   6.983   4.944 -0.7002  0.3769  0.7661
 7117SOL     OW33329   8.185   4.283  13.982  0.2192  0.5887  0.2458
 7117SOL    HW133330   8.241   4.240  13.918  0.8019  1.3243  0.2377
 7117SOL    HW233331   8.101   4.294  13.938  0.2558  0.0256  0.0372
 7118SOL     OW33332  10.475   4.398   9.738 -0.6684 -0.0177 -0.4568
 7118SOL    HW133333  10.482   4.337   9.811  1.2565 -0.4042 -0.8951
 7118SOL    HW233334  10.434   4.476   9.776 -0.4962 -0.5188  0.8252
 7119SOL     OW33335   5.904   2.384   1.914 -0.0749 -0.0342  0.1311
 7119SOL    HW133336   5.925   2.477   1.924  2.1490 -0.5688  1.2914
 7119SOL    HW233337   5.858   2.378   1.831  1.1525  1.9132 -0.7704
 7120SOL     OW33338  13.523   7.780   5.052  0.1244 -0.3857  0.5723
 7120SOL    HW133339  13.531   7.783   5.148 -0.6636  1.0807  0.6198
 7120SOL    HW233340  13.462   7.851   5.031  1.2727  0.1606 -1.1254
 7121SOL     OW33341  11.326  12.225  11.193  0.5492  0.0735 -0.0432
 7121SOL    HW133342  11.318  12.199  11.101 -0.5757  0.0949  0.0322
 7121SOL    HW233343  11.289  12.313  11.197  0.4687  0.0212  0.4512
 7122SOL     OW33344   5.962  13.958   0.253 -0.3907 -0.4294 -0.9197
 7122SOL    HW133345   6.019  13.899   0.303  0.2720  0.1944 -0.9129
 7122SOL    HW233346   5.955  13.918   0.167  0.5107 -0.2453 -1.0885
 7123SOL     OW33347  11.424   3.890   6.573  0.0078  0.1784  0.0969
 7123SOL    HW133348  11.435   3.859   6.483 -1.7336 -0.2914  0.0237
 7123SOL    HW233349  11.514   3.901   6.605  0.6683 -1.3168 -1.1266
 7124SOL     OW33350   9.417   1.405   6.973  0.0963 -0.3981  0.0820
 7124SOL    HW133351   9.333   1.402   6.926  0.3880  0.6207 -0.5371
 7124SOL    HW233352   9.469   1.336   6.932 -0.5291 -1.2406  0.6726
 7125SOL     OW33353   8.567   3.235   3.939 -0.3567  0.0758 -0.0322
 7125SOL    HW133354   8.644   3.292   3.946 -0.5105  0.2374  0.4123
 7125SOL    HW233355   8.601   3.147   3.956 -0.0525 -0.0221 -1.0925
 7126SOL     OW33356   3.401   8.180  13.951  0.0703 -0.0957  0.0397
 7126SOL    HW133357   3.366   8.126  13.880 -0.9690 -0.5169  0.8442
 7126SOL    HW233358   3.324   8.217  13.993  0.6772  0.1969  0.9209
 7127SOL     OW33359  10.257   2.982   7.354 -0.1845  0.3479 -0.1016
 7127SOL    HW133360  10.325   2.978   7.287  0.0653 -1.2873  0.2032
 7127SOL    HW233361  10.175   2.987   7.306 -0.3049 -4.2214 -0.8064
 7128SOL     OW33362  10.731   1.599   4.143  0.0436  0.0067 -0.1372
 7128SOL    HW133363  10.823   1.596   4.119  0.1466  1.6037 -0.1067
 7128SOL    HW233364  10.709   1.693   4.138 -1.7783 -0.4144 -0.9585
 7129SOL     OW33365   5.597   4.096  10.842 -0.4720 -0.0636  1.0977
 7129SOL    HW133366   5.595   4.165  10.908 -1.7492 -0.2136  1.2444
 7129SOL    HW233367   5.648   4.133  10.770  0.3746  0.3483  1.8879
 7130SOL     OW33368   3.810   8.462   4.916  0.0701  0.8795  0.0342
 7130SOL    HW133369   3.778   8.457   5.007  0.1355 -1.0499 -0.0192
 7130SOL    HW233370   3.740   8.423   4.864  0.5472  0.8782 -0.6112
 7131SOL     OW33371  12.102   1.926   3.372  0.4366  0.1152 -0.1971
 7131SOL    HW133372  12.066   1.866   3.437 -0.5027 -0.4737 -1.2196
 7131SOL    HW233373  12.138   1.869   3.304  2.6186  0.6992  0.3806
 7132SOL     OW33374   2.837   0.809  13.953 -0.0538  0.0636 -0.3866
 7132SOL    HW133375   2.747   0.822  13.982 -0.8109 -1.4466 -1.8751
 7132SOL    HW233376   2.860   0.722  13.986  0.1565 -0.3649 -1.6084
 7133SOL     OW33377   8.099   3.585  12.645 -0.1826  0.4089 -0.0858
 7133SOL    HW133378   8.150   3.505  12.657 -0.5012  0.2960  0.5257
 7133SOL    HW233379   8.115   3.610  12.554 -0.7196 -0.8032 -0.5346
 7134SOL     OW33380   2.172   1.339   7.586  0.5961  0.0969  0.3290
 7134SOL    HW133381   2.240   1.362   7.649 -0.5037  0.6714  1.3427
 7134SOL    HW233382   2.134   1.258   7.620  0.3772  0.1018  0.1019
 7135SOL     OW33383   1.264   9.211  12.347  0.3458  0.0670 -0.0275
 7135SOL    HW133384   1.291   9.168  12.428  2.1496  0.9460 -0.1114
 7135SOL    HW233385   1.175   9.180  12.332  0.4126 -1.0623  1.6325
 7136SOL     OW33386  10.704  11.484   4.364 -0.0486  0.0216  0.2966
 7136SOL    HW133387  10.728  11.551   4.300  0.8129 -0.2034  0.3634
 7136SOL    HW233388  10.645  11.528   4.426  0.2182  0.6114  0.1306
 7137SOL     OW33389   7.737   2.180   8.763  0.5172 -0.2595  0.1253
 7137SOL    HW133390   7.642   2.190   8.756  0.4690 -0.0637  0.8808
 7137SOL    HW233391   7.769   2.269   8.780  0.8127 -0.3524  0.0565
 7138SOL     OW33392   9.265   2.820  11.128 -0.3506  0.1936 -0.3582
 7138SOL    HW133393   9.268   2.908  11.090  0.2961  0.7985  1.0358
 7138SOL    HW233394   9.225   2.766  11.059  0.9927  1.1720 -1.9954
 7139SOL     OW33395  13.095  11.372  11.093  0.1187  0.1512  0.6333
 7139SOL    HW133396  13.169  11.408  11.143 -0.4646  2.2048  0.1451
 7139SOL    HW233397  13.119  11.385  11.002 -0.9212  1.0952  0.4696
 7140SOL     OW33398   4.602   2.093  12.861  0.3912 -0.6172  0.1292
 7140SOL    HW133399   4.641   2.102  12.774  0.1412  0.0282  0.0795
 7140SOL    HW233400   4.629   2.172  12.908 -0.9924 -0.0613  0.0373
 7141SOL     OW33401   6.808   2.344  12.429 -0.1270  0.2660 -0.1040
 7141SOL    HW133402   6.873   2.274  12.432  0.2366  0.5693 -0.6926
 7141SOL    HW233403   6.827   2.391  12.348 -1.3211  0.1239 -0.5037
 7142SOL     OW33404   8.065   3.685   3.536  0.5183  0.4717 -0.3110
 7142SOL    HW133405   8.141   3.685   3.593  0.7320 -0.4044 -0.5891
 7142SOL    HW233406   8.079   3.613   3.475 -1.4556 -1.0498  0.8907
 7143SOL     OW33407  13.947   6.234   5.982 -0.5041  0.0939  0.1702
 7143SOL    HW133408  13.942   6.296   5.908  0.8450  0.0249  0.0015
 7143SOL    HW233409  13.875   6.173   5.966 -0.5276  0.3568 -0.8383
 7144SOL     OW33410  11.452  10.759   6.201 -0.3816  0.0807 -0.3984
 7144SOL    HW133411  11.365  10.772   6.239 -0.3130  0.5359 -0.3952
 7144SOL    HW233412  11.503  10.719   6.271 -0.5475 -0.0479 -0.3517
 7145SOL     OW33413   9.746   7.147  13.397 -0.0957 -0.5006 -0.1171
 7145SOL    HW133414   9.732   7.220  13.337 -0.0731 -1.5582 -1.4422
 7145SOL    HW233415   9.840   7.132  13.396 -0.1741 -0.9835 -0.3774
 7146SOL     OW33416  11.283   1.602   2.796 -0.0690  0.2818  0.0049
 7146SOL    HW133417  11.332   1.544   2.854  0.5165  0.4585 -0.3015
 7146SOL    HW233418  11.290   1.562   2.710  1.3245  1.3823 -0.4301
 7147SOL     OW33419  13.798   6.364  12.965  0.8439  0.1498 -0.5656
 7147SOL    HW133420  13.724   6.324  12.919 -0.3034  0.4789  0.8754
 7147SOL    HW233421  13.847   6.291  13.001  0.8685 -0.0610 -1.0298
 7148SOL     OW33422  10.518   1.338   0.665  0.7741  0.3228  0.1498
 7148SOL    HW133423  10.538   1.431   0.656  1.9286  0.3705  2.4804
 7148SOL    HW233424  10.422   1.334   0.663  0.7243  1.3769 -1.1675
 7149SOL     OW33425   3.705   5.449   1.377  0.1999 -0.4389 -0.5457
 7149SOL    HW133426   3.687   5.538   1.408  1.4871 -1.0345  2.2170
 7149SOL    HW233427   3.626   5.399   1.399  1.0284 -0.8133  1.8389
 7150SOL     OW33428   0.955   3.103  10.729  0.7222 -0.8646 -0.2382
 7150SOL    HW133429   0.909   3.035  10.679  0.4561 -0.4923 -0.4990
 7150SOL    HW233430   0.992   3.160  10.662 -1.7191  1.0826 -0.0697
 7151SOL     OW33431   2.674  14.034   3.149 -0.4497  0.4711  0.1773
 7151SOL    HW133432   2.651  14.095   3.219 -1.2207  1.5377 -0.9631
 7151SOL    HW233433   2.596  14.030   3.094  0.0867 -0.4518 -0.5504
 7152SOL     OW33434   3.590  12.386   6.540 -0.1062 -0.4139 -0.1160
 7152SOL    HW133435   3.526  12.390   6.612 -0.5471  2.4035 -0.5416
 7152SOL    HW233436   3.536  12.372   6.462  0.1949 -1.5985 -0.1300
 7153SOL     OW33437   1.625   8.701   4.753  0.0214  0.1478  0.2202
 7153SOL    HW133438   1.549   8.643   4.748  0.5679 -0.5974  0.3983
 7153SOL    HW233439   1.592   8.780   4.796 -0.6459 -0.1836  0.3223
 7154SOL     OW33440   3.274   1.001  13.244 -0.6597  0.4208  0.1392
 7154SOL    HW133441   3.256   1.030  13.334 -1.3216 -2.4252  1.0616
 7154SOL    HW233442   3.208   1.045  13.191 -0.2162  2.2124  1.0059
 7155SOL     OW33443  10.465  11.031   1.466 -0.7043 -0.6522 -0.3529
 7155SOL    HW133444  10.470  11.001   1.557 -0.9374  0.3515 -0.0022
 7155SOL    HW233445  10.556  11.025   1.434 -0.4587 -0.0945  0.2423
 7156SOL     OW33446  11.068   5.097   0.638  0.7461 -0.5235  0.3153
 7156SOL    HW133447  11.103   5.055   0.559  0.7810 -1.7371  0.9540
 7156SOL    HW233448  11.102   5.045   0.710 -1.7409 -1.3281  1.0093
 7157SOL     OW33449   5.051  13.901   2.858  0.1311  0.5020  0.3901
 7157SOL    HW133450   5.112  13.831   2.834 -0.2928  0.2287  0.1083
 7157SOL    HW233451   4.999  13.916   2.779  1.0982  2.0558  0.0041
 7158SOL     OW33452   9.095   8.654   0.357  0.8422 -0.0697 -0.3888
 7158SOL    HW133453   9.125   8.679   0.445  0.4363  0.1029 -0.2961
 7158SOL    HW233454   9.174   8.657   0.303  0.9818  0.4344 -0.1614
 7159SOL     OW33455   4.361   2.460   0.138 -0.6406  0.2894 -0.5909
 7159SOL    HW133456   4.329   2.533   0.085  0.3101  1.5124  0.4511
 7159SOL    HW233457   4.302   2.456   0.213  0.8610  1.8325  0.7635
 7160SOL     OW33458   0.698   7.474  13.035  0.0584  0.0141 -0.2884
 7160SOL    HW133459   0.615   7.427  13.039 -0.5950  1.2018  2.2837
 7160SOL    HW233460   0.688   7.536  12.963 -2.1303  1.4291  1.1096
 7161SOL     OW33461   6.007   0.787   5.074 -0.0046 -0.2550  0.3836
 7161SOL    HW133462   6.057   0.786   4.993 -2.2872  2.0286 -1.2133
 7161SOL    HW233463   6.048   0.856   5.127 -0.2606  0.2763 -0.0990
 7162SOL     OW33464   1.191   1.295   5.951 -0.1508 -0.2436  0.1192
 7162SOL    HW133465   1.222   1.205   5.962 -1.2912 -0.5047  1.5932
 7162SOL    HW233466   1.192   1.332   6.040 -0.9944  0.7416 -0.2541
 7163SOL     OW33467   0.144   8.574   6.146  0.0672  0.1064 -0.0872
 7163SOL    HW133468   0.130   8.663   6.114 -1.1970  0.6671  1.8388
 7163SOL    HW233469   0.225   8.579   6.196  0.3174  0.0124 -0.4771
 7164SOL     OW33470   4.500  12.394   6.944  0.1481  0.1000  0.1700
 7164SOL    HW133471   4.582  12.364   6.985 -0.9026 -2.1299  0.7987
 7164SOL    HW233472   4.454  12.440   7.014 -0.2236 -0.9102  0.6237
 7165SOL     OW33473   2.220   8.797   7.530  0.2657 -0.3232  0.4099
 7165SOL    HW133474   2.133   8.782   7.491  1.0792 -0.6476 -1.3686
 7165SOL    HW233475   2.249   8.710   7.557 -0.4105 -0.0654  2.1048
 7166SOL     OW33476  13.271   9.352  13.968 -0.3560  0.1548 -0.6056
 7166SOL    HW133477  13.342   9.332  13.907 -1.3571  0.3792 -1.8741
 7166SOL    HW233478  13.202   9.390  13.914 -1.2425  0.4629  0.6846
 7167SOL     OW33479   1.867   3.672  10.911  0.0804  0.4629  0.0234
 7167SOL    HW133480   1.842   3.753  10.955  1.1683 -0.0097  1.6361
 7167SOL    HW233481   1.825   3.603  10.962  3.1072 -0.2388  1.8480
 7168SOL     OW33482   0.846   7.375   8.774 -0.2736 -0.3603 -0.3116
 7168SOL    HW133483   0.799   7.296   8.800  1.9704 -1.2423  1.3798
 7168SOL    HW233484   0.936   7.360   8.804  0.5774  2.1815 -1.3698
 7169SOL     OW33485   9.229   5.554   1.546 -0.5667  0.0973  0.5677
 7169SOL    HW133486   9.301   5.491   1.544 -0.5534  0.1238 -0.5518
 7169SOL    HW233487   9.162   5.517   1.489 -0.7050  0.9183  0.1805
 7170SOL     OW33488   6.231   9.812   1.674  0.2178 -0.2336  0.4896
 7170SOL    HW133489   6.325   9.794   1.663  0.1926 -0.3739  0.5048
 7170SOL    HW233490   6.189   9.727   1.661 -0.0943  0.1961 -1.7413
 7171SOL     OW33491  12.769  10.449   5.044  0.1341  0.1690  0.1545
 7171SOL    HW133492  12.767  10.533   5.091  2.1096  0.0158  0.6275
 7171SOL    HW233493  12.801  10.471   4.957 -2.1088  0.2456 -0.7149
 7172SOL     OW33494   8.384   1.793   7.927  0.6160 -0.1389 -0.3483
 7172SOL    HW133495   8.378   1.697   7.930 -0.3806 -0.0906 -0.5139
 7172SOL    HW233496   8.467   1.813   7.970  0.7298 -1.0698 -0.1160
 7173SOL     OW33497  11.012   0.141  11.643 -0.4759 -0.9256  0.2080
 7173SOL    HW133498  10.928   0.151  11.597  0.0609  3.0989 -0.2642
 7173SOL    HW233499  10.988   0.104  11.728 -2.8072  0.3929  0.2106
 7174SOL     OW33500   5.087   2.216   3.158 -0.2923 -0.3153 -0.2644
 7174SOL    HW133501   5.065   2.278   3.089 -2.8032  0.9484  1.4816
 7174SOL    HW233502   5.002   2.185   3.190  0.7437 -0.8688  2.1863
 7175SOL     OW33503   4.291   2.942   4.674 -0.1038 -0.0374  0.7108
 7175SOL    HW133504   4.350   3.010   4.640  0.1308 -0.1452  0.8971
 7175SOL    HW233505   4.204   2.968   4.644  0.3664 -1.6618 -2.6156
 7176SOL     OW33506  12.740  11.821   1.493 -0.0742 -0.5290  0.4239
 7176SOL    HW133507  12.714  11.902   1.538  0.7979 -0.5874  1.0607
 7176SOL    HW233508  12.682  11.754   1.531 -1.3191 -0.1020 -0.6508
 7177SOL     OW33509  10.518   0.619   3.237 -0.1421  0.3537  0.4359
 7177SOL    HW133510  10.451   0.619   3.305 -1.0663 -1.0112 -0.4046
 7177SOL    HW233511  10.600   0.602   3.283 -0.5185  1.0389  1.3695
 7178SOL     OW33512  10.763  11.536   9.408 -0.2694  0.0736 -0.3953
 7178SOL    HW133513  10.719  11.590   9.474  0.8956 -0.9402  1.3205
 7178SOL    HW233514  10.698  11.469   9.384 -0.2513 -0.4442  0.8922
 7179SOL     OW33515   6.796   2.859   3.438 -0.2023 -0.2528 -0.4530
 7179SOL    HW133516   6.737   2.910   3.494 -0.1159 -0.6037 -0.0352
 7179SOL    HW233517   6.825   2.787   3.494  1.0995  0.2424 -0.4431
 7180SOL     OW33518   3.574   2.389   0.113 -0.1529  0.5290  0.0846
 7180SOL    HW133519   3.524   2.418   0.037  0.5756  0.3780 -0.4712
 7180SOL    HW233520   3.520   2.412   0.188 -1.0652  0.3338 -0.4927
 7181SOL     OW33521   3.050  12.978   8.116  0.2212  0.2003  0.3408
 7181SOL    HW133522   3.095  12.904   8.156  0.3893  0.6273  0.9455
 7181SOL    HW233523   3.065  12.966   8.022  1.5348  0.2753  0.5113
 7182SOL     OW33524   2.854  11.601  10.989 -0.3176 -0.7028  0.1562
 7182SOL    HW133525   2.831  11.521  10.942  1.3893 -0.3103 -1.4471
 7182SOL    HW233526   2.924  11.575  11.049 -1.3081 -0.8450  1.2797
 7183SOL     OW33527  13.811   1.824   3.820 -0.4192 -0.1691 -0.5352
 7183SOL    HW133528  13.780   1.797   3.907 -0.1964 -1.3829 -0.8105
 7183SOL    HW233529  13.736   1.868   3.781  0.0089  2.0146  0.9063
 7184SOL     OW33530  13.187   9.793   5.871  0.0009 -0.0852  0.0835
 7184SOL    HW133531  13.258   9.786   5.807  1.0617  0.9184  1.1093
 7184SOL    HW233532  13.117   9.840   5.826  0.7054  0.5417 -0.3549
 7185SOL     OW33533  10.550   9.192  12.120 -0.2925 -0.0962  0.1207
 7185SOL    HW133534  10.495   9.252  12.069 -0.4008  0.1094  0.4753
 7185SOL    HW233535  10.548   9.110  12.070 -0.6377  0.0132 -0.0508
 7186SOL     OW33536   9.455  12.314  13.077  0.1154 -0.5531 -0.2650
 7186SOL    HW133537   9.522  12.337  13.012 -1.3379  1.6049 -1.1259
 7186SOL    HW233538   9.448  12.392  13.131 -0.9225 -1.1650  0.5023
 7187SOL     OW33539  12.561   8.533  13.788 -0.1323 -0.2505 -0.1669
 7187SOL    HW133540  12.655   8.539  13.772 -0.2345 -0.1978 -0.7609
 7187SOL    HW233541  12.539   8.442  13.769 -0.4740  0.1047 -1.5762
 7188SOL     OW33542   9.660   7.290   5.350  0.1875 -0.1797  0.2695
 7188SOL    HW133543   9.672   7.348   5.275 -2.2170  0.9071  0.6162
 7188SOL    HW233544   9.732   7.312   5.409  1.7854 -0.6420 -1.4162
 7189SOL     OW33545  13.644   1.622  13.537 -0.1838  0.0673 -1.0602
 7189SOL    HW133546  13.631   1.545  13.481 -0.1607 -0.4670 -0.3490
 7189SOL    HW233547  13.730   1.655  13.512 -1.3305  1.5408 -3.3257
 7190SOL     OW33548  10.262   3.692   3.196  0.3356 -0.1827 -0.2850
 7190SOL    HW133549  10.319   3.680   3.120  0.9142 -1.0951  0.2754
 7190SOL    HW233550  10.227   3.781   3.186  0.1124 -0.4114 -1.7993
 7191SOL     OW33551   8.647  10.505   0.126  0.1064  0.2827 -0.0298
 7191SOL    HW133552   8.569  10.553   0.097 -0.1773 -0.0459  0.1722
 7191SOL    HW233553   8.664  10.443   0.055 -0.4186 -0.3273  0.3566
 7192SOL     OW33554   4.035  12.597   0.181  0.0470  0.3408 -0.0314
 7192SOL    HW133555   4.074  12.512   0.160 -0.2211  0.5693 -1.5846
 7192SOL    HW233556   4.084  12.628   0.257  1.9672 -0.0353 -1.0543
 7193SOL     OW33557   9.546  12.675  11.128 -0.9980  0.2103 -0.4171
 7193SOL    HW133558   9.509  12.696  11.214  0.6491  3.9797 -0.4394
 7193SOL    HW233559   9.640  12.677  11.141 -0.6856  1.7832 -2.4162
 7194SOL     OW33560   3.851  10.600   6.090 -0.3117  0.0257  0.2760
 7194SOL    HW133561   3.816  10.624   6.005 -2.0770 -2.4205  0.2019
 7194SOL    HW233562   3.926  10.659   6.103 -1.4872  2.1592 -1.7888
 7195SOL     OW33563   0.207   4.409  13.246  0.0349  0.3572 -0.2486
 7195SOL    HW133564   0.143   4.343  13.222  0.7365  0.3963 -2.5042
 7195SOL    HW233565   0.166   4.492  13.223  1.7082  0.2919 -4.4548
 7196SOL     OW33566   6.844   1.028  13.747  0.1176 -0.4622  0.7003
 7196SOL    HW133567   6.879   0.957  13.801  0.1369  1.0534  2.7670
 7196SOL    HW233568   6.757   1.045  13.782  0.7290  1.6118  1.3525
 7197SOL     OW33569   9.030  13.390   4.229 -0.0205  0.0740 -0.4752
 7197SOL    HW133570   9.123  13.387   4.209  0.5854  1.1048  1.8307
 7197SOL    HW233571   9.013  13.309   4.277 -0.6228 -0.6735 -1.8973
 7198SOL     OW33572   6.667   9.493   6.239 -0.2118  0.3087 -0.1571
 7198SOL    HW133573   6.740   9.467   6.295  0.4711  0.4955 -0.9343
 7198SOL    HW233574   6.631   9.411   6.206  0.7812  0.2405 -1.1574
 7199SOL     OW33575  13.023   7.880   2.913 -0.1307 -0.8001  0.0666
 7199SOL    HW133576  13.052   7.801   2.868  1.8223 -0.3096  0.3499
 7199SOL    HW233577  13.024   7.856   3.006  0.5982 -0.4444  0.1641
 7200SOL     OW33578   1.364  12.845   6.644  0.1596  0.2248  0.0722
 7200SOL    HW133579   1.377  12.928   6.691  0.5017  0.4872 -0.4768
 7200SOL    HW233580   1.320  12.789   6.708  1.4019  0.2706  1.0166
 7201SOL     OW33581  12.819   3.473   9.746  0.5991  1.0186  1.3203
 7201SOL    HW133582  12.825   3.566   9.726  1.5745  1.1297  2.0689
 7201SOL    HW233583  12.732   3.462   9.786 -0.1576  1.3075 -0.1590
 7202SOL     OW33584  10.614   7.038   7.583 -0.3208  0.2067 -0.2598
 7202SOL    HW133585  10.645   6.969   7.524 -2.7606  0.7525 -2.3432
 7202SOL    HW233586  10.577   6.990   7.658  2.1801 -0.5189  0.6102
 7203SOL     OW33587   6.885  10.866   6.344 -0.0894  0.6444  0.3715
 7203SOL    HW133588   6.939  10.794   6.312  0.0427  0.0256  1.8623
 7203SOL    HW233589   6.821  10.882   6.275  1.2955  0.6435 -0.9487
 7204SOL     OW33590   9.202   3.577   8.879 -0.1595  0.0097 -0.2290
 7204SOL    HW133591   9.107   3.579   8.865 -0.3862  0.4960  1.1699
 7204SOL    HW233592   9.233   3.662   8.847 -0.1281 -0.2917 -1.0214
 7205SOL     OW33593   6.038   8.866   0.916 -0.3916 -0.4543  0.3290
 7205SOL    HW133594   6.123   8.909   0.913 -1.1197  1.0561  0.5367
 7205SOL    HW233595   5.996   8.902   0.994 -1.3070 -1.0171  0.1054
 7206SOL     OW33596   0.415   5.522  10.791  0.0500 -0.1328 -0.0087
 7206SOL    HW133597   0.476   5.497  10.722  0.5569  1.5701 -0.2255
 7206SOL    HW233598   0.468   5.577  10.850 -1.2356  1.3603 -0.1914
 7207SOL     OW33599   4.927   4.950   9.446  0.6254  0.4489 -0.5134
 7207SOL    HW133600   4.931   5.037   9.405  2.6067  0.2509 -0.8365
 7207SOL    HW233601   4.863   4.961   9.517  1.7109  2.5604  0.2528
 7208SOL     OW33602   8.975   4.277   8.253 -0.4244  1.0790  0.0673
 7208SOL    HW133603   8.946   4.237   8.171 -0.3736  1.4122 -0.1172
 7208SOL    HW233604   9.009   4.205   8.305 -1.5924  0.6691  0.2977
 7209SOL     OW33605   7.603   1.309   1.996  0.4120 -0.0292  0.5300
 7209SOL    HW133606   7.675   1.361   1.961  0.5847  0.3273  1.4002
 7209SOL    HW233607   7.524   1.345   1.954  0.5508  0.8033  0.9630
 7210SOL     OW33608   0.061  11.963   6.205  0.2541 -0.4469 -1.1308
 7210SOL    HW133609  -0.021  11.993   6.166 -0.7216  0.2507  1.3239
 7210SOL    HW233610   0.064  11.869   6.184 -1.2881 -0.5328 -1.0909
 7211SOL     OW33611   6.399  12.729   1.623 -0.1410  0.4775 -0.5510
 7211SOL    HW133612   6.362  12.642   1.634 -0.1083  0.5727  0.4317
 7211SOL    HW233613   6.422  12.734   1.530 -0.2434 -0.5142 -0.6422
 7212SOL     OW33614  10.042   4.790   3.618  0.0799  0.1453  0.3187
 7212SOL    HW133615   9.966   4.838   3.584  0.6371  0.3975 -0.5954
 7212SOL    HW233616  10.008   4.743   3.694 -1.7575 -2.0655 -1.7011
 7213SOL     OW33617   5.836   1.793   7.506 -0.1590 -0.2559  0.3244
 7213SOL    HW133618   5.875   1.872   7.543 -0.1957  0.0799 -0.3410
 7213SOL    HW233619   5.864   1.793   7.414  0.1392 -1.2093  0.4102
 7214SOL     OW33620   8.360   0.461   6.079 -0.1392 -0.1408  0.2801
 7214SOL    HW133621   8.290   0.482   6.017 -0.2299  0.3468  0.5388
 7214SOL    HW233622   8.406   0.544   6.092 -0.4199 -0.1170  1.2330
 7215SOL     OW33623   4.648  12.239  13.762  0.7209  0.6489  0.2811
 7215SOL    HW133624   4.667  12.202  13.848  1.9026  1.4160  0.3789
 7215SOL    HW233625   4.726  12.291  13.741  0.1636  1.0195 -0.9515
 7216SOL     OW33626  11.892  13.784  13.768 -0.0641  0.1057  1.0122
 7216SOL    HW133627  11.902  13.702  13.816  0.1833 -0.3756  0.1546
 7216SOL    HW233628  11.982  13.817  13.758  0.0447 -0.5429 -0.3728
 7217SOL     OW33629   9.679  12.047   5.425 -0.3402  0.5082  0.3074
 7217SOL    HW133630   9.652  11.997   5.347 -1.6133  3.3361 -1.2257
 7217SOL    HW233631   9.701  11.980   5.490  0.0319 -1.9971 -2.2035
 7218SOL     OW33632  12.877   8.602  10.078  0.7127 -0.2530  0.0972
 7218SOL    HW133633  12.969   8.620  10.097  0.7612 -0.1745 -0.2028
 7218SOL    HW233634  12.851   8.537  10.143  0.8945 -0.0482  0.3747
 7219SOL     OW33635   9.757  12.755   6.747 -0.4024 -1.0464 -0.6899
 7219SOL    HW133636   9.828  12.693   6.730  0.3245 -0.3344 -0.3094
 7219SOL    HW233637   9.801  12.835   6.773 -1.2532  0.1429 -2.6636
 7220SOL     OW33638   8.760   4.413  10.660  0.5269  0.2774 -0.4885
 7220SOL    HW133639   8.680   4.464  10.646  0.4919  0.2742 -0.2937
 7220SOL    HW233640   8.796   4.445  10.742  2.4600  2.5556 -2.1074
 7221SOL     OW33641   0.781  12.805   6.290 -0.0030 -0.2561 -0.1167
 7221SOL    HW133642   0.754  12.863   6.219 -2.9084 -0.8775  0.3404
 7221SOL    HW233643   0.824  12.731   6.246 -0.6594 -0.0500 -1.1352
 7222SOL     OW33644   0.174   6.180  12.326  0.2958  0.4229  0.0112
 7222SOL    HW133645   0.109   6.110  12.332 -1.6853  2.2045  0.4424
 7222SOL    HW233646   0.149   6.242  12.395  1.4686  1.9337 -0.8580
 7223SOL     OW33647  13.230   3.596  12.385 -0.0405 -0.0815 -0.2427
 7223SOL    HW133648  13.317   3.615  12.420 -0.7654  1.4045  0.8780
 7223SOL    HW233649  13.210   3.671  12.329 -1.3927  0.6224  1.1283
 7224SOL     OW33650  10.742   6.202  11.876  0.4836 -0.3241 -0.2454
 7224SOL    HW133651  10.808   6.137  11.902  2.1604  1.2194 -0.4587
 7224SOL    HW233652  10.746   6.203  11.780 -2.0847 -2.3508 -0.5135
 7225SOL     OW33653   1.379  12.755   0.125 -0.0263  0.2444 -0.1963
 7225SOL    HW133654   1.386  12.748   0.220 -0.7849  3.1118  0.1488
 7225SOL    HW233655   1.470  12.766   0.096  0.5034 -2.9157 -0.1809
 7226SOL     OW33656   2.133  11.751  10.752  0.2835 -0.1650 -0.0590
 7226SOL    HW133657   2.054  11.783  10.707 -0.3576 -1.3304  0.2037
 7226SOL    HW233658   2.182  11.831  10.772  0.2478  0.4475 -2.1449
 7227SOL     OW33659   1.493   1.400   9.885  0.1596  0.1838 -0.0843
 7227SOL    HW133660   1.505   1.411   9.791 -0.6567 -1.2940 -0.3879
 7227SOL    HW233661   1.400   1.382   9.896 -0.0634  1.8504  1.1988
 7228SOL     OW33662  12.689  11.665   8.406 -0.3837  0.0931 -0.2761
 7228SOL    HW133663  12.720  11.751   8.434  0.9882 -1.3168  2.9809
 7228SOL    HW233664  12.596  11.665   8.428 -0.4576  0.7818 -0.5365
 7229SOL     OW33665   1.248  10.725   5.534  0.1671  0.5430 -0.3672
 7229SOL    HW133666   1.167  10.677   5.519  1.2254 -2.2633  1.8584
 7229SOL    HW233667   1.293  10.724   5.449 -0.2864 -1.7193 -0.6450
 7230SOL     OW33668   8.665   6.729  11.890  0.0283 -0.5529  0.5585
 7230SOL    HW133669   8.683   6.730  11.984  1.4973 -0.4252  0.2966
 7230SOL    HW233670   8.682   6.639  11.863 -0.4077 -0.5926  0.4160
 7231SOL     OW33671   2.142   3.679   7.097 -0.5064 -0.0008  0.2037
 7231SOL    HW133672   2.195   3.693   7.018 -1.5012 -1.4331 -0.7680
 7231SOL    HW233673   2.154   3.759   7.148  3.1694 -0.5395  0.4402
 7232SOL     OW33674   8.311   2.118   5.174 -0.2800  0.3134  0.1100
 7232SOL    HW133675   8.244   2.131   5.240 -1.4892 -1.6059 -0.6531
 7232SOL    HW233676   8.382   2.072   5.220 -2.2329 -3.5369 -0.3229
 7233SOL     OW33677  10.412   8.638   1.457 -0.1968  0.9706  0.8945
 7233SOL    HW133678  10.496   8.652   1.412  0.2870 -1.6443  0.8631
 7233SOL    HW233679  10.347   8.644   1.388 -0.1117  3.1362  0.9343
 7234SOL     OW33680   4.931   1.214  12.547 -0.2034  0.0272 -0.3403
 7234SOL    HW133681   4.911   1.183  12.458  1.3295 -1.2271 -0.3026
 7234SOL    HW233682   4.864   1.173  12.602 -0.0137 -0.7744 -0.6912
 7235SOL     OW33683   5.460   9.215   8.234 -0.5339 -0.3940 -0.0164
 7235SOL    HW133684   5.401   9.289   8.219  0.1712  0.2991  0.5267
 7235SOL    HW233685   5.523   9.248   8.299  0.8354 -0.8900 -1.0551
 7236SOL     OW33686  12.061   9.057  12.190 -0.2408  0.3176 -0.6088
 7236SOL    HW133687  11.989   9.058  12.254  0.2109  0.3508 -0.0950
 7236SOL    HW233688  12.048   9.137  12.139 -0.2595  0.5995 -0.1684
 7237SOL     OW33689   1.614  12.046   4.721 -0.0268 -0.5990 -0.2377
 7237SOL    HW133690   1.638  12.090   4.640 -2.1584  0.6710 -0.2749
 7237SOL    HW233691   1.549  12.105   4.761  1.4570 -0.8189  2.7487
 7238SOL     OW33692   5.944   9.954  12.001 -0.5848  0.0973 -0.7914
 7238SOL    HW133693   5.877  10.012  12.037 -0.0584 -0.8340  1.8793
 7238SOL    HW233694   5.898   9.904  11.934 -1.6828  1.7539 -1.3578
 7239SOL     OW33695   9.652  13.433   4.423  0.1417  0.0581  0.0221
 7239SOL    HW133696   9.684  13.347   4.397  0.7492 -0.3938  2.1416
 7239SOL    HW233697   9.579  13.451   4.363  1.0943 -1.1430 -1.5610
 7240SOL     OW33698  12.017   3.532   2.911 -0.2341 -0.5070  0.2004
 7240SOL    HW133699  12.065   3.611   2.887  1.3149 -1.4509  0.0279
 7240SOL    HW233700  11.929   3.562   2.933  0.0832  1.1392 -0.6865
 7241SOL     OW33701   5.413   2.469   4.249  0.6856 -0.3319 -0.3804
 7241SOL    HW133702   5.356   2.501   4.179 -1.8944 -0.5148  1.4954
 7241SOL    HW233703   5.431   2.547   4.302  0.4331 -0.6403  0.1710
 7242SOL     OW33704   4.164  11.345   7.685  0.1782 -0.0792  0.7049
 7242SOL    HW133705   4.171  11.273   7.748 -0.8011 -1.2640 -0.4836
 7242SOL    HW233706   4.201  11.421   7.731  0.1945 -1.0695  2.4036
 7243SOL     OW33707   5.480  13.619  12.481  0.1892 -0.6366 -0.4776
 7243SOL    HW133708   5.517  13.555  12.421 -1.6358 -0.7927 -1.5032
 7243SOL    HW233709   5.475  13.573  12.565 -0.6111 -1.6761 -1.0745
 7244SOL     OW33710  12.050   0.381   7.430  0.1025  0.1347  0.5934
 7244SOL    HW133711  12.074   0.298   7.390  0.1540  0.6812 -0.5320
 7244SOL    HW233712  11.988   0.420   7.370  0.5428  1.1927  0.8012
 7245SOL     OW33713   2.270  12.407  12.524 -0.0268 -0.8820 -0.5258
 7245SOL    HW133714   2.362  12.384  12.507 -0.1130 -1.8775  0.2552
 7245SOL    HW233715   2.228  12.323  12.543 -0.5807 -0.2193  1.4266
 7246SOL     OW33716   3.502   7.567  12.507 -0.1876 -0.2090  0.6883
 7246SOL    HW133717   3.544   7.507  12.570  0.5671 -1.0630 -0.5895
 7246SOL    HW233718   3.455   7.510  12.447 -2.7288  0.7029  1.6654
 7247SOL     OW33719   3.329   4.684   7.641 -0.2803  0.0026 -0.0435
 7247SOL    HW133720   3.314   4.624   7.568 -2.4952 -0.0513  0.3950
 7247SOL    HW233721   3.421   4.710   7.631 -0.5483  0.1829 -2.9744
 7248SOL     OW33722  13.976   1.856  10.431  0.2115  0.3271  0.3903
 7248SOL    HW133723  14.005   1.803  10.506 -2.2933 -0.7069  0.7029
 7248SOL    HW233724  13.925   1.927  10.469  0.9082  1.2010 -0.2422
 7249SOL     OW33725  11.383   7.368   3.906 -0.1321 -0.1591 -0.3835
 7249SOL    HW133726  11.451   7.435   3.910  0.1159 -0.3570 -1.0765
 7249SOL    HW233727  11.424   7.295   3.859 -1.8157  0.9914 -4.1025
 7250SOL     OW33728   5.903  10.949   0.287  0.0461 -0.2409 -0.4752
 7250SOL    HW133729   5.845  11.019   0.319  0.0742 -0.6590  0.5416
 7250SOL    HW233730   5.955  10.991   0.218 -0.2264  0.6293 -0.1731
 7251SOL     OW33731   4.844   8.950   0.696  0.9995 -0.4976  0.2176
 7251SOL    HW133732   4.848   8.990   0.609  1.8770  1.0074  0.9094
 7251SOL    HW233733   4.936   8.933   0.718  0.7482 -1.3475  0.6634
 7252SOL     OW33734   8.408   1.633  12.333 -0.2315 -0.4138  0.2172
 7252SOL    HW133735   8.398   1.548  12.376 -0.0925 -0.8892 -0.6697
 7252SOL    HW233736   8.503   1.644  12.324 -0.2609 -0.3314  0.0035
 7253SOL     OW33737  10.186   0.341   3.504 -0.1006  0.5301  0.1794
 7253SOL    HW133738  10.102   0.297   3.495 -0.0691  0.5383 -0.2040
 7253SOL    HW233739  10.165   0.427   3.539 -0.2962  0.6730 -0.2752
 7254SOL     OW33740  10.438   5.487  13.845  0.7635  0.0235  0.4258
 7254SOL    HW133741  10.499   5.429  13.798  0.0440 -1.7068  1.5177
 7254SOL    HW233742  10.404   5.546  13.778  2.2074 -0.2203 -0.5673
 7255SOL     OW33743   0.047   7.141   2.470  0.0369 -0.1894 -0.7710
 7255SOL    HW133744   0.083   7.170   2.386  0.8963 -1.3003 -0.8150
 7255SOL    HW233745   0.113   7.165   2.535 -0.3308  0.0867 -0.4923
 7256SOL     OW33746  13.224  10.928   4.186  0.1558 -0.1982  0.1090
 7256SOL    HW133747  13.199  10.859   4.247  1.8385 -0.1067  0.9628
 7256SOL    HW233748  13.272  10.991   4.240 -2.6259  2.5021 -0.2964
 7257SOL     OW33749   4.159   5.588   6.119  0.0432  0.2984 -0.5314
 7257SOL    HW133750   4.225   5.613   6.183  0.4218 -0.1202 -0.7491
 7257SOL    HW233751   4.114   5.514   6.160 -0.4005  0.6889 -0.3138
 7258SOL     OW33752  13.179   4.833  12.752  0.3341  0.6713  0.1773
 7258SOL    HW133753  13.084   4.821  12.755 -0.0621  3.1261 -0.5760
 7258SOL    HW233754  13.201   4.871  12.837  0.4252  1.3225 -0.1320
 7259SOL     OW33755   2.341   6.550   0.602 -0.0351 -0.0375  0.7693
 7259SOL    HW133756   2.311   6.574   0.514  3.1761 -0.4809 -0.5919
 7259SOL    HW233757   2.354   6.633   0.647 -2.8532  0.1746  1.3689
 7260SOL     OW33758   8.206   9.973  10.274  0.3484  0.1468 -0.1426
 7260SOL    HW133759   8.280  10.015  10.316 -1.4431  0.7428  2.7258
 7260SOL    HW233760   8.137   9.974  10.341 -0.7973 -4.6952 -0.8381
 7261SOL     OW33761  13.250   3.519   3.745 -0.2256  0.4185  0.7752
 7261SOL    HW133762  13.307   3.444   3.727  0.9414  0.5803  3.2932
 7261SOL    HW233763  13.310   3.594   3.746 -0.9327  0.9887  0.9221
 7262SOL     OW33764   9.305   4.062   2.870 -0.2776 -0.2487 -0.3176
 7262SOL    HW133765   9.321   3.971   2.894  0.1080 -0.5746 -1.7473
 7262SOL    HW233766   9.265   4.058   2.783  1.1044  0.9901 -1.0585
 7263SOL     OW33767   2.387   5.550  12.399 -0.0795  0.0042  0.2036
 7263SOL    HW133768   2.453   5.482  12.407  0.2013  0.1375 -0.7777
 7263SOL    HW233769   2.343   5.531  12.316 -0.3953  0.6646  0.2083
 7264SOL     OW33770   9.361   0.952   7.545  0.0876 -0.4646 -0.1240
 7264SOL    HW133771   9.327   0.864   7.531 -0.9779 -0.3910  1.6818
 7264SOL    HW233772   9.284   1.009   7.540  0.2763  0.0029  1.4741
 7265SOL     OW33773  10.900   8.671  13.548 -0.4764 -0.0781 -0.3740
 7265SOL    HW133774  10.897   8.754  13.596  3.0095  0.6873 -1.2424
 7265SOL    HW233775  10.936   8.608  13.609 -0.6735 -0.3184 -0.5032
 7266SOL     OW33776  11.311   9.088   7.059  0.2220  0.0695  0.2158
 7266SOL    HW133777  11.386   9.142   7.034  0.1057 -0.3210 -1.0579
 7266SOL    HW233778  11.286   9.043   6.978 -0.6764 -0.6738  0.8856
 7267SOL     OW33779   1.244   6.258  12.360  0.0798  0.5345 -0.5390
 7267SOL    HW133780   1.169   6.318  12.367  0.0121  0.3718  0.1611
 7267SOL    HW233781   1.318   6.309  12.393  0.3989  0.8792 -1.7167
 7268SOL     OW33782   3.522  10.715   7.267  0.3747  0.3599 -0.5328
 7268SOL    HW133783   3.427  10.715   7.273  0.4079  1.0091  0.0249
 7268SOL    HW233784   3.543  10.794   7.217  0.6757  0.8280  0.3197
 7269SOL     OW33785   0.739  10.680   1.012  0.7246  0.2346  0.1446
 7269SOL    HW133786   0.650  10.715   1.022  1.3329  1.3370  2.4566
 7269SOL    HW233787   0.789  10.751   0.973  0.2071 -1.1688 -3.3963
 7270SOL     OW33788   0.051   9.074  10.563 -0.0734 -0.4434  0.3529
 7270SOL    HW133789   0.090   8.993  10.594 -0.5690 -0.5205  0.7893
 7270SOL    HW233790   0.075   9.139  10.629 -0.8333 -0.5339  0.7373
 7271SOL     OW33791  12.721   6.263   4.789  0.4087  0.6228 -0.1618
 7271SOL    HW133792  12.648   6.248   4.729  0.2506  0.9269 -0.0478
 7271SOL    HW233793  12.686   6.323   4.855  0.6744  0.5378  0.0581
 7272SOL     OW33794   3.774   2.326  11.138 -0.4251  0.0267 -0.2323
 7272SOL    HW133795   3.765   2.322  11.233 -0.0120  0.5130 -0.1653
 7272SOL    HW233796   3.747   2.415  11.116 -0.4509 -0.0637 -0.5604
 7273SOL     OW33797  13.570   1.209  13.518 -0.1151  0.1297  0.0116
 7273SOL    HW133798  13.496   1.216  13.457  0.2134 -1.1385 -0.5836
 7273SOL    HW233799  13.616   1.130  13.490  1.0904  0.5264  0.7936
 7274SOL     OW33800   7.633   0.579   9.438 -0.2856 -0.2597  0.0399
 7274SOL    HW133801   7.551   0.618   9.408 -0.8955 -1.5995 -0.1090
 7274SOL    HW233802   7.635   0.599   9.532 -1.2526 -0.9696  0.2363
 7275SOL     OW33803  13.751   5.808   0.875 -0.0814 -0.0826 -0.2675
 7275SOL    HW133804  13.672   5.774   0.916  0.3497  0.8727  1.4787
 7275SOL    HW233805  13.746   5.903   0.888  2.0701 -0.0966  1.4069
 7276SOL     OW33806   2.336  11.987  12.478  0.0492  0.2094 -0.4428
 7276SOL    HW133807   2.415  11.935  12.462 -0.4784 -0.3153 -1.4855
 7276SOL    HW233808   2.339  12.007  12.571  0.3746 -1.5520 -0.0335
 7277SOL     OW33809   1.269  11.017   2.673  0.0908 -1.0391 -0.1154
 7277SOL    HW133810   1.293  11.079   2.605  0.3695 -0.3635  0.5926
 7277SOL    HW233811   1.191  11.055   2.714 -1.3727 -2.4756 -1.4149
 7278SOL     OW33812  10.956   5.349   0.686 -0.1475  0.3907 -0.5011
 7278SOL    HW133813  10.925   5.382   0.602 -0.1969  1.6349 -0.0188
 7278SOL    HW233814  10.997   5.265   0.666  0.2597  0.8887 -1.8351
 7279SOL     OW33815  13.678   7.255   6.123 -0.4003  0.1356 -0.1016
 7279SOL    HW133816  13.657   7.344   6.096 -1.2748 -0.0052  0.1011
 7279SOL    HW233817  13.726   7.219   6.048  1.3536  1.2523  0.4111
 7280SOL     OW33818   2.813  10.329   5.751  0.9527  0.8059  1.1486
 7280SOL    HW133819   2.860  10.413   5.746  0.9773  0.7194 -1.1641
 7280SOL    HW233820   2.721  10.354   5.754  0.9729  0.9332  0.8006
 7281SOL     OW33821  11.738  13.529   7.306 -0.1546  0.7944  0.0476
 7281SOL    HW133822  11.672  13.501   7.243  0.1765  0.4067 -0.1322
 7281SOL    HW233823  11.817  13.543   7.253 -0.0235  0.9985  0.2975
 7282SOL     OW33824   7.464  14.004   4.299  0.4852  0.2300 -0.4641
 7282SOL    HW133825   7.430  13.938   4.239  0.2951 -0.1470  0.0539
 7282SOL    HW233826   7.436  13.974   4.385 -0.1024  1.2885 -0.2730
 7283SOL     OW33827   5.254   5.024   2.833  0.2717 -0.2169 -0.6624
 7283SOL    HW133828   5.286   4.957   2.773  1.9252  1.0127 -1.2450
 7283SOL    HW233829   5.294   5.105   2.801 -1.1193  0.9394  0.4124
 7284SOL     OW33830   6.642  11.218  12.575 -0.4013  0.3537  0.0304
 7284SOL    HW133831   6.678  11.261  12.497 -0.5224 -1.0381 -0.8405
 7284SOL    HW233832   6.598  11.287  12.623 -0.1084  1.2973 -1.0144
 7285SOL     OW33833  13.502  11.674   5.591 -0.2993  0.3041 -0.1264
 7285SOL    HW133834  13.455  11.680   5.674 -0.5953 -0.4294 -0.2302
 7285SOL    HW233835  13.480  11.755   5.546  0.4536  1.0449  0.8012
 7286SOL     OW33836  11.304   2.409   6.545  0.4402  0.4218  0.5178
 7286SOL    HW133837  11.329   2.346   6.478  1.2197  0.5798  0.6546
 7286SOL    HW233838  11.367   2.481   6.535  0.4816  0.5059  1.3340
 7287SOL     OW33839  12.092   7.188   9.635  0.0226  0.2242 -0.4505
 7287SOL    HW133840  12.092   7.274   9.677 -3.2093 -0.4963  1.3228
 7287SOL    HW233841  12.058   7.204   9.547  3.5688  1.2276 -1.8433
 7288SOL     OW33842  13.789  12.353  12.897 -0.5794 -0.1101  0.1722
 7288SOL    HW133843  13.724  12.356  12.826 -0.7527 -1.3529  0.2638
 7288SOL    HW233844  13.834  12.438  12.891  2.4837 -1.6298 -4.3516
 7289SOL     OW33845   7.779   5.797   8.233  0.2880  0.3161 -0.2046
 7289SOL    HW133846   7.856   5.748   8.264  0.3608  0.5899  0.0505
 7289SOL    HW233847   7.756   5.755   8.151  0.6734  0.1897 -0.2516
 7290SOL     OW33848  11.622   8.642   5.187  0.3837 -0.1664 -0.4071
 7290SOL    HW133849  11.674   8.568   5.155 -0.4773 -0.4729 -1.1542
 7290SOL    HW233850  11.575   8.607   5.263  0.2822 -0.2734 -0.5182
 7291SOL     OW33851   1.411  12.983  13.278  0.0008 -0.5334 -0.3016
 7291SOL    HW133852   1.496  12.972  13.320 -0.4997 -0.7414  0.6727
 7291SOL    HW233853   1.414  13.070  13.238  0.5289 -0.3952  0.0442
 7292SOL     OW33854   0.534  10.400  10.297 -0.0016  0.1045  0.0972
 7292SOL    HW133855   0.573  10.486  10.284 -0.0181 -0.0143 -0.8040
 7292SOL    HW233856   0.572  10.368  10.379  2.9104 -0.5752 -1.3872
 7293SOL     OW33857  12.380   4.433  13.758 -0.4651  0.0328 -0.5121
 7293SOL    HW133858  12.465   4.475  13.766 -0.1236 -0.3825 -1.7487
 7293SOL    HW233859  12.344   4.434  13.847  0.0357  1.8449 -0.2822
 7294SOL     OW33860   6.636   6.018   7.656  0.3442 -0.1579  0.0124
 7294SOL    HW133861   6.620   6.112   7.654 -0.7951 -0.3512 -0.9010
 7294SOL    HW233862   6.729   6.010   7.677  0.9152  1.2352 -1.7159
 7295SOL     OW33863  12.047  11.897  13.294  0.0884  0.3493  0.2821
 7295SOL    HW133864  12.055  11.896  13.199  1.8578  1.5183  0.3697
 7295SOL    HW233865  12.069  11.808  13.321 -0.1314  0.0868 -0.3846
 7296SOL     OW33866   4.550   4.738   6.363 -0.4031 -0.1214 -0.3723
 7296SOL    HW133867   4.503   4.803   6.415 -1.1955 -0.4737 -0.6326
 7296SOL    HW233868   4.629   4.720   6.414  0.2667  1.6843 -0.7307
 7297SOL     OW33869  12.115  12.017   3.943 -0.0834  0.1923  0.4685
 7297SOL    HW133870  12.120  11.966   4.024  2.5354 -1.2389 -0.4459
 7297SOL    HW233871  12.070  11.958   3.881  0.4419  0.1008  0.1635
 7298SOL     OW33872   4.428  13.074   1.524 -0.3399 -0.7284  0.4518
 7298SOL    HW133873   4.451  13.126   1.448  0.7577 -0.8128  0.6988
 7298SOL    HW233874   4.439  13.134   1.598  0.2310 -1.0998  0.6743
 7299SOL     OW33875  12.681  11.156  12.015  0.1381  0.2192 -0.2302
 7299SOL    HW133876  12.603  11.200  11.981 -0.2033  0.2719  0.6161
 7299SOL    HW233877  12.698  11.086  11.952 -0.1570  0.6643 -0.8125
 7300SOL     OW33878  13.266   3.509  10.792  0.8691  0.2053  0.3587
 7300SOL    HW133879  13.280   3.545  10.704 -2.0601  1.5757  0.3323
 7300SOL    HW233880  13.303   3.574  10.851  3.4128 -1.0124  0.2216
 7301SOL     OW33881  12.161   3.612   4.156 -0.2931 -1.0048 -0.3382
 7301SOL    HW133882  12.180   3.687   4.099  0.6135 -0.0266  1.1754
 7301SOL    HW233883  12.239   3.557   4.148 -0.3448 -1.0743 -0.3598
 7302SOL     OW33884   1.344  13.509  10.126  0.4418 -0.3149 -0.0129
 7302SOL    HW133885   1.288  13.448  10.173  1.7972 -1.1058  0.6359
 7302SOL    HW233886   1.420  13.456  10.099  1.3087  0.9140 -0.0659
 7303SOL     OW33887   9.035   1.688   8.157 -0.0876 -0.2491  0.0248
 7303SOL    HW133888   9.045   1.773   8.116 -1.2776 -1.4650 -3.1109
 7303SOL    HW233889   9.110   1.637   8.125 -0.5553 -0.9917  0.0855
 7304SOL     OW33890   5.740  10.604  11.136  0.1780 -0.5255 -0.4066
 7304SOL    HW133891   5.812  10.663  11.160 -0.1373 -0.2263 -0.1883
 7304SOL    HW233892   5.757  10.524  11.185  1.4668 -1.2139 -1.8682
 7305SOL     OW33893   4.740  10.516   1.804 -0.1750 -0.2631 -0.4000
 7305SOL    HW133894   4.805  10.584   1.786  0.2566 -0.6198 -0.2210
 7305SOL    HW233895   4.658  10.552   1.772  0.0170  0.4155 -0.1519
 7306SOL     OW33896   4.572   2.117   9.142  0.8851  0.4689  0.3186
 7306SOL    HW133897   4.659   2.128   9.180  1.4145 -0.2694 -0.6243
 7306SOL    HW233898   4.588   2.102   9.049 -0.1919 -0.5198  0.2656
 7307SOL     OW33899   4.766   5.744   0.290  0.4592 -0.1137  0.4842
 7307SOL    HW133900   4.817   5.777   0.364  0.0418  3.0996 -0.4993
 7307SOL    HW233901   4.829   5.736   0.218 -0.0014  2.3088 -0.2856
 7308SOL     OW33902  12.328   8.649  12.111 -0.4781 -0.4965 -0.6087
 7308SOL    HW133903  12.391   8.582  12.138 -1.3410 -1.9666 -2.0686
 7308SOL    HW233904  12.335   8.717  12.179  0.8025 -1.8084  0.6480
 7309SOL     OW33905  12.291  11.104   1.540  0.2100  0.1495  0.4157
 7309SOL    HW133906  12.336  11.186   1.556  1.2879 -0.8683  3.1953
 7309SOL    HW233907  12.333  11.041   1.598 -2.2036 -1.7985  0.2482
 7310SOL     OW33908  12.054  13.832   9.819 -0.2027 -0.1676  0.1489
 7310SOL    HW133909  12.070  13.920   9.853  0.5657 -1.2844  3.0609
 7310SOL    HW233910  12.039  13.844   9.726 -0.4004  3.0525  0.4817
 7311SOL     OW33911   6.643   0.681  11.352  0.4434 -0.1437 -0.0573
 7311SOL    HW133912   6.734   0.657  11.372  0.3677  0.9720  1.8819
 7311SOL    HW233913   6.623   0.752  11.413 -1.7368 -0.3192 -0.4896
 7312SOL     OW33914   2.324   7.405  13.583  0.8500 -0.1289 -0.3816
 7312SOL    HW133915   2.391   7.336  13.584  0.6531 -0.3178  0.1776
 7312SOL    HW233916   2.245   7.362  13.617  0.6713  0.3187 -0.2218
 7313SOL     OW33917   7.365   2.694   0.954  0.2781 -0.2723  0.6046
 7313SOL    HW133918   7.439   2.642   0.923 -1.5115 -1.7822 -1.4152
 7313SOL    HW233919   7.293   2.672   0.895 -1.8186  1.1399  2.4492
 7314SOL     OW33920  13.780   1.927   8.598 -0.3704 -0.0652  0.3093
 7314SOL    HW133921  13.828   1.868   8.657  0.1704  0.2445  0.1848
 7314SOL    HW233922  13.718   1.972   8.654 -1.1620 -1.1283  0.3247
 7315SOL     OW33923   3.287   8.176  11.713 -0.7991 -0.3426 -0.1356
 7315SOL    HW133924   3.270   8.156  11.805  1.5805 -0.4192  0.3497
 7315SOL    HW233925   3.283   8.271  11.708 -0.0217 -0.2788  0.2796
 7316SOL     OW33926   4.504   0.024   9.835  0.2498  0.0571 -0.3859
 7316SOL    HW133927   4.524   0.043   9.926  0.2536 -1.8322  0.0456
 7316SOL    HW233928   4.413   0.049   9.824  0.4474  0.9444 -0.0775
 7317SOL     OW33929   9.743   4.781   1.528 -0.1051  0.2208 -0.1399
 7317SOL    HW133930   9.677   4.849   1.519  1.5452  1.9462  0.1005
 7317SOL    HW233931   9.805   4.816   1.593  1.2047 -1.1736 -0.5771
 7318SOL     OW33932   6.918   2.468  12.812  0.6299  0.1111  0.7331
 7318SOL    HW133933   6.994   2.411  12.821 -0.5431 -1.7618 -0.4795
 7318SOL    HW233934   6.844   2.415  12.841 -0.4845  1.1440 -0.0818
 7319SOL     OW33935   8.740   2.616   7.469 -0.2706  0.0187  0.1141
 7319SOL    HW133936   8.678   2.598   7.399  0.5751  1.2113 -0.9836
 7319SOL    HW233937   8.732   2.710   7.486  0.9826  0.1437  0.1629
 7320SOL     OW33938   4.219   3.795   7.303 -0.8413  0.2530  0.0492
 7320SOL    HW133939   4.187   3.858   7.239  0.9673  1.4227  0.2278
 7320SOL    HW233940   4.256   3.849   7.374 -0.3816 -0.9966  0.7954
 7321SOL     OW33941   1.998  10.304   6.732 -0.4310  0.4690 -0.0395
 7321SOL    HW133942   2.015  10.347   6.648 -0.6674  0.3543 -0.1473
 7321SOL    HW233943   1.907  10.327   6.753 -0.9918 -1.0039 -0.7255
 7322SOL     OW33944   0.768  10.848  10.101  0.0741  0.3082 -0.3876
 7322SOL    HW133945   0.748  10.932  10.143 -1.4952 -0.0416 -0.3529
 7322SOL    HW233946   0.719  10.850  10.019 -0.5513 -0.8229 -0.0779
 7323SOL     OW33947   9.375  13.561   7.570 -0.3184  0.1233 -0.1541
 7323SOL    HW133948   9.440  13.622   7.604 -0.1405  0.1478 -0.5407
 7323SOL    HW233949   9.403  13.475   7.602 -1.4220  0.3992  1.7183
 7324SOL     OW33950   1.345   3.556   9.643  0.0553 -0.1821 -0.3160
 7324SOL    HW133951   1.301   3.592   9.567  1.7097  1.3379 -0.6105
 7324SOL    HW233952   1.424   3.514   9.608 -0.1721 -1.2525  0.3800
 7325SOL     OW33953   6.568   9.917   3.576 -0.9917 -0.0127  0.3409
 7325SOL    HW133954   6.657   9.884   3.582 -1.0057 -0.2438 -0.5199
 7325SOL    HW233955   6.531   9.904   3.663  0.0703  0.8730  0.9546
 7326SOL     OW33956  12.206   4.007   7.683  0.4461 -0.6516 -0.0124
 7326SOL    HW133957  12.224   3.978   7.594  1.9155 -0.2713  0.1340
 7326SOL    HW233958  12.241   4.096   7.686  0.4063 -0.6607  0.9496
 7327SOL     OW33959   3.762   5.062   1.501 -0.4068  0.3192  0.4229
 7327SOL    HW133960   3.687   5.004   1.489 -1.2341  1.6283 -1.0096
 7327SOL    HW233961   3.737   5.120   1.573  0.0522 -0.4627  1.2399
 7328SOL     OW33962   3.006   2.723   9.493 -0.0564 -0.4555 -0.4851
 7328SOL    HW133963   3.025   2.648   9.437  0.5880 -0.9970  0.4330
 7328SOL    HW233964   2.927   2.699   9.541  1.1305 -1.3522  1.1304
 7329SOL     OW33965  11.212   1.625   9.061 -0.1077  0.4542  0.2171
 7329SOL    HW133966  11.203   1.621   9.156  0.5079 -0.4104  0.2537
 7329SOL    HW233967  11.158   1.553   9.028 -0.2471  0.6919 -0.0772
 7330SOL     OW33968  12.333   4.201   9.091  0.3308 -0.0747 -0.5710
 7330SOL    HW133969  12.421   4.167   9.078  0.8875  1.6040 -1.4574
 7330SOL    HW233970  12.320   4.197   9.186  1.1591 -0.7913 -0.4711
 7331SOL     OW33971  11.479  13.561  12.074  0.1472  0.4241  0.3777
 7331SOL    HW133972  11.433  13.607  12.145 -1.5846 -1.3426  0.4792
 7331SOL    HW233973  11.414  13.557  12.003  0.3646 -1.5433  0.2590
 7332SOL     OW33974  13.223   9.502  11.089 -0.2158 -0.4327 -0.2839
 7332SOL    HW133975  13.246   9.542  11.173  1.1433 -1.0144 -0.3557
 7332SOL    HW233976  13.220   9.575  11.028 -1.9799  0.1075  0.3882
 7333SOL     OW33977   4.289   3.230   6.402 -0.2781 -0.6165 -0.2047
 7333SOL    HW133978   4.340   3.246   6.482  0.9061 -0.3057 -0.9965
 7333SOL    HW233979   4.198   3.230   6.431  0.1365 -0.5757  1.1568
 7334SOL     OW33980  11.058  12.103   3.306 -0.5060  0.0825  0.1093
 7334SOL    HW133981  10.963  12.095   3.296 -0.4552 -0.1329 -0.2240
 7334SOL    HW233982  11.086  12.145   3.225 -0.1976 -0.7699 -0.2315
 7335SOL     OW33983   5.757  10.625   1.911 -0.4914  0.0409  0.1774
 7335SOL    HW133984   5.806  10.678   1.847  1.7817  0.4860  2.1453
 7335SOL    HW233985   5.701  10.688   1.956  0.7919  0.4835  1.2121
 7336SOL     OW33986  12.467   6.570  10.484 -0.9669  0.5014  0.4720
 7336SOL    HW133987  12.440   6.494  10.534  0.9340  0.2573  1.1961
 7336SOL    HW233988  12.486   6.536  10.396 -0.5467  0.1964  0.6754
 7337SOL     OW33989  12.815   8.230  11.667  0.4592  0.3269  0.1551
 7337SOL    HW133990  12.874   8.166  11.626  0.9495  1.1016 -0.3877
 7337SOL    HW233991  12.854   8.247  11.753  0.9487  0.7031 -0.1325
 7338SOL     OW33992   4.606   3.682   5.861  0.0607  0.1396 -0.4859
 7338SOL    HW133993   4.670   3.702   5.793  0.2814  0.7444 -0.1070
 7338SOL    HW233994   4.585   3.589   5.848  0.1732  0.2254 -1.3119
 7339SOL     OW33995  12.799   6.085   3.914  0.6719 -0.0940 -0.0863
 7339SOL    HW133996  12.737   6.145   3.872  0.4738  1.0748  1.7343
 7339SOL    HW233997  12.767   5.998   3.891 -0.2164  0.4909 -1.1838
 7340SOL     OW33998   3.994  12.676   2.282 -0.3407 -0.7679  0.3564
 7340SOL    HW133999   3.942  12.744   2.238 -0.2273 -0.0484  1.2971
 7340SOL    HW234000   3.949  12.662   2.366 -0.4338 -1.9612  0.1201
 7341SOL     OW34001   6.383   0.307   6.599 -0.1507 -0.2954 -0.1969
 7341SOL    HW134002   6.461   0.253   6.607 -1.1719 -1.6503  1.3082
 7341SOL    HW234003   6.314   0.255   6.640 -1.8989  0.7705 -1.6431
 7342SOL     OW34004   7.429   4.223   0.377 -0.1507  0.1214 -0.0943
 7342SOL    HW134005   7.437   4.149   0.437  0.6587 -0.6779 -1.1572
 7342SOL    HW234006   7.434   4.184   0.290  0.9897  1.5018 -0.6791
 7343SOL     OW34007   0.917  13.568   7.467  0.1834  0.3586  0.0083
 7343SOL    HW134008   0.936  13.480   7.434  1.0706  0.3907  0.3961
 7343SOL    HW234009   0.855  13.553   7.538  0.0838  0.0709 -0.1365
 7344SOL     OW34010   2.709   0.313   9.356  0.3618  0.2948 -0.5572
 7344SOL    HW134011   2.723   0.304   9.450 -1.0010  0.0088 -0.3631
 7344SOL    HW234012   2.770   0.252   9.316  0.5127 -0.0323  0.1705
 7345SOL     OW34013   1.377  12.770   0.657 -0.0585 -0.2257 -0.4379
 7345SOL    HW134014   1.315  12.730   0.717 -1.5715 -0.0038 -1.7857
 7345SOL    HW234015   1.461  12.731   0.680 -1.0950 -2.4773 -0.2211
 7346SOL     OW34016   6.662  13.332   8.155  0.2160  0.2924  0.2303
 7346SOL    HW134017   6.707  13.412   8.179  0.4875  0.2866 -0.2368
 7346SOL    HW234018   6.571  13.348   8.178 -0.2442  1.7642 -2.1984
 7347SOL     OW34019   1.191  12.607   6.956 -0.0643 -0.0263 -0.0721
 7347SOL    HW134020   1.192  12.690   7.003 -0.5488  0.2978 -0.6217
 7347SOL    HW234021   1.283  12.592   6.932 -0.0166  0.5027 -0.2357
 7348SOL     OW34022  13.428   9.726   6.344  0.1265  0.6700  0.1257
 7348SOL    HW134023  13.441   9.671   6.267  2.6778 -1.9819  2.1987
 7348SOL    HW234024  13.503   9.786   6.343  0.5305  0.1978  0.7888
 7349SOL     OW34025   7.768  13.341   8.900  0.3455 -0.6033  0.1971
 7349SOL    HW134026   7.826  13.394   8.846 -1.2453  0.7316 -0.3170
 7349SOL    HW234027   7.699  13.402   8.927  0.3928 -1.5587  2.6769
 7350SOL     OW34028  12.109   5.380  11.690  0.1118 -0.4324 -0.3662
 7350SOL    HW134029  12.120   5.392  11.784  0.0731 -0.0544 -0.4112
 7350SOL    HW234030  12.176   5.436  11.650 -1.9533  1.9988 -0.6403
 7351SOL     OW34031   1.894   0.112   5.206  0.7032  0.6418  0.9217
 7351SOL    HW134032   1.824   0.066   5.159  2.9457 -2.0235 -0.1165
 7351SOL    HW234033   1.935   0.167   5.139  1.0432  0.3461  0.8782
 7352SOL     OW34034   6.288  12.329   1.425 -0.0640 -0.0660  0.0259
 7352SOL    HW134035   6.231  12.406   1.427 -0.9039 -0.6567 -0.6280
 7352SOL    HW234036   6.276  12.288   1.511 -3.4504 -2.1424 -1.2400
 7353SOL     OW34037   1.967   9.247   3.701  0.2351 -0.5050 -0.3661
 7353SOL    HW134038   2.028   9.173   3.697  0.1365 -0.5951 -0.2020
 7353SOL    HW234039   1.918   9.233   3.782  1.3891  0.6667  0.5768
 7354SOL     OW34040   4.422   8.940   1.346  0.1632  0.4490 -0.4291
 7354SOL    HW134041   4.480   8.983   1.283 -1.7845  1.5236 -1.5658
 7354SOL    HW234042   4.362   9.009   1.375 -0.8760 -0.7296  0.3367
 7355SOL     OW34043  11.272   5.739  11.184 -0.4587 -0.1702  0.3092
 7355SOL    HW134044  11.213   5.758  11.257  1.3077  2.8013  1.1298
 7355SOL    HW234045  11.242   5.797  11.114  0.9888  0.9156  0.5333
 7356SOL     OW34046  12.338   1.625   6.854 -0.3047  0.4339 -0.0860
 7356SOL    HW134047  12.383   1.540   6.855 -2.1052 -0.5587  0.1276
 7356SOL    HW234048  12.263   1.612   6.796 -0.1966  2.1352 -0.6786
 7357SOL     OW34049  13.084   2.186   0.025 -0.6984  0.0794 -0.6051
 7357SOL    HW134050  13.123   2.119  -0.031 -0.4996  0.7190 -1.2519
 7357SOL    HW234051  13.015   2.140   0.074  0.3674 -0.8987  0.0159
 7358SOL     OW34052   9.732   4.081   9.862  0.3400  0.2309 -0.1662
 7358SOL    HW134053   9.662   4.017   9.874  0.2754  0.5134  1.1086
 7358SOL    HW234054   9.708   4.129   9.783 -1.1880  0.6816  0.5447
 7359SOL     OW34055   4.543   4.915  13.012  0.1102 -1.0515  0.0012
 7359SOL    HW134056   4.622   4.968  13.018 -1.2138  0.8792  1.5523
 7359SOL    HW234057   4.504   4.940  12.928 -0.3293  0.2270  0.5677
 7360SOL     OW34058   3.371  11.551  11.531  0.4193 -0.2942  0.1868
 7360SOL    HW134059   3.422  11.631  11.525 -0.6981  0.5485  1.3228
 7360SOL    HW234060   3.280  11.581  11.529 -0.0131 -1.5225  0.7148
 7361SOL     OW34061   1.902   3.790   9.317  0.2098 -0.4191  0.2006
 7361SOL    HW134062   1.903   3.758   9.227 -2.1083  0.7177 -0.2971
 7361SOL    HW234063   1.921   3.883   9.310  0.0538 -0.3233  0.8985
 7362SOL     OW34064   1.605   2.298   7.145 -0.1586 -0.4380  0.0547
 7362SOL    HW134065   1.614   2.371   7.084 -0.4965 -0.9446 -0.6128
 7362SOL    HW234066   1.651   2.327   7.224 -0.2129  0.4582 -0.2302
 7363SOL     OW34067  13.286  10.946   8.878 -0.2290 -0.0303 -0.4564
 7363SOL    HW134068  13.371  10.952   8.921  0.4982  0.1146 -1.8858
 7363SOL    HW234069  13.244  11.030   8.897  1.7834  1.8421 -3.4351
 7364SOL     OW34070  10.356   0.556   1.845  0.1066 -0.3466 -0.7195
 7364SOL    HW134071  10.345   0.485   1.908  1.1485  1.3107  1.4749
 7364SOL    HW234072  10.429   0.528   1.789  1.4913 -0.4370  1.0540
 7365SOL     OW34073  12.239   8.544   1.974  0.2131  0.5614 -0.3800
 7365SOL    HW134074  12.254   8.487   1.898 -0.6209 -0.2576  0.0487
 7365SOL    HW234075  12.146   8.565   1.969 -0.5283 -1.7134  1.8681
 7366SOL     OW34076   8.983   5.182   2.830  0.4557 -0.0150 -0.2946
 7366SOL    HW134077   9.008   5.106   2.778  0.5200 -0.3597  0.2280
 7366SOL    HW234078   9.052   5.190   2.896  0.3467  0.3715 -0.2253
 7367SOL     OW34079  10.587   9.048  12.726 -0.2108  0.0135 -0.7435
 7367SOL    HW134080  10.601   8.976  12.787 -0.7393 -1.5519 -2.3889
 7367SOL    HW234081  10.586   9.127  12.781  0.8957 -1.1592  1.0483
 7368SOL     OW34082   2.941  13.392   1.677  0.5802  0.4148 -0.0105
 7368SOL    HW134083   2.920  13.408   1.769  0.0604 -0.3634  0.0081
 7368SOL    HW234084   2.950  13.480   1.639  2.8571  0.7958  1.2210
 7369SOL     OW34085  13.549   6.179  13.455 -0.6512 -0.5093  0.3223
 7369SOL    HW134086  13.617   6.235  13.492  0.5998 -0.4501 -1.9372
 7369SOL    HW234087  13.541   6.107  13.519  2.1723 -0.9729  0.2738
 7370SOL     OW34088   5.843   0.514  11.182  0.2399 -0.4175  0.2193
 7370SOL    HW134089   5.748   0.522  11.173  0.0567  0.6610  2.4860
 7370SOL    HW234090   5.871   0.468  11.102 -1.9118  0.9295 -1.4104
 7371SOL     OW34091   6.497  10.324   0.117  0.6760  0.8137  0.1360
 7371SOL    HW134092   6.451  10.313   0.200 -2.1215 -0.2419 -1.4164
 7371SOL    HW234093   6.480  10.415   0.092 -1.3167  0.2395 -0.7627
 7372SOL     OW34094   8.641  11.214   2.432  0.2726 -0.2804  0.2431
 7372SOL    HW134095   8.661  11.307   2.433 -2.4895  0.3978  0.8485
 7372SOL    HW234096   8.598  11.200   2.347  0.1331 -0.8556  0.4036
 7373SOL     OW34097   9.397  12.218   8.725  0.3727 -0.1308 -0.7718
 7373SOL    HW134098   9.435  12.167   8.797 -0.0775 -0.2482 -0.6128
 7373SOL    HW234099   9.304  12.223   8.747  0.1390 -0.6071 -1.6081
 7374SOL     OW34100   2.221  11.983   5.054 -0.4480  0.1720 -0.1437
 7374SOL    HW134101   2.132  11.949   5.045 -0.2254 -0.9729  1.4832
 7374SOL    HW234102   2.217  12.044   5.127  0.2585 -0.6395  0.6105
 7375SOL     OW34103   3.702   8.213   4.161  0.2262 -0.4578 -0.6220
 7375SOL    HW134104   3.616   8.211   4.203 -0.0276  2.6624 -0.8010
 7375SOL    HW234105   3.760   8.250   4.228  0.6391  0.8497 -1.6591
 7376SOL     OW34106   8.235  12.269  13.352  0.0108  0.0435 -0.2313
 7376SOL    HW134107   8.296  12.249  13.423 -1.2167  1.0061  1.1585
 7376SOL    HW234108   8.148  12.257  13.391 -0.7118  0.4504 -1.6327
 7377SOL     OW34109  10.321   7.918  13.221 -0.1072  0.2405 -0.5163
 7377SOL    HW134110  10.246   7.874  13.179  0.7303 -2.1658  0.3378
 7377SOL    HW234111  10.395   7.900  13.163  0.4029 -0.1362  0.2419
 7378SOL     OW34112  13.400   9.478   1.528  0.2562 -0.1849  0.0777
 7378SOL    HW134113  13.447   9.426   1.593  1.2653  0.6209  0.0318
 7378SOL    HW234114  13.465   9.495   1.459 -0.1933  0.6764 -0.1569
 7379SOL     OW34115   0.698   7.102   7.821  0.0869 -0.9568 -0.2147
 7379SOL    HW134116   0.767   7.168   7.813 -0.4431 -0.4451 -0.7175
 7379SOL    HW234117   0.617   7.153   7.824 -0.1986 -1.4589  2.0794
 7380SOL     OW34118   9.965  12.794   4.539 -0.2957  0.1778 -0.2127
 7380SOL    HW134119   9.913  12.873   4.521  0.5083  0.8689  0.4055
 7380SOL    HW234120  10.056  12.826   4.541  0.0227 -0.7374  0.2141
 7381SOL     OW34121   6.960   7.852   1.650  0.4629 -0.2318 -0.3611
 7381SOL    HW134122   6.901   7.924   1.630  0.3167 -0.4591 -0.7472
 7381SOL    HW234123   6.903   7.784   1.685  0.6672  0.0334  0.5318
 7382SOL     OW34124  12.343   7.979   4.092  0.0507 -0.2327  0.0184
 7382SOL    HW134125  12.289   7.997   4.169  0.2218  2.9743 -0.4907
 7382SOL    HW234126  12.283   7.987   4.018  0.3526 -1.0229 -0.3187
 7383SOL     OW34127  10.441   9.891   5.195  0.3543 -0.0572  0.0527
 7383SOL    HW134128  10.415   9.983   5.192  0.2804 -0.0723  0.2306
 7383SOL    HW234129  10.376   9.850   5.252 -1.0007 -0.6767 -1.8541
 7384SOL     OW34130  12.930  10.848  12.418 -0.0104 -0.5352  0.0883
 7384SOL    HW134131  12.894  10.831  12.331 -0.7997  0.1042  0.2716
 7384SOL    HW234132  12.852  10.856  12.474  0.4805 -2.8137  1.2411
 7385SOL     OW34133   6.303   8.539   8.169 -0.1584  0.0660 -0.2401
 7385SOL    HW134134   6.230   8.540   8.108 -0.5660  0.9390  0.2323
 7385SOL    HW234135   6.296   8.623   8.215  0.3459 -0.4155  0.7421
 7386SOL     OW34136   3.006   8.173   4.650 -0.4420  0.3067 -0.3189
 7386SOL    HW134137   2.972   8.085   4.662 -1.0134  0.6198  0.5014
 7386SOL    HW234138   2.982   8.197   4.560  0.4492 -0.6617 -0.8342
 7387SOL     OW34139   3.630   4.979  11.165 -0.5107  0.2847  0.3208
 7387SOL    HW134140   3.681   4.934  11.233 -1.8366 -0.2191  1.0101
 7387SOL    HW234141   3.550   5.007  11.209 -2.6249 -2.3050 -1.5313
 7388SOL     OW34142   4.768   6.560   8.688 -0.0114 -0.1157  0.4204
 7388SOL    HW134143   4.857   6.551   8.720  0.9737 -2.0530 -2.4092
 7388SOL    HW234144   4.749   6.476   8.647 -2.2207  1.0562 -1.1752
 7389SOL     OW34145   8.262   1.979  11.721  0.2376 -0.0272  0.1419
 7389SOL    HW134146   8.317   1.954  11.795 -0.2322 -1.0986  0.1494
 7389SOL    HW234147   8.304   1.938  11.645  0.2527  0.3648 -0.0615
 7390SOL     OW34148   0.220   7.027   1.030  0.3114  0.0171 -0.4604
 7390SOL    HW134149   0.207   7.057   0.940 -0.5483  0.5370 -0.1773
 7390SOL    HW234150   0.313   7.005   1.035  0.8500  1.9742 -0.8959
 7391SOL     OW34151  12.361  10.499  11.330 -0.1936 -0.3918  0.0346
 7391SOL    HW134152  12.295  10.434  11.355  0.8259 -1.6231 -0.3342
 7391SOL    HW234153  12.334  10.527  11.242 -0.8417 -0.0389  0.3406
 7392SOL     OW34154   5.584  12.013   4.816  0.2275 -0.3468  0.3922
 7392SOL    HW134155   5.626  12.083   4.867 -0.6588 -0.9637  2.0655
 7392SOL    HW234156   5.653  11.978   4.761  0.8544  1.3911  0.0209
 7393SOL     OW34157  13.444   0.628   2.613 -0.2993 -0.0953  0.0938
 7393SOL    HW134158  13.434   0.719   2.641 -2.5801 -0.4344  0.6222
 7393SOL    HW234159  13.447   0.578   2.695 -2.9748 -0.7614 -0.1166
 7394SOL     OW34160  13.703   8.941   0.547  0.3918 -0.0002  0.6082
 7394SOL    HW134161  13.762   8.948   0.622 -1.2568 -1.6304  2.1695
 7394SOL    HW234162  13.726   8.857   0.506  2.2907  1.5300 -1.7436
 7395SOL     OW34163   0.210   3.614  13.244 -0.3391  0.1521 -0.1738
 7395SOL    HW134164   0.204   3.629  13.338 -1.0596 -1.2046  0.0192
 7395SOL    HW234165   0.167   3.690  13.204 -0.9811  0.2161  0.6270
 7396SOL     OW34166   4.313   0.487   5.048  0.1671 -0.4036 -0.4869
 7396SOL    HW134167   4.337   0.426   5.118 -0.1878  0.0626  0.0501
 7396SOL    HW234168   4.319   0.574   5.088 -0.1405 -0.1362 -1.0042
 7397SOL     OW34169   7.642   1.333   5.351  0.4464 -0.3349 -0.1440
 7397SOL    HW134170   7.600   1.250   5.327 -0.5376  0.1705 -0.1998
 7397SOL    HW234171   7.570   1.396   5.357  1.0349  0.2368  1.1723
 7398SOL     OW34172   7.938   4.423   2.814  0.0774 -0.2207  0.2247
 7398SOL    HW134173   7.913   4.515   2.825  0.3546  0.3448 -3.0604
 7398SOL    HW234174   8.022   4.416   2.859 -0.7289  0.6086  1.9985
 7399SOL     OW34175  12.264  13.296   4.618 -0.0735 -0.3043 -0.1956
 7399SOL    HW134176  12.238  13.375   4.665  0.8940 -1.0385  1.7045
 7399SOL    HW234177  12.217  13.225   4.662 -0.2426 -0.8909 -1.2826
 7400SOL     OW34178   7.785   5.436   2.770 -0.3898  0.7386  0.0146
 7400SOL    HW134179   7.698   5.462   2.800 -0.2074  0.3834  0.8822
 7400SOL    HW234180   7.791   5.343   2.792  0.2086  0.7626 -0.0364
 7401SOL     OW34181  11.502   8.194   4.591 -0.7139 -0.0231  0.8499
 7401SOL    HW134182  11.546   8.109   4.596  0.5259  0.5386  0.0018
 7401SOL    HW234183  11.572   8.257   4.608 -1.5678  0.8442  1.1722
 7402SOL     OW34184  11.447   7.589   3.310  0.1342  0.2334 -0.2386
 7402SOL    HW134185  11.514   7.657   3.314  0.3469 -0.0210  1.1616
 7402SOL    HW234186  11.448   7.559   3.219  0.4853  1.6437 -0.7152
 7403SOL     OW34187   5.484   5.504  12.637 -0.2940 -0.2309  0.5110
 7403SOL    HW134188   5.474   5.493  12.543  1.8911 -0.1953  0.2103
 7403SOL    HW234189   5.498   5.598  12.649  1.8249 -0.5088  0.5411
 7404SOL     OW34190   8.272   7.235   2.781  0.1252  0.3490 -0.0223
 7404SOL    HW134191   8.230   7.152   2.759  1.0576  0.1810 -1.2729
 7404SOL    HW234192   8.351   7.210   2.829  1.3761  0.3645 -1.9696
 7405SOL     OW34193   9.076   2.815   0.253  0.1525 -0.3196 -0.0865
 7405SOL    HW134194   9.124   2.874   0.311 -1.4132  1.8655 -0.8485
 7405SOL    HW234195   8.991   2.803   0.296 -0.5495  0.2826 -1.2492
 7406SOL     OW34196   0.377   2.998   2.849  0.4508  0.2429  0.1026
 7406SOL    HW134197   0.385   2.903   2.840 -0.5828  0.2207 -0.8441
 7406SOL    HW234198   0.284   3.013   2.867  0.3403  1.1412 -1.0477
 7407SOL     OW34199   4.530  10.045   7.490 -0.4139  0.5465 -0.1447
 7407SOL    HW134200   4.600  10.090   7.539 -1.3332  1.9421 -0.0593
 7407SOL    HW234201   4.487  10.115   7.441 -1.5605 -0.3433 -0.4378
 7408SOL     OW34202  12.829  13.646   9.092  0.2780  0.5096 -0.0810
 7408SOL    HW134203  12.741  13.657   9.127  0.3909 -1.0313  0.7949
 7408SOL    HW234204  12.817  13.594   9.013  0.4086  0.1194  0.1529
 7409SOL     OW34205   0.330   4.173  12.985  0.0552 -0.0353 -0.1632
 7409SOL    HW134206   0.328   4.172  13.080 -2.4997 -0.9335 -0.1548
 7409SOL    HW234207   0.340   4.081  12.960  1.1766  0.2336 -0.8021
 7410SOL     OW34208   1.310  13.719   4.052  0.5206 -0.4308 -0.0794
 7410SOL    HW134209   1.392  13.679   4.026  0.5010 -0.0341 -0.7706
 7410SOL    HW234210   1.264  13.651   4.101  0.7211 -1.0682 -0.7657
 7411SOL     OW34211   4.601   7.509   7.818  0.1013 -0.5152 -0.1983
 7411SOL    HW134212   4.547   7.578   7.856 -0.5808  0.0095 -1.9804
 7411SOL    HW234213   4.575   7.507   7.725  1.1818 -2.1484 -0.5107
 7412SOL     OW34214   5.391   1.350   1.525 -0.3944  0.3168 -0.6426
 7412SOL    HW134215   5.462   1.348   1.461 -0.4559 -0.8638 -0.6978
 7412SOL    HW234216   5.314   1.320   1.478 -0.6415  0.3050 -0.2421
 7413SOL     OW34217   7.398   1.189  10.728  0.3178 -0.1893  0.1332
 7413SOL    HW134218   7.440   1.158  10.808  1.0240  1.4962  0.4567
 7413SOL    HW234219   7.443   1.143  10.657  0.9387 -0.3194  0.6073
 7414SOL     OW34220  11.237   3.760   8.282 -0.2838 -0.3698 -0.3466
 7414SOL    HW134221  11.202   3.830   8.337 -1.3064  0.9310 -2.5627
 7414SOL    HW234222  11.194   3.681   8.315 -2.2111  0.6260 -0.3880
 7415SOL     OW34223   1.427   6.645  13.567  0.3738 -0.1728 -0.3678
 7415SOL    HW134224   1.367   6.592  13.514  0.2476 -1.1580  0.7234
 7415SOL    HW234225   1.370   6.689  13.631  0.4726  1.3354 -1.2651
 7416SOL     OW34226  11.383  10.449  10.870  0.0624  0.7191  0.3551
 7416SOL    HW134227  11.337  10.380  10.919 -0.3640 -0.1058 -1.1546
 7416SOL    HW234228  11.384  10.524  10.930 -1.5012  0.1357  1.1708
 7417SOL     OW34229   6.846   8.922  11.259 -0.3482  0.0218  0.5558
 7417SOL    HW134230   6.771   8.865  11.274 -0.1617 -0.0111  1.4048
 7417SOL    HW234231   6.819   9.008  11.293  0.2178 -0.1466  1.4836
 7418SOL     OW34232   8.557   0.457  10.606  0.2116 -0.0845 -0.7241
 7418SOL    HW134233   8.535   0.424  10.519 -0.5469  0.1245 -0.6157
 7418SOL    HW234234   8.497   0.413  10.665 -0.5017  1.1098 -0.5242
 7419SOL     OW34235   6.187   8.807   5.307  0.1121  0.0381 -0.3634
 7419SOL    HW134236   6.118   8.838   5.366  2.0112  1.2468  1.3855
 7419SOL    HW234237   6.246   8.757   5.364  0.8544 -0.7057 -1.7280
 7420SOL     OW34238   5.482   1.880   7.894  0.2685 -0.1454  0.5711
 7420SOL    HW134239   5.437   1.959   7.924 -0.2767  0.1646 -0.9599
 7420SOL    HW234240   5.536   1.910   7.820 -1.3065 -1.4465 -1.2048
 7421SOL     OW34241  11.506  13.541   2.428 -0.0943 -0.2791 -0.0453
 7421SOL    HW134242  11.559  13.570   2.353  0.9408  0.2272  0.8665
 7421SOL    HW234243  11.469  13.458   2.399 -1.5236  0.9383 -1.9622
 7422SOL     OW34244  11.667  10.066   6.040  0.2927 -0.2172 -0.6083
 7422SOL    HW134245  11.721  10.074   5.962  1.3112  1.1110  0.1806
 7422SOL    HW234246  11.730  10.052   6.111 -0.5632 -0.7268  0.0794
 7423SOL     OW34247  13.872   9.939  13.542 -0.1559 -0.0270  0.2673
 7423SOL    HW134248  13.955   9.968  13.506  1.3150 -2.4461  1.4372
 7423SOL    HW234249  13.892   9.914  13.633 -2.1413 -0.6904  0.5888
 7424SOL     OW34250   6.979   4.730   6.456  0.0963 -0.4800 -0.0939
 7424SOL    HW134251   6.958   4.752   6.547 -1.7353  1.7197 -0.9402
 7424SOL    HW234252   7.065   4.771   6.441 -0.7157  1.3657  0.0012
 7425SOL     OW34253   4.842  13.019  13.574 -0.1124 -0.7680  0.2148
 7425SOL    HW134254   4.911  12.977  13.522 -0.6239 -0.8557 -0.4012
 7425SOL    HW234255   4.770  13.032  13.513 -1.0330 -1.5939  1.0873
 7426SOL     OW34256   4.789  10.326   6.708 -0.5176 -0.2876 -0.0521
 7426SOL    HW134257   4.780  10.421   6.708  0.1305 -0.2101 -0.7492
 7426SOL    HW234258   4.699  10.293   6.717 -0.5916  0.3557  2.1016
 7427SOL     OW34259   3.847   4.887  13.052 -0.0350  0.2071 -0.3972
 7427SOL    HW134260   3.764   4.886  13.005  0.9942 -0.2859 -2.2716
 7427SOL    HW234261   3.842   4.965  13.108 -1.0056  1.2540 -1.8811
 7428SOL     OW34262   3.628  11.037   4.106  0.3007 -0.2328 -0.2323
 7428SOL    HW134263   3.566  11.038   4.179 -1.1881  1.3856 -1.4509
 7428SOL    HW234264   3.650  10.944   4.095  0.2710 -0.5579  1.9684
 7429SOL     OW34265  10.971  12.995   2.687  0.2670  0.1304 -0.3027
 7429SOL    HW134266  10.895  13.046   2.659 -0.3551  0.3580  1.6560
 7429SOL    HW234267  11.036  13.009   2.618 -0.6921  1.7015 -0.9387
 7430SOL     OW34268  12.538  10.848  13.641  0.4854 -0.2872 -0.0005
 7430SOL    HW134269  12.590  10.823  13.564 -0.3273 -1.6766 -0.1283
 7430SOL    HW234270  12.579  10.928  13.672  1.1235  0.0445 -1.6018
 7431SOL     OW34271   0.112   4.288   5.681  0.3015 -0.4493  0.1523
 7431SOL    HW134272   0.064   4.216   5.641  0.7399  0.1948 -1.6065
 7431SOL    HW234273   0.195   4.249   5.711  0.5457 -0.6874 -0.8082
 7432SOL     OW34274   3.662  13.759   5.324 -0.1571 -0.1779  0.1060
 7432SOL    HW134275   3.584  13.806   5.356  0.9029  0.0962  2.5129
 7432SOL    HW234276   3.647  13.668   5.350  0.1914 -0.1835  0.2837
 7433SOL     OW34277   9.901   9.990   0.732  0.1270 -0.5517 -0.2499
 7433SOL    HW134278   9.962   9.952   0.795 -2.0270 -1.2488  1.5014
 7433SOL    HW234279   9.871  10.071   0.773 -0.3098 -0.3231 -0.9988
 7434SOL     OW34280   5.505  10.491  11.113  0.1769  0.5266 -0.0086
 7434SOL    HW134281   5.595  10.519  11.101  1.5835 -2.2422  2.6157
 7434SOL    HW234282   5.467  10.556  11.172  1.1740  0.5940  0.5777
 7435SOL     OW34283   3.628   3.699   8.061 -0.2866  0.0345 -0.2591
 7435SOL    HW134284   3.560   3.693   7.994 -0.1476 -2.5266 -0.2657
 7435SOL    HW234285   3.582   3.679   8.143  0.3137 -1.0114 -0.1705
 7436SOL     OW34286   7.405   0.041   0.351  0.4880  0.0087 -0.6774
 7436SOL    HW134287   7.426  -0.040   0.305 -1.8093 -0.4587 -1.0012
 7436SOL    HW234288   7.310   0.045   0.350  0.5390  2.5510 -0.3377
 7437SOL     OW34289  10.007  13.989   9.442  0.3112  0.4953 -0.1423
 7437SOL    HW134290  10.011  14.083   9.425 -0.3094  0.6268  0.3988
 7437SOL    HW234291   9.923  13.977   9.487  0.5947 -0.2501  0.1876
 7438SOL     OW34292   5.645   9.914  13.526  0.7231 -0.3897 -0.5988
 7438SOL    HW134293   5.698   9.879  13.597  1.0730 -0.0245 -0.6810
 7438SOL    HW234294   5.643  10.009  13.540 -1.3267 -0.5193  0.3976
 7439SOL     OW34295   6.555  11.492   0.623 -0.5538 -0.2312  0.1739
 7439SOL    HW134296   6.556  11.586   0.641 -2.3350  0.6948 -3.6417
 7439SOL    HW234297   6.618  11.480   0.552 -1.4538 -1.6380 -0.4181
 7440SOL     OW34298   9.308   5.754   2.598  0.6422 -0.0081 -0.6616
 7440SOL    HW134299   9.220   5.788   2.614  1.4446  0.9330  2.4045
 7440SOL    HW234300   9.354   5.827   2.555  0.2345 -0.1397 -1.3397
 7441SOL     OW34301  12.441   9.387  13.267 -0.5969  1.1188  0.7296
 7441SOL    HW134302  12.378   9.318  13.289 -1.4026  1.6626  0.1682
 7441SOL    HW234303  12.522   9.339  13.247 -1.3771  0.2502 -0.5000
 7442SOL     OW34304   9.076   3.274   4.149 -0.7556 -0.4452  0.0294
 7442SOL    HW134305   9.130   3.300   4.224 -0.7586 -1.8859  0.5556
 7442SOL    HW234306   8.999   3.330   4.154 -0.2076  0.2924  0.3954
 7443SOL     OW34307   3.197   6.225   9.756 -0.3385  0.0116  0.2924
 7443SOL    HW134308   3.204   6.152   9.818  1.0993 -0.3999 -0.3198
 7443SOL    HW234309   3.103   6.233   9.740 -0.5903 -1.1877  0.9826
 7444SOL     OW34310   4.016   6.368   3.273 -0.2006  0.2088  0.0178
 7444SOL    HW134311   3.934   6.319   3.278  0.2503 -0.7864 -1.4601
 7444SOL    HW234312   4.047   6.372   3.363 -2.3137  1.4781  0.7561
 7445SOL     OW34313  13.915  13.640   8.577  0.3032 -0.3042  0.5034
 7445SOL    HW134314  13.943  13.565   8.629 -1.2557 -0.6437  0.9135
 7445SOL    HW234315  13.933  13.615   8.487 -0.8283 -1.4830  0.5763
 7446SOL     OW34316   3.066   9.706   6.867  0.3476  0.2880  0.0376
 7446SOL    HW134317   3.018   9.788   6.877 -0.0950  0.2515 -1.5521
 7446SOL    HW234318   3.147   9.731   6.822 -0.2230 -0.2325 -1.3520
 7447SOL     OW34319   9.084  12.539   3.802 -0.2676 -0.4235  0.0388
 7447SOL    HW134320   9.048  12.590   3.729  1.7454  0.7279 -0.2204
 7447SOL    HW234321   9.087  12.601   3.875  3.5844  0.4785 -0.6702
 7448SOL     OW34322   0.708   9.954  12.476 -0.6792 -0.0088 -0.0590
 7448SOL    HW134323   0.742   9.986  12.392  0.9541  0.1017  0.6100
 7448SOL    HW234324   0.772   9.888  12.503  0.3029  1.7895  2.3352
 7449SOL     OW34325   8.227  12.503   2.234  0.4301  0.0556  0.1336
 7449SOL    HW134326   8.139  12.488   2.200 -0.6264  1.7556  1.8897
 7449SOL    HW234327   8.236  12.598   2.234  0.6166  0.1780  3.6792
 7450SOL     OW34328  10.552   3.091   2.638  0.7492 -0.3368 -0.0385
 7450SOL    HW134329  10.505   3.062   2.716 -0.8295  0.5280 -0.6182
 7450SOL    HW234330  10.568   3.184   2.653 -1.2042  0.2968 -1.4457
 7451SOL     OW34331   5.894   2.923   7.347 -0.2249  0.2110 -0.2461
 7451SOL    HW134332   5.889   2.914   7.252  0.7126  1.5432 -0.4439
 7451SOL    HW234333   5.869   3.013   7.364  2.0608  0.7745  0.5181
 7452SOL     OW34334   0.600  10.049   6.306 -0.0097  0.0724  0.1111
 7452SOL    HW134335   0.588  10.120   6.243  2.1939  0.5565  0.1916
 7452SOL    HW234336   0.511  10.013   6.318 -0.8366  1.4512 -1.4862
 7453SOL     OW34337  13.896   6.929   8.272  0.2385  0.0379 -0.1826
 7453SOL    HW134338  13.991   6.919   8.279  0.5906  2.6980 -0.3522
 7453SOL    HW234339  13.860   6.861   8.331  2.1804 -1.3548 -0.5176
 7454SOL     OW34340   6.210   9.806  10.338 -0.1469 -0.0791 -0.0421
 7454SOL    HW134341   6.206   9.855  10.420 -0.3208 -1.5227  0.8363
 7454SOL    HW234342   6.277   9.851  10.287 -0.6688  1.3912  0.4942
 7455SOL     OW34343   8.323   0.195   1.922 -0.5790  0.6218  0.3691
 7455SOL    HW134344   8.239   0.240   1.929 -0.4889  0.5540  2.5472
 7455SOL    HW234345   8.354   0.187   2.012  1.8461  0.7728 -0.3767
 7456SOL     OW34346   9.159   5.096   1.546 -0.3110  0.6797 -0.3249
 7456SOL    HW134347   9.204   5.123   1.466  0.9226  1.3432  0.5626
 7456SOL    HW234348   9.074   5.065   1.516  0.0567  1.0844 -1.8764
 7457SOL     OW34349  11.797  10.966   8.290 -0.5572 -0.2953  0.7173
 7457SOL    HW134350  11.729  11.014   8.338 -0.5776  0.2016  0.1896
 7457SOL    HW234351  11.760  10.878   8.279 -1.4665  0.1918 -0.2709
 7458SOL     OW34352   3.373  11.251   6.204 -0.1866  0.0648  0.3691
 7458SOL    HW134353   3.298  11.306   6.181 -0.5777 -0.0045  1.4166
 7458SOL    HW234354   3.379  11.257   6.300  1.5059  0.5192  0.2667
 7459SOL     OW34355   5.675   5.582   1.629  0.4190 -0.3332  0.1375
 7459SOL    HW134356   5.731   5.569   1.552 -0.0509 -0.5655 -0.1665
 7459SOL    HW234357   5.642   5.495   1.651 -0.1957 -0.1319  0.0286
 7460SOL     OW34358  12.048   4.903   0.827 -0.0297 -0.1212 -0.7889
 7460SOL    HW134359  11.983   4.888   0.895  2.0674  0.0323  1.3592
 7460SOL    HW234360  12.079   4.816   0.804  1.2115 -0.0476  0.5036
 7461SOL     OW34361  12.514   3.012   2.822  0.0954 -0.2932  0.4608
 7461SOL    HW134362  12.569   3.032   2.746  1.1864 -1.4483  0.9024
 7461SOL    HW234363  12.424   3.020   2.789  0.5312 -1.4435 -1.1849
 7462SOL     OW34364   2.176   2.487   1.576 -0.2236 -0.0453  0.1130
 7462SOL    HW134365   2.147   2.406   1.534  0.5509  0.4860 -1.5156
 7462SOL    HW234366   2.109   2.551   1.553 -0.5249 -0.0721  0.8956
 7463SOL     OW34367   3.880  13.703   2.958 -0.2373  0.1111  0.3169
 7463SOL    HW134368   3.813  13.722   2.893 -0.2146 -0.1263  0.2249
 7463SOL    HW234369   3.961  13.738   2.921 -0.2379  0.0413  0.2502
 7464SOL     OW34370  12.916   2.838  11.373  0.0912  0.1541 -0.1273
 7464SOL    HW134371  12.866   2.798  11.302  0.6682  1.3833 -1.2701
 7464SOL    HW234372  13.005   2.804  11.362  0.1635  0.2830  0.0480
 7465SOL     OW34373   1.305   4.713   1.711  0.2701  1.2142  0.3172
 7465SOL    HW134374   1.255   4.663   1.647 -1.5589  2.3483  0.7827
 7465SOL    HW234375   1.289   4.669   1.794 -0.2964  1.8096  0.5294
 7466SOL     OW34376   9.822   4.907   9.169  0.9318  0.5344 -0.9235
 7466SOL    HW134377   9.756   4.838   9.178  0.8121  0.6802 -0.6735
 7466SOL    HW234378   9.788   4.964   9.100 -0.0470  1.5540  0.3658
 7467SOL     OW34379   5.734   4.627   0.117 -0.7274  0.6274 -0.0626
 7467SOL    HW134380   5.727   4.707   0.066  0.1169  0.3772 -0.5851
 7467SOL    HW234381   5.664   4.572   0.085  0.4914  0.0135 -1.8208
 7468SOL     OW34382   8.858  10.557   3.811 -0.7226  0.3401 -0.0774
 7468SOL    HW134383   8.802  10.632   3.791  0.7425  2.0150  1.6944
 7468SOL    HW234384   8.830  10.529   3.899 -0.7834 -0.7661 -0.4302
 7469SOL     OW34385  13.317   0.018  11.991 -0.1624 -0.0758  0.0183
 7469SOL    HW134386  13.333   0.071  11.913 -0.4698 -1.9327 -1.3793
 7469SOL    HW234387  13.370   0.060  12.059  0.8807  1.0647 -1.4144
 7470SOL     OW34388   0.520   9.990   2.819  0.2044  0.0257 -0.0864
 7470SOL    HW134389   0.475   9.921   2.770 -1.3378  1.2466 -0.4545
 7470SOL    HW234390   0.522  10.065   2.759  0.2624  0.8630  0.9360
 7471SOL     OW34391   2.814  10.310  10.156  0.1520 -0.0235 -0.2028
 7471SOL    HW134392   2.831  10.385  10.100 -0.4661  0.1480 -0.1654
 7471SOL    HW234393   2.900  10.286  10.190  0.6795 -0.6951 -1.9086
 7472SOL     OW34394  10.597  12.979  13.197  0.2896  0.0305 -0.3421
 7472SOL    HW134395  10.568  12.998  13.108  0.3627  0.8990 -0.1948
 7472SOL    HW234396  10.577  12.887  13.211  0.8398 -0.2678 -1.4670
 7473SOL     OW34397  12.515  12.828   7.863 -0.1764 -0.0927  0.1144
 7473SOL    HW134398  12.581  12.794   7.924  0.5826  0.9645 -0.1021
 7473SOL    HW234399  12.439  12.846   7.918 -0.3311 -1.3822  0.3590
 7474SOL     OW34400   8.585   1.151   9.565 -0.4359  0.3278  0.6883
 7474SOL    HW134401   8.616   1.118   9.481  0.3621  0.6289  0.8505
 7474SOL    HW234402   8.595   1.078   9.625  0.2456  0.5047  0.7996
 7475SOL     OW34403   1.910   0.417  12.334  0.0569  0.3762  0.3267
 7475SOL    HW134404   1.853   0.485  12.299  0.2479 -0.0832 -0.9425
 7475SOL    HW234405   1.998   0.440  12.302  0.1966 -0.1840  0.2876
 7476SOL     OW34406  13.782   4.373  11.735  0.0127 -0.8054 -0.4647
 7476SOL    HW134407  13.721   4.300  11.722 -0.6630  0.0069 -2.2337
 7476SOL    HW234408  13.767   4.401  11.825  0.0326 -2.5944  0.1308
 7477SOL     OW34409   3.123   3.055   9.173  0.3175 -0.3134  0.1426
 7477SOL    HW134410   3.078   3.121   9.120  0.0975  1.2758  2.1518
 7477SOL    HW234411   3.067   2.978   9.170  0.1324 -0.1496 -1.5640
 7478SOL     OW34412   9.578   1.768   1.490  0.3252 -0.2810 -0.0715
 7478SOL    HW134413   9.630   1.759   1.411 -0.3323 -1.4793 -0.3832
 7478SOL    HW234414   9.487   1.769   1.460  0.1081  1.9953  0.4424
 7479SOL     OW34415   3.677  10.955  11.000 -0.1263  0.0575 -0.6243
 7479SOL    HW134416   3.672  10.863  10.974  0.1798  0.0669 -0.7085
 7479SOL    HW234417   3.631  11.002  10.931 -0.6035 -0.0646 -0.4005
 7480SOL     OW34418  10.360  10.668  10.033  0.3404 -0.0218  0.3736
 7480SOL    HW134419  10.436  10.703  10.079  0.6911 -0.3521  0.0519
 7480SOL    HW234420  10.303  10.744  10.019  0.5061  0.1852  0.8112
 7481SOL     OW34421   3.594   8.404  12.548 -0.6184 -0.1359  0.4233
 7481SOL    HW134422   3.577   8.493  12.519 -0.3324 -1.1864 -3.6663
 7481SOL    HW234423   3.507   8.369  12.569 -0.5666  1.4935  4.0316
 7482SOL     OW34424   8.011   4.989   6.160 -0.0303  0.0194  0.3913
 7482SOL    HW134425   7.996   5.083   6.169  2.4380  0.3336  2.2621
 7482SOL    HW234426   8.015   4.957   6.249  0.3312 -1.6383 -0.1902
 7483SOL     OW34427   1.010   8.840   1.712  1.1018  0.1346 -0.0852
 7483SOL    HW134428   0.929   8.869   1.753  0.7007 -1.7834  0.5731
 7483SOL    HW234429   1.079   8.876   1.768  0.5787 -1.7108  1.8943
 7484SOL     OW34430   5.123   2.677   9.120 -0.2479 -0.5046  0.0170
 7484SOL    HW134431   5.027   2.674   9.114 -0.1806  0.0975 -2.5116
 7484SOL    HW234432   5.152   2.671   9.029  2.1145  0.0757  0.6836
 7485SOL     OW34433   3.380   5.773   2.400  0.0188 -0.2432  0.2788
 7485SOL    HW134434   3.303   5.756   2.346  0.9566  1.9190 -1.9214
 7485SOL    HW234435   3.454   5.751   2.344  1.0475  2.4013  0.4911
 7486SOL     OW34436   4.907  12.961  10.927  0.4022  0.1120 -0.0819
 7486SOL    HW134437   4.858  12.925  10.853  0.8923 -2.4233  0.7083
 7486SOL    HW234438   4.924  13.052  10.903 -0.8004 -0.1931 -2.3665
 7487SOL     OW34439   6.024   3.637   8.104 -0.2501  0.0227  0.2054
 7487SOL    HW134440   5.953   3.610   8.046  0.2708 -0.6706 -0.1322
 7487SOL    HW234441   6.091   3.570   8.091  0.1833  0.2846  1.0367
 7488SOL     OW34442  10.130   6.339   4.336 -0.2375  0.3553  0.4590
 7488SOL    HW134443  10.202   6.302   4.388 -0.5574 -0.9575  0.0050
 7488SOL    HW234444  10.173   6.401   4.277  0.2910  0.8607  1.3470
 7489SOL     OW34445   0.692   7.859   1.617 -0.1720  0.6505 -0.0279
 7489SOL    HW134446   0.661   7.939   1.660  0.4509  0.6745  0.3907
 7489SOL    HW234447   0.644   7.856   1.534  2.0495  3.1604 -1.5867
 7490SOL     OW34448   2.428  13.837   4.395 -0.4385  0.6972  0.3607
 7490SOL    HW134449   2.414  13.897   4.322 -0.0275  0.3490 -0.0093
 7490SOL    HW234450   2.495  13.880   4.449 -2.2447  1.9632  1.6842
 7491SOL     OW34451  13.108  13.284  12.040  0.1021 -0.0171 -1.0143
 7491SOL    HW134452  13.014  13.270  12.036 -0.1411  0.6891  0.9705
 7491SOL    HW234453  13.122  13.333  12.122  2.4782 -2.7817  0.4229
 7492SOL     OW34454   7.991   2.228   4.664  0.2353  0.0395 -0.3190
 7492SOL    HW134455   8.066   2.274   4.624  0.2247 -0.3796 -0.8276
 7492SOL    HW234456   7.919   2.241   4.603 -0.7419  2.2827  1.1781
 7493SOL     OW34457   8.444   0.976   4.024 -0.7734  0.0296 -0.1173
 7493SOL    HW134458   8.452   1.027   4.104 -0.8164 -1.1264  0.6380
 7493SOL    HW234459   8.533   0.973   3.988 -0.3097 -1.2772  1.0530
 7494SOL     OW34460   4.454   7.751   1.119  0.0033 -0.0954 -0.1813
 7494SOL    HW134461   4.374   7.777   1.073 -0.6695 -0.1943  0.8981
 7494SOL    HW234462   4.523   7.756   1.052 -0.7333  0.9163 -0.9025
 7495SOL     OW34463   4.861  11.373   8.461  0.3842 -0.2963  0.4596
 7495SOL    HW134464   4.846  11.388   8.555  0.5682  1.1404  0.2791
 7495SOL    HW234465   4.811  11.442   8.418 -1.6535 -2.3231 -0.6493
 7496SOL     OW34466   0.987   1.412   2.512  0.0275 -0.4123 -0.0713
 7496SOL    HW134467   0.938   1.434   2.591  1.6179  2.5355  0.2511
 7496SOL    HW234468   0.938   1.455   2.441 -1.2865 -2.8810 -0.7690
 7497SOL     OW34469   4.207  11.778   4.550 -0.0889 -0.6141 -0.6320
 7497SOL    HW134470   4.175  11.843   4.487 -0.4701  0.4691  0.6314
 7497SOL    HW234471   4.127  11.732   4.578  0.0275 -0.8265 -0.6502
 7498SOL     OW34472  12.846   4.900   5.401 -0.8030 -0.3801 -0.4072
 7498SOL    HW134473  12.849   4.890   5.306  1.5082  1.3186 -0.5957
 7498SOL    HW234474  12.935   4.928   5.425 -1.8013  1.0123  2.0247
 7499SOL     OW34475   9.989  11.292   4.126 -0.7833 -0.1643 -0.4718
 7499SOL    HW134476   9.944  11.264   4.206  2.3676 -1.3531  1.0452
 7499SOL    HW234477  10.012  11.209   4.082 -0.0112  0.3781 -1.1202
 7500SOL     OW34478  10.623   5.144   9.906 -0.0916  0.0359  0.0859
 7500SOL    HW134479  10.576   5.162   9.988  0.1031  0.4550  0.1087
 7500SOL    HW234480  10.607   5.051   9.889 -1.4312  0.2990 -0.2249
 7501SOL     OW34481   4.452   8.439   1.231  0.0834 -0.1530 -0.0211
 7501SOL    HW134482   4.497   8.523   1.235 -1.7039  0.7989  2.4353
 7501SOL    HW234483   4.486   8.397   1.152  3.6719  1.3281  0.5427
 7502SOL     OW34484  12.183   4.821   2.912 -0.2925 -0.0543  0.1152
 7502SOL    HW134485  12.230   4.749   2.954  1.0587 -0.8935 -2.5406
 7502SOL    HW234486  12.137   4.865   2.983  2.0172 -1.1213  2.4446
 7503SOL     OW34487   1.809  13.943  13.179  0.6875 -0.2753 -0.2693
 7503SOL    HW134488   1.747  14.013  13.158  1.1355  0.1558 -0.1629
 7503SOL    HW234489   1.895  13.981  13.164  0.9651 -0.5530  0.5487
 7504SOL     OW34490  13.254   6.629   4.086 -0.2421  0.7282 -0.1691
 7504SOL    HW134491  13.314   6.646   4.159  0.8888 -1.9166 -0.3708
 7504SOL    HW234492  13.311   6.618   4.011 -0.8573 -2.0528 -0.3389
 7505SOL     OW34493  10.289   1.167   1.423 -0.0315  0.2058  0.5617
 7505SOL    HW134494  10.289   1.107   1.348  1.0133  0.1305  0.6147
 7505SOL    HW234495  10.243   1.245   1.391 -1.1734 -0.4963  0.4101
 7506SOL     OW34496  11.547  12.881   5.825 -0.5432  0.2841 -0.4198
 7506SOL    HW134497  11.509  12.805   5.781 -2.7851  1.2904 -0.3886
 7506SOL    HW234498  11.625  12.847   5.869 -0.3128 -1.5197 -2.0982
 7507SOL     OW34499   8.179   1.059   5.483 -0.1192  0.4240  0.1063
 7507SOL    HW134500   8.210   1.145   5.454 -1.1140  0.5183 -0.7496
 7507SOL    HW234501   8.091   1.052   5.446 -0.5221 -0.4650  1.1747
 7508SOL     OW34502   7.958   6.960   2.069 -0.0083  0.6823 -0.0290
 7508SOL    HW134503   7.864   6.945   2.076  0.0268  0.8688  0.9664
 7508SOL    HW234504   7.967   7.033   2.008 -0.4940  0.4704 -0.3546
 7509SOL     OW34505  13.534   2.629   4.249 -0.1673 -0.0101  0.4091
 7509SOL    HW134506  13.487   2.567   4.305  0.5711 -0.9148  0.0538
 7509SOL    HW234507  13.582   2.685   4.310  1.1490 -1.4044  0.6903
 7510SOL     OW34508   3.568   4.343   8.315  0.7332 -0.4446  0.2612
 7510SOL    HW134509   3.662   4.329   8.325  0.4154 -0.7596  4.6254
 7510SOL    HW234510   3.555   4.435   8.337 -0.0665 -0.6014  0.4790
 7511SOL     OW34511   3.983  12.616   5.040  0.2655 -0.3089 -0.4729
 7511SOL    HW134512   4.007  12.642   5.129 -0.3832  0.6781 -0.5623
 7511SOL    HW234513   3.937  12.533   5.050  1.1492 -0.7550 -0.0146
 7512SOL     OW34514   0.401   7.536   7.418 -0.0224 -0.1294 -0.1628
 7512SOL    HW134515   0.360   7.453   7.391 -0.9195  0.4097 -0.4778
 7512SOL    HW234516   0.328   7.594   7.436  0.6070  0.7520 -0.4057
 7513SOL     OW34517  12.433   8.741   8.470  0.1421  0.4375  0.2056
 7513SOL    HW134518  12.383   8.820   8.451  1.3403  1.2267  0.1998
 7513SOL    HW234519  12.476   8.719   8.388 -1.7221 -1.4219 -0.3588
 7514SOL     OW34520   9.033   7.312   3.455  0.5027 -0.5003  0.2862
 7514SOL    HW134521   9.049   7.225   3.492 -0.2487 -1.2192 -0.9974
 7514SOL    HW234522   8.957   7.300   3.398  0.7718  0.8620 -0.4067
 7515SOL     OW34523  10.839  12.482   0.730  0.4617 -0.2908  0.9308
 7515SOL    HW134524  10.767  12.445   0.680  0.2888 -0.7876  1.5419
 7515SOL    HW234525  10.914  12.427   0.709  0.8447  0.6346 -0.2392
 7516SOL     OW34526   5.944   4.787  10.220  0.5986 -0.2625 -0.2111
 7516SOL    HW134527   6.037   4.764  10.213  0.0797 -2.6981  0.2159
 7516SOL    HW234528   5.905   4.717  10.271 -1.7883 -0.1654 -1.7378
 7517SOL     OW34529   9.488   9.740  12.381  0.2972 -0.3690  0.7819
 7517SOL    HW134530   9.402   9.782  12.380  0.4520 -0.0257 -0.3749
 7517SOL    HW234531   9.479   9.667  12.442 -0.4426  0.4037  1.6081
 7518SOL     OW34532  13.201   1.950  14.013  0.1154 -0.0311  0.6132
 7518SOL    HW134533  13.283   1.959  13.964  0.8252  2.0713  2.0194
 7518SOL    HW234534  13.225   1.902  14.092 -0.8472 -2.6572 -0.5872
 7519SOL     OW34535  13.268   8.525   0.093 -0.3859 -0.5266  0.0359
 7519SOL    HW134536  13.200   8.537   0.027  0.1891 -1.4734 -0.7354
 7519SOL    HW234537  13.250   8.594   0.157 -2.3232 -1.0026  0.0755
 7520SOL     OW34538   6.681   9.063   2.715 -0.2063 -0.5241 -0.1749
 7520SOL    HW134539   6.631   9.103   2.644  1.6125 -0.8575 -1.7207
 7520SOL    HW234540   6.668   9.122   2.789 -0.5469  0.9436 -1.3453
 7521SOL     OW34541   2.623   7.940  13.428 -0.0886 -0.4574  0.2751
 7521SOL    HW134542   2.623   7.905  13.517  1.1986 -1.9853 -0.2859
 7521SOL    HW234543   2.709   7.983  13.419 -0.0417 -0.6625 -0.3425
 7522SOL     OW34544   3.468   8.186   9.079  0.1096  0.1778  0.0188
 7522SOL    HW134545   3.464   8.237   8.998 -1.9565 -0.0385 -0.0554
 7522SOL    HW234546   3.406   8.228   9.138  0.0399 -0.9154  0.7615
 7523SOL     OW34547  12.408   5.432  10.346  0.3979  0.8312 -0.2645
 7523SOL    HW134548  12.366   5.437  10.432 -1.0052  1.9478 -0.9777
 7523SOL    HW234549  12.341   5.398  10.287  0.5015  2.4298 -1.3878
 7524SOL     OW34550   4.280   4.012  10.328  0.2306 -0.3240 -0.1850
 7524SOL    HW134551   4.222   3.981  10.398  0.2885 -1.9136 -0.8042
 7524SOL    HW234552   4.367   3.987  10.357  0.7143  2.2418  0.8432
 7525SOL     OW34553  10.298   2.728   0.607 -0.3396  0.1948 -0.1161
 7525SOL    HW134554  10.358   2.754   0.676 -0.5355  0.3940 -0.0170
 7525SOL    HW234555  10.261   2.811   0.576  1.7337  0.3932 -2.3105
 7526SOL     OW34556  11.345   4.489   5.546  0.4803 -0.2733  0.6894
 7526SOL    HW134557  11.296   4.507   5.626  0.6136  0.8109  0.5417
 7526SOL    HW234558  11.283   4.509   5.475  0.2726 -1.4896  0.5078
 7527SOL     OW34559   7.300  11.647   7.988 -0.1315  0.0221  0.2613
 7527SOL    HW134560   7.278  11.588   7.916  1.2152 -0.4863  0.2283
 7527SOL    HW234561   7.232  11.632   8.054 -0.4297 -0.7433 -0.2158
 7528SOL     OW34562  10.408   0.911   7.331  0.7557 -0.0473 -0.1239
 7528SOL    HW134563  10.440   0.884   7.245  0.2253  0.0944 -0.3736
 7528SOL    HW234564  10.368   0.833   7.368  1.9884 -0.4167  0.4912
 7529SOL     OW34565   1.131  13.049   8.743 -0.0633 -0.1523  0.1456
 7529SOL    HW134566   1.111  13.121   8.803  1.4787 -0.4492  1.0499
 7529SOL    HW234567   1.209  13.008   8.779 -0.2106 -1.5390 -1.0304
 7530SOL     OW34568   0.475   6.241   2.550  0.1053 -0.9156  0.0870
 7530SOL    HW134569   0.520   6.322   2.573  1.5386 -1.1280 -1.7616
 7530SOL    HW234570   0.404   6.234   2.614  0.1998  1.5697  0.5516
 7531SOL     OW34571  12.673   1.928  13.783  0.2828 -0.1721  0.2857
 7531SOL    HW134572  12.734   1.928  13.857  1.3521  0.1159 -0.5653
 7531SOL    HW234573  12.705   1.857  13.726 -0.0082  0.1652 -0.3022
 7532SOL     OW34574   9.519   6.282   7.363  0.5378  0.0831 -0.1823
 7532SOL    HW134575   9.530   6.357   7.421  0.9847 -0.5486  0.5537
 7532SOL    HW234576   9.508   6.321   7.276  0.7069  0.9977  0.1961
 7533SOL     OW34577  12.127   1.191   3.032  0.9166 -0.1647  0.4701
 7533SOL    HW134578  12.211   1.236   3.041  0.4150  1.0216 -0.3855
 7533SOL    HW234579  12.106   1.198   2.938 -0.7974  0.8865  0.8718
 7534SOL     OW34580   7.909   9.335  12.056 -0.1278  0.7117  0.1438
 7534SOL    HW134581   7.914   9.427  12.082 -0.8238  0.5780  0.7770
 7534SOL    HW234582   7.862   9.292  12.128 -0.5167  0.0026 -0.5187
 7535SOL     OW34583   7.385   3.480  13.335  0.3649 -1.3698  0.4233
 7535SOL    HW134584   7.461   3.522  13.296 -0.3455  1.9697  2.2670
 7535SOL    HW234585   7.320   3.550  13.343 -1.9116 -3.4489  1.3919
 7536SOL     OW34586   2.248   8.329   7.132 -0.2381 -0.2365 -0.2165
 7536SOL    HW134587   2.281   8.367   7.213  0.5285  0.0653 -0.6558
 7536SOL    HW234588   2.179   8.388   7.103  0.0032  0.0622 -0.1783
 7537SOL     OW34589  12.743  11.024  13.692  0.5047  0.4230  0.1211
 7537SOL    HW134590  12.751  11.041  13.786  1.8033 -0.4187  0.1886
 7537SOL    HW234591  12.831  11.037  13.657 -0.3113  2.6063 -1.3496
 7538SOL     OW34592   1.355  10.878   4.599  0.1344  0.2732 -0.4987
 7538SOL    HW134593   1.299  10.857   4.674 -0.0500 -0.1725 -0.7595
 7538SOL    HW234594   1.315  10.832   4.525  1.9969 -1.8345 -0.3148
 7539SOL     OW34595  13.726   0.357   9.146 -0.6313  0.0875  0.0898
 7539SOL    HW134596  13.793   0.289   9.132 -0.4760  0.5630 -1.8261
 7539SOL    HW234597  13.749   0.398   9.229  0.8750 -0.4240 -0.0511
 7540SOL     OW34598  13.058  12.750   0.816  0.4145  0.0297 -0.2401
 7540SOL    HW134599  13.068  12.659   0.788  2.3537 -0.0843  0.6939
 7540SOL    HW234600  13.140  12.792   0.791 -0.0692  1.2981  0.2260
 7541SOL     OW34601   9.987  13.271  11.668 -0.1520 -0.2707  0.2703
 7541SOL    HW134602   9.912  13.314  11.626 -1.6280 -2.4426  0.5441
 7541SOL    HW234603   9.948  13.215  11.735  1.7220 -1.5173  0.3717
 7542SOL     OW34604   4.609   3.016  11.532 -0.1349 -0.2287  0.4050
 7542SOL    HW134605   4.546   2.987  11.467 -1.5208 -0.5536  1.8149
 7542SOL    HW234606   4.642   3.100  11.498  0.5064 -1.1984 -1.5029
 7543SOL     OW34607  12.516   3.408   9.846 -0.2308 -0.1466  0.1736
 7543SOL    HW134608  12.476   3.369   9.769  1.1437  1.1517 -1.2543
 7543SOL    HW234609  12.482   3.497   9.849  0.9657  0.3295  0.0892
 7544SOL     OW34610   0.164   3.895   0.498 -0.3917  0.3528  0.1344
 7544SOL    HW134611   0.208   3.810   0.506 -1.4590 -0.1245  1.2060
 7544SOL    HW234612   0.201   3.933   0.418  1.9981  0.0062  0.9893
 7545SOL     OW34613   8.221   4.008   1.814  0.1363  0.0925 -0.3246
 7545SOL    HW134614   8.292   4.068   1.838 -0.1658  0.5445 -0.5483
 7545SOL    HW234615   8.145   4.065   1.802  0.0144 -0.2584 -1.2420
 7546SOL     OW34616   5.222  13.223  12.912 -0.2966  0.3619 -0.2011
 7546SOL    HW134617   5.262  13.184  12.989  2.8296  2.1042 -0.7287
 7546SOL    HW234618   5.141  13.263  12.944  0.9668  1.1810  2.2908
 7547SOL     OW34619   7.678   7.325   0.549  0.0984 -0.1807 -0.1232
 7547SOL    HW134620   7.599   7.280   0.581 -0.3022 -2.1327 -3.3865
 7547SOL    HW234621   7.745   7.305   0.614 -1.6674  0.2881  1.9862
 7548SOL     OW34622  13.798   8.195  10.367 -0.0118 -0.4943 -0.0352
 7548SOL    HW134623  13.780   8.288  10.356 -0.9361 -0.8145 -1.5580
 7548SOL    HW234624  13.859   8.174  10.296 -1.0667 -1.3383 -0.7388
 7549SOL     OW34625   6.890   1.125   9.954  0.1706  0.0169 -0.7706
 7549SOL    HW134626   6.939   1.043   9.955 -1.2605 -0.8734  0.2234
 7549SOL    HW234627   6.840   1.123   9.872 -2.0355 -1.5341  0.4930
 7550SOL     OW34628  13.479   7.435  10.384 -0.3944 -0.0185 -0.1772
 7550SOL    HW134629  13.419   7.365  10.358 -0.8138  0.3207 -0.1117
 7550SOL    HW234630  13.535   7.448  10.307 -2.5967  2.0513 -1.5537
 7551SOL     OW34631   3.414   7.713  10.416 -0.1856 -0.1617  0.2622
 7551SOL    HW134632   3.418   7.782  10.482 -0.8744  0.4776 -0.3550
 7551SOL    HW234633   3.324   7.715  10.383 -0.1984 -1.3024  0.1745
 7552SOL     OW34634   8.758   8.444   9.099 -0.0802  0.4323  0.2040
 7552SOL    HW134635   8.699   8.414   9.168 -3.1786 -3.5363 -3.6022
 7552SOL    HW234636   8.716   8.523   9.065 -2.2791 -1.1286 -1.0153
 7553SOL     OW34637   7.193   9.289   2.199 -0.4477 -0.2596  0.0827
 7553SOL    HW134638   7.233   9.357   2.144 -0.1116 -0.5702 -0.0650
 7553SOL    HW234639   7.218   9.207   2.156 -2.1423 -0.4477 -0.6372
 7554SOL     OW34640  13.564   4.981   5.567  0.0795  0.1605 -0.0787
 7554SOL    HW134641  13.593   5.040   5.636  0.6959 -1.4592  1.1323
 7554SOL    HW234642  13.492   5.027   5.524 -1.5675  0.5472  2.8186
 7555SOL     OW34643   4.842   3.093   9.922 -0.0372  0.0156 -0.7517
 7555SOL    HW134644   4.810   3.017   9.971 -0.6168  1.6957  1.7009
 7555SOL    HW234645   4.928   3.111   9.960  1.4347 -1.0310 -3.3258
 7556SOL     OW34646   2.213   7.402   1.610 -0.1870  0.0963 -0.1009
 7556SOL    HW134647   2.282   7.444   1.660 -0.1669  0.5173 -0.4744
 7556SOL    HW234648   2.156   7.362   1.676  0.2817 -0.0533  0.2166
 7557SOL     OW34649   2.436   5.212   6.820 -0.0319  0.1619  0.3989
 7557SOL    HW134650   2.388   5.131   6.836  1.5634 -1.1759 -1.2597
 7557SOL    HW234651   2.516   5.204   6.871  1.2469 -0.4427 -1.6016
 7558SOL     OW34652   5.494  11.984   7.955 -0.7410 -0.0972 -0.1938
 7558SOL    HW134653   5.474  12.035   8.034 -2.7450 -1.1549  0.0357
 7558SOL    HW234654   5.547  11.910   7.986 -1.3422 -0.3923  0.1358
 7559SOL     OW34655   8.795   2.891   8.993 -0.4987  0.2018  0.1180
 7559SOL    HW134656   8.792   2.985   9.007 -0.0592  0.5323 -1.6767
 7559SOL    HW234657   8.722   2.873   8.933 -0.1725 -0.4918 -0.0817
 7560SOL     OW34658   1.525   9.791   9.239 -0.2685 -0.0253 -0.2368
 7560SOL    HW134659   1.442   9.802   9.192 -0.5121 -2.0251 -0.3616
 7560SOL    HW234660   1.513   9.839   9.320 -1.4916 -0.1051 -0.3451
 7561SOL     OW34661  10.929   8.074   5.066  0.3966  0.0019  0.0957
 7561SOL    HW134662  11.003   8.131   5.046  1.3475 -0.3423  2.3105
 7561SOL    HW234663  10.901   8.101   5.153  0.8383 -2.7578  1.2303
 7562SOL     OW34664   2.456   1.796  11.367  0.6548  0.4489 -0.3847
 7562SOL    HW134665   2.381   1.740  11.386  1.4189 -0.6601 -0.5430
 7562SOL    HW234666   2.532   1.740  11.383  1.4278  1.2096 -1.2855
 7563SOL     OW34667   3.400   6.969   9.683  0.3007  0.1091 -0.1837
 7563SOL    HW134668   3.366   7.053   9.713  1.3559  0.5953 -0.3070
 7563SOL    HW234669   3.426   6.923   9.763  0.5836  0.2876 -0.1705
 7564SOL     OW34670   3.663   8.067  11.278  0.2992  0.5267  0.8016
 7564SOL    HW134671   3.592   8.012  11.242 -1.5845  2.8935  0.6763
 7564SOL    HW234672   3.664   8.045  11.371 -0.8631  0.6758  0.8724
 7565SOL     OW34673   0.597   9.607   0.139 -0.2504 -0.4901 -0.0998
 7565SOL    HW134674   0.523   9.623   0.080 -1.0024 -1.3510  0.5676
 7565SOL    HW234675   0.612   9.513   0.134 -0.7794 -0.6966  1.5576
 7566SOL     OW34676   1.983  12.924   0.192 -0.3543  0.6626  0.0888
 7566SOL    HW134677   1.975  13.019   0.203 -0.2682  0.6472  0.2884
 7566SOL    HW234678   1.910  12.888   0.243 -0.1312  0.6034  0.3708
 7567SOL     OW34679   8.355   0.449   8.463  0.9626  0.5545  0.4336
 7567SOL    HW134680   8.287   0.513   8.442 -1.3210 -1.7884  0.2348
 7567SOL    HW234681   8.343   0.432   8.556  0.4723 -0.6832  0.1648
 7568SOL     OW34682  11.922  13.748   1.231  0.1041  0.2914  0.6254
 7568SOL    HW134683  11.839  13.705   1.213  0.9801 -1.9978  1.6675
 7568SOL    HW234684  11.902  13.841   1.232 -2.1693 -0.1432 -0.4365
 7569SOL     OW34685   6.519  12.205   9.327 -0.3201 -0.9131  0.2408
 7569SOL    HW134686   6.576  12.266   9.281 -1.4158  0.3766  0.5291
 7569SOL    HW234687   6.541  12.218   9.420 -0.0659 -1.4782  0.2620
 7570SOL     OW34688  10.767   2.855   8.460 -0.2981 -0.4353 -0.0287
 7570SOL    HW134689  10.684   2.875   8.417  0.2038  0.2960 -0.7029
 7570SOL    HW234690  10.743   2.808   8.539 -1.2586 -2.3467 -1.3683
 7571SOL     OW34691  14.007  10.276   0.192  0.6912  0.3912  0.7462
 7571SOL    HW134692  14.021  10.199   0.247  0.6303  0.6410  1.1188
 7571SOL    HW234693  13.963  10.338   0.250 -2.8950 -0.6693 -0.5161
 7572SOL     OW34694   4.879   4.114   3.405 -1.0309  0.5039 -0.3332
 7572SOL    HW134695   4.814   4.143   3.469 -3.2642 -1.2938 -1.6439
 7572SOL    HW234696   4.834   4.048   3.352  1.9223 -0.9789 -1.2553
 7573SOL     OW34697   4.943   4.377   5.824 -0.1546  0.2021  0.0576
 7573SOL    HW134698   4.968   4.318   5.753  0.5791  0.0095  0.4769
 7573SOL    HW234699   4.850   4.396   5.807 -0.3401 -0.8742 -0.2141
 7574SOL     OW34700   6.986   3.357   6.122 -0.8822  0.1320  0.1618
 7574SOL    HW134701   7.017   3.290   6.182  1.0871  1.9688  1.3425
 7574SOL    HW234702   6.972   3.434   6.178 -1.1643  1.2705 -1.4055
 7575SOL     OW34703   1.713   3.359   6.423 -0.1551 -0.3664  0.2220
 7575SOL    HW134704   1.745   3.325   6.506 -1.4846  0.8668  1.2811
 7575SOL    HW234705   1.631   3.314   6.407 -0.4707  0.2181  0.1580
 7576SOL     OW34706   5.670   8.463   0.890  0.4852  0.5951 -0.0099
 7576SOL    HW134707   5.634   8.504   0.969 -0.1975  0.1562 -0.0898
 7576SOL    HW234708   5.761   8.442   0.914  0.0639 -0.2456  0.9404
 7577SOL     OW34709   8.232   0.138   4.597  0.0715 -0.0564 -0.7993
 7577SOL    HW134710   8.241   0.066   4.659 -2.0461  1.1075  0.9992
 7577SOL    HW234711   8.267   0.214   4.645 -0.6540  0.6811 -1.4180
 7578SOL     OW34712   5.101   4.284  11.961  0.3736  0.0881 -0.4196
 7578SOL    HW134713   5.174   4.224  11.979  0.7088  0.0163 -1.8656
 7578SOL    HW234714   5.088   4.332  12.043  0.5021 -1.5283  0.5831
 7579SOL     OW34715   3.871   2.771   5.193  0.0754 -0.4404  0.4215
 7579SOL    HW134716   3.778   2.753   5.203 -0.3570  1.2294 -0.3491
 7579SOL    HW234717   3.902   2.787   5.282 -0.1633 -1.8050  0.7788
 7580SOL     OW34718  12.014   9.834  11.337  0.1287 -0.0860 -0.0073
 7580SOL    HW134719  12.053   9.868  11.256  1.6172 -0.9159  0.3269
 7580SOL    HW234720  11.975   9.750  11.311  0.9602 -0.5452  0.2028
 7581SOL     OW34721  10.957   6.099  12.621  0.5126 -0.2447  0.2806
 7581SOL    HW134722  11.006   6.154  12.561 -0.9295  1.0462  0.2091
 7581SOL    HW234723  10.913   6.035  12.565 -0.0295  0.3192  0.0545
 7582SOL     OW34724   3.140   8.226   0.032 -0.0164 -0.2686 -0.1837
 7582SOL    HW134725   3.177   8.303   0.075 -1.1051  0.6907 -0.9180
 7582SOL    HW234726   3.056   8.255  -0.003  0.0092 -1.5123 -1.3725
 7583SOL     OW34727  11.932   8.713   6.936 -0.1490  0.3386 -0.1656
 7583SOL    HW134728  11.858   8.652   6.936 -0.0621  0.1441 -2.2932
 7583SOL    HW234729  11.924   8.760   7.019 -1.5836 -0.9324  0.4832
 7584SOL     OW34730   0.860   4.303   9.630  0.4439  0.5205  0.0218
 7584SOL    HW134731   0.893   4.334   9.545  0.7789 -1.9137 -0.8233
 7584SOL    HW234732   0.900   4.217   9.641 -1.0049  0.0112  1.8031
 7585SOL     OW34733   6.165   9.666  12.891  1.1113  0.0371 -0.5130
 7585SOL    HW134734   6.193   9.729  12.825  0.5427 -1.1685 -1.9442
 7585SOL    HW234735   6.091   9.620  12.851 -0.7795  0.8016  1.8123
 7586SOL     OW34736  10.776   1.282   8.245 -0.5646 -0.4371 -0.1234
 7586SOL    HW134737  10.716   1.222   8.202 -0.4731 -0.7829  0.2282
 7586SOL    HW234738  10.731   1.307   8.326  0.3111 -1.7487  0.8115
 7587SOL     OW34739   0.703   7.038   6.698 -0.2347 -0.2955 -0.7984
 7587SOL    HW134740   0.629   6.989   6.661 -0.8124  0.0659 -0.1484
 7587SOL    HW234741   0.688   7.036   6.793 -1.6314  3.1758 -0.8080
 7588SOL     OW34742   1.347   8.156  13.350 -0.4432 -0.0445  0.2949
 7588SOL    HW134743   1.377   8.072  13.316  0.2408  0.2723  0.0869
 7588SOL    HW234744   1.425   8.212  13.349 -1.0225  0.7805 -0.1551
 7589SOL     OW34745   6.513  12.152   8.230  0.2210 -0.1753  0.6978
 7589SOL    HW134746   6.568  12.217   8.274  0.6641 -0.2602  0.2637
 7589SOL    HW234747   6.541  12.068   8.265 -0.2668 -0.1516  1.1643
 7590SOL     OW34748   8.645   4.589   0.536  0.3455  0.4412 -0.1933
 7590SOL    HW134749   8.704   4.535   0.588  0.5351 -0.1461 -1.0036
 7590SOL    HW234750   8.562   4.541   0.535  0.3374  0.4553 -0.4085
 7591SOL     OW34751   4.240   8.191   0.414  0.2176 -0.3911  0.5232
 7591SOL    HW134752   4.193   8.121   0.368  1.0096 -2.1761  2.2742
 7591SOL    HW234753   4.257   8.155   0.501  1.4414  1.6779  1.2100
 7592SOL     OW34754  10.951   3.320   5.594  0.1533 -0.4484 -0.0950
 7592SOL    HW134755  11.033   3.332   5.547  0.8509 -1.5983  0.7896
 7592SOL    HW234756  10.885   3.309   5.525  0.5039  1.6148 -0.8440
 7593SOL     OW34757   4.047   7.858  11.200  0.3479  0.6815  0.1792
 7593SOL    HW134758   4.043   7.773  11.244  1.7584  1.6366  2.2974
 7593SOL    HW234759   3.960   7.870  11.162 -0.3617 -0.9962  1.1978
 7594SOL     OW34760   7.787  10.530   1.287  0.0777 -0.1328  0.6442
 7594SOL    HW134761   7.735  10.579   1.350 -2.1370 -0.7894 -0.5803
 7594SOL    HW234762   7.844  10.596   1.247  0.2214  0.6094  1.9887
 7595SOL     OW34763  11.451  13.805   5.223 -0.4018  0.5492 -0.2542
 7595SOL    HW134764  11.537  13.841   5.244 -0.2181 -0.5569  1.0884
 7595SOL    HW234765  11.394  13.840   5.292 -1.4269  2.5439 -2.0184
 7596SOL     OW34766  12.369  11.614   3.429  0.0776  0.6135  0.0915
 7596SOL    HW134767  12.327  11.678   3.486  1.7586  1.5154  0.3952
 7596SOL    HW234768  12.434  11.664   3.380 -1.0689 -0.1846 -2.4575
 7597SOL     OW34769  12.698  10.522  11.771 -0.0922 -0.3125 -0.2528
 7597SOL    HW134770  12.784  10.502  11.806  0.0278 -0.4001 -0.6011
 7597SOL    HW234771  12.637  10.477  11.830 -0.0713  2.0495  1.7410
 7598SOL     OW34772   1.173  10.219  12.920  0.0371  0.8598  0.1856
 7598SOL    HW134773   1.250  10.180  12.961 -0.7134 -1.8134 -0.7680
 7598SOL    HW234774   1.098  10.179  12.965 -0.7922 -0.6320 -2.2916
 7599SOL     OW34775  13.719  12.102  12.262 -0.4253 -0.0751  0.0545
 7599SOL    HW134776  13.806  12.065  12.279  0.2732 -0.4140 -3.4392
 7599SOL    HW234777  13.736  12.193  12.238 -1.4127  0.6761  1.9997
 7600SOL     OW34778   5.921   8.732  11.177  0.0434 -0.3035  0.3256
 7600SOL    HW134779   5.950   8.677  11.104  1.2425  0.9932 -0.2393
 7600SOL    HW234780   5.998   8.740  11.233  0.3679  1.7978 -0.2919
 7601SOL     OW34781   9.459   8.800  12.000  0.7164  0.0193 -0.1865
 7601SOL    HW134782   9.544   8.758  12.014  0.8872 -0.1524 -1.5497
 7601SOL    HW234783   9.450   8.803  11.905 -0.8304 -0.0132 -0.0699
 7602SOL     OW34784   7.250   7.339  12.078 -0.2728 -0.3482 -0.2412
 7602SOL    HW134785   7.317   7.311  12.140  1.4658  0.7815 -1.5020
 7602SOL    HW234786   7.179   7.372  12.133  0.3973 -1.1163  1.1460
 7603SOL     OW34787   7.693  10.853   2.892  0.3621 -0.0168 -0.2001
 7603SOL    HW134788   7.628  10.920   2.875 -0.3166 -0.5786  0.1313
 7603SOL    HW234789   7.732  10.878   2.976 -1.2187 -1.0230  0.8985
 7604SOL     OW34790  10.087   9.357   9.289 -0.2226  0.1844 -0.6762
 7604SOL    HW134791  10.075   9.262   9.294  0.6015  0.0787 -0.5320
 7604SOL    HW234792  10.176   9.367   9.255 -0.6412  0.9027 -1.5822
 7605SOL     OW34793   5.540  10.471   0.716  0.4736  0.2881 -0.0746
 7605SOL    HW134794   5.523  10.379   0.736  1.1504  0.4251  1.2529
 7605SOL    HW234795   5.614  10.469   0.655 -0.1475 -0.0625 -0.8367
 7606SOL     OW34796  10.039  10.632   2.645  0.3977 -0.3401  0.4715
 7606SOL    HW134797   9.986  10.557   2.674  1.6030 -0.4849  2.5306
 7606SOL    HW234798   9.986  10.708   2.665 -0.8451 -0.5919 -1.6465
 7607SOL     OW34799   8.296   2.320   3.966  0.1854 -0.2976  0.0228
 7607SOL    HW134800   8.291   2.347   3.875  2.6157 -1.6735 -0.5885
 7607SOL    HW234801   8.253   2.234   3.968 -0.8996  0.2247  0.4685
 7608SOL     OW34802   2.104  12.720   6.034  0.3144 -0.0431  0.2017
 7608SOL    HW134803   2.124  12.726   6.127 -1.3114  0.9303  0.5212
 7608SOL    HW234804   2.045  12.794   6.017  0.0117 -0.6200 -1.4374
 7609SOL     OW34805  12.920   7.702   3.853 -0.1967 -0.1852  0.1137
 7609SOL    HW134806  12.967   7.651   3.919  0.6427 -2.6471 -2.2106
 7609SOL    HW234807  12.983   7.767   3.823 -0.1568  0.1111  0.8357
 7610SOL     OW34808   9.909   0.496   8.816  0.3704  0.0227 -0.1968
 7610SOL    HW134809   9.924   0.589   8.801 -1.1470  0.1589 -1.0563
 7610SOL    HW234810   9.996   0.461   8.835  0.9197  1.6626  0.5373
 7611SOL     OW34811   5.343   0.842   2.118 -0.2496 -0.2808 -0.3243
 7611SOL    HW134812   5.339   0.907   2.048 -1.3784 -0.9956 -0.9563
 7611SOL    HW234813   5.255   0.805   2.121  0.5302 -2.2779 -0.4537
 7612SOL     OW34814   9.964   8.468  10.039 -0.2762 -0.2504  0.1084
 7612SOL    HW134815   9.879   8.458  10.082 -1.3711 -1.4046 -2.1135
 7612SOL    HW234816   9.949   8.539   9.976  0.5209 -0.2235 -0.0530
 7613SOL     OW34817  12.690   0.158   7.579  0.1154  0.1013  0.0721
 7613SOL    HW134818  12.712   0.074   7.540  0.0788  0.2781 -0.3381
 7613SOL    HW234819  12.772   0.190   7.616 -0.2409 -0.9554  1.8781
 7614SOL     OW34820   2.203   0.690   7.999  0.6152 -0.1552 -0.3910
 7614SOL    HW134821   2.261   0.761   7.974  0.8507  0.8573  2.6206
 7614SOL    HW234822   2.253   0.610   7.980  2.2287  0.6359  0.3517
 7615SOL     OW34823  11.948  11.321  13.321 -0.4099  0.0683 -0.6016
 7615SOL    HW134824  12.025  11.265  13.311 -0.7832 -0.4589 -0.5444
 7615SOL    HW234825  11.874  11.261  13.313 -0.8320  0.6823 -1.4327
 7616SOL     OW34826  13.064   4.838   1.399 -0.7225 -0.4624  0.7701
 7616SOL    HW134827  13.020   4.897   1.460 -1.7662  1.1268 -1.4104
 7616SOL    HW234828  12.994   4.782   1.365 -0.6375  0.3250 -0.7737
 7617SOL     OW34829   7.672   2.563   3.828 -0.1229 -0.1348  0.0684
 7617SOL    HW134830   7.719   2.489   3.869 -2.4696 -1.0753  1.2258
 7617SOL    HW234831   7.615   2.522   3.763 -2.0336  0.5024  1.2624
 7618SOL     OW34832   1.990   3.891  10.453 -0.2183  0.7187 -0.5283
 7618SOL    HW134833   2.074   3.924  10.488  0.3176 -0.0293 -1.0886
 7618SOL    HW234834   2.011   3.862  10.365 -0.9149 -0.1702 -0.4055
 7619SOL     OW34835   3.810  10.710   9.025  0.0392 -0.1763 -0.1954
 7619SOL    HW134836   3.820  10.642   8.957 -0.7477 -0.2462 -0.2468
 7619SOL    HW234837   3.718  10.734   9.021 -0.0069 -0.1535  0.8286
 7620SOL     OW34838   2.831   0.734  10.203  0.2542  0.0937 -0.1482
 7620SOL    HW134839   2.781   0.815  10.198  1.4333  0.7765 -2.0830
 7620SOL    HW234840   2.865   0.733  10.292 -1.5859  0.5659  0.6024
 7621SOL     OW34841   1.393  12.710   9.357 -0.3557  0.4199 -0.4801
 7621SOL    HW134842   1.312  12.755   9.383 -0.8899 -1.1605  0.7532
 7621SOL    HW234843   1.413  12.652   9.431  1.3141 -0.0203 -1.2347
 7622SOL     OW34844   6.730   3.606   8.687  0.1678  0.0335  0.3031
 7622SOL    HW134845   6.808   3.580   8.637 -0.9183  1.8637 -2.5899
 7622SOL    HW234846   6.664   3.540   8.665 -0.6396  1.4287 -1.7423
 7623SOL     OW34847   6.527   4.895   7.843 -0.1257 -0.0394 -0.4411
 7623SOL    HW134848   6.622   4.893   7.854 -0.2754 -0.0377  1.1212
 7623SOL    HW234849   6.506   4.811   7.803  0.4625 -0.4141  0.0118
 7624SOL     OW34850   0.086   1.667   9.601  0.4487  0.0125  0.2143
 7624SOL    HW134851   0.061   1.581   9.568  2.6301 -0.7491  0.3803
 7624SOL    HW234852   0.149   1.649   9.670  1.8619  1.7441 -0.5425
 7625SOL     OW34853   6.706   5.157  13.998  0.0289 -0.1306 -0.2433
 7625SOL    HW134854   6.750   5.214  14.062 -0.0357  1.5488 -1.6385
 7625SOL    HW234855   6.766   5.082  13.989  0.9172  0.4665  0.4287
 7626SOL     OW34856   2.256   9.619  10.729 -0.1665 -0.2908 -0.1875
 7626SOL    HW134857   2.225   9.633  10.639  1.8453 -1.6312 -1.1589
 7626SOL    HW234858   2.292   9.530  10.729  2.2469  0.5839  1.1861
 7627SOL     OW34859   9.795   8.933   9.949 -0.2475 -0.2859  0.5562
 7627SOL    HW134860   9.811   8.877  10.025 -0.7589  0.7224  1.4238
 7627SOL    HW234861   9.729   8.996   9.978  2.2573  2.5643  0.5393
 7628SOL     OW34862   9.256   3.719   8.156 -0.0473  0.2320  0.4823
 7628SOL    HW134863   9.215   3.685   8.235  1.2004 -1.8686  0.3041
 7628SOL    HW234864   9.324   3.778   8.188  0.1642 -0.2673  0.9777
 7629SOL     OW34865  10.373   3.795   7.528 -0.3498  0.2760  0.2691
 7629SOL    HW134866  10.288   3.836   7.540  0.0353  1.0721  0.3497
 7629SOL    HW234867  10.430   3.866   7.500  0.6395  0.0669  1.6399
 7630SOL     OW34868   7.527   7.561  11.132 -0.6641  0.5717  0.0465
 7630SOL    HW134869   7.498   7.630  11.192 -0.2678  0.1511  0.7387
 7630SOL    HW234870   7.617   7.542  11.158 -0.4465  0.4597 -0.7618
 7631SOL     OW34871  11.346   3.119   1.996  0.8073 -0.8405  0.0953
 7631SOL    HW134872  11.313   3.206   1.973  3.1523  0.7047  2.0395
 7631SOL    HW234873  11.277   3.059   1.968 -2.0671  1.8094  0.8730
 7632SOL     OW34874   3.857   1.732   7.491 -0.2646  0.1527  0.0674
 7632SOL    HW134875   3.892   1.763   7.575 -0.4562  1.7168 -0.3979
 7632SOL    HW234876   3.794   1.664   7.515 -0.8110  1.0382  1.2548
 7633SOL     OW34877  13.869   3.302  13.492 -0.1494 -0.6649 -0.1648
 7633SOL    HW134878  13.800   3.364  13.466 -2.2112 -2.9890 -0.6536
 7633SOL    HW234879  13.854   3.288  13.586 -0.7414 -1.5568 -0.3742
 7634SOL     OW34880  11.881  10.064   5.597  0.3253  0.5441 -0.3562
 7634SOL    HW134881  11.939  10.034   5.527  2.2427  2.1430  0.4524
 7634SOL    HW234882  11.829  10.134   5.557  2.0139  2.0439 -0.0399
 7635SOL     OW34883   8.921   5.825   7.774 -0.3707  0.3240  0.1940
 7635SOL    HW134884   8.834   5.840   7.737  0.0542 -0.2808 -1.1275
 7635SOL    HW234885   8.905   5.807   7.867 -1.5038  1.6563  0.2843
 7636SOL     OW34886  12.750   7.089  11.196  0.3340 -0.1424  0.3396
 7636SOL    HW134887  12.799   7.064  11.117  1.0228  0.4088  0.5837
 7636SOL    HW234888  12.817   7.097  11.264  0.0315  1.4104  0.4990
 7637SOL     OW34889   0.544   0.116   8.083  0.0925  0.4253 -0.3681
 7637SOL    HW134890   0.480   0.147   8.019  0.8602  0.6857 -1.0140
 7637SOL    HW234891   0.618   0.086   8.031 -0.4126 -2.1152  0.2325
 7638SOL     OW34892   8.806   6.359   8.539 -0.6504 -0.1032 -0.4609
 7638SOL    HW134893   8.819   6.389   8.449 -1.2572 -1.2077 -0.9370
 7638SOL    HW234894   8.727   6.405   8.569 -0.9612 -0.4077 -0.8090
 7639SOL     OW34895   7.750   7.602  11.869  0.4649  0.8748 -0.9789
 7639SOL    HW134896   7.689   7.530  11.883  1.1387  0.3765 -0.5285
 7639SOL    HW234897   7.821   7.564  11.818  1.0914  1.0622 -0.2799
 7640SOL     OW34898   9.617  12.416   5.385 -0.5271  0.3819 -0.0832
 7640SOL    HW134899   9.619  12.432   5.479  0.1764 -2.6223  0.4985
 7640SOL    HW234900   9.702  12.378   5.364 -0.5142  1.3200 -2.0578
 7641SOL     OW34901   0.029   7.350   8.157 -0.1392 -0.6061  0.4055
 7641SOL    HW134902   0.082   7.368   8.235 -0.1964  0.9379  0.1215
 7641SOL    HW234903  -0.055   7.392   8.174 -0.5457 -1.2194 -0.0306
 7642SOL     OW34904  10.484   0.083  11.247  0.5821  0.2324 -0.3829
 7642SOL    HW134905  10.460   0.155  11.305 -0.3124  0.2164 -0.7279
 7642SOL    HW234906  10.454   0.005  11.292  1.0501  0.1066 -0.2752
 7643SOL     OW34907  10.826   3.483   2.877  0.6861 -0.4782 -0.1101
 7643SOL    HW134908  10.863   3.463   2.963  0.5676 -1.1108 -0.2029
 7643SOL    HW234909  10.872   3.562   2.849  0.3031  0.0772  0.7899
 7644SOL     OW34910   5.383   7.644   6.089 -0.1660 -0.7728 -0.1272
 7644SOL    HW134911   5.419   7.569   6.136  2.0859  0.0483 -0.4478
 7644SOL    HW234912   5.395   7.621   5.996 -2.8191 -1.5401 -0.3729
 7645SOL     OW34913   7.383   9.827   9.755  0.3220  0.1517  0.4556
 7645SOL    HW134914   7.430   9.874   9.686  2.0153 -2.9772 -0.7561
 7645SOL    HW234915   7.297   9.808   9.717  0.9381 -0.8042 -0.5269
 7646SOL     OW34916   7.969   2.270   6.604  0.1600  0.4240  0.4579
 7646SOL    HW134917   7.927   2.234   6.525  0.7001  0.3483  0.2038
 7646SOL    HW234918   8.057   2.295   6.575 -0.2472  2.1356  0.5715
 7647SOL     OW34919   9.026   8.130   4.140  0.1988  0.4630 -0.1464
 7647SOL    HW134920   9.066   8.061   4.087 -0.1585  1.1951 -1.3824
 7647SOL    HW234921   8.962   8.084   4.194 -0.5718 -0.0938 -1.5023
 7648SOL     OW34922   4.727   3.747  11.158 -0.0088 -0.0289 -0.0530
 7648SOL    HW134923   4.769   3.833  11.159  0.5235 -0.2780 -0.7587
 7648SOL    HW234924   4.682   3.743  11.074 -4.1085  1.4758  1.8120
 7649SOL     OW34925   2.728   3.087   2.925  0.3636 -0.1459 -0.3775
 7649SOL    HW134926   2.737   3.159   2.862 -1.2193  0.1528 -0.2859
 7649SOL    HW234927   2.702   3.012   2.871 -2.0053  0.3457 -0.0339
 7650SOL     OW34928   4.782   0.252   8.578  0.1160  0.0835 -0.0502
 7650SOL    HW134929   4.717   0.310   8.617 -0.2401  0.6925 -1.4579
 7650SOL    HW234930   4.766   0.167   8.618 -0.1863  0.6784  1.1265
 7651SOL     OW34931   2.292  13.838  12.694  0.1153  0.1005  0.5424
 7651SOL    HW134932   2.279  13.820  12.601  1.7168 -0.0480  0.3222
 7651SOL    HW234933   2.368  13.787  12.718 -0.0924  0.3806  1.8758
 7652SOL     OW34934  11.204   6.654   7.398 -0.1592 -0.6889  0.5468
 7652SOL    HW134935  11.170   6.725   7.344  0.9134  1.1448  2.1718
 7652SOL    HW234936  11.268   6.610   7.342 -0.9173 -0.4701 -0.5218
 7653SOL     OW34937   2.328   5.074   1.157  0.2948  0.8177 -0.3486
 7653SOL    HW134938   2.367   5.020   1.088  0.1026  1.7417 -1.1957
 7653SOL    HW234939   2.315   5.160   1.117 -1.2226  0.9662  0.3705
 7654SOL     OW34940  10.824   8.237   2.541 -0.3119 -0.6685  1.0375
 7654SOL    HW134941  10.869   8.164   2.583  3.5946 -0.4221 -2.1081
 7654SOL    HW234942  10.830   8.309   2.604  2.8662 -1.0176  1.2852
 7655SOL     OW34943   6.749   1.274   0.131  0.7480  0.9331 -0.4535
 7655SOL    HW134944   6.779   1.307   0.047 -0.7014 -1.1309 -1.9010
 7655SOL    HW234945   6.731   1.181   0.115 -1.3331  0.8797  1.6289
 7656SOL     OW34946   5.450   0.624   8.282 -0.4948  0.0737 -0.0909
 7656SOL    HW134947   5.364   0.658   8.257 -1.8475  0.1609  3.9575
 7656SOL    HW234948   5.503   0.702   8.297  0.1947  0.0272 -2.0458
 7657SOL     OW34949   0.641   8.451  12.467 -0.1647  0.2307 -0.3165
 7657SOL    HW134950   0.598   8.517  12.412 -3.8276 -0.9368  0.8224
 7657SOL    HW234951   0.635   8.370  12.416 -1.2997 -0.3593  0.7067
 7658SOL     OW34952   6.977   7.739   8.995 -0.2383  0.0401 -0.3881
 7658SOL    HW134953   6.893   7.693   8.995  1.0074 -2.4224 -0.7664
 7658SOL    HW234954   6.954   7.831   9.009 -2.9370 -0.5984  0.0177
 7659SOL     OW34955  11.907   2.463   2.895  0.1983  0.5172  0.5865
 7659SOL    HW134956  11.993   2.438   2.862  0.3595 -0.7506  1.8842
 7659SOL    HW234957  11.922   2.541   2.948  0.7809 -0.4641  1.8939
 7660SOL     OW34958   8.031   4.485   7.191  0.0569  1.1769  0.2087
 7660SOL    HW134959   7.952   4.500   7.139  0.3840  1.5167 -0.1982
 7660SOL    HW234960   8.034   4.390   7.203 -1.0855  1.2541  1.3079
 7661SOL     OW34961   0.560  12.363  10.590 -0.5809 -0.0688  0.0088
 7661SOL    HW134962   0.496  12.398  10.652  1.2580  2.1765  0.7411
 7661SOL    HW234963   0.537  12.405  10.507 -0.5645  0.0891  0.0833
 7662SOL     OW34964  10.335   6.589  10.286 -0.1376  0.3554 -0.0782
 7662SOL    HW134965  10.422   6.623  10.308 -0.4088  0.8318  0.2591
 7662SOL    HW234966  10.338   6.497  10.314  0.0851  0.5041  0.4027
 7663SOL     OW34967  12.494  13.787   6.416 -0.3534  0.2809 -0.5141
 7663SOL    HW134968  12.550  13.864   6.426 -1.0781  1.2049 -2.8360
 7663SOL    HW234969  12.498  13.743   6.501  0.5860  2.5148  0.6904
 7664SOL     OW34970  12.492  10.089   9.129 -0.0127  0.2432  0.3285
 7664SOL    HW134971  12.432  10.025   9.168 -0.1003  1.0893  1.6259
 7664SOL    HW234972  12.463  10.095   9.038 -1.6757  0.3613  0.8292
 7665SOL     OW34973  14.036   2.924   9.183 -0.1273 -0.3937  0.1186
 7665SOL    HW134974  14.113   2.941   9.130  0.0880  1.9342  1.0335
 7665SOL    HW234975  14.045   2.833   9.211  1.5074 -0.6105 -0.9851
 7666SOL     OW34976   8.633   3.553   5.262 -0.6849 -0.3922 -0.2467
 7666SOL    HW134977   8.668   3.464   5.251 -1.9861 -1.1853  1.4934
 7666SOL    HW234978   8.541   3.540   5.286 -1.3026  1.5003 -1.3601
 7667SOL     OW34979  12.328   0.410  10.607 -0.3386 -0.4100 -0.1568
 7667SOL    HW134980  12.379   0.444  10.533  0.8607  0.4535  1.0295
 7667SOL    HW234981  12.257   0.360  10.566  1.3901 -1.5712 -1.8675
 7668SOL     OW34982  11.639  12.046   0.432  0.3442  0.6107 -0.1783
 7668SOL    HW134983  11.561  12.094   0.461 -0.3264  0.4194 -1.5719
 7668SOL    HW234984  11.606  11.982   0.370  1.2976 -1.3467  1.2473
 7669SOL     OW34985   6.067  12.212   8.578 -0.6567  0.4578 -0.8638
 7669SOL    HW134986   6.125  12.137   8.591 -0.2824  0.7346 -0.9169
 7669SOL    HW234987   5.987  12.190   8.625  0.9955  1.9023  2.9981
 7670SOL     OW34988  11.227  12.821  11.959 -0.4888  0.2604  0.2363
 7670SOL    HW134989  11.152  12.798  12.013 -0.0136 -2.2968 -0.0371
 7670SOL    HW234990  11.193  12.826  11.870 -1.1721  3.9615  0.5714
 7671SOL     OW34991  12.269   9.129   2.625  0.2327  0.0944  0.0638
 7671SOL    HW134992  12.339   9.088   2.574 -0.6719 -0.1015 -1.0529
 7671SOL    HW234993  12.249   9.210   2.579  2.0668  1.9834  2.3039
 7672SOL     OW34994   1.638   4.953   2.694  0.0176 -0.2725 -0.0236
 7672SOL    HW134995   1.691   5.002   2.631 -0.2262  1.2239  0.8819
 7672SOL    HW234996   1.643   5.004   2.774 -0.7299 -1.4590  0.8143
 7673SOL     OW34997  10.740   5.717   8.095  0.5637  0.1619 -0.5278
 7673SOL    HW134998  10.662   5.705   8.151  0.2455  3.2052 -0.1605
 7673SOL    HW234999  10.813   5.720   8.157  0.7556 -0.6486 -0.7010
 7674SOL     OW35000   9.430   0.228   1.654  0.4498 -0.1701  0.3129
 7674SOL    HW135001   9.357   0.167   1.643  1.4053 -1.9377  2.8623
 7674SOL    HW235002   9.480   0.193   1.727  1.7103  3.1311  1.2159
 7675SOL     OW35003  11.424   1.966   6.587  0.0939  0.6037 -0.1653
 7675SOL    HW135004  11.392   2.048   6.626 -5.1711 -1.8331  1.5969
 7675SOL    HW235005  11.418   1.982   6.493 -1.8634  2.0264  0.1198
 7676SOL     OW35006   2.189  10.329   1.932 -0.0776 -0.1083  0.3727
 7676SOL    HW135007   2.268  10.382   1.948  0.5343 -0.9128  0.0846
 7676SOL    HW235008   2.214  10.241   1.961 -0.1381 -0.8491 -1.7163
 7677SOL     OW35009   5.473   4.162   2.056 -0.2959 -0.1372  0.1137
 7677SOL    HW135010   5.383   4.191   2.069 -0.3326  0.2370 -0.8850
 7677SOL    HW235011   5.502   4.208   1.977  0.1570 -1.6105 -0.6220
 7678SOL     OW35012  11.171  12.702   5.891 -0.2452  0.0944 -0.8105
 7678SOL    HW135013  11.135  12.623   5.931  2.6637 -1.3965 -0.8142
 7678SOL    HW235014  11.223  12.742   5.962 -0.7121  1.3537 -1.1573
 7679SOL     OW35015   7.971   1.523  10.593  0.2028 -0.1034 -0.0765
 7679SOL    HW135016   7.900   1.479  10.640 -0.3928  2.1087  1.2256
 7679SOL    HW235017   7.935   1.543  10.507  0.4274 -1.8991 -0.6358
 7680SOL     OW35018   4.389   7.496  13.232 -0.3211 -0.0708 -0.3546
 7680SOL    HW135019   4.394   7.404  13.205 -0.2985 -0.4097  0.7740
 7680SOL    HW235020   4.477   7.530  13.215 -0.5359 -0.0255 -1.5067
 7681SOL     OW35021   7.302   0.564   8.244 -0.4664 -0.1737 -0.6417
 7681SOL    HW135022   7.395   0.549   8.229 -0.5118  0.8944 -2.2339
 7681SOL    HW235023   7.298   0.609   8.328  0.3198 -1.2826  0.0314
 7682SOL     OW35024   1.325  13.063   6.796 -0.0596  0.1779 -0.4663
 7682SOL    HW135025   1.241  13.027   6.824 -0.8968  1.7376 -0.8433
 7682SOL    HW235026   1.304  13.153   6.769  1.1501 -0.3015 -3.4264
 7683SOL     OW35027   7.271  10.416  11.933 -0.5736 -0.0750 -0.1352
 7683SOL    HW135028   7.358  10.376  11.946  0.0070  0.8351 -1.0963
 7683SOL    HW235029   7.214  10.368  11.993  0.4931 -1.0281  0.1574
 7684SOL     OW35030  13.331   4.450   6.611  0.2423 -0.7019  0.2316
 7684SOL    HW135031  13.329   4.498   6.694 -0.3608 -2.8862  1.5731
 7684SOL    HW235032  13.384   4.373   6.630 -1.2722 -2.0850 -0.8859
 7685SOL     OW35033  11.943   8.238   3.516  0.2227 -0.8261 -0.3126
 7685SOL    HW135034  12.019   8.242   3.574 -0.3330  0.3897  0.3778
 7685SOL    HW235035  11.868   8.237   3.576 -0.3366 -0.6158 -0.9980
 7686SOL     OW35036   6.129  13.684   9.125 -0.2544  0.0797  0.6403
 7686SOL    HW135037   6.210  13.648   9.163 -1.8760 -1.8942  2.4367
 7686SOL    HW235038   6.073  13.701   9.200 -0.2031  5.4490 -0.1190
 7687SOL     OW35039   5.512   5.375   9.201  0.1734  0.6892 -0.0978
 7687SOL    HW135040   5.427   5.418   9.215 -1.1626 -1.4754 -0.9516
 7687SOL    HW235041   5.544   5.410   9.119 -1.6008 -0.8289 -1.5469
 7688SOL     OW35042   5.484   6.150   4.930  0.6574  0.4374 -0.3039
 7688SOL    HW135043   5.479   6.104   5.014 -0.1579  1.2304  0.1029
 7688SOL    HW235044   5.502   6.241   4.952  2.6516  0.2969 -1.1243
 7689SOL     OW35045   0.906   8.592   0.633  0.0658 -0.1950  0.7793
 7689SOL    HW135046   0.837   8.562   0.573  1.6028 -2.4479 -0.0106
 7689SOL    HW235047   0.894   8.537   0.711 -0.5653  1.1956  1.6933
 7690SOL     OW35048  13.682   7.897   7.517  0.4442 -0.0669 -0.5011
 7690SOL    HW135049  13.748   7.869   7.454  2.6427  2.8635  0.2674
 7690SOL    HW235050  13.667   7.990   7.497  1.7598  1.2436  3.5160
 7691SOL     OW35051   2.022  12.799  11.522  0.2213  0.1236 -0.5682
 7691SOL    HW135052   2.038  12.749  11.442 -0.2267 -1.3721  0.2491
 7691SOL    HW235053   2.085  12.871  11.518 -0.2292  0.4774 -2.5682
 7692SOL     OW35054   7.986  11.104   4.478 -0.0896 -1.0941 -0.5720
 7692SOL    HW135055   8.060  11.160   4.453 -0.6573 -0.1608 -0.2045
 7692SOL    HW235056   7.920  11.164   4.511  0.1154 -2.1508  1.9895
 7693SOL     OW35057   8.873  12.844   8.174  0.3967  0.5268  0.4537
 7693SOL    HW135058   8.878  12.775   8.108 -3.9439 -0.0832  0.4725
 7693SOL    HW235059   8.896  12.801   8.256  1.0323 -0.0133  0.0009
 7694SOL     OW35060   7.518   3.023   0.382 -0.6483 -0.1120  0.2246
 7694SOL    HW135061   7.606   3.049   0.410 -0.8342  0.2183  0.5110
 7694SOL    HW235062   7.514   3.048   0.290 -0.1814 -0.8117  0.0066
 7695SOL     OW35063   2.283   1.355   9.098  0.1977 -0.3000  0.4205
 7695SOL    HW135064   2.293   1.450   9.087  0.9899 -0.4415 -0.1264
 7695SOL    HW235065   2.268   1.343   9.192  0.9973  0.2924  0.6294
 7696SOL     OW35066   6.191   6.295   0.856 -0.5718 -0.1508  0.1978
 7696SOL    HW135067   6.170   6.378   0.901  0.9798 -0.6325  1.9803
 7696SOL    HW235068   6.263   6.318   0.798 -0.3555 -0.1606  0.4561
 7697SOL     OW35069   0.273   9.472  13.547  0.0505 -0.0367 -0.1797
 7697SOL    HW135070   0.325   9.467  13.466 -1.0095  0.2314 -0.9037
 7697SOL    HW235071   0.199   9.528  13.524 -0.5321 -0.3684  0.8360
 7698SOL     OW35072  12.129   1.818  13.877 -0.1052  0.5702 -0.1143
 7698SOL    HW135073  12.213   1.847  13.841 -0.2090  2.1101  0.8076
 7698SOL    HW235074  12.064   1.872  13.832 -0.4329  0.7424  0.5593
 7699SOL     OW35075   5.921  10.185   6.697 -0.6107  0.0394  0.5124
 7699SOL    HW135076   5.966  10.101   6.680 -1.9437 -0.8307  1.1074
 7699SOL    HW235077   5.984  10.236   6.747 -0.2790 -1.1593  1.3528
 7700SOL     OW35078   4.485   6.075   0.787  0.8101 -0.2677  0.5710
 7700SOL    HW135079   4.458   6.134   0.858 -0.7572  1.4666 -1.3460
 7700SOL    HW235080   4.412   6.014   0.777  0.3618  0.4009 -0.4333
 7701SOL     OW35081   7.735   0.234   9.165  0.0605  0.8083 -0.3194
 7701SOL    HW135082   7.668   0.279   9.114 -2.4464 -1.9265  0.3168
 7701SOL    HW235083   7.712   0.252   9.256 -0.1259 -0.5392 -0.0820
 7702SOL     OW35084  10.039  10.412   7.623 -0.2992 -0.0191  0.5878
 7702SOL    HW135085  10.024  10.506   7.622 -1.1186 -0.1354 -0.6740
 7702SOL    HW235086  10.120  10.401   7.672  1.1810  1.5768 -1.3395
 7703SOL     OW35087  13.697  10.189   9.647  0.1066  0.1170 -0.1031
 7703SOL    HW135088  13.728  10.099   9.633 -0.2302  0.1425 -1.0406
 7703SOL    HW235089  13.649  10.184   9.730 -0.5004 -0.7355 -0.4879
 7704SOL     OW35090  11.043   1.731  13.657 -0.0855  0.2215  0.0529
 7704SOL    HW135091  11.096   1.733  13.736 -0.2132  0.2238  0.1391
 7704SOL    HW235092  11.073   1.807  13.607 -0.3176  0.4821  0.3046
 7705SOL     OW35093  12.099  12.395  12.331  0.0353  0.4477 -0.4275
 7705SOL    HW135094  12.102  12.353  12.417  0.8533  1.8334  0.2762
 7705SOL    HW235095  12.185  12.436  12.323 -0.1492  0.5866 -1.7869
 7706SOL     OW35096   2.011   2.009   9.480  0.0856  0.0088 -0.0935
 7706SOL    HW135097   1.955   2.044   9.411 -0.6327  1.2566  1.0676
 7706SOL    HW235098   2.078   1.959   9.434 -1.3527 -0.6239 -1.5792
 7707SOL     OW35099   6.797   9.240  12.750  0.4588  0.3257  0.8228
 7707SOL    HW135100   6.775   9.319  12.799  1.4640  0.0233  1.8101
 7707SOL    HW235101   6.892   9.231  12.760  0.1969 -1.7662  1.9307
 7708SOL     OW35102   6.204   6.969  13.784 -0.3311  0.5599 -0.4411
 7708SOL    HW135103   6.230   7.039  13.724  0.9133  0.6201  0.1343
 7708SOL    HW235104   6.281   6.955  13.839 -1.6473  0.9541  1.5874
 7709SOL     OW35105   8.489  11.401  13.033 -0.0164  0.3168 -0.0508
 7709SOL    HW135106   8.438  11.322  13.052 -0.0903  0.1016 -1.0806
 7709SOL    HW235107   8.577  11.368  13.013  0.3484  0.6275  0.9435
 7710SOL     OW35108  12.686   1.670   1.338  0.0370  0.0201  0.0799
 7710SOL    HW135109  12.615   1.624   1.293 -0.4687  0.3965  0.4804
 7710SOL    HW235110  12.641   1.735   1.393  0.7246  0.9095 -0.3734
 7711SOL     OW35111   0.295  13.501  12.587 -0.3145 -0.1542  0.3978
 7711SOL    HW135112   0.280  13.553  12.667 -1.8237 -2.3575  1.6453
 7711SOL    HW235113   0.273  13.411  12.612  1.3505 -1.3114 -1.9091
 7712SOL     OW35114  12.141   0.281  10.131  0.3696 -0.2068 -0.3342
 7712SOL    HW135115  12.074   0.237  10.184 -0.1471  0.9566  0.0187
 7712SOL    HW235116  12.155   0.223  10.057  0.9471 -1.7810  0.9462
 7713SOL     OW35117   9.156   7.516   4.578 -0.1102 -0.1241 -0.0243
 7713SOL    HW135118   9.187   7.583   4.638 -0.6416 -0.8019  1.0317
 7713SOL    HW235119   9.061   7.528   4.574 -0.2235 -0.8698  0.2502
 7714SOL     OW35120   3.804   4.107  13.668 -0.0361 -0.4727 -0.0158
 7714SOL    HW135121   3.840   4.196  13.667  1.9995 -1.2416 -0.3646
 7714SOL    HW235122   3.839   4.068  13.748  0.1831 -1.3667 -0.5351
 7715SOL     OW35123   6.054   5.487   8.409 -0.2405 -0.2701  0.3115
 7715SOL    HW135124   6.034   5.550   8.339  0.8921  0.8597  0.9614
 7715SOL    HW235125   6.000   5.515   8.482  0.5800  0.2381  0.7406
 7716SOL     OW35126  13.099  11.347   8.419  0.4461 -0.6523  0.3831
 7716SOL    HW135127  13.037  11.420   8.426  0.8942 -0.2799  0.4832
 7716SOL    HW235128  13.131  11.335   8.508 -0.9847 -2.1816  0.7460
 7717SOL     OW35129   0.641   1.943   2.584  0.1460  0.5224 -0.2109
 7717SOL    HW135130   0.626   1.850   2.600  2.8791  0.3257  1.8321
 7717SOL    HW235131   0.572   1.987   2.633  0.2086 -0.4002  0.7261
 7718SOL     OW35132  10.794   7.316   9.391 -0.1024 -0.3344  0.3964
 7718SOL    HW135133  10.765   7.225   9.386 -2.8352  0.4436  0.0786
 7718SOL    HW235134  10.738   7.362   9.328  1.0452  1.5997  0.7105
 7719SOL     OW35135   4.580   5.991   2.978  0.1847  0.1329  0.3428
 7719SOL    HW135136   4.661   6.019   3.022  0.0130 -1.1910  1.5636
 7719SOL    HW235137   4.591   6.021   2.888  2.1315 -0.1948  0.4295
 7720SOL     OW35138   0.697   3.720   4.103  0.4537 -0.6878  0.3197
 7720SOL    HW135139   0.767   3.679   4.051 -0.7183 -0.3922 -1.5848
 7720SOL    HW235140   0.622   3.662   4.091 -0.0584 -0.2056  1.1259
 7721SOL     OW35141  11.010   9.465   8.199 -0.2053 -0.1372 -0.2730
 7721SOL    HW135142  11.043   9.485   8.112  0.9393  2.0626  0.5731
 7721SOL    HW235143  11.070   9.399   8.234  0.7022  0.6130 -0.3709
 7722SOL     OW35144   4.530   6.169   2.212 -0.0756 -0.3568  0.2864
 7722SOL    HW135145   4.547   6.164   2.118 -2.0095  0.9024 -0.1914
 7722SOL    HW235146   4.488   6.254   2.224 -1.6255 -1.2849  1.9657
 7723SOL     OW35147   2.776   1.308   1.142 -0.0484  0.0491  0.3010
 7723SOL    HW135148   2.790   1.259   1.062  0.2524  0.2849  0.2069
 7723SOL    HW235149   2.801   1.398   1.120  1.4100 -0.1381  1.0453
 7724SOL     OW35150   8.832   0.985   7.898 -0.2323  0.0055 -0.4169
 7724SOL    HW135151   8.899   0.990   7.966  0.0565  0.2437 -0.7189
 7724SOL    HW235152   8.781   1.066   7.908  0.4545  0.5339 -1.1512
 7725SOL     OW35153   8.145   0.269   8.250  0.3327 -0.3619  0.3310
 7725SOL    HW135154   8.165   0.183   8.215 -0.8778 -0.4903 -0.0800
 7725SOL    HW235155   8.109   0.318   8.176 -0.6404 -0.0842  0.9754
 7726SOL     OW35156   8.685   9.049  13.313 -0.3846  0.1187 -0.3923
 7726SOL    HW135157   8.590   9.054  13.326 -0.4033 -0.6618 -0.1802
 7726SOL    HW235158   8.697   9.052  13.218 -0.5984  0.5746 -0.4052
 7727SOL     OW35159   2.680   6.747   0.742  0.0565  0.2753 -0.4215
 7727SOL    HW135160   2.709   6.790   0.661 -0.2327 -0.2761 -0.8175
 7727SOL    HW235161   2.762   6.725   0.787  0.2994 -1.5262 -1.6634
 7728SOL     OW35162   8.092   4.127   6.548  0.8334  0.2560 -1.2758
 7728SOL    HW135163   8.148   4.056   6.580 -0.2728 -0.2930 -0.4708
 7728SOL    HW235164   8.024   4.083   6.497  0.3750  0.7724 -1.1284
 7729SOL     OW35165   3.095   3.710   2.185 -0.4156  0.2820 -0.1901
 7729SOL    HW135166   3.113   3.742   2.096  0.0851 -0.0696 -0.2223
 7729SOL    HW235167   3.049   3.628   2.172  1.2543 -0.7076 -0.1745
 7730SOL     OW35168   6.503   4.347   1.303 -0.1421 -0.2507  0.5425
 7730SOL    HW135169   6.451   4.405   1.247  0.3548 -0.0711  0.2576
 7730SOL    HW235170   6.501   4.389   1.389  1.8676  1.3166 -0.0900
 7731SOL     OW35171   1.827  11.509  10.295 -0.0532  0.4970  0.1040
 7731SOL    HW135172   1.740  11.471  10.286 -0.0625  0.8391 -1.4777
 7731SOL    HW235173   1.872  11.452  10.357 -0.4495 -1.3859 -1.2729
 7732SOL     OW35174   1.580   5.902   2.265 -0.0607 -0.5318  0.0564
 7732SOL    HW135175   1.638   5.826   2.263 -1.3798 -1.5699  0.1370
 7732SOL    HW235176   1.493   5.866   2.281 -1.1519  0.7329 -2.4234
 7733SOL     OW35177   6.507   8.053  12.494 -0.0358 -0.6965  0.5705
 7733SOL    HW135178   6.483   8.105  12.571  2.0353 -0.1865  0.9399
 7733SOL    HW235179   6.579   7.997  12.524  1.6260  0.3337 -1.2197
 7734SOL     OW35180   0.930   6.897   1.963  0.1177  0.3001 -0.4115
 7734SOL    HW135181   0.855   6.954   1.942 -0.0034  0.4709  0.4720
 7734SOL    HW235182   1.004   6.957   1.969  0.0828  0.2996  0.0183
 7735SOL     OW35183   7.979  12.764   9.608  0.0036  0.6317 -0.2266
 7735SOL    HW135184   7.991  12.711   9.530  0.3007 -0.5094  0.5738
 7735SOL    HW235185   7.890  12.800   9.599 -0.2782 -0.1594 -0.6986
 7736SOL     OW35186   3.473   0.587   7.846 -0.2560  0.5951  0.4991
 7736SOL    HW135187   3.439   0.603   7.934 -3.5697 -0.6914 -0.4078
 7736SOL    HW235188   3.423   0.645   7.789 -0.4388 -0.8401 -0.8753
 7737SOL     OW35189   7.526   8.492   8.802  0.1337 -0.4937 -0.3902
 7737SOL    HW135190   7.548   8.439   8.726  2.2387  0.5863 -0.5959
 7737SOL    HW235191   7.601   8.550   8.814 -1.9564  2.4211 -0.1414
 7738SOL     OW35192   1.318  13.982   4.116  0.2385  0.0708  0.1068
 7738SOL    HW135193   1.258  13.987   4.191  1.8919 -0.9195  1.5741
 7738SOL    HW235194   1.306  13.894   4.081  0.1158  0.2226 -0.2391
 7739SOL     OW35195   3.429   7.584   3.323 -0.3179  0.5905 -0.0251
 7739SOL    HW135196   3.348   7.588   3.374 -0.3288  2.1264 -0.1125
 7739SOL    HW235197   3.426   7.499   3.280 -1.8348  0.5819  0.0526
 7740SOL     OW35198   8.336  11.730   2.862  0.3366  0.3477 -0.0541
 7740SOL    HW135199   8.340  11.818   2.900 -0.2515 -0.3498  1.7108
 7740SOL    HW235200   8.267  11.686   2.911  0.0530 -0.8528 -1.4828
 7741SOL     OW35201  13.574   4.443   8.948  0.3736  0.3746  0.3073
 7741SOL    HW135202  13.532   4.357   8.959 -0.4874  0.5816 -1.0784
 7741SOL    HW235203  13.555   4.489   9.029 -1.1748  0.0561  0.1676
 7742SOL     OW35204   4.539  11.271  13.502 -0.5953 -0.0781 -0.0747
 7742SOL    HW135205   4.603  11.231  13.443 -0.5350  1.2076 -0.9184
 7742SOL    HW235206   4.592  11.309  13.572 -0.4454  0.5631 -0.5204
 7743SOL     OW35207   1.513   9.064   9.924 -0.1111  0.1695 -0.3852
 7743SOL    HW135208   1.520   9.112  10.006 -0.8153  0.6562 -0.6089
 7743SOL    HW235209   1.572   8.989   9.936 -1.3871 -0.6410  1.1792
 7744SOL     OW35210   4.529   4.623   1.003  0.7490  0.7205  0.2609
 7744SOL    HW135211   4.485   4.609   1.087  0.0410  0.8396 -0.0823
 7744SOL    HW235212   4.529   4.717   0.990 -0.2876  0.6373 -0.4587
 7745SOL     OW35213  12.427   0.766   9.743  0.0761  0.1618 -0.6013
 7745SOL    HW135214  12.418   0.707   9.817 -1.5602  0.9666 -0.0960
 7745SOL    HW235215  12.402   0.713   9.667  0.0159 -0.1806 -0.3454
 7746SOL     OW35216   4.500   2.480  13.495 -0.4399  0.2209  0.2638
 7746SOL    HW135217   4.413   2.490  13.455 -0.1426  0.5124 -0.3305
 7746SOL    HW235218   4.525   2.390  13.476 -0.3204  0.3446 -0.1711
 7747SOL     OW35219   4.499  10.021   0.676 -0.2727  0.0035 -0.0038
 7747SOL    HW135220   4.482  10.058   0.590  2.0782 -0.3992 -0.7285
 7747SOL    HW235221   4.575   9.964   0.663  0.4704  0.3124  2.4139
 7748SOL     OW35222   3.620   0.672   6.168  0.1209 -0.2232  0.1702
 7748SOL    HW135223   3.601   0.644   6.078  3.1070 -0.8631 -0.3812
 7748SOL    HW235224   3.634   0.590   6.216  0.2386  0.1528  0.7847
 7749SOL     OW35225  10.154   0.596   6.754 -0.4476 -0.0273 -0.1703
 7749SOL    HW135226  10.111   0.638   6.829 -0.7341 -1.3289  0.4229
 7749SOL    HW235227  10.247   0.618   6.765 -0.5486  0.1861  0.2905
 7750SOL     OW35228   3.593  11.878  13.643  0.3045 -0.2569  1.1886
 7750SOL    HW135229   3.602  11.809  13.576  0.6315 -0.9865  1.9672
 7750SOL    HW235230   3.502  11.873  13.671  1.1389 -2.9580  3.9024
 7751SOL     OW35231   1.180   5.416   7.430 -0.5654  0.1700  0.9548
 7751SOL    HW135232   1.115   5.390   7.495 -1.2570  0.8930  0.5749
 7751SOL    HW235233   1.136   5.404   7.346  0.0378  0.0202  0.6539
 7752SOL     OW35234   0.522   8.245  11.153  0.0705  0.1850 -0.0491
 7752SOL    HW135235   0.504   8.296  11.074  0.4143  0.5462  0.1013
 7752SOL    HW235236   0.613   8.216  11.142 -0.4247 -1.2558 -0.6024
 7753SOL     OW35237   7.836  13.582   4.380 -0.4825 -0.0329  0.2547
 7753SOL    HW135238   7.910  13.611   4.327 -1.8756  0.7674 -1.3457
 7753SOL    HW235239   7.846  13.487   4.385 -0.0863 -0.0926 -1.1425
 7754SOL     OW35240   5.042   4.370   6.409 -0.0531  0.2963  0.0052
 7754SOL    HW135241   4.974   4.323   6.457  0.0194 -1.5748 -1.6383
 7754SOL    HW235242   5.009   4.376   6.320  2.1293 -1.1725 -0.9720
 7755SOL     OW35243   4.227   3.982  10.911 -0.2603  0.3030 -0.2231
 7755SOL    HW135244   4.252   3.890  10.898  0.6682  0.5903 -0.5854
 7755SOL    HW235245   4.277   4.030  10.845 -1.5189  0.9783 -0.7188
 7756SOL     OW35246   1.263   7.031   2.389 -0.2601  0.0969  0.3557
 7756SOL    HW135247   1.240   7.080   2.468 -0.9842 -0.3208  0.4198
 7756SOL    HW235248   1.250   6.939   2.414  0.1451 -0.0735 -0.0514
 7757SOL     OW35249   5.490   0.384   6.810  0.1144  0.3832 -0.7654
 7757SOL    HW135250   5.506   0.296   6.777  0.1909 -0.3596  1.1447
 7757SOL    HW235251   5.420   0.419   6.754 -1.0620 -1.5091 -0.5421
 7758SOL     OW35252  10.410  11.844  13.674 -0.7533 -0.3483 -0.3005
 7758SOL    HW135253  10.368  11.915  13.722 -0.2692  0.5822 -1.2270
 7758SOL    HW235254  10.437  11.883  13.591 -1.5631 -1.9226 -1.3518
 7759SOL     OW35255   0.587  12.924   3.111  0.4074  0.1454  0.2102
 7759SOL    HW135256   0.501  12.961   3.095  0.1790  0.1489  1.3526
 7759SOL    HW235257   0.570  12.847   3.166  1.1850  0.6565  1.1959
 7760SOL     OW35258  13.954   6.190  12.095 -0.0989  0.1761 -0.3356
 7760SOL    HW135259  14.040   6.164  12.128  0.1945  2.4458  0.8698
 7760SOL    HW235260  13.972   6.238  12.015 -0.2191  0.7657 -0.0132
 7761SOL     OW35261   6.637  10.093  11.310  0.1693 -0.1404  0.6103
 7761SOL    HW135262   6.569  10.161  11.318  1.6775  1.7480 -1.5141
 7761SOL    HW235263   6.616  10.048  11.228  1.6274  0.7055 -0.2592
 7762SOL     OW35264   4.044  10.932   3.531 -0.2802 -0.0943  0.4912
 7762SOL    HW135265   4.001  10.870   3.472 -0.1298  0.0938  0.1836
 7762SOL    HW235266   4.023  11.018   3.496 -0.4458  0.0314  0.8889
 7763SOL     OW35267   0.675   8.884   1.136  0.4788  0.4896  0.0690
 7763SOL    HW135268   0.592   8.846   1.108  0.5568 -0.3668  0.9254
 7763SOL    HW235269   0.651   8.963   1.184  0.1128  0.0220  0.6761
 7764SOL     OW35270  13.935  11.220   4.384 -0.3904 -0.1286 -0.2186
 7764SOL    HW135271  13.966  11.137   4.348  0.7680  0.2399 -0.1357
 7764SOL    HW235272  13.979  11.287   4.331  0.8356  0.4234  1.4023
 7765SOL     OW35273   3.512  13.198   7.919 -0.2848 -0.3143 -0.2215
 7765SOL    HW135274   3.453  13.254   7.869  0.2029  0.3470 -0.0672
 7765SOL    HW235275   3.477  13.199   8.008 -0.7496 -0.9330 -0.3833
 7766SOL     OW35276   8.234   3.768   0.443  0.3014 -0.4773  0.0318
 7766SOL    HW135277   8.309   3.802   0.394 -0.2683 -2.2115 -2.2548
 7766SOL    HW235278   8.158   3.810   0.404 -0.0664 -0.2570  0.9558
 7767SOL     OW35279  11.746   2.827   6.243  0.4694 -0.8702 -0.2453
 7767SOL    HW135280  11.830   2.792   6.211 -0.3379 -1.5138 -1.8107
 7767SOL    HW235281  11.694   2.749   6.262  0.5175 -0.4743  1.6055
 7768SOL     OW35282   5.756   7.663  10.581 -0.1804  0.2593  0.1587
 7768SOL    HW135283   5.769   7.592  10.518 -0.5873 -1.2669  1.7064
 7768SOL    HW235284   5.671   7.700  10.559  0.5730  1.1346 -1.4363
 7769SOL     OW35285   4.094   9.608   5.515 -0.1190  0.5134 -0.0738
 7769SOL    HW135286   4.033   9.588   5.444  0.0001  0.5644 -0.1911
 7769SOL    HW235287   4.044   9.591   5.595  0.2314 -1.1190 -0.1536
 7770SOL     OW35288  10.903   6.898   7.470  0.2406 -0.1691  0.3124
 7770SOL    HW135289  10.973   6.946   7.425  0.4195  0.2196  0.9911
 7770SOL    HW235290  10.843   6.872   7.400  1.5146 -1.2936 -0.4092
 7771SOL     OW35291   4.648   9.263   8.335 -0.1638 -0.0913  0.0556
 7771SOL    HW135292   4.701   9.253   8.256 -1.2465 -1.5484 -0.5342
 7771SOL    HW235293   4.590   9.187   8.335 -0.4970  0.0963  2.0350
 7772SOL     OW35294  12.024  10.910   1.578 -0.0538  0.5890  0.0297
 7772SOL    HW135295  12.050  10.818   1.570  0.8026  0.8344 -0.1688
 7772SOL    HW235296  12.105  10.958   1.562 -0.3946  1.3658  0.6009
 7773SOL     OW35297   6.296   1.288  12.526 -0.3906  0.4050  0.1335
 7773SOL    HW135298   6.258   1.290  12.614  0.1891 -0.6751  0.4338
 7773SOL    HW235299   6.221   1.298  12.468 -0.8362  0.7191  0.7481
 7774SOL     OW35300  10.331  11.888   7.224 -0.3069  0.2247  0.1590
 7774SOL    HW135301  10.307  11.981   7.228  1.0424  0.5691  1.9636
 7774SOL    HW235302  10.385  11.880   7.146 -0.2537  1.0238  0.1089
 7775SOL     OW35303   2.627  13.573   4.580 -0.1525 -0.2224 -0.2361
 7775SOL    HW135304   2.559  13.599   4.518  1.0065  2.6134 -0.4783
 7775SOL    HW235305   2.595  13.602   4.665  0.0252 -0.3864 -0.1131
 7776SOL     OW35306   3.145   0.121  11.189  0.2794  0.3612 -0.1470
 7776SOL    HW135307   3.185   0.041  11.156 -0.1855  0.3089 -0.5879
 7776SOL    HW235308   3.139   0.178  11.112  0.2439  0.6710  0.0847
 7777SOL     OW35309   8.466   2.946   7.799 -0.4011 -0.2325 -0.1029
 7777SOL    HW135310   8.457   2.961   7.704 -1.5740  0.4079  0.0935
 7777SOL    HW235311   8.376   2.943   7.831 -0.0094  0.8291  1.1892
 7778SOL     OW35312   6.710   6.816   1.120  0.1797 -0.5088 -0.3910
 7778SOL    HW135313   6.694   6.728   1.156  0.3414  0.1121  1.2960
 7778SOL    HW235314   6.629   6.837   1.073  0.3626 -1.7754 -1.3369
 7779SOL     OW35315   8.554  12.170  10.387 -0.1670  0.0838 -0.4820
 7779SOL    HW135316   8.529  12.248  10.338  0.1919 -0.1087 -0.9729
 7779SOL    HW235317   8.603  12.204  10.462 -1.6633  0.4543  0.3733
 7780SOL     OW35318   2.847  13.274   0.067 -0.3572  0.0457 -0.3765
 7780SOL    HW135319   2.849  13.370   0.064  1.6960  0.0364 -0.5585
 7780SOL    HW235320   2.918  13.246   0.009 -1.6008 -1.6422 -1.1697
 7781SOL     OW35321  13.575   2.454  10.446  0.1275 -0.2263 -0.1081
 7781SOL    HW135322  13.599   2.527  10.388  0.4072  0.5207  0.9140
 7781SOL    HW235323  13.532   2.497  10.520 -1.0240 -1.2398 -0.1742
 7782SOL     OW35324  12.568   4.313   0.265 -0.0905  0.2984  0.3630
 7782SOL    HW135325  12.638   4.267   0.217  1.1679  2.3271  0.1518
 7782SOL    HW235326  12.491   4.302   0.209 -0.1494 -2.3538  0.7965
 7783SOL     OW35327   0.130   9.152   1.798 -0.0237 -0.1839  0.2012
 7783SOL    HW135328   0.090   9.222   1.747 -2.3163 -2.0343 -0.7505
 7783SOL    HW235329   0.072   9.143   1.874  0.5736 -0.6656  0.6048
 7784SOL     OW35330  10.161  12.648   7.238 -0.2866  0.2090 -0.0185
 7784SOL    HW135331  10.186  12.657   7.330 -2.3641 -1.3030  0.7780
 7784SOL    HW235332  10.244  12.639   7.191  0.7907 -0.0880  1.8613
 7785SOL     OW35333  12.929   4.755   7.923  0.2407  0.4479 -0.5072
 7785SOL    HW135334  12.914   4.738   7.830 -0.8455 -0.6760 -0.1482
 7785SOL    HW235335  12.957   4.671   7.959 -2.6729 -0.0574  0.8077
 7786SOL     OW35336   5.573   8.214   3.464  0.3159 -0.2285 -0.2582
 7786SOL    HW135337   5.579   8.166   3.546 -0.2476 -0.8069 -0.5440
 7786SOL    HW235338   5.658   8.203   3.422  0.5897  0.0378  0.2231
 7787SOL     OW35339  13.877   5.717   1.646  0.2351  0.1868 -0.2383
 7787SOL    HW135340  13.782   5.713   1.655  0.1457 -1.4688 -1.4439
 7787SOL    HW235341  13.910   5.709   1.735 -0.7490  0.3397  0.1481
 7788SOL     OW35342   9.150  11.703   4.422  0.5060 -0.4781 -0.0681
 7788SOL    HW135343   9.062  11.713   4.456  0.3286  0.1349 -0.7023
 7788SOL    HW235344   9.156  11.610   4.398 -0.8111 -0.0616 -2.2917
 7789SOL     OW35345   9.935  13.613   8.188 -0.6744 -0.6413  0.9002
 7789SOL    HW135346   9.936  13.634   8.094 -0.4086  1.9426  1.4115
 7789SOL    HW235347   9.843  13.602   8.209 -1.1160  2.5224  1.0027
 7790SOL     OW35348  11.062   1.955   5.051 -0.1716  0.1945  0.1013
 7790SOL    HW135349  11.051   1.964   5.146 -0.2105 -0.2263  0.1384
 7790SOL    HW235350  11.155   1.974   5.037 -1.0643  6.0827 -0.4883
 7791SOL     OW35351  10.259   2.110   1.675 -0.3535 -0.3329 -0.9030
 7791SOL    HW135352  10.336   2.125   1.621  0.1425  3.7043  0.5259
 7791SOL    HW235353  10.194   2.172   1.641 -1.8082 -1.2713  0.0397
 7792SOL     OW35354   3.819  14.039   4.944 -0.2261 -0.0350  0.0839
 7792SOL    HW135355   3.754  13.978   4.909 -0.2821 -0.0005  0.1280
 7792SOL    HW235356   3.901  13.991   4.940 -0.4998 -0.7056  1.5892
 7793SOL     OW35357   5.908  11.229  11.173 -0.8276 -0.6181 -0.0063
 7793SOL    HW135358   5.941  11.185  11.095  0.1763  0.3342 -0.1381
 7793SOL    HW235359   5.973  11.295  11.193 -2.5366  1.2009 -0.1427
 7794SOL     OW35360   8.506  12.403   5.245  0.4118  0.6199 -0.2094
 7794SOL    HW135361   8.486  12.313   5.269 -0.2553  0.6304 -0.7047
 7794SOL    HW235362   8.539  12.398   5.155 -0.6843  0.9815 -0.6425
 7795SOL     OW35363   1.979  11.661   5.501  0.5168 -0.6328  0.1487
 7795SOL    HW135364   2.019  11.742   5.469 -0.6818 -0.7758 -1.9157
 7795SOL    HW235365   2.049  11.616   5.547  2.0089  0.2838 -1.1103
 7796SOL     OW35366  12.661  11.267   3.651 -0.3011 -0.2385 -0.7326
 7796SOL    HW135367  12.704  11.346   3.617 -1.0090  0.8463  0.7473
 7796SOL    HW235368  12.575  11.267   3.609 -0.6648  0.3618 -0.0399
 7797SOL     OW35369  13.890  13.396   8.359  0.4741 -0.6070  0.1585
 7797SOL    HW135370  13.821  13.419   8.296  0.4281 -0.7716  0.1474
 7797SOL    HW235371  13.956  13.351   8.306  0.5706 -0.4897  0.1770
 7798SOL     OW35372   3.497   4.358   3.701 -0.0241 -0.2195  0.3797
 7798SOL    HW135373   3.469   4.394   3.785 -0.3827  1.6493 -0.4715
 7798SOL    HW235374   3.451   4.275   3.693 -0.5991 -0.0434  1.6818
 7799SOL     OW35375  13.146   4.700   3.453  0.0218 -0.2253  0.3912
 7799SOL    HW135376  13.156   4.667   3.364  1.9109 -1.1376  0.8810
 7799SOL    HW235377  13.052   4.696   3.470 -0.0900 -3.3493 -0.3596
 7800SOL     OW35378   7.572  11.139   1.278  0.8025 -0.1872  0.4724
 7800SOL    HW135379   7.616  11.056   1.292  0.3964 -0.4617  0.1663
 7800SOL    HW235380   7.574  11.151   1.183 -2.1185 -1.5502  0.1230
 7801SOL     OW35381   5.176   5.807   5.251  0.3011 -0.2821  0.1134
 7801SOL    HW135382   5.209   5.767   5.171  2.0320 -1.2676  1.2576
 7801SOL    HW235383   5.121   5.740   5.291 -0.5531  0.2040 -0.2211
 7802SOL     OW35384  12.474   9.888   0.952  0.0253 -0.6978  0.1255
 7802SOL    HW135385  12.545   9.828   0.970  0.8342  0.3844  0.6440
 7802SOL    HW235386  12.473   9.897   0.856  0.3603 -0.9715  0.0982
 7803SOL     OW35387   8.275   3.333   0.262  0.7696  0.8853  0.2472
 7803SOL    HW135388   8.330   3.411   0.274  0.4837  1.0574  0.4422
 7803SOL    HW235389   8.216   3.334   0.337 -0.6105  1.6061 -0.7931
 7804SOL     OW35390  13.779   5.990  11.610 -0.5207 -0.8298  0.4820
 7804SOL    HW135391  13.842   5.980  11.682 -0.0686 -1.2779  0.0402
 7804SOL    HW235392  13.726   5.910  11.614 -0.5663 -0.8029  0.3885
 7805SOL     OW35393   2.815   2.780  12.479 -0.5113 -0.7293  0.1306
 7805SOL    HW135394   2.749   2.720  12.514  1.0994 -2.8088 -0.2494
 7805SOL    HW235395   2.899   2.742  12.505  0.6164  0.4863 -1.5095
 7806SOL     OW35396   9.750   3.741   7.353 -0.0084 -0.5406  0.3016
 7806SOL    HW135397   9.690   3.728   7.279  0.0128 -1.0162  0.3648
 7806SOL    HW235398   9.831   3.697   7.327  0.6475  0.8786 -0.1729
 7807SOL     OW35399  11.766  13.600   4.573  0.5180  0.4416 -0.2089
 7807SOL    HW135400  11.795  13.512   4.595 -1.2058 -0.1377 -0.1271
 7807SOL    HW235401  11.687  13.587   4.521  0.4473  1.9356 -0.5205
 7808SOL     OW35402  12.368  13.807   9.891  0.0955 -0.3867 -0.2585
 7808SOL    HW135403  12.397  13.805   9.982  0.6017  0.3659 -0.3905
 7808SOL    HW235404  12.355  13.715   9.868  1.6279 -0.7013  0.0479
 7809SOL     OW35405   7.851  11.408  12.783  0.6588  0.5911 -0.0225
 7809SOL    HW135406   7.876  11.456  12.862  2.1545 -0.5146  0.2092
 7809SOL    HW235407   7.873  11.468  12.711  0.3623  1.1394  0.3309
 7810SOL     OW35408   9.350   7.634   6.155  0.3314  0.3498  0.2967
 7810SOL    HW135409   9.277   7.574   6.138  0.8219  0.0604 -0.8832
 7810SOL    HW235410   9.307   7.717   6.179 -0.4501  0.5116 -1.4468
 7811SOL     OW35411   6.729   8.334   4.306 -0.1864  0.8947 -0.7196
 7811SOL    HW135412   6.734   8.292   4.220 -1.1164  0.2842 -0.4855
 7811SOL    HW235413   6.781   8.414   4.296 -0.3435  0.8724 -1.8754
 7812SOL     OW35414   5.189   5.013   6.666 -0.1058  0.4460  0.0651
 7812SOL    HW135415   5.106   5.022   6.714  0.4047  0.3561  0.9743
 7812SOL    HW235416   5.231   5.098   6.675 -0.5630  0.8523 -1.3210
 7813SOL     OW35417  13.693   3.109  10.870 -0.1029  0.0250  0.5317
 7813SOL    HW135418  13.776   3.136  10.910 -0.0373  1.9850 -0.7895
 7813SOL    HW235419  13.629   3.113  10.940  0.8257 -1.2524  1.5078
 7814SOL     OW35420   6.226   7.635  12.003  0.4719  0.3951  0.3225
 7814SOL    HW135421   6.132   7.654  12.002  0.0869 -1.2746  1.5382
 7814SOL    HW235422   6.257   7.668  11.918 -1.5409 -0.6595 -0.9090
 7815SOL     OW35423   4.381  13.883   2.821  0.1695  0.8091 -0.2859
 7815SOL    HW135424   4.340  13.856   2.904 -0.0877  1.8903 -0.0355
 7815SOL    HW235425   4.319  13.854   2.754  1.2534 -1.7190 -0.2722
 7816SOL     OW35426   5.806   2.487  11.022  0.1099  0.2661 -0.1431
 7816SOL    HW135427   5.828   2.545  11.095  2.0750 -1.8261  1.0831
 7816SOL    HW235428   5.786   2.545  10.949  1.7628  2.4681  1.0534
 7817SOL     OW35429   4.507   9.072   3.256 -0.1892  0.3506 -0.7101
 7817SOL    HW135430   4.539   8.997   3.307 -1.6802 -1.7948 -2.7459
 7817SOL    HW235431   4.574   9.139   3.268  1.7592 -1.6588  0.3756
 7818SOL     OW35432   2.338   7.372   8.052  0.4988 -0.1052  0.5380
 7818SOL    HW135433   2.428   7.340   8.044 -0.1421 -1.9907  0.3414
 7818SOL    HW235434   2.285   7.292   8.058 -1.3143  0.9198 -0.8911
 7819SOL     OW35435  10.704   1.573   2.853  0.2822 -0.1839 -0.2371
 7819SOL    HW135436  10.711   1.478   2.842 -2.5030 -1.0631  3.4413
 7819SOL    HW235437  10.774   1.595   2.914 -0.1003 -0.1953  0.2066
 7820SOL     OW35438  12.837   6.927  12.170  0.3915 -0.1059 -0.9995
 7820SOL    HW135439  12.876   6.899  12.088  3.3490  0.3566  0.1316
 7820SOL    HW235440  12.890   7.003  12.197  0.7508 -1.3537  2.2008
 7821SOL     OW35441   7.523   7.460   2.937 -0.6868  0.1521 -0.2345
 7821SOL    HW135442   7.511   7.512   2.857 -0.8861  0.4923  0.0119
 7821SOL    HW235443   7.605   7.493   2.974 -1.4465  1.2094  0.5896
 7822SOL     OW35444   0.657   1.066   3.365  0.0435  0.3093  0.3363
 7822SOL    HW135445   0.635   1.025   3.448  0.6678 -0.1659  0.2748
 7822SOL    HW235446   0.580   1.050   3.310  1.0908 -2.8494 -0.4335
 7823SOL     OW35447   5.324   6.397   6.061  0.2523 -0.2222  0.5363
 7823SOL    HW135448   5.357   6.321   6.109  2.0182  1.4790  2.1911
 7823SOL    HW235449   5.232   6.404   6.088 -0.0478 -1.9132  0.0807
 7824SOL     OW35450   6.257  13.119   5.194  0.3399 -0.2393 -0.0031
 7824SOL    HW135451   6.297  13.034   5.177 -1.6746 -1.4583  0.9912
 7824SOL    HW235452   6.163  13.105   5.181 -0.1476  1.5644  1.1492
 7825SOL     OW35453   6.532   3.093  11.348 -0.1725  0.1068  0.1535
 7825SOL    HW135454   6.536   3.002  11.318 -2.4587  0.2106 -0.6804
 7825SOL    HW235455   6.550   3.088  11.442  1.3922 -0.9574 -0.1558
 7826SOL     OW35456   2.766   2.234   8.730  0.6540  0.2263 -0.2078
 7826SOL    HW135457   2.713   2.311   8.749  1.1135  0.7017 -0.8342
 7826SOL    HW235458   2.784   2.238   8.637 -1.3638 -1.9620 -0.8064
 7827SOL     OW35459  12.823   1.537   6.919  0.4899 -0.3036 -0.2332
 7827SOL    HW135460  12.782   1.591   6.851 -0.3792 -0.1445  0.4001
 7827SOL    HW235461  12.916   1.535   6.895  0.4344  0.9164 -0.6428
 7828SOL     OW35462  10.735   7.182   8.149 -0.1843  0.2535  0.2192
 7828SOL    HW135463  10.653   7.231   8.136 -0.0325  0.7393  0.9709
 7828SOL    HW235464  10.804   7.247   8.137  0.1704 -0.4125 -1.6033
 7829SOL     OW35465   1.510   6.982  10.988 -0.0929  0.0491 -0.4195
 7829SOL    HW135466   1.526   7.054  10.927  1.3337 -0.2871 -0.4724
 7829SOL    HW235467   1.514   6.903  10.933 -0.8012 -0.1417 -0.2139
 7830SOL     OW35468   8.536   3.818   2.146 -0.0267  0.4597  0.4623
 7830SOL    HW135469   8.605   3.780   2.091 -0.6500  0.3219 -0.2385
 7830SOL    HW235470   8.489   3.743   2.182 -0.7586  0.5378 -0.2883
 7831SOL     OW35471  13.204  10.049   6.841 -0.6672  0.2767 -0.3813
 7831SOL    HW135472  13.243   9.962   6.837 -1.3510 -0.0598  0.1494
 7831SOL    HW235473  13.279  10.109   6.841 -0.1378 -0.3657  0.9463
 7832SOL     OW35474   8.870   4.749   4.588 -0.2273 -0.1375 -0.0244
 7832SOL    HW135475   8.844   4.753   4.680  1.2102 -0.7502  0.4493
 7832SOL    HW235476   8.965   4.762   4.590 -0.3296  1.0653 -1.5428
 7833SOL     OW35477  10.240   8.833  13.817  0.1305  0.0157 -0.2729
 7833SOL    HW135478  10.212   8.742  13.821  0.2378 -0.1612 -2.3612
 7833SOL    HW235479  10.161   8.883  13.838 -0.8269 -0.5465 -2.2479
 7834SOL     OW35480   3.620  10.286   9.692  0.4964  0.0784  0.0830
 7834SOL    HW135481   3.545  10.240   9.731 -1.3165  2.1173 -0.8027
 7834SOL    HW235482   3.695  10.256   9.743 -0.8362 -2.3560  0.7712
 7835SOL     OW35483  11.718   4.249   0.959  0.6175 -0.5151 -0.1286
 7835SOL    HW135484  11.644   4.306   0.940  0.7238  0.0249  0.9810
 7835SOL    HW235485  11.793   4.295   0.921  0.4838 -0.7435 -0.6834
 7836SOL     OW35486   8.265   2.691   6.317  0.4827  0.1092  0.1471
 7836SOL    HW135487   8.211   2.612   6.317  3.5254 -2.1841  2.3341
 7836SOL    HW235488   8.306   2.692   6.231 -0.0969 -0.2728 -0.1430
 7837SOL     OW35489  13.665  12.700   6.314 -0.5133  0.5870  0.3207
 7837SOL    HW135490  13.679  12.673   6.224  0.1946  0.4094  0.4723
 7837SOL    HW235491  13.747  12.676   6.359  1.7375  5.9185 -0.2129
 7838SOL     OW35492   0.012   9.406   2.840  0.6444  0.5186  0.0269
 7838SOL    HW135493   0.041   9.380   2.753 -0.5508  0.2301 -0.3117
 7838SOL    HW235494   0.078   9.469   2.870  1.0029  0.7199 -1.1387
 7839SOL     OW35495   4.496  11.844   4.638 -0.0849 -0.1003 -0.0961
 7839SOL    HW135496   4.446  11.920   4.669  0.8423  0.2181  0.6621
 7839SOL    HW235497   4.439  11.804   4.572 -0.6687  1.1487 -0.3865
 7840SOL     OW35498   2.388  14.021   3.316 -0.3875  0.0680 -0.3490
 7840SOL    HW135499   2.361  13.937   3.279  0.8971 -1.0817  1.1597
 7840SOL    HW235500   2.343  14.087   3.263  0.0214 -1.4914 -2.7647
 7841SOL     OW35501   6.323  11.209  11.243  0.3703  0.3152  0.5640
 7841SOL    HW135502   6.301  11.132  11.190 -1.0830  1.4589 -0.6076
 7841SOL    HW235503   6.299  11.184  11.332 -1.1321 -0.2505  0.0417
 7842SOL     OW35504   0.469  10.913   4.051 -0.2681 -0.5723 -0.3748
 7842SOL    HW135505   0.391  10.947   4.094 -1.3317 -0.5590 -2.2119
 7842SOL    HW235506   0.514  10.991   4.018 -0.9605 -0.7112 -1.7064
 7843SOL     OW35507   0.022   5.066   8.642  0.3316 -0.3662  0.2761
 7843SOL    HW135508  -0.018   5.095   8.725 -0.0475 -0.5662  0.1665
 7843SOL    HW235509  -0.047   5.015   8.599  0.7616 -0.8477  0.1532
 7844SOL     OW35510   2.000   0.491   8.566 -0.1149 -0.0225  0.1403
 7844SOL    HW135511   1.961   0.570   8.603 -1.9291 -0.1688 -1.3174
 7844SOL    HW235512   2.044   0.521   8.487 -1.3969 -0.5112 -0.7965
 7845SOL     OW35513   5.090  12.190   9.310  0.2193  0.7069  0.1676
 7845SOL    HW135514   5.079  12.285   9.304 -0.9087  0.5686 -0.3400
 7845SOL    HW235515   5.166  12.171   9.256  0.1765  1.2795 -0.1018
 7846SOL     OW35516   9.004   2.516   7.808  0.0494 -0.4204  0.2663
 7846SOL    HW135517   8.912   2.491   7.796 -0.3414  1.1829 -0.3993
 7846SOL    HW235518   9.006   2.561   7.892  0.1979 -0.3574  0.2291
 7847SOL     OW35519   8.692   9.008  11.350  0.3016 -0.1295 -0.3031
 7847SOL    HW135520   8.658   8.947  11.285 -1.9791  1.8219 -1.0947
 7847SOL    HW235521   8.746   9.068  11.300 -0.1117  0.3967 -0.1263
 7848SOL     OW35522  12.555  11.362   0.829 -0.7933  0.4715  0.1222
 7848SOL    HW135523  12.533  11.454   0.844  0.1010  0.4092  2.0684
 7848SOL    HW235524  12.534  11.318   0.911  0.2033 -0.7824 -0.2565
 7849SOL     OW35525   3.067   5.340  12.459  0.2110  0.4590 -0.1022
 7849SOL    HW135526   3.118   5.279  12.512  2.7591  0.9947 -1.7648
 7849SOL    HW235527   3.096   5.427  12.487  0.5514  0.7733 -1.3617
 7850SOL     OW35528   9.324   2.593  12.803  0.1868 -0.6210 -0.0465
 7850SOL    HW135529   9.252   2.631  12.753 -0.0161 -1.5039 -0.4609
 7850SOL    HW235530   9.402   2.639  12.773  0.1451 -1.4619 -1.5857
 7851SOL     OW35531  12.625   2.013   2.716 -0.1567 -0.1846 -0.3852
 7851SOL    HW135532  12.659   1.982   2.633  0.6947 -0.2501 -0.0251
 7851SOL    HW235533  12.651   1.946   2.779 -3.0786 -1.5299 -0.4226
 7852SOL     OW35534   2.979  13.562   4.095 -0.0110 -0.1259  0.0219
 7852SOL    HW135535   2.970  13.642   4.147 -1.6369 -1.5351  2.0808
 7852SOL    HW235536   3.012  13.592   4.010  1.0489  2.5083  1.2467
 7853SOL     OW35537  11.766  12.569   5.900  0.5434 -0.2366 -0.0645
 7853SOL    HW135538  11.741  12.488   5.855  0.5564  0.6960 -1.8426
 7853SOL    HW235539  11.811  12.621   5.833  0.6928  1.1667  1.0798
 7854SOL     OW35540   8.929   0.089   2.957  0.0631  0.0916 -0.4661
 7854SOL    HW135541   8.891   0.136   2.883 -0.9860 -0.8062 -0.5180
 7854SOL    HW235542   8.914   0.147   3.032 -1.4770 -0.2210 -0.4815
 7855SOL     OW35543   2.106  10.693  11.787 -0.7989  1.0987  0.2081
 7855SOL    HW135544   2.132  10.735  11.869 -0.3613  1.1253  0.0618
 7855SOL    HW235545   2.170  10.725  11.722 -0.5743  0.3663  0.0545
 7856SOL     OW35546   7.226   9.742  10.641  0.3008 -0.1424 -0.0803
 7856SOL    HW135547   7.134   9.760  10.624  0.1453 -2.0595 -1.6222
 7856SOL    HW235548   7.257   9.819  10.689 -1.8553  0.9566 -0.3206
 7857SOL     OW35549   7.443   6.211   8.197  0.2461  0.3719 -0.2947
 7857SOL    HW135550   7.518   6.223   8.255  0.7506 -0.0150 -0.8466
 7857SOL    HW235551   7.384   6.154   8.246 -0.0561  1.3073  0.4623
 7858SOL     OW35552   6.857   9.753   9.848  0.3527 -0.0167  0.0232
 7858SOL    HW135553   6.932   9.806   9.822 -0.0091  0.6776  0.3669
 7858SOL    HW235554   6.789   9.817   9.871 -0.2640 -0.6304 -0.0507
 7859SOL     OW35555   0.174   0.923   3.368 -0.1779 -0.5685  0.1046
 7859SOL    HW135556   0.124   0.895   3.291  0.2187 -2.1533  0.3918
 7859SOL    HW235557   0.109   0.928   3.438 -0.3518 -0.1549 -0.0785
 7860SOL     OW35558   8.022   2.279   2.241 -0.0557  0.6416 -0.3725
 7860SOL    HW135559   8.097   2.235   2.283 -0.5314 -0.2978 -0.4753
 7860SOL    HW235560   8.051   2.369   2.229  0.9550  0.3658 -0.1424
 7861SOL     OW35561  11.297   6.806   5.040 -0.1172 -0.5373  0.2596
 7861SOL    HW135562  11.215   6.848   5.014 -0.1734 -0.9853 -0.3013
 7861SOL    HW235563  11.357   6.821   4.967  0.3141 -0.2011  0.6701
 7862SOL     OW35564   4.893   8.134   8.075  0.2020 -0.0917 -0.5812
 7862SOL    HW135565   4.834   8.063   8.050 -0.1351  0.2827 -0.8742
 7862SOL    HW235566   4.865   8.160   8.162 -0.1604  0.1779 -0.7761
 7863SOL     OW35567   4.339   3.206  11.281 -0.3292 -0.0223  0.2221
 7863SOL    HW135568   4.416   3.257  11.257 -0.5117 -0.8833 -2.5370
 7863SOL    HW235569   4.372   3.117  11.295 -0.5338  0.0594  1.3190
 7864SOL     OW35570   5.311   0.050   2.644  0.0847  0.2188 -0.0864
 7864SOL    HW135571   5.348   0.128   2.601 -0.8801  1.0202  0.5068
 7864SOL    HW235572   5.259   0.084   2.716  1.5043 -1.0877  1.6621
 7865SOL     OW35573   9.457   7.436   4.325  0.5255  0.1052 -0.5031
 7865SOL    HW135574   9.510   7.483   4.388  3.3669 -2.0710 -1.0455
 7865SOL    HW235575   9.432   7.355   4.370  1.0736 -0.6748 -1.5686
 7866SOL     OW35576   3.588   8.561  11.006  0.0504 -0.4245 -0.4855
 7866SOL    HW135577   3.602   8.468  10.989 -0.6673 -0.3402 -1.7181
 7866SOL    HW235578   3.657   8.605  10.957  0.3575 -0.3049  0.0552
 7867SOL     OW35579  13.274  12.455   7.488  0.6471 -0.0759  0.2248
 7867SOL    HW135580  13.271  12.445   7.583 -0.5145 -0.5234  0.1579
 7867SOL    HW235581  13.236  12.542   7.472  1.5166  0.3066  0.2064
 7868SOL     OW35582   1.828   2.786   3.230 -0.0813  0.1963  0.1171
 7868SOL    HW135583   1.847   2.787   3.136  1.1872 -1.6694  0.2939
 7868SOL    HW235584   1.806   2.877   3.252  1.6940  1.0959 -1.5724
 7869SOL     OW35585   0.093   4.669  12.362  0.0596 -0.2381 -0.2656
 7869SOL    HW135586   0.040   4.749  12.354  1.4648  0.9482  1.6259
 7869SOL    HW235587   0.028   4.599  12.375 -1.1483  0.7699 -0.6364
 7870SOL     OW35588  12.159   7.058   7.755  0.5310  0.2923 -0.5125
 7870SOL    HW135589  12.169   6.969   7.722  2.3579  0.8098 -1.5364
 7870SOL    HW235590  12.218   7.110   7.700 -0.1139  2.0514  0.3891
 7871SOL     OW35591  10.166  10.900  10.006 -0.5735 -0.0769  0.2594
 7871SOL    HW135592  10.205  10.981  10.036  0.8209 -0.5584 -0.1630
 7871SOL    HW235593  10.164  10.908   9.910 -2.6050  0.3973  0.2917
 7872SOL     OW35594   5.377   0.163  13.562  0.1191 -0.0935 -0.0799
 7872SOL    HW135595   5.434   0.101  13.517 -0.8929 -1.3086  0.2547
 7872SOL    HW235596   5.437   0.214  13.617  1.0795 -0.1399 -1.0380
 7873SOL     OW35597   2.056  11.076   5.450 -0.5336 -0.6144  0.5254
 7873SOL    HW135598   2.006  11.062   5.370  1.3452 -1.4271 -0.5519
 7873SOL    HW235599   2.060  10.990   5.492 -1.9214 -0.1057  1.8058
 7874SOL     OW35600   8.786  12.067   8.788 -0.6294  0.4179 -0.1902
 7874SOL    HW135601   8.863  12.053   8.842  1.0437 -0.3040 -2.5861
 7874SOL    HW235602   8.812  12.133   8.724 -1.7006 -0.3510 -1.4987
 7875SOL     OW35603  11.836   0.384   5.291  0.2302  0.3766  0.4191
 7875SOL    HW135604  11.756   0.340   5.263  0.3755  0.5385 -0.2769
 7875SOL    HW235605  11.899   0.314   5.307  0.5200  0.3087 -0.8672
 7876SOL     OW35606   4.659  12.981   2.611 -0.0882 -0.3309 -0.2688
 7876SOL    HW135607   4.605  13.058   2.627 -0.6677 -1.0442  1.5560
 7876SOL    HW235608   4.738  12.996   2.663 -0.3401 -1.0775  0.3520
 7877SOL     OW35609  11.878  11.680  10.547  0.4061 -0.2774 -0.3635
 7877SOL    HW135610  11.893  11.627  10.626 -0.5066 -0.1171 -0.0690
 7877SOL    HW235611  11.945  11.749  10.551 -0.0741  0.1518  0.6638
 7878SOL     OW35612   3.064   4.157   3.452  0.0604 -0.3206  0.2395
 7878SOL    HW135613   3.126   4.180   3.383  0.2033 -2.1816 -0.3136
 7878SOL    HW235614   3.037   4.068   3.431 -0.3982 -0.6974  2.2373
 7879SOL     OW35615   1.151   5.631   1.561 -0.0195 -0.3172  0.4221
 7879SOL    HW135616   1.181   5.554   1.512  3.1764  0.9344  0.1407
 7879SOL    HW235617   1.146   5.602   1.652  0.7434 -1.0129  0.2546
 7880SOL     OW35618   5.738  11.748  10.574 -0.0630 -0.1587  0.1009
 7880SOL    HW135619   5.676  11.676  10.569 -1.0004  0.4813  1.6949
 7880SOL    HW235620   5.743  11.781  10.484  0.4175 -2.1853 -0.6681
 7881SOL     OW35621  12.522   9.326   4.159 -0.0627 -0.2899 -0.1122
 7881SOL    HW135622  12.498   9.385   4.087  0.4336 -0.4455 -0.4069
 7881SOL    HW235623  12.617   9.317   4.152 -0.0066 -0.3013  0.5702
 7882SOL     OW35624  10.372   8.757   3.171  0.0865 -0.4468  0.5742
 7882SOL    HW135625  10.399   8.665   3.171 -0.5063 -0.6337  0.2342
 7882SOL    HW235626  10.452   8.806   3.155  0.5418 -0.8565  1.5375
 7883SOL     OW35627   4.612   5.577   4.377 -0.6814 -0.4793 -0.3480
 7883SOL    HW135628   4.596   5.533   4.461 -1.1219  0.5861  0.1365
 7883SOL    HW235629   4.663   5.513   4.327 -0.3113 -1.0942  0.7649
 7884SOL     OW35630   7.704   5.383   0.360 -0.4606 -0.4119 -0.6998
 7884SOL    HW135631   7.788   5.427   0.376 -0.9694  0.2707  0.1665
 7884SOL    HW235632   7.644   5.453   0.338 -1.2005 -0.7040  0.3446
 7885SOL     OW35633  12.998  11.884  13.511  0.1451 -0.1906 -0.6809
 7885SOL    HW135634  12.977  11.917  13.424  0.6057  4.2952  0.6497
 7885SOL    HW235635  12.914  11.882  13.557  0.2515  0.0924 -0.4717
 7886SOL     OW35636   4.322  13.341  13.343 -0.3714  0.3256  0.4215
 7886SOL    HW135637   4.260  13.403  13.303 -0.8144 -0.1436  0.3722
 7886SOL    HW235638   4.268  13.289  13.402  0.0046 -0.0142  0.4638
 7887SOL     OW35639  13.323   8.067   2.393 -0.4044  0.0360 -0.0908
 7887SOL    HW135640  13.376   8.144   2.373 -2.1957  1.3892  0.1359
 7887SOL    HW235641  13.375   7.993   2.361  1.3726  1.3108 -0.3021
 7888SOL     OW35642   8.190   0.693   8.398 -0.0811 -0.0297  0.6260
 7888SOL    HW135643   8.216   0.760   8.335 -0.7139 -1.5791 -1.3478
 7888SOL    HW235644   8.102   0.667   8.372 -0.3087 -0.8351  2.0726
 7889SOL     OW35645   9.572   2.415   1.122 -0.9431  0.1094 -0.1353
 7889SOL    HW135646   9.534   2.456   1.199 -2.4078 -0.8595 -0.3033
 7889SOL    HW235647   9.582   2.323   1.146 -0.3359  0.0139 -0.7218
 7890SOL     OW35648   2.899   9.967  10.030  0.3029  0.5260  0.2087
 7890SOL    HW135649   2.951  10.021  10.090  1.3830 -1.0086  0.7064
 7890SOL    HW235650   2.964   9.918   9.979 -0.6279 -0.9291  0.3620
 7891SOL     OW35651  11.559  13.283   3.968 -0.0781 -0.2493  0.1073
 7891SOL    HW135652  11.485  13.251   3.917 -0.2010  0.6943 -0.3293
 7891SOL    HW235653  11.636  13.253   3.920 -0.1926  0.7957 -0.7644
 7892SOL     OW35654   9.029   3.541   6.177  0.5007 -0.7025 -0.0527
 7892SOL    HW135655   9.094   3.511   6.114 -0.3006  0.5589 -1.5416
 7892SOL    HW235656   8.946   3.503   6.147  0.1158 -0.1210  0.2413
 7893SOL     OW35657   5.418   0.526   5.832 -0.0526  0.1249  0.0121
 7893SOL    HW135658   5.365   0.601   5.859  1.9719  3.1922 -3.5230
 7893SOL    HW235659   5.376   0.493   5.752  0.8076 -0.4246 -0.2361
 7894SOL     OW35660   8.958   3.020   1.695  0.2453  0.0319 -0.3275
 7894SOL    HW135661   8.954   2.936   1.742 -0.3328 -0.2603 -0.8945
 7894SOL    HW235662   8.879   3.066   1.721 -0.3705 -0.3633 -1.4270
 7895SOL     OW35663   2.726  11.681   4.658 -0.1237 -0.0049  0.2738
 7895SOL    HW135664   2.798  11.740   4.633  0.0758 -1.2222 -2.4251
 7895SOL    HW235665   2.658  11.698   4.593 -1.2739 -0.6654  1.2709
 7896SOL     OW35666   7.532  11.083  10.906 -0.0143 -0.8470 -0.3608
 7896SOL    HW135667   7.610  11.117  10.950  0.7657 -1.9163 -0.8703
 7896SOL    HW235668   7.478  11.160  10.889  0.5240 -0.2007  0.7844
 7897SOL     OW35669   8.784   7.055   0.597  0.1988  0.3934  0.4541
 7897SOL    HW135670   8.784   7.148   0.572 -1.1206  0.2148 -0.2970
 7897SOL    HW235671   8.775   7.008   0.514 -0.7698 -0.3516  0.9678
 7898SOL     OW35672  13.139   4.763   6.854  0.1643 -0.2584  0.7540
 7898SOL    HW135673  13.118   4.783   6.945  2.2303 -0.6447  1.3612
 7898SOL    HW235674  13.076   4.695   6.830 -1.6434  1.1608  1.2297
 7899SOL     OW35675  11.861  12.968   8.064  0.2004 -0.5429  0.5218
 7899SOL    HW135676  11.789  13.017   8.103 -0.5400  0.9618 -2.4593
 7899SOL    HW235677  11.926  13.035   8.043  0.8243 -1.3763 -0.2711
 7900SOL     OW35678   0.892   9.067   6.913  0.3053 -0.1266  0.3620
 7900SOL    HW135679   0.942   9.050   6.993  1.2857 -1.7567 -0.5702
 7900SOL    HW235680   0.887   8.983   6.868 -0.5281  0.6810 -1.1513
 7901SOL     OW35681  12.848   2.978  13.278  0.1443  0.1798 -0.0048
 7901SOL    HW135682  12.788   3.047  13.250 -0.7134  0.3504  2.1097
 7901SOL    HW235683  12.891   3.013  13.356  0.3552 -1.3222  0.5834
 7902SOL     OW35684   0.301   0.311   0.485 -0.0837  0.5765 -0.3013
 7902SOL    HW135685   0.298   0.220   0.456 -0.3103  0.3749  0.3298
 7902SOL    HW235686   0.393   0.328   0.502  0.2198  1.0552 -2.1820
 7903SOL     OW35687  11.881   7.551  12.130  0.3738 -0.1982  0.1826
 7903SOL    HW135688  11.844   7.589  12.050  1.3699  0.7261  0.1414
 7903SOL    HW235689  11.877   7.622  12.194  0.9217 -0.4707  0.5246
 7904SOL     OW35690  12.033   4.766   2.686  0.7766  0.4013  0.1242
 7904SOL    HW135691  12.091   4.783   2.760  1.6413 -0.8614 -0.2356
 7904SOL    HW235692  12.089   4.778   2.608  0.2470  0.3697 -0.2660
 7905SOL     OW35693  13.351   4.483  13.775  0.1684  0.4088 -0.1759
 7905SOL    HW135694  13.390   4.416  13.831 -0.0741  0.5704  0.1871
 7905SOL    HW235695  13.264   4.498  13.812 -0.1562  0.2250 -0.8314
 7906SOL     OW35696  11.911  11.747   2.347  0.3223  0.3843  0.4158
 7906SOL    HW135697  11.926  11.673   2.288  1.5087  1.5310 -0.8015
 7906SOL    HW235698  11.977  11.737   2.415  1.2111  0.8828 -0.3487
 7907SOL     OW35699   9.683   7.350  13.134  0.5365 -0.1300  0.3530
 7907SOL    HW135700   9.753   7.324  13.073 -1.6665 -0.7980 -2.0630
 7907SOL    HW235701   9.620   7.398  13.080 -0.5729  1.1130  2.5959
 7908SOL     OW35702  13.541  11.370  11.261  0.6126 -0.0678  0.2464
 7908SOL    HW135703  13.570  11.361  11.171 -0.0165  0.9451 -0.0721
 7908SOL    HW235704  13.589  11.447  11.294 -0.2965  0.4918  0.2891
 7909SOL     OW35705  13.079   1.813  12.785  0.0622  0.5523 -0.4399
 7909SOL    HW135706  13.134   1.738  12.766 -0.5848 -0.5557  1.7585
 7909SOL    HW235707  13.012   1.813  12.716  0.8956 -0.0017 -1.2655
 7910SOL     OW35708  11.375   8.084   1.080  0.2809 -0.1519 -0.0300
 7910SOL    HW135709  11.332   8.163   1.113  0.2444 -0.4998  0.7995
 7910SOL    HW235710  11.305   8.033   1.040  0.0919 -0.2729  0.4451
 7911SOL     OW35711   5.977   8.299   8.692  0.2074 -0.2012 -0.6518
 7911SOL    HW135712   5.902   8.301   8.751  0.2971 -1.1864 -0.4987
 7911SOL    HW235713   6.026   8.378   8.714  0.0895 -0.4051  0.3926
 7912SOL     OW35714  13.194   1.034  10.138  0.4158  0.1780 -0.0898
 7912SOL    HW135715  13.124   0.989  10.186  0.4876 -0.1674 -0.3081
 7912SOL    HW235716  13.272   0.981  10.154  0.9363  1.3065  1.2795
 7913SOL     OW35717   5.808   5.623   2.839 -0.0552  0.3670 -0.5136
 7913SOL    HW135718   5.885   5.590   2.884  0.3244  0.0534 -1.3714
 7913SOL    HW235719   5.782   5.701   2.889  0.4310  0.1079  0.1516
 7914SOL     OW35720  13.727  10.861   4.257 -0.4225  0.2296 -0.1766
 7914SOL    HW135721  13.651  10.829   4.208 -0.7517 -0.1211  0.5460
 7914SOL    HW235722  13.767  10.926   4.200 -1.2118  0.3450 -0.6062
 7915SOL     OW35723   1.812  11.441   4.121 -0.3001  0.5098  0.4698
 7915SOL    HW135724   1.757  11.364   4.106  0.5115  0.0106 -0.0381
 7915SOL    HW235725   1.871  11.415   4.192  0.8547  0.1512 -0.5740
 7916SOL     OW35726   8.739   3.902   0.311  0.7623 -0.1080  0.2518
 7916SOL    HW135727   8.801   3.869   0.246 -0.1822 -1.7550  0.1160
 7916SOL    HW235728   8.765   3.859   0.393  0.3261 -0.1601  0.3700
 7917SOL     OW35729   4.833   9.987   6.930  0.1511 -0.4263  0.3937
 7917SOL    HW135730   4.849  10.027   7.016  1.6439  1.7267 -0.7939
 7917SOL    HW235731   4.878  10.045   6.868  0.0467 -2.5115 -1.7524
 7918SOL     OW35732   7.612   8.846   5.220  0.4050  0.0431 -0.1172
 7918SOL    HW135733   7.654   8.764   5.246 -0.9250 -0.3082  1.0589
 7918SOL    HW235734   7.578   8.883   5.301 -0.3945  0.9471 -0.8365
 7919SOL     OW35735   5.598   0.918   6.738 -0.0810 -0.7748  0.2904
 7919SOL    HW135736   5.506   0.933   6.756 -0.2298  0.5026 -1.2966
 7919SOL    HW235737   5.627   0.857   6.806 -1.8525 -0.4675  1.3635
 7920SOL     OW35738   4.802   7.158   9.180  0.2718 -0.0208  0.6861
 7920SOL    HW135739   4.714   7.143   9.216 -0.4390  1.9609 -0.0798
 7920SOL    HW235740   4.819   7.080   9.126 -2.0179  0.4985 -0.9631
 7921SOL     OW35741   6.505   2.261   3.899 -0.7221 -0.2145  0.1530
 7921SOL    HW135742   6.480   2.347   3.932 -0.0028  0.5418 -1.1719
 7921SOL    HW235743   6.548   2.218   3.973  0.6566  1.3345  0.3128
 7922SOL     OW35744   9.512  12.455   9.343  0.1908  0.3775  0.1208
 7922SOL    HW135745   9.454  12.515   9.390  1.1182  2.0873 -0.7932
 7922SOL    HW235746   9.571  12.422   9.410 -0.3354  0.4883  0.6513
 7923SOL     OW35747   0.568   3.761   6.905 -0.0241  0.3097  0.2132
 7923SOL    HW135748   0.621   3.726   6.977 -0.6363 -0.6869  0.1875
 7923SOL    HW235749   0.606   3.847   6.888  0.7070  0.1850  1.1215
 7924SOL     OW35750  10.068  10.700   0.463 -0.2035 -0.6476  0.3809
 7924SOL    HW135751  10.016  10.693   0.383 -0.5105 -0.2466  0.5376
 7924SOL    HW235752  10.104  10.789   0.460  1.1896 -1.2030 -0.1466
 7925SOL     OW35753  12.653  12.328   4.413 -0.4577  0.6421 -0.6145
 7925SOL    HW135754  12.582  12.339   4.349  0.0164 -2.7021 -1.9141
 7925SOL    HW235755  12.728  12.373   4.373 -1.2939  2.5914 -0.1075
 7926SOL     OW35756   4.718   8.402   9.086 -0.0453 -0.3898  0.3165
 7926SOL    HW135757   4.660   8.335   9.123 -1.7881  0.4337 -0.8224
 7926SOL    HW235758   4.752   8.363   9.005  0.5364 -0.6238  0.6606
 7927SOL     OW35759   5.528   0.573  11.049  0.1528 -0.6549  0.3872
 7927SOL    HW135760   5.458   0.523  11.090 -1.1325  1.1679  0.5434
 7927SOL    HW235761   5.483   0.641  10.999  1.8086  0.4073  0.2629
 7928SOL     OW35762  13.032   5.044   0.917 -0.7532 -0.4575 -0.1453
 7928SOL    HW135763  12.953   5.096   0.932  0.1328  0.3226  2.4434
 7928SOL    HW235764  13.089   5.066   0.991  1.5276 -1.6854 -1.4205
 7929SOL     OW35765   4.338   2.418   1.350 -0.6197  0.2657  0.3057
 7929SOL    HW135766   4.244   2.417   1.369 -0.3298  1.6108  1.9732
 7929SOL    HW235767   4.380   2.395   1.433  0.5427 -1.4146 -0.6710
 7930SOL     OW35768   1.227   3.501  13.797 -0.7534 -0.2991  0.1609
 7930SOL    HW135769   1.188   3.541  13.875 -0.5131 -0.4252  0.3452
 7930SOL    HW235770   1.305   3.553  13.779 -0.8840 -0.1818 -0.0818
 7931SOL     OW35771   9.401   6.199   1.129  0.2623 -0.0328 -0.0559
 7931SOL    HW135772   9.410   6.191   1.034  0.2775 -2.1108  0.0647
 7931SOL    HW235773   9.385   6.109   1.158  0.7054  0.5114  1.9607
 7932SOL     OW35774  13.411   9.794  10.163  0.2758  0.0246  0.6995
 7932SOL    HW135775  13.449   9.706  10.164  0.9532  0.2956  0.0866
 7932SOL    HW235776  13.319   9.781  10.142  0.3001 -0.5580  0.9394
 7933SOL     OW35777   7.392   3.721   7.991 -0.6253  0.0318  0.4208
 7933SOL    HW135778   7.396   3.702   7.898  2.4021  0.3409  0.3808
 7933SOL    HW235779   7.376   3.815   7.997 -1.9698 -0.1763  0.2692
 7934SOL     OW35780   8.084  10.101   5.682  0.8165  0.2074  0.1758
 7934SOL    HW135781   8.043  10.056   5.756  2.4894 -0.3805  0.7836
 7934SOL    HW235782   8.010  10.127   5.627 -0.4739  0.4639  1.9123
 7935SOL     OW35783   5.330  11.884   0.672  0.6471 -0.6549  0.3798
 7935SOL    HW135784   5.388  11.823   0.717  0.6358 -0.2870  0.9030
 7935SOL    HW235785   5.370  11.896   0.586  1.5093 -0.1731  0.8382
 7936SOL     OW35786   3.460   8.374   3.532  0.3792  0.0940 -0.2713
 7936SOL    HW135787   3.389   8.403   3.475  0.7513  1.1834 -0.2195
 7936SOL    HW235788   3.431   8.290   3.567 -1.5893  1.1693  0.9065
 7937SOL     OW35789   3.952  11.629   4.580 -0.2666  0.3573 -0.6330
 7937SOL    HW135790   3.881  11.691   4.597  0.3696  1.3364 -1.3789
 7937SOL    HW235791   3.924  11.582   4.501 -0.4642  0.1290 -0.4302
 7938SOL     OW35792   3.060   6.634   5.537 -0.4384  0.3039  0.2819
 7938SOL    HW135793   2.973   6.637   5.576 -0.2541  0.7457  0.6702
 7938SOL    HW235794   3.075   6.541   5.519 -1.7263  0.3982 -1.4903
 7939SOL     OW35795  13.929  13.045   2.261 -0.2905 -0.7776  0.1962
 7939SOL    HW135796  13.970  13.013   2.180 -0.2060  0.9455 -0.4926
 7939SOL    HW235797  13.980  13.121   2.285 -0.7154 -0.8947  1.5437
 7940SOL     OW35798  11.314  12.638   8.848  0.0319 -0.0534  0.0586
 7940SOL    HW135799  11.381  12.663   8.784 -0.1951 -1.7024 -0.8964
 7940SOL    HW235800  11.250  12.588   8.797 -1.4687  0.7025  1.1268
 7941SOL     OW35801   7.101  13.633  12.892 -0.4646  0.0857 -0.2854
 7941SOL    HW135802   7.144  13.584  12.961 -0.4024  0.7652  0.1665
 7941SOL    HW235803   7.162  13.630  12.818 -1.4634 -2.5316 -1.1240
 7942SOL     OW35804   5.199   3.876   2.756 -0.0468 -0.1697  0.3399
 7942SOL    HW135805   5.255   3.810   2.717 -1.1015 -0.8564 -0.0521
 7942SOL    HW235806   5.176   3.840   2.842  1.0480  0.6499  1.0009
 7943SOL     OW35807   5.794   1.476   3.318 -0.6423 -0.3990  0.0428
 7943SOL    HW135808   5.718   1.420   3.335  0.7251 -1.8492  1.8977
 7943SOL    HW235809   5.840   1.432   3.246 -1.2613  0.1834 -0.7183
 7944SOL     OW35810   9.383   9.092   5.781  0.3724  0.6830  0.3693
 7944SOL    HW135811   9.368   9.177   5.741  0.5966  0.4487 -0.2297
 7944SOL    HW235812   9.315   9.083   5.847  1.2689  1.9810  1.5066
 7945SOL     OW35813   4.894  13.094   8.270  0.0529 -0.4532  0.7591
 7945SOL    HW135814   4.824  13.069   8.210  0.9651 -1.8801  0.2560
 7945SOL    HW235815   4.940  13.164   8.225 -0.0989 -0.5771  0.4094
 7946SOL     OW35816   9.453   9.296  12.205  0.0687 -0.1901  0.5460
 7946SOL    HW135817   9.401   9.355  12.150  0.1286  0.3281  1.0331
 7946SOL    HW235818   9.482   9.227  12.146  0.6705  0.6943 -0.2215
 7947SOL     OW35819  12.298   0.085   3.286  0.0637  0.4993 -0.0220
 7947SOL    HW135820  12.363   0.015   3.275 -1.3893 -0.7809 -0.9170
 7947SOL    HW235821  12.252   0.088   3.202 -1.8886  0.4421  0.9948
 7948SOL     OW35822  10.753  12.469   0.083 -0.2081  0.0225  0.7286
 7948SOL    HW135823  10.693  12.543   0.073 -0.0455 -0.0492 -1.0635
 7948SOL    HW235824  10.742  12.442   0.175 -1.3803  1.2973  1.0033
 7949SOL     OW35825   1.083   5.430   6.356  0.1711  0.5844 -0.3769
 7949SOL    HW135826   1.174   5.448   6.334  0.1432 -0.6732 -1.6655
 7949SOL    HW235827   1.034   5.501   6.314  0.5035  0.9193 -0.2030
 7950SOL     OW35828   3.094  10.637   8.035  0.1367  0.4439  0.0922
 7950SOL    HW135829   3.074  10.564   7.976  0.4579  0.0578  0.4598
 7950SOL    HW235830   3.142  10.597   8.107 -0.1678  0.9298  0.5692
 7951SOL     OW35831   2.608  10.896   8.720 -0.2934  0.5461 -0.2006
 7951SOL    HW135832   2.586  10.822   8.777  1.6846  0.0435 -0.0172
 7951SOL    HW235833   2.575  10.870   8.634 -2.1764  0.7641  0.3866
 7952SOL     OW35834   4.565   8.061   5.722  0.0062  0.1539 -0.3288
 7952SOL    HW135835   4.624   8.007   5.775  2.1353  1.8123 -0.8317
 7952SOL    HW235836   4.596   8.047   5.632 -1.0612  0.2912 -0.7263
 7953SOL     OW35837   3.425  12.447  11.609 -0.1556 -0.2687  0.0557
 7953SOL    HW135838   3.348  12.483  11.652 -1.3129 -2.4253 -0.0557
 7953SOL    HW235839   3.395  12.363  11.574  2.5056 -1.6705  0.9030
 7954SOL     OW35840   2.703  12.689   8.479 -0.1869 -0.2639 -0.1030
 7954SOL    HW135841   2.693  12.624   8.409 -1.9021 -2.2018  1.8220
 7954SOL    HW235842   2.730  12.768   8.433 -1.9140 -1.2218 -3.0779
 7955SOL     OW35843   6.979   7.923   0.191 -0.4606  0.1803 -0.1640
 7955SOL    HW135844   7.052   7.862   0.194  0.0375  0.7743  2.2865
 7955SOL    HW235845   6.940   7.917   0.279 -0.9686  2.6678 -0.1588
 7956SOL     OW35846   7.971   8.385  12.818 -0.0365  0.3733 -0.4853
 7956SOL    HW135847   8.058   8.352  12.794  0.8021  2.5795 -0.6957
 7956SOL    HW235848   7.962   8.362  12.911  0.5050 -0.3938 -0.6141
 7957SOL     OW35849   3.456   2.887   4.241 -0.4363  0.0255  0.1238
 7957SOL    HW135850   3.508   2.967   4.237 -3.6249  2.2699 -0.4148
 7957SOL    HW235851   3.424   2.883   4.331 -0.6112 -0.4358  0.0460
 7958SOL     OW35852   1.231   7.141  10.532  0.2581 -0.3558  0.0022
 7958SOL    HW135853   1.171   7.119  10.460  0.5610  0.7278 -0.6104
 7958SOL    HW235854   1.250   7.057  10.574 -0.4059 -0.9320 -0.8046
 7959SOL     OW35855   2.235   9.358  12.524 -0.0462 -0.4863 -0.5377
 7959SOL    HW135856   2.261   9.275  12.483  0.6797 -0.0463 -0.9802
 7959SOL    HW235857   2.286   9.424  12.478  3.5886 -0.2298  3.3144
 7960SOL     OW35858   4.465   6.175  11.518  0.1812  0.1566 -0.0920
 7960SOL    HW135859   4.502   6.216  11.596  0.9217 -2.3212  0.9671
 7960SOL    HW235860   4.376   6.150  11.544 -0.2018  0.8887 -0.6659
 7961SOL     OW35861   6.382  12.135   0.038 -0.2046 -0.4992  0.2596
 7961SOL    HW135862   6.319  12.182  -0.016 -0.2911  0.0759  0.8368
 7961SOL    HW235863   6.468  12.166   0.007 -0.2366 -0.5887  0.0828
 7962SOL     OW35864   1.617  12.975  13.611  0.6080  0.9042 -0.4246
 7962SOL    HW135865   1.640  12.989  13.519 -1.1712  3.1413 -0.6286
 7962SOL    HW235866   1.546  12.911  13.608  2.6121 -1.4486 -0.2730
 7963SOL     OW35867  13.559   5.302  10.299 -0.2802 -0.3214 -0.4199
 7963SOL    HW135868  13.565   5.223  10.244 -0.4198  1.2558 -2.8491
 7963SOL    HW235869  13.649   5.326  10.317 -0.2381 -1.1682  0.5905
 7964SOL     OW35870  13.535  11.168  12.065  0.4311 -0.3655 -0.0263
 7964SOL    HW135871  13.597  11.229  12.104  1.4521 -0.0366 -2.0220
 7964SOL    HW235872  13.453  11.216  12.061  0.5119 -0.1267  0.9061
 7965SOL     OW35873   6.940   3.680  11.168  0.0246  0.0926 -0.9002
 7965SOL    HW135874   7.012   3.623  11.142  0.9135  1.6313 -1.9417
 7965SOL    HW235875   6.877   3.673  11.096 -0.7164 -0.9274 -0.1856
 7966SOL     OW35876   1.942  12.166   5.481 -0.1467  0.0528  0.4520
 7966SOL    HW135877   2.025  12.206   5.506 -0.2714  0.4845  0.1930
 7966SOL    HW235878   1.890  12.238   5.446 -0.3239 -0.3574 -0.1567
 7967SOL     OW35879  11.098   7.244   9.198 -0.4985  0.1580 -0.0850
 7967SOL    HW135880  11.192   7.254   9.182 -0.3384 -0.4585  0.4479
 7967SOL    HW235881  11.077   7.312   9.263 -0.7145  1.2145 -1.2139
 7968SOL     OW35882   6.874  11.863  12.394  0.1806  0.2852 -0.5385
 7968SOL    HW135883   6.797  11.867  12.337  0.3963 -1.9390 -1.0638
 7968SOL    HW235884   6.949  11.873  12.335  0.3633  1.5274 -0.1400
 7969SOL     OW35885   9.319   0.155   5.692  0.1502  0.2841 -0.2164
 7969SOL    HW135886   9.364   0.181   5.612 -0.2637 -0.1333 -0.5862
 7969SOL    HW235887   9.364   0.076   5.721 -0.2287 -0.0326 -0.4892
 7970SOL     OW35888   1.609   2.466  13.018  0.8334  0.1838 -0.2945
 7970SOL    HW135889   1.629   2.521  12.942  3.1381  0.9417  0.7826
 7970SOL    HW235890   1.541   2.514  13.066 -1.9252 -1.0956 -2.5945
 7971SOL     OW35891   0.040  12.455  13.799  0.0124  0.4618 -0.0087
 7971SOL    HW135892   0.116  12.399  13.783 -1.9245 -2.2458 -0.3236
 7971SOL    HW235893   0.050  12.484  13.889  3.1679  3.1916 -1.0334
 7972SOL     OW35894   9.239   7.348  10.471 -0.1975  0.2869 -0.2728
 7972SOL    HW135895   9.334   7.350  10.462 -0.0572  1.4617  1.0845
 7972SOL    HW235896   9.216   7.439  10.491 -1.6080  0.0178 -0.6097
 7973SOL     OW35897   8.996  11.595  11.092  0.1144 -0.4678 -0.4966
 7973SOL    HW135898   8.914  11.580  11.139  1.0114 -1.4441  0.8355
 7973SOL    HW235899   8.992  11.534  11.018 -0.6177 -0.0778 -0.7823
 7974SOL     OW35900   4.209   1.072  13.393 -0.3303  0.1428  0.1855
 7974SOL    HW135901   4.127   1.117  13.410  0.2618  1.1910  0.3448
 7974SOL    HW235902   4.246   1.116  13.316 -0.0204 -0.4650 -0.0256
 7975SOL     OW35903  11.624   7.840  11.434 -0.1130  0.8483  0.3165
 7975SOL    HW135904  11.561   7.901  11.396 -2.1762 -1.2755  0.0976
 7975SOL    HW235905  11.619   7.762  11.379  0.4336 -0.4995  2.0659
 7976SOL     OW35906  12.164   4.579  11.092  0.1907  0.2324  0.4309
 7976SOL    HW135907  12.138   4.533  11.012 -0.1677  0.1888  0.5694
 7976SOL    HW235908  12.088   4.633  11.113  1.2410  2.2990 -0.7327
 7977SOL     OW35909  13.113   5.475   3.066 -0.1244  0.4870 -0.5304
 7977SOL    HW135910  13.121   5.452   2.973 -1.3040 -0.4968 -0.4235
 7977SOL    HW235911  13.041   5.538   3.068  0.9312  1.7255 -0.4381
 7978SOL     OW35912   3.175   6.807  11.620  0.1573 -0.3085  0.0466
 7978SOL    HW135913   3.096   6.800  11.567  0.6550 -0.2086 -0.7293
 7978SOL    HW235914   3.242   6.839  11.559  0.8148 -0.4758  0.6638
 7979SOL     OW35915  12.192   2.483   6.655  0.0053 -0.2409 -0.0772
 7979SOL    HW135916  12.244   2.490   6.575 -0.5311  1.6030 -0.3019
 7979SOL    HW235917  12.117   2.429   6.630  1.1593 -1.9396 -0.0551
 7980SOL     OW35918   2.798   1.516   6.673  0.3411 -0.1075  0.8313
 7980SOL    HW135919   2.762   1.604   6.660 -0.9117 -0.5830  0.9582
 7980SOL    HW235920   2.811   1.510   6.768 -0.3966 -0.3649  0.9187
 7981SOL     OW35921  11.445  10.580   4.503 -0.1857 -0.0159  0.1659
 7981SOL    HW135922  11.523  10.623   4.467  0.6328 -0.6654  1.0835
 7981SOL    HW235923  11.394  10.651   4.541  0.3656  0.3287  0.2766
 7982SOL     OW35924  13.770  10.528   3.466  0.4950  0.4220  0.5936
 7982SOL    HW135925  13.700  10.476   3.426  0.5647  1.3513 -0.7953
 7982SOL    HW235926  13.807  10.471   3.534  0.4941 -1.2878 -0.7843
 7983SOL     OW35927  10.056   7.693  13.816  0.3757 -0.7740  0.9793
 7983SOL    HW135928  10.065   7.598  13.828  0.7333 -0.6880  1.4484
 7983SOL    HW235929  10.110   7.712  13.740  1.3596 -0.7748  1.6543
 7984SOL     OW35930   4.148   6.446   6.734  1.0534 -0.7073  0.0539
 7984SOL    HW135931   4.144   6.416   6.825  1.2537 -0.0436  0.2856
 7984SOL    HW235932   4.231   6.493   6.728  0.5709  0.1355 -0.1923
 7985SOL     OW35933   8.280   0.726  12.159 -0.0411 -0.0451 -0.0629
 7985SOL    HW135934   8.334   0.731  12.237  1.6975 -0.2442 -1.1957
 7985SOL    HW235935   8.200   0.774  12.182  0.0151 -0.8658  2.0962
 7986SOL     OW35936   4.189   9.708   4.042 -0.0889 -0.6340 -0.0976
 7986SOL    HW135937   4.178   9.614   4.025  0.4424 -0.7213  0.0312
 7986SOL    HW235938   4.131   9.750   3.979  1.0458 -0.9963 -1.4284
 7987SOL     OW35939   9.944   5.731   7.375 -0.1580  0.0896 -0.1424
 7987SOL    HW135940  10.014   5.667   7.386  0.7256  0.7081 -1.7817
 7987SOL    HW235941   9.894   5.699   7.301  0.7419  1.6005 -1.4821
 7988SOL     OW35942  13.161   4.911   0.725  0.0297  0.3307  0.1297
 7988SOL    HW135943  13.112   4.964   0.788  1.8725  0.0379  1.9223
 7988SOL    HW235944  13.219   4.857   0.779  2.7993  1.1241 -1.8292
 7989SOL     OW35945   4.685   0.183   5.799 -0.3111 -0.1979 -0.1977
 7989SOL    HW135946   4.664   0.197   5.707 -1.7844  0.8186  0.2641
 7989SOL    HW235947   4.638   0.103   5.823  0.4111 -0.7010 -0.4080
 7990SOL     OW35948   6.990   1.526  10.201  0.3388 -0.2485 -0.0881
 7990SOL    HW135949   7.064   1.587  10.209  1.8313 -1.6104 -2.5152
 7990SOL    HW235950   6.927   1.572  10.146 -1.0924  1.1901  2.5200
 7991SOL     OW35951  13.422   1.595   1.891  0.5388 -0.0446 -0.0072
 7991SOL    HW135952  13.426   1.504   1.860 -1.4163  0.1388 -0.9240
 7991SOL    HW235953  13.452   1.590   1.982  3.5594 -1.0539 -0.9125
 7992SOL     OW35954   3.778   1.975  13.885  0.1121  0.1450  0.6438
 7992SOL    HW135955   3.785   1.913  13.958 -0.0603  0.2882  0.7802
 7992SOL    HW235956   3.747   2.056  13.924 -2.5733 -0.4946  0.0584
 7993SOL     OW35957   7.385   9.557   7.242  0.2692 -0.1712 -0.0902
 7993SOL    HW135958   7.381   9.495   7.315 -0.9403 -0.9526 -0.7759
 7993SOL    HW235959   7.462   9.531   7.192  0.9980  0.2521  0.7941
 7994SOL     OW35960   3.606   3.634  10.231 -0.5957  0.3480 -0.2643
 7994SOL    HW135961   3.551   3.596  10.162 -0.2259 -0.0384 -0.3498
 7994SOL    HW235962   3.679   3.574  10.239 -0.0425  0.9993 -0.3394
 7995SOL     OW35963   8.561  13.276   4.240 -0.2725  0.3796  0.2528
 7995SOL    HW135964   8.557  13.306   4.330 -2.8437 -0.9475  0.6718
 7995SOL    HW235965   8.615  13.197   4.243 -0.8863 -0.0190  0.7368
 7996SOL     OW35966   8.663   1.233   7.910 -0.2456 -0.1015 -0.1350
 7996SOL    HW135967   8.586   1.216   7.857 -0.6267  2.3457 -0.4966
 7996SOL    HW235968   8.629   1.246   7.999 -0.0230 -0.7743  0.0536
 7997SOL     OW35969   3.359   2.053   9.918  0.2102 -0.2399 -0.1304
 7997SOL    HW135970   3.409   1.994   9.975 -0.3468 -1.3866 -0.7950
 7997SOL    HW235971   3.272   2.014   9.914  0.0629  0.1711 -1.2447
 7998SOL     OW35972   3.253   9.038   2.680  0.7005 -0.0534  0.5638
 7998SOL    HW135973   3.288   9.105   2.622 -0.4640  0.2196  0.1639
 7998SOL    HW235974   3.172   9.008   2.638  0.6492 -0.9622  1.2620
 7999SOL     OW35975   0.122  10.560   7.203 -0.2776  0.3074  0.0074
 7999SOL    HW135976   0.063  10.599   7.139  1.3031  0.6102 -1.3067
 7999SOL    HW235977   0.147  10.633   7.260 -1.4709  0.0894  0.8664
 8000SOL     OW35978   7.403  10.092  12.180 -0.1348 -0.8974 -0.3304
 8000SOL    HW135979   7.387  10.032  12.253 -0.8901 -1.8408 -1.2425
 8000SOL    HW235980   7.384  10.179  12.217  0.6278 -1.2306  0.9044
 8001SOL     OW35981   3.627   2.728   9.059  0.1398  0.4680  0.6183
 8001SOL    HW135982   3.570   2.794   9.099 -1.5303 -0.8989  0.6055
 8001SOL    HW235983   3.698   2.779   9.020 -1.7169  2.3981 -0.4810
 8002SOL     OW35984   9.101   9.193   7.358 -0.4243 -0.1184  0.0025
 8002SOL    HW135985   9.018   9.151   7.382 -1.6739  1.1179 -1.9067
 8002SOL    HW235986   9.097   9.280   7.397  0.3008 -0.2872  0.4726
 8003SOL     OW35987   1.707  12.994   3.071  0.4428 -0.1161  0.4537
 8003SOL    HW135988   1.712  12.907   3.031  0.4230  0.2820 -0.4529
 8003SOL    HW235989   1.771  12.992   3.142  0.3622 -0.9030  0.5162
 8004SOL     OW35990   9.742   6.242   4.027 -0.1275 -0.1281 -0.0938
 8004SOL    HW135991   9.801   6.310   4.061  0.4260 -0.4055 -0.4868
 8004SOL    HW235992   9.655   6.280   4.035  0.2789  1.2311 -1.6720
 8005SOL     OW35993   9.710  13.808   9.401 -0.3217 -0.1384  0.3456
 8005SOL    HW135994   9.621  13.805   9.367  0.4191 -0.2374 -1.6879
 8005SOL    HW235995   9.757  13.740   9.353  1.5525  1.8418 -0.8205
 8006SOL     OW35996  11.398  13.040   5.995 -1.1528  0.6703 -0.6083
 8006SOL    HW135997  11.444  12.988   5.929  0.3121  0.9591  0.1432
 8006SOL    HW235998  11.323  12.986   6.021 -0.7347 -0.2132 -1.2026
 8007SOL     OW35999   6.959   7.056  11.761 -0.5454 -0.4286 -0.1217
 8007SOL    HW136000   6.942   6.962  11.753  2.6401 -1.2949  1.7990
 8007SOL    HW236001   7.030   7.063  11.825  0.5789  3.1862 -1.5065
 8008SOL     OW36002   7.855   3.309   4.060  0.1217  0.2885  0.2999
 8008SOL    HW136003   7.818   3.397   4.063  0.0432  0.2431  0.7229
 8008SOL    HW236004   7.861   3.289   3.966 -0.2968  0.5625  0.2086
 8009SOL     OW36005   7.984  10.054  12.712 -0.0130  0.2049  0.4846
 8009SOL    HW136006   7.974  10.148  12.701 -1.8988  0.1439  1.3780
 8009SOL    HW236007   7.983  10.019  12.623 -0.2301  0.9343  0.1960
 8010SOL     OW36008   1.816   2.117   2.511  0.3721  0.3905 -0.0019
 8010SOL    HW136009   1.779   2.055   2.574 -1.6806 -0.1723 -1.6427
 8010SOL    HW236010   1.892   2.154   2.556  2.2706 -3.8844  0.8050
 8011SOL     OW36011   4.460   4.481   5.653 -0.5442 -0.1769 -0.6399
 8011SOL    HW136012   4.509   4.485   5.571 -0.0294 -1.5319 -0.4279
 8011SOL    HW236013   4.459   4.571   5.686  1.1802  0.0070 -1.0165
 8012SOL     OW36014  10.332   3.133   0.079  0.0047 -0.6293 -0.2173
 8012SOL    HW136015  10.261   3.094   0.028 -1.1277  0.1137  0.7068
 8012SOL    HW236016  10.339   3.222   0.045 -0.5607 -0.2225  0.6701
 8013SOL     OW36017   4.564   9.797   4.418  0.4264 -0.2090 -0.0399
 8013SOL    HW136018   4.656   9.815   4.400 -0.0219  1.0170 -1.3216
 8013SOL    HW236019   4.552   9.705   4.394  1.3655 -0.4496  0.4011
 8014SOL     OW36020   4.832  13.389  11.935 -0.6530 -0.2203 -0.2892
 8014SOL    HW136021   4.865  13.460  11.990 -0.0541 -0.9814  0.3578
 8014SOL    HW236022   4.891  13.316  11.952 -0.0875 -0.3280 -2.3666
 8015SOL     OW36023   3.573  11.804   1.171 -0.6200 -0.3932  0.0665
 8015SOL    HW136024   3.502  11.749   1.205  0.5547 -1.1325  1.4390
 8015SOL    HW236025   3.536  11.846   1.094 -3.1677  0.6360  1.7176
 8016SOL     OW36026  10.966  13.381  13.387 -0.1142  0.1660 -0.0217
 8016SOL    HW136027  10.916  13.300  13.376 -0.3358  0.3650 -0.5217
 8016SOL    HW236028  10.910  13.449  13.348 -0.3270  0.7009  1.1725
 8017SOL     OW36029   5.008   9.247   6.895 -0.0398  0.0174 -0.4966
 8017SOL    HW136030   4.940   9.314   6.889  1.2097  1.3234 -0.4253
 8017SOL    HW236031   5.002   9.215   6.985  0.0604  0.8039 -0.2028
 8018SOL     OW36032   0.955   0.412  10.562 -0.1291 -0.9332 -0.3939
 8018SOL    HW136033   0.863   0.417  10.588 -0.4520  0.6447 -1.6632
 8018SOL    HW236034   1.004   0.415  10.644 -1.1850 -1.8617  0.2985
 8019SOL     OW36035  12.620   9.545   0.532 -0.5104 -0.1000  0.4863
 8019SOL    HW136036  12.622   9.477   0.600  1.0072  1.0995  1.7253
 8019SOL    HW236037  12.697   9.527   0.478 -0.3942  0.3137  0.5098
 8020SOL     OW36038   5.425   6.786   5.044  0.4191  0.1958 -0.1493
 8020SOL    HW136039   5.330   6.799   5.050  0.6742  1.8809  0.5417
 8020SOL    HW236040   5.436   6.691   5.048 -1.2801 -0.0576 -0.9107
 8021SOL     OW36041   3.746  12.628  12.888 -0.1340 -0.1397 -0.7547
 8021SOL    HW136042   3.839  12.623  12.909 -0.1414  0.8642 -0.4282
 8021SOL    HW236043   3.704  12.566  12.948  0.1553  0.5738  0.2072
 8022SOL     OW36044   9.363   9.930   4.781  0.1059  0.1623  0.0568
 8022SOL    HW136045   9.272   9.956   4.771 -0.4592 -1.7481 -0.1001
 8022SOL    HW236046   9.394   9.915   4.692  1.1401  2.4383 -0.0367
 8023SOL     OW36047  10.172   6.904   7.974 -0.2329 -0.3444  0.1714
 8023SOL    HW136048  10.205   6.977   8.026 -2.3290  0.4320  0.5229
 8023SOL    HW236049  10.208   6.826   8.016 -0.3378  0.3619  1.6393
 8024SOL     OW36050   7.162   7.180   0.648 -0.6105  0.3379 -0.7175
 8024SOL    HW136051   7.106   7.214   0.718 -0.1592 -0.8998  0.2808
 8024SOL    HW236052   7.243   7.231   0.656  0.4006 -1.4212  1.3459
 8025SOL     OW36053   8.450   2.969   6.730 -0.6269 -0.2800 -0.0361
 8025SOL    HW136054   8.496   2.892   6.764 -1.1933  0.0023  1.4348
 8025SOL    HW236055   8.366   2.935   6.699 -0.7483 -0.3008  0.3159
 8026SOL     OW36056   1.628  13.936   7.293  0.0031 -0.1865  0.3223
 8026SOL    HW136057   1.614  13.842   7.294  0.4167 -0.2534 -0.1384
 8026SOL    HW236058   1.674  13.953   7.211 -0.6738  0.4989  0.0732
 8027SOL     OW36059   3.127   3.761   4.214  0.0409  0.1126 -0.6644
 8027SOL    HW136060   3.124   3.705   4.137 -0.4528 -0.3544 -0.3192
 8027SOL    HW236061   3.215   3.798   4.214  0.6529 -1.2747 -0.4796
 8028SOL     OW36062   4.644   9.064   0.387  0.3422 -0.3878 -0.1963
 8028SOL    HW136063   4.620   9.094   0.300 -2.3154 -0.2125  0.5156
 8028SOL    HW236064   4.725   9.111   0.407  0.2507  0.6244 -2.0198
 8029SOL     OW36065   7.222   6.158   7.162  0.3457 -0.3109  0.1197
 8029SOL    HW136066   7.315   6.145   7.142  0.2155  0.6130 -1.2165
 8029SOL    HW236067   7.182   6.072   7.147  0.8816 -0.5648  0.1207
 8030SOL     OW36068   4.980   8.250   4.349  0.0287  0.2414  0.2780
 8030SOL    HW136069   5.025   8.277   4.429 -0.2728 -0.9768  0.8863
 8030SOL    HW236070   4.931   8.172   4.374 -0.7626  0.3332 -0.8905
 8031SOL     OW36071  12.842  10.344   6.603  0.3321  0.3216  0.0221
 8031SOL    HW136072  12.754  10.380   6.592  0.5682  0.3964 -1.9815
 8031SOL    HW236073  12.892  10.413   6.647 -0.1670  0.9525 -0.4072
 8032SOL     OW36074   6.910   1.638   2.679 -0.2301 -0.0974  0.2824
 8032SOL    HW136075   6.894   1.635   2.774 -0.4229 -0.5460  0.2392
 8032SOL    HW236076   6.838   1.587   2.642 -0.0099 -0.1370 -0.0891
 8033SOL     OW36077   8.129   2.759   5.860 -0.2984  0.2607  0.2800
 8033SOL    HW136078   8.043   2.757   5.901 -0.0802  0.2366  0.7456
 8033SOL    HW236079   8.126   2.833   5.800 -0.7116  0.1344  0.1465
 8034SOL     OW36080   1.520   5.714   6.735  0.4540  0.4019  0.5033
 8034SOL    HW136081   1.613   5.712   6.759  0.4437  1.8620  0.7755
 8034SOL    HW236082   1.474   5.704   6.818  0.3395 -0.8881  0.3046
 8035SOL     OW36083   4.782   1.195   8.700  0.2999 -0.4098  0.3338
 8035SOL    HW136084   4.832   1.125   8.657  0.8692 -0.7845  1.5608
 8035SOL    HW236085   4.835   1.273   8.689  0.4228 -0.4947  0.3241
 8036SOL     OW36086   9.252   7.482  13.623 -0.3440 -0.0408  0.1060
 8036SOL    HW136087   9.246   7.514  13.713 -0.7819  0.8699 -0.2334
 8036SOL    HW236088   9.334   7.432  13.621 -1.1624 -1.5095  1.4368
 8037SOL     OW36089   1.125   3.262   8.756 -0.2533  0.1761  0.3049
 8037SOL    HW136090   1.220   3.245   8.754  0.0055  1.5380  0.3032
 8037SOL    HW236091   1.111   3.325   8.686 -1.5763 -1.8340 -1.3452
 8038SOL     OW36092   1.058   7.147   1.793  0.4564 -0.4455 -0.0457
 8038SOL    HW136093   1.026   7.093   1.721 -0.5527 -0.6486  0.5345
 8038SOL    HW236094   0.979   7.184   1.832  0.6715 -2.5113  2.6857
 8039SOL     OW36095  10.728   5.832   0.163  0.1729  0.7296  0.4119
 8039SOL    HW136096  10.700   5.843   0.072 -0.6883 -1.1649  0.3925
 8039SOL    HW236097  10.653   5.860   0.215  0.3074  0.9021  0.5119
 8040SOL     OW36098  12.296   7.739  11.080 -0.1093 -0.1320 -0.0324
 8040SOL    HW136099  12.380   7.708  11.113  0.1641  1.4349  0.8676
 8040SOL    HW236100  12.302   7.727  10.985  1.3242  0.3585 -0.0388
 8041SOL     OW36101  10.961   6.358   4.465 -0.4574 -0.5398  0.7918
 8041SOL    HW136102  10.884   6.326   4.417 -0.8443  1.1994  0.1971
 8041SOL    HW236103  10.943   6.450   4.481  2.1359  0.3369 -0.7126
 8042SOL     OW36104   9.406   0.471   6.478 -0.0050  0.3278  0.0047
 8042SOL    HW136105   9.385   0.564   6.473  0.3021  0.4006  0.0572
 8042SOL    HW236106   9.326   0.430   6.511 -0.4614  0.4512 -0.9165
 8043SOL     OW36107   2.665  10.868   3.967  0.1793  0.1992 -0.1530
 8043SOL    HW136108   2.619  10.826   4.039  0.8865  0.1928  0.2963
 8043SOL    HW236109   2.674  10.959   3.994  1.0236  0.0554  0.0616
 8044SOL     OW36110   5.672   6.244   1.242 -0.1603  0.1119 -0.0976
 8044SOL    HW136111   5.625   6.302   1.302 -1.3583  0.5090 -1.3557
 8044SOL    HW236112   5.751   6.219   1.289 -0.7272  0.9513  1.3618
 8045SOL     OW36113   2.021   9.856   0.146 -0.8305 -0.1455  0.7895
 8045SOL    HW136114   1.939   9.815   0.174 -0.8821 -1.3526 -0.9933
 8045SOL    HW236115   2.089   9.805   0.189 -0.9664  0.2678  1.5200
 8046SOL     OW36116   0.998   4.398   7.480 -0.3479  0.2753 -0.2708
 8046SOL    HW136117   1.035   4.472   7.432  0.6046  0.4414  0.6933
 8046SOL    HW236118   1.052   4.390   7.558 -1.5273 -0.3402  0.5139
 8047SOL     OW36119   1.624   9.271   8.152  0.0052 -0.1255 -0.8637
 8047SOL    HW136120   1.624   9.177   8.139 -0.0296 -0.3971  0.9049
 8047SOL    HW236121   1.571   9.305   8.080 -0.5557 -1.5217 -1.1414
 8048SOL     OW36122   7.652   8.328  13.817  0.2238 -0.6716 -0.7414
 8048SOL    HW136123   7.626   8.238  13.836  1.0588 -0.9619 -0.9210
 8048SOL    HW236124   7.661   8.370  13.902 -0.7609 -0.5776 -0.6745
 8049SOL     OW36125   4.698   9.787  12.308 -0.3021 -0.4324 -0.3571
 8049SOL    HW136126   4.637   9.788  12.381 -1.0404  3.4487 -0.8012
 8049SOL    HW236127   4.779   9.821  12.344 -0.8938  2.2721 -1.3284
 8050SOL     OW36128  12.489   3.051  11.728 -0.0710 -0.0761 -0.4990
 8050SOL    HW136129  12.542   2.972  11.716 -1.2075 -1.0512  0.6610
 8050SOL    HW236130  12.417   3.041  11.665 -0.1913  0.0610 -0.3823
 8051SOL     OW36131  11.346   3.464  11.201  0.2857  0.7089  0.1506
 8051SOL    HW136132  11.298   3.515  11.266  0.4512  1.4196 -0.2704
 8051SOL    HW236133  11.290   3.467  11.123 -0.4241 -1.0123  0.5307
 8052SOL     OW36134   8.509  11.203  10.253 -0.0428 -0.3799  0.3625
 8052SOL    HW136135   8.586  11.180  10.201  0.4167 -0.0967  0.8949
 8052SOL    HW236136   8.534  11.181  10.343 -0.9382 -1.1528  0.4354
 8053SOL     OW36137  14.012   7.036   1.311  0.6981 -0.5519  0.1526
 8053SOL    HW136138  14.046   7.084   1.387  0.7598  0.1240 -0.2974
 8053SOL    HW236139  14.075   6.965   1.299 -0.6933 -2.2972  2.3306
 8054SOL     OW36140   7.695   7.011   0.157 -0.2442 -0.8615 -0.9279
 8054SOL    HW136141   7.661   7.090   0.198  0.7257 -0.2803 -1.2065
 8054SOL    HW236142   7.779   6.995   0.201  0.4837 -0.6225 -2.1841
 8055SOL     OW36143   7.601  11.731   4.321  0.5073 -0.0367  0.0941
 8055SOL    HW136144   7.611  11.826   4.317  1.3528 -0.1329 -0.2534
 8055SOL    HW236145   7.506  11.717   4.312  0.4289  0.7473 -0.4369
 8056SOL     OW36146   3.754  11.104   7.377 -0.4377 -0.3205 -0.5021
 8056SOL    HW136147   3.837  11.073   7.412  0.1508 -0.4222 -1.9167
 8056SOL    HW236148   3.720  11.165   7.443  1.0932  0.2481 -0.2123
 8057SOL     OW36149   4.767   2.659   9.361  0.2981 -0.3259 -0.4369
 8057SOL    HW136150   4.789   2.648   9.269  0.0152  1.6269 -0.7688
 8057SOL    HW236151   4.769   2.753   9.376 -2.9851 -0.3150  0.7303
 8058SOL     OW36152   4.818   8.289  10.964 -0.4995  0.4616 -0.7649
 8058SOL    HW136153   4.903   8.301  11.005 -0.1317  0.7194 -1.5949
 8058SOL    HW236154   4.762   8.256  11.035 -0.5242  3.1733  0.6404
 8059SOL     OW36155   5.440  13.271  13.878 -0.5533  0.3907 -0.1797
 8059SOL    HW136156   5.483  13.290  13.962 -1.1720  0.0965  0.2103
 8059SOL    HW236157   5.511  13.238  13.823 -0.6809 -2.7920  1.3332
 8060SOL     OW36158   7.597   3.468   3.073  0.2346 -0.5971 -0.4956
 8060SOL    HW136159   7.575   3.558   3.047  0.6816 -0.1316  0.6790
 8060SOL    HW236160   7.527   3.415   3.034 -2.4688  0.7036  2.1830
 8061SOL     OW36161   9.835   8.344  10.996  0.2779  0.4121  0.0406
 8061SOL    HW136162   9.806   8.357  11.086 -0.5405 -0.1418 -0.1258
 8061SOL    HW236163   9.903   8.410  10.982  0.6789  0.2595  1.1780
 8062SOL     OW36164   7.200   4.039   0.034  0.1976 -0.1398 -0.1306
 8062SOL    HW136165   7.136   4.082   0.091 -1.0622 -0.9800 -0.8694
 8062SOL    HW236166   7.283   4.048   0.081 -0.6132  0.1406  1.3265
 8063SOL     OW36167  13.618   5.066  10.617 -0.1797  0.0478 -0.1184
 8063SOL    HW136168  13.569   5.139  10.653 -1.4787  0.4114 -2.4257
 8063SOL    HW236169  13.699   5.106  10.583 -0.0448  0.0857  0.2416
 8064SOL     OW36170   1.245   7.160   1.517 -0.1619 -0.0166  0.2959
 8064SOL    HW136171   1.160   7.121   1.539 -0.4127  0.7008  0.6591
 8064SOL    HW236172   1.296   7.088   1.481 -1.2528 -0.2525 -0.8446
 8065SOL     OW36173   4.267   3.024   4.091  0.2094  0.0830  0.2396
 8065SOL    HW136174   4.303   3.063   4.011 -0.9321  3.0310  1.0378
 8065SOL    HW236175   4.174   3.012   4.071 -0.3127  1.8408  1.3918
 8066SOL     OW36176   8.204   1.420   6.952  0.5442 -0.2212 -0.0361
 8066SOL    HW136177   8.181   1.454   6.865  1.3667 -0.0596 -0.2094
 8066SOL    HW236178   8.276   1.477   6.981 -1.0542  1.0232  1.6541
 8067SOL     OW36179   1.048   5.950   4.759 -0.5892 -0.5725  0.1815
 8067SOL    HW136180   0.960   5.966   4.794 -0.0117 -0.8739  1.8815
 8067SOL    HW236181   1.063   5.857   4.775  0.2871 -0.3786  0.5450
 8068SOL     OW36182   2.424   1.075   7.780 -0.2860 -0.2465 -0.1647
 8068SOL    HW136183   2.446   1.058   7.688  0.7041 -0.7311  0.1505
 8068SOL    HW236184   2.409   0.989   7.817 -1.8991  0.0203 -0.1473
 8069SOL     OW36185   0.846   9.470   7.063  0.1950 -0.3014  0.1062
 8069SOL    HW136186   0.893   9.429   7.136 -0.6634  1.2241  1.5799
 8069SOL    HW236187   0.797   9.542   7.103 -1.3806 -0.2464 -1.7702
 8070SOL     OW36188  10.537  10.474   3.033 -0.0005  0.5835 -0.2510
 8070SOL    HW136189  10.450  10.437   3.022 -0.6983  1.3446  2.2535
 8070SOL    HW236190  10.596  10.401   3.014 -1.1562 -0.1110 -1.3562
 8071SOL     OW36191  12.647   1.606   4.791  0.1628  0.4451 -0.5245
 8071SOL    HW136192  12.731   1.606   4.836  0.4410 -3.7497 -0.6224
 8071SOL    HW236193  12.668   1.584   4.700 -0.9619  0.5551 -0.8291
 8072SOL     OW36194   3.935  13.513   5.510  0.2744  0.0133  0.3074
 8072SOL    HW136195   3.981  13.478   5.587  1.5463  0.3245 -0.2920
 8072SOL    HW236196   3.936  13.440   5.447 -0.3781 -0.0939  0.4155
 8073SOL     OW36197   6.931  13.971  10.573 -0.0970 -0.6758  0.0413
 8073SOL    HW136198   6.973  14.055  10.592  0.3132 -0.7247 -0.6128
 8073SOL    HW236199   6.837  13.989  10.579 -0.0095 -0.4795  1.1692
 8074SOL     OW36200  12.731   7.998  12.884  0.1117  0.1612 -0.1522
 8074SOL    HW136201  12.662   7.972  12.824  0.0848 -0.4148  0.1249
 8074SOL    HW236202  12.685   8.033  12.960  0.0700 -1.6965  0.7118
 8075SOL     OW36203   1.925  10.333   0.871  0.0478  0.7524 -0.3090
 8075SOL    HW136204   1.866  10.298   0.804  1.8334 -0.5747 -1.2619
 8075SOL    HW236205   1.906  10.281   0.949 -0.1070  0.3946 -0.5795
 8076SOL     OW36206   9.037  12.441  13.118 -0.0629  0.5065  0.3386
 8076SOL    HW136207   9.079  12.399  13.043 -0.5439  3.0550 -1.4963
 8076SOL    HW236208   9.100  12.509  13.145 -0.3294  0.2596  1.6250
 8077SOL     OW36209   3.358   8.378   2.351  0.5678  0.3938  0.3993
 8077SOL    HW136210   3.303   8.309   2.388  0.1701  1.1127  1.1695
 8077SOL    HW236211   3.376   8.349   2.262 -0.4714 -0.1942  0.3671
 8078SOL     OW36212   3.341   4.529   3.204  0.2741  0.4395 -0.5380
 8078SOL    HW136213   3.312   4.598   3.263 -0.6106 -0.5192  0.1774
 8078SOL    HW236214   3.434   4.547   3.189  0.4664  0.8204  0.9863
 8079SOL     OW36215   9.822   2.936  10.294 -0.0709  0.7703 -0.7717
 8079SOL    HW136216   9.731   2.930  10.266  0.3940 -0.5996 -2.0589
 8079SOL    HW236217   9.867   2.865  10.250  1.1770 -0.1586  1.7538
 8080SOL     OW36218   1.056   8.228   6.038 -0.4852  0.0214  0.1269
 8080SOL    HW136219   1.042   8.267   6.125  0.5142 -1.3424  0.9366
 8080SOL    HW236220   1.103   8.147   6.056  1.4348  0.6318 -1.8599
 8081SOL     OW36221   9.215   8.933   4.808  0.0130 -0.4874 -0.5666
 8081SOL    HW136222   9.273   8.864   4.776 -0.2132 -1.0046  0.1200
 8081SOL    HW236223   9.133   8.888   4.828 -0.1209 -0.0305 -0.0688
 8082SOL     OW36224   5.894  11.741   5.875 -0.1759  0.8610  0.4455
 8082SOL    HW136225   5.931  11.816   5.922  0.0027  1.7804 -1.0981
 8082SOL    HW236226   5.971  11.687   5.853 -0.2111  0.6669  0.7897
 8083SOL     OW36227   2.906   3.455  12.371  0.5237  0.5306  0.2506
 8083SOL    HW136228   2.976   3.426  12.312 -1.1632 -1.3416 -0.9183
 8083SOL    HW236229   2.833   3.396  12.354 -1.2705  2.1936  1.6811
 8084SOL     OW36230   0.246   5.659   0.863  0.2162 -0.1706  0.6527
 8084SOL    HW136231   0.239   5.583   0.806  0.0104  0.7533 -0.6098
 8084SOL    HW236232   0.214   5.732   0.810  0.3428  0.7917  1.8402
 8085SOL     OW36233   7.553   2.262   8.262  0.1218 -0.2741  0.2641
 8085SOL    HW136234   7.646   2.283   8.273 -0.1844  1.1190  0.3359
 8085SOL    HW236235   7.534   2.199   8.332  1.1298 -0.9932 -0.0870
 8086SOL     OW36236  13.693  11.572  11.358  0.1798  0.4166  0.2227
 8086SOL    HW136237  13.773  11.544  11.312 -0.2439  1.6075 -1.3285
 8086SOL    HW236238  13.715  11.658  11.393 -0.7649  1.3144 -1.2822
 8087SOL     OW36239  11.848   5.727  10.024  0.2811  0.6018 -0.3705
 8087SOL    HW136240  11.759   5.760  10.012 -0.1892  0.3572  1.9884
 8087SOL    HW236241  11.863   5.670   9.948 -2.2589 -0.8251  0.0913
 8088SOL     OW36242   6.969   0.121   1.237 -0.6451  0.1455  1.0593
 8088SOL    HW136243   6.920   0.157   1.311  0.5287  2.5155  0.7934
 8088SOL    HW236244   7.029   0.192   1.212  0.5473 -1.4113 -0.7404
 8089SOL     OW36245  13.437   2.870   0.330 -0.3066  0.1969  0.1343
 8089SOL    HW136246  13.345   2.868   0.355 -0.6762  0.8247 -1.1024
 8089SOL    HW236247  13.477   2.799   0.380 -1.4805 -0.1491  0.6146
 8090SOL     OW36248   6.330   9.612  13.303 -0.5316  0.0344  0.6503
 8090SOL    HW136249   6.251   9.666  13.307 -0.9420 -0.6145  1.5385
 8090SOL    HW236250   6.298   9.524  13.282  0.1848  0.2042 -1.4152
 8091SOL     OW36251   6.736   8.844  12.393  0.4676  0.5774  0.4177
 8091SOL    HW136252   6.718   8.874  12.304  1.1464  1.8517  0.6908
 8091SOL    HW236253   6.805   8.902  12.424  2.5424 -1.8557  0.6690
 8092SOL     OW36254   7.120   0.945   5.195 -0.2315  0.5585  0.0688
 8092SOL    HW136255   7.211   0.960   5.222 -0.7704  0.4471  2.0735
 8092SOL    HW236256   7.107   0.851   5.208  0.1440  0.0207 -2.8673
 8093SOL     OW36257   1.950   6.071  10.298  0.5188 -0.1922 -0.3172
 8093SOL    HW136258   1.975   6.001  10.358  1.1823  0.0400 -0.3200
 8093SOL    HW236259   1.967   6.151  10.347  0.9059 -0.0061 -0.7507
 8094SOL     OW36260   3.039   7.119  12.535  0.1448 -0.0986 -0.0226
 8094SOL    HW136261   3.005   7.052  12.475  0.0390 -0.3871  0.3609
 8094SOL    HW236262   2.965   7.179  12.548  0.1835 -0.0056 -0.2166
 8095SOL     OW36263   0.910   0.869  13.136 -0.1944  0.2420  0.1936
 8095SOL    HW136264   0.925   0.961  13.113  1.4206  0.0749  0.4792
 8095SOL    HW236265   0.967   0.819  13.078 -2.3237 -0.7562 -1.1820
 8096SOL     OW36266   4.935   6.434  13.061 -0.3981  0.2573 -0.0071
 8096SOL    HW136267   4.980   6.407  13.140 -1.3243  1.1037  0.8323
 8096SOL    HW236268   4.873   6.363  13.043 -0.4684  0.2526  0.2532
 8097SOL     OW36269   9.613   8.977   8.384 -0.3956 -0.3178 -0.0243
 8097SOL    HW136270   9.567   8.918   8.443 -0.5630 -0.6592 -0.4920
 8097SOL    HW236271   9.642   8.922   8.311 -2.1947  0.4766 -1.4288
 8098SOL     OW36272  12.357   5.054   3.214 -0.2442  0.3541  0.2474
 8098SOL    HW136273  12.346   4.960   3.199 -0.1674  0.2202  1.0306
 8098SOL    HW236274  12.328   5.068   3.304  1.7542  0.7182  0.8751
 8099SOL     OW36275   6.445   6.830  12.404 -0.1393  0.0607  0.0463
 8099SOL    HW136276   6.453   6.756  12.465 -0.7271  0.2395  0.3497
 8099SOL    HW236277   6.422   6.790  12.320 -0.6015 -0.0954  0.2428
 8100SOL     OW36278   0.651   8.288   7.535  0.3371 -0.1028 -0.5539
 8100SOL    HW136279   0.615   8.305   7.622 -0.8972  0.3658 -1.1470
 8100SOL    HW236280   0.738   8.327   7.537 -0.1988  1.0973  0.0370
 8101SOL     OW36281   1.636  11.605   9.165 -0.1830 -0.1056 -0.5187
 8101SOL    HW136282   1.693  11.560   9.227  2.2350  1.6238 -1.3421
 8101SOL    HW236283   1.553  11.614   9.210  0.5752 -1.5701  1.2668
 8102SOL     OW36284  13.308   0.305  13.772  1.1917 -0.5334  0.2912
 8102SOL    HW136285  13.333   0.379  13.826  0.4594 -0.3098  0.3369
 8102SOL    HW236286  13.274   0.344  13.692 -1.2154 -0.6929  1.1547
 8103SOL     OW36287   4.309  12.508   5.300  0.0201  0.5917 -1.1996
 8103SOL    HW136288   4.285  12.451   5.226 -1.3539  1.0096 -1.1192
 8103SOL    HW236289   4.235  12.568   5.308 -1.1568 -1.0459  2.1392
 8104SOL     OW36290   2.485   1.633   1.319 -0.4772  0.2221  0.5768
 8104SOL    HW136291   2.517   1.721   1.296  1.8922 -0.4228  1.1244
 8104SOL    HW236292   2.404   1.649   1.367 -0.0452  2.1198  0.7481
 8105SOL     OW36293   6.228   7.586   0.174  0.2859 -0.0722  0.3608
 8105SOL    HW136294   6.230   7.505   0.224  3.6111 -0.6738 -0.5242
 8105SOL    HW236295   6.194   7.651   0.236 -2.7406 -2.0255  1.0133
 8106SOL     OW36296   9.466  10.594   3.100 -0.0720 -0.3056 -0.0579
 8106SOL    HW136297   9.474  10.685   3.074 -0.8754 -0.2826 -0.2565
 8106SOL    HW236298   9.540  10.550   3.057 -1.3729 -0.2907 -2.4997
 8107SOL     OW36299  10.750   2.237   0.479 -0.0709 -0.1893 -0.8217
 8107SOL    HW136300  10.773   2.177   0.549  1.2802  0.7258 -0.4616
 8107SOL    HW236301  10.686   2.297   0.518 -0.3152 -0.4822 -0.7667
 8108SOL     OW36302   9.671   7.455  12.273  0.0069 -0.8694  0.3584
 8108SOL    HW136303   9.593   7.447  12.328 -0.1493  0.1766  0.2986
 8108SOL    HW236304   9.739   7.489  12.331  0.3011 -1.3292  0.2953
 8109SOL     OW36305   6.540   4.826  10.657  0.0007 -0.0869  0.0740
 8109SOL    HW136306   6.628   4.790  10.666 -0.3985 -1.0010  0.4344
 8109SOL    HW236307   6.512   4.796  10.570 -0.5150 -1.0981  0.5679
 8110SOL     OW36308  11.654   9.055   3.559  0.5831  0.8371 -0.7350
 8110SOL    HW136309  11.694   9.089   3.640 -1.4279  0.6201  0.4259
 8110SOL    HW236310  11.628   8.966   3.581 -1.1162  1.1961 -1.2037
 8111SOL     OW36311   7.423   0.293   3.301  0.0515  0.5337  0.4308
 8111SOL    HW136312   7.468   0.226   3.352 -1.1653 -0.2706  0.4781
 8111SOL    HW236313   7.339   0.305   3.344 -0.5287  0.6900 -0.6939
 8112SOL     OW36314  10.895   5.235   6.797  0.5016  0.1216  0.0707
 8112SOL    HW136315  10.984   5.265   6.814  0.6969 -1.4332  2.1449
 8112SOL    HW236316  10.875   5.175   6.869 -2.0773  0.0890 -0.5639
 8113SOL     OW36317  10.422  11.857  10.793 -0.0926  0.1830 -0.6617
 8113SOL    HW136318  10.373  11.820  10.720 -0.5710 -0.0966 -0.2053
 8113SOL    HW236319  10.357  11.903  10.845  0.0784 -0.4142  0.0949
 8114SOL     OW36320   9.522   4.202   8.013 -0.3789  0.1211 -0.3528
 8114SOL    HW136321   9.572   4.194   7.931 -0.3465 -0.4817 -0.2826
 8114SOL    HW236322   9.578   4.160   8.078 -0.9045 -0.4101 -0.2406
 8115SOL     OW36323   7.581   6.046  12.911 -0.2442  0.0178 -0.3411
 8115SOL    HW136324   7.509   6.103  12.938  0.7070  0.2914  1.7603
 8115SOL    HW236325   7.604   5.998  12.990  0.8611 -1.2228 -1.3794
 8116SOL     OW36326   8.177  13.837  10.780 -0.1913 -0.2279 -0.0495
 8116SOL    HW136327   8.164  13.820  10.687  0.5479  1.6121 -0.5307
 8116SOL    HW236328   8.224  13.920  10.783  1.4143 -1.1320  1.9233
 8117SOL     OW36329   9.510   9.249   9.900 -0.0650  0.1990  0.1644
 8117SOL    HW136330   9.578   9.308   9.868 -1.3958  1.1433 -1.0884
 8117SOL    HW236331   9.428   9.288   9.867 -0.9577 -2.8987 -1.7040
 8118SOL     OW36332  12.877   3.834  13.155  0.6040  0.4613 -0.2923
 8118SOL    HW136333  12.846   3.904  13.212 -1.2683  0.3904 -1.1578
 8118SOL    HW236334  12.917   3.878  13.081 -0.3035  0.6342 -0.6906
 8119SOL     OW36335   6.810   5.435  13.829 -0.3551  0.1021 -0.3273
 8119SOL    HW136336   6.828   5.528  13.834 -0.0534  0.1032 -1.3596
 8119SOL    HW236337   6.803   5.407  13.921 -0.2052  1.0805 -0.0112
 8120SOL     OW36338  12.427   0.076   2.069 -1.0235  0.6715  0.1262
 8120SOL    HW136339  12.480   0.147   2.106  0.0030  0.3934 -0.7242
 8120SOL    HW236340  12.420   0.098   1.976 -0.5524 -0.4080 -0.1815
 8121SOL     OW36341  10.632   0.626   4.387  0.1180 -0.3121 -0.5110
 8121SOL    HW136342  10.617   0.582   4.471  0.5749  1.8542  0.7755
 8121SOL    HW236343  10.560   0.689   4.380 -0.3645 -1.0159 -2.1661
 8122SOL     OW36344   7.675   2.948  10.073  0.2917 -0.5387 -0.1583
 8122SOL    HW136345   7.761   2.984  10.049  1.4980 -0.7278  3.2087
 8122SOL    HW236346   7.613   3.013  10.042  1.6925  0.0033 -2.0103
 8123SOL     OW36347   8.713  13.912  10.316  0.0016 -0.2799 -0.4853
 8123SOL    HW136348   8.700  13.962  10.235  0.0300  0.7013  0.0948
 8123SOL    HW236349   8.703  13.977  10.386 -0.4985 -1.2064  0.3242
 8124SOL     OW36350  12.093   9.030   4.588 -0.3413 -0.3194 -0.6297
 8124SOL    HW136351  12.114   8.947   4.630 -1.0584 -0.0092  0.3628
 8124SOL    HW236352  12.003   9.018   4.556 -0.1384 -0.2161 -1.2637
 8125SOL     OW36353   9.581   5.202   0.096 -0.5343  0.1137 -0.0178
 8125SOL    HW136354   9.628   5.278   0.063  0.8133  0.5875  2.6949
 8125SOL    HW236355   9.589   5.136   0.028  1.4496  1.2140 -0.9017
 8126SOL     OW36356   5.037  11.468   1.467  0.1536 -0.0156  0.6926
 8126SOL    HW136357   5.084  11.528   1.410 -0.3575 -0.0180  0.2706
 8126SOL    HW236358   4.967  11.432   1.413 -0.1320 -0.2663  1.2190
 8127SOL     OW36359   7.842   2.071   4.859 -0.1382 -0.6034 -0.0805
 8127SOL    HW136360   7.806   2.117   4.935 -1.5487 -1.3939 -0.2329
 8127SOL    HW236361   7.902   2.134   4.819 -2.2565  1.2689 -0.4986
 8128SOL     OW36362   9.293   2.080   3.635 -0.7412 -0.3079 -0.0357
 8128SOL    HW136363   9.344   1.999   3.644  0.0200  0.2542  0.9000
 8128SOL    HW236364   9.334   2.141   3.696 -2.0924  0.3935  0.2164
 8129SOL     OW36365   7.588  12.030   1.539  0.3971  0.0060  0.3243
 8129SOL    HW136366   7.566  12.009   1.630  0.5518 -0.6942  0.2089
 8129SOL    HW236367   7.553  12.118   1.526  2.6712  1.2360  1.8480
 8130SOL     OW36368   3.904   6.230   2.260 -0.0879  0.2480 -0.3071
 8130SOL    HW136369   3.855   6.190   2.188 -1.0380  1.4788 -0.3729
 8130SOL    HW236370   3.848   6.220   2.336 -0.0381  0.8425 -0.1882
 8131SOL     OW36371   3.639   3.387  13.548  0.3938  0.7206 -0.2092
 8131SOL    HW136372   3.583   3.425  13.615 -0.0031  1.9346 -1.1798
 8131SOL    HW236373   3.682   3.314  13.591  1.9111  2.8049  2.0452
 8132SOL     OW36374  11.924   5.703  11.374 -0.3136  0.1147  0.4046
 8132SOL    HW136375  11.844   5.688  11.324  0.1802  0.7324 -0.6193
 8132SOL    HW236376  11.995   5.690  11.310  0.4183 -0.6672  1.3454
 8133SOL     OW36377   6.338   3.856   8.577 -0.3629  0.2711  0.2060
 8133SOL    HW136378   6.300   3.781   8.531 -2.8053  0.1713  2.2036
 8133SOL    HW236379   6.279   3.928   8.557  0.9954  1.2900 -0.2782
 8134SOL     OW36380   5.239   7.643   4.935 -0.2399 -0.0015  0.1987
 8134SOL    HW136381   5.267   7.584   5.005 -0.2903  1.1517  1.2196
 8134SOL    HW236382   5.283   7.725   4.954  0.4510  0.1107 -1.6372
 8135SOL     OW36383  13.846   1.489  12.086  0.2191  0.9161  0.1735
 8135SOL    HW136384  13.803   1.473  12.001  1.9597  1.7296 -0.9162
 8135SOL    HW236385  13.868   1.582  12.084 -0.0057  1.0163  1.6903
 8136SOL     OW36386   0.121   7.351   6.774  0.2311  0.0367  0.1610
 8136SOL    HW136387   0.034   7.377   6.804  1.1730  2.7310  0.8012
 8136SOL    HW236388   0.115   7.354   6.678 -0.5369 -0.4772  0.1863
 8137SOL     OW36389   8.032   3.450   4.787 -0.5905 -0.6946 -0.3466
 8137SOL    HW136390   8.074   3.532   4.816 -1.6423 -0.4998  0.7016
 8137SOL    HW236391   7.981   3.475   4.710 -1.6423 -0.1327  0.5026
 8138SOL     OW36392   6.319   8.475   7.530  0.3443 -0.4661  0.3413
 8138SOL    HW136393   6.309   8.387   7.493 -1.4484 -1.4275  2.8040
 8138SOL    HW236394   6.230   8.501   7.553  1.0967  0.9848  1.8170
 8139SOL     OW36395   0.083   3.431   9.681 -0.3128 -0.1048 -0.0034
 8139SOL    HW136396  -0.007   3.419   9.711 -0.0488  1.4191  1.5394
 8139SOL    HW236397   0.133   3.452   9.760  1.7873 -2.5676 -0.5263
 8140SOL     OW36398   3.191   1.508   9.466  1.0493 -0.1019  0.2135
 8140SOL    HW136399   3.191   1.562   9.387  0.8008 -0.5309 -0.0834
 8140SOL    HW236400   3.140   1.430   9.442  0.5803 -0.0262  0.9400
 8141SOL     OW36401  13.305   8.552   7.070 -0.7986  0.2249 -0.0654
 8141SOL    HW136402  13.373   8.576   7.132  0.8225 -0.9547 -1.3113
 8141SOL    HW236403  13.273   8.467   7.100  0.0867 -0.4156 -0.8647
 8142SOL     OW36404   1.776   9.354   7.264 -0.5044  0.6570 -0.2359
 8142SOL    HW136405   1.765   9.299   7.342 -0.4873  0.3577 -0.4433
 8142SOL    HW236406   1.690   9.394   7.251 -1.0846 -0.7848 -1.1767
 8143SOL     OW36407   6.649   5.780   6.441  0.3111 -0.4704  0.4813
 8143SOL    HW136408   6.652   5.719   6.367  1.7627  0.5245 -0.3119
 8143SOL    HW236409   6.696   5.734   6.511  0.7708 -0.5564  0.1182
 8144SOL     OW36410  12.327  13.774   7.803  0.1320  0.0557 -0.2862
 8144SOL    HW136411  12.338  13.846   7.865 -0.7880 -1.1828  1.4113
 8144SOL    HW236412  12.232  13.760   7.800  0.3036 -1.1509 -0.4657
 8145SOL     OW36413   9.114   9.338  11.209  0.4747 -0.5145  0.0997
 8145SOL    HW136414   9.175   9.401  11.245  1.1688 -0.8156 -0.5224
 8145SOL    HW236415   9.167   9.260  11.192 -0.0939 -0.8022 -0.3923
 8146SOL     OW36416   3.799   4.384  13.328  0.1071  0.5946 -0.5521
 8146SOL    HW136417   3.761   4.443  13.264  0.5805  2.3943  0.7648
 8146SOL    HW236418   3.725   4.354  13.380 -0.0446  0.5421 -0.7944
 8147SOL     OW36419  11.105   8.378   2.886 -0.5313 -0.3130 -0.6279
 8147SOL    HW136420  11.102   8.283   2.870 -0.3107 -0.6586  1.1269
 8147SOL    HW236421  11.197   8.401   2.873  0.1770 -1.0717  2.2824
 8148SOL     OW36422  12.445   6.133   0.195 -0.6297 -0.6125 -0.1218
 8148SOL    HW136423  12.369   6.191   0.189 -0.9449 -1.0843 -0.8907
 8148SOL    HW236424  12.431   6.069   0.125  0.9736 -0.1229 -0.9415
 8149SOL     OW36425   1.021   5.768  10.838  0.1614 -1.1379 -0.0035
 8149SOL    HW136426   1.064   5.715  10.904 -0.8010 -0.7121  0.9919
 8149SOL    HW236427   0.928   5.745  10.844 -0.1193 -0.1726 -0.3262
 8150SOL     OW36428   5.836   4.667   3.946 -0.2416 -0.1269 -0.2396
 8150SOL    HW136429   5.776   4.678   4.020  0.1143  0.5640 -0.0481
 8150SOL    HW236430   5.789   4.608   3.886 -0.4141 -0.9470  0.6648
 8151SOL     OW36431   8.108   5.743  13.008 -0.8490 -0.3913  0.0290
 8151SOL    HW136432   8.047   5.713  12.941  1.0554 -2.3291 -0.9392
 8151SOL    HW236433   8.177   5.788  12.959 -0.6789  0.3831  0.9522
 8152SOL     OW36434   1.392  12.110   3.655  0.5605 -0.2791  0.1537
 8152SOL    HW136435   1.333  12.050   3.700 -1.1711  0.6689 -0.7538
 8152SOL    HW236436   1.426  12.167   3.724  0.5060 -0.8916  0.6971
 8153SOL     OW36437  10.754   1.747  13.677  0.1445 -0.2275 -0.1591
 8153SOL    HW136438  10.836   1.740  13.724 -0.4266  1.8212  1.2812
 8153SOL    HW236439  10.770   1.814  13.610  0.4638 -1.9541 -1.9206
 8154SOL     OW36440   2.754   0.379   5.356  0.5264  0.0292  0.6816
 8154SOL    HW136441   2.662   0.371   5.333  0.7253 -1.1244  0.2162
 8154SOL    HW236442   2.755   0.438   5.431 -0.4855  0.8866  0.0485
 8155SOL     OW36443  13.213   7.863   5.098  0.1924  0.0398 -0.0015
 8155SOL    HW136444  13.180   7.882   5.186 -0.3519  1.5952 -0.4992
 8155SOL    HW236445  13.280   7.930   5.083  0.7228 -0.5921 -0.5440
 8156SOL     OW36446   4.511  13.797   5.744 -0.1581 -0.7144 -0.4684
 8156SOL    HW136447   4.486  13.750   5.824 -1.1940 -1.1581 -1.0325
 8156SOL    HW236448   4.435  13.850   5.722  0.4841  0.1565 -0.6302
 8157SOL     OW36449   7.942   9.234  10.302  0.3864  0.1696 -0.0473
 8157SOL    HW136450   7.994   9.202  10.376 -0.1024  1.5972  0.9848
 8157SOL    HW236451   7.852   9.210  10.324  0.1042  1.5118  0.3911
 8158SOL     OW36452  10.243   6.133   0.539  0.1110 -0.3832 -0.0880
 8158SOL    HW136453  10.253   6.178   0.454  1.8822 -0.7675 -0.1112
 8158SOL    HW236454  10.148   6.124   0.549 -0.1592 -1.4348 -2.6281
 8159SOL     OW36455   8.926  12.208   5.776  0.3449 -0.1923 -0.4717
 8159SOL    HW136456   8.858  12.216   5.709 -0.4764  3.7240  0.6014
 8159SOL    HW236457   8.988  12.146   5.739 -2.4638 -1.9734 -2.6479
 8160SOL     OW36458  12.407   2.542  10.396 -0.1519 -0.1690 -0.3620
 8160SOL    HW136459  12.444   2.630  10.401  0.3758 -0.3060 -1.4932
 8160SOL    HW236460  12.467   2.487  10.445 -0.1984  0.0137 -0.0997
 8161SOL     OW36461   0.762   6.135  10.974  0.6517 -0.4362  0.3003
 8161SOL    HW136462   0.811   6.079  11.034  1.9192  0.0199 -0.2694
 8161SOL    HW236463   0.813   6.133  10.893 -1.9873 -2.6167 -1.5034
 8162SOL     OW36464   1.292   7.038   4.414 -0.2053  0.3730  0.0057
 8162SOL    HW136465   1.296   7.096   4.338  1.3153 -0.2708 -0.4489
 8162SOL    HW236466   1.206   6.996   4.407 -1.8683  3.3534  1.0228
 8163SOL     OW36467   5.208   2.471   7.178 -0.0095 -0.0148  0.0704
 8163SOL    HW136468   5.229   2.383   7.209  1.4403 -0.4254 -1.8820
 8163SOL    HW236469   5.247   2.475   7.091 -4.4882  0.7680 -2.1627
 8164SOL     OW36470  10.490   7.823  10.304  0.3601  0.4079 -0.0280
 8164SOL    HW136471  10.573   7.843  10.348  0.1998 -1.1684  1.0544
 8164SOL    HW236472  10.445   7.764  10.363 -0.4337 -0.7974 -1.7568
 8165SOL     OW36473   7.163   1.209   0.172 -0.0545 -0.1697 -0.4199
 8165SOL    HW136474   7.133   1.211   0.263  0.3021 -1.7507 -0.2321
 8165SOL    HW236475   7.112   1.139   0.131  1.6308 -1.2897 -0.7055
 8166SOL     OW36476   3.894  11.281   4.280 -0.4125  0.1188 -0.1725
 8166SOL    HW136477   3.934  11.361   4.312 -0.3004  0.1489 -0.3859
 8166SOL    HW236478   3.836  11.253   4.351 -0.4462  0.3823 -0.0951
 8167SOL     OW36479   8.225   4.876   1.311  0.4021 -0.0752  0.1288
 8167SOL    HW136480   8.272   4.835   1.239  0.6923 -1.0031  0.8337
 8167SOL    HW236481   8.292   4.891   1.378  0.2309  1.2122  0.0524
 8168SOL     OW36482   7.250   0.983  10.207  0.3745 -0.2037  0.3235
 8168SOL    HW136483   7.229   1.067  10.248 -1.4043  0.4587 -1.7568
 8168SOL    HW236484   7.296   1.007  10.126 -1.2943 -1.0778 -0.9581
 8169SOL     OW36485   8.359   4.562  13.760  0.0110 -0.3350  0.4676
 8169SOL    HW136486   8.434   4.566  13.820  1.0092  2.5327 -0.7721
 8169SOL    HW236487   8.380   4.491  13.700 -0.3009 -2.2695  2.5038
 8170SOL     OW36488  11.475   8.189   3.321  0.4564  0.5007  0.4034
 8170SOL    HW136489  11.565   8.206   3.293  0.8447  0.1915  1.3914
 8170SOL    HW236490  11.483   8.111   3.377 -0.5340  0.0419 -0.0837
 8171SOL     OW36491   5.829   2.927  10.276 -0.0295 -0.1746  0.1475
 8171SOL    HW136492   5.738   2.897  10.281  0.4907 -1.9165  0.0969
 8171SOL    HW236493   5.859   2.927  10.367 -0.7536  2.8587  0.4738
 8172SOL     OW36494  13.966   6.712  12.292 -0.0551 -0.1601 -0.3874
 8172SOL    HW136495  14.032   6.677  12.232 -0.5392 -1.0437 -0.4229
 8172SOL    HW236496  14.013   6.727  12.374  0.0867 -1.2789 -0.2543
 8173SOL     OW36497  13.228  11.815  11.467 -0.0377 -0.2067 -0.3911
 8173SOL    HW136498  13.139  11.782  11.454 -0.3677  0.3523  0.3517
 8173SOL    HW236499  13.275  11.742  11.510 -0.4597 -0.1100  0.2522
 8174SOL     OW36500   4.187   3.888   6.352 -0.3449  0.4931  0.0569
 8174SOL    HW136501   4.257   3.907   6.289 -0.8687  1.2811 -0.3071
 8174SOL    HW236502   4.225   3.825   6.412  0.7993  1.1781  0.0721
 8175SOL     OW36503  12.395   3.831   4.262 -0.2862 -0.4779 -0.0245
 8175SOL    HW136504  12.467   3.796   4.315 -0.1446 -0.1968 -0.0251
 8175SOL    HW236505  12.366   3.758   4.208  0.0995 -0.5581 -0.1285
 8176SOL     OW36506  12.897  11.430   0.552  0.2814 -0.2081  0.0123
 8176SOL    HW136507  12.947  11.355   0.584  0.0868 -1.1856 -1.8171
 8176SOL    HW236508  12.882  11.484   0.629 -1.4382 -3.0936  1.8798
 8177SOL     OW36509   5.185  13.949   8.594 -0.5990 -0.2661  0.2225
 8177SOL    HW136510   5.159  14.040   8.603 -0.8292 -0.1187 -1.6016
 8177SOL    HW236511   5.247  13.949   8.521  1.3642 -1.2276  1.7814
 8178SOL     OW36512   8.507   3.389   7.667 -0.4747  0.0176 -0.4784
 8178SOL    HW136513   8.594   3.401   7.705 -0.6640  0.6717 -0.2372
 8178SOL    HW236514   8.517   3.316   7.607  0.2824  0.1851 -0.5696
 8179SOL     OW36515   7.542   0.839  10.369 -0.1263 -0.0396 -0.2163
 8179SOL    HW136516   7.627   0.855  10.409 -0.3453  1.3941 -0.2632
 8179SOL    HW236517   7.554   0.863  10.277 -1.2408  2.9725  0.3045
 8180SOL     OW36518   4.996   4.305   2.950 -0.6253  0.3638 -0.2474
 8180SOL    HW136519   4.959   4.221   2.921 -2.2504  1.5411 -1.8221
 8180SOL    HW236520   5.042   4.338   2.873  2.1114 -0.1138  1.0800
 8181SOL     OW36521  13.286  10.621   6.486 -0.2577  0.1823  0.4135
 8181SOL    HW136522  13.222  10.648   6.552 -0.8504  0.3013 -0.2046
 8181SOL    HW236523  13.241  10.554   6.435 -0.5481  1.4984 -1.1387
 8182SOL     OW36524   0.775   8.651  10.313  0.1412  0.2224  0.0882
 8182SOL    HW136525   0.681   8.667  10.308 -0.5731 -3.1899 -0.1520
 8182SOL    HW236526   0.798   8.673  10.403 -0.7713  1.4288  0.0601
 8183SOL     OW36527   7.731  11.449  12.005 -0.6180 -0.6613  0.2257
 8183SOL    HW136528   7.812  11.499  11.991 -0.5474 -0.7636  0.2696
 8183SOL    HW236529   7.692  11.491  12.082 -0.4863 -0.7625  0.3507
 8184SOL     OW36530  12.972  11.726  13.170 -0.1657  0.1702 -0.2025
 8184SOL    HW136531  12.965  11.742  13.075 -0.1868  0.4878 -0.1501
 8184SOL    HW236532  13.060  11.755  13.193 -0.8390  1.9860  0.2233
 8185SOL     OW36533  13.678   1.816   6.661 -0.2072 -0.8363 -0.3067
 8185SOL    HW136534  13.675   1.888   6.724 -2.1856 -1.1474  0.0176
 8185SOL    HW236535  13.657   1.857   6.577 -1.8113 -1.0661 -0.0466
 8186SOL     OW36536  11.098   5.207   6.064 -0.3767 -0.0157 -0.2676
 8186SOL    HW136537  11.019   5.152   6.065  0.3334 -1.1446  2.4009
 8186SOL    HW236538  11.119   5.217   5.971 -3.5147  0.1869 -1.0803
 8187SOL     OW36539   6.378   4.091   6.307  0.2468 -0.5927 -0.6605
 8187SOL    HW136540   6.456   4.123   6.353  1.8120 -1.6314 -2.4292
 8187SOL    HW236541   6.313   4.160   6.320  2.6946  2.2983 -2.3697
 8188SOL     OW36542  10.433   9.647   1.437  0.0923  0.0443  0.3837
 8188SOL    HW136543  10.423   9.640   1.342 -0.8440  0.6841  0.4275
 8188SOL    HW236544  10.520   9.611   1.454  1.3384  2.1298 -1.0147
 8189SOL     OW36545  12.651  13.306   3.173 -0.2831 -0.1429 -0.1436
 8189SOL    HW136546  12.616  13.304   3.084 -1.2291 -2.1611  0.2017
 8189SOL    HW236547  12.574  13.319   3.229  0.3099  1.1750  0.4134
 8190SOL     OW36548   4.701   0.430   5.407  0.6361  0.1551  0.2049
 8190SOL    HW136549   4.729   0.511   5.364 -0.0718  0.3018  0.0184
 8190SOL    HW236550   4.723   0.443   5.500 -1.3883  1.4449  0.5582
 8191SOL     OW36551  10.566  12.125   2.620  0.0987 -0.0759  0.0077
 8191SOL    HW136552  10.594  12.145   2.531  3.1723 -0.1735  0.8320
 8191SOL    HW236553  10.497  12.189   2.638 -1.0570 -0.4716 -2.6016
 8192SOL     OW36554  12.504   6.504   5.448 -0.4052 -0.4698  0.0697
 8192SOL    HW136555  12.572   6.438   5.463 -0.2129 -0.3942 -0.4553
 8192SOL    HW236556  12.485   6.538   5.536  0.1748 -0.5493  0.2351
 8193SOL     OW36557  11.456   7.111  13.171  0.1286 -0.2073  0.2817
 8193SOL    HW136558  11.461   7.048  13.100 -0.5597  2.0881 -1.9540
 8193SOL    HW236559  11.410   7.065  13.241  0.6744 -2.5083 -0.7871
 8194SOL     OW36560  13.307   0.258   2.435 -0.3363  0.1138 -0.5774
 8194SOL    HW136561  13.309   0.352   2.415 -0.6810  0.2123 -0.1523
 8194SOL    HW236562  13.323   0.253   2.529  0.6083 -0.3113 -0.7476
 8195SOL     OW36563   2.408  11.101   8.656 -0.0360  0.0788  0.1820
 8195SOL    HW136564   2.462  11.039   8.705  0.5209  0.3041 -0.1282
 8195SOL    HW236565   2.318  11.081   8.682  0.1673 -0.5621  0.4218
 8196SOL     OW36566  13.763   8.598  11.008  0.0974 -0.2783 -0.5209
 8196SOL    HW136567  13.685   8.620  11.059  1.7868  0.7009  1.8188
 8196SOL    HW236568  13.754   8.505  10.988 -1.3454 -0.3294  0.2828
 8197SOL     OW36569   7.039   2.732   5.751  0.7487 -0.0095 -0.0246
 8197SOL    HW136570   6.998   2.786   5.683 -0.0186  0.4852  0.8116
 8197SOL    HW236571   6.966   2.700   5.804  0.9017 -3.7826 -1.7586
 8198SOL     OW36572   3.103   1.427  12.082 -0.2867  0.4591  0.2542
 8198SOL    HW136573   3.189   1.467  12.069  0.2751 -0.3864  1.1846
 8198SOL    HW236574   3.067   1.417  11.994  1.7687 -1.7062 -0.4355
 8199SOL     OW36575   3.287   6.950  13.090  0.2177  0.2536  0.1044
 8199SOL    HW136576   3.364   6.895  13.073  0.0021 -0.4016  1.1508
 8199SOL    HW236577   3.313   7.038  13.060 -0.0974 -0.6881 -3.3719
 8200SOL     OW36578   8.196   5.451   1.601  0.7155 -0.1318 -0.2068
 8200SOL    HW136579   8.183   5.541   1.569  0.2049 -0.2232 -0.2653
 8200SOL    HW236580   8.290   5.435   1.588  0.3017 -0.7528 -3.2956
 8201SOL     OW36581  11.355   4.620   8.472 -0.1367 -0.0402  0.6413
 8201SOL    HW136582  11.333   4.696   8.418 -2.1683 -1.1112 -0.1332
 8201SOL    HW236583  11.437   4.645   8.516 -0.1211  2.1111 -0.4735
 8202SOL     OW36584   9.637   7.437   0.547  0.0276 -0.3199 -0.9974
 8202SOL    HW136585   9.662   7.388   0.626 -0.0279 -0.5737 -1.1356
 8202SOL    HW236586   9.542   7.432   0.546 -0.2253  2.3865  0.6539
 8203SOL     OW36587  13.079   4.003  10.492  0.2316  0.1410 -0.2645
 8203SOL    HW136588  12.992   3.967  10.480  0.7181 -1.2880  0.2784
 8203SOL    HW236589  13.069   4.067  10.563 -0.5645  0.7992 -0.9540
 8204SOL     OW36590   8.102   3.087   0.322  0.3860  0.0485  0.0085
 8204SOL    HW136591   8.100   3.007   0.270  0.8977 -0.9926  1.5257
 8204SOL    HW236592   8.158   3.146   0.272  1.9465 -1.3785 -0.0315
 8205SOL     OW36593  13.604   2.397  12.588  0.5798 -0.1731 -0.4704
 8205SOL    HW136594  13.599   2.463  12.519  0.0126 -0.1684 -0.4280
 8205SOL    HW236595  13.541   2.331  12.562 -0.5027  0.3941  0.6432
 8206SOL     OW36596   5.536   0.967   0.564 -0.0957 -0.6418  0.5748
 8206SOL    HW136597   5.460   0.968   0.505 -0.3780 -0.3058  0.9333
 8206SOL    HW236598   5.506   0.916   0.639 -0.9649  1.7407  1.9671
 8207SOL     OW36599   2.976   0.642   6.387  0.3454 -0.1129 -0.1878
 8207SOL    HW136600   3.009   0.644   6.297 -2.2030  1.6042 -1.1880
 8207SOL    HW236601   2.985   0.550   6.414 -1.6414 -1.3951 -3.3658
 8208SOL     OW36602   4.898   8.430   2.521  0.0091 -0.0118 -0.0788
 8208SOL    HW136603   4.961   8.501   2.513 -0.8903  0.8371  0.1542
 8208SOL    HW236604   4.896   8.410   2.615 -0.5265  0.3941 -0.0027
 8209SOL     OW36605  11.548  11.110   6.768  0.5713 -0.2946  0.0503
 8209SOL    HW136606  11.589  11.047   6.828  0.3227 -0.2710  0.2484
 8209SOL    HW236607  11.457  11.113   6.795  0.6569  0.4372  0.2915
 8210SOL     OW36608   9.464  13.838   8.435 -0.3371  0.7904 -0.4397
 8210SOL    HW136609   9.509  13.817   8.517 -0.3054  0.9681 -0.4111
 8210SOL    HW236610   9.373  13.812   8.451 -0.4173  1.1987 -0.1996
 8211SOL     OW36611  10.753   4.432   7.679 -0.0808 -0.5398 -0.1669
 8211SOL    HW136612  10.819   4.380   7.726 -0.9252 -0.7164  0.8599
 8211SOL    HW236613  10.771   4.415   7.587  0.4419 -1.6808  0.1227
 8212SOL     OW36614   1.465  13.555   0.938 -0.0728 -0.3598  0.9726
 8212SOL    HW136615   1.406  13.497   0.890 -0.1467  0.3452  0.1887
 8212SOL    HW236616   1.411  13.589   1.009 -0.7200  0.4746  0.1159
 8213SOL     OW36617   9.297   7.516   1.235 -0.4138 -0.0873 -0.1372
 8213SOL    HW136618   9.251   7.489   1.156  0.7506  1.0475 -1.2470
 8213SOL    HW236619   9.338   7.599   1.212  0.5803 -0.1100  1.4151
 8214SOL     OW36620   9.268   9.936   1.896  0.1203  0.8634 -0.2781
 8214SOL    HW136621   9.290   9.885   1.818 -1.1812  0.2301 -0.2713
 8214SOL    HW236622   9.281  10.027   1.870 -1.8070  0.7857 -1.8205
 8215SOL     OW36623  12.553   8.933   0.371 -0.5825 -0.3653  0.4633
 8215SOL    HW136624  12.493   8.875   0.324  0.3339 -0.4726 -0.6131
 8215SOL    HW236625  12.607   8.973   0.302  0.6303 -0.3267  1.3981
 8216SOL     OW36626   3.822   2.035  10.087 -0.2141 -0.1247  0.5087
 8216SOL    HW136627   3.782   1.958  10.126 -1.8481  0.0743 -0.6884
 8216SOL    HW236628   3.757   2.067  10.024  1.1730  1.1761 -0.3300
 8217SOL     OW36629   6.944   4.527  11.722  0.1930  0.3629  0.2294
 8217SOL    HW136630   6.970   4.616  11.745  2.2686  0.1171 -0.9028
 8217SOL    HW236631   7.023   4.487  11.686 -0.6650 -1.9825  0.7516
 8218SOL     OW36632   6.798  12.915   2.053  0.3916 -0.3663 -0.3252
 8218SOL    HW136633   6.888  12.900   2.082 -0.0073 -0.5659  0.8644
 8218SOL    HW236634   6.753  12.949   2.131 -0.0815  1.7220 -1.4266
 8219SOL     OW36635   6.500   0.568   8.623  0.2740 -0.0297 -0.2940
 8219SOL    HW136636   6.443   0.502   8.584  0.1692  0.0723 -0.3151
 8219SOL    HW236637   6.458   0.652   8.602  0.2138  0.0252  0.0462
 8220SOL     OW36638  11.628   2.491  13.236 -0.0425  0.7648  0.4378
 8220SOL    HW136639  11.628   2.586  13.225  1.1652  0.8059  0.6141
 8220SOL    HW236640  11.699   2.474  13.298  0.6815 -0.3366 -0.6335
 8221SOL     OW36641   0.526   9.545  11.809 -0.2327  0.4423  0.2168
 8221SOL    HW136642   0.497   9.487  11.738  0.0124  0.5948 -0.0138
 8221SOL    HW236643   0.622   9.536  11.810 -0.2045  0.7296  0.2734
 8222SOL     OW36644  13.048  10.870   2.168  0.2077 -0.2375 -0.3391
 8222SOL    HW136645  13.124  10.850   2.223  0.4415  1.6367  0.1158
 8222SOL    HW236646  13.002  10.939   2.216 -1.7924 -1.2848 -0.6207
 8223SOL     OW36647   8.527   7.663   7.566 -0.1760 -0.0220 -0.3521
 8223SOL    HW136648   8.610   7.709   7.549  0.1537 -0.8350 -0.9772
 8223SOL    HW236649   8.551   7.590   7.623 -0.3248 -0.7073 -1.1465
 8224SOL     OW36650   9.066   4.196   2.244 -0.4735 -0.2830  0.1546
 8224SOL    HW136651   8.986   4.156   2.210 -0.2621 -1.2079  0.6824
 8224SOL    HW236652   9.069   4.167   2.336  0.6967 -0.6550  0.0190
 8225SOL     OW36653   1.798   9.424   7.599  0.4127  0.0735  0.2490
 8225SOL    HW136654   1.825   9.514   7.580 -0.9000 -0.0585 -2.9081
 8225SOL    HW236655   1.703   9.424   7.584 -0.0500 -1.3611  2.5969
 8226SOL     OW36656   7.664   3.411   1.656  0.0961  0.3600 -0.0743
 8226SOL    HW136657   7.570   3.391   1.650  0.1487  0.4124 -1.5045
 8226SOL    HW236658   7.682   3.463   1.578  1.3764  0.1124  0.0362
 8227SOL     OW36659   4.012   6.913  13.925  0.1837 -0.2600 -0.7566
 8227SOL    HW136660   4.105   6.938  13.926  0.1071  0.0225 -0.1464
 8227SOL    HW236661   4.007   6.834  13.978 -0.2014  0.8274  0.9309
 8228SOL     OW36662  11.896   5.171  11.117 -0.1036  0.2510  0.2309
 8228SOL    HW136663  11.852   5.107  11.172 -1.1851  1.4859  0.8795
 8228SOL    HW236664  11.911   5.246  11.174 -1.0043  1.4686 -1.0361
 8229SOL     OW36665   0.052   5.939   7.050 -0.0915  0.1246  0.3067
 8229SOL    HW136666  -0.041   5.920   7.066 -0.4838  1.0372 -0.7330
 8229SOL    HW236667   0.087   5.856   7.017 -0.5491 -0.2150  0.6532
 8230SOL     OW36668  12.344   9.293   6.173 -0.2702  0.5698 -0.0890
 8230SOL    HW136669  12.424   9.303   6.121 -0.3170  0.5704 -0.1612
 8230SOL    HW236670  12.303   9.213   6.139 -1.3713  1.6681 -1.4985
 8231SOL     OW36671   2.316   3.965   3.725 -0.0769 -0.0696  0.2384
 8231SOL    HW136672   2.304   3.981   3.632  1.0822 -0.8056 -0.0621
 8231SOL    HW236673   2.411   3.966   3.737 -0.2047 -0.3231  1.3514
 8232SOL     OW36674   9.227  12.851  12.741 -0.8629  0.2670 -0.2417
 8232SOL    HW136675   9.277  12.807  12.810  0.6887  0.8736 -0.9339
 8232SOL    HW236676   9.141  12.867  12.780 -0.2155  0.0570  1.3431
 8233SOL     OW36677   1.136   8.115   0.076  0.2919  0.1020 -0.0252
 8233SOL    HW136678   1.056   8.102   0.128  0.0898  1.3171 -0.0138
 8233SOL    HW236679   1.207   8.095   0.136  0.0598  1.4619  0.7441
 8234SOL     OW36680   7.693   5.883   2.339  0.7098  0.1313 -0.4807
 8234SOL    HW136681   7.712   5.913   2.428  0.5692  0.2805 -0.4994
 8234SOL    HW236682   7.727   5.794   2.335 -1.8887 -1.0289  0.6631
 8235SOL     OW36683  13.613  13.833  12.780  0.2919 -0.2621  0.4719
 8235SOL    HW136684  13.607  13.811  12.873  1.8692  0.0663  0.6782
 8235SOL    HW236685  13.697  13.796  12.752 -0.3978 -0.8212 -0.9697
 8236SOL     OW36686   1.140   1.244   1.850  0.3551 -0.0383 -0.6414
 8236SOL    HW136687   1.183   1.319   1.810  0.7621 -0.9321 -1.9558
 8236SOL    HW236688   1.210   1.178   1.858  0.2702  0.0542  1.4910
 8237SOL     OW36689  12.810  11.387   9.017 -0.2070  0.0288  0.3721
 8237SOL    HW136690  12.723  11.426   9.016 -1.2590 -2.1197  0.6759
 8237SOL    HW236691  12.829  11.375   9.110 -0.7060 -1.6666  0.3032
 8238SOL     OW36692   9.858  13.682   3.834 -1.0849 -0.4941  0.3763
 8238SOL    HW136693   9.842  13.627   3.757 -0.2835 -0.0610 -0.1168
 8238SOL    HW236694   9.891  13.764   3.798 -0.2427 -0.4581  1.1958
 8239SOL     OW36695   4.675   2.352  13.132 -0.0166 -0.3591  0.2049
 8239SOL    HW136696   4.754   2.326  13.084 -0.2899 -1.3468  0.2648
 8239SOL    HW236697   4.700   2.348  13.224  0.1566  0.3570  0.1965
 8240SOL     OW36698   8.110   5.039  10.571  0.2971 -0.3969 -0.3006
 8240SOL    HW136699   8.086   4.980  10.499  1.2834 -0.3182 -0.7127
 8240SOL    HW236700   8.087   4.991  10.650  1.9331 -1.7824 -0.5840
 8241SOL     OW36701  13.020   4.154   3.466  0.9170 -0.3015 -0.4028
 8241SOL    HW136702  12.936   4.183   3.502  0.2965  2.0535 -3.3015
 8241SOL    HW236703  13.014   4.059   3.463 -0.6800 -0.3227  1.5001
 8242SOL     OW36704   5.884   5.612   8.210  0.5350 -0.0133 -0.3883
 8242SOL    HW136705   5.848   5.612   8.121 -1.2372  0.7368  0.2888
 8242SOL    HW236706   5.893   5.704   8.232 -0.9277 -0.1404  0.9028
 8243SOL     OW36707  13.556  11.440   6.564 -0.3674  0.3319  0.9017
 8243SOL    HW136708  13.576  11.358   6.609  1.0199  0.0001 -0.2352
 8243SOL    HW236709  13.633  11.456   6.509 -1.3634  1.4847 -0.2142
 8244SOL     OW36710   1.005  12.569  11.846 -0.0441 -0.7725 -0.2405
 8244SOL    HW136711   1.021  12.492  11.901 -1.6233 -1.0341 -0.1124
 8244SOL    HW236712   1.004  12.534  11.757 -1.3399 -1.0396 -0.1468
 8245SOL     OW36713  13.910   4.561   2.119 -0.5573  0.2666  0.4301
 8245SOL    HW136714  13.939   4.640   2.166 -0.2796 -1.1798  2.8309
 8245SOL    HW236715  13.991   4.512   2.104 -0.8194  0.0710 -0.3712
 8246SOL     OW36716   7.145   7.781   6.656 -0.1224 -0.1902  0.3848
 8246SOL    HW136717   7.191   7.706   6.620 -0.0519 -0.6966  1.4752
 8246SOL    HW236718   7.171   7.855   6.601  1.9735 -0.4520  0.9376
 8247SOL     OW36719   1.346   6.812  10.689 -0.2521 -0.0367 -0.0664
 8247SOL    HW136720   1.428   6.770  10.715 -0.3014  0.6636  1.3708
 8247SOL    HW236721   1.293   6.810  10.769 -0.8637  1.2605 -0.4165
 8248SOL     OW36722   2.192  13.734  13.117 -0.0261 -0.0078  0.0502
 8248SOL    HW136723   2.176  13.664  13.053  0.3963  0.0733 -0.1460
 8248SOL    HW236724   2.230  13.689  13.192  0.1230 -0.0103 -0.0256
 8249SOL     OW36725   8.104   8.721   3.488  0.7162 -0.1481  0.5638
 8249SOL    HW136726   8.072   8.727   3.578  0.5389 -0.8048  0.5534
 8249SOL    HW236727   8.116   8.627   3.474 -2.4196 -0.4266 -1.1738
 8250SOL     OW36728   7.416   5.368  12.015 -0.7072 -0.2099 -0.3894
 8250SOL    HW136729   7.383   5.323  12.092 -0.5229  0.1272 -0.1082
 8250SOL    HW236730   7.372   5.326  11.941 -0.4336 -0.9450 -0.1463
 8251SOL     OW36731   0.287   8.122   6.293  0.1573  0.1753 -0.0816
 8251SOL    HW136732   0.224   8.185   6.258 -1.8484 -2.0899 -0.8339
 8251SOL    HW236733   0.250   8.095   6.376  1.7848  1.0098  0.9758
 8252SOL     OW36734   5.907   9.804   5.168  0.6947 -0.0181  0.1522
 8252SOL    HW136735   5.863   9.763   5.093 -1.5257 -1.0290  1.9083
 8252SOL    HW236736   5.964   9.736   5.203  0.0087 -0.3221  0.7022
 8253SOL     OW36737   3.354   9.955   5.277 -0.0441  0.7035  0.3136
 8253SOL    HW136738   3.429   9.994   5.321 -0.2427 -0.1443  1.4354
 8253SOL    HW236739   3.287  10.023   5.280 -0.3460  0.3576  2.1324
 8254SOL     OW36740   2.982   0.460   4.117  0.1952 -0.3640  0.2805
 8254SOL    HW136741   2.907   0.413   4.079  0.7041 -0.5641 -0.5038
 8254SOL    HW236742   3.037   0.391   4.154 -0.0309 -0.2111  0.9145
 8255SOL     OW36743  10.293   5.466  10.366 -0.1688  0.0027  0.6467
 8255SOL    HW136744  10.216   5.515  10.396 -0.6611 -0.1622 -0.3025
 8255SOL    HW236745  10.313   5.406  10.438 -1.7896 -0.9286  0.3697
 8256SOL     OW36746   1.199   5.955   5.168 -0.1691 -0.0014 -0.5330
 8256SOL    HW136747   1.123   6.012   5.178 -0.7873 -0.6837 -1.2100
 8256SOL    HW236748   1.164   5.873   5.132  0.8442 -0.4272 -0.5998
 8257SOL     OW36749   4.082  10.712   1.687 -0.8623 -0.0265 -0.1857
 8257SOL    HW136750   4.124  10.797   1.693 -1.5731  0.3182  0.0160
 8257SOL    HW236751   4.042  10.698   1.773 -0.3989 -0.7546 -0.0766
 8258SOL     OW36752  12.535   1.293   4.003 -0.4965  0.6373  0.1372
 8258SOL    HW136753  12.549   1.298   4.098 -0.6021  2.2155  0.0913
 8258SOL    HW236754  12.462   1.353   3.987  1.0089  2.1550 -1.2271
 8259SOL     OW36755   7.725   7.330   9.142  0.1700 -0.1661 -0.7683
 8259SOL    HW136756   7.708   7.409   9.192  0.8416 -0.2625 -0.3729
 8259SOL    HW236757   7.792   7.284   9.192  0.1605 -0.7305 -1.2623
 8260SOL     OW36758   1.207   1.698  11.571 -0.3998 -0.3399 -0.3398
 8260SOL    HW136759   1.166   1.773  11.528 -0.2013 -0.3075 -0.4749
 8260SOL    HW236760   1.139   1.663  11.629  0.1260  1.1768  1.3007
 8261SOL     OW36761  12.147   8.229   8.298  0.1065  0.0033 -0.2758
 8261SOL    HW136762  12.181   8.247   8.385  1.1210  0.2078 -0.6922
 8261SOL    HW236763  12.128   8.315   8.261  1.7467  0.0902 -1.0282
 8262SOL     OW36764   2.975   9.798  12.635 -0.4505  0.1128 -0.4227
 8262SOL    HW136765   2.970   9.752  12.719 -2.3774  0.1488 -0.4790
 8262SOL    HW236766   2.929   9.740  12.574 -2.0890  1.6359 -0.6942
 8263SOL     OW36767   5.346  10.488  12.867 -0.2111  0.2221  0.0153
 8263SOL    HW136768   5.310  10.568  12.827 -1.6418 -0.9485 -1.1630
 8263SOL    HW236769   5.269  10.435  12.888  0.6515 -0.4031  1.8510
 8264SOL     OW36770   2.219  12.986   2.768 -0.3833  0.3857  0.0561
 8264SOL    HW136771   2.214  12.917   2.701  0.3259 -1.0611  1.4298
 8264SOL    HW236772   2.128  13.003   2.791 -0.5869  0.2183 -0.5885
 8265SOL     OW36773   8.423   1.662   3.322 -0.5735  0.1358 -0.1302
 8265SOL    HW136774   8.402   1.676   3.230  2.4960 -1.3554 -1.1680
 8265SOL    HW236775   8.390   1.574   3.342 -0.7775  0.2567  0.0847
 8266SOL     OW36776  10.366  10.073  10.974  0.6021  0.6735 -0.1865
 8266SOL    HW136777  10.443  10.046  10.925 -0.3369  1.4398 -2.1897
 8266SOL    HW236778  10.308  10.113  10.909 -1.2029  0.7544  1.3609
 8267SOL     OW36779   5.177   3.615   4.033 -0.1175 -0.4331  0.4909
 8267SOL    HW136780   5.210   3.666   4.107 -0.3289 -1.6550  1.4737
 8267SOL    HW236781   5.097   3.660   4.006  1.6655  1.9328 -1.1980
 8268SOL     OW36782   1.981  11.847   7.419  0.1054 -0.1872  0.2366
 8268SOL    HW136783   2.035  11.819   7.493  1.4741 -1.4561 -1.1504
 8268SOL    HW236784   2.030  11.818   7.342 -1.8811 -0.0648 -1.1429
 8269SOL     OW36785   8.620   2.811  11.705  0.5654  0.8535  0.5047
 8269SOL    HW136786   8.651   2.772  11.787  1.6036 -0.3656 -0.4282
 8269SOL    HW236787   8.692   2.869  11.678  0.4444  0.8657  0.2098
 8270SOL     OW36788   7.865   2.062  10.574  0.6266 -0.1790 -0.5168
 8270SOL    HW136789   7.828   2.088  10.659 -0.0537  0.0401 -0.8680
 8270SOL    HW236790   7.794   2.015  10.531  1.0901 -0.6006 -0.8219
 8271SOL     OW36791   2.749  12.942  12.071  0.1972  0.5773 -0.1431
 8271SOL    HW136792   2.739  12.854  12.106 -0.0950  0.9645  0.7778
 8271SOL    HW236793   2.659  12.972  12.057  0.2628 -0.4148 -3.4938
 8272SOL     OW36794   5.736  12.377   3.063 -0.0151 -0.0858  0.0677
 8272SOL    HW136795   5.764  12.457   3.018  1.4270 -0.4331  0.2900
 8272SOL    HW236796   5.769  12.306   3.008 -1.0709 -0.5412  0.0057
 8273SOL     OW36797   4.231   8.394   4.068 -0.5444 -0.4138 -0.3415
 8273SOL    HW136798   4.167   8.335   4.107  1.0492 -0.5237  2.3574
 8273SOL    HW236799   4.294   8.337   4.025 -0.6279 -0.5089 -0.3366
 8274SOL     OW36800   1.903   3.385  11.917 -0.1245  0.1241  0.5968
 8274SOL    HW136801   1.935   3.454  11.859  0.7934 -2.1799 -1.8423
 8274SOL    HW236802   1.981   3.353  11.962 -0.1387 -0.9070 -0.1021
 8275SOL     OW36803   0.474  10.483   9.127  0.6632  0.3663 -0.7882
 8275SOL    HW136804   0.524  10.551   9.081 -1.3022  1.4474 -1.4397
 8275SOL    HW236805   0.503  10.489   9.218  1.4190  1.2270 -1.0691
 8276SOL     OW36806  12.909   3.896   8.828 -0.1292  0.5309 -0.0158
 8276SOL    HW136807  12.907   3.822   8.768  1.4163  1.1863 -0.9374
 8276SOL    HW236808  12.974   3.956   8.791 -0.7155  1.9662  1.1530
 8277SOL     OW36809  11.467  10.243   2.417  0.3244  0.2019 -0.2648
 8277SOL    HW136810  11.550  10.265   2.375  0.1488  1.2780 -0.0698
 8277SOL    HW236811  11.450  10.315   2.477 -2.0922  1.4594 -2.2577
 8278SOL     OW36812   3.012  11.981  12.236  0.0840 -0.1880 -0.2957
 8278SOL    HW136813   3.096  11.996  12.281 -0.3857  1.3873  0.1196
 8278SOL    HW236814   3.034  11.989  12.143  0.2442  1.1868 -0.1571
 8279SOL     OW36815   7.149   2.403   3.308  0.8516 -0.2650  0.3685
 8279SOL    HW136816   7.209   2.353   3.362  0.2465 -0.0349  1.2648
 8279SOL    HW236817   7.067   2.355   3.311  0.1046  1.0038  1.6760
 8280SOL     OW36818   2.625   5.097  10.928  0.5900 -0.2471  0.2393
 8280SOL    HW136819   2.570   5.024  10.900  1.1387 -1.0323  1.1559
 8280SOL    HW236820   2.638   5.149  10.848 -0.0055 -1.0191 -0.3738
 8281SOL     OW36821   3.438   7.260  10.353  0.1843 -0.3303  0.1985
 8281SOL    HW136822   3.515   7.316  10.346 -1.0225  1.5166  0.9652
 8281SOL    HW236823   3.473   7.172  10.367  2.1703  0.0313 -1.8430
 8282SOL     OW36824   8.671   6.249  11.928  0.6233  0.0445  0.0424
 8282SOL    HW136825   8.673   6.213  12.017 -1.8482 -0.0571  0.1268
 8282SOL    HW236826   8.760   6.277  11.912  1.3893 -0.9554  2.1349
 8283SOL     OW36827   9.631   7.231   6.550 -0.2818  0.1875  0.1220
 8283SOL    HW136828   9.719   7.261   6.525 -0.9790  1.6650 -0.7590
 8283SOL    HW236829   9.574   7.302   6.521 -1.7953 -0.8637  0.4472
 8284SOL     OW36830  11.900   3.199   3.107 -0.6277  0.0285 -0.0828
 8284SOL    HW136831  11.945   3.147   3.174 -1.5371 -0.5075  0.1267
 8284SOL    HW236832  11.966   3.261   3.077  0.0872 -0.3767  0.6092
 8285SOL     OW36833   6.822   1.260   6.808  0.0056 -0.3915 -0.4228
 8285SOL    HW136834   6.768   1.197   6.855  1.5444 -2.3104 -1.1062
 8285SOL    HW236835   6.829   1.224   6.719  0.6108  0.9558 -0.9517
 8286SOL     OW36836   6.351   0.335   3.199 -0.3327 -0.0688 -0.1214
 8286SOL    HW136837   6.315   0.423   3.195  0.2324  0.1765  0.0798
 8286SOL    HW236838   6.444   0.348   3.218 -0.3013 -0.7181  0.1942
 8287SOL     OW36839   9.625   0.098   9.737 -0.1856  0.0933  0.2193
 8287SOL    HW136840   9.652   0.181   9.699  0.6834 -0.2836  0.0091
 8287SOL    HW236841   9.706   0.055   9.764 -0.6394 -0.5787  0.5675
 8288SOL     OW36842   7.777   1.712   0.845 -0.2950 -0.3856 -0.1716
 8288SOL    HW136843   7.835   1.786   0.859  0.1679 -0.7581 -0.1178
 8288SOL    HW236844   7.771   1.703   0.750  2.9740 -2.8261 -0.3114
 8289SOL     OW36845   3.208  10.606  12.870  0.1313  0.3274 -0.2374
 8289SOL    HW136846   3.217  10.529  12.926 -0.4346  1.1416  1.0181
 8289SOL    HW236847   3.292  10.652  12.878  0.3824 -0.0256 -0.7972
 8290SOL     OW36848   7.921   2.452   0.115  0.0810  0.2550 -0.1841
 8290SOL    HW136849   7.908   2.476   0.023 -1.6725  0.0406 -0.0273
 8290SOL    HW236850   8.012   2.423   0.119  0.4586  1.0936 -1.6545
 8291SOL     OW36851   3.692   1.457  13.852  0.4491 -0.1482 -0.6142
 8291SOL    HW136852   3.656   1.390  13.793 -0.8459 -0.2530  0.2425
 8291SOL    HW236853   3.743   1.408  13.916  0.3303 -0.2155 -0.5709
 8292SOL     OW36854   7.820   4.954   1.567  0.4168  0.3623 -0.5627
 8292SOL    HW136855   7.728   4.933   1.580  0.6697 -0.7692 -0.5375
 8292SOL    HW236856   7.844   4.910   1.485  1.1578 -0.1212 -0.1035
 8293SOL     OW36857  11.599   2.080   5.607  0.2375  0.0424 -0.1834
 8293SOL    HW136858  11.670   2.139   5.580 -1.0803  1.5026 -0.6074
 8293SOL    HW236859  11.635   1.992   5.595  1.0633  0.6767 -2.9926
 8294SOL     OW36860  10.254   1.424   2.076 -0.1023  0.1060 -0.6971
 8294SOL    HW136861  10.349   1.431   2.074 -0.0347 -0.7534 -2.3054
 8294SOL    HW236862  10.238   1.333   2.102 -0.5574  0.7962  1.6347
 8295SOL     OW36863   3.492  12.119  11.249 -0.4477 -0.5941  0.1689
 8295SOL    HW136864   3.405  12.159  11.248 -0.6970 -1.0582  1.3710
 8295SOL    HW236865   3.482  12.040  11.302  1.1814  0.5204  2.3102
 8296SOL     OW36866   4.242   5.108   8.063  0.5556 -0.3836  0.0264
 8296SOL    HW136867   4.304   5.077   7.997 -0.8074 -0.9460 -1.0129
 8296SOL    HW236868   4.206   5.189   8.027  0.1507 -0.4384  0.2947
 8297SOL     OW36869  11.114   4.439   9.035  1.0762  0.2700 -0.7129
 8297SOL    HW136870  11.136   4.380   8.962  0.8475  1.7334 -2.0288
 8297SOL    HW236871  11.023   4.417   9.056  0.7064  0.6825 -1.7786
 8298SOL     OW36872  11.373   0.468   1.666 -0.4085 -0.2065 -0.2764
 8298SOL    HW136873  11.338   0.458   1.577  2.4658 -2.9554 -1.2902
 8298SOL    HW236874  11.452   0.520   1.656  1.0144 -2.1227  0.2187
 8299SOL     OW36875   2.491   3.538   4.578  0.5793 -0.1619 -0.3147
 8299SOL    HW136876   2.438   3.466   4.613  1.3120  0.7609  3.0278
 8299SOL    HW236877   2.492   3.604   4.647  2.7960  1.6048 -1.8562
 8300SOL     OW36878   3.197   5.112  11.009 -0.6393 -0.3400 -0.7268
 8300SOL    HW136879   3.194   5.100  11.103  1.0134  0.9792 -0.4573
 8300SOL    HW236880   3.132   5.051  10.974 -0.9610 -1.1544  1.2152
 8301SOL     OW36881  10.871  12.759   2.523  0.2323  0.3835 -0.0556
 8301SOL    HW136882  10.882  12.692   2.590 -0.2273 -0.0090 -0.3611
 8301SOL    HW236883  10.850  12.709   2.443  1.3764  0.7997 -0.6365
 8302SOL     OW36884  10.187  10.051   4.223 -0.1369 -0.1091 -0.4573
 8302SOL    HW136885  10.276  10.083   4.241 -1.1904  1.8781  1.6225
 8302SOL    HW236886  10.190   9.959   4.248  1.1782  0.0939  0.2625
 8303SOL     OW36887   7.120   0.117  11.990 -0.0725 -0.2328  0.7631
 8303SOL    HW136888   7.154   0.088  11.906 -0.2651 -0.3368  0.7211
 8303SOL    HW236889   7.091   0.037  12.034  0.7734 -0.2748  1.2662
 8304SOL     OW36890   7.222   8.116   0.401 -0.3083 -0.3073 -0.6560
 8304SOL    HW136891   7.129   8.137   0.392 -0.3061  0.1450  0.2408
 8304SOL    HW236892   7.253   8.175   0.470  0.3881 -1.2277 -0.1695
 8305SOL     OW36893   3.254   2.360   5.382 -0.1026 -0.1321  0.0705
 8305SOL    HW136894   3.276   2.267   5.392  0.7234  0.0297 -0.1836
 8305SOL    HW236895   3.307   2.389   5.308 -0.8393  0.3916 -0.2534
 8306SOL     OW36896   7.532   1.149   1.273  0.5357 -0.6405 -0.5878
 8306SOL    HW136897   7.598   1.154   1.204  1.4492 -0.3274  0.2912
 8306SOL    HW236898   7.551   1.224   1.329 -0.0025 -1.0684  0.1809
 8307SOL     OW36899   6.217   7.608   2.801 -0.1251  0.0768  0.2537
 8307SOL    HW136900   6.245   7.649   2.718  1.5828  0.3316  0.9044
 8307SOL    HW236901   6.250   7.667   2.869 -1.9177  0.1272  1.1461
 8308SOL     OW36902  12.912   4.432   0.885 -0.2920 -0.3712  0.3160
 8308SOL    HW136903  12.978   4.369   0.857  1.2139  0.0764  2.5808
 8308SOL    HW236904  12.931   4.511   0.834 -0.0871 -0.7230 -0.1637
 8309SOL     OW36905  13.512  13.889   4.662  0.1364 -0.8909 -0.1484
 8309SOL    HW136906  13.483  13.962   4.717 -1.2437 -2.0378  0.7417
 8309SOL    HW236907  13.460  13.898   4.581  1.5228  0.2910 -0.9435
 8310SOL     OW36908   6.528   3.304  11.637 -0.1310  0.5956  0.3345
 8310SOL    HW136909   6.476   3.306  11.717 -2.9239 -1.1280 -1.3089
 8310SOL    HW236910   6.472   3.343  11.570  0.8350 -0.9146 -1.4409
 8311SOL     OW36911   2.492   3.955   9.368  0.2215  0.2334 -0.4251
 8311SOL    HW136912   2.501   3.954   9.273  0.0420  0.0831 -0.4408
 8311SOL    HW236913   2.546   4.029   9.397  0.8703 -0.1651 -0.5851
 8312SOL     OW36914   1.981   3.276   2.471 -0.3057  0.1824  0.0570
 8312SOL    HW136915   2.065   3.232   2.459 -0.2019  0.7827 -1.7317
 8312SOL    HW236916   2.004   3.363   2.505 -0.1985  0.3502 -0.4423
 8313SOL     OW36917   0.557   5.519  10.016  0.4801 -0.1563  0.0565
 8313SOL    HW136918   0.563   5.508   9.922 -1.8895  1.1540 -0.3292
 8313SOL    HW236919   0.608   5.447  10.052  0.8616 -1.0909 -2.2082
 8314SOL     OW36920   7.420   0.853   0.047 -0.1058  0.0435 -0.3319
 8314SOL    HW136921   7.396   0.764   0.075  3.3878 -1.3518 -1.2311
 8314SOL    HW236922   7.433   0.901   0.129  0.5548 -1.0896  0.2549
 8315SOL     OW36923   2.290   1.819  10.302  0.1646  0.6460  0.1838
 8315SOL    HW136924   2.361   1.756  10.315  1.6891  2.0426 -0.7971
 8315SOL    HW236925   2.211   1.767  10.298  1.0311 -0.9335  2.0441
 8316SOL     OW36926   7.203  12.381  10.347  0.2313  0.1989  0.3577
 8316SOL    HW136927   7.117  12.416  10.367  0.0129  0.2573 -0.6394
 8316SOL    HW236928   7.189  12.325  10.271  0.9457 -0.3738  0.6338
 8317SOL     OW36929  11.962   5.745   3.054 -0.9104  0.2258 -0.0432
 8317SOL    HW136930  11.877   5.712   3.027 -0.2545 -2.0456  0.5117
 8317SOL    HW236931  11.952   5.841   3.050 -3.4310  0.0346 -0.0684
 8318SOL     OW36932   0.871  11.872   3.071  0.6006 -0.4772  0.2197
 8318SOL    HW136933   0.810  11.936   3.035 -0.8078 -1.5721  0.5795
 8318SOL    HW236934   0.916  11.920   3.141  0.5729  0.5141 -0.4155
 8319SOL     OW36935   1.421   2.017   4.828  0.2498  0.5975 -0.2229
 8319SOL    HW136936   1.507   2.036   4.865  0.8158 -0.2112 -1.0810
 8319SOL    HW236937   1.439   1.975   4.745 -0.9390 -1.4091  0.4595
 8320SOL     OW36938  10.698  13.116  11.020 -0.2645 -0.0914  0.0867
 8320SOL    HW136939  10.693  13.209  11.043 -0.7739  0.2401 -1.2486
 8320SOL    HW236940  10.772  13.111  10.959 -1.0878 -0.2861 -0.9387
 8321SOL     OW36941  13.489   7.276  11.568  0.1232  0.1370  0.4273
 8321SOL    HW136942  13.461   7.341  11.503  0.9352 -1.4058 -1.5830
 8321SOL    HW236943  13.548   7.323  11.626 -0.0910  1.4189 -0.3686
 8322SOL     OW36944  11.370  10.542   7.778  0.4487 -0.1762 -0.1009
 8322SOL    HW136945  11.412  10.473   7.726  2.3976  0.1309  0.9529
 8322SOL    HW236946  11.346  10.609   7.715  0.3189 -0.9630 -0.9097
 8323SOL     OW36947  12.776   5.638   0.971 -0.0372 -0.0933  0.0512
 8323SOL    HW136948  12.787   5.620   0.877  0.1014 -0.9750  0.2295
 8323SOL    HW236949  12.864   5.663   1.000 -0.2265  0.9330 -0.1911
 8324SOL     OW36950   0.177   0.136   3.450  0.2502 -0.1292 -0.8294
 8324SOL    HW136951   0.255   0.087   3.477 -1.4740 -1.4103  2.2247
 8324SOL    HW236952   0.162   0.198   3.522 -0.3118  1.7006 -2.4432
 8325SOL     OW36953   4.946  12.298  11.267  0.2012 -0.0075 -0.3321
 8325SOL    HW136954   4.893  12.234  11.219  0.7781 -0.4658 -0.3614
 8325SOL    HW236955   5.007  12.246  11.319  0.1168  0.5023  0.2922
 8326SOL     OW36956   3.858  12.744   1.849  0.7373  0.0104  0.1524
 8326SOL    HW136957   3.929  12.712   1.793  1.2107 -0.2772  0.8999
 8326SOL    HW236958   3.811  12.665   1.875 -1.3536  0.3611 -2.2424
 8327SOL     OW36959   9.492  13.031   7.728  0.1234  0.0028  0.3734
 8327SOL    HW136960   9.509  12.987   7.644 -1.3368 -0.1369  0.1227
 8327SOL    HW236961   9.577  13.062   7.756  0.6823 -0.1267 -1.0752
 8328SOL     OW36962   5.846   1.898   1.300 -0.0215  0.0729 -0.1741
 8328SOL    HW136963   5.867   1.934   1.386  1.5383 -0.3403 -0.3620
 8328SOL    HW236964   5.808   1.972   1.252 -0.0050  0.5561  0.5364
 8329SOL     OW36965   2.866  10.479   7.542  0.1045 -0.2057 -0.0990
 8329SOL    HW136966   2.888  10.463   7.634 -2.6574 -0.8548  0.5374
 8329SOL    HW236967   2.833  10.569   7.541  0.2442 -0.1567 -0.4950
 8330SOL     OW36968   6.305   4.139   1.419 -0.4284  0.3101  0.3646
 8330SOL    HW136969   6.305   4.161   1.512 -0.0761  0.0033  0.4383
 8330SOL    HW236970   6.355   4.210   1.378 -0.1018  0.1507  0.4823
 8331SOL     OW36971   1.915  13.466   8.211  0.1982  0.5452  0.0129
 8331SOL    HW136972   1.961  13.521   8.273  0.7530  0.0200  0.0779
 8331SOL    HW236973   1.838  13.517   8.185  0.8242  1.4305 -0.1060
 8332SOL     OW36974   6.889   2.556  10.733 -0.1391  0.3712 -0.2223
 8332SOL    HW136975   6.923   2.467  10.726 -0.2039  0.3597 -0.3784
 8332SOL    HW236976   6.873   2.567  10.827  1.6246  0.8680  0.0657
 8333SOL     OW36977   2.013  12.409   7.738 -0.4564  0.1974 -0.7463
 8333SOL    HW136978   2.090  12.436   7.688 -0.9246  0.7614 -1.1755
 8333SOL    HW236979   1.987  12.487   7.787  0.2053 -0.4349  0.6892
 8334SOL     OW36980  12.675  13.524   1.198 -0.3230 -0.1662  0.3299
 8334SOL    HW136981  12.659  13.517   1.103 -0.4203 -2.6880  0.4641
 8334SOL    HW236982  12.595  13.488   1.238 -0.2688  0.8509  1.3851
 8335SOL     OW36983   7.571   9.528   7.899 -0.3372  0.5030 -0.6728
 8335SOL    HW136984   7.579   9.614   7.856 -2.0296  1.1916  0.3079
 8335SOL    HW236985   7.480   9.503   7.887 -0.3659 -0.2075  0.8044
 8336SOL     OW36986  12.422  12.904  12.374 -0.1503 -0.1266 -0.3562
 8336SOL    HW136987  12.380  12.885  12.457  0.8734  0.9435  0.4468
 8336SOL    HW236988  12.394  12.993  12.353  2.8290  1.2842  1.0268
 8337SOL     OW36989   4.297   0.805   6.562  0.4364  0.8512  0.1921
 8337SOL    HW136990   4.303   0.711   6.547  1.7924  0.2198  3.6721
 8337SOL    HW236991   4.359   0.843   6.500  0.8492 -0.6946 -0.3943
 8338SOL     OW36992  12.440   8.450   2.574 -0.2262 -0.5462 -0.1910
 8338SOL    HW136993  12.434   8.414   2.662 -0.0608  0.1171  0.1011
 8338SOL    HW236994  12.454   8.374   2.518 -0.4196 -0.9834  0.3437
 8339SOL     OW36995   2.910   0.560  10.583 -0.0231 -0.0048 -0.2546
 8339SOL    HW136996   2.864   0.635  10.620 -1.4497 -1.2258  0.5214
 8339SOL    HW236997   2.987   0.548  10.639 -0.6670 -0.1175  0.6149
 8340SOL     OW36998  13.129   1.660  13.336  0.3916 -0.2284 -0.5232
 8340SOL    HW136999  13.136   1.754  13.320 -1.0899  0.5590  2.6042
 8340SOL    HW237000  13.217   1.634  13.366  0.3877  0.5664  0.2130
 8341SOL     OW37001   5.004   6.805   0.337 -0.0123 -0.4018  0.1711
 8341SOL    HW137002   4.963   6.769   0.415 -1.8448 -0.3038 -0.7037
 8341SOL    HW237003   5.018   6.898   0.358 -1.4683 -0.1281  0.0383
 8342SOL     OW37004   1.109   6.042   7.993 -0.5381  0.2611  0.0735
 8342SOL    HW137005   1.089   6.018   7.903 -0.7985 -1.5848  0.5783
 8342SOL    HW237006   1.043   5.996   8.045  0.8360 -0.3627  1.3345
 8343SOL     OW37007   8.142   1.798  13.462  0.3226 -0.0354  0.2955
 8343SOL    HW137008   8.215   1.858  13.475  0.4150  0.4876 -2.1568
 8343SOL    HW237009   8.065   1.855  13.460  0.1004 -0.3220  0.5879
 8344SOL     OW37010   3.812   3.608   1.766  0.1932  0.4555 -0.3673
 8344SOL    HW137011   3.811   3.704   1.761  1.2984  0.4878 -0.2724
 8344SOL    HW237012   3.902   3.584   1.745 -0.3265 -0.6344 -1.4476
 8345SOL     OW37013   1.659  13.341   9.203 -0.0107 -0.8643 -0.5050
 8345SOL    HW137014   1.578  13.292   9.186  0.0708 -1.2801  0.2344
 8345SOL    HW237015   1.714  13.325   9.126 -0.6981 -0.4207 -1.1019
 8346SOL     OW37016   5.065   8.628   5.336  0.1338  0.0383  0.0431
 8346SOL    HW137017   5.119   8.708   5.341 -0.9842  0.7791  0.8413
 8346SOL    HW237018   5.057   8.610   5.243  2.0419 -0.3094 -0.0928
 8347SOL     OW37019  12.810   4.425  10.203  0.6271  0.2716  0.6877
 8347SOL    HW137020  12.814   4.386  10.290 -0.9775  1.5819  1.3920
 8347SOL    HW237021  12.882   4.488  10.200  0.9336 -0.0682  0.9062
 8348SOL     OW37022   6.843   9.586   0.467  0.1596 -0.0803  0.5985
 8348SOL    HW137023   6.847   9.633   0.383 -1.0295  0.1940  0.6753
 8348SOL    HW237024   6.792   9.644   0.524 -0.1823 -0.8711  1.1071
 8349SOL     OW37025  13.221  12.296   8.846 -0.0919 -0.3004  0.3539
 8349SOL    HW137026  13.128  12.316   8.849  0.0674  1.2417 -1.8959
 8349SOL    HW237027  13.238  12.277   8.753  2.0710  0.8852  0.4472
 8350SOL     OW37028  13.395   3.908   2.549 -0.2760  0.3765  0.0146
 8350SOL    HW137029  13.397   3.966   2.625  1.8246 -1.3519  1.3971
 8350SOL    HW237030  13.316   3.855   2.562 -0.6012  0.9198  0.3044
 8351SOL     OW37031   3.563   8.573   2.403 -0.0752  0.4782  0.4673
 8351SOL    HW137032   3.528   8.662   2.412 -1.9040 -0.1396 -0.0085
 8351SOL    HW237033   3.486   8.519   2.385  0.8306 -1.3840  1.8288
 8352SOL     OW37034   1.980   7.823   6.158  0.8716  0.4988  0.1186
 8352SOL    HW137035   2.044   7.826   6.229 -1.3709  1.4302  2.2420
 8352SOL    HW237036   1.979   7.912   6.123  1.0055  0.3698 -0.2292
 8353SOL     OW37037  11.620   0.705   8.513  0.0825 -0.0990  0.2992
 8353SOL    HW137038  11.544   0.760   8.532  0.4550  0.6035 -0.2351
 8353SOL    HW237039  11.626   0.646   8.589 -0.2017  0.7231  0.9710
 8354SOL     OW37040  13.092  12.288   3.623 -0.0848 -0.1084  0.0689
 8354SOL    HW137041  13.011  12.300   3.573  0.2124 -1.3240 -0.7514
 8354SOL    HW237042  13.072  12.218   3.685  0.5017 -0.8108 -0.5279
 8355SOL     OW37043  11.123   7.752   8.347  0.4490 -0.1476 -0.0947
 8355SOL    HW137044  11.191   7.805   8.389 -1.3796  1.7288  0.6799
 8355SOL    HW237045  11.157   7.732   8.260  1.1666  2.5460 -0.5003
 8356SOL     OW37046   9.914  13.016  11.001  0.6699 -0.1403  0.0331
 8356SOL    HW137047   9.999  13.019  10.956 -0.7607 -1.4067 -3.0605
 8356SOL    HW237048   9.882  13.106  10.999  1.2185  0.0522 -0.2479
 8357SOL     OW37049   5.356   2.770   4.154 -0.6500  0.2681 -0.0593
 8357SOL    HW137050   5.415   2.779   4.080 -1.3714  1.8528 -0.4993
 8357SOL    HW237051   5.313   2.856   4.161  0.3178  0.6452  2.9820
 8358SOL     OW37052   4.557   0.575   1.614 -0.1137 -0.7240  0.2801
 8358SOL    HW137053   4.583   0.583   1.706  0.4889  0.7448  0.0008
 8358SOL    HW237054   4.608   0.641   1.568  0.1340 -1.9190 -1.2532
 8359SOL     OW37055   1.360   2.928  10.341 -0.2113  0.0620 -0.1869
 8359SOL    HW137056   1.334   2.842  10.310 -1.2954  0.6435 -0.9740
 8359SOL    HW237057   1.306   2.989  10.291  0.0822  1.1733  0.7876
 8360SOL     OW37058   8.815  11.702  13.317  0.8844 -0.0396 -0.2969
 8360SOL    HW137059   8.733  11.750  13.310  0.8564  0.4364  2.3243
 8360SOL    HW237060   8.853  11.731  13.400  2.5635 -1.9998 -0.2929
 8361SOL     OW37061  10.780   5.074   3.222 -0.2875  0.1459 -0.3758
 8361SOL    HW137062  10.814   5.138   3.285 -0.9837  0.3034 -0.1496
 8361SOL    HW237063  10.747   5.127   3.149 -2.4007  0.2019  0.5363
 8362SOL     OW37064   9.876  13.400   0.753  0.2532  0.3048  0.1081
 8362SOL    HW137065   9.894  13.422   0.845 -0.9970  1.1942  0.1671
 8362SOL    HW237066   9.781  13.403   0.747  0.3579  2.3416 -1.7055
 8363SOL     OW37067  13.910   7.440   4.219  0.1036 -0.1538 -0.1938
 8363SOL    HW137068  13.902   7.437   4.314  0.2267 -1.3323 -0.2073
 8363SOL    HW237069  13.881   7.529   4.195 -0.3345  0.0121  0.8960
 8364SOL     OW37070  11.931   4.794   1.828  0.0553 -0.1904 -0.2087
 8364SOL    HW137071  11.996   4.820   1.764  0.5540 -2.0618 -0.5391
 8364SOL    HW237072  11.877   4.730   1.782 -0.6757 -0.2587  0.7125
 8365SOL     OW37073   7.048  13.032   3.371 -0.0212  0.0179 -0.1551
 8365SOL    HW137074   7.033  13.047   3.464 -1.6960 -0.1584 -0.3649
 8365SOL    HW237075   6.992  13.096   3.328  0.6382  0.0094 -1.0554
 8366SOL     OW37076   1.801   3.701   0.491  0.3659 -0.6610  0.1009
 8366SOL    HW137077   1.882   3.675   0.534  0.1470  1.0332  1.6535
 8366SOL    HW237078   1.736   3.702   0.561 -0.5660 -0.1721 -0.7403
 8367SOL     OW37079   8.490  10.891  11.303  0.6946  0.0263  0.3006
 8367SOL    HW137080   8.397  10.895  11.328  0.3806 -3.0591  0.0582
 8367SOL    HW237081   8.538  10.901  11.385  0.1280  0.9207  0.5354
 8368SOL     OW37082  10.814  13.915  13.343  0.1729 -0.4206  0.0925
 8368SOL    HW137083  10.762  13.853  13.292  0.1999 -1.6032  1.4360
 8368SOL    HW237084  10.751  13.955  13.403  0.2047  0.6932 -0.5918
 8369SOL     OW37085   0.902   2.436   5.941 -0.2176 -0.7593 -0.0367
 8369SOL    HW137086   0.862   2.365   5.992 -0.3161 -0.5681  0.1524
 8369SOL    HW237087   0.900   2.512   5.999  1.2654 -0.9711  0.3188
 8370SOL     OW37088  12.819  12.535  10.981 -0.0455 -0.1084  0.0189
 8370SOL    HW137089  12.881  12.484  10.928  1.5241  3.8157 -2.3534
 8370SOL    HW237090  12.737  12.487  10.974  1.1008 -1.9568 -2.6039
 8371SOL     OW37091   3.198   0.807   8.901  0.1177 -0.9237 -0.1487
 8371SOL    HW137092   3.195   0.753   8.979  0.7363 -0.2118  0.3857
 8371SOL    HW237093   3.107   0.813   8.872 -0.3685  0.1191  1.4443
 8372SOL     OW37094  12.832   0.104   4.482 -0.3753  0.0388  0.3922
 8372SOL    HW137095  12.783   0.029   4.515 -2.6462  0.8402 -0.9068
 8372SOL    HW237096  12.833   0.166   4.555  0.4353 -0.7307  1.0586
 8373SOL     OW37097   2.423   7.704   8.335 -0.3035 -0.1753 -0.3833
 8373SOL    HW137098   2.354   7.712   8.402 -2.1490 -0.9311 -2.0871
 8373SOL    HW237099   2.459   7.616   8.349 -2.8276 -1.6123 -2.2028
 8374SOL     OW37100   3.105   2.608  10.691  0.1707 -0.2210  0.0378
 8374SOL    HW137101   3.165   2.559  10.749 -0.1455 -1.2231 -0.4677
 8374SOL    HW237102   3.109   2.562  10.608 -0.0606  0.6914 -0.4911
 8375SOL     OW37103   6.531   0.014   3.976 -0.7976 -0.0095  0.0913
 8375SOL    HW137104   6.622   0.034   3.999  0.1220 -0.1827 -2.9511
 8375SOL    HW237105   6.482   0.091   4.003  0.6008  0.9283  0.0396
 8376SOL     OW37106  13.518   5.994   4.565 -0.0453 -0.3620 -0.5614
 8376SOL    HW137107  13.541   5.994   4.472 -0.7373 -3.4672 -0.8553
 8376SOL    HW237108  13.422   5.988   4.566  0.0271 -1.8340  0.2778
 8377SOL     OW37109   1.435   1.629   0.714  0.2878 -0.1693  0.0702
 8377SOL    HW137110   1.344   1.654   0.729  0.1539  0.4971 -1.5839
 8377SOL    HW237111   1.486   1.704   0.745  0.2336 -0.2939  0.4572
 8378SOL     OW37112   4.926  12.719  10.360 -0.0911  0.4545  0.4078
 8378SOL    HW137113   4.905  12.778  10.433 -2.6597 -0.7830  0.7966
 8378SOL    HW237114   5.021  12.718  10.356  0.0689  3.0537  1.6537
 8379SOL     OW37115  10.651  10.501  12.076  0.5572 -0.0770 -0.1627
 8379SOL    HW137116  10.687  10.542  11.997 -0.0110 -1.2276 -1.0652
 8379SOL    HW237117  10.557  10.493  12.058  0.6719 -1.9639 -0.1605
 8380SOL     OW37118  11.201   2.147   0.481  0.1411 -0.5186  0.5367
 8380SOL    HW137119  11.156   2.074   0.440 -1.3558  0.2254  0.7763
 8380SOL    HW237120  11.294   2.128   0.469 -0.2130 -2.3469  0.4404
 8381SOL     OW37121   5.424   4.108  11.690  0.1016  0.7097  0.0977
 8381SOL    HW137122   5.399   4.194  11.654 -1.7738  0.3068  0.3329
 8381SOL    HW237123   5.483   4.071  11.624 -0.9101  1.2250 -1.1428
 8382SOL     OW37124   5.295   7.008  11.463 -0.2876 -0.1768 -0.3737
 8382SOL    HW137125   5.320   7.094  11.495  2.0180 -1.2778  1.0513
 8382SOL    HW237126   5.344   6.947  11.518 -0.5000 -2.3526 -2.4373
 8383SOL     OW37127   2.560  12.961  10.100  0.5494  0.0882  0.1742
 8383SOL    HW137128   2.613  13.007  10.035  0.9792  2.5242  2.1057
 8383SOL    HW237129   2.475  12.949  10.058  1.3618 -0.1664 -1.4791
 8384SOL     OW37130   9.947   2.870   5.880 -0.2556  0.6238 -0.8759
 8384SOL    HW137131   9.894   2.793   5.856 -0.4412  0.5443 -0.2219
 8384SOL    HW237132   9.987   2.897   5.797 -0.7915  0.2835 -1.2599
 8385SOL     OW37133   4.100  11.637   5.405  0.2783  0.4121 -0.6803
 8385SOL    HW137134   4.024  11.685   5.440 -0.1994 -0.4658 -0.4686
 8385SOL    HW237135   4.071  11.606   5.319  0.5555  0.4410 -0.7836
 8386SOL     OW37136  12.631   6.640  10.243 -0.2883  0.5630 -0.4725
 8386SOL    HW137137  12.669   6.608  10.161  2.0040 -0.9094  1.0475
 8386SOL    HW237138  12.666   6.729  10.251  1.4810 -0.1408  0.0246
 8387SOL     OW37139   4.785  13.978   7.671 -0.3395  0.2634  0.3598
 8387SOL    HW137140   4.845  13.974   7.597 -1.1897  0.9783 -0.3969
 8387SOL    HW237141   4.713  13.919   7.648 -0.0832 -0.3548  1.1171
 8388SOL     OW37142   3.781  11.889   1.648 -0.1032 -0.3099 -0.1494
 8388SOL    HW137143   3.746  11.868   1.561  0.1323  0.3687 -0.4189
 8388SOL    HW237144   3.717  11.948   1.686  0.8671  1.2295 -0.7875
 8389SOL     OW37145   4.413   7.630   3.765  0.1496  0.0806  0.5571
 8389SOL    HW137146   4.369   7.546   3.774  1.4195 -0.7949 -0.9155
 8389SOL    HW237147   4.427   7.660   3.855 -0.4012 -1.2368  1.0962
 8390SOL     OW37148   0.016   7.627   0.094  0.0420 -0.5085 -0.1075
 8390SOL    HW137149  -0.067   7.595   0.058  0.2427 -1.6858  0.4131
 8390SOL    HW237150   0.017   7.720   0.074 -1.5514 -0.4110  0.1512
 8391SOL     OW37151  13.594  11.680   3.763  0.3315 -0.5034 -0.0350
 8391SOL    HW137152  13.557  11.697   3.850  2.5481 -0.3648  0.9653
 8391SOL    HW237153  13.521  11.693   3.702 -1.6651 -1.9771  1.8807
 8392SOL     OW37154   0.735  10.386   2.581 -0.2471  0.4639 -0.1239
 8392SOL    HW137155   0.661  10.437   2.547 -0.7867 -0.5418 -0.5091
 8392SOL    HW237156   0.732  10.304   2.530  0.9029  0.2617  0.1276
 8393SOL     OW37157   3.958  11.884   1.154  0.0433  0.1465  0.0331
 8393SOL    HW137158   4.018  11.958   1.144  2.1651 -1.4186  0.6002
 8393SOL    HW237159   3.962  11.838   1.071  0.1469 -0.3357  0.3005
 8394SOL     OW37160   2.866   1.956  13.764  0.4902 -0.0422  0.1543
 8394SOL    HW137161   2.938   1.985  13.707  0.1259 -0.1428 -0.3680
 8394SOL    HW237162   2.886   1.993  13.850 -0.4239  2.5224 -0.6645
 8395SOL     OW37163   0.808   0.440   2.434  0.2365 -0.0270 -0.0618
 8395SOL    HW137164   0.751   0.405   2.502 -0.9970  3.5518  0.9208
 8395SOL    HW237165   0.753   0.498   2.382  1.9177 -0.1459 -2.1405
 8396SOL     OW37166   0.389  11.930   7.254  0.4571  0.1173  0.0909
 8396SOL    HW137167   0.334  11.869   7.205  1.5139  0.6691 -1.8733
 8396SOL    HW237168   0.412  11.998   7.191 -1.3182  3.0680  2.3818
 8397SOL     OW37169   2.381  11.168   9.633  0.2010 -0.5736 -0.1643
 8397SOL    HW137170   2.341  11.152   9.718  1.0143  0.0491  0.3534
 8397SOL    HW237171   2.308  11.168   9.571 -0.5374  0.0539  0.6811
 8398SOL     OW37172  11.506   2.154   1.057 -0.5980  0.4196  0.1666
 8398SOL    HW137173  11.559   2.108   0.992 -1.9461 -1.0185  0.0293
 8398SOL    HW237174  11.447   2.209   1.006 -2.1399 -1.2341  0.0520
 8399SOL     OW37175   7.203   2.223   0.103 -0.1010 -0.1153 -0.4565
 8399SOL    HW137176   7.253   2.220   0.021 -0.8629  1.0569 -0.9993
 8399SOL    HW237177   7.249   2.287   0.157 -0.4224  0.2078 -0.5598
 8400SOL     OW37178   6.245   8.365   1.233 -0.0485 -0.0940 -0.0231
 8400SOL    HW137179   6.184   8.296   1.207  0.2195 -0.5767  0.6111
 8400SOL    HW237180   6.332   8.327   1.219  0.1061  0.2823 -0.1031
 8401SOL     OW37181   4.996  10.401  10.479 -0.1023 -0.2508 -0.2697
 8401SOL    HW137182   4.938  10.343  10.430  0.5872 -0.3092 -1.0310
 8401SOL    HW237183   5.083  10.388  10.440  0.0284  1.4688 -0.6356
 8402SOL     OW37184   2.541   0.444   4.424  0.1595  0.1978  0.5101
 8402SOL    HW137185   2.459   0.413   4.385  0.8452 -1.4126  0.2465
 8402SOL    HW237186   2.517   0.467   4.514 -1.0156  1.9815 -0.2075
 8403SOL     OW37187  13.023   4.779  11.717 -0.1962 -0.2064 -0.0857
 8403SOL    HW137188  12.928   4.786  11.718 -0.1864 -0.1045  0.4660
 8403SOL    HW237189  13.040   4.685  11.724 -0.2516 -0.2121 -0.0308
 8404SOL     OW37190   4.608  11.866   0.535 -0.1916 -0.0474  0.0828
 8404SOL    HW137191   4.557  11.947   0.547  1.4862  1.2681 -1.1638
 8404SOL    HW237192   4.696  11.889   0.563  0.4146 -1.3371 -0.6867
 8405SOL     OW37193   7.707   3.106  11.871  0.8219  0.2578 -0.5770
 8405SOL    HW137194   7.673   3.047  11.805 -0.3839 -0.4874  0.6585
 8405SOL    HW237195   7.630   3.151  11.906  1.6003  1.8575 -0.7891
 8406SOL     OW37196   4.489   8.518   4.775 -0.4678 -0.0081 -0.1598
 8406SOL    HW137197   4.569   8.529   4.723 -0.1281 -0.2929  0.2986
 8406SOL    HW237198   4.426   8.578   4.734  0.5495  1.7157  0.6815
 8407SOL     OW37199   8.948   7.582   3.952 -0.0761  0.2711  0.4522
 8407SOL    HW137200   8.927   7.596   4.045 -0.5434 -0.6918  0.5099
 8407SOL    HW237201   8.887   7.638   3.905 -0.2123  0.3537  0.7213
 8408SOL     OW37202  10.095  11.109  12.291 -0.1339 -0.3293  0.4172
 8408SOL    HW137203  10.170  11.164  12.316  1.1108 -2.1579  0.8704
 8408SOL    HW237204  10.049  11.162  12.226  1.4176  0.9627  0.2736
 8409SOL     OW37205   1.978   6.132   9.039 -0.3569  0.0232 -0.2895
 8409SOL    HW137206   2.048   6.195   9.029 -0.9069  0.6387 -0.3182
 8409SOL    HW237207   1.901   6.174   9.000 -0.9641 -0.2397  0.5874
 8410SOL     OW37208   7.265   8.632  12.025 -0.6325  0.5296 -0.2728
 8410SOL    HW137209   7.205   8.615  12.098 -0.2189 -2.0271 -0.4586
 8410SOL    HW237210   7.210   8.630  11.947 -0.5670 -0.2097 -0.3060
 8411SOL     OW37211   7.657   0.099   1.470  1.4598  0.1019  0.7456
 8411SOL    HW137212   7.713   0.167   1.433  2.2157 -1.2046 -0.6179
 8411SOL    HW237213   7.711   0.057   1.537  1.3308  0.2346  0.9337
 8412SOL     OW37214   8.809  13.293   8.047 -0.0588  0.0723  0.3843
 8412SOL    HW137215   8.745  13.354   8.011 -1.2609  0.1706  2.5209
 8412SOL    HW237216   8.893  13.323   8.012 -0.8452  1.6827 -0.2268
 8413SOL     OW37217   2.280   5.273   5.429 -0.5093  0.1812  0.1963
 8413SOL    HW137218   2.354   5.325   5.461 -0.3986  0.1343  0.0204
 8413SOL    HW237219   2.269   5.301   5.338  0.4990 -1.1350 -0.3706
 8414SOL     OW37220   2.704   2.314   3.916 -0.0394 -0.0553  0.3347
 8414SOL    HW137221   2.641   2.306   3.845  0.6269  1.9328 -0.5544
 8414SOL    HW237222   2.666   2.379   3.974 -0.8313 -2.0311  2.1725
 8415SOL     OW37223  12.716   7.498   0.501 -0.2538 -0.3419 -0.1917
 8415SOL    HW137224  12.809   7.477   0.494  0.1354  1.2783 -0.4679
 8415SOL    HW237225  12.711   7.562   0.572 -1.3655 -1.3803  0.7131
 8416SOL     OW37226   6.641   1.601  11.516 -0.0688 -0.0016 -0.1133
 8416SOL    HW137227   6.708   1.669  11.522 -0.0365 -0.0505  0.0977
 8416SOL    HW237228   6.617   1.584  11.607  2.9244 -3.2638  0.2552
 8417SOL     OW37229   0.578  13.983   2.729  0.1993  0.4225  0.1196
 8417SOL    HW137230   0.482  13.983   2.735  0.1426 -1.1626 -0.3921
 8417SOL    HW237231   0.605  14.061   2.777 -1.3424  0.8610  0.3245
 8418SOL     OW37232   8.010   2.496   9.093 -0.2575 -0.0670  0.2226
 8418SOL    HW137233   8.070   2.433   9.052  0.5288  0.8213 -0.0178
 8418SOL    HW237234   8.025   2.578   9.047 -1.2902  0.3074  0.5167
 8419SOL     OW37235   5.716   8.380  10.781 -0.0092  0.3131 -0.4429
 8419SOL    HW137236   5.732   8.353  10.690 -2.5072 -0.6459 -0.6585
 8419SOL    HW237237   5.685   8.470  10.774 -1.9032 -0.3253 -0.7650
 8420SOL     OW37238  12.985  11.948   1.974  0.0623  0.2429 -0.3037
 8420SOL    HW137239  13.069  11.967   2.015 -0.6188  0.8680  0.8557
 8420SOL    HW237240  12.988  11.854   1.954  0.2990 -0.1518  1.4798
 8421SOL     OW37241   4.803  10.990   2.586  0.4543  0.2670  0.0360
 8421SOL    HW137242   4.789  11.079   2.554  1.0428  0.0835 -0.7835
 8421SOL    HW237243   4.762  10.988   2.672 -0.2421  1.1042 -0.2640
 8422SOL     OW37244  13.420  11.037  12.927 -0.0976  0.4548  0.0537
 8422SOL    HW137245  13.330  11.065  12.912 -0.0165  0.3969 -0.5792
 8422SOL    HW237246  13.473  11.112  12.902  0.0937 -0.0410 -1.0644
 8423SOL     OW37247   8.653  10.425  11.227 -0.0370 -0.0828 -0.6704
 8423SOL    HW137248   8.668  10.514  11.258 -1.7398 -0.4563  1.4407
 8423SOL    HW237249   8.560  10.423  11.203 -0.2169 -1.4784  0.0173
 8424SOL     OW37250  12.279   8.147  10.678  0.6344  0.1797 -0.0557
 8424SOL    HW137251  12.374   8.139  10.673  0.4754 -1.9482 -0.8714
 8424SOL    HW237252  12.249   8.057  10.692 -1.2438  0.8681  0.5452
 8425SOL     OW37253  11.960   1.701   6.922 -0.5888 -0.0358  0.0536
 8425SOL    HW137254  11.957   1.617   6.876 -1.7616 -0.6988  1.2716
 8425SOL    HW237255  11.996   1.679   7.008 -1.8652  0.5048  0.7450
 8426SOL     OW37256   3.848   5.123   5.146 -0.0119  0.0218 -0.0772
 8426SOL    HW137257   3.833   5.167   5.063  1.7657  0.9222  0.0235
 8426SOL    HW237258   3.865   5.194   5.208  3.5595 -0.6983 -0.0410
 8427SOL     OW37259   1.905   6.591   6.268 -0.3250 -0.5534  0.1632
 8427SOL    HW137260   1.973   6.654   6.292 -0.8172  0.2824 -0.6175
 8427SOL    HW237261   1.861   6.571   6.351 -1.1371  1.2805  0.2067
 8428SOL     OW37262   7.357   5.886   4.084 -0.2048  0.1953 -0.7269
 8428SOL    HW137263   7.390   5.968   4.048  1.1660  0.3501  0.7934
 8428SOL    HW237264   7.372   5.893   4.178  0.0870 -1.8378 -0.5773
 8429SOL     OW37265   5.674   8.114  11.381  0.2649  0.6763 -0.0520
 8429SOL    HW137266   5.737   8.074  11.441 -0.6169 -1.2448 -0.3209
 8429SOL    HW237267   5.658   8.046  11.315 -0.9977  1.6622 -0.8044
 8430SOL     OW37268  13.258   2.587   7.432 -0.3875  0.5412  0.4312
 8430SOL    HW137269  13.215   2.668   7.404  0.1427  0.7565  0.2230
 8430SOL    HW237270  13.212   2.517   7.385  0.2508  0.8628 -0.7183
 8431SOL     OW37271   1.401   5.714   3.953 -0.1805 -0.1384  0.3021
 8431SOL    HW137272   1.396   5.618   3.949  1.2032 -0.2839  1.1349
 8431SOL    HW237273   1.329   5.740   4.009  0.2310 -0.8258  1.1669
 8432SOL     OW37274  11.119   2.118  10.502  0.1638  0.1860  0.4394
 8432SOL    HW137275  11.048   2.094  10.562  0.3963 -0.3485  0.5117
 8432SOL    HW237276  11.076   2.132  10.418  0.1544 -1.8048  0.0648
 8433SOL     OW37277   7.009  11.991  13.107 -0.2089 -0.2526  0.1460
 8433SOL    HW137278   7.058  12.026  13.181  1.0501 -1.6509  0.0218
 8433SOL    HW237279   7.044  12.036  13.031  3.3941 -3.4208 -0.3729
 8434SOL     OW37280  12.052   3.550   9.265 -0.0057 -0.6828 -0.0332
 8434SOL    HW137281  11.972   3.502   9.285 -0.4947 -0.3932 -1.2298
 8434SOL    HW237282  12.091   3.503   9.192  1.4199 -1.3472  1.0896
 8435SOL     OW37283  10.783   9.854   5.049 -0.3591 -0.4611  0.6352
 8435SOL    HW137284  10.792   9.941   5.086 -1.0806  0.0577 -0.3346
 8435SOL    HW237285  10.786   9.868   4.954 -0.6440 -1.4657  0.4628
 8436SOL     OW37286   8.724   0.981   0.458 -0.7141  0.2032 -0.1821
 8436SOL    HW137287   8.669   0.919   0.409  0.4112 -1.1323  0.1841
 8436SOL    HW237288   8.777   0.926   0.516 -0.5109  1.6068  1.0257
 8437SOL     OW37289   3.360   6.003   5.433 -0.3138  0.1348  0.6965
 8437SOL    HW137290   3.348   5.909   5.423  0.3725  0.0880  0.2646
 8437SOL    HW237291   3.314   6.024   5.515 -0.4148 -0.5790  0.8338
 8438SOL     OW37292  13.101  12.555   0.524 -0.2867  0.0365 -0.8400
 8438SOL    HW137293  13.110  12.519   0.436  0.3019 -1.4345 -0.2124
 8438SOL    HW237294  13.191  12.563   0.556 -0.5266 -0.2530 -0.0698
 8439SOL     OW37295  13.833   8.659   8.560 -0.3317 -0.1040  0.5857
 8439SOL    HW137296  13.770   8.693   8.623 -0.3312  1.1067 -0.0267
 8439SOL    HW237297  13.787   8.661   8.476  0.2790  0.1538  0.2428
 8440SOL     OW37298   4.090  13.113  12.989  0.5161 -0.1885 -0.3570
 8440SOL    HW137299   4.145  13.105  13.067  0.3530  2.7364  0.1731
 8440SOL    HW237300   4.108  13.033  12.939  2.5396 -0.9794  1.4515
 8441SOL     OW37301   3.184  10.980  13.640  0.2885  0.0365  0.0047
 8441SOL    HW137302   3.101  10.959  13.682  0.4988  0.0509  0.4378
 8441SOL    HW237303   3.234  10.899  13.645  0.2173 -0.0370 -0.4558
 8442SOL     OW37304   8.702   4.555  13.649  0.2143 -0.1948 -0.0262
 8442SOL    HW137305   8.792   4.556  13.617  0.4543 -1.5142  0.5726
 8442SOL    HW237306   8.662   4.479  13.606 -0.0346 -0.7989  1.2330
 8443SOL     OW37307  12.964   3.390  12.720  0.0038 -0.6631  0.1185
 8443SOL    HW137308  12.872   3.405  12.742  0.0664  0.7357 -0.4660
 8443SOL    HW237309  12.987   3.310  12.767 -1.8183 -1.7006 -0.6157
 8444SOL     OW37310   1.571  13.463  13.245  0.1647 -0.2328 -0.5698
 8444SOL    HW137311   1.503  13.451  13.179  1.1109  1.1510 -1.8552
 8444SOL    HW237312   1.631  13.527  13.207  1.0370  0.2181  1.4190
 8445SOL     OW37313   7.018   3.388  10.352 -0.0644 -0.1132  0.2049
 8445SOL    HW137314   7.081   3.377  10.423  0.5520 -0.4133 -0.3814
 8445SOL    HW237315   6.936   3.411  10.396  0.1149 -1.0520  1.0738
 8446SOL     OW37316  12.008   4.485  13.497  0.7343  0.0059  0.9435
 8446SOL    HW137317  12.022   4.512  13.588  1.6735  2.1087  0.2298
 8446SOL    HW237318  12.082   4.521  13.449 -1.4463  1.9790 -1.2090
 8447SOL     OW37319   4.366   1.994   0.729  0.6869 -0.3784 -0.4848
 8447SOL    HW137320   4.388   1.990   0.822 -1.4409 -0.0949  0.0813
 8447SOL    HW237321   4.422   2.063   0.694  1.6704 -0.6381  0.5250
 8448SOL     OW37322  12.264   3.555  10.171  0.1273  0.2929  0.9734
 8448SOL    HW137323  12.200   3.527  10.235 -0.0604  0.5386  0.8957
 8448SOL    HW237324  12.279   3.478  10.116  0.2572  0.0971  1.2840
 8449SOL     OW37325   6.242   9.522   8.241  0.1827  0.1041  0.1083
 8449SOL    HW137326   6.161   9.471   8.240  0.1220  0.2004  0.1553
 8449SOL    HW237327   6.263   9.532   8.334  0.3332 -0.0547  0.0932
 8450SOL     OW37328   6.282   1.829   1.375  0.6477 -0.3759  0.0414
 8450SOL    HW137329   6.318   1.898   1.431  1.5264 -1.9841  1.5361
 8450SOL    HW237330   6.353   1.767   1.364 -1.0116 -2.6964  1.4771
 8451SOL     OW37331   8.477   2.380   6.749  0.0464 -0.2044 -0.6398
 8451SOL    HW137332   8.566   2.391   6.714  0.5032  0.3112  0.5997
 8451SOL    HW237333   8.485   2.405   6.841 -1.0695 -1.6056 -0.1287
 8452SOL     OW37334  10.792   1.325   8.805  0.6150  0.6167 -0.0530
 8452SOL    HW137335  10.767   1.373   8.884  0.6505 -0.0606  0.3776
 8452SOL    HW237336  10.708   1.303   8.763  0.5538  0.0775  0.3444
 8453SOL     OW37337  11.997   1.035   3.488  0.7052 -0.5907 -0.4319
 8453SOL    HW137338  11.978   1.108   3.546  1.2518  0.4043 -1.4814
 8453SOL    HW237339  11.929   1.039   3.421  0.6023 -1.1919 -0.3710
 8454SOL     OW37340  11.297   2.648   4.512  0.5750  0.9873 -0.6532
 8454SOL    HW137341  11.329   2.592   4.442 -0.3500  0.8890 -1.0092
 8454SOL    HW237342  11.223   2.600   4.550  0.7368  1.2737  0.0508
 8455SOL     OW37343   4.525   8.875   5.389  0.4767  0.7478 -0.0405
 8455SOL    HW137344   4.457   8.837   5.334 -0.4748  1.4106  0.6396
 8455SOL    HW237345   4.531   8.817   5.464 -0.0205  1.1894  0.3500
 8456SOL     OW37346  13.540  13.244  13.146 -0.0768 -0.0552  0.2432
 8456SOL    HW137347  13.490  13.164  13.162  0.5531 -1.2546 -2.8778
 8456SOL    HW237348  13.625  13.212  13.115  0.0061  1.7693 -1.5822
 8457SOL     OW37349  10.899   1.116   2.857  0.5157 -0.0944  0.0142
 8457SOL    HW137350  10.970   1.067   2.899  0.1067  0.0814  0.9440
 8457SOL    HW237351  10.938   1.150   2.776  0.8346 -1.8173 -0.5801
 8458SOL     OW37352  10.779  13.231   1.157 -0.3942 -0.3937  0.2038
 8458SOL    HW137353  10.828  13.207   1.079 -1.0201  1.1218 -0.7015
 8458SOL    HW237354  10.833  13.298   1.199  0.4000 -1.8661  1.6319
 8459SOL     OW37355   9.383   6.141   9.486 -0.0932 -0.0179 -0.3739
 8459SOL    HW137356   9.414   6.058   9.523 -1.5028  0.8238  3.1038
 8459SOL    HW237357   9.448   6.206   9.513  0.9586  0.1714 -3.0021
 8460SOL     OW37358   6.826   4.294   6.353  0.4132  0.0648 -0.5558
 8460SOL    HW137359   6.869   4.368   6.396 -0.9624  1.9196 -2.2112
 8460SOL    HW237360   6.898   4.248   6.308  1.2972  0.3201  0.5625
 8461SOL     OW37361   6.972  13.460   6.434 -1.2107 -0.2025  0.2225
 8461SOL    HW137362   6.902  13.465   6.369 -1.9242  1.0583  1.0384
 8461SOL    HW237363   7.027  13.537   6.416 -0.4588 -0.7681  0.0636
 8462SOL     OW37364   3.152   6.187  10.578  0.5994 -0.1040 -0.2031
 8462SOL    HW137365   3.125   6.099  10.551 -0.0103 -0.3719  1.1726
 8462SOL    HW237366   3.244   6.178  10.603 -0.1456 -1.0772  2.6019
 8463SOL     OW37367  11.644  13.803  11.440 -0.3605 -0.1076  0.0166
 8463SOL    HW137368  11.633  13.751  11.520 -0.5314 -2.9332 -1.6903
 8463SOL    HW237369  11.732  13.781  11.409 -0.2431  1.0564 -0.5412
 8464SOL     OW37370  10.226   2.237   6.470  0.5811 -0.0781 -0.1777
 8464SOL    HW137371  10.262   2.189   6.545  1.4898 -1.7918 -1.6464
 8464SOL    HW237372  10.300   2.286   6.435  0.6014 -0.6362 -0.9503
 8465SOL     OW37373  10.474  10.667   8.559  0.0368  0.8439  0.1867
 8465SOL    HW137374  10.525  10.744   8.534 -0.1273  0.5626 -1.1263
 8465SOL    HW237375  10.538  10.606   8.594  0.3248  1.1775  0.2495
 8466SOL     OW37376   5.106  10.805   7.332 -0.3532  0.0700 -0.0703
 8466SOL    HW137377   5.051  10.788   7.256 -1.2165  1.3552  0.2320
 8466SOL    HW237378   5.094  10.729   7.388 -0.9347 -0.1742 -0.5184
 8467SOL     OW37379   0.655   8.564   6.847 -0.0080 -0.1869 -0.0244
 8467SOL    HW137380   0.662   8.649   6.890 -0.7930  0.5139 -1.1997
 8467SOL    HW237381   0.687   8.580   6.758 -0.6642 -0.9859 -0.4175
 8468SOL     OW37382   9.568   8.099   7.313 -0.1828  0.0927 -0.0923
 8468SOL    HW137383   9.590   8.182   7.355 -0.3962 -0.1663  0.5461
 8468SOL    HW237384   9.491   8.119   7.259 -0.3042  0.2847  0.1515
 8469SOL     OW37385   5.688   0.744   2.115 -0.6088  0.0126 -0.2012
 8469SOL    HW137386   5.698   0.721   2.022  0.2899 -0.4356 -0.0077
 8469SOL    HW237387   5.657   0.663   2.156 -1.4490  0.3380 -0.1748
 8470SOL     OW37388   4.567   6.493   1.941 -0.6040  0.0545 -0.1399
 8470SOL    HW137389   4.599   6.446   1.865  1.8081 -0.4447  1.1000
 8470SOL    HW237390   4.484   6.451   1.962 -0.8624 -0.3971 -1.9064
 8471SOL     OW37391  12.001   6.902  10.553 -0.0631  0.3946  0.0131
 8471SOL    HW137392  12.066   6.909  10.483 -0.2382  2.7926  0.0202
 8471SOL    HW237393  12.030   6.827  10.605  2.4234  1.0657 -0.2806
 8472SOL     OW37394  10.404   3.179   9.012 -0.1992  0.3342 -0.0337
 8472SOL    HW137395  10.357   3.121   8.952 -0.7200  0.3509  0.3511
 8472SOL    HW237396  10.415   3.261   8.963 -0.8269  0.4272 -0.0294
 8473SOL     OW37397   9.042   4.144   3.684 -0.6763 -0.0276 -0.0949
 8473SOL    HW137398   9.011   4.056   3.664 -0.9842 -0.1858  1.0430
 8473SOL    HW237399   9.024   4.156   3.777  3.7719 -0.5931  1.0757
 8474SOL     OW37400  11.627   4.729  13.460 -0.6112  0.1510  0.3407
 8474SOL    HW137401  11.542   4.725  13.504 -1.2056  0.6709 -0.7382
 8474SOL    HW237402  11.631   4.816  13.422  0.4670  0.1758  0.4803
 8475SOL     OW37403   3.523   5.246   5.408  0.0607 -0.2147 -0.3126
 8475SOL    HW137404   3.443   5.234   5.460  1.2094  2.5285  2.3888
 8475SOL    HW237405   3.591   5.203   5.460  0.7140 -0.6971 -1.5318
 8476SOL     OW37406   2.448   5.335  13.316  0.3208  0.0897  0.1707
 8476SOL    HW137407   2.543   5.328  13.306  0.4724 -0.0917  1.5032
 8476SOL    HW237408   2.425   5.418  13.275  0.9908 -0.0564 -0.5248
 8477SOL     OW37409   6.747   1.608   3.347 -0.5630 -0.1160 -0.0841
 8477SOL    HW137410   6.661   1.623   3.385 -0.0834  0.9506  0.6232
 8477SOL    HW237411   6.734   1.537   3.284 -1.9629  0.0803 -0.0338
 8478SOL     OW37412   4.380   2.255   9.317  0.5529 -0.3669  0.0952
 8478SOL    HW137413   4.423   2.179   9.277 -2.3466 -1.9452 -0.2752
 8478SOL    HW237414   4.407   2.253   9.408  2.6985 -0.1204 -0.4689
 8479SOL     OW37415   5.961   5.635   7.237  0.2903  0.8042 -0.3612
 8479SOL    HW137416   5.943   5.674   7.151  1.2814  0.5229 -0.7075
 8479SOL    HW237417   5.976   5.543   7.219 -0.0429  0.6388  0.1957
 8480SOL     OW37418  11.891  11.151   6.809  0.4017  0.2001 -0.6033
 8480SOL    HW137419  11.819  11.096   6.778  0.7547 -0.3101 -0.5238
 8480SOL    HW237420  11.935  11.098   6.875  1.3109  0.2041 -1.1914
 8481SOL     OW37421  10.822  12.321  13.231 -0.1393  0.3428  0.4431
 8481SOL    HW137422  10.883  12.376  13.183 -0.1236 -1.1330 -1.3242
 8481SOL    HW237423  10.879  12.262  13.282 -0.1204  0.2566  0.3225
 8482SOL     OW37424   3.036  10.842   7.226 -0.2124 -0.3708 -0.7968
 8482SOL    HW137425   2.959  10.786   7.233 -0.0097 -0.5292  0.3888
 8482SOL    HW237426   3.002  10.926   7.195 -1.1151  0.0354  1.1467
 8483SOL     OW37427   2.902  12.923   4.243  0.9747 -0.1863 -0.1166
 8483SOL    HW137428   2.937  12.983   4.177 -1.0761  0.6305 -0.5208
 8483SOL    HW237429   2.922  12.836   4.208 -0.5835  0.2136 -2.1904
 8484SOL     OW37430   6.180  13.207   9.376 -0.0757  0.3251  0.0376
 8484SOL    HW137431   6.112  13.264   9.341 -0.0773  0.1212 -0.2948
 8484SOL    HW237432   6.156  13.119   9.348 -0.9405 -0.0849  1.8892
 8485SOL     OW37433  13.427  13.200  11.570  0.1266  0.4529 -0.2326
 8485SOL    HW137434  13.404  13.265  11.636 -1.0103 -0.0224 -0.1451
 8485SOL    HW237435  13.363  13.211  11.500 -0.2711 -0.7472 -0.0876
 8486SOL     OW37436   1.713   1.910   2.712 -0.1510 -0.0009 -0.1115
 8486SOL    HW137437   1.668   1.828   2.734 -2.2571  0.6386 -1.7312
 8486SOL    HW237438   1.797   1.904   2.758 -1.3101 -1.8794  1.9764
 8487SOL     OW37439  11.804   1.344  13.502 -0.0756 -0.0349 -0.3329
 8487SOL    HW137440  11.872   1.311  13.443 -0.0144  0.6547 -0.6704
 8487SOL    HW237441  11.772   1.423  13.458 -0.7012 -0.0454  0.1020
 8488SOL     OW37442   5.821   3.906  12.442 -0.1882 -0.0129  0.5903
 8488SOL    HW137443   5.800   3.949  12.524 -0.5381 -0.5340  0.7748
 8488SOL    HW237444   5.774   3.823  12.445 -0.4676  0.1016 -0.2761
 8489SOL     OW37445   1.643  11.790   9.938  0.0423 -0.1659 -0.3484
 8489SOL    HW137446   1.624  11.833  10.021 -2.0318  0.7186 -1.2119
 8489SOL    HW237447   1.736  11.767   9.944  0.0727  0.2788  2.0008
 8490SOL     OW37448   9.748   1.167  12.697  0.3472 -0.1331 -0.1295
 8490SOL    HW137449   9.832   1.122  12.707  1.1752  1.4934  0.6235
 8490SOL    HW237450   9.685   1.111  12.742  1.3516 -0.5335  0.8246
 8491SOL     OW37451   3.742  12.274  10.613 -0.0343  0.4891 -0.0482
 8491SOL    HW137452   3.710  12.200  10.666  1.6713  1.1074  2.0000
 8491SOL    HW237453   3.809  12.236  10.557 -0.7862  0.1027 -0.7142
 8492SOL     OW37454   4.408  11.269   4.764  0.2104 -0.3049 -0.8753
 8492SOL    HW137455   4.351  11.213   4.816  0.7408  0.2018  0.2802
 8492SOL    HW237456   4.392  11.242   4.674 -2.0380 -0.0013 -0.6094
 8493SOL     OW37457   4.655   3.555   4.139 -0.3266  0.0276  0.0123
 8493SOL    HW137458   4.729   3.616   4.134 -0.9093  0.9715  1.9400
 8493SOL    HW237459   4.605   3.572   4.060  2.3550 -1.8750 -2.2779
 8494SOL     OW37460   3.625   5.211  11.352 -0.2703  0.2457 -0.2350
 8494SOL    HW137461   3.667   5.201  11.438  0.4324 -0.8288 -0.6900
 8494SOL    HW237462   3.551   5.151  11.355  0.0661 -0.1892 -0.5690
 8495SOL     OW37463  11.960   8.998  13.617  0.2270  0.0406  0.1255
 8495SOL    HW137464  11.896   8.928  13.631  0.9920 -0.2830  2.4216
 8495SOL    HW237465  11.962   9.046  13.700  0.4483  2.2173 -1.0486
 8496SOL     OW37466  11.243  11.893  13.011 -0.1814  0.7838  0.5087
 8496SOL    HW137467  11.175  11.960  13.012  0.4066  1.3912  0.3953
 8496SOL    HW237468  11.262  11.878  13.104  1.3918  2.5651  0.5433
 8497SOL     OW37469   1.973  13.122  13.469  0.3279  0.0852  0.5198
 8497SOL    HW137470   1.920  13.178  13.412  0.6882  0.6082  0.6910
 8497SOL    HW237471   1.961  13.034  13.433  1.6450  0.5666 -1.2330
 8498SOL     OW37472  12.842   6.314   5.663  0.3006  0.0317  0.5691
 8498SOL    HW137473  12.788   6.249   5.708  0.5254 -1.0442 -0.6547
 8498SOL    HW237474  12.930   6.276   5.661  0.3458  0.1592 -0.5419
 8499SOL     OW37475   3.100   6.119   4.025  0.0298 -0.0788 -0.4123
 8499SOL    HW137476   3.011   6.088   4.044  0.7105 -1.4413  0.7093
 8499SOL    HW237477   3.136   6.141   4.111  0.2785  1.9715 -0.9991
 8500SOL     OW37478   6.869   9.498  12.813  0.0559 -0.2569  0.7953
 8500SOL    HW137479   6.933   9.569  12.824  0.2045 -0.2493 -0.0550
 8500SOL    HW237480   6.822   9.520  12.733 -0.2092 -0.8830  0.7719
 8501SOL     OW37481   1.782   2.345  12.416 -0.0197  0.4496 -0.1865
 8501SOL    HW137482   1.744   2.277  12.472 -0.8511  1.6984  0.8042
 8501SOL    HW237483   1.721   2.353  12.343 -0.7191  1.1551  0.4600
 8502SOL     OW37484   5.255   8.413   3.068  0.4355  0.0045 -0.2504
 8502SOL    HW137485   5.227   8.322   3.074 -1.3332  0.5769  0.6791
 8502SOL    HW237486   5.349   8.411   3.089  0.5504 -1.6507 -0.8187
 8503SOL     OW37487   4.427   2.194   7.843 -0.2594 -0.0809 -0.0340
 8503SOL    HW137488   4.515   2.167   7.818 -1.0256 -1.4831 -1.4116
 8503SOL    HW237489   4.419   2.285   7.812  0.7534  0.1221  0.2876
 8504SOL     OW37490   0.968   2.899  13.382 -0.0196  0.4545  0.0908
 8504SOL    HW137491   0.964   2.830  13.315  1.8279 -1.3304  1.6915
 8504SOL    HW237492   1.052   2.942  13.367 -0.1444  0.8530  0.5280
 8505SOL     OW37493   3.766   6.008   5.089  0.0501  0.5514  0.0085
 8505SOL    HW137494   3.853   5.968   5.098 -0.5325 -0.4979  1.2232
 8505SOL    HW237495   3.724   5.993   5.174 -1.6638  0.2225 -0.8618
 8506SOL     OW37496  11.491   2.589   2.288  0.3951 -0.2280  0.0779
 8506SOL    HW137497  11.532   2.511   2.325  0.9875  1.2412  2.7397
 8506SOL    HW237498  11.398   2.566   2.279  0.7296 -1.5534 -0.1747
 8507SOL     OW37499   2.762   1.323   2.336 -0.6858 -0.0658 -0.0940
 8507SOL    HW137500   2.789   1.371   2.257 -0.4690 -0.7953 -0.4690
 8507SOL    HW237501   2.813   1.363   2.407  0.2069 -0.3638 -0.5512
 8508SOL     OW37502   6.782  10.006  13.476 -0.3028  0.5901 -0.0597
 8508SOL    HW137503   6.824  10.091  13.461  1.8808 -0.4742 -0.3493
 8508SOL    HW237504   6.750   9.980  13.389  0.1008  0.5664 -0.2009
 8509SOL     OW37505   7.054   4.169  11.517  0.3290 -0.2633  0.0492
 8509SOL    HW137506   7.077   4.261  11.531 -1.8985  0.4022 -0.3400
 8509SOL    HW237507   7.007   4.168  11.433  0.5356 -1.8099 -0.0858
 8510SOL     OW37508   2.559   4.576  12.945 -0.1654 -0.0272 -0.4272
 8510SOL    HW137509   2.504   4.635  12.997 -0.7389 -1.2019  0.3435
 8510SOL    HW237510   2.505   4.498  12.932  0.8286 -0.6677 -0.8225
 8511SOL     OW37511  11.105   4.719   5.166  0.2363 -0.4957  0.4033
 8511SOL    HW137512  11.021   4.750   5.134  0.2212 -0.2423  0.6836
 8511SOL    HW237513  11.170   4.762   5.109  0.1562 -1.2460 -0.2743
 8512SOL     OW37514  10.060   7.266   7.135  0.3144  0.2034 -0.3254
 8512SOL    HW137515   9.976   7.233   7.103  0.0021  1.2273 -0.5998
 8512SOL    HW237516  10.036   7.323   7.209  0.8830 -0.6096  0.5152
 8513SOL     OW37517   1.576   1.296   8.830  0.4207 -0.0304  0.4256
 8513SOL    HW137518   1.587   1.335   8.917 -1.9960 -0.4962  1.0156
 8513SOL    HW237519   1.589   1.202   8.844 -0.2469 -0.1372  0.3589
 8514SOL     OW37520   5.841  12.212   2.843 -0.8740 -0.2622 -0.5255
 8514SOL    HW137521   5.789  12.244   2.770  1.7200 -1.3401 -3.0639
 8514SOL    HW237522   5.891  12.139   2.806  2.3752  0.6651  1.6090
 8515SOL     OW37523  12.306   2.145   0.780 -0.0997 -0.0241 -0.0818
 8515SOL    HW137524  12.346   2.174   0.862  1.1897  0.2360 -0.7771
 8515SOL    HW237525  12.212   2.157   0.794 -0.0333 -1.3516  1.8682
 8516SOL     OW37526  12.922   7.401  12.451  0.0932  0.0736 -0.0472
 8516SOL    HW137527  12.833   7.381  12.482  0.2504 -0.8020 -0.1431
 8516SOL    HW237528  12.952   7.320  12.410  1.5690 -0.1841  1.4492
 8517SOL     OW37529   0.077  11.607   0.100  0.1211 -0.5027 -0.0693
 8517SOL    HW137530   0.133  11.682   0.079  1.7050 -1.5040  0.4340
 8517SOL    HW237531   0.021  11.597   0.023 -0.7499  1.7134  0.2094
 8518SOL     OW37532   2.769   1.061   3.105  0.2613  0.6081 -0.7931
 8518SOL    HW137533   2.852   1.106   3.088 -0.0508  0.7733 -2.0008
 8518SOL    HW237534   2.704   1.113   3.058 -0.8672  1.6003  1.6894
 8519SOL     OW37535   7.481   1.749   9.127 -0.3684 -0.0463 -0.1826
 8519SOL    HW137536   7.393   1.753   9.165  0.0789 -0.0324  0.8941
 8519SOL    HW237537   7.491   1.658   9.099 -0.2605 -0.3764  0.8776
 8520SOL     OW37538   0.948  13.785   7.031 -0.2714 -0.1821  0.5434
 8520SOL    HW137539   0.986  13.699   7.050  0.8899 -0.1843 -1.5051
 8520SOL    HW237540   1.014  13.847   7.062 -0.1312 -0.0954  0.0793
 8521SOL     OW37541  12.916   4.376   4.428 -0.4568 -0.0947  0.0659
 8521SOL    HW137542  12.981   4.387   4.497 -0.4015  0.5147 -0.0718
 8521SOL    HW237543  12.888   4.285   4.434 -0.5866  0.0030  1.0083
 8522SOL     OW37544   1.148  10.311   9.067 -0.5911  0.1891  0.1918
 8522SOL    HW137545   1.054  10.299   9.052 -0.8292  2.1720 -0.1504
 8522SOL    HW237546   1.172  10.385   9.012  1.0299  0.1848  0.8480
 8523SOL     OW37547   8.241   0.738  13.657 -0.2213  0.3841  0.0255
 8523SOL    HW137548   8.323   0.754  13.610 -0.4181  0.2467 -0.3647
 8523SOL    HW237549   8.241   0.804  13.727  0.9156 -0.5435  0.9408
 8524SOL     OW37550   5.593  10.878  13.166  0.2420 -0.2270  0.3938
 8524SOL    HW137551   5.519  10.818  13.155 -1.0879  1.5077 -0.6289
 8524SOL    HW237552   5.639  10.876  13.081  1.5675 -1.4577  1.0883
 8525SOL     OW37553   2.911   0.419   8.047 -0.1672 -0.4292  0.5459
 8525SOL    HW137554   2.855   0.490   8.016  0.0027 -0.1008  0.9835
 8525SOL    HW237555   2.958   0.456   8.122  0.2017 -0.8858  0.5442
 8526SOL     OW37556   2.667   4.388   8.072 -0.2392 -0.0617 -0.4635
 8526SOL    HW137557   2.686   4.465   8.019 -0.2696 -0.0154 -0.4072
 8526SOL    HW237558   2.599   4.341   8.023  2.1788 -1.8847 -2.2935
 8527SOL     OW37559   7.228  13.284   8.639 -0.5025  0.4259  0.4822
 8527SOL    HW137560   7.293  13.319   8.578 -0.7782 -0.8891 -0.6039
 8527SOL    HW237561   7.202  13.359   8.693  0.4294  1.4042 -0.4063
 8528SOL     OW37562  12.712  10.395  12.979  0.2863 -0.2773  0.1499
 8528SOL    HW137563  12.744  10.343  12.906 -0.8018 -0.3916 -0.2707
 8528SOL    HW237564  12.788  10.405  13.037  1.3647  0.4087 -1.3173
 8529SOL     OW37565   3.544   9.677   5.290 -0.4483 -0.4645 -0.2610
 8529SOL    HW137566   3.569   9.635   5.372 -1.7196  0.1526  0.4712
 8529SOL    HW237567   3.532   9.769   5.312 -3.4519 -0.6921 -0.4426
 8530SOL     OW37568  11.105  10.138   5.318  0.8245 -0.5082  0.1677
 8530SOL    HW137569  11.147  10.201   5.375  1.0273 -0.3510 -0.1523
 8530SOL    HW237570  11.136  10.053   5.349  0.7584 -0.4376  0.4317
 8531SOL     OW37571  12.243   4.982  10.400  0.0351  0.7833  0.0533
 8531SOL    HW137572  12.162   4.944  10.432 -0.3664  1.4026 -0.1917
 8531SOL    HW237573  12.294   5.003  10.478  1.2921 -2.3187  0.1846
 8532SOL     OW37574  11.611   7.952   9.450 -0.5620 -0.3342  0.0997
 8532SOL    HW137575  11.575   7.951   9.538  0.4515  0.7582  0.5612
 8532SOL    HW237576  11.675   7.881   9.449 -0.0191  0.1345  0.5165
 8533SOL     OW37577  10.696   5.476   1.884 -0.3830 -0.3737  0.0394
 8533SOL    HW137578  10.665   5.460   1.795 -0.2810  1.4021 -0.3432
 8533SOL    HW237579  10.792   5.480   1.875 -0.4374  1.9413 -0.2213
 8534SOL     OW37580   5.557   2.629   0.032 -0.8840 -0.1675 -0.2388
 8534SOL    HW137581   5.559   2.571  -0.044 -1.1371  0.4852 -0.7530
 8534SOL    HW237582   5.550   2.717  -0.006 -1.1100  0.1544  0.5461
 8535SOL     OW37583  13.316  13.298  10.155 -0.0073  0.6967 -0.0638
 8535SOL    HW137584  13.314  13.229  10.088  0.2678  0.5774  0.0502
 8535SOL    HW237585  13.403  13.292  10.193 -0.6994 -0.3209  1.4486
 8536SOL     OW37586   6.157   5.471   1.908  0.1938 -0.4050  0.5033
 8536SOL    HW137587   6.168   5.441   1.817 -1.2946 -2.1123  0.8193
 8536SOL    HW237588   6.123   5.560   1.899  0.3253 -0.4431 -0.6215
 8537SOL     OW37589   4.588  10.846   4.477 -0.0395  0.2782  0.1621
 8537SOL    HW137590   4.659  10.808   4.427  0.7900  1.4355  0.4295
 8537SOL    HW237591   4.541  10.903   4.415  0.4574  1.0240  0.4534
 8538SOL     OW37592  11.681  11.861   5.818 -0.2306 -0.3997 -0.2283
 8538SOL    HW137593  11.704  11.801   5.888 -0.9444 -0.1870  0.2047
 8538SOL    HW237594  11.729  11.829   5.742 -0.3632 -1.3352  0.0683
 8539SOL     OW37595   5.065  12.999  10.377 -0.0341 -0.3371 -0.3567
 8539SOL    HW137596   4.999  13.024  10.312  0.7424  1.8262 -0.3629
 8539SOL    HW237597   5.044  13.051  10.455  1.3847  0.0326 -0.1988
 8540SOL     OW37598   6.772  13.437   4.837 -0.1385  0.4239  0.3712
 8540SOL    HW137599   6.737  13.387   4.763 -0.2070  0.6284  0.2638
 8540SOL    HW237600   6.700  13.440   4.900  0.0646 -0.1147  0.6269
 8541SOL     OW37601   9.093   6.445  11.671  0.1947 -0.4140 -0.6053
 8541SOL    HW137602   9.118   6.419  11.582  0.9115  3.4555 -1.7292
 8541SOL    HW237603   9.174   6.438  11.721  0.5358  0.2553 -1.0519
 8542SOL     OW37604  10.679   2.070  10.411 -0.5758  0.9930 -0.2886
 8542SOL    HW137605  10.624   2.061  10.334  0.3061 -0.1222 -0.8102
 8542SOL    HW237606  10.642   2.007  10.474  0.1359  0.1674 -0.6768
 8543SOL     OW37607  12.759   4.433   7.738 -0.2812 -0.2199  0.3917
 8543SOL    HW137608  12.782   4.345   7.708 -0.7891 -0.3174  0.2763
 8543SOL    HW237609  12.686   4.420   7.798 -0.9285  0.1829 -0.2880
 8544SOL     OW37610   5.280   7.278  12.053 -0.0511 -0.0461  0.1977
 8544SOL    HW137611   5.337   7.228  12.111 -0.8669  0.0417  1.0913
 8544SOL    HW237612   5.284   7.368  12.086 -0.2619  0.0750 -0.0957
 8545SOL     OW37613   2.534   3.768   5.750 -0.5480 -0.1321  0.5858
 8545SOL    HW137614   2.570   3.857   5.747 -0.7677 -0.0467  0.4192
 8545SOL    HW237615   2.597   3.718   5.801 -0.4138  0.1165  0.6646
 8546SOL     OW37616   7.600   0.023  12.733  0.2588  0.4145  0.0415
 8546SOL    HW137617   7.655  -0.031  12.790  0.3694  0.8833  0.3860
 8546SOL    HW237618   7.578  -0.034  12.660  1.4681  0.2998 -0.2688
 8547SOL     OW37619   6.420   9.591  10.371 -0.2541 -0.2071 -0.3455
 8547SOL    HW137620   6.368   9.656  10.325  0.8492 -0.0591 -1.4436
 8547SOL    HW237621   6.390   9.507  10.335 -0.5992 -0.2118 -0.0543
 8548SOL     OW37622   6.901   5.268  13.294 -0.1617  0.2263  0.4361
 8548SOL    HW137623   6.895   5.288  13.200  0.7714  2.2344  0.7522
 8548SOL    HW237624   6.974   5.206  13.300 -1.8405 -1.9970 -0.3663
 8549SOL     OW37625  10.522  10.507  13.539 -0.5370 -0.4816  0.4978
 8549SOL    HW137626  10.461  10.518  13.611  0.8495 -0.9388  1.7930
 8549SOL    HW237627  10.608  10.528  13.577 -0.0265  1.8885 -1.6735
 8550SOL     OW37628  13.164   5.009   9.390  0.3251 -0.1792 -0.4913
 8550SOL    HW137629  13.179   5.102   9.374 -0.5736  0.2561  0.9962
 8550SOL    HW237630  13.248   4.976   9.422  0.2819  0.4685  0.3345
 8551SOL     OW37631   4.886   4.506   3.374 -0.1523 -0.1884 -0.0393
 8551SOL    HW137632   4.965   4.456   3.396 -0.9401 -1.2517  0.4737
 8551SOL    HW237633   4.842   4.453   3.307 -0.7769  0.0402  0.1799
 8552SOL     OW37634   8.451   1.506   2.845 -0.0567  0.3273  0.4607
 8552SOL    HW137635   8.424   1.418   2.872 -1.8448  0.7542  0.2091
 8552SOL    HW237636   8.379   1.563   2.873 -0.5993  1.2201 -2.4169
 8553SOL     OW37637   0.061   7.045   6.782 -0.4883  0.4375  0.1892
 8553SOL    HW137638   0.119   7.121   6.778 -1.5840  1.2876  0.0888
 8553SOL    HW237639  -0.026   7.080   6.764 -0.9070 -0.9851 -0.7040
 8554SOL     OW37640  12.671   3.361  12.858 -0.8046  0.3252  0.1288
 8554SOL    HW137641  12.645   3.452  12.876 -0.8670  0.3407 -0.0355
 8554SOL    HW237642  12.620   3.337  12.781  0.2068  0.6031 -0.6593
 8555SOL     OW37643   9.451   3.703   9.254  0.2229  0.2319 -0.1720
 8555SOL    HW137644   9.542   3.693   9.227  0.3340 -2.6315  0.8359
 8555SOL    HW237645   9.403   3.643   9.197 -0.7578  0.4494  0.4150
 8556SOL     OW37646   4.328   0.152   3.055  0.2164 -0.2388 -0.2020
 8556SOL    HW137647   4.243   0.130   3.017  0.0382 -0.6665  0.4173
 8556SOL    HW237648   4.309   0.224   3.116  0.2574 -0.4535  0.0694
 8557SOL     OW37649   0.368   6.814  11.574  0.1986 -0.1183 -0.3004
 8557SOL    HW137650   0.298   6.779  11.629 -0.6243  2.7906  0.6736
 8557SOL    HW237651   0.322   6.852  11.499  0.9377 -0.0306 -0.7160
 8558SOL     OW37652  13.958   2.433   0.260  0.1063 -0.2494  0.3138
 8558SOL    HW137653  14.017   2.499   0.224 -1.3734  0.6049 -0.6711
 8558SOL    HW237654  13.975   2.355   0.208  0.8202 -0.2058  0.4758
 8559SOL     OW37655   3.747   5.986  12.803 -0.5495 -0.6674 -0.2822
 8559SOL    HW137656   3.774   6.065  12.851 -0.5904 -1.3751  0.9546
 8559SOL    HW237657   3.822   5.965  12.748 -0.1642 -0.3089  0.0943
 8560SOL     OW37658  11.458   6.294  13.121 -0.0357 -0.7995 -0.3610
 8560SOL    HW137659  11.473   6.346  13.042  1.6182 -0.7201 -0.0295
 8560SOL    HW237660  11.453   6.204  13.090  0.9024 -0.7973 -0.5404
 8561SOL     OW37661   7.935   3.510   9.915  0.4778 -0.5423 -0.0890
 8561SOL    HW137662   7.874   3.488   9.985  1.9400 -1.4421  0.9509
 8561SOL    HW237663   7.906   3.456   9.841 -2.2217  1.7707 -0.9086
 8562SOL     OW37664   4.851   6.409   6.457 -0.1941  0.3766 -0.4524
 8562SOL    HW137665   4.833   6.337   6.396 -0.6494  0.5334 -0.5069
 8562SOL    HW237666   4.784   6.474   6.438 -1.7742 -0.5039  1.7299
 8563SOL     OW37667   6.185  11.147   8.089  0.1182 -0.1021  0.7754
 8563SOL    HW137668   6.202  11.168   7.998 -0.4049 -2.7143 -0.0036
 8563SOL    HW237669   6.196  11.230   8.135  1.3630  1.0916 -1.4991
 8564SOL     OW37670   3.978   9.848  12.826  0.2593  0.4949 -0.6078
 8564SOL    HW137671   3.911   9.864  12.760  0.9247  1.7606 -1.0212
 8564SOL    HW237672   4.045   9.915  12.809 -0.4296  2.1710  2.5354
 8565SOL     OW37673  10.375   6.916   0.767 -0.0257  1.0904  0.3743
 8565SOL    HW137674  10.412   6.910   0.856  0.7830  0.5162  0.0177
 8565SOL    HW237675  10.346   7.006   0.759  1.0551  1.4909  0.7914
 8566SOL     OW37676   1.367  13.995  12.396 -0.5661 -0.2162  0.5524
 8566SOL    HW137677   1.411  13.928  12.343 -0.2292 -0.5921  1.2870
 8566SOL    HW237678   1.317  13.945  12.460 -0.8027  0.2348  0.7204
 8567SOL     OW37679  12.357   8.087  11.820 -0.7133 -0.0112 -0.2571
 8567SOL    HW137680  12.409   8.089  11.739 -1.2549 -1.0638 -0.6548
 8567SOL    HW237681  12.421   8.077  11.890 -0.2922  0.1067 -0.6221
 8568SOL     OW37682   7.226   3.013   4.034  0.0767 -0.4807 -0.0451
 8568SOL    HW137683   7.223   3.103   4.068 -0.9595 -0.5758  0.1320
 8568SOL    HW237684   7.273   3.021   3.951  0.5323  0.1245  0.2587
 8569SOL     OW37685   4.565   6.940   5.199  0.4296 -0.1734 -0.5799
 8569SOL    HW137686   4.605   7.020   5.165 -0.8773  0.8349  0.1771
 8569SOL    HW237687   4.541   6.891   5.120  3.0059 -0.8213 -1.0754
 8570SOL     OW37688   5.268   5.076   6.270 -0.0063 -0.1524  0.6589
 8570SOL    HW137689   5.232   5.149   6.320  0.5050  1.1247 -0.7491
 8570SOL    HW237690   5.192   5.022   6.247 -0.9491  1.7720 -1.1217
 8571SOL     OW37691   4.859   2.435  12.480 -0.2390  0.0035 -0.6829
 8571SOL    HW137692   4.940   2.395  12.448  0.3397  0.5565  0.0615
 8571SOL    HW237693   4.846   2.511  12.424 -0.9379 -0.7657 -1.6116
 8572SOL     OW37694   7.269  11.049  10.201  0.0635 -0.1305 -0.2586
 8572SOL    HW137695   7.227  11.127  10.165 -0.8668 -0.7516 -0.5629
 8572SOL    HW237696   7.331  11.083  10.266 -0.2540  0.8599 -0.4501
 8573SOL     OW37697  11.903  12.130   5.607  0.2070  0.6356 -0.3453
 8573SOL    HW137698  11.817  12.136   5.567 -0.4701 -1.4579  0.6328
 8573SOL    HW237699  11.961  12.102   5.536  0.3208  2.9689 -1.2237
 8574SOL     OW37700   8.029   4.979   4.059  0.6866  0.5239  0.3926
 8574SOL    HW137701   7.938   4.966   4.085 -0.3852  0.1438 -3.0361
 8574SOL    HW237702   8.070   4.893   4.074 -0.2861 -0.1346 -0.5258
 8575SOL     OW37703   4.621   3.440   8.700  0.4537  0.2931  0.4925
 8575SOL    HW137704   4.666   3.469   8.780 -0.2556  1.1359  0.6008
 8575SOL    HW237705   4.665   3.486   8.629  2.4130 -1.9464  0.1192
 8576SOL     OW37706   5.786   1.663   2.299 -0.3367  0.1867 -0.1996
 8576SOL    HW137707   5.708   1.719   2.296  0.0855  0.7323 -1.0694
 8576SOL    HW237708   5.783   1.623   2.387 -1.9490 -0.3199 -0.4556
 8577SOL     OW37709   5.341  14.044  10.165  0.0119  0.2990 -0.3814
 8577SOL    HW137710   5.268  13.983  10.172  0.2960  0.0969  1.1745
 8577SOL    HW237711   5.307  14.126  10.202  0.7211  0.0498  0.8596
 8578SOL     OW37712   5.857   8.061   9.050 -0.1012  0.0652 -0.5521
 8578SOL    HW137713   5.880   8.140   9.100 -1.0204  0.0094 -0.0099
 8578SOL    HW237714   5.766   8.076   9.023  0.8387  0.8727 -3.7502
 8579SOL     OW37715   8.744   4.720  12.273 -0.2083  0.3752  0.1784
 8579SOL    HW137716   8.734   4.697  12.366 -0.1555 -0.5549 -0.0389
 8579SOL    HW237717   8.722   4.813  12.269 -0.0195  0.4705  1.1582
 8580SOL     OW37718   6.024  10.596   5.274 -0.0020 -0.1229 -0.5712
 8580SOL    HW137719   6.032  10.692   5.276 -1.0673  0.0042 -1.7131
 8580SOL    HW237720   6.048  10.572   5.185  0.8672 -1.0097 -0.1217
 8581SOL     OW37721   1.636   0.897   4.499 -0.7228 -0.1250  0.6410
 8581SOL    HW137722   1.626   0.906   4.593  1.8269 -0.2785  1.0140
 8581SOL    HW237723   1.671   0.809   4.487 -0.5957  0.0545 -0.4020
 8582SOL     OW37724   1.399   2.965   0.243  0.0810  0.1998  0.1393
 8582SOL    HW137725   1.443   3.049   0.228 -1.0514  0.4996 -1.7629
 8582SOL    HW237726   1.307   2.988   0.251 -0.1997 -0.8354 -0.0797
 8583SOL     OW37727  10.260  12.234   8.710 -0.3320 -0.2490  0.1563
 8583SOL    HW137728  10.197  12.164   8.692  0.8121 -0.9499 -1.4126
 8583SOL    HW237729  10.309  12.203   8.786  0.4767 -1.4147 -0.8068
 8584SOL     OW37730   2.591   1.863  10.152 -0.4865  0.2104  0.0269
 8584SOL    HW137731   2.583   1.798  10.082 -0.6254  0.5916 -0.3199
 8584SOL    HW237732   2.683   1.860  10.178 -0.0100  1.3087 -1.4085
 8585SOL     OW37733   6.339   2.640   4.275  0.2848 -0.2265  0.1898
 8585SOL    HW137734   6.389   2.584   4.334 -1.5900 -1.3179  0.8477
 8585SOL    HW237735   6.273   2.582   4.237 -1.7484  1.4895  0.8998
 8586SOL     OW37736  13.788   8.584   2.451 -0.0333 -0.4239  0.1695
 8586SOL    HW137737  13.696   8.560   2.440  0.0363 -1.4046  1.4677
 8586SOL    HW237738  13.835   8.529   2.388 -0.3058 -0.0810 -0.3412
 8587SOL     OW37739   6.558   2.916   6.853  0.1986  0.1295 -0.4793
 8587SOL    HW137740   6.531   2.825   6.850  0.4209  0.0967 -2.1059
 8587SOL    HW237741   6.508   2.953   6.927 -0.8976 -0.9738 -0.6379
 8588SOL     OW37742   2.341  12.626  12.851  0.0865 -0.3059  0.5916
 8588SOL    HW137743   2.408  12.558  12.860 -0.7112 -1.0707  0.9215
 8588SOL    HW237744   2.324  12.630  12.757 -0.1169 -0.8241  0.6020
 8589SOL     OW37745   9.725  10.568  13.405  0.1954  0.2360 -0.2201
 8589SOL    HW137746   9.633  10.544  13.415  0.7122 -1.5166  0.8537
 8589SOL    HW237747   9.733  10.600  13.315 -1.4262  0.3377 -0.3479
 8590SOL     OW37748  11.321   5.586   3.448 -0.0572 -0.0183 -0.1594
 8590SOL    HW137749  11.360   5.573   3.362 -0.7140  1.7465 -0.7859
 8590SOL    HW237750  11.286   5.675   3.444 -0.7061 -0.1565  1.7037
 8591SOL     OW37751   6.078  10.917   7.920  0.1712  0.1527 -0.3527
 8591SOL    HW137752   6.020  10.964   7.861 -0.9841 -0.2440  0.4207
 8591SOL    HW237753   6.167  10.941   7.892 -0.3673  2.0236 -0.5783
 8592SOL     OW37754   7.421   6.293  10.666  0.4792  0.6425  0.3028
 8592SOL    HW137755   7.448   6.220  10.610  0.2499  2.1204 -1.8958
 8592SOL    HW237756   7.339   6.264  10.706 -0.3809  0.1697 -1.6685
 8593SOL     OW37757   2.040   1.763   0.320  0.1009  0.7510 -0.0683
 8593SOL    HW137758   1.999   1.713   0.390  0.2304  0.5033 -0.1702
 8593SOL    HW237759   1.977   1.762   0.248  0.9517 -1.0566 -0.8500
 8594SOL     OW37760  12.604  10.278   8.470  0.1542  0.5139  0.2262
 8594SOL    HW137761  12.609  10.373   8.455  0.8395  0.5799  0.8253
 8594SOL    HW237762  12.511  10.257   8.459  0.4000  0.6751 -3.3056
 8595SOL     OW37763  13.382  12.799   3.505 -0.1066 -0.0021 -0.1699
 8595SOL    HW137764  13.293  12.767   3.519 -1.5015  3.8295  1.0887
 8595SOL    HW237765  13.381  12.834   3.416  0.1199  0.0789 -0.1405
 8596SOL     OW37766   3.503   4.051  10.475  0.2824 -0.2274 -0.4859
 8596SOL    HW137767   3.483   4.068  10.567  0.3418  0.3169 -0.5671
 8596SOL    HW237768   3.440   4.106  10.427  1.3085  0.7355 -0.7565
 8597SOL     OW37769   3.521  10.477  13.935  0.2638  0.2286 -0.6288
 8597SOL    HW137770   3.476  10.499  13.853  1.2636  2.5626 -0.6394
 8597SOL    HW237771   3.450  10.453  13.995 -0.6261  0.0244 -1.7254
 8598SOL     OW37772  10.906   1.198   3.980 -0.0754 -0.2894  0.8734
 8598SOL    HW137773  10.919   1.292   3.966  0.2450 -0.4108  0.2949
 8598SOL    HW237774  10.843   1.192   4.051 -0.7297  0.3706  0.3599
 8599SOL     OW37775   2.011  10.601   6.197  0.1682 -0.1166  0.3246
 8599SOL    HW137776   1.939  10.541   6.178 -1.5930  2.0428 -0.3428
 8599SOL    HW237777   2.089  10.546   6.200 -1.2779 -2.3492 -0.5331
 8600SOL     OW37778  13.290   2.410  10.112  0.4750 -0.2684 -0.7697
 8600SOL    HW137779  13.317   2.337  10.168  0.2933 -1.2170 -1.8816
 8600SOL    HW237780  13.293   2.487  10.169 -0.9099 -1.3785  0.8737
 8601SOL     OW37781  13.189   7.453   5.748 -0.0839  0.2946 -0.1674
 8601SOL    HW137782  13.149   7.400   5.818  0.6481 -0.5598 -0.3785
 8601SOL    HW237783  13.161   7.410   5.667  0.5682  0.1921 -0.3410
 8602SOL     OW37784   2.551  10.595   0.903  0.0199 -0.6290  0.1393
 8602SOL    HW137785   2.512  10.531   0.964 -2.0520 -0.7547 -1.1900
 8602SOL    HW237786   2.556  10.548   0.820  0.7722  0.2053 -0.3040
 8603SOL     OW37787   8.161   4.096  12.540 -0.4170 -0.1743  0.5010
 8603SOL    HW137788   8.173   4.024  12.479  0.8156 -0.5411  1.1354
 8603SOL    HW237789   8.246   4.140  12.543 -1.4415  2.0576 -0.7538
 8604SOL     OW37790   6.574  12.004   9.149  0.3908  0.0095  0.1738
 8604SOL    HW137791   6.581  12.072   9.216  0.6943  0.2892 -0.1317
 8604SOL    HW237792   6.505  12.035   9.090  0.8126  0.2665 -0.1962
 8605SOL     OW37793   3.533  11.067   4.717  0.3825 -0.0551  0.1463
 8605SOL    HW137794   3.550  11.155   4.750 -1.2118 -0.1198  1.2742
 8605SOL    HW237795   3.581  11.009   4.776 -0.6165 -0.0510  0.9849
 8606SOL     OW37796  10.871   1.258   9.891  0.4873  0.0731 -0.0921
 8606SOL    HW137797  10.906   1.206   9.818 -0.9732 -1.0002 -0.0702
 8606SOL    HW237798  10.831   1.194   9.949 -2.5871  1.2545 -0.7177
 8607SOL     OW37799   7.829  11.626   4.930 -0.1580 -0.0196 -0.6921
 8607SOL    HW137800   7.885  11.703   4.928 -0.4608  0.2032 -0.5413
 8607SOL    HW237801   7.880  11.558   4.885  0.1537  0.2343 -0.7207
 8608SOL     OW37802   5.685   8.661   5.112 -0.1673 -0.3066  0.2927
 8608SOL    HW137803   5.729   8.745   5.095  0.2352 -0.9441 -2.2509
 8608SOL    HW237804   5.593   8.684   5.123 -0.0677  0.4919 -0.4101
 8609SOL     OW37805   2.904  13.483   1.945 -0.6156  0.2174  0.2208
 8609SOL    HW137806   2.930  13.511   2.033 -0.9848  0.5769  0.2189
 8609SOL    HW237807   2.912  13.561   1.891  0.7383 -0.2734 -0.3333
 8610SOL     OW37808   8.674   9.351   7.466 -0.1712 -0.0571 -0.4550
 8610SOL    HW137809   8.593   9.330   7.512 -0.1836 -0.0761 -0.4869
 8610SOL    HW237810   8.703   9.268   7.429 -0.3683  0.0323 -0.8137
 8611SOL     OW37811   7.257   6.029   7.467  0.3680  0.2503 -0.0246
 8611SOL    HW137812   7.275   6.064   7.380  1.7568 -3.3737 -1.3508
 8611SOL    HW237813   7.164   6.005   7.465  0.5540 -0.4180 -0.7412
 8612SOL     OW37814   0.598   8.369   8.928  0.7765 -0.3100  0.0926
 8612SOL    HW137815   0.562   8.283   8.907  1.8992 -0.3753 -1.7300
 8612SOL    HW237816   0.661   8.387   8.859  0.3199  2.1453  0.2173
 8613SOL     OW37817   9.581   1.034   9.456 -0.0422 -0.2936 -0.2393
 8613SOL    HW137818   9.602   1.115   9.502  0.7409 -0.9274  0.5431
 8613SOL    HW237819   9.624   1.043   9.371  1.7656 -0.7201  0.5886
 8614SOL     OW37820  11.055   1.170  11.532 -0.1526 -0.2113  0.1151
 8614SOL    HW137821  10.987   1.114  11.569 -0.7790  0.0384 -0.6375
 8614SOL    HW237822  11.136   1.121  11.546 -0.4264 -0.3704  1.3021
 8615SOL     OW37823  12.770   0.769   9.699 -0.1911  0.1143  0.6014
 8615SOL    HW137824  12.698   0.832   9.693  0.6529  1.2447  1.8426
 8615SOL    HW237825  12.736   0.699   9.754 -1.0918 -0.4818 -0.6734
 8616SOL     OW37826  13.635   4.934   5.906  0.7506 -0.5523  0.0098
 8616SOL    HW137827  13.637   4.838   5.905  1.8361 -0.5410 -0.1056
 8616SOL    HW237828  13.711   4.959   5.959  0.3368  0.2458  0.2369
 8617SOL     OW37829   6.496  12.936   3.502 -0.0494 -0.2462 -0.0306
 8617SOL    HW137830   6.505  12.865   3.439  1.1646  0.8553 -1.1823
 8617SOL    HW237831   6.583  12.976   3.505 -0.8649  1.6471 -0.0085
 8618SOL     OW37832   9.222   3.328  11.791 -0.0028 -0.3901  0.1003
 8618SOL    HW137833   9.204   3.290  11.878  1.0880 -1.8524 -0.2696
 8618SOL    HW237834   9.232   3.252  11.734  1.3262  0.4900 -0.8875
 8619SOL     OW37835   8.181   6.122   0.960  0.2367 -0.1406  0.0475
 8619SOL    HW137836   8.221   6.174   1.029 -0.3395  0.1751  0.1561
 8619SOL    HW237837   8.088   6.118   0.984 -0.0059  0.1466 -0.8050
 8620SOL     OW37838   5.230   1.507   9.554  0.0526 -0.2477  0.3965
 8620SOL    HW137839   5.147   1.484   9.597 -0.8441  3.0789  0.7262
 8620SOL    HW237840   5.253   1.592   9.591  2.0302  0.3192 -1.8958
 8621SOL     OW37841   4.457   2.213   6.198  0.1289  0.3899  0.2621
 8621SOL    HW137842   4.393   2.280   6.173 -0.1974 -0.1751 -0.4796
 8621SOL    HW237843   4.431   2.136   6.147  0.5544 -0.2712  1.0203
 8622SOL     OW37844   3.762   3.284   5.350  0.1735  0.2757  0.3610
 8622SOL    HW137845   3.668   3.267   5.340 -0.3285  2.6507  0.4046
 8622SOL    HW237846   3.783   3.344   5.278  1.9656 -1.0898 -0.3407
 8623SOL     OW37847  13.362   6.417   7.295  0.3984  0.1233 -0.6478
 8623SOL    HW137848  13.311   6.344   7.330  1.3711  0.2758  1.2540
 8623SOL    HW237849  13.418   6.377   7.228 -1.3936 -0.2271 -1.9793
 8624SOL     OW37850  13.344   5.202   4.556  0.1218  0.8384  0.2119
 8624SOL    HW137851  13.356   5.173   4.647 -1.2863  0.1088  0.1983
 8624SOL    HW237852  13.343   5.122   4.505 -2.0850  0.9479 -0.0476
 8625SOL     OW37853   1.779  13.367   4.376  0.0369  0.0348  0.4270
 8625SOL    HW137854   1.783  13.279   4.415  1.4810 -1.1510 -2.1306
 8625SOL    HW237855   1.839  13.419   4.430  2.2511 -1.6203 -0.2794
 8626SOL     OW37856  12.387   7.423   8.768  0.3928 -0.0780 -0.1609
 8626SOL    HW137857  12.309   7.377   8.798  0.3511 -0.6654 -1.1115
 8626SOL    HW237858  12.428   7.361   8.707  0.7408  0.8534 -0.8839
 8627SOL     OW37859   9.629   0.047   7.846  0.2048  0.2829  0.3512
 8627SOL    HW137860   9.589   0.097   7.918 -0.0887  0.0268  0.3663
 8627SOL    HW237861   9.717   0.083   7.839  0.1863  0.4137  0.7418
 8628SOL     OW37862  12.661   6.722  10.633 -0.5120 -0.6684 -0.2673
 8628SOL    HW137863  12.600   6.661  10.591 -1.8636 -1.1197  2.2223
 8628SOL    HW237864  12.729   6.666  10.671  0.4528 -0.2896 -1.3573
 8629SOL     OW37865  10.095  10.745  10.259 -0.2629  0.2934 -0.1866
 8629SOL    HW137866  10.164  10.782  10.314 -0.8718  0.1171  0.7226
 8629SOL    HW237867  10.073  10.815  10.198 -1.2672  1.4162  1.3896
 8630SOL     OW37868   9.503   6.693   2.974  0.3905  0.0949 -0.1090
 8630SOL    HW137869   9.574   6.650   3.023  1.1306  0.4794 -0.8167
 8630SOL    HW237870   9.484   6.633   2.902  2.3170  1.4516 -1.8604
 8631SOL     OW37871  13.089   4.258  12.374 -0.4036 -0.0689 -0.1003
 8631SOL    HW137872  13.170   4.229  12.334  1.2194  1.6134  1.7699
 8631SOL    HW237873  13.039   4.178  12.389  1.7901 -1.3787  0.5441
 8632SOL     OW37874  13.945   0.255   7.110  0.1211  0.4122  0.4433
 8632SOL    HW137875  14.008   0.218   7.048 -0.9409  0.5040 -0.7490
 8632SOL    HW237876  13.990   0.255   7.194  1.0156 -1.3334  0.0090
 8633SOL     OW37877   2.852   2.266   7.481 -0.3218  0.2173 -0.4501
 8633SOL    HW137878   2.882   2.336   7.422  0.4519  0.0355 -0.2796
 8633SOL    HW237879   2.756   2.274   7.480 -0.2381  1.7403  0.1079
 8634SOL     OW37880   2.473   3.114   0.743  0.4750 -0.1154 -0.4941
 8634SOL    HW137881   2.380   3.093   0.757  0.7895 -0.5583  1.1652
 8634SOL    HW237882   2.478   3.140   0.651 -1.3675  0.3308 -0.5068
 8635SOL     OW37883   4.818  10.203   8.460 -0.1522 -0.4962  0.4775
 8635SOL    HW137884   4.863  10.189   8.376  0.3515 -0.2383  0.6963
 8635SOL    HW237885   4.815  10.298   8.470  0.1274 -0.5306  0.9265
 8636SOL     OW37886   7.769   7.299  10.561  0.1920 -0.2835  0.2995
 8636SOL    HW137887   7.699   7.359  10.584  0.8586  0.7040 -0.1771
 8636SOL    HW237888   7.727   7.213  10.557 -1.5085  0.5659 -2.2547
 8637SOL     OW37889  12.243   5.911  12.405  0.1087 -0.1685  0.2886
 8637SOL    HW137890  12.293   5.858  12.468  2.7449  1.0895 -0.5915
 8637SOL    HW237891  12.193   5.972  12.458  0.8268 -0.3558  1.2018
 8638SOL     OW37892   4.127   8.282  12.804 -0.3546  0.2304 -0.0383
 8638SOL    HW137893   4.105   8.243  12.719 -0.4057 -0.9381  0.4890
 8638SOL    HW237894   4.111   8.375  12.793 -2.1620 -0.1211 -0.7584
 8639SOL     OW37895  12.755   2.511   3.312 -0.3244  0.0034  0.3398
 8639SOL    HW137896  12.810   2.433   3.320 -0.0861  0.0567 -0.7345
 8639SOL    HW237897  12.769   2.543   3.223 -2.8416 -0.5780 -0.3626
 8640SOL     OW37898   2.618   0.613   9.992 -0.6763 -0.0057 -0.5145
 8640SOL    HW137899   2.544   0.589  10.048 -0.6483  2.3935  0.6486
 8640SOL    HW237900   2.653   0.693  10.030  1.1701  0.1433 -2.3297
 8641SOL     OW37901  13.626   8.848  12.359 -0.0950 -0.5521  0.1263
 8641SOL    HW137902  13.714   8.884  12.354 -0.1169 -0.6184 -0.8638
 8641SOL    HW237903  13.586   8.893  12.433  0.7035 -0.3820  0.4651
 8642SOL     OW37904  11.277   0.744   5.132  0.2303 -0.6771 -0.2269
 8642SOL    HW137905  11.347   0.763   5.194 -0.2152 -0.6155  0.2663
 8642SOL    HW237906  11.197   0.746   5.185 -0.1876 -0.3499 -0.8542
 8643SOL     OW37907   1.967  12.112   2.862 -0.3399  0.0032 -0.7192
 8643SOL    HW137908   1.902  12.118   2.792  0.6792  1.3336 -1.5899
 8643SOL    HW237909   1.916  12.122   2.942 -1.3468 -0.1404 -1.3125
 8644SOL     OW37910  13.205  12.790   4.122 -0.3801  0.1317 -0.0726
 8644SOL    HW137911  13.253  12.784   4.204 -1.2979  2.8439  0.7471
 8644SOL    HW237912  13.117  12.757   4.142 -0.0979 -0.9197 -0.4855
 8645SOL     OW37913   5.525  10.431   0.325  0.8363  0.3721 -0.0897
 8645SOL    HW137914   5.551  10.497   0.261  0.3809  0.6532  0.0125
 8645SOL    HW237915   5.601  10.422   0.382  0.8859  0.8346 -0.0789
 8646SOL     OW37916   8.946   2.147   7.627  0.2993  0.6049  0.6011
 8646SOL    HW137917   8.882   2.216   7.643 -0.2790  0.6629 -1.6354
 8646SOL    HW237918   8.915   2.073   7.678 -1.5291  0.6823 -0.3258
 8647SOL     OW37919   8.578  11.844   9.642 -0.5681  0.4576 -0.1087
 8647SOL    HW137920   8.604  11.923   9.595 -0.8153  1.6683  1.7128
 8647SOL    HW237921   8.657  11.818   9.690  0.0966 -1.5339 -2.0755
 8648SOL     OW37922   6.048   7.089   1.731  0.1888 -0.0019 -0.2251
 8648SOL    HW137923   6.121   7.137   1.769  0.5409 -1.1408  0.5638
 8648SOL    HW237924   5.974   7.108   1.789 -0.2124  1.2735 -1.1081
 8649SOL     OW37925  13.711  10.455   9.932 -0.1729  0.3033  0.4613
 8649SOL    HW137926  13.782  10.436   9.993 -1.4793  0.4295  2.1118
 8649SOL    HW237927  13.708  10.379   9.873  0.0060 -0.6878  1.6875
 8650SOL     OW37928  13.135  10.770   1.383  0.6607 -0.2031 -0.6784
 8650SOL    HW137929  13.114  10.764   1.476  0.6851  1.1636 -0.5689
 8650SOL    HW237930  13.066  10.719   1.340  0.5900 -0.7585  0.0799
 8651SOL     OW37931  11.197   5.373   5.235  0.3454 -0.6457  0.6019
 8651SOL    HW137932  11.252   5.397   5.310 -0.6642  1.4070  0.7607
 8651SOL    HW237933  11.180   5.456   5.191 -1.4517 -1.4158 -0.2478
 8652SOL     OW37934   2.014   4.755  11.110  0.4290 -0.2741  0.2269
 8652SOL    HW137935   2.075   4.829  11.112 -0.3557  0.3716  0.8520
 8652SOL    HW237936   1.999   4.740  11.017 -0.5116  1.3120  0.0897
 8653SOL     OW37937   8.350   1.937   1.369  0.4131  0.8538 -0.1276
 8653SOL    HW137938   8.436   1.896   1.369  0.1197 -0.0569 -3.3380
 8653SOL    HW237939   8.297   1.884   1.428  1.7666  0.8813  1.1667
 8654SOL     OW37940   5.692  10.913  12.910  0.2708 -0.1649  0.0299
 8654SOL    HW137941   5.752  10.870  12.850 -1.2190  0.6398 -2.1607
 8654SOL    HW237942   5.720  11.005  12.910  0.9226 -0.3319  1.4795
 8655SOL     OW37943   6.345   1.497   5.340  0.5669  0.0616  1.0591
 8655SOL    HW137944   6.281   1.539   5.284  0.8259 -0.4207  0.3907
 8655SOL    HW237945   6.370   1.417   5.293 -0.1383 -1.0220  2.4180
 8656SOL     OW37946  12.998  11.816   1.411 -0.2241  0.8383 -0.2049
 8656SOL    HW137947  13.043  11.783   1.489  0.5304 -1.8182 -1.6445
 8656SOL    HW237948  12.905  11.818   1.436  0.0654  0.5926  0.9370
 8657SOL     OW37949   0.850   0.716   0.186 -0.5229  0.1056 -0.4360
 8657SOL    HW137950   0.797   0.745   0.260  0.8452 -0.0980  0.6714
 8657SOL    HW237951   0.825   0.773   0.114 -3.1231 -0.7664 -0.3434
 8658SOL     OW37952   4.675   4.430   9.405 -0.0909  0.5934  0.1447
 8658SOL    HW137953   4.603   4.413   9.466  0.6180 -0.7911  0.6242
 8658SOL    HW237954   4.732   4.354   9.412  2.0349  2.1056  0.6121
 8659SOL     OW37955   7.480   0.437   1.318  0.0830 -0.0236 -0.6240
 8659SOL    HW137956   7.448   0.381   1.247 -3.0476  0.0642  0.5591
 8659SOL    HW237957   7.529   0.378   1.375 -1.0566 -1.0366 -0.6602
 8660SOL     OW37958   3.272   2.884   7.420  0.3924 -0.0836 -0.0206
 8660SOL    HW137959   3.208   2.951   7.396 -2.7791 -1.3463  3.8682
 8660SOL    HW237960   3.227   2.801   7.405  1.3507 -1.0543  2.0851
 8661SOL     OW37961  11.780   9.391  10.464 -0.2472 -0.5743  0.3554
 8661SOL    HW137962  11.788   9.393  10.368 -1.6221 -1.4256  0.2051
 8661SOL    HW237963  11.694   9.353  10.480 -0.3873  0.3274  1.9333
 8662SOL     OW37964   0.739  11.620   9.944 -0.4366 -0.0513 -0.5064
 8662SOL    HW137965   0.745  11.698   9.889 -0.6444  0.3865  0.0803
 8662SOL    HW237966   0.825  11.613   9.986 -0.1095 -0.6743 -1.2604
 8663SOL     OW37967   0.958  13.985  13.621 -0.0609 -0.0283  0.1952
 8663SOL    HW137968   1.034  13.996  13.677  0.0414  3.2333 -0.4242
 8663SOL    HW237969   0.986  14.018  13.535 -1.0619 -2.3379 -1.1431
 8664SOL     OW37970   1.812   6.875  12.124  0.1406 -0.6856  0.5678
 8664SOL    HW137971   1.791   6.967  12.141  0.4556 -0.2854 -1.0963
 8664SOL    HW237972   1.752   6.849  12.054  1.5109 -1.0957 -0.4989
 8665SOL     OW37973   5.117  13.087   7.851  0.1525  0.2159 -0.3082
 8665SOL    HW137974   5.170  13.079   7.931 -1.1822  0.6131  0.6471
 8665SOL    HW237975   5.103  12.996   7.823  3.1842  0.1157 -1.9088
 8666SOL     OW37976   9.311   6.888   1.269 -0.1691 -0.1760  0.7106
 8666SOL    HW137977   9.277   6.800   1.253 -0.2013 -0.4872  2.2679
 8666SOL    HW237978   9.344   6.917   1.184 -0.3726 -1.5899  0.1129
 8667SOL     OW37979   7.032  13.247  10.260 -0.1531 -0.5128 -0.1155
 8667SOL    HW137980   6.963  13.250  10.194 -0.9717 -1.8264  0.6466
 8667SOL    HW237981   7.005  13.178  10.320  1.8564 -1.1292  0.1572
 8668SOL     OW37982  13.243   9.233   1.508 -0.1980 -0.2423  0.3476
 8668SOL    HW137983  13.280   9.321   1.517 -0.5822 -0.0148 -0.1859
 8668SOL    HW237984  13.307   9.175   1.549  2.7001 -0.3537 -3.6586
 8669SOL     OW37985   7.631   3.375  10.525 -0.0475  0.6629  0.3067
 8669SOL    HW137986   7.667   3.300  10.572  0.7115  0.6831 -0.2287
 8669SOL    HW237987   7.536   3.362  10.529  0.0228  0.3484  1.3070
 8670SOL     OW37988   2.827   4.462  11.570  0.0622  0.5350  0.0933
 8670SOL    HW137989   2.910   4.417  11.577 -0.1962  0.0909  0.3148
 8670SOL    HW237990   2.850   4.550  11.538  0.9069  1.3676  2.7403
 8671SOL     OW37991   2.872   2.659   3.657  0.2978  0.1512  0.4067
 8671SOL    HW137992   2.812   2.671   3.730  1.3973 -0.8271  1.5348
 8671SOL    HW237993   2.822   2.683   3.579 -0.9955  0.9402  1.4546
 8672SOL     OW37994   0.781   9.835  11.027 -0.3530  0.1746 -0.3065
 8672SOL    HW137995   0.738   9.920  11.026 -0.4557  0.1424  0.7179
 8672SOL    HW237996   0.851   9.842  10.962 -0.4136  1.0060 -0.2843
 8673SOL     OW37997  12.693   4.930  12.524 -0.0108  0.4604 -0.9011
 8673SOL    HW137998  12.671   4.904  12.435  1.7916 -1.7775 -0.7948
 8673SOL    HW237999  12.781   4.969  12.517  0.4415 -0.3605 -0.0392
 8674SOL     OW38000  12.399  11.261  13.074  0.4736  0.0639 -0.4331
 8674SOL    HW138001  12.441  11.231  13.155  1.4305  0.0957 -0.8964
 8674SOL    HW238002  12.459  11.327  13.039 -0.1917  0.4374 -0.8991
 8675SOL     OW38003   3.213   9.705  12.791  0.1245 -0.0247  0.1944
 8675SOL    HW138004   3.140   9.714  12.852 -0.0426 -0.5166  0.0663
 8675SOL    HW238005   3.204   9.617  12.755  0.8424 -0.1341  0.2635
 8676SOL     OW38006   8.487   7.639   4.381 -0.1313 -0.5693  0.5703
 8676SOL    HW138007   8.557   7.704   4.387  1.9131 -2.6448  0.3930
 8676SOL    HW238008   8.487   7.595   4.466 -1.4332 -0.4484  0.6613
 8677SOL     OW38009   6.240  10.573  12.854 -0.0118  0.3136  0.3226
 8677SOL    HW138010   6.319  10.546  12.901  0.1455  0.7352  0.3002
 8677SOL    HW238011   6.209  10.650  12.900 -0.2302  0.3417  0.1323
 8678SOL     OW38012  11.305   5.919  11.502  0.1664  0.1762  0.2209
 8678SOL    HW138013  11.262   5.956  11.578  1.4656 -0.5017  1.3350
 8678SOL    HW238014  11.282   5.977  11.430 -2.5409 -0.1553  0.7358
 8679SOL     OW38015   1.836   0.967  10.385 -0.1760 -0.1330  0.9345
 8679SOL    HW138016   1.910   0.912  10.357 -0.1645  0.5345 -0.4578
 8679SOL    HW238017   1.872   1.056  10.384 -0.9555  0.1814  0.3752
 8680SOL     OW38018   0.876   9.855   4.712 -0.3181 -0.0754 -0.1471
 8680SOL    HW138019   0.887   9.936   4.663 -0.6460 -1.6407 -3.0260
 8680SOL    HW238020   0.964   9.817   4.714 -0.6371 -0.9598 -1.4059
 8681SOL     OW38021  13.193   9.752   0.667  0.7373 -0.1976 -0.3460
 8681SOL    HW138022  13.234   9.666   0.674  1.6285 -0.0045 -2.3503
 8681SOL    HW238023  13.187   9.767   0.573 -1.6707  0.9009 -0.0747
 8682SOL     OW38024   6.021  13.432  12.386 -0.2645 -0.3706  0.2072
 8682SOL    HW138025   5.961  13.441  12.312  0.1637  1.4029  0.0298
 8682SOL    HW238026   5.989  13.496  12.450  0.5783 -0.4345  0.7001
 8683SOL     OW38027   4.204   7.919  13.417  0.0899 -0.0240 -0.0703
 8683SOL    HW138028   4.251   7.969  13.350  0.2571  0.2005  0.2145
 8683SOL    HW238029   4.251   7.837  13.424  0.1002 -0.0291 -0.1934
 8684SOL     OW38030  11.500  12.166   5.176 -0.1416  0.9234  0.0399
 8684SOL    HW138031  11.590  12.178   5.204 -0.5851  2.2615  1.0228
 8684SOL    HW238032  11.499  12.082   5.131  1.8602  1.4557 -1.1168
 8685SOL     OW38033   7.745  12.198   2.639 -0.1827 -0.0057 -0.4573
 8685SOL    HW138034   7.696  12.191   2.721  0.5056  0.3049 -0.0051
 8685SOL    HW238035   7.736  12.112   2.598 -0.3715 -0.2279  0.0366
 8686SOL     OW38036   8.745  11.049   0.359 -0.1385  0.2205 -0.0062
 8686SOL    HW138037   8.827  11.099   0.371 -0.9941  1.3476  1.5690
 8686SOL    HW238038   8.773  10.958   0.359  1.0954  0.5513  1.2012
 8687SOL     OW38039  13.901   5.244  11.346  0.4863  0.0030 -0.5601
 8687SOL    HW138040  13.898   5.335  11.316 -2.6389 -0.4800 -2.0113
 8687SOL    HW238041  13.832   5.238  11.412  1.5120 -1.0502  0.4698
 8688SOL     OW38042  13.166   7.211   4.548 -0.5513  0.7643 -0.3597
 8688SOL    HW138043  13.233   7.156   4.507 -0.5050  0.7008 -0.1980
 8688SOL    HW238044  13.139   7.162   4.626 -0.9795  0.6611 -0.5691
 8689SOL     OW38045  10.966   3.031  13.542  0.4746 -0.4360 -0.0824
 8689SOL    HW138046  11.018   2.950  13.543  3.0439  1.0775  0.7933
 8689SOL    HW238047  10.971   3.063  13.632 -0.8290  0.4963 -0.3250
 8690SOL     OW38048   6.591  12.760   8.513 -0.2639  0.0273 -0.0344
 8690SOL    HW138049   6.590  12.680   8.460  0.2698 -0.5284  0.7769
 8690SOL    HW238050   6.506  12.761   8.557 -1.0625  0.9355 -1.5102
 8691SOL     OW38051   2.678   8.667   0.514 -0.6588 -0.3274 -0.3609
 8691SOL    HW138052   2.606   8.604   0.513 -0.8055 -0.2103 -2.6689
 8691SOL    HW238053   2.755   8.615   0.536 -1.0208 -1.0136 -0.6913
 8692SOL     OW38054   2.636   6.879  12.687  0.0078  0.3566  0.0951
 8692SOL    HW138055   2.578   6.827  12.631 -0.2402  0.1660  0.5183
 8692SOL    HW238056   2.622   6.969  12.660 -0.7656  0.3440  0.4411
 8693SOL     OW38057   5.773   0.522   1.370 -0.7365  0.5571  0.5768
 8693SOL    HW138058   5.792   0.494   1.281 -0.7504  0.5362  0.5801
 8693SOL    HW238059   5.812   0.454   1.425 -2.1859 -0.3422  0.5501
 8694SOL     OW38060  11.172   8.156   0.448  0.0560 -0.4847  0.1360
 8694SOL    HW138061  11.198   8.237   0.405 -4.3613 -0.1224 -2.5612
 8694SOL    HW238062  11.112   8.183   0.518  0.3847 -1.3542  0.7779
 8695SOL     OW38063   2.200   8.407   2.351  0.9510 -0.3448  0.5368
 8695SOL    HW138064   2.118   8.401   2.400  1.6411 -4.0460  1.5927
 8695SOL    HW238065   2.173   8.419   2.260 -0.5487  1.9992  1.2359
 8696SOL     OW38066  12.715   1.382  10.931  0.1595  0.1282  0.4783
 8696SOL    HW138067  12.788   1.331  10.965 -1.1910 -0.8379  2.0752
 8696SOL    HW238068  12.673   1.419  11.009 -0.3114  1.7334 -0.4865
 8697SOL     OW38069   4.542   6.587   7.714 -0.0647 -0.1012  0.1617
 8697SOL    HW138070   4.607   6.582   7.643 -0.8950 -0.9552 -0.5812
 8697SOL    HW238071   4.558   6.508   7.766 -1.4892 -1.2003 -0.9605
 8698SOL     OW38072   2.017   7.079   9.531 -0.4591 -0.1638  0.2937
 8698SOL    HW138073   1.923   7.090   9.548 -0.7224 -1.5175 -0.1476
 8698SOL    HW238074   2.023   6.996   9.484  0.8116  0.6491 -1.0765
 8699SOL     OW38075   7.395   5.989   2.643 -0.0978  0.0301 -0.2873
 8699SOL    HW138076   7.422   5.985   2.735 -0.1953 -0.3320 -0.2727
 8699SOL    HW238077   7.477   6.001   2.595 -0.0746  0.5042 -0.1373
 8700SOL     OW38078   8.863  10.633  13.607 -0.4606  0.3662 -0.6527
 8700SOL    HW138079   8.919  10.574  13.557 -1.3841  0.4373 -1.8155
 8700SOL    HW238080   8.871  10.717  13.563  1.8684  1.5545  1.7658
 8701SOL     OW38081  13.048  12.043   5.038 -0.1647  0.2577 -0.4462
 8701SOL    HW138082  13.064  12.132   5.006 -0.1844  0.6981  0.7380
 8701SOL    HW238083  12.953  12.037   5.047 -0.0901  0.5301  0.6036
 8702SOL     OW38084   4.529   7.674   6.262  0.4462  0.4887 -0.3492
 8702SOL    HW138085   4.452   7.722   6.291  0.1263 -0.1596 -0.1273
 8702SOL    HW238086   4.512   7.583   6.285  1.5122  0.4138  0.2090
 8703SOL     OW38087  13.952   3.272   4.763  0.4226  0.1246 -0.1321
 8703SOL    HW138088  13.863   3.252   4.792 -0.0186 -0.6071 -1.8698
 8703SOL    HW238089  13.996   3.187   4.762  1.4410  0.5802  1.5157
 8704SOL     OW38090  11.218  12.476  10.641  0.4628 -0.3963  0.2631
 8704SOL    HW138091  11.164  12.478  10.562 -1.2954 -1.4095  1.3817
 8704SOL    HW238092  11.225  12.567  10.668 -0.3177 -0.2064 -0.1425
 8705SOL     OW38093   7.769  11.818  13.692  0.8582 -0.4172  0.6895
 8705SOL    HW138094   7.713  11.779  13.625  0.2746  0.9066  0.3671
 8705SOL    HW238095   7.714  11.883  13.735  1.6865 -0.1860  1.4310
 8706SOL     OW38096   3.123  11.811   5.393 -0.5861 -0.2929  0.6261
 8706SOL    HW138097   3.166  11.871   5.332  0.7586  0.0632  1.8738
 8706SOL    HW238098   3.036  11.850   5.406 -0.6816 -0.0582 -0.5681
 8707SOL     OW38099   4.438  10.818  13.006 -0.1477  0.4255 -0.1073
 8707SOL    HW138100   4.389  10.739  12.983  1.3304 -0.7946  0.7416
 8707SOL    HW238101   4.446  10.866  12.924 -1.1319 -0.2613 -0.6307
 8708SOL     OW38102   6.638   9.894   8.793  0.0259  0.5908 -0.4154
 8708SOL    HW138103   6.575   9.887   8.721  0.5394  0.6659 -0.8777
 8708SOL    HW238104   6.710   9.836   8.768  0.2399  0.6702  0.0064
 8709SOL     OW38105   1.353   8.609   2.137 -0.1670  0.5613 -0.4192
 8709SOL    HW138106   1.376   8.702   2.139  2.0438  0.0700  0.1447
 8709SOL    HW238107   1.344   8.584   2.229  0.5907 -0.0519 -0.4951
 8710SOL     OW38108   8.351   2.330   3.108  0.2635 -0.0314  0.1688
 8710SOL    HW138109   8.395   2.414   3.121 -1.3902  0.5804  2.5635
 8710SOL    HW238110   8.378   2.277   3.183  0.0981 -1.1193 -0.5158
 8711SOL     OW38111   3.464  12.964  13.792  0.5931  0.6681  0.1895
 8711SOL    HW138112   3.419  13.046  13.772  0.9542  1.5239  2.5056
 8711SOL    HW238113   3.528  12.953  13.722  0.2466  2.1530 -0.3855
 8712SOL     OW38114  10.291  10.141  11.568 -0.6470  0.5586 -0.4020
 8712SOL    HW138115  10.297  10.127  11.474  0.6317  0.4308 -0.3214
 8712SOL    HW238116  10.379  10.167  11.594 -0.5006 -1.1673  1.0165
 8713SOL     OW38117   5.996  12.171  12.973  1.0125  0.3572  0.1014
 8713SOL    HW138118   5.985  12.079  12.948  0.0627 -0.7495  3.8410
 8713SOL    HW238119   6.082  12.195  12.940  0.6084 -1.2778 -2.4120
 8714SOL     OW38120   9.613   5.365  13.605  0.3969  0.2861 -0.8669
 8714SOL    HW138121   9.680   5.433  13.606  0.0171  0.6817  0.6763
 8714SOL    HW238122   9.663   5.283  13.610  0.8031  0.5594 -0.1799
 8715SOL     OW38123  11.229   9.179   5.223 -0.0806  0.3826 -0.4765
 8715SOL    HW138124  11.227   9.275   5.223 -1.3033  0.4477  2.2521
 8715SOL    HW238125  11.225   9.155   5.316  0.4138 -2.3296 -1.0743
 8716SOL     OW38126   9.887   7.106  11.911 -0.1085 -0.2461 -0.1056
 8716SOL    HW138127   9.884   7.196  11.877  0.6931 -0.0426  0.3256
 8716SOL    HW238128   9.916   7.116  12.002 -1.6338 -0.8238  0.4753
 8717SOL     OW38129   2.376   3.852  11.969  0.4454  0.3531 -0.0351
 8717SOL    HW138130   2.450   3.876  11.914  0.3377  0.3790 -0.1697
 8717SOL    HW238131   2.338   3.935  11.995  0.6108  0.3436  0.2349
 8718SOL     OW38132   0.115  10.138   8.048 -0.4467 -0.1801  0.2658
 8718SOL    HW138133   0.040  10.111   7.996  0.8979 -2.7565 -0.5421
 8718SOL    HW238134   0.112  10.083   8.126  0.3098  0.0425  0.4679
 8719SOL     OW38135   5.911   9.189   2.921  0.2214  0.0304  0.0089
 8719SOL    HW138136   5.842   9.154   2.978 -1.1347 -3.6168 -3.4478
 8719SOL    HW238137   5.989   9.188   2.976 -1.5974  0.2828  2.8308
 8720SOL     OW38138   4.136   7.658   9.050  0.1097  0.1867 -0.5229
 8720SOL    HW138139   4.093   7.675   9.134 -0.1496 -0.0008 -0.6160
 8720SOL    HW238140   4.230   7.666   9.069  0.0441  0.3520 -0.2619
 8721SOL     OW38141  13.801   1.339   8.654 -0.7559 -0.3346 -0.0862
 8721SOL    HW138142  13.759   1.388   8.583 -0.2975 -0.7392 -0.6547
 8721SOL    HW238143  13.883   1.308   8.616  0.4899  1.1627  1.2688
 8722SOL     OW38144   1.883   3.813  13.942 -0.1469 -0.1567 -0.1039
 8722SOL    HW138145   1.859   3.837  14.031 -0.1035 -1.3824  0.2626
 8722SOL    HW238146   1.951   3.746  13.952  0.8093  0.6229 -1.0847
 8723SOL     OW38147   9.662  10.863  10.589  0.7216 -0.0483  0.3130
 8723SOL    HW138148   9.651  10.821  10.674 -0.3843  1.5334  1.0164
 8723SOL    HW238149   9.747  10.907  10.596  0.5161  0.3002  0.7297
 8724SOL     OW38150   5.258   3.517  13.012  0.3931  0.1719 -0.2433
 8724SOL    HW138151   5.302   3.542  12.930 -0.4916 -0.2655 -0.8698
 8724SOL    HW238152   5.253   3.598  13.062  2.0896  0.1983 -0.0447
 8725SOL     OW38153   3.466   7.471   2.221 -0.3998 -0.2400  0.5457
 8725SOL    HW138154   3.541   7.467   2.162 -0.8058  2.2842 -0.2364
 8725SOL    HW238155   3.440   7.379   2.233  1.8427 -1.0521 -0.3628
 8726SOL     OW38156   3.255   0.976   6.320  0.5657  0.6825  0.0301
 8726SOL    HW138157   3.168   0.963   6.355 -0.6360 -1.4936 -3.2642
 8726SOL    HW238158   3.305   0.899   6.349  0.5370  0.5020 -0.3974
 8727SOL     OW38159   0.712   3.325   2.947  0.1926  0.2218  0.0675
 8727SOL    HW138160   0.710   3.420   2.956  0.9950  0.2494  0.0557
 8727SOL    HW238161   0.638   3.305   2.889 -0.2415  0.7901  0.4131
 8728SOL     OW38162   6.407   3.963   3.304  0.1030  0.1027  0.1970
 8728SOL    HW138163   6.493   3.959   3.262 -0.4554 -1.5353 -0.8754
 8728SOL    HW238164   6.426   3.955   3.397  1.1165 -0.0523 -0.0103
 8729SOL     OW38165   0.107   9.444   5.331  0.4460 -0.4018  0.6715
 8729SOL    HW138166   0.031   9.503   5.331 -0.0919 -1.0719  0.0237
 8729SOL    HW238167   0.069   9.357   5.316  1.3553 -0.7304  0.2266
 8730SOL     OW38168  11.694   9.379   6.128  1.2307  0.3696 -0.3827
 8730SOL    HW138169  11.621   9.439   6.113 -0.2792 -1.5107 -0.9998
 8730SOL    HW238170  11.673   9.302   6.075  4.0546  0.0107 -1.1728
 8731SOL     OW38171  10.618  10.367   2.655  0.0880 -0.2545  0.3210
 8731SOL    HW138172  10.678  10.372   2.729  0.8012  1.0647 -0.3199
 8731SOL    HW238173  10.531  10.367   2.696  0.4746 -0.5058  1.1801
 8732SOL     OW38174  14.044   2.854   6.270  0.2312  0.4068  0.0224
 8732SOL    HW138175  13.955   2.823   6.285 -0.1562  0.8957 -1.1217
 8732SOL    HW238176  14.058   2.920   6.338  0.2662 -0.6830  1.1036
 8733SOL     OW38177  13.247   0.550   8.632  0.0612  0.5079  0.0168
 8733SOL    HW138178  13.250   0.458   8.660  0.5933  0.6241  0.3524
 8733SOL    HW238179  13.305   0.596   8.693  0.0625  1.0131 -0.3567
 8734SOL     OW38180  11.721   9.047   6.128  0.5728 -0.0085 -0.6156
 8734SOL    HW138181  11.683   8.959   6.122  0.2700  0.0673  0.1564
 8734SOL    HW238182  11.690   9.091   6.049 -1.6646  0.3210  0.3704
 8735SOL     OW38183   9.692  11.794  13.257 -0.1664  0.1719  0.3592
 8735SOL    HW138184   9.686  11.782  13.352 -0.1782 -2.7568  0.0919
 8735SOL    HW238185   9.786  11.803  13.241 -0.1859  0.9896  0.6530
 8736SOL     OW38186   1.270  12.476   3.140  0.4244  0.8272  0.0243
 8736SOL    HW138187   1.253  12.445   3.051  0.2081  0.6350  0.1341
 8736SOL    HW238188   1.185  12.503   3.173  0.0859 -1.2490  1.0061
 8737SOL     OW38189   1.093   1.600   3.259 -0.2091 -0.2860  0.0543
 8737SOL    HW138190   1.105   1.666   3.191 -1.2432  0.4881  0.5916
 8737SOL    HW238191   1.112   1.517   3.216 -0.8905  0.1798 -1.2038
 8738SOL     OW38192   8.911   2.378  12.269 -0.3133 -0.9456 -0.6213
 8738SOL    HW138193   9.005   2.388  12.283 -0.5211  1.4012 -0.6539
 8738SOL    HW238194   8.872   2.386  12.355 -0.5069 -2.2160 -0.5653
 8739SOL     OW38195   3.814   3.832  12.472  0.1478 -0.2659  0.3385
 8739SOL    HW138196   3.753   3.900  12.443 -0.2559 -0.1989  1.2844
 8739SOL    HW238197   3.785   3.753  12.426  0.7598  0.2244 -0.9425
 8740SOL     OW38198   1.655   5.324   9.370  0.1900  0.2869 -0.2779
 8740SOL    HW138199   1.683   5.302   9.458 -0.2622 -0.1873 -0.2473
 8740SOL    HW238200   1.620   5.413   9.378  0.6501  0.4530 -0.0948
 8741SOL     OW38201   6.000   9.928  13.362  0.4560 -0.4693  0.5274
 8741SOL    HW138202   6.043   9.889  13.286 -3.2408 -0.9450 -1.5710
 8741SOL    HW238203   5.964  10.010  13.329 -0.3855 -0.1791  2.0878
 8742SOL     OW38204   4.218   9.985   1.559  0.2177  0.1308 -0.1753
 8742SOL    HW138205   4.162   9.927   1.609  0.4540  0.3677  0.3701
 8742SOL    HW238206   4.297   9.996   1.613 -0.0443  1.3909 -0.0052
 8743SOL     OW38207   7.015  11.152  11.751 -0.3256 -0.1191  0.2810
 8743SOL    HW138208   7.075  11.132  11.679  0.2024 -1.1947  0.9921
 8743SOL    HW238209   7.041  11.240  11.780  0.3704 -0.2434  0.0470
 8744SOL     OW38210   3.116  10.322   8.418  0.1122  0.0278 -0.8145
 8744SOL    HW138211   3.100  10.319   8.323  1.0157 -0.8869 -0.9527
 8744SOL    HW238212   3.144  10.233   8.440 -0.8568  0.0163  0.4679
 8745SOL     OW38213   4.094  12.868  10.399 -0.5316 -0.5044 -0.0319
 8745SOL    HW138214   4.141  12.810  10.339  1.7842  0.7060  0.5318
 8745SOL    HW238215   4.041  12.924  10.342 -1.3141 -1.8535 -0.6814
 8746SOL     OW38216   2.592   0.262  11.586 -0.1270 -0.2416 -0.0709
 8746SOL    HW138217   2.678   0.302  11.594 -0.6885  0.8604  0.7829
 8746SOL    HW238218   2.546   0.316  11.521 -0.3973 -0.4034 -0.0187
 8747SOL     OW38219  11.782   2.265   5.515 -0.1177 -0.1270  0.1846
 8747SOL    HW138220  11.855   2.273   5.454  0.0244 -0.7586  0.2735
 8747SOL    HW238221  11.790   2.343   5.571 -1.4929  1.6093 -1.9055
 8748SOL     OW38222   4.735   3.774   0.791  0.7500  0.1520  0.4194
 8748SOL    HW138223   4.753   3.777   0.697  1.5899  1.8804  0.6026
 8748SOL    HW238224   4.822   3.774   0.832  0.4052 -1.1882  1.2162
 8749SOL     OW38225   8.815   2.247  10.991 -0.0135 -0.0529 -0.3117
 8749SOL    HW138226   8.732   2.217  11.028  0.5077 -1.1438  0.0057
 8749SOL    HW238227   8.792   2.281  10.905 -0.7301 -0.7036 -0.3824
 8750SOL     OW38228   6.389   4.650   6.914  0.1237  0.1843  0.5263
 8750SOL    HW138229   6.361   4.625   7.002  0.3729  0.6437  0.7379
 8750SOL    HW238230   6.307   4.669   6.867 -0.0019  0.0529  0.6916
 8751SOL     OW38231   0.008   1.288   8.508 -0.6300  0.1181 -0.8332
 8751SOL    HW138232   0.071   1.239   8.561 -0.5572 -0.1837 -1.1914
 8751SOL    HW238233   0.011   1.245   8.422 -0.4905  0.8184 -1.1812
 8752SOL     OW38234   7.643   1.293   8.414  0.2751 -0.0578  0.0959
 8752SOL    HW138235   7.658   1.299   8.320  0.7809  1.7125  0.2541
 8752SOL    HW238236   7.551   1.270   8.423  0.2481 -0.3366 -0.8117
 8753SOL     OW38237   4.096   8.890   1.509 -0.0974  0.0978 -0.0293
 8753SOL    HW138238   4.048   8.972   1.521 -0.0881 -0.0389  1.0904
 8753SOL    HW238239   4.118   8.888   1.416  0.9552  1.9516  0.1445
 8754SOL     OW38240  12.789   8.081  10.892  0.3284  0.0705 -0.0734
 8754SOL    HW138241  12.864   8.096  10.835  0.4382  2.0432  0.5266
 8754SOL    HW238242  12.825   8.074  10.980 -0.0989  0.0118  0.1011
 8755SOL     OW38243   6.093   8.650   5.987 -0.5139  0.2306  0.2046
 8755SOL    HW138244   6.046   8.609   5.914 -3.2530 -0.2276  2.0961
 8755SOL    HW238245   6.176   8.603   5.992 -1.2438 -1.2922 -1.1491
 8756SOL     OW38246   4.310   7.356   0.259 -0.8068  0.1320  0.2436
 8756SOL    HW138247   4.363   7.358   0.180  0.1037 -0.0230  0.8258
 8756SOL    HW238248   4.221   7.338   0.229 -0.3632 -0.6030 -0.6834
 8757SOL     OW38249   1.792   0.929   4.198  0.0504  0.1308 -0.3521
 8757SOL    HW138250   1.706   0.888   4.195 -0.6266  1.4781 -0.2446
 8757SOL    HW238251   1.775   1.022   4.184  1.8134  0.0821 -3.8548
 8758SOL     OW38252   3.631  11.220  12.665  0.1284 -0.2840 -0.1089
 8758SOL    HW138253   3.668  11.142  12.705 -0.0941 -0.5798 -0.4661
 8758SOL    HW238254   3.541  11.224  12.699 -0.2364 -0.8326 -0.9589
 8759SOL     OW38255  11.246  11.157  11.644  0.3703  0.0498 -0.0353
 8759SOL    HW138256  11.210  11.075  11.678  0.0173  0.8652  1.6563
 8759SOL    HW238257  11.206  11.167  11.558 -1.2198 -0.5235  0.6084
 8760SOL     OW38258   1.719   9.551  11.632 -0.6028  0.2188 -0.4075
 8760SOL    HW138259   1.740   9.609  11.558  0.3826  2.8559  1.7937
 8760SOL    HW238260   1.803   9.530  11.671 -1.2008  0.3764  1.0266
 8761SOL     OW38261   8.719   8.159   4.760 -0.5079 -0.3225 -0.9491
 8761SOL    HW138262   8.750   8.249   4.763  0.4942 -0.6895  0.9968
 8761SOL    HW238263   8.691   8.147   4.669  1.1436  1.3401 -1.7524
 8762SOL     OW38264   4.352  11.414  13.809  0.2357 -0.3543  0.4365
 8762SOL    HW138265   4.369  11.420  13.903  0.7047  1.4587  0.2838
 8762SOL    HW238266   4.438  11.428  13.768 -0.1482  0.0638 -0.2619
 8763SOL     OW38267   7.395   5.138   5.078  0.4096  0.4247  0.0331
 8763SOL    HW138268   7.393   5.075   5.150 -0.3479 -0.1029 -0.4395
 8763SOL    HW238269   7.356   5.217   5.115  0.2534  0.2367  0.2790
 8764SOL     OW38270   5.813   1.581   8.704  0.1975 -0.6420  0.1348
 8764SOL    HW138271   5.815   1.486   8.701  2.2512 -0.6194 -1.6361
 8764SOL    HW238272   5.892   1.605   8.752  1.1451  0.1551 -1.7351
 8765SOL     OW38273  10.991  10.195   0.782 -0.5115 -0.4274  0.3671
 8765SOL    HW138274  10.945  10.176   0.700 -1.5991 -0.7693  1.0407
 8765SOL    HW238275  11.046  10.271   0.761 -2.0896  0.6090 -0.2234
 8766SOL     OW38276   7.902   5.871   0.039  0.7628 -0.4079 -0.6901
 8766SOL    HW138277   7.858   5.851  -0.044  0.4163 -0.9570 -0.3844
 8766SOL    HW238278   7.844   5.934   0.082  0.2848 -1.0685 -0.3249
 8767SOL     OW38279   6.155   3.617  10.036  0.6200  0.1683  0.3753
 8767SOL    HW138280   6.166   3.583  10.124 -0.2275 -0.2393  0.3352
 8767SOL    HW238281   6.069   3.585  10.008 -0.1903  2.2695  0.2982
 8768SOL     OW38282   4.713  13.931   9.530 -0.2460 -0.5508 -0.2186
 8768SOL    HW138283   4.756  14.015   9.544 -0.5603 -0.3331 -0.5378
 8768SOL    HW238284   4.751  13.873   9.596  1.6176 -0.7831 -1.4304
 8769SOL     OW38285   6.580  11.336   9.703  0.3001  0.0487  0.2784
 8769SOL    HW138286   6.492  11.309   9.728  0.4111 -0.3625  0.2350
 8769SOL    HW238287   6.609  11.270   9.641  0.6340  0.1877  0.2823
 8770SOL     OW38288   8.032   3.738  11.037  0.8686  0.0656  0.1237
 8770SOL    HW138289   7.988   3.811  10.993  0.3276 -2.1241 -3.3375
 8770SOL    HW238290   8.125   3.761  11.035  0.5268  1.9537  1.9590
 8771SOL     OW38291   5.125   4.533   9.996  0.0985  0.1052 -0.1059
 8771SOL    HW138292   5.168   4.576  10.071 -1.1826  0.1029  0.6554
 8771SOL    HW238293   5.040   4.507  10.029 -1.3617  1.9444 -2.1257
 8772SOL     OW38294   3.854   2.501  10.399 -0.1086 -0.1038  0.3642
 8772SOL    HW138295   3.780   2.508  10.460 -1.0848 -1.3992 -0.6290
 8772SOL    HW238296   3.911   2.435  10.438  0.2082  0.4120  0.7921
 8773SOL     OW38297   9.695   9.224  10.778 -0.2630  0.3114 -0.2069
 8773SOL    HW138298   9.771   9.167  10.776 -0.6033 -0.2002  0.6797
 8773SOL    HW238299   9.623   9.168  10.805 -0.9187  0.8363 -0.8212
 8774SOL     OW38300   9.782   4.557   9.789  0.3662 -0.0111  0.1124
 8774SOL    HW138301   9.858   4.551   9.732  0.5107 -1.6720  0.4367
 8774SOL    HW238302   9.791   4.483   9.849 -0.5381  0.8408  1.3564
 8775SOL     OW38303   8.541   6.312  12.203 -0.0170 -0.0948  0.1553
 8775SOL    HW138304   8.551   6.218  12.186 -0.7755 -0.0596 -0.5945
 8775SOL    HW238305   8.594   6.329  12.280  2.8414 -0.4931 -1.5979
 8776SOL     OW38306  10.421   9.357   2.586 -0.2969  0.0730 -0.2635
 8776SOL    HW138307  10.380   9.326   2.505 -0.5274 -0.3003 -0.0082
 8776SOL    HW238308  10.514   9.334   2.576 -0.2631  0.3415 -0.5695
 8777SOL     OW38309   3.753   3.017   2.956 -0.2679  0.4060 -0.1010
 8777SOL    HW138310   3.797   2.996   3.038 -0.0415  2.1445  0.2507
 8777SOL    HW238311   3.660   3.015   2.977 -0.1923  1.7615  0.4681
 8778SOL     OW38312  12.796   8.327   5.745 -0.0132  0.1404 -0.0449
 8778SOL    HW138313  12.785   8.417   5.714 -0.5697 -0.2653 -1.0759
 8778SOL    HW238314  12.884   8.326   5.783 -0.0521  1.1468  0.1001
 8779SOL     OW38315  13.913  13.351  10.484  0.2016 -0.5259  0.4116
 8779SOL    HW138316  13.974  13.304  10.541 -0.6754 -2.5203 -0.1806
 8779SOL    HW238317  13.965  13.420  10.444  1.6571 -1.1455  1.1584
 8780SOL     OW38318   5.349  13.488   7.784  0.0799 -0.4331  0.3151
 8780SOL    HW138319   5.338  13.413   7.726  1.9702 -0.5273 -0.0058
 8780SOL    HW238320   5.422  13.463   7.841 -1.5796 -0.2819  2.6760
 8781SOL     OW38321   8.454   5.558   9.161  0.4107  0.3196 -0.3718
 8781SOL    HW138322   8.451   5.542   9.067 -0.1169 -0.4778 -0.2271
 8781SOL    HW238323   8.405   5.486   9.200  0.3712  0.7941  0.4998
 8782SOL     OW38324   6.942   1.266  13.619  0.2105  0.7011  0.5684
 8782SOL    HW138325   6.994   1.230  13.547  1.0083 -0.5777  1.7465
 8782SOL    HW238326   6.899   1.191  13.658  0.8558  1.1519  2.2522
 8783SOL     OW38327   0.115   0.924   1.328  0.0261 -0.4225 -0.6993
 8783SOL    HW138328   0.146   0.987   1.394  0.0758 -0.1386 -0.9889
 8783SOL    HW238329   0.150   0.840   1.357  1.0380 -0.1185 -0.9815
 8784SOL     OW38330   2.214  11.541   5.601  0.4340  0.8002  0.5123
 8784SOL    HW138331   2.184  11.452   5.580  0.5042  0.7666  0.5489
 8784SOL    HW238332   2.298  11.548   5.556 -0.0863  1.2509 -0.4189
 8785SOL     OW38333   6.174   3.511  11.831 -0.6511 -0.0615  0.3963
 8785SOL    HW138334   6.183   3.606  11.835 -0.7748  0.0735 -1.7295
 8785SOL    HW238335   6.263   3.478  11.827 -0.6126 -0.0580  1.0100
 8786SOL     OW38336   8.729   5.977   3.413 -0.2390  0.8378  0.5293
 8786SOL    HW138337   8.715   6.041   3.343 -1.4896 -0.1970 -0.2080
 8786SOL    HW238338   8.657   5.914   3.403  0.1856  0.0600  2.0722
 8787SOL     OW38339   2.740  12.565  10.917  0.1483 -0.5008 -0.3150
 8787SOL    HW138340   2.820  12.586  10.965 -0.2507  0.0041  0.1630
 8787SOL    HW238341   2.682  12.640  10.934  0.2611  0.0749 -2.2482
 8788SOL     OW38342   4.758  11.730   2.931  0.0619 -0.3827 -0.3706
 8788SOL    HW138343   4.696  11.738   2.859 -0.5613 -1.1742  0.0587
 8788SOL    HW238344   4.707  11.755   3.009  1.0145  1.5270 -0.2960
 8789SOL     OW38345   1.132  10.841   8.916  1.1164  0.4807  0.2291
 8789SOL    HW138346   1.195  10.775   8.945 -0.1918  0.0796  2.4499
 8789SOL    HW238347   1.089  10.870   8.997 -3.2512 -1.0535 -1.2454
 8790SOL     OW38348   0.506  13.027   9.546  0.1373  0.0741 -0.2322
 8790SOL    HW138349   0.417  13.030   9.510 -0.6422 -2.6567  1.2286
 8790SOL    HW238350   0.494  13.022   9.641  1.8686  0.0415  0.0227
 8791SOL     OW38351   3.484   5.580  12.096 -0.2455 -1.2687  0.2191
 8791SOL    HW138352   3.402   5.610  12.134 -0.8300 -2.2862 -0.2231
 8791SOL    HW238353   3.525   5.527  12.164 -1.1593 -2.8563 -0.4338
 8792SOL     OW38354   2.501   2.826   0.474 -0.5428 -0.2308  0.4706
 8792SOL    HW138355   2.552   2.870   0.406 -1.7173  0.1627 -0.1966
 8792SOL    HW238356   2.417   2.807   0.432 -0.4796 -2.1205  1.0857
 8793SOL     OW38357   7.549   5.589  12.834 -0.3581 -0.0727 -0.1629
 8793SOL    HW138358   7.517   5.672  12.869 -0.9836 -0.1806 -0.4573
 8793SOL    HW238359   7.512   5.585  12.746  1.5075  0.3730 -0.9962
 8794SOL     OW38360  10.781   5.311   5.616 -0.5220 -0.3016 -0.2000
 8794SOL    HW138361  10.745   5.247   5.677 -0.5615  0.7041  0.8625
 8794SOL    HW238362  10.706   5.366   5.592 -0.3124 -0.1064 -0.4107
 8795SOL     OW38363  11.983   1.231   0.234  0.1568 -0.5920  0.2560
 8795SOL    HW138364  12.069   1.264   0.208  0.0621 -2.3644 -2.8390
 8795SOL    HW238365  11.923   1.303   0.216  0.6751 -0.3113 -0.4244
 8796SOL     OW38366  13.849   4.207   7.360 -0.1563 -0.0603 -0.0031
 8796SOL    HW138367  13.841   4.160   7.277 -1.1243 -1.4402  0.8277
 8796SOL    HW238368  13.793   4.284   7.350 -3.3714 -2.1249  0.5872
 8797SOL     OW38369   6.792   7.908   6.902 -0.4164  1.1300 -0.3273
 8797SOL    HW138370   6.819   7.896   6.811  0.3422 -0.3783  0.0556
 8797SOL    HW238371   6.736   7.985   6.900 -0.0389  1.4159 -1.9895
 8798SOL     OW38372   0.476   6.781   4.300 -0.4187  0.1309 -0.3418
 8798SOL    HW138373   0.449   6.690   4.315  0.0444  0.3383  2.0769
 8798SOL    HW238374   0.542   6.774   4.231 -0.2101 -1.4154 -0.0342
 8799SOL     OW38375   1.052   5.464   2.871  0.2400  0.6368  0.2136
 8799SOL    HW138376   1.061   5.505   2.957 -2.6611  0.4495  0.7104
 8799SOL    HW238377   1.001   5.527   2.820 -0.6595 -0.5382 -0.3786
 8800SOL     OW38378   8.059   4.231  10.084  0.4217 -0.3362 -0.4943
 8800SOL    HW138379   8.050   4.221   9.989 -1.6289  0.4084 -0.4091
 8800SOL    HW238380   7.973   4.209  10.119  0.5604  1.3661  1.0277
 8801SOL     OW38381   8.292   8.840   1.439 -0.3532 -0.4864 -0.2273
 8801SOL    HW138382   8.317   8.914   1.495 -1.0104  0.0016 -0.5744
 8801SOL    HW238383   8.304   8.872   1.350  2.2448 -1.7751 -0.4518
 8802SOL     OW38384  13.464   9.208  11.575 -0.6894 -0.0707 -0.4127
 8802SOL    HW138385  13.417   9.230  11.655 -0.1908  1.6043 -0.5435
 8802SOL    HW238386  13.412   9.139  11.534 -1.0198 -0.8732  1.2718
 8803SOL     OW38387   3.720   4.238  12.240  0.6130 -0.0290 -0.1074
 8803SOL    HW138388   3.761   4.234  12.153 -0.0940  0.0194 -0.4518
 8803SOL    HW238389   3.756   4.317  12.279 -1.1046  1.5094 -1.4426
 8804SOL     OW38390   3.111   8.866   4.142 -0.7514 -0.0331  0.3746
 8804SOL    HW138391   3.033   8.880   4.088 -0.7876  1.0566  0.6853
 8804SOL    HW238392   3.176   8.925   4.105 -0.0630 -0.9587  0.1035
 8805SOL     OW38393  12.159   6.955   0.449  0.5910 -0.4331 -0.5560
 8805SOL    HW138394  12.197   7.033   0.407 -0.5736  0.2235 -0.4480
 8805SOL    HW238395  12.064   6.965   0.436  0.0592  0.2863  2.9415
 8806SOL     OW38396   3.634   5.666   7.294  1.0014 -0.6215  0.4636
 8806SOL    HW138397   3.681   5.749   7.285 -0.2797  0.0510 -0.2549
 8806SOL    HW238398   3.572   5.681   7.366 -0.7594 -0.1542 -1.0570
 8807SOL     OW38399   5.665   8.929  11.765  0.7357 -0.2770  0.5618
 8807SOL    HW138400   5.739   8.951  11.821  0.2127 -1.3302  1.7083
 8807SOL    HW238401   5.595   8.988  11.792  1.0432  0.5395 -0.3437
 8808SOL     OW38402   3.695  10.956  12.853 -0.3416  0.2669  0.4514
 8808SOL    HW138403   3.746  10.938  12.932 -0.6110 -1.4877  0.2707
 8808SOL    HW238404   3.621  11.008  12.884 -0.7362 -0.8544  1.4807
 8809SOL     OW38405   4.299   3.165  13.282 -0.2699  0.0114  0.2569
 8809SOL    HW138406   4.371   3.103  13.289 -0.0942 -0.0075 -1.2966
 8809SOL    HW238407   4.235   3.136  13.348  1.5556  0.6917  2.4601
 8810SOL     OW38408   1.429   2.136   8.814  0.0244  0.1996 -0.4987
 8810SOL    HW138409   1.423   2.095   8.728 -1.4029 -0.6582 -0.0311
 8810SOL    HW238410   1.345   2.116   8.856 -0.0474  2.1555  0.4096
 8811SOL     OW38411   0.233   1.995   3.713  0.6492  0.3419 -0.1787
 8811SOL    HW138412   0.226   1.925   3.648  1.0177  2.0167 -2.0740
 8811SOL    HW238413   0.326   2.004   3.730  0.6704  0.9980 -0.6367
 8812SOL     OW38414   9.174  12.746  10.046  0.2026  0.1500 -0.1499
 8812SOL    HW138415   9.255  12.700  10.023 -0.8475 -1.4610 -0.8046
 8812SOL    HW238416   9.137  12.695  10.118 -0.2198  0.9105  0.1855
 8813SOL     OW38417   1.060   8.490   2.966  0.1921 -0.3410  0.1584
 8813SOL    HW138418   1.084   8.435   3.041 -1.1600  0.1652  1.0015
 8813SOL    HW238419   1.143   8.511   2.924  1.1673  0.6067  2.4007
 8814SOL     OW38420  11.272   9.660  12.867 -0.0228 -0.4640 -0.1165
 8814SOL    HW138421  11.232   9.664  12.953  1.7668 -1.5282  0.8252
 8814SOL    HW238422  11.233   9.583  12.825 -0.1453 -0.5522  0.1625
 8815SOL     OW38423   6.674   6.351   9.830 -0.2666 -0.1650  0.2429
 8815SOL    HW138424   6.624   6.295   9.770  0.5515 -0.2534 -0.3789
 8815SOL    HW238425   6.694   6.294   9.905  1.1677 -0.9694 -0.6958
 8816SOL     OW38426  12.490   2.604   5.241  0.4794  0.5541 -0.3819
 8816SOL    HW138427  12.503   2.692   5.275 -0.2525  0.6059 -0.2012
 8816SOL    HW238428  12.562   2.553   5.276  0.9711  1.1077 -0.5800
 8817SOL     OW38429  12.103  10.705   6.174 -1.3777  0.5186 -0.0182
 8817SOL    HW138430  12.154  10.780   6.146 -1.3783  0.1639 -1.0202
 8817SOL    HW238431  12.152  10.668   6.247 -0.7032  0.7425 -0.3518
 8818SOL     OW38432  11.535   9.183   8.660 -0.1847  0.1236  0.8112
 8818SOL    HW138433  11.629   9.182   8.679  0.0223  0.0103 -0.1772
 8818SOL    HW238434  11.493   9.182   8.746  0.7209  0.4491  1.2693
 8819SOL     OW38435   3.425   8.405   5.895 -0.2191  0.1474 -0.2049
 8819SOL    HW138436   3.505   8.404   5.843  0.6183  1.6759  0.9590
 8819SOL    HW238437   3.366   8.464   5.847 -0.3026 -0.2277 -0.5687
 8820SOL     OW38438   2.192   8.369   4.441  0.1747  0.3508 -0.0730
 8820SOL    HW138439   2.237   8.316   4.507  0.2399 -1.9924 -1.8713
 8820SOL    HW238440   2.195   8.316   4.362 -1.2553  2.3858 -1.5922
 8821SOL     OW38441   1.806   4.220   6.502 -0.1590  0.2115  0.1022
 8821SOL    HW138442   1.760   4.282   6.558  1.9009  2.1161 -0.1772
 8821SOL    HW238443   1.789   4.251   6.413 -0.9928 -1.0448 -0.2052
 8822SOL     OW38444  10.285   2.836   8.610 -0.2038  0.3152  0.0566
 8822SOL    HW138445  10.376   2.864   8.599  0.4485 -0.7506  2.1051
 8822SOL    HW238446  10.239   2.872   8.535  1.5406  2.4665 -0.0702
 8823SOL     OW38447  11.777   7.424  11.272  0.1762 -0.3169 -0.1125
 8823SOL    HW138448  11.867   7.415  11.304 -0.3286 -1.4755  1.0608
 8823SOL    HW238449  11.760   7.342  11.226 -0.3245 -0.1600 -0.2137
 8824SOL     OW38450  13.921   5.727   5.148 -0.1517  0.6150  0.3503
 8824SOL    HW138451  13.885   5.675   5.077  1.1095 -1.3676  1.0824
 8824SOL    HW238452  13.976   5.792   5.104 -1.1437  0.8681 -0.5542
 8825SOL     OW38453  12.645   7.776  13.706 -0.5131  0.1662  0.1298
 8825SOL    HW138454  12.577   7.806  13.766 -1.5420 -2.7104  0.5514
 8825SOL    HW238455  12.602   7.776  13.620 -1.4581 -2.4113  0.5047
 8826SOL     OW38456  12.634   8.518   0.947 -0.7189 -0.1586  0.6172
 8826SOL    HW138457  12.554   8.569   0.955 -2.2833 -2.4186  0.4577
 8826SOL    HW238458  12.695   8.559   1.008 -1.5989  2.2615 -0.0099
 8827SOL     OW38459  12.652   9.892   2.587 -0.3165  0.2605  0.3000
 8827SOL    HW138460  12.560   9.867   2.579  0.2720 -2.7216  1.6769
 8827SOL    HW238461  12.679   9.860   2.673  0.6617  6.1997  2.7360
 8828SOL     OW38462   1.028   1.412  10.095  0.2327  0.1901 -0.5327
 8828SOL    HW138463   1.032   1.506  10.076  1.5712  0.2427 -0.0660
 8828SOL    HW238464   1.083   1.372  10.027 -1.5365 -0.4384 -1.6688
 8829SOL     OW38465   7.573   1.496  13.796  0.2277  0.0275 -0.1753
 8829SOL    HW138466   7.574   1.518  13.889  0.9701 -1.1377  0.1190
 8829SOL    HW238467   7.663   1.470  13.776 -0.2371 -1.1472 -0.8421
 8830SOL     OW38468   1.187  11.261   0.278 -0.4331  0.1334  0.0436
 8830SOL    HW138469   1.113  11.321   0.288 -0.2019  0.3747  0.3143
 8830SOL    HW238470   1.150  11.185   0.232 -1.0818 -0.1621  1.0033
 8831SOL     OW38471   1.501   6.973  10.311 -0.2057  0.3453 -0.1323
 8831SOL    HW138472   1.408   6.963  10.327 -0.3390  0.0985 -1.0006
 8831SOL    HW238473   1.511   7.066  10.290 -0.0587  0.6292  1.0908
 8832SOL     OW38474  13.415   6.628  12.276  0.0266  0.7682 -0.4504
 8832SOL    HW138475  13.480   6.693  12.300  1.2436 -1.0046  1.4239
 8832SOL    HW238476  13.447   6.591  12.193  0.2359  1.3596 -0.6377
 8833SOL     OW38477   9.597   7.181  12.470  0.2725 -0.0286 -0.2617
 8833SOL    HW138478   9.613   7.210  12.560 -1.0808  1.5331 -0.4852
 8833SOL    HW238479   9.546   7.100  12.480  0.1947  0.0950  0.3885
 8834SOL     OW38480   2.143  12.026   1.770 -0.3609 -0.0462  0.2895
 8834SOL    HW138481   2.121  12.028   1.863  0.0621  0.5919  0.3838
 8834SOL    HW238482   2.076  11.969   1.731 -0.4292 -0.4712  1.0043
 8835SOL     OW38483   3.652   0.889   0.832 -0.0299  0.0550 -0.1970
 8835SOL    HW138484   3.673   0.934   0.751  0.8848  1.4877  0.7985
 8835SOL    HW238485   3.711   0.814   0.834  1.3717  1.1386  0.0838
 8836SOL     OW38486  12.512   3.003   1.605  0.1379  0.1028 -0.2391
 8836SOL    HW138487  12.464   3.082   1.581  1.3587  0.3896 -1.8598
 8836SOL    HW238488  12.451   2.931   1.585 -0.4471  0.5487 -0.0819
 8837SOL     OW38489   3.411   7.573   9.226  0.3817  0.5413 -0.0376
 8837SOL    HW138490   3.380   7.651   9.180 -1.5497  0.0864  0.4353
 8837SOL    HW238491   3.391   7.501   9.166 -2.5950 -0.1169  1.5584
 8838SOL     OW38492   9.759  13.423   8.671  0.0673  0.1444  0.5723
 8838SOL    HW138493   9.809  13.469   8.738  0.3760  1.9107 -0.8131
 8838SOL    HW238494   9.820  13.412   8.598 -0.7645 -0.1511 -0.1036
 8839SOL     OW38495   5.055   6.103   9.775  0.4419 -0.1080 -0.1160
 8839SOL    HW138496   5.027   6.016   9.806 -0.2895 -1.2371 -3.5445
 8839SOL    HW238497   5.142   6.087   9.738  1.1060  1.0908  0.8543
 8840SOL     OW38498   8.249   7.291  11.317  0.1310  0.2175 -0.1340
 8840SOL    HW138499   8.241   7.315  11.409  0.8743  0.8618 -0.2277
 8840SOL    HW238500   8.276   7.199  11.318  2.0896  0.7433  0.3679
 8841SOL     OW38501   3.840   4.943   6.958 -0.6593 -0.1438 -0.1884
 8841SOL    HW138502   3.866   4.984   6.875  0.5329 -0.8960 -0.2122
 8841SOL    HW238503   3.809   5.015   7.012  0.3086  0.6265 -0.6349
 8842SOL     OW38504  13.470   5.293   3.815  0.1915  0.0450  0.2406
 8842SOL    HW138505  13.508   5.262   3.734  0.9630  0.4164  0.4542
 8842SOL    HW238506  13.500   5.384   3.823  1.7427 -0.5559  1.8977
 8843SOL     OW38507  10.303  10.230   1.305 -0.6790 -0.2202  0.0232
 8843SOL    HW138508  10.398  10.233   1.315 -0.6005 -0.4915 -0.6076
 8843SOL    HW238509  10.271  10.303   1.358 -0.1855 -0.6849  0.9837
 8844SOL     OW38510   7.314   4.796   1.584  0.0814 -0.0452  0.1521
 8844SOL    HW138511   7.272   4.861   1.528 -0.9587 -1.7360 -1.1477
 8844SOL    HW238512   7.252   4.723   1.585  1.3547 -1.1552  1.2670
 8845SOL     OW38513   6.238   2.864   0.071 -0.3521  0.0089  0.2685
 8845SOL    HW138514   6.267   2.802   0.138 -2.0290 -0.9876  0.1327
 8845SOL    HW238515   6.198   2.936   0.120  0.7773  0.5755  0.3931
 8846SOL     OW38516   9.317   7.394  11.700  0.6751 -0.4182  0.0203
 8846SOL    HW138517   9.410   7.396  11.678  0.4775  0.2418 -0.7929
 8846SOL    HW238518   9.314   7.423  11.791  1.2109  0.2542 -0.1642
 8847SOL     OW38519  13.157  10.954  13.212 -0.0160  0.1904  0.8448
 8847SOL    HW138520  13.108  10.890  13.264 -0.5286 -0.0531  0.0718
 8847SOL    HW238521  13.112  11.037  13.229  0.5995  0.3507  1.7827
 8848SOL     OW38522  12.336  10.644  12.155  0.1147  0.0692  0.1152
 8848SOL    HW138523  12.378  10.561  12.135 -0.1680 -0.0138 -0.1338
 8848SOL    HW238524  12.244  10.632  12.131  0.2107  0.6856 -0.6003
 8849SOL     OW38525  13.258  10.605   2.116  0.1600 -0.4374  0.0649
 8849SOL    HW138526  13.266  10.633   2.025 -2.0739  1.0258  0.2477
 8849SOL    HW238527  13.216  10.519   2.112 -0.1941 -0.2484 -0.2789
 8850SOL     OW38528   7.407   1.684   6.114 -0.0857 -0.1615  0.0798
 8850SOL    HW138529   7.318   1.717   6.130 -0.2810 -0.7419  0.2046
 8850SOL    HW238530   7.449   1.684   6.200  0.3213  0.9186 -0.1067
 8851SOL     OW38531   8.677   8.851  12.104  0.2686 -0.5772  0.2139
 8851SOL    HW138532   8.640   8.841  12.191 -1.8550 -0.3486 -0.5955
 8851SOL    HW238533   8.771   8.864  12.118  0.0729 -1.2216  2.3971
 8852SOL     OW38534   7.153  11.284   8.606 -0.0579  0.0534 -0.4106
 8852SOL    HW138535   7.177  11.375   8.588 -1.2245  0.2350 -1.1708
 8852SOL    HW238536   7.099  11.289   8.685  0.5492 -0.0896  0.0214
 8853SOL     OW38537   7.076   2.857  10.758 -0.6415 -0.5226  0.1014
 8853SOL    HW138538   7.107   2.771  10.729  0.0437 -0.0069 -0.7686
 8853SOL    HW238539   7.068   2.908  10.677 -0.2113  0.4879  0.6764
 8854SOL     OW38540   5.077  11.681   8.220  0.3023  0.4477  0.7125
 8854SOL    HW138541   5.083  11.592   8.255  0.5135  0.2845  0.2628
 8854SOL    HW238542   5.166  11.716   8.229  0.2448  0.5737  0.7856
 8855SOL     OW38543  11.872   0.969   4.894 -0.2118 -0.0466  0.1984
 8855SOL    HW138544  11.916   0.885   4.908 -0.0342  0.2513  1.5592
 8855SOL    HW238545  11.845   0.966   4.803 -1.6735 -2.3050  0.6073
 8856SOL     OW38546   2.017  10.836  10.558  0.6881 -0.0740 -0.2442
 8856SOL    HW138547   1.987  10.855  10.647  2.1635  3.1217 -0.3202
 8856SOL    HW238548   2.009  10.919  10.512  1.5035 -1.2672 -2.6778
 8857SOL     OW38549   2.008   3.669   3.661  0.7098  0.0607  0.2882
 8857SOL    HW138550   1.959   3.696   3.739  1.5676  0.2316  0.7776
 8857SOL    HW238551   2.031   3.750   3.617  1.6400  0.0531  0.7413
 8858SOL     OW38552   3.748   1.697   5.427  0.0839 -0.5217  0.3975
 8858SOL    HW138553   3.688   1.690   5.352 -0.3929  0.1013  0.7071
 8858SOL    HW238554   3.818   1.634   5.408 -1.1708 -2.0256  0.5060
 8859SOL     OW38555   9.611   2.940  10.713 -0.4180  0.2312 -0.2217
 8859SOL    HW138556   9.674   2.938  10.785  0.7993  4.7864 -0.8678
 8859SOL    HW238557   9.526   2.955  10.755  0.1424  1.8534  0.4023
 8860SOL     OW38558   9.623   9.791   6.977 -0.5843 -0.8785 -0.3038
 8860SOL    HW138559   9.536   9.776   6.940  0.0144 -1.2579 -1.5777
 8860SOL    HW238560   9.606   9.834   7.061 -1.9227  2.3034 -2.0257
 8861SOL     OW38561   7.771   8.006   9.241 -0.0183 -0.0483 -0.5535
 8861SOL    HW138562   7.768   8.018   9.336 -0.4950  1.0061 -0.6907
 8861SOL    HW238563   7.860   7.977   9.223  0.1868  0.1133  0.1719
 8862SOL     OW38564   1.998   0.183   9.538  0.1289 -0.0598 -0.3717
 8862SOL    HW138565   1.976   0.133   9.617  0.4329  0.4065  0.0182
 8862SOL    HW238566   1.919   0.178   9.483 -0.0927 -0.3720 -0.0287
 8863SOL     OW38567   4.384  11.804   8.920  0.1320  0.4622  0.0992
 8863SOL    HW138568   4.380  11.764   9.006  1.9986  0.2353  0.1175
 8863SOL    HW238569   4.409  11.733   8.861  1.4570  1.1530 -0.1954
 8864SOL     OW38570   7.039   7.879  13.860  0.0138 -0.3455 -0.2397
 8864SOL    HW138571   7.096   7.872  13.783  0.6674  0.3524  0.1641
 8864SOL    HW238572   7.077   7.951  13.912 -0.8909 -0.2631  0.3349
 8865SOL     OW38573   0.511   1.721   0.042  0.0926  0.4070 -0.1714
 8865SOL    HW138574   0.582   1.688   0.097 -0.2905  0.0645  0.1247
 8865SOL    HW238575   0.500   1.653  -0.026  1.4782  1.4491 -1.5173
 8866SOL     OW38576   3.212   8.160   2.401  0.2455  0.5830  0.0251
 8866SOL    HW138577   3.145   8.092   2.395 -1.0179  1.6015  1.6533
 8866SOL    HW238578   3.252   8.146   2.487 -0.2911  2.0660  0.5533
 8867SOL     OW38579   9.455   6.934  11.263 -0.9863  0.2731 -0.2922
 8867SOL    HW138580   9.491   6.992  11.330  0.7836  0.1664 -1.1216
 8867SOL    HW238581   9.392   6.990  11.216 -0.1062  1.2094 -0.3919
 8868SOL     OW38582   4.165   4.936   2.231  0.3355 -0.2829  0.7532
 8868SOL    HW138583   4.074   4.961   2.219  0.5856  0.0192 -0.7276
 8868SOL    HW238584   4.186   4.881   2.155  1.1203 -1.1358  1.5587
 8869SOL     OW38585   0.113   2.117   1.044  0.1739 -0.0882  0.1509
 8869SOL    HW138586   0.019   2.129   1.035  0.1795  2.5034  2.1680
 8869SOL    HW238587   0.124   2.064   1.123  0.4161  0.1186  0.2582
 8870SOL     OW38588   2.552   2.769   5.014  0.4944 -0.1063  0.2556
 8870SOL    HW138589   2.492   2.752   5.087 -0.2320  0.0821 -0.2885
 8870SOL    HW238590   2.500   2.819   4.951  0.8219 -1.0659 -0.8180
 8871SOL     OW38591   2.118   2.118  13.188  0.5457 -0.3761  0.6543
 8871SOL    HW138592   2.130   2.040  13.244  1.9036 -0.1444  0.7314
 8871SOL    HW238593   2.086   2.083  13.105 -1.5169 -0.7304  1.5363
 8872SOL     OW38594   4.909   7.485   8.249  0.7844 -0.0483  0.0896
 8872SOL    HW138595   4.943   7.562   8.294 -2.1815 -0.1636  2.9787
 8872SOL    HW238596   4.945   7.411   8.297 -0.9814 -0.2202  1.2562
 8873SOL     OW38597  10.534   4.007  10.161  0.4041  0.5804  0.0035
 8873SOL    HW138598  10.494   4.008  10.074 -1.2278 -0.9513  0.6679
 8873SOL    HW238599  10.565   3.917  10.172 -1.4256  0.0799  1.7864
 8874SOL     OW38600  11.957   4.112   5.093  0.0394  0.0423  0.4031
 8874SOL    HW138601  11.900   4.157   5.155 -0.8813  0.0204 -0.4040
 8874SOL    HW238602  11.912   4.029   5.075  1.2330 -0.7986  1.1354
 8875SOL     OW38603   6.923   5.958   2.539  0.5086  0.0313  0.5430
 8875SOL    HW138604   7.015   5.933   2.533  0.0504 -1.4843 -1.7712
 8875SOL    HW238605   6.906   6.006   2.458 -0.8551 -0.2555  0.6330
 8876SOL     OW38606  13.939  10.539  10.295 -0.7716  0.4759  0.0169
 8876SOL    HW138607  13.922  10.586  10.214 -0.6642  1.1683  0.3913
 8876SOL    HW238608  13.939  10.447  10.270  1.2511  0.7376 -1.1632
 8877SOL     OW38609   0.031  10.969   1.344  0.0381  0.3428 -0.8796
 8877SOL    HW138610   0.039  11.064   1.342 -1.2376  0.4476 -2.3244
 8877SOL    HW238611   0.113  10.937   1.305 -0.2944  0.9244 -2.1034
 8878SOL     OW38612   7.726   2.025   3.869 -0.5712 -0.6383  0.0591
 8878SOL    HW138613   7.641   1.980   3.872 -0.7100 -0.3662  0.2716
 8878SOL    HW238614   7.764   2.008   3.955 -0.1476 -1.2613 -0.2471
 8879SOL     OW38615  13.106  11.135   6.064  0.3093  0.2869 -0.0999
 8879SOL    HW138616  13.184  11.114   6.013 -0.2091 -0.8569 -0.4499
 8879SOL    HW238617  13.137  11.141   6.155  0.5446 -1.8541 -0.0010
 8880SOL     OW38618   5.767  12.638   8.042 -0.1838 -0.4113 -0.4289
 8880SOL    HW138619   5.769  12.712   7.982 -1.7199  0.2595  0.2942
 8880SOL    HW238620   5.689  12.588   8.016 -0.3650 -0.5969  0.4355
 8881SOL     OW38621   5.350  12.427   0.560 -0.2233  0.1701  0.2285
 8881SOL    HW138622   5.376  12.518   0.547  0.9590 -0.2208 -0.2461
 8881SOL    HW238623   5.306  12.427   0.645  0.0132  1.1307  0.3670
 8882SOL     OW38624  11.814  11.673   4.889  0.1401 -0.5901  0.4528
 8882SOL    HW138625  11.852  11.710   4.810 -1.9202  0.1674 -0.2677
 8882SOL    HW238626  11.831  11.738   4.957  1.4941 -1.0197  0.5545
 8883SOL     OW38627   2.209   2.869   2.275  0.1968 -0.7557 -0.5180
 8883SOL    HW138628   2.215   2.939   2.210 -1.0963 -1.7946 -1.8467
 8883SOL    HW238629   2.300   2.852   2.301  0.4835  1.8925  0.4486
 8884SOL     OW38630  13.814   8.166  11.829 -0.0909 -0.1925  0.0220
 8884SOL    HW138631  13.876   8.158  11.757 -1.0114 -2.1569 -0.5972
 8884SOL    HW238632  13.738   8.116  11.802 -2.1628  2.3997  0.6100
 8885SOL     OW38633   2.440   1.097  10.126  0.2622  0.0276  0.0502
 8885SOL    HW138634   2.499   1.172  10.141  0.0900  0.2766 -0.5147
 8885SOL    HW238635   2.402   1.113  10.040  2.2947 -2.0931 -1.3701
 8886SOL     OW38636   7.580  11.404  13.352  0.2742 -0.0389  0.6901
 8886SOL    HW138637   7.672  11.379  13.357 -0.1740 -1.8809  0.4607
 8886SOL    HW238638   7.541  11.341  13.290 -1.1711  0.5607  0.9435
 8887SOL     OW38639   9.671   0.487   4.468 -0.0888  0.5664  0.8631
 8887SOL    HW138640   9.687   0.408   4.520 -0.4285 -0.6692 -0.8367
 8887SOL    HW238641   9.577   0.503   4.477 -0.7401 -1.3468 -1.5605
 8888SOL     OW38642  11.155   5.899   6.574 -0.2341  0.3593  0.0458
 8888SOL    HW138643  11.213   5.824   6.575 -0.9537 -0.2162  1.3829
 8888SOL    HW238644  11.068   5.863   6.555 -0.5224  0.8871  0.3017
 8889SOL     OW38645   0.237   5.471   2.262 -0.3976 -0.2254  0.0966
 8889SOL    HW138646   0.150   5.507   2.280 -0.3030 -0.5994  1.4064
 8889SOL    HW238647   0.288   5.490   2.340  1.5739  2.4326 -1.6590
 8890SOL     OW38648   1.783   7.821   0.016 -0.3671  0.4172 -0.0792
 8890SOL    HW138649   1.765   7.764   0.090 -0.2771  1.2956  0.6313
 8890SOL    HW238650   1.868   7.861   0.036 -2.0830  3.6948  1.3268
 8891SOL     OW38651   8.285   1.846  10.582  0.0640  0.2117  0.9191
 8891SOL    HW138652   8.358   1.800  10.624 -0.8180 -0.8801  1.3042
 8891SOL    HW238653   8.244   1.780  10.527 -0.4573  0.9008  0.4695
 8892SOL     OW38654  11.800   6.608   1.114  0.6759  0.4405 -0.1539
 8892SOL    HW138655  11.780   6.693   1.154 -0.6050 -0.2404  0.7452
 8892SOL    HW238656  11.895   6.601   1.119  0.6900  1.1732  1.1854
 8893SOL     OW38657   8.796   1.163   9.183  0.2009 -0.2867  0.0940
 8893SOL    HW138658   8.879   1.193   9.146 -0.4228  0.2452 -0.8959
 8893SOL    HW238659   8.754   1.115   9.112  0.5422 -2.3485  1.2056
 8894SOL     OW38660   7.138   9.525  11.670  0.7813  0.1056  0.2528
 8894SOL    HW138661   7.055   9.518  11.717  0.3041 -0.5733 -0.6515
 8894SOL    HW238662   7.185   9.596  11.714 -0.7913  1.3439  0.0517
 8895SOL     OW38663   8.987   0.755   3.317 -0.0683  0.1424  0.2963
 8895SOL    HW138664   8.950   0.842   3.335 -0.7805  0.0209 -0.5108
 8895SOL    HW238665   9.015   0.723   3.403  0.7501  1.3986  0.5336
 8896SOL     OW38666   0.147   0.057   7.161 -0.7979  0.1590  0.0003
 8896SOL    HW138667   0.149   0.127   7.095 -0.7801  0.9925  0.8562
 8896SOL    HW238668   0.237   0.052   7.193 -0.9310  0.1601  0.3744
 8897SOL     OW38669   5.467   8.044   3.024 -0.5915  0.0622  0.0539
 8897SOL    HW138670   5.375   8.068   3.036 -1.2984 -1.2626 -2.1295
 8897SOL    HW238671   5.465   7.950   3.009  1.0611  0.1139 -0.6649
 8898SOL     OW38672   1.466   2.411   1.521  0.0842  0.1879 -0.5170
 8898SOL    HW138673   1.471   2.453   1.607  1.1775 -1.0364  0.0682
 8898SOL    HW238674   1.384   2.361   1.523  1.0850 -1.5357  0.6998
 8899SOL     OW38675   2.188  13.548   7.877 -0.3120 -0.8731 -0.0801
 8899SOL    HW138676   2.163  13.584   7.962  0.6772 -1.9125  0.6813
 8899SOL    HW238677   2.111  13.498   7.848 -0.0835 -1.8993  1.0098
 8900SOL     OW38678  11.361  11.548  12.328 -0.5090  0.4399 -0.0234
 8900SOL    HW138679  11.298  11.609  12.289 -0.2995  0.0975 -0.9185
 8900SOL    HW238680  11.439  11.602  12.344 -1.1669  0.9859  1.5634
 8901SOL     OW38681   7.777   8.035  13.887  0.3677 -0.2739  0.4721
 8901SOL    HW138682   7.683   8.048  13.876  0.6330  1.3302 -0.2253
 8901SOL    HW238683   7.787   8.011  13.979 -0.3634  4.7332  2.2167
 8902SOL     OW38684   6.996   6.473   6.343 -0.0093 -0.0480  0.3381
 8902SOL    HW138685   6.934   6.545   6.331  0.7969  0.3415 -2.1792
 8902SOL    HW238686   6.950   6.396   6.310  1.6438  0.7413 -4.5982
 8903SOL     OW38687   8.304   6.495   1.654 -0.1676  0.4679 -0.4994
 8903SOL    HW138688   8.243   6.430   1.620  1.7027 -0.5671 -2.0427
 8903SOL    HW238689   8.297   6.569   1.593 -0.8946  0.9766  0.1690
 8904SOL     OW38690  12.129   1.440   6.303 -0.1970 -0.2168  0.3616
 8904SOL    HW138691  12.174   1.515   6.265  0.1083 -0.5645  0.0306
 8904SOL    HW238692  12.178   1.364   6.272  0.2230 -0.5038  1.6473
 8905SOL     OW38693   0.045  10.183   0.714 -0.4021  0.1040 -0.3756
 8905SOL    HW138694   0.009  10.203   0.628  0.0245 -0.3796 -0.6718
 8905SOL    HW238695   0.023  10.091   0.729 -2.8888  0.8776  1.2446
 8906SOL     OW38696  10.979   8.955   0.064 -0.2513  0.4740  0.5880
 8906SOL    HW138697  10.995   9.042   0.027  1.3925  0.5553  1.4208
 8906SOL    HW238698  11.051   8.941   0.125 -0.3252 -1.6177  0.2605
 8907SOL     OW38699  12.143   3.602   7.839  0.1037 -0.7684  0.0491
 8907SOL    HW138700  12.150   3.508   7.825  0.2850 -0.8781  0.8007
 8907SOL    HW238701  12.193   3.618   7.920 -1.7656 -0.3777  1.1912
 8908SOL     OW38702   5.917   3.730   4.103  0.0765  0.0417 -0.2001
 8908SOL    HW138703   5.920   3.699   4.012 -0.2063 -0.8596  0.0828
 8908SOL    HW238704   5.975   3.670   4.151  0.1856  0.4801  0.2255
 8909SOL     OW38705  11.782   9.208   5.582  0.5440  0.3343  0.3166
 8909SOL    HW138706  11.731   9.135   5.619 -0.8686  1.1034 -0.0546
 8909SOL    HW238707  11.862   9.210   5.636 -0.6276  0.2584  2.1574
 8910SOL     OW38708   2.693   4.820  13.998  0.2755 -0.0554  0.4014
 8910SOL    HW138709   2.668   4.855  14.084  0.6362  1.0582  0.0657
 8910SOL    HW238710   2.787   4.805  14.005  0.2960 -0.0113  0.2204
 8911SOL     OW38711  10.452   1.231  12.573 -0.2857 -0.2227  0.0333
 8911SOL    HW138712  10.529   1.191  12.612  0.2650  2.3289  1.7883
 8911SOL    HW238713  10.477   1.247  12.482  1.7763  1.5674  0.8218
 8912SOL     OW38714   4.971   8.872   8.487 -0.1157 -0.2010  1.1754
 8912SOL    HW138715   4.928   8.807   8.431  0.4412 -0.2284  0.7743
 8912SOL    HW238716   5.013   8.932   8.426  1.0998 -0.6318  1.5688
 8913SOL     OW38717   4.685   9.028   4.027 -0.4720  1.1773 -0.1831
 8913SOL    HW138718   4.758   9.076   3.987  0.1513 -1.0972 -2.0514
 8913SOL    HW238719   4.728   8.964   4.085 -0.7368 -1.1444 -2.3655
 8914SOL     OW38720   6.838   4.328   1.152 -0.1337  0.0525 -0.2740
 8914SOL    HW138721   6.756   4.286   1.178  0.0102 -0.3520 -0.4475
 8914SOL    HW238722   6.815   4.419   1.134 -0.4360  0.0716  0.2031
 8915SOL     OW38723   4.554  12.921   0.870 -0.2407  0.1223 -0.9513
 8915SOL    HW138724   4.604  12.868   0.809  1.6967  1.3141 -0.4852
 8915SOL    HW238725   4.557  12.873   0.952  0.2730  0.2608 -0.8890
 8916SOL     OW38726   1.058  10.708  12.987 -0.6518  0.0115  0.0653
 8916SOL    HW138727   1.053  10.765  12.910 -2.4112 -0.3260 -0.1106
 8916SOL    HW238728   1.087  10.624  12.953 -0.9777 -0.0132 -0.1537
 8917SOL     OW38729   9.206   7.896   8.227 -0.0089 -0.0787 -0.1951
 8917SOL    HW138730   9.137   7.836   8.197 -0.0920  0.8138 -1.9218
 8917SOL    HW238731   9.193   7.975   8.175  1.4738  0.6233  0.4517
 8918SOL     OW38732  12.441   3.507   1.232 -0.0753 -0.0292 -0.0802
 8918SOL    HW138733  12.511   3.457   1.190  2.0701  0.8183  2.2150
 8918SOL    HW238734  12.440   3.590   1.185 -1.4448 -0.9764 -1.8288
 8919SOL     OW38735   8.365   8.927  13.156 -0.2971 -0.1363 -0.0027
 8919SOL    HW138736   8.284   8.915  13.206 -0.3871 -1.0913 -0.3459
 8919SOL    HW238737   8.369   9.021  13.138 -1.5037 -0.1193 -0.2595
 8920SOL     OW38738   0.946  13.982   9.211 -0.0451 -0.3957 -0.0529
 8920SOL    HW138739   0.966  14.053   9.150 -1.6585 -0.9843 -1.3370
 8920SOL    HW238740   0.913  13.911   9.156 -2.4697 -0.6354  1.5250
 8921SOL     OW38741   5.312   8.875   2.732  0.1555  0.3262  0.3352
 8921SOL    HW138742   5.317   8.876   2.637 -3.9766  1.8418 -0.0804
 8921SOL    HW238743   5.335   8.964   2.758 -0.9622  0.5813  0.4882
 8922SOL     OW38744   2.443  13.893   5.172  0.1725 -0.2888  0.6775
 8922SOL    HW138745   2.366  13.849   5.208  1.0542 -1.1931  1.5303
 8922SOL    HW238746   2.456  13.969   5.230 -0.5687  0.3858 -0.0025
 8923SOL     OW38747  10.150  13.639  12.600  0.3400  0.1304  0.3382
 8923SOL    HW138748  10.092  13.594  12.663 -1.9768 -2.5502 -3.2673
 8923SOL    HW238749  10.107  13.723  12.585 -0.3832 -0.1633  0.6740
 8924SOL     OW38750   2.616  13.732   1.455 -0.1123  0.5566 -0.2866
 8924SOL    HW138751   2.660  13.816   1.452  3.1533 -1.0127 -0.2507
 8924SOL    HW238752   2.647  13.691   1.535 -4.6271  0.6808  1.8092
 8925SOL     OW38753   3.352  13.523   7.196 -0.0179 -0.2578 -0.2205
 8925SOL    HW138754   3.447  13.528   7.208 -0.0952  0.0698  0.2813
 8925SOL    HW238755   3.328  13.608   7.161 -0.2241 -0.0686  0.3702
 8926SOL     OW38756   9.938   8.647   9.822  0.0396 -0.2108  0.4093
 8926SOL    HW138757   9.965   8.737   9.802  1.2357 -0.8478 -1.0261
 8926SOL    HW238758   9.842   8.652   9.829 -0.0403  0.9392 -1.0037
 8927SOL     OW38759   6.294  10.978  13.810 -0.5715  0.6236  0.3030
 8927SOL    HW138760   6.273  11.070  13.796 -1.9085  0.2453 -0.2838
 8927SOL    HW238761   6.309  10.970  13.904 -0.4292  1.4408  0.3513
 8928SOL     OW38762   4.174   1.343   1.092  0.1753 -0.1711 -0.4505
 8928SOL    HW138763   4.226   1.304   1.021 -1.6419 -0.8921 -1.4431
 8928SOL    HW238764   4.165   1.272   1.156  0.9498  0.1610  0.0362
 8929SOL     OW38765   9.096   6.203   5.249  0.5711  0.3858 -0.0114
 8929SOL    HW138766   9.003   6.195   5.231  0.5768 -0.3598  0.2726
 8929SOL    HW238767   9.136   6.221   5.164  0.3657 -1.0649 -0.4255
 8930SOL     OW38768  12.010   8.229   1.799  0.5915 -0.0609 -0.0696
 8930SOL    HW138769  12.002   8.292   1.728  0.8819  1.3881  1.1424
 8930SOL    HW238770  11.960   8.267   1.871  0.1468 -1.5887  0.4700
 8931SOL     OW38771   7.558   2.509   0.845  0.3334 -0.1590  0.5757
 8931SOL    HW138772   7.571   2.433   0.789  0.0319  0.2392 -0.0458
 8931SOL    HW238773   7.623   2.500   0.914  1.3454 -0.1664 -0.3632
 8932SOL     OW38774   4.780   5.219  13.695  0.2062 -0.8460  0.0117
 8932SOL    HW138775   4.814   5.192  13.609 -0.0239 -0.2605 -0.2692
 8932SOL    HW238776   4.685   5.222  13.683  0.2520  0.6829 -0.1557
 8933SOL     OW38777   1.639  11.882   4.943 -0.6776 -0.3114  0.0935
 8933SOL    HW138778   1.675  11.806   4.898 -0.3043 -0.5628  0.8074
 8933SOL    HW238779   1.629  11.948   4.874  0.8858 -0.3259 -0.1865
 8934SOL     OW38780   5.298   0.657   7.778  0.6388 -0.4335  0.3575
 8934SOL    HW138781   5.333   0.571   7.800  1.1452 -0.1156  0.8347
 8934SOL    HW238782   5.282   0.699   7.862 -0.6391 -0.4566  0.1483
 8935SOL     OW38783  13.929   1.093   5.055 -0.4588 -0.6557  0.0978
 8935SOL    HW138784  13.927   1.015   5.111 -4.3263 -0.2913  0.7416
 8935SOL    HW238785  13.939   1.059   4.966  0.0686 -1.6970  0.5394
 8936SOL     OW38786  13.851   3.973   9.310 -0.1917 -0.2869 -0.2139
 8936SOL    HW138787  13.817   3.904   9.253 -1.1144 -0.0834  0.0862
 8936SOL    HW238788  13.791   4.046   9.299  0.4509  0.2759 -0.0799
 8937SOL     OW38789   6.950  12.850   2.408 -0.0843 -0.0850 -0.7575
 8937SOL    HW138790   7.002  12.921   2.446  0.9491 -1.2601  0.0811
 8937SOL    HW238791   6.996  12.827   2.327  0.3442 -0.6917 -0.3447
 8938SOL     OW38792   7.123   5.985   6.881  0.9802  0.4261 -0.0182
 8938SOL    HW138793   7.191   5.917   6.878  3.6550  2.7892  1.7189
 8938SOL    HW238794   7.064   5.956   6.951  0.5936 -1.2555 -0.9720
 8939SOL     OW38795  13.661   6.993   2.669  0.1473 -0.3266 -0.8303
 8939SOL    HW138796  13.702   6.944   2.598 -0.2598  1.6104 -2.4812
 8939SOL    HW238797  13.720   7.068   2.684 -0.7445  0.3316 -0.4818
 8940SOL     OW38798   9.281   5.332   6.189  0.1845 -0.1092 -0.2536
 8940SOL    HW138799   9.308   5.366   6.104  0.4803 -1.6515 -0.8232
 8940SOL    HW238800   9.346   5.364   6.250  3.0861 -3.0864 -1.4613
 8941SOL     OW38801   8.062  12.395   9.355  0.0695 -0.4914 -0.2139
 8941SOL    HW138802   8.112  12.374   9.434 -1.0388 -0.4662  0.5115
 8941SOL    HW238803   8.117  12.458   9.309  0.5569 -0.1948  0.7358
 8942SOL     OW38804  10.301   6.796   4.256  0.0421 -0.1518 -0.1920
 8942SOL    HW138805  10.309   6.845   4.175  1.9269 -1.2419 -0.7395
 8942SOL    HW238806  10.389   6.760   4.271 -0.8918 -2.1608  0.9227
 8943SOL     OW38807   1.396   5.722  12.043 -0.1350  0.1026 -0.1745
 8943SOL    HW138808   1.385   5.807  12.085 -1.7602 -0.8927  1.5623
 8943SOL    HW238809   1.486   5.722  12.010  0.8569  1.4272  2.2989
 8944SOL     OW38810   1.278   4.805   0.097 -0.1895  0.1687  0.0151
 8944SOL    HW138811   1.270   4.805   0.002  2.6049  1.7987 -0.3191
 8944SOL    HW238812   1.189   4.822   0.128 -1.4466 -1.7984 -2.1794
 8945SOL     OW38813   7.720  13.922   4.286 -0.4414 -0.3516  0.1314
 8945SOL    HW138814   7.753  13.994   4.339  0.4291 -0.4283 -0.2724
 8945SOL    HW238815   7.626  13.936   4.280 -0.1810  1.2478 -0.6776
 8946SOL     OW38816   3.198   9.730   5.903 -0.1740 -0.9066  0.2707
 8946SOL    HW138817   3.185   9.666   5.834  1.5239 -0.4131 -0.5751
 8946SOL    HW238818   3.287   9.763   5.889 -1.6453  3.3292 -0.8198
 8947SOL     OW38819   9.981   4.719   7.114 -0.3929  0.5179  0.7384
 8947SOL    HW138820   9.960   4.634   7.076 -2.4620 -0.6285  3.9938
 8947SOL    HW238821  10.077   4.722   7.114 -0.2812 -1.3236 -0.4092
 8948SOL     OW38822  13.560  11.400   7.754  0.1131  0.0293  0.0067
 8948SOL    HW138823  13.543  11.346   7.677  0.0296  1.0539 -0.7189
 8948SOL    HW238824  13.491  11.376   7.816 -0.2035 -0.3559 -0.4895
 8949SOL     OW38825   0.180   6.249   5.803 -0.3984  0.3922  0.2120
 8949SOL    HW138826   0.209   6.232   5.893  2.7547 -2.1296 -1.0906
 8949SOL    HW238827   0.155   6.163   5.769 -1.2668  1.2477 -1.4722
 8950SOL     OW38828   8.920   9.556  13.028 -0.2992  0.5094  0.0415
 8950SOL    HW138829   9.009   9.543  13.061 -1.5241 -0.0635  3.6141
 8950SOL    HW238830   8.891   9.468  13.005 -0.4373  0.4408  0.4581
 8951SOL     OW38831  13.007   4.048   1.983  0.0441  0.6859  0.5760
 8951SOL    HW138832  13.012   3.955   2.006  0.0370  0.5952  0.2191
 8951SOL    HW238833  13.041   4.094   2.060  3.5295  0.2671 -0.5388
 8952SOL     OW38834   3.668   7.414  12.665 -0.4649  0.4437  0.3089
 8952SOL    HW138835   3.619   7.420  12.747  0.5994 -1.6331  1.1924
 8952SOL    HW238836   3.746   7.467  12.680 -0.8801  1.1212  0.1227
 8953SOL     OW38837   3.399   3.932   9.067  0.3528  0.3172 -0.1885
 8953SOL    HW138838   3.473   3.921   9.126  0.1965 -0.2265 -0.0872
 8953SOL    HW238839   3.380   4.026   9.069  0.4235  0.3193  0.5283
 8954SOL     OW38840   4.259   4.823   4.592  0.6210  0.1351 -0.2963
 8954SOL    HW138841   4.314   4.826   4.514  2.9574 -0.5571  1.2328
 8954SOL    HW238842   4.292   4.749   4.643 -1.7464 -0.3130  0.7544
 8955SOL     OW38843   7.489  12.588  12.154  0.1865 -0.2236 -0.0646
 8955SOL    HW138844   7.416  12.649  12.170  0.8963  0.0891  2.3761
 8955SOL    HW238845   7.492  12.580  12.058 -3.8254 -1.2298 -0.3107
 8956SOL     OW38846  13.162   5.421   3.353 -0.0213 -0.3129 -0.5853
 8956SOL    HW138847  13.149   5.440   3.260  0.1804  0.6813 -0.4204
 8956SOL    HW238848  13.107   5.344   3.370 -1.4910  0.5605 -1.1253
 8957SOL     OW38849   7.015  10.887   6.921  0.3956  0.0176 -0.4910
 8957SOL    HW138850   6.971  10.964   6.884 -0.2245 -0.2651 -0.3681
 8957SOL    HW238851   6.943  10.829   6.946  0.7644  0.4296  1.6903
 8958SOL     OW38852   2.710  10.566  13.928  0.4421 -0.2969 -0.2481
 8958SOL    HW138853   2.785  10.612  13.892 -1.0190  1.3760 -1.2808
 8958SOL    HW238854   2.655  10.634  13.966 -0.7459 -1.4291  0.1519
 8959SOL     OW38855   2.276   8.845  11.211  0.3310 -0.3409  0.3870
 8959SOL    HW138856   2.253   8.831  11.303 -1.4202  0.7085  0.1639
 8959SOL    HW238857   2.261   8.761  11.169  1.8344 -1.0289  1.1492
 8960SOL     OW38858   8.561   1.188   1.669  0.4524  0.2659 -0.2255
 8960SOL    HW138859   8.608   1.272   1.667  3.5628 -1.3149 -0.8936
 8960SOL    HW238860   8.579   1.153   1.756 -1.0306  0.3353  0.1327
 8961SOL     OW38861   2.733   0.425   2.031  0.3478 -0.1226  0.3247
 8961SOL    HW138862   2.821   0.399   2.005  0.4929 -0.0461  0.7321
 8961SOL    HW238863   2.736   0.521   2.034 -0.8456  0.1804 -3.5561
 8962SOL     OW38864   3.547  12.591  12.274 -0.1407 -0.1411 -0.5105
 8962SOL    HW138865   3.484  12.563  12.342  0.7808 -1.1439 -0.0334
 8962SOL    HW238866   3.492  12.627  12.205 -1.2069 -0.3470  0.1924
 8963SOL     OW38867   7.617   4.023   9.793  0.2255 -0.1281  0.1668
 8963SOL    HW138868   7.602   4.117   9.780  0.7005 -0.1442 -0.5752
 8963SOL    HW238869   7.543   3.994   9.846  0.0896  0.6726  0.4281
 8964SOL     OW38870   5.382   6.018   5.816  0.5782  0.9487  0.2239
 8964SOL    HW138871   5.465   5.976   5.796  0.8129  1.8810 -0.8259
 8964SOL    HW238872   5.358   5.983   5.902  1.5817 -0.0360  0.1257
 8965SOL     OW38873  12.622  13.801   0.581  0.0484 -0.2461 -0.3655
 8965SOL    HW138874  12.539  13.818   0.626  0.5543  0.0784  0.4562
 8965SOL    HW238875  12.672  13.881   0.592  0.5970 -0.5540 -0.5863
 8966SOL     OW38876   9.196   4.835   1.916 -0.6308 -0.0951 -0.0602
 8966SOL    HW138877   9.238   4.866   1.836 -0.3084  0.6625  0.4027
 8966SOL    HW238878   9.262   4.779   1.958 -0.9362 -0.8085 -0.5003
 8967SOL     OW38879   0.432  10.041  12.426 -0.4094  0.0282 -0.5528
 8967SOL    HW138880   0.525  10.018  12.427 -0.4384 -0.0927  0.7703
 8967SOL    HW238881   0.426  10.120  12.480 -1.2238 -0.6477  0.3945
 8968SOL     OW38882   7.373  13.424  13.197  0.0527 -0.1854  0.3301
 8968SOL    HW138883   7.402  13.508  13.164 -0.2749 -0.2301 -0.0880
 8968SOL    HW238884   7.282  13.438  13.223 -0.4835 -0.7486 -1.1041
 8969SOL     OW38885   1.076   0.635  12.346  0.3692  0.4513 -0.7217
 8969SOL    HW138886   1.132   0.605  12.418 -0.6849 -1.2327 -0.5295
 8969SOL    HW238887   1.047   0.722  12.372 -2.4252 -1.2125  2.5309
 8970SOL     OW38888   7.123   7.269   6.452 -0.3730  0.9524 -0.4438
 8970SOL    HW138889   7.150   7.230   6.535 -2.8596  0.4412  0.1810
 8970SOL    HW238890   7.135   7.198   6.388  2.4129  1.6118 -0.8095
 8971SOL     OW38891   2.270   3.588  11.240 -0.0720  0.4400  0.1913
 8971SOL    HW138892   2.182   3.624  11.241 -0.3722 -0.1555 -1.5884
 8971SOL    HW238893   2.293   3.577  11.333 -2.2618 -0.3723  0.7008
 8972SOL     OW38894  13.448  11.301   0.665 -0.0133  0.2322 -0.4476
 8972SOL    HW138895  13.516  11.360   0.697  0.1565 -0.0271 -0.3238
 8972SOL    HW238896  13.448  11.228   0.728 -1.2612  0.8123  0.2554
 8973SOL     OW38897   9.385   2.131   8.303  0.0789 -0.1552 -0.2518
 8973SOL    HW138898   9.375   2.223   8.325  0.8757 -0.5459  2.0301
 8973SOL    HW238899   9.383   2.129   8.207 -0.5201  2.1329 -0.3541
 8974SOL     OW38900  13.076   9.659   7.628 -0.3067  0.8380 -0.2379
 8974SOL    HW138901  13.148   9.719   7.645  0.7486 -0.7257  1.1753
 8974SOL    HW238902  13.030   9.652   7.712 -2.0318  1.6430 -1.0607
 8975SOL     OW38903   1.169   8.621   3.927  0.5631  0.6092  0.4111
 8975SOL    HW138904   1.191   8.684   3.858 -1.2853  0.4212 -0.3908
 8975SOL    HW238905   1.152   8.675   4.004  1.4790  0.8940  0.4339
 8976SOL     OW38906   5.672  13.795   4.238 -0.6110  0.1033 -0.0682
 8976SOL    HW138907   5.730  13.817   4.166  0.0815 -0.9198  0.1489
 8976SOL    HW238908   5.660  13.700   4.231  1.5316 -0.4904  2.6281
 8977SOL     OW38909   3.433  13.321   5.296  0.5074  0.2576 -0.2217
 8977SOL    HW138910   3.513  13.362   5.330  0.3662  1.7746 -1.5638
 8977SOL    HW238911   3.464  13.242   5.251  1.0335 -0.0952  0.7483
 8978SOL     OW38912   6.967   1.177   5.930  0.3103  0.0385  0.1192
 8978SOL    HW138913   6.933   1.237   5.996 -0.7962 -1.4190  0.9435
 8978SOL    HW238914   7.059   1.200   5.921  0.4631  0.3343  2.1202
 8979SOL     OW38915  12.567   7.327  11.294  0.7937 -0.0889  0.4926
 8979SOL    HW138916  12.509   7.309  11.369  2.0578 -0.3249  1.4511
 8979SOL    HW238917  12.531   7.274  11.223  0.6770 -1.3967  1.4833
 8980SOL     OW38918   3.443   0.832  13.368 -0.0167 -0.1850 -0.0385
 8980SOL    HW138919   3.460   0.757  13.311  0.5451  0.5971 -0.9304
 8980SOL    HW238920   3.409   0.899  13.310  0.5230  0.6173  0.5545
 8981SOL     OW38921  12.114   8.956   9.019 -0.0917 -0.0750  0.2384
 8981SOL    HW138922  12.032   8.962   8.969 -1.5998  1.5623  2.7278
 8981SOL    HW238923  12.099   8.886   9.082  0.7959 -0.3538  0.1576
 8982SOL     OW38924   3.370  10.389   7.830  0.2544 -0.6348  1.1706
 8982SOL    HW138925   3.325  10.305   7.836 -1.2152  0.2007  2.8866
 8982SOL    HW238926   3.317  10.448   7.884  0.6353  1.6631 -0.7936
 8983SOL     OW38927  11.649   0.530   0.823  0.4712 -0.3257 -0.2691
 8983SOL    HW138928  11.575   0.507   0.767  0.1299  1.3541 -0.5564
 8983SOL    HW238929  11.610   0.557   0.906  0.7556  0.2678 -0.3181
 8984SOL     OW38930   5.534   4.470  14.003  0.1967  0.2800  0.2759
 8984SOL    HW138931   5.461   4.447  14.060  0.0080  0.8673  0.2739
 8984SOL    HW238932   5.495   4.522  13.933  0.7673  1.6659  0.9319
 8985SOL     OW38933   6.142   6.739  13.889  0.2922 -0.5182 -0.3229
 8985SOL    HW138934   6.200   6.666  13.865 -0.5862 -0.8726 -1.4718
 8985SOL    HW238935   6.168   6.810  13.831  2.1138  0.6236  1.7582
 8986SOL     OW38936   4.727   8.667  13.582  0.0253 -0.1288 -0.3089
 8986SOL    HW138937   4.669   8.592  13.573  0.9079 -0.8631  0.0475
 8986SOL    HW238938   4.792   8.640  13.647 -1.5227  2.0829  2.4068
 8987SOL     OW38939   5.693  10.601  10.131 -0.1091  0.9025  0.3125
 8987SOL    HW138940   5.661  10.577  10.218  1.5922  1.4596  1.1217
 8987SOL    HW238941   5.669  10.693  10.121 -0.6082  0.7453  0.0390
 8988SOL     OW38942   7.905   6.358   0.899  0.2064  0.6160  0.0621
 8988SOL    HW138943   7.930   6.440   0.943  0.9721  1.1084 -1.2335
 8988SOL    HW238944   7.932   6.289   0.959 -0.6057  1.2935  1.2633
 8989SOL     OW38945   0.379   4.864   2.577  0.3053 -0.2367  0.2368
 8989SOL    HW138946   0.323   4.869   2.654  1.6716  0.9057  1.2111
 8989SOL    HW238947   0.354   4.782   2.534 -1.6204 -0.0845  0.9755
 8990SOL     OW38948  12.965  13.360   9.799 -0.2602 -0.3007  0.2977
 8990SOL    HW138949  12.956  13.301   9.725 -1.7924  2.0807 -1.5724
 8990SOL    HW238950  12.927  13.313   9.873  1.3361 -2.7593 -0.3514
 8991SOL     OW38951   9.390   9.465   6.856  0.4120  0.2862 -0.4881
 8991SOL    HW138952   9.410   9.547   6.811  0.1000 -0.0804 -1.3214
 8991SOL    HW238953   9.460   9.454   6.920  1.1812  0.5409 -1.2738
 8992SOL     OW38954   4.392   4.662   2.448 -0.6325  0.0576  0.0656
 8992SOL    HW138955   4.438   4.586   2.414  1.5045  0.3527  1.9974
 8992SOL    HW238956   4.462   4.724   2.471 -1.8969  0.5318  3.2057
 8993SOL     OW38957   6.747   8.743   8.003  0.4422 -0.0337  0.2157
 8993SOL    HW138958   6.707   8.817   7.956 -2.3296 -0.3951  1.7971
 8993SOL    HW238959   6.678   8.677   8.008  1.1442 -0.7084  3.1841
 8994SOL     OW38960  13.193  11.320  10.334  0.3895 -0.3000  0.1351
 8994SOL    HW138961  13.253  11.321  10.260  1.5482  0.1944  1.0370
 8994SOL    HW238962  13.144  11.402  10.327  0.1118 -0.5054 -0.3688
 8995SOL     OW38963   4.548   7.168   9.288 -0.1385 -0.4550  0.4569
 8995SOL    HW138964   4.507   7.189   9.372 -0.2991  0.7145  0.1097
 8995SOL    HW238965   4.479   7.127   9.237 -0.0753 -1.0541  0.8475
 8996SOL     OW38966   5.919   9.784   3.664 -0.1173  0.1638  0.1279
 8996SOL    HW138967   5.838   9.834   3.667 -3.1200 -4.1219 -0.2351
 8996SOL    HW238968   5.936   9.758   3.754  1.0096  1.1617  0.2256
 8997SOL     OW38969   1.556  11.378  13.471  0.4809 -0.0962  0.3529
 8997SOL    HW138970   1.586  11.360  13.560  1.8104 -1.2917 -0.2897
 8997SOL    HW238971   1.479  11.322  13.459  0.8462 -0.6328  0.4649
 8998SOL     OW38972  13.693   4.289  13.658 -0.1008  0.4380  0.0223
 8998SOL    HW138973  13.697   4.265  13.751  1.7356  3.4648  0.8780
 8998SOL    HW238974  13.603   4.318  13.645 -0.3142  0.2389  0.9476
 8999SOL     OW38975  11.410   6.706   2.266  0.2090 -0.1046  0.2172
 8999SOL    HW138976  11.391   6.796   2.240 -0.2950 -0.0953  0.5978
 8999SOL    HW238977  11.463   6.671   2.194 -2.0549 -0.4120 -1.4341
 9000SOL     OW38978   8.718   6.241  11.160 -0.0076  0.3742 -0.0455
 9000SOL    HW138979   8.684   6.293  11.087 -2.6141  0.7803  1.3372
 9000SOL    HW238980   8.694   6.151  11.139 -0.2849  0.4256  0.0450
 9001SOL     OW38981   0.903  13.947  11.766 -0.4881 -0.0576 -0.2058
 9001SOL    HW138982   0.943  13.876  11.717 -1.1133 -0.5704  0.0255
 9001SOL    HW238983   0.972  14.014  11.770  1.1242 -1.6644  1.8390
 9002SOL     OW38984  13.301   4.522  13.328  0.6558 -0.1449  0.3725
 9002SOL    HW138985  13.265   4.583  13.263  3.6002  2.5640  1.0506
 9002SOL    HW238986  13.225   4.495  13.380 -0.8740  2.8757 -0.0647
 9003SOL     OW38987  11.105   4.971   1.063 -0.3383  0.2150  0.2708
 9003SOL    HW138988  11.095   4.876   1.065  3.9036 -0.4055  0.9590
 9003SOL    HW238989  11.175   4.987   1.000 -1.4729  3.0276 -0.4385
 9004SOL     OW38990   9.015  12.394  11.839 -0.4702 -0.0683  0.0935
 9004SOL    HW138991   9.052  12.333  11.775 -0.9273  1.0812 -1.3122
 9004SOL    HW238992   9.092  12.438  11.877 -0.2498  0.8484 -1.3341
 9005SOL     OW38993   1.107  10.972   7.046  0.3991  0.6644 -0.1391
 9005SOL    HW138994   1.118  11.067   7.036 -1.7461  1.0259  0.4906
 9005SOL    HW238995   1.020  10.954   7.010  1.0007 -1.1852 -0.7923
 9006SOL     OW38996   2.949  11.633   9.839  0.1706 -0.4070 -0.4256
 9006SOL    HW138997   2.988  11.694   9.776 -0.0856  0.6780  0.4338
 9006SOL    HW238998   2.997  11.647   9.920  0.8863 -2.2086 -0.4850
 9007SOL     OW38999   4.521   7.333  11.307  0.2958 -0.2208  0.4716
 9007SOL    HW139000   4.504   7.248  11.347  1.4731 -0.3486  0.7373
 9007SOL    HW239001   4.440   7.382  11.320 -0.9432 -1.7750 -1.0046
 9008SOL     OW39002   5.346   0.873  11.707 -0.1275 -0.3427 -0.0898
 9008SOL    HW139003   5.253   0.884  11.686  0.3632  0.1690 -2.2687
 9008SOL    HW239004   5.383   0.960  11.696  0.9054 -0.8788 -1.0625
 9009SOL     OW39005   6.458  12.993  12.939 -0.0924 -0.2647 -0.0079
 9009SOL    HW139006   6.533  12.940  12.915 -0.8752 -1.9228  0.9691
 9009SOL    HW239007   6.493  13.061  12.996  0.8314 -0.2304 -0.6109
 9010SOL     OW39008   9.919   2.578  10.221  0.2711 -0.0803 -0.1994
 9010SOL    HW139009   9.882   2.490  10.231 -1.3559  0.6261  0.4459
 9010SOL    HW239010   9.990   2.582  10.284  1.8870 -1.6552 -1.8178
 9011SOL     OW39011   2.162   5.912  12.056 -0.1349  0.2072  0.4523
 9011SOL    HW139012   2.233   5.906  12.120  0.0391 -0.0186  0.2414
 9011SOL    HW239013   2.185   5.848  11.989  1.5479  2.8269 -1.6708
 9012SOL     OW39014   9.507   7.053   8.497  0.2111  0.1259  0.0450
 9012SOL    HW139015   9.422   7.009   8.509  0.4356  0.1859  2.3763
 9012SOL    HW239016   9.566   6.983   8.467 -0.3648 -0.2084 -0.3380
 9013SOL     OW39017   2.451   6.161  12.134  0.5347 -0.1345 -0.6108
 9013SOL    HW139018   2.410   6.156  12.048  0.3408 -1.2891 -0.4672
 9013SOL    HW239019   2.428   6.079  12.176  1.3449  0.0526  0.2289
 9014SOL     OW39020   3.312   7.801   0.346  0.0250  0.6305 -0.8661
 9014SOL    HW139021   3.379   7.740   0.378  1.2518  1.7810 -1.1665
 9014SOL    HW239022   3.338   7.820   0.256 -0.8907  0.8664 -1.0952
 9015SOL     OW39023  11.053  11.091   1.269 -0.1634  0.3558  0.0254
 9015SOL    HW139024  11.007  11.117   1.189  0.6402  1.2967 -0.1584
 9015SOL    HW239025  11.020  11.151   1.336  0.3994  0.6979  0.0047
 9016SOL     OW39026   4.941   5.725   0.069 -0.5178  0.5060  0.4997
 9016SOL    HW139027   4.967   5.642   0.030 -2.0787 -0.0079  0.4887
 9016SOL    HW239028   4.890   5.770   0.002  0.1862  1.4311  0.5526
 9017SOL     OW39029   9.673  12.944   3.521 -0.3635 -0.3254 -0.6317
 9017SOL    HW139030   9.680  12.850   3.503 -1.9383 -0.5605 -0.1471
 9017SOL    HW239031   9.763  12.976   3.517  0.3033 -2.0172  0.0549
 9018SOL     OW39032   4.326   8.571   3.022  0.2987  0.2565 -0.3609
 9018SOL    HW139033   4.307   8.611   2.938  2.0566  0.3768 -0.7564
 9018SOL    HW239034   4.344   8.479   3.002  0.5545  0.2480 -0.1066
 9019SOL     OW39035   1.681   5.081   2.971 -0.2177 -0.0248  0.5183
 9019SOL    HW139036   1.708   5.167   3.003 -0.3032  0.2886 -0.2448
 9019SOL    HW239037   1.586   5.088   2.959 -0.1472 -0.0438 -0.0862
 9020SOL     OW39038  13.362   6.703   4.509 -0.1122 -0.6292  0.1701
 9020SOL    HW139039  13.341   6.689   4.601  0.5721 -2.1113  0.1247
 9020SOL    HW239040  13.414   6.626   4.484  3.0977  1.5362 -0.4291
 9021SOL     OW39041   6.472   6.721   8.717  0.1393  0.0946 -0.2642
 9021SOL    HW139042   6.418   6.648   8.746 -0.7056  1.0533  0.6765
 9021SOL    HW239043   6.409   6.792   8.702  0.8070  0.3465 -2.1925
 9022SOL     OW39044  12.619  11.639   1.157  0.3246  0.0222  0.1171
 9022SOL    HW139045  12.612  11.573   1.227 -1.3773  0.8879  0.8203
 9022SOL    HW239046  12.629  11.587   1.077 -1.0354 -1.1231  0.6394
 9023SOL     OW39047   1.111   6.944  10.892 -0.1780  0.1966 -0.0481
 9023SOL    HW139048   1.115   7.021  10.948  1.2276  1.3366 -1.6086
 9023SOL    HW239049   1.060   6.972  10.816 -0.7107 -0.8168 -0.0809
 9024SOL     OW39050   0.637   1.675   0.735 -0.1130 -0.2245 -0.0361
 9024SOL    HW139051   0.649   1.584   0.761  2.4160 -0.0420 -0.2292
 9024SOL    HW239052   0.579   1.672   0.659 -1.5625 -1.4551  1.0691
 9025SOL     OW39053   8.857   1.768   1.472 -0.4055  0.6144  0.6310
 9025SOL    HW139054   8.894   1.691   1.515 -2.0847  0.0204  1.0917
 9025SOL    HW239055   8.921   1.838   1.488  1.1727 -0.6645  0.1489
 9026SOL     OW39056   1.186   7.370   9.815  0.5210 -0.4077 -0.2399
 9026SOL    HW139057   1.281   7.358   9.809  0.6436  0.9347 -1.8868
 9026SOL    HW239058   1.163   7.415   9.734 -1.6940 -1.6158 -0.3476
 9027SOL     OW39059  13.387  10.063  13.854 -0.1882 -0.1541  0.0442
 9027SOL    HW139060  13.291  10.054  13.854 -0.4807  2.2755  0.0363
 9027SOL    HW239061  13.402  10.151  13.890  2.0565 -0.4863  0.0140
 9028SOL     OW39062  10.514   4.722   8.820  0.1839  0.0405 -0.2683
 9028SOL    HW139063  10.591   4.667   8.813 -0.7648 -1.1372 -1.7610
 9028SOL    HW239064  10.440   4.662   8.821 -0.7854  1.1799  0.2966
 9029SOL     OW39065   3.209   0.232   3.279 -0.1855 -0.2383 -0.5261
 9029SOL    HW139066   3.143   0.164   3.288 -1.0710  0.7520  0.7744
 9029SOL    HW239067   3.249   0.240   3.366  0.1971  0.5971 -0.7625
 9030SOL     OW39068   0.397   9.523   9.374  0.5890 -0.5631  0.1133
 9030SOL    HW139069   0.478   9.492   9.415  0.4312 -0.9984  0.1007
 9030SOL    HW239070   0.343   9.444   9.364 -0.0447 -0.1943  0.5841
 9031SOL     OW39071   1.690   6.440   2.767 -0.1500  0.5319  0.0534
 9031SOL    HW139072   1.660   6.440   2.858 -0.8206  3.7965 -0.0326
 9031SOL    HW239073   1.613   6.413   2.717 -1.1435  2.7250  0.2653
 9032SOL     OW39074   8.816   7.106   6.286  0.3979 -0.9013 -0.2538
 9032SOL    HW139075   8.774   7.028   6.251 -1.1289 -0.8107  1.2292
 9032SOL    HW239076   8.832   7.085   6.378 -2.8082  1.4737  1.0267
 9033SOL     OW39077   9.859   9.315  12.013  0.1468 -0.6795 -0.1783
 9033SOL    HW139078   9.911   9.255  12.068  1.1536 -0.1073 -0.4734
 9033SOL    HW239079   9.838   9.388  12.072 -0.5766 -1.0405  0.0186
 9034SOL     OW39080   6.853   2.317   3.294 -0.0959  0.6071  0.4836
 9034SOL    HW139081   6.863   2.383   3.363 -0.6630 -0.6865  1.8373
 9034SOL    HW239082   6.772   2.342   3.250 -0.5809  0.5418  1.3197
 9035SOL     OW39083   9.421   3.436   2.542  0.3725  0.1523  0.2884
 9035SOL    HW139084   9.366   3.359   2.552  0.7194 -0.3335 -1.2774
 9035SOL    HW239085   9.510   3.405   2.562  0.3172  0.5558  1.2408
 9036SOL     OW39086   1.030   1.093   0.787  0.3591 -0.1273 -0.1028
 9036SOL    HW139087   1.119   1.074   0.816  0.9582 -0.1846 -1.8780
 9036SOL    HW239088   0.976   1.081   0.866  1.8164 -0.7722  0.8379
 9037SOL     OW39089   1.322   8.474   2.878 -0.4757 -0.1104 -0.4681
 9037SOL    HW139090   1.388   8.523   2.827 -0.4390  0.8809  0.4976
 9037SOL    HW239091   1.374   8.413   2.931 -0.3778  0.1097 -0.3052
 9038SOL     OW39092   0.929   1.893   9.096  0.0101 -0.0269 -0.4289
 9038SOL    HW139093   0.968   1.937   9.020 -0.4853  0.1214 -0.5988
 9038SOL    HW239094   0.938   1.957   9.167 -0.6803  0.3465 -0.6687
 9039SOL     OW39095   0.514  13.434   9.922  0.0210  0.0869  0.0011
 9039SOL    HW139096   0.472  13.354   9.953 -1.9153  1.1165  0.1884
 9039SOL    HW239097   0.559  13.469   9.999 -0.2747 -0.1257  0.2733
 9040SOL     OW39098   0.524   4.040   2.593 -0.3219 -0.5773  0.0251
 9040SOL    HW139099   0.464   4.067   2.663  2.4199  0.7133  2.0822
 9040SOL    HW239100   0.494   3.952   2.570 -1.7435 -0.8420  2.4440
 9041SOL     OW39101   2.781  12.074  10.511 -0.9304  0.0853 -0.2417
 9041SOL    HW139102   2.734  12.037  10.436  0.1144  1.0713 -1.4481
 9041SOL    HW239103   2.715  12.126  10.557 -1.9607 -1.7802  0.4502
 9042SOL     OW39104   3.115   7.269   0.561 -0.0108  0.3471  0.1204
 9042SOL    HW139105   3.131   7.363   0.565  1.2804  0.1465 -0.1684
 9042SOL    HW239106   3.043   7.255   0.624 -0.7393  1.6130 -0.3992
 9043SOL     OW39107  11.143   9.633   8.994 -0.3557  0.1662 -0.0655
 9043SOL    HW139108  11.107   9.583   8.921  0.1357  0.0114 -0.2110
 9043SOL    HW239109  11.206   9.692   8.953  0.4581 -0.4240  0.2971
 9044SOL     OW39110  10.246   2.705  12.802  0.6451 -0.5240  0.2177
 9044SOL    HW139111  10.267   2.621  12.762 -0.4765 -0.0513 -1.4436
 9044SOL    HW239112  10.151   2.704  12.813  0.4773  0.9412 -0.8522
 9045SOL     OW39113  12.780   1.042  10.270  0.2770 -0.2062  0.7901
 9045SOL    HW139114  12.726   0.974  10.231 -0.4067 -0.1760  1.6370
 9045SOL    HW239115  12.727   1.075  10.343  0.7979  0.8942  0.6927
 9046SOL     OW39116  12.024   6.175   6.239 -0.3236  0.4939  0.7934
 9046SOL    HW139117  12.029   6.094   6.289 -0.4244  1.0881  1.7895
 9046SOL    HW239118  12.115   6.206   6.236  0.1157 -0.7806 -1.5545
 9047SOL     OW39119   7.957   7.305   0.219 -0.1306  0.3785 -0.0050
 9047SOL    HW139120   7.995   7.276   0.136 -0.2538 -1.3897  0.5092
 9047SOL    HW239121   7.881   7.357   0.194  0.5406  0.9123 -1.0000
 9048SOL     OW39122   5.045  11.915   8.325  0.1074 -0.0305  0.1252
 9048SOL    HW139123   5.094  11.897   8.406 -1.2594  0.9218  1.2096
 9048SOL    HW239124   5.038  11.830   8.282  2.9416 -0.1698 -0.2452
 9049SOL     OW39125  10.565   9.189   1.033 -0.0116 -0.2141 -0.6535
 9049SOL    HW139126  10.492   9.188   0.970 -0.4642 -1.4025 -0.1485
 9049SOL    HW239127  10.528   9.225   1.113  0.1645 -0.0895 -0.6282
 9050SOL     OW39128   1.952   9.088  13.008 -0.1521  0.0317 -0.2488
 9050SOL    HW139129   1.906   9.028  12.949  0.9908 -0.2121 -0.9254
 9050SOL    HW239130   1.912   9.174  12.991  0.5499  0.0749 -1.8388
 9051SOL     OW39131   3.660   6.346   2.745  0.1575  0.1974 -0.2762
 9051SOL    HW139132   3.726   6.415   2.759 -1.1659  1.7205 -1.1996
 9051SOL    HW239133   3.685   6.277   2.806  1.0057  1.9053  1.4347
 9052SOL     OW39134  13.042   9.826   3.898 -0.3798 -0.1288 -0.1500
 9052SOL    HW139135  12.955   9.855   3.928  0.5847  1.4281  1.3772
 9052SOL    HW239136  13.083   9.906   3.864  0.8196 -0.6035  0.1228
 9053SOL     OW39137   7.059   0.883  10.039 -0.2251 -0.6124  0.0849
 9053SOL    HW139138   7.128   0.927  10.090 -0.3178  0.7350 -0.8997
 9053SOL    HW239139   7.019   0.822  10.102 -0.1679  0.8052  1.5775
 9054SOL     OW39140   8.114   8.942  13.329 -0.0645 -0.1243  0.2581
 9054SOL    HW139141   8.142   8.973  13.416  0.3629  0.2348 -0.0070
 9054SOL    HW239142   8.032   8.989  13.312  1.5440  2.4203 -0.9852
 9055SOL     OW39143   1.760  10.253   5.163  0.6141 -0.6219  0.0514
 9055SOL    HW139144   1.747  10.173   5.212 -0.2612 -0.4852  0.0555
 9055SOL    HW239145   1.855  10.265   5.161  0.7153  0.9320  4.2536
 9056SOL     OW39146   6.249   6.601   5.987  0.0886 -0.8218 -0.0272
 9056SOL    HW139147   6.264   6.650   6.068 -0.9756  0.8124 -0.7570
 9056SOL    HW239148   6.182   6.536   6.010 -1.3597  0.6507  0.0870
 9057SOL     OW39149   1.691   1.192   4.508  0.3219  0.3335 -0.0616
 9057SOL    HW139150   1.693   1.125   4.440  0.1924  2.2154 -2.0249
 9057SOL    HW239151   1.652   1.148   4.584  0.7911 -1.9412 -1.0378
 9058SOL     OW39152   1.844   8.723   4.913 -0.2753 -0.2069 -0.6577
 9058SOL    HW139153   1.766   8.735   4.859 -2.1236  1.1793  2.0670
 9058SOL    HW239154   1.878   8.812   4.926  0.3596 -0.5436  0.0691
 9059SOL     OW39155  11.100  13.297   0.713 -0.2184 -0.0779  0.5312
 9059SOL    HW139156  11.110  13.389   0.689 -0.5810 -0.3778 -0.9035
 9059SOL    HW239157  11.067  13.298   0.803  0.9308  1.1507  0.9619
 9060SOL     OW39158  11.337   7.863  11.962 -0.0208  0.2719  0.1187
 9060SOL    HW139159  11.425   7.898  11.980 -0.9984  1.5730  2.9963
 9060SOL    HW239160  11.321   7.800  12.032 -1.9658  1.2413  0.6130
 9061SOL     OW39161  10.788   3.720   7.472  0.6770 -0.0521 -0.0351
 9061SOL    HW139162  10.777   3.766   7.389  0.4356 -0.8920 -0.4804
 9061SOL    HW239163  10.847   3.648   7.452  0.3757 -0.4379  0.4543
 9062SOL     OW39164   9.395   0.784   2.709  0.0395 -0.1917 -0.2270
 9062SOL    HW139165   9.345   0.866   2.703  0.0517 -0.2150 -0.6441
 9062SOL    HW239166   9.476   0.803   2.661  0.1841 -0.3415 -0.0402
 9063SOL     OW39167   7.250   3.150   7.471 -0.8242 -0.1470  0.1457
 9063SOL    HW139168   7.331   3.106   7.446 -0.6606  0.8336 -1.1883
 9063SOL    HW239169   7.230   3.118   7.559  1.5875  0.3990  0.9612
 9064SOL     OW39170   0.806   7.594  10.695 -0.4807  0.0028 -0.1523
 9064SOL    HW139171   0.810   7.629  10.606  1.0760  0.2789 -0.0107
 9064SOL    HW239172   0.812   7.499  10.685 -1.6713 -0.0594 -0.3913
 9065SOL     OW39173   4.904   7.752   1.647 -0.1016  0.6720 -0.2194
 9065SOL    HW139174   4.937   7.790   1.729  0.6094  0.1468 -0.2492
 9065SOL    HW239175   4.983   7.733   1.597 -0.4465 -0.6217 -0.2988
 9066SOL     OW39176   1.518  13.837  12.188 -0.0041  0.1108  0.2702
 9066SOL    HW139177   1.508  13.920  12.141  0.5605 -0.5220 -1.0278
 9066SOL    HW239178   1.440  13.787  12.164  1.0410 -0.8383 -1.4023
 9067SOL     OW39179   8.259   2.333   0.094 -0.4607 -0.0504  0.5479
 9067SOL    HW139180   8.311   2.401   0.052 -1.7511  0.3690 -0.4432
 9067SOL    HW239181   8.322   2.282   0.144  0.5754  1.7058  1.1065
 9068SOL     OW39182   7.289   6.392  12.761 -0.2457  0.4033 -0.3436
 9068SOL    HW139183   7.351   6.465  12.757  1.0833 -0.6723 -0.5597
 9068SOL    HW239184   7.239   6.398  12.679  0.5557  0.4952 -0.8403
 9069SOL     OW39185   7.449   0.865   4.166  0.9116 -0.0484  0.4838
 9069SOL    HW139186   7.478   0.901   4.250  0.6767  0.4810  0.3412
 9069SOL    HW239187   7.515   0.892   4.103  0.9094 -0.1548  0.4349
 9070SOL     OW39188   9.372   7.834  12.137  0.3357  0.2917  0.1160
 9070SOL    HW139189   9.411   7.872  12.216  2.5917  0.4737 -1.0088
 9070SOL    HW239190   9.296   7.785  12.169 -0.6807  2.9020  2.0138
 9071SOL     OW39191   3.656  11.250   7.600 -0.4356 -0.4420  0.1444
 9071SOL    HW139192   3.571  11.288   7.578 -1.3333 -2.4972 -0.1497
 9071SOL    HW239193   3.715  11.325   7.607 -1.8873  0.9076 -1.3067
 9072SOL     OW39194   6.876  12.936  13.225 -0.1210 -0.1227 -0.3436
 9072SOL    HW139195   6.969  12.923  13.206  0.5981  1.1729  1.9409
 9072SOL    HW239196   6.874  13.005  13.291 -2.7840  0.4427 -0.8946
 9073SOL     OW39197  12.998   7.588   0.828  0.1196  0.3925  0.3082
 9073SOL    HW139198  12.926   7.526   0.843  1.1964 -1.1665 -0.6521
 9073SOL    HW239199  13.052   7.581   0.907  0.1710  0.1759  0.2559
 9074SOL     OW39200   8.219   1.254   5.278  0.1091  0.4201 -0.1423
 9074SOL    HW139201   8.240   1.336   5.232 -0.1767 -0.5080 -2.0556
 9074SOL    HW239202   8.246   1.185   5.216 -1.2897 -0.9012  0.6649
 9075SOL     OW39203   9.900  12.778  10.053  0.1585 -0.4654  0.2835
 9075SOL    HW139204   9.922  12.742   9.967 -0.8364 -0.2883 -0.0527
 9075SOL    HW239205   9.949  12.723  10.115  0.2412 -1.1100 -0.3427
 9076SOL     OW39206  13.504  11.792   4.680 -0.0918  0.0464 -0.1793
 9076SOL    HW139207  13.557  11.862   4.717  2.3283 -0.7011 -1.9968
 9076SOL    HW239208  13.420  11.834   4.660 -0.2558  1.3093  2.6493
 9077SOL     OW39209   0.635   8.860   3.560 -0.3219 -0.0763 -0.2851
 9077SOL    HW139210   0.550   8.900   3.578 -0.8817 -0.5304 -1.7440
 9077SOL    HW239211   0.614   8.768   3.539  0.5721 -0.2915 -0.2795
 9078SOL     OW39212   2.738   3.660  10.122  0.0542 -0.0886 -0.4619
 9078SOL    HW139213   2.713   3.608  10.045 -1.5769  0.3066 -0.2436
 9078SOL    HW239214   2.831   3.641  10.135 -0.5194 -3.3208 -0.1291
 9079SOL     OW39215   1.512   6.351   9.534  0.8784  0.2657  0.6600
 9079SOL    HW139216   1.446   6.344   9.604  0.2632  0.0227  0.0706
 9079SOL    HW239217   1.564   6.427   9.558 -0.7490  1.5839  0.2312
 9080SOL     OW39218  10.300   7.159   7.043  0.0517  0.0982 -0.7119
 9080SOL    HW139219  10.316   7.070   7.074 -0.6593  0.4210  0.7064
 9080SOL    HW239220  10.221   7.186   7.090 -0.0844  1.2710 -1.5752
 9081SOL     OW39221   1.436  10.555  12.932 -0.0488  0.2857  0.3132
 9081SOL    HW139222   1.446  10.510  13.017  2.4080 -4.0861 -1.9117
 9081SOL    HW239223   1.348  10.531  12.903 -0.4994  0.9019  1.1161
 9082SOL     OW39224  13.527   6.195   0.236 -0.1425  0.0520  0.3582
 9082SOL    HW139225  13.434   6.217   0.240 -0.0759  0.3318  0.4041
 9082SOL    HW239226  13.531   6.117   0.182 -0.4511 -0.2319  0.7375
 9083SOL     OW39227  13.674   2.751   8.283  0.3069  0.1840 -0.6032
 9083SOL    HW139228  13.757   2.792   8.259  1.3599 -0.3824  1.7862
 9083SOL    HW239229  13.682   2.661   8.251 -0.0334  0.5163 -1.6670
 9084SOL     OW39230   9.675   3.607  13.424  0.1722 -0.0590 -0.2798
 9084SOL    HW139231   9.714   3.528  13.461  0.6023  0.0604 -0.4703
 9084SOL    HW239232   9.599   3.625  13.479  0.1357 -0.5425 -0.1693
 9085SOL     OW39233   3.116   2.979   1.445 -0.0819  0.1220 -0.3596
 9085SOL    HW139234   3.049   2.988   1.378  0.7924 -0.0988 -1.2906
 9085SOL    HW239235   3.067   2.965   1.526 -1.1693  0.9394 -0.8506
 9086SOL     OW39236  12.305   4.965   3.798 -0.1275  0.3032 -0.0738
 9086SOL    HW139237  12.373   4.971   3.731 -0.5177 -0.3736 -0.5524
 9086SOL    HW239238  12.281   5.056   3.817  0.6815  0.5334 -0.1263
 9087SOL     OW39239   5.923   1.762   8.020 -0.2668  0.6299 -0.1380
 9087SOL    HW139240   5.833   1.738   8.040 -0.6429  0.0722 -2.2476
 9087SOL    HW239241   5.918   1.801   7.932  1.4609  1.2190 -0.0101
 9088SOL     OW39242  12.502   8.865   1.695  0.0061  0.6191  0.2499
 9088SOL    HW139243  12.467   8.838   1.780  0.3992 -1.1413 -0.0971
 9088SOL    HW239244  12.433   8.917   1.655 -0.8494  0.0719  0.9804
 9089SOL     OW39245  11.680  12.377  11.984  0.2968 -0.3012 -0.5202
 9089SOL    HW139246  11.662  12.409  12.072  1.4548 -0.4852 -0.2025
 9089SOL    HW239247  11.664  12.283  11.989 -1.7391 -0.0336 -1.0909
 9090SOL     OW39248   3.092  12.180   6.318 -0.3815 -0.0396 -0.1958
 9090SOL    HW139249   3.138  12.212   6.240  0.7689 -2.8711 -0.8153
 9090SOL    HW239250   3.153  12.196   6.390 -0.6493  0.8630 -0.1556
 9091SOL     OW39251   0.893  11.843   1.078  0.0320  0.2246  0.2232
 9091SOL    HW139252   0.853  11.794   1.007 -0.2277 -0.6797  0.9733
 9091SOL    HW239253   0.831  11.913   1.098  1.3458  2.3223 -2.2964
 9092SOL     OW39254   3.005   4.356   7.635  0.1482 -0.5580  0.0260
 9092SOL    HW139255   2.913   4.356   7.610 -0.4172 -2.1085  1.8596
 9092SOL    HW239256   3.021   4.443   7.672 -0.1563  0.2186 -1.6170
 9093SOL     OW39257   6.826   1.220   8.803  0.1980  0.2680 -0.0154
 9093SOL    HW139258   6.756   1.244   8.743 -0.0243  0.5925  0.3715
 9093SOL    HW239259   6.901   1.200   8.746  0.0350  0.7165 -0.3928
 9094SOL     OW39260  13.029   2.805   7.042  0.3229 -0.1237  0.0767
 9094SOL    HW139261  13.063   2.792   6.953 -1.0169 -2.4014 -0.1699
 9094SOL    HW239262  13.103   2.785   7.099  0.7409 -0.2542 -0.5032
 9095SOL     OW39263   0.046  12.100   9.283  0.3204 -0.2758  0.6733
 9095SOL    HW139264   0.077  12.188   9.263  2.4380 -0.8697  1.1219
 9095SOL    HW239265   0.065  12.089   9.376 -2.5283 -0.2509  1.3643
 9096SOL     OW39266  12.034   3.297  12.298  0.4376  0.4517 -0.0167
 9096SOL    HW139267  11.976   3.324  12.369  1.7623  2.2263  0.4535
 9096SOL    HW239268  12.000   3.342  12.221 -0.0943 -0.2876 -0.2365
 9097SOL     OW39269   4.417   3.858   0.690  0.0306 -0.0573 -0.3704
 9097SOL    HW139270   4.327   3.827   0.688 -1.1026  2.8361  0.7369
 9097SOL    HW239271   4.435   3.886   0.600 -0.8225  0.9426 -0.2444
 9098SOL     OW39272   5.136   0.607   6.312  0.2158  0.5603  0.5769
 9098SOL    HW139273   5.040   0.606   6.316  0.0984 -0.0258 -1.4542
 9098SOL    HW239274   5.159   0.699   6.321 -0.7443  1.0824 -1.6598
 9099SOL     OW39275   0.708   6.862  10.874  0.4506  0.1277 -0.3357
 9099SOL    HW139276   0.688   6.788  10.817  0.0207  1.6742 -2.2976
 9099SOL    HW239277   0.674   6.835  10.960 -0.0896 -1.7539 -1.0774
 9100SOL     OW39278   3.600   7.335   5.265 -0.0275 -0.5331  0.1169
 9100SOL    HW139279   3.508   7.344   5.241  0.7774  2.1295 -2.5694
 9100SOL    HW239280   3.614   7.404   5.330  0.0560 -0.9796  0.5723
 9101SOL     OW39281   5.576   5.493   2.922 -0.1866 -0.5198 -0.1479
 9101SOL    HW139282   5.597   5.559   2.987 -1.0140  0.7544 -1.1261
 9101SOL    HW239283   5.641   5.505   2.853 -0.3377 -0.7426 -0.3317
 9102SOL     OW39284   6.195   8.208   5.491  0.0093  0.0572  0.4533
 9102SOL    HW139285   6.191   8.184   5.583 -0.3986 -1.0733  0.1508
 9102SOL    HW239286   6.174   8.128   5.443  0.6145  0.5137 -0.6401
 9103SOL     OW39287  12.966   6.109   9.816 -0.2391  0.2889 -0.3008
 9103SOL    HW139288  13.060   6.099   9.830 -0.1122  1.2004 -0.4438
 9103SOL    HW239289  12.949   6.061   9.735 -0.1625 -1.0901  0.4670
 9104SOL     OW39290   7.063   1.570   0.419  0.5052 -0.8113 -0.2142
 9104SOL    HW139291   6.995   1.613   0.367  1.6064  1.4391  0.0930
 9104SOL    HW239292   7.062   1.617   0.503  3.9074  0.9667 -0.9776
 9105SOL     OW39293   7.376   6.289   9.963  0.0275  0.6089 -0.0404
 9105SOL    HW139294   7.282   6.302   9.966 -0.1549 -0.8696  1.9234
 9105SOL    HW239295   7.412   6.360  10.016  0.0289  1.0412 -0.6074
 9106SOL     OW39296  10.061  13.102   0.140  0.0415  0.0044  0.0731
 9106SOL    HW139297  10.070  13.185   0.187 -1.8288  0.9152 -1.0744
 9106SOL    HW239298   9.983  13.062   0.177 -1.2730  0.5761 -1.8615
 9107SOL     OW39299   7.393  10.028  11.772 -0.7949 -0.7929  0.5619
 9107SOL    HW139300   7.386   9.985  11.858  1.3183 -1.6779  0.3451
 9107SOL    HW239301   7.482  10.009  11.743 -0.4339  2.0499 -0.4993
 9108SOL     OW39302  13.350   4.632   8.002  0.5362  0.6375  0.3146
 9108SOL    HW139303  13.274   4.616   8.058 -0.2814  0.4131 -0.8232
 9108SOL    HW239304  13.314   4.677   7.925  1.2836 -0.8420 -0.9628
 9109SOL     OW39305  12.408  11.260   7.289  0.2485  0.2127  0.0194
 9109SOL    HW139306  12.357  11.339   7.308 -1.6013 -0.7988 -0.4671
 9109SOL    HW239307  12.445  11.235   7.374 -0.6838  0.5936  0.5595
 9110SOL     OW39308  13.612  10.635  10.871  0.1318 -0.2199  0.2883
 9110SOL    HW139309  13.542  10.695  10.846 -0.3293  0.2008  2.3945
 9110SOL    HW239310  13.669  10.631  10.795 -1.8361 -0.0764 -1.2535
 9111SOL     OW39311  10.492  13.776  12.178  0.4213  0.3906  0.4419
 9111SOL    HW139312  10.407  13.819  12.189 -0.6940 -1.1560 -1.5162
 9111SOL    HW239313  10.508  13.735  12.263 -2.1491 -1.4976  0.1469
 9112SOL     OW39314   8.265   7.507   6.454  0.2462  0.4310  0.1535
 9112SOL    HW139315   8.299   7.596   6.467 -1.2816  0.8408  1.6990
 9112SOL    HW239316   8.190   7.501   6.513  0.0338 -1.7521 -0.2531
 9113SOL     OW39317   7.510   2.828   6.845  0.8130  0.0478  0.0744
 9113SOL    HW139318   7.497   2.737   6.818 -1.0430  0.2538  0.1436
 9113SOL    HW239319   7.605   2.842   6.839  0.8786 -0.9852 -2.8339
 9114SOL     OW39320   2.975   4.714   5.113 -0.0979  0.0662  0.0678
 9114SOL    HW139321   3.029   4.739   5.038  0.3407 -1.2325 -0.0750
 9114SOL    HW239322   3.024   4.643   5.155  0.0038  1.1906  1.9988
 9115SOL     OW39323  12.874  13.365  13.993 -0.1107 -0.1480  0.4334
 9115SOL    HW139324  12.910  13.315  14.065 -0.3230 -0.9855 -0.0319
 9115SOL    HW239325  12.936  13.437  13.980 -1.0491  1.1597  2.6896
 9116SOL     OW39326   0.109   1.965   5.425  0.4040  0.8019  0.4369
 9116SOL    HW139327   0.157   1.924   5.498  0.0881 -1.1967 -0.4245
 9116SOL    HW239328   0.033   2.005   5.467  0.0246 -0.6368  1.2002
 9117SOL     OW39329   3.645  13.446   5.415 -0.2523  0.5674  0.1053
 9117SOL    HW139330   3.723  13.400   5.384 -0.2615  0.3331  0.4246
 9117SOL    HW239331   3.666  13.472   5.505 -0.5518  0.4845  0.2017
 9118SOL     OW39332  12.812   2.463   1.466  0.1947  0.0230 -0.3074
 9118SOL    HW139333  12.736   2.452   1.523 -0.3630  0.0899 -1.0238
 9118SOL    HW239334  12.838   2.373   1.442 -0.6383  0.0268 -1.3128
 9119SOL     OW39335   2.922  11.565  12.876  0.1952  0.6812 -0.3301
 9119SOL    HW139336   2.856  11.625  12.843  0.4380  0.8962 -0.4257
 9119SOL    HW239337   2.925  11.580  12.970 -2.0120 -1.4020  0.1800
 9120SOL     OW39338  12.169   1.900  10.600 -0.5977 -0.1533  0.3276
 9120SOL    HW139339  12.233   1.970  10.592 -0.8617  0.0762  0.1785
 9120SOL    HW239340  12.181   1.864  10.688  0.3251 -0.6943 -0.0043
 9121SOL     OW39341  13.036   6.038  12.473 -0.1808 -0.1576 -0.2041
 9121SOL    HW139342  13.055   6.131  12.461  1.0423 -0.2224  1.0014
 9121SOL    HW239343  13.007   6.008  12.387  0.6913  1.0446 -0.9460
 9122SOL     OW39344   5.710   1.587  13.550  0.0211 -0.1504  0.3591
 9122SOL    HW139345   5.619   1.592  13.522 -0.0353 -1.5680  0.2003
 9122SOL    HW239346   5.760   1.578  13.469  0.4976  2.2406  0.3153
 9123SOL     OW39347  12.277  12.895   0.921  0.2551  0.4074  0.4621
 9123SOL    HW139348  12.360  12.894   0.969 -0.3422  0.9800  1.5485
 9123SOL    HW239349  12.279  12.816   0.869  3.0617  2.0985 -2.3578
 9124SOL     OW39350   1.521   3.940   3.359  0.0663 -0.3843 -0.0487
 9124SOL    HW139351   1.591   3.909   3.301 -1.1997 -0.5657 -1.5510
 9124SOL    HW239352   1.555   4.022   3.396  0.5484  0.2847 -1.8633
 9125SOL     OW39353   7.690  11.687   1.685  0.6164  0.4103  0.7011
 9125SOL    HW139354   7.657  11.606   1.723  0.1392 -0.1155 -0.7549
 9125SOL    HW239355   7.669  11.754   1.749 -1.2678 -0.2536  0.8321
 9126SOL     OW39356   2.641  13.429  12.815  0.4394  0.4981 -0.3139
 9126SOL    HW139357   2.672  13.343  12.840 -0.8250  0.0122 -0.3159
 9126SOL    HW239358   2.596  13.416  12.731 -0.8035  0.8992  0.2566
 9127SOL     OW39359  10.372  10.863   9.335 -0.4416 -0.3210 -0.2485
 9127SOL    HW139360  10.397  10.851   9.244 -0.1939 -0.4535 -0.1637
 9127SOL    HW239361  10.419  10.795   9.382 -0.7924 -0.4369 -0.0574
 9128SOL     OW39362   0.106   3.138  13.519 -0.5528  0.1937  0.1100
 9128SOL    HW139363   0.115   3.112  13.611 -0.7294 -0.8317 -0.1481
 9128SOL    HW239364   0.017   3.171  13.512 -0.3098  0.9395  0.4568
 9129SOL     OW39365  13.229   5.789   7.753 -0.0439  0.0044  0.2947
 9129SOL    HW139366  13.155   5.814   7.698  1.4771 -0.4032 -2.0990
 9129SOL    HW239367  13.236   5.859   7.818 -1.9132  0.5276 -0.0180
 9130SOL     OW39368   8.989   0.343   8.846  0.0365  0.2968  0.5287
 9130SOL    HW139369   9.080   0.358   8.871 -0.4336 -1.1211  3.6886
 9130SOL    HW239370   8.993   0.312   8.756  2.7083  0.0340  0.6552
 9131SOL     OW39371  12.068   2.400   2.518 -0.2713  0.7045  0.3952
 9131SOL    HW139372  12.008   2.332   2.488  0.6511  0.2388 -0.4380
 9131SOL    HW239373  12.011   2.466   2.558 -1.3741  0.4363 -0.6638
 9132SOL     OW39374  13.370  11.048   8.131 -0.0294  0.1573  0.6523
 9132SOL    HW139375  13.333  11.119   8.184  0.1399  0.8556 -0.1565
 9132SOL    HW239376  13.460  11.075   8.113 -0.1294  0.0029 -0.1145
 9133SOL     OW39377  13.882   4.092   7.965  0.0873 -0.2083  0.2398
 9133SOL    HW139378  13.798   4.065   7.930  0.9089 -1.2314 -1.0205
 9133SOL    HW239379  13.890   4.045   8.048 -1.1778  1.0135  1.1024
 9134SOL     OW39380   1.278   7.275   5.256 -0.2046 -0.0138 -0.4952
 9134SOL    HW139381   1.257   7.332   5.330  0.1292 -0.0066 -0.4081
 9134SOL    HW239382   1.228   7.195   5.273 -1.7377  0.7272 -1.2928
 9135SOL     OW39383   1.654   6.606   9.618  0.4003  0.3525 -0.4094
 9135SOL    HW139384   1.590   6.664   9.576  1.9654  1.9079 -0.7744
 9135SOL    HW239385   1.700   6.663   9.681 -1.7634 -1.8011  3.5472
 9136SOL     OW39386   1.833   1.429   4.177 -0.1418 -0.1467 -0.0151
 9136SOL    HW139387   1.897   1.473   4.121  0.4895 -0.7875  0.1940
 9136SOL    HW239388   1.847   1.467   4.264 -2.2734  2.1215 -0.5330
 9137SOL     OW39389   2.792   6.445   4.428 -0.2223  0.4523 -0.5563
 9137SOL    HW139390   2.802   6.519   4.367  0.3255  0.5344 -0.3664
 9137SOL    HW239391   2.833   6.372   4.383 -0.4508  0.3419 -0.5885
 9138SOL     OW39392   4.119   3.196   2.195  0.3994  0.0581 -0.2606
 9138SOL    HW139393   4.187   3.257   2.168  0.4576  0.0797 -0.0657
 9138SOL    HW239394   4.039   3.249   2.196  0.8731  0.8949  2.6459
 9139SOL     OW39395   8.422   7.359  10.066 -0.5576 -0.4354 -0.5933
 9139SOL    HW139396   8.479   7.321   9.999  0.5510 -1.3062  0.8088
 9139SOL    HW239397   8.393   7.442  10.027  3.4590  1.2349 -0.5482
 9140SOL     OW39398   2.549  10.280   6.411  0.0753  0.4642 -0.2077
 9140SOL    HW139399   2.477  10.343   6.404 -0.0211  0.3954  0.1198
 9140SOL    HW239400   2.540  10.224   6.334 -0.4874  0.1862  0.0556
 9141SOL     OW39401   6.828   1.535   0.111 -0.1754 -0.2151 -0.3518
 9141SOL    HW139402   6.807   1.457   0.162 -0.4214  1.6722  2.7005
 9141SOL    HW239403   6.922   1.530   0.097  0.0703 -0.3869  1.1609
 9142SOL     OW39404  11.073   8.517   7.883 -0.1159 -0.3235  0.3162
 9142SOL    HW139405  11.114   8.571   7.951 -0.7196 -0.5807  0.8987
 9142SOL    HW239406  11.126   8.532   7.805  1.6587 -1.3347  1.2526
 9143SOL     OW39407   8.679   3.192  10.757 -0.0404  0.0741 -0.2624
 9143SOL    HW139408   8.655   3.228  10.672 -3.7080  0.9055  0.9625
 9143SOL    HW239409   8.606   3.214  10.814  2.3304 -0.2860  3.2103
 9144SOL     OW39410  11.851   6.427   1.446 -0.2462  0.2606 -0.2663
 9144SOL    HW139411  11.878   6.381   1.366  1.1044 -0.1496  0.3755
 9144SOL    HW239412  11.862   6.362   1.515 -0.4593  0.8883  0.3707
 9145SOL     OW39413  10.901   9.739  13.844  0.0009  0.2533  0.0179
 9145SOL    HW139414  10.872   9.789  13.920 -0.8352 -1.6329  0.9682
 9145SOL    HW239415  10.823   9.730  13.789  0.0302 -0.3887  0.0744
 9146SOL     OW39416  11.305   6.266   9.264  0.1123 -0.3149 -0.4606
 9146SOL    HW139417  11.372   6.334   9.263  0.5832 -0.7651 -0.2209
 9146SOL    HW239418  11.310   6.229   9.352 -0.4818 -0.3253 -0.4253
 9147SOL     OW39419   2.973  10.622   0.141  0.9037 -0.1343 -0.2780
 9147SOL    HW139420   2.992  10.538   0.184  2.1077  0.8367  1.1785
 9147SOL    HW239421   3.008  10.611   0.052 -0.5902 -1.7793 -0.7252
 9148SOL     OW39422   7.205   2.459   8.021 -0.3327  0.0805 -0.0786
 9148SOL    HW139423   7.258   2.382   8.005  0.3549  0.3609  0.7772
 9148SOL    HW239424   7.268   2.527   8.045 -0.7252  1.4355 -2.5154
 9149SOL     OW39425   3.337   1.178   9.567  0.6698  0.6441  0.0585
 9149SOL    HW139426   3.247   1.165   9.599  0.2219  3.3048  0.0961
 9149SOL    HW239427   3.344   1.118   9.493 -2.5722  2.9778 -2.4517
 9150SOL     OW39428   2.602   5.223  10.415 -0.2662 -0.0590  0.2267
 9150SOL    HW139429   2.534   5.183  10.361 -1.5376  1.7228  0.4250
 9150SOL    HW239430   2.663   5.152  10.434 -1.2762 -1.3560 -1.2174
 9151SOL     OW39431  13.128   0.271   7.080  0.0451  0.0715 -0.0985
 9151SOL    HW139432  13.215   0.234   7.063 -0.4062 -1.7059  1.2345
 9151SOL    HW239433  13.084   0.270   6.995  0.4374 -1.4953 -0.3041
 9152SOL     OW39434  11.767   9.896   9.055 -0.3960 -0.4729 -0.2750
 9152SOL    HW139435  11.843   9.842   9.035 -1.4062 -2.5187  1.0844
 9152SOL    HW239436  11.712   9.890   8.977  1.0629  1.6196 -1.5673
 9153SOL     OW39437   8.067  12.110  10.102 -0.1992  0.5148 -0.6001
 9153SOL    HW139438   7.973  12.096  10.104 -0.2025  0.2932  2.6147
 9153SOL    HW239439   8.077  12.205  10.098 -0.4578  0.5036 -2.6452
 9154SOL     OW39440  12.462  10.985   2.492  0.3724  0.8679  0.6545
 9154SOL    HW139441  12.526  10.917   2.511  0.9655  0.2717 -2.8111
 9154SOL    HW239442  12.378  10.940   2.494  0.7544 -0.0545 -1.5361
 9155SOL     OW39443   2.177  12.601   5.569 -0.2256  0.4696  0.0989
 9155SOL    HW139444   2.090  12.643   5.564 -0.8702 -0.8420 -0.0445
 9155SOL    HW239445   2.180  12.563   5.657  0.1036  0.2904  0.0108
 9156SOL     OW39446   4.452   4.848   4.100  0.1268 -0.6122 -0.1947
 9156SOL    HW139447   4.506   4.847   4.021 -1.5518  2.2055 -1.5146
 9156SOL    HW239448   4.377   4.792   4.078 -0.5917  0.5765 -0.8384
 9157SOL     OW39449   3.093   7.681   9.769 -0.0570 -0.2485  0.0875
 9157SOL    HW139450   3.129   7.736   9.699  0.1056  0.5209  0.7511
 9157SOL    HW239451   3.008   7.653   9.736  0.8663 -1.5655 -1.2337
 9158SOL     OW39452   6.466  12.362  13.697  0.0988  0.2470 -0.2334
 9158SOL    HW139453   6.550  12.376  13.740 -0.6236  0.3468  1.2303
 9158SOL    HW239454   6.487  12.313  13.618  1.3378 -1.5471  1.1328
 9159SOL     OW39455   9.657   1.748   0.024 -0.0173  0.6373 -0.1458
 9159SOL    HW139456   9.724   1.756  -0.044 -0.1370 -0.5829 -0.4170
 9159SOL    HW239457   9.596   1.820   0.006  1.4778  2.1410  0.4379
 9160SOL     OW39458   9.301   7.464  10.823  0.6123 -0.7550  0.7159
 9160SOL    HW139459   9.374   7.524  10.803  1.6342 -1.7335  1.3838
 9160SOL    HW239460   9.343   7.378  10.830 -0.3226 -1.0824  2.8590
 9161SOL     OW39461   0.892   0.385   1.524 -0.2728 -0.0813  0.9669
 9161SOL    HW139462   0.843   0.367   1.605  0.5996 -0.7929  1.3511
 9161SOL    HW239463   0.899   0.300   1.481  0.4961  0.0350  0.8509
 9162SOL     OW39464  11.385   2.808   2.126 -0.6565 -0.0835 -0.6548
 9162SOL    HW139465  11.416   2.720   2.148 -1.7932 -0.7301 -1.5391
 9162SOL    HW239466  11.463   2.863   2.133 -0.7920 -0.0450  5.1709
 9163SOL     OW39467   7.600  12.298   6.918  0.0889  0.1548  0.3360
 9163SOL    HW139468   7.630  12.339   6.999  2.6767 -1.2323  0.2155
 9163SOL    HW239469   7.528  12.241   6.944  1.3742 -0.8521  1.8554
 9164SOL     OW39470   1.852  13.536   5.780 -0.0984 -0.5357 -0.6733
 9164SOL    HW139471   1.776  13.587   5.809 -0.0298 -0.4532 -0.6396
 9164SOL    HW239472   1.927  13.593   5.798  0.1393 -1.3087  0.9391
 9165SOL     OW39473   9.987   1.513   3.358  0.0208 -0.0408 -0.0410
 9165SOL    HW139474   9.971   1.586   3.419 -1.4539 -0.6686  0.3561
 9165SOL    HW239475   9.961   1.435   3.407  0.6792 -0.7498 -0.8024
 9166SOL     OW39476   9.104   5.980   6.142  0.3027 -0.4300 -0.4452
 9166SOL    HW139477   9.155   5.924   6.200  0.3083 -0.3933 -0.4154
 9166SOL    HW239478   9.139   6.068   6.156 -0.9757 -0.0953  0.9314
 9167SOL     OW39479  10.399  12.389   1.644 -0.0083 -0.0923 -0.3605
 9167SOL    HW139480  10.464  12.342   1.695 -1.2264  0.2168  1.5924
 9167SOL    HW239481  10.367  12.457   1.703 -1.0877  0.6627 -1.7490
 9168SOL     OW39482   6.113   8.947   2.535  0.0261 -0.1966  0.1582
 9168SOL    HW139483   6.076   8.962   2.622 -1.5705 -1.3791 -0.2605
 9168SOL    HW239484   6.152   8.860   2.540  1.3499  0.3604  0.0992
 9169SOL     OW39485  12.538   1.868  11.218  0.2562 -0.7050 -0.3939
 9169SOL    HW139486  12.538   1.908  11.131  1.5540 -1.1316 -0.6212
 9169SOL    HW239487  12.627   1.883  11.251  0.1784 -1.6875  0.3081
 9170SOL     OW39488   3.543   3.485   0.354 -0.4712  0.4900 -0.0736
 9170SOL    HW139489   3.527   3.574   0.383  1.2137  0.3569  1.4323
 9170SOL    HW239490   3.611   3.452   0.413 -0.0471 -1.3185 -1.4692
 9171SOL     OW39491  10.169   8.585  12.360 -0.4370  0.3287 -0.3346
 9171SOL    HW139492  10.221   8.644  12.305  0.7447  0.5269  0.9268
 9171SOL    HW239493  10.086   8.632  12.375 -1.3277 -0.2849 -2.9218
 9172SOL     OW39494   0.167  13.848   4.774  0.0381 -0.3726 -0.0277
 9172SOL    HW139495   0.083  13.824   4.735 -0.0502 -0.2711  0.0966
 9172SOL    HW239496   0.231  13.838   4.703  0.0029 -0.9546  0.0184
 9173SOL     OW39497   8.704  11.729   9.017 -0.7713 -0.6770  0.2113
 9173SOL    HW139498   8.723  11.811   9.063 -1.4472 -0.0136 -0.6688
 9173SOL    HW239499   8.736  11.743   8.928 -2.3984 -0.7114 -0.4241
 9174SOL     OW39500  11.669   7.395   5.803  0.3129 -0.3788 -0.1407
 9174SOL    HW139501  11.659   7.478   5.850  0.6506 -0.5433  0.2245
 9174SOL    HW239502  11.656   7.328   5.870  1.4082 -0.6124 -0.1470
 9175SOL     OW39503  10.299  11.053   5.805  0.0779 -0.1196  0.0664
 9175SOL    HW139504  10.362  10.981   5.813  0.3062  0.1805  1.0791
 9175SOL    HW239505  10.348  11.123   5.761  0.4084  0.0479  0.6902
 9176SOL     OW39506   6.714   9.322   7.133  0.1266 -0.1506 -0.0004
 9176SOL    HW139507   6.756   9.264   7.069  1.4293 -1.5564  2.0231
 9176SOL    HW239508   6.752   9.409   7.115  0.1227 -0.4033 -1.3727
 9177SOL     OW39509   6.591   5.718   7.240  0.4636  0.4326 -0.2048
 9177SOL    HW139510   6.569   5.756   7.325 -0.1716 -0.1001 -0.1293
 9177SOL    HW239511   6.550   5.632   7.240  0.9708  0.1815 -0.8159
 9178SOL     OW39512   3.030   2.181  13.133 -0.1039  0.3507 -0.1874
 9178SOL    HW139513   2.962   2.198  13.068 -0.1270 -0.9510 -0.5341
 9178SOL    HW239514   3.110   2.171  13.082 -0.2775 -1.6125 -0.1508
 9179SOL     OW39515  12.503   9.973  10.110 -0.3552 -0.2958  0.5863
 9179SOL    HW139516  12.408   9.964  10.102 -0.1839 -0.9215 -1.1744
 9179SOL    HW239517  12.530   9.894  10.156 -0.7292  0.2204  1.7413
 9180SOL     OW39518   5.971  13.688   5.428 -0.3570 -0.4744  0.1428
 9180SOL    HW139519   6.008  13.777   5.433 -3.0699  0.7630 -0.0286
 9180SOL    HW239520   6.017  13.647   5.355  2.0214  0.2066  1.1700
 9181SOL     OW39521   2.917   6.522  13.031  0.3858  0.0002  0.5843
 9181SOL    HW139522   2.881   6.439  13.061  1.3495 -0.4808  0.4585
 9181SOL    HW239523   2.841   6.570  12.998 -0.0907 -1.1580 -0.0872
 9182SOL     OW39524   5.964   0.980   3.896 -0.0683  0.2649 -0.3566
 9182SOL    HW139525   6.020   0.958   3.971 -1.1228  0.1544  0.4296
 9182SOL    HW239526   5.977   1.074   3.884  1.1403  0.0452 -0.9285
 9183SOL     OW39527   2.241  13.509   4.875  0.5719  0.0860  0.4482
 9183SOL    HW139528   2.245  13.605   4.881  1.0307  0.0817  0.2322
 9183SOL    HW239529   2.285  13.488   4.793  1.5626 -0.3843  1.0879
 9184SOL     OW39530   2.056   8.757   9.432 -0.4020  0.2628  0.3167
 9184SOL    HW139531   2.019   8.715   9.510  0.9157 -0.3955  0.6058
 9184SOL    HW239532   2.118   8.693   9.397 -2.0006 -0.0740 -2.1474
 9185SOL     OW39533   5.542   1.918   7.165  0.0021 -0.4241  0.3160
 9185SOL    HW139534   5.556   1.996   7.112  1.6957 -1.8057 -1.4465
 9185SOL    HW239535   5.447   1.909   7.169 -0.2114  0.3101 -1.6980
 9186SOL     OW39536   0.364   3.010   4.838  0.8760 -0.7138 -0.6031
 9186SOL    HW139537   0.334   3.026   4.748  1.1076 -1.7315 -0.8671
 9186SOL    HW239538   0.293   2.961   4.878  0.3343  0.5741  0.0963
 9187SOL     OW39539  11.834   9.284  10.091  0.1829 -0.4716  0.1634
 9187SOL    HW139540  11.837   9.211  10.153  0.2968 -0.1291  0.5685
 9187SOL    HW239541  11.825   9.242  10.005 -2.9145 -0.8694  0.5969
 9188SOL     OW39542   1.550   2.885  11.715 -0.0779 -0.0095  0.1526
 9188SOL    HW139543   1.537   2.792  11.698 -0.4163 -0.0027  0.3575
 9188SOL    HW239544   1.644   2.900  11.702 -0.2872 -0.0235 -1.5506
 9189SOL     OW39545   7.675   7.730   1.583 -0.4629 -0.8354  0.1907
 9189SOL    HW139546   7.659   7.818   1.548  1.4354 -0.2236  0.7966
 9189SOL    HW239547   7.710   7.681   1.509 -1.2280 -1.0177 -0.0634
 9190SOL     OW39548  12.858   8.806   4.246 -0.0557  0.0610 -0.0713
 9190SOL    HW139549  12.771   8.843   4.232 -0.4205 -0.7067  0.1286
 9190SOL    HW239550  12.868   8.741   4.176  0.5653  0.4981 -0.3989
 9191SOL     OW39551  12.288   8.314   5.801 -0.0226 -0.4843  1.2267
 9191SOL    HW139552  12.356   8.376   5.825 -0.3230  0.5954 -0.4692
 9191SOL    HW239553  12.329   8.256   5.737 -0.6479  0.1877  0.1748
 9192SOL     OW39554   9.804   4.866   4.787 -0.2384 -0.4190 -0.2734
 9192SOL    HW139555   9.746   4.792   4.771  0.9964 -1.2660 -0.9774
 9192SOL    HW239556   9.747   4.933   4.825 -1.9316 -0.7887 -1.9935
 9193SOL     OW39557   1.643   3.814  12.201  0.2634  0.3706  0.0437
 9193SOL    HW139558   1.712   3.855  12.253  0.4031  0.2656 -0.0571
 9193SOL    HW239559   1.685   3.738  12.162  0.9146  1.8171 -2.2879
 9194SOL     OW39560   8.101   4.752   1.815 -0.4271 -0.2015 -0.0982
 9194SOL    HW139561   8.057   4.835   1.795  0.4701  0.4281  0.4694
 9194SOL    HW239562   8.092   4.700   1.734 -0.1476  0.8199 -0.8023
 9195SOL     OW39563  10.530   5.351   1.322 -0.3449 -0.2676 -0.0124
 9195SOL    HW139564  10.538   5.436   1.277  1.1133  0.6279  1.7783
 9195SOL    HW239565  10.605   5.300   1.289 -0.0304 -0.0873  0.4114
 9196SOL     OW39566   1.752   0.460   1.166 -0.8011 -0.4453  0.2015
 9196SOL    HW139567   1.671   0.428   1.127  0.8399 -0.2552 -3.7557
 9196SOL    HW239568   1.815   0.389   1.152  0.5170  0.6992  0.1486
 9197SOL     OW39569   2.056  10.804  12.961  0.2583 -0.2841  0.6467
 9197SOL    HW139570   1.982  10.847  12.918  0.4540 -0.6269 -0.0323
 9197SOL    HW239571   2.124  10.799  12.894  1.5177  1.5062  1.7116
 9198SOL     OW39572   7.907   8.913   7.470  0.1845 -0.2983  0.3932
 9198SOL    HW139573   7.888   8.841   7.409 -0.1946  2.4599 -3.0527
 9198SOL    HW239574   8.002   8.915   7.476  0.3240  0.3251 -1.4636
 9199SOL     OW39575   1.416   9.331   7.054 -0.2321 -0.4374 -0.5709
 9199SOL    HW139576   1.454   9.408   7.096  3.0644 -2.3308  0.3416
 9199SOL    HW239577   1.421   9.349   6.960 -1.1102  1.0705 -0.3558
 9200SOL     OW39578  13.820   8.399  11.949  0.0774  0.5450 -0.2006
 9200SOL    HW139579  13.832   8.309  11.920  0.9728  0.4964  0.3019
 9200SOL    HW239580  13.736   8.397  11.995  0.3834 -0.1726  0.3468
 9201SOL     OW39581  14.023   5.992  12.388  0.1976  0.2111  0.2696
 9201SOL    HW139582  13.942   6.032  12.357 -0.5878 -1.1170  0.5468
 9201SOL    HW239583  14.021   5.903  12.353 -0.3955 -1.1460  3.3722
 9202SOL     OW39584   5.343   0.104   9.036  0.3893 -0.5479 -0.1139
 9202SOL    HW139585   5.277   0.125   8.971 -0.2968 -1.4346  0.2733
 9202SOL    HW239586   5.377   0.189   9.064 -1.3036 -0.0101  0.4164
 9203SOL     OW39587  10.396   0.820   1.907 -0.0538 -0.1921  0.6383
 9203SOL    HW139588  10.413   0.855   1.820  0.0223 -2.3145 -0.2630
 9203SOL    HW239589  10.376   0.727   1.893 -0.9607 -0.4033  2.7954
 9204SOL     OW39590   8.842   9.753   8.396 -0.0490 -0.8201 -0.4475
 9204SOL    HW139591   8.834   9.720   8.485 -2.1309  1.1124  0.1724
 9204SOL    HW239592   8.800   9.686   8.342  0.2848 -1.5056  0.1138
 9205SOL     OW39593  12.378   8.702   5.111  0.4335 -0.1616  0.1395
 9205SOL    HW139594  12.289   8.735   5.119  0.6661  0.3778  0.5469
 9205SOL    HW239595  12.420   8.724   5.194  1.4659  1.1429 -0.6841
 9206SOL     OW39596   6.753   6.759  10.394  0.9018  0.0903 -0.2719
 9206SOL    HW139597   6.775   6.732  10.305  1.0419  1.6509 -0.7282
 9206SOL    HW239598   6.679   6.703  10.418  0.8333 -0.3126 -1.3788
 9207SOL     OW39599   2.500  10.506  10.164  0.6463  0.5363 -0.1465
 9207SOL    HW139600   2.565  10.488  10.231  0.0016  0.1875  0.4018
 9207SOL    HW239601   2.417  10.513  10.212  0.2763  0.9689 -0.8239
 9208SOL     OW39602   7.223  12.366   9.322  0.2088 -0.4204  0.1183
 9208SOL    HW139603   7.160  12.378   9.393  0.0375 -0.2028 -0.0723
 9208SOL    HW239604   7.172  12.335   9.248 -0.1296  2.1975 -0.8393
 9209SOL     OW39605   7.879   8.106   4.248 -0.2274 -0.4153  0.1871
 9209SOL    HW139606   7.952   8.134   4.193 -0.4790  1.7845  0.8650
 9209SOL    HW239607   7.903   8.134   4.337 -1.6799  0.0210  0.4818
 9210SOL     OW39608  11.282   3.639   1.586  0.2855  0.7593 -0.2641
 9210SOL    HW139609  11.229   3.706   1.542  0.8526  0.1719 -1.9161
 9210SOL    HW239610  11.361   3.631   1.532 -0.1442 -1.8561 -0.6175
 9211SOL     OW39611   4.960   0.127  12.300  0.8049  0.2535  0.3093
 9211SOL    HW139612   4.998   0.173  12.226 -1.9852  0.5119 -1.1176
 9211SOL    HW239613   4.998   0.040  12.298 -0.3685 -0.2941 -2.5292
 9212SOL     OW39614  13.041  10.580   3.441  0.3126  0.1222 -0.4531
 9212SOL    HW139615  12.955  10.619   3.423  0.6625  1.1633  0.0142
 9212SOL    HW239616  13.086  10.582   3.357 -0.1212 -0.4525 -0.7068
 9213SOL     OW39617   2.444   9.195   1.062 -0.0795  0.0309  0.8008
 9213SOL    HW139618   2.402   9.264   1.012 -0.4581 -1.1120 -0.5454
 9213SOL    HW239619   2.537   9.208   1.047  0.0669  1.9604  2.9585
 9214SOL     OW39620  13.032   5.344   0.908 -0.3652  0.0734 -0.0824
 9214SOL    HW139621  13.023   5.436   0.885 -0.1099 -0.1840 -1.2618
 9214SOL    HW239622  13.040   5.344   1.004  0.8154  1.3635 -0.1510
 9215SOL     OW39623   2.192   9.032   4.641 -0.2844  0.3373  0.1657
 9215SOL    HW139624   2.238   8.974   4.702  0.4730 -1.7810 -2.2378
 9215SOL    HW239625   2.246   9.110   4.637  1.8159 -1.0740 -0.6726
 9216SOL     OW39626   0.742   2.526   6.780  0.3363 -0.1284 -0.3560
 9216SOL    HW139627   0.783   2.508   6.695  3.2718 -1.0926  1.1087
 9216SOL    HW239628   0.754   2.445   6.830 -1.1050  0.4814  1.0688
 9217SOL     OW39629  11.051   1.161   1.482  0.3230 -0.5949  0.0288
 9217SOL    HW139630  11.029   1.233   1.541  1.4848  0.3034 -0.5820
 9217SOL    HW239631  11.118   1.111   1.529 -0.2592 -1.1122  0.3225
 9218SOL     OW39632  12.507  10.241   6.787 -0.0362  0.7032 -0.0319
 9218SOL    HW139633  12.517  10.256   6.693  1.3037  0.0746 -0.0234
 9218SOL    HW239634  12.545  10.154   6.801  0.0678  0.9252  1.1332
 9219SOL     OW39635   1.696  10.916   6.499 -0.4295  0.5663 -0.7201
 9219SOL    HW139636   1.644  10.984   6.456 -0.0478  0.6728 -1.0238
 9219SOL    HW239637   1.745  10.875   6.427 -0.0037  0.5535 -0.4271
 9220SOL     OW39638   0.561   2.339   0.791 -0.1000 -0.4702  0.1141
 9220SOL    HW139639   0.484   2.286   0.812  0.8253 -1.8893  0.0478
 9220SOL    HW239640   0.590   2.307   0.705 -0.1548  0.9342 -0.4698
 9221SOL     OW39641   0.620   1.198   8.899  0.6205 -0.2033  1.0063
 9221SOL    HW139642   0.682   1.197   8.826  2.3381 -1.5006  2.4141
 9221SOL    HW239643   0.631   1.285   8.938 -1.7725  1.3316 -1.3287
 9222SOL     OW39644   6.694   2.729   8.331  0.9137 -0.7891 -0.3377
 9222SOL    HW139645   6.752   2.767   8.265  3.2287 -1.4525  1.1782
 9222SOL    HW239646   6.684   2.797   8.397 -1.7490  0.0310 -1.4461
 9223SOL     OW39647  11.148  10.596  13.100 -0.0347 -0.0239 -0.5607
 9223SOL    HW139648  11.163  10.535  13.028 -2.4926 -0.2654 -0.9618
 9223SOL    HW239649  11.221  10.582  13.160  0.7439 -1.6084 -1.8125
 9224SOL     OW39650   2.050   3.119   1.189  0.2426  0.1170  0.0396
 9224SOL    HW139651   2.132   3.088   1.226  0.3547 -1.8356 -1.6604
 9224SOL    HW239652   1.983   3.065   1.232  0.2545 -1.1554 -1.4506
 9225SOL     OW39653   4.230   3.201   1.579  0.0503  0.1871 -0.1620
 9225SOL    HW139654   4.160   3.212   1.514 -0.2600 -0.9901 -0.0560
 9225SOL    HW239655   4.186   3.212   1.663  0.0296 -0.3148 -0.1030
 9226SOL     OW39656  11.298   9.450   4.359 -0.5256 -0.7567 -0.5770
 9226SOL    HW139657  11.393   9.456   4.356 -0.6007  0.4777 -1.9901
 9226SOL    HW239658  11.278   9.362   4.326  0.1102 -1.0242 -0.2644
 9227SOL     OW39659   7.701   6.936   2.541 -0.1413  0.1255  0.0504
 9227SOL    HW139660   7.722   6.857   2.492 -0.6354 -0.9803  1.5452
 9227SOL    HW239661   7.620   6.969   2.500 -1.7411 -1.9512  1.3346
 9228SOL     OW39662   7.488  13.445  11.043 -0.1555  0.3964  0.6199
 9228SOL    HW139663   7.446  13.404  11.119 -0.4370 -0.3667  0.0632
 9228SOL    HW239664   7.581  13.445  11.065 -0.0477 -1.3540  0.2804
 9229SOL     OW39665   8.955  10.516   9.596  0.1967  0.3771  0.2855
 9229SOL    HW139666   8.868  10.517   9.637  0.1323  0.4002  0.1484
 9229SOL    HW239667   8.969  10.424   9.572 -0.6946  0.6913 -1.6036
 9230SOL     OW39668  10.808   9.722   4.794 -0.1564  0.1112  0.3973
 9230SOL    HW139669  10.803   9.780   4.717 -1.0199  1.9790  1.7795
 9230SOL    HW239670  10.901   9.699   4.800 -0.0737 -0.1187 -1.2012
 9231SOL     OW39671  11.316   9.126   3.390  0.2179  0.6461 -0.0612
 9231SOL    HW139672  11.399   9.096   3.352  1.9014  2.0824  2.2544
 9231SOL    HW239673  11.255   9.053   3.375  2.1916 -0.9528 -0.7755
 9232SOL     OW39674   6.009  11.047  10.974  0.0507  0.0044 -0.0346
 9232SOL    HW139675   6.026  11.059  10.880  0.7280 -0.8831 -0.0359
 9232SOL    HW239676   6.092  11.067  11.016 -0.1214 -0.0550  0.3382
 9233SOL     OW39677   5.948   2.595   5.112  0.2342  0.1052 -0.9412
 9233SOL    HW139678   5.874   2.636   5.158  0.9434  1.0645 -0.6253
 9233SOL    HW239679   5.972   2.658   5.044  2.3486  1.0285  0.5429
 9234SOL     OW39680   2.823   4.023   0.393  0.2604  0.2535  0.4221
 9234SOL    HW139681   2.799   4.101   0.444  0.8451 -0.8718  2.5234
 9234SOL    HW239682   2.743   3.970   0.392  0.5876 -0.2715  1.2494
 9235SOL     OW39683   7.162  11.277   4.035  0.6445 -0.0982 -0.5223
 9235SOL    HW139684   7.197  11.350   3.984  0.6770 -0.8011 -1.5131
 9235SOL    HW239685   7.230  11.210   4.032 -0.0886 -0.8304 -1.0645
 9236SOL     OW39686  13.912   7.309   6.522  0.2792  0.2254 -0.1256
 9236SOL    HW139687  14.006   7.304   6.541  0.4168 -1.0791 -0.9998
 9236SOL    HW239688  13.907   7.294   6.427 -0.8014  0.5262 -0.1217
 9237SOL     OW39689   4.556   3.328  11.861 -0.0454 -0.1832  0.0332
 9237SOL    HW139690   4.576   3.297  11.949  0.1948  1.4984  0.6035
 9237SOL    HW239691   4.628   3.388  11.840  0.5882 -1.5086 -1.8475
 9238SOL     OW39692   4.335   1.665   2.415  0.1433 -0.7399  0.3024
 9238SOL    HW139693   4.340   1.663   2.319 -1.1928  0.0174  0.2003
 9238SOL    HW239694   4.328   1.757   2.437 -1.2669 -0.9957  1.0225
 9239SOL     OW39695   7.564   6.340   0.221 -0.0940  0.0461 -0.2546
 9239SOL    HW139696   7.504   6.405   0.186 -0.4338  0.6942  1.4559
 9239SOL    HW239697   7.651   6.379   0.209 -0.3317  1.1880  1.3901
 9240SOL     OW39698   4.319   4.575   8.044 -0.2107  0.0923  0.0417
 9240SOL    HW139699   4.338   4.667   8.059  1.5177 -0.0287 -1.0534
 9240SOL    HW239700   4.255   4.574   7.974 -0.1227  0.4697 -0.0439
 9241SOL     OW39701   6.152   5.254   5.199 -0.0485  0.7814 -0.4769
 9241SOL    HW139702   6.114   5.329   5.247 -0.1400  0.4189  0.0321
 9241SOL    HW239703   6.245   5.275   5.192  0.3192  0.0711  1.4193
 9242SOL     OW39704   3.284   8.735   6.097  0.2387 -0.3119  0.3094
 9242SOL    HW139705   3.246   8.786   6.168 -0.9500 -0.4504 -0.1932
 9242SOL    HW239706   3.257   8.781   6.017  0.6966 -0.7087 -0.0768
 9243SOL     OW39707   9.366  10.997   1.336 -0.1108 -0.2928 -0.1888
 9243SOL    HW139708   9.324  10.920   1.297 -0.4862  0.6111 -1.6675
 9243SOL    HW239709   9.418  11.034   1.265  1.2526  0.0064  0.9286
 9244SOL     OW39710  11.874  14.030   8.796  0.1231 -0.3636  0.2219
 9244SOL    HW139711  11.839  13.942   8.808 -5.2829  1.5838  1.9713
 9244SOL    HW239712  11.867  14.046   8.702 -2.3239 -0.7478  0.2803
 9245SOL     OW39713  12.535   9.815  13.974 -0.4186  0.1156  0.2454
 9245SOL    HW139714  12.583   9.747  13.927  0.6988  1.2917 -0.3757
 9245SOL    HW239715  12.443   9.798  13.954 -0.0019  0.3522 -2.1000
 9246SOL     OW39716   4.282   7.596   0.414 -0.5626 -0.5586  0.3271
 9246SOL    HW139717   4.210   7.596   0.477 -0.1029 -2.8746  0.9567
 9246SOL    HW239718   4.266   7.519   0.359 -0.2769  0.7112 -1.6070
 9247SOL     OW39719  12.514   8.592   5.508 -0.0192  0.1943  0.2729
 9247SOL    HW139720  12.600   8.594   5.467 -0.1334 -0.5052 -0.0388
 9247SOL    HW239721  12.531   8.579   5.601  0.2112 -0.6053  0.1290
 9248SOL     OW39722   5.118   2.701   2.945 -0.1005 -0.2546  0.2075
 9248SOL    HW139723   5.133   2.792   2.972 -2.1783  0.9776 -2.2545
 9248SOL    HW239724   5.028   2.683   2.971 -0.4232 -0.8083 -1.2105
 9249SOL     OW39725   9.703  13.354  11.928 -0.0898 -0.1144  0.1814
 9249SOL    HW139726   9.696  13.413  11.853  2.0962  2.6444  1.9445
 9249SOL    HW239727   9.625  13.371  11.980  0.9849  2.1605  1.1789
 9250SOL     OW39728   0.777  11.502  12.659 -0.3271 -0.3108 -0.1330
 9250SOL    HW139729   0.822  11.419  12.653 -0.7992 -0.7099  1.3085
 9250SOL    HW239730   0.822  11.549  12.730  1.4121  1.6629 -2.3807
 9251SOL     OW39731   9.926  13.921   6.204 -0.4009 -0.6648 -0.7839
 9251SOL    HW139732   9.943  13.827   6.195 -1.3673 -0.9466  0.1588
 9251SOL    HW239733   9.915  13.935   6.298  1.0918  0.6531 -0.7568
 9252SOL     OW39734   4.265   0.961  12.102 -0.0069  0.1052  0.2401
 9252SOL    HW139735   4.261   1.033  12.039  1.1917  0.3861  0.4563
 9252SOL    HW239736   4.173   0.937  12.117 -0.3285 -0.8880 -2.6200
 9253SOL     OW39737  11.744   0.032   6.371  0.2584 -0.6778  0.1217
 9253SOL    HW139738  11.811   0.060   6.308  0.5646 -0.7984  0.3950
 9253SOL    HW239739  11.792   0.016   6.452 -0.1488 -0.4481  0.4114
 9254SOL     OW39740   1.060   2.572   5.765  0.6409 -0.0130 -0.0601
 9254SOL    HW139741   1.098   2.633   5.828  0.6712 -1.5081  1.4337
 9254SOL    HW239742   0.999   2.519   5.816  0.3724 -1.0295 -1.3653
 9255SOL     OW39743   5.552  12.808   9.593 -0.0358  0.0246 -0.0272
 9255SOL    HW139744   5.598  12.745   9.538 -0.0594  0.5710 -0.6887
 9255SOL    HW239745   5.465  12.816   9.553  0.0573  0.6729 -0.1182
 9256SOL     OW39746   1.493   4.005   6.206  0.1938 -0.0436  0.4962
 9256SOL    HW139747   1.463   4.095   6.211  0.4056 -0.0013  1.0310
 9256SOL    HW239748   1.561   4.006   6.138 -1.3556 -0.2533 -1.1547
 9257SOL     OW39749  11.225   4.019   4.859  0.4251 -0.3060 -0.2232
 9257SOL    HW139750  11.131   4.001   4.864  0.5427 -1.1925 -1.0031
 9257SOL    HW239751  11.249   4.047   4.948 -1.0468  2.4769 -0.5838
 9258SOL     OW39752   0.543   1.557   5.400  0.2991 -0.8652  0.0289
 9258SOL    HW139753   0.502   1.634   5.361 -0.3668 -1.2312 -0.0159
 9258SOL    HW239754   0.632   1.557   5.366  0.7298  0.6146  1.0765
 9259SOL     OW39755   6.631   4.243  10.636  0.4123  0.2396 -0.3845
 9259SOL    HW139756   6.645   4.337  10.646 -0.1442  0.3932 -0.9786
 9259SOL    HW239757   6.708   4.213  10.588  1.4129  0.0854  1.2571
 9260SOL     OW39758  12.559   5.012   3.663  0.6254  0.1375  0.4718
 9260SOL    HW139759  12.614   5.082   3.628  0.9065 -0.7252 -0.8614
 9260SOL    HW239760  12.555   4.947   3.593 -1.6353 -0.0900  0.7363
 9261SOL     OW39761   8.171  13.034  12.376  0.2783  0.9646  0.3207
 9261SOL    HW139762   8.234  13.036  12.304  0.4627 -1.0016  0.3561
 9261SOL    HW239763   8.166  13.124  12.406  0.9917  1.6540 -1.4605
 9262SOL     OW39764  11.827   1.456   8.660 -0.1080  0.0756 -0.1924
 9262SOL    HW139765  11.735   1.479   8.668 -0.2095 -0.6389  0.9460
 9262SOL    HW239766  11.863   1.468   8.748  1.4288  2.4165 -1.0424
 9263SOL     OW39767   3.243   5.967  13.859  0.0272 -0.3958 -0.1275
 9263SOL    HW139768   3.184   5.904  13.819 -0.4481  0.8243 -1.4383
 9263SOL    HW239769   3.227   5.958  13.953 -0.3982 -1.8335 -0.3140
 9264SOL     OW39770   1.593  11.156  13.266  0.0149 -0.1547  0.0173
 9264SOL    HW139771   1.683  11.152  13.233 -0.3362 -0.3704 -0.9376
 9264SOL    HW239772   1.603  11.183  13.358  1.1553 -1.8445  0.4305
 9265SOL     OW39773   9.364  12.129  11.084  0.2148 -0.0547  0.7663
 9265SOL    HW139774   9.272  12.112  11.107 -0.1381 -1.1704 -1.2464
 9265SOL    HW239775   9.413  12.057  11.124 -0.0146 -0.4099  0.4118
 9266SOL     OW39776  12.518  11.737  13.874  0.6257 -0.1601  0.0449
 9266SOL    HW139777  12.503  11.655  13.828  3.1847 -0.6704 -0.0311
 9266SOL    HW239778  12.516  11.804  13.805 -1.1608 -0.1604  0.0668
 9267SOL     OW39779   2.469   5.781   6.211  0.9812 -0.0830 -0.4384
 9267SOL    HW139780   2.543   5.829   6.173  1.6963 -0.7589  0.0752
 9267SOL    HW239781   2.491   5.771   6.303  0.1679 -0.1629 -0.2408
 9268SOL     OW39782  11.754   9.660   8.042 -0.3207  0.2597 -0.0054
 9268SOL    HW139783  11.787   9.577   8.076 -1.4544 -0.3721 -0.3983
 9268SOL    HW239784  11.763   9.722   8.115 -1.3549 -0.7134  0.9902
 9269SOL     OW39785   4.429   2.479   9.180  0.3935  0.4364  0.5239
 9269SOL    HW139786   4.500   2.500   9.240  0.3464  2.8088 -0.1546
 9269SOL    HW239787   4.399   2.392   9.208  1.4428  0.7414  2.8470
 9270SOL     OW39788   7.192  10.002  10.108 -0.3366  0.5865  0.2398
 9270SOL    HW139789   7.097  10.005  10.094 -0.1719  0.6957 -0.9993
 9270SOL    HW239790   7.202   9.993  10.203 -1.6138 -0.8566  0.2846
 9271SOL     OW39791   3.950   9.838   0.972  0.2654 -0.0101 -0.1173
 9271SOL    HW139792   3.924   9.772   0.907  0.3322 -0.6603  0.4931
 9271SOL    HW239793   4.038   9.864   0.946  0.6665 -0.9593  0.2234
 9272SOL     OW39794   0.896  11.361  13.257  0.1249 -0.4966 -0.5185
 9272SOL    HW139795   0.906  11.450  13.221  0.0126  0.2206  1.1451
 9272SOL    HW239796   0.957  11.357  13.329 -1.6036 -0.8946  1.0008
 9273SOL     OW39797   4.179  11.492   1.681 -0.1101  0.1396 -0.5384
 9273SOL    HW139798   4.127  11.468   1.605 -2.0757  0.6332  0.5725
 9273SOL    HW239799   4.150  11.581   1.702  1.7594  0.7332 -0.3111
 9274SOL     OW39800   6.954  12.167  12.058  0.2797 -0.1917 -0.2413
 9274SOL    HW139801   7.034  12.152  12.107  0.5244  0.4699 -0.4293
 9274SOL    HW239802   6.963  12.112  11.980  0.3176 -0.5089 -0.0158
 9275SOL     OW39803   0.733   7.405   8.359  0.2275 -0.1009 -0.1705
 9275SOL    HW139804   0.813   7.425   8.407 -0.1784  0.1814  0.3977
 9275SOL    HW239805   0.752   7.323   8.313  0.7257 -0.2049  0.2205
 9276SOL     OW39806   7.803   0.607   4.358  0.1411  0.0203  0.0532
 9276SOL    HW139807   7.861   0.607   4.434  0.7209  1.7492 -0.3214
 9276SOL    HW239808   7.715   0.616   4.394  0.2880 -0.6063  0.5654
 9277SOL     OW39809  12.227   6.268   0.128 -0.0079 -0.3495 -0.2198
 9277SOL    HW139810  12.200   6.341   0.183  0.6149 -0.7150  0.5984
 9277SOL    HW239811  12.152   6.208   0.129 -0.5411  0.3022 -0.9446
 9278SOL     OW39812   9.530  12.026   9.694 -0.3869  0.2742  0.4754
 9278SOL    HW139813   9.455  11.977   9.727 -0.4536  0.1297  0.1197
 9278SOL    HW239814   9.512  12.116   9.718 -1.4911  0.4946 -1.0283
 9279SOL     OW39815  13.956   2.411   7.648 -0.1879  0.4466  0.4159
 9279SOL    HW139816  14.010   2.445   7.720 -0.9130  0.4524  0.9787
 9279SOL    HW239817  13.995   2.447   7.569  1.6706 -0.9224  0.6379
 9280SOL     OW39818   4.927   3.269   8.331  0.1113  0.0671 -0.7552
 9280SOL    HW139819   4.852   3.218   8.302  0.6762 -1.5023  0.4155
 9280SOL    HW239820   4.983   3.276   8.253 -1.4327  1.7396 -1.7972
 9281SOL     OW39821  13.328  11.764   1.866  0.4997  0.0404  0.1800
 9281SOL    HW139822  13.401  11.705   1.884  0.6024 -0.6496 -2.1081
 9281SOL    HW239823  13.343  11.793   1.776 -0.8565  1.6827  0.4328
 9282SOL     OW39824   3.050   8.760   3.228 -0.4217  0.1870 -0.3342
 9282SOL    HW139825   3.045   8.665   3.235  2.6979 -0.0588 -0.0810
 9282SOL    HW239826   3.040   8.791   3.319  3.2807 -0.3585  0.4103
 9283SOL     OW39827   2.565   8.243   2.190 -0.3472  0.8471 -0.2564
 9283SOL    HW139828   2.588   8.293   2.112  0.3187  0.1280 -0.5363
 9283SOL    HW239829   2.529   8.308   2.250 -0.8813  1.4179 -1.1560
 9284SOL     OW39830  10.737  12.567   0.348 -0.3276 -0.8090 -0.1004
 9284SOL    HW139831  10.705  12.509   0.417  0.2097 -1.0680 -0.0599
 9284SOL    HW239832  10.689  12.649   0.361  1.0948 -0.2045  1.7864
 9285SOL     OW39833   8.669  11.399   4.281 -0.4305 -0.0313  0.2746
 9285SOL    HW139834   8.702  11.409   4.191  0.2825 -0.0575  0.5296
 9285SOL    HW239835   8.719  11.326   4.317  0.7700  1.2989  1.3740
 9286SOL     OW39836  11.974  13.975  11.997  0.2314  0.1923  0.1163
 9286SOL    HW139837  11.931  13.904  11.951  0.6216 -0.5470  0.8654
 9286SOL    HW239838  11.990  13.941  12.085  0.1379  1.3127  0.5910
 9287SOL     OW39839   6.744   8.186   9.581  0.4001 -0.2478 -0.0329
 9287SOL    HW139840   6.835   8.214   9.585  0.2148  0.2791  0.8330
 9287SOL    HW239841   6.695   8.256   9.625 -0.2581 -1.1615  0.7444
 9288SOL     OW39842  10.981   0.006   2.312  0.5345  0.6223 -0.1672
 9288SOL    HW139843  10.960   0.029   2.222 -0.0737 -0.1129 -0.2154
 9288SOL    HW239844  11.061  -0.047   2.306  0.5036  0.5876 -0.2680
 9289SOL     OW39845   7.541  12.406   1.126  0.5513  0.1605 -0.0690
 9289SOL    HW139846   7.552  12.456   1.044  1.0139  0.5180  0.2058
 9289SOL    HW239847   7.611  12.438   1.183 -1.0903  1.5564  1.2857
 9290SOL     OW39848   1.120  13.228   8.981  0.0879  0.2630  0.2445
 9290SOL    HW139849   1.192  13.242   9.043  0.3219 -1.3796  0.3880
 9290SOL    HW239850   1.043  13.263   9.025  0.5776  0.8761  0.6343
 9291SOL     OW39851   5.771  12.413  13.790  0.6336 -0.2099  0.3569
 9291SOL    HW139852   5.800  12.351  13.857 -0.3061 -0.1296  0.8641
 9291SOL    HW239853   5.695  12.370  13.750 -1.0081  1.2350  1.7716
 9292SOL     OW39854  11.330  10.806  10.196 -0.2465 -0.5158  0.3197
 9292SOL    HW139855  11.386  10.759  10.257 -0.4536  0.0596  0.9685
 9292SOL    HW239856  11.389  10.868  10.153 -0.1143 -0.8739 -0.0208
 9293SOL     OW39857   8.072  13.050   7.909 -0.7633  0.3996  0.0254
 9293SOL    HW139858   8.108  13.031   7.822 -1.7158 -3.3547  0.2814
 9293SOL    HW239859   8.147  13.050   7.967 -0.4436 -0.4269 -0.3723
 9294SOL     OW39860   2.507   3.369   5.223 -0.1521 -0.2224 -0.6004
 9294SOL    HW139861   2.425   3.388   5.268 -0.2997 -2.2204  0.0680
 9294SOL    HW239862   2.574   3.379   5.290  0.5190  3.3991 -1.5881
 9295SOL     OW39863   5.249  10.300  12.162  0.4908 -0.0072 -0.3893
 9295SOL    HW139864   5.180  10.287  12.097 -0.0094 -3.5243  0.5986
 9295SOL    HW239865   5.318  10.348  12.116 -1.2201  0.6375 -2.4127
 9296SOL     OW39866   9.847   7.423  13.599 -0.0873 -0.2430 -0.1362
 9296SOL    HW139867   9.825   7.494  13.658  2.2047  1.6451 -1.4062
 9296SOL    HW239868   9.887   7.356  13.654  1.3307  1.1578  0.5786
 9297SOL     OW39869   1.544   1.296  13.765  0.8233 -0.0306 -0.1924
 9297SOL    HW139870   1.612   1.231  13.749  1.0882 -0.5680  2.5747
 9297SOL    HW239871   1.473   1.246  13.807 -0.9338  0.6878 -2.1260
 9298SOL     OW39872  12.248   1.827   3.165  0.1324  0.7118 -0.3828
 9298SOL    HW139873  12.252   1.749   3.110  3.7461 -0.5938  1.4470
 9298SOL    HW239874  12.280   1.898   3.109 -2.4290  0.8648 -1.8106
 9299SOL     OW39875   4.011   3.315   6.826  0.6552  0.4193 -0.1016
 9299SOL    HW139876   3.929   3.359   6.807  1.1038  0.7765 -1.3009
 9299SOL    HW239877   3.993   3.222   6.809  0.4998  0.4933 -0.3382
 9300SOL     OW39878  10.912   3.310  10.914  0.4981 -0.2752 -0.2070
 9300SOL    HW139879  10.832   3.359  10.934  0.5124 -0.5660  0.5969
 9300SOL    HW239880  10.979   3.348  10.970  0.3063 -1.7701  1.1008
 9301SOL     OW39881   3.762   3.193  10.754  0.0545  0.6867 -0.4241
 9301SOL    HW139882   3.788   3.180  10.845 -0.7885 -0.9642 -0.3891
 9301SOL    HW239883   3.782   3.286  10.736 -1.9564  1.7250  2.1428
 9302SOL     OW39884   5.691   7.204   7.486 -0.7582 -0.1714  1.1030
 9302SOL    HW139885   5.705   7.197   7.581 -0.0988 -3.9212  0.8509
 9302SOL    HW239886   5.768   7.165   7.447 -0.9349  1.4727 -1.0878
 9303SOL     OW39887  12.080   6.734   1.754  0.5083  0.0923  0.3675
 9303SOL    HW139888  11.992   6.698   1.769  1.4711 -2.4966  0.2748
 9303SOL    HW239889  12.136   6.658   1.745  2.7686  1.6764  0.1446
 9304SOL     OW39890   2.946   4.908   5.306 -0.4880  0.0413 -0.3681
 9304SOL    HW139891   2.958   4.849   5.231 -0.8234  0.8693 -1.0910
 9304SOL    HW239892   2.853   4.931   5.305 -0.3209  0.7486 -0.2261
 9305SOL     OW39893   8.972   8.583   6.895 -0.1139  0.6012 -0.5709
 9305SOL    HW139894   9.026   8.634   6.834  0.4518  0.8203  0.0977
 9305SOL    HW239895   9.034   8.522   6.937 -0.8871 -1.1104 -1.8178
 9306SOL     OW39896   6.178  11.769   3.738 -0.1106  0.3152 -0.4027
 9306SOL    HW139897   6.181  11.858   3.775  1.9377  1.2677 -2.6264
 9306SOL    HW239898   6.114  11.774   3.668  1.5376  0.6960 -1.9401
 9307SOL     OW39899   6.694  12.469   5.645 -0.0158 -0.1605 -0.9903
 9307SOL    HW139900   6.761  12.410   5.678  1.2509  1.3420 -0.7587
 9307SOL    HW239901   6.627  12.411   5.608  0.6298 -1.7530  0.2037
 9308SOL     OW39902  13.292   8.662   6.138  0.0939 -0.2139  0.1087
 9308SOL    HW139903  13.225   8.692   6.199  1.0676  0.4576  0.8630
 9308SOL    HW239904  13.359   8.621   6.193  1.6992  1.7089 -0.3171
 9309SOL     OW39905   4.804  11.294  12.790  0.9294  0.1691 -0.3904
 9309SOL    HW139906   4.815  11.248  12.707  0.0338  0.1359 -0.4988
 9309SOL    HW239907   4.744  11.365  12.771  0.6403  0.1090  0.2470
 9310SOL     OW39908   3.684   8.434   3.727 -0.3815  0.2284 -0.4224
 9310SOL    HW139909   3.630   8.511   3.747 -0.1653  0.5850 -1.1551
 9310SOL    HW239910   3.755   8.469   3.672  1.9810  0.2116  2.3839
 9311SOL     OW39911  12.310  12.233   8.281 -0.3578 -0.2675  0.7498
 9311SOL    HW139912  12.288  12.140   8.276  0.7919 -0.4980 -1.0146
 9311SOL    HW239913  12.403  12.234   8.301 -0.6789  0.5696  2.3606
 9312SOL     OW39914   9.034   1.198   5.163  0.2292 -0.3812 -0.1935
 9312SOL    HW139915   8.988   1.267   5.209 -1.1247 -1.3468 -0.0366
 9312SOL    HW239916   9.083   1.152   5.232  1.1386  0.4140 -0.3014
 9313SOL     OW39917   9.638   7.709   5.072  0.2396  0.6611 -0.5201
 9313SOL    HW139918   9.549   7.680   5.052  0.1887  0.4146  0.0563
 9313SOL    HW239919   9.654   7.781   5.010 -0.6364  1.2226 -0.1085
 9314SOL     OW39920   8.166   5.156   3.888 -0.6382  0.0820  0.2510
 9314SOL    HW139921   8.158   5.109   3.805 -1.9624 -0.4875  0.6691
 9314SOL    HW239922   8.107   5.110   3.948 -2.3535  2.4745  0.5818
 9315SOL     OW39923   9.584   4.656   8.549 -0.4494  0.2217  0.8139
 9315SOL    HW139924   9.553   4.635   8.462  0.9303 -0.6074  0.5020
 9315SOL    HW239925   9.582   4.752   8.553  0.3727  0.3157 -0.4877
 9316SOL     OW39926   5.315   5.536   2.322 -0.4724  0.7357 -0.5018
 9316SOL    HW139927   5.296   5.446   2.351 -0.6729  0.7617 -0.5536
 9316SOL    HW239928   5.260   5.591   2.377  0.2562  0.8838  0.0944
 9317SOL     OW39929   4.718   1.629  12.839  0.3589  0.2585 -0.2031
 9317SOL    HW139930   4.798   1.575  12.845 -0.6835 -1.3751 -0.3385
 9317SOL    HW239931   4.710   1.650  12.747  0.5188  0.2332 -0.2230
 9318SOL     OW39932  12.182  13.295   4.136 -0.5151 -0.7340  0.2860
 9318SOL    HW139933  12.230  13.213   4.143  0.1988 -0.4150 -0.5878
 9318SOL    HW239934  12.151  13.313   4.224 -1.7313 -2.5538  0.2843
 9319SOL     OW39935   1.293   2.540  10.929  0.3595  0.2478 -0.0345
 9319SOL    HW139936   1.368   2.485  10.954  0.2686  0.5126  0.8621
 9319SOL    HW239937   1.300   2.617  10.986 -0.6582  0.2230  0.1359
 9320SOL     OW39938   8.735   8.434   6.761 -0.8484  0.8866 -0.2477
 9320SOL    HW139939   8.816   8.448   6.811 -0.7934  1.1291 -0.4032
 9320SOL    HW239940   8.752   8.354   6.710 -1.7237 -0.6703  1.7820
 9321SOL     OW39941   3.585  12.129   5.280 -0.4755 -0.0006 -0.0425
 9321SOL    HW139942   3.678  12.106   5.279 -0.0959  1.3430  1.1157
 9321SOL    HW239943   3.546  12.068   5.342  0.1335  1.0459  1.4197
 9322SOL     OW39944   2.681   8.305   4.367 -0.0608 -0.3377  0.3030
 9322SOL    HW139945   2.638   8.248   4.431 -0.1261  0.8972  1.4012
 9322SOL    HW239946   2.642   8.391   4.381  0.4452  0.1177 -0.9212
 9323SOL     OW39947   8.840  12.150   5.528  0.5447  0.6023 -0.3367
 9323SOL    HW139948   8.750  12.163   5.499 -0.1130  1.3294  1.8424
 9323SOL    HW239949   8.851  12.055   5.529  0.0309  0.5252 -1.2696
 9324SOL     OW39950  12.892   0.135   7.249 -0.4620  0.0435  0.1359
 9324SOL    HW139951  12.861   0.204   7.191 -0.2431  0.6234  0.6939
 9324SOL    HW239952  12.973   0.170   7.288  0.4218 -1.0774 -0.6115
 9325SOL     OW39953   4.251   3.013  12.873  0.3824  0.1112 -0.1025
 9325SOL    HW139954   4.178   2.992  12.932  0.2109  1.7424  0.3115
 9325SOL    HW239955   4.325   2.964  12.909  0.0183  0.2243  0.8384
 9326SOL     OW39956   3.422  10.196  10.280 -0.1500  0.6806 -0.0873
 9326SOL    HW139957   3.366  10.122  10.303  1.2045 -0.7493 -1.2414
 9326SOL    HW239958   3.365  10.253  10.227 -0.7640 -0.3260 -0.5400
 9327SOL     OW39959  11.738   8.994   8.055  0.0562  0.3177 -0.1732
 9327SOL    HW139960  11.674   9.063   8.035 -0.1101  0.4865  0.9054
 9327SOL    HW239961  11.703   8.952   8.134 -0.7477 -2.1336 -1.7379
 9328SOL     OW39962   7.738   8.072   8.819  0.1009  0.2774 -0.2930
 9328SOL    HW139963   7.737   8.026   8.903  1.0338  1.0772  0.1690
 9328SOL    HW239964   7.647   8.066   8.788 -0.4279  0.6075  1.1165
 9329SOL     OW39965  10.662  13.551   0.879 -0.3923 -0.6044  0.3194
 9329SOL    HW139966  10.687  13.511   0.962 -0.4923 -0.5782  0.3622
 9329SOL    HW239967  10.732  13.614   0.861 -0.1348 -0.9328  0.1543
 9330SOL     OW39968   8.904  12.487   4.241  0.1768  0.8648 -0.4930
 9330SOL    HW139969   8.845  12.487   4.316  2.1222 -1.3369  1.1906
 9330SOL    HW239970   8.983  12.530   4.273  0.4813  1.2991 -1.7951
 9331SOL     OW39971  12.073   2.840   7.488  0.1972  0.2276  0.3700
 9331SOL    HW139972  11.981   2.827   7.513  0.5261  1.2343  2.3004
 9331SOL    HW239973  12.123   2.801   7.559  1.3274 -0.9858 -1.0183
 9332SOL     OW39974   8.763   1.920   1.781 -0.1055 -0.0153 -0.3611
 9332SOL    HW139975   8.704   1.851   1.751  1.8292 -1.4032 -1.2704
 9332SOL    HW239976   8.840   1.911   1.725  0.4628  2.5481 -0.0994
 9333SOL     OW39977   4.236   3.540   7.255 -0.5196  0.0033  0.4779
 9333SOL    HW139978   4.195   3.536   7.169  1.5274  0.0726 -0.5809
 9333SOL    HW239979   4.233   3.632   7.279 -1.0014 -0.0003  0.4318
 9334SOL     OW39980   5.542  13.386   2.011  0.0276  0.0514  0.0529
 9334SOL    HW139981   5.592  13.410   2.089  0.7994 -1.7218  0.1575
 9334SOL    HW239982   5.597  13.415   1.938  0.7799 -1.0397  0.1730
 9335SOL     OW39983   1.105   9.187   3.883  0.0344 -0.4213 -0.2640
 9335SOL    HW139984   1.060   9.173   3.799  0.5538 -0.9502 -0.4626
 9335SOL    HW239985   1.039   9.165   3.949 -0.4458  0.2059 -0.5259
 9336SOL     OW39986  13.189   7.517   4.826 -0.4214  0.0382  0.1151
 9336SOL    HW139987  13.122   7.585   4.837  0.1887  0.7499 -0.4388
 9336SOL    HW239988  13.226   7.534   4.740  0.7601 -0.0815  0.5813
 9337SOL     OW39989   7.727   8.007  10.230 -0.0839 -0.6061 -0.4987
 9337SOL    HW139990   7.667   7.936  10.208 -2.2167  0.3708  1.5829
 9337SOL    HW239991   7.799   7.965  10.275 -0.5772 -1.6024 -0.6175
 9338SOL     OW39992   8.680   1.683   8.506 -0.4399  0.1823 -0.1137
 9338SOL    HW139993   8.770   1.696   8.475 -0.2555  0.4384  0.5178
 9338SOL    HW239994   8.631   1.755   8.467  0.3447  2.1942  2.4008
 9339SOL     OW39995   4.819  13.665   6.122  0.3105 -0.1700 -0.2526
 9339SOL    HW139996   4.868  13.696   6.198  0.0090 -0.7907  0.2036
 9339SOL    HW239997   4.760  13.737   6.100 -1.2595 -0.8011  1.5562
 9340SOL     OW39998  13.201  11.906   3.082  0.2479 -0.0607  0.3371
 9340SOL    HW139999  13.274  11.894   3.143  1.4606  1.1782 -0.7931
 9340SOL    HW240000  13.164  11.819   3.072  1.1173 -0.6045  1.4853
 9341SOL     OW40001   1.392  13.488   8.950  0.3573  0.3720  0.2962
 9341SOL    HW140002   1.396  13.421   8.882  2.9795  0.5614  0.1605
 9341SOL    HW240003   1.396  13.440   9.032 -2.1013  0.1869  0.3741
 9342SOL     OW40004   8.368   0.011  11.428 -0.0417  0.3120  0.1855
 9342SOL    HW140005   8.329   0.092  11.397  0.7353 -0.0546 -1.9322
 9342SOL    HW240006   8.458   0.034  11.451  0.4235 -0.0655 -1.1794
 9343SOL     OW40007   2.547  12.598   6.778 -0.4276  0.0618  0.0418
 9343SOL    HW140008   2.529  12.511   6.814  1.1107 -0.3025 -0.0067
 9343SOL    HW240009   2.643  12.604   6.776 -0.5000  1.8350  0.2217
 9344SOL     OW40010   3.613  13.988   0.645 -0.3578 -0.6383 -0.4119
 9344SOL    HW140011   3.535  14.032   0.678  1.4694  3.2143 -0.6304
 9344SOL    HW240012   3.614  14.007   0.552  1.0338 -0.1749 -0.3319
 9345SOL     OW40013   7.514   8.080  13.846  0.5717  0.5385 -0.2470
 9345SOL    HW140014   7.444   8.140  13.871  2.5017  1.7719  2.8391
 9345SOL    HW240015   7.487   7.995  13.881 -0.7305  0.2196 -1.8827
 9346SOL     OW40016  12.357   2.534  13.691  0.6630 -0.4811 -0.0766
 9346SOL    HW140017  12.453   2.537  13.690  0.6424  0.7527 -0.2611
 9346SOL    HW240018  12.331   2.604  13.630 -0.3516 -1.2607 -0.5586
 9347SOL     OW40019   1.352  12.864   4.372  1.7454 -0.4326  0.5884
 9347SOL    HW140020   1.359  12.914   4.290  1.4925 -0.1770  0.7196
 9347SOL    HW240021   1.361  12.773   4.345 -0.2837 -0.5029  0.0018
 9348SOL     OW40022  11.788  10.920   2.448 -0.0880  0.1979  0.3839
 9348SOL    HW140023  11.836  10.917   2.531  0.4032  0.9493  0.1339
 9348SOL    HW240024  11.823  10.847   2.398  0.9725  0.8585  0.1225
 9349SOL     OW40025   0.716   3.966   5.725  0.5837  0.2253 -0.3386
 9349SOL    HW140026   0.683   3.878   5.740  1.1516 -0.0370 -0.5993
 9349SOL    HW240027   0.703   3.981   5.631  0.6188  0.3654 -0.3221
 9350SOL     OW40028  11.903   4.975   7.097  0.3840 -0.2207  0.1146
 9350SOL    HW140029  11.910   5.058   7.049  0.4608  0.2333  0.9071
 9350SOL    HW240030  11.892   4.910   7.028  1.0943  0.3518 -0.5674
 9351SOL     OW40031  12.433  13.764   4.655 -0.4111 -0.3711 -0.2211
 9351SOL    HW140032  12.492  13.690   4.672 -1.1545 -1.0918 -0.6815
 9351SOL    HW240033  12.384  13.774   4.736  1.1149  1.0002  0.5947
 9352SOL     OW40034  13.551   1.947   3.267 -0.4182 -0.3205  0.0018
 9352SOL    HW140035  13.563   1.852   3.261  0.7764 -0.1531 -0.5682
 9352SOL    HW240036  13.545   1.976   3.176 -0.0889  0.2209  0.1471
 9353SOL     OW40037  10.777   4.056   5.165  0.2741  0.0325  0.1052
 9353SOL    HW140038  10.823   4.087   5.087 -0.8295  1.2811 -0.0816
 9353SOL    HW240039  10.780   3.961   5.159  1.1825  0.1034 -0.8599
 9354SOL     OW40040   2.816  11.545   5.786  0.7215 -0.2841 -0.3088
 9354SOL    HW140041   2.821  11.641   5.794  0.3192 -0.3902  1.6978
 9354SOL    HW240042   2.759  11.530   5.711 -1.4116  1.0933  0.9268
 9355SOL     OW40043   1.624   2.351   4.041 -0.4420  0.0913 -0.6108
 9355SOL    HW140044   1.676   2.360   3.960  1.5202  1.8175  0.7327
 9355SOL    HW240045   1.685   2.373   4.111 -2.8866  1.9000  1.1339
 9356SOL     OW40046   7.450   4.465   1.660 -0.2044 -0.3265  0.6848
 9356SOL    HW140047   7.434   4.376   1.628 -0.1480 -0.1485  0.1525
 9356SOL    HW240048   7.372   4.514   1.635  0.4577  0.1634 -0.5158
 9357SOL     OW40049   1.859   4.633  10.038 -0.3957  0.6676  0.3200
 9357SOL    HW140050   1.877   4.554  10.090 -2.0255  0.1617  0.1539
 9357SOL    HW240051   1.881   4.608   9.948 -1.0342  0.3410  0.2479
 9358SOL     OW40052   6.330   5.777   6.240  0.5528  0.3818  0.6768
 9358SOL    HW140053   6.260   5.836   6.214  0.3028  0.2428  1.0347
 9358SOL    HW240054   6.373   5.820   6.314  1.6782  1.0853 -0.3589
 9359SOL     OW40055  13.167   3.846   8.170  0.0640 -0.6189 -0.4192
 9359SOL    HW140056  13.187   3.895   8.091 -0.3413  1.7138  0.8248
 9359SOL    HW240057  13.141   3.759   8.139  0.6150 -0.0113 -2.7538
 9360SOL     OW40058   5.633   0.748   0.400 -0.0665 -0.0989  0.6567
 9360SOL    HW140059   5.608   0.837   0.427 -1.3135  0.3049 -1.6217
 9360SOL    HW240060   5.659   0.758   0.309  0.2379 -2.0285  0.5103
 9361SOL     OW40061   5.998   2.186   1.125 -0.1055 -0.2846 -0.6053
 9361SOL    HW140062   5.942   2.262   1.135 -0.3738 -0.3154 -1.7793
 9361SOL    HW240063   6.087   2.222   1.118 -0.2854 -0.0324 -1.7004
 9362SOL     OW40064   5.371  11.363  12.782 -0.7290  0.1469  0.4611
 9362SOL    HW140065   5.373  11.422  12.858 -0.7748 -0.0667  0.6298
 9362SOL    HW240066   5.460  11.366  12.747 -0.5577 -0.1962  0.8662
 9363SOL     OW40067   6.408  11.465   3.733 -0.3077 -0.2062 -0.4448
 9363SOL    HW140068   6.389  11.440   3.823 -2.6661 -0.4642 -0.9394
 9363SOL    HW240069   6.421  11.560   3.736  0.6274 -0.3522  0.2913
 9364SOL     OW40070   3.308   3.876   3.231 -0.5467 -0.1058  0.4544
 9364SOL    HW140071   3.376   3.838   3.288 -0.1613  1.7920  1.3435
 9364SOL    HW240072   3.234   3.893   3.289 -0.9368 -0.0766 -0.0443
 9365SOL     OW40073   9.846  12.190   5.010  0.1687  0.2511 -0.3338
 9365SOL    HW140074   9.931  12.230   5.032 -0.0252  0.0558  0.8240
 9365SOL    HW240075   9.869  12.110   4.962  0.6512  0.1520  0.0484
 9366SOL     OW40076   0.687   4.696   3.453 -0.6127 -0.0773 -0.6185
 9366SOL    HW140077   0.637   4.708   3.534 -0.1224 -1.0483 -0.1619
 9366SOL    HW240078   0.773   4.733   3.472  0.1076 -1.9336 -0.0351
 9367SOL     OW40079   7.044   4.474   1.357  0.8813 -0.0234  0.1915
 9367SOL    HW140080   6.958   4.490   1.318  0.5358 -0.7474  0.6351
 9367SOL    HW240081   7.068   4.386   1.327  2.0814  0.6657 -1.0117
 9368SOL     OW40082   5.041  10.283   6.073 -0.4364  0.4324 -0.0929
 9368SOL    HW140083   5.009  10.292   5.983  1.0327  1.2256 -0.5768
 9368SOL    HW240084   5.047  10.372   6.106 -0.2887  0.1936  0.5466
 9369SOL     OW40085   9.403   9.069   9.295 -0.1322 -0.1382 -0.0003
 9369SOL    HW140086   9.323   9.105   9.335  0.3530 -0.4828  1.3178
 9369SOL    HW240087   9.370   9.013   9.224 -0.9188  2.6230 -1.9704
 9370SOL     OW40088   6.172   5.255   8.191  0.3635 -0.1392  0.3956
 9370SOL    HW140089   6.132   5.292   8.270  1.0442  0.3727  0.5069
 9370SOL    HW240090   6.254   5.304   8.180  0.3832 -0.3618 -0.5021
 9371SOL     OW40091   9.353   8.018  11.069  0.1294 -0.3776 -0.5401
 9371SOL    HW140092   9.366   7.938  11.018 -0.7644  1.1303 -3.3883
 9371SOL    HW240093   9.414   8.081  11.031  1.0577  0.2743  1.8517
 9372SOL     OW40094   9.643  12.036   6.530  0.1979 -0.0044 -0.1851
 9372SOL    HW140095   9.636  12.107   6.467 -0.2356  0.5625  0.4818
 9372SOL    HW240096   9.558  12.033   6.573 -0.3680 -2.0247 -1.3099
 9373SOL     OW40097   7.766   5.920   9.744 -0.1514 -0.7619 -0.1242
 9373SOL    HW140098   7.807   6.006   9.732  0.1797 -1.1987 -2.3829
 9373SOL    HW240099   7.818   5.879   9.814 -0.6949  1.0514  1.4559
 9374SOL     OW40100  12.892   1.767  11.620  0.0492  0.3683 -0.2900
 9374SOL    HW140101  12.910   1.720  11.538  0.9178  1.4644 -0.7465
 9374SOL    HW240102  12.815   1.723  11.656 -0.0231 -0.4780 -1.4254
 9375SOL     OW40103   2.674   5.511   2.898 -0.1279 -0.0082  0.2872
 9375SOL    HW140104   2.641   5.489   2.811  1.0882  1.5271 -0.6105
 9375SOL    HW240105   2.656   5.604   2.908  0.8420  0.1037  1.1790
 9376SOL     OW40106  11.136  13.666   3.788 -0.3476  0.0848  0.2164
 9376SOL    HW140107  11.097  13.697   3.706  1.4064 -0.1611 -0.7586
 9376SOL    HW240108  11.061  13.636   3.840 -1.6110  1.2845 -0.8216
 9377SOL     OW40109   8.688   7.884  12.215 -0.3791 -0.1032  0.0413
 9377SOL    HW140110   8.731   7.933  12.284  0.6272  0.7127 -1.1342
 9377SOL    HW240111   8.606   7.931  12.199  0.4875  1.1082 -0.9400
 9378SOL     OW40112   4.812   6.185   6.285  0.1394 -0.2164  0.3352
 9378SOL    HW140113   4.742   6.141   6.334  0.9617  0.5014  2.2383
 9378SOL    HW240114   4.889   6.128   6.298  0.0213 -0.8535 -1.5027
 9379SOL     OW40115   1.202   4.825   3.683 -0.2638  0.1247 -0.6622
 9379SOL    HW140116   1.156   4.797   3.605 -1.5082  1.5594 -0.4923
 9379SOL    HW240117   1.147   4.895   3.720  0.3029 -0.4613  1.4564
 9380SOL     OW40118   3.092   6.476   7.455 -0.3954  0.3264 -0.1213
 9380SOL    HW140119   3.081   6.565   7.423 -1.2763  0.2584 -0.0439
 9380SOL    HW240120   3.020   6.463   7.517 -0.4121 -0.5082 -0.2946
 9381SOL     OW40121  13.315  13.533   1.382  0.1335 -0.5465  0.0892
 9381SOL    HW140122  13.392  13.484   1.412  0.8550  0.6037  0.1810
 9381SOL    HW240123  13.311  13.609   1.439 -0.5007 -0.0863 -0.5502
 9382SOL     OW40124  11.517   8.071   7.732 -0.0638 -0.2916 -0.3175
 9382SOL    HW140125  11.584   8.090   7.797 -0.4715 -0.0011  0.0171
 9382SOL    HW240126  11.530   7.978   7.711 -0.0412 -0.4307  0.2981
 9383SOL     OW40127  11.414  13.072  13.324 -0.0835 -0.6643  0.3410
 9383SOL    HW140128  11.434  13.084  13.417  1.5202  0.5089 -0.1253
 9383SOL    HW240129  11.389  13.159  13.293  0.5894 -0.7874 -0.5874
 9384SOL     OW40130  12.497   2.229   0.127  0.0691  0.2632  0.3672
 9384SOL    HW140131  12.464   2.157   0.181  1.8707 -0.3684  0.7249
 9384SOL    HW240132  12.516   2.188   0.043  1.2986  0.2367  0.6354
 9385SOL     OW40133   2.994   1.191   2.857  0.3619 -0.5830 -0.1617
 9385SOL    HW140134   3.043   1.270   2.836 -0.5863  0.3605  1.0273
 9385SOL    HW240135   2.911   1.200   2.810  0.1699 -0.7585  0.1348
 9386SOL     OW40136   0.904   0.335   8.794 -0.6578  0.1909  0.3449
 9386SOL    HW140137   0.870   0.353   8.706 -0.7955 -0.2393  0.3044
 9386SOL    HW240138   0.997   0.358   8.788 -0.9654  1.5328  0.5093
 9387SOL     OW40139   0.369   6.731   3.958 -0.3725  0.1661  0.1181
 9387SOL    HW140140   0.456   6.752   3.923 -0.6235 -1.7069 -1.8579
 9387SOL    HW240141   0.320   6.813   3.950  0.7156  0.8035 -0.3940
 9388SOL     OW40142   6.461   6.284  11.300 -0.1226  0.3647 -0.2626
 9388SOL    HW140143   6.489   6.220  11.366 -0.1183  0.9116  0.2725
 9388SOL    HW240144   6.543   6.326  11.271  0.0379 -0.8383 -1.6465
 9389SOL     OW40145   6.310   6.458   8.556 -0.2873 -0.1850 -0.0193
 9389SOL    HW140146   6.364   6.429   8.629 -1.5430  1.3647  1.5985
 9389SOL    HW240147   6.360   6.531   8.518  0.5687 -1.2642 -1.0224
 9390SOL     OW40148  12.796   7.849   5.653  0.3110  0.2594 -0.0452
 9390SOL    HW140149  12.753   7.867   5.737  1.5423  2.2273  0.2332
 9390SOL    HW240150  12.878   7.807   5.678 -0.2186 -1.0186 -0.4104
 9391SOL     OW40151  12.820   2.892   0.021  0.1645 -0.4156  0.1555
 9391SOL    HW140152  12.873   2.814   0.002  0.2673 -0.6001  1.1390
 9391SOL    HW240153  12.730   2.861   0.018  0.1075 -0.1698 -1.2149
 9392SOL     OW40154   6.629   3.739  10.635 -0.2278 -0.1046  0.6099
 9392SOL    HW140155   6.587   3.668  10.684  3.3885 -3.1259 -0.2401
 9392SOL    HW240156   6.584   3.740  10.550 -1.8242  0.3212  1.4080
 9393SOL     OW40157   2.912  10.839  11.756  0.3887  0.3696 -0.2825
 9393SOL    HW140158   2.932  10.762  11.809 -2.0083 -0.3642 -0.3124
 9393SOL    HW240159   2.949  10.820  11.670 -0.9008 -1.1850 -0.5333
 9394SOL     OW40160   1.862   0.236   2.179 -0.3789 -0.1542  0.7701
 9394SOL    HW140161   1.801   0.162   2.181 -0.8241  0.2137  1.2728
 9394SOL    HW240162   1.916   0.221   2.101  0.0026 -1.3627  1.2543
 9395SOL     OW40163  10.628   1.972   9.973  0.4297  0.1643  0.0419
 9395SOL    HW140164  10.681   2.042  10.010  0.3778 -0.4640  1.3767
 9395SOL    HW240165  10.665   1.891  10.009 -0.8092 -0.3561  0.2242
 9396SOL     OW40166   7.139   5.386   6.545  0.2143  0.3768 -0.2444
 9396SOL    HW140167   7.214   5.414   6.597 -0.0716  0.1766  0.2862
 9396SOL    HW240168   7.077   5.352   6.609  0.4910 -1.3451 -0.8352
 9397SOL     OW40169  13.661   9.570  10.572  0.1668 -0.1631 -0.5127
 9397SOL    HW140170  13.639   9.648  10.521 -0.7211 -0.4249 -0.5492
 9397SOL    HW240171  13.733   9.598  10.629 -2.6964  1.9656  2.4869
 9398SOL     OW40172   7.331   7.762   9.324 -0.4528  0.5557  0.2062
 9398SOL    HW140173   7.355   7.854   9.326 -0.9214  0.7141 -0.6785
 9398SOL    HW240174   7.314   7.739   9.415  1.0436  0.9536  0.6208
 9399SOL     OW40175  11.042   6.675   9.428 -0.5477  0.3832  0.8246
 9399SOL    HW140176  11.135   6.656   9.436 -0.1388  1.7639 -0.3085
 9399SOL    HW240177  11.003   6.594   9.396  0.4057  0.0701  0.4337
 9400SOL     OW40178   9.513   2.836   7.213 -0.6079 -0.0153 -0.9008
 9400SOL    HW140179   9.595   2.850   7.260  0.5985 -1.7877 -2.3508
 9400SOL    HW240180   9.446   2.832   7.281  0.6069  0.6527  0.3797
 9401SOL     OW40181   9.541  11.352  12.554  0.0151  0.0829  0.0764
 9401SOL    HW140182   9.480  11.376  12.624 -0.4764  0.3719 -0.4514
 9401SOL    HW240183   9.489  11.302  12.492  0.4567 -0.1866 -0.0842
 9402SOL     OW40184   4.674   9.094  10.200 -0.2315 -0.2627 -0.4516
 9402SOL    HW140185   4.585   9.119  10.177  0.3591  0.3658 -2.1723
 9402SOL    HW240186   4.673   8.998  10.196 -0.4880 -0.2265 -1.9356
 9403SOL     OW40187  13.870  11.874  12.713 -0.4861 -0.8689  0.1074
 9403SOL    HW140188  13.876  11.943  12.648  2.1907 -0.8761  0.2648
 9403SOL    HW240189  13.870  11.919  12.797  1.9048 -1.0085  0.2328
 9404SOL     OW40190  12.329   4.009  10.382  0.3033 -0.4607  0.1393
 9404SOL    HW140191  12.369   3.930  10.346  3.3874  1.5818 -1.3345
 9404SOL    HW240192  12.369   4.019  10.469 -0.4086 -0.6846  0.5061
 9405SOL     OW40193   9.729   5.945   2.784  0.2719  0.1731 -0.0475
 9405SOL    HW140194   9.731   6.030   2.828  0.2303  0.7047 -1.0415
 9405SOL    HW240195   9.820   5.916   2.787 -0.0260 -0.7460  2.1105
 9406SOL     OW40196  12.639   8.026   7.914 -0.1222  0.1048  0.4408
 9406SOL    HW140197  12.645   8.120   7.927 -0.4635 -0.0431  1.7966
 9406SOL    HW240198  12.690   8.009   7.834 -1.4524  1.6278 -0.7859
 9407SOL     OW40199   8.825   4.318   8.872  0.3821  0.2310  0.0306
 9407SOL    HW140200   8.760   4.313   8.802  0.1145  0.6122  0.2496
 9407SOL    HW240201   8.847   4.226   8.890 -0.6909  0.0543  0.5074
 9408SOL     OW40202  10.541   9.446  10.856 -0.0219 -0.1061  0.0195
 9408SOL    HW140203  10.578   9.456  10.769 -0.8811  1.6851 -0.1892
 9408SOL    HW240204  10.551   9.533  10.897 -0.6424 -0.5977  1.2830
 9409SOL     OW40205  12.158   4.022   9.825  0.3779 -0.7688 -0.4607
 9409SOL    HW140206  12.073   4.019   9.870 -1.4006  0.3492 -3.4265
 9409SOL    HW240207  12.180   3.930   9.809  0.0166 -1.0950  0.8441
 9410SOL     OW40208   6.411  13.169   7.272 -0.1313  0.0206  0.4823
 9410SOL    HW140209   6.404  13.130   7.359 -1.8785  1.2692  0.9565
 9410SOL    HW240210   6.324  13.208   7.256  0.6463  1.2100 -1.1326
 9411SOL     OW40211  11.096  11.172   9.957 -0.1425 -0.2099 -0.3964
 9411SOL    HW140212  11.161  11.157   9.888 -0.0928 -0.3129 -0.3280
 9411SOL    HW240213  11.109  11.264   9.983  0.7619 -0.5397  0.4103
 9412SOL     OW40214   9.279   4.789  12.024  0.4933 -0.3600  0.4029
 9412SOL    HW140215   9.215   4.792  12.096  0.8031 -0.1580  0.6718
 9412SOL    HW240216   9.356   4.746  12.061  1.2530  1.1676  0.6905
 9413SOL     OW40217  13.732   8.136  13.014 -0.2798 -0.1983  0.3132
 9413SOL    HW140218  13.719   8.042  13.000  0.2955 -0.0643 -1.3588
 9413SOL    HW240219  13.645   8.175  13.003 -0.1217 -0.2932 -1.5030
 9414SOL     OW40220   4.020   5.444   6.293 -0.6371 -0.0554 -0.0730
 9414SOL    HW140221   4.007   5.349   6.282  0.4453 -0.0981 -1.2552
 9414SOL    HW240222   3.948   5.471   6.350 -0.5340 -1.7146  0.9267
 9415SOL     OW40223  12.012   0.128  10.799  0.0261 -0.1290  0.4555
 9415SOL    HW140224  12.026   0.207  10.748 -1.4256  0.5507  1.0721
 9415SOL    HW240225  12.063   0.141  10.879  1.6297 -0.8404 -0.3973
 9416SOL     OW40226   6.197   0.787   4.861 -0.3774 -0.0287  0.1116
 9416SOL    HW140227   6.250   0.866   4.852  0.9204 -0.9477 -0.6456
 9416SOL    HW240228   6.178   0.760   4.772 -1.2401 -0.2977  0.3670
 9417SOL     OW40229   3.336   6.663   7.319 -0.0027 -0.4152  0.0015
 9417SOL    HW140230   3.408   6.643   7.259  2.1128 -0.1486  2.3021
 9417SOL    HW240231   3.301   6.578   7.345  1.0249 -0.6635  0.6103
 9418SOL     OW40232   0.793   2.367   4.004 -0.0826  0.4707  0.7587
 9418SOL    HW140233   0.810   2.302   3.936  0.4985  2.9311 -1.5937
 9418SOL    HW240234   0.872   2.367   4.058 -0.0402 -0.6128  0.7177
 9419SOL     OW40235   0.101   6.431   9.191  0.0338 -0.2089  0.5185
 9419SOL    HW140236   0.023   6.483   9.209  0.0940  0.2759 -0.5437
 9419SOL    HW240237   0.073   6.340   9.204 -1.0039 -0.1051 -0.8680
 9420SOL     OW40238   9.918   0.891   2.136  0.4992 -0.0256 -0.0990
 9420SOL    HW140239   9.865   0.971   2.139  0.3570 -0.0842 -0.7589
 9420SOL    HW240240   9.998   0.913   2.184  0.4139  0.4833 -0.1839
 9421SOL     OW40241  13.776   8.805  12.071 -0.0327 -0.4087 -0.2987
 9421SOL    HW140242  13.842   8.851  12.122 -0.0717 -0.8479  0.1573
 9421SOL    HW240243  13.724   8.874  12.031 -1.0680 -0.0178  1.6206
 9422SOL     OW40244   3.628  13.044   8.796  0.0617  0.0610  0.5042
 9422SOL    HW140245   3.604  13.072   8.708  1.0444  1.3533  0.6206
 9422SOL    HW240246   3.615  13.121   8.851  2.1020  0.1273  0.9811
 9423SOL     OW40247   2.984  11.836   4.219 -0.0099  0.2570  0.1456
 9423SOL    HW140248   3.018  11.889   4.291  1.1839 -1.5313  0.9764
 9423SOL    HW240249   2.910  11.789   4.257 -1.0390  1.2247 -0.5752
 9424SOL     OW40250   2.544   6.030   7.692  0.3182 -0.4753  0.1143
 9424SOL    HW140251   2.452   6.033   7.719  0.2669 -1.4970  0.0964
 9424SOL    HW240252   2.545   6.066   7.603  0.0682  0.3173  0.4278
 9425SOL     OW40253   2.899   9.968   2.282 -0.0921 -0.2277  0.2300
 9425SOL    HW140254   2.984   9.966   2.238 -0.1262 -0.0694  0.1550
 9425SOL    HW240255   2.854   9.890   2.250  0.5634 -1.0989  1.3740
 9426SOL     OW40256   6.910   0.746   6.633  0.1703  0.0080  0.3562
 9426SOL    HW140257   6.957   0.663   6.641  3.5038  1.5091 -1.3516
 9426SOL    HW240258   6.891   0.772   6.723 -0.0164 -2.0852  0.9666
 9427SOL     OW40259   3.115   8.578  12.776 -0.5710  0.1156 -0.2195
 9427SOL    HW140260   3.035   8.563  12.826 -0.1273 -0.2605  0.3895
 9427SOL    HW240261   3.180   8.522  12.818  0.4097  1.6119  0.2867
 9428SOL     OW40262  10.985  10.783  13.926  0.2652  0.1280  0.1312
 9428SOL    HW140263  10.964  10.858  13.981 -0.2380  0.0485  0.0477
 9428SOL    HW240264  10.985  10.818  13.836 -1.1169 -0.2116 -0.0131
 9429SOL     OW40265   9.022   6.328   7.928  0.1426  0.3125  0.0631
 9429SOL    HW140266   9.073   6.295   7.854  1.2160 -0.7129  1.1887
 9429SOL    HW240267   8.983   6.250   7.967 -2.0903  1.0471 -0.5669
 9430SOL     OW40268   1.896   8.781   4.297 -0.0364  0.0317 -0.6307
 9430SOL    HW140269   1.875   8.811   4.208  1.1469 -2.0043 -1.6767
 9430SOL    HW240270   1.981   8.822   4.316 -0.7186  1.2198 -0.0012
 9431SOL     OW40271   7.218   5.570  11.722 -0.9279  0.4117 -0.1229
 9431SOL    HW140272   7.139   5.600  11.767 -1.0561  0.2772 -0.2578
 9431SOL    HW240273   7.256   5.505  11.782 -0.6203  0.8776  0.1929
 9432SOL     OW40274  12.727   8.418  13.568  0.5002  1.0445  0.6883
 9432SOL    HW140275  12.786   8.391  13.498  0.5142  0.7259  0.8223
 9432SOL    HW240276  12.641   8.425  13.526  0.5722  1.1896  0.5648
 9433SOL     OW40277   3.468   9.561   9.832 -0.2666 -0.1822  0.0680
 9433SOL    HW140278   3.386   9.610   9.830 -0.3358 -0.2878 -2.2025
 9433SOL    HW240279   3.443   9.474   9.863 -0.8861 -0.0369 -0.0128
 9434SOL     OW40280   6.576   3.519  12.569 -0.6239  0.5116 -0.5020
 9434SOL    HW140281   6.528   3.438  12.588  0.4884 -0.1898 -0.6147
 9434SOL    HW240282   6.581   3.522  12.474 -0.2656  0.4802 -0.4825
 9435SOL     OW40283   1.545   4.364   9.102 -0.3682  0.6209  0.2902
 9435SOL    HW140284   1.487   4.436   9.127 -2.4255 -0.9249  0.1595
 9435SOL    HW240285   1.543   4.304   9.176  1.0891  0.5080  0.2727
 9436SOL     OW40286  13.202  10.435   3.607 -0.9936  0.2020  0.2838
 9436SOL    HW140287  13.189  10.342   3.589 -1.1470  0.4304 -0.8453
 9436SOL    HW240288  13.132  10.480   3.558  0.0354  1.0072 -0.4912
 9437SOL     OW40289   4.277   9.179  12.365 -0.5051 -0.2058  0.8834
 9437SOL    HW140290   4.314   9.209  12.282 -0.8762 -1.6156  0.1761
 9437SOL    HW240291   4.340   9.116  12.399 -1.1706 -0.9571  0.7724
 9438SOL     OW40292  13.096   2.501  11.288 -0.5130 -0.3486 -0.0260
 9438SOL    HW140293  13.073   2.409  11.280  1.4475 -0.8364 -0.7770
 9438SOL    HW240294  13.109   2.514  11.382  1.3841 -1.4976 -0.0651
 9439SOL     OW40295   9.209  11.615   9.691 -0.5050  0.0825  0.3348
 9439SOL    HW140296   9.218  11.519   9.692 -2.0343 -0.0962  1.0541
 9439SOL    HW240297   9.211  11.638   9.598 -0.5172 -0.7021  0.1305
 9440SOL     OW40298   4.896   5.309   8.801  0.3732  0.0634 -0.2327
 9440SOL    HW140299   4.815   5.258   8.799  0.4750 -0.1678  1.0129
 9440SOL    HW240300   4.870   5.397   8.776 -0.0155 -0.3080 -1.1864
 9441SOL     OW40301   0.972   1.726   1.156 -0.3629 -0.0660 -0.1452
 9441SOL    HW140302   0.955   1.633   1.167 -1.4754  0.2220  0.7157
 9441SOL    HW240303   0.916   1.751   1.082  0.0429 -0.1073 -0.4676
 9442SOL     OW40304   7.891   4.686   8.510 -0.5378  0.2228  0.3542
 9442SOL    HW140305   7.927   4.663   8.595 -1.2609  1.3866  0.9971
 9442SOL    HW240306   7.835   4.762   8.526 -0.5817  0.5649 -1.1757
 9443SOL     OW40307   9.817   3.989   7.574  0.3082 -0.3081 -0.0763
 9443SOL    HW140308   9.765   3.918   7.536 -1.7798  0.4336  1.2144
 9443SOL    HW240309   9.875   3.946   7.636 -0.0220 -1.0207 -0.2540
 9444SOL     OW40310   2.605   8.575   4.107  0.0222  0.6407 -0.0175
 9444SOL    HW140311   2.692   8.545   4.133  0.0921  0.5634 -0.3418
 9444SOL    HW240312   2.613   8.670   4.101  0.0109  0.6565  0.2269
 9445SOL     OW40313   2.055   3.775   4.271 -0.1595  0.0685 -0.4513
 9445SOL    HW140314   2.046   3.682   4.292  0.2137  0.0746 -0.2618
 9445SOL    HW240315   2.132   3.780   4.215 -0.4136  0.2139 -0.7862
 9446SOL     OW40316  12.671   5.373  10.570 -0.1031  0.0548 -0.0989
 9446SOL    HW140317  12.589   5.358  10.616  0.9724 -1.3427  1.4827
 9446SOL    HW240318  12.645   5.416  10.488 -2.4059 -0.5482  0.2423
 9447SOL     OW40319   7.231   7.127   2.338 -0.3590  0.4592 -0.3866
 9447SOL    HW140320   7.138   7.104   2.336  0.1944 -1.9873 -1.7537
 9447SOL    HW240321   7.242   7.174   2.420 -1.9811 -3.0862  2.1207
 9448SOL     OW40322  12.684  12.127   3.167  0.0932  0.2445 -0.1756
 9448SOL    HW140323  12.761  12.109   3.222 -1.0937  0.8417  1.7813
 9448SOL    HW240324  12.610  12.100   3.221 -1.1359  0.4049 -1.7203
 9449SOL     OW40325   1.624   5.738   5.131  0.2063  0.5659 -0.1465
 9449SOL    HW140326   1.542   5.712   5.088 -0.8018  2.4483  0.5717
 9449SOL    HW240327   1.615   5.706   5.221  0.0879  1.1149  0.0371
 9450SOL     OW40328   8.330   5.538  12.293 -0.0338 -0.0524 -0.2380
 9450SOL    HW140329   8.255   5.565  12.346 -0.3345  0.1273 -0.7544
 9450SOL    HW240330   8.406   5.575  12.339  0.0573 -2.5717  1.8931
 9451SOL     OW40331   2.163   7.420   3.367 -0.6974  0.0753  0.0368
 9451SOL    HW140332   2.182   7.327   3.381 -0.6146 -0.0426 -0.8051
 9451SOL    HW240333   2.073   7.431   3.398 -1.3916 -0.7110 -1.5872
 9452SOL     OW40334   3.930  12.510  10.363 -0.7842  0.0990 -0.3045
 9452SOL    HW140335   3.985  12.532  10.438 -0.3378 -1.2894 -0.1942
 9452SOL    HW240336   3.923  12.415  10.366 -1.4923  0.0967 -1.5192
 9453SOL     OW40337   1.893  12.305   8.206 -0.7772  0.5395 -0.2672
 9453SOL    HW140338   1.953  12.232   8.222 -0.0713  1.0689 -0.4059
 9453SOL    HW240339   1.811  12.264   8.180 -0.6903 -0.2253  0.6113
 9454SOL     OW40340   1.374   0.919   3.624 -0.1017  0.3868  0.3321
 9454SOL    HW140341   1.308   0.881   3.566  2.0106 -0.3200 -1.7544
 9454SOL    HW240342   1.400   0.848   3.682  1.4589 -0.5265 -1.3756
 9455SOL     OW40343   5.082  12.903   8.232 -0.2923 -0.7185 -0.1484
 9455SOL    HW140344   4.999  12.943   8.255  0.2453  0.0017  0.5859
 9455SOL    HW240345   5.060  12.812   8.212 -1.0639 -0.9004  1.4053
 9456SOL     OW40346   6.936  10.652  11.999  0.0074 -0.8667 -0.2318
 9456SOL    HW140347   6.937  10.603  11.916 -0.4385  0.2858 -0.9357
 9456SOL    HW240348   7.020  10.698  12.001 -1.3180  1.8950 -1.8152
 9457SOL     OW40349   0.874  12.287  11.129 -0.0222 -0.3405 -0.2194
 9457SOL    HW140350   0.901  12.284  11.038  0.1679 -0.9998 -0.1468
 9457SOL    HW240351   0.794  12.339  11.129 -0.2144 -0.6305 -0.8071
 9458SOL     OW40352  13.593   1.009   7.893 -0.1662  0.0633  0.1914
 9458SOL    HW140353  13.651   0.960   7.951  0.5304  0.8014  0.1306
 9458SOL    HW240354  13.567   1.086   7.943 -2.1299 -0.8676  0.6906
 9459SOL     OW40355  13.125   2.335   2.723  0.3277  0.3965  0.0473
 9459SOL    HW140356  13.057   2.272   2.700  0.1652  1.0187 -1.2168
 9459SOL    HW240357  13.194   2.282   2.763 -0.2460 -0.4312 -0.0324
 9460SOL     OW40358   9.806   9.648  11.290 -0.0828 -0.1817  0.0721
 9460SOL    HW140359   9.751   9.580  11.252 -0.2037 -0.7269  1.1788
 9460SOL    HW240360   9.745   9.715  11.320 -0.0353 -0.0893 -0.0347
 9461SOL     OW40361   4.936   4.541   4.830  0.1198 -0.4436 -0.2961
 9461SOL    HW140362   4.990   4.564   4.906 -0.4932 -1.0152  0.3347
 9461SOL    HW240363   4.969   4.455   4.803 -0.1341 -0.5647 -0.2240
 9462SOL     OW40364   8.281  12.638   2.530 -0.3020 -0.4255  0.0480
 9462SOL    HW140365   8.340  12.655   2.458 -1.0676  0.6566 -0.3538
 9462SOL    HW240366   8.218  12.710   2.528 -0.9395 -0.9056  1.1748
 9463SOL     OW40367  12.793   1.406   1.784 -0.2989  0.1544  0.3067
 9463SOL    HW140368  12.763   1.493   1.758 -0.5815  0.1865  0.7206
 9463SOL    HW240369  12.889   1.412   1.782 -0.3171  0.4925  0.3727
 9464SOL     OW40370  13.707   0.619  13.242  0.6237 -0.0427  0.0631
 9464SOL    HW140371  13.713   0.598  13.149  0.7542  0.3709 -0.0268
 9464SOL    HW240372  13.796   0.640  13.268  0.3024  2.0614 -0.2764
 9465SOL     OW40373   2.249   1.152   8.916 -0.8092  0.3492  0.2433
 9465SOL    HW140374   2.328   1.098   8.912 -1.1061 -0.1018  0.4739
 9465SOL    HW240375   2.263   1.209   8.992 -0.9723 -0.1457  0.6450
 9466SOL     OW40376   0.304   7.694  13.825 -0.5405 -0.0673  0.1906
 9466SOL    HW140377   0.261   7.759  13.881 -0.6367 -0.5965  0.7267
 9466SOL    HW240378   0.377   7.742  13.785 -1.0295  0.5699  0.0305
 9467SOL     OW40379   9.598   3.335   2.894 -0.3104  0.1050  0.2944
 9467SOL    HW140380   9.589   3.250   2.937  1.8219  0.4172  1.5055
 9467SOL    HW240381   9.620   3.314   2.803  0.7148 -0.6754  0.6997
 9468SOL     OW40382   1.928   8.459   3.154 -0.0945 -0.3093 -0.3075
 9468SOL    HW140383   2.018   8.438   3.179 -0.1221 -0.4750 -0.3479
 9468SOL    HW240384   1.895   8.379   3.112 -0.4941 -0.4863  0.3425
 9469SOL     OW40385   4.844  10.873  11.330  0.2628 -0.3639 -0.1995
 9469SOL    HW140386   4.836  10.960  11.291  2.6544 -0.3130 -0.7179
 9469SOL    HW240387   4.911  10.883  11.397  1.7404 -2.0938 -1.3177
 9470SOL     OW40388  11.484  10.323   7.658  0.0215 -0.0677  0.0724
 9470SOL    HW140389  11.573  10.290   7.665  0.8976  2.0551 -0.2144
 9470SOL    HW240390  11.437  10.257   7.607  1.8847 -0.3732 -1.3197
 9471SOL     OW40391   8.295  12.314  10.981 -0.2378  0.0357 -0.5317
 9471SOL    HW140392   8.332  12.362  10.906 -1.0242  0.6392 -0.5495
 9471SOL    HW240393   8.366  12.259  11.012  1.0520  1.9952  0.1510
 9472SOL     OW40394  12.349   7.349   6.190  0.6794 -0.0330  0.2711
 9472SOL    HW140395  12.371   7.429   6.238  1.1500 -0.7130  1.2177
 9472SOL    HW240396  12.431   7.299   6.188  0.9087  0.3074 -1.9716
 9473SOL     OW40397   5.836   2.236  13.890 -0.7649  0.2951  0.0430
 9473SOL    HW140398   5.873   2.169  13.947  2.6582  2.3198  0.4503
 9473SOL    HW240399   5.856   2.319  13.933 -3.9961  1.7516 -0.8997
 9474SOL     OW40400   9.872   3.745   2.438 -0.2263 -0.1580 -0.7137
 9474SOL    HW140401   9.842   3.819   2.386 -3.1419  0.7921  1.9628
 9474SOL    HW240402   9.797   3.723   2.494  1.8365 -2.5635  1.3903
 9475SOL     OW40403   8.142  12.105  12.574 -0.3629 -0.1149  0.4637
 9475SOL    HW140404   8.168  12.170  12.639  0.5620 -0.2380  0.2258
 9475SOL    HW240405   8.190  12.130  12.495 -0.9465 -0.3747  0.0181
 9476SOL     OW40406  11.723   6.997   9.702 -0.3423 -0.5143 -0.0925
 9476SOL    HW140407  11.796   7.014   9.761  0.3348  1.1281 -1.3181
 9476SOL    HW240408  11.647   7.038   9.744 -1.0047 -3.5161  1.9300
 9477SOL     OW40409  12.216   0.937  13.187  0.5176 -0.7533  0.3824
 9477SOL    HW140410  12.121   0.928  13.186  0.4220  0.1827  0.0474
 9477SOL    HW240411  12.247   0.860  13.235 -0.3511 -1.4772 -0.2061
 9478SOL     OW40412   6.872   2.539   3.880  0.4037  0.3074 -0.1736
 9478SOL    HW140413   6.876   2.445   3.898  1.1702  0.6834  1.9987
 9478SOL    HW240414   6.840   2.577   3.962  0.9676  2.0230 -0.7097
 9479SOL     OW40415   9.048   4.457   7.288  0.0196  0.3204 -0.1895
 9479SOL    HW140416   9.099   4.386   7.249  0.8859  1.3727 -1.0449
 9479SOL    HW240417   9.102   4.535   7.275 -0.2315  0.9343  2.0288
 9480SOL     OW40418  12.516   3.926   0.355  0.2774  0.1889 -0.0362
 9480SOL    HW140419  12.455   3.979   0.303 -1.3580  0.1721  1.7484
 9480SOL    HW240420  12.468   3.845   0.372  1.0036 -0.0427  0.9913
 9481SOL     OW40421   0.643   4.874   4.737 -0.4936 -0.2273  0.1862
 9481SOL    HW140422   0.568   4.817   4.753 -0.3052 -0.5709 -0.1683
 9481SOL    HW240423   0.606   4.953   4.699 -0.3560 -1.9244 -3.9467
 9482SOL     OW40424   0.578   0.498   1.250 -0.2041 -0.5236  0.2624
 9482SOL    HW140425   0.546   0.525   1.336 -0.1758 -0.5650  0.2857
 9482SOL    HW240426   0.513   0.533   1.188  0.3217  0.4224  0.2216
 9483SOL     OW40427  10.728  13.211   4.968 -0.2127  0.3989  0.4070
 9483SOL    HW140428  10.759  13.297   4.941 -0.5033  0.6943  0.9882
 9483SOL    HW240429  10.649  13.197   4.915 -0.4796  0.7423  0.7009
 9484SOL     OW40430   4.389  10.595  10.216 -0.4801  0.3355  0.8280
 9484SOL    HW140431   4.358  10.627  10.131  1.9930 -0.8102 -0.6159
 9484SOL    HW240432   4.420  10.506  10.198  1.2274  0.4892  2.6415
 9485SOL     OW40433   6.018   2.310   7.459  0.1690 -0.1036 -0.3036
 9485SOL    HW140434   5.926   2.303   7.432  0.1574 -1.3642  0.0365
 9485SOL    HW240435   6.064   2.334   7.379 -0.1566 -1.7219 -1.0172
 9486SOL     OW40436   9.072   0.085   0.732 -0.3099 -0.0330  0.0591
 9486SOL    HW140437   9.034   0.009   0.689 -0.5377 -0.0675  0.3177
 9486SOL    HW240438   9.028   0.161   0.693  0.6950  0.0333 -0.9851
 9487SOL     OW40439   4.325  12.267   2.409  0.0693  0.0440 -0.7994
 9487SOL    HW140440   4.324  12.180   2.368  0.0987 -0.5365  0.3912
 9487SOL    HW240441   4.348  12.327   2.338  0.3460 -0.9547 -1.5743
 9488SOL     OW40442   7.654   0.437   3.568 -0.2971 -0.7159  0.4685
 9488SOL    HW140443   7.618   0.353   3.598  2.4168 -1.4798  1.9391
 9488SOL    HW240444   7.702   0.415   3.489 -0.1457 -0.4126  0.4766
 9489SOL     OW40445   4.167   8.079   1.501  0.4837  0.4025 -0.3319
 9489SOL    HW140446   4.189   8.143   1.434 -0.1533  1.5012  0.4651
 9489SOL    HW240447   4.192   7.995   1.464 -0.0487  0.9479 -2.0264
 9490SOL     OW40448   5.319   0.220   8.458  0.2371 -0.1048  0.5433
 9490SOL    HW140449   5.347   0.130   8.438 -1.0718 -0.7460  1.4130
 9490SOL    HW240450   5.231   0.210   8.493 -0.1578  1.5984  0.1265
 9491SOL     OW40451  12.362   2.812   7.001 -0.1478  0.2416 -0.3108
 9491SOL    HW140452  12.358   2.818   7.096  0.6818 -2.5298 -0.0247
 9491SOL    HW240453  12.436   2.868   6.977 -0.5138  1.1552  0.6314
 9492SOL     OW40454   4.351   7.070   6.449 -0.3846 -0.2568  0.1977
 9492SOL    HW140455   4.286   7.140   6.455 -2.0056 -1.6281 -0.5601
 9492SOL    HW240456   4.299   6.990   6.436  1.5104 -1.2362 -1.9304
 9493SOL     OW40457  10.394  12.578   9.320 -0.4613  0.3192  0.0676
 9493SOL    HW140458  10.333  12.568   9.247 -0.1469  1.4215 -0.3636
 9493SOL    HW240459  10.470  12.525   9.294  0.2388  1.8147 -1.1041
 9494SOL     OW40460   8.622  10.897   9.921 -0.0906 -0.1065 -0.6314
 9494SOL    HW140461   8.573  10.980   9.916 -0.2378 -0.1817 -0.4703
 9494SOL    HW240462   8.713  10.923   9.911 -0.2457 -0.1155 -2.3637
 9495SOL     OW40463   5.604   0.763   4.417  0.1134 -0.3734  0.2334
 9495SOL    HW140464   5.586   0.787   4.508  2.9134 -0.5593  0.9604
 9495SOL    HW240465   5.523   0.780   4.370 -1.3637 -0.0860  2.7308
 9496SOL     OW40466   7.788   2.832   1.073  0.0322 -0.0946  0.1952
 9496SOL    HW140467   7.815   2.767   1.008 -0.8386 -1.9512  1.5671
 9496SOL    HW240468   7.729   2.784   1.131 -0.9948  2.0724  1.0592
 9497SOL     OW40469   7.708   8.146   5.565 -0.8910 -0.5593 -0.0655
 9497SOL    HW140470   7.796   8.143   5.529 -0.0322  1.8393  1.6355
 9497SOL    HW240471   7.704   8.072   5.626  0.8874  0.7406  1.7240
 9498SOL     OW40472   1.779   9.491   1.707 -0.6758  0.5048  0.3586
 9498SOL    HW140473   1.784   9.566   1.767 -2.6222 -0.1512  1.4299
 9498SOL    HW240474   1.771   9.415   1.764  0.4398 -0.4613 -0.7307
 9499SOL     OW40475   0.205   0.389   8.677 -0.1485 -0.3565 -0.7005
 9499SOL    HW140476   0.209   0.371   8.583 -0.6583 -0.1443 -0.7656
 9499SOL    HW240477   0.140   0.458   8.686 -0.2836 -0.5445 -0.1644
 9500SOL     OW40478  12.563   8.617  10.655  0.0065 -0.0312  0.3848
 9500SOL    HW140479  12.622   8.678  10.700  1.4279 -1.6989  0.8773
 9500SOL    HW240480  12.576   8.635  10.562  0.3930  0.4290  0.5229
 9501SOL     OW40481   7.100  12.826   8.818  0.2915 -0.2435 -0.2222
 9501SOL    HW140482   7.150  12.905   8.800  0.8922 -0.2915  1.1164
 9501SOL    HW240483   7.161  12.754   8.800 -0.5669 -0.5005 -2.4595
 9502SOL     OW40484  11.787   2.980  10.990 -0.2050 -0.2209  0.4573
 9502SOL    HW140485  11.869   3.017  10.957 -0.4442 -0.2531 -0.1875
 9502SOL    HW240486  11.773   3.024  11.074 -0.7183  1.5139 -0.4871
 9503SOL     OW40487  12.718   7.966   3.156 -0.1157  0.2500  0.3210
 9503SOL    HW140488  12.747   8.040   3.208  2.2384  0.8486 -1.6837
 9503SOL    HW240489  12.766   7.891   3.192 -0.1064  0.2744  0.3593
 9504SOL     OW40490   1.733   5.560   7.217  0.6948 -0.3933 -0.2711
 9504SOL    HW140491   1.747   5.612   7.296  0.5432  1.8511 -1.6387
 9504SOL    HW240492   1.820   5.547   7.181  0.6656 -0.5227 -0.2965
 9505SOL     OW40493   1.112  12.003   5.833  0.0387 -0.5305  0.6437
 9505SOL    HW140494   1.145  11.985   5.921  1.0806 -0.6375  0.2409
 9505SOL    HW240495   1.073  12.090   5.840  0.3356 -0.4356  1.1535
 9506SOL     OW40496  13.469  11.653  10.897 -0.5627  0.1446 -0.2450
 9506SOL    HW140497  13.439  11.722  10.838  0.8998  1.2004  0.1723
 9506SOL    HW240498  13.537  11.607  10.847  1.5581  1.8011  0.8999
 9507SOL     OW40499   2.286   6.359   3.220  0.9394  0.0128 -0.3379
 9507SOL    HW140500   2.258   6.400   3.301  2.0440  0.8682 -0.3673
 9507SOL    HW240501   2.222   6.289   3.205 -0.5900  1.2656  0.0681
 9508SOL     OW40502   3.686   4.124   6.261  0.1656  0.1742 -0.6885
 9508SOL    HW140503   3.705   4.092   6.173  0.2160 -0.4349 -0.4664
 9508SOL    HW240504   3.605   4.173   6.252 -0.2984 -0.6070 -0.9322
 9509SOL     OW40505   3.678  10.261   6.827 -0.0444  0.8544  0.0848
 9509SOL    HW140506   3.643  10.348   6.808 -0.8738  0.2080 -1.5010
 9509SOL    HW240507   3.645  10.206   6.757 -0.7176 -1.0656  1.8194
 9510SOL     OW40508   9.078  11.054   1.000  0.1174  0.5353 -0.0159
 9510SOL    HW140509   9.070  11.073   0.907  0.1330  0.6772  0.0112
 9510SOL    HW240510   9.144  10.985   1.006 -0.9981 -0.5833 -0.2398
 9511SOL     OW40511  12.811   6.527  13.829  0.1064  0.0044  0.1780
 9511SOL    HW140512  12.873   6.457  13.851  1.2964  1.1513  0.6562
 9511SOL    HW240513  12.747   6.526  13.899  0.8249  0.1823  0.8489
 9512SOL     OW40514   3.813  12.814  12.658  0.5212 -0.6802 -0.0399
 9512SOL    HW140515   3.894  12.841  12.703  0.2651  0.2520 -0.1138
 9512SOL    HW240516   3.774  12.751  12.718  0.1834  0.5433  1.1018
 9513SOL     OW40517   6.640  13.201   6.334  0.1730 -0.2856  0.0112
 9513SOL    HW140518   6.620  13.191   6.427  2.3916 -1.2330  0.4354
 9513SOL    HW240519   6.706  13.270   6.331  0.1153 -0.2584 -0.8617
 9514SOL     OW40520   9.268   8.290   0.108 -0.1562 -0.2575 -0.2789
 9514SOL    HW140521   9.222   8.236   0.043  0.4226 -3.5926  1.8220
 9514SOL    HW240522   9.328   8.344   0.055 -0.2096 -2.2655 -2.5958
 9515SOL     OW40523   0.645  11.183   8.874 -0.1770 -0.3008  0.1841
 9515SOL    HW140524   0.581  11.240   8.917  0.0018 -0.5054  0.7320
 9515SOL    HW240525   0.673  11.232   8.796 -1.3229 -0.4014 -0.3088
 9516SOL     OW40526   0.889   6.477   2.189 -0.4278 -0.3083 -0.9476
 9516SOL    HW140527   0.894   6.417   2.263 -1.6082 -1.1122 -1.4991
 9516SOL    HW240528   0.887   6.564   2.229  1.8186 -0.5616 -0.1529
 9517SOL     OW40529   1.630  10.186   9.707 -0.3398 -0.5973 -0.0282
 9517SOL    HW140530   1.570  10.157   9.775 -1.6706  1.6744 -0.1542
 9517SOL    HW240531   1.656  10.105   9.662 -4.1649 -1.6800 -0.6605
 9518SOL     OW40532   7.669   5.161   9.884  0.4147 -0.5189  0.1997
 9518SOL    HW140533   7.734   5.229   9.866  1.5787 -1.6993 -0.2281
 9518SOL    HW240534   7.683   5.139   9.976 -0.4210  0.2578  0.5302
 9519SOL     OW40535  13.923  10.618   0.916 -0.0127  0.0579  0.1805
 9519SOL    HW140536  13.882  10.645   0.998  2.2858 -0.2726  1.5243
 9519SOL    HW240537  14.014  10.647   0.923 -0.0317  1.2249 -2.8797
 9520SOL     OW40538   0.331   0.675   9.536 -0.1616 -0.8168  0.5031
 9520SOL    HW140539   0.360   0.646   9.449  0.1832 -1.8987  0.9658
 9520SOL    HW240540   0.320   0.769   9.526 -0.3004 -0.9374 -0.7670
 9521SOL     OW40541   2.264   0.271   5.916  0.2377  0.4059 -0.3506
 9521SOL    HW140542   2.350   0.240   5.943  0.3892 -0.4659 -1.7054
 9521SOL    HW240543   2.204   0.237   5.983  0.8225  0.0767  0.0142
 9522SOL     OW40544  10.996   0.254   3.926  0.2017  0.0230  0.0398
 9522SOL    HW140545  10.975   0.163   3.909 -0.8740  0.2824 -0.0950
 9522SOL    HW240546  11.006   0.259   4.021  3.0512 -0.7694 -0.1170
 9523SOL     OW40547  13.941   3.515  11.192 -0.0984  0.7550  0.6189
 9523SOL    HW140548  14.036   3.517  11.205  0.1956  2.8232 -1.2831
 9523SOL    HW240549  13.915   3.607  11.195 -1.5420  0.5053 -1.9530
 9524SOL     OW40550  11.894  10.689   2.384 -0.3752  0.3069 -0.2399
 9524SOL    HW140551  11.927  10.610   2.428 -1.5803 -0.6420 -0.9609
 9524SOL    HW240552  11.944  10.694   2.303 -1.1562 -0.4585 -0.7836
 9525SOL     OW40553  12.171   9.492   2.917  0.1164 -0.8986  0.6743
 9525SOL    HW140554  12.176   9.420   2.980 -0.1246 -0.8123  0.7942
 9525SOL    HW240555  12.079   9.494   2.891  0.4319 -1.7321 -0.6241
 9526SOL     OW40556   5.903   1.432  11.247 -0.3527  0.2111  0.0163
 9526SOL    HW140557   5.970   1.365  11.241  0.3707  0.6210  2.2579
 9526SOL    HW240558   5.830   1.389  11.293  0.5150  1.1179  2.4193
 9527SOL     OW40559   3.356   6.716  13.744 -0.3773  0.5177  0.7593
 9527SOL    HW140560   3.353   6.635  13.796  1.1529 -0.5414 -0.7032
 9527SOL    HW240561   3.341   6.686  13.654 -0.6980  2.0115  0.2968
 9528SOL     OW40562  13.892   5.720  13.578  0.3353  0.2703  0.5456
 9528SOL    HW140563  13.809   5.695  13.618  1.5283 -0.9317  2.4007
 9528SOL    HW240564  13.868   5.789  13.516 -1.9750  0.2815  1.3347
 9529SOL     OW40565   2.156  11.421   8.570  0.4119 -0.1192  0.4505
 9529SOL    HW140566   2.249  11.407   8.587  1.0572  0.6690 -2.0623
 9529SOL    HW240567   2.119  11.333   8.568  1.7442 -0.6984 -1.5838
 9530SOL     OW40568   1.362   7.836  10.887  0.4914  0.0473 -0.2123
 9530SOL    HW140569   1.396   7.923  10.908  1.0423 -0.4504  1.0644
 9530SOL    HW240570   1.272   7.837  10.922 -0.0375  0.5842 -1.5296
 9531SOL     OW40571  10.742   0.325   0.616  0.1698  0.8347  0.5214
 9531SOL    HW140572  10.684   0.298   0.688 -0.3513  0.7717  0.0888
 9531SOL    HW240573  10.692   0.392   0.569  0.2027  0.3838 -0.1832
 9532SOL     OW40574  11.880   9.151  11.572 -0.2015 -0.2220 -0.4204
 9532SOL    HW140575  11.961   9.201  11.561  0.5173 -1.2578 -0.0403
 9532SOL    HW240576  11.898   9.067  11.530 -1.2448 -0.3061 -0.7212
 9533SOL     OW40577   2.416   3.808   8.820 -0.2345 -0.3872 -0.0286
 9533SOL    HW140578   2.449   3.726   8.855 -1.3084  0.1009  2.3167
 9533SOL    HW240579   2.322   3.794   8.810 -0.2868  0.2593 -0.5235
 9534SOL     OW40580  12.150   8.770   4.445  0.2790  0.1654  0.0414
 9534SOL    HW140581  12.087   8.740   4.379  1.0781 -1.0180 -0.2193
 9534SOL    HW240582  12.116   8.735   4.528  0.7180 -0.7181 -0.1373
 9535SOL     OW40583   5.520   3.680   4.672 -0.0891  0.0936 -0.2747
 9535SOL    HW140584   5.523   3.774   4.650  1.4776  0.5926  1.7617
 9535SOL    HW240585   5.427   3.660   4.679 -0.4544  1.5252 -0.6809
 9536SOL     OW40586   0.471   3.628  11.020 -0.1629  0.0457  0.5678
 9536SOL    HW140587   0.463   3.535  11.041  1.9652  0.0261  1.6572
 9536SOL    HW240588   0.510   3.630  10.933 -0.6482 -0.0646  0.3463
 9537SOL     OW40589   6.070  12.628   8.291 -0.1790 -0.0796 -0.4062
 9537SOL    HW140590   6.067  12.670   8.205 -1.3924  0.1753 -0.2572
 9537SOL    HW240591   6.038  12.539   8.275  0.8597 -0.4563 -0.4403
 9538SOL     OW40592   4.187   6.076   3.830  0.2490  0.3285 -0.2432
 9538SOL    HW140593   4.251   6.007   3.814 -0.4367 -0.3054 -0.2991
 9538SOL    HW240594   4.118   6.060   3.766 -0.8219 -0.0798  0.9621
 9539SOL     OW40595   6.123   0.563  11.896  0.3650  0.2579  0.6875
 9539SOL    HW140596   6.196   0.598  11.844  0.0936  2.4838  1.7159
 9539SOL    HW240597   6.051   0.624  11.881 -0.2492 -0.0130  2.3090
 9540SOL     OW40598   9.321   8.369   8.162  0.0043  0.1520 -0.1043
 9540SOL    HW140599   9.382   8.323   8.219 -1.4851 -0.2530  1.2330
 9540SOL    HW240600   9.329   8.325   8.077  0.6748 -0.6885  0.3824
 9541SOL     OW40601   9.383   3.891  10.827  0.0618  0.1384 -0.2677
 9541SOL    HW140602   9.450   3.911  10.761  1.7819 -2.6059  0.4660
 9541SOL    HW240603   9.317   3.841  10.780  0.4446 -0.3664 -0.2833
 9542SOL     OW40604   7.033   4.050   4.502 -0.4095  0.3263 -0.1751
 9542SOL    HW140605   7.020   3.980   4.438 -1.5184  0.8711 -0.5621
 9542SOL    HW240606   6.950   4.057   4.549 -0.1616  1.0730  0.1750
 9543SOL     OW40607  13.600   5.959   2.367  0.2727  0.3681 -0.2397
 9543SOL    HW140608  13.627   6.030   2.426  0.6120  1.1417 -1.2973
 9543SOL    HW240609  13.660   5.965   2.294 -1.7250  1.1338 -1.9292
 9544SOL     OW40610   4.170   4.129   0.200 -0.5451 -0.2323  0.8686
 9544SOL    HW140611   4.076   4.128   0.217 -1.2528 -2.8147 -2.1477
 9544SOL    HW240612   4.181   4.194   0.131 -0.6196 -1.6059 -0.5035
 9545SOL     OW40613  11.893   5.556  11.959  0.2793 -0.1982 -0.0288
 9545SOL    HW140614  11.870   5.641  11.996 -0.5740 -1.1236  1.6716
 9545SOL    HW240615  11.828   5.542  11.890 -0.2399  0.0779  0.3931
 9546SOL     OW40616   7.637   3.196   1.078 -0.4986 -0.4067  0.3010
 9546SOL    HW140617   7.555   3.199   1.126 -0.0320  1.5085  1.0508
 9546SOL    HW240618   7.618   3.143   1.000 -2.0300 -1.1608  1.1463
 9547SOL     OW40619  12.243   2.524   6.948 -0.2569  0.0936 -0.3537
 9547SOL    HW140620  12.199   2.519   6.863 -0.2539  1.1229 -0.4305
 9547SOL    HW240621  12.306   2.596   6.937  1.3274 -1.2138 -0.1987
 9548SOL     OW40622   6.237   9.338  12.690  0.1377 -0.4588 -0.0031
 9548SOL    HW140623   6.223   9.423  12.648  0.1441 -1.5479 -2.3518
 9548SOL    HW240624   6.149   9.305  12.709  0.1109 -0.2170  0.2911
 9549SOL     OW40625  10.212   4.797  10.084  0.4276 -0.2359 -0.4309
 9549SOL    HW140626  10.158   4.729  10.122 -1.1187  0.5609 -1.1001
 9549SOL    HW240627  10.299   4.757  10.075  0.5277 -0.8935  2.5301
 9550SOL     OW40628   5.028   8.924   4.904  0.0493  0.0104  0.0905
 9550SOL    HW140629   5.005   8.839   4.942  1.3038 -0.8942 -1.0963
 9550SOL    HW240630   4.944   8.969   4.895 -0.8559 -1.7169 -0.6844
 9551SOL     OW40631  12.073   9.922   8.978 -0.1993  0.1274 -0.1247
 9551SOL    HW140632  12.143   9.875   8.932  0.6786  1.1756  0.1064
 9551SOL    HW240633  12.020   9.961   8.908 -0.8931 -1.1187 -0.3155
 9552SOL     OW40634   8.919   7.777   0.364  0.2738  0.7737 -0.3146
 9552SOL    HW140635   8.920   7.756   0.457 -1.0931  1.7207 -0.0600
 9552SOL    HW240636   8.841   7.733   0.330 -0.7161  2.5273 -0.4443
 9553SOL     OW40637   5.154   1.695  13.307 -0.3876  0.8741 -0.5031
 9553SOL    HW140638   5.074   1.727  13.350 -1.0120  0.1547 -1.0957
 9553SOL    HW240639   5.163   1.750  13.229 -1.1453  0.0193 -1.2196
 9554SOL     OW40640   5.016   8.313   5.190  0.1459 -0.0526 -0.7057
 9554SOL    HW140641   5.062   8.239   5.151 -1.1763 -1.2640 -0.0597
 9554SOL    HW240642   5.019   8.381   5.123 -0.9560 -1.6179 -2.4635
 9555SOL     OW40643   8.919   6.644   5.939  0.2226  0.3515  0.2226
 9555SOL    HW140644   8.897   6.585   5.868 -2.3702 -0.0116  1.2242
 9555SOL    HW240645   8.835   6.670   5.976  1.4030  2.2239  1.7969
 9556SOL     OW40646   6.936  11.797   1.085  0.0593  0.5413  0.3319
 9556SOL    HW140647   6.913  11.857   1.156 -3.1793  0.4471 -0.4714
 9556SOL    HW240648   6.886  11.717   1.105 -1.6145  0.8025 -2.3516
 9557SOL     OW40649  10.825  13.124   5.211 -0.0790 -0.4269  0.0990
 9557SOL    HW140650  10.797  13.139   5.121  2.0105 -0.0638 -0.5478
 9557SOL    HW240651  10.873  13.204   5.235  0.3669 -0.9843  1.1341
 9558SOL     OW40652   4.792  11.677  13.629  0.0910 -0.1030  0.1789
 9558SOL    HW140653   4.780  11.692  13.535 -0.6110  0.9094  0.3993
 9558SOL    HW240654   4.882  11.648  13.638  0.0205 -0.7000 -0.8559
 9559SOL     OW40655   7.878  12.243  12.797  0.2759  0.0494 -0.4944
 9559SOL    HW140656   7.967  12.263  12.827  0.5174 -1.7090  0.0327
 9559SOL    HW240657   7.843  12.185  12.864 -1.8728  1.9409  0.1357
 9560SOL     OW40658   2.166   2.049   6.472  0.1407  0.4330  0.3235
 9560SOL    HW140659   2.141   1.975   6.417  0.7390  1.2915 -1.1676
 9560SOL    HW240660   2.260   2.059   6.457 -0.0225  1.8008  0.0862
 9561SOL     OW40661   3.339  12.763   5.069 -0.1275 -0.3853 -0.2004
 9561SOL    HW140662   3.427  12.781   5.102 -1.5577  1.5356  2.9801
 9561SOL    HW240663   3.307  12.691   5.123 -1.0752  0.0475 -0.1602
 9562SOL     OW40664   2.603   3.778  10.433  0.3938 -0.0896  0.2169
 9562SOL    HW140665   2.549   3.775  10.355  0.7005 -0.1569  0.0033
 9562SOL    HW240666   2.558   3.839  10.492 -0.7843 -1.3994  0.7096
 9563SOL     OW40667   0.337   3.900   0.913  0.1149  0.2585 -0.3119
 9563SOL    HW140668   0.292   3.816   0.925  2.4474 -0.8900  1.0658
 9563SOL    HW240669   0.385   3.890   0.831  1.7367 -0.4752  0.6805
 9564SOL     OW40670   9.958   4.058   0.060  0.1647 -0.1237  0.1824
 9564SOL    HW140671   9.933   3.973   0.024 -0.2413 -0.1842  0.6004
 9564SOL    HW240672   9.957   4.045   0.155 -4.1056  1.4472  0.5474
 9565SOL     OW40673  13.590  10.215   3.116 -0.2291  0.1535 -0.3399
 9565SOL    HW140674  13.679  10.196   3.144 -0.0059  1.5589 -0.0300
 9565SOL    HW240675  13.559  10.282   3.177 -1.9553 -1.1749  0.3295
 9566SOL     OW40676   4.738   0.929   1.964 -0.5057  0.3124 -0.2388
 9566SOL    HW140677   4.680   0.889   2.029  0.1292 -0.5007 -0.1571
 9566SOL    HW240678   4.748   1.019   1.994 -2.1216  0.6133 -0.5332
 9567SOL     OW40679   2.412  13.289   5.266 -0.6865 -0.3784 -0.3064
 9567SOL    HW140680   2.327  13.319   5.231 -0.2196  3.1215  1.1510
 9567SOL    HW240681   2.402  13.295   5.361  0.4029 -2.5425 -0.0103
 9568SOL     OW40682   8.526   2.375   9.138 -0.1975  0.0641 -0.6503
 9568SOL    HW140683   8.525   2.280   9.122 -1.8198 -0.0209 -0.1851
 9568SOL    HW240684   8.438   2.396   9.167  0.5014  1.5141  0.5982
 9569SOL     OW40685   4.388   3.990   9.372  0.3657 -0.2051 -0.2433
 9569SOL    HW140686   4.430   4.039   9.302 -0.1064 -1.8242 -1.7399
 9569SOL    HW240687   4.294   4.002   9.358  0.1772 -2.5380 -1.5211
 9570SOL     OW40688  12.574   1.656  13.125  0.0510  0.2928 -0.3330
 9570SOL    HW140689  12.580   1.738  13.076  0.2350 -0.8088 -2.2764
 9570SOL    HW240690  12.637   1.598  13.081 -1.5316 -1.5146 -0.3373
 9571SOL     OW40691  11.243   3.241   7.929  0.1749 -0.7892  0.3414
 9571SOL    HW140692  11.160   3.222   7.972  0.2905  0.4654  1.1686
 9571SOL    HW240693  11.290   3.297   7.991  0.4628  0.8752 -1.2921
 9572SOL     OW40694   1.024   9.650   0.923 -0.1517 -0.3343  0.0398
 9572SOL    HW140695   1.003   9.580   0.985 -0.1466 -0.1018  0.3060
 9572SOL    HW240696   1.114   9.675   0.945 -0.0031 -0.5283 -0.3313
 9573SOL     OW40697   6.351   5.573   5.379 -0.2996 -0.0772  0.0517
 9573SOL    HW140698   6.411   5.523   5.324  0.6469  0.7767  0.2831
 9573SOL    HW240699   6.285   5.509   5.407 -0.5596 -0.6198 -1.6968
 9574SOL     OW40700   5.986   9.513   4.768 -0.6569  0.3103  0.6318
 9574SOL    HW140701   6.039   9.588   4.796  1.2606 -0.7616  0.0584
 9574SOL    HW240702   5.987   9.454   4.843  1.2757 -0.8794 -0.2532
 9575SOL     OW40703   8.629   6.697   1.411 -0.0804  0.4957 -0.2586
 9575SOL    HW140704   8.553   6.755   1.418 -0.6829 -0.1912 -0.9712
 9575SOL    HW240705   8.700   6.755   1.383 -0.5751  0.9609 -0.5722
 9576SOL     OW40706   0.173   2.964   0.523  0.3438 -0.3176  0.4748
 9576SOL    HW140707   0.230   2.908   0.471  1.4546 -1.2640  2.6150
 9576SOL    HW240708   0.209   2.961   0.611 -2.1438  0.2570  1.6096
 9577SOL     OW40709   1.737   0.324  11.417  0.1031  0.0743 -0.6059
 9577SOL    HW140710   1.786   0.241  11.419 -0.1066 -0.0515 -0.5912
 9577SOL    HW240711   1.726   0.343  11.324  0.6134  0.3658 -0.6106
 9578SOL     OW40712   2.996   3.940   5.618 -0.0871 -0.0376 -0.0604
 9578SOL    HW140713   3.080   3.971   5.583 -0.5319  0.0753 -1.0449
 9578SOL    HW240714   2.933   4.007   5.591 -0.4203  0.1605  1.1452
 9579SOL     OW40715  12.854   3.089   6.323  0.1631  0.1251 -0.0806
 9579SOL    HW140716  12.929   3.130   6.280  0.3968 -1.6615 -1.5251
 9579SOL    HW240717  12.834   3.013   6.268 -1.3309 -0.6779  1.4837
 9580SOL     OW40718   4.130   8.812  13.008 -0.5530 -0.1364 -0.4020
 9580SOL    HW140719   4.225   8.813  13.011 -0.5298 -1.5052  2.8931
 9580SOL    HW240720   4.108   8.724  12.978 -0.7397 -0.5110  0.7987
 9581SOL     OW40721  11.299   6.789   8.038  0.4087 -0.2798  0.1324
 9581SOL    HW140722  11.268   6.827   8.120 -0.2361 -0.4505 -0.0249
 9581SOL    HW240723  11.359   6.855   8.002  1.4154 -0.5895  1.1681
 9582SOL     OW40724   9.750   1.511   6.065 -0.3097  0.3647 -0.3820
 9582SOL    HW140725   9.713   1.599   6.051 -0.2505  0.3497 -0.6449
 9582SOL    HW240726   9.675   1.458   6.091  0.0469  1.0423  2.3241
 9583SOL     OW40727  13.699   7.001   0.487 -0.2828 -0.2383  0.1178
 9583SOL    HW140728  13.730   7.081   0.445  0.5504  0.8709  2.6876
 9583SOL    HW240729  13.663   7.029   0.570 -0.4683 -2.4784  0.8727
 9584SOL     OW40730   4.112   3.710   0.295 -0.1797  0.0995  0.0820
 9584SOL    HW140731   4.033   3.661   0.319 -0.1548  0.9169  2.0313
 9584SOL    HW240732   4.181   3.674   0.352  1.3244 -1.6255 -2.5718
 9585SOL     OW40733  10.790   3.453   8.228  0.4670  0.0962  0.4384
 9585SOL    HW140734  10.704   3.429   8.263 -0.7143  1.7313 -1.1464
 9585SOL    HW240735  10.813   3.381   8.169 -1.1733  0.8905 -1.2586
 9586SOL     OW40736   9.012   3.733  10.034 -0.0467 -0.1995 -0.6550
 9586SOL    HW140737   8.926   3.772  10.024 -0.5953 -1.1572  0.1922
 9586SOL    HW240738   9.024   3.681   9.954  0.4694  1.2103 -1.5437
 9587SOL     OW40739   3.946   7.997   5.672  0.2371 -0.3101  0.1491
 9587SOL    HW140740   4.018   8.011   5.611  0.5451  0.5292  0.6839
 9587SOL    HW240741   3.980   8.027   5.757 -0.7701  0.2261  0.3887
 9588SOL     OW40742   9.676   9.685  11.631 -0.0184  0.0317  0.1571
 9588SOL    HW140743   9.618   9.699  11.706 -1.3649 -1.5596 -0.5261
 9588SOL    HW240744   9.750   9.636  11.667 -1.4963 -2.3283  0.2316
 9589SOL     OW40745   3.795   4.658  11.720  0.4124 -0.2084 -0.2760
 9589SOL    HW140746   3.858   4.605  11.672  0.9178  1.3112 -1.3900
 9589SOL    HW240747   3.823   4.748  11.703 -1.4769  0.4731  0.0190
 9590SOL     OW40748   5.948   8.676   5.646 -0.2529  0.4580  0.0946
 9590SOL    HW140749   5.865   8.630   5.662  0.3458  0.2741  3.5690
 9590SOL    HW240750   6.013   8.606   5.639 -0.2094  0.6356 -1.4570
 9591SOL     OW40751  11.792   5.959  13.106 -0.5852 -0.2199  0.6564
 9591SOL    HW140752  11.870   5.975  13.160 -0.9465 -0.8312  1.3750
 9591SOL    HW240753  11.802   6.019  13.032  2.8531 -3.2688 -1.6942
 9592SOL     OW40754  11.013   3.064   3.879 -0.6938 -0.4689  0.2253
 9592SOL    HW140755  10.948   3.134   3.881 -0.9188 -0.6713  0.1693
 9592SOL    HW240756  11.027   3.047   3.786 -1.1188 -0.9289  0.2387
 9593SOL     OW40757  13.804  12.427  11.873 -0.1460 -0.4233  0.0450
 9593SOL    HW140758  13.798  12.517  11.905 -2.2532 -0.3767 -0.3473
 9593SOL    HW240759  13.728  12.416  11.816  1.4065 -1.7138 -1.9078
 9594SOL     OW40760   9.022   5.329   4.187  0.1859 -0.1408 -0.4961
 9594SOL    HW140761   9.067   5.384   4.122  1.3119  1.2310  1.3402
 9594SOL    HW240762   9.004   5.389   4.259  0.9190 -2.0694  1.3628
 9595SOL     OW40763   8.145   2.513   9.486  0.1864 -0.2602 -0.1816
 9595SOL    HW140764   8.100   2.579   9.434 -0.2929  0.4766  1.1100
 9595SOL    HW240765   8.236   2.545   9.491 -0.2266  0.8275  1.1661
 9596SOL     OW40766  11.165   6.600   9.865  0.1162 -0.0411 -0.2840
 9596SOL    HW140767  11.178   6.665   9.934 -0.4896  1.1124 -1.2178
 9596SOL    HW240768  11.227   6.625   9.797 -0.0493 -0.4945 -0.6040
 9597SOL     OW40769   2.673  12.774   5.291 -0.1223 -0.0126  0.2730
 9597SOL    HW140770   2.761  12.811   5.298  0.2165 -0.9116  0.9743
 9597SOL    HW240771   2.615  12.841   5.327  0.2529  0.6608 -0.3716
 9598SOL     OW40772   4.422  10.665   4.874 -0.5958  0.2810  0.4628
 9598SOL    HW140773   4.465  10.677   4.958  0.7093 -0.8899 -0.0120
 9598SOL    HW240774   4.493  10.646   4.813 -1.0541  4.1799 -1.6212
 9599SOL     OW40775   8.143  12.205   9.824 -0.1020  0.0396  0.3691
 9599SOL    HW140776   8.171  12.211   9.915  0.1050  0.1562  0.2984
 9599SOL    HW240777   8.165  12.115   9.799 -0.0057  0.0579  0.3854
 9600SOL     OW40778   2.554   7.666   6.739  0.0981 -0.0961  0.0632
 9600SOL    HW140779   2.546   7.655   6.833  1.6825 -2.5359  0.0114
 9600SOL    HW240780   2.647   7.687   6.725  0.5302 -2.4645 -1.0661
 9601SOL     OW40781   0.504  10.543  12.244 -0.3214 -0.4354  0.1397
 9601SOL    HW140782   0.435  10.574  12.185  0.5622 -0.1746 -0.7939
 9601SOL    HW240783   0.562  10.618  12.254  0.1879 -0.8540  0.3574
 9602SOL     OW40784   4.341   2.085   0.353  0.2368  0.3484  0.0969
 9602SOL    HW140785   4.390   2.136   0.417  0.5009 -0.4648  0.5676
 9602SOL    HW240786   4.403   2.019   0.323 -0.3446 -0.2396  0.1658
 9603SOL     OW40787   6.765   2.766   1.815 -0.0657  0.1550  0.1925
 9603SOL    HW140788   6.847   2.720   1.831 -0.1046  0.1179  0.2919
 9603SOL    HW240789   6.740   2.801   1.901 -0.1832  0.1155  0.1756
 9604SOL     OW40790  11.559  11.735   4.795  0.0754 -0.6670 -0.3945
 9604SOL    HW140791  11.648  11.713   4.822  0.9015 -1.0594 -3.1546
 9604SOL    HW240792  11.530  11.660   4.744 -1.5487 -0.1697 -0.2587
 9605SOL     OW40793   0.192  11.083  13.888  0.2024  0.3895 -0.3862
 9605SOL    HW140794   0.197  11.164  13.938 -1.4108  0.3608 -0.1085
 9605SOL    HW240795   0.173  11.111  13.799  0.2610  0.3347 -0.4162
 9606SOL     OW40796   1.303   2.362   8.187  0.2048  0.6856  0.2931
 9606SOL    HW140797   1.267   2.423   8.252  0.4592  0.3652  0.7358
 9606SOL    HW240798   1.287   2.275   8.225 -0.1219  0.4710 -0.3165
 9607SOL     OW40799   7.559   9.429   9.927 -0.9018 -0.8140  0.0230
 9607SOL    HW140800   7.592   9.365   9.990 -0.5695 -2.3264 -1.6227
 9607SOL    HW240801   7.493   9.381   9.876  0.2873 -0.3032 -2.1194
 9608SOL     OW40802  13.548  11.843  10.684 -0.4513  0.5600  0.2482
 9608SOL    HW140803  13.506  11.786  10.619 -1.1896  3.1185 -1.7184
 9608SOL    HW240804  13.641  11.823  10.676 -0.7798 -1.3180  0.6661
 9609SOL     OW40805   8.682   4.959  12.564 -0.2165 -0.2178 -0.1064
 9609SOL    HW140806   8.715   4.869  12.562 -2.0647 -0.9218 -0.7026
 9609SOL    HW240807   8.696   4.987  12.655  0.7817 -0.9374 -0.0184
 9610SOL     OW40808   2.593   3.805   9.823  0.2345 -0.1635 -0.1098
 9610SOL    HW140809   2.634   3.843   9.900 -2.7110  3.0078  0.1511
 9610SOL    HW240810   2.642   3.842   9.749  1.2519 -0.8878  0.1885
 9611SOL     OW40811   1.437   4.449  10.957 -0.0200  0.0865  0.5844
 9611SOL    HW140812   1.529   4.430  10.940  0.4583  0.4807  2.5182
 9611SOL    HW240813   1.398   4.458  10.870  1.6349 -0.6308 -0.2768
 9612SOL     OW40814  14.035   1.586   4.739  0.4511 -0.5422  0.4038
 9612SOL    HW140815  14.066   1.673   4.714 -1.5539  0.1237  0.1167
 9612SOL    HW240816  14.082   1.526   4.679  1.4434  0.3522  0.2522
 9613SOL     OW40817   0.271  12.694   2.903  0.6974  0.1536  0.4045
 9613SOL    HW140818   0.210  12.767   2.911 -0.2065 -0.6950  1.6192
 9613SOL    HW240819   0.232  12.637   2.836 -0.0616 -0.5519  1.4136
 9614SOL     OW40820   3.719  10.744  13.394  0.3150  0.2818 -0.3796
 9614SOL    HW140821   3.720  10.834  13.427 -0.0183  0.4191 -0.7413
 9614SOL    HW240822   3.630  10.714  13.408  0.5637 -0.2010  0.2712
 9615SOL     OW40823   7.277  11.754   5.719 -0.0908  0.3357 -0.2342
 9615SOL    HW140824   7.294  11.690   5.788  1.2755  0.0049 -0.8363
 9615SOL    HW240825   7.184  11.775   5.728 -0.5501 -1.5930  0.1152
 9616SOL     OW40826  10.541   5.123   0.775 -0.0466  0.2099 -0.2162
 9616SOL    HW140827  10.480   5.170   0.718 -1.7779 -0.7976  0.7020
 9616SOL    HW240828  10.619   5.110   0.722 -1.3296 -0.0813 -2.1250
 9617SOL     OW40829   1.758   2.771   9.695 -0.0564  0.9312 -0.1054
 9617SOL    HW140830   1.715   2.695   9.733  0.9513  0.1945 -0.4032
 9617SOL    HW240831   1.832   2.735   9.646  0.0653  2.0508 -0.7844
 9618SOL     OW40832   4.509  13.418   7.221 -0.0200 -0.1454 -0.0883
 9618SOL    HW140833   4.474  13.500   7.257 -0.7860  0.0044 -1.1094
 9618SOL    HW240834   4.482  13.351   7.283  1.9284  0.5102  1.5951
 9619SOL     OW40835   7.137   0.023   3.752  0.1736 -0.6869 -0.3418
 9619SOL    HW140836   7.057  -0.028   3.746 -0.2900 -0.1312  0.7414
 9619SOL    HW240837   7.157   0.024   3.846  0.5001  0.6112 -0.4101
 9620SOL     OW40838  13.766   3.311   6.738 -0.1719  0.0009  0.1755
 9620SOL    HW140839  13.786   3.222   6.768 -0.2123 -0.0714 -0.0081
 9620SOL    HW240840  13.675   3.305   6.707 -0.6105  0.4044  1.3222
 9621SOL     OW40841   6.556  11.641   1.388  0.7168 -0.4678 -0.2116
 9621SOL    HW140842   6.596  11.555   1.382 -0.2143 -0.8859 -0.5925
 9621SOL    HW240843   6.525  11.647   1.478 -0.6575 -1.2030 -0.6124
 9622SOL     OW40844   0.119  13.460  12.078  0.3480 -0.3916 -0.0583
 9622SOL    HW140845   0.041  13.405  12.076 -0.4317  0.6173  1.2401
 9622SOL    HW240846   0.086  13.549  12.068  1.4406 -0.0264 -0.5298
 9623SOL     OW40847   9.840   1.449   0.762 -0.7449  0.2309  0.5929
 9623SOL    HW140848   9.800   1.380   0.815 -1.0269 -2.5564 -2.8699
 9623SOL    HW240849   9.792   1.528   0.785 -2.8787 -1.4308  2.2334
 9624SOL     OW40850   4.005   7.968   2.563  0.1802  0.3129 -0.1591
 9624SOL    HW140851   4.085   7.964   2.616  1.2701  1.3920 -1.6226
 9624SOL    HW240852   4.033   7.942   2.475 -1.2308  0.0785 -0.5602
 9625SOL     OW40853   1.534   8.303   9.986  0.2329  0.3557  0.1117
 9625SOL    HW140854   1.510   8.373   9.926  1.0115 -0.4246 -1.1603
 9625SOL    HW240855   1.526   8.342  10.073  0.9844  2.1150 -0.5717
 9626SOL     OW40856  13.785  10.166   5.535 -0.1925  0.3593  0.1684
 9626SOL    HW140857  13.760  10.195   5.447 -1.4510  0.3674  0.5081
 9626SOL    HW240858  13.817  10.245   5.578 -0.0008  0.4488 -0.1335
 9627SOL     OW40859   3.670   0.629   4.740  0.0182  0.5989 -0.0162
 9627SOL    HW140860   3.648   0.628   4.834  1.4123  0.0498  0.3271
 9627SOL    HW240861   3.764   0.613   4.738  0.0271  0.7730 -1.5205
 9628SOL     OW40862  13.755   4.456   1.347  0.3777  0.0595 -0.1664
 9628SOL    HW140863  13.676   4.404   1.358  0.3608  0.1201  0.0028
 9628SOL    HW240864  13.823   4.393   1.325  0.4379 -0.0813  0.4045
 9629SOL     OW40865   0.595  12.344  12.873  0.2596 -0.1518 -0.0360
 9629SOL    HW140866   0.683  12.383  12.868  0.2160 -0.1224 -0.5753
 9629SOL    HW240867   0.608  12.252  12.851  0.4804 -0.6592  1.9517
 9630SOL     OW40868   1.850   6.389   0.064 -0.3757 -0.0930  0.1432
 9630SOL    HW140869   1.819   6.461   0.010  0.8016  0.4953  0.2076
 9630SOL    HW240870   1.855   6.426   0.152  1.8230  0.3117 -0.0907
 9631SOL     OW40871   0.114  11.533   2.835  0.2163 -0.8196 -0.6166
 9631SOL    HW140872   0.160  11.451   2.854 -1.4149 -2.3336 -2.6938
 9631SOL    HW240873   0.037  11.506   2.785  0.5167  2.1194 -2.9153
 9632SOL     OW40874   3.818  11.049  11.231 -0.3656  0.0314 -0.0634
 9632SOL    HW140875   3.911  11.025  11.230 -0.0214  1.2886 -0.6912
 9632SOL    HW240876   3.790  11.038  11.140 -0.2295  1.7698 -0.3483
 9633SOL     OW40877  12.365   1.982   6.994 -0.0046  0.5202 -0.0162
 9633SOL    HW140878  12.402   2.055   7.045 -1.5824  2.4480 -1.4528
 9633SOL    HW240879  12.401   1.993   6.906  0.2139 -0.8476 -0.1195
 9634SOL     OW40880  12.670  11.387   4.683  0.0316  0.0173 -0.5108
 9634SOL    HW140881  12.580  11.371   4.709  0.2315  0.8709  0.8357
 9634SOL    HW240882  12.717  11.307   4.706 -0.4882 -0.7236 -1.9207
 9635SOL     OW40883   3.955   5.660   0.028  0.1708 -0.2526 -0.5989
 9635SOL    HW140884   3.907   5.601   0.086 -0.1163  0.5944  0.0545
 9635SOL    HW240885   4.047   5.641   0.048  0.1466 -1.9110 -1.8934
 9636SOL     OW40886  13.309   8.770   7.984  0.1809 -0.3298 -0.1654
 9636SOL    HW140887  13.366   8.824   7.929 -1.2151  0.3488 -1.0319
 9636SOL    HW240888  13.283   8.698   7.927 -0.3319 -0.2688 -0.0149
 9637SOL     OW40889   3.680   6.292   8.717  0.1619 -0.3381 -0.0056
 9637SOL    HW140890   3.727   6.279   8.635  2.2140  0.4126  0.9710
 9637SOL    HW240891   3.614   6.358   8.696 -0.6486 -1.5507 -1.4691
 9638SOL     OW40892   0.514  13.357   5.691 -0.0464  0.3526 -0.4718
 9638SOL    HW140893   0.427  13.319   5.677 -0.0962  0.6246 -0.9412
 9638SOL    HW240894   0.509  13.444   5.650  0.0876  0.8401  0.5181
 9639SOL     OW40895  10.490  12.637   1.851 -0.1728 -0.3273  0.4778
 9639SOL    HW140896  10.513  12.622   1.943 -1.2151 -1.3794  0.5798
 9639SOL    HW240897  10.442  12.720   1.852  0.5340  0.0929  0.7499
 9640SOL     OW40898   5.617   9.785   8.559 -0.7939 -0.4607 -0.0861
 9640SOL    HW140899   5.609   9.756   8.468 -0.7758  0.4296 -0.3773
 9640SOL    HW240900   5.694   9.841   8.560 -2.3106  1.7621 -0.1456
 9641SOL     OW40901   8.041   5.698  13.292  0.3817 -0.1933 -0.3145
 9641SOL    HW140902   8.058   5.700  13.198  1.6477  1.0788 -0.0848
 9641SOL    HW240903   7.949   5.670  13.299 -0.5758  2.2036 -2.0517
 9642SOL     OW40904  10.194  13.940  11.916 -0.0653  0.2229 -0.2547
 9642SOL    HW140905  10.213  13.850  11.887 -0.9294  0.3718 -1.3622
 9642SOL    HW240906  10.220  13.995  11.842  2.0730  1.0894  1.0451
 9643SOL     OW40907  10.286   2.639   4.995  0.0201  0.3608  0.0886
 9643SOL    HW140908  10.313   2.643   5.086  1.8841  3.4305 -0.4457
 9643SOL    HW240909  10.269   2.546   4.978  0.8440 -0.4403  3.1728
 9644SOL     OW40910  12.343  11.307  12.616  0.4484  0.3283  0.0982
 9644SOL    HW140911  12.336  11.399  12.643  1.1154  1.1509 -2.2658
 9644SOL    HW240912  12.289  11.301  12.537  0.1404 -1.4156  0.4059
 9645SOL     OW40913  12.714   7.469  13.447 -0.6489 -0.0703  0.1416
 9645SOL    HW140914  12.795   7.420  13.456  0.4778  1.8931  1.1528
 9645SOL    HW240915  12.728   7.525  13.370 -0.8538  0.5959  0.5814
 9646SOL     OW40916  13.439   3.885  14.001  0.0372  0.4099  0.5646
 9646SOL    HW140917  13.397   3.903  13.916  0.8533 -0.9702 -0.1702
 9646SOL    HW240918  13.515   3.942  14.002 -1.1217  2.0208  1.3621
 9647SOL     OW40919   6.350   1.430   0.351 -0.0536 -0.7435  0.2995
 9647SOL    HW140920   6.354   1.505   0.292 -0.5346 -0.8863  0.0830
 9647SOL    HW240921   6.405   1.455   0.425  2.5285 -1.4883 -1.2204
 9648SOL     OW40922   8.338  14.042  12.160  0.2359  0.1588  0.2906
 9648SOL    HW140923   8.272  14.071  12.224 -0.1073 -0.6012  0.2929
 9648SOL    HW240924   8.357  14.121  12.108 -0.6433  0.3992  0.3163
 9649SOL     OW40925   8.253  11.454   2.138 -0.4087  0.5905  0.2277
 9649SOL    HW140926   8.280  11.374   2.183  1.3393  1.9043  1.7246
 9649SOL    HW240927   8.164  11.470   2.169 -1.3417 -1.4491 -1.1946
 9650SOL     OW40928  14.036   8.222   8.393 -0.0233 -0.5653  0.2201
 9650SOL    HW140929  13.959   8.279   8.386 -0.6943 -1.5596 -0.7520
 9650SOL    HW240930  14.011   8.157   8.459 -0.6067 -1.7378 -1.1065
 9651SOL     OW40931  12.128   8.417   6.948  1.1735  0.0605  0.2304
 9651SOL    HW140932  12.167   8.418   7.035  0.5654  2.4682  0.5476
 9651SOL    HW240933  12.149   8.503   6.911 -0.6740  0.0334 -1.0161
 9652SOL     OW40934  13.599   9.259   6.915  0.3319  0.4164  0.1679
 9652SOL    HW140935  13.659   9.288   6.984  1.4185  0.2254 -0.6622
 9652SOL    HW240936  13.614   9.165   6.909  0.8935  0.5641 -0.9086
 9653SOL     OW40937  13.861   7.639   4.560 -0.0371 -0.5377 -0.0123
 9653SOL    HW140938  13.849   7.547   4.583 -0.4644 -0.2327  1.0900
 9653SOL    HW240939  13.775   7.666   4.527  0.0600 -0.5198 -0.2444
 9654SOL     OW40940   7.424   1.991   0.287 -0.0634  0.1887 -0.0027
 9654SOL    HW140941   7.449   1.908   0.327 -1.5437 -0.1341  0.3165
 9654SOL    HW240942   7.496   2.050   0.308 -0.6540 -0.0039  3.0403
 9655SOL     OW40943  11.640   7.154   5.977  0.1045 -0.0753  0.0934
 9655SOL    HW140944  11.552   7.153   6.014  0.7226 -1.8314  1.7095
 9655SOL    HW240945  11.698   7.158   6.053  1.4198 -1.5897 -0.7658
 9656SOL     OW40946   1.899  11.389  11.619 -0.0620  0.1495 -1.0721
 9656SOL    HW140947   1.972  11.400  11.558  0.0613 -0.8610 -1.1220
 9656SOL    HW240948   1.873  11.297  11.610  1.2483 -0.6302  1.8252
 9657SOL     OW40949   0.843   2.702   3.463 -0.5601 -0.2318 -0.3759
 9657SOL    HW140950   0.890   2.784   3.480  0.5131 -0.7764 -0.6585
 9657SOL    HW240951   0.809   2.676   3.549  0.2924 -0.2193 -0.0280
 9658SOL     OW40952   7.924   6.255   1.615  0.5933  0.4267 -0.2341
 9658SOL    HW140953   8.015   6.239   1.640  0.1646 -3.1531 -0.4698
 9658SOL    HW240954   7.875   6.184   1.655 -1.4846 -0.1683 -3.4904
 9659SOL     OW40955   3.754  12.523  11.206 -0.2151 -0.2695 -0.4017
 9659SOL    HW140956   3.697  12.535  11.131 -2.1298  0.2397  1.0464
 9659SOL    HW240957   3.694  12.504  11.279  1.5304 -0.5062  1.0484
 9660SOL     OW40958   2.177   0.334   3.176  0.0397 -0.0077  0.1566
 9660SOL    HW140959   2.265   0.350   3.211  0.3240  0.5478 -0.8014
 9660SOL    HW240960   2.170   0.238   3.173 -0.3379 -0.1374  2.5546
 9661SOL     OW40961   6.539  12.444  11.129  0.0225 -0.6118  0.2043
 9661SOL    HW140962   6.607  12.380  11.108  0.3061 -0.4683  0.6803
 9661SOL    HW240963   6.550  12.461  11.222 -0.5270 -0.4227  0.2363
 9662SOL     OW40964  12.014  12.570   3.823  0.2151  0.0928 -0.8470
 9662SOL    HW140965  11.941  12.618   3.784  1.3698  2.4349 -0.2591
 9662SOL    HW240966  11.979  12.536   3.905 -1.1395 -1.7347 -2.0831
 9663SOL     OW40967  13.669  13.090   4.934 -0.0593  0.3443 -0.1866
 9663SOL    HW140968  13.611  13.152   4.979 -0.9401  0.2221 -1.1353
 9663SOL    HW240969  13.746  13.083   4.992 -1.2024  0.0987  1.3727
 9664SOL     OW40970   6.898   6.244   6.195 -0.6149  0.5378  0.2411
 9664SOL    HW140971   6.807   6.265   6.174 -1.1332 -0.9089  0.9193
 9664SOL    HW240972   6.904   6.149   6.183  0.8225  0.6093  0.1808
 9665SOL     OW40973   5.564   8.386   1.692  0.0716  0.0367 -0.4855
 9665SOL    HW140974   5.634   8.321   1.693 -1.6306 -1.9234 -1.3040
 9665SOL    HW240975   5.606   8.467   1.722  2.2222 -1.4708  0.8781
 9666SOL     OW40976   1.644   2.225   6.799 -0.1019  0.1678  0.4422
 9666SOL    HW140977   1.724   2.174   6.812  0.1436  0.8034  1.5447
 9666SOL    HW240978   1.626   2.263   6.884 -0.9930  0.8973 -0.0567
 9667SOL     OW40979   7.622   3.911   7.263 -0.0427 -0.1722 -0.6434
 9667SOL    HW140980   7.709   3.950   7.278 -0.0744 -0.0325 -0.8272
 9667SOL    HW240981   7.560   3.978   7.292 -0.1303 -1.7301  3.5378
 9668SOL     OW40982   3.056   9.860   6.116 -0.1335  0.5347  0.0248
 9668SOL    HW140983   3.069   9.822   6.030 -0.1667  1.6430 -0.4903
 9668SOL    HW240984   3.140   9.901   6.137 -0.5454  1.4520 -0.0900
 9669SOL     OW40985   2.095  13.185   7.898  0.0368  0.0320  0.1830
 9669SOL    HW140986   2.085  13.092   7.879 -0.7160  0.0691  0.3947
 9669SOL    HW240987   2.189  13.195   7.918  0.3938 -0.4279 -1.1430
 9670SOL     OW40988   7.348   2.403   1.239 -0.2646 -0.0270 -0.5930
 9670SOL    HW140989   7.334   2.347   1.163  2.3590 -1.2955 -0.2385
 9670SOL    HW240990   7.286   2.371   1.305 -0.2189 -1.1622 -1.0861
 9671SOL     OW40991  13.783  12.682  11.129 -0.1373  0.1591  0.4032
 9671SOL    HW140992  13.707  12.741  11.126 -0.5987 -0.4749 -1.9273
 9671SOL    HW240993  13.853  12.735  11.166 -1.3667  1.1596  1.3907
 9672SOL     OW40994   2.456   1.914   6.033 -0.4664 -0.0769  0.0625
 9672SOL    HW140995   2.444   1.866   5.951 -2.4339  0.6917 -0.1507
 9672SOL    HW240996   2.519   1.983   6.012 -2.2726  1.2463 -1.3777
 9673SOL     OW40997   7.661   0.867   3.255 -0.0906  0.1754  0.3468
 9673SOL    HW140998   7.732   0.847   3.195 -1.2505 -0.8981 -0.7214
 9673SOL    HW240999   7.653   0.789   3.311 -0.3749  0.3209  0.5150
 9674SOL     OW41000  10.477  11.890   4.335  0.1000  0.4048  0.2556
 9674SOL    HW141001  10.491  11.907   4.428 -1.6552  0.4930  0.5413
 9674SOL    HW241002  10.456  11.976   4.298  0.8326  0.3770 -0.2509
 9675SOL     OW41003   1.323   4.282   1.077 -0.5217  0.4070  0.6238
 9675SOL    HW141004   1.294   4.271   0.987 -1.2015 -0.2529  0.9114
 9675SOL    HW241005   1.255   4.335   1.118 -0.1214  0.8627  0.7041
 9676SOL     OW41006   2.714   8.160   5.321  0.4418 -0.0380 -0.2246
 9676SOL    HW141007   2.637   8.111   5.294  0.1636  0.1113  0.2828
 9676SOL    HW241008   2.788   8.115   5.280  0.1787 -0.7885  0.1164
 9677SOL     OW41009   6.222  12.098   2.494 -0.0207  0.0233  0.0223
 9677SOL    HW141010   6.253  12.187   2.506  0.2116 -0.0269 -0.1971
 9677SOL    HW241011   6.220  12.086   2.399 -1.3288  0.2443 -0.0081
 9678SOL     OW41012   4.104   8.713   0.715 -0.1001  0.2164 -0.1076
 9678SOL    HW141013   4.055   8.795   0.729 -2.1595 -0.6421 -1.6040
 9678SOL    HW241014   4.135   8.720   0.625 -0.1877 -0.5845 -0.2033
 9679SOL     OW41015   2.599   2.697   8.472 -0.5650 -0.2723  0.0942
 9679SOL    HW141016   2.536   2.742   8.529  0.2993 -0.5924  1.3648
 9679SOL    HW241017   2.589   2.738   8.387 -2.1256  0.0323  0.3961
 9680SOL     OW41018   9.358   7.167   9.361 -0.1989  0.1552  0.1164
 9680SOL    HW141019   9.413   7.184   9.284 -0.4912 -0.4396 -0.2278
 9680SOL    HW241020   9.349   7.253   9.402  0.7650  0.3076  0.0335
 9681SOL     OW41021   5.056   4.903   7.044  0.1748  0.9739  0.7532
 9681SOL    HW141022   5.015   4.919   7.129  0.4330  0.2526  1.0296
 9681SOL    HW241023   5.107   4.823   7.058  0.0339  0.7244 -0.1545
 9682SOL     OW41024  10.550   9.204   0.445  0.0500  0.4946 -0.1303
 9682SOL    HW141025  10.496   9.127   0.428 -0.0340  0.4620  0.2649
 9682SOL    HW241026  10.513   9.242   0.525  0.4459  0.6198 -0.0033
 9683SOL     OW41027   9.488   0.907   7.776 -0.0057 -0.0113 -0.0161
 9683SOL    HW141028   9.432   0.836   7.809 -1.0757  1.0916  0.6578
 9683SOL    HW241029   9.439   0.943   7.701  0.1616  0.4756  0.1039
 9684SOL     OW41030  12.566  11.400  10.504  0.0513 -0.3078  0.0401
 9684SOL    HW141031  12.513  11.360  10.435  0.4826 -2.0698  0.6796
 9684SOL    HW241032  12.563  11.494  10.484 -1.9858 -0.4916 -0.8456
 9685SOL     OW41033  12.720   2.810   8.901  0.0592  0.1859  0.7801
 9685SOL    HW141034  12.628   2.789   8.918  0.0189  0.7557  1.2936
 9685SOL    HW241035  12.769   2.742   8.949 -0.0801 -1.1856 -0.9143
 9686SOL     OW41036   7.972   2.829   0.005 -0.4989 -0.3056  0.1322
 9686SOL    HW141037   7.911   2.861   0.071 -1.6386 -1.3060 -0.4009
 9686SOL    HW241038   7.926   2.756  -0.038  0.6192 -0.3562 -1.0582
 9687SOL     OW41039  10.250   6.937   6.770  0.1224  0.3085  0.0669
 9687SOL    HW141040  10.202   7.010   6.730 -0.0221  1.1280  1.6387
 9687SOL    HW241041  10.302   6.978   6.839  1.1285 -0.9128  0.0690
 9688SOL     OW41042   8.299   0.391   1.025 -0.0497 -0.3736  0.6732
 9688SOL    HW141043   8.328   0.317   1.078 -0.5895 -1.0556  0.0465
 9688SOL    HW241044   8.300   0.359   0.935  0.7758  0.7394  0.2593
 9689SOL     OW41045  10.474   1.024   5.206  0.0854 -0.0797  0.0687
 9689SOL    HW141046  10.562   0.990   5.194 -0.2595 -1.0846  0.2191
 9689SOL    HW241047  10.485   1.113   5.239  1.0361  0.1642 -0.8682
 9690SOL     OW41048   1.462   0.102  11.164  0.1226 -0.7639 -0.3216
 9690SOL    HW141049   1.461   0.026  11.107  1.2508  0.5044 -2.1261
 9690SOL    HW241050   1.500   0.070  11.246  1.5840 -1.9124 -1.3974
 9691SOL     OW41051   2.291   1.902   0.367 -0.7434  0.2605 -0.0551
 9691SOL    HW141052   2.323   1.844   0.436 -0.3920  1.2766  0.6614
 9691SOL    HW241053   2.225   1.851   0.321 -0.1022 -0.8720  0.2481
 9692SOL     OW41054   7.645   2.834   6.103  0.0666  0.4030 -0.5605
 9692SOL    HW141055   7.621   2.927   6.109 -1.1631  0.0048  2.7308
 9692SOL    HW241056   7.567   2.791   6.068  0.4389  0.4963 -1.5445
 9693SOL     OW41057   0.188   7.275   0.351 -1.0284 -0.1339 -0.6824
 9693SOL    HW141058   0.121   7.231   0.298 -0.9794  0.2750 -1.0876
 9693SOL    HW241059   0.210   7.354   0.302 -0.1262 -0.3496 -0.6377
 9694SOL     OW41060  11.163  11.096   0.280  0.0338  0.1804 -0.2501
 9694SOL    HW141061  11.219  11.020   0.263  0.8867  0.3558  1.5150
 9694SOL    HW241062  11.128  11.120   0.194  0.9303 -1.2892 -1.0649
 9695SOL     OW41063  13.453   6.640   7.103 -0.3517  0.4344 -1.0851
 9695SOL    HW141064  13.414   6.599   7.180  4.5083  0.6417  1.9337
 9695SOL    HW241065  13.435   6.733   7.114 -0.0603  0.4170 -0.4110
 9696SOL     OW41066   3.110   1.147   9.282  0.1008 -0.2535  0.6988
 9696SOL    HW141067   3.052   1.071   9.295 -0.6499  0.2879  0.5395
 9696SOL    HW241068   3.054   1.223   9.296 -0.2324  0.4118 -3.0943
 9697SOL     OW41069   2.877   4.351   2.378  0.2318 -0.4827  0.0310
 9697SOL    HW141070   2.963   4.319   2.406  0.5246  0.1797 -0.1054
 9697SOL    HW241071   2.860   4.427   2.434  0.9638  1.0599 -1.7528
 9698SOL     OW41072   7.057   9.411   2.673  0.0608 -0.4084  0.1026
 9698SOL    HW141073   7.136   9.441   2.718 -1.2840  0.9829  1.6272
 9698SOL    HW241074   7.025   9.338   2.725 -0.2481 -0.2733  0.1067
 9699SOL     OW41075   1.216   6.650  12.298 -0.1978 -0.0409  0.1030
 9699SOL    HW141076   1.187   6.727  12.249  0.3568 -0.5821 -1.0884
 9699SOL    HW241077   1.142   6.630  12.356 -0.2897  1.4641  0.5505
 9700SOL     OW41078   3.467  11.004  11.192 -0.0345  0.1413  0.8128
 9700SOL    HW141079   3.449  11.098  11.197 -0.2987  0.0925  0.8096
 9700SOL    HW241080   3.534  10.996  11.124 -0.6669  0.2429  0.1709
 9701SOL     OW41081   6.122   0.481   5.388  0.1882  0.6158  0.8103
 9701SOL    HW141082   6.075   0.529   5.319  1.4885  0.4122 -0.2554
 9701SOL    HW241083   6.186   0.428   5.341 -0.1679 -1.0169  2.0628
 9702SOL     OW41084   2.352   1.392   4.318 -0.1705 -0.0075  0.4322
 9702SOL    HW141085   2.291   1.464   4.331  0.7190  1.0269 -0.8836
 9702SOL    HW241086   2.310   1.317   4.361 -1.3754  1.1424  1.3399
 9703SOL     OW41087   7.094   1.924  13.735  0.1846 -0.1473 -0.7933
 9703SOL    HW141088   7.095   1.842  13.686  0.1593 -0.0190 -1.0107
 9703SOL    HW241089   7.065   1.899  13.823 -1.4797 -0.1251 -1.3041
 9704SOL     OW41090   9.881   5.931   1.460 -0.3244 -0.3098 -0.5348
 9704SOL    HW141091   9.964   5.896   1.429 -0.2535 -0.2713 -0.3878
 9704SOL    HW241092   9.814   5.880   1.413 -0.2180 -0.2580 -0.7421
 9705SOL     OW41093   8.129   5.853  12.304  0.1909 -0.0350 -0.0627
 9705SOL    HW141094   8.194   5.857  12.234 -0.5628  0.9198 -0.7447
 9705SOL    HW241095   8.093   5.942  12.309 -0.6664 -0.3974  0.6700
 9706SOL     OW41096   6.102   6.552  11.284  0.9128 -0.2352  0.0086
 9706SOL    HW141097   6.072   6.484  11.224  0.0055  0.1763 -0.0194
 9706SOL    HW241098   6.023   6.599  11.309  1.7118  2.1909 -1.6461
 9707SOL     OW41099   2.148   1.546   0.568  0.2177  0.1740  0.0463
 9707SOL    HW141100   2.211   1.618   0.558 -0.2331  0.7237  1.0836
 9707SOL    HW241101   2.183   1.493   0.639 -0.4469  0.4484  0.5858
 9708SOL     OW41102  13.696   4.974   1.539  0.6844  0.9404  0.0968
 9708SOL    HW141103  13.627   4.966   1.474 -0.1920 -2.1537  1.2126
 9708SOL    HW241104  13.776   4.950   1.493  0.3983  0.7851 -0.3228
 9709SOL     OW41105   2.125  13.491   4.318 -0.5225 -0.4047 -0.2073
 9709SOL    HW141106   2.121  13.398   4.297  2.1294 -0.4998 -0.5486
 9709SOL    HW241107   2.140  13.535   4.234 -0.1380  0.1868  0.1614
 9710SOL     OW41108   2.341   9.996  10.508 -0.0035  0.5128 -0.7220
 9710SOL    HW141109   2.420   9.949  10.484 -0.9725 -1.3950 -0.3210
 9710SOL    HW241110   2.352  10.083  10.468  3.0108  0.9293  0.7448
 9711SOL     OW41111   3.395  11.754   9.003 -0.3448 -0.2835  0.1341
 9711SOL    HW141112   3.429  11.668   8.979  2.6961  0.6300  0.6880
 9711SOL    HW241113   3.321  11.768   8.945  1.8074 -1.4391 -3.1893
 9712SOL     OW41114   6.323   0.621   1.850 -0.3292  0.0602  0.2106
 9712SOL    HW141115   6.345   0.705   1.812  0.8150 -0.7810 -1.0472
 9712SOL    HW241116   6.254   0.586   1.793 -1.9085  0.7578  1.5995
 9713SOL     OW41117   3.855   2.977   1.603 -0.5519  0.2186 -0.0207
 9713SOL    HW141118   3.806   2.918   1.546  1.3701 -2.0022  0.4446
 9713SOL    HW241119   3.879   3.051   1.546 -1.5883 -0.2449 -1.1133
 9714SOL     OW41120   8.527   1.884   8.365  0.1838 -0.4233  0.1911
 9714SOL    HW141121   8.432   1.882   8.354  0.3370 -0.4155 -1.3193
 9714SOL    HW241122   8.551   1.976   8.351  0.6074 -0.7562 -1.4615
 9715SOL     OW41123   4.279   2.853   6.660 -0.2684  0.1701 -0.6204
 9715SOL    HW141124   4.294   2.832   6.569  1.5356  0.0804 -0.3293
 9715SOL    HW241125   4.357   2.902   6.687 -2.1493  3.1033  0.0164
 9716SOL     OW41126   0.847   2.621   5.492 -0.1548  1.0239  0.0486
 9716SOL    HW141127   0.796   2.609   5.572 -0.0741  1.6987  0.2096
 9716SOL    HW241128   0.837   2.714   5.471  1.1779  1.2147  0.1927
 9717SOL     OW41129   9.008   6.094   0.365 -0.3668 -0.3151 -0.1772
 9717SOL    HW141130   8.968   6.172   0.403 -0.3322 -0.8270  0.9591
 9717SOL    HW241131   9.023   6.036   0.440 -1.2824 -1.8236 -1.1048
 9718SOL     OW41132  13.524  12.584   3.258  0.7045 -0.1878  0.8667
 9718SOL    HW141133  13.539  12.527   3.333 -0.6937 -0.8242  0.6986
 9718SOL    HW241134  13.429  12.598   3.258  0.8410  0.8563 -0.0276
 9719SOL     OW41135  13.942  11.804  11.480  0.0026 -0.1553  0.6516
 9719SOL    HW141136  13.862  11.775  11.524 -0.9022  2.3033  0.7652
 9719SOL    HW241137  13.911  11.866  11.415  1.8407  1.0362  0.8735
 9720SOL     OW41138   5.530   9.771   7.369 -0.7262 -0.0495  0.7990
 9720SOL    HW141139   5.483   9.723   7.436  2.4294 -1.0343  2.4937
 9720SOL    HW241140   5.549   9.856   7.409  0.0298 -0.1524  0.6831
 9721SOL     OW41141   2.230  11.598   8.387  0.5475 -0.1850  0.2652
 9721SOL    HW141142   2.207  11.535   8.456  0.3981  0.5975  0.9436
 9721SOL    HW241143   2.259  11.543   8.314  1.2506 -1.0177  1.1384
 9722SOL     OW41144   9.708   5.838   6.649  0.0926 -0.7502  0.0106
 9722SOL    HW141145   9.740   5.809   6.564 -0.4054 -0.2816 -0.3431
 9722SOL    HW241146   9.614   5.850   6.637  0.2243  0.6773  0.2345
 9723SOL     OW41147  12.052  11.526   2.191  0.3631 -0.3165 -0.1156
 9723SOL    HW141148  12.117  11.480   2.244  0.0261  2.0247  2.5434
 9723SOL    HW241149  12.098  11.602   2.156  0.1044 -0.8947 -1.8167
 9724SOL     OW41150   2.894   7.905   9.303 -0.0991 -0.4361  0.0603
 9724SOL    HW141151   2.934   7.955   9.374 -0.0151 -0.5004  0.0583
 9724SOL    HW241152   2.911   7.813   9.325 -0.5667 -0.4787  0.2481
 9725SOL     OW41153   6.119   1.175   1.127  0.1505 -0.7756  0.1044
 9725SOL    HW141154   6.144   1.123   1.204  0.4515  1.3818  1.5634
 9725SOL    HW241155   6.198   1.224   1.105 -0.3503 -0.3328 -0.7316
 9726SOL     OW41156  10.267  10.714   1.784 -0.0262  0.0532 -0.4865
 9726SOL    HW141157  10.195  10.741   1.840 -0.9531 -0.6907 -1.2869
 9726SOL    HW241158  10.345  10.745   1.829 -0.7750 -0.0265  0.9241
 9727SOL     OW41159   4.746   9.571  12.157  0.5452 -0.2029 -0.5925
 9727SOL    HW141160   4.656   9.539  12.162 -0.0524  1.4977  0.5918
 9727SOL    HW241161   4.749   9.644  12.219  2.8807 -0.4912 -0.2805
 9728SOL     OW41162   6.384   0.419   3.671  0.2232 -0.2377  0.1171
 9728SOL    HW141163   6.409   0.467   3.592 -0.7114  1.0835  0.5799
 9728SOL    HW241164   6.465   0.411   3.722  0.5163  0.3245 -0.2553
 9729SOL     OW41165   2.563   7.677   9.435 -0.0910  0.3268 -0.2128
 9729SOL    HW141166   2.567   7.723   9.518  0.5291 -0.2404  0.0767
 9729SOL    HW241167   2.620   7.601   9.446  0.3956  0.5076 -1.3203
 9730SOL     OW41168   8.169   6.057   9.580  0.0518 -0.3097  0.1770
 9730SOL    HW141169   8.151   6.136   9.631 -1.0243  0.2997 -1.0803
 9730SOL    HW241170   8.210   5.997   9.642  0.6152  1.1143  1.2397
 9731SOL     OW41171   1.415   6.611   6.254  0.2401 -0.2986 -0.0868
 9731SOL    HW141172   1.326   6.587   6.281 -0.8672  1.7901 -1.6085
 9731SOL    HW241173   1.454   6.648   6.333 -0.9455  0.5335  0.1331
 9732SOL     OW41174   9.899   8.037  11.451 -0.2344  0.1806  0.1733
 9732SOL    HW141175   9.911   8.010  11.542  0.5459 -1.0775 -0.2678
 9732SOL    HW241176   9.987   8.030  11.413 -0.7335 -0.2619 -0.9229
 9733SOL     OW41177  12.004   2.294   6.500 -0.0173  0.1596  0.3905
 9733SOL    HW141178  12.003   2.251   6.586 -1.2162  0.1887  0.4181
 9733SOL    HW241179  11.987   2.224   6.437 -0.3998  0.3282  0.2991
 9734SOL     OW41180   0.210   8.667  10.084 -0.1972 -0.0387  0.0982
 9734SOL    HW141181   0.246   8.698  10.000 -0.5569  1.3754  0.4384
 9734SOL    HW241182   0.176   8.580  10.065  0.2268  0.0370 -1.0896
 9735SOL     OW41183   3.462   8.395  13.112 -0.0721 -0.0872  0.1651
 9735SOL    HW141184   3.531   8.460  13.121 -0.8636  0.6909  0.8352
 9735SOL    HW241185   3.501   8.313  13.144  1.0581 -0.0533 -1.0541
 9736SOL     OW41186   3.951   7.140  11.635 -0.4985  0.4785  0.4622
 9736SOL    HW141187   3.913   7.078  11.572  1.2119 -0.1945  0.0465
 9736SOL    HW241188   3.888   7.140  11.707 -0.2570 -2.3322  0.8143
 9737SOL     OW41189   1.977  11.943   1.301  1.1238 -0.2945  0.8363
 9737SOL    HW141190   1.909  11.984   1.354  1.0945 -2.1362  2.3727
 9737SOL    HW241191   2.052  11.935   1.360  2.0323 -0.0125 -0.2435
 9738SOL     OW41192   9.692  10.428   2.345  0.4058 -0.0178 -0.3517
 9738SOL    HW141193   9.602  10.397   2.352  0.0908  0.9193 -0.0788
 9738SOL    HW241194   9.715  10.415   2.253 -0.7114  1.5413 -0.9013
 9739SOL     OW41195   5.762   6.539   4.214 -0.0804  0.3706 -0.9076
 9739SOL    HW141196   5.734   6.592   4.289 -0.3771 -0.6419 -0.2906
 9739SOL    HW241197   5.727   6.585   4.138 -3.8391 -0.9616 -0.2081
 9740SOL     OW41198  13.874  11.534   8.974 -0.6373 -0.0198  0.2607
 9740SOL    HW141199  13.903  11.447   9.003 -0.0561  0.2250  0.4235
 9740SOL    HW241200  13.779  11.532   8.986 -0.9541 -1.4651 -1.9842
 9741SOL     OW41201   2.645   9.315   2.340 -0.0216  0.1724  0.4555
 9741SOL    HW141202   2.710   9.246   2.347  1.4565  1.3327 -0.8702
 9741SOL    HW241203   2.679   9.386   2.396 -1.1239  0.1390  1.2086
 9742SOL     OW41204   0.915  10.524  12.042 -0.2840  0.2549 -0.0457
 9742SOL    HW141205   0.829  10.564  12.052  0.3096  1.6794 -0.3750
 9742SOL    HW241206   0.969  10.593  12.002  1.0726 -0.5166  0.3862
 9743SOL     OW41207   3.413   1.019   7.687  0.1009 -0.0441 -0.2274
 9743SOL    HW141208   3.469   0.959   7.636  2.9156  0.3557  2.1083
 9743SOL    HW241209   3.375   0.963   7.755  1.7825  0.4774  1.2251
 9744SOL     OW41210   5.997   6.100  13.685 -0.6690 -0.0494  0.2813
 9744SOL    HW141211   5.926   6.112  13.621 -0.6706 -0.1710  0.2596
 9744SOL    HW241212   5.980   6.013  13.723 -1.4704  0.5918  1.4479
 9745SOL     OW41213  13.912  10.131   8.335 -0.1188  0.0201  0.1426
 9745SOL    HW141214  13.916  10.132   8.430 -0.9163  2.8483  0.2263
 9745SOL    HW241215  14.001  10.153   8.307  0.1326 -0.8794  0.2188
 9746SOL     OW41216   0.503   9.521   4.203  0.5092  0.1202 -0.5004
 9746SOL    HW141217   0.559   9.516   4.281 -0.9034 -1.1846  0.4708
 9746SOL    HW241218   0.564   9.534   4.131  1.9223  0.5363  0.7194
 9747SOL     OW41219   6.786   7.183   4.623  0.2868 -0.3212 -0.2121
 9747SOL    HW141220   6.876   7.202   4.597 -0.0311  1.3247 -0.2065
 9747SOL    HW241221   6.793   7.155   4.714  0.4672  4.3292  1.4423
 9748SOL     OW41222  12.783  13.861   4.600 -0.0372 -0.1564  0.5759
 9748SOL    HW141223  12.749  13.831   4.684  0.9125 -2.8457  0.0901
 9748SOL    HW241224  12.878  13.864   4.613  0.1382 -0.8914 -0.4588
 9749SOL     OW41225  13.325   8.337   0.861 -0.2481 -0.8493  0.8137
 9749SOL    HW141226  13.230   8.328   0.862 -0.2835 -1.5229 -1.6957
 9749SOL    HW241227  13.341   8.425   0.896 -2.0511  0.5558 -1.6244
 9750SOL     OW41228   5.604   7.128  12.706 -0.3403  0.7379  0.5353
 9750SOL    HW141229   5.527   7.072  12.714  0.8880 -1.2842 -0.8072
 9750SOL    HW241230   5.588   7.200  12.767 -1.6230 -1.4834  3.0146
 9751SOL     OW41231  12.995  10.398   3.810  0.8251 -0.0117 -0.0605
 9751SOL    HW141232  12.911  10.351   3.813  1.6280 -1.4584  0.8644
 9751SOL    HW241233  13.033  10.384   3.897  1.9467  0.8005 -0.4008
 9752SOL     OW41234  10.347   3.008   5.222  0.1970  0.2284 -0.4456
 9752SOL    HW141235  10.366   3.094   5.258 -1.6843  0.6751 -0.4370
 9752SOL    HW241236  10.433   2.968   5.209  1.0759  1.8424  0.1560
 9753SOL     OW41237   4.585   8.026   1.858 -0.4351 -0.4763  0.6786
 9753SOL    HW141238   4.650   8.071   1.804  1.1309 -3.1638  0.1477
 9753SOL    HW241239   4.532   8.097   1.895  0.2252  1.6413 -2.0568
 9754SOL     OW41240   4.008   8.805  11.443  0.1349 -0.2130 -0.0337
 9754SOL    HW141241   4.024   8.862  11.368  0.4802  0.7065  0.7124
 9754SOL    HW241242   4.092   8.799  11.488 -0.1650 -0.3868  0.5226
 9755SOL     OW41243   6.363   0.928   1.962  0.5912  0.4395  0.1055
 9755SOL    HW141244   6.453   0.924   1.929  0.5177 -0.6580 -0.0137
 9755SOL    HW241245   6.352   1.019   1.991  1.2345  0.9826 -1.2666
 9756SOL     OW41246   1.620   3.216   8.089 -0.5501  0.1685 -0.1886
 9756SOL    HW141247   1.594   3.243   8.001 -1.1889 -1.1921 -0.4502
 9756SOL    HW241248   1.687   3.149   8.074 -1.6230 -1.0496  0.2884
 9757SOL     OW41249   8.696  13.790   6.819  0.0433 -0.4869 -0.8787
 9757SOL    HW141250   8.746  13.740   6.754 -1.4411 -0.3039 -2.2452
 9757SOL    HW241251   8.635  13.842   6.767 -0.1340  0.8848  0.6324
 9758SOL     OW41252   9.986   8.826   0.683  0.2068 -0.0956  0.0267
 9758SOL    HW141253  10.025   8.795   0.602 -0.7717 -0.6021 -0.2627
 9758SOL    HW241254   9.898   8.789   0.683 -0.1060  0.6151  0.8995
 9759SOL     OW41255   6.182   6.790   1.068 -0.1454  0.1756 -0.4958
 9759SOL    HW141256   6.113   6.793   1.134 -0.8065 -0.4273 -1.1414
 9759SOL    HW241257   6.153   6.852   1.001 -0.7406 -1.0199 -1.3875
 9760SOL     OW41258   7.836   4.131   3.742 -0.0621  0.2767  0.0615
 9760SOL    HW141259   7.818   4.055   3.798 -3.1958  1.3709  0.7238
 9760SOL    HW241260   7.840   4.205   3.802 -0.4942  1.1016 -0.8994
 9761SOL     OW41261   1.011   3.894  13.448 -0.2023 -0.4332  0.3790
 9761SOL    HW141262   1.054   3.852  13.374  0.6098 -1.0977  1.2160
 9761SOL    HW241263   0.933   3.841  13.464 -0.5673 -0.0888 -0.1937
 9762SOL     OW41264   6.473   8.684  12.531 -0.5941 -0.4425 -0.4022
 9762SOL    HW141265   6.486   8.778  12.520 -1.9591  0.0715  1.7816
 9762SOL    HW241266   6.557   8.652  12.563 -0.2179  0.0925 -0.8365
 9763SOL     OW41267   7.526   9.542   4.263 -0.0727 -0.2396  0.0094
 9763SOL    HW141268   7.622   9.540   4.267  0.0326  0.0775 -1.6660
 9763SOL    HW241269   7.499   9.543   4.355  1.4872 -1.4843  0.5466
 9764SOL     OW41270  12.326   6.465   1.079 -0.1771 -0.0091 -0.5520
 9764SOL    HW141271  12.385   6.450   1.005 -1.0507 -0.3594 -1.1949
 9764SOL    HW241272  12.287   6.379   1.096  0.1673  0.0202  0.4612
 9765SOL     OW41273  10.183   3.379  12.117 -0.3329  0.4191  0.5292
 9765SOL    HW141274  10.211   3.333  12.038 -1.2646 -1.4448  1.2351
 9765SOL    HW241275  10.090   3.396  12.102 -0.1671  1.4532  0.5962
 9766SOL     OW41276  10.671   5.521   9.925 -0.1304 -0.2012  0.4411
 9766SOL    HW141277  10.618   5.468   9.985  1.0656 -0.4918  1.2732
 9766SOL    HW241278  10.617   5.599   9.910 -1.0748 -0.7681  0.7384
 9767SOL     OW41279  11.820   8.890   0.697  0.1065 -0.4756  0.0195
 9767SOL    HW141280  11.866   8.838   0.632  1.3895 -0.7468  1.0911
 9767SOL    HW241281  11.753   8.831   0.733  0.0033 -0.6190 -0.4073
 9768SOL     OW41282   2.644   4.012   5.799 -0.0251  0.0876 -0.4444
 9768SOL    HW141283   2.633   4.099   5.761  0.5347  0.2169 -0.3191
 9768SOL    HW241284   2.618   4.022   5.891 -3.6739 -0.7429 -1.2175
 9769SOL     OW41285   3.903   4.803   4.746 -0.4289 -0.1871  0.1842
 9769SOL    HW141286   3.850   4.737   4.789  1.1980 -1.4472  0.3519
 9769SOL    HW241287   3.993   4.779   4.767  0.3691  0.1498 -2.5203
 9770SOL     OW41288   5.207   3.375   2.390  0.2364  0.0491  0.5757
 9770SOL    HW141289   5.225   3.469   2.387  0.2970  0.0230 -2.2237
 9770SOL    HW241290   5.115   3.368   2.416  0.4751  0.8072  1.6853
 9771SOL     OW41291   8.246   8.876  12.006 -0.6948  0.5304 -0.2168
 9771SOL    HW141292   8.153   8.866  12.029 -0.8624  1.1982 -0.5835
 9771SOL    HW241293   8.290   8.806  12.055 -1.4925 -0.3315 -0.6834
 9772SOL     OW41294   9.226   8.674   2.255 -0.0191  0.2728 -0.3994
 9772SOL    HW141295   9.271   8.745   2.209  0.8508 -1.1867 -1.9176
 9772SOL    HW241296   9.135   8.679   2.225 -0.1960  1.2800  0.2375
 9773SOL     OW41297  11.579   7.331   1.233  0.2635 -0.3428 -0.3017
 9773SOL    HW141298  11.588   7.425   1.217 -0.6167  0.1643  1.7493
 9773SOL    HW241299  11.615   7.289   1.155  1.7319  1.6761 -0.7906
 9774SOL     OW41300  12.196   7.982  13.656  0.3249 -0.0343 -0.0819
 9774SOL    HW141301  12.217   7.922  13.584  0.2974 -1.2316  0.8698
 9774SOL    HW241302  12.227   7.937  13.735 -3.4793 -0.8884  1.1807
 9775SOL     OW41303  11.753   7.632   6.782 -0.2942  0.0465 -0.1016
 9775SOL    HW141304  11.790   7.671   6.702 -0.0805  1.3230  0.5876
 9775SOL    HW241305  11.688   7.696   6.811 -0.2474 -0.3233  0.8382
 9776SOL     OW41306  13.165   2.933   5.560  0.2734 -0.5423  0.3445
 9776SOL    HW141307  13.075   2.959   5.541 -0.1762 -0.4467  2.4095
 9776SOL    HW241308  13.163   2.838   5.561  0.6726 -0.6130 -1.5541
 9777SOL     OW41309   4.469   2.221   0.651 -0.1256  0.1572  0.2519
 9777SOL    HW141310   4.565   2.224   0.654  0.1736 -0.6976 -3.7460
 9777SOL    HW241311   4.442   2.312   0.665  1.1558  0.3429  1.9153
 9778SOL     OW41312   2.385   9.926   3.698  0.4086 -0.1056  0.0281
 9778SOL    HW141313   2.429   9.863   3.756  1.0483  0.6073  0.3351
 9778SOL    HW241314   2.387   9.885   3.612  2.3009  0.1792 -0.1037
 9779SOL     OW41315  10.605  12.951   6.465  0.4317 -0.9488 -0.1690
 9779SOL    HW141316  10.656  13.017   6.512  0.5588 -1.3688  0.2956
 9779SOL    HW241317  10.521  12.949   6.511  0.2026 -0.6692 -0.5711
 9780SOL     OW41318   7.780   4.140   3.274 -0.1193  0.3664 -0.1598
 9780SOL    HW141319   7.835   4.160   3.350  0.7278 -0.1023 -0.6313
 9780SOL    HW241320   7.728   4.065   3.303  0.7226 -0.2786 -0.2656
 9781SOL     OW41321  10.486   6.233   5.006  0.1516 -0.1937  0.8756
 9781SOL    HW141322  10.429   6.157   4.999  0.2381 -0.4233  2.2514
 9781SOL    HW241323  10.575   6.197   4.996  0.0962  0.2282 -1.7256
 9782SOL     OW41324  12.117  13.879  14.017  0.4584 -0.3770 -0.0277
 9782SOL    HW141325  12.070  13.845  14.094  0.0345 -1.5841 -0.7882
 9782SOL    HW241326  12.193  13.924  14.054 -1.1029  1.3808  1.2285
 9783SOL     OW41327   0.498   3.952   0.422 -0.1947  0.0505  0.1805
 9783SOL    HW141328   0.554   4.013   0.375 -0.0910 -0.5504 -0.4989
 9783SOL    HW241329   0.514   3.867   0.380  1.6676 -1.0226  2.8045
 9784SOL     OW41330   9.283  11.967   7.069  0.5510  0.6439  0.0561
 9784SOL    HW141331   9.216  12.008   7.015  1.5010 -0.3195 -1.9370
 9784SOL    HW241332   9.271  11.873   7.055  1.1877  0.3788  1.1132
 9785SOL     OW41333   7.466   4.766  10.293  0.0733  0.0222 -0.0754
 9785SOL    HW141334   7.392   4.823  10.273  1.1303  0.8629 -1.9551
 9785SOL    HW241335   7.543   4.820  10.274  1.2228 -0.6502  2.3022
 9786SOL     OW41336   2.377   8.852   8.916  0.5281  0.3579  0.5681
 9786SOL    HW141337   2.377   8.783   8.982 -2.9211 -0.0417  0.3487
 9786SOL    HW241338   2.409   8.810   8.837  1.2516 -0.1720  1.1312
 9787SOL     OW41339   4.174   7.573  12.752 -0.2611 -0.5871 -0.6675
 9787SOL    HW141340   4.147   7.659  12.785  0.5573 -0.9957  1.1719
 9787SOL    HW241341   4.128   7.564  12.668 -0.2303  1.6941 -0.9696
 9788SOL     OW41342   0.639   9.405   8.905 -0.2699 -1.0291 -0.6493
 9788SOL    HW141343   0.647   9.372   8.816  0.0308 -1.3389 -0.5093
 9788SOL    HW241344   0.725   9.390   8.944  0.3237  1.0821 -0.9788
 9789SOL     OW41345   4.692   7.866   9.909 -0.4667 -0.2569  0.1616
 9789SOL    HW141346   4.663   7.943   9.861  0.2150  1.2814  2.1053
 9789SOL    HW241347   4.645   7.870   9.992 -0.1782 -1.7941  0.4337
 9790SOL     OW41348   7.691   0.819   0.262 -0.0423  0.0964  0.1607
 9790SOL    HW141349   7.648   0.902   0.282 -1.2024 -0.4834  0.1357
 9790SOL    HW241350   7.780   0.829   0.296 -0.5387  0.8922  1.2749
 9791SOL     OW41351   0.989   8.371   7.291 -0.8445  0.1722 -0.0397
 9791SOL    HW141352   0.941   8.453   7.290 -0.4673  0.3969 -0.5877
 9791SOL    HW241353   1.080   8.397   7.305 -0.9174 -0.2715  1.3677
 9792SOL     OW41354  11.705   4.034  12.252 -0.4593  0.3166  0.8496
 9792SOL    HW141355  11.738   4.006  12.166  0.1999  1.0938  0.8338
 9792SOL    HW241356  11.610   4.041  12.240 -0.7536 -2.3941  1.0165
 9793SOL     OW41357   6.424   9.889   3.318  0.5308 -0.4416  0.7837
 9793SOL    HW141358   6.411   9.975   3.359  1.9274  0.6258 -0.8614
 9793SOL    HW241359   6.489   9.845   3.373  0.6426  0.0267  1.0273
 9794SOL     OW41360   7.548   5.013  12.721 -0.4197  1.1168 -0.1375
 9794SOL    HW141361   7.480   4.980  12.780  0.9319 -1.8517 -0.0552
 9794SOL    HW241362   7.630   4.998  12.768  0.5020  1.6288 -1.5149
 9795SOL     OW41363  10.716   4.134   6.478 -0.1526 -0.0600  0.3634
 9795SOL    HW141364  10.724   4.043   6.450  2.2820  0.2783 -0.2856
 9795SOL    HW241365  10.761   4.137   6.563  1.6030  0.8750 -0.5505
 9796SOL     OW41366   0.024   0.385  12.818  0.4486 -0.2313 -0.0734
 9796SOL    HW141367   0.101   0.339  12.785  0.2274 -0.6071 -0.0720
 9796SOL    HW241368  -0.036   0.316  12.846  0.7190  0.0713  1.3392
 9797SOL     OW41369   5.879   8.667   2.539  0.1811 -0.0086 -0.0253
 9797SOL    HW141370   5.844   8.726   2.605 -1.5959 -2.1550  1.0692
 9797SOL    HW241371   5.918   8.595   2.589 -0.0473 -1.0474 -1.2811
 9798SOL     OW41372   0.885  12.571   6.193  0.4059 -0.0273  0.4240
 9798SOL    HW141373   0.956  12.553   6.254  2.2501  0.2819 -1.5264
 9798SOL    HW241374   0.882  12.494   6.137 -2.3235 -1.0195  1.7491
 9799SOL     OW41375   8.748   3.038  13.386  0.9188 -0.2645  0.1623
 9799SOL    HW141376   8.784   3.127  13.384  1.9069 -0.6190 -2.8367
 9799SOL    HW241377   8.729   3.018  13.295 -0.1994 -2.8101  0.8618
 9800SOL     OW41378   8.771   7.567   6.317  0.1286 -0.0465 -0.0792
 9800SOL    HW141379   8.801   7.639   6.374 -1.5627 -0.6892  1.7559
 9800SOL    HW241380   8.706   7.521   6.370 -0.2168 -1.8042 -1.9276
 9801SOL     OW41381  13.005  13.443  11.141  0.1117 -0.2737 -0.1205
 9801SOL    HW141382  13.026  13.526  11.098 -0.4484 -0.5906 -1.0279
 9801SOL    HW241383  13.089  13.396  11.144  0.5212  0.4806  0.7884
 9802SOL     OW41384  12.483  10.249   4.994 -0.3790  0.4519 -0.6467
 9802SOL    HW141385  12.504  10.281   4.906 -0.3764 -1.1075 -1.2387
 9802SOL    HW241386  12.565  10.210   5.026  0.4755  3.3899  1.2286
 9803SOL     OW41387  10.265  12.661   2.116 -0.0284  0.0259 -0.1508
 9803SOL    HW141388  10.360  12.662   2.102  0.0615  0.3162  0.4747
 9803SOL    HW241389  10.241  12.753   2.120 -0.4227 -0.0426 -0.8362
 9804SOL     OW41390   0.591   8.049   6.586 -0.4427 -0.0227  0.3690
 9804SOL    HW141391   0.612   8.096   6.506  0.1889  0.3230  0.7318
 9804SOL    HW241392   0.531   8.106   6.633  0.2873  0.4125  0.7877
 9805SOL     OW41393  10.252   0.399  12.864  0.2951  0.2769  0.0351
 9805SOL    HW141394  10.262   0.304  12.856 -0.7744  0.1449  0.1171
 9805SOL    HW241395  10.265   0.416  12.957 -1.1895 -0.0297  0.3245
 9806SOL     OW41396  13.467   8.696  11.156 -0.7936  0.1600 -0.4544
 9806SOL    HW141397  13.409   8.641  11.209 -1.6290  1.4692  0.0311
 9806SOL    HW241398  13.543   8.713  11.213 -2.0718  2.2765  0.7520
 9807SOL     OW41399   4.820   4.422   2.693 -0.0162  0.0119 -0.6064
 9807SOL    HW141400   4.745   4.451   2.745  0.3644 -0.4410  0.2192
 9807SOL    HW241401   4.877   4.500   2.687 -0.8645  0.5666 -1.8514
 9808SOL     OW41402   9.845   7.376   5.527  0.0893 -0.3761 -0.8220
 9808SOL    HW141403   9.834   7.431   5.605 -1.2803 -0.4538 -0.9334
 9808SOL    HW241404   9.876   7.292   5.560 -0.6447 -0.4613 -0.3176
 9809SOL     OW41405   5.899  12.830   6.139  0.0901 -0.1544  0.2617
 9809SOL    HW141406   5.864  12.804   6.054 -1.1384 -1.9218  1.2664
 9809SOL    HW241407   5.904  12.926   6.134 -2.2416 -0.0241 -0.9499
 9810SOL     OW41408   5.167   7.823   0.546 -0.5415  0.3677  0.4393
 9810SOL    HW141409   5.137   7.906   0.584 -0.5092  0.0468  1.1889
 9810SOL    HW241410   5.262   7.832   0.543 -0.5955  0.7235 -0.3626
 9811SOL     OW41411   7.296   6.129   2.981  0.1950 -0.2959 -0.2183
 9811SOL    HW141412   7.337   6.042   2.978  2.1317  0.5473  0.2980
 9811SOL    HW241413   7.245   6.135   2.900  0.2820 -1.7767 -0.4119
 9812SOL     OW41414  13.355   9.031   4.148 -0.1522  0.0684  0.3399
 9812SOL    HW141415  13.367   8.938   4.132  0.7840  0.2904 -0.3365
 9812SOL    HW241416  13.291   9.035   4.218 -2.5302 -1.0093 -1.6291
 9813SOL     OW41417   1.146  12.425   2.130 -0.3985  0.0213  0.1876
 9813SOL    HW141418   1.170  12.334   2.144  0.5414  0.4705  1.7699
 9813SOL    HW241419   1.050  12.425   2.130 -0.4106 -0.8195  1.3297
 9814SOL     OW41420  12.826  12.797   1.541  0.1737 -0.0190 -0.0381
 9814SOL    HW141421  12.899  12.848   1.506  1.5341 -0.9313  1.3824
 9814SOL    HW241422  12.826  12.717   1.489  0.4620 -0.2037  0.2454
 9815SOL     OW41423   1.855   0.607  11.833 -0.0858 -0.3709  0.0578
 9815SOL    HW141424   1.769   0.641  11.806 -0.5182 -1.0233  0.5841
 9815SOL    HW241425   1.835   0.526  11.879  0.8270 -0.5590  0.1341
 9816SOL     OW41426   2.291   0.833   3.873 -0.7242  0.4512  0.4930
 9816SOL    HW141427   2.364   0.798   3.924 -1.0061  0.1103  0.6663
 9816SOL    HW241428   2.224   0.853   3.938 -0.7357  0.8897  0.3478
 9817SOL     OW41429   9.958  13.240   1.397  0.0731  0.0308  0.1031
 9817SOL    HW141430   9.972  13.157   1.442 -1.3164 -1.1497 -1.5059
 9817SOL    HW241431   9.928  13.215   1.309  0.8294  2.2338 -0.8500
 9818SOL     OW41432   2.412   4.752  11.861  1.1579 -0.6211 -0.0788
 9818SOL    HW141433   2.320   4.742  11.885  1.0412  1.9646  0.7892
 9818SOL    HW241434   2.416   4.725  11.769 -0.5836 -0.2273 -0.2926
 9819SOL     OW41435   4.224  10.406   9.804  0.0419  0.1509 -0.1123
 9819SOL    HW141436   4.304  10.422   9.755  0.2457 -0.3964  0.0414
 9819SOL    HW241437   4.253  10.380   9.891 -0.2974 -0.2380 -0.1128
 9820SOL     OW41438   4.504   6.196  10.644  0.2783 -0.4479 -0.2216
 9820SOL    HW141439   4.592   6.198  10.608  0.4855 -0.7001  0.2608
 9820SOL    HW241440   4.517   6.189  10.739 -0.2573  0.3827 -0.0797
 9821SOL     OW41441   2.569  12.682  10.069  0.1261 -0.0540  0.0478
 9821SOL    HW141442   2.574  12.777  10.054 -0.0361 -0.2620 -1.4186
 9821SOL    HW241443   2.658  12.650  10.053  0.8584  0.1236  3.0396
 9822SOL     OW41444   3.812   1.207   3.089  0.1785 -0.1789  0.3559
 9822SOL    HW141445   3.841   1.128   3.135 -0.7239 -0.4458  0.4889
 9822SOL    HW241446   3.798   1.179   2.998  1.6669  0.2776 -0.0327
 9823SOL     OW41447   2.864   8.114   1.155 -0.7322 -0.7427 -0.3339
 9823SOL    HW141448   2.931   8.109   1.224 -1.2353  0.4750  0.2838
 9823SOL    HW241449   2.883   8.040   1.098  1.4609 -0.1640 -0.4612
 9824SOL     OW41450   5.912   1.256   1.286 -0.6338  0.1105 -0.0029
 9824SOL    HW141451   5.993   1.287   1.325 -0.7951 -0.8647  1.1696
 9824SOL    HW241452   5.938   1.216   1.203  0.0658 -0.0657  0.3003
 9825SOL     OW41453  13.816   8.974  13.608 -0.0566  0.2458 -0.0835
 9825SOL    HW141454  13.747   9.022  13.561 -1.5211  0.5702  2.2775
 9825SOL    HW241455  13.801   8.882  13.585  2.8388  0.5966 -4.7314
 9826SOL     OW41456  13.958   1.582   0.451 -0.6963 -0.5500  0.1435
 9826SOL    HW141457  13.881   1.550   0.403  0.1218 -1.9908 -0.2418
 9826SOL    HW241458  14.030   1.574   0.389 -0.1810  0.6114  0.5691
 9827SOL     OW41459   6.809  11.574   2.799  0.3103  0.1254  0.2444
 9827SOL    HW141460   6.759  11.652   2.822 -0.8309 -0.9431  1.5106
 9827SOL    HW241461   6.746  11.502   2.803  1.6243 -1.0712  0.4985
 9828SOL     OW41462   9.319   2.432   8.248 -1.2068 -0.1189  0.6147
 9828SOL    HW141463   9.229   2.412   8.224 -0.5386 -3.4892  0.3537
 9828SOL    HW241464   9.365   2.443   8.165 -1.2086  0.7325  0.7229
 9829SOL     OW41465   2.684   5.834  11.079 -0.0092  0.2554  0.1081
 9829SOL    HW141466   2.779   5.826  11.064  0.0153 -1.5051  0.9340
 9829SOL    HW241467   2.673   5.923  11.111  1.4395  0.3795  0.3620
 9830SOL     OW41468  13.915   4.863  12.305 -0.1974  0.1473  0.1026
 9830SOL    HW141469  13.851   4.929  12.332 -0.7202 -0.7489  1.1188
 9830SOL    HW241470  13.881   4.829  12.222 -0.2474  0.7317 -0.1155
 9831SOL     OW41471  13.356   8.783  10.924  0.1165 -0.1433 -0.6132
 9831SOL    HW141472  13.408   8.753  10.998  0.9062  0.5548 -0.8719
 9831SOL    HW241473  13.268   8.750  10.942  0.5968 -1.1832 -0.0786
 9832SOL     OW41474  13.666   1.443   5.162  0.0150  0.3207 -0.3304
 9832SOL    HW141475  13.653   1.529   5.203 -0.3273 -0.3529  1.0363
 9832SOL    HW241476  13.761   1.431   5.161  0.0223  0.2255  0.5642
 9833SOL     OW41477  13.693   5.615   4.424  0.3390  0.2956  0.2043
 9833SOL    HW141478  13.687   5.525   4.390 -0.0231  0.7294 -0.9206
 9833SOL    HW241479  13.604   5.636   4.452  0.1516  0.7347 -0.6933
 9834SOL     OW41480   4.735   4.774   2.191  0.2533  0.2540  0.1117
 9834SOL    HW141481   4.797   4.843   2.166  0.5375  0.4451  1.2847
 9834SOL    HW241482   4.705   4.799   2.278 -0.1691 -0.7439  0.2667
 9835SOL     OW41483   0.987  10.785   2.098  0.1640 -0.0504 -0.0515
 9835SOL    HW141484   1.053  10.724   2.064 -0.0891  0.4670 -1.5461
 9835SOL    HW241485   0.966  10.751   2.185  0.7376 -1.5356 -0.4567
 9836SOL     OW41486  13.511   6.768   4.781  0.0623  0.6524 -0.2261
 9836SOL    HW141487  13.541   6.750   4.870 -3.3889 -0.4955  0.8726
 9836SOL    HW241488  13.558   6.705   4.727  2.3252  1.4579  0.7140
 9837SOL     OW41489   9.318  11.130   2.032 -0.3301  0.2310  0.0578
 9837SOL    HW141490   9.280  11.133   2.119 -1.2321 -1.0700 -0.2654
 9837SOL    HW241491   9.398  11.079   2.042 -1.1306 -1.0886 -0.1001
 9838SOL     OW41492   8.654   6.945   1.777  0.0320  0.5420 -0.3139
 9838SOL    HW141493   8.737   6.903   1.754  0.2575  0.2743  0.8952
 9838SOL    HW241494   8.653   7.025   1.725  0.9380  0.4236 -0.5355
 9839SOL     OW41495   2.787   0.248   3.045 -0.3212 -0.1858 -0.4698
 9839SOL    HW141496   2.698   0.211   3.050 -0.8702  1.0229 -0.9442
 9839SOL    HW241497   2.809   0.269   3.135 -2.0604  2.9220 -0.6254
 9840SOL     OW41498  12.996  11.315   1.845  0.6496 -0.2460 -0.0800
 9840SOL    HW141499  13.076  11.282   1.887  0.2445 -0.2440  0.7190
 9840SOL    HW241500  12.925  11.270   1.890 -0.1890  3.7862  3.2684
 9841SOL     OW41501   3.722  11.656   8.213  0.3445 -0.3721 -0.2050
 9841SOL    HW141502   3.814  11.668   8.236  0.1617 -0.4591  0.5885
 9841SOL    HW241503   3.682  11.742   8.229  0.5544  0.0879 -1.9291
 9842SOL     OW41504  11.683   8.526   0.950 -0.1495 -0.2337  0.5208
 9842SOL    HW141505  11.683   8.620   0.962  0.0522 -0.0619 -0.6833
 9842SOL    HW241506  11.721   8.491   1.031  0.3110  0.7453  0.7409
 9843SOL     OW41507   5.877   3.918  11.935 -0.1347 -0.2566  0.3892
 9843SOL    HW141508   5.930   3.994  11.912 -0.0479 -0.2721  0.5328
 9843SOL    HW241509   5.844   3.885  11.852 -1.0884  0.5902  0.4127
 9844SOL     OW41510   4.191   4.110   1.073  0.1963 -0.2136  0.2004
 9844SOL    HW141511   4.170   4.199   1.101  1.4979  0.0003  0.5409
 9844SOL    HW241512   4.267   4.085   1.126  0.3346 -1.2325 -0.4484
 9845SOL     OW41513   5.473  12.173  10.983 -0.6369  1.0105  0.2283
 9845SOL    HW141514   5.450  12.150  10.893 -0.1561  0.7896  0.1581
 9845SOL    HW241515   5.404  12.232  11.011 -0.0553  2.1944 -0.7630
 9846SOL     OW41516   4.341  10.598   8.848  0.0190  0.0615 -0.3162
 9846SOL    HW141517   4.434  10.583   8.831  0.2678  1.7424 -0.6576
 9846SOL    HW241518   4.296  10.560   8.773  0.5646  0.5981 -0.9298
 9847SOL     OW41519   3.209   5.453   7.451  0.2246 -0.2514 -0.4576
 9847SOL    HW141520   3.168   5.518   7.395 -0.5653 -0.9199 -0.6793
 9847SOL    HW241521   3.260   5.504   7.514 -1.1157  0.6154 -0.0457
 9848SOL     OW41522   8.391  11.943  10.797  0.8569 -0.0461 -0.3082
 9848SOL    HW141523   8.381  11.982  10.884 -1.4879  0.0527 -0.5481
 9848SOL    HW241524   8.359  12.011  10.738  1.6634 -0.4186 -1.1836
 9849SOL     OW41525   8.665   1.032   8.968  0.7213  0.6543  0.2743
 9849SOL    HW141526   8.594   1.097   8.974 -0.6111 -0.8488  1.9008
 9849SOL    HW241527   8.628   0.953   9.007  2.3597 -1.0636 -1.4641
 9850SOL     OW41528   7.932  13.752  11.570 -0.1015  0.1616 -0.5169
 9850SOL    HW141529   8.017  13.794  11.581  0.4377 -1.0435  0.1761
 9850SOL    HW241530   7.893  13.754  11.658 -0.6652  0.4351 -0.7673
 9851SOL     OW41531  12.030   8.650   8.412  0.0766  0.4251  0.0422
 9851SOL    HW141532  12.080   8.661   8.492  0.3140  0.4679 -0.1105
 9851SOL    HW241533  12.087   8.685   8.343 -0.6211  1.5470  0.0061
 9852SOL     OW41534   1.427   6.471   8.514  0.7579  0.1892  0.2508
 9852SOL    HW141535   1.465   6.505   8.433  0.0390  0.2104 -0.0901
 9852SOL    HW241536   1.345   6.520   8.524 -0.4445 -1.5667 -0.3820
 9853SOL     OW41537   8.841   8.592   8.141 -0.1672 -0.3425  0.3474
 9853SOL    HW141538   8.860   8.539   8.218  1.5172  0.4480  0.5176
 9853SOL    HW241539   8.827   8.680   8.174  1.8615  0.2806 -0.2889
 9854SOL     OW41540   9.020   7.529   9.202  0.5463 -0.5197  0.5505
 9854SOL    HW141541   9.050   7.496   9.117 -0.3228  1.2394 -0.5032
 9854SOL    HW241542   8.979   7.453   9.243 -0.2223 -1.1289 -1.2030
 9855SOL     OW41543   2.316  10.602   2.475 -0.1061  0.1038  0.4865
 9855SOL    HW141544   2.232  10.624   2.515  0.2044  2.9993 -0.2395
 9855SOL    HW241545   2.379  10.657   2.521  0.6513  1.5466 -2.1186
 9856SOL     OW41546   6.710  13.114   2.214 -0.2009 -0.1369  0.1761
 9856SOL    HW141547   6.748  13.172   2.280 -1.1847  0.6529  0.0663
 9856SOL    HW241548   6.632  13.160   2.183  0.1195 -0.5896 -1.3893
 9857SOL     OW41549   9.033   1.604  13.337 -0.5989  0.3435 -0.2643
 9857SOL    HW141550   9.048   1.685  13.387 -0.2453  1.1032 -1.5392
 9857SOL    HW241551   9.068   1.535  13.393 -0.7228  1.0896  0.7770
 9858SOL     OW41552   9.747   5.336  12.146 -0.1115 -0.2127  0.3730
 9858SOL    HW141553   9.659   5.352  12.178  0.5952  1.1610  1.7686
 9858SOL    HW241554   9.758   5.399  12.075 -0.7358 -1.4129 -0.8357
 9859SOL     OW41555   9.537  10.666   4.384  0.3522  0.7092 -0.0300
 9859SOL    HW141556   9.539  10.698   4.294 -1.8029  0.4969 -0.2132
 9859SOL    HW241557   9.628  10.643   4.403  0.9117  0.9876 -2.0589
 9860SOL     OW41558   5.082   2.439   0.148 -0.3435  0.1966  0.4358
 9860SOL    HW141559   5.060   2.474   0.062  0.4489 -0.0510  0.1242
 9860SOL    HW241560   5.088   2.345   0.134  0.6713  0.2356  0.5555
 9861SOL     OW41561  10.030   6.093   3.972  0.2272 -0.4100 -0.0587
 9861SOL    HW141562  10.032   6.178   3.928  0.3256 -0.6402 -0.5021
 9861SOL    HW241563   9.938   6.079   3.994  0.1685 -0.3163 -0.2381
 9862SOL     OW41564   2.252   6.589   5.826  0.4933 -0.1957 -0.1245
 9862SOL    HW141565   2.171   6.583   5.877  0.5672  0.7727  0.1187
 9862SOL    HW241566   2.299   6.508   5.847  0.0952 -0.2505  0.6057
 9863SOL     OW41567   5.890   4.527   8.442 -0.0185 -0.1003  0.4132
 9863SOL    HW141568   5.966   4.579   8.468 -1.1354  0.8927  1.8906
 9863SOL    HW241569   5.863   4.482   8.522 -1.1804 -0.1742  0.0010
 9864SOL     OW41570   1.795   3.336   0.728 -0.1934 -0.2254  0.1852
 9864SOL    HW141571   1.872   3.373   0.770 -0.4608 -0.6489  1.0607
 9864SOL    HW241572   1.721   3.387   0.762 -0.3867 -0.3817  0.0076
 9865SOL     OW41573   6.292   3.946   7.111  0.4927 -0.1477  0.0574
 9865SOL    HW141574   6.308   3.863   7.066 -1.7343 -0.0595 -1.0398
 9865SOL    HW241575   6.282   3.922   7.203  0.4157 -1.0225 -0.1669
 9866SOL     OW41576   4.270   1.248   4.678 -0.0875 -0.1834 -0.5340
 9866SOL    HW141577   4.339   1.183   4.690 -0.3345 -0.0820  1.9470
 9866SOL    HW241578   4.298   1.299   4.602  1.6037 -1.3069 -0.7188
 9867SOL     OW41579   7.135   1.399   3.963  0.0870  0.0033 -0.6500
 9867SOL    HW141580   7.210   1.459   3.974  1.0284 -1.1699 -0.4837
 9867SOL    HW241581   7.175   1.314   3.946 -1.2011 -0.9129  0.6893
 9868SOL     OW41582  11.695   5.985   1.391  0.3296  0.1994 -0.3329
 9868SOL    HW141583  11.625   5.922   1.406  0.1239  0.4879 -0.0626
 9868SOL    HW241584  11.665   6.038   1.318  0.2192  0.3932 -0.1457
 9869SOL     OW41585   5.051  11.086   5.684  0.1357  0.1418 -0.2402
 9869SOL    HW141586   5.042  11.082   5.779  0.4691 -1.5137 -0.2398
 9869SOL    HW241587   4.961  11.090   5.652  0.0359  1.3063  0.1410
 9870SOL     OW41588  11.662   5.989   6.120 -0.3128 -0.6611 -0.1939
 9870SOL    HW141589  11.600   5.959   6.187 -0.2276  0.6536  0.5185
 9870SOL    HW241590  11.698   5.909   6.083 -0.8640 -1.4299  0.8764
 9871SOL     OW41591  11.866  12.448   2.697  0.5505 -0.2016  0.1984
 9871SOL    HW141592  11.792  12.389   2.679 -0.3120  0.6876  0.7065
 9871SOL    HW241593  11.918  12.446   2.617 -1.1540  0.7278 -1.0094
 9872SOL     OW41594   2.492   4.619   0.733 -0.3437  0.1413  0.2543
 9872SOL    HW141595   2.428   4.592   0.668 -0.5764 -0.4779  0.7313
 9872SOL    HW241596   2.456   4.700   0.771 -0.6818 -0.0278  0.2928
 9873SOL     OW41597   5.564   4.270   7.570 -0.0474 -0.2175  0.1309
 9873SOL    HW141598   5.653   4.305   7.580 -0.4126  0.3759  1.6864
 9873SOL    HW241599   5.507   4.345   7.587 -0.8612 -0.5454 -1.0609
 9874SOL     OW41600   7.922   5.142   9.623  0.4545  0.6305  0.2975
 9874SOL    HW141601   7.943   5.113   9.712 -0.0322  1.4237  0.6746
 9874SOL    HW241602   7.906   5.060   9.576  1.0650  0.1800  0.8377
 9875SOL     OW41603   7.191   8.898  12.876  0.2810 -0.0180 -0.0130
 9875SOL    HW141604   7.180   8.804  12.858 -0.0613  0.1215 -0.5519
 9875SOL    HW241605   7.115   8.922  12.928  1.8088 -0.6605  2.6969
 9876SOL     OW41606   6.774  10.437  10.000  0.2504 -0.3204 -0.0731
 9876SOL    HW141607   6.846  10.500  10.006  2.2062 -2.5387  2.1380
 9876SOL    HW241608   6.812  10.362   9.954 -1.2409 -0.8486 -0.4936
 9877SOL     OW41609   1.036   0.917  12.338 -0.6336  0.8699 -0.2791
 9877SOL    HW141610   1.075   0.956  12.260  0.4594 -1.1769 -0.8325
 9877SOL    HW241611   0.945   0.946  12.337 -0.9750 -0.0440 -2.9927
 9878SOL     OW41612  11.797   6.475  12.716 -0.1783 -0.0946  0.5999
 9878SOL    HW141613  11.803   6.567  12.743  2.4802  0.0735 -0.2760
 9878SOL    HW241614  11.740   6.476  12.639 -0.5007  0.7359  0.8314
 9879SOL     OW41615   3.427  12.145   1.825 -0.3650  0.0802  0.1235
 9879SOL    HW141616   3.376  12.178   1.751 -0.3550 -0.9063 -0.3430
 9879SOL    HW241617   3.371  12.158   1.901 -0.8261  0.1121 -0.2187
 9880SOL     OW41618  10.755  14.039  12.978  0.0333 -0.1514  0.1785
 9880SOL    HW141619  10.763  14.113  12.918  2.3501  0.8094  1.5199
 9880SOL    HW241620  10.794  13.965  12.930 -0.5656 -0.0686 -0.4539
 9881SOL     OW41621   5.461  12.342   6.352  0.1307  0.7244  0.0367
 9881SOL    HW141622   5.455  12.249   6.328 -1.8100  1.0291 -0.8419
 9881SOL    HW241623   5.543  12.372   6.312  1.7783 -0.9805  1.8847
 9882SOL     OW41624   4.099   5.749   3.002  0.3215  0.1046 -0.7997
 9882SOL    HW141625   4.124   5.841   3.009 -0.9236  0.5042 -1.2499
 9882SOL    HW241626   4.006   5.747   3.025  0.4418 -1.1203 -0.3232
 9883SOL     OW41627   7.748   6.740   2.084 -0.3844  0.3652 -0.3865
 9883SOL    HW141628   7.681   6.808   2.081 -0.3066  0.5680  1.1901
 9883SOL    HW241629   7.747   6.710   2.176  1.9929  0.7301 -0.1862
 9884SOL     OW41630   2.597   0.174   0.844 -0.2242  0.4253 -0.3428
 9884SOL    HW141631   2.619   0.082   0.856 -2.6294 -0.3560 -1.3465
 9884SOL    HW241632   2.631   0.218   0.922 -0.3966 -1.5522  0.8888
 9885SOL     OW41633   4.171   5.065  13.448  0.3299  0.0501  0.3062
 9885SOL    HW141634   4.121   5.060  13.529  0.7016  0.5378  0.5790
 9885SOL    HW241635   4.220   5.148  13.456 -0.5430  0.7148 -0.9427
 9886SOL     OW41636   3.625  10.004   5.856 -0.2468 -0.5928 -0.1340
 9886SOL    HW141637   3.716   9.974   5.850  0.3725  1.4145 -1.7458
 9886SOL    HW241638   3.593  10.001   5.766 -1.5766 -0.6265  0.3157
 9887SOL     OW41639  12.195  10.887   5.559  0.0049  0.3729  0.1170
 9887SOL    HW141640  12.205  10.811   5.616 -2.6990 -0.6476 -0.6398
 9887SOL    HW241641  12.202  10.962   5.619  0.8620 -0.4969  1.1637
 9888SOL     OW41642  13.312   7.532   0.630 -0.1254 -0.6799  0.1384
 9888SOL    HW141643  13.374   7.601   0.650  0.3208 -1.5975  2.2300
 9888SOL    HW241644  13.233   7.578   0.602  0.6311  0.5973  0.0249
 9889SOL     OW41645   3.415   9.913  12.836 -0.0601  0.4200 -0.0576
 9889SOL    HW141646   3.363   9.833  12.822 -0.8938  0.9775 -0.2214
 9889SOL    HW241647   3.452   9.933  12.750  1.0732 -0.3945  0.2133
 9890SOL     OW41648   3.280   1.934   9.350 -0.0202  0.3695  0.2322
 9890SOL    HW141649   3.368   1.904   9.328  0.0159 -0.7232  1.6562
 9890SOL    HW241650   3.274   1.922   9.445 -2.2159 -1.1625 -0.0013
 9891SOL     OW41651  13.946   9.310   1.572 -0.0424 -0.0516 -0.2368
 9891SOL    HW141652  13.983   9.367   1.639 -0.4152 -0.5686  0.4280
 9891SOL    HW241653  13.857   9.343   1.559 -0.0771 -0.1491 -0.2471
 9892SOL     OW41654  13.616   0.457   4.814 -0.3913  0.0206 -0.0582
 9892SOL    HW141655  13.607   0.444   4.719 -2.0825 -0.4943  0.1485
 9892SOL    HW241656  13.578   0.543   4.830 -0.4658 -0.0582  0.1961
 9893SOL     OW41657   1.279   5.031   9.641 -0.3158 -0.1905 -0.0260
 9893SOL    HW141658   1.367   5.068   9.630 -1.0454  1.3698 -0.9279
 9893SOL    HW241659   1.278   4.955   9.583 -0.0009  0.6177 -1.1310
 9894SOL     OW41660  13.513  12.964   7.244 -0.8662  0.1040  0.5076
 9894SOL    HW141661  13.577  12.927   7.305 -0.8265  0.1484  0.4940
 9894SOL    HW241662  13.548  12.945   7.157  0.0665  1.7077  0.4947
 9895SOL     OW41663  10.897   5.892  11.251  0.1100  0.2682  0.0979
 9895SOL    HW141664  10.966   5.861  11.310  1.1250 -0.7493 -1.5697
 9895SOL    HW241665  10.941   5.954  11.193 -1.0327  1.8006  0.8014
 9896SOL     OW41666  13.572   1.054   6.743 -0.2745  0.3293  0.1527
 9896SOL    HW141667  13.580   0.963   6.716  0.3170  0.2283  0.6487
 9896SOL    HW241668  13.624   1.061   6.823 -1.3184  0.8261  0.8056
 9897SOL     OW41669   8.300   9.401  10.691 -0.4852 -0.0066 -0.0564
 9897SOL    HW141670   8.366   9.403  10.760 -1.4181  1.1794  0.8497
 9897SOL    HW241671   8.340   9.450  10.619 -0.6852  1.5693  0.8398
 9898SOL     OW41672   7.991   3.610   8.904 -0.2159 -0.0376  0.4194
 9898SOL    HW141673   7.945   3.559   8.838 -0.2870  0.1914  0.2916
 9898SOL    HW241674   7.988   3.700   8.872 -1.3781  0.2815  1.3478
 9899SOL     OW41675   8.398   3.851   5.581  0.7014  0.9121  0.9101
 9899SOL    HW141676   8.444   3.870   5.663 -0.2696  0.8464  1.4867
 9899SOL    HW241677   8.450   3.896   5.514  2.4062 -0.3429  1.3245
 9900SOL     OW41678   7.982   0.597   0.397 -0.1079  0.0225 -0.1077
 9900SOL    HW141679   7.919   0.532   0.366  2.0450 -2.6402  0.7379
 9900SOL    HW241680   8.066   0.571   0.359  1.1344  1.4184  1.5007
 9901SOL     OW41681   5.381  10.731   8.158  0.6190 -0.3992  0.5363
 9901SOL    HW141682   5.370  10.773   8.073 -0.7968 -1.3552  0.2073
 9901SOL    HW241683   5.401  10.803   8.218  0.3087  0.4540 -0.3552
 9902SOL     OW41684  13.745   1.893   8.977  0.5884 -0.4218 -0.1001
 9902SOL    HW141685  13.808   1.851   8.919  1.0760 -1.9147  1.4511
 9902SOL    HW241686  13.793   1.966   9.016  1.5360 -1.7394  1.3188
 9903SOL     OW41687   9.828   6.548   2.995 -0.2835  0.3896  0.1138
 9903SOL    HW141688   9.921   6.552   3.017 -0.1091  4.6938 -0.5836
 9903SOL    HW241689   9.826   6.551   2.900 -1.1744 -0.4529  0.0923
 9904SOL     OW41690  12.528  13.738  10.119 -0.1616  0.1464  0.2482
 9904SOL    HW141691  12.474  13.687  10.180  0.5786  0.8414  1.5419
 9904SOL    HW241692  12.607  13.686  10.109 -0.4766 -0.1943 -0.5204
 9905SOL     OW41693  10.095  13.944   7.467  0.3008  0.2603  0.2943
 9905SOL    HW141694  10.167  14.005   7.481  0.6083  0.4548 -1.7787
 9905SOL    HW241695  10.118  13.898   7.386 -1.5104 -0.2721  0.0350
 9906SOL     OW41696   2.930  12.144   0.075  0.4506  0.2163  0.1144
 9906SOL    HW141697   2.908  12.209   0.142  1.3984  0.8487 -0.1645
 9906SOL    HW241698   3.013  12.107   0.104  1.3094  1.0826 -1.0869
 9907SOL     OW41699  11.988  10.682  13.938 -0.6493 -0.3634  0.3454
 9907SOL    HW141700  12.079  10.654  13.931  0.3976  3.0334 -1.2670
 9907SOL    HW241701  11.984  10.734  14.018 -0.9811  0.0910  0.0401
 9908SOL     OW41702   4.062  13.833   9.486 -0.0832 -0.1956 -0.5747
 9908SOL    HW141703   3.978  13.787   9.476  0.1316 -0.2773 -2.2309
 9908SOL    HW241704   4.119  13.794   9.420  1.2525 -0.0497  0.4401
 9909SOL     OW41705  11.373  10.098   1.239  0.3602  0.0217 -0.5341
 9909SOL    HW141706  11.320  10.074   1.163 -1.0094 -1.0588  0.6891
 9909SOL    HW241707  11.446  10.036   1.238  0.3002 -0.0483 -0.8963
 9910SOL     OW41708   9.842   3.994  11.139 -0.1529 -0.5543  0.1547
 9910SOL    HW141709   9.864   4.020  11.049  0.8329  0.5922  0.6978
 9910SOL    HW241710   9.768   4.050  11.163  0.2859 -0.0767  0.4198
 9911SOL     OW41711   2.297   5.740   3.409  0.3547 -0.4581  0.2908
 9911SOL    HW141712   2.277   5.667   3.351  1.0262 -0.5390  0.1531
 9911SOL    HW241713   2.212   5.772   3.439  0.0589 -1.3185  0.3831
 9912SOL     OW41714   0.010   7.261  12.841  0.2392  0.1738  0.4981
 9912SOL    HW141715  -0.028   7.327  12.899  1.3825  1.2310  0.1052
 9912SOL    HW241716  -0.035   7.274  12.757  0.9137  0.9312  0.2367
 9913SOL     OW41717   3.547   7.667   4.812  0.2441 -0.4759  0.3141
 9913SOL    HW141718   3.472   7.624   4.852 -1.1222  0.0390 -1.5393
 9913SOL    HW241719   3.511   7.748   4.775  1.3766 -0.8726 -1.8377
 9914SOL     OW41720   9.167   6.105  10.271 -0.1646 -0.3898 -0.1723
 9914SOL    HW141721   9.152   6.082  10.363 -2.2491 -0.3382 -0.4524
 9914SOL    HW241722   9.084   6.086  10.228  0.3183  0.9313 -1.7909
 9915SOL     OW41723  10.099   6.920   7.693  0.4314 -0.2067 -0.0933
 9915SOL    HW141724  10.009   6.890   7.700  0.8289 -1.6998 -1.0526
 9915SOL    HW241725  10.125   6.938   7.783 -0.4634 -0.8664  0.3123
 9916SOL     OW41726   3.431   1.716   1.349 -0.1127 -0.2544  0.0328
 9916SOL    HW141727   3.527   1.719   1.358 -0.0398 -0.0678 -0.7665
 9916SOL    HW241728   3.401   1.671   1.428  0.6754 -0.8218  0.0169
 9917SOL     OW41729   5.975   0.787   9.194  0.2927 -0.2695 -0.4108
 9917SOL    HW141730   6.044   0.819   9.136 -0.1822 -0.5568 -1.1568
 9917SOL    HW241731   5.967   0.854   9.262  0.7587  0.1465 -0.7589
 9918SOL     OW41732   0.800   3.778   1.188 -0.1077  0.4831  0.5915
 9918SOL    HW141733   0.845   3.703   1.226 -1.0344  0.4495  1.6590
 9918SOL    HW241734   0.730   3.798   1.250 -1.7660  0.3450 -1.1485
 9919SOL     OW41735   0.257   8.811   8.653 -0.1889  0.0596 -0.2225
 9919SOL    HW141736   0.221   8.781   8.569  0.4523 -0.5290 -0.3000
 9919SOL    HW241737   0.292   8.898   8.635 -1.5580  0.6405 -0.1445
 9920SOL     OW41738   9.354  12.908   6.778 -0.3025  0.5102 -0.1753
 9920SOL    HW141739   9.274  12.904   6.831 -1.0151 -0.2354 -1.2709
 9920SOL    HW241740   9.400  12.986   6.811 -0.3948 -0.2698  1.9389
 9921SOL     OW41741   6.992   1.075  14.007  0.0329  0.1461 -0.2896
 9921SOL    HW141742   6.925   1.009  13.989 -0.6125  0.7405 -0.1123
 9921SOL    HW241743   6.989   1.134  13.932 -0.5903  0.9371  0.3377
 9922SOL     OW41744  10.428  10.413  10.483 -0.0046 -0.0433 -0.0216
 9922SOL    HW141745  10.366  10.345  10.509 -2.4455  2.1774  0.4002
 9922SOL    HW241746  10.394  10.493  10.523  1.8499  1.7213 -1.7380
 9923SOL     OW41747   3.623   0.701  10.499 -0.0679  0.9254 -0.5281
 9923SOL    HW141748   3.686   0.644  10.544 -1.5176 -0.4608 -0.2042
 9923SOL    HW241749   3.671   0.732  10.422  1.0687  0.0272 -0.2219
 9924SOL     OW41750   0.004   2.040   9.314 -0.1199 -0.3597 -0.7862
 9924SOL    HW141751  -0.009   2.103   9.243 -1.0873 -0.9377 -1.1341
 9924SOL    HW241752   0.099   2.036   9.326  0.1148 -0.9161 -2.6427
 9925SOL     OW41753   9.719   1.089   2.086  0.8838  0.4152  0.4205
 9925SOL    HW141754   9.664   1.033   2.031 -0.8605  0.7039  1.7990
 9925SOL    HW241755   9.772   1.139   2.024 -2.0458  1.8175 -1.1274
 9926SOL     OW41756  12.036  11.746   7.034 -0.3414  0.2852 -0.3860
 9926SOL    HW141757  12.107  11.681   7.026 -0.8776 -0.6046  1.5451
 9926SOL    HW241758  12.079  11.830   7.016  1.5688 -0.0759  1.9142
 9927SOL     OW41759   1.485   1.224   0.358 -0.1065  0.1993 -0.0023
 9927SOL    HW141760   1.532   1.290   0.409 -1.4268  1.2296 -0.0553
 9927SOL    HW241761   1.402   1.213   0.404 -0.6712 -0.0340 -1.0375
 9928SOL     OW41762  13.107   7.444  11.375 -0.4505  0.5872  0.6319
 9928SOL    HW141763  13.045   7.377  11.348 -0.5322  0.7899  0.3159
 9928SOL    HW241764  13.111   7.505  11.301 -0.8080  1.2341  1.1322
 9929SOL     OW41765   0.760   8.924   6.454 -0.4417  0.7871  0.1922
 9929SOL    HW141766   0.744   8.992   6.388 -1.0542 -0.1671 -0.6647
 9929SOL    HW241767   0.801   8.971   6.527  2.7481  1.4610 -1.8614
 9930SOL     OW41768  11.687  12.494   9.105 -0.3418  1.1009  0.1616
 9930SOL    HW141769  11.667  12.434   9.033 -0.0826  0.5122  0.5816
 9930SOL    HW241770  11.614  12.557   9.104 -1.0792  0.2633  0.2827
 9931SOL     OW41771   7.337   8.577   8.974  0.1232  0.0749 -0.6327
 9931SOL    HW141772   7.392   8.553   8.899  0.6037  1.9914 -0.9653
 9931SOL    HW241773   7.312   8.668   8.956 -0.8103  0.1550  0.9194
 9932SOL     OW41774   1.644  11.967   4.253 -0.0140  0.9608  0.6686
 9932SOL    HW141775   1.712  11.942   4.315  2.0757  0.9344 -1.5237
 9932SOL    HW241776   1.678  11.942   4.167 -2.2163  2.1762 -0.6572
 9933SOL     OW41777   5.457  11.608  12.149  0.0915  0.3090  0.5066
 9933SOL    HW141778   5.423  11.535  12.201  0.2302 -1.0140 -1.1987
 9933SOL    HW241779   5.379  11.651  12.115  0.0325 -0.7297 -0.7178
 9934SOL     OW41780  12.951  10.274   2.361  0.5109 -0.5079 -0.0916
 9934SOL    HW141781  12.891  10.306   2.294  1.0537  1.8412  0.4766
 9934SOL    HW241782  13.037  10.275   2.320  0.6910 -0.1671  0.2897
 9935SOL     OW41783  10.371   3.035   2.047  0.1897  0.4622 -0.4713
 9935SOL    HW141784  10.460   3.032   2.012  0.3803  1.5776 -0.1295
 9935SOL    HW241785  10.381   3.014   2.140  0.2750  1.7212 -0.1739
 9936SOL     OW41786  12.760   7.775   2.933  0.2955  0.3975  0.7316
 9936SOL    HW141787  12.820   7.849   2.936  2.2284 -1.0943  0.6803
 9936SOL    HW241788  12.731   7.764   3.024 -0.3831  1.4573  0.6663
 9937SOL     OW41789   3.671   2.188  10.315  0.4761 -0.6170  0.1966
 9937SOL    HW141790   3.579   2.161  10.312 -0.0792  1.2321 -1.1426
 9937SOL    HW241791   3.717   2.119  10.266 -0.0207 -2.0108  1.6009
 9938SOL     OW41792  10.867   4.068   3.455  0.3590  0.0715  0.2943
 9938SOL    HW141793  10.885   4.096   3.545 -0.7606  0.3548  0.4391
 9938SOL    HW241794  10.801   3.999   3.464 -0.1585  0.4747 -0.3408
 9939SOL     OW41795  13.729   5.738   5.327 -0.3343 -0.5279  0.5075
 9939SOL    HW141796  13.812   5.725   5.283 -0.1054 -1.9464  1.3045
 9939SOL    HW241797  13.667   5.682   5.280 -1.1492  1.3648 -0.7969
 9940SOL     OW41798   1.425   9.823   4.728 -0.0466 -0.4934  0.3989
 9940SOL    HW141799   1.407   9.729   4.725 -0.2302 -0.4445 -0.0585
 9940SOL    HW241800   1.508   9.830   4.775 -0.3946 -0.8356  1.0723
 9941SOL     OW41801   1.820  10.920   4.671  0.2299 -0.1643 -0.2665
 9941SOL    HW141802   1.782  10.836   4.645  0.2011 -0.2864  0.1522
 9941SOL    HW241803   1.745  10.979   4.680 -0.0780 -0.7829  1.9936
 9942SOL     OW41804   6.515  12.877   1.807  0.0525 -0.4797 -0.7673
 9942SOL    HW141805   6.476  12.810   1.750 -0.6076 -2.5356  1.8607
 9942SOL    HW241806   6.440  12.916   1.853  0.6765 -0.3889  0.2056
 9943SOL     OW41807   4.929   1.290   0.283 -0.0133 -0.0354 -0.4418
 9943SOL    HW141808   4.836   1.311   0.272 -0.1024 -0.2386 -0.0892
 9943SOL    HW241809   4.932   1.194   0.285  0.1348 -0.0200  0.1342
 9944SOL     OW41810   4.036   7.843   8.852  0.1485  0.6302  0.1230
 9944SOL    HW141811   4.074   7.819   8.936  2.2566  0.7590 -0.7410
 9944SOL    HW241812   3.949   7.802   8.853 -1.0837  2.8679  3.4448
 9945SOL     OW41813   9.047   8.554   4.675  0.0148 -0.3244  0.3227
 9945SOL    HW141814   8.987   8.628   4.672 -0.5037 -0.6883 -3.6527
 9945SOL    HW241815   9.119   8.583   4.731 -0.7661  2.6879 -0.0822
 9946SOL     OW41816  13.516  10.214  13.577  0.4096 -0.3067 -0.1431
 9946SOL    HW141817  13.534  10.201  13.671  1.5959 -0.4673 -0.3706
 9946SOL    HW241818  13.520  10.309  13.566 -1.4003 -0.1603  0.2593
 9947SOL     OW41819   7.964   9.067   5.367  0.2715  0.2479 -0.5429
 9947SOL    HW141820   7.925   9.099   5.286 -0.2345 -0.3475 -0.5444
 9947SOL    HW241821   8.053   9.042   5.343 -0.5195 -1.9255 -1.4368
 9948SOL     OW41822   3.221   3.600   4.968 -0.4081 -0.2502 -0.6480
 9948SOL    HW141823   3.206   3.522   5.020  3.0698 -0.9439 -0.4698
 9948SOL    HW241824   3.215   3.672   5.031 -0.7841 -0.6303 -0.2411
 9949SOL     OW41825  12.472   3.463   0.435 -0.0951 -0.0765 -0.8872
 9949SOL    HW141826  12.481   3.391   0.498 -2.2834 -0.2843 -0.7554
 9949SOL    HW241827  12.556   3.509   0.439 -0.3140  0.2344  2.5665
 9950SOL     OW41828   5.112   0.332   6.743  0.1535 -0.3148  0.1281
 9950SOL    HW141829   5.033   0.382   6.722  1.5266  1.7212 -0.5226
 9950SOL    HW241830   5.135   0.287   6.662 -0.2703 -0.8458  0.2963
 9951SOL     OW41831   2.519   2.336   3.256 -0.0937 -0.1616  0.0010
 9951SOL    HW141832   2.462   2.291   3.193  0.1369 -1.2053  0.5121
 9951SOL    HW241833   2.461   2.364   3.326 -0.5019  1.7920 -1.0396
 9952SOL     OW41834  13.490   1.095   9.409 -0.0995  0.1319 -0.0364
 9952SOL    HW141835  13.402   1.133   9.417  0.5388  1.4130  1.5040
 9952SOL    HW241836  13.518   1.117   9.321 -1.6012 -0.9821 -0.8387
 9953SOL     OW41837  13.196  11.223   1.077 -0.0380 -0.2412  0.3988
 9953SOL    HW141838  13.245  11.180   1.148 -0.0787 -1.5179 -0.3072
 9953SOL    HW241839  13.104  11.211   1.102 -0.0514 -0.6523  0.1647
 9954SOL     OW41840  12.279   2.869   7.980 -0.4427  0.5759 -0.4545
 9954SOL    HW141841  12.336   2.819   8.038  0.5791  2.1608 -0.0103
 9954SOL    HW241842  12.295   2.960   8.004 -1.5894  1.1716 -1.7959
 9955SOL     OW41843  11.941   4.146  11.568  0.5141 -0.1606 -0.4167
 9955SOL    HW141844  12.028   4.133  11.607  0.4980  0.0585 -0.3063
 9955SOL    HW241845  11.888   4.076  11.606  0.3728  0.3411  0.3394
 9956SOL     OW41846   8.180   6.201   1.761 -0.3801  0.1299  0.6878
 9956SOL    HW141847   8.213   6.153   1.685  1.4640  0.5538  1.1951
 9956SOL    HW241848   8.223   6.160   1.836 -2.0566 -0.1781  1.5368
 9957SOL     OW41849   4.162   5.190   5.246  0.3979  0.0035  0.1655
 9957SOL    HW141850   4.183   5.195   5.152  1.1486 -0.7195  0.2836
 9957SOL    HW241851   4.129   5.278   5.268  1.4848  0.5915 -0.4785
 9958SOL     OW41852   2.782  13.981  12.457  0.0481  0.2474  0.4472
 9958SOL    HW141853   2.765  14.027  12.540  1.0914  0.3182  0.6264
 9958SOL    HW241854   2.866  13.938  12.470 -0.0407 -0.1898 -0.3929
 9959SOL     OW41855   8.390   1.202  11.526 -0.2241  0.3063 -0.1362
 9959SOL    HW141856   8.341   1.195  11.608  0.3402 -1.9519  0.0644
 9959SOL    HW241857   8.343   1.146  11.465  1.0472 -0.4346 -0.4670
 9960SOL     OW41858   9.009   6.196   8.337  0.1783  0.2076  0.4333
 9960SOL    HW141859   8.959   6.114   8.332 -1.4336  1.2119 -1.3620
 9960SOL    HW241860   8.947   6.263   8.307  1.8441  1.9106  0.6356
 9961SOL     OW41861   1.751   0.091   9.439 -0.4058 -0.4502 -0.1024
 9961SOL    HW141862   1.688   0.046   9.495 -0.8042  0.3220  0.0909
 9961SOL    HW241863   1.705   0.100   9.355 -0.6802  0.3533  0.1179
 9962SOL     OW41864   8.723   4.950   2.717  0.0083 -0.0598 -0.1916
 9962SOL    HW141865   8.706   5.026   2.661  1.5324  0.6356  0.2148
 9962SOL    HW241866   8.647   4.944   2.774  0.4764  2.1096  0.7568
 9963SOL     OW41867  13.566  13.778   8.440 -0.7400  0.4320 -0.1328
 9963SOL    HW141868  13.596  13.687   8.443 -2.8147 -0.2940  0.6003
 9963SOL    HW241869  13.515  13.784   8.359  0.5433  1.3767 -0.9080
 9964SOL     OW41870   6.611   1.325   1.591 -0.3291 -0.0594  0.0198
 9964SOL    HW141871   6.660   1.349   1.513 -0.2453  0.6121  0.2769
 9964SOL    HW241872   6.520   1.326   1.563 -0.2389 -0.7933 -0.3217
 9965SOL     OW41873   6.898   1.104  12.023  0.5381  0.1727 -0.2658
 9965SOL    HW141874   6.813   1.118  12.065  0.1003  1.9424 -1.6126
 9965SOL    HW241875   6.962   1.136  12.087  0.2842 -1.5709  0.9367
 9966SOL     OW41876   5.277  12.358   0.853  0.1590 -0.1606  0.0477
 9966SOL    HW141877   5.231  12.342   0.935 -1.9325 -0.0838 -1.0560
 9966SOL    HW241878   5.291  12.453   0.852 -2.4697  0.3044 -0.9329
 9967SOL     OW41879   2.080  10.726   1.076 -0.6321 -0.3806 -0.0336
 9967SOL    HW141880   2.124  10.709   1.159  0.2694  0.0328 -0.4118
 9967SOL    HW241881   2.058  10.819   1.079 -0.8085 -0.4171 -0.1651
 9968SOL     OW41882  10.220  12.462  12.728  0.5646  0.5137 -0.5229
 9968SOL    HW141883  10.292  12.521  12.752  1.6461 -0.5207 -1.0914
 9968SOL    HW241884  10.179  12.502  12.652 -0.0970  1.6017  0.3825
 9969SOL     OW41885   8.028   9.012   7.152 -0.0114 -0.2332  0.1554
 9969SOL    HW141886   8.107   8.964   7.174 -0.5342 -2.0491 -1.5902
 9969SOL    HW241887   7.975   8.950   7.101 -0.4027  2.3662 -2.9464
 9970SOL     OW41888   8.053   2.893  10.955  0.1956 -0.2012  0.9467
 9970SOL    HW141889   8.131   2.920  11.004 -0.5073  0.7709  1.5747
 9970SOL    HW241890   8.044   2.800  10.974  1.4699 -0.4369  0.4772
 9971SOL     OW41891   0.814  12.861   1.507  0.4522  0.3819  0.0259
 9971SOL    HW141892   0.814  12.935   1.567 -1.7655 -0.8486  1.6782
 9971SOL    HW241893   0.820  12.901   1.420  1.2919  2.3550  0.9374
 9972SOL     OW41894  10.684   4.624   0.963 -0.1765  0.5693 -0.0172
 9972SOL    HW141895  10.649   4.634   0.875  1.0277 -0.9235 -0.6964
 9972SOL    HW241896  10.607   4.614   1.019 -1.0246  2.7443 -0.6616
 9973SOL     OW41897   2.705   5.189   3.974 -0.0508 -0.5927  0.0118
 9973SOL    HW141898   2.615   5.220   3.967 -0.6943 -2.1310  0.9319
 9973SOL    HW241899   2.753   5.240   3.908 -1.4797  0.5749 -0.1882
 9974SOL     OW41900  13.532  10.293  11.484  0.4250  0.1219  0.2982
 9974SOL    HW141901  13.450  10.326  11.445  0.5214  0.1564  0.1199
 9974SOL    HW241902  13.600  10.325  11.425  0.4356 -1.3860 -0.5534
 9975SOL     OW41903  11.141   9.170   8.577 -0.3897 -0.3666 -0.0021
 9975SOL    HW141904  11.161   9.232   8.647 -2.5135  0.2068  0.1738
 9975SOL    HW241905  11.112   9.091   8.621 -0.5906 -0.4172 -0.2218
 9976SOL     OW41906   5.047   2.704   6.840 -0.4420  0.3013 -0.4358
 9976SOL    HW141907   5.015   2.624   6.882 -0.4934 -0.0285 -1.0887
 9976SOL    HW241908   5.100   2.747   6.907 -1.3752  0.3106  0.3069
 9977SOL     OW41909   7.279   1.910   3.925  0.0391  0.5811 -0.4263
 9977SOL    HW141910   7.330   1.844   3.878  0.7598  1.6905 -1.2556
 9977SOL    HW241911   7.225   1.951   3.858 -1.7107 -0.3194  0.3779
 9978SOL     OW41912   7.938   1.885   1.821  0.2799  0.0237 -0.5246
 9978SOL    HW141913   7.891   1.936   1.888 -0.7821  0.7543 -1.7632
 9978SOL    HW241914   8.019   1.858   1.864  0.5675  2.1694  0.4326
 9979SOL     OW41915  12.078   2.666  11.071  0.1093  0.8709  0.1855
 9979SOL    HW141916  12.054   2.721  10.996 -0.2248  1.8098  0.9724
 9979SOL    HW241917  12.167   2.635  11.050 -0.1871  0.6842 -0.8399
 9980SOL     OW41918  10.641   4.548   4.404 -0.2419 -0.2146  0.2128
 9980SOL    HW141919  10.629   4.465   4.358  1.6811 -0.2349 -0.3431
 9980SOL    HW241920  10.648   4.524   4.496  2.7940 -1.0605 -0.1277
 9981SOL     OW41921   9.250   7.390   3.701  0.1046  0.4514 -0.5757
 9981SOL    HW141922   9.235   7.335   3.778  1.5839 -0.2019 -0.7198
 9981SOL    HW241923   9.221   7.336   3.627  1.3837 -0.1077 -0.7005
 9982SOL     OW41924   3.850   0.878   7.704  0.1739  0.4072 -0.2441
 9982SOL    HW141925   3.832   0.879   7.797  0.9323 -2.1271  0.0137
 9982SOL    HW241926   3.765   0.887   7.662 -0.4547 -0.6986  0.7511
 9983SOL     OW41927   5.516   8.123   1.971  0.5004  0.0390  0.1235
 9983SOL    HW141928   5.450   8.083   2.028  1.0572  0.1633  0.8867
 9983SOL    HW241929   5.486   8.105   1.882  0.8298 -2.2392  0.4280
 9984SOL     OW41930   5.867  12.036   7.487 -0.5793 -0.0973 -0.1241
 9984SOL    HW141931   5.793  12.081   7.447  0.0059  1.0695  0.0649
 9984SOL    HW241932   5.927  12.106   7.513  0.2891 -0.9792  0.3314
 9985SOL     OW41933  12.042  12.575   5.767  0.0673 -0.0975 -0.3469
 9985SOL    HW141934  12.011  12.543   5.852  0.4939  0.7050  0.1158
 9985SOL    HW241935  11.973  12.634   5.736  1.0401  1.6623  0.6674
 9986SOL     OW41936   4.171   2.243   9.880 -0.0336 -0.7740  0.0667
 9986SOL    HW141937   4.214   2.295   9.812  0.4053 -1.9906 -0.6179
 9986SOL    HW241938   4.079   2.240   9.852  0.3576 -2.3658 -1.2730
 9987SOL     OW41939  13.615  11.736   1.886 -0.4914 -0.0361  0.5497
 9987SOL    HW141940  13.617  11.658   1.830 -0.2605 -0.0310  0.5478
 9987SOL    HW241941  13.678  11.796   1.845 -1.5554  0.6339 -0.1324
 9988SOL     OW41942   0.557   4.400   5.995 -0.5665  0.0893 -0.0880
 9988SOL    HW141943   0.481   4.429   6.044  0.7680  1.4441  1.2730
 9988SOL    HW241944   0.632   4.428   6.047  0.8864 -2.0656 -0.8750
 9989SOL     OW41945   6.985   0.585   2.816  0.0388  0.4292  0.0720
 9989SOL    HW141946   6.928   0.551   2.885 -2.7969  2.9598 -0.8262
 9989SOL    HW241947   7.056   0.630   2.863  0.0575 -0.7636  1.2412
 9990SOL     OW41948   0.113  13.569  13.900 -0.6439 -0.2326  0.3785
 9990SOL    HW141949   0.052  13.633  13.862 -2.3830 -2.0350  0.0057
 9990SOL    HW241950   0.107  13.493  13.842  1.4875 -0.7298  0.7253
 9991SOL     OW41951  13.957   2.134   5.586  0.4647  0.1195  0.1354
 9991SOL    HW141952  13.944   2.203   5.521  0.5538  0.7076  0.7325
 9991SOL    HW241953  13.868   2.109   5.612  0.4081 -0.6557 -0.7601
 9992SOL     OW41954   5.792   6.654   6.750 -0.0384 -0.3091 -0.4522
 9992SOL    HW141955   5.775   6.562   6.731  1.5594 -1.0279  1.3162
 9992SOL    HW241956   5.713   6.684   6.794 -0.3151 -1.0083 -0.4501
 9993SOL     OW41957  12.036   8.633   1.178 -0.1010 -0.0673  0.1337
 9993SOL    HW141958  12.116   8.580   1.172 -1.7463 -2.6974 -0.1126
 9993SOL    HW241959  12.019   8.661   1.088  1.5341  2.2919  0.4442
 9994SOL     OW41960   9.921  13.480   1.502 -0.7525 -0.4839  0.3493
 9994SOL    HW141961   9.924  13.390   1.471 -1.2678 -0.0345 -1.0902
 9994SOL    HW241962   9.906  13.532   1.423  2.3768  1.1417  0.6826
 9995SOL     OW41963   7.130   1.470   2.907  0.1020 -0.5905  0.3102
 9995SOL    HW141964   7.035   1.474   2.895  0.1144 -0.7521  0.1445
 9995SOL    HW241965   7.145   1.507   2.994 -0.1895 -1.2736  0.6637
 9996SOL     OW41966   9.978   3.763   0.372 -0.4831 -0.2662  0.0237
 9996SOL    HW141967   9.932   3.824   0.430  1.3237  1.8392 -0.6479
 9996SOL    HW241968   9.958   3.677   0.409 -4.4133  0.4855  0.1134
 9997SOL     OW41969   0.569   2.206  10.018  0.2325  0.1655 -0.0738
 9997SOL    HW141970   0.574   2.124   9.969  1.2366  0.5155 -0.5804
 9997SOL    HW241971   0.514   2.263   9.964  0.0354  0.0339 -0.0154
 9998SOL     OW41972  12.717   7.462   6.171 -0.0566 -0.0730 -0.0153
 9998SOL    HW141973  12.745   7.545   6.209  0.9009 -0.5479  0.3531
 9998SOL    HW241974  12.791   7.403   6.185  0.0032 -0.5000 -1.8988
 9999SOL     OW41975   9.114   6.873  12.732  0.3274 -0.5752  0.1483
 9999SOL    HW141976   9.207   6.877  12.707  0.1241  0.0837 -0.5528
 9999SOL    HW241977   9.110   6.805  12.799  1.0127 -1.9618 -1.1703
10000SOL     OW41978   5.374   5.011   8.415 -0.2730  0.1812  0.5817
10000SOL    HW141979   5.466   4.999   8.439 -0.7005 -1.9999  1.3420
10000SOL    HW241980   5.368   4.981   8.324 -0.1245  0.9281  0.3224
10001SOL     OW41981   1.101  13.821   1.976  0.5177  0.2442 -0.1945
10001SOL    HW141982   1.081  13.915   1.978  0.1491  0.1662 -0.1630
10001SOL    HW241983   1.195  13.817   1.958  0.9926  0.6872  1.8351
10002SOL     OW41984  11.423   4.643  11.588  0.1315 -0.6465  0.7167
10002SOL    HW141985  11.364   4.573  11.561 -0.7024  0.2226  0.2763
10002SOL    HW241986  11.510   4.612  11.562 -0.4778 -0.4458 -1.7503
10003SOL     OW41987  11.330   7.608  12.607  0.0005  0.0317  0.0468
10003SOL    HW141988  11.388   7.620  12.682  0.2259 -2.3863  0.3077
10003SOL    HW241989  11.246   7.643  12.637  0.4495  0.4138  0.8994
10004SOL     OW41990  11.681   8.096  12.704  0.1831  0.1749 -0.9345
10004SOL    HW141991  11.597   8.117  12.744  0.9644  1.2264  0.2346
10004SOL    HW241992  11.704   8.174  12.653  0.9573  0.3490 -0.3395
10005SOL     OW41993   7.890   4.445   1.682  0.0728  0.0746 -0.0565
10005SOL    HW141994   7.857   4.424   1.595  1.6661 -2.2780 -0.1926
10005SOL    HW241995   7.971   4.494   1.666  0.1790 -0.0486  0.0995
10006SOL     OW41996  12.847   1.356   1.022  0.3844  0.0925 -0.0507
10006SOL    HW141997  12.785   1.369   1.093 -0.1955 -1.2448 -0.2998
10006SOL    HW241998  12.912   1.426   1.034  1.2125 -1.0394  2.7416
10007SOL     OW41999   5.164  10.234   0.011  0.2986 -0.2948  0.7319
10007SOL    HW142000   5.256  10.254   0.030  0.5632 -0.6623 -0.1049
10007SOL    HW242001   5.155  10.141   0.031  0.2796 -0.4057  0.2357
10008SOL     OW42002   6.819   1.998  11.992 -0.0113  0.4385 -0.3250
10008SOL    HW142003   6.815   2.037  12.079  1.0972 -0.0396 -0.0454
10008SOL    HW242004   6.883   1.927  12.000  1.0073  1.1418 -1.8061
10009SOL     OW42005   2.847   1.419  13.908 -0.1355  0.0711  0.3968
10009SOL    HW142006   2.831   1.458  13.994  3.1685  1.6436  0.4400
10009SOL    HW242007   2.868   1.493  13.851 -0.0019 -1.1372 -1.1935
10010SOL     OW42008  11.497   9.094   7.946 -0.1112 -0.4986  0.2600
10010SOL    HW142009  11.483   9.046   7.864 -0.4040 -1.3981  0.8226
10010SOL    HW242010  11.426   9.158   7.948  0.0953 -0.2428 -0.3456
10011SOL     OW42011   7.116   8.145   5.271 -0.1921  0.2308  0.8040
10011SOL    HW142012   7.161   8.086   5.210  0.7933 -0.2731  1.9730
10011SOL    HW242013   7.142   8.232   5.243  0.7376 -0.0156  0.8444
10012SOL     OW42014   7.566  13.614  13.365  0.2751  0.2082 -0.0489
10012SOL    HW142015   7.543  13.667  13.289  0.9241  1.5836  0.6761
10012SOL    HW242016   7.527  13.660  13.440  0.1884 -0.7629  0.5231
10013SOL     OW42017   0.451   4.910   6.670  0.3857  0.0654  0.1228
10013SOL    HW142018   0.529   4.892   6.618  0.4299 -0.5600  0.4013
10013SOL    HW242019   0.462   5.001   6.698  0.5790  0.2687 -0.5755
10014SOL     OW42020   5.439   6.036   5.170 -0.0538 -0.6575 -0.0445
10014SOL    HW142021   5.387   5.961   5.199 -1.5272  0.9293  1.6831
10014SOL    HW242022   5.480   6.070   5.250  1.7309 -0.4159 -1.0094
10015SOL     OW42023  10.646  12.987  12.471 -0.1157 -0.6728  0.2470
10015SOL    HW142024  10.601  13.067  12.445 -0.3957 -0.6288  0.8719
10015SOL    HW242025  10.735  12.997  12.436 -0.0095  0.1213  0.7271
10016SOL     OW42026   5.879   9.338   5.311  0.2679  0.0284  0.0175
10016SOL    HW142027   5.970   9.328   5.338  1.0091 -0.0175 -2.2144
10016SOL    HW242028   5.850   9.250   5.289  0.1151  0.1881 -0.4504
10017SOL     OW42029   1.420  12.884   3.952 -0.7259  0.1838  0.0518
10017SOL    HW142030   1.410  12.961   3.896 -0.7122  0.1150 -0.0458
10017SOL    HW242031   1.514  12.883   3.974  0.0536 -1.7332 -2.7572
10018SOL     OW42032  13.506   6.938   5.107  0.4232 -0.6586  0.6723
10018SOL    HW142033  13.591   6.982   5.100 -1.0780  2.8122  2.0169
10018SOL    HW242034  13.521   6.869   5.171  2.3389 -0.4310  0.5285
10019SOL     OW42035   3.875  10.389   6.588  0.2440  0.0913 -0.0961
10019SOL    HW142036   3.848  10.416   6.676 -0.8527  2.4127 -1.0585
10019SOL    HW242037   3.948  10.448   6.567 -0.7427  0.8760 -1.4330
10020SOL     OW42038   7.923  13.749   0.461  0.0409 -0.1007  0.5735
10020SOL    HW142039   7.876  13.668   0.441  0.4077 -0.3900  0.8589
10020SOL    HW242040   7.970  13.770   0.381 -2.9238  1.8899 -0.8316
10021SOL     OW42041   5.598   6.590  10.048  0.0559 -0.1750  0.2827
10021SOL    HW142042   5.619   6.678  10.080  2.3151 -0.8779  0.9205
10021SOL    HW242043   5.629   6.590   9.957 -3.5286  0.8367 -1.0934
10022SOL     OW42044  10.077   7.944  10.990 -0.0854 -0.4878 -0.1557
10022SOL    HW142045  10.098   7.920  11.080  2.5296  3.6544  0.6191
10022SOL    HW242046   9.997   7.997  10.996 -0.6173 -1.2365 -0.4907
10023SOL     OW42047   4.135   7.462  11.132 -0.2335 -0.3746 -0.3171
10023SOL    HW142048   4.154   7.380  11.087  1.6327  0.2755 -0.7706
10023SOL    HW242049   4.165   7.448  11.221 -1.0442 -0.5826 -0.0677
10024SOL     OW42050   7.232   1.671   6.683  0.0705  0.5037 -0.0477
10024SOL    HW142051   7.289   1.748   6.688 -0.0816  0.5238  1.9303
10024SOL    HW242052   7.289   1.597   6.706 -0.3447  0.3260  0.4217
10025SOL     OW42053   6.726   4.070   4.186  0.3558 -0.0238 -0.8309
10025SOL    HW142054   6.705   3.984   4.149 -0.2406  0.0869 -0.7656
10025SOL    HW242055   6.666   4.079   4.260  0.4555  0.4212 -0.8019
10026SOL     OW42056   8.359   3.917   6.989 -0.4799 -0.4067  0.3722
10026SOL    HW142057   8.436   3.877   7.029  0.1619 -1.3451 -1.6580
10026SOL    HW242058   8.391   4.003   6.958 -0.3416 -0.6156 -0.0808
10027SOL     OW42059  13.691  13.526   2.711 -0.2758  0.0204 -0.3235
10027SOL    HW142060  13.600  13.525   2.742  0.3125 -1.2962  1.5432
10027SOL    HW242061  13.704  13.613   2.675 -2.3529  0.1371 -0.9062
10028SOL     OW42062  10.068  12.834   0.660  0.2812 -0.0258 -0.0779
10028SOL    HW142063  10.049  12.741   0.652  0.0581 -0.1061  1.2769
10028SOL    HW242064   9.989  12.872   0.697 -0.1628  0.9553 -1.9151
10029SOL     OW42065   4.194   3.105   9.722 -0.0776 -0.2640  0.4822
10029SOL    HW142066   4.230   3.167   9.784  0.2282  0.6036 -0.5274
10029SOL    HW242067   4.107   3.083   9.756 -0.1206  0.5914  0.9349
10030SOL     OW42068   3.804   8.453  14.038 -0.6683 -0.6833  0.3900
10030SOL    HW142069   3.899   8.458  14.043 -0.6342  1.7149 -0.7970
10030SOL    HW242070   3.777   8.413  14.120  1.2876  0.1333  1.5056
10031SOL     OW42071   8.097   1.162   3.580  0.3156  0.3305  0.3428
10031SOL    HW142072   8.169   1.106   3.550 -1.2414 -1.7770  0.3687
10031SOL    HW242073   8.136   1.250   3.584  2.7228 -0.6251 -0.1677
10032SOL     OW42074   5.302   7.932   9.546  0.2529  0.1393 -0.1428
10032SOL    HW142075   5.259   7.929   9.632 -0.7000 -2.1747 -0.6161
10032SOL    HW242076   5.365   8.004   9.553 -1.0008  1.1470  1.8926
10033SOL     OW42077  12.855   3.669  11.524 -0.8483  0.1734  0.3952
10033SOL    HW142078  12.870   3.589  11.575  0.6208 -0.1675 -0.5004
10033SOL    HW242079  12.894   3.739  11.576  0.1302 -0.0901  0.0455
10034SOL     OW42080   2.591   4.638   7.809 -0.0569 -0.6397 -0.6000
10034SOL    HW142081   2.684   4.644   7.833 -0.1175  1.8766 -0.7473
10034SOL    HW242082   2.545   4.634   7.893  0.0845  0.8108 -0.4315
10035SOL     OW42083  12.796   2.483   7.368 -0.3353 -0.0309  0.0617
10035SOL    HW142084  12.752   2.550   7.421  1.9903  2.1025 -0.4954
10035SOL    HW242085  12.782   2.512   7.278  1.0755  0.0064 -0.1644
10036SOL     OW42086   8.305  11.200  11.505  0.0958 -0.6176  0.2371
10036SOL    HW142087   8.399  11.185  11.503  0.3006  0.4029 -2.8145
10036SOL    HW242088   8.289  11.264  11.436 -2.8390 -0.6583  0.7462
10037SOL     OW42089   5.512  10.080  13.192  0.3953  0.1150 -0.6431
10037SOL    HW142090   5.562  10.061  13.112  2.9552  0.5831  0.7422
10037SOL    HW242091   5.483  10.170  13.181  0.9611  0.2686 -0.9364
10038SOL     OW42092   4.846  13.449  13.823 -0.1300  0.1262 -1.0382
10038SOL    HW142093   4.862  13.360  13.792  2.6475 -0.5524  1.8404
10038SOL    HW242094   4.822  13.437  13.915 -1.7068  2.3150 -1.1013
10039SOL     OW42095  10.322   0.003  13.230  1.3128  0.2543  0.6624
10039SOL    HW142096  10.385   0.067  13.196  0.9871  0.3983  0.3143
10039SOL    HW242097  10.283  -0.036  13.152  2.4456 -1.3418  0.8469
10040SOL     OW42098   7.278   3.792   2.276 -0.3049  0.4369 -0.4170
10040SOL    HW142099   7.352   3.760   2.224 -1.1356  1.9707 -2.7100
10040SOL    HW242100   7.318   3.844   2.346  0.8366 -1.3425  0.3206
10041SOL     OW42101  10.163   5.043   5.811  0.8058  0.1756 -0.0924
10041SOL    HW142102  10.156   5.092   5.729 -1.9731 -0.1385 -0.1341
10041SOL    HW242103  10.216   4.966   5.788  3.6194  2.0478 -0.4740
10042SOL     OW42104  10.424   0.839  12.238  0.2368  0.1857 -0.3227
10042SOL    HW142105  10.442   0.753  12.275  0.3256  0.4851  0.3463
10042SOL    HW242106  10.498   0.893  12.265 -0.1743  0.6535 -0.1153
10043SOL     OW42107   9.641  11.976  10.098  0.5070 -0.1586  0.0510
10043SOL    HW142108   9.699  11.900  10.095 -0.3235 -0.8398  0.7667
10043SOL    HW242109   9.663  12.026  10.019 -0.2747 -2.1203 -1.4792
10044SOL     OW42110   4.126  14.023   0.387  0.2941 -0.0414 -0.5227
10044SOL    HW142111   4.078  14.064   0.315  0.0490 -0.4531 -0.5956
10044SOL    HW242112   4.146  13.935   0.355 -0.3113 -0.4247  0.1300
10045SOL     OW42113   3.666  13.366  11.760  0.4541  0.5921 -0.1104
10045SOL    HW142114   3.581  13.372  11.802  0.0872  2.6230 -1.0067
10045SOL    HW242115   3.683  13.272  11.752 -1.4697  0.1540  0.5121
10046SOL     OW42116  10.513   5.153   6.472 -0.1797 -0.7706 -0.2555
10046SOL    HW142117  10.503   5.235   6.422 -0.5189 -0.8659 -0.3425
10046SOL    HW242118  10.553   5.181   6.554  0.1565 -0.5786 -0.4775
10047SOL     OW42119   4.676   0.406   8.373  0.3606 -0.3020  0.1836
10047SOL    HW142120   4.687   0.330   8.430  0.7167  0.1539  0.7343
10047SOL    HW242121   4.613   0.377   8.307  0.7747 -1.1996  0.1586
10048SOL     OW42122   8.498  10.453   1.589  0.4334 -0.3542  0.0608
10048SOL    HW142123   8.407  10.480   1.593  0.0314 -1.5532 -0.6600
10048SOL    HW242124   8.531  10.488   1.506 -0.1631 -2.1877 -1.0048
10049SOL     OW42125   6.549   0.395   2.945  0.0139  0.4775  0.5427
10049SOL    HW142126   6.540   0.421   2.853 -1.3198 -2.2529 -0.1915
10049SOL    HW242127   6.497   0.460   2.994 -0.5633  1.0549 -0.7897
10050SOL     OW42128   6.978  10.876  13.437 -0.1552 -0.3390 -0.0192
10050SOL    HW142129   6.957  10.913  13.522  1.2581  1.3330 -0.3424
10050SOL    HW242130   6.986  10.782  13.453 -4.3122 -0.7743  0.7422
10051SOL     OW42131  10.442   7.602   7.290  0.0209 -0.3284 -0.0324
10051SOL    HW142132  10.385   7.586   7.215 -0.2486  1.7528 -0.3336
10051SOL    HW242133  10.524   7.556   7.268  0.0014  0.3635 -1.6802
10052SOL     OW42134  11.888  13.625   2.170 -0.0439  0.6183 -0.0797
10052SOL    HW142135  11.956  13.570   2.208 -1.2705  0.6335  2.3224
10052SOL    HW242136  11.930  13.709   2.154  1.3571 -0.3776 -2.0200
10053SOL     OW42137   4.578  11.695   4.173  0.0989  0.4161  0.6153
10053SOL    HW142138   4.537  11.612   4.197 -0.1996  0.6461  0.8908
10053SOL    HW242139   4.664  11.692   4.214  0.5657 -0.2789 -0.3627
10054SOL     OW42140  11.060   4.446   0.504  0.4304  0.4360  0.1821
10054SOL    HW142141  11.114   4.523   0.523  0.8902  0.2683 -0.4077
10054SOL    HW242142  11.080   4.384   0.575  2.8100 -0.5354 -1.2075
10055SOL     OW42143   7.078   7.296   8.921 -0.2264 -0.3393  0.1913
10055SOL    HW142144   7.082   7.201   8.909 -0.3594 -0.4500  0.9618
10055SOL    HW242145   7.073   7.308   9.016  1.6787  0.5164  0.2193
10056SOL     OW42146   2.352   4.338  11.387 -0.0723 -0.4264 -0.0559
10056SOL    HW142147   2.325   4.373  11.472 -0.6328 -1.3543  0.1524
10056SOL    HW242148   2.425   4.280  11.407  0.3226 -0.0311 -0.3141
10057SOL     OW42149  13.511  13.611   5.448  0.7513  0.4643 -1.0956
10057SOL    HW142150  13.514  13.694   5.494 -1.1763 -0.0453  0.0730
10057SOL    HW242151  13.574  13.620   5.377  2.2326  2.0853  0.3199
10058SOL     OW42152  10.328   7.187  13.377 -0.3838  0.0584  0.1477
10058SOL    HW142153  10.385   7.154  13.447 -1.0942  0.5551  0.9877
10058SOL    HW242154  10.361   7.145  13.297  0.4930 -0.4664  0.7632
10059SOL     OW42155   6.273  10.768   6.190 -0.3454 -0.3042  0.0341
10059SOL    HW142156   6.256  10.715   6.268  2.0867  1.2140  1.7609
10059SOL    HW242157   6.198  10.827   6.184 -0.0526  0.3593  2.0453
10060SOL     OW42158   3.027   0.186   2.458 -0.0561 -0.0226 -0.5104
10060SOL    HW142159   2.979   0.230   2.388  2.0495 -0.2017 -2.1503
10060SOL    HW242160   2.958   0.148   2.514 -1.8435  2.2234 -1.0534
10061SOL     OW42161   8.419   5.313   3.076 -0.0186  0.4994  0.2028
10061SOL    HW142162   8.450   5.306   2.986 -0.9602 -2.3869  0.0140
10061SOL    HW242163   8.383   5.227   3.096 -2.7042  1.9532  2.3007
10062SOL     OW42164   9.502   0.395  12.885  0.0642 -0.3763 -0.4690
10062SOL    HW142165   9.561   0.403  12.810 -1.4600  0.5897 -1.6357
10062SOL    HW242166   9.445   0.321  12.863 -1.1596  0.6565 -0.8591
10063SOL     OW42167   3.580   6.795   1.831  0.1495  0.1133 -0.5665
10063SOL    HW142168   3.625   6.814   1.748 -0.9979  0.1771 -1.1887
10063SOL    HW242169   3.579   6.878   1.878  0.7725  0.0853 -0.4976
10064SOL     OW42170  11.343   7.076   9.519 -0.0567  0.2839 -0.2431
10064SOL    HW142171  11.309   7.165   9.511  1.3106  0.9196  0.6747
10064SOL    HW242172  11.309   7.045   9.603 -2.3370 -0.9318 -1.5122
10065SOL     OW42173   5.231   9.414   3.295 -0.3227 -0.0025 -0.9784
10065SOL    HW142174   5.310   9.391   3.247 -0.5084 -0.6808 -0.9775
10065SOL    HW242175   5.210   9.335   3.345 -0.6134  0.4034 -0.4469
10066SOL     OW42176  11.282   7.717  12.221  0.3281  0.2451  0.5537
10066SOL    HW142177  11.261   7.646  12.282  0.8124 -1.3364 -1.0211
10066SOL    HW242178  11.364   7.689  12.179  1.4524  2.5477  1.0318
10067SOL     OW42179  13.679  10.482   6.765 -0.8208  0.0425  0.4229
10067SOL    HW142180  13.760  10.532   6.761 -0.5302 -0.0702  3.1834
10067SOL    HW242181  13.638  10.496   6.680  0.7074  2.4401 -0.0059
10068SOL     OW42182   0.669   0.599  10.635  0.6203 -0.7382 -0.7055
10068SOL    HW142183   0.725   0.646  10.573 -0.4946 -0.4353 -1.5127
10068SOL    HW242184   0.625   0.668  10.684 -0.4023 -0.9277 -1.3287
10069SOL     OW42185   1.472   3.012   4.442 -0.0453 -0.1642 -0.4559
10069SOL    HW142186   1.508   2.968   4.365 -0.5374  0.0074 -0.7902
10069SOL    HW242187   1.419   2.945   4.485 -1.5240  0.3126 -1.4514
10070SOL     OW42188   1.660   5.416   8.727 -0.7163 -0.3003  0.4314
10070SOL    HW142189   1.647   5.408   8.821 -2.2595  0.1046  0.2752
10070SOL    HW242190   1.615   5.497   8.703 -1.7562 -1.2182 -0.8837
10071SOL     OW42191   6.637   7.354  13.902  0.5245  0.1022  0.3269
10071SOL    HW142192   6.645   7.356  13.807 -1.7528 -0.8638  0.0439
10071SOL    HW242193   6.656   7.263  13.927 -0.2151  0.0191  0.6216
10072SOL     OW42194   7.856   0.194   4.923  0.5020  0.2213  0.3722
10072SOL    HW142195   7.925   0.129   4.911  0.5920  0.6158 -1.5289
10072SOL    HW242196   7.827   0.182   5.014  1.0749 -1.8884  0.3261
10073SOL     OW42197   4.914   6.742  10.158 -0.6300 -0.2391 -0.8232
10073SOL    HW142198   4.836   6.794  10.141 -0.5603 -0.6803 -2.7252
10073SOL    HW242199   4.967   6.752  10.078  0.8999 -0.5688  0.1088
10074SOL     OW42200  13.521   9.887   9.470  0.0373 -0.1888  0.0074
10074SOL    HW142201  13.496   9.978   9.452  1.3243  0.0546 -0.7497
10074SOL    HW242202  13.458   9.857   9.534 -1.3025  0.7796 -0.7975
10075SOL     OW42203   0.825   6.669  12.938 -0.9618  0.1643  0.3894
10075SOL    HW142204   0.825   6.748  12.885 -0.4543 -1.2193 -1.8197
10075SOL    HW242205   0.918   6.650  12.952 -0.9487 -1.5017 -1.5387
10076SOL     OW42206   8.811   1.543   8.061 -0.0428  0.2113  0.1658
10076SOL    HW142207   8.897   1.574   8.088  0.9757 -1.5067 -0.9284
10076SOL    HW242208   8.824   1.507   7.973 -1.7098 -0.7392  0.2532
10077SOL     OW42209   5.554   2.077   4.900  0.0312  0.2622 -0.3484
10077SOL    HW142210   5.627   2.130   4.932  0.3278 -0.1836 -0.2672
10077SOL    HW242211   5.505   2.135   4.842  1.2539  0.1630 -1.5262
10078SOL     OW42212   2.417   8.192  13.517  0.2719  0.3706  0.2983
10078SOL    HW142213   2.350   8.204  13.450  0.9391 -0.2624 -0.4975
10078SOL    HW242214   2.400   8.105  13.553  1.2688 -0.2277 -0.6215
10079SOL     OW42215   2.435   2.184   8.648 -0.2375  0.2623 -0.3422
10079SOL    HW142216   2.471   2.103   8.609 -1.4956 -0.3247 -0.3165
10079SOL    HW242217   2.436   2.247   8.576 -0.7746 -0.2632 -0.8186
10080SOL     OW42218  10.367   8.140  10.190  0.0950 -0.3311 -0.2485
10080SOL    HW142219  10.350   8.054  10.151  0.4828 -0.7680  0.5189
10080SOL    HW242220  10.460   8.156  10.172  0.9456 -1.6400  2.5023
10081SOL     OW42221   8.904   6.630  10.402 -0.2120 -0.1672  0.5089
10081SOL    HW142222   8.962   6.554  10.407 -0.5203 -0.3996  0.6172
10081SOL    HW242223   8.922   6.679  10.482  0.4797  0.2374  0.1120
10082SOL     OW42224   4.446  12.577   5.825 -0.3452 -0.2524 -0.6241
10082SOL    HW142225   4.453  12.672   5.829 -1.6252 -0.1898  1.7393
10082SOL    HW242226   4.416  12.559   5.735  1.0923  1.4170 -1.5083
10083SOL     OW42227   4.272   0.082  11.989  0.3210  0.1718 -0.1122
10083SOL    HW142228   4.264   0.093  11.895 -0.3794 -0.9487 -0.2094
10083SOL    HW242229   4.233  -0.004  12.006 -2.2889  1.5592  1.5597
10084SOL     OW42230   4.278   5.182   8.884 -0.3156  0.0073 -0.1337
10084SOL    HW142231   4.256   5.224   8.967 -1.4614  0.1120 -0.4739
10084SOL    HW242232   4.319   5.251   8.832 -3.1385  1.0952 -1.0857
10085SOL     OW42233  12.521   7.609  11.182 -0.0580 -0.1837 -0.1849
10085SOL    HW142234  12.586   7.539  11.176 -0.1046 -0.1292 -1.6056
10085SOL    HW242235  12.464   7.582  11.254  0.0293 -1.5286 -0.5874
10086SOL     OW42236  11.985  10.951   8.512  0.0286 -0.4599 -0.2234
10086SOL    HW142237  12.023  11.037   8.490  1.1095 -0.6837  0.6797
10086SOL    HW242238  11.906  10.945   8.457  0.1613  0.9251 -0.6065
10087SOL     OW42239  13.311   2.746   1.248  0.3504 -0.4277 -0.6446
10087SOL    HW142240  13.370   2.672   1.232  0.2837 -0.4610 -0.7392
10087SOL    HW242241  13.248   2.741   1.176  0.2313 -0.3934 -0.5416
10088SOL     OW42242  13.797  10.260   9.162 -0.1386  0.2715 -0.4539
10088SOL    HW142243  13.833  10.250   9.074 -0.3921 -0.1734 -0.5130
10088SOL    HW242244  13.799  10.171   9.199  0.4147  0.5337  0.1700
10089SOL     OW42245   5.670   6.079   8.991 -0.3721 -0.0353 -0.1922
10089SOL    HW142246   5.602   6.018   8.963 -1.8446  1.0175  0.9170
10089SOL    HW242247   5.666   6.151   8.928 -2.0409  1.1954  1.2377
10090SOL     OW42248   7.094   0.806   0.710 -0.3861  0.0931  0.0213
10090SOL    HW142249   7.157   0.810   0.639  0.3627  0.7474  0.6979
10090SOL    HW242250   7.093   0.714   0.737  1.9658  0.4037  1.4355
10091SOL     OW42251   3.749   8.431   7.955  0.0134 -0.1737  0.2354
10091SOL    HW142252   3.794   8.352   7.986 -0.3568 -0.2390  0.6032
10091SOL    HW242253   3.784   8.502   8.009 -0.3171 -0.2214  0.5080
10092SOL     OW42254   9.621   3.104  10.515  0.1760 -0.2012  0.3057
10092SOL    HW142255   9.609   3.053  10.594 -0.0916  0.4276  0.6810
10092SOL    HW242256   9.691   3.166  10.536 -0.5956  0.6567  0.4102
10093SOL     OW42257   6.400  13.846   9.268 -0.0484 -0.0374 -0.3272
10093SOL    HW142258   6.438  13.931   9.290  1.1397 -0.3941 -0.8939
10093SOL    HW242259   6.313  13.847   9.306 -0.6305  2.0167 -1.5948
10094SOL     OW42260  13.964  13.825   9.126  0.1994  0.0898  0.2562
10094SOL    HW142261  13.932  13.897   9.179 -0.5789 -0.4002  0.4607
10094SOL    HW242262  14.052  13.808   9.159  0.4390  1.0221  0.1196
10095SOL     OW42263   1.244   2.580   5.442  0.5324  0.0591  0.3398
10095SOL    HW142264   1.279   2.621   5.363  0.4569  0.6140  0.5870
10095SOL    HW242265   1.321   2.552   5.492  0.6208  0.8815  0.6771
10096SOL     OW42266   5.411   3.375  12.183 -0.1724  0.9434 -0.3518
10096SOL    HW142267   5.326   3.387  12.226 -0.5907 -1.4646 -0.3334
10096SOL    HW242268   5.405   3.426  12.103 -1.8494  0.4377 -0.5872
10097SOL     OW42269   3.767   1.308   4.534  0.1040  0.0669 -0.1715
10097SOL    HW142270   3.721   1.280   4.613 -0.5321 -0.5198 -0.7403
10097SOL    HW242271   3.791   1.227   4.490  0.2478  0.3884 -0.6998
10098SOL     OW42272   1.774  13.883  10.413  0.1091  0.5742 -0.6844
10098SOL    HW142273   1.798  13.820  10.346 -0.3937  0.4481 -0.7489
10098SOL    HW242274   1.722  13.949  10.367 -0.4971  0.3250 -0.3661
10099SOL     OW42275  11.589   7.468   7.838  0.2802  0.5554 -0.3507
10099SOL    HW142276  11.640   7.540   7.875  0.6940 -0.1857  0.5535
10099SOL    HW242277  11.651   7.395   7.832 -0.4996 -0.1717  0.1478
10100SOL     OW42278   6.729  10.426  12.706  0.1282 -0.0578  0.4724
10100SOL    HW142279   6.710  10.514  12.737  3.5162  0.6691  0.9309
10100SOL    HW242280   6.756  10.438  12.615 -3.0413 -1.2499 -0.7542
10101SOL     OW42281  11.271   0.518  10.886 -0.3831  0.6766 -0.1878
10101SOL    HW142282  11.230   0.602  10.865 -0.6000  0.1697 -1.9054
10101SOL    HW242283  11.244   0.501  10.977 -2.6135  1.1879 -0.6740
10102SOL     OW42284   6.804   6.616   1.380 -0.2168 -0.1158  0.0692
10102SOL    HW142285   6.729   6.556   1.381  0.2893 -0.7507  0.5327
10102SOL    HW242286   6.844   6.607   1.466  1.2346 -0.8695 -0.6547
10103SOL     OW42287   9.574  13.140   0.516  0.0070  0.2899  0.3824
10103SOL    HW142288   9.662  13.154   0.550 -0.1041  0.6481  0.5233
10103SOL    HW242289   9.563  13.045   0.519 -0.0924  0.3208  1.6148
10104SOL     OW42290   7.129  11.899   4.317  0.2274 -0.2962  0.5675
10104SOL    HW142291   7.087  11.959   4.255  0.9815  0.8400  1.1252
10104SOL    HW242292   7.069  11.824   4.322 -0.9777  0.6124  0.2144
10105SOL     OW42293  10.725  10.839   5.106 -0.4464 -0.1759 -0.1509
10105SOL    HW142294  10.798  10.902   5.107 -0.4751 -0.1310  1.3210
10105SOL    HW242295  10.663  10.875   5.042  0.0698  0.6693 -0.1909
10106SOL     OW42296  12.055   0.023   5.138  0.3281 -0.1616 -0.0035
10106SOL    HW142297  11.964   0.038   5.167  0.0089 -0.9834 -0.5622
10106SOL    HW242298  12.047  -0.033   5.061  1.3325 -0.4896  0.1152
10107SOL     OW42299   0.522  13.635   8.543 -0.0007 -0.0662 -0.4091
10107SOL    HW142300   0.492  13.608   8.630 -1.4894  0.1775 -0.8215
10107SOL    HW242301   0.470  13.583   8.482 -0.1136  0.9041 -1.1700
10108SOL     OW42302   4.051   1.568  13.009  0.5266 -0.0246 -0.2386
10108SOL    HW142303   4.145   1.554  13.020  0.3603 -0.5555  0.6117
10108SOL    HW242304   4.028   1.518  12.931  1.1540  1.0962 -1.1720
10109SOL     OW42305   2.102  12.383   7.085  0.9384 -0.1369  0.2976
10109SOL    HW142306   2.054  12.435   7.020 -0.9513 -0.9604  0.9577
10109SOL    HW242307   2.086  12.293   7.059  1.0260 -0.4518  1.3045
10110SOL     OW42308   0.068  10.132   2.096 -0.4591 -0.4887  0.0587
10110SOL    HW142309   0.074  10.104   2.005  0.2455  2.5337 -0.9429
10110SOL    HW242310   0.157  10.122   2.130 -0.7109 -1.5665  0.4622
10111SOL     OW42311  10.565   4.880   9.893  0.5400 -0.0806 -0.2020
10111SOL    HW142312  10.633   4.840   9.838  1.1822 -0.4472  0.8180
10111SOL    HW242313  10.553   4.817   9.964 -0.8403  0.0163 -0.3361
10112SOL     OW42314   1.910  12.168   0.806 -0.8831 -0.2112 -0.0753
10112SOL    HW142315   1.970  12.141   0.875 -1.5995  0.3659  0.7984
10112SOL    HW242316   1.824  12.137   0.835 -1.3587  0.9569 -0.1616
10113SOL     OW42317  11.688   4.734   9.448  0.5508  0.3195 -0.1291
10113SOL    HW142318  11.738   4.799   9.497 -0.2552 -0.4083  1.7585
10113SOL    HW242319  11.656   4.673   9.515 -2.8671  0.7287 -1.2082
10114SOL     OW42320   1.572   9.834   7.567  0.4460 -0.0740 -0.0735
10114SOL    HW142321   1.640   9.893   7.599  0.3799  0.7462 -1.3449
10114SOL    HW242322   1.491   9.884   7.576  0.2512 -0.3607 -0.1987
10115SOL     OW42323   0.560   9.340   5.606 -0.6293  0.5334 -0.2136
10115SOL    HW142324   0.476   9.293   5.602 -0.5280  0.1868  1.1801
10115SOL    HW242325   0.575   9.353   5.699  0.5103  1.2691 -0.4877
10116SOL     OW42326  11.455   3.468   3.192 -0.0393 -0.6361  0.1809
10116SOL    HW142327  11.433   3.460   3.099 -2.8113 -1.2393  0.7775
10116SOL    HW242328  11.438   3.380   3.227  2.7414 -0.9345  1.0149
10117SOL     OW42329   4.975   7.890  13.520 -0.0482 -0.7626  0.0971
10117SOL    HW142330   4.919   7.834  13.466 -0.5858  0.0061 -0.1558
10117SOL    HW242331   5.033   7.933  13.457 -0.5895  0.0377  0.1346
10118SOL     OW42332   8.872   6.824   5.250  0.6853  0.5083 -0.1283
10118SOL    HW142333   8.796   6.858   5.297 -0.7902 -1.9791 -0.5595
10118SOL    HW242334   8.936   6.805   5.319  0.3574  1.2141  0.3847
10119SOL     OW42335   8.019   3.491   6.727  0.1803 -0.6023  0.2334
10119SOL    HW142336   8.039   3.398   6.733 -0.4378 -0.7973 -0.4529
10119SOL    HW242337   7.959   3.508   6.799 -0.2438 -0.8999 -0.0429
10120SOL     OW42338  12.411   0.416   4.579  0.7087 -0.3564  0.0123
10120SOL    HW142339  12.369   0.330   4.573  1.7507 -0.9489  0.8300
10120SOL    HW242340  12.340   0.478   4.562 -0.1350 -1.3587 -0.2813
10121SOL     OW42341   5.640   6.198   0.949 -0.0366  0.4916  0.4241
10121SOL    HW142342   5.653   6.216   1.042  0.8370 -0.3057  0.4704
10121SOL    HW242343   5.549   6.168   0.944 -0.3840  1.4258  0.8659
10122SOL     OW42344   9.957   9.879   2.139 -0.1044 -0.1835 -0.0268
10122SOL    HW142345   9.882   9.901   2.085  2.3964  2.5663 -2.7811
10122SOL    HW242346   9.985   9.793   2.107 -1.6035 -0.9298  0.5752
10123SOL     OW42347   2.372  11.025  12.579 -0.6022  0.1009 -0.0259
10123SOL    HW142348   2.454  11.062  12.545  0.7977  0.1135  3.0838
10123SOL    HW242349   2.322  11.101  12.609 -1.2953 -0.0030 -0.8654
10124SOL     OW42350   2.683   5.625   1.623 -0.9619 -0.3033 -0.7084
10124SOL    HW142351   2.734   5.627   1.704 -0.3143 -0.0611 -1.1060
10124SOL    HW242352   2.638   5.541   1.624 -0.9153 -0.3198 -0.1202
10125SOL     OW42353  12.167   7.578   6.455 -0.1628  0.0206  0.2838
10125SOL    HW142354  12.175   7.624   6.538 -0.9918  0.5506  0.0797
10125SOL    HW242355  12.187   7.486   6.476  2.2259  0.5540  0.5604
10126SOL     OW42356   9.040  11.365  13.687 -0.3271 -0.5914  0.2903
10126SOL    HW142357   8.948  11.340  13.688  0.0231 -2.0333 -0.5152
10126SOL    HW242358   9.085  11.294  13.732  0.2506  0.8911  2.1663
10127SOL     OW42359  11.551   7.612   9.314 -0.1790  0.0938  0.0868
10127SOL    HW142360  11.604   7.665   9.256  0.6952  0.3287  1.0623
10127SOL    HW242361  11.577   7.522   9.295 -2.1448 -0.1224 -2.0442
10128SOL     OW42362   2.125   0.244  13.008  0.0680  0.1414 -0.1786
10128SOL    HW142363   2.201   0.198  12.972  1.4598  1.7269  0.5578
10128SOL    HW242364   2.158   0.285  13.088 -1.3494  1.5438 -0.2694
10129SOL     OW42365   3.687   1.623   9.189  0.3001  0.4148  0.6388
10129SOL    HW142366   3.607   1.569   9.192  1.1148 -0.8810  0.1654
10129SOL    HW242367   3.664   1.695   9.131 -0.8414  0.6270  1.3121
10130SOL     OW42368   3.951   3.066   6.719 -0.4037 -0.7168 -0.0918
10130SOL    HW142369   3.915   2.978   6.730  0.0400 -1.1919 -1.9645
10130SOL    HW242370   3.899   3.105   6.649  0.2168  0.0199 -0.1600
10131SOL     OW42371  12.763   5.622   0.066 -0.1294  0.0572  0.3663
10131SOL    HW142372  12.705   5.564   0.017  1.6909 -1.8178  0.3046
10131SOL    HW242373  12.790   5.571   0.142  1.9407  0.5999  0.0455
10132SOL     OW42374  11.504  10.835   1.773  0.3095  0.2260 -0.4616
10132SOL    HW142375  11.587  10.788   1.771  0.6655  0.8527 -0.5740
10132SOL    HW242376  11.527  10.925   1.751 -0.2264  0.6638  0.7169
10133SOL     OW42377   4.639   2.344   8.175  0.3109  0.2877  0.5019
10133SOL    HW142378   4.681   2.412   8.123  0.3288 -0.6514 -0.7553
10133SOL    HW242379   4.675   2.261   8.142 -2.7110 -0.6029 -0.9242
10134SOL     OW42380  12.683   5.839   1.169  0.2387  0.7826  0.0153
10134SOL    HW142381  12.731   5.915   1.134  2.0892  0.9137  2.5519
10134SOL    HW242382  12.681   5.777   1.096  0.0481  2.6367 -1.6473
10135SOL     OW42383   3.688  11.992   7.783 -0.2859 -0.0412  0.0025
10135SOL    HW142384   3.673  11.932   7.857 -0.5636  0.6245  0.5006
10135SOL    HW242385   3.710  12.075   7.824 -2.3564  0.8641 -0.5974
10136SOL     OW42386  12.935   7.552   5.069 -0.1782  0.1163 -0.2112
10136SOL    HW142387  12.887   7.476   5.037  0.8439  0.2315 -2.1513
10136SOL    HW242388  12.889   7.578   5.150 -2.2122 -0.8619 -0.9964
10137SOL     OW42389   2.388   2.133   0.461  0.2011 -0.5658 -0.0458
10137SOL    HW142390   2.372   2.134   0.556 -3.4046  2.0954 -0.4818
10137SOL    HW242391   2.341   2.055   0.430 -0.2674 -0.3850  0.1918
10138SOL     OW42392   2.814  13.815  13.216 -0.2795 -0.2545  0.3766
10138SOL    HW142393   2.869  13.892  13.229 -0.0053 -0.2064 -0.9087
10138SOL    HW242394   2.768  13.833  13.134 -1.9915 -0.4390  1.2681
10139SOL     OW42395   5.640   5.802   5.392 -0.9399  0.6407  0.1561
10139SOL    HW142396   5.546   5.823   5.394 -0.9987  0.3647  1.4164
10139SOL    HW242397   5.684   5.886   5.407 -1.0691  0.4809  1.6132
10140SOL     OW42398   3.762   9.843   7.855 -0.0542 -0.0156  0.0774
10140SOL    HW142399   3.733   9.930   7.884 -0.5224 -0.6987  1.8042
10140SOL    HW242400   3.730   9.836   7.765  0.7714  1.9254 -0.4164
10141SOL     OW42401   1.889   8.249  13.607  0.6560  0.2209 -0.5446
10141SOL    HW142402   1.844   8.324  13.568 -0.3987 -0.4721 -0.7024
10141SOL    HW242403   1.823   8.208  13.662  1.4546 -0.1575  0.1417
10142SOL     OW42404   8.290   4.941   6.317  0.8700  0.5619  0.0721
10142SOL    HW142405   8.226   4.927   6.247 -0.1850  0.4885  1.0299
10142SOL    HW242406   8.265   4.878   6.385  1.2039  1.3855  0.9679
10143SOL     OW42407   9.023   0.430   6.199 -0.2395  0.1715  0.4366
10143SOL    HW142408   8.962   0.504   6.197  0.0766  0.4339 -0.8547
10143SOL    HW242409   9.110   0.470   6.193 -0.0626 -0.2852 -0.2481
10144SOL     OW42410   7.354   8.633  13.342 -0.2127 -0.3246 -0.2071
10144SOL    HW142411   7.283   8.635  13.278 -0.9686 -1.2894  0.5705
10144SOL    HW242412   7.384   8.724  13.347  0.2738 -0.2947 -2.3235
10145SOL     OW42413  11.483  11.777  11.696  0.3819 -0.1337 -0.7302
10145SOL    HW142414  11.391  11.773  11.724  0.9173  0.2484  1.2296
10145SOL    HW242415  11.479  11.772  11.601 -1.5974 -1.2934 -0.6450
10146SOL     OW42416   0.888   7.753   5.362  0.5230 -0.3808 -0.8720
10146SOL    HW142417   0.930   7.830   5.323 -0.8322 -0.6160 -3.0175
10146SOL    HW242418   0.916   7.680   5.307 -0.7541 -0.8897 -0.8780
10147SOL     OW42419  12.302  13.648  11.225 -0.6061  0.1608  0.1119
10147SOL    HW142420  12.282  13.557  11.207  1.0542  0.3324 -3.3479
10147SOL    HW242421  12.230  13.697  11.186 -0.2177  0.3936 -0.3197
10148SOL     OW42422   4.819   3.488  13.593 -0.4154  0.3427 -0.4363
10148SOL    HW142423   4.806   3.564  13.650  1.0434 -1.5893  2.7886
10148SOL    HW242424   4.744   3.432  13.610 -0.0015 -0.2273 -0.4528
10149SOL     OW42425   3.700   3.969   5.446 -0.4367 -0.3857 -0.1982
10149SOL    HW142426   3.669   3.886   5.412  0.5720 -1.1158  0.5783
10149SOL    HW242427   3.631   4.032   5.425 -3.7205 -2.2770  3.5329
10150SOL     OW42428  12.490  12.480   5.226  0.1061 -0.4167 -0.1449
10150SOL    HW142429  12.523  12.413   5.285 -0.6938 -0.3840  0.3495
10150SOL    HW242430  12.459  12.550   5.283  0.0817 -0.0257 -0.6284
10151SOL     OW42431   1.414  13.332   5.065 -0.1265  0.5928 -0.4788
10151SOL    HW142432   1.483  13.388   5.100  1.9507 -1.0156 -1.7630
10151SOL    HW242433   1.416  13.254   5.121  0.0867 -0.0589 -1.3806
10152SOL     OW42434   1.713   6.044   0.431  0.2518  0.5364 -0.1972
10152SOL    HW142435   1.759   6.087   0.504 -0.3887  0.7486  0.0871
10152SOL    HW242436   1.701   6.113   0.366 -0.6428  0.7648  0.1960
10153SOL     OW42437   3.335   5.335   1.934  0.0796 -0.0768  0.6800
10153SOL    HW142438   3.368   5.252   1.901 -0.1684  0.2355 -0.3764
10153SOL    HW242439   3.389   5.353   2.011  1.5804 -0.1414 -0.3337
10154SOL     OW42440   5.145   2.347   9.920 -0.0087  0.1242 -0.4561
10154SOL    HW142441   5.075   2.368   9.858 -1.9595 -0.8553  1.3032
10154SOL    HW242442   5.155   2.252   9.914  0.7529  0.1806 -0.2215
10155SOL     OW42443   0.874   1.314  10.724 -0.2953 -0.1899  0.9837
10155SOL    HW142444   0.864   1.409  10.735  0.9024  0.2681 -1.2181
10155SOL    HW242445   0.818   1.292  10.650 -0.5655 -1.2132  1.4808
10156SOL     OW42446   9.642  12.844   4.333 -0.3021 -0.1042  0.0282
10156SOL    HW142447   9.725  12.874   4.297  0.2531 -0.7362  0.7503
10156SOL    HW242448   9.665  12.770   4.389 -1.1947  0.5417  1.2994
10157SOL     OW42449  12.877   6.733   8.381  0.3573  0.6821 -0.3140
10157SOL    HW142450  12.946   6.735   8.447  0.6536 -0.8797 -0.5365
10157SOL    HW242451  12.891   6.811   8.328  1.5380  0.7442  0.0718
10158SOL     OW42452   6.636   7.131   1.109  0.0979  0.5335  0.3947
10158SOL    HW142453   6.702   7.182   1.156  0.3585 -0.1497  0.7764
10158SOL    HW242454   6.674   7.043   1.101 -0.4205  0.3467 -0.1066
10159SOL     OW42455   4.449   9.390  11.081  0.2659 -0.2358  0.1307
10159SOL    HW142456   4.355   9.398  11.100  0.1465 -1.3229  0.0725
10159SOL    HW242457   4.492   9.436  11.152 -0.3041 -0.0110  0.3412
10160SOL     OW42458   3.330   2.787  10.681 -0.4472  0.5278 -0.1932
10160SOL    HW142459   3.243   2.754  10.657 -0.5563 -1.5260  2.5484
10160SOL    HW242460   3.315   2.835  10.763  0.6875  2.4470 -1.0302
10161SOL     OW42461   3.555  13.408  13.976 -0.2986 -0.1009  0.3228
10161SOL    HW142462   3.469  13.449  13.985 -1.0004 -1.6763  1.1998
10161SOL    HW242463   3.538  13.314  13.983  1.1859 -0.6380 -2.1430
10162SOL     OW42464   8.138   0.133   4.091 -0.2813  0.1367 -0.2001
10162SOL    HW142465   8.091   0.155   4.010  1.3655  0.6630 -1.0669
10162SOL    HW242466   8.096   0.186   4.158 -1.7626 -0.3980 -0.6516
10163SOL     OW42467   2.695   5.452   0.092  0.5347  0.1552 -0.0049
10163SOL    HW142468   2.695   5.383   0.158 -0.1000  0.6322  0.5070
10163SOL    HW242469   2.757   5.422   0.026  1.5357 -0.1176  1.0250
10164SOL     OW42470   9.943   6.311   9.381 -0.0603  0.9767  0.5926
10164SOL    HW142471  10.033   6.279   9.371  0.2251  1.6241  1.0214
10164SOL    HW242472   9.953   6.399   9.417 -0.9128  0.6308  1.7021
10165SOL     OW42473   2.929  13.311   6.776 -0.0366 -0.2295 -0.0726
10165SOL    HW142474   2.915  13.391   6.726 -0.2879  0.8405  1.6239
10165SOL    HW242475   2.858  13.311   6.841  1.2150 -0.6687  1.3530
10166SOL     OW42476   3.914  12.389   3.023 -0.5391  0.4727 -0.2020
10166SOL    HW142477   3.940  12.304   2.987 -0.9032 -0.0085  0.6415
10166SOL    HW242478   3.912  12.448   2.947 -0.3952 -0.2973 -0.8138
10167SOL     OW42479   2.837  13.844  11.557 -0.3609  0.6579  0.0409
10167SOL    HW142480   2.931  13.832  11.541 -0.2469  0.4109  0.8254
10167SOL    HW242481   2.812  13.915  11.499  0.0706  0.0030 -0.9903
10168SOL     OW42482  12.389   1.768   7.510 -0.3055 -0.4693  0.1725
10168SOL    HW142483  12.451   1.754   7.439  0.6504  1.7379  0.5176
10168SOL    HW242484  12.426   1.720   7.585 -0.1823 -0.9577 -0.1965
10169SOL     OW42485  11.359   1.346   1.974  0.2701 -0.3771  0.1231
10169SOL    HW142486  11.424   1.304   1.918 -0.1676 -0.8540 -0.0316
10169SOL    HW242487  11.408   1.376   2.050  0.6697 -0.7205 -0.0001
10170SOL     OW42488  12.938   2.411   8.416  0.3195 -0.2639  0.0227
10170SOL    HW142489  12.908   2.479   8.357  1.1544 -0.0526 -0.1740
10170SOL    HW242490  12.861   2.357   8.432 -0.6493  1.3248  1.0323
10171SOL     OW42491  11.555   3.656  10.194 -0.3149  0.0265  0.8129
10171SOL    HW142492  11.527   3.738  10.234  0.8218  0.9442 -0.2096
10171SOL    HW242493  11.650   3.663  10.187 -0.3815 -0.4207 -1.2711
10172SOL     OW42494   8.022  11.085  11.994  0.2094  0.4105 -0.2829
10172SOL    HW142495   7.982  11.002  12.020 -1.4206  1.4154  0.5155
10172SOL    HW242496   7.975  11.112  11.915  1.2247  0.2485 -0.9689
10173SOL     OW42497   1.696   1.359   7.933 -0.2318  0.5090  0.0355
10173SOL    HW142498   1.715   1.374   8.025 -1.2159 -0.2088  0.3648
10173SOL    HW242499   1.634   1.286   7.932 -0.6274  0.8291 -1.1539
10174SOL     OW42500   9.526   6.734   8.762  0.2327  0.1585 -0.2218
10174SOL    HW142501   9.621   6.745   8.751  0.0467  0.0191 -2.4456
10174SOL    HW242502   9.494   6.713   8.674 -1.8168 -0.2424  0.5675
10175SOL     OW42503   0.397  13.882   4.020 -0.6003  0.7588  0.2157
10175SOL    HW142504   0.469  13.927   3.976 -3.0485  2.2444 -2.6319
10175SOL    HW242505   0.432  13.795   4.039  1.5308  0.9514 -2.2644
10176SOL     OW42506   8.515   2.213  13.560 -0.8240  0.0990  0.2673
10176SOL    HW142507   8.603   2.198  13.526 -0.8440  0.3730  0.0920
10176SOL    HW242508   8.525   2.214  13.655 -0.6127  0.2803  0.2437
10177SOL     OW42509   4.415   4.431  11.153  0.0881 -0.3796 -0.0521
10177SOL    HW142510   4.359   4.486  11.098  0.2830  2.4724  2.3680
10177SOL    HW242511   4.498   4.425  11.105 -0.4951 -0.0016 -1.1377
10178SOL     OW42512   5.870   2.805   1.837  0.3825 -0.7563  0.1371
10178SOL    HW142513   5.877   2.781   1.745  1.3285 -0.5195  0.1298
10178SOL    HW242514   5.881   2.900   1.838 -0.0417 -0.7069  0.4610
10179SOL     OW42515   1.786  13.908  13.526 -0.2221 -0.2523 -0.0060
10179SOL    HW142516   1.693  13.931  13.525 -0.0094  0.6686  0.2547
10179SOL    HW242517   1.830  13.988  13.555  0.6192 -0.7933  0.2541
10180SOL     OW42518  11.660   1.531   4.289  0.2517 -0.5040  0.3608
10180SOL    HW142519  11.580   1.524   4.340 -2.5830  0.8697 -3.4153
10180SOL    HW242520  11.693   1.619   4.307 -1.2691  0.3314 -0.8007
10181SOL     OW42521   5.914  10.161  13.214 -0.0947 -0.8954 -0.1753
10181SOL    HW142522   5.833  10.210  13.200 -0.1922 -0.9209  0.2777
10181SOL    HW242523   5.958  10.162  13.129  0.7075  1.4053  0.1885
10182SOL     OW42524  12.132   2.349   8.430  0.0348 -0.0785 -0.3090
10182SOL    HW142525  12.194   2.315   8.494  1.1078 -1.0792 -1.8130
10182SOL    HW242526  12.184   2.404   8.372 -0.2661 -1.5453 -2.0544
10183SOL     OW42527   4.020  11.136   4.542 -0.3750 -0.0195 -0.0543
10183SOL    HW142528   3.986  11.202   4.603  1.0083 -0.1335  0.8756
10183SOL    HW242529   3.960  11.062   4.551 -0.6351  0.2657  0.5769
10184SOL     OW42530  11.507   0.606  12.470 -0.1822 -0.3573  0.3854
10184SOL    HW142531  11.536   0.634  12.556  0.5193  1.1745 -0.3015
10184SOL    HW242532  11.434   0.665  12.448  0.1481 -0.2046 -0.3628
10185SOL     OW42533   3.208   2.086  11.099 -0.5962  0.8629  0.1138
10185SOL    HW142534   3.226   2.112  11.008 -0.4618  0.1240 -0.0732
10185SOL    HW242535   3.162   2.003  11.091  1.6475 -0.5211  0.7748
10186SOL     OW42536  10.180  10.894   7.955 -0.4624 -0.1955 -0.6896
10186SOL    HW142537  10.177  10.938   8.040 -2.0623 -0.2027 -0.7282
10186SOL    HW242538  10.153  10.961   7.892 -0.7120 -0.6054 -1.0233
10187SOL     OW42539  10.010   0.299   4.456 -0.4582 -0.8605 -0.5265
10187SOL    HW142540  10.104   0.303   4.439 -0.2195 -0.3114  0.8034
10187SOL    HW242541   9.971   0.278   4.371  0.8268 -0.6777 -1.1833
10188SOL     OW42542  13.434  11.563   6.229  0.0471 -0.5377  0.6367
10188SOL    HW142543  13.411  11.656   6.217 -1.0768 -0.3958  3.1707
10188SOL    HW242544  13.508  11.565   6.289 -0.6430 -1.2635  1.5502
10189SOL     OW42545   2.563   3.969   3.624  0.0750  0.2424  0.1323
10189SOL    HW142546   2.586   3.909   3.554  0.1094 -1.0495  1.2061
10189SOL    HW242547   2.573   4.056   3.586  0.5701 -0.4171 -1.2976
10190SOL     OW42548  13.588   6.663   3.511 -0.2164 -0.3207 -0.2665
10190SOL    HW142549  13.534   6.699   3.441 -0.1107 -2.5864 -1.5976
10190SOL    HW242550  13.671   6.712   3.506 -0.4279 -0.0570 -1.3233
10191SOL     OW42551  13.324   3.710  11.159  0.3669 -0.3362 -0.8407
10191SOL    HW142552  13.314   3.723  11.253 -0.5052  2.1944 -1.2182
10191SOL    HW242553  13.410   3.747  11.138 -0.8716  2.4664 -1.4711
10192SOL     OW42554   7.683   7.763   9.870  0.4465 -0.0024 -0.2978
10192SOL    HW142555   7.747   7.827   9.838  1.1282 -0.2187  0.5735
10192SOL    HW242556   7.620   7.754   9.800  0.5977  1.2878 -0.6146
10193SOL     OW42557  12.735   0.077   2.362 -0.0680 -0.0548  0.1652
10193SOL    HW142558  12.766   0.107   2.277  0.8655  0.5560  0.7077
10193SOL    HW242559  12.662   0.135   2.383 -0.8477 -0.7311 -0.5683
10194SOL     OW42560   0.781   7.712  10.399  0.3900 -0.7604  0.4421
10194SOL    HW142561   0.770   7.807  10.387 -1.6526 -0.6570  2.4442
10194SOL    HW242562   0.693   7.676  10.388  0.7772 -2.1635  1.6130
10195SOL     OW42563   0.012   7.455  13.035 -0.2515 -0.2719 -0.0796
10195SOL    HW142564   0.059   7.482  13.115 -0.9379  1.3972 -0.2037
10195SOL    HW242565   0.032   7.523  12.971  0.1776 -1.5192 -1.3360
10196SOL     OW42566  13.891   9.177   8.481 -0.3039 -0.2157 -0.2466
10196SOL    HW142567  13.947   9.179   8.558 -0.6527 -0.7436  0.0279
10196SOL    HW242568  13.815   9.231   8.504  0.6712  1.5993 -1.0991
10197SOL     OW42569   2.331  10.954   1.368  0.2078  0.1885 -0.2270
10197SOL    HW142570   2.393  10.973   1.298  1.3995  1.8519  1.1746
10197SOL    HW242571   2.347  11.023   1.433 -3.1192  0.6963  0.2225
10198SOL     OW42572   4.262   9.285  11.289 -0.0926  0.0275 -0.3563
10198SOL    HW142573   4.303   9.201  11.269 -0.1560  0.1057 -0.8181
10198SOL    HW242574   4.250   9.284  11.384 -1.4153 -1.0817 -0.5238
10199SOL     OW42575   4.014   6.111  11.068  0.1181  0.0128  0.2494
10199SOL    HW142576   3.937   6.104  11.125  1.2829 -0.8364  1.8073
10199SOL    HW242577   4.031   6.020  11.040 -0.5433  0.4356 -1.6579
10200SOL     OW42578  13.631   2.685  10.312  0.3082 -0.3899 -1.0557
10200SOL    HW142579  13.696   2.747  10.347 -0.0171 -0.6185 -0.0191
10200SOL    HW242580  13.662   2.667  10.223  1.1170  0.2712 -0.9290
10201SOL     OW42581   8.866   1.912   7.740 -0.4249 -0.2027 -0.2292
10201SOL    HW142582   8.897   1.883   7.655  0.5916 -0.3752  0.1777
10201SOL    HW242583   8.889   1.840   7.800 -0.2634  0.3115  0.3411
10202SOL     OW42584   7.483   4.947  11.242 -0.4754 -0.1616  0.4353
10202SOL    HW142585   7.537   4.989  11.309  0.3739 -2.1230  1.0702
10202SOL    HW242586   7.505   4.993  11.161  0.0918  0.8589  1.1447
10203SOL     OW42587  11.327   7.741   7.953  0.1388 -0.6801  0.2483
10203SOL    HW142588  11.355   7.691   8.029  1.1435  0.8468  0.9129
10203SOL    HW242589  11.313   7.830   7.985 -1.5227 -0.4543 -0.9290
10204SOL     OW42590   1.803   5.008   2.465  0.5010  0.5160 -0.3940
10204SOL    HW142591   1.827   5.101   2.462  1.9757  0.1822  0.2021
10204SOL    HW242592   1.877   4.963   2.425  0.5313 -0.5062  0.7402
10205SOL     OW42593   2.613   2.710  13.244  0.2927  0.1008 -0.0205
10205SOL    HW142594   2.627   2.788  13.298 -0.6001  1.0191 -1.0385
10205SOL    HW242595   2.685   2.711  13.181 -0.5174  1.0106 -0.9920
10206SOL     OW42596   3.056   1.397   5.562 -0.7107  0.1827 -0.4377
10206SOL    HW142597   2.977   1.441   5.595 -0.5702  0.2702 -0.2221
10206SOL    HW242598   3.022   1.326   5.507 -0.9798 -1.1280  1.3455
10207SOL     OW42599   2.485  12.564   4.170  0.4361  0.0129 -0.1313
10207SOL    HW142600   2.430  12.623   4.120 -0.5137 -0.4195  0.3844
10207SOL    HW242601   2.573  12.578   4.136  0.3009  1.9970  0.2461
10208SOL     OW42602  11.662  11.833   1.092 -0.5014 -0.5001  0.0677
10208SOL    HW142603  11.752  11.816   1.066 -0.7357  0.0086 -1.1414
10208SOL    HW242604  11.628  11.894   1.026 -1.3858  0.2255  1.1403
10209SOL     OW42605   1.603  13.681   4.516 -0.1277  0.1388 -0.4297
10209SOL    HW142606   1.626  13.643   4.431  0.4769  1.0265 -0.6728
10209SOL    HW242607   1.675  13.656   4.574  0.7527  1.6705 -0.8236
10210SOL     OW42608   5.916  13.147  12.163  0.4240 -0.0531 -0.0960
10210SOL    HW142609   5.889  13.238  12.153 -0.0430 -0.3276 -1.4702
10210SOL    HW242610   5.899  13.128  12.256 -0.1667  1.0333  0.0359
10211SOL     OW42611   7.893  11.998  13.308  0.7936 -0.0406 -0.5534
10211SOL    HW142612   7.928  11.981  13.395  0.3574  2.8998  0.3380
10211SOL    HW242613   7.799  12.013  13.322  0.4716 -0.7632 -1.7473
10212SOL     OW42614  10.484  11.060   9.685  0.1550  0.4571 -0.2289
10212SOL    HW142615  10.442  11.135   9.726 -2.4607 -0.5471 -0.8430
10212SOL    HW242616  10.507  11.091   9.597  0.1185  0.8587 -0.0989
10213SOL     OW42617   7.587   1.853   7.546  0.4708 -0.5556  0.2300
10213SOL    HW142618   7.680   1.830   7.546  0.4596 -0.6172 -0.1418
10213SOL    HW242619   7.578   1.914   7.473  0.2199 -0.5441  0.2708
10214SOL     OW42620   6.412  12.921  10.830  0.1892 -0.0816  0.6047
10214SOL    HW142621   6.355  12.936  10.906  0.0463  1.2564  0.2544
10214SOL    HW242622   6.367  12.854  10.779 -1.3075  1.1990  0.1505
10215SOL     OW42623   9.316  11.131   4.475  0.3616 -0.0631 -0.2344
10215SOL    HW142624   9.408  11.155   4.468  0.5966 -0.2390  1.8057
10215SOL    HW242625   9.274  11.210   4.510 -0.1210 -0.2756 -0.3280
10216SOL     OW42626  10.455   8.308   0.225  0.0809  0.3895 -0.1654
10216SOL    HW142627  10.510   8.358   0.165  1.4249 -0.2876  0.4284
10216SOL    HW242628  10.370   8.304   0.183  1.0886 -0.4713 -2.2832
10217SOL     OW42629   5.683   6.121   6.929 -0.2219 -0.1092  0.1102
10217SOL    HW142630   5.769   6.136   6.889 -0.4903  0.0223 -0.4291
10217SOL    HW242631   5.621   6.127   6.856 -0.9586  2.3151  0.8365
10218SOL     OW42632   4.955   1.417   3.927  0.1402 -0.4002 -0.0397
10218SOL    HW142633   4.870   1.434   3.967  0.3062  0.5857 -0.0662
10218SOL    HW242634   4.937   1.414   3.833  0.0312 -0.9069 -0.0061
10219SOL     OW42635   2.344   4.520   3.780 -0.1297  0.2650  0.5325
10219SOL    HW142636   2.409   4.492   3.844  0.0521 -1.9148 -0.5199
10219SOL    HW242637   2.390   4.583   3.725  0.8681 -0.6059  0.3284
10220SOL     OW42638   8.724   7.285   7.200 -0.3071 -0.0087 -0.3861
10220SOL    HW142639   8.779   7.207   7.199 -0.5372 -0.1728 -2.0560
10220SOL    HW242640   8.740   7.328   7.117 -2.3937  0.1342 -0.7836
10221SOL     OW42641   2.545   5.121   5.509  0.3185 -0.5228 -0.0979
10221SOL    HW142642   2.452   5.105   5.520 -0.1594  0.9449 -1.5209
10221SOL    HW242643   2.581   5.121   5.598 -1.4621  1.1373  0.6892
10222SOL     OW42644   3.009   1.324   3.684  0.2713 -0.2181 -0.1087
10222SOL    HW142645   2.928   1.342   3.636  0.3851  0.2412 -0.1287
10222SOL    HW242646   2.984   1.260   3.750 -0.2334  0.3363  0.2438
10223SOL     OW42647   8.129  12.557   7.655  0.1322  0.1194  0.2092
10223SOL    HW142648   8.200  12.618   7.673  0.5646 -0.1823 -0.4527
10223SOL    HW242649   8.083  12.548   7.739  1.7219 -0.7767  1.0161
10224SOL     OW42650   7.690   0.592   5.435 -0.1142 -0.1701  0.5129
10224SOL    HW142651   7.734   0.625   5.357  0.3329  0.5996  1.0836
10224SOL    HW242652   7.628   0.660   5.459 -0.4098 -0.5022  0.7087
10225SOL     OW42653   6.773   1.136   1.059  0.6690  0.4901  0.3503
10225SOL    HW142654   6.780   1.041   1.058  0.6110  0.4663  1.2309
10225SOL    HW242655   6.830   1.164   1.130  2.0133  1.2583 -0.9582
10226SOL     OW42656   4.583   0.184   1.967 -0.1975  0.4679  0.1100
10226SOL    HW142657   4.676   0.185   1.987 -0.4440 -1.0137  1.5347
10226SOL    HW242658   4.540   0.192   2.052 -1.3304 -1.2933 -0.2356
10227SOL     OW42659  12.744  13.677   0.105  0.0385  0.1358  0.5164
10227SOL    HW142660  12.684  13.683   0.180 -0.7607  1.2919 -0.1816
10227SOL    HW242661  12.773  13.586   0.105 -1.2445 -0.3039  1.2408
10228SOL     OW42662   5.329   5.174   9.786  0.4418 -0.1011 -0.4777
10228SOL    HW142663   5.387   5.150   9.713  0.2953  0.3637 -0.7540
10228SOL    HW242664   5.352   5.114   9.856  0.5860 -0.5589 -0.9100
10229SOL     OW42665   7.989   6.739  13.701 -0.0676 -0.1369  0.4813
10229SOL    HW142666   8.039   6.815  13.731 -0.6412  0.0814  0.8998
10229SOL    HW242667   7.909   6.740  13.754 -1.7195  0.9963 -1.8876
10230SOL     OW42668   8.077   9.300   5.118  0.2518  0.3605 -0.1635
10230SOL    HW142669   7.983   9.290   5.133  0.6709 -2.4181  1.3607
10230SOL    HW242670   8.109   9.347   5.194  0.5028 -1.8323  1.1729
10231SOL     OW42671   5.889   4.604   6.651  0.3435  0.0228 -0.2304
10231SOL    HW142672   5.884   4.682   6.706  0.2443  0.0419 -0.2674
10231SOL    HW242673   5.920   4.636   6.566  2.7577 -0.3017  0.4514
10232SOL     OW42674   0.851   6.624   3.288 -0.3119 -0.1014  0.0125
10232SOL    HW142675   0.914   6.690   3.319 -0.5428 -0.1386  0.5765
10232SOL    HW242676   0.905   6.548   3.266 -0.0275  0.3145 -0.7847
10233SOL     OW42677   2.592   6.092   6.628 -0.0791 -0.1031 -0.0378
10233SOL    HW142678   2.656   6.073   6.697  0.5452  1.4521 -0.1434
10233SOL    HW242679   2.613   6.029   6.558  2.1265  1.0660 -0.5373
10234SOL     OW42680   2.621   2.319  13.333  0.4414  0.2067 -0.1568
10234SOL    HW142681   2.700   2.368  13.312  1.8414 -2.1004 -0.7456
10234SOL    HW242682   2.630   2.237  13.283 -1.3091 -1.0116  1.3742
10235SOL     OW42683   3.301   0.703   5.813 -0.8587  0.0282 -0.0691
10235SOL    HW142684   3.333   0.786   5.777 -2.1665  0.7258  0.3151
10235SOL    HW242685   3.211   0.722   5.840 -1.2211 -1.5558 -0.0907
10236SOL     OW42686  12.870   5.089  11.877 -0.2436 -0.0697  0.0476
10236SOL    HW142687  12.833   5.156  11.819 -0.2302 -0.7663 -0.7737
10236SOL    HW242688  12.964   5.106  11.876 -0.3134  0.3992  0.4973
10237SOL     OW42689  10.461  13.720  13.255  0.0105 -0.2651  0.2755
10237SOL    HW142690  10.535  13.765  13.215  0.6053 -0.8792  0.6711
10237SOL    HW242691  10.452  13.761  13.341 -0.2618 -0.0399  0.1446
10238SOL     OW42692  10.157   2.797  12.075 -0.2389  0.1572 -0.3957
10238SOL    HW142693  10.220   2.812  12.146 -0.3882 -0.2256 -0.1834
10238SOL    HW242694  10.210   2.799  11.995 -0.4034  3.2367 -0.5561
10239SOL     OW42695   1.790   4.122   1.647 -0.0746  0.0669 -0.1429
10239SOL    HW142696   1.794   4.147   1.555  1.3356 -0.6360 -0.3078
10239SOL    HW242697   1.730   4.048   1.650  0.0350 -0.0392 -0.5383
10240SOL     OW42698   6.064   5.299  12.330 -0.2347 -0.3333  0.4101
10240SOL    HW142699   6.152   5.335  12.340 -0.6730  1.1849 -0.9024
10240SOL    HW242700   6.016   5.332  12.406 -1.3566  4.3622 -2.0032
10241SOL     OW42701   5.129  13.583   4.805 -0.0867 -0.4807 -0.8180
10241SOL    HW142702   5.104  13.509   4.751  2.0397 -0.2787 -2.1985
10241SOL    HW242703   5.186  13.545   4.873 -0.1563 -0.2942 -0.6526
10242SOL     OW42704   3.908   4.359  13.584  0.9272  0.0343  0.0963
10242SOL    HW142705   3.923   4.448  13.616  0.1691  0.8564 -1.7176
10242SOL    HW242706   3.912   4.366  13.489 -0.3504 -1.6498 -0.1319
10243SOL     OW42707   2.839   9.631   1.168 -0.5050  0.0220  0.0825
10243SOL    HW142708   2.865   9.717   1.135  2.2601 -0.7638 -0.0488
10243SOL    HW242709   2.821   9.645   1.261 -2.6365  1.1494 -0.4287
10244SOL     OW42710   1.382  13.261  12.552 -0.4520  0.6854  0.3389
10244SOL    HW142711   1.313  13.230  12.611 -1.1506  0.6885 -0.4621
10244SOL    HW242712   1.462  13.260  12.605 -1.0966  0.8372  1.3228
10245SOL     OW42713   2.537   5.136  12.160 -0.4218  0.2611 -0.8446
10245SOL    HW142714   2.631   5.135  12.144  0.2221  0.6931  2.2732
10245SOL    HW242715   2.499   5.171  12.079  2.0814  0.3688 -2.0662
10246SOL     OW42716   4.666  12.856   0.430  0.0627 -0.2792 -0.4438
10246SOL    HW142717   4.582  12.878   0.390 -0.3523 -1.1158 -0.0694
10246SOL    HW242718   4.703  12.789   0.372  0.9662  0.8355 -1.1793
10247SOL     OW42719  13.424   2.437   3.826  0.3538  0.1224  0.3285
10247SOL    HW142720  13.491   2.442   3.894 -0.5057 -0.0437  1.1944
10247SOL    HW242721  13.385   2.524   3.823  1.3712  0.5678 -0.9934
10248SOL     OW42722  10.676  10.843   4.426 -0.3400 -0.9463 -0.0673
10248SOL    HW142723  10.716  10.778   4.484 -0.2764 -1.7440 -0.9871
10248SOL    HW242724  10.583  10.840   4.447 -0.2272 -0.6961  0.4999
10249SOL     OW42725  11.731   4.515  13.079  0.5170  0.0366 -0.4529
10249SOL    HW142726  11.753   4.500  13.171 -0.4418  0.1991 -0.1914
10249SOL    HW242727  11.807   4.562  13.043  0.8921 -0.0302  0.2559
10250SOL     OW42728   2.961   8.631   5.659 -0.1051 -0.2030 -0.0779
10250SOL    HW142729   3.008   8.594   5.584 -0.8254  0.3351 -0.8126
10250SOL    HW242730   2.895   8.689   5.620 -1.0867 -0.6016  0.9440
10251SOL     OW42731   4.588  10.143   9.187  0.0968 -0.0979 -0.0006
10251SOL    HW142732   4.671  10.176   9.152 -0.3010  0.6875 -0.2162
10251SOL    HW242733   4.538  10.221   9.209 -1.1564 -0.5228 -1.1980
10252SOL     OW42734  13.533   4.612  10.542 -0.2730  0.8120  0.2722
10252SOL    HW142735  13.575   4.530  10.567  0.8961  1.2098 -0.3002
10252SOL    HW242736  13.455   4.585  10.493 -0.6829  0.0567  1.3222
10253SOL     OW42737   6.296   1.634   9.340 -0.2101  0.3357  0.1249
10253SOL    HW142738   6.229   1.668   9.282 -0.3373 -0.8093 -0.4350
10253SOL    HW242739   6.318   1.547   9.304  2.3966  1.1095 -0.4042
10254SOL     OW42740   4.044   1.276   7.567 -0.3643  0.1006 -0.3046
10254SOL    HW142741   4.053   1.201   7.626 -0.7114 -0.0523 -0.4387
10254SOL    HW242742   4.133   1.302   7.546 -0.2172 -1.1058 -1.3004
10255SOL     OW42743   1.724   1.063  12.245  0.1613 -0.2784 -0.2197
10255SOL    HW142744   1.656   1.072  12.312  0.2321  0.6538 -0.2587
10255SOL    HW242745   1.806   1.079  12.293  0.1398  1.4629 -0.7132
10256SOL     OW42746   9.593   6.142  13.470 -0.2532 -0.0282 -0.1914
10256SOL    HW142747   9.504   6.117  13.494 -0.9032  1.6548 -0.6538
10256SOL    HW242748   9.601   6.232  13.501  1.6132 -0.4307  0.6095
10257SOL     OW42749   6.366   0.751   6.093  0.3131  0.0093 -0.7122
10257SOL    HW142750   6.299   0.707   6.146  0.0684  0.6425 -0.4841
10257SOL    HW242751   6.435   0.773   6.155 -0.2302  1.2717 -0.5174
10258SOL     OW42752   7.599   0.978   7.997 -0.3397 -0.3473 -0.1196
10258SOL    HW142753   7.629   0.922   7.926  2.3505 -0.0148  0.6431
10258SOL    HW242754   7.613   1.067   7.965  1.0710 -0.1926  0.8145
10259SOL     OW42755  10.740  12.185   4.775 -0.2585  0.4526 -0.1739
10259SOL    HW142756  10.649  12.211   4.790 -1.6795 -3.0974 -1.5127
10259SOL    HW242757  10.756  12.116   4.839 -0.1987 -2.1841 -2.8580
10260SOL     OW42758   0.690   5.095   3.477  0.0989 -0.0846 -0.1167
10260SOL    HW142759   0.739   5.161   3.428 -0.3251  0.5535  0.2877
10260SOL    HW242760   0.612   5.078   3.424 -0.0591  0.1496  0.0380
10261SOL     OW42761  11.183   0.414   3.774  0.1217 -0.7428  0.5813
10261SOL    HW142762  11.127   0.352   3.819  0.2549 -0.8754  0.5635
10261SOL    HW242763  11.210   0.476   3.842 -1.5991  0.4724  0.2403
10262SOL     OW42764   1.863  12.031  12.273  0.9525  0.0905  0.2889
10262SOL    HW142765   1.777  12.054  12.239  0.8344  0.9295  1.1020
10262SOL    HW242766   1.899  11.970  12.210 -0.1273 -0.0469 -0.2061
10263SOL     OW42767   9.799  12.549   2.385 -0.6990  0.1027 -0.3299
10263SOL    HW142768   9.776  12.489   2.314 -1.4192 -0.2749  0.2046
10263SOL    HW242769   9.723  12.548   2.443  0.4539 -0.7659  1.2387
10264SOL     OW42770   9.517   8.682   0.134 -0.1003 -0.3589 -0.2435
10264SOL    HW142771   9.480   8.608   0.085  0.7235  0.5141 -2.3023
10264SOL    HW242772   9.465   8.757   0.107 -0.4871 -0.0263  1.3157
10265SOL     OW42773   2.562  11.783  11.693 -0.7877  0.4871 -0.5127
10265SOL    HW142774   2.557  11.815  11.783 -0.1660  0.1277 -0.3405
10265SOL    HW242775   2.651  11.804  11.665  0.3879 -2.7926  0.3053
10266SOL     OW42776  10.864   5.070   5.428  0.1640 -0.1587 -0.1791
10266SOL    HW142777  10.879   5.138   5.493  1.0998 -1.8921  1.5120
10266SOL    HW242778  10.927   5.089   5.358 -0.3418  1.2959 -0.2733
10267SOL     OW42779   4.516   0.786  11.259 -0.1153  0.0411  0.1090
10267SOL    HW142780   4.487   0.869  11.297  0.5539  0.3032  0.0685
10267SOL    HW242781   4.612   0.791  11.262 -0.0085  0.3754 -2.2493
10268SOL     OW42782   9.138  13.957   4.391  0.3466  0.0877  0.3027
10268SOL    HW142783   9.136  13.864   4.371 -1.0591  0.0888  0.3951
10268SOL    HW242784   9.135  14.000   4.306 -0.7012  0.0486  0.3074
10269SOL     OW42785   4.470   1.623   7.731  0.1128 -0.0420  0.2580
10269SOL    HW142786   4.535   1.684   7.766 -0.3564  0.3398  0.4673
10269SOL    HW242787   4.492   1.617   7.638  1.3413 -1.0312  0.5799
10270SOL     OW42788   4.996  11.322   4.747 -0.4543 -0.0050 -0.5158
10270SOL    HW142789   4.941  11.392   4.782 -0.2814 -0.0008 -0.2507
10270SOL    HW242790   4.935  11.257   4.714 -0.6528  1.0870 -2.4443
10271SOL     OW42791   1.973  13.604   6.587  0.0206 -0.1476  0.0971
10271SOL    HW142792   2.000  13.592   6.496 -0.1265  1.5739 -0.2022
10271SOL    HW242793   1.942  13.518   6.615 -1.1107 -0.4165 -1.8616
10272SOL     OW42794   3.244  11.383   7.779 -0.1971 -0.0563 -0.1983
10272SOL    HW142795   3.216  11.470   7.809 -2.8857 -1.1771  0.8314
10272SOL    HW242796   3.164  11.341   7.750  1.5223 -0.9633 -4.3060
10273SOL     OW42797   2.958   8.613  12.194 -0.1142 -0.1009  0.0404
10273SOL    HW142798   2.918   8.541  12.243  1.0660 -0.4262  0.5707
10273SOL    HW242799   2.968   8.579  12.105 -0.9998 -0.0113 -0.1013
10274SOL     OW42800   4.908   5.416  12.182 -0.1999  0.4756 -0.6348
10274SOL    HW142801   4.874   5.327  12.188  0.4508  0.1250 -1.8360
10274SOL    HW242802   4.916   5.445  12.273 -3.9012  0.7030 -0.2239
10275SOL     OW42803   7.738   5.823   7.481  0.7119  0.2579 -0.1418
10275SOL    HW142804   7.821   5.862   7.455  1.3282 -1.6955 -1.2581
10275SOL    HW242805   7.748   5.804   7.574  1.2505  0.6848 -0.1135
10276SOL     OW42806   0.721   9.364   0.751  0.3473 -0.0749  0.0765
10276SOL    HW142807   0.651   9.362   0.816 -0.5056 -1.9505 -0.8066
10276SOL    HW242808   0.791   9.311   0.790 -0.5526 -2.0616 -0.8417
10277SOL     OW42809   3.689   1.198   8.488  0.2232 -0.8640  0.9613
10277SOL    HW142810   3.612   1.142   8.475  1.4028 -2.4624  0.5991
10277SOL    HW242811   3.695   1.208   8.583 -1.7896  1.3266  0.9622
10278SOL     OW42812  11.497  11.983   4.679 -0.0697 -0.1891  0.7066
10278SOL    HW142813  11.525  11.906   4.729 -1.1579 -1.4720 -0.5828
10278SOL    HW242814  11.564  11.993   4.611  1.0414  1.1453  1.9253
10279SOL     OW42815   2.103   2.028   2.849  0.2815  0.4814 -0.0299
10279SOL    HW142816   2.194   2.031   2.877  0.0403 -0.9075  1.0097
10279SOL    HW242817   2.075   1.939   2.869 -2.3536  1.8154  3.1524
10280SOL     OW42818   2.647   6.589   7.583 -0.0623  0.5554  0.8313
10280SOL    HW142819   2.594   6.647   7.638  0.2437  0.0704  1.6665
10280SOL    HW242820   2.590   6.513   7.567 -0.0638  0.5854  0.7011
10281SOL     OW42821   7.045   5.068   7.183 -0.4079 -0.5269 -0.0973
10281SOL    HW142822   6.979   5.028   7.241 -0.9382 -0.2442 -0.4939
10281SOL    HW242823   7.047   5.160   7.209  2.3724 -1.1165  2.2992
10282SOL     OW42824  13.312  11.817  12.530  0.1471 -0.0151  0.5576
10282SOL    HW142825  13.314  11.895  12.475  0.1487  0.8959  1.7832
10282SOL    HW242826  13.384  11.763  12.499 -0.0761  0.3046 -0.5392
10283SOL     OW42827   1.892   2.483   6.733 -0.4277  0.2160  0.0732
10283SOL    HW142828   1.917   2.399   6.694  0.0360  0.7066 -0.7229
10283SOL    HW242829   1.970   2.538   6.721 -1.2288  1.1998 -0.7126
10284SOL     OW42830  11.330   4.005   1.029 -0.3793  0.3084 -0.7279
10284SOL    HW142831  11.287   4.090   1.038  0.1774  0.6095 -0.8461
10284SOL    HW242832  11.334   3.989   0.935 -0.0958  0.3561 -0.7252
10285SOL     OW42833   3.753  13.208   1.752 -0.3183  0.0812  0.2685
10285SOL    HW142834   3.785  13.152   1.823  1.2640  0.5159 -0.0713
10285SOL    HW242835   3.793  13.173   1.673 -3.0712 -1.1884 -0.6721
10286SOL     OW42836   8.591   6.370  10.962  0.3922 -0.3372 -0.6007
10286SOL    HW142837   8.534   6.444  10.983  2.1640  1.1872 -0.9368
10286SOL    HW242838   8.584   6.360  10.867 -0.3573 -1.0746 -0.4821
10287SOL     OW42839  13.839   3.867  10.877 -0.1759  0.0217 -1.1093
10287SOL    HW142840  13.788   3.821  10.944 -1.1349  0.0689 -1.7938
10287SOL    HW242841  13.858   3.953  10.916  0.0191 -0.2610 -0.5688
10288SOL     OW42842   5.796   8.903  10.366  0.1278  0.1258  0.0913
10288SOL    HW142843   5.832   8.824  10.407 -0.1012 -1.2429 -2.1912
10288SOL    HW242844   5.870   8.963  10.359  0.7815 -0.6737  0.0661
10289SOL     OW42845   8.075   7.770   8.898 -0.0850 -0.6415 -0.0143
10289SOL    HW142846   8.039   7.704   8.956  0.3436 -0.0347  0.9702
10289SOL    HW242847   8.142   7.814   8.950  1.3252 -1.0047 -1.4290
10290SOL     OW42848   4.633   7.937  10.764  0.3426  0.4899  0.2378
10290SOL    HW142849   4.614   7.962  10.673 -2.6956  2.1333  1.1901
10290SOL    HW242850   4.649   7.843  10.760 -0.9802  0.2934 -1.8514
10291SOL     OW42851   3.772   8.342  11.271  0.2312  0.4645  0.1924
10291SOL    HW142852   3.806   8.340  11.181 -1.1917  0.6767 -0.3768
10291SOL    HW242853   3.729   8.257  11.282  0.9398  0.1871  0.9107
10292SOL     OW42854  10.115  12.788   6.332  0.1480 -0.4325  0.3940
10292SOL    HW142855  10.089  12.814   6.244  1.5315 -1.6098 -0.4050
10292SOL    HW242856  10.036  12.801   6.385 -0.5641  0.7716 -0.8942
10293SOL     OW42857  12.648  12.255   6.116  0.0544  0.1211 -0.0097
10293SOL    HW142858  12.579  12.320   6.127 -0.3220 -0.3637  0.5237
10293SOL    HW242859  12.716  12.301   6.066 -1.4607  0.0474 -2.3170
10294SOL     OW42860   1.445  11.572   4.303  0.2272  0.3250  0.1549
10294SOL    HW142861   1.366  11.625   4.293  0.0446  0.3476  1.5441
10294SOL    HW242862   1.433  11.526   4.386  2.1243  1.1325  0.9417
10295SOL     OW42863  13.371   2.800   4.006 -0.1866  0.4251 -0.1570
10295SOL    HW142864  13.451   2.765   4.046 -0.4411  0.2752  0.2210
10295SOL    HW242865  13.369   2.892   4.034 -0.1262  0.4402 -0.2017
10296SOL     OW42866   3.358  12.176   3.872 -0.0639  0.3619 -0.1440
10296SOL    HW142867   3.281  12.202   3.923 -0.0649 -0.0838  0.0835
10296SOL    HW242868   3.432  12.190   3.930 -0.1442 -1.0232  0.3260
10297SOL     OW42869   4.337  10.854   1.775 -0.2504  0.1582  0.6178
10297SOL    HW142870   4.297  10.914   1.712 -1.0273 -0.3914  0.5691
10297SOL    HW242871   4.406  10.905   1.817 -0.5557  0.9220  0.2101
10298SOL     OW42872   1.822  13.115   7.729  0.8105  0.4291  0.1216
10298SOL    HW142873   1.829  13.020   7.737 -2.5037  0.0152 -0.3083
10298SOL    HW242874   1.780  13.128   7.644  1.7014  2.3600 -0.0673
10299SOL     OW42875  11.664   0.930   4.686 -0.5019  0.0656 -0.0523
10299SOL    HW142876  11.585   0.925   4.632 -0.5608  0.0394  0.0365
10299SOL    HW242877  11.736   0.918   4.624 -0.5632  0.1721 -0.1455
10300SOL     OW42878   7.191   3.416   8.690  0.1226 -0.5535  0.0738
10300SOL    HW142879   7.278   3.451   8.708  1.4136 -2.7419 -1.3393
10300SOL    HW242880   7.187   3.336   8.742 -1.3121 -0.1884  0.5590
10301SOL     OW42881   8.801   0.748   0.081  0.1372 -0.4413 -0.1830
10301SOL    HW142882   8.707   0.742   0.102  0.2920  0.5866  0.9398
10301SOL    HW242883   8.809   0.827   0.028  0.5153  0.2099  0.8102
10302SOL     OW42884  11.165   0.345  12.809 -0.2711 -0.0044 -0.2863
10302SOL    HW142885  11.125   0.427  12.838  0.1358  0.1845 -0.2549
10302SOL    HW242886  11.237   0.372  12.752  0.2101 -0.3205  0.1606
10303SOL     OW42887   2.405  10.610  13.684 -0.0093  0.0549  0.5433
10303SOL    HW142888   2.336  10.558  13.725  0.5276 -1.4432 -0.3664
10303SOL    HW242889   2.435  10.669  13.754 -1.9160  0.4789  1.0545
10304SOL     OW42890  13.601   5.901   3.225 -0.2458 -0.1527  0.0386
10304SOL    HW142891  13.508   5.912   3.206 -0.3604  0.2139  0.7372
10304SOL    HW242892  13.636   5.990   3.227  0.2912 -0.3305 -0.9965
10305SOL     OW42893   5.228   4.413  13.312  0.0255 -0.5375  0.3729
10305SOL    HW142894   5.235   4.395  13.219  1.5113 -0.0727  0.3662
10305SOL    HW242895   5.179   4.339  13.347 -0.3038 -0.8586 -0.7331
10306SOL     OW42896  10.695   0.479   1.286  0.7195 -0.4506  0.2171
10306SOL    HW142897  10.613   0.523   1.262 -0.9765 -2.1327  2.4975
10306SOL    HW242898  10.687   0.391   1.248  1.1069 -0.8803  1.1153
10307SOL     OW42899   9.013   3.792   0.803  0.6564  0.3683 -0.2856
10307SOL    HW142900   9.075   3.864   0.789  0.5561  0.6806  0.8298
10307SOL    HW242901   8.964   3.817   0.881  1.0258 -1.1830  0.4712
10308SOL     OW42902   4.473   8.968   0.734 -0.0674  0.0537 -0.2118
10308SOL    HW142903   4.475   8.924   0.649 -0.6173 -1.7662  0.6719
10308SOL    HW242904   4.536   8.921   0.787 -0.5365  0.4493  0.7245
10309SOL     OW42905   5.465  13.516   1.195 -0.1654  0.5540  0.2009
10309SOL    HW142906   5.385  13.517   1.142 -0.0832  0.7983  0.0799
10309SOL    HW242907   5.435  13.533   1.285 -0.2187  0.9682  0.1093
10310SOL     OW42908   2.111  12.828  10.128 -0.2116 -0.4901 -0.2059
10310SOL    HW142909   2.043  12.860  10.186  0.4460  1.3008 -0.3790
10310SOL    HW242910   2.163  12.768  10.182 -0.5870 -0.1357  0.5512
10311SOL     OW42911   9.911   2.490  12.833  0.0003  0.2605  0.4449
10311SOL    HW142912   9.846   2.437  12.786 -0.2752 -1.7095  2.8622
10311SOL    HW242913   9.864   2.569  12.858 -0.4197  0.4302 -0.7997
10312SOL     OW42914   1.175   2.970   2.851  0.1938 -0.1355  0.3202
10312SOL    HW142915   1.229   3.020   2.790 -1.3820  1.7059  0.3068
10312SOL    HW242916   1.216   2.884   2.855  1.0171  0.0225 -2.4472
10313SOL     OW42917   4.932   0.356   0.174  0.1013 -0.0648 -0.4083
10313SOL    HW142918   4.983   0.433   0.146 -1.0376  1.2940  1.0620
10313SOL    HW242919   4.973   0.328   0.255 -0.0244 -0.4745 -0.4856
10314SOL     OW42920  12.048   7.406   7.639 -0.1275 -1.0667  0.3812
10314SOL    HW142921  12.007   7.327   7.602  1.8700 -1.2246 -1.6709
10314SOL    HW242922  12.067   7.461   7.564 -1.0265  1.2302  1.7366
10315SOL     OW42923   1.933  11.554   3.604 -0.5817  0.5295  0.4901
10315SOL    HW142924   2.025  11.539   3.623 -0.0410  0.3433 -1.9343
10315SOL    HW242925   1.893  11.467   3.607 -0.2970  0.3706 -0.1384
10316SOL     OW42926   7.262  11.837   8.460 -0.1690 -0.2059  0.2760
10316SOL    HW142927   7.352  11.804   8.457  0.3040  0.8762  1.3937
10316SOL    HW242928   7.216  11.790   8.391  1.3036 -0.6478 -0.4353
10317SOL     OW42929   0.101  11.423   9.186 -0.3241 -0.4828 -0.7223
10317SOL    HW142930   0.136  11.510   9.204  1.3192 -1.5891  1.9765
10317SOL    HW242931   0.010  11.427   9.216  0.3962 -0.2862  1.5975
10318SOL     OW42932   5.871   4.984   9.462  0.0976 -0.1382 -0.3014
10318SOL    HW142933   5.872   4.946   9.549 -0.1509 -0.5054 -0.4571
10318SOL    HW242934   5.942   4.940   9.416  1.8848  1.8057  0.4372
10319SOL     OW42935   5.995  10.590   4.189 -0.0994  0.0791  0.0391
10319SOL    HW142936   6.043  10.507   4.186 -1.0066 -0.4846  0.7014
10319SOL    HW242937   5.938  10.589   4.113  0.1886  0.2927 -0.1836
10320SOL     OW42938   0.973   1.870   7.384 -0.3136  0.4034 -0.3067
10320SOL    HW142939   0.894   1.842   7.338 -0.7972 -1.5035  1.5198
10320SOL    HW242940   1.045   1.828   7.336 -0.8465 -1.9461  0.8070
10321SOL     OW42941   1.564  12.098   7.460 -0.2867 -0.0049 -0.6266
10321SOL    HW142942   1.659  12.091   7.472 -0.4809 -0.5652  0.7400
10321SOL    HW242943   1.532  12.009   7.472 -0.9362  0.0375 -1.8498
10322SOL     OW42944  11.486   1.400   6.011 -0.0335 -0.3590 -0.0231
10322SOL    HW142945  11.539   1.321   5.999 -0.5552 -0.7990  0.5395
10322SOL    HW242946  11.533   1.468   5.961  0.8904 -0.8095  0.2031
10323SOL     OW42947  11.577  10.616   2.074  0.1159  0.3299 -0.0362
10323SOL    HW142948  11.604  10.620   1.983  0.2512  2.6921  0.0322
10323SOL    HW242949  11.652  10.578   2.120  1.1640  1.6538 -0.5916
10324SOL     OW42950  10.720   3.471   9.739  0.0150  0.0853  0.0431
10324SOL    HW142951  10.769   3.480   9.821 -0.8565  0.3945  0.5443
10324SOL    HW242952  10.782   3.496   9.671 -0.0593  2.6514  0.8174
10325SOL     OW42953   1.582  11.284   1.706 -0.1441  0.2493 -0.0999
10325SOL    HW142954   1.657  11.343   1.701  0.5534 -0.6643 -0.7238
10325SOL    HW242955   1.617  11.201   1.738 -0.7577 -0.3543 -0.9100
10326SOL     OW42956   4.657   1.917  12.167 -0.0863 -0.1497  0.1825
10326SOL    HW142957   4.586   1.891  12.108 -1.1925  1.3368  0.7627
10326SOL    HW242958   4.643   2.011  12.180  0.2239 -0.3759  2.6387
10327SOL     OW42959   8.372   4.184   0.936 -0.0994  0.4699  0.3093
10327SOL    HW142960   8.303   4.165   0.873 -0.0605  1.0141  0.0905
10327SOL    HW242961   8.326   4.201   1.018 -0.1038 -0.9635  0.6193
10328SOL     OW42962  13.115   9.299   0.890  0.4692 -0.1192  0.7092
10328SOL    HW142963  13.057   9.281   0.964 -0.8335 -0.7378 -0.4274
10328SOL    HW242964  13.138   9.392   0.900  0.3775 -0.2117  1.9162
10329SOL     OW42965   0.607   3.727   5.811 -0.9862 -0.1283 -0.5697
10329SOL    HW142966   0.528   3.743   5.759  0.3406  0.8064 -2.3972
10329SOL    HW242967   0.635   3.639   5.786 -0.0751  0.5070 -1.8826
10330SOL     OW42968  12.524   6.966   7.164  0.0999  0.2250  0.2298
10330SOL    HW142969  12.609   6.971   7.119 -0.2230 -0.7487 -0.5386
10330SOL    HW242970  12.520   6.876   7.197 -0.4135  0.4165  0.6986
10331SOL     OW42971   9.381  11.193   2.865  0.3405 -0.3408 -0.4757
10331SOL    HW142972   9.434  11.213   2.942 -0.2227  1.1688 -0.4638
10331SOL    HW242973   9.408  11.258   2.800  1.3174 -2.0149 -1.8360
10332SOL     OW42974   0.283   6.575   7.043 -0.3107  0.8396  0.6057
10332SOL    HW142975   0.374   6.566   7.013 -0.6208 -1.6387  0.1997
10332SOL    HW242976   0.239   6.618   6.970 -0.4151 -2.4601 -1.5335
10333SOL     OW42977   7.347   5.959  11.009  0.3229 -0.2207 -0.1429
10333SOL    HW142978   7.283   6.027  11.033 -0.0758 -0.6239 -0.0470
10333SOL    HW242979   7.324   5.936  10.919 -0.5470 -1.3182  0.3261
10334SOL     OW42980  12.129  12.439   3.614 -0.0814  0.1605  0.6087
10334SOL    HW142981  12.125  12.479   3.701 -1.0332 -0.1493  0.7193
10334SOL    HW242982  12.144  12.512   3.554 -0.3404  0.4892  0.9407
10335SOL     OW42983  12.154  11.445   7.679  0.1644 -0.1226 -0.0172
10335SOL    HW142984  12.174  11.536   7.660 -0.0014  0.1828  1.1978
10335SOL    HW242985  12.240  11.403   7.688  0.2516  0.1566  0.4995
10336SOL     OW42986   3.743   5.337  12.050  0.8016 -0.2075  0.0891
10336SOL    HW142987   3.786   5.370  11.970 -2.1790  1.5969 -0.9319
10336SOL    HW242988   3.668   5.287  12.017  0.2266 -0.4855  1.7633
10337SOL     OW42989  12.570   8.095  11.617  0.1465 -0.2032 -0.1412
10337SOL    HW142990  12.591   8.022  11.675 -1.2565 -0.5771 -0.0784
10337SOL    HW242991  12.641   8.159  11.632  0.6538 -0.9652  0.7915
10338SOL     OW42992  11.238   2.087   5.876  0.2522 -0.7544 -0.2449
10338SOL    HW142993  11.152   2.123   5.897  1.4650  2.1477  0.2629
10338SOL    HW242994  11.257   2.121   5.789  2.3070  1.8851  1.0733
10339SOL     OW42995  13.674  11.678   7.118  0.2474 -0.6218  0.4384
10339SOL    HW142996  13.579  11.687   7.125  0.0858 -2.0955  0.4349
10339SOL    HW242997  13.708  11.762   7.150 -1.0579  0.1809 -0.1981
10340SOL     OW42998   2.544   9.726  13.929  0.6248 -0.3276 -0.1124
10340SOL    HW142999   2.589   9.743  13.847  1.4517  1.1330  0.6002
10340SOL    HW243000   2.608   9.676  13.981  0.4622 -0.4364 -0.0151
10341SOL     OW43001   5.328   2.964   8.849 -0.3535  0.1025  0.1170
10341SOL    HW143002   5.274   2.907   8.795  0.3013  0.4912 -0.9733
10341SOL    HW243003   5.362   3.030   8.789 -0.8945  1.5108  1.2978
10342SOL     OW43004   2.716   3.556   1.022 -0.2990 -0.2937 -0.2636
10342SOL    HW143005   2.640   3.613   1.036 -0.5519 -0.4065 -1.1676
10342SOL    HW243006   2.694   3.503   0.946  0.1351 -1.2805  0.2787
10343SOL     OW43007   9.584   3.440  10.678  0.3946  0.0174 -0.4310
10343SOL    HW143008   9.619   3.379  10.614 -0.7716  0.6943 -1.7534
10343SOL    HW243009   9.546   3.511  10.626 -0.4459  0.6695  1.0031
10344SOL     OW43010   0.069   7.782   9.912  0.2254 -0.1634  0.2510
10344SOL    HW143011   0.037   7.811   9.998  0.6201  0.7722  0.0995
10344SOL    HW243012   0.162   7.805   9.913  0.4776 -1.1458 -0.0221
10345SOL     OW43013   8.351   0.271   7.491  0.1422 -0.7277 -0.1348
10345SOL    HW143014   8.409   0.347   7.494 -1.5242  0.5725  1.0499
10345SOL    HW243015   8.409   0.198   7.471  2.4006  0.3070  2.0298
10346SOL     OW43016   4.443   2.085  13.259 -0.2545  0.1840 -0.8777
10346SOL    HW143017   4.393   2.104  13.180 -1.4121  3.1768  0.3999
10346SOL    HW243018   4.377   2.056  13.322  0.4034 -0.6285 -0.5572
10347SOL     OW43019   8.398  11.975   9.795 -0.1957 -0.1174 -0.2272
10347SOL    HW143020   8.448  11.946   9.719 -0.1805  0.8495 -0.5904
10347SOL    HW243021   8.447  11.939   9.870  0.8108  0.4351 -0.5948
10348SOL     OW43022   3.433   1.322   6.170  0.5711  0.1953  0.8069
10348SOL    HW143023   3.410   1.398   6.116  0.1470  0.0295  0.7560
10348SOL    HW243024   3.481   1.264   6.110  0.1016  0.0122  0.6050
10349SOL     OW43025   6.161   6.282   4.426 -0.0659  0.2014  0.4706
10349SOL    HW143026   6.102   6.222   4.379  1.3309 -0.8744  0.0112
10349SOL    HW243027   6.136   6.369   4.395 -0.9276 -0.2901 -0.2708
10350SOL     OW43028   3.556   9.962   9.499  0.2267 -0.2787 -0.1098
10350SOL    HW143029   3.495   9.916   9.556 -1.0551  2.1708  0.6429
10350SOL    HW243030   3.640   9.960   9.546 -0.1951 -0.4794  0.6389
10351SOL     OW43031   6.514   2.854   4.610 -0.2011 -0.2987  0.1363
10351SOL    HW143032   6.592   2.828   4.659  0.9263 -0.0021 -1.4194
10351SOL    HW243033   6.545   2.924   4.552 -1.5065 -0.5378 -0.8819
10352SOL     OW43034   9.752   4.911   7.614  0.3646 -0.4718 -0.5555
10352SOL    HW143035   9.828   4.921   7.671  0.1548 -1.3726 -0.1069
10352SOL    HW243036   9.785   4.861   7.539  0.2786 -0.6333 -0.4863
10353SOL     OW43037   9.722  10.155   3.111 -0.4975  0.1901 -0.4292
10353SOL    HW143038   9.658  10.125   3.176  0.9019  0.1693  1.0036
10353SOL    HW243039   9.742  10.077   3.059  3.0767 -1.6808  3.2206
10354SOL     OW43040   7.224  12.678   1.334  0.3473 -0.6733 -0.1172
10354SOL    HW143041   7.268  12.618   1.275  0.2378  0.2673 -1.1972
10354SOL    HW243042   7.277  12.758   1.330  0.9310 -0.8955  1.8722
10355SOL     OW43043  12.051   6.749   9.070 -0.2959  0.0266  0.3388
10355SOL    HW143044  11.977   6.805   9.049 -0.1510  0.5950  1.3132
10355SOL    HW243045  12.099   6.741   8.987 -1.2507 -0.0939 -0.2216
10356SOL     OW43046   1.716  12.079  13.942 -0.0993 -0.3615 -0.0902
10356SOL    HW143047   1.739  12.090  14.035 -1.4125 -1.7560  0.4510
10356SOL    HW243048   1.622  12.095  13.938  0.0470  0.3018 -1.3216
10357SOL     OW43049  12.178   6.473   1.760 -0.0910  0.9735 -0.0533
10357SOL    HW143050  12.177   6.451   1.667  1.2618  0.6666 -0.0214
10357SOL    HW243051  12.124   6.405   1.801 -0.4810  0.9620 -0.5788
10358SOL     OW43052   9.105   3.387  10.655  0.2348 -0.0870  0.0567
10358SOL    HW143053   9.031   3.426  10.609  0.4618 -1.0809 -1.2218
10358SOL    HW243054   9.069   3.360  10.740 -0.5903  0.4159 -0.1230
10359SOL     OW43055   2.676  12.295   2.403  0.3310 -0.2275  0.4273
10359SOL    HW143056   2.768  12.319   2.393  0.0548  0.4993 -0.6203
10359SOL    HW243057   2.642  12.292   2.313 -0.8887  0.4894  0.8339
10360SOL     OW43058   8.378   1.755   9.531  0.5589  0.0690 -0.0435
10360SOL    HW143059   8.382   1.823   9.463  0.8814 -0.3934 -0.5032
10360SOL    HW243060   8.387   1.673   9.482  0.0776 -0.3066  0.4955
10361SOL     OW43061   7.691   8.655   2.458  0.2861  0.3097  0.5385
10361SOL    HW143062   7.680   8.618   2.370 -1.1362  1.2826  0.2831
10361SOL    HW243063   7.786   8.656   2.471  0.5821  0.8850 -1.3259
10362SOL     OW43064   9.230   3.381   9.640  0.0092  0.0190 -0.4759
10362SOL    HW143065   9.172   3.349   9.570  0.0038 -0.3685 -0.2985
10362SOL    HW243066   9.201   3.471   9.656 -0.1445  0.0317 -0.8107
10363SOL     OW43067   5.379   3.340   4.288 -0.2018 -0.0912  0.4348
10363SOL    HW143068   5.395   3.290   4.368 -0.4067 -0.9119 -0.0275
10363SOL    HW243069   5.410   3.428   4.308  0.1435 -0.3959  1.2733
10364SOL     OW43070  12.348   4.692  12.095  0.4137 -0.0205 -0.2743
10364SOL    HW143071  12.286   4.762  12.075  0.4993  0.2066  0.2228
10364SOL    HW243072  12.313   4.615  12.051 -1.0394 -0.2663  1.2156
10365SOL     OW43073   1.497   2.174   6.575 -0.0451 -0.1168 -0.6253
10365SOL    HW143074   1.407   2.145   6.587 -1.3057  3.5112 -0.0290
10365SOL    HW243075   1.527   2.195   6.664  0.8789 -0.0015 -0.9577
10366SOL     OW43076  11.708   0.163   7.450 -0.1159 -0.5270  0.1062
10366SOL    HW143077  11.729   0.185   7.540  0.1041 -0.9926  0.1668
10366SOL    HW243078  11.692   0.248   7.408 -3.6787 -0.3789  1.3829
10367SOL     OW43079  10.371   4.533   2.451 -0.3761  0.8019 -0.1862
10367SOL    HW143080  10.323   4.594   2.396 -1.4094 -0.2528 -0.5060
10367SOL    HW243081  10.304   4.472   2.484  0.7708 -1.0595 -1.0878
10368SOL     OW43082   2.368   9.282  13.329  0.3552 -0.2333 -0.4544
10368SOL    HW143083   2.308   9.270  13.255 -0.4605  1.0849 -0.0567
10368SOL    HW243084   2.311   9.276  13.406  0.6110  1.4519 -0.0819
10369SOL     OW43085   8.600  12.092  12.440  0.2856 -0.4695 -0.0049
10369SOL    HW143086   8.517  12.136  12.453  0.3217 -0.3240 -0.2473
10369SOL    HW243087   8.638  12.136  12.363  0.0973 -1.2507 -0.5603
10370SOL     OW43088   8.022   5.552  12.454 -0.3568 -0.2409  0.5148
10370SOL    HW143089   8.040   5.639  12.491  0.1550 -0.0678 -0.1271
10370SOL    HW243090   7.930   5.557  12.428  0.0488  0.6393 -0.8818
10371SOL     OW43091   9.569   4.820   6.773  0.0265 -0.0864 -0.4518
10371SOL    HW143092   9.642   4.855   6.825  0.8403  0.5204 -1.9395
10371SOL    HW243093   9.593   4.728   6.758  0.2387 -0.0240 -0.5072
10372SOL     OW43094   2.044   1.463   0.144  0.1039  0.3513 -0.4928
10372SOL    HW143095   1.976   1.487   0.207  0.6789  0.8260 -0.0411
10372SOL    HW243096   1.996   1.447   0.062 -0.5255  0.9135 -0.2449
10373SOL     OW43097  10.049  12.508   6.409  0.0790 -0.1796 -0.3040
10373SOL    HW143098  10.065  12.422   6.371  0.5735 -0.1567 -0.1520
10373SOL    HW243099  10.028  12.564   6.334  0.5744 -0.2457 -0.4957
10374SOL     OW43100  13.442   8.009  12.825 -0.2374  0.1873  0.6106
10374SOL    HW143101  13.366   8.065  12.809  0.4406  1.0173  0.2353
10374SOL    HW243102  13.433   7.981  12.916 -2.5847 -2.1864 -0.2126
10375SOL     OW43103   1.266  11.592   3.680  0.1693  0.3562  0.3732
10375SOL    HW143104   1.181  11.549   3.668  0.1998  0.3632  0.1397
10375SOL    HW243105   1.324  11.521   3.708  0.4343  0.0610 -0.8683
10376SOL     OW43106  12.823  12.819   6.885 -0.2912  0.2520 -0.3948
10376SOL    HW143107  12.733  12.848   6.904 -0.2576 -0.2790  0.6168
10376SOL    HW243108  12.878  12.870   6.944 -0.0443 -0.3344 -0.1131
10377SOL     OW43109  11.342  12.700   6.326  0.1562  0.6296 -0.2733
10377SOL    HW143110  11.317  12.759   6.397 -0.2895 -1.9161  1.8243
10377SOL    HW243111  11.278  12.629   6.330  1.9412 -1.1158 -1.2395
10378SOL     OW43112  10.156   4.454   2.867  0.3333 -0.4375  0.1486
10378SOL    HW143113  10.206   4.532   2.844  0.0156 -0.7243 -1.6034
10378SOL    HW243114  10.143   4.461   2.962  0.7815  1.3473  0.1034
10379SOL     OW43115  13.046   0.385   1.009 -0.2755  0.4168  0.3543
10379SOL    HW143116  13.131   0.429   1.013  1.2093 -2.1662 -0.4731
10379SOL    HW243117  13.047   0.327   1.085 -0.2630 -1.2780 -0.8899
10380SOL     OW43118   6.604   8.593   6.521  0.0070 -0.1997 -0.0313
10380SOL    HW143119   6.518   8.559   6.497 -0.0073 -0.0339 -0.2199
10380SOL    HW243120   6.645   8.523   6.570 -0.0089 -0.5006 -0.4432
10381SOL     OW43121  11.884   6.956   8.969 -0.2024  0.2413 -0.2561
10381SOL    HW143122  11.907   7.048   8.956  0.7281 -0.1730 -1.6765
10381SOL    HW243123  11.834   6.933   8.891  1.6258 -1.0810 -1.1120
10382SOL     OW43124   7.894   2.298   1.120 -0.1215  0.1397 -0.2822
10382SOL    HW143125   7.875   2.391   1.137 -0.6675 -0.1505  0.8105
10382SOL    HW243126   7.827   2.272   1.057 -0.5005  0.2912  0.0478
10383SOL     OW43127   8.669   4.044   0.623 -0.1359  0.2290 -0.1128
10383SOL    HW143128   8.745   3.986   0.631 -0.9115 -1.0887 -1.6764
10383SOL    HW243129   8.597   3.993   0.660 -0.9761 -0.1651 -2.1667
10384SOL     OW43130  10.669   9.405   4.580  0.1630  0.0769 -0.1989
10384SOL    HW143131  10.645   9.485   4.534 -2.8129 -1.1592 -1.0151
10384SOL    HW243132  10.667   9.429   4.672 -4.1252  0.3449 -0.1681
10385SOL     OW43133   8.640   9.469   3.492  0.6409 -0.4538 -0.2218
10385SOL    HW143134   8.558   9.452   3.446  0.3165  0.8086 -0.1441
10385SOL    HW243135   8.708   9.444   3.430  0.2041 -0.3635 -0.7461
10386SOL     OW43136   4.493  13.678  11.225 -0.3950 -0.5939  0.0461
10386SOL    HW143137   4.435  13.613  11.264  0.7617 -1.6603  0.0305
10386SOL    HW243138   4.560  13.693  11.291  0.3913 -0.8239 -0.6920
10387SOL     OW43139   4.893  12.050  10.092  0.0543  0.4642  0.0350
10387SOL    HW143140   4.799  12.042  10.105  0.1232 -0.3781  0.0792
10387SOL    HW243141   4.926  11.961  10.097  1.1915  0.9498  2.3701
10388SOL     OW43142   3.872   4.881  11.293 -0.0838 -0.0927 -0.9537
10388SOL    HW143143   3.945   4.840  11.246  0.8808 -0.3544  0.7119
10388SOL    HW243144   3.908   4.962  11.327 -1.2407  0.9046 -1.9866
10389SOL     OW43145   2.897   9.950   4.776 -0.5751  0.0515  0.1305
10389SOL    HW143146   2.805   9.930   4.793 -0.6649  0.3049 -0.0512
10389SOL    HW243147   2.943   9.914   4.852 -1.1142  2.5061  1.7543
10390SOL     OW43148   3.813   4.689   3.220  0.3363 -1.0297 -0.4506
10390SOL    HW143149   3.803   4.703   3.126  1.6998 -1.1785 -0.6356
10390SOL    HW243150   3.893   4.737   3.243 -0.7052  0.1581  0.9113
10391SOL     OW43151   5.511   9.704  10.813 -0.1579  0.3794 -0.0769
10391SOL    HW143152   5.575   9.644  10.774 -0.6609 -0.1567 -0.0875
10391SOL    HW243153   5.482   9.758  10.740 -1.2281 -0.7357 -0.5205
10392SOL     OW43154   7.934   4.673   9.619  0.1524  0.2813  0.3333
10392SOL    HW143155   7.898   4.609   9.557 -1.8586  0.8536  0.8482
10392SOL    HW243156   7.893   4.650   9.702  0.3053  1.5127  0.7597
10393SOL     OW43157   7.002  12.980   9.849  1.1643 -0.6129 -0.2321
10393SOL    HW143158   7.067  12.934   9.797  0.4836 -0.6288 -1.1137
10393SOL    HW243159   6.924  12.924   9.846  0.0303  0.8916 -2.0687
10394SOL     OW43160   6.391   4.923  12.130  0.0421  0.6372  0.4539
10394SOL    HW143161   6.447   4.958  12.061  0.2737  1.9038  1.2587
10394SOL    HW243162   6.433   4.949  12.212 -0.6131 -0.2053  1.0782
10395SOL     OW43163  12.259   7.887  13.929 -0.1287 -0.1270  0.0958
10395SOL    HW143164  12.254   7.861  14.021 -1.2639  0.5698  0.2495
10395SOL    HW243165  12.353   7.890  13.910  0.2228  1.5759  1.7865
10396SOL     OW43166  10.907   1.015   8.090 -0.1494 -0.0168 -0.0006
10396SOL    HW143167  10.930   1.000   8.182 -1.2606  0.8651  0.4512
10396SOL    HW243168  10.815   1.041   8.093 -0.0693  0.4845 -1.3265
10397SOL     OW43169  13.002   5.491  11.414 -0.3957 -0.0875 -0.5652
10397SOL    HW143170  13.083   5.524  11.375 -1.8481  2.8044 -1.4230
10397SOL    HW243171  13.017   5.397  11.426  1.9877 -0.1978 -3.3984
10398SOL     OW43172   0.609  12.856   7.001  0.6240  0.4026 -0.0079
10398SOL    HW143173   0.561  12.810   7.069  3.3923 -1.9960  0.5069
10398SOL    HW243174   0.684  12.895   7.046  1.3076  0.6921 -1.3304
10399SOL     OW43175  11.746   3.464   1.528 -0.6872 -0.0637  0.2247
10399SOL    HW143176  11.720   3.504   1.445  0.0825 -0.0055  0.0021
10399SOL    HW243177  11.666   3.460   1.579 -0.6611  2.4688  0.5764
10400SOL     OW43178   7.058   3.427   9.313 -0.1231  0.1998  0.0497
10400SOL    HW143179   7.121   3.482   9.267  0.8846 -0.3894  0.6873
10400SOL    HW243180   6.979   3.431   9.259  0.3115  1.3109 -0.5283
10401SOL     OW43181  13.686   9.930   4.755  0.0223 -0.8101  0.0202
10401SOL    HW143182  13.760   9.869   4.761  0.4418 -0.2100  1.2872
10401SOL    HW243183  13.711  10.003   4.812 -1.4736 -0.5158  0.3288
10402SOL     OW43184   8.639   4.496   6.832 -0.1740  1.0587  0.5516
10402SOL    HW143185   8.708   4.434   6.854 -0.6310  0.6837  0.9403
10402SOL    HW243186   8.680   4.582   6.843  0.7176  0.8509 -0.8034
10403SOL     OW43187  11.986   0.920   9.314 -0.2830 -0.3129 -0.3461
10403SOL    HW143188  12.045   0.994   9.326  0.5484 -0.8421 -1.0510
10403SOL    HW243189  11.900   0.960   9.301 -0.1372  0.4627  0.9441
10404SOL     OW43190   8.928  13.314   2.857 -0.0170  0.6344  0.1102
10404SOL    HW143191   8.883  13.239   2.898 -0.4839  0.6885 -0.2988
10404SOL    HW243192   9.009  13.277   2.823 -0.7161  0.0710 -1.0147
10405SOL     OW43193   2.760   7.392   0.087  0.1487 -0.0749 -0.2758
10405SOL    HW143194   2.796   7.400   0.175  1.9756 -1.6965 -0.7942
10405SOL    HW243195   2.787   7.472   0.043  2.2408 -0.7386 -0.2968
10406SOL     OW43196  12.304   5.644   7.690  0.1672 -0.0203  0.6140
10406SOL    HW143197  12.351   5.681   7.765  0.1235 -0.1891  0.7251
10406SOL    HW243198  12.219   5.687   7.692 -1.1614 -2.4423  2.6995
10407SOL     OW43199  10.663   5.792   9.162 -0.1823 -0.3235 -0.4420
10407SOL    HW143200  10.707   5.868   9.124  0.7959 -0.1662  0.9275
10407SOL    HW243201  10.734   5.734   9.189 -0.8246 -0.5883  0.7728
10408SOL     OW43202  11.453   0.981   3.176 -0.0268  0.3640 -0.3668
10408SOL    HW143203  11.378   0.993   3.118  0.9719 -0.8463 -1.9948
10408SOL    HW243204  11.525   0.959   3.117  1.4069  0.6009  1.2245
10409SOL     OW43205   8.668   9.878  12.877 -0.5480 -0.4860  0.1535
10409SOL    HW143206   8.628   9.849  12.959 -0.7796  1.3698  0.7346
10409SOL    HW243207   8.650   9.971  12.873  1.0906 -0.1744 -1.0992
10410SOL     OW43208   3.692  13.775   1.663 -0.4773 -0.4232  0.2623
10410SOL    HW143209   3.648  13.844   1.615  0.7538  0.9248  1.0143
10410SOL    HW243210   3.765  13.749   1.607 -0.9918 -1.2100 -0.0621
10411SOL     OW43211   8.718   5.357   2.370 -0.5629 -0.0911 -0.0973
10411SOL    HW143212   8.699   5.373   2.278 -0.8477 -0.2870 -0.0730
10411SOL    HW243213   8.813   5.347   2.374 -0.4089  1.1439 -0.1845
10412SOL     OW43214   9.126   9.144   4.613  0.0096  0.2581  0.1773
10412SOL    HW143215   9.169   9.076   4.664 -0.6457  0.1320  0.5708
10412SOL    HW243216   9.172   9.225   4.636  0.0908  0.1115  0.5319
10413SOL     OW43217   2.470   4.129   7.093 -0.4628  0.1941  0.0361
10413SOL    HW143218   2.383   4.168   7.098  0.1541  1.5656  0.5621
10413SOL    HW243219   2.509   4.146   7.179 -0.3599 -2.1260  0.5170
10414SOL     OW43220  10.647   0.979   1.992 -0.2567  0.0666 -0.3234
10414SOL    HW143221  10.571   0.934   1.956  0.4813 -1.0187 -0.5543
10414SOL    HW243222  10.712   0.976   1.922  0.1533  0.6178  0.0220
10415SOL     OW43223   6.027  10.456   0.220  0.9825 -0.2165  0.5198
10415SOL    HW143224   6.057  10.375   0.261  3.0630 -0.1779 -0.8113
10415SOL    HW243225   5.933  10.441   0.205  1.0376 -1.8284  1.5023
10416SOL     OW43226  10.983   6.056   2.394 -0.1759 -0.2960  0.4695
10416SOL    HW143227  10.961   5.991   2.460 -1.7080 -2.1722 -1.6973
10416SOL    HW243228  10.990   6.005   2.313 -0.0179  2.0705 -1.0946
10417SOL     OW43229   8.074  11.513   1.089 -0.5596  0.6294 -0.5319
10417SOL    HW143230   7.998  11.483   1.039  0.6765 -1.2971 -1.3845
10417SOL    HW243231   8.090  11.601   1.057 -0.5139 -0.1228 -2.7542
10418SOL     OW43232   1.384  11.207  10.407  0.3490 -0.1572  0.2118
10418SOL    HW143233   1.333  11.150  10.350 -0.2192  0.1127  0.4479
10418SOL    HW243234   1.474  11.176  10.397  0.0863 -0.9119  0.1255
10419SOL     OW43235   5.158  13.902   2.519 -0.0926  0.3540  0.3391
10419SOL    HW143236   5.173  13.826   2.575 -1.6794 -0.9162 -0.8461
10419SOL    HW243237   5.206  13.973   2.561  3.4242 -1.7530  0.2623
10420SOL     OW43238   1.948  11.057   3.501  0.1105 -0.3616 -0.5973
10420SOL    HW143239   2.011  11.044   3.430  0.6201  1.2248 -0.4639
10420SOL    HW243240   1.963  10.983   3.560  1.3494 -0.3902 -0.9231
10421SOL     OW43241  11.492   3.769   4.125 -0.2401 -0.1793 -0.1073
10421SOL    HW143242  11.426   3.830   4.093 -2.2888 -2.3402 -0.2811
10421SOL    HW243243  11.443   3.707   4.180  1.7167 -1.6331  0.1235
10422SOL     OW43244   3.411   5.177  10.773  0.1336  0.3307 -0.4874
10422SOL    HW143245   3.340   5.153  10.712 -1.6559  2.3402  0.6691
10422SOL    HW243246   3.480   5.212  10.717 -1.0272  1.1262 -1.4750
10423SOL     OW43247   1.521   2.564   8.052 -0.0365  0.4552 -0.1740
10423SOL    HW143248   1.457   2.550   8.122  0.0352  1.1412  0.0298
10423SOL    HW243249   1.564   2.479   8.042 -0.0804  0.3397  0.5855
10424SOL     OW43250   9.178   0.267   6.848  0.3674 -0.0907 -0.7988
10424SOL    HW143251   9.229   0.325   6.905  0.2260  0.4261 -1.1805
10424SOL    HW243252   9.156   0.192   6.902  2.5552 -0.9165 -0.9458
10425SOL     OW43253   5.695   3.055   3.109 -0.1588  0.0758  0.4006
10425SOL    HW143254   5.731   3.089   3.028 -1.9982  2.8040  0.6176
10425SOL    HW243255   5.765   3.001   3.146  1.0512 -0.4748 -2.4868
10426SOL     OW43256   1.338   1.666   6.008 -0.6699  0.8886 -0.9413
10426SOL    HW143257   1.295   1.726   5.947 -1.4792  0.0910 -1.1725
10426SOL    HW243258   1.265   1.621   6.052 -0.0741 -0.0209 -0.8740
10427SOL     OW43259   2.817   7.088  13.025  0.5983  0.0616  0.3385
10427SOL    HW143260   2.892   7.136  13.061  1.4519 -1.3233  0.4701
10427SOL    HW243261   2.832   6.997  13.051 -1.6025 -0.1241  1.1210
10428SOL     OW43262  12.411   3.626  10.441  0.2464 -0.4147 -0.0966
10428SOL    HW143263  12.327   3.592  10.469  0.9915 -0.8681  1.7060
10428SOL    HW243264  12.406   3.628  10.345 -1.4724 -1.2451 -0.0452
10429SOL     OW43265   9.875  12.279   5.736 -0.3915  0.0626  0.0342
10429SOL    HW143266   9.970  12.293   5.734 -0.0115 -2.1028  0.0530
10429SOL    HW243267   9.859  12.235   5.820 -0.8797 -2.5055 -1.3069
10430SOL     OW43268  10.422  11.039  11.877 -0.1400 -0.6607 -0.4632
10430SOL    HW143269  10.374  11.029  11.795  1.5850  0.1331 -1.6199
10430SOL    HW243270  10.494  10.977  11.871 -0.8775 -1.7533  1.1915
10431SOL     OW43271   1.628   8.193  10.726  0.7098  0.3904  0.0968
10431SOL    HW143272   1.555   8.252  10.748 -0.3157 -1.3915  1.7720
10431SOL    HW243273   1.625   8.186  10.631  0.5361  2.5729 -0.1165
10432SOL     OW43274   5.869   7.994   2.121 -0.1520 -0.2215  0.0255
10432SOL    HW143275   5.948   7.964   2.077 -0.4269 -0.7267 -0.1364
10432SOL    HW243276   5.875   8.090   2.120  0.7042 -0.2638  0.4844
10433SOL     OW43277   2.157   7.132   9.812 -0.2775  0.0590 -0.3726
10433SOL    HW143278   2.228   7.072   9.835  1.2861  2.0898  0.4820
10433SOL    HW243279   2.145   7.121   9.718 -0.8598 -2.3412 -0.0945
10434SOL     OW43280   5.142  11.983   9.011  0.5203 -0.0190 -0.0775
10434SOL    HW143281   5.205  12.038   9.056  1.1960 -0.5373 -0.3676
10434SOL    HW243282   5.133  11.906   9.068 -2.3076  1.4014  1.6202
10435SOL     OW43283  13.386   2.113   4.225 -0.7703 -0.2945 -0.0043
10435SOL    HW143284  13.416   2.027   4.198  0.2842 -0.2385  0.9134
10435SOL    HW243285  13.388   2.166   4.145 -0.9038 -0.9705 -0.4608
10436SOL     OW43286   3.016  11.448   4.133 -0.2596  0.2500 -0.0588
10436SOL    HW143287   3.091  11.507   4.121 -0.2798  0.4830  0.9199
10436SOL    HW243288   2.966  11.456   4.052  0.4419  0.5741 -0.4683
10437SOL     OW43289   1.752   7.276   5.855  0.2314  0.0581  0.1718
10437SOL    HW143290   1.739   7.314   5.768  0.2164 -1.4505 -0.5091
10437SOL    HW243291   1.699   7.332   5.913  0.0586  0.9521 -0.8054
10438SOL     OW43292   5.671  13.722  12.795 -0.4957 -0.6677 -0.5556
10438SOL    HW143293   5.687  13.728  12.889  1.2347 -1.3530 -0.7690
10438SOL    HW243294   5.703  13.635  12.771  0.1510 -0.0777 -1.9485
10439SOL     OW43295   7.654   6.423   2.526 -0.0264 -0.2739  0.6117
10439SOL    HW143296   7.653   6.367   2.449  1.4644  0.8142 -0.2609
10439SOL    HW243297   7.573   6.402   2.573 -1.9811  0.4238 -2.2294
10440SOL     OW43298  12.058   8.331   6.300  0.2084 -0.1407 -0.8942
10440SOL    HW143299  12.150   8.306   6.310  0.2669 -0.3526 -1.8657
10440SOL    HW243300  12.011   8.248   6.291 -0.2694 -0.1035  0.8387
10441SOL     OW43301   2.476  10.842   7.105  0.6464  0.5095 -0.2339
10441SOL    HW143302   2.480  10.759   7.153  1.1642  0.5767 -0.1488
10441SOL    HW243303   2.418  10.824   7.031 -0.0655  0.3715  0.3484
10442SOL     OW43304   4.780   8.496  11.931 -0.3718 -0.3451 -0.2157
10442SOL    HW143305   4.752   8.405  11.945 -0.2047 -0.5276 -1.0446
10442SOL    HW243306   4.775   8.508  11.836  1.9686 -0.2480 -0.3643
10443SOL     OW43307   6.927   3.412   9.846 -0.1862 -0.0233 -0.2621
10443SOL    HW143308   6.878   3.492   9.867  0.7902  0.7237 -0.7387
10443SOL    HW243309   6.888   3.345   9.901 -1.8481  0.5053 -0.7488
10444SOL     OW43310   8.645   6.360   0.308  0.1400  0.2444  0.2620
10444SOL    HW143311   8.583   6.341   0.237  0.3611 -2.7613  0.7135
10444SOL    HW243312   8.731   6.360   0.266  0.1032  1.0103  0.1702
10445SOL     OW43313  10.296  13.380  12.732  0.3403  0.6708 -0.0038
10445SOL    HW143314  10.288  13.319  12.805  0.2876  0.2012 -0.3901
10445SOL    HW243315  10.210  13.422  12.726  0.5470  1.1862  0.6047
10446SOL     OW43316  12.128   0.190   0.436  0.1930 -0.0573  0.5887
10446SOL    HW143317  12.117   0.097   0.455 -0.2627 -0.5824 -1.9237
10446SOL    HW243318  12.139   0.194   0.341 -1.2054  2.5826  0.4473
10447SOL     OW43319   3.434   4.202   0.003  0.9148 -0.0644  0.3952
10447SOL    HW143320   3.475   4.171  -0.078  0.4842 -1.4555  0.6925
10447SOL    HW243321   3.467   4.144   0.071  0.7407  0.6700  1.1205
10448SOL     OW43322  11.825   6.263   2.127 -0.5805  0.2744  0.6388
10448SOL    HW143323  11.836   6.216   2.210  1.1663  0.5476  0.6094
10448SOL    HW243324  11.791   6.197   2.066 -1.1132 -0.1313  1.3567
10449SOL     OW43325   2.116   9.340  11.218  0.8157  0.0527 -0.7329
10449SOL    HW143326   2.138   9.252  11.189  1.6040 -0.2273  0.6112
10449SOL    HW243327   2.191   9.367  11.271 -0.1284  0.8874  0.2312
10450SOL     OW43328  10.951   6.013   8.735  0.3159  0.1970  0.0374
10450SOL    HW143329  10.859   5.990   8.739  0.0612  0.7892 -1.5773
10450SOL    HW243330  10.985   5.964   8.660  0.7032  1.8400 -0.9152
10451SOL     OW43331   5.036   4.470  10.530 -0.3170  0.3594 -0.5328
10451SOL    HW143332   5.053   4.390  10.580  0.2048  0.6289 -0.2597
10451SOL    HW243333   4.962   4.449  10.474 -0.8924  0.0310  0.3315
10452SOL     OW43334   4.549   3.279   5.037 -0.4238 -0.0307 -0.1532
10452SOL    HW143335   4.535   3.244   5.125  0.0407  2.1386  0.8376
10452SOL    HW243336   4.638   3.251   5.014 -0.5639 -0.6417  0.0329
10453SOL     OW43337   8.024   4.219   6.050 -0.4318 -0.6127 -0.2151
10453SOL    HW143338   8.052   4.189   6.136 -0.0910  0.7383  0.1739
10453SOL    HW243339   8.105   4.248   6.007 -0.8310  0.6251 -0.1853
10454SOL     OW43340   5.074   5.673   1.198 -0.0266  0.0195  0.0620
10454SOL    HW143341   4.986   5.699   1.170 -0.0929 -0.1715  0.0885
10454SOL    HW243342   5.120   5.653   1.117  0.3758  1.2782 -0.0446
10455SOL     OW43343   0.978  11.932   1.612  0.0822 -0.3444 -0.0450
10455SOL    HW143344   0.904  11.993   1.611 -0.8922 -1.4855 -0.9610
10455SOL    HW243345   0.940  11.848   1.587  1.8113 -0.8444 -1.1448
10456SOL     OW43346  12.238   8.047   9.221 -0.0484  0.5229 -0.1155
10456SOL    HW143347  12.193   8.052   9.305 -0.0113  0.4843 -0.0940
10456SOL    HW243348  12.245   8.138   9.192 -0.6014  0.4866 -0.3637
10457SOL     OW43349  10.110   8.174   6.136 -0.1874 -0.0744  0.9247
10457SOL    HW143350  10.148   8.192   6.050  0.5942  0.5022  1.3835
10457SOL    HW243351  10.178   8.127   6.184  0.2335  1.5278  1.9749
10458SOL     OW43352  11.399  10.360   4.677 -0.1636 -0.0884 -0.2465
10458SOL    HW143353  11.395  10.417   4.600 -1.1721  2.6098  1.6641
10458SOL    HW243354  11.324  10.302   4.667 -1.1532  1.2004 -0.6237
10459SOL     OW43355   7.952   3.363  11.241  0.0997  0.6332 -0.5253
10459SOL    HW143356   7.893   3.355  11.317  2.0765 -1.2145  0.9381
10459SOL    HW243357   7.896   3.344  11.166 -1.8693  2.2061  0.4494
10460SOL     OW43358   6.484  13.671  12.888 -0.3596 -0.4843  0.4591
10460SOL    HW143359   6.398  13.713  12.887 -0.0007  0.2707  0.1462
10460SOL    HW243360   6.537  13.727  12.945 -0.0135 -0.8036  0.4539
10461SOL     OW43361   4.584   9.195   3.784  0.6302 -0.1880 -0.8399
10461SOL    HW143362   4.658   9.219   3.729 -0.5243 -0.2515 -2.5097
10461SOL    HW243363   4.536   9.277   3.797  1.5538  0.1001  1.2389
10462SOL     OW43364   2.593   8.252   1.850  0.1353 -0.3986 -0.2119
10462SOL    HW143365   2.583   8.348   1.851 -0.2691 -0.4301 -0.8209
10462SOL    HW243366   2.666   8.235   1.792  1.2366 -0.3910  1.1152
10463SOL     OW43367   3.279  10.516   1.877 -0.2231  0.4182  0.0681
10463SOL    HW143368   3.206  10.566   1.839  0.1056  0.2788 -0.7730
10463SOL    HW243369   3.317  10.469   1.803  2.8769  3.1217 -0.2907
10464SOL     OW43370   8.454   4.491   0.800 -0.1828 -0.3634  0.1515
10464SOL    HW143371   8.491   4.407   0.827  1.0277 -0.2423 -1.0205
10464SOL    HW243372   8.415   4.475   0.714  2.2805  0.7441 -1.2911
10465SOL     OW43373  13.354  12.261   0.526 -0.0420  0.2809 -0.6205
10465SOL    HW143374  13.309  12.194   0.475  1.2232 -1.4908  0.4581
10465SOL    HW243375  13.408  12.307   0.462  1.0215 -1.4655 -1.0670
10466SOL     OW43376  11.196   4.137   9.813 -0.6424  0.7932  0.5342
10466SOL    HW143377  11.217   4.220   9.857 -1.2575  1.4552 -0.3975
10466SOL    HW243378  11.126   4.159   9.752 -2.1415 -0.7907  1.5719
10467SOL     OW43379   5.564   1.013   3.771  0.2440 -0.0541 -0.3901
10467SOL    HW143380   5.568   1.092   3.825  0.0326  0.1641 -0.6917
10467SOL    HW243381   5.471   0.992   3.767  0.0243  1.0597 -2.2839
10468SOL     OW43382  10.705   1.752  10.101  0.5581 -0.0592  0.2419
10468SOL    HW143383  10.726   1.659  10.087  2.1281  0.2467  0.4162
10468SOL    HW243384  10.744   1.773  10.185 -0.6358  0.5355  0.6642
10469SOL     OW43385   9.490   3.879   0.633 -0.3562 -0.2653 -0.2386
10469SOL    HW143386   9.450   3.846   0.553 -1.6169  0.0208  0.2533
10469SOL    HW243387   9.545   3.807   0.664 -0.1326 -0.5044 -1.1653
10470SOL     OW43388   3.670   6.408  12.874  0.1052  0.3904  0.1461
10470SOL    HW143389   3.721   6.332  12.902 -1.3007 -1.1453 -1.2607
10470SOL    HW243390   3.726   6.483  12.895  3.2577 -1.1637 -1.7799
10471SOL     OW43391   3.336   7.985  12.163 -0.5120 -0.2963 -0.6454
10471SOL    HW143392   3.406   7.922  12.145 -0.7708 -0.6936 -0.2739
10471SOL    HW243393   3.373   8.045  12.227 -0.5280 -0.5396 -0.4074
10472SOL     OW43394   0.574   1.248  12.580  0.4147 -0.3418 -0.1712
10472SOL    HW143395   0.547   1.322  12.634  0.4928  0.4230 -1.1592
10472SOL    HW243396   0.557   1.275  12.490 -0.8837 -2.0698 -0.5125
10473SOL     OW43397   6.860  11.345  10.574 -0.0624  0.6152  0.2590
10473SOL    HW143398   6.944  11.343  10.527 -0.1283  1.1556  0.1101
10473SOL    HW243399   6.884  11.367  10.664  0.0748 -0.5251  0.5194
10474SOL     OW43400  10.314   9.886  10.221 -0.4704  0.1229 -0.4324
10474SOL    HW143401  10.367   9.810  10.195  1.6745  1.0120  1.0195
10474SOL    HW243402  10.373   9.961  10.209 -1.3755  1.1683  1.3079
10475SOL     OW43403   4.414   3.217   5.534  0.1850  0.0121  0.0567
10475SOL    HW143404   4.441   3.191   5.622  0.1680  0.0524  0.0738
10475SOL    HW243405   4.407   3.312   5.537  1.1920  0.1104 -0.2692
10476SOL     OW43406   0.514  10.867   8.250 -0.3133  0.0271 -0.2383
10476SOL    HW143407   0.462  10.944   8.229 -1.1160 -0.5821 -0.5576
10476SOL    HW243408   0.481  10.838   8.335 -0.2643 -0.1639 -0.2825
10477SOL     OW43409   9.991   5.403   3.115  0.0386 -0.2025  0.1367
10477SOL    HW143410   9.953   5.319   3.090 -1.1521  0.3236  0.1373
10477SOL    HW243411   9.950   5.466   3.057 -1.6893  0.8527  2.3862
10478SOL     OW43412   5.671   2.194   0.530  0.4719 -0.2097 -0.1858
10478SOL    HW143413   5.645   2.174   0.440  3.5100 -2.4053 -0.7225
10478SOL    HW243414   5.617   2.137   0.584 -0.3091  0.0194 -0.7123
10479SOL     OW43415   5.845   5.110   1.611 -0.4313 -0.3305 -0.1320
10479SOL    HW143416   5.934   5.077   1.597 -0.1396 -0.3836  1.6608
10479SOL    HW243417   5.833   5.108   1.706 -1.4938  1.9067 -0.1690
10480SOL     OW43418  12.450  12.575   2.424  0.3603 -0.4174  0.3491
10480SOL    HW143419  12.543  12.572   2.447  0.8699 -1.2653 -1.5854
10480SOL    HW243420  12.404  12.560   2.506  1.8940  0.9245  1.5178
10481SOL     OW43421   7.132   5.677   3.306  0.7065 -0.2602  0.2279
10481SOL    HW143422   7.071   5.615   3.347 -0.1506  0.6796  0.4208
10481SOL    HW243423   7.075   5.738   3.258  1.4987  0.6498  0.4249
10482SOL     OW43424  12.183   9.271   9.726  0.0848 -0.2505  0.0141
10482SOL    HW143425  12.119   9.314   9.782  0.3406  0.7325 -0.4382
10482SOL    HW243426  12.211   9.194   9.777 -0.2413  0.2076  0.9060
10483SOL     OW43427   2.278  11.346  13.956  0.3613  0.2796 -0.2670
10483SOL    HW143428   2.221  11.270  13.942  1.4629 -0.7448  0.6485
10483SOL    HW243429   2.293  11.348  14.050 -0.5176  2.3141 -0.1021
10484SOL     OW43430   9.008   6.880   1.525 -0.0969  0.1095  0.6148
10484SOL    HW143431   9.082   6.933   1.496  0.1013  0.2537  1.3681
10484SOL    HW243432   9.022   6.795   1.484  0.9632 -0.1256  1.4237
10485SOL     OW43433   0.073   9.952   9.602  0.1676  0.3143  0.2870
10485SOL    HW143434   0.026   9.982   9.680 -0.7084  2.1951 -0.8801
10485SOL    HW243435   0.158   9.996   9.607  0.6371 -0.6409  0.8448
10486SOL     OW43436   5.634  13.129  12.012  0.0474 -0.2732  0.1977
10486SOL    HW143437   5.659  13.132  12.105 -0.6440 -1.4205  0.4324
10486SOL    HW243438   5.707  13.084  11.970  0.5835  0.6633  0.0844
10487SOL     OW43439  11.477   8.044  13.812 -0.1785 -0.3923 -0.1646
10487SOL    HW143440  11.462   8.067  13.904  1.1970 -0.7324  0.1553
10487SOL    HW243441  11.447   7.953  13.805  0.0219 -0.4736  0.0270
10488SOL     OW43442   4.106   9.589  12.694 -0.1039  0.5646  0.2078
10488SOL    HW143443   4.071   9.629  12.773 -1.8284  0.2765 -0.3719
10488SOL    HW243444   4.197   9.567  12.716 -0.5240  0.5696  2.0552
10489SOL     OW43445   8.369  13.806   0.906 -0.0948 -0.6342  0.1319
10489SOL    HW143446   8.402  13.756   0.980 -2.5487 -2.1934  0.3019
10489SOL    HW243447   8.275  13.788   0.905 -0.7739  2.2870 -1.1514
10490SOL     OW43448   3.993   7.455   5.334  0.3961 -0.0307  0.1879
10490SOL    HW143449   4.076   7.410   5.322  0.6248  0.2322  0.7513
10490SOL    HW243450   3.946   7.401   5.398 -0.0416 -0.4073 -0.4434
10491SOL     OW43451   7.749   2.032   4.317 -0.1406 -0.0592 -0.3972
10491SOL    HW143452   7.662   2.068   4.332 -0.5103 -1.3318  0.7134
10491SOL    HW243453   7.801   2.064   4.391 -0.0007 -0.3248 -0.3782
10492SOL     OW43454   1.171   2.860   5.322  0.0540 -0.4262  0.2162
10492SOL    HW143455   1.243   2.904   5.369 -0.7857 -0.1948  1.3268
10492SOL    HW243456   1.113   2.828   5.391 -1.3433  0.1085 -0.6654
10493SOL     OW43457  12.258  11.052   6.927 -0.3428  0.3236 -0.4970
10493SOL    HW143458  12.181  11.085   6.973  1.5868  2.7958  1.2608
10493SOL    HW243459  12.255  11.094   6.841  0.6087  3.0920  0.7193
10494SOL     OW43460  12.726   2.933  11.552 -0.0183 -0.4890  0.8430
10494SOL    HW143461  12.663   2.869  11.517 -0.8510  0.5218  0.4469
10494SOL    HW243462  12.811   2.893  11.535 -0.4101 -0.4750 -1.5756
10495SOL     OW43463   9.745   4.100   2.901 -0.0662 -0.1076  0.2895
10495SOL    HW143464   9.760   4.170   2.965 -0.3664 -0.4428  0.7329
10495SOL    HW243465   9.833   4.077   2.869  0.0424  0.3877  0.2248
10496SOL     OW43466   1.218  12.187   9.956  0.3200 -0.0835  0.1273
10496SOL    HW143467   1.239  12.111  10.010 -0.3258 -0.1747  0.2605
10496SOL    HW243468   1.267  12.174   9.875  0.2397 -0.6246  0.1647
10497SOL     OW43469   4.552   0.643   6.382 -0.6253  0.1808  0.0627
10497SOL    HW143470   4.550   0.734   6.354  0.0533  0.2941  0.3601
10497SOL    HW243471   4.468   0.607   6.355 -0.0408  0.2944 -2.1044
10498SOL     OW43472   0.181   9.525  11.233  0.0333  0.1856  0.0105
10498SOL    HW143473   0.236   9.566  11.300  0.4825 -0.9504  0.3574
10498SOL    HW243474   0.241   9.498  11.165 -0.3328  0.6157 -0.4911
10499SOL     OW43475   2.821   6.363  10.873  0.2771  0.2029 -0.0015
10499SOL    HW143476   2.911   6.330  10.876  0.4566  0.6113 -0.6140
10499SOL    HW243477   2.766   6.286  10.885  0.7125  0.0966  1.4851
10500SOL     OW43478   4.520   3.801  13.464  0.6319 -0.3336  0.0555
10500SOL    HW143479   4.606   3.838  13.480  0.2959  0.8908 -0.8310
10500SOL    HW243480   4.522   3.774  13.372 -0.0289  0.0280 -0.0736
10501SOL     OW43481  12.249   5.993   3.230  0.0695  0.3152 -0.2391
10501SOL    HW143482  12.168   6.032   3.200 -0.7184 -1.4450 -0.5578
10501SOL    HW243483  12.305   5.991   3.152 -1.3849 -2.7685 -1.3829
10502SOL     OW43484   4.312   1.155   8.257  0.2480  0.0652 -0.0198
10502SOL    HW143485   4.324   1.116   8.170 -1.0931  2.3545 -1.3194
10502SOL    HW243486   4.367   1.101   8.315  0.7690 -1.8611 -2.1555
10503SOL     OW43487   7.309  11.069   9.242  0.3042  0.2422 -0.5037
10503SOL    HW143488   7.303  11.161   9.218  0.4576  0.1157 -1.0598
10503SOL    HW243489   7.229  11.050   9.289  0.4427  0.7549 -0.0612
10504SOL     OW43490   3.474   8.324  10.307 -0.5852 -0.2324 -0.0102
10504SOL    HW143491   3.469   8.231  10.288 -0.4642 -0.3874  0.6961
10504SOL    HW243492   3.403   8.363  10.255  1.0211 -0.3288 -2.4687
10505SOL     OW43493   1.471   2.229   7.435 -0.1729 -0.1636 -0.6108
10505SOL    HW143494   1.448   2.229   7.342 -3.0605  1.3813 -0.0027
10505SOL    HW243495   1.388   2.216   7.481  0.7571  1.5811  1.7854
10506SOL     OW43496   1.717  10.393  11.126 -0.5527 -0.6600  0.2227
10506SOL    HW143497   1.754  10.420  11.210  2.1248 -0.2920 -0.9755
10506SOL    HW243498   1.703  10.475  11.079  0.4829 -0.9725 -0.6523
10507SOL     OW43499  13.344   9.603  12.517 -0.0702  0.1443  0.3225
10507SOL    HW143500  13.251   9.602  12.492  0.4387  1.0813 -1.8260
10507SOL    HW243501  13.366   9.695  12.525  1.0281 -0.0020 -0.7422
10508SOL     OW43502  11.438   3.591   1.358 -0.0753  0.0043  0.3571
10508SOL    HW143503  11.401   3.619   1.274  0.8029  2.6029  0.7433
10508SOL    HW243504  11.496   3.518   1.335 -0.6799 -0.0455 -1.1417
10509SOL     OW43505  11.079   0.386   8.160  0.1073 -0.3168 -0.4627
10509SOL    HW143506  11.142   0.357   8.226  0.7414 -0.9780 -1.3461
10509SOL    HW243507  11.104   0.477   8.142 -1.7395  0.8478  2.1342
10510SOL     OW43508  11.005   8.444   3.758  0.6662 -0.3799 -0.2663
10510SOL    HW143509  10.955   8.506   3.811  1.5541  0.4214 -0.3448
10510SOL    HW243510  11.008   8.483   3.671 -1.8937 -2.3073 -1.3192
10511SOL     OW43511   0.221   6.774   7.255  0.4884 -1.0816  0.2279
10511SOL    HW143512   0.169   6.694   7.261  0.0073 -0.7223  1.1808
10511SOL    HW243513   0.197   6.812   7.171  0.6105 -1.8601 -0.1645
10512SOL     OW43514   8.528   0.364   3.825  0.2158 -0.7551 -0.0737
10512SOL    HW143515   8.605   0.397   3.779  0.3350 -1.0245 -0.0687
10512SOL    HW243516   8.561   0.339   3.912 -0.2891  1.1958  0.7471
10513SOL     OW43517  11.884   8.350  14.025  0.1964  0.3674  0.3005
10513SOL    HW143518  11.892   8.413  14.097 -1.3921 -0.2018  1.0228
10513SOL    HW243519  11.886   8.264  14.068 -0.4522  0.0090 -0.3739
10514SOL     OW43520  10.514   5.083   5.047  0.4870 -0.1672 -0.6470
10514SOL    HW143521  10.576   5.106   4.978 -0.4234  0.8445 -1.1597
10514SOL    HW243522  10.558   5.106   5.128  0.8346  0.4413 -1.0009
10515SOL     OW43523   9.967   1.047  12.729  0.2908  1.1816 -0.0482
10515SOL    HW143524  10.025   1.059  12.804  0.5668 -3.6393  0.8709
10515SOL    HW243525  10.026   1.043  12.654  0.8285 -0.0191  0.4000
10516SOL     OW43526  12.507   8.123   5.339 -0.2832  0.7529  0.4824
10516SOL    HW143527  12.532   8.032   5.357  0.6517  0.7113 -0.9313
10516SOL    HW243528  12.537   8.172   5.416 -0.0986 -0.0110  0.9055
10517SOL     OW43529   4.254   9.575   9.739  0.4466 -0.0505 -0.0044
10517SOL    HW143530   4.244   9.519   9.662 -3.3211 -2.6333  2.0056
10517SOL    HW243531   4.301   9.521   9.803 -2.5262 -0.8799  1.6926
10518SOL     OW43532   6.645   9.353   9.335 -0.0919 -0.7040  0.1201
10518SOL    HW143533   6.652   9.278   9.276  0.9844 -0.5912  0.0940
10518SOL    HW243534   6.725   9.350   9.388 -0.2332  0.1836  0.4014
10519SOL     OW43535   1.438   3.378   8.481 -0.1903  1.0668  0.5832
10519SOL    HW143536   1.507   3.364   8.545 -0.0309  3.3228  0.9925
10519SOL    HW243537   1.471   3.338   8.401  0.6931  0.3668  1.2832
10520SOL     OW43538   5.870   2.664   0.746  0.0610  0.0758  0.0893
10520SOL    HW143539   5.779   2.643   0.769 -0.2344  1.0159 -0.1734
10520SOL    HW243540   5.908   2.581   0.719 -0.3935 -0.5401  1.2905
10521SOL     OW43541   4.227  11.517  13.279  0.1218 -0.5265 -0.2597
10521SOL    HW143542   4.200  11.599  13.319  1.1982  0.6178 -1.7680
10521SOL    HW243543   4.242  11.457  13.353  1.3520  1.2611  1.0235
10522SOL     OW43544   6.500   7.488   9.502  0.0827  0.2711 -0.0766
10522SOL    HW143545   6.412   7.469   9.536  0.4798 -0.1186  0.7469
10522SOL    HW243546   6.515   7.579   9.527 -0.2332  0.4597 -0.5543
10523SOL     OW43547  11.182  10.352  12.076 -0.0776 -0.0088  0.2442
10523SOL    HW143548  11.140  10.314  12.153 -0.3621  1.4394  0.8421
10523SOL    HW243549  11.254  10.293  12.056 -0.1331 -0.5270  1.4950
10524SOL     OW43550   2.938   0.735   7.522  0.2009 -0.1780  0.0164
10524SOL    HW143551   2.926   0.812   7.467  1.3379  0.0942  0.1290
10524SOL    HW243552   2.856   0.727   7.571 -0.3985  0.2273 -0.8899
10525SOL     OW43553  11.827   1.183  12.091 -0.7567  0.1233 -0.0743
10525SOL    HW143554  11.914   1.147  12.105 -0.5034  0.3439 -0.9996
10525SOL    HW243555  11.830   1.270  12.131 -0.0973  0.6864 -1.3100
10526SOL     OW43556   0.354   0.963   9.492 -0.8826 -0.2235  0.0304
10526SOL    HW143557   0.324   0.968   9.401 -0.8153 -0.7202 -0.0196
10526SOL    HW243558   0.364   1.055   9.519  0.7018 -0.0712 -0.9820
10527SOL     OW43559   7.641   3.842  13.732 -0.7133  0.3010  0.0659
10527SOL    HW143560   7.547   3.839  13.713 -0.5265 -1.9885 -0.7770
10527SOL    HW243561   7.682   3.832  13.646  0.3621  2.1940  0.3054
10528SOL     OW43562   7.072   7.164   1.807  0.1647 -0.1467 -0.0568
10528SOL    HW143563   7.084   7.077   1.770  1.6048  0.7912 -1.9525
10528SOL    HW243564   7.138   7.171   1.875 -2.1136 -1.6616  2.5353
10529SOL     OW43565   0.210   1.343   1.171  0.1398 -0.8847 -0.0095
10529SOL    HW143566   0.214   1.324   1.265 -0.6985  1.5029  0.5756
10529SOL    HW243567   0.294   1.386   1.153 -0.8592  1.3492  0.3749
10530SOL     OW43568   6.672   5.848   9.867 -0.2829  0.1278 -0.3650
10530SOL    HW143569   6.582   5.828   9.842 -0.4928 -1.0362  1.1568
10530SOL    HW243570   6.664   5.921   9.928 -0.2164 -0.0232 -0.1723
10531SOL     OW43571   5.599   2.418   1.293  0.1211  0.7091  0.5669
10531SOL    HW143572   5.550   2.445   1.216  4.0106  0.2158 -2.3401
10531SOL    HW243573   5.593   2.493   1.353 -3.2462  0.9707  0.0838
10532SOL     OW43574   2.247   1.084  12.361  0.2276 -0.1509  0.2078
10532SOL    HW143575   2.238   1.147  12.291 -0.6675 -1.6178 -1.0520
10532SOL    HW243576   2.342   1.076  12.374  0.3886  2.7432  1.7069
10533SOL     OW43577   5.704   9.583   6.188  0.3822  0.2845  0.4961
10533SOL    HW143578   5.775   9.626   6.140 -1.3069  1.9732 -0.6306
10533SOL    HW243579   5.704   9.624   6.274 -0.1238  1.3830 -0.0005
10534SOL     OW43580  10.433   7.427  13.426 -0.1313  0.2274  0.3276
10534SOL    HW143581  10.391   7.342  13.413 -1.2554  0.7047  0.7263
10534SOL    HW243582  10.368   7.491  13.398  0.9149  0.9568 -0.5302
10535SOL     OW43583  11.249   2.415   0.326 -0.4919 -0.0510  0.0861
10535SOL    HW143584  11.278   2.479   0.392  3.1315 -1.1557 -0.2109
10535SOL    HW243585  11.217   2.341   0.377  3.0136 -1.2265  0.8809
10536SOL     OW43586   2.071   5.160   7.278  0.2263 -0.0132 -0.0550
10536SOL    HW143587   2.074   5.081   7.332  0.7963  0.2039  0.2407
10536SOL    HW243588   2.112   5.228   7.332  0.0316  0.4100 -0.4290
10537SOL     OW43589   1.583   2.114   8.178 -0.1081  0.5564 -0.5618
10537SOL    HW143590   1.511   2.125   8.116 -0.9586 -1.0363  0.1017
10537SOL    HW243591   1.572   2.026   8.213  3.1139 -0.4290 -1.6559
10538SOL     OW43592  11.121   4.970   2.323 -0.7614 -0.0938  0.2422
10538SOL    HW143593  11.096   4.926   2.242 -0.3288 -0.3466  0.2406
10538SOL    HW243594  11.047   4.956   2.382 -1.3099  0.5713 -0.2917
10539SOL     OW43595   2.723   7.645  11.401 -0.1308  0.2732 -0.0386
10539SOL    HW143596   2.750   7.585  11.331 -0.0344  1.7059 -1.2848
10539SOL    HW243597   2.791   7.713  11.402  0.1356  0.0379  1.8120
10540SOL     OW43598   9.805  10.811   6.831 -0.0125 -0.1086  0.0381
10540SOL    HW143599   9.781  10.836   6.742 -0.1312  0.8837  0.3259
10540SOL    HW243600   9.899  10.796   6.828  0.0609  0.3629 -0.1743
10541SOL     OW43601   2.055   0.324   7.979  0.6757 -0.0758 -0.5052
10541SOL    HW143602   2.031   0.395   8.037  0.1978  1.0529 -2.0213
10541SOL    HW243603   2.148   0.310   7.994  0.7644  0.8588 -0.1849
10542SOL     OW43604   5.705   5.907  12.273  0.4617 -0.1168 -0.0751
10542SOL    HW143605   5.648   5.976  12.238  0.5356  0.5327  1.0312
10542SOL    HW243606   5.749   5.948  12.347  0.5275 -1.3480  0.5923
10543SOL     OW43607   2.138  12.905   7.853 -0.1479 -0.3285 -0.3766
10543SOL    HW143608   2.214  12.923   7.909 -0.5742 -0.4756  0.2597
10543SOL    HW243609   2.174  12.857   7.779  0.6124  0.9156 -0.8378
10544SOL     OW43610   9.799   4.384  11.011 -0.4130  0.7468  0.1679
10544SOL    HW143611   9.820   4.325  10.938 -0.5183 -0.4585  1.0985
10544SOL    HW243612   9.709   4.364  11.034  0.3897 -0.7242  2.2826
10545SOL     OW43613   2.170   6.523   4.653  0.0090  0.1885 -0.6511
10545SOL    HW143614   2.140   6.508   4.743 -0.4492 -0.7630 -0.9513
10545SOL    HW243615   2.254   6.569   4.663 -0.2167  0.4342  0.2464
10546SOL     OW43616   3.967   8.579  13.811 -0.0015  0.5724 -0.3184
10546SOL    HW143617   4.003   8.491  13.807  0.7749  0.8067  0.8497
10546SOL    HW243618   4.027   8.632  13.758  2.4188  1.2388  2.7837
10547SOL     OW43619  11.616  10.320   3.865 -0.3188  0.3668  0.2862
10547SOL    HW143620  11.563  10.371   3.926  1.2155  2.0568  0.2722
10547SOL    HW243621  11.682  10.382   3.832 -1.2901 -0.2858 -3.4090
10548SOL     OW43622   3.118   4.813  12.922  0.0996  0.4103 -0.2626
10548SOL    HW143623   3.128   4.863  13.002 -1.1281  0.9019 -0.4016
10548SOL    HW243624   3.199   4.763  12.915  0.8310  1.4423  0.5229
10549SOL     OW43625   6.493   7.427   7.403 -0.2891  0.0540  0.1570
10549SOL    HW143626   6.419   7.376   7.436 -1.2983  1.3207 -0.0325
10549SOL    HW243627   6.452   7.495   7.349  0.9487  1.3424  0.7852
10550SOL     OW43628   4.132   5.000   6.380  0.1702 -0.1108  0.3158
10550SOL    HW143629   4.094   4.919   6.346 -1.1077  0.4743  0.3062
10550SOL    HW243630   4.099   5.068   6.322  1.1446  0.4451  0.3922
10551SOL     OW43631   2.466   3.141  13.163  0.3936 -0.1749 -0.3325
10551SOL    HW143632   2.483   3.214  13.103  2.3129  0.2352  0.6256
10551SOL    HW243633   2.506   3.065  13.120  1.9593  0.1599  0.4510
10552SOL     OW43634   3.755   5.459   7.802  0.3748  0.1299  0.3066
10552SOL    HW143635   3.736   5.455   7.896  1.1047 -1.0505  0.4197
10552SOL    HW243636   3.816   5.532   7.793 -0.0158  0.5090  0.6887
10553SOL     OW43637   4.874   7.980   8.800 -0.8204  0.9135  0.0327
10553SOL    HW143638   4.875   8.072   8.825  1.2883  0.9568 -0.0356
10553SOL    HW243639   4.942   7.940   8.855 -0.7525 -0.3124 -0.9154
10554SOL     OW43640   2.452   5.443  14.013  0.0031  0.3807 -0.4681
10554SOL    HW143641   2.525   5.464  14.072 -1.6473  0.5207  1.6375
10554SOL    HW243642   2.455   5.348  14.004  0.9314  0.4530 -1.1175
10555SOL     OW43643   7.235  10.179   2.118  0.5128 -0.7133 -0.1809
10555SOL    HW143644   7.275  10.248   2.064  0.5350  2.1284  3.1013
10555SOL    HW243645   7.310  10.132   2.155  0.6956  0.2625  0.7555
10556SOL     OW43646   6.797   6.457  12.891 -0.2553 -0.3247 -0.1045
10556SOL    HW143647   6.878   6.508  12.883 -0.5935  0.2553  0.1201
10556SOL    HW243648   6.784   6.447  12.985  0.3201 -1.6708 -0.1395
10557SOL     OW43649  12.244   5.216  12.360  0.6009 -0.3541  0.0325
10557SOL    HW143650  12.286   5.263  12.432 -0.8923  1.5723 -0.3088
10557SOL    HW243651  12.150   5.227  12.374  0.2360 -1.6086 -1.1504
10558SOL     OW43652  13.308   2.722  10.843  0.4033  0.5506 -0.1470
10558SOL    HW143653  13.344   2.802  10.881 -0.8343  1.3140 -0.5615
10558SOL    HW243654  13.258   2.682  10.915 -0.8084  1.3004 -0.5455
10559SOL     OW43655   1.252  12.039  10.700 -0.2147 -0.1605 -0.2961
10559SOL    HW143656   1.297  12.120  10.676 -0.7179 -0.5760 -2.8224
10559SOL    HW243657   1.323  11.977  10.714  0.2293  0.8114  2.5102
10560SOL     OW43658   5.758   3.394  10.894  0.2750 -0.2887  0.0241
10560SOL    HW143659   5.669   3.407  10.862  0.1827 -1.3316 -0.1792
10560SOL    HW243660   5.813   3.410  10.817  0.3542  1.3427  0.3855
10561SOL     OW43661   1.783  10.602   2.440 -0.5912  0.2291 -0.2187
10561SOL    HW143662   1.763  10.518   2.481  2.6478 -1.3012 -1.3638
10561SOL    HW243663   1.715  10.613   2.374 -1.0636 -1.5977 -0.1081
10562SOL     OW43664   7.462   2.021   2.546  0.2544  0.2572  0.2357
10562SOL    HW143665   7.447   1.935   2.585  0.1345  0.5006  0.7352
10562SOL    HW243666   7.491   2.002   2.457  0.7211 -0.3176  0.5005
10563SOL     OW43667   8.562   2.609   4.834 -0.5801 -0.5230  0.3506
10563SOL    HW143668   8.574   2.567   4.919  0.3902 -2.0865 -0.5133
10563SOL    HW243669   8.633   2.673   4.829 -1.2734  0.3363  1.1256
10564SOL     OW43670   1.344  10.415   0.654  0.1721 -0.1155 -0.4037
10564SOL    HW143671   1.341  10.490   0.714 -1.6396 -0.6296  0.2121
10564SOL    HW243672   1.388  10.347   0.704  0.2632  0.0139 -0.3062
10565SOL     OW43673  12.426   3.212   8.374  0.1688 -0.1905  0.4061
10565SOL    HW143674  12.473   3.189   8.293 -0.2068  0.9134 -0.1572
10565SOL    HW243675  12.338   3.178   8.361  0.0732  0.0946  0.2791
10566SOL     OW43676  10.933   2.847   5.684  0.4376  0.3058 -0.0621
10566SOL    HW143677  10.968   2.789   5.615 -1.1054  0.0029 -0.6302
10566SOL    HW243678  10.944   2.797   5.765 -1.6553 -1.2311 -0.6402
10567SOL     OW43679  12.155  12.331  10.072 -0.3475 -0.1508 -0.1095
10567SOL    HW143680  12.138  12.354  10.164 -0.1861 -0.7751  0.0818
10567SOL    HW243681  12.179  12.238  10.075  1.0225  0.1653 -0.6146
10568SOL     OW43682   2.196   1.399  13.633 -0.0505 -0.6239  0.0751
10568SOL    HW143683   2.142   1.354  13.697 -1.4504  1.7431  0.6725
10568SOL    HW243684   2.210   1.486  13.671  2.0106 -0.3048 -1.2793
10569SOL     OW43685   9.754  13.625   2.303 -0.5216 -0.6054 -0.6553
10569SOL    HW143686   9.769  13.711   2.343  1.8862 -1.1523 -0.1979
10569SOL    HW243687   9.664  13.629   2.270 -0.4399  2.1190 -0.7675
10570SOL     OW43688   6.823   3.336   8.295 -0.1049  0.4536  0.5849
10570SOL    HW143689   6.770   3.319   8.217 -0.6712 -0.0575  1.0733
10570SOL    HW243690   6.840   3.249   8.332  2.2823  0.4674 -0.3351
10571SOL     OW43691   9.648   2.928   0.590 -0.5501 -0.4048 -0.2533
10571SOL    HW143692   9.741   2.942   0.575 -0.4890 -1.3841 -0.9079
10571SOL    HW243693   9.628   2.980   0.668  0.1805  1.0595 -1.0087
10572SOL     OW43694   8.294   3.625   0.940  0.6098 -0.0460  0.5384
10572SOL    HW143695   8.250   3.687   0.997 -2.9542 -2.2523  0.5182
10572SOL    HW243696   8.268   3.651   0.851 -1.2940 -1.6184  0.5495
10573SOL     OW43697   7.869   8.204   9.723  0.1077  0.1632  0.2962
10573SOL    HW143698   7.808   8.277   9.737 -1.0731 -0.7892  0.3562
10573SOL    HW243699   7.922   8.231   9.648 -0.9821  0.6873 -0.3269
10574SOL     OW43700   9.545   1.619   2.108 -0.0422 -0.2657 -0.4715
10574SOL    HW143701   9.624   1.601   2.159 -1.2740 -0.4679  1.4888
10574SOL    HW243702   9.571   1.687   2.046  1.7066 -0.4650 -0.0044
10575SOL     OW43703  11.764  12.670  11.946  0.1202 -0.3971  0.2013
10575SOL    HW143704  11.718  12.587  11.939  0.9400 -0.7783 -0.8800
10575SOL    HW243705  11.767  12.688  12.040  2.3002 -2.9573  0.7370
10576SOL     OW43706  11.986   4.476   6.951 -0.0746  0.3942  0.2107
10576SOL    HW143707  12.017   4.394   6.991  0.0188  0.4138  0.1799
10576SOL    HW243708  11.987   4.458   6.857  0.6703  0.6802  0.1590
10577SOL     OW43709   8.203  13.696   2.519  0.3180  0.0061  0.5726
10577SOL    HW143710   8.224  13.787   2.539  2.1023 -0.2444 -0.0391
10577SOL    HW243711   8.117  13.700   2.478  0.7009  1.5066 -0.1290
10578SOL     OW43712   3.254   3.074  10.196  0.3400 -0.1386 -0.7302
10578SOL    HW143713   3.198   3.040  10.265  0.6521 -0.8751 -0.8331
10578SOL    HW243714   3.252   3.169  10.208  0.6157 -0.2693  0.4751
10579SOL     OW43715   4.900   0.965   8.536  0.0694 -0.5826  0.5056
10579SOL    HW143716   4.891   0.870   8.535  0.9714 -0.6821 -0.7233
10579SOL    HW243717   4.963   0.984   8.466  0.0138  0.9064  0.8215
10580SOL     OW43718   1.193   9.186  11.279  0.3867  0.4079 -0.2070
10580SOL    HW143719   1.100   9.207  11.269  0.2280  0.5999  1.4825
10580SOL    HW243720   1.194   9.103  11.326  1.0724  0.1618 -0.6457
10581SOL     OW43721   8.812   1.436   7.771  0.4777 -0.3296  0.0166
10581SOL    HW143722   8.750   1.466   7.705  2.4200  1.3796 -1.1606
10581SOL    HW243723   8.775   1.354   7.803 -2.3257  0.6006 -0.6053
10582SOL     OW43724   3.630  12.572   4.531  0.0373  0.1581 -0.5256
10582SOL    HW143725   3.610  12.541   4.442 -0.3133  0.9999 -0.7517
10582SOL    HW243726   3.628  12.667   4.524 -1.0769  0.2468  0.6330
10583SOL     OW43727   7.885   0.730   3.089  0.3169 -0.0510  0.4682
10583SOL    HW143728   7.955   0.673   3.121  0.5001 -0.9564 -1.4028
10583SOL    HW243729   7.840   0.678   3.023 -0.6119  1.3731 -0.0660
10584SOL     OW43730   1.407   1.820   1.122 -0.4542  0.0383 -0.1746
10584SOL    HW143731   1.390   1.726   1.130  0.9174 -0.1426  1.0395
10584SOL    HW243732   1.334   1.862   1.167 -0.4409 -0.5028  0.3631
10585SOL     OW43733   0.971   1.975   4.155  0.3484  0.5699 -0.1115
10585SOL    HW143734   0.970   2.014   4.068  1.0341 -1.9683 -1.3823
10585SOL    HW243735   1.064   1.964   4.175  0.1848 -0.3182  0.2157
10586SOL     OW43736   5.276   3.465  13.696  0.2339  0.8640  0.3066
10586SOL    HW143737   5.230   3.457  13.613 -1.1181  3.3133  0.7244
10586SOL    HW243738   5.306   3.376  13.716 -0.7010 -0.0428 -2.0395
10587SOL     OW43739  11.168   7.546   5.810 -0.0670 -0.4989 -1.0128
10587SOL    HW143740  11.156   7.477   5.745 -0.1341  1.0476 -2.6994
10587SOL    HW243741  11.223   7.611   5.767  0.2940  0.3676  0.6582
10588SOL     OW43742  10.844  12.525   3.298 -0.0399  0.0045  0.0295
10588SOL    HW143743  10.794  12.595   3.258  1.0474  0.9788  0.3318
10588SOL    HW243744  10.873  12.471   3.225 -0.3731  0.2084 -0.2555
10589SOL     OW43745   2.871   2.297  11.211  0.0216 -0.7366 -0.6639
10589SOL    HW143746   2.778   2.315  11.218  0.2940 -0.0034  2.1709
10589SOL    HW243747   2.882   2.209  11.246  0.4485 -0.5458 -0.2992
10590SOL     OW43748   0.920  13.523  12.875 -0.3315 -0.4659 -0.4834
10590SOL    HW143749   0.915  13.462  12.949  1.3740 -0.5395 -0.3835
10590SOL    HW243750   0.864  13.597  12.901 -0.8944 -1.1225  0.2354
10591SOL     OW43751  11.159   1.251   3.331 -0.2929 -0.0697 -0.6204
10591SOL    HW143752  11.114   1.199   3.398  1.1529  0.2058  0.6219
10591SOL    HW243753  11.247   1.216   3.329  0.0940  0.8987 -1.3465
10592SOL     OW43754   9.883   6.595  11.557 -0.5210 -0.4697 -0.1542
10592SOL    HW143755   9.806   6.650  11.545 -0.8647 -0.7999  0.4673
10592SOL    HW243756   9.868   6.519  11.500  1.0320  1.0983 -2.8522
10593SOL     OW43757  10.077   9.382  12.752 -0.2052 -0.2131  0.3106
10593SOL    HW143758   9.995   9.387  12.702 -0.5646  3.5018  1.0293
10593SOL    HW243759  10.064   9.441  12.825  1.3411 -3.3944  3.4564
10594SOL     OW43760  11.348   4.615   3.864  1.0076  0.0231  0.4661
10594SOL    HW143761  11.356   4.643   3.956 -0.3888  1.2001  0.2753
10594SOL    HW243762  11.299   4.533   3.868 -0.3060  0.7820  0.7423
10595SOL     OW43763   3.577   4.744  11.864  0.0116  0.4459  0.7631
10595SOL    HW143764   3.626   4.689  11.802  0.9384 -0.3919  2.1697
10595SOL    HW243765   3.573   4.830  11.822  1.6064  0.2035  0.0341
10596SOL     OW43766  10.533   1.009   6.786  0.1451  0.0771 -0.4389
10596SOL    HW143767  10.454   1.055   6.816  0.4666  0.1541  0.3173
10596SOL    HW243768  10.585   1.076   6.742 -0.4654 -0.0994 -1.4617
10597SOL     OW43769  11.162   5.330   6.796  0.2183  0.4197 -0.4077
10597SOL    HW143770  11.215   5.360   6.870  1.8263 -2.3205 -0.2885
10597SOL    HW243771  11.202   5.371   6.719  0.3509  1.0547 -0.0045
10598SOL     OW43772   9.686  11.900  13.575  0.4558  1.2755  0.0656
10598SOL    HW143773   9.776  11.871  13.586  0.0348 -0.7640 -1.3044
10598SOL    HW243774   9.636  11.851  13.640  0.0947  1.0412 -0.3847
10599SOL     OW43775  13.881   5.793   8.776 -0.0207  0.2078  0.6636
10599SOL    HW143776  13.860   5.878   8.737 -0.6796  0.0017  0.5646
10599SOL    HW243777  13.878   5.809   8.871  0.7104  0.4956  0.6475
10600SOL     OW43778   5.683  11.594   6.220  0.2607 -0.6121  0.3018
10600SOL    HW143779   5.652  11.524   6.278 -2.2529 -0.0841 -0.3242
10600SOL    HW243780   5.628  11.669   6.241  1.4780  0.5611 -0.5570
10601SOL     OW43781  13.044   5.385  13.211  0.6819 -0.4265 -0.1816
10601SOL    HW143782  13.002   5.357  13.292 -0.3692  3.0072  0.6271
10601SOL    HW243783  13.120   5.435  13.239 -0.6911  2.3733 -1.1001
10602SOL     OW43784  11.442  10.760  13.376  0.1369 -0.4802 -0.2911
10602SOL    HW143785  11.433  10.665  13.366 -1.5509 -0.5284  1.2022
10602SOL    HW243786  11.460  10.772  13.470  0.7796  0.6508 -0.5493
10603SOL     OW43787   3.918  10.853   6.200 -0.0612  0.2208  0.2259
10603SOL    HW143788   3.960  10.931   6.166  1.9085 -0.7202  0.3878
10603SOL    HW243789   3.850  10.886   6.259 -0.1032  1.7940 -0.6710
10604SOL     OW43790   5.301   2.440  11.433 -0.9212  0.3022 -0.0558
10604SOL    HW143791   5.350   2.373  11.386  0.0691 -0.1788  1.5470
10604SOL    HW243792   5.217   2.446  11.387 -0.0505 -0.1573 -1.7871
10605SOL     OW43793   7.047   1.246  11.829  0.4270  0.5069  0.2702
10605SOL    HW143794   7.105   1.175  11.800  0.0946 -0.2605  1.4056
10605SOL    HW243795   7.001   1.209  11.905 -3.4968  0.0898 -2.0168
10606SOL     OW43796   3.846  13.297  11.513 -0.1001 -0.0211 -0.3485
10606SOL    HW143797   3.864  13.335  11.599 -3.0380 -1.2126  0.9724
10606SOL    HW243798   3.784  13.358  11.472 -0.3017 -0.4738 -0.7309
10607SOL     OW43799   4.677  12.833   5.766 -0.4619  0.4533  0.3962
10607SOL    HW143800   4.651  12.795   5.682  0.0526  1.1417 -0.0886
10607SOL    HW243801   4.669  12.928   5.753  0.8694  0.6319  0.6805
10608SOL     OW43802  10.265   8.592   8.874  0.3660 -0.3453  0.6468
10608SOL    HW143803  10.308   8.605   8.958  1.4920 -0.4811  0.1073
10608SOL    HW243804  10.179   8.555   8.896  0.9605 -1.1456  1.6938
10609SOL     OW43805   3.437   6.527  11.331  0.0656 -0.0001  0.1358
10609SOL    HW143806   3.488   6.580  11.392 -0.7081 -1.3654  2.0461
10609SOL    HW243807   3.461   6.437  11.351 -1.0846 -0.5352 -0.7761
10610SOL     OW43808  10.479  11.727  13.248  0.1541  0.0980  0.3551
10610SOL    HW143809  10.513  11.777  13.323  2.1114  1.0198 -1.0789
10610SOL    HW243810  10.398  11.688  13.281  0.1264  1.7526  2.4758
10611SOL     OW43811  12.853  10.131   5.553  0.7799 -0.1234  0.5350
10611SOL    HW143812  12.807  10.096   5.477  0.9916 -0.3299  0.5001
10611SOL    HW243813  12.860  10.057   5.613  0.5316  0.0630  0.7970
10612SOL     OW43814  10.635   7.008  10.121 -0.1628  0.1667 -0.1766
10612SOL    HW143815  10.605   7.091  10.158 -1.8180 -1.0204  1.3287
10612SOL    HW243816  10.724   6.998  10.154 -0.6382  0.4540  1.2783
10613SOL     OW43817  10.375   4.569   0.521 -0.3571  0.1058 -0.0145
10613SOL    HW143818  10.383   4.631   0.594 -1.1999  1.0766 -0.7239
10613SOL    HW243819  10.456   4.518   0.524 -0.2236  0.3726  1.3732
10614SOL     OW43820   8.458   4.888   8.894 -0.5039  0.1807 -0.9123
10614SOL    HW143821   8.551   4.903   8.911 -1.0704  1.1230  1.8167
10614SOL    HW243822   8.429   4.968   8.850 -0.2772  0.4038 -0.6608
10615SOL     OW43823   1.893  11.663   3.886  0.3655  0.3435 -0.2913
10615SOL    HW143824   1.799  11.659   3.871  0.2901  2.0889 -0.4580
10615SOL    HW243825   1.932  11.639   3.801  0.0633  0.1124 -0.3648
10616SOL     OW43826  10.524   7.274   9.768 -0.2387 -0.1969  0.1936
10616SOL    HW143827  10.599   7.325   9.740 -1.5240  0.7288 -1.7404
10616SOL    HW243828  10.473   7.334   9.823  0.1842 -0.6912  1.1572
10617SOL     OW43829  12.549   6.431   1.660  0.3985  0.5073  0.1617
10617SOL    HW143830  12.510   6.445   1.746  0.7720 -0.0406  0.4255
10617SOL    HW243831  12.480   6.456   1.599  0.3420  1.4777  0.6072
10618SOL     OW43832  11.008   9.998   0.988  0.8854  0.0318  0.5291
10618SOL    HW143833  10.981   9.924   0.933  2.4097 -0.6492  0.6332
10618SOL    HW243834  11.015  10.072   0.927 -0.3902  0.0377  0.3731
10619SOL     OW43835   7.605  10.091   9.153 -0.4217 -0.2690 -0.6713
10619SOL    HW143836   7.672  10.026   9.133  0.1098 -0.2466  0.9019
10619SOL    HW243837   7.649  10.175   9.140 -0.1776 -0.2544  0.1674
10620SOL     OW43838   8.001   4.789   5.652 -0.1991  0.3555 -0.3328
10620SOL    HW143839   7.918   4.742   5.653  0.0697 -0.1388 -0.4975
10620SOL    HW243840   7.981   4.873   5.612 -0.9926  0.9797  1.2782
10621SOL     OW43841   3.058  13.652  10.394 -0.1922 -0.3768  0.4679
10621SOL    HW143842   2.997  13.644  10.321  0.4704  0.5379 -0.2163
10621SOL    HW243843   3.066  13.746  10.408  2.1255 -0.3707 -0.4289
10622SOL     OW43844   8.154   7.504   3.560  0.2328 -0.3943 -0.5591
10622SOL    HW143845   8.209   7.531   3.633 -1.3268  0.3749  0.3873
10622SOL    HW243846   8.198   7.539   3.482 -0.4800  3.0523  0.4050
10623SOL     OW43847   2.477   8.475   3.853  0.2574 -0.8175 -0.1236
10623SOL    HW143848   2.537   8.488   3.926 -0.6563  0.4029  0.4679
10623SOL    HW243849   2.518   8.520   3.779  0.8353 -1.4091 -0.1642
10624SOL     OW43850  11.914  12.191   7.861  0.1102  0.1570  0.0675
10624SOL    HW143851  11.848  12.253   7.893 -1.0541 -1.2497  0.4867
10624SOL    HW243852  11.962  12.165   7.939 -0.0054 -0.1511  0.0365
10625SOL     OW43853   5.438   1.115  11.642  0.3564  0.2284 -0.2016
10625SOL    HW143854   5.533   1.113  11.643  0.3555 -0.9874 -0.7520
10625SOL    HW243855   5.414   1.164  11.721  1.4082 -1.0077  0.9294
10626SOL     OW43856   4.239  13.725   7.194 -0.0791  0.3509  0.5181
10626SOL    HW143857   4.159  13.678   7.222  0.5865 -0.2967  1.4195
10626SOL    HW243858   4.309  13.683   7.245  1.1236 -0.3743 -1.6308
10627SOL     OW43859   9.245  13.534   4.721  0.5128 -0.1916 -0.5293
10627SOL    HW143860   9.271  13.455   4.674  1.4522  0.5035 -1.2041
10627SOL    HW243861   9.321  13.556   4.774 -0.2058 -0.4402  0.6453
10628SOL     OW43862   9.591   7.342   7.859 -0.2853  0.9251 -0.3333
10628SOL    HW143863   9.562   7.382   7.777 -1.4491 -1.5292 -1.1995
10628SOL    HW243864   9.660   7.280   7.833 -0.5247  0.2696  0.5604
10629SOL     OW43865   8.055   2.484   8.030  0.3736 -0.1117 -0.4695
10629SOL    HW143866   8.068   2.519   8.119 -0.8579 -0.1385 -0.2665
10629SOL    HW243867   8.125   2.420   8.019  1.7138  1.2456 -0.2479
10630SOL     OW43868   7.075   8.273   6.278  0.3286  0.2717 -0.0887
10630SOL    HW143869   7.052   8.341   6.214  1.1336 -0.0467 -0.7419
10630SOL    HW243870   7.001   8.213   6.278 -0.3489  1.0894  0.4243
10631SOL     OW43871  11.102   4.513   8.551  0.4909 -0.2556  0.1535
10631SOL    HW143872  11.191   4.549   8.541  0.0173  0.5971 -1.3964
10631SOL    HW243873  11.045   4.590   8.546 -0.4510 -1.0052 -1.0165
10632SOL     OW43874  13.305   2.787  12.588 -0.4901 -0.1084  0.0811
10632SOL    HW143875  13.303   2.716  12.652  2.3870  1.4506  2.1579
10632SOL    HW243876  13.233   2.845  12.612 -0.0755 -0.0813  1.3227
10633SOL     OW43877   9.805   9.350   6.782 -0.0157  0.3470  0.4649
10633SOL    HW143878   9.738   9.331   6.848 -1.3016 -0.2111 -0.9468
10633SOL    HW243879   9.817   9.267   6.736  1.4218  0.5319  0.4728
10634SOL     OW43880   1.332   0.750   2.829  0.1284  0.3402  0.1499
10634SOL    HW143881   1.326   0.772   2.921  0.3177  0.4622  0.1337
10634SOL    HW243882   1.359   0.831   2.786  0.9522  0.0486  0.1058
10635SOL     OW43883   2.052  11.018   1.330 -0.6269  0.7281  0.4421
10635SOL    HW143884   2.145  11.013   1.351 -0.8266  1.7381  1.6454
10635SOL    HW243885   2.012  10.945   1.377 -0.3432 -0.3716 -0.9253
10636SOL     OW43886   2.536  13.846   8.889  0.0792 -0.4100  0.1648
10636SOL    HW143887   2.590  13.779   8.846 -1.1184 -1.7559  0.6591
10636SOL    HW243888   2.594  13.921   8.899  1.2989 -1.1569 -0.9726
10637SOL     OW43889  13.127   7.242   4.166  0.0159 -0.2888 -0.6492
10637SOL    HW143890  13.141   7.158   4.121 -1.1516 -0.6932 -0.2984
10637SOL    HW243891  13.065   7.221   4.236 -0.3514  0.8897 -0.6091
10638SOL     OW43892   1.034  11.868  11.968  0.5837 -0.2818  0.5309
10638SOL    HW143893   1.049  11.953  11.926  0.6334  0.1174  1.3383
10638SOL    HW243894   1.120  11.843  12.003  0.2804 -0.0138  1.4765
10639SOL     OW43895   7.846   4.320   2.547  0.4761 -0.1736 -0.1229
10639SOL    HW143896   7.823   4.394   2.490 -3.7778  0.4480  2.0122
10639SOL    HW243897   7.880   4.361   2.627 -1.6065 -0.3886  0.9442
10640SOL     OW43898   7.463  13.229   0.571 -0.1975 -0.0515  0.6922
10640SOL    HW143899   7.487  13.150   0.523  1.6442  0.2164  1.0880
10640SOL    HW243900   7.534  13.290   0.553 -3.3329  3.0580 -2.7899
10641SOL     OW43901   2.161  10.100   8.823 -0.4090  0.2104  0.6221
10641SOL    HW143902   2.129  10.055   8.901  0.3001  0.5184  1.1019
10641SOL    HW243903   2.239  10.148   8.853 -2.1931  3.3774  0.6247
10642SOL     OW43904   4.303   4.296   7.065  0.5105 -0.8220  0.1811
10642SOL    HW143905   4.215   4.267   7.041  1.0687  0.3841 -4.1811
10642SOL    HW243906   4.361   4.244   7.009  2.1167  1.9562 -0.9608
10643SOL     OW43907   8.146  13.985   7.199 -0.1925  0.6427 -0.1207
10643SOL    HW143908   8.238  13.960   7.195  0.2483  2.1143  0.1810
10643SOL    HW243909   8.146  14.071   7.241 -1.8720 -0.0916  1.5332
10644SOL     OW43910   0.490   2.177  12.990  0.7738 -0.4727  0.2262
10644SOL    HW143911   0.454   2.266  12.984 -1.0781 -1.2318 -0.7015
10644SOL    HW243912   0.520   2.157  12.901  0.4144 -1.0814  0.2388
10645SOL     OW43913   0.636  10.851   7.224 -0.1145 -0.5526 -0.0181
10645SOL    HW143914   0.628  10.930   7.170 -0.7028  0.3437  1.3301
10645SOL    HW243915   0.649  10.884   7.313  2.5722 -1.9973  0.2176
10646SOL     OW43916  13.227  13.289  12.342 -0.4144 -0.1079 -0.1554
10646SOL    HW143917  13.191  13.242  12.418  0.6735  0.0207  0.4499
10646SOL    HW243918  13.266  13.220  12.288  2.6328  0.1551  1.5177
10647SOL     OW43919   8.950   6.516   0.296  0.3596 -0.5831 -0.8473
10647SOL    HW143920   9.038   6.490   0.271  0.5271  0.4665 -1.3855
10647SOL    HW243921   8.961   6.598   0.343  0.0401 -2.3806  2.7035
10648SOL     OW43922   2.840  11.368   7.343 -0.0165  0.0345 -0.0488
10648SOL    HW143923   2.932  11.368   7.369 -0.3398 -0.7114  1.1916
10648SOL    HW243924   2.806  11.285   7.376 -1.2170  0.4550 -0.1683
10649SOL     OW43925   0.726  12.308  12.508  0.0530  0.0572 -0.0810
10649SOL    HW143926   0.751  12.255  12.583  0.7134  1.0483  0.4270
10649SOL    HW243927   0.659  12.257  12.463  2.2178 -2.2231 -0.8953
10650SOL     OW43928   5.247   9.670   5.041  0.3665 -0.2960 -0.4338
10650SOL    HW143929   5.328   9.707   5.076  0.3174  0.3276 -0.9662
10650SOL    HW243930   5.276   9.591   4.994  0.4103 -1.2584  1.1268
10651SOL     OW43931   4.693   3.016  11.093  0.0385  0.7710  0.4218
10651SOL    HW143932   4.654   3.085  11.040 -0.5312  1.4929  1.7240
10651SOL    HW243933   4.621   2.987  11.150  1.0326  1.1985  1.9498
10652SOL     OW43934   7.269   3.834   9.007  0.5019 -0.0978  0.7837
10652SOL    HW143935   7.244   3.898   9.074  2.0850 -0.0085  1.3288
10652SOL    HW243936   7.327   3.882   8.948 -0.7934 -0.2100 -0.6208
10653SOL     OW43937  10.553   3.623  10.976 -0.1885 -0.2353  0.1658
10653SOL    HW143938  10.509   3.707  10.991  1.9625  0.9160  0.4667
10653SOL    HW243939  10.610   3.640  10.900 -0.5917 -1.8049 -0.5226
10654SOL     OW43940   8.505   7.784   2.510  0.1048 -0.2045 -0.5487
10654SOL    HW143941   8.571   7.838   2.467  0.3939 -1.0931 -1.2703
10654SOL    HW243942   8.432   7.780   2.449 -0.1276 -0.2112 -0.2756
10655SOL     OW43943   5.542  10.174   1.024 -0.3079 -0.1027 -0.1818
10655SOL    HW143944   5.593  10.242   1.069  1.0846 -0.4632 -1.1331
10655SOL    HW243945   5.572  10.092   1.064 -1.0086 -0.2551  0.0452
10656SOL     OW43946   2.954  14.003   1.090  0.5294 -0.7120 -0.5722
10656SOL    HW143947   3.044  14.006   1.056  1.0388 -0.4405  0.7566
10656SOL    HW243948   2.901  14.044   1.021  1.3628 -1.2535 -1.5483
10657SOL     OW43949   8.271  13.296   2.441 -0.3912  0.1055 -0.0287
10657SOL    HW143950   8.362  13.267   2.443  1.4074  4.7529 -0.8570
10657SOL    HW243951   8.259  13.343   2.524 -1.4627  0.9599 -0.6341
10658SOL     OW43952   6.860  10.536  12.488  0.5042 -0.3092  0.1847
10658SOL    HW143953   6.950  10.565  12.473  0.6151 -0.8159 -0.1466
10658SOL    HW243954   6.815  10.551  12.405  0.2239  0.1555  0.4174
10659SOL     OW43955   6.848  11.037  12.653 -0.0406 -0.2823 -0.1643
10659SOL    HW143956   6.795  11.113  12.627 -1.0326 -1.0557 -0.4499
10659SOL    HW243957   6.921  11.037  12.591 -0.2065  0.2500 -0.3723
10660SOL     OW43958  10.908   5.047   7.008  0.5173  0.3210 -0.1259
10660SOL    HW143959  10.971   5.023   6.939  0.9740  1.3621 -0.0923
10660SOL    HW243960  10.949   5.016   7.089  1.4060  1.7038 -0.0118
10661SOL     OW43961   5.552  10.268  13.818  0.6326 -0.2343  0.1193
10661SOL    HW143962   5.551  10.266  13.914  0.8349  2.0806  0.2236
10661SOL    HW243963   5.608  10.194  13.793  0.4682 -0.9577  1.7711
10662SOL     OW43964   8.989  14.010   2.607  0.2116 -0.3735 -0.1030
10662SOL    HW143965   8.949  13.933   2.647 -1.2880  0.4824  0.1477
10662SOL    HW243966   8.948  14.084   2.651 -0.0093  0.5874 -1.8128
10663SOL     OW43967  13.047   5.241   1.865  0.4567 -0.4280  0.0354
10663SOL    HW143968  13.069   5.285   1.782  1.6633 -1.6699 -0.3347
10663SOL    HW243969  13.132   5.216   1.901  0.0577  1.2991  2.3649
10664SOL     OW43970  12.227   4.573   6.145 -0.0061  0.1058 -0.1410
10664SOL    HW143971  12.175   4.522   6.084  0.0376  1.1948 -1.1175
10664SOL    HW243972  12.318   4.555   6.120  0.0230  0.2261 -0.1240
10665SOL     OW43973  12.451  12.185  13.840 -0.5032 -0.0457 -0.4969
10665SOL    HW143974  12.366  12.153  13.870 -0.5122 -0.0947 -0.5741
10665SOL    HW243975  12.435  12.276  13.816 -0.1941  0.4085  0.9348
10666SOL     OW43976   3.593   0.439   6.299 -0.1081  0.0933 -0.6800
10666SOL    HW143977   3.654   0.450   6.372  0.2251  0.8883 -1.0692
10666SOL    HW243978   3.550   0.355   6.316  1.7749 -0.9525 -0.9082
10667SOL     OW43979   5.181   3.859  10.669 -0.0270 -0.2058  0.2172
10667SOL    HW143980   5.180   3.953  10.656 -0.2340 -0.0488  1.2770
10667SOL    HW243981   5.270   3.840  10.701 -0.0573 -0.3293  0.2321
10668SOL     OW43982  11.457  13.951   7.428  0.0765  0.2285 -0.1118
10668SOL    HW143983  11.539  13.999   7.419  0.5924 -0.0420  2.3279
10668SOL    HW243984  11.389  14.019   7.429  0.5281  0.6791  0.3979
10669SOL     OW43985  12.335   9.779  10.968 -0.1015 -0.8263  0.5538
10669SOL    HW143986  12.241   9.782  10.989 -0.2460 -1.9314  0.1050
10669SOL    HW243987  12.360   9.871  10.957 -0.9256 -0.4601  1.5543
10670SOL     OW43988   7.888   1.967  13.873 -0.1878  0.7361 -0.0409
10670SOL    HW143989   7.887   1.872  13.883  1.5765  0.8319  1.6163
10670SOL    HW243990   7.896   1.981  13.778  0.5509 -0.7932 -0.2249
10671SOL     OW43991  13.017  11.538   7.610  0.1539  0.1957  0.0259
10671SOL    HW143992  12.961  11.610   7.642 -1.4748 -0.8530 -0.3246
10671SOL    HW243993  13.037  11.487   7.688  1.7368  1.2434  0.3617
10672SOL     OW43994   6.588  11.642   0.183  0.1798 -0.3216  0.1568
10672SOL    HW143995   6.520  11.687   0.134 -1.2600 -2.2727  0.2119
10672SOL    HW243996   6.638  11.711   0.225 -2.0117  1.2066  0.4210
10673SOL     OW43997   2.396   9.526   4.455 -0.5556  0.4812 -0.2417
10673SOL    HW143998   2.315   9.495   4.414  0.2194 -0.6701 -0.9675
10673SOL    HW243999   2.456   9.539   4.382  1.0020 -2.0030  0.4487
10674SOL     OW44000   1.457   1.803   5.178  0.2787 -0.3410  0.8603
10674SOL    HW144001   1.548   1.826   5.159 -0.1423  1.4216  0.8104
10674SOL    HW244002   1.405   1.867   5.128 -1.0673 -2.5631 -0.7658
10675SOL     OW44003  10.150   1.979   9.962  0.1943 -0.1276  0.1161
10675SOL    HW144004  10.116   2.031  10.036 -0.3113 -0.6506  0.2673
10675SOL    HW244005  10.086   1.909   9.952  1.8390 -1.8675  1.1832
10676SOL     OW44006  12.199   4.637   6.699 -0.0175 -0.2020 -0.0882
10676SOL    HW144007  12.255   4.629   6.776  0.1888 -1.3861 -0.3416
10676SOL    HW244008  12.239   4.579   6.634 -0.5070  0.3507 -0.8942
10677SOL     OW44009  10.636   2.559   6.484  0.1747 -0.1308 -0.6592
10677SOL    HW144010  10.584   2.630   6.520  1.8998  1.0606 -0.3541
10677SOL    HW244011  10.651   2.584   6.393  1.0730  0.0987 -0.4601
10678SOL     OW44012   1.149   5.114   7.670 -0.0434  0.1344  0.0426
10678SOL    HW144013   1.128   5.049   7.603  1.3519  0.8322 -1.1163
10678SOL    HW244014   1.101   5.192   7.642 -0.8019 -0.0365  0.8112
10679SOL     OW44015   0.210   5.013  13.632 -0.1651 -0.5034  0.1300
10679SOL    HW144016   0.167   5.098  13.635 -0.9513 -0.8986  0.4096
10679SOL    HW244017   0.294   5.030  13.589 -0.7230  0.2359 -0.7079
10680SOL     OW44018  13.538  10.935  11.771 -0.5871  0.0239 -0.1333
10680SOL    HW144019  13.566  10.990  11.697  0.3940  0.0156  0.2255
10680SOL    HW244020  13.445  10.920  11.755  0.1893 -2.6241 -3.1065
10681SOL     OW44021   0.163   8.172   1.627  0.1926  0.0620  0.0015
10681SOL    HW144022   0.196   8.180   1.538  1.3773  0.1901  0.4276
10681SOL    HW244023   0.078   8.130   1.618  1.0009 -1.4271 -1.0773
10682SOL     OW44024  12.661   2.027   9.379 -0.5790 -0.0987  0.3356
10682SOL    HW144025  12.681   2.111   9.337 -2.8240 -0.0814 -0.8764
10682SOL    HW244026  12.572   2.037   9.412 -0.4408 -1.6126  1.2863
10683SOL     OW44027   2.337  12.257   8.876 -0.1590 -0.2476  0.1762
10683SOL    HW144028   2.284  12.222   8.805 -0.4347  0.6697 -0.0815
10683SOL    HW244029   2.348  12.183   8.936  0.2576 -1.1028 -0.9121
10684SOL     OW44030  10.383  10.666   1.515  0.5141 -0.2506 -0.4420
10684SOL    HW144031  10.370  10.691   1.606 -0.2061  1.0559 -0.8628
10684SOL    HW244032  10.473  10.635   1.511  0.6791  0.0372  0.6395
10685SOL     OW44033   3.119   2.442   4.485 -0.5934  0.0301  0.2843
10685SOL    HW144034   3.164   2.431   4.569  0.0543 -2.6021 -0.3017
10685SOL    HW244035   3.189   2.449   4.421 -1.0171 -0.7008 -0.2853
10686SOL     OW44036  12.965  10.513   7.244  0.1357 -0.1751  0.6061
10686SOL    HW144037  12.984  10.426   7.279 -1.1601 -0.2744  1.1240
10686SOL    HW244038  12.929  10.497   7.157  2.4246  0.0200 -0.4483
10687SOL     OW44039   3.531   7.806  12.099 -0.5917  0.4309  0.7169
10687SOL    HW144040   3.466   7.739  12.077  0.4679 -0.2663 -0.3698
10687SOL    HW244041   3.583   7.768  12.170  1.2567 -0.7748 -1.1862
10688SOL     OW44042   1.244   8.845   5.950  0.5103 -0.4238 -0.2477
10688SOL    HW144043   1.188   8.908   5.906 -0.8295  0.6265  2.6757
10688SOL    HW244044   1.189   8.768   5.962 -0.4605  0.5559  2.4907
10689SOL     OW44045   3.041   9.667   9.372  0.2815  0.3995 -0.1027
10689SOL    HW144046   3.132   9.697   9.362  1.2724 -1.9704  0.9230
10689SOL    HW244047   3.002   9.729   9.433  0.1275  3.3589 -2.9493
10690SOL     OW44048   8.486   6.836   3.285 -0.6087  0.2971  0.1241
10690SOL    HW144049   8.541   6.876   3.218 -0.3278  1.1914  0.8618
10690SOL    HW244050   8.485   6.743   3.264  0.9085  0.3145 -0.1024
10691SOL     OW44051   1.179  11.665  12.996  0.4639 -0.2541  0.3438
10691SOL    HW144052   1.233  11.726  13.046 -2.1340  0.7361  2.1242
10691SOL    HW244053   1.228  11.651  12.915  1.1942  4.3646 -0.2848
10692SOL     OW44054  11.554  13.010   8.510  0.1303 -0.1090 -0.1714
10692SOL    HW144055  11.597  13.029   8.593 -1.3061 -1.5226  0.9539
10692SOL    HW244056  11.540  13.096   8.470  1.1851  0.5641  0.8650
10693SOL     OW44057   2.243  13.927   6.321  0.1884 -0.2303  0.1194
10693SOL    HW144058   2.253  13.847   6.270  1.0440  1.1230 -1.9225
10693SOL    HW244059   2.153  13.921   6.355  0.0814 -1.8314 -0.3326
10694SOL     OW44060   1.162  10.844   9.390 -0.4756  0.5725  0.9498
10694SOL    HW144061   1.097  10.893   9.440 -0.2146  1.6230  0.2912
10694SOL    HW244062   1.236  10.835   9.449 -1.2799 -0.8423  1.7919
10695SOL     OW44063   5.784   9.859   6.667 -0.3661  0.2573  0.4350
10695SOL    HW144064   5.716   9.924   6.683  0.4107  1.2487 -0.1923
10695SOL    HW244065   5.791   9.812   6.750 -0.7973  1.1112  0.9753
10696SOL     OW44066   1.340   3.899   7.815  0.3539 -0.2490  0.1695
10696SOL    HW144067   1.328   3.993   7.822 -0.3799  0.0074 -3.0647
10696SOL    HW244068   1.435   3.887   7.807  0.3268  0.6717 -2.7651
10697SOL     OW44069  12.885   6.462   3.705 -0.2094  0.4786 -0.2640
10697SOL    HW144070  12.850   6.506   3.628 -1.1737 -0.0439 -0.1364
10697SOL    HW244071  12.895   6.370   3.680  0.9447  0.5757 -0.2429
10698SOL     OW44072  12.525   9.230  10.818  0.5020 -0.0167 -0.0613
10698SOL    HW144073  12.597   9.196  10.871  1.0158  0.5056 -0.4058
10698SOL    HW244074  12.530   9.180  10.736  0.5016  0.0553 -0.1048
10699SOL     OW44075   0.183   2.856  13.172  0.2084 -0.3971 -0.0637
10699SOL    HW144076   0.278   2.848  13.176  0.4663  1.6155 -1.1090
10699SOL    HW244077   0.157   2.794  13.103  0.6074 -1.6744  0.8893
10700SOL     OW44078   0.376   7.237  12.047 -0.3052  0.5928 -0.6475
10700SOL    HW144079   0.379   7.198  12.135  0.9612  1.6629 -0.1912
10700SOL    HW244080   0.316   7.311  12.056 -0.6337  0.3468 -0.8299
10701SOL     OW44081  12.695   1.258  10.467 -0.1239 -0.3017 -0.1391
10701SOL    HW144082  12.632   1.247  10.538 -0.5747  0.3129 -0.4469
10701SOL    HW244083  12.735   1.343  10.483 -0.5327  0.0327 -0.8627
10702SOL     OW44084   0.700   7.479  11.070 -0.0601 -0.4903  0.4783
10702SOL    HW144085   0.674   7.389  11.091  0.1227 -1.0300 -1.3619
10702SOL    HW244086   0.755   7.506  11.143 -1.4178 -1.2807  1.8307
10703SOL     OW44087   9.360  12.278  11.897 -0.9148  0.6915  0.6443
10703SOL    HW144088   9.377  12.188  11.923 -2.4867  0.2855  0.4072
10703SOL    HW244089   9.419  12.331  11.950  1.9461 -0.5778 -1.0562
10704SOL     OW44090  12.885   3.717  12.417 -0.4972 -0.0668 -0.3308
10704SOL    HW144091  12.966   3.708  12.467  1.0463  1.0541 -2.4352
10704SOL    HW244092  12.815   3.718  12.482  1.1093 -1.7982  1.5131
10705SOL     OW44093   5.321   0.126   6.008 -0.0188 -0.1483  0.6365
10705SOL    HW144094   5.267   0.204   5.996 -2.4169 -1.4059  2.2471
10705SOL    HW244095   5.343   0.126   6.101  0.6879 -0.9371  0.4794
10706SOL     OW44096   6.302  12.509  11.005 -0.0927 -0.1660  0.0024
10706SOL    HW144097   6.392  12.483  11.025  1.1090  2.6275 -1.1441
10706SOL    HW244098   6.290  12.485  10.913  0.0736  0.8369 -0.2929
10707SOL     OW44099   6.039   5.568   9.533 -0.0030 -0.2043 -0.0423
10707SOL    HW144100   6.028   5.649   9.483  1.5108  0.5439  0.7725
10707SOL    HW244101   5.992   5.585   9.615 -0.9026 -0.7253 -0.4326
10708SOL     OW44102   5.143   7.450   2.179  0.6332  0.9057  0.3577
10708SOL    HW144103   5.187   7.449   2.265  0.3029  1.5925  0.5454
10708SOL    HW244104   5.061   7.498   2.195  0.5546  1.0065 -0.3334
10709SOL     OW44105  10.369   7.133   8.912 -0.4270  0.0613  0.1843
10709SOL    HW144106  10.429   7.059   8.917 -1.4284 -0.6949  1.3428
10709SOL    HW244107  10.334   7.129   8.823  0.3085 -0.2206 -0.1010
10710SOL     OW44108  12.638   9.002   6.790 -0.5993  0.0886  0.0149
10710SOL    HW144109  12.599   8.971   6.708  1.2150 -0.0157 -0.8553
10710SOL    HW244110  12.580   9.072   6.819 -1.2806  0.1366 -1.3561
10711SOL     OW44111   6.115   9.228   2.123 -0.1688 -0.4563 -0.3840
10711SOL    HW144112   6.096   9.140   2.154 -1.3626 -0.8453 -2.0871
10711SOL    HW244113   6.185   9.217   2.058 -1.3493 -0.3881 -1.7107
10712SOL     OW44114   8.996   2.432   5.071 -0.1289  0.3898  0.4026
10712SOL    HW144115   9.012   2.526   5.075  0.3254  0.2695  1.9394
10712SOL    HW244116   9.080   2.392   5.093 -0.7670 -0.3358  1.6303
10713SOL     OW44117   7.146   9.086   1.354  0.2742 -0.0635 -0.2670
10713SOL    HW144118   7.230   9.082   1.308  0.3535  0.5902 -0.1976
10713SOL    HW244119   7.132   8.998   1.388  0.8993 -0.1966 -0.3452
10714SOL     OW44120  12.385   1.087   2.840  0.1156 -0.4226 -0.1947
10714SOL    HW144121  12.477   1.114   2.846 -0.1114  1.3771 -2.8676
10714SOL    HW244122  12.377   1.049   2.752 -1.8240  0.2688 -0.3654
10715SOL     OW44123  10.363  10.756   5.780 -0.1723  0.2807 -0.2451
10715SOL    HW144124  10.450  10.758   5.820 -0.5026 -0.4320  0.5626
10715SOL    HW244125  10.366  10.681   5.720  0.2241  1.1598 -1.3412
10716SOL     OW44126  10.126   3.089  13.174  0.7675  0.1673 -0.2708
10716SOL    HW144127  10.098   3.179  13.190  1.3609  0.4738 -0.8695
10716SOL    HW244128  10.210   3.081  13.219 -0.4295 -0.8857  1.9055
10717SOL     OW44129   1.387   6.826  12.891 -0.6335 -0.3121  0.4011
10717SOL    HW144130   1.481   6.844  12.884 -0.3487 -1.2759  1.4095
10717SOL    HW244131   1.365   6.850  12.980 -1.4124  0.1248  0.0975
10718SOL     OW44132   1.588   6.720   9.981 -0.4495  0.4096 -0.4379
10718SOL    HW144133   1.628   6.646   9.936  0.5064 -0.1437  1.2371
10718SOL    HW244134   1.495   6.696   9.988  0.0087 -1.1256  0.9355
10719SOL     OW44135   7.256   5.017   2.155  1.0638 -0.0323 -0.0662
10719SOL    HW144136   7.185   5.001   2.093 -0.1846  0.1063  1.2695
10719SOL    HW244137   7.329   4.965   2.123  0.3059 -0.2991 -1.3944
10720SOL     OW44138  10.162  11.314   8.259 -0.3825  0.4305  0.7161
10720SOL    HW144139  10.170  11.282   8.349 -0.5250 -1.5587  0.0793
10720SOL    HW244140  10.233  11.378   8.250  0.2669 -0.0754  1.9490
10721SOL     OW44141   7.334   1.183   4.200 -0.4251  0.0736  0.0353
10721SOL    HW144142   7.404   1.193   4.265  0.0954 -0.1227 -0.4770
10721SOL    HW244143   7.257   1.160   4.251 -0.3979  1.4209  0.7289
10722SOL     OW44144   4.379   3.188   2.506  0.2195 -0.7120  0.8878
10722SOL    HW144145   4.424   3.152   2.430  0.4944 -1.2722  1.3075
10722SOL    HW244146   4.309   3.126   2.525 -0.8679  0.2441  0.1348
10723SOL     OW44147  12.136  10.298  12.304 -0.5959  0.2680  0.1523
10723SOL    HW144148  12.055  10.347  12.289 -0.2893  0.5300 -0.7114
10723SOL    HW244149  12.115  10.240  12.377 -2.0358 -0.7035 -0.9425
10724SOL     OW44150   4.155   4.938   4.330  0.4092 -0.1247 -0.0089
10724SOL    HW144151   4.138   4.844   4.342 -0.3636  0.1988  1.6710
10724SOL    HW244152   4.074   4.973   4.294  0.7991 -0.1092 -0.9312
10725SOL     OW44153   4.694  13.156   6.842  0.6927  0.0986 -0.2143
10725SOL    HW144154   4.629  13.121   6.782  2.6990 -2.9574 -0.8717
10725SOL    HW244155   4.645  13.213   6.901 -2.1563 -0.4522 -1.8789
10726SOL     OW44156   2.328  14.031   0.781  0.3336 -0.4528  0.2811
10726SOL    HW144157   2.257  14.085   0.746 -0.9360 -0.4586  2.6732
10726SOL    HW244158   2.286  13.950   0.808  1.3049 -0.6105  1.4133
10727SOL     OW44159   8.172   4.295   7.445  0.3958  0.0970  0.2765
10727SOL    HW144160   8.097   4.283   7.387 -0.2691 -0.8646  1.2946
10727SOL    HW244161   8.248   4.275   7.390 -0.0715  1.0378 -0.7562
10728SOL     OW44162   2.869   6.848   2.264  0.2454 -0.5757  0.2971
10728SOL    HW144163   2.920   6.929   2.270 -1.0271  0.2615  0.3366
10728SOL    HW244164   2.918   6.793   2.202  2.1646 -0.6070  1.7688
10729SOL     OW44165   5.434   7.455   1.795  0.6468  0.0047  0.7513
10729SOL    HW144166   5.377   7.386   1.830  0.3963 -0.2087 -0.0503
10729SOL    HW244167   5.438   7.521   1.864 -0.4709 -0.0415  0.8819
10730SOL     OW44168   7.052   2.767   8.746  0.1704 -0.6102  0.4440
10730SOL    HW144169   7.114   2.837   8.768  0.2252 -1.3248  2.8023
10730SOL    HW244170   7.106   2.689   8.738 -0.1503 -0.7865 -0.0369
10731SOL     OW44171   6.924  12.630  13.438 -0.0879  0.6414 -0.2341
10731SOL    HW144172   6.966  12.554  13.478  0.1745  0.8174 -0.1676
10731SOL    HW244173   6.932  12.615  13.344 -0.3124  0.4380 -0.2199
10732SOL     OW44174  11.620   1.455   9.756  0.6653 -0.5842  0.0125
10732SOL    HW144175  11.597   1.534   9.707 -2.9257 -1.8158 -0.5856
10732SOL    HW244176  11.714   1.461   9.769  1.1559  1.8496 -3.4426
10733SOL     OW44177   4.641  13.079  12.880 -0.3462 -0.2285  0.0951
10733SOL    HW144178   4.710  13.035  12.929  0.0443  1.6510  1.3463
10733SOL    HW244179   4.658  13.055  12.789  2.8939  1.2383  0.1707
10734SOL     OW44180   9.315   0.757   4.344 -0.1636 -0.5003  0.0489
10734SOL    HW144181   9.267   0.801   4.415 -2.3052  0.1203 -1.6869
10734SOL    HW244182   9.256   0.689   4.314  0.5194 -0.4871 -1.4065
10735SOL     OW44183   2.400  11.963   0.424  0.3804 -0.0339 -0.1257
10735SOL    HW144184   2.418  11.963   0.518 -0.3214 -1.0597  0.0247
10735SOL    HW244185   2.324  11.906   0.414 -0.1501  0.8344 -1.2122
10736SOL     OW44186   2.069  10.389   8.314 -0.3769 -0.0848 -0.1123
10736SOL    HW144187   2.062  10.483   8.324 -0.3791  0.0494 -1.2988
10736SOL    HW244188   2.057  10.373   8.221 -2.3607 -1.4496  0.3142
10737SOL     OW44189  13.077  13.367   0.354 -0.0277 -0.2241  0.3458
10737SOL    HW144190  12.987  13.346   0.333  0.0081 -1.6429  1.4405
10737SOL    HW244191  13.102  13.435   0.291 -1.4866 -0.6149 -0.6894
10738SOL     OW44192  11.561  12.705   3.991  0.4671 -0.5383 -0.1008
10738SOL    HW144193  11.507  12.772   3.948 -1.5717 -1.7841  0.3796
10738SOL    HW244194  11.632  12.688   3.928  0.3834  1.1847 -0.7400
10739SOL     OW44195   0.594   0.283   0.061  0.7572  0.3953  0.3256
10739SOL    HW144196   0.586   0.379   0.063  1.9717  0.5018  1.7878
10739SOL    HW244197   0.686   0.268   0.038  0.5993 -0.4421  0.2039
10740SOL     OW44198   1.847   0.593   9.171  0.3061  0.1605  0.1468
10740SOL    HW144199   1.841   0.507   9.211 -3.3796  0.6983  1.0337
10740SOL    HW244200   1.840   0.576   9.077  0.9137 -0.5461  0.2165
10741SOL     OW44201   5.040   5.080   2.355  0.0397  0.4706 -0.0096
10741SOL    HW144202   5.066   5.119   2.439 -0.8360  1.9958 -0.4114
10741SOL    HW244203   5.120   5.079   2.303  0.5185 -0.1707  0.7059
10742SOL     OW44204   7.212   3.048  11.286  0.2523 -0.0641 -0.2817
10742SOL    HW144205   7.296   3.012  11.257  0.0245  0.0293 -1.1003
10742SOL    HW244206   7.228   3.141  11.299  0.6304 -0.2920  1.0032
10743SOL     OW44207   2.734   6.648   8.961 -0.4025  0.1456  0.3351
10743SOL    HW144208   2.739   6.559   8.994 -1.1304 -0.1404 -0.3063
10743SOL    HW244209   2.648   6.654   8.919  0.2478  0.6731 -0.9832
10744SOL     OW44210   0.385   4.708   6.045 -0.2284  0.1662  0.2534
10744SOL    HW144211   0.430   4.776   5.996  0.5266 -1.5633 -1.6250
10744SOL    HW244212   0.328   4.665   5.980  0.6213 -2.0638  0.8900
10745SOL     OW44213   2.999   1.177   6.558 -0.4806  0.3916  0.1416
10745SOL    HW144214   3.045   1.166   6.641  1.6435  1.1302 -0.8582
10745SOL    HW244215   3.025   1.101   6.506 -1.0769  0.3949 -0.1725
10746SOL     OW44216  12.289  11.151   3.150 -0.4704  0.6756 -0.2835
10746SOL    HW144217  12.374  11.116   3.176 -1.5417 -2.4465 -0.5693
10746SOL    HW244218  12.280  11.232   3.200  1.2801 -0.5905  2.3157
10747SOL     OW44219   9.327   0.572   1.932 -0.2940  0.0920  0.2962
10747SOL    HW144220   9.379   0.498   1.962  1.9368  0.9803 -1.0987
10747SOL    HW244221   9.261   0.534   1.875  1.2811 -0.8314 -1.0017
10748SOL     OW44222   5.909   1.024   0.408 -0.0723  0.3224  0.8792
10748SOL    HW144223   5.957   0.954   0.451  3.0774  2.9037  1.9672
10748SOL    HW244224   5.865   1.070   0.479 -1.9046 -0.2951  0.2038
10749SOL     OW44225  10.292   9.346   2.831  0.3788 -0.1915 -0.6037
10749SOL    HW144226  10.211   9.394   2.851  0.4551 -0.3011 -0.0233
10749SOL    HW244227  10.315   9.374   2.743  0.8709  1.4704  0.0172
10750SOL     OW44228   0.458   5.692   1.909  0.2017  0.0662 -0.5294
10750SOL    HW144229   0.516   5.767   1.923  2.2152 -1.2638 -1.2530
10750SOL    HW244230   0.481   5.658   1.823 -2.2805 -0.0704 -1.2285
10751SOL     OW44231  11.238   9.505   5.260  0.1840  0.5542  0.1722
10751SOL    HW144232  11.222   9.553   5.341 -2.0682 -2.3253  1.6440
10751SOL    HW244233  11.171   9.536   5.200 -0.0976  0.5507  0.4817
10752SOL     OW44234   4.433  11.078   9.746  0.0612 -0.1489  0.2610
10752SOL    HW144235   4.492  11.096   9.673 -0.5103  0.6228 -0.0241
10752SOL    HW244236   4.367  11.020   9.709 -1.5433  2.0317 -0.5284
10753SOL     OW44237   3.164   2.075  11.562 -0.0960 -0.1687 -0.1797
10753SOL    HW144238   3.189   2.161  11.528 -1.1324 -0.3525 -1.4509
10753SOL    HW244239   3.220   2.013  11.516  0.0296 -0.2517  0.0805
10754SOL     OW44240  11.035  11.848   9.302 -0.0806  0.2227 -0.2871
10754SOL    HW144241  11.123  11.879   9.282  0.0975 -0.6646 -0.9382
10754SOL    HW244242  11.038  11.754   9.286 -1.6757  0.4322 -2.3356
10755SOL     OW44243  10.598  11.822   5.923 -0.1303 -0.2982  0.2141
10755SOL    HW144244  10.657  11.789   5.854  1.2044  0.6055  0.8711
10755SOL    HW244245  10.628  11.777   6.003  0.8613  1.4371  0.8775
10756SOL     OW44246   0.361   6.159   0.501 -0.2180 -0.4943 -0.2571
10756SOL    HW144247   0.279   6.162   0.453  0.1276 -2.4317 -1.0749
10756SOL    HW244248   0.336   6.169   0.593 -1.2419 -0.0538 -0.5714
10757SOL     OW44249  11.939   9.397   0.581 -0.3798 -0.6476 -0.0863
10757SOL    HW144250  11.890   9.357   0.509  1.2517  0.6656 -2.0572
10757SOL    HW244251  11.885   9.471   0.608 -0.3815 -0.2948 -0.9969
10758SOL     OW44252   3.690   9.508   6.488 -0.6308  0.2371 -0.3839
10758SOL    HW144253   3.673   9.438   6.425 -0.9505 -1.2891  1.3201
10758SOL    HW244254   3.782   9.530   6.476  0.5556 -3.0720  1.4015
10759SOL     OW44255  11.069   2.095   6.280 -0.2845 -0.7732  0.1939
10759SOL    HW144256  11.077   2.003   6.308 -1.1212 -0.5628  1.1881
10759SOL    HW244257  10.976   2.105   6.259 -0.3788  0.0668  0.9411
10760SOL     OW44258  12.872   0.395   3.570 -0.9156 -0.5081 -0.1223
10760SOL    HW144259  12.789   0.430   3.538 -0.6154  0.8703  0.5316
10760SOL    HW244260  12.867   0.301   3.553 -1.4656 -0.1060 -2.6565
10761SOL     OW44261   5.085   7.602  13.835  0.2636  0.0877  0.0937
10761SOL    HW144262   5.111   7.693  13.816  1.0749 -0.0215  0.6218
10761SOL    HW244263   5.163   7.551  13.814  0.1714 -0.3652  0.8202
10762SOL     OW44264  13.528   1.913   1.977  0.6860 -0.3756  0.2230
10762SOL    HW144265  13.462   1.847   2.000 -0.1370  0.5851  0.6881
10762SOL    HW244266  13.481   1.974   1.919  0.6470  1.2435  1.8766
10763SOL     OW44267  13.053   7.382   7.033  0.1296  0.1449  0.2574
10763SOL    HW144268  12.992   7.375   6.959 -0.0286  0.9059  0.3149
10763SOL    HW244269  13.046   7.472   7.062  1.9196  0.4951 -0.2821
10764SOL     OW44270   9.312   1.058   6.704  0.1822 -0.5251  0.6782
10764SOL    HW144271   9.350   0.981   6.662 -1.2793 -0.9684  0.0871
10764SOL    HW244272   9.301   1.033   6.795 -0.4756 -1.1220  0.4491
10765SOL     OW44273   9.763   9.895   2.546 -0.0804 -0.3944 -0.0587
10765SOL    HW144274   9.811   9.978   2.540  1.5465 -1.0803  2.2747
10765SOL    HW244275   9.813   9.835   2.490  0.3204 -0.4726  0.3800
10766SOL     OW44276   4.405   1.243  13.262 -0.1951  0.0981  0.1776
10766SOL    HW144277   4.497   1.270  13.258  0.5026 -2.2014 -0.8099
10766SOL    HW244278   4.389   1.199  13.178 -2.4992  1.2197 -0.0584
10767SOL     OW44279  13.914  12.828   4.519  0.1726 -0.1125  0.6857
10767SOL    HW144280  13.984  12.834   4.584 -0.3244  0.3897  1.1982
10767SOL    HW244281  13.916  12.912   4.474  1.0661 -0.7752 -0.5549
10768SOL     OW44282   2.599   0.835   5.613 -0.3022  0.2688 -0.0635
10768SOL    HW144283   2.665   0.827   5.545 -1.6465 -0.0358 -1.3917
10768SOL    HW244284   2.647   0.826   5.695  1.3852  0.8026 -0.9567
10769SOL     OW44285   6.245   7.853  12.858 -0.8035 -0.4293 -0.1128
10769SOL    HW144286   6.192   7.858  12.938 -0.5845 -1.2983  0.0947
10769SOL    HW244287   6.225   7.934  12.811 -0.5087  0.3652  1.0816
10770SOL     OW44288   1.633   7.725   1.412  0.3479  0.3663 -0.7194
10770SOL    HW144289   1.665   7.815   1.410 -1.0476  0.8923 -0.3618
10770SOL    HW244290   1.551   7.728   1.363  0.1507 -0.6558 -0.4655
10771SOL     OW44291   2.631   5.998   9.601  0.0789  0.2827 -0.7742
10771SOL    HW144292   2.675   6.012   9.518  0.7209  0.6539 -0.3807
10771SOL    HW244293   2.667   6.066   9.659 -1.0083  0.6002 -0.4401
10772SOL     OW44294  13.302   9.067  11.150 -0.5084 -0.4284 -0.2518
10772SOL    HW144295  13.392   9.040  11.132 -1.6416 -3.2024 -2.4377
10772SOL    HW244296  13.287   9.041  11.241  0.7480 -0.2415  0.0285
10773SOL     OW44297   2.336  10.786  12.850 -0.1136  0.3541  0.0349
10773SOL    HW144298   2.422  10.800  12.889 -0.3357 -0.9275  1.0575
10773SOL    HW244299   2.294  10.873  12.853  1.4799  1.2428 -1.4755
10774SOL     OW44300   0.912   6.055   3.962 -0.1473  0.7407  0.3669
10774SOL    HW144301   0.953   5.969   3.971 -1.5902 -0.0605 -0.3308
10774SOL    HW244302   0.956   6.094   3.886 -0.0452  0.2887  0.1894
10775SOL     OW44303   4.537   1.459   4.490  0.6861  0.0997 -0.6348
10775SOL    HW144304   4.601   1.500   4.433  1.8666  1.6261  1.6594
10775SOL    HW244305   4.588   1.428   4.566 -0.7683 -2.0799 -0.4347
10776SOL     OW44306  11.500   7.653   4.915 -0.1441  0.4024  0.2815
10776SOL    HW144307  11.538   7.608   4.840 -1.4051 -0.9785  0.4194
10776SOL    HW244308  11.569   7.654   4.981  0.5172  0.3659 -0.4015
10777SOL     OW44309   8.185  12.773  12.507 -0.6922  0.8088 -0.1705
10777SOL    HW144310   8.198  12.866  12.488  1.1803  0.5645 -0.2901
10777SOL    HW244311   8.183  12.731  12.422 -0.7235  0.6452 -0.0894
10778SOL     OW44312   0.562   0.360  10.297  0.1732  0.0546 -0.4717
10778SOL    HW144313   0.566   0.318  10.383 -0.2699  3.1665  1.2030
10778SOL    HW244314   0.477   0.404  10.295  0.3823  0.4908 -2.3254
10779SOL     OW44315   5.682   1.286   6.671 -0.3895 -0.1688 -0.0412
10779SOL    HW144316   5.665   1.289   6.577 -2.2068  0.3791  0.2592
10779SOL    HW244317   5.653   1.371   6.704 -0.9435 -0.8006  1.1675
10780SOL     OW44318   3.648   9.810  11.276 -0.5167  0.5121 -0.2521
10780SOL    HW144319   3.723   9.801  11.217  0.3534  1.3238  0.6941
10780SOL    HW244320   3.681   9.784  11.362 -0.7972  2.5502  0.5209
10781SOL     OW44321   6.901   6.800   3.943 -0.1537  0.0866 -0.4310
10781SOL    HW144322   6.858   6.805   4.028  1.9312  2.0372  0.6009
10781SOL    HW244323   6.994   6.806   3.962  0.3978  0.3382 -2.8466
10782SOL     OW44324   9.620   9.525   5.172  0.6358 -0.3348  0.0331
10782SOL    HW144325   9.555   9.587   5.139  0.9956  0.6600  1.1507
10782SOL    HW244326   9.628   9.545   5.265  0.5754 -2.2429  0.4884
10783SOL     OW44327  11.291  10.498   1.959  0.7533 -0.1197 -0.6442
10783SOL    HW144328  11.363  10.465   2.013  0.1871 -0.3596 -0.0141
10783SOL    HW244329  11.249  10.419   1.924  0.8240  0.0180 -1.0388
10784SOL     OW44330  12.813   9.699  11.896  0.1993  0.3065 -0.1080
10784SOL    HW144331  12.788   9.721  11.806 -0.3606 -1.3970 -0.3983
10784SOL    HW244332  12.742   9.734  11.950 -0.5753 -0.5718 -0.5362
10785SOL     OW44333   9.113   5.419   2.717  0.2059 -1.4168  0.5268
10785SOL    HW144334   9.069   5.334   2.708 -0.8335 -0.8215 -0.2782
10785SOL    HW244335   9.092   5.448   2.805 -0.4118 -1.4805  0.4064
10786SOL     OW44336   7.698  13.779   6.611 -0.1793  0.1158 -0.0968
10786SOL    HW144337   7.649  13.715   6.664 -0.9206  1.2263  0.5831
10786SOL    HW244338   7.757  13.822   6.673 -0.3941  0.7882 -0.3517
10787SOL     OW44339   6.012  12.013   2.662 -0.3850 -0.0334  0.0642
10787SOL    HW144340   6.088  12.030   2.605 -0.0708 -1.0527  0.1401
10787SOL    HW244341   5.943  11.987   2.601  0.0099 -1.3221  0.1254
10788SOL     OW44342   4.304   0.900   7.553  0.0058 -0.1163 -0.2953
10788SOL    HW144343   4.377   0.860   7.506  0.5829  0.4775  0.0910
10788SOL    HW244344   4.254   0.826   7.587 -0.1386 -0.5480 -1.4033
10789SOL     OW44345  13.431   7.294   7.410  0.2950  0.1286 -0.6328
10789SOL    HW144346  13.401   7.371   7.458  0.5216  0.3762 -0.8841
10789SOL    HW244347  13.416   7.316   7.318  2.3991  0.7703 -0.8606
10790SOL     OW44348   1.868   6.761   6.020  0.2751  0.5471 -0.0856
10790SOL    HW144349   1.957   6.796   6.010  1.1286 -1.6386 -0.6238
10790SOL    HW244350   1.878   6.684   6.076 -1.5182  0.9785  0.9345
10791SOL     OW44351   1.964   4.856   9.956 -0.3779  0.3292 -0.1810
10791SOL    HW144352   2.031   4.842  10.023 -0.6521 -1.1640 -0.1913
10791SOL    HW244353   1.894   4.795   9.978 -1.6403  1.6441 -0.3475
10792SOL     OW44354  10.388   5.546   8.808  0.3903  0.3174  0.1017
10792SOL    HW144355  10.425   5.596   8.735 -1.3854  0.4070 -0.8042
10792SOL    HW244356  10.462   5.526   8.864  2.0210 -0.5127 -2.1781
10793SOL     OW44357   2.708   7.928   0.704  0.3067  0.0849  0.0144
10793SOL    HW144358   2.703   7.852   0.763  1.5865 -0.9573 -1.1483
10793SOL    HW244359   2.671   7.897   0.622 -1.9431  1.6847  0.3367
10794SOL     OW44360   5.285  10.325   7.424 -0.3064  0.3552 -0.5084
10794SOL    HW144361   5.346  10.397   7.438  0.1272  0.0952 -1.0120
10794SOL    HW244362   5.341  10.247   7.425 -1.0505 -0.2824  2.6898
10795SOL     OW44363  12.212   6.984   1.304 -0.0255 -0.3542  0.2731
10795SOL    HW144364  12.195   6.957   1.394  1.6744 -0.0311  0.7331
10795SOL    HW244365  12.173   7.071   1.296  2.8058  1.1875  1.8660
10796SOL     OW44366  10.443   5.812   8.646  0.4803  0.0532  0.0115
10796SOL    HW144367  10.411   5.901   8.628 -0.3193 -0.5925 -2.0427
10796SOL    HW244368  10.445   5.770   8.560 -0.3464 -2.3162  1.0845
10797SOL     OW44369   6.696  13.666   8.821 -0.0521  0.0738  0.1174
10797SOL    HW144370   6.629  13.694   8.884  0.3752 -1.0509  1.0968
10797SOL    HW244371   6.770  13.724   8.839 -0.0584 -0.0053  0.4063
10798SOL     OW44372   7.601   3.918   5.879 -0.7075 -0.6566  0.1193
10798SOL    HW144373   7.529   3.931   5.940  0.0655  0.1800  0.8846
10798SOL    HW244374   7.677   3.956   5.924 -0.4838  1.9672 -2.2447
10799SOL     OW44375   0.885  10.338  10.346 -0.2449  0.2752  0.5271
10799SOL    HW144376   0.973  10.367  10.372  0.1688 -0.0280 -0.4744
10799SOL    HW244377   0.859  10.400  10.278 -0.3838 -0.2175  0.1237
10800SOL     OW44378   0.386  11.918   6.163 -0.1337 -0.3938  0.0042
10800SOL    HW144379   0.380  11.844   6.223 -0.9212 -0.3211  0.0291
10800SOL    HW244380   0.299  11.924   6.124 -0.5042  1.3164  0.9798
10801SOL     OW44381  12.910   9.719   8.806  0.3081  0.7991 -0.1507
10801SOL    HW144382  12.872   9.717   8.894  0.1518 -0.3928 -0.2196
10801SOL    HW244383  12.864   9.789   8.761 -1.9391 -0.6554 -0.2568
10802SOL     OW44384  13.535  13.268   7.851 -0.1734 -0.5711 -0.2798
10802SOL    HW144385  13.627  13.264   7.876 -0.8679 -1.4381  2.5447
10802SOL    HW244386  13.536  13.277   7.756  2.8173  1.8517 -0.1610
10803SOL     OW44387  12.069  13.981   0.457  0.0505  0.2217 -0.1116
10803SOL    HW144388  12.019  13.952   0.534  1.8953 -0.3672  0.9172
10803SOL    HW244389  12.007  13.974   0.385 -1.5149  0.0443  1.1860
10804SOL     OW44390   4.977  12.429   9.183 -0.5436  0.1975  0.2645
10804SOL    HW144391   5.006  12.509   9.138  2.9184 -0.5844  0.7576
10804SOL    HW244392   4.975  12.362   9.114 -1.5398  0.2788  0.2004
10805SOL     OW44393   1.667   3.173   6.675  0.1521  0.0383  0.6844
10805SOL    HW144394   1.689   3.130   6.592 -3.9396 -2.7472  0.7216
10805SOL    HW244395   1.700   3.114   6.742 -0.5835 -0.1401  0.8951
10806SOL     OW44396  12.222   4.001   2.731 -0.2819  0.3500 -0.2087
10806SOL    HW144397  12.251   4.038   2.648  0.5156 -0.5075 -0.3334
10806SOL    HW244398  12.249   3.909   2.727  1.4368  0.6972  1.7235
10807SOL     OW44399  12.904   9.996  11.926 -0.6703  0.1925 -0.1289
10807SOL    HW144400  12.985   9.946  11.924  0.2951  1.6704  0.0522
10807SOL    HW244401  12.837   9.932  11.949  0.2180 -1.3271 -1.5240
10808SOL     OW44402   1.004   5.802  12.331  0.1160  0.0141  0.1589
10808SOL    HW144403   1.051   5.875  12.291 -0.1318 -0.9441 -2.0674
10808SOL    HW244404   0.916   5.836  12.345  0.2653  0.4532  0.0533
10809SOL     OW44405   5.052  13.201  12.549  0.6128  0.4110 -0.2643
10809SOL    HW144406   5.045  13.109  12.574  1.3176  0.3618 -0.2445
10809SOL    HW244407   5.007  13.248  12.619  1.7226  0.1978  0.6206
10810SOL     OW44408   8.215   8.528   3.238  0.1117 -0.5786 -0.9780
10810SOL    HW144409   8.183   8.470   3.169 -1.4960 -1.6028  0.5623
10810SOL    HW244410   8.228   8.471   3.314 -1.0390  0.9707  0.4486
10811SOL     OW44411   8.424   3.181  12.418 -0.7287  0.6326 -0.1016
10811SOL    HW144412   8.450   3.089  12.413 -0.9910  0.5295  0.3756
10811SOL    HW244413   8.502   3.229  12.391 -0.2751  0.2961  0.5844
10812SOL     OW44414  11.256   0.511   9.372  0.0843 -0.3006  0.0584
10812SOL    HW144415  11.310   0.522   9.450 -0.5420 -0.0444  0.4680
10812SOL    HW244416  11.168   0.491   9.407  0.0406 -1.3452 -0.5878
10813SOL     OW44417  12.800  10.155   1.590  0.3220  0.2597 -0.2772
10813SOL    HW144418  12.841  10.188   1.509  0.1513 -1.5573 -1.1600
10813SOL    HW244419  12.791  10.060   1.575 -1.5939  0.1786  1.0583
10814SOL     OW44420   0.097  13.895   5.133 -0.4107  0.2868  0.0721
10814SOL    HW144421   0.083  13.964   5.198  0.8789  0.2971  0.3681
10814SOL    HW244422   0.137  13.940   5.059 -0.3479 -0.0074 -0.0744
10815SOL     OW44423   7.462  13.848   3.359 -0.2618 -0.2961  0.3611
10815SOL    HW144424   7.436  13.799   3.282 -0.7305 -1.7847  1.4095
10815SOL    HW244425   7.420  13.802   3.432  0.8034  0.5744  1.5800
10816SOL     OW44426  13.467   1.397   2.737 -0.6771 -0.3831  0.5836
10816SOL    HW144427  13.469   1.402   2.642  0.4420 -0.9378  0.5695
10816SOL    HW244428  13.383   1.354   2.757 -1.4342  0.7213 -0.0810
10817SOL     OW44429   8.765   8.530  13.378  0.0904  0.1960  0.0764
10817SOL    HW144430   8.780   8.504  13.469 -0.4024  0.4417  0.2282
10817SOL    HW244431   8.851   8.522  13.336  0.5283  1.0133  0.7939
10818SOL     OW44432   0.122   3.578   8.700 -0.1520  0.1635 -0.2339
10818SOL    HW144433   0.076   3.625   8.630  0.6077  2.3230  0.6196
10818SOL    HW244434   0.090   3.619   8.781  0.8581 -0.5242  0.5386
10819SOL     OW44435  14.013  11.218   0.463  0.2513  0.1718 -0.1360
10819SOL    HW144436  14.079  11.152   0.444  0.5490  0.9217 -1.8873
10819SOL    HW244437  13.930  11.170   0.461  0.5010 -0.2519 -0.9446
10820SOL     OW44438   3.323  11.826   9.738 -0.3009  0.1848 -0.4072
10820SOL    HW144439   3.281  11.834   9.824 -0.7629  1.2368 -0.7140
10820SOL    HW244440   3.353  11.915   9.718 -1.5444  0.2879 -2.0048
10821SOL     OW44441   5.661   7.284  10.819 -0.4708 -0.2228  0.3445
10821SOL    HW144442   5.619   7.221  10.761  1.3137  1.4137 -2.9539
10821SOL    HW244443   5.599   7.357  10.823 -0.3166 -0.0690 -0.0469
10822SOL     OW44444   5.140   1.089  13.703  0.6733 -0.0874  0.4790
10822SOL    HW144445   5.047   1.087  13.678  0.9245  0.6757 -0.5901
10822SOL    HW244446   5.149   1.017  13.766 -0.4520 -0.7609 -0.0789
10823SOL     OW44447   6.077   7.934  13.073 -0.5128  0.3959  0.7013
10823SOL    HW144448   6.017   7.874  13.029  1.0230 -0.4406 -0.3614
10823SOL    HW244449   6.062   7.919  13.166 -1.3840 -0.3817  0.4482
10824SOL     OW44450   6.656   0.503   8.884 -0.4455 -0.1114 -0.4806
10824SOL    HW144451   6.616   0.502   8.797 -0.4326  0.4870 -0.5002
10824SOL    HW244452   6.592   0.548   8.939  0.1755  0.8492 -0.5080
10825SOL     OW44453  12.494   6.453  13.564  0.1732  0.4495 -0.3502
10825SOL    HW144454  12.498   6.495  13.478  1.1046  0.7875 -0.1530
10825SOL    HW244455  12.409   6.408  13.565 -1.1003  2.7309 -0.3713
10826SOL     OW44456   5.603   9.414   3.368 -0.4414 -0.1167 -0.9784
10826SOL    HW144457   5.647   9.357   3.430  1.5462  0.4850 -1.7596
10826SOL    HW244458   5.619   9.503   3.400 -0.5365  0.1456 -1.6280
10827SOL     OW44459   9.678   6.344  11.139 -0.3989  0.2470 -0.2093
10827SOL    HW144460   9.610   6.292  11.181 -0.4591  0.5292  0.0406
10827SOL    HW244461   9.631   6.401  11.078 -0.3218 -0.0695 -0.5721
10828SOL     OW44462   3.425  10.772   4.555 -0.5024 -0.8226 -0.0951
10828SOL    HW144463   3.389  10.717   4.625 -0.1330 -1.3053 -0.2786
10828SOL    HW244464   3.353  10.832   4.532 -0.6295 -0.6652  0.6850
10829SOL     OW44465  11.420   2.063   0.370 -0.2444 -0.1844  0.0694
10829SOL    HW144466  11.396   1.980   0.329  0.0600 -0.4950  0.5140
10829SOL    HW244467  11.505   2.046   0.410  0.1771  0.5565 -0.4813
10830SOL     OW44468  10.515   3.784   5.540  0.0094 -0.0150  0.6767
10830SOL    HW144469  10.438   3.819   5.584 -1.5509 -0.2560 -1.6673
10830SOL    HW244470  10.559   3.861   5.503 -1.4017 -0.1135 -1.3731
10831SOL     OW44471  11.086   6.783   1.305  0.1578  0.3626 -0.3782
10831SOL    HW144472  11.096   6.756   1.396  1.9195  0.1670 -0.5912
10831SOL    HW244473  11.075   6.701   1.257  2.0557  0.1937 -0.6230
10832SOL     OW44474   2.381  12.918   1.202 -0.1276 -0.2806  0.1874
10832SOL    HW144475   2.349  12.858   1.269 -2.5522  0.4659 -0.2240
10832SOL    HW244476   2.377  12.867   1.121 -0.7276 -0.0559  0.0709
10833SOL     OW44477  11.493   3.457   5.002 -0.2888  0.2325 -0.3218
10833SOL    HW144478  11.442   3.377   5.011  1.5348 -0.8307  1.5604
10833SOL    HW244479  11.509   3.465   4.908 -0.7079 -1.4834 -0.5758
10834SOL     OW44480   3.911   9.842   0.679 -0.1029 -0.0733 -0.4854
10834SOL    HW144481   3.850   9.901   0.723  0.7186  0.4652 -0.0388
10834SOL    HW244482   3.992   9.892   0.672  0.3363 -0.8234 -0.9408
10835SOL     OW44483   5.576   3.336  13.906  0.0739  0.4240  0.6443
10835SOL    HW144484   5.524   3.270  13.860  0.9382  0.1314  0.0648
10835SOL    HW244485   5.621   3.383  13.836  0.4496  0.7906  1.1307
10836SOL     OW44486   7.627   3.120   4.932  0.8873 -0.1219  0.1807
10836SOL    HW144487   7.701   3.128   4.872  1.0353  0.2146  0.4091
10836SOL    HW244488   7.654   3.168   5.010  0.0414  0.8728 -0.1081
10837SOL     OW44489   2.385   2.321  12.109 -0.0522 -0.0632 -0.1810
10837SOL    HW144490   2.367   2.259  12.039 -1.4291  0.8803 -0.6968
10837SOL    HW244491   2.336   2.400  12.085  1.3858  1.1253  0.6193
10838SOL     OW44492   4.683   1.037   9.461  0.4355 -0.3055  0.3800
10838SOL    HW144493   4.670   0.969   9.528  1.2149 -1.4913 -0.6283
10838SOL    HW244494   4.744   1.098   9.502  2.4119 -1.9973  0.1573
10839SOL     OW44495  13.229   7.708   2.082 -0.0073  0.0758  0.1060
10839SOL    HW144496  13.167   7.646   2.119 -0.6527  1.0981  0.7708
10839SOL    HW244497  13.189   7.793   2.096  2.0619  0.8795  1.6542
10840SOL     OW44498   8.185   2.615  10.500  0.4626  0.6688  0.4155
10840SOL    HW144499   8.245   2.686  10.524 -0.2323  0.6829  2.2620
10840SOL    HW244500   8.228   2.535  10.533  1.0129  0.2530 -1.2239
10841SOL     OW44501  13.085  12.482   7.877 -0.0101  0.5413 -0.2168
10841SOL    HW144502  13.089  12.536   7.955 -0.1710 -0.9158  0.8465
10841SOL    HW244503  13.138  12.405   7.898 -1.8268 -0.9063 -0.6826
10842SOL     OW44504   4.440   6.928  11.588  0.5313  0.0015  0.3612
10842SOL    HW144505   4.432   6.993  11.518  0.2374 -0.7851 -0.3445
10842SOL    HW244506   4.526   6.944  11.625  1.3431 -0.5595 -1.1997
10843SOL     OW44507   8.824   0.452   8.154  0.6099  0.1240  0.1818
10843SOL    HW144508   8.788   0.394   8.221  0.2930 -0.2236 -0.2841
10843SOL    HW244509   8.778   0.535   8.167  1.4433  0.4541  1.1931
10844SOL     OW44510  12.049  11.780  12.475 -0.1535  0.3736  0.1552
10844SOL    HW144511  12.139  11.789  12.506  0.2251 -0.6773 -0.5705
10844SOL    HW244512  12.041  11.688  12.451 -0.6983  0.9184 -1.9313
10845SOL     OW44513   6.415   3.562  13.874  0.3658 -0.1223  0.2166
10845SOL    HW144514   6.481   3.627  13.900  1.4211  0.0896 -2.7030
10845SOL    HW244515   6.462   3.478  13.875  0.0869 -0.2810  0.1350
10846SOL     OW44516   9.420   1.312   4.501 -0.0372 -0.0972 -0.0386
10846SOL    HW144517   9.342   1.317   4.557  0.8690  1.2502  1.1717
10846SOL    HW244518   9.429   1.219   4.481 -0.2187 -0.7065  2.3809
10847SOL     OW44519   7.086   1.059   3.975 -0.4454  0.2008 -0.1214
10847SOL    HW144520   7.036   1.001   3.917 -0.2375 -2.5789  2.2546
10847SOL    HW244521   7.035   1.062   4.055  1.3154  0.4557  1.0361
10848SOL     OW44522  10.561   4.348   8.313 -0.1271  0.3827  0.9214
10848SOL    HW144523  10.603   4.338   8.398  0.0112  1.0582  0.9441
10848SOL    HW244524  10.552   4.443   8.302  0.6908  0.3586 -0.2071
10849SOL     OW44525   3.382  11.390   4.865 -0.6397 -0.0122  0.6840
10849SOL    HW144526   3.309  11.423   4.813  0.3194  1.7952  0.3676
10849SOL    HW244527   3.397  11.459   4.931  1.3299  0.1302  0.1535
10850SOL     OW44528   1.386   9.587  10.769 -0.4646  0.2133  0.1156
10850SOL    HW144529   1.437   9.667  10.783  0.0670 -0.2666  0.9838
10850SOL    HW244530   1.391   9.540  10.852 -2.1819  0.0588  0.1618
10851SOL     OW44531   0.950   4.765   9.978  0.2073 -0.3728 -0.2725
10851SOL    HW144532   0.882   4.806   9.925 -0.8581 -2.2571 -0.4471
10851SOL    HW244533   0.931   4.794  10.068 -0.5350 -0.5250 -0.3795
10852SOL     OW44534   6.089  12.257   4.619 -0.1086 -0.2232  0.4595
10852SOL    HW144535   6.173  12.291   4.648  0.1875 -1.4046  1.0518
10852SOL    HW244536   6.108  12.168   4.589 -1.2240 -0.6898  1.0737
10853SOL     OW44537   1.405   5.996   6.086  0.1461  0.9663  0.1141
10853SOL    HW144538   1.339   5.927   6.099 -0.0190  1.3055  1.2201
10853SOL    HW244539   1.393   6.024   5.996 -1.3532  1.1235  0.3290
10854SOL     OW44540   3.292  12.350   3.601 -0.0671  0.0628  0.5001
10854SOL    HW144541   3.322  12.363   3.690 -0.3276 -1.6717  0.8744
10854SOL    HW244542   3.248  12.432   3.578  1.3864  1.1259  1.3607
10855SOL     OW44543   7.787   1.703   8.993 -0.2745  0.4981 -0.7041
10855SOL    HW144544   7.699   1.666   8.986 -0.6369  1.1576  0.2081
10855SOL    HW244545   7.844   1.628   9.011 -0.8770  0.2649  0.2957
10856SOL     OW44546   8.683  13.949  12.259  0.2531 -0.0257 -0.2766
10856SOL    HW144547   8.772  13.925  12.283  0.1712  0.0205  0.0720
10856SOL    HW244548   8.659  13.885  12.192  0.3477 -0.3873  0.0294
10857SOL     OW44549  13.368   6.997   2.150 -0.4274 -0.1914 -0.0284
10857SOL    HW144550  13.370   6.954   2.235  0.4245 -1.4242 -0.6314
10857SOL    HW244551  13.411   7.081   2.163 -2.5011  0.7386  1.2831
10858SOL     OW44552  11.956   8.038   2.583 -0.2095 -0.7802  0.4858
10858SOL    HW144553  11.987   7.986   2.657  0.2813  2.4184  2.7560
10858SOL    HW244554  11.999   8.123   2.593 -2.9166  1.0081 -1.3781
10859SOL     OW44555  10.800   9.175   5.376 -0.0752 -0.3772 -0.2236
10859SOL    HW144556  10.834   9.264   5.388  0.5569 -0.5149 -0.9339
10859SOL    HW244557  10.867   9.119   5.416  0.3756 -0.6286 -1.3056
10860SOL     OW44558   7.659   4.797   6.020  0.2201 -0.2953  0.2921
10860SOL    HW144559   7.679   4.722   6.076 -0.4939 -1.9503 -1.5465
10860SOL    HW244560   7.731   4.801   5.958  0.1964  0.5026  0.3044
10861SOL     OW44561   3.686   7.195  11.086  0.1395  0.0006 -0.2862
10861SOL    HW144562   3.690   7.291  11.089 -2.7675  0.2047 -0.6815
10861SOL    HW244563   3.671   7.169  11.177  0.2276 -0.0328 -0.2809
10862SOL     OW44564   6.599  10.703   0.351 -0.0734  0.1238  0.2580
10862SOL    HW144565   6.524  10.744   0.394 -0.2721 -0.3476  0.3774
10862SOL    HW244566   6.658  10.681   0.423 -1.2969 -2.4974  0.5767
10863SOL     OW44567  11.641  10.982   6.231 -0.4775 -0.0807 -0.4594
10863SOL    HW144568  11.572  10.926   6.195 -0.0828 -2.3651  2.0118
10863SOL    HW244569  11.601  11.022   6.308  1.0467 -2.1200  1.5315
10864SOL     OW44570   4.838   6.324   0.283  0.4134 -0.0514 -0.2102
10864SOL    HW144571   4.932   6.338   0.272  0.3012  2.2779  0.9796
10864SOL    HW244572   4.827   6.304   0.376 -0.1116 -2.5410 -0.7472
10865SOL     OW44573   6.350   7.754   2.596  0.4989 -0.5126 -0.3714
10865SOL    HW144574   6.413   7.803   2.544 -0.1379  1.0189  0.2535
10865SOL    HW244575   6.279   7.733   2.535 -0.2692  1.3205 -0.1631
10866SOL     OW44576  13.378  10.309  12.988 -0.3710 -0.0676  0.2980
10866SOL    HW144577  13.407  10.274  12.904  1.6585  1.3119  0.3807
10866SOL    HW244578  13.360  10.401  12.971 -1.1641 -0.0563  1.1155
10867SOL     OW44579   8.495  10.705   4.464  0.5576  0.1579 -0.6456
10867SOL    HW144580   8.463  10.656   4.540 -2.9233  4.6474  1.2496
10867SOL    HW244581   8.582  10.736   4.491  0.5003 -0.4706  0.3305
10868SOL     OW44582   1.836   3.209   7.686 -0.2822  0.1849 -0.1404
10868SOL    HW144583   1.872   3.249   7.766 -0.7699 -1.6517  1.0613
10868SOL    HW244584   1.775   3.143   7.718 -1.4479  0.2616 -2.0924
10869SOL     OW44585  10.196   7.612  11.625 -0.8211 -0.1195  0.1945
10869SOL    HW144586  10.221   7.551  11.695 -2.2384 -1.0772 -0.0788
10869SOL    HW244587  10.277   7.630  11.578 -0.4050 -2.1632  0.0223
10870SOL     OW44588   6.421   1.232   8.475  0.4286 -0.0943 -0.5520
10870SOL    HW144589   6.339   1.266   8.513 -0.2707 -0.3186 -1.7791
10870SOL    HW244590   6.432   1.146   8.514 -0.3010 -0.3393 -0.8549
10871SOL     OW44591   4.910   6.705   0.109  0.2384 -0.1324 -0.6993
10871SOL    HW144592   4.921   6.770   0.040 -1.9655  1.4174  0.3063
10871SOL    HW244593   4.921   6.753   0.190  1.4952 -1.6621  0.0920
10872SOL     OW44594   0.788   4.059   1.124 -1.0506  0.4982 -0.1623
10872SOL    HW144595   0.819   4.047   1.034  0.2186 -0.1313  0.3358
10872SOL    HW244596   0.794   3.971   1.163 -0.8427  0.9181  0.7605
10873SOL     OW44597  12.628   2.276  13.055  0.1934  0.2151 -0.4486
10873SOL    HW144598  12.539   2.261  13.023 -0.4721 -0.0689  1.4136
10873SOL    HW244599  12.619   2.347  13.119  0.7699 -1.6095  1.8059
10874SOL     OW44600   6.471   2.719  12.718  0.5043 -0.5396  0.3340
10874SOL    HW144601   6.391   2.667  12.723  1.5571 -2.2457  0.2967
10874SOL    HW244602   6.442   2.804  12.685 -1.0259 -1.7118 -1.5838
10875SOL     OW44603   7.291   7.170   0.016  0.5746 -0.5601 -0.4032
10875SOL    HW144604   7.315   7.261   0.034  2.3184 -1.0903  0.1672
10875SOL    HW244605   7.260   7.136   0.099 -0.9422 -0.2676 -0.8238
10876SOL     OW44606   9.558   3.641   1.382 -0.7105 -0.6880  0.7109
10876SOL    HW144607   9.584   3.556   1.418 -1.1870 -1.3219 -0.3739
10876SOL    HW244608   9.464   3.647   1.401 -0.2600  0.6959  2.8633
10877SOL     OW44609  11.568  12.966  10.632 -0.2076  0.0522  0.3421
10877SOL    HW144610  11.611  13.045  10.664 -0.9396  0.0202  1.4517
10877SOL    HW244611  11.610  12.949  10.548 -0.0464  1.6230  0.0681
10878SOL     OW44612   1.645  12.685   0.653 -0.5810  0.6686  0.2584
10878SOL    HW144613   1.641  12.592   0.634 -1.0013  0.4460  1.3695
10878SOL    HW244614   1.684  12.691   0.740 -2.0445  1.4150  0.9103
10879SOL     OW44615   7.659  10.545   3.944 -0.4158 -0.1288  0.0681
10879SOL    HW144616   7.636  10.463   3.901  1.2853 -1.0929  0.8699
10879SOL    HW244617   7.627  10.534   4.034 -1.9373  0.9296 -0.3206
10880SOL     OW44618   8.886   2.858   4.434 -0.1705  0.2782  0.0645
10880SOL    HW144619   8.933   2.897   4.360  1.0904  3.1283  2.1931
10880SOL    HW244620   8.902   2.764   4.426  1.2100  0.6477 -2.3841
10881SOL     OW44621  13.281   6.120   7.154  0.4565  0.2485 -0.0349
10881SOL    HW144622  13.297   6.056   7.085 -0.9957 -1.2657  0.9501
10881SOL    HW244623  13.368   6.135   7.193  1.0164 -0.1587 -1.0749
10882SOL     OW44624  12.853   4.417   3.887  0.0093  0.4087  0.2367
10882SOL    HW144625  12.890   4.330   3.869  0.2594  0.1076  2.0076
10882SOL    HW244626  12.801   4.405   3.966 -1.6024  1.4671 -0.6266
10883SOL     OW44627  11.071   2.454   5.750  0.4563  0.1543  0.0882
10883SOL    HW144628  10.982   2.433   5.721  0.9624  0.9364 -2.2706
10883SOL    HW244629  11.065   2.545   5.779  0.3352 -0.0547  0.7373
10884SOL     OW44630  12.407   8.435   2.878  0.1607 -0.6283  0.2926
10884SOL    HW144631  12.440   8.439   2.968  0.8109  1.2254  0.0048
10884SOL    HW244632  12.379   8.524   2.858 -0.2326 -1.0647 -1.2691
10885SOL     OW44633  13.592  12.287   4.134  0.5711 -0.5325 -0.0193
10885SOL    HW144634  13.671  12.316   4.180 -0.1982 -0.9452  1.6124
10885SOL    HW244635  13.537  12.365   4.129  0.1217 -0.7822  0.9168
10886SOL     OW44636   3.376  11.075   8.587  0.1557  0.3055 -0.3221
10886SOL    HW144637   3.291  11.118   8.596 -0.5301 -1.3071  1.6268
10886SOL    HW244638   3.431  11.140   8.542 -1.8839  1.6365 -1.0422
10887SOL     OW44639  13.064   5.870   4.930  0.5395  0.0973 -0.0150
10887SOL    HW144640  13.037   5.955   4.894  0.8126  0.5595  0.8505
10887SOL    HW244641  12.987   5.837   4.975  0.6962  0.3150  0.4220
10888SOL     OW44642  10.401   3.654   5.990 -0.5982 -0.3806 -0.2865
10888SOL    HW144643  10.462   3.685   6.057 -0.5529 -0.4179 -0.3108
10888SOL    HW244644  10.389   3.561   6.010 -2.2871  0.0565  1.0315
10889SOL     OW44645   3.226   1.506   8.471  0.2163  0.0190 -0.5976
10889SOL    HW144646   3.291   1.516   8.541 -0.5469  0.7663  0.0318
10889SOL    HW244647   3.156   1.454   8.510 -0.1348  0.2962 -0.8491
10890SOL     OW44648  11.974   0.500   1.714 -0.3052 -0.5855  0.4633
10890SOL    HW144649  11.971   0.484   1.619 -0.9661 -2.3202  0.7392
10890SOL    HW244650  12.040   0.568   1.724  0.2940 -0.8594 -1.1916
10891SOL     OW44651  10.684  12.067   5.751 -0.2511 -0.1461 -0.5116
10891SOL    HW144652  10.642  12.053   5.667 -2.0217  1.3946  0.0581
10891SOL    HW244653  10.668  11.986   5.800 -2.3423  0.2441 -0.4495
10892SOL     OW44654  13.097   4.542   1.226 -0.0046  0.2942  0.5002
10892SOL    HW144655  13.023   4.586   1.267 -0.5128  0.0352 -0.1235
10892SOL    HW244656  13.060   4.462   1.188  0.4542  0.4870 -0.3847
10893SOL     OW44657  11.815   5.444  11.375 -0.6054 -0.0051  0.0667
10893SOL    HW144658  11.865   5.519  11.407  0.6402 -1.0098  0.5436
10893SOL    HW244659  11.771   5.476  11.296  0.9899  0.8578 -0.5106
10894SOL     OW44660   9.988   5.423   7.612 -0.3050  0.1900 -0.5017
10894SOL    HW144661   9.980   5.328   7.601  0.9930  0.2499 -2.3276
10894SOL    HW244662  10.008   5.434   7.705 -0.4191 -1.3208 -0.2684
10895SOL     OW44663  11.380   4.929  12.586  0.4077  0.2991 -0.4844
10895SOL    HW144664  11.416   4.913  12.673 -0.1061  1.3583 -0.0538
10895SOL    HW244665  11.446   4.896  12.526  1.2534  0.5091  0.3062
10896SOL     OW44666   1.946  13.828   8.162 -0.0690 -0.9547 -0.2943
10896SOL    HW144667   1.855  13.857   8.165  0.0350 -0.6351 -0.2107
10896SOL    HW244668   1.982  13.852   8.248  0.1570 -0.8723 -0.4104
10897SOL     OW44669   8.634   2.268   4.444  0.1715 -0.5625 -0.2928
10897SOL    HW144670   8.543   2.260   4.417  0.3405  0.3091 -1.1740
10897SOL    HW244671   8.683   2.277   4.362  1.1371 -1.7098  0.1294
10898SOL     OW44672  13.451   7.112   7.025  0.9153 -0.5973 -0.0165
10898SOL    HW144673  13.387   7.100   6.954  1.4056 -0.7008 -0.4504
10898SOL    HW244674  13.421   7.190   7.071  1.1419  0.0645 -0.9553
10899SOL     OW44675   5.058   2.508   9.692 -0.1698 -0.4752 -0.4415
10899SOL    HW144676   4.964   2.518   9.708 -0.4181 -0.6594 -1.7210
10899SOL    HW244677   5.089   2.597   9.673 -0.2711 -0.5624 -1.0030
10900SOL     OW44678  10.471   3.378   9.884  0.0516 -0.0441  0.1378
10900SOL    HW144679  10.483   3.302   9.941  1.1119  0.9254  1.2547
10900SOL    HW244680  10.543   3.373   9.822 -0.3034 -0.3483 -0.2499
10901SOL     OW44681   4.446   8.154  10.395  0.5247  0.0658  0.1378
10901SOL    HW144682   4.483   8.238  10.420 -0.2127  0.4173  0.0808
10901SOL    HW244683   4.430   8.161  10.301  1.7234 -0.6444 -0.1434
10902SOL     OW44684   6.600  12.980  12.536  0.0610  0.5570  0.6005
10902SOL    HW144685   6.633  12.995  12.448 -1.4261 -0.0991 -0.1105
10902SOL    HW244686   6.664  13.021  12.593  1.4320  0.3752 -0.7442
10903SOL     OW44687   2.261   6.287   1.911 -0.6336  0.3509 -0.0651
10903SOL    HW144688   2.202   6.313   1.840  1.1925  0.8552 -1.4661
10903SOL    HW244689   2.345   6.271   1.868  0.6232  0.9433  2.0217
10904SOL     OW44690   3.292   2.239   4.266 -0.6592  0.0885  0.1110
10904SOL    HW144691   3.349   2.233   4.190  0.2252  1.7874  0.5940
10904SOL    HW244692   3.292   2.332   4.289 -0.3659 -0.4510  2.5850
10905SOL     OW44693   3.912   4.980   2.218  0.1254 -0.3461  0.1698
10905SOL    HW144694   3.888   4.998   2.127 -0.9023 -0.4535  0.4167
10905SOL    HW244695   3.862   5.043   2.270  2.7278  1.5687  0.5362
10906SOL     OW44696  12.715   7.668   8.235  0.4241  0.1466  0.3086
10906SOL    HW144697  12.636   7.634   8.191 -0.0015  0.6588  0.6670
10906SOL    HW244698  12.756   7.724   8.170  0.5631 -0.2178  0.0784
10907SOL     OW44699   0.950   4.650   2.396 -0.4364 -0.5686  0.2887
10907SOL    HW144700   1.011   4.640   2.468 -2.2140 -1.9989  1.7085
10907SOL    HW244701   0.864   4.636   2.435 -1.4909 -1.3428 -2.0993
10908SOL     OW44702   5.943   6.054   9.716 -0.5635 -0.3611 -0.2513
10908SOL    HW144703   5.896   5.976   9.745  0.3287 -0.3832  1.2740
10908SOL    HW244704   5.906   6.125   9.768 -1.4147  0.2873 -1.6750
10909SOL     OW44705   5.371   7.447   9.216  0.1583  0.0489  0.2007
10909SOL    HW144706   5.425   7.498   9.277 -0.2885 -1.1160  1.6451
10909SOL    HW244707   5.334   7.377   9.270 -3.2752  1.0864 -0.5624
10910SOL     OW44708  11.601   4.969   6.049 -0.8985 -0.5939 -0.2678
10910SOL    HW144709  11.598   5.009   5.962  0.1953  1.6575  0.6435
10910SOL    HW244710  11.694   4.973   6.073 -1.3591 -0.0197  1.4900
10911SOL     OW44711   3.693  10.633   7.591 -0.1075  0.3728  0.7102
10911SOL    HW144712   3.781  10.669   7.578  0.0945 -0.2771  0.2307
10911SOL    HW244713   3.634  10.701   7.557  0.2520  0.3926  0.1145
10912SOL     OW44714   7.396   7.678   3.438 -0.4621  0.2816 -0.5297
10912SOL    HW144715   7.424   7.742   3.373 -0.3562  1.0816  0.2828
10912SOL    HW244716   7.469   7.673   3.499 -1.0086  0.3894  0.1379
10913SOL     OW44717   6.637   7.329  13.531 -0.2240 -0.0116 -0.4343
10913SOL    HW144718   6.689   7.294  13.603 -0.8513  0.8675  0.4754
10913SOL    HW244719   6.591   7.253  13.495 -0.0994 -0.4210  0.2643
10914SOL     OW44720   2.882   6.880   7.586  0.6007 -0.3881 -0.0792
10914SOL    HW144721   2.827   6.911   7.514  1.1207 -0.4127 -0.4971
10914SOL    HW244722   2.950   6.828   7.542  2.1643  1.3244  0.2115
10915SOL     OW44723  11.521   8.423   3.497  0.3431 -0.2223  0.1715
10915SOL    HW144724  11.529   8.392   3.588  0.2565  0.8322  0.5508
10915SOL    HW244725  11.587   8.373   3.449 -0.0305 -1.2424  0.6892
10916SOL     OW44726   0.142   3.268   0.963 -0.5016 -0.2763  0.2992
10916SOL    HW144727   0.102   3.282   1.049 -0.1785  1.2194  0.2200
10916SOL    HW244728   0.089   3.319   0.903  0.6388  0.5578 -0.0303
10917SOL     OW44729   1.592   0.825  11.773 -0.4949 -0.5633  0.3092
10917SOL    HW144730   1.649   0.829  11.696 -0.7055  1.4786  0.2001
10917SOL    HW244731   1.531   0.753  11.755  0.3334 -1.0161 -0.7774
10918SOL     OW44732  13.472   9.860   8.536 -0.1871  0.2067  0.2641
10918SOL    HW144733  13.531   9.847   8.462  1.7485  1.6021  1.4505
10918SOL    HW244734  13.504   9.800   8.603 -0.2683  0.7929  0.8350
10919SOL     OW44735  11.963   7.872   2.808  0.2490  0.1303  0.1337
10919SOL    HW144736  12.038   7.893   2.865 -1.4360 -0.3107  2.6634
10919SOL    HW244737  11.915   7.804   2.855 -0.0181 -2.0534 -3.0155
10920SOL     OW44738   2.567  13.034   2.485 -0.8940  0.2855 -0.0987
10920SOL    HW144739   2.554  12.978   2.408 -0.0577  0.2494 -0.2158
10920SOL    HW244740   2.551  13.123   2.453 -3.5947  0.0802  0.3812
10921SOL     OW44741   2.877  11.865  13.717 -0.4965  0.4979 -0.1043
10921SOL    HW144742   2.826  11.945  13.731 -0.6372  0.4381 -0.2666
10921SOL    HW244743   2.815  11.794  13.735 -0.1821  0.4259  0.7083
10922SOL     OW44744   2.526   5.775   5.430  0.4669 -0.1881  0.0543
10922SOL    HW144745   2.443   5.783   5.476 -0.9943  0.9379 -2.5279
10922SOL    HW244746   2.565   5.863   5.437  0.9351 -0.4143  0.3389
10923SOL     OW44747   2.311  11.598   4.531 -0.0019  0.1126  0.2884
10923SOL    HW144748   2.310  11.545   4.611  1.9865 -0.0450  0.2698
10923SOL    HW244749   2.290  11.536   4.462 -0.0944 -0.1142  0.5157
10924SOL     OW44750   4.979   0.525  13.683 -0.4807  0.0312  0.0886
10924SOL    HW144751   5.031   0.533  13.763  0.8057 -2.4249 -0.4066
10924SOL    HW244752   5.007   0.442  13.644 -1.7215  0.7007 -2.4540
10925SOL     OW44753   8.939  10.245   9.562 -0.0307  0.5768 -0.2519
10925SOL    HW144754   8.969  10.162   9.525  0.9604  1.0724 -0.5901
10925SOL    HW244755   8.969  10.244   9.653 -0.0311  0.5550 -0.2524
10926SOL     OW44756   0.059   8.748   0.836  0.1750 -0.0646 -0.4874
10926SOL    HW144757   0.136   8.786   0.879  0.3109 -2.3228  1.4789
10926SOL    HW244758  -0.015   8.779   0.890 -0.0678  0.2426 -0.9935
10927SOL     OW44759   2.253   2.553   9.412  0.2501 -0.5700 -0.2676
10927SOL    HW144760   2.201   2.484   9.371  0.1475  0.3565 -1.8035
10927SOL    HW244761   2.243   2.628   9.353  0.1855  0.8355  1.4382
10928SOL     OW44762  13.040   2.566   7.836  0.2784 -0.0364 -0.6549
10928SOL    HW144763  12.992   2.648   7.826  1.6448  0.9329  0.4204
10928SOL    HW244764  13.096   2.580   7.912  0.9662 -1.7693 -0.8002
10929SOL     OW44765   6.236   1.766   8.365 -0.6045 -0.1157  0.4187
10929SOL    HW144766   6.304   1.739   8.427  0.9103 -0.2008 -1.1774
10929SOL    HW244767   6.213   1.685   8.319 -0.8212  0.1496  0.0601
10930SOL     OW44768   2.030   3.351  11.146  0.2742 -0.2708 -0.1246
10930SOL    HW144769   2.079   3.269  11.146 -0.5254 -0.7586 -0.4054
10930SOL    HW244770   2.028   3.377  11.054  1.0425  0.3910  0.0333
10931SOL     OW44771   5.142   2.575   3.255  0.0071 -0.1238  0.1126
10931SOL    HW144772   5.192   2.647   3.295 -1.2019 -0.1905  1.8432
10931SOL    HW244773   5.054   2.612   3.242 -0.3003 -0.9101 -0.0888
10932SOL     OW44774   3.513   7.107   9.190  0.6910  0.2693  0.4169
10932SOL    HW144775   3.550   7.127   9.277 -0.6188  3.4220  0.4000
10932SOL    HW244776   3.424   7.077   9.208  1.0646 -1.0105  0.2019
10933SOL     OW44777   5.605  10.649  13.637 -0.2869  0.3329 -0.2797
10933SOL    HW144778   5.569  10.682  13.555 -0.8175  0.6056  0.0567
10933SOL    HW244779   5.691  10.692  13.645 -0.0162 -0.0742 -0.9259
10934SOL     OW44780   2.315   8.832   4.774  0.4433 -0.1276 -0.5535
10934SOL    HW144781   2.260   8.765   4.734 -2.3407  1.5136  0.2417
10934SOL    HW244782   2.390   8.784   4.809 -0.0697 -2.4065 -2.3226
10935SOL     OW44783   1.337   6.839   1.881 -0.0073 -0.4718  0.4118
10935SOL    HW144784   1.337   6.924   1.837 -1.4933 -0.5644  0.1849
10935SOL    HW244785   1.258   6.840   1.935  0.3915 -1.4019  1.0311
10936SOL     OW44786   0.040   1.405   1.998 -0.5797  0.0384 -0.6587
10936SOL    HW144787   0.048   1.411   2.094  0.1635 -1.8219 -0.5560
10936SOL    HW244788  -0.053   1.419   1.981 -0.4568  2.1547  0.1445
10937SOL     OW44789  10.539   2.112   7.957  0.0342 -0.3364 -0.2636
10937SOL    HW144790  10.518   2.019   7.952  0.0076 -0.3904  0.6329
10937SOL    HW244791  10.590   2.130   7.878 -0.9344 -0.8451 -1.0232
10938SOL     OW44792   9.675   4.389   7.847 -0.4059 -0.1917  0.2284
10938SOL    HW144793   9.702   4.298   7.833  0.7003  0.1588  0.0529
10938SOL    HW244794   9.617   4.409   7.773 -0.5020 -0.6847  0.1662
10939SOL     OW44795  10.970  13.809  10.054 -0.0050 -0.0979  0.4683
10939SOL    HW144796  10.954  13.870   9.981  0.3245  0.7428  1.0783
10939SOL    HW244797  10.892  13.754  10.057  0.4544 -0.8964 -1.2310
10940SOL     OW44798   4.381   1.956   2.500  0.1200  0.0977 -0.2652
10940SOL    HW144799   4.362   2.049   2.514  0.5424 -0.0134  1.2590
10940SOL    HW244800   4.472   1.954   2.470 -0.1428  0.2045 -1.1133
10941SOL     OW44801   1.494   6.125   0.717 -0.1727 -0.2567 -0.5947
10941SOL    HW144802   1.443   6.090   0.644 -0.1651 -2.1776  0.2537
10941SOL    HW244803   1.570   6.067   0.723 -0.3417 -0.3507  1.1163
10942SOL     OW44804  11.953  11.037   7.823  0.3058  0.3576  0.0836
10942SOL    HW144805  11.859  11.055   7.832  0.5523  0.8899  1.9543
10942SOL    HW244806  11.994  11.124   7.823  0.9136  0.0922  1.1217
10943SOL     OW44807  13.557   5.103  10.141  0.1072  0.3583  0.0300
10943SOL    HW144808  13.551   5.032  10.206  0.3526 -0.0397 -0.3776
10943SOL    HW244809  13.512   5.069  10.064  0.8183  0.3710 -0.4048
10944SOL     OW44810  11.766  11.684  13.310  0.1705 -0.1155  0.4670
10944SOL    HW144811  11.855  11.692  13.275  0.2251 -0.5093  0.5191
10944SOL    HW244812  11.724  11.767  13.285  1.1668  1.0063  2.2515
10945SOL     OW44813  12.975   1.401   0.397  0.1800 -0.0619 -0.1158
10945SOL    HW144814  12.931   1.374   0.317  2.4156 -0.7557 -1.1885
10945SOL    HW244815  12.992   1.320   0.444 -0.1143  0.2406  0.5283
10946SOL     OW44816   4.475   0.136  11.509  0.4398 -0.1347 -0.6204
10946SOL    HW144817   4.488   0.204  11.443 -0.5809  1.0921  0.3836
10946SOL    HW244818   4.536   0.158  11.580 -0.1326 -0.0487 -0.1432
10947SOL     OW44819   5.277   3.538   4.797 -0.1145  0.4754  0.4773
10947SOL    HW144820   5.272   3.447   4.770 -0.6143  0.9763 -1.2449
10947SOL    HW244821   5.195   3.555   4.843 -0.2674  0.1878  0.3107
10948SOL     OW44822   9.814   6.981  12.465 -0.4945 -0.5745  0.3013
10948SOL    HW144823   9.765   6.922  12.408  0.4100 -0.5227 -0.5652
10948SOL    HW244824   9.784   7.069  12.440 -1.1895 -0.6129  0.9687
10949SOL     OW44825  13.105   9.607   8.096 -0.4688 -0.4716  0.2408
10949SOL    HW144826  13.169   9.538   8.077  0.6054  0.1934  1.2481
10949SOL    HW244827  13.056   9.574   8.172  0.4140  0.0664  1.0712
10950SOL     OW44828   8.743  12.861   5.511 -0.2231  0.4500  0.1822
10950SOL    HW144829   8.688  12.784   5.495  1.7931 -1.1392  0.4574
10950SOL    HW244830   8.815  12.852   5.448  0.1813  2.0203  0.3684
10951SOL     OW44831   9.034   0.945   0.759  0.5008  0.1803  0.1141
10951SOL    HW144832   8.945   0.930   0.793  0.2776 -0.3716 -0.6707
10951SOL    HW244833   9.023   0.944   0.664  1.1302  1.5318  0.0046
10952SOL     OW44834   9.539   8.475   1.037  0.5890 -0.1918 -0.0181
10952SOL    HW144835   9.446   8.493   1.050  1.0849  1.5306  1.5638
10952SOL    HW244836   9.562   8.523   0.957  0.6864  1.8656  1.1676
10953SOL     OW44837   3.027  10.258  10.451 -0.3124  0.4573  0.3575
10953SOL    HW144838   3.024  10.347  10.414 -1.4661 -0.0132 -0.7479
10953SOL    HW244839   3.051  10.203  10.377  0.3176 -0.1829  1.0224
10954SOL     OW44840  11.525   7.752   1.522 -0.5353 -0.3601  1.1057
10954SOL    HW144841  11.455   7.794   1.572 -1.6805 -1.3904  0.4299
10954SOL    HW244842  11.481   7.680   1.476  1.0926 -1.4014  1.1252
10955SOL     OW44843  13.191   6.577   7.670 -0.2543  0.3874 -0.1770
10955SOL    HW144844  13.279   6.541   7.682 -0.2398  0.3920 -0.2609
10955SOL    HW244845  13.186   6.651   7.730 -0.6501 -0.3901  0.7747
10956SOL     OW44846  13.149  11.021   4.758 -0.0697  0.2646 -0.6875
10956SOL    HW144847  13.103  10.982   4.683 -0.6650  1.4696 -0.9767
10956SOL    HW244848  13.082  11.074   4.802  0.0095 -1.1716  1.2926
10957SOL     OW44849   5.496   1.289   5.685 -0.5436  0.2730 -0.3284
10957SOL    HW144850   5.520   1.307   5.775  2.1751  0.5063 -1.0024
10957SOL    HW244851   5.515   1.196   5.673 -0.0432  0.4358 -0.8644
10958SOL     OW44852  10.682   6.815   3.622  0.6009  0.6481 -0.1867
10958SOL    HW144853  10.758   6.756   3.622 -0.0132 -0.1912  1.1268
10958SOL    HW244854  10.718   6.900   3.646  0.9021 -0.1726  2.6852
10959SOL     OW44855   1.754   9.438   2.178  0.7496  0.5266  0.2908
10959SOL    HW144856   1.806   9.484   2.244  0.2315  0.1847  0.9479
10959SOL    HW244857   1.688   9.391   2.228  0.5484 -0.0031 -0.4538
10960SOL     OW44858   3.198  11.446   9.090  0.0515 -0.2282  0.0267
10960SOL    HW144859   3.282  11.486   9.068  0.5127 -0.6311  1.0095
10960SOL    HW244860   3.179  11.386   9.017 -0.0358  0.8190 -0.8373
10961SOL     OW44861   5.251   3.570   6.007 -0.0167  0.2707 -0.2010
10961SOL    HW144862   5.213   3.489   6.041  2.2360 -0.2693  1.2927
10961SOL    HW244863   5.210   3.582   5.922 -1.0672 -1.9593 -0.0922
10962SOL     OW44864   9.256   2.837   0.471  0.9995 -0.2830 -0.2348
10962SOL    HW144865   9.323   2.778   0.507 -0.8768 -0.8564  2.6710
10962SOL    HW244866   9.304   2.917   0.450  2.6908 -0.7666  1.4641
10963SOL     OW44867  12.716   6.325   2.063  0.0047 -0.9335  0.1035
10963SOL    HW144868  12.697   6.298   2.153 -1.1397  0.3986  0.2837
10963SOL    HW244869  12.796   6.378   2.070 -0.5286 -0.1708  0.4544
10964SOL     OW44870   9.891   0.931   2.487 -0.4994  0.5238 -0.8208
10964SOL    HW144871   9.917   1.002   2.545  0.7315  0.6074 -1.4303
10964SOL    HW244872   9.957   0.931   2.418 -0.8505 -0.7850 -1.1943
10965SOL     OW44873   0.593   0.059   8.376  0.7823 -0.3131  0.4306
10965SOL    HW144874   0.626   0.056   8.287  0.2973  0.2440  0.2232
10965SOL    HW244875   0.640  -0.010   8.422  0.7258 -0.8955 -0.3653
10966SOL     OW44876   1.293   1.360   0.654 -0.6330  0.5767  0.6035
10966SOL    HW144877   1.366   1.406   0.695  0.9988 -0.9683 -0.4301
10966SOL    HW244878   1.306   1.268   0.677 -1.5174  0.0920 -0.6793
10967SOL     OW44879   9.911   5.215   6.348  0.2140  0.6057  0.1042
10967SOL    HW144880   9.911   5.283   6.281 -1.1577  0.4498 -0.0835
10967SOL    HW244881   9.832   5.232   6.400  0.0698 -0.5775  0.3048
10968SOL     OW44882   4.993   0.700   7.741 -0.6991  0.6269  0.5118
10968SOL    HW144883   5.073   0.734   7.781 -0.2174  0.0627  0.0656
10968SOL    HW244884   4.967   0.627   7.797  0.2953 -0.5312 -0.4397
10969SOL     OW44885   8.864   3.988   4.189 -0.1341  0.2217 -0.4668
10969SOL    HW144886   8.772   3.974   4.214 -0.3293 -0.6346 -1.5819
10969SOL    HW244887   8.914   3.966   4.267 -0.7682 -1.4869 -0.4972
10970SOL     OW44888   2.043  12.179   9.283 -0.0874 -0.5652 -0.1485
10970SOL    HW144889   2.096  12.200   9.360 -0.7938 -0.5697  0.3503
10970SOL    HW244890   1.995  12.260   9.264  0.5890 -0.3518 -1.0092
10971SOL     OW44891  12.687  10.023   6.839 -0.4487 -0.0247  0.2905
10971SOL    HW144892  12.756  10.061   6.893 -0.0539  0.2666 -0.3960
10971SOL    HW244893  12.682   9.931   6.866  1.0459 -0.3647 -0.4572
10972SOL     OW44894   9.192   5.728  11.008  0.5343 -0.1010  0.2529
10972SOL    HW144895   9.134   5.690  10.942  0.1212 -1.0173  1.1252
10972SOL    HW244896   9.134   5.779  11.064  0.9713  1.1991 -0.4267
10973SOL     OW44897  12.612   1.574  10.596 -0.3971 -0.1237  0.4948
10973SOL    HW144898  12.702   1.597  10.617 -1.0205  2.7651  0.3434
10973SOL    HW244899  12.560   1.623  10.659 -2.0145  2.1425 -2.3842
10974SOL     OW44900  13.297   7.484  10.617  0.2575  0.0096 -0.5067
10974SOL    HW144901  13.367   7.443  10.567 -0.8195 -2.8705  0.1410
10974SOL    HW244902  13.225   7.421  10.614 -1.1522  1.3941  1.5294
10975SOL     OW44903  10.180   3.149  11.464  0.1651  0.2917 -0.0969
10975SOL    HW144904  10.250   3.195  11.418  0.7473 -1.9200 -1.5553
10975SOL    HW244905  10.101   3.167  11.412  0.2554  0.2063 -0.2622
10976SOL     OW44906  13.499   5.797   5.893 -0.8550 -0.1048  0.2980
10976SOL    HW144907  13.520   5.874   5.841 -2.7362  1.4331  1.6517
10976SOL    HW244908  13.518   5.723   5.835  2.3115  1.2339 -0.5741
10977SOL     OW44909   7.646   0.799   7.808 -0.1141  0.2213  0.5737
10977SOL    HW144910   7.717   0.736   7.816 -1.4133 -1.2332  0.9336
10977SOL    HW244911   7.605   0.779   7.724  0.2445  1.4519  0.0790
10978SOL     OW44912  12.317   4.169   9.609  0.1640  0.5052  0.1341
10978SOL    HW144913  12.270   4.098   9.653 -1.0298  1.8590  1.1265
10978SOL    HW244914  12.377   4.203   9.675  1.5674 -0.2934 -0.6958
10979SOL     OW44915   2.741   0.709   8.229  1.0379 -0.1166 -0.2106
10979SOL    HW144916   2.762   0.784   8.283  1.2246 -1.2021  1.2838
10979SOL    HW244917   2.800   0.716   8.154  1.5516  0.8334  0.2680
10980SOL     OW44918   8.999   4.567  12.608  0.2419  0.0666 -0.1410
10980SOL    HW144919   9.019   4.491  12.553  1.9431  0.7645 -0.5563
10980SOL    HW244920   8.982   4.530  12.695 -1.6122 -0.9792 -0.8854
10981SOL     OW44921   5.733  11.776  13.387  0.3017 -0.0700 -0.0865
10981SOL    HW144922   5.786  11.756  13.309  1.8034  0.0092  0.8714
10981SOL    HW244923   5.702  11.690  13.417  0.9078 -0.2591  0.0235
10982SOL     OW44924   1.483   9.976  12.368  0.4415  0.7413 -0.5919
10982SOL    HW144925   1.531   9.967  12.451  1.2855 -1.1018 -1.2264
10982SOL    HW244926   1.391   9.976  12.394  0.6951  0.4664  0.3651
10983SOL     OW44927   6.737  10.895  12.219 -0.3056  0.2789 -0.1277
10983SOL    HW144928   6.750  10.989  12.206 -0.0071  0.1406 -0.8825
10983SOL    HW244929   6.701  10.864  12.136  0.9413 -0.5085 -0.4078
10984SOL     OW44930   2.937   4.598   3.221 -0.7995  0.1977  0.1576
10984SOL    HW144931   3.013   4.655   3.221 -1.4516  1.1031  1.1899
10984SOL    HW244932   2.937   4.558   3.134 -1.0746  2.7932 -1.1417
10985SOL     OW44933   2.338  13.026   4.080  0.0979  0.1681  0.3016
10985SOL    HW144934   2.408  13.027   4.146  0.8624 -2.1749 -0.3856
10985SOL    HW244935   2.307  12.935   4.079 -1.8607  0.7902 -0.5772
10986SOL     OW44936   9.597   5.060   0.328 -0.0147 -0.6005 -0.3195
10986SOL    HW144937   9.608   4.967   0.309 -0.7094 -0.7588  0.0544
10986SOL    HW244938   9.639   5.104   0.254  0.3667 -1.2048 -0.4699
10987SOL     OW44939   2.153   3.131   3.098  0.0243  0.5957 -0.1111
10987SOL    HW144940   2.058   3.147   3.097 -0.2162 -0.6357  0.7513
10987SOL    HW244941   2.189   3.207   3.145 -0.4966  1.2092 -0.6826
10988SOL     OW44942  10.508   4.342  14.031 -0.3573 -0.1637  0.4007
10988SOL    HW144943  10.496   4.417  13.973 -1.9207 -0.7523 -0.0748
10988SOL    HW244944  10.536   4.381  14.115  1.1373  0.7441 -0.4688
10989SOL     OW44945  14.015   9.149   3.630 -0.1255 -0.0481 -0.4187
10989SOL    HW144946  14.067   9.074   3.659  0.9819  0.6808 -0.4666
10989SOL    HW244947  14.021   9.148   3.534  0.1306  0.2649 -0.4078
10990SOL     OW44948   2.844   8.360   7.988 -0.1824  0.5084 -0.4554
10990SOL    HW144949   2.763   8.332   8.029 -0.6214 -0.8533 -2.1128
10990SOL    HW244950   2.820   8.379   7.897  1.5211 -1.2136 -1.3489
10991SOL     OW44951   9.627   3.735   6.407  0.8282 -0.2763  0.6820
10991SOL    HW144952   9.574   3.680   6.463 -1.0815  0.8016  0.0289
10991SOL    HW244953   9.595   3.718   6.318  1.6334  0.3506  0.2451
10992SOL     OW44954  13.386   6.840   3.351  0.0877  0.5386 -0.6773
10992SOL    HW144955  13.302   6.797   3.336  0.4485 -0.3466 -0.2011
10992SOL    HW244956  13.363   6.923   3.393 -0.4674 -0.7550  1.7721
10993SOL     OW44957   4.256   1.540  12.199  0.1828  0.2422  0.6854
10993SOL    HW144958   4.310   1.462  12.192  1.0902  0.9046 -0.0928
10993SOL    HW244959   4.197   1.523  12.271  0.3347 -1.1764  0.4917
10994SOL     OW44960   1.609   4.600   5.375  0.0846  1.5123  0.1229
10994SOL    HW144961   1.562   4.557   5.304 -0.2799  2.4021 -0.1887
10994SOL    HW244962   1.590   4.546   5.452 -0.0985  0.9472 -0.3064
10995SOL     OW44963   7.691   2.147   6.831  0.8432  0.1978 -0.1634
10995SOL    HW144964   7.682   2.136   6.737  0.2826 -1.3251  0.0386
10995SOL    HW244965   7.710   2.240   6.843  1.3874  0.3302 -1.7995
10996SOL     OW44966   4.933   2.891   7.637  0.8224  0.2746 -0.0254
10996SOL    HW144967   4.916   2.830   7.565  1.2776  0.8321 -0.6187
10996SOL    HW244968   4.916   2.840   7.716  0.9830 -0.5559 -0.5138
10997SOL     OW44969   4.807  11.421   1.311 -0.2523 -0.0604  0.2912
10997SOL    HW144970   4.831  11.339   1.267 -0.6121 -0.0276  0.0282
10997SOL    HW244971   4.736  11.396   1.370 -0.0406 -0.0261  0.5634
10998SOL     OW44972  10.233   2.717   7.905  0.6152 -0.2159 -0.7990
10998SOL    HW144973  10.217   2.625   7.883 -0.2334 -0.4727  0.7541
10998SOL    HW244974  10.149   2.760   7.891  0.4889 -0.0725  0.3281
10999SOL     OW44975   9.096  13.864  12.851 -0.4990 -0.0908 -0.1435
10999SOL    HW144976   9.112  13.772  12.873 -1.6694 -0.2087  0.3059
10999SOL    HW244977   9.135  13.913  12.923 -0.9540 -0.3049  0.2586
11000SOL     OW44978   2.173  13.686  11.904  0.3499 -0.2720 -0.2398
11000SOL    HW144979   2.183  13.618  11.837  2.1890 -1.0517  0.7241
11000SOL    HW244980   2.261  13.696  11.941 -0.6377 -0.1695  2.3230
11001SOL     OW44981   3.983   5.558   4.656  0.3179 -0.4456 -0.0482
11001SOL    HW144982   3.995   5.544   4.750 -0.5370  0.0853  0.1557
11001SOL    HW244983   4.041   5.494   4.614  0.6769 -0.7112  0.8404
11002SOL     OW44984  12.571   0.643  13.824 -0.0882 -0.6074 -0.0498
11002SOL    HW144985  12.591   0.577  13.890 -0.3095 -0.7711 -0.1413
11002SOL    HW244986  12.605   0.725  13.860 -0.2187 -0.6919  0.2739
11003SOL     OW44987   8.168   0.786  11.666 -0.2560  0.0428  0.8516
11003SOL    HW144988   8.253   0.813  11.631  0.3034 -0.4789  1.7638
11003SOL    HW244989   8.188   0.746  11.751 -1.1512 -1.9636  0.2013
11004SOL     OW44990  10.990   2.678   5.880  0.2171  0.6299  0.0825
11004SOL    HW144991  11.045   2.750   5.911  2.2445 -0.4671 -0.8171
11004SOL    HW244992  10.958   2.637   5.960 -0.7735  2.3213  0.6126
11005SOL     OW44993  12.014   6.093   4.526 -0.0547  0.1174  0.2404
11005SOL    HW144994  11.984   6.111   4.615 -0.8868 -0.8381  0.1654
11005SOL    HW244995  12.069   6.015   4.534 -0.0059  0.1155 -0.0671
11006SOL     OW44996   5.485  13.566  11.237  0.7811  0.2023 -0.3624
11006SOL    HW144997   5.422  13.552  11.307  0.1030 -0.0013 -1.0055
11006SOL    HW244998   5.447  13.522  11.160  2.3853 -1.2136 -0.4065
11007SOL     OW44999  11.490  13.391   7.959 -0.3037 -0.1849  0.5139
11007SOL    HW145000  11.416  13.451   7.959 -2.3539 -2.3761 -2.5033
11007SOL    HW245001  11.455  13.309   7.994  0.8280 -1.1319 -0.4717
11008SOL     OW45002  10.514   8.083   7.426 -0.2061  0.5892  0.2251
11008SOL    HW145003  10.569   8.030   7.368  1.3596  1.8226  0.5119
11008SOL    HW245004  10.574   8.150   7.461 -1.7632  1.6038  1.0513
11009SOL     OW45005  13.401  13.648   7.514 -0.7710  0.0790 -0.2610
11009SOL    HW145006  13.332  13.714   7.503 -2.1767 -1.4499 -1.1703
11009SOL    HW245007  13.379  13.580   7.449  1.1354 -0.8542  0.0098
11010SOL     OW45008   0.623   0.388   8.131  0.0565  0.0436 -0.4943
11010SOL    HW145009   0.582   0.447   8.067  0.0316 -1.2487 -1.7016
11010SOL    HW245010   0.604   0.300   8.099  1.5318 -0.6189  0.3567
11011SOL     OW45011   7.926  13.091  11.283 -0.2136 -0.3017  0.0897
11011SOL    HW145012   7.940  13.173  11.235  0.0259  0.2097  0.9882
11011SOL    HW245013   7.889  13.031  11.219 -0.5477  0.5672 -0.5512
11012SOL     OW45014   9.005   0.040   0.156 -0.2552  0.4950  0.4180
11012SOL    HW145015   9.093   0.072   0.138 -0.6895  1.7534  0.4346
11012SOL    HW245016   8.986  -0.021   0.085  0.4130  0.6673  0.0899
11013SOL     OW45017  12.182   8.651   3.006  0.2307 -0.3211 -0.6285
11013SOL    HW145018  12.214   8.682   3.091 -1.1796 -1.6265  0.4183
11013SOL    HW245019  12.088   8.663   3.010  0.0272 -1.4571 -1.5750
11014SOL     OW45020   5.113   9.581   0.836  0.3580  0.0624  0.2364
11014SOL    HW145021   5.097   9.492   0.805  3.1445 -0.6285  0.4954
11014SOL    HW245022   5.170   9.620   0.770  0.9438  0.8589  1.1749
11015SOL     OW45023   9.376   6.819   6.768 -0.1554 -0.4459 -0.3298
11015SOL    HW145024   9.350   6.728   6.785  0.0688 -0.5341 -0.4529
11015SOL    HW245025   9.347   6.836   6.678 -2.6399  0.4835  0.5626
11016SOL     OW45026  13.024   7.796   8.341  0.2435 -0.0668  0.1855
11016SOL    HW145027  13.072   7.758   8.268  1.5367 -2.5168  2.1600
11016SOL    HW245028  13.086   7.856   8.382 -0.0473  0.3541  0.0177
11017SOL     OW45029   1.572   2.971   0.638  0.4358 -0.3070 -0.3581
11017SOL    HW145030   1.642   3.012   0.689 -0.0809  0.6825 -0.4234
11017SOL    HW245031   1.518   3.045   0.608 -1.7703 -1.1357  1.3060
11018SOL     OW45032  12.208   9.217   9.440  0.2293 -0.1426  0.3520
11018SOL    HW145033  12.202   9.122   9.445 -0.3066 -0.1439 -0.2233
11018SOL    HW245034  12.159   9.248   9.516  1.6085 -0.3374  1.3591
11019SOL     OW45035   9.100   2.113   9.119 -0.4512  0.2624 -0.0893
11019SOL    HW145036   9.036   2.144   9.183  0.2304  5.1453 -1.3704
11019SOL    HW245037   9.061   2.133   9.034  1.6217  0.9663 -0.9605
11020SOL     OW45038   3.431   8.669  13.978 -0.1071 -0.9852  0.3400
11020SOL    HW145039   3.444   8.591  13.923 -1.1231  0.3100 -1.8755
11020SOL    HW245040   3.337   8.675  13.989 -0.0864  0.2862 -0.0688
11021SOL     OW45041   2.368   2.037   2.849  0.4215 -0.2422  0.6824
11021SOL    HW145042   2.387   2.126   2.821 -2.7564  0.0578 -0.9313
11021SOL    HW245043   2.422   1.982   2.793  1.3873  0.6060  0.7563
11022SOL     OW45044   7.435   2.058   3.288  0.6361 -0.3544 -0.2783
11022SOL    HW145045   7.432   2.081   3.381 -1.0005  0.6358 -0.5337
11022SOL    HW245046   7.509   2.109   3.253 -0.9527  2.1961 -0.1821
11023SOL     OW45047   9.285   6.937  10.965  0.2535 -0.1156 -0.3650
11023SOL    HW145048   9.282   6.842  10.982 -0.2686 -0.5586 -2.6618
11023SOL    HW245049   9.253   6.946  10.876 -2.4139  2.5018  0.6822
11024SOL     OW45050  12.267   4.922  11.814 -0.2802  0.1832  0.2051
11024SOL    HW145051  12.234   4.832  11.815  0.2053  0.0081  0.7993
11024SOL    HW245052  12.189   4.975  11.796 -0.6868 -0.3021  0.4917
11025SOL     OW45053   0.966   7.167  12.395 -0.1557 -0.1164  1.0101
11025SOL    HW145054   1.028   7.218  12.448 -1.0305 -1.2430  3.2732
11025SOL    HW245055   1.002   7.078  12.396 -0.3683 -0.2205 -0.0660
11026SOL     OW45056   0.567   6.581   3.748 -0.0299  0.2654 -0.3512
11026SOL    HW145057   0.588   6.652   3.808  0.4504 -1.1537  1.2502
11026SOL    HW245058   0.615   6.603   3.668  1.5844  0.8590  0.7200
11027SOL     OW45059   7.385  10.595   4.290  0.3009  0.3166  0.3459
11027SOL    HW145060   7.300  10.573   4.328  0.3929 -1.3579 -0.3080
11027SOL    HW245061   7.369  10.673   4.238 -0.8509 -0.0227  0.1687
11028SOL     OW45062   0.216   2.246   3.868 -0.9110  0.3058  0.4917
11028SOL    HW145063   0.223   2.157   3.833 -1.1012  0.3371  0.3767
11028SOL    HW245064   0.153   2.238   3.940 -1.5354  0.5018 -0.0259
11029SOL     OW45065   6.782   9.749   7.680 -0.4696  0.3410 -0.1419
11029SOL    HW145066   6.812   9.788   7.762  0.5893 -0.9286  0.1079
11029SOL    HW245067   6.861   9.712   7.640 -1.0630  0.4150 -1.4554
11030SOL     OW45068   8.429   6.517   5.580  0.1053 -0.4696  0.2482
11030SOL    HW145069   8.372   6.485   5.510 -0.4291  0.1125  0.4084
11030SOL    HW245070   8.369   6.536   5.652  0.2405  1.9445 -0.2010
11031SOL     OW45071   7.892   0.940  10.905  0.1217  0.0087 -0.3777
11031SOL    HW145072   7.921   1.031  10.901 -1.5374  0.5318 -2.4655
11031SOL    HW245073   7.906   0.906  10.816 -1.9954 -0.8044 -0.4667
11032SOL     OW45074  10.623   0.475   4.980 -0.4279 -0.1591 -0.0596
11032SOL    HW145075  10.693   0.524   5.023  2.3335 -2.3498 -1.6832
11032SOL    HW245076  10.579   0.540   4.925  0.5043  1.2606  0.7907
11033SOL     OW45077   7.134   2.941  11.798 -0.4309 -0.3190  0.2397
11033SOL    HW145078   7.178   2.942  11.882 -0.4747 -0.9323  0.2754
11033SOL    HW245079   7.142   3.030  11.765 -1.4345  0.2251  1.4240
11034SOL     OW45080  11.435   6.244   3.659  0.0848  0.2193 -0.1554
11034SOL    HW145081  11.476   6.160   3.682 -1.0510  0.0090  1.2639
11034SOL    HW245082  11.464   6.304   3.728 -0.5512  0.5181 -0.1453
11035SOL     OW45083  11.719   2.487   3.360 -0.4581 -0.4331 -0.1645
11035SOL    HW145084  11.656   2.507   3.430  0.0187  0.0788  0.1269
11035SOL    HW245085  11.781   2.560   3.362  1.8775 -2.2857  1.5279
11036SOL     OW45086   9.521   2.634   2.489  0.7358  0.1893  0.2874
11036SOL    HW145087   9.448   2.585   2.452 -0.7545  2.6470 -0.2054
11036SOL    HW245088   9.481   2.693   2.552  2.6111  0.0111  1.7316
11037SOL     OW45089   0.624   6.495   3.056  0.2945 -0.7474 -0.2519
11037SOL    HW145090   0.539   6.452   3.051  0.1019 -0.3417 -0.4813
11037SOL    HW245091   0.605   6.588   3.044  0.5728 -0.4608  1.2254
11038SOL     OW45092   8.223   1.556  13.766  0.0867 -0.0913 -0.2023
11038SOL    HW145093   8.291   1.612  13.727 -1.0394  1.5219  0.0592
11038SOL    HW245094   8.225   1.577  13.859 -2.4610  1.9854 -0.5061
11039SOL     OW45095  10.566   5.867  13.578  0.3549 -0.5107 -0.4317
11039SOL    HW145096  10.601   5.946  13.619  0.5324 -1.0162  0.4323
11039SOL    HW245097  10.572   5.883  13.484 -0.7565  1.0075 -0.2859
11040SOL     OW45098   2.766   5.265   0.293 -0.0700 -0.1324  0.2429
11040SOL    HW145099   2.826   5.210   0.243 -0.2411 -0.7386  0.6895
11040SOL    HW245100   2.692   5.207   0.313 -2.0602  1.2401 -2.4785
11041SOL     OW45101   1.254   3.918   2.030  0.1241  0.0783  0.1194
11041SOL    HW145102   1.314   3.992   2.043 -1.2036  1.6694 -2.2028
11041SOL    HW245103   1.167   3.956   2.041 -0.6209 -2.0757  2.9180
11042SOL     OW45104   5.153  11.013   3.395  0.1576 -0.1010 -0.1552
11042SOL    HW145105   5.063  10.986   3.379 -0.2990  1.7952 -1.0649
11042SOL    HW245106   5.146  11.080   3.464  1.1620 -1.6075  1.5092
11043SOL     OW45107   0.883  12.706   8.261  0.1540  0.1952 -0.3645
11043SOL    HW145108   0.967  12.746   8.279 -0.5506  2.0075 -0.9270
11043SOL    HW245109   0.828  12.731   8.335 -0.3363  0.3891 -0.7884
11044SOL     OW45110   3.611   4.546   0.281  0.4699  0.3481 -0.2120
11044SOL    HW145111   3.570   4.621   0.324 -1.3061 -0.7867  0.1982
11044SOL    HW245112   3.595   4.561   0.188 -1.1549 -0.1632 -0.0524
11045SOL     OW45113  13.393   4.939   9.166  0.0415 -0.2322  0.3115
11045SOL    HW145114  13.396   5.034   9.175 -0.0788 -0.2687  0.7756
11045SOL    HW245115  13.463   4.908   9.224 -0.4789 -0.4632  0.8320
11046SOL     OW45116   4.069  11.071  11.409  0.1305 -0.1130 -0.2703
11046SOL    HW145117   4.011  11.140  11.441  2.0922  1.4772  0.0165
11046SOL    HW245118   4.099  11.102  11.324 -2.0056 -2.5141 -2.0751
11047SOL     OW45119  13.496   4.454   3.430  0.1413 -0.4010 -1.0394
11047SOL    HW145120  13.414   4.478   3.474  0.7354 -1.9012  0.9850
11047SOL    HW245121  13.467   4.408   3.351 -0.9473  0.2715 -1.0675
11048SOL     OW45122   2.833   9.141   7.877 -0.1354 -0.0041  0.3428
11048SOL    HW145123   2.771   9.069   7.860  0.1626  0.1930 -1.8934
11048SOL    HW245124   2.907   9.099   7.920  0.0922 -1.0841 -1.0452
11049SOL     OW45125   9.512   2.592  10.136  0.1181  0.0098 -0.1472
11049SOL    HW145126   9.462   2.516  10.105 -0.0711  0.4366 -0.9158
11049SOL    HW245127   9.449   2.642  10.189  0.6780 -1.1585  1.6870
11050SOL     OW45128   1.114   0.921   2.001  0.4542  0.1807  0.1341
11050SOL    HW145129   1.125   0.843   2.055 -1.3787 -1.6725 -1.9661
11050SOL    HW245130   1.038   0.966   2.038  0.2300 -0.1768  0.1097
11051SOL     OW45131  11.957   6.485  10.790 -0.1546  0.3054 -0.7890
11051SOL    HW145132  12.001   6.400  10.787 -1.0706 -0.1571 -1.0978
11051SOL    HW245133  11.870   6.467  10.824 -1.0151  0.8332 -2.5819
11052SOL     OW45134  13.533  10.903   0.476  0.0350  0.0830 -0.4253
11052SOL    HW145135  13.575  10.821   0.502  0.9680  0.4042 -0.8758
11052SOL    HW245136  13.483  10.930   0.553 -1.1558 -1.4420 -0.6183
11053SOL     OW45137  12.008   2.151   1.534  0.0891  0.0779 -0.7224
11053SOL    HW145138  12.038   2.222   1.477 -0.8343  2.1410  1.1915
11053SOL    HW245139  11.913   2.153   1.528 -0.0851  0.8270  1.2936
11054SOL     OW45140   1.747   4.278   5.349 -0.2159 -0.1407  0.2991
11054SOL    HW145141   1.740   4.332   5.271  1.0743 -0.8814 -0.3641
11054SOL    HW245142   1.700   4.327   5.417  1.3867  2.1448 -0.1074
11055SOL     OW45143   1.835  10.812  11.712  0.1733 -0.2425  0.3718
11055SOL    HW145144   1.900  10.747  11.736  1.2864  1.0328  0.9293
11055SOL    HW245145   1.882  10.873  11.654 -1.2069 -0.6719 -1.2937
11056SOL     OW45146   3.538   7.724  13.826  0.0768  0.5606  0.2762
11056SOL    HW145147   3.456   7.694  13.866  0.0753  0.6771  0.3591
11056SOL    HW245148   3.600   7.653  13.843 -0.1854  0.1556 -0.3836
11057SOL     OW45149  10.655   1.707   9.366 -0.6282  0.0126  0.1621
11057SOL    HW145150  10.689   1.620   9.383  1.1237  0.4025 -1.0934
11057SOL    HW245151  10.624   1.738   9.451  0.8140 -0.9562  1.0818
11058SOL     OW45152   7.979  12.539  13.623  0.4272 -0.1502  0.3786
11058SOL    HW145153   8.058  12.589  13.601 -0.2546  1.0263  0.5320
11058SOL    HW245154   7.927  12.540  13.542  0.4011 -0.6132  0.3873
11059SOL     OW45155  13.153   6.881   8.420 -0.1355  0.5351 -0.2889
11059SOL    HW145156  13.200   6.965   8.420  1.0796 -0.1193  0.5788
11059SOL    HW245157  13.159   6.851   8.510 -1.0333 -0.2430 -0.4807
11060SOL     OW45158  11.701   2.321   3.925 -0.1262  0.0774 -0.1816
11060SOL    HW145159  11.674   2.344   3.836  1.2506 -0.2188 -0.6936
11060SOL    HW245160  11.794   2.302   3.918  0.2693  1.1653  1.5418
11061SOL     OW45161   8.155   4.811   6.596  0.5898  0.6203 -0.3307
11061SOL    HW145162   8.216   4.745   6.631 -2.4254 -1.9963  0.4823
11061SOL    HW245163   8.096   4.830   6.669 -0.2692  2.1749 -1.3824
11062SOL     OW45164  11.339   5.223   7.331  0.0129  0.3591 -0.6906
11062SOL    HW145165  11.405   5.180   7.385 -1.0586 -0.4563  0.0132
11062SOL    HW245166  11.322   5.161   7.261  0.1451  0.6693 -1.0014
11063SOL     OW45167   3.458   1.153   9.147 -0.9581  0.0275 -0.2733
11063SOL    HW145168   3.544   1.174   9.181 -0.7329 -0.0906 -0.7574
11063SOL    HW245169   3.407   1.125   9.223 -0.2780 -0.8568 -0.1372
11064SOL     OW45170  11.968   8.826   5.893  0.0980  0.6344 -0.0138
11064SOL    HW145171  12.026   8.754   5.919 -0.0030 -0.3991 -2.4338
11064SOL    HW245172  11.916   8.843   5.971  1.6541 -0.3778  1.3288
11065SOL     OW45173  11.033   2.930   2.551  0.0144 -0.3254  0.1329
11065SOL    HW145174  11.071   2.861   2.498 -1.0279 -2.6877  2.2630
11065SOL    HW245175  10.938   2.917   2.543 -0.1815  0.1749  1.4485
11066SOL     OW45176   5.125   4.128   5.143 -0.6356  0.0823 -0.0743
11066SOL    HW145177   5.106   4.126   5.049 -0.0533 -0.1689 -0.1910
11066SOL    HW245178   5.192   4.061   5.155  1.2960  1.9144  0.0673
11067SOL     OW45179   4.179   0.402  12.579 -0.0852  0.4634  0.0360
11067SOL    HW145180   4.211   0.317  12.549  0.4130  0.8744 -0.6407
11067SOL    HW245181   4.257   0.449  12.607 -0.4017  0.5665  0.7779
11068SOL     OW45182   5.842   0.700   7.925  0.4205  0.1173  0.3938
11068SOL    HW145183   5.884   0.776   7.885 -0.5407 -0.6709 -2.3049
11068SOL    HW245184   5.749   0.723   7.930  0.2678 -0.4970  0.4763
11069SOL     OW45185  12.729   0.972  11.013 -0.5813  0.2741 -0.0340
11069SOL    HW145186  12.765   0.912  10.947  0.2864  2.0482 -1.2637
11069SOL    HW245187  12.637   0.980  10.991 -0.4595  0.2497 -0.5740
11070SOL     OW45188   7.811   2.560   4.551 -0.1932  0.2513  0.1985
11070SOL    HW145189   7.795   2.643   4.596 -0.2266 -0.7424  2.1151
11070SOL    HW245190   7.754   2.497   4.595 -1.9992 -0.3892 -2.7984
11071SOL     OW45191   6.603   3.019  12.512 -0.6170  0.9012  0.0481
11071SOL    HW145192   6.682   3.067  12.490 -0.5517  1.3415  1.1665
11071SOL    HW245193   6.575   3.056  12.596 -1.0995 -0.3588  0.4625
11072SOL     OW45194  11.045   9.258   3.617 -0.3550  0.0845  0.1675
11072SOL    HW145195  11.105   9.183   3.613  0.0677  0.4551 -0.5090
11072SOL    HW245196  11.102   9.334   3.626 -0.7066  0.4550 -0.6345
11073SOL     OW45197   8.436   7.133   6.113 -0.3446 -0.3898 -0.7597
11073SOL    HW145198   8.388   7.175   6.184 -0.3854  0.6113 -1.3610
11073SOL    HW245199   8.510   7.191   6.096  0.3862 -1.2810 -0.6791
11074SOL     OW45200   7.550  11.485   6.113  0.4969 -0.1323 -0.2010
11074SOL    HW145201   7.466  11.467   6.071  0.7274  2.3869 -1.9581
11074SOL    HW245202   7.527  11.518   6.200 -0.3072 -0.0201 -0.4500
11075SOL     OW45203  13.074  11.037   7.437  0.4079  0.2770  0.2132
11075SOL    HW145204  13.083  10.975   7.365  0.7251  1.6713 -0.9926
11075SOL    HW245205  13.163  11.058   7.462  0.3259 -1.0101  1.8100
11076SOL     OW45206  11.822   9.318   7.594  0.4948 -0.3170 -0.2656
11076SOL    HW145207  11.731   9.328   7.624  0.0717  1.4858 -1.9142
11076SOL    HW245208  11.816   9.327   7.499  2.3443 -0.8873 -0.4626
11077SOL     OW45209   2.961  10.023   5.421 -0.3101 -0.6969 -0.0738
11077SOL    HW145210   2.868   9.998   5.415 -0.7726  1.1233 -1.9920
11077SOL    HW245211   2.990  10.026   5.330  2.1636 -2.8059  0.5450
11078SOL     OW45212   2.469   6.206   6.142  0.6613  0.4384  0.0965
11078SOL    HW145213   2.404   6.136   6.135  1.4289 -0.4252  1.1527
11078SOL    HW245214   2.463   6.254   6.060 -1.2009  0.2970  0.1124
11079SOL     OW45215   5.379  12.260  12.540  0.8212  0.5472 -0.0848
11079SOL    HW145216   5.289  12.239  12.563  0.8799  2.3552  2.1665
11079SOL    HW245217   5.372  12.338  12.484  0.9464 -0.8131 -2.1201
11080SOL     OW45218   0.453  13.840   9.676  0.4307 -0.1247 -0.9111
11080SOL    HW145219   0.548  13.825   9.681  0.3287 -1.0120 -1.4462
11080SOL    HW245220   0.445  13.930   9.644  1.0680  1.2932  2.5013
11081SOL     OW45221  13.489   0.220  10.074 -0.2963  0.2253 -0.2007
11081SOL    HW145222  13.562   0.261  10.122 -0.4168  3.0176 -2.1108
11081SOL    HW245223  13.531   0.175  10.001 -0.3990  2.1449 -1.5124
11082SOL     OW45224   7.907  13.428   5.075  0.3436  0.2558 -0.8474
11082SOL    HW145225   7.985  13.387   5.038  1.4750 -1.4502  2.9598
11082SOL    HW245226   7.939  13.508   5.116 -0.4320  0.8526 -1.3660
11083SOL     OW45227   8.287   4.593   9.377  0.3508 -0.3643  0.6302
11083SOL    HW145228   8.246   4.583   9.291 -0.8307 -2.1914  1.3758
11083SOL    HW245229   8.377   4.619   9.357 -0.3326  0.8855 -1.0936
11084SOL     OW45230   0.644   6.594   6.069  0.0652  0.0295 -0.3921
11084SOL    HW145231   0.687   6.673   6.102  1.0310 -0.3373 -0.7255
11084SOL    HW245232   0.646   6.604   5.974 -1.6568  0.5400 -0.4087
11085SOL     OW45233  13.205   3.133   0.485  0.2448  0.2052  0.1458
11085SOL    HW145234  13.196   3.218   0.441 -0.6462  0.8808  1.5366
11085SOL    HW245235  13.270   3.148   0.553 -1.8708  0.6470  2.2174
11086SOL     OW45236   2.138   9.055   6.568  0.4405 -0.0660 -0.0105
11086SOL    HW145237   2.201   9.032   6.636 -0.1096  0.1444  0.5897
11086SOL    HW245238   2.139   9.151   6.566  0.1340 -0.0596  0.0202
11087SOL     OW45239   6.330   3.184   4.568 -0.1351  0.0938 -0.7478
11087SOL    HW145240   6.377   3.138   4.637 -0.8756  2.5291  1.5454
11087SOL    HW245241   6.313   3.271   4.604 -0.3328  1.6207 -4.1402
11088SOL     OW45242   3.331   4.019  13.264  0.0481 -0.1960 -0.1226
11088SOL    HW145243   3.423   3.992  13.268 -0.3823 -2.3723 -2.6025
11088SOL    HW245244   3.286   3.945  13.223 -2.7659  0.9837  0.6520
11089SOL     OW45245  10.836  13.649   8.136  0.3572 -0.2502  0.0962
11089SOL    HW145246  10.916  13.655   8.084  0.9349  2.3378  1.1501
11089SOL    HW245247  10.848  13.711   8.207 -2.8687  0.8595 -0.1313
11090SOL     OW45248   2.002  11.313   5.644  0.5387  0.3247  0.2933
11090SOL    HW145249   1.952  11.240   5.680 -1.4022  1.5857  0.3128
11090SOL    HW245250   2.019  11.289   5.553 -1.3188  0.4103 -0.1137
11091SOL     OW45251   9.714   2.909  10.970 -0.3109  0.0442  0.5771
11091SOL    HW145252   9.809   2.914  10.985  0.0609  1.7042 -1.7932
11091SOL    HW245253   9.676   2.953  11.045  1.0992  3.3153 -0.4676
11092SOL     OW45254  10.608   3.758   7.677  0.2296 -0.2512 -0.0646
11092SOL    HW145255  10.517   3.761   7.646  0.1600 -2.1630 -0.1349
11092SOL    HW245256  10.659   3.741   7.598  1.0518  3.5571 -0.5588
11093SOL     OW45257   5.773   6.922   0.118  0.0443  0.0087 -0.1737
11093SOL    HW145258   5.806   7.010   0.098 -1.4376  0.5719 -0.2557
11093SOL    HW245259   5.827   6.864   0.064  1.2759  0.8147  0.1358
11094SOL     OW45260  13.773  10.711  10.645  0.5647 -0.0263  0.2429
11094SOL    HW145261  13.860  10.673  10.632  0.4148 -0.2192 -0.1925
11094SOL    HW245262  13.790  10.801  10.672  0.8875  0.1303 -0.4775
11095SOL     OW45263   0.953  12.172   8.848  0.0085 -0.3782 -0.0464
11095SOL    HW145264   0.958  12.156   8.754  0.8919 -1.2496  0.1274
11095SOL    HW245265   0.998  12.256   8.861  0.4717 -0.5777 -0.3346
11096SOL     OW45266   6.935   8.017   0.873  0.7818  0.9707  0.8632
11096SOL    HW145267   6.864   8.080   0.886 -0.2824 -0.0457  0.1881
11096SOL    HW245268   6.970   8.002   0.961  0.2550  1.5856  1.1829
11097SOL     OW45269  10.820   0.760   9.552  0.2778  0.0982 -0.5471
11097SOL    HW145270  10.840   0.692   9.616  1.9621 -0.4971 -1.6320
11097SOL    HW245271  10.806   0.839   9.604  0.5031 -0.6032  0.6090
11098SOL     OW45272   2.728  12.108   4.250 -0.4697 -0.1524 -0.0278
11098SOL    HW145273   2.641  12.131   4.216  0.4894  1.1129 -1.7564
11098SOL    HW245274   2.763  12.046   4.187 -0.3837 -1.2761  1.0851
11099SOL     OW45275   9.002  12.028   8.950  0.2379 -0.1844  0.3468
11099SOL    HW145276   9.028  12.022   9.042  2.1474 -3.9287 -0.2528
11099SOL    HW245277   9.062  12.093   8.912  0.5709  0.1336  1.3969
11100SOL     OW45278   2.163   7.146   8.096  0.5915 -0.2743 -0.1060
11100SOL    HW145279   2.168   7.092   8.017  1.9594 -1.5122  0.7599
11100SOL    HW245280   2.166   7.083   8.168  0.5927  0.8861  0.9470
11101SOL     OW45281   3.302  13.307  12.719  0.1644  0.4461 -0.0905
11101SOL    HW145282   3.288  13.244  12.789  0.8982  0.1749 -0.1762
11101SOL    HW245283   3.218  13.313  12.674 -0.1264  0.1301  0.4083
11102SOL     OW45284   8.495  13.508   9.893 -0.1118  0.4659  0.3412
11102SOL    HW145285   8.488  13.486   9.801 -2.1119  2.2801 -0.0216
11102SOL    HW245286   8.405  13.507   9.925  0.5971 -0.8476  2.4985
11103SOL     OW45287   4.337   0.505   4.768  0.1160  0.1066  0.1535
11103SOL    HW145288   4.325   0.530   4.859  1.2192 -0.3360  0.4434
11103SOL    HW245289   4.430   0.522   4.751 -0.0379  0.0121 -0.8338
11104SOL     OW45290   7.719   1.639  12.266  0.4115  0.0059 -0.1037
11104SOL    HW145291   7.683   1.556  12.234  1.8567 -1.4376  1.7165
11104SOL    HW245292   7.649   1.677  12.320  0.0521 -0.5044 -0.2021
11105SOL     OW45293  10.809  11.732   3.121  0.1670 -0.4902  0.6894
11105SOL    HW145294  10.899  11.764   3.125  0.0051 -0.0897  1.4633
11105SOL    HW245295  10.804  11.665   3.190 -0.3435  0.0854  1.2269
11106SOL     OW45296   0.692   9.614  13.842  0.2287  0.6687 -0.0239
11106SOL    HW145297   0.639   9.613  13.763  1.6091  0.1271 -0.9740
11106SOL    HW245298   0.714   9.523  13.858 -0.3238  0.7191  1.2251
11107SOL     OW45299   3.889   7.149  10.924 -0.3853 -0.4249 -0.5988
11107SOL    HW145300   3.817   7.158  10.986 -0.5950 -0.1722 -0.8781
11107SOL    HW245301   3.855   7.089  10.857  0.2141 -1.5575  0.0850
11108SOL     OW45302  10.889  12.047  10.212 -0.3241  0.0908 -0.3262
11108SOL    HW145303  10.890  12.039  10.307  0.1404  2.4498 -0.0708
11108SOL    HW245304  10.958  11.986  10.182  0.1585  0.0087  0.9062
11109SOL     OW45305   3.001   5.944  11.717  0.1385 -0.2755 -0.4331
11109SOL    HW145306   3.050   5.956  11.635  1.9439 -0.4441  0.5679
11109SOL    HW245307   3.032   6.015  11.774 -0.4783 -0.6455  0.3756
11110SOL     OW45308   1.293   6.625   5.792 -0.6978  0.0627  0.0901
11110SOL    HW145309   1.264   6.716   5.782  0.8550  0.4059 -2.0122
11110SOL    HW245310   1.388   6.631   5.803 -0.3983 -1.3260 -1.3204
11111SOL     OW45311   4.368   0.010   7.574  0.1314  0.5601  0.2482
11111SOL    HW145312   4.367   0.042   7.484 -2.6252  2.0307  0.6977
11111SOL    HW245313   4.449   0.044   7.611  0.7419  0.9112 -1.3320
11112SOL     OW45314   5.093  12.047   9.839  0.2569 -0.5361  0.2052
11112SOL    HW145315   5.020  12.059   9.900 -0.2099 -0.1227 -0.4162
11112SOL    HW245316   5.051  12.036   9.753  0.9465  1.1095 -0.3861
11113SOL     OW45317  13.690   7.534  13.508 -0.5301 -0.5498  0.2021
11113SOL    HW145318  13.779   7.504  13.530 -1.1804 -2.4732  0.4653
11113SOL    HW245319  13.641   7.453  13.493 -2.5446  0.3984  1.2200
11114SOL     OW45320   7.481  13.671   5.836  0.5212  0.0849  0.3468
11114SOL    HW145321   7.527  13.648   5.916  0.8137  0.4324  0.2803
11114SOL    HW245322   7.543  13.724   5.786 -0.2094  1.2638  0.6242
11115SOL     OW45323   4.632   1.641   2.364  0.0383 -0.6850 -0.4781
11115SOL    HW145324   4.564   1.672   2.304  0.0271 -0.5316 -0.3857
11115SOL    HW245325   4.711   1.635   2.309  0.4246  1.0045 -0.1738
11116SOL     OW45326  10.659   7.281   2.415 -0.3877 -0.1240 -0.0501
11116SOL    HW145327  10.727   7.254   2.476  0.6549  1.0936 -0.6161
11116SOL    HW245328  10.702   7.347   2.360 -0.9174 -1.9948 -2.8913
11117SOL     OW45329   5.848  12.458   2.136  0.2075 -0.7373  0.2840
11117SOL    HW145330   5.797  12.440   2.058  0.4499  0.3420 -0.1389
11117SOL    HW245331   5.874  12.550   2.128  2.1979 -1.2383  0.4898
11118SOL     OW45332   4.336   4.748   7.053 -0.5010 -0.2001  0.0847
11118SOL    HW145333   4.243   4.739   7.031 -0.3636  0.2225 -0.7265
11118SOL    HW245334   4.354   4.841   7.040 -0.0880 -0.1838  0.7535
11119SOL     OW45335  10.798   7.067   6.495 -0.0691  0.0400  0.1264
11119SOL    HW145336  10.872   7.112   6.535 -0.4097 -0.4487  1.3506
11119SOL    HW245337  10.817   6.974   6.506  0.6889 -0.2069 -2.4860
11120SOL     OW45338   4.806   8.602  13.849  0.2428  0.0293  0.5144
11120SOL    HW145339   4.810   8.549  13.929 -2.1391 -2.9615 -1.1444
11120SOL    HW245340   4.749   8.675  13.872  0.2753 -0.3147  1.7847
11121SOL     OW45341   6.483  10.308  12.752 -0.6205 -0.0683 -0.1783
11121SOL    HW145342   6.459  10.368  12.821  0.2208 -1.5674  1.5090
11121SOL    HW245343   6.565  10.343  12.716  0.4402 -0.6808  1.5104
11122SOL     OW45344   3.671   4.619   6.996 -0.0258  0.3696 -0.3003
11122SOL    HW145345   3.680   4.590   7.087  0.2843  0.0629 -0.4241
11122SOL    HW245346   3.739   4.686   6.986  1.1759 -0.8937 -0.8162
11123SOL     OW45347   8.960   7.889   1.286 -0.4891  0.4601 -0.7993
11123SOL    HW145348   8.935   7.902   1.377  0.1305  2.5565 -0.8746
11123SOL    HW245349   8.888   7.928   1.236 -0.8663 -0.7488 -1.2354
11124SOL     OW45350  13.404   7.707  13.489 -0.2445  0.1864 -0.0472
11124SOL    HW145351  13.439   7.620  13.468 -1.4724 -0.5848  0.9674
11124SOL    HW245352  13.471   7.748  13.543  0.0126 -0.4332  0.1080
11125SOL     OW45353  10.661   3.453   2.508 -0.8239 -0.4262 -0.0429
11125SOL    HW145354  10.589   3.431   2.568  0.1840 -0.9680  1.0002
11125SOL    HW245355  10.626   3.525   2.455 -1.2284  1.1927  2.2522
11126SOL     OW45356  12.853   8.185  12.724  0.5924  0.7417  0.6432
11126SOL    HW145357  12.804   8.120  12.775  0.2321 -0.3035 -0.9365
11126SOL    HW245358  12.818   8.269  12.752  1.1130  0.3002  2.8063
11127SOL     OW45359   1.003   5.277  12.450 -0.1424 -0.3211 -0.7632
11127SOL    HW145360   0.974   5.211  12.513 -0.0673  0.8523  0.5504
11127SOL    HW245361   1.012   5.357  12.502  0.1692  0.6290 -2.2291
11128SOL     OW45362   5.391   2.093   4.409 -0.0453  0.2401 -0.1707
11128SOL    HW145363   5.467   2.070   4.355  0.7547 -1.2020  1.4831
11128SOL    HW245364   5.399   2.188   4.422 -0.6621  0.7967 -3.0636
11129SOL     OW45365   7.651   1.452  10.117  0.4499 -0.5153 -0.0881
11129SOL    HW145366   7.714   1.496  10.060  0.6835 -0.9718 -0.1865
11129SOL    HW245367   7.577   1.434  10.060  0.3942 -0.3438 -0.0712
11130SOL     OW45368   4.941   0.421   2.179  0.0726 -0.2419  0.5078
11130SOL    HW145369   4.998   0.368   2.123  1.5112 -1.2098  2.7487
11130SOL    HW245370   4.997   0.492   2.210 -1.1604  1.2403 -0.4956
11131SOL     OW45371   8.696   7.802   4.452  0.1751  0.3562  0.1605
11131SOL    HW145372   8.756   7.801   4.527  0.6402 -0.5857 -0.2106
11131SOL    HW245373   8.645   7.882   4.464 -1.0099 -0.6615  2.4513
11132SOL     OW45374   6.307   6.605  11.475  0.4400  0.0624 -0.1192
11132SOL    HW145375   6.243   6.631  11.541 -0.0873 -2.1871  0.3086
11132SOL    HW245376   6.255   6.560  11.408  1.7098 -4.8107  1.7575
11133SOL     OW45377   0.651   5.645   2.633 -0.3401  0.0141  0.5979
11133SOL    HW145378   0.677   5.719   2.578  0.9603 -0.3782  0.6329
11133SOL    HW245379   0.565   5.620   2.601 -0.0246  0.4030 -0.6210
11134SOL     OW45380   7.738   1.379   9.158 -0.1308  0.1534 -0.1225
11134SOL    HW145381   7.717   1.334   9.240  0.0462  0.4555  0.0889
11134SOL    HW245382   7.716   1.315   9.090  1.4769 -0.8235  0.2170
11135SOL     OW45383   5.827   4.803   1.273 -0.0577 -0.2111  0.0678
11135SOL    HW145384   5.794   4.714   1.287  0.1642 -0.5094 -1.2090
11135SOL    HW245385   5.843   4.808   1.179  1.4798  0.6510  0.3529
11136SOL     OW45386   9.999   0.468  11.739 -1.0578  0.1140 -0.1210
11136SOL    HW145387  10.043   0.458  11.824 -0.2122 -1.2337 -0.6861
11136SOL    HW245388   9.915   0.509  11.761 -0.2304  1.2245  1.1787
11137SOL     OW45389   4.915   2.456   7.351  0.1254  0.2579  0.4280
11137SOL    HW145390   4.909   2.410   7.268  1.0322 -0.8841  0.9581
11137SOL    HW245391   4.887   2.392   7.416 -1.0537  1.2845  0.9918
11138SOL     OW45392   4.354  12.072   4.655  0.4305  0.2667  0.0601
11138SOL    HW145393   4.261  12.051   4.667 -0.1484  2.2948 -0.4482
11138SOL    HW245394   4.367  12.070   4.560  0.6788  0.7680  0.0762
11139SOL     OW45395  10.671   8.529   9.021 -0.0144  0.2228 -0.1401
11139SOL    HW145396  10.711   8.443   9.035 -1.0679 -0.1455  0.7041
11139SOL    HW245397  10.598   8.532   9.082 -0.4623  1.4241 -0.7041
11140SOL     OW45398  10.693   9.660   8.253  0.3537 -0.0876  0.3330
11140SOL    HW145399  10.601   9.674   8.276  0.5718  0.5660  0.8478
11140SOL    HW245400  10.690   9.603   8.176 -0.5853  2.1048 -1.3647
11141SOL     OW45401   5.108  12.789  12.353 -0.2457 -0.1846 -0.0424
11141SOL    HW145402   5.044  12.814  12.286  0.5455  0.5161 -0.5611
11141SOL    HW245403   5.186  12.840  12.331 -0.5091  1.4361  2.4455
11142SOL     OW45404   5.023   0.800   5.623 -0.3923  0.2813  0.4576
11142SOL    HW145405   4.934   0.816   5.653 -1.0294 -1.4434 -0.3975
11142SOL    HW245406   5.040   0.708   5.645  1.2612  0.6162  0.7723
11143SOL     OW45407  12.654   8.681  10.412 -0.2275 -0.2379  0.0395
11143SOL    HW145408  12.610   8.745  10.356  0.9985 -0.1311 -0.8596
11143SOL    HW245409  12.669   8.606  10.355 -0.5726 -0.8512  0.7468
11144SOL     OW45410   9.124   2.109  13.330  0.5454 -0.7231 -0.2407
11144SOL    HW145411   9.207   2.072  13.300  1.2792 -0.6853  1.5985
11144SOL    HW245412   9.150   2.179  13.391 -0.8326  1.0041 -1.5441
11145SOL     OW45413   4.573   6.800   3.696 -0.0907 -0.7285 -0.0965
11145SOL    HW145414   4.605   6.795   3.607  1.9792 -0.0280  0.5634
11145SOL    HW245415   4.538   6.888   3.705  1.3478 -0.1718  0.2707
11146SOL     OW45416  13.558   6.363   8.439  0.2129 -0.2671  0.3734
11146SOL    HW145417  13.496   6.346   8.509 -0.2331 -0.6434 -0.1000
11146SOL    HW245418  13.636   6.312   8.463  0.3803  0.2810  1.0138
11147SOL     OW45419   9.394   5.541   6.345 -0.0881  0.0294 -0.0520
11147SOL    HW145420   9.349   5.602   6.286 -1.2590  0.7636  1.4998
11147SOL    HW245421   9.483   5.574   6.350 -0.5429  1.2918  0.2767
11148SOL     OW45422  10.913   2.116  12.166 -0.1062 -0.0652 -0.3883
11148SOL    HW145423  10.926   2.198  12.215 -0.1857  0.3230 -1.0117
11148SOL    HW245424  10.929   2.140  12.075 -4.3404  0.3576 -1.2680
11149SOL     OW45425   3.265   1.192  12.943 -0.6858  0.0323  0.3619
11149SOL    HW145426   3.298   1.119  12.891  2.5884 -0.6978  3.0633
11149SOL    HW245427   3.329   1.262  12.928  0.2207 -0.1235  3.0264
11150SOL     OW45428   0.475   0.098   5.694  0.0985 -0.0037 -0.0362
11150SOL    HW145429   0.519   0.168   5.742  2.4249 -1.7584  0.5772
11150SOL    HW245430   0.388   0.133   5.676  0.0069  1.8110  3.0795
11151SOL     OW45431  13.911   6.411   1.542 -0.7611  0.1306  0.6221
11151SOL    HW145432  13.969   6.440   1.613  0.1612 -0.1329 -0.0148
11151SOL    HW245433  13.911   6.483   1.479 -1.4319  0.2847  0.7834
11152SOL     OW45434   2.698   4.955   7.787 -0.6708  0.2114 -1.0060
11152SOL    HW145435   2.693   5.025   7.722 -2.4429  1.5764  0.4840
11152SOL    HW245436   2.608   4.923   7.795 -0.4304 -0.1879  0.4710
11153SOL     OW45437   9.319   0.299   9.821 -0.0273 -0.3584  0.0636
11153SOL    HW145438   9.248   0.236   9.837 -0.4338 -0.2663 -1.3064
11153SOL    HW245439   9.331   0.299   9.726  2.4108 -0.9921  0.3069
11154SOL     OW45440   8.335   0.833   5.392  0.7826 -0.1864  0.4196
11154SOL    HW145441   8.281   0.817   5.315 -0.1461 -0.1126  1.0475
11154SOL    HW245442   8.287   0.899   5.442  0.2484 -1.8365  2.1711
11155SOL     OW45443   8.944  13.290   2.293 -0.2694 -0.4515  0.1807
11155SOL    HW145444   8.970  13.354   2.360  0.0233  0.5242 -0.8397
11155SOL    HW245445   8.884  13.339   2.236  0.5013 -0.8678 -1.0197
11156SOL     OW45446   8.316   2.712  11.748 -0.3188  0.0987  0.0692
11156SOL    HW145447   8.403   2.703  11.786  0.3639 -3.4271 -1.8791
11156SOL    HW245448   8.317   2.798  11.704  2.9420 -0.6084 -1.5197
11157SOL     OW45449  10.094  12.531   9.486 -0.2812  0.1915  0.5414
11157SOL    HW145450  10.175  12.489   9.459  0.1119  0.5260  1.1863
11157SOL    HW245451  10.115  12.624   9.491 -0.6919  0.2773  0.7291
11158SOL     OW45452   7.042   4.108  11.991 -0.1108  0.1432  0.4630
11158SOL    HW145453   6.968   4.106  12.052  0.3405  0.3771  1.0332
11158SOL    HW245454   7.103   4.043  12.025  0.6003  1.0007  0.8682
11159SOL     OW45455   4.492   1.866   0.293 -0.6895 -0.2412 -0.5735
11159SOL    HW145456   4.476   1.789   0.238  0.0230 -1.0906  0.3760
11159SOL    HW245457   4.533   1.831   0.372  2.2941  1.4072 -1.2718
11160SOL     OW45458   6.047   3.617   1.040  0.2352  0.2817 -0.0445
11160SOL    HW145459   5.972   3.577   0.995 -1.0215  0.9518  1.3547
11160SOL    HW245460   6.041   3.584   1.130  2.7509 -1.1328 -0.3028
11161SOL     OW45461   4.166  10.691   0.642 -0.1850  0.2163  0.8450
11161SOL    HW145462   4.163  10.596   0.653 -2.6568 -0.3854 -2.9119
11161SOL    HW245463   4.077  10.714   0.613  1.1129  3.1298 -1.3664
11162SOL     OW45464   2.814   7.455   1.477 -0.0303 -0.2308 -0.4283
11162SOL    HW145465   2.733   7.504   1.491 -0.6402 -1.7759  2.3119
11162SOL    HW245466   2.796   7.369   1.515  2.5092 -1.0348 -0.8710
11163SOL     OW45467   5.010   2.530  11.832 -0.1867 -0.2922  0.4093
11163SOL    HW145468   5.030   2.555  11.922  0.1214 -1.6024  0.7284
11163SOL    HW245469   5.093   2.538  11.786 -0.6375  1.7521 -0.1242
11164SOL     OW45470   0.074   6.590   5.954 -0.1337 -0.5293 -0.4003
11164SOL    HW145471   0.168   6.576   5.970 -0.2087  0.4976  1.1685
11164SOL    HW245472   0.044   6.639   6.031 -2.1560 -1.6296 -0.4265
11165SOL     OW45473   1.208  12.583   8.398  0.9288 -0.1011  0.2186
11165SOL    HW145474   1.181  12.573   8.489  3.3402  0.9029  1.1387
11165SOL    HW245475   1.169  12.666   8.370  0.5058 -0.2142  0.4598
11166SOL     OW45476  10.672   6.410  11.222  0.1926  0.4347 -0.2583
11166SOL    HW145477  10.668   6.470  11.296  1.7916  1.7648 -1.1640
11166SOL    HW245478  10.690   6.467  11.147 -0.3596 -0.9756 -1.5071
11167SOL     OW45479   9.716   8.660   2.019 -0.2069  0.2071  0.2437
11167SOL    HW145480   9.631   8.690   2.051 -0.4544 -0.3102  0.0923
11167SOL    HW245481   9.700   8.570   1.990  0.2669  0.2919 -0.2943
11168SOL     OW45482   8.320  13.512   9.098  0.1256 -0.3101 -0.4881
11168SOL    HW145483   8.279  13.467   9.172 -0.6486 -0.1218 -0.7905
11168SOL    HW245484   8.332  13.602   9.129 -0.7956 -0.0698 -0.8065
11169SOL     OW45485  10.823  10.296  12.189  0.3724  0.0226  0.5028
11169SOL    HW145486  10.896  10.357  12.185  1.2190 -0.9388  0.7104
11169SOL    HW245487  10.755  10.335  12.135  0.6357  1.4560  1.1563
11170SOL     OW45488   8.041   5.770   8.765  1.5091 -0.2177  0.1228
11170SOL    HW145489   8.049   5.691   8.819  1.7420 -0.6836 -0.5767
11170SOL    HW245490   7.988   5.830   8.817  0.0387 -1.4062  0.0551
11171SOL     OW45491   6.814   1.319   2.947 -0.0138  0.3559  0.3243
11171SOL    HW145492   6.795   1.394   2.890  0.2224 -0.9909 -1.6024
11171SOL    HW245493   6.743   1.257   2.929  0.3370 -0.3063  1.1702
11172SOL     OW45494  13.403   9.673   9.861  0.2167  0.2131  0.3722
11172SOL    HW145495  13.334   9.711   9.916  0.8281 -0.2547  1.4848
11172SOL    HW245496  13.480   9.727   9.878  0.3259  0.2798 -0.3086
11173SOL     OW45497  13.702   9.587   6.081  1.0249  0.1374 -0.3309
11173SOL    HW145498  13.715   9.508   6.029  1.2407 -0.7927  1.0746
11173SOL    HW245499  13.608   9.591   6.096  1.2125 -1.1552  1.4814
11174SOL     OW45500   7.196  11.076  13.606  0.2660  0.4681  0.1521
11174SOL    HW145501   7.237  11.007  13.554  1.3074  0.4216  1.0041
11174SOL    HW245502   7.103  11.056  13.604  0.3213  0.2500 -1.3654
11175SOL     OW45503   9.748  13.365   1.184 -0.1562  0.1254  0.2437
11175SOL    HW145504   9.721  13.328   1.268 -1.8209  0.3554 -0.1469
11175SOL    HW245505   9.692  13.321   1.120  0.1363  0.9325 -0.5895
11176SOL     OW45506   1.831   7.837   7.513  0.2262 -0.7360 -0.4907
11176SOL    HW145507   1.762   7.874   7.569  0.0041 -2.5793  0.5468
11176SOL    HW245508   1.907   7.892   7.529 -0.3496 -0.1177  0.2120
11177SOL     OW45509   6.132   1.228   0.068  0.4752 -0.0082  0.4725
11177SOL    HW145510   6.071   1.260   0.134  0.3575  0.1205  0.3016
11177SOL    HW245511   6.161   1.306   0.022 -0.9069 -0.2383 -0.8981
11178SOL     OW45512  13.374   1.556  11.135 -0.4475 -0.1913 -0.5184
11178SOL    HW145513  13.466   1.581  11.147 -0.8079  3.1014 -3.1935
11178SOL    HW245514  13.375   1.504  11.054 -1.0501  0.9470 -1.2712
11179SOL     OW45515   7.105   5.653   5.034  0.1121 -0.1326 -0.2769
11179SOL    HW145516   7.139   5.674   4.947  1.0802 -0.3999  0.0294
11179SOL    HW245517   7.136   5.564   5.052 -2.8492 -1.4359 -1.0110
11180SOL     OW45518   1.012   5.579   0.122 -0.1351 -0.6948  0.5587
11180SOL    HW145519   1.060   5.519   0.180  0.0759  0.1535  1.2935
11180SOL    HW245520   0.936   5.607   0.174 -1.4180 -1.9668 -0.5681
11181SOL     OW45521  10.894   8.840   3.622 -0.0393 -0.1202 -0.1743
11181SOL    HW145522  10.886   8.926   3.581  0.5249 -0.2144 -0.4973
11181SOL    HW245523  10.967   8.850   3.684 -0.8020 -0.0148  0.7207
11182SOL     OW45524   9.575   6.587   5.065  0.0725 -0.8761 -0.3622
11182SOL    HW145525   9.657   6.595   5.115  0.2670 -1.8355 -0.5105
11182SOL    HW245526   9.589   6.513   5.007 -0.4175 -0.2049 -1.3672
11183SOL     OW45527  10.749   7.368   2.759  0.2173  0.9546  0.2342
11183SOL    HW145528  10.811   7.384   2.688 -0.6140 -0.8746 -1.0012
11183SOL    HW245529  10.798   7.314   2.822  0.3096  0.7156 -0.0408
11184SOL     OW45530   7.764   5.542   6.590  0.1658  0.8099 -0.3973
11184SOL    HW145531   7.786   5.629   6.623 -0.2355  1.4391 -1.7278
11184SOL    HW245532   7.831   5.485   6.627  0.6063  1.7295  0.2636
11185SOL     OW45533   4.736  13.448   0.043 -0.0333  0.0854 -0.1013
11185SOL    HW145534   4.797  13.442   0.116 -0.8192 -1.2907  0.4800
11185SOL    HW245535   4.675  13.518   0.067  1.0595  1.2145 -0.5189
11186SOL     OW45536   3.046   3.695  11.608  0.2263 -0.0012  0.1067
11186SOL    HW145537   2.979   3.694  11.676  0.6369 -1.1747  0.5199
11186SOL    HW245538   2.999   3.678  11.527 -0.0445 -0.3527  0.3363
11187SOL     OW45539  11.533   8.269   8.619  0.5007 -0.5520 -0.1111
11187SOL    HW145540  11.555   8.201   8.683  5.3281  1.7493  1.1585
11187SOL    HW245541  11.502   8.342   8.672  0.6407  0.0353 -0.8218
11188SOL     OW45542   1.310  13.751   4.451 -0.3936  0.0360  0.3791
11188SOL    HW145543   1.296  13.846   4.445  0.7467  0.1365 -1.3011
11188SOL    HW245544   1.404  13.740   4.438 -0.9697 -1.5443 -4.4659
11189SOL     OW45545   7.265  13.054   9.571  0.0564  0.0980 -0.5705
11189SOL    HW145546   7.309  13.061   9.486  0.7345  0.2064 -0.2214
11189SOL    HW245547   7.334  13.025   9.630 -0.5233 -0.4358 -0.1468
11190SOL     OW45548   4.221   0.194   8.919  0.1792 -0.0193 -0.3371
11190SOL    HW145549   4.247   0.262   8.858  0.9000 -1.6009 -1.8944
11190SOL    HW245550   4.304   0.155   8.948 -0.1989  0.0148  0.8639
11191SOL     OW45551   8.088   5.788  10.557 -0.2730 -0.3591 -0.1606
11191SOL    HW145552   8.179   5.759  10.562  0.1719  1.0187  0.2987
11191SOL    HW245553   8.080   5.856  10.624 -1.1648  0.7409 -1.3087
11192SOL     OW45554  11.200   5.245   1.979 -0.6840  0.1296 -0.6451
11192SOL    HW145555  11.212   5.337   1.955  1.4104 -0.0042 -0.2791
11192SOL    HW245556  11.135   5.247   2.049 -1.3516  1.2151 -1.2547
11193SOL     OW45557   3.633   1.629   4.921 -0.2759 -0.4211 -0.4313
11193SOL    HW145558   3.645   1.662   4.832  1.9237 -2.8478 -1.1604
11193SOL    HW245559   3.546   1.590   4.920 -0.3494 -0.2702 -1.4938
11194SOL     OW45560   8.927   6.687  11.705 -0.4157  0.0162 -0.2563
11194SOL    HW145561   8.975   6.623  11.757  0.1109  0.3413 -0.3333
11194SOL    HW245562   8.836   6.659  11.711 -0.2047 -0.6869 -0.2172
11195SOL     OW45563   2.973   4.978   7.791  0.0582 -0.0056  0.5713
11195SOL    HW145564   2.879   4.960   7.795 -0.1703  0.8663 -0.5808
11195SOL    HW245565   2.980   5.073   7.794  0.8632 -0.0275 -0.2110
11196SOL     OW45566  11.139   8.000   2.264  0.1341  0.1264  0.3438
11196SOL    HW145567  11.049   7.993   2.232 -0.4752  0.3237  1.8917
11196SOL    HW245568  11.179   7.916   2.244 -0.8612 -0.4947  0.9122
11197SOL     OW45569  11.961  12.956   8.430 -0.1434  0.5593 -0.5934
11197SOL    HW145570  12.002  12.976   8.514 -1.6577  0.8223  0.1297
11197SOL    HW245571  11.967  13.038   8.381  1.1196  0.2839 -0.9198
11198SOL     OW45572   2.198  12.540   5.848 -0.5245  0.4610 -0.0113
11198SOL    HW145573   2.153  12.579   5.923 -1.2629 -0.9707  0.3128
11198SOL    HW245574   2.208  12.448   5.870  1.4277  0.4631 -0.6530
11199SOL     OW45575   4.382   4.810   7.329 -0.2550  0.1528  0.2000
11199SOL    HW145576   4.399   4.837   7.239 -2.7470  1.9243  0.1343
11199SOL    HW245577   4.315   4.742   7.321 -0.5978  0.4238  0.6920
11200SOL     OW45578   1.130  12.451   7.534 -0.3773 -0.1209 -0.4498
11200SOL    HW145579   1.097  12.376   7.583 -0.4578 -1.1869 -2.0470
11200SOL    HW245580   1.056  12.512   7.531 -0.4069 -0.0854  0.6077
11201SOL     OW45581   8.001   3.069  11.796 -0.8750 -0.1057  0.0197
11201SOL    HW145582   8.053   3.140  11.834 -0.0213 -0.9529  0.4751
11201SOL    HW245583   7.968   3.104  11.713 -0.5819  0.8594  0.3020
11202SOL     OW45584  12.518   3.003  13.875 -0.0303 -0.3066  0.1592
11202SOL    HW145585  12.521   2.946  13.953  0.5921  0.8143  0.9883
11202SOL    HW245586  12.497   2.944  13.803 -0.4613 -1.4105  1.1533
11203SOL     OW45587   0.702  12.930   5.589  0.5240 -0.1725  0.0578
11203SOL    HW145588   0.772  12.990   5.566 -0.0988 -0.2561 -2.2329
11203SOL    HW245589   0.739  12.843   5.578  0.4949 -0.2281  0.3638
11204SOL     OW45590  12.993  12.546   7.100 -0.1365 -0.1649  0.3777
11204SOL    HW145591  13.073  12.599   7.101 -1.1242  1.3943  0.4743
11204SOL    HW245592  12.986  12.512   7.189  0.2177 -0.0262  0.4608
11205SOL     OW45593   9.805   1.973   4.594  0.6100 -0.4303 -0.3806
11205SOL    HW145594   9.878   2.011   4.642 -0.7458  1.5839  0.2517
11205SOL    HW245595   9.832   1.978   4.502  1.6775 -0.7490 -0.1001
11206SOL     OW45596  13.698  12.273   9.787  0.0165 -0.3434 -0.2037
11206SOL    HW145597  13.668  12.313   9.869 -1.1221 -2.2137  0.3733
11206SOL    HW245598  13.792  12.289   9.786 -0.0202  0.1600  1.2278
11207SOL     OW45599   7.440   0.832   8.184 -0.4400 -0.0394 -0.8335
11207SOL    HW145600   7.507   0.764   8.189 -1.8960 -1.5222 -0.6658
11207SOL    HW245601   7.468   0.888   8.112  0.3445 -1.3461 -1.5742
11208SOL     OW45602   3.463  13.154   1.710  0.5113  0.0509 -0.3289
11208SOL    HW145603   3.558  13.168   1.710  0.3561  1.2245  0.2006
11208SOL    HW245604   3.450  13.078   1.767  1.0980  0.1931  0.0017
11209SOL     OW45605   2.077   1.305   1.762 -0.0286 -0.9746  0.0156
11209SOL    HW145606   2.083   1.349   1.677 -2.2730 -0.1229  0.2079
11209SOL    HW245607   2.014   1.234   1.747  1.6310 -2.6035  0.3566
11210SOL     OW45608   4.996   1.137   8.295  0.0733  0.7194 -0.0696
11210SOL    HW145609   5.072   1.183   8.333 -0.5711 -0.2329  2.6064
11210SOL    HW245610   4.923   1.197   8.309 -0.1579  0.3979  0.0964
11211SOL     OW45611   0.306  12.457   8.885  0.5378 -0.0425  0.3103
11211SOL    HW145612   0.214  12.433   8.872  0.3142  1.3880 -1.0562
11211SOL    HW245613   0.325  12.520   8.815  2.9988 -1.4265 -0.4057
11212SOL     OW45614   3.237  12.717   1.366  0.0886 -0.3317  0.1099
11212SOL    HW145615   3.279  12.762   1.440 -0.3171  0.1464  0.0554
11212SOL    HW245616   3.306  12.709   1.301 -0.8700  4.8552 -2.0400
11213SOL     OW45617  11.432  12.708  13.216 -0.3141  0.9530  0.2432
11213SOL    HW145618  11.429  12.802  13.199  0.8779  0.6561 -1.9293
11213SOL    HW245619  11.487  12.672  13.146 -0.1898 -1.2897  1.3909
11214SOL     OW45620   3.447  12.605   3.619 -0.3024 -0.3333 -0.0293
11214SOL    HW145621   3.516  12.538   3.623  0.0085 -0.0392 -0.4519
11214SOL    HW245622   3.393  12.588   3.697  0.1305 -0.6853  0.1985
11215SOL     OW45623  11.048   7.535   0.740 -0.2904 -0.3460 -0.6307
11215SOL    HW145624  11.039   7.552   0.646 -0.6981 -0.1830 -0.5655
11215SOL    HW245625  10.980   7.588   0.781  0.2468  0.0214 -0.1940
11216SOL     OW45626   6.876   5.783   2.270  0.0901  0.0749  0.1646
11216SOL    HW145627   6.947   5.740   2.222 -0.2691  0.3677 -0.6585
11216SOL    HW245628   6.894   5.877   2.260 -0.0166  0.1403  0.5700
11217SOL     OW45629   1.305   9.181  13.524 -0.3484  0.3849 -0.0253
11217SOL    HW145630   1.370   9.176  13.454  0.2798  0.1305  0.5596
11217SOL    HW245631   1.222   9.158  13.482  0.2616 -1.3543 -0.3628
11218SOL     OW45632   8.176  13.727  11.741 -0.2090 -0.1483 -0.2626
11218SOL    HW145633   8.183  13.665  11.814  0.5422 -0.8664 -0.9136
11218SOL    HW245634   8.254  13.710  11.688 -0.8447  0.1942 -1.3506
11219SOL     OW45635   3.142   6.208   2.436 -0.1998 -0.6045 -0.0285
11219SOL    HW145636   3.054   6.205   2.473 -0.5121 -0.0486 -0.7099
11219SOL    HW245637   3.133   6.260   2.357  0.6885 -0.7918 -0.2628
11220SOL     OW45638  12.498   4.128   5.127 -0.1965  0.0644 -0.0127
11220SOL    HW145639  12.534   4.130   5.216  0.1189 -0.1579 -0.1331
11220SOL    HW245640  12.504   4.219   5.097  1.2618 -0.1444 -0.4171
11221SOL     OW45641   3.577   2.775   4.987 -0.2971  0.0318 -0.4374
11221SOL    HW145642   3.530   2.823   4.919 -2.7994 -1.5848  0.0169
11221SOL    HW245643   3.566   2.828   5.066 -0.1977  0.3117 -0.6092
11222SOL     OW45644   5.013   2.632   6.565 -0.8128  0.2907  0.6012
11222SOL    HW145645   4.926   2.595   6.548 -0.9097 -0.5437  2.5959
11222SOL    HW245646   5.005   2.671   6.652  0.8726  0.0045  0.9066
11223SOL     OW45647   8.292   4.570   6.588 -0.0208 -0.2069 -0.3638
11223SOL    HW145648   8.291   4.543   6.496  1.1667 -1.1888 -0.1205
11223SOL    HW245649   8.242   4.503   6.633 -0.6599  0.3116 -0.2943
11224SOL     OW45650  12.269   8.338  12.744 -0.2765 -0.0279 -0.0323
11224SOL    HW145651  12.230   8.398  12.681  1.8924  0.6644 -0.8343
11224SOL    HW245652  12.237   8.367  12.829 -1.9240  0.0842 -0.6522
11225SOL     OW45653   8.090   9.637   2.639  0.0629 -0.2095  0.0614
11225SOL    HW145654   8.030   9.624   2.713  0.6780 -0.5555  0.5098
11225SOL    HW245655   8.174   9.607   2.672  0.6403  0.9269 -0.3232
11226SOL     OW45656   8.758   1.207   4.269  0.1945 -0.3328  0.7027
11226SOL    HW145657   8.813   1.154   4.212  1.4658  0.4836  1.1437
11226SOL    HW245658   8.669   1.176   4.252  0.7104 -1.1889 -0.5426
11227SOL     OW45659  10.805   3.495   4.928  0.2854  0.1202  0.0025
11227SOL    HW145660  10.800   3.446   4.846 -0.5425 -1.7120  1.0974
11227SOL    HW245661  10.715   3.505   4.956  0.3883  2.5378 -0.2466
11228SOL     OW45662  10.495   0.718   1.563  0.1358  0.6532  0.5162
11228SOL    HW145663  10.421   0.669   1.528 -0.9300  1.2126  1.9296
11228SOL    HW245664  10.463   0.808   1.572  0.6231  0.7064  2.0910
11229SOL     OW45665   6.090  13.701   4.259  0.3776  0.3297  0.5707
11229SOL    HW145666   6.007  13.732   4.297  0.1994 -0.3796  0.7810
11229SOL    HW245667   6.070  13.687   4.166  0.2709  0.1870  0.6155
11230SOL     OW45668   3.336  13.944   2.698  0.3287  0.6780 -0.4031
11230SOL    HW145669   3.274  13.971   2.630  0.1996  0.1642 -0.4894
11230SOL    HW245670   3.369  14.027   2.733 -0.0221  0.9528 -0.7044
11231SOL     OW45671   3.364   4.216   8.758 -0.4230  0.3259 -0.1517
11231SOL    HW145672   3.360   4.308   8.734  0.6397  0.4944  0.2212
11231SOL    HW245673   3.311   4.209   8.837  1.7943  1.2581  1.5221
11232SOL     OW45674  13.557   2.122   0.688 -0.4896  0.1078 -0.3110
11232SOL    HW145675  13.526   2.065   0.759 -0.0643  0.3101  0.0430
11232SOL    HW245676  13.573   2.207   0.730 -0.8338  0.4061 -0.7764
11233SOL     OW45677   6.252   9.145   6.997 -0.1474 -0.3669  0.6777
11233SOL    HW145678   6.187   9.201   7.040  1.4738  1.9579  0.3332
11233SOL    HW245679   6.336   9.183   7.022  0.9941 -1.8102 -0.7795
11234SOL     OW45680   4.812   7.052   6.134  0.3342  0.6420  0.8031
11234SOL    HW145681   4.889   7.018   6.180  0.2693 -1.6673 -0.6584
11234SOL    HW245682   4.764   7.101   6.201  2.1030  0.5076  2.2245
11235SOL     OW45683   6.318   3.027  10.288 -0.1549 -0.0335 -0.4688
11235SOL    HW145684   6.395   3.018  10.344  0.2064  0.1315 -0.9392
11235SOL    HW245685   6.330   2.962  10.219 -0.8284 -0.5642 -0.1081
11236SOL     OW45686   6.544  13.924   8.175 -0.6851 -0.0189 -0.0634
11236SOL    HW145687   6.613  13.976   8.134 -0.5092 -0.4636 -0.3271
11236SOL    HW245688   6.478  13.913   8.106  0.4265 -2.3281 -0.8490
11237SOL     OW45689   4.442   8.839   8.255  0.6571  0.2570 -0.8637
11237SOL    HW145690   4.457   8.914   8.313  1.4847  0.0494 -0.8001
11237SOL    HW245691   4.348   8.840   8.240  0.1992 -0.3620  1.4421
11238SOL     OW45692   3.479  11.290   8.467 -0.1693  0.0008  0.3457
11238SOL    HW145693   3.501  11.383   8.476 -0.0568 -0.1752  2.3549
11238SOL    HW245694   3.552  11.252   8.419 -1.3976  1.3473 -2.8594
11239SOL     OW45695  13.172   9.447  10.199 -0.0334  0.1446  0.4074
11239SOL    HW145696  13.242   9.409  10.144  0.1412 -0.8958  1.3090
11239SOL    HW245697  13.190   9.414  10.287 -2.0950 -0.8033  0.5374
11240SOL     OW45698   0.567  12.290  11.546 -0.0580  0.1870 -0.2842
11240SOL    HW145699   0.564  12.204  11.588  0.6524  0.5267  0.4967
11240SOL    HW245700   0.482  12.330  11.567  0.6149  0.6986  1.6399
11241SOL     OW45701   4.540   2.699   3.862 -0.1974 -0.1791  0.3384
11241SOL    HW145702   4.466   2.640   3.878 -0.4187 -1.0112 -2.9788
11241SOL    HW245703   4.616   2.641   3.862 -0.0459  0.0215 -0.0641
11242SOL     OW45704   3.322   9.050  11.741  0.4307  0.1732  0.0847
11242SOL    HW145705   3.353   8.963  11.764 -2.2581 -0.8815  0.0388
11242SOL    HW245706   3.247   9.065  11.798 -0.1328  1.8011 -1.0007
11243SOL     OW45707  13.748  13.546   0.241  0.0148  0.4293 -0.1498
11243SOL    HW145708  13.814  13.548   0.310  0.4437  0.2633 -0.5461
11243SOL    HW245709  13.782  13.605   0.174 -0.6064  0.9217 -0.0307
11244SOL     OW45710  11.232  11.406   2.229  0.0136  0.3723 -0.0698
11244SOL    HW145711  11.266  11.333   2.177  0.6571  1.7108 -1.5970
11244SOL    HW245712  11.310  11.454   2.258 -0.4352  1.1306 -0.0847
11245SOL     OW45713  10.343  12.908   8.385 -0.2469  0.4430  0.2495
11245SOL    HW145714  10.248  12.904   8.385 -0.2868  1.0767 -0.7311
11245SOL    HW245715  10.364  13.001   8.391  0.3245  0.2953  0.7561
11246SOL     OW45716   8.923   0.088   9.483 -0.2837  0.1854 -0.0130
11246SOL    HW145717   8.918  -0.006   9.466  1.9770 -0.0264  0.2103
11246SOL    HW245718   8.832   0.118   9.478 -0.9509 -1.8251 -1.0705
11247SOL     OW45719  10.614  13.727   6.213 -0.1164 -0.2345 -0.4773
11247SOL    HW145720  10.646  13.725   6.303 -1.4193 -1.2384 -0.0199
11247SOL    HW245721  10.521  13.750   6.220 -0.3284 -0.7034 -1.5331
11248SOL     OW45722  10.488   7.291  12.896 -0.7983  0.5864 -0.9379
11248SOL    HW145723  10.418   7.342  12.855 -1.9550 -0.6773 -0.5998
11248SOL    HW245724  10.472   7.301  12.990 -0.8686 -0.1455 -0.8639
11249SOL     OW45725   4.027   3.359   6.464 -0.0322 -0.1475 -0.0549
11249SOL    HW145726   4.071   3.376   6.380  1.8333  0.2472  0.9561
11249SOL    HW245727   3.979   3.440   6.482  0.4766  0.1876 -0.1925
11250SOL     OW45728   3.404   6.614  11.606 -0.1598 -0.6924 -0.1831
11250SOL    HW145729   3.326   6.562  11.627 -0.4278  0.0653  0.7883
11250SOL    HW245730   3.370   6.689  11.556  0.0763 -0.8546 -0.5912
11251SOL     OW45731   7.141  12.164   7.930 -0.2580 -0.5213  0.0218
11251SOL    HW145732   7.139  12.086   7.986 -2.1187 -0.5250  0.0264
11251SOL    HW245733   7.058  12.208   7.949  1.1549  2.0103  0.7477
11252SOL     OW45734   3.100   8.275   6.410  0.0256  0.3923  0.3213
11252SOL    HW145735   3.098   8.371   6.409 -0.1757  0.3873 -0.3722
11252SOL    HW245736   3.012   8.249   6.384 -0.0093  0.0124  0.8068
11253SOL     OW45737   0.144   7.688  10.297  0.2229  0.3020 -0.4646
11253SOL    HW145738   0.075   7.671  10.233 -1.8704 -0.1740  1.7729
11253SOL    HW245739   0.141   7.783  10.311  1.0301  0.4771 -1.3978
11254SOL     OW45740   3.466   8.199   4.933 -0.5469 -0.5665 -0.0302
11254SOL    HW145741   3.371   8.202   4.948 -0.7719 -2.0339 -0.9725
11254SOL    HW245742   3.476   8.149   4.853  1.0913 -1.5409  0.7393
11255SOL     OW45743  13.865   9.198   1.010  0.2431  0.1736 -0.0279
11255SOL    HW145744  13.929   9.130   1.030  1.3005  0.7077 -1.3847
11255SOL    HW245745  13.888   9.270   1.068 -0.8119 -0.5503  1.3353
11256SOL     OW45746  12.753   5.833   3.854 -0.2371 -0.2956 -0.0550
11256SOL    HW145747  12.675   5.777   3.852 -0.4339 -0.0067 -0.6020
11256SOL    HW245748  12.809   5.793   3.920 -1.2408  0.0005  1.0141
11257SOL     OW45749   1.093   6.783  12.061 -0.5887  0.0979 -0.4657
11257SOL    HW145750   1.128   6.772  11.973 -0.3591 -2.0443 -0.1626
11257SOL    HW245751   1.018   6.724  12.065 -0.0627 -0.5302  1.0070
11258SOL     OW45752  12.956   3.708   4.870  0.1380 -0.2266  0.0546
11258SOL    HW145753  13.016   3.752   4.810 -1.2605  1.4479 -0.1717
11258SOL    HW245754  13.010   3.684   4.945  1.1918  0.7972 -0.3544
11259SOL     OW45755  12.021   5.051   4.956 -0.1521 -0.0448  0.0968
11259SOL    HW145756  11.986   4.989   4.892 -0.3854 -1.6498  1.7016
11259SOL    HW245757  11.980   5.135   4.934 -3.3259 -1.3580  0.5208
11260SOL     OW45758   7.693  11.629   5.893 -0.4783 -0.2367  0.2242
11260SOL    HW145759   7.618  11.611   5.949 -0.4552 -0.4699  0.1809
11260SOL    HW245760   7.704  11.550   5.841 -0.1305 -0.2504  0.3141
11261SOL     OW45761   1.615  13.132   4.761  0.4792 -0.1223 -0.3726
11261SOL    HW145762   1.648  13.217   4.790  0.8182 -0.3544 -0.0642
11261SOL    HW245763   1.669  13.068   4.809  1.1939 -0.5201 -1.6469
11262SOL     OW45764   4.437   5.608   2.385  0.8656 -0.0929  0.0191
11262SOL    HW145765   4.342   5.617   2.395  0.9403  0.0316  0.6500
11262SOL    HW245766   4.458   5.524   2.426  0.8079 -0.9692 -1.6566
11263SOL     OW45767   5.786   1.396  10.731  0.4076  0.2196 -0.2133
11263SOL    HW145768   5.716   1.413  10.668  0.8737 -1.4727 -1.2653
11263SOL    HW245769   5.762   1.313  10.771  2.6291 -1.4118 -1.9356
11264SOL     OW45770  11.053  10.676   9.596  0.0064  0.2878 -0.8497
11264SOL    HW145771  11.020  10.766   9.592 -1.3246 -0.0223  1.3575
11264SOL    HW245772  10.975  10.621   9.586  0.6262 -0.5880 -1.0060
11265SOL     OW45773   8.553  10.823   0.192  0.2323 -0.1135 -0.3325
11265SOL    HW145774   8.640  10.783   0.201 -0.2459 -0.9601  0.6779
11265SOL    HW245775   8.517  10.783   0.113  0.0176 -1.2141  0.3067
11266SOL     OW45776   5.248   5.842   4.747  0.6033 -0.4952 -0.1902
11266SOL    HW145777   5.211   5.929   4.762  0.3611 -0.6032 -0.1660
11266SOL    HW245778   5.186   5.799   4.689  0.5767 -0.7556  0.0313
11267SOL     OW45779   0.853  12.126   2.097  0.3098 -0.5856 -0.4434
11267SOL    HW145780   0.910  12.095   2.168 -0.3652  0.1957  0.4588
11267SOL    HW245781   0.853  12.221   2.107 -1.2590 -0.5817 -0.3471
11268SOL     OW45782   7.967   1.140   2.794 -0.1227 -0.1019 -0.1650
11268SOL    HW145783   7.923   1.119   2.876 -2.4767  2.0199 -0.7635
11268SOL    HW245784   8.058   1.111   2.807 -1.3179 -3.7028  1.5526
11269SOL     OW45785   6.295   4.274   1.703 -0.1769 -0.0548  0.3242
11269SOL    HW145786   6.368   4.336   1.702 -0.3958  0.2243 -1.7956
11269SOL    HW245787   6.270   4.269   1.795  1.2301  1.3578  0.8330
11270SOL     OW45788   6.079   1.762  13.749 -0.0770  0.1073 -0.1171
11270SOL    HW145789   6.141   1.825  13.714 -0.4903  0.0332 -0.9982
11270SOL    HW245790   6.098   1.681  13.702  0.5084 -0.4719  1.0625
11271SOL     OW45791  13.872   9.397  13.421  0.1533 -0.1472 -0.0183
11271SOL    HW145792  13.867   9.435  13.333  1.7816  0.6259  0.1881
11271SOL    HW245793  13.815   9.452  13.474  0.8519  0.7230 -0.1592
11272SOL     OW45794   3.860   3.468   5.794 -0.1893 -0.1613  0.3105
11272SOL    HW145795   3.768   3.478   5.815 -0.0295 -0.8664  1.4199
11272SOL    HW245796   3.862   3.411   5.718 -0.6989  0.7220 -0.3792
11273SOL     OW45797   2.979   5.620   3.403  0.1449  0.2884  0.6045
11273SOL    HW145798   3.060   5.659   3.438  0.4942  2.0976 -1.9490
11273SOL    HW245799   2.913   5.687   3.419 -0.4578 -0.3733  0.9195
11274SOL     OW45800   1.596   8.365   2.526 -0.7482 -0.1870 -0.1810
11274SOL    HW145801   1.507   8.338   2.505 -1.0589  1.2848 -0.9282
11274SOL    HW245802   1.587   8.422   2.602 -0.4165 -0.2001 -0.1272
11275SOL     OW45803   3.445  11.695   9.356 -0.0167 -0.0011  0.4611
11275SOL    HW145804   3.350  11.698   9.354 -0.1685 -2.7023 -0.3731
11275SOL    HW245805   3.473  11.734   9.274 -0.2626  2.2113  1.3642
11276SOL     OW45806  11.993   2.444   9.774 -0.1596  0.1714  0.0571
11276SOL    HW145807  11.957   2.368   9.820  0.9838  0.0179  0.7507
11276SOL    HW245808  11.950   2.443   9.688 -0.4386 -1.0454  0.1908
11277SOL     OW45809   5.783   6.199   3.467  0.4828  0.7588 -0.4040
11277SOL    HW145810   5.843   6.163   3.531 -0.1135 -1.8158 -1.1571
11277SOL    HW245811   5.696   6.175   3.499  0.0451  1.5791 -0.9418
11278SOL     OW45812  10.837   2.318  10.992  0.1877 -0.0754 -0.7678
11278SOL    HW145813  10.845   2.255  11.063 -0.3268  0.7844  0.0708
11278SOL    HW245814  10.915   2.304  10.938  1.1562 -0.0095  0.5619
11279SOL     OW45815   5.987   3.786  10.273 -0.0643 -0.4744 -0.3372
11279SOL    HW145816   5.896   3.804  10.250 -0.4048  1.0034  1.8797
11279SOL    HW245817   5.987   3.696  10.305 -1.0387 -0.0769  0.8424
11280SOL     OW45818  11.414  11.698   0.422 -0.4240 -0.0271 -0.4183
11280SOL    HW145819  11.447  11.625   0.475  1.5934  0.9002 -0.3336
11280SOL    HW245820  11.368  11.754   0.484 -0.2421 -0.2041 -0.1235
11281SOL     OW45821   8.255   8.154   9.820  0.1044 -0.4263  0.0744
11281SOL    HW145822   8.240   8.220   9.887  0.1261 -0.6740  0.3246
11281SOL    HW245823   8.228   8.071   9.861 -0.9945 -0.4289 -0.6178
11282SOL     OW45824   2.297   5.308   0.992 -0.3170 -0.4313 -0.5537
11282SOL    HW145825   2.354   5.367   0.943 -0.3030  0.1168  0.1035
11282SOL    HW245826   2.271   5.359   1.069 -0.6690 -1.1256 -0.2081
11283SOL     OW45827   1.072  13.730   0.637  0.1945 -0.5510  0.0591
11283SOL    HW145828   1.115  13.792   0.695 -0.9812  0.3240  0.0481
11283SOL    HW245829   0.983  13.765   0.627  0.0639 -1.2370 -1.4368
11284SOL     OW45830   2.508   4.548   0.073 -0.1775 -0.3271 -0.2593
11284SOL    HW145831   2.483   4.552  -0.020  0.5753 -2.1122 -0.5775
11284SOL    HW245832   2.465   4.469   0.106 -0.3263  0.2152  0.8875
11285SOL     OW45833  12.896   4.296   2.503  0.1770  0.3102  0.5984
11285SOL    HW145834  12.899   4.217   2.449 -0.3862  1.5624 -1.3672
11285SOL    HW245835  12.803   4.317   2.509  0.4136  1.9099 -0.6405
11286SOL     OW45836   2.494   8.594   6.145  0.0948 -0.6711  0.2443
11286SOL    HW145837   2.446   8.608   6.227 -0.6367  0.2515 -0.3187
11286SOL    HW245838   2.536   8.509   6.156 -0.7307 -0.9760  1.2158
11287SOL     OW45839   2.984  13.351   9.237  0.0891 -0.0806  0.4469
11287SOL    HW145840   2.900  13.394   9.222  0.9501  1.6476  0.3234
11287SOL    HW245841   2.974  13.308   9.322 -0.6024  0.9716  0.9219
11288SOL     OW45842   1.024   5.029   7.068 -0.0011  0.0460 -0.6218
11288SOL    HW145843   1.096   5.031   7.131 -2.3737  0.0806  2.3362
11288SOL    HW245844   0.982   5.114   7.077 -2.1000 -0.9863  0.0146
11289SOL     OW45845  13.230   3.798  12.190 -0.3942 -0.0817  0.3063
11289SOL    HW145846  13.188   3.794  12.105 -1.3493  1.6792  0.6419
11289SOL    HW245847  13.309   3.850  12.175 -1.3091  1.4890  0.7254
11290SOL     OW45848   4.012   4.690   5.447  0.1202  0.3202 -0.1242
11290SOL    HW145849   4.039   4.730   5.364 -0.6478 -1.1453 -1.1192
11290SOL    HW245850   3.932   4.737   5.471 -0.1643  0.1342 -0.6968
11291SOL     OW45851   8.251   4.230   7.934 -0.0980  0.0561 -0.1744
11291SOL    HW145852   8.241   4.152   7.879  2.1634 -0.4204  0.0063
11291SOL    HW245853   8.341   4.225   7.967 -0.3662  2.0068  1.0008
11292SOL     OW45854   4.305  10.553  13.582  0.4376  0.1043 -0.0201
11292SOL    HW145855   4.366  10.502  13.635  0.4848  0.5785  0.3888
11292SOL    HW245856   4.357  10.628  13.553  0.1666  0.2918 -0.0190
11293SOL     OW45857   2.433  13.257   6.585 -0.2846 -0.3549 -0.2501
11293SOL    HW145858   2.409  13.176   6.540 -0.8756 -1.0078  1.1516
11293SOL    HW245859   2.367  13.266   6.655 -0.5831  1.6489 -0.7088
11294SOL     OW45860   9.744   5.712   1.915  0.4364 -0.0162  0.0403
11294SOL    HW145861   9.742   5.748   2.004  1.3169  0.2697 -0.0403
11294SOL    HW245862   9.667   5.656   1.910 -1.6601  2.6845 -0.1743
11295SOL     OW45863   6.646   3.432  13.098 -0.5557 -0.7028 -0.5270
11295SOL    HW145864   6.603   3.360  13.052  0.2089 -1.5472  0.0551
11295SOL    HW245865   6.599   3.510  13.069 -0.2625 -1.2239 -2.5546
11296SOL     OW45866   9.098   9.412   7.494 -1.0108 -0.0652 -0.2522
11296SOL    HW145867   9.063   9.489   7.539 -2.2224 -0.8314  0.1493
11296SOL    HW245868   9.156   9.448   7.426 -0.2089  1.1507  1.0119
11297SOL     OW45869  10.529   8.664  13.870  0.1530 -0.0679 -0.6195
11297SOL    HW145870  10.588   8.636  13.799 -0.0176 -0.9432 -0.4274
11297SOL    HW245871  10.462   8.716  13.826 -0.0880 -0.8096 -1.1455
11298SOL     OW45872   4.844   7.069  13.309  0.2577 -0.1798 -0.2427
11298SOL    HW145873   4.890   7.084  13.227  1.3171 -0.2825  0.3143
11298SOL    HW245874   4.804   7.153  13.330  0.8457  0.1255 -0.3422
11299SOL     OW45875  10.911   6.817   2.565  0.0836 -0.4295  0.0060
11299SOL    HW145876  10.824   6.839   2.530  0.0007 -0.6126  0.0948
11299SOL    HW245877  10.941   6.745   2.510  0.7093  0.4306 -0.8117
11300SOL     OW45878   2.619   3.260   8.747  0.4866  0.0207  0.1685
11300SOL    HW145879   2.574   3.229   8.826 -1.2273  1.3498 -0.2243
11300SOL    HW245880   2.652   3.347   8.771  1.8702 -0.4463  0.0668
11301SOL     OW45881   0.118   9.428   0.163 -0.4187  0.1089  0.3168
11301SOL    HW145882   0.064   9.357   0.198 -0.7967  0.6208  0.7956
11301SOL    HW245883   0.152   9.473   0.241 -1.2232  1.2310  0.0425
11302SOL     OW45884  10.643   0.223   3.014 -0.5326 -0.1123  0.5281
11302SOL    HW145885  10.666   0.258   2.928 -2.1152  1.1610  0.6000
11302SOL    HW245886  10.685   0.283   3.076 -0.8669 -0.0041  0.6488
11303SOL     OW45887   5.538  12.508   5.388  0.0063 -0.9444  0.3959
11303SOL    HW145888   5.507  12.552   5.468 -0.1400 -1.2634  0.5164
11303SOL    HW245889   5.515  12.416   5.401  0.0667 -1.0126  0.0239
11304SOL     OW45890   0.885   9.007   7.383 -0.0351  0.3438 -0.3054
11304SOL    HW145891   0.964   9.059   7.374  0.9184 -0.8687  0.6233
11304SOL    HW245892   0.895   8.962   7.467 -1.9722  0.5634  0.1152
11305SOL     OW45893   2.133   3.049   9.169  0.1705  0.5957  0.3758
11305SOL    HW145894   2.186   3.007   9.102  2.1133 -0.0445  2.1917
11305SOL    HW245895   2.159   3.141   9.167  3.0892 -0.0386  2.5950
11306SOL     OW45896   9.397   3.215   7.005 -0.2936  0.1698 -0.2157
11306SOL    HW145897   9.329   3.150   6.990 -0.5950  0.6659 -1.0773
11306SOL    HW245898   9.427   3.199   7.095 -1.7673  0.1481  0.2871
11307SOL     OW45899  10.251   3.978   3.210 -0.0225 -0.4884  0.0050
11307SOL    HW145900  10.336   3.943   3.184 -0.2856 -1.3177  0.2247
11307SOL    HW245901  10.265   4.011   3.299  0.2515  0.0656 -0.2390
11308SOL     OW45902   7.821   1.807   3.112  0.3988  0.3464 -0.3296
11308SOL    HW145903   7.880   1.782   3.041  0.5313  1.4351 -0.6240
11308SOL    HW245904   7.748   1.850   3.068 -0.7189 -1.1072  0.0163
11309SOL     OW45905   7.669  12.687   1.604  0.9797  0.4786  0.0020
11309SOL    HW145906   7.584  12.657   1.635  0.4916  1.6151 -0.1936
11309SOL    HW245907   7.724  12.609   1.606  0.3218  0.0163  1.4434
11310SOL     OW45908  12.026  12.957   1.107 -0.2744 -0.1645 -0.3647
11310SOL    HW145909  11.937  12.962   1.072 -0.3717  0.5037 -0.0432
11310SOL    HW245910  12.081  12.943   1.029 -0.4065  2.1703 -0.9679
11311SOL     OW45911   8.421   5.849   3.057 -0.3770 -0.3327  0.2155
11311SOL    HW145912   8.356   5.886   2.997 -0.8496 -0.4814  0.6311
11311SOL    HW245913   8.470   5.787   3.004 -0.2793  0.1004 -0.2156
11312SOL     OW45914  12.322   9.595   1.994  0.0555  0.2915  0.2930
11312SOL    HW145915  12.396   9.535   1.984  0.1816  0.6813 -1.2612
11312SOL    HW245916  12.352   9.657   2.061  1.0159  0.2462 -0.0677
11313SOL     OW45917   2.549   8.408  13.833 -0.2363 -1.1066  0.1995
11313SOL    HW145918   2.523   8.480  13.891 -0.6000  1.3444 -2.7075
11313SOL    HW245919   2.640   8.390  13.857  0.4587  1.6093 -0.0212
11314SOL     OW45920  11.010   0.109  11.346 -1.0814  0.2952 -0.4013
11314SOL    HW145921  11.076   0.122  11.413 -1.2399  2.5948 -0.6147
11314SOL    HW245922  11.055   0.060  11.277 -1.0113 -2.4286  1.3974
11315SOL     OW45923  13.782   4.263   2.309  0.5616  0.2534 -0.4220
11315SOL    HW145924  13.702   4.304   2.276  0.2397  1.0044  1.2063
11315SOL    HW245925  13.815   4.324   2.375  1.5660 -0.8507  0.1292
11316SOL     OW45926   7.941   1.593   8.246  0.1040  0.3678 -0.0987
11316SOL    HW145927   8.021   1.604   8.298  1.1075  1.4187 -1.7718
11316SOL    HW245928   7.970   1.601   8.155 -1.5609 -1.6102 -0.8789
11317SOL     OW45929   1.790   1.414   8.204  0.3042  0.0044  0.1694
11317SOL    HW145930   1.874   1.460   8.203  0.3599 -0.1102 -0.6202
11317SOL    HW245931   1.739   1.460   8.272  1.3130 -0.5134  1.3232
11318SOL     OW45932   1.437  12.177   4.832  0.0386 -0.1055 -0.3502
11318SOL    HW145933   1.393  12.198   4.915 -0.8367 -0.5423 -0.6886
11318SOL    HW245934   1.459  12.263   4.795  1.8433  0.0883  1.0339
11319SOL     OW45935   4.224   9.802   0.713  0.4792  0.5650 -0.3693
11319SOL    HW145936   4.207   9.892   0.685  2.3122  0.2812 -2.7333
11319SOL    HW245937   4.303   9.809   0.767  0.1525  0.4529  0.1265
11320SOL     OW45938  11.184   5.848   1.484 -0.3385 -0.8464 -0.0330
11320SOL    HW145939  11.146   5.866   1.398  0.8697 -0.6143 -0.5454
11320SOL    HW245940  11.162   5.925   1.536  0.9302  0.1402 -0.8734
11321SOL     OW45941   2.341  12.709   5.379 -0.1381  0.4099 -0.6370
11321SOL    HW145942   2.279  12.672   5.442  0.0457  2.0831  0.5898
11321SOL    HW245943   2.383  12.632   5.339  0.4230 -0.7225  1.9609
11322SOL     OW45944  12.051   9.426  12.701 -0.1794 -0.7762 -0.4937
11322SOL    HW145945  12.131   9.474  12.722 -1.1846  0.6509  0.2215
11322SOL    HW245946  11.980   9.481  12.733 -1.4912 -1.8047 -1.4805
11323SOL     OW45947   9.131   2.305   2.555  0.0661 -0.4646 -0.1314
11323SOL    HW145948   9.159   2.292   2.465 -1.8685 -0.6300 -0.7647
11323SOL    HW245949   9.038   2.284   2.554 -0.0505 -0.2410  1.8650
11324SOL     OW45950  12.489   0.288   7.435 -0.1043 -0.7365 -0.4074
11324SOL    HW145951  12.553   0.239   7.486  0.2892  0.7554  0.6034
11324SOL    HW245952  12.539   0.321   7.359 -0.0367 -0.8024 -0.3913
11325SOL     OW45953   4.994   0.253   7.309  0.1917  0.5664 -0.2181
11325SOL    HW145954   5.085   0.270   7.331  0.8953 -3.6108  1.1071
11325SOL    HW245955   4.998   0.209   7.224 -0.6375  0.7094 -0.3410
11326SOL     OW45956   2.067   9.702   5.378 -0.0461 -0.4097  0.2020
11326SOL    HW145957   2.070   9.619   5.426  4.2058  0.9677  2.9001
11326SOL    HW245958   1.997   9.751   5.420  0.0390 -1.2282  1.3503
11327SOL     OW45959  10.042   1.989   8.847  0.3920  0.0882  0.1162
11327SOL    HW145960  10.122   1.938   8.864  0.8824  0.9796  0.5386
11327SOL    HW245961   9.982   1.926   8.807  1.4008 -0.5316 -0.4699
11328SOL     OW45962  10.368   6.149  10.823 -0.1328  0.4010 -0.0680
11328SOL    HW145963  10.287   6.192  10.796 -0.7781 -0.3413  0.6445
11328SOL    HW245964  10.389   6.187  10.908 -0.0403  0.1869  0.0067
11329SOL     OW45965   7.117  10.634   4.335  0.3720 -0.3109  0.5474
11329SOL    HW145966   7.083  10.621   4.424  2.2682 -1.3896  1.1810
11329SOL    HW245967   7.093  10.553   4.289 -0.5805  0.2340  0.0712
11330SOL     OW45968  11.405  10.381   6.243  0.2277  0.3811 -0.4381
11330SOL    HW145969  11.363  10.465   6.260 -0.0335  0.3209 -0.7660
11330SOL    HW245970  11.375  10.324   6.315  0.7979  0.7012  0.0591
11331SOL     OW45971   0.055   4.213   6.791  0.5921 -0.0424  1.0435
11331SOL    HW145972   0.055   4.118   6.783 -0.6666 -0.1035  1.4894
11331SOL    HW245973  -0.033   4.235   6.821  0.1023  1.4398 -1.1976
11332SOL     OW45974  11.030   9.632   6.906  0.1343  0.1111  0.2310
11332SOL    HW145975  11.050   9.720   6.939  0.1572  0.5198 -0.8230
11332SOL    HW245976  10.978   9.592   6.975 -0.9733  1.4205  0.2116
11333SOL     OW45977   6.651   1.523   9.384 -0.1154  0.0726  0.0534
11333SOL    HW145978   6.561   1.502   9.411 -0.1438  1.4301  1.1052
11333SOL    HW245979   6.669   1.607   9.425  1.5136  0.0041 -0.4738
11334SOL     OW45980   8.478  13.844   1.571 -0.4443 -0.1052 -0.2120
11334SOL    HW145981   8.539  13.807   1.635 -0.7375 -0.9506 -0.3948
11334SOL    HW245982   8.482  13.938   1.584  1.0076 -0.1374 -0.3181
11335SOL     OW45983   0.515   1.976   0.123 -0.0468 -0.1154  0.1082
11335SOL    HW145984   0.540   1.891   0.086  1.5511 -0.7311  2.3955
11335SOL    HW245985   0.443   2.006   0.067 -0.7039 -2.9972 -0.7621
11336SOL     OW45986   1.855   0.369   1.564 -0.6007 -0.4759 -0.2544
11336SOL    HW145987   1.941   0.358   1.604 -0.2773  1.2115 -0.4196
11336SOL    HW245988   1.859   0.454   1.521 -2.8515  0.4274  1.1112
11337SOL     OW45989   6.058   1.768   2.565  0.1777 -0.2018 -0.0837
11337SOL    HW145990   6.017   1.682   2.566  1.8039 -1.0076 -0.0205
11337SOL    HW245991   6.040   1.802   2.477 -0.2407 -0.7190 -0.2040
11338SOL     OW45992  13.623   8.463   0.919  0.0901 -0.1841 -0.1617
11338SOL    HW145993  13.612   8.403   0.993 -0.2397  0.6391  0.4848
11338SOL    HW245994  13.569   8.539   0.942  1.1973  0.7493 -0.5031
11339SOL     OW45995  11.289   5.900  10.390  0.2238 -0.3069  0.1270
11339SOL    HW145996  11.242   5.982  10.375  0.5458  0.0400  0.9659
11339SOL    HW245997  11.250   5.863  10.469  1.7035  0.2793  1.1863
11340SOL     OW45998  13.714   1.405  11.840 -0.3096  0.2119  0.2761
11340SOL    HW145999  13.779   1.335  11.850  2.1981  2.1494 -1.3358
11340SOL    HW246000  13.691   1.404  11.747 -2.2638 -0.0728  0.7142
11341SOL     OW46001  12.097   9.902   3.777  0.3375  0.2291  0.0632
11341SOL    HW146002  12.094   9.807   3.789  2.0402  0.0398 -0.7793
11341SOL    HW246003  12.059   9.917   3.691  2.1957  0.0560 -0.8169
11342SOL     OW46004  10.804   2.061   0.687 -0.0025  0.0055 -0.0366
11342SOL    HW146005  10.761   2.027   0.765 -1.9779  1.2603 -0.5066
11342SOL    HW246006  10.844   2.143   0.715 -0.0488  0.0689 -0.1525
11343SOL     OW46007   5.987  12.349   1.057  0.0906 -0.4825  0.0922
11343SOL    HW146008   6.056  12.321   1.117 -0.1451 -0.7140  0.2542
11343SOL    HW246009   5.987  12.284   0.987  0.5296 -0.0826 -0.2975
11344SOL     OW46010   6.105  11.774   7.183 -0.8089 -0.4705 -0.4154
11344SOL    HW146011   6.026  11.819   7.152  0.1812  1.1694 -0.6051
11344SOL    HW246012   6.166  11.779   7.110  0.0936 -0.1981  0.3503
11345SOL     OW46013  13.619   7.255  13.914 -0.4297 -0.0318 -0.0260
11345SOL    HW146014  13.559   7.185  13.887 -0.2081  0.5425 -2.2164
11345SOL    HW246015  13.564   7.316  13.964 -1.9986  0.9182 -2.6936
11346SOL     OW46016   7.595   5.843  11.793 -0.6157  0.3386  0.0735
11346SOL    HW146017   7.596   5.759  11.838  0.0676  0.3141  0.0242
11346SOL    HW246018   7.686   5.857  11.766 -0.9576  0.4798 -1.0596
11347SOL     OW46019   2.104   9.449   2.745  0.3799 -0.4812 -0.2804
11347SOL    HW146020   2.082   9.356   2.748 -2.2987  0.0581 -0.8428
11347SOL    HW246021   2.107   9.475   2.837 -0.2571 -0.8361 -0.1543
11348SOL     OW46022  11.256   0.960   5.895 -0.7646 -0.1397  0.0069
11348SOL    HW146023  11.285   1.003   5.815  1.0787  0.7401  1.0743
11348SOL    HW246024  11.335   0.921   5.931 -1.2796  0.5394  2.0099
11349SOL     OW46025  12.713   0.837   7.830  0.0465 -0.2722  0.1698
11349SOL    HW146026  12.668   0.889   7.763  0.1390  0.0459  0.3534
11349SOL    HW246027  12.805   0.840   7.805  0.0286 -0.5170  0.0688
11350SOL     OW46028  11.438  11.438   6.968  0.1305 -0.3134  0.0137
11350SOL    HW146029  11.530  11.409   6.973  0.1062 -0.9649 -2.2875
11350SOL    HW246030  11.444  11.533   6.959  0.6436 -0.4084 -0.8006
11351SOL     OW46031  13.213   7.979   6.252 -0.2853 -0.1962 -0.0805
11351SOL    HW146032  13.249   7.951   6.336 -1.5248 -0.0822  0.5097
11351SOL    HW246033  13.120   7.995   6.269 -1.0072 -1.9688 -1.8916
11352SOL     OW46034   3.285  12.938   6.341 -0.0719  0.0533 -0.3817
11352SOL    HW146035   3.237  12.912   6.419  0.6042 -0.1487 -0.0302
11352SOL    HW246036   3.289  13.034   6.346  1.9906 -0.0560  1.0714
11353SOL     OW46037  13.940  10.362  12.382 -0.5484 -0.2473  0.0586
11353SOL    HW146038  13.950  10.422  12.308  0.8462 -0.5057  0.0180
11353SOL    HW246039  14.020  10.375  12.434  0.8220 -3.5357 -1.0240
11354SOL     OW46040   7.746  11.886  10.853  0.1901 -0.3325  0.4973
11354SOL    HW146041   7.797  11.807  10.839  0.6310  0.0548 -0.1259
11354SOL    HW246042   7.757  11.937  10.773  0.9330  0.9241  1.3563
11355SOL     OW46043   7.998   5.652   8.013  0.6054  0.0099 -0.2720
11355SOL    HW146044   7.914   5.688   7.985  0.0931  1.4025  2.7061
11355SOL    HW246045   7.981   5.558   8.026 -0.1517  0.0627 -0.8090
11356SOL     OW46046   2.481   4.129   0.769  0.2429  0.2435 -0.2075
11356SOL    HW146047   2.414   4.180   0.724 -0.6850 -1.1599 -0.4800
11356SOL    HW246048   2.561   4.178   0.757 -0.2423  0.6130 -2.1975
11357SOL     OW46049  13.455   8.727   1.742 -0.1248 -0.2954  0.1547
11357SOL    HW146050  13.443   8.645   1.694  2.0631  0.2938 -1.5830
11357SOL    HW246051  13.403   8.791   1.693 -1.1280 -0.4391  0.9988
11358SOL     OW46052   5.307   4.749   1.651 -0.4932 -0.8667  0.6593
11358SOL    HW146053   5.231   4.738   1.594  0.6031 -0.5031 -0.9703
11358SOL    HW246054   5.366   4.805   1.601 -0.6330  1.9977  3.4080
11359SOL     OW46055   6.865   3.429   4.619 -0.3628 -0.2461 -0.0962
11359SOL    HW146056   6.797   3.365   4.642 -1.0250 -0.0228 -1.3303
11359SOL    HW246057   6.932   3.377   4.575  0.8937 -0.6694  2.1393
11360SOL     OW46058   9.756   9.941   9.334  0.7559 -0.6401 -0.3636
11360SOL    HW146059   9.724   9.913   9.420 -0.5550  3.1515  0.5501
11360SOL    HW246060   9.849   9.958   9.347  0.2965  1.2402  0.7794
11361SOL     OW46061  11.855  11.754  11.957  0.2151  0.2991 -0.0506
11361SOL    HW146062  11.884  11.840  11.990  2.1362  0.2175 -1.3705
11361SOL    HW246063  11.903  11.691  12.010 -1.1096 -0.0180  0.8374
11362SOL     OW46064   9.814   8.672  13.466  0.2037 -0.4630  0.1393
11362SOL    HW146065   9.874   8.702  13.398 -1.5713 -1.7588 -2.1516
11362SOL    HW246066   9.832   8.578  13.475  0.9252 -0.1839  2.0916
11363SOL     OW46067   5.997  11.952   6.031 -0.6141  0.2136 -0.1484
11363SOL    HW146068   5.963  11.922   6.115 -0.3451  0.7958  0.1701
11363SOL    HW246069   5.932  12.014   5.999 -1.7319 -1.4588 -1.3289
11364SOL     OW46070  10.073   1.831   0.290 -0.0389  0.2532  0.5226
11364SOL    HW146071  10.093   1.891   0.362  0.0287  1.9032 -0.7960
11364SOL    HW246072   9.978   1.835   0.281 -0.2390 -1.3490  1.6372
11365SOL     OW46073   3.442   2.297  13.766  0.2380 -0.4869 -0.2452
11365SOL    HW146074   3.381   2.300  13.692  2.2362  0.1125 -1.9985
11365SOL    HW246075   3.489   2.215  13.754  1.5231  0.2540 -0.5146
11366SOL     OW46076   5.345   6.920   8.458 -0.0659  0.0853  0.3843
11366SOL    HW146077   5.302   6.904   8.543  0.2208 -1.5748  0.2516
11366SOL    HW246078   5.325   6.841   8.407  0.3579  0.7663 -0.8544
11367SOL     OW46079  12.618  10.499   8.250 -0.7745 -0.0034 -0.6232
11367SOL    HW146080  12.567  10.573   8.217 -1.1656 -0.2557 -0.5902
11367SOL    HW246081  12.709  10.523   8.232 -0.8310  0.8692  0.1554
11368SOL     OW46082   0.894   1.242   3.399  0.0692  0.4699  0.2351
11368SOL    HW146083   0.838   1.181   3.351  0.5628 -1.6714  2.2018
11368SOL    HW246084   0.869   1.232   3.491  3.0628 -0.0303  1.1206
11369SOL     OW46085   7.390   8.638   4.608  0.6573 -0.3289 -0.8385
11369SOL    HW146086   7.464   8.618   4.666  0.0993  1.8293  0.7485
11369SOL    HW246087   7.414   8.597   4.525  4.4176  1.5119 -0.8961
11370SOL     OW46088   4.478   4.913  11.515 -0.2830 -0.2767  0.0380
11370SOL    HW146089   4.549   4.961  11.559 -0.5626 -1.6422  2.0962
11370SOL    HW246090   4.521   4.835  11.480  0.0741  1.0813 -2.8873
11371SOL     OW46091   8.798   7.120   8.953  0.8272 -0.0189  0.2631
11371SOL    HW146092   8.759   7.128   9.040  1.0770 -0.7295  0.4506
11371SOL    HW246093   8.817   7.026   8.944  3.4710  0.3921  0.6198
11372SOL     OW46094   1.918   4.476   9.786 -0.1759  0.0331  0.3673
11372SOL    HW146095   2.011   4.496   9.789 -0.3722  1.1277 -0.1064
11372SOL    HW246096   1.896   4.480   9.693 -0.5075 -1.1961  0.3761
11373SOL     OW46097   3.622  11.783   2.271 -0.1930  0.2733 -0.0134
11373SOL    HW146098   3.675  11.824   2.339 -1.3754  2.5651 -0.4016
11373SOL    HW246099   3.541  11.758   2.316  0.6923 -2.3286  0.3493
11374SOL     OW46100   1.434   0.599  11.002  0.5219  0.5118  0.1218
11374SOL    HW146101   1.490   0.581  10.927 -0.1903  0.4962 -0.4102
11374SOL    HW246102   1.399   0.514  11.028 -0.6225  0.7282 -0.6427
11375SOL     OW46103  10.034   4.544   0.358  0.0351 -0.1300 -0.0039
11375SOL    HW146104  10.105   4.495   0.317 -0.6167 -1.1588  0.0513
11375SOL    HW246105   9.956   4.520   0.307  0.0777  3.0091 -1.7721
11376SOL     OW46106  11.932   1.805  13.301  0.7218  0.2738  0.2042
11376SOL    HW146107  11.950   1.860  13.225  0.7130 -0.4527 -0.3323
11376SOL    HW246108  11.879   1.860  13.359 -0.1469  0.4975 -0.7708
11377SOL     OW46109   2.031   9.470  10.470 -0.2440 -0.7285  0.1862
11377SOL    HW146110   1.958   9.532  10.477 -0.0423 -0.4595 -0.1485
11377SOL    HW246111   2.070   9.487  10.385  0.0675 -1.0380  0.2656
11378SOL     OW46112   5.031   9.541   7.721  0.3609  0.6266  0.5684
11378SOL    HW146113   5.062   9.618   7.770  1.3592 -0.5369  1.8434
11378SOL    HW246114   5.072   9.551   7.635  3.9347 -0.4498  1.9379
11379SOL     OW46115  10.176   4.984   2.923  0.2186  0.4133 -0.3042
11379SOL    HW146116  10.266   5.004   2.946 -0.4236  1.2723  1.6344
11379SOL    HW246117  10.139   4.944   3.002 -1.4105  1.1543 -0.6487
11380SOL     OW46118   6.566   4.242  11.135  0.7015  0.3994  1.1038
11380SOL    HW146119   6.563   4.153  11.100  0.2767  0.3642  1.2207
11380SOL    HW246120   6.601   4.295  11.063 -0.7997  0.4429  0.3653
11381SOL     OW46121   6.445  11.771   2.130  0.2826  0.0466 -0.0849
11381SOL    HW146122   6.364  11.723   2.147  0.4824 -0.3685 -0.2925
11381SOL    HW246123   6.514  11.705   2.136  0.5514  0.2858 -0.4689
11382SOL     OW46124  11.749   7.540   1.615  0.3012  0.1445 -0.0615
11382SOL    HW146125  11.807   7.531   1.691 -0.7564  0.5106  0.8126
11382SOL    HW246126  11.787   7.612   1.565  1.3479 -0.4903 -0.2182
11383SOL     OW46127  13.444  12.554   4.046 -0.7271 -0.0635 -0.5496
11383SOL    HW146128  13.414  12.611   4.117 -1.5507  1.3520 -1.9701
11383SOL    HW246129  13.501  12.609   3.993 -0.0286 -1.1272 -0.9370
11384SOL     OW46130   8.345   1.390   7.358  0.0910 -0.1023 -0.3117
11384SOL    HW146131   8.347   1.480   7.325 -0.2251  0.1642  0.3697
11384SOL    HW246132   8.437   1.361   7.355 -0.1028 -0.7114 -3.0013
11385SOL     OW46133   9.381   8.519  10.711 -0.1872 -0.5005 -0.1060
11385SOL    HW146134   9.293   8.551  10.729  0.0111  0.4119 -0.7045
11385SOL    HW246135   9.368   8.439  10.659 -0.6639 -0.3645 -0.1950
11386SOL     OW46136   3.850   4.762   1.914 -0.7411  0.1162  0.3275
11386SOL    HW146137   3.865   4.720   1.998  0.2696 -2.3806 -1.0033
11386SOL    HW246138   3.937   4.780   1.880 -1.1146  0.2470 -0.5918
11387SOL     OW46139   5.212  13.613   3.911 -0.3331 -0.0538 -0.0253
11387SOL    HW146140   5.231  13.665   3.833 -0.3674 -0.2548 -0.1686
11387SOL    HW246141   5.177  13.676   3.974  0.1852  0.2032  0.0112
11388SOL     OW46142   3.083   1.018   3.039  0.4333 -0.0542 -0.0367
11388SOL    HW146143   3.129   1.059   3.112 -0.9476  0.3265  0.6459
11388SOL    HW246144   3.058   1.090   2.982  0.8313 -0.2816 -0.5134
11389SOL     OW46145   4.881   7.299   4.621  0.5712  0.4159 -0.0568
11389SOL    HW146146   4.872   7.217   4.669 -1.9170 -1.1278 -2.7897
11389SOL    HW246147   4.877   7.367   4.688  1.9295 -1.6064  2.2474
11390SOL     OW46148   7.958  12.302   2.190 -0.1544  0.3080 -0.6235
11390SOL    HW146149   7.895  12.340   2.251 -0.4457 -1.2708  0.0941
11390SOL    HW246150   7.905  12.273   2.116 -0.3107 -1.0988  0.0181
11391SOL     OW46151   5.001  13.590   9.491 -0.1110  0.3698  0.1849
11391SOL    HW146152   4.959  13.530   9.429 -1.3136  0.4220  0.9108
11391SOL    HW246153   5.060  13.643   9.437 -0.8929  0.2078 -0.8696
11392SOL     OW46154  11.872  13.050   6.859 -0.3488 -0.3499 -0.0280
11392SOL    HW146155  11.879  13.129   6.806 -0.5900 -1.2524 -1.4750
11392SOL    HW246156  11.865  12.979   6.795  1.4668 -1.7197  1.1833
11393SOL     OW46157   8.198   7.936   4.191  0.9039  0.4482 -0.3267
11393SOL    HW146158   8.203   7.985   4.274  0.6582  0.9212 -0.5874
11393SOL    HW246159   8.228   7.848   4.214  1.2276  0.6809  0.1823
11394SOL     OW46160   4.172  13.702   8.019 -0.0514  0.0334  0.1416
11394SOL    HW146161   4.115  13.632   8.052 -1.5515  0.8034 -0.7069
11394SOL    HW246162   4.147  13.712   7.927  1.2652  0.6198 -0.1752
11395SOL     OW46163  12.199   2.568   2.963  0.3928 -0.2545  0.1307
11395SOL    HW146164  12.208   2.498   3.028  2.1001 -0.3530 -0.1608
11395SOL    HW246165  12.274   2.625   2.979  0.8401 -0.2646 -1.6885
11396SOL     OW46166  11.008   1.779   2.324  0.2178 -0.1211 -0.2465
11396SOL    HW146167  11.025   1.692   2.360 -1.0391 -0.2708  0.0089
11396SOL    HW246168  10.953   1.763   2.248 -0.1393  0.4670 -0.1142
11397SOL     OW46169   9.835   4.506  11.866  0.0117  0.1918  0.0044
11397SOL    HW146170   9.754   4.533  11.822  0.7266  2.3640 -0.1052
11397SOL    HW246171   9.815   4.513  11.959  0.5571  2.5635 -0.0009
11398SOL     OW46172   8.539   1.533  10.442 -0.2152 -0.1400 -0.3150
11398SOL    HW146173   8.499   1.560  10.359 -1.0597 -1.0133 -0.2174
11398SOL    HW246174   8.496   1.586  10.508  1.0800  1.1841 -0.4886
11399SOL     OW46175  13.336  11.869   3.314  0.2112 -0.0584 -0.0310
11399SOL    HW146176  13.284  11.863   3.394 -3.0161  0.7188 -1.8795
11399SOL    HW246177  13.420  11.828   3.336 -2.0421 -3.8772  2.4458
11400SOL     OW46178   4.027  11.061   7.399  0.2102  0.1789 -0.6392
11400SOL    HW146179   4.043  11.089   7.309 -0.3964 -0.0131 -0.8165
11400SOL    HW246180   4.105  11.086   7.447  0.0507  1.3881 -0.9713
11401SOL     OW46181   8.692   1.136  11.695  0.2018 -0.3791 -0.3002
11401SOL    HW146182   8.644   1.199  11.749 -0.1730 -1.7738  1.0667
11401SOL    HW246183   8.697   1.177  11.609 -2.0867  0.5081 -0.0913
11402SOL     OW46184   7.764   7.641   9.169 -0.4594  0.2318 -0.2176
11402SOL    HW146185   7.758   7.684   9.254 -1.2763  2.2675 -1.2264
11402SOL    HW246186   7.674   7.616   9.148 -0.6009  1.5244 -1.2919
11403SOL     OW46187   2.988  12.374   1.093  0.2398  0.4610  0.3144
11403SOL    HW146188   3.047  12.445   1.118  1.4086  0.0856 -1.2191
11403SOL    HW246189   2.917  12.417   1.046  0.1184  0.7725  0.7855
11404SOL     OW46190  13.083  12.126  13.111 -0.0758  0.0983 -0.4017
11404SOL    HW146191  13.143  12.056  13.084  1.0220 -0.4678  3.0100
11404SOL    HW246192  12.995  12.091  13.091  0.5480 -0.2514 -2.8757
11405SOL     OW46193   3.007   9.708   5.447  0.2746  0.0190 -0.8955
11405SOL    HW146194   3.087   9.760   5.457 -0.1783  0.6602 -0.4371
11405SOL    HW246195   2.956   9.730   5.525  0.1548 -1.2930 -0.5898
11406SOL     OW46196   7.971   6.490  13.004 -0.2817 -0.1287  0.0316
11406SOL    HW146197   8.010   6.520  13.086 -0.1833  1.3738 -0.5483
11406SOL    HW246198   8.041   6.499  12.940 -0.4148 -1.1341 -0.2665
11407SOL     OW46199   4.585   8.822   6.119  0.1117  0.1571  0.5645
11407SOL    HW146200   4.647   8.880   6.163 -0.0081  0.6573  0.0872
11407SOL    HW246201   4.603   8.835   6.025 -1.0142  0.6473  0.4052
11408SOL     OW46202   8.589   2.163   1.588  0.1356 -0.0080  0.0492
11408SOL    HW146203   8.553   2.201   1.507  0.0229  0.6524  0.4047
11408SOL    HW246204   8.531   2.089   1.607 -0.6840  0.6802  0.2887
11409SOL     OW46205   7.118  12.490   3.023  0.6006 -0.0842  0.2979
11409SOL    HW146206   7.180  12.418   3.028  2.3038  1.3034  0.2537
11409SOL    HW246207   7.055  12.464   2.957 -0.7496 -2.8794  2.4719
11410SOL     OW46208   6.993  10.376   4.245 -0.1857  0.4283 -0.3650
11410SOL    HW146209   6.947  10.294   4.265 -1.4002  1.1942  0.0863
11410SOL    HW246210   6.993  10.382   4.150 -1.5687  0.7066 -0.3578
11411SOL     OW46211  12.164  11.028   0.053  0.2168 -0.2773  0.2725
11411SOL    HW146212  12.093  10.971   0.082 -0.4201  0.5092  0.2806
11411SOL    HW246213  12.129  11.074  -0.023  1.3345 -1.1696 -0.8364
11412SOL     OW46214  11.663   4.442  13.547  0.5257 -0.5830 -0.2662
11412SOL    HW146215  11.649   4.535  13.534 -0.1616 -0.5691  0.4332
11412SOL    HW246216  11.588   4.400  13.505  0.2571 -0.7450  0.3588
11413SOL     OW46217   8.202  13.276   6.253 -0.0236  0.3721 -0.3645
11413SOL    HW146218   8.118  13.231   6.244 -0.3066  0.7841  0.1931
11413SOL    HW246219   8.204  13.338   6.181 -0.4867  0.8081 -0.0134
11414SOL     OW46220   7.884   0.352   7.455 -0.5088  0.5486  0.3952
11414SOL    HW146221   7.809   0.408   7.436 -3.0529 -1.8452  2.5741
11414SOL    HW246222   7.946   0.410   7.500 -0.9177  2.5937 -1.4551
11415SOL     OW46223   8.243   2.145   2.332  0.1536  0.1911 -0.1951
11415SOL    HW146224   8.302   2.220   2.324  0.6940 -0.1778  0.1770
11415SOL    HW246225   8.292   2.083   2.387 -0.8007  0.0877  0.5756
11416SOL     OW46226   0.065   4.320  11.029 -0.0362  0.2205 -0.3340
11416SOL    HW146227   0.118   4.302  11.107 -0.4202 -2.2306 -0.5721
11416SOL    HW246228   0.129   4.331  10.959  0.2551 -0.6231 -0.2192
11417SOL     OW46229   8.591   0.536   2.936  0.2302 -0.4113  0.1436
11417SOL    HW146230   8.667   0.587   2.908 -0.8681  0.6480 -0.9927
11417SOL    HW246231   8.551   0.506   2.855  0.1227 -2.0544  0.7598
11418SOL     OW46232   7.538  11.542   4.037  0.1457 -0.8815 -0.1830
11418SOL    HW146233   7.495  11.519   4.119 -0.0203 -1.0405 -0.3154
11418SOL    HW246234   7.488  11.496   3.969  0.4677 -0.9952 -0.3440
11419SOL     OW46235   7.415  13.669  11.397 -0.5435 -0.6178  0.5473
11419SOL    HW146236   7.407  13.690  11.490 -1.7071  1.0048  0.1265
11419SOL    HW246237   7.329  13.636  11.372 -1.3416  2.0330 -0.6015
11420SOL     OW46238   4.296  11.681   9.210  0.3091  0.1566 -0.3280
11420SOL    HW146239   4.215  11.631   9.218  1.6158 -1.8182  1.4486
11420SOL    HW246240   4.268  11.773   9.214 -1.6580 -0.3962  3.6934
11421SOL     OW46241   7.892   3.092   8.107  0.2775 -0.2128 -0.3621
11421SOL    HW146242   7.843   3.047   8.039 -1.2826  1.2476 -0.2760
11421SOL    HW246243   7.874   3.185   8.093 -0.5303  0.1311  2.2853
11422SOL     OW46244   5.050  13.835  11.673  0.1414 -0.2860 -0.0141
11422SOL    HW146245   4.985  13.872  11.733  0.8122  2.1731 -0.6836
11422SOL    HW246246   4.999  13.807  11.597 -0.2549  1.1933 -0.3410
11423SOL     OW46247   2.348  10.454   1.034  0.6016 -0.2409  0.1511
11423SOL    HW146248   2.297  10.464   0.953 -0.7748 -1.1219  0.8724
11423SOL    HW246249   2.287  10.475   1.104  1.5586 -0.2482  1.0123
11424SOL     OW46250   7.751   7.472   8.445 -0.3367 -0.6698 -0.6506
11424SOL    HW146251   7.815   7.468   8.374 -0.0767  0.1908 -0.4693
11424SOL    HW246252   7.789   7.418   8.515 -0.6865 -1.6815 -1.2245
11425SOL     OW46253  13.580   7.275  13.442  0.4122  0.7026 -0.1988
11425SOL    HW146254  13.612   7.239  13.524  1.7689 -2.5069 -1.9372
11425SOL    HW246255  13.498   7.228  13.425  0.5736  0.7065 -1.0550
11426SOL     OW46256  10.485   7.643   8.399 -0.0152 -0.2128  0.0700
11426SOL    HW146257  10.534   7.562   8.414 -1.8232 -1.5802 -1.1335
11426SOL    HW246258  10.507   7.668   8.309  0.8594  0.9222  0.5684
11427SOL     OW46259   3.404   6.179   7.719 -0.3647 -0.4736 -0.0271
11427SOL    HW146260   3.406   6.135   7.803  0.8079  0.3444  0.4099
11427SOL    HW246261   3.400   6.272   7.740 -1.2299 -0.2973 -0.8981
11428SOL     OW46262  10.812  12.910   6.793 -0.3427 -0.1344  0.2199
11428SOL    HW146263  10.772  12.986   6.751 -2.1022  0.0216  1.9849
11428SOL    HW246264  10.867  12.946   6.862  1.0800 -0.4366 -0.7066
11429SOL     OW46265   7.012  13.640   1.197  0.1218  0.0293  0.2008
11429SOL    HW146266   7.059  13.620   1.277 -0.5993  1.8035  1.1226
11429SOL    HW246267   7.058  13.715   1.160  2.2065 -2.4346 -2.6647
11430SOL     OW46268   0.469  10.465   8.240 -0.6122  0.2848 -0.7267
11430SOL    HW146269   0.374  10.461   8.230 -0.5305 -1.2003 -1.1435
11430SOL    HW246270   0.503  10.450   8.152  0.0259  2.3068 -0.8738
11431SOL     OW46271   3.758   4.421  13.908 -0.3470  0.3233 -0.2587
11431SOL    HW146272   3.666   4.400  13.925 -0.2673  0.2454  0.0985
11431SOL    HW246273   3.807   4.353  13.955 -0.0689  1.5388  1.3428
11432SOL     OW46274   6.791   5.250   2.666 -0.4652 -0.7876  0.0507
11432SOL    HW146275   6.728   5.278   2.600  1.2888  0.5332 -1.1563
11432SOL    HW246276   6.794   5.154   2.657 -1.5825 -0.7881 -0.4998
11433SOL     OW46277  11.801   3.798   0.595  0.0760 -0.4746 -0.1733
11433SOL    HW146278  11.756   3.881   0.608 -0.7545 -1.1254  1.3724
11433SOL    HW246279  11.878   3.803   0.652 -1.3057 -1.6848  1.9181
11434SOL     OW46280   9.478  12.284  13.822  0.0948  0.4092 -0.0738
11434SOL    HW146281   9.397  12.335  13.833  0.3842  0.7822  0.3456
11434SOL    HW246282   9.449  12.202  13.782 -0.3682  0.9225 -0.8201
11435SOL     OW46283   4.231   3.609   9.228  0.0301 -0.5834  0.1233
11435SOL    HW146284   4.170   3.682   9.234  2.7339  1.7438  1.6581
11435SOL    HW246285   4.212   3.556   9.305 -0.2314 -0.0380  0.4388
11436SOL     OW46286  11.696   5.351   3.848 -0.0874  0.1907  0.0251
11436SOL    HW146287  11.631   5.335   3.780 -0.2784  1.0967 -0.0288
11436SOL    HW246288  11.647   5.390   3.920  0.0486 -1.1184  0.8610
11437SOL     OW46289   3.965   1.180   5.643 -0.0489  0.8831 -0.0270
11437SOL    HW146290   3.912   1.110   5.605 -0.4044  1.8684 -1.4046
11437SOL    HW246291   3.908   1.218   5.710 -0.3834  0.7573 -0.2378
11438SOL     OW46292   3.864   9.388  13.541  0.0138 -0.2306  0.3990
11438SOL    HW146293   3.813   9.393  13.461 -0.5905  1.8028  0.8587
11438SOL    HW246294   3.800   9.401  13.611  0.7546 -0.4590  1.1354
11439SOL     OW46295   5.554   9.406   5.648 -0.0429 -0.0665  0.3446
11439SOL    HW146296   5.615   9.332   5.658  0.4402  0.2479 -0.2101
11439SOL    HW246297   5.606   9.473   5.603 -0.4427  0.6594  0.9630
11440SOL     OW46298   0.080   7.318   7.729 -0.1519 -0.1011  0.1005
11440SOL    HW146299   0.035   7.364   7.658  1.2259  0.8119 -0.2263
11440SOL    HW246300   0.118   7.388   7.782 -0.2153 -0.8143  1.1041
11441SOL     OW46301  11.643   7.201  13.364 -0.0263 -0.1515 -0.2503
11441SOL    HW146302  11.721   7.146  13.369  0.6730  0.7285 -1.0624
11441SOL    HW246303  11.579   7.149  13.316 -1.1730 -2.2269  3.1822
11442SOL     OW46304  11.864   3.931  12.992  0.4320  0.0466 -0.4696
11442SOL    HW146305  11.821   3.893  13.069 -0.7989 -2.9016 -2.4188
11442SOL    HW246306  11.797   3.987  12.953  0.2154 -0.3293 -0.6439
11443SOL     OW46307   1.424  12.134  12.464 -0.2866  0.0687 -0.1707
11443SOL    HW146308   1.458  12.050  12.498  0.4928 -0.0261 -1.1405
11443SOL    HW246309   1.481  12.200  12.503 -0.7312  0.1382  0.3774
11444SOL     OW46310   9.793  13.841   0.337 -0.1582 -0.0169 -0.0186
11444SOL    HW146311   9.820  13.761   0.381 -1.9682 -1.2137 -0.9449
11444SOL    HW246312   9.830  13.911   0.390 -0.8445 -1.4069  2.4488
11445SOL     OW46313   1.074  13.662   8.658  0.2113 -0.5403 -0.7128
11445SOL    HW146314   0.991  13.690   8.695  0.5914  2.5593 -1.8554
11445SOL    HW246315   1.055  13.647   8.565  0.8427 -0.0631 -0.9271
11446SOL     OW46316   2.198   5.996   6.536 -0.1395 -0.1021  0.4114
11446SOL    HW146317   2.107   6.024   6.527  0.2777  1.8456  1.6386
11446SOL    HW246318   2.243   6.072   6.573  2.3839 -0.3193 -1.8544
11447SOL     OW46319   8.622   9.345  10.663  0.0735 -1.1051  0.0176
11447SOL    HW146320   8.566   9.409  10.706  1.8776  0.1184  0.7165
11447SOL    HW246321   8.631   9.377  10.573  1.5220  0.0803  0.5478
11448SOL     OW46322   6.732   9.753   9.444 -0.0056  0.3843 -0.1917
11448SOL    HW146323   6.747   9.844   9.421 -0.8390  0.5858  0.0122
11448SOL    HW246324   6.638   9.741   9.432 -0.0183 -0.2427  0.4910
11449SOL     OW46325   5.913   4.512   4.879 -0.2231  0.1723 -0.0002
11449SOL    HW146326   5.866   4.537   4.799 -0.3236 -1.6448 -0.5578
11449SOL    HW246327   5.959   4.432   4.855 -0.8564 -0.8316  1.9603
11450SOL     OW46328   0.490   8.316   4.546  0.1750  0.2281 -0.0293
11450SOL    HW146329   0.459   8.230   4.574 -0.3130  0.2160 -0.6019
11450SOL    HW246330   0.584   8.305   4.537  0.4282  0.3260  1.9483
11451SOL     OW46331   6.117   8.960   1.263 -0.1230  0.4986  0.5328
11451SOL    HW146332   6.084   9.026   1.202 -0.1637  1.0772  1.1549
11451SOL    HW246333   6.038   8.924   1.303 -0.0860  0.3804  0.4976
11452SOL     OW46334   4.901  10.766  12.625 -0.6758 -0.2518 -0.4628
11452SOL    HW146335   4.940  10.850  12.600  0.9087 -0.7874  0.1224
11452SOL    HW246336   4.922  10.756  12.717 -0.4238 -1.5113 -0.6354
11453SOL     OW46337   6.129   7.868   0.674 -0.0225 -0.3506  0.1749
11453SOL    HW146338   6.152   7.874   0.766 -0.7142 -1.3481  0.4252
11453SOL    HW246339   6.080   7.786   0.666 -2.3838  1.0200 -0.5619
11454SOL     OW46340   3.854   5.415  11.770 -0.7646  0.1641 -0.2322
11454SOL    HW146341   3.945   5.387  11.778 -0.5992  0.6311 -0.4428
11454SOL    HW246342   3.859   5.508  11.746 -1.2868 -0.1028 -1.4342
11455SOL     OW46343   4.796   5.168   0.439 -0.0338  0.0254 -0.3734
11455SOL    HW146344   4.809   5.259   0.464 -1.0787 -0.0354  0.4260
11455SOL    HW246345   4.820   5.118   0.517  1.0729 -0.4368 -0.9826
11456SOL     OW46346   9.904  11.350   6.985 -0.0863  0.0167 -0.1347
11456SOL    HW146347   9.877  11.303   7.063 -0.5484  0.1247 -0.2253
11456SOL    HW246348   9.836  11.417   6.972 -0.5359 -0.6119 -1.1622
11457SOL     OW46349   7.820   8.468   0.705  0.8833  0.0556 -0.1124
11457SOL    HW146350   7.871   8.491   0.782  0.6001 -1.1198  0.4482
11457SOL    HW246351   7.871   8.398   0.663 -0.4681 -1.5326  0.7544
11458SOL     OW46352   3.284  10.143   9.400  0.0987  0.6724  0.1112
11458SOL    HW146353   3.194  10.111   9.394  1.1181 -2.5177 -0.0976
11458SOL    HW246354   3.279  10.218   9.459 -2.5671  0.1249  0.7243
11459SOL     OW46355   1.907  12.837   8.135  0.4867  0.1621  0.4003
11459SOL    HW146356   1.973  12.904   8.116  0.3457  0.6339  1.4708
11459SOL    HW246357   1.920  12.817   8.228 -0.0098 -0.7087  0.2897
11460SOL     OW46358   7.987   7.510   6.333  0.3761 -0.8778  0.1452
11460SOL    HW146359   7.903   7.468   6.353  0.4737 -0.6271  1.1418
11460SOL    HW246360   7.983   7.594   6.379  1.8849 -1.6362  1.7879
11461SOL     OW46361   5.209  12.669  10.400  0.0564 -0.0014  0.1517
11461SOL    HW146362   5.227  12.594  10.343  0.9722 -0.4180  0.9574
11461SOL    HW246363   5.196  12.630  10.487  0.0381  0.7394  0.4835
11462SOL     OW46364   0.605   3.231   6.062 -0.1232  0.6433 -0.1045
11462SOL    HW146365   0.639   3.302   6.117  1.0269 -0.3232  0.4822
11462SOL    HW246366   0.566   3.169   6.124 -1.1442  0.7613 -0.6133
11463SOL     OW46367   7.567   5.832  12.153 -0.2365 -0.0469 -0.1424
11463SOL    HW146368   7.547   5.924  12.169 -1.6859 -0.4625  0.5798
11463SOL    HW246369   7.642   5.813  12.210  2.2651  1.4610 -2.6797
11464SOL     OW46370  10.700  13.958   5.622 -0.0965  0.3002 -0.2659
11464SOL    HW146371  10.760  14.024   5.657 -0.1043  1.3499 -2.1144
11464SOL    HW246372  10.654  13.924   5.699  3.7205 -1.5580  1.4664
11465SOL     OW46373  11.273  10.748   7.615  0.2121  0.6600  0.6918
11465SOL    HW146374  11.269  10.837   7.579 -0.8124  0.2275 -0.3410
11465SOL    HW246375  11.182  10.724   7.630  0.4799 -0.2185  0.9659
11466SOL     OW46376  12.240   6.425   2.138  0.3845 -0.2352 -0.3082
11466SOL    HW146377  12.280   6.512   2.136  3.2135 -1.4247 -1.3857
11466SOL    HW246378  12.266   6.389   2.223 -1.3122  0.1170  0.4069
11467SOL     OW46379  11.114   3.989  10.793  0.1452  0.0405 -0.2318
11467SOL    HW146380  11.193   3.975  10.845  0.4646  1.6709 -0.2545
11467SOL    HW246381  11.136   4.061  10.734 -1.8253  1.5366  0.7743
11468SOL     OW46382  12.268   5.146   3.514  0.0510 -0.0230 -0.3102
11468SOL    HW146383  12.339   5.209   3.527 -0.5339  0.6470 -0.2945
11468SOL    HW246384  12.192   5.200   3.493 -0.5786 -0.6913  0.1944
11469SOL     OW46385   1.471   5.667   1.839  0.1064  0.8455  0.2798
11469SOL    HW146386   1.469   5.671   1.743  3.1060 -1.8234 -0.0597
11469SOL    HW246387   1.415   5.591   1.860  2.4902 -1.0532  0.1900
11470SOL     OW46388   4.911   1.079   1.189 -0.3854 -0.5498  0.3084
11470SOL    HW146389   4.967   1.017   1.143  1.1411  1.1815 -0.3083
11470SOL    HW246390   4.883   1.141   1.122 -0.1040  0.6351  1.2424
11471SOL     OW46391   2.481  10.312  10.700  0.0197 -0.2286 -0.9566
11471SOL    HW146392   2.524  10.253  10.762 -0.9474 -0.3420 -0.3779
11471SOL    HW246393   2.441  10.379  10.755  0.4280  0.5321 -1.5625
11472SOL     OW46394  11.432   2.338   4.037 -0.1396  0.6201  0.4935
11472SOL    HW146395  11.419   2.317   4.129 -1.7475 -3.8061 -0.5118
11472SOL    HW246396  11.524   2.317   4.020 -0.9066 -3.2866  0.2851
11473SOL     OW46397   9.218   0.665  14.014 -0.1652 -0.1523  0.2913
11473SOL    HW146398   9.156   0.737  14.015  1.2122  1.0761  0.5038
11473SOL    HW246399   9.296   0.699  14.059  0.5730 -1.7201  0.2870
11474SOL     OW46400   7.303   1.776   3.366 -0.5608 -0.2322  0.3989
11474SOL    HW146401   7.358   1.844   3.327  0.4685 -2.0505 -1.5700
11474SOL    HW246402   7.310   1.790   3.460  2.4493  0.3000  0.1993
11475SOL     OW46403   1.347  13.124   3.507 -0.3897 -0.2795 -0.1215
11475SOL    HW146404   1.286  13.063   3.549  1.4563 -0.7588  2.0549
11475SOL    HW246405   1.376  13.182   3.578 -0.3761  1.7074 -1.6720
11476SOL     OW46406   9.924  11.430  13.759 -0.2052 -0.1115 -0.1749
11476SOL    HW146407  10.000  11.385  13.722 -0.0607 -0.3519  0.4041
11476SOL    HW246408   9.913  11.392  13.846 -0.1060  0.9410  0.3156
11477SOL     OW46409   1.010   3.721   1.896 -0.4625  0.2782  0.3521
11477SOL    HW146410   1.085   3.749   1.843 -0.2709 -0.3745  0.2650
11477SOL    HW246411   0.935   3.727   1.837 -0.5565  1.3399  0.5633
11478SOL     OW46412   9.497   1.059  11.016 -0.0545 -0.5688  0.4296
11478SOL    HW146413   9.531   1.037  10.929  1.4942  0.3133  0.7775
11478SOL    HW246414   9.555   1.012  11.077 -0.4630 -0.3261  1.0117
11479SOL     OW46415   6.592  10.446   3.733 -0.5315  0.0816  0.5497
11479SOL    HW146416   6.612  10.433   3.826  0.8615  0.1502  0.2853
11479SOL    HW246417   6.588  10.541   3.723  1.2038  0.1494  0.2050
11480SOL     OW46418   1.919   4.944  10.343 -0.3098  0.0446 -0.2380
11480SOL    HW146419   1.972   4.891  10.284  0.8429  0.7783  0.0978
11480SOL    HW246420   1.959   4.932  10.429  0.4025  1.9220 -0.2536
11481SOL     OW46421  13.763   0.678   2.100 -0.6419 -0.4288 -0.2039
11481SOL    HW146422  13.721   0.610   2.153 -0.7993 -0.0266  0.2006
11481SOL    HW246423  13.853   0.648   2.089 -0.8041 -0.8715 -0.3252
11482SOL     OW46424  12.837  13.540  12.123 -0.0732  0.5214 -0.1485
11482SOL    HW146425  12.857  13.618  12.176  0.8423  0.7405 -0.8007
11482SOL    HW246426  12.862  13.466  12.178 -0.5791  0.6875  0.3209
11483SOL     OW46427   5.466  12.600  12.871 -0.1859 -0.1493 -0.3510
11483SOL    HW146428   5.475  12.591  12.966  1.5322  1.0893 -0.3445
11483SOL    HW246429   5.376  12.573  12.853 -1.4391  1.9864  1.9889
11484SOL     OW46430   7.087   2.318   4.618 -0.0491  0.3461 -0.1579
11484SOL    HW146431   7.011   2.309   4.560  1.0510 -0.8299 -1.5115
11484SOL    HW246432   7.097   2.412   4.630 -0.9071  0.5765 -1.0819
11485SOL     OW46433  13.087   6.412  11.432  0.2669 -0.7877 -0.1307
11485SOL    HW146434  13.170   6.447  11.402  1.3778 -0.8453  2.6155
11485SOL    HW246435  13.086   6.322  11.400  0.8521 -0.5247 -0.9098
11486SOL     OW46436   4.980   6.956   8.499  0.4030 -0.2068 -1.0488
11486SOL    HW146437   5.060   6.907   8.477  0.6296 -0.1778 -0.3098
11486SOL    HW246438   5.006   7.048   8.494 -0.2953 -0.0642 -3.5148
11487SOL     OW46439   3.961   1.450   3.456  0.3613  0.1020 -0.0626
11487SOL    HW146440   4.019   1.510   3.504 -1.1790  0.6266  1.2374
11487SOL    HW246441   3.893   1.427   3.520 -0.4385 -1.1093 -1.3021
11488SOL     OW46442   9.512   7.777   3.973  0.5801  0.1136 -0.0365
11488SOL    HW146443   9.472   7.697   4.007  0.4519 -0.2694 -1.0319
11488SOL    HW246444   9.508   7.766   3.878 -0.9255  2.0286 -0.2461
11489SOL     OW46445   5.415   2.971   0.526 -0.4759  0.6065 -1.3915
11489SOL    HW146446   5.418   2.990   0.432  1.1286 -2.1831 -2.0132
11489SOL    HW246447   5.353   2.899   0.534 -0.2665  0.5280 -0.3644
11490SOL     OW46448   1.952   9.608  13.508 -0.4831 -0.2754  0.2154
11490SOL    HW146449   1.866   9.610  13.550  0.6733  0.2248  2.7523
11490SOL    HW246450   1.958   9.692  13.463 -1.2955 -0.3057  0.0327
11491SOL     OW46451  10.491   6.207   9.956  0.2777 -0.1741  0.1761
11491SOL    HW146452  10.447   6.289   9.980  1.2642  0.8274 -1.3075
11491SOL    HW246453  10.432   6.166   9.893  0.7090  0.4272 -0.6466
11492SOL     OW46454   2.210  10.683   1.339  0.1389  0.1342 -0.0638
11492SOL    HW146455   2.168  10.687   1.425 -0.0869  0.1755 -0.1762
11492SOL    HW246456   2.233  10.774   1.319  1.0777  0.0118  0.3884
11493SOL     OW46457   2.882   6.008   2.947 -0.3185  0.0653  0.3247
11493SOL    HW146458   2.926   6.054   2.875  1.3273 -3.0279 -0.8486
11493SOL    HW246459   2.913   6.052   3.026  1.1818  0.9370 -0.6934
11494SOL     OW46460  10.498   5.353  13.167 -0.3808  0.3436  0.7419
11494SOL    HW146461  10.493   5.262  13.139 -0.5683  1.2770 -2.7038
11494SOL    HW246462  10.430   5.361  13.235 -3.1518 -1.2722 -1.6102
11495SOL     OW46463  13.551  10.073   9.825 -0.1188  0.4436  0.1112
11495SOL    HW146464  13.583   9.993   9.868  2.7984  2.5929  2.3383
11495SOL    HW246465  13.480  10.042   9.768  0.7679 -3.6859  0.8814
11496SOL     OW46466   0.674  13.201   3.222  0.3043 -0.1250 -0.5998
11496SOL    HW146467   0.635  13.122   3.185 -0.8149 -0.9323  2.1299
11496SOL    HW246468   0.707  13.175   3.307  0.6256  2.1789  0.0539
11497SOL     OW46469   0.002   5.393   5.767  0.4305 -0.3925  0.3364
11497SOL    HW146470   0.037   5.306   5.749 -0.7662 -0.8757  0.2480
11497SOL    HW246471  -0.030   5.388   5.857  1.4880  0.3584  0.7750
11498SOL     OW46472  12.416  13.084  11.519  0.4297 -0.3597  0.0841
11498SOL    HW146473  12.479  13.059  11.451  0.1219  0.3844 -0.4897
11498SOL    HW246474  12.341  13.026  11.506  0.9329 -1.1581  0.6852
11499SOL     OW46475  13.473   3.748   3.762  0.4081  0.2580 -0.2524
11499SOL    HW146476  13.516   3.666   3.782 -0.1664  0.1958  0.8044
11499SOL    HW246477  13.534   3.794   3.704 -0.1237 -1.7149 -2.5097
11500SOL     OW46478   1.000   4.188  13.876  0.1941  0.1423 -0.1670
11500SOL    HW146479   1.049   4.153  13.802 -0.9330 -0.8855 -0.4658
11500SOL    HW246480   1.037   4.275  13.892  3.3405 -1.2441  0.7851
11501SOL     OW46481  13.128   2.796   8.918  0.0789  0.0374 -0.1742
11501SOL    HW146482  13.167   2.728   8.974  1.2864  0.6493 -0.2519
11501SOL    HW246483  13.060   2.836   8.973 -1.8424 -2.2694 -0.6578
11502SOL     OW46484  10.517  12.163   6.105 -0.0529 -0.1371 -0.2758
11502SOL    HW146485  10.582  12.100   6.137  0.0920 -0.2861 -0.8511
11502SOL    HW246486  10.466  12.114   6.040  0.1402  0.3732 -0.8175
11503SOL     OW46487   3.523   2.418   6.028  0.0227 -0.3481  0.2066
11503SOL    HW146488   3.437   2.440   5.993  0.4261 -0.2698 -0.7512
11503SOL    HW246489   3.505   2.357   6.099 -0.8823  0.3649  0.6182
11504SOL     OW46490  10.146   7.799   9.201  0.2864 -0.5110 -0.2799
11504SOL    HW146491  10.106   7.868   9.254  0.8931  0.0599 -0.5664
11504SOL    HW246492  10.103   7.718   9.232  0.7445 -0.2203  1.2014
11505SOL     OW46493  13.276   0.533   4.305 -0.3715  0.1112 -0.1159
11505SOL    HW146494  13.325   0.471   4.251 -0.7371 -1.0369  0.8231
11505SOL    HW246495  13.301   0.511   4.395 -0.9952  0.9276  0.2686
11506SOL     OW46496   9.073  12.822   1.175 -0.7084 -0.3758  0.9017
11506SOL    HW146497   9.084  12.790   1.085 -0.7165 -0.5048  0.9461
11506SOL    HW246498   9.065  12.917   1.166 -3.4972 -0.5906  0.4962
11507SOL     OW46499   0.060   3.232  12.039 -0.2581  0.4062  0.2614
11507SOL    HW146500   0.028   3.148  12.007 -1.5416  0.6911  0.7217
11507SOL    HW246501   0.122   3.262  11.973 -0.1653 -0.6624 -0.1497
11508SOL     OW46502   5.026   3.397   5.532  0.5586  0.5876 -0.2894
11508SOL    HW146503   5.044   3.313   5.574 -2.6705 -0.0975 -0.0609
11508SOL    HW246504   5.079   3.396   5.452  1.2413 -1.2736  0.1522
11509SOL     OW46505   7.297   4.477   3.727 -0.0599  0.0016 -0.2165
11509SOL    HW146506   7.321   4.395   3.770  0.3292 -0.4176 -1.1976
11509SOL    HW246507   7.236   4.450   3.657 -0.9228  0.6982  0.2445
11510SOL     OW46508   8.667   2.132   6.444 -0.2666  0.6819 -1.2242
11510SOL    HW146509   8.639   2.207   6.391  1.0452  1.3863 -0.9522
11510SOL    HW246510   8.760   2.146   6.459 -0.6049  0.6424  1.4776
11511SOL     OW46511   7.233   9.388  13.797 -0.3354 -0.2882  0.0671
11511SOL    HW146512   7.277   9.347  13.723 -0.4745 -0.0855 -0.1271
11511SOL    HW246513   7.298   9.386  13.867  0.0149  0.0924 -0.2462
11512SOL     OW46514   1.783  12.597   6.689 -0.1484 -0.1191 -0.1993
11512SOL    HW146515   1.694  12.564   6.681  0.1222 -0.5718 -1.6231
11512SOL    HW246516   1.773  12.692   6.690 -1.0255  0.0318  5.0252
11513SOL     OW46517  12.057  11.833   9.482 -0.5851  0.4813  0.6079
11513SOL    HW146518  12.063  11.925   9.458 -3.4965  0.7760  0.6594
11513SOL    HW246519  12.054  11.786   9.398  1.6071  0.2918  0.5762
11514SOL     OW46520   9.306   9.514   7.834 -0.0763 -0.1323  0.2397
11514SOL    HW146521   9.332   9.428   7.803  1.2577  0.2599  0.2234
11514SOL    HW246522   9.303   9.506   7.930  0.3862 -0.1013  0.2557
11515SOL     OW46523   2.153  10.419   3.519 -0.1173  0.2751  0.2619
11515SOL    HW146524   2.122  10.490   3.463  0.0057 -1.6604 -2.4477
11515SOL    HW246525   2.082  10.355   3.520  1.1830 -1.2908 -0.6689
11516SOL     OW46526   1.700   4.254   8.471 -0.0948 -0.3815  0.0529
11516SOL    HW146527   1.782   4.291   8.504 -0.4436  0.9067 -0.4281
11516SOL    HW246528   1.634   4.286   8.533 -0.5015  0.4528 -0.7828
11517SOL     OW46529  12.613   9.206  12.658 -0.1686 -0.2417  0.4697
11517SOL    HW146530  12.548   9.224  12.590 -0.0172  0.7136  0.5558
11517SOL    HW246531  12.580   9.253  12.735  0.3660 -0.1588  0.6515
11518SOL     OW46532  11.012  13.031   0.916 -0.0264 -0.2965  0.3602
11518SOL    HW146533  10.947  13.092   0.950 -0.8685 -0.9463 -0.0574
11518SOL    HW246534  11.093  13.054   0.963  0.3529  2.7976 -1.5732
11519SOL     OW46535   3.929   7.200  13.724  0.1361  0.0352 -0.4797
11519SOL    HW146536   3.890   7.283  13.749  1.1188 -0.0175  1.4012
11519SOL    HW246537   3.878   7.134  13.770  1.3366 -0.1430  0.6506
11520SOL     OW46538   9.462   3.153   1.572  0.9308 -0.4811  0.1431
11520SOL    HW146539   9.447   3.087   1.504  0.8871 -0.7120  0.3741
11520SOL    HW246540   9.375   3.172   1.606  0.4729  2.1567 -2.1693
11521SOL     OW46541   0.351  12.339   4.182  0.3809  0.1769 -0.1861
11521SOL    HW146542   0.316  12.425   4.206  1.7750  0.4114  1.1306
11521SOL    HW246543   0.415  12.319   4.250  0.3624 -1.7541 -0.6745
11522SOL     OW46544   2.827  13.547  13.228  0.0108 -0.7429  0.3416
11522SOL    HW146545   2.739  13.529  13.260  0.0902 -0.0848  0.9757
11522SOL    HW246546   2.835  13.642  13.230  0.9494 -0.8145  0.9221
11523SOL     OW46547  12.991  13.089  12.717 -0.1822  0.0211  0.1051
11523SOL    HW146548  12.924  13.042  12.667 -0.5514  0.7851 -0.1410
11523SOL    HW246549  13.028  13.023  12.775  0.5300 -0.9927 -1.4342
11524SOL     OW46550   8.393   4.021   4.471 -0.0863  0.2508  0.0279
11524SOL    HW146551   8.331   3.990   4.537  1.0521 -1.0086  0.5442
11524SOL    HW246552   8.442   4.091   4.514 -0.1617  0.2519  0.1122
11525SOL     OW46553  10.799   9.710  12.943  0.0638  0.3370  0.2200
11525SOL    HW146554  10.794   9.779  13.009 -1.6331  0.3942  0.0746
11525SOL    HW246555  10.792   9.628  12.992 -2.4268  0.3993  0.0893
11526SOL     OW46556   2.891   3.018   8.901  0.1521 -0.2812  0.0578
11526SOL    HW146557   2.855   3.061   8.978 -0.2124  1.6706 -1.1415
11526SOL    HW246558   2.979   3.055   8.891  0.9220 -1.8628  0.5130
11527SOL     OW46559   2.322   8.587  12.824  0.2306 -0.4383 -0.1337
11527SOL    HW146560   2.332   8.636  12.743 -1.7866 -0.3032 -0.3397
11527SOL    HW246561   2.357   8.500  12.804  0.9467 -0.0270 -0.7186
11528SOL     OW46562   6.056  13.910   7.846 -0.1140  0.1396 -0.2344
11528SOL    HW146563   6.107  13.893   7.767  0.8950 -2.8492  0.9364
11528SOL    HW246564   6.120  13.914   7.916 -1.0748  1.8610  0.5989
11529SOL     OW46565   0.159   1.964   9.798 -0.0297 -0.1870 -0.7645
11529SOL    HW146566   0.237   1.920   9.831  0.0987  0.6126  0.0169
11529SOL    HW246567   0.189   2.013   9.722  0.6765  1.6981  0.6739
11530SOL     OW46568   2.496   3.288   7.234  0.5157 -0.4399  0.3804
11530SOL    HW146569   2.554   3.328   7.300  1.0218 -0.4030 -0.0835
11530SOL    HW246570   2.409   3.321   7.256  0.7740  0.0673  0.6578
11531SOL     OW46571  12.956   5.188   2.865  0.5214 -0.0485  0.8099
11531SOL    HW146572  12.898   5.125   2.824  0.0480  0.6738  0.3456
11531SOL    HW246573  12.926   5.273   2.834  2.2582  0.3184  0.0034
11532SOL     OW46574   7.951   5.243   2.495 -0.9972 -0.2248  0.4247
11532SOL    HW146575   7.928   5.263   2.405 -0.1581 -1.1417 -0.0088
11532SOL    HW246576   8.033   5.290   2.511  0.4801 -2.4019 -0.3028
11533SOL     OW46577   5.658   0.540   0.183  0.0045 -0.0785 -0.1187
11533SOL    HW146578   5.684   0.528   0.091  0.4886  0.5343 -0.0672
11533SOL    HW246579   5.718   0.484   0.232  0.2204  0.1549 -0.1179
11534SOL     OW46580   0.171   8.603   1.227 -0.0738  0.2842  0.3910
11534SOL    HW146581   0.252   8.634   1.268  0.7830 -1.3811  0.0496
11534SOL    HW246582   0.201   8.547   1.155 -1.4665 -1.8922  1.4057
11535SOL     OW46583   3.273   9.713   2.224  0.0981  0.1165 -0.5882
11535SOL    HW146584   3.340   9.646   2.240 -0.2591 -0.0037  0.5171
11535SOL    HW246585   3.219   9.678   2.153  0.6221 -0.2244 -0.8192
11536SOL     OW46586   6.375   0.557   4.754  0.4052 -0.1471  0.2136
11536SOL    HW146587   6.398   0.636   4.704 -1.7101 -0.4110 -1.2967
11536SOL    HW246588   6.346   0.590   4.839 -0.7501  0.7784 -0.5050
11537SOL     OW46589   6.774   4.256   2.318 -0.5157 -0.2030  0.0899
11537SOL    HW146590   6.688   4.215   2.311 -0.7182  0.4417 -1.7112
11537SOL    HW246591   6.793   4.287   2.230  1.1780  0.4670  0.6508
11538SOL     OW46592   8.405   3.049   9.231 -0.1690  0.2221  0.2872
11538SOL    HW146593   8.398   3.111   9.159  1.0084  0.8929  0.7201
11538SOL    HW246594   8.362   2.970   9.199  1.5829 -0.0006 -1.7018
11539SOL     OW46595   6.842   3.556   0.057  0.1615 -0.2243  0.3305
11539SOL    HW146596   6.748   3.558   0.072 -0.3408  0.7188 -2.3624
11539SOL    HW246597   6.871   3.645   0.080  0.1803 -0.1626  0.0709
11540SOL     OW46598   5.052   5.653  10.412  0.2243  0.0470  0.0635
11540SOL    HW146599   4.984   5.718  10.398 -0.3331 -0.5786 -0.1970
11540SOL    HW246600   5.005   5.574  10.437  0.8585 -0.3614 -0.0094
11541SOL     OW46601  12.281  11.594   5.315 -0.1347 -0.3832  0.6950
11541SOL    HW146602  12.330  11.549   5.384  3.4410  0.3850 -1.1374
11541SOL    HW246603  12.253  11.523   5.257  1.8115 -0.6643  0.0291
11542SOL     OW46604   2.954  10.367   0.226  0.5603  0.2658 -0.0061
11542SOL    HW146605   2.948  10.293   0.167  0.7820  0.5065 -0.3346
11542SOL    HW246606   2.887  10.351   0.292  1.0428 -0.5479  0.2906
11543SOL     OW46607   4.214  10.482   8.629 -0.0813 -0.5830 -0.6596
11543SOL    HW146608   4.258  10.406   8.591 -1.1482 -1.7425  0.3270
11543SOL    HW246609   4.121  10.462   8.622 -0.3565  0.1123  0.6355
11544SOL     OW46610   5.374   6.607  13.822 -0.0590 -0.4646 -0.0960
11544SOL    HW146611   5.316   6.556  13.879  1.3457 -1.2191  0.7081
11544SOL    HW246612   5.416   6.542  13.767 -0.4545  0.1450 -1.1466
11545SOL     OW46613   8.581   7.476   0.555 -0.1812 -0.1150  0.3024
11545SOL    HW146614   8.556   7.558   0.512 -0.0215 -0.9838 -1.5365
11545SOL    HW246615   8.567   7.408   0.488 -0.4271 -1.6225  1.8049
11546SOL     OW46616  13.295   8.740  11.570 -0.1937  0.3248  0.2788
11546SOL    HW146617  13.238   8.691  11.510  0.2543 -0.3125  0.3652
11546SOL    HW246618  13.257   8.725  11.656  0.3855 -0.5069  0.3924
11547SOL     OW46619   9.355   8.407  11.605  0.2618 -0.5178 -0.1285
11547SOL    HW146620   9.377   8.319  11.575 -0.7292 -1.4122  1.6019
11547SOL    HW246621   9.300   8.393  11.683  1.9305  1.6149  1.5738
11548SOL     OW46622   8.221   2.409   6.658  0.0207 -0.3008 -0.0775
11548SOL    HW146623   8.313   2.396   6.678  0.4039 -0.7599 -1.9199
11548SOL    HW246624   8.192   2.475   6.720  1.3932 -0.6530  0.9959
11549SOL     OW46625   3.565   2.891   6.780 -0.1071  0.2347  0.1798
11549SOL    HW146626   3.475   2.922   6.764 -0.6580 -1.7211 -0.7718
11549SOL    HW246627   3.564   2.863   6.872 -1.1016 -1.6020 -0.3384
11550SOL     OW46628   2.455   0.121   6.714 -0.3707 -0.4780 -0.5579
11550SOL    HW146629   2.362   0.103   6.698 -0.5187  1.1788 -1.8481
11550SOL    HW246630   2.464   0.118   6.810 -2.0625  0.6296 -0.3212
11551SOL     OW46631   9.093   0.199  13.420 -0.2578  0.7309  0.1031
11551SOL    HW146632   9.141   0.134  13.471  0.5879 -0.4843 -2.1382
11551SOL    HW246633   9.019   0.151  13.383  0.4714  0.9237 -1.7205
11552SOL     OW46634   3.041   1.619   8.761  0.2755 -0.6123  0.2734
11552SOL    HW146635   2.947   1.617   8.781  0.4472  2.0096  1.7268
11552SOL    HW246636   3.082   1.581   8.839  0.5309  1.3929  1.1616
11553SOL     OW46637   8.206  12.384   0.306 -0.0555  0.0616  0.1561
11553SOL    HW146638   8.274  12.437   0.347  1.7219 -2.3189  0.4790
11553SOL    HW246639   8.244  12.356   0.223 -1.0063 -0.5809 -0.0751
11554SOL     OW46640  13.432   5.403   7.218 -0.0241  0.4703 -0.3120
11554SOL    HW146641  13.523   5.373   7.220 -0.2520 -0.3161 -0.9954
11554SOL    HW246642  13.438   5.498   7.212  0.7557  0.4231 -0.3884
11555SOL     OW46643   1.201   1.902  13.473  0.2038 -0.1833 -0.0826
11555SOL    HW146644   1.196   1.837  13.543 -1.2313  1.5468  1.5315
11555SOL    HW246645   1.294   1.913  13.456  0.7956  0.9287  3.1897
11556SOL     OW46646   6.407   3.854   8.135 -0.0182  0.5481  0.5189
11556SOL    HW146647   6.341   3.824   8.198 -2.2035  0.3003 -1.7441
11556SOL    HW246648   6.445   3.932   8.176  0.0945 -0.6849  2.9704
11557SOL     OW46649  10.159   0.998   3.870  0.0760  0.2021 -0.2815
11557SOL    HW146650  10.233   0.957   3.913  0.3080  0.4724 -0.4192
11557SOL    HW246651  10.082   0.958   3.910  0.2879  0.5487  0.4922
11558SOL     OW46652   6.449   3.789  11.849  0.4647 -0.7317  0.4437
11558SOL    HW146653   6.361   3.804  11.815  0.7010  0.6894  0.4034
11558SOL    HW246654   6.444   3.703  11.891 -0.4261 -1.5175 -1.1770
11559SOL     OW46655   0.681   1.556   6.047 -0.1377 -0.5547 -0.3543
11559SOL    HW146656   0.623   1.499   5.997 -1.4345  1.5664 -1.4092
11559SOL    HW246657   0.623   1.611   6.100  1.0923 -0.7480  1.3081
11560SOL     OW46658   5.177   0.839  12.253  0.1516  0.4629  0.0287
11560SOL    HW146659   5.271   0.831  12.267 -0.0567  0.8206  1.8735
11560SOL    HW246660   5.169   0.881  12.168  1.6565  0.4625 -0.1423
11561SOL     OW46661  10.478  13.296  11.572  0.7232 -0.4396 -0.0838
11561SOL    HW146662  10.392  13.300  11.615 -0.3985  0.0793 -2.2525
11561SOL    HW246663  10.498  13.202  11.568  0.0100 -0.6021 -0.0236
11562SOL     OW46664   2.541   1.518   7.075 -0.3883 -0.3234 -0.5662
11562SOL    HW146665   2.499   1.590   7.121 -2.4618 -1.8008  0.0296
11562SOL    HW246666   2.549   1.449   7.141  0.2558 -1.1066 -1.4427
11563SOL     OW46667  11.473  11.604  12.757  0.4231  0.6133  0.4625
11563SOL    HW146668  11.463  11.616  12.851  0.5395  1.0036  0.4257
11563SOL    HW246669  11.564  11.576  12.746  0.1317 -0.3965  0.5548
11564SOL     OW46670  11.103   9.356   8.792  0.4728 -0.5202 -0.0403
11564SOL    HW146671  11.101   9.332   8.884 -0.1549 -1.4932 -0.2858
11564SOL    HW246672  11.022   9.404   8.777 -0.4447 -2.1270 -0.5011
11565SOL     OW46673   2.618   1.192   2.934  0.4728 -0.1656 -1.0492
11565SOL    HW146674   2.546   1.177   2.872  0.3484  0.4704 -1.0671
11565SOL    HW246675   2.694   1.209   2.878  0.5557 -0.4567 -1.0276
11566SOL     OW46676   9.878   4.901  10.168  0.1563  0.8332 -0.2052
11566SOL    HW146677   9.890   4.807  10.161  0.9343  1.0216 -1.8727
11566SOL    HW246678   9.934   4.927  10.241 -1.1300 -0.1291  1.1985
11567SOL     OW46679   8.926  11.862   5.575  0.7185  0.9002 -0.6696
11567SOL    HW146680   8.872  11.881   5.652  0.9008  2.5425 -0.9235
11567SOL    HW246681   9.006  11.823   5.612  0.2048  0.3270 -0.1460
11568SOL     OW46682   9.017  13.869   1.065 -0.2015  0.0069 -0.3706
11568SOL    HW146683   8.983  13.876   0.976 -1.0550 -0.4480 -0.0815
11568SOL    HW246684   8.962  13.928   1.117 -1.3001 -1.5492  0.3036
11569SOL     OW46685  11.376  12.475   9.056  0.1552  0.2779 -0.1482
11569SOL    HW146686  11.392  12.541   9.123  3.3805 -0.3154 -0.1727
11569SOL    HW246687  11.362  12.526   8.976  2.2204  1.0483 -0.0998
11570SOL     OW46688   4.307   3.922   8.544 -0.0023 -0.3730 -0.0012
11570SOL    HW146689   4.344   3.879   8.621  0.0813 -1.7212 -0.7558
11570SOL    HW246690   4.266   3.851   8.494 -2.3352  0.8050  0.0493
11571SOL     OW46691   9.027  13.466   2.521 -0.2096 -0.5881 -0.4530
11571SOL    HW146692   9.121  13.450   2.520 -0.1873 -0.8991  1.9844
11571SOL    HW246693   8.991  13.393   2.571 -1.7053 -0.1928 -0.9088
11572SOL     OW46694   5.824  11.615  11.557 -0.1234 -0.2507  0.1636
11572SOL    HW146695   5.801  11.523  11.568 -0.1554 -0.1694  0.7837
11572SOL    HW246696   5.746  11.654  11.517 -0.3930 -0.3432  0.5906
11573SOL     OW46697   6.641   3.383  13.825  0.6903 -0.3653  0.0927
11573SOL    HW146698   6.690   3.375  13.743 -0.8436 -1.3090 -0.7956
11573SOL    HW246699   6.637   3.294  13.860  0.0362 -0.2280  0.3836
11574SOL     OW46700  10.345   5.280  10.554  0.1564  0.1423  0.1751
11574SOL    HW146701  10.298   5.273  10.637  0.0243 -0.2292  0.0716
11574SOL    HW246702  10.436   5.293  10.579  0.3167 -1.2785  0.3938
11575SOL     OW46703  10.233   9.982   8.969  0.0960 -0.0887 -0.2205
11575SOL    HW146704  10.244   9.947   9.057  0.7388  0.2071 -0.1793
11575SOL    HW246705  10.250  10.076   8.978  0.2525 -0.0689 -0.6767
11576SOL     OW46706  12.251   2.085   4.990 -0.1063  0.5649  0.4489
11576SOL    HW146707  12.285   2.109   5.077  0.5550 -0.4370  0.4803
11576SOL    HW246708  12.166   2.128   4.985 -1.0472 -0.9038  2.4018
11577SOL     OW46709   1.669   6.875   4.474  0.2553 -0.0180  0.5484
11577SOL    HW146710   1.591   6.848   4.425 -0.3832 -0.4581  1.7756
11577SOL    HW246711   1.662   6.970   4.480  0.1455  0.0044  0.1295
11578SOL     OW46712   2.943  12.161   8.158  0.4755 -0.4697  0.3762
11578SOL    HW146713   3.004  12.192   8.092  1.3295  0.0427  1.3817
11578SOL    HW246714   2.956  12.066   8.160  0.8179 -0.4290  0.1714
11579SOL     OW46715   3.757   3.655   3.987  0.0363  0.4330  0.6534
11579SOL    HW146716   3.663   3.643   3.978  0.0142  1.2712 -0.4441
11579SOL    HW246717   3.768   3.744   4.020  0.4635  0.9039 -0.6713
11580SOL     OW46718   2.436  11.885   9.502 -0.1707  0.5412  0.3821
11580SOL    HW146719   2.453  11.978   9.512 -1.3713  0.8311 -0.0379
11580SOL    HW246720   2.499  11.855   9.436 -0.4331  1.2779 -0.2151
11581SOL     OW46721  10.530   3.716   3.834 -0.0811  0.0720 -0.5646
11581SOL    HW146722  10.456   3.760   3.794 -0.5946 -0.0275  0.2475
11581SOL    HW246723  10.506   3.623   3.834 -0.6079  0.1902  1.0065
11582SOL     OW46724  13.720   8.008   6.127 -0.1172 -0.4527 -0.4767
11582SOL    HW146725  13.680   8.070   6.187  2.4949  2.9999 -1.9883
11582SOL    HW246726  13.660   8.003   6.054 -0.1930  0.6739 -0.5094
11583SOL     OW46727  12.341   4.127   2.948 -0.1393 -0.0325  0.1506
11583SOL    HW146728  12.435   4.111   2.942 -0.1070  0.3997 -0.6460
11583SOL    HW246729  12.307   4.102   2.862 -0.5808  0.8821  0.0415
11584SOL     OW46730   1.020  11.701   5.196 -0.4611 -1.1029  0.7546
11584SOL    HW146731   1.000  11.717   5.288  0.8073 -1.7593  1.1559
11584SOL    HW246732   0.947  11.647   5.165 -0.5183 -1.5171  1.5751
11585SOL     OW46733   9.283  10.645  10.461  0.0962 -0.3268  0.1366
11585SOL    HW146734   9.213  10.654  10.396 -1.4431 -1.2541  1.5656
11585SOL    HW246735   9.349  10.591  10.417 -1.0133 -1.1459 -0.5921
11586SOL     OW46736   6.042   9.935   6.596 -0.5238 -0.4092  0.3518
11586SOL    HW146737   6.066   9.878   6.523  0.5998  0.5776 -0.0649
11586SOL    HW246738   5.950   9.914   6.613 -0.0954 -2.5308  0.3943
11587SOL     OW46739  12.049  10.919   8.157  0.9119 -1.2363 -0.1069
11587SOL    HW146740  12.000  10.841   8.130 -0.4602 -0.0090 -1.3231
11587SOL    HW246741  11.992  10.962   8.220  1.2839 -0.7503 -0.0967
11588SOL     OW46742   7.193   2.654   3.418 -0.0338  0.1491 -0.9765
11588SOL    HW146743   7.234   2.701   3.346  1.2236 -1.1049 -1.1257
11588SOL    HW246744   7.164   2.571   3.379 -0.6562  0.0622 -0.3533
11589SOL     OW46745   2.146   2.170   5.543 -0.2440 -0.7191 -0.0711
11589SOL    HW146746   2.209   2.098   5.541  0.9695  0.1955  2.2722
11589SOL    HW246747   2.199   2.249   5.534 -1.2978 -0.0096 -0.2103
11590SOL     OW46748   0.904  12.703   2.501 -0.1198  0.1786  0.3693
11590SOL    HW146749   0.964  12.695   2.575 -0.2318  1.8947  0.6974
11590SOL    HW246750   0.943  12.770   2.445  0.3968 -1.6699 -1.6048
11591SOL     OW46751   1.080   9.206   5.821 -0.4885  0.2690 -0.1530
11591SOL    HW146752   1.084   9.115   5.792 -1.6888  0.4698 -1.0130
11591SOL    HW246753   1.144   9.252   5.767 -0.7438  0.1450 -0.5652
11592SOL     OW46754   1.630  12.807   0.024  0.2916 -0.3480  0.5246
11592SOL    HW146755   1.656  12.897   0.004 -1.4197  0.4517  1.6186
11592SOL    HW246756   1.683  12.753  -0.034  0.7213  1.4228 -0.8222
11593SOL     OW46757   5.484   7.407   7.914 -0.3207  0.4192  0.5249
11593SOL    HW146758   5.494   7.501   7.932 -2.2661  1.2284 -1.9925
11593SOL    HW246759   5.525   7.394   7.829  1.9448 -1.5900  1.8013
11594SOL     OW46760   2.239  13.123   0.404 -0.4328 -0.2769 -0.2546
11594SOL    HW146761   2.312  13.153   0.349  0.1137  0.0701  0.6406
11594SOL    HW246762   2.161  13.145   0.354  0.0172  0.9828 -0.4402
11595SOL     OW46763   4.285  12.086   4.945 -0.2447  0.2988 -0.0459
11595SOL    HW146764   4.275  12.040   4.861 -1.8405  0.4838  0.0155
11595SOL    HW246765   4.249  12.026   5.010  1.9979 -0.3251  0.7232
11596SOL     OW46766   0.693   1.460   9.619 -0.0832 -0.1386  0.1134
11596SOL    HW146767   0.599   1.479   9.613 -0.0670 -0.3972 -1.6905
11596SOL    HW246768   0.697   1.373   9.659 -0.8367 -1.3119 -2.1202
11597SOL     OW46769   5.426  10.092   9.103 -0.5281 -0.1504 -0.1868
11597SOL    HW146770   5.486  10.038   9.052 -0.3145  2.5122 -3.0729
11597SOL    HW246771   5.339  10.057   9.082 -0.2456 -1.7917  1.1928
11598SOL     OW46772   3.709   0.050   1.286  0.5804 -0.2963 -0.5437
11598SOL    HW146773   3.746  -0.032   1.319  1.6190  0.0568 -0.8187
11598SOL    HW246774   3.773   0.117   1.309 -0.0063  0.3715 -0.8089
11599SOL     OW46775   7.842   5.719   7.710  0.1653 -0.6356 -0.4833
11599SOL    HW146776   7.781   5.689   7.777  1.1190 -2.8206 -0.5327
11599SOL    HW246777   7.886   5.640   7.680  2.6721  0.7963 -0.8140
11600SOL     OW46778   1.659   9.421   3.896 -0.3154 -0.7584  0.1617
11600SOL    HW146779   1.609   9.350   3.856 -0.3975  0.4063 -1.9244
11600SOL    HW246780   1.596   9.491   3.908 -0.0522 -0.7082  1.4632
11601SOL     OW46781   7.593   4.600   1.849 -0.2004  0.4316  0.2618
11601SOL    HW146782   7.548   4.684   1.843 -2.0068 -0.4964  0.1444
11601SOL    HW246783   7.571   4.555   1.767  0.2532 -0.3776  0.5705
11602SOL     OW46784   2.818  10.415   8.482 -0.2589 -0.6055  0.3096
11602SOL    HW146785   2.881  10.343   8.482  0.2512 -0.1662  1.3234
11602SOL    HW246786   2.828  10.455   8.396  2.8372  1.1725  1.3578
11603SOL     OW46787  11.393   3.378   4.211 -0.1124  0.0319 -0.1949
11603SOL    HW146788  11.365   3.293   4.244  1.0009 -0.6296 -0.9225
11603SOL    HW246789  11.466   3.404   4.268 -0.3475  0.4434 -0.0707
11604SOL     OW46790   0.555   0.115   0.437  0.6606 -0.0902 -0.2132
11604SOL    HW146791   0.549   0.037   0.382  0.0893  0.3834 -0.8374
11604SOL    HW246792   0.592   0.083   0.520  0.5585 -0.9916 -0.5021
11605SOL     OW46793   9.684   7.680   2.043 -0.3358 -1.2198 -0.3987
11605SOL    HW146794   9.626   7.634   1.982 -0.5553 -1.4399 -0.0270
11605SOL    HW246795   9.709   7.759   1.997 -2.0189 -0.4441 -0.0506
11606SOL     OW46796   2.957  10.281  10.873  0.3234  0.6915  0.1596
11606SOL    HW146797   3.035  10.321  10.912  0.9426 -0.9081  0.6320
11606SOL    HW246798   2.958  10.191  10.905 -1.9734  0.7442  0.5211
11607SOL     OW46799   2.709   6.388   9.003  0.1479  0.6017  0.0232
11607SOL    HW146800   2.689   6.297   9.022  0.4806  0.7458  1.1247
11607SOL    HW246801   2.720   6.391   8.908 -0.7625 -0.3176 -0.1230
11608SOL     OW46802   1.240  10.439   8.844 -0.4079  0.2100 -0.7029
11608SOL    HW146803   1.264  10.526   8.876 -1.1830 -0.4887  2.0690
11608SOL    HW246804   1.324  10.394   8.832  0.0083 -0.0809  2.4231
11609SOL     OW46805  11.250  11.464  10.372  0.0328  0.4033  0.1378
11609SOL    HW146806  11.281  11.451  10.462  1.0873  0.1685 -0.2476
11609SOL    HW246807  11.210  11.380  10.349  0.8508  0.0479 -0.0243
11610SOL     OW46808  11.566   5.344   4.618  0.0678  0.0465  0.5087
11610SOL    HW146809  11.531   5.355   4.529  1.1990 -0.8198 -0.0716
11610SOL    HW246810  11.496   5.300   4.666 -0.8974  1.3148  0.3069
11611SOL     OW46811   8.048   3.625  11.292 -0.0046  0.7427  0.7846
11611SOL    HW146812   8.036   3.666  11.207  0.2953  2.9417  1.7223
11611SOL    HW246813   7.997   3.545  11.288  0.2319  0.6509 -1.5345
11612SOL     OW46814   3.135   4.013   8.242  0.0202 -0.5448 -0.0348
11612SOL    HW146815   3.145   4.080   8.309 -2.4097 -1.7280  1.6816
11612SOL    HW246816   3.204   3.949   8.261  2.1945  1.2085 -1.5365
11613SOL     OW46817   1.671  13.209   1.938  0.1976 -0.3711  0.0387
11613SOL    HW146818   1.673  13.268   2.012  0.6748  1.7073 -1.5457
11613SOL    HW246819   1.582  13.215   1.904  0.5493  0.3108 -0.7826
11614SOL     OW46820   2.497  13.304  12.572  0.0775  0.1361 -0.1895
11614SOL    HW146821   2.414  13.280  12.529 -0.2333  1.2666 -0.2546
11614SOL    HW246822   2.523  13.225  12.619 -1.7721  0.1669  0.9944
11615SOL     OW46823   2.845   6.466  10.278 -0.5294  0.0372 -0.5250
11615SOL    HW146824   2.815   6.386  10.319  0.9718 -0.1538  0.2762
11615SOL    HW246825   2.873   6.522  10.350  0.1528  0.5465 -1.1564
11616SOL     OW46826   0.411  11.448   0.411  0.1518  0.2844 -0.1938
11616SOL    HW146827   0.431  11.355   0.423  0.8951  0.0778 -2.5193
11616SOL    HW246828   0.318  11.448   0.385 -0.3082  0.3739  1.3644
11617SOL     OW46829   2.550   1.757   9.206  0.5715 -0.1137 -0.1306
11617SOL    HW146830   2.528   1.843   9.241 -0.8310 -1.5002  2.7813
11617SOL    HW246831   2.532   1.764   9.112  2.0689  3.1553 -0.3201
11618SOL     OW46832   4.238   3.568   6.679 -0.2284  0.8842  0.1132
11618SOL    HW146833   4.312   3.580   6.738  1.7256  1.0309 -2.2195
11618SOL    HW246834   4.271   3.591   6.593 -3.4699  2.4918 -0.8753
11619SOL     OW46835   0.995   7.835   3.608  0.1217 -0.6464  0.0712
11619SOL    HW146836   1.074   7.788   3.582  0.5118 -0.5852  1.0806
11619SOL    HW246837   1.024   7.926   3.619 -0.5633 -0.2043 -1.5861
11620SOL     OW46838   0.721   8.641   1.258 -0.3179  0.0461 -0.2964
11620SOL    HW146839   0.646   8.583   1.247  0.1232 -0.1687 -2.7651
11620SOL    HW246840   0.703   8.715   1.200  0.9426  0.4251 -0.2358
11621SOL     OW46841  11.205   0.390   7.565  0.1461 -0.2291 -0.4491
11621SOL    HW146842  11.128   0.352   7.522  1.0222 -0.3161 -2.0353
11621SOL    HW246843  11.278   0.334   7.537  0.9189  0.3602  0.3160
11622SOL     OW46844   4.166   4.350   7.485 -0.1732 -0.3485  0.2134
11622SOL    HW146845   4.089   4.295   7.499  0.3037 -0.9121  0.6568
11622SOL    HW246846   4.222   4.333   7.560 -0.0487  0.8200  0.4085
11623SOL     OW46847  13.274  10.003   0.152  0.5348  0.4801 -0.1446
11623SOL    HW146848  13.213   9.957   0.210  0.3657 -1.6320 -1.8708
11623SOL    HW246849  13.313  10.070   0.207 -1.6934  0.4542  1.6299
11624SOL     OW46850   3.742   6.018   1.640 -0.0689  0.1249  0.4098
11624SOL    HW146851   3.748   5.957   1.714  1.0866  0.6943  0.8207
11624SOL    HW246852   3.657   6.061   1.651  0.1801  0.3767  1.5726
11625SOL     OW46853  13.103  10.702  13.071 -0.2336 -0.0949 -0.0040
11625SOL    HW146854  13.011  10.730  13.073  0.1503  1.2211  1.5641
11625SOL    HW246855  13.152  10.781  13.094  1.1979 -1.1000  0.4672
11626SOL     OW46856  12.773   3.073   8.025  0.1867 -0.1346  0.4302
11626SOL    HW146857  12.808   3.002   8.079 -1.8098 -2.3920 -1.0160
11626SOL    HW246858  12.718   3.124   8.084  1.9218  0.4849  1.5767
11627SOL     OW46859  10.268   3.336   7.085 -0.3529 -0.0180 -0.0767
11627SOL    HW146860  10.267   3.371   7.174 -1.6056 -0.2626  0.0195
11627SOL    HW246861  10.350   3.369   7.047 -0.6314  1.5472  0.5878
11628SOL     OW46862   0.116   8.458   3.285  0.2138  0.1905 -0.1513
11628SOL    HW146863   0.040   8.413   3.323  0.2361 -0.7118 -1.1343
11628SOL    HW246864   0.157   8.503   3.359 -0.3024 -0.7252  0.7078
11629SOL     OW46865  12.768  12.253   3.981 -0.2483 -0.0536 -0.0933
11629SOL    HW146866  12.690  12.198   3.982 -0.7047  0.5937  1.4802
11629SOL    HW246867  12.738  12.339   4.009  1.2828 -0.2215  2.3600
11630SOL     OW46868   1.595   6.687   8.697  0.2482 -0.1852  0.2797
11630SOL    HW146869   1.621   6.629   8.626 -1.7607  0.3931 -1.0135
11630SOL    HW246870   1.676   6.728   8.727  1.0512  0.2549 -2.3144
11631SOL     OW46871   0.513   4.258   3.410 -0.0085 -1.0085 -0.4995
11631SOL    HW146872   0.439   4.250   3.349  0.0579 -2.3252 -0.4422
11631SOL    HW246873   0.590   4.265   3.354  0.0689 -2.3824 -0.5984
11632SOL     OW46874   9.867   9.658   7.092  0.3190  0.0961 -0.6101
11632SOL    HW146875   9.861   9.753   7.097  0.4755  0.1311 -1.0734
11632SOL    HW246876   9.960   9.640   7.105  0.3355  0.0250 -0.8314
11633SOL     OW46877  11.507   1.906   6.867 -0.6401  0.2842 -0.1369
11633SOL    HW146878  11.470   1.917   6.779 -1.4840  2.3611  0.4252
11633SOL    HW246879  11.441   1.941   6.926  0.5820  0.4003  1.2333
11634SOL     OW46880   1.157   8.529  12.172 -0.2832  0.7868 -0.1038
11634SOL    HW146881   1.187   8.570  12.254  0.8217  0.4988 -0.3542
11634SOL    HW246882   1.186   8.590  12.104  0.8990 -0.1136 -0.4384
11635SOL     OW46883   4.364   1.651   6.437  0.1752  0.3290 -0.1198
11635SOL    HW146884   4.452   1.646   6.399 -0.2546 -2.5137 -0.9814
11635SOL    HW246885   4.371   1.602   6.519 -0.1868  1.8333  0.8587
11636SOL     OW46886  11.245  11.233   0.918  0.8239 -0.4010 -0.5763
11636SOL    HW146887  11.298  11.168   0.963  0.4605 -0.1612  0.2229
11636SOL    HW246888  11.297  11.258   0.841  1.0375 -1.4884 -0.7934
11637SOL     OW46889   9.727   1.778   9.684  0.5892  0.4856  0.0052
11637SOL    HW146890   9.660   1.813   9.626  1.2480  1.0338 -0.4434
11637SOL    HW246891   9.786   1.729   9.625  0.3017 -0.4313  0.4630
11638SOL     OW46892   5.558   3.622   0.357 -0.0335 -0.9017  0.0274
11638SOL    HW146893   5.635   3.676   0.376  1.0565 -2.0150 -1.0301
11638SOL    HW246894   5.502   3.679   0.304  0.2278 -0.1935  0.4929
11639SOL     OW46895  12.673  11.663   5.378 -0.3712  0.0030  0.0135
11639SOL    HW146896  12.720  11.584   5.349  0.2448 -0.0824  1.1975
11639SOL    HW246897  12.696  11.672   5.470 -0.3554  1.6455 -0.1290
11640SOL     OW46898   3.349   5.687   0.690  0.0343 -0.2735 -0.5188
11640SOL    HW146899   3.345   5.783   0.688 -0.9285 -0.3013 -0.3199
11640SOL    HW246900   3.352   5.661   0.598  2.7335 -0.0050 -0.6062
11641SOL     OW46901   4.303   9.461   4.319 -0.1949 -0.8136  0.4673
11641SOL    HW146902   4.397   9.461   4.333 -0.1779 -1.4425  0.3720
11641SOL    HW246903   4.292   9.432   4.228 -0.2091  4.5813 -1.6106
11642SOL     OW46904  11.997  12.130  12.773  0.1239  0.3155  0.4201
11642SOL    HW146905  11.906  12.123  12.746  0.5325 -0.9249 -0.7669
11642SOL    HW246906  12.047  12.132  12.691  1.1847  0.7233  1.0453
11643SOL     OW46907  12.032  13.374   4.358  0.1693 -0.1041 -0.1806
11643SOL    HW146908  11.959  13.392   4.418  1.3050 -0.4898  1.3863
11643SOL    HW246909  12.031  13.448   4.297 -0.3472  0.9197  1.0105
11644SOL     OW46910  10.012   6.171   0.206  0.6048 -0.3856 -0.5713
11644SOL    HW146911   9.986   6.254   0.246 -0.4607 -0.4798 -1.0395
11644SOL    HW246912  10.034   6.194   0.116  3.3219 -0.1171  0.0882
11645SOL     OW46913   4.322  12.027   6.483  0.3894  0.4466  0.0384
11645SOL    HW146914   4.245  11.973   6.502 -1.2669  1.6920 -2.5801
11645SOL    HW246915   4.292  12.091   6.418  2.9301  2.8590  1.0273
11646SOL     OW46916   9.765   1.365   5.686 -0.0949  0.6546  0.0826
11646SOL    HW146917   9.814   1.348   5.606  0.1405 -0.8059  0.5090
11646SOL    HW246918   9.826   1.412   5.742  1.0543 -1.5376  0.7808
11647SOL     OW46919   3.960   9.750   8.351  0.0777  0.4176 -0.0747
11647SOL    HW146920   4.042   9.797   8.362  0.1447  0.0175  1.4430
11647SOL    HW246921   3.986   9.658   8.345 -0.2438  0.2865  0.4401
11648SOL     OW46922  11.293  13.718   6.728  0.1072  0.4214  0.0122
11648SOL    HW146923  11.220  13.766   6.766 -0.3718 -0.8100  0.6996
11648SOL    HW246924  11.327  13.776   6.660 -1.6197  0.9520 -0.4478
11649SOL     OW46925   9.973  13.551  13.255 -0.2741  0.4289 -0.1257
11649SOL    HW146926  10.021  13.633  13.267  0.6154 -0.3410  2.3127
11649SOL    HW246927   9.888  13.567  13.296 -0.0618  0.1262  0.4454
11650SOL     OW46928   3.619   5.584  10.589 -0.0712 -0.4559  0.5273
11650SOL    HW146929   3.552   5.546  10.646  2.5593 -1.4434  3.2805
11650SOL    HW246930   3.662   5.508  10.550  0.0999  0.1121 -0.4227
11651SOL     OW46931   8.346   6.581   0.097 -0.1511  0.0680  0.7542
11651SOL    HW146932   8.401   6.503   0.101  0.4856  0.5418  3.1044
11651SOL    HW246933   8.279   6.561   0.032  0.4224 -2.1381  0.7833
11652SOL     OW46934  12.563   1.815   4.978  0.2515  0.0249 -0.7020
11652SOL    HW146935  12.578   1.743   4.916  2.1251 -1.2084  1.0310
11652SOL    HW246936  12.500   1.780   5.040  0.0389  0.4409 -0.6842
11653SOL     OW46937   4.686  11.730   6.101 -0.4564 -0.1158 -0.1659
11653SOL    HW146938   4.666  11.778   6.021 -1.2705 -0.3858 -0.1292
11653SOL    HW246939   4.645  11.645   6.089 -1.0924  0.0429  0.7863
11654SOL     OW46940  11.545   5.990   2.383 -0.0994 -0.6843  0.6326
11654SOL    HW146941  11.500   6.012   2.465 -1.9042  0.0497 -0.4810
11654SOL    HW246942  11.484   6.018   2.314  2.6063  1.6071 -1.0701
11655SOL     OW46943   7.502   9.719   9.343 -0.4641  0.4237 -0.7578
11655SOL    HW146944   7.565   9.658   9.307 -1.2039 -1.7303  1.3689
11655SOL    HW246945   7.545   9.805   9.337  1.1959 -0.4652 -2.4902
11656SOL     OW46946   1.834   6.462   6.497 -0.1675  0.1255 -0.0287
11656SOL    HW146947   1.777   6.485   6.571 -1.5530  0.0403 -1.0187
11656SOL    HW246948   1.776   6.416   6.436  0.6508  1.1961 -1.6768
11657SOL     OW46949  12.012   2.088   8.394  0.1628 -0.4625  0.4468
11657SOL    HW146950  11.931   2.095   8.343  0.6872  0.9034 -0.2386
11657SOL    HW246951  12.056   2.172   8.382  1.2388 -0.8228  1.5963
11658SOL     OW46952  12.430   5.660   8.257 -0.0732 -0.2329  0.1480
11658SOL    HW146953  12.481   5.584   8.283 -0.0149 -0.3809 -0.3989
11658SOL    HW246954  12.488   5.710   8.199 -0.7674 -0.7386 -1.0119
11659SOL     OW46955  12.779   3.138   8.447  0.1937  0.3745  0.2899
11659SOL    HW146956  12.780   3.071   8.379 -0.5637 -0.7828  1.3748
11659SOL    HW246957  12.739   3.095   8.523  0.1194  1.9136  1.1688
11660SOL     OW46958   2.784  11.961   3.339  0.3617 -0.8362  0.3134
11660SOL    HW146959   2.875  11.991   3.340  0.0889  0.0479  0.1268
11660SOL    HW246960   2.780  11.902   3.264  0.7242 -0.6633  0.1506
11661SOL     OW46961  11.117   9.903  13.771  0.0774 -0.3268  0.3282
11661SOL    HW146962  11.058   9.828  13.775  1.1557 -1.4248 -2.0160
11661SOL    HW246963  11.157   9.897  13.684  0.5515  2.7455  0.2209
11662SOL     OW46964   9.409   1.533  11.754 -0.1923 -0.0486 -0.7591
11662SOL    HW146965   9.328   1.499  11.714 -1.4822  0.4774  1.2609
11662SOL    HW246966   9.379   1.587  11.827  2.0242 -1.2518  1.1798
11663SOL     OW46967  11.757   9.503   6.879 -0.4047  0.4617 -0.0202
11663SOL    HW146968  11.841   9.497   6.833 -0.4918  1.4353 -0.3194
11663SOL    HW246969  11.697   9.452   6.824  0.0449 -0.5227  0.3687
11664SOL     OW46970   3.438   8.758   0.749 -0.0580 -0.3424 -0.1094
11664SOL    HW146971   3.369   8.694   0.732 -1.9644  0.9987  2.0234
11664SOL    HW246972   3.468   8.784   0.662 -1.3688 -1.8950 -1.0847
11665SOL     OW46973  11.535   3.103   4.079  0.1129 -0.1048  0.0135
11665SOL    HW146974  11.619   3.136   4.110 -0.3422  0.0977  1.0767
11665SOL    HW246975  11.539   3.009   4.093 -0.3958  0.0717  1.5167
11666SOL     OW46976   3.897   4.193  13.988 -0.1249 -0.4485 -0.1102
11666SOL    HW146977   3.983   4.166  13.955  1.4264  0.4167  2.8652
11666SOL    HW246978   3.885   4.142  14.068 -1.0613  1.4176  1.0141
11667SOL     OW46979   9.615   1.810   1.944  0.0517  0.2002  0.2784
11667SOL    HW146980   9.687   1.806   1.880 -1.2044 -0.3454 -1.1472
11667SOL    HW246981   9.628   1.893   1.990  0.2170  1.2830 -1.6391
11668SOL     OW46982   0.661   1.646   4.960  0.0446  0.5910  0.2365
11668SOL    HW146983   0.599   1.716   4.941  0.0205  0.3035 -0.8163
11668SOL    HW246984   0.655   1.587   4.885  0.9477  0.0930  0.5312
11669SOL     OW46985   4.203  13.105   7.597  0.0414  0.7416 -0.4398
11669SOL    HW146986   4.157  13.176   7.552  0.8445  0.8361 -1.1371
11669SOL    HW246987   4.275  13.083   7.539  2.0859  1.9399  1.4763
11670SOL     OW46988  13.124  10.263   5.654 -0.2779  0.1615 -0.3277
11670SOL    HW146989  13.142  10.182   5.606  1.1315 -0.0215  0.4348
11670SOL    HW246990  13.146  10.241   5.745  1.7384  1.8171 -0.3270
11671SOL     OW46991  12.260   1.740   8.216  0.3967  0.6824  0.3225
11671SOL    HW146992  12.352   1.739   8.191  0.5786 -0.0440  0.9893
11671SOL    HW246993  12.259   1.786   8.300  0.0820  1.0706  0.1160
11672SOL     OW46994   6.529  10.727   0.820 -0.5682 -0.2595 -0.1017
11672SOL    HW146995   6.509  10.634   0.807 -0.2024 -0.7134  2.2074
11672SOL    HW246996   6.574  10.731   0.904  1.1687  1.7960 -1.0052
11673SOL     OW46997   9.725   3.304   0.718  0.2726  0.1220 -0.3532
11673SOL    HW146998   9.820   3.297   0.712  0.3356  0.0807  0.5636
11673SOL    HW246999   9.702   3.369   0.651  1.1251  1.3210  0.4698
11674SOL     OW47000   7.552   0.946   2.970  0.3690  0.0460  0.1960
11674SOL    HW147001   7.514   1.034   2.964  1.0288  0.4844  1.9927
11674SOL    HW247002   7.515   0.910   3.050 -0.0371 -1.4235 -0.6182
11675SOL     OW47003   8.606  12.604   6.723  0.2458  0.0623  0.2913
11675SOL    HW147004   8.526  12.620   6.774 -0.5635 -0.1591 -0.8616
11675SOL    HW247005   8.582  12.628   6.633  1.3215 -0.5020 -0.1620
11676SOL     OW47006   3.770  13.743   9.518 -0.4447  0.3718  0.2978
11676SOL    HW147007   3.789  13.684   9.591 -0.0107  0.3006  0.1284
11676SOL    HW247008   3.688  13.786   9.543 -0.5355  0.0183  0.6213
11677SOL     OW47009   5.871   9.076   1.789  0.3360  0.1521  0.6148
11677SOL    HW147010   5.942   9.023   1.753 -0.2716 -0.1290 -0.1943
11677SOL    HW247011   5.791   9.029   1.764 -0.1557  0.7786  0.9901
11678SOL     OW47012   5.124   3.820   6.667  1.1816 -0.4654  0.3585
11678SOL    HW147013   5.162   3.900   6.704  1.4695 -0.1745 -0.5374
11678SOL    HW247014   5.034   3.819   6.699  1.5978 -0.5656  1.5832
11679SOL     OW47015  12.085   9.430   4.225 -0.5098 -0.2347  0.0354
11679SOL    HW147016  12.122   9.362   4.280 -1.5064 -1.4154 -0.6778
11679SOL    HW247017  11.993   9.435   4.251 -0.9940 -0.7902 -1.4356
11680SOL     OW47018   9.778   8.218  13.336 -0.7338 -0.1973 -0.4528
11680SOL    HW147019   9.748   8.169  13.259 -1.7993 -0.7890  0.3186
11680SOL    HW247020   9.728   8.181  13.409 -1.0882  1.5998  0.2518
11681SOL     OW47021   1.986  12.925   7.360  1.0162  0.1977  0.2159
11681SOL    HW147022   1.902  12.901   7.399  0.7151 -1.5579 -1.3585
11681SOL    HW247023   1.985  13.021   7.357 -0.2190  0.2582  1.6627
11682SOL     OW47024   9.490   3.975   6.499 -0.3264  0.1334 -0.2816
11682SOL    HW147025   9.545   3.900   6.522 -0.1192 -0.0940 -1.4504
11682SOL    HW247026   9.416   3.971   6.559  1.2647  0.8696  1.8479
11683SOL     OW47027   9.422   3.029   9.932 -0.5099 -0.0082 -0.1572
11683SOL    HW147028   9.367   3.106   9.939 -1.0242 -0.3551 -0.3248
11683SOL    HW247029   9.377   2.972   9.869  0.3517 -0.0298 -0.7802
11684SOL     OW47030  12.247  13.561  12.426  0.2315 -0.0847  0.0159
11684SOL    HW147031  12.320  13.600  12.378  0.3194 -0.0685  0.1612
11684SOL    HW247032  12.221  13.486  12.372  0.0344  0.1956 -0.2828
11685SOL     OW47033   0.666  13.457  11.843  0.2270  0.2739  0.4151
11685SOL    HW147034   0.756  13.483  11.861 -0.5679  3.0146  0.9236
11685SOL    HW247035   0.660  13.367  11.875  2.5441  0.3163  1.1371
11686SOL     OW47036   5.691   2.415  12.174  0.2080 -0.0594 -0.2348
11686SOL    HW147037   5.751   2.489  12.163  1.2794 -1.2313 -3.4378
11686SOL    HW247038   5.644   2.409  12.091 -0.1928 -2.6664  0.0916
11687SOL     OW47039   9.016   3.044   9.819 -0.2517  0.3748 -0.2839
11687SOL    HW147040   8.970   2.992   9.753 -0.3425 -0.5176  0.4677
11687SOL    HW247041   8.988   3.007   9.902  0.2960  1.1283  0.2444
11688SOL     OW47042  12.668  11.890   0.839  0.0220  0.4209  0.6888
11688SOL    HW147043  12.652  11.863   0.749 -1.1120 -0.5486  1.1518
11688SOL    HW247044  12.749  11.845   0.863  1.8722  2.7897 -0.6407
11689SOL     OW47045   9.553   2.842   7.711 -0.4191  0.0580  0.0479
11689SOL    HW147046   9.581   2.898   7.638 -1.3702 -0.1991 -0.5462
11689SOL    HW247047   9.633   2.823   7.760 -0.1659  2.4882  0.6748
11690SOL     OW47048  11.693  12.025   2.944  0.3133  0.5179  0.3189
11690SOL    HW147049  11.712  11.935   2.969 -0.0615 -0.1528 -1.6276
11690SOL    HW247050  11.778  12.069   2.945  1.0726 -0.7433 -1.8932
11691SOL     OW47051   8.111   3.462   4.179 -0.1528 -0.2840 -0.2786
11691SOL    HW147052   8.050   3.525   4.218  0.0358  0.8530 -1.7256
11691SOL    HW247053   8.067   3.377   4.190 -1.4140  0.3508 -0.1432
11692SOL     OW47054   9.161  11.816  10.828  0.0521 -0.4002 -0.3523
11692SOL    HW147055   9.227  11.839  10.763  0.3100  0.1556  0.0972
11692SOL    HW247056   9.211  11.775  10.899  0.1120  1.1438  0.5510
11693SOL     OW47057   7.325  12.272  13.742 -0.4472 -0.3679  0.5718
11693SOL    HW147058   7.398  12.230  13.788  0.4674  0.7148  0.1682
11693SOL    HW247059   7.262  12.293  13.811  0.3272  0.0647  1.1700
11694SOL     OW47060  13.226   1.560   9.632  0.2556 -0.1019  0.5471
11694SOL    HW147061  13.251   1.474   9.667 -0.1997 -0.8709 -0.9259
11694SOL    HW247062  13.259   1.623   9.696 -0.6697 -1.4258  2.4219
11695SOL     OW47063  11.785  10.679   3.004 -0.4545  0.3020  0.2418
11695SOL    HW147064  11.728  10.627   2.948 -2.7630  1.0453  1.7891
11695SOL    HW247065  11.752  10.768   2.997  0.3297  0.7135  1.4290
11696SOL     OW47066   2.680   0.033   6.279 -0.0655  0.4047 -0.3302
11696SOL    HW147067   2.707   0.055   6.368 -0.4524 -0.2768 -0.0387
11696SOL    HW247068   2.632  -0.049   6.288  3.6077 -2.1262 -1.7225
11697SOL     OW47069  10.333   4.237  12.805  0.6569 -0.7632  0.4557
11697SOL    HW147070  10.313   4.323  12.769  0.0971 -1.3574 -0.7345
11697SOL    HW247071  10.296   4.238  12.893  0.0851 -0.0105  0.2148
11698SOL     OW47072   9.355   0.182   7.799 -0.5120  0.5791 -0.0048
11698SOL    HW147073   9.398   0.165   7.883  0.5607 -1.3326 -0.8893
11698SOL    HW247074   9.426   0.185   7.736 -1.3827  1.1191 -0.9938
11699SOL     OW47075   6.543   6.516  13.848 -0.3117  0.0082 -0.0184
11699SOL    HW147076   6.566   6.545  13.936 -0.1506  1.1271 -0.4084
11699SOL    HW247077   6.601   6.566  13.790 -0.1579 -0.9811 -0.7474
11700SOL     OW47078   8.214  11.796  13.947 -0.4919  0.2762 -0.6650
11700SOL    HW147079   8.220  11.776  14.041  1.6403  0.1025 -0.7865
11700SOL    HW247080   8.185  11.714  13.907  0.7854 -0.3638 -0.3510
11701SOL     OW47081   2.398   1.526   1.073  0.4722 -0.2522  0.6209
11701SOL    HW147082   2.422   1.572   1.153 -1.7095  2.0017  0.1175
11701SOL    HW247083   2.339   1.456   1.102  0.6990 -0.2579  1.0742
11702SOL     OW47084  10.478   6.874   9.397 -0.0670 -0.5346 -0.5767
11702SOL    HW147085  10.500   6.845   9.309  2.0848  0.7579 -0.5192
11702SOL    HW247086  10.402   6.932   9.386  0.1851 -0.3906 -1.5623
11703SOL     OW47087   5.600   2.242  10.640  0.1535  0.2983  0.4814
11703SOL    HW147088   5.625   2.154  10.668  1.5212  1.0137  1.6030
11703SOL    HW247089   5.674   2.272  10.588 -0.4894  0.6581 -0.2528
11704SOL     OW47090   0.990   7.121   8.097 -0.0647 -0.2372  0.0379
11704SOL    HW147091   1.045   7.161   8.164  1.3667  0.1360 -1.2899
11704SOL    HW247092   1.029   7.150   8.014 -1.3498 -1.2354 -0.9546
11705SOL     OW47093   8.420   4.647  12.617 -0.1638  0.0241 -0.3394
11705SOL    HW147094   8.369   4.570  12.642  0.3823 -0.6662 -1.2774
11705SOL    HW247095   8.359   4.703  12.570 -0.3651 -0.2206 -0.3696
11706SOL     OW47096   2.788   0.224   7.878 -0.7972 -0.0440 -0.5337
11706SOL    HW147097   2.827   0.273   7.951 -1.2612 -0.7965  0.2467
11706SOL    HW247098   2.849   0.235   7.806  0.1415 -0.0284  0.2407
11707SOL     OW47099  13.784  11.311  13.224  0.3102  0.4537  0.0428
11707SOL    HW147100  13.877  11.299  13.242 -0.0583 -0.4595  1.5292
11707SOL    HW247101  13.762  11.245  13.158  0.5572  0.1477  0.2676
11708SOL     OW47102   6.550   4.883   4.340  0.3366  0.1184 -0.3407
11708SOL    HW147103   6.505   4.865   4.257 -1.0510 -0.0184  0.4207
11708SOL    HW247104   6.602   4.804   4.356  1.1184  0.3978 -1.3751
11709SOL     OW47105  11.451   1.209   0.479  0.4845 -0.1851 -0.2916
11709SOL    HW147106  11.375   1.263   0.501  0.7332  0.6223 -1.3124
11709SOL    HW247107  11.421   1.152   0.408  0.1168 -1.7010  1.0382
11710SOL     OW47108  13.597  13.930   7.091  0.2831 -0.7299 -0.1499
11710SOL    HW147109  13.506  13.955   7.106  0.5504 -0.2846  0.7774
11710SOL    HW247110  13.639  14.011   7.061  0.7708 -0.4590  1.1989
11711SOL     OW47111   5.870  10.931   8.160  0.4457 -0.3877  0.3990
11711SOL    HW147112   5.899  10.846   8.194  1.4162 -0.2810 -0.1167
11711SOL    HW247113   5.926  10.946   8.084 -0.8064 -0.0357 -0.4870
11712SOL     OW47114   7.482   5.016   7.431 -0.2129  0.0296 -0.3567
11712SOL    HW147115   7.485   5.034   7.337  2.5261 -1.4781 -0.6491
11712SOL    HW247116   7.538   5.084   7.470  0.1046 -0.4038 -0.0467
11713SOL     OW47117   5.328   2.256  10.143  0.1715 -0.1230 -0.2069
11713SOL    HW147118   5.276   2.295  10.213  1.7778  0.7214  0.5758
11713SOL    HW247119   5.293   2.295  10.063  0.6424  1.6985  0.4296
11714SOL     OW47120  11.362   5.384   8.409  0.5187  0.0311  0.0788
11714SOL    HW147121  11.354   5.479   8.414 -0.1262  0.0745 -1.2947
11714SOL    HW247122  11.456   5.368   8.408  0.6469  0.7420 -0.7952
11715SOL     OW47123   6.303  11.187   2.125 -0.4299 -0.4626  0.1650
11715SOL    HW147124   6.310  11.200   2.220  0.1018 -2.0157  0.3810
11715SOL    HW247125   6.363  11.251   2.087 -2.0387  1.4692  0.7294
11716SOL     OW47126   1.746   5.707   5.629  0.2908 -0.0421 -0.1638
11716SOL    HW147127   1.693   5.780   5.662  1.0087  0.3227  0.2066
11716SOL    HW247128   1.829   5.747   5.603  0.3422 -0.5857 -0.8637
11717SOL     OW47129   6.045   8.234   4.308  0.0769  0.4968  0.4945
11717SOL    HW147130   5.974   8.247   4.371 -1.1183 -0.4562 -0.6079
11717SOL    HW247131   6.080   8.148   4.329  1.4522  1.2509  1.5007
11718SOL     OW47132  11.989   0.667   6.850  0.7520  0.1798  0.3014
11718SOL    HW147133  11.964   0.625   6.768 -0.2016  2.1363 -0.4735
11718SOL    HW247134  11.921   0.641   6.912  1.1817 -0.8645  0.3518
11719SOL     OW47135  11.672   2.474  11.747 -0.2376 -0.2417 -0.3854
11719SOL    HW147136  11.751   2.520  11.776 -0.6855  0.0551  0.3810
11719SOL    HW247137  11.664   2.497  11.655  0.9729 -0.8598 -0.6780
11720SOL     OW47138   3.909   0.462   3.186 -0.1266  0.7262  0.4585
11720SOL    HW147139   3.849   0.402   3.231 -1.8328  3.0690  1.5672
11720SOL    HW247140   3.878   0.462   3.095 -0.9064  0.8114  0.7106
11721SOL     OW47141   5.089   9.218   4.112  0.3181 -0.3049  0.5067
11721SOL    HW147142   5.074   9.133   4.070  0.0579 -0.2765  0.5443
11721SOL    HW247143   5.121   9.274   4.041  2.6497 -1.0241  0.8961
11722SOL     OW47144   8.033  12.038  10.476  0.0869  0.0224  0.0776
11722SOL    HW147145   8.019  12.123  10.434  2.8085  0.9661  0.9103
11722SOL    HW247146   7.965  12.034  10.543 -2.1475  0.0024 -2.0115
11723SOL     OW47147  13.085   8.315   8.951 -0.0416  0.2339 -0.2025
11723SOL    HW147148  12.992   8.303   8.969  0.0877  1.9007  2.0349
11723SOL    HW247149  13.119   8.226   8.938 -1.9824 -0.3679 -1.6469
11724SOL     OW47150   4.702  13.305   9.658 -0.1049 -0.2052 -0.5674
11724SOL    HW147151   4.637  13.241   9.686 -1.2031  1.3982  0.7550
11724SOL    HW247152   4.652  13.372   9.610  1.2503 -1.1051 -3.4870
11725SOL     OW47153   9.462   4.875   2.238  0.5094  0.2608 -0.6120
11725SOL    HW147154   9.458   4.830   2.322  0.9454  0.3852 -0.5224
11725SOL    HW247155   9.443   4.806   2.173 -1.9342  0.5913 -0.3115
11726SOL     OW47156   5.713   6.265   2.742 -0.0399  0.1085 -0.2121
11726SOL    HW147157   5.676   6.220   2.666  0.2330  0.3849 -0.5141
11726SOL    HW247158   5.695   6.358   2.727  0.3992  0.2060 -0.1548
11727SOL     OW47159   7.519   9.522   2.011  0.1109 -0.3733 -0.4831
11727SOL    HW147160   7.465   9.596   2.037  0.7897 -0.1371  0.3101
11727SOL    HW247161   7.461   9.467   1.958 -0.6157  0.3382 -0.4473
11728SOL     OW47162   9.731  11.872   6.334 -0.4254 -0.2457  0.3373
11728SOL    HW147163   9.665  11.908   6.275  0.6344  0.7974 -0.2585
11728SOL    HW247164   9.716  11.916   6.417  0.7717  1.5856 -0.3487
11729SOL     OW47165   7.264   7.818   1.922  0.2598  0.0336 -0.0985
11729SOL    HW147166   7.351   7.823   1.884  1.1670 -2.0962  1.4564
11729SOL    HW247167   7.251   7.725   1.940 -1.3733  0.5545  1.8156
11730SOL     OW47168   7.327   2.027   7.832  0.2346  0.1087  0.0661
11730SOL    HW147169   7.299   1.982   7.911  2.9203  0.4422  1.3221
11730SOL    HW247170   7.278   2.110   7.832 -0.8966 -0.5454  0.5331
11731SOL     OW47171  12.319   3.727   0.365  0.1746 -0.2718 -1.0071
11731SOL    HW147172  12.359   3.641   0.358  1.8326  0.3606  0.0897
11731SOL    HW247173  12.233   3.710   0.403  1.1818 -1.3391  0.9355
11732SOL     OW47174   6.095  10.213   3.923  0.0579  0.1273 -0.0600
11732SOL    HW147175   6.151  10.205   3.846  1.2319 -0.2065  0.7869
11732SOL    HW247176   6.089  10.124   3.958 -0.3451  0.2964  0.3103
11733SOL     OW47177   1.601   9.383  10.949 -0.1167  0.0634  0.3380
11733SOL    HW147178   1.689   9.414  10.927  0.1292 -0.6914  0.2332
11733SOL    HW247179   1.614   9.331  11.028 -0.4278 -0.2745  0.1681
11734SOL     OW47180  13.757  12.174   3.598 -0.0685 -0.1179  0.2300
11734SOL    HW147181  13.782  12.256   3.556 -1.3127  1.3030  2.1257
11734SOL    HW247182  13.822  12.111   3.567  2.1084  1.9900  0.2104
11735SOL     OW47183  13.670   6.028   8.254 -0.7201 -0.3362  0.5211
11735SOL    HW147184  13.672   5.955   8.193  1.3946  0.7262 -0.7727
11735SOL    HW247185  13.758   6.032   8.291 -0.9468  1.2081  0.9824
11736SOL     OW47186  11.205   8.424   8.537 -0.3610  0.2833 -0.6513
11736SOL    HW147187  11.272   8.432   8.468 -0.2634 -0.4382 -0.6508
11736SOL    HW247188  11.226   8.493   8.599 -0.3667  0.8605 -1.2782
11737SOL     OW47189   6.097   6.046   2.153  0.3999 -0.3752 -0.4455
11737SOL    HW147190   6.036   6.047   2.079 -0.2820  0.9525  0.1031
11737SOL    HW247191   6.119   6.138   2.167  2.3886 -0.7919 -0.4851
11738SOL     OW47192   7.772  11.069  10.394 -0.0780  0.3151 -0.4285
11738SOL    HW147193   7.785  11.049  10.301  1.2542 -0.2166 -0.1528
11738SOL    HW247194   7.694  11.124  10.396 -0.4397 -0.1100 -1.8067
11739SOL     OW47195  10.315  11.854   3.016  0.5947  0.3343 -0.6821
11739SOL    HW147196  10.407  11.839   2.994  0.6256  0.8611 -0.9370
11739SOL    HW247197  10.312  11.849   3.111 -0.0834 -5.1710 -0.6799
11740SOL     OW47198   0.468   4.383   9.943 -0.7005 -0.1921 -0.0086
11740SOL    HW147199   0.386   4.429   9.925  0.5576  1.6148 -1.4458
11740SOL    HW247200   0.513   4.437  10.007 -0.2695 -0.7477  0.1689
11741SOL     OW47201  13.473   0.040   1.906  0.0063  0.0549  0.0504
11741SOL    HW147202  13.537   0.067   1.972  1.3940  1.0789 -1.6211
11741SOL    HW247203  13.401   0.103   1.916  0.5053  0.6269  0.1685
11742SOL     OW47204   9.714   4.466   5.289  0.0504 -0.5615 -0.0418
11742SOL    HW147205   9.716   4.562   5.291  0.4045 -0.5448 -0.8856
11742SOL    HW247206   9.622   4.444   5.300 -0.3096 -0.0641 -1.8517
11743SOL     OW47207   7.195   8.630   2.206  0.2103  0.1814 -0.4230
11743SOL    HW147208   7.233   8.578   2.135 -1.4432  0.2622 -1.4425
11743SOL    HW247209   7.105   8.597   2.213  0.3751  0.0890  1.7549
11744SOL     OW47210   7.971   3.752   0.789  0.5210  0.1134 -0.3322
11744SOL    HW147211   7.877   3.750   0.771  0.4397 -1.1513  0.1117
11744SOL    HW247212   7.977   3.782   0.880  0.5775  0.5809 -0.4875
11745SOL     OW47213  11.010  12.002   2.438  0.0919 -0.1569  0.4394
11745SOL    HW147214  11.014  12.013   2.533 -1.3442  0.1600  0.4744
11745SOL    HW247215  10.933  12.052   2.411 -0.0984 -1.0729 -0.7655
11746SOL     OW47216   9.405   4.715  12.446 -0.0239 -0.5707  0.5552
11746SOL    HW147217   9.380   4.807  12.439  0.0591 -0.5592  0.3967
11746SOL    HW247218   9.378   4.689  12.534  1.5762  0.1043  1.2822
11747SOL     OW47219   0.969   9.374   2.110 -0.1898 -0.0222  0.3974
11747SOL    HW147220   0.931   9.299   2.064 -0.3244 -0.9251  1.9279
11747SOL    HW247221   0.910   9.390   2.183  0.6971  0.5422  1.0128
11748SOL     OW47222   5.626  13.205   8.587  0.5677  0.0857  0.3904
11748SOL    HW147223   5.643  13.191   8.680 -2.9601  1.5192  1.4115
11748SOL    HW247224   5.651  13.122   8.546 -0.0874 -1.5359  3.0033
11749SOL     OW47225   3.601  13.550   6.471  0.0727  0.3193 -0.0768
11749SOL    HW147226   3.565  13.626   6.426 -1.3952  1.1027  2.2421
11749SOL    HW247227   3.671  13.586   6.526  0.4963 -0.2877 -0.2070
11750SOL     OW47228   8.232   5.625   0.205  0.0662 -0.5225  0.0239
11750SOL    HW147229   8.199   5.697   0.151 -1.6987 -0.2568  1.3645
11750SOL    HW247230   8.191   5.547   0.169  1.3069 -0.7824 -0.8914
11751SOL     OW47231  12.630   6.958   0.891  0.0405 -0.1506  0.5177
11751SOL    HW147232  12.593   7.012   0.961 -2.9934 -0.3560 -0.7553
11751SOL    HW247233  12.569   6.884   0.883  2.6864 -2.5114  0.5071
11752SOL     OW47234   7.693   6.147  11.740 -0.3347  0.0858  0.3564
11752SOL    HW147235   7.778   6.105  11.726 -0.8357 -0.1192 -3.0566
11752SOL    HW247236   7.709   6.239  11.719 -1.0274 -0.0907 -1.1238
11753SOL     OW47237   9.574   1.585   2.716  0.6531  0.5030 -0.0068
11753SOL    HW147238   9.595   1.498   2.682  0.8891  0.1777  0.9562
11753SOL    HW247239   9.598   1.582   2.809  0.3530  1.4889  0.1189
11754SOL     OW47240   8.663   5.879   7.678 -0.4009  1.1483  0.3001
11754SOL    HW147241   8.571   5.905   7.688  0.0313  3.6392 -1.2336
11754SOL    HW247242   8.659   5.797   7.627 -1.7562  0.5854  1.2477
11755SOL     OW47243   3.705  12.197  11.757  0.0986 -0.5671  0.1497
11755SOL    HW147244   3.767  12.150  11.812 -0.8942  0.4579  2.2574
11755SOL    HW247245   3.760  12.247  11.697  1.4588  1.1263  2.6239
11756SOL     OW47246  10.021   8.832   9.514 -0.3957 -0.4307 -0.3388
11756SOL    HW147247  10.007   8.861   9.604  0.1601  1.3505 -0.7989
11756SOL    HW247248   9.983   8.901   9.459  1.6254 -0.1350 -1.4819
11757SOL     OW47249   5.495   4.781   3.020 -0.1645  0.8628 -0.1563
11757SOL    HW147250   5.579   4.751   2.985  1.2205  3.6977  0.4637
11757SOL    HW247251   5.505   4.774   3.115 -0.1239  2.3332 -0.0308
11758SOL     OW47252   9.991   7.657   6.790  0.1843 -0.2353  0.2260
11758SOL    HW147253   9.977   7.733   6.733 -2.0479 -0.4334  0.4305
11758SOL    HW247254   9.991   7.693   6.879  2.6147 -0.0699  0.2304
11759SOL     OW47255   3.229  11.291   3.296  0.2020  0.2578  0.2026
11759SOL    HW147256   3.313  11.267   3.256  0.0009 -0.8912  0.4381
11759SOL    HW247257   3.173  11.313   3.222 -0.1593 -1.8277 -0.2089
11760SOL     OW47258  13.659   7.556   7.552  0.1308 -0.2033  0.2862
11760SOL    HW147259  13.564   7.543   7.555  0.0602  0.4872  2.0483
11760SOL    HW247260  13.671   7.640   7.508 -0.1077 -0.0279  0.5576
11761SOL     OW47261   0.659   8.088   9.868  0.1356  0.5321 -0.3615
11761SOL    HW147262   0.608   8.083   9.787 -1.1293  1.3720  0.3542
11761SOL    HW247263   0.728   8.152   9.849 -0.6288  1.3220 -0.5554
11762SOL     OW47264   8.693   0.829  12.476  0.2190  0.2417  0.0034
11762SOL    HW147265   8.599   0.825  12.459  0.1846  1.7445 -0.2990
11762SOL    HW247266   8.701   0.893  12.547  1.0925  0.8850 -0.6698
11763SOL     OW47267   4.341   7.176   7.830  0.3082  0.1370 -0.9073
11763SOL    HW147268   4.384   7.175   7.744 -0.7994  1.6550 -1.5312
11763SOL    HW247269   4.253   7.207   7.812  0.2655  1.1809  0.8661
11764SOL     OW47270  10.957   7.154  12.661 -0.2268  0.5330  0.0394
11764SOL    HW147271  11.023   7.222  12.674 -1.8112  2.0158  0.8034
11764SOL    HW247272  10.935   7.160  12.568  0.8569 -0.1440 -0.2755
11765SOL     OW47273  12.129   6.495  13.329  0.1095  0.9669  0.0617
11765SOL    HW147274  12.076   6.425  13.292 -1.3070  2.1854 -0.3109
11765SOL    HW247275  12.151   6.465  13.417 -0.5508  0.1152 -0.0516
11766SOL     OW47276   4.080   6.813  12.884 -0.1179 -0.2354 -0.2436
11766SOL    HW147277   4.134   6.832  12.807  0.8834 -0.1308  0.4739
11766SOL    HW247278   4.136   6.761  12.941 -1.2764 -1.3948 -0.1191
11767SOL     OW47279   0.650   6.675   3.488 -0.2481  0.2840 -0.9301
11767SOL    HW147280   0.565   6.675   3.443 -0.7703  0.5000  0.0263
11767SOL    HW247281   0.707   6.624   3.431 -1.5467 -1.6576 -0.5930
11768SOL     OW47282   9.500   1.797   1.115 -0.4969 -0.1214 -0.2981
11768SOL    HW147283   9.558   1.730   1.078  0.8147  1.0764 -0.5176
11768SOL    HW247284   9.528   1.805   1.206 -0.9478 -0.1859 -0.1529
11769SOL     OW47285   1.311   1.997   7.315  0.3838  0.0121 -0.0180
11769SOL    HW147286   1.387   1.996   7.258 -0.7897  0.3232 -1.6444
11769SOL    HW247287   1.246   1.943   7.270 -0.0373 -1.1463  1.8429
11770SOL     OW47288   0.340   2.196   8.350  0.3329  0.1738  0.6270
11770SOL    HW147289   0.273   2.260   8.324 -0.1609 -0.6529 -0.2219
11770SOL    HW247290   0.387   2.177   8.269  0.1031 -0.9367  0.7360
11771SOL     OW47291   6.725   4.525   4.825 -0.4162  0.3668  0.0784
11771SOL    HW147292   6.641   4.566   4.846 -0.8254  0.4076 -1.4999
11771SOL    HW247293   6.748   4.560   4.739  0.4272 -0.8806 -0.2287
11772SOL     OW47294   0.032  11.880  12.006 -0.2258 -0.5083  0.2845
11772SOL    HW147295   0.113  11.931  11.999 -0.7682  0.4753  0.8817
11772SOL    HW247296   0.061  11.789  12.008  0.7551 -0.2533 -1.0438
11773SOL     OW47297   3.746   6.081   6.484  0.4718 -0.5665  0.1526
11773SOL    HW147298   3.664   6.072   6.532 -0.0544 -1.5840 -0.9055
11773SOL    HW247299   3.814   6.058   6.547 -0.0887 -0.2862  0.8688
11774SOL     OW47300   1.429   0.733   1.847  0.2225 -0.8423 -0.3814
11774SOL    HW147301   1.400   0.824   1.832 -0.5229 -1.1591 -0.9262
11774SOL    HW247302   1.401   0.686   1.769  1.5384 -1.3411 -0.5712
11775SOL     OW47303   8.970   4.030   5.432 -0.1526 -0.4050 -0.0673
11775SOL    HW147304   8.901   3.985   5.480  2.0136 -1.7516  2.0399
11775SOL    HW247305   8.992   3.972   5.360 -0.0817 -0.8237  0.2856
11776SOL     OW47306   0.822   9.529  12.544  0.1341  1.0777 -0.4531
11776SOL    HW147307   0.871   9.564  12.470 -0.5166  0.9088 -0.9756
11776SOL    HW247308   0.850   9.437  12.550  1.0898  1.3964  0.2877
11777SOL     OW47309   4.290   5.753   7.539 -0.3715 -0.2072  0.2521
11777SOL    HW147310   4.299   5.749   7.634 -0.0900  0.3265  0.2504
11777SOL    HW247311   4.197   5.739   7.523 -0.5407  0.4186  0.6566
11778SOL     OW47312   4.397   3.246  12.776  0.6101  0.3900  0.0318
11778SOL    HW147313   4.348   3.254  12.695  0.3443 -0.0845  0.1427
11778SOL    HW247314   4.376   3.158  12.809  0.0726  0.8714  1.0245
11779SOL     OW47315   1.407   4.799   5.066 -0.3823  0.6430 -1.1372
11779SOL    HW147316   1.350   4.761   5.132 -0.4449  0.9779 -0.9985
11779SOL    HW247317   1.434   4.883   5.102  0.0486  0.5710 -1.2843
11780SOL     OW47318   8.945  13.285  13.249 -0.4596  0.1758  0.2541
11780SOL    HW147319   8.867  13.251  13.204 -0.4019 -1.3836  1.2383
11780SOL    HW247320   8.968  13.216  13.312  1.5618  0.7098  0.1774
11781SOL     OW47321   4.517   3.358   2.646  0.1238 -0.5026 -0.5291
11781SOL    HW147322   4.604   3.350   2.608  1.0432  1.5240  0.9711
11781SOL    HW247323   4.463   3.298   2.596  2.0790 -0.7776 -2.4242
11782SOL     OW47324  11.217   8.772   8.285 -0.5287  0.2533 -0.1338
11782SOL    HW147325  11.173   8.777   8.370 -0.2946 -0.8477  0.0669
11782SOL    HW247326  11.264   8.689   8.287 -0.1796  0.4093 -1.1841
11783SOL     OW47327   5.905   7.462   6.124 -0.4396  0.0783  0.0125
11783SOL    HW147328   5.814   7.476   6.153 -1.4736 -1.8005 -2.0777
11783SOL    HW247329   5.935   7.388   6.177 -0.9254 -0.7067 -0.7712
11784SOL     OW47330  13.117   5.438   4.183 -0.1336  0.8726  0.9572
11784SOL    HW147331  13.140   5.523   4.221  0.5918  0.7325  0.8420
11784SOL    HW247332  13.118   5.454   4.089 -0.4049  0.8345  0.9472
11785SOL     OW47333   1.199   4.241   1.856  0.4852  0.3759 -0.0413
11785SOL    HW147334   1.200   4.335   1.876  2.2786  0.4785 -0.4246
11785SOL    HW247335   1.263   4.204   1.917  0.2753 -0.5037 -0.3515
11786SOL     OW47336   8.919   3.287   7.976 -0.0458  0.3760  0.4052
11786SOL    HW147337   8.866   3.245   8.043  0.4674  1.8876  1.8102
11786SOL    HW247338   8.961   3.360   8.020  4.0972 -1.3122 -0.3359
11787SOL     OW47339   5.975  12.840  11.663  0.1425  0.3772  0.3827
11787SOL    HW147340   5.940  12.878  11.583 -2.1576  0.0680  1.1717
11787SOL    HW247341   6.028  12.766  11.633  0.3764  1.0359 -0.8987
11788SOL     OW47342  10.695   3.851   2.172 -0.1524 -0.5559  0.0336
11788SOL    HW147343  10.760   3.786   2.146  0.0669 -0.5233  0.4820
11788SOL    HW247344  10.731   3.889   2.252  0.3149  0.9807 -0.8724
11789SOL     OW47345   7.415   2.548   4.793  0.4345  0.4225  0.0213
11789SOL    HW147346   7.437   2.601   4.869 -0.7050  1.6108 -0.4413
11789SOL    HW247347   7.423   2.607   4.719 -0.9905  0.0278 -0.4938
11790SOL     OW47348   6.365   8.796   8.359  0.0185  0.1006  0.0259
11790SOL    HW147349   6.299   8.782   8.427  0.1950  0.3529  0.2527
11790SOL    HW247350   6.317   8.836   8.287  0.1748  1.6506  0.7373
11791SOL     OW47351  12.886   7.910   1.449 -0.2512 -0.7284  0.0597
11791SOL    HW147352  12.812   7.865   1.489 -0.7735  0.4818  0.4978
11791SOL    HW247353  12.920   7.968   1.517  0.2424 -0.2753 -0.5510
11792SOL     OW47354   8.719   2.738   8.095 -0.0254 -0.5381  0.8164
11792SOL    HW147355   8.693   2.800   8.028  1.4291 -0.1384  0.5798
11792SOL    HW247356   8.731   2.791   8.174 -0.1482 -0.7382  0.9691
11793SOL     OW47357  10.603   2.008   9.159 -0.0048  0.2054  0.1729
11793SOL    HW147358  10.635   2.027   9.071  0.0979  1.5403  0.4699
11793SOL    HW247359  10.513   1.978   9.146  0.4420 -0.9092 -0.4659
11794SOL     OW47360   8.168   0.370  10.896  0.1411  0.5123  0.6702
11794SOL    HW147361   8.217   0.330  10.824  1.3893  0.1989  1.6620
11794SOL    HW247362   8.111   0.434  10.853 -1.0034 -1.3957 -0.8443
11795SOL     OW47363  12.934   4.768  11.407  0.2335 -0.0035 -0.1196
11795SOL    HW147364  13.024   4.775  11.376  0.3161 -0.9635 -0.1021
11795SOL    HW247365  12.927   4.836  11.475  0.3981  1.2888 -1.3387
11796SOL     OW47366   3.208   0.638   0.996 -0.3725  0.1820 -0.2205
11796SOL    HW147367   3.301   0.653   0.980 -0.4183  3.0078  1.5513
11796SOL    HW247368   3.167   0.643   0.909  0.9696  0.2089 -0.8661
11797SOL     OW47369  11.082   9.385   7.351  0.0927 -0.0493 -0.0204
11797SOL    HW147370  11.023   9.381   7.427  1.3592  1.6372  1.1341
11797SOL    HW247371  11.169   9.387   7.389  1.1569 -4.3192 -1.7332
11798SOL     OW47372   0.094  13.409   0.620  0.1808  0.3713 -0.3237
11798SOL    HW147373   0.079  13.413   0.715  0.7287  2.6575 -0.2975
11798SOL    HW247374   0.187  13.392   0.611  0.1191  0.1028 -0.4624
11799SOL     OW47375   6.875  13.107  10.055  0.0496 -0.1954 -0.1880
11799SOL    HW147376   6.937  13.082   9.988 -0.7876 -0.8031 -0.7482
11799SOL    HW247377   6.804  13.151  10.008 -0.3027 -0.1710  0.3469
11800SOL     OW47378   2.833  11.746  10.764  0.2537  0.0932 -0.6570
11800SOL    HW147379   2.838  11.842  10.764 -0.3489  0.1540 -2.3719
11800SOL    HW247380   2.855  11.721  10.854  0.0736  1.8505 -0.0879
11801SOL     OW47381   9.869   6.102   5.867 -0.2192  0.0175 -0.0652
11801SOL    HW147382   9.815   6.180   5.853 -0.7648 -0.3575 -0.0783
11801SOL    HW247383   9.812   6.029   5.843  0.8011 -0.3160 -1.5398
11802SOL     OW47384   2.462   9.981   1.194  0.5818 -0.0990 -0.2733
11802SOL    HW147385   2.556   9.967   1.197  0.4991 -0.5204  1.6213
11802SOL    HW247386   2.453  10.074   1.172  1.5126  0.3810  1.2007
11803SOL     OW47387   5.862   9.175   9.167 -0.0918 -0.1704 -0.0351
11803SOL    HW147388   5.854   9.082   9.186 -0.1073 -0.3861 -1.0317
11803SOL    HW247389   5.884   9.179   9.074  0.4115  0.8067  0.1072
11804SOL     OW47390  10.292   4.019   5.775  0.2593 -0.1406  0.4154
11804SOL    HW147391  10.261   4.097   5.730  0.4007 -0.9454 -1.1678
11804SOL    HW247392  10.346   4.052   5.847 -0.8326  1.2118  0.6579
11805SOL     OW47393   0.614  11.613   0.486  0.0353  0.1380  0.0496
11805SOL    HW147394   0.529  11.570   0.487 -1.2649  2.3847  3.3742
11805SOL    HW247395   0.598  11.699   0.447  1.0287  0.1854 -0.2972
11806SOL     OW47396  13.593   1.075   4.233 -0.0114 -0.3256 -0.1693
11806SOL    HW147397  13.604   1.170   4.229  0.2949 -0.3818 -0.9037
11806SOL    HW247398  13.560   1.058   4.321 -0.8328  0.5390 -0.2963
11807SOL     OW47399   0.881  13.293   7.378  0.4587  0.1085 -0.0652
11807SOL    HW147400   0.786  13.288   7.370  0.1852  1.1125  1.8397
11807SOL    HW247401   0.914  13.223   7.322 -1.4361 -0.7602 -0.1683
11808SOL     OW47402   4.708   6.695  11.588 -0.4287  0.4946  0.4835
11808SOL    HW147403   4.671   6.748  11.659  0.6416  2.1183 -0.1019
11808SOL    HW247404   4.797   6.674  11.618 -0.7490 -0.8049  0.5906
11809SOL     OW47405  13.239   9.137  11.786 -0.3013 -0.3978 -0.3211
11809SOL    HW147406  13.204   9.206  11.841 -1.7305 -1.9286  0.7914
11809SOL    HW247407  13.176   9.130  11.714  0.8553  0.6981 -1.4909
11810SOL     OW47408  10.241   3.055   7.055 -0.1728  0.2142  0.9349
11810SOL    HW147409  10.168   3.012   7.009  1.4199 -0.4745 -1.0860
11810SOL    HW247410  10.222   3.148   7.049 -1.5976  0.0167  1.7547
11811SOL     OW47411   4.464   6.746  10.178  0.3675 -0.1862  0.1491
11811SOL    HW147412   4.421   6.716  10.098  1.4440  0.7342 -0.8016
11811SOL    HW247413   4.432   6.686  10.245  0.5280 -1.8840 -1.2125
11812SOL     OW47414   9.845   1.275  11.007  0.1449  0.5366 -0.2033
11812SOL    HW147415   9.910   1.204  11.008 -1.4996 -1.0388  0.1808
11812SOL    HW247416   9.835   1.298  10.915  0.0753 -0.3581 -0.4255
11813SOL     OW47417  12.989   7.938   6.401  0.1512 -0.7264 -0.4902
11813SOL    HW147418  12.902   7.979   6.399  0.1106 -0.7951 -2.7472
11813SOL    HW247419  12.982   7.871   6.469 -1.2093  0.0179  0.1385
11814SOL     OW47420   4.746   7.432   1.430  0.0709 -0.3949  0.2231
11814SOL    HW147421   4.756   7.482   1.511  0.4105 -2.2047  1.3655
11814SOL    HW247422   4.656   7.450   1.401 -0.2440 -0.1542  1.3149
11815SOL     OW47423   9.699   7.466   8.101  0.1740 -0.2312 -0.2316
11815SOL    HW147424   9.663   7.419   8.026  2.0897 -1.6491 -0.3351
11815SOL    HW247425   9.713   7.398   8.167  1.0287  0.5417  0.4072
11816SOL     OW47426   6.474   9.834  12.245  0.3463 -0.2939 -0.9046
11816SOL    HW147427   6.381   9.855  12.251  0.4784 -0.1025  0.8400
11816SOL    HW247428   6.517   9.898  12.301  1.6040 -0.0702 -2.0572
11817SOL     OW47429  10.870   7.401   2.215  0.6314 -0.2374 -0.2131
11817SOL    HW147430  10.843   7.360   2.132 -0.7576  1.8495 -0.8570
11817SOL    HW247431  10.886   7.492   2.193  1.2871  0.1361  1.6440
11818SOL     OW47432  10.375  13.357  13.680 -0.0468  0.3070 -0.0520
11818SOL    HW147433  10.337  13.395  13.601  0.5745  0.4310 -0.3023
11818SOL    HW247434  10.376  13.429  13.743 -0.2540  0.2932 -0.0319
11819SOL     OW47435   8.960  10.804  10.459 -0.6419  0.3526  0.3962
11819SOL    HW147436   9.003  10.751  10.392 -1.0093  1.8747 -1.1144
11819SOL    HW247437   8.868  10.780  10.453 -0.3610 -1.4354  2.2462
11820SOL     OW47438   7.831  12.842  12.262  0.3694 -0.3739  0.1767
11820SOL    HW147439   7.877  12.921  12.287 -0.2391  0.2114 -0.5263
11820SOL    HW247440   7.795  12.860  12.175 -0.3755 -1.1529  0.3008
11821SOL     OW47441   2.370  10.990  11.194 -0.8845  0.4099 -0.2817
11821SOL    HW147442   2.417  10.912  11.163 -1.3301  0.8742 -2.2881
11821SOL    HW247443   2.408  11.009  11.280  0.5930 -0.8717 -0.6051
11822SOL     OW47444   5.061  11.202   7.185  0.1882  0.1127 -0.4933
11822SOL    HW147445   5.086  11.202   7.093  0.4435  0.1002 -0.4237
11822SOL    HW247446   4.967  11.182   7.184  0.1196  0.4346 -0.7685
11823SOL     OW47447  10.364  11.731   5.783  0.2647  0.1651  0.6943
11823SOL    HW147448  10.454  11.752   5.760 -0.3285  0.5310 -1.5282
11823SOL    HW247449  10.362  11.733   5.879  2.7566 -0.5627  0.8224
11824SOL     OW47450   7.542   8.536   9.975  0.4356 -0.9093  0.1294
11824SOL    HW147451   7.459   8.489   9.981 -0.8403  0.7677 -2.4259
11824SOL    HW247452   7.603   8.473   9.938 -0.2438 -1.5892  0.1392
11825SOL     OW47453   8.018  13.350  12.358  0.5687 -0.6286  0.1617
11825SOL    HW147454   7.997  13.422  12.298 -3.2336 -0.5191  1.3466
11825SOL    HW247455   8.071  13.390  12.427 -0.4633  0.8096  0.1633
11826SOL     OW47456  13.511   7.656   9.226 -0.6906  0.3109  0.1759
11826SOL    HW147457  13.561   7.615   9.296 -0.8109  0.4229  0.3290
11826SOL    HW247458  13.420   7.649   9.254 -0.7377  0.3634  0.0344
11827SOL     OW47459   1.849   0.838   3.182 -0.5084 -0.8193 -0.3859
11827SOL    HW147460   1.885   0.825   3.270 -0.5030  0.0278 -0.2534
11827SOL    HW247461   1.848   0.933   3.171  1.8168 -0.9255 -2.2418
11828SOL     OW47462  12.989   1.245   5.090  0.2570 -0.4832  0.0307
11828SOL    HW147463  12.956   1.239   5.179 -0.2299  0.6454 -0.0676
11828SOL    HW247464  12.925   1.197   5.037  0.4002 -0.9124  0.2424
11829SOL     OW47465   3.625   2.140   5.553 -0.6011 -0.2592 -0.1500
11829SOL    HW147466   3.720   2.140   5.566 -0.8072 -1.1942  1.6885
11829SOL    HW247467   3.599   2.232   5.556  0.3980  0.1719 -2.4059
11830SOL     OW47468   0.878   3.820  11.876  0.2411 -0.3481 -0.0651
11830SOL    HW147469   0.870   3.875  11.798 -1.0943 -1.8255 -1.0232
11830SOL    HW247470   0.973   3.808  11.887  0.5104  1.0531 -0.5649
11831SOL     OW47471   2.290   8.298   4.020  0.0910 -0.0835 -0.1401
11831SOL    HW147472   2.373   8.253   4.004  0.4310  0.7626 -0.8582
11831SOL    HW247473   2.309   8.390   4.001 -1.3034 -0.0311 -1.4952
11832SOL     OW47474  11.629   8.545  13.133  0.2022  0.0181 -0.0237
11832SOL    HW147475  11.683   8.545  13.054 -1.3842  0.8982 -1.1772
11832SOL    HW247476  11.660   8.470  13.184  2.3589  0.3972 -0.6864
11833SOL     OW47477   9.420   6.851  12.957  0.3273 -0.3920 -0.6337
11833SOL    HW147478   9.410   6.866  12.863 -1.8800  1.9210 -0.1370
11833SOL    HW247479   9.332   6.833  12.988  0.7296  0.5696  1.2127
11834SOL     OW47480   5.066  10.488   1.892  0.0953 -0.2791  0.0526
11834SOL    HW147481   5.059  10.402   1.932 -0.5922  0.0895  0.7594
11834SOL    HW247482   5.159  10.510   1.898  0.2029 -0.7912  0.2560
11835SOL     OW47483   6.546   3.364  10.471 -0.0252  0.1600 -0.6794
11835SOL    HW147484   6.529   3.301  10.542 -0.1405  0.6340 -0.2778
11835SOL    HW247485   6.634   3.397  10.488  0.5533 -0.8369 -1.6327
11836SOL     OW47486   0.684   3.723   4.989 -0.2397  0.5350  0.0533
11836SOL    HW147487   0.757   3.694   4.935  0.0185  0.3297  0.5008
11836SOL    HW247488   0.680   3.818   4.976 -0.6070  0.4071 -0.8306
11837SOL     OW47489   2.852   0.766   0.832  0.6102  0.0781 -0.5978
11837SOL    HW147490   2.841   0.820   0.753  0.2287 -0.0051 -0.6075
11837SOL    HW247491   2.927   0.711   0.813 -0.2656 -0.8686 -1.4539
11838SOL     OW47492   4.818   4.514   9.116 -0.2429 -0.4984 -0.0330
11838SOL    HW147493   4.878   4.577   9.075  0.4222 -0.4861  0.9433
11838SOL    HW247494   4.770   4.476   9.042 -0.9254  1.3984 -0.6415
11839SOL     OW47495   8.321   4.910   7.383 -0.1953 -0.1037  0.6185
11839SOL    HW147496   8.367   4.828   7.400  0.8537  0.3966  0.2381
11839SOL    HW247497   8.275   4.929   7.465 -1.9033 -1.9458  0.1797
11840SOL     OW47498   7.989  12.614  11.208  0.1300  0.2317  0.0571
11840SOL    HW147499   7.960  12.550  11.143 -0.4037  0.8138 -0.2909
11840SOL    HW247500   7.931  12.600  11.283  0.3923 -0.0742  0.2080
11841SOL     OW47501   0.755   5.054  11.345 -0.2367  0.1161 -0.0915
11841SOL    HW147502   0.777   5.048  11.438 -1.0979 -2.0575  0.0169
11841SOL    HW247503   0.816   4.994  11.301  1.3730  2.4073 -1.2450
11842SOL     OW47504   1.550  10.152   0.087  0.2953  0.8039 -0.0638
11842SOL    HW147505   1.499  10.226   0.057 -1.3220 -0.7100 -1.2414
11842SOL    HW247506   1.556  10.094   0.011  2.8351  0.3699  0.3601
11843SOL     OW47507   8.913  13.807   5.060 -0.4735 -0.4405 -0.0403
11843SOL    HW147508   8.882  13.897   5.048 -1.6379 -0.8969 -0.5972
11843SOL    HW247509   8.973  13.793   4.988 -0.0309 -0.0072  0.2355
11844SOL     OW47510   8.186   4.438   9.586  0.3178  0.0983  0.2641
11844SOL    HW147511   8.147   4.493   9.654  1.1610 -1.2839  1.9384
11844SOL    HW247512   8.202   4.498   9.513 -1.7741  1.3761  0.7643
11845SOL     OW47513   8.867   6.929  13.793  0.4378  0.1696  0.1839
11845SOL    HW147514   8.922   6.989  13.742  0.0042 -0.2415 -0.7955
11845SOL    HW247515   8.781   6.970  13.792  0.7192  0.8533  1.7888
11846SOL     OW47516   5.062   4.259   2.566 -0.4252  0.4479  0.0560
11846SOL    HW147517   5.136   4.302   2.610  0.4423 -0.6213 -0.3124
11846SOL    HW247518   4.992   4.258   2.631 -0.0733  1.3604  0.4562
11847SOL     OW47519  10.522   6.543   7.657  0.3923 -0.5269 -0.1988
11847SOL    HW147520  10.502   6.450   7.644  0.5083 -0.5388 -0.2971
11847SOL    HW247521  10.601   6.543   7.711  1.6088 -0.5254 -1.8790
11848SOL     OW47522  12.470   9.357   3.126 -0.2686  0.1872 -0.2656
11848SOL    HW147523  12.546   9.365   3.184  0.2500 -1.8984 -0.5614
11848SOL    HW247524  12.395   9.365   3.184  0.2069  0.5619  0.3095
11849SOL     OW47525  12.023   5.123   2.859 -0.0490 -0.3763  0.3546
11849SOL    HW147526  12.085   5.095   2.791 -0.4197  0.4773 -0.3535
11849SOL    HW247527  12.068   5.103   2.941  0.9470 -0.2626 -0.1424
11850SOL     OW47528   4.322   7.819   6.352  0.5085  0.1980 -0.0479
11850SOL    HW147529   4.335   7.913   6.358 -0.6629  0.2856  2.9704
11850SOL    HW247530   4.227   7.808   6.340  0.4841 -0.5699  0.7076
11851SOL     OW47531   5.532   4.288   4.953  0.0631 -0.3856  0.3252
11851SOL    HW147532   5.460   4.347   4.977 -1.0674 -0.6351 -2.1023
11851SOL    HW247533   5.493   4.201   4.956  0.3443 -0.5591 -0.6508
11852SOL     OW47534   7.861   4.904   2.248  0.4928 -0.0201  0.1406
11852SOL    HW147535   7.846   4.895   2.154 -1.0551  0.6207  0.2991
11852SOL    HW247536   7.929   4.840   2.268  1.3443  0.3226 -1.5291
11853SOL     OW47537  10.859  11.995   1.404 -0.3511  0.3475  0.6628
11853SOL    HW147538  10.784  12.024   1.455 -1.4688  1.0083 -1.2612
11853SOL    HW247539  10.935  12.015   1.459 -1.5610 -0.4575  2.6939
11854SOL     OW47540  12.524  12.676   0.339  0.6495  0.7397  0.1102
11854SOL    HW147541  12.491  12.681   0.429  1.3514 -0.0145  0.4252
11854SOL    HW247542  12.591  12.744   0.335  1.0658  0.3511  0.3644
11855SOL     OW47543  12.657   5.259   4.608 -0.2900  0.2700  0.2448
11855SOL    HW147544  12.591   5.326   4.627 -0.6150 -0.1423  0.5998
11855SOL    HW247545  12.661   5.207   4.688 -0.2798 -0.3379 -0.1498
11856SOL     OW47546  13.807   3.490  10.182  0.5523 -0.2461  0.1045
11856SOL    HW147547  13.814   3.572  10.133 -2.2452  0.6837  1.0844
11856SOL    HW247548  13.881   3.492  10.243  1.9813  0.2965 -1.5874
11857SOL     OW47549   3.098   4.843   6.146 -0.1886 -0.0649 -0.0140
11857SOL    HW147550   3.152   4.815   6.072 -0.5091 -1.9067  0.3853
11857SOL    HW247551   3.051   4.764   6.172  0.5694  0.2781  2.7055
11858SOL     OW47552  10.991   8.333   7.605 -0.1171  0.7687 -0.6453
11858SOL    HW147553  11.069   8.290   7.572  0.0617 -0.0414  0.7630
11858SOL    HW247554  10.985   8.306   7.696 -1.0056  2.3041 -0.1994
11859SOL     OW47555   7.715   8.621  10.683 -0.6794 -0.4103  0.3619
11859SOL    HW147556   7.799   8.576  10.676 -0.9584 -0.9266  0.2956
11859SOL    HW247557   7.719   8.668  10.766 -0.8296 -1.4859  0.9937
11860SOL     OW47558   1.086   8.314   9.428 -0.1243  0.4081  0.6174
11860SOL    HW147559   1.066   8.396   9.473 -0.5528 -0.3835  1.9335
11860SOL    HW247560   1.180   8.300   9.445  0.2410  1.1970 -0.6208
11861SOL     OW47561   6.977   3.959   4.062  0.3801 -0.2846 -0.2570
11861SOL    HW147562   6.882   3.972   4.059  0.0298 -2.5103 -1.1055
11861SOL    HW247563   7.013   4.043   4.089 -1.7355  1.1045 -1.5195
11862SOL     OW47564   8.286  13.634   4.128 -0.6182  0.1925 -0.3936
11862SOL    HW147565   8.270  13.711   4.074 -0.0556 -0.7477 -1.9844
11862SOL    HW247566   8.291  13.561   4.065  0.0716 -0.9515  0.9251
11863SOL     OW47567   2.187   9.820  10.222 -0.0452  0.5942  0.1957
11863SOL    HW147568   2.133   9.835  10.144 -1.3923  0.6107  1.0918
11863SOL    HW247569   2.241   9.898  10.229 -1.4447  1.5903  0.4479
11864SOL     OW47570   3.501   0.806  13.628  0.0171 -0.2533  0.5356
11864SOL    HW147571   3.475   0.814  13.536 -1.5481 -0.5978  0.9076
11864SOL    HW247572   3.501   0.712  13.645  1.4005 -0.2579  0.6152
11865SOL     OW47573   8.446   3.986   7.719 -0.2396  0.4277  0.1281
11865SOL    HW147574   8.453   3.925   7.793 -0.1774  1.4011  0.9451
11865SOL    HW247575   8.398   3.937   7.653 -0.4095 -0.4278  0.8599
11866SOL     OW47576  13.387   9.685  10.463 -0.0199 -0.0073  0.1262
11866SOL    HW147577  13.305   9.716  10.425 -0.0916  0.9983  1.0581
11866SOL    HW247578  13.359   9.633  10.539  0.2136  0.6504  0.6642
11867SOL     OW47579  13.231   1.346  13.775 -0.0297 -0.0475  0.2133
11867SOL    HW147580  13.274   1.349  13.860  1.1161  1.0837 -0.3574
11867SOL    HW247581  13.235   1.436  13.743  1.3222 -0.7472 -1.8416
11868SOL     OW47582  11.745   9.835   4.049  0.3646 -0.0924 -0.3857
11868SOL    HW147583  11.720   9.924   4.022  2.3812  0.7337  0.2170
11868SOL    HW247584  11.688   9.777   3.999 -2.4490  1.5384  0.7121
11869SOL     OW47585  11.572  10.470  11.847  0.3623 -0.2101 -0.0110
11869SOL    HW147586  11.542  10.446  11.935  1.5896 -0.8463  0.2518
11869SOL    HW247587  11.639  10.536  11.861  0.6623 -0.4114 -0.4610
11870SOL     OW47588  11.866   5.835   3.582  0.1240 -0.6228  0.2328
11870SOL    HW147589  11.899   5.916   3.543  1.6271 -0.0191  2.5690
11870SOL    HW247590  11.772   5.836   3.563  0.2780  1.1317 -0.6772
11871SOL     OW47591  10.873   5.574   3.383 -0.0684 -0.0947 -0.3600
11871SOL    HW147592  10.794   5.530   3.352  0.7584 -1.4441 -0.6369
11871SOL    HW247593  10.917   5.508   3.437  0.8715  0.6440 -0.1995
11872SOL     OW47594   2.071   6.971   6.020 -0.4031  0.7651 -0.4418
11872SOL    HW147595   2.030   7.055   5.998 -0.2135  1.0513  0.2677
11872SOL    HW247596   2.164   6.991   6.025 -0.4626  0.7705  0.8452
11873SOL     OW47597   7.915   4.206  11.271 -0.0455 -0.0867 -0.8373
11873SOL    HW147598   7.842   4.149  11.294  1.0834 -0.6319  1.8065
11873SOL    HW247599   7.981   4.146  11.235 -0.9356  0.4610 -3.6597
11874SOL     OW47600   0.997   2.031   3.866 -0.2267 -0.4776 -0.5265
11874SOL    HW147601   1.056   2.001   3.796  2.0240  1.3221  0.4633
11874SOL    HW247602   0.965   2.116   3.834  0.0803 -0.0812  0.2099
11875SOL     OW47603   0.313   6.929  12.384  0.6177  0.3101 -0.1390
11875SOL    HW147604   0.292   6.917  12.477 -2.9919 -0.4296 -0.8616
11875SOL    HW247605   0.363   6.851  12.361  2.0494  0.7652  1.2320
11876SOL     OW47606   4.936   9.555   1.395 -0.4139  0.2310 -0.0380
11876SOL    HW147607   4.938   9.566   1.300  0.2831  0.3920 -0.0123
11876SOL    HW247608   4.961   9.464   1.410 -4.7610 -1.1981 -0.1793
11877SOL     OW47609  12.578   7.522  11.573  0.1477 -0.1599 -0.3166
11877SOL    HW147610  12.491   7.552  11.550 -0.1239 -0.2881  0.4917
11877SOL    HW247611  12.569   7.427  11.586  0.1667 -0.0297  0.7617
11878SOL     OW47612   6.666  10.132   3.402  0.0016  0.0671 -0.1201
11878SOL    HW147613   6.590  10.118   3.459  0.2852 -1.1363 -0.0065
11878SOL    HW247614   6.737  10.157   3.462  0.0249 -0.1360 -0.0596
11879SOL     OW47615   0.998   9.366   4.695  0.4813  0.4597 -0.0201
11879SOL    HW147616   0.943   9.326   4.762 -0.9095  1.7684 -0.3303
11879SOL    HW247617   1.088   9.354   4.727 -0.0586 -0.4059  1.2354
11880SOL     OW47618   8.696   5.809   9.857  0.5942 -0.3835  0.5744
11880SOL    HW147619   8.691   5.867   9.781 -2.1437 -0.5323  0.5512
11880SOL    HW247620   8.742   5.731   9.825  1.9543  0.6696 -0.1149
11881SOL     OW47621   5.370  12.620   7.305 -0.1378 -0.1083 -0.1855
11881SOL    HW147622   5.356  12.527   7.285 -2.9971 -0.1201  1.4398
11881SOL    HW247623   5.405  12.621   7.394 -2.6210  0.3615  0.8615
11882SOL     OW47624   5.084   7.117  12.732 -0.5366 -0.0156  0.1052
11882SOL    HW147625   5.154   7.052  12.731 -1.2349 -0.8474 -2.0654
11882SOL    HW247626   5.128   7.201  12.740  0.6633 -0.5625 -0.6025
11883SOL     OW47627   7.005  10.091   7.737  0.0629  0.3258 -0.4838
11883SOL    HW147628   6.962  10.081   7.822 -1.7098  1.4277 -1.1851
11883SOL    HW247629   7.058  10.012   7.727 -0.6480 -0.3962  1.1016
11884SOL     OW47630   7.622   6.779   8.416 -0.0198 -0.1667 -0.5285
11884SOL    HW147631   7.690   6.768   8.350  0.9612 -1.3496  0.6265
11884SOL    HW247632   7.655   6.848   8.474 -0.1767 -0.1922 -0.4060
11885SOL     OW47633   7.443   8.129   1.062  0.3238  0.3158  0.1040
11885SOL    HW147634   7.440   8.168   1.149  1.6954 -1.1433  0.8585
11885SOL    HW247635   7.392   8.049   1.069  1.8246 -0.6805  0.0776
11886SOL     OW47636   2.328  13.773   3.165 -0.5631 -0.0885 -0.1271
11886SOL    HW147637   2.389  13.703   3.142  0.5681  0.5824  0.7302
11886SOL    HW247638   2.245  13.728   3.183  0.2376 -1.2563  0.7688
11887SOL     OW47639   1.161  13.828   2.255  0.5487 -0.8144  0.1385
11887SOL    HW147640   1.235  13.768   2.263  1.3341 -0.3049 -2.3314
11887SOL    HW247641   1.100  13.783   2.196 -0.6373 -0.7420  1.2542
11888SOL     OW47642   7.537   8.781  11.933  0.3086  0.3583  0.3104
11888SOL    HW147643   7.572   8.713  11.876  0.2795 -0.4193  1.1913
11888SOL    HW247644   7.607   8.846  11.938  0.6940 -0.0407  0.1647
11889SOL     OW47645  13.355  11.911   0.726  0.3822 -0.8116  0.1350
11889SOL    HW147646  13.417  11.981   0.704  1.8380 -2.1078 -0.0739
11889SOL    HW247647  13.270  11.955   0.731  1.4372  1.2608  1.5928
11890SOL     OW47648  10.610   7.115   1.517 -0.6623  0.0247  0.2235
11890SOL    HW147649  10.602   7.108   1.422 -0.3158 -1.3069  0.2706
11890SOL    HW247650  10.703   7.099   1.535 -0.8635 -0.4828  0.8448
11891SOL     OW47651  14.046   9.755   2.598 -0.2950  0.3376  0.1960
11891SOL    HW147652  14.049   9.715   2.686 -1.8603  2.7967  1.4710
11891SOL    HW247653  14.137   9.775   2.578 -0.0313  1.1764  2.0112
11892SOL     OW47654  10.854   1.072   1.806  0.1282  0.8995  0.0064
11892SOL    HW147655  10.942   1.109   1.804  0.8286 -0.6910 -0.2370
11892SOL    HW247656  10.806   1.119   1.737  1.6859 -0.2753 -1.9915
11893SOL     OW47657   7.823  12.308   8.145 -0.4867 -0.2651  0.3497
11893SOL    HW147658   7.916  12.286   8.142 -0.6294 -0.9569  0.8089
11893SOL    HW247659   7.821  12.396   8.182  0.0563  0.3147 -0.9418
11894SOL     OW47660  11.668  11.274   6.374 -0.3909  0.6398 -0.2309
11894SOL    HW147661  11.657  11.363   6.409  1.2772  1.2305 -1.1239
11894SOL    HW247662  11.761  11.268   6.352 -0.3621 -1.5305  0.2955
11895SOL     OW47663   1.815  12.166   5.122 -0.2843 -0.1332 -0.2353
11895SOL    HW147664   1.894  12.157   5.067 -0.6245  0.4477 -0.8435
11895SOL    HW247665   1.751  12.207   5.064 -1.9930 -3.1401 -0.6516
11896SOL     OW47666  12.831   0.982   5.353 -0.4025  0.2346  0.2171
11896SOL    HW147667  12.776   1.045   5.307 -0.4627 -1.2975 -1.9289
11896SOL    HW247668  12.780   0.901   5.355  2.0027 -1.5697 -2.8444
11897SOL     OW47669   9.672   0.479  13.992  0.1551 -0.3099  0.0292
11897SOL    HW147670   9.654   0.385  13.995 -0.7224 -0.1817 -0.5895
11897SOL    HW247671   9.639   0.507  13.906  1.1028  0.4277 -0.1176
11898SOL     OW47672  13.168  12.529   3.573  0.0201 -1.1996 -0.7105
11898SOL    HW147673  13.179  12.571   3.658 -3.1586 -0.0199 -0.7757
11898SOL    HW247674  13.155  12.436   3.594  0.1354 -1.0632 -0.0142
11899SOL     OW47675  10.867   4.932   1.211  0.0096  0.2151  0.0492
11899SOL    HW147676  10.958   4.948   1.186 -0.0069 -0.0643 -0.1969
11899SOL    HW247677  10.818   4.941   1.129  0.1371 -2.2139 -0.3532
11900SOL     OW47678  10.845  10.731   9.847 -0.4169 -0.0757 -0.1247
11900SOL    HW147679  10.760  10.773   9.863 -0.9304 -1.4023  0.7550
11900SOL    HW247680  10.909  10.802   9.859 -1.2178  0.3990  1.8786
11901SOL     OW47681   5.811   3.469  13.054 -0.0478 -0.0520  0.3124
11901SOL    HW147682   5.900   3.448  13.080  0.2653 -1.8877 -1.9854
11901SOL    HW247683   5.763   3.387  13.064 -1.3657  0.7647  0.9555
11902SOL     OW47684  13.161   3.263   2.869 -0.4669 -0.3906 -0.6146
11902SOL    HW147685  13.247   3.256   2.909 -1.5975  1.4648  2.4662
11902SOL    HW247686  13.107   3.197   2.914 -1.0411 -0.4965 -1.4227
11903SOL     OW47687  10.610   6.070  10.752 -0.0124 -0.0947  0.0564
11903SOL    HW147688  10.649   6.155  10.768  1.2567 -0.9133  1.6410
11903SOL    HW247689  10.516   6.082  10.769 -0.0082  1.1712 -0.6904
11904SOL     OW47690   7.501   5.475   0.863 -0.4466 -0.0037  0.1320
11904SOL    HW147691   7.546   5.486   0.947 -0.5480 -0.5709  0.2703
11904SOL    HW247692   7.563   5.427   0.809 -0.3054  0.5383 -0.1838
11905SOL     OW47693  11.720   9.754   1.068  0.0012 -0.2511  0.1845
11905SOL    HW147694  11.726   9.669   1.111 -2.5599 -1.0812 -0.9071
11905SOL    HW247695  11.732   9.735   0.975  3.8097  1.2892  0.1631
11906SOL     OW47696  11.798   4.631   1.235 -0.2607  0.0774  0.1312
11906SOL    HW147697  11.865   4.590   1.180  0.4268  1.2132  0.0878
11906SOL    HW247698  11.763   4.559   1.288 -1.7970 -1.3177 -2.5571
11907SOL     OW47699   9.202   9.155   2.258 -0.0597 -0.3094 -0.1454
11907SOL    HW147700   9.195   9.238   2.211 -0.9020  0.2909  0.9741
11907SOL    HW247701   9.208   9.089   2.190 -0.7835  0.5615 -1.0886
11908SOL     OW47702   5.834  12.462   5.577 -0.8448 -0.3084 -0.0636
11908SOL    HW147703   5.741  12.460   5.600 -0.6776 -2.0722  0.6387
11908SOL    HW247704   5.846  12.383   5.524  0.6164 -1.1794  1.4827
11909SOL     OW47705   8.260   3.536   8.853 -0.0187 -0.0821  0.4502
11909SOL    HW147706   8.251   3.444   8.829  0.6678  0.1241 -0.6392
11909SOL    HW247707   8.172   3.561   8.883 -0.6413 -0.6690 -0.7873
11910SOL     OW47708   9.539   0.102  13.887  0.1913 -0.2282 -0.0742
11910SOL    HW147709   9.626   0.110  13.926 -0.4238  2.0767  0.9698
11910SOL    HW247710   9.533   0.176  13.827 -0.8187 -0.7376 -0.6103
11911SOL     OW47711   5.103  13.441   6.695  0.0042  0.0356 -0.0924
11911SOL    HW147712   5.084  13.466   6.785  1.1090 -1.9830  0.7628
11911SOL    HW247713   5.028  13.388   6.668  0.8965 -1.7370  0.7016
11912SOL     OW47714   2.750   7.731   5.275  0.1086 -0.0600 -1.0996
11912SOL    HW147715   2.692   7.797   5.313 -0.4422 -0.0693 -1.9045
11912SOL    HW247716   2.775   7.677   5.350 -0.3983  0.3323 -0.6270
11913SOL     OW47717  12.414  12.126   3.258  0.3880 -0.0093 -0.1360
11913SOL    HW147718  12.422  12.204   3.312  0.2406 -0.0245 -0.0922
11913SOL    HW247719  12.325  12.095   3.273  1.0621 -1.3339  1.4316
11914SOL     OW47720   3.634   4.435  13.614 -0.0172 -0.0178 -0.2318
11914SOL    HW147721   3.709   4.379  13.633  0.8112  1.2187  0.3234
11914SOL    HW247722   3.560   4.391  13.654  0.5101 -0.9826 -0.2936
11915SOL     OW47723   3.331   3.056  12.747  0.3516  0.9220  0.7281
11915SOL    HW147724   3.247   3.043  12.792  0.1376  0.2784  0.1516
11915SOL    HW247725   3.370   3.131  12.792 -0.0442  0.5526  1.7114
11916SOL     OW47726  11.517   2.337   1.629 -0.4922 -0.4612  0.0163
11916SOL    HW147727  11.603   2.356   1.592 -1.2727  0.0182 -1.6476
11916SOL    HW247728  11.484   2.422   1.658 -0.5874 -0.5826  0.2668
11917SOL     OW47729   5.997  12.572   4.651 -0.4128  0.6497  0.0783
11917SOL    HW147730   6.060  12.579   4.722 -0.8211  0.1079  0.5086
11917SOL    HW247731   6.050  12.558   4.572 -0.0149 -0.7436  0.5678
11918SOL     OW47732   5.103   0.200  12.086  0.1837 -0.2807  0.2801
11918SOL    HW147733   5.056   0.162  12.012 -1.1487  0.5959  0.6278
11918SOL    HW247734   5.132   0.286  12.055  0.9718 -0.5290  0.2986
11919SOL     OW47735   9.497   6.586   1.189 -0.3141 -0.0756 -0.5462
11919SOL    HW147736   9.423   6.549   1.237 -0.3665 -0.4220 -0.8865
11919SOL    HW247737   9.470   6.583   1.097 -0.9713  2.2784 -0.4850
11920SOL     OW47738   8.856   8.875  10.007  0.4123  0.0088  0.5246
11920SOL    HW147739   8.862   8.783   9.981  2.1103  0.8730 -2.7666
11920SOL    HW247740   8.765   8.885  10.036  0.1352 -2.6451  0.8456
11921SOL     OW47741   7.196   3.983   6.509  0.0257 -0.2279  0.1876
11921SOL    HW147742   7.237   3.912   6.558  1.2462  0.5684  0.3631
11921SOL    HW247743   7.166   4.044   6.576  1.3838  0.6935 -0.0096
11922SOL     OW47744   8.866  12.153   9.351  0.4852  0.0685  0.5470
11922SOL    HW147745   8.813  12.220   9.307  1.0387 -1.2747 -2.4091
11922SOL    HW247746   8.950  12.197   9.368  0.5789  0.4079 -0.6507
11923SOL     OW47747   6.754   8.509   2.194 -0.0714  0.4056 -0.0344
11923SOL    HW147748   6.698   8.442   2.153  0.4395 -0.9651  1.4231
11923SOL    HW247749   6.843   8.476   2.183  0.1445  0.5071  1.2533
11924SOL     OW47750   1.606  12.875   7.872  0.1186  0.5208  0.1465
11924SOL    HW147751   1.700  12.875   7.858  0.0468 -0.9033 -0.4954
11924SOL    HW247752   1.583  12.782   7.880 -1.2576  0.8308 -0.0052
11925SOL     OW47753   1.496   8.593   7.645  0.2170 -0.4030 -0.0237
11925SOL    HW147754   1.490   8.521   7.583  0.9409 -0.3085 -0.2174
11925SOL    HW247755   1.512   8.550   7.730  1.8075 -0.4624 -0.3093
11926SOL     OW47756   2.162  11.072   8.747 -0.1629 -0.2722 -0.4740
11926SOL    HW147757   2.089  11.012   8.755 -0.5283  0.0393 -1.3404
11926SOL    HW247758   2.142  11.143   8.808 -1.2030  0.4065 -1.5651
11927SOL     OW47759  11.816  10.474   5.627 -0.0167  0.2628  0.0251
11927SOL    HW147760  11.759  10.453   5.700 -0.2832 -0.3770 -0.3586
11927SOL    HW247761  11.760  10.468   5.550  0.2819  0.8367 -0.2463
11928SOL     OW47762   6.877   7.555  10.961 -0.2156  0.0013 -0.1971
11928SOL    HW147763   6.937   7.505  11.017  1.6879  2.2913 -0.0341
11928SOL    HW247764   6.910   7.542  10.872 -0.9667 -0.6227 -0.3997
11929SOL     OW47765   2.879   7.198   1.871 -0.7236  0.1590  0.1519
11929SOL    HW147766   2.798   7.229   1.911  0.0854  0.6604  1.4688
11929SOL    HW247767   2.936   7.275   1.871 -0.0670 -0.3213 -0.2844
11930SOL     OW47768  10.732   5.773   2.712  0.2167 -0.6909 -0.0262
11930SOL    HW147769  10.713   5.817   2.795  0.0325  1.4536 -1.1219
11930SOL    HW247770  10.654   5.721   2.694 -1.1974  1.4375 -0.4067
11931SOL     OW47771   0.012  13.265   4.236 -0.5603 -0.0641 -0.0908
11931SOL    HW147772   0.098  13.291   4.269 -0.0541 -1.5349 -0.1915
11931SOL    HW247773  -0.027  13.347   4.205  0.7553  0.6495  0.0514
11932SOL     OW47774  13.475   6.327   1.213 -0.9828  0.0212  0.0765
11932SOL    HW147775  13.521   6.245   1.194  3.4615  2.0470  0.6973
11932SOL    HW247776  13.427   6.310   1.294 -2.3374 -2.5653 -1.1666
11933SOL     OW47777   4.689   5.476   9.103 -0.2731  0.1699  0.0684
11933SOL    HW147778   4.759   5.523   9.148  0.3075 -0.0775 -0.5509
11933SOL    HW247779   4.610   5.528   9.119  0.1919  0.8668  0.1400
11934SOL     OW47780   6.194   7.880  12.129  0.2531 -0.2940  0.1815
11934SOL    HW147781   6.217   7.831  12.050 -0.1496  0.3981 -0.3775
11934SOL    HW247782   6.108   7.917  12.111 -0.0839 -0.5563  1.1581
11935SOL     OW47783  12.752  12.773   5.348 -0.4132  0.0511  0.5710
11935SOL    HW147784  12.752  12.866   5.323 -3.1964  0.5198  1.9105
11935SOL    HW247785  12.787  12.772   5.437 -1.0970 -0.0601  0.8441
11936SOL     OW47786   7.489   5.675   9.585 -0.4776  0.2427 -0.3247
11936SOL    HW147787   7.485   5.768   9.562  0.4047  0.2630 -0.4265
11936SOL    HW247788   7.453   5.630   9.508 -1.5286  0.5205 -0.0128
11937SOL     OW47789   5.515  12.710  11.048  0.0888  0.2747 -0.4282
11937SOL    HW147790   5.507  12.629  10.998 -0.3007  0.9198 -1.4324
11937SOL    HW247791   5.571  12.766  10.995  0.4550  0.6365  0.3153
11938SOL     OW47792   5.882   1.764   9.737 -0.0822  0.6596 -0.4237
11938SOL    HW147793   5.913   1.717   9.814  0.5720 -0.2109 -1.1895
11938SOL    HW247794   5.787   1.757   9.740 -0.0367  0.2467  0.0588
11939SOL     OW47795   3.456  12.891   2.558  0.2969 -0.5562 -0.3940
11939SOL    HW147796   3.411  12.808   2.545 -0.2886 -0.9875  3.3455
11939SOL    HW247797   3.431  12.919   2.646 -0.9114  4.5119 -2.0015
11940SOL     OW47798   3.633  11.195  13.630  0.2947 -0.1974 -0.0642
11940SOL    HW147799   3.584  11.135  13.573 -0.6494  0.7087 -0.2357
11940SOL    HW247800   3.714  11.213  13.581 -0.6575  0.8450 -1.3224
11941SOL     OW47801   0.834   0.222  13.927  0.2078 -0.4376 -0.3155
11941SOL    HW147802   0.768   0.153  13.931 -0.0025 -0.1931  1.8775
11941SOL    HW247803   0.853   0.232  13.834 -2.6742 -0.6561 -1.0327
11942SOL     OW47804  13.879   8.926   7.975 -0.1505 -0.2306 -0.2982
11942SOL    HW147805  13.840   8.878   8.048 -0.4920  0.1544 -0.2227
11942SOL    HW247806  13.833   8.893   7.898  0.4715 -0.9088 -0.3855
11943SOL     OW47807   5.029  12.893   4.779 -0.3269  0.7355  0.4949
11943SOL    HW147808   5.107  12.896   4.724 -1.0494  0.2706 -0.5755
11943SOL    HW247809   4.967  12.953   4.737 -0.3144  1.6491  1.7321
11944SOL     OW47810   4.206   7.470   8.580  0.3377 -0.5001 -0.6821
11944SOL    HW147811   4.215   7.420   8.499  2.0176 -2.3491  0.5505
11944SOL    HW247812   4.116   7.503   8.578  0.0189 -1.3571 -2.7916
11945SOL     OW47813   1.174   3.155   6.366 -0.6296  0.2512 -0.1147
11945SOL    HW147814   1.123   3.164   6.285 -0.6590 -1.2110 -0.2898
11945SOL    HW247815   1.143   3.227   6.421 -2.2852 -0.0816 -0.5404
11946SOL     OW47816  11.141   2.536   9.427  0.2688 -0.5011 -0.4301
11946SOL    HW147817  11.118   2.511   9.337 -1.3967  1.7229 -0.7123
11946SOL    HW247818  11.205   2.607   9.417 -1.1747  0.9268  0.0222
11947SOL     OW47819   7.130  12.930   3.902  0.8531 -0.2878 -0.2532
11947SOL    HW147820   7.212  12.883   3.885  0.4523 -1.4495  0.8894
11947SOL    HW247821   7.061  12.868   3.879  0.2437  0.8764 -1.7394
11948SOL     OW47822  11.826   4.888   2.330 -0.7051  0.1961  0.3117
11948SOL    HW147823  11.849   4.835   2.253 -1.6555  1.7688 -1.1318
11948SOL    HW247824  11.901   4.946   2.342 -0.2203 -0.5735  1.0862
11949SOL     OW47825  10.814   2.023   8.676 -0.1789  0.0599 -0.0775
11949SOL    HW147826  10.847   1.969   8.604 -1.0183  0.3080 -0.6547
11949SOL    HW247827  10.798   2.109   8.637 -0.4863  0.2420  0.4361
11950SOL     OW47828   1.426   5.914   6.948 -0.0078  0.0248 -0.1759
11950SOL    HW147829   1.495   5.929   7.013  0.4150 -0.5330 -0.4890
11950SOL    HW247830   1.396   5.825   6.964 -1.2498  0.5325  0.4975
11951SOL     OW47831  10.766   9.367   8.828 -0.1925 -0.3331  0.5453
11951SOL    HW147832  10.724   9.304   8.770 -0.3617  0.3742 -0.1211
11951SOL    HW247833  10.707   9.442   8.829  1.1404  0.7923 -0.6407
11952SOL     OW47834   0.550  10.377   5.115  0.1134 -0.0806  0.9033
11952SOL    HW147835   0.498  10.301   5.140  0.9981 -1.4771 -1.1803
11952SOL    HW247836   0.517  10.400   5.028  1.1390  0.7230  0.7142
11953SOL     OW47837   1.625   7.156   7.769 -0.0277  0.6860 -0.6418
11953SOL    HW147838   1.601   7.143   7.678 -0.8649  0.5119 -0.4024
11953SOL    HW247839   1.560   7.219   7.802 -1.5248 -1.3852  0.5815
11954SOL     OW47840   6.245   3.304   7.517 -0.1266 -0.3691  0.2114
11954SOL    HW147841   6.250   3.241   7.445 -2.9610  0.7717 -1.0924
11954SOL    HW247842   6.279   3.386   7.481 -0.5387 -0.0590  0.5129
11955SOL     OW47843  12.388  11.929   4.075 -0.0712 -0.1736  0.0507
11955SOL    HW147844  12.312  11.903   4.127 -1.6649  0.0032 -2.0508
11955SOL    HW247845  12.420  11.848   4.037 -1.1781  0.1010 -1.5375
11956SOL     OW47846   9.629   9.238   9.228 -0.5538 -0.0578 -0.0253
11956SOL    HW147847   9.573   9.315   9.216 -0.3700 -0.1816 -2.0449
11956SOL    HW247848   9.569   9.169   9.255 -1.0745  0.2523 -0.3680
11957SOL     OW47849   8.346   5.853   2.552  0.0988 -0.0818  0.2890
11957SOL    HW147850   8.356   5.910   2.628 -1.0954 -0.8357  1.0435
11957SOL    HW247851   8.304   5.908   2.486  1.5792  0.7198 -0.0316
11958SOL     OW47852   4.806   2.152  13.649 -0.0027 -0.0525  0.3289
11958SOL    HW147853   4.855   2.079  13.686  0.1783 -0.1511 -0.0947
11958SOL    HW247854   4.714   2.132  13.667  0.1261  0.4084  1.6270
11959SOL     OW47855  12.141   6.905  11.945 -0.4596  0.0798  0.2670
11959SOL    HW147856  12.227   6.918  11.907 -0.0195  0.6646  1.4203
11959SOL    HW247857  12.083   6.962  11.894  0.0121  0.4395  0.1270
11960SOL     OW47858   0.318   0.669  12.580  0.1145 -0.1421 -0.1386
11960SOL    HW147859   0.388   0.664  12.515  0.6174 -0.0139  0.3756
11960SOL    HW247860   0.349   0.614  12.652 -0.3037 -0.0669  0.0994
11961SOL     OW47861   3.017   9.841   1.325  0.0681  0.1605 -0.1283
11961SOL    HW147862   3.082   9.805   1.385  0.2612 -0.8826 -0.9277
11961SOL    HW247863   2.937   9.846   1.376  0.2716 -0.5553  0.2759
11962SOL     OW47864  12.828   1.456   6.440 -0.2704  0.3611  0.3349
11962SOL    HW147865  12.894   1.398   6.402 -0.4872  0.9217 -0.9385
11962SOL    HW247866  12.876   1.504   6.508 -0.0311 -1.0832  1.2298
11963SOL     OW47867   2.808   0.463   7.010 -0.3779  0.1819  0.0590
11963SOL    HW147868   2.842   0.408   7.081  2.1449  0.2579 -0.9972
11963SOL    HW247869   2.867   0.538   7.008 -1.2174  0.8337 -1.2775
11964SOL     OW47870  10.496  13.055   8.105 -0.6873 -0.0931  0.1549
11964SOL    HW147871  10.500  13.079   8.197 -1.4985 -1.0060  0.4406
11964SOL    HW247872  10.568  13.103   8.064 -0.8697  1.0183  1.0978
11965SOL     OW47873   1.829  13.775   8.489  0.1888 -0.5178  0.1835
11965SOL    HW147874   1.813  13.681   8.504 -1.4893 -0.0783  1.3800
11965SOL    HW247875   1.756  13.803   8.435  0.2722  0.2698  0.4731
11966SOL     OW47876   9.331   9.942   5.665  0.4314  0.1047  0.0959
11966SOL    HW147877   9.413   9.892   5.668  1.0892  1.1060 -0.5000
11966SOL    HW247878   9.273   9.890   5.608  1.1134  0.0352 -0.5515
11967SOL     OW47879   4.495   9.967  11.314 -0.0423 -0.0625 -0.3763
11967SOL    HW147880   4.465  10.056  11.294 -1.3762  0.1133  1.9700
11967SOL    HW247881   4.550   9.977  11.392  2.1355 -1.0078 -1.7261
11968SOL     OW47882   4.362  11.475   2.937  0.1049  0.2428 -0.2016
11968SOL    HW147883   4.354  11.399   2.880 -1.2267  0.3616 -0.2101
11968SOL    HW247884   4.293  11.464   3.002 -0.3089  1.5808 -0.3780
11969SOL     OW47885  12.175   2.998   9.850  0.9654 -0.6050 -0.0191
11969SOL    HW147886  12.156   2.905   9.853 -2.0434 -0.1967 -1.7900
11969SOL    HW247887  12.222   3.010   9.767 -0.5375 -0.3477 -0.8665
11970SOL     OW47888  11.550   9.637   1.854  0.0874 -0.2899 -0.2712
11970SOL    HW147889  11.579   9.686   1.932 -0.9484 -0.7559  0.4281
11970SOL    HW247890  11.575   9.547   1.872 -0.1266 -0.3937 -0.5019
11971SOL     OW47891   7.911   0.611   1.935 -0.3538 -0.8853  0.2646
11971SOL    HW147892   7.966   0.587   2.009  0.6377 -0.0536 -0.1811
11971SOL    HW247893   7.851   0.537   1.925 -0.7079 -0.8981  2.0544
11972SOL     OW47894   0.216   6.552   1.051  0.2506 -0.1015  0.5180
11972SOL    HW147895   0.170   6.619   1.000 -1.2168 -1.6058 -0.2446
11972SOL    HW247896   0.280   6.515   0.990 -0.3972 -0.8039  0.2473
11973SOL     OW47897   9.331   6.654  13.302  0.1433  0.2017 -0.3659
11973SOL    HW147898   9.271   6.588  13.337 -4.7164  3.8750 -0.7207
11973SOL    HW247899   9.330   6.724  13.368  0.5223  2.2146 -2.3802
11974SOL     OW47900  11.335  12.243  11.597 -0.6269  0.0262  0.6112
11974SOL    HW147901  11.415  12.253  11.649 -1.2068 -0.1513  1.5518
11974SOL    HW247902  11.292  12.328  11.603  0.4463  0.7743 -1.5522
11975SOL     OW47903   7.704   2.531   7.007 -0.6376  0.2371 -0.1849
11975SOL    HW147904   7.621   2.508   6.965 -0.3100 -2.3864  0.4185
11975SOL    HW247905   7.771   2.499   6.946 -0.0966  0.8852  0.0639
11976SOL     OW47906   7.227   3.801  10.389 -0.5475 -0.6106 -0.1284
11976SOL    HW147907   7.168   3.859  10.436 -3.6934 -2.3805 -1.5013
11976SOL    HW247908   7.242   3.728  10.450 -1.3052 -0.9764 -0.3525
11977SOL     OW47909   9.474   5.977   8.324 -0.0173  0.5780  0.1668
11977SOL    HW147910   9.508   5.939   8.405 -0.6347 -1.2327 -0.3869
11977SOL    HW247911   9.404   6.036   8.354  1.8661  2.4809  1.1249
11978SOL     OW47912   4.378   7.709   4.946  0.4892  0.6633  0.7925
11978SOL    HW147913   4.386   7.790   4.997  1.2444  1.6383 -0.7816
11978SOL    HW247914   4.350   7.739   4.859 -1.8041 -1.0274  0.8546
11979SOL     OW47915   9.181   5.215   5.010 -0.4755  0.1479  0.0296
11979SOL    HW147916   9.120   5.287   5.025 -1.1391 -0.2421 -0.7042
11979SOL    HW247917   9.147   5.144   5.063 -1.4860 -0.4996 -1.4032
11980SOL     OW47918  11.608   9.447  12.174  0.5727 -0.1097 -0.3366
11980SOL    HW147919  11.567   9.389  12.238 -0.4520  0.8170 -0.1149
11980SOL    HW247920  11.543   9.454  12.103  2.1518 -2.0728 -2.1199
11981SOL     OW47921   6.877   4.292   3.459  0.3818 -0.0550 -0.4943
11981SOL    HW147922   6.856   4.267   3.369  0.6141 -0.6297 -0.3979
11981SOL    HW247923   6.824   4.233   3.513  2.6655 -2.0098 -0.2422
11982SOL     OW47924   6.227   7.453  13.196 -0.2886 -0.3818 -0.1879
11982SOL    HW147925   6.202   7.480  13.108 -0.2880  1.6855  0.3782
11982SOL    HW247926   6.321   7.434  13.190 -0.0668  0.7062 -0.4699
11983SOL     OW47927   8.748   1.265  14.008 -0.5308  0.1499 -0.8798
11983SOL    HW147928   8.791   1.193  13.961  1.9745  0.8077  0.2409
11983SOL    HW247929   8.763   1.342  13.954  0.0608  0.4524 -0.2964
11984SOL     OW47930  10.412  11.283   6.987 -0.4653 -0.5622  0.0593
11984SOL    HW147931  10.333  11.326   6.953  0.8939  0.1718 -2.4344
11984SOL    HW247932  10.472  11.355   7.006  0.3930 -1.1875 -0.2204
11985SOL     OW47933  13.634   3.776   1.135  0.2829 -0.3908 -0.0941
11985SOL    HW147934  13.572   3.710   1.102 -1.8344  0.4515  1.8589
11985SOL    HW247935  13.719   3.749   1.100 -0.8277 -2.8990 -1.1332
11986SOL     OW47936  12.170   4.883   2.221  0.4739 -0.1673 -0.6279
11986SOL    HW147937  12.110   4.833   2.165  0.0234  1.6710 -1.8494
11986SOL    HW247938  12.226   4.931   2.161 -0.9405  2.9958  0.3567
11987SOL     OW47939  13.653   7.953   3.007  0.3478  0.1717  0.0450
11987SOL    HW147940  13.700   7.910   3.079  0.6089 -0.8743 -0.7207
11987SOL    HW247941  13.717   7.961   2.937 -0.3441 -0.4073 -0.6806
11988SOL     OW47942   1.156   6.317   0.403  0.1773 -0.1031 -0.2117
11988SOL    HW147943   1.133   6.340   0.313 -1.3461 -2.7269 -0.5907
11988SOL    HW247944   1.155   6.401   0.450 -3.1064  0.9249 -1.7913
11989SOL     OW47945   1.119   8.780   4.156 -0.2784  0.7412  0.0587
11989SOL    HW147946   1.202   8.814   4.190 -0.2827  0.4935  0.3225
11989SOL    HW247947   1.079   8.735   4.231  0.3965 -1.1108 -0.6558
11990SOL     OW47948  12.983   5.724  13.262  0.4921  0.9249 -0.3531
11990SOL    HW147949  13.004   5.669  13.187 -1.4628  1.0389 -1.0421
11990SOL    HW247950  12.967   5.662  13.333  1.3857  0.7782 -0.2629
11991SOL     OW47951   2.661  12.110   8.171  0.3199  0.1177  0.3630
11991SOL    HW147952   2.747  12.132   8.137 -0.5635  0.4121 -1.8192
11991SOL    HW247953   2.649  12.169   8.246  0.5748  2.7449 -1.5379
11992SOL     OW47954   1.846   7.458  12.727 -0.0341  0.0607 -0.4257
11992SOL    HW147955   1.927   7.411  12.748 -0.3608 -0.5898 -0.6181
11992SOL    HW247956   1.843   7.529  12.791  1.5151  1.0889 -1.4172
11993SOL     OW47957   0.892  13.655   2.819 -0.2563  0.0336  0.0730
11993SOL    HW147958   0.937  13.588   2.767  1.7637  2.0809 -0.9856
11993SOL    HW247959   0.864  13.720   2.754 -2.0181  0.3539  1.0924
11994SOL     OW47960   3.879  10.512   0.725 -0.2135  0.0057 -0.3266
11994SOL    HW147961   3.801  10.487   0.675 -0.7548  0.4083  0.2809
11994SOL    HW247962   3.919  10.429   0.751 -0.9101 -0.2219  0.0471
11995SOL     OW47963   7.790  14.035  11.693 -0.3879  0.2735 -0.3772
11995SOL    HW147964   7.873  14.051  11.738 -1.2898  1.0593  1.1004
11995SOL    HW247965   7.782  13.939  11.691  0.3651  0.1993 -0.2056
11996SOL     OW47966  14.015   8.015   4.873 -0.2002 -0.3755  0.5327
11996SOL    HW147967  13.948   8.062   4.924 -0.3046 -2.1907  2.1804
11996SOL    HW247968  13.972   7.996   4.790 -1.1464 -0.0049  0.9163
11997SOL     OW47969  13.116   8.667  10.175 -0.2911 -0.0259  0.1747
11997SOL    HW147970  13.129   8.761  10.185  0.1587 -0.0113 -0.4821
11997SOL    HW247971  13.185   8.627  10.227  0.7211  0.0306 -1.0866
11998SOL     OW47972   5.349  13.179  10.617  0.0215 -0.2930  0.2232
11998SOL    HW147973   5.277  13.237  10.590 -1.2308 -2.2107 -0.7806
11998SOL    HW247974   5.330  13.096  10.574  0.8216 -1.9723  2.8661
11999SOL     OW47975  10.483   1.716   1.203  0.1121  0.3617  0.1591
11999SOL    HW147976  10.444   1.700   1.289  1.5004 -2.2628  0.3942
11999SOL    HW247977  10.574   1.687   1.212  0.4787  0.7029 -1.9888
12000SOL     OW47978   3.875   3.419  11.120  0.0807  0.0494  0.6287
12000SOL    HW147979   3.885   3.429  11.215  0.4654  0.1106  0.5846
12000SOL    HW247980   3.837   3.502  11.092  0.1868  0.1236  0.6997
12001SOL     OW47981   7.778   7.671  10.467  0.3014 -0.7295  0.5627
12001SOL    HW147982   7.754   7.753  10.509  0.5970 -0.1440 -0.3913
12001SOL    HW247983   7.703   7.613  10.483 -0.1294 -0.1163  0.7982
12002SOL     OW47984   8.079   4.278   1.798 -0.4836  0.0219 -0.5738
12002SOL    HW147985   8.009   4.290   1.734 -1.8329 -0.5775  0.7528
12002SOL    HW247986   8.076   4.356   1.853 -1.5914 -0.9956  0.8487
12003SOL     OW47987   4.345   3.217   8.553 -0.0281 -0.0979 -0.0573
12003SOL    HW147988   4.260   3.178   8.570  0.2983 -0.5264  0.6208
12003SOL    HW247989   4.402   3.183   8.622 -0.2446  3.3033  2.0092
12004SOL     OW47990  11.762   8.278   5.799 -0.7051  0.1695  0.1138
12004SOL    HW147991  11.835   8.218   5.810 -0.3446  0.1935 -1.7561
12004SOL    HW247992  11.803   8.361   5.776 -1.2816  0.5950  0.5852
12005SOL     OW47993  11.641   9.848   8.793 -0.3780 -0.4376 -0.4249
12005SOL    HW147994  11.567   9.898   8.829  1.3549  1.3258  0.8459
12005SOL    HW247995  11.616   9.832   8.702 -1.9376  0.8891 -0.2887
12006SOL     OW47996   4.636   2.045   5.013 -0.1953 -0.3549 -0.1468
12006SOL    HW147997   4.585   2.012   5.086  0.2123 -0.8436 -0.0795
12006SOL    HW247998   4.720   2.069   5.051  0.4144 -1.6350 -0.6232
12007SOL     OW47999  10.699   0.729   0.774 -0.1118  0.0804 -0.1943
12007SOL    HW148000  10.739   0.650   0.736 -0.5966 -0.0328 -0.4813
12007SOL    HW248001  10.741   0.802   0.729  0.4442 -0.0090  0.1757
12008SOL     OW48002   5.610   0.007   9.919  0.1866  0.0400  0.1506
12008SOL    HW148003   5.546  -0.037   9.864  0.1007  1.3278 -0.8110
12008SOL    HW248004   5.676  -0.060   9.937 -0.3889 -0.7290 -0.5230
12009SOL     OW48005  11.950   2.123   4.502 -0.2974 -0.8098 -0.6396
12009SOL    HW148006  12.042   2.096   4.499  0.0009  0.0187  0.5577
12009SOL    HW248007  11.903   2.046   4.535 -0.0955 -1.3291 -1.5258
12010SOL     OW48008  11.190  11.202   6.445 -0.3600 -0.1641 -0.0405
12010SOL    HW148009  11.191  11.295   6.425 -0.4150 -0.3682 -1.0423
12010SOL    HW248010  11.133  11.164   6.378 -0.8010 -0.8424  0.7000
12011SOL     OW48011   9.402   0.217   8.214  0.3815  0.1255 -0.3610
12011SOL    HW148012   9.395   0.168   8.295 -0.6175 -0.8271 -0.9944
12011SOL    HW248013   9.337   0.286   8.221 -1.4830 -1.4468 -1.3168
12012SOL     OW48014   4.254  13.144   7.023 -0.1628 -0.1553 -0.1808
12012SOL    HW148015   4.231  13.112   6.936  0.5714 -2.6777  0.4625
12012SOL    HW248016   4.174  13.187   7.054 -0.2870  1.2319 -2.2241
12013SOL     OW48017   5.420   2.755   7.139  0.4214 -0.5780 -0.0485
12013SOL    HW148018   5.401   2.671   7.099  2.1683 -1.4376  0.8036
12013SOL    HW248019   5.463   2.733   7.222  0.0644  1.1523  0.6448
12014SOL     OW48020   9.272  10.363   9.048 -0.0896  0.6699 -0.9100
12014SOL    HW148021   9.278  10.279   9.093 -0.0387  1.0888 -0.1019
12014SOL    HW248022   9.322  10.423   9.104  1.5249  0.8465 -2.4584
12015SOL     OW48023   3.173   2.557   5.549 -0.5221 -0.0136  0.0628
12015SOL    HW148024   3.189   2.521   5.636 -1.5395 -1.4783 -0.3121
12015SOL    HW248025   3.210   2.491   5.490 -0.5221  0.6053 -0.6355
12016SOL     OW48026   4.717   5.722  11.774  0.4694 -0.3406 -0.3609
12016SOL    HW148027   4.731   5.634  11.739 -0.5161 -0.9405  0.6850
12016SOL    HW248028   4.768   5.725  11.855  2.0506  0.7482 -1.3369
12017SOL     OW48029   9.520   9.105   1.186 -0.1718 -0.0051  0.2776
12017SOL    HW148030   9.600   9.132   1.142  0.0353  1.1624  1.3123
12017SOL    HW248031   9.533   9.013   1.208  0.6327  0.0226 -0.0704
12018SOL     OW48032  12.983   5.774   2.748 -0.6781  0.2401  0.2706
12018SOL    HW148033  12.975   5.699   2.806  1.0824 -0.2381 -0.0511
12018SOL    HW248034  12.952   5.742   2.663 -1.0084  0.2311  0.3925
12019SOL     OW48035   9.513   7.878   9.219 -0.1088  0.6746 -0.2226
12019SOL    HW148036   9.586   7.938   9.234 -0.4262  0.5217  2.6094
12019SOL    HW248037   9.446   7.932   9.177  0.1889  1.9607  0.8663
12020SOL     OW48038   1.637  12.426  11.419 -0.4881 -0.2616  0.2219
12020SOL    HW148039   1.706  12.476  11.376 -0.5946  0.3832  0.7843
12020SOL    HW248040   1.565  12.426  11.357  0.8351 -3.1972 -1.5596
12021SOL     OW48041   5.224   8.274   6.167 -0.0436 -0.0522  0.3750
12021SOL    HW148042   5.203   8.360   6.203  0.6119  0.3669 -0.2239
12021SOL    HW248043   5.319   8.268   6.172 -0.0818 -0.7465  0.4136
12022SOL     OW48044  12.485  13.472   8.684  0.2826 -0.1034 -0.1381
12022SOL    HW148045  12.439  13.502   8.606 -0.1410  1.4541  0.6606
12022SOL    HW248046  12.574  13.453   8.653  0.2515  0.9307 -0.9275
12023SOL     OW48047  11.977   2.153   9.616 -0.1471 -0.5497 -0.3705
12023SOL    HW148048  11.899   2.208   9.623  0.9620  0.9302  1.5994
12023SOL    HW248049  11.947   2.074   9.572 -2.4630  0.4616 -0.7561
12024SOL     OW48050   9.289   1.994   6.689  0.2657  0.3973 -0.2057
12024SOL    HW148051   9.241   2.026   6.765  0.2056  1.2414 -0.5839
12024SOL    HW248052   9.375   1.968   6.723  0.0859  0.3510  0.2146
12025SOL     OW48053   9.730  10.997   2.730 -0.0802 -0.5844  0.1153
12025SOL    HW148054   9.748  11.091   2.726  0.0868 -0.6519 -1.0398
12025SOL    HW248055   9.684  10.978   2.648 -1.5831 -1.2149  1.0634
12026SOL     OW48056  10.628   2.432  11.240  0.5463 -0.1796  0.0784
12026SOL    HW148057  10.575   2.380  11.179 -1.4961  1.6262  0.1837
12026SOL    HW248058  10.641   2.374  11.315  0.1152 -1.2534 -0.6455
12027SOL     OW48059  10.244   4.460   4.677 -0.4743 -0.4887 -0.2252
12027SOL    HW148060  10.258   4.521   4.604 -0.8494 -1.1220 -0.8306
12027SOL    HW248061  10.188   4.508   4.738 -1.3604 -0.4741 -1.0301
12028SOL     OW48062   6.758  11.934  11.611  0.0572 -0.7497 -0.4462
12028SOL    HW148063   6.787  12.025  11.623 -0.7812 -0.4238 -0.7621
12028SOL    HW248064   6.696  11.920  11.682  1.2721 -1.5775  0.4825
12029SOL     OW48065   2.492   9.800   5.298 -0.5278 -0.4260 -0.4234
12029SOL    HW148066   2.441   9.837   5.226  1.4918  0.5982 -1.4144
12029SOL    HW248067   2.439   9.817   5.376 -1.9688  0.0314 -1.4527
12030SOL     OW48068   6.484   2.957   6.569 -0.0423  0.3349  0.0893
12030SOL    HW148069   6.518   2.891   6.509  0.1571  0.5393 -0.0232
12030SOL    HW248070   6.472   2.910   6.652  1.1127  0.4010  0.3133
12031SOL     OW48071   3.892   1.199  10.144 -0.5205  0.1838 -0.1949
12031SOL    HW148072   3.983   1.172  10.155  0.3403  2.7559 -0.1956
12031SOL    HW248073   3.892   1.247  10.061 -1.4241  1.7706  0.6719
12032SOL     OW48074  11.282   8.573   7.691  0.8570 -0.2645  0.8762
12032SOL    HW148075  11.329   8.507   7.741  1.1017  0.3835  1.5196
12032SOL    HW248076  11.351   8.621   7.644  0.8136  0.4050  1.4785
12033SOL     OW48077   0.825  10.868  13.827 -0.3188  0.8237  0.1425
12033SOL    HW148078   0.803  10.909  13.744  1.0953  0.6570 -0.3512
12033SOL    HW248079   0.784  10.782  13.823 -2.0784  1.6087  0.5679
12034SOL     OW48080   6.206  11.631  10.632  0.3897  0.6121  0.3378
12034SOL    HW148081   6.216  11.596  10.721  0.1616  0.2931  0.2385
12034SOL    HW248082   6.294  11.625  10.595  0.4830  0.7298  0.5358
12035SOL     OW48083   4.685   9.131   5.956  0.1522  0.1569  0.1109
12035SOL    HW148084   4.770   9.101   5.923  0.2333  0.5388 -0.0301
12035SOL    HW248085   4.626   9.125   5.881  0.2183  0.5512  0.0297
12036SOL     OW48086  10.922  11.615  13.330 -0.8944  0.0885 -0.0108
12036SOL    HW148087  10.994  11.601  13.392 -0.2164 -0.8181 -0.9670
12036SOL    HW248088  10.912  11.710  13.326  0.6631  0.2695 -0.2932
12037SOL     OW48089   2.182   0.158   8.818  0.6546 -0.5359  0.2964
12037SOL    HW148090   2.133   0.204   8.750 -1.6528 -1.5802  1.1455
12037SOL    HW248091   2.269   0.146   8.781 -0.0686  0.2938 -1.8302
12038SOL     OW48092   1.156   0.491   5.595  0.2521 -0.0870  0.5310
12038SOL    HW148093   1.196   0.522   5.513  1.7393 -0.5158  1.0684
12038SOL    HW248094   1.152   0.569   5.651 -0.4579  0.1324  0.1947
12039SOL     OW48095   9.570   0.698  13.012 -0.1617  0.0621  0.8489
12039SOL    HW148096   9.512   0.622  13.016  0.0818 -0.2462 -0.7340
12039SOL    HW248097   9.585   0.712  12.918  0.4186  1.5968  1.1304
12040SOL     OW48098  10.047   2.843   5.289  0.1458 -0.5003 -0.1532
12040SOL    HW148099  10.073   2.829   5.379  0.7319  0.1281 -0.2216
12040SOL    HW248100  10.014   2.933   5.287  3.0430  0.6612 -1.1876
12041SOL     OW48101   2.799  12.529   7.977  0.5994 -1.0276 -0.1233
12041SOL    HW148102   2.771  12.439   7.962 -1.6684 -0.1750 -1.6383
12041SOL    HW248103   2.876  12.540   7.921 -0.7669 -1.2916 -2.1523
12042SOL     OW48104  11.314   5.932   9.907  0.1035  0.4965  0.0844
12042SOL    HW148105  11.286   6.018   9.876  2.7564  0.4601 -2.9992
12042SOL    HW248106  11.392   5.950   9.960 -0.1432  0.0896  0.5866
12043SOL     OW48107   3.282  13.850   0.414 -0.0707 -0.6593 -0.1352
12043SOL    HW148108   3.237  13.897   0.344  0.7033 -0.7501 -0.7086
12043SOL    HW248109   3.367  13.827   0.377  0.5773 -0.2322  1.0141
12044SOL     OW48110   8.012   4.401   8.429  0.3704  0.4363  0.0396
12044SOL    HW148111   8.058   4.447   8.499 -1.3474  3.0412 -0.3956
12044SOL    HW248112   8.081   4.371   8.370  1.7569 -0.6295  2.0876
12045SOL     OW48113   9.592  11.238   7.968  0.4837 -0.4543  0.2653
12045SOL    HW148114   9.674  11.287   7.973  0.1486  0.4211 -1.7808
12045SOL    HW248115   9.527  11.296   8.008  0.5601 -0.3598  0.2539
12046SOL     OW48116   6.921  14.002   6.407 -0.4004  0.4056  0.3267
12046SOL    HW148117   6.959  14.044   6.330  0.1206  0.2798  0.5163
12046SOL    HW248118   6.993  13.994   6.469 -0.5569 -0.5039  0.4061
12047SOL     OW48119  11.689   7.156   0.285 -0.4041  0.0825  0.6289
12047SOL    HW148120  11.643   7.126   0.206 -1.4670  0.1847  1.1887
12047SOL    HW248121  11.737   7.233   0.257  0.0109 -0.4373 -0.1429
12048SOL     OW48122  12.942  11.819   6.388 -0.0320 -0.0839  0.3799
12048SOL    HW148123  12.851  11.796   6.407 -0.6027  0.6779 -1.2543
12048SOL    HW248124  12.952  11.908   6.421 -0.1522  0.1492 -0.1962
12049SOL     OW48125   5.653   2.006   6.705  0.0710  0.3868 -0.1662
12049SOL    HW148126   5.700   2.022   6.787 -0.0677  0.3874 -0.0874
12049SOL    HW248127   5.662   2.088   6.656  1.0299  0.0567 -0.5880
12050SOL     OW48128   4.891   6.717   0.567  0.0622  0.3803  0.2440
12050SOL    HW148129   4.816   6.665   0.537  0.3656  1.6820 -3.1917
12050SOL    HW248130   4.859   6.762   0.645 -2.0608 -0.6071  0.0139
12051SOL     OW48131   7.631  10.006  10.389  0.1743  0.0304 -0.0571
12051SOL    HW148132   7.643   9.964  10.473  1.6617  3.4604  1.6257
12051SOL    HW248133   7.630   9.934  10.326 -1.8072 -2.7515  2.8535
12052SOL     OW48134  10.589   8.009   2.627 -0.4237  0.1218 -0.3191
12052SOL    HW148135  10.680   8.036   2.631  0.7526 -3.3320 -0.7834
12052SOL    HW248136  10.564   8.022   2.535  0.0875 -0.2716 -0.5164
12053SOL     OW48137   3.376   4.389  12.855  0.1076 -0.2404 -1.0713
12053SOL    HW148138   3.388   4.338  12.776 -1.9670 -0.3686 -1.3698
12053SOL    HW248139   3.394   4.328  12.927  2.6598  0.0542 -1.3698
12054SOL     OW48140   3.227   5.310   7.906 -0.2885  0.0636 -0.5095
12054SOL    HW148141   3.183   5.261   7.974  1.7524 -0.2841  0.6278
12054SOL    HW248142   3.248   5.394   7.947  0.9278 -0.1366 -0.7036
12055SOL     OW48143   7.490   8.705   7.039  0.4776 -0.3295 -0.3687
12055SOL    HW148144   7.485   8.659   7.122 -1.3898  1.8510  0.8553
12055SOL    HW248145   7.431   8.657   6.981 -0.8330 -0.0015  0.6375
12056SOL     OW48146   6.302  10.217  13.133 -0.8795  0.2855  0.0196
12056SOL    HW148147   6.304  10.124  13.108  1.2827  0.2979 -0.0894
12056SOL    HW248148   6.240  10.221  13.205  0.2257 -1.5944  1.1681
12057SOL     OW48149   2.451   5.302   3.947 -0.2982 -0.3015 -0.1059
12057SOL    HW148150   2.368   5.263   3.976  0.7050 -0.9122  2.1801
12057SOL    HW248151   2.444   5.394   3.971 -0.3291 -0.3474  0.0651
12058SOL     OW48152   5.624   5.758   9.232  0.7827 -0.1062 -0.2708
12058SOL    HW148153   5.639   5.844   9.272 -1.4999 -0.1772  0.9292
12058SOL    HW248154   5.621   5.697   9.307 -1.7530 -0.5408 -0.6386
12059SOL     OW48155   1.405   1.055  11.810  0.5640  0.7620  0.2292
12059SOL    HW148156   1.432   1.045  11.901  2.4166  0.1037 -0.3532
12059SOL    HW248157   1.457   0.991  11.762  0.5981  1.9859 -1.4737
12060SOL     OW48158   0.664   2.604   3.282 -0.0966 -0.5528 -0.6966
12060SOL    HW148159   0.575   2.639   3.295 -0.2639 -0.7523 -1.2629
12060SOL    HW248160   0.720   2.659   3.337 -0.6144 -0.6357 -0.0741
12061SOL     OW48161   2.152  13.989   7.369  0.7115  0.3672 -0.2955
12061SOL    HW148162   2.216  13.918   7.370  1.9036  1.1979  4.0780
12061SOL    HW248163   2.077  13.955   7.419 -0.5159  0.8589 -1.7187
12062SOL     OW48164  13.762   4.351   6.643  0.2535 -0.7001 -0.0203
12062SOL    HW148165  13.731   4.302   6.720  0.5374 -1.4598 -0.3849
12062SOL    HW248166  13.776   4.440   6.676 -0.3201 -0.8429  0.6401
12063SOL     OW48167   7.170   1.028   2.344  0.3418  0.0005  0.2646
12063SOL    HW148168   7.238   0.996   2.285 -0.2800  1.5789 -1.4306
12063SOL    HW248169   7.214   1.091   2.401  0.7727 -0.8803  0.9266
12064SOL     OW48170   7.569   2.853   3.717  0.0784  0.4165  0.2294
12064SOL    HW148171   7.568   2.758   3.710 -0.0396  0.3373  1.1664
12064SOL    HW248172   7.560   2.871   3.811 -1.4523  1.3666 -0.0424
12065SOL     OW48173   4.537  12.778  12.821 -0.3745  0.2506 -0.2964
12065SOL    HW148174   4.534  12.852  12.760  0.6199 -0.0784 -0.7740
12065SOL    HW248175   4.614  12.728  12.793  0.7391  0.6461  1.8590
12066SOL     OW48176   9.645  11.748   9.807  0.0490  0.0970 -0.0553
12066SOL    HW148177   9.622  11.685   9.740  0.3883  0.2190 -0.2895
12066SOL    HW248178   9.576  11.814   9.804 -0.5994 -0.5425  0.5626
12067SOL     OW48179  12.496   9.036   0.643 -0.1023 -0.0263  0.4254
12067SOL    HW148180  12.407   9.072   0.649 -0.3260 -0.5508  0.3400
12067SOL    HW248181  12.497   8.989   0.560  1.1350  2.2739 -0.9544
12068SOL     OW48182   1.603  10.529  11.833 -0.2428  0.0369  0.4972
12068SOL    HW148183   1.533  10.568  11.886  0.1016  0.3289  0.7482
12068SOL    HW248184   1.595  10.435  11.847 -1.3955 -0.0294 -0.5034
12069SOL     OW48185   9.561   5.148   8.096 -0.0258 -0.0051  0.0635
12069SOL    HW148186   9.645   5.101   8.095  0.1864  0.3400  1.1240
12069SOL    HW248187   9.495   5.079   8.102  0.1521 -0.2969 -1.0747
12070SOL     OW48188   7.702   2.162   3.317 -0.0088  0.0843 -0.7107
12070SOL    HW148189   7.721   2.150   3.410 -0.8665 -0.4411 -0.5887
12070SOL    HW248190   7.776   2.212   3.283  0.8599 -0.6838  0.0112
12071SOL     OW48191   9.103   7.342  10.206  0.0743 -0.3372  0.1498
12071SOL    HW148192   9.151   7.266  10.172 -1.0851 -1.9992  1.9798
12071SOL    HW248193   9.131   7.348  10.298 -1.8479 -0.2879  0.7798
12072SOL     OW48194  13.603   5.586  13.124  0.3276 -0.3896  0.2371
12072SOL    HW148195  13.556   5.667  13.104  0.9603 -0.3502 -1.2769
12072SOL    HW248196  13.685   5.594  13.076  0.1963 -2.1329 -0.3634
12073SOL     OW48197   7.732   6.446   5.628  0.4480  0.1792  0.1237
12073SOL    HW148198   7.667   6.514   5.608 -0.7917 -0.9291  0.2174
12073SOL    HW248199   7.714   6.422   5.718  0.6086 -0.5487 -0.0333
12074SOL     OW48200   0.206  12.984  10.486  0.1808 -0.0707  0.0466
12074SOL    HW148201   0.125  12.959  10.443 -0.3017 -0.8833  1.3630
12074SOL    HW248202   0.202  13.079  10.492 -1.9316 -0.1946  2.3308
12075SOL     OW48203   5.806   9.441   9.238  0.6028 -0.0925  0.0759
12075SOL    HW148204   5.829   9.348   9.235 -1.3511 -0.5742 -0.9783
12075SOL    HW248205   5.758   9.457   9.157 -0.2126  1.5336  0.8453
12076SOL     OW48206   7.360  10.207   0.414  0.4614  0.1642 -0.0877
12076SOL    HW148207   7.278  10.252   0.431  0.3062 -1.1587  3.6452
12076SOL    HW248208   7.424  10.277   0.399 -0.6644  1.3779  0.6653
12077SOL     OW48209   6.849  12.783  13.842  0.6154 -0.2057 -0.0790
12077SOL    HW148210   6.798  12.804  13.764 -0.9014 -0.3784  0.8404
12077SOL    HW248211   6.811  12.701  13.875  0.7055  0.2766  1.2829
12078SOL     OW48212  11.683   9.876   7.856 -0.0699 -0.0189 -1.0844
12078SOL    HW148213  11.687   9.804   7.919  1.3773 -0.3718 -1.5392
12078SOL    HW248214  11.692   9.834   7.771  1.8117  0.7511 -1.3094
12079SOL     OW48215  11.045   9.491   7.945 -0.0144  0.1882 -0.4201
12079SOL    HW148216  11.099   9.486   7.866 -0.2898 -0.0921 -0.5926
12079SOL    HW248217  10.967   9.540   7.917 -0.0365  0.2356 -0.2773
12080SOL     OW48218   7.787   1.262   1.166  0.0138 -0.2110 -0.3901
12080SOL    HW148219   7.797   1.357   1.152  1.3071 -0.2054  0.3620
12080SOL    HW248220   7.810   1.223   1.081  0.0209  0.1347 -0.5487
12081SOL     OW48221  11.968   4.568   3.079 -0.2033 -0.0683  0.0475
12081SOL    HW148222  12.014   4.505   3.023 -0.3963  0.4045 -0.6716
12081SOL    HW248223  11.894   4.519   3.115 -0.2230 -0.3151 -0.3233
12082SOL     OW48224   7.819   3.303  11.014  0.1170  0.1722 -0.0268
12082SOL    HW148225   7.724   3.294  11.022  0.2437  0.6932  4.0290
12082SOL    HW248226   7.831   3.391  10.978 -1.0178  1.2839  2.1179
12083SOL     OW48227   3.320  10.234   4.620  0.2033 -0.7098 -0.4237
12083SOL    HW148228   3.382  10.170   4.584 -1.4077 -1.3931 -2.1534
12083SOL    HW248229   3.242  10.183   4.642  0.4071  0.0276  2.3733
12084SOL     OW48230  10.241  13.251   5.345  0.4032 -0.3650 -0.3344
12084SOL    HW148231  10.156  13.212   5.367  0.9859 -0.4672  1.8924
12084SOL    HW248232  10.302  13.215   5.409  1.7497  1.1912 -0.6800
12085SOL     OW48233  13.556  11.902   6.487  0.0800  0.0744  0.4432
12085SOL    HW148234  13.509  11.868   6.411  0.6070 -0.6669  0.4412
12085SOL    HW248235  13.489  11.948   6.537 -0.7391 -1.2425  0.6127
12086SOL     OW48236  11.065  11.089   3.165 -0.2003 -0.1366 -0.7474
12086SOL    HW148237  11.056  11.130   3.251 -1.8926 -0.1686 -0.8860
12086SOL    HW248238  11.061  10.995   3.183  1.7843 -0.2420 -0.6398
12087SOL     OW48239   2.717   5.937   1.562 -0.2578 -0.0460  0.4967
12087SOL    HW148240   2.764   5.890   1.631  0.6364  0.6156  0.3600
12087SOL    HW248241   2.733   6.030   1.582 -1.8316  0.2131  0.6591
12088SOL     OW48242  13.242  12.178  13.433  1.1767 -0.1808  0.2218
12088SOL    HW148243  13.274  12.145  13.517 -0.0890 -1.4921  0.2136
12088SOL    HW248244  13.238  12.101  13.377 -1.9700 -0.1334  0.2272
12089SOL     OW48245  12.916   3.783  12.132  0.0698  0.5392  0.4250
12089SOL    HW148246  12.989   3.733  12.169 -0.0110 -1.1885 -1.6287
12089SOL    HW248247  12.848   3.778  12.199  0.6827 -0.6193  0.9993
12090SOL     OW48248   6.540   9.638  10.094  0.2101 -0.2475 -0.3518
12090SOL    HW148249   6.533   9.640  10.189 -0.7881 -1.7846 -0.3463
12090SOL    HW248250   6.618   9.690  10.074 -1.2882  2.8057  1.0537
12091SOL     OW48251   8.909  11.757   0.080  0.1354  0.1130  0.2033
12091SOL    HW148252   8.830  11.714   0.111  0.1677  0.0311  0.1733
12091SOL    HW248253   8.909  11.843   0.123 -0.3989  0.4409 -0.4363
12092SOL     OW48254   2.593  13.508  13.808 -0.4545  0.6247 -0.1844
12092SOL    HW148255   2.585  13.474  13.896 -2.4645 -0.7714 -0.8259
12092SOL    HW248256   2.549  13.593  13.811 -1.0218  0.3283  0.0569
12093SOL     OW48257  13.324  13.239  13.497  0.8549 -0.0447 -0.1677
12093SOL    HW148258  13.414  13.207  13.490  0.9819  0.5186 -1.4761
12093SOL    HW248259  13.301  13.264  13.407 -0.1479  1.0384  0.3663
12094SOL     OW48260   3.440   4.242   6.310  0.3365 -0.0366 -0.0584
12094SOL    HW148261   3.398   4.158   6.327  0.9042 -0.5045 -0.8860
12094SOL    HW248262   3.368   4.302   6.288 -0.1019 -0.2001  0.8813
12095SOL     OW48263   6.068   9.460   5.937 -0.3766 -0.2333  0.3084
12095SOL    HW148264   6.110   9.392   5.990 -0.7546 -1.4158 -0.8809
12095SOL    HW248265   6.059   9.422   5.850 -0.8344  1.2516 -0.3324
12096SOL     OW48266   9.991   1.408   3.095 -0.1683 -0.5570 -0.6069
12096SOL    HW148267  10.048   1.444   3.027  0.4790 -0.2771  0.0727
12096SOL    HW248268  10.000   1.468   3.169 -1.4754 -0.4182 -0.5341
12097SOL     OW48269   5.609   2.984  12.735 -0.0871 -0.1486 -0.2102
12097SOL    HW148270   5.591   2.926  12.661 -0.1643 -1.4341  0.7704
12097SOL    HW248271   5.544   2.960  12.801  1.9119 -1.3323  1.4887
12098SOL     OW48272   8.016  12.803   9.337 -0.1102 -0.0727  0.4883
12098SOL    HW148273   7.978  12.783   9.252  0.8186  0.2158 -0.0096
12098SOL    HW248274   8.110  12.811   9.320 -0.0412  1.1722  1.3136
12099SOL     OW48275   1.072   6.752   8.161 -0.3871 -0.0369 -0.3929
12099SOL    HW148276   1.045   6.672   8.204 -1.0078  0.0613 -0.5929
12099SOL    HW248277   1.011   6.819   8.192 -0.2446  0.2355 -0.6776
12100SOL     OW48278   7.671   6.095   4.549 -0.0254 -0.5278  0.0126
12100SOL    HW148279   7.729   6.170   4.557 -0.8552  0.3538 -1.6844
12100SOL    HW248280   7.697   6.052   4.468 -0.2500 -1.4665  0.4193
12101SOL     OW48281   9.975   8.784  11.781 -0.0303 -0.1523 -0.1146
12101SOL    HW148282   9.892   8.742  11.760  0.3565 -1.9864  1.6220
12101SOL    HW248283  10.007   8.818  11.698 -2.8837  1.4252 -0.6894
12102SOL     OW48284   1.128   0.003  12.846 -0.4753  0.0029  0.2355
12102SOL    HW148285   1.079  -0.041  12.777  1.3642 -0.2538 -0.9640
12102SOL    HW248286   1.080   0.085  12.860 -1.9261 -0.7739  0.0053
12103SOL     OW48287   2.435  12.891   9.674 -0.1096 -0.7541 -0.0618
12103SOL    HW148288   2.519  12.851   9.695  0.4773 -0.8018 -2.2323
12103SOL    HW248289   2.455  12.984   9.660 -0.6976 -0.4822  0.8415
12104SOL     OW48290  12.964   1.818   2.454 -0.2548 -0.5724  0.1481
12104SOL    HW148291  12.955   1.900   2.405  1.6682 -0.4386 -0.0363
12104SOL    HW248292  12.967   1.844   2.546  3.3152 -0.0128  0.0224
12105SOL     OW48293   0.154   1.537   5.465  0.3173  0.1275  0.3922
12105SOL    HW148294   0.136   1.444   5.446 -2.2876  0.1802  2.0220
12105SOL    HW248295   0.157   1.579   5.379 -0.5851 -1.1736 -0.3221
12106SOL     OW48296  13.891   1.944  10.977  0.7893 -0.3684 -0.3580
12106SOL    HW148297  13.921   2.030  11.005  1.8238 -1.1206  0.9358
12106SOL    HW248298  13.941   1.882  11.030 -0.3392 -1.7654 -0.8496
12107SOL     OW48299   6.011   6.361   5.431 -0.9368 -0.1506  0.3622
12107SOL    HW148300   6.010   6.276   5.475  0.8943 -0.9009 -0.9249
12107SOL    HW248301   5.948   6.352   5.360  0.2972 -0.9961 -0.6693
12108SOL     OW48302  13.134  13.191  10.479 -0.1904 -0.3118 -0.1353
12108SOL    HW148303  13.064  13.126  10.473  0.5442 -1.0309 -1.4387
12108SOL    HW248304  13.137  13.214  10.572  0.8546 -3.6786  0.8023
12109SOL     OW48305   3.913   8.842   4.963 -0.1160 -0.1998 -0.1386
12109SOL    HW148306   3.881   8.863   4.875  1.0414  1.2123 -0.2608
12109SOL    HW248307   3.877   8.910   5.019 -0.7375 -1.0147  0.4773
12110SOL     OW48308   7.814  12.762   8.785 -0.0641 -0.4502 -0.3125
12110SOL    HW148309   7.862  12.842   8.764  1.2631 -1.2831 -0.5796
12110SOL    HW248310   7.722  12.786   8.776  0.3183  0.9865 -0.5890
12111SOL     OW48311   9.020   7.763   8.441 -0.5172  0.6796  0.0381
12111SOL    HW148312   8.983   7.840   8.485 -1.2126  1.2971 -1.5800
12111SOL    HW248313   9.102   7.747   8.488 -0.4067  2.3532  0.4890
12112SOL     OW48314   8.208   2.976  12.159  0.0099 -0.0318 -0.2464
12112SOL    HW148315   8.178   2.887  12.141 -0.1804 -0.6182  2.4473
12112SOL    HW248316   8.286   2.965  12.213  1.3466  1.4870 -1.7701
12113SOL     OW48317  12.313  10.139   9.408 -0.5300  0.3012  0.3948
12113SOL    HW148318  12.404  10.148   9.438  0.4255  3.3042 -2.7180
12113SOL    HW248319  12.314  10.060   9.354  0.0559  0.0037  0.8206
12114SOL     OW48320   2.930  11.498   8.890 -0.1200 -0.1173 -0.0054
12114SOL    HW148321   2.843  11.496   8.929  0.9445  0.0573  2.5326
12114SOL    HW248322   2.962  11.408   8.898  0.1123 -0.0832 -0.5259
12115SOL     OW48323   8.047   6.343   0.445  0.2714  0.0421 -0.5884
12115SOL    HW148324   8.037   6.293   0.364  0.0820 -0.2668 -0.3771
12115SOL    HW248325   8.024   6.433   0.421 -0.3472 -0.1561 -0.7439
12116SOL     OW48326   8.251   2.040   2.933  0.5535 -0.4466  0.4024
12116SOL    HW148327   8.168   2.077   2.904  0.0872 -1.6119  0.2248
12116SOL    HW248328   8.286   1.995   2.856  0.5616 -1.3430  0.9201
12117SOL     OW48329   1.566   6.643   7.137  0.2320 -0.4710  0.2908
12117SOL    HW148330   1.643   6.698   7.124  1.2504 -1.8237  0.2978
12117SOL    HW248331   1.501   6.700   7.178  1.6391  0.4011  1.3749
12118SOL     OW48332  10.539   5.974   4.880 -0.0365 -0.0927  0.4410
12118SOL    HW148333  10.614   5.989   4.938  1.5358  0.2603 -1.5552
12118SOL    HW248334  10.516   5.882   4.893  0.3464 -0.0473  1.5114
12119SOL     OW48335   7.086   7.047   6.261 -0.2919  0.3760 -0.5328
12119SOL    HW148336   7.048   6.974   6.310  0.7910 -0.7649 -1.3365
12119SOL    HW248337   7.018   7.072   6.198 -0.8518  0.4103  0.0705
12120SOL     OW48338  10.579   5.075   9.433  0.0175 -0.2479 -0.4851
12120SOL    HW148339  10.503   5.057   9.378 -0.6344  0.2696  0.2291
12120SOL    HW248340  10.597   4.991   9.477  0.4140 -0.6073 -1.3026
12121SOL     OW48341   8.235   8.464   8.942  0.4325  0.4977  0.0805
12121SOL    HW148342   8.301   8.519   8.982  1.2238 -0.3841  0.0315
12121SOL    HW248343   8.263   8.455   8.850  0.6767 -0.4749  0.2353
12122SOL     OW48344  11.966   9.669   9.023 -0.1411 -0.1819  0.2716
12122SOL    HW148345  12.038   9.609   9.005 -0.1707 -0.0807 -0.1767
12122SOL    HW248346  12.009   9.750   9.049 -0.0994 -0.2730  0.4908
12123SOL     OW48347   9.827   3.091   2.177  0.1220 -0.2506  0.2497
12123SOL    HW148348   9.910   3.049   2.156 -0.0211 -0.5527  0.2904
12123SOL    HW248349   9.837   3.181   2.145  0.1345 -0.5336 -0.5785
12124SOL     OW48350  11.895  10.558  12.912  0.2687  0.7069 -0.4290
12124SOL    HW148351  11.966  10.590  12.968  0.6157 -0.1474 -0.3520
12124SOL    HW248352  11.819  10.611  12.935  0.5057  0.6189  0.5880
12125SOL     OW48353  10.948   8.640  11.644  0.0370  0.4546 -0.1430
12125SOL    HW148354  11.027   8.640  11.698  0.2006 -1.5755 -0.2944
12125SOL    HW248355  10.980   8.631  11.554 -0.3222 -0.6920 -0.1839
12126SOL     OW48356   8.861  11.342  10.057  0.7380 -0.3794 -0.2734
12126SOL    HW148357   8.809  11.385  10.126  3.0354  0.2604  1.1809
12126SOL    HW248358   8.857  11.249  10.080  0.3192 -0.3364 -0.1464
12127SOL     OW48359   1.853   1.238   8.847 -0.1395  0.0218 -0.2351
12127SOL    HW148360   1.762   1.267   8.842 -1.3132 -3.2466 -0.6000
12127SOL    HW248361   1.892   1.294   8.914 -3.0032  0.2730  1.4195
12128SOL     OW48362   5.562   9.234   9.172  0.2683 -0.2467 -0.1299
12128SOL    HW148363   5.499   9.290   9.216  0.1952  0.0938 -0.6576
12128SOL    HW248364   5.644   9.247   9.220  0.3164  0.5199 -0.4060
12129SOL     OW48365   7.258   4.473   5.218  0.3316  0.0810 -0.4939
12129SOL    HW148366   7.344   4.467   5.261  0.7271  1.3721 -1.0583
12129SOL    HW248367   7.203   4.411   5.266  1.4714 -0.4872  0.1267
12130SOL     OW48368   0.197   2.671   2.896  0.8098 -0.0617 -0.3031
12130SOL    HW148369   0.252   2.675   2.975  1.1910  1.1934 -0.6101
12130SOL    HW248370   0.259   2.678   2.823  0.2849  1.2096 -0.6613
12131SOL     OW48371   6.767  11.505   0.453  0.2067 -0.1927 -0.2310
12131SOL    HW148372   6.855  11.497   0.489 -0.1213 -2.0119  0.2705
12131SOL    HW248373   6.762  11.438   0.385 -0.6292  0.2716 -0.6539
12132SOL     OW48374   2.243   7.451  11.447 -0.0652  0.0399 -0.1300
12132SOL    HW148375   2.173   7.418  11.504  0.8806  0.6680  1.4707
12132SOL    HW248376   2.259   7.540  11.478  1.9132 -0.3212  0.0721
12133SOL     OW48377  11.407   0.286   8.871 -0.0682  0.0927 -0.6426
12133SOL    HW148378  11.324   0.263   8.913  1.1906 -0.9914  1.3960
12133SOL    HW248379  11.449   0.347   8.931 -0.7238  3.4191 -3.2125
12134SOL     OW48380   8.972  12.487   4.659 -0.2439 -0.1326 -0.1389
12134SOL    HW148381   9.007  12.504   4.746 -0.2142  1.9523 -0.4897
12134SOL    HW248382   8.879  12.509   4.665  0.0937  1.8356 -0.9876
12135SOL     OW48383   1.008   5.653  11.476 -0.5984  0.8828 -0.4481
12135SOL    HW148384   0.949   5.725  11.455 -4.8069 -1.6999  1.1582
12135SOL    HW248385   0.976   5.580  11.423  0.9611 -0.7729  0.7639
12136SOL     OW48386   3.297  13.616   0.524 -0.1870  0.2136 -0.4511
12136SOL    HW148387   3.280  13.701   0.483 -1.2248  0.6000  0.7161
12136SOL    HW248388   3.368  13.633   0.586  0.1057  0.0466 -0.7341
12137SOL     OW48389  10.880   2.740   6.637 -0.3718 -0.8020 -0.4923
12137SOL    HW148390  10.964   2.755   6.680 -0.5174 -1.3676  0.0137
12137SOL    HW248391  10.836   2.675   6.693 -0.5096 -1.6653 -1.5655
12138SOL     OW48392  13.978   3.764   5.848 -0.9340  0.1691 -0.5671
12138SOL    HW148393  13.931   3.726   5.923  0.3982  0.1271  0.2837
12138SOL    HW248394  13.940   3.721   5.772 -2.7041  0.6022  0.0291
12139SOL     OW48395   4.435   6.888   9.642 -0.2054  0.2035 -0.1723
12139SOL    HW148396   4.436   6.983   9.650  0.0242  0.1301  0.7460
12139SOL    HW248397   4.441   6.872   9.547 -1.7502  1.1138 -0.4555
12140SOL     OW48398   6.804  10.142   3.656 -0.2610 -0.2775  0.2625
12140SOL    HW148399   6.885  10.186   3.683 -0.2216  0.0253 -0.3293
12140SOL    HW248400   6.832  10.064   3.610 -0.3381 -1.2262  1.7692
12141SOL     OW48401   1.295   5.435   4.364  0.3349 -0.3211  0.2076
12141SOL    HW148402   1.380   5.459   4.327  0.4668 -2.3362 -0.9253
12141SOL    HW248403   1.303   5.457   4.457  2.8426 -2.2052  0.5394
12142SOL     OW48404   0.858  10.113  10.169 -0.4381 -0.0381  0.1152
12142SOL    HW148405   0.893  10.148  10.087  1.6410  2.3416  1.8590
12142SOL    HW248406   0.872  10.183  10.232 -2.3154 -1.6387  2.4511
12143SOL     OW48407   0.364   8.160   2.035 -0.6681 -0.0751 -0.3496
12143SOL    HW148408   0.328   8.231   1.982 -1.6917 -1.4219 -1.5161
12143SOL    HW248409   0.386   8.091   1.973  1.1281 -0.4791  0.6701
12144SOL     OW48410   7.792   0.918   7.119  0.6174 -0.4185  0.0765
12144SOL    HW148411   7.874   0.950   7.156  0.1030  0.3689  0.5580
12144SOL    HW248412   7.781   0.831   7.157 -0.0825  0.5065  2.1569
12145SOL     OW48413  10.564   2.251  10.923 -0.4793  0.3904  0.0933
12145SOL    HW148414  10.643   2.302  10.940 -0.8893  1.3304 -0.7224
12145SOL    HW248415  10.492   2.309  10.949 -0.9093 -0.4476  0.8147
12146SOL     OW48416   4.773  13.439   0.947  0.1647 -0.4254  0.3647
12146SOL    HW148417   4.725  13.357   0.935 -2.3611  1.2490 -2.2732
12146SOL    HW248418   4.729  13.482   1.020  0.0505 -0.5200  0.3527
12147SOL     OW48419  10.112   8.320  12.348 -0.6330 -0.4350 -0.0697
12147SOL    HW148420  10.178   8.277  12.403  0.0417  0.4009 -0.2028
12147SOL    HW248421  10.120   8.413  12.369 -1.9112 -0.3312  0.0371
12148SOL     OW48422   2.799  13.961   6.809  0.2565  0.2446 -0.0652
12148SOL    HW148423   2.858  14.032   6.835  2.1193 -1.4385  0.6066
12148SOL    HW248424   2.766  13.926   6.892 -1.2043  0.7434 -0.4151
12149SOL     OW48425   8.841  10.071   2.572  0.4201  0.5412 -0.4644
12149SOL    HW148426   8.778  10.139   2.594  0.6598  0.9444 -0.9919
12149SOL    HW248427   8.788   9.995   2.550  0.1635  0.3868  0.6654
12150SOL     OW48428   5.491   5.487   7.149 -0.0344 -0.0904 -0.4317
12150SOL    HW148429   5.575   5.496   7.194 -1.1310  0.1578  1.6703
12150SOL    HW248430   5.477   5.571   7.106  0.0231  0.4856  0.6448
12151SOL     OW48431   8.929   4.461   3.295  0.7287  0.5926 -0.4626
12151SOL    HW148432   8.853   4.519   3.297  1.3720  1.4383  1.0957
12151SOL    HW248433   8.980   4.492   3.220 -0.6231 -0.2604 -1.7920
12152SOL     OW48434   9.562   1.747   5.238  0.0495 -0.5096  0.1700
12152SOL    HW148435   9.572   1.842   5.246  1.9367 -0.7324  0.8905
12152SOL    HW248436   9.499   1.736   5.167  1.0950  1.2672 -1.1221
12153SOL     OW48437  12.048   7.514   2.783 -0.1685  0.5023 -0.6966
12153SOL    HW148438  12.119   7.526   2.720 -0.6020  0.8019 -1.1375
12153SOL    HW248439  12.088   7.528   2.869  0.3292  0.5281 -0.9325
12154SOL     OW48440   3.645   8.430   1.212 -0.3937  0.2249 -0.0616
12154SOL    HW148441   3.636   8.400   1.121 -0.5469  2.7565 -0.9402
12154SOL    HW248442   3.665   8.523   1.205  0.1624  0.3591  2.5173
12155SOL     OW48443   0.493  13.630   7.394  0.2224  0.3679 -0.4454
12155SOL    HW148444   0.585  13.651   7.412  0.7275 -2.1449  0.3344
12155SOL    HW248445   0.497  13.574   7.317 -0.5927 -0.1998 -0.0818
12156SOL     OW48446   8.167   5.557   1.045 -0.0110  0.0707 -0.4498
12156SOL    HW148447   8.180   5.475   1.093  0.0501 -0.2168 -0.9529
12156SOL    HW248448   8.240   5.562   0.984 -0.4374  0.1065 -0.9693
12157SOL     OW48449  12.502   9.463   9.353 -0.2033 -0.5807 -0.5004
12157SOL    HW148450  12.548   9.385   9.324 -1.0063 -1.7750  1.2505
12157SOL    HW248451  12.515   9.465   9.448 -1.6693  0.4143 -0.2834
12158SOL     OW48452  12.743   0.519  12.131 -0.0474 -0.1240 -0.0323
12158SOL    HW148453  12.821   0.530  12.186  0.6642 -2.0697 -0.5848
12158SOL    HW248454  12.725   0.607  12.098  0.4165  0.8304  2.0516
12159SOL     OW48455  12.279   3.130   8.078 -0.5449  0.4380  0.5982
12159SOL    HW148456  12.278   3.196   8.008 -0.7291  1.3682  1.4595
12159SOL    HW248457  12.187   3.119   8.101 -0.3963  1.0064  1.4902
12160SOL     OW48458  13.625   5.558   5.696 -0.0726  0.9282  0.2693
12160SOL    HW148459  13.567   5.515   5.759 -0.6108 -0.8899 -1.3647
12160SOL    HW248460  13.703   5.504   5.694  0.4447  1.6593  0.2396
12161SOL     OW48461  12.944  12.252  13.550 -0.3699  0.2730 -0.1006
12161SOL    HW148462  12.885  12.248  13.625  0.7758 -1.0249  0.7787
12161SOL    HW248463  13.008  12.320  13.573 -0.4169  0.3513 -0.2014
12162SOL     OW48464   2.803   3.226  11.108 -0.4556  0.1459  0.4907
12162SOL    HW148465   2.730   3.201  11.052 -0.8778 -0.3101  1.2401
12162SOL    HW248466   2.807   3.158  11.175 -0.4582  1.1009  1.4813
12163SOL     OW48467   8.023   1.598   6.277 -0.4714 -0.6350 -0.1977
12163SOL    HW148468   8.065   1.515   6.299  2.3380  0.8460  0.5691
12163SOL    HW248469   8.008   1.594   6.182  1.6080 -1.2480 -0.5470
12164SOL     OW48470   7.446   2.128   3.824  0.9145  0.2517  0.3383
12164SOL    HW148471   7.460   2.200   3.886  0.3104 -0.1599  0.9666
12164SOL    HW248472   7.384   2.071   3.868  2.3029 -1.3029  0.3898
12165SOL     OW48473   5.721   6.333  11.325  0.0815 -0.3252 -0.3966
12165SOL    HW148474   5.747   6.357  11.414  0.8278 -0.0305 -0.6885
12165SOL    HW248475   5.635   6.292  11.336 -0.1152  0.2684  0.3871
12166SOL     OW48476  13.490   0.117  13.693  0.3357  0.0278  0.1636
12166SOL    HW148477  13.463   0.096  13.603  2.1130  2.6588 -1.0998
12166SOL    HW248478  13.409   0.144  13.736 -0.4028 -0.3358 -0.9421
12167SOL     OW48479   4.774   9.064  10.608 -0.1905  0.4548  0.4160
12167SOL    HW148480   4.787   9.059  10.702  1.0774  2.1465  0.3810
12167SOL    HW248481   4.815   9.147  10.582 -1.2327  0.4332 -1.5053
12168SOL     OW48482   1.266   1.682   4.771  0.0711  0.7226 -0.2072
12168SOL    HW148483   1.222   1.759   4.736  1.7177  2.2648  0.9359
12168SOL    HW248484   1.304   1.639   4.694 -1.6534  0.4705 -0.9591
12169SOL     OW48485  12.142   2.186   1.822 -0.0922  0.0044  0.6760
12169SOL    HW148486  12.217   2.244   1.808 -0.8431  0.7626 -0.3397
12169SOL    HW248487  12.075   2.218   1.762 -1.1627 -0.8016  1.3993
12170SOL     OW48488   5.904   1.257   0.257 -0.2014 -0.1966 -0.1683
12170SOL    HW148489   5.928   1.329   0.314 -1.0497 -0.1475  0.1357
12170SOL    HW248490   5.910   1.179   0.312 -1.0682 -0.1436  0.0182
12171SOL     OW48491   6.550  13.382   2.068  0.1857 -0.0871 -0.3652
12171SOL    HW148492   6.462  13.420   2.066  0.1717 -0.1529 -1.2383
12171SOL    HW248493   6.586  13.400   1.982  1.0248 -0.0862 -0.0162
12172SOL     OW48494   5.976   7.346   3.356  0.2082 -0.8462  0.0601
12172SOL    HW148495   5.973   7.422   3.298  1.7769 -1.6675 -1.1596
12172SOL    HW248496   6.044   7.368   3.420 -1.2388 -0.1119  1.4018
12173SOL     OW48497   6.315   8.718   9.858  0.2325  0.0671 -0.0855
12173SOL    HW148498   6.289   8.655   9.925 -0.2279  1.5181  1.1585
12173SOL    HW248499   6.383   8.771   9.900 -2.0652  2.9053  0.4069
12174SOL     OW48500   6.997   6.254   8.150  0.3279 -0.1486 -0.0026
12174SOL    HW148501   6.915   6.279   8.108 -0.4172  1.0898  2.0477
12174SOL    HW248502   6.974   6.181   8.207 -0.3036  2.4395  3.3446
12175SOL     OW48503  13.450   6.498   2.323  0.1633 -0.4701  0.4634
12175SOL    HW148504  13.494   6.582   2.335 -0.9157  0.1968 -0.0820
12175SOL    HW248505  13.511   6.447   2.270 -0.6516  1.3132 -2.4337
12176SOL     OW48506   1.742   7.039  13.276  0.2743  0.3674  0.0446
12176SOL    HW148507   1.708   7.086  13.200 -1.4704 -0.4465  0.2971
12176SOL    HW248508   1.734   6.947  13.254 -0.7331  0.0986  1.3784
12177SOL     OW48509   5.244   5.345   8.082  0.0844  0.1097  0.0281
12177SOL    HW148510   5.189   5.289   8.137 -0.0785 -0.4770 -0.7257
12177SOL    HW248511   5.332   5.309   8.093 -0.2635 -1.4557 -1.8293
12178SOL     OW48512  10.775  11.827   9.128  0.0139  0.3926 -0.4749
12178SOL    HW148513  10.701  11.807   9.186  0.2597 -2.6680 -1.0184
12178SOL    HW248514  10.843  11.860   9.186 -0.9513  0.8486  0.4201
12179SOL     OW48515   4.550   5.131   9.962 -0.2378  0.1079 -0.1068
12179SOL    HW148516   4.609   5.057   9.975  0.0069 -0.0918 -2.0772
12179SOL    HW248517   4.500   5.109   9.884 -0.7977  1.6256 -0.2184
12180SOL     OW48518   5.872   2.360   7.741 -0.6706  0.4234 -0.1568
12180SOL    HW148519   5.912   2.420   7.678 -0.2239  2.0800  1.6100
12180SOL    HW248520   5.946   2.325   7.791 -1.1612  1.1520  1.1222
12181SOL     OW48521   0.030   1.454   7.248  0.0233 -0.0177  0.0020
12181SOL    HW148522  -0.001   1.542   7.267 -1.4864 -0.7400  1.2062
12181SOL    HW248523   0.088   1.432   7.321  3.1055  1.1018 -1.9439
12182SOL     OW48524   5.107   3.133  10.379 -0.7861  0.0707  0.4262
12182SOL    HW148525   5.192   3.172  10.360 -0.9150  0.1427 -0.0159
12182SOL    HW248526   5.079   3.176  10.460 -0.5774  0.3297  0.3634
12183SOL     OW48527   8.548   1.930   7.671  0.7173 -0.2457 -0.3073
12183SOL    HW148528   8.555   1.970   7.758 -0.9340 -1.6447  0.5308
12183SOL    HW248529   8.457   1.944   7.646  1.0443 -0.3433 -1.5951
12184SOL     OW48530   7.041  13.683   3.830  0.1137 -0.3847 -0.0482
12184SOL    HW148531   7.100  13.705   3.757  1.5084  2.3419  1.7434
12184SOL    HW248532   7.099  13.654   3.900 -0.9056  0.0278  0.9883
12185SOL     OW48533   8.060   7.239   9.459 -0.1070 -0.2376  0.4301
12185SOL    HW148534   8.143   7.286   9.450 -0.4604  1.5143  4.2533
12185SOL    HW248535   8.079   7.170   9.523 -1.5966  0.5048  1.7550
12186SOL     OW48536  12.575  11.120   8.093  0.1168  0.8008  0.1252
12186SOL    HW148537  12.608  11.123   8.183 -0.4943 -1.3001  0.4865
12186SOL    HW248538  12.642  11.070   8.045 -0.1245  0.8930 -0.3081
12187SOL     OW48539  13.693  12.854   8.210  0.0033 -0.1895 -0.1299
12187SOL    HW148540  13.736  12.840   8.295  1.0746  0.1492 -0.6015
12187SOL    HW248541  13.763  12.842   8.146 -0.6504  0.2263 -0.9295
12188SOL     OW48542   0.211   2.156   1.992  0.6576 -0.0335 -0.7709
12188SOL    HW148543   0.247   2.204   2.066 -0.2353  0.3594 -0.5818
12188SOL    HW248544   0.150   2.216   1.951  1.0593 -0.2877 -1.7739
12189SOL     OW48545   3.651   4.256  11.463  0.1634 -0.0554  0.2237
12189SOL    HW148546   3.738   4.234  11.496  0.0866 -1.3595 -0.3741
12189SOL    HW248547   3.663   4.265  11.368 -0.5811 -1.5999 -0.0469
12190SOL     OW48548   4.667   6.644   7.443 -0.1575 -0.3505 -0.3395
12190SOL    HW148549   4.617   6.660   7.364  0.0632  0.9617 -0.2370
12190SOL    HW248550   4.757   6.669   7.420  0.0047 -0.4462  0.1691
12191SOL     OW48551   4.570   8.946   3.009  0.0732  0.0414 -0.0731
12191SOL    HW148552   4.664   8.936   3.017  0.1841 -0.0505 -1.2893
12191SOL    HW248553   4.549   9.022   3.064  0.8323 -0.0110  0.2955
12192SOL     OW48554  12.518   0.798   3.684 -0.6432  0.4882 -0.2097
12192SOL    HW148555  12.509   0.707   3.713 -0.4839  0.5903  0.1687
12192SOL    HW248556  12.565   0.792   3.601  0.4771  0.2950  0.4117
12193SOL     OW48557   5.454   5.895  12.939  0.0726 -0.1474  0.1406
12193SOL    HW148558   5.505   5.975  12.926  0.6676 -0.3171  1.3073
12193SOL    HW248559   5.365   5.927  12.957  0.3231  0.2719  0.6935
12194SOL     OW48560   2.171   8.597   6.699  0.0732  0.4404 -0.1689
12194SOL    HW148561   2.080   8.568   6.695  0.2901 -0.1805 -0.6860
12194SOL    HW248562   2.173   8.677   6.647  0.3520 -1.0058 -2.5584
12195SOL     OW48563   7.451  13.190   0.201 -0.3513  0.1883  0.3019
12195SOL    HW148564   7.410  13.109   0.172 -1.0133  0.7740 -0.4683
12195SOL    HW248565   7.464  13.240   0.120  0.8558  0.4937  0.6543
12196SOL     OW48566   1.500  10.502  10.749  0.3154  0.3708  0.0653
12196SOL    HW148567   1.577  10.448  10.730  0.1119 -0.9014  2.4826
12196SOL    HW248568   1.448  10.497  10.669  0.9318 -1.9949 -0.2693
12197SOL     OW48569  13.750   2.262   2.490 -0.0657  0.0303 -0.2040
12197SOL    HW148570  13.722   2.176   2.523  0.3047 -0.2272 -0.5436
12197SOL    HW248571  13.802   2.299   2.562 -0.0790 -0.1055 -0.1245
12198SOL     OW48572   1.128   1.225   5.014  0.8851  0.4215  0.5994
12198SOL    HW148573   1.205   1.272   4.982 -0.1353  2.3568  0.7991
12198SOL    HW248574   1.072   1.294   5.051 -0.8579 -0.9418  0.6285
12199SOL     OW48575   7.930   2.278   3.124  0.7430  0.0966 -0.5919
12199SOL    HW148576   8.026   2.285   3.124  0.7213  1.3966 -2.7688
12199SOL    HW248577   7.899   2.368   3.134 -0.3740 -0.5363  2.6865
12200SOL     OW48578   7.765  10.444   0.053 -0.0712 -0.0546 -0.5026
12200SOL    HW148579   7.741  10.358   0.088 -0.4100 -0.2207 -1.1357
12200SOL    HW248580   7.692  10.469  -0.003  0.3284  0.3541 -0.8513
12201SOL     OW48581   1.472  10.572   1.327 -0.1142  0.3230 -0.3531
12201SOL    HW148582   1.459  10.667   1.331  0.8790  0.6872 -3.1954
12201SOL    HW248583   1.513  10.558   1.242  1.9320 -2.4513  0.9708
12202SOL     OW48584   4.155   1.853   3.429 -0.0315  0.1817 -0.1433
12202SOL    HW148585   4.091   1.883   3.365  0.9444  2.0391 -0.3316
12202SOL    HW248586   4.194   1.934   3.463  0.8024 -0.8257  1.4228
12203SOL     OW48587   1.596   7.409   7.376  0.9353 -0.7035 -0.2348
12203SOL    HW148588   1.578   7.384   7.286 -0.0334 -1.6523  0.2076
12203SOL    HW248589   1.603   7.327   7.424 -0.9745 -0.2186  0.9986
12204SOL     OW48590   9.326   4.002   7.962  0.2999  0.8078  0.0982
12204SOL    HW148591   9.354   3.994   7.871 -0.5394  1.1287 -0.1999
12204SOL    HW248592   9.391   4.060   8.002  1.1368  0.0048 -0.0757
12205SOL     OW48593  10.905   3.381  11.639 -0.0201  0.4670 -0.4646
12205SOL    HW148594  10.974   3.330  11.597  1.9831  2.2089  0.5135
12205SOL    HW248595  10.906   3.352  11.730 -0.5241  0.5437 -0.4351
12206SOL     OW48596   9.351   2.829  11.717  0.4149 -0.3492  0.0255
12206SOL    HW148597   9.401   2.775  11.656  0.1276  0.5391 -1.0400
12206SOL    HW248598   9.260   2.801  11.704  0.0921  1.1897 -1.4801
12207SOL     OW48599  13.747   4.179   8.354 -0.6579  0.9639  0.4520
12207SOL    HW148600  13.714   4.134   8.432 -0.1038  0.7446  0.5648
12207SOL    HW248601  13.787   4.259   8.388  2.3564 -0.5563  0.7928
12208SOL     OW48602   7.843  10.692   3.182  0.0135 -0.9020 -0.5054
12208SOL    HW148603   7.799  10.774   3.161  1.6176 -0.1686 -1.1669
12208SOL    HW248604   7.900  10.714   3.256  0.7231 -1.3202 -0.9189
12209SOL     OW48605   4.386   6.726   0.923  0.4389 -0.1593 -0.1177
12209SOL    HW148606   4.386   6.822   0.928  1.0281 -0.0259 -1.9235
12209SOL    HW248607   4.466   6.704   0.876  0.9923 -1.6629  1.4232
12210SOL     OW48608   7.211   4.514   2.359  0.0551 -0.0956 -0.5347
12210SOL    HW148609   7.211   4.609   2.357 -0.9460 -0.0892 -2.3899
12210SOL    HW248610   7.304   4.490   2.359  0.3135  0.8751 -0.4645
12211SOL     OW48611   2.951   1.384   6.301  0.4785  0.5728  0.7654
12211SOL    HW148612   2.916   1.339   6.378  1.4748  0.9831  1.4760
12211SOL    HW248613   2.963   1.315   6.236 -1.7578  0.4236  0.4164
12212SOL     OW48614   2.717   6.160   0.998 -0.2754  0.0570 -0.8252
12212SOL    HW148615   2.623   6.180   1.002 -0.2807 -0.1313  0.3808
12212SOL    HW248616   2.727   6.080   1.049  0.4506 -0.3065 -1.5214
12213SOL     OW48617   6.619   8.416  11.341 -0.1821  0.2596  0.5708
12213SOL    HW148618   6.689   8.465  11.298 -0.6026  0.5751  0.2223
12213SOL    HW248619   6.605   8.340  11.285 -0.1250  0.2064  0.6299
12214SOL     OW48620   6.955   3.539  13.830 -0.0689 -0.5539 -0.6915
12214SOL    HW148621   6.890   3.565  13.895  0.1742 -0.5079 -0.4630
12214SOL    HW248622   6.993   3.458  13.864  0.5225 -0.1792 -0.4391
12215SOL     OW48623   4.025   6.128  10.618  0.8750  0.3884 -0.5996
12215SOL    HW148624   3.930   6.119  10.605  1.0233 -0.5073 -1.1434
12215SOL    HW248625   4.049   6.050  10.667  1.4050  0.3775 -0.8763
12216SOL     OW48626  10.870   0.650  11.088  0.1158 -0.1648 -0.5411
12216SOL    HW148627  10.846   0.724  11.031 -0.1052 -0.3333 -0.6666
12216SOL    HW248628  10.965   0.657  11.096 -0.0293  0.8454  0.4406
12217SOL     OW48629   4.403   8.897   4.825  0.0924  0.4600  0.1457
12217SOL    HW148630   4.432   8.975   4.777  1.1152 -0.1747 -0.2925
12217SOL    HW248631   4.385   8.832   4.757 -1.1550  0.4273  0.4838
12218SOL     OW48632   8.420   5.534   0.920 -0.1312 -0.3534  0.1761
12218SOL    HW148633   8.456   5.622   0.929  0.6806 -0.6010 -0.5142
12218SOL    HW248634   8.473   5.480   0.979  0.0260 -0.5514 -0.1434
12219SOL     OW48635   6.869   9.038   3.799  0.4244  0.1643 -0.1072
12219SOL    HW148636   6.831   9.091   3.869 -1.1511  0.4527 -1.1197
12219SOL    HW248637   6.884   9.100   3.728  0.4388 -0.3976 -0.6022
12220SOL     OW48638  11.202   3.770   9.714 -0.3351 -0.5504  0.0708
12220SOL    HW148639  11.139   3.736   9.779 -0.6994  0.8684  0.5055
12220SOL    HW248640  11.153   3.770   9.632 -0.9445  0.5569  0.4073
12221SOL     OW48641   3.947   1.634   8.430 -0.3514 -0.0054  0.7482
12221SOL    HW148642   3.947   1.551   8.478 -0.6702  0.4421  1.5326
12221SOL    HW248643   3.900   1.695   8.487 -1.7522  0.2646 -0.6415
12222SOL     OW48644  10.593  13.865   7.982 -0.6336 -0.1201 -0.4979
12222SOL    HW148645  10.651  13.829   8.050 -1.7946 -2.1160 -0.5172
12222SOL    HW248646  10.651  13.880   7.907  0.2341 -0.1229  0.1547
12223SOL     OW48647  11.719   1.179   8.079  0.2966 -0.5708  0.5322
12223SOL    HW148648  11.739   1.256   8.026 -1.1037 -1.2480 -1.1106
12223SOL    HW248649  11.629   1.194   8.109  1.1231 -0.1153  2.9768
12224SOL     OW48650   1.466   8.475   1.917  0.2405 -0.4069 -0.4003
12224SOL    HW148651   1.553   8.506   1.889  0.1344  0.5605  0.2906
12224SOL    HW248652   1.442   8.534   1.989 -0.0040 -2.0822  0.9434
12225SOL     OW48653   7.611   2.169  12.975 -0.6045  0.2481 -0.1562
12225SOL    HW148654   7.639   2.165  13.066 -2.3960 -0.1985  0.4198
12225SOL    HW248655   7.690   2.152  12.924  1.1792  3.6950  1.1548
12226SOL     OW48656   0.473   7.522   2.463 -0.5038  0.1784  0.4069
12226SOL    HW148657   0.554   7.474   2.444 -0.6103 -0.2051  0.9061
12226SOL    HW248658   0.467   7.587   2.393 -0.0869 -0.1994  0.0132
12227SOL     OW48659   1.222   9.549  11.381 -0.3794 -0.0262 -0.0794
12227SOL    HW148660   1.187   9.568  11.468  0.6120 -1.4960  0.6823
12227SOL    HW248661   1.261   9.632  11.353  0.1417  0.2246  1.3018
12228SOL     OW48662   7.113   0.292  13.163 -0.0305  0.2385  0.6396
12228SOL    HW148663   7.027   0.294  13.121  0.7115  0.3969 -0.9329
12228SOL    HW248664   7.098   0.333  13.249 -1.1082  2.2188 -0.4176
12229SOL     OW48665  12.744   3.147   5.065  0.4471  1.2470 -0.0135
12229SOL    HW148666  12.752   3.233   5.025 -2.4701  1.4850 -0.2780
12229SOL    HW248667  12.685   3.160   5.139  0.1069 -0.4860  0.0649
12230SOL     OW48668  13.089   0.247   9.673  0.0480  0.1959 -0.2937
12230SOL    HW148669  13.008   0.256   9.723  1.0638  1.6350  1.2156
12230SOL    HW248670  13.126   0.164   9.702 -0.1202  0.2904  0.2036
12231SOL     OW48671   7.901   6.203  13.853 -0.3651 -0.3299  0.1753
12231SOL    HW148672   7.846   6.125  13.844 -1.6209  0.3720  1.4423
12231SOL    HW248673   7.860   6.268  13.795  0.4144 -0.4555 -0.5316
12232SOL     OW48674  12.183   2.251   9.416  0.4719  0.0775 -0.2209
12232SOL    HW148675  12.099   2.224   9.454 -0.0561  0.8130 -0.8443
12232SOL    HW248676  12.222   2.308   9.482  0.3637 -0.0659 -0.0329
12233SOL     OW48677   9.852   0.002   0.490 -0.8754 -0.1107 -0.2969
12233SOL    HW148678   9.911   0.065   0.531 -0.8173  0.0007 -0.5457
12233SOL    HW248679   9.770   0.011   0.538 -0.0333 -1.9320  1.6055
12234SOL     OW48680   2.818   7.865   1.961  0.0461 -0.0781  0.0757
12234SOL    HW148681   2.894   7.920   1.977  0.0737  0.2684 -1.1861
12234SOL    HW248682   2.747   7.908   2.008 -0.1807  1.7067 -1.7762
12235SOL     OW48683   9.183   0.662   5.603  0.2766  0.1519  0.0501
12235SOL    HW148684   9.123   0.662   5.677  0.3678  0.8914  0.1224
12235SOL    HW248685   9.252   0.601   5.629  0.6380  0.8825  0.8492
12236SOL     OW48686  10.912  10.760  12.853 -0.0949 -0.0622  0.3038
12236SOL    HW148687  10.902  10.686  12.914  1.7747 -0.5910  0.0458
12236SOL    HW248688  10.876  10.728  12.771  1.1891 -0.9290  0.0478
12237SOL     OW48689  13.077   6.811   5.979  0.1044 -0.1140  0.2299
12237SOL    HW148690  13.103   6.889   5.931 -1.6805  0.6400  0.4027
12237SOL    HW248691  13.077   6.839   6.071  0.3934 -0.5935  0.3751
12238SOL     OW48692   7.501  13.502  11.701 -0.1659 -0.2911 -0.2216
12238SOL    HW148693   7.594  13.479  11.704 -0.1534 -0.3554 -0.9409
12238SOL    HW248694   7.456  13.417  11.699 -0.2541 -0.2622  0.2597
12239SOL     OW48695   5.779   9.762  13.705  0.8411 -0.4095 -0.1338
12239SOL    HW148696   5.705   9.762  13.765  0.5873 -1.4109 -0.4159
12239SOL    HW248697   5.844   9.705  13.746  1.5412  0.5941  0.1950
12240SOL     OW48698  12.910   4.746   5.123  0.2911 -0.1987 -0.0036
12240SOL    HW148699  12.828   4.697   5.131 -0.6858  1.4582  0.5958
12240SOL    HW248700  12.925   4.752   5.028 -0.5110 -0.1731 -0.1345
12241SOL     OW48701   4.263  12.769   6.355  0.5252 -0.0024  0.0273
12241SOL    HW148702   4.326  12.735   6.292  0.3290  0.9318 -0.6991
12241SOL    HW248703   4.248  12.860   6.328 -0.5079  0.0435  0.6719
12242SOL     OW48704   8.039   2.248   3.849  0.8031 -0.5705  0.0504
12242SOL    HW148705   8.089   2.193   3.909 -0.2802 -1.6175  0.0166
12242SOL    HW248706   8.062   2.217   3.762  1.2085 -0.0646 -0.0290
12243SOL     OW48707   1.075   9.514   0.157  0.4395 -0.6344 -0.2587
12243SOL    HW148708   1.063   9.504   0.063 -0.8000  0.1649 -0.2062
12243SOL    HW248709   1.026   9.593   0.179  0.0632 -1.2434  1.1884
12244SOL     OW48710   3.854  13.797   9.274  0.4380  0.2389  0.5789
12244SOL    HW148711   3.888  13.887   9.267  0.3287  0.4534  2.3818
12244SOL    HW248712   3.819  13.792   9.362  0.2757 -1.5461  0.4370
12245SOL     OW48713   0.557  10.929  13.350 -0.1752  0.4689 -0.0831
12245SOL    HW148714   0.629  10.991  13.354 -1.2957  1.8632 -0.5361
12245SOL    HW248715   0.527  10.922  13.441  0.1339  0.3713  0.0108
12246SOL     OW48716  11.247   5.908   5.109 -0.4755 -0.4733 -0.4318
12246SOL    HW148717  11.303   5.986   5.108 -2.2702  0.8777  0.2097
12246SOL    HW248718  11.202   5.911   5.194 -0.2513 -2.4892 -0.1835
12247SOL     OW48719  13.123   6.757  10.247 -0.2156 -0.1672  0.2063
12247SOL    HW148720  13.109   6.703  10.325 -0.9459 -1.0136 -0.4901
12247SOL    HW248721  13.122   6.695  10.175 -1.6383  0.8115 -0.6711
12248SOL     OW48722   3.049   1.358   7.369  0.2387  0.5951 -0.3759
12248SOL    HW148723   3.053   1.367   7.464  0.1703 -0.7455 -0.2264
12248SOL    HW248724   3.115   1.292   7.348  0.0983  0.7086 -1.2347
12249SOL     OW48725  11.920   2.435   1.715  0.5644 -0.2803  1.1206
12249SOL    HW148726  11.960   2.471   1.794  0.8940 -0.5378  1.0720
12249SOL    HW248727  11.852   2.498   1.692  1.5744  0.6599  0.6418
12250SOL     OW48728  13.129   7.778   7.383 -0.6797  0.5956  0.5921
12250SOL    HW148729  13.189   7.718   7.428 -0.2555 -0.0547 -0.7811
12250SOL    HW248730  13.165   7.865   7.399 -0.7972  0.4207  1.8665
12251SOL     OW48731  11.682   3.029   4.473  0.5288 -0.0039  0.0474
12251SOL    HW148732  11.666   3.124   4.469 -0.4401 -0.1728 -0.1145
12251SOL    HW248733  11.613   2.991   4.419  1.8529 -0.7063 -1.2253
12252SOL     OW48734   8.726   9.082   2.174  0.0951  0.2933 -0.0316
12252SOL    HW148735   8.771   9.005   2.138 -0.3203  0.6692 -1.4233
12252SOL    HW248736   8.667   9.110   2.104  0.0549  1.7461  0.5526
12253SOL     OW48737   0.559  11.064   6.145 -0.3019  1.2714  0.0353
12253SOL    HW148738   0.603  11.020   6.218 -0.7315 -1.0949 -1.0179
12253SOL    HW248739   0.467  11.035   6.152 -0.6645  2.2316 -0.5730
12254SOL     OW48740   1.510  12.511  13.969 -0.3149  0.1966  0.0123
12254SOL    HW148741   1.547  12.595  13.995 -1.3663  0.2231  1.5498
12254SOL    HW248742   1.416  12.528  13.961 -0.4383 -0.6558 -0.4062
12255SOL     OW48743  10.869   1.194   0.793  0.6910  0.3773 -0.4305
12255SOL    HW148744  10.870   1.222   0.884 -0.3505  0.6796 -0.4942
12255SOL    HW248745  10.942   1.133   0.785  3.5581  3.5560 -0.4851
12256SOL     OW48746   4.548   0.602   6.876  0.6287  0.0587 -0.2846
12256SOL    HW148747   4.551   0.588   6.782 -0.0191 -0.8594 -0.1868
12256SOL    HW248748   4.531   0.696   6.886 -1.7474 -0.2039 -1.1668
12257SOL     OW48749   7.058  12.968  13.822 -0.0259 -0.0354  0.0940
12257SOL    HW148750   6.995  12.899  13.840  0.2418 -0.2585  0.1749
12257SOL    HW248751   7.069  12.966  13.727  0.8353 -0.8623  0.2013
12258SOL     OW48752  11.959   5.314   0.074 -0.2207 -0.4220 -0.0500
12258SOL    HW148753  11.974   5.269  -0.009 -0.4226  0.0333 -0.3370
12258SOL    HW248754  11.889   5.264   0.116  0.8622 -1.5241  0.5110
12259SOL     OW48755  11.083  11.836   8.055 -0.1497 -0.7079  0.0214
12259SOL    HW148756  11.173  11.858   8.033 -0.2776  0.2116  0.3712
12259SOL    HW248757  11.031  11.870   7.982 -0.3153 -0.1646  0.3840
12260SOL     OW48758  12.728  13.223   7.392 -0.4766  0.2815  0.2215
12260SOL    HW148759  12.647  13.266   7.420 -1.9586 -2.9241  1.4340
12260SOL    HW248760  12.773  13.201   7.474  0.9587  0.8052 -0.3998
12261SOL     OW48761  10.661   7.424  10.959 -0.3714 -0.1529  0.1767
12261SOL    HW148762  10.673   7.332  10.982  2.6939  0.3730  1.0466
12261SOL    HW248763  10.649   7.422  10.864 -0.9581 -1.4548  0.2404
12262SOL     OW48764   9.272   9.692   0.905  0.4373 -0.3974  0.1772
12262SOL    HW148765   9.343   9.651   0.857  2.0635  2.0290  0.2942
12262SOL    HW248766   9.310   9.774   0.937 -2.5159  1.1573 -0.0015
12263SOL     OW48767   0.534  12.504   5.563  0.0805 -0.1481 -0.1903
12263SOL    HW148768   0.620  12.496   5.522 -0.4935 -1.5497 -1.1937
12263SOL    HW248769   0.546  12.467   5.650  0.9602  1.5275  0.4429
12264SOL     OW48770   2.618   7.302  11.464 -0.1994 -0.1695  0.8806
12264SOL    HW148771   2.706   7.276  11.438 -0.3017  1.1431 -0.9239
12264SOL    HW248772   2.599   7.380  11.413 -3.3190 -1.7239 -0.6482
12265SOL     OW48773   9.172   3.180  13.972 -0.3849  0.3034 -0.7558
12265SOL    HW148774   9.131   3.198  13.888 -3.1077 -0.4701  0.3223
12265SOL    HW248775   9.137   3.096  13.999 -1.0597  1.3472  1.9535
12266SOL     OW48776   8.947  10.033   5.026  0.2543 -0.5894  0.1459
12266SOL    HW148777   8.931   9.941   5.046  1.1785 -0.6556  0.6587
12266SOL    HW248778   9.033  10.051   5.065  0.1148  0.4689 -0.0058
12267SOL     OW48779   7.108   1.028   6.193 -0.5116  0.0780  0.4128
12267SOL    HW148780   7.047   1.097   6.168  0.4303  1.5242  1.9557
12267SOL    HW248781   7.059   0.974   6.255 -0.7040  0.3569  0.5033
12268SOL     OW48782   3.002   4.801   8.063 -0.3925  0.3431  0.3701
12268SOL    HW148783   3.046   4.871   8.015 -0.0765  1.2808  1.9258
12268SOL    HW248784   2.911   4.829   8.068 -0.8766 -0.7907 -1.4377
12269SOL     OW48785   0.541   3.080   0.927 -0.4828  0.2100  0.1565
12269SOL    HW148786   0.530   3.008   0.989  0.2291  1.3951  1.7400
12269SOL    HW248787   0.634   3.104   0.933 -0.5788  0.8913 -0.7659
12270SOL     OW48788   8.973   6.766   0.401  0.2206 -0.2633  0.2934
12270SOL    HW148789   9.004   6.765   0.492 -0.4828  1.2225  0.5885
12270SOL    HW248790   8.886   6.808   0.406 -0.4345 -1.4171 -0.8933
12271SOL     OW48791   9.432  13.590   4.233  0.0389  0.0624 -0.0781
12271SOL    HW148792   9.360  13.651   4.246 -0.5398 -0.5597 -0.3172
12271SOL    HW248793   9.491  13.635   4.171 -0.3756  0.3783 -0.2466
12272SOL     OW48794   1.099   5.340   8.035 -0.1713 -0.6503 -1.0173
12272SOL    HW148795   1.158   5.337   7.959 -1.1760 -0.0390 -1.8415
12272SOL    HW248796   1.086   5.433   8.051 -1.4160 -0.7702 -1.2564
12273SOL     OW48797   2.445   4.198   8.386 -0.4864 -0.2113 -0.3788
12273SOL    HW148798   2.502   4.263   8.345  0.3739  0.5985  1.9072
12273SOL    HW248799   2.467   4.202   8.479 -2.9114 -1.2923  0.3412
12274SOL     OW48800   8.366   5.264   9.173  0.3808  0.2705 -0.4444
12274SOL    HW148801   8.460   5.255   9.156  0.2724  0.0413 -0.9396
12274SOL    HW248802   8.341   5.180   9.210  0.0992 -0.1991 -1.6369
12275SOL     OW48803   3.327  11.184   9.405  0.4692 -0.6089 -0.2791
12275SOL    HW148804   3.346  11.119   9.337 -0.0103 -1.3334  0.2737
12275SOL    HW248805   3.252  11.233   9.371  0.0195 -1.1866 -0.1349
12276SOL     OW48806   7.205   4.815  13.855 -0.1161 -0.1770 -0.0536
12276SOL    HW148807   7.272   4.838  13.791 -0.6332  1.2357 -0.1309
12276SOL    HW248808   7.188   4.896  13.902 -2.0411 -0.3676 -0.3169
12277SOL     OW48809  13.791   8.556  12.774 -0.2630 -0.0684  0.2412
12277SOL    HW148810  13.837   8.557  12.690 -0.5814  0.0575  0.0657
12277SOL    HW248811  13.821   8.475  12.817  0.8830  0.5100  0.5649
12278SOL     OW48812  11.731   5.502   3.209 -0.1833  0.1353  0.5463
12278SOL    HW148813  11.730   5.528   3.301  1.2003 -0.6487  0.8007
12278SOL    HW248814  11.780   5.420   3.207 -1.1062 -0.4164 -0.7596
12279SOL     OW48815   2.018   5.303   2.710  0.3436  0.1155  0.0657
12279SOL    HW148816   2.098   5.344   2.678 -0.6335  1.4322 -0.7911
12279SOL    HW248817   1.952   5.326   2.645 -0.8412 -0.5276  1.0063
12280SOL     OW48818  11.052   8.313  11.957 -0.0247 -0.3317 -0.3048
12280SOL    HW148819  11.043   8.218  11.945 -2.0064 -0.1640 -0.3552
12280SOL    HW248820  11.147   8.326  11.967  0.3094 -2.2836 -0.4497
12281SOL     OW48821   7.277   2.061   4.666  0.5960  0.3244  0.1018
12281SOL    HW148822   7.202   2.018   4.707  0.8737  0.1754  0.4514
12281SOL    HW248823   7.243   2.146   4.637  0.0519 -0.1120 -0.5752
12282SOL     OW48824   4.864   3.248  10.882 -0.3725 -0.2742 -0.1453
12282SOL    HW148825   4.781   3.200  10.881 -0.6853  0.1871  1.1740
12282SOL    HW248826   4.882   3.262  10.975  1.7118 -1.2256 -0.3451
12283SOL     OW48827   6.815   1.252   4.249  0.3249 -0.6802 -0.7676
12283SOL    HW148828   6.722   1.267   4.267  0.2709  1.1734 -2.3419
12283SOL    HW248829   6.829   1.290   4.162  2.3666 -1.7410 -0.9433
12284SOL     OW48830  13.371  12.462   7.752 -0.4083  0.0329 -0.3970
12284SOL    HW148831  13.353  12.550   7.785  1.0673  0.3326 -0.3032
12284SOL    HW248832  13.308  12.406   7.796 -0.2399  0.8104  0.8649
12285SOL     OW48833   6.503   4.375   3.457  0.0565 -0.2430  0.0875
12285SOL    HW148834   6.444   4.335   3.521  2.0890 -3.3800  0.2222
12285SOL    HW248835   6.499   4.315   3.382  2.5702 -0.2547 -0.1104
12286SOL     OW48836   5.865   7.368   1.729 -0.2549  0.3668 -0.3000
12286SOL    HW148837   5.824   7.332   1.807 -1.8879 -0.3921 -1.4648
12286SOL    HW248838   5.933   7.305   1.706  0.0606  0.4650  0.3461
12287SOL     OW48839   3.591   3.370  11.932  0.3963 -0.2180 -0.3871
12287SOL    HW148840   3.584   3.361  12.028  0.3238 -0.8882 -0.4508
12287SOL    HW248841   3.503   3.398  11.905  0.2032 -0.7667 -0.3353
12288SOL     OW48842  11.767  11.865   8.612  0.2639 -0.2179  0.2469
12288SOL    HW148843  11.681  11.866   8.654 -0.7638 -3.1799 -1.4617
12288SOL    HW248844  11.828  11.840   8.681 -0.5636 -0.0969  1.0323
12289SOL     OW48845   0.105   6.207   4.646 -0.6519  0.2622  0.5068
12289SOL    HW148846   0.152   6.163   4.716 -0.6775  0.8059  0.8773
12289SOL    HW248847   0.031   6.249   4.690 -2.3500 -1.7660 -0.2663
12290SOL     OW48848   4.765  10.642   1.354 -0.2341  0.0984  0.6246
12290SOL    HW148849   4.704  10.636   1.280  1.4633 -0.5221 -0.7871
12290SOL    HW248850   4.754  10.731   1.387 -0.1499  0.8198 -1.1731
12291SOL     OW48851   0.506  10.972  13.631  0.0233 -0.3030 -1.0145
12291SOL    HW148852   0.416  10.982  13.601 -0.6034  0.6148  0.9670
12291SOL    HW248853   0.497  10.935  13.719  1.6184 -0.6006 -0.9561
12292SOL     OW48854   6.045   9.757   4.887 -1.0274 -0.0914 -0.0681
12292SOL    HW148855   6.003   9.837   4.919 -1.6706 -0.9370  1.3097
12292SOL    HW248856   6.136   9.783   4.871 -1.5695  1.2774 -1.1338
12293SOL     OW48857   7.752   0.786   6.874  0.6126  0.4770 -0.5538
12293SOL    HW148858   7.656   0.783   6.868  0.6688 -0.2657 -1.2600
12293SOL    HW248859   7.769   0.837   6.954 -0.3644  0.6271 -0.4202
12294SOL     OW48860   1.271   2.484  12.869 -0.3772  0.2475 -0.0537
12294SOL    HW148861   1.218   2.464  12.792 -0.4908  1.0582 -0.1916
12294SOL    HW248862   1.329   2.555  12.842 -1.9112  2.0763  1.2036
12295SOL     OW48863   6.975  10.545  10.606 -0.8535 -0.4000  0.3961
12295SOL    HW148864   7.028  10.479  10.561  0.8112  0.2818  1.2486
12295SOL    HW248865   6.921  10.495  10.667 -0.3860 -1.0641  0.2846
12296SOL     OW48866   3.686  12.128   2.214 -0.2191  0.3703 -0.4628
12296SOL    HW148867   3.755  12.195   2.215  0.2643  0.1493 -3.9370
12296SOL    HW248868   3.724  12.053   2.258  1.5549  0.5236 -1.6151
12297SOL     OW48869  12.361   1.179  13.117  0.1681 -0.3068 -0.3399
12297SOL    HW148870  12.292   1.126  13.158  0.1955 -0.1591 -0.1015
12297SOL    HW248871  12.324   1.267  13.110 -0.1288 -0.4961 -1.3604
12298SOL     OW48872   2.465   9.646  10.373  0.2328  0.1819  0.9819
12298SOL    HW148873   2.501   9.731  10.398 -2.1828  1.7654 -0.4960
12298SOL    HW248874   2.382   9.640  10.421  0.0176 -1.0023  0.4981
12299SOL     OW48875   7.717  10.473   9.865 -0.1861 -0.3980 -0.7853
12299SOL    HW148876   7.655  10.542   9.839 -1.0043 -0.7542  0.1656
12299SOL    HW248877   7.798  10.519   9.883 -1.2254  0.6249  1.6832
12300SOL     OW48878   0.274   5.552   4.585  0.8829 -0.5009 -0.1333
12300SOL    HW148879   0.278   5.570   4.679  2.1220 -0.9917 -0.0728
12300SOL    HW248880   0.247   5.634   4.545 -0.1431 -0.4299  0.6932
12301SOL     OW48881  11.680   8.848   3.940  0.1136  0.3696 -0.2127
12301SOL    HW148882  11.703   8.940   3.925  0.2574  0.6787  1.6704
12301SOL    HW248883  11.589   8.852   3.971  0.5352  0.0103  1.1007
12302SOL     OW48884   0.555  13.848   7.725  0.2335  0.1114 -0.5973
12302SOL    HW148885   0.591  13.782   7.783  0.9219 -0.9296 -2.1503
12302SOL    HW248886   0.631  13.885   7.681 -0.2773  0.8551 -0.8741
12303SOL     OW48887  13.250   5.076   7.308 -0.0126  0.1753  0.3254
12303SOL    HW148888  13.277   5.157   7.353  0.8266  1.2270 -1.8926
12303SOL    HW248889  13.332   5.037   7.278 -0.4157 -1.5561  1.4069
12304SOL     OW48890   3.266   2.619   2.469  0.0811 -0.0039  0.4935
12304SOL    HW148891   3.187   2.674   2.469  0.8116  1.1629 -1.6587
12304SOL    HW248892   3.285   2.605   2.562 -1.8014  0.9282  1.0770
12305SOL     OW48893   2.067  13.400  10.012 -0.0745 -0.2619 -0.3284
12305SOL    HW148894   2.021  13.316  10.017 -2.7257  1.1660  3.4281
12305SOL    HW248895   2.005  13.459   9.969  1.6365  0.0272 -2.6214
12306SOL     OW48896   7.790   3.651   8.343  0.3627  0.0211  0.2650
12306SOL    HW148897   7.814   3.743   8.327 -0.6418  0.0318 -1.3922
12306SOL    HW248898   7.735   3.627   8.268  0.6728 -1.9696  0.6140
12307SOL     OW48899   8.017  11.789   6.212 -0.1289 -0.3273 -0.4350
12307SOL    HW148900   7.997  11.746   6.129  0.4870  1.1636 -1.4047
12307SOL    HW248901   8.107  11.822   6.200 -0.3987  0.7661  0.4425
12308SOL     OW48902   2.939   9.454  13.535  0.2504 -0.1686  0.3774
12308SOL    HW148903   2.903   9.388  13.476  0.2135  1.4045 -1.4343
12308SOL    HW248904   2.901   9.537  13.505  2.6149  1.0947  0.6184
12309SOL     OW48905   9.356  10.660  14.027  0.0562  0.1584  0.0399
12309SOL    HW148906   9.307  10.630  14.104 -0.9238 -0.1470 -0.6919
12309SOL    HW248907   9.447  10.638  14.047 -0.3313 -1.0215  0.6005
12310SOL     OW48908   7.246   3.633   9.217 -0.2720 -0.2220  0.5966
12310SOL    HW148909   7.217   3.671   9.135  0.3010  0.5124  0.7172
12310SOL    HW248910   7.326   3.585   9.194  1.0668  1.6680  1.0187
12311SOL     OW48911  12.672  10.137  10.232 -0.4998  0.1092  0.1341
12311SOL    HW148912  12.595  10.098  10.192 -0.5361 -0.7319  0.9904
12311SOL    HW248913  12.662  10.231  10.216 -2.3236  0.1540  1.2305
12312SOL     OW48914  11.593   5.800   6.446 -0.5672 -0.1140 -0.8798
12312SOL    HW148915  11.638   5.716   6.441 -0.2191  0.1134 -1.9655
12312SOL    HW248916  11.536   5.801   6.368  1.1549  1.5868 -2.2166
12313SOL     OW48917   9.866   7.730   9.979  0.3647  1.0321 -0.2610
12313SOL    HW148918   9.822   7.742   9.896 -0.2529 -0.1697 -0.1342
12313SOL    HW248919   9.796   7.733  10.044  0.5939  0.1339  0.0379
12314SOL     OW48920  13.347   8.549  10.278 -0.4536 -0.3049 -0.5875
12314SOL    HW148921  13.335   8.517  10.188  0.0744  1.6234 -1.4098
12314SOL    HW248922  13.438   8.579  10.281 -0.5436 -0.1074  0.5191
12315SOL     OW48923   3.626  11.258   6.125  0.2799 -0.2598  0.5054
12315SOL    HW148924   3.628  11.199   6.050  0.1104 -0.6751  0.8228
12315SOL    HW248925   3.537  11.251   6.159 -0.1881  1.2657 -0.2952
12316SOL     OW48926   3.814   5.279   4.122 -0.0369  0.4495 -0.6202
12316SOL    HW148927   3.744   5.244   4.177 -0.1334  0.9333 -0.4273
12316SOL    HW248928   3.868   5.331   4.182  0.5658 -0.0186 -0.7386
12317SOL     OW48929   5.286  13.059   5.030  1.0794  0.1177 -0.2620
12317SOL    HW148930   5.335  13.065   5.113  0.5885 -1.3221  0.1646
12317SOL    HW248931   5.285  12.965   5.010 -3.1905 -0.2833  0.8428
12318SOL     OW48932   4.733   6.110  13.877 -0.9538  0.4549 -0.3089
12318SOL    HW148933   4.666   6.178  13.884 -0.1512  1.1264  1.3676
12318SOL    HW248934   4.784   6.118  13.957  0.8985 -0.3004 -1.3429
12319SOL     OW48935   2.084   4.115   3.833 -0.3952  0.0139  0.0317
12319SOL    HW148936   2.156   4.051   3.831  0.0219  0.4925 -1.4110
12319SOL    HW248937   2.124   4.197   3.805 -0.6933  1.2243  2.8316
12320SOL     OW48938  12.520  10.344   6.099  0.0579  0.4814  0.1283
12320SOL    HW148939  12.547  10.268   6.048 -2.8712  1.6871 -3.7967
12320SOL    HW248940  12.444  10.314   6.149  0.0586  0.3514  0.0513
12321SOL     OW48941   6.699   4.173   9.245 -0.7127  0.2862 -0.4435
12321SOL    HW148942   6.715   4.110   9.176  0.3517  0.2432 -0.1880
12321SOL    HW248943   6.781   4.223   9.251  0.8440 -2.2295  3.3426
12322SOL     OW48944  13.312   9.265   4.967  0.4413 -0.1984 -0.2515
12322SOL    HW148945  13.296   9.274   4.873 -0.8142 -0.8168 -0.1269
12322SOL    HW248946  13.308   9.171   4.983 -2.3448  0.0087  0.8444
12323SOL     OW48947   9.219  13.419  12.685  0.3311 -0.8552 -0.7638
12323SOL    HW148948   9.175  13.504  12.692 -0.9424 -1.5605  0.2155
12323SOL    HW248949   9.297  13.437  12.633  0.7995  1.1925  0.5260
12324SOL     OW48950  11.982   0.924   0.819  0.1917 -0.3632 -0.0604
12324SOL    HW148951  11.928   0.970   0.755  1.0591  0.1248 -0.4653
12324SOL    HW248952  11.921   0.897   0.888 -1.1434 -2.7225 -2.0362
12325SOL     OW48953   8.725   3.194   5.801  0.1501  0.3356  0.0432
12325SOL    HW148954   8.766   3.280   5.813  0.6371 -0.0588  1.4320
12325SOL    HW248955   8.743   3.172   5.709  0.0574  1.6787 -0.3262
12326SOL     OW48956   7.443   3.156   1.593 -0.3289 -0.3520  0.1689
12326SOL    HW148957   7.474   3.151   1.684  0.1952  1.6302  0.1493
12326SOL    HW248958   7.519   3.129   1.541 -0.3715 -0.6858  0.2724
12327SOL     OW48959   7.478   3.482   0.816 -0.2005 -0.1597  0.0181
12327SOL    HW148960   7.551   3.474   0.754  1.2303 -1.1171  1.7197
12327SOL    HW248961   7.429   3.401   0.807 -1.3258  0.6353 -1.3839
12328SOL     OW48962  10.001  14.043   7.097 -0.0644  0.0569  0.2569
12328SOL    HW148963   9.997  14.130   7.136  4.3839  2.1569 -3.0038
12328SOL    HW248964   9.942  14.047   7.022 -1.7287 -0.7390  1.4711
12329SOL     OW48965   5.693   7.266   4.382 -0.2137  0.3571  0.2028
12329SOL    HW148966   5.604   7.281   4.412  0.2452  1.6094  1.0379
12329SOL    HW248967   5.725   7.192   4.434  0.1919  1.7802  2.0807
12330SOL     OW48968  14.029   2.982  11.630  0.4048  0.0640 -0.4664
12330SOL    HW148969  13.996   3.059  11.584 -0.0550  0.6392  0.7828
12330SOL    HW248970  13.999   2.993  11.721  0.5244 -1.4632 -0.2049
12331SOL     OW48971   3.909  12.409   3.525  0.2264  0.3877 -0.5012
12331SOL    HW148972   4.001  12.431   3.536  1.6165 -4.2126 -0.9535
12331SOL    HW248973   3.897  12.403   3.430 -0.4744  0.6082 -0.4346
12332SOL     OW48974  13.227   6.961   0.917 -0.5519 -0.5868 -0.3224
12332SOL    HW148975  13.307   6.962   0.865 -1.5451  1.6351 -2.0078
12332SOL    HW248976  13.164   6.914   0.862 -0.6577 -1.5678  0.6094
12333SOL     OW48977  13.843   7.713   8.794  0.1380  0.3443  0.3717
12333SOL    HW148978  13.924   7.728   8.844  0.3611 -1.7415  0.7514
12333SOL    HW248979  13.775   7.701   8.861 -0.2208  0.7912  0.0889
12334SOL     OW48980   4.183   8.879   6.207  0.1688  0.9562  0.3268
12334SOL    HW148981   4.202   8.920   6.122 -0.5850  0.5113 -0.0622
12334SOL    HW248982   4.238   8.801   6.208 -1.2278 -0.0826 -0.6032
12335SOL     OW48983  10.544   4.623  11.426 -0.1151 -0.5013 -0.1493
12335SOL    HW148984  10.497   4.570  11.492 -0.8243 -0.8878 -0.9453
12335SOL    HW248985  10.587   4.559  11.370  3.6045 -0.1846  2.0022
12336SOL     OW48986   0.155   0.240  11.120 -0.1677 -0.6854 -0.7427
12336SOL    HW148987   0.114   0.200  11.197 -0.1284  0.1332 -0.2814
12336SOL    HW248988   0.144   0.335  11.133 -0.3870 -0.5379 -1.8694
12337SOL     OW48989  12.038  10.996  12.592  0.4141 -0.5271  0.1251
12337SOL    HW148990  12.004  10.916  12.631 -1.8714 -0.5313 -1.6492
12337SOL    HW248991  11.986  11.067  12.631 -0.1759 -0.3147 -0.9778
12338SOL     OW48992  12.094  13.994   7.966  0.3727  0.2190 -0.6141
12338SOL    HW148993  12.059  13.996   8.054 -1.0751  0.9782 -1.1728
12338SOL    HW248994  12.081  14.083   7.933  2.1174  0.3138 -1.1460
12339SOL     OW48995   5.642  11.797   5.465 -0.3194 -0.2854 -0.2918
12339SOL    HW148996   5.726  11.839   5.444 -0.4353  0.0201 -0.1543
12339SOL    HW248997   5.638  11.722   5.406 -0.1805 -0.0110 -0.6629
12340SOL     OW48998   5.600   6.728   6.928  0.1070 -0.1163  0.4722
12340SOL    HW148999   5.648   6.791   6.981  0.9487 -0.5913  0.2994
12340SOL    HW249000   5.528   6.777   6.890 -0.0312  0.4220  1.4028
12341SOL     OW49001   1.505   6.004  13.656  0.1858 -0.0826 -0.0171
12341SOL    HW149002   1.512   6.098  13.671  0.7599  0.1462 -1.6071
12341SOL    HW249003   1.584   5.968  13.697  0.4912  0.2479 -0.3060
12342SOL     OW49004  11.337   0.711   4.187 -0.1329  0.3681 -0.0528
12342SOL    HW149005  11.345   0.803   4.160 -0.1065  0.6490  0.8725
12342SOL    HW249006  11.243   0.692   4.181 -0.4942  1.1997  1.9950
12343SOL     OW49007  13.710   7.838   1.841  0.6425  0.3121  0.5252
12343SOL    HW149008  13.739   7.757   1.882  1.3363  0.8093  1.0307
12343SOL    HW249009  13.648   7.809   1.773  0.5336 -0.6028  0.9934
12344SOL     OW49010   6.999   1.354   5.647 -0.4876 -0.0915 -0.5904
12344SOL    HW149011   6.916   1.354   5.694 -0.3287  1.4870 -0.2587
12344SOL    HW249012   7.025   1.261   5.645 -1.4098 -0.4193  0.7746
12345SOL     OW49013   6.785  10.768   7.680 -0.4615  0.1059 -0.3675
12345SOL    HW149014   6.794  10.811   7.594  0.8652 -0.7420 -0.6680
12345SOL    HW249015   6.807  10.677   7.664  0.7788  0.1265  1.0771
12346SOL     OW49016  13.489   1.544   4.646 -0.0663 -0.0126 -0.5003
12346SOL    HW149017  13.578   1.549   4.679  1.0659 -0.4539 -3.2120
12346SOL    HW249018  13.434   1.574   4.718  2.2962  0.7396  1.0724
12347SOL     OW49019   3.035   4.280  13.705 -0.2957  0.3786 -0.4322
12347SOL    HW149020   3.117   4.328  13.692  0.2134 -0.7373 -1.6150
12347SOL    HW249021   2.997   4.318  13.784  0.6512  1.8953 -0.6638
12348SOL     OW49022   4.286  10.159   8.481  0.3972  0.3155 -0.0842
12348SOL    HW149023   4.225  10.214   8.431 -0.3019 -0.1011  0.2985
12348SOL    HW249024   4.232  10.120   8.549  0.5820 -1.8600 -1.0993
12349SOL     OW49025  11.630   1.775   5.987 -0.2778 -0.0034 -0.8699
12349SOL    HW149026  11.689   1.850   5.980  0.6338 -0.3775  1.7179
12349SOL    HW249027  11.546   1.808   5.954  0.3110  1.8623 -0.6378
12350SOL     OW49028  11.101  11.332   7.920  0.4257  0.2648  0.0369
12350SOL    HW149029  11.118  11.280   7.841  1.2522 -0.1065  0.4458
12350SOL    HW249030  11.172  11.397   7.921  1.1798 -0.5370  1.1393
12351SOL     OW49031   4.008   2.936  10.594  0.3342  0.6613 -0.3912
12351SOL    HW149032   4.088   2.960  10.641 -1.0615  3.5838  0.7695
12351SOL    HW249033   3.957   2.885  10.657  0.2928  0.8705 -0.2532
12352SOL     OW49034   4.190   9.142   9.401 -0.3164  0.1672 -0.0613
12352SOL    HW149035   4.119   9.142   9.338 -0.7941 -1.1963  0.4401
12352SOL    HW249036   4.149   9.166   9.484  0.0566  0.6074  0.0038
12353SOL     OW49037  11.515   1.989   1.743 -0.1828  0.3263  1.2852
12353SOL    HW149038  11.597   1.947   1.715 -1.5202 -0.9171 -1.0856
12353SOL    HW249039  11.493   1.947   1.825  0.6110 -0.6546  1.0161
12354SOL     OW49040   1.628  13.753   9.732  0.2012 -0.4360 -0.1733
12354SOL    HW149041   1.585  13.790   9.655  0.0484 -0.8180 -0.2715
12354SOL    HW249042   1.672  13.674   9.700 -1.0511 -1.3881  0.4069
12355SOL     OW49043   5.804   8.917   5.053 -0.0383 -0.3768 -0.3072
12355SOL    HW149044   5.900   8.925   5.059 -0.0654  0.8219 -1.1177
12355SOL    HW249045   5.784   8.943   4.963 -1.2995  1.4698  0.4555
12356SOL     OW49046   4.751   2.216   6.301 -0.6508  0.6807 -0.0917
12356SOL    HW149047   4.838   2.225   6.263 -0.6323 -0.9779 -0.5112
12356SOL    HW249048   4.695   2.268   6.244 -0.2155  0.2778 -0.9099
12357SOL     OW49049   7.484  12.975  13.354 -0.3408  0.9451  0.2670
12357SOL    HW149050   7.432  12.981  13.435 -0.5421  2.9091  0.0491
12357SOL    HW249051   7.432  12.919  13.296 -0.1017 -0.6581  1.5283
12358SOL     OW49052   2.185   2.970   4.683 -0.2924 -0.1331 -0.4361
12358SOL    HW149053   2.208   3.057   4.650  0.1660 -0.0265  0.1522
12358SOL    HW249054   2.128   2.933   4.615 -0.0166  0.3950 -0.9649
12359SOL     OW49055  10.005  13.174   8.825 -0.3531  0.2870  0.0175
12359SOL    HW149056   9.956  13.251   8.853  1.1712  0.7963  1.4772
12359SOL    HW249057  10.062  13.205   8.755  0.4923  0.6033  0.8227
12360SOL     OW49058   8.689   4.808   1.520  0.3912  0.1781  0.1493
12360SOL    HW149059   8.716   4.721   1.549  0.1346  0.4040  1.1367
12360SOL    HW249060   8.640   4.843   1.595  1.1924  1.4939  0.0800
12361SOL     OW49061  12.047   0.390   5.977 -0.1412  0.2247  0.3066
12361SOL    HW149062  11.983   0.342   6.030 -1.7486  0.1089 -1.6201
12361SOL    HW249063  12.061   0.334   5.901 -0.5269  1.8749 -1.0327
12362SOL     OW49064   0.318   7.925   9.710 -0.1361 -0.1950  0.7704
12362SOL    HW149065   0.361   7.847   9.745  0.5091 -1.3433 -2.2668
12362SOL    HW249066   0.390   7.986   9.692  0.0002 -0.9324 -1.4915
12363SOL     OW49067  10.663  10.155   2.489 -0.8497 -0.1492 -0.1510
12363SOL    HW149068  10.632  10.229   2.541  1.1722 -0.2323  1.3028
12363SOL    HW249069  10.686  10.088   2.554 -0.7717 -1.2892 -1.3227
12364SOL     OW49070   7.786  12.717   2.149  0.0771  0.4345  0.3437
12364SOL    HW149071   7.792  12.787   2.213  0.9222  0.1707  0.5613
12364SOL    HW249072   7.737  12.755   2.076 -2.0362  0.3689  1.6348
12365SOL     OW49073  12.631  11.328   7.514 -0.5841  0.2067 -0.1600
12365SOL    HW149074  12.600  11.418   7.522  0.2932  0.4128  1.0666
12365SOL    HW249075  12.718  11.336   7.476 -0.7643 -0.1788 -0.6720
12366SOL     OW49076  11.896  12.062   5.862  0.8229  0.2474 -0.5214
12366SOL    HW149077  11.884  12.109   5.779 -0.7477 -0.6740 -0.8581
12366SOL    HW249078  11.818  12.007   5.869  1.1328  0.0019  1.3769
12367SOL     OW49079   7.480   7.294  12.217  0.3091 -0.2122  0.0053
12367SOL    HW149080   7.528   7.243  12.282  0.4210  0.6633  0.6408
12367SOL    HW249081   7.486   7.243  12.136  0.7283 -1.0049  0.5260
12368SOL     OW49082   6.997   9.489  10.677 -0.3235 -0.3349 -0.0436
12368SOL    HW149083   7.030   9.557  10.735 -0.1517 -1.2348  0.9412
12368SOL    HW249084   7.054   9.494  10.600 -0.5184  0.8335 -0.1260
12369SOL     OW49085   5.052   8.532   4.202 -0.4601  0.1914  0.0724
12369SOL    HW149086   4.990   8.469   4.239 -0.4858  0.7055  0.9216
12369SOL    HW249087   5.005   8.615   4.202  0.1260  0.5305  0.4602
12370SOL     OW49088   5.135   8.025   2.410  0.0510 -0.1183  0.2239
12370SOL    HW149089   5.229   8.028   2.393  0.3102 -0.8186  1.4393
12370SOL    HW249090   5.128   8.014   2.505 -1.2557 -0.2974  0.1218
12371SOL     OW49091  12.972   5.369   3.602 -0.0951  0.7181  0.3704
12371SOL    HW149092  13.065   5.380   3.623 -0.3885  0.4736  1.9394
12371SOL    HW249093  12.941   5.457   3.582  0.2276  0.9808  0.9918
12372SOL     OW49094  12.774   0.140   8.856  0.5467  0.1061  0.1032
12372SOL    HW149095  12.751   0.165   8.766 -0.9419  0.0580  0.4596
12372SOL    HW249096  12.870   0.150   8.859  1.3262 -4.0180 -2.7509
12373SOL     OW49097  11.753   7.085  10.024 -0.7909  0.1570  0.0090
12373SOL    HW149098  11.796   7.082  10.109 -0.7060  1.8276  0.0685
12373SOL    HW249099  11.817   7.048   9.963 -0.6849 -0.6511  0.6045
12374SOL     OW49100   4.724   3.200   4.703  0.1823  0.3162 -0.1261
12374SOL    HW149101   4.783   3.275   4.712 -0.6857  1.2341 -1.5626
12374SOL    HW249102   4.777   3.124   4.727  0.2498  1.5325  4.4582
12375SOL     OW49103   3.967   7.249   7.027 -0.4626  0.4150 -0.1858
12375SOL    HW149104   3.885   7.201   7.037 -0.8010  0.7891 -1.0778
12375SOL    HW249105   3.941   7.336   6.998  0.2785  0.2695 -1.3483
12376SOL     OW49106  13.062   9.263   4.770 -0.0964  0.8171 -0.4691
12376SOL    HW149107  13.009   9.315   4.710 -0.4344  3.1374  1.6964
12376SOL    HW249108  13.148   9.306   4.768 -0.0228  0.7276  0.4251
12377SOL     OW49109  13.639   7.029   1.676 -0.2961  0.2639  0.6539
12377SOL    HW149110  13.615   6.951   1.626 -1.2944  0.8057  0.2514
12377SOL    HW249111  13.631   7.002   1.767 -1.2485  0.0544  0.5197
12378SOL     OW49112   6.563  12.183   7.683 -0.4635  0.4074  0.7303
12378SOL    HW149113   6.639  12.225   7.723  0.1533 -0.2791  0.3110
12378SOL    HW249114   6.515  12.254   7.641  0.8505  0.6630 -0.4391
12379SOL     OW49115   9.722  13.305  13.982  0.3479  0.2852  0.6033
12379SOL    HW149116   9.703  13.240  14.050  0.4514 -0.7279 -0.3011
12379SOL    HW249117   9.758  13.379  14.030 -0.6104  0.0409  1.7667
12380SOL     OW49118   9.935   8.328   5.255  0.1695 -0.2210 -0.4041
12380SOL    HW149119  10.020   8.296   5.285  0.0669 -0.6923 -0.6140
12380SOL    HW249120   9.893   8.252   5.216  0.0641  0.2558 -1.2287
12381SOL     OW49121  11.662  13.061  13.525  0.0391  0.4420 -0.2258
12381SOL    HW149122  11.751  13.081  13.555 -0.2658 -0.1761  1.1782
12381SOL    HW249123  11.610  13.136  13.555 -0.3075 -0.2826  1.0723
12382SOL     OW49124   4.935   0.648  11.695  0.3378 -0.3057 -0.0265
12382SOL    HW149125   4.877   0.576  11.671 -0.9214 -0.1314  2.2676
12382SOL    HW249126   4.995   0.656  11.620 -1.0362 -2.0832 -1.4073
12383SOL     OW49127  10.285   7.303   0.020 -0.0424  0.3498 -0.2242
12383SOL    HW149128  10.272   7.371   0.085 -0.3141  0.2254 -0.1474
12383SOL    HW249129  10.333   7.234   0.066  0.4687  0.5958 -0.3728
12384SOL     OW49130   0.567   5.150   4.330  0.2441 -0.7219  0.1401
12384SOL    HW149131   0.597   5.062   4.352 -0.4790 -1.2812 -1.0127
12384SOL    HW249132   0.619   5.208   4.386  1.5199 -1.8126  0.1328
12385SOL     OW49133   2.920  13.883   1.481  0.3010 -0.3415  0.1231
12385SOL    HW149134   2.948  13.972   1.462 -0.9461 -0.2211 -1.3800
12385SOL    HW249135   2.862  13.891   1.556  0.9409 -0.0396  0.5991
12386SOL     OW49136   4.610   4.672   8.833 -0.3471 -0.1459 -0.1083
12386SOL    HW149137   4.531   4.660   8.781 -0.0417  2.2021 -1.2602
12386SOL    HW249138   4.630   4.766   8.825  0.9683 -0.1147  2.4836
12387SOL     OW49139   7.280   6.461   1.461  0.5939 -0.0310 -0.2126
12387SOL    HW149140   7.212   6.481   1.397  0.0292  1.4573  0.7972
12387SOL    HW249141   7.241   6.483   1.545  1.4846 -1.5166  0.6202
12388SOL     OW49142  10.817   6.730  11.827 -0.4761 -0.1874  0.0465
12388SOL    HW149143  10.826   6.808  11.882  1.2251 -0.4459  0.1688
12388SOL    HW249144  10.906   6.708  11.801 -1.2072 -0.0566 -2.8930
12389SOL     OW49145  11.759   4.261   5.230  0.5193  0.7361 -0.2631
12389SOL    HW149146  11.726   4.329   5.290 -0.2510 -0.0316  0.2051
12389SOL    HW249147  11.682   4.207   5.212  1.0815  0.1173 -0.8083
12390SOL     OW49148   1.954   4.026   1.859 -0.1475  0.1738  0.1145
12390SOL    HW149149   1.968   3.949   1.804 -2.7122 -0.6307  0.4514
12390SOL    HW249150   1.920   4.093   1.800  3.3647  1.6917 -0.4650
12391SOL     OW49151  10.062   2.035   3.002  0.4331 -0.2533  0.3302
12391SOL    HW149152  10.156   2.041   2.984  0.4152 -0.1470  0.2759
12391SOL    HW249153  10.054   1.957   3.056  0.6660  0.2628  1.1172
12392SOL     OW49154   0.337   7.128   3.716  0.2607 -0.1812  0.1183
12392SOL    HW149155   0.385   7.057   3.674  2.8017  0.6149  1.4471
12392SOL    HW249156   0.304   7.089   3.798 -2.0630 -0.8991 -1.0724
12393SOL     OW49157   2.935   7.615  10.140 -0.1430 -0.7794 -0.5700
12393SOL    HW149158   2.973   7.542  10.092  1.9792 -0.0070 -0.2254
12393SOL    HW249159   2.964   7.693  10.092 -0.3900 -0.1000  0.3393
12394SOL     OW49160  11.808   0.361   4.758  0.1414  0.8170  0.3413
12394SOL    HW149161  11.767   0.286   4.716 -1.5961  1.0745  1.4582
12394SOL    HW249162  11.750   0.381   4.832  2.5053  0.9543  2.3021
12395SOL     OW49163   2.938   8.616   1.156 -0.0145 -0.2238 -0.0468
12395SOL    HW149164   2.896   8.552   1.214  1.8354 -1.2323  0.2534
12395SOL    HW249165   2.900   8.700   1.182 -2.6870 -1.1570 -0.6192
12396SOL     OW49166   5.248   1.791   5.937 -0.5204 -0.1987 -0.2027
12396SOL    HW149167   5.197   1.845   5.878 -0.6295  2.0191  1.7658
12396SOL    HW249168   5.200   1.793   6.020  1.1042 -0.6770  0.8106
12397SOL     OW49169   3.694  13.304   9.770 -0.1478  0.3072 -0.1013
12397SOL    HW149170   3.741  13.354   9.837  1.5666 -1.6674  0.2569
12397SOL    HW249171   3.762  13.264   9.717 -1.4468 -1.1543 -0.7436
12398SOL     OW49172   1.632   1.239   6.704  0.0162  0.5719 -0.0110
12398SOL    HW149173   1.596   1.177   6.641  2.0391  0.6552 -1.3512
12398SOL    HW249174   1.638   1.321   6.655 -2.0421  1.7388  1.5412
12399SOL     OW49175   4.587  11.474   9.014  0.4805 -0.8075 -0.5077
12399SOL    HW149176   4.518  11.442   8.956 -1.6088  0.7651  0.9677
12399SOL    HW249177   4.610  11.560   8.978 -0.4672 -0.0494  0.6377
12400SOL     OW49178   8.531   8.552  13.589  0.4655 -0.2441  0.1958
12400SOL    HW149179   8.551   8.503  13.668 -0.2268 -0.6675  0.1175
12400SOL    HW249180   8.494   8.487  13.529 -0.9089  0.4388  0.2635
12401SOL     OW49181  12.089  13.062  10.897  0.4902  0.5363  0.2275
12401SOL    HW149182  12.168  13.008  10.909 -0.0769 -0.3078  0.2385
12401SOL    HW249183  12.120  13.152  10.907  1.4618  0.2167  0.1946
12402SOL     OW49184   4.645   3.013   6.535  0.0942 -0.7555  0.3307
12402SOL    HW149185   4.644   3.108   6.547  1.8439 -0.4568 -1.4676
12402SOL    HW249186   4.625   2.978   6.622 -0.4493  1.2382  1.0627
12403SOL     OW49187  12.870  11.433   9.307 -0.4085 -0.6809 -0.2818
12403SOL    HW149188  12.864  11.372   9.380 -0.4944 -0.3215  0.0167
12403SOL    HW249189  12.780  11.446   9.279 -0.4543 -0.1900  0.0801
12404SOL     OW49190   9.190   8.598   9.606  0.0744 -0.3175 -0.6476
12404SOL    HW149191   9.198   8.649   9.526  0.7802 -0.1462 -0.4757
12404SOL    HW249192   9.171   8.663   9.674  1.9053 -0.1245 -0.2637
12405SOL     OW49193  10.349   8.173  13.642  0.7605 -0.3115 -0.0564
12405SOL    HW149194  10.331   8.210  13.555 -0.9568 -0.0830  0.3566
12405SOL    HW249195  10.349   8.078  13.627 -0.7911 -0.3278 -0.1258
12406SOL     OW49196   0.566  10.959   4.542  0.0597 -0.6563  0.0454
12406SOL    HW149197   0.579  10.871   4.576 -2.3466  0.1034  3.5491
12406SOL    HW249198   0.519  10.947   4.460  2.1047 -2.5941 -0.9457
12407SOL     OW49199  10.317   4.826  12.437 -0.0619 -0.4370  0.1502
12407SOL    HW149200  10.376   4.825  12.512 -0.1080 -2.3193  0.2222
12407SOL    HW249201  10.307   4.918  12.415 -0.6360  0.2613  2.9219
12408SOL     OW49202   0.871  12.276   3.472 -0.8590 -0.1494 -0.3052
12408SOL    HW149203   0.939  12.294   3.536 -0.0408 -1.5030 -0.7659
12408SOL    HW249204   0.793  12.318   3.508  0.4085  2.3667 -0.2939
12409SOL     OW49205   2.735   9.350   4.065 -0.6309 -0.1466 -0.2875
12409SOL    HW149206   2.692   9.401   3.996 -0.7277  1.6825  1.0587
12409SOL    HW249207   2.709   9.259   4.047 -3.0438  0.5918 -0.9820
12410SOL     OW49208  10.557   0.378   6.063  0.5943 -0.4766 -0.0774
12410SOL    HW149209  10.536   0.456   6.013  2.1171  0.7650  1.1286
12410SOL    HW249210  10.608   0.324   6.003  0.1137 -0.2556 -0.6960
12411SOL     OW49211  11.531   2.359   4.754 -0.0449  0.0155 -0.5565
12411SOL    HW149212  11.559   2.271   4.731  0.0299 -0.9238  2.6281
12411SOL    HW249213  11.610   2.413   4.745  0.6031 -0.8217  0.0441
12412SOL     OW49214   0.500   1.316   0.258 -0.2108 -0.0350  0.3640
12412SOL    HW149215   0.562   1.358   0.198  0.3474 -1.0304  0.2223
12412SOL    HW249216   0.556   1.266   0.318 -0.8069  0.3018  1.2177
12413SOL     OW49217   6.538   9.313  13.297  0.4952  1.0636 -0.3737
12413SOL    HW149218   6.578   9.253  13.360  1.4239  1.5532 -0.4780
12413SOL    HW249219   6.447   9.322  13.326  0.8509  1.1138  0.7546
12414SOL     OW49220   3.014   7.746   7.834  0.4394  0.1635  0.0066
12414SOL    HW149221   3.104   7.737   7.800  0.0930 -1.9929 -0.5212
12414SOL    HW249222   2.959   7.736   7.756 -0.2722 -0.3583  0.5628
12415SOL     OW49223   8.710   8.806   4.358  0.0250  0.0638  0.1035
12415SOL    HW149224   8.784   8.787   4.301 -0.8134  0.9215 -1.3233
12415SOL    HW249225   8.746   8.801   4.447  1.9434  1.0951 -0.5722
12416SOL     OW49226   9.745  12.306   1.064  0.2025 -0.1850 -0.4281
12416SOL    HW149227   9.734  12.247   0.990 -0.4514  0.7896 -1.1402
12416SOL    HW249228   9.656  12.335   1.086  0.4818  0.3567  0.0428
12417SOL     OW49229   3.198   5.544   5.323  0.1436 -0.5228  0.1957
12417SOL    HW149230   3.107   5.574   5.325  0.1255 -0.3517 -1.4570
12417SOL    HW249231   3.192   5.454   5.291  0.4893 -0.9226  1.2290
12418SOL     OW49232   9.071   2.124   6.276 -0.0918  0.3457 -0.1302
12418SOL    HW149233   9.045   2.082   6.193 -0.1616  0.4552 -0.1644
12418SOL    HW249234   9.024   2.208   6.276  1.7236  1.4273 -1.0923
12419SOL     OW49235   6.619  12.694  12.353 -0.5606 -0.2787 -0.0676
12419SOL    HW149236   6.669  12.624  12.310 -1.7896 -1.0372 -0.2900
12419SOL    HW249237   6.574  12.650  12.425  0.0725  0.6479  0.9254
12420SOL     OW49238  12.422  13.393   7.322  0.4290 -0.2798 -0.4648
12420SOL    HW149239  12.351  13.457   7.322  0.8602  0.2488 -2.0801
12420SOL    HW249240  12.394  13.326   7.384 -0.8826  0.5519 -0.1174
12421SOL     OW49241   4.462   7.197   3.269 -0.3071 -0.3268 -0.1177
12421SOL    HW149242   4.449   7.260   3.340 -1.2462  0.2127 -0.7396
12421SOL    HW249243   4.460   7.111   3.312  1.4386  0.0502  0.7998
12422SOL     OW49244   4.159   0.574   5.891  0.2640 -0.9576  0.3478
12422SOL    HW149245   4.081   0.573   5.946 -0.1459  0.4819 -0.1819
12422SOL    HW249246   4.229   0.603   5.950 -0.1668  0.5408  0.1602
12423SOL     OW49247   0.734   9.819  12.167  0.5379  0.3610 -0.4489
12423SOL    HW149248   0.818   9.776  12.187 -0.3039 -1.6886 -1.0148
12423SOL    HW249249   0.747   9.910  12.193  2.6964 -0.0526  0.1551
12424SOL     OW49250  10.120  13.669   4.027  0.4343  0.4647 -0.0771
12424SOL    HW149251  10.169  13.750   4.015 -0.9719  1.3998  0.2824
12424SOL    HW249252  10.028  13.696   4.032 -0.0413 -1.1026  0.4633
12425SOL     OW49253   4.123   3.506   8.754 -0.0489 -0.2350 -0.6460
12425SOL    HW149254   4.151   3.477   8.840 -0.7457  0.0673 -0.3160
12425SOL    HW249255   4.202   3.499   8.700 -0.0362 -2.1262 -0.4313
12426SOL     OW49256   9.172   6.214  12.013  0.2575 -0.1034 -0.0995
12426SOL    HW149257   9.204   6.185  12.098  1.2862 -0.6092 -0.6489
12426SOL    HW249258   9.201   6.147  11.952  0.6429  0.9040 -1.0529
12427SOL     OW49259   0.583   0.493   4.076 -0.1799  0.2148 -0.2303
12427SOL    HW149260   0.522   0.567   4.081 -1.5208 -0.8538 -0.0029
12427SOL    HW249261   0.537   0.429   4.022  0.0196 -1.2799  1.2995
12428SOL     OW49262   8.719  11.438   9.602  0.4003 -0.0616 -0.5513
12428SOL    HW149263   8.708  11.375   9.531 -0.3680 -0.5495 -0.0252
12428SOL    HW249264   8.631  11.450   9.637  0.9975 -1.3935  1.6106
12429SOL     OW49265   0.688   0.249  10.799  0.5047  0.1524 -0.4373
12429SOL    HW149266   0.732   0.322  10.842  0.6089 -0.4149  0.4399
12429SOL    HW249267   0.595   0.264  10.815  0.5605 -0.2315  0.2918
12430SOL     OW49268   4.454  13.102   6.674 -0.6771 -0.4405 -0.7162
12430SOL    HW149269   4.416  13.123   6.589 -0.7045  1.6996 -0.2226
12430SOL    HW249270   4.390  13.044   6.715 -1.1132 -0.7338 -1.7811
12431SOL     OW49271   4.480  11.369  10.853  0.4324  0.1712 -0.1266
12431SOL    HW149272   4.412  11.338  10.793 -0.7154  0.4545  0.9888
12431SOL    HW249273   4.541  11.295  10.861  0.1870 -0.1373 -1.0205
12432SOL     OW49274   4.984  10.185   8.177 -0.7134 -0.6317 -0.0968
12432SOL    HW149275   4.938  10.249   8.123  1.7977  0.9031 -0.5705
12432SOL    HW249276   5.021  10.123   8.114 -0.3372 -0.6017  0.0936
12433SOL     OW49277   7.401   2.879   1.506  0.1449  0.0712  0.5582
12433SOL    HW149278   7.430   2.795   1.541 -2.6389 -1.1986  0.0584
12433SOL    HW249279   7.398   2.937   1.582  0.4145 -0.7792  1.2284
12434SOL     OW49280   3.803  12.708  10.252  0.1028  0.0030  0.6624
12434SOL    HW149281   3.846  12.635  10.297 -0.5443 -0.8801 -0.1018
12434SOL    HW249282   3.850  12.716  10.169 -0.6954 -0.4497  0.1599
12435SOL     OW49283   4.056   1.300   4.839  0.6756 -0.3463  0.3486
12435SOL    HW149284   4.114   1.252   4.779 -0.2513  0.1124 -0.9707
12435SOL    HW249285   4.024   1.374   4.787 -0.3891 -0.0844  1.3306
12436SOL     OW49286   3.360   6.507   8.530  0.2095 -0.3816 -0.2856
12436SOL    HW149287   3.328   6.425   8.493  1.2820 -1.0945  0.3059
12436SOL    HW249288   3.401   6.552   8.456  2.4840 -1.8697 -0.0627
12437SOL     OW49289   5.068   7.339   3.416 -0.6557  0.1220 -0.5587
12437SOL    HW149290   5.098   7.390   3.492  1.9307 -3.3076  1.0035
12437SOL    HW249291   5.115   7.377   3.342  1.5260 -0.0769  0.6224
12438SOL     OW49292   2.174   8.982  12.025  0.0441  0.8337  0.2954
12438SOL    HW149293   2.145   9.047  12.088 -2.3748  0.2320 -0.0811
12438SOL    HW249294   2.155   8.898  12.068  0.1219  0.4110 -0.4873
12439SOL     OW49295  10.919   5.381   1.551 -0.0437 -0.4354  0.3182
12439SOL    HW149296  10.825   5.399   1.549 -0.0766 -0.6330 -0.1281
12439SOL    HW249297  10.943   5.372   1.459  0.6714  0.9209  0.3497
12440SOL     OW49298  11.430   8.534   4.954 -0.3034 -0.3360  0.3998
12440SOL    HW149299  11.338   8.541   4.929 -0.3462 -0.7595  0.4229
12440SOL    HW249300  11.428   8.515   5.048 -0.1843 -0.0382  0.4612
12441SOL     OW49301  10.303   2.685   9.920  0.5222 -1.2356 -0.7265
12441SOL    HW149302  10.211   2.658   9.926 -0.3565  1.7263  2.2606
12441SOL    HW249303  10.340   2.663  10.005  1.5616  0.7640 -0.6136
12442SOL     OW49304  10.659   6.390   3.664  0.6283 -0.4100 -0.1252
12442SOL    HW149305  10.637   6.431   3.747  2.0207  0.8851 -0.3453
12442SOL    HW249306  10.579   6.345   3.636 -0.9190  1.9580  0.2581
12443SOL     OW49307   2.723   6.002   1.242  0.3878  0.1673  0.1848
12443SOL    HW149308   2.806   5.955   1.254 -0.6217 -1.6617  0.3648
12443SOL    HW249309   2.733   6.081   1.295  1.4676 -0.7416  1.4003
12444SOL     OW49310   1.763   7.484   8.645  0.3665  0.1116  0.1516
12444SOL    HW149311   1.822   7.483   8.720 -0.2088  2.0422  0.6838
12444SOL    HW249312   1.775   7.571   8.607  2.0986 -1.4176 -3.2498
12445SOL     OW49313   8.157   0.511   1.712  0.0793  0.1255  0.2967
12445SOL    HW149314   8.095   0.579   1.688 -0.6577 -0.4673  0.4719
12445SOL    HW249315   8.223   0.512   1.643 -0.2616  0.6013 -0.0226
12446SOL     OW49316   4.653  11.583   3.591 -0.2488  0.2425  0.5814
12446SOL    HW149317   4.677  11.575   3.684 -0.7027 -1.6988  0.5784
12446SOL    HW249318   4.561  11.609   3.592  0.4338  2.9102  0.6130
12447SOL     OW49319   3.244  13.375   9.961  0.0617 -0.8376 -0.6226
12447SOL    HW149320   3.287  13.305   9.912 -0.5780 -0.5343 -1.6738
12447SOL    HW249321   3.188  13.418   9.896  0.7649  0.9267 -0.1088
12448SOL     OW49322   0.593   0.875   9.709 -0.2465 -0.0110  0.3812
12448SOL    HW149323   0.621   0.784   9.696  1.9871  0.6003  0.5759
12448SOL    HW249324   0.537   0.894   9.634  0.1350 -1.2167 -0.2348
12449SOL     OW49325   8.457  10.663   9.959  0.1376  0.2903 -0.8652
12449SOL    HW149326   8.502  10.748   9.966 -0.6320  0.5875  1.4903
12449SOL    HW249327   8.370  10.685   9.926 -0.2745  0.5326  0.3415
12450SOL     OW49328   2.172   8.499   6.047  0.2256  0.1111  0.4696
12450SOL    HW149329   2.260   8.492   6.085  1.1681  0.2703 -1.5302
12450SOL    HW249330   2.167   8.588   6.013  0.8973 -1.0290 -2.9444
12451SOL     OW49331   9.755   0.244  10.018 -0.2721 -0.0401  0.0724
12451SOL    HW149332   9.707   0.325  10.033 -0.2675  0.4900 -2.3403
12451SOL    HW249333   9.690   0.184   9.982  0.5901  0.4165 -2.4353
12452SOL     OW49334   7.016   1.759   8.496 -0.0598  0.1960 -0.1998
12452SOL    HW149335   6.981   1.844   8.469  1.2660  0.5894 -0.7355
12452SOL    HW249336   7.003   1.758   8.591 -0.5734  0.7669 -0.2552
12453SOL     OW49337   6.052   1.883   4.146  0.3259 -0.4684  0.3047
12453SOL    HW149338   5.982   1.818   4.148  0.0114 -0.1220  0.5049
12453SOL    HW249339   6.130   1.833   4.121 -0.1347 -0.7253 -0.6882
12454SOL     OW49340  12.271   6.796   1.563  0.0530 -0.4584  0.3286
12454SOL    HW149341  12.326   6.718   1.555 -0.2244 -0.7603  1.1813
12454SOL    HW249342  12.185   6.762   1.589 -0.4756  0.0262 -0.7435
12455SOL     OW49343   1.627   0.845   2.261 -0.3862  0.3749  0.5987
12455SOL    HW149344   1.559   0.801   2.209 -0.0125  0.1696  0.2789
12455SOL    HW249345   1.709   0.813   2.225 -0.1181  0.3849  1.1920
12456SOL     OW49346   7.332   2.065   8.967  0.3649  0.1056  0.0184
12456SOL    HW149347   7.355   1.997   8.904 -1.9258 -0.9967  0.2646
12456SOL    HW249348   7.267   2.118   8.921  1.0148  1.2429  0.3724
12457SOL     OW49349  13.540   2.825  11.171 -0.0062  0.1702 -0.0690
12457SOL    HW149350  13.473   2.863  11.115  1.4475  0.7447 -1.5216
12457SOL    HW249351  13.615   2.813  11.112  1.0946 -0.6254  1.4431
12458SOL     OW49352   6.686   3.124   2.721  0.0509 -0.0019 -1.0907
12458SOL    HW149353   6.599   3.111   2.757  0.2885 -1.2517 -0.9064
12458SOL    HW249354   6.723   3.036   2.714  2.8641  0.6051  2.7427
12459SOL     OW49355  10.383  13.383   9.703  0.6811 -0.2352  0.1473
12459SOL    HW149356  10.321  13.440   9.749 -0.8723 -2.3630  0.8998
12459SOL    HW249357  10.331  13.342   9.634  1.6974 -0.7954 -0.3025
12460SOL     OW49358   3.430  10.817  10.308 -0.2692 -0.0430  0.4059
12460SOL    HW149359   3.374  10.857  10.242  0.0001  1.6407  1.1580
12460SOL    HW249360   3.382  10.739  10.336 -0.6541 -0.4813 -1.3285
12461SOL     OW49361   1.950   8.757   3.916  0.0763 -0.1217 -0.0796
12461SOL    HW149362   1.975   8.760   3.823  0.1928 -0.4727 -0.0598
12461SOL    HW249363   1.929   8.665   3.932  0.3532 -0.1172  0.3190
12462SOL     OW49364  10.855   5.190  11.661  0.3108  0.8721 -0.4829
12462SOL    HW149365  10.789   5.242  11.708 -1.0697 -0.6350 -0.6696
12462SOL    HW249366  10.804   5.129  11.608  1.8653 -0.4111 -0.5652
12463SOL     OW49367   8.324   7.937   9.541  0.9568 -0.2952 -0.3277
12463SOL    HW149368   8.327   7.982   9.625 -0.6682  0.7142 -0.7798
12463SOL    HW249369   8.334   7.844   9.563  0.9322 -0.0097  0.9409
12464SOL     OW49370   2.415   5.183  12.840 -0.3713  0.1936  0.3093
12464SOL    HW149371   2.398   5.220  12.754 -0.4755 -0.4335  0.0568
12464SOL    HW249372   2.360   5.105  12.845  0.2757 -0.2586  0.5955
12465SOL     OW49373   4.743  12.841  10.744 -0.0684  0.5208 -0.0595
12465SOL    HW149374   4.711  12.857  10.655 -0.9532  0.9169  0.3166
12465SOL    HW249375   4.678  12.783  10.782  0.3517  0.2868  0.3110
12466SOL     OW49376  11.330   7.292   6.724  0.4446  0.2159 -0.1091
12466SOL    HW149377  11.375   7.351   6.784  1.0575 -1.4971  1.1766
12466SOL    HW249378  11.238   7.315   6.732  0.6597  0.9341  0.4116
12467SOL     OW49379  11.778   6.196   3.757 -0.2074  0.0115 -0.0491
12467SOL    HW149380  11.810   6.185   3.667 -4.0130 -0.2114 -1.5450
12467SOL    HW249381  11.725   6.117   3.773 -1.9339  1.3627  1.2648
12468SOL     OW49382   0.372   1.731  13.809 -0.5775 -0.5014 -0.0858
12468SOL    HW149383   0.422   1.649  13.800  1.2656  0.7410 -2.1424
12468SOL    HW249384   0.438   1.798  13.826 -1.7923  0.9151 -0.7273
12469SOL     OW49385   8.088   9.500   8.345 -0.6105  0.4914  0.2240
12469SOL    HW149386   8.104   9.478   8.436 -2.2715 -1.1305  0.1790
12469SOL    HW249387   8.148   9.444   8.295 -1.9491 -1.0569  0.2611
12470SOL     OW49388  13.784  13.130  13.121  0.5290  0.2920  0.2997
12470SOL    HW149389  13.806  13.037  13.111 -0.6681  0.0986 -0.7106
12470SOL    HW249390  13.822  13.155  13.205  3.3688 -0.3700 -0.6591
12471SOL     OW49391  12.789  10.821  11.522 -0.0434  0.2523  0.5163
12471SOL    HW149392  12.738  10.846  11.445 -1.3088  1.0185  1.5480
12471SOL    HW249393  12.766  10.729  11.538  3.4136 -1.3646 -2.3621
12472SOL     OW49394  11.196   5.603   0.421 -0.2551  1.1076  0.3769
12472SOL    HW149395  11.129   5.593   0.354  0.0190  0.3034  0.2120
12472SOL    HW249396  11.189   5.694   0.448  0.6623  1.9051 -1.8332
12473SOL     OW49397   9.321  12.217  10.602 -0.1449 -0.0502 -0.0529
12473SOL    HW149398   9.333  12.303  10.643 -1.1460 -1.1438  2.7610
12473SOL    HW249399   9.251  12.230  10.538  1.1921  1.6392 -1.2723
12474SOL     OW49400   4.755  12.605   7.712 -0.5268  0.3599 -0.3493
12474SOL    HW149401   4.733  12.515   7.687  1.1665 -0.9693  2.4755
12474SOL    HW249402   4.717  12.616   7.799 -0.4353  2.2854 -0.5266
12475SOL     OW49403   2.503   2.213  13.566  0.1290  0.1425  0.1498
12475SOL    HW149404   2.531   2.246  13.480 -0.0999  1.4809  0.5525
12475SOL    HW249405   2.410   2.195  13.555  0.6570 -2.5391 -0.6711
12476SOL     OW49406  11.554   9.791  11.489 -0.2357 -0.1839 -0.1411
12476SOL    HW149407  11.507   9.727  11.435  0.0046 -1.8037  1.4713
12476SOL    HW249408  11.634   9.746  11.516 -0.5252  0.3898  1.8527
12477SOL     OW49409   2.255  10.002   9.736  0.3458 -0.0487 -0.3986
12477SOL    HW149410   2.349  10.005   9.720  0.7495 -1.3699  1.4282
12477SOL    HW249411   2.239   9.914   9.770 -1.8384 -0.4179 -2.1684
12478SOL     OW49412   9.072  12.949  11.417 -0.1550  0.6833 -0.0189
12478SOL    HW149413   8.989  12.995  11.412 -0.7275 -0.3805 -0.7689
12478SOL    HW249414   9.113  12.962  11.331 -0.4970 -0.4711 -0.3812
12479SOL     OW49415   4.622   7.191  11.006  0.7860  0.4016 -0.3835
12479SOL    HW149416   4.646   7.113  10.956  1.3851  1.0882 -1.1941
12479SOL    HW249417   4.701   7.212  11.056  1.3103  1.6299 -1.6904
12480SOL     OW49418  10.284   9.164  11.113  0.1513 -0.3946 -0.1006
12480SOL    HW149419  10.377   9.181  11.095  0.0721  0.8213  0.5526
12480SOL    HW249420  10.272   9.191  11.204 -1.3198  1.5930 -0.8279
12481SOL     OW49421  10.368  12.347   9.152 -0.0047 -0.2047 -0.3031
12481SOL    HW149422  10.425  12.326   9.078  1.6799  0.7643  0.6517
12481SOL    HW249423  10.302  12.407   9.115  0.5362 -0.0872 -1.1021
12482SOL     OW49424   4.530   9.732  14.006  0.0286 -0.7181 -0.0522
12482SOL    HW149425   4.585   9.777  14.070  1.0052 -0.7821 -0.8137
12482SOL    HW249426   4.491   9.803  13.954 -0.2064 -0.6895  0.1619
12483SOL     OW49427  10.198   2.098   6.876  0.5375 -0.1821 -0.3218
12483SOL    HW149428  10.131   2.136   6.932 -0.6282 -1.0228 -1.0976
12483SOL    HW249429  10.150   2.068   6.798  1.9531  0.0578 -1.3266
12484SOL     OW49430  13.363   7.585   8.732 -0.5867  0.1188  0.0761
12484SOL    HW149431  13.273   7.612   8.751 -0.0017  0.7736  2.1831
12484SOL    HW249432  13.387   7.530   8.807  1.0360  0.6646 -0.0171
12485SOL     OW49433   4.806   7.328  13.388 -0.2950 -0.0695  0.5689
12485SOL    HW149434   4.759   7.409  13.367  0.5601  0.1808 -0.4662
12485SOL    HW249435   4.826   7.336  13.481  1.7707  2.0170  0.0424
12486SOL     OW49436   7.746   1.849   6.523 -0.4995  0.1587  0.0160
12486SOL    HW149437   7.773   1.762   6.495  0.7921  0.5805 -0.1149
12486SOL    HW249438   7.827   1.894   6.545 -1.1655  1.2367  0.3691
12487SOL     OW49439   0.684   6.155   9.472  0.2415 -0.4123 -0.5833
12487SOL    HW149440   0.731   6.124   9.549 -0.6071  0.4918  0.3266
12487SOL    HW249441   0.746   6.213   9.428  0.3065  0.0537  0.1065
12488SOL     OW49442   0.506  10.853   0.567 -0.8083  0.1352  0.1007
12488SOL    HW149443   0.498  10.800   0.488 -1.1454 -0.3868  0.4807
12488SOL    HW249444   0.567  10.805   0.623  0.0857  0.9152 -0.1723
12489SOL     OW49445   4.436   6.705  13.693 -0.0222 -0.6305 -0.0597
12489SOL    HW149446   4.424   6.751  13.776  0.8772  0.3345 -0.4412
12489SOL    HW249447   4.357   6.725  13.644  0.6659  1.2425 -0.5233
12490SOL     OW49448   3.944   9.625   5.732  0.2821  0.4758 -0.3668
12490SOL    HW149449   3.849   9.624   5.737  0.3005  0.9517  0.0340
12490SOL    HW249450   3.973   9.616   5.822  0.6197  0.6367 -0.4589
12491SOL     OW49451  10.506  12.577  13.939 -0.9648 -0.2397  0.2070
12491SOL    HW149452  10.491  12.621  13.856  1.8356  1.3412  0.3939
12491SOL    HW249453  10.561  12.502  13.917  2.1996  1.7247  0.7300
12492SOL     OW49454   8.195  13.763   4.407 -0.7305  0.2189 -0.7100
12492SOL    HW149455   8.230  13.674   4.402 -0.8574  0.1603 -0.5655
12492SOL    HW249456   8.235  13.809   4.333  1.1734  0.6988  0.5508
12493SOL     OW49457   8.489   0.020   9.503 -0.4137 -0.5503 -0.6056
12493SOL    HW149458   8.514  -0.002   9.413 -0.1213  1.8532 -1.1606
12493SOL    HW249459   8.565  -0.007   9.556 -0.6146 -2.0345 -1.0277
12494SOL     OW49460   6.701   7.400   3.509 -0.0043  0.1805  0.4598
12494SOL    HW149461   6.748   7.327   3.551  1.2962  0.3838 -0.5808
12494SOL    HW249462   6.665   7.362   3.429  0.6219  0.6519 -0.0539
12495SOL     OW49463   3.821   8.244   4.699  0.5185 -0.4343 -0.0080
12495SOL    HW149464   3.736   8.287   4.705  0.9167  0.6092 -1.3353
12495SOL    HW249465   3.880   8.312   4.666  1.7639 -1.2769  0.4017
12496SOL     OW49466   2.367   8.542   1.588  0.2809  0.2531 -0.0199
12496SOL    HW149467   2.364   8.573   1.497 -1.7254 -1.4104 -0.6153
12496SOL    HW249468   2.330   8.614   1.639  0.0335  0.6500 -0.7336
12497SOL     OW49469  12.555   6.765   3.656 -0.6537  0.2339  0.2641
12497SOL    HW149470  12.577   6.744   3.566 -0.8525 -0.7677  0.4458
12497SOL    HW249471  12.460   6.774   3.657 -0.7075 -0.3515  0.4957
12498SOL     OW49472   5.132  10.888   0.723  0.0933  0.7929  0.4107
12498SOL    HW149473   5.200  10.821   0.729  1.6612  2.1224 -1.2483
12498SOL    HW249474   5.163  10.959   0.779 -0.9458  0.6369  1.2031
12499SOL     OW49475   9.273   7.698   2.536 -0.3629  0.0930 -0.0647
12499SOL    HW149476   9.231   7.625   2.490 -1.5119 -0.1500  1.2761
12499SOL    HW249477   9.367   7.684   2.524 -0.5906  0.1599 -2.4491
12500SOL     OW49478   2.821   2.398   4.287  0.2614 -0.0686 -0.2596
12500SOL    HW149479   2.849   2.451   4.361 -0.0487 -1.9933  1.3318
12500SOL    HW249480   2.862   2.312   4.301 -0.0528 -0.5920 -2.1638
12501SOL     OW49481   1.275   2.562   2.215 -0.0527  0.5064  0.1566
12501SOL    HW149482   1.187   2.528   2.198  0.6857 -0.2999 -2.4879
12501SOL    HW249483   1.297   2.528   2.302 -0.7706 -2.8858 -0.8500
12502SOL     OW49484   1.039   5.346  10.760 -0.2776 -0.1095 -0.4315
12502SOL    HW149485   1.036   5.253  10.739 -0.3686 -0.0036 -0.8999
12502SOL    HW249486   1.055   5.389  10.676 -2.0208  0.4250 -0.5273
12503SOL     OW49487   2.031   8.597   0.194 -0.4644  0.1355 -0.0195
12503SOL    HW149488   2.126   8.597   0.197 -0.4838  0.0461  0.7723
12503SOL    HW249489   2.009   8.633   0.108  0.2934 -0.8663 -0.6472
12504SOL     OW49490  10.262   2.562   0.022 -0.4630  0.5543 -0.0519
12504SOL    HW149491  10.194   2.505  -0.012 -0.3447  1.5294 -2.1026
12504SOL    HW249492  10.336   2.550  -0.038  1.7029 -1.3092  2.6991
12505SOL     OW49493  13.266   2.696  14.012  0.0756 -0.4333  0.4388
12505SOL    HW149494  13.318   2.651  13.945  0.8294 -0.6566  1.1530
12505SOL    HW249495  13.273   2.641  14.089 -0.7597 -0.1612  0.7175
12506SOL     OW49496   1.948   2.486  10.182 -0.1001 -0.1349  0.2734
12506SOL    HW149497   1.964   2.575  10.211  1.9352 -0.2159 -0.4396
12506SOL    HW249498   1.934   2.493  10.087  0.7743 -0.5936  0.0866
12507SOL     OW49499  11.382  13.478   0.468 -0.0030  0.4356  0.0110
12507SOL    HW149500  11.427  13.533   0.404  0.6444 -1.1983 -1.0009
12507SOL    HW249501  11.452  13.430   0.512 -0.6530 -1.1990 -0.6839
12508SOL     OW49502   6.084   0.347   2.889 -0.0024  0.0917 -0.1146
12508SOL    HW149503   6.030   0.415   2.929 -1.0820 -1.0850  0.5016
12508SOL    HW249504   6.039   0.265   2.910  1.7925 -0.9098  0.0409
12509SOL     OW49505  13.800   4.734   4.570 -0.5637 -0.3046  0.7165
12509SOL    HW149506  13.820   4.826   4.590 -2.1513  0.3600 -0.5342
12509SOL    HW249507  13.712   4.736   4.534 -0.2868 -2.2220 -0.1809
12510SOL     OW49508   5.729  12.898   0.220  0.2460 -0.5784  0.6234
12510SOL    HW149509   5.772  12.825   0.264  1.7133 -0.7580 -0.9729
12510SOL    HW249510   5.779  12.910   0.139 -0.1705  1.9601  0.6417
12511SOL     OW49511   4.300  13.059   4.251 -0.5016 -0.7466 -0.2880
12511SOL    HW149512   4.294  13.145   4.209 -0.7249 -1.5028 -1.8966
12511SOL    HW249513   4.209  13.033   4.265 -0.4284 -0.5667  0.5569
12512SOL     OW49514   5.240   4.044   5.840 -0.3223 -0.1211 -0.0378
12512SOL    HW149515   5.258   4.124   5.889 -0.9749  0.2284 -0.3609
12512SOL    HW249516   5.240   3.974   5.905 -1.6352  0.3924  0.5387
12513SOL     OW49517   5.492   0.509   8.032  0.0318  0.0443 -0.2419
12513SOL    HW149518   5.533   0.594   8.015 -0.5078  0.3644  0.0351
12513SOL    HW249519   5.554   0.463   8.088 -0.1881  0.7008  0.5483
12514SOL     OW49520   3.585   6.206   5.060  0.2073 -0.3493  0.2176
12514SOL    HW149521   3.631   6.124   5.044  0.5910 -0.1270  0.1881
12514SOL    HW249522   3.532   6.188   5.138  0.1378 -0.6860  0.0940
12515SOL     OW49523   3.929   4.224   4.959 -0.4367  0.0270 -0.1068
12515SOL    HW149524   3.889   4.139   4.945 -0.3207 -0.2464  1.0601
12515SOL    HW249525   3.884   4.258   5.037  2.1019 -0.6711  1.7924
12516SOL     OW49526   8.350  12.956  12.659  0.2208  0.1973  0.6182
12516SOL    HW149527   8.418  12.916  12.713  0.2094 -2.3519 -1.0666
12516SOL    HW249528   8.273  12.900  12.673 -0.4651  0.9058 -0.2251
12517SOL     OW49529   1.002   3.018   6.794 -0.0501 -0.5926  0.2716
12517SOL    HW149530   0.986   2.941   6.849  0.1708  0.6835  2.2523
12517SOL    HW249531   0.933   3.016   6.728 -0.0880 -2.4259  0.3210
12518SOL     OW49532   5.633  11.019   7.530  0.1683  0.2017  0.6584
12518SOL    HW149533   5.597  11.036   7.444  0.3973 -2.4971 -0.0826
12518SOL    HW249534   5.728  11.019   7.517  0.1939 -1.1482  0.6278
12519SOL     OW49535   2.769  12.670   9.301 -0.1462  0.1732  0.4892
12519SOL    HW149536   2.682  12.634   9.315 -0.5570  0.6316 -0.7997
12519SOL    HW249537   2.801  12.628   9.222  0.7798  0.0766  0.8994
12520SOL     OW49538   7.218   9.270   8.648  0.2254  0.1477  0.2283
12520SOL    HW149539   7.228   9.364   8.660 -0.3841  0.1635  0.6551
12520SOL    HW249540   7.174   9.260   8.564  3.4449  0.0831 -1.5936
12521SOL     OW49541   8.216   5.107   4.227  0.0748  0.4399  0.4446
12521SOL    HW149542   8.181   5.192   4.251 -0.5152  0.1199  0.7290
12521SOL    HW249543   8.153   5.072   4.165 -0.3662 -0.3373  1.3114
12522SOL     OW49544   3.958  11.550   6.654  0.3931 -0.3524 -0.1568
12522SOL    HW149545   3.982  11.479   6.713 -1.5654 -1.1874 -0.2860
12522SOL    HW249546   3.940  11.624   6.712  1.5064 -0.2218  0.0443
12523SOL     OW49547   2.637   7.641   1.575  0.4316  0.4779  0.4288
12523SOL    HW149548   2.555   7.691   1.577 -0.4146 -0.8908  2.1391
12523SOL    HW249549   2.702   7.703   1.608  0.2921  1.8068 -1.5888
12524SOL     OW49550   0.821  12.198   6.402  0.5576 -0.6881  0.7634
12524SOL    HW149551   0.896  12.194   6.461  1.1681  1.0197  0.1537
12524SOL    HW249552   0.787  12.287   6.412 -0.0690 -0.7504 -0.5597
12525SOL     OW49553  13.274  10.738  12.042  0.2368 -0.4914 -0.0787
12525SOL    HW149554  13.203  10.743  12.107 -0.9035 -0.9368 -1.2492
12525SOL    HW249555  13.336  10.805  12.070  0.1989 -1.2117  1.9387
12526SOL     OW49556  11.692   4.910   9.800 -0.6448  0.4231 -0.0616
12526SOL    HW149557  11.737   4.877   9.723 -0.3350  1.6097 -0.4065
12526SOL    HW249558  11.750   4.888   9.873 -0.2694  0.5416 -0.3215
12527SOL     OW49559  13.553   7.404  11.180 -0.2344 -0.1705 -0.0247
12527SOL    HW149560  13.574   7.334  11.118 -1.6460  0.4099 -1.2217
12527SOL    HW249561  13.638   7.441  11.204  0.4326 -1.3711 -0.4711
12528SOL     OW49562  11.556   4.705   1.934  0.1840 -0.5346  0.2330
12528SOL    HW149563  11.542   4.674   2.023 -0.5110  0.0220  0.3200
12528SOL    HW249564  11.471   4.697   1.892  0.6312 -1.3298 -0.5591
12529SOL     OW49565  10.929   4.076  10.445  0.6570  0.4867  0.0431
12529SOL    HW149566  10.857   4.137  10.460  0.8767  0.7507  0.0468
12529SOL    HW249567  10.913   4.003  10.505  0.2432  0.4124 -0.1592
12530SOL     OW49568   4.483   7.007   0.905  0.0733 -0.0730  0.2066
12530SOL    HW149569   4.499   7.039   0.994 -1.4233 -0.0515  0.5038
12530SOL    HW249570   4.442   7.081   0.860 -0.9056 -0.6716  0.0797
12531SOL     OW49571  13.329   2.992   4.633 -0.1912  0.0082  0.0522
12531SOL    HW149572  13.307   3.059   4.569 -0.7225 -0.5285 -0.3424
12531SOL    HW249573  13.252   2.986   4.690 -0.6815 -1.1297 -0.6820
12532SOL     OW49574   9.459   7.827  13.285  0.5574 -0.2664 -0.0943
12532SOL    HW149575   9.535   7.796  13.334  0.4562  1.5481  1.3210
12532SOL    HW249576   9.416   7.889  13.344 -0.6165  0.6286 -1.8078
12533SOL     OW49577   9.258   6.889   3.904 -0.5109 -0.0653 -0.1169
12533SOL    HW149578   9.227   6.861   3.990  0.2638 -0.9305 -0.1108
12533SOL    HW249579   9.351   6.908   3.917 -0.5569  0.5364 -0.6025
12534SOL     OW49580  11.205  12.645   1.542  0.2415 -0.1952  0.1650
12534SOL    HW149581  11.226  12.557   1.573 -0.7665 -0.1501  1.0525
12534SOL    HW249582  11.275  12.700   1.577  0.0344 -0.4228  0.9785
12535SOL     OW49583   1.073   8.972   4.560 -0.3496 -0.3953  0.5172
12535SOL    HW149584   1.166   8.977   4.541 -0.6081  1.6930 -0.5332
12535SOL    HW249585   1.031   9.019   4.488 -2.2262 -1.2643  0.9652
12536SOL     OW49586   7.074   8.271   2.360  0.4557  0.1144 -0.0515
12536SOL    HW149587   7.090   8.180   2.383  0.2276  0.2844  0.8587
12536SOL    HW249588   7.060   8.314   2.445  0.4157  0.9624 -0.4783
12537SOL     OW49589  12.937  10.523   8.249  0.4985 -0.1927  0.6730
12537SOL    HW149590  12.957  10.542   8.341  1.5341 -0.4870  0.5243
12537SOL    HW249591  12.972  10.598   8.201  1.0620 -0.6153  0.4194
12538SOL     OW49592  12.298   5.405   5.865  0.1020 -0.0533 -0.3262
12538SOL    HW149593  12.384   5.408   5.824  0.0910 -0.1981 -0.3611
12538SOL    HW249594  12.311   5.351   5.943  0.3627  1.0630  0.4276
12539SOL     OW49595   0.111   7.950   2.046 -0.4068  0.2252 -1.0681
12539SOL    HW149596   0.171   8.012   2.087 -0.9563 -0.6108  1.1528
12539SOL    HW249597   0.086   7.890   2.117  0.0468 -2.5394 -3.0638
12540SOL     OW49598  10.124   5.115   9.269  0.1082 -0.2717  0.2024
12540SOL    HW149599  10.110   5.079   9.181  0.2347 -0.9157  0.4413
12540SOL    HW249600  10.036   5.137   9.300  0.1722  1.2982 -0.6323
12541SOL     OW49601  10.762   3.857   3.620  0.0155 -0.0593 -0.0112
12541SOL    HW149602  10.731   3.881   3.708  0.3953 -1.3476  0.4960
12541SOL    HW249603  10.856   3.842   3.632  0.0974 -0.0870 -0.6784
12542SOL     OW49604  12.035   4.129   1.249 -0.5504 -0.7155 -0.0512
12542SOL    HW149605  11.956   4.182   1.257  0.3518  0.7556 -0.6006
12542SOL    HW249606  12.073   4.154   1.165  1.3177 -0.2398  0.8783
12543SOL     OW49607   6.900   1.693   9.002  0.0486  0.4535 -0.2769
12543SOL    HW149608   6.958   1.763   9.031  0.5164  0.3236 -0.8681
12543SOL    HW249609   6.958   1.618   8.989 -0.5394 -0.2502  0.9873
12544SOL     OW49610   4.565   5.320  10.160 -0.2485 -0.2060 -0.1480
12544SOL    HW149611   4.567   5.263  10.083 -1.3115  0.5524 -0.7493
12544SOL    HW249612   4.562   5.259  10.234 -1.5352 -0.9535 -0.7774
12545SOL     OW49613  12.176  13.841  13.759  0.2500 -0.0099 -0.7368
12545SOL    HW149614  12.167  13.852  13.854  0.2342 -1.0164 -0.6085
12545SOL    HW249615  12.213  13.753  13.749 -0.8309 -0.3722 -1.6973
12546SOL     OW49616   3.587   4.785   7.720 -0.1320  0.2670  0.7366
12546SOL    HW149617   3.594   4.789   7.816 -0.3112  3.7300  0.7034
12546SOL    HW249618   3.642   4.856   7.689 -0.5738 -0.3993 -1.7574
12547SOL     OW49619  11.690  10.922  11.850 -0.2903  0.0565 -0.0531
12547SOL    HW149620  11.626  10.900  11.917 -1.6483  0.2583 -1.2430
12547SOL    HW249621  11.650  10.993  11.801  0.7259 -0.0144 -1.0268
12548SOL     OW49622   9.047   2.498   1.907 -0.0188  0.2718 -0.0952
12548SOL    HW149623   9.119   2.435   1.906  0.1650  0.4817 -0.0492
12548SOL    HW249624   8.978   2.454   1.958 -0.2057 -0.2361 -0.7795
12549SOL     OW49625  10.952  13.974   8.553 -0.6368 -0.1870 -0.3482
12549SOL    HW149626  10.877  14.032   8.547  0.2530  0.9510 -0.8603
12549SOL    HW249627  11.027  14.028   8.528  0.4622 -1.0943  0.8480
12550SOL     OW49628  11.310   1.415   7.301 -0.0590  0.3503  0.0707
12550SOL    HW149629  11.231   1.457   7.332 -0.2827 -0.5504  0.7778
12550SOL    HW249630  11.292   1.394   7.209 -1.6857 -2.1253  0.8577
12551SOL     OW49631   2.391   1.989  12.555 -0.1024 -0.0109 -0.1788
12551SOL    HW149632   2.347   1.938  12.624  0.0337  0.3344  0.1708
12551SOL    HW249633   2.320   2.033  12.509 -0.3171 -1.3397 -1.1826
12552SOL     OW49634  10.056   9.034   1.211 -0.2479  0.1414  0.1315
12552SOL    HW149635   9.989   9.088   1.169  1.0547  0.9577 -0.9528
12552SOL    HW249636  10.083   8.972   1.144  0.5314  0.2338  0.3534
12553SOL     OW49637   4.329  13.407   4.562  0.8770 -0.0903 -0.4520
12553SOL    HW149638   4.249  13.447   4.597 -1.3565 -1.7609 -3.2641
12553SOL    HW249639   4.347  13.334   4.621 -0.6598 -0.6783 -0.6774
12554SOL     OW49640   2.625  12.361   2.146  0.7499  0.0097  0.8463
12554SOL    HW149641   2.552  12.410   2.184 -0.3697  0.2469 -1.4397
12554SOL    HW249642   2.691  12.427   2.126  1.8273 -0.2456  3.2316
12555SOL     OW49643   9.633   5.710   2.853 -0.5960  0.3231  0.1894
12555SOL    HW149644   9.623   5.670   2.767 -0.4233 -0.1439  0.3807
12555SOL    HW249645   9.647   5.803   2.835 -0.4155  0.2067 -0.2943
12556SOL     OW49646   3.301   3.273  13.612  0.1278 -0.2750  0.3115
12556SOL    HW149647   3.350   3.216  13.553  0.6569  0.2650  0.2184
12556SOL    HW249648   3.219   3.227  13.628  0.1407 -0.6032 -0.5443
12557SOL     OW49649   7.529   4.050   6.971 -0.2307 -0.5939 -0.1004
12557SOL    HW149650   7.499   3.980   6.914 -0.9273 -1.3729  1.1921
12557SOL    HW249651   7.476   4.042   7.051 -0.2537  1.3301  0.1309
12558SOL     OW49652   5.176  13.129  13.913 -0.0506 -0.5622 -0.1080
12558SOL    HW149653   5.257  13.132  13.862 -0.1546 -1.8199 -0.3848
12558SOL    HW249654   5.197  13.177  13.993  0.9920 -0.9044 -0.1494
12559SOL     OW49655   0.849  13.827   0.461  0.3769 -0.1137 -0.5100
12559SOL    HW149656   0.820  13.878   0.385  1.4277 -1.0746 -1.5986
12559SOL    HW249657   0.938  13.800   0.439 -1.0251 -4.9848 -1.4865
12560SOL     OW49658   9.222   9.389   9.834  0.0201 -0.0687 -0.3374
12560SOL    HW149659   9.225   9.353   9.923 -1.3854  0.1060 -0.1996
12560SOL    HW249660   9.193   9.479   9.846 -0.7565 -0.2205 -1.0118
12561SOL     OW49661   9.824   7.515   8.983 -0.0326 -0.7262 -0.6912
12561SOL    HW149662   9.883   7.440   8.985  0.7789 -0.0876  1.3281
12561SOL    HW249663   9.791   7.516   8.893 -1.1093 -4.2573 -0.5063
12562SOL     OW49664   1.230   0.777   9.186 -0.1836  0.4177 -0.4601
12562SOL    HW149665   1.282   0.855   9.167 -0.7935  0.7715 -0.7110
12562SOL    HW249666   1.291   0.704   9.177 -0.0547  0.6949 -2.2194
12563SOL     OW49667   3.146   2.043   5.177 -0.3647  0.0267  0.4250
12563SOL    HW149668   3.172   1.999   5.096  0.4239  0.2930  0.5246
12563SOL    HW249669   3.229   2.064   5.221 -0.7719  0.2353  1.1146
12564SOL     OW49670   5.945   2.857  10.027 -0.5485  0.5206 -0.4938
12564SOL    HW149671   5.867   2.821   9.987  0.2037 -2.2360  0.2948
12564SOL    HW249672   5.921   2.872  10.119 -0.4782  0.7560 -0.5132
12565SOL     OW49673   1.168  12.903   0.997 -0.2614 -0.7588 -0.4422
12565SOL    HW149674   1.245  12.874   1.046  0.2363  1.5598  0.2621
12565SOL    HW249675   1.182  12.997   0.982 -1.9917 -0.6908 -2.1256
12566SOL     OW49676  10.919  13.775   4.607  0.1406 -0.1048 -0.1649
12566SOL    HW149677  10.887  13.685   4.599  1.7577 -0.6990 -0.5198
12566SOL    HW249678  10.959  13.778   4.694 -1.7049  0.9366  0.7063
12567SOL     OW49679  11.291  12.183   8.021 -0.1634  0.0019 -0.0958
12567SOL    HW149680  11.287  12.088   8.028 -0.2679 -0.1028 -1.3045
12567SOL    HW249681  11.380  12.202   7.991 -0.5773  0.1470 -1.3152
12568SOL     OW49682   0.073  13.002   7.502  0.4702  0.1516 -0.4887
12568SOL    HW149683   0.072  12.906   7.498 -1.0050 -0.0437  1.9732
12568SOL    HW249684   0.141  13.022   7.566 -0.6640  0.5651  0.6300
12569SOL     OW49685   5.630   3.210  11.375 -0.1012 -0.6132  0.2299
12569SOL    HW149686   5.722   3.183  11.382  0.6024  1.5091  0.0207
12569SOL    HW249687   5.587   3.170  11.450  0.8206 -2.2033 -0.0417
12570SOL     OW49688   3.357   7.026   7.698 -0.2105  0.0941  0.1861
12570SOL    HW149689   3.276   7.077   7.701  0.9404  2.1777 -1.4698
12570SOL    HW249690   3.407   7.065   7.627  1.8657 -1.7747  0.5212
12571SOL     OW49691   0.299   1.090   0.321  0.0252 -0.2721  0.1404
12571SOL    HW149692   0.358   1.021   0.352 -1.5614 -1.3254  0.8869
12571SOL    HW249693   0.355   1.144   0.264  1.4661 -1.7844  0.0384
12572SOL     OW49694   2.753   5.178   1.311 -0.3856 -0.2374  0.7890
12572SOL    HW149695   2.785   5.178   1.401 -0.6342  1.0971  0.8975
12572SOL    HW249696   2.657   5.180   1.320 -0.4058  0.0985  0.5019
12573SOL     OW49697   0.460   0.700  11.521 -0.2784 -0.5065 -0.6537
12573SOL    HW149698   0.520   0.755  11.472 -0.3346 -1.8185 -2.2893
12573SOL    HW249699   0.393   0.675  11.458 -2.6021  0.8733  1.0873
12574SOL     OW49700   5.691   5.159   0.048  0.2178  0.3167 -0.8090
12574SOL    HW149701   5.607   5.198   0.072  1.0948  0.4831  2.4542
12574SOL    HW249702   5.735   5.227  -0.002 -0.4946  1.3397 -0.0834
12575SOL     OW49703   4.899   1.226   7.707 -0.2559  0.0071  0.2311
12575SOL    HW149704   4.921   1.310   7.747  1.2380  0.4852 -1.4748
12575SOL    HW249705   4.915   1.161   7.776 -1.2295  1.0703  1.5000
12576SOL     OW49706   3.198   0.524   7.923 -0.3309 -0.1100 -0.7591
12576SOL    HW149707   3.110   0.497   7.948 -0.7132 -1.5265 -3.3279
12576SOL    HW249708   3.233   0.450   7.875  1.4214  1.2719 -1.7265
12577SOL     OW49709   6.946  12.028   4.142  0.3911  0.2401  0.2294
12577SOL    HW149710   6.944  12.108   4.089  0.5946 -0.9610 -1.6807
12577SOL    HW249711   6.865  12.031   4.193  0.8729  2.1260  0.9757
12578SOL     OW49712   2.717   6.827   0.508  0.0829 -0.4064 -0.1429
12578SOL    HW149713   2.782   6.888   0.471 -2.7214  3.4082  0.6606
12578SOL    HW249714   2.673   6.790   0.431  1.4930 -1.1356 -0.6403
12579SOL     OW49715  10.613   5.121   5.296  0.3590  0.4381 -0.8913
12579SOL    HW149716  10.594   5.118   5.390  0.4580  0.8106 -0.8551
12579SOL    HW249717  10.690   5.065   5.285  0.4295  0.5037 -0.7277
12580SOL     OW49718  13.566  12.853   1.284  0.6882  0.1726  0.3240
12580SOL    HW149719  13.593  12.909   1.212  0.7990 -0.3050 -0.0073
12580SOL    HW249720  13.475  12.878   1.301 -0.4857 -1.9323 -2.1671
12581SOL     OW49721  13.692   2.244   1.176 -0.0235 -0.4496 -0.3434
12581SOL    HW149722  13.632   2.215   1.244  0.4080  1.5346  0.9934
12581SOL    HW249723  13.736   2.320   1.215  1.1173  0.0153 -2.4174
12582SOL     OW49724   5.584   9.780  13.251 -0.0045  0.2217  0.1388
12582SOL    HW149725   5.578   9.735  13.167  2.0625  2.7407 -1.5075
12582SOL    HW249726   5.633   9.720  13.307 -0.4319 -1.0338 -0.7854
12583SOL     OW49727   1.564   4.138   3.113 -0.0939  0.0951  0.2776
12583SOL    HW149728   1.552   4.167   3.023 -0.8612  0.5796  0.5297
12583SOL    HW249729   1.488   4.083   3.132  0.4558 -0.6419  0.3831
12584SOL     OW49730   9.467   0.328   2.803 -0.2934  0.3183  0.3070
12584SOL    HW149731   9.388   0.275   2.809  0.3174 -0.5218  1.5418
12584SOL    HW249732   9.473   0.371   2.888  1.5386 -1.1279  0.9948
12585SOL     OW49733  13.610  13.078   6.939 -0.2147 -0.2785  0.1785
12585SOL    HW149734  13.547  13.143   6.906 -0.0533 -0.8019 -1.2447
12585SOL    HW249735  13.623  13.018   6.865  0.3240 -1.4141  1.1701
12586SOL     OW49736   3.697   4.818   3.658 -0.3556  0.2287  0.1528
12586SOL    HW149737   3.685   4.724   3.647 -1.2617  0.5536 -2.0307
12586SOL    HW249738   3.735   4.826   3.746  1.2278 -2.2602 -0.1903
12587SOL     OW49739   9.237  12.048   4.644  0.2766  0.4525 -0.4508
12587SOL    HW149740   9.227  12.077   4.553  0.1988 -0.2536 -0.6722
12587SOL    HW249741   9.261  12.127   4.692  0.6936  0.7563 -1.1535
12588SOL     OW49742   8.776   5.725   3.249 -0.0946 -0.0588 -0.5774
12588SOL    HW149743   8.815   5.787   3.188  0.9611  0.2978  0.4310
12588SOL    HW249744   8.848   5.667   3.274 -0.0196  0.9498  1.7425
12589SOL     OW49745  11.347   1.255  11.808 -0.7444  0.3476  0.0793
12589SOL    HW149746  11.413   1.316  11.775 -1.8884  2.2510  1.1330
12589SOL    HW249747  11.264   1.287  11.773 -1.1550 -2.4132 -1.8134
12590SOL     OW49748   0.174   6.517  11.043  0.1925 -0.7810 -0.6474
12590SOL    HW149749   0.236   6.590  11.052  0.2793 -0.6655 -1.9282
12590SOL    HW249750   0.103   6.553  10.990 -0.8255 -1.0179  0.5038
12591SOL     OW49751   5.907   7.065   6.749  0.3485 -0.1314  0.1712
12591SOL    HW149752   5.906   6.996   6.683 -0.7508  0.7515 -0.7707
12591SOL    HW249753   5.874   7.142   6.704  0.0087  0.6155  1.6405
12592SOL     OW49754   2.943  11.060   7.127  0.6668  0.0842  0.4330
12592SOL    HW149755   2.988  11.142   7.148 -0.8038  0.4975  2.2329
12592SOL    HW249756   2.859  11.088   7.089  0.0267 -0.5310  1.3386
12593SOL     OW49757   2.723   6.901   2.508 -0.2495 -0.2393  0.1561
12593SOL    HW149758   2.759   6.852   2.434 -0.9016 -0.4189 -0.0426
12593SOL    HW249759   2.628   6.897   2.496 -0.3106  1.5172 -0.1365
12594SOL     OW49760  13.682   3.325   8.477 -0.2862 -0.4675  0.1342
12594SOL    HW149761  13.742   3.269   8.525  0.9145 -0.2121 -1.0172
12594SOL    HW249762  13.599   3.317   8.525  0.9472  0.1904  2.5366
12595SOL     OW49763   1.402  13.203   5.868  0.5748  0.6552 -0.3310
12595SOL    HW149764   1.458  13.166   5.801 -0.3514  1.5485 -1.6374
12595SOL    HW249765   1.315  13.208   5.828 -0.2920  0.0754  1.3528
12596SOL     OW49766   2.355  12.785   0.919 -0.3020  0.2232  0.0041
12596SOL    HW149767   2.361  12.695   0.888  1.1381  0.3034 -0.0418
12596SOL    HW249768   2.427  12.830   0.874  1.0478  0.6398  2.4550
12597SOL     OW49769   4.573   6.638   0.728  0.5121 -0.1187  0.4111
12597SOL    HW149770   4.607   6.548   0.736  1.1492  0.1018  0.2377
12597SOL    HW249771   4.581   6.659   0.635 -1.9451 -0.7563  0.0027
12598SOL     OW49772   5.638  10.047  12.956 -0.2852  0.4747  0.0336
12598SOL    HW149773   5.669  10.134  12.932  1.5044 -0.3671 -0.9807
12598SOL    HW249774   5.718   9.995  12.964 -1.1539 -0.6415  2.6069
12599SOL     OW49775   6.285   0.046   6.397  0.2977 -0.7910  0.6879
12599SOL    HW149776   6.207   0.005   6.359  1.0838 -1.8707  0.1770
12599SOL    HW249777   6.270   0.041   6.492  0.2632 -2.0972  0.6388
12600SOL     OW49778   3.962   8.458   4.569  0.1131  0.5072  0.6278
12600SOL    HW149779   3.929   8.538   4.611 -0.2781  0.4424  0.4560
12600SOL    HW249780   4.041   8.436   4.617  1.1639  1.9180 -0.3510
12601SOL     OW49781   9.704   2.965   4.465  0.6921 -0.0367  0.6044
12601SOL    HW149782   9.617   2.965   4.505  1.0943 -1.2699  1.5570
12601SOL    HW249783   9.732   2.874   4.470  2.2941  0.4489  0.8921
12602SOL     OW49784   1.285   5.376   1.581 -0.3926  0.2096 -0.6593
12602SOL    HW149785   1.376   5.371   1.552 -1.2711  1.1890 -3.9601
12602SOL    HW249786   1.252   5.287   1.575 -0.4661  0.3354 -2.6081
12603SOL     OW49787  10.115   0.398   3.868  0.3407 -0.4067  0.1259
12603SOL    HW149788  10.198   0.423   3.909  0.2883 -1.4461  0.9059
12603SOL    HW249789  10.119   0.435   3.780  0.8967  1.0182  0.7107
12604SOL     OW49790   8.947   2.026  11.045  0.4880 -0.8313  0.0408
12604SOL    HW149791   8.881   2.091  11.022  0.2817 -1.7485 -2.2712
12604SOL    HW249792   9.012   2.074  11.095 -0.5054  0.7470 -0.1351
12605SOL     OW49793   4.565   7.044   4.238  0.0609  0.1490 -0.1836
12605SOL    HW149794   4.571   7.129   4.281  0.8815 -0.3501  0.7169
12605SOL    HW249795   4.654   7.009   4.241 -0.1961 -0.6012 -0.8513
12606SOL     OW49796   7.338   9.064   5.153 -0.0826  0.3711 -0.1111
12606SOL    HW149797   7.404   9.133   5.144  0.5588 -0.2381 -0.2046
12606SOL    HW249798   7.342   9.015   5.071 -0.1510 -0.0981  0.1557
12607SOL     OW49799   3.371   3.539   5.585 -0.0726  0.1110 -0.0626
12607SOL    HW149800   3.430   3.533   5.510  0.1851 -0.4764  0.1870
12607SOL    HW249801   3.385   3.459   5.634 -0.5376  0.3060  0.4025
12608SOL     OW49802   2.597   8.564   3.605  0.3718  0.2527 -0.1916
12608SOL    HW149803   2.570   8.654   3.587  0.8995  0.6948  1.0777
12608SOL    HW249804   2.570   8.514   3.527 -2.7299  0.9067  0.3210
12609SOL     OW49805   9.283  11.690  11.031  0.2080 -0.3705 -0.1972
12609SOL    HW149806   9.320  11.605  11.006 -0.2576 -1.2128  1.7586
12609SOL    HW249807   9.189  11.674  11.040  0.0470  0.4804 -0.2687
12610SOL     OW49808   4.285   7.819   4.712 -0.4349  0.1895 -0.1641
12610SOL    HW149809   4.189   7.814   4.715 -0.4437 -0.2751 -0.9340
12610SOL    HW249810   4.307   7.898   4.761 -1.2964  1.1238 -1.2388
12611SOL     OW49811   4.887  12.575   5.259  0.0885 -0.2792 -0.0007
12611SOL    HW149812   4.872  12.625   5.340 -0.4948 -0.8222  0.2327
12611SOL    HW249813   4.801  12.573   5.217  0.0972 -1.1079  0.0092
12612SOL     OW49814   4.781  10.392  13.694 -0.2312  0.3932  0.2070
12612SOL    HW149815   4.810  10.309  13.656  2.3605  1.4655 -0.4308
12612SOL    HW249816   4.839  10.404  13.770 -2.5403  0.2863  2.1060
12613SOL     OW49817  12.422   5.266   6.068  0.1753  0.8938 -0.5952
12613SOL    HW149818  12.484   5.311   6.125  0.5534  0.2156 -0.4606
12613SOL    HW249819  12.389   5.194   6.122  0.5024  0.2754 -1.2049
12614SOL     OW49820   1.663  12.705   4.381 -0.6180  0.5099  0.5998
12614SOL    HW149821   1.739  12.742   4.337 -0.6415  0.5438  0.5885
12614SOL    HW249822   1.643  12.767   4.451 -0.7660  0.6075  0.4704
12615SOL     OW49823   3.639   1.332   0.635 -0.0172  0.1060 -0.3660
12615SOL    HW149824   3.608   1.307   0.722 -1.7398 -0.0613 -0.9822
12615SOL    HW249825   3.585   1.407   0.611  0.6228  0.3157 -1.1910
12616SOL     OW49826  12.245  10.081   1.499 -0.3507  0.2621 -0.0976
12616SOL    HW149827  12.234  10.176   1.490 -1.4502  0.2462  0.8273
12616SOL    HW249828  12.335  10.070   1.530  0.1532  0.9155 -1.2774
12617SOL     OW49829   0.782   5.556   3.346  0.1122  0.2837 -0.0427
12617SOL    HW149830   0.774   5.648   3.321 -0.6436  0.2166 -0.0647
12617SOL    HW249831   0.877   5.542   3.356  0.2788  0.8733 -0.7198
12618SOL     OW49832  10.704  13.336  11.988  0.1663 -0.2525  0.3589
12618SOL    HW149833  10.629  13.376  12.033 -0.7308  0.2155 -1.4627
12618SOL    HW249834  10.709  13.247  12.025 -2.2686 -0.8357 -0.5050
12619SOL     OW49835   9.814   3.864   7.971 -0.2782  0.5529 -0.7081
12619SOL    HW149836   9.813   3.959   7.981 -0.6608  0.3133  2.4865
12619SOL    HW249837   9.722   3.841   7.956 -0.0528  0.6982 -2.5729
12620SOL     OW49838  13.926   7.224   5.643  0.5906  0.4254  0.4445
12620SOL    HW149839  13.904   7.262   5.728 -1.0486 -1.4267  0.9355
12620SOL    HW249840  13.874   7.274   5.581  0.6813  0.8551  0.7103
12621SOL     OW49841   4.772   1.566   9.819  0.3902 -0.2954 -0.1687
12621SOL    HW149842   4.691   1.588   9.865  1.0177 -1.3236  1.5254
12621SOL    HW249843   4.745   1.508   9.749 -0.3779 -0.3510  0.1629
12622SOL     OW49844   6.116   2.145   7.641  0.0345  0.4273  0.4622
12622SOL    HW149845   6.208   2.131   7.620 -0.4448 -1.7684 -0.4652
12622SOL    HW249846   6.084   2.204   7.573  0.2432 -0.7325 -0.6909
12623SOL     OW49847   0.030  13.588   2.507 -0.1211  0.3165 -0.8811
12623SOL    HW149848   0.023  13.516   2.569 -2.2780  1.0512 -0.2024
12623SOL    HW249849  -0.001  13.551   2.424  0.5385 -0.0111 -0.9935
12624SOL     OW49850  12.694   7.015   2.230  0.0351 -0.7996 -0.2489
12624SOL    HW149851  12.642   7.095   2.228 -0.6489 -1.1085  2.2387
12624SOL    HW249852  12.654   6.959   2.164 -0.9853  0.0287 -0.3594
12625SOL     OW49853  11.313   5.532   1.056  0.1433  0.1518 -0.1625
12625SOL    HW149854  11.342   5.574   0.975  0.4586  1.9690  0.8403
12625SOL    HW249855  11.392   5.493   1.093  0.2549  0.4015 -0.1325
12626SOL     OW49856   3.797  11.738  12.435 -0.2766  0.2024  0.1411
12626SOL    HW149857   3.783  11.710  12.344 -0.3356 -3.9236  1.2385
12626SOL    HW249858   3.710  11.731  12.476 -0.2254  1.8972  0.5980
12627SOL     OW49859  10.621  12.185  14.001 -0.3146  0.5468 -0.1063
12627SOL    HW149860  10.667  12.261  14.036  0.5391  0.7023 -1.4903
12627SOL    HW249861  10.574  12.219  13.924 -0.3990 -0.2017 -0.3945
12628SOL     OW49862   3.144   7.085  12.787 -0.0527  0.3987  0.1938
12628SOL    HW149863   3.095   7.099  12.706  0.1568  0.6914  0.1167
12628SOL    HW249864   3.082   7.041  12.845  0.2313 -1.0748 -0.5956
12629SOL     OW49865   0.667  13.473   0.444 -0.1745  0.5191 -0.2610
12629SOL    HW149866   0.745  13.486   0.498 -0.1103  1.4637 -0.5619
12629SOL    HW249867   0.685  13.522   0.364 -0.2075 -0.9662 -1.2247
12630SOL     OW49868  12.927   7.829   2.619 -0.0902 -0.1197 -0.2541
12630SOL    HW149869  12.950   7.822   2.711  0.5629  0.0583 -0.3994
12630SOL    HW249870  12.855   7.892   2.617 -2.8627 -2.9394  0.5514
12631SOL     OW49871   1.568   1.616  13.229 -0.5244 -0.2387  0.4038
12631SOL    HW149872   1.488   1.586  13.185 -0.3298  1.3807 -1.1815
12631SOL    HW249873   1.638   1.596  13.166 -0.1941  1.8289  0.0423
12632SOL     OW49874  12.571   9.246   5.982 -0.0560  0.4237  0.0574
12632SOL    HW149875  12.619   9.324   5.955 -1.0560  1.7341  1.8597
12632SOL    HW249876  12.630   9.173   5.964  0.7285  1.5081 -2.1010
12633SOL     OW49877  10.518   5.231   9.645 -0.4090  0.9164 -0.0417
12633SOL    HW149878  10.563   5.202   9.724 -0.9653  2.0216  0.7056
12633SOL    HW249879  10.549   5.172   9.576 -0.9310 -0.9644  1.2459
12634SOL     OW49880   3.632   3.149  12.345  0.9711  0.3369  0.0111
12634SOL    HW149881   3.602   3.074  12.293  0.0224 -0.4531  1.6040
12634SOL    HW249882   3.709   3.117  12.392  0.9090  0.5321  0.2496
12635SOL     OW49883  10.604   2.309   8.139 -0.2556 -0.3857  0.4700
12635SOL    HW149884  10.563   2.394   8.122  1.1627  0.3496  0.6018
12635SOL    HW249885  10.578   2.254   8.065 -2.8246 -0.5099  1.3408
12636SOL     OW49886  12.431   1.739   6.580 -1.0147 -0.1479  0.6540
12636SOL    HW149887  12.370   1.812   6.566 -0.7033 -0.1228 -0.7064
12636SOL    HW249888  12.433   1.728   6.675 -0.3868  2.2093  0.9834
12637SOL     OW49889  11.229  11.075   1.969  0.0384  0.1521  0.0282
12637SOL    HW149890  11.212  10.986   1.939  1.0886  0.4828 -1.6830
12637SOL    HW249891  11.286  11.112   1.902 -2.4622  2.9844 -0.7151
12638SOL     OW49892   2.087  13.768   2.485 -0.2349 -0.1742  0.4940
12638SOL    HW149893   2.109  13.755   2.393  0.8783 -1.0020  0.8525
12638SOL    HW249894   2.016  13.705   2.502  0.0334 -0.5158  0.3677
12639SOL     OW49895   5.088   8.541   5.681  0.1101  0.0695  0.3788
12639SOL    HW149896   5.090   8.631   5.648  2.1986 -0.2515 -0.5673
12639SOL    HW249897   5.056   8.489   5.607 -0.5272 -0.0471  0.7284
12640SOL     OW49898   2.127   8.550   2.664  0.4357  0.6258 -0.5214
12640SOL    HW149899   2.108   8.643   2.674 -0.4028  0.3538  0.5392
12640SOL    HW249900   2.046   8.513   2.628  0.3320  0.1250  0.1963
12641SOL     OW49901  12.315   2.738   7.277  0.0911 -0.6362 -0.2709
12641SOL    HW149902  12.370   2.663   7.299  0.1691 -0.1289  1.3675
12641SOL    HW249903  12.229   2.717   7.314  0.1734  0.1748  0.4026
12642SOL     OW49904  10.683   5.143  13.962  0.0200 -0.2935  0.2407
12642SOL    HW149905  10.635   5.218  13.927  0.3893 -1.1047 -2.1674
12642SOL    HW249906  10.621   5.071  13.959  0.7714 -0.9211 -1.1096
12643SOL     OW49907   6.822   0.459  12.950  0.1271  0.2356  0.0422
12643SOL    HW149908   6.803   0.375  12.908 -1.4783  0.3056  0.5490
12643SOL    HW249909   6.882   0.503  12.890 -0.7745 -0.3646 -1.3525
12644SOL     OW49910  11.263  11.957   6.196  0.0381 -0.1387 -0.5659
12644SOL    HW149911  11.187  11.898   6.201 -0.4597  0.5109 -0.2996
12644SOL    HW249912  11.321  11.916   6.132 -0.7869 -0.3801 -1.1813
12645SOL     OW49913   1.806  13.190   6.461  0.4278 -0.6584 -0.3707
12645SOL    HW149914   1.782  13.197   6.369 -0.2645 -2.0702 -0.3134
12645SOL    HW249915   1.731  13.226   6.508  1.1202  0.8376 -0.3492
12646SOL     OW49916  10.803   9.169  13.575 -0.4485 -0.4060  0.5843
12646SOL    HW149917  10.827   9.089  13.621  0.5433 -0.0811  0.6665
12646SOL    HW249918  10.803   9.144  13.482 -1.4125 -0.8005  0.6765
12647SOL     OW49919   9.911   9.729   3.805  0.4943 -0.2148  0.2647
12647SOL    HW149920   9.893   9.653   3.859  2.2876 -0.7415  0.1941
12647SOL    HW249921   9.912   9.803   3.865  0.0449 -0.4429  0.5498
12648SOL     OW49922   6.224   0.144   9.905  0.5595  0.0693 -0.0163
12648SOL    HW149923   6.255   0.062   9.867  2.8337  0.1632  1.4073
12648SOL    HW249924   6.270   0.212   9.856  1.3263  0.3096  1.0073
12649SOL     OW49925   7.677   2.355   7.243 -0.1461  0.2740  0.8149
12649SOL    HW149926   7.696   2.417   7.173  1.2860 -0.2443  0.7234
12649SOL    HW249927   7.609   2.298   7.207  0.2773  0.2756  0.0098
12650SOL     OW49928   2.689  12.514   8.268 -0.2128 -0.4223  0.3940
12650SOL    HW149929   2.739  12.541   8.191  0.2652 -1.6070  0.2661
12650SOL    HW249930   2.599  12.542   8.249  0.0976  0.2763 -0.0994
12651SOL     OW49931  13.924   7.425   5.843  0.2358  0.2564  0.4973
12651SOL    HW149932  13.987   7.466   5.902 -1.3621 -0.3387  2.7651
12651SOL    HW249933  13.840   7.463   5.867 -0.9861 -2.5556  1.1373
12652SOL     OW49934   7.943  11.459   9.255  0.1028 -0.5426 -0.1519
12652SOL    HW149935   8.026  11.467   9.208 -0.6301  2.1954 -1.1380
12652SOL    HW249936   7.893  11.536   9.230 -1.4329 -0.2988  3.0739
12653SOL     OW49937   3.462   1.291   3.161  0.1386 -0.2293  0.2545
12653SOL    HW149938   3.505   1.288   3.075 -0.1953 -0.6542  0.0999
12653SOL    HW249939   3.531   1.320   3.221  0.5445 -0.5393 -0.0534
12654SOL     OW49940   7.417   5.580   2.358  0.0222 -0.0412 -0.1202
12654SOL    HW149941   7.412   5.508   2.296 -1.6934 -0.9343  0.9725
12654SOL    HW249942   7.394   5.658   2.307  1.8702 -0.1973 -1.3039
12655SOL     OW49943   8.290   2.970   8.022  0.3975 -0.2168 -0.4115
12655SOL    HW149944   8.273   3.063   8.003  0.2620  0.4634  2.5996
12655SOL    HW249945   8.210   2.938   8.062  0.9350 -1.2482 -0.1264
12656SOL     OW49946   2.659   5.971   4.489 -0.3496  0.1037 -0.0682
12656SOL    HW149947   2.612   6.053   4.504 -1.7112 -0.9048  1.3805
12656SOL    HW249948   2.717   5.962   4.565 -0.6587 -0.5814  0.0867
12657SOL     OW49949   6.681   7.334   1.403 -0.1668  0.1185  0.1006
12657SOL    HW149950   6.649   7.424   1.414  0.9852  0.6808 -0.9023
12657SOL    HW249951   6.657   7.290   1.485  1.6674  2.1044  1.8163
12658SOL     OW49952   0.834  10.530   5.324 -0.0169  0.2077 -0.3359
12658SOL    HW149953   0.797  10.455   5.372 -0.5340  1.4907  1.3995
12658SOL    HW249954   0.758  10.582   5.299  0.4054  1.3366  0.6040
12659SOL     OW49955   5.478   9.260  13.213  0.5324  0.2602  0.2205
12659SOL    HW149956   5.462   9.354  13.216  0.1646  0.2108 -0.1007
12659SOL    HW249957   5.508   9.237  13.301 -0.2655  0.5217  0.5646
12660SOL     OW49958   8.656  10.692  13.053 -0.2125  0.6125 -0.1866
12660SOL    HW149959   8.648  10.653  13.140 -1.4927 -1.1361 -1.0126
12660SOL    HW249960   8.749  10.710  13.044  0.3836 -1.6871  0.5646
12661SOL     OW49961   8.177   6.439   1.410  0.5948  0.2008  0.2008
12661SOL    HW149962   8.084   6.458   1.425  0.5916  0.7080 -0.4036
12661SOL    HW249963   8.216   6.524   1.391  1.0504 -0.0991 -0.2221
12662SOL     OW49964   3.833   3.066   1.868 -0.1640  0.0945  0.0700
12662SOL    HW149965   3.848   3.029   1.781  0.2164 -1.5370  0.7920
12662SOL    HW249966   3.776   3.141   1.853 -0.3098 -0.3137 -1.5537
12663SOL     OW49967   1.962  13.411   3.908 -0.2216  0.0151  0.6478
12663SOL    HW149968   1.995  13.324   3.929  2.6295  1.0844  1.0883
12663SOL    HW249969   1.984  13.424   3.816  0.3260  0.6236  0.8516
12664SOL     OW49970   4.381   1.531  10.869  0.3435  0.3320  0.4245
12664SOL    HW149971   4.468   1.560  10.897  0.6498  0.1668 -0.3244
12664SOL    HW249972   4.347   1.605  10.818  0.0932  0.3479  0.6131
12665SOL     OW49973  13.375   4.206   3.744 -0.1049 -0.2435  0.2763
12665SOL    HW149974  13.333   4.161   3.817  0.0478  0.1072  0.5843
12665SOL    HW249975  13.443   4.145   3.714 -1.5438 -1.3067 -0.9568
12666SOL     OW49976   0.322  13.734  13.285 -0.3967 -0.2511  1.1374
12666SOL    HW149977   0.277  13.653  13.309 -0.3698 -0.3911  0.7309
12666SOL    HW249978   0.352  13.771  13.368 -0.3674 -0.6842  1.3227
12667SOL     OW49979   6.098   5.306   9.957  0.3786 -0.0580  0.5399
12667SOL    HW149980   6.084   5.223   9.912  1.9850 -0.0452 -0.0394
12667SOL    HW249981   6.009   5.337   9.979 -0.2580 -1.7951  0.5762
12668SOL     OW49982   9.537  13.921  13.101 -0.3560 -0.5024  0.4897
12668SOL    HW149983   9.606  13.944  13.038  0.1453 -1.4771  0.6617
12668SOL    HW249984   9.507  13.835  13.073 -1.3733 -0.1782  0.5457
12669SOL     OW49985   5.265   3.217  10.803 -0.0095  0.4563  0.0464
12669SOL    HW149986   5.194   3.216  10.738  0.3643 -0.1320 -0.3691
12669SOL    HW249987   5.294   3.126  10.807 -0.1588  0.4565  1.1994
12670SOL     OW49988  13.078   4.938   6.639  0.2839  0.2218  0.4037
12670SOL    HW149989  13.000   4.915   6.690  1.5923 -0.4843  2.1624
12670SOL    HW249990  13.139   4.974   6.703  1.0547  1.7395 -1.1083
12671SOL     OW49991   5.806  10.890   7.825  0.2093 -0.7748 -0.4391
12671SOL    HW149992   5.768  10.957   7.882  0.8138 -0.3003 -0.5757
12671SOL    HW249993   5.731  10.839   7.794 -0.2538 -0.2057 -0.2731
12672SOL     OW49994   4.904   9.490   9.200 -0.2308  0.3161 -0.4259
12672SOL    HW149995   4.870   9.404   9.224  1.5304  0.5055  3.5745
12672SOL    HW249996   4.840   9.551   9.236 -0.6421  0.7416 -1.8151
12673SOL     OW49997   1.787   1.053   9.620  0.1177 -0.0115 -0.1433
12673SOL    HW149998   1.698   1.076   9.590  0.4714  1.0715 -0.4113
12673SOL    HW249999   1.792   1.088   9.708 -0.1336 -1.1929  0.3652
12674SOL     OW50000   1.707   8.868   5.406  0.4361  0.0527 -0.6836
12674SOL    HW150001   1.797   8.845   5.384  0.2649  0.8229 -2.4449
12674SOL    HW250002   1.654   8.816   5.346 -0.1843  0.9484 -0.9311
12675SOL     OW50003   4.820   7.831  12.140 -0.3011 -0.3283  0.1005
12675SOL    HW150004   4.798   7.848  12.048  0.1702  1.2097  0.2388
12675SOL    HW250005   4.756   7.883  12.190  1.8630  2.1646  0.5306
12676SOL     OW50006   5.624   9.905  12.107  0.2770  0.0165  0.1796
12676SOL    HW150007   5.551   9.962  12.085  0.2905 -0.0741 -0.1005
12676SOL    HW250008   5.660   9.877  12.022 -0.4773 -1.3753  0.2923
12677SOL     OW50009   4.244   1.419   9.086 -0.0501 -0.0470  0.2620
12677SOL    HW150010   4.224   1.416   9.180 -0.7465  0.4228  0.1357
12677SOL    HW250011   4.290   1.337   9.069  1.6407  0.6184  1.3513
12678SOL     OW50012  11.059  11.857   5.612  0.0177  0.7120 -0.2484
12678SOL    HW150013  11.136  11.807   5.585 -0.3095  0.4539 -0.7289
12678SOL    HW250014  11.020  11.806   5.683 -0.0699  0.5065 -0.4426
12679SOL     OW50015   3.068   7.244   2.326  0.3271 -0.0980 -0.4024
12679SOL    HW150016   3.133   7.190   2.371  1.3260  1.4941  0.1609
12679SOL    HW250017   2.984   7.217   2.363  1.0290  0.4725  1.7972
12680SOL     OW50018   7.346   4.587   0.553 -0.6351  0.0155  0.3147
12680SOL    HW150019   7.411   4.528   0.592 -0.8663 -1.1107 -0.9079
12680SOL    HW250020   7.372   4.674   0.582 -0.0418 -0.6355  1.8630
12681SOL     OW50021  11.433  12.029   2.702 -0.1880  0.0631 -0.1397
12681SOL    HW150022  11.505  12.059   2.757 -0.1339 -0.5072  0.1031
12681SOL    HW250023  11.355  12.072   2.738 -0.2256 -0.6953  0.6987
12682SOL     OW50024   3.013   6.351  13.713 -0.2008  0.1568  0.6250
12682SOL    HW150025   3.053   6.279  13.665 -0.4205  0.3250  0.1857
12682SOL    HW250026   3.060   6.354  13.796  0.7380  0.3877  0.0957
12683SOL     OW50027   3.192   4.413   2.313  0.4849  0.2280  0.5203
12683SOL    HW150028   3.121   4.477   2.309 -2.5934 -2.9415 -0.1353
12683SOL    HW250029   3.200   4.381   2.223 -0.8308 -2.8979  1.3826
12684SOL     OW50030   8.463   0.017   0.095  0.1729 -0.3548  0.2188
12684SOL    HW150031   8.369   0.034   0.092  0.1368 -0.6742 -1.1637
12684SOL    HW250032   8.499   0.068   0.023  1.2181  0.5557  1.3534
12685SOL     OW50033   7.226  10.308   7.681  0.0658  0.2958  0.1227
12685SOL    HW150034   7.177  10.330   7.761  0.4630 -0.1136  0.4876
12685SOL    HW250035   7.162  10.267   7.624  0.1774 -1.1692  0.9914
12686SOL     OW50036   7.641  11.625   2.629 -0.6581  0.0824 -0.7385
12686SOL    HW150037   7.699  11.701   2.625  0.5626 -0.7888 -0.4829
12686SOL    HW250038   7.564  11.655   2.676 -0.4771  1.3226 -1.2036
12687SOL     OW50039   6.825   4.592  11.178 -0.2192 -0.2489  0.5024
12687SOL    HW150040   6.792   4.512  11.137 -0.2655 -0.1867  0.4193
12687SOL    HW250041   6.784   4.594  11.264  0.2381 -0.6265  0.7338
12688SOL     OW50042   1.351  11.662   2.827  0.1476 -0.1953 -0.2160
12688SOL    HW150043   1.271  11.708   2.802 -0.0973 -1.0096 -0.9798
12688SOL    HW250044   1.408  11.669   2.750  1.2555  1.2818  0.6839
12689SOL     OW50045   8.384  14.028   4.799  0.0284 -0.4507 -0.3169
12689SOL    HW150046   8.391  14.008   4.892 -0.5861  0.3316 -0.0927
12689SOL    HW250047   8.464  13.992   4.760  2.0654  2.2549  1.0301
12690SOL     OW50048   0.138   8.154   7.239  0.0014  0.1079  0.3102
12690SOL    HW150049   0.147   8.185   7.149 -0.2848 -0.3108  0.1344
12690SOL    HW250050   0.067   8.207   7.275 -2.0177 -1.7469 -0.6592
12691SOL     OW50051  10.923   9.561  13.489 -0.2686 -0.6921 -0.0501
12691SOL    HW150052  10.891   9.643  13.452  1.1585 -0.1216 -0.0847
12691SOL    HW250053  10.855   9.496  13.466 -1.9044  0.6295  0.8292
12692SOL     OW50054   6.341   7.729   8.487 -0.5018 -0.3171  0.2848
12692SOL    HW150055   6.312   7.691   8.404 -1.8144  1.2792 -0.0290
12692SOL    HW250056   6.273   7.705   8.550 -0.3805 -0.0712  0.5112
12693SOL     OW50057  10.152   3.791   8.849 -0.3850  0.1255  0.8321
12693SOL    HW150058  10.244   3.766   8.840 -0.7265 -0.6182 -1.1087
12693SOL    HW250059  10.154   3.870   8.903  1.2660 -0.6104  1.9268
12694SOL     OW50060   3.780  12.407   1.043 -0.4143 -0.1957 -0.0279
12694SOL    HW150061   3.863  12.360   1.035 -0.4064  0.0134 -1.4528
12694SOL    HW250062   3.805  12.500   1.045 -0.6042 -0.1382 -0.3009
12695SOL     OW50063   4.873   6.631   6.211  0.4401 -0.0458 -0.0041
12695SOL    HW150064   4.809   6.633   6.141 -0.4813 -2.5472  0.6537
12695SOL    HW250065   4.824   6.653   6.290  1.1835  1.4332  0.0873
12696SOL     OW50066   3.433   2.545   0.598 -0.3753  0.0259 -0.3467
12696SOL    HW150067   3.441   2.505   0.684  0.3602  0.3888 -0.2402
12696SOL    HW250068   3.469   2.633   0.608  1.2397 -0.4601 -1.3854
12697SOL     OW50069  13.649  11.056   2.322 -0.4635  0.1384  0.1632
12697SOL    HW150070  13.577  11.044   2.384 -1.4232  1.9307 -0.5257
12697SOL    HW250071  13.727  11.031   2.371 -1.5579 -2.6290  0.7030
12698SOL     OW50072   8.490   9.038   1.124  0.3055 -0.1120 -0.6808
12698SOL    HW150073   8.501   9.051   1.218 -0.4426  0.6332 -0.6861
12698SOL    HW250074   8.402   9.071   1.105  0.8738  0.8063 -1.8291
12699SOL     OW50075  10.339   3.987  12.242 -0.2424  0.0961 -1.0964
12699SOL    HW150076  10.314   4.020  12.329  0.8420  0.6120 -0.9722
12699SOL    HW250077  10.315   3.894  12.245 -0.0539  0.0686 -0.1822
12700SOL     OW50078  13.108   9.760   5.407  0.2302  0.2247 -0.0093
12700SOL    HW150079  13.196   9.727   5.422  0.4300  1.0358  0.7482
12700SOL    HW250080  13.104   9.840   5.459 -1.1510 -0.1043  0.4273
12701SOL     OW50081   3.602  10.524   7.849 -0.2343  0.1557 -0.2084
12701SOL    HW150082   3.521  10.473   7.847 -2.5739  3.5525 -0.5785
12701SOL    HW250083   3.614  10.553   7.759 -1.6882  3.8674  0.6052
12702SOL     OW50084   1.644  12.202   4.517  0.0052 -0.0685 -0.4951
12702SOL    HW150085   1.564  12.220   4.468 -0.3834  0.3867  0.2812
12702SOL    HW250086   1.667  12.286   4.557  0.2122 -0.4706  0.2417
12703SOL     OW50087   1.393   4.637  13.225  0.3716  0.3042 -0.2377
12703SOL    HW150088   1.424   4.548  13.239  0.3825  0.1796 -1.0124
12703SOL    HW250089   1.324   4.649  13.290  0.1573 -0.3763 -0.3306
12704SOL     OW50090   8.812   1.206  12.009  0.0689  0.0635 -0.4160
12704SOL    HW150091   8.836   1.260  11.934 -1.4867  1.3074 -0.0849
12704SOL    HW250092   8.779   1.268  12.074  4.4730 -0.4917  2.7940
12705SOL     OW50093   8.608   9.545   8.473  0.3897 -0.3904  0.4250
12705SOL    HW150094   8.546   9.612   8.444 -0.1131 -1.4098 -0.9765
12705SOL    HW250095   8.569   9.511   8.554 -0.9766 -1.0336 -0.4426
12706SOL     OW50096   7.524   3.994  12.162  0.3617 -0.0802 -0.2740
12706SOL    HW150097   7.584   3.920  12.152  0.0494 -0.4955  0.8181
12706SOL    HW250098   7.545   4.051  12.088  0.9262 -1.0288 -0.8738
12707SOL     OW50099   3.496   6.389  10.845  0.4205 -0.2269 -0.5898
12707SOL    HW150100   3.541   6.462  10.888 -0.0751 -2.0848  3.6379
12707SOL    HW250101   3.404   6.415  10.844  0.4496 -0.1254 -0.6012
12708SOL     OW50102   9.255   4.223   1.985  0.1702  0.4633 -0.1725
12708SOL    HW150103   9.187   4.155   1.993 -0.0122  0.7722  1.0531
12708SOL    HW250104   9.211   4.294   1.938 -0.3136  0.5758  0.4258
12709SOL     OW50105  10.582  10.780  10.163 -0.3951  0.4787  0.0678
12709SOL    HW150106  10.651  10.714  10.157  0.4658  1.1887  1.6438
12709SOL    HW250107  10.628  10.863  10.169 -1.3157  0.9157  1.8955
12710SOL     OW50108   8.319   8.130  11.817 -0.0280 -0.0255  0.3904
12710SOL    HW150109   8.369   8.067  11.869  0.0667 -2.4106 -2.3558
12710SOL    HW250110   8.381   8.162  11.751 -1.3321 -0.9567 -1.3737
12711SOL     OW50111  11.487   4.914   4.195 -0.0063 -0.3321 -0.1907
12711SOL    HW150112  11.433   4.840   4.166 -1.3653  0.2256  0.7652
12711SOL    HW250113  11.423   4.978   4.227  1.2215  0.5680  0.5246
12712SOL     OW50114   1.989   7.311   5.977  0.7411  0.0918  0.1119
12712SOL    HW150115   1.939   7.276   5.903  1.0453 -1.1197  0.4642
12712SOL    HW250116   1.990   7.405   5.962 -0.3442 -0.0057 -0.7142
12713SOL     OW50117   8.260   1.438   3.374  0.1650 -0.7830 -0.0849
12713SOL    HW150118   8.173   1.459   3.340  0.5864  0.4474 -0.4484
12713SOL    HW250119   8.245   1.419   3.467 -0.2416  1.5728  0.4028
12714SOL     OW50120   8.185   2.750   7.480  0.3930 -0.4510 -0.3459
12714SOL    HW150121   8.213   2.662   7.505 -0.6930 -0.4927  0.8325
12714SOL    HW250122   8.180   2.747   7.384  1.4283 -1.3286 -0.3894
12715SOL     OW50123  11.291   6.664  13.388  0.0548 -0.0571  0.1278
12715SOL    HW150124  11.279   6.658  13.483  1.3693  0.6291  0.3622
12715SOL    HW250125  11.385   6.675  13.377 -0.1408  0.4078 -1.2394
12716SOL     OW50126   9.318  10.339  10.795  0.2281 -0.1114  0.4175
12716SOL    HW150127   9.229  10.304  10.797  0.1567 -0.0896 -1.1807
12716SOL    HW250128   9.338  10.357  10.887 -1.2213 -0.5782  0.8636
12717SOL     OW50129  11.819   4.361   2.471 -0.0965  0.0328  0.0068
12717SOL    HW150130  11.794   4.334   2.382 -1.3196  0.2240  0.2726
12717SOL    HW250131  11.817   4.281   2.522  0.0428  0.0134 -0.0183
12718SOL     OW50132  11.305   9.546  11.696  0.0213  0.7160 -0.2127
12718SOL    HW150133  11.264   9.460  11.695  1.7140 -0.1499  0.9714
12718SOL    HW250134  11.294   9.578  11.785  1.4634  0.6708  0.0026
12719SOL     OW50135   7.537   2.238   3.560 -0.2421 -0.0960  0.3678
12719SOL    HW150136   7.592   2.316   3.563 -1.3986  0.7433  0.5506
12719SOL    HW250137   7.555   2.192   3.642 -0.2828  0.4985  0.7148
12720SOL     OW50138   0.810   6.973  13.542 -0.4257  0.2333  0.3125
12720SOL    HW150139   0.886   6.941  13.492 -1.1043  0.5759 -0.9984
12720SOL    HW250140   0.778   6.897  13.589 -0.8946 -0.6077 -1.2933
12721SOL     OW50141  12.861   6.008   2.804 -0.4258  0.0849 -0.1872
12721SOL    HW150142  12.915   5.932   2.780 -0.0094 -0.0044  0.9359
12721SOL    HW250143  12.925   6.076   2.828 -0.7731 -0.1383  1.5093
12722SOL     OW50144   1.285   6.887   4.640 -1.1533 -0.1889  0.1222
12722SOL    HW150145   1.334   6.901   4.722 -1.0221 -0.1298  0.0352
12722SOL    HW250146   1.312   6.961   4.584  2.6532 -2.7284 -1.8520
12723SOL     OW50147   8.502   1.884   5.761  0.1941 -0.2370 -0.0459
12723SOL    HW150148   8.471   1.794   5.772  2.1830 -1.1786 -1.5318
12723SOL    HW250149   8.447   1.920   5.691 -1.5717  0.2819  1.5000
12724SOL     OW50150   4.938   7.204   5.193 -0.8797 -0.5106  0.0439
12724SOL    HW150151   5.009   7.240   5.140 -0.1920 -0.6263  0.8591
12724SOL    HW250152   4.924   7.116   5.157 -0.3426 -0.6296  0.1126
12725SOL     OW50153  11.929   6.842   3.859  0.0303 -0.3739  0.2886
12725SOL    HW150154  11.871   6.766   3.871  1.1563 -1.3520 -0.2680
12725SOL    HW250155  11.988   6.816   3.789 -0.9917  1.9263 -1.5701
12726SOL     OW50156   5.406   9.052   6.391  0.4952  0.0107 -0.4790
12726SOL    HW150157   5.347   9.049   6.316 -1.0404  1.6757  0.5703
12726SOL    HW250158   5.492   9.071   6.354 -0.4755  2.3062 -1.7786
12727SOL     OW50159  10.709   3.394  11.096  0.0723 -0.2085 -0.4697
12727SOL    HW150160  10.658   3.474  11.079  0.1979  0.0249  0.1800
12727SOL    HW250161  10.753   3.413  11.179  1.4298 -0.3062 -1.1532
12728SOL     OW50162  10.714  10.383   3.240  0.4759  0.1244 -0.1936
12728SOL    HW150163  10.635  10.422   3.204 -0.1480  0.3964  1.4131
12728SOL    HW250164  10.785  10.435   3.202 -0.2855  2.2773  1.1612
12729SOL     OW50165   9.749  13.867   2.446 -0.4695  0.1144 -0.6224
12729SOL    HW150166   9.703  13.951   2.443  0.0890  0.4125 -1.0359
12729SOL    HW250167   9.767  13.853   2.539 -0.8146  0.3148 -0.5238
12730SOL     OW50168   7.190   5.887   8.105  0.0066 -0.3918  0.6434
12730SOL    HW150169   7.236   5.924   8.030 -1.1836  0.4154  0.2784
12730SOL    HW250170   7.249   5.820   8.139  0.6389 -0.6645 -0.9131
12731SOL     OW50171  11.113   6.245   3.295 -0.4339 -0.2502  0.1580
12731SOL    HW150172  11.129   6.320   3.237 -0.0306  1.3869  2.2444
12731SOL    HW250173  11.061   6.185   3.242 -1.2284  1.7384 -1.4818
12732SOL     OW50174   8.995   4.129   8.502  0.0038  0.3562 -0.0492
12732SOL    HW150175   8.910   4.107   8.465  1.0635  0.2173 -2.6365
12732SOL    HW250176   9.034   4.045   8.525  0.7167  0.0833 -2.0500
12733SOL     OW50177  12.337   0.392   6.903  0.0775  0.0496 -0.0184
12733SOL    HW150178  12.267   0.364   6.961  1.2897 -3.3605  0.0096
12733SOL    HW250179  12.417   0.363   6.946  1.0769 -1.7835 -2.8751
12734SOL     OW50180   3.392   5.203   1.309  0.3708  0.3934  0.6776
12734SOL    HW150181   3.394   5.134   1.375  0.2091  2.1762  2.6277
12734SOL    HW250182   3.362   5.159   1.230 -1.4471 -1.4321  2.2811
12735SOL     OW50183   8.027   5.228   2.153  0.5263  0.0351 -0.5688
12735SOL    HW150184   8.105   5.202   2.201  0.7266  0.3335 -0.7277
12735SOL    HW250185   7.954   5.211   2.213  0.8146  0.8682  0.0324
12736SOL     OW50186   0.237   0.610   4.657  0.1094 -0.2009 -0.3509
12736SOL    HW150187   0.209   0.567   4.576 -0.4298 -0.6407  0.0648
12736SOL    HW250188   0.238   0.540   4.722  0.8414  0.0892 -0.0444
12737SOL     OW50189  11.253  11.952   8.487 -0.0522 -0.1749  0.3713
12737SOL    HW150190  11.332  11.906   8.460  0.0633 -0.1084  0.5931
12737SOL    HW250191  11.215  11.986   8.406  1.0883  1.3166  0.4287
12738SOL     OW50192   8.255  12.329   5.719 -0.5832 -0.4261 -0.9642
12738SOL    HW150193   8.167  12.316   5.754 -0.8816 -1.0826 -1.9241
12738SOL    HW250194   8.262  12.267   5.647  0.4337  0.0873 -1.3314
12739SOL     OW50195  13.253   6.983   4.043 -0.0466  0.5806 -0.4044
12739SOL    HW150196  13.322   6.999   3.979  1.7837  0.2660  1.3907
12739SOL    HW250197  13.293   6.924   4.108 -1.6254  1.2763  1.3061
12740SOL     OW50198  12.637   9.453   9.994 -0.6374 -0.1995  0.3504
12740SOL    HW150199  12.651   9.387   9.927 -0.9788 -0.6236  0.6823
12740SOL    HW250200  12.542   9.469   9.993 -0.3895  1.4414 -0.7861
12741SOL     OW50201  14.004   4.291   0.932 -0.0487 -0.0494 -1.2046
12741SOL    HW150202  14.092   4.328   0.940  0.3405 -1.1257 -0.4122
12741SOL    HW250203  14.002   4.218   0.993 -2.0575  0.9633  0.0672
12742SOL     OW50204  10.512   1.448   7.773  0.5343  0.2919 -0.7083
12742SOL    HW150205  10.469   1.453   7.858  1.1128 -1.4783 -0.2708
12742SOL    HW250206  10.449   1.488   7.712 -1.1500 -0.9725  0.1323
12743SOL     OW50207   2.719  10.015   5.706  0.1024 -0.3740  0.2539
12743SOL    HW150208   2.801   9.986   5.746  0.6751  0.6793 -0.1381
12743SOL    HW250209   2.714  10.108   5.726 -2.3101 -0.8614  2.5786
12744SOL     OW50210  11.920  10.356  11.539  0.5672  0.0708  0.6095
12744SOL    HW150211  11.846  10.410  11.511  0.8411 -0.4050 -1.1754
12744SOL    HW250212  11.891  10.266  11.524  1.2510 -0.1435  0.5295
12745SOL     OW50213   4.256  11.946   9.855  0.2074 -0.7214 -0.2735
12745SOL    HW150214   4.310  11.878   9.895 -0.1856 -1.3166 -0.7466
12745SOL    HW250215   4.237  11.913   9.767  1.4015  0.7465 -1.1219
12746SOL     OW50216   0.748  12.085   1.580 -0.3449  0.6335  0.4361
12746SOL    HW150217   0.666  12.035   1.580 -0.5645  0.9922 -0.0284
12746SOL    HW250218   0.746  12.134   1.498  2.2509 -2.5205 -1.7939
12747SOL     OW50219   9.996   6.182  12.781 -0.0488  0.0861 -0.8038
12747SOL    HW150220  10.070   6.216  12.731  0.0498  0.3895 -0.4539
12747SOL    HW250221   9.935   6.256  12.787  0.8684  0.7468  1.3387
12748SOL     OW50222  11.993   1.514   7.980 -0.2526 -0.0412 -0.1737
12748SOL    HW150223  12.016   1.518   7.887  2.0623 -0.6507  0.3092
12748SOL    HW250224  11.902   1.483   7.981 -1.8397  3.8170 -2.2930
12749SOL     OW50225   5.637  13.166  13.361  0.4802  0.1937 -0.8261
12749SOL    HW150226   5.599  13.251  13.383  0.8221  0.0169  0.5331
12749SOL    HW250227   5.704  13.186  13.295  0.6250  1.0006 -0.4544
12750SOL     OW50228  13.353   9.033   6.876  0.3774  0.6020  0.3861
12750SOL    HW150229  13.274   9.010   6.827  1.7330  0.3905 -1.7921
12750SOL    HW250230  13.322   9.094   6.943 -1.8586 -0.6532  0.6027
12751SOL     OW50231  12.090   4.900  10.947 -0.0549  0.4046  0.1298
12751SOL    HW150232  12.034   4.825  10.963 -1.9768  1.8096  0.3998
12751SOL    HW250233  12.122   4.926  11.033 -0.1418  0.4394  0.1524
12752SOL     OW50234   2.077   5.197   9.697 -0.3332 -0.5586 -0.4588
12752SOL    HW150235   2.023   5.119   9.684  0.6755 -1.2688 -0.4651
12752SOL    HW250236   2.080   5.209   9.791 -1.6697  0.3379 -0.5017
12753SOL     OW50237  13.036  11.322   3.111  0.5973  0.4929  0.3096
12753SOL    HW150238  13.018  11.234   3.080  1.9888  0.3041 -0.0456
12753SOL    HW250239  13.122  11.316   3.153 -0.2117  1.2445  2.1545
12754SOL     OW50240   5.010   1.514   0.146 -0.6459 -0.5608 -0.0997
12754SOL    HW150241   4.958   1.568   0.206 -0.0971  0.1665 -0.2600
12754SOL    HW250242   5.008   1.427   0.185 -1.2266 -0.3443  0.3787
12755SOL     OW50243  10.429  13.581   0.552  0.1480  0.3939  0.0876
12755SOL    HW150244  10.506  13.618   0.596  0.8817  0.2712 -1.0730
12755SOL    HW250245  10.358  13.593   0.615  1.0153  0.9397  0.9866
12756SOL     OW50246   3.263  13.037  13.501  0.6206 -0.0651 -0.2639
12756SOL    HW150247   3.357  13.052  13.487  0.9650 -0.5196  1.3482
12756SOL    HW250248   3.239  13.096  13.573 -0.6448  0.9579 -1.4718
12757SOL     OW50249   1.953  10.640   9.124 -0.0279  0.1745 -0.5257
12757SOL    HW150250   1.885  10.706   9.135 -1.8206 -1.4690 -1.1607
12757SOL    HW250251   1.958  10.628   9.029  0.4367 -0.4316 -0.4226
12758SOL     OW50252   5.789   1.111   1.961  0.4663 -0.1733 -0.7383
12758SOL    HW150253   5.719   1.108   2.025 -1.0244  1.7102 -2.1590
12758SOL    HW250254   5.868   1.128   2.012 -0.1750 -1.5837  0.8244
12759SOL     OW50255   0.883   9.230   3.241 -0.2004 -1.1538  0.0588
12759SOL    HW150256   0.880   9.148   3.290 -0.1405 -0.2450  1.6490
12759SOL    HW250257   0.967   9.269   3.265 -0.8449  0.0313  0.4520
12760SOL     OW50258   7.132  13.610  12.414 -0.2283 -0.1421 -0.0106
12760SOL    HW150259   7.104  13.608  12.505  1.1298 -2.6722  0.4319
12760SOL    HW250260   7.069  13.554  12.368  0.6045 -1.0238 -0.1063
12761SOL     OW50261   1.282   6.482  13.416 -0.0211  0.2066  0.0522
12761SOL    HW150262   1.328   6.399  13.421 -0.2500  0.0342 -0.5371
12761SOL    HW250263   1.254   6.488  13.325  1.6147  1.8138 -0.4091
12762SOL     OW50264   3.988   2.923   0.804  0.1592  0.0000 -0.0823
12762SOL    HW150265   3.948   2.855   0.858  0.5302 -0.1047  0.0634
12762SOL    HW250266   3.925   2.937   0.733 -0.5856  0.5039  0.6490
12763SOL     OW50267   2.387  13.841   1.144 -0.1822 -0.2215  0.1325
12763SOL    HW150268   2.364  13.827   1.052 -1.6060 -0.6959  0.5318
12763SOL    HW250269   2.443  13.767   1.166 -0.4902 -0.5440 -0.1453
12764SOL     OW50270   7.227  10.181  11.617 -0.3364 -0.1559 -0.4113
12764SOL    HW150271   7.288  10.129  11.669  0.0184  0.4517 -0.2040
12764SOL    HW250272   7.233  10.144  11.529 -0.2081 -0.5662 -0.2344
12765SOL     OW50273   3.103   4.083   9.789 -0.6493 -0.0519 -0.8062
12765SOL    HW150274   3.189   4.054   9.818 -0.5912  0.7804 -0.1113
12765SOL    HW250275   3.055   4.002   9.771 -1.7156 -0.9696  4.4896
12766SOL     OW50276   2.046  12.641   2.837 -0.3315 -0.2231  0.1541
12766SOL    HW150277   2.110  12.675   2.775  1.2751  0.5992  2.1532
12766SOL    HW250278   2.089  12.565   2.877 -0.7800  0.0368  1.1692
12767SOL     OW50279   6.702   7.272   7.550  0.5987 -0.1609  0.3273
12767SOL    HW150280   6.696   7.192   7.498 -0.5019 -0.1676  0.4434
12767SOL    HW250281   6.652   7.337   7.501  1.5376  0.4837  0.2013
12768SOL     OW50282   3.448  11.209   2.844  0.3347 -0.5025 -0.0524
12768SOL    HW150283   3.419  11.151   2.773 -0.1726 -0.9951  0.5521
12768SOL    HW250284   3.390  11.284   2.839  0.6875 -0.2523 -0.5335
12769SOL     OW50285   4.050   1.770  10.994 -0.0730 -0.2903 -0.3768
12769SOL    HW150286   4.145   1.781  10.992 -0.2789  2.3770  0.7877
12769SOL    HW250287   4.028   1.761  11.087 -1.0058 -0.1625 -0.5688
12770SOL     OW50288   7.469  13.412  11.325  0.5931  0.0848 -0.3805
12770SOL    HW150289   7.440  13.502  11.339  0.7999  0.2111 -0.7309
12770SOL    HW250290   7.388  13.360  11.330  0.4823  0.2804 -0.1150
12771SOL     OW50291  13.297   6.651  13.690 -0.4716 -0.3527  0.2497
12771SOL    HW150292  13.303   6.745  13.675  0.4884 -0.5653 -0.8681
12771SOL    HW250293  13.206   6.629  13.668 -2.3226  1.0031  5.2178
12772SOL     OW50294   9.129   9.176  11.562  0.6220  0.1695 -0.5018
12772SOL    HW150295   9.214   9.220  11.564 -0.0313  1.4511  0.4876
12772SOL    HW250296   9.101   9.176  11.653  1.2005 -3.6213 -0.1760
12773SOL     OW50297   4.057   8.854  13.440 -0.5462  0.2894  0.2754
12773SOL    HW150298   4.011   8.866  13.523 -2.0354 -1.3474 -0.2405
12773SOL    HW250299   4.125   8.790  13.460 -1.6942 -1.0564  0.0160
12774SOL     OW50300   0.332   2.368  13.799  0.4527  0.4830  0.2672
12774SOL    HW150301   0.360   2.368  13.891  0.0633  1.5410  0.3966
12774SOL    HW250302   0.237   2.373  13.803  0.4015 -0.0342 -0.1994
12775SOL     OW50303  13.255  13.538   3.915 -0.0064 -0.1624  0.2308
12775SOL    HW150304  13.321  13.551   3.983  0.5192 -2.2699  0.1720
12775SOL    HW250305  13.287  13.590   3.840 -0.0685  1.3332  1.1941
12776SOL     OW50306  11.707   8.677   1.952 -0.4858 -0.7486  0.4644
12776SOL    HW150307  11.750   8.754   1.913  0.3021 -0.4411  1.8626
12776SOL    HW250308  11.758   8.658   2.030 -0.0683 -3.3326 -0.3368
12777SOL     OW50309   4.741   2.310   0.683 -0.2402 -0.1625 -0.1532
12777SOL    HW150310   4.826   2.276   0.654  0.0228 -0.6367  1.0788
12777SOL    HW250311   4.744   2.404   0.664  0.7847 -0.0796  0.3316
12778SOL     OW50312  11.997  12.051   2.872  0.0615  0.3816 -0.0549
12778SOL    HW150313  12.068  12.113   2.889  1.3115 -0.8118 -0.7765
12778SOL    HW250314  11.996  11.994   2.949 -0.5000  0.7181  0.1997
12779SOL     OW50315   2.579   9.621  13.247 -0.5683  0.0263  0.3772
12779SOL    HW150316   2.627   9.570  13.312 -1.7655 -0.7469  0.6698
12779SOL    HW250317   2.596   9.577  13.164 -0.5445 -0.0823  0.4388
12780SOL     OW50318  11.670   0.829   0.635 -0.4620 -0.0612 -0.8541
12780SOL    HW150319  11.603   0.761   0.636 -1.6650  1.1125  0.2609
12780SOL    HW250320  11.692   0.839   0.542 -1.3048 -0.9584 -1.1636
12781SOL     OW50321   7.995   1.150  11.689 -0.2732 -0.5012 -0.0151
12781SOL    HW150322   8.000   1.189  11.602 -0.5251 -0.8078 -0.1694
12781SOL    HW250323   7.901   1.134  11.703 -0.3935  0.8477  0.8992
12782SOL     OW50324  10.543   7.275   0.278 -0.2968  0.3322 -0.8853
12782SOL    HW150325  10.494   7.193   0.283 -1.0951  0.8665  2.3450
12782SOL    HW250326  10.622   7.253   0.229 -1.7581 -1.6053 -2.5761
12783SOL     OW50327  11.427   9.573   0.405 -0.4016 -0.9253 -0.0795
12783SOL    HW150328  11.355   9.511   0.392 -1.7295  0.2755  1.1553
12783SOL    HW250329  11.383   9.656   0.425  1.2626 -0.7636  3.7034
12784SOL     OW50330   2.453   6.191   5.125 -0.7503 -0.6991  0.1313
12784SOL    HW150331   2.400   6.183   5.046  0.9456 -1.3974 -0.9929
12784SOL    HW250332   2.403   6.145   5.192 -2.9121  1.1431 -0.1140
12785SOL     OW50333   3.569   5.755   4.464  0.0679  0.1128 -0.3728
12785SOL    HW150334   3.593   5.672   4.503 -0.5907  0.0939  0.0014
12785SOL    HW250335   3.644   5.779   4.410  0.6894 -0.2039  0.3434
12786SOL     OW50336   0.799   5.847  10.026  0.1122 -0.1134  0.0205
12786SOL    HW150337   0.705   5.834  10.039  0.3840 -2.5872  0.1206
12786SOL    HW250338   0.822   5.784   9.958  1.3240  2.2236 -1.8847
12787SOL     OW50339   1.471   2.599   2.729  0.4887 -0.4520  0.4276
12787SOL    HW150340   1.471   2.593   2.634  1.6942  0.2968  0.3606
12787SOL    HW250341   1.555   2.640   2.751 -0.5738  1.1570  1.7093
12788SOL     OW50342   0.885   7.587   9.380  0.5188 -0.1900 -0.6178
12788SOL    HW150343   0.852   7.669   9.342  0.7529  0.6257  0.8568
12788SOL    HW250344   0.824   7.520   9.350 -0.4368  0.7303 -0.8048
12789SOL     OW50345   4.686   1.497   7.240  0.4479 -0.3681  0.2856
12789SOL    HW150346   4.745   1.569   7.263 -0.4917  0.6968 -0.5283
12789SOL    HW250347   4.633   1.532   7.168  0.0558 -1.9278 -0.2068
12790SOL     OW50348   4.594   5.718  10.909  0.1901  0.3650 -0.5847
12790SOL    HW150349   4.569   5.788  10.849  0.1009  0.2608 -0.6688
12790SOL    HW250350   4.564   5.638  10.867 -2.2361  0.4595  0.7686
12791SOL     OW50351   2.833   0.399   6.745 -0.5076 -0.1636 -0.1880
12791SOL    HW150352   2.819   0.392   6.839 -2.6939 -0.6204 -0.5039
12791SOL    HW250353   2.839   0.493   6.729 -2.7216  0.0822  0.1243
12792SOL     OW50354   2.357   0.216  10.174 -0.0447 -0.0176 -0.1016
12792SOL    HW150355   2.343   0.233  10.267 -0.1866 -1.0838  0.0913
12792SOL    HW250356   2.270   0.192  10.140  0.5517 -3.4574  0.3861
12793SOL     OW50357  10.796  13.155  12.932 -0.0072 -0.1532  0.2348
12793SOL    HW150358  10.875  13.208  12.929 -1.3182  1.9053 -0.9366
12793SOL    HW250359  10.750  13.185  13.010 -0.8280  0.6483 -0.5173
12794SOL     OW50360   9.986   6.563   9.478 -0.3060 -0.3712  0.0157
12794SOL    HW150361   9.988   6.620   9.402 -0.8747 -1.5228 -0.8898
12794SOL    HW250362  10.060   6.592   9.532 -1.4301  2.1639  0.3322
12795SOL     OW50363   7.092   3.271  12.580 -0.1252  0.0654 -0.1731
12795SOL    HW150364   7.046   3.344  12.540  0.5267  0.7248  0.2459
12795SOL    HW250365   7.034   3.241  12.651  0.5387  1.6219  1.0947
12796SOL     OW50366  11.630   6.820   3.605 -0.0173 -0.3241  0.3966
12796SOL    HW150367  11.701   6.880   3.583 -2.0967  2.4761  0.7187
12796SOL    HW250368  11.660   6.776   3.685  2.1918 -0.9019 -0.6736
12797SOL     OW50369   5.644   0.014  13.705 -0.3533  0.0539  0.0320
12797SOL    HW150370   5.700   0.006  13.782 -0.4939  0.6957  0.2058
12797SOL    HW250371   5.600   0.098  13.716 -0.6107  0.0062 -0.5931
12798SOL     OW50372   8.728   8.831   2.635  0.4530 -0.4969 -0.1736
12798SOL    HW150373   8.818   8.861   2.619  0.5317 -1.0123 -0.7116
12798SOL    HW250374   8.738   8.739   2.658  0.0842 -0.4692  0.1036
12799SOL     OW50375  11.878  10.007   6.251  0.4605  0.2426  0.9097
12799SOL    HW150376  11.972  10.016   6.237  0.6444  0.3975  2.1086
12799SOL    HW250377  11.863   9.912   6.254  1.1332  0.1319  3.7726
12800SOL     OW50378  13.178   4.486   4.074 -0.1671  0.3170 -0.1590
12800SOL    HW150379  13.125   4.482   4.154  0.5080  0.5376  0.3015
12800SOL    HW250380  13.203   4.395   4.058  0.4097  0.3817  0.3649
12801SOL     OW50381  12.748   7.250  11.497  0.4965  0.1160 -0.3504
12801SOL    HW150382  12.710   7.299  11.424  1.4056  1.0245 -0.2469
12801SOL    HW250383  12.836   7.228  11.467  0.7540  0.1932  0.3390
12802SOL     OW50384   9.725  13.722   9.675  1.1821  0.0448  0.1363
12802SOL    HW150385   9.695  13.760   9.592  1.2863  0.9927  0.5255
12802SOL    HW250386   9.783  13.650   9.648  0.0910 -0.5935 -0.6084
12803SOL     OW50387  13.835   8.522   5.872  0.0732 -0.4957  0.1574
12803SOL    HW150388  13.856   8.430   5.858 -1.0458 -0.5930 -0.9970
12803SOL    HW250389  13.878   8.568   5.800 -1.4252 -0.4145 -0.7162
12804SOL     OW50390   2.634  11.085  13.281 -0.2373  0.5001 -0.7961
12804SOL    HW150391   2.572  11.155  13.260 -0.3811  0.5552 -0.2150
12804SOL    HW250392   2.670  11.059  13.197 -0.0388  1.4080 -1.0060
12805SOL     OW50393   1.267  13.390   8.704 -0.2410  0.3417  0.4803
12805SOL    HW150394   1.222  13.311   8.733  0.6210 -0.7482 -0.9598
12805SOL    HW250395   1.261  13.387   8.608  1.6681  0.8317  0.2912
12806SOL     OW50396   1.863   1.957  12.039 -0.1498  0.2823  0.7060
12806SOL    HW150397   1.904   2.040  12.013  2.0483 -0.7855  0.5754
12806SOL    HW250398   1.846   1.968  12.133  1.2362  0.4789  0.9553
12807SOL     OW50399   7.676   4.560  10.157 -0.6523  0.2290  0.0786
12807SOL    HW150400   7.584   4.534  10.150 -1.0399  1.6641 -0.4636
12807SOL    HW250401   7.725   4.485  10.122 -1.5600 -0.8085  0.9558
12808SOL     OW50402  11.025   8.604   0.753 -0.4422  0.4539 -0.2139
12808SOL    HW150403  11.031   8.588   0.659 -0.6512  0.1707 -0.1791
12808SOL    HW250404  11.114   8.630   0.778 -0.0913 -0.6408 -0.2783
12809SOL     OW50405   6.386   4.053   2.459 -0.2202  0.4221  0.0801
12809SOL    HW150406   6.428   4.107   2.392  0.4591 -0.6872 -0.4252
12809SOL    HW250407   6.294   4.051   2.434  0.0116  0.0915 -0.7907
12810SOL     OW50408   5.707  13.517   9.671 -0.3464  0.3266 -0.1894
12810SOL    HW150409   5.754  13.600   9.667  0.0884  0.0611 -0.8854
12810SOL    HW250410   5.721  13.485   9.760  0.2040  0.5945 -0.1771
12811SOL     OW50411   1.733   0.215   7.976 -0.2381  0.6736  0.4260
12811SOL    HW150412   1.750   0.300   7.935 -1.0996  0.7668  0.2396
12811SOL    HW250413   1.815   0.193   8.021  0.4748  0.9391 -0.6902
12812SOL     OW50414   2.285  11.653   1.585 -0.0593  0.2702  0.9739
12812SOL    HW150415   2.217  11.634   1.651 -0.6856  0.7158  0.4651
12812SOL    HW250416   2.305  11.746   1.598  0.3778  0.1696  1.0397
12813SOL     OW50417   2.052   5.724   6.700  0.1333  0.2959 -0.2917
12813SOL    HW150418   2.094   5.649   6.743 -0.5556  1.1244  2.0222
12813SOL    HW250419   2.106   5.798   6.725 -1.4588  1.0927  1.0035
12814SOL     OW50420  12.873  10.121   5.979  0.3600 -0.0152 -0.5189
12814SOL    HW150421  12.872  10.056   5.909  1.5448 -1.4549  0.7516
12814SOL    HW250422  12.844  10.074   6.056 -0.9229  1.5500  0.0114
12815SOL     OW50423   5.786   8.257   2.466 -0.4117 -0.2232  0.0086
12815SOL    HW150424   5.844   8.325   2.431 -1.3802  0.6907  0.1269
12815SOL    HW250425   5.751   8.294   2.547 -2.3379 -0.1018 -0.8292
12816SOL     OW50426   0.117   9.719   3.709  0.2447  0.6373  0.1195
12816SOL    HW150427   0.051   9.659   3.675  0.1760  2.3963 -3.2919
12816SOL    HW250428   0.153   9.675   3.786 -2.7505 -1.7216  0.3273
12817SOL     OW50429   3.804   6.510  13.991 -0.2298  0.1562  0.7945
12817SOL    HW150430   3.770   6.571  13.926  0.0293  0.7377  1.1976
12817SOL    HW250431   3.776   6.424  13.960 -1.6836  0.5787  0.9010
12818SOL     OW50432  12.530   9.599   5.715 -0.2038 -0.1429  0.0678
12818SOL    HW150433  12.591   9.536   5.753 -0.3661 -1.1101 -1.2391
12818SOL    HW250434  12.582   9.648   5.652 -0.2923  0.4336  0.4378
12819SOL     OW50435   3.265   4.343   2.042 -0.2537  0.0270 -0.3382
12819SOL    HW150436   3.247   4.291   1.964 -1.8658 -3.0489  1.8709
12819SOL    HW250437   3.355   4.320   2.066 -0.7512 -1.4133  0.2778
12820SOL     OW50438   0.694   9.246   7.003  0.6893 -0.6030 -0.1584
12820SOL    HW150439   0.742   9.193   6.940 -1.3461 -1.2707 -1.2191
12820SOL    HW250440   0.749   9.324   7.015  1.2770 -0.5857 -2.5385
12821SOL     OW50441   9.565   6.300   9.622  0.1295  0.1714  0.3531
12821SOL    HW150442   9.571   6.304   9.718  0.8735 -0.1067  0.3282
12821SOL    HW250443   9.615   6.377   9.593  0.8347 -0.3418  0.1770
12822SOL     OW50444  13.044   2.751   5.835 -0.0612  0.3259  0.4469
12822SOL    HW150445  13.072   2.713   5.751 -0.6233  0.0814  0.3681
12822SOL    HW250446  12.963   2.797   5.814 -1.0927 -1.0931  1.1691
12823SOL     OW50447  10.101   5.860  12.223  0.4722 -0.1166 -0.4926
12823SOL    HW150448  10.063   5.942  12.254  0.3798 -0.3840  0.0985
12823SOL    HW250449  10.068   5.793  12.282  0.5129 -0.5920 -1.0004
12824SOL     OW50450   5.921   4.248   4.451  0.5817 -0.1594  0.3820
12824SOL    HW150451   5.927   4.199   4.369  0.5616  0.8009 -0.2048
12824SOL    HW250452   5.853   4.202   4.501 -0.5982  0.1919 -0.8276
12825SOL     OW50453  14.002  11.113   9.245  0.5594 -0.3242  0.7754
12825SOL    HW150454  14.004  11.161   9.328  1.8744  0.9491  0.0423
12825SOL    HW250455  13.947  11.036   9.264 -0.4065  0.6890  2.3934
12826SOL     OW50456   7.573   0.573   6.377  0.1990 -0.1247 -0.4468
12826SOL    HW150457   7.540   0.659   6.349  0.9755 -0.5792 -3.0341
12826SOL    HW250458   7.641   0.593   6.441 -0.2093  1.1578 -0.3867
12827SOL     OW50459   3.299   0.474  11.537  0.4813 -0.1462  0.2894
12827SOL    HW150460   3.236   0.455  11.469 -0.7248  0.5911  1.1586
12827SOL    HW250461   3.362   0.402  11.533  0.1207 -0.4027 -1.2010
12828SOL     OW50462   7.131   5.933  13.046  0.2293  0.0473  0.1133
12828SOL    HW150463   7.138   6.005  13.108 -1.4554 -1.0382  1.6444
12828SOL    HW250464   7.103   5.858  13.098 -2.4217 -0.6525 -2.0387
12829SOL     OW50465   5.772  11.336   0.130 -0.0088  0.7679  0.8010
12829SOL    HW150466   5.796  11.417   0.085 -2.5354  1.3783  0.4331
12829SOL    HW250467   5.683  11.351   0.162 -0.4765 -1.7942  0.9185
12830SOL     OW50468   2.306   6.095  11.894  0.0115  0.2104 -0.1019
12830SOL    HW150469   2.365   6.078  11.821 -1.7998  0.0381 -1.6165
12830SOL    HW250470   2.253   6.015  11.901 -1.6965  1.2486 -0.4853
12831SOL     OW50471   9.060   8.842  10.370 -0.6305  0.1733 -0.0982
12831SOL    HW150472   9.105   8.855  10.454  0.9787 -1.9551 -0.5334
12831SOL    HW250473   8.998   8.772  10.386 -1.0280  0.4388 -0.4567
12832SOL     OW50474   1.152   0.126  11.119  0.0799  0.6070  0.3193
12832SOL    HW150475   1.158   0.033  11.098  1.1968  0.9828 -1.2841
12832SOL    HW250476   1.059   0.145  11.117 -0.1269 -0.3661  0.0700
12833SOL     OW50477   2.765   9.501   5.983  0.2374 -0.3916 -0.0176
12833SOL    HW150478   2.715   9.499   5.902  0.3185  0.7992 -0.1072
12833SOL    HW250479   2.855   9.518   5.955  0.2442  0.1517  0.3287
12834SOL     OW50480   2.127   2.637   6.607  0.7793  0.4130  0.2799
12834SOL    HW150481   2.078   2.707   6.563  0.0429 -0.0452  0.3621
12834SOL    HW250482   2.132   2.665   6.699 -0.1356  0.0314  0.4571
12835SOL     OW50483   8.401   0.705   8.096  0.3328 -0.5145  0.2449
12835SOL    HW150484   8.395   0.776   8.033 -1.8325 -1.1706 -0.3884
12835SOL    HW250485   8.359   0.738   8.175  0.3576 -0.6922  0.3348
12836SOL     OW50486   6.735  13.657   3.048 -0.2604  0.2202  0.3548
12836SOL    HW150487   6.655  13.699   3.016 -0.1599  0.3918  0.3279
12836SOL    HW250488   6.803  13.723   3.035 -0.2012  0.2496  0.8255
12837SOL     OW50489   7.740   8.516   9.328 -0.4412 -0.0512 -0.2167
12837SOL    HW150490   7.664   8.507   9.386 -0.6601 -3.6738 -0.8491
12837SOL    HW250491   7.702   8.528   9.241 -0.2345 -0.2776 -0.3367
12838SOL     OW50492  11.313  11.669   7.443 -0.3316 -0.0667 -0.0710
12838SOL    HW150493  11.274  11.596   7.395 -0.2521  0.5113 -1.0429
12838SOL    HW250494  11.388  11.630   7.488  0.8731 -0.2867 -2.0921
12839SOL     OW50495   9.563  12.196   7.006  0.4944 -0.6128 -0.9064
12839SOL    HW150496   9.658  12.194   6.995  0.6184  0.8419 -0.3169
12839SOL    HW250497   9.547  12.150   7.089  0.5234 -2.1403 -1.7112
12840SOL     OW50498   9.823  11.054   8.572  0.3700  0.4803  0.6429
12840SOL    HW150499   9.825  10.968   8.614 -1.1661  0.6009  1.0186
12840SOL    HW250500   9.750  11.049   8.511  1.8767  0.6716 -1.2848
12841SOL     OW50501   9.273   6.661   8.252 -0.3107  0.5051 -0.5245
12841SOL    HW150502   9.198   6.686   8.199 -0.9330 -2.7912 -1.3701
12841SOL    HW250503   9.262   6.568   8.268  4.1317 -0.4390 -1.5922
12842SOL     OW50504   2.951   4.917  12.396  0.0676 -0.3455 -0.6087
12842SOL    HW150505   2.873   4.910  12.340  0.1938 -0.3966 -0.7808
12842SOL    HW250506   2.916   4.932  12.484 -0.1315  0.1379 -0.7605
12843SOL     OW50507   9.590   9.713   3.177  0.2892 -0.2610 -0.1283
12843SOL    HW150508   9.653   9.722   3.248 -1.4681 -0.5332  1.5720
12843SOL    HW250509   9.608   9.786   3.118  1.0384  0.6975  1.2371
12844SOL     OW50510   6.523  11.162   0.561 -0.0229 -0.0105  0.7699
12844SOL    HW150511   6.501  11.249   0.527  0.4406 -0.2161 -0.0686
12844SOL    HW250512   6.563  11.117   0.487  1.1320 -0.4163  1.6176
12845SOL     OW50513   6.725  13.630   0.070  0.4332 -0.0038 -0.0310
12845SOL    HW150514   6.695  13.541   0.056 -0.3336  0.3934 -1.0232
12845SOL    HW250515   6.788  13.645  -0.000  0.8418  0.1132  0.3592
12846SOL     OW50516   2.067   1.051   6.394 -1.0397  0.3760 -0.0429
12846SOL    HW150517   2.141   1.073   6.450 -0.0083  0.1049 -1.2678
12846SOL    HW250518   2.015   1.132   6.390  0.0374  1.0630 -0.4326
12847SOL     OW50519  10.067   9.081   7.510  0.0350  0.4109  0.1349
12847SOL    HW150520  10.097   9.147   7.448  0.7889  1.3635  1.4695
12847SOL    HW250521  10.075   9.122   7.596 -1.1332 -0.8099  0.8828
12848SOL     OW50522  10.478  10.243  10.109  0.6063 -0.2846  0.4530
12848SOL    HW150523  10.519  10.311  10.056  0.2055 -0.1535  0.3085
12848SOL    HW250524  10.385  10.264  10.107  0.2112 -1.9620 -1.2434
12849SOL     OW50525   0.571  11.835   0.297 -0.1183 -0.1342  0.0352
12849SOL    HW150526   0.488  11.790   0.282  0.8803 -1.4703 -1.9798
12849SOL    HW250527   0.547  11.918   0.338 -2.4867 -0.2451 -0.9863
12850SOL     OW50528   8.338   6.925   0.383  0.3488 -0.1804 -0.5139
12850SOL    HW150529   8.389   6.992   0.338 -0.7840  1.4446  0.5132
12850SOL    HW250530   8.291   6.972   0.452 -1.1826 -1.8812 -0.3019
12851SOL     OW50531   5.720   9.473   8.988 -0.1394 -0.0869  0.0569
12851SOL    HW150532   5.735   9.394   8.936  1.6309  0.0280  0.3423
12851SOL    HW250533   5.800   9.524   8.977 -0.2133  0.4871  1.9671
12852SOL     OW50534   6.071  10.455   3.393 -0.6830 -0.7505  0.4586
12852SOL    HW150535   6.107  10.447   3.481 -0.1636 -0.8126  0.2446
12852SOL    HW250536   6.018  10.536   3.396 -2.2911 -1.7729  1.3631
12853SOL     OW50537   2.179   0.214   0.706  0.1522 -0.4060  0.0496
12853SOL    HW150538   2.129   0.296   0.708 -0.8414 -0.8766 -2.2188
12853SOL    HW250539   2.269   0.241   0.693  0.3300  0.3880  2.3837
12854SOL     OW50540   8.984  11.883  11.047  0.4173  0.5488 -0.2098
12854SOL    HW150541   9.033  11.864  10.967 -0.9761 -1.3659 -0.6756
12854SOL    HW250542   8.988  11.802  11.098 -0.8666  0.8739  0.4616
12855SOL     OW50543   2.497   6.151   8.749 -0.4512 -0.0201  0.2964
12855SOL    HW150544   2.459   6.079   8.699  1.0076 -0.0741 -0.8204
12855SOL    HW250545   2.586   6.121   8.769 -0.1207  1.1003  0.5877
12856SOL     OW50546   4.107   5.335   7.947  0.2187  0.2588  0.2113
12856SOL    HW150547   4.129   5.312   7.857  0.9486  1.4159  0.0632
12856SOL    HW250548   4.062   5.420   7.940 -1.2827 -0.4407  0.8142
12857SOL     OW50549   4.872   9.551   3.216  0.0120 -0.1991 -0.7098
12857SOL    HW150550   4.840   9.624   3.164 -0.4900  1.4582  1.7683
12857SOL    HW250551   4.968   9.561   3.217 -0.0628  0.5132 -0.2945
12858SOL     OW50552   1.599  12.549  11.079  0.0419  0.0310  0.6466
12858SOL    HW150553   1.540  12.620  11.056 -0.4597 -0.5656  0.0475
12858SOL    HW250554   1.549  12.497  11.143 -0.2672 -0.7122 -0.1784
12859SOL     OW50555  11.063   2.157  13.992 -0.1704  0.1565  0.4643
12859SOL    HW150556  11.146   2.115  14.015  0.6385  0.7542 -1.2037
12859SOL    HW250557  11.032   2.109  13.915 -0.3322  1.2438 -0.1631
12860SOL     OW50558   4.122  13.516   0.665 -0.4989 -0.0671  0.2263
12860SOL    HW150559   4.064  13.458   0.714 -0.6415  0.7216  1.0107
12860SOL    HW250560   4.065  13.583   0.629 -0.0898  0.7253  1.0205
12861SOL     OW50561   2.967   9.481   6.987 -0.3031  0.1429  0.1204
12861SOL    HW150562   2.964   9.531   7.068  0.3120  1.0557 -0.3976
12861SOL    HW250563   2.995   9.545   6.921 -3.1731  0.1071 -1.3256
12862SOL     OW50564  10.372   1.831   0.185 -0.4404 -0.1824 -0.3129
12862SOL    HW150565  10.382   1.738   0.168 -0.4198 -0.4208  0.9228
12862SOL    HW250566  10.286   1.840   0.224  0.0518  0.1280  0.7450
12863SOL     OW50567   1.556   4.622   3.566  0.3175  0.0059 -0.5927
12863SOL    HW150568   1.492   4.655   3.502  0.7112 -1.3613 -1.7297
12863SOL    HW250569   1.629   4.684   3.560  0.1922  0.1030 -1.2011
12864SOL     OW50570  10.034   5.368  13.891  0.1422  0.2968  0.0966
12864SOL    HW150571  10.074   5.374  13.804  0.2057 -0.5083  0.0659
12864SOL    HW250572  10.039   5.457  13.926  0.6012  0.5133 -0.5129
12865SOL     OW50573   0.200  11.794   8.404  0.0890 -0.5970 -0.6203
12865SOL    HW150574   0.142  11.734   8.452  0.2855  0.1391  0.5822
12865SOL    HW250575   0.190  11.878   8.449  0.2992  0.1234 -1.8868
12866SOL     OW50576   3.318   2.402   1.830  0.3048 -0.0638  0.3681
12866SOL    HW150577   3.315   2.309   1.852  0.9594 -0.5706 -1.5065
12866SOL    HW250578   3.237   2.438   1.867  0.0265 -1.3768  1.1028
12867SOL     OW50579   5.685   6.781  12.561  0.1344  0.0082  0.7612
12867SOL    HW150580   5.694   6.728  12.640  0.1697  0.2109  0.8939
12867SOL    HW250581   5.613   6.741  12.513  0.8115 -0.7777  0.3708
12868SOL     OW50582   8.435   4.047  11.994 -0.0049 -0.0102  0.0893
12868SOL    HW150583   8.346   4.065  12.024  0.1424 -1.3567  1.4399
12868SOL    HW250584   8.481   4.015  12.072  1.1491 -1.0757 -0.9757
12869SOL     OW50585  10.467   8.868   6.515 -0.1025  0.5013  0.5647
12869SOL    HW150586  10.514   8.785   6.504 -0.7396 -0.1679  2.5108
12869SOL    HW250587  10.396   8.863   6.452 -1.7839 -1.7432  2.4579
12870SOL     OW50588   3.567   2.951   7.156  0.7225  0.0837  0.6574
12870SOL    HW150589   3.584   3.027   7.101 -1.7425  1.8327  2.1148
12870SOL    HW250590   3.521   2.890   7.099 -0.4893  1.2520  0.3361
12871SOL     OW50591   5.714   7.665   1.813 -0.0719  0.0783  0.2220
12871SOL    HW150592   5.654   7.616   1.868  1.2222 -1.1559  0.5814
12871SOL    HW250593   5.797   7.664   1.860  0.1308  2.2731  0.0361
12872SOL     OW50594  13.289  14.028   3.308 -0.0006  0.0126  0.7830
12872SOL    HW150595  13.256  14.030   3.218  0.4790 -1.6613  0.5257
12872SOL    HW250596  13.355  13.958   3.308  0.8631  0.7783  2.1639
12873SOL     OW50597   4.554  11.022   1.870 -0.5007  0.3105 -0.3548
12873SOL    HW150598   4.604  10.944   1.895 -1.1755 -0.2301 -0.6549
12873SOL    HW250599   4.600  11.095   1.912  0.9787 -0.0731 -1.2467
12874SOL     OW50600   2.573   4.077   5.393 -0.5984 -0.1789 -0.3748
12874SOL    HW150601   2.535   4.071   5.305 -0.1017 -0.2280 -0.5884
12874SOL    HW250602   2.500   4.058   5.452 -1.5779  2.3657 -0.6514
12875SOL     OW50603   4.597   3.536  11.282 -0.0299 -0.5181 -0.1417
12875SOL    HW150604   4.608   3.551  11.376 -3.2489 -0.1555  0.2841
12875SOL    HW250605   4.661   3.595  11.241  0.7243  0.0950  1.7810
12876SOL     OW50606   0.529  10.294   3.189  0.1653  0.2550 -0.3317
12876SOL    HW150607   0.466  10.303   3.261 -0.1332 -1.4476 -0.3354
12876SOL    HW250608   0.501  10.358   3.124 -0.9488  0.2359  0.1093
12877SOL     OW50609  11.530   3.032  10.766  0.4809 -0.1783  0.1886
12877SOL    HW150610  11.588   3.062  10.696  0.3731  2.0689  0.9749
12877SOL    HW250611  11.454   3.090  10.760  0.5875  0.2667  2.2801
12878SOL     OW50612   6.606   4.572   8.675  0.0501 -0.1349  0.4462
12878SOL    HW150613   6.563   4.491   8.703 -0.1506 -0.5489 -0.9585
12878SOL    HW250614   6.585   4.579   8.582  2.6335 -0.0914 -0.1988
12879SOL     OW50615   2.788   3.462   8.871  0.4984  0.1938  0.1631
12879SOL    HW150616   2.864   3.518   8.857 -0.4164  1.9326  1.5883
12879SOL    HW250617   2.794   3.436   8.963 -1.7847  2.4239  1.0775
12880SOL     OW50618   0.704  11.221   2.120  0.3358  0.2054  0.1952
12880SOL    HW150619   0.719  11.310   2.088 -0.1224 -0.3900 -1.8392
12880SOL    HW250620   0.622  11.193   2.078  1.2323 -1.6741 -0.4553
12881SOL     OW50621   2.126   5.540   1.480 -0.2373  0.5068 -0.1221
12881SOL    HW150622   2.165   5.459   1.515 -2.6697 -0.2129  1.1488
12881SOL    HW250623   2.067   5.570   1.550 -0.1733  2.8378 -0.9888
12882SOL     OW50624  11.715  11.573  10.264 -0.1326 -0.1126  0.1023
12882SOL    HW150625  11.805  11.604  10.278  0.2605 -0.4584 -1.5016
12882SOL    HW250626  11.724  11.482  10.236 -0.9145  0.0977 -0.8981
12883SOL     OW50627   4.077  12.626   4.453 -1.0204  0.2640 -0.2206
12883SOL    HW150628   4.020  12.675   4.512 -2.1458 -1.4671  0.2119
12883SOL    HW250629   4.102  12.689   4.385  0.7038  2.4710  2.2604
12884SOL     OW50630  10.244  11.881   3.275 -0.2670  0.3745 -0.1025
12884SOL    HW150631  10.190  11.944   3.322 -0.8035  0.0584 -0.2847
12884SOL    HW250632  10.279  11.824   3.344  1.7265  1.9534  0.2772
12885SOL     OW50633   6.357   0.940   8.893 -0.3488 -0.1270  0.3070
12885SOL    HW150634   6.315   0.979   8.969  0.6919  2.6233 -0.4169
12885SOL    HW250635   6.427   0.886   8.929  0.4561  1.5386  1.3294
12886SOL     OW50636   4.208   3.330   2.844 -0.5055  0.0700 -0.2846
12886SOL    HW150637   4.214   3.357   2.753  1.1563 -0.8480 -0.4859
12886SOL    HW250638   4.121   3.290   2.852 -1.2588  1.5051 -1.0585
12887SOL     OW50639   3.976   3.182   7.826  0.1522 -0.1397 -0.0644
12887SOL    HW150640   3.941   3.254   7.772 -1.5779 -1.3929 -0.6944
12887SOL    HW250641   3.915   3.110   7.813  1.8314 -1.7632  0.5522
12888SOL     OW50642   4.660  12.286   3.137 -0.2716  0.7301  0.6340
12888SOL    HW150643   4.595  12.229   3.179 -0.0702  0.2697  0.3197
12888SOL    HW250644   4.744  12.246   3.158 -0.2192 -1.0131 -2.3109
12889SOL     OW50645   3.314   2.909   0.262  0.2623 -0.0184 -1.0203
12889SOL    HW150646   3.298   2.918   0.168  1.3481 -1.3016 -1.3675
12889SOL    HW250647   3.351   2.822   0.271 -2.3014 -1.0202  0.9789
12890SOL     OW50648  11.633  12.477   6.985  0.5338 -0.7475 -0.0306
12890SOL    HW150649  11.722  12.480   6.950 -0.0521 -0.2269 -1.5554
12890SOL    HW250650  11.632  12.545   7.053  0.9361  0.2281 -0.9606
12891SOL     OW50651  13.362  13.153   4.169  0.4351 -0.5046  0.6092
12891SOL    HW150652  13.310  13.073   4.165  0.7406 -0.6675 -0.5972
12891SOL    HW250653  13.372  13.179   4.077  0.7865  0.6231  0.9518
12892SOL     OW50654   0.568   7.504  12.742 -0.2636  0.2908  0.5446
12892SOL    HW150655   0.582   7.599  12.731  0.3226  0.1917  0.3880
12892SOL    HW250656   0.500   7.498  12.809 -1.1822  0.8465 -0.3003
12893SOL     OW50657   2.300  11.154   1.840  0.7676  0.2260  0.3716
12893SOL    HW150658   2.323  11.066   1.870 -0.4505  0.0525  0.8402
12893SOL    HW250659   2.321  11.211   1.914 -2.3187 -0.2121  1.7486
12894SOL     OW50660   7.693   1.735   3.990  0.4557 -0.1988  0.3528
12894SOL    HW150661   7.786   1.751   4.007  0.5228  0.6162 -0.7351
12894SOL    HW250662   7.682   1.641   4.005  1.6245 -0.4502 -0.2951
12895SOL     OW50663   8.277  14.001   6.136 -0.1625 -0.0871  0.0844
12895SOL    HW150664   8.271  13.920   6.085 -0.3393  1.8071 -3.1427
12895SOL    HW250665   8.365  13.998   6.174  0.3203 -1.2203 -1.0294
12896SOL     OW50666   2.694   0.649   1.721  0.0527 -0.5624  0.0018
12896SOL    HW150667   2.678   0.656   1.627  0.4393 -0.5701 -0.0697
12896SOL    HW250668   2.790   0.644   1.728  0.0906  0.4645  0.4566
12897SOL     OW50669   0.468   1.076   5.316  0.5886 -0.5658 -0.0162
12897SOL    HW150670   0.563   1.089   5.317  0.5350  0.2090 -1.6036
12897SOL    HW250671   0.433   1.150   5.367  0.8228 -0.6940  0.3320
12898SOL     OW50672   6.905  12.593   4.467  0.2503 -0.2389 -0.4075
12898SOL    HW150673   6.812  12.569   4.466 -0.2584  1.5299 -0.1582
12898SOL    HW250674   6.952  12.511   4.451 -1.3668 -1.0598 -1.1432
12899SOL     OW50675   6.262   8.203   3.276 -0.1495  0.4179  0.1938
12899SOL    HW150676   6.303   8.179   3.193  0.3333  0.2046  0.4893
12899SOL    HW250677   6.172   8.173   3.268  0.4491 -1.6456  0.5897
12900SOL     OW50678  13.404   4.272  13.548 -0.2947  0.3563  0.5745
12900SOL    HW150679  13.376   4.266  13.457  0.7089  2.5110  0.0378
12900SOL    HW250680  13.441   4.187  13.568 -1.0182 -0.3258 -0.8513
12901SOL     OW50681  10.522   0.306  12.180 -0.1934 -0.2012  0.5788
12901SOL    HW150682  10.608   0.288  12.217 -0.4425  0.2468  1.4139
12901SOL    HW250683  10.477   0.221  12.182  0.4339 -0.5685 -0.4503
12902SOL     OW50684   7.884   2.465  10.831  0.1342 -0.1321  0.2585
12902SOL    HW150685   7.802   2.491  10.873  0.1291  0.7894 -0.2888
12902SOL    HW250686   7.880   2.369  10.828  0.4345 -0.2888  2.9310
12903SOL     OW50687   5.332  13.668   0.070 -0.2830 -0.0190  0.6188
12903SOL    HW150688   5.423  13.669   0.041 -1.0578  0.7195 -2.0284
12903SOL    HW250689   5.327  13.594   0.132  2.0527 -0.1091  0.7765
12904SOL     OW50690   2.711  10.333  12.219  0.1906 -0.3716 -0.2695
12904SOL    HW150691   2.736  10.241  12.235  0.4438 -0.6471 -2.0652
12904SOL    HW250692   2.784  10.370  12.171 -0.6093  0.3034 -1.0062
12905SOL     OW50693  11.710  10.942   3.899 -0.1709 -0.0129 -0.2057
12905SOL    HW150694  11.628  10.990   3.913  0.6148  1.2987  0.0983
12905SOL    HW250695  11.723  10.945   3.804 -0.4545 -0.1851 -0.2500
12906SOL     OW50696   3.139  13.308   6.348  0.0550  0.1081  0.3746
12906SOL    HW150697   3.056  13.274   6.314 -0.3132  0.8078  0.5516
12906SOL    HW250698   3.143  13.398   6.315 -0.1405  0.6881  1.8341
12907SOL     OW50699  10.065   1.417  13.452  0.4493 -0.0627 -0.8624
12907SOL    HW150700  10.020   1.336  13.429  0.8575 -0.3420 -0.6874
12907SOL    HW250701  10.062   1.420  13.548  3.1602 -1.4963 -0.6227
12908SOL     OW50702   2.757   4.782  12.909  0.4313 -0.0940 -0.7809
12908SOL    HW150703   2.824   4.772  12.976 -0.4920 -1.4778 -0.0254
12908SOL    HW250704   2.689   4.718  12.932 -0.2378 -0.1183 -2.6368
12909SOL     OW50705  12.065   0.155  13.433  0.3315  0.5999 -0.3965
12909SOL    HW150706  12.103   0.087  13.378 -1.0982 -1.0896  0.6217
12909SOL    HW250707  11.998   0.196  13.379 -0.3318 -0.3228 -0.2813
12910SOL     OW50708   1.600   9.001  13.586  0.0262 -0.0737 -0.0556
12910SOL    HW150709   1.564   8.925  13.541 -0.9322  0.9028 -0.9810
12910SOL    HW250710   1.567   8.993  13.676  1.0995 -1.4772  0.2422
12911SOL     OW50711  10.414  13.350   0.429  0.3819 -0.6118  0.3657
12911SOL    HW150712  10.504  13.329   0.403 -0.6590 -0.9965 -3.5235
12911SOL    HW250713  10.417  13.442   0.452  1.4896 -0.0682 -1.6828
12912SOL     OW50714   1.531  10.399   5.937  0.3057  0.1281  0.2440
12912SOL    HW150715   1.510  10.328   5.998  2.3233 -1.4892 -0.8346
12912SOL    HW250716   1.445  10.434   5.911 -0.8681 -2.6203  0.0104
12913SOL     OW50717   7.587   6.748  12.507  0.2892 -0.4908  0.0580
12913SOL    HW150718   7.540   6.674  12.469 -0.0373 -0.0474 -0.4074
12913SOL    HW250719   7.678   6.734  12.481  0.2786 -0.8705  0.2074
12914SOL     OW50720   1.590   2.742   6.565 -0.5591 -0.9604  0.2457
12914SOL    HW150721   1.641   2.672   6.523  1.8263  1.2232 -0.7683
12914SOL    HW250722   1.511   2.750   6.511 -0.9544 -2.9077  0.4721
12915SOL     OW50723   8.256   0.134   9.189 -0.2566  0.0981 -0.4722
12915SOL    HW150724   8.237   0.184   9.268 -0.9765  0.1524 -0.6721
12915SOL    HW250725   8.172   0.096   9.164  0.3570 -1.7260  0.0131
12916SOL     OW50726  10.835   9.619   7.553 -0.2869  0.1938 -0.2423
12916SOL    HW150727  10.821   9.622   7.648 -0.4684  0.8661 -0.2812
12916SOL    HW250728  10.802   9.534   7.526 -0.6282  0.1662  0.2436
12917SOL     OW50729  11.348  13.974   8.027  0.1853  0.2542 -0.0804
12917SOL    HW150730  11.282  13.928   7.974 -1.4810  1.7774  0.5431
12917SOL    HW250731  11.361  14.058   7.982  1.8434 -0.0656 -0.2597
12918SOL     OW50732   5.847   5.434  10.038  0.7683  0.0689 -0.0858
12918SOL    HW150733   5.831   5.519  10.080 -0.1970 -0.0677 -0.1567
12918SOL    HW250734   5.839   5.371  10.109 -1.1380 -0.1890 -0.4845
12919SOL     OW50735   8.056  11.381  10.938 -0.0572 -0.2288  0.4530
12919SOL    HW150736   8.063  11.467  10.896 -0.2069 -0.2904  0.3027
12919SOL    HW250737   8.118  11.385  11.011  0.7241 -0.3683 -0.1932
12920SOL     OW50738   6.077   5.225   7.338 -0.0916 -0.2344 -0.1292
12920SOL    HW150739   5.990   5.211   7.376  0.6881 -1.2846  1.3723
12920SOL    HW250740   6.136   5.227   7.413  1.3461 -0.9110 -1.1912
12921SOL     OW50741   0.848  13.555   9.627 -0.2643  0.0496  0.2404
12921SOL    HW150742   0.841  13.497   9.703  1.3312  1.4373  1.5224
12921SOL    HW250743   0.850  13.496   9.552 -0.6444 -1.4290  1.3412
12922SOL     OW50744   0.893   6.645  11.965  0.4049  0.0292 -0.1723
12922SOL    HW150745   0.944   6.582  11.913  1.5271  0.6244  0.1627
12922SOL    HW250746   0.840   6.691  11.900  1.6279  0.6168 -0.7977
12923SOL     OW50747   9.204   8.428   6.543  0.5391  0.0320 -0.1394
12923SOL    HW150748   9.155   8.346   6.551 -1.1210  0.9742 -0.1925
12923SOL    HW250749   9.246   8.439   6.629  2.2611 -1.7040 -0.6690
12924SOL     OW50750  10.974   8.325   4.124  0.0455  0.7468  0.4987
12924SOL    HW150751  10.962   8.300   4.215  1.0813  0.4640  0.5734
12924SOL    HW250752  10.905   8.389   4.107 -1.3388 -0.5901  0.9213
12925SOL     OW50753   7.227   9.218   4.556  0.0834  0.1927 -0.6778
12925SOL    HW150754   7.297   9.282   4.539  1.2523 -1.4356 -2.3076
12925SOL    HW250755   7.265   9.134   4.531 -1.1250 -1.3355  2.1216
12926SOL     OW50756   0.401  13.959  13.860  0.3711 -0.3210  0.3402
12926SOL    HW150757   0.337  13.907  13.909 -0.4145 -0.6362 -0.9702
12926SOL    HW250758   0.373  14.049  13.871 -1.2563 -0.5437 -1.4455
12927SOL     OW50759   2.483  10.209   4.651 -0.1002 -0.5853  0.2180
12927SOL    HW150760   2.560  10.204   4.708  0.9821 -0.4315 -1.1691
12927SOL    HW250761   2.434  10.285   4.682  2.7486  2.2558 -1.7202
12928SOL     OW50762   7.852  13.246   7.477 -0.2841  0.3390  0.0024
12928SOL    HW150763   7.945  13.257   7.494  0.4981 -0.8031 -2.9096
12928SOL    HW250764   7.832  13.158   7.507 -0.2807  0.3823  0.1305
12929SOL     OW50765  12.430  12.030  11.722  0.0999 -0.3799  0.3990
12929SOL    HW150766  12.489  11.985  11.661 -0.9197 -1.0746 -0.0943
12929SOL    HW250767  12.387  11.960  11.771 -1.6351  0.0123 -0.4937
12930SOL     OW50768   3.594   1.714   2.572 -0.4243 -0.7916  0.1389
12930SOL    HW150769   3.584   1.770   2.496  0.4627 -0.2491  0.4103
12930SOL    HW250770   3.666   1.655   2.550  1.2148  0.6777  1.2872
12931SOL     OW50771   0.571  11.267  12.091 -0.0495 -0.0575 -0.5356
12931SOL    HW150772   0.550  11.334  12.157 -0.9801 -2.2159  1.4812
12931SOL    HW250773   0.496  11.268  12.032  0.3026  1.1658 -1.0055
12932SOL     OW50774   3.295   3.307   4.223  0.6954 -0.0104  0.3379
12932SOL    HW150775   3.378   3.355   4.229  0.6898 -0.1379  3.3715
12932SOL    HW250776   3.228   3.374   4.235  0.6570 -0.4444  3.5638
12933SOL     OW50777   7.415  12.044  10.165  0.1874 -0.3016  0.1886
12933SOL    HW150778   7.365  11.968  10.195 -2.5007  1.3814  0.3016
12933SOL    HW250779   7.452  12.082  10.244 -2.1763  0.9220  0.8035
12934SOL     OW50780  11.859  12.278   3.034 -0.2626 -0.1500  0.2697
12934SOL    HW150781  11.951  12.275   3.005 -0.6257 -2.9563 -0.8656
12934SOL    HW250782  11.811  12.307   2.957 -0.6162 -1.7227 -0.1213
12935SOL     OW50783   0.002   1.120  11.352 -0.5698  0.4626 -0.4714
12935SOL    HW150784  -0.056   1.089  11.282 -0.1775 -0.4639 -0.3951
12935SOL    HW250785  -0.056   1.134  11.427 -1.1276  2.2217 -1.1659
12936SOL     OW50786   4.010   9.293  13.901  0.5143  0.2395 -0.3701
12936SOL    HW150787   3.972   9.317  13.986 -2.6445  0.3321 -1.6795
12936SOL    HW250788   4.016   9.375  13.852  0.7098 -0.0522 -0.8442
12937SOL     OW50789  13.298  10.252   0.276  0.4032  0.3798  0.5770
12937SOL    HW150790  13.272  10.308   0.349  0.0192 -1.5920  2.0411
12937SOL    HW250791  13.266  10.297   0.198 -1.0488  1.5164  1.7733
12938SOL     OW50792   1.214   4.332   4.715  0.3733 -0.0711 -0.4470
12938SOL    HW150793   1.123   4.360   4.723 -0.1777 -1.9791  0.6833
12938SOL    HW250794   1.257   4.367   4.793  0.1005 -0.8628  0.0699
12939SOL     OW50795  11.624   6.497  12.505 -0.1768 -0.0067 -0.5980
12939SOL    HW150796  11.588   6.416  12.468  0.8271 -0.4167 -0.7289
12939SOL    HW250797  11.548   6.550  12.527 -0.8868 -1.4214  0.4704
12940SOL     OW50798   3.331   6.999  13.761 -0.1721  0.3567 -0.1747
12940SOL    HW150799   3.350   6.906  13.770 -0.0915 -0.1321 -3.9814
12940SOL    HW250800   3.416   7.041  13.754 -0.2318  0.6516  0.6947
12941SOL     OW50801   5.410   7.813   9.940  0.4218  0.2764 -0.1017
12941SOL    HW150802   5.329   7.839   9.983  0.6176  0.1908  0.3220
12941SOL    HW250803   5.441   7.892   9.895  0.5082  0.5167  0.3798
12942SOL     OW50804   6.539   8.846   9.975 -0.0666 -0.6096 -0.2025
12942SOL    HW150805   6.617   8.800   9.943  0.4691  0.4750 -0.5007
12942SOL    HW250806   6.539   8.830  10.069  3.0308  2.8703  0.6351
12943SOL     OW50807   4.311  11.827  12.986 -0.2168 -0.7896 -0.4581
12943SOL    HW150808   4.246  11.762  13.014 -0.0506 -0.3932  0.8722
12943SOL    HW250809   4.259  11.904  12.963 -0.3819 -1.2287 -1.6873
12944SOL     OW50810  10.600   4.582  13.142  0.3548 -0.1515  0.4035
12944SOL    HW150811  10.547   4.548  13.214  0.3513  1.9882  1.5002
12944SOL    HW250812  10.690   4.560  13.168  0.1982 -2.2229 -0.5932
12945SOL     OW50813   7.987   3.958  11.578 -0.2506  0.0526  0.0640
12945SOL    HW150814   8.041   3.934  11.654 -1.6611 -1.5200  0.6128
12945SOL    HW250815   7.989   4.054  11.578  0.0532  0.0876  1.9047
12946SOL     OW50816   9.586   1.677  11.609  0.5639  0.6022  0.0129
12946SOL    HW150817   9.647   1.606  11.588 -1.6279 -1.3171 -0.3056
12946SOL    HW250818   9.542   1.648  11.689 -1.2757  0.9474 -0.8275
12947SOL     OW50819  10.117  10.362   5.844  0.0192  0.1912  0.4121
12947SOL    HW150820  10.055  10.290   5.832  1.5822 -1.1541  0.0758
12947SOL    HW250821  10.061  10.439   5.858 -1.7546 -0.5927 -1.6746
12948SOL     OW50822  11.746   8.744   9.328 -0.4653  0.0833 -1.0062
12948SOL    HW150823  11.677   8.739   9.395 -1.7599 -0.3354 -2.3187
12948SOL    HW250824  11.814   8.799   9.368 -0.9749 -0.5399  0.8187
12949SOL     OW50825   9.870   0.990   6.168 -0.0554  0.1421  0.5423
12949SOL    HW150826   9.779   0.964   6.185 -0.2097  0.1835 -0.1832
12949SOL    HW250827   9.919   0.958   6.244 -0.2374 -2.3224 -0.2709
12950SOL     OW50828   2.890  12.756   1.065  0.5024  0.3533  0.2993
12950SOL    HW150829   2.961  12.818   1.081  0.3453  0.1030  2.2439
12950SOL    HW250830   2.884  12.705   1.146  0.7873 -2.4185 -1.2911
12951SOL     OW50831   1.006  10.391   8.566  0.6071 -0.0247 -0.8991
12951SOL    HW150832   0.950  10.469   8.572  0.3556 -0.1392 -1.7067
12951SOL    HW250833   1.087  10.422   8.527  1.6248  0.3913  1.3907
12952SOL     OW50834   4.756   3.429   3.022  0.2589  0.4506  0.6454
12952SOL    HW150835   4.665   3.416   2.995  0.0613  0.1945  1.4148
12952SOL    HW250836   4.750   3.472   3.107  0.8768  2.0348 -0.0792
12953SOL     OW50837   6.042  10.136   5.776 -1.1317 -0.0445  0.5691
12953SOL    HW150838   6.122  10.170   5.817  0.0952  0.0173 -1.7468
12953SOL    HW250839   6.069  10.056   5.732 -2.5396 -0.4306  0.3543
12954SOL     OW50840   6.318  13.265   3.230 -0.0937  0.4243  0.0864
12954SOL    HW150841   6.405  13.266   3.190  0.7876 -0.5956  1.8835
12954SOL    HW250842   6.334  13.259   3.324 -2.1107  0.3043  0.4707
12955SOL     OW50843  10.638  13.608   2.002  0.7684 -0.1976  0.2003
12955SOL    HW150844  10.548  13.591   2.032  1.4237  0.1166  2.5474
12955SOL    HW250845  10.642  13.568   1.916 -2.1127  1.2176 -0.7413
12956SOL     OW50846   6.903   2.625  10.457  0.7719  0.4361  0.1188
12956SOL    HW150847   6.852   2.551  10.424 -0.6479  1.0143  0.8975
12956SOL    HW250848   6.903   2.614  10.552 -1.3111  2.4626  0.4700
12957SOL     OW50849   2.773  13.879   0.011 -0.0223 -0.5438  0.3267
12957SOL    HW150850   2.701  13.941   0.017 -1.4866 -2.1841  0.4057
12957SOL    HW250851   2.804  13.886  -0.079 -1.3699 -0.9542 -0.1911
12958SOL     OW50852   7.821   1.134  10.508 -0.6597  0.6195 -0.5378
12958SOL    HW150853   7.917   1.137  10.502 -0.5503  0.0668  0.6406
12958SOL    HW250854   7.791   1.164  10.422  0.5254  3.2631 -0.1415
12959SOL     OW50855   1.998   0.970   1.839 -0.0298 -0.5141 -0.1179
12959SOL    HW150856   2.072   0.999   1.786 -0.1256  0.5525  0.3137
12959SOL    HW250857   1.971   0.887   1.799  1.5840 -1.0884 -0.0879
12960SOL     OW50858   0.982  11.334  12.665 -0.1838  0.3716  0.3459
12960SOL    HW150859   0.969  11.257  12.721 -1.5057  0.6417  0.4578
12960SOL    HW250860   1.074  11.331  12.641  0.0667 -0.5905  1.3157
12961SOL     OW50861   1.881   2.211   4.022 -0.5718  0.2588 -0.3164
12961SOL    HW150862   1.920   2.256   3.947 -0.2814  0.8905  0.1918
12961SOL    HW250863   1.954   2.163   4.062 -0.9851 -1.0732 -1.1329
12962SOL     OW50864   3.352   3.646  13.323 -0.1398 -0.9465 -0.8550
12962SOL    HW150865   3.260   3.623  13.306 -0.9389  0.8854  0.6819
12962SOL    HW250866   3.369   3.613  13.411 -0.1613  0.9480 -0.1088
12963SOL     OW50867   6.049   7.661   6.615 -0.0626 -0.2174 -0.2572
12963SOL    HW150868   6.074   7.695   6.529  2.1870 -1.7601 -0.3204
12963SOL    HW250869   6.123   7.683   6.672 -0.3979 -1.3599  0.6665
12964SOL     OW50870  10.930   8.998   8.714 -0.2932  0.2325  0.4228
12964SOL    HW150871  10.863   8.984   8.780 -0.0489  0.5937  0.7512
12964SOL    HW250872  10.883   8.993   8.631 -0.5170 -0.7269  0.5950
12965SOL     OW50873  10.780  11.305  10.435 -0.4722 -0.2798 -0.1964
12965SOL    HW150874  10.723  11.245  10.483 -0.0767  0.5784  1.3892
12965SOL    HW250875  10.721  11.365  10.391 -0.8519 -1.3584 -1.2158
12966SOL     OW50876  11.788   3.585   6.147 -0.3770 -0.0973 -0.4144
12966SOL    HW150877  11.756   3.528   6.218  0.3250 -0.3251 -0.2711
12966SOL    HW250878  11.882   3.570   6.146 -0.4930 -0.9278 -2.1185
12967SOL     OW50879   3.657  11.278  11.021  0.2125 -0.1642  0.4680
12967SOL    HW150880   3.634  11.218  10.951 -0.9893  1.4941 -0.6481
12967SOL    HW250881   3.574  11.297  11.065  0.3005  1.6500 -0.0595
12968SOL     OW50882   2.616  11.471   4.813 -0.6794 -0.0171 -0.4334
12968SOL    HW150883   2.661  11.511   4.738  0.5230  0.0261  0.2884
12968SOL    HW250884   2.535  11.437   4.777 -1.0889  1.8041 -1.3780
12969SOL     OW50885   3.604   4.648   4.265 -0.1792 -0.4565 -0.3822
12969SOL    HW150886   3.513   4.620   4.276 -1.2536  2.2238 -1.7091
12969SOL    HW250887   3.598   4.739   4.236  2.9983  0.4371  1.3670
12970SOL     OW50888  12.600   3.801  13.825  0.0924 -0.0450 -0.2718
12970SOL    HW150889  12.574   3.723  13.874 -1.4117  0.0401 -0.8704
12970SOL    HW250890  12.686   3.824  13.860 -0.7268 -0.2068  2.0528
12971SOL     OW50891   4.585   4.692   9.446  0.1294 -0.4048 -0.2599
12971SOL    HW150892   4.510   4.745   9.475 -0.7414 -1.4222 -0.5908
12971SOL    HW250893   4.622   4.657   9.527 -0.2289 -0.5237 -0.1454
12972SOL     OW50894   8.774  12.505   1.076  0.3703 -0.6041  0.3049
12972SOL    HW150895   8.722  12.559   1.135  1.4177  0.8559 -0.0524
12972SOL    HW250896   8.713  12.440   1.042 -0.9511  0.4154  0.6848
12973SOL     OW50897   9.394   0.081   2.278 -0.1511 -0.0458  0.0677
12973SOL    HW150898   9.365   0.026   2.351  0.6207 -0.0161  0.4172
12973SOL    HW250899   9.338   0.056   2.205 -0.8531 -0.1736  0.6338
12974SOL     OW50900  11.399   5.390   5.466  0.1849  0.0860 -0.3655
12974SOL    HW150901  11.331   5.369   5.531  0.3668 -0.3937 -0.3227
12974SOL    HW250902  11.480   5.358   5.506  0.3177 -0.0822 -0.7712
12975SOL     OW50903   2.746  14.004  13.019  0.0030 -0.0140 -0.0862
12975SOL    HW150904   2.784  13.939  12.960  1.6966 -0.2166  1.1575
12975SOL    HW250905   2.778  14.088  12.986  1.6129 -0.1839  0.9547
12976SOL     OW50906   2.664   5.644   7.464 -0.3148  0.0800  0.2084
12976SOL    HW150907   2.694   5.727   7.500 -0.8092 -0.2940  1.5427
12976SOL    HW250908   2.571   5.657   7.446 -1.2060 -1.0086  3.2848
12977SOL     OW50909   7.831   2.283   8.179  0.2268  0.1361 -0.0268
12977SOL    HW150910   7.923   2.305   8.170 -0.5803  3.1831 -2.7028
12977SOL    HW250911   7.818   2.209   8.120  0.8941 -0.2589  0.3075
12978SOL     OW50912   8.843   9.409   3.052  0.3298 -0.2198  0.2159
12978SOL    HW150913   8.860   9.462   3.130  0.2486  0.7943 -0.4439
12978SOL    HW250914   8.749   9.392   3.055  0.0237  1.1757 -0.4734
12979SOL     OW50915  13.607  11.880  13.160  0.3281  0.2281 -0.1356
12979SOL    HW150916  13.528  11.834  13.190  0.3173  0.0806 -0.3875
12979SOL    HW250917  13.660  11.811  13.121  0.7451  0.2651  0.3608
12980SOL     OW50918   5.635   2.830   8.687 -0.4381 -0.0628  0.5351
12980SOL    HW150919   5.721   2.813   8.724 -0.3848 -1.3895 -0.1502
12980SOL    HW250920   5.574   2.795   8.751 -0.4054 -0.6198  0.2671
12981SOL     OW50921   2.422   2.651   6.447  0.0427 -0.0455 -0.0823
12981SOL    HW150922   2.363   2.674   6.518  1.4641 -0.2740  1.2299
12981SOL    HW250923   2.385   2.571   6.409 -1.5006  0.8541 -0.5642
12982SOL     OW50924  10.209  13.959  13.012  0.2881 -0.6673  0.1418
12982SOL    HW150925  10.211  13.885  12.953 -0.7600 -0.3386 -0.3245
12982SOL    HW250926  10.121  13.996  13.002  0.3142 -0.2024  1.3972
12983SOL     OW50927  11.311   2.129   5.587  0.1624 -0.1025 -0.0220
12983SOL    HW150928  11.405   2.117   5.595  0.4264  0.2656 -1.9726
12983SOL    HW250929  11.277   2.040   5.572  0.4166 -0.0750 -0.8403
12984SOL     OW50930   4.283   9.048   1.792  0.3022  0.3321 -0.6047
12984SOL    HW150931   4.355   8.985   1.799 -0.1358 -0.4594 -2.4689
12984SOL    HW250932   4.241   9.027   1.708 -1.5042  1.4048 -0.0290
12985SOL     OW50933   7.261   1.266   5.952 -0.0873 -0.1809 -0.2755
12985SOL    HW150934   7.263   1.249   6.046 -2.9621  0.8098  0.0802
12985SOL    HW250935   7.300   1.353   5.942 -0.8062  0.2094  0.2031
12986SOL     OW50936   5.861   2.622   3.325 -0.1991 -0.0231 -0.6217
12986SOL    HW150937   5.778   2.600   3.283 -0.2230 -1.5501  0.1278
12986SOL    HW250938   5.923   2.555   3.294  0.5764  0.6749 -0.6301
12987SOL     OW50939   7.512   3.928   4.498 -0.1461  0.1347 -0.0534
12987SOL    HW150940   7.542   4.002   4.445 -0.6498 -0.8354 -1.7737
12987SOL    HW250941   7.425   3.908   4.463 -1.1374  0.3444  2.1297
12988SOL     OW50942  12.756   4.996   3.043 -0.1889 -0.3030 -0.2223
12988SOL    HW150943  12.702   5.067   3.010 -2.5084 -1.4439  0.8855
12988SOL    HW250944  12.746   5.001   3.139  1.4539 -0.7479  0.0049
12989SOL     OW50945   4.907   1.235   4.764 -0.6365 -0.3405 -0.0156
12989SOL    HW150946   4.972   1.297   4.733  1.3560 -1.3160  1.9620
12989SOL    HW250947   4.883   1.184   4.686 -1.0916  1.7442 -1.3216
12990SOL     OW50948   4.090  11.996   4.764 -0.1951 -0.4622  0.1083
12990SOL    HW150949   4.027  11.933   4.800 -1.4249  0.1373 -0.9412
12990SOL    HW250950   4.038  12.074   4.746  0.2667 -0.8205 -3.2427
12991SOL     OW50951  12.782  11.804  13.642  0.3291 -0.6288  0.4715
12991SOL    HW150952  12.821  11.774  13.724  0.1254 -0.0449  0.7797
12991SOL    HW250953  12.737  11.885  13.664  0.6884 -0.2056 -0.3197
12992SOL     OW50954   9.858   7.194  11.521 -0.4070 -0.0522 -0.1884
12992SOL    HW150955   9.927   7.240  11.473  0.2374 -1.7694 -0.9665
12992SOL    HW250956   9.899   7.112  11.549 -1.8320 -0.6356  0.2419
12993SOL     OW50957   7.986   8.177  10.180  0.3166  0.0279 -0.1532
12993SOL    HW150958   8.056   8.111  10.179  2.3232  2.0058  1.1618
12993SOL    HW250959   7.922   8.142  10.242  1.0190 -0.9920  0.0202
12994SOL     OW50960   7.525   6.580   9.677  0.4915 -0.0226 -0.4655
12994SOL    HW150961   7.569   6.509   9.630  0.8606 -0.2135  0.1539
12994SOL    HW250962   7.432   6.569   9.655  0.6430 -0.1844 -1.0391
12995SOL     OW50963   6.186  10.939   6.852  0.5750 -0.4031  0.5263
12995SOL    HW150964   6.131  11.015   6.834  0.5107 -0.5778 -0.0231
12995SOL    HW250965   6.125  10.869   6.872  0.6062 -0.5230  0.2038
12996SOL     OW50966   5.745   8.659   9.300  0.5614  0.4077  0.4235
12996SOL    HW150967   5.684   8.611   9.244 -0.2272  0.3829  1.2978
12996SOL    HW250968   5.708   8.654   9.387  0.8214  2.0307  0.6559
12997SOL     OW50969   3.131  13.460   7.360 -0.1325 -0.1711  0.3427
12997SOL    HW150970   3.080  13.467   7.279  1.4559  1.3327 -0.6049
12997SOL    HW250971   3.222  13.474   7.332  0.7188 -1.6686  2.1160
12998SOL     OW50972  10.125   9.812   3.187 -0.3350 -0.3476  0.3122
12998SOL    HW150973  10.201   9.836   3.239  0.5674 -0.6765 -0.8158
12998SOL    HW250974  10.140   9.720   3.165 -0.7688 -0.2478 -0.4100
12999SOL     OW50975   2.600   8.134  12.969  0.0313 -0.6442  0.4954
12999SOL    HW150976   2.610   8.040  12.984 -0.3976 -0.4842  1.8908
12999SOL    HW250977   2.508   8.152  12.989  0.1102  0.0744  0.2429
13000SOL     OW50978   2.814  13.185   9.433  0.2393  0.1585  0.1200
13000SOL    HW150979   2.819  13.140   9.349 -1.8572 -1.0035  0.5365
13000SOL    HW250980   2.887  13.151   9.484 -0.0508 -1.1860 -0.3287
13001SOL     OW50981   7.836   4.636   3.944 -0.3353  0.0267  0.5041
13001SOL    HW150982   7.753   4.683   3.940  0.6663  1.9959  1.5990
13001SOL    HW250983   7.879   4.655   3.861 -0.1401  0.7062  0.7506
13002SOL     OW50984   8.159   0.755   1.110 -0.5482 -0.0558  0.2518
13002SOL    HW150985   8.073   0.726   1.139  0.0591  0.3394  2.6646
13002SOL    HW250986   8.145   0.844   1.078 -0.8160  0.6684  2.2508
13003SOL     OW50987   7.212   1.934  10.900  0.0428 -0.1750  0.3423
13003SOL    HW150988   7.195   1.863  10.838 -1.0306 -0.9063  1.4326
13003SOL    HW250989   7.292   1.907  10.945 -0.3750 -0.7225  0.7708
13004SOL     OW50990  12.327   4.687   9.327 -0.3156 -0.1714 -0.4049
13004SOL    HW150991  12.385   4.762   9.309 -0.8869  0.0800 -1.2504
13004SOL    HW250992  12.278   4.713   9.405 -0.3524  0.2408 -0.5644
13005SOL     OW50993  11.619   5.096  12.936 -0.4236 -0.2406  0.4832
13005SOL    HW150994  11.603   5.190  12.929  1.4294  0.1259  0.8737
13005SOL    HW250995  11.644   5.070  12.847 -0.1929 -0.2278  0.5461
13006SOL     OW50996   1.262  12.045  12.221  0.1964  0.1054  0.8551
13006SOL    HW150997   1.255  12.136  12.249  0.8310 -0.0195  1.4330
13006SOL    HW250998   1.222  11.994  12.292 -0.3373 -0.0652  0.4449
13007SOL     OW50999  11.102  11.343   1.124 -0.0860  0.2824  0.2356
13007SOL    HW151000  11.144  11.290   1.056 -1.3299 -0.7349  0.2218
13007SOL    HW251001  11.124  11.433   1.101  4.6392 -0.1758  1.9040
13008SOL     OW51002   9.067  12.921   1.991  0.6049 -0.0701  0.5937
13008SOL    HW151003   9.038  12.980   2.061 -1.0709 -1.0986  0.8146
13008SOL    HW251004   9.162  12.919   2.000  0.5753  1.3508  1.5776
13009SOL     OW51005  11.611  13.376  12.205 -0.0798 -0.0592 -0.5744
13009SOL    HW151006  11.697  13.409  12.230  0.2992 -1.2045 -0.2835
13009SOL    HW251007  11.571  13.447  12.157  1.5826  0.0077 -1.9427
13010SOL     OW51008   4.656   8.807  13.902 -0.5733  0.1830 -0.2710
13010SOL    HW151009   4.571   8.765  13.916  0.7515 -2.3801  0.7480
13010SOL    HW251010   4.651   8.887  13.954 -2.8201  0.8602 -1.3867
13011SOL     OW51011  10.459  10.785   0.412 -0.4329  0.6431  0.2404
13011SOL    HW151012  10.497  10.727   0.346 -3.2153  0.1395 -1.0819
13011SOL    HW251013  10.464  10.872   0.373 -0.4993  0.6079  0.1533
13012SOL     OW51014   1.275   9.329  11.573 -0.3966  0.1181 -0.2287
13012SOL    HW151015   1.289   9.424  11.581 -1.9134  0.3228  0.3107
13012SOL    HW251016   1.224   9.320  11.492 -2.2768  0.0282  0.9114
13013SOL     OW51017  12.791  11.701   4.268  0.3155  0.3542  0.1236
13013SOL    HW151018  12.842  11.624   4.295 -0.2657 -0.0348  0.1335
13013SOL    HW251019  12.856  11.761   4.231  0.7580 -0.1916 -0.0005
13014SOL     OW51020   8.362   1.222   7.955 -0.5027  0.2477 -0.0929
13014SOL    HW151021   8.362   1.247   7.863 -0.6981 -1.1060 -0.4703
13014SOL    HW251022   8.283   1.263   7.991 -0.7802  0.2314 -0.6768
13015SOL     OW51023   5.316   3.859   9.388  0.0541 -0.1867  0.2735
13015SOL    HW151024   5.299   3.954   9.387 -1.0494 -0.3739 -0.4332
13015SOL    HW251025   5.336   3.839   9.479 -0.6071  0.5886  0.6031
13016SOL     OW51026   2.910   6.251   9.217 -0.1245 -0.2190  0.3314
13016SOL    HW151027   2.996   6.212   9.229  0.2877  0.8372  0.9411
13016SOL    HW251028   2.913   6.292   9.130  0.6398  1.3518  1.0546
13017SOL     OW51029   1.839  12.565   1.839  1.2002 -0.0027 -0.7058
13017SOL    HW151030   1.783  12.525   1.772  3.0180 -1.7634 -1.3191
13017SOL    HW251031   1.785  12.569   1.917  0.2652 -1.9353 -1.1811
13018SOL     OW51032  13.467   3.371   3.633 -0.5027  0.7197 -0.5494
13018SOL    HW151033  13.533   3.371   3.564  1.5584  1.7002  1.2718
13018SOL    HW251034  13.484   3.291   3.682  0.1710  1.5414  0.6103
13019SOL     OW51035   3.769  10.620   9.397  0.0845 -0.1080  0.3296
13019SOL    HW151036   3.726  10.695   9.438 -1.4886  0.2065 -1.7495
13019SOL    HW251037   3.703  10.583   9.339  1.4932 -1.8917 -0.2418
13020SOL     OW51038   9.369   3.089  13.616  0.7779  0.4846  0.0194
13020SOL    HW151039   9.375   2.999  13.647  0.9150 -0.6656 -3.0831
13020SOL    HW251040   9.279   3.099  13.587  1.0567  0.9446 -0.7198
13021SOL     OW51041   0.209   3.241  12.276 -0.0755  0.0460 -0.0268
13021SOL    HW151042   0.166   3.256  12.192  0.4736 -0.4181 -0.3907
13021SOL    HW251043   0.137   3.241  12.339 -0.3171  2.6203 -0.1606
13022SOL     OW51044  13.510   6.429   5.946 -0.5434 -0.4506 -0.2706
13022SOL    HW151045  13.517   6.521   5.969 -1.1387 -0.5457  0.3221
13022SOL    HW251046  13.594   6.407   5.906  0.0893  0.0221  0.7848
13023SOL     OW51047   9.192   6.429  11.135  0.1221  0.3225 -0.1436
13023SOL    HW151048   9.203   6.444  11.229  0.2405  0.2736 -0.1497
13023SOL    HW251049   9.103   6.393  11.127 -0.6269  2.1168 -0.2611
13024SOL     OW51050  10.158   0.914   9.240  0.5983 -0.2407  0.2148
13024SOL    HW151051  10.087   0.873   9.289  0.1943  0.5536  0.3001
13024SOL    HW251052  10.171   0.856   9.165  0.7510 -1.0921  0.8775
13025SOL     OW51053  11.755   2.857  10.718  1.1167 -0.1354 -0.6772
13025SOL    HW151054  11.734   2.904  10.637  2.0500 -1.2172 -1.5748
13025SOL    HW251055  11.771   2.767  10.690  0.0541 -0.8559  0.9180
13026SOL     OW51056   2.581   2.855   7.743  0.6766  0.0102 -0.1438
13026SOL    HW151057   2.636   2.795   7.793  0.5627  1.1434  1.4400
13026SOL    HW251058   2.597   2.941   7.783 -0.1926  0.8106 -1.4323
13027SOL     OW51059   2.788   5.984  12.978  0.1907  0.6960  0.5067
13027SOL    HW151060   2.838   6.002  13.057  2.7983  0.0303 -0.8758
13027SOL    HW251061   2.818   6.049  12.915 -0.7510  0.3122 -0.3669
13028SOL     OW51062   0.399  12.682  13.420  0.1471 -0.0737 -0.1888
13028SOL    HW151063   0.483  12.667  13.375 -0.3822 -2.7399 -0.4808
13028SOL    HW251064   0.334  12.645  13.361 -0.7624 -1.9456  1.8470
13029SOL     OW51065  13.736  13.974   4.151  0.1471  0.5973 -0.1036
13029SOL    HW151066  13.722  13.881   4.172 -1.0405  1.1073  1.4871
13029SOL    HW251067  13.831  13.984   4.153  0.2451  0.3038  4.1271
13030SOL     OW51068   8.600   3.354   2.462  0.7415  0.5598 -1.2536
13030SOL    HW151069   8.594   3.447   2.440  0.5166  0.9623  0.4045
13030SOL    HW251070   8.676   3.323   2.413  1.2207  1.7625 -1.3118
13031SOL     OW51071   6.476   3.659  10.993 -0.3885  0.2980 -0.7702
13031SOL    HW151072   6.436   3.601  11.058  0.1129  0.0157 -0.7117
13031SOL    HW251073   6.403   3.688  10.939 -0.5481 -0.9714 -1.2698
13032SOL     OW51074  11.920   2.502   8.493 -0.3208 -0.9012 -0.1373
13032SOL    HW151075  11.981   2.430   8.477 -0.0578 -1.2044  1.9816
13032SOL    HW251076  11.874   2.477   8.573 -1.1934  0.6695 -0.1151
13033SOL     OW51077   8.212   4.973   9.376  0.5854  0.1190 -0.8442
13033SOL    HW151078   8.201   4.918   9.454 -2.6634  1.0661 -0.4635
13033SOL    HW251079   8.305   4.996   9.375  0.8651 -0.4434  2.4090
13034SOL     OW51080   0.145   2.219   8.901 -0.0443  0.1945 -0.5267
13034SOL    HW151081   0.225   2.266   8.880  0.6385 -0.2388  0.9975
13034SOL    HW251082   0.137   2.226   8.996 -0.8005 -1.3515 -0.4517
13035SOL     OW51083   6.677  13.371  12.606  0.0456 -0.6330 -0.0307
13035SOL    HW151084   6.581  13.372  12.607 -0.0560 -3.3099  1.1260
13035SOL    HW251085   6.700  13.376  12.513 -1.3102 -1.9615 -0.4697
13036SOL     OW51086   0.260   6.269  11.024  0.6713 -0.0273  0.4218
13036SOL    HW151087   0.340   6.260  10.972 -1.2353  0.5534 -2.8945
13036SOL    HW251088   0.243   6.363  11.024 -1.1752 -0.3152 -0.9773
13037SOL     OW51089   3.459   7.809  12.751 -0.4400 -0.0828 -0.0567
13037SOL    HW151090   3.393   7.862  12.706 -1.0547  0.2814  1.2182
13037SOL    HW251091   3.534   7.807  12.691 -0.7515  1.4451 -0.5361
13038SOL     OW51092   9.421   4.365  12.342  0.4566  0.0732  0.0762
13038SOL    HW151093   9.437   4.336  12.252 -1.1499 -0.5235 -0.0417
13038SOL    HW251094   9.361   4.439  12.334  1.0132  0.6022  0.6282
13039SOL     OW51095   6.373   6.758   1.876 -0.1159  0.7504  0.2803
13039SOL    HW151096   6.427   6.681   1.854 -1.5281  0.3566 -2.1649
13039SOL    HW251097   6.293   6.722   1.913 -1.1587  0.8786 -1.6807
13040SOL     OW51098  12.227   2.426  12.520 -0.4827 -0.5702 -0.2133
13040SOL    HW151099  12.211   2.513  12.557 -2.4889 -1.4321  1.1304
13040SOL    HW251100  12.163   2.419  12.449 -0.0057 -0.7685 -0.6211
13041SOL     OW51101   0.085   7.086   3.094  0.1440 -0.5037  0.6085
13041SOL    HW151102   0.101   6.996   3.065 -0.1473 -0.6989  1.0356
13041SOL    HW251103   0.008   7.079   3.150 -1.8773  0.5064 -1.8616
13042SOL     OW51104   2.105   7.332   3.081 -0.1692 -0.3847  0.7704
13042SOL    HW151105   2.111   7.388   3.158 -0.0358 -1.5784  1.6424
13042SOL    HW251106   2.017   7.295   3.085 -0.7346  0.6960 -0.4993
13043SOL     OW51107   7.063  11.679   2.818  0.6563 -0.0366  0.0789
13043SOL    HW151108   7.056  11.734   2.740  1.0225 -0.0780  0.0132
13043SOL    HW251109   6.973  11.654   2.839  0.4246  1.0367  0.4375
13044SOL     OW51110   2.751  11.446   2.606 -0.1974  0.2472  0.1215
13044SOL    HW151111   2.656  11.435   2.608 -0.0729 -0.9609  0.3972
13044SOL    HW251112   2.769  11.484   2.520 -0.8973  0.0757 -0.1096
13045SOL     OW51113   3.275  13.044   5.037  0.2183  0.2686 -0.1919
13045SOL    HW151114   3.183  13.068   5.044  0.4759  0.8061  1.9883
13045SOL    HW251115   3.276  12.950   5.052  0.0714  0.3588  0.4118
13046SOL     OW51116   6.796   1.789   1.810 -0.3471 -0.4731  0.3634
13046SOL    HW151117   6.854   1.719   1.838 -1.1357 -0.7742  1.2976
13046SOL    HW251118   6.780   1.771   1.717  1.0837 -0.3360  0.0683
13047SOL     OW51119   8.648   0.710  10.254  0.4271 -1.0614 -0.0491
13047SOL    HW151120   8.626   0.617  10.239 -1.3726 -0.5234 -1.1549
13047SOL    HW251121   8.675   0.741  10.167 -1.6772  0.0614 -0.3698
13048SOL     OW51122  11.041   5.956  11.636  0.3463 -0.1977  0.5733
13048SOL    HW151123  10.982   5.995  11.572  1.2465  2.4036  1.1874
13048SOL    HW251124  10.996   5.965  11.720  1.3407  1.4480  0.9898
13049SOL     OW51125   9.964  11.881  13.251 -0.4312 -0.0599 -0.4419
13049SOL    HW151126   9.984  11.945  13.183  1.1122  0.5317  0.4893
13049SOL    HW251127  10.003  11.919  13.331 -2.1945 -0.6989  0.7831
13050SOL     OW51128   9.404   3.603   7.827 -0.3119 -0.4857 -0.0204
13050SOL    HW151129   9.315   3.635   7.814 -0.1651 -0.8428 -2.4221
13050SOL    HW251130   9.435   3.581   7.738  2.9410  1.6998  0.4061
13051SOL     OW51131   2.588   3.874   3.365 -0.6890  0.2174  0.5010
13051SOL    HW151132   2.499   3.864   3.330 -0.2305 -0.6451 -0.4811
13051SOL    HW251133   2.640   3.902   3.290  0.0290 -0.1269  0.8603
13052SOL     OW51134   1.441   6.297   1.694  0.3945 -0.1765  0.1115
13052SOL    HW151135   1.426   6.388   1.721  0.1276  0.1079 -0.9523
13052SOL    HW251136   1.515   6.269   1.747  0.5770  0.7067  0.3537
13053SOL     OW51137   0.477   2.675   4.512 -0.2091 -0.2353  0.2731
13053SOL    HW151138   0.448   2.735   4.443 -0.9768  1.1114  1.6968
13053SOL    HW251139   0.520   2.732   4.576 -0.5818 -1.2510  1.4663
13054SOL     OW51140   6.320   4.663  12.193 -0.2767  0.2731  0.1706
13054SOL    HW151141   6.277   4.660  12.108 -3.8767  0.6896  1.7981
13054SOL    HW251142   6.349   4.754  12.202 -0.6133  0.4324 -0.2912
13055SOL     OW51143   2.742   1.723   4.323 -0.5584 -0.6010  0.4732
13055SOL    HW151144   2.663   1.777   4.320 -1.0817 -1.2258  1.8863
13055SOL    HW251145   2.713   1.636   4.296 -0.3563 -0.8075  0.9003
13056SOL     OW51146   9.902   1.662  12.002  0.7739  0.0775 -0.2870
13056SOL    HW151147   9.985   1.618  12.022  0.1915  0.5045  4.2384
13056SOL    HW251148   9.927   1.752  11.982  1.4911 -0.2094 -0.7109
13057SOL     OW51149  11.672   9.424   2.016  0.0783  0.0837 -0.7530
13057SOL    HW151150  11.716   9.414   1.932  0.8077  1.0577 -0.5076
13057SOL    HW251151  11.632   9.339   2.033  0.7389 -0.4135 -1.6262
13058SOL     OW51152   0.715   6.862   8.380 -0.2516  0.3774 -0.6179
13058SOL    HW151153   0.654   6.923   8.421  0.7167 -0.5920  2.5626
13058SOL    HW251154   0.662   6.785   8.360 -0.4282  0.1004  0.7799
13059SOL     OW51155   4.251   4.150  12.537 -1.0603 -0.1204 -0.1633
13059SOL    HW151156   4.305   4.088  12.586  0.1685  0.2120 -1.0510
13059SOL    HW251157   4.200   4.196  12.604  1.6002  1.3045  1.0207
13060SOL     OW51158  11.150   7.393   8.335 -0.4930  0.0936 -0.2712
13060SOL    HW151159  11.078   7.360   8.281  0.9281 -0.9089 -1.6488
13060SOL    HW251160  11.216   7.324   8.332  0.3480  0.7750  1.3508
13061SOL     OW51161   0.653   9.232  13.567 -0.2482  0.0782  0.5112
13061SOL    HW151162   0.653   9.255  13.660 -0.1825  0.0349  0.5225
13061SOL    HW251163   0.582   9.169  13.558  0.1972 -0.4582  0.6708
13062SOL     OW51164  10.516   2.305   6.385 -0.3687  0.0544  0.3037
13062SOL    HW151165  10.504   2.319   6.291 -0.5667 -0.7618  0.1985
13062SOL    HW251166  10.529   2.393   6.421 -2.4594  0.6049 -0.1770
13063SOL     OW51167   7.448   2.119  10.593 -0.6676 -0.5455  0.0122
13063SOL    HW151168   7.443   2.032  10.633  0.1017 -0.2382  0.7992
13063SOL    HW251169   7.386   2.115  10.520 -0.6929 -1.7327  0.0755
13064SOL     OW51170   6.119   4.745  13.585  0.1677  0.1004 -0.6576
13064SOL    HW151171   6.033   4.729  13.623  0.8591 -0.4028  0.7706
13064SOL    HW251172   6.151   4.658  13.560 -0.3449  0.4332 -2.6339
13065SOL     OW51173   1.326   8.915  10.445  0.3129 -0.7427  0.0607
13065SOL    HW151174   1.389   8.860  10.399  0.1553  0.4367 -1.6581
13065SOL    HW251175   1.243   8.898  10.402  0.3360  1.1019 -0.8257
13066SOL     OW51176   8.124  10.181   0.623 -0.0528  0.5191 -0.3905
13066SOL    HW151177   8.202  10.145   0.581 -0.7483  1.4345 -2.6076
13066SOL    HW251178   8.153  10.263   0.662 -0.0063  1.2386 -1.8635
13067SOL     OW51179   7.250   7.729   5.346 -0.2390 -0.7834 -0.4662
13067SOL    HW151180   7.255   7.633   5.348  2.0336 -0.7051 -0.5284
13067SOL    HW251181   7.301   7.758   5.422 -0.4322  0.3972 -0.7619
13068SOL     OW51182   5.844  12.006   9.898  0.7806  0.1518  0.3182
13068SOL    HW151183   5.863  12.083   9.845  2.3038 -0.8185 -0.6375
13068SOL    HW251184   5.750  11.993   9.889  0.4029  2.1918  0.9616
13069SOL     OW51185   6.417  10.664   3.421  0.2301 -0.2838  0.5585
13069SOL    HW151186   6.425  10.678   3.516 -0.4296  1.7568  0.3523
13069SOL    HW251187   6.492  10.710   3.384 -0.8685  1.0943 -0.0405
13070SOL     OW51188   7.364  13.265  10.865 -0.3017  0.1084  0.3487
13070SOL    HW151189   7.300  13.217  10.917  1.1371 -0.2225  1.9175
13070SOL    HW251190   7.406  13.324  10.928  1.3818 -0.1790 -0.4504
13071SOL     OW51191   6.902   1.968  10.417  0.0997 -0.2249  0.3109
13071SOL    HW151192   6.875   1.976  10.326 -0.4317  0.3935  0.5113
13071SOL    HW251193   6.865   2.046  10.460  0.0273 -0.6940  1.1257
13072SOL     OW51194  13.491   6.252   6.534 -0.2991  0.2301 -0.0269
13072SOL    HW151195  13.574   6.300   6.539  0.1882 -0.6339  0.3777
13072SOL    HW251196  13.466   6.257   6.442  0.2121  0.4831 -0.1551
13073SOL     OW51197   4.826   8.708   5.488 -0.4836  0.5048 -0.7122
13073SOL    HW151198   4.913   8.748   5.483 -0.5524  1.2355  2.2390
13073SOL    HW251199   4.767   8.774   5.451  0.0034  0.8318 -0.9204
13074SOL     OW51200   1.411  13.429  12.988 -0.0217 -0.0440 -0.9486
13074SOL    HW151201   1.372  13.480  12.918 -0.8176  1.4554  0.5068
13074SOL    HW251202   1.505  13.432  12.970 -0.1438  1.0286 -1.5035
13075SOL     OW51203  10.791  11.933  14.025  0.2413 -0.0141 -0.5216
13075SOL    HW151204  10.713  11.895  13.986  0.3672 -0.7450 -0.0972
13075SOL    HW251205  10.801  12.018  13.983 -0.7318  0.0506 -0.6359
13076SOL     OW51206   4.927   4.830  12.021 -0.4349 -0.1532  0.0708
13076SOL    HW151207   4.976   4.912  12.014 -1.1085  0.1555 -1.4997
13076SOL    HW251208   4.836   4.857  12.035 -0.9260 -0.5338 -2.0237
13077SOL     OW51209   4.780   8.048  12.743 -0.3215  0.1441  0.1583
13077SOL    HW151210   4.875   8.044  12.738 -0.1576  1.9647  1.1495
13077SOL    HW251211   4.761   8.080  12.832 -1.8339  0.5478 -0.2717
13078SOL     OW51212  13.550   5.436  13.737 -0.4544  0.2023 -0.5333
13078SOL    HW151213  13.461   5.407  13.717 -0.3968  0.2634 -0.9002
13078SOL    HW251214  13.605   5.360  13.717 -0.3839  0.3003 -0.7172
13079SOL     OW51215   9.039   3.613   2.531  0.5102  0.2464  0.2014
13079SOL    HW151216   9.052   3.704   2.555  0.3022  0.9184 -2.0207
13079SOL    HW251217   9.106   3.595   2.466 -0.0309 -0.9068 -0.0654
13080SOL     OW51218   7.868  13.391   5.346  0.0969  0.7415  0.3047
13080SOL    HW151219   7.871  13.378   5.252 -0.4569 -2.4969  0.6126
13080SOL    HW251220   7.949  13.350   5.378 -0.6479  0.0319  1.3418
13081SOL     OW51221   5.661   4.306   0.778  0.3135  0.3052 -0.0563
13081SOL    HW151222   5.598   4.369   0.814  0.8700  0.8391 -0.0015
13081SOL    HW251223   5.638   4.223   0.819 -0.7113  0.3747 -0.4524
13082SOL     OW51224   5.198   5.666  12.372  0.0190  0.0966  0.2114
13082SOL    HW151225   5.276   5.612  12.369  0.0874  0.2309 -0.9575
13082SOL    HW251226   5.227   5.750  12.407  0.2238 -0.1333  0.5866
13083SOL     OW51227   7.723   0.048   8.588 -0.1365  0.6418 -0.2492
13083SOL    HW151228   7.737   0.098   8.668  1.0372  0.7090 -0.4760
13083SOL    HW251229   7.661  -0.021   8.613 -1.0145  1.5937  0.3065
13084SOL     OW51230   3.817   1.488   4.280 -0.2414  0.2256  0.5916
13084SOL    HW151231   3.833   1.423   4.348  2.7745  0.0961 -0.1343
13084SOL    HW251232   3.789   1.566   4.329 -0.3334 -0.5062  1.7539
13085SOL     OW51233   4.495  13.900   1.955  0.7897 -0.1479  0.0920
13085SOL    HW151234   4.435  13.891   1.880  1.4467  1.2602 -0.6577
13085SOL    HW251235   4.563  13.959   1.923  1.7505 -0.4983  1.4310
13086SOL     OW51236  11.529   7.458   2.168  0.4420  0.1496 -0.0899
13086SOL    HW151237  11.598   7.428   2.109 -0.4784 -0.8258 -0.7163
13086SOL    HW251238  11.507   7.546   2.136 -1.4317 -1.0838 -2.6043
13087SOL     OW51239  13.540  13.371   1.452 -0.7625 -0.5759  0.1536
13087SOL    HW151240  13.612  13.428   1.427 -0.6579 -0.3155  1.0288
13087SOL    HW251241  13.576  13.315   1.521 -0.9012 -1.6178 -0.5834
13088SOL     OW51242   3.635   7.741  12.345 -0.2977  0.1556  0.0706
13088SOL    HW151243   3.578   7.683  12.395 -2.4404  1.2415 -0.9220
13088SOL    HW251244   3.642   7.820  12.399  2.3842 -0.7951  1.2946
13089SOL     OW51245   7.032   2.306   0.607 -0.3027 -0.1820 -0.2241
13089SOL    HW151246   7.004   2.387   0.649  0.1537 -0.8171  1.3926
13089SOL    HW251247   7.127   2.309   0.609 -0.2613 -1.1502  0.7425
13090SOL     OW51248   5.777   0.135  11.259 -0.3075  0.3569  0.0154
13090SOL    HW151249   5.799   0.072  11.327 -0.2203  1.5951  1.1903
13090SOL    HW251250   5.860   0.152  11.213  0.2451  1.4532  1.3349
13091SOL     OW51251   6.930   0.545  10.061 -0.2356 -0.0851 -0.7996
13091SOL    HW151252   6.935   0.601   9.983  0.4288 -0.3037 -0.9135
13091SOL    HW251253   6.995   0.580  10.121  0.7989 -1.2395 -1.2059
13092SOL     OW51254   5.556   7.625   0.219 -0.2905 -0.1428 -0.2500
13092SOL    HW151255   5.554   7.556   0.285  1.0642  0.5161  0.5195
13092SOL    HW251256   5.546   7.707   0.268  1.1769  0.3887 -0.7880
13093SOL     OW51257  13.981  10.515   0.358 -0.0925 -0.7659 -0.0810
13093SOL    HW151258  13.916  10.560   0.304 -0.0826 -2.2557 -1.4092
13093SOL    HW251259  14.059  10.512   0.303  0.1074 -1.7671  0.2498
13094SOL     OW51260   0.015   3.798  10.725 -0.5185  0.2881 -0.2542
13094SOL    HW151261   0.073   3.837  10.790 -1.8248 -1.3278  2.0480
13094SOL    HW251262  -0.073   3.816  10.758 -1.2834  0.3669 -2.2193
13095SOL     OW51263   4.971   0.977   0.952 -1.0127  0.5355 -0.2139
13095SOL    HW151264   5.052   0.930   0.930 -0.9987  1.1906 -1.6923
13095SOL    HW251265   4.902   0.926   0.910 -1.4658 -0.3560  1.5511
13096SOL     OW51266   2.943   6.685   0.838  0.1302 -0.7859 -0.0320
13096SOL    HW151267   2.966   6.651   0.752 -0.0618 -0.9106 -0.0355
13096SOL    HW251268   3.025   6.720   0.873  0.1796 -0.5971 -0.3282
13097SOL     OW51269   6.472   4.214   7.536  0.2345  0.5141  0.0125
13097SOL    HW151270   6.429   4.152   7.596  2.1071 -0.5942  0.3006
13097SOL    HW251271   6.455   4.179   7.449  0.1557  0.3458  0.0938
13098SOL     OW51272  13.637  10.103   8.586 -0.4039 -0.0413  0.5586
13098SOL    HW151273  13.606  10.135   8.501  0.7302 -0.1195  0.1041
13098SOL    HW251274  13.583  10.026   8.603 -0.0413 -0.5602 -0.5368
13099SOL     OW51275  12.629   5.299   0.044  0.4288 -0.0944  0.6355
13099SOL    HW151276  12.643   5.229   0.107 -1.9390 -3.4793 -2.1652
13099SOL    HW251277  12.710   5.300  -0.009  0.5641 -0.5567  0.8299
13100SOL     OW51278   1.440   0.051   2.925 -0.5451 -0.3333 -0.0956
13100SOL    HW151279   1.499   0.086   2.859  0.2802  0.1467  0.8746
13100SOL    HW251280   1.492  -0.012   2.974 -0.4913  0.8120  1.4107
13101SOL     OW51281  11.288   0.906   9.360 -0.1439  0.0875 -0.7324
13101SOL    HW151282  11.211   0.922   9.414  0.1661 -0.0354 -0.2534
13101SOL    HW251283  11.315   0.994   9.332 -1.8141  0.0112 -2.8375
13102SOL     OW51284   6.861   4.013   6.560 -0.5619  0.1169 -0.7144
13102SOL    HW151285   6.897   4.048   6.479 -0.2122  0.9883 -0.1911
13102SOL    HW251286   6.937   3.991   6.614 -0.7893  0.9749 -0.0250
13103SOL     OW51287   9.543   1.015  12.231  0.3996 -0.5632  0.2072
13103SOL    HW151288   9.458   1.059  12.240  1.6589  1.8446  1.0686
13103SOL    HW251289   9.571   0.998  12.321  1.6344  0.3876  0.0347
13104SOL     OW51290   4.594   5.963   8.449 -0.0971  0.0269  0.0168
13104SOL    HW151291   4.574   5.877   8.484  0.4400  0.1810  0.7237
13104SOL    HW251292   4.512   6.013   8.459 -0.8930 -0.8224 -1.8039
13105SOL     OW51293  12.356  11.640  13.209 -0.2484 -0.4379 -0.1312
13105SOL    HW151294  12.403  11.657  13.291  1.3498 -0.4274 -1.0028
13105SOL    HW251295  12.312  11.722  13.188  1.7022  0.5086 -0.7322
13106SOL     OW51296   3.642   1.783  12.130 -0.1261  0.1753 -0.1387
13106SOL    HW151297   3.552   1.763  12.157 -0.4724  1.0599 -0.5959
13106SOL    HW251298   3.632   1.837  12.052  0.8247 -0.7559 -0.9344
13107SOL     OW51299   9.894   1.578   1.386 -0.2692 -0.2954  0.1550
13107SOL    HW151300   9.945   1.597   1.307  0.3229  0.5872  0.7355
13107SOL    HW251301   9.811   1.544   1.352 -0.2563  0.6261 -0.8815
13108SOL     OW51302   3.329   1.954  12.528 -0.0434 -0.2347 -0.0122
13108SOL    HW151303   3.297   1.891  12.463  1.1468  0.0768 -0.9399
13108SOL    HW251304   3.424   1.955  12.517  0.2893 -0.7455  2.3107
13109SOL     OW51305   0.208   4.501   4.540 -0.1982 -0.2606 -0.1166
13109SOL    HW151306   0.141   4.539   4.597  0.9703  0.7777  0.6327
13109SOL    HW251307   0.174   4.415   4.516 -1.1721 -0.3178  1.3509
13110SOL     OW51308   6.464  13.602  12.077 -0.1972 -0.4146 -0.2244
13110SOL    HW151309   6.419  13.523  12.048  0.8008 -1.2780  0.5269
13110SOL    HW251310   6.411  13.635  12.150 -0.3883 -0.6107 -0.2740
13111SOL     OW51311   1.962  13.371   7.773  0.2306  0.3240  0.0046
13111SOL    HW151312   1.874  13.333   7.774  0.8989 -1.3256 -0.6097
13111SOL    HW251313   2.014  13.313   7.829  0.6600  2.0910  1.5474
13112SOL     OW51314   4.551   1.093   8.964  0.5323 -0.2286  0.4340
13112SOL    HW151315   4.530   1.166   8.906  0.7567 -1.0218 -0.6684
13112SOL    HW251316   4.571   1.135   9.048 -1.6717  0.8126  0.5149
13113SOL     OW51317  13.500   0.148   7.906  0.5908 -0.0632  0.2522
13113SOL    HW151318  13.591   0.135   7.880  0.0627 -0.7630 -1.3839
13113SOL    HW251319  13.449   0.112   7.834 -0.9971  2.7227 -0.1816
13114SOL     OW51320   7.640   4.483   5.819 -0.0568  0.1613  0.3168
13114SOL    HW151321   7.654   4.462   5.912  2.2918  0.7192  0.1505
13114SOL    HW251322   7.691   4.417   5.772 -0.2186  0.6490 -0.5533
13115SOL     OW51323  10.836   0.971  10.416 -0.2475 -0.9513 -0.0358
13115SOL    HW151324  10.907   0.970  10.351 -0.0759 -0.8979  0.1480
13115SOL    HW251325  10.784   0.894  10.396 -0.3897 -0.7471 -0.4510
13116SOL     OW51326   7.675   7.010   9.499 -0.1935 -0.1175 -0.3896
13116SOL    HW151327   7.719   6.927   9.481  1.0403 -0.0205  1.8233
13116SOL    HW251328   7.590   6.984   9.534 -0.2703 -0.4169 -0.7890
13117SOL     OW51329   9.268   9.109   7.129 -0.4344  0.3850 -0.2602
13117SOL    HW151330   9.185   9.103   7.083 -0.5047  0.4262 -0.1373
13117SOL    HW251331   9.255   9.179   7.193 -0.3942  0.2014 -0.0517
13118SOL     OW51332  12.049   8.081   8.935 -0.0215  0.0520 -0.1688
13118SOL    HW151333  12.017   8.085   9.025 -2.0694 -1.7267 -0.7283
13118SOL    HW251334  12.133   8.037   8.942 -1.0706 -1.9531  0.7660
13119SOL     OW51335  10.036   3.987   1.082 -0.1122 -0.0517  0.0864
13119SOL    HW151336  10.045   3.901   1.125  0.4415  0.4982  1.0982
13119SOL    HW251337   9.948   4.016   1.106  0.6449  0.8391  2.0400
13120SOL     OW51338   5.194  13.378  10.481  0.3818 -0.2383  0.2626
13120SOL    HW151339   5.228  13.387  10.392 -2.5753  0.6898 -0.8767
13120SOL    HW251340   5.216  13.461  10.524 -1.2297  0.7963 -0.8035
13121SOL     OW51341   0.066   2.103   1.521  0.5121 -0.3262  0.4353
13121SOL    HW151342   0.017   2.054   1.588  2.5824 -2.6142  0.4450
13121SOL    HW251343   0.105   2.176   1.568  0.1677 -0.6654  1.2696
13122SOL     OW51344   4.453   3.655  10.227 -0.1863  0.3049 -0.3926
13122SOL    HW151345   4.404   3.587  10.273  0.4356 -0.7366 -1.2347
13122SOL    HW251346   4.530   3.671  10.282 -0.8524  1.1298  0.3485
13123SOL     OW51347   4.502  12.268  10.975  0.1731 -0.0299  0.1120
13123SOL    HW151348   4.454  12.347  10.952 -0.0427  0.1110  1.0156
13123SOL    HW251349   4.493  12.211  10.899  0.6579  0.9552 -0.7189
13124SOL     OW51350  12.738   7.638   4.811  0.2530 -0.2191 -0.1029
13124SOL    HW151351  12.753   7.637   4.716  1.5332  1.5077  0.0302
13124SOL    HW251352  12.820   7.671   4.848 -0.8598  0.9454  1.4592
13125SOL     OW51353   4.480   6.825  12.176 -0.0699 -0.4261 -0.1646
13125SOL    HW151354   4.554   6.873  12.138 -0.4879  0.4537  0.1195
13125SOL    HW251355   4.424   6.893  12.215 -0.7604 -1.1268  0.0905
13126SOL     OW51356  12.840  12.501   5.232 -0.3082 -0.2140 -0.2919
13126SOL    HW151357  12.925  12.527   5.269  0.5208 -2.3531 -0.5404
13126SOL    HW251358  12.777  12.561   5.272  1.3398  1.6238 -0.3256
13127SOL     OW51359  12.692   7.733   0.649 -0.6098  0.5484 -0.2042
13127SOL    HW151360  12.658   7.736   0.739 -0.3527  0.0060 -0.0856
13127SOL    HW251361  12.637   7.796   0.601 -1.2533  0.2794  0.1651
13128SOL     OW51362  11.468   5.645   3.215  0.0512 -0.4957  0.4268
13128SOL    HW151363  11.500   5.715   3.159  1.3608 -1.8131 -0.5536
13128SOL    HW251364  11.546   5.611   3.259 -0.1403 -2.7362 -0.8072
13129SOL     OW51365   9.963   9.065   2.159 -0.2888 -0.2941  0.0095
13129SOL    HW151366   9.998   8.986   2.119 -0.8005 -0.3668 -0.3006
13129SOL    HW251367   9.876   9.040   2.190  0.0548 -0.2228  1.1050
13130SOL     OW51368   6.737   2.430   2.458 -0.3509  0.0864  0.5950
13130SOL    HW151369   6.724   2.336   2.445 -0.1946  0.3281 -2.0395
13130SOL    HW251370   6.662   2.471   2.416 -0.0988  1.1480  1.1460
13131SOL     OW51371   6.094  10.232  10.761 -0.8547  0.0480  0.2739
13131SOL    HW151372   6.060  10.187  10.838 -0.6511  1.5183  1.2707
13131SOL    HW251373   6.187  10.207  10.758 -0.4542  1.2551  1.5105
13132SOL     OW51374   1.790   6.355  11.582 -0.0362  0.1936 -0.2237
13132SOL    HW151375   1.781   6.283  11.520 -1.9018  0.9010 -0.8283
13132SOL    HW251376   1.775   6.315  11.668 -0.4268 -0.2456 -0.4981
13133SOL     OW51377   6.433   1.022   8.659 -0.2114  0.5847 -0.0540
13133SOL    HW151378   6.404   1.016   8.750  0.7502  0.7126  0.2700
13133SOL    HW251379   6.401   0.942   8.619  0.4034 -0.0482  0.7016
13134SOL     OW51380   1.095  10.419   0.571 -0.0795  0.2800  0.0701
13134SOL    HW151381   1.058  10.382   0.651 -0.1687 -0.2671 -0.2202
13134SOL    HW251382   1.186  10.437   0.593 -0.5638  1.9754  0.9108
13135SOL     OW51383  12.044   2.198   0.416  0.1942  0.3244  0.1520
13135SOL    HW151384  12.071   2.285   0.445 -1.7807  1.2055 -0.4513
13135SOL    HW251385  12.019   2.210   0.324 -1.7610 -0.4262  0.5296
13136SOL     OW51386  12.251   6.793   0.061 -0.1072  0.2783  0.4537
13136SOL    HW151387  12.273   6.767   0.151  0.0323 -0.4895  0.2036
13136SOL    HW251388  12.173   6.848   0.071  0.4240  0.9405  1.1191
13137SOL     OW51389   2.110   0.106   5.751  0.3339 -0.4077  0.2859
13137SOL    HW151390   2.020   0.107   5.784 -0.0793 -0.0648 -0.7986
13137SOL    HW251391   2.159   0.161   5.813 -0.3808  0.0983  0.4094
13138SOL     OW51392   5.976   5.673   7.544  0.5344  0.2686 -0.1556
13138SOL    HW151393   5.961   5.762   7.576 -3.3978  0.1759 -1.2182
13138SOL    HW251394   5.985   5.682   7.449  0.1443 -0.4084 -0.2712
13139SOL     OW51395   5.718   8.488   4.903 -0.5375  0.2264  0.3409
13139SOL    HW151396   5.723   8.542   4.981  2.9745  0.6358  0.0040
13139SOL    HW251397   5.716   8.551   4.831  0.5783 -0.0724  0.0283
13140SOL     OW51398   3.914   8.388  10.764 -0.5554  0.7674  0.2148
13140SOL    HW151399   3.967   8.426  10.694 -0.6208  0.4170 -0.0259
13140SOL    HW251400   3.884   8.304  10.729 -0.4848  0.5311  0.7096
13141SOL     OW51401   4.190  13.592   9.795  0.0133  0.0891  0.3104
13141SOL    HW151402   4.180  13.679   9.835 -1.0299 -0.5481  1.5081
13141SOL    HW251403   4.122  13.588   9.728 -0.1873  0.0546  0.5165
13142SOL     OW51404   3.847   5.324  11.244 -0.2227 -0.4393  0.4775
13142SOL    HW151405   3.825   5.392  11.180 -1.6631 -2.5594 -1.3841
13142SOL    HW251406   3.764   5.281  11.263  0.6815 -1.8200  1.4584
13143SOL     OW51407   4.091   4.490   8.929 -0.0110 -0.1643  0.0439
13143SOL    HW151408   4.040   4.468   8.851 -0.5687 -1.5259  0.7637
13143SOL    HW251409   4.028   4.527   8.990  0.1933 -0.2248  0.2947
13144SOL     OW51410   6.821   2.319   1.327 -0.0842  0.1444 -0.2105
13144SOL    HW151411   6.815   2.268   1.247 -1.4980  2.2645 -1.5550
13144SOL    HW251412   6.731   2.322   1.360  0.5579 -1.2713  1.9258
13145SOL     OW51413   9.263   0.074   0.134  0.3837 -0.6011  0.2165
13145SOL    HW151414   9.330   0.013   0.164 -0.4073 -0.8298  1.5946
13145SOL    HW251415   9.263   0.065   0.039  0.8834 -2.1043  0.3370
13146SOL     OW51416   1.216  12.981  12.966  0.0004 -0.1712  0.4221
13146SOL    HW151417   1.127  13.003  12.996 -0.2111  0.2429 -0.4905
13146SOL    HW251418   1.273  13.034  13.022 -0.4639  2.0566 -1.0989
13147SOL     OW51419   6.880   0.645   6.219 -0.5182 -0.0404  0.0478
13147SOL    HW151420   6.838   0.662   6.135  0.3257 -1.6591 -0.7484
13147SOL    HW251421   6.807   0.626   6.279 -1.0948  0.5910 -0.4526
13148SOL     OW51422   6.314  12.141  11.475  0.2170  0.6133  0.0807
13148SOL    HW151423   6.353  12.054  11.476 -0.4669  0.3013 -0.1101
13148SOL    HW251424   6.241  12.134  11.414 -2.1069  0.3364  2.7402
13149SOL     OW51425   3.487   0.710   6.965  0.2816  0.3235  0.2156
13149SOL    HW151426   3.551   0.670   6.906  0.5390 -0.3746  0.9405
13149SOL    HW251427   3.540   0.748   7.036 -0.0143  1.2519 -0.0459
13150SOL     OW51428  12.615   0.210   5.991  0.0788  0.2689  0.0808
13150SOL    HW151429  12.535   0.254   5.963  0.2341  0.3221 -0.2884
13150SOL    HW251430  12.586   0.146   6.055 -0.4336 -0.5949 -0.9785
13151SOL     OW51431  12.068  10.205   8.489  0.1813 -0.1343  0.7228
13151SOL    HW151432  11.991  10.202   8.433  0.0615  3.0106  0.5653
13151SOL    HW251433  12.050  10.141   8.558 -0.1873 -3.2310 -2.0189
13152SOL     OW51434   7.415   3.966  12.931 -0.2327 -0.6522 -0.2855
13152SOL    HW151435   7.387   4.005  12.849 -1.2763 -2.2469 -0.7307
13152SOL    HW251436   7.485   3.906  12.907 -0.6564 -1.2492 -0.0403
13153SOL     OW51437  10.425   4.971  11.696 -0.0044 -0.4208 -0.0578
13153SOL    HW151438  10.395   5.020  11.773  1.0640 -1.4598  1.0801
13153SOL    HW251439  10.498   4.918  11.729 -1.3735 -3.1334 -1.0626
13154SOL     OW51440   3.847  13.985   8.619 -0.1555 -0.4467  0.4842
13154SOL    HW151441   3.859  14.051   8.688 -1.3586  0.3892 -0.0680
13154SOL    HW251442   3.918  14.003   8.557  0.3765 -0.6027  1.0417
13155SOL     OW51443  11.502   4.892  11.702 -0.5375  0.3294  0.0480
13155SOL    HW151444  11.464   4.814  11.660  0.1208  0.2353 -0.3872
13155SOL    HW251445  11.465   4.966  11.653  1.8164  0.1909 -2.1952
13156SOL     OW51446   9.858   5.533   2.905  0.2196 -0.5347 -0.2386
13156SOL    HW151447   9.781   5.589   2.893 -0.3824 -1.1973  0.4401
13156SOL    HW251448   9.849   5.466   2.837 -0.0223 -0.8476  0.0998
13157SOL     OW51449   6.061   5.509   5.201  0.0294  0.0903 -0.2527
13157SOL    HW151450   5.976   5.483   5.166  0.2962  0.4932 -1.2168
13157SOL    HW251451   6.120   5.504   5.127  1.0783 -1.1502  0.6251
13158SOL     OW51452   8.563  12.156   8.195 -0.1721  0.5597  0.0323
13158SOL    HW151453   8.586  12.213   8.268 -0.3993 -1.5801  1.8992
13158SOL    HW251454   8.619  12.079   8.207 -0.4832 -0.0127 -1.8749
13159SOL     OW51455   9.413   3.519   1.983 -0.5600 -0.3792 -0.1559
13159SOL    HW151456   9.435   3.609   2.004 -0.2985 -0.7025  1.0450
13159SOL    HW251457   9.422   3.472   2.066 -0.2740 -1.5898 -0.8422
13160SOL     OW51458   0.563  11.308   5.650  0.2438  0.0640 -0.3001
13160SOL    HW151459   0.561  11.300   5.745  1.6118 -2.1540 -0.3977
13160SOL    HW251460   0.565  11.403   5.634  1.2347  0.4794  1.8927
13161SOL     OW51461   8.305   4.097   4.985 -0.0241 -0.0028 -0.7960
13161SOL    HW151462   8.392   4.089   4.944 -0.3817 -1.4364 -1.3536
13161SOL    HW251463   8.323   4.094   5.079  0.4488 -2.3018 -0.8903
13162SOL     OW51464  13.124  10.687  10.914  0.0056  0.2544 -0.5517
13162SOL    HW151465  13.097  10.672  10.823  1.4405  0.2464 -1.0115
13162SOL    HW251466  13.170  10.606  10.938  0.5449  0.6682 -0.1876
13163SOL     OW51467  13.338  13.816  11.666 -1.0508  0.1287  0.0720
13163SOL    HW151468  13.414  13.802  11.610 -0.7937  2.3863 -0.2362
13163SOL    HW251469  13.374  13.821  11.754 -0.7537  1.4874 -0.1029
13164SOL     OW51470   5.590   7.967  11.177 -0.3519 -0.1896 -0.7539
13164SOL    HW151471   5.618   8.037  11.117 -0.6362 -1.2483 -2.1665
13164SOL    HW251472   5.637   7.889  11.146 -1.0274 -0.9071 -0.0067
13165SOL     OW51473   7.696   3.177   4.447 -0.2277 -0.2900  0.1297
13165SOL    HW151474   7.620   3.159   4.501 -0.4295 -1.2649 -0.4577
13165SOL    HW251475   7.747   3.241   4.498 -0.4570 -1.0961  1.4143
13166SOL     OW51476   9.365   8.918   9.673 -0.1834  0.1078 -0.1609
13166SOL    HW151477   9.447   8.944   9.630  1.0757 -1.2690  1.2456
13166SOL    HW251478   9.380   8.940   9.765 -0.7410 -1.5882  0.3692
13167SOL     OW51479   5.217  10.950   9.723  0.0485  0.3961 -0.0938
13167SOL    HW151480   5.198  10.969   9.814 -1.8631  2.4510 -0.8332
13167SOL    HW251481   5.303  10.988   9.707  0.6925 -0.5543  0.9635
13168SOL     OW51482   2.306   7.050   8.835 -0.0253  0.1015  0.0855
13168SOL    HW151483   2.318   6.956   8.831  1.1421  0.2333  0.2946
13168SOL    HW251484   2.246   7.064   8.908  0.3070 -0.4379  0.4669
13169SOL     OW51485   3.598   2.100  11.662  0.1228 -0.8848  0.2365
13169SOL    HW151486   3.610   2.084  11.568  1.0647  1.2612 -0.0695
13169SOL    HW251487   3.568   2.191  11.667  2.7696  0.0049  2.1316
13170SOL     OW51488   1.702   5.944  11.751 -0.3282  0.7792 -0.2056
13170SOL    HW151489   1.682   6.021  11.804 -0.8173  0.6494 -0.2050
13170SOL    HW251490   1.618   5.915  11.717 -0.1376  0.2674 -0.2456
13171SOL     OW51491   3.505   5.882   6.392  0.7950 -0.2689  0.1022
13171SOL    HW151492   3.571   5.841   6.336 -0.7216 -0.6928 -1.4864
13171SOL    HW251493   3.441   5.813   6.409 -0.6432  0.7942 -0.7302
13172SOL     OW51494   1.545   9.476   7.538  0.0556  0.5666 -0.2061
13172SOL    HW151495   1.474   9.438   7.589  1.8379 -0.0431  1.9679
13172SOL    HW251496   1.517   9.567   7.522 -1.5402  0.1159 -0.1740
13173SOL     OW51497  13.667  10.125   3.519 -0.2223 -0.1481  0.3526
13173SOL    HW151498  13.697  10.082   3.599  0.3630  0.5696  0.5355
13173SOL    HW251499  13.631  10.209   3.548  1.9205  1.0747 -0.2747
13174SOL     OW51500   0.497  13.428   4.534 -0.3494  0.3176  0.1381
13174SOL    HW151501   0.495  13.334   4.517  1.5057  0.3308 -0.3903
13174SOL    HW251502   0.415  13.462   4.496  0.1476 -0.7333 -2.0055
13175SOL     OW51503   0.506   3.516   5.976  0.1593 -0.2614 -0.3001
13175SOL    HW151504   0.458   3.433   5.976  1.4397 -1.0469 -1.9390
13175SOL    HW251505   0.453   3.574   6.032 -0.5411 -2.2783  1.2675
13176SOL     OW51506  12.974   0.406   7.929 -0.7253 -0.3073 -0.2863
13176SOL    HW151507  13.068   0.392   7.918 -0.3079  0.8043  1.5239
13176SOL    HW251508  12.966   0.499   7.949 -2.2065 -0.4149 -0.2944
13177SOL     OW51509   9.141   3.182  13.456 -0.2598  0.6610 -0.0926
13177SOL    HW151510   9.080   3.110  13.471  0.7413 -0.3773 -0.7477
13177SOL    HW251511   9.108   3.226  13.378  0.4088 -0.6070 -1.1385
13178SOL     OW51512   9.293   3.889  10.010  0.1409  0.0130  0.6550
13178SOL    HW151513   9.337   3.908  10.093 -1.2524  0.4298  1.3390
13178SOL    HW251514   9.210   3.848  10.036 -0.2757  0.0595 -0.5393
13179SOL     OW51515   9.761   1.084   3.551  0.0547  0.0077 -0.1977
13179SOL    HW151516   9.766   0.992   3.577  1.6285  0.4136  1.1023
13179SOL    HW251517   9.693   1.120   3.608 -0.5898 -0.3488 -0.7341
13180SOL     OW51518  12.774   9.709  12.748 -0.1078 -0.4581  0.2250
13180SOL    HW151519  12.797   9.623  12.713  1.2190  0.5912 -1.6751
13180SOL    HW251520  12.793   9.703  12.841 -1.4255 -2.6338  0.4363
13181SOL     OW51521   5.363   5.565   2.070 -0.0014  0.0294 -0.3284
13181SOL    HW151522   5.362   5.541   2.163 -0.8514  0.7614 -0.1350
13181SOL    HW251523   5.455   5.561   2.045  0.2474 -0.0934  0.5697
13182SOL     OW51524  10.158   5.894   9.870 -0.0399 -0.2437  0.5154
13182SOL    HW151525  10.219   5.868   9.801  0.1084  1.0378  0.1383
13182SOL    HW251526  10.213   5.899   9.949  0.4814  1.3985  0.0782
13183SOL     OW51527  11.270   8.630   3.601 -0.2113 -0.0061  0.4087
13183SOL    HW151528  11.283   8.561   3.667 -2.1050 -0.3580  0.4579
13183SOL    HW251529  11.178   8.623   3.576  0.0836  1.1309 -1.1694
13184SOL     OW51530  11.859   1.572   6.311  0.1217 -0.2085 -0.0725
13184SOL    HW151531  11.820   1.551   6.226  0.8657 -0.2278 -0.4183
13184SOL    HW251532  11.932   1.511   6.320 -0.0510 -0.3172  0.6612
13185SOL     OW51533   6.800   8.555  10.069 -0.1058  0.4117  0.2329
13185SOL    HW151534   6.810   8.590   9.980  1.4701  1.7324  0.8826
13185SOL    HW251535   6.740   8.616  10.112 -1.0706 -0.3681  0.0542
13186SOL     OW51536   2.918   7.907   0.957 -0.6383 -0.0317 -0.4233
13186SOL    HW151537   2.938   7.952   0.875 -2.2989  0.7100 -0.4427
13186SOL    HW251538   2.990   7.844   0.967  2.0175  2.7592 -0.2177
13187SOL     OW51539   5.879  12.047  13.209 -0.2538 -0.4090 -0.3784
13187SOL    HW151540   5.943  12.062  13.279 -0.2857 -1.7546 -0.0290
13187SOL    HW251541   5.913  12.096  13.134  1.9095 -2.1206 -0.6122
13188SOL     OW51542   7.661  14.035  13.188  0.3774 -0.1002  0.5836
13188SOL    HW151543   7.586  13.995  13.232  0.8482 -2.3605 -0.5397
13188SOL    HW251544   7.680  13.978  13.114  1.4512  1.9734 -0.8593
13189SOL     OW51545   9.924  11.789   0.701 -0.1736 -0.4926  0.1298
13189SOL    HW151546   9.956  11.708   0.741 -0.9244 -0.6702  0.3860
13189SOL    HW251547   9.991  11.854   0.723  0.7534 -1.1624 -0.6063
13190SOL     OW51548   9.872  11.725  12.891 -0.3673 -0.5074  0.2927
13190SOL    HW151549   9.859  11.820  12.897  1.7192 -0.1646 -0.0051
13190SOL    HW251550   9.933  11.714  12.819 -1.3792 -2.1938 -0.3642
13191SOL     OW51551  13.219   6.099   3.360 -0.8026  0.4250 -0.3381
13191SOL    HW151552  13.290   6.163   3.368  1.3095 -1.9527  2.1334
13191SOL    HW251553  13.152   6.130   3.421 -0.7821  1.3214 -0.7462
13192SOL     OW51554   1.906   8.735   6.769 -0.1034  0.1025 -0.0461
13192SOL    HW151555   1.821   8.776   6.784 -0.2774 -0.4088  0.4004
13192SOL    HW251556   1.925   8.750   6.677  0.2134  1.9009  0.2784
13193SOL     OW51557   1.721  13.434  13.554 -0.1224  0.0969 -0.1720
13193SOL    HW151558   1.763  13.496  13.494 -0.1524  0.1242 -0.1646
13193SOL    HW251559   1.675  13.488  13.617  0.8909  0.0939  0.5913
13194SOL     OW51560  13.642   9.613  12.562  0.3315  0.6168  0.1466
13194SOL    HW151561  13.657   9.707  12.572 -1.7450  1.0439 -0.3241
13194SOL    HW251562  13.547   9.604  12.549  0.0734 -1.7731  2.5963
13195SOL     OW51563  10.801   1.280  13.768  0.6935  0.2059 -0.2457
13195SOL    HW151564  10.749   1.321  13.836  0.0855  0.8378 -1.0680
13195SOL    HW251565  10.873   1.237  13.814 -1.1509 -1.6670  1.0263
13196SOL     OW51566  10.906   5.295   7.145  0.0498 -0.1746 -0.6580
13196SOL    HW151567  10.993   5.292   7.185  0.3949 -1.1724 -1.4263
13196SOL    HW251568  10.892   5.206   7.113 -1.2076  0.0098 -0.6595
13197SOL     OW51569  13.654   9.566   2.194 -0.3759 -0.8556  0.0285
13197SOL    HW151570  13.625   9.596   2.108  2.4587 -0.4977 -0.9226
13197SOL    HW251571  13.648   9.470   2.189 -1.8053 -0.7829  0.0831
13198SOL     OW51572  13.886   4.583  13.363  0.4772  0.8440 -0.6670
13198SOL    HW151573  13.962   4.602  13.309 -0.3430  2.6870 -1.2467
13198SOL    HW251574  13.834   4.664  13.362 -1.4409 -0.3094 -0.2019
13199SOL     OW51575  10.141   4.992  11.076  0.0543 -0.1321  0.0659
13199SOL    HW151576  10.230   4.995  11.040 -0.0328 -2.1321 -0.4474
13199SOL    HW251577  10.126   4.899  11.092 -2.7294 -0.1352 -1.9301
13200SOL     OW51578   5.884   8.724   0.745 -0.6108 -0.1757 -0.7571
13200SOL    HW151579   5.935   8.721   0.664  0.2384 -0.0082 -0.2488
13200SOL    HW251580   5.944   8.762   0.809 -1.1578 -0.6008  0.0289
13201SOL     OW51581   5.625  13.066   9.074 -0.6681 -0.4123 -0.1810
13201SOL    HW151582   5.647  13.097   8.986 -1.9497  0.4841 -0.2120
13201SOL    HW251583   5.658  12.976   9.076 -0.2299 -0.3041 -1.4255
13202SOL     OW51584   9.535   2.279   0.835 -0.4760  0.3798  0.3595
13202SOL    HW151585   9.542   2.186   0.813 -2.5101  0.0229  1.0301
13202SOL    HW251586   9.596   2.292   0.908 -1.5204 -0.8949  1.5066
13203SOL     OW51587   7.710  11.357  11.240  0.3173 -0.6877 -0.4685
13203SOL    HW151588   7.689  11.400  11.157  2.9115  0.7012 -0.4836
13203SOL    HW251589   7.626  11.357  11.288 -0.5898  1.1580 -1.9083
13204SOL     OW51590  11.457   8.247  13.407  0.0785 -0.0921  0.0054
13204SOL    HW151591  11.516   8.237  13.482 -1.0920  0.0541  0.9880
13204SOL    HW251592  11.376   8.205  13.435 -0.4530  0.1352 -1.1199
13205SOL     OW51593   2.747  12.741   0.574 -0.1131  0.1289  0.1850
13205SOL    HW151594   2.783  12.724   0.661  0.5170  0.0220 -0.0959
13205SOL    HW251595   2.680  12.674   0.562 -0.1522  0.0992  0.5531
13206SOL     OW51596   4.040   5.229  13.197  0.0780 -0.0867  0.0060
13206SOL    HW151597   4.129   5.199  13.219  0.4417  0.4371 -0.7404
13206SOL    HW251598   4.045   5.254  13.105 -0.8433 -0.0205 -0.0327
13207SOL     OW51599   9.828   6.341   5.378  0.9695 -0.7234 -0.2759
13207SOL    HW151600   9.848   6.326   5.286 -0.3751 -2.7263 -0.2949
13207SOL    HW251601   9.734   6.323   5.385  0.3409  2.3204  0.9411
13208SOL     OW51602   7.700  11.162   9.824  0.3272 -0.2311 -0.1092
13208SOL    HW151603   7.665  11.073   9.815  0.4147 -0.2053 -0.8071
13208SOL    HW251604   7.752  11.174   9.745  1.9928 -0.3004  0.9418
13209SOL     OW51605  10.369   3.290  12.317 -0.2034 -0.1543  0.5945
13209SOL    HW151606  10.447   3.343  12.302  0.6126 -1.7110 -0.9615
13209SOL    HW251607  10.303   3.327  12.257  0.4453 -1.0286 -0.6867
13210SOL     OW51608  13.833  13.580   7.439  0.0126 -0.7658 -0.9531
13210SOL    HW151609  13.907  13.610   7.492 -0.8036  3.0058 -1.6703
13210SOL    HW251610  13.866  13.503   7.393  2.1930 -1.4769  1.5636
13211SOL     OW51611   6.121   0.070   9.411  0.4773 -0.5731  0.2242
13211SOL    HW151612   6.039   0.115   9.433 -0.4121 -1.4837 -1.0700
13211SOL    HW251613   6.142   0.101   9.322  0.2155 -2.1626 -0.4160
13212SOL     OW51614   7.392   1.523   4.028 -0.3038 -0.5227 -0.4872
13212SOL    HW151615   7.475   1.475   4.028 -1.2132 -2.1749 -1.2545
13212SOL    HW251616   7.403   1.589   3.960  1.3967  1.2455  1.3607
13213SOL     OW51617   7.155   4.837   2.979  0.4111 -0.0882  0.2431
13213SOL    HW151618   7.096   4.775   2.935 -0.5494 -0.9178  2.5446
13213SOL    HW251619   7.118   4.923   2.959 -1.9195 -0.6046  1.9344
13214SOL     OW51620   0.574   2.900  13.918  0.1338 -0.3862 -0.9555
13214SOL    HW151621   0.534   2.940  13.841  0.0704  0.3968 -0.5259
13214SOL    HW251622   0.665   2.928  13.915 -0.4885  2.2215  0.8395
13215SOL     OW51623   0.429   5.588   1.393  0.0520 -0.6297  0.1373
13215SOL    HW151624   0.371   5.664   1.406 -0.0321 -0.7421  0.4350
13215SOL    HW251625   0.394   5.521   1.452  0.3574 -0.7710  0.1592
13216SOL     OW51626   8.357   8.333   5.174 -0.1252  0.5851  0.3128
13216SOL    HW151627   8.283   8.279   5.198 -0.4454  0.4824 -0.8396
13216SOL    HW251628   8.377   8.309   5.083  0.4873  1.5312  0.1720
13217SOL     OW51629   7.435   4.851   1.837  0.2498 -0.0989  0.0036
13217SOL    HW151630   7.394   4.825   1.755 -0.8778 -0.3503  0.6211
13217SOL    HW251631   7.441   4.946   1.833 -0.0427 -0.0933 -0.2569
13218SOL     OW51632   5.699   7.922   5.327 -0.0026  0.7350  0.7610
13218SOL    HW151633   5.609   7.888   5.324  0.6642 -1.1073  0.2591
13218SOL    HW251634   5.716   7.939   5.419 -0.4516 -0.1308  1.0129
13219SOL     OW51635  12.855   3.444   4.036 -0.4830 -0.1491  0.0761
13219SOL    HW151636  12.813   3.511   4.090 -0.9620 -0.3687 -0.0176
13219SOL    HW251637  12.921   3.492   3.986 -0.7740  0.2469  0.0601
13220SOL     OW51638   2.351  11.023   3.039 -0.3339 -0.1670  0.4388
13220SOL    HW151639   2.420  11.085   3.065 -0.1635  0.3776 -1.2094
13220SOL    HW251640   2.380  10.990   2.954 -1.6398 -0.6537  0.1745
13221SOL     OW51641  10.604   5.539   3.648  1.1085 -0.1585  0.0301
13221SOL    HW151642  10.575   5.618   3.604  1.5417 -0.5041 -0.8985
13221SOL    HW251643  10.548   5.532   3.726  0.6811  0.7312 -0.1944
13222SOL     OW51644   2.361  12.539   9.572  0.2038  0.1912  0.1335
13222SOL    HW151645   2.367  12.459   9.624  2.9862 -0.4879 -1.0850
13222SOL    HW251646   2.307  12.515   9.496  0.8762 -0.4889 -0.1352
13223SOL     OW51647   4.320  12.502  12.010  0.5457  0.6427 -0.1404
13223SOL    HW151648   4.349  12.437  11.945  2.2427  2.2418 -1.0757
13223SOL    HW251649   4.319  12.454  12.093  0.0214 -1.0111 -1.0551
13224SOL     OW51650   0.784   0.273  12.690  0.2647  0.0415 -0.2772
13224SOL    HW151651   0.739   0.353  12.663  1.3131  1.2007  1.2010
13224SOL    HW251652   0.715   0.217  12.726 -0.3797  0.5743 -0.6704
13225SOL     OW51653  11.855   9.043  12.366  0.1299 -0.1184 -0.0685
13225SOL    HW151654  11.778   9.017  12.316  1.0975 -0.0910 -1.6489
13225SOL    HW251655  11.821   9.106  12.430 -1.1238  0.1040 -0.9005
13226SOL     OW51656   6.630  12.857   3.093  0.0507  0.3539 -0.2585
13226SOL    HW151657   6.723  12.874   3.108 -0.3129  1.6449  0.7980
13226SOL    HW251658   6.614  12.889   3.005  1.2527 -2.9626 -1.8153
13227SOL     OW51659   5.211  12.177  11.630 -0.3985  0.2911  0.4767
13227SOL    HW151660   5.178  12.144  11.547  2.8121  0.4030 -1.0086
13227SOL    HW251661   5.209  12.273  11.620  0.0406  0.3035  0.4561
13228SOL     OW51662   7.703  12.280  11.432  0.5631 -0.2948 -0.4249
13228SOL    HW151663   7.754  12.311  11.357  0.4107 -2.0920 -1.3030
13228SOL    HW251664   7.629  12.340  11.437  0.5528 -0.1706 -1.7388
13229SOL     OW51665  11.324   9.826   0.416  0.0346 -0.2155  0.0320
13229SOL    HW151666  11.407   9.867   0.392 -0.1664 -0.4630 -1.1534
13229SOL    HW251667  11.283   9.888   0.476  0.0112  1.0555 -1.2438
13230SOL     OW51668  11.661   3.985   1.825 -0.0723 -0.0298  0.0609
13230SOL    HW151669  11.631   3.894   1.826  0.8323 -0.3423  0.4575
13230SOL    HW251670  11.623   4.022   1.746 -1.2641 -0.4644  0.4054
13231SOL     OW51671   7.525   7.311   5.669 -0.4312  0.3858 -0.1461
13231SOL    HW151672   7.467   7.236   5.678  0.8730 -0.6142  0.3700
13231SOL    HW251673   7.543   7.338   5.759 -0.0228  0.6051 -0.2913
13232SOL     OW51674   3.245   0.634   9.144  0.6505 -0.6958  0.7259
13232SOL    HW151675   3.273   0.555   9.096  2.1594  0.1383  0.1874
13232SOL    HW251676   3.290   0.628   9.228  2.2356  0.4766 -0.0083
13233SOL     OW51677  13.607  13.477   7.109 -0.0277 -0.4865 -0.3410
13233SOL    HW151678  13.682  13.419   7.120 -0.7495 -1.4325 -0.2691
13233SOL    HW251679  13.617  13.543   7.178  0.8889 -0.4170 -0.5287
13234SOL     OW51680   2.214   5.301   6.525 -0.1268 -0.1746 -0.0147
13234SOL    HW151681   2.286   5.321   6.463 -0.5599  0.1103 -0.4346
13234SOL    HW251682   2.152   5.249   6.474  0.6552 -2.0821  0.8792
13235SOL     OW51683   4.156  10.334  13.483 -0.7898  0.1566  0.0961
13235SOL    HW151684   4.219  10.406  13.493 -0.9366  0.4619 -1.0448
13235SOL    HW251685   4.111  10.330  13.567 -1.5947  2.1807 -0.1866
13236SOL     OW51686  12.915  11.191  10.241  0.1895  0.0377  0.3895
13236SOL    HW151687  12.954  11.129  10.179  0.4094  0.2325  0.3316
13236SOL    HW251688  12.983  11.206  10.306  0.6546  1.2745 -0.3402
13237SOL     OW51689   6.029  12.381   9.655  0.0986  0.4222  0.0759
13237SOL    HW151690   6.011  12.390   9.561  1.0716 -0.7038 -0.2315
13237SOL    HW251691   6.062  12.467   9.681 -0.4005  0.8172 -0.5472
13238SOL     OW51692   9.305   6.593  10.695 -0.4121 -0.0915 -0.5148
13238SOL    HW151693   9.285   6.552  10.611  0.8618 -0.6969 -0.5412
13238SOL    HW251694   9.400   6.600  10.696 -0.5610  3.0198 -0.5577
13239SOL     OW51695  11.976   6.108   8.446 -0.1590  0.0023  1.2681
13239SOL    HW151696  11.930   6.026   8.430  0.8767 -0.2403 -0.8550
13239SOL    HW251697  12.069   6.085   8.446  0.1214  1.0497  1.5052
13240SOL     OW51698   5.122   2.999   3.504  0.5460  0.1250 -0.4861
13240SOL    HW151699   5.029   2.979   3.495  0.9318 -1.2771 -1.7666
13240SOL    HW251700   5.160   2.920   3.543  1.1512  0.8464  0.4353
13241SOL     OW51701  13.027   4.945   6.288  0.2040 -0.2865 -0.5021
13241SOL    HW151702  13.089   5.003   6.333  0.7805 -0.1068 -1.5046
13241SOL    HW251703  13.082   4.877   6.250 -0.4027 -1.1146  0.0627
13242SOL     OW51704   8.732   2.393   0.599  0.0926 -0.0673 -0.7394
13242SOL    HW151705   8.746   2.373   0.507 -0.3450 -0.1175 -0.7980
13242SOL    HW251706   8.732   2.308   0.642  0.9411 -0.0028 -0.5955
13243SOL     OW51707  13.964   3.947   6.277  0.2160  0.6513  0.2542
13243SOL    HW151708  14.058   3.963   6.268  0.3569 -0.1657  0.1445
13243SOL    HW251709  13.926   3.983   6.197  0.5028  0.5615  0.0751
13244SOL     OW51710   0.889   8.557   9.275  0.0841  0.1792  0.1178
13244SOL    HW151711   0.829   8.624   9.308  1.1396  2.3142 -1.9786
13244SOL    HW251712   0.976   8.589   9.300  0.8837  1.5434 -3.7082
13245SOL     OW51713  13.491  13.140   0.346 -0.6009  0.4606 -0.3020
13245SOL    HW151714  13.412  13.155   0.397 -0.9769 -1.5765 -0.1884
13245SOL    HW251715  13.557  13.197   0.385 -1.2703  0.0764  1.4608
13246SOL     OW51716   2.974   4.604   1.500 -0.6287  0.0992  1.3909
13246SOL    HW151717   3.001   4.541   1.567 -1.5377 -0.6627  1.0726
13246SOL    HW251718   3.053   4.654   1.480  0.3162 -1.4571  1.1020
13247SOL     OW51719  11.617   2.745   8.515 -0.5434  0.1387 -0.3490
13247SOL    HW151720  11.596   2.816   8.576 -0.5102 -0.7460  0.7126
13247SOL    HW251721  11.536   2.695   8.507 -0.3244 -0.2083 -0.4219
13248SOL     OW51722  11.077   5.825   8.537 -0.3823 -0.2665 -0.4108
13248SOL    HW151723  11.138   5.805   8.608 -1.8071 -1.2493  0.6189
13248SOL    HW251724  11.127   5.877   8.475  0.6982  1.3748  1.7207
13249SOL     OW51725   8.577  11.663  11.095  0.3712 -0.0171 -0.1912
13249SOL    HW151726   8.622  11.747  11.090  0.4304 -0.0468 -0.1605
13249SOL    HW251727   8.635  11.607  11.147  0.9243 -0.4551 -1.2532
13250SOL     OW51728   9.367   3.740  13.145 -0.0623  0.0454 -0.0081
13250SOL    HW151729   9.349   3.647  13.137  0.3152  0.0715 -1.4925
13250SOL    HW251730   9.280   3.781  13.153 -0.3078 -0.3402 -0.6158
13251SOL     OW51731   7.089   1.267   7.319 -0.3013  0.3335  0.5640
13251SOL    HW151732   6.998   1.240   7.305  0.4518 -1.8322 -0.6004
13251SOL    HW251733   7.112   1.229   7.404 -0.0188 -0.5635  0.1012
13252SOL     OW51734  13.665  13.777  13.055 -0.0400 -0.0143 -0.2125
13252SOL    HW151735  13.587  13.777  13.110  0.5768  1.3688  0.6991
13252SOL    HW251736  13.719  13.706  13.090 -0.1341  0.1534  0.2847
13253SOL     OW51737   9.907   5.120   3.190 -0.0380 -0.0298  0.6772
13253SOL    HW151738   9.915   5.040   3.139  1.3648 -0.7845  2.0020
13253SOL    HW251739   9.829   5.106   3.244 -0.4040 -0.0500  0.1438
13254SOL     OW51740   2.140  12.374   2.919 -0.2610 -0.2882  0.5169
13254SOL    HW151741   2.222  12.348   2.878  0.3373  0.9300  0.9167
13254SOL    HW251742   2.087  12.294   2.918 -0.1079 -0.4495 -2.1581
13255SOL     OW51743   4.045  13.412   5.172 -0.2051  0.2107  0.0154
13255SOL    HW151744   4.016  13.372   5.254 -0.3321 -0.1240 -0.1903
13255SOL    HW251745   4.126  13.458   5.195  0.7015 -1.2867 -0.0218
13256SOL     OW51746   5.754   0.045   3.324  0.2845  0.4612  0.5308
13256SOL    HW151747   5.790   0.042   3.413 -1.5271  1.4074  1.3440
13256SOL    HW251748   5.776  -0.040   3.287  2.7583  0.7410  1.1637
13257SOL     OW51749  10.391   7.792   0.341 -0.2723  0.4206 -0.1899
13257SOL    HW151750  10.439   7.828   0.415  0.9210 -2.8112  0.7736
13257SOL    HW251751  10.315   7.749   0.381 -1.0134  0.8058 -1.1453
13258SOL     OW51752   0.939   3.253   9.400  0.0011 -0.2935 -0.2721
13258SOL    HW151753   0.911   3.235   9.490 -0.7668 -0.8106 -0.6047
13258SOL    HW251754   0.973   3.342   9.404 -0.9766  0.0745  0.3276
13259SOL     OW51755   6.164   4.588   6.301 -0.8007 -0.2156 -0.0399
13259SOL    HW151756   6.189   4.650   6.233  1.6923 -1.7149 -0.5970
13259SOL    HW251757   6.233   4.595   6.367 -1.9613 -0.4534  1.2651
13260SOL     OW51758   5.644   1.672   5.519 -0.2954 -0.4067 -0.0348
13260SOL    HW151759   5.571   1.728   5.546 -0.9570  0.3251 -2.9727
13260SOL    HW251760   5.717   1.733   5.505 -0.1709 -0.6571 -0.5018
13261SOL     OW51761  11.733  10.191   5.156  0.6201 -0.6396  0.3392
13261SOL    HW151762  11.716  10.244   5.078  0.7934 -1.7303 -0.4604
13261SOL    HW251763  11.649  10.190   5.202  0.9374  1.3792  1.0622
13262SOL     OW51764  12.264   0.037   9.380 -0.5566  0.1755  0.0154
13262SOL    HW151765  12.237   0.123   9.346  0.1640  0.8755  1.1699
13262SOL    HW251766  12.203   0.019   9.452  0.0237  0.2646  0.5334
13263SOL     OW51767   7.531   3.089   6.094 -0.0996  0.0866 -0.0001
13263SOL    HW151768   7.455   3.089   6.154 -0.8754 -0.5270 -0.9581
13263SOL    HW251769   7.590   3.155   6.131 -1.3235  0.9413  0.4962
13264SOL     OW51770   4.113   6.357  11.036  0.0676  0.0317  0.6365
13264SOL    HW151771   4.090   6.269  11.065 -0.9662  0.3025  0.6750
13264SOL    HW251772   4.032   6.407  11.045 -0.3310  0.1507 -2.6787
13265SOL     OW51773   1.099   1.102  11.535  1.0747  0.1030  0.4480
13265SOL    HW151774   1.165   1.040  11.504  1.9854  1.7552 -1.1300
13265SOL    HW251775   1.027   1.093  11.472  1.7898  1.5405 -0.6457
13266SOL     OW51776  13.810  12.929   3.651 -0.3416  0.7080 -0.2240
13266SOL    HW151777  13.776  12.879   3.577  0.7760 -0.2007 -0.1544
13266SOL    HW251778  13.882  12.980   3.614  1.0899 -0.7353  0.4393
13267SOL     OW51779   0.465  12.433   9.086  0.0646 -0.4178 -0.6980
13267SOL    HW151780   0.397  12.447   9.020  1.1110  1.0419 -1.5125
13267SOL    HW251781   0.505  12.519   9.098  0.7248 -0.9211  0.9407
13268SOL     OW51782  12.604  12.648  10.077 -0.5627  0.0948  0.5204
13268SOL    HW151783  12.644  12.600  10.149  0.2438  1.2426  0.8708
13268SOL    HW251784  12.547  12.584  10.033  1.2748 -1.4761  0.3083
13269SOL     OW51785  10.908   2.727   3.940  0.2141 -0.2455  0.5569
13269SOL    HW151786  10.948   2.746   3.855 -1.2944  0.3399 -0.0532
13269SOL    HW251787  10.821   2.693   3.919  0.0002 -0.5600  1.8633
13270SOL     OW51788  12.176   9.563  14.016 -0.1227 -0.1291 -0.3089
13270SOL    HW151789  12.146   9.563  14.107 -0.7701 -1.6282 -0.4978
13270SOL    HW251790  12.106   9.521  13.967 -0.1216  1.3394 -1.6524
13271SOL     OW51791   1.560   8.010  13.529 -0.0310  0.3342  0.4265
13271SOL    HW151792   1.628   7.943  13.538 -0.8030 -0.4963  0.2417
13271SOL    HW251793   1.553   8.049  13.616 -0.2803 -0.5349  0.8069
13272SOL     OW51794  13.244   0.866  10.823  0.4296 -0.4246 -0.2056
13272SOL    HW151795  13.221   0.837  10.734 -1.2126  0.4125 -0.0989
13272SOL    HW251796  13.180   0.823  10.879 -2.1349  3.1528 -0.0464
13273SOL     OW51797   8.140   5.388   6.939 -0.0813 -0.3229 -0.2876
13273SOL    HW151798   8.146   5.332   7.016 -0.2602 -1.3771 -1.0131
13273SOL    HW251799   8.193   5.465   6.961  0.1385 -0.7487  0.7493
13274SOL     OW51800   1.438   2.504   1.999  0.2328 -0.4044  0.1317
13274SOL    HW151801   1.384   2.532   2.074  0.2735 -0.9747  0.3865
13274SOL    HW251802   1.374   2.472   1.935  0.0367  2.1039 -1.0082
13275SOL     OW51803  13.359   5.218   1.302 -0.1130  0.2390  0.0917
13275SOL    HW151804  13.423   5.267   1.353  1.1848 -1.1740 -0.0813
13275SOL    HW251805  13.323   5.281   1.240 -0.6457  1.6256  1.7277
13276SOL     OW51806  13.209   3.648   2.197 -0.0971  0.3163  0.2049
13276SOL    HW151807  13.244   3.704   2.128  2.1705 -0.1417  0.9001
13276SOL    HW251808  13.187   3.566   2.153  1.5020 -0.0321  0.0202
13277SOL     OW51809   9.265   1.298   5.374 -0.3166  0.0083  0.1044
13277SOL    HW151810   9.293   1.390   5.378 -0.6102  0.1289 -0.4806
13277SOL    HW251811   9.293   1.268   5.287 -0.4161 -0.3946  0.2079
13278SOL     OW51812   3.683   0.632   5.678  0.0476 -0.1717  0.1565
13278SOL    HW151813   3.663   0.628   5.772 -0.8916  0.1467 -0.0148
13278SOL    HW251814   3.777   0.615   5.673  0.0638 -0.4714  1.1307
13279SOL     OW51815  13.146   4.704   9.534 -0.2326  0.0010  0.6089
13279SOL    HW151816  13.073   4.645   9.517  0.0605 -0.0005 -0.8253
13279SOL    HW251817  13.190   4.712   9.449  0.3463  1.4532  1.0160
13280SOL     OW51818  11.252   4.265   7.438 -0.1571 -0.1351  0.2259
13280SOL    HW151819  11.181   4.243   7.378  1.5034 -1.1911 -1.4181
13280SOL    HW251820  11.220   4.343   7.485 -1.5865  0.6354 -1.8814
13281SOL     OW51821   8.392   0.103  10.394  0.0068 -0.2445  0.4559
13281SOL    HW151822   8.431   0.174  10.343 -1.1334 -0.4067 -0.7321
13281SOL    HW251823   8.349   0.147  10.467  0.3733  0.1633  0.4319
13282SOL     OW51824  10.736  12.775  11.899  0.9777 -0.8245  0.1257
13282SOL    HW151825  10.715  12.688  11.933 -2.5335  0.2157  1.0049
13282SOL    HW251826  10.651  12.814  11.878  2.2710  2.9752  1.1549
13283SOL     OW51827   7.778   7.921   3.116 -0.5501  0.1131  0.0077
13283SOL    HW151828   7.854   7.897   3.062 -0.1129  1.4483 -0.0170
13283SOL    HW251829   7.789   7.872   3.197 -0.6190 -1.0620 -0.6647
13284SOL     OW51830  13.065   9.487  13.813  0.2737 -0.0027  0.1086
13284SOL    HW151831  13.015   9.430  13.755  0.3933 -0.6702  0.6413
13284SOL    HW251832  13.008   9.563  13.828 -1.5251 -1.6336  2.3236
13285SOL     OW51833   7.459   6.433   5.189  0.1754  1.0062 -0.2169
13285SOL    HW151834   7.550   6.427   5.219 -0.8728 -0.7872  2.9791
13285SOL    HW251835   7.417   6.494   5.250 -1.5397 -1.0194  0.7441
13286SOL     OW51836   0.723   7.990  10.327  0.1418 -0.3430  0.3794
13286SOL    HW151837   0.682   8.076  10.337  1.0654  0.1537  0.1217
13286SOL    HW251838   0.716   7.971  10.234  0.7076 -0.1248  0.2833
13287SOL     OW51839   4.112   9.395  12.367  0.3244 -0.1752  0.9179
13287SOL    HW151840   4.039   9.367  12.423  0.9203 -0.4422  1.5830
13287SOL    HW251841   4.159   9.314  12.348 -1.7806 -0.7577 -2.9357
13288SOL     OW51842   3.085  10.035   1.564  0.9221 -0.4542  0.6071
13288SOL    HW151843   3.131  10.082   1.495  1.0850  0.5628  1.3882
13288SOL    HW251844   3.147   9.969   1.594  0.8772 -0.8569 -0.1495
13289SOL     OW51845   3.948   9.035   9.787 -0.0511  0.1559 -0.2999
13289SOL    HW151846   3.853   9.038   9.788 -0.0907 -0.3815 -1.3163
13289SOL    HW251847   3.974   9.056   9.877 -1.0653  1.8892 -0.3800
13290SOL     OW51848  13.480   9.958   3.946 -0.4762 -0.2785 -0.0750
13290SOL    HW151849  13.520   9.998   4.023 -1.5713 -1.4558  1.1736
13290SOL    HW251850  13.461   9.868   3.973 -2.7399 -0.1464 -1.0007
13291SOL     OW51851   5.974   4.244   2.450  0.5768 -0.0393  0.1811
13291SOL    HW151852   6.032   4.172   2.429 -0.3181 -0.3380 -1.4362
13291SOL    HW251853   6.024   4.323   2.429  0.6525 -0.2756 -0.5616
13292SOL     OW51854   7.266   5.876  11.507 -0.3273  0.6094  0.0366
13292SOL    HW151855   7.208   5.910  11.575  0.0617  1.3314  0.0218
13292SOL    HW251856   7.354   5.901  11.535 -0.0589 -0.0663 -0.1730
13293SOL     OW51857  13.622   0.474   2.231  0.1467  0.5357 -0.3250
13293SOL    HW151858  13.670   0.438   2.306 -0.0019 -0.1795 -0.5744
13293SOL    HW251859  13.533   0.486   2.264  0.5444  2.2413  0.2644
13294SOL     OW51860   0.066   5.774   4.652  0.4244  0.4530  0.1561
13294SOL    HW151861  -0.023   5.739   4.649  1.0650 -1.2711  0.2039
13294SOL    HW251862   0.101   5.759   4.564  0.9233  0.3944  0.3616
13295SOL     OW51863   9.458   6.308   6.494 -0.1408  0.1750  0.0746
13295SOL    HW151864   9.491   6.354   6.571 -0.7020  0.7679 -0.0278
13295SOL    HW251865   9.404   6.373   6.449  1.0497  0.1813 -1.4072
13296SOL     OW51866   0.558   3.308  10.774 -0.0729  0.6598  0.0843
13296SOL    HW151867   0.517   3.222  10.765  1.0359 -0.3945  3.5887
13296SOL    HW251868   0.578   3.334  10.684 -3.7736 -0.9588 -1.4126
13297SOL     OW51869   2.640   4.315   5.176  0.2090  0.5843  0.0851
13297SOL    HW151870   2.551   4.293   5.204  0.2751 -0.4401 -0.4539
13297SOL    HW251871   2.636   4.408   5.154 -0.2783  0.9923  1.7484
13298SOL     OW51872  13.306   1.110  13.674 -0.2970  0.4022  0.0074
13298SOL    HW151873  13.272   1.186  13.721 -3.8921 -1.0840  0.1235
13298SOL    HW251874  13.333   1.144  13.589  0.6400  2.1645  0.9706
13299SOL     OW51875   9.836  13.218   4.699  0.5301  0.0159  0.0565
13299SOL    HW151876   9.843  13.313   4.710  3.0496 -0.0120 -0.7305
13299SOL    HW251877   9.881  13.182   4.775  1.8673 -0.4635 -0.9306
13300SOL     OW51878  10.335  10.654   0.005 -0.2192 -0.1928 -0.0480
13300SOL    HW151879  10.327  10.748   0.021 -2.3332 -0.4620  0.8183
13300SOL    HW251880  10.250  10.618   0.031  0.2345 -2.2399 -1.1885
13301SOL     OW51881  11.933   5.112  13.940  0.4025  0.1658 -0.0367
13301SOL    HW151882  11.954   5.167  13.864  1.9833 -0.4258 -0.0819
13301SOL    HW251883  11.973   5.027  13.920  1.0509  0.0551  1.5281
13302SOL     OW51884  13.229   2.396   7.702 -0.3875 -0.4451 -0.3697
13302SOL    HW151885  13.248   2.431   7.615  0.6849 -0.7665 -0.2800
13302SOL    HW251886  13.291   2.439   7.760  0.2530 -1.6875 -0.0860
13303SOL     OW51887   5.088  12.648   6.113  0.0459  0.2685 -0.5981
13303SOL    HW151888   5.117  12.629   6.024 -0.9358 -0.3151 -0.8041
13303SOL    HW251889   4.998  12.678   6.104  0.1184  0.7373  0.1526
13304SOL     OW51890   4.554  11.609  12.508 -0.3784 -0.5423  0.2996
13304SOL    HW151891   4.545  11.544  12.438  0.9747  0.4222 -0.7995
13304SOL    HW251892   4.495  11.680  12.483  0.9069  0.2852 -0.4580
13305SOL     OW51893  10.111   7.720   0.418  0.3879 -0.3685  0.2568
13305SOL    HW151894  10.060   7.749   0.342 -0.4744  0.3321  1.0787
13305SOL    HW251895  10.046   7.681   0.476  0.8135  0.3958  1.2615
13306SOL     OW51896  10.866  14.011   4.264  0.1423 -0.4641  0.2903
13306SOL    HW151897  10.892  14.070   4.335 -0.2729  0.4086 -0.2539
13306SOL    HW251898  10.927  14.032   4.193 -1.1144  0.6250 -0.5224
13307SOL     OW51899   8.049   4.556   8.909  0.0322 -0.5212  0.0994
13307SOL    HW151900   8.104   4.588   8.980  0.5114  0.0594 -0.5270
13307SOL    HW251901   8.108   4.505   8.854  0.0194  0.3005 -0.7040
13308SOL     OW51902   4.262   6.459  13.818 -0.5478 -0.3520  0.0522
13308SOL    HW151903   4.305   6.441  13.902  2.8076 -2.8619 -1.9589
13308SOL    HW251904   4.297   6.545  13.792  0.5456 -0.7758  0.0574
13309SOL     OW51905   2.416   3.910   6.270 -0.2870  0.2555 -0.9773
13309SOL    HW151906   2.335   3.961   6.269  0.2161  1.1064 -3.1431
13309SOL    HW251907   2.388   3.819   6.274 -1.3026  0.5733 -0.6303
13310SOL     OW51908   8.855   2.101  10.590 -0.2827  0.2145  0.4308
13310SOL    HW151909   8.852   2.007  10.608 -0.0050 -0.2686 -1.7301
13310SOL    HW251910   8.773   2.136  10.626 -1.3565 -1.2271 -0.5178
13311SOL     OW51911   5.279  12.438   5.707 -0.3679  0.5931  0.4254
13311SOL    HW151912   5.356  12.494   5.716  0.5055 -0.8248  2.4808
13311SOL    HW251913   5.309  12.363   5.657 -0.0728 -0.4471  2.0848
13312SOL     OW51914  12.411  12.017   1.228 -0.8155 -0.1834 -0.0198
13312SOL    HW151915  12.503  12.037   1.244 -1.0250  1.3473 -0.6126
13312SOL    HW251916  12.408  11.921   1.224  0.6882 -0.2653  0.3049
13313SOL     OW51917   4.060   2.602  13.042 -0.1055 -0.5773  1.1344
13313SOL    HW151918   4.115   2.602  12.963  0.7789 -2.8175  1.6758
13313SOL    HW251919   3.981   2.554  13.016 -0.7588  0.4865  1.0685
13314SOL     OW51920  10.975   0.497   5.738 -0.0364  0.2573 -0.8513
13314SOL    HW151921  11.070   0.482   5.745 -0.1230  0.1841  0.4938
13314SOL    HW251922  10.936   0.425   5.787 -0.7925  0.3346 -1.3301
13315SOL     OW51923   0.504  12.255   8.821  0.5287  0.2730  0.0045
13315SOL    HW151924   0.419  12.216   8.803  0.5471  0.3906 -0.3532
13315SOL    HW251925   0.484  12.345   8.846  0.4947  0.0746  0.7097
13316SOL     OW51926   6.324   5.070   7.939 -0.2378  0.4809 -0.0363
13316SOL    HW151927   6.375   5.131   7.991 -0.6256  1.3969 -0.7187
13316SOL    HW251928   6.389   5.015   7.896  0.1003 -1.1428  2.3249
13317SOL     OW51929   8.009  11.044  12.425 -0.5556 -0.2704  0.1202
13317SOL    HW151930   8.002  11.118  12.366  0.8843 -0.9525 -0.9685
13317SOL    HW251931   7.947  10.980  12.391  1.0117 -1.0821 -1.3859
13318SOL     OW51932  12.738  13.680   6.240  0.6342 -0.2336  0.2883
13318SOL    HW151933  12.816  13.703   6.291  1.6301 -1.0882 -0.8108
13318SOL    HW251934  12.713  13.762   6.196  2.0588 -0.3679 -0.8339
13319SOL     OW51935   2.747  13.098  12.646  0.1604  0.0888 -0.3309
13319SOL    HW151936   2.734  13.017  12.596  1.9201 -0.5431  0.1703
13319SOL    HW251937   2.663  13.113  12.690 -0.5780 -0.7706 -1.4108
13320SOL     OW51938  10.729   0.738  13.528 -0.4184 -0.0769 -0.0402
13320SOL    HW151939  10.680   0.676  13.473 -0.4311 -1.6349  1.6233
13320SOL    HW251940  10.805   0.762  13.475 -1.0848 -0.4918 -1.2370
13321SOL     OW51941   2.717   8.864  12.530  0.8939 -0.1813 -0.1390
13321SOL    HW151942   2.764   8.845  12.449  2.3762 -0.4544  0.7504
13321SOL    HW251943   2.766   8.817  12.597  0.9613  1.7284  1.2206
13322SOL     OW51944   9.470   6.004   7.433 -0.2318  0.4879  0.0400
13322SOL    HW151945   9.508   6.069   7.375  2.2972  0.5366  1.6174
13322SOL    HW251946   9.507   5.921   7.404 -1.2735  0.1059 -0.2353
13323SOL     OW51947   6.898  13.781   8.582  0.1708 -0.7618 -0.0738
13323SOL    HW151948   6.906  13.799   8.676  0.0847 -0.5815 -0.1000
13323SOL    HW251949   6.804  13.770   8.568  0.1752 -0.6882 -0.1574
13324SOL     OW51950   4.244  11.754  13.799 -0.1868 -0.2240 -0.9456
13324SOL    HW151951   4.310  11.686  13.816 -1.7400 -1.5898  0.0178
13324SOL    HW251952   4.231  11.797  13.884 -0.8040 -0.2468 -1.0216
13325SOL     OW51953  12.553   1.017   8.234  0.4597 -0.8540 -0.8792
13325SOL    HW151954  12.545   1.112   8.222 -1.0979 -0.9013 -0.4207
13325SOL    HW251955  12.640   1.005   8.272  0.6352  0.3988 -0.8499
13326SOL     OW51956  10.770   2.907   7.862 -0.1293  0.2470 -0.2497
13326SOL    HW151957  10.777   2.959   7.782 -1.5530 -1.5433 -1.6192
13326SOL    HW251958  10.735   2.823   7.833  3.7346 -2.2462  1.5340
13327SOL     OW51959   5.556  13.881  12.495 -0.4915 -0.1293  0.0354
13327SOL    HW151960   5.510  13.909  12.574  1.3154  0.9886  0.7503
13327SOL    HW251961   5.546  13.785  12.494 -0.7767 -0.1315  1.4543
13328SOL     OW51962   6.380  11.760   1.219  0.3707 -0.2455  0.3312
13328SOL    HW151963   6.290  11.727   1.225 -0.6397  2.0198 -1.1104
13328SOL    HW251964   6.430  11.701   1.274 -2.0926 -1.2330  1.6997
13329SOL     OW51965   8.902   9.293  10.355 -0.3975 -0.1769  0.2408
13329SOL    HW151966   8.934   9.296  10.446  1.4191 -0.1813 -0.3683
13329SOL    HW251967   8.937   9.211  10.320 -3.0336 -1.3737  0.1733
13330SOL     OW51968   5.280   1.096   5.295 -0.0922 -0.3780 -0.0978
13330SOL    HW151969   5.193   1.057   5.283 -0.9507  1.2720  0.3548
13330SOL    HW251970   5.265   1.190   5.280  1.7695 -0.1419 -0.6913
13331SOL     OW51971   0.953  11.792  10.666  0.0803  0.3187 -0.1670
13331SOL    HW151972   0.885  11.725  10.673 -0.3058  0.7820  0.5266
13331SOL    HW251973   0.997  11.791  10.751  0.5964  0.3889 -0.4301
13332SOL     OW51974  13.215   9.565   0.903 -0.1344 -0.4071  0.0856
13332SOL    HW151975  13.167   9.645   0.879  0.9907  0.9426  2.0304
13332SOL    HW251976  13.276   9.551   0.830  0.5649  1.3107  0.2913
13333SOL     OW51977   0.686   5.077   7.373  0.0916 -0.2243  0.1847
13333SOL    HW151978   0.633   4.998   7.385 -0.2098 -0.2612 -1.1967
13333SOL    HW251979   0.626   5.141   7.337  0.3560  0.6288  1.2295
13334SOL     OW51980  13.255  13.370  12.792 -0.2573 -0.4023 -0.0308
13334SOL    HW151981  13.323  13.308  12.816 -0.5066 -1.0760 -1.0050
13334SOL    HW251982  13.175  13.335  12.832 -0.0115  0.5064  1.2991
13335SOL     OW51983  10.221  11.811   6.942 -0.1690  0.3553 -0.3727
13335SOL    HW151984  10.150  11.747   6.944 -1.3061  1.5741  0.1992
13335SOL    HW251985  10.298  11.762   6.968 -0.6679 -1.1484 -1.5993
13336SOL     OW51986   1.837   2.808  13.679  0.4466  0.0920 -0.1249
13336SOL    HW151987   1.784   2.729  13.689  0.9572 -0.2147  0.2170
13336SOL    HW251988   1.898   2.805  13.753  0.0857  1.1098  0.2226
13337SOL     OW51989   2.069   7.215   1.752 -0.1982  0.0025  0.7842
13337SOL    HW151990   2.093   7.162   1.828  1.5424 -3.0251 -1.6526
13337SOL    HW251991   1.982   7.182   1.727  0.0712 -0.3733  0.3438
13338SOL     OW51992   7.234   5.338   3.673  0.0038  0.3070 -0.3196
13338SOL    HW151993   7.233   5.428   3.641  2.7864  1.0856  1.4229
13338SOL    HW251994   7.158   5.332   3.731  1.6168  2.7668  2.3133
13339SOL     OW51995   5.934   2.004   6.339  0.2261  0.2541 -0.6085
13339SOL    HW151996   5.849   2.046   6.326  0.2573  0.8958  1.0190
13339SOL    HW251997   5.927   1.921   6.291 -1.7525 -0.2218  0.3907
13340SOL     OW51998   5.931   4.853   5.298  0.3461 -0.0498  0.4007
13340SOL    HW151999   5.837   4.841   5.286 -0.4115  3.4766  1.4937
13340SOL    HW252000   5.949   4.815   5.384  0.3513 -2.1310 -0.4525
13341SOL     OW52001   5.816  12.164   7.217 -0.3832 -0.7710 -0.4246
13341SOL    HW152002   5.903  12.139   7.187 -0.7760 -2.4521 -0.2810
13341SOL    HW252003   5.760  12.151   7.141 -0.6231 -0.4064 -0.3109
13342SOL     OW52004   9.280   5.382   1.274 -0.1722  0.5704  0.0682
13342SOL    HW152005   9.196   5.392   1.318 -0.7874  0.6649 -1.1073
13342SOL    HW252006   9.296   5.467   1.233 -0.7456 -0.2004 -1.8456
13343SOL     OW52007   7.519   0.783  10.810 -0.4748  0.1084  0.0439
13343SOL    HW152008   7.576   0.718  10.769 -0.2474 -0.8858  1.8463
13343SOL    HW252009   7.560   0.802  10.894 -1.8235  0.7896  0.5820
13344SOL     OW52010   1.022  10.459   7.352  0.3075 -0.0107 -0.1541
13344SOL    HW152011   0.977  10.541   7.329 -0.4831 -0.2605  0.4654
13344SOL    HW252012   1.070  10.436   7.272  0.3570  0.9321 -0.4172
13345SOL     OW52013   0.492   6.731   0.750  0.8932 -0.1136  0.6207
13345SOL    HW152014   0.409   6.776   0.737 -0.0047 -1.8591 -0.0198
13345SOL    HW252015   0.556   6.785   0.703 -0.3203 -0.0221 -0.9988
13346SOL     OW52016   5.697   6.850  13.569  0.0624 -0.1085  0.4756
13346SOL    HW152017   5.703   6.787  13.641 -0.4318  0.9821  1.4992
13346SOL    HW252018   5.736   6.805  13.494  0.9928 -1.1023  1.5330
13347SOL     OW52019   6.926   7.833   7.568 -0.1207 -0.0821 -0.2589
13347SOL    HW152020   6.957   7.914   7.528 -0.1825  0.7663  1.3522
13347SOL    HW252021   6.838   7.822   7.534  0.2270 -0.0001 -1.2248
13348SOL     OW52022   2.670   2.503   7.903 -0.1436 -0.0734  0.5069
13348SOL    HW152023   2.756   2.496   7.945  0.0288 -1.6615 -0.0500
13348SOL    HW252024   2.689   2.544   7.818 -0.5777  3.7880  2.0477
13349SOL     OW52025   9.248   6.679  10.967 -0.0748  0.2522 -0.0430
13349SOL    HW152026   9.240   6.664  10.873 -0.7264  0.3287 -0.0050
13349SOL    HW252027   9.213   6.600  11.008  0.4597  0.1042  0.1367
13350SOL     OW52028   7.699   9.736   0.811  0.0624 -0.4937 -0.2824
13350SOL    HW152029   7.773   9.795   0.815 -1.8117  2.0552 -0.4875
13350SOL    HW252030   7.660   9.740   0.898  0.1402 -1.8303 -0.1600
13351SOL     OW52031  11.245   3.139   7.147 -0.1408  0.5041 -0.1144
13351SOL    HW152032  11.266   3.231   7.160 -2.4295  0.8912  1.6364
13351SOL    HW252033  11.184   3.138   7.073 -0.8105  0.5391  0.4255
13352SOL     OW52034   4.829   9.000   3.048 -0.5173 -0.2441  0.7120
13352SOL    HW152035   4.905   8.943   3.040 -0.7756 -0.7361  1.7031
13352SOL    HW252036   4.840   9.044   3.133 -0.7683  0.5281  0.3587
13353SOL     OW52037   5.653  11.912   1.538 -0.3109  0.3143 -0.4061
13353SOL    HW152038   5.684  11.982   1.481  0.2242 -0.7436 -1.4518
13353SOL    HW252039   5.562  11.898   1.512 -0.2193  0.1860 -0.6701
13354SOL     OW52040  13.171  13.902   3.731  0.4276 -0.4136  0.1037
13354SOL    HW152041  13.196  13.909   3.823  0.6429  3.0125 -0.1151
13354SOL    HW252042  13.251  13.874   3.686  0.3019 -2.1862  0.8784
13355SOL     OW52043   4.505  13.109   0.542  1.1267  0.1626 -0.2546
13355SOL    HW152044   4.552  13.172   0.597 -1.4887  1.8690  0.1909
13355SOL    HW252045   4.502  13.150   0.456 -0.6635  0.7494  0.0553
13356SOL     OW52046   5.230  11.797   6.079  0.3659  0.4521 -0.2793
13356SOL    HW152047   5.176  11.825   6.004  1.0319  0.5119 -0.7413
13356SOL    HW252048   5.272  11.878   6.109 -1.1288  0.7248  1.1817
13357SOL     OW52049   3.918   5.992  12.361 -0.3403 -0.0080 -0.4158
13357SOL    HW152050   3.921   6.067  12.302  1.1182  0.7623  0.5798
13357SOL    HW252051   3.890   5.919  12.305  0.4043  0.8148 -1.9372
13358SOL     OW52052  10.275  13.826   3.473  0.2665  0.5554  0.0560
13358SOL    HW152053  10.251  13.907   3.519  0.6325 -0.1811  1.6333
13358SOL    HW252054  10.368  13.836   3.454  0.8598 -0.3277  2.2017
13359SOL     OW52055   9.166  12.646  13.963 -0.4075 -0.4371  0.1811
13359SOL    HW152056   9.091  12.665  14.020 -0.2989 -1.5498  0.7215
13359SOL    HW252057   9.216  12.728  13.961 -1.3476  0.1489  0.2520
13360SOL     OW52058  10.549   0.767   6.443 -0.1796  0.0371  0.2147
13360SOL    HW152059  10.565   0.859   6.464 -1.2879 -0.2452  2.6344
13360SOL    HW252060  10.604   0.718   6.503 -0.5896 -0.8829 -0.1374
13361SOL     OW52061   1.131   2.835   0.947 -0.0948 -0.2651  0.2042
13361SOL    HW152062   1.205   2.895   0.950  0.5010 -1.0342  2.2109
13361SOL    HW252063   1.060   2.883   0.990  0.0271 -0.5383  0.7119
13362SOL     OW52064   0.438   5.481   4.906  0.1159 -0.2757  0.2303
13362SOL    HW152065   0.395   5.420   4.965  1.3315 -1.4737 -0.0603
13362SOL    HW252066   0.531   5.463   4.917  0.4504  0.7859 -0.6758
13363SOL     OW52067   8.754  11.200  11.762  0.0321 -0.4697  0.9907
13363SOL    HW152068   8.754  11.227  11.854 -0.1341 -0.9801  1.1444
13363SOL    HW252069   8.780  11.279  11.714  0.8542 -0.3945  1.5343
13364SOL     OW52070   5.094  10.858   4.205 -0.1430 -1.1693 -0.0179
13364SOL    HW152071   5.115  10.950   4.189 -0.7388 -0.7987  1.1689
13364SOL    HW252072   5.091  10.818   4.118  0.8826 -0.2447 -0.4947
13365SOL     OW52073   5.633   8.771   3.364  0.4207  0.7793 -0.4532
13365SOL    HW152074   5.675   8.690   3.390  0.3598  0.9998  0.3373
13365SOL    HW252075   5.617   8.760   3.270  2.4007  0.7790 -0.8218
13366SOL     OW52076  11.275  13.539   7.947  0.8776 -0.4284  0.2863
13366SOL    HW152077  11.235  13.614   7.991 -0.0188  0.2889 -1.6754
13366SOL    HW252078  11.224  13.464   7.977 -0.7890  0.2469 -0.7272
13367SOL     OW52079  13.059   3.865   9.985 -0.4426 -0.5631 -0.3182
13367SOL    HW152080  13.116   3.940  10.002  1.4680 -1.9159 -0.3446
13367SOL    HW252081  12.973   3.903   9.970  0.2727  1.5487  0.4898
13368SOL     OW52082   3.233   4.415   3.488 -0.5547 -0.2028 -0.3019
13368SOL    HW152083   3.252   4.409   3.395  2.8738 -1.2206  0.3111
13368SOL    HW252084   3.231   4.324   3.518 -0.3965  0.1322  0.7794
13369SOL     OW52085   3.466  13.993  11.904 -0.1185 -0.0300 -0.2527
13369SOL    HW152086   3.459  14.088  11.907  1.5304  0.2295 -2.1589
13369SOL    HW252087   3.405  13.967  11.834 -0.8654 -0.4490  0.5321
13370SOL     OW52088   5.102   6.021   7.325  0.3444  0.1522 -0.1421
13370SOL    HW152089   5.051   5.943   7.302  1.3728 -0.9465  1.1696
13370SOL    HW252090   5.193   5.996   7.309  0.7405  0.8445  0.9066
13371SOL     OW52091   2.329   0.789   0.925 -1.0868 -0.3725 -0.0092
13371SOL    HW152092   2.335   0.774   0.831 -1.2744 -0.5108 -0.0014
13371SOL    HW252093   2.303   0.704   0.961 -2.3929  0.0166  0.0138
13372SOL     OW52094   5.329  10.397   4.892  0.1219  0.6601  0.1443
13372SOL    HW152095   5.268  10.458   4.934 -0.9718 -0.7121  0.6768
13372SOL    HW252096   5.272  10.335   4.846  1.0663 -0.9975  1.1059
13373SOL     OW52097  10.437   7.190   8.250 -0.9712 -0.0787  0.0524
13373SOL    HW152098  10.464   7.213   8.339 -1.2758  1.4263 -0.2160
13373SOL    HW252099  10.411   7.098   8.256 -0.3210 -0.2031  1.3576
13374SOL     OW52100   1.630   2.144   3.091 -0.1110 -0.4124  0.7942
13374SOL    HW152101   1.583   2.068   3.058 -1.1801  0.7173 -0.3401
13374SOL    HW252102   1.633   2.130   3.186 -2.2600 -0.7861  0.8484
13375SOL     OW52103   4.340   2.241   4.692 -0.0281 -0.0731 -0.4748
13375SOL    HW152104   4.421   2.192   4.707  1.1130  1.7058 -0.5114
13375SOL    HW252105   4.334   2.250   4.597 -1.8388 -2.6106 -0.6929
13376SOL     OW52106   0.807   2.175   0.819 -0.0603 -0.6467 -0.0046
13376SOL    HW152107   0.746   2.241   0.786 -2.2096 -2.0711  0.9169
13376SOL    HW252108   0.824   2.117   0.744  0.8260  0.1790 -0.4674
13377SOL     OW52109   7.573   0.840   5.518 -1.1230 -0.6500  0.0797
13377SOL    HW152110   7.573   0.917   5.461  2.3134 -0.2528  0.4286
13377SOL    HW252111   7.571   0.876   5.607 -3.3722 -1.1870  0.3194
13378SOL     OW52112  13.297  11.290  12.081 -0.4764 -0.0478 -0.1606
13378SOL    HW152113  13.218  11.246  12.112 -0.6536  0.4247  0.0732
13378SOL    HW252114  13.285  11.296  11.986 -0.5438 -0.3209 -0.1703
13379SOL     OW52115  12.836   9.784  10.356 -0.3183  0.2500  0.3049
13379SOL    HW152116  12.754   9.814  10.396  0.7858  0.6109  2.4350
13379SOL    HW252117  12.837   9.690  10.370 -0.7006  0.1212 -0.4427
13380SOL     OW52118  11.527  12.413   4.792  0.9355 -0.2775  0.0711
13380SOL    HW152119  11.446  12.459   4.814  1.9756  0.8766  1.6848
13380SOL    HW252120  11.501  12.320   4.790 -0.4520  0.0704  0.4370
13381SOL     OW52121   1.740   8.217   8.402 -0.3546  0.1496 -0.0309
13381SOL    HW152122   1.791   8.169   8.336  0.3062  1.2060 -0.3090
13381SOL    HW252123   1.794   8.214   8.481 -1.2870 -1.3900  0.6104
13382SOL     OW52124  10.671   6.487   1.954 -0.1012 -0.0872  0.0081
13382SOL    HW152125  10.633   6.423   1.893  0.5392 -1.5410  1.0730
13382SOL    HW252126  10.635   6.571   1.926 -0.2390 -0.7765 -2.0365
13383SOL     OW52127  11.076   3.810   0.301 -0.6613  0.5586 -0.5523
13383SOL    HW152128  10.985   3.830   0.321 -0.7999  0.4970 -1.0967
13383SOL    HW252129  11.116   3.789   0.385 -1.8775 -2.2975 -0.5583
13384SOL     OW52130  12.922   1.065  12.555 -0.0432  0.4037  0.2228
13384SOL    HW152131  12.947   1.083  12.464  1.3321 -0.2478  0.4409
13384SOL    HW252132  12.913   0.970  12.558 -0.7458  0.4786  0.6262
13385SOL     OW52133   0.316   2.082   9.565 -0.3853 -0.0111  0.4964
13385SOL    HW152134   0.333   2.000   9.519  2.4855  0.5910  0.3133
13385SOL    HW252135   0.291   2.143   9.496  2.5147  0.5202 -0.1950
13386SOL     OW52136  11.872   2.632  11.502 -0.0458 -0.5418  0.2917
13386SOL    HW152137  11.930   2.688  11.450 -0.0035 -0.2999  0.5954
13386SOL    HW252138  11.850   2.685  11.579 -0.8301 -0.5557  0.0866
13387SOL     OW52139  13.010   6.922   4.835  0.2514  0.1036  0.0309
13387SOL    HW152140  13.082   6.964   4.882  0.1635  0.0936  0.1768
13387SOL    HW252141  13.035   6.830   4.831  0.3349  0.1322 -0.0830
13388SOL     OW52142   4.899   2.615  11.067  0.0754  0.3208  0.1449
13388SOL    HW152143   4.826   2.553  11.063  0.8798 -0.6103 -2.0903
13388SOL    HW252144   4.867   2.688  11.120 -3.8262  1.5913 -3.4042
13389SOL     OW52145  11.197   0.279  10.524 -0.4753  0.2071  0.2336
13389SOL    HW152146  11.278   0.312  10.484 -0.2124 -1.0229 -0.2783
13389SOL    HW252147  11.219   0.267  10.616  0.5186 -1.8515 -0.2215
13390SOL     OW52148  13.915   5.767  12.607 -0.7005 -0.1623 -0.1067
13390SOL    HW152149  13.853   5.699  12.580  0.5221 -0.3756 -2.6971
13390SOL    HW252150  13.880   5.847  12.567  0.8683 -0.3871 -2.1417
13391SOL     OW52151   9.566   5.705   8.309 -0.0138 -0.6981 -0.1544
13391SOL    HW152152   9.554   5.797   8.329  0.7480 -0.7618  0.6899
13391SOL    HW252153   9.533   5.659   8.386  0.1693 -1.1022 -0.3125
13392SOL     OW52154   2.538   6.644   2.802  0.3417  0.0753  0.0426
13392SOL    HW152155   2.507   6.620   2.889  1.8244 -1.1827  0.2592
13392SOL    HW252156   2.483   6.719   2.777 -0.9675 -0.3496  1.5027
13393SOL     OW52157  11.098   7.038   4.324 -0.8252 -0.3370  0.5482
13393SOL    HW152158  11.094   6.947   4.354 -0.8586 -0.8132 -0.8114
13393SOL    HW252159  11.017   7.050   4.274 -0.5480  0.2658  0.2404
13394SOL     OW52160   3.825   0.179  11.941 -0.0785  0.5287 -0.8519
13394SOL    HW152161   3.886   0.239  11.985 -2.4593  2.3700  0.1407
13394SOL    HW252162   3.810   0.110  12.005  0.1160  0.6414 -0.6809
13395SOL     OW52163   4.218   9.416  13.500 -0.1359  0.1358 -0.0451
13395SOL    HW152164   4.229   9.321  13.513  0.2725  0.2150  0.2261
13395SOL    HW252165   4.291   9.455  13.549 -0.8568  0.6396  0.6483
13396SOL     OW52166  13.281   8.827  13.864  0.2141  0.1218 -0.6162
13396SOL    HW152167  13.328   8.898  13.908  0.1421  0.4056 -0.9904
13396SOL    HW252168  13.261   8.764  13.933 -0.7195  0.9936 -0.0741
13397SOL     OW52169   0.937   7.656  10.935  0.2716  0.2011 -0.0917
13397SOL    HW152170   0.876   7.607  10.991  0.9603 -0.9626 -0.3297
13397SOL    HW252171   0.902   7.643  10.847 -0.5064  1.5838 -0.0083
13398SOL     OW52172  10.786   0.561   4.172 -0.5701  0.0083  0.2742
13398SOL    HW152173  10.726   0.556   4.247 -0.9718  1.5448  0.0829
13398SOL    HW252174  10.791   0.654   4.151  0.1197 -0.3214 -1.1552
13399SOL     OW52175  11.657  10.480  11.468  0.0057  0.4626 -0.0630
13399SOL    HW152176  11.584  10.483  11.530 -1.1363  0.4931 -1.3591
13399SOL    HW252177  11.674  10.572  11.447 -0.2232  0.4175 -0.4648
13400SOL     OW52178   2.898   9.299   0.200  0.1909 -0.5760 -0.6326
13400SOL    HW152179   2.956   9.254   0.261 -0.2451 -1.3278 -0.7620
13400SOL    HW252180   2.953   9.367   0.160  0.2970  0.4773  1.1497
13401SOL     OW52181  10.411  11.373   7.874  0.4983 -0.0972 -0.3512
13401SOL    HW152182  10.424  11.440   7.807 -0.9190  0.2479 -0.3089
13401SOL    HW252183  10.456  11.407   7.951 -2.1355  1.9897  0.3937
13402SOL     OW52184   6.724   3.177  10.259  0.1377 -0.6283 -0.1453
13402SOL    HW152185   6.629   3.183  10.265  0.1840  0.2923 -0.2427
13402SOL    HW252186   6.755   3.205  10.345  0.3594  0.3178 -0.5246
13403SOL     OW52187   9.233   9.651   2.981 -0.0191 -0.4560 -0.0039
13403SOL    HW152188   9.307   9.711   2.980 -0.4537  0.1258 -2.3499
13403SOL    HW252189   9.273   9.565   3.000  1.0583  0.0493  0.1148
13404SOL     OW52190  10.754   4.784   4.483 -0.0109  0.7969 -0.0760
13404SOL    HW152191  10.752   4.848   4.413 -0.1740  1.8402  0.8609
13404SOL    HW252192  10.706   4.708   4.448  0.0354  1.2397 -1.1237
13405SOL     OW52193   3.294   7.995  13.184 -0.3685 -0.6456  0.2960
13405SOL    HW152194   3.279   7.992  13.090  1.0965  0.7819 -0.0387
13405SOL    HW252195   3.207   8.006  13.223 -0.8386  0.3870 -1.0013
13406SOL     OW52196   5.689  11.202   0.672 -0.0639 -0.3562  0.4980
13406SOL    HW152197   5.735  11.124   0.643  0.5892 -0.0199  0.6051
13406SOL    HW252198   5.617  11.213   0.609  1.1780  0.2224 -0.8869
13407SOL     OW52199   3.824   9.840   7.326  0.5041 -0.5613  0.5045
13407SOL    HW152200   3.733   9.871   7.322  0.6745 -0.1576 -0.8751
13407SOL    HW252201   3.873   9.917   7.356  0.5901 -0.2343 -0.4208
13408SOL     OW52202   6.185   1.021   0.286  0.3056  0.0758 -0.2486
13408SOL    HW152203   6.117   1.063   0.339 -0.7984 -1.4840 -0.3537
13408SOL    HW252204   6.266   1.034   0.336 -0.2674  0.8864  0.5078
13409SOL     OW52205  13.165   9.108   0.071 -0.0813 -0.0191  0.1394
13409SOL    HW152206  13.110   9.069   0.003  1.0351 -1.0130 -0.2276
13409SOL    HW252207  13.226   9.164   0.023  0.0863  0.0354  0.4144
13410SOL     OW52208   6.793   7.358   9.281 -0.4312  0.1269 -0.2055
13410SOL    HW152209   6.766   7.273   9.315 -1.6497  1.1617  1.5889
13410SOL    HW252210   6.712   7.409   9.279  0.4802  1.6420  0.0077
13411SOL     OW52211   4.480   9.905   0.928  0.4649 -0.4245 -0.4432
13411SOL    HW152212   4.491   9.930   0.836 -0.8740 -1.0938 -0.8199
13411SOL    HW252213   4.512   9.980   0.978 -0.2199  0.5936 -1.4838
13412SOL     OW52214   9.308  12.273   9.541  0.2256  0.5901  0.3700
13412SOL    HW152215   9.389  12.321   9.558  0.7351  0.0978 -0.6046
13412SOL    HW252216   9.320  12.235   9.454 -1.9414  2.3455 -0.8060
13413SOL     OW52217  12.016   0.808   8.525  0.4783  0.6784 -0.5766
13413SOL    HW152218  12.049   0.877   8.583  2.7911  0.9460 -2.0637
13413SOL    HW252219  12.094   0.757   8.503 -0.8165 -1.0882 -1.2727
13414SOL     OW52220   0.280   7.070  10.714  0.4720  0.3670 -0.3086
13414SOL    HW152221   0.358   7.074  10.770 -0.0826  2.7641  0.4138
13414SOL    HW252222   0.208   7.097  10.772 -0.4841  0.7471 -1.6278
13415SOL     OW52223   9.424   0.711   8.856 -0.0692  0.5291  0.1315
13415SOL    HW152224   9.339   0.709   8.902 -0.0307  2.8763  0.4622
13415SOL    HW252225   9.421   0.637   8.796 -2.2449  0.3938  0.3270
13416SOL     OW52226   5.015   7.457  11.902  0.0273  0.4722  0.8402
13416SOL    HW152227   5.044   7.471  11.992 -1.8176 -0.0419  1.5523
13416SOL    HW252228   4.953   7.527  11.884 -0.9928 -0.4415  0.6332
13417SOL     OW52229   3.631   9.292  12.407 -0.0329 -0.4341 -0.5567
13417SOL    HW152230   3.581   9.238  12.468  1.6630  0.6994  1.9731
13417SOL    HW252231   3.564   9.339  12.357 -1.6796  1.3574  2.9703
13418SOL     OW52232  12.621  13.820   9.130 -0.1758 -0.0023  0.0986
13418SOL    HW152233  12.526  13.825   9.126 -0.2343  0.1690  1.2639
13418SOL    HW252234  12.644  13.863   9.213  1.1446  2.8550 -1.6134
13419SOL     OW52235   9.375   1.442   7.835  0.2524 -0.0722 -0.8767
13419SOL    HW152236   9.450   1.432   7.776  0.8462 -0.4332 -0.0669
13419SOL    HW252237   9.360   1.355   7.870  0.5318  0.3156  0.2524
13420SOL     OW52238  13.324  14.028   8.455 -0.5991  0.0962  0.5989
13420SOL    HW152239  13.262  13.982   8.511 -0.6810  0.2064  0.6008
13420SOL    HW252240  13.329  13.975   8.375  0.0958 -0.4633  1.0068
13421SOL     OW52241   1.248   6.258   7.716 -0.2894 -0.4086  0.5377
13421SOL    HW152242   1.313   6.189   7.699 -0.8540 -0.6353 -0.8529
13421SOL    HW252243   1.295   6.340   7.700 -0.7670 -0.6046 -2.3968
13422SOL     OW52244   4.603   2.960   0.831  0.5898  0.6797 -0.0791
13422SOL    HW152245   4.588   2.973   0.924  1.4102  1.8629 -0.0947
13422SOL    HW252246   4.535   2.897   0.804  1.2484 -0.7998  1.5821
13423SOL     OW52247   4.935   9.287   1.377  1.2503 -0.8888 -0.2197
13423SOL    HW152248   4.842   9.264   1.375  1.3931 -1.4515 -0.3793
13423SOL    HW252249   4.981   9.204   1.375  1.7615 -0.6185  0.0733
13424SOL     OW52250  10.443  13.850  13.884 -0.7091 -0.4293 -0.3023
13424SOL    HW152251  10.485  13.932  13.910 -0.6047 -0.2566 -0.9920
13424SOL    HW252252  10.362  13.847  13.935  1.6009 -2.4423  3.7876
13425SOL     OW52253   6.924   9.889   3.594 -0.4970 -0.3669 -0.0967
13425SOL    HW152254   6.903   9.850   3.509  2.7487 -0.4100 -1.0043
13425SOL    HW252255   6.976   9.823   3.639 -0.1187  0.5746  0.8950
13426SOL     OW52256   0.694   3.060   2.464 -0.1549 -0.1613 -0.0906
13426SOL    HW152257   0.661   3.141   2.505 -0.7795  0.2660 -1.3841
13426SOL    HW252258   0.755   3.090   2.397 -0.5869 -0.7544 -0.7551
13427SOL     OW52259   3.563  11.051   0.449 -0.0758 -0.4515 -0.1443
13427SOL    HW152260   3.608  10.982   0.401 -0.1781 -0.0712 -0.8078
13427SOL    HW252261   3.628  11.085   0.510  0.6255  0.2210 -1.2190
13428SOL     OW52262   3.120   4.446   5.970  0.1495  0.1036 -0.4034
13428SOL    HW152263   3.047   4.490   6.013 -0.1633 -0.3389 -0.4677
13428SOL    HW252264   3.081   4.406   5.892  0.5696  0.3091 -0.7218
13429SOL     OW52265   5.778   6.840   1.047 -0.3359 -0.2189 -0.0347
13429SOL    HW152266   5.749   6.796   0.967  0.1280 -0.3480 -0.1327
13429SOL    HW252267   5.704   6.895   1.072 -0.4971 -0.2079 -0.5325
13430SOL     OW52268   1.889  11.829  12.104 -0.1514 -0.3659 -0.0527
13430SOL    HW152269   1.897  11.816  12.010 -0.1322 -0.1092 -0.0867
13430SOL    HW252270   1.885  11.740  12.140 -0.4515 -0.4633 -0.3188
13431SOL     OW52271   2.184  11.015   2.520  0.1704  0.0276  0.4173
13431SOL    HW152272   2.196  10.935   2.470 -0.7410  1.3438 -2.0718
13431SOL    HW252273   2.097  11.006   2.560  2.3886 -2.8010  5.5359
13432SOL     OW52274  13.084   7.015   2.812  0.2991 -0.6934  0.2892
13432SOL    HW152275  13.111   7.067   2.887  0.5512 -0.0458 -0.2396
13432SOL    HW252276  13.115   7.064   2.736 -1.1262 -0.6342 -0.2890
13433SOL     OW52277   4.179   5.652   1.288  0.1392  0.0163 -0.1089
13433SOL    HW152278   4.234   5.574   1.286 -0.1424 -0.2017 -2.6487
13433SOL    HW252279   4.228   5.714   1.342  1.4406 -1.1716  0.1392
13434SOL     OW52280   2.173  12.124  13.126 -0.3707  0.7463  0.5168
13434SOL    HW152281   2.261  12.088  13.129 -1.3897 -2.0569  0.0459
13434SOL    HW252282   2.130  12.089  13.204 -1.3759  1.1482  0.1554
13435SOL     OW52283  11.639  11.292  11.926 -0.0654  0.2406 -0.1148
13435SOL    HW152284  11.590  11.373  11.916 -0.3950  0.1272  0.4955
13435SOL    HW252285  11.728  11.313  11.896 -0.6077  0.2882 -1.7585
13436SOL     OW52286   3.282   4.105  11.985  0.3629 -0.0898  0.0583
13436SOL    HW152287   3.293   4.029  12.044 -0.3470 -0.6554 -0.5238
13436SOL    HW252288   3.365   4.110  11.938  0.6692 -0.0781  0.5845
13437SOL     OW52289   2.593  12.249  11.976 -0.1182  0.0400 -0.1805
13437SOL    HW152290   2.628  12.337  11.961  2.2570 -1.3109 -3.9087
13437SOL    HW252291   2.638  12.218  12.055  1.0165  1.2264 -0.3372
13438SOL     OW52292   4.350  13.927  11.292 -0.3279 -0.4566  0.3156
13438SOL    HW152293   4.333  13.910  11.199 -1.4655  1.0612  0.2240
13438SOL    HW252294   4.427  13.873  11.312 -0.5822 -1.4772 -1.2752
13439SOL     OW52295   0.535  14.007   1.951 -0.3833 -0.6630 -0.7826
13439SOL    HW152296   0.622  14.034   1.980 -0.5913 -1.0058  0.2111
13439SOL    HW252297   0.545  13.915   1.927 -0.5091 -0.7608 -0.4681
13440SOL     OW52298   8.125   8.747  13.871 -0.1033  0.7530 -0.4177
13440SOL    HW152299   8.206   8.795  13.887 -1.1469  2.1855  0.8844
13440SOL    HW252300   8.058   8.815  13.865 -1.5257 -0.4832  0.6814
13441SOL     OW52301   3.113   1.177   2.581  0.1808 -0.1796 -0.0081
13441SOL    HW152302   3.180   1.195   2.648 -0.2108 -0.6120  0.5084
13441SOL    HW252303   3.053   1.115   2.623  0.7890 -1.7133 -1.2833
13442SOL     OW52304   8.746  13.044   0.462  0.8175  0.1909 -0.8373
13442SOL    HW152305   8.759  13.134   0.432  1.7258  0.4934  0.3680
13442SOL    HW252306   8.661  13.045   0.505  0.9589  0.5551 -0.5603
13443SOL     OW52307   2.830   7.200   7.567  0.2774 -0.4016 -0.1171
13443SOL    HW152308   2.766   7.131   7.551 -1.1367  0.6751  0.6918
13443SOL    HW252309   2.865   7.221   7.480 -2.1575  0.5578 -0.9522
13444SOL     OW52310   3.454   2.056  10.619  0.2392 -0.2293 -0.0534
13444SOL    HW152311   3.387   1.988  10.614  1.2810 -1.2062 -1.8444
13444SOL    HW252312   3.470   2.080  10.527  0.9205  1.4346  0.4554
13445SOL     OW52313   2.052   1.508   3.711 -0.3544  0.2061 -0.5288
13445SOL    HW152314   2.100   1.426   3.720  0.1678  0.6066  0.5144
13445SOL    HW252315   2.059   1.550   3.797 -1.1926  1.0307 -0.8387
13446SOL     OW52316  12.069   1.723   9.388  0.4517  0.4010  0.4679
13446SOL    HW152317  12.120   1.677   9.455  0.6515  1.0005  0.7301
13446SOL    HW252318  12.124   1.719   9.310 -1.1098 -3.1132 -0.6340
13447SOL     OW52319   0.649   4.215   0.596 -0.1696  0.6935  0.1521
13447SOL    HW152320   0.685   4.127   0.607 -1.1018 -0.0751 -2.3025
13447SOL    HW252321   0.724   4.269   0.574  0.3336  0.4180  1.1457
13448SOL     OW52322   1.937   6.629  13.068  0.5103 -0.0618 -0.3145
13448SOL    HW152323   2.021   6.594  13.099  1.6282  2.2381 -0.5937
13448SOL    HW252324   1.954   6.655  12.978 -0.6544  0.0002 -0.5240
13449SOL     OW52325  13.300   6.144   9.720  0.2937  0.2896 -0.1875
13449SOL    HW152326  13.309   6.085   9.794 -1.7330 -0.2779 -0.3369
13449SOL    HW252327  13.347   6.101   9.649 -0.7250 -0.9212 -0.1568
13450SOL     OW52328  12.892  11.083   0.033 -0.4006  0.4796 -0.3381
13450SOL    HW152329  12.851  11.157   0.078  1.9123  0.8863  1.2310
13450SOL    HW252330  12.844  11.006   0.065 -1.2538  1.0751 -0.1435
13451SOL     OW52331   5.051  10.012   1.072 -0.2837  0.0866  0.2097
13451SOL    HW152332   5.098  10.088   1.038  1.4166 -0.7016  0.7157
13451SOL    HW252333   5.120   9.951   1.098 -1.6040 -1.1432  0.9229
13452SOL     OW52334   0.726   8.081   3.173  0.0078 -0.1367 -0.2621
13452SOL    HW152335   0.767   8.084   3.260  1.8473 -1.8915 -0.9898
13452SOL    HW252336   0.753   8.163   3.131 -1.2897  0.9562  0.9194
13453SOL     OW52337   4.563   2.042   7.220 -0.0586 -0.3606  0.0272
13453SOL    HW152338   4.564   2.137   7.227  2.4680 -0.3136 -0.0688
13453SOL    HW252339   4.538   2.025   7.129 -0.2799  0.1897 -0.0205
13454SOL     OW52340  12.074   1.558   7.694  0.0832 -0.3386 -0.2650
13454SOL    HW152341  11.991   1.604   7.681  0.2530  0.2629  0.6845
13454SOL    HW252342  12.059   1.470   7.658 -1.2391 -0.5039  0.6366
13455SOL     OW52343  11.492   0.472   8.016  0.4707 -0.9180  0.1558
13455SOL    HW152344  11.424   0.415   8.052 -2.0090  2.2109  0.8825
13455SOL    HW252345  11.536   0.508   8.093  0.6115 -0.3288 -0.1920
13456SOL     OW52346   1.894   7.565   7.128  0.3397  0.6989 -0.0120
13456SOL    HW152347   1.977   7.571   7.080 -0.2810  0.2216 -1.1884
13456SOL    HW252348   1.920   7.549   7.219  1.5241 -0.0224 -0.4557
13457SOL     OW52349  13.111   6.692  13.972 -0.2303 -0.9113 -0.1960
13457SOL    HW152350  13.199   6.657  13.963 -0.4238 -1.3784 -0.3562
13457SOL    HW252351  13.062   6.622  14.016 -0.1287 -0.0132  1.4368
13458SOL     OW52352   9.239   2.163   7.775  0.0992  0.0710 -0.1196
13458SOL    HW152353   9.167   2.110   7.740  0.0835 -0.6400  0.9582
13458SOL    HW252354   9.226   2.249   7.735 -1.2228 -0.0994 -0.1195
13459SOL     OW52355   1.692   4.843   0.755  0.1973 -0.3746 -0.1185
13459SOL    HW152356   1.676   4.902   0.828  1.1273 -0.7150  0.3739
13459SOL    HW252357   1.650   4.886   0.680  2.3954  1.8458 -0.1941
13460SOL     OW52358   4.302  12.707   0.883 -0.0155  0.1130 -0.3530
13460SOL    HW152359   4.292  12.772   0.952  0.2657 -1.9146  1.7484
13460SOL    HW252360   4.397  12.694   0.877 -0.0985 -0.8659  0.1100
13461SOL     OW52361   0.188  11.452  11.459 -0.1523 -0.6390 -0.6635
13461SOL    HW152362   0.118  11.514  11.477 -0.7197 -1.6024  0.6136
13461SOL    HW252363   0.144  11.375  11.424  0.4637 -0.6340 -1.4816
13462SOL     OW52364   3.396   4.009   9.460  0.0516  0.0472  0.3955
13462SOL    HW152365   3.304   4.037   9.462 -0.9669 -2.9732  1.0967
13462SOL    HW252366   3.410   3.979   9.371 -0.4393 -1.6971  0.8716
13463SOL     OW52367   5.092  12.292   3.372 -0.1372 -0.0597 -0.4351
13463SOL    HW152368   5.041  12.320   3.296  0.1794  1.0415 -0.2639
13463SOL    HW252369   5.179  12.329   3.358 -0.1818  0.5105  0.6388
13464SOL     OW52370  12.157  12.371  13.150  0.2228  0.5244  0.2611
13464SOL    HW152371  12.197  12.446  13.194 -1.4526  1.5667  0.0761
13464SOL    HW252372  12.211  12.297  13.177  2.2502  1.8205  0.0502
13465SOL     OW52373   9.485   9.341   1.557  0.0293 -0.1688 -0.2924
13465SOL    HW152374   9.526   9.254   1.564 -1.6602 -1.1761 -1.9344
13465SOL    HW252375   9.519   9.376   1.475  0.3384  0.5331  0.1327
13466SOL     OW52376  12.922   5.513   8.117  0.2037 -0.7033 -0.2391
13466SOL    HW152377  12.977   5.437   8.136 -0.4099 -1.2937 -0.7721
13466SOL    HW252378  12.977   5.588   8.140  1.0239 -1.2877 -0.2271
13467SOL     OW52379   8.146   4.075   0.204 -0.1774 -0.0183  0.4556
13467SOL    HW152380   8.155   4.034   0.119  3.8923  0.5739  0.4003
13467SOL    HW252381   8.090   4.151   0.188 -0.2879 -0.4520 -1.4554
13468SOL     OW52382  11.756   1.920   6.557 -0.2157  0.3315  0.5934
13468SOL    HW152383  11.708   1.999   6.531  2.4236  1.8059 -0.2755
13468SOL    HW252384  11.745   1.915   6.652 -2.8302 -0.0388  0.3482
13469SOL     OW52385   2.549  11.352   1.539 -0.6123 -0.1672  0.1138
13469SOL    HW152386   2.529  11.377   1.630 -1.9113  2.3388 -0.7663
13469SOL    HW252387   2.641  11.375   1.528 -0.8677  1.0482  0.3693
13470SOL     OW52388   9.228   9.210   1.060 -0.2373  0.1943  0.2825
13470SOL    HW152389   9.307   9.263   1.054 -0.2363  0.1243 -0.3105
13470SOL    HW252390   9.161   9.260   1.013  0.0051 -0.7749 -1.1282
13471SOL     OW52391   3.662  13.586   8.055  0.5309  0.5096  0.1433
13471SOL    HW152392   3.594  13.641   8.092  0.1760  1.2480 -1.5145
13471SOL    HW252393   3.698  13.637   7.982  0.6539 -1.1588 -1.0381
13472SOL     OW52394  12.882   4.849  13.096  0.1673  0.0231 -0.0806
13472SOL    HW152395  12.941   4.810  13.161 -0.0034 -1.6516 -0.8582
13472SOL    HW252396  12.940   4.874  13.024 -0.0171 -1.9303 -0.9890
13473SOL     OW52397   1.906   0.172  10.812  0.0175  0.5783  0.1224
13473SOL    HW152398   1.925   0.209  10.898  0.8983 -0.7565  0.5355
13473SOL    HW252399   1.918   0.078  10.823 -0.1366  0.3500 -1.3937
13474SOL     OW52400   7.391   9.578   9.020  0.1065 -0.2397 -0.3120
13474SOL    HW152401   7.464   9.619   8.973  0.3454 -0.8279 -0.4757
13474SOL    HW252402   7.359   9.645   9.080  0.6688  0.0840 -0.3697
13475SOL     OW52403   4.876   1.798   6.348  0.1506  0.2759  0.1989
13475SOL    HW152404   4.895   1.885   6.382  1.6955 -0.0745  0.3144
13475SOL    HW252405   4.816   1.759   6.411  3.2689 -0.5418  2.9266
13476SOL     OW52406   1.069   9.167  11.653  0.4749 -0.4171 -0.5671
13476SOL    HW152407   1.021   9.227  11.709 -0.1913 -0.2371 -1.3068
13476SOL    HW252408   1.153   9.210  11.639  0.0389  0.3182 -1.0148
13477SOL     OW52409   2.551   0.800  12.289  0.2247 -0.1958 -0.6697
13477SOL    HW152410   2.563   0.753  12.207 -0.6805 -1.1806 -0.2476
13477SOL    HW252411   2.536   0.891  12.263  2.0999 -0.0686 -1.4841
13478SOL     OW52412   5.161   6.113   4.952  0.2515 -0.7471 -0.2490
13478SOL    HW152413   5.137   6.166   5.028 -0.5315 -0.3464 -0.7597
13478SOL    HW252414   5.256   6.115   4.950  0.4033 -2.2179  1.7405
13479SOL     OW52415   6.902   7.290   2.565 -0.5858  0.3000  0.4892
13479SOL    HW152416   6.879   7.212   2.514 -0.3078  2.1305 -2.7247
13479SOL    HW252417   6.825   7.346   2.557 -0.0907  1.0796  1.1807
13480SOL     OW52418  13.022   6.983   0.233  0.0631  0.2053  0.1255
13480SOL    HW152419  13.022   6.896   0.273 -1.3534  0.2960  0.3949
13480SOL    HW252420  13.105   6.988   0.185 -0.6274 -2.0440 -1.4972
13481SOL     OW52421   9.531   4.947  10.115  0.1488  0.5810 -0.4852
13481SOL    HW152422   9.601   4.963  10.051  0.4426 -2.1312 -0.9374
13481SOL    HW252423   9.576   4.945  10.199  0.1596  1.5100 -0.4516
13482SOL     OW52424   9.049  12.261   6.221 -0.4286  0.8140  0.0979
13482SOL    HW152425   9.080  12.263   6.311 -1.6524  5.1604  0.6613
13482SOL    HW252426   9.127  12.279   6.168 -0.4340  3.6153  0.8630
13483SOL     OW52427   4.870  11.697   8.658  0.2514 -0.1329 -0.2113
13483SOL    HW152428   4.910  11.611   8.669 -2.0999 -1.1645  0.9325
13483SOL    HW252429   4.930  11.757   8.702  0.6641 -1.5551  1.2642
13484SOL     OW52430   2.310   5.035   2.428 -0.6859 -0.0078  0.0650
13484SOL    HW152431   2.389   4.981   2.423  0.0801  1.1123 -0.3747
13484SOL    HW252432   2.243   4.982   2.386  0.3337 -0.1676 -1.4912
13485SOL     OW52433   2.523   5.230   3.253  0.4245  0.9292  0.4181
13485SOL    HW152434   2.459   5.210   3.184  2.5961 -2.8773 -0.7852
13485SOL    HW252435   2.582   5.294   3.213 -0.7888  2.1044  0.4364
13486SOL     OW52436   7.758   0.217  10.973  0.4679  0.1741 -0.8010
13486SOL    HW152437   7.814   0.292  10.992  0.3189 -0.1365  1.0984
13486SOL    HW252438   7.735   0.182  11.060 -2.2943  0.0179 -1.5080
13487SOL     OW52439  12.539   4.904   1.054  0.4534 -0.3277  0.4035
13487SOL    HW152440  12.576   4.816   1.045  0.0926 -0.5332  0.8860
13487SOL    HW252441  12.445   4.892   1.044  0.3252 -0.1211  1.2537
13488SOL     OW52442   2.629   5.750  13.662 -0.2100  0.3408  0.2013
13488SOL    HW152443   2.599   5.840  13.650  0.8447  0.8210  0.9906
13488SOL    HW252444   2.588   5.720  13.743  0.5723  0.6417  0.7269
13489SOL     OW52445   5.167   9.305   0.093  0.3735  0.1071 -0.2941
13489SOL    HW152446   5.183   9.349   0.177  1.8180 -0.9304  0.0225
13489SOL    HW252447   5.237   9.239   0.088 -2.1235 -2.7499 -0.3148
13490SOL     OW52448   0.890   7.172  11.242  0.2081  0.1535  0.2576
13490SOL    HW152449   0.924   7.180  11.153  0.9470 -0.9786  0.4154
13490SOL    HW252450   0.873   7.078  11.253 -0.5914  0.3715  1.0582
13491SOL     OW52451   6.725   7.511  11.789  0.1329 -0.1591 -0.4424
13491SOL    HW152452   6.739   7.514  11.884  1.0392  0.0418 -0.5789
13491SOL    HW252453   6.633   7.537  11.778  0.1977  0.4312  0.3321
13492SOL     OW52454   5.113   0.735   0.646  0.3906 -0.1363 -0.1337
13492SOL    HW152455   5.074   0.654   0.680  0.3599 -0.8450 -1.7496
13492SOL    HW252456   5.187   0.752   0.704 -0.3206 -0.6331  0.9626
13493SOL     OW52457  10.048   0.656   1.235 -0.2199 -0.2991  0.1636
13493SOL    HW152458  10.069   0.677   1.144  0.8589  0.4624  0.5694
13493SOL    HW252459   9.952   0.653   1.237 -0.2425 -1.5482 -1.2446
13494SOL     OW52460   2.959   5.276   8.629  0.5806  0.2209 -0.1753
13494SOL    HW152461   2.977   5.183   8.614 -1.5176 -0.7729  2.4755
13494SOL    HW252462   2.878   5.293   8.581 -0.3758 -0.0928  1.2299
13495SOL     OW52463   9.824  10.659  11.014 -0.2176  0.2648  0.3601
13495SOL    HW152464   9.850  10.573  11.047  1.3172  1.5226  2.6928
13495SOL    HW252465   9.766  10.694  11.082  0.3466  1.6265  0.1701
13496SOL     OW52466  11.281   3.723  12.127  0.0491 -0.4711  0.1867
13496SOL    HW152467  11.232   3.707  12.208 -1.3658 -4.3559 -1.2098
13496SOL    HW252468  11.224   3.782  12.076 -1.6765 -2.2082 -0.0172
13497SOL     OW52469   6.225   2.394   4.548  0.1140 -0.1543  0.0008
13497SOL    HW152470   6.253   2.466   4.605 -0.6896 -1.8455  2.7270
13497SOL    HW252471   6.305   2.369   4.502  1.4909 -0.2879  2.2878
13498SOL     OW52472   5.813  13.969  11.416  0.3714 -0.1096  0.5984
13498SOL    HW152473   5.721  13.949  11.435 -0.0263 -1.1747 -1.9276
13498SOL    HW252474   5.857  13.884  11.422  0.8637  0.1220  0.3001
13499SOL     OW52475   0.139   6.530   0.590  0.0522  0.2813 -0.0719
13499SOL    HW152476   0.075   6.496   0.653 -0.2243 -0.7767 -0.8829
13499SOL    HW252477   0.101   6.509   0.504  0.2977  1.9243 -0.6115
13500SOL     OW52478   1.795  13.730   7.529  0.8129  0.6962 -0.0294
13500SOL    HW152479   1.794  13.687   7.614  1.7262  1.8931  0.6153
13500SOL    HW252480   1.770  13.662   7.467 -0.6827 -0.0000  1.2732
13501SOL     OW52481   0.525   2.613  11.341  1.1228 -0.4663  0.1182
13501SOL    HW152482   0.519   2.673  11.266  0.0068 -1.5866 -0.7352
13501SOL    HW252483   0.528   2.526  11.301  0.2850 -1.0947  1.3672
13502SOL     OW52484   4.492   9.484   4.648  0.1627 -0.4663  0.3187
13502SOL    HW152485   4.586   9.467   4.645  0.2897  0.3682 -0.9795
13502SOL    HW252486   4.461   9.465   4.560 -0.8724 -0.5792  0.6889
13503SOL     OW52487   7.250  12.995   0.124 -0.0473  0.0391 -0.0970
13503SOL    HW152488   7.275  12.916   0.076  1.3559  0.2137  0.3103
13503SOL    HW252489   7.215  13.054   0.057  1.3658  0.0725 -0.8374
13504SOL     OW52490   2.448   5.658   9.091  0.3716  0.7480  0.4322
13504SOL    HW152491   2.449   5.637   8.998  2.9304  0.5128  0.4454
13504SOL    HW252492   2.355   5.660   9.114 -0.2614 -2.1746 -1.4265
13505SOL     OW52493   4.862   8.117   8.534 -0.1234 -0.1498  0.4348
13505SOL    HW152494   4.816   8.038   8.564  0.9199 -0.4668  1.2673
13505SOL    HW252495   4.806   8.153   8.465 -1.8983 -0.2168  1.7554
13506SOL     OW52496  12.412  13.937  11.853 -0.1142  0.3405  0.0877
13506SOL    HW152497  12.454  13.906  11.772  0.0155 -0.8134  0.5679
13506SOL    HW252498  12.482  13.981  11.901 -0.4619  2.0953 -0.9134
13507SOL     OW52499   8.533   6.619   0.998  0.1400 -0.0155  0.2338
13507SOL    HW152500   8.439   6.628   0.984  0.4123 -0.0724 -2.0546
13507SOL    HW252501   8.564   6.708   1.014 -0.3737 -0.0798  1.6779
13508SOL     OW52502   9.824   9.803   9.585  0.6196  0.0242  0.9234
13508SOL    HW152503   9.873   9.728   9.551  0.2160  0.1672 -0.0075
13508SOL    HW252504   9.773   9.767   9.657  0.4686 -0.5922  0.5201
13509SOL     OW52505   4.972  11.276   3.952 -0.2538 -0.2465  0.1309
13509SOL    HW152506   4.884  11.243   3.967  0.0505  0.0382  3.1570
13509SOL    HW252507   5.026  11.232   4.018  1.3270  1.6321  0.1906
13510SOL     OW52508   4.638  12.100   2.094 -0.5102  0.4355  0.4873
13510SOL    HW152509   4.582  12.174   2.071 -0.7583 -0.0736 -0.6056
13510SOL    HW252510   4.578  12.027   2.107 -0.0954 -0.4344 -1.9276
13511SOL     OW52511   2.098   1.955  12.945 -1.1406 -0.3627 -0.0505
13511SOL    HW152512   2.105   1.869  12.986 -0.0389 -0.2994 -0.0612
13511SOL    HW252513   2.129   1.942  12.856 -0.8769  0.0605 -0.0250
13512SOL     OW52514   2.596  11.049   0.333 -0.3750  0.6825  0.2661
13512SOL    HW152515   2.603  11.087   0.245  0.8472  2.9689  1.2598
13512SOL    HW252516   2.567  11.122   0.388 -0.3463 -0.4959  1.8956
13513SOL     OW52517   3.768   2.483   5.066 -0.1395 -0.1518 -0.0662
13513SOL    HW152518   3.860   2.501   5.047 -0.1592  0.0021 -0.0188
13513SOL    HW252519   3.768   2.394   5.101 -0.0299 -0.2159 -0.2234
13514SOL     OW52520  12.917  12.072   0.099  0.2030 -0.6386 -0.2958
13514SOL    HW152521  12.986  12.025   0.051 -0.2910 -0.1932 -1.4735
13514SOL    HW252522  12.959  12.153   0.128  0.6989 -1.2126  0.6516
13515SOL     OW52523  11.303   0.808  12.468  0.0226 -0.5040  0.1042
13515SOL    HW152524  11.306   0.878  12.533 -0.0299 -1.8321  1.6041
13515SOL    HW252525  11.215   0.770  12.479  0.1162 -0.9247 -0.5587
13516SOL     OW52526   4.198   6.375   2.816 -0.2930 -0.4758 -0.1315
13516SOL    HW152527   4.121   6.326   2.846 -0.9224 -1.0133 -2.3895
13516SOL    HW252528   4.254   6.381   2.893 -2.5639 -0.0774  1.6030
13517SOL     OW52529   8.101   6.215   4.544 -0.1353 -0.1756  0.1226
13517SOL    HW152530   8.057   6.150   4.599 -2.0896  0.3646 -0.7080
13517SOL    HW252531   8.107   6.293   4.599  1.7397 -0.8589  0.9432
13518SOL     OW52532   1.127   9.369  11.035  0.3864 -0.0990  0.4399
13518SOL    HW152533   1.064   9.413  11.093  2.8827  3.0751  1.0216
13518SOL    HW252534   1.126   9.422  10.955 -0.5348 -2.4274 -1.1882
13519SOL     OW52535  11.990  12.020   7.463  0.6369  0.4320 -0.8549
13519SOL    HW152536  12.050  12.018   7.537 -1.6368 -0.8478  1.0702
13519SOL    HW252537  12.000  11.934   7.422  0.3416  0.3430 -0.7373
13520SOL     OW52538   9.382  13.816  11.580 -0.1182 -0.1566 -0.1215
13520SOL    HW152539   9.318  13.886  11.573 -0.5522 -0.4154  0.9868
13520SOL    HW252540   9.441  13.843  11.650  0.2870 -0.4542 -0.3400
13521SOL     OW52541   3.213   3.989   2.304 -0.0950  0.4392  0.0806
13521SOL    HW152542   3.295   4.037   2.303  1.0747 -1.4417 -1.4567
13521SOL    HW252543   3.180   3.995   2.215 -0.5611 -0.5183  0.1699
13522SOL     OW52544   2.215   4.419  12.096  0.3664  0.3258  0.0281
13522SOL    HW152545   2.184   4.485  12.033 -1.2917  0.9014  1.3481
13522SOL    HW252546   2.234   4.469  12.176  0.6219 -0.5936  0.5639
13523SOL     OW52547   1.504   8.094  11.900 -0.1909  0.1693 -0.2488
13523SOL    HW152548   1.490   8.028  11.832  2.1537 -0.4846 -0.1879
13523SOL    HW252549   1.466   8.055  11.979 -1.5217  0.2537 -0.8199
13524SOL     OW52550   3.152   0.486   3.156  0.2713 -0.4552 -0.2135
13524SOL    HW152551   3.146   0.446   3.069 -0.8009 -0.4724 -0.1408
13524SOL    HW252552   3.194   0.419   3.210 -0.1957 -0.9279 -0.4301
13525SOL     OW52553   5.863   7.116   7.017  0.2505 -0.6371 -0.4825
13525SOL    HW152554   5.864   7.087   6.926  0.6578  0.7475 -0.9417
13525SOL    HW252555   5.877   7.211   7.012  2.2051 -0.7756  1.0958
13526SOL     OW52556   4.684   0.966   1.168 -0.5178  1.0193 -0.0063
13526SOL    HW152557   4.679   0.943   1.075 -0.0117  0.5896  0.0681
13526SOL    HW252558   4.768   1.011   1.177  1.3763 -2.4066  0.9434
13527SOL     OW52559   4.774   4.772  12.696  0.0668 -0.2894 -0.3794
13527SOL    HW152560   4.691   4.729  12.713  0.0006 -0.9855 -2.2676
13527SOL    HW252561   4.836   4.729  12.755 -0.8487  0.1441  0.9492
13528SOL     OW52562   7.661   4.465   1.465  0.0071 -0.3040 -0.0891
13528SOL    HW152563   7.674   4.377   1.428  0.5779 -0.1609 -0.2356
13528SOL    HW252564   7.593   4.453   1.532  1.4225 -1.2446  1.2506
13529SOL     OW52565   0.280  11.481  11.100 -0.5071 -0.1196 -0.0073
13529SOL    HW152566   0.211  11.516  11.157 -0.1240 -0.1638  0.4922
13529SOL    HW252567   0.297  11.552  11.038 -0.9990 -0.1085 -0.1320
13530SOL     OW52568   1.174   0.043   8.150 -0.4197  0.1294  0.0533
13530SOL    HW152569   1.123   0.012   8.075  1.3805  0.4124 -1.3436
13530SOL    HW252570   1.243  -0.022   8.161  0.5067  1.1038  0.1938
13531SOL     OW52571  12.225   0.996   4.169  0.3888  0.2348  0.4711
13531SOL    HW152572  12.305   0.947   4.188  1.4976  2.7992  3.2195
13531SOL    HW252573  12.231   1.015   4.076  1.7510 -1.5982  0.1090
13532SOL     OW52574  10.123  12.088   9.995 -0.0249  0.0244 -0.8071
13532SOL    HW152575  10.135  12.070   9.902  0.9449  2.4343 -1.2479
13532SOL    HW252576  10.052  12.152   9.998  0.1655  0.2123  0.0530
13533SOL     OW52577  12.310   3.942   8.896 -0.1479  0.4823  0.3207
13533SOL    HW152578  12.271   3.896   8.822 -0.5702 -0.2096  0.9597
13533SOL    HW252579  12.237   3.960   8.955  0.1649  1.1321  0.5148
13534SOL     OW52580   9.696  13.215  13.531 -0.3934 -0.3417 -0.4570
13534SOL    HW152581   9.750  13.290  13.555 -0.7760  0.1186 -1.0075
13534SOL    HW252582   9.682  13.168  13.613  0.1116  0.0133 -0.1604
13535SOL     OW52583   0.159   7.200   2.226 -0.0145  0.5879 -0.9208
13535SOL    HW152584   0.187   7.118   2.185 -3.6252 -0.7514 -0.9927
13535SOL    HW252585   0.136   7.257   2.153  1.4689  1.3532 -0.8364
13536SOL     OW52586   3.939   6.370  10.119  0.2228  0.7464  0.3041
13536SOL    HW152587   3.919   6.410  10.035 -3.0205 -0.7518  0.2376
13536SOL    HW252588   3.912   6.435  10.184  0.3899  0.9023  0.2211
13537SOL     OW52589   8.177   7.050   9.621  0.0810 -0.0287  0.3801
13537SOL    HW152590   8.259   7.015   9.587  1.2727  1.0678  1.9455
13537SOL    HW252591   8.203   7.102   9.698 -2.0070  0.8827  0.5525
13538SOL     OW52592   5.670   5.421  12.270 -0.0329  0.8630 -0.4696
13538SOL    HW152593   5.698   5.331  12.251 -1.1510  0.2620  0.5679
13538SOL    HW252594   5.664   5.463  12.184 -0.5646 -0.3944 -1.0743
13539SOL     OW52595   7.355   1.010   2.155 -0.3078  0.1086 -0.5253
13539SOL    HW152596   7.314   0.999   2.070  1.7122 -0.9190 -1.4336
13539SOL    HW252597   7.449   1.007   2.137  0.1762 -0.4823  1.7702
13540SOL     OW52598   6.127   5.916   8.982 -0.3546 -0.5899 -0.5252
13540SOL    HW152599   6.157   5.825   8.992 -1.6910 -1.1219 -1.1281
13540SOL    HW252600   6.057   5.926   9.046 -1.1820 -0.4612 -1.4144
13541SOL     OW52601   9.893   7.074   6.791  0.1805  0.0148 -0.6068
13541SOL    HW152602   9.938   7.018   6.855  1.0375  0.8403 -0.4687
13541SOL    HW252603   9.812   7.027   6.770  0.8090 -1.1935 -0.3736
13542SOL     OW52604   0.376   8.236  10.059 -0.0041 -0.3070 -0.1129
13542SOL    HW152605   0.397   8.162  10.116 -0.7894  0.1185  0.7626
13542SOL    HW252606   0.449   8.241   9.998  0.4322 -1.3256  0.3054
13543SOL     OW52607   0.028   1.993   8.228  0.2552 -0.0033  0.5230
13543SOL    HW152608   0.017   1.946   8.310  0.3072  2.2261  1.8855
13543SOL    HW252609   0.118   1.972   8.201  1.1191  1.1250  2.3468
13544SOL     OW52610   9.821   5.133   2.306 -0.2345 -0.0962  0.1508
13544SOL    HW152611   9.755   5.179   2.359 -0.2819  1.8580 -1.4719
13544SOL    HW252612   9.771   5.096   2.233  0.3108  0.6335 -0.6099
13545SOL     OW52613   9.333   4.594   1.606  0.3060 -0.1261 -0.1800
13545SOL    HW152614   9.257   4.536   1.612  0.3238 -0.3455 -1.7780
13545SOL    HW252615   9.297   4.678   1.577  0.4116  0.4035  1.1596
13546SOL     OW52616   7.759   4.095   1.834 -0.7808 -0.7557  0.2825
13546SOL    HW152617   7.756   4.024   1.899 -0.3915  1.2355  2.5917
13546SOL    HW252618   7.843   4.083   1.789  0.4427 -0.3921  2.3487
13547SOL     OW52619   9.392   3.441   1.167  0.0229 -0.2288  0.1426
13547SOL    HW152620   9.461   3.422   1.231  0.2167  1.4437  0.4750
13547SOL    HW252621   9.312   3.404   1.205  0.4064 -0.5789  0.6163
13548SOL     OW52622   1.606   4.288   2.351 -0.0704  0.6394  0.2673
13548SOL    HW152623   1.615   4.199   2.385 -1.2828 -0.2756 -1.6278
13548SOL    HW252624   1.575   4.340   2.425 -0.9852 -0.8944  0.9978
13549SOL     OW52625   9.695  13.433  11.289 -0.2057 -0.5153  1.0220
13549SOL    HW152626   9.767  13.482  11.249 -1.3093  1.3897  1.2453
13549SOL    HW252627   9.717  13.430  11.382  0.7856 -2.1453  0.7647
13550SOL     OW52628   2.374  13.510  10.707 -0.2642 -0.2616  0.1348
13550SOL    HW152629   2.420  13.535  10.628  0.1843  1.0092  0.7758
13550SOL    HW252630   2.282  13.502  10.680 -0.4908  2.3280 -0.0982
13551SOL     OW52631   9.844   0.839   9.356  0.1801 -0.1958  0.1567
13551SOL    HW152632   9.784   0.864   9.286 -1.9276  2.2460  2.5762
13551SOL    HW252633   9.836   0.744   9.361  0.6028 -0.5050 -2.9474
13552SOL     OW52634  11.955  10.305   8.205 -0.4188 -0.2365  0.6018
13552SOL    HW152635  11.908  10.231   8.244 -1.3071  0.2267  0.4454
13552SOL    HW252636  11.951  10.288   8.111 -0.1408 -0.2684  0.5955
13553SOL     OW52637   0.775   1.453   2.702 -0.2874  0.1129  0.0894
13553SOL    HW152638   0.768   1.459   2.798 -2.2309  0.0629 -0.0008
13553SOL    HW252639   0.714   1.519   2.670  0.8233  0.5695 -1.1470
13554SOL     OW52640   1.631   5.054   0.955 -0.2898  0.6664 -0.6880
13554SOL    HW152641   1.641   5.130   0.898 -1.5316  1.7042  0.3974
13554SOL    HW252642   1.706   5.058   1.015 -1.5992  2.5133  0.9374
13555SOL     OW52643   2.211   3.121  11.821  0.2386 -0.0349 -0.0758
13555SOL    HW152644   2.205   3.210  11.787 -2.0341 -0.6289 -1.5136
13555SOL    HW252645   2.245   3.070  11.748 -0.6980 -0.6898 -0.0712
13556SOL     OW52646  12.942   2.297   5.459  0.0178 -0.1289 -0.2056
13556SOL    HW152647  12.849   2.302   5.435  0.4186 -0.5702 -1.9955
13556SOL    HW252648  12.982   2.372   5.414  0.7983 -0.9405 -0.8882
13557SOL     OW52649   0.169  13.398   3.645  0.2428  0.2125  0.2769
13557SOL    HW152650   0.239  13.339   3.674  0.8795  1.2839  0.9793
13557SOL    HW252651   0.205  13.441   3.567 -0.1507 -0.1895 -0.1292
13558SOL     OW52652   4.507  10.154   6.159 -0.1896  0.4153 -0.4030
13558SOL    HW152653   4.580  10.186   6.106  0.8983 -0.5580  0.4667
13558SOL    HW252654   4.465  10.234   6.193  2.2211  1.0410  1.3918
13559SOL     OW52655   8.898   0.576   3.078  0.2912 -0.2657  0.4128
13559SOL    HW152656   8.932   0.560   3.166  0.6288  0.9796  0.5293
13559SOL    HW252657   8.946   0.653   3.047  2.2755 -2.2882 -2.0074
13560SOL     OW52658   7.906   1.183   8.168 -0.0323  0.1674  0.5804
13560SOL    HW152659   7.853   1.115   8.210 -1.2952  1.1402  0.6326
13560SOL    HW252660   7.852   1.262   8.175  1.1544  1.0465  0.0103
13561SOL     OW52661  12.117   8.845   2.684 -1.1543 -0.2202 -0.3760
13561SOL    HW152662  12.022   8.837   2.698 -1.1246  1.0588  0.8529
13561SOL    HW252663  12.138   8.932   2.718  0.4403 -0.4267 -0.7836
13562SOL     OW52664   1.043   0.226   9.022 -0.2965  0.2509 -0.1825
13562SOL    HW152665   0.997   0.190   8.947  0.1351 -0.3388 -0.1733
13562SOL    HW252666   0.977   0.277   9.069 -1.1360 -1.1878  0.2395
13563SOL     OW52667   7.194  12.547  12.347  0.5280 -0.2081 -0.2020
13563SOL    HW152668   7.241  12.566  12.428 -0.0151 -0.0395  0.0707
13563SOL    HW252669   7.146  12.466  12.365  0.3254 -0.1146 -0.3191
13564SOL     OW52670   9.579   7.194   1.440 -0.4022  0.0672  0.0398
13564SOL    HW152671   9.602   7.219   1.529 -1.3189  0.1030  0.2817
13564SOL    HW252672   9.662   7.185   1.395  0.0399  2.4776  0.2406
13565SOL     OW52673   2.541   4.153   9.772  0.3962 -0.0084  0.5721
13565SOL    HW152674   2.566   4.148   9.680  1.0272 -0.8275  0.7773
13565SOL    HW252675   2.480   4.227   9.776 -0.8485 -0.9149 -0.7683
13566SOL     OW52676   9.801   6.660   5.193 -0.4260 -0.3246  0.9069
13566SOL    HW152677   9.793   6.660   5.288 -2.1063  0.9866  0.8135
13566SOL    HW252678   9.891   6.687   5.176  0.1955 -1.5417  2.1138
13567SOL     OW52679   0.140  13.980   7.572 -0.0500 -0.0416  0.1850
13567SOL    HW152680   0.210  13.950   7.514  0.2518 -1.2714  1.1416
13567SOL    HW252681   0.062  13.983   7.517  0.1503 -1.5499 -0.2296
13568SOL     OW52682   4.853  11.103   9.783 -0.3975  0.6223  0.1724
13568SOL    HW152683   4.823  11.014   9.770  1.7598  0.0208 -1.2413
13568SOL    HW252684   4.831  11.123   9.874  1.1642 -2.2188  1.2926
13569SOL     OW52685   8.144   1.221   0.161  0.0097  0.1043 -0.1054
13569SOL    HW152686   8.137   1.315   0.181  0.2735  0.4409 -1.4618
13569SOL    HW252687   8.187   1.183   0.237  1.4279  1.3679 -0.2387
13570SOL     OW52688   1.080  10.108   9.515  0.3227 -0.4217 -0.0150
13570SOL    HW152689   1.133  10.031   9.496 -1.6499 -1.4862 -1.5564
13570SOL    HW252690   0.989  10.077   9.511 -0.4884  1.4953  1.6580
13571SOL     OW52691   4.638  11.531   4.556  0.5501  0.1066 -0.3040
13571SOL    HW152692   4.546  11.527   4.581  0.7995  0.7326  0.7496
13571SOL    HW252693   4.645  11.468   4.484 -0.6166 -0.2306 -0.1516
13572SOL     OW52694   6.760   2.714   1.274 -0.4756 -0.0955  0.3028
13572SOL    HW152695   6.741   2.624   1.246 -0.2414 -0.0975  0.1483
13572SOL    HW252696   6.696   2.731   1.343 -1.2349  0.0049 -0.4036
13573SOL     OW52697   3.100   7.952   6.721  0.0003  0.0936  0.1376
13573SOL    HW152698   3.085   8.036   6.765 -0.1456 -0.4560  1.1661
13573SOL    HW252699   3.023   7.899   6.743 -0.8091  0.2700 -2.0028
13574SOL     OW52700  12.791   1.114  10.766  0.4009 -0.0050  0.0787
13574SOL    HW152701  12.858   1.182  10.768  0.6813 -0.2867  0.6965
13574SOL    HW252702  12.759   1.109  10.856 -0.0248 -0.2961 -0.0823
13575SOL     OW52703   8.242   9.505   9.737 -0.2263 -0.1681 -0.2189
13575SOL    HW152704   8.237   9.416   9.702 -0.4669  0.1689 -1.0604
13575SOL    HW252705   8.222   9.495   9.830 -2.9574 -0.6677 -0.7791
13576SOL     OW52706  12.072   6.164   2.388  0.1899  0.4325 -0.1818
13576SOL    HW152707  11.977   6.171   2.398  0.1486 -0.6306  0.2557
13576SOL    HW252708  12.103   6.255   2.392 -0.6904  0.7126  0.8786
13577SOL     OW52709   5.311   0.335   8.178 -0.4190 -0.0206 -0.1944
13577SOL    HW152710   5.325   0.420   8.134  1.3077 -0.8737 -1.4086
13577SOL    HW252711   5.263   0.357   8.257  0.2681  2.1514 -0.3099
13578SOL     OW52712   8.611   9.174   9.219 -0.2719  0.2519  0.4330
13578SOL    HW152713   8.537   9.122   9.252  0.4172 -1.9273 -1.2472
13578SOL    HW252714   8.577   9.217   9.141 -0.1191  0.3244  0.4067
13579SOL     OW52715   7.273   0.623   0.128 -0.0707 -0.0885  0.1399
13579SOL    HW152716   7.271   0.538   0.086 -1.6715  0.1113 -0.2409
13579SOL    HW252717   7.272   0.604   0.222 -0.9000 -0.4850  0.0521
13580SOL     OW52718  12.586   7.615  12.549  0.3504 -0.1467  0.1489
13580SOL    HW152719  12.681   7.610  12.561  0.9277  2.8919 -1.8529
13580SOL    HW252720  12.569   7.566  12.468  0.5505  0.6993 -0.4291
13581SOL     OW52721   4.056   8.787   1.258 -0.7197 -0.2666  0.1326
13581SOL    HW152722   4.061   8.856   1.193 -1.8484  0.7331  1.0671
13581SOL    HW252723   3.962   8.767   1.265 -0.4836 -1.3568  0.4397
13582SOL     OW52724   2.059   8.831  13.097  0.1245 -0.2001  0.3189
13582SOL    HW152725   2.040   8.915  13.056  2.0846  0.3293  0.3946
13582SOL    HW252726   2.040   8.844  13.190  0.3063  0.1212  0.3102
13583SOL     OW52727   0.695   3.844  10.325 -0.0340  0.5739  0.3972
13583SOL    HW152728   0.633   3.841  10.398 -0.2881 -1.2215  0.1399
13583SOL    HW252729   0.643   3.872  10.250 -0.1082  0.9102  0.5728
13584SOL     OW52730   9.769   3.430   9.712 -0.6513  0.0055  0.3122
13584SOL    HW152731   9.700   3.368   9.733 -0.9185 -0.0142 -0.5823
13584SOL    HW252732   9.808   3.396   9.631  0.5506 -0.1042  0.9189
13585SOL     OW52733  11.613  10.922   3.060 -0.0401  0.4793 -0.4829
13585SOL    HW152734  11.659  10.894   3.139 -1.4105 -1.0503 -0.1829
13585SOL    HW252735  11.610  11.018   3.067 -1.8100  0.3236  2.3311
13586SOL     OW52736  13.112  10.968   8.585 -0.0847  0.1319  0.1530
13586SOL    HW152737  13.134  10.891   8.639  0.3346 -0.1464 -0.3979
13586SOL    HW252738  13.128  11.043   8.643  0.3118 -0.1627  0.4329
13587SOL     OW52739   8.733   5.281   6.823  0.0373  0.4445 -0.4521
13587SOL    HW152740   8.699   5.191   6.823  2.1095 -0.4169 -1.8406
13587SOL    HW252741   8.674   5.328   6.882 -1.0698 -1.8289  0.4167
13588SOL     OW52742   7.132   5.869  12.374  0.1361  0.1717 -0.5682
13588SOL    HW152743   7.201   5.808  12.350  0.6576  0.4856  0.1138
13588SOL    HW252744   7.170   5.956  12.362 -0.5128  0.3666 -1.2736
13589SOL     OW52745   7.421   4.237   1.192  0.7167 -0.3521 -0.5502
13589SOL    HW152746   7.366   4.251   1.269  1.6011  0.3516 -0.0164
13589SOL    HW252747   7.471   4.158   1.214  1.2834  0.0951 -0.1962
13590SOL     OW52748  12.145   8.830   5.195  0.0578 -0.4359 -0.7779
13590SOL    HW152749  12.146   8.905   5.254  0.1733 -0.6994 -0.4424
13590SOL    HW252750  12.052   8.808   5.187  0.0507 -0.4701 -0.6067
13591SOL     OW52751   7.381   0.363   1.940  0.5523  0.2999 -0.2344
13591SOL    HW152752   7.458   0.322   1.901  0.1587 -0.8078  0.1202
13591SOL    HW252753   7.348   0.299   2.003 -0.2214  1.0679  0.1760
13592SOL     OW52754   8.707   5.095  13.545  0.4577 -0.0569  0.4761
13592SOL    HW152755   8.658   5.163  13.592 -0.7720  0.1559 -1.0468
13592SOL    HW252756   8.700   5.017  13.600 -2.0290 -0.1655  0.0985
13593SOL     OW52757  13.830  10.117   2.141 -0.0438  0.1075  0.5835
13593SOL    HW152758  13.785  10.192   2.180 -2.2716 -0.8297 -0.0349
13593SOL    HW252759  13.921  10.145   2.134 -0.6887  2.5183  0.9079
13594SOL     OW52760  12.083   4.006   8.640 -0.4110  0.3958 -0.1915
13594SOL    HW152761  11.990   3.984   8.641  0.1932 -2.5165  0.8756
13594SOL    HW252762  12.099   4.046   8.725 -0.5253  0.0231  0.0087
13595SOL     OW52763   9.764   6.274   7.933 -0.4878  0.1749  0.2850
13595SOL    HW152764   9.764   6.249   7.841  0.2171 -0.5084  0.4603
13595SOL    HW252765   9.855   6.263   7.961 -0.6861  0.4063  1.0509
13596SOL     OW52766  11.880   5.746  13.913  0.5010  0.0210 -0.0353
13596SOL    HW152767  11.881   5.799  13.833 -0.1245 -0.3250 -0.2731
13596SOL    HW252768  11.970   5.715  13.921  0.3343 -0.8262 -1.2047
13597SOL     OW52769  11.940   6.179   9.382 -0.4382 -0.2353  0.3884
13597SOL    HW152770  11.867   6.240   9.377  1.4023  2.0122 -0.6522
13597SOL    HW252771  11.903   6.101   9.424 -2.9114  1.5275  1.7462
13598SOL     OW52772   9.201   5.596   1.832  0.0677  0.6065 -0.0773
13598SOL    HW152773   9.163   5.512   1.860 -0.4493  0.9706  0.3385
13598SOL    HW252774   9.214   5.585   1.738  1.1304 -0.3650  0.1610
13599SOL     OW52775  13.886   7.369   9.926  0.6028  0.1938 -0.0445
13599SOL    HW152776  13.838   7.452   9.929 -0.2733 -0.3241  1.1420
13599SOL    HW252777  13.967   7.387   9.973  0.0780  0.1938  0.8891
13600SOL     OW52778  11.367   7.406  10.506  0.3506  0.2893  0.0399
13600SOL    HW152779  11.398   7.494  10.483 -1.0226  0.7163 -0.2858
13600SOL    HW252780  11.437   7.348  10.475  0.1830  1.1001 -2.0437
13601SOL     OW52781   8.763   0.188  13.384 -0.3896  0.2408  0.0610
13601SOL    HW152782   8.733   0.097  13.387 -0.8825  0.3379  4.2890
13601SOL    HW252783   8.686   0.237  13.355 -1.0224 -0.4689  0.5044
13602SOL     OW52784  13.607  10.676  12.191 -0.1186  0.1944  0.1359
13602SOL    HW152785  13.677  10.631  12.143 -1.6722 -0.6854 -1.4279
13602SOL    HW252786  13.575  10.742  12.130 -2.6731 -1.4755 -0.4924
13603SOL     OW52787   1.648   2.185  10.298 -0.1086  0.5182 -0.3740
13603SOL    HW152788   1.602   2.140  10.369 -1.8118  1.7604 -0.6248
13603SOL    HW252789   1.608   2.150  10.218  1.8196 -0.8966 -0.8017
13604SOL     OW52790  12.347   2.726  13.051 -0.4230  0.2908 -0.0410
13604SOL    HW152791  12.324   2.658  12.987 -0.3430 -0.5113  0.7562
13604SOL    HW252792  12.312   2.693  13.134  0.6156  0.6875  0.5707
13605SOL     OW52793   1.965   3.940   0.423  0.1146  0.7100  0.4593
13605SOL    HW152794   1.903   3.879   0.464  1.7739 -1.8501 -0.5685
13605SOL    HW252795   2.043   3.936   0.478  0.0807  2.4090  0.6766
13606SOL     OW52796   3.062   5.273   3.729  0.1892 -0.0604  0.1821
13606SOL    HW152797   3.133   5.294   3.668 -0.7343  0.6144 -0.7080
13606SOL    HW252798   3.027   5.358   3.755 -1.9027 -0.3429 -1.3907
13607SOL     OW52799   8.649   4.068   9.302 -0.0061 -0.8717 -0.0400
13607SOL    HW152800   8.646   3.981   9.262 -0.2639 -1.1149  0.5070
13607SOL    HW252801   8.686   4.054   9.389 -2.0439 -0.7671  0.8994
13608SOL     OW52802  12.364   4.671   7.274  0.6815  0.6452 -0.2769
13608SOL    HW152803  12.307   4.698   7.202  1.6528  0.8030 -1.0105
13608SOL    HW252804  12.319   4.700   7.353  0.1601  1.5438 -0.8917
13609SOL     OW52805   5.126   1.968   0.450  0.2060  0.2725 -0.5881
13609SOL    HW152806   5.200   1.949   0.506 -1.1981  0.3861  1.4060
13609SOL    HW252807   5.150   1.931   0.365  1.8502 -1.1330  0.4309
13610SOL     OW52808   4.533   1.214   0.462  0.9309 -0.6822 -0.1562
13610SOL    HW152809   4.450   1.172   0.485  0.1271  0.4988 -0.8473
13610SOL    HW252810   4.599   1.162   0.509 -0.1876 -1.5739  0.4909
13611SOL     OW52811   0.507  10.113  12.016 -0.4359  0.2329  0.4239
13611SOL    HW152812   0.513  10.102  11.921 -2.5625  1.2445  0.1030
13611SOL    HW252813   0.455  10.038  12.045 -1.5755  0.9965  0.4433
13612SOL     OW52814  13.717   2.019   0.283  0.0162  0.8026  0.2039
13612SOL    HW152815  13.681   1.930   0.293 -0.3548  0.9914  0.5964
13612SOL    HW252816  13.774   2.013   0.207  0.3450  0.1129  0.4961
13613SOL     OW52817   0.113  11.706  10.515  0.5414 -0.1510 -1.0966
13613SOL    HW152818   0.118  11.783  10.572  5.2167 -0.4522 -0.6758
13613SOL    HW252819   0.111  11.742  10.426  1.8270  0.4929 -0.8841
13614SOL     OW52820   7.706   4.226   0.948 -0.3459 -0.1020  0.1609
13614SOL    HW152821   7.723   4.246   0.856  2.2523 -2.0556  0.1240
13614SOL    HW252822   7.734   4.305   0.995 -0.7015  0.5105 -0.6187
13615SOL     OW52823   0.939  12.719  12.100 -0.4804  0.2507  0.6442
13615SOL    HW152824   0.965  12.649  12.041  1.4798  0.4589  1.1630
13615SOL    HW252825   0.944  12.680  12.188 -0.5616  0.7047  0.8544
13616SOL     OW52826   0.620   3.217   7.283 -0.1088 -0.4209  0.5266
13616SOL    HW152827   0.565   3.276   7.335 -0.1212  0.7547 -0.7674
13616SOL    HW252828   0.559   3.174   7.223  0.1545 -0.3168  0.1793
13617SOL     OW52829  13.491   8.843   2.590 -0.2957 -0.2420  0.3574
13617SOL    HW152830  13.556   8.911   2.608  0.3095 -0.2892 -1.4232
13617SOL    HW252831  13.458   8.818   2.676  0.1988  1.5785  1.1233
13618SOL     OW52832   9.139  12.089   6.892  0.3222 -0.5650 -0.4191
13618SOL    HW152833   9.083  12.167   6.884  2.4668  1.0282 -0.6150
13618SOL    HW252834   9.171  12.074   6.804  3.0961  0.8794  0.2314
13619SOL     OW52835   5.223   2.277   2.228  0.6618 -0.5268  0.0541
13619SOL    HW152836   5.269   2.361   2.226  0.5293 -0.4448  0.3441
13619SOL    HW252837   5.281   2.219   2.277  0.3887 -0.3765  0.5709
13620SOL     OW52838  13.236   8.543  11.808 -0.1916  0.0018 -0.3733
13620SOL    HW152839  13.161   8.593  11.841  1.1778  0.2377  2.7667
13620SOL    HW252840  13.227   8.457  11.849  1.6838  0.3380  0.8774
13621SOL     OW52841   1.965   1.746   0.680 -0.1034  0.1367  0.7858
13621SOL    HW152842   2.026   1.673   0.669  2.0792  1.8276  0.9759
13621SOL    HW252843   1.914   1.747   0.599  0.6122 -0.8818  0.2989
13622SOL     OW52844   2.396  11.201   2.087 -0.2566 -0.1324  0.1162
13622SOL    HW152845   2.462  11.177   2.153  1.6722  2.0570 -0.8798
13622SOL    HW252846   2.318  11.224   2.138 -0.4615 -3.0706  1.3199
13623SOL     OW52847   1.357   3.552   8.064 -0.3129 -0.3215 -0.7105
13623SOL    HW152848   1.283   3.587   8.015 -0.3761  1.1270  0.3712
13623SOL    HW252849   1.319   3.518   8.145  0.3051  1.6299  0.4608
13624SOL     OW52850  11.557  10.193  11.006  0.7523 -0.7941 -0.5972
13624SOL    HW152851  11.595  10.252  11.071  0.5340 -1.3286  0.0272
13624SOL    HW252852  11.527  10.118  11.057  0.6046 -1.2345 -1.3238
13625SOL     OW52853   4.501   4.951   2.856  0.4059  0.1595 -0.1973
13625SOL    HW152854   4.446   4.980   2.783 -0.0449 -1.6829 -0.6545
13625SOL    HW252855   4.443   4.952   2.932 -0.2307 -1.4422 -0.6135
13626SOL     OW52856   8.458   5.449   2.416 -0.1283 -0.5517  0.2943
13626SOL    HW152857   8.500   5.530   2.386  1.4551 -0.9152  1.4093
13626SOL    HW252858   8.518   5.380   2.389 -0.1221 -1.1195  1.6916
13627SOL     OW52859  11.187   3.447   3.324 -0.0231 -0.1375 -0.1786
13627SOL    HW152860  11.096   3.459   3.351  0.3003  2.1065  0.0747
13627SOL    HW252861  11.208   3.357   3.351 -1.3739  0.1408  2.0491
13628SOL     OW52862   2.405   6.026  11.133 -0.4588  0.3095  0.1905
13628SOL    HW152863   2.364   5.945  11.101 -0.0806 -0.0587  0.6268
13628SOL    HW252864   2.337   6.092  11.123 -1.3180 -0.3741  1.2819
13629SOL     OW52865   2.916   2.129   4.369 -0.0506 -0.0225  0.2945
13629SOL    HW152866   2.825   2.100   4.370 -0.0883  0.0689 -0.1850
13629SOL    HW252867   2.936   2.147   4.461 -0.2602 -0.8203  0.5059
13630SOL     OW52868   8.876  11.000   9.882  0.0774  0.0087  0.0513
13630SOL    HW152869   8.965  10.994   9.917 -0.6064  0.3670  1.9811
13630SOL    HW252870   8.870  11.089   9.847  0.2199  0.2891  0.7227
13631SOL     OW52871  11.955  11.808   4.673 -0.2470 -0.4749  0.0798
13631SOL    HW152872  11.961  11.760   4.591 -0.3491  0.9438 -0.8033
13631SOL    HW252873  12.011  11.885   4.660 -3.4738  2.0287 -0.3453
13632SOL     OW52874  10.181   5.090   0.064  0.0389 -0.5351  0.4318
13632SOL    HW152875  10.154   5.016   0.010 -1.1292 -0.4990  0.9309
13632SOL    HW252876  10.209   5.051   0.146 -1.2534 -0.4039  0.9563
13633SOL     OW52877  13.993   2.051   3.378 -0.2751  0.2774  0.0975
13633SOL    HW152878  13.956   1.964   3.391 -0.0038  0.1434 -0.0210
13633SOL    HW252879  13.923   2.111   3.405 -0.9373  0.0407 -1.0328
13634SOL     OW52880   8.200   7.237  13.482 -0.1470 -0.2130 -0.3598
13634SOL    HW152881   8.241   7.156  13.514 -3.5300 -1.4464  1.3893
13634SOL    HW252882   8.251   7.307  13.522  0.9490 -1.5794  0.7570
13635SOL     OW52883   6.637   0.007  11.090 -0.0246 -0.3984  0.0863
13635SOL    HW152884   6.706  -0.058  11.105 -1.2838 -1.6553  0.5614
13635SOL    HW252885   6.668   0.085  11.137  0.8398 -1.0929  0.7122
13636SOL     OW52886   1.271   1.946   7.578 -0.0837  0.5201 -0.1807
13636SOL    HW152887   1.290   1.972   7.488 -1.1252 -2.0707 -1.2585
13636SOL    HW252888   1.322   2.006   7.632 -1.2293  3.7565 -2.3605
13637SOL     OW52889  13.909   5.132   8.837 -0.2102 -0.4946 -0.0415
13637SOL    HW152890  13.843   5.188   8.795 -0.8510 -0.3089  1.1910
13637SOL    HW252891  13.864   5.093   8.911  0.6191 -1.6333 -0.1129
13638SOL     OW52892  11.552  12.585  13.006  0.6064 -0.0644  0.1896
13638SOL    HW152893  11.505  12.521  13.059  0.1617  0.4209  0.3936
13638SOL    HW252894  11.531  12.562  12.915 -2.9467  2.1645  0.2366
13639SOL     OW52895   1.214  12.665   7.711  0.1519 -0.1866  0.0706
13639SOL    HW152896   1.167  12.745   7.688  2.6876  1.6039  0.6364
13639SOL    HW252897   1.164  12.595   7.669 -2.1141  1.6696 -0.5540
13640SOL     OW52898  12.710  10.446   4.048  0.0272 -0.0479  0.0277
13640SOL    HW152899  12.718  10.509   3.976  2.1705 -0.8306 -0.5164
13640SOL    HW252900  12.709  10.361   4.005 -2.1992 -0.4771  0.7898
13641SOL     OW52901   5.064   2.455  10.937  0.5074 -0.2438  0.9193
13641SOL    HW152902   5.023   2.509  11.005  0.4385 -0.2737  0.9014
13641SOL    HW252903   4.991   2.429  10.881  0.5951 -0.0410  0.7105
13642SOL     OW52904   9.131   5.473  13.834  0.4701 -1.0261 -0.1605
13642SOL    HW152905   9.110   5.535  13.903 -0.5365 -1.5993  0.0792
13642SOL    HW252906   9.216   5.436  13.858  1.4332  0.7595 -0.6940
13643SOL     OW52907   0.363  12.844  13.014  0.8044  0.4780 -0.2359
13643SOL    HW152908   0.393  12.924  13.057 -1.8749  1.8300 -0.6359
13643SOL    HW252909   0.314  12.798  13.082  0.6354  0.2021 -0.5474
13644SOL     OW52910   7.621   4.366   5.411  0.4254  0.2016  0.1308
13644SOL    HW152911   7.676   4.303   5.364  2.1891  1.0358  0.9702
13644SOL    HW252912   7.642   4.451   5.371  0.7183  0.7033  1.3043
13645SOL     OW52913   3.386  12.437  10.417 -0.1932 -0.0705  0.1841
13645SOL    HW152914   3.319  12.401  10.476 -3.0583  0.0552 -2.6758
13645SOL    HW252915   3.382  12.531  10.430 -0.3417 -0.0872  0.2604
13646SOL     OW52916  11.168   5.915   0.107  0.1659 -0.3376 -0.0593
13646SOL    HW152917  11.100   5.960   0.157  1.6010 -0.3805  2.1007
13646SOL    HW252918  11.124   5.839   0.069 -1.2001  0.1743  0.4480
13647SOL     OW52919   2.591   9.840  10.512 -0.4272 -0.4654 -0.1657
13647SOL    HW152920   2.591   9.801  10.599  1.7727  0.5180  0.3487
13647SOL    HW252921   2.683   9.843  10.487 -0.5513  3.0505 -0.7141
13648SOL     OW52922   3.320  13.177   6.489 -0.2046 -0.2610 -0.3255
13648SOL    HW152923   3.249  13.222   6.444 -0.4998  1.4183  1.6722
13648SOL    HW252924   3.292  13.174   6.581  2.5604  1.1632  0.6868
13649SOL     OW52925   4.035   9.703   7.230  0.4700  0.0035 -0.1918
13649SOL    HW152926   4.061   9.708   7.138 -1.3917 -0.2407 -0.7700
13649SOL    HW252927   3.962   9.764   7.237 -2.4408 -3.2044 -0.0130
13650SOL     OW52928   4.102   2.295   5.622  0.8307 -0.3224 -0.2248
13650SOL    HW152929   4.062   2.241   5.690 -0.0422 -1.2991 -1.4799
13650SOL    HW252930   4.162   2.236   5.576  0.9144  0.1397 -0.7226
13651SOL     OW52931   5.174  10.102   6.209 -0.1890 -0.0520 -0.4506
13651SOL    HW152932   5.263  10.138   6.210  0.4867 -1.6275 -1.2522
13651SOL    HW252933   5.122  10.171   6.167  0.4998  1.1531  0.5886
13652SOL     OW52934   6.450   0.969   2.396 -0.3879  0.5907  0.1337
13652SOL    HW152935   6.385   1.039   2.384  0.4918  1.9607  2.6081
13652SOL    HW252936   6.530   1.005   2.357 -0.0536  0.7889  0.9831
13653SOL     OW52937  12.259   0.661   8.501 -0.4677  0.7259  0.3211
13653SOL    HW152938  12.243   0.584   8.555 -1.5812 -0.1502 -1.2019
13653SOL    HW252939  12.229   0.637   8.414  0.7395  2.3049 -0.5897
13654SOL     OW52940   6.418   1.489   6.970  0.4240  0.2603 -0.1473
13654SOL    HW152941   6.506   1.523   6.978  0.7471 -0.2988 -1.0827
13654SOL    HW252942   6.372   1.555   6.918  0.3924  0.3755  0.0262
13655SOL     OW52943   4.689   0.147   5.500 -0.2682  0.5807  0.3940
13655SOL    HW152944   4.724   0.235   5.486  1.1940 -0.0832 -0.3496
13655SOL    HW252945   4.603   0.149   5.459 -0.1311  1.5752  0.1193
13656SOL     OW52946   5.212   2.736   9.643  0.5648  0.0658  0.1707
13656SOL    HW152947   5.151   2.787   9.590 -0.3211 -0.6485  0.4762
13656SOL    HW252948   5.288   2.723   9.587  0.3453  0.7715 -0.3021
13657SOL     OW52949   2.433   0.551   8.564 -0.3849  0.6557 -0.6847
13657SOL    HW152950   2.473   0.599   8.637  2.1176 -1.0915 -0.7940
13657SOL    HW252951   2.359   0.505   8.604  1.4286 -0.9497  1.0838
13658SOL     OW52952  13.093   0.493  12.076 -0.8928  0.1406  0.3499
13658SOL    HW152953  13.088   0.569  12.018  1.1082  1.1977  1.4496
13658SOL    HW252954  13.033   0.514  12.148 -1.0288  0.2517  0.2045
13659SOL     OW52955  13.292   7.988   7.492 -0.0855 -0.2191  0.6007
13659SOL    HW152956  13.318   8.079   7.475  0.0953 -0.4693 -0.5250
13659SOL    HW252957  13.347   7.961   7.565 -0.9856  0.9438  1.7699
13660SOL     OW52958   5.723   4.359   2.069 -0.2789 -0.5364  0.7058
13660SOL    HW152959   5.671   4.310   2.005 -1.7138  1.1902  0.4622
13660SOL    HW252960   5.658   4.402   2.124  0.8973  1.2308  0.7726
13661SOL     OW52961   4.976   1.928   4.336  0.3646  0.2527 -0.4030
13661SOL    HW152962   4.930   1.873   4.400  0.5368  0.5083 -0.0588
13661SOL    HW252963   4.922   1.923   4.257 -0.7132  1.2151  0.2432
13662SOL     OW52964  10.132   4.959   4.049  0.2535  0.0613  0.2753
13662SOL    HW152965  10.219   4.942   4.013  0.3749  0.4660  0.3689
13662SOL    HW252966  10.134   4.917   4.135 -0.4293 -1.9048 -0.6066
13663SOL     OW52967   0.445   4.384   8.012  0.1598 -0.1900 -0.0913
13663SOL    HW152968   0.399   4.411   7.933 -0.1105 -0.8400 -0.1655
13663SOL    HW252969   0.532   4.357   7.981  0.6496  1.1342  0.0632
13664SOL     OW52970   0.076  11.979   0.331  0.0364  0.3114  0.2020
13664SOL    HW152971   0.121  12.026   0.261 -0.2498  0.0526 -0.1614
13664SOL    HW252972   0.099  12.027   0.411 -0.5524  1.2970 -0.1968
13665SOL     OW52973  10.384  12.854   7.060 -0.0459 -0.2076  0.0242
13665SOL    HW152974  10.436  12.885   7.134 -1.4665  0.5183  0.7736
13665SOL    HW252975  10.408  12.910   6.987  0.0789  0.2594  0.4205
13666SOL     OW52976   1.238   1.456   7.415 -0.0276  0.2171  0.0061
13666SOL    HW152977   1.314   1.476   7.361 -0.8505  1.4779 -0.7331
13666SOL    HW252978   1.243   1.518   7.488 -0.7519  0.8650 -0.4742
13667SOL     OW52979   9.084   8.470   4.226  0.4640  0.5330 -0.4097
13667SOL    HW152980   9.038   8.387   4.218  1.0732  0.0614  0.7295
13667SOL    HW252981   9.075   8.494   4.318  0.4084  1.6703 -0.6938
13668SOL     OW52982   6.199   1.266  11.478  0.2757 -0.0146 -0.3953
13668SOL    HW152983   6.173   1.283  11.569 -1.0909  1.7793 -1.0566
13668SOL    HW252984   6.188   1.350  11.434  1.9093 -0.5994 -2.0274
13669SOL     OW52985  10.104  12.210   9.556  0.1492  0.1602 -0.3551
13669SOL    HW152986  10.015  12.212   9.522  0.2356  0.2544 -0.5831
13669SOL    HW252987  10.160  12.209   9.477  0.3720  1.4012 -0.2290
13670SOL     OW52988  11.895   9.037   3.175 -0.2190 -0.1820  0.3382
13670SOL    HW152989  11.843   8.966   3.212 -0.7333  0.0698  0.1091
13670SOL    HW252990  11.975   9.038   3.227  1.2756 -3.0208 -1.6738
13671SOL     OW52991   1.638  11.699   8.930 -0.2430 -0.1941  0.1827
13671SOL    HW152992   1.650  11.672   9.021 -0.1663  2.3973  1.0136
13671SOL    HW252993   1.548  11.673   8.909  0.1223 -1.8721  0.5606
13672SOL     OW52994   4.490  11.176   1.666  0.4137  0.1332 -0.1619
13672SOL    HW152995   4.510  11.127   1.746  1.3355  1.4770  0.4677
13672SOL    HW252996   4.487  11.109   1.597  2.4443 -0.7430  0.5090
13673SOL     OW52997   9.646   9.502  12.173  0.2348  0.1059 -0.3964
13673SOL    HW152998   9.588   9.578  12.163  0.7951  0.6845  0.5787
13673SOL    HW252999   9.587   9.427  12.173 -0.3652  0.5616 -0.9876
13674SOL     OW53000   9.245  10.613   9.372 -0.1559 -0.1569 -0.1935
13674SOL    HW153001   9.257  10.622   9.466  0.1987  0.3779 -0.2860
13674SOL    HW253002   9.318  10.557   9.344  1.6295  2.2198 -0.5972
13675SOL     OW53003  11.540   5.703   7.755 -0.3162 -0.3312  0.1022
13675SOL    HW153004  11.554   5.609   7.741 -2.0451 -0.8002  1.1290
13675SOL    HW253005  11.600   5.746   7.695 -0.7934 -2.1098 -1.7589
13676SOL     OW53006   3.745   0.110   5.929  0.3598  0.2813 -0.3298
13676SOL    HW153007   3.781   0.056   5.859  0.6020 -0.6512  0.5053
13676SOL    HW253008   3.695   0.178   5.883  0.7860 -0.1199 -1.4114
13677SOL     OW53009  12.161  13.836  11.048  0.0377 -0.2345 -0.0679
13677SOL    HW153010  12.242  13.873  11.082  1.6598 -1.3613 -2.4517
13677SOL    HW253011  12.101  13.911  11.043  0.7620  0.5600  2.0278
13678SOL     OW53012   9.118   9.324   5.483 -0.4592  0.5716 -0.2374
13678SOL    HW153013   9.179   9.395   5.501  0.7115 -0.6719  0.8550
13678SOL    HW253014   9.128   9.307   5.389  0.9656  0.3028 -0.0478
13679SOL     OW53015   7.293   6.409  13.532 -0.1618  0.1790 -0.0808
13679SOL    HW153016   7.241   6.464  13.473 -1.3541  0.3692  1.0843
13679SOL    HW253017   7.236   6.335  13.552 -0.6140  1.0791  2.3141
13680SOL     OW53018   5.615   6.671   3.992 -0.5384 -0.3530 -0.3916
13680SOL    HW153019   5.590   6.588   3.952  0.5628 -0.8609 -0.0788
13680SOL    HW253020   5.571   6.738   3.940 -0.5095 -1.0837 -1.3752
13681SOL     OW53021   0.957  11.247   1.082  0.2814 -0.3631 -0.1466
13681SOL    HW153022   1.000  11.161   1.084 -0.4303 -0.7575 -0.9984
13681SOL    HW253023   0.882  11.238   1.141  0.8596  0.0465  0.6601
13682SOL     OW53024  13.307   7.288   2.865  0.3890  0.2858  0.4002
13682SOL    HW153025  13.266   7.271   2.780 -0.7795  0.1786  0.9733
13682SOL    HW253026  13.401   7.278   2.848  0.0753 -1.6244 -0.4690
13683SOL     OW53027   0.948   6.788   2.213 -0.0293 -0.2519 -0.1042
13683SOL    HW153028   0.989   6.854   2.269 -2.4122  0.8121  0.4808
13683SOL    HW253029   0.953   6.824   2.125 -1.0004  0.5783  0.1652
13684SOL     OW53030  10.044   6.575  10.139 -0.0795  0.2122 -0.3327
13684SOL    HW153031  10.073   6.518  10.210 -2.0994 -0.0912  0.3163
13684SOL    HW253032  10.054   6.664  10.174 -1.4442  0.0551  0.5438
13685SOL     OW53033   9.582   5.063   0.607  0.3234  0.6256  0.4470
13685SOL    HW153034   9.670   5.025   0.615  0.3696  0.7951  0.7828
13685SOL    HW253035   9.569   5.074   0.513  0.5543  0.3472  0.3813
13686SOL     OW53036   6.378  12.829  10.137  0.0736 -0.0878  0.0174
13686SOL    HW153037   6.442  12.830  10.208 -0.3086 -0.7950  0.3892
13686SOL    HW253038   6.311  12.891  10.164 -0.1918 -0.5307  0.4056
13687SOL     OW53039   7.822   4.687   2.783  0.4920  0.6331 -0.4768
13687SOL    HW153040   7.881   4.762   2.796  2.0668 -0.4174 -1.2739
13687SOL    HW253041   7.747   4.724   2.737  0.9292  1.8466 -0.2567
13688SOL     OW53042   5.377   0.269   0.106  0.3547 -0.0348 -0.6071
13688SOL    HW153043   5.376   0.365   0.100 -0.4286 -0.0414 -0.5986
13688SOL    HW253044   5.432   0.242   0.033 -0.3895  0.3699 -1.3237
13689SOL     OW53045   0.471   8.766   7.945  0.2134  0.5195  0.5568
13689SOL    HW153046   0.439   8.761   7.855 -0.2731 -0.2893  0.7535
13689SOL    HW253047   0.429   8.844   7.981 -0.2681  0.3703  0.3280
13690SOL     OW53048  12.346   1.130   0.719 -0.2435  0.6349 -0.0740
13690SOL    HW153049  12.289   1.053   0.720 -1.4256  1.4830 -0.0714
13690SOL    HW253050  12.379   1.133   0.630 -0.5188  0.3570 -0.1912
13691SOL     OW53051   5.644  13.314   9.857  0.4307  0.0301 -0.4095
13691SOL    HW153052   5.584  13.378   9.895  0.7082  1.0331 -1.6191
13691SOL    HW253053   5.588  13.253   9.810  0.2652  0.1577 -0.3763
13692SOL     OW53054  12.084   4.640   7.406  0.5033  0.1600 -0.3497
13692SOL    HW153055  12.047   4.556   7.435  1.4857 -0.0603  0.3056
13692SOL    HW253056  12.081   4.636   7.311  1.4939 -1.0764 -0.3496
13693SOL     OW53057   4.789   1.711  12.575  0.3448  0.3095 -0.1325
13693SOL    HW153058   4.710   1.699  12.521  0.1659  0.1281  0.1697
13693SOL    HW253059   4.805   1.805  12.572  0.0677  0.3587 -0.1266
13694SOL     OW53060   9.811  13.752   8.446  0.1972 -0.3155  0.3147
13694SOL    HW153061   9.898  13.712   8.458  0.8720  1.0291  0.1224
13694SOL    HW253062   9.782  13.773   8.535  0.2875 -0.3146  0.3443
13695SOL     OW53063   7.237   4.176   8.055  0.6400 -0.5865  0.1285
13695SOL    HW153064   7.143   4.161   8.062  0.7642 -0.7789  1.8537
13695SOL    HW253065   7.247   4.271   8.062  0.5045 -0.4373 -1.4131
13696SOL     OW53066   7.248   7.771   8.760  0.8906  0.3498  0.2646
13696SOL    HW153067   7.295   7.822   8.826  0.5833  0.4108  0.4345
13696SOL    HW253068   7.230   7.687   8.802  1.9678 -0.1606 -0.2282
13697SOL     OW53069  13.387   9.138   5.461 -0.5903  0.5243 -0.0837
13697SOL    HW153070  13.369   9.182   5.545 -1.4681 -0.9957  0.5705
13697SOL    HW253071  13.302   9.135   5.417 -0.1975  1.0103 -0.8911
13698SOL     OW53072   3.342   2.100   5.387 -0.2714 -0.0310  0.1463
13698SOL    HW153073   3.360   2.032   5.452 -1.3634 -0.7876 -0.3229
13698SOL    HW253074   3.422   2.104   5.334 -0.0897 -0.7572  0.3503
13699SOL     OW53075   6.039   2.322  13.711  0.3065 -0.1240  0.1112
13699SOL    HW153076   6.093   2.252  13.673 -0.0146 -0.2312 -0.1586
13699SOL    HW253077   5.956   2.279  13.730  0.0421  0.2281 -0.2350
13700SOL     OW53078   9.234  14.006   7.362 -0.1047  0.0678 -0.0901
13700SOL    HW153079   9.154  13.967   7.398  0.1602 -0.9719 -0.6003
13700SOL    HW253080   9.276  13.935   7.315  0.0621  1.1472 -1.6242
13701SOL     OW53081   8.338   1.058   9.857 -0.3251  0.5586 -0.0683
13701SOL    HW153082   8.412   1.031   9.911  0.4392  0.3965 -1.1629
13701SOL    HW253083   8.324   1.150   9.880  0.0010  0.4935  0.3937
13702SOL     OW53084   0.267  11.206  10.321 -0.3223 -0.0348 -0.3405
13702SOL    HW153085   0.204  11.179  10.388 -0.9522 -2.6038 -1.8140
13702SOL    HW253086   0.352  11.201  10.365 -0.8402 -0.2042  0.6734
13703SOL     OW53087   1.725   0.090   1.979  0.3670  0.7498 -0.3526
13703SOL    HW153088   1.672   0.145   1.921 -0.6519 -0.0448 -0.2151
13703SOL    HW253089   1.815   0.101   1.948 -0.1257  0.4455 -2.0247
13704SOL     OW53090   3.801   4.229   8.597  0.3181 -0.4480  0.4814
13704SOL    HW153091   3.742   4.304   8.589  1.3681  0.3892  0.3512
13704SOL    HW253092   3.774   4.170   8.527  0.4984  0.5377 -0.4490
13705SOL     OW53093   6.996  11.786  10.785  0.1146 -0.0769  0.4416
13705SOL    HW153094   6.924  11.745  10.832  1.7190 -0.8781  2.3438
13705SOL    HW253095   7.047  11.713  10.750  2.5882  0.1245  3.2182
13706SOL     OW53096  12.879  13.297   1.952  0.2967  0.3039  0.1038
13706SOL    HW153097  12.932  13.359   2.002  0.3925  1.2587 -1.1250
13706SOL    HW253098  12.855  13.345   1.873  0.3951 -1.2641 -0.9065
13707SOL     OW53099  13.852  12.898   7.673  0.1784  0.0106  0.5841
13707SOL    HW153100  13.790  12.927   7.740 -1.6082 -4.7583  1.4083
13707SOL    HW253101  13.935  12.889   7.720  0.1015  1.1145  0.9452
13708SOL     OW53102   5.530  10.910   4.829 -0.0169  0.2566 -0.0819
13708SOL    HW153103   5.604  10.902   4.889 -0.2705 -0.1681  0.1787
13708SOL    HW253104   5.541  10.836   4.769  0.2299  0.6743 -0.5536
13709SOL     OW53105  10.460   0.781   5.937  0.5480 -0.6626  0.2943
13709SOL    HW153106  10.517   0.705   5.922 -0.3819 -1.5136  0.9170
13709SOL    HW253107  10.519   0.849   5.971  1.7678 -0.3856 -2.1052
13710SOL     OW53108   8.571  11.651  11.497 -0.3695 -0.2403 -0.2758
13710SOL    HW153109   8.529  11.594  11.561  2.8112 -1.3415  1.0451
13710SOL    HW253110   8.618  11.591  11.439  0.0932  0.8925 -1.1063
13711SOL     OW53111   8.908   1.556   3.735 -0.2974 -0.1516  0.3772
13711SOL    HW153112   8.878   1.581   3.647 -1.4784 -1.0452  0.5011
13711SOL    HW253113   8.881   1.628   3.791 -0.0048  0.1809  0.0996
13712SOL     OW53114  13.284   1.607  12.765  0.2690 -0.2530 -0.3380
13712SOL    HW153115  13.330   1.570  12.690 -0.0636 -0.6396 -0.3569
13712SOL    HW253116  13.286   1.538  12.831 -1.2954 -0.7356 -0.7556
13713SOL     OW53117   9.517  10.373   0.617  0.8971 -0.3358  0.3015
13713SOL    HW153118   9.502  10.340   0.705 -1.0718  0.1989  0.2154
13713SOL    HW253119   9.504  10.298   0.560  1.4712 -0.5243  0.4146
13714SOL     OW53120   3.135   1.053   5.836  0.5751 -0.0177 -0.8006
13714SOL    HW153121   3.118   1.105   5.914 -0.0768  0.3064 -1.1534
13714SOL    HW253122   3.107   0.965   5.860  0.3276  0.0914 -0.6847
13715SOL     OW53123  10.946   9.357  13.759 -0.5019  0.1760 -0.4355
13715SOL    HW153124  10.901   9.286  13.712  1.6839 -2.0853  0.6600
13715SOL    HW253125  10.893   9.370  13.838 -2.3731  1.7183 -1.8466
13716SOL     OW53126   1.347  11.511  11.710 -0.3445  0.3207 -0.2661
13716SOL    HW153127   1.253  11.496  11.709 -0.3105 -0.1276  1.4060
13716SOL    HW253128   1.381  11.457  11.638 -1.3420  0.4374 -0.8326
13717SOL     OW53129  11.132  10.366   1.033 -0.7012  0.2812  0.0019
13717SOL    HW153130  11.216  10.323   1.018 -0.0967  1.0059  1.1503
13717SOL    HW253131  11.090  10.314   1.101 -1.5126 -0.4673 -1.0243
13718SOL     OW53132  14.010   3.442   5.539 -0.4042  0.1293  0.3409
13718SOL    HW153133  14.077   3.460   5.605 -0.2986 -0.1703  0.3143
13718SOL    HW253134  14.041   3.489   5.460  1.0227 -1.9422 -0.4118
13719SOL     OW53135  13.095   1.887   4.854  0.2697  0.4431 -0.0821
13719SOL    HW153136  13.176   1.878   4.805 -0.1066  1.3973 -0.9020
13719SOL    HW253137  13.121   1.926   4.937  0.6784  0.5124 -0.2408
13720SOL     OW53138   5.401   5.553   9.853  0.2735  0.1329  0.1214
13720SOL    HW153139   5.345   5.490   9.897  1.4206 -1.9899 -1.2259
13720SOL    HW253140   5.483   5.505   9.838  1.4300  2.1701 -0.4442
13721SOL     OW53141  13.339  11.803   6.337 -0.1859 -0.3821 -0.0236
13721SOL    HW153142  13.278  11.874   6.317 -0.4203 -0.4755  0.3540
13721SOL    HW253143  13.294  11.750   6.403  0.4879 -0.1971  0.5997
13722SOL     OW53144   6.440   4.001  13.338  0.1508 -0.1311 -0.3552
13722SOL    HW153145   6.522   3.962  13.369 -0.1594  0.7832  1.7722
13722SOL    HW253146   6.372   3.948  13.379 -0.3013  0.4709 -0.3198
13723SOL     OW53147   3.367   1.708   8.843 -0.0737  0.7420  0.0995
13723SOL    HW153148   3.315   1.788   8.854  0.8208  1.0565  2.8532
13723SOL    HW253149   3.311   1.638   8.874 -0.2376  0.5248 -0.6723
13724SOL     OW53150  12.479  11.635   0.127  0.0924  0.0413 -0.6440
13724SOL    HW153151  12.480  11.612   0.220  1.3180 -2.9439 -1.2674
13724SOL    HW253152  12.571  11.630   0.100 -0.2569  0.6660 -2.0502
13725SOL     OW53153  11.104   7.799   9.188  0.2092  0.0908 -0.7106
13725SOL    HW153154  11.029   7.743   9.169 -0.1070  0.5531 -0.8422
13725SOL    HW253155  11.161   7.790   9.112 -0.8099  1.5313 -1.6882
13726SOL     OW53156   3.669   0.049  12.315 -0.1376  0.4644  0.1443
13726SOL    HW153157   3.637   0.120  12.369 -1.0893 -0.3405  0.6742
13726SOL    HW253158   3.761   0.041  12.337 -0.0912  1.3273  0.2949
13727SOL     OW53159   4.372   5.938   6.353  0.4029  0.1295  0.5164
13727SOL    HW153160   4.389   5.846   6.373  0.7076  0.1050  0.1374
13727SOL    HW253161   4.351   5.940   6.260 -1.9578  0.1142  0.9737
13728SOL     OW53162  10.088   5.386   7.881  0.3780  0.1579 -0.0375
13728SOL    HW153163  10.154   5.328   7.918 -1.0797 -0.3582  1.9437
13728SOL    HW253164  10.114   5.473   7.911  0.1915 -0.0345  0.6940
13729SOL     OW53165   7.358  13.977  11.511  0.0741  0.1297 -0.0111
13729SOL    HW153166   7.419  13.982  11.438 -1.1438  1.0463 -1.0120
13729SOL    HW253167   7.376  13.892  11.552  0.1738 -0.8400 -1.9456
13730SOL     OW53168   8.562   5.959  11.442 -0.2006  0.5276 -0.0133
13730SOL    HW153169   8.469   5.960  11.465 -0.2788  0.9022 -0.3197
13730SOL    HW253170   8.574   5.877  11.394 -0.5192  0.7713 -0.5245
13731SOL     OW53171  12.723   4.809  11.238 -0.3211  0.1299 -0.1669
13731SOL    HW153172  12.711   4.731  11.185 -0.1767  1.1374 -1.7635
13731SOL    HW253173  12.800   4.791  11.290 -0.3009 -0.7946 -0.4941
13732SOL     OW53174  12.334  12.519   4.807  0.1784  0.3320  0.1718
13732SOL    HW153175  12.283  12.597   4.784 -0.2532 -0.6102 -2.4054
13732SOL    HW253176  12.359  12.481   4.723  0.5031 -2.2284  1.3247
13733SOL     OW53177   4.084   9.470   3.662  0.1299  0.3313 -0.3926
13733SOL    HW153178   4.119   9.384   3.638  3.2078  1.0257  1.0780
13733SOL    HW253179   4.099   9.477   3.756 -0.2104  2.3895 -0.4425
13734SOL     OW53180   0.068   1.140   1.788 -0.1496 -0.3436 -0.1841
13734SOL    HW153181  -0.008   1.091   1.821 -0.0703  0.1282  0.7155
13734SOL    HW253182   0.141   1.106   1.840  0.4512 -1.5386 -1.7492
13735SOL     OW53183  11.744   5.833   2.489  0.2795 -0.3087 -0.8897
13735SOL    HW153184  11.666   5.874   2.452  0.6564  1.4433  0.1517
13735SOL    HW253185  11.715   5.746   2.516 -0.7582 -0.4787 -2.4457
13736SOL     OW53186   8.220   3.553  11.923 -0.0643 -0.3390 -0.1298
13736SOL    HW153187   8.130   3.563  11.955 -0.7179 -1.7551 -1.3953
13736SOL    HW253188   8.266   3.509  11.994  0.1110  1.8398  1.1968
13737SOL     OW53189  13.469   0.462  11.531  0.4640 -0.1179 -0.3052
13737SOL    HW153190  13.456   0.433  11.622 -0.3454 -0.1929 -0.4319
13737SOL    HW253191  13.475   0.557  11.537  3.5816 -0.2497  0.1637
13738SOL     OW53192  11.326  13.221   4.735 -0.0321  0.4283 -0.1367
13738SOL    HW153193  11.388  13.160   4.776  0.6777  0.7414 -0.7160
13738SOL    HW253194  11.271  13.251   4.807  1.2962  1.0894  0.6402
13739SOL     OW53195   8.065   1.381  13.030  0.1694  0.2333  0.4116
13739SOL    HW153196   7.978   1.341  13.024 -0.3340  1.4374 -0.6747
13739SOL    HW253197   8.074   1.404  13.122 -1.2067  1.2139  0.3413
13740SOL     OW53198  11.621   2.451   8.793  0.3333 -0.2719 -0.6306
13740SOL    HW153199  11.627   2.545   8.813  0.7020 -0.5955  0.8886
13740SOL    HW253200  11.527   2.432   8.797  0.3424 -0.1932  0.2860
13741SOL     OW53201  10.156   1.859   7.097 -0.2443 -0.1095 -0.1087
13741SOL    HW153202  10.123   1.852   7.008 -1.8141 -1.7140  0.5367
13741SOL    HW253203  10.225   1.793   7.103  0.0798  0.2164 -0.2145
13742SOL     OW53204   1.293   2.355   0.091  0.0474  0.0428 -0.1394
13742SOL    HW153205   1.366   2.399   0.048 -0.0727 -0.2950 -0.7082
13742SOL    HW253206   1.260   2.418   0.154  0.4302  0.4340 -0.3271
13743SOL     OW53207  13.587   6.822  12.370 -0.0226  0.3326  0.0444
13743SOL    HW153208  13.621   6.840  12.458  0.0252  0.5452 -0.0182
13743SOL    HW253209  13.504   6.868  12.366  0.9290  2.0869 -0.7512
13744SOL     OW53210   0.837  10.121   2.481 -0.3075  0.4511  0.6511
13744SOL    HW153211   0.829  10.067   2.560  0.1470  0.2890  0.5894
13744SOL    HW253212   0.797  10.069   2.412  0.6572 -0.0763  0.4711
13745SOL     OW53213   5.641   1.511   4.101  0.1175 -0.0261  0.0846
13745SOL    HW153214   5.550   1.537   4.114  0.1486  2.4992 -3.3612
13745SOL    HW253215   5.638   1.450   4.027  1.0919 -1.8340  1.4664
13746SOL     OW53216   0.688   2.161   8.342 -0.2905  0.4654 -0.3337
13746SOL    HW153217   0.641   2.179   8.261  1.1033  0.4686 -1.1805
13746SOL    HW253218   0.656   2.075   8.370  1.8048 -1.3123 -2.9241
13747SOL     OW53219   1.143   0.279  13.821  0.1365 -0.4541  0.8143
13747SOL    HW153220   1.098   0.355  13.856 -0.2629 -1.3686  2.3927
13747SOL    HW253221   1.234   0.289  13.849  0.8165  0.9298 -1.5943
13748SOL     OW53222  13.377  12.963   4.574 -0.2183  1.3198 -0.4547
13748SOL    HW153223  13.397  13.029   4.640  0.4532  1.4697 -0.7989
13748SOL    HW253224  13.426  12.991   4.497 -0.5281  0.8268 -0.8374
13749SOL     OW53225   1.611   9.355   8.861 -0.2957 -0.8549 -0.2019
13749SOL    HW153226   1.682   9.295   8.837 -1.6321 -2.4848 -0.2794
13749SOL    HW253227   1.631   9.436   8.815  2.6226 -0.5037  1.4313
13750SOL     OW53228   6.447  14.014  12.434  0.2889  0.6362 -0.2204
13750SOL    HW153229   6.510  14.083  12.456  0.7867  0.3097 -0.5934
13750SOL    HW253230   6.461  13.997  12.341 -2.9414  3.2059 -1.3734
13751SOL     OW53231   4.771  12.507  10.346 -0.2696  0.0469  0.0688
13751SOL    HW153232   4.834  12.442  10.377  1.0099  0.7619 -0.9597
13751SOL    HW253233   4.811  12.592  10.366 -0.0496  0.5296 -2.1423
13752SOL     OW53234   8.516   6.063   8.917 -0.3208  0.6284  0.4101
13752SOL    HW153235   8.539   5.989   8.973 -0.7522  1.7469  2.1814
13752SOL    HW253236   8.438   6.035   8.870 -0.7448  0.0914  1.3997
13753SOL     OW53237   8.076   8.249  11.016 -0.1487 -0.4411 -0.0273
13753SOL    HW153238   8.166   8.250  10.984 -0.9219 -1.4833 -2.4251
13753SOL    HW253239   8.046   8.159  11.004 -1.4989 -0.1378  0.7917
13754SOL     OW53240   4.252   7.372  13.950  0.1178  0.5600 -0.4058
13754SOL    HW153241   4.254   7.449  14.006 -1.3133 -1.3373  2.5346
13754SOL    HW253242   4.328   7.321  13.977 -0.1645 -0.0412 -0.7145
13755SOL     OW53243  10.948  13.416   1.257 -0.3481 -0.0621  0.3115
13755SOL    HW153244  10.975  13.378   1.340 -0.0298 -1.2902 -0.3283
13755SOL    HW253245  11.003  13.494   1.247  0.2485 -0.4106  0.8209
13756SOL     OW53246   7.975   4.351   0.138  0.3624 -0.0649  0.4535
13756SOL    HW153247   7.976   4.334   0.044 -1.2253 -1.3026  0.6039
13756SOL    HW253248   7.967   4.446   0.146 -0.4834 -0.0221 -0.7014
13757SOL     OW53249   5.554   2.099   0.314 -0.6742 -0.7567  0.0756
13757SOL    HW153250   5.494   2.171   0.299 -0.9153 -0.8766  0.4403
13757SOL    HW253251   5.527   2.031   0.252 -0.3147 -0.4599 -0.4119
13758SOL     OW53252  11.095   2.184   6.953  0.5229  0.2278 -0.1631
13758SOL    HW153253  11.159   2.160   7.020 -0.3937 -0.6153  0.4348
13758SOL    HW253254  11.094   2.109   6.892  0.3112  0.3608 -0.3262
13759SOL     OW53255   8.172   7.282   5.056  0.4264  0.4275 -0.3037
13759SOL    HW153256   8.145   7.366   5.019 -0.2984  0.1448 -0.4540
13759SOL    HW253257   8.180   7.224   4.980 -2.1708 -0.4591 -0.0144
13760SOL     OW53258   6.532   7.630   8.694 -0.0480  0.0891  0.5190
13760SOL    HW153259   6.606   7.685   8.664 -0.4270  0.2707 -0.1026
13760SOL    HW253260   6.464   7.645   8.629 -0.7387  0.1385  1.2453
13761SOL     OW53261  11.024   3.716  13.264  0.6373  0.0187  0.1283
13761SOL    HW153262  11.091   3.662  13.305  0.5423 -0.5019 -0.3937
13761SOL    HW253263  10.952   3.657  13.246  0.8312  0.1322 -1.1426
13762SOL     OW53264   8.322   0.134  12.614  0.1963 -0.2848  0.3286
13762SOL    HW153265   8.276   0.051  12.609  0.6131 -0.5308  0.4543
13762SOL    HW253266   8.390   0.128  12.547  0.3674 -0.1369  0.4848
13763SOL     OW53267   8.006  12.973  12.858 -0.4720  0.0199 -0.0135
13763SOL    HW153268   8.006  13.044  12.922 -1.6040  0.8978 -0.9574
13763SOL    HW253269   8.098  12.961  12.836 -0.3399  2.0636 -0.7681
13764SOL     OW53270  13.157   9.562   6.222  0.5484 -0.1971  0.5984
13764SOL    HW153271  13.115   9.645   6.201 -0.2384 -0.8746 -0.6213
13764SOL    HW253272  13.249   9.584   6.234  0.0182  1.1991  2.5652
13765SOL     OW53273   6.457  10.600   5.120  0.5388 -0.3829  0.4592
13765SOL    HW153274   6.463  10.518   5.169 -0.7283 -0.3635  0.6893
13765SOL    HW253275   6.390  10.650   5.166 -1.5395 -0.8072 -1.8722
13766SOL     OW53276  10.163   0.739   8.418 -0.1932 -0.0977 -0.0698
13766SOL    HW153277  10.167   0.644   8.420  2.5488 -0.1011 -1.5089
13766SOL    HW253278  10.128   0.760   8.332 -2.2859  0.2656  0.8063
13767SOL     OW53279   9.975   7.666   8.506 -0.0652  0.4276 -0.7363
13767SOL    HW153280  10.013   7.749   8.477 -0.7927  0.6769 -0.9782
13767SOL    HW253281  10.050   7.607   8.513  0.5872  1.3215  0.2263
13768SOL     OW53282   0.572   3.499   3.306 -0.4348  0.1141  0.1060
13768SOL    HW153283   0.655   3.455   3.326 -0.2454 -0.1279 -1.1285
13768SOL    HW253284   0.594   3.593   3.307 -0.6941  0.1971  2.0921
13769SOL     OW53285   0.573   2.208   7.569 -0.2063 -0.7077  0.7301
13769SOL    HW153286   0.666   2.228   7.567 -0.0920 -1.0575  1.8824
13769SOL    HW253287   0.567   2.115   7.545 -0.3873 -0.3672 -0.6237
13770SOL     OW53288  11.135   6.559  10.257  0.5395 -0.0874 -0.1820
13770SOL    HW153289  11.192   6.547  10.181 -0.5970  0.7050 -1.2083
13770SOL    HW253290  11.178   6.627  10.309  0.8209  0.0863 -0.6396
13771SOL     OW53291   8.641   8.816  10.881 -0.2203 -0.0011 -0.1466
13771SOL    HW153292   8.579   8.746  10.863 -0.7153  0.6757 -1.1900
13771SOL    HW253293   8.611   8.853  10.964 -0.1825 -0.7621  0.2150
13772SOL     OW53294   5.958   4.081   8.341 -0.0519  0.3449 -0.3532
13772SOL    HW153295   5.997   4.060   8.256  1.5175  2.8493 -0.3559
13772SOL    HW253296   5.896   4.151   8.322 -0.2733  0.3817  0.4717
13773SOL     OW53297   7.610   1.431   8.674 -0.3314  0.1536  0.7923
13773SOL    HW153298   7.584   1.386   8.593  1.7990  0.2454 -0.0236
13773SOL    HW253299   7.661   1.365   8.722 -1.2668  0.2228  1.9185
13774SOL     OW53300   8.246  13.058  13.553 -0.4939 -0.3351  0.4177
13774SOL    HW153301   8.307  13.015  13.613  1.4325 -0.7649 -1.7002
13774SOL    HW253302   8.166  13.005  13.557 -1.6467  1.3136  4.6763
13775SOL     OW53303  10.419  11.676   9.895  0.3258 -0.2216 -0.2362
13775SOL    HW153304  10.342  11.622   9.877 -0.9153  1.5460 -0.5669
13775SOL    HW253305  10.493  11.622   9.869 -0.7429 -2.1925  0.5681
13776SOL     OW53306   0.446   0.620  10.165  0.0634 -0.0748  0.0988
13776SOL    HW153307   0.534   0.623  10.126 -0.3392  1.5097 -0.7830
13776SOL    HW253308   0.393   0.672  10.106 -1.4783 -0.9566  0.6643
13777SOL     OW53309   5.037   7.277  13.829 -0.2029  0.1285  0.3604
13777SOL    HW153310   5.006   7.334  13.759 -1.8869  1.3901  2.0353
13777SOL    HW253311   4.966   7.275  13.892 -0.1879 -3.8249  0.4868
13778SOL     OW53312   7.956   2.760   5.544 -0.2232  0.1967  0.1956
13778SOL    HW153313   7.861   2.746   5.549 -0.5556  0.9453 -2.4256
13778SOL    HW253314   7.969   2.846   5.582 -0.8481  0.7467 -0.7858
13779SOL     OW53315  11.240   9.936  12.104  0.0375 -0.1474  0.3318
13779SOL    HW153316  11.265   9.889  12.184 -0.1391  0.3921  0.7128
13779SOL    HW253317  11.144   9.933  12.105  0.0413 -0.5753 -0.1318
13780SOL     OW53318   4.581   1.635   5.565 -0.0471  0.1921 -0.5329
13780SOL    HW153319   4.670   1.620   5.535  0.0093 -0.4449 -0.0625
13780SOL    HW253320   4.557   1.555   5.611 -0.5073  0.7421  0.2066
13781SOL     OW53321  13.032  14.045   7.002 -0.4590 -0.3279  0.1638
13781SOL    HW153322  13.084  14.079   6.930 -0.6865 -0.2415  0.0403
13781SOL    HW253323  13.007  14.123   7.052  1.3202 -0.5130  1.4557
13782SOL     OW53324   3.043   7.357   9.452  0.2839  0.2028  0.3465
13782SOL    HW153325   3.093   7.297   9.507 -0.8540  1.0036  2.3830
13782SOL    HW253326   3.107   7.421   9.421  0.6158  1.2947  3.0064
13783SOL     OW53327   6.049   3.262   6.018  0.0491 -0.6414  0.3314
13783SOL    HW153328   6.045   3.196   6.087  1.3456 -1.9487 -0.7682
13783SOL    HW253329   5.977   3.240   5.960  0.0781 -0.6764  0.3088
13784SOL     OW53330   5.843   9.564   0.429  0.0568 -0.2829 -0.0661
13784SOL    HW153331   5.809   9.508   0.498 -1.3515  0.0050 -0.4836
13784SOL    HW253332   5.852   9.506   0.353 -2.0869  0.1286 -0.7059
13785SOL     OW53333  13.779   2.381   6.345  1.0125  0.3171 -0.3187
13785SOL    HW153334  13.716   2.453   6.346  0.3805 -0.2187 -0.5062
13785SOL    HW253335  13.725   2.303   6.360  1.8838  0.0217  1.5390
13786SOL     OW53336   5.487   2.353   6.098 -0.6202  0.2227 -0.6539
13786SOL    HW153337   5.418   2.408   6.062 -1.2376  0.0669  0.2418
13786SOL    HW253338   5.518   2.401   6.175 -0.2521 -0.0681 -0.6148
13787SOL     OW53339  13.004   4.163  10.678 -0.1784 -0.0690 -0.2823
13787SOL    HW153340  12.993   4.135  10.769  0.5151 -0.3139 -0.2716
13787SOL    HW253341  13.039   4.252  10.684 -0.7470  0.1639 -0.3168
13788SOL     OW53342  10.800   2.944   5.380 -0.5892  0.3392  0.4402
13788SOL    HW153343  10.852   2.926   5.458 -0.2194 -0.0629  0.1069
13788SOL    HW253344  10.853   3.007   5.329 -0.8276  0.5997  0.5096
13789SOL     OW53345   2.762   5.658   1.358  0.3756  0.5101  0.3691
13789SOL    HW153346   2.839   5.713   1.373  0.2389  0.4278  1.4020
13789SOL    HW253347   2.725   5.643   1.445  0.1081 -0.7786  0.0570
13790SOL     OW53348   3.405   2.430   5.131  0.2601 -0.4016 -0.0757
13790SOL    HW153349   3.482   2.402   5.180 -0.2324  0.4482  1.2689
13790SOL    HW253350   3.387   2.358   5.071  1.1470 -1.3195  0.7166
13791SOL     OW53351   8.922  10.059   3.798  0.3934  0.5483  0.1869
13791SOL    HW153352   8.861  10.023   3.734  0.5340  0.5380  0.0588
13791SOL    HW253353   8.983   9.987   3.816  0.3190  0.5310  0.3781
13792SOL     OW53354   1.897   4.340   4.426  0.3141  0.2087 -0.3146
13792SOL    HW153355   1.885   4.357   4.520  0.1354  0.4802 -0.3857
13792SOL    HW253356   1.900   4.427   4.387 -1.2636  0.0829 -0.7746
13793SOL     OW53357  12.725  13.924   3.951  0.1182 -0.3400  0.0743
13793SOL    HW153358  12.782  14.001   3.948  1.5553 -1.3680 -0.2779
13793SOL    HW253359  12.716  13.904   4.044  0.2108 -0.0843  0.1392
13794SOL     OW53360  12.072  12.862  10.647  0.1336  0.9464 -0.2136
13794SOL    HW153361  12.060  12.904  10.562 -0.1849  0.9649 -0.1600
13794SOL    HW253362  12.023  12.917  10.708 -1.2779 -0.1343 -0.3182
13795SOL     OW53363   0.553  10.329   1.554  0.0577  0.5698 -0.2937
13795SOL    HW153364   0.614  10.357   1.622 -1.8032 -0.1347  1.7654
13795SOL    HW253365   0.536  10.237   1.572 -1.9608  0.8538 -0.5058
13796SOL     OW53366   3.179  13.244   2.312  0.2910 -0.2234 -0.6378
13796SOL    HW153367   3.181  13.197   2.229 -3.5015 -2.1937  0.1182
13796SOL    HW253368   3.159  13.335   2.288 -1.5990 -0.9112 -1.9796
13797SOL     OW53369  10.826   6.983  11.942 -0.0141 -0.0566 -0.1301
13797SOL    HW153370  10.899   6.977  12.004 -0.9802 -0.9898  0.9661
13797SOL    HW253371  10.847   7.059  11.887  0.8478  0.8220  1.3616
13798SOL     OW53372   4.121   3.614  13.655 -0.1936  0.1719 -0.4117
13798SOL    HW153373   4.047   3.592  13.599 -1.5340 -0.4498  1.4804
13798SOL    HW253374   4.174   3.675  13.604 -0.2651 -1.8330 -3.0650
13799SOL     OW53375   8.901   3.186   2.715 -0.3542  0.0968 -0.0761
13799SOL    HW153376   8.817   3.140   2.714  0.9701 -2.4844  0.5588
13799SOL    HW253377   8.926   3.190   2.807  0.2286  0.8500 -0.2518
13800SOL     OW53378  10.498   5.488   9.574  0.0611  0.0708 -0.9440
13800SOL    HW153379  10.494   5.412   9.632  0.1226  1.2107  0.5940
13800SOL    HW253380  10.449   5.461   9.496 -3.1635 -0.2993  1.0633
13801SOL     OW53381   5.006  11.349  12.429 -0.1855  0.2042  0.1860
13801SOL    HW153382   5.021  11.442  12.447 -1.9708  0.5421  0.1156
13801SOL    HW253383   5.034  11.304  12.508 -1.4253  1.0335  1.1336
13802SOL     OW53384   8.199   4.082   1.520 -0.5284  0.6894  0.2470
13802SOL    HW153385   8.202   4.126   1.435 -0.7018  0.0345 -0.1026
13802SOL    HW253386   8.283   4.037   1.526 -1.3052 -0.9375 -0.4986
13803SOL     OW53387   9.096   3.605  12.420  0.1212 -0.0592  0.2424
13803SOL    HW153388   9.035   3.668  12.384 -0.6704 -1.1010 -0.3087
13803SOL    HW253389   9.103   3.537  12.353  1.2764 -0.3541  0.6306
13804SOL     OW53390  13.010  13.477   2.157 -0.0213  0.2022 -0.1390
13804SOL    HW153391  12.986  13.559   2.114  1.6559  1.0318  0.4420
13804SOL    HW253392  13.023  13.501   2.249 -3.8763 -1.5852  1.1043
13805SOL     OW53393  10.793   9.475   9.451  0.3578  0.0526  0.0383
13805SOL    HW153394  10.876   9.503   9.490 -0.3930  1.1812  0.9025
13805SOL    HW253395  10.767   9.549   9.395 -0.1636 -0.1911 -0.0476
13806SOL     OW53396  12.647   3.771  10.803  0.0110  0.1009 -0.4254
13806SOL    HW153397  12.568   3.747  10.853  0.9469  1.9238  2.1301
13806SOL    HW253398  12.716   3.778  10.869  2.0396 -0.0529 -2.4060
13807SOL     OW53399   2.459   3.375   4.974  0.6470  0.5547 -0.0636
13807SOL    HW153400   2.516   3.312   4.931  2.1168  1.3457  0.6439
13807SOL    HW253401   2.476   3.364   5.067  0.3716  1.4773  0.1118
13808SOL     OW53402   6.426   8.853   8.044  0.0116  0.0321 -0.6968
13808SOL    HW153403   6.489   8.912   8.084  0.0682 -0.8972  0.6589
13808SOL    HW253404   6.471   8.769   8.040 -0.9933 -0.5522 -0.0595
13809SOL     OW53405   9.303   3.037   7.469  0.0887  0.3144  0.3206
13809SOL    HW153406   9.255   2.960   7.501  1.7867 -0.6365  0.6920
13809SOL    HW253407   9.284   3.105   7.534 -0.4671 -0.1306  0.6394
13810SOL     OW53408   4.416   6.180   1.055 -0.2934  0.0619 -0.3596
13810SOL    HW153409   4.400   6.187   1.149  0.7129  0.5114 -0.2094
13810SOL    HW253410   4.343   6.227   1.015 -0.5156  0.2102  0.2068
13811SOL     OW53411   5.453   5.171   5.868  0.1328  0.2018 -0.2401
13811SOL    HW153412   5.512   5.101   5.841  0.4150 -0.0645  1.0377
13811SOL    HW253413   5.509   5.238   5.906 -0.3528  0.0362  0.7992
13812SOL     OW53414   9.155  12.257  13.638 -0.1955 -0.0793  0.3158
13812SOL    HW153415   9.224  12.192  13.638 -0.1489 -0.0898  2.6545
13812SOL    HW253416   9.080  12.212  13.598  0.1743 -1.1904  0.8347
13813SOL     OW53417   2.172   8.720   3.389 -0.3532  0.7095  0.7272
13813SOL    HW153418   2.221   8.771   3.453  1.7494  1.3869 -1.2791
13813SOL    HW253419   2.127   8.786   3.336  0.9196  0.4382 -0.7556
13814SOL     OW53420   7.522   9.005   5.953 -0.5145 -0.2831  0.1738
13814SOL    HW153421   7.523   9.081   6.011  0.6279 -0.0048 -0.1694
13814SOL    HW253422   7.592   9.023   5.890 -1.4033 -0.8037 -0.9900
13815SOL     OW53423  12.000  12.273  12.074 -0.2732 -0.0852 -0.4950
13815SOL    HW153424  11.909  12.299  12.059 -0.0188  1.7124  0.7995
13815SOL    HW253425  12.024  12.315  12.156  1.1893 -2.0210  0.1467
13816SOL     OW53426   4.761   6.147   7.756 -0.3629  0.2601 -0.1365
13816SOL    HW153427   4.849   6.177   7.732 -0.0762  0.8691  1.5366
13816SOL    HW253428   4.772   6.053   7.774 -0.3422  0.0569 -1.1544
13817SOL     OW53429  12.885   8.592   4.057  0.0471  0.2375 -0.2520
13817SOL    HW153430  12.966   8.560   4.098 -0.1352  1.5238  1.1805
13817SOL    HW253431  12.896   8.572   3.964  0.7351 -2.2431  0.2943
13818SOL     OW53432   7.570   6.501  13.975  0.1577 -0.2588 -0.4690
13818SOL    HW153433   7.603   6.587  14.002  1.3725 -0.6564 -0.6230
13818SOL    HW253434   7.518   6.519  13.897 -1.1127  0.5510  0.5337
13819SOL     OW53435   9.611   1.847   9.222  0.1153  0.5068 -0.4516
13819SOL    HW153436   9.556   1.823   9.148 -0.7242 -1.2642  0.6861
13819SOL    HW253437   9.680   1.781   9.223  0.4172  0.8226  0.0433
13820SOL     OW53438   1.988   1.504  13.915  0.4664  0.1057 -0.2187
13820SOL    HW153439   2.013   1.589  13.950 -0.6153 -0.2631  1.5686
13820SOL    HW253440   1.901   1.517  13.878  1.1237  0.2115 -1.8258
13821SOL     OW53441   6.884   2.525  11.837  0.3160 -0.7861  0.3344
13821SOL    HW153442   6.821   2.497  11.770  1.3812 -1.0642 -0.5760
13821SOL    HW253443   6.897   2.618  11.818  1.1948 -1.0331 -0.3606
13822SOL     OW53444  11.056   9.527   9.529  0.4942  0.2346 -0.1688
13822SOL    HW153445  11.073   9.621   9.521  1.8041  0.2230  1.9207
13822SOL    HW253446  11.143   9.486   9.529  0.0089 -0.8447  0.4280
13823SOL     OW53447   3.632   5.504  10.877  0.4386  0.4327 -0.0855
13823SOL    HW153448   3.675   5.419  10.868  1.0603  0.8241 -0.9815
13823SOL    HW253449   3.664   5.538  10.960 -0.6049 -0.6325  0.7861
13824SOL     OW53450   7.913  10.142  12.408  0.3414  0.1761  0.1727
13824SOL    HW153451   7.990  10.171  12.358  0.0195  2.5607  0.9276
13824SOL    HW253452   7.839  10.179  12.361 -0.0044  1.9525  1.9946
13825SOL     OW53453  13.265  12.326   2.481 -0.0430  0.0389 -0.0787
13825SOL    HW153454  13.291  12.234   2.481  1.7057  0.4249  2.5530
13825SOL    HW253455  13.324  12.367   2.417 -1.9520 -0.8136 -2.5469
13826SOL     OW53456   0.359  13.198  13.401  0.0417  0.3259 -0.0506
13826SOL    HW153457   0.441  13.166  13.364  0.5240  1.0958  0.3143
13826SOL    HW253458   0.319  13.121  13.441  0.4175 -0.1301 -0.5363
13827SOL     OW53459  11.780  12.742   3.814 -0.1401  0.0119 -0.1049
13827SOL    HW153460  11.784  12.772   3.724 -2.0499 -0.9791 -0.5720
13827SOL    HW253461  11.774  12.822   3.866 -2.6838  0.6037 -1.1441
13828SOL     OW53462   7.288  10.913   5.742 -0.3264  0.0366  0.2740
13828SOL    HW153463   7.211  10.885   5.791 -1.8253 -0.1270 -2.0738
13828SOL    HW253464   7.299  10.846   5.674  0.0235  1.6483 -1.3157
13829SOL     OW53465   2.824  11.079   1.159  0.1389  0.1814  0.3107
13829SOL    HW153466   2.851  11.027   1.084  1.2820  1.4859 -0.2219
13829SOL    HW253467   2.903  11.088   1.213 -0.6238 -0.6059  1.6168
13830SOL     OW53468   1.349   0.794   5.516 -0.2868  0.2646  0.0093
13830SOL    HW153469   1.427   0.738   5.515 -0.6232 -0.2092 -1.3471
13830SOL    HW253470   1.300   0.765   5.593  1.6969  1.7852  1.9605
13831SOL     OW53471   1.784   0.305   3.149  0.2961  0.2457  0.1117
13831SOL    HW153472   1.857   0.366   3.134  0.0242  0.0794 -2.4183
13831SOL    HW253473   1.736   0.306   3.066 -1.7274 -0.8034  1.2146
13832SOL     OW53474  12.642   5.563   6.561  0.4269 -0.2113 -0.7815
13832SOL    HW153475  12.734   5.574   6.534 -0.1664  0.8430 -2.5213
13832SOL    HW253476  12.616   5.650   6.591 -0.5686  0.0328 -2.2593
13833SOL     OW53477  12.360  13.210  13.500 -0.4437 -0.2433  0.1570
13833SOL    HW153478  12.444  13.164  13.507 -0.0226 -0.1526 -2.7858
13833SOL    HW253479  12.310  13.159  13.437 -2.2871  0.2135  1.1996
13834SOL     OW53480   6.016  13.479   7.619 -0.0144  0.2362 -0.3972
13834SOL    HW153481   6.026  13.544   7.550 -1.6431  0.1384 -0.7504
13834SOL    HW253482   5.952  13.416   7.585  0.1276 -0.5288  0.6811
13835SOL     OW53483   5.058   7.846   1.937  0.3296 -0.7444 -0.1371
13835SOL    HW153484   5.072   7.757   1.969  1.5998 -0.0952  1.2552
13835SOL    HW253485   5.014   7.891   2.009 -0.6387 -0.3299 -0.9686
13836SOL     OW53486  12.195  12.756   5.282 -0.4099  0.5648  0.0073
13836SOL    HW153487  12.172  12.797   5.365  0.1808 -0.8506  0.9239
13836SOL    HW253488  12.275  12.707   5.302  0.5078  1.2834 -1.7638
13837SOL     OW53489  12.757  12.610   6.087  0.1124 -0.1047 -0.4194
13837SOL    HW153490  12.827  12.631   6.149 -1.4609 -2.2770  2.3511
13837SOL    HW253491  12.781  12.525   6.051 -0.6302 -0.4216 -0.1827
13838SOL     OW53492   1.602   5.332   3.857 -0.2496 -0.5188 -0.0575
13838SOL    HW153493   1.685   5.378   3.873 -1.3540  1.6648 -0.2182
13838SOL    HW253494   1.619   5.242   3.885  2.0164 -0.0215  0.3810
13839SOL     OW53495   9.786  12.525  10.488  0.4884  0.4417 -0.1146
13839SOL    HW153496   9.875  12.491  10.487  0.0773 -0.7338 -2.0657
13839SOL    HW253497   9.731  12.448  10.472 -0.6458  1.5964 -2.1624
13840SOL     OW53498   4.065   1.793   2.886 -0.2665 -0.2599 -0.2362
13840SOL    HW153499   3.970   1.800   2.876 -0.2547 -0.0911 -0.2498
13840SOL    HW253500   4.082   1.700   2.896 -0.4270 -0.2978 -0.3132
13841SOL     OW53501  12.593   0.417   7.138  0.3818 -0.0023 -0.0616
13841SOL    HW153502  12.592   0.511   7.121  0.7545  0.7061  3.2178
13841SOL    HW253503  12.681   0.389   7.113  0.8536  0.9015  0.5133
13842SOL     OW53504  13.947   7.749   0.350 -0.1526  0.3454 -0.5417
13842SOL    HW153505  14.004   7.704   0.288  0.5446  0.4325  0.0190
13842SOL    HW253506  14.007   7.797   0.408 -0.7526 -0.0918  0.4757
13843SOL     OW53507   7.038   6.640  11.745 -0.1546 -0.1100 -0.6521
13843SOL    HW153508   7.079   6.558  11.770 -1.4764 -0.0377  2.0897
13843SOL    HW253509   7.053   6.647  11.650  0.1863 -3.3583 -0.9233
13844SOL     OW53510   0.058   8.115  13.559  0.1373  0.1821  0.0770
13844SOL    HW153511   0.045   8.189  13.619  0.7841  0.6834 -0.3755
13844SOL    HW253512   0.016   8.143  13.477  0.8809  0.2982 -0.2731
13845SOL     OW53513   3.424   2.114   6.142 -0.0523 -0.1505  0.4205
13845SOL    HW153514   3.476   2.086   6.066  0.5456  1.2095  0.2873
13845SOL    HW253515   3.336   2.081   6.125  0.5841 -1.9056  0.3040
13846SOL     OW53516  13.079   1.185   9.154 -0.1351 -0.6543 -0.1085
13846SOL    HW153517  13.115   1.195   9.065  0.0354  0.2646  0.0584
13846SOL    HW253518  12.995   1.231   9.151 -1.3843 -2.8084 -0.5069
13847SOL     OW53519   3.689  12.173   0.671 -0.0532 -0.8545  0.6411
13847SOL    HW153520   3.647  12.151   0.588 -0.1168 -2.0218  0.9641
13847SOL    HW253521   3.742  12.250   0.651 -0.4617 -0.8120 -0.3541
13848SOL     OW53522   6.382   4.746   8.821 -0.8274 -0.2770  0.3844
13848SOL    HW153523   6.430   4.664   8.814 -2.4696 -1.4042  1.5409
13848SOL    HW253524   6.428   4.795   8.889 -0.0592 -0.3939 -0.0478
13849SOL     OW53525  11.197   9.884   0.719  0.2424 -0.6799 -0.0403
13849SOL    HW153526  11.208   9.936   0.640 -0.0325 -0.6290 -0.0477
13849SOL    HW253527  11.102   9.879   0.731  0.2955  0.0981  0.8094
13850SOL     OW53528  13.289   5.817   4.664  0.1123 -0.4356  0.2565
13850SOL    HW153529  13.205   5.863   4.660 -0.0484 -0.7796 -0.5433
13850SOL    HW253530  13.299   5.792   4.756 -1.0045 -1.0073  0.2358
13851SOL     OW53531   2.938   8.412   3.208 -0.2079 -0.1968 -0.0150
13851SOL    HW153532   2.954   8.318   3.194 -0.8793 -0.1842 -0.9082
13851SOL    HW253533   2.937   8.421   3.303  1.4131 -0.8195  0.1027
13852SOL     OW53534  10.581   0.895  12.935 -0.9500  0.0741  0.4922
13852SOL    HW153535  10.563   0.963  12.870 -0.0545  0.7821  0.9618
13852SOL    HW253536  10.535   0.925  13.014 -0.6505  0.0909  0.6651
13853SOL     OW53537   4.474   3.351   1.940 -0.2444 -0.5715 -0.1197
13853SOL    HW153538   4.567   3.363   1.917 -0.0905  0.8555  1.1177
13853SOL    HW253539   4.448   3.273   1.891  1.5248 -0.8337 -0.7369
13854SOL     OW53540  11.284   7.470  12.360 -0.0993 -0.6227  0.6711
13854SOL    HW153541  11.369   7.434  12.333 -0.4618 -0.2741 -1.0184
13854SOL    HW253542  11.302   7.513  12.444  1.0066 -2.0259  1.2123
13855SOL     OW53543   0.677  10.428   8.721 -0.5064 -0.3509 -0.5567
13855SOL    HW153544   0.613  10.419   8.650 -0.9691 -1.8806  0.0133
13855SOL    HW253545   0.631  10.477   8.789 -0.2055  0.7434 -1.1207
13856SOL     OW53546   3.801   0.627   9.733  0.3070 -0.7650  0.1759
13856SOL    HW153547   3.847   0.552   9.770  2.3372 -0.1779 -1.0095
13856SOL    HW253548   3.743   0.591   9.666 -2.4585 -1.7025  2.8074
13857SOL     OW53549  13.624   1.455  10.824  0.3565  0.1832  0.1806
13857SOL    HW153550  13.705   1.480  10.869  0.0136  0.5269  0.6163
13857SOL    HW253551  13.619   1.513  10.749  0.3822  0.3327  0.2957
13858SOL     OW53552   5.495   7.084  13.770  0.1398 -0.0807 -0.4404
13858SOL    HW153553   5.521   7.176  13.763 -1.2655  0.3662 -0.0275
13858SOL    HW253554   5.407   7.087  13.808  0.4901 -1.6343  0.5832
13859SOL     OW53555   7.825   8.678  14.010  0.1379 -0.0522 -0.1800
13859SOL    HW153556   7.767   8.710  13.941  0.5106  0.9320 -0.0487
13859SOL    HW253557   7.807   8.584  14.015 -2.2225  0.3678  0.5785
13860SOL     OW53558   0.370   0.743   3.420  0.5496 -0.1590 -0.0417
13860SOL    HW153559   0.417   0.799   3.481  0.1480  0.4041 -0.2380
13860SOL    HW253560   0.297   0.797   3.389  1.0692 -0.2159 -1.4568
13861SOL     OW53561   1.862   8.464   6.734  0.3450  0.0532 -0.0878
13861SOL    HW153562   1.855   8.460   6.639 -0.1634 -0.4425 -0.0386
13861SOL    HW253563   1.894   8.552   6.752  0.8084  0.0258 -0.7327
13862SOL     OW53564  13.022   7.579   2.190 -0.1227 -0.0932 -0.8144
13862SOL    HW153565  12.969   7.636   2.135  0.0605 -0.4223 -1.3499
13862SOL    HW253566  12.984   7.492   2.176 -1.5713  0.1084  1.3962
13863SOL     OW53567   6.014   8.250   0.237  0.7701 -0.4632 -0.1025
13863SOL    HW153568   6.062   8.185   0.185  1.2838 -0.3079  0.1777
13863SOL    HW253569   6.010   8.212   0.325  0.0923 -0.6233 -0.1929
13864SOL     OW53570   7.977  10.685   1.164 -0.2610  0.3651 -0.1227
13864SOL    HW153571   8.030  10.650   1.236  0.0086 -0.0365 -0.5095
13864SOL    HW253572   8.000  10.778   1.160  0.2779  0.2330 -0.1633
13865SOL     OW53573  10.381   8.748   5.602  0.1905 -0.9101  0.0196
13865SOL    HW153574  10.435   8.689   5.550 -0.1434 -1.1551 -0.0498
13865SOL    HW253575  10.439   8.821   5.623  0.6418 -1.3127  0.2004
13866SOL     OW53576   0.632   5.426   3.532  0.2634 -0.3660 -0.1240
13866SOL    HW153577   0.688   5.452   3.459 -0.2372 -2.4766 -1.3393
13866SOL    HW253578   0.566   5.496   3.538  1.1878  0.5806 -0.7002
13867SOL     OW53579   9.086   5.233   3.560  0.4223 -0.2088 -0.4931
13867SOL    HW153580   9.143   5.300   3.598 -1.6947 -0.0479  2.7678
13867SOL    HW253581   9.004   5.279   3.541 -0.9169 -1.6941  1.3861
13868SOL     OW53582   8.911   6.909   7.359 -0.9634  0.0590 -0.0558
13868SOL    HW153583   8.932   6.984   7.302  3.3040  0.4021  1.6143
13868SOL    HW253584   8.941   6.833   7.310  0.4882  0.1277  0.6753
13869SOL     OW53585  13.547   9.154  12.190  0.0828 -0.3261 -0.2976
13869SOL    HW153586  13.623   9.125  12.239 -0.2851 -0.1608  0.3840
13869SOL    HW253587  13.474   9.107  12.229  0.0880 -2.2204 -2.4182
13870SOL     OW53588   6.962   9.525   3.599  0.0436  0.0703 -0.1579
13870SOL    HW153589   7.017   9.505   3.523  0.1923 -1.0188  0.2199
13870SOL    HW253590   7.018   9.578   3.656  0.7508 -1.0967  0.2601
13871SOL     OW53591  12.433  13.320  10.720  0.4383 -0.2332  0.6302
13871SOL    HW153592  12.471  13.367  10.794  0.1993 -0.8007  1.1223
13871SOL    HW253593  12.483  13.238  10.716 -0.6962 -0.9845  1.2754
13872SOL     OW53594   2.654   8.017   5.649 -0.4033 -0.2637 -0.4345
13872SOL    HW153595   2.589   7.978   5.707  0.3807 -2.2247 -0.7886
13872SOL    HW253596   2.621   8.000   5.561 -0.3522  0.4510 -0.5976
13873SOL     OW53597   1.172  11.214   0.656 -0.4355  0.2107  0.3609
13873SOL    HW153598   1.113  11.224   0.580 -0.2089 -1.6681 -0.1044
13873SOL    HW253599   1.259  11.211   0.618 -0.3769 -1.7501  0.5370
13874SOL     OW53600   6.853   6.748   2.422 -0.2445  0.0404 -0.1214
13874SOL    HW153601   6.866   6.829   2.371 -2.3131 -0.3639 -1.4493
13874SOL    HW253602   6.892   6.680   2.369 -0.3243 -0.0855 -0.0189
13875SOL     OW53603   1.603   6.683   5.587 -0.1065  0.0840  0.5673
13875SOL    HW153604   1.549   6.761   5.576 -1.9219 -1.1563  0.2195
13875SOL    HW253605   1.630   6.661   5.498  2.6870  1.7588  0.8838
13876SOL     OW53606   9.821   6.581   7.882  0.8383  0.2949  0.2998
13876SOL    HW153607   9.850   6.491   7.897  0.4782  0.0268 -0.5610
13876SOL    HW253608   9.732   6.584   7.918  1.5467  0.8667  2.1121
13877SOL     OW53609   2.620   9.805   8.477  0.2788 -0.1058 -0.6809
13877SOL    HW153610   2.683   9.856   8.426  0.7170  0.1529  0.1053
13877SOL    HW253611   2.539   9.855   8.471 -0.0221 -0.7121 -2.1425
13878SOL     OW53612  12.846   7.956  12.332 -0.3579  0.2106 -0.0125
13878SOL    HW153613  12.918   7.969  12.270  1.8949 -1.3839  2.0745
13878SOL    HW253614  12.855   7.865  12.361 -4.6917 -0.8948 -1.2852
13879SOL     OW53615  12.952  10.816   5.735 -0.2127  0.1268 -0.1789
13879SOL    HW153616  12.873  10.838   5.687 -0.8595  0.4204  0.9746
13879SOL    HW253617  12.998  10.900   5.747 -0.8508  0.3228  1.0550
13880SOL     OW53618   9.837  11.064   3.313  0.2821  0.4976 -0.2807
13880SOL    HW153619   9.782  10.994   3.347  0.1126  0.6102 -0.3221
13880SOL    HW253620   9.911  11.068   3.374 -0.2007  0.9440  0.2836
13881SOL     OW53621   7.231  12.182  11.396 -0.0722  0.1400 -0.4153
13881SOL    HW153622   7.274  12.116  11.342  0.0001  0.3129 -0.5691
13881SOL    HW253623   7.210  12.136  11.478 -0.3576 -0.1732 -0.6615
13882SOL     OW53624   7.685  11.895  12.624  0.4305 -0.6094  0.2419
13882SOL    HW153625   7.659  11.806  12.647 -1.4106 -0.4393 -1.0018
13882SOL    HW253626   7.756  11.884  12.561 -1.2855 -1.3081 -1.6660
13883SOL     OW53627   7.029  10.466   4.536  0.1672 -0.4792 -0.3179
13883SOL    HW153628   7.030  10.410   4.458  0.4245 -0.5402 -0.2704
13883SOL    HW253629   7.090  10.425   4.596 -0.4237 -0.7241  0.1243
13884SOL     OW53630   7.651  11.997  12.862  0.0341 -0.1749 -0.1267
13884SOL    HW153631   7.564  11.958  12.871 -0.9791  1.4736 -2.0610
13884SOL    HW253632   7.678  11.974  12.774  0.7072  0.9532 -0.2298
13885SOL     OW53633   9.549  11.191   6.057  0.5207 -0.5146 -0.0062
13885SOL    HW153634   9.639  11.212   6.034  1.2251 -3.5192 -0.4464
13885SOL    HW253635   9.500  11.205   5.976  0.0344  3.1632  0.7440
13886SOL     OW53636  13.755   8.616   4.790 -0.4477  0.4888  0.1127
13886SOL    HW153637  13.715   8.661   4.715 -1.3051 -0.4158  0.0132
13886SOL    HW253638  13.795   8.537   4.752 -0.3579  0.3383  0.5160
13887SOL     OW53639  11.038   7.855   8.828  0.1490  0.2032 -0.4695
13887SOL    HW153640  10.988   7.846   8.747 -0.5455  0.6052 -0.1025
13887SOL    HW253641  11.125   7.883   8.800 -0.4340  1.5342 -1.0167
13888SOL     OW53642  11.006   9.448  10.645 -0.2154 -0.5663 -0.2342
13888SOL    HW153643  10.936   9.393  10.611 -1.1497  1.5349 -1.8476
13888SOL    HW253644  11.060   9.470  10.569  0.1975  0.6566  0.3757
13889SOL     OW53645   7.872   7.558   2.047 -0.1145 -0.6917  0.1105
13889SOL    HW153646   7.872   7.572   1.952 -3.2286  0.7289  0.2113
13889SOL    HW253647   7.876   7.645   2.085  1.7358 -1.2564  1.4088
13890SOL     OW53648  13.565  13.027  10.377 -0.0162  0.1825 -0.3097
13890SOL    HW153649  13.469  13.025  10.375 -0.1654  0.6466  2.5213
13890SOL    HW253650  13.588  13.110  10.335 -0.9836  0.8599  0.4533
13891SOL     OW53651   4.087  12.117   8.622  0.2756  0.0413 -0.5933
13891SOL    HW153652   4.116  12.068   8.544  1.0135 -1.0349  0.3211
13891SOL    HW253653   4.100  12.056   8.695  0.4860  1.3549  0.5066
13892SOL     OW53654   9.111   4.407  13.609  0.1995 -0.6085  0.2168
13892SOL    HW153655   9.183   4.379  13.665  1.2712 -1.8629 -1.6667
13892SOL    HW253656   9.050   4.333  13.608  0.4182 -0.7897 -0.5976
13893SOL     OW53657   1.282   8.909  11.751  0.4663  0.4561 -0.0908
13893SOL    HW153658   1.209   8.944  11.700 -0.6012 -0.7896  0.5216
13893SOL    HW253659   1.339   8.868  11.686 -1.0288 -1.3723 -0.3231
13894SOL     OW53660  11.645   4.460  11.489 -0.5895  0.3803 -0.5638
13894SOL    HW153661  11.601   4.377  11.472  0.4218 -0.1831 -0.4579
13894SOL    HW253662  11.697   4.476  11.411 -0.4644  0.7107 -0.4119
13895SOL     OW53663   2.238   0.761   4.336 -0.1205 -0.0404 -0.0456
13895SOL    HW153664   2.230   0.685   4.278 -4.6402  0.1310 -0.0289
13895SOL    HW253665   2.243   0.723   4.424 -1.0478 -0.3667 -0.1215
13896SOL     OW53666   2.453  12.711   7.218  0.3229 -0.4056  0.1213
13896SOL    HW153667   2.395  12.637   7.236 -0.4700  0.3287  0.6645
13896SOL    HW253668   2.395  12.779   7.184  1.2610 -0.5210 -1.8307
13897SOL     OW53669  10.587   5.120  13.081  0.3814  0.4516 -0.0056
13897SOL    HW153670  10.610   5.027  13.079  0.4658  0.4761 -0.2966
13897SOL    HW253671  10.663   5.163  13.121 -0.3139  0.2236  1.6506
13898SOL     OW53672   2.779   5.682   7.150 -0.2523 -0.4390 -0.0862
13898SOL    HW153673   2.788   5.709   7.059  3.1520  0.5916  0.4038
13898SOL    HW253674   2.697   5.632   7.153 -0.1586 -1.0814 -3.8007
13899SOL     OW53675   6.223   9.688   3.966  0.4713 -0.4563  0.2480
13899SOL    HW153676   6.239   9.718   3.876  0.2010 -2.0798 -0.3645
13899SOL    HW253677   6.131   9.710   3.982 -0.0847 -2.0213 -0.6506
13900SOL     OW53678  11.247   0.813  11.539 -0.0239 -0.4388 -0.0035
13900SOL    HW153679  11.239   0.842  11.630 -0.0943  0.0830 -0.1726
13900SOL    HW253680  11.250   0.718  11.545  0.2815 -0.3996  0.5671
13901SOL     OW53681   2.190   4.016   7.207  0.4730  0.3428 -0.0275
13901SOL    HW153682   2.267   3.962   7.225  1.0473  0.9763 -0.4885
13901SOL    HW253683   2.146   4.025   7.291  0.9374  0.0089  0.2552
13902SOL     OW53684  12.563   6.628   8.915  0.2324  0.1607  0.1935
13902SOL    HW153685  12.526   6.609   8.829 -0.7038  0.7859  0.4449
13902SOL    HW253686  12.532   6.556   8.970 -1.3517  1.1186  0.5993
13903SOL     OW53687   7.018   7.410  11.824 -0.4385  0.1828  0.5164
13903SOL    HW153688   6.993   7.341  11.886  0.0130 -0.2901  0.1715
13903SOL    HW253689   7.100   7.445  11.859  0.3125 -0.7107 -0.2961
13904SOL     OW53690   2.121   5.328   3.419  0.0403  0.0401 -0.6153
13904SOL    HW153691   2.122   5.407   3.365  1.6876  0.4220 -0.1168
13904SOL    HW253692   2.214   5.308   3.432 -0.2964 -0.4910  1.3715
13905SOL     OW53693   4.256   5.935   3.212 -0.1242 -0.5447  0.0268
13905SOL    HW153694   4.340   5.889   3.208 -1.2098 -2.6668 -0.2370
13905SOL    HW253695   4.278   6.026   3.232  2.1602 -1.2290  0.8887
13906SOL     OW53696  13.711   2.024   7.377 -0.6398 -0.5228  0.6584
13906SOL    HW153697  13.624   2.025   7.336 -0.6744 -2.5104  0.5817
13906SOL    HW253698  13.698   1.982   7.462  0.1227 -0.1446  0.9746
13907SOL     OW53699   2.290  10.445   7.035 -0.1992 -0.8482  0.2905
13907SOL    HW153700   2.337  10.361   7.040 -0.1675 -0.9449 -1.1547
13907SOL    HW253701   2.328  10.489   6.959 -0.6165  0.2484  0.6903
13908SOL     OW53702  11.676   2.967  12.947  0.1010 -1.1748  0.0263
13908SOL    HW153703  11.631   3.050  12.931 -2.1061 -1.6123  3.0267
13908SOL    HW253704  11.714   2.977  13.034  0.8102 -2.9388 -0.0362
13909SOL     OW53705  10.134   9.406   6.629 -0.0490  0.3556  0.1478
13909SOL    HW153706  10.098   9.317   6.627  2.2087 -0.6111 -0.1197
13909SOL    HW253707  10.092   9.450   6.554  0.5357 -1.2405 -1.1900
13910SOL     OW53708  13.782   6.483   3.101  0.6142 -0.1460 -0.1895
13910SOL    HW153709  13.809   6.531   3.180  0.7485 -0.8411  0.1914
13910SOL    HW253710  13.711   6.427   3.129  0.5111 -0.2356 -0.6160
13911SOL     OW53711  13.893  13.552   0.469  0.2483 -0.0237  0.0795
13911SOL    HW153712  13.973  13.521   0.512  0.1843 -1.7707 -0.9557
13911SOL    HW253713  13.870  13.632   0.516  0.8773 -1.1470  2.4613
13912SOL     OW53714  10.018  10.840  10.897  0.2088 -0.3708 -0.2459
13912SOL    HW153715   9.948  10.799  10.948 -0.6244  0.6225 -0.5647
13912SOL    HW253716  10.038  10.920  10.944  1.7229 -1.0259  0.2813
13913SOL     OW53717   8.911   7.901   8.651  0.9994  0.4418  0.0585
13913SOL    HW153718   8.871   7.826   8.694 -0.3735  0.7897 -0.5328
13913SOL    HW253719   8.972   7.936   8.715  0.0574  0.0968  1.1855
13914SOL     OW53720  11.018   3.901   9.303  0.2600 -0.4803  0.0951
13914SOL    HW153721  11.028   3.838   9.374 -0.7684 -1.1301 -0.3041
13914SOL    HW253722  10.996   3.983   9.347  0.8980 -0.5643  0.5837
13915SOL     OW53723   8.256   4.897   5.926  0.2047 -0.2382 -0.4258
13915SOL    HW153724   8.319   4.950   5.975 -1.5294  1.3124  0.2613
13915SOL    HW253725   8.206   4.850   5.993 -2.1779  1.8859 -0.5274
13916SOL     OW53726   2.155   8.918   0.800  0.1520 -0.1735 -0.0729
13916SOL    HW153727   2.244   8.940   0.775 -0.0842  0.4919 -0.3526
13916SOL    HW253728   2.119   8.870   0.725 -0.1313  0.6671 -0.4777
13917SOL     OW53729   2.045  10.846   3.738 -0.0060  0.1322  1.0305
13917SOL    HW153730   1.976  10.791   3.775  0.4975 -0.2054  1.4879
13917SOL    HW253731   2.064  10.910   3.807 -0.3977  0.7162  0.6057
13918SOL     OW53732  14.000   9.479   2.159 -0.0198 -0.1727  0.1824
13918SOL    HW153733  14.048   9.483   2.077 -1.9986 -0.8750 -1.0952
13918SOL    HW253734  13.960   9.566   2.169 -1.6001 -0.7299 -0.8414
13919SOL     OW53735   8.997  11.101   3.016 -0.3398  0.2162 -0.3024
13919SOL    HW153736   8.977  11.024   3.069 -2.1228  1.1988  0.5341
13919SOL    HW253737   9.063  11.070   2.954 -0.4012 -1.7602  0.5303
13920SOL     OW53738  13.356  11.297  11.455 -0.0888 -0.4381 -0.0489
13920SOL    HW153739  13.434  11.308  11.399 -0.3396 -0.0552 -0.3313
13920SOL    HW253740  13.300  11.237  11.406 -0.0771 -0.5206  0.0397
13921SOL     OW53741  11.659   7.858   3.693  0.6872  0.3534  0.3220
13921SOL    HW153742  11.738   7.859   3.747  1.0148 -0.1905 -0.1338
13921SOL    HW253743  11.667   7.778   3.640  0.1122  0.5953 -0.1407
13922SOL     OW53744   3.477   6.839  13.337  0.0919 -0.1838  0.1136
13922SOL    HW153745   3.470   6.932  13.358  1.8025 -0.0769  0.4006
13922SOL    HW253746   3.471   6.835  13.241 -1.8586 -0.0189  0.1936
13923SOL     OW53747   9.754   6.174   8.589  0.2100 -0.4212 -0.0589
13923SOL    HW153748   9.759   6.123   8.670 -0.9821  0.3412  0.5227
13923SOL    HW253749   9.661   6.172   8.565  0.1558  1.2606 -0.1262
13924SOL     OW53750   9.782   1.635   2.259 -0.7512  0.1774  0.6439
13924SOL    HW153751   9.793   1.690   2.337  0.0581 -0.1348  0.7578
13924SOL    HW253752   9.815   1.689   2.187 -0.3698  0.0143  0.6934
13925SOL     OW53753  11.160   1.195  10.618 -0.5105  0.1099  0.8274
13925SOL    HW153754  11.144   1.289  10.611  0.4441  0.2004 -0.5694
13925SOL    HW253755  11.183   1.167  10.529 -0.2942 -1.3516  1.3024
13926SOL     OW53756   6.270   2.716  11.716 -0.9638 -0.2852 -0.2256
13926SOL    HW153757   6.277   2.626  11.685  0.6149 -0.5483  0.7413
13926SOL    HW253758   6.202   2.713  11.784 -0.7769 -0.7993 -0.0571
13927SOL     OW53759   0.743   3.315   4.021  0.7525  0.1218  0.4044
13927SOL    HW153760   0.733   3.340   3.929 -1.5281 -0.6660  0.3751
13927SOL    HW253761   0.821   3.258   4.021  0.6296 -0.0970 -1.0935
13928SOL     OW53762   2.763   2.436   0.092  0.0956  0.1445 -0.2268
13928SOL    HW153763   2.704   2.361   0.089  0.2811  0.0129 -2.2327
13928SOL    HW253764   2.720   2.498   0.151 -0.3327 -1.2792  1.0214
13929SOL     OW53765  12.196  13.843   0.747  0.3380 -0.1108 -0.0311
13929SOL    HW153766  12.121  13.811   0.696 -0.0739  0.2162  0.3694
13929SOL    HW253767  12.244  13.764   0.771 -0.7841 -0.4694  1.1284
13930SOL     OW53768   7.934   7.450  11.740  0.5118  0.0805  0.7533
13930SOL    HW153769   8.015   7.502  11.739  1.6944 -1.6710 -0.9592
13930SOL    HW253770   7.955   7.373  11.794  0.5622 -1.1630 -0.9718
13931SOL     OW53771   1.112   0.962  11.162 -0.3065 -0.1677  0.2387
13931SOL    HW153772   1.162   0.948  11.081  1.8088  1.5121  1.1563
13931SOL    HW253773   1.069   1.046  11.150 -0.6686 -0.3028  0.5551
13932SOL     OW53774  13.503   1.171   3.969 -0.3852 -0.0011  0.2960
13932SOL    HW153775  13.596   1.151   3.983 -0.1218 -1.5107 -2.8401
13932SOL    HW253776  13.503   1.262   3.939 -0.1372  0.5114  1.7597
13933SOL     OW53777   5.321   3.413   9.553  0.1310 -0.4391  0.5394
13933SOL    HW153778   5.351   3.421   9.463  1.2455 -0.4231  0.8948
13933SOL    HW253779   5.227   3.396   9.546 -1.1387  4.9687 -0.5394
13934SOL     OW53780   4.899   1.613   9.452  0.5385  0.4219 -0.9447
13934SOL    HW153781   4.959   1.564   9.509  0.8298  0.6369 -1.0594
13934SOL    HW253782   4.881   1.693   9.500  0.0550  0.2004 -0.7529
13935SOL     OW53783  11.742   1.749   8.610 -0.0827  0.0487  0.2102
13935SOL    HW153784  11.795   1.825   8.634 -0.3233  0.4240 -0.4287
13935SOL    HW253785  11.802   1.693   8.559 -0.0915  0.1193  0.1233
13936SOL     OW53786   8.419   6.850  12.951 -0.3033  0.3670 -0.2292
13936SOL    HW153787   8.343   6.793  12.935 -1.9199  2.4577 -0.3795
13936SOL    HW253788   8.392   6.936  12.919  2.2966  1.1295 -0.6113
13937SOL     OW53789   9.907   0.899   5.424 -0.3204  0.1187 -0.7752
13937SOL    HW153790   9.954   0.980   5.444 -3.6017  1.6462  1.8070
13937SOL    HW253791   9.939   0.836   5.488  0.7910 -0.0483 -1.4715
13938SOL     OW53792   8.852   5.444   4.681 -0.3835 -0.6479 -0.2257
13938SOL    HW153793   8.890   5.359   4.659  0.3365  0.0563 -1.9237
13938SOL    HW253794   8.920   5.489   4.730 -0.5952 -0.8767  0.2833
13939SOL     OW53795  12.071   3.472   6.100  0.0196 -0.2172  0.1628
13939SOL    HW153796  12.055   3.491   6.007 -0.0290  0.2628  0.2684
13939SOL    HW253797  12.166   3.483   6.111 -0.1742  1.3489  0.5236
13940SOL     OW53798  11.207   4.764  13.096 -0.3057 -0.0981  0.0304
13940SOL    HW153799  11.252   4.742  13.177  2.3382 -2.0301 -1.8239
13940SOL    HW253800  11.245   4.848  13.069 -2.5303  1.5256  1.5923
13941SOL     OW53801   9.822   1.692   9.240  0.0929 -0.3287 -0.1846
13941SOL    HW153802   9.874   1.618   9.208 -0.8964 -0.5264 -1.4002
13941SOL    HW253803   9.829   1.687   9.335 -1.6760 -3.2931 -0.1034
13942SOL     OW53804   5.298   1.070   8.468 -0.3804  0.2461  0.4296
13942SOL    HW153805   5.268   1.150   8.426 -0.0729  1.1996  1.9285
13942SOL    HW253806   5.245   1.064   8.548  2.4848  1.3931  2.5911
13943SOL     OW53807  11.892   0.968  11.525 -0.3239 -0.3360 -0.0697
13943SOL    HW153808  11.888   0.910  11.450  0.3048 -2.6499  1.5708
13943SOL    HW253809  11.879   0.911  11.601  2.1189  1.3566  1.7846
13944SOL     OW53810  12.373  10.515  12.741  0.1085  0.1913 -0.0655
13944SOL    HW153811  12.422  10.590  12.775 -1.1495  0.3141  1.5858
13944SOL    HW253812  12.284  10.527  12.774 -0.9784 -0.2851 -2.5609
13945SOL     OW53813   0.871   5.238   9.012 -0.0012 -0.1494 -0.1833
13945SOL    HW153814   0.785   5.232   9.052 -0.8073  0.3525 -1.7717
13945SOL    HW253815   0.926   5.179   9.064 -1.5858 -1.4064  0.1320
13946SOL     OW53816   4.789   6.762  12.739 -0.1144 -0.4647  0.3402
13946SOL    HW153817   4.821   6.828  12.801 -1.1042  0.6770 -0.3367
13946SOL    HW253818   4.745   6.697  12.795  0.9080 -0.5960  1.0164
13947SOL     OW53819   9.738   2.746   7.875 -0.0100  0.1396 -0.0654
13947SOL    HW153820   9.763   2.713   7.961  0.1613  0.3117 -0.0495
13947SOL    HW253821   9.740   2.669   7.818  0.5005  0.1443 -0.0527
13948SOL     OW53822   9.871   4.088   3.993 -0.0858  0.2746  0.0248
13948SOL    HW153823   9.925   4.166   3.993  0.6018 -0.1872 -0.6332
13948SOL    HW253824   9.781   4.121   3.997  0.2029  1.0846 -0.0335
13949SOL     OW53825   9.125  11.023   0.601 -0.3525  0.2036  0.1262
13949SOL    HW153826   9.117  10.928   0.587  0.0059  0.4206 -1.7274
13949SOL    HW253827   9.061  11.042   0.669 -1.7948 -1.0947 -0.8077
13950SOL     OW53828  12.369   3.543  13.303  0.1089 -0.9225 -0.2302
13950SOL    HW153829  12.326   3.461  13.329 -0.3698 -0.8031 -0.6391
13950SOL    HW253830  12.328   3.566  13.220 -0.0513 -0.0362  0.0932
13951SOL     OW53831   1.890   5.415   2.227  0.5731  0.5522  0.4058
13951SOL    HW153832   1.929   5.481   2.284  0.8938  0.6088  0.1235
13951SOL    HW253833   1.958   5.396   2.162  0.6708 -0.4291  0.7828
13952SOL     OW53834   6.994  12.629   5.799  0.0296  0.6899  0.4252
13952SOL    HW153835   6.960  12.645   5.887 -2.5503  0.4325 -0.4632
13952SOL    HW253836   7.047  12.706   5.779 -2.2320  2.4595  0.8894
13953SOL     OW53837   4.629   1.468   0.704  0.0583 -0.3725  0.0273
13953SOL    HW153838   4.626   1.552   0.748  0.1383  0.4901 -1.5234
13953SOL    HW253839   4.563   1.475   0.635 -0.0374 -1.6429 -0.0409
13954SOL     OW53840   5.304   5.999   1.261 -1.0449  0.0925 -0.4019
13954SOL    HW153841   5.304   6.093   1.279 -1.1393  0.0551 -0.2065
13954SOL    HW253842   5.295   5.958   1.347 -0.0061 -0.1197 -0.3782
13955SOL     OW53843   6.474   8.810   2.061 -0.3659  0.1547  0.5396
13955SOL    HW153844   6.449   8.793   1.971 -0.6531  0.1610  0.6179
13955SOL    HW253845   6.399   8.781   2.113  0.9764 -2.8334  1.0195
13956SOL     OW53846   6.932  10.704   2.974 -0.0191 -0.3546 -0.2678
13956SOL    HW153847   6.973  10.648   2.908 -0.6297 -0.7581 -0.3091
13956SOL    HW253848   6.969  10.675   3.057 -1.5877 -2.0042 -0.0917
13957SOL     OW53849   1.114   1.970   9.817  0.2537  0.3483  0.1547
13957SOL    HW153850   1.025   2.006   9.820 -0.8250 -2.0653 -0.2152
13957SOL    HW253851   1.148   1.982   9.905 -0.3466  1.5229  0.2390
13958SOL     OW53852  12.779  11.705   3.197  0.0125  0.8768 -0.5368
13958SOL    HW153853  12.764  11.623   3.151 -1.5447  0.1887  1.0803
13958SOL    HW253854  12.693  11.746   3.202  0.2227  1.1900  1.1925
13959SOL     OW53855  10.143   2.418   5.078  0.4145  0.5430  0.4553
13959SOL    HW153856  10.095   2.464   5.147 -0.9821 -1.7322  1.1007
13959SOL    HW253857  10.210   2.368   5.125 -2.0824 -2.9840  0.6716
13960SOL     OW53858   8.667  12.481  13.433 -0.6374 -0.5203 -0.5090
13960SOL    HW153859   8.750  12.437  13.414  0.7389  1.6759  0.0331
13960SOL    HW253860   8.651  12.461  13.525  0.4392  0.7162 -0.0181
13961SOL     OW53861   7.013   3.220  12.865 -0.1534 -0.4744  0.1841
13961SOL    HW153862   7.007   3.129  12.835  0.1582 -0.6499  0.6396
13961SOL    HW253863   7.030   3.214  12.959  1.4534  0.0161 -0.0322
13962SOL     OW53864   7.764  11.473   8.351  0.8200  0.7377 -0.2474
13962SOL    HW153865   7.807  11.558   8.360  1.6677  0.2501  0.5637
13962SOL    HW253866   7.672  11.494   8.334  0.9383  1.8196  0.3363
13963SOL     OW53867   1.288   9.730   1.213  0.4652  0.3429 -0.0399
13963SOL    HW153868   1.292   9.716   1.118  0.3946 -0.1950  0.0336
13963SOL    HW253869   1.298   9.824   1.223 -0.1283  0.4731 -0.6182
13964SOL     OW53870   9.138   9.912   3.112  0.6127 -0.2035 -0.0728
13964SOL    HW153871   9.180   9.874   3.035  0.1542  1.4939 -1.2368
13964SOL    HW253872   9.199   9.980   3.142  0.6083 -0.5903  0.8241
13965SOL     OW53873  13.825  12.547   1.479 -0.0033 -0.3990 -0.7055
13965SOL    HW153874  13.806  12.639   1.494  0.2091 -0.4881  0.1980
13965SOL    HW253875  13.843  12.512   1.567  0.9994 -1.0465 -1.1503
13966SOL     OW53876   5.453  12.247  12.977 -0.1461 -0.3884 -0.3905
13966SOL    HW153877   5.489  12.254  12.889 -1.5660  2.9133 -0.8602
13966SOL    HW253878   5.376  12.191  12.966 -0.2699 -0.0690 -1.2451
13967SOL     OW53879  11.414   7.422   7.000 -0.4644  0.6495 -0.8758
13967SOL    HW153880  11.383   7.363   7.069  0.1016  1.6718  0.2923
13967SOL    HW253881  11.510   7.412   7.001 -0.3302  1.7611 -0.4582
13968SOL     OW53882   5.157   1.863  10.425  0.6585  0.3312 -0.4894
13968SOL    HW153883   5.157   1.957  10.443 -0.8186  0.5359 -1.3385
13968SOL    HW253884   5.161   1.856  10.329  1.5552 -0.5002 -0.4083
13969SOL     OW53885   6.271  11.830  12.418  0.3832 -0.3354  0.1819
13969SOL    HW153886   6.240  11.834  12.508  0.8829 -0.6131  0.3718
13969SOL    HW253887   6.265  11.920  12.387  0.4335 -0.1937  0.5726
13970SOL     OW53888   4.571   1.831   7.961 -0.1412 -0.2544 -0.3974
13970SOL    HW153889   4.608   1.910   8.000 -0.4758  0.2196 -1.0169
13970SOL    HW253890   4.543   1.778   8.036 -0.3023  0.4012  0.0165
13971SOL     OW53891  11.325  12.776  11.650  0.1294 -0.0945 -0.1758
13971SOL    HW153892  11.326  12.865  11.686 -0.1175 -0.0695 -0.2266
13971SOL    HW253893  11.279  12.785  11.566  1.4012  0.0067 -0.9004
13972SOL     OW53894   6.400   0.966  12.729  0.2560 -0.3437 -0.2587
13972SOL    HW153895   6.349   0.956  12.810  2.0458  3.2242  1.5267
13972SOL    HW253896   6.337   1.003  12.667 -0.1978  1.0058  0.9294
13973SOL     OW53897   8.610  13.718   8.366 -0.0823 -0.3645 -0.0751
13973SOL    HW153898   8.612  13.765   8.283  0.4908 -0.2347  0.0139
13973SOL    HW253899   8.517  13.719   8.392 -0.3454 -0.8406 -0.9531
13974SOL     OW53900   7.529   1.757   0.033 -0.2194  0.1417 -0.0312
13974SOL    HW153901   7.578   1.675   0.041  0.4654 -0.0669 -4.2695
13974SOL    HW253902   7.576   1.818   0.090  1.3045 -1.5573  0.6355
13975SOL     OW53903   9.622   6.625   2.396  0.3361 -0.0604  0.3362
13975SOL    HW153904   9.618   6.570   2.318  0.7829 -1.8582  1.5130
13975SOL    HW253905   9.631   6.563   2.468  2.6146  1.6114  1.6151
13976SOL     OW53906   7.990   9.100   8.779 -0.2048  0.6041 -0.1655
13976SOL    HW153907   7.904   9.130   8.807 -0.7934 -1.1825  0.0904
13976SOL    HW253908   8.051   9.144   8.837 -1.0635  0.7252  0.6606
13977SOL     OW53909   7.503   1.444   1.441  0.5600 -0.2041  0.5226
13977SOL    HW153910   7.510   1.498   1.520 -0.6922 -0.2715  0.6916
13977SOL    HW253911   7.489   1.507   1.370 -0.3814 -0.2616  0.6486
13978SOL     OW53912  11.143  13.909   9.704  0.0136  0.5343  0.0142
13978SOL    HW153913  11.225  13.880   9.745 -0.6329  0.0127  0.9692
13978SOL    HW253914  11.146  13.870   9.617  0.5723  0.1274  0.2071
13979SOL     OW53915   4.980   3.190  10.630  0.4778 -0.2543 -1.1208
13979SOL    HW153916   4.930   3.216  10.708  2.4590  0.7850 -0.1131
13979SOL    HW253917   4.968   3.095  10.625  0.4281 -0.3726  0.5803
13980SOL     OW53918   6.832   2.907   6.102 -0.5747 -0.7427 -0.1161
13980SOL    HW153919   6.854   2.850   6.176 -0.8723 -1.4960 -0.6049
13980SOL    HW253920   6.737   2.902   6.096 -0.4552 -1.9853 -1.5635
13981SOL     OW53921   1.348   6.060   5.799  0.2450 -0.3786 -0.0583
13981SOL    HW153922   1.290   6.129   5.766 -0.0569 -1.1638 -1.2487
13981SOL    HW253923   1.312   5.979   5.763 -0.0177 -1.3212  2.1290
13982SOL     OW53924   2.596   0.509  13.731 -0.4864  0.4256 -0.1268
13982SOL    HW153925   2.662   0.549  13.788 -0.9955  0.9792  0.0741
13982SOL    HW253926   2.543   0.454  13.789  0.9067 -1.4996 -0.5719
13983SOL     OW53927   7.344  11.390  12.221  0.4615  0.1114 -0.4728
13983SOL    HW153928   7.263  11.341  12.226  0.1058  0.7471  0.0741
13983SOL    HW253929   7.337  11.439  12.139 -0.5380  1.5767  0.4391
13984SOL     OW53930   8.343   6.809   9.867 -0.9138 -0.1352 -0.3669
13984SOL    HW153931   8.284   6.881   9.888 -0.3413 -0.1065  1.3291
13984SOL    HW253932   8.428   6.851   9.852 -0.1900 -0.4810  2.2217
13985SOL     OW53933  12.618   8.893   2.069 -0.8467 -0.0827  0.3913
13985SOL    HW153934  12.621   8.859   2.158  0.9070 -0.8663  0.0836
13985SOL    HW253935  12.539   8.854   2.031  0.3080 -2.7929  0.5090
13986SOL     OW53936  12.733   5.865   5.321 -0.0864  0.3389  0.2829
13986SOL    HW153937  12.643   5.858   5.288  0.1599 -1.4650 -0.1406
13986SOL    HW253938  12.759   5.774   5.337  1.2826  0.9076  1.4615
13987SOL     OW53939   4.719   3.847   9.245 -0.2734 -0.1403 -0.2193
13987SOL    HW153940   4.638   3.798   9.230 -0.1271 -0.9140  1.3110
13987SOL    HW253941   4.717   3.917   9.179 -2.1367 -0.1759 -0.2674
13988SOL     OW53942   4.886  11.652   7.657 -0.0404 -0.7378  0.0098
13988SOL    HW153943   4.973  11.687   7.674 -0.2902 -0.8736  1.6754
13988SOL    HW253944   4.897  11.556   7.658 -0.4787 -0.7987  1.9492
13989SOL     OW53945  10.743   8.031   6.357 -0.5481 -0.5061  0.3725
13989SOL    HW153946  10.747   7.968   6.285 -0.5143  1.4020 -1.4291
13989SOL    HW253947  10.806   7.999   6.421  1.0591 -1.1771 -1.4521
13990SOL     OW53948   4.762  10.743  10.202 -0.0076 -0.2713 -0.3348
13990SOL    HW153949   4.828  10.729  10.134  0.6775  0.7761  0.0889
13990SOL    HW253950   4.692  10.791  10.158 -0.1152 -0.6487 -0.5820
13991SOL     OW53951  10.241   7.553   0.175 -0.3606 -0.0418 -0.1626
13991SOL    HW153952  10.176   7.532   0.242  0.1383  1.1892  0.7459
13991SOL    HW253953  10.324   7.552   0.221 -0.0352  1.1125 -0.6862
13992SOL     OW53954  11.812   0.338   8.226  0.2808  0.2210  0.6706
13992SOL    HW153955  11.788   0.253   8.189  1.9060  0.1699 -0.3782
13992SOL    HW253956  11.886   0.367   8.172  1.5901  1.0066  2.7811
13993SOL     OW53957   0.167   2.589   0.550  0.0686 -0.0046 -0.1188
13993SOL    HW153958   0.200   2.549   0.469  0.0585 -0.9088  0.3109
13993SOL    HW253959   0.240   2.583   0.611 -0.8356 -2.0734  0.8607
13994SOL     OW53960   0.950   2.915  11.456  0.0538  0.4748 -0.2942
13994SOL    HW153961   0.895   2.906  11.378 -1.0130 -1.2089  0.5834
13994SOL    HW253962   1.023   2.855  11.441 -0.2419  0.0195  0.0510
13995SOL     OW53963   3.386   1.771  10.897  0.1517  0.1915  0.5961
13995SOL    HW153964   3.413   1.690  10.855  0.5379  0.7336 -0.2351
13995SOL    HW253965   3.457   1.792  10.958 -0.4210 -0.6088  1.5715
13996SOL     OW53966  10.502  11.093   6.570 -0.1503 -0.0470 -0.3301
13996SOL    HW153967  10.582  11.047   6.597 -1.4913 -2.1630  0.2356
13996SOL    HW253968  10.500  11.083   6.475  1.5092  2.2827 -0.7156
13997SOL     OW53969  13.605   2.896  12.231  0.0915 -0.1302 -0.4516
13997SOL    HW153970  13.537   2.842  12.271 -0.8383 -1.7169 -3.8149
13997SOL    HW253971  13.687   2.856  12.259 -0.2941  0.7407  2.2361
13998SOL     OW53972   4.443   0.676  10.723  0.4460 -0.2105 -0.1116
13998SOL    HW153973   4.421   0.696  10.814 -1.2266 -1.1317 -0.2626
13998SOL    HW253974   4.534   0.703  10.714  0.3419  0.8808  1.5337
13999SOL     OW53975   5.866  11.158  12.131 -0.8701  0.0006  0.3657
13999SOL    HW153976   5.831  11.070  12.121 -0.5854 -0.0895  0.1371
13999SOL    HW253977   5.790  11.216  12.124 -1.3501 -0.3113  2.4257
14000SOL     OW53978   0.024   3.969  10.508 -0.4833 -0.1042  0.3196
14000SOL    HW153979  -0.049   4.027  10.527  0.3833  0.4293  2.3551
14000SOL    HW253980  -0.002   3.885  10.547  0.4263  0.4225  2.2035
14001SOL     OW53981   1.206  13.016   3.107 -0.3558  0.0741 -0.0266
14001SOL    HW153982   1.234  12.934   3.148  0.0472  0.0764 -0.2912
14001SOL    HW253983   1.203  13.079   3.179  1.6573  0.4145 -0.1767
14002SOL     OW53984   5.778   7.017   4.485 -0.1873  0.4231  0.1307
14002SOL    HW153985   5.724   6.956   4.534 -0.3029  0.0206 -0.4823
14002SOL    HW253986   5.854   7.032   4.541 -1.2381  1.5616  1.3290
14003SOL     OW53987   7.642  13.375   2.271  0.5989  0.1138  0.2036
14003SOL    HW153988   7.608  13.442   2.330  1.2656  0.7836 -0.1551
14003SOL    HW253989   7.668  13.423   2.192  1.2142 -0.5411 -0.0053
14004SOL     OW53990   2.304   8.250  10.832  0.2468  0.4979  0.1059
14004SOL    HW153991   2.348   8.327  10.797  1.1530  0.5940  1.3536
14004SOL    HW253992   2.283   8.274  10.923 -1.9182  0.2400 -0.2737
14005SOL     OW53993   2.058   8.902   5.552 -0.2165 -0.1828  0.0756
14005SOL    HW153994   2.060   8.833   5.485 -0.3874  0.4453 -0.5962
14005SOL    HW253995   2.132   8.881   5.609 -0.2331 -0.8934 -0.1470
14006SOL     OW53996  11.640  13.858  11.844 -0.0422  0.0528 -0.1485
14006SOL    HW153997  11.622  13.784  11.785 -0.9661 -0.4765  0.7629
14006SOL    HW253998  11.733  13.849  11.865 -0.7483 -2.8757  2.5186
14007SOL     OW53999   7.520   2.905   7.137 -0.0437  0.5494  0.3461
14007SOL    HW154000   7.507   2.873   7.048 -2.0459 -1.3031  1.2230
14007SOL    HW254001   7.513   3.000   7.130 -1.7099  0.3501 -1.2626
14008SOL     OW54002  10.051   7.964   0.192 -0.0059  0.2778 -0.5463
14008SOL    HW154003  10.030   7.940   0.102  0.3945 -1.3198 -0.2412
14008SOL    HW254004  10.137   7.925   0.208  0.0088  0.6916  0.4786
14009SOL     OW54005   4.178   4.832  12.088  0.1134  0.0283  0.0104
14009SOL    HW154006   4.084   4.817  12.075  0.2027  0.3730 -1.1392
14009SOL    HW254007   4.220   4.795  12.011  0.7784  1.2499 -0.2552
14010SOL     OW54008  12.991  12.238  10.000  0.8630 -0.5908  0.0342
14010SOL    HW154009  12.979  12.270  10.090  2.1862  2.1833 -0.6696
14010SOL    HW254010  12.905  12.208   9.973 -0.1512  0.9401  1.4030
14011SOL     OW54011   6.165   5.512   6.845 -0.3775  0.2146 -0.1397
14011SOL    HW154012   6.155   5.586   6.905 -0.7472 -0.5864  0.8165
14011SOL    HW254013   6.259   5.495   6.843 -0.3568  0.2909  0.1550
14012SOL     OW54014   0.269   2.574   7.984 -0.2695 -0.6488 -0.0912
14012SOL    HW154015   0.326   2.585   8.060 -0.0083  2.3141 -0.5961
14012SOL    HW254016   0.229   2.660   7.971 -1.3966 -1.4423 -2.4596
14013SOL     OW54017   3.798   4.835   5.454 -0.3438  0.2353  0.3283
14013SOL    HW154018   3.849   4.915   5.437 -0.8391  0.3223 -0.8451
14013SOL    HW254019   3.711   4.855   5.421 -0.6151 -0.6023  0.5238
14014SOL     OW54020   0.995   0.894   9.727  0.1348 -0.3958 -0.3140
14014SOL    HW154021   1.090   0.897   9.718  0.2178  1.6485  0.6783
14014SOL    HW254022   0.972   0.803   9.708  2.4075 -1.2395  0.6224
14015SOL     OW54023   2.198  12.247   5.522 -0.2239  0.2171  0.1879
14015SOL    HW154024   2.281  12.290   5.543 -0.8298  1.8059 -0.5599
14015SOL    HW254025   2.189  12.181   5.591  1.6752 -0.0536  0.2525
14016SOL     OW54026   0.953  14.028   7.342 -0.0405 -0.1454 -0.2547
14016SOL    HW154027   0.920  14.114   7.316  0.9119 -0.1844 -1.6795
14016SOL    HW254028   0.875  13.973   7.346 -0.3270  0.0426 -2.4463
14017SOL     OW54029   8.709   4.317  11.378 -0.5070 -0.0118  0.1240
14017SOL    HW154030   8.791   4.268  11.376  0.0483  0.9029 -0.3117
14017SOL    HW254031   8.726   4.389  11.439 -1.8102 -1.1763  1.9526
14018SOL     OW54032   1.166   5.244   3.793 -0.2474  0.0037 -0.4072
14018SOL    HW154033   1.105   5.268   3.863  0.0040 -2.1535  0.6239
14018SOL    HW254034   1.208   5.327   3.770 -2.0166  1.1799  0.3303
14019SOL     OW54035  12.143   9.062  11.257  0.3157  0.0642 -0.5073
14019SOL    HW154036  12.079   8.991  11.264  0.3478  0.1314  0.8518
14019SOL    HW254037  12.224   9.024  11.293  0.4580  0.6371 -0.2185
14020SOL     OW54038   2.002   8.067   6.015  0.1337 -0.1557 -0.3728
14020SOL    HW154039   2.002   8.162   6.015 -1.3394 -0.1255 -0.9952
14020SOL    HW254040   1.914   8.043   5.985  0.2178 -1.7090  0.5074
14021SOL     OW54041   3.116   7.806   4.854  0.0698 -0.3072 -0.2126
14021SOL    HW154042   3.034   7.825   4.808  0.7213 -0.1290 -1.3323
14021SOL    HW254043   3.128   7.712   4.843  0.8868 -0.0724 -1.5881
14022SOL     OW54044   2.858   8.500  10.311 -0.1202 -0.0261 -0.6394
14022SOL    HW154045   2.901   8.483  10.395  0.3788  0.4123 -0.7965
14022SOL    HW254046   2.928   8.492  10.246 -0.5056 -0.3732 -1.0173
14023SOL     OW54047   6.259   9.869   2.777  0.2960 -0.5450  0.5731
14023SOL    HW154048   6.181   9.897   2.730  0.2644 -0.7899  0.4787
14023SOL    HW254049   6.245   9.900   2.867  0.1674 -0.4417  0.5182
14024SOL     OW54050   1.726   9.821   8.720  0.4204  0.2845  0.7399
14024SOL    HW154051   1.736   9.727   8.737 -0.2627  0.4677  2.3619
14024SOL    HW254052   1.779   9.837   8.642  1.3807 -1.2520  1.0262
14025SOL     OW54053   4.529  12.735  13.823 -0.6690  0.1551  0.2915
14025SOL    HW154054   4.462  12.790  13.783 -1.3647  1.1565  2.6216
14025SOL    HW254055   4.497  12.646  13.813 -0.6703  0.3138 -1.5059
14026SOL     OW54056   3.496   1.397   9.516  0.2175 -0.2442 -0.0352
14026SOL    HW154057   3.440   1.321   9.534 -1.2095 -0.0781 -3.2470
14026SOL    HW254058   3.435   1.468   9.500  1.5074  1.0652  0.6623
14027SOL     OW54059  10.976  12.993  11.981 -0.2890 -0.1233 -0.0887
14027SOL    HW154060  10.961  12.900  11.995 -0.4805 -0.0654  0.1007
14027SOL    HW254061  11.056  13.012  12.030  1.2272 -0.7098 -2.1994
14028SOL     OW54062   1.952  12.542  12.712  0.2106 -0.0111  0.6539
14028SOL    HW154063   1.876  12.582  12.670  0.6738 -0.0017 -0.2161
14028SOL    HW254064   2.018  12.537  12.642  1.0783  0.1698  1.4343
14029SOL     OW54065   5.688   4.999   1.413 -0.2588  0.2045 -0.2216
14029SOL    HW154066   5.742   4.952   1.350 -1.6894  0.0226 -1.3580
14029SOL    HW254067   5.749   5.024   1.483  1.9336  2.3795 -2.6663
14030SOL     OW54068   6.192   9.840  12.679  0.2571 -0.4267  0.9293
14030SOL    HW154069   6.225   9.886  12.756 -1.1047  1.8318  0.2614
14030SOL    HW254070   6.125   9.898  12.644  2.2403 -0.2665 -3.1813
14031SOL     OW54071   9.047   3.302   7.148 -0.2766  0.0351  0.1820
14031SOL    HW154072   9.064   3.209   7.156 -0.1346  0.0595  0.1667
14031SOL    HW254073   9.073   3.323   7.058 -1.6123 -0.1903 -0.2802
14032SOL     OW54074   5.349   8.400   1.873 -0.2441  0.3600  0.3365
14032SOL    HW154075   5.335   8.313   1.911  0.5747  0.3594  0.6619
14032SOL    HW254076   5.430   8.391   1.823 -1.6627  0.1663 -2.0492
14033SOL     OW54077  11.888   9.082   4.086  0.1173  0.1403  1.0617
14033SOL    HW154078  11.886   9.122   4.173  1.6463 -0.5632  1.4508
14033SOL    HW254079  11.950   9.010   4.094 -0.7902 -0.8340 -0.2515
14034SOL     OW54080  13.108   2.813   3.144 -0.4398 -0.3530  0.0488
14034SOL    HW154081  13.017   2.844   3.145  0.1710  1.5630 -0.3149
14034SOL    HW254082  13.159   2.889   3.117  1.3891 -1.0988  1.2120
14035SOL     OW54083   5.949   6.920   8.015 -0.1320  0.6745 -0.3895
14035SOL    HW154084   5.952   6.996   7.957 -0.3611  0.2825 -0.9183
14035SOL    HW254085   6.035   6.918   8.056  0.7652 -0.1975 -2.2076
14036SOL     OW54086   0.869   0.553  11.779  0.0911 -0.3059  0.3760
14036SOL    HW154087   0.902   0.598  11.701 -2.7615 -0.0178 -0.7677
14036SOL    HW254088   0.895   0.610  11.852  0.6160  0.7272 -0.5910
14037SOL     OW54089   9.318   7.930   8.459 -0.2022 -0.3514  0.1003
14037SOL    HW154090   9.279   7.936   8.372  0.7488 -3.3026 -0.6669
14037SOL    HW254091   9.410   7.953   8.446 -0.5345  1.5748  0.8728
14038SOL     OW54092   9.810  12.155   6.932 -0.5324  0.3281  0.3071
14038SOL    HW154093   9.815  12.078   6.876  0.9379 -0.5921  1.6155
14038SOL    HW254094   9.842  12.124   7.017 -3.5129  1.3934  1.9705
14039SOL     OW54095   5.957   8.879   7.144 -0.0246  0.6688  0.6314
14039SOL    HW154096   5.944   8.974   7.146 -0.7601  0.6067 -0.3982
14039SOL    HW254097   6.041   8.867   7.100 -0.1046  0.8245  0.4367
14040SOL     OW54098   7.935  10.531   2.992 -0.0725 -0.0717 -0.3834
14040SOL    HW154099   7.880  10.537   2.914 -0.2740  1.3585 -0.1594
14040SOL    HW254100   7.900  10.599   3.051 -0.8256 -2.0041  1.5365
14041SOL     OW54101  10.868   7.447   5.500  0.8870  0.1776  0.1218
14041SOL    HW154102  10.947   7.405   5.532  0.9322 -0.0670 -0.2999
14041SOL    HW254103  10.815   7.461   5.578  0.4365 -1.5922  0.1827
14042SOL     OW54104   0.694  12.433  10.183  0.2651  0.0329  0.1331
14042SOL    HW154105   0.731  12.501  10.239  0.7666  0.0344 -0.1948
14042SOL    HW254106   0.724  12.456  10.095 -1.5255  0.7403 -0.3307
14043SOL     OW54107  12.507  13.020   6.695 -0.7839 -0.0790  0.5364
14043SOL    HW154108  12.428  13.073   6.703 -1.2940 -0.9374  1.3316
14043SOL    HW254109  12.579  13.079   6.718 -1.4687 -0.1164  3.0220
14044SOL     OW54110   3.374   2.574  10.310 -0.2221 -0.4899  0.1439
14044SOL    HW154111   3.338   2.488  10.290 -1.2621  0.2313 -1.2598
14044SOL    HW254112   3.442   2.587  10.244 -0.2844 -0.0987  0.1559
14045SOL     OW54113   1.047   3.263   1.259 -0.0002  0.0324 -0.2538
14045SOL    HW154114   0.992   3.329   1.302  2.1375  0.7352  1.5833
14045SOL    HW254115   1.134   3.278   1.295  0.7302 -3.3201 -0.3615
14046SOL     OW54116   3.617   4.546  13.175 -0.7628 -0.5895 -0.2440
14046SOL    HW154117   3.524   4.524  13.186 -1.0731  0.5444 -0.4848
14046SOL    HW254118   3.620   4.600  13.096 -0.0346  0.1748  0.2889
14047SOL     OW54119   5.245  10.450   0.887  0.5728 -0.1754 -0.1748
14047SOL    HW154120   5.223  10.540   0.907 -0.4187 -0.5339  0.3901
14047SOL    HW254121   5.230  10.442   0.792 -2.1483 -0.4950  0.2274
14048SOL     OW54122  10.176  13.973   0.136  0.1311 -0.0158 -0.0192
14048SOL    HW154123  10.154  13.894   0.186 -2.2997  1.8394  2.1406
14048SOL    HW254124  10.191  13.942   0.047  1.9311 -3.1721  1.2338
14049SOL     OW54125   7.797   7.841   3.651 -0.8288 -0.6968  0.1193
14049SOL    HW154126   7.781   7.897   3.728 -1.2979 -1.9241  0.9507
14049SOL    HW254127   7.886   7.808   3.664 -0.3165  0.3350 -0.6958
14050SOL     OW54128   6.345   5.368   4.268  0.0169 -0.1794  0.4852
14050SOL    HW154129   6.290   5.444   4.286 -0.1723 -0.2814  0.3392
14050SOL    HW254130   6.300   5.295   4.311 -1.6002 -0.8415 -2.1544
14051SOL     OW54131   5.259   1.422   1.859 -0.2221  0.6672  0.2394
14051SOL    HW154132   5.230   1.350   1.803  0.0499  0.5079  0.3023
14051SOL    HW254133   5.260   1.498   1.801  3.6397 -0.1473 -1.0226
14052SOL     OW54134   1.321   1.821  10.092 -0.6087  0.2178  0.5689
14052SOL    HW154135   1.328   1.793  10.183  1.4382 -0.8686  0.1269
14052SOL    HW254136   1.399   1.786  10.050 -0.3526  2.6161 -1.1351
14053SOL     OW54137   2.351   9.530   3.305 -0.5065  0.4105 -0.5826
14053SOL    HW154138   2.296   9.553   3.230 -0.0139  0.7223 -0.8563
14053SOL    HW254139   2.441   9.544   3.274 -0.3278  1.7819  0.4409
14054SOL     OW54140   0.547   2.034  10.248  0.7154  0.2867  0.2136
14054SOL    HW154141   0.510   1.980  10.178 -2.4874  0.0608  1.8452
14054SOL    HW254142   0.569   2.117  10.206  0.3839 -0.3769 -1.3374
14055SOL     OW54143   8.297  12.675   8.836 -0.7028 -0.4263  0.0143
14055SOL    HW154144   8.221  12.666   8.779  0.4096  0.0112 -1.6461
14055SOL    HW254145   8.305  12.590   8.880 -2.1182 -0.4763  0.2253
14056SOL     OW54146  11.818   5.566   5.933  0.0989  0.1846 -0.0563
14056SOL    HW154147  11.909   5.594   5.936  0.2500  0.0960 -2.3534
14056SOL    HW254148  11.822   5.476   5.899 -0.7463 -0.7155  1.9968
14057SOL     OW54149   3.909   0.518  13.747  0.4981  0.1286  0.0354
14057SOL    HW154150   3.855   0.547  13.674  0.8521  1.1361  0.1668
14057SOL    HW254151   3.979   0.467  13.706  0.1770 -0.0907 -0.2462
14058SOL     OW54152  13.498   3.226   6.678 -0.1586  0.6559  0.3668
14058SOL    HW154153  13.449   3.174   6.742 -0.2478  0.4174  0.1067
14058SOL    HW254154  13.515   3.165   6.606 -0.0943  0.9340  0.1466
14059SOL     OW54155   3.639  11.602  10.041  0.0471  0.5915 -0.6738
14059SOL    HW154156   3.638  11.570  10.131  0.3757  3.1476  0.3314
14059SOL    HW254157   3.550  11.586  10.009 -0.4123  0.6444  0.5192
14060SOL     OW54158  10.124  12.003   8.928 -0.0033 -0.2677 -0.2741
14060SOL    HW154159  10.029  11.991   8.928 -0.2583  0.9788  2.4639
14060SOL    HW254160  10.151  11.979   9.017  1.4780  4.0650  0.6840
14061SOL     OW54161   3.004   0.782   2.911 -0.4939 -0.3251 -0.0797
14061SOL    HW154162   2.947   0.730   2.967 -1.0422  2.2246  1.8913
14061SOL    HW254163   3.031   0.856   2.965  1.1110  0.9144 -2.3777
14062SOL     OW54164   0.308   9.452   7.836  0.5335  0.4449 -0.6090
14062SOL    HW154165   0.352   9.533   7.810 -0.4689  1.1608 -0.1559
14062SOL    HW254166   0.220   9.461   7.800  0.3040 -0.2759 -0.2332
14063SOL     OW54167   1.310   7.538  12.117 -0.4745  0.5012 -0.2562
14063SOL    HW154168   1.358   7.476  12.061 -0.6534  1.5996 -1.6625
14063SOL    HW254169   1.227   7.495  12.134 -0.5521  0.2820 -1.1263
14064SOL     OW54170  13.500   4.408   5.612  0.0949 -0.2071  0.4788
14064SOL    HW154171  13.523   4.474   5.546 -1.9354 -0.4847 -0.5653
14064SOL    HW254172  13.506   4.455   5.695 -1.2227  1.3066 -0.2367
14065SOL     OW54173  12.371   4.972   9.841 -0.5502  0.0029  0.7401
14065SOL    HW154174  12.354   5.009   9.754 -0.4945 -1.6723 -0.0140
14065SOL    HW254175  12.443   5.024   9.876 -0.9562  1.0705  0.0377
14066SOL     OW54176   6.725  10.714   1.387 -0.0867 -0.0688  0.3982
14066SOL    HW154177   6.735  10.623   1.358  1.6700  0.6569 -1.5596
14066SOL    HW254178   6.792  10.725   1.455  1.3336  0.2960 -0.9781
14067SOL     OW54179   4.124   9.572  10.252  0.0129  0.1882  0.2606
14067SOL    HW154180   4.094   9.491  10.294 -0.9785  0.9262  1.0184
14067SOL    HW254181   4.054   9.594  10.190  0.6915  0.0042 -0.5836
14068SOL     OW54182   5.904   9.394  13.996 -0.5245  0.0686 -0.2158
14068SOL    HW154183   5.825   9.384  13.942 -0.2591  0.1741 -0.6355
14068SOL    HW254184   5.890   9.337  14.071 -1.0473  0.1701 -0.2342
14069SOL     OW54185   0.095   6.579   9.735 -0.6040  0.4318 -0.2321
14069SOL    HW154186   0.089   6.575   9.640 -0.7275 -2.3590 -0.1912
14069SOL    HW254187   0.007   6.601   9.765 -1.0992 -0.7915 -0.7349
14070SOL     OW54188   9.651   5.585  10.143 -0.5399 -0.0443  0.0030
14070SOL    HW154189   9.591   5.590  10.217  0.6714 -1.3478  1.1662
14070SOL    HW254190   9.723   5.530  10.175  0.5849  0.2918 -1.7804
14071SOL     OW54191  10.320   1.710  10.554 -0.3836 -0.4177 -0.2914
14071SOL    HW154192  10.290   1.653  10.483 -0.2583  0.7269 -1.2764
14071SOL    HW254193  10.248   1.771  10.568 -0.1644 -0.2625  0.1765
14072SOL     OW54194   4.840  13.123  12.224 -0.3401  0.6335  0.1717
14072SOL    HW154195   4.872  13.033  12.228  1.0040  1.0376 -0.7321
14072SOL    HW254196   4.752  13.119  12.261  0.1806 -0.8083  1.3705
14073SOL     OW54197  11.456   7.106  12.450 -0.6575 -0.5889  0.5216
14073SOL    HW154198  11.498   7.179  12.494 -0.7309  0.1801 -0.6506
14073SOL    HW254199  11.366   7.135  12.434 -0.0284  0.0768 -2.1370
14074SOL     OW54200  11.755   9.149  12.622 -0.1756  0.2429  0.0456
14074SOL    HW154201  11.745   9.142  12.717  0.5950 -0.3759  0.0903
14074SOL    HW254202  11.849   9.159  12.608 -0.3182  0.7237 -0.6319
14075SOL     OW54203   6.685   2.112   2.086 -0.1407 -0.4352  0.5578
14075SOL    HW154204   6.673   2.200   2.051 -0.4284 -1.8062 -3.2684
14075SOL    HW254205   6.779   2.107   2.104  0.0782  0.3144 -0.2844
14076SOL     OW54206   5.937  11.816  10.799  0.5830 -0.1720  0.1229
14076SOL    HW154207   5.884  11.796  10.722  0.7995  0.5215 -0.2127
14076SOL    HW254208   5.927  11.739  10.855  2.5633 -1.9685 -1.7655
14077SOL     OW54209  12.841   5.793  11.702  0.5375 -0.4011 -0.4783
14077SOL    HW154210  12.800   5.800  11.616 -0.9749 -0.1536  0.2275
14077SOL    HW254211  12.867   5.701  11.708  0.3411 -0.5011 -1.0599
14078SOL     OW54212  11.412   1.791  12.265  0.0694  0.8803  0.0616
14078SOL    HW154213  11.413   1.843  12.345 -0.0527 -0.6486  1.1101
14078SOL    HW254214  11.330   1.742  12.270  0.2706  0.4330 -0.7940
14079SOL     OW54215  13.342   5.098   5.051  0.2433 -0.2141  0.5148
14079SOL    HW154216  13.282   5.025   5.033 -1.8870  1.7834 -1.0604
14079SOL    HW254217  13.290   5.158   5.105  1.2060  1.0811  0.0456
14080SOL     OW54218   4.079   6.736  10.468 -0.1401  0.2439 -0.7320
14080SOL    HW154219   4.100   6.788  10.391  2.1221 -0.7018 -0.8265
14080SOL    HW254220   3.984   6.728  10.467 -0.1673  0.2633 -3.4213
14081SOL     OW54221   7.611  10.540  12.021 -0.0812 -0.2216 -0.1675
14081SOL    HW154222   7.609  10.445  12.015 -1.3235 -0.2485  0.3267
14081SOL    HW254223   7.669  10.568  11.950  0.7830 -1.3607  0.0642
14082SOL     OW54224   8.757  13.986  10.034 -0.0306  0.4665  0.4176
14082SOL    HW154225   8.730  13.903   9.994  0.0685  0.1500  0.9915
14082SOL    HW254226   8.853  13.982  10.035 -0.0325 -0.6015  2.8211
14083SOL     OW54227   6.867   2.259   5.423 -0.0320  0.0120 -0.6732
14083SOL    HW154228   6.887   2.193   5.357 -1.3217  0.0316 -1.1191
14083SOL    HW254229   6.839   2.209   5.500 -0.9671  0.0192 -0.9965
14084SOL     OW54230   7.631  13.348   7.663 -0.1318 -0.0118 -0.6499
14084SOL    HW154231   7.633  13.443   7.654 -1.9173 -0.1109 -2.8729
14084SOL    HW254232   7.724  13.322   7.664  0.3938  1.7183  0.2331
14085SOL     OW54233   1.072  13.175   3.310 -0.5184 -0.4614  0.5938
14085SOL    HW154234   1.144  13.205   3.365  1.3338  0.4781 -2.1311
14085SOL    HW254235   1.054  13.086   3.340  3.1880 -1.5144  0.1679
14086SOL     OW54236  10.825   7.261   9.965 -0.3049  0.3419 -0.4148
14086SOL    HW154237  10.768   7.317  10.018 -2.5547 -2.0400 -0.0944
14086SOL    HW254238  10.799   7.278   9.875 -1.1999 -0.3421 -0.3008
14087SOL     OW54239  13.416   1.691  10.209  0.0124 -0.0142 -0.1735
14087SOL    HW154240  13.367   1.621  10.252 -1.9248  0.9019 -0.7711
14087SOL    HW254241  13.464   1.734  10.280 -0.3124 -0.7175  0.4897
14088SOL     OW54242   6.674   0.184   2.849  0.1941  0.3771 -0.1938
14088SOL    HW154243   6.611   0.226   2.907 -1.1156  1.3640 -2.1864
14088SOL    HW254244   6.716   0.257   2.803  0.0653 -0.3823 -1.5625
14089SOL     OW54245  12.786   8.527   8.672 -0.1233 -0.1538  0.4047
14089SOL    HW154246  12.821   8.592   8.611 -0.6703  1.3738  1.6488
14089SOL    HW254247  12.815   8.443   8.637 -0.5118  0.6424 -1.9882
14090SOL     OW54248   3.692   1.984   1.189 -0.2502  0.7210 -0.2755
14090SOL    HW154249   3.740   1.903   1.171 -2.4733 -0.6464 -0.4019
14090SOL    HW254250   3.693   1.992   1.285 -2.1104 -0.8864 -0.0603
14091SOL     OW54251   3.405  12.088   5.932  0.4224 -0.9061 -0.0647
14091SOL    HW154252   3.462  12.048   5.998 -0.0983  0.9143  1.5722
14091SOL    HW254253   3.342  12.139   5.983  1.4470  2.5438 -1.9517
14092SOL     OW54254   0.408   8.301   6.519 -0.1662 -0.1023  0.2359
14092SOL    HW154255   0.349   8.226   6.521  0.5607 -0.6797  2.0825
14092SOL    HW254256   0.468   8.283   6.447 -0.1233 -1.2040  0.5328
14093SOL     OW54257   4.166  13.263   2.209  0.0121 -0.1822  0.0965
14093SOL    HW154258   4.196  13.353   2.198  0.9833 -0.4462  0.4395
14093SOL    HW254259   4.086  13.270   2.261  0.4352  0.4401  0.6744
14094SOL     OW54260   2.921   1.439   8.967 -0.2408  0.7731 -0.0026
14094SOL    HW154261   2.845   1.460   8.914 -1.8715  0.9216  2.2562
14094SOL    HW254262   2.898   1.466   9.056  1.9852 -0.2652  0.9975
14095SOL     OW54263  12.948   3.179   0.978 -0.2338 -0.0938 -0.4285
14095SOL    HW154264  13.027   3.142   0.939  0.5519  0.7618  0.2892
14095SOL    HW254265  12.913   3.108   1.033 -0.1969 -0.6026 -1.0452
14096SOL     OW54266   0.909   7.240   3.448 -0.3312  0.3101  0.1474
14096SOL    HW154267   0.962   7.216   3.524 -1.5348 -0.7636  0.6614
14096SOL    HW254268   0.957   7.203   3.373  0.9460  1.5171  0.3181
14097SOL     OW54269  12.845  13.238  12.061 -0.4457 -0.0478  0.3201
14097SOL    HW154270  12.815  13.153  12.029  0.0040 -0.1624  0.1870
14097SOL    HW254271  12.804  13.248  12.147 -1.6939  0.2796 -0.2997
14098SOL     OW54272  10.353   1.950   5.211  0.1098 -0.3282  0.7838
14098SOL    HW154273  10.339   2.016   5.143  0.3488 -1.3618 -0.3048
14098SOL    HW254274  10.276   1.957   5.268  0.8689  1.9386  1.6315
14099SOL     OW54275  12.921   2.615  10.911  0.0480 -0.1353  0.2701
14099SOL    HW154276  12.828   2.619  10.889  0.1427  1.2048  0.0361
14099SOL    HW254277  12.964   2.585  10.830 -0.2032 -1.0594  0.4742
14100SOL     OW54278   8.058   4.954  10.317  0.1287  0.5432 -0.5789
14100SOL    HW154279   7.986   4.892  10.307 -0.5808  1.5217 -1.8896
14100SOL    HW254280   8.136   4.900  10.322 -0.5840 -0.4931 -0.4107
14101SOL     OW54281   3.025   1.681  11.515  0.0883  0.2254 -0.0360
14101SOL    HW154282   3.038   1.608  11.575 -0.1510  1.1604  1.1780
14101SOL    HW254283   2.986   1.641  11.437 -2.0030 -0.6602  1.3934
14102SOL     OW54284   6.984   2.118  10.964  0.2611 -0.4426 -0.0263
14102SOL    HW154285   7.057   2.057  10.955  2.7238  2.2554 -0.1403
14102SOL    HW254286   7.019   2.188  11.020 -2.0003  1.3022 -0.6554
14103SOL     OW54287  11.994  12.840   7.685 -0.0087 -0.5174 -0.4389
14103SOL    HW154288  11.965  12.880   7.767  0.0093  1.5420 -1.3891
14103SOL    HW254289  11.930  12.771   7.669 -0.3974 -0.5193  0.9557
14104SOL     OW54290  10.250   3.866   2.135 -0.3223  0.3007  0.2779
14104SOL    HW154291  10.158   3.845   2.151 -0.0351 -0.5734  0.8255
14104SOL    HW254292  10.247   3.936   2.069 -1.3507 -0.2670 -0.3017
14105SOL     OW54293   3.221   3.970  10.134 -0.1336  0.5019  0.0755
14105SOL    HW154294   3.267   3.969  10.051  1.6480 -0.1698  1.0056
14105SOL    HW254295   3.265   3.903  10.187 -0.0716  2.0353  2.1198
14106SOL     OW54296   0.583  10.047  10.105 -0.5496 -0.0724 -0.0371
14106SOL    HW154297   0.667  10.075  10.141 -1.5257 -0.9548  3.1751
14106SOL    HW254298   0.557  10.119  10.048  3.0276 -0.4525 -2.4841
14107SOL     OW54299  12.226   0.428   6.197 -0.0032  0.6259 -0.1676
14107SOL    HW154300  12.314   0.449   6.165  1.4317 -1.5845  1.8799
14107SOL    HW254301  12.172   0.422   6.119  2.2179 -0.1249 -1.7562
14108SOL     OW54302   0.331   1.322  13.695 -0.0559  0.1548  0.4639
14108SOL    HW154303   0.391   1.306  13.622  1.3185 -1.7071  1.8991
14108SOL    HW254304   0.252   1.272  13.672 -0.3694  1.0893 -0.5646
14109SOL     OW54305  13.383   0.688  12.817 -0.3228 -0.8842  0.0034
14109SOL    HW154306  13.310   0.738  12.781 -0.0933 -1.9173 -2.0420
14109SOL    HW254307  13.449   0.689  12.748  1.5918 -0.0632  1.7612
14110SOL     OW54308   3.648   6.531  11.646  0.2720  0.5720 -0.2770
14110SOL    HW154309   3.684   6.599  11.703 -0.8303  0.1539  0.9673
14110SOL    HW254310   3.555   6.551  11.641  0.2363  0.1899 -1.3805
14111SOL     OW54311   9.495   0.256   9.311 -0.2265  0.4336  0.6118
14111SOL    HW154312   9.433   0.206   9.257 -0.3468  0.3199  0.8537
14111SOL    HW254313   9.457   0.255   9.399  0.3164  0.0299  0.8449
14112SOL     OW54314   6.031  12.644  13.624 -0.1339  0.4332  0.3848
14112SOL    HW154315   5.945  12.646  13.583 -0.4569  0.4388  1.0537
14112SOL    HW254316   6.061  12.554  13.614  0.1323  0.6054 -0.5352
14113SOL     OW54317   3.458   5.113   1.817 -0.3020 -0.0239 -0.2874
14113SOL    HW154318   3.498   5.036   1.859 -1.5320 -1.4023 -1.5671
14113SOL    HW254319   3.529   5.151   1.765 -0.4942 -2.3287 -2.3805
14114SOL     OW54320  10.730   1.465  12.088  0.3308  0.0794  0.3176
14114SOL    HW154321  10.692   1.551  12.072 -3.1397 -1.0992  1.2403
14114SOL    HW254322  10.772   1.441  12.005 -0.8350  1.6410 -0.7852
14115SOL     OW54323   9.763   2.023  13.918  0.6860 -0.3393 -0.0764
14115SOL    HW154324   9.749   2.017  13.824 -1.5712  0.6059  0.1326
14115SOL    HW254325   9.853   1.992  13.932  1.2338 -0.0361 -2.5711
14116SOL     OW54326   7.093   6.171   6.009 -0.8203 -0.0565 -0.1870
14116SOL    HW154327   7.052   6.085   5.999 -1.9870  0.4974 -0.3985
14116SOL    HW254328   7.044   6.212   6.080  0.6607 -0.0843  0.8800
14117SOL     OW54329   0.431   0.462  12.128  0.2066 -0.2950 -0.3416
14117SOL    HW154330   0.505   0.467  12.067 -0.0057 -0.2207 -0.5966
14117SOL    HW254331   0.389   0.379  12.108  0.5568 -0.6108  0.2001
14118SOL     OW54332   1.908   0.723   8.678 -0.8281 -0.0104 -0.2346
14118SOL    HW154333   1.821   0.742   8.713 -1.0484 -0.1993 -0.6871
14118SOL    HW254334   1.932   0.801   8.629  0.0524  0.8271  1.4285
14119SOL     OW54335   3.187  11.682   1.935  0.3300 -0.0659 -0.4222
14119SOL    HW154336   3.227  11.752   1.987 -1.6183  0.6347  0.2043
14119SOL    HW254337   3.185  11.606   1.994  1.6572 -0.4377 -0.8178
14120SOL     OW54338   2.411   5.867   7.945 -0.5535  0.7623 -0.8513
14120SOL    HW154339   2.353   5.920   7.890 -1.1330  1.2205  0.1802
14120SOL    HW254340   2.469   5.930   7.988 -0.5025  0.4619 -0.4761
14121SOL     OW54341   6.380   0.867  13.753 -0.2150  0.2289 -0.5714
14121SOL    HW154342   6.291   0.881  13.721 -1.2343 -1.6640  1.1480
14121SOL    HW254343   6.375   0.786  13.804  2.5564 -0.0543 -0.5564
14122SOL     OW54344   5.476  11.867   8.970 -0.5754  0.1720  0.5471
14122SOL    HW154345   5.515  11.925   9.036  0.1865  1.7406 -1.2196
14122SOL    HW254346   5.520  11.783   8.985 -0.3102  0.5164  1.9248
14123SOL     OW54347   2.128  10.161   9.986  0.0075 -0.1994 -0.1984
14123SOL    HW154348   2.166  10.246   9.963 -1.7531  1.2152  1.6624
14123SOL    HW254349   2.196  10.116  10.035 -0.0171  1.5179  1.5211
14124SOL     OW54350   3.842   4.433   3.352 -0.1650  0.7049 -0.5396
14124SOL    HW154351   3.756   4.417   3.391 -0.6065 -0.6068 -1.9791
14124SOL    HW254352   3.835   4.521   3.314 -0.6764  0.8146 -0.2034
14125SOL     OW54353   7.436   0.205  13.337  0.3489 -0.4860 -0.4091
14125SOL    HW154354   7.408   0.252  13.259 -1.7832 -1.5876 -0.3760
14125SOL    HW254355   7.423   0.112  13.315  0.7970 -0.8656  0.8474
14126SOL     OW54356  13.282   8.873  10.503 -0.1751  0.2958  0.4312
14126SOL    HW154357  13.375   8.886  10.520 -0.2387  0.7170  0.4675
14126SOL    HW254358  13.267   8.915  10.418 -0.1693 -0.4703  0.0452
14127SOL     OW54359   6.350  11.363   4.415 -0.3897  0.2562  0.7481
14127SOL    HW154360   6.391  11.277   4.402 -1.1308 -0.0464  0.4023
14127SOL    HW254361   6.266  11.357   4.371 -0.1752  1.3860  0.1400
14128SOL     OW54362   2.538   0.230  12.854  0.0944  0.2315 -0.2372
14128SOL    HW154363   2.564   0.257  12.766 -1.0277  2.2049 -0.0032
14128SOL    HW254364   2.619   0.234  12.905  0.6727 -0.5272 -1.0439
14129SOL     OW54365   1.803  10.453  12.403 -0.4454  0.0869  0.2903
14129SOL    HW154366   1.748  10.380  12.376  1.0487 -0.5856 -1.1308
14129SOL    HW254367   1.827  10.434  12.494 -2.0642  0.1170  0.7422
14130SOL     OW54368   0.160  11.890   5.955 -0.4312  1.0972  0.5628
14130SOL    HW154369   0.181  11.983   5.965  4.5877  0.3236 -0.2760
14130SOL    HW254370   0.177  11.871   5.863 -1.7354 -0.6586  0.6226
14131SOL     OW54371   9.907   3.784  11.538 -0.3017 -0.3674 -0.0491
14131SOL    HW154372   9.886   3.874  11.563 -0.8311  0.1026 -1.9718
14131SOL    HW254373   9.836   3.732  11.574 -0.1189  0.0031  0.8743
14132SOL     OW54374   6.729  13.068   3.440  0.5826 -0.1216 -0.0043
14132SOL    HW154375   6.770  13.085   3.355 -0.9579  1.5493 -0.4854
14132SOL    HW254376   6.763  13.138   3.497  2.3669 -1.7993  1.0946
14133SOL     OW54377   7.176  10.991   8.914  0.4588  0.1183  0.2682
14133SOL    HW154378   7.177  11.043   8.995 -2.6406 -0.2252  0.6605
14133SOL    HW254379   7.161  10.901   8.943 -0.6963 -0.0118 -0.6617
14134SOL     OW54380  12.692  11.040   6.891 -0.3463  0.0842  0.2220
14134SOL    HW154381  12.614  11.075   6.934 -0.5966 -0.2742  0.0589
14134SOL    HW254382  12.678  11.058   6.798  0.5110  1.4917  0.3361
14135SOL     OW54383   4.293  12.691   9.098 -0.1503 -0.1806 -0.0855
14135SOL    HW154384   4.298  12.769   9.044  1.8095  0.2615  0.6261
14135SOL    HW254385   4.336  12.623   9.046 -1.4746 -0.6925 -0.5306
14136SOL     OW54386   3.271   0.170   3.006  0.2333 -0.3791  0.1394
14136SOL    HW154387   3.196   0.149   2.952  0.3610  0.3585 -0.3406
14136SOL    HW254388   3.233   0.195   3.091  0.0121 -1.0985  0.2616
14137SOL     OW54389  10.875   4.434   7.180 -0.2562 -0.4625  0.0604
14137SOL    HW154390  10.789   4.445   7.218 -1.0799  0.7210 -1.9770
14137SOL    HW254391  10.907   4.523   7.165  1.1829 -0.8832  0.4455
14138SOL     OW54392   2.732   9.179  12.480  0.4045 -0.0881 -0.4931
14138SOL    HW154393   2.811   9.230  12.467 -0.1980  1.0041  0.0016
14138SOL    HW254394   2.763   9.090  12.494  1.5764  0.3987  0.1504
14139SOL     OW54395   7.657  10.012  11.752  0.3603  0.0501 -0.2342
14139SOL    HW154396   7.677  10.020  11.845  3.5756  1.8623 -0.9046
14139SOL    HW254397   7.701   9.931  11.725 -0.7988 -0.6179 -0.1578
14140SOL     OW54398   7.172   1.832   4.982  0.2016 -0.0263 -0.1505
14140SOL    HW154399   7.131   1.883   4.913 -2.2244 -0.3447  0.9482
14140SOL    HW254400   7.179   1.744   4.947 -0.0307  0.0381 -0.3531
14141SOL     OW54401   5.479  11.273   7.699 -0.0769  0.1939 -0.0912
14141SOL    HW154402   5.516  11.189   7.672  0.0805  0.2640 -0.0946
14141SOL    HW254403   5.501  11.333   7.627  3.2834  1.2224  1.5866
14142SOL     OW54404   0.873   2.980  10.399 -0.0267  0.1151  0.0960
14142SOL    HW154405   0.910   2.953  10.315  0.5525 -0.3956  0.5139
14142SOL    HW254406   0.899   3.072  10.408  1.0655 -0.2041  0.3379
14143SOL     OW54407  12.691   8.980   2.944  1.0176 -0.0687  0.1361
14143SOL    HW154408  12.686   9.074   2.963 -1.4038  0.6669 -3.0407
14143SOL    HW254409  12.697   8.976   2.848  1.6149 -3.1668  0.2143
14144SOL     OW54410   4.597  12.446  13.472  0.0815 -0.1895 -0.1333
14144SOL    HW154411   4.641  12.526  13.443 -1.2829  0.4976 -0.3966
14144SOL    HW254412   4.514  12.476  13.508  0.4375 -1.3133  1.7390
14145SOL     OW54413   6.739  11.804   9.022  0.4207 -0.1006 -0.8273
14145SOL    HW154414   6.735  11.842   8.934 -0.5637  0.7912 -0.4206
14145SOL    HW254415   6.695  11.868   9.078  1.1896 -0.5639  0.3569
14146SOL     OW54416  10.720   9.086   7.916 -0.3033 -0.0726 -0.1760
14146SOL    HW154417  10.694   9.096   8.007  0.8608  2.3389 -0.0529
14146SOL    HW254418  10.798   9.029   7.919  0.2986  0.7728  0.4467
14147SOL     OW54419   5.603   6.261   8.760 -0.0601 -0.8347  0.4512
14147SOL    HW154420   5.686   6.306   8.746  0.7013 -1.6776  2.0105
14147SOL    HW254421   5.602   6.191   8.695 -0.1368 -0.0894 -0.3719
14148SOL     OW54422   6.481   5.791  10.265  0.0035 -0.8273 -0.1212
14148SOL    HW154423   6.513   5.804  10.355 -0.1918  1.0608 -0.2957
14148SOL    HW254424   6.554   5.820  10.210 -0.6540  0.0714 -0.5408
14149SOL     OW54425   9.773   2.050   8.051  0.4056 -0.6590 -0.3674
14149SOL    HW154426   9.800   1.965   8.016  1.3089 -0.0522 -1.2053
14149SOL    HW254427   9.762   2.036   8.144  2.0669 -1.3541 -0.2444
14150SOL     OW54428   9.717   0.347  10.633 -0.1714 -0.6353  0.4592
14150SOL    HW154429   9.689   0.421  10.580 -2.9575 -0.7116  1.6521
14150SOL    HW254430   9.811   0.340  10.617 -0.4131  1.0219 -2.2704
14151SOL     OW54431   3.642   1.199   8.781  0.5581 -0.0899  0.0514
14151SOL    HW154432   3.548   1.215   8.783  0.3859 -1.0052 -0.4308
14151SOL    HW254433   3.678   1.262   8.844 -0.3510  0.3706  0.1267
14152SOL     OW54434   6.894   6.700  12.220 -0.4417  0.3826 -0.1626
14152SOL    HW154435   6.971   6.689  12.163  0.4224  0.9387  0.8714
14152SOL    HW254436   6.822   6.716  12.159 -0.3325 -2.8588 -1.3629
14153SOL     OW54437   0.756   6.428  11.380 -0.1573 -0.1798 -0.2518
14153SOL    HW154438   0.710   6.373  11.316 -0.0921 -0.6330  0.0880
14153SOL    HW254439   0.694   6.499  11.399  0.1226  0.4136 -1.4068
14154SOL     OW54440   1.135  10.336   5.625 -0.2022 -0.5925 -0.0874
14154SOL    HW154441   1.199  10.402   5.649 -0.2523  0.5490 -2.7751
14154SOL    HW254442   1.170  10.254   5.660  1.7746  0.3011  0.1197
14155SOL     OW54443   6.880   8.443   3.543 -0.4874 -0.3081  0.0926
14155SOL    HW154444   6.901   8.446   3.636 -1.9268  1.2648  0.4053
14155SOL    HW254445   6.816   8.372   3.535 -2.0977  1.0189  0.7299
14156SOL     OW54446   2.860  11.170   3.408 -0.1138 -0.4963 -0.1969
14156SOL    HW154447   2.904  11.161   3.324  0.7219  0.1204  0.1603
14156SOL    HW254448   2.847  11.080   3.438  1.8872 -0.6981  0.1723
14157SOL     OW54449   2.038   3.066   7.342 -0.1418 -0.0933  0.0647
14157SOL    HW154450   2.068   3.142   7.393 -0.0080 -0.6480  0.8316
14157SOL    HW254451   2.066   3.085   7.252  2.1457 -0.3744  0.6521
14158SOL     OW54452  11.009  11.452   4.958 -0.1687 -0.5071 -0.0402
14158SOL    HW154453  11.059  11.503   4.894 -0.2690  0.8748  0.9271
14158SOL    HW254454  11.075  11.409   5.012  0.0118  0.6772  0.7327
14159SOL     OW54455   1.624   6.349   0.407 -0.0099  0.2290  0.4256
14159SOL    HW154456   1.549   6.290   0.410  0.0112  0.2308  1.7637
14159SOL    HW254457   1.650   6.359   0.499  1.7435  0.0941 -0.0268
14160SOL     OW54458   2.231  11.283  10.750 -0.0611 -0.2711 -0.3843
14160SOL    HW154459   2.196  11.263  10.836  1.2346 -0.2375  0.1782
14160SOL    HW254460   2.254  11.376  10.754 -0.2364 -0.2029 -0.8573
14161SOL     OW54461   3.015   9.266  10.094 -0.3181 -0.3875 -0.2032
14161SOL    HW154462   3.062   9.199  10.143  0.4727  0.6611  0.5233
14161SOL    HW254463   2.923   9.250  10.114 -0.0676 -0.5427  0.9148
14162SOL     OW54464   5.770   1.119   6.125 -0.4469 -0.2280 -0.2706
14162SOL    HW154465   5.807   1.031   6.138  0.0165  0.2372  1.9660
14162SOL    HW254466   5.757   1.153   6.214 -2.4949  1.2150 -1.0458
14163SOL     OW54467  12.814   5.996  13.057 -0.3462 -0.2118  0.6118
14163SOL    HW154468  12.816   5.991  13.152  0.7617  0.0038  0.6184
14163SOL    HW254469  12.799   6.088  13.038 -0.4348 -0.2326  0.5812
14164SOL     OW54470   5.511  13.427   2.326 -0.1877  0.1299  0.4848
14164SOL    HW154471   5.429  13.432   2.376  0.4320 -0.1076  1.5474
14164SOL    HW254472   5.532  13.334   2.324  1.1936  0.3693  2.1331
14165SOL     OW54473   8.046   7.856   2.111 -0.2040 -1.0969  0.2459
14165SOL    HW154474   8.032   7.877   2.018  1.4954  1.4050  0.4522
14165SOL    HW254475   7.959   7.835   2.144 -1.1310 -0.2737 -1.5229
14166SOL     OW54476   2.384   1.389  12.462  0.3701  0.0813  0.7408
14166SOL    HW154477   2.383   1.295  12.480 -1.9113 -0.2045 -0.5411
14166SOL    HW254478   2.346   1.429  12.540 -1.9424 -0.4276 -0.0548
14167SOL     OW54479   4.686   2.296   0.376  0.4655 -0.1490 -0.1246
14167SOL    HW154480   4.748   2.241   0.423 -1.5429 -1.9292  0.5901
14167SOL    HW254481   4.671   2.371   0.434  1.8582  0.2768 -0.2890
14168SOL     OW54482  11.117  13.900   0.523  0.9905 -0.0384 -0.6434
14168SOL    HW154483  11.208  13.873   0.530  0.4475 -1.7608  0.3564
14168SOL    HW254484  11.089  13.867   0.438  1.3174  0.5977 -1.0043
14169SOL     OW54485   7.874   8.139   2.189 -0.2213  0.0857  0.0964
14169SOL    HW154486   7.832   8.137   2.104  1.5413 -0.9493 -0.8244
14169SOL    HW254487   7.816   8.089   2.246 -1.6587  1.1909 -0.3363
14170SOL     OW54488   0.131   3.236   2.671  0.2590  0.2615 -0.2693
14170SOL    HW154489   0.210   3.201   2.631 -0.4391 -0.3929 -1.1345
14170SOL    HW254490   0.061   3.215   2.608 -0.4553  1.6598  0.0288
14171SOL     OW54491  10.346   7.916   5.153 -0.3359  0.1594 -0.0706
14171SOL    HW154492  10.364   7.847   5.217 -0.6257  1.1760  1.1655
14171SOL    HW254493  10.430   7.934   5.112  0.4084  1.1235  1.7610
14172SOL     OW54494   6.352   5.819  12.534  0.0435  0.4098 -0.8750
14172SOL    HW154495   6.280   5.862  12.488 -2.5244 -1.5999  0.9279
14172SOL    HW254496   6.349   5.856  12.623  1.3751  0.4160 -0.8133
14173SOL     OW54497   5.242  10.916   1.191 -0.0318 -0.5496 -0.1536
14173SOL    HW154498   5.168  10.863   1.223  0.9603 -2.9843 -1.6517
14173SOL    HW254499   5.281  10.952   1.271 -1.8690 -0.4900  0.7871
14174SOL     OW54500   3.460  12.810   7.299 -0.0305  0.2515 -0.4661
14174SOL    HW154501   3.412  12.790   7.219  2.4629 -1.2159 -1.7101
14174SOL    HW254502   3.463  12.905   7.302 -3.4917  0.4924  0.0961
14175SOL     OW54503   7.757   5.113  13.485 -0.0542 -0.1603  0.3403
14175SOL    HW154504   7.816   5.184  13.459  0.9208 -1.0448  0.0701
14175SOL    HW254505   7.815   5.039  13.504 -1.1228 -1.3356 -0.7688
14176SOL     OW54506   6.475   1.508   6.508 -0.0474  0.3771  0.2084
14176SOL    HW154507   6.540   1.469   6.450  0.2598  0.7738  0.2810
14176SOL    HW254508   6.497   1.476   6.595  0.5730  1.1819  0.3539
14177SOL     OW54509   3.616  12.387   5.576 -0.3480 -0.7678  0.4039
14177SOL    HW154510   3.631  12.481   5.563  0.5276 -0.8719  0.6142
14177SOL    HW254511   3.582  12.380   5.665  1.4516 -0.8123  1.1301
14178SOL     OW54512  13.663  12.942   7.864 -0.1903 -0.2282  0.5092
14178SOL    HW154513  13.585  12.969   7.815  0.5899  0.2090 -0.5399
14178SOL    HW254514  13.640  12.955   7.956 -2.0347 -1.9593  0.3472
14179SOL     OW54515   9.392  13.631  11.847  0.1952  0.6339 -0.6694
14179SOL    HW154516   9.299  13.651  11.846  0.1801  0.5618 -0.7208
14179SOL    HW254517   9.429  13.690  11.913 -0.1592 -0.4835  0.5605
14180SOL     OW54518   5.094  13.100   3.877 -0.4524 -0.2101 -0.0394
14180SOL    HW154519   5.147  13.034   3.833  2.1783  1.3841  0.5522
14180SOL    HW254520   5.071  13.162   3.808  2.5760  1.5893  0.3776
14181SOL     OW54521   4.777   2.480   9.779  0.2295 -0.0995  0.2370
14181SOL    HW154522   4.700   2.530   9.750 -0.4395 -1.5686 -0.5944
14181SOL    HW254523   4.744   2.391   9.793  1.9577 -0.9775 -1.0079
14182SOL     OW54524  11.021  10.870   1.739  0.1759 -0.3027  0.0524
14182SOL    HW154525  11.086  10.845   1.805 -0.5297 -1.0049  0.5045
14182SOL    HW254526  11.057  10.838   1.657  1.0566  0.5572  0.0928
14183SOL     OW54527  11.095   9.682   7.362 -0.1354 -0.0121 -0.2605
14183SOL    HW154528  11.035   9.610   7.341 -1.2903  0.7161  0.4528
14183SOL    HW254529  11.062   9.757   7.311  0.2247  0.3833  0.0749
14184SOL     OW54530   7.339   9.371   3.563 -0.3621  0.2609  0.2826
14184SOL    HW154531   7.277   9.328   3.505 -1.8113  0.4386  1.6356
14184SOL    HW254532   7.337   9.463   3.537  0.5823  0.0062 -0.7375
14185SOL     OW54533   4.780  10.582   6.904  0.3046  0.0741  0.6613
14185SOL    HW154534   4.695  10.541   6.889  0.6999 -0.3343 -0.5941
14185SOL    HW254535   4.760  10.674   6.920 -0.3829 -0.0544  0.5580
14186SOL     OW54536   8.699   1.431   5.978  0.0104  0.5728 -0.2805
14186SOL    HW154537   8.657   1.516   5.992  1.0485  1.0063  0.2521
14186SOL    HW254538   8.789   1.452   5.953  0.0873 -0.3617 -0.8504
14187SOL     OW54539  13.371  10.031   4.969 -0.3869  0.5990 -0.3284
14187SOL    HW154540  13.374   9.950   5.020 -2.5088  0.5533 -0.1841
14187SOL    HW254541  13.372  10.002   4.877 -0.0665  0.4799 -0.2882
14188SOL     OW54542   1.415  12.561  10.707  0.6353  0.2108 -0.4183
14188SOL    HW154543   1.510  12.550  10.700  0.4170 -2.2118 -0.3386
14188SOL    HW254544   1.402  12.655  10.717  3.0523  0.5535 -0.0272
14189SOL     OW54545   9.079   4.983   2.681 -0.2708 -0.2368 -0.0934
14189SOL    HW154546   9.030   4.981   2.599  0.2754  0.9579 -0.4738
14189SOL    HW254547   9.165   4.947   2.658 -0.1782 -0.0725 -0.0028
14190SOL     OW54548   8.717   9.868   4.279  0.1535 -0.0878  0.0051
14190SOL    HW154549   8.771   9.946   4.294  1.1773 -1.0102  1.4214
14190SOL    HW254550   8.630   9.892   4.311 -0.3120  1.3630 -2.1479
14191SOL     OW54551   9.338   2.244  10.252  0.7837 -0.1414  0.3799
14191SOL    HW154552   9.340   2.298  10.174 -0.0782 -1.0572 -0.3101
14191SOL    HW254553   9.250   2.205  10.252  1.2650 -1.2821  1.0073
14192SOL     OW54554  10.773   2.595  12.102 -0.2169  0.1705  0.4094
14192SOL    HW154555  10.787   2.654  12.177 -1.5554  1.3612 -0.2224
14192SOL    HW254556  10.682   2.612  12.076 -0.6635 -2.2370  0.2075
14193SOL     OW54557   7.390   9.569   5.300  0.6736  0.3885 -0.2404
14193SOL    HW154558   7.301   9.540   5.318  1.0376 -0.4528  0.2537
14193SOL    HW254559   7.405   9.640   5.361  1.0202 -0.7871  1.0960
14194SOL     OW54560  13.624   8.327   6.624 -0.0189  0.4304 -0.2784
14194SOL    HW154561  13.670   8.409   6.643  1.4831 -0.0760 -1.4376
14194SOL    HW254562  13.685   8.258   6.651 -0.4027 -0.2770 -1.1317
14195SOL     OW54563   2.117   6.061   7.125 -0.1108 -0.0223  0.7990
14195SOL    HW154564   2.057   6.117   7.172 -0.6622 -0.1800  0.2977
14195SOL    HW254565   2.123   6.099   7.037  2.5711  1.5287  1.5382
14196SOL     OW54566  11.999  10.572   6.480  0.1340  0.0389 -0.3353
14196SOL    HW154567  11.983  10.519   6.402  1.2251  0.1234 -0.6388
14196SOL    HW254568  11.953  10.654   6.463  0.2839  0.0221 -0.8590
14197SOL     OW54569   5.450   5.766   8.250 -0.0563  0.1892  0.4141
14197SOL    HW154570   5.440   5.671   8.262  2.3836 -0.2395 -0.5126
14197SOL    HW254571   5.516   5.792   8.315 -0.1001  1.1234  0.1006
14198SOL     OW54572   5.916   3.274  13.880  0.6013  0.0700 -0.3346
14198SOL    HW154573   5.897   3.180  13.880 -0.6965  0.1475  3.9656
14198SOL    HW254574   6.010   3.280  13.896  0.9346 -0.4037 -1.9230
14199SOL     OW54575   6.648   1.859   5.568  0.5467  0.5048 -0.1332
14199SOL    HW154576   6.688   1.945   5.584  0.2466  0.7941 -0.9051
14199SOL    HW254577   6.661   1.811   5.650  0.5975  1.3349  0.3550
14200SOL     OW54578   3.569   2.258   1.750 -0.1298 -0.5376 -0.4484
14200SOL    HW154579   3.536   2.347   1.759 -0.6360 -0.7556 -0.1021
14200SOL    HW254580   3.531   2.210   1.824  1.2980 -0.6983  0.2180
14201SOL     OW54581   6.972   9.033  12.980 -0.4877  0.5094 -0.4301
14201SOL    HW154582   7.008   9.122  12.977 -0.1826  0.4624  1.1685
14201SOL    HW254583   6.893   9.038  12.927 -0.2816  1.6449 -0.6650
14202SOL     OW54584  10.107   7.908   4.254  0.1413  0.1906 -0.1432
14202SOL    HW154585  10.124   7.923   4.347  0.6745 -1.5436  0.0769
14202SOL    HW254586  10.194   7.910   4.213  0.0076 -0.0809 -0.4438
14203SOL     OW54587  12.644   1.743   0.818  0.6141  0.2331 -0.6193
14203SOL    HW154588  12.707   1.782   0.879  1.5140  0.5205 -1.7132
14203SOL    HW254589  12.666   1.650   0.817  0.0618  0.0853  0.1070
14204SOL     OW54590   1.697   7.678   8.020  0.2579  0.2604 -0.1845
14204SOL    HW154591   1.678   7.685   7.926 -1.9280 -0.5291  0.1295
14204SOL    HW254592   1.784   7.639   8.024 -1.2571 -3.9396 -2.0406
14205SOL     OW54593  14.007   6.239  11.828  0.2966 -0.0804  0.1218
14205SOL    HW154594  14.081   6.295  11.851 -0.0630  0.0832  0.9112
14205SOL    HW254595  13.943   6.299  11.787 -0.3935  0.2576  1.6242
14206SOL     OW54596   1.942   2.580   3.546  0.2018 -0.1828  0.2574
14206SOL    HW154597   1.988   2.514   3.495 -0.4011 -0.1283 -0.3720
14206SOL    HW254598   2.002   2.655   3.548  0.0651 -0.0388 -0.7273
14207SOL     OW54599   8.933  10.785   8.329  1.1186  0.0916  0.3127
14207SOL    HW154600   8.907  10.870   8.294  1.1434  0.4823  1.2113
14207SOL    HW254601   8.940  10.799   8.424  3.1066 -0.3578  0.2950
14208SOL     OW54602   0.471   0.865   3.882  0.4032 -0.0398 -0.4685
14208SOL    HW154603   0.439   0.929   3.946  0.1981  1.1907 -1.7506
14208SOL    HW254604   0.536   0.914   3.831  2.7552 -1.8108  0.6099
14209SOL     OW54605   3.387   9.593  11.616  0.5713 -0.3400  0.3891
14209SOL    HW154606   3.442   9.530  11.568 -0.4362 -0.0403 -1.2460
14209SOL    HW254607   3.418   9.679  11.586  0.0149 -0.1416  0.3772
14210SOL     OW54608   6.688  11.820   5.486 -0.1955  0.4886  0.1541
14210SOL    HW154609   6.764  11.878   5.486  1.0802 -1.1122  0.5376
14210SOL    HW254610   6.676  11.795   5.394 -1.1240  1.7797 -0.1015
14211SOL     OW54611   3.797   0.223  13.544 -0.3978  0.3817  0.2249
14211SOL    HW154612   3.725   0.230  13.481 -0.9066 -0.5774  0.6731
14211SOL    HW254613   3.758   0.251  13.627 -0.0944  0.4029  0.3597
14212SOL     OW54614   8.418  13.268   4.863 -0.2202 -0.5920 -0.4701
14212SOL    HW154615   8.474  13.300   4.792  2.4147 -0.6296  1.4481
14212SOL    HW254616   8.409  13.343   4.922 -0.9045 -1.0440  0.0016
14213SOL     OW54617  13.625   5.407   3.103  0.3293  0.1867 -0.1449
14213SOL    HW154618  13.662   5.320   3.116  1.3100  0.4578 -0.9208
14213SOL    HW254619  13.545   5.392   3.054 -1.4270 -0.5279  2.7360
14214SOL     OW54620   0.025  12.274   2.743 -0.9336 -0.7529 -0.1048
14214SOL    HW154621   0.109  12.229   2.732 -0.7511 -0.4551  0.0612
14214SOL    HW254622  -0.028  12.213   2.796  0.0625  0.1276  2.0021
14215SOL     OW54623   9.341   5.240   9.403 -0.3706  0.2649 -0.3950
14215SOL    HW154624   9.427   5.236   9.360 -0.7469 -1.3014 -1.0478
14215SOL    HW254625   9.296   5.312   9.359  0.5645  1.0451 -0.1101
14216SOL     OW54626   0.540   4.102  13.949  0.5143 -0.3986 -0.0455
14216SOL    HW154627   0.617   4.088  13.892 -0.8076 -0.2873 -1.9663
14216SOL    HW254628   0.471   4.131  13.889 -0.9812 -0.2634  1.6565
14217SOL     OW54629  11.567  12.538  12.750 -0.2018 -0.1833 -0.4262
14217SOL    HW154630  11.538  12.512  12.663  1.2533  0.3803 -1.1139
14217SOL    HW254631  11.607  12.624  12.738  0.9748 -0.5469  0.5915
14218SOL     OW54632   9.169   6.643   1.999  0.5152 -0.2285 -0.3290
14218SOL    HW154633   9.259   6.650   2.029  0.2053  1.0936  0.3920
14218SOL    HW254634   9.158   6.551   1.978  1.9168 -0.4814 -0.0576
14219SOL     OW54635   7.704   1.895   0.185  0.3056 -0.3979 -0.2453
14219SOL    HW154636   7.784   1.857   0.220  0.6109 -0.5846 -1.1209
14219SOL    HW254637   7.711   1.989   0.202 -0.1580 -0.6233  1.3541
14220SOL     OW54638   5.995  11.599   2.071  0.4863  0.1585 -0.3863
14220SOL    HW154639   6.005  11.694   2.077  0.6416  0.0782  0.6701
14220SOL    HW254640   5.910  11.587   2.027  0.6471  0.7746 -0.8901
14221SOL     OW54641   0.722   0.279   9.819 -0.4589  0.4623  0.5758
14221SOL    HW154642   0.661   0.297   9.890  0.1774 -0.1117  1.2919
14221SOL    HW254643   0.784   0.216   9.857 -0.6619 -0.5954 -0.7760
14222SOL     OW54644   9.823   1.430  12.787 -0.2670 -0.1414  0.6721
14222SOL    HW154645   9.771   1.505  12.759  1.3880 -0.3170 -3.6037
14222SOL    HW254646   9.779   1.354  12.749  1.7390 -0.5042 -1.1543
14223SOL     OW54647  10.854  12.581   6.385  0.6468 -0.1544  0.0623
14223SOL    HW154648  10.843  12.560   6.478  1.7594 -3.9928 -0.4969
14223SOL    HW254649  10.766  12.606   6.356 -0.0666 -0.4898  1.7888
14224SOL     OW54650   5.613   3.918   2.981  0.1480  0.6871 -0.6143
14224SOL    HW154651   5.669   3.851   3.019 -0.1579 -0.0164 -1.3807
14224SOL    HW254652   5.550   3.937   3.050 -1.6517 -2.0263 -1.3293
14225SOL     OW54653   9.120   5.245   9.587  0.8841  0.2738 -0.4600
14225SOL    HW154654   9.167   5.253   9.670 -1.5692 -1.0481  1.1902
14225SOL    HW254655   9.186   5.260   9.520  3.5381 -1.1024  1.6711
14226SOL     OW54656  11.133  13.140   2.208  0.4033  0.0074  0.0776
14226SOL    HW154657  11.144  13.234   2.191 -0.6544  0.4499  1.5909
14226SOL    HW254658  11.198  13.098   2.152 -0.0437  1.5427 -1.7027
14227SOL     OW54659  11.815   2.939   0.751 -0.1900  0.8168 -0.5700
14227SOL    HW154660  11.906   2.929   0.778 -0.4799 -1.6672 -0.3052
14227SOL    HW254661  11.819   2.960   0.658  0.7429 -4.6706 -2.0784
14228SOL     OW54662   4.717   4.679   0.814 -1.0353  0.0479 -0.4249
14228SOL    HW154663   4.707   4.774   0.823  1.9617  0.5849 -1.6073
14228SOL    HW254664   4.646   4.642   0.867 -2.0982  2.9140  0.3380
14229SOL     OW54665   2.207  13.894  10.213  0.4711 -0.9719 -0.1414
14229SOL    HW154666   2.159  13.960  10.262 -0.2357 -1.9934  0.5816
14229SOL    HW254667   2.211  13.929  10.124 -1.3786 -0.7160 -0.1683
14230SOL     OW54668  12.798   9.610  10.713  0.3017  0.1060  0.4630
14230SOL    HW154669  12.823   9.522  10.742 -1.4462 -0.5080  0.2353
14230SOL    HW254670  12.797   9.662  10.793  0.2062 -0.3799  0.7820
14231SOL     OW54671  11.174  10.326   7.757 -0.3900  0.1237 -0.0369
14231SOL    HW154672  11.237  10.390   7.788  0.1461 -0.0297 -0.7681
14231SOL    HW254673  11.178  10.254   7.821 -0.8127  0.6951  0.6446
14232SOL     OW54674   4.973   0.914  11.302  0.5765  0.2673  0.0042
14232SOL    HW154675   4.963   0.983  11.237  2.4173 -0.1831 -0.8080
14232SOL    HW254676   5.066   0.893  11.302  0.3115 -1.1550  1.3420
14233SOL     OW54677   5.882   3.439   2.916  0.0375  0.3799  0.1493
14233SOL    HW154678   5.961   3.489   2.938 -0.0473  0.9403 -0.7811
14233SOL    HW254679   5.845   3.484   2.840 -1.9095  0.9271  1.3395
14234SOL     OW54680   2.124   6.618   6.610 -0.2296  0.5728 -0.3260
14234SOL    HW154681   2.072   6.649   6.684  0.6064  1.5572 -0.1282
14234SOL    HW254682   2.102   6.525   6.602 -2.3362  1.0389 -0.5299
14235SOL     OW54683   6.305   2.573  11.428  0.1894  0.4575  1.2046
14235SOL    HW154684   6.295   2.646  11.366 -0.6638  0.3579  1.2046
14235SOL    HW254685   6.215   2.548  11.449  0.4418 -1.3018  0.3790
14236SOL     OW54686   7.346  10.622  12.726 -0.3618  0.0359  0.2396
14236SOL    HW154687   7.251  10.615  12.736 -0.6790 -0.2252 -2.3355
14236SOL    HW254688   7.363  10.592  12.637  2.2573 -0.7221  0.9024
14237SOL     OW54689   2.423   2.944   3.802  0.0414 -0.6026 -0.5735
14237SOL    HW154690   2.489   2.888   3.760 -0.1135 -0.5143 -0.9446
14237SOL    HW254691   2.444   3.032   3.770  0.0280 -0.5066 -0.3203
14238SOL     OW54692  13.064   2.923  10.962 -0.0276  0.0753  0.4902
14238SOL    HW154693  13.034   2.930  10.872 -0.1013 -0.4288  0.4723
14238SOL    HW254694  13.068   2.829  10.979 -0.2863  0.1715  1.1055
14239SOL     OW54695  12.694   4.510   4.288 -0.0482  0.1543  0.1679
14239SOL    HW154696  12.635   4.442   4.256 -0.7004  1.2812 -1.1437
14239SOL    HW254697  12.770   4.463   4.321 -0.6867 -1.2168 -0.2544
14240SOL     OW54698   3.664   5.914   1.921  0.5509  0.0758  0.7130
14240SOL    HW154699   3.714   5.958   1.990 -0.3150  1.7151  0.3324
14240SOL    HW254700   3.573   5.933   1.941  0.2721  0.4146 -0.7525
14241SOL     OW54701  12.017  12.906  13.246  0.1075 -0.1472  0.2735
14241SOL    HW154702  11.922  12.915  13.242  0.1326 -0.3237 -1.4664
14241SOL    HW254703  12.038  12.839  13.181  1.5090  0.7378 -0.2411
14242SOL     OW54704   2.940   9.970   2.953  0.6166 -0.2988  0.3257
14242SOL    HW154705   2.975  10.035   2.891  0.3838  0.3153  0.8284
14242SOL    HW254706   3.005   9.900   2.952  1.2248  0.2479  0.2805
14243SOL     OW54707   1.858   5.930  10.085 -0.4547 -0.1420 -0.2785
14243SOL    HW154708   1.895   5.958  10.168 -0.1808 -0.2121 -0.3757
14243SOL    HW254709   1.763   5.927  10.100 -0.5277  1.2471 -0.4010
14244SOL     OW54710   9.885   6.869   1.786  0.3388 -0.2236 -0.3068
14244SOL    HW154711   9.792   6.851   1.767  0.2415  1.7670 -2.0600
14244SOL    HW254712   9.883   6.930   1.859  0.0449  2.0460 -2.1062
14245SOL     OW54713   2.664  13.849   4.984 -0.2809  0.1547 -0.3427
14245SOL    HW154714   2.584  13.868   5.032 -1.2307 -0.3690 -1.6411
14245SOL    HW254715   2.715  13.793   5.043  0.1103  2.1741  1.3313
14246SOL     OW54716   2.072   2.513   1.241 -0.1037 -0.2246 -0.0618
14246SOL    HW154717   2.031   2.428   1.227  2.5455 -2.0287  2.1113
14246SOL    HW254718   2.023   2.552   1.314 -0.3961 -0.5503 -0.0807
14247SOL     OW54719  12.173   0.083   7.124  0.3416  0.0553  0.5604
14247SOL    HW154720  12.164   0.063   7.031  0.0247  0.7195  0.4410
14247SOL    HW254721  12.146   0.175   7.132  1.0404  0.2206  1.1968
14248SOL     OW54722   4.898   3.610   1.572  0.0130  0.1315 -0.2549
14248SOL    HW154723   4.869   3.701   1.580  1.4995  0.6011  0.1348
14248SOL    HW254724   4.819   3.562   1.546 -0.4156  1.8176 -2.4341
14249SOL     OW54725   6.038   1.342  13.445  0.1202  0.5992  0.2481
14249SOL    HW154726   6.025   1.382  13.358  0.7996  2.8560  1.1238
14249SOL    HW254727   5.951   1.311  13.469  0.2114 -1.5605 -1.8833
14250SOL     OW54728   9.798   9.644  10.785 -0.5478 -0.2730 -0.7374
14250SOL    HW154729   9.804   9.560  10.829  0.9037  0.6284  0.8800
14250SOL    HW254730   9.850   9.634  10.705 -0.1520 -0.8249 -0.4105
14251SOL     OW54731  10.315  13.258  10.288 -0.0368 -0.3624  0.2755
14251SOL    HW154732  10.340  13.166  10.291  0.3635 -0.2399  0.8745
14251SOL    HW254733  10.257  13.265  10.212 -1.9955 -1.5775  1.6084
14252SOL     OW54734  11.775   6.728  12.781 -0.0446 -0.8908 -0.5321
14252SOL    HW154735  11.686   6.733  12.746 -0.6144  2.3789  1.0303
14252SOL    HW254736  11.822   6.799  12.738  0.2485  0.8344  2.4014
14253SOL     OW54737   7.711  13.103  13.534 -0.0473  0.1656  0.5722
14253SOL    HW154738   7.698  13.187  13.490 -1.2065 -0.6039 -0.6485
14253SOL    HW254739   7.655  13.042  13.486  2.0965 -1.6969  0.2436
14254SOL     OW54740   8.276   4.770   9.897  0.1579 -0.2851 -0.0867
14254SOL    HW154741   8.303   4.784   9.988  0.2050  0.7088 -0.2377
14254SOL    HW254742   8.183   4.747   9.902 -0.0343  0.5167  0.1763
14255SOL     OW54743   8.685   1.497   2.233  0.5631 -0.3033 -0.3833
14255SOL    HW154744   8.713   1.491   2.142  3.1829 -2.4934  0.4326
14255SOL    HW254745   8.664   1.407   2.258 -3.9064  0.6613  0.2661
14256SOL     OW54746   6.600   0.535   9.982 -0.2032 -0.4120 -0.1932
14256SOL    HW154747   6.506   0.548   9.981 -0.0483  1.4137  1.6591
14256SOL    HW254748   6.619   0.497  10.068  0.7187 -1.3548 -0.7787
14257SOL     OW54749  12.714  11.252   9.551  0.1683 -0.0182 -0.4204
14257SOL    HW154750  12.752  11.329   9.593  0.0688  0.5122 -1.2826
14257SOL    HW254751  12.635  11.234   9.602  0.8137 -0.2747  0.5096
14258SOL     OW54752   1.307   5.914  12.487 -0.1471 -0.1302  0.1787
14258SOL    HW154753   1.245   5.981  12.516  0.4413 -0.2815  1.8842
14258SOL    HW254754   1.341   5.877  12.568  1.0424 -1.1015 -0.7412
14259SOL     OW54755   4.133   6.159   4.760 -0.0566  0.0249 -0.0346
14259SOL    HW154756   4.114   6.066   4.771 -0.1076 -0.2925 -2.3562
14259SOL    HW254757   4.047   6.201   4.756 -0.0345  0.1781  0.9563
14260SOL     OW54758  12.247   3.828  13.233  0.2177 -0.0275  0.0459
14260SOL    HW154759  12.210   3.807  13.318  0.6097 -1.8231 -0.1775
14260SOL    HW254760  12.186   3.890  13.194  0.2664  1.1633  1.7952
14261SOL     OW54761   7.660   5.882  10.882 -0.2868 -0.2672 -0.2037
14261SOL    HW154762   7.631   5.859  10.793 -1.5296 -0.5781  0.2663
14261SOL    HW254763   7.723   5.814  10.904 -0.3936 -0.5132 -0.6351
14262SOL     OW54764  13.767   3.647   5.506 -0.2404 -0.7962  0.3349
14262SOL    HW154765  13.746   3.729   5.552  1.8537  0.2321 -0.4329
14262SOL    HW254766  13.862   3.644   5.504 -0.2806 -2.5319 -0.9612
14263SOL     OW54767   1.836   4.847   2.193  0.9749  0.3477 -0.3459
14263SOL    HW154768   1.764   4.909   2.178  0.4598  0.3657  1.8299
14263SOL    HW254769   1.799   4.762   2.167  1.4522  0.7715 -2.6774
14264SOL     OW54770   5.577   0.990   9.223  0.0793  0.0489  0.2583
14264SOL    HW154771   5.651   1.025   9.174 -0.2135  0.0684 -0.1745
14264SOL    HW254772   5.516   1.064   9.232 -0.1119 -0.0961  0.1726
14265SOL     OW54773   9.097  13.863   1.680  0.0978 -0.6146  0.0153
14265SOL    HW154774   9.155  13.932   1.647  0.4484 -0.3264  1.1849
14265SOL    HW254775   9.058  13.901   1.759 -2.2253 -0.5354 -1.0597
14266SOL     OW54776  10.332   5.661   9.167  0.2105 -0.2463  0.5117
14266SOL    HW154777  10.401   5.706   9.118  0.0700 -0.3545  0.2138
14266SOL    HW254778  10.291   5.729   9.220  1.1122 -0.3271  1.3465
14267SOL     OW54779   6.253  10.616  12.583  0.1436  0.4755  0.0181
14267SOL    HW154780   6.254  10.585  12.673  0.1727  1.6011  0.4211
14267SOL    HW254781   6.323  10.681  12.579  0.1298  0.4471 -0.8126
14268SOL     OW54782   2.238   6.947   0.976 -0.2248 -0.6225 -0.4322
14268SOL    HW154783   2.318   7.000   0.968 -0.2406 -0.7332 -1.4900
14268SOL    HW254784   2.179   7.001   1.027 -0.3057  0.4893 -1.6519
14269SOL     OW54785   6.040   3.742  11.204 -0.1965  0.2190 -0.0918
14269SOL    HW154786   6.008   3.761  11.116  0.4573 -1.0352 -0.6275
14269SOL    HW254787   6.019   3.649  11.217  1.6772 -0.1894  0.2091
14270SOL     OW54788   1.171   7.209   2.589  0.6494  0.4016  0.3817
14270SOL    HW154789   1.216   7.214   2.673  1.7545  0.1033 -0.1687
14270SOL    HW254790   1.168   7.300   2.558  0.2926  0.5043  0.7108
14271SOL     OW54791   2.820   2.546   7.036  1.2193  0.7322  0.8531
14271SOL    HW154792   2.878   2.578   6.967  1.3731  1.1948  1.1970
14271SOL    HW254793   2.752   2.497   6.989  1.2299  1.1827  0.3573
14272SOL     OW54794  13.974   5.993   0.498 -0.3562 -0.0486  0.6164
14272SOL    HW154795  13.923   6.005   0.417 -0.3808 -1.2236  0.4412
14272SOL    HW254796  14.062   6.022   0.475 -0.9315  2.2148  0.9851
14273SOL     OW54797   9.278   1.430   3.153 -0.0460 -0.2849 -0.1776
14273SOL    HW154798   9.361   1.458   3.113  0.3467 -2.4555 -1.0298
14273SOL    HW254799   9.222   1.409   3.079 -1.3042  0.9008  0.3997
14274SOL     OW54800   1.484  12.078   3.948  0.0330 -0.0568 -0.1477
14274SOL    HW154801   1.576  12.069   3.922 -0.5111  0.0120 -2.2555
14274SOL    HW254802   1.455  11.989   3.965 -0.1627 -0.3755 -1.9894
14275SOL     OW54803  11.717   4.504   7.153  0.1807  0.0926 -0.0626
14275SOL    HW154804  11.625   4.485   7.174  0.6248 -0.0095  1.9798
14275SOL    HW254805  11.715   4.538   7.064 -1.7902 -0.3312 -0.2175
14276SOL     OW54806   1.375  10.280   7.385 -0.6886 -0.0530 -0.8114
14276SOL    HW154807   1.344  10.271   7.295  0.8923 -0.3257 -1.3722
14276SOL    HW254808   1.359  10.372   7.407  1.8146  0.9232 -2.5878
14277SOL     OW54809  13.952   5.762  12.266  0.2291 -0.3211  0.3590
14277SOL    HW154810  13.888   5.820  12.226 -0.0995 -1.1782 -0.3993
14277SOL    HW254811  13.900   5.690  12.302  0.7809 -1.2614 -0.6749
14278SOL     OW54812   7.879   4.360   8.985 -0.3051  0.3065 -0.8531
14278SOL    HW154813   7.873   4.298   8.913  1.5891 -0.8526 -0.1048
14278SOL    HW254814   7.922   4.437   8.947 -1.5610  0.7099 -1.5027
14279SOL     OW54815   6.794   2.674   7.382 -0.3381  0.4913 -0.2376
14279SOL    HW154816   6.857   2.736   7.419  0.8017 -0.1818 -1.0125
14279SOL    HW254817   6.745   2.726   7.318  0.1131  0.7709 -0.3635
14280SOL     OW54818   3.595   3.908   5.926 -0.4469  0.6245  1.0295
14280SOL    HW154819   3.605   4.001   5.903 -0.8113  0.4530  0.1098
14280SOL    HW254820   3.596   3.863   5.842  1.5439 -0.4055  1.5622
14281SOL     OW54821   8.931  11.543   3.608  0.1973 -0.5548 -0.2693
14281SOL    HW154822   9.008  11.599   3.602 -0.2093  0.0278 -0.1099
14281SOL    HW254823   8.903  11.550   3.699 -0.4789 -0.1634 -0.4984
14282SOL     OW54824  11.108   7.781  10.267  0.7005 -0.4194 -0.0102
14282SOL    HW154825  11.143   7.847  10.207 -1.2550 -0.8451 -1.7457
14282SOL    HW254826  11.072   7.832  10.340 -1.8841  0.6743 -1.8872
14283SOL     OW54827  13.062   2.506   2.334 -0.0416  0.2203  0.1500
14283SOL    HW154828  13.103   2.525   2.419 -0.7015 -1.3038  0.8433
14283SOL    HW254829  12.968   2.515   2.350 -0.2448 -1.1794 -0.0819
14284SOL     OW54830   1.674   4.346  13.403 -0.1474  0.3340 -0.4674
14284SOL    HW154831   1.717   4.400  13.469  0.3829 -1.5799  0.8073
14284SOL    HW254832   1.714   4.374  13.320  0.1447  1.8312  0.1478
14285SOL     OW54833   1.030   2.284   8.745  0.0384  0.1383 -0.1712
14285SOL    HW154834   0.963   2.335   8.700  0.0503 -0.0330 -0.3804
14285SOL    HW254835   1.080   2.349   8.795 -0.5874  0.2140  0.3820
14286SOL     OW54836  12.068   1.249   8.832  0.3070 -0.5452 -0.4456
14286SOL    HW154837  12.001   1.232   8.898  0.3999 -2.0888 -0.7202
14286SOL    HW254838  12.151   1.236   8.878  0.5796  2.9316  0.3443
14287SOL     OW54839   6.530   4.848  12.757 -0.5424 -0.1184  0.3973
14287SOL    HW154840   6.611   4.817  12.796 -1.1119 -2.3661 -0.0733
14287SOL    HW254841   6.531   4.814  12.668 -1.9040 -0.0438  0.3262
14288SOL     OW54842  13.215   0.830  12.680  0.3871 -0.4386 -0.2235
14288SOL    HW154843  13.249   0.886  12.610  1.9381 -0.0070  0.8302
14288SOL    HW254844  13.191   0.749  12.635  0.0149  0.3252 -1.4611
14289SOL     OW54845  10.130  12.413  11.313 -0.7233  0.2399 -0.1960
14289SOL    HW154846  10.044  12.453  11.307 -0.9963 -0.5728 -2.7633
14289SOL    HW254847  10.129  12.343  11.248  1.1508 -1.2344  1.2287
14290SOL     OW54848   8.846   2.531  12.767  0.4527  0.1505 -0.1893
14290SOL    HW154849   8.774   2.589  12.793  0.4447 -0.1655  0.5436
14290SOL    HW254850   8.845   2.462  12.834 -0.0748 -1.1492 -1.4801
14291SOL     OW54851  12.592   8.432  11.798 -0.1496  0.6417  0.5302
14291SOL    HW154852  12.627   8.361  11.850 -0.5128  0.1980  0.1791
14291SOL    HW254853  12.499   8.413  11.789  0.2137 -0.4099 -1.9566
14292SOL     OW54854  12.269   1.670   7.827 -0.2920  0.2792  0.2576
14292SOL    HW154855  12.201   1.642   7.766  1.6379  0.3863 -2.0860
14292SOL    HW254856  12.266   1.766   7.823 -1.1303  0.3438  1.5726
14293SOL     OW54857   5.524  10.735   8.779 -0.3984  0.8332  0.4156
14293SOL    HW154858   5.540  10.829   8.786  2.9638  0.2969  1.6849
14293SOL    HW254859   5.552  10.712   8.690 -1.8165  1.0907 -0.1136
14294SOL     OW54860   1.632   4.729   8.612  0.1436  0.2683  0.0792
14294SOL    HW154861   1.664   4.649   8.653  1.4568  0.3562 -0.7289
14294SOL    HW254862   1.689   4.798   8.646 -1.1845  0.9456  1.0298
14295SOL     OW54863  12.638  13.922   1.385  0.8379 -0.4539 -0.1379
14295SOL    HW154864  12.711  13.959   1.335  1.1034  0.2325  0.7474
14295SOL    HW254865  12.578  13.889   1.317  0.9019  1.0022 -0.9521
14296SOL     OW54866  12.238   8.542   1.599 -0.6625  0.1531 -0.3561
14296SOL    HW154867  12.208   8.633   1.590  0.7670  0.8567  1.3751
14296SOL    HW254868  12.333   8.549   1.602 -0.5741 -1.0776  2.3255
14297SOL     OW54869  12.194  13.172  11.340 -0.0432  0.2226 -0.1768
14297SOL    HW154870  12.251  13.180  11.416  0.5520  1.6391 -0.7357
14297SOL    HW254871  12.187  13.078  11.324  0.4598 -0.0528  1.1453
14298SOL     OW54872  13.455  13.377   9.806 -0.5616  0.0874 -0.2867
14298SOL    HW154873  13.514  13.387   9.881  1.1916  0.5172 -1.6633
14298SOL    HW254874  13.383  13.323   9.839  0.4057 -0.1474  1.5566
14299SOL     OW54875   3.387   4.386   2.483 -0.4930  0.1417  0.7843
14299SOL    HW154876   3.357   4.442   2.554  1.1644 -0.0614  1.6982
14299SOL    HW254877   3.323   4.398   2.413 -2.3654  0.0944  2.4209
14300SOL     OW54878   5.072   4.555   5.606  0.0764 -0.2138 -0.3695
14300SOL    HW154879   4.978   4.570   5.593  0.2436 -0.1755 -1.7244
14300SOL    HW254880   5.094   4.606   5.684 -1.1040 -0.5540  0.2063
14301SOL     OW54881   0.428   5.062   0.855  0.0089 -0.1593  0.0614
14301SOL    HW154882   0.486   5.133   0.827 -0.2857  0.1850  0.3287
14301SOL    HW254883   0.435   5.061   0.950  0.4415 -0.8530  0.0328
14302SOL     OW54884  13.601  13.990   3.558 -0.1719 -0.2936  0.1387
14302SOL    HW154885  13.592  13.919   3.622 -1.0614 -0.3423 -0.0224
14302SOL    HW254886  13.680  13.969   3.509 -0.1741 -0.9297  0.3959
14303SOL     OW54887  11.499  13.315   5.112 -0.0718  0.1063 -0.1944
14303SOL    HW154888  11.562  13.244   5.126  1.3602  1.1566 -0.9820
14303SOL    HW254889  11.432  13.277   5.055  0.0372 -0.9394  0.3584
14304SOL     OW54890  11.028  10.875  11.407  0.0228 -0.3629  0.4914
14304SOL    HW154891  10.974  10.813  11.457  0.3820 -0.0373  1.3119
14304SOL    HW254892  11.088  10.821  11.357  0.0018 -0.6890  0.8178
14305SOL     OW54893   5.724   2.416   3.692  0.0929 -0.4606 -0.2018
14305SOL    HW154894   5.735   2.349   3.758  0.6299 -0.4108 -0.2341
14305SOL    HW254895   5.682   2.371   3.618  0.0255 -0.6487 -0.0487
14306SOL     OW54896  12.311  13.244  13.761 -0.4378  0.4360 -0.0296
14306SOL    HW154897  12.393  13.268  13.802 -1.4405  4.5394  0.0130
14306SOL    HW254898  12.328  13.251  13.667 -0.6007  0.7829 -0.0346
14307SOL     OW54899  10.494   1.688   9.638  0.1117 -0.2432 -0.4796
14307SOL    HW154900  10.426   1.622   9.653 -0.1688  0.2512  0.5198
14307SOL    HW254901  10.461   1.766   9.683  1.8003 -0.2792  0.9046
14308SOL     OW54902  13.236  13.632   6.249  0.3502 -0.2369  0.8461
14308SOL    HW154903  13.233  13.537   6.256  0.9513 -0.3762 -0.4274
14308SOL    HW254904  13.272  13.662   6.333  0.5182 -1.1608  1.1105
14309SOL     OW54905   8.770   2.697   3.567 -0.2962  0.0954 -0.3682
14309SOL    HW154906   8.803   2.707   3.477 -0.0984 -0.5257 -0.3673
14309SOL    HW254907   8.704   2.766   3.575  0.5187  0.9214 -0.5936
14310SOL     OW54908   4.610  10.565   7.537  0.5622 -0.7440 -0.0921
14310SOL    HW154909   4.580  10.586   7.448  1.0510 -0.6216 -0.2278
14310SOL    HW254910   4.563  10.485   7.559 -1.0131  0.2335  0.2677
14311SOL     OW54911   5.736   1.799   6.931 -0.2534  0.5026  0.1566
14311SOL    HW154912   5.729   1.894   6.941  0.3676  0.5633  0.0169
14311SOL    HW254913   5.761   1.785   6.840  2.0196  0.3367  0.7365
14312SOL     OW54914   3.055   6.247   4.636  0.3171 -0.3066  0.1053
14312SOL    HW154915   3.124   6.212   4.691  0.2770  1.2469  1.2026
14312SOL    HW254916   3.095   6.322   4.592 -0.1806 -0.4433 -0.6011
14313SOL     OW54917  11.706   5.703   1.082 -0.4550 -0.1963 -0.0909
14313SOL    HW154918  11.721   5.705   0.988 -1.0436 -0.0687 -0.1827
14313SOL    HW254919  11.620   5.742   1.094  0.2408  1.1655  0.6370
14314SOL     OW54920   2.338   1.169  11.020  0.2555  0.5044 -0.3777
14314SOL    HW154921   2.291   1.204  10.944  0.9039 -0.8848 -1.4541
14314SOL    HW254922   2.378   1.246  11.061 -1.7312  1.5424 -0.2378
14315SOL     OW54923   6.968   8.193   0.373 -0.0881  0.0095  0.2259
14315SOL    HW154924   6.937   8.106   0.400  1.9355 -0.3703  1.4837
14315SOL    HW254925   6.918   8.254   0.427 -1.3634 -0.3443 -0.5054
14316SOL     OW54926   6.007   3.264   9.975 -0.1976  0.1724 -0.0575
14316SOL    HW154927   6.069   3.282   9.904 -0.0110  1.1978  0.3460
14316SOL    HW254928   5.921   3.280   9.936 -0.1356  0.0615 -0.2428
14317SOL     OW54929   1.806  13.500  12.454 -0.3638  0.0176 -0.0671
14317SOL    HW154930   1.788  13.406  12.462  1.7686 -0.2919  3.0279
14317SOL    HW254931   1.745  13.541  12.516 -0.8959  0.6651 -0.9917
14318SOL     OW54932   0.542   8.317   9.458  0.3438  0.3675  0.7029
14318SOL    HW154933   0.482   8.391   9.466  0.3413  0.2455  1.9816
14318SOL    HW254934   0.582   8.328   9.372 -2.0881  0.0291 -0.5811
14319SOL     OW54935   2.013   3.113   4.971 -0.3137 -0.6757  0.0689
14319SOL    HW154936   1.935   3.150   5.013 -0.3163 -1.5818  0.9226
14319SOL    HW254937   1.989   3.105   4.879 -0.2236  1.5949 -0.2032
14320SOL     OW54938   1.934  13.574  12.184 -0.1084 -0.4622 -0.6113
14320SOL    HW154939   1.850  13.532  12.202 -1.0600  1.3957 -0.4052
14320SOL    HW254940   1.998  13.521  12.230 -1.3567 -1.1329  0.4108
14321SOL     OW54941  13.618   8.994  11.932 -0.4677 -0.4104  0.0246
14321SOL    HW154942  13.609   9.089  11.930 -0.7108 -0.4287  0.1625
14321SOL    HW254943  13.530   8.963  11.954 -0.6112 -0.7051 -0.9276
14322SOL     OW54944   2.851   5.038  11.047  0.2755  0.5945 -0.4329
14322SOL    HW154945   2.899   5.121  11.045 -0.4232  1.0186  0.1241
14322SOL    HW254946   2.787   5.045  10.976 -1.0801  1.3417  0.8198
14323SOL     OW54947  13.745   6.355   7.364  0.5040  0.2213 -0.0011
14323SOL    HW154948  13.763   6.368   7.271 -0.8870  0.2686 -0.2725
14323SOL    HW254949  13.720   6.442   7.397 -0.0264  0.0024  0.1813
14324SOL     OW54950   2.534   5.798  12.076 -0.4182  0.0786 -0.6157
14324SOL    HW154951   2.560   5.829  11.989  1.9855  0.3490  0.1345
14324SOL    HW254952   2.588   5.848  12.137 -1.6051 -0.5467  1.0324
14325SOL     OW54953  11.492   6.961   8.371 -0.5944 -0.1003  0.1155
14325SOL    HW154954  11.466   6.941   8.461  2.2049 -0.5205  0.9451
14325SOL    HW254955  11.527   6.878   8.338  1.9929  0.9224  0.0687
14326SOL     OW54956   4.940   3.539  12.448 -0.3738 -0.5099 -0.0422
14326SOL    HW154957   4.881   3.563  12.377 -1.5335 -0.4950  0.8770
14326SOL    HW254958   4.881   3.519  12.521  0.6670 -2.7104  0.2784
14327SOL     OW54959  12.875   0.096   3.879 -0.2102  0.2143  0.0445
14327SOL    HW154960  12.794   0.143   3.857 -1.5297 -2.3075 -0.9223
14327SOL    HW254961  12.927   0.099   3.799 -1.5929 -2.3297 -1.0507
14328SOL     OW54962  10.028   5.079   1.059  0.1211 -0.2755 -0.6015
14328SOL    HW154963  10.062   5.025   0.988  0.4956  1.3023 -1.6826
14328SOL    HW254964   9.941   5.106   1.029 -0.2566 -0.6359  0.1359
14329SOL     OW54965   6.905   4.981   8.477  0.2893 -0.1420  0.3559
14329SOL    HW154966   6.901   4.990   8.382  1.4195 -1.8812  0.0964
14329SOL    HW254967   6.815   4.994   8.507 -0.4205 -1.2810 -1.1585
14330SOL     OW54968   2.092   6.502  12.107 -0.2453  0.2412 -0.1159
14330SOL    HW154969   2.027   6.455  12.055  1.3422 -1.4390 -0.6636
14330SOL    HW254970   2.158   6.437  12.129  1.6447  2.0146 -0.2000
14331SOL     OW54971  12.767   2.006  11.785  0.1735  0.2759 -0.0767
14331SOL    HW154972  12.834   1.945  11.753 -0.3249 -0.5485  0.4268
14331SOL    HW254973  12.811   2.056  11.853  1.2774  2.1147 -2.0447
14332SOL     OW54974   5.663   6.013   7.480 -0.7419  0.0694 -0.2672
14332SOL    HW154975   5.686   5.989   7.390 -2.8334  1.7554 -1.3346
14332SOL    HW254976   5.581   5.967   7.497 -0.7853  0.4096  0.4622
14333SOL     OW54977   3.787   8.721   5.509  0.0355 -0.0161  0.1630
14333SOL    HW154978   3.717   8.753   5.566 -0.3893  1.3263 -1.0481
14333SOL    HW254979   3.865   8.766   5.540  0.2276 -0.9032  1.0055
14334SOL     OW54980   3.054   8.523   2.575  0.0512 -0.1434 -0.2238
14334SOL    HW154981   3.034   8.589   2.641 -1.1181  1.3118 -1.9419
14334SOL    HW254982   3.122   8.562   2.521  0.8679 -1.2395 -0.0325
14335SOL     OW54983  12.929   1.591  11.175 -0.1460  0.3249  0.3782
14335SOL    HW154984  12.859   1.649  11.146 -0.9042 -0.5647  0.3590
14335SOL    HW254985  13.002   1.610  11.116 -1.2419 -0.5531 -1.3530
14336SOL     OW54986   4.808  11.487  11.101 -0.7961 -0.3500  0.3298
14336SOL    HW154987   4.904  11.483  11.100 -0.6953  1.2457  0.0601
14336SOL    HW254988   4.782  11.472  11.010 -0.7659 -0.3605  0.3234
14337SOL     OW54989   7.886   8.066  12.448 -0.7773 -0.3523 -0.7332
14337SOL    HW154990   7.892   7.983  12.495  0.6227  0.8114  1.2921
14337SOL    HW254991   7.936   8.053  12.368 -0.2608 -1.3413 -0.2557
14338SOL     OW54992   4.540   2.120  11.545  0.2821  0.2313 -0.2247
14338SOL    HW154993   4.495   2.068  11.612  1.0500  0.2069  0.2874
14338SOL    HW254994   4.633   2.098  11.556  0.6147  1.5799 -0.1006
14339SOL     OW54995   0.667   9.096   6.204 -0.5184 -0.6765 -0.4207
14339SOL    HW154996   0.694   9.038   6.133 -0.6038  1.2952 -2.1476
14339SOL    HW254997   0.684   9.184   6.171 -0.1818  0.3194  2.1800
14340SOL     OW54998  11.601  10.727   6.865  0.0394  0.1802  0.1830
14340SOL    HW154999  11.559  10.738   6.780  0.7031  0.8328 -0.0645
14340SOL    HW255000  11.642  10.811   6.883  3.0242 -0.9917 -0.5562
14341SOL     OW55001  11.269   8.088   1.997  0.2428  0.3488 -0.6445
14341SOL    HW155002  11.337   8.061   2.059 -0.6782  0.8582  0.6256
14341SOL    HW255003  11.220   8.008   1.979 -1.1254  0.6357  1.4056
14342SOL     OW55004   1.755   1.486   9.262  0.5114 -0.3709  0.2137
14342SOL    HW155005   1.670   1.443   9.247  0.2431 -0.2470  1.2751
14342SOL    HW255006   1.808   1.419   9.305  0.4373  0.0339  0.9377
14343SOL     OW55007   9.137  11.356  11.853 -0.1566  0.2383 -0.6478
14343SOL    HW155008   9.093  11.419  11.795 -0.0851  0.3866 -0.5429
14343SOL    HW255009   9.198  11.309  11.796 -0.9711 -0.4819 -0.9542
14344SOL     OW55010  11.732   4.984  13.327 -0.5522 -0.1662  0.3196
14344SOL    HW155011  11.813   4.953  13.366 -3.2327 -4.1613  3.6147
14344SOL    HW255012  11.743   4.970  13.233  2.2199 -1.4018  0.7377
14345SOL     OW55013  13.684   1.416   6.059  0.5289  0.4693 -0.5645
14345SOL    HW155014  13.696   1.439   6.151 -2.0809 -0.2029 -0.0018
14345SOL    HW255015  13.602   1.368   6.056 -0.5278  2.1666 -3.5090
14346SOL     OW55016   9.231   5.740   4.968  0.3643  0.8551  0.1980
14346SOL    HW155017   9.193   5.828   4.967  0.9530  1.1142 -0.7393
14346SOL    HW255018   9.253   5.724   5.060 -2.2234  0.5730  0.8487
14347SOL     OW55019   5.602   2.735   1.867  0.5530  0.3730 -0.1588
14347SOL    HW155020   5.573   2.796   1.935  1.1418  1.0228 -0.4878
14347SOL    HW255021   5.692   2.760   1.848  0.5549 -0.1158 -0.8399
14348SOL     OW55022   4.174   4.432   5.921  0.1526 -0.0954 -0.3798
14348SOL    HW155023   4.245   4.374   5.893  2.3663  1.4847  1.5337
14348SOL    HW255024   4.105   4.373   5.950  0.2034 -1.7013 -3.2104
14349SOL     OW55025   8.513  13.018   8.665 -0.0459 -0.4370  0.1731
14349SOL    HW155026   8.455  12.980   8.731  0.3579  0.6935  1.2240
14349SOL    HW255027   8.478  13.106   8.651 -0.8112 -1.0382 -2.0177
14350SOL     OW55028  11.543  10.477   2.893 -0.5001 -0.2521 -0.0722
14350SOL    HW155029  11.464  10.530   2.886 -0.5299 -0.1700  0.7520
14350SOL    HW255030  11.530  10.426   2.973  1.3516  1.6047  1.5323
14351SOL     OW55031   5.771   7.156   4.090  0.1702  0.0635 -0.8449
14351SOL    HW155032   5.818   7.182   4.011 -2.6075  1.1549 -2.2530
14351SOL    HW255033   5.814   7.205   4.160  2.4690 -0.6717 -1.6443
14352SOL     OW55034   2.983  13.376   0.420  0.0235  0.3515  0.4381
14352SOL    HW155035   2.940  13.451   0.463 -1.3454 -0.3701  0.3835
14352SOL    HW255036   2.980  13.306   0.485  1.1163  0.2585  0.4135
14353SOL     OW55037  11.247   9.887  13.526  0.1000  0.2709  0.8757
14353SOL    HW155038  11.173   9.946  13.517  0.3186  0.5782  1.0802
14353SOL    HW255039  11.274   9.867  13.437 -1.6326 -1.6337  0.6941
14354SOL     OW55040   3.300  10.145   6.428  0.3644 -0.2675  0.4838
14354SOL    HW155041   3.387  10.179   6.448  0.6806  0.3224 -1.6236
14354SOL    HW255042   3.243  10.221   6.430  0.3989 -0.1938 -0.6639
14355SOL     OW55043  10.245   9.727  13.009 -0.0711 -0.4515  0.3051
14355SOL    HW155044  10.223   9.805  13.060 -1.5561 -0.1013 -0.8064
14355SOL    HW255045  10.277   9.762  12.925  1.4534 -1.0312  0.6181
14356SOL     OW55046   0.133   4.744   0.118 -0.2487 -0.2539  0.1552
14356SOL    HW155047   0.075   4.820   0.124  2.6967  2.1165  1.3007
14356SOL    HW255048   0.163   4.730   0.208  1.1476 -1.1907 -0.4291
14357SOL     OW55049   2.617   0.090   7.223 -0.1535 -0.5969 -0.4788
14357SOL    HW155050   2.571   0.161   7.268  1.1767  0.4946 -0.7554
14357SOL    HW255051   2.709   0.116   7.227  0.1356 -1.1035 -2.7177
14358SOL     OW55052   8.341   0.375   3.117  0.4235 -0.2179  0.1398
14358SOL    HW155053   8.430   0.366   3.084  0.8596 -1.7107  1.5915
14358SOL    HW255054   8.289   0.316   3.061  0.6720 -0.6765  0.3854
14359SOL     OW55055   4.779   2.685   2.185  0.0177  0.6282  0.3247
14359SOL    HW155056   4.779   2.775   2.218 -1.5429  0.2157  1.5555
14359SOL    HW255057   4.825   2.635   2.252 -1.0569  0.1739  0.7416
14360SOL     OW55058  12.690  12.110   0.587 -0.4752  0.1214  0.1312
14360SOL    HW155059  12.729  12.122   0.500 -0.4662 -0.1121  0.1014
14360SOL    HW255060  12.614  12.055   0.572 -0.0534 -0.5380  0.3661
14361SOL     OW55061  13.344   7.371   7.123  0.4091  0.1945 -0.3227
14361SOL    HW155062  13.254   7.377   7.091 -0.8847 -0.6638  2.7117
14361SOL    HW255063  13.362   7.457   7.160  0.1197 -0.1300  0.6138
14362SOL     OW55064  12.476   2.718   2.049 -0.6477 -0.3167  0.6006
14362SOL    HW155065  12.397   2.759   2.083 -0.1771 -0.9275  2.5886
14362SOL    HW255066  12.544   2.784   2.059 -0.7690 -0.0210 -0.4830
14363SOL     OW55067   1.702   7.804   5.359  0.1020 -0.1137  0.0303
14363SOL    HW155068   1.723   7.850   5.277  2.7954 -0.7509  0.2668
14363SOL    HW255069   1.732   7.864   5.428 -2.3521  0.5163  0.6357
14364SOL     OW55070   7.344  13.807  11.924  0.2947  0.0452  0.2067
14364SOL    HW155071   7.399  13.753  11.981  2.1394  0.6332 -0.9321
14364SOL    HW255072   7.393  13.889  11.915 -0.4454  0.3341 -1.4093
14365SOL     OW55073  13.452  10.520   5.622 -0.5160  0.4674 -0.6465
14365SOL    HW155074  13.376  10.577   5.637  1.3584  2.8556  0.6325
14365SOL    HW255075  13.489  10.552   5.540  0.2730  0.7841 -0.1762
14366SOL     OW55076  11.701  10.379   0.949 -0.1242 -0.4068 -0.0885
14366SOL    HW155077  11.678  10.456   0.897  0.4447  0.7680  1.3373
14366SOL    HW255078  11.791  10.358   0.923 -0.5103 -1.0221 -0.9635
14367SOL     OW55079  12.883  12.785   1.195 -0.7224  0.1846  0.1761
14367SOL    HW155080  12.942  12.789   1.270  0.2448 -0.4626 -0.5087
14367SOL    HW255081  12.796  12.775   1.233 -0.4839  1.8641  1.2290
14368SOL     OW55082   9.363  11.288   8.612  0.0407  0.4784  0.4532
14368SOL    HW155083   9.450  11.324   8.628  0.2702 -0.6741  2.0685
14368SOL    HW255084   9.373  11.194   8.626 -0.9697 -0.0275 -1.6885
14369SOL     OW55085   0.236   0.401  13.015  0.4864  0.1396 -0.4827
14369SOL    HW155086   0.258   0.321  13.064 -0.3244  0.4840  0.4849
14369SOL    HW255087   0.149   0.384  12.980 -0.0498  0.8927  0.4290
14370SOL     OW55088  10.994   1.642   8.652  0.1237 -0.9143 -0.2092
14370SOL    HW155089  11.071   1.674   8.604 -0.9613  0.2637 -1.2316
14370SOL    HW255090  11.011   1.549   8.665  1.3247 -0.8600 -1.2048
14371SOL     OW55091   4.032   3.051   6.285  1.0210 -0.4724  0.5937
14371SOL    HW155092   3.978   2.977   6.310  0.0472 -0.4757 -1.3532
14371SOL    HW255093   3.983   3.094   6.216  2.7534  0.4993 -0.0837
14372SOL     OW55094  12.317   2.018   1.418 -0.0633  0.0838  0.7176
14372SOL    HW155095  12.225   1.989   1.415 -0.3179  0.6833  1.9438
14372SOL    HW255096  12.318   2.087   1.485  0.7805  2.0094 -1.1814
14373SOL     OW55097   9.481   8.854  11.741 -0.3322  0.2075  0.5983
14373SOL    HW155098   9.575   8.851  11.721 -0.6587  0.4505 -1.1184
14373SOL    HW255099   9.456   8.945  11.725 -0.4867  0.6850  3.1209
14374SOL     OW55100   4.886   0.029   7.931 -0.0556  0.6831 -0.2891
14374SOL    HW155101   4.876  -0.066   7.923 -0.6505  0.5444  1.5483
14374SOL    HW255102   4.979   0.043   7.945 -0.0628  0.2763  0.2058
14375SOL     OW55103  11.132   0.636   8.069  0.5516  0.2291 -0.2447
14375SOL    HW155104  11.128   0.591   7.984  0.5197 -1.4491  0.6124
14375SOL    HW255105  11.218   0.679   8.069  1.4158 -1.4349 -0.3373
14376SOL     OW55106  12.302  11.138   6.672 -0.1133  0.0159 -0.3523
14376SOL    HW155107  12.267  11.109   6.588  1.2581  0.9671 -1.2969
14376SOL    HW255108  12.397  11.134   6.661  0.1158 -0.6031  1.4457
14377SOL     OW55109   5.783   7.944   7.678  0.1521 -0.5834  0.1356
14377SOL    HW155110   5.804   8.002   7.605 -0.4234 -0.3302  0.1704
14377SOL    HW255111   5.835   7.865   7.661  1.6719  0.2740  0.5780
14378SOL     OW55112   6.277   4.467  12.365 -0.1426  0.0671  0.2752
14378SOL    HW155113   6.345   4.465  12.431 -1.9635  0.2116  2.2587
14378SOL    HW255114   6.295   4.546  12.314  2.1485 -0.8395 -0.4522
14379SOL     OW55115   8.744  11.015   7.420 -0.1316 -0.0557  0.0417
14379SOL    HW155116   8.758  11.106   7.447 -0.1818 -0.3773  1.2518
14379SOL    HW255117   8.831  10.976   7.421 -0.3450 -0.6329  2.0517
14380SOL     OW55118   7.504  11.671   8.743 -0.1540 -0.2332  0.0048
14380SOL    HW155119   7.577  11.715   8.785 -1.1771  1.2836  0.2622
14380SOL    HW255120   7.428  11.690   8.799 -1.2133  0.3756 -1.5575
14381SOL     OW55121  11.066   7.440   9.405 -0.2617  0.5558  0.6902
14381SOL    HW155122  11.063   7.535   9.412 -0.7975  0.4753  1.7002
14381SOL    HW255123  10.975   7.414   9.389 -0.6554  0.0422  3.3273
14382SOL     OW55124  12.252   2.756   0.157 -0.0080  0.4311 -0.1759
14382SOL    HW155125  12.238   2.691   0.089 -1.7393 -0.2036  0.7238
14382SOL    HW255126  12.167   2.764   0.201  0.0432  3.4838 -0.4037
14383SOL     OW55127  10.689   8.070   8.258  0.0552 -0.5255  0.2304
14383SOL    HW155128  10.689   7.998   8.321  0.1134 -0.8441 -0.1369
14383SOL    HW255129  10.690   8.028   8.172 -3.8867 -0.1930 -0.1400
14384SOL     OW55130  12.902   8.813   9.666  0.2995  0.5569 -0.4678
14384SOL    HW155131  12.962   8.803   9.592  0.2248 -0.5723 -0.3911
14384SOL    HW255132  12.927   8.897   9.705  0.2556  1.2346 -1.8332
14385SOL     OW55133  11.514   8.232   7.478 -0.5313  0.0670  0.3665
14385SOL    HW155134  11.521   8.227   7.573 -0.7697  1.0958  0.4540
14385SOL    HW255135  11.548   8.148   7.447 -0.2970 -0.2182  1.3455
14386SOL     OW55136  13.909   4.553   3.769  0.2531 -0.0156 -0.3264
14386SOL    HW155137  13.949   4.503   3.840 -1.3518 -1.1564 -0.1800
14386SOL    HW255138  13.818   4.566   3.796 -0.5364 -0.8652 -2.3494
14387SOL     OW55139   5.550  13.836  13.246 -0.2997 -0.1840 -0.3836
14387SOL    HW155140   5.578  13.769  13.184  0.7258 -0.3870  0.2714
14387SOL    HW255141   5.584  13.805  13.330 -2.5273 -0.4558  0.4778
14388SOL     OW55142   1.855   0.016   9.751  0.2107 -0.0436  0.0514
14388SOL    HW155143   1.844  -0.053   9.816 -0.6781 -0.6390 -0.6903
14388SOL    HW255144   1.785   0.078   9.769 -0.0010 -0.1791 -0.2780
14389SOL     OW55145   6.420   0.188   2.105  0.3394  0.3915  0.4103
14389SOL    HW155146   6.514   0.184   2.120  0.1597 -0.1284  1.4869
14389SOL    HW255147   6.394   0.097   2.089  0.1753  0.6627 -0.9929
14390SOL     OW55148  12.030   7.649  12.547  0.0290 -0.2349 -0.0483
14390SOL    HW155149  12.083   7.602  12.483  1.2242 -1.7320  1.9147
14390SOL    HW255150  12.071   7.735  12.554  0.9780 -0.6681 -0.0556
14391SOL     OW55151   8.670  13.588  12.302 -0.3854 -0.2977 -0.1375
14391SOL    HW155152   8.601  13.549  12.248 -1.4328 -1.6984  2.0606
14391SOL    HW255153   8.734  13.620  12.239 -1.8433 -1.2043 -2.2078
14392SOL     OW55154   6.395   1.878   4.252  0.1422 -0.1089 -0.5690
14392SOL    HW155155   6.347   1.851   4.173 -0.4110  0.4372 -0.4217
14392SOL    HW255156   6.364   1.966   4.270  1.6502  0.4892 -0.8086
14393SOL     OW55157   2.982   7.037  14.021  0.4573  0.1162  0.0092
14393SOL    HW155158   3.056   7.048  14.081  0.3968  0.3392  0.0438
14393SOL    HW255159   3.006   6.961  13.968  0.7737  0.2631 -0.0651
14394SOL     OW55160   7.848  10.992   0.411 -0.3985 -0.0839 -0.2260
14394SOL    HW155161   7.820  11.042   0.488  1.3158 -0.6207  0.7965
14394SOL    HW255162   7.871  11.059   0.346 -0.6294  0.4035  0.1842
14395SOL     OW55163   5.741   9.778   3.021 -0.2315 -0.0636 -0.1141
14395SOL    HW155164   5.697   9.693   3.020  0.5035 -0.4496 -0.1574
14395SOL    HW255165   5.752   9.798   3.114 -0.3160 -0.0633 -0.1042
14396SOL     OW55166   4.431  11.838   1.361 -0.2067 -0.0384  0.6435
14396SOL    HW155167   4.350  11.793   1.338 -0.2051 -0.3130  1.1449
14396SOL    HW255168   4.421  11.858   1.455  0.5921 -0.7047  0.8823
14397SOL     OW55169  13.759   9.361   8.863 -0.1630  0.2454  0.2000
14397SOL    HW155170  13.683   9.307   8.839  0.1733 -0.2012  0.1277
14397SOL    HW255171  13.807   9.308   8.927  1.6545 -0.7581 -1.8869
14398SOL     OW55172  12.738  10.782   6.983 -0.5218  0.5941  0.0854
14398SOL    HW155173  12.756  10.873   6.960 -0.7696  0.4001 -0.8864
14398SOL    HW255174  12.731  10.783   7.079  0.3978  1.4244  0.1547
14399SOL     OW55175   9.085  10.111   0.793  0.0672  0.1867  0.5269
14399SOL    HW155176   9.002  10.131   0.836 -0.6319 -0.0855 -0.6404
14399SOL    HW255177   9.090  10.174   0.720  0.3839 -0.4633 -0.0275
14400SOL     OW55178   0.656  10.002   9.256  0.3656  0.0510  0.0815
14400SOL    HW155179   0.617   9.942   9.193  0.0182 -1.0127  1.2674
14400SOL    HW255180   0.747   9.974   9.263  0.2615 -0.1903  0.4690
14401SOL     OW55181   9.669   2.990   2.624 -0.0329 -0.4000  0.1724
14401SOL    HW155182   9.742   2.992   2.687 -0.6299 -3.7083  1.1699
14401SOL    HW255183   9.709   2.962   2.542  0.1856  0.3022  0.0347
14402SOL     OW55184   9.576   3.872   3.965 -0.5154 -0.6693  0.3083
14402SOL    HW155185   9.609   3.896   3.879  1.5126 -1.1050  0.9144
14402SOL    HW255186   9.567   3.777   3.962 -1.4232 -0.5895  0.2672
14403SOL     OW55187   4.149   7.819   3.506  0.6645 -0.1208  0.0911
14403SOL    HW155188   4.125   7.770   3.428  1.5969  0.9535 -0.9085
14403SOL    HW255189   4.155   7.753   3.575 -0.0730 -1.1023 -0.7636
14404SOL     OW55190   2.403  10.280  13.498 -0.6027 -0.1441  0.1179
14404SOL    HW155191   2.480  10.336  13.513  0.0670 -1.1229  0.4623
14404SOL    HW255192   2.389  10.284  13.404  1.0086 -1.3579 -0.2232
14405SOL     OW55193   4.147   7.163   6.161  0.8274 -0.1686 -0.1830
14405SOL    HW155194   4.194   7.088   6.197 -0.3404 -0.4399  0.8305
14405SOL    HW255195   4.174   7.237   6.214  0.5712 -0.2132  0.0099
14406SOL     OW55196   3.245   9.902   3.501  0.1977  0.2912 -0.6704
14406SOL    HW155197   3.195   9.866   3.574  0.7359  0.5107 -0.1850
14406SOL    HW255198   3.204   9.865   3.423  1.1840 -2.0365 -0.1960
14407SOL     OW55199  11.386   1.653   4.061 -0.1708 -0.0121 -0.1177
14407SOL    HW155200  11.348   1.675   4.147  0.2051  0.5457 -0.0927
14407SOL    HW255201  11.473   1.693   4.062  0.5972 -1.6169 -0.0244
14408SOL     OW55202   2.448   9.737   1.037  0.5776 -0.6945 -0.3616
14408SOL    HW155203   2.449   9.822   1.082  1.7399 -1.6085  1.4644
14408SOL    HW255204   2.393   9.751   0.960  1.3148  1.9026 -0.5039
14409SOL     OW55205   4.988   9.674   6.795  0.2976 -0.2891  0.1918
14409SOL    HW155206   4.976   9.700   6.887 -0.6546 -0.1455  0.0280
14409SOL    HW255207   5.049   9.739   6.760 -1.0640  1.0168  0.1337
14410SOL     OW55208   5.988   5.508   4.616  0.3076 -0.2958  0.3698
14410SOL    HW155209   5.930   5.575   4.651  2.6106  1.1132  1.7472
14410SOL    HW255210   5.957   5.427   4.655 -0.8275  0.3788  0.9172
14411SOL     OW55211   8.771   9.350   2.127  0.0885 -0.1974 -0.1640
14411SOL    HW155212   8.783   9.353   2.032  0.0798  1.9337 -0.1432
14411SOL    HW255213   8.754   9.258   2.146 -1.8639 -0.3923 -2.4594
14412SOL     OW55214   3.952  11.168   2.399 -0.1513  0.3399  0.0332
14412SOL    HW155215   3.930  11.260   2.408 -1.7530 -0.1213  1.3030
14412SOL    HW255216   3.870  11.125   2.374  0.1353 -0.9568  1.1544
14413SOL     OW55217   7.315  10.908   3.836 -0.7308 -0.0151  0.0296
14413SOL    HW155218   7.410  10.897   3.841 -0.7549  0.2500  1.2893
14413SOL    HW255219   7.302  10.979   3.773 -0.0974 -0.0339 -0.1228
14414SOL     OW55220   4.011  13.566   9.281  0.2604 -0.4629  0.0106
14414SOL    HW155221   4.041  13.560   9.190  0.1807  0.2842 -0.0782
14414SOL    HW255222   3.952  13.641   9.281  1.6856  0.7195  1.0515
14415SOL     OW55223   4.987  10.460  10.127  0.3462 -0.2606 -0.1601
14415SOL    HW155224   4.899  10.423  10.131  0.1083 -0.0357 -2.2027
14415SOL    HW255225   5.041  10.400  10.179 -0.8844 -0.7415  0.6133
14416SOL     OW55226   3.051   5.235   7.295 -0.2856 -0.1595 -0.6618
14416SOL    HW155227   3.099   5.316   7.314  0.3044 -0.1168 -2.1870
14416SOL    HW255228   3.120   5.170   7.278 -0.7182 -1.2820  1.4878
14417SOL     OW55229   0.754   6.018  11.712  0.7599  0.5686  0.6231
14417SOL    HW155230   0.764   6.102  11.667 -0.0164  1.0632  1.3429
14417SOL    HW255231   0.839   6.003  11.754  1.4879  0.1092 -0.9579
14418SOL     OW55232  12.891  12.875  10.976 -0.1482  0.1909 -0.2931
14418SOL    HW155233  12.924  12.944  10.919 -1.8391  1.1290 -0.2118
14418SOL    HW255234  12.805  12.853  10.939  0.0392 -1.3762  0.1095
14419SOL     OW55235  12.401   8.633  10.091 -0.2354 -0.3619  0.7901
14419SOL    HW155236  12.356   8.674  10.165  0.2240  0.0123  0.8705
14419SOL    HW255237  12.479   8.688  10.077  0.8312 -1.6689  1.4258
14420SOL     OW55238   8.914   1.564   2.524  0.6553 -0.3725  0.3942
14420SOL    HW155239   8.820   1.553   2.536  0.5234  0.0127 -0.2283
14420SOL    HW255240   8.937   1.638   2.580  0.5518 -0.3406  0.3950
14421SOL     OW55241  13.691   2.057   8.278 -0.3489 -0.1066 -0.5192
14421SOL    HW155242  13.706   1.971   8.238  0.6101  0.9355 -2.5358
14421SOL    HW255243  13.760   2.065   8.345 -1.0333 -1.2495  0.3752
14422SOL     OW55244  13.221   3.838   0.170  0.2746 -0.0117  0.5909
14422SOL    HW155245  13.157   3.816   0.239 -0.9522 -1.2843 -0.8778
14422SOL    HW255246  13.189   3.920   0.134  0.9898  0.7241  1.5776
14423SOL     OW55247   4.885   3.539  10.783 -0.0558 -0.4590 -0.2633
14423SOL    HW155248   4.906   3.447  10.797 -0.7513 -0.5038  0.5797
14423SOL    HW255249   4.950   3.569  10.720  0.5262 -1.3851 -0.1275
14424SOL     OW55250   3.682   2.743  11.656 -0.3581  0.1814 -0.3148
14424SOL    HW155251   3.606   2.792  11.688 -1.1848 -1.4164  0.2511
14424SOL    HW255252   3.658   2.718  11.566  0.4813  1.6089 -0.9753
14425SOL     OW55253   1.366  13.047   7.119 -0.5633 -0.4628  0.3584
14425SOL    HW155254   1.382  13.024   7.210 -0.5533  0.0056  0.4758
14425SOL    HW255255   1.430  13.114   7.098 -2.6588  1.9080  1.0282
14426SOL     OW55256   1.751   0.188  12.351 -0.3955  0.4092  0.4000
14426SOL    HW155257   1.817   0.254  12.367 -1.4070  1.2775  1.1005
14426SOL    HW255258   1.685   0.201  12.419 -0.3897 -1.6486  0.8777
14427SOL     OW55259   4.703   0.325   1.659  0.1235  0.1087  0.2161
14427SOL    HW155260   4.779   0.308   1.714 -0.3859 -2.0293  0.3266
14427SOL    HW255261   4.670   0.410   1.690  3.9760  2.5593 -1.6838
14428SOL     OW55262  11.057   7.128   8.001 -0.4151 -0.6371 -0.7025
14428SOL    HW155263  11.066   7.070   7.926  1.7780  0.1188 -1.1040
14428SOL    HW255264  11.080   7.074   8.076 -0.2075 -0.7713 -0.8608
14429SOL     OW55265   3.340  13.367  10.781  0.1963 -0.2723  0.2542
14429SOL    HW155266   3.319  13.316  10.859  0.6517 -0.7881  0.0401
14429SOL    HW255267   3.276  13.340  10.716 -1.5965  1.7141  1.0530
14430SOL     OW55268   0.698   4.654  11.341 -0.4057  0.1204  0.7249
14430SOL    HW155269   0.687   4.666  11.436 -0.8646  1.0518  0.5700
14430SOL    HW255270   0.773   4.596  11.333 -2.2521 -2.6209  1.7404
14431SOL     OW55271   1.817   4.814   8.794  1.1736  0.3215  0.4649
14431SOL    HW155272   1.819   4.909   8.789  1.0727  0.3020  0.0710
14431SOL    HW255273   1.783   4.796   8.882  2.7629  0.6452  1.1970
14432SOL     OW55274   0.587   6.972  12.151 -0.6089 -0.2756  0.5007
14432SOL    HW155275   0.523   7.036  12.183 -0.5931 -0.7113  1.4217
14432SOL    HW255276   0.645   6.957  12.225 -0.8149 -1.6200  0.4059
14433SOL     OW55277   0.457   8.353   2.449 -0.0440  0.3767  0.1255
14433SOL    HW155278   0.405   8.282   2.486  2.7063 -0.8658  1.9477
14433SOL    HW255279   0.503   8.313   2.375 -1.3599  1.3943 -1.3146
14434SOL     OW55280   8.124   8.660   6.246 -0.3811 -0.4910  0.6967
14434SOL    HW155281   8.034   8.691   6.245 -0.2161  0.0635 -1.0964
14434SOL    HW255282   8.122   8.578   6.196 -0.1885 -1.5115  2.2894
14435SOL     OW55283   0.683   2.529   1.766 -0.1032  0.0008  0.2002
14435SOL    HW155284   0.715   2.559   1.851  0.6673  0.1606 -0.1467
14435SOL    HW255285   0.619   2.461   1.788 -0.7717  0.8387  0.9434
14436SOL     OW55286   6.641  11.795   5.201  0.0459 -0.4466  0.8753
14436SOL    HW155287   6.569  11.845   5.163 -0.6912 -0.7854  1.7785
14436SOL    HW255288   6.713  11.805   5.139 -1.0508 -0.8216 -0.5012
14437SOL     OW55289   4.444   3.205   6.892  0.2900  0.4950 -0.0832
14437SOL    HW155290   4.494   3.286   6.901 -0.0893  0.7179  0.0530
14437SOL    HW255291   4.392   3.218   6.813  2.0064 -0.5886 -1.4779
14438SOL     OW55292  13.484   7.884   2.567 -0.0748 -0.3749 -0.1248
14438SOL    HW155293  13.573   7.918   2.559 -0.1549 -0.1281  0.0408
14438SOL    HW255294  13.492   7.815   2.634 -0.0468 -0.2234  0.0284
14439SOL     OW55295  10.351   5.738   9.668 -0.1802  0.0417 -0.1438
14439SOL    HW155296  10.413   5.678   9.627  0.4948  1.0080 -0.5981
14439SOL    HW255297  10.267   5.692   9.666  0.0655 -0.3999 -1.6245
14440SOL     OW55298   9.584  12.764   6.525  0.0247 -0.1179  0.1793
14440SOL    HW155299   9.654  12.723   6.475  0.5898  0.1570  0.7223
14440SOL    HW255300   9.617  12.767   6.615  0.8103  3.1153 -0.0856
14441SOL     OW55301   0.685  12.908   4.101 -0.3102 -0.2162 -0.2420
14441SOL    HW155302   0.622  12.979   4.092 -0.6237 -0.4533  0.0432
14441SOL    HW255303   0.690  12.892   4.196 -3.3469 -3.2700 -0.3796
14442SOL     OW55304   9.560   9.574   4.434 -0.1712  0.3739  0.0724
14442SOL    HW155305   9.576   9.602   4.525 -2.3269  1.2079  0.2501
14442SOL    HW255306   9.572   9.654   4.383 -0.2929  0.2165 -0.2028
14443SOL     OW55307   2.153   4.812  10.140  0.0258  0.2587 -0.0714
14443SOL    HW155308   2.226   4.760  10.106  0.2470 -0.8495  1.9866
14443SOL    HW255309   2.136   4.777  10.227 -2.5131  0.9773 -0.2026
14444SOL     OW55310  10.119   4.888  13.007 -0.4399 -0.1157  0.3126
14444SOL    HW155311  10.042   4.923  12.963 -0.3094  2.8676  2.1687
14444SOL    HW255312  10.088   4.867  13.095  0.5919 -0.0148  0.7122
14445SOL     OW55313  13.820   9.267  11.907 -0.1004  0.3977 -0.0368
14445SOL    HW155314  13.741   9.287  11.957 -1.1324 -1.4623 -0.8182
14445SOL    HW255315  13.888   9.252  11.973 -0.2958  2.2373  0.6426
14446SOL     OW55316   7.060   0.757  12.762 -0.0571 -0.4878 -0.0710
14446SOL    HW155317   6.990   0.815  12.733 -0.6367 -0.9263  0.4174
14446SOL    HW255318   7.115   0.812  12.818 -0.1232 -0.1906 -0.2972
14447SOL     OW55319   3.816   9.677   4.273  0.1100 -0.5009 -0.5251
14447SOL    HW155320   3.780   9.591   4.295  1.1737 -1.0407 -0.8490
14447SOL    HW255321   3.907   9.673   4.302 -0.1332  0.9311  0.5154
14448SOL     OW55322   5.293   5.057  12.762  0.7271 -0.2508  0.2389
14448SOL    HW155323   5.279   5.026  12.851  0.2123 -0.5758  0.0493
14448SOL    HW255324   5.304   5.152  12.770 -0.0699 -0.1815  0.5672
14449SOL     OW55325  12.803   5.347   3.070 -0.3049  0.4872  0.5401
14449SOL    HW155326  12.881   5.293   3.080 -0.5904  0.3774  2.4127
14449SOL    HW255327  12.774   5.365   3.159 -1.7119  1.5695 -0.0971
14450SOL     OW55328   1.295  11.240   5.272 -0.1949 -0.3039  0.3901
14450SOL    HW155329   1.308  11.320   5.323 -0.7865  1.9612 -2.7122
14450SOL    HW255330   1.363  11.243   5.205 -1.5523 -1.2574 -1.1024
14451SOL     OW55331  11.836   4.064   0.373  0.2771  0.6203 -0.2824
14451SOL    HW155332  11.815   4.042   0.282  0.8483 -1.5058  0.0470
14451SOL    HW255333  11.757   4.039   0.422  0.9071 -0.7542  0.0887
14452SOL     OW55334   7.266   0.314  11.523 -0.1917  0.3778  0.1437
14452SOL    HW155335   7.265   0.354  11.610 -1.2379 -1.4948  1.0629
14452SOL    HW255336   7.355   0.329  11.490  0.0826  1.4947  1.3554
14453SOL     OW55337   7.210   5.711   7.804 -0.4743 -0.4333  1.3058
14453SOL    HW155338   7.218   5.798   7.844 -0.2434  0.6417 -0.9063
14453SOL    HW255339   7.298   5.674   7.809 -0.3134 -0.0613  1.2819
14454SOL     OW55340   5.786   0.014   6.183 -0.2298  0.0400  0.0622
14454SOL    HW155341   5.713  -0.048   6.182 -0.0379 -0.3304  2.5317
14454SOL    HW255342   5.752   0.091   6.230  0.6400  0.2882  0.3062
14455SOL     OW55343   9.025   9.568   4.919 -0.4416  0.0716 -0.5617
14455SOL    HW155344   8.960   9.550   4.851 -1.5211  2.2243 -0.1925
14455SOL    HW255345   9.105   9.589   4.871 -0.6490 -0.3262 -1.0971
14456SOL     OW55346   8.488   6.158   2.993  1.0853 -0.7651  0.1019
14456SOL    HW155347   8.400   6.122   2.996 -0.0776  1.8191  0.0252
14456SOL    HW255348   8.493   6.203   2.908  1.1231  2.0216  1.4450
14457SOL     OW55349   7.903   1.090   5.452  0.3245 -0.7749 -0.4602
14457SOL    HW155350   7.847   1.066   5.526  0.8240 -1.5394 -0.3159
14457SOL    HW255351   7.864   1.045   5.377 -0.3832  0.2803 -0.7404
14458SOL     OW55352   3.500   1.902   3.155 -0.7150  0.2565 -0.1202
14458SOL    HW155353   3.447   1.902   3.234 -1.1660  0.4479 -0.4193
14458SOL    HW255354   3.501   1.810   3.127 -0.8660  0.2499 -0.1020
14459SOL     OW55355   5.583  11.013   3.296 -0.0252 -0.3654  0.6100
14459SOL    HW155356   5.625  11.082   3.245 -3.2220  0.2741 -1.5140
14459SOL    HW255357   5.639  10.936   3.284  0.0344  0.0718 -3.0760
14460SOL     OW55358  14.002   6.348   8.894 -0.2902 -0.2910 -0.3788
14460SOL    HW155359  13.977   6.283   8.959  0.1294 -0.1914 -0.1075
14460SOL    HW255360  13.981   6.432   8.936 -1.2343 -0.2624 -0.9014
14461SOL     OW55361  12.527  12.859   1.060 -0.0565  1.1897  0.4744
14461SOL    HW155362  12.586  12.862   1.135  0.9828  1.2305 -0.3215
14461SOL    HW255363  12.549  12.778   1.014 -0.4073  1.3579 -0.0080
14462SOL     OW55364  11.072   6.081   9.122  0.2269  0.2694  0.3178
14462SOL    HW155365  11.100   6.153   9.178  2.3422 -0.2178 -0.0391
14462SOL    HW255366  11.099   6.002   9.169 -0.0966 -0.2240 -0.3005
14463SOL     OW55367   2.167   0.593  13.013  0.2884 -0.5705 -0.4731
14463SOL    HW155368   2.149   0.579  13.106 -2.5509  0.4851 -0.7805
14463SOL    HW255369   2.259   0.566  13.002  1.2354  0.7696  2.9180
14464SOL     OW55370  13.429   3.709   4.275 -0.3321 -0.2614  0.4290
14464SOL    HW155371  13.458   3.697   4.366  2.1568  2.2607  0.0918
14464SOL    HW255372  13.509   3.702   4.223 -0.7214  3.3408 -0.9698
14465SOL     OW55373  12.968  10.993  10.483 -0.1465 -0.1946  0.4233
14465SOL    HW155374  12.886  11.033  10.511  0.0384  0.0429  0.6233
14465SOL    HW255375  12.941  10.918  10.430 -0.5027 -0.8481  1.4958
14466SOL     OW55376  10.552   9.702  10.960  0.2834  0.3298 -0.4193
14466SOL    HW155377  10.483   9.725  11.022  1.7412 -0.1015  1.4600
14466SOL    HW255378  10.570   9.784  10.914 -1.2360  0.5259 -0.7245
14467SOL     OW55379   3.395   6.677   2.397  0.1819  0.6901 -0.5818
14467SOL    HW155380   3.371   6.688   2.489  0.6740 -0.9599 -0.2282
14467SOL    HW255381   3.409   6.583   2.386  0.2818  0.8661 -2.3151
14468SOL     OW55382  11.233   8.329  11.505 -0.2261 -0.2147 -0.2114
14468SOL    HW155383  11.254   8.422  11.503 -0.3444 -0.1885 -0.2215
14468SOL    HW255384  11.282   8.295  11.580  2.3909 -0.7706 -2.0396
14469SOL     OW55385  11.683   6.151  14.035 -0.0105 -0.1355  0.9109
14469SOL    HW155386  11.601   6.199  14.021  0.0492 -0.5152 -0.9897
14469SOL    HW255387  11.655   6.061  14.053 -0.0370  0.0357  1.7705
14470SOL     OW55388   9.401   4.224   9.370  0.2073  0.1120  0.2738
14470SOL    HW155389   9.324   4.276   9.344  0.4764 -0.3948 -1.7322
14470SOL    HW255390   9.433   4.186   9.288  1.3144 -1.4731  1.3780
14471SOL     OW55391  13.965   3.188  13.257 -0.2640  1.0943 -0.5538
14471SOL    HW155392  13.932   3.213  13.343  0.6235  2.1805 -0.5101
14471SOL    HW255393  13.922   3.248  13.196  0.8040  1.8433 -0.6011
14472SOL     OW55394   9.376   5.828   0.089  0.3713  0.4285 -0.0851
14472SOL    HW155395   9.322   5.907   0.089 -0.8032 -0.3369  0.9489
14472SOL    HW255396   9.421   5.830   0.173  0.0175 -0.2084  0.1211
14473SOL     OW55397   5.070   0.632   9.090 -0.0819 -0.1368 -0.1822
14473SOL    HW155398   5.142   0.595   9.039  0.2192 -0.1909  0.2775
14473SOL    HW255399   4.992   0.613   9.038  0.3575  1.1477 -1.3973
14474SOL     OW55400   6.870   9.580  13.697  0.0652 -0.3154 -0.0629
14474SOL    HW155401   6.828   9.664  13.678 -0.5641 -0.8654 -1.1548
14474SOL    HW255402   6.964   9.600  13.700 -0.0935  0.4490 -0.1530
14475SOL     OW55403  10.564   8.272   1.800  0.1464  0.6493 -0.3937
14475SOL    HW155404  10.497   8.203   1.799  1.2907 -0.6016  1.7219
14475SOL    HW255405  10.570   8.301   1.709 -1.1507 -1.2727 -1.1705
14476SOL     OW55406   8.015   9.759   7.912  0.4289 -0.1375  0.6906
14476SOL    HW155407   7.977   9.693   7.970  1.3838 -0.3202  1.1307
14476SOL    HW255408   7.992   9.843   7.952  0.6437 -0.2508  1.0583
14477SOL     OW55409  12.355   9.818   2.181 -0.3189  0.3151  0.7339
14477SOL    HW155410  12.434   9.867   2.156  0.8192 -1.7176  0.0917
14477SOL    HW255411  12.286   9.854   2.126  0.5970  0.7916 -0.1345
14478SOL     OW55412   1.285   6.633   9.671 -0.4684 -0.3577  0.9948
14478SOL    HW155413   1.348   6.660   9.604 -0.2968  0.8611  1.6214
14478SOL    HW255414   1.336   6.631   9.752 -1.2901  1.1015  1.5951
14479SOL     OW55415   9.341  10.467   6.331  0.4614  0.3095 -0.0083
14479SOL    HW155416   9.271  10.523   6.364  0.5748  1.0207 -0.9263
14479SOL    HW255417   9.422  10.512   6.356  0.5573  0.3518 -0.3821
14480SOL     OW55418   8.605   5.211   8.117 -0.4557 -0.7467  0.3121
14480SOL    HW155419   8.666   5.151   8.076  0.3156 -1.1171  1.9333
14480SOL    HW255420   8.657   5.288   8.138 -0.9242 -0.4136  0.2778
14481SOL     OW55421   5.897   2.968  13.496  0.4120  0.3131 -0.7611
14481SOL    HW155422   5.862   2.882  13.471  0.4240  0.1678 -0.2807
14481SOL    HW255423   5.846   2.993  13.573 -0.2288  1.1573 -1.4435
14482SOL     OW55424   3.525  10.527  11.325 -0.5611 -0.0741  0.1765
14482SOL    HW155425   3.597  10.584  11.301  0.0096 -0.9887 -0.3683
14482SOL    HW255426   3.510  10.543  11.418  0.4113  0.0631  0.3119
14483SOL     OW55427   7.294   3.908  10.749  0.4670 -0.0624 -0.3232
14483SOL    HW155428   7.333   3.843  10.808  3.3048  0.4223 -1.4891
14483SOL    HW255429   7.302   3.991  10.795  0.2528 -0.0218 -0.3556
14484SOL     OW55430   7.717   4.568   9.767 -0.3672  0.0465 -0.2164
14484SOL    HW155431   7.714   4.492   9.824  0.2303 -0.3173 -0.6625
14484SOL    HW255432   7.629   4.574   9.730 -0.6831  0.1307  0.5314
14485SOL     OW55433   2.467   4.340   2.483 -0.0933  0.5486 -0.7491
14485SOL    HW155434   2.398   4.393   2.522 -0.3608 -0.9851  1.0249
14485SOL    HW255435   2.504   4.395   2.415 -2.1957  1.9164 -0.8906
14486SOL     OW55436   2.183   0.867   7.668 -0.1879  0.2379  0.4337
14486SOL    HW155437   2.192   0.877   7.574 -0.9678  0.3904  0.3699
14486SOL    HW255438   2.169   0.956   7.701 -1.6554  0.0166  0.4833
14487SOL     OW55439   0.447   3.847   9.487  0.0482 -0.0758  0.5014
14487SOL    HW155440   0.391   3.915   9.524  0.0135 -1.2092  2.6973
14487SOL    HW255441   0.484   3.802   9.563  0.8243 -1.8909 -0.8717
14488SOL     OW55442  12.491   5.905   6.439 -0.1931 -0.5284 -0.1796
14488SOL    HW155443  12.522   5.833   6.384 -2.5820 -1.1215 -0.8670
14488SOL    HW255444  12.541   5.981   6.410  0.7296 -1.4293 -1.0472
14489SOL     OW55445   1.748  10.830   3.085 -0.0844 -0.0248 -0.1588
14489SOL    HW155446   1.773  10.793   3.001  0.9874  0.8243 -0.2266
14489SOL    HW255447   1.686  10.900   3.063 -0.3276 -0.2423 -0.1805
14490SOL     OW55448  12.748   3.010   6.063 -0.0585 -0.2000 -0.7615
14490SOL    HW155449  12.780   3.100   6.050  0.4133 -0.3280 -0.4962
14490SOL    HW255450  12.824   2.955   6.047 -0.0360 -0.4873  0.2525
14491SOL     OW55451   3.880  11.311   7.964  0.4461  0.5800 -0.1956
14491SOL    HW155452   3.921  11.363   7.894 -0.8914  0.4507 -1.1032
14491SOL    HW255453   3.788  11.334   7.960  0.0891 -0.6802  0.4620
14492SOL     OW55454  12.960   7.375   7.921 -0.2009  0.0187  0.1010
14492SOL    HW155455  12.913   7.295   7.897  1.4053 -0.2186 -2.5445
14492SOL    HW255456  12.902   7.446   7.893 -0.0949 -0.2578 -0.8517
14493SOL     OW55457   8.642   4.874  10.454 -0.2739  0.4676 -0.1343
14493SOL    HW155458   8.568   4.886  10.395 -1.2674 -2.0560  0.5090
14493SOL    HW255459   8.718   4.872  10.396 -0.7768  1.9532 -0.9027
14494SOL     OW55460   5.789   8.491   7.326  0.1612 -0.2872  0.2050
14494SOL    HW155461   5.774   8.439   7.247 -0.6981 -1.4223  1.0654
14494SOL    HW255462   5.860   8.445   7.371  0.9719  0.6223 -0.1076
14495SOL     OW55463  12.437   4.547   3.497  0.1080 -0.6725  0.0449
14495SOL    HW155464  12.380   4.531   3.572 -1.4328 -0.4564 -1.0341
14495SOL    HW255465  12.519   4.502   3.519 -0.4440 -0.9462  1.6642
14496SOL     OW55466   5.391   9.809   4.038  0.1194  0.2702 -0.3218
14496SOL    HW155467   5.390   9.903   4.021 -0.2158  0.4792  0.7398
14496SOL    HW255468   5.420   9.770   3.957  0.5760  1.3181 -0.6779
14497SOL     OW55469   3.570   2.976  12.096  0.0718  0.3858  0.0015
14497SOL    HW155470   3.607   2.912  12.158 -1.6021 -0.9793 -0.3345
14497SOL    HW255471   3.498   2.929  12.054 -2.2560  2.9734  0.8364
14498SOL     OW55472   8.247  11.819   5.779 -0.1716  0.5458 -0.0609
14498SOL    HW155473   8.172  11.875   5.759 -0.7143  0.1873  0.9187
14498SOL    HW255474   8.281  11.793   5.693 -1.4990  0.2795 -0.5341
14499SOL     OW55475   5.389  11.003  10.110  0.2010 -0.4169 -0.0157
14499SOL    HW155476   5.314  10.965  10.064  0.0563  1.0626 -1.0830
14499SOL    HW255477   5.417  11.075  10.054  0.1011  1.4350  2.1385
14500SOL     OW55478  12.600  13.008  11.359 -0.1293  0.2294  0.7143
14500SOL    HW155479  12.678  12.965  11.396  1.2073  0.8354 -1.2133
14500SOL    HW255480  12.593  12.972  11.270 -1.4384  0.9743  0.4925
14501SOL     OW55481  12.002  10.981   4.460 -0.1281 -0.0175  0.5452
14501SOL    HW155482  12.075  10.978   4.397  1.0075  0.0227  1.8201
14501SOL    HW255483  11.983  10.890   4.479  0.6240 -0.0155  1.3536
14502SOL     OW55484   3.638  13.550   7.212  0.1501 -0.1782 -0.0338
14502SOL    HW155485   3.718  13.497   7.206  0.5521  0.4680 -0.6399
14502SOL    HW255486   3.665  13.628   7.260 -1.0164 -1.5086  3.0887
14503SOL     OW55487   1.944   6.333   1.451  0.4635 -0.0122  0.4296
14503SOL    HW155488   1.860   6.376   1.462 -0.9516 -2.0257 -1.5714
14503SOL    HW255489   1.938   6.254   1.505 -0.0367 -1.4759 -1.6374
14504SOL     OW55490   7.473  10.350   9.598  0.3971  0.0188  0.0895
14504SOL    HW155491   7.454  10.443   9.606  1.8235  0.4740 -1.4676
14504SOL    HW255492   7.554  10.345   9.547 -1.7648 -2.1178 -3.6009
14505SOL     OW55493   7.997   3.804   1.078  0.8584  0.0720 -0.1599
14505SOL    HW155494   8.071   3.810   1.138  0.1792  1.3587  0.5902
14505SOL    HW255495   7.978   3.895   1.055 -0.5722 -0.2349 -0.2431
14506SOL     OW55496   1.602   1.871   0.383  0.1515 -0.3282 -0.5561
14506SOL    HW155497   1.547   1.806   0.339  0.5513 -0.7290 -0.4785
14506SOL    HW255498   1.549   1.902   0.456 -0.4389  0.1938 -1.1932
14507SOL     OW55499   0.798  11.470  13.795 -0.3996 -0.1860 -0.2275
14507SOL    HW155500   0.750  11.549  13.821 -0.7312  0.6405 -2.9965
14507SOL    HW255501   0.735  11.399  13.809 -2.4805  0.8277 -3.3659
14508SOL     OW55502   5.652   6.108   2.524  0.0002  0.0795  0.0601
14508SOL    HW155503   5.602   6.133   2.447  2.0517  1.5163 -0.9010
14508SOL    HW255504   5.587   6.071   2.584 -1.5802 -1.6479 -2.5298
14509SOL     OW55505  11.760   5.352   6.220 -0.4829 -0.2636 -0.3404
14509SOL    HW155506  11.801   5.320   6.139 -1.0350  0.0066 -0.7375
14509SOL    HW255507  11.667   5.328   6.210 -0.7076  0.4979 -0.1660
14510SOL     OW55508  12.220   2.343   7.650 -0.0389  0.0036  0.1389
14510SOL    HW155509  12.192   2.262   7.694 -0.4522  0.3278  0.4833
14510SOL    HW255510  12.311   2.327   7.627 -0.0726 -0.5080  0.3339
14511SOL     OW55511   3.348   0.192  13.622  0.1862  0.0229  0.1212
14511SOL    HW155512   3.338   0.175  13.528  0.1106  1.0468 -0.0697
14511SOL    HW255513   3.274   0.249  13.643  1.7167  2.1266  0.1696
14512SOL     OW55514   4.446   3.802   8.724  0.4251  0.1574 -0.3893
14512SOL    HW155515   4.523   3.798   8.667  0.8828  0.0027  0.2183
14512SOL    HW255516   4.481   3.786   8.812  0.4844  4.4732  0.6064
14513SOL     OW55517   2.984   1.913   6.250  0.0932  0.4359 -0.4812
14513SOL    HW155518   3.043   1.847   6.287 -2.0468 -2.4646 -1.8714
14513SOL    HW255519   2.941   1.951   6.327  2.9616  2.0591  0.5108
14514SOL     OW55520  13.890  12.267   1.298  0.2993 -0.2525 -0.2627
14514SOL    HW155521  13.977  12.291   1.332  1.2386  0.2808 -2.8202
14514SOL    HW255522  13.861  12.344   1.250  0.8005 -2.0879 -3.8283
14515SOL     OW55523  13.427   6.752   8.270 -0.2469 -0.0817 -0.0100
14515SOL    HW155524  13.364   6.748   8.342 -0.1706 -1.1172  0.0122
14515SOL    HW255525  13.400   6.829   8.219  0.3545  1.3288  1.7118
14516SOL     OW55526   4.518  12.511  13.149  0.1163  0.5089  0.6070
14516SOL    HW155527   4.521  12.433  13.094 -1.9651  1.9771 -1.8332
14516SOL    HW255528   4.604  12.552  13.136  0.1174  0.1859 -0.6045
14517SOL     OW55529  12.185   0.316   8.421  0.0791  1.0448 -0.2954
14517SOL    HW155530  12.212   0.380   8.356  1.1839 -0.7727 -1.7606
14517SOL    HW255531  12.179   0.365   8.503  1.0479  2.9431 -1.3002
14518SOL     OW55532   5.710   7.208   1.007 -0.5701  0.0960  0.7222
14518SOL    HW155533   5.772   7.179   1.074  1.8691  0.6071 -1.1700
14518SOL    HW255534   5.664   7.282   1.047  0.2204 -0.1359  2.1016
14519SOL     OW55535  10.711   1.915   2.829  0.2262 -0.1390  0.0256
14519SOL    HW155536  10.751   2.002   2.834  0.2664 -0.1551 -0.0017
14519SOL    HW255537  10.686   1.906   2.737 -0.1415  0.0017  0.1107
14520SOL     OW55538   4.696   9.561   9.025 -0.4446  0.0242 -0.2835
14520SOL    HW155539   4.772   9.512   9.058 -0.7854  0.1103  0.6355
14520SOL    HW255540   4.693   9.539   8.931  0.9035  0.2717 -0.4066
14521SOL     OW55541   3.902   1.876   7.731 -0.0022 -0.7361  0.6358
14521SOL    HW155542   3.907   1.792   7.777 -1.9861 -1.2400  0.0397
14521SOL    HW255543   3.810   1.902   7.740  0.3318  0.8165 -0.1720
14522SOL     OW55544   6.864   6.874   7.752 -0.0863  0.1439  0.0216
14522SOL    HW155545   6.798   6.943   7.761 -0.6318 -0.3504 -0.0800
14522SOL    HW255546   6.931   6.896   7.817  2.0503  3.2584 -2.8713
14523SOL     OW55547   1.754  12.808  12.916 -0.1800 -0.0356  0.2802
14523SOL    HW155548   1.848  12.794  12.900 -0.2004  0.9007 -0.7384
14523SOL    HW255549   1.711  12.771  12.840 -0.5923  0.2708  0.3631
14524SOL     OW55550   2.750   1.758   4.724  0.4221  0.5562  0.5049
14524SOL    HW155551   2.685   1.762   4.794  1.3965  0.0641  1.4839
14524SOL    HW255552   2.825   1.807   4.759  1.3062 -0.5696  0.2419
14525SOL     OW55553  10.672   7.422   7.246 -0.3696  1.1870 -0.3545
14525SOL    HW155554  10.702   7.433   7.156  3.8796 -0.5224  0.6403
14525SOL    HW255555  10.625   7.339   7.246  0.1772  0.8690 -0.8968
14526SOL     OW55556  11.987  10.022  10.102 -0.3446  0.4374  0.3996
14526SOL    HW155557  11.948   9.991  10.020 -1.8608  2.0767  0.4434
14526SOL    HW255558  11.944   9.969  10.169 -1.7440  1.4752  0.3595
14527SOL     OW55559   7.420  12.825   9.005  0.0240  0.2415  0.2071
14527SOL    HW155560   7.469  12.875   8.940 -0.6277 -0.8222 -1.1655
14527SOL    HW255561   7.460  12.738   9.003  0.7181  0.4731  2.0786
14528SOL     OW55562   4.265   4.957   4.953  0.4995  0.2667  0.5437
14528SOL    HW155563   4.172   4.937   4.963  0.2316  0.1989 -1.5222
14528SOL    HW255564   4.268   5.018   4.879  2.1579 -0.5707 -0.1331
14529SOL     OW55565   3.105   3.765  12.493 -0.0799 -0.0853  0.3836
14529SOL    HW155566   3.115   3.698  12.425  0.3456 -0.5643  0.9059
14529SOL    HW255567   3.016   3.752  12.527  0.3598 -1.0912  1.2019
14530SOL     OW55568   8.082   9.196   1.370 -0.1665  0.0499 -0.1696
14530SOL    HW155569   8.031   9.202   1.451 -1.0602 -1.6786 -0.5687
14530SOL    HW255570   8.147   9.266   1.377 -1.3371  1.0382  1.2469
14531SOL     OW55571  13.344   0.752   2.010 -0.4178 -0.1822  0.4038
14531SOL    HW155572  13.310   0.789   1.928  0.8546 -0.0334 -0.0832
14531SOL    HW255573  13.435   0.781   2.013  0.1398 -1.9073  0.8490
14532SOL     OW55574  10.147   5.272   6.501  0.3110  0.0558 -0.0562
14532SOL    HW155575  10.077   5.294   6.440 -0.8306 -0.5881  0.9753
14532SOL    HW255576  10.196   5.353   6.511 -0.9531  0.8360  0.0396
14533SOL     OW55577   2.858   0.115   8.281 -0.0413 -0.1929  0.5992
14533SOL    HW155578   2.839   0.080   8.194 -1.2900 -1.3232  1.2795
14533SOL    HW255579   2.777   0.159   8.306  0.1432 -0.2842  1.3701
14534SOL     OW55580  10.193   2.831   3.151  0.7391 -0.1506 -0.5271
14534SOL    HW155581  10.155   2.816   3.064  0.5732 -0.5378 -0.3909
14534SOL    HW255582  10.164   2.919   3.175 -0.2178 -0.4956 -0.3558
14535SOL     OW55583  10.084   6.050   6.008 -0.6812  0.0396  0.0191
14535SOL    HW155584  10.087   5.954   6.008 -0.9976  0.0256  0.2781
14535SOL    HW255585  10.023   6.072   5.937  0.4055  0.0962 -0.9129
14536SOL     OW55586   4.393  10.749   9.196  0.3029  0.2122 -0.3400
14536SOL    HW155587   4.354  10.775   9.113  1.4871  1.4176 -0.5353
14536SOL    HW255588   4.448  10.823   9.222 -1.1422  0.5358  2.2507
14537SOL     OW55589  11.044   7.068   7.300  0.2543 -0.2688  0.0741
14537SOL    HW155590  11.004   7.148   7.266  0.1551 -0.8798 -1.3400
14537SOL    HW255591  11.093   7.032   7.225  1.3203 -0.8883  1.0312
14538SOL     OW55592   7.763   6.020   2.603  0.0614 -0.1242 -0.7402
14538SOL    HW155593   7.720   6.101   2.630 -0.2768  0.0272 -1.7156
14538SOL    HW255594   7.755   5.962   2.679 -1.4294  0.0680 -0.7273
14539SOL     OW55595  10.275   7.496   7.994  0.0824 -0.1929 -0.1433
14539SOL    HW155596  10.257   7.464   8.083  2.1751  0.6368  0.6551
14539SOL    HW255597  10.335   7.432   7.957  0.7382  0.4502 -0.2183
14540SOL     OW55598   7.240   3.625   8.212  0.4657 -0.0242 -0.7220
14540SOL    HW155599   7.154   3.586   8.194  0.8049 -0.6108 -1.1187
14540SOL    HW255600   7.264   3.668   8.130  0.7765 -0.3043 -0.7786
14541SOL     OW55601  13.303   1.608   3.111 -0.0918 -0.6315 -0.3449
14541SOL    HW155602  13.322   1.515   3.119  1.6596 -0.2547  0.4418
14541SOL    HW255603  13.248   1.628   3.187  0.3573 -0.8426  0.0429
14542SOL     OW55604  13.454  13.295   6.838  0.3537  0.0111  0.5880
14542SOL    HW155605  13.503  13.332   6.765  0.2920  1.5055  1.2756
14542SOL    HW255606  13.387  13.361   6.858  0.1404 -0.5400  1.7604
14543SOL     OW55607  10.489  11.744  12.350 -0.6783 -0.5485 -0.2386
14543SOL    HW155608  10.504  11.823  12.298  1.6049 -0.1057  0.9475
14543SOL    HW255609  10.394  11.731  12.348 -1.1350  2.2465 -0.4321
14544SOL     OW55610   8.126   7.199   8.699 -0.7312 -0.1516 -0.0222
14544SOL    HW155611   8.077   7.187   8.780  2.3787  0.7550  2.1729
14544SOL    HW255612   8.113   7.292   8.677  1.0171  0.4804  1.3915
14545SOL     OW55613  10.459   8.933  10.464  0.1120 -0.5232 -0.6013
14545SOL    HW155614  10.429   8.892  10.382  0.9768 -1.8324 -0.2942
14545SOL    HW255615  10.539   8.886  10.486  0.6344  0.7541  0.2845
14546SOL     OW55616   7.642   8.953   7.109 -0.8230 -0.1644 -0.1512
14546SOL    HW155617   7.653   8.865   7.073 -1.8058 -0.0318 -0.8108
14546SOL    HW255618   7.548   8.962   7.121 -0.7306  0.7987 -0.0858
14547SOL     OW55619  10.425  10.879   8.783  0.1850 -0.6991  0.0183
14547SOL    HW155620  10.362  10.940   8.819 -0.3218 -0.5180 -1.1325
14547SOL    HW255621  10.378  10.797   8.775  0.3277 -0.7698 -0.1154
14548SOL     OW55622  13.718   7.454   7.790  0.0866  0.2952 -0.2758
14548SOL    HW155623  13.791   7.506   7.823 -0.0653 -0.6754  1.7698
14548SOL    HW255624  13.697   7.492   7.704  1.3597  2.1716  0.1942
14549SOL     OW55625  11.687  11.701   8.409 -0.0565  0.2437 -0.3046
14549SOL    HW155626  11.697  11.621   8.460  4.4661  0.1592 -0.9060
14549SOL    HW255627  11.714  11.771   8.469  0.7536  0.6800 -1.1525
14550SOL     OW55628  11.914   4.986  12.558  0.8901  0.5663 -0.6601
14550SOL    HW155629  11.929   4.945  12.473  1.9021 -0.2426 -0.1224
14550SOL    HW255630  11.995   4.969  12.607 -0.5305 -1.1271  1.2955
14551SOL     OW55631   5.134   1.720   4.592 -0.7463  0.4831 -0.2829
14551SOL    HW155632   5.148   1.814   4.580 -2.4978  0.9922  1.2769
14551SOL    HW255633   5.117   1.710   4.685  1.1109 -1.6669 -0.0810
14552SOL     OW55634  10.587   5.796   9.939  0.2116  0.2601 -0.2562
14552SOL    HW155635  10.627   5.807  10.025  1.2122  0.1893 -0.7066
14552SOL    HW255636  10.495   5.821   9.953  0.1503 -0.5644  1.0181
14553SOL     OW55637   2.521   2.122   2.504  0.3973  0.0132  0.4338
14553SOL    HW155638   2.452   2.172   2.549  0.2921 -0.1241  0.4242
14553SOL    HW255639   2.531   2.043   2.556  1.7511  0.7915  1.4276
14554SOL     OW55640   8.655   4.213   0.854 -0.3268  0.2305 -0.3217
14554SOL    HW155641   8.653   4.181   0.763 -1.5420 -2.1282  0.4451
14554SOL    HW255642   8.568   4.191   0.888  0.9992 -1.4996  2.2040
14555SOL     OW55643  10.934  11.109  12.176 -0.0603  0.3257  0.4303
14555SOL    HW155644  10.901  11.173  12.239 -1.1841 -0.8415  1.0780
14555SOL    HW255645  10.862  11.047  12.165  1.4663 -1.6449  0.9346
14556SOL     OW55646   9.477   6.785   7.735  0.1971  0.0961 -0.5416
14556SOL    HW155647   9.559   6.766   7.689 -0.0560 -0.5378 -0.7402
14556SOL    HW255648   9.474   6.721   7.806 -0.7315 -0.7117 -1.2964
14557SOL     OW55649   8.498  11.373  12.591 -0.4376  0.7762 -0.0058
14557SOL    HW155650   8.445  11.304  12.630 -0.8095 -1.0370 -3.3228
14557SOL    HW255651   8.435  11.440  12.563 -0.2551  1.6540  1.5743
14558SOL     OW55652   4.131  13.814   0.946  0.0030 -0.4972  0.0133
14558SOL    HW155653   4.166  13.800   0.858 -1.4708 -0.0468 -0.6761
14558SOL    HW255654   4.061  13.878   0.934  1.2297  1.2889  1.8707
14559SOL     OW55655   9.658   2.137   9.984 -0.2295 -0.1093  0.6577
14559SOL    HW155656   9.723   2.204  10.005  0.0474  0.0245 -0.5416
14559SOL    HW255657   9.608   2.174   9.911 -0.2533 -1.0753  0.1656
14560SOL     OW55658   0.189   5.789   9.373  0.6076 -0.2561 -0.2806
14560SOL    HW155659   0.213   5.838   9.451  0.3205  0.4399 -0.6294
14560SOL    HW255660   0.096   5.808   9.359 -0.3244 -3.0490  1.1529
14561SOL     OW55661   5.478   6.872   2.860 -0.3557 -0.3894  0.0681
14561SOL    HW155662   5.561   6.868   2.909 -0.3740  0.7647  0.2044
14561SOL    HW255663   5.501   6.839   2.773  0.3949  0.5107 -0.0880
14562SOL     OW55664  13.142   6.765   8.163 -0.1437  0.0492  0.2176
14562SOL    HW155665  13.201   6.826   8.120  1.4378 -1.0728  0.7309
14562SOL    HW255666  13.106   6.814   8.237  0.1264  0.7367 -0.0984
14563SOL     OW55667   9.468  13.904   4.157 -0.3262  0.2999  0.4181
14563SOL    HW155668   9.480  13.863   4.072 -1.7510 -1.2401  0.8964
14563SOL    HW255669   9.418  13.984   4.139 -1.0788 -0.2834 -0.1730
14564SOL     OW55670   7.590   5.618  11.992 -0.0765  0.2123 -0.8272
14564SOL    HW155671   7.596   5.687  12.059  1.8211 -0.4458 -0.2623
14564SOL    HW255672   7.500   5.587  11.998 -0.2554  0.9257  0.6484
14565SOL     OW55673   8.637   7.291   4.615 -0.2436  0.1206 -0.4324
14565SOL    HW155674   8.656   7.238   4.692 -1.5971  0.8744  0.4668
14565SOL    HW255675   8.542   7.306   4.619 -0.2210  0.8184 -1.8292
14566SOL     OW55676  10.777  12.340   9.840  0.1008 -0.5897 -0.2866
14566SOL    HW155677  10.772  12.306   9.930  0.8853  0.4815  0.1861
14566SOL    HW255678  10.860  12.305   9.807 -0.5564 -1.6306 -0.8963
14567SOL     OW55679   1.124   3.588   7.665  0.3401 -0.5369  0.0900
14567SOL    HW155680   1.095   3.635   7.587 -0.9116 -0.3663  0.6490
14567SOL    HW255681   1.087   3.501   7.655  1.5840 -1.0512 -0.3059
14568SOL     OW55682   2.006   9.737   9.255 -0.1140 -0.1383 -0.2143
14568SOL    HW155683   1.918   9.770   9.271 -0.7475 -1.2215 -1.2697
14568SOL    HW255684   1.997   9.683   9.177  0.6952 -3.2937  1.6948
14569SOL     OW55685   1.175   3.419   3.601 -0.1185 -0.0029  0.1946
14569SOL    HW155686   1.187   3.514   3.589  0.3953 -0.0843  0.0583
14569SOL    HW255687   1.144   3.388   3.516  0.3561 -0.0640  0.0466
14570SOL     OW55688   5.740   4.032   1.438 -0.5270 -0.4916  0.2163
14570SOL    HW155689   5.645   4.034   1.423 -0.3827  0.0460 -0.6904
14570SOL    HW255690   5.758   3.941   1.464 -1.2984 -0.5737  0.5021
14571SOL     OW55691   8.916   5.244   6.201  0.2187  0.3727  0.5256
14571SOL    HW155692   8.859   5.315   6.172  0.0774  0.0418 -0.0085
14571SOL    HW255693   8.857   5.179   6.240  0.2262  0.0267 -0.0334
14572SOL     OW55694   8.552   3.175  10.173 -0.1189  0.6513 -0.0671
14572SOL    HW155695   8.555   3.254  10.120 -1.6917  0.8303  0.0687
14572SOL    HW255696   8.608   3.193  10.248  0.7650  1.0334 -0.8017
14573SOL     OW55697   0.861   3.141   5.291 -0.2262 -0.4711 -0.0639
14573SOL    HW155698   0.854   3.235   5.305 -2.3164 -0.6785  0.6130
14573SOL    HW255699   0.955   3.125   5.278  0.3093  1.5228  1.0413
14574SOL     OW55700   9.757  10.213   9.826  0.5326 -0.0991  0.3918
14574SOL    HW155701   9.800  10.137   9.786  0.2909  0.5849 -1.2365
14574SOL    HW255702   9.828  10.277   9.838  0.6498 -0.3838  1.3442
14575SOL     OW55703   6.015  13.906   0.689  0.4159 -0.0912  0.2909
14575SOL    HW155704   6.076  13.980   0.685  0.8478 -0.4933 -1.4063
14575SOL    HW255705   5.952  13.930   0.757  0.6699  1.7313 -0.0679
14576SOL     OW55706  13.770   1.808   8.196 -0.4215 -0.1659  0.6519
14576SOL    HW155707  13.865   1.810   8.203 -0.1099  0.7323 -2.2822
14576SOL    HW255708  13.749   1.716   8.177 -0.0102 -0.1663  0.1852
14577SOL     OW55709   4.538   1.031  13.513 -0.2957  0.1468 -0.1681
14577SOL    HW155710   4.532   1.003  13.605  1.9787 -1.7738 -0.4918
14577SOL    HW255711   4.508   0.955  13.463  1.2916  0.0250 -1.0096
14578SOL     OW55712   8.249   1.407   4.207 -0.4602 -0.3964  0.5361
14578SOL    HW155713   8.224   1.459   4.131 -0.9152 -1.0397  0.2411
14578SOL    HW255714   8.171   1.355   4.227 -0.8231  0.7360  2.2735
14579SOL     OW55715   9.575  10.760   8.912  0.6716 -0.0309  0.2273
14579SOL    HW155716   9.490  10.757   8.870  1.6014 -0.7765 -1.7062
14579SOL    HW255717   9.611  10.846   8.888  0.3666  0.4133  1.2984
14580SOL     OW55718  11.097   8.017   5.462  0.3226 -0.2306  0.4148
14580SOL    HW155719  11.160   7.949   5.487 -1.4313 -1.3242  2.2576
14580SOL    HW255720  11.118   8.091   5.518  0.4676 -0.3183  0.4775
14581SOL     OW55721   8.223  10.407   0.756 -0.2151  0.3749 -0.0658
14581SOL    HW155722   8.158  10.457   0.806 -0.9362 -0.0807 -0.5340
14581SOL    HW255723   8.257  10.469   0.692 -2.8284 -0.2614 -2.2641
14582SOL     OW55724   3.754   6.616   7.483  0.0331  0.7257  0.0770
14582SOL    HW155725   3.668   6.658   7.483 -0.3835 -0.0799 -0.7407
14582SOL    HW255726   3.815   6.687   7.502 -0.7434  1.4674 -0.1120
14583SOL     OW55727   6.127   2.208  11.691 -0.1450 -0.1417  0.2050
14583SOL    HW155728   6.174   2.142  11.742 -0.2627  0.5393  1.2291
14583SOL    HW255729   6.123   2.172  11.602  0.7469 -1.0028  0.5021
14584SOL     OW55730  11.878   7.110  10.293  1.0846  0.0996  0.2953
14584SOL    HW155731  11.932   7.098  10.371  1.9196 -2.0049 -0.5303
14584SOL    HW255732  11.905   7.195  10.258  2.3627  0.0266  1.0509
14585SOL     OW55733   2.283   8.253   4.666  0.4212  0.1887  0.0403
14585SOL    HW155734   2.292   8.169   4.711  0.2055  0.4901  0.6619
14585SOL    HW255735   2.203   8.290   4.702 -0.5078 -0.1597 -1.6004
14586SOL     OW55736   5.590  10.047   3.057 -0.0581  0.2673 -0.0584
14586SOL    HW155737   5.521  10.013   3.114  1.1522  0.6913  1.7573
14586SOL    HW255738   5.616   9.972   3.004 -2.5261  0.3286 -1.5193
14587SOL     OW55739   2.496   7.589  13.704 -0.5273 -0.4370 -0.0390
14587SOL    HW155740   2.475   7.527  13.634 -0.8362  0.9284 -1.2092
14587SOL    HW255741   2.414   7.601  13.752 -1.4144  1.5493 -1.8905
14588SOL     OW55742  11.366   1.490  14.043 -0.0897 -0.5333  0.5633
14588SOL    HW155743  11.376   1.551  13.970  1.2258 -1.5475 -0.1477
14588SOL    HW255744  11.355   1.404  14.002 -0.9414 -0.9187  1.5489
14589SOL     OW55745   2.387   4.366  11.891  0.1543 -0.1372 -0.7273
14589SOL    HW155746   2.452   4.436  11.891 -0.5075  0.5033  0.2753
14589SOL    HW255747   2.339   4.378  11.972 -0.5059 -1.2748 -0.9257
14590SOL     OW55748   1.227  12.540   0.415 -0.3174  0.0391 -0.0580
14590SOL    HW155749   1.246  12.500   0.500 -2.8606 -0.0391  0.5287
14590SOL    HW255750   1.186  12.470   0.364  1.5859 -0.0563 -1.5917
14591SOL     OW55751   0.543   2.146   1.025 -0.0430 -0.3163  0.3094
14591SOL    HW155752   0.627   2.102   1.010  1.4239  2.4424 -0.0974
14591SOL    HW255753   0.498   2.141   0.941  1.4015  1.4232 -0.6389
14592SOL     OW55754  13.575   9.017   8.383  0.0125  0.2136 -0.5171
14592SOL    HW155755  13.489   9.048   8.411 -0.4285 -1.2758 -0.1760
14592SOL    HW255756  13.633   9.036   8.456 -0.9125 -2.6453  1.1046
14593SOL     OW55757  12.795   2.274   1.113 -0.6291 -0.2281  0.8183
14593SOL    HW155758  12.749   2.210   1.167 -0.1910 -1.6734 -0.4531
14593SOL    HW255759  12.874   2.228   1.083 -1.2219  0.2194 -1.6394
14594SOL     OW55760   7.174   8.433   5.957 -0.0591 -0.0115 -0.4732
14594SOL    HW155761   7.226   8.483   5.895 -1.0717  0.2401 -1.1416
14594SOL    HW255762   7.200   8.342   5.942  0.5714  0.1506 -0.4099
14595SOL     OW55763   7.689   0.675   0.567  0.4615 -0.2267  0.2599
14595SOL    HW155764   7.630   0.713   0.502 -0.3488 -0.9705  0.5364
14595SOL    HW255765   7.736   0.750   0.603 -0.8276  0.4872  0.5279
14596SOL     OW55766   9.970   1.151   9.144  0.3428  0.3422  0.3959
14596SOL    HW155767   9.961   1.064   9.105 -0.7447 -0.2429  1.8506
14596SOL    HW255768   9.953   1.137   9.237 -1.8335  2.4000  0.3941
14597SOL     OW55769   8.481  10.672   7.179 -0.2716  0.1710 -0.0651
14597SOL    HW155770   8.502  10.747   7.234 -1.9251  0.9623 -0.4305
14597SOL    HW255771   8.529  10.688   7.097  0.2176  0.2756  0.2391
14598SOL     OW55772   3.632   5.546   9.709  1.0731  0.7746  0.2468
14598SOL    HW155773   3.720   5.525   9.741  1.3925 -1.0198 -1.6071
14598SOL    HW255774   3.620   5.489   9.633 -1.1009  2.1076 -0.4929
14599SOL     OW55775   2.802  10.686   7.195  0.2403 -0.4430 -0.2399
14599SOL    HW155776   2.793  10.591   7.204  5.1584 -1.5181 -2.8436
14599SOL    HW255777   2.813  10.700   7.101  2.6999  2.1857  0.2884
14600SOL     OW55778   3.792   7.868   7.967 -0.0985 -0.3855 -0.6322
14600SOL    HW155779   3.699   7.861   7.987 -0.4609 -1.0874 -2.3440
14600SOL    HW255780   3.816   7.780   7.936  1.6218 -0.7796  1.5542
14601SOL     OW55781  12.758   8.937   8.341  0.1294 -0.6270 -0.0107
14601SOL    HW155782  12.839   8.968   8.302 -0.8707  0.9262 -0.9607
14601SOL    HW255783  12.702   8.915   8.266 -0.9130 -0.0725  0.5754
14602SOL     OW55784   3.767   8.336  13.522  0.1196 -0.0511  0.1331
14602SOL    HW155785   3.732   8.247  13.521 -1.4576  0.5029 -1.7627
14602SOL    HW255786   3.694   8.391  13.493  0.8592  1.9713  1.8204
14603SOL     OW55787   0.628   4.847   9.942  0.5809  0.0956  0.4135
14603SOL    HW155788   0.612   4.936   9.973  0.8727  0.1799  0.3241
14603SOL    HW255789   0.600   4.847   9.851  2.0603  0.5415 -0.0731
14604SOL     OW55790   5.727   8.315  13.815 -0.4670 -0.0430  0.1758
14604SOL    HW155791   5.683   8.291  13.896  0.1960  0.3534  0.6687
14604SOL    HW255792   5.712   8.409  13.806 -0.2663 -0.0241  0.0112
14605SOL     OW55793  10.280  11.538  12.214 -0.4499 -0.2322  0.1692
14605SOL    HW155794  10.199  11.563  12.170  0.5785 -0.0089 -1.6842
14605SOL    HW255795  10.251  11.502  12.298 -2.3010  2.1108  0.6440
14606SOL     OW55796   0.672  13.415   3.868 -0.0333  0.3486 -0.0270
14606SOL    HW155797   0.738  13.484   3.860 -0.5847  0.9843  0.7640
14606SOL    HW255798   0.723  13.337   3.892  0.3855  1.0252  1.4677
14607SOL     OW55799   9.280  12.745   8.172 -0.0646 -0.5316 -0.3078
14607SOL    HW155800   9.375  12.741   8.168  0.0442  1.4044 -1.0717
14607SOL    HW255801   9.261  12.801   8.247 -0.5642 -0.3073 -0.5943
14608SOL     OW55802  10.925   3.503   1.778 -0.7766 -0.2466  0.5232
14608SOL    HW155803  10.895   3.575   1.723 -0.8487 -0.6509  0.0238
14608SOL    HW255804  11.019   3.517   1.787 -0.5145 -0.9492 -0.8837
14609SOL     OW55805   0.761   1.129   9.249 -0.0853  0.4663  0.1956
14609SOL    HW155806   0.821   1.185   9.199 -0.7910  0.6915 -0.4287
14609SOL    HW255807   0.674   1.161   9.225 -0.4511  0.4056  1.3826
14610SOL     OW55808   8.200  13.442   2.653 -1.2163 -0.0960  0.1229
14610SOL    HW155809   8.140  13.426   2.726  0.1588  1.3326  1.6668
14610SOL    HW255810   8.185  13.533   2.628 -0.3638  0.0065 -0.0639
14611SOL     OW55811   6.378   4.594   6.434  0.7860 -0.3989 -0.5445
14611SOL    HW155812   6.449   4.530   6.427  1.3951  0.1829  0.1669
14611SOL    HW255813   6.412   4.662   6.491  0.0404  0.4394 -1.0753
14612SOL     OW55814  13.504  12.311   6.464 -0.3882 -0.0695  0.0697
14612SOL    HW155815  13.468  12.380   6.519  0.2199 -0.6866  1.2929
14612SOL    HW255816  13.517  12.237   6.524 -1.7391 -1.5300 -1.3341
14613SOL     OW55817   9.762   3.144   6.717 -0.1146 -0.2659  0.1213
14613SOL    HW155818   9.765   3.216   6.780 -1.1016 -1.0467  1.0729
14613SOL    HW255819   9.672   3.113   6.719  0.5660 -2.3385  0.6360
14614SOL     OW55820   0.466  13.170   4.433 -0.1965 -0.2101  0.5189
14614SOL    HW155821   0.544  13.128   4.396 -0.9504  0.2383 -1.7629
14614SOL    HW255822   0.404  13.098   4.447  0.3892 -0.4891  1.7568
14615SOL     OW55823  13.538   4.567   4.288 -0.1656 -0.2898  0.0205
14615SOL    HW155824  13.513   4.598   4.201  0.2776  0.7786  0.2511
14615SOL    HW255825  13.606   4.501   4.272 -1.8712 -1.9911 -0.5312
14616SOL     OW55826   4.897   6.367  11.307  0.2405 -0.2572 -0.2783
14616SOL    HW155827   4.820   6.367  11.363 -1.1728 -0.4472 -2.1218
14616SOL    HW255828   4.917   6.460  11.292 -0.3638 -0.2011 -0.7447
14617SOL     OW55829   6.046   6.512   8.624  0.5067 -0.4564 -0.5449
14617SOL    HW155830   6.134   6.486   8.597  0.6583  1.6121 -2.2532
14617SOL    HW255831   6.059   6.588   8.680 -0.1447 -0.9054  0.2343
14618SOL     OW55832   5.049   8.756  11.451  0.0209  0.4664  0.0512
14618SOL    HW155833   4.967   8.732  11.495 -0.3847  0.5834 -0.6161
14618SOL    HW255834   5.026   8.835  11.401  0.7864  1.0322  0.5812
14619SOL     OW55835   8.872   7.585  11.377  0.6195 -0.3971 -0.4590
14619SOL    HW155836   8.913   7.503  11.347  2.1357 -0.1405  0.7844
14619SOL    HW255837   8.935   7.653  11.354  0.2936  0.1786  0.3236
14620SOL     OW55838   3.798   3.712   1.505  0.2545  0.1214  0.5758
14620SOL    HW155839   3.790   3.660   1.585 -2.4517  0.8846  0.9236
14620SOL    HW255840   3.711   3.752   1.495  0.8725  0.9487 -2.1305
14621SOL     OW55841   9.998   2.497   9.578 -0.7437  0.5087  0.1805
14621SOL    HW155842  10.012   2.587   9.550  0.8411  0.8758  1.9499
14621SOL    HW255843  10.019   2.497   9.671 -0.7296 -1.6964  0.2388
14622SOL     OW55844  13.230   4.596   0.212  0.1560 -0.1501 -0.4184
14622SOL    HW155845  13.243   4.670   0.272  1.0714  0.3529 -1.1982
14622SOL    HW255846  13.245   4.518   0.265  1.1406  0.2910 -0.0184
14623SOL     OW55847  13.588   8.064   8.443  0.2242 -0.5647  0.0618
14623SOL    HW155848  13.620   8.147   8.479  1.8819 -1.3164  0.3958
14623SOL    HW255849  13.636   7.997   8.491 -0.5398 -1.7158 -0.7293
14624SOL     OW55850   3.616   2.974  13.339 -0.3895  0.6326  0.4537
14624SOL    HW155851   3.659   2.902  13.293  1.4181  1.7996  0.2157
14624SOL    HW255852   3.687   3.020  13.384 -1.5027  2.1957  0.7079
14625SOL     OW55853   2.012   1.773   5.416 -0.2173 -0.0661  0.4147
14625SOL    HW155854   1.917   1.768   5.416 -0.2657  0.3508 -1.4408
14625SOL    HW255855   2.040   1.708   5.351  0.7086  0.6274  0.1017
14626SOL     OW55856   2.061  13.712   3.139 -0.6110  0.0202  0.4127
14626SOL    HW155857   1.986  13.767   3.161 -0.6395  0.5655 -0.9338
14626SOL    HW255858   2.065  13.714   3.043  2.3792  1.7603  0.4254
14627SOL     OW55859   6.055  10.446   6.091 -0.6368 -0.0836 -0.8057
14627SOL    HW155860   6.097  10.433   6.177 -0.7911 -1.4365 -0.9092
14627SOL    HW255861   6.120  10.495   6.040  0.5885 -1.5494 -0.7455
14628SOL     OW55862   6.731   2.453   1.666 -0.5279 -0.6417  0.0868
14628SOL    HW155863   6.743   2.381   1.727  0.8767 -1.1819 -0.7751
14628SOL    HW255864   6.820   2.479   1.642 -1.0051 -1.1243 -2.4784
14629SOL     OW55865   3.578   4.130   0.462 -0.4687 -0.2098  0.4395
14629SOL    HW155866   3.492   4.140   0.421 -0.3930 -0.9600  0.0805
14629SOL    HW255867   3.594   4.214   0.505 -1.5168 -0.1709  0.7783
14630SOL     OW55868   7.625   1.084   2.105  0.1133 -0.2429 -0.8095
14630SOL    HW155869   7.622   1.175   2.077 -1.6964  0.1865  0.5872
14630SOL    HW255870   7.682   1.085   2.182 -1.4283  0.1348  0.3894
14631SOL     OW55871   4.664   5.330   8.227 -0.0790 -0.0811  0.0642
14631SOL    HW155872   4.581   5.356   8.266 -0.6619 -2.0268  0.2122
14631SOL    HW255873   4.642   5.303   8.138  0.3039 -1.0799  0.2661
14632SOL     OW55874   9.995  13.263  12.520  0.0917  0.4922  0.1215
14632SOL    HW155875   9.949  13.180  12.531  0.7971  0.0002 -0.6098
14632SOL    HW255876   9.946  13.324  12.575 -0.5350 -0.3610  0.5329
14633SOL     OW55877  12.467   7.832   7.999  0.2821 -0.3839 -0.2031
14633SOL    HW155878  12.522   7.899   7.960 -0.5984  0.4950  0.0369
14633SOL    HW255879  12.499   7.824   8.089 -1.9442  2.4726  1.0049
14634SOL     OW55880  11.148   1.094   7.995 -0.4112  0.1926  0.8246
14634SOL    HW155881  11.185   1.080   8.083  1.1028 -1.0640  0.0452
14634SOL    HW255882  11.056   1.073   8.004  0.2358 -2.7944  1.5602
14635SOL     OW55883  10.900  12.308   5.473  0.2362 -0.3117 -0.4352
14635SOL    HW155884  10.881  12.363   5.549  1.2926  1.0860 -1.1207
14635SOL    HW255885  10.874  12.220   5.499 -0.6343  0.3593  1.0578
14636SOL     OW55886   3.119  11.759  13.450 -0.0322 -0.1557  0.2197
14636SOL    HW155887   3.153  11.737  13.363 -0.8700  0.1234 -0.1922
14636SOL    HW255888   3.130  11.678  13.500 -0.8828 -0.8018 -0.5867
14637SOL     OW55889   9.690   9.248   8.416 -0.7148  0.0591 -0.3998
14637SOL    HW155890   9.688   9.153   8.415 -1.2712  0.0257  1.0642
14637SOL    HW255891   9.783   9.270   8.403 -0.5321 -0.6849 -0.4161
14638SOL     OW55892   0.313   2.099  11.637  0.0787 -0.4455 -0.1456
14638SOL    HW155893   0.378   2.038  11.603 -0.5596 -2.0200  1.2966
14638SOL    HW255894   0.333   2.107  11.730 -1.7796 -1.0459  0.3606
14639SOL     OW55895   8.205   7.468   9.195  0.3958  0.4115  0.3758
14639SOL    HW155896   8.237   7.394   9.247  0.6830  1.5614  1.9196
14639SOL    HW255897   8.282   7.525   9.186 -0.6582  2.3316  2.5409
14640SOL     OW55898   1.734   8.125   9.088 -0.1963  0.0419  0.1205
14640SOL    HW155899   1.827   8.103   9.083 -0.0891  0.1117  1.5018
14640SOL    HW255900   1.720   8.186   9.015  0.1131 -2.3191 -2.0720
14641SOL     OW55901  11.082   5.150   4.679 -0.3745 -0.3239  0.2992
14641SOL    HW155902  11.085   5.082   4.747 -0.6602 -1.2083 -0.5515
14641SOL    HW255903  11.049   5.105   4.601  1.4260  0.2643 -0.8873
14642SOL     OW55904   0.441  11.450   8.725 -0.6308 -0.1728 -0.4672
14642SOL    HW155905   0.380  11.510   8.768  0.3455 -0.3893  1.2718
14642SOL    HW255906   0.526  11.471   8.762  0.0800 -1.1295 -1.5047
14643SOL     OW55907   1.163  10.214   2.776 -0.1444 -0.1017  0.3306
14643SOL    HW155908   1.215  10.264   2.838  0.5231  0.8888 -0.9642
14643SOL    HW255909   1.098  10.276   2.743 -0.0723 -0.4150 -0.4320
14644SOL     OW55910   8.554   1.470   9.990  0.4313  0.1863 -0.0412
14644SOL    HW155911   8.482   1.421   9.951  0.2257 -2.7796  3.5638
14644SOL    HW255912   8.514   1.518  10.063  1.9821 -2.0774  2.4953
14645SOL     OW55913   5.221   5.288   5.875  0.2458  0.6458  0.3148
14645SOL    HW155914   5.169   5.210   5.892  0.3393  0.3626 -0.6370
14645SOL    HW255915   5.312   5.259   5.886  0.2717  0.6743  0.1781
14646SOL     OW55916  12.802   1.332   8.056 -0.3610  0.1328 -0.3354
14646SOL    HW155917  12.836   1.244   8.072 -0.6248  0.3411  1.5800
14646SOL    HW255918  12.804   1.342   7.961 -1.6784 -2.4629 -0.6938
14647SOL     OW55919   7.601   0.730   1.355 -0.5736  0.1831 -0.3039
14647SOL    HW155920   7.589   0.639   1.384  2.1627 -0.5045 -1.0780
14647SOL    HW255921   7.632   0.722   1.265  1.0899  1.8073  0.0840
14648SOL     OW55922  12.591   6.983   3.499 -0.0112 -0.0919  0.0695
14648SOL    HW155923  12.576   6.945   3.586 -1.7881  0.5535  0.0966
14648SOL    HW255924  12.589   7.078   3.513 -0.7916  0.0287 -0.7137
14649SOL     OW55925   0.772   1.519   3.957  0.9102 -0.0182  0.4196
14649SOL    HW155926   0.814   1.602   3.933  0.7639 -0.1705 -0.3952
14649SOL    HW255927   0.685   1.544   3.986  0.3347 -0.0010 -1.2513
14650SOL     OW55928   3.313   9.597   1.707 -0.2841  0.0557 -0.0973
14650SOL    HW155929   3.399   9.635   1.690 -0.0078  0.2323  1.5412
14650SOL    HW255930   3.323   9.504   1.685  0.3448  0.0688  0.1241
14651SOL     OW55931   6.613   9.009   8.208  0.0026  0.5213  0.0433
14651SOL    HW155932   6.625   8.959   8.289 -0.9558 -0.9366 -0.6830
14651SOL    HW255933   6.701   9.042   8.187  1.0214 -2.1148 -0.2202
14652SOL     OW55934   0.295   2.868   6.798  0.0676  0.3957  0.1474
14652SOL    HW155935   0.228   2.814   6.839 -0.8474 -0.3555 -2.1742
14652SOL    HW255936   0.377   2.838   6.837 -0.7101 -0.4636  1.1716
14653SOL     OW55937   7.661   6.767   3.140 -0.3344 -0.2390  0.2922
14653SOL    HW155938   7.719   6.801   3.072 -1.0481  0.5708  0.0639
14653SOL    HW255939   7.617   6.693   3.098 -0.8250  0.3025 -0.1670
14654SOL     OW55940  11.574   5.699   9.986 -0.3977  0.0222  0.3008
14654SOL    HW155941  11.542   5.640  10.054  0.7132  0.3094  1.1180
14654SOL    HW255942  11.540   5.785  10.010 -0.6620 -0.0073  0.0373
14655SOL     OW55943   6.083  12.259   3.620  0.5120 -0.5320 -0.3158
14655SOL    HW155944   6.177  12.273   3.609  0.6290 -0.6710  0.4850
14655SOL    HW255945   6.063  12.190   3.556  0.6696  0.4668 -1.4849
14656SOL     OW55946  10.478   4.745   0.042 -0.0712  0.0445  0.1280
14656SOL    HW155947  10.391   4.736   0.080 -0.9628 -0.7325 -1.9194
14656SOL    HW255948  10.525   4.803   0.102 -1.7213 -0.1550  1.7082
14657SOL     OW55949   7.276   8.179  10.413  0.1369 -0.4114 -0.5068
14657SOL    HW155950   7.219   8.136  10.477 -1.1867 -0.3198 -1.5807
14657SOL    HW255951   7.363   8.143  10.430 -0.1151 -0.1422  1.5419
14658SOL     OW55952  11.173   0.214   2.349 -0.7391 -0.5214  0.4390
14658SOL    HW155953  11.095   0.176   2.311 -1.8208  1.1231  0.8916
14658SOL    HW255954  11.181   0.174   2.436 -0.8810 -0.9332  0.2610
14659SOL     OW55955  11.245   4.340  10.741  0.2178  0.1658  0.2956
14659SOL    HW155956  11.243   4.269  10.676  2.5451 -0.9759  1.3401
14659SOL    HW255957  11.157   4.340  10.779  0.1566 -2.3135  0.3431
14660SOL     OW55958  13.266   3.455   7.380 -0.5232 -0.0646 -0.6589
14660SOL    HW155959  13.251   3.438   7.473  0.1683  0.4981 -0.4308
14660SOL    HW255960  13.184   3.491   7.348 -0.2813  1.2475  0.1214
14661SOL     OW55961   9.698   4.089   2.051  0.2563  0.0213  0.3774
14661SOL    HW155962   9.617   4.050   2.084  0.0078  0.0958 -0.1382
14661SOL    HW255963   9.747   4.015   2.014  0.1419  0.0746  0.1196
14662SOL     OW55964   0.946  10.844   7.480 -0.3822  0.0859 -0.4071
14662SOL    HW155965   0.974  10.935   7.484  0.6881 -0.2674  1.6943
14662SOL    HW255966   1.007  10.797   7.537 -2.4718 -1.5044  0.6972
14663SOL     OW55967  12.962   6.553   0.099  0.4704  0.6986 -0.0146
14663SOL    HW155968  12.984   6.461   0.096 -0.1174  0.4667  1.6191
14663SOL    HW255969  12.874   6.558   0.062  1.0761  0.8413 -1.4844
14664SOL     OW55970   5.487   5.733   2.694  0.1504 -0.8201  0.6026
14664SOL    HW155971   5.427   5.759   2.625  1.1258  0.3471  0.1515
14664SOL    HW255972   5.477   5.801   2.761  0.3715 -1.0704  0.8938
14665SOL     OW55973  11.836  12.881  12.873 -0.0025  0.0251  0.1150
14665SOL    HW155974  11.856  12.849  12.960  0.0831 -1.8272 -0.5553
14665SOL    HW255975  11.763  12.942  12.886 -1.0297 -1.4093  1.2971
14666SOL     OW55976   1.849   5.019  11.555 -0.2434  0.3102  0.2904
14666SOL    HW155977   1.945   5.017  11.555 -0.2385  0.5336 -0.0621
14666SOL    HW255978   1.823   4.927  11.565  0.0060  0.1305 -0.6207
14667SOL     OW55979  11.958   7.675   9.264  0.4023 -0.0911 -0.3562
14667SOL    HW155980  11.929   7.631   9.344 -1.3841  1.1872 -0.2544
14667SOL    HW255981  12.054   7.671   9.268  0.3508 -0.2448  1.7147
14668SOL     OW55982  11.355   2.941   4.442  0.4215  0.1298  0.4922
14668SOL    HW155983  11.424   2.927   4.377  1.2726  1.6858  1.0237
14668SOL    HW255984  11.332   2.852   4.470  2.5713 -0.4352  0.6693
14669SOL     OW55985   4.142   4.164   3.670 -0.4543 -0.3035  0.1027
14669SOL    HW155986   4.108   4.084   3.712 -1.9355 -0.2858 -0.9709
14669SOL    HW255987   4.231   4.141   3.645 -0.7769 -1.5827  0.0003
14670SOL     OW55988   1.175   7.839  11.513 -0.1778 -0.0388  0.0596
14670SOL    HW155989   1.108   7.905  11.496 -0.1765 -0.1130 -0.2457
14670SOL    HW255990   1.240   7.852  11.444 -0.9690 -1.3972 -1.0020
14671SOL     OW55991  11.463   5.945   0.020  0.3801  0.1014  0.6222
14671SOL    HW155992  11.455   5.880  -0.050  2.3822 -1.5354  1.8271
14671SOL    HW255993  11.388   5.928   0.077 -1.0619  1.2093 -0.8167
14672SOL     OW55994   5.132   3.116   1.973 -0.2108 -0.0855  0.0236
14672SOL    HW155995   5.085   3.130   1.890 -1.2090 -2.2303  0.1571
14672SOL    HW255996   5.066   3.129   2.041  0.6301  1.7655  0.5470
14673SOL     OW55997   9.874   5.824   8.501 -0.7319  0.3054  0.0696
14673SOL    HW155998   9.886   5.797   8.410  2.4202 -1.0368  0.7388
14673SOL    HW255999   9.846   5.744   8.547  3.2409 -0.7004  1.1120
14674SOL     OW56000   8.477   5.144   7.530 -0.0019  0.2638 -0.6196
14674SOL    HW156001   8.509   5.062   7.494  0.0331  0.3542 -0.7933
14674SOL    HW256002   8.381   5.134   7.531  0.0026  0.2255 -0.6483
14675SOL     OW56003  12.689   8.283  11.159 -0.4044 -0.1844 -0.2263
14675SOL    HW156004  12.608   8.232  11.161 -0.7400  0.3451  1.9065
14675SOL    HW256005  12.759   8.217  11.157 -0.7828 -0.6631 -3.1425
14676SOL     OW56006   8.961  10.772   8.601  0.4321  0.0137  0.5521
14676SOL    HW156007   8.958  10.680   8.628  1.7207  0.1116  1.1210
14676SOL    HW256008   8.933  10.821   8.679  0.5292  0.1381  0.5097
14677SOL     OW56009  11.691   1.915  14.022 -0.3260  1.0025  0.2167
14677SOL    HW156010  11.717   1.827  13.997  0.5944  1.4474 -0.4659
14677SOL    HW256011  11.692   1.914  14.118 -0.4249  0.2444  0.2159
14678SOL     OW56012   4.458   8.308   3.901 -0.0148  0.7135 -0.0436
14678SOL    HW156013   4.515   8.384   3.909  0.6606  0.0513  2.1020
14678SOL    HW256014   4.517   8.236   3.877 -0.0750  0.2120  1.2615
14679SOL     OW56015   8.316   3.347   9.589 -0.1721 -0.6277 -0.3850
14679SOL    HW156016   8.274   3.433   9.583 -0.3191 -0.7389 -1.0023
14679SOL    HW256017   8.348   3.343   9.679 -2.0746 -0.8193  0.3215
14680SOL     OW56018   0.719   0.178   1.715  0.4191 -0.0469  0.4633
14680SOL    HW156019   0.723   0.219   1.801  1.4832 -0.9244  0.8635
14680SOL    HW256020   0.628   0.149   1.706  0.5070 -0.8015  1.7200
14681SOL     OW56021   6.842   3.338   7.566 -0.1285 -0.3694 -0.5326
14681SOL    HW156022   6.910   3.299   7.622  0.6239  0.1894 -1.0257
14681SOL    HW256023   6.889   3.404   7.514 -0.9937 -0.1978 -1.1235
14682SOL     OW56024  13.496  12.083   8.281  0.2534  0.4184  0.2547
14682SOL    HW156025  13.575  12.028   8.280 -0.5244 -0.7849  1.0961
14682SOL    HW256026  13.455  12.067   8.196 -0.0040 -0.4099  0.5167
14683SOL     OW56027  11.794   3.129   4.154 -0.5533  0.1724 -0.1072
14683SOL    HW156028  11.863   3.064   4.142  0.9857  1.8460 -0.6649
14683SOL    HW256029  11.816   3.174   4.235 -0.9057  0.7969 -0.3504
14684SOL     OW56030   4.757   3.966   4.814  0.0312 -0.0637 -0.3584
14684SOL    HW156031   4.670   3.943   4.846  0.7063 -1.3103  0.6625
14684SOL    HW256032   4.741   4.029   4.744 -1.6912 -0.4322 -0.3326
14685SOL     OW56033   4.469   3.313   9.473  0.3833  0.1800  0.0414
14685SOL    HW156034   4.511   3.263   9.543  0.0064 -0.7201 -0.3628
14685SOL    HW256035   4.379   3.283   9.473  0.3538  0.2469 -0.7634
14686SOL     OW56036   5.746   3.644   8.472  0.3577  0.0385 -0.2057
14686SOL    HW156037   5.658   3.658   8.509 -0.5441 -0.6076 -1.9688
14686SOL    HW256038   5.769   3.555   8.499  0.7536  0.4206  0.7577
14687SOL     OW56039  12.309  13.255   0.471  0.5703  0.2436  0.2439
14687SOL    HW156040  12.249  13.235   0.400  0.2515  2.8807 -0.3092
14687SOL    HW256041  12.363  13.327   0.438  1.5858  0.3779  2.0540
14688SOL     OW56042   7.561   6.962  13.081 -0.0934  0.8789 -0.6859
14688SOL    HW156043   7.552   6.968  12.986 -0.1142 -2.8445 -1.0598
14688SOL    HW256044   7.475   6.935  13.111  0.1226  1.2567  0.2928
14689SOL     OW56045   3.721   9.634   6.150 -0.0229 -0.3875  0.2218
14689SOL    HW156046   3.648   9.695   6.154 -0.1039 -0.4719  0.0821
14689SOL    HW256047   3.681   9.550   6.127  0.0626 -0.5368  0.6038
14690SOL     OW56048  13.018   1.138   6.483 -0.1164 -0.3316 -0.2210
14690SOL    HW156049  12.947   1.076   6.464  1.1918 -1.1657 -2.9570
14690SOL    HW256050  13.040   1.176   6.398  2.4083  0.2082  0.5849
14691SOL     OW56051  11.861   1.359   3.302 -0.1213 -0.2491  0.0245
14691SOL    HW156052  11.947   1.354   3.344 -0.3022  0.0448  0.4379
14691SOL    HW256053  11.808   1.293   3.347 -0.6576  0.8695  1.0915
14692SOL     OW56054   8.014   6.090   2.835 -0.1925  0.0386 -0.2588
14692SOL    HW156055   8.009   6.105   2.929 -1.8418  0.8798 -0.4432
14692SOL    HW256056   8.018   5.995   2.826 -0.5820 -0.0743  0.6467
14693SOL     OW56057   7.213   0.168   9.675 -0.1131  0.3995 -0.2518
14693SOL    HW156058   7.283   0.233   9.670 -0.6880  1.0480 -0.1219
14693SOL    HW256059   7.147   0.198   9.612 -0.9794  0.6975  0.7505
14694SOL     OW56060  12.830   6.331   0.970  0.6508 -0.4197  0.0792
14694SOL    HW156061  12.839   6.241   1.000  1.7510 -0.3075  0.1215
14694SOL    HW256062  12.854   6.385   1.046  1.1740 -0.1129 -0.2926
14695SOL     OW56063  11.723   4.212   8.761 -0.4106  0.0981 -0.5127
14695SOL    HW156064  11.728   4.199   8.855 -0.7455  3.6793  0.1077
14695SOL    HW256065  11.787   4.279   8.741 -0.3979 -0.4970 -2.8738
14696SOL     OW56066   8.304  10.818   9.509 -0.6116  0.5883 -0.0127
14696SOL    HW156067   8.217  10.808   9.547 -0.9742 -2.2041 -1.3293
14696SOL    HW256068   8.363  10.813   9.585 -1.5211  0.4249  0.7008
14697SOL     OW56069   8.124   8.816  10.925 -0.3061  0.1406  0.1188
14697SOL    HW156070   8.094   8.894  10.878  0.5555  0.7813  0.6037
14697SOL    HW256071   8.081   8.743  10.880  0.1691  0.7600 -1.4207
14698SOL     OW56072  10.482   6.435  12.928 -0.2710  0.1237  0.7200
14698SOL    HW156073  10.416   6.384  12.975 -0.6747  0.4460  0.5148
14698SOL    HW256074  10.558   6.435  12.986  0.2895 -1.9672  0.0729
14699SOL     OW56075   1.508   1.082  12.411 -0.0041 -0.2452 -0.1001
14699SOL    HW156076   1.453   1.112  12.339  1.0187  0.6706 -0.5290
14699SOL    HW256077   1.453   1.095  12.489 -1.0914 -1.1804 -0.6790
14700SOL     OW56078   2.245  11.669   4.162  0.2030  0.6199  0.0449
14700SOL    HW156079   2.233  11.616   4.241  1.3366  2.4703  1.5450
14700SOL    HW256080   2.244  11.606   4.090  0.8723 -1.3412  1.6754
14701SOL     OW56081  13.161   4.418   2.284 -0.2543 -0.6527 -0.1904
14701SOL    HW156082  13.081   4.464   2.313 -2.1950 -2.0483 -2.9065
14701SOL    HW256083  13.209   4.484   2.235 -1.0660 -0.4584 -0.7488
14702SOL     OW56084  12.700   3.285  12.426  0.4814  0.1354 -0.0257
14702SOL    HW156085  12.611   3.251  12.429 -0.0144  1.3898  0.5511
14702SOL    HW256086  12.751   3.218  12.381 -0.4922 -1.1822  0.7626
14703SOL     OW56087   8.435   2.152  12.389  0.2493  0.5100 -0.8932
14703SOL    HW156088   8.340   2.156  12.391  0.1913 -0.6610 -0.2403
14703SOL    HW256089   8.455   2.085  12.323  0.4828 -1.3984  0.9833
14704SOL     OW56090  10.102   7.001   7.269 -0.5600  0.5063 -0.0704
14704SOL    HW156091  10.178   6.992   7.212 -1.1398 -0.9562 -0.6565
14704SOL    HW256092  10.138   7.024   7.354  0.4640  0.7713 -0.5658
14705SOL     OW56093   2.544   1.997   8.844  0.3564  0.1465  0.1366
14705SOL    HW156094   2.530   2.088   8.819  2.2450  0.7291  0.9882
14705SOL    HW256095   2.618   1.968   8.791  1.0524 -0.2300  1.2638
14706SOL     OW56096   8.808   6.311   8.870  0.5435  0.1803 -0.1816
14706SOL    HW156097   8.793   6.278   8.959 -1.2791 -1.4986 -1.0390
14706SOL    HW256098   8.839   6.401   8.883  0.0837  0.0749  2.1411
14707SOL     OW56099   4.873  12.989  11.379  0.5243 -0.4552 -0.2127
14707SOL    HW156100   4.843  12.915  11.433  0.0603  0.5771  1.0214
14707SOL    HW256101   4.878  13.062  11.441  1.0412  0.5317 -1.3857
14708SOL     OW56102   8.207   9.407  12.802  0.0200 -0.0496 -0.1909
14708SOL    HW156103   8.220   9.320  12.765 -0.4517 -0.4701  0.6234
14708SOL    HW256104   8.123   9.436  12.765  0.4002  0.2525 -0.8239
14709SOL     OW56105   5.603   2.541   6.447 -0.1406 -0.2549  0.2701
14709SOL    HW156106   5.632   2.600   6.516  1.0456  1.5573 -1.6640
14709SOL    HW256107   5.675   2.479   6.437  0.0632  0.0017  0.1178
14710SOL     OW56108   3.764  10.890   2.257 -0.3070 -0.4935  0.6231
14710SOL    HW156109   3.759  10.902   2.163 -0.7939  2.0761  0.9091
14710SOL    HW256110   3.814  10.809   2.269 -1.5798 -1.7557 -1.8165
14711SOL     OW56111   6.336   0.959   3.718 -1.2102  0.1088 -0.4263
14711SOL    HW156112   6.318   0.872   3.682 -1.1403 -0.5786  1.1400
14711SOL    HW256113   6.329   1.017   3.642 -0.8540 -1.2926 -1.5958
14712SOL     OW56114   7.079   4.109  12.413 -0.4397 -0.1245 -1.0919
14712SOL    HW156115   7.142   4.038  12.399  0.5197  0.2782  0.8593
14712SOL    HW256116   7.123   4.187  12.380  0.7880  0.3994  1.5001
14713SOL     OW56117  13.065   7.908   7.917 -0.1247  0.0401 -0.2662
14713SOL    HW156118  13.111   7.830   7.886  2.1638  0.6264  1.3333
14713SOL    HW256119  13.088   7.976   7.853 -1.0643 -0.2837 -0.9616
14714SOL     OW56120   6.833   6.640  12.498 -0.3105  0.2557  0.4761
14714SOL    HW156121   6.826   6.646  12.403 -0.1256 -0.5394  0.4048
14714SOL    HW256122   6.832   6.546  12.516 -0.7404  0.4079  1.2907
14715SOL     OW56123  11.922  13.063   9.459 -0.2367 -0.4027  0.1071
14715SOL    HW156124  11.961  12.996   9.402  0.2301 -0.9962  1.1016
14715SOL    HW256125  11.983  13.137   9.453 -0.4602 -0.2663 -0.5558
14716SOL     OW56126   6.608  10.026  13.821 -0.5758 -0.1710  0.3482
14716SOL    HW156127   6.587  10.044  13.912 -1.7494  0.3602 -0.0109
14716SOL    HW256128   6.615  10.113  13.780 -1.8493 -0.4252 -0.4493
14717SOL     OW56129   4.946   0.055  10.225  0.3250 -0.3727  0.1641
14717SOL    HW156130   4.918   0.089  10.140  0.3833 -0.2606  0.1892
14717SOL    HW256131   4.874   0.075  10.284  0.9297  0.9947  0.4932
14718SOL     OW56132  12.543   7.344   2.779 -0.5512  0.4441 -0.0722
14718SOL    HW156133  12.623   7.385   2.813 -0.2389 -1.5275  1.8606
14718SOL    HW256134  12.574   7.283   2.712 -0.0770 -1.7152  1.9730
14719SOL     OW56135   3.413  12.366   5.334  0.4426  0.1895 -0.1572
14719SOL    HW156136   3.391  12.334   5.422 -0.6337 -1.0396 -0.8308
14719SOL    HW256137   3.476  12.302   5.300  2.1373  1.5511  0.2831
14720SOL     OW56138   4.113   7.201  11.424  0.1453  0.0119 -0.3329
14720SOL    HW156139   4.143   7.292  11.432  0.8219 -0.2602  0.3030
14720SOL    HW256140   4.055   7.189  11.499  1.9531 -0.7900  1.0179
14721SOL     OW56141  12.653   4.433  13.513  0.0979  0.1761  0.3100
14721SOL    HW156142  12.712   4.473  13.449  2.9877 -1.5517  1.7266
14721SOL    HW256143  12.636   4.502  13.577  0.1503  0.8311 -0.3653
14722SOL     OW56144  11.474   1.874   8.140  0.1222 -0.2476 -0.5399
14722SOL    HW156145  11.546   1.815   8.117 -0.0952 -1.3896  1.3970
14722SOL    HW256146  11.396   1.833   8.103 -0.1923 -1.9255  1.7515
14723SOL     OW56147  10.490   8.262   8.016  0.0047  0.6564  0.2644
14723SOL    HW156148  10.457   8.249   8.105  0.3981 -1.8447  0.1022
14723SOL    HW256149  10.501   8.174   7.981  0.1086  1.5720 -2.1967
14724SOL     OW56150  12.848  11.626   6.866  0.3758 -0.2980  0.2048
14724SOL    HW156151  12.820  11.659   6.781  0.4183 -0.1343  0.2532
14724SOL    HW256152  12.943  11.623   6.860  0.6600  2.9225  1.3682
14725SOL     OW56153   1.909   4.833   1.397 -0.2446 -0.2328  0.4348
14725SOL    HW156154   1.907   4.786   1.314 -1.2236 -1.1181  0.9445
14725SOL    HW256155   1.834   4.894   1.392 -1.1136 -1.1989  1.1605
14726SOL     OW56156   4.860  11.381  10.821 -0.8886 -0.5511  0.4187
14726SOL    HW156157   4.900  11.301  10.855  0.2622  0.4890  1.6268
14726SOL    HW256158   4.802  11.351  10.751 -0.8289 -2.4729  1.1314
14727SOL     OW56159   1.703   8.470  12.261  0.8135 -0.1249 -0.1033
14727SOL    HW156160   1.650   8.545  12.234  0.0390 -1.0910 -1.3795
14727SOL    HW256161   1.782   8.477  12.208  0.8416 -0.0863 -0.0562
14728SOL     OW56162   9.467   4.728   3.105  0.3538 -0.2378  0.8744
14728SOL    HW156163   9.387   4.755   3.060 -0.2446 -0.3440  1.8267
14728SOL    HW256164   9.497   4.651   3.058 -1.0669 -1.2247  1.4900
14729SOL     OW56165   9.060   3.274   4.524 -0.0569 -0.5547  0.4863
14729SOL    HW156166   9.032   3.346   4.466  1.4264  0.1157  0.5582
14729SOL    HW256167   8.978   3.235   4.554 -0.9923  1.9337  1.4891
14730SOL     OW56168   0.743   3.304   7.792 -0.0920  0.0998  0.0187
14730SOL    HW156169   0.750   3.259   7.877 -1.0234 -2.1400 -0.9967
14730SOL    HW256170   0.830   3.293   7.753 -0.1626 -0.3979 -0.0081
14731SOL     OW56171   7.941   5.663   3.471  0.8382  0.4624  0.3161
14731SOL    HW156172   7.933   5.578   3.426  0.0883  0.9918 -0.5945
14731SOL    HW256173   8.034   5.683   3.467  0.9661 -0.1220  0.1737
14732SOL     OW56174  13.296   9.691  11.279 -0.2334  0.0306  0.0709
14732SOL    HW156175  13.379   9.734  11.258  1.0429 -2.1417  0.3486
14732SOL    HW256176  13.276   9.719  11.368  0.3107  0.4254  0.0763
14733SOL     OW56177   7.872   3.580   6.504  0.6490 -0.4752 -0.2066
14733SOL    HW156178   7.895   3.551   6.592 -1.3776  0.7914  0.8279
14733SOL    HW256179   7.914   3.665   6.495 -2.7391  1.6110  1.4958
14734SOL     OW56180   6.042   8.203  13.025 -0.1959 -0.0871 -0.1835
14734SOL    HW156181   6.056   8.108  13.017  0.8024 -0.0219  0.5644
14734SOL    HW256182   5.972   8.222  12.963 -1.8332 -1.6369  1.0820
14735SOL     OW56183   7.176  10.104   3.865 -0.5586 -0.2669 -0.5968
14735SOL    HW156184   7.194  10.118   3.958  2.8519  0.7293 -1.2828
14735SOL    HW256185   7.240  10.039   3.837 -1.3321 -0.3448 -2.3252
14736SOL     OW56186   7.822   2.192   9.897  0.7025  0.0486 -0.4063
14736SOL    HW156187   7.912   2.176   9.868  1.2955  0.3344  1.1454
14736SOL    HW256188   7.832   2.230   9.984 -0.8843  2.0724 -1.0471
14737SOL     OW56189  11.190   7.899   4.743  0.1951 -0.6239 -0.0236
14737SOL    HW156190  11.230   7.948   4.815 -0.6274  0.5518 -0.3198
14737SOL    HW256191  11.234   7.815   4.743  2.7219  0.6087 -0.3925
14738SOL     OW56192   9.021   8.446   7.541  0.8148 -0.5884 -0.1055
14738SOL    HW156193   9.057   8.383   7.604 -0.9620 -0.0513  1.5588
14738SOL    HW256194   8.947   8.400   7.500  1.1102 -0.4623 -0.7869
14739SOL     OW56195  13.038  11.871  11.109 -0.5947  0.2387 -0.4647
14739SOL    HW156196  13.104  11.810  11.075  0.3672  0.5354  0.7762
14739SOL    HW256197  12.981  11.816  11.164 -0.0368  0.3508  0.2389
14740SOL     OW56198   5.595  11.880   1.817 -0.1757 -0.4612  0.1344
14740SOL    HW156199   5.603  11.974   1.835 -1.5271 -0.4045  0.5081
14740SOL    HW256200   5.632  11.870   1.729  0.2092  0.3761  0.1900
14741SOL     OW56201   0.749   4.795   2.162 -0.0800  0.1627  0.3171
14741SOL    HW156202   0.841   4.809   2.185  0.0096  0.4803 -0.1946
14741SOL    HW256203   0.741   4.834   2.074 -1.0539  1.4855  0.9620
14742SOL     OW56204   4.013  11.430   6.082 -0.3974  0.4685 -0.3716
14742SOL    HW156205   3.982  11.504   6.134 -0.6238  0.6531 -0.7706
14742SOL    HW256206   4.069  11.381   6.143 -0.2473  0.9589 -0.1038
14743SOL     OW56207   4.340   9.922  13.149  0.6267  0.6618  0.1384
14743SOL    HW156208   4.415   9.877  13.187 -1.1507 -1.0938  1.8315
14743SOL    HW256209   4.349   9.909  13.055  1.2574 -1.5848  0.4453
14744SOL     OW56210   0.791   8.851  13.926  0.1534  0.3042  0.4979
14744SOL    HW156211   0.840   8.818  14.000  0.4427 -2.7416 -0.9079
14744SOL    HW256212   0.857   8.874  13.861 -0.1093 -2.4848 -0.8757
14745SOL     OW56213  13.796   1.354   1.981  0.0408  0.2080  0.2763
14745SOL    HW156214  13.718   1.325   2.029  1.0327 -2.5564  0.4238
14745SOL    HW256215  13.798   1.299   1.903  2.1482 -0.2496  0.5997
14746SOL     OW56216  10.856   3.744   0.005 -0.3682 -0.2771  0.1774
14746SOL    HW156217  10.776   3.749   0.059 -0.5403 -0.3023 -0.0741
14746SOL    HW256218  10.856   3.826  -0.044 -0.1708 -0.2201  0.2746
14747SOL     OW56219   7.432   5.232   3.832  0.6497 -0.1367  0.2232
14747SOL    HW156220   7.504   5.271   3.782  0.6200 -1.6572 -1.0687
14747SOL    HW256221   7.353   5.259   3.786  0.2037  2.3535  2.1898
14748SOL     OW56222   9.636   6.311   5.036  0.2511 -0.0348 -0.5526
14748SOL    HW156223   9.632   6.244   4.967 -1.8427 -0.6203  0.0600
14748SOL    HW256224   9.716   6.291   5.084  1.4163 -0.0135 -2.3778
14749SOL     OW56225   3.922   3.484   2.625 -0.6093  0.6724 -0.3772
14749SOL    HW156226   3.914   3.393   2.598 -1.2428  0.7028 -0.2940
14749SOL    HW256227   3.841   3.503   2.672  0.6399  0.4480  2.0663
14750SOL     OW56228   2.077   9.719   4.670  0.0663  0.3817 -0.7032
14750SOL    HW156229   2.049   9.794   4.617  1.1093  1.0987 -0.2747
14750SOL    HW256230   1.996   9.674   4.693 -0.5651  1.2801 -1.1090
14751SOL     OW56231   0.090   0.090   6.048 -0.0683  0.1036  0.2123
14751SOL    HW156232   0.067   0.181   6.028  0.1809  0.0595 -0.3133
14751SOL    HW256233   0.134   0.059   5.968 -1.1618 -0.8373 -0.0465
14752SOL     OW56234  12.734   5.045   8.912 -0.1520 -0.1748  0.0639
14752SOL    HW156235  12.727   4.968   8.969  0.7740 -1.8346 -1.9346
14752SOL    HW256236  12.646   5.056   8.876 -0.4667  0.1872  0.9163
14753SOL     OW56237   1.295   8.170  12.609 -0.2072  0.5121  0.6672
14753SOL    HW156238   1.213   8.124  12.626 -0.0506 -0.3258 -0.6298
14753SOL    HW256239   1.323   8.204  12.694 -0.1334 -2.1578  1.8003
14754SOL     OW56240  12.262   8.501   1.157 -0.6912 -0.1314  0.4512
14754SOL    HW156241  12.322   8.441   1.201  1.6094  1.9662  0.4010
14754SOL    HW256242  12.257   8.468   1.067  1.0465  0.0387  0.2579
14755SOL     OW56243   5.345   8.741  10.288 -0.3026  0.2701  0.4135
14755SOL    HW156244   5.298   8.787  10.358 -2.0796  0.5226 -0.8617
14755SOL    HW256245   5.294   8.662  10.272  0.6082 -0.2550  0.0332
14756SOL     OW56246  12.386   5.406  13.466  0.2718  0.0077  0.3511
14756SOL    HW156247  12.306   5.454  13.446  0.7521  0.5597 -0.2914
14756SOL    HW256248  12.371   5.369  13.553 -0.7434 -0.0425  0.1654
14757SOL     OW56249   3.589  11.827   2.000  0.0351 -0.0934  0.2602
14757SOL    HW156250   3.598  11.741   1.959 -0.2385  0.1710 -0.3699
14757SOL    HW256251   3.602  11.810   2.094 -0.1365 -0.8389  0.1591
14758SOL     OW56252   0.679   8.904   7.579 -0.7358  0.0152 -0.2233
14758SOL    HW156253   0.732   8.900   7.659 -0.7326  0.6657 -0.1932
14758SOL    HW256254   0.660   8.997   7.567 -0.8144 -0.0867 -0.9322
14759SOL     OW56255   5.660   3.476   4.786  0.2493  0.0746 -0.1842
14759SOL    HW156256   5.611   3.544   4.740  0.4642 -0.2163 -0.8529
14759SOL    HW256257   5.645   3.396   4.735  0.5053 -0.2488  0.2401
14760SOL     OW56258  13.464   3.447  11.151 -0.1632  0.1907 -0.1770
14760SOL    HW156259  13.555   3.473  11.137 -0.4209  1.4351  0.3340
14760SOL    HW256260  13.413   3.519  11.116 -0.9677 -0.5841 -0.6299
14761SOL     OW56261  12.085  13.787   3.951 -0.1081 -0.0207 -0.1369
14761SOL    HW156262  12.147  13.736   4.003  0.1044  0.4629  0.0821
14761SOL    HW256263  12.126  13.795   3.865 -0.3250 -0.5602 -0.2991
14762SOL     OW56264   8.068   2.519   1.857 -0.1555 -0.0155  0.2209
14762SOL    HW156265   8.099   2.482   1.774 -1.0422  0.3964 -0.3022
14762SOL    HW256266   8.148   2.530   1.909  0.9731  3.0672 -1.8587
14763SOL     OW56267   0.199   3.642   7.436  0.3921 -0.0839  0.9702
14763SOL    HW156268   0.255   3.669   7.509  1.2819 -1.6047  0.8849
14763SOL    HW256269   0.110   3.647   7.471  0.4984  2.4015  1.0969
14764SOL     OW56270   4.224  13.580   6.700 -0.0480 -0.0315 -0.1106
14764SOL    HW156271   4.163  13.515   6.734 -0.3411 -0.6245 -1.6556
14764SOL    HW256272   4.306  13.532   6.688  0.0608  0.1729 -0.1918
14765SOL     OW56273  10.823   6.892   2.041  0.3267 -0.2864  0.9768
14765SOL    HW156274  10.918   6.886   2.053  0.4572  0.7828  0.6064
14765SOL    HW256275  10.792   6.945   2.114  0.1847  0.3821  0.4421
14766SOL     OW56276   5.187  13.074   5.849 -0.0827 -0.6213 -0.1639
14766SOL    HW156277   5.206  13.161   5.813 -0.3841 -0.6096 -0.3061
14766SOL    HW256278   5.221  13.076   5.938  0.2307 -0.4791 -0.2839
14767SOL     OW56279   4.781  10.636   7.212 -0.3823  0.4859 -0.4318
14767SOL    HW156280   4.780  10.544   7.185  1.6873 -0.5344  2.5192
14767SOL    HW256281   4.691  10.653   7.241 -0.9375 -0.3542 -1.5636
14768SOL     OW56282   4.614   1.309   1.378 -0.0346  0.0018  0.3136
14768SOL    HW156283   4.582   1.394   1.408 -2.9094 -0.6646 -0.5800
14768SOL    HW256284   4.578   1.246   1.439  1.3775 -0.6789  0.4783
14769SOL     OW56285  10.579   8.010   6.010  0.2371  0.1910  0.5530
14769SOL    HW156286  10.608   7.931   5.963  1.7905  1.1272 -0.1666
14769SOL    HW256287  10.655   8.068   6.007 -0.6906  1.5148  1.5457
14770SOL     OW56288   6.926  13.785   6.113  0.4917  0.2380 -0.1520
14770SOL    HW156289   6.966  13.749   6.193 -1.7669 -2.7316 -0.1687
14770SOL    HW256290   6.888  13.868   6.141 -1.3145 -1.2592  2.3566
14771SOL     OW56291   4.541   2.396   8.419  0.4820  0.2035 -0.4837
14771SOL    HW156292   4.576   2.368   8.334  1.3528  1.3636 -0.5350
14771SOL    HW256293   4.571   2.486   8.429 -1.7675  0.9736 -0.0865
14772SOL     OW56294  11.482   8.535   5.844  0.5007 -0.2356  0.2207
14772SOL    HW156295  11.430   8.583   5.908  0.9242 -0.3657  0.6601
14772SOL    HW256296  11.521   8.604   5.789 -2.9600 -0.0959 -2.4794
14773SOL     OW56297  11.877  12.386   6.878 -0.2789 -0.2662  0.1339
14773SOL    HW156298  11.829  12.318   6.830 -0.6262  1.2345 -1.7635
14773SOL    HW256299  11.958  12.398   6.829 -0.4479  1.0359  0.1427
14774SOL     OW56300   9.456   2.723   6.171  0.4305  0.0393 -0.2193
14774SOL    HW156301   9.479   2.689   6.257 -2.7153  0.2721  0.8280
14774SOL    HW256302   9.442   2.645   6.117 -0.9255 -0.2409  0.4922
14775SOL     OW56303  13.795  11.077  13.014 -0.4031 -0.0476 -0.0039
14775SOL    HW156304  13.761  11.069  13.103 -0.8095  0.5787 -0.0977
14775SOL    HW256305  13.830  10.990  12.994 -1.4680 -0.5580  0.2853
14776SOL     OW56306   4.364   2.759  11.339  0.4416  0.2615 -0.3340
14776SOL    HW156307   4.419   2.684  11.362  0.7049 -0.7507 -3.6657
14776SOL    HW256308   4.275   2.732  11.363  0.5972 -0.9628 -1.0454
14777SOL     OW56309   9.562   4.046  12.971 -0.0281 -0.2680  0.6652
14777SOL    HW156310   9.625   3.974  12.974 -1.9986 -2.2410 -1.1781
14777SOL    HW256311   9.580   4.091  12.889 -0.1340  0.0531  0.8131
14778SOL     OW56312   0.673   6.425  11.786 -0.3878 -0.1437  0.2289
14778SOL    HW156313   0.679   6.515  11.756 -3.1173  0.0278 -0.0302
14778SOL    HW256314   0.740   6.378  11.737 -1.1871  1.1223 -2.1956
14779SOL     OW56315   4.218   9.281  10.592 -0.0976 -0.3010  0.2868
14779SOL    HW156316   4.245   9.281  10.500 -0.5371  0.0180  0.1526
14779SOL    HW256317   4.293   9.316  10.640  0.3542 -1.0212  0.1188
14780SOL     OW56318   0.187   0.432  10.854  0.4354  0.5673  0.7719
14780SOL    HW156319   0.210   0.428  10.761  0.4780  0.3251  0.7922
14780SOL    HW256320   0.111   0.373  10.862  1.1500 -0.3317  1.1060
14781SOL     OW56321  11.174  10.228   4.674  0.0930 -0.3706 -0.2529
14781SOL    HW156322  11.104  10.285   4.644  0.5343  1.7772  2.3862
14781SOL    HW256323  11.129  10.150   4.706 -1.0963  0.6929  0.7916
14782SOL     OW56324  12.086  12.367   5.947  0.1549  0.5273  0.4131
14782SOL    HW156325  12.100  12.332   6.035  1.2590 -0.1668 -0.0150
14782SOL    HW256326  12.174  12.383   5.913 -0.2468  0.5822 -0.6486
14783SOL     OW56327   8.394   6.231   7.663  0.8058 -0.6890 -0.1943
14783SOL    HW156328   8.432   6.273   7.740  1.5111 -0.0835 -0.8588
14783SOL    HW256329   8.451   6.156   7.646  0.2305 -1.2491  0.2887
14784SOL     OW56330   6.870  11.404   9.159  0.0447  0.3264 -0.0526
14784SOL    HW156331   6.841  11.373   9.245  0.9037  0.1861  0.1885
14784SOL    HW256332   6.823  11.349   9.097 -1.1959  0.9463  0.2949
14785SOL     OW56333   9.319   4.387   4.312 -0.1032 -0.2957  0.3734
14785SOL    HW156334   9.266   4.341   4.247 -1.2441  0.0339  1.0557
14785SOL    HW256335   9.256   4.420   4.376  0.6827  1.9581  0.0837
14786SOL     OW56336   7.349  12.321   0.892  0.4739 -0.0257  0.3932
14786SOL    HW156337   7.280  12.388   0.890 -0.3265 -0.6808  2.8013
14786SOL    HW256338   7.430  12.371   0.904  0.1904  0.6329 -0.3158
14787SOL     OW56339   8.331   4.897   4.943 -0.0013 -0.3751 -0.3561
14787SOL    HW156340   8.401   4.877   4.881  1.0521 -2.2171  1.3165
14787SOL    HW256341   8.370   4.959   5.004  0.2684 -1.4844  0.6405
14788SOL     OW56342   7.030   6.879   2.604  0.0320  0.0741 -0.2676
14788SOL    HW156343   6.970   6.805   2.592  1.0489 -0.8001 -0.0868
14788SOL    HW256344   7.020   6.931   2.524 -2.0285  0.7760  0.3645
14789SOL     OW56345   8.869  10.174  11.668 -0.4638  0.0705  0.3012
14789SOL    HW156346   8.943  10.178  11.728 -1.3264  0.1476  1.3998
14789SOL    HW256347   8.862  10.263  11.633 -0.4918  0.2503  0.7591
14790SOL     OW56348   1.436   1.725  11.728  0.1788 -0.6537  0.2688
14790SOL    HW156349   1.365   1.739  11.665 -0.7919  0.5641  1.5640
14790SOL    HW256350   1.402   1.657  11.787  0.1473 -0.2123  0.7725
14791SOL     OW56351   2.602   1.505   8.301  0.4908  0.0592  0.7056
14791SOL    HW156352   2.508   1.516   8.316  0.5796 -0.0031  1.3454
14791SOL    HW256353   2.614   1.525   8.208 -0.1255  0.2400  0.6589
14792SOL     OW56354   4.821   2.741   2.600 -0.2125  0.9682 -0.2241
14792SOL    HW156355   4.758   2.669   2.596  2.5428 -1.7337  0.5484
14792SOL    HW256356   4.791   2.796   2.672 -0.6937 -1.3531  1.4807
14793SOL     OW56357   0.988   4.724  10.978 -0.0436 -0.1022 -0.1484
14793SOL    HW156358   0.968   4.743  11.070  0.7835  0.6161 -0.1087
14793SOL    HW256359   0.945   4.794  10.929  2.2143  1.4473 -0.0623
14794SOL     OW56360   5.520   2.523   8.318  0.7451 -0.4066 -0.0718
14794SOL    HW156361   5.460   2.498   8.388  0.3917 -1.0359 -0.5791
14794SOL    HW256362   5.585   2.578   8.360 -1.8666  2.9698 -0.0094
14795SOL     OW56363   0.768   5.337   9.569  0.1788  0.0103  0.4617
14795SOL    HW156364   0.859   5.365   9.580  0.2361 -0.0175  0.0773
14795SOL    HW256365   0.722   5.375   9.643  0.2456  1.1607 -0.0719
14796SOL     OW56366   7.475   9.775   2.284  0.1605  0.0361 -0.4418
14796SOL    HW156367   7.449   9.729   2.364  0.4644 -1.3363 -1.1054
14796SOL    HW256368   7.538   9.717   2.243 -1.0140  0.0660 -2.3806
14797SOL     OW56369  13.977   5.315  11.694  0.5365  0.1032  0.2508
14797SOL    HW156370  13.892   5.286  11.660 -0.2066  2.1449  0.2056
14797SOL    HW256371  13.991   5.401  11.653  1.5450  0.8206  1.9860
14798SOL     OW56372   4.772  13.677   8.397 -0.1739 -0.2700 -0.6821
14798SOL    HW156373   4.683  13.648   8.378 -0.8115  1.8590 -1.1740
14798SOL    HW256374   4.810  13.606   8.449 -2.7173 -0.5277  0.9949
14799SOL     OW56375   1.689   9.363   4.699 -0.0190 -0.1109 -0.0178
14799SOL    HW156376   1.692   9.295   4.633  1.7358  1.8343 -2.1335
14799SOL    HW256377   1.768   9.348   4.752 -0.9602 -1.1432  1.1495
14800SOL     OW56378   3.032  11.470   0.658 -0.1259  0.2632 -0.0898
14800SOL    HW156379   3.106  11.521   0.624 -1.2144  1.7128 -0.3552
14800SOL    HW256380   3.013  11.407   0.588 -0.2370  1.0326 -0.7708
14801SOL     OW56381   2.940   3.479  11.119 -0.1739 -0.1080 -0.3615
14801SOL    HW156382   2.925   3.386  11.103 -1.0238 -0.1451  0.5472
14801SOL    HW256383   2.998   3.507  11.048  0.9551 -1.5643 -0.0586
14802SOL     OW56384   7.164  12.796   9.702  0.0641 -0.2676 -0.2869
14802SOL    HW156385   7.166  12.825   9.611  0.4864 -1.6961 -0.7533
14802SOL    HW256386   7.256  12.790   9.728 -0.0574  0.6765  0.4436
14803SOL     OW56387   2.273   4.402   8.306 -0.8091 -0.4823  0.0160
14803SOL    HW156388   2.333   4.370   8.373 -0.6192  0.0268  0.0942
14803SOL    HW256389   2.202   4.338   8.305  0.9936 -2.6524 -1.9705
14804SOL     OW56390  11.883   7.068   0.467  0.2241  0.0633  0.2273
14804SOL    HW156391  11.889   7.161   0.491  0.4911  0.4989 -1.4324
14804SOL    HW256392  11.819   7.065   0.397  1.8312 -0.6567 -1.2887
14805SOL     OW56393   2.524   6.870   4.181 -0.3271 -0.0579 -1.2103
14805SOL    HW156394   2.534   6.963   4.159 -1.3583  0.1608 -0.7993
14805SOL    HW256395   2.493   6.870   4.271 -0.5076 -0.7963 -1.2681
14806SOL     OW56396  12.424   9.538   7.172  0.2750 -0.1131 -0.1951
14806SOL    HW156397  12.502   9.550   7.226 -1.4863 -0.1131  2.6235
14806SOL    HW256398  12.420   9.444   7.154  0.2829 -0.3170  0.7948
14807SOL     OW56399  13.144   5.831  12.975  0.4936  0.2943  0.6521
14807SOL    HW156400  13.086   5.864  12.906  0.7051 -0.0013  0.3287
14807SOL    HW256401  13.116   5.877  13.054 -2.3637 -2.1596  1.2296
14808SOL     OW56402   7.479  11.463  13.821  0.1073  0.2494 -0.5017
14808SOL    HW156403   7.495  11.382  13.772 -1.9226 -1.1881  1.0427
14808SOL    HW256404   7.405  11.504  13.776  0.6456  0.8978 -0.8233
14809SOL     OW56405   2.868   3.455   9.156 -0.1652 -0.0453 -0.5942
14809SOL    HW156406   2.958   3.427   9.167  0.3532  0.4765 -2.9804
14809SOL    HW256407   2.861   3.534   9.210  0.5947 -0.4263  0.0832
14810SOL     OW56408   5.925   3.289   7.319 -0.6888 -0.3192 -0.3680
14810SOL    HW156409   5.848   3.327   7.277  0.3477  0.3104 -1.7646
14810SOL    HW256410   5.989   3.360   7.320 -0.1836 -0.7524  1.0027
14811SOL     OW56411   5.581   8.969  12.130 -0.4458 -0.2765 -0.4447
14811SOL    HW156412   5.556   8.945  12.219  0.6896  0.8690  0.2228
14811SOL    HW256413   5.672   8.997  12.137 -1.0828  2.4179 -1.4284
14812SOL     OW56414  10.740  11.917  10.695 -0.1152  0.0988  0.1655
14812SOL    HW156415  10.673  11.981  10.671  0.6237  0.7280 -0.2691
14812SOL    HW256416  10.694  11.853  10.749 -1.0408  0.5718 -0.0433
14813SOL     OW56417   8.140   7.954   8.195 -0.2458 -0.3171  0.1485
14813SOL    HW156418   8.151   7.918   8.283 -1.3286 -0.5389  0.2094
14813SOL    HW256419   8.229   7.973   8.165  0.2623 -1.7705  0.6578
14814SOL     OW56420   8.627   7.664   5.732 -0.1995 -0.1893 -0.2507
14814SOL    HW156421   8.565   7.591   5.727  1.2646 -1.6642  1.6818
14814SOL    HW256422   8.590   7.723   5.796 -0.1283 -0.5378  0.1145
14815SOL     OW56423  13.923   7.828   3.933 -0.1752 -0.1666  0.3926
14815SOL    HW156424  13.857   7.845   3.867 -1.3562  0.4545  1.6877
14815SOL    HW256425  13.989   7.775   3.888 -1.4218 -0.5980 -0.9916
14816SOL     OW56426   0.903   4.622   8.073 -0.0387  0.7775 -0.1517
14816SOL    HW156427   0.911   4.631   7.978 -0.3945 -0.1677 -0.2878
14816SOL    HW256428   0.965   4.686   8.109  1.3816 -0.0412 -1.0357
14817SOL     OW56429  12.140   6.433   3.319  0.0721 -0.0752 -0.7222
14817SOL    HW156430  12.215   6.393   3.276  0.3029 -1.1030  0.5836
14817SOL    HW256431  12.063   6.389   3.281  0.3094 -1.6346  0.5003
14818SOL     OW56432   9.231   3.594  11.891 -0.3335 -0.1801 -0.1662
14818SOL    HW156433   9.240   3.505  11.857 -1.3562 -0.9513  1.4620
14818SOL    HW256434   9.152   3.627  11.848 -2.8700 -1.9085  2.7665
14819SOL     OW56435  11.699   7.240   4.912 -0.0389 -0.4362 -0.7666
14819SOL    HW156436  11.737   7.194   4.987 -2.3367 -0.0349  0.7338
14819SOL    HW256437  11.616   7.196   4.896 -0.0588  0.1332 -2.4755
14820SOL     OW56438   4.101   5.144  11.228  0.1024  0.1487 -0.2072
14820SOL    HW156439   4.084   5.232  11.194 -0.3229 -0.4979 -1.7448
14820SOL    HW256440   4.194   5.130  11.212  0.3286  0.5455  0.6592
14821SOL     OW56441  13.429   6.657   7.439 -0.7179 -0.0452  0.1788
14821SOL    HW156442  13.414   6.715   7.364  0.9702 -0.0020 -0.1818
14821SOL    HW256443  13.381   6.577   7.419 -1.2974  0.4327 -0.3524
14822SOL     OW56444  12.310   5.495   5.524 -0.6081 -0.3981  0.6549
14822SOL    HW156445  12.225   5.468   5.490  0.2697 -0.9308 -1.2665
14822SOL    HW256446  12.368   5.421   5.506 -0.2685 -1.3313  4.6208
14823SOL     OW56447  10.808   6.886   8.948  0.0854  0.5219  0.0342
14823SOL    HW156448  10.839   6.814   8.894  0.6395  1.0127 -0.3104
14823SOL    HW256449  10.872   6.892   9.019  0.3172  0.9821 -0.2070
14824SOL     OW56450   0.129   8.464   2.565  0.4300 -0.1247  0.2220
14824SOL    HW156451   0.068   8.536   2.585  0.3523  0.6578 -2.4753
14824SOL    HW256452   0.209   8.509   2.535  1.0626 -1.1851  0.2819
14825SOL     OW56453   6.367   7.928   3.449 -0.0930  0.2215  0.7696
14825SOL    HW156454   6.358   7.833   3.457  1.3658 -0.3293 -2.5298
14825SOL    HW256455   6.394   7.942   3.358 -0.8096  3.8741  0.9683
14826SOL     OW56456   1.750   4.247   9.311 -0.6713  0.0707  0.4958
14826SOL    HW156457   1.671   4.201   9.338  0.1133 -1.0115  1.0183
14826SOL    HW256458   1.812   4.178   9.288  0.2720  0.8782  0.5235
14827SOL     OW56459   3.019   1.684   0.752  0.0468 -0.0402  0.2773
14827SOL    HW156460   3.073   1.697   0.674  2.1387 -0.5699  1.5512
14827SOL    HW256461   3.055   1.745   0.816 -0.9511 -0.3554  1.1483
14828SOL     OW56462  13.185  11.214   0.329  0.0768  0.6438 -0.2100
14828SOL    HW156463  13.107  11.266   0.347  0.7758  1.6143  0.1113
14828SOL    HW256464  13.257  11.277   0.329  0.8261 -0.1745 -0.8583
14829SOL     OW56465   2.494   4.351  10.105  0.1204  0.4930 -0.3924
14829SOL    HW156466   2.441   4.282  10.065 -0.4472 -0.5085  1.9678
14829SOL    HW256467   2.547   4.307  10.171  1.8850  1.9147 -0.7713
14830SOL     OW56468  13.932   4.558   9.606 -0.1265 -0.6035 -0.5093
14830SOL    HW156469  14.025   4.566   9.624 -0.4164 -0.7991  1.2274
14830SOL    HW256470  13.891   4.630   9.654 -0.9297 -0.8760 -0.7602
14831SOL     OW56471   2.789   9.711   5.206  0.2962 -1.0133  0.2911
14831SOL    HW156472   2.873   9.728   5.248  0.4664 -0.2399 -0.3526
14831SOL    HW256473   2.731   9.779   5.240 -0.4420 -2.2540  1.6872
14832SOL     OW56474   4.192   7.039   1.680  0.1903  0.2094  0.0008
14832SOL    HW156475   4.202   6.999   1.766  1.2179  0.9397  0.2422
14832SOL    HW256476   4.225   6.974   1.619 -0.4355 -0.2672  0.1676
14833SOL     OW56477   2.183  12.752   0.158  0.3151 -0.2667 -0.4661
14833SOL    HW156478   2.235  12.788   0.230 -1.2964 -1.6970  1.4992
14833SOL    HW256479   2.109  12.813   0.150  0.1288 -0.4852 -0.4180
14834SOL     OW56480   5.814   9.143   6.019 -0.1943  0.1075 -0.7951
14834SOL    HW156481   5.758   9.211   5.982 -0.9022 -0.5592 -0.9927
14834SOL    HW256482   5.864   9.110   5.945 -0.8165 -0.4788 -0.9687
14835SOL     OW56483   7.281   6.807   6.136 -0.4546  0.3744  0.1598
14835SOL    HW156484   7.229   6.875   6.178  0.1799  0.5744  0.6268
14835SOL    HW256485   7.370   6.820   6.169 -0.0258  0.2699 -0.9165
14836SOL     OW56486   2.636   9.145  12.182  0.1137  0.1247 -0.7580
14836SOL    HW156487   2.730   9.164  12.176  0.1927  0.2063  0.3697
14836SOL    HW256488   2.610   9.183  12.266 -1.2032  1.1834 -1.6138
14837SOL     OW56489   0.175   1.263  10.149 -0.1748  0.2919  0.2218
14837SOL    HW156490   0.204   1.348  10.115 -1.5086  0.2977 -1.0133
14837SOL    HW256491   0.256   1.213  10.161  0.4623  0.6927 -1.9642
14838SOL     OW56492   5.300   1.809   8.528 -0.2205 -0.5120 -0.1202
14838SOL    HW156493   5.274   1.774   8.613  0.4561  0.3798  0.4652
14838SOL    HW256494   5.359   1.881   8.548 -1.8838  1.2762 -1.2483
14839SOL     OW56495   0.247   8.081   6.554 -0.2233  0.4722  0.4247
14839SOL    HW156496   0.279   7.997   6.588 -1.3798  0.4545  1.5741
14839SOL    HW256497   0.178   8.106   6.615 -1.1159  1.4003 -0.9196
14840SOL     OW56498  13.651   3.417   0.559  0.2107 -0.0609  0.6651
14840SOL    HW156499  13.708   3.347   0.528  1.6671  2.1722 -2.2295
14840SOL    HW256500  13.710   3.478   0.603 -1.0875 -0.6795  3.4920
14841SOL     OW56501   0.591   4.117   5.939 -0.4295  0.5761  0.1380
14841SOL    HW156502   0.613   4.049   5.875  0.4698  0.2772  0.7364
14841SOL    HW256503   0.591   4.199   5.889  1.2834  0.4808 -0.0763
14842SOL     OW56504   7.502  13.898  11.290 -0.2652 -0.0732  0.8234
14842SOL    HW156505   7.493  13.806  11.317 -2.6822 -1.0154 -2.4997
14842SOL    HW256506   7.560  13.896  11.215 -0.3618  1.1138  0.7000
14843SOL     OW56507   8.462  10.457   4.019 -0.4356 -0.4386 -0.0396
14843SOL    HW156508   8.522  10.428   3.950 -0.1946 -2.2248  0.8634
14843SOL    HW256509   8.519  10.487   4.089 -0.4616 -2.9383  1.1667
14844SOL     OW56510   7.069  10.622  12.815  0.1902 -0.0602 -0.0576
14844SOL    HW156511   7.067  10.622  12.719  1.0985  0.5603 -0.0888
14844SOL    HW256512   7.054  10.713  12.839 -0.4782 -0.2848  0.4194
14845SOL     OW56513   2.136   9.426   4.423 -0.3339  0.3130 -0.2775
14845SOL    HW156514   2.103   9.507   4.385  0.6948  0.4155 -1.0032
14845SOL    HW256515   2.120   9.360   4.356 -1.6796 -0.2222  0.5342
14846SOL     OW56516   2.613   4.035   2.086 -0.4648 -0.4025 -0.0340
14846SOL    HW156517   2.685   4.087   2.048 -2.0591  1.8855 -0.1725
14846SOL    HW256518   2.632   4.033   2.180 -0.0137 -0.1328 -0.1152
14847SOL     OW56519   0.571   1.240   4.228  0.2552 -1.0863 -0.5334
14847SOL    HW156520   0.628   1.256   4.152 -0.5056 -1.5224 -1.2122
14847SOL    HW256521   0.620   1.180   4.283  1.4138  0.3126  0.0277
14848SOL     OW56522   0.024   8.758  13.043 -0.1047  0.2274  0.5666
14848SOL    HW156523   0.098   8.785  13.098  0.1101  0.2705  0.2562
14848SOL    HW256524   0.059   8.688  12.988 -0.0870  0.7605 -0.1067
14849SOL     OW56525   4.128   6.157  11.979  0.0163 -0.6063  0.0011
14849SOL    HW156526   4.087   6.077  11.947  0.6062 -0.4466 -1.1870
14849SOL    HW256527   4.203   6.127  12.030  1.1302 -0.8123 -1.6848
14850SOL     OW56528  10.120   4.559  10.176 -0.0442 -0.2663  0.2985
14850SOL    HW156529  10.058   4.508  10.229  0.2639 -1.0526 -0.0783
14850SOL    HW256530  10.195   4.501  10.165  1.3911  1.1690  1.9069
14851SOL     OW56531   9.548   3.718   4.387 -0.1451 -0.6396 -0.5776
14851SOL    HW156532   9.617   3.661   4.354  2.1157  1.4548  0.2075
14851SOL    HW256533   9.580   3.746   4.473 -1.7775  0.7552 -0.3805
14852SOL     OW56534   5.379   6.859   2.055 -0.2779  0.0617 -0.2883
14852SOL    HW156535   5.353   6.901   2.137 -0.5163 -0.9709  0.1741
14852SOL    HW256536   5.382   6.931   1.991 -0.0024  0.8947  0.6348
14853SOL     OW56537  13.618   3.317   3.117  0.1910  0.0918 -0.5205
14853SOL    HW156538  13.708   3.335   3.145 -0.5846  2.5834  0.5713
14853SOL    HW256539  13.626   3.236   3.066  2.8173 -0.5796  0.7389
14854SOL     OW56540   8.823  13.644   6.556 -0.0693  0.0631  0.3397
14854SOL    HW156541   8.825  13.723   6.502  0.5215  0.3721  0.8129
14854SOL    HW256542   8.848  13.574   6.495 -0.0326  0.3173  0.0581
14855SOL     OW56543   1.303  12.348   7.830 -0.3961  0.0410 -0.1609
14855SOL    HW156544   1.213  12.316   7.840 -0.0461 -0.5246  1.3611
14855SOL    HW256545   1.319  12.345   7.735 -1.8269 -0.2317 -0.4189
14856SOL     OW56546   9.029   2.051   8.223  0.5281 -0.5743 -0.5737
14856SOL    HW156547   9.099   1.985   8.215  1.2433  0.0984  0.0220
14856SOL    HW256548   8.978   2.024   8.299  0.1038 -1.0863 -1.0305
14857SOL     OW56549  12.378  11.852   0.274 -0.0318  0.3755 -0.0310
14857SOL    HW156550  12.413  11.937   0.300  0.4219  0.7634 -1.7768
14857SOL    HW256551  12.437  11.822   0.205 -1.0095 -0.7073 -0.4220
14858SOL     OW56552   9.298  10.815   6.261  0.3772  0.4714 -0.0049
14858SOL    HW156553   9.376  10.768   6.231  0.6156 -0.1118  1.4440
14858SOL    HW256554   9.232  10.747   6.273  0.0218  0.8053 -0.0457
14859SOL     OW56555   1.074   7.795   9.546 -0.3973 -0.3448 -0.1499
14859SOL    HW156556   1.036   7.747   9.473 -1.5095 -0.0502  0.2136
14859SOL    HW256557   1.088   7.884   9.513  2.2127 -1.0074 -1.0051
14860SOL     OW56558   6.254   9.565   8.524  0.2738 -0.5579 -0.2152
14860SOL    HW156559   6.322   9.504   8.553 -0.7275 -1.0347  1.2583
14860SOL    HW256560   6.196   9.573   8.600 -0.7008  0.7122 -1.0562
14861SOL     OW56561  13.973   3.670   5.048 -0.5277 -0.4886  0.3984
14861SOL    HW156562  14.062   3.652   5.017  0.3965 -0.5569  2.8720
14861SOL    HW256563  13.970   3.765   5.059 -1.2658 -0.3300 -0.9988
14862SOL     OW56564   3.617   6.247  11.669 -0.1559 -0.4578 -0.1428
14862SOL    HW156565   3.648   6.248  11.760 -2.1879 -1.8479  0.6540
14862SOL    HW256566   3.610   6.339  11.645 -0.8633 -0.0164  1.6140
14863SOL     OW56567  10.136   1.946   2.042 -0.1153 -0.6357 -0.4583
14863SOL    HW156568  10.186   2.010   2.093 -2.4563  1.7220 -0.8944
14863SOL    HW256569  10.178   1.862   2.062  2.0784  0.7721  1.4867
14864SOL     OW56570   4.614   1.845   5.243 -0.7470  0.1448  0.1826
14864SOL    HW156571   4.555   1.794   5.188 -0.2960 -1.1706  0.8668
14864SOL    HW256572   4.676   1.781   5.277  1.4523  1.5625 -0.9463
14865SOL     OW56573  10.515   5.442   6.326 -0.1745 -0.8197  0.3317
14865SOL    HW156574  10.525   5.496   6.247 -0.7015  1.6719  1.8723
14865SOL    HW256575  10.422   5.421   6.329 -0.3277 -0.1183  0.7473
14866SOL     OW56576  12.651   4.617   5.108  0.0703 -0.0659  0.3786
14866SOL    HW156577  12.616   4.562   5.178  1.2110 -0.5229  0.6131
14866SOL    HW256578  12.666   4.556   5.035  2.9822 -0.4813  1.2110
14867SOL     OW56579   0.011   5.765   6.797 -0.4704 -0.4332  0.4886
14867SOL    HW156580  -0.067   5.817   6.775  0.7771  0.1945 -3.1209
14867SOL    HW256581  -0.023   5.675   6.806 -1.8174  0.0551  0.5578
14868SOL     OW56582  11.533  10.792   9.642 -0.6488  0.8164 -0.4375
14868SOL    HW156583  11.551  10.773   9.550 -1.3970  0.2305 -0.4718
14868SOL    HW256584  11.544  10.886   9.650 -1.0871  0.9447 -1.2451
14869SOL     OW56585   1.056  13.184  12.438  0.4340  0.2647 -0.3664
14869SOL    HW156586   1.109  13.116  12.398 -0.4434 -0.1007 -0.9291
14869SOL    HW256587   1.090  13.191  12.528  0.6253 -0.7990 -0.3471
14870SOL     OW56588  10.516   2.115  11.940  0.4053  0.2349 -0.1150
14870SOL    HW156589  10.548   2.025  11.950  0.3187  0.3114  0.9542
14870SOL    HW256590  10.476   2.135  12.025 -0.0309  1.1054 -0.5225
14871SOL     OW56591  10.746   5.756   8.439 -0.4941  0.0282  0.3110
14871SOL    HW156592  10.653   5.741   8.423 -0.3655 -0.0990 -0.3888
14871SOL    HW256593  10.757   5.850   8.426 -0.6867  0.1908  1.3010
14872SOL     OW56594  10.311   6.938   0.440 -0.1388 -0.0299 -0.0688
14872SOL    HW156595  10.389   6.973   0.483  0.5642  0.4424 -1.6360
14872SOL    HW256596  10.239   6.958   0.500  0.6933  1.2054  0.5558
14873SOL     OW56597   7.199   7.630   7.994 -0.1023 -0.3566 -0.0282
14873SOL    HW156598   7.124   7.660   7.943  0.5806  0.6913 -0.4568
14873SOL    HW256599   7.210   7.538   7.970 -1.0038 -0.4119 -0.2488
14874SOL     OW56600   1.231  10.380   7.163 -0.3379  0.3324 -0.6018
14874SOL    HW156601   1.192  10.380   7.075 -0.8283  1.6001 -0.4101
14874SOL    HW256602   1.288  10.457   7.164  0.9642 -0.6096 -0.3403
14875SOL     OW56603   7.218   5.465   1.859 -0.2119  0.2928  0.2794
14875SOL    HW156604   7.149   5.428   1.915 -1.4987  0.9787 -0.7867
14875SOL    HW256605   7.201   5.428   1.772  0.1576  1.2163 -0.2013
14876SOL     OW56606   8.564  12.931  10.831  0.0666 -0.0180 -0.2145
14876SOL    HW156607   8.580  12.992  10.759  0.0793 -0.4174 -0.5523
14876SOL    HW256608   8.470  12.936  10.847 -0.5834 -2.4754 -2.5947
14877SOL     OW56609   3.705   1.273   6.455 -0.4799  0.5713 -0.0844
14877SOL    HW156610   3.637   1.206   6.448  0.9795 -1.1454  1.1121
14877SOL    HW256611   3.671   1.336   6.519 -0.6965 -0.6372  1.0313
14878SOL     OW56612   8.554   7.293   9.827 -0.0448 -0.0664 -0.0689
14878SOL    HW156613   8.576   7.372   9.778  0.8810 -0.2384  0.0449
14878SOL    HW256614   8.638   7.263   9.863 -0.5971 -0.3123  1.0738
14879SOL     OW56615  12.269   1.582   9.567 -0.2010  0.2457 -0.2581
14879SOL    HW156616  12.333   1.649   9.591  1.4139 -1.8160  1.6993
14879SOL    HW256617  12.216   1.570   9.646 -1.7591  0.5368 -1.2227
14880SOL     OW56618   7.391  13.725  12.389  0.4962 -0.5574 -0.6428
14880SOL    HW156619   7.432  13.639  12.396 -2.8197 -2.7530 -4.2129
14880SOL    HW256620   7.298  13.709  12.403 -0.3331  2.3002 -2.0486
14881SOL     OW56621   0.804   1.120   3.031 -0.6357 -0.5880 -0.7237
14881SOL    HW156622   0.829   1.040   3.078 -1.7293 -0.9434 -0.7192
14881SOL    HW256623   0.781   1.090   2.944 -1.5935 -0.3611 -0.5515
14882SOL     OW56624   2.154   8.089   7.801  0.4982 -0.0984  0.0186
14882SOL    HW156625   2.202   8.041   7.734 -0.2042  1.8161 -1.9671
14882SOL    HW256626   2.140   8.025   7.871  3.4021 -1.4957 -0.5259
14883SOL     OW56627  13.632   6.062   6.193 -0.0376  0.0618 -0.3524
14883SOL    HW156628  13.722   6.029   6.192 -0.5376 -1.4167  1.0277
14883SOL    HW256629  13.615   6.085   6.101  2.0801  1.4235 -0.4921
14884SOL     OW56630   0.000   3.189  11.258 -0.5397  0.5635  0.5629
14884SOL    HW156631  -0.042   3.229  11.335 -0.6775  0.4966  0.5226
14884SOL    HW256632   0.088   3.228  11.256 -0.7080  0.9445  0.4603
14885SOL     OW56633  12.417  13.705   8.852  0.0735 -0.3667  0.1731
14885SOL    HW156634  12.456  13.633   8.804 -1.2416  0.0860 -1.6752
14885SOL    HW256635  12.477  13.779   8.838  0.0286 -0.4063 -0.2395
14886SOL     OW56636  13.299  10.041   1.447  0.3941  0.0008 -0.5163
14886SOL    HW156637  13.280   9.958   1.490 -0.3087 -0.1692 -1.1450
14886SOL    HW256638  13.219  10.062   1.399  1.5599 -0.4159 -2.7548
14887SOL     OW56639   5.158   0.448   2.916  0.2606  0.3595 -0.3510
14887SOL    HW156640   5.069   0.476   2.937  0.3193 -0.5949  1.3848
14887SOL    HW256641   5.150   0.354   2.898  0.9437  0.2163  0.0573
14888SOL     OW56642   1.217   5.207   8.556 -0.1693  0.3723 -1.0765
14888SOL    HW156643   1.305   5.220   8.592 -0.5947 -0.9588  0.5717
14888SOL    HW256644   1.181   5.296   8.549  0.4835  0.7911  0.4163
14889SOL     OW56645   3.821   3.196   6.529  0.2199  0.1231  0.4122
14889SOL    HW156646   3.780   3.204   6.443 -1.2176 -1.1019  0.9260
14889SOL    HW256647   3.906   3.239   6.520 -0.2115  0.6733 -1.3910
14890SOL     OW56648   6.810   3.560   1.430  0.1392  0.3020 -0.2790
14890SOL    HW156649   6.890   3.511   1.409  1.2947  2.8243 -2.3019
14890SOL    HW256650   6.756   3.498   1.478  2.0325 -2.5052 -1.5096
14891SOL     OW56651   6.423   3.784   4.618  0.1330 -0.3395 -0.0146
14891SOL    HW156652   6.481   3.860   4.610  1.7607 -1.5906 -0.6850
14891SOL    HW256653   6.351   3.803   4.558 -0.4232  1.4297  1.1355
14892SOL     OW56654   0.411   5.489   3.896  0.1429  0.3238 -0.0408
14892SOL    HW156655   0.355   5.502   3.820  1.0356  1.5082 -0.5235
14892SOL    HW256656   0.350   5.478   3.969 -0.7172  0.6129 -0.6966
14893SOL     OW56657   5.106  13.029  11.686 -0.1480  0.1576 -0.0161
14893SOL    HW156658   5.155  13.083  11.747 -1.3320 -0.1192  1.2297
14893SOL    HW256659   5.029  13.001  11.736 -1.3524  0.2341 -1.7649
14894SOL     OW56660   8.230   0.619   4.483  0.1382  0.0844  0.1890
14894SOL    HW156661   8.195   0.691   4.430  0.4310 -0.8181 -1.2998
14894SOL    HW256662   8.293   0.576   4.425  0.7752 -0.7194  1.4318
14895SOL     OW56663   0.713  10.530  12.947 -0.4470  0.0208 -0.0948
14895SOL    HW156664   0.756  10.601  12.899  0.0222 -0.5638 -0.5501
14895SOL    HW256665   0.629  10.518  12.903 -0.9154  0.8645  0.5222
14896SOL     OW56666  13.344   4.037  10.216 -0.0145  0.2525 -0.0625
14896SOL    HW156667  13.272   4.055  10.156  1.1854  2.0829 -1.0820
14896SOL    HW256668  13.422   4.071  10.171  0.8407  2.7190  2.8653
14897SOL     OW56669   5.806  12.656   8.321  0.4145 -0.1142  0.1392
14897SOL    HW156670   5.899  12.639   8.306  0.7165  1.4898  0.0007
14897SOL    HW256671   5.767  12.652   8.233  0.5495  0.2522  0.0601
14898SOL     OW56672  12.534   6.210   4.606  0.7752  0.5253  0.0674
14898SOL    HW156673  12.451   6.244   4.639 -0.1396 -0.4038 -1.1880
14898SOL    HW256674  12.546   6.255   4.522  0.8168 -0.4029 -0.4268
14899SOL     OW56675   1.837  10.441  12.679  0.0308 -0.1388  0.3982
14899SOL    HW156676   1.887  10.520  12.698 -0.9741  0.9925 -1.3166
14899SOL    HW256677   1.783  10.427  12.757  2.4980 -1.0652  2.0427
14900SOL     OW56678   8.554   4.563  10.602 -0.2303 -0.2493  0.0170
14900SOL    HW156679   8.497   4.552  10.526  0.4838 -0.5076 -0.4908
14900SOL    HW256680   8.613   4.634  10.578  0.1620 -0.4987  0.2262
14901SOL     OW56681  12.579   6.404   2.295 -0.3909  0.0416 -0.1265
14901SOL    HW156682  12.620   6.378   2.377  0.9825  1.2373 -0.3894
14901SOL    HW256683  12.486   6.389   2.309  0.0426 -2.2334  0.7012
14902SOL     OW56684   3.840  13.621   9.742  0.2804  0.1589  0.2825
14902SOL    HW156685   3.837  13.671   9.824 -0.9320 -0.2529  0.5035
14902SOL    HW256686   3.879  13.537   9.767 -0.8662 -0.2908  0.6421
14903SOL     OW56687  10.796   5.278   1.226 -0.3536 -0.6182  0.1876
14903SOL    HW156688  10.808   5.195   1.272 -1.6343 -0.4587  0.8554
14903SOL    HW256689  10.832   5.263   1.139 -0.4709 -1.8360  0.3353
14904SOL     OW56690   4.416   6.709   7.897 -0.7943 -0.2831 -0.4104
14904SOL    HW156691   4.389   6.639   7.956  1.8604 -0.3206  0.9023
14904SOL    HW256692   4.481   6.668   7.839 -1.7844  0.2894 -1.9839
14905SOL     OW56693   5.359   1.646   1.688 -0.4372  0.5591 -0.4415
14905SOL    HW156694   5.338   1.664   1.597 -1.6266 -1.6010 -0.6557
14905SOL    HW256695   5.376   1.732   1.726 -1.7116  1.6849 -2.2589
14906SOL     OW56696  11.658   1.840  13.626 -0.2228 -0.2502 -0.4917
14906SOL    HW156697  11.669   1.882  13.541 -0.3440  3.0712  0.9836
14906SOL    HW256698  11.745   1.807  13.648  0.2649  0.6665 -1.0197
14907SOL     OW56699  12.275   4.278   7.302  0.2072  0.1992  0.5057
14907SOL    HW156700  12.353   4.333   7.315  0.6738 -0.6151  1.3616
14907SOL    HW256701  12.281   4.248   7.212  2.8667 -2.6644  1.4367
14908SOL     OW56702  10.009  13.069   9.525  0.0365 -0.0826  0.0002
14908SOL    HW156703  10.053  13.151   9.550  0.9455 -0.5891  0.1228
14908SOL    HW256704   9.917  13.083   9.547 -0.1000  1.4609 -1.3586
14909SOL     OW56705   3.138   7.181  11.771  0.5854 -0.2900 -0.3909
14909SOL    HW156706   3.186   7.263  11.761  1.0226 -0.6938 -1.8021
14909SOL    HW256707   3.071   7.200  11.838  1.3427  0.8912  0.0586
14910SOL     OW56708  12.077  12.973   8.677  0.5131 -0.0685  0.5945
14910SOL    HW156709  12.092  12.900   8.738  0.7855 -0.2490  0.3162
14910SOL    HW256710  12.162  13.014   8.668 -0.1292  1.9382  2.8042
14911SOL     OW56711   9.687   8.223   0.506  0.3183 -1.1120 -0.2539
14911SOL    HW156712   9.768   8.195   0.463  1.0294 -0.7710  0.8106
14911SOL    HW256713   9.655   8.144   0.550 -1.0950 -1.7850 -2.3819
14912SOL     OW56714   1.492   5.212   7.709  0.2480 -0.1228 -0.1020
14912SOL    HW156715   1.433   5.171   7.773  0.2153  0.0971  0.0113
14912SOL    HW256716   1.487   5.306   7.730 -0.8272  0.1159 -1.3147
14913SOL     OW56717  12.258   9.094   4.218  0.0563 -0.3196 -0.2332
14913SOL    HW156718  12.331   9.048   4.259 -0.4136 -1.2136 -0.3777
14913SOL    HW256719  12.299   9.161   4.163  0.7161  0.6284  1.3207
14914SOL     OW56720   4.729  10.462  11.813 -0.4272  0.5479  0.1600
14914SOL    HW156721   4.681  10.390  11.773  0.7291 -0.6679  0.8647
14914SOL    HW256722   4.720  10.447  11.907  0.9326  0.5364  0.3083
14915SOL     OW56723   2.190   3.416  12.443  0.4783 -0.4685  0.2012
14915SOL    HW156724   2.103   3.449  12.423  0.6080  0.1242  0.5752
14915SOL    HW256725   2.219   3.469  12.518  1.1267 -0.7053  0.1259
14916SOL     OW56726  10.569   5.149   8.279  0.5481  0.0467  0.3838
14916SOL    HW156727  10.621   5.220   8.317 -1.3439  2.3488 -1.0337
14916SOL    HW256728  10.624   5.116   8.208  1.1885  0.5855  0.6080
14917SOL     OW56729  11.934  12.431   0.721 -0.3438 -0.1069  0.5311
14917SOL    HW156730  11.985  12.417   0.641 -1.9404  0.8625 -0.7140
14917SOL    HW256731  11.861  12.370   0.715 -0.8925  0.5012  0.8690
14918SOL     OW56732   0.751   5.213   2.714  0.3193  0.6203 -0.0157
14918SOL    HW156733   0.814   5.144   2.693  0.1021  0.3687  0.1652
14918SOL    HW256734   0.730   5.200   2.807 -0.4946  0.3017 -0.2382
14919SOL     OW56735  11.580   7.812  12.972  0.1140 -0.1597 -0.6701
14919SOL    HW156736  11.611   7.898  13.002  2.2832 -0.8035 -0.8954
14919SOL    HW256737  11.562   7.763  13.052  0.7814 -0.1311 -0.4985
14920SOL     OW56738   6.645   1.450   5.132  0.3255  0.0152  0.0771
14920SOL    HW156739   6.632   1.513   5.203  1.7384  1.6866 -1.0869
14920SOL    HW256740   6.596   1.486   5.058  1.2221 -0.1906 -0.6303
14921SOL     OW56741   8.821  13.730   8.065 -0.0655 -0.3335 -0.3878
14921SOL    HW156742   8.834  13.755   7.973  0.9741  0.4571 -0.0334
14921SOL    HW256743   8.905  13.695   8.092 -0.0807  0.3405  0.5483
14922SOL     OW56744   4.475   1.402  10.193  0.0507 -0.1244 -0.1050
14922SOL    HW156745   4.518   1.480  10.157 -0.3961 -0.1172 -0.6423
14922SOL    HW256746   4.396   1.435  10.235 -0.2214 -0.2935 -0.4713
14923SOL     OW56747   2.012   8.102  11.729  0.1561 -0.5827  0.6418
14923SOL    HW156748   1.956   8.032  11.762  0.1093 -0.6430  0.4345
14923SOL    HW256749   2.031   8.155  11.806 -2.4216  1.0283  0.2674
14924SOL     OW56750  13.909  11.783   8.956 -0.0465 -0.4377  0.0490
14924SOL    HW156751  13.938  11.803   8.867 -3.1800  0.5849 -0.8898
14924SOL    HW256752  13.909  11.688   8.961 -0.9614 -0.5508 -1.5151
14925SOL     OW56753   5.431   3.257   2.890 -0.1733 -0.4434  0.0419
14925SOL    HW156754   5.378   3.300   2.823  2.8750  1.2740 -1.4544
14925SOL    HW256755   5.410   3.303   2.971 -1.2761 -0.1186 -0.4191
14926SOL     OW56756   3.993  10.795   4.410 -0.4203 -0.0504 -0.3824
14926SOL    HW156757   3.987  10.844   4.328 -0.8423  2.1843  0.9128
14926SOL    HW256758   3.932  10.838   4.469 -0.4041 -1.8437  1.0320
14927SOL     OW56759   0.065   2.204  11.836 -0.0237 -0.4224  0.0698
14927SOL    HW156760   0.139   2.261  11.814  0.9098 -1.6124 -0.0046
14927SOL    HW256761  -0.007   2.264  11.856  0.6024  0.7598 -1.0666
14928SOL     OW56762   1.539   9.751   6.897 -0.3601  0.3410  0.1266
14928SOL    HW156763   1.530   9.705   6.814  1.0544  0.3127 -0.0437
14928SOL    HW256764   1.520   9.843   6.876  0.1925  0.3644 -0.2745
14929SOL     OW56765  13.287   8.378  11.032 -0.0506 -0.0152 -0.2298
14929SOL    HW156766  13.326   8.418  11.110 -0.3269  0.0216 -0.1101
14929SOL    HW256767  13.356   8.321  10.997 -0.4418 -1.2440  0.9213
14930SOL     OW56768   3.736  13.776   1.305  0.5504 -0.5027 -0.4498
14930SOL    HW156769   3.678  13.737   1.238 -0.7467 -1.6280  1.2274
14930SOL    HW256770   3.776  13.700   1.348  1.1294  0.1836  0.2353
14931SOL     OW56771   4.960   6.136   4.778  0.1441 -0.3054  0.8401
14931SOL    HW156772   4.977   6.194   4.704 -0.6663 -0.1092  0.8024
14931SOL    HW256773   5.043   6.134   4.826 -0.3644  2.6872  2.1146
14932SOL     OW56774   8.032   5.844   0.754 -0.3001 -0.0877  0.2123
14932SOL    HW156775   8.018   5.833   0.660  0.3729  0.3842  0.0527
14932SOL    HW256776   7.949   5.879   0.787 -0.5861 -0.3924 -0.1820
14933SOL     OW56777  13.679  12.777   5.562  0.0553  0.4632 -0.4984
14933SOL    HW156778  13.680  12.685   5.589  3.2856  0.5577  0.0719
14933SOL    HW256779  13.736  12.780   5.486  0.5530  2.1049 -0.0993
14934SOL     OW56780   4.734  10.930   1.151  0.3100  0.3515 -0.2394
14934SOL    HW156781   4.771  11.016   1.171  1.0701  0.2884 -1.2832
14934SOL    HW256782   4.788  10.897   1.079 -0.5166 -0.6340 -0.4300
14935SOL     OW56783  13.550  11.367   7.222 -0.5302 -0.3112  0.4954
14935SOL    HW156784  13.569  11.418   7.301 -0.1316 -2.2032  1.6666
14935SOL    HW256785  13.455  11.379   7.208 -0.2969  1.4689  0.1709
14936SOL     OW56786   0.335   7.269   7.391  0.0602  0.3644  0.0290
14936SOL    HW156787   0.383   7.215   7.454  0.8732  1.2359  0.1650
14936SOL    HW256788   0.374   7.247   7.306 -0.5314 -0.2524 -0.0966
14937SOL     OW56789   4.982  12.250   8.988 -0.2504 -0.0775 -0.5596
14937SOL    HW156790   5.047  12.181   9.003 -1.6141 -0.7974  3.3197
14937SOL    HW256791   4.941  12.227   8.905  0.7825 -2.7585 -0.4199
14938SOL     OW56792  11.651  14.019  12.246 -0.2332  0.0825  1.2202
14938SOL    HW156793  11.733  14.055  12.213  0.6416 -0.9177  2.2260
14938SOL    HW256794  11.586  14.042  12.179  0.8546  0.8790  0.4024
14939SOL     OW56795   4.359   2.325   3.830  0.0406 -0.0287 -0.5989
14939SOL    HW156796   4.339   2.384   3.903  0.5881 -0.2092 -0.3005
14939SOL    HW256797   4.277   2.321   3.780 -0.3668  0.0415  0.0430
14940SOL     OW56798   4.022  12.063   0.208 -0.2268  0.1896 -0.6214
14940SOL    HW156799   4.023  12.027   0.297  0.5883  0.5933 -0.4645
14940SOL    HW256800   3.973  11.998   0.157  0.3311 -0.6360 -0.1250
14941SOL     OW56801   9.755  13.501   9.404 -0.0426 -0.1534  0.3312
14941SOL    HW156802   9.705  13.419   9.410  0.6302 -0.5486  0.6456
14941SOL    HW256803   9.737  13.533   9.316 -1.0515 -0.1540  0.5233
14942SOL     OW56804   5.762  11.469   6.556 -0.8046  0.1370 -0.5868
14942SOL    HW156805   5.844  11.482   6.508 -0.3826  1.7896  0.5056
14942SOL    HW256806   5.788  11.427   6.638 -0.9851  0.8721 -0.1376
14943SOL     OW56807   8.446   4.680   1.912  0.0423  0.5089  0.0154
14943SOL    HW156808   8.415   4.590   1.919 -0.5652  0.8018  1.3621
14943SOL    HW256809   8.541   4.671   1.899 -0.0323 -0.3229 -0.0192
14944SOL     OW56810   6.473   0.587  12.829 -0.0052 -0.0500 -0.0084
14944SOL    HW156811   6.431   0.583  12.915 -0.3759  1.0277 -0.1344
14944SOL    HW256812   6.483   0.495  12.803 -0.1930 -0.3747  1.0344
14945SOL     OW56813   1.397   6.759   3.729 -0.3318  0.0998 -0.0679
14945SOL    HW156814   1.463   6.781   3.795 -1.6344  1.0873  0.9728
14945SOL    HW256815   1.445   6.715   3.660  1.8701  2.9577 -0.5229
14946SOL     OW56816   4.711   0.781   1.475 -0.4519 -0.3721 -0.1666
14946SOL    HW156817   4.718   0.860   1.528  1.8605 -0.1848 -0.6864
14946SOL    HW256818   4.667   0.810   1.395 -0.1386  0.2572 -0.1160
14947SOL     OW56819   5.524   6.586   8.458 -1.1201 -0.2011 -0.3804
14947SOL    HW156820   5.542   6.605   8.550  1.0071 -0.2819 -0.7369
14947SOL    HW256821   5.466   6.510   8.460 -2.1995  0.6082  0.8803
14948SOL     OW56822   2.072  12.676  12.037 -0.1535  0.0937 -0.0736
14948SOL    HW156823   2.016  12.727  12.095 -0.1596  0.4153 -0.3550
14948SOL    HW256824   2.038  12.694  11.949  0.6753  0.6791 -0.2889
14949SOL     OW56825   9.274  12.192   2.116 -0.3388  0.0489 -0.3684
14949SOL    HW156826   9.352  12.142   2.091  0.7554  1.1312  0.7187
14949SOL    HW256827   9.216  12.187   2.040  0.9954 -0.4019 -1.3900
14950SOL     OW56828  11.513   0.506   6.491  0.5931 -0.3447 -0.5667
14950SOL    HW156829  11.448   0.516   6.561  1.3571 -0.1427  0.1430
14950SOL    HW256830  11.523   0.412   6.480 -0.9626 -0.3925 -1.7987
14951SOL     OW56831   9.852  11.917   7.480  0.1350  0.5539 -0.0688
14951SOL    HW156832   9.832  11.952   7.567 -0.1868 -0.1828  0.1556
14951SOL    HW256833   9.869  11.995   7.427 -0.7143  1.0717  0.3869
14952SOL     OW56834   6.661   5.237   7.916  0.1735 -0.0236  0.2461
14952SOL    HW156835   6.733   5.180   7.944  1.8091  2.2792  0.9842
14952SOL    HW256836   6.588   5.212   7.973  0.4459 -2.1314 -0.2317
14953SOL     OW56837   5.248   6.215  12.041 -0.1762 -0.4761  0.4755
14953SOL    HW156838   5.191   6.282  12.080  0.9419  0.3236  0.7733
14953SOL    HW256839   5.273   6.252  11.956  2.9591  1.0425  1.8702
14954SOL     OW56840   7.385   8.649   7.470  0.3650  0.6677 -0.0783
14954SOL    HW156841   7.357   8.588   7.539  1.0672  2.8273  2.2875
14954SOL    HW256842   7.459   8.605   7.428 -0.8460 -1.2388 -0.3487
14955SOL     OW56843   5.169   2.358  12.626 -0.0378 -0.1121  0.4460
14955SOL    HW156844   5.202   2.429  12.682 -0.5789 -0.5828  1.3941
14955SOL    HW256845   5.247   2.324  12.582  0.2565  0.9059  0.1629
14956SOL     OW56846   6.961   5.389   9.625 -0.5637 -0.2592  0.7827
14956SOL    HW156847   7.000   5.467   9.586  0.8558 -1.7197 -0.8509
14956SOL    HW256848   6.881   5.421   9.666 -0.4936  1.9056 -0.6001
14957SOL     OW56849   4.940   3.265   3.345 -1.0620  0.3420 -0.0483
14957SOL    HW156850   4.882   3.316   3.402 -0.5017 -0.6946  1.5227
14957SOL    HW256851   4.888   3.189   3.320 -1.6514  1.2807 -1.8016
14958SOL     OW56852  11.083   2.604  12.772  0.7718 -0.2421 -0.2522
14958SOL    HW156853  11.048   2.686  12.807 -0.1911 -1.0688  0.7778
14958SOL    HW256854  11.124   2.629  12.689  0.9808  1.3677  0.2974
14959SOL     OW56855   3.662   1.647   4.648  0.1075  0.2821 -0.2020
14959SOL    HW156856   3.733   1.708   4.666  0.0133  0.5903 -0.8453
14959SOL    HW256857   3.697   1.588   4.581 -0.4108  0.7790 -0.9370
14960SOL     OW56858   9.040   2.776   9.015 -0.0422  0.2186 -0.1756
14960SOL    HW156859   8.952   2.813   9.005 -0.1310  0.1660  0.4095
14960SOL    HW256860   9.087   2.805   8.937 -0.5448  0.3390 -0.4404
14961SOL     OW56861   3.149  12.230   9.551 -0.0404  0.0979  0.1160
14961SOL    HW156862   3.090  12.288   9.598 -0.6089  0.5150 -1.0784
14961SOL    HW256863   3.204  12.288   9.498 -1.1697 -0.4357 -1.7419
14962SOL     OW56864  13.023  12.420   6.250 -0.4093 -0.3422 -0.5186
14962SOL    HW156865  13.067  12.392   6.331  0.9643  0.2770 -1.0235
14962SOL    HW256866  13.065  12.369   6.181 -0.1728  0.5765 -1.0650
14963SOL     OW56867   6.110   8.442   5.652 -0.3146  0.1120  0.1631
14963SOL    HW156868   6.180   8.385   5.621  0.1003  0.4577  0.4538
14963SOL    HW256869   6.047   8.382   5.692  0.4338 -0.0960  1.0676
14964SOL     OW56870   5.371   7.062  12.219 -0.7958  0.3249 -0.4727
14964SOL    HW156871   5.466   7.052  12.207 -1.1105 -0.3557 -2.9250
14964SOL    HW256872   5.361   7.081  12.312  1.7657  0.6915 -0.1874
14965SOL     OW56873   4.085   9.883   5.714  0.2669 -0.0212 -0.2581
14965SOL    HW156874   4.016   9.920   5.769  0.3595  0.2369 -0.3138
14965SOL    HW256875   4.060   9.791   5.703 -0.6878  0.3281 -1.2148
14966SOL     OW56876   7.056  11.107  11.217  0.2884 -0.0953 -0.0411
14966SOL    HW156877   7.118  11.168  11.257  1.0901 -0.1630 -1.1304
14966SOL    HW256878   7.091  11.092  11.129 -0.1775 -1.7274  0.0236
14967SOL     OW56879   5.977   6.040   3.002 -0.4257  0.1890  0.1910
14967SOL    HW156880   6.064   5.998   3.001  0.3280  1.6864  0.2368
14967SOL    HW256881   5.963   6.063   3.094 -0.8531  0.0233  0.1698
14968SOL     OW56882  12.813   7.326   0.026 -0.0046 -0.3475 -0.6974
14968SOL    HW156883  12.820   7.233   0.006  0.3254 -0.0369 -2.1162
14968SOL    HW256884  12.791   7.368  -0.058 -0.0425  0.8627 -0.1117
14969SOL     OW56885   1.346   0.833  10.322 -0.3918 -0.1488  0.1408
14969SOL    HW156886   1.355   0.773  10.248 -0.6105  1.2702 -1.0791
14969SOL    HW256887   1.436   0.853  10.348 -0.3202 -1.0638  0.6095
14970SOL     OW56888  13.043  13.885   9.222 -0.3130  0.3915  0.5904
14970SOL    HW156889  12.973  13.842   9.172  1.2863  0.2880 -1.7382
14970SOL    HW256890  13.048  13.973   9.184  1.4840  0.0508 -0.0602
14971SOL     OW56891  11.876   4.690   5.007 -0.6648  0.2105 -0.8574
14971SOL    HW156892  11.859   4.601   4.976 -1.0403 -0.4671  1.1129
14971SOL    HW256893  11.963   4.710   4.974  0.2664 -1.6911  0.2604
14972SOL     OW56894   7.925  13.912   8.533  0.3375 -0.1461  0.1087
14972SOL    HW156895   8.006  13.951   8.499  0.6734  0.0513  1.1037
14972SOL    HW256896   7.868  13.987   8.549  0.1089 -0.2530 -0.2107
14973SOL     OW56897   1.732   4.549   4.083  0.3157 -0.5142  0.2136
14973SOL    HW156898   1.721   4.570   4.176  0.7993  0.6454  0.0252
14973SOL    HW256899   1.745   4.634   4.041 -1.7087 -0.8185 -1.1922
14974SOL     OW56900  10.964  11.978  13.512 -0.0411  0.4790 -0.4525
14974SOL    HW156901  10.942  12.067  13.539  0.1726  0.9811 -1.9010
14974SOL    HW256902  11.016  11.944  13.585  0.4996  1.7818 -0.1985
14975SOL     OW56903   5.389  13.100   3.004 -0.2278 -0.2244 -0.0900
14975SOL    HW156904   5.461  13.103   2.941  1.3187 -1.1415  1.5545
14975SOL    HW256905   5.342  13.183   2.989  0.4141 -0.1376 -2.0002
14976SOL     OW56906  11.618  10.300   4.911  0.4214 -0.1537  0.1366
14976SOL    HW156907  11.672  10.314   4.834 -0.3149 -1.8919 -0.7556
14976SOL    HW256908  11.581  10.212   4.899 -0.8399  0.0963  1.7742
14977SOL     OW56909   3.487   9.282   4.378 -0.0859  0.5062 -0.2752
14977SOL    HW156910   3.410   9.278   4.321 -0.1837  0.2661 -0.1259
14977SOL    HW256911   3.474   9.361   4.431  0.3999  1.1935 -1.1437
14978SOL     OW56912   4.094  13.977   8.133 -0.1037 -0.3393 -0.2757
14978SOL    HW156913   4.149  13.905   8.104 -0.3064 -0.7252  0.2896
14978SOL    HW256914   4.151  14.030   8.188  0.0160 -0.1169 -0.6085
14979SOL     OW56915   1.035   8.191   5.299  0.1248 -0.1226 -0.0499
14979SOL    HW156916   1.129   8.209   5.309 -0.4827  2.8987  1.3404
14979SOL    HW256917   1.014   8.225   5.212  0.1027  0.4688  0.1794
14980SOL     OW56918   6.891   2.737   4.970 -0.5891 -0.3469  0.2797
14980SOL    HW156919   6.832   2.670   5.003 -0.9624  0.7206  1.8815
14980SOL    HW256920   6.944   2.762   5.045 -0.5960  1.2869 -0.2154
14981SOL     OW56921  11.119   3.520   2.237 -0.1680  0.8453  0.6163
14981SOL    HW156922  11.104   3.434   2.276  0.1426  0.9033  0.8686
14981SOL    HW256923  11.162   3.502   2.154  0.0372  0.7627  0.7406
14982SOL     OW56924   2.393   9.318   4.896 -0.1965 -0.0490  0.2400
14982SOL    HW156925   2.488   9.313   4.904 -0.1909  0.0181  0.2170
14982SOL    HW256926   2.376   9.319   4.802 -0.1126  1.7306  0.2096
14983SOL     OW56927   3.829   5.717   6.457 -0.9155 -0.0867  0.7680
14983SOL    HW156928   3.920   5.713   6.428 -0.9469 -1.0510  0.7812
14983SOL    HW256929   3.810   5.811   6.461  0.1648  0.1413  1.0487
14984SOL     OW56930   8.840  13.852   4.369 -0.5682 -0.2838 -0.3695
14984SOL    HW156931   8.840  13.760   4.343 -1.3017 -0.9286  1.6846
14984SOL    HW256932   8.903  13.856   4.441 -1.0547  0.6809  0.0155
14985SOL     OW56933   6.334   3.157   0.047 -0.1221 -0.2063  0.0249
14985SOL    HW156934   6.263   3.130   0.104  1.2828 -1.4676  1.2689
14985SOL    HW256935   6.405   3.096   0.065  1.1408  0.6907 -1.5135
14986SOL     OW56936   9.310  12.267   7.130 -0.0786  0.4610 -0.3284
14986SOL    HW156937   9.259  12.319   7.068 -1.5945  0.5756  0.9602
14986SOL    HW256938   9.314  12.180   7.091  0.9168  1.0617 -1.6335
14987SOL     OW56939   5.647  11.953   2.631 -0.0741  0.1817 -0.3719
14987SOL    HW156940   5.599  11.879   2.593  1.7142 -1.2284 -0.0512
14987SOL    HW256941   5.679  12.002   2.555  2.4832 -1.9621 -0.8285
14988SOL     OW56942   9.357  13.234   0.974  0.4670 -0.5664  0.0416
14988SOL    HW156943   9.344  13.193   1.060  1.1781 -0.6913  0.0925
14988SOL    HW256944   9.402  13.316   0.992 -2.0522  0.9088  0.0570
14989SOL     OW56945   3.996   7.174   5.088  0.2484  0.3366 -0.4838
14989SOL    HW156946   3.976   7.122   5.010 -1.6340  0.7058 -0.2898
14989SOL    HW256947   3.913   7.179   5.135  1.3176  0.2016  1.5136
14990SOL     OW56948   5.343   2.611  12.689  0.1218 -0.0882 -0.4036
14990SOL    HW156949   5.419   2.560  12.716 -0.2676  0.2244  1.4865
14990SOL    HW256950   5.364   2.644  12.602  1.6458 -0.9420 -0.3839
14991SOL     OW56951   3.373   3.166   0.378 -0.3141  0.2086  0.1020
14991SOL    HW156952   3.374   3.078   0.341  0.8697  0.1145  0.3258
14991SOL    HW256953   3.292   3.204   0.346  0.2602 -0.1512 -1.9236
14992SOL     OW56954  12.370   8.897   4.383  0.0357  0.2507 -0.2092
14992SOL    HW156955  12.398   8.934   4.467 -0.3114  1.7968 -0.7516
14992SOL    HW256956  12.283   8.862   4.401  0.2409 -0.0540  0.2341
14993SOL     OW56957   3.727   1.343  13.024 -0.0843  0.2940 -0.2101
14993SOL    HW156958   3.811   1.324  13.066 -0.0874  0.6281 -0.0489
14993SOL    HW256959   3.691   1.257  13.003 -0.1083  0.1114  0.5321
14994SOL     OW56960   1.785   9.958   3.718 -0.3465 -0.1795 -0.1666
14994SOL    HW156961   1.718  10.013   3.677 -0.8241 -0.1051  0.6819
14994SOL    HW256962   1.856   9.955   3.654 -0.5953  0.8560 -0.5208
14995SOL     OW56963  11.704   2.170  13.853 -0.1598  0.1825  0.2904
14995SOL    HW156964  11.739   2.086  13.885  0.1815 -0.1909 -0.9871
14995SOL    HW256965  11.645   2.199  13.922 -0.0052 -0.9287  0.9259
14996SOL     OW56966   7.325   0.494   7.934  0.2164  0.3061 -0.1228
14996SOL    HW156967   7.381   0.426   7.971 -0.1879  0.1455  0.1894
14996SOL    HW256968   7.273   0.526   8.008 -0.3131  0.2543 -0.4681
14997SOL     OW56969   2.928  13.454   7.691  0.0445  0.9386 -0.4626
14997SOL    HW156970   2.895  13.427   7.605 -1.9699 -1.0709  0.8151
14997SOL    HW256971   2.977  13.378   7.722 -1.0064  0.7967  0.9572
14998SOL     OW56972   8.453  11.651   0.804  0.0701  0.3178 -0.0005
14998SOL    HW156973   8.407  11.704   0.870 -0.4915 -2.2806  1.8407
14998SOL    HW256974   8.532  11.620   0.849 -0.0691 -1.1312 -0.7090
14999SOL     OW56975   4.354   0.183  10.204 -0.4259  0.1648  0.0761
14999SOL    HW156976   4.390   0.155  10.288 -0.2567  0.9345  0.2705
14999SOL    HW256977   4.411   0.143  10.139  0.0217  0.3421  0.3529
15000SOL     OW56978  13.984   3.774   7.993 -0.2847 -0.2629 -0.3023
15000SOL    HW156979  13.949   3.826   7.921 -0.3964 -1.2577 -0.9857
15000SOL    HW256980  13.932   3.799   8.069 -2.1293 -1.3081 -1.1692
15001SOL     OW56981   9.351   1.058   8.184 -0.1853  0.3003 -0.0741
15001SOL    HW156982   9.305   1.043   8.267 -0.2023  1.6465  0.1829
15001SOL    HW256983   9.387   1.147   8.192  1.4845 -0.2678 -0.7329
15002SOL     OW56984   0.223   5.508   5.670 -0.0205  0.3329  0.5311
15002SOL    HW156985   0.288   5.466   5.726  0.3427  0.3275  0.1085
15002SOL    HW256986   0.141   5.462   5.691  0.0160  0.6211  1.3665
15003SOL     OW56987  11.417   4.753  13.624 -0.9175 -0.2819 -0.2476
15003SOL    HW156988  11.361   4.756  13.546  0.0687 -1.2834 -1.0293
15003SOL    HW256989  11.363   4.708  13.689 -1.1820 -0.9122 -0.8756
15004SOL     OW56990   9.712   3.556  12.636  0.6662 -0.5190 -0.2689
15004SOL    HW156991   9.725   3.600  12.720 -0.5732 -0.2171 -0.2108
15004SOL    HW256992   9.619   3.567  12.617  0.7402 -1.3620 -1.2536
15005SOL     OW56993  11.008   0.151  10.758  0.1982 -0.1674 -0.0129
15005SOL    HW156994  11.043   0.190  10.838 -0.1289  0.7770 -0.3108
15005SOL    HW256995  10.935   0.097  10.787  1.0018 -1.0303  0.4654
15006SOL     OW56996  10.358  13.040   4.771  0.1509  0.2028  0.4886
15006SOL    HW156997  10.280  13.036   4.826 -0.8595  0.3833 -0.8964
15006SOL    HW256998  10.408  13.114   4.807 -0.5783  0.4493  1.0290
15007SOL     OW56999  10.165   6.549   6.231 -0.5573 -0.0551  0.3064
15007SOL    HW157000  10.198   6.575   6.317 -0.5955 -0.4545  0.4408
15007SOL    HW257001  10.178   6.455   6.227 -3.3871 -0.6008  1.1618
15008SOL     OW57002   2.702  11.227   5.264 -0.3002 -0.2818  0.3567
15008SOL    HW157003   2.659  11.260   5.343  0.0221  2.0408 -0.3727
15008SOL    HW257004   2.708  11.303   5.206 -0.8026 -1.9615 -2.0581
15009SOL     OW57005   1.575   4.662  10.086  0.4803 -0.3098  0.4033
15009SOL    HW157006   1.659   4.686  10.046 -0.3091  2.5991  0.2395
15009SOL    HW257007   1.528   4.615  10.017  1.5044 -0.9147  0.0966
15010SOL     OW57008   3.170   7.602  12.937  0.1714  0.1423 -0.2973
15010SOL    HW157009   3.160   7.601  13.032  0.7610  0.4807 -0.2287
15010SOL    HW257010   3.132   7.685  12.910  0.6314  0.3563 -0.2849
15011SOL     OW57011   3.259  13.685   0.090  0.6587 -0.0706  0.1381
15011SOL    HW157012   3.213  13.758   0.131 -1.2094 -0.3727 -1.3211
15011SOL    HW257013   3.250  13.613   0.153  0.8093  0.3795  0.6899
15012SOL     OW57014   9.160  11.373   6.777  0.6501  0.0124 -0.4811
15012SOL    HW157015   9.153  11.362   6.682 -0.0324 -1.3986 -0.3097
15012SOL    HW257016   9.109  11.452   6.796  0.7863  0.3021 -1.2828
15013SOL     OW57017   8.198   7.939  10.328 -0.0927 -0.0601 -0.0025
15013SOL    HW157018   8.234   8.027  10.319 -1.5272  0.4803 -0.7630
15013SOL    HW257019   8.246   7.901  10.401  0.2583  1.5058  0.6243
15014SOL     OW57020   1.311  11.737   2.195  0.4881 -0.3069 -0.2674
15014SOL    HW157021   1.220  11.708   2.195  0.3256  0.1968 -0.5080
15014SOL    HW257022   1.310  11.821   2.149  0.2942  2.0314  3.5737
15015SOL     OW57023  13.941   2.153   8.064 -0.6152  0.4281  0.5235
15015SOL    HW157024  13.997   2.085   8.101 -1.4517  0.2292  1.4485
15015SOL    HW257025  13.935   2.219   8.133 -2.1118  0.1042  0.7312
15016SOL     OW57026   9.736  11.280   5.579 -0.1827 -0.0984  0.0714
15016SOL    HW157027   9.671  11.299   5.511  0.6967  2.5814 -0.1472
15016SOL    HW257028   9.694  11.311   5.660  0.1923  0.1346  0.1757
15017SOL     OW57029   7.437   3.605   4.326 -0.5759 -0.4380 -0.4631
15017SOL    HW157030   7.345   3.604   4.351 -0.4532  1.9145  0.3411
15017SOL    HW257031   7.483   3.564   4.400 -0.7942  0.5582  0.2414
15018SOL     OW57032  11.015   9.005   5.441  0.5859 -0.4192 -0.6047
15018SOL    HW157033  11.025   8.931   5.501  1.8906 -1.1415 -1.6580
15018SOL    HW257034  11.029   8.968   5.354 -1.6591  0.5293 -1.4437
15019SOL     OW57035   2.311   2.855  13.773  0.5288 -0.6904 -0.2806
15019SOL    HW157036   2.356   2.771  13.781 -1.3074 -1.9667 -2.1951
15019SOL    HW257037   2.378   2.915  13.742  1.4963 -1.9245 -0.6825
15020SOL     OW57038   3.737   0.619   3.956  0.4837 -0.1866  0.2829
15020SOL    HW157039   3.674   0.657   3.895 -0.3761 -1.2597  0.4599
15020SOL    HW257040   3.719   0.661   4.040 -1.2530 -1.7202  0.7494
15021SOL     OW57041   5.398  12.657   5.572  0.2458 -0.1932  0.1166
15021SOL    HW157042   5.328  12.610   5.529  0.4982 -0.3983 -0.0728
15021SOL    HW257043   5.355  12.707   5.642  0.0771 -1.3530  0.8620
15022SOL     OW57044   2.400   5.162   4.813 -0.6244  0.1077 -0.1097
15022SOL    HW157045   2.494   5.143   4.810 -0.7871 -0.7108 -0.4555
15022SOL    HW257046   2.373   5.163   4.721 -0.8654  0.8483 -0.0362
15023SOL     OW57047  13.699   2.885  12.745 -0.0124 -0.1167 -0.2554
15023SOL    HW157048  13.757   2.811  12.761 -0.0163 -0.6408 -2.3648
15023SOL    HW257049  13.755   2.962  12.752  0.8915 -0.5904 -1.8059
15024SOL     OW57050   0.885   0.708   8.957  0.0622 -0.7486  0.5038
15024SOL    HW157051   0.973   0.711   8.993  0.9085  1.1613 -1.5001
15024SOL    HW257052   0.839   0.779   9.001  0.3015 -0.1419 -0.1992
15025SOL     OW57053  11.012   4.245   0.204  0.2022 -0.0789  0.2726
15025SOL    HW157054  11.051   4.218   0.121 -0.0068 -0.4630  0.2936
15025SOL    HW257055  10.982   4.334   0.189  2.0134  0.6236  0.5747
15026SOL     OW57056   4.316  10.318  12.681 -0.2586 -0.2312  0.3377
15026SOL    HW157057   4.239  10.362  12.644  0.6914  0.2665 -1.1201
15026SOL    HW257058   4.386  10.383  12.673  0.2644 -0.5334  2.0012
15027SOL     OW57059  13.689   1.585   3.013  0.2804  0.4597 -0.6465
15027SOL    HW157060  13.647   1.590   2.927  0.0574  2.1408 -0.4680
15027SOL    HW257061  13.620   1.611   3.075  1.3274  2.6376 -0.2978
15028SOL     OW57062  12.122   0.795   2.607 -0.2194 -0.6330  0.2389
15028SOL    HW157063  12.167   0.732   2.552 -0.3310 -0.3212 -0.2124
15028SOL    HW257064  12.123   0.876   2.557 -0.9243 -0.5204  0.4022
15029SOL     OW57065   7.441  11.203   2.017 -0.1678 -0.0552  0.5615
15029SOL    HW157066   7.503  11.184   1.946  0.9209  0.3052  1.3958
15029SOL    HW257067   7.380  11.267   1.979  2.0087  2.2529  0.7179
15030SOL     OW57068   3.997   1.243  13.090  0.2534  0.4566 -0.0123
15030SOL    HW157069   4.061   1.258  13.021  2.9216 -3.2075  1.3722
15030SOL    HW257070   4.042   1.268  13.171 -0.6716 -0.6660  0.8743
15031SOL     OW57071   7.638  11.991  11.815  0.0876 -0.2517 -0.8177
15031SOL    HW157072   7.583  11.979  11.738 -1.8791 -2.1431  0.7759
15031SOL    HW257073   7.678  11.906  11.830 -2.5414 -1.1356  2.2941
15032SOL     OW57074   4.262  11.647   6.116  0.0670  0.2259  0.8697
15032SOL    HW157075   4.167  11.651   6.128 -0.0379  0.6299 -0.0432
15032SOL    HW257076   4.285  11.558   6.141 -0.4773  0.2763  1.5916
15033SOL     OW57077   6.161  13.273   0.455  0.7326 -0.1434  0.3810
15033SOL    HW157078   6.246  13.248   0.490  1.5930  1.4783 -0.4557
15033SOL    HW257079   6.167  13.367   0.441 -1.6060  0.2262  1.3566
15034SOL     OW57080   9.508   4.708   3.454  0.3109 -0.1471 -0.3387
15034SOL    HW157081   9.427   4.657   3.460 -0.4907  1.1221  0.0169
15034SOL    HW257082   9.570   4.662   3.511 -0.2196 -1.0038 -0.4366
15035SOL     OW57083  11.316  11.771   1.391  0.0165 -0.2492 -0.0028
15035SOL    HW157084  11.265  11.694   1.368 -1.7422  0.8700 -0.0502
15035SOL    HW257085  11.271  11.844   1.348  3.0509  0.5949 -2.1178
15036SOL     OW57086   9.971   4.385   2.164  0.2379 -0.6211  0.8906
15036SOL    HW157087   9.891   4.363   2.115  0.2600  0.3560  0.3912
15036SOL    HW257088  10.038   4.398   2.096  1.3272 -3.2121  1.3599
15037SOL     OW57089  11.838  10.446  12.264 -0.3018 -0.1615 -0.0719
15037SOL    HW157090  11.760  10.501  12.265  0.5282  1.0822  0.1110
15037SOL    HW257091  11.857  10.430  12.357  0.0481  0.1470 -0.0859
15038SOL     OW57092   5.663   3.093   7.536  0.6222  0.0416 -0.4263
15038SOL    HW157093   5.637   3.002   7.550  0.2760  0.4015  1.6322
15038SOL    HW257094   5.754   3.097   7.565  0.2988  0.5464  0.5919
15039SOL     OW57095  11.205   1.873  10.862 -0.6365 -0.2713  0.8327
15039SOL    HW157096  11.175   1.880  10.953  0.9865  0.5818  1.3435
15039SOL    HW257097  11.157   1.942  10.816  0.3005  0.9168  1.5773
15040SOL     OW57098   9.347  13.198   8.969  0.0489  0.7305 -0.1045
15040SOL    HW157099   9.252  13.197   8.980 -0.1662  1.2034 -1.7354
15040SOL    HW257100   9.365  13.275   8.915  1.5619  1.6658  1.6090
15041SOL     OW57101   5.012   9.492   8.882 -0.3782 -0.1558  0.0787
15041SOL    HW157102   5.006   9.423   8.948 -0.8360  1.2361  1.5572
15041SOL    HW257103   4.925   9.496   8.842 -0.1632 -0.8462 -0.4857
15042SOL     OW57104  12.754   2.734   0.952  0.7308  0.7498 -0.3917
15042SOL    HW157105  12.701   2.809   0.976 -0.7811 -0.1364 -0.8321
15042SOL    HW257106  12.718   2.661   1.002  2.1651  0.2924  0.0242
15043SOL     OW57107   7.794   8.581  13.342  0.0770  0.1632 -0.1717
15043SOL    HW157108   7.888   8.572  13.328  0.0742 -1.4747  0.6433
15043SOL    HW257109   7.785   8.618  13.430 -0.0476  1.7260 -0.8099
15044SOL     OW57110   5.578  13.782  11.790  0.1206  0.8906 -0.4954
15044SOL    HW157111   5.580  13.788  11.885  1.2555  1.6191 -0.5536
15044SOL    HW257112   5.500  13.729  11.771  0.3975 -0.0422  0.8645
15045SOL     OW57113   5.751  11.534   7.125  0.4635  0.6913  0.3243
15045SOL    HW157114   5.822  11.511   7.185 -0.5416 -0.2057  1.2059
15045SOL    HW257115   5.712  11.613   7.163  1.4936  1.7244 -0.6414
15046SOL     OW57116  10.380  13.910  12.683 -0.5914  0.5387  0.2627
15046SOL    HW157117  10.287  13.911  12.663 -0.7077 -1.1274  0.6026
15046SOL    HW257118  10.386  13.868  12.769  0.5317 -0.3253 -0.2065
15047SOL     OW57119   1.316   0.236   4.292 -0.2848  0.0721  0.9118
15047SOL    HW157120   1.284   0.310   4.344 -0.0939  0.0896  1.0060
15047SOL    HW257121   1.279   0.250   4.205  0.5790  0.8306  0.6518
15048SOL     OW57122   1.091   4.077  11.726 -0.7056 -0.4833 -0.1652
15048SOL    HW157123   1.146   4.104  11.653 -0.0683  0.2846  0.5736
15048SOL    HW257124   1.140   4.005  11.767 -0.5341 -0.1956  0.1405
15049SOL     OW57125   5.157  10.967   7.919  0.2112 -0.2114  0.0493
15049SOL    HW157126   5.178  11.034   7.854  1.1053  0.9565  1.4769
15049SOL    HW257127   5.237  10.916   7.928 -0.3068 -1.1689 -0.6555
15050SOL     OW57128   9.423   4.417   5.316 -0.4890  0.0770  0.2700
15050SOL    HW157129   9.364   4.363   5.368  0.0614 -1.2930 -0.4779
15050SOL    HW257130   9.459   4.357   5.250  0.6781  1.1884 -0.1491
15051SOL     OW57131   3.043   9.593   8.936 -0.0904 -0.3899 -0.0034
15051SOL    HW157132   3.110   9.527   8.953 -0.3567 -0.4210  1.0037
15051SOL    HW257133   2.975   9.576   9.002  0.1166  1.2451  0.6973
15052SOL     OW57134  13.734   6.576   6.292 -0.0856 -0.1853 -0.1741
15052SOL    HW157135  13.698   6.493   6.261 -1.8066  1.0421 -1.6532
15052SOL    HW257136  13.658   6.634   6.298  1.2218  1.6040 -0.1957
15053SOL     OW57137   6.057  11.384   6.651  0.1358  0.1661 -0.2221
15053SOL    HW157138   6.010  11.425   6.724 -0.9988 -2.0294  0.3661
15053SOL    HW257139   6.102  11.310   6.690 -0.1443 -0.7967 -1.6774
15054SOL     OW57140   1.862   6.133   5.633  0.4660 -0.4332  0.2342
15054SOL    HW157141   1.864   6.132   5.538 -0.0224 -0.4084  0.2169
15054SOL    HW257142   1.787   6.077   5.655  1.2519 -1.3677  0.6361
15055SOL     OW57143   9.137  12.000  12.990 -0.0609  0.8268  0.1328
15055SOL    HW157144   9.199  12.030  13.057 -0.3758  1.8260 -0.0023
15055SOL    HW257145   9.165  11.910  12.970  2.0128  1.5795 -0.6859
15056SOL     OW57146  12.435  12.530  11.868 -0.4573 -0.5271 -0.2304
15056SOL    HW157147  12.510  12.501  11.815  0.3470  0.2735  0.4367
15056SOL    HW257148  12.416  12.456  11.926 -0.7602 -1.0658 -0.9971
15057SOL     OW57149   1.065   3.576  11.832 -0.0413  0.6849  0.3181
15057SOL    HW157150   1.095   3.526  11.756  1.9189  1.9833  0.1513
15057SOL    HW257151   0.970   3.580  11.822  0.1489  0.7261 -2.0242
15058SOL     OW57152   7.586   5.944   9.523  0.0290 -0.0302  0.1515
15058SOL    HW157153   7.625   6.030   9.505  0.0876 -0.2740 -0.9239
15058SOL    HW257154   7.628   5.916   9.605  0.6417  0.5882  0.0606
15059SOL     OW57155  13.359  13.843   9.206 -0.7440  0.0838  0.2783
15059SOL    HW157156  13.441  13.802   9.178 -1.2159 -0.2022 -0.7629
15059SOL    HW257157  13.352  13.922   9.152 -2.0057 -0.8285 -0.9739
15060SOL     OW57158   0.052   3.750   6.977  0.0991  0.2082 -0.4718
15060SOL    HW157159   0.032   3.669   6.930  0.8735 -0.0504 -0.3727
15060SOL    HW257160   0.138   3.735   7.016  1.7222  2.1918 -2.9927
15061SOL     OW57161   6.589   4.021   3.108 -0.5451 -0.0102 -0.5573
15061SOL    HW157162   6.594   3.927   3.094  0.1014 -0.1042  0.2448
15061SOL    HW257163   6.561   4.056   3.023 -1.9452 -1.0078 -0.5566
15062SOL     OW57164   3.930  13.858   8.953  0.0571  0.4314 -0.1679
15062SOL    HW157165   3.898  13.949   8.957 -2.4008 -0.3350 -0.4497
15062SOL    HW257166   3.862  13.812   8.904  0.5055 -1.8489  1.2343
15063SOL     OW57167   2.116   9.597   1.620 -0.3540  0.1745 -0.0056
15063SOL    HW157168   2.099   9.604   1.526 -1.8438 -0.0651  0.2255
15063SOL    HW257169   2.093   9.507   1.643  0.9161 -0.0579  0.4285
15064SOL     OW57170   1.345   8.390   1.117  0.2888  0.2534  0.2434
15064SOL    HW157171   1.441   8.392   1.113  0.2203  1.3399 -2.0366
15064SOL    HW257172   1.318   8.479   1.097 -1.2394 -0.4542 -1.0129
15065SOL     OW57173   7.668   3.573  10.356  0.2944 -0.1480 -0.6376
15065SOL    HW157174   7.730   3.614  10.416 -3.0255  1.9551  1.7592
15065SOL    HW257175   7.648   3.488  10.396 -0.5685  0.4929  0.3596
15066SOL     OW57176   7.348  10.115   7.238 -0.3574 -0.3166 -0.0362
15066SOL    HW157177   7.332  10.060   7.161  0.1717 -0.1223 -0.2947
15066SOL    HW257178   7.264  10.159   7.254 -0.7519 -1.1207  0.1141
15067SOL     OW57179   0.177   0.115  13.851 -0.3244  0.4764 -0.1637
15067SOL    HW157180   0.226   0.188  13.889 -1.8146  1.0740  0.6701
15067SOL    HW257181   0.137   0.071  13.925  0.4974 -1.1808 -0.6679
15068SOL     OW57182   5.092   9.418   5.746 -0.0545  0.2218 -0.5960
15068SOL    HW157183   5.142   9.442   5.824 -1.2029  0.8633 -0.0177
15068SOL    HW257184   5.042   9.497   5.726  0.8561  0.3565 -2.5167
15069SOL     OW57185   0.428  10.985  12.608  0.5972 -0.0193  0.4640
15069SOL    HW157186   0.442  11.024  12.522  0.1763 -0.6626  0.0930
15069SOL    HW257187   0.403  10.894  12.589 -2.0402  0.4766  1.1495
15070SOL     OW57188  11.785   0.889   8.403  0.4746 -0.7748  0.5046
15070SOL    HW157189  11.722   0.827   8.441  0.4169 -0.0507  1.6507
15070SOL    HW257190  11.870   0.859   8.435  0.3497  0.3198  1.9583
15071SOL     OW57191   9.005   1.682   7.844 -0.5164  0.1096  0.3209
15071SOL    HW157192   8.963   1.610   7.796 -0.1239 -0.3466  0.6502
15071SOL    HW257193   9.096   1.683   7.811 -0.4280  0.2337  0.5694
15072SOL     OW57194  13.249  12.128   2.717  0.4020  0.2640  0.0025
15072SOL    HW157195  13.316  12.137   2.784 -0.2241 -0.6644  0.7939
15072SOL    HW257196  13.225  12.035   2.720 -2.7395  0.9839  1.5865
15073SOL     OW57197  10.935   8.793   3.226 -0.0011 -0.0611  0.4294
15073SOL    HW157198  10.918   8.699   3.220  0.3274 -0.0277 -1.3572
15073SOL    HW257199  10.903   8.829   3.144  2.5116  0.9839 -0.1866
15074SOL     OW57200  13.348   0.208  11.479  0.8149 -0.0766 -0.4536
15074SOL    HW157201  13.393   0.142  11.427  1.1064 -0.2911  0.0722
15074SOL    HW257202  13.395   0.290  11.460  1.0545 -0.1922 -0.3578
15075SOL     OW57203   5.625   3.508   9.927  0.3360 -0.5234  0.5466
15075SOL    HW157204   5.574   3.491  10.007 -0.6148 -2.7522 -0.4531
15075SOL    HW257205   5.559   3.525   9.860  1.0971  0.4887  0.0322
15076SOL     OW57206   7.343   9.893  14.033 -0.1457  0.3304 -0.1812
15076SOL    HW157207   7.332   9.948  13.955  2.2535  0.8729 -0.2134
15076SOL    HW257208   7.355   9.955  14.105 -0.2990 -0.1771  0.2911
15077SOL     OW57209   1.249   9.872  10.828  0.0337 -0.0502 -0.0071
15077SOL    HW157210   1.158   9.849  10.810 -0.0999 -0.2765  0.8895
15077SOL    HW257211   1.259   9.857  10.922  0.8590  0.4600 -0.0050
15078SOL     OW57212   5.537   6.752  10.727  0.3976  0.0739  0.6705
15078SOL    HW157213   5.554   6.751  10.822  1.6149  1.4818  0.4981
15078SOL    HW257214   5.552   6.662  10.699  2.3799  0.1177  1.4479
15079SOL     OW57215  10.175   6.619   9.021 -0.0835  0.4676 -0.8665
15079SOL    HW157216  10.249   6.609   8.960  1.3215  0.3462  0.7699
15079SOL    HW257217  10.112   6.553   8.993  1.5041 -1.1484 -0.8719
15080SOL     OW57218  11.109   5.328   4.378  0.3255 -1.1041 -0.9602
15080SOL    HW157219  11.191   5.313   4.426 -0.9933  1.2171  2.4132
15080SOL    HW257220  11.129   5.400   4.318  0.9773 -1.2107 -0.8784
15081SOL     OW57221   0.726   1.335   4.527 -0.2908 -0.0783  0.1354
15081SOL    HW157222   0.787   1.349   4.455 -1.1576 -0.4834 -0.6999
15081SOL    HW257223   0.690   1.248   4.512 -0.3289 -0.2621  1.1931
15082SOL     OW57224  13.855  13.079   1.877  0.2313  0.3154 -0.2691
15082SOL    HW157225  13.762  13.068   1.899  0.1502  1.3539 -0.0547
15082SOL    HW257226  13.898  13.002   1.915 -0.2005  0.9934  1.7101
15083SOL     OW57227   8.007   7.270  10.675  0.7147  0.0742 -0.1295
15083SOL    HW157228   7.921   7.304  10.653  1.1621  1.8606  0.6594
15083SOL    HW257229   8.057   7.347  10.702  2.8204 -0.7864 -1.3233
15084SOL     OW57230   9.741   4.292  10.142 -0.2186 -0.6934  0.0977
15084SOL    HW157231   9.651   4.310  10.114 -0.0127 -0.1345 -0.2037
15084SOL    HW257232   9.730   4.236  10.219 -0.8477 -0.0876  0.4691
15085SOL     OW57233   6.792   4.992   0.392  0.1886 -0.3893  0.3019
15085SOL    HW157234   6.800   4.897   0.399  0.1525 -0.4646 -0.5592
15085SOL    HW257235   6.752   5.019   0.474 -0.6331 -1.2215  0.1855
15086SOL     OW57236   0.957   3.085   5.613 -0.5845  0.0561  0.2231
15086SOL    HW157237   0.897   3.071   5.539 -0.7350  0.2664  0.3051
15086SOL    HW257238   0.900   3.097   5.689 -0.4201 -1.6038  0.6465
15087SOL     OW57239  11.860   7.283  12.083 -0.1851  0.2297 -0.5667
15087SOL    HW157240  11.845   7.246  12.169  3.2594 -0.8150 -0.2920
15087SOL    HW257241  11.876   7.376  12.099  1.2404 -0.1078  0.0691
15088SOL     OW57242  12.792  10.675   5.170 -0.4199 -0.5386 -0.1322
15088SOL    HW157243  12.865  10.721   5.126 -1.0593 -1.0553 -1.8277
15088SOL    HW257244  12.741  10.745   5.210 -0.3166  0.0765 -1.0247
15089SOL     OW57245  10.856   2.936  12.184  0.1921  0.1997 -0.4961
15089SOL    HW157246  10.831   3.022  12.149  2.2580  0.8196 -0.5778
15089SOL    HW257247  10.897   2.891  12.111 -0.8733 -0.8949 -0.4479
15090SOL     OW57248   8.492  12.102  10.116 -0.3897  0.1610  0.3111
15090SOL    HW157249   8.405  12.071  10.139 -0.2197  0.4025  1.3332
15090SOL    HW257250   8.545  12.086  10.194  0.5753 -0.3144 -0.4194
15091SOL     OW57251   0.065   0.789   4.438 -0.2045  0.3863 -0.5030
15091SOL    HW157252   0.062   0.832   4.524 -0.5887 -0.2070 -0.2137
15091SOL    HW257253   0.148   0.740   4.439  0.1937  1.0399 -0.8012
15092SOL     OW57254   0.317   1.200   2.574  0.1242  0.1188  0.0873
15092SOL    HW157255   0.307   1.284   2.619 -0.8733  0.1547 -0.1682
15092SOL    HW257256   0.300   1.219   2.482  1.6220 -0.0552 -0.2494
15093SOL     OW57257   5.756   3.063  13.759  0.3339 -0.4557 -0.1870
15093SOL    HW157258   5.774   3.156  13.749 -0.0913 -0.3306  0.1601
15093SOL    HW257259   5.790   3.041  13.846 -1.2938 -0.1697  0.5632
15094SOL     OW57260   2.243   5.670  10.439  0.0148  0.5951  0.1773
15094SOL    HW157261   2.320   5.613  10.427 -0.9090 -0.7608  0.4367
15094SOL    HW257262   2.228   5.669  10.534 -1.1483 -0.3303  0.0078
15095SOL     OW57263  11.818   7.771   1.509  0.3333  0.1374 -0.2964
15095SOL    HW157264  11.737   7.807   1.546  0.7852 -0.8380  1.7879
15095SOL    HW257265  11.844   7.834   1.442 -0.3813  2.2419  1.2870
15096SOL     OW57266   4.707   1.208   6.646  0.2316  0.1020 -0.1198
15096SOL    HW157267   4.791   1.247   6.670  0.2585 -0.2159  0.3079
15096SOL    HW257268   4.715   1.116   6.670  0.0427 -0.0989 -0.8083
15097SOL     OW57269   8.927   1.926  11.501 -0.2900 -0.0767 -0.0612
15097SOL    HW157270   8.912   1.871  11.578 -0.1354 -0.8347 -0.5660
15097SOL    HW257271   8.906   1.870  11.426  0.3772  0.3835 -0.6109
15098SOL     OW57272   5.321   3.849  11.294  0.2394  0.0162  0.1929
15098SOL    HW157273   5.384   3.778  11.290  0.5711  0.3200 -0.1282
15098SOL    HW257274   5.345   3.906  11.220  0.0036  0.4711  0.4607
15099SOL     OW57275  11.663   4.858  13.060  0.2337 -0.2338  0.0509
15099SOL    HW157276  11.664   4.938  13.007  1.0886  0.6626  1.3593
15099SOL    HW257277  11.633   4.790  13.000 -2.2621  1.3465 -0.6864
15100SOL     OW57278   9.277   3.799   7.506 -0.6063  0.2755  0.1173
15100SOL    HW157279   9.307   3.878   7.550  0.8688 -1.4185  2.3576
15100SOL    HW257280   9.280   3.821   7.413  0.5128  2.5806  0.6224
15101SOL     OW57281  13.110   1.114   3.907 -0.2166  0.1632  0.2638
15101SOL    HW157282  13.174   1.077   3.968 -0.0560 -0.0364 -0.0265
15101SOL    HW257283  13.162   1.142   3.832 -0.1931  1.8508  0.8559
15102SOL     OW57284   5.727   5.813   4.173  0.1086 -0.3388 -0.4588
15102SOL    HW157285   5.709   5.730   4.218  1.0293 -1.0486 -1.3462
15102SOL    HW257286   5.812   5.841   4.208 -0.7262  0.8472  0.6835
15103SOL     OW57287  11.410   3.232  11.046 -0.0619  0.3437  0.1258
15103SOL    HW157288  11.393   3.245  10.952  1.5654  0.2155 -0.2152
15103SOL    HW257289  11.436   3.318  11.078 -2.3071  0.8041  0.9028
15104SOL     OW57290   6.760   4.572   1.028  0.1717  0.0156  0.4436
15104SOL    HW157291   6.698   4.593   0.958  0.2363  1.6941  0.8613
15104SOL    HW257292   6.843   4.611   0.999  0.6851 -0.9464  0.5770
15105SOL     OW57293   5.563   2.934   2.056 -0.0676  0.1382  0.3539
15105SOL    HW157294   5.468   2.936   2.057 -0.0521  1.1856  0.4899
15105SOL    HW257295   5.590   3.022   2.030  0.8459 -0.9721 -3.0103
15106SOL     OW57296   2.078  11.576   3.340  0.1376 -0.0853 -0.3494
15106SOL    HW157297   2.164  11.566   3.380 -1.2780 -0.7102  2.9145
15106SOL    HW257298   2.046  11.486   3.330  0.0084  0.1067 -2.0693
15107SOL     OW57299   1.188   8.080   6.415  0.9523 -0.3370  0.1063
15107SOL    HW157300   1.130   8.073   6.491 -0.2579 -0.5617 -0.8101
15107SOL    HW257301   1.146   8.144   6.359  1.2266 -1.0027 -0.8823
15108SOL     OW57302   3.941  11.837   8.331  0.1239  0.5180 -0.3151
15108SOL    HW157303   3.918  11.802   8.417  1.5689 -0.4093 -0.2794
15108SOL    HW257304   3.862  11.883   8.303 -0.9562 -0.5769  0.7727
15109SOL     OW57305  10.765   2.809   0.492 -0.3673  0.6455  0.5742
15109SOL    HW157306  10.853   2.842   0.479 -0.1388  0.0536  0.5806
15109SOL    HW257307  10.763   2.726   0.445  0.0237 -0.8251  2.9725
15110SOL     OW57308   5.593   1.971   0.711  0.5049 -0.4424 -0.0087
15110SOL    HW157309   5.643   1.890   0.723  0.0264 -0.7401 -0.0019
15110SOL    HW257310   5.572   1.998   0.800  0.4731 -0.4301 -0.0203
15111SOL     OW57311   2.856   5.079  13.092 -0.3196 -0.3762 -0.9079
15111SOL    HW157312   2.781   5.121  13.051 -2.3829 -1.5227  1.3981
15111SOL    HW257313   2.851   4.988  13.063  1.3021 -0.0860 -2.1692
15112SOL     OW57314  10.250  13.676  13.606 -0.2623 -0.1720  0.3817
15112SOL    HW157315  10.291  13.759  13.583  0.0141  0.3380  2.4633
15112SOL    HW257316  10.306  13.641  13.676 -2.6530 -0.0135  2.5315
15113SOL     OW57317  11.685   1.005   7.369  0.0614 -0.2974  0.1004
15113SOL    HW157318  11.760   1.048   7.328 -0.1703  0.1063  0.0906
15113SOL    HW257319  11.615   1.071   7.365 -0.6202 -1.0484 -0.8679
15114SOL     OW57320   9.732   6.158   6.483 -0.4059  0.2718 -0.3075
15114SOL    HW157321   9.710   6.068   6.458  1.2918 -0.1280 -0.4671
15114SOL    HW257322   9.647   6.203   6.484 -1.2691 -1.2528 -0.4684
15115SOL     OW57323   6.253  12.217  12.118 -0.0080  0.7232  0.9668
15115SOL    HW157324   6.201  12.138  12.101  0.4840  0.5373  0.2574
15115SOL    HW257325   6.229  12.277  12.047  0.2427  0.8923  1.0232
15116SOL     OW57326   4.196   8.713   2.408  0.7880  0.3210  0.3465
15116SOL    HW157327   4.186   8.692   2.501  2.2198 -0.4903  0.3437
15116SOL    HW257328   4.106   8.715   2.374  0.2816  0.1589  1.6432
15117SOL     OW57329   8.155   2.680  12.728 -0.3409 -0.8424 -0.1794
15117SOL    HW157330   8.093   2.671  12.801 -0.0522 -0.1174  0.1663
15117SOL    HW257331   8.223   2.615  12.746  0.9642  0.8677  1.5030
15118SOL     OW57332   2.528   0.244  12.063  1.3665  0.5523  0.0703
15118SOL    HW157333   2.507   0.182  11.994 -0.5473  0.8275  0.3423
15118SOL    HW257334   2.528   0.329  12.019 -0.5500  0.8046  0.4773
15119SOL     OW57335  10.561   9.023   1.836  0.2334  0.1361  0.0616
15119SOL    HW157336  10.475   9.023   1.795  0.1342 -0.2036  0.2668
15119SOL    HW257337  10.604   9.101   1.801 -0.4979  0.8319  0.6658
15120SOL     OW57338  10.437   0.482  10.390 -0.3621  0.2214  0.2269
15120SOL    HW157339  10.371   0.448  10.450 -0.8960 -0.8627 -0.9274
15120SOL    HW257340  10.500   0.411  10.380 -1.1465 -0.2932 -1.7080
15121SOL     OW57341   8.727  13.159  12.571  0.3596  0.2644  0.8962
15121SOL    HW157342   8.719  13.100  12.496 -1.0754  1.3141  0.1690
15121SOL    HW257343   8.820  13.161  12.591  0.6441 -0.8129 -0.2241
15122SOL     OW57344  11.768   9.918   2.044 -0.0003 -0.0693  0.5684
15122SOL    HW157345  11.686   9.930   1.995  0.0861  1.0086  0.6631
15122SOL    HW257346  11.816   9.999   2.029  0.7645 -0.4270  1.0674
15123SOL     OW57347   0.248   5.886   3.834 -0.6456 -0.4574 -0.0961
15123SOL    HW157348   0.231   5.825   3.905 -2.2477 -0.3113 -0.3221
15123SOL    HW257349   0.196   5.853   3.761  0.6259 -0.3610 -1.0991
15124SOL     OW57350   0.278  13.768   1.013  0.4137  1.0998  0.2960
15124SOL    HW157351   0.348  13.832   1.028  1.2279  0.2327  0.3355
15124SOL    HW257352   0.291  13.739   0.923 -0.1944  1.2723  0.1491
15125SOL     OW57353   7.190   7.170   3.983  0.2658 -0.6374 -0.1346
15125SOL    HW157354   7.228   7.223   3.912 -1.9243 -0.6557 -1.3894
15125SOL    HW257355   7.143   7.233   4.037  0.1691 -0.9060  0.0962
15126SOL     OW57356  13.282  11.495   1.315 -0.2845 -0.6678 -0.3522
15126SOL    HW157357  13.323  11.578   1.292 -0.3411 -0.1968  1.1022
15126SOL    HW257358  13.344  11.428   1.285  0.8103 -0.0172  0.3619
15127SOL     OW57359   7.205   0.923   0.360 -0.1966 -0.1456  0.8913
15127SOL    HW157360   7.219   0.829   0.370 -1.7344 -0.5221 -0.1994
15127SOL    HW257361   7.110   0.934   0.364 -0.1230  1.2010 -0.2568
15128SOL     OW57362   1.357   2.359  10.045 -0.1851 -0.8424 -0.8814
15128SOL    HW157363   1.424   2.400  10.100 -0.1257  0.1606 -1.6768
15128SOL    HW257364   1.373   2.265  10.054  0.7739 -0.6461 -0.3702
15129SOL     OW57365   4.222  10.909   9.662 -0.3885  0.8755 -0.4420
15129SOL    HW157366   4.171  10.863   9.595  0.0175  2.0583 -1.6092
15129SOL    HW257367   4.221  10.851   9.738 -0.9553 -0.4575 -1.4442
15130SOL     OW57368   1.571   8.108   1.676 -0.0518 -0.0271  0.0304
15130SOL    HW157369   1.551   8.111   1.769 -1.7523  0.7665 -0.3201
15130SOL    HW257370   1.530   8.187   1.640  0.3447 -0.4526 -1.4214
15131SOL     OW57371   8.355   9.623  14.001 -0.0139 -0.0290 -0.2405
15131SOL    HW157372   8.394   9.559  13.942  1.9356 -0.8342  1.7606
15131SOL    HW257373   8.294   9.572  14.055  0.7652 -0.0305  0.6640
15132SOL     OW57374  10.848   2.420   1.390 -0.0084  0.3752 -0.0615
15132SOL    HW157375  10.798   2.339   1.404  0.1189  0.2865 -0.1242
15132SOL    HW257376  10.862   2.423   1.296  1.3128 -0.3189  0.0842
15133SOL     OW57377   5.843   8.940   2.389  0.6840  0.1635 -0.1717
15133SOL    HW157378   5.792   8.954   2.469  0.4708  0.8109 -0.4199
15133SOL    HW257379   5.933   8.930   2.420  0.5391 -0.0568  0.1889
15134SOL     OW57380   9.356   5.270   6.648 -0.4838 -0.4556  0.0880
15134SOL    HW157381   9.354   5.188   6.697 -0.7179 -1.3180 -1.3173
15134SOL    HW257382   9.409   5.251   6.570 -0.8281  0.6249 -0.4399
15135SOL     OW57383   3.107   7.737  13.753 -0.2325 -0.2575  0.9430
15135SOL    HW157384   3.044   7.677  13.712 -0.3431 -1.8053  3.1712
15135SOL    HW257385   3.089   7.822  13.712 -2.1206 -1.1265 -0.2155
15136SOL     OW57386   5.942  12.657  10.328  0.1256  0.0072 -0.2160
15136SOL    HW157387   5.882  12.636  10.256  1.3512 -0.3276 -1.1772
15136SOL    HW257388   5.989  12.575  10.344 -1.5626 -0.5687  2.4612
15137SOL     OW57389  13.283  13.508   6.797 -0.0226  0.2738  0.4741
15137SOL    HW157390  13.196  13.471   6.809  0.1922 -0.4284 -0.0375
15137SOL    HW257391  13.282  13.590   6.846 -1.2324  0.6866 -0.2032
15138SOL     OW57392   3.741  12.154   5.655 -0.8851  0.0755  0.3882
15138SOL    HW157393   3.677  12.086   5.637 -1.0300  0.7289 -1.9268
15138SOL    HW257394   3.697  12.236   5.630 -0.5338  1.0076  2.5998
15139SOL     OW57395   7.408   0.502   0.995  0.1261  0.2755 -0.2299
15139SOL    HW157396   7.403   0.514   0.901 -0.9152 -2.2746 -0.5814
15139SOL    HW257397   7.324   0.532   1.028  0.2600  0.5951 -0.1716
15140SOL     OW57398   2.547   2.876  11.987  0.0271  0.9503 -0.1385
15140SOL    HW157399   2.604   2.875  11.910  0.0748 -1.0452 -0.1209
15140SOL    HW257400   2.520   2.967  11.995  2.6360  1.8495 -0.5511
15141SOL     OW57401   0.061   2.542   5.341 -0.5723 -0.0675 -0.0080
15141SOL    HW157402  -0.002   2.594   5.291 -1.0711 -0.5355  0.1286
15141SOL    HW257403   0.135   2.531   5.282 -1.5625 -1.4912 -1.0714
15142SOL     OW57404   0.174   3.282   8.458  0.4955 -0.5834 -0.4123
15142SOL    HW157405   0.125   3.336   8.396  0.7242 -0.7942 -0.7773
15142SOL    HW257406   0.227   3.224   8.403  0.6484 -0.8170 -0.0213
15143SOL     OW57407   4.678   2.011   1.898 -0.1848  0.2801 -0.5469
15143SOL    HW157408   4.622   2.020   1.975  0.6477  0.9459 -0.0010
15143SOL    HW257409   4.638   1.940   1.847 -1.6558  0.8888 -0.2994
15144SOL     OW57410   5.511   4.974  11.203  0.0013  0.8819 -0.2226
15144SOL    HW157411   5.513   5.043  11.136  1.2313  1.1610  0.0674
15144SOL    HW257412   5.484   5.019  11.283  1.1265  1.1270  0.0419
15145SOL     OW57413   8.540   6.193   8.445  0.1731 -0.0194 -0.4557
15145SOL    HW157414   8.553   6.244   8.526  0.1825  0.9202 -1.0367
15145SOL    HW257415   8.594   6.115   8.458  0.9772  0.5965  0.0341
15146SOL     OW57416   8.684   4.452   4.853  0.1588 -0.1838  0.0165
15146SOL    HW157417   8.770   4.410   4.861 -0.0764 -0.4056  2.1804
15146SOL    HW257418   8.702   4.546   4.865 -0.0049 -0.3644  2.0244
15147SOL     OW57419   9.926   0.484   2.061 -0.2154  0.3277 -0.5426
15147SOL    HW157420   9.918   0.432   1.981 -2.0313  2.5758 -1.9161
15147SOL    HW257421   9.879   0.433   2.127 -0.6172 -0.5004 -1.4450
15148SOL     OW57422   1.381   6.205   3.860 -0.1674 -0.1802 -0.0544
15148SOL    HW157423   1.355   6.297   3.859  0.1119 -0.0782  1.1152
15148SOL    HW257424   1.462   6.202   3.809 -0.4707  0.1201 -0.5604
15149SOL     OW57425   6.321   7.882   8.727  0.6785 -0.3077 -0.8434
15149SOL    HW157426   6.345   7.903   8.637  1.3987  2.3693 -0.1072
15149SOL    HW257427   6.356   7.794   8.741  5.1678  1.0701 -1.6942
15150SOL     OW57428  12.953   1.183  13.399  0.4464 -0.4332  0.0126
15150SOL    HW157429  13.002   1.143  13.471  1.5558  0.3865 -0.2453
15150SOL    HW257430  12.981   1.275  13.400  0.8927 -0.5128 -1.7702
15151SOL     OW57431  13.377   3.323   8.886 -0.1910 -0.3058 -0.7846
15151SOL    HW157432  13.337   3.405   8.916  0.1715  0.1528 -1.5433
15151SOL    HW257433  13.321   3.255   8.924  1.5892  0.0841  3.0830
15152SOL     OW57434   1.076   3.488   4.199  0.4867  0.1441  0.1436
15152SOL    HW157435   1.059   3.420   4.264 -2.2622  1.0390  0.4854
15152SOL    HW257436   1.047   3.569   4.241 -0.8187  0.8234 -1.9379
15153SOL     OW57437   2.534  13.534   2.170  0.1393 -0.3135  0.1889
15153SOL    HW157438   2.488  13.583   2.102  1.1571 -0.4180 -0.6052
15153SOL    HW257439   2.474  13.462   2.193 -0.9333  0.6979  0.6522
15154SOL     OW57440  12.383   6.871   8.895  0.3115  0.2370 -1.0999
15154SOL    HW157441  12.466   6.920   8.894 -0.0054  0.8462  0.2528
15154SOL    HW257442  12.403   6.792   8.946  0.2998 -0.1074 -1.6138
15155SOL     OW57443  10.634   9.242   1.690  0.5698  0.3992 -0.1465
15155SOL    HW157444  10.659   9.239   1.597  0.1061 -1.6920 -0.2432
15155SOL    HW257445  10.554   9.294   1.691 -0.5954 -1.2733 -1.2467
15156SOL     OW57446  13.873  12.382   7.500 -0.3643 -0.1777 -0.7192
15156SOL    HW157447  13.825  12.454   7.542 -1.1523 -0.2286 -1.5002
15156SOL    HW257448  13.907  12.420   7.419  1.3845 -0.0004  0.0702
15157SOL     OW57449  11.863   5.397  13.416  0.2486 -0.2025  0.0078
15157SOL    HW157450  11.892   5.452  13.344  0.9486 -0.9696 -0.3128
15157SOL    HW257451  11.782   5.437  13.446  0.8938  1.1606 -0.0181
15158SOL     OW57452  10.059   0.179  13.949 -0.0622  0.1863 -0.0947
15158SOL    HW157453   9.970   0.153  13.973 -0.1169 -1.6553 -1.9992
15158SOL    HW257454  10.088   0.236  14.021 -2.6916  0.6993  0.6444
15159SOL     OW57455   5.392   8.045  14.010  0.4179  0.0315 -0.0798
15159SOL    HW157456   5.392   7.951  14.029  1.6668  0.3142  1.6293
15159SOL    HW257457   5.321   8.081  14.064  0.5012  0.1684 -0.0599
15160SOL     OW57458   9.485   0.375  13.762 -0.1525  0.2950  0.1515
15160SOL    HW157459   9.437   0.455  13.739  0.5389  0.1481 -2.0915
15160SOL    HW257460   9.536   0.355  13.683  1.8583 -0.8017  1.6497
15161SOL     OW57461  12.367  12.324   1.478  0.3237  0.3297 -0.1050
15161SOL    HW157462  12.392  12.314   1.570 -0.3688  0.1616  0.0762
15161SOL    HW257463  12.278  12.288   1.474 -0.3060  1.8483 -0.4913
15162SOL     OW57464   8.028   7.660   1.649 -0.3113 -0.3439  0.5303
15162SOL    HW157465   8.022   7.633   1.558  0.4668 -1.4933  0.7994
15162SOL    HW257466   8.038   7.578   1.698  1.8647  0.3645  1.4021
15163SOL     OW57467   3.336   9.377  10.193  0.0828  0.1157  0.5326
15163SOL    HW157468   3.368   9.353  10.106 -2.9785  0.1840 -0.7697
15163SOL    HW257469   3.316   9.471  10.185 -1.6076 -0.1958  0.7641
15164SOL     OW57470   9.516  10.837   0.528  0.3370 -0.5731  0.0019
15164SOL    HW157471   9.463  10.908   0.566 -0.4721 -1.5707  0.8002
15164SOL    HW257472   9.462  10.759   0.540 -0.1011 -0.9669 -3.4333
15165SOL     OW57473   3.679   8.904  12.384  0.4091 -0.3236  0.2388
15165SOL    HW157474   3.750   8.944  12.334  0.7716 -0.6298  0.4926
15165SOL    HW257475   3.623   8.863  12.318  0.2813  0.2146  0.0139
15166SOL     OW57476   3.246   5.615  12.235 -0.5076  0.3421 -0.2009
15166SOL    HW157477   3.217   5.530  12.202 -1.3674 -0.4106  2.2571
15166SOL    HW257478   3.168   5.669  12.233 -0.3995  0.5018 -0.0853
15167SOL     OW57479   8.665   2.947   8.592 -0.4743 -0.3281  0.2398
15167SOL    HW157480   8.674   2.880   8.661  0.0182  0.8265  1.3345
15167SOL    HW257481   8.704   3.025   8.630  2.0617 -0.2458 -2.2631
15168SOL     OW57482   7.365   3.990  11.311  0.2922 -0.6449  0.3120
15168SOL    HW157483   7.366   4.003  11.406  0.0013 -1.3219  0.4130
15168SOL    HW257484   7.278   3.955  11.292  1.0957 -2.7028  0.1093
15169SOL     OW57485   5.505   5.817   9.841  0.0426  0.5802  0.1204
15169SOL    HW157486   5.425   5.867   9.853 -0.4467 -0.0017 -0.6413
15169SOL    HW257487   5.475   5.729   9.816  0.9189  0.8973 -2.2565
15170SOL     OW57488   2.858  12.359   6.542 -0.0300  0.1894  0.1195
15170SOL    HW157489   2.884  12.300   6.471 -0.4521  0.2072 -0.0541
15170SOL    HW257490   2.815  12.302   6.605 -1.0318  0.3995 -0.3520
15171SOL     OW57491   8.628  13.971   4.269  0.5251  0.0629 -0.6685
15171SOL    HW157492   8.588  14.033   4.330 -0.0787 -0.9326 -0.0313
15171SOL    HW257493   8.712  13.949   4.308 -0.2486 -1.2785  0.3179
15172SOL     OW57494   5.879   8.827  10.099 -0.1982 -0.6270  0.7184
15172SOL    HW157495   5.846   8.916  10.085 -0.3120 -0.8902 -0.7391
15172SOL    HW257496   5.815   8.787  10.157 -1.6183 -0.6226 -0.7995
15173SOL     OW57497   1.430  11.859   4.625 -0.0927 -0.2778  0.6748
15173SOL    HW157498   1.465  11.937   4.668  0.7094 -1.1314  1.6180
15173SOL    HW257499   1.343  11.848   4.663 -0.3194  0.3013  0.3378
15174SOL     OW57500   4.847   9.400   7.875  0.2340 -0.1760  0.4703
15174SOL    HW157501   4.895   9.458   7.816 -0.6725  0.5943  0.4750
15174SOL    HW257502   4.914   9.366   7.934  0.7859  0.9062  0.5006
15175SOL     OW57503  13.697  13.519  12.153 -0.1552  0.2852  0.8158
15175SOL    HW157504  13.662  13.554  12.235 -0.1762 -0.5987  1.1971
15175SOL    HW257505  13.788  13.547  12.152 -0.2773  0.6896  0.9159
15176SOL     OW57506   8.675  13.044   9.795 -0.1898 -0.3790 -0.4542
15176SOL    HW157507   8.755  13.071   9.749  0.9338 -2.2048  0.3218
15176SOL    HW257508   8.683  12.950   9.804 -1.7182 -0.4150  1.0116
15177SOL     OW57509   2.537  13.603   9.284  0.2725  0.2114  0.3719
15177SOL    HW157510   2.620  13.642   9.310  1.1864 -1.4201  0.0310
15177SOL    HW257511   2.561  13.532   9.224 -1.4022  0.0862 -0.2104
15178SOL     OW57512  13.940   7.712   3.367 -0.4396 -0.0807  0.1813
15178SOL    HW157513  14.019   7.661   3.348 -2.3075 -1.6183 -5.4167
15178SOL    HW257514  13.904   7.671   3.446  1.3359 -3.3986 -0.5237
15179SOL     OW57515   0.753   8.286  12.900  0.1816 -0.2749 -0.4170
15179SOL    HW157516   0.836   8.297  12.853  0.0665 -1.2808 -0.8762
15179SOL    HW257517   0.688   8.324  12.842  0.4822  2.1635  0.7134
15180SOL     OW57518   7.694  12.732   4.999 -0.2230  0.9599  0.3668
15180SOL    HW157519   7.643  12.756   5.077 -0.9510 -1.4235  0.7108
15180SOL    HW257520   7.772  12.690   5.034 -0.0064  0.8957 -0.1939
15181SOL     OW57521   2.525   3.081  10.835  0.3076 -0.1078  0.3574
15181SOL    HW157522   2.589   3.045  10.774  0.4957  0.5015  0.1866
15181SOL    HW257523   2.443   3.038  10.811  0.8697 -1.8783  1.4327
15182SOL     OW57524   7.343   9.477  10.818 -0.2272  0.0568  0.1785
15182SOL    HW157525   7.260   9.521  10.799 -0.5968  0.1469  1.8946
15182SOL    HW257526   7.343   9.401  10.759 -0.5438  1.1525 -1.3018
15183SOL     OW57527   1.826  10.407   5.501  0.0224  0.3997  0.4193
15183SOL    HW157528   1.772  10.446   5.433  0.5570 -2.3408 -1.7504
15183SOL    HW257529   1.817  10.466   5.575 -2.0851  2.5645 -1.3910
15184SOL     OW57530  12.209   1.746   2.621  0.3190  0.0676  0.1284
15184SOL    HW157531  12.128   1.785   2.654  0.6711 -0.0706  1.1740
15184SOL    HW257532  12.180   1.676   2.563 -0.3588  2.1824 -2.2863
15185SOL     OW57533  13.189   7.924   9.169 -0.2371 -0.3096 -0.0901
15185SOL    HW157534  13.282   7.946   9.176 -0.0598 -0.9144 -0.4531
15185SOL    HW257535  13.151   7.995   9.117 -0.1334  0.3357  0.7077
15186SOL     OW57536   2.481   6.980  12.933  0.2840  0.3794  0.2572
15186SOL    HW157537   2.403   6.938  12.897  0.7192 -0.0777 -0.1597
15186SOL    HW257538   2.551   6.961  12.870  0.5455  1.5327  0.1640
15187SOL     OW57539  10.928   3.124   1.372 -0.0986 -0.7300  0.1428
15187SOL    HW157540  10.979   3.044   1.377 -0.3291 -0.8457  0.6169
15187SOL    HW257541  10.930   3.161   1.460  2.0292  1.0477 -0.5501
15188SOL     OW57542  13.768   2.821   8.949 -0.0431 -0.3912  0.2333
15188SOL    HW157543  13.799   2.823   8.859  0.1109 -1.7584  0.2416
15188SOL    HW257544  13.796   2.736   8.983 -0.6394 -0.1573  1.3789
15189SOL     OW57545  12.564   7.464  13.671 -0.1397 -0.4414  0.3015
15189SOL    HW157546  12.627   7.437  13.738 -0.4157 -3.8949 -0.6321
15189SOL    HW257547  12.614   7.464  13.589 -0.1407  2.3603  0.1999
15190SOL     OW57548  12.224   8.118   2.220 -0.2245  0.0968 -0.2436
15190SOL    HW157549  12.261   8.185   2.277  1.8127  0.5666 -1.9647
15190SOL    HW257550  12.252   8.035   2.258  0.7237  0.3811 -0.3092
15191SOL     OW57551   4.150   2.887   4.928 -0.0484  0.1054 -0.5097
15191SOL    HW157552   4.190   2.800   4.923 -0.5854 -0.2066  0.4427
15191SOL    HW257553   4.211   2.943   4.882  0.6188 -0.6740 -0.6053
15192SOL     OW57554   3.928  10.644   5.376 -0.5978 -0.1168 -0.3585
15192SOL    HW157555   3.927  10.684   5.289  0.2569 -0.8077 -0.6970
15192SOL    HW257556   3.838  10.653   5.407 -1.4641 -1.7832 -2.2198
15193SOL     OW57557   8.449  13.796   8.912  0.3666  0.0308  0.4680
15193SOL    HW157558   8.398  13.731   8.960 -0.9284  0.1615 -0.6586
15193SOL    HW257559   8.460  13.758   8.825  1.6761  0.2977  0.4892
15194SOL     OW57560  10.679  12.768   8.635  0.3307 -0.1084 -0.1651
15194SOL    HW157561  10.763  12.767   8.680  1.1560 -2.1434 -1.6062
15194SOL    HW257562  10.692  12.712   8.558 -0.7152  3.6473 -3.4308
15195SOL     OW57563   0.011   6.737  10.418 -0.6482  0.4216 -0.4581
15195SOL    HW157564  -0.006   6.801  10.487  1.2733  1.5772 -0.9718
15195SOL    HW257565   0.010   6.788  10.337  3.4195  0.4997 -0.6904
15196SOL     OW57566   6.942   7.823   0.654 -0.1633 -0.0723 -0.6617
15196SOL    HW157567   6.921   7.884   0.725 -2.5643 -1.4212 -0.0998
15196SOL    HW257568   6.967   7.742   0.698 -1.1593 -0.7626 -1.3216
15197SOL     OW57569   4.443  10.040   4.150 -0.5251 -0.3785 -0.1320
15197SOL    HW157570   4.480  10.101   4.213 -2.0699  1.5442 -1.0078
15197SOL    HW257571   4.380   9.988   4.200 -0.7203  0.1737  0.2022
15198SOL     OW57572   7.506  13.614  13.949 -0.3381  0.0234 -0.3316
15198SOL    HW157573   7.430  13.636  14.003 -0.5604 -0.8028 -0.2930
15198SOL    HW257574   7.581  13.645  14.000 -0.4885 -1.3632  0.8265
15199SOL     OW57575  10.271   5.470   3.227 -0.9216 -0.2315 -0.0905
15199SOL    HW157576  10.271   5.418   3.147  1.1345  2.2053 -1.8529
15199SOL    HW257577  10.209   5.541   3.210 -0.6248  0.1871  0.5275
15200SOL     OW57578   5.780   3.484  11.289 -0.7473  0.1831 -0.0507
15200SOL    HW157579   5.731   3.402  11.289  0.5166 -0.6647  2.1927
15200SOL    HW257580   5.791   3.504  11.382 -0.2625  2.4548 -0.5433
15201SOL     OW57581   7.787   8.064   6.206  0.1589 -0.0409 -0.1787
15201SOL    HW157582   7.703   8.098   6.177 -0.3753  0.1921  1.5119
15201SOL    HW257583   7.811   7.998   6.141 -0.7254  0.7463 -1.3356
15202SOL     OW57584   1.430   4.678   3.063 -0.3037 -0.2898  0.7161
15202SOL    HW157585   1.378   4.735   3.006  0.2911 -2.0429 -1.7389
15202SOL    HW257586   1.487   4.738   3.112 -1.7949  1.3772  0.5085
15203SOL     OW57587   8.661   8.357   0.764  0.0450  0.4058 -0.3467
15203SOL    HW157588   8.725   8.426   0.748  0.6671 -0.6438 -2.9167
15203SOL    HW257589   8.701   8.303   0.832  0.7726  1.0831 -0.2209
15204SOL     OW57590   0.734  11.968   6.235 -0.3419  0.5294 -0.0979
15204SOL    HW157591   0.806  12.014   6.279  0.3734  0.0095 -0.7072
15204SOL    HW257592   0.655  12.008   6.271  0.2270  0.4872  1.2690
15205SOL     OW57593   0.505  10.044  10.462 -0.1432  0.5135 -0.2691
15205SOL    HW157594   0.485   9.994  10.383 -1.6879  3.0150 -1.6018
15205SOL    HW257595   0.434  10.022  10.522 -0.0564  0.0883 -0.3188
15206SOL     OW57596   4.981   3.007   8.552  0.4876  0.5052  0.0743
15206SOL    HW157597   5.030   3.069   8.498  1.4374 -0.1799  0.1074
15206SOL    HW257598   4.890   3.017   8.524  0.9423  0.1750 -1.6779
15207SOL     OW57599   6.121   8.817  11.960  0.0405  0.1961 -0.0088
15207SOL    HW157600   6.190   8.775  11.908 -0.5318 -0.9155  0.0930
15207SOL    HW257601   6.146   8.801  12.051 -1.0979 -1.5912  0.0469
15208SOL     OW57602   7.119  12.292   4.078 -0.2400  0.1882  0.0430
15208SOL    HW157603   7.082  12.258   3.997  0.0839  2.7384 -1.2879
15208SOL    HW257604   7.211  12.310   4.056  0.2170 -0.3757  1.4193
15209SOL     OW57605   8.949  12.755   2.251  0.1460 -0.1984  0.2816
15209SOL    HW157606   8.983  12.844   2.260  1.0885 -0.6812  1.8855
15209SOL    HW257607   8.963  12.734   2.159  2.2263  0.4386  0.3853
15210SOL     OW57608   7.886   5.530  10.603 -0.7033 -0.4484  0.5204
15210SOL    HW157609   7.978   5.504  10.594 -0.8708 -1.0875  0.6053
15210SOL    HW257610   7.883   5.620  10.568  0.2967  0.2705  2.1642
15211SOL     OW57611   1.884   1.825   1.442  0.0987  0.1339  0.4886
15211SOL    HW157612   1.978   1.815   1.428 -0.4199 -3.5261 -1.9536
15211SOL    HW257613   1.851   1.858   1.358 -0.9328 -0.0980  0.7968
15212SOL     OW57614   7.301   4.750   6.753  0.3796 -0.4053  0.5097
15212SOL    HW157615   7.389   4.711   6.752  0.6898  0.2607  0.9671
15212SOL    HW257616   7.245   4.683   6.793  1.0037 -0.2036  1.7769
15213SOL     OW57617   3.474   5.757   9.318 -0.2638 -0.2793 -0.1053
15213SOL    HW157618   3.484   5.796   9.405 -1.7839  0.0212 -0.0257
15213SOL    HW257619   3.379   5.760   9.302 -0.0048 -0.3323 -1.7703
15214SOL     OW57620   6.862   7.165   8.742 -0.7989 -0.0996  0.3060
15214SOL    HW157621   6.943   7.129   8.777 -0.8363 -0.3721  0.1195
15214SOL    HW257622   6.796   7.099   8.762 -0.5883 -0.9193 -1.4476
15215SOL     OW57623  13.481  12.931   3.290 -0.1613 -0.3762 -0.5421
15215SOL    HW157624  13.452  12.887   3.210  0.8691 -0.8411 -0.6800
15215SOL    HW257625  13.569  12.896   3.306  0.3485  1.0228 -0.1739
15216SOL     OW57626   9.376  11.958   7.343 -0.2582  0.0357 -0.2678
15216SOL    HW157627   9.316  11.907   7.398 -0.4854  1.4345  0.8322
15216SOL    HW257628   9.333  11.962   7.258 -0.3600 -1.3508 -0.3046
15217SOL     OW57629   6.484   0.241  12.249 -0.1056  0.3512  0.0954
15217SOL    HW157630   6.470   0.271  12.159  2.1115 -0.7656 -0.7039
15217SOL    HW257631   6.423   0.168  12.259 -0.2442  0.3683 -0.5590
15218SOL     OW57632   2.125  13.764   2.799  0.1927  0.6088  0.3628
15218SOL    HW157633   2.099  13.755   2.707 -0.1857  1.5337  0.3728
15218SOL    HW257634   2.215  13.730   2.802  0.6160  1.5996 -0.5764
15219SOL     OW57635  10.826   1.579  11.165 -0.1987 -0.3844  0.2817
15219SOL    HW157636  10.768   1.654  11.152 -3.0238 -2.2207  1.2353
15219SOL    HW257637  10.861   1.592  11.254 -1.9703 -0.9063  1.1081
15220SOL     OW57638   6.957   6.641  13.172  0.0381 -0.5237  0.1776
15220SOL    HW157639   6.967   6.652  13.266 -0.1230 -1.8932  0.3702
15220SOL    HW257640   7.029   6.585  13.146 -2.0470 -3.4466  0.1907
15221SOL     OW57641   0.461  12.634   1.273  0.3282 -0.0676 -0.0671
15221SOL    HW157642   0.495  12.563   1.219  0.4759  0.8972 -1.2745
15221SOL    HW257643   0.485  12.609   1.363  1.2089 -1.0695 -0.5580
15222SOL     OW57644   4.482   5.575  12.490 -0.2982 -0.0951  0.0159
15222SOL    HW157645   4.411   5.624  12.449 -0.3751  0.4437  0.7747
15222SOL    HW257646   4.440   5.494  12.521  0.0780 -1.3006 -2.3646
15223SOL     OW57647  10.579  10.031   1.084  0.0379  0.0492 -0.2761
15223SOL    HW157648  10.495  10.061   1.048 -0.4988  0.8302  1.5318
15223SOL    HW257649  10.586   9.941   1.055 -0.7999  0.3596 -1.5442
15224SOL     OW57650   1.505   8.931   1.915  0.3161  0.5428  0.0455
15224SOL    HW157651   1.437   8.933   1.981 -0.4459  2.1754 -0.7307
15224SOL    HW257652   1.583   8.962   1.960  0.4671 -0.8351  0.8028
15225SOL     OW57653  12.527   5.026   0.145  0.7488 -0.1796 -0.1120
15225SOL    HW157654  12.536   4.931   0.153  1.8558  0.0196  1.2144
15225SOL    HW257655  12.489   5.039   0.058  0.1323 -1.8530 -0.1257
15226SOL     OW57656   3.366   1.317   4.615 -0.0352 -0.2413  0.6164
15226SOL    HW157657   3.355   1.222   4.618 -1.8183 -0.1048 -0.2918
15226SOL    HW257658   3.433   1.335   4.681 -0.3583 -2.0348  1.5012
15227SOL     OW57659   6.628   0.657   6.467 -0.0152  0.6646  0.2240
15227SOL    HW157660   6.551   0.617   6.508  1.2227 -0.4836  1.5107
15227SOL    HW257661   6.657   0.722   6.532  1.4516 -0.5597  0.8442
15228SOL     OW57662   5.163  11.083   7.439 -0.2648  0.4581  0.0036
15228SOL    HW157663   5.193  10.994   7.420  1.4727  0.7335  1.2027
15228SOL    HW257664   5.124  11.113   7.357 -1.7243 -1.6908 -0.1701
15229SOL     OW57665  11.255   5.907   2.340 -0.7129  0.3525 -0.3685
15229SOL    HW157666  11.261   6.003   2.336  0.4762  0.3081  0.0633
15229SOL    HW257667  11.237   5.889   2.432 -1.6864  0.1770 -0.5786
15230SOL     OW57668   8.637   2.835  11.422  0.1838  0.4360 -0.0678
15230SOL    HW157669   8.606   2.810  11.510  2.5659  0.2116  0.7905
15230SOL    HW257670   8.707   2.898  11.439  0.0141  1.1624 -1.8878
15231SOL     OW57671   8.927   2.381   6.290 -0.2483 -0.2926 -0.0280
15231SOL    HW157672   8.844   2.411   6.252  0.4714  2.4014  0.3379
15231SOL    HW257673   8.926   2.416   6.379  1.1160 -0.5559  0.1024
15232SOL     OW57674   8.748   4.218  12.908 -0.2559 -0.1802  0.1234
15232SOL    HW157675   8.802   4.227  12.830  0.7001  1.8538  0.9401
15232SOL    HW257676   8.665   4.183  12.877  1.2634 -2.8155 -1.2699
15233SOL     OW57677  10.596  10.672   5.841  0.0725  0.6291  0.7651
15233SOL    HW157678  10.605  10.583   5.875  1.0242 -0.1266 -1.2332
15233SOL    HW257679  10.666  10.721   5.884  0.0346  0.2164  1.3116
15234SOL     OW57680   4.233   3.159   4.329 -0.6151 -0.1379 -0.0756
15234SOL    HW157681   4.322   3.127   4.310 -0.8801 -0.8452 -0.1799
15234SOL    HW257682   4.186   3.145   4.247 -0.4925  1.4760 -0.4408
15235SOL     OW57683  13.786   9.183   0.077 -0.1414  0.0352  0.1128
15235SOL    HW157684  13.773   9.114   0.012 -4.7507  0.6022  0.0708
15235SOL    HW257685  13.784   9.137   0.161  2.1098 -0.3226  0.0098
15236SOL     OW57686  10.780   5.497  12.286 -0.0047 -0.2708  0.0723
15236SOL    HW157687  10.714   5.566  12.289 -0.1543 -0.3579 -0.8500
15236SOL    HW257688  10.767   5.455  12.201  2.2466  0.7250 -0.8495
15237SOL     OW57689   8.268   9.622  13.316 -0.8311 -0.6137  0.2019
15237SOL    HW157690   8.236   9.708  13.289 -4.6972 -2.1505 -0.8448
15237SOL    HW257691   8.247   9.564  13.242  1.7412 -2.4972  0.8107
15238SOL     OW57692  13.766   1.192   1.414  0.0264 -0.0622  0.5480
15238SOL    HW157693  13.826   1.253   1.373  0.8896  0.7465  2.8412
15238SOL    HW257694  13.822   1.121   1.447 -0.2490  0.5337  2.4171
15239SOL     OW57695   2.831   7.576   5.501 -0.7496  0.0372 -0.4370
15239SOL    HW157696   2.855   7.506   5.562 -3.7520 -1.8980 -1.2643
15239SOL    HW257697   2.751   7.613   5.538  1.5964  4.5147  0.9512
15240SOL     OW57698   8.072   3.242   5.609  0.3915  0.0021  0.5394
15240SOL    HW157699   8.103   3.271   5.695  1.6642 -1.3427  0.5671
15240SOL    HW257700   8.069   3.322   5.557  1.2593  0.5783  1.3512
15241SOL     OW57701   4.826  10.423   4.609 -0.4376 -0.2861 -0.4126
15241SOL    HW157702   4.767  10.351   4.632  0.4343 -0.7294  0.5318
15241SOL    HW257703   4.913  10.389   4.625 -0.0174  1.1426  0.5669
15242SOL     OW57704  12.183   7.184   4.443 -0.2126  0.4775  0.2498
15242SOL    HW157705  12.170   7.090   4.451 -0.6220  0.3544 -1.4498
15242SOL    HW257706  12.172   7.218   4.532  2.5593 -1.3332  1.4159
15243SOL     OW57707   7.833   0.599   6.239 -0.3887 -0.2592  0.0553
15243SOL    HW157708   7.901   0.636   6.182 -1.6740  0.8524 -0.8166
15243SOL    HW257709   7.862   0.620   6.328  0.1777  0.6261 -0.3210
15244SOL     OW57710   3.722   8.980   1.018 -0.8690  0.2321  0.0192
15244SOL    HW157711   3.659   8.907   1.010 -1.5291  0.9580 -2.6125
15244SOL    HW257712   3.730   9.013   0.928  1.6558  1.5624  0.6627
15245SOL     OW57713   6.100   7.097   4.329  0.3072  0.0264  0.2988
15245SOL    HW157714   6.067   7.089   4.419  0.6250 -1.7075  0.2980
15245SOL    HW257715   6.062   7.179   4.297 -2.2444 -0.7733  1.0149
15246SOL     OW57716   0.631  11.803   8.163  0.3948 -0.3106 -0.4565
15246SOL    HW157717   0.690  11.732   8.186 -0.5078 -1.3135 -1.1226
15246SOL    HW257718   0.557  11.793   8.223 -0.2761 -0.6816 -1.3189
15247SOL     OW57719   3.268   4.722  10.378 -0.7200 -0.7091  0.0241
15247SOL    HW157720   3.222   4.700  10.458 -1.6779  1.0944  0.0147
15247SOL    HW257721   3.205   4.773  10.327  1.1511  1.6973 -0.0597
15248SOL     OW57722  13.920   6.888  12.608 -0.0459 -0.4082  0.3896
15248SOL    HW157723  13.831   6.869  12.577 -0.1888  1.1860 -0.2743
15248SOL    HW257724  13.959   6.942  12.540  1.2791 -0.6759  0.8985
15249SOL     OW57725   0.936   2.227  10.794  0.3732  0.4208  0.2459
15249SOL    HW157726   0.886   2.273  10.727  2.6849 -0.6581 -2.4082
15249SOL    HW257727   0.991   2.294  10.833  1.3441  0.5538 -1.2745
15250SOL     OW57728   8.606  13.940  11.050 -0.3235 -0.2079 -0.1692
15250SOL    HW157729   8.593  13.845  11.056  1.2612 -0.4950 -0.9850
15250SOL    HW257730   8.683  13.957  11.103  0.3680  0.3851 -1.3401
15251SOL     OW57731  12.118  10.361  13.514 -0.1666  0.1008 -0.3191
15251SOL    HW157732  12.089  10.284  13.563 -1.3322  1.3607  1.0390
15251SOL    HW257733  12.067  10.358  13.433 -0.7245 -0.1765  0.0362
15252SOL     OW57734  13.737  12.554  10.212 -0.5044 -0.1960 -0.4066
15252SOL    HW157735  13.664  12.611  10.235 -0.7315  0.0764 -1.7202
15252SOL    HW257736  13.732  12.482  10.274 -2.3628 -0.5778 -0.9415
15253SOL     OW57737   2.773   6.552   4.187  0.1774 -0.1513  0.1672
15253SOL    HW157738   2.678   6.546   4.174  0.4489 -1.2472 -1.7123
15253SOL    HW257739   2.805   6.597   4.109  1.1315  1.2465  1.3129
15254SOL     OW57740   8.698  12.351   8.356  0.9460  0.1555 -0.0752
15254SOL    HW157741   8.787  12.378   8.331  1.5860  0.9643  2.6515
15254SOL    HW257742   8.667  12.422   8.413 -0.5269 -1.2047  0.8894
15255SOL     OW57743  13.172   3.934   4.487  0.5063  0.5526 -0.2544
15255SOL    HW157744  13.247   3.912   4.541  0.2595  1.7641  0.6106
15255SOL    HW257745  13.118   3.990   4.542 -0.7467  0.1889 -1.0686
15256SOL     OW57746   5.199   3.278   4.758  0.3946  0.3455  0.2933
15256SOL    HW157747   5.113   3.273   4.716  0.4325 -0.2721  0.2860
15256SOL    HW257748   5.201   3.203   4.818  0.7597  0.6023  0.6094
15257SOL     OW57749   1.447  13.526   9.338  0.5193 -0.1804  0.1166
15257SOL    HW157750   1.496  13.455   9.296  0.1213 -0.3242 -0.1192
15257SOL    HW257751   1.455  13.510   9.432  0.3449 -0.6008  0.0613
15258SOL     OW57752  11.786   3.687   2.936 -0.0685  0.4953 -0.0586
15258SOL    HW157753  11.768   3.752   2.868 -1.1261  1.3667  1.0180
15258SOL    HW257754  11.790   3.738   3.017  1.4494 -0.4856  0.5278
15259SOL     OW57755   0.729  12.804   7.592 -1.2058 -0.2974 -0.1881
15259SOL    HW157756   0.686  12.775   7.673 -1.6254  0.0494 -0.2860
15259SOL    HW257757   0.658  12.810   7.528 -0.7943 -1.1431 -0.7489
15260SOL     OW57758  11.291   4.753  11.388  0.0944 -0.2212  0.0344
15260SOL    HW157759  11.314   4.742  11.480 -0.4074 -0.9602  0.0813
15260SOL    HW257760  11.371   4.731  11.341  0.3208  0.0487  0.2894
15261SOL     OW57761   4.954   1.535   8.370 -0.0447 -0.0402  0.7365
15261SOL    HW157762   5.025   1.532   8.305  0.3487 -1.6656  1.2091
15261SOL    HW257763   4.875   1.525   8.318  0.0981  0.9874  0.2886
15262SOL     OW57764   6.327   3.484   9.790  0.3352 -0.4909  0.0328
15262SOL    HW157765   6.263   3.551   9.814  1.3407 -0.0442  1.6313
15262SOL    HW257766   6.275   3.412   9.756 -0.8036  0.9711 -1.4824
15263SOL     OW57767   9.841   7.832  12.198 -0.7084  0.2996  0.0525
15263SOL    HW157768   9.830   7.888  12.275 -1.4304 -2.4446  2.0982
15263SOL    HW257769   9.756   7.789  12.187 -0.2703 -0.2085 -1.6075
15264SOL     OW57770   0.980   0.069   0.594  0.1184  0.3987  0.1316
15264SOL    HW157771   1.012   0.040   0.680  0.1161 -2.1845 -0.6429
15264SOL    HW257772   0.885   0.068   0.603  0.0846 -0.8463 -0.1318
15265SOL     OW57773   3.752  12.297   7.200 -0.2343 -0.1231 -0.2119
15265SOL    HW157774   3.813  12.350   7.148 -0.1842 -0.1541 -0.1858
15265SOL    HW257775   3.712  12.237   7.137  0.5095 -0.7945 -0.0672
15266SOL     OW57776   9.795   6.398  13.777  0.1558  1.2034 -0.4544
15266SOL    HW157777   9.786   6.362  13.865  1.4065 -0.7221 -1.0602
15266SOL    HW257778   9.706   6.397  13.741  0.1866 -2.1119 -0.6946
15267SOL     OW57779   1.347  10.491   5.735 -0.3900  0.6310  0.0445
15267SOL    HW157780   1.311  10.580   5.737  0.0539  0.8787 -1.5691
15267SOL    HW257781   1.429  10.500   5.686  0.0691 -0.5397  0.5607
15268SOL     OW57782  11.547   9.620   5.491 -0.1201  0.4593  0.0631
15268SOL    HW157783  11.620   9.561   5.474 -0.4727  0.0934 -0.2106
15268SOL    HW257784  11.483   9.567   5.537  0.4168  1.1890  1.7443
15269SOL     OW57785   2.764   6.478  12.144 -0.0297  0.2460  0.5382
15269SOL    HW157786   2.740   6.387  12.125 -1.7430  0.9461 -0.9788
15269SOL    HW257787   2.693   6.511  12.199 -0.1858  1.0501 -0.1181
15270SOL     OW57788  11.064   4.379   2.022 -0.1191 -0.7511 -0.1129
15270SOL    HW157789  11.024   4.423   1.946  1.0381  0.6001  0.0302
15270SOL    HW257790  11.011   4.407   2.096  1.2140  1.2916  0.1201
15271SOL     OW57791   7.976   1.675   7.962 -0.0671 -0.4087 -0.0125
15271SOL    HW157792   8.015   1.743   8.017 -1.2975 -0.0152  0.4158
15271SOL    HW257793   8.040   1.659   7.894 -0.1303  1.8976 -0.6995
15272SOL     OW57794   7.500  13.168   6.710 -1.2092 -0.3506  0.1373
15272SOL    HW157795   7.546  13.121   6.780 -1.6354  0.2682  0.8369
15272SOL    HW257796   7.570  13.212   6.662 -0.9209 -0.7129  0.2189
15273SOL     OW57797   6.076   7.455   5.522 -0.3465 -0.4472 -0.2790
15273SOL    HW157798   6.087   7.542   5.485 -0.2042 -0.5807 -0.5520
15273SOL    HW257799   6.069   7.397   5.446  1.5415 -0.9435 -0.1155
15274SOL     OW57800   3.609  13.420   2.419  0.1852 -0.2061 -0.4363
15274SOL    HW157801   3.610  13.324   2.417  0.0962 -0.2572  0.8826
15274SOL    HW257802   3.533  13.444   2.366 -1.1802 -0.9728  1.0754
15275SOL     OW57803   5.310   4.777  13.634 -0.1187  0.1341 -0.4111
15275SOL    HW157804   5.362   4.743  13.707 -0.5634  0.4502  0.0669
15275SOL    HW257805   5.220   4.776  13.667 -0.2025  1.3562 -0.5289
15276SOL     OW57806   1.884   0.201   7.594  0.1051 -0.0097 -0.5349
15276SOL    HW157807   1.910   0.123   7.545 -0.4975  0.6222 -1.9072
15276SOL    HW257808   1.821   0.245   7.537 -1.7731 -0.0070  1.4215
15277SOL     OW57809   2.182  11.156   7.472  0.2299 -0.1721  1.2034
15277SOL    HW157810   2.177  11.065   7.444  0.3746 -0.5305  2.2949
15277SOL    HW257811   2.217  11.152   7.561 -1.5332  0.8123  1.9935
15278SOL     OW57812   8.499  12.839   8.241  0.6147  0.1650  0.0289
15278SOL    HW157813   8.589  12.872   8.229  0.0782  1.6710 -0.0956
15278SOL    HW257814   8.466  12.887   8.317 -0.0474 -0.4802  0.1584
15279SOL     OW57815   5.722   2.272   2.102  0.1006 -0.4904  0.5256
15279SOL    HW157816   5.761   2.301   2.020  1.5490 -1.5710  0.7835
15279SOL    HW257817   5.739   2.343   2.164  2.6423 -1.2898  0.8802
15280SOL     OW57818   8.342  13.804   9.508 -0.0277 -0.2960 -0.3887
15280SOL    HW157819   8.248  13.792   9.524 -0.1619 -1.0321 -1.5835
15280SOL    HW257820   8.351  13.898   9.491 -0.8519 -0.4684 -1.9537
15281SOL     OW57821  13.715   5.711   3.429  0.9483 -0.4589 -0.0039
15281SOL    HW157822  13.723   5.757   3.346 -1.2787  2.5509  1.2919
15281SOL    HW257823  13.654   5.639   3.411  2.8633 -1.7969 -1.5764
15282SOL     OW57824  10.646  11.157   7.504 -0.1346 -0.3067  0.1311
15282SOL    HW157825  10.734  11.193   7.519 -0.6252  0.9058  0.1382
15282SOL    HW257826  10.622  11.187   7.417 -0.9427  0.1983  0.5234
15283SOL     OW57827  10.712   0.113   9.565  0.2218  0.1171  0.3252
15283SOL    HW157828  10.617   0.113   9.579 -0.0078  0.0218 -1.1342
15283SOL    HW257829  10.735   0.020   9.558  0.5482  0.1076  1.3728
15284SOL     OW57830   5.170   6.301   3.314 -0.1160  0.4140 -0.2786
15284SOL    HW157831   5.226   6.360   3.263 -0.9939  0.0915 -1.6612
15284SOL    HW257832   5.107   6.359   3.356 -0.0541  0.5910 -0.4273
15285SOL     OW57833  13.128  13.177   5.056 -0.0749 -0.1464 -0.1262
15285SOL    HW157834  13.075  13.141   4.985  1.4895 -1.5601 -0.6373
15285SOL    HW257835  13.171  13.253   5.017  1.3029 -1.3119 -0.9425
15286SOL     OW57836   3.745   1.774  11.282 -0.1786  0.0069 -0.5823
15286SOL    HW157837   3.682   1.702  11.278  0.0236 -0.2314  0.2679
15286SOL    HW257838   3.795   1.757  11.362  0.9266  0.2264 -1.2059
15287SOL     OW57839   0.267   3.975  13.577 -0.3819 -0.8516  0.7324
15287SOL    HW157840   0.222   3.937  13.653 -0.3284 -1.3188  0.5290
15287SOL    HW257841   0.260   3.908  13.509 -1.2018 -0.0764  0.0378
15288SOL     OW57842  11.043  11.028   8.210  0.6932  0.7616  0.1505
15288SOL    HW157843  11.004  10.963   8.269  0.0294  0.4100 -0.6576
15288SOL    HW257844  11.119  10.983   8.173  0.9394  0.8794  0.5090
15289SOL     OW57845  12.797   0.262   9.257 -0.3171  0.0024  0.5078
15289SOL    HW157846  12.706   0.234   9.254 -0.4467  0.3199  1.2230
15289SOL    HW257847  12.815   0.278   9.350  0.1187  1.0538  0.2669
15290SOL     OW57848   0.033   7.176   5.909 -0.2371  0.0223 -0.2090
15290SOL    HW157849   0.070   7.228   5.981  0.2107 -0.4234 -0.1125
15290SOL    HW257850   0.045   7.232   5.831 -2.4963  1.3507  0.3150
15291SOL     OW57851   7.407   9.870  11.998  0.0991 -0.0117 -0.0373
15291SOL    HW157852   7.427   9.938  12.062  0.6747  0.4750 -0.7052
15291SOL    HW257853   7.317   9.843  12.017  0.6227 -0.6664  1.6629
15292SOL     OW57854  12.917   1.462  13.372  0.0698  0.2111  0.6378
15292SOL    HW157855  12.833   1.504  13.393  0.3226 -0.1131  2.4432
15292SOL    HW257856  12.948   1.511  13.295 -0.8910  1.5764  1.0574
15293SOL     OW57857  13.706   9.970   5.746  0.2073  0.2825 -0.4537
15293SOL    HW157858  13.753  10.051   5.764  1.5324 -0.4172 -0.5990
15293SOL    HW257859  13.682   9.936   5.833 -0.7341  1.0247 -0.4110
15294SOL     OW57860  13.615  12.297   5.172 -0.3385  0.0987 -0.0780
15294SOL    HW157861  13.589  12.260   5.087  1.5319  0.5716 -0.8958
15294SOL    HW257862  13.556  12.371   5.184  0.4946  1.1314 -1.8702
15295SOL     OW57863   0.305   5.537  10.058  0.2279 -0.2688  0.3957
15295SOL    HW157864   0.268   5.466  10.004 -1.2378 -0.0405  1.0384
15295SOL    HW257865   0.396   5.544  10.030  0.3391 -2.2433  0.1430
15296SOL     OW57866   6.841  11.237  11.064  0.1251 -0.5303  0.0816
15296SOL    HW157867   6.889  11.241  11.147 -1.4057 -0.8786  1.0097
15296SOL    HW257868   6.852  11.147  11.034 -0.3839 -0.7561  0.5658
15297SOL     OW57869   9.413   7.924  10.613  0.3596  0.1075 -0.0922
15297SOL    HW157870   9.419   7.842  10.565 -1.2116 -0.5990  0.8687
15297SOL    HW257871   9.464   7.909  10.693  0.4587  0.2390 -0.1296
15298SOL     OW57872  13.602   0.838   8.307  0.1354  0.7553  0.1323
15298SOL    HW157873  13.565   0.850   8.394 -0.5909  1.2442 -0.2388
15298SOL    HW257874  13.596   0.924   8.265  1.3803  0.7707 -0.0617
15299SOL     OW57875   9.446   0.304  11.055  0.7539  0.1668 -0.2082
15299SOL    HW157876   9.443   0.396  11.028  0.4277  0.4572  0.7770
15299SOL    HW257877   9.473   0.257  10.976  1.4816  1.1683 -0.5867
15300SOL     OW57878   3.994   9.277   2.531 -0.0990  0.4820 -0.3466
15300SOL    HW157879   4.081   9.237   2.527 -1.1540 -1.9878 -1.2265
15300SOL    HW257880   3.973   9.280   2.624  1.2635  2.0320 -0.0485
15301SOL     OW57881   9.952   7.410   5.028 -0.4167  0.5922 -0.2659
15301SOL    HW157882  10.045   7.402   5.052 -0.8652  0.7692  1.7170
15301SOL    HW257883   9.937   7.340   4.965  1.4363  1.5847 -1.9227
15302SOL     OW57884  11.196   2.789   4.948  0.4291 -0.3404  0.0841
15302SOL    HW157885  11.278   2.822   4.912  0.5860  0.2180  0.9352
15302SOL    HW257886  11.140   2.866   4.955  0.8173 -0.1965  2.1538
15303SOL     OW57887   5.457   9.273   9.900 -0.4754 -0.0830  0.0360
15303SOL    HW157888   5.435   9.180   9.898  4.3456 -1.8459  4.4243
15303SOL    HW257889   5.417   9.305   9.981  0.9554  0.5140  0.5380
15304SOL     OW57890   0.205  10.837   0.265 -0.1593  0.0529  0.1482
15304SOL    HW157891   0.224  10.753   0.306 -2.6532 -1.0201 -0.7139
15304SOL    HW257892   0.169  10.815   0.179  0.1845  2.0715 -0.5762
15305SOL     OW57893   5.834   5.829   6.210  0.6239  0.0541  0.3558
15305SOL    HW157894   5.837   5.785   6.295  0.0396  0.6374  0.6939
15305SOL    HW257895   5.842   5.922   6.232 -1.2514  0.3581 -0.0484
15306SOL     OW57896  13.002   0.982   3.684  0.1908  0.0284  0.0649
15306SOL    HW157897  13.017   0.987   3.779  2.5968  0.8408 -0.2925
15306SOL    HW257898  13.051   0.906   3.655 -0.4161 -0.1347 -0.5655
15307SOL     OW57899   6.153   2.024   5.950  0.6619  0.3040  0.4531
15307SOL    HW157900   6.120   1.944   5.909 -1.0131  1.3691 -0.3641
15307SOL    HW257901   6.200   1.993   6.028 -1.2187 -1.3850  0.9814
15308SOL     OW57902  13.735   9.622   5.591 -0.1238 -0.1140  0.0621
15308SOL    HW157903  13.655   9.570   5.582 -0.7440  0.8836 -0.3636
15308SOL    HW257904  13.709   9.711   5.568  2.1882 -0.4689 -5.6494
15309SOL     OW57905  10.515   0.755   5.590 -0.1656 -0.2068  0.5573
15309SOL    HW157906  10.524   0.667   5.627  0.6762 -0.5311 -0.3792
15309SOL    HW257907  10.586   0.805   5.631  1.9929 -1.0388 -1.8458
15310SOL     OW57908   9.315   3.351   4.267  0.4801 -0.2039  0.7582
15310SOL    HW157909   9.290   3.385   4.353 -0.5710 -0.1911  0.4638
15310SOL    HW257910   9.304   3.426   4.207  0.4092 -0.4265  0.4885
15311SOL     OW57911  11.736   9.459   5.408 -0.5419 -0.3099 -0.0288
15311SOL    HW157912  11.726   9.373   5.448  0.2122 -0.1426  0.5250
15311SOL    HW257913  11.697   9.449   5.321 -0.5665 -1.1727  0.0711
15312SOL     OW57914   6.150  12.965   7.831  0.4256 -0.3815 -0.1525
15312SOL    HW157915   6.063  12.991   7.800 -0.7569 -1.9401  1.5835
15312SOL    HW257916   6.209  12.982   7.758 -1.4962 -0.0883 -1.7038
15313SOL     OW57917  10.698  13.074   9.401  0.3035 -0.1459  0.6213
15313SOL    HW157918  10.719  13.162   9.369 -0.6764 -0.0096  0.3278
15313SOL    HW257919  10.616  13.051   9.357  0.5817 -1.2354  0.6481
15314SOL     OW57920   4.699   0.696   7.105  0.0124 -0.0765  0.0147
15314SOL    HW157921   4.695   0.647   7.023 -3.1166 -1.4279  0.8068
15314SOL    HW257922   4.770   0.656   7.155 -0.4241 -1.7075 -0.6191
15315SOL     OW57923  11.264  13.874   2.502 -0.6048 -0.1015  0.3851
15315SOL    HW157924  11.256  13.782   2.528  1.0893  0.2670  2.4915
15315SOL    HW257925  11.334  13.908   2.557 -0.1969  2.1141 -1.3730
15316SOL     OW57926   3.019   5.643   8.589  0.0037 -0.3384 -0.3841
15316SOL    HW157927   2.996   5.631   8.497  0.1072  0.4045 -0.5098
15316SOL    HW257928   2.938   5.623   8.637 -0.3113  0.1917 -0.6932
15317SOL     OW57929   6.180  10.348  11.276  0.7214  0.1069  0.8598
15317SOL    HW157930   6.204  10.435  11.306  0.1435 -0.0318  1.7623
15317SOL    HW257931   6.260  10.313  11.237  1.3173  0.5695  1.6287
15318SOL     OW57932   8.658   9.260  13.588  0.2612  0.3124  0.5601
15318SOL    HW157933   8.568   9.272  13.618 -0.2379  0.0629 -0.7940
15318SOL    HW257934   8.661   9.170  13.556  1.1120  0.1890  0.9549
15319SOL     OW57935   1.011   9.064   9.733 -0.0485 -0.0171  0.2960
15319SOL    HW157936   1.082   9.091   9.792  0.1154 -0.5155  0.3403
15319SOL    HW257937   0.933   9.106   9.768  0.4433  1.7331 -0.5944
15320SOL     OW57938  11.188   7.112   3.145 -0.2134  0.5305 -0.2056
15320SOL    HW157939  11.138   7.179   3.099 -2.6936 -1.3030 -0.3860
15320SOL    HW257940  11.141   7.030   3.128  2.3383 -1.2097  0.4705
15321SOL     OW57941  10.393   4.253   1.822 -0.5645  0.1651  0.1743
15321SOL    HW157942  10.414   4.242   1.729 -0.1346  1.1095  0.1462
15321SOL    HW257943  10.469   4.216   1.868  0.3517  1.8704  0.0988
15322SOL     OW57944   8.372  11.136   5.037 -0.2467  0.1153 -0.1340
15322SOL    HW157945   8.386  11.162   5.129  0.3377  0.7244 -0.3836
15322SOL    HW257946   8.278  11.121   5.031 -0.6123  2.0267  0.1001
15323SOL     OW57947   5.866  13.296  11.138 -0.1139  0.0524 -0.5589
15323SOL    HW157948   5.819  13.269  11.059 -1.9577 -0.0364  0.4984
15323SOL    HW257949   5.940  13.236  11.143 -0.7399 -0.8471 -1.4963
15324SOL     OW57950  13.869   0.561   4.045  0.2192  0.4768  0.2634
15324SOL    HW157951  13.826   0.618   3.982 -0.6294 -0.3069  0.1212
15324SOL    HW257952  13.857   0.605   4.129 -1.4810 -0.0509  0.3306
15325SOL     OW57953   1.390   1.307  13.135 -0.0352 -0.4564 -0.0858
15325SOL    HW157954   1.310   1.359  13.137 -0.5893 -1.2949  0.3085
15325SOL    HW257955   1.416   1.300  13.226 -1.3058 -2.8200  0.1775
15326SOL     OW57956   8.452   3.708  12.168 -0.7105  0.6173 -0.0109
15326SOL    HW157957   8.404   3.680  12.089  0.0271  0.4200 -0.3970
15326SOL    HW257958   8.409   3.662  12.240  0.8679 -2.1064 -0.6794
15327SOL     OW57959   1.853  12.789   7.095  0.0124 -0.6539  0.0100
15327SOL    HW157960   1.923  12.734   7.129  0.7147  0.4657  0.4386
15327SOL    HW257961   1.897  12.868   7.063 -0.7654 -1.0330 -2.2203
15328SOL     OW57962   3.128  12.228   5.284  0.1605 -0.0972  0.2255
15328SOL    HW157963   3.119  12.215   5.189 -1.2942 -1.2377  0.4675
15328SOL    HW257964   3.181  12.306   5.293  0.5304 -0.1033 -1.5390
15329SOL     OW57965   6.057  10.204   6.953  0.0622  0.0923 -0.0793
15329SOL    HW157966   6.113  10.253   7.013  1.1024  0.4036 -1.2905
15329SOL    HW257967   6.070  10.113   6.978 -0.3439  0.2684  0.8524
15330SOL     OW57968   5.169   8.497   8.133  0.1283 -0.1170  0.0755
15330SOL    HW157969   5.196   8.573   8.183 -0.9593 -0.5685  1.3929
15330SOL    HW257970   5.100   8.456   8.185  0.1519 -1.5803 -0.9631
15331SOL     OW57971   2.544  13.190   8.828  0.2313 -0.2590  0.7703
15331SOL    HW157972   2.473  13.189   8.892 -0.3036  1.0849  0.2439
15331SOL    HW257973   2.606  13.255   8.861  0.2044  0.0679  0.1911
15332SOL     OW57974   4.419   0.022   9.061  0.6530 -0.2852  0.2102
15332SOL    HW157975   4.375  -0.001   9.143  0.7945  1.4725  0.8027
15332SOL    HW257976   4.474   0.096   9.083  0.2166  0.6301 -1.6198
15333SOL     OW57977   4.623   3.997  11.862  0.3126  0.4230  0.4581
15333SOL    HW157978   4.651   4.050  11.937  0.7774 -0.1119  0.6704
15333SOL    HW257979   4.654   4.045  11.786 -0.0570  0.9121  0.6097
15334SOL     OW57980  11.218   6.964   5.305  0.0399 -0.7888 -0.0202
15334SOL    HW157981  11.146   7.027   5.299  0.9760  0.3233  0.0479
15334SOL    HW257982  11.221   6.924   5.219  0.1320  0.0724 -0.4300
15335SOL     OW57983  10.054   3.221   2.943  0.0650  0.2924  0.3957
15335SOL    HW157984  10.064   3.309   2.907  0.0032  0.4204  0.6934
15335SOL    HW257985  10.123   3.213   3.009  0.3142 -0.0196  0.1025
15336SOL     OW57986   0.611  12.982  10.446 -0.2938  0.1652  0.0539
15336SOL    HW157987   0.689  12.974  10.501  0.5658  1.2234 -0.9570
15336SOL    HW257988   0.624  12.916  10.377 -1.6808 -1.6198  1.4035
15337SOL     OW57989  10.301   4.287   3.746 -0.1624  0.0748 -0.2712
15337SOL    HW157990  10.361   4.331   3.685  0.0628  1.4072  0.8621
15337SOL    HW257991  10.294   4.198   3.712  2.1407 -0.0135 -0.6847
15338SOL     OW57992   5.815   2.686   7.997  0.3665 -0.1888  0.0288
15338SOL    HW157993   5.805   2.664   7.904  0.4869 -0.0544 -0.0159
15338SOL    HW257994   5.886   2.630   8.026  1.1583  0.6368 -0.2580
15339SOL     OW57995  12.407  12.636   5.444 -0.0659  0.7559  0.1060
15339SOL    HW157996  12.331  12.650   5.500  0.2266 -1.7239  1.3106
15339SOL    HW257997  12.482  12.658   5.500  0.2258 -1.6685  0.7996
15340SOL     OW57998   3.963   0.496   6.905  0.3470 -0.2500 -0.1826
15340SOL    HW157999   4.024   0.568   6.888  1.8866 -1.6331 -0.7553
15340SOL    HW258000   4.019   0.420   6.920 -1.2066 -1.1719  1.3280
15341SOL     OW58001   0.413  13.065  10.695  0.3422  0.5704  0.1001
15341SOL    HW158002   0.360  13.029  10.625  1.1937  0.3551 -0.4419
15341SOL    HW258003   0.374  13.030  10.775  0.9524 -1.3325 -0.3884
15342SOL     OW58004   9.913   2.939   8.666 -0.0267  0.5530  0.0360
15342SOL    HW158005   9.921   2.967   8.757  0.7860  0.9980 -0.1635
15342SOL    HW258006   9.843   2.874   8.667 -1.0315  1.5921  0.7511
15343SOL     OW58007   6.020  12.735   9.060 -0.5754  0.2963  0.7345
15343SOL    HW158008   5.955  12.778   9.116 -0.4210  0.7243  0.5868
15343SOL    HW258009   6.090  12.710   9.119  0.4988  2.4875  0.4761
15344SOL     OW58010   4.934   4.025  12.267  0.3717 -0.1519 -0.0166
15344SOL    HW158011   4.901   4.091  12.328  0.3638  0.2814 -0.4787
15344SOL    HW258012   4.955   3.949  12.322  0.1898  0.1640  0.4946
15345SOL     OW58013   5.976   2.453   0.392 -0.1312 -0.0314 -0.1481
15345SOL    HW158014   6.017   2.524   0.442 -1.6863  1.2180 -0.5435
15345SOL    HW258015   5.885   2.453   0.423 -0.0906 -2.1050  0.0730
15346SOL     OW58016  12.605   4.219   2.724  0.1643 -0.2560  0.3293
15346SOL    HW158017  12.582   4.154   2.659 -0.0354 -1.2240  1.3470
15346SOL    HW258018  12.611   4.301   2.675  1.0449 -1.1297 -1.0848
15347SOL     OW58019   6.289  13.580   7.756 -0.1090  0.5183  0.1584
15347SOL    HW158020   6.281  13.622   7.671 -1.4619  0.7045  0.3469
15347SOL    HW258021   6.271  13.650   7.819  1.4014  0.5063  0.6334
15348SOL     OW58022  10.880   6.491   7.275  0.1364 -0.2604  0.1416
15348SOL    HW158023  10.870   6.549   7.350 -0.1332 -0.4099  0.2188
15348SOL    HW258024  10.842   6.539   7.201  1.4985  0.4165 -0.1616
15349SOL     OW58025  11.363   6.317   4.759  0.0631 -0.3556  0.5300
15349SOL    HW158026  11.453   6.326   4.790 -0.2395  3.1504  0.8169
15349SOL    HW258027  11.371   6.303   4.665  0.9829  1.4531  0.2948
15350SOL     OW58028   4.926   2.610   8.245  0.3702 -0.4886 -0.1466
15350SOL    HW158029   4.876   2.692   8.240 -0.0164 -0.7101  0.0521
15350SOL    HW258030   5.016   2.638   8.257  0.0451 -0.0773  1.7367
15351SOL     OW58031   4.905  12.128   3.180 -0.6106  0.0869  0.7441
15351SOL    HW158032   4.989  12.167   3.157 -1.3122  1.4234  0.2837
15351SOL    HW258033   4.918  12.034   3.172  0.8707  0.2740  0.8292
15352SOL     OW58034   0.449  12.655  10.022 -0.2786 -0.2799  0.2850
15352SOL    HW158035   0.533  12.701  10.024 -0.2216 -0.4054  0.7737
15352SOL    HW258036   0.449  12.610   9.937 -0.9824  1.8022 -0.8874
15353SOL     OW58037  12.383  11.087  11.916  0.1879  0.1579  0.0270
15353SOL    HW158038  12.319  11.152  11.946 -1.9349 -1.6026 -0.4421
15353SOL    HW258039  12.398  11.108  11.824  0.7301  0.8813  0.2680
15354SOL     OW58040  11.237  12.981   4.405  0.3208  0.7747  0.3141
15354SOL    HW158041  11.249  13.004   4.313 -0.3384  0.6269  0.1824
15354SOL    HW258042  11.214  12.888   4.404 -0.7408  1.0184  0.5333
15355SOL     OW58043   8.091   6.775   4.133 -0.6103  0.3298  0.5252
15355SOL    HW158044   8.040   6.695   4.142  0.8014 -0.6032  0.5921
15355SOL    HW258045   8.150   6.758   4.060 -0.1597  1.2419  0.6549
15356SOL     OW58046   9.467   1.129  10.105 -0.5020  0.2608 -0.0325
15356SOL    HW158047   9.380   1.139  10.066 -0.3113  0.4960 -0.4022
15356SOL    HW258048   9.520   1.195  10.062 -0.6621  1.6356  1.7581
15357SOL     OW58049   4.032   3.869  12.173 -0.4481 -0.2906  0.2083
15357SOL    HW158050   4.029   3.798  12.238 -1.3640  0.1348  0.6532
15357SOL    HW258051   4.125   3.876  12.149 -0.1372 -0.6690  1.2439
15358SOL     OW58052   2.278   2.598   4.985 -0.0158 -0.3026  0.5994
15358SOL    HW158053   2.198   2.554   5.016  0.2639  0.4857  2.5893
15358SOL    HW258054   2.278   2.682   5.031  0.9391  0.5852 -0.9365
15359SOL     OW58055   4.418   2.950  11.152  0.3319  0.3221  0.0190
15359SOL    HW158056   4.331   2.950  11.112 -0.9916  0.5563  2.7021
15359SOL    HW258057   4.417   2.876  11.213  1.3561  1.3293  1.3239
15360SOL     OW58058   0.050   8.414   9.025  0.6730  0.2122  0.2197
15360SOL    HW158059   0.049   8.468   8.946 -1.5641 -0.4443 -0.2942
15360SOL    HW258060   0.123   8.354   9.013  0.0552 -0.2274 -1.6261
15361SOL     OW58061   7.649   3.960   8.488 -0.1800  0.3049  0.0832
15361SOL    HW158062   7.620   3.905   8.561 -1.1788  1.4988  0.6382
15361SOL    HW258063   7.678   3.899   8.421 -0.0564 -0.8485  1.1510
15362SOL     OW58064  11.422   4.477   1.161  0.0065 -0.0802 -0.3805
15362SOL    HW158065  11.455   4.557   1.121  0.5422  0.4937  1.1744
15362SOL    HW258066  11.413   4.497   1.254 -0.5468 -1.5958 -0.0716
15363SOL     OW58067   4.524  13.233   0.248  0.2214 -0.6123 -0.6865
15363SOL    HW158068   4.455  13.201   0.190 -2.6979 -2.0270  3.1614
15363SOL    HW258069   4.590  13.164   0.246 -0.6154 -1.4249 -1.0893
15364SOL     OW58070   4.064   2.415   2.996  0.1114  0.5798  0.4011
15364SOL    HW158071   4.060   2.330   2.953  2.1795  0.5832  0.0900
15364SOL    HW258072   4.041   2.397   3.087  0.7765 -0.3817  0.3921
15365SOL     OW58073   2.432   9.025   3.328  0.2827  0.1762 -0.1112
15365SOL    HW158074   2.503   8.984   3.279  1.2445  2.0856 -0.3759
15365SOL    HW258075   2.432   8.980   3.412  0.7928 -0.8700 -0.6559
15366SOL     OW58076   8.887   1.646  12.034  0.3956  0.7493  0.2360
15366SOL    HW158077   8.969   1.597  12.022  0.2470  0.4324  0.4955
15366SOL    HW258078   8.849   1.652  11.946  0.1442 -0.0862  0.2809
15367SOL     OW58079   5.463   4.675   8.339  0.1016  0.6304 -0.3217
15367SOL    HW158080   5.368   4.661   8.342  0.0472  0.5064 -1.8568
15367SOL    HW258081   5.500   4.587   8.344 -0.0713  0.1388 -4.3305
15368SOL     OW58082   7.976  13.865   5.010 -0.5575 -0.3794 -0.5331
15368SOL    HW158083   7.949  13.935   4.950  1.4322  0.1837 -0.8546
15368SOL    HW258084   7.986  13.788   4.953 -2.2159 -0.8338 -0.2681
15369SOL     OW58085  10.840   4.620  10.146  0.1456 -0.2521  0.2783
15369SOL    HW158086  10.936   4.622  10.154  0.1500 -0.7272  0.4118
15369SOL    HW258087  10.812   4.709  10.163  0.4734 -0.3644  1.4907
15370SOL     OW58088   9.079  12.822   8.781  0.2977 -0.0570 -0.7596
15370SOL    HW158089   8.983  12.825   8.784  0.3268  0.3060  1.5113
15370SOL    HW258090   9.107  12.910   8.805  1.1783 -0.5079 -0.0449
15371SOL     OW58091   9.897   6.235   1.032  1.0253  0.0459 -0.2905
15371SOL    HW158092   9.950   6.210   0.956 -2.6649 -2.1733 -2.4194
15371SOL    HW258093   9.883   6.152   1.079 -1.2465  0.3333 -0.3694
15372SOL     OW58094  11.606   5.366   5.095 -0.0671  0.5578  0.3643
15372SOL    HW158095  11.554   5.435   5.054  0.5652  0.7183 -0.1752
15372SOL    HW258096  11.552   5.288   5.087  0.2448  0.4695 -1.2676
15373SOL     OW58097   9.807   6.793   0.300  0.5103 -0.5394 -0.0559
15373SOL    HW158098   9.849   6.878   0.289 -0.8835  0.2955  0.8205
15373SOL    HW258099   9.872   6.730   0.269  1.9309  0.7710  0.1541
15374SOL     OW58100   1.588   3.542  10.662  0.4825 -0.1216 -0.0806
15374SOL    HW158101   1.556   3.463  10.704  0.8887 -0.1183  0.2340
15374SOL    HW258102   1.573   3.611  10.726 -4.1987  0.9935 -1.9392
15375SOL     OW58103   5.079   6.856   3.448  0.0203  0.3616 -0.0354
15375SOL    HW158104   5.028   6.936   3.441 -2.2704 -1.0798 -0.9765
15375SOL    HW258105   5.153   6.869   3.389  0.2827  2.1720  0.6557
15376SOL     OW58106   9.627   8.208  12.247 -0.0672  0.4860  0.1712
15376SOL    HW158107   9.688   8.270  12.287  1.2865 -1.0627  0.6162
15376SOL    HW258108   9.670   8.123  12.255 -0.3716 -0.1440 -3.2572
15377SOL     OW58109   4.788   5.795   6.292 -0.4262  0.1032 -0.3082
15377SOL    HW158110   4.710   5.789   6.237  0.3489  0.7473 -1.5254
15377SOL    HW258111   4.858   5.758   6.238  0.0848 -0.7089  0.8667
15378SOL     OW58112   6.031  10.018   8.759  0.5805  0.2115 -0.5535
15378SOL    HW158113   6.056  10.036   8.849  0.6828  1.0289 -0.7380
15378SOL    HW258114   6.086   9.945   8.733  0.5431 -0.0375  0.0476
15379SOL     OW58115   4.977  10.640  12.254 -0.0856 -0.1045  0.1549
15379SOL    HW158116   4.903  10.701  12.254  0.2037  0.2501  0.0728
15379SOL    HW258117   4.992  10.620  12.162  0.1657  0.1306  0.1419
15380SOL     OW58118   2.452  11.151   2.478 -0.2412 -0.7450 -0.5764
15380SOL    HW158119   2.376  11.096   2.496  1.0235 -2.0315  1.2236
15380SOL    HW258120   2.497  11.158   2.562  0.3931  1.9659 -1.0385
15381SOL     OW58121   2.430   9.767   1.622  0.1468  0.2578  0.4660
15381SOL    HW158122   2.348   9.747   1.577 -0.2180 -0.8741  1.5571
15381SOL    HW258123   2.437   9.699   1.690  2.9113 -0.8304 -0.7626
15382SOL     OW58124   4.011   3.614   3.079 -0.9001 -0.0226  0.2081
15382SOL    HW158125   3.985   3.522   3.066  0.6721 -0.7220  1.6229
15382SOL    HW258126   3.955   3.663   3.019 -1.7590 -1.9066 -0.6302
15383SOL     OW58127   5.662  12.642   0.695  0.6709  0.2118 -0.0789
15383SOL    HW158128   5.606  12.566   0.711  0.5758 -0.1801 -2.0773
15383SOL    HW258129   5.698  12.628   0.608  0.9060  2.3082 -0.3786
15384SOL     OW58130   3.066   6.288   8.305 -0.9276  0.3945  0.1445
15384SOL    HW158131   3.147   6.268   8.258  0.0637  1.8680  1.1724
15384SOL    HW258132   3.015   6.207   8.298  0.0565 -0.1452 -1.6301
15385SOL     OW58133   4.060   1.650   7.074  0.3367  0.2316 -0.1993
15385SOL    HW158134   4.090   1.703   7.148  0.5670  0.3748 -0.3939
15385SOL    HW258135   3.965   1.649   7.082  0.3063  1.0331 -0.4388
15386SOL     OW58136   5.439   6.000   7.751  0.3332  0.3883 -0.1590
15386SOL    HW158137   5.467   5.953   7.829 -0.1395 -1.0728 -0.8349
15386SOL    HW258138   5.372   6.061   7.783 -0.0716 -0.3966  0.5515
15387SOL     OW58139  10.702  13.618   0.405  0.7302  0.0582  0.0567
15387SOL    HW158140  10.739  13.532   0.387  1.7851  0.4707  0.2115
15387SOL    HW258141  10.738  13.643   0.490 -0.8062 -0.0080  0.7688
15388SOL     OW58142   2.860   5.033   0.138 -0.1651 -0.4684 -0.0972
15388SOL    HW158143   2.788   4.997   0.086 -0.7921  1.4287 -0.6290
15388SOL    HW258144   2.862   4.979   0.217 -0.2988 -2.3465 -1.2992
15389SOL     OW58145   6.245   8.738   8.884  0.2340  0.1508 -0.4882
15389SOL    HW158146   6.199   8.801   8.940 -0.8620 -2.7400  2.1295
15389SOL    HW258147   6.332   8.730   8.924  0.5519  0.3293 -1.1299
15390SOL     OW58148   8.704   6.620   9.278  0.1647  0.5160 -0.3669
15390SOL    HW158149   8.615   6.594   9.256  1.0144 -1.5809 -1.6033
15390SOL    HW258150   8.706   6.715   9.264 -2.3924  1.0001  1.8029
15391SOL     OW58151   2.518   4.908   0.422  0.6397  0.1482 -0.4459
15391SOL    HW158152   2.571   4.898   0.501  2.1186 -1.3230 -1.5470
15391SOL    HW258153   2.469   4.989   0.435  1.8178  0.6088  1.4080
15392SOL     OW58154   9.689   8.424   8.008  0.6194  0.3868  0.4756
15392SOL    HW158155   9.640   8.452   8.085  0.3144  1.2135 -0.0138
15392SOL    HW258156   9.778   8.455   8.024  0.4035  1.1647  0.1835
15393SOL     OW58157   6.345  11.874   5.559  0.3836  0.8381  0.3931
15393SOL    HW158158   6.256  11.843   5.572  0.3324  1.1575  0.8238
15393SOL    HW258159   6.362  11.931   5.634  0.3830  2.0379 -0.4871
15394SOL     OW58160   1.291   5.767  11.415  0.1504 -0.3173 -0.2157
15394SOL    HW158161   1.316   5.690  11.467 -0.7647 -1.7258 -1.7486
15394SOL    HW258162   1.224   5.811  11.468 -0.7763 -1.7271 -0.1387
15395SOL     OW58163   0.207   3.836   7.261 -0.0361  0.1870  0.1522
15395SOL    HW158164   0.217   3.775   7.334 -0.0061  0.0346  0.0215
15395SOL    HW258165   0.295   3.841   7.223  0.1949  1.0731  0.7644
15396SOL     OW58166   8.925  10.388  11.528 -0.1224 -0.7524 -0.0413
15396SOL    HW158167   8.911  10.442  11.450  1.6178  0.1353  0.2183
15396SOL    HW258168   9.007  10.342  11.511  2.4018  2.2513  2.6325
15397SOL     OW58169   7.061   4.087   0.694  0.8603 -0.2832  0.4614
15397SOL    HW158170   7.075   4.143   0.617 -0.3176  1.5101  1.4744
15397SOL    HW258171   7.089   4.140   0.768 -1.6694 -0.3843  1.6078
15398SOL     OW58172  10.791   7.584  13.586  0.6528  0.4064 -0.2346
15398SOL    HW158173  10.774   7.523  13.514 -0.0003  0.1335  0.1426
15398SOL    HW258174  10.802   7.669  13.543 -0.7078  0.4214 -0.5866
15399SOL     OW58175   1.136   7.535   0.775 -0.0232  0.7814 -0.2994
15399SOL    HW158176   1.093   7.458   0.739 -0.5004  0.2004  1.4037
15399SOL    HW258177   1.141   7.597   0.702 -2.1897  0.2153 -0.9971
15400SOL     OW58178   7.518   0.145   0.862  0.7593  0.1676 -0.1417
15400SOL    HW158179   7.553   0.063   0.897  0.5230  0.0784 -0.1179
15400SOL    HW258180   7.485   0.123   0.775 -0.0506  0.0577  0.1844
15401SOL     OW58181   5.248   6.684  10.406 -0.4038  0.1342 -0.3177
15401SOL    HW158182   5.290   6.674  10.320 -0.5516 -0.7453 -0.2906
15401SOL    HW258183   5.164   6.639  10.396 -0.2420 -0.3385  0.4150
15402SOL     OW58184   5.388   0.058   7.750  0.1250  0.3249  0.2101
15402SOL    HW158185   5.343  -0.013   7.794  0.3644  0.7851  1.2120
15402SOL    HW258186   5.430   0.108   7.820  3.2748 -0.7770 -0.7263
15403SOL     OW58187  10.973  13.646  11.446 -0.4934 -0.3920  0.2410
15403SOL    HW158188  10.994  13.596  11.367 -0.2471 -0.1040  0.1197
15403SOL    HW258189  10.917  13.588  11.497 -1.6629 -0.1350 -0.6926
15404SOL     OW58190   3.354   9.834   7.408 -0.2227  0.3436  0.1066
15404SOL    HW158191   3.319   9.922   7.423 -0.3255  0.7536 -2.2509
15404SOL    HW258192   3.278   9.776   7.417 -0.4055  0.6311  0.4228
15405SOL     OW58193   9.480  13.429  12.073  0.8547  0.1518  0.3883
15405SOL    HW158194   9.432  13.469  12.001  1.9946  1.2725  0.2182
15405SOL    HW258195   9.413  13.406  12.137  0.1063  2.1001  0.3705
15406SOL     OW58196   4.030  10.414   7.826 -0.3088 -0.7153 -0.0585
15406SOL    HW158197   3.961  10.353   7.851  0.6888 -1.3155  1.4148
15406SOL    HW258198   3.998  10.499   7.857 -0.4618 -0.9638  0.4864
15407SOL     OW58199   0.959  10.589  12.363  0.0101 -0.4372  0.5010
15407SOL    HW158200   0.876  10.542  12.362  0.9586 -2.2262  0.4862
15407SOL    HW258201   0.980  10.602  12.270  0.3363 -1.1643  0.4601
15408SOL     OW58202   1.297   6.084   4.083 -0.2170  0.9190  0.0635
15408SOL    HW158203   1.348   6.106   4.005 -1.0043  1.3322 -0.3442
15408SOL    HW258204   1.219   6.138   4.076 -1.4183 -0.7690 -0.0902
15409SOL     OW58205  11.310   1.002   0.268  0.3420  0.3337  0.1662
15409SOL    HW158206  11.237   1.059   0.243 -0.2945 -0.0955  0.9856
15409SOL    HW258207  11.269   0.923   0.303  1.2139 -0.4784 -0.5836
15410SOL     OW58208   8.647   8.011   0.481  0.2463  0.2495 -0.2288
15410SOL    HW158209   8.721   8.070   0.497  0.9630 -0.8636  0.7030
15410SOL    HW258210   8.586   8.063   0.429  1.2369  1.5259 -0.1656
15411SOL     OW58211   2.091  11.147   6.916  1.0053 -0.5250  0.5929
15411SOL    HW158212   2.135  11.186   6.840  1.9692 -0.6150  1.0854
15411SOL    HW258213   2.147  11.170   6.990  0.4027 -0.9618  1.1902
15412SOL     OW58214   2.050   6.929   0.785 -0.2917 -0.0091  0.3556
15412SOL    HW158215   2.000   6.946   0.865  0.6594  1.6204  0.6498
15412SOL    HW258216   2.136   6.901   0.817 -0.0699  0.1416 -0.1165
15413SOL     OW58217   5.095  13.506   7.821  0.9618  0.1683 -0.3913
15413SOL    HW158218   5.071  13.414   7.811  0.4070 -0.1734  2.8201
15413SOL    HW258219   5.190  13.506   7.823  0.9618 -0.5783  0.7971
15414SOL     OW58220  13.482   3.433   5.351 -0.2227 -0.3777  0.2201
15414SOL    HW158221  13.574   3.405   5.354  0.6415  0.8159 -5.1858
15414SOL    HW258222  13.432   3.351   5.346  0.7670 -1.0092  0.4101
15415SOL     OW58223  13.487   9.030  13.711  0.0787 -0.2666  0.0299
15415SOL    HW158224  13.524   9.073  13.634 -2.4376  1.0738 -0.5318
15415SOL    HW258225  13.462   8.943  13.681  0.2669 -0.2042 -0.3057
15416SOL     OW58226   7.285   1.797   4.186 -0.0917 -0.0121 -0.2495
15416SOL    HW158227   7.377   1.812   4.209 -0.2937 -0.9587  1.2600
15416SOL    HW258228   7.280   1.823   4.094  1.3222  1.5783  0.0652
15417SOL     OW58229   5.963   2.147   8.290 -0.4258  0.1607  0.1775
15417SOL    HW158230   6.051   2.111   8.278 -1.1670 -1.6806 -0.0330
15417SOL    HW258231   5.904   2.077   8.264 -1.9932  2.0780 -1.7846
15418SOL     OW58232   0.248   9.647  11.735 -0.5138  0.0306  0.4934
15418SOL    HW158233   0.195   9.586  11.787 -0.8114 -1.5135 -1.4804
15418SOL    HW258234   0.230   9.623  11.644  2.1016  0.7358 -0.3103
15419SOL     OW58235   0.528   0.561   7.299  0.3270 -0.3132 -0.3793
15419SOL    HW158236   0.485   0.620   7.361 -3.6850 -2.2473 -0.9829
15419SOL    HW258237   0.573   0.619   7.238 -2.1192  2.0943 -0.1036
15420SOL     OW58238   8.136   1.486   7.826  0.2468 -0.0067 -0.1612
15420SOL    HW158239   8.076   1.454   7.894  0.9211 -1.3298 -0.1636
15420SOL    HW258240   8.223   1.481   7.866  0.3541  2.4602  0.0519
15421SOL     OW58241  11.671  13.968   4.192 -0.0405  0.0481 -0.4542
15421SOL    HW158242  11.580  13.988   4.212 -0.1057 -0.5205 -0.1591
15421SOL    HW258243  11.670  13.942   4.100 -0.2459 -0.3434 -0.3457
15422SOL     OW58244   1.509   6.198   0.011  0.1606 -0.5478  0.3826
15422SOL    HW158245   1.529   6.290   0.029  0.8039 -0.3821 -1.0560
15422SOL    HW258246   1.574   6.150   0.062 -0.6634 -0.2577  1.7591
15423SOL     OW58247   8.090   0.888   2.548 -0.3502  0.4205  0.1151
15423SOL    HW158248   8.137   0.834   2.484 -0.3492 -0.8611  1.1455
15423SOL    HW258249   8.019   0.832   2.579 -0.3041  0.9643  1.2830
15424SOL     OW58250  11.520   6.959  11.758 -0.4646  0.0959 -0.3126
15424SOL    HW158251  11.557   6.931  11.674  1.1338 -0.1698  0.4498
15424SOL    HW258252  11.571   7.037  11.781  3.6031 -3.1253  3.2643
15425SOL     OW58253   1.249   3.641   2.082 -0.0728 -0.9116 -0.5121
15425SOL    HW158254   1.169   3.624   2.033  1.3371 -0.9784 -2.9686
15425SOL    HW258255   1.260   3.736   2.079  1.6101 -1.0999 -3.2136
15426SOL     OW58256   0.128   8.221   5.322  0.1583 -0.0900  0.0076
15426SOL    HW158257   0.138   8.292   5.259  0.1208  0.8928  1.0606
15426SOL    HW258258   0.092   8.264   5.400  2.3076 -0.8185  1.4975
15427SOL     OW58259   0.079   6.404  13.207 -0.0560 -0.2929 -0.4217
15427SOL    HW158260   0.069   6.316  13.171  2.5444  0.1133 -2.4516
15427SOL    HW258261   0.171   6.408  13.235 -0.4280  1.4286  0.7432
15428SOL     OW58262  10.131   6.589  13.950 -0.5271  0.3690 -0.2648
15428SOL    HW158263  10.148   6.683  13.949 -0.6301  0.3890 -0.1651
15428SOL    HW258264  10.128   6.566  14.043 -1.4436  0.4391 -0.2688
15429SOL     OW58265   5.128   6.324   0.261  0.7425 -0.3028  0.4466
15429SOL    HW158266   5.177   6.266   0.202 -0.7248 -1.4174  0.2883
15429SOL    HW258267   5.195   6.384   0.295  1.7620  0.0768 -1.9427
15430SOL     OW58268   9.626   4.114  11.221  0.6705 -0.0056  0.1929
15430SOL    HW158269   9.609   4.183  11.157 -0.9660 -0.5162  0.0434
15430SOL    HW258270   9.547   4.109  11.274  1.3072 -0.8147  1.1082
15431SOL     OW58271  13.272  10.214   2.621 -0.1191 -0.6020 -0.4016
15431SOL    HW158272  13.246  10.287   2.564  0.8551 -0.1168 -0.2324
15431SOL    HW258273  13.349  10.246   2.668  0.7323 -1.9719 -0.8111
15432SOL     OW58274   2.974   9.918   7.908 -0.2924  0.2544  0.4355
15432SOL    HW158275   2.908   9.972   7.950 -0.3564 -0.3936  1.1959
15432SOL    HW258276   3.008   9.972   7.837 -0.4298  1.2435  1.1077
15433SOL     OW58277   1.372   2.086  11.622 -0.3923  0.2361 -0.0154
15433SOL    HW158278   1.375   2.049  11.710  0.1050  0.4767  0.0725
15433SOL    HW258279   1.308   2.032  11.575 -0.8257  0.2527  0.5564
15434SOL     OW58280   1.957   9.555   6.762 -0.4867 -0.1152  0.2833
15434SOL    HW158281   1.921   9.633   6.719  1.0335  0.4220 -0.0825
15434SOL    HW258282   1.972   9.583   6.853  0.4100  0.1604  0.0611
15435SOL     OW58283  11.069   9.904   7.011  0.0342 -0.2026  0.2314
15435SOL    HW158284  11.072   9.998   6.996  2.4685  0.0108  1.5604
15435SOL    HW258285  11.038   9.895   7.102  1.3327 -0.5545  0.6665
15436SOL     OW58286   0.864   3.068  13.080 -0.5080 -0.0565  0.6480
15436SOL    HW158287   0.834   3.033  13.164  0.0063 -3.4750 -0.4351
15436SOL    HW258288   0.814   3.019  13.015  0.4416  1.1567 -1.0643
15437SOL     OW58289   2.670   1.757   7.338 -0.1130 -0.1802  0.4373
15437SOL    HW158290   2.743   1.819   7.328 -1.0120  0.8351 -0.1199
15437SOL    HW258291   2.712   1.674   7.358  1.5629 -0.6324 -3.8345
15438SOL     OW58292   2.490   5.491   5.430 -0.3596 -0.2041 -0.1272
15438SOL    HW158293   2.489   5.583   5.458  1.4342 -0.3262  0.4267
15438SOL    HW258294   2.527   5.492   5.342  1.7494 -0.5547  0.7072
15439SOL     OW58295  12.791   1.470   2.042  0.5492 -0.0095 -0.7256
15439SOL    HW158296  12.710   1.429   2.071 -0.0415  1.2774 -0.4743
15439SOL    HW258297  12.796   1.450   1.948  1.9476 -3.3260 -0.0933
15440SOL     OW58298   5.022  12.544   8.703 -0.0948  0.2558  0.3263
15440SOL    HW158299   4.966  12.611   8.743 -0.6731  0.0403 -0.1111
15440SOL    HW258300   5.065  12.502   8.777 -1.6395 -0.5820  0.8022
15441SOL     OW58301   4.185   6.883   4.651 -0.0568  0.0921  0.8496
15441SOL    HW158302   4.111   6.903   4.708  0.0610  0.8353  0.7567
15441SOL    HW258303   4.172   6.938   4.574  0.5982  0.2527  0.8413
15442SOL     OW58304   2.164  13.893   5.916  0.0749  0.2326 -0.1501
15442SOL    HW158305   2.154  13.968   5.976  0.1799  0.3226 -0.2446
15442SOL    HW258306   2.249  13.907   5.874  0.4520 -0.3517  0.3984
15443SOL     OW58307   5.155  14.022   7.318 -0.1437 -0.1646 -0.3617
15443SOL    HW158308   5.183  14.107   7.352 -2.9497  0.5497  0.4776
15443SOL    HW258309   5.122  14.041   7.230  0.7088 -0.7204 -0.8133
15444SOL     OW58310  13.518   5.506   1.726  0.0036 -0.1577  0.2527
15444SOL    HW158311  13.597   5.463   1.759 -0.4551 -1.8706 -0.7369
15444SOL    HW258312  13.478   5.546   1.802  2.4210  1.7970  0.5976
15445SOL     OW58313   1.289   0.311   8.113 -0.1089  0.3968  0.2552
15445SOL    HW158314   1.343   0.336   8.038 -1.0065  1.2187 -0.1360
15445SOL    HW258315   1.246   0.231   8.086  1.1567 -0.4701  0.7061
15446SOL     OW58316  13.208   4.265   5.628  0.0988  1.0540 -0.0092
15446SOL    HW158317  13.195   4.283   5.535  0.1004 -0.0990 -0.2388
15446SOL    HW258318  13.296   4.297   5.646 -0.1171  1.8185 -0.2558
15447SOL     OW58319  10.876   2.557  13.130 -0.0470  0.6008 -0.9522
15447SOL    HW158320  10.866   2.475  13.082 -1.3055 -0.1309  0.4854
15447SOL    HW258321  10.874   2.532  13.222  0.8436  2.1245 -0.4858
15448SOL     OW58322   8.812  13.251   9.958  0.0307 -0.4009 -0.2736
15448SOL    HW158323   8.776  13.165   9.937 -0.0818 -0.6874  1.0171
15448SOL    HW258324   8.804  13.258  10.053  0.9516  0.6222 -0.2477
15449SOL     OW58325   8.522   8.981   7.330  0.6127 -0.1220 -0.2033
15449SOL    HW158326   8.603   9.019   7.363  0.5464 -0.1588  0.0097
15449SOL    HW258327   8.544   8.891   7.307  0.0911 -0.9699  2.2392
15450SOL     OW58328   1.153   5.537  11.681 -0.2108 -0.2016 -0.4436
15450SOL    HW158329   1.095   5.585  11.621  1.8586  0.9372 -1.6601
15450SOL    HW258330   1.145   5.584  11.764  0.5688  1.3468 -1.1962
15451SOL     OW58331  13.031  10.909   9.807  0.1435  0.4996 -0.8456
15451SOL    HW158332  13.013  10.951   9.723  0.5132 -1.4181 -1.9512
15451SOL    HW258333  13.121  10.877   9.799 -1.0150 -3.1194 -1.3535
15452SOL     OW58334   0.904   8.692  11.236 -0.3703  0.3697 -0.5367
15452SOL    HW158335   0.815   8.675  11.268 -0.2628  2.5029  1.1400
15452SOL    HW258336   0.919   8.625  11.169 -1.9431 -2.2375  1.5214
15453SOL     OW58337   8.026   9.053   0.126 -0.2666 -0.0670 -0.3858
15453SOL    HW158338   7.937   9.021   0.144 -0.1594 -0.6774 -0.9248
15453SOL    HW258339   8.076   9.030   0.204 -0.0500 -1.7644 -0.9785
15454SOL     OW58340  10.250  10.621   6.581  0.2110  0.9071  0.4680
15454SOL    HW158341  10.282  10.687   6.519 -0.7812  0.8010 -0.1717
15454SOL    HW258342  10.290  10.539   6.550 -0.3705  0.8339 -0.1209
15455SOL     OW58343   1.415   1.425   3.802 -0.8368  0.2909 -0.1436
15455SOL    HW158344   1.411   1.340   3.760 -0.0567  0.6148 -0.9031
15455SOL    HW258345   1.507   1.436   3.827 -0.7173  1.3191 -0.9595
15456SOL     OW58346   4.859  12.417  13.699  0.1251 -0.6543  0.4058
15456SOL    HW158347   4.824  12.507  13.703 -0.9703 -0.9178 -1.6104
15456SOL    HW258348   4.944  12.422  13.743 -1.1181  0.7007  2.8948
15457SOL     OW58349   3.261   1.437   2.371  0.0183 -0.1402 -0.3360
15457SOL    HW158350   3.317   1.387   2.429 -1.8650 -1.0845  0.7753
15457SOL    HW258351   3.279   1.529   2.393  1.6367 -0.3719 -0.5716
15458SOL     OW58352   7.464   3.436   7.324  0.0221 -0.4085 -0.2157
15458SOL    HW158353   7.476   3.360   7.267  2.6714 -1.1098  1.1250
15458SOL    HW258354   7.400   3.407   7.389  1.6596 -1.9227  0.8206
15459SOL     OW58355   3.744  12.871   9.609 -0.0880  0.1038 -0.1739
15459SOL    HW158356   3.831  12.831   9.602  0.1476  0.2549  1.3700
15459SOL    HW258357   3.726  12.907   9.522  0.1154 -2.4662 -1.3592
15460SOL     OW58358   5.083   6.900   6.510 -0.0096  0.2138 -0.2604
15460SOL    HW158359   5.178   6.899   6.502 -0.0053  1.5509 -0.5495
15460SOL    HW258360   5.052   6.933   6.426 -0.6243  1.5514  0.4548
15461SOL     OW58361   0.528   0.111  12.226 -0.0810  0.1729  0.0524
15461SOL    HW158362   0.492   0.170  12.292  0.0749  0.7831 -0.4004
15461SOL    HW258363   0.530   0.025  12.269  0.3104  0.6185  0.9346
15462SOL     OW58364  12.460   1.529   1.627 -0.0779  0.0967 -0.0560
15462SOL    HW158365  12.419   1.595   1.571  0.3080  0.7114  0.3789
15462SOL    HW258366  12.513   1.579   1.689  1.5414 -0.6828 -0.7550
15463SOL     OW58367  12.820  13.554   7.379  0.0182 -0.1687 -0.7881
15463SOL    HW158368  12.747  13.579   7.436  0.5007 -2.7873  1.1468
15463SOL    HW258369  12.782  13.490   7.319  0.4468 -0.5824 -0.6188
15464SOL     OW58370   6.153   1.485   3.151 -0.0644 -0.4660  0.3882
15464SOL    HW158371   6.227   1.524   3.197  0.6359 -2.0361  0.6710
15464SOL    HW258372   6.186   1.464   3.064  0.5796 -3.1151  1.1647
15465SOL     OW58373   1.921   9.142   4.348 -0.3085  0.4794 -0.2543
15465SOL    HW158374   1.952   9.052   4.364 -0.5432  0.2179 -1.2268
15465SOL    HW258375   1.958   9.165   4.263 -2.2532  0.3817 -1.1674
15466SOL     OW58376  10.727   1.250   3.194 -0.1429  0.3943 -0.1647
15466SOL    HW158377  10.809   1.291   3.222 -0.0577 -1.0240  1.9135
15466SOL    HW258378  10.665   1.271   3.265 -1.4359  0.9616 -1.4191
15467SOL     OW58379  13.780   0.940   2.268 -0.2492 -0.4507  0.1185
15467SOL    HW158380  13.822   1.023   2.247 -0.4348 -0.2492  0.5365
15467SOL    HW258381  13.748   0.907   2.184  1.9352 -1.2892 -0.4439
15468SOL     OW58382   0.917  13.702  11.243 -0.2314  0.0292  0.4324
15468SOL    HW158383   0.835  13.695  11.194  1.4397  1.7202 -2.9736
15468SOL    HW258384   0.938  13.611  11.266 -1.2555 -0.8860 -1.9097
15469SOL     OW58385   1.197   9.967   6.439  0.5402  0.2099 -0.5504
15469SOL    HW158386   1.188  10.025   6.514  1.2262 -0.3628 -0.0082
15469SOL    HW258387   1.110   9.967   6.398  0.7861  2.3448 -1.1438
15470SOL     OW58388   4.879   8.944  12.916  0.3628  0.0517 -0.2632
15470SOL    HW158389   4.905   8.920  13.005  0.9921 -0.7194 -0.6395
15470SOL    HW258390   4.831   8.869  12.883 -0.4883  0.6139 -0.3469
15471SOL     OW58391  11.757   6.089   5.472  0.2353 -0.0358 -0.0525
15471SOL    HW158392  11.826   6.023   5.467 -0.4027 -0.7209 -0.0898
15471SOL    HW258393  11.803   6.172   5.477  1.0903 -0.2591 -2.6497
15472SOL     OW58394   8.036   3.983   2.098 -0.1077  0.1716  0.1204
15472SOL    HW158395   7.977   4.037   2.150 -0.8305 -0.0969 -0.3963
15472SOL    HW258396   8.018   4.008   2.007  0.8444  0.3493 -0.0351
15473SOL     OW58397  11.889   7.299   0.671 -0.3526 -0.5188 -0.3508
15473SOL    HW158398  11.877   7.379   0.620  0.9917 -0.1477 -0.1170
15473SOL    HW258399  11.801   7.263   0.680 -0.9197  0.6942 -0.8501
15474SOL     OW58400   7.324   7.695   4.847 -0.0829  0.2604 -0.2004
15474SOL    HW158401   7.264   7.629   4.814  0.5117  0.0863 -0.9727
15474SOL    HW258402   7.276   7.739   4.917 -0.1345 -1.6145  0.9786
15475SOL     OW58403  12.623   1.383   7.030  0.4531 -0.1936  0.1084
15475SOL    HW158404  12.684   1.436   6.978  0.2917 -0.0848  0.0300
15475SOL    HW258405  12.537   1.403   6.993  0.4978 -1.4758 -0.7873
15476SOL     OW58406   4.409   6.267   1.302 -0.4059 -0.6213  0.3275
15476SOL    HW158407   4.331   6.252   1.355  0.2946 -1.0363  1.2658
15476SOL    HW258408   4.478   6.284   1.365  0.4761 -1.2183 -0.4564
15477SOL     OW58409  11.624   9.644   0.136  0.1193  0.0180 -0.1403
15477SOL    HW158410  11.623   9.554   0.103  4.8867 -0.0826 -0.7093
15477SOL    HW258411  11.562   9.644   0.208 -2.1553 -2.8832 -1.8659
15478SOL     OW58412   5.143   0.287  10.814 -0.3475 -0.4204 -0.0362
15478SOL    HW158413   5.111   0.257  10.899 -0.1264 -1.0839 -0.1851
15478SOL    HW258414   5.172   0.208  10.769  0.6063  0.0525 -0.2859
15479SOL     OW58415   5.653   4.296   1.092  0.3688 -0.2716  0.2692
15479SOL    HW158416   5.623   4.215   1.051  0.9251  0.1042 -0.9255
15479SOL    HW258417   5.573   4.334   1.129  0.0749 -1.2684  0.6984
15480SOL     OW58418   8.493   9.347   0.248  0.7930 -0.6023  0.4425
15480SOL    HW158419   8.517   9.293   0.324  1.6661 -0.6574  0.1420
15480SOL    HW258420   8.516   9.436   0.275  0.5801 -0.5526  0.4536
15481SOL     OW58421   5.594  12.333   1.356 -0.7952  0.1056  0.5021
15481SOL    HW158422   5.647  12.406   1.324 -1.6349 -0.4813 -2.5657
15481SOL    HW258423   5.504  12.358   1.336 -1.0593 -1.9471 -1.2194
15482SOL     OW58424   0.653   8.279  11.745 -0.1740 -0.1278 -0.1663
15482SOL    HW158425   0.588   8.264  11.815 -1.5746 -0.1200 -1.4136
15482SOL    HW258426   0.657   8.196  11.698  1.4126 -0.4043  0.4038
15483SOL     OW58427  12.608   6.140  11.703 -0.0506  0.3748 -0.0640
15483SOL    HW158428  12.516   6.149  11.726 -0.0549  0.1764  0.0014
15483SOL    HW258429  12.607   6.105  11.614 -0.0435 -0.0491  0.0983
15484SOL     OW58430  13.475   8.172   1.007 -0.1746 -0.1951 -0.4003
15484SOL    HW158431  13.444   8.238   0.945 -0.1514  0.2937  0.1021
15484SOL    HW258432  13.524   8.221   1.073 -0.7953 -0.6181  0.3917
15485SOL     OW58433   2.086   0.471   9.546  0.0302 -0.8257 -0.3026
15485SOL    HW158434   2.059   0.380   9.534 -0.7246 -0.7185  0.4984
15485SOL    HW258435   2.161   0.466   9.605 -0.6439 -0.8809  0.5810
15486SOL     OW58436   6.964   2.884   4.113 -0.4119 -0.0725 -0.6468
15486SOL    HW158437   6.990   2.792   4.104  0.9426  0.2773 -0.6050
15486SOL    HW258438   7.047   2.932   4.110 -0.9673  1.0448  0.7640
15487SOL     OW58439   3.530  13.702   0.698  0.0693 -0.2940  0.0249
15487SOL    HW158440   3.605  13.649   0.724  0.5165  0.6276  0.6844
15487SOL    HW258441   3.568  13.785   0.668 -0.6179 -0.2802 -0.8500
15488SOL     OW58442   6.166   1.456   1.355 -0.4395 -0.7332 -0.2491
15488SOL    HW158443   6.236   1.396   1.381 -0.6214 -0.3724  1.1948
15488SOL    HW258444   6.205   1.512   1.288  0.9116 -0.0711  1.0359
15489SOL     OW58445  10.711   9.380  11.210 -0.1949 -0.1706 -0.3682
15489SOL    HW158446  10.669   9.445  11.267 -0.1538 -0.3222 -0.1617
15489SOL    HW258447  10.754   9.320  11.271 -0.6675 -0.6887 -0.5394
15490SOL     OW58448   2.489  11.356   0.418  0.1434  0.2046  0.3030
15490SOL    HW158449   2.455  11.279   0.463  0.6050  0.6729  1.4873
15490SOL    HW258450   2.501  11.422   0.487  2.3760  0.4258 -0.1933
15491SOL     OW58451   2.140   7.387   6.810 -0.6970  0.3811  0.0145
15491SOL    HW158452   2.082   7.313   6.792 -0.1699 -0.0171 -0.0717
15491SOL    HW258453   2.226   7.348   6.821 -0.4406  0.9689  0.1367
15492SOL     OW58454   3.140  11.377   9.759  0.6302  0.4914  0.3825
15492SOL    HW158455   3.099  11.463   9.768 -2.1745 -0.5652 -1.0765
15492SOL    HW258456   3.092  11.321   9.820  0.5741 -0.5727 -0.5922
15493SOL     OW58457   7.154   0.109  12.581  0.2450  1.0902  0.1560
15493SOL    HW158458   7.154   0.158  12.663  0.3706 -0.2084  0.9489
15493SOL    HW258459   7.185   0.172  12.516  1.0478  1.8720  1.2571
15494SOL     OW58460  10.923  12.558  12.854  0.3546  0.2835  0.2265
15494SOL    HW158461  10.982  12.633  12.846  0.9542 -0.3383 -1.9088
15494SOL    HW258462  10.972  12.485  12.815 -0.8457 -0.8362  0.7651
15495SOL     OW58463   6.302  12.789   5.119  0.1406  0.3271 -0.0291
15495SOL    HW158464   6.234  12.766   5.056  0.6488 -0.3597 -0.3501
15495SOL    HW258465   6.384  12.771   5.073  0.5240 -0.6047  0.9599
15496SOL     OW58466   7.794  12.580   4.033  0.0891  0.1436  0.5370
15496SOL    HW158467   7.888  12.566   4.046  0.2796  0.9787  0.1262
15496SOL    HW258468   7.774  12.534   3.951  0.7838  2.3737 -0.9981
15497SOL     OW58469   4.585   0.959   3.829  0.2292  0.4665  0.0924
15497SOL    HW158470   4.526   0.910   3.886 -0.5558  0.6698 -0.5400
15497SOL    HW258471   4.532   0.986   3.755  0.6217  2.2681  0.4036
15498SOL     OW58472   6.778  12.895  12.022 -0.1247  0.2321  0.5444
15498SOL    HW158473   6.708  12.906  11.958  1.5569 -1.0463 -1.6669
15498SOL    HW258474   6.831  12.975  12.013 -0.2983  0.3818  0.8657
15499SOL     OW58475  10.046   5.103   9.014 -0.1207 -0.0351 -0.0474
15499SOL    HW158476   9.991   5.181   9.001 -0.7976 -0.6661 -1.1334
15499SOL    HW258477  10.086   5.087   8.928 -0.6840 -1.3893 -0.0829
15500SOL     OW58478   6.497   7.168   1.587 -0.4321  0.3946  0.1019
15500SOL    HW158479   6.428   7.235   1.582 -0.8690 -0.1248 -1.0404
15500SOL    HW258480   6.450   7.085   1.594  0.0684  0.0246 -0.7925
15501SOL     OW58481  13.922  10.489  13.104  0.2804 -0.1695 -0.2841
15501SOL    HW158482  13.855  10.441  13.056  0.7096 -0.3454 -0.7184
15501SOL    HW258483  13.921  10.450  13.191 -0.9707  0.6151  0.0752
15502SOL     OW58484   6.903   4.361  12.482  0.0775 -0.6323  0.2958
15502SOL    HW158485   6.889   4.266  12.489 -1.6171 -0.3838  0.7059
15502SOL    HW258486   6.893   4.380  12.389  0.3410 -0.8352  0.2238
15503SOL     OW58487  10.774   4.499  11.168  0.0062 -0.1836  0.0686
15503SOL    HW158488  10.812   4.523  11.084  1.5228  0.7334  0.9494
15503SOL    HW258489  10.777   4.580  11.219  0.6501 -1.0736  1.5219
15504SOL     OW58490   1.925   6.463  11.830 -0.7167 -0.5738  0.4452
15504SOL    HW158491   1.962   6.375  11.830  1.5487  0.2932 -0.9521
15504SOL    HW258492   2.000   6.521  11.820 -1.6642  1.8060  4.4563
15505SOL     OW58493  10.849   3.116   7.073 -0.2605  0.1456 -0.0817
15505SOL    HW158494  10.825   3.169   7.149 -1.5081  0.2816 -0.5522
15505SOL    HW258495  10.897   3.175   7.015  0.4081  0.1244  0.4325
15506SOL     OW58496   5.711   5.332   9.584  0.1553  0.4073  0.4495
15506SOL    HW158497   5.670   5.246   9.575 -0.4565  0.5815  1.3405
15506SOL    HW258498   5.805   5.314   9.588  0.0194 -0.2438  0.8781
15507SOL     OW58499   1.099   8.508   9.847 -0.2426  0.0444 -0.0613
15507SOL    HW158500   1.119   8.452   9.922  2.8918  0.2451 -0.6158
15507SOL    HW258501   1.127   8.596   9.874  0.7280  0.1578 -1.3234
15508SOL     OW58502  12.152  12.078   0.456  0.2179  0.4884  0.2726
15508SOL    HW158503  12.211  12.095   0.382  0.0394 -0.1207 -0.0098
15508SOL    HW258504  12.064  12.089   0.420  0.1357  0.5181  0.4806
15509SOL     OW58505  11.435   9.243   1.821  0.0123 -0.1111 -0.5409
15509SOL    HW158506  11.445   9.258   1.915  1.9538 -1.4163 -0.4900
15509SOL    HW258507  11.457   9.151   1.808 -3.2397 -0.8233 -1.9326
15510SOL     OW58508   4.312  12.518  11.268  0.0079 -0.4094 -0.2891
15510SOL    HW158509   4.398  12.557  11.253  0.3196 -1.0180 -0.1147
15510SOL    HW258510   4.324  12.425  11.249 -0.1845 -0.8030  1.3485
15511SOL     OW58511   2.580   0.362   6.695 -0.2257 -0.2494 -0.2444
15511SOL    HW158512   2.551   0.271   6.699  2.0057 -0.9629  1.3980
15511SOL    HW258513   2.675   0.358   6.695 -0.0512  2.0927 -0.9240
15512SOL     OW58514   7.960   4.065   9.554 -0.4082 -0.2403 -0.4410
15512SOL    HW158515   7.873   4.034   9.528 -1.2393  1.5348  0.0540
15512SOL    HW258516   7.973   4.145   9.504  1.1397 -0.6694 -0.7892
15513SOL     OW58517   5.361   3.249   7.949  0.3876  0.0338 -0.0143
15513SOL    HW158518   5.417   3.172   7.935  1.1971  0.2739  1.6943
15513SOL    HW258519   5.352   3.287   7.862  1.8291 -0.7495 -0.5486
15514SOL     OW58520   6.349  13.177   2.818 -0.5858 -0.0980  0.1007
15514SOL    HW158521   6.299  13.223   2.750  1.4083  1.0406 -0.6927
15514SOL    HW258522   6.376  13.246   2.878  1.8446 -0.2557 -0.7048
15515SOL     OW58523  11.788  11.329   8.312 -0.2494  0.0316  0.7483
15515SOL    HW158524  11.713  11.288   8.355 -0.1006 -0.2459  0.7426
15515SOL    HW258525  11.756  11.351   8.225 -0.8733  1.5222  1.3123
15516SOL     OW58526   2.604   3.246   6.097  1.2366  0.3737  0.4509
15516SOL    HW158527   2.602   3.164   6.146  1.0780  1.2536  2.0067
15516SOL    HW258528   2.518   3.251   6.056  1.3236 -0.3270  0.1634
15517SOL     OW58529   1.146   2.656   6.537  0.4586 -0.0964  0.0053
15517SOL    HW158530   1.075   2.720   6.539 -0.2015 -0.7715 -0.9957
15517SOL    HW258531   1.104   2.573   6.563  1.0722 -0.3413  0.2441
15518SOL     OW58532   0.279   2.411  13.275 -0.2010 -0.0193 -0.2900
15518SOL    HW158533   0.346   2.465  13.316 -1.4494  1.1337  0.3107
15518SOL    HW258534   0.276   2.332  13.329  0.4601  0.0448 -0.1537
15519SOL     OW58535   6.267  12.043  13.209 -0.0202 -0.5308 -0.0323
15519SOL    HW158536   6.291  11.984  13.137  0.2565  0.0915 -0.4603
15519SOL    HW258537   6.202  12.102  13.171  2.2282  1.6834 -0.6731
15520SOL     OW58538   4.647   7.792  13.810  0.2016 -0.3537 -0.1840
15520SOL    HW158539   4.704   7.737  13.757 -1.1451 -2.1025  0.1062
15520SOL    HW258540   4.660   7.761  13.900  0.6432  0.9429  0.2217
15521SOL     OW58541   0.343  11.509   5.795  0.4457 -0.1944 -0.1234
15521SOL    HW158542   0.395  11.541   5.722  1.3681  1.5791  1.2505
15521SOL    HW258543   0.313  11.588   5.840 -0.4384 -1.2403  1.2031
15522SOL     OW58544   8.199   0.147   2.330  0.1593  0.3840  0.2050
15522SOL    HW158545   8.112   0.174   2.299 -0.6522  0.8884  2.6478
15522SOL    HW258546   8.231   0.223   2.379  0.9967 -0.5834  1.2059
15523SOL     OW58547  12.404  11.219  10.020 -0.0691 -0.2215 -0.3148
15523SOL    HW158548  12.411  11.143  10.079  2.2274 -0.5394 -0.8712
15523SOL    HW258549  12.312  11.220   9.993 -0.1616 -3.0059 -0.4881
15524SOL     OW58550   8.611  10.906   4.230 -0.2566  0.6462  0.2064
15524SOL    HW158551   8.562  10.956   4.164  0.4576  0.2888 -0.6276
15524SOL    HW258552   8.544  10.862   4.282 -0.8846 -1.6821 -2.3257
15525SOL     OW58553   6.698   9.211   1.500  0.5044  0.6984 -0.5432
15525SOL    HW158554   6.691   9.133   1.555 -1.2566  0.8212 -0.5294
15525SOL    HW258555   6.611   9.251   1.505  0.5992  1.2765 -2.5882
15526SOL     OW58556   0.470  13.183   2.976  0.4954  0.6849 -0.6195
15526SOL    HW158557   0.465  13.244   2.902 -0.5905 -0.0893 -1.2138
15526SOL    HW258558   0.421  13.226   3.046  0.8140  1.0455 -0.6109
15527SOL     OW58559   1.704   0.615  10.370 -0.0194 -0.3675  0.4072
15527SOL    HW158560   1.713   0.602  10.276  2.2844  2.1319  0.1835
15527SOL    HW258561   1.668   0.703  10.379 -3.5506 -1.7685  1.9255
15528SOL     OW58562   4.344   2.430  11.644 -0.4097 -0.2604 -0.1491
15528SOL    HW158563   4.311   2.516  11.669  0.2047  0.1783 -0.8047
15528SOL    HW258564   4.308   2.415  11.556  0.3087 -0.2129 -0.4589
15529SOL     OW58565   8.156   2.908   8.707  0.9487  0.6785  0.1527
15529SOL    HW158566   8.101   2.948   8.774  1.5056 -0.2721  1.2237
15529SOL    HW258567   8.205   2.840   8.754  1.6422  0.2419 -1.1477
15530SOL     OW58568   0.164   9.480  13.950 -0.4299  0.2629  0.1404
15530SOL    HW158569   0.148   9.390  13.920  3.7687 -0.6665  0.0506
15530SOL    HW258570   0.170   9.472  14.046  0.9914  0.1579  0.0649
15531SOL     OW58571  11.674   3.249   1.744  0.3416  0.1784 -0.6067
15531SOL    HW158572  11.684   3.230   1.651 -1.8133 -1.1082 -0.6228
15531SOL    HW258573  11.627   3.332   1.747  1.3864  0.7978 -0.6061
15532SOL     OW58574   4.612   4.750   8.181  0.3139 -0.3014 -0.3137
15532SOL    HW158575   4.592   4.735   8.274 -0.2457  1.1033 -0.1866
15532SOL    HW258576   4.605   4.663   8.141 -2.4076 -0.5357  0.4254
15533SOL     OW58577  10.480   0.455  10.727  0.0388  0.1267 -0.1361
15533SOL    HW158578  10.457   0.447  10.820  1.2584 -0.3773  0.1454
15533SOL    HW258579  10.540   0.383  10.711  0.0217  0.3420 -1.2754
15534SOL     OW58580   8.924   6.035  10.141 -0.2277  0.2647 -0.1763
15534SOL    HW158581   8.829   6.036  10.127 -0.3849 -0.2227  0.7923
15534SOL    HW258582   8.949   5.944  10.126 -0.1962  0.0143  1.2887
15535SOL     OW58583   9.995   0.557  13.408  0.2094 -0.3372  0.6010
15535SOL    HW158584  10.012   0.646  13.437  1.6618 -0.4823  0.2819
15535SOL    HW258585   9.968   0.566  13.317  1.8497 -0.2850  0.0804
15536SOL     OW58586  13.049   7.346   5.962  0.3827  0.1065  0.1165
15536SOL    HW158587  13.013   7.281   6.022  0.7531 -0.0334  0.1883
15536SOL    HW258588  12.979   7.412   5.953  0.3506  0.1588  0.7417
15537SOL     OW58589   7.502   2.760   2.372 -0.2374  0.6083 -0.4844
15537SOL    HW158590   7.555   2.751   2.292 -0.5227  0.4009 -0.6519
15537SOL    HW258591   7.414   2.733   2.345 -0.5862  1.5950 -0.3894
15538SOL     OW58592   9.481   4.671  12.182  0.2614 -0.9364  0.3814
15538SOL    HW158593   9.449   4.651  12.270 -0.9459 -0.6105  0.0434
15538SOL    HW258594   9.540   4.745  12.194 -0.6613 -0.2537  0.8176
15539SOL     OW58595   3.656   1.125  12.063 -0.7150 -0.3324  0.1038
15539SOL    HW158596   3.734   1.154  12.016  0.3787 -1.4701  1.1766
15539SOL    HW258597   3.591   1.111  11.994  0.8426 -1.9851 -1.1099
15540SOL     OW58598   8.905   5.959  10.976 -0.3355 -0.0613  0.2368
15540SOL    HW158599   8.957   5.974  10.897 -0.2930 -1.3940 -0.0119
15540SOL    HW258600   8.962   5.988  11.047  0.1533 -0.0671 -0.1424
15541SOL     OW58601   1.496   4.322   8.635  0.0814 -0.0587 -0.5324
15541SOL    HW158602   1.467   4.254   8.697  1.1743  0.3817  0.4974
15541SOL    HW258603   1.417   4.373   8.617  0.0647  1.0185  2.0920
15542SOL     OW58604   9.517  12.378   2.750  0.3439  0.5029  0.0507
15542SOL    HW158605   9.427  12.409   2.748  0.4255  0.7721  0.3578
15542SOL    HW258606   9.558  12.429   2.820  0.5548 -0.0988  0.3753
15543SOL     OW58607   4.377   3.588   4.746  0.3113  0.0991  0.4173
15543SOL    HW158608   4.333   3.659   4.792 -0.9865 -0.9993  0.9598
15543SOL    HW258609   4.467   3.618   4.735 -0.7410  2.8784 -1.6327
15544SOL     OW58610   1.220   2.064  12.085 -0.2677 -0.2929  0.5623
15544SOL    HW158611   1.208   2.030  11.996 -0.4175  1.7681 -0.2496
15544SOL    HW258612   1.315   2.078  12.092 -0.1663 -1.1010  1.0187
15545SOL     OW58613  10.771   3.982   5.800 -0.1502 -0.3346 -0.0192
15545SOL    HW158614  10.704   4.040   5.764 -0.3722 -0.3350  0.3898
15545SOL    HW258615  10.738   3.959   5.887  2.0193  2.4959  1.7085
15546SOL     OW58616   2.216   1.159   5.275 -0.0877 -0.4869 -0.0516
15546SOL    HW158617   2.215   1.244   5.319 -1.7330 -0.7969  0.6029
15546SOL    HW258618   2.282   1.108   5.322  0.0944  0.0614  0.2962
15547SOL     OW58619  10.642   7.235   4.246  0.2613 -0.4311 -0.0381
15547SOL    HW158620  10.629   7.319   4.289  0.6239 -0.2307 -0.3190
15547SOL    HW258621  10.565   7.224   4.189  0.5996  0.0762 -0.5981
15548SOL     OW58622   3.768  11.132  10.629  0.4768 -0.1748 -0.1901
15548SOL    HW158623   3.798  11.057  10.578 -0.0258 -1.2130  1.0101
15548SOL    HW258624   3.755  11.201  10.564  0.7898 -1.1659 -1.3360
15549SOL     OW58625   3.607   0.640   7.371 -0.8450 -0.0212 -0.0778
15549SOL    HW158626   3.694   0.605   7.392 -1.0428  0.6105  2.0400
15549SOL    HW258627   3.560   0.566   7.334 -0.0000 -0.9045  0.5497
15550SOL     OW58628  12.644   5.927   7.603 -0.4849  0.1321 -0.2016
15550SOL    HW158629  12.692   5.878   7.670 -0.3772  0.8612  0.2729
15550SOL    HW258630  12.559   5.885   7.597 -0.8899  0.7269  1.1856
15551SOL     OW58631  11.035   9.022  13.385 -0.3963 -0.7578 -0.1237
15551SOL    HW158632  11.059   8.932  13.365  3.0941 -0.1493  0.4935
15551SOL    HW258633  11.093   9.046  13.458 -1.4076  1.8858 -0.0786
15552SOL     OW58634   1.409   1.166  12.701 -0.3788  0.1416  0.3221
15552SOL    HW158635   1.460   1.136  12.776  0.6233 -0.1230 -0.4449
15552SOL    HW258636   1.323   1.188  12.737  0.3799  0.9459  1.7019
15553SOL     OW58637  12.885   5.107   8.129 -0.1042 -0.1733  0.4946
15553SOL    HW158638  12.914   5.162   8.202  0.3653 -1.2248  1.1277
15553SOL    HW258639  12.958   5.046   8.115 -0.3284 -0.1940 -0.6478
15554SOL     OW58640  10.296   0.264   1.255  0.5992  0.0240  0.4848
15554SOL    HW158641  10.358   0.332   1.229  1.8098 -1.3059 -0.2074
15554SOL    HW258642  10.258   0.297   1.336  2.0449  0.9924  0.8138
15555SOL     OW58643  13.937  11.497   3.983  0.1767 -0.9125 -0.1492
15555SOL    HW158644  13.939  11.591   3.997 -1.1642 -0.7161 -1.0621
15555SOL    HW258645  13.973  11.485   3.895 -2.6284 -0.8724 -1.4064
15556SOL     OW58646   9.993   7.224  13.695 -0.1073  0.0376  0.7177
15556SOL    HW158647   9.947   7.140  13.686  0.3063 -0.1262  0.0742
15556SOL    HW258648  10.071   7.215  13.640 -0.4327  1.1060  0.0474
15557SOL     OW58649   9.652   8.386   2.465 -0.1822 -0.2022  0.2102
15557SOL    HW158650   9.602   8.443   2.407  0.6746 -0.2181 -0.5829
15557SOL    HW258651   9.626   8.411   2.553  0.3962  1.6459 -0.1058
15558SOL     OW58652   9.256  13.338   3.747 -0.1825 -0.0703  0.5023
15558SOL    HW158653   9.167  13.313   3.723 -0.6701  0.8217  1.3300
15558SOL    HW258654   9.262  13.320   3.841  0.4859 -0.0421  0.4719
15559SOL     OW58655  12.854   5.710   4.083  0.1707  0.7031 -0.1535
15559SOL    HW158656  12.858   5.686   4.176 -2.2862  0.7126  0.0165
15559SOL    HW258657  12.876   5.629   4.037  2.8133  1.0373  0.3581
15560SOL     OW58658  10.742   3.143   9.983 -0.0386  0.1517  0.3676
15560SOL    HW158659  10.833   3.116   9.993 -0.3140 -1.3333 -0.8158
15560SOL    HW258660  10.702   3.125  10.068 -0.0991 -2.9580 -0.2017
15561SOL     OW58661   0.386   3.084  11.885 -0.3632  0.6644 -0.0876
15561SOL    HW158662   0.384   3.039  11.969 -1.2515  1.8038  0.5402
15561SOL    HW258663   0.376   3.015  11.819 -1.8232 -0.0323  0.8331
15562SOL     OW58664  11.361   3.110   0.805  0.2178  0.0961  0.0208
15562SOL    HW158665  11.284   3.056   0.820  0.1204  0.7665  2.3219
15562SOL    HW258666  11.426   3.076   0.867  1.2301  0.5643 -0.7611
15563SOL     OW58667  12.020   5.977   1.872  0.2659  0.1747  0.1987
15563SOL    HW158668  12.013   5.954   1.964  2.0516 -0.7529  0.1441
15563SOL    HW258669  12.111   6.005   1.861  0.8406 -2.1232 -1.7350
15564SOL     OW58670   4.518   3.571   7.160  0.1223 -0.1132 -0.0042
15564SOL    HW158671   4.549   3.598   7.247 -0.7009  0.5049  0.1077
15564SOL    HW258672   4.425   3.551   7.173 -0.4959  1.8189 -1.1079
15565SOL     OW58673   0.440   4.925   5.700  0.0885  0.6341 -0.1176
15565SOL    HW158674   0.365   4.870   5.678 -0.7189  0.3051  2.9910
15565SOL    HW258675   0.515   4.880   5.659 -0.7519 -1.9193  0.9382
15566SOL     OW58676   2.947   5.235  10.431 -0.0277 -0.0020 -0.2507
15566SOL    HW158677   3.034   5.248  10.470 -0.1714  1.4263 -0.3402
15566SOL    HW258678   2.959   5.255  10.338 -0.5267  0.6335 -0.1868
15567SOL     OW58679  13.207  13.761   6.875 -0.4201  0.6061 -0.3331
15567SOL    HW158680  13.122  13.789   6.909 -0.7236 -0.4230 -0.2333
15567SOL    HW258681  13.207  13.791   6.784 -1.2656 -0.1799 -0.5979
15568SOL     OW58682  10.187   4.689   6.091 -0.1376  0.1917  0.3743
15568SOL    HW158683  10.111   4.724   6.140 -0.2065  0.3698  0.1413
15568SOL    HW258684  10.208   4.758   6.028  0.0164  0.0030  0.2208
15569SOL     OW58685   1.200  12.188   7.361  0.4191 -0.2266  0.1744
15569SOL    HW158686   1.131  12.151   7.305 -1.8077  0.8143  2.0566
15569SOL    HW258687   1.244  12.252   7.305  0.7868 -1.7999 -1.4599
15570SOL     OW58688  11.721   0.741   7.004  0.0451 -0.1099  0.8244
15570SOL    HW158689  11.657   0.681   6.966 -0.3401  0.0673  1.1935
15570SOL    HW258690  11.693   0.828   6.975  0.1293 -0.0348  0.9693
15571SOL     OW58691   5.162   3.688  12.560 -0.1803 -0.5186 -0.0305
15571SOL    HW158692   5.076   3.651  12.541 -0.3934  0.6761 -1.5869
15571SOL    HW258693   5.208   3.685  12.477  0.8574 -0.0571  0.5107
15572SOL     OW58694  11.718   0.364  10.854  0.4264 -0.4148 -0.1151
15572SOL    HW158695  11.741   0.303  10.785 -0.5198 -0.9331  0.0185
15572SOL    HW258696  11.630   0.339  10.881  0.4190  0.3643  0.6429
15573SOL     OW58697  10.766  13.851   5.931 -0.1611 -0.4489 -0.6777
15573SOL    HW158698  10.785  13.769   5.885  2.4663 -0.0488 -0.4354
15573SOL    HW258699  10.672  13.846   5.950 -0.3722 -2.7255 -1.9386
15574SOL     OW58700  11.077   0.299   6.452  0.0721  0.4170 -0.0130
15574SOL    HW158701  11.079   0.286   6.547 -0.5185 -1.9597 -0.2687
15574SOL    HW258702  11.029   0.381   6.440  1.0082  1.2724  1.7539
15575SOL     OW58703   7.363   4.357   6.919  0.3022 -0.1300  0.1615
15575SOL    HW158704   7.284   4.338   6.968 -0.1815 -0.0584 -0.5766
15575SOL    HW258705   7.432   4.310   6.966 -0.3525 -1.1045  0.1859
15576SOL     OW58706  11.029  12.800   8.241 -0.4047  0.6694 -0.7018
15576SOL    HW158707  10.980  12.864   8.189 -0.3287  2.0943  0.8562
15576SOL    HW258708  11.000  12.816   8.331  2.5034  1.2321  0.2455
15577SOL     OW58709   3.176   6.530   6.472  0.6509 -0.6809 -0.3680
15577SOL    HW158710   3.183   6.600   6.407  1.3925 -0.8543 -0.4919
15577SOL    HW258711   3.110   6.470   6.436 -0.7500  0.4528  0.2318
15578SOL     OW58712   0.175   1.895   1.957  0.0670 -0.1622 -0.2889
15578SOL    HW158713   0.173   1.865   2.048  0.5997  2.5778  0.7295
15578SOL    HW258714   0.186   1.990   1.964 -0.6375  0.2135 -3.2286
15579SOL     OW58715   1.794   7.548   5.403  0.2648 -0.1783  0.2496
15579SOL    HW158716   1.773   7.545   5.310  2.2434 -0.5491 -0.2308
15579SOL    HW258717   1.762   7.634   5.432  1.1391  0.6881 -1.1966
15580SOL     OW58718   0.811  10.687   1.637 -0.0635  0.6353  0.0020
15580SOL    HW158719   0.723  10.660   1.613  0.3630 -0.9711  0.1057
15580SOL    HW258720   0.855  10.704   1.553 -0.0209 -0.1460 -0.1457
15581SOL     OW58721   2.050   1.133   7.730  0.3100  0.2671 -0.2016
15581SOL    HW158722   1.971   1.079   7.731  0.4877  0.0113  0.4251
15581SOL    HW258723   2.039   1.194   7.802  1.3094 -0.7032  0.8073
15582SOL     OW58724   1.327   8.545  10.122  0.3497 -0.0434  0.2493
15582SOL    HW158725   1.271   8.474  10.090  0.8283 -0.3882  0.1673
15582SOL    HW258726   1.309   8.618  10.063  0.7247 -0.4627 -0.3936
15583SOL     OW58727  10.527  11.760   9.257 -0.1348  0.3106 -0.0971
15583SOL    HW158728  10.452  11.710   9.290 -1.6505  2.0044 -0.8231
15583SOL    HW258729  10.494  11.849   9.246  2.6234  1.6870  1.7224
15584SOL     OW58730   1.510   9.078   3.302  0.0029  0.0037  0.4141
15584SOL    HW158731   1.445   9.010   3.286 -0.8349  0.9707 -0.4343
15584SOL    HW258732   1.473   9.130   3.373 -1.3728  1.9522 -1.5756
15585SOL     OW58733   0.354   4.343  10.237 -0.3458  0.3332  1.0088
15585SOL    HW158734   0.397   4.384  10.313  2.1669 -0.0954 -0.0861
15585SOL    HW258735   0.406   4.265  10.219 -2.2152 -0.7911  0.1201
15586SOL     OW58736   9.528  13.522  12.854 -0.0517 -0.4951  0.1480
15586SOL    HW158737   9.485  13.439  12.833  0.2029 -0.8087  0.8233
15586SOL    HW258738   9.603  13.497  12.908  0.3596  0.1321 -0.1215
15587SOL     OW58739   9.010   5.768   8.253  0.7711  0.4866  0.5606
15587SOL    HW158740   8.955   5.693   8.228 -0.6299  0.8260  2.4103
15587SOL    HW258741   8.998   5.831   8.182 -2.5172  1.1473  1.5431
15588SOL     OW58742   4.773   5.439  10.278  0.0422 -0.1132  0.5971
15588SOL    HW158743   4.696   5.408  10.231  0.1346  0.5839 -0.0342
15588SOL    HW258744   4.845   5.388  10.241  0.1097  0.4087 -0.0120
15589SOL     OW58745   2.686  12.009   2.192  0.2627 -0.3207  0.5585
15589SOL    HW158746   2.643  11.928   2.164 -0.3320 -0.1190  0.8714
15589SOL    HW258747   2.624  12.078   2.168  0.9814  0.0955 -0.1592
15590SOL     OW58748  13.601   3.360   5.041  0.1289  0.6712  0.1181
15590SOL    HW158749  13.659   3.326   5.110  1.0696 -0.1190 -1.0184
15590SOL    HW258750  13.641   3.444   5.016 -1.2031  1.8474  1.6994
15591SOL     OW58751   9.288   3.064   4.423  0.3381 -0.2652  0.4718
15591SOL    HW158752   9.290   3.159   4.437 -0.5819  0.1079 -1.5630
15591SOL    HW258753   9.208   3.049   4.372  2.3113 -1.5912 -2.5110
15592SOL     OW58754   5.249   3.954   8.272 -0.4141 -0.2443 -0.8628
15592SOL    HW158755   5.153   3.958   8.272 -0.4497 -0.9150 -0.8600
15592SOL    HW258756   5.269   3.864   8.298  0.2903  0.7707  2.6576
15593SOL     OW58757   6.294   8.377   6.275  0.3075  0.2835  0.2850
15593SOL    HW158758   6.325   8.440   6.210  1.1655  1.9529  2.1645
15593SOL    HW258759   6.299   8.292   6.232  1.6887  1.2040 -1.5027
15594SOL     OW58760   6.835   6.714   0.375  0.1277  0.2735  0.1508
15594SOL    HW158761   6.779   6.704   0.451  0.9160  1.0541  0.8530
15594SOL    HW258762   6.778   6.696   0.300 -1.7818  3.4416  0.6568
15595SOL     OW58763  10.703   4.816   3.712  0.8807 -0.2051 -0.3013
15595SOL    HW158764  10.682   4.910   3.714 -1.2855 -0.6079 -1.5517
15595SOL    HW258765  10.799   4.813   3.717  0.9369  1.9104  2.8508
15596SOL     OW58766   2.404   7.994  13.989 -0.1255  0.2468  0.2508
15596SOL    HW158767   2.365   7.914  13.954  0.4597 -0.3504  0.9525
15596SOL    HW258768   2.489   7.967  14.024  0.7446  1.4433 -0.8367
15597SOL     OW58769   9.856  12.906   5.691  0.4585  0.0692 -0.0084
15597SOL    HW158770   9.836  12.866   5.607  1.1835 -1.9359  0.7174
15597SOL    HW258771   9.880  12.833   5.748  1.6773  1.5320  1.4647
15598SOL     OW58772   0.950   7.005  12.143 -0.3897 -0.1160  0.1770
15598SOL    HW158773   0.923   6.975  12.229  0.4857 -0.1941  0.4397
15598SOL    HW258774   1.004   6.933  12.108  0.3076  0.4233  0.1062
15599SOL     OW58775   7.520   2.714  12.556 -0.3497  0.1586 -0.1074
15599SOL    HW158776   7.438   2.739  12.597  0.5960  2.2930  0.6462
15599SOL    HW258777   7.537   2.782  12.491 -0.0630 -1.2592 -1.6011
15600SOL     OW58778   2.909  11.608  13.220  0.0033  0.6353  0.0192
15600SOL    HW158779   3.004  11.619  13.216  0.3227  0.5407  3.8395
15600SOL    HW258780   2.897  11.514  13.231 -0.5002  0.7145  0.1490
15601SOL     OW58781  12.767   9.864   1.516  0.3679 -0.4946 -0.2573
15601SOL    HW158782  12.833   9.798   1.497 -1.8720 -2.8514 -0.3870
15601SOL    HW258783  12.730   9.837   1.600  1.1139  2.1553  1.0215
15602SOL     OW58784  13.962   4.566  11.318  0.7515 -0.5149  0.0331
15602SOL    HW158785  13.887   4.557  11.376 -0.5036  0.2577 -1.3858
15602SOL    HW258786  14.034   4.592  11.375 -0.3096 -0.2958  1.3095
15603SOL     OW58787   0.334   6.494   8.988  0.6820  0.2234  0.1005
15603SOL    HW158788   0.280   6.481   9.066  0.6957 -0.1072  0.0580
15603SOL    HW258789   0.320   6.414   8.937  1.7134 -0.1609  0.3874
15604SOL     OW58790  13.253   5.377   5.608  0.0702  0.2863 -0.1561
15604SOL    HW158791  13.288   5.460   5.575  0.5267  0.4529  0.7208
15604SOL    HW258792  13.161   5.377   5.581 -0.8154  2.5040  2.3583
15605SOL     OW58793   5.648   3.132   6.852 -0.0316  0.0004  0.3535
15605SOL    HW158794   5.574   3.192   6.852  0.1920  0.2802 -0.2854
15605SOL    HW258795   5.618   3.057   6.904 -1.4535 -0.7113 -1.3790
15606SOL     OW58796   3.987   3.707   2.266  0.0196 -0.6097  0.5645
15606SOL    HW158797   3.893   3.707   2.285 -0.3470  1.9338 -0.7854
15606SOL    HW258798   4.022   3.779   2.319  0.5655  0.6109 -1.3710
15607SOL     OW58799  10.311   3.642   7.879 -0.3324 -0.1776  0.2004
15607SOL    HW158800  10.232   3.628   7.933 -1.3757 -0.6172 -1.3781
15607SOL    HW258801  10.294   3.725   7.834 -1.4712 -1.8086 -2.6406
15608SOL     OW58802   8.934   2.398  13.906 -0.9573 -0.4214 -0.0728
15608SOL    HW158803   8.975   2.333  13.963 -0.0214 -0.3374 -0.6190
15608SOL    HW258804   8.954   2.482  13.947 -1.0101 -0.4055 -0.0796
15609SOL     OW58805   4.156   0.298  11.185 -0.4492 -0.0840  0.3086
15609SOL    HW158806   4.241   0.257  11.202 -0.5275 -0.3613  0.0508
15609SOL    HW258807   4.169   0.349  11.105 -0.7165 -0.7139 -0.1432
15610SOL     OW58808  13.921  10.022   1.003  0.1351 -0.1997 -0.5462
15610SOL    HW158809  13.955   9.968   0.932  0.3515 -2.2037  0.9863
15610SOL    HW258810  13.829   9.999   1.009 -0.0092  0.3671 -0.5025
15611SOL     OW58811   2.077   0.055   1.312  0.1029  0.3827  0.3196
15611SOL    HW158812   2.017   0.025   1.243  1.1219  0.8571 -0.8108
15611SOL    HW258813   2.126  -0.023   1.338  0.3951  0.3882 -0.2039
15612SOL     OW58814   6.136  12.105   0.871  0.0243  0.0846 -0.3342
15612SOL    HW158815   6.217  12.148   0.845  0.2612 -0.9073 -1.3352
15612SOL    HW258816   6.162  12.016   0.894 -0.3733  0.5368  2.2123
15613SOL     OW58817   7.340  10.748  11.670 -1.0561 -0.2940 -0.3458
15613SOL    HW158818   7.303  10.662  11.688 -0.7873 -0.3065  0.1585
15613SOL    HW258819   7.371  10.779  11.755 -3.0624  1.2200 -0.0807
15614SOL     OW58820   2.019  12.579   6.316  0.6012 -0.0996 -0.6494
15614SOL    HW158821   2.054  12.578   6.405 -0.1505  1.8744 -0.2849
15614SOL    HW258822   2.073  12.643   6.269 -0.3718  0.4845 -1.0021
15615SOL     OW58823  11.479  11.338   9.924  0.2558 -0.0023 -0.2513
15615SOL    HW158824  11.445  11.359  10.011  2.9327 -1.4305  1.2857
15615SOL    HW258825  11.462  11.244   9.914  0.7344 -0.0280 -0.8688
15616SOL     OW58826   1.707   0.874  12.506 -0.0989  0.0811 -0.2329
15616SOL    HW158827   1.657   0.940  12.458  0.7875  0.8015 -0.1909
15616SOL    HW258828   1.775   0.924  12.552  0.5693 -0.8528 -0.1729
15617SOL     OW58829   6.301  11.524   9.279  0.1355  0.3074 -0.2344
15617SOL    HW158830   6.302  11.563   9.192  1.7784 -1.1381 -0.9110
15617SOL    HW258831   6.333  11.593   9.336  1.0433  0.6114 -1.0960
15618SOL     OW58832   3.705   4.335  11.204 -0.0873  0.2682  0.3219
15618SOL    HW158833   3.736   4.413  11.158 -1.1082  0.1981 -0.5187
15618SOL    HW258834   3.632   4.302  11.151 -0.6924 -0.3651  1.4898
15619SOL     OW58835   0.322   3.713   4.632 -0.2440  0.3485 -0.0249
15619SOL    HW158836   0.331   3.619   4.646 -2.9752  0.4032  3.7242
15619SOL    HW258837   0.235   3.724   4.594 -0.1026  1.3894 -0.0962
15620SOL     OW58838  12.044  10.257   8.807  0.2122  0.0750  0.9326
15620SOL    HW158839  11.997  10.250   8.891  0.0890 -0.5841  0.8118
15620SOL    HW258840  12.055  10.351   8.794 -0.4167  0.2119  1.3307
15621SOL     OW58841  13.607   7.421  11.883 -0.0310  0.7057 -0.0810
15621SOL    HW158842  13.662   7.345  11.865  1.2867  1.1807  1.6698
15621SOL    HW258843  13.658   7.496  11.852 -0.6721  1.0004 -0.4468
15622SOL     OW58844   7.362  11.805   4.872  0.3360  0.2788 -0.2202
15622SOL    HW158845   7.417  11.809   4.950 -0.5118 -0.9729  0.4665
15622SOL    HW258846   7.417  11.761   4.807  0.5786  0.0950  0.1031
15623SOL     OW58847   5.649   0.967   0.939 -0.3805  0.3914 -0.0313
15623SOL    HW158848   5.575   1.011   0.980 -0.3382 -0.0010  0.4810
15623SOL    HW258849   5.713   1.037   0.924  0.0949  0.3791  1.6853
15624SOL     OW58850   2.585   6.974   5.174  0.1710  0.3672 -0.3071
15624SOL    HW158851   2.588   6.887   5.135  0.5604 -0.5135  1.5787
15624SOL    HW258852   2.508   6.973   5.232  1.7708  0.2078  1.9615
15625SOL     OW58853   7.467   2.490   0.077  0.1665 -0.0494 -0.2230
15625SOL    HW158854   7.469   2.481  -0.019  1.7906 -0.2262 -0.2161
15625SOL    HW258855   7.476   2.584   0.092 -0.3273  0.0004 -0.2530
15626SOL     OW58856  11.876  13.266   9.848 -0.2505  0.2228 -0.4478
15626SOL    HW158857  11.861  13.200   9.780 -0.3656  0.5790 -0.7732
15626SOL    HW258858  11.971  13.270   9.857 -0.2500 -0.1986 -0.2134
15627SOL     OW58859   1.711  12.536   0.308  0.7536  0.0857  0.0755
15627SOL    HW158860   1.671  12.451   0.295  2.4622 -0.7870  0.2740
15627SOL    HW258861   1.638  12.598   0.305 -0.4266 -1.2951 -0.7979
15628SOL     OW58862  10.773   0.396   3.206 -0.5081  0.1734 -0.4235
15628SOL    HW158863  10.846   0.351   3.164 -0.2384  0.2195 -0.0172
15628SOL    HW258864  10.787   0.488   3.185  0.2270  0.3239  0.6278
15629SOL     OW58865   1.343  11.567   8.629  0.7666  0.3787 -0.0890
15629SOL    HW158866   1.377  11.567   8.719  0.8598 -0.0610 -0.1235
15629SOL    HW258867   1.421  11.570   8.574  0.7744 -0.9418 -0.1729
15630SOL     OW58868  13.830  10.782   2.324 -0.0315 -0.1143 -0.0919
15630SOL    HW158869  13.866  10.837   2.394  0.1275  1.6754 -1.5029
15630SOL    HW258870  13.759  10.734   2.366  0.8089 -0.0004  1.5667
15631SOL     OW58871   9.113   3.523   7.705  0.5424 -0.1627  1.2173
15631SOL    HW158872   9.065   3.563   7.633  1.2484 -1.0949  0.1976
15631SOL    HW258873   9.065   3.548   7.783 -1.0017 -0.2107  0.3166
15632SOL     OW58874   6.534   5.279   1.809 -0.1797 -0.0054 -0.3712
15632SOL    HW158875   6.583   5.197   1.820 -1.6707 -1.1318 -1.6942
15632SOL    HW258876   6.450   5.263   1.852 -1.0959  0.2168 -2.0133
15633SOL     OW58877   3.487   1.110   2.200 -0.3867  0.2249  0.1249
15633SOL    HW158878   3.466   1.191   2.154 -1.3015  0.0978  0.3025
15633SOL    HW258879   3.444   1.119   2.284 -1.0515 -0.7327 -0.1092
15634SOL     OW58880  12.608  12.510   4.888  0.1501  0.4837 -0.1112
15634SOL    HW158881  12.599  12.599   4.920 -0.2851  1.3929 -2.5955
15634SOL    HW258882  12.524  12.490   4.847 -0.0004 -1.3469  0.9359
15635SOL     OW58883   1.315   2.908   8.921  0.4913 -0.6587  0.0515
15635SOL    HW158884   1.285   2.941   9.005  0.6325 -1.4178  0.4096
15635SOL    HW258885   1.406   2.882   8.936  0.5047 -0.8392 -0.3198
15636SOL     OW58886   7.580   4.307  10.604  0.2042 -0.0736  0.0244
15636SOL    HW158887   7.634   4.295  10.683  0.7238  1.3300 -0.0915
15636SOL    HW258888   7.556   4.399  10.605  0.7018  0.1193 -1.7628
15637SOL     OW58889   4.093   8.332  13.957 -0.5798  0.1071  0.0914
15637SOL    HW158890   4.104   8.386  14.035  2.4566  0.2706 -0.3045
15637SOL    HW258891   4.064   8.247  13.990 -0.1696  0.4200  1.3071
15638SOL     OW58892  13.219   6.438   5.603  0.1451  0.0592 -0.0659
15638SOL    HW158893  13.160   6.512   5.617 -0.1229 -0.2014  0.2090
15638SOL    HW258894  13.250   6.415   5.690  0.4073 -0.0054 -0.1764
15639SOL     OW58895  12.566   2.121  10.447 -0.1093  0.3670 -0.1972
15639SOL    HW158896  12.528   2.076  10.371 -0.5870  1.8827 -0.9047
15639SOL    HW258897  12.658   2.095  10.447 -0.3995 -0.7078 -0.4797
15640SOL     OW58898   4.861  11.495   7.126  0.5302  0.2127  0.2404
15640SOL    HW158899   4.918  11.482   7.201  0.1519 -3.1898  0.1071
15640SOL    HW258900   4.907  11.558   7.071  2.2208  0.5548  1.9682
15641SOL     OW58901   1.954   9.325   6.223  0.1656  0.7519  0.0770
15641SOL    HW158902   1.959   9.405   6.171  0.5001  1.3691  1.0339
15641SOL    HW258903   1.864   9.296   6.212  0.4039  0.5020 -1.3640
15642SOL     OW58904   5.999  12.628   1.106 -0.1521 -0.5454 -0.4719
15642SOL    HW158905   6.024  12.540   1.076 -0.7950 -1.5410  1.7157
15642SOL    HW258906   6.075  12.658   1.156  0.8025  0.9843 -2.6704
15643SOL     OW58907   9.201   5.727   5.253 -0.2388  0.6549  0.0688
15643SOL    HW158908   9.273   5.760   5.306 -0.2344 -1.3290  1.3970
15643SOL    HW258909   9.123   5.764   5.294 -0.1319  0.4679  0.4494
15644SOL     OW58910  13.257   9.975  13.351 -0.1255 -0.3143  0.2960
15644SOL    HW158911  13.216   9.898  13.310  1.7676 -0.8529 -0.7146
15644SOL    HW258912  13.184  10.023  13.390 -1.8838 -0.7017 -2.2153
15645SOL     OW58913  13.941   6.018   9.907 -0.3850  0.5485  0.4397
15645SOL    HW158914  13.886   5.942   9.887 -0.2202  0.2775  0.9939
15645SOL    HW258915  13.920   6.039   9.998  1.0828 -0.1299  0.9652
15646SOL     OW58916   9.289  13.109   5.689 -0.0849 -0.2128  0.4383
15646SOL    HW158917   9.317  13.040   5.628  0.5383 -1.0481  1.6299
15646SOL    HW258918   9.213  13.071   5.734  0.6669 -0.4221  1.5766
15647SOL     OW58919   4.754   4.003  13.550  0.2041 -0.5866 -0.3750
15647SOL    HW158920   4.792   4.087  13.575 -0.4888  0.0434 -1.3997
15647SOL    HW258921   4.827   3.941  13.558  0.3851 -0.1890  1.7394
15648SOL     OW58922   2.643   3.474   3.043 -0.9314 -0.5093 -0.7369
15648SOL    HW158923   2.620   3.564   3.019  0.7729 -0.1278 -1.0443
15648SOL    HW258924   2.638   3.425   2.961 -0.6720 -0.4274 -0.8028
15649SOL     OW58925   9.140   7.582  12.942  0.2451  0.9047 -0.2740
15649SOL    HW158926   9.180   7.508  12.895 -2.1942 -0.8558  0.2349
15649SOL    HW258927   9.191   7.590  13.022  0.1132 -0.7362  0.0059
15650SOL     OW58928   0.461   1.972   7.465  0.3677 -0.2142  0.4287
15650SOL    HW158929   0.371   1.976   7.432  0.4689 -4.2167 -0.8538
15650SOL    HW258930   0.453   1.988   7.559 -1.4850  0.7857  0.1393
15651SOL     OW58931  11.665   9.087  12.134  0.0144 -0.6191 -0.3479
15651SOL    HW158932  11.661   9.007  12.083 -0.6734  0.0517 -1.3793
15651SOL    HW258933  11.687   9.155  12.070 -0.1383  0.1298  0.3782
15652SOL     OW58934   6.245   5.576   4.706 -0.5963 -0.5576 -0.6642
15652SOL    HW158935   6.159   5.570   4.666 -1.0289 -0.5664  0.2359
15652SOL    HW258936   6.231   5.549   4.797  0.4973 -1.2878 -0.6949
15653SOL     OW58937  11.725   1.740  11.579 -0.0501  0.0966 -0.4052
15653SOL    HW158938  11.786   1.764  11.649 -0.1083 -1.3406  0.1767
15653SOL    HW258939  11.649   1.704  11.625 -0.8459  0.7638 -1.1663
15654SOL     OW58940   0.631   0.555   0.056  0.0835 -0.5280 -0.2334
15654SOL    HW158941   0.585   0.627   0.012 -0.0449 -1.0861 -1.0235
15654SOL    HW258942   0.712   0.595   0.087 -0.5887  0.2881  0.5285
15655SOL     OW58943  10.078  10.592  14.038  0.4049  0.3056 -0.0462
15655SOL    HW158944  10.049  10.530  13.972  1.4404  0.5776 -0.7980
15655SOL    HW258945  10.020  10.578  14.113 -0.4939 -0.3315 -0.8421
15656SOL     OW58946   5.525  11.591   4.928  0.4374  0.1390 -0.0554
15656SOL    HW158947   5.539  11.569   4.836  0.0982  1.1142 -0.3550
15656SOL    HW258948   5.434  11.619   4.932  0.8255  1.3954  0.2953
15657SOL     OW58949   5.823   3.571   7.349 -0.3071  0.3717  0.3126
15657SOL    HW158950   5.786   3.577   7.261 -0.9129 -0.2784  0.5092
15657SOL    HW258951   5.772   3.501   7.391  0.9215 -0.3190  0.7070
15658SOL     OW58952   1.497  12.783   3.658 -0.1702 -0.1914 -0.1708
15658SOL    HW158953   1.483  12.703   3.607 -0.6055  1.6684 -3.2055
15658SOL    HW258954   1.409  12.815   3.677  0.0021  0.4005 -0.3742
15659SOL     OW58955   1.403   5.618   9.047 -0.4261 -0.3346 -0.2167
15659SOL    HW158956   1.343   5.667   8.991 -0.3318  1.6384  1.3298
15659SOL    HW258957   1.490   5.644   9.018 -0.3740  0.1252  0.3264
15660SOL     OW58958  10.402  10.324   3.880  0.2612  0.7548 -0.5975
15660SOL    HW158959  10.318  10.286   3.906  0.9519 -0.7023 -0.4139
15660SOL    HW258960  10.414  10.398   3.941  0.4366 -0.7789  1.3277
15661SOL     OW58961  11.538   8.667   7.647  0.0632 -0.1935 -0.4903
15661SOL    HW158962  11.620   8.700   7.609 -0.6700  0.8963 -1.1680
15661SOL    HW258963  11.561   8.580   7.680  1.9325  0.7407  0.8773
15662SOL     OW58964   1.385   1.943   6.838  0.2415 -0.5245 -0.3345
15662SOL    HW158965   1.365   1.885   6.765 -0.4636 -0.3628 -0.2799
15662SOL    HW258966   1.480   1.941   6.846  0.2846 -0.9311 -0.9371
15663SOL     OW58967  12.828  11.936   6.864 -1.0623 -0.0311 -0.0359
15663SOL    HW158968  12.832  11.843   6.845  1.7843  0.4061 -2.3731
15663SOL    HW258969  12.898  11.951   6.929  0.4997  0.7709 -1.8049
15664SOL     OW58970   7.592   7.263   3.492 -0.0292 -0.0950 -0.5708
15664SOL    HW158971   7.564   7.336   3.436 -0.1967  1.1099  1.0324
15664SOL    HW258972   7.585   7.186   3.435 -4.4068  0.3848 -1.0513
15665SOL     OW58973   6.241   1.751  12.095 -0.2681 -0.1084 -0.0876
15665SOL    HW158974   6.253   1.693  12.170  0.2692 -0.5800 -0.5205
15665SOL    HW258975   6.185   1.821  12.127 -1.2480 -1.0615  0.3562
15666SOL     OW58976   1.827   7.319   6.249  0.0430  0.8743 -0.2105
15666SOL    HW158977   1.765   7.250   6.271  0.3825  0.6515  0.0351
15666SOL    HW258978   1.887   7.279   6.186  1.1389  0.4957  1.0445
15667SOL     OW58979   9.403   7.003   1.529 -0.2108  0.3331  0.6845
15667SOL    HW158980   9.472   7.059   1.492  0.3830 -0.4151  0.6515
15667SOL    HW258981   9.357   6.969   1.453  0.4679 -0.5227  0.6489
15668SOL     OW58982   0.523   0.949   2.471  0.5939  0.8197 -0.1587
15668SOL    HW158983   0.552   0.875   2.525  0.4312 -1.0098 -2.4520
15668SOL    HW258984   0.601   1.004   2.462  0.5918  1.2826  1.9759
15669SOL     OW58985   0.688   1.480   9.323  0.7378  0.1586 -0.1466
15669SOL    HW158986   0.663   1.488   9.415  0.0392  1.5603 -0.4300
15669SOL    HW258987   0.713   1.569   9.297 -1.7400  0.4384 -2.0065
15670SOL     OW58988   8.355   9.296   2.350 -0.3541  0.8877  0.2605
15670SOL    HW158989   8.404   9.367   2.391 -1.6620  0.8338  2.0875
15670SOL    HW258990   8.266   9.306   2.384 -1.1644 -0.1226 -1.4468
15671SOL     OW58991   5.418   5.878  10.179  0.4899  0.4702 -0.3096
15671SOL    HW158992   5.345   5.819  10.197  0.4386  1.0187  1.4402
15671SOL    HW258993   5.387   5.932  10.106 -1.0767  1.0272  0.7158
15672SOL     OW58994   3.884   3.978   0.909 -0.1282 -0.1392 -0.4336
15672SOL    HW158995   3.870   3.884   0.898 -0.2088  0.0624 -2.3346
15672SOL    HW258996   3.805   4.019   0.873  0.1952  0.6835 -0.2394
15673SOL     OW58997   1.731   1.524   7.726  0.5650  0.4569 -0.0810
15673SOL    HW158998   1.797   1.581   7.767 -0.4802  1.1991  0.6080
15673SOL    HW258999   1.736   1.442   7.775 -0.0116  1.0106  0.9408
15674SOL     OW59000   6.539  13.914   0.259 -0.2666  0.0850  0.0723
15674SOL    HW159001   6.619  13.868   0.283  0.0214  0.8967  0.7117
15674SOL    HW259002   6.505  13.948   0.342 -0.4035  1.1119 -0.3803
15675SOL     OW59003   0.049   2.659   9.239  0.3689  0.0855  0.5663
15675SOL    HW159004   0.038   2.674   9.333  1.4855 -1.0433  0.8958
15675SOL    HW259005   0.028   2.566   9.227 -0.0963  0.3004 -0.3715
15676SOL     OW59006   7.875   7.551   3.510  0.3888 -0.2140 -0.1024
15676SOL    HW159007   7.868   7.456   3.511  2.4380 -0.4833 -2.5634
15676SOL    HW259008   7.964   7.569   3.540 -0.6752  1.1628  2.6170
15677SOL     OW59009   0.135   2.026  10.361 -0.7640  0.2671  0.0864
15677SOL    HW159010   0.041   2.008  10.371 -0.5468  0.0738  2.3037
15677SOL    HW259011   0.139   2.106  10.308 -2.1294 -0.2017 -0.7828
15678SOL     OW59012   7.449  13.273   6.245 -0.5039  0.3356 -0.1844
15678SOL    HW159013   7.418  13.320   6.167 -1.4075 -1.0841 -0.7190
15678SOL    HW259014   7.507  13.205   6.210 -1.6368 -0.9082  0.2643
15679SOL     OW59015   3.098   3.103   2.620 -0.2624 -0.2539 -0.1603
15679SOL    HW159016   3.018   3.143   2.586 -0.3892  0.2709  0.7151
15679SOL    HW259017   3.077   3.083   2.712  1.3273  2.0745  0.8223
15680SOL     OW59018  12.988  10.335   0.384 -0.1808  0.2031 -0.2308
15680SOL    HW159019  13.002  10.376   0.299  1.0063 -0.4980 -0.3965
15680SOL    HW259020  12.991  10.241   0.367  0.5298  0.0524  0.6449
15681SOL     OW59021   7.214   3.236   1.509  0.2693  0.0601  0.4298
15681SOL    HW159022   7.165   3.201   1.583 -0.7813 -2.2720 -1.2752
15681SOL    HW259023   7.304   3.208   1.525  0.7710  2.4510  2.4254
15682SOL     OW59024  13.954   9.698  11.789  0.1922 -0.2885  0.0240
15682SOL    HW159025  13.891   9.768  11.808  0.3959  0.0668 -0.6159
15682SOL    HW259026  13.995   9.680  11.874  0.9867  1.1883 -0.0168
15683SOL     OW59027  10.817  13.697   3.651 -0.1875  0.4850  0.5130
15683SOL    HW159028  10.832  13.724   3.742  0.0015 -0.5326  0.7979
15683SOL    HW259029  10.840  13.774   3.599  2.0789  0.3278  1.1827
15684SOL     OW59030  10.007   8.993  12.994  0.6150  0.3061 -0.0528
15684SOL    HW159031  10.072   8.923  12.989 -0.3338 -0.5318 -1.2786
15684SOL    HW259032   9.933   8.961  12.943 -0.7211  1.2976  1.1680
15685SOL     OW59033   6.065  10.734   0.587 -0.1361  0.2632  0.1201
15685SOL    HW159034   6.133  10.747   0.652  0.3883 -0.7725 -0.2080
15685SOL    HW259035   6.107  10.754   0.503  0.2266 -1.7662 -0.2385
15686SOL     OW59036  10.303   7.554  13.203 -0.5491 -0.6738 -0.1248
15686SOL    HW159037  10.228   7.587  13.254 -0.6730 -1.3619  0.1435
15686SOL    HW259038  10.288   7.588  13.115  0.1240  1.2833  0.4574
15687SOL     OW59039   0.652   3.633   1.552  0.1768  0.4454 -0.0768
15687SOL    HW159040   0.655   3.648   1.647 -0.4353 -0.1408  0.0510
15687SOL    HW259041   0.741   3.608   1.529 -0.3098 -2.8246  0.9897
15688SOL     OW59042   7.715   5.665   8.913  0.0564  0.8364 -0.3352
15688SOL    HW159043   7.654   5.611   8.963  0.1956  0.0062 -1.0281
15688SOL    HW259044   7.797   5.659   8.962  0.1400  0.1876 -0.5376
15689SOL     OW59045   4.648   8.506  11.292 -0.6328 -0.3864  0.0823
15689SOL    HW159046   4.688   8.543  11.370  1.1489 -0.0647 -0.9286
15689SOL    HW259047   4.661   8.573  11.224  1.9601 -2.4259 -1.5947
15690SOL     OW59048   0.299   2.965   9.012  0.0627  0.4601 -0.1916
15690SOL    HW159049   0.314   3.052   8.977  0.1464  0.2794 -0.6149
15690SOL    HW259050   0.375   2.948   9.067 -0.4518  1.0610  0.7216
15691SOL     OW59051  11.350   1.862   5.961  0.3287  0.3346  0.0399
15691SOL    HW159052  11.321   1.782   5.916 -0.3033  1.0922 -0.9510
15691SOL    HW259053  11.300   1.932   5.919 -0.3136  1.0910  1.9839
15692SOL     OW59054  10.630  13.438   9.576  0.1188 -0.3821  0.1881
15692SOL    HW159055  10.550  13.423   9.626  0.9697  0.7401  2.0059
15692SOL    HW259056  10.621  13.383   9.498 -2.5684 -0.0094  0.1411
15693SOL     OW59057   9.800   2.289   8.624 -0.1151 -0.2850  0.2752
15693SOL    HW159058   9.832   2.335   8.701  1.4532  0.7619 -0.9407
15693SOL    HW259059   9.854   2.211   8.618 -0.1323 -0.2885  0.1552
15694SOL     OW59060  11.138  12.253   9.590 -0.1560  0.3974  0.5704
15694SOL    HW159061  11.077  12.198   9.540  1.5106 -2.0029  1.0051
15694SOL    HW259062  11.108  12.244   9.680  0.0814  0.2625  0.6346
15695SOL     OW59063  13.925  11.246  11.614  0.0083 -0.0792 -0.2177
15695SOL    HW159064  14.007  11.226  11.569  0.0331  1.6730 -1.0361
15695SOL    HW259065  13.884  11.161  11.628  1.3000 -0.8786 -1.0487
15696SOL     OW59066  12.937  13.832   8.400 -0.7054 -0.1706  0.5868
15696SOL    HW159067  12.994  13.813   8.475  1.7212  0.1282 -1.0857
15696SOL    HW259068  12.983  13.900   8.351 -2.0628 -0.5734 -1.3551
15697SOL     OW59069   6.845   4.139  10.480 -0.1869 -0.5574  0.1669
15697SOL    HW159070   6.900   4.216  10.499 -0.4092 -0.4142  0.2316
15697SOL    HW259071   6.858   4.123  10.386 -1.6902  0.7879 -0.3039
15698SOL     OW59072   2.418   2.706   7.113 -0.1324 -0.5373  0.9953
15698SOL    HW159073   2.513   2.712   7.124 -0.0619  2.8642 -0.1694
15698SOL    HW259074   2.391   2.636   7.172  2.8667 -0.2089  2.9754
15699SOL     OW59075   0.311   8.855  11.407 -0.1037 -0.0545  0.1376
15699SOL    HW159076   0.341   8.768  11.433 -0.1499 -0.2189 -0.3555
15699SOL    HW259077   0.306   8.852  11.311 -0.0853  0.4958  0.1109
15700SOL     OW59078   5.510   1.529   8.130  0.5372 -0.0439  0.6436
15700SOL    HW159079   5.478   1.540   8.219  0.4788 -2.1166  0.9222
15700SOL    HW259080   5.433   1.501   8.080  0.7450  0.3190  0.1102
15701SOL     OW59081   4.433  12.805  12.507  0.2719 -0.0591 -0.0687
15701SOL    HW159082   4.484  12.733  12.543 -0.5321 -0.2477  0.7371
15701SOL    HW259083   4.345  12.769  12.496 -0.4876  1.1728  1.6508
15702SOL     OW59084   3.969   0.541   6.078  0.0744  0.1581  0.6861
15702SOL    HW159085   3.897   0.480   6.095 -0.6603  1.0775  1.0007
15702SOL    HW259086   3.926   0.619   6.044  1.1120  0.0241 -1.0615
15703SOL     OW59087   1.039   4.574  10.774 -0.3686  0.0193 -0.0744
15703SOL    HW159088   1.006   4.617  10.853 -0.5126 -0.7805  0.3129
15703SOL    HW259089   0.966   4.577  10.712 -0.9531 -1.1125  0.5299
15704SOL     OW59090  13.617   4.816   9.324  0.0575  0.7372  0.1883
15704SOL    HW159091  13.686   4.751   9.343 -0.1435  0.0484 -1.3246
15704SOL    HW259092  13.661   4.883   9.272 -0.4405  0.1757 -0.9867
15705SOL     OW59093  13.351   0.542  13.904  0.1012 -0.4605 -0.4521
15705SOL    HW159094  13.427   0.598  13.918  0.0490 -0.2227 -1.1065
15705SOL    HW259095  13.278   0.592  13.940  0.0181  0.0079 -1.2426
15706SOL     OW59096   9.056   5.041  10.447 -0.8230 -0.3655 -0.2474
15706SOL    HW159097   9.012   5.122  10.423  1.4630  0.4586 -1.9835
15706SOL    HW259098   9.135   5.038  10.392  1.1766 -1.8592  2.4388
15707SOL     OW59099   3.650   6.719  13.832  0.1131  0.5359 -0.1006
15707SOL    HW159100   3.569   6.705  13.783  0.7157 -0.9417 -0.7504
15707SOL    HW259101   3.712   6.754  13.768  0.2644  0.7531  0.1603
15708SOL     OW59102  10.304   4.969   0.293 -0.2163 -0.4352  0.5787
15708SOL    HW159103  10.342   4.881   0.284  0.6352  0.0712 -1.3232
15708SOL    HW259104  10.211   4.952   0.313 -0.5716 -1.8826 -1.7820
15709SOL     OW59105  12.909   8.817  13.613  0.6194 -0.1759  0.0733
15709SOL    HW159106  12.909   8.900  13.661  0.0397  0.5295 -1.0953
15709SOL    HW259107  13.001   8.802  13.591  0.9408 -0.6790  1.6326
15710SOL     OW59108   0.334  13.892   3.729  0.5286 -0.3227 -0.1927
15710SOL    HW159109   0.308  13.916   3.818 -1.1354 -1.7056 -0.2655
15710SOL    HW259110   0.408  13.833   3.742  1.3742  0.7713  0.1699
15711SOL     OW59111   1.578   2.392   4.624  0.1438 -0.2598 -0.3823
15711SOL    HW159112   1.661   2.363   4.660 -1.1170 -3.3669  0.3000
15711SOL    HW259113   1.577   2.359   4.534 -0.2684 -0.0645 -0.4538
15712SOL     OW59114  12.092   0.015   1.196  0.0303 -0.0389 -0.2834
15712SOL    HW159115  11.997   0.019   1.189  0.0092 -0.3065 -0.1469
15712SOL    HW259116  12.122   0.000   1.106 -0.0912 -0.5833 -0.2341
15713SOL     OW59117   4.584   2.682   4.725  0.8377 -0.3375  0.0416
15713SOL    HW159118   4.580   2.704   4.632  1.4806 -1.5207 -0.2920
15713SOL    HW259119   4.530   2.603   4.734  0.0459  0.2816  0.8504
15714SOL     OW59120   0.716   2.284  13.286  0.4404  0.0787  0.0747
15714SOL    HW159121   0.804   2.249  13.274  0.8081  0.4123  1.5196
15714SOL    HW259122   0.722   2.376  13.259  0.6723  0.2303  0.6278
15715SOL     OW59123   9.721   4.713   8.295  0.1578 -0.1803  0.0345
15715SOL    HW159124   9.718   4.652   8.221  1.6825  2.1581 -2.1664
15715SOL    HW259125   9.630   4.731   8.315 -0.3160 -0.8574 -1.3578
15716SOL     OW59126   6.539   0.320  10.153  0.2262 -0.3222  0.1325
15716SOL    HW159127   6.523   0.382  10.082  0.0312  0.9258  1.2270
15716SOL    HW259128   6.463   0.262  10.152 -0.6623  0.7848  0.4031
15717SOL     OW59129   5.222   5.450   1.554 -0.0873  0.3786  0.3856
15717SOL    HW159130   5.247   5.445   1.647 -1.2357  1.5564  0.7886
15717SOL    HW259131   5.272   5.524   1.520  0.5640 -0.2407 -0.0309
15718SOL     OW59132  12.886  13.286   2.301  0.6325  0.1881 -0.1552
15718SOL    HW159133  12.791  13.297   2.289  0.4305 -0.6980  0.5878
15718SOL    HW259134  12.925  13.351   2.241 -0.4301  0.3472 -0.6991
15719SOL     OW59135   2.818  11.129   8.997 -0.1737 -0.1698 -0.4619
15719SOL    HW159136   2.774  11.209   9.027 -1.1408 -0.8004 -0.1448
15719SOL    HW259137   2.901  11.129   9.044  0.0501  0.8807 -0.8212
15720SOL     OW59138   1.267   8.047   5.877 -0.3587 -0.1528  0.1490
15720SOL    HW159139   1.246   8.002   5.795  0.5939 -2.2072  0.9599
15720SOL    HW259140   1.207   8.009   5.941 -1.5429  1.8927  0.3601
15721SOL     OW59141   7.834  13.198   2.336 -0.1300 -0.6340 -0.1531
15721SOL    HW159142   7.865  13.219   2.425 -0.8683  1.8841 -0.4091
15721SOL    HW259143   7.764  13.262   2.320  1.0523  0.0755 -3.1462
15722SOL     OW59144   3.616   3.392   8.603  0.0459 -0.3181 -0.1424
15722SOL    HW159145   3.700   3.436   8.595  0.2095 -0.7000 -0.5153
15722SOL    HW259146   3.634   3.301   8.583  0.0780 -0.9555  2.4508
15723SOL     OW59147  12.494   7.043  11.314  1.0775 -0.2939 -0.0072
15723SOL    HW159148  12.477   6.949  11.305 -0.0169 -0.0553 -0.6086
15723SOL    HW259149  12.575   7.058  11.265  0.2028 -0.6124 -1.6178
15724SOL     OW59150   1.301   8.590   0.233  0.1205  0.3607  0.0848
15724SOL    HW159151   1.370   8.534   0.270  0.6493  1.5282  0.9548
15724SOL    HW259152   1.257   8.627   0.309 -1.3180 -0.1452 -0.4698
15725SOL     OW59153   5.081  13.109   2.914  0.2397 -0.3046 -0.4861
15725SOL    HW159154   5.022  13.163   2.861  0.7167 -0.2209 -0.9487
15725SOL    HW259155   5.116  13.169   2.980 -0.4332 -0.4329 -0.0077
15726SOL     OW59156   5.224   9.829   2.683  0.4101  0.0020  0.4461
15726SOL    HW159157   5.230   9.735   2.698  0.1758  0.1189  1.3035
15726SOL    HW259158   5.134   9.843   2.652  0.8683 -0.2271 -1.0879
15727SOL     OW59159   8.967   0.300   9.699 -0.4504  0.1507  0.0699
15727SOL    HW159160   9.024   0.344   9.636  0.2916 -0.6133  0.1850
15727SOL    HW259161   8.966   0.209   9.670  0.6213 -0.4087  1.6400
15728SOL     OW59162  13.939  13.840   1.514  0.0188 -0.3224  0.2828
15728SOL    HW159163  14.018  13.788   1.497  1.0239  0.9797  0.7891
15728SOL    HW259164  13.887  13.829   1.434  0.9546 -0.7815 -0.2989
15729SOL     OW59165  12.030  10.429   2.439 -0.2377 -0.2388 -0.4526
15729SOL    HW159166  12.081  10.399   2.365  1.0107  0.5980  0.0391
15729SOL    HW259167  12.090  10.423   2.514 -1.3705 -0.7932  0.4508
15730SOL     OW59168   8.164  13.692  12.306 -0.2435 -0.0003 -0.0927
15730SOL    HW159169   8.128  13.644  12.381  0.1001 -0.4387 -0.2024
15730SOL    HW259170   8.174  13.782  12.337  1.8284 -0.5746  1.0626
15731SOL     OW59171   7.016   7.485  10.480 -0.6657  0.3991  0.2799
15731SOL    HW159172   7.024   7.491  10.385 -1.0908  1.7645  0.3115
15731SOL    HW259173   6.923   7.499  10.498 -0.4550  1.0338  0.9357
15732SOL     OW59174  12.595   2.035   0.804  0.0583  0.2533 -0.0227
15732SOL    HW159175  12.682   2.071   0.822  0.6552 -0.5985 -1.0402
15732SOL    HW259176  12.608   1.940   0.807 -1.4217  0.0481  2.3898
15733SOL     OW59177   5.033   3.775   1.935  0.1931 -0.6234 -0.5675
15733SOL    HW159178   5.124   3.766   1.963  0.5584 -1.7420 -2.0452
15733SOL    HW259179   5.013   3.693   1.891 -1.5488 -0.3923 -0.2652
15734SOL     OW59180  11.877   7.822   6.631  0.2998 -0.3325 -0.0987
15734SOL    HW159181  11.949   7.825   6.694 -0.5883  2.2520  0.9056
15734SOL    HW259182  11.918   7.835   6.546  1.1443 -0.0654  0.3423
15735SOL     OW59183  12.358   5.436   2.639 -0.0747 -0.0292 -0.3862
15735SOL    HW159184  12.330   5.399   2.723 -2.6928 -0.9136 -1.5714
15735SOL    HW259185  12.282   5.485   2.608  0.2401 -1.0428 -2.9731
15736SOL     OW59186   0.132   4.577   9.165  0.4729 -0.2334 -0.3089
15736SOL    HW159187   0.183   4.520   9.223  1.4793  0.4401 -0.4980
15736SOL    HW259188   0.198   4.626   9.115 -0.3681  0.2987 -0.9381
15737SOL     OW59189   3.153   9.287   7.914  0.4356  0.5288 -0.2812
15737SOL    HW159190   3.117   9.206   7.948  1.1836 -0.0015 -0.7250
15737SOL    HW259191   3.112   9.298   7.828 -1.0239  1.5746  0.4952
15738SOL     OW59192   6.645   1.031   3.248  0.4668  0.4470 -0.1848
15738SOL    HW159193   6.715   1.085   3.285 -0.2809  0.5687  1.0965
15738SOL    HW259194   6.687   0.984   3.176  1.7573  0.8362  0.2816
15739SOL     OW59195   2.348   3.839   5.257 -0.0299 -0.0254 -0.0100
15739SOL    HW159196   2.416   3.785   5.298  0.7359  1.4149  0.7103
15739SOL    HW259197   2.301   3.878   5.331 -0.5442  0.3142 -0.5133
15740SOL     OW59198   8.730   4.166  10.892 -0.0465  0.4324  1.1580
15740SOL    HW159199   8.713   4.086  10.941  1.2569 -0.9898 -0.5702
15740SOL    HW259200   8.690   4.151  10.806  0.3445  1.5721  0.7515
15741SOL     OW59201   4.218  11.503   6.536 -0.3167 -0.2364 -0.3022
15741SOL    HW159202   4.128  11.533   6.521  0.2766  0.2571 -3.8027
15741SOL    HW259203   4.255  11.566   6.598 -1.2204  2.1335 -2.0460
15742SOL     OW59204   7.859   5.502  10.068 -0.6244  0.3408  0.1771
15742SOL    HW159205   7.928   5.540  10.124  0.8465  0.9036 -1.9002
15742SOL    HW259206   7.859   5.557   9.990 -1.6853 -1.1872 -0.9429
15743SOL     OW59207   1.937   9.850   6.211 -0.1018 -0.4230  0.3098
15743SOL    HW159208   1.891   9.902   6.146 -0.4348 -2.0063 -0.7832
15743SOL    HW259209   2.029   9.855   6.185 -0.1956 -0.7914 -0.1014
15744SOL     OW59210   8.119  13.338   1.087 -0.9086 -0.1575  0.3887
15744SOL    HW159211   8.157  13.271   1.144 -0.1620  0.9544  1.2636
15744SOL    HW259212   8.153  13.318   1.000 -0.2238 -0.5788  0.7453
15745SOL     OW59213   1.893   8.947  13.633 -0.0798 -0.2897 -0.0022
15745SOL    HW159214   1.972   8.918  13.679  0.5849 -0.3431 -1.1155
15745SOL    HW259215   1.821   8.922  13.690  0.7203 -0.0610  1.1386
15746SOL     OW59216  10.556   3.211   5.455 -0.2413 -1.0525 -0.5038
15746SOL    HW159217  10.464   3.236   5.445 -0.2354 -1.0369 -0.5214
15746SOL    HW259218  10.553   3.123   5.492 -0.2629 -1.0192 -0.4262
15747SOL     OW59219  14.032   1.428   6.508  0.1407 -0.6783  0.4082
15747SOL    HW159220  14.005   1.339   6.530 -1.2379 -0.0726  1.3583
15747SOL    HW259221  13.960   1.483   6.539  1.2870  0.8319  0.5174
15748SOL     OW59222  11.670  10.727  12.746  0.3007  0.5406  0.3340
15748SOL    HW159223  11.650  10.716  12.839 -1.0386  1.4790  0.1871
15748SOL    HW259224  11.710  10.813  12.740 -2.3548  1.8359 -0.2824
15749SOL     OW59225   0.311   1.090  12.427  0.0539 -0.0780  0.1529
15749SOL    HW159226   0.359   1.087  12.510  1.0005 -2.3606 -0.4035
15749SOL    HW259227   0.226   1.052  12.448 -0.1699  0.5004  0.3224
15750SOL     OW59228  13.112  12.710  13.130  0.1441  0.3666  0.5346
15750SOL    HW159229  13.123  12.802  13.153 -0.0834  0.4308  0.3952
15750SOL    HW259230  13.098  12.666  13.214  0.5802  0.4082  0.6306
15751SOL     OW59231   7.565   2.717   0.666  0.0752  0.0428 -0.8085
15751SOL    HW159232   7.570   2.651   0.735 -1.9633  0.9149  0.2917
15751SOL    HW259233   7.509   2.678   0.599 -0.0303  0.1348 -0.7756
15752SOL     OW59234   3.365  11.296  13.347 -0.0280  0.1944 -0.2494
15752SOL    HW159235   3.321  11.318  13.265 -2.5565 -1.0157  0.6612
15752SOL    HW259236   3.383  11.380  13.389  1.5282  0.8344 -2.0976
15753SOL     OW59237  13.851   3.577   6.012  1.0108  0.2226  0.2858
15753SOL    HW159238  13.938   3.540   5.998  0.8132 -0.3397  0.5353
15753SOL    HW259239  13.847   3.596   6.105 -0.1490 -2.4234  0.8574
15754SOL     OW59240  11.181   0.178   2.616 -0.3537 -0.4568 -0.1358
15754SOL    HW159241  11.219   0.262   2.590 -2.2400 -0.1815 -2.2957
15754SOL    HW259242  11.148   0.193   2.705  0.9044  0.4819  0.2081
15755SOL     OW59243   0.409  13.574   2.384 -0.4844 -0.0336  0.3331
15755SOL    HW159244   0.402  13.564   2.479  0.1289 -1.0781  0.2828
15755SOL    HW259245   0.409  13.484   2.351  1.7190  0.2080 -0.4752
15756SOL     OW59246   0.187   1.449   5.738  0.1419 -0.4418 -0.3611
15756SOL    HW159247   0.144   1.456   5.653 -1.3070 -2.0476  0.1795
15756SOL    HW259248   0.115   1.452   5.802  1.1658  0.4177  0.8182
15757SOL     OW59249  10.252   2.950   8.866  0.3175 -0.4178  0.1848
15757SOL    HW159250  10.168   2.923   8.905 -0.5134  0.3585 -0.9943
15757SOL    HW259251  10.240   2.937   8.772  1.4072  0.0487 -0.0328
15758SOL     OW59252   0.662   5.430  13.070  0.2207  0.0835  0.4145
15758SOL    HW159253   0.631   5.515  13.102  1.6327  1.8268 -2.4648
15758SOL    HW259254   0.757   5.436  13.076  0.3621 -0.9689 -0.5925
15759SOL     OW59255   7.145   7.146  13.832  0.2123 -0.3896 -0.0544
15759SOL    HW159256   7.190   7.169  13.914  0.4030 -0.7242 -0.0641
15759SOL    HW259257   7.216   7.130  13.770  0.0907 -1.2107  0.0111
15760SOL     OW59258   4.967   4.045   2.856  0.1810  0.5026 -0.7077
15760SOL    HW159259   4.906   4.022   2.786  3.3017 -0.1500 -3.4722
15760SOL    HW259260   5.053   4.025   2.820  2.0012 -1.1853  3.8821
15761SOL     OW59261   4.939   6.632  11.736  0.5723  0.2008 -0.1159
15761SOL    HW159262   4.917   6.700  11.800  1.0528 -0.7323  1.0931
15761SOL    HW259263   5.033   6.642  11.722  0.6552 -0.2345  0.1087
15762SOL     OW59264  12.140  14.032   8.996  0.1727 -0.1088 -0.2445
15762SOL    HW159265  12.095  14.035   8.912 -0.5009  1.8211  0.1412
15762SOL    HW259266  12.092  14.094   9.052  1.9422  0.3223  0.8807
15763SOL     OW59267   5.327   6.020  12.639 -0.3316 -0.0293 -0.2025
15763SOL    HW159268   5.334   6.059  12.726 -0.2054 -1.6356  0.5484
15763SOL    HW259269   5.368   6.084  12.581 -1.2908  1.5295  0.7445
15764SOL     OW59270   9.236   1.369   3.421 -0.5140 -0.2624  0.1633
15764SOL    HW159271   9.247   1.384   3.327  1.5002 -0.2873  0.3339
15764SOL    HW259272   9.249   1.275   3.432 -1.9314 -0.4558  0.3589
15765SOL     OW59273  13.611   7.630   4.504  0.8695 -0.1747  0.0892
15765SOL    HW159274  13.611   7.539   4.475  0.8181  0.7261 -3.0606
15765SOL    HW259275  13.519   7.656   4.504  0.8245 -0.2368  1.5581
15766SOL     OW59276   2.468   1.980   0.161  0.3227 -0.2688  0.2773
15766SOL    HW159277   2.405   1.928   0.210 -0.7330  0.4588 -0.2634
15766SOL    HW259278   2.553   1.939   0.179 -0.2603 -1.0830  1.2599
15767SOL     OW59279   9.429   4.205   4.910  0.4973 -0.0036 -0.3058
15767SOL    HW159280   9.519   4.234   4.893  0.1501  1.3125 -0.0298
15767SOL    HW259281   9.431   4.168   4.998  1.1116 -1.6095 -0.9545
15768SOL     OW59282  13.229   5.021   7.799 -0.2181  0.1935 -0.1468
15768SOL    HW159283  13.189   5.074   7.730 -1.4214 -1.2090 -0.5770
15768SOL    HW259284  13.224   4.931   7.766  0.7464 -0.3234  1.0440
15769SOL     OW59285   5.775   7.218   2.790 -0.1042  0.2687 -0.0338
15769SOL    HW159286   5.825   7.229   2.871  0.1132  0.3095 -0.1701
15769SOL    HW259287   5.832   7.257   2.722  0.6631 -1.6114 -0.5344
15770SOL     OW59288  11.045   0.328   3.124 -0.3420  0.2361 -0.0152
15770SOL    HW159289  11.114   0.283   3.172  1.3374  1.1026 -1.4905
15770SOL    HW259290  11.055   0.420   3.147 -1.1577  0.3462 -0.0740
15771SOL     OW59291   5.395   0.863  12.804 -0.1947 -0.4492  0.1084
15771SOL    HW159292   5.333   0.790  12.808  0.8491 -1.4781 -1.5298
15771SOL    HW259293   5.391   0.894  12.713  1.0614  0.0146  0.1847
15772SOL     OW59294   1.770   1.766  10.220  0.3332 -0.4947 -0.1147
15772SOL    HW159295   1.689   1.780  10.269  0.1602 -0.5745 -0.3739
15772SOL    HW259296   1.839   1.766  10.286  0.0632 -0.9757  0.1747
15773SOL     OW59297   9.454  13.870  10.970  0.1170  0.3579  0.3225
15773SOL    HW159298   9.524  13.814  11.003 -0.1112  1.3326  2.6145
15773SOL    HW259299   9.499  13.935  10.916  0.8578  0.2845  0.8307
15774SOL     OW59300  10.980   8.585  13.153  0.1306  0.2442 -0.1209
15774SOL    HW159301  10.999   8.514  13.092  0.9077 -2.0498  2.5280
15774SOL    HW259302  10.901   8.556  13.198 -0.7187  2.1098 -0.3478
15775SOL     OW59303  13.229  13.037   3.103  0.6838  0.4608  0.4026
15775SOL    HW159304  13.286  12.968   3.069  1.8779  2.4597 -2.0105
15775SOL    HW259305  13.289  13.107   3.128 -0.5461  1.2494  1.2625
15776SOL     OW59306   6.092   8.050  11.579  0.2277  0.3910  0.2663
15776SOL    HW159307   6.015   8.000  11.553  0.5144 -0.3088  0.7509
15776SOL    HW259308   6.117   8.099  11.501  0.6315 -1.0889 -0.5615
15777SOL     OW59309  11.782   1.683   3.508 -0.4178  0.2530 -0.4936
15777SOL    HW159310  11.824   1.760   3.470  0.4359  0.1092  0.1107
15777SOL    HW259311  11.693   1.711   3.528  0.1244  1.3512  0.4980
15778SOL     OW59312   1.473   4.604   8.405  0.2620 -0.5396 -0.1722
15778SOL    HW159313   1.425   4.684   8.388 -0.4711 -0.9105  0.1123
15778SOL    HW259314   1.541   4.629   8.467  1.4315  0.3130 -1.7179
15779SOL     OW59315   0.413  13.154   9.055 -0.1310 -0.2575  0.3433
15779SOL    HW159316   0.440  13.234   9.009 -1.0320 -0.1292  0.0087
15779SOL    HW259317   0.319  13.149   9.039 -0.5009 -0.1431  2.3045
15780SOL     OW59318  10.486   7.522  11.568  0.4259 -0.4816 -0.0640
15780SOL    HW159319  10.540   7.456  11.523  1.4054 -0.6382  1.2804
15780SOL    HW259320  10.533   7.539  11.650 -0.1754  1.3889 -0.0706
15781SOL     OW59321  13.880   7.558   5.217  0.0301  0.1712  0.2102
15781SOL    HW159322  13.786   7.559   5.238 -0.3392 -1.0881 -1.1628
15781SOL    HW259323  13.887   7.607   5.136  0.5548  0.2304  0.2912
15782SOL     OW59324   6.190   3.195   2.477 -0.3006  0.6527 -0.0199
15782SOL    HW159325   6.222   3.270   2.528 -2.0593  0.0274  2.1637
15782SOL    HW259326   6.192   3.122   2.539 -0.9478 -0.5557 -1.3815
15783SOL     OW59327   9.994  11.519   8.201  0.6646 -0.4287 -0.2806
15783SOL    HW159328   9.999  11.578   8.277  0.1711 -0.9737  0.1916
15783SOL    HW259329  10.056  11.449   8.221 -0.0550 -1.0009  0.0237
15784SOL     OW59330  11.933   2.031   6.354  0.3382 -0.2490  0.6037
15784SOL    HW159331  11.911   1.968   6.422  0.7609 -3.0894 -1.7018
15784SOL    HW259332  11.850   2.052   6.312  0.3751 -0.4545  0.4257
15785SOL     OW59333   4.189   4.017   8.102  0.1648  0.1937  0.1881
15785SOL    HW159334   4.113   4.071   8.123  0.3213  0.3709  0.3028
15785SOL    HW259335   4.250   4.033   8.174 -0.9887 -2.4703  1.8853
15786SOL     OW59336   4.091  12.630   0.733 -0.4898  0.2516  0.2843
15786SOL    HW159337   4.179  12.662   0.754 -0.3527  0.2427 -0.2568
15786SOL    HW259338   4.047  12.621   0.818  0.2177 -0.2880  0.6074
15787SOL     OW59339   1.662   8.718   8.689  0.2041 -0.0698 -0.5124
15787SOL    HW159340   1.654   8.812   8.670 -1.7655  0.1843  1.2197
15787SOL    HW259341   1.738   8.712   8.746  0.0256  0.5586 -0.2024
15788SOL     OW59342   6.109   6.902   4.110  0.8734 -0.7864 -0.2792
15788SOL    HW159343   6.026   6.865   4.081 -0.0181  1.8945 -1.4322
15788SOL    HW259344   6.085   6.967   4.175  1.4277  3.0906 -3.5476
15789SOL     OW59345   6.883   2.861   9.151 -0.2991 -0.0084  0.0582
15789SOL    HW159346   6.948   2.845   9.219 -0.2780  2.5696  0.7417
15789SOL    HW259347   6.799   2.846   9.194 -0.2439 -1.1540 -0.1977
15790SOL     OW59348   0.111   6.986   0.183 -0.2410 -1.0441  0.4075
15790SOL    HW159349   0.180   6.924   0.206 -0.0563 -0.6396  0.9874
15790SOL    HW259350   0.154   7.052   0.129 -0.3820 -1.2943 -0.0071
15791SOL     OW59351   7.212   2.494   2.921 -0.3634  0.3702  0.3092
15791SOL    HW159352   7.141   2.453   2.970  0.1192  0.0411  0.7469
15791SOL    HW259353   7.188   2.586   2.915 -0.4971  0.3839  1.0353
15792SOL     OW59354   5.301   4.278   8.986  0.3806  0.5961  0.3766
15792SOL    HW159355   5.356   4.237   9.053  0.9827  0.5140 -0.1574
15792SOL    HW259356   5.251   4.344   9.034  0.0307 -0.1662  1.0927
15793SOL     OW59357  13.935   2.758   3.273  0.9350 -0.6982  0.0466
15793SOL    HW159358  14.009   2.720   3.226  1.0134 -0.0460 -0.3654
15793SOL    HW259359  13.874   2.785   3.204  0.8218 -0.1964  0.3354
15794SOL     OW59360   6.359   6.279   5.286  0.3220  0.3381  0.3501
15794SOL    HW159361   6.351   6.238   5.200 -1.5126 -0.0426  0.6605
15794SOL    HW259362   6.332   6.370   5.272 -1.0037  0.0187  0.6856
15795SOL     OW59363   5.630   4.568  13.332  0.1397  0.0932  0.3149
15795SOL    HW159364   5.608   4.577  13.239  0.0040 -0.1116  0.3280
15795SOL    HW259365   5.668   4.653  13.355  0.8437 -0.1028 -0.1110
15796SOL     OW59366   6.242   6.330  13.379 -0.1265 -0.7083  0.1355
15796SOL    HW159367   6.158   6.357  13.415 -0.0625 -1.9337  1.2996
15796SOL    HW259368   6.255   6.387  13.303 -0.3268  1.8931  1.9340
15797SOL     OW59369  13.169   1.854   9.518 -0.2485 -0.7252 -0.2748
15797SOL    HW159370  13.193   1.944   9.494 -0.3646 -0.0571  1.8642
15797SOL    HW259371  13.075   1.859   9.536  0.0343 -0.8574  1.3922
15798SOL     OW59372  11.268  10.241   3.470 -0.0265 -0.4094 -0.2450
15798SOL    HW159373  11.176  10.248   3.497  0.2394 -0.2127  0.6379
15798SOL    HW259374  11.316  10.231   3.552  0.7695 -0.2030 -0.6805
15799SOL     OW59375   1.282   9.503  12.408  0.8779  0.0263 -0.5454
15799SOL    HW159376   1.297   9.501  12.503 -2.9407 -0.5445  0.2335
15799SOL    HW259377   1.288   9.411  12.381  0.2536 -0.0402 -0.4745
15800SOL     OW59378   3.996  13.051  12.598  0.0749 -0.1142  0.1551
15800SOL    HW159379   4.050  13.033  12.521  0.2092 -0.1546  0.2593
15800SOL    HW259380   3.906  13.042  12.566  0.1403 -1.5244  0.3335
15801SOL     OW59381   3.259  12.921  11.915 -0.6556 -0.1435  0.1583
15801SOL    HW159382   3.178  12.927  11.865 -0.1005 -0.9971 -0.8741
15801SOL    HW259383   3.302  12.842  11.882  1.4160  1.2180 -0.5492
15802SOL     OW59384  12.494  10.467  10.979 -0.3834  0.5463  0.4196
15802SOL    HW159385  12.491  10.528  11.052  0.4394  1.1182 -0.0098
15802SOL    HW259386  12.548  10.511  10.913  1.2354 -1.1218  0.5622
15803SOL     OW59387   7.859   3.378   7.278 -0.2004  0.3059  0.5087
15803SOL    HW159388   7.842   3.284   7.278 -0.9327  0.4096  1.5567
15803SOL    HW259389   7.935   3.389   7.335  1.4560  0.1521 -1.5632
15804SOL     OW59390   2.653  13.575   8.854  0.1493  0.2699 -0.2448
15804SOL    HW159391   2.565  13.550   8.885 -0.0062 -0.9413 -1.5769
15804SOL    HW259392   2.709  13.504   8.882  0.6237  0.7619  0.0783
15805SOL     OW59393   3.933   2.776   7.712  0.4989  0.1346  0.4430
15805SOL    HW159394   4.024   2.754   7.692  0.7404  0.8760  0.6939
15805SOL    HW259395   3.882   2.719   7.655  1.1111 -0.5583  0.5736
15806SOL     OW59396   7.566  12.373   8.208  0.3532  0.1264 -0.4269
15806SOL    HW159397   7.503  12.362   8.136 -1.4616 -3.4994  1.4261
15806SOL    HW259398   7.643  12.323   8.179  0.2958  0.0959 -0.5291
15807SOL     OW59399   9.193   7.178  10.006 -0.2248  0.1457 -0.3177
15807SOL    HW159400   9.139   7.101   9.987 -0.0348  0.0662 -0.5365
15807SOL    HW259401   9.257   7.181   9.935 -0.9636  1.1793 -0.9586
15808SOL     OW59402  12.260   1.275   8.133 -0.2223  0.2886  0.8316
15808SOL    HW159403  12.234   1.353   8.181  0.9475 -0.0015  2.0205
15808SOL    HW259404  12.217   1.203   8.179 -1.6423  0.2365 -0.5195
15809SOL     OW59405   1.636   3.596   7.952 -0.3874  0.0113 -0.1415
15809SOL    HW159406   1.641   3.508   7.913  1.1554  0.6138 -1.4135
15809SOL    HW259407   1.544   3.605   7.978 -0.6216 -1.8929 -0.1634
15810SOL     OW59408   5.308   6.223   7.841 -0.3758 -0.1842 -0.0659
15810SOL    HW159409   5.385   6.279   7.848  0.0801 -0.5252 -2.0103
15810SOL    HW259410   5.278   6.213   7.932  1.2106  0.8303  0.6119
15811SOL     OW59411  13.540   9.217   8.841  0.1848  0.2293  0.5302
15811SOL    HW159412  13.560   9.131   8.804  0.0354 -0.3308  1.7295
15811SOL    HW259413  13.450   9.235   8.812  0.0646 -0.2042  0.6253
15812SOL     OW59414   0.727  11.034   1.794 -0.5448 -0.1360 -0.0906
15812SOL    HW159415   0.762  11.109   1.842 -1.1282  0.2038 -0.1730
15812SOL    HW259416   0.803  10.984   1.767 -0.2240 -0.9707  2.1816
15813SOL     OW59417   9.264  13.927  10.551 -0.1886  0.0583 -0.4283
15813SOL    HW159418   9.263  13.878  10.633  1.4750 -2.0822 -1.5838
15813SOL    HW259419   9.327  13.997  10.566 -1.4439  0.9908  0.7449
15814SOL     OW59420   7.585   8.544   0.357 -0.4367  0.7815  0.3175
15814SOL    HW159421   7.496   8.530   0.390 -0.1260 -2.0287  0.1564
15814SOL    HW259422   7.573   8.571   0.266 -1.1445 -0.3575  0.0568
15815SOL     OW59423   2.951   6.883  10.472  0.1571  0.1754  0.4187
15815SOL    HW159424   2.870   6.926  10.446  0.0244 -0.5074 -0.3063
15815SOL    HW259425   3.005   6.954  10.509  0.3034  1.1634 -1.5939
15816SOL     OW59426   7.179   0.315   3.553  0.4860  0.0691  0.0348
15816SOL    HW159427   7.089   0.292   3.529  0.7464  0.1600 -1.1033
15816SOL    HW259428   7.206   0.246   3.614 -0.0905 -0.4011 -0.2267
15817SOL     OW59429   1.843  11.377   1.782 -0.1415 -0.1095 -0.0520
15817SOL    HW159430   1.897  11.377   1.703  0.7540  2.4937  0.4428
15817SOL    HW259431   1.901  11.343   1.851 -0.0677 -0.0000 -0.0588
15818SOL     OW59432  13.046  10.565   1.829 -0.0054 -0.0580 -0.3829
15818SOL    HW159433  13.019  10.478   1.860  1.2290 -0.8362 -1.4222
15818SOL    HW259434  13.132  10.551   1.789  1.1116  2.0067  1.1299
15819SOL     OW59435  12.070   1.823  12.075 -0.4519  0.5244  0.0851
15819SOL    HW159436  12.106   1.774  12.001 -0.8104 -0.9044  0.8169
15819SOL    HW259437  11.975   1.816  12.065 -0.5309 -1.1277  1.5459
15820SOL     OW59438   8.106   7.025  10.659 -0.2330  0.0144 -0.4137
15820SOL    HW159439   8.063   7.109  10.673 -0.8938 -0.6022  1.5319
15820SOL    HW259440   8.169   7.018  10.730  1.1393 -0.3574 -1.6156
15821SOL     OW59441   8.731  11.931  10.503 -0.0614  0.2456  0.4859
15821SOL    HW159442   8.704  11.919  10.595 -2.1976  1.5584  0.1035
15821SOL    HW259443   8.684  12.009  10.475  0.3512 -0.2799 -1.8322
15822SOL     OW59444   3.080  12.542   6.321 -0.2710 -0.2311 -0.0880
15822SOL    HW159445   3.040  12.461   6.352  1.9409 -1.2494  0.2833
15822SOL    HW259446   3.065  12.605   6.391 -0.4635 -0.8381  0.4192
15823SOL     OW59447  10.820  13.885   9.505 -0.7259 -0.0091  0.0178
15823SOL    HW159448  10.792  13.804   9.547 -1.5769 -0.2627 -0.9783
15823SOL    HW259449  10.903  13.864   9.463 -0.2370  0.0462  0.9196
15824SOL     OW59450   2.090   9.572   9.524 -0.0165  0.1138 -0.0977
15824SOL    HW159451   2.175   9.609   9.500  0.1110 -0.0871  0.0408
15824SOL    HW259452   2.081   9.495   9.468  1.1260 -1.4520  1.7356
15825SOL     OW59453   1.385   1.797   1.551 -0.7925 -0.5541  0.2458
15825SOL    HW159454   1.425   1.882   1.570 -2.4908  0.9676 -2.4580
15825SOL    HW259455   1.293   1.809   1.572 -1.0089 -1.8823  0.1475
15826SOL     OW59456  13.048   4.940   3.056 -0.1283 -0.0388 -0.0009
15826SOL    HW159457  12.961   4.964   3.025  0.7818  1.2717 -1.7379
15826SOL    HW259458  13.088   4.895   2.981  0.6756 -0.6683  0.7891
15827SOL     OW59459   3.560  12.421   4.317  0.2583  0.0376  0.1636
15827SOL    HW159460   3.590  12.387   4.233  0.4718 -1.2570  0.7351
15827SOL    HW259461   3.470  12.391   4.325  0.0283  0.7082  0.1131
15828SOL     OW59462   4.294   0.985   5.317 -0.3631  0.1392 -0.4023
15828SOL    HW159463   4.227   1.053   5.327 -0.8670 -0.2533 -1.0476
15828SOL    HW259464   4.336   1.005   5.233 -1.9050 -1.5112 -1.6321
15829SOL     OW59465   8.651   6.647   0.400 -0.2487 -0.8354  0.5105
15829SOL    HW159466   8.665   6.553   0.393 -0.1472 -0.9296  1.8282
15829SOL    HW259467   8.574   6.656   0.456  0.6575 -0.1084  1.6737
15830SOL     OW59468  11.009   9.966   9.838  0.4280 -0.3960 -0.0669
15830SOL    HW159469  11.016  10.052   9.879 -0.0269 -0.6087  0.4544
15830SOL    HW259470  11.093   9.924   9.858  1.0323  0.2511 -1.1037
15831SOL     OW59471   0.613  13.393  12.929 -0.2996  0.0304 -0.4706
15831SOL    HW159472   0.651  13.446  12.998 -0.9774 -0.8568  0.6078
15831SOL    HW259473   0.520  13.416  12.928 -0.8043 -1.7873  0.6766
15832SOL     OW59474   6.590   3.491   7.712 -0.0711  0.4529 -0.5460
15832SOL    HW159475   6.662   3.511   7.652  2.1864  1.5738  2.2760
15832SOL    HW259476   6.530   3.564   7.703  2.2701  2.8085  1.2611
15833SOL     OW59477  10.760  11.315   1.535 -0.5035 -0.7619 -0.0104
15833SOL    HW159478  10.820  11.379   1.496  0.1853 -1.9395 -0.9747
15833SOL    HW259479  10.817  11.243   1.562 -1.3300 -1.2392  0.4995
15834SOL     OW59480   2.659   7.917   0.067  0.1610 -0.3182  0.3434
15834SOL    HW159481   2.661   7.828   0.101 -0.7731 -0.0575  1.1004
15834SOL    HW259482   2.751   7.937   0.046  0.5795 -0.9466  1.5054
15835SOL     OW59483   8.901   7.166   1.272 -0.3551 -0.1320  0.2666
15835SOL    HW159484   8.893   7.254   1.307 -1.7019  0.0453 -0.4130
15835SOL    HW259485   8.923   7.111   1.347 -0.4569  0.6360  0.8633
15836SOL     OW59486  10.136   8.947  11.068 -0.0948  0.0506 -0.0803
15836SOL    HW159487  10.192   9.022  11.085  0.9176 -0.3167 -1.5631
15836SOL    HW259488  10.164   8.915  10.982  1.5094 -3.7471  1.6469
15837SOL     OW59489   6.822  11.367   0.863 -0.5787  0.0132 -0.5006
15837SOL    HW159490   6.819  11.458   0.835 -0.4279 -0.0919 -0.8609
15837SOL    HW259491   6.734  11.349   0.897 -0.9911 -0.0655 -1.5567
15838SOL     OW59492   0.685   7.379   2.118 -0.1494 -0.2550  0.4596
15838SOL    HW159493   0.607   7.343   2.159 -1.1881  1.5576  0.1648
15838SOL    HW259494   0.675   7.359   2.025 -1.0933  1.3686  0.1893
15839SOL     OW59495   3.719   2.976   5.566 -0.3282  0.1692  0.3446
15839SOL    HW159496   3.651   2.992   5.500  0.3379 -0.6153 -0.5561
15839SOL    HW259497   3.709   2.884   5.589  0.6891 -0.0699 -0.1194
15840SOL     OW59498  10.782  11.827   8.230 -0.0213  0.3908  0.5066
15840SOL    HW159499  10.705  11.788   8.271 -0.5247  1.4455  0.5914
15840SOL    HW259500  10.849  11.758   8.235 -0.3695  0.1324  2.1816
15841SOL     OW59501   2.245   2.018  11.246 -0.0271 -0.3611  0.8466
15841SOL    HW159502   2.219   1.927  11.234  0.7755 -0.4108 -0.6485
15841SOL    HW259503   2.308   2.016  11.318 -0.3975 -0.9113  1.1562
15842SOL     OW59504   4.777   4.598   5.958 -0.2010 -0.1638  0.0212
15842SOL    HW159505   4.739   4.511   5.947 -0.5296 -0.0122 -0.0540
15842SOL    HW259506   4.713   4.646   6.011 -1.0722  0.7105 -1.7418
15843SOL     OW59507   8.455  11.679   3.972  0.5231  0.0806 -0.2479
15843SOL    HW159508   8.503  11.700   4.051  2.9600 -2.3660 -0.9409
15843SOL    HW259509   8.376  11.635   4.003  1.7983 -1.5338  0.8734
15844SOL     OW59510  11.008  11.068   6.273 -0.6089 -0.3383  0.5078
15844SOL    HW159511  10.960  10.986   6.261 -1.7410  0.1154  1.7002
15844SOL    HW259512  10.957  11.134   6.225 -0.4106 -0.1038  0.6173
15845SOL     OW59513   6.198   6.743   3.885 -0.2945 -0.4513  0.1045
15845SOL    HW159514   6.166   6.777   3.801 -0.1447  0.2023  0.2997
15845SOL    HW259515   6.155   6.799   3.950 -0.7355 -1.2246  0.4823
15846SOL     OW59516  10.649  11.218   0.428 -0.1401 -0.1354  0.5285
15846SOL    HW159517  10.673  11.270   0.351  0.8422  0.6837  1.3643
15846SOL    HW259518  10.728  11.167   0.448 -0.4169 -0.4011  0.9546
15847SOL     OW59519  10.403   6.292   5.937  0.5378 -0.0470 -0.1781
15847SOL    HW159520  10.453   6.345   5.875  1.1667 -1.3191 -0.7973
15847SOL    HW259521  10.400   6.205   5.897 -1.0219 -0.3340  0.5029
15848SOL     OW59522   6.825   8.079   3.142 -0.0617  0.8151 -0.6437
15848SOL    HW159523   6.804   8.002   3.089  0.0830  2.1745 -2.8304
15848SOL    HW259524   6.921   8.082   3.144  0.0236 -0.5289  1.8571
15849SOL     OW59525  10.934  11.527   7.555  0.4148 -0.2372 -0.4213
15849SOL    HW159526  10.871  11.542   7.626 -0.1413 -3.1301 -0.1932
15849SOL    HW259527  10.928  11.605   7.501 -2.8042 -0.0470  0.0315
15850SOL     OW59528   2.021   8.393   0.498 -0.4088  0.1644 -0.2565
15850SOL    HW159529   1.944   8.392   0.442 -1.1348  1.1267  0.6845
15850SOL    HW259530   1.988   8.422   0.583  0.9225  0.1779  0.2718
15851SOL     OW59531  12.367   6.834  10.529  0.1961 -0.0412  0.2056
15851SOL    HW159532  12.292   6.857  10.475 -1.2104 -0.2580  1.9734
15851SOL    HW259533  12.394   6.748  10.496  0.3440  0.4812 -1.0992
15852SOL     OW59534  11.442   4.927   0.265  0.1265  0.5058 -0.5510
15852SOL    HW159535  11.494   4.980   0.326 -0.3079  0.4134 -0.0908
15852SOL    HW259536  11.445   4.974   0.182 -1.1786  1.8593  0.1247
15853SOL     OW59537   9.205   0.473   9.298  0.3731  0.5226  0.5172
15853SOL    HW159538   9.160   0.545   9.255 -1.0275 -1.0859 -0.9107
15853SOL    HW259539   9.282   0.456   9.244 -0.5907 -0.5356 -0.5986
15854SOL     OW59540   0.435   1.374  10.895 -0.0766 -0.5906 -0.5868
15854SOL    HW159541   0.436   1.434  10.970  2.0704  1.1957 -1.9052
15854SOL    HW259542   0.525   1.340  10.890 -0.9209 -2.9880 -0.6654
15855SOL     OW59543   4.054   2.563   5.095  0.2190  0.2819 -0.2341
15855SOL    HW159544   4.003   2.640   5.121  0.8969  0.7723 -0.3347
15855SOL    HW259545   4.113   2.547   5.168  0.6148  0.3277 -0.5412
15856SOL     OW59546  12.790  13.021   3.672  0.4891 -0.1609 -0.0023
15856SOL    HW159547  12.880  12.992   3.683  0.3765 -1.0961 -1.3301
15856SOL    HW259548  12.746  12.994   3.753  0.9001 -1.7252 -0.2711
15857SOL     OW59549   8.680  13.593  10.095 -0.6516  0.0899 -0.0213
15857SOL    HW159550   8.597  13.581  10.047 -0.8004  1.4336 -0.1521
15857SOL    HW259551   8.747  13.581  10.028 -0.8227  0.8595 -0.3495
15858SOL     OW59552  10.811   4.428   4.993  0.2076 -0.0360  0.5922
15858SOL    HW159553  10.728   4.460   5.030 -0.4709 -1.3135  0.2515
15858SOL    HW259554  10.827   4.485   4.918  0.0495  0.7074  1.1098
15859SOL     OW59555   8.644   8.420   5.793  0.1975 -0.7558 -0.3463
15859SOL    HW159556   8.638   8.487   5.725 -0.5693 -0.4754 -0.0043
15859SOL    HW259557   8.609   8.462   5.872 -0.8753 -1.7446 -0.2709
15860SOL     OW59558  12.983  10.581   7.741 -0.3044  0.0439 -0.6175
15860SOL    HW159559  13.047  10.518   7.773  0.6641  0.9074 -0.8159
15860SOL    HW259560  12.926  10.531   7.683  0.4436 -0.6501 -0.7631
15861SOL     OW59561   9.535   6.514  13.819  0.0941 -0.1425  0.2227
15861SOL    HW159562   9.594   6.530  13.893 -2.7924  0.8427  2.5425
15861SOL    HW259563   9.516   6.601  13.784 -0.3496 -0.3799 -0.1417
15862SOL     OW59564   9.998   4.264   0.599 -0.4532  0.2704 -0.1125
15862SOL    HW159565  10.053   4.186   0.599 -2.8122 -1.5020 -0.6749
15862SOL    HW259566   9.969   4.273   0.690 -0.3868  0.3534 -0.0989
15863SOL     OW59567   7.270   8.753   6.546  0.0790 -0.2333 -0.2125
15863SOL    HW159568   7.185   8.790   6.568 -0.2993  0.7630 -2.9646
15863SOL    HW259569   7.263   8.660   6.567 -1.9879 -0.3188 -1.0986
15864SOL     OW59570  11.589   7.608   0.300  0.0143  0.2547  0.4808
15864SOL    HW159571  11.595   7.622   0.395 -1.1304  0.1523  0.5770
15864SOL    HW259572  11.644   7.677   0.262  0.0298  0.6435  1.1935
15865SOL     OW59573   1.401   2.754   4.572  0.3314 -0.2311 -0.3772
15865SOL    HW159574   1.386   2.711   4.488 -0.7385 -0.1528 -0.2335
15865SOL    HW259575   1.496   2.752   4.583  0.4170 -1.0396 -1.1669
15866SOL     OW59576  11.352  13.830   2.881 -0.0248 -0.4119 -0.2399
15866SOL    HW159577  11.275  13.792   2.838  0.7531 -2.0092 -0.2721
15866SOL    HW259578  11.385  13.894   2.817 -0.3574 -0.9323 -0.9545
15867SOL     OW59579   7.394   7.086  10.219 -0.8337  0.7158  0.0069
15867SOL    HW159580   7.309   7.103  10.260 -0.0915 -1.0814  2.5507
15867SOL    HW259581   7.399   6.991  10.213  0.2618  0.8384 -1.8902
15868SOL     OW59582  11.018   0.446   9.560 -0.2819 -0.2649 -0.4603
15868SOL    HW159583  10.970   0.458   9.642  0.1330 -2.6867  0.2079
15868SOL    HW259584  10.988   0.362   9.527  1.4992 -0.5667 -1.4223
15869SOL     OW59585   2.891   0.063   3.735 -0.2226  0.6288  0.0490
15869SOL    HW159586   2.821   0.110   3.780  0.4524  0.8512  0.8919
15869SOL    HW259587   2.972   0.104   3.767  0.3041  0.2192 -0.7224
15870SOL     OW59588  12.703  13.406   0.174  0.6184  0.4796 -0.2580
15870SOL    HW159589  12.663  13.325   0.144 -1.4013  1.0719  0.6234
15870SOL    HW259590  12.745  13.383   0.257 -0.2189  0.3779  0.1459
15871SOL     OW59591   1.907   8.124   0.180  0.5115  0.5749  0.1827
15871SOL    HW159592   1.884   8.060   0.247 -0.5582  0.3592 -0.3808
15871SOL    HW259593   1.996   8.100   0.153  0.8449  0.5017  1.3207
15872SOL     OW59594   1.657  12.099   8.804  0.4691 -0.0585 -0.1144
15872SOL    HW159595   1.570  12.119   8.838  1.2918  0.6856  1.7141
15872SOL    HW259596   1.688  12.182   8.767  1.4056  0.4601  1.7031
15873SOL     OW59597   6.920  10.735   9.720  0.0447 -0.9280 -0.5741
15873SOL    HW159598   6.980  10.672   9.681  0.8451 -0.8448  0.4765
15873SOL    HW259599   6.910  10.705   9.811 -0.9849 -0.5584 -0.5518
15874SOL     OW59600   6.500   9.314   6.651 -0.1459  0.2047  0.5105
15874SOL    HW159601   6.470   9.228   6.622 -2.0524  1.0990 -0.3069
15874SOL    HW259602   6.431   9.345   6.710 -0.7070  2.1473 -1.0649
15875SOL     OW59603   8.529   0.316  13.168 -0.4290  0.6647  0.1753
15875SOL    HW159604   8.440   0.293  13.142 -0.1407 -2.4698  1.5083
15875SOL    HW259605   8.518   0.372  13.244 -1.2607  0.9924 -0.1762
15876SOL     OW59606   6.263   4.738   8.106  0.5943 -0.2903 -0.4041
15876SOL    HW159607   6.217   4.808   8.152  3.3780  2.5657 -1.5403
15876SOL    HW259608   6.223   4.736   8.019  1.0286  0.5763 -0.6424
15877SOL     OW59609   8.563  11.147   2.171 -0.2345  0.3974  0.2488
15877SOL    HW159610   8.473  11.175   2.186 -0.1808 -0.2057  1.9935
15877SOL    HW259611   8.593  11.199   2.097 -1.3241  2.2118  1.0190
15878SOL     OW59612  12.246   8.351   9.518 -0.0725  0.2183  0.0243
15878SOL    HW159613  12.328   8.360   9.470  0.2894 -1.9642  0.1524
15878SOL    HW259614  12.261   8.279   9.579 -1.5871  0.8046  1.1374
15879SOL     OW59615   4.560   6.356  12.795  0.2254  0.4204 -0.4796
15879SOL    HW159616   4.541   6.377  12.703  1.3344  1.3579 -0.5252
15879SOL    HW259617   4.603   6.271  12.791 -0.0796  0.2739 -0.7859
15880SOL     OW59618   5.004   6.376   8.013 -0.4154 -0.1232 -0.4834
15880SOL    HW159619   4.981   6.456   7.966 -0.4597 -0.0918 -0.4074
15880SOL    HW259620   4.980   6.394   8.104 -0.7975 -0.3663 -0.5329
15881SOL     OW59621   0.837   3.040   8.160  0.2636  0.4080 -0.0003
15881SOL    HW159622   0.930   3.052   8.178 -0.2902  2.0518  2.1987
15881SOL    HW259623   0.834   2.992   8.077  3.1098 -2.5842  1.3840
15882SOL     OW59624   5.894   4.954  13.555 -0.0719 -0.0588 -0.7764
15882SOL    HW159625   5.900   4.954  13.650 -1.9512 -5.0779 -0.3201
15882SOL    HW259626   5.982   4.932  13.525  0.0281 -0.8216  0.0267
15883SOL     OW59627   8.244   4.285   4.634 -0.4896  0.1057  0.0453
15883SOL    HW159628   8.243   4.209   4.691 -0.2552  0.1251  0.0740
15883SOL    HW259629   8.326   4.329   4.653  0.5539 -0.9573 -1.7279
15884SOL     OW59630   2.881   1.403   7.163 -0.0464 -0.4488 -0.1821
15884SOL    HW159631   2.803   1.383   7.214 -0.1281 -2.9380 -1.1254
15884SOL    HW259632   2.953   1.370   7.217  0.0242 -1.3313 -0.7897
15885SOL     OW59633   3.465  11.516  13.646  0.3931  0.6939  0.4445
15885SOL    HW159634   3.492  11.525  13.555 -0.3052  1.0506  0.2666
15885SOL    HW259635   3.535  11.558  13.696  0.2342  1.5115 -0.0036
15886SOL     OW59636   0.052   4.153   0.432 -0.4959 -0.0086 -0.4635
15886SOL    HW159637   0.057   4.067   0.474 -0.7947  0.0689 -0.2698
15886SOL    HW259638   0.085   4.214   0.497 -2.1152  0.2721  0.1411
15887SOL     OW59639   2.040   7.258   8.814 -0.3737 -0.3389  0.9029
15887SOL    HW159640   2.002   7.344   8.832  0.4693 -0.2902  2.6408
15887SOL    HW259641   2.111   7.249   8.877  0.7401 -1.5733 -0.4427
15888SOL     OW59642   1.548   3.315   7.834  0.4856 -0.2556  0.2469
15888SOL    HW159643   1.464   3.345   7.797  1.2339  0.6200 -0.8267
15888SOL    HW259644   1.561   3.228   7.796  0.8610  0.3065 -0.9587
15889SOL     OW59645  12.081   9.697   2.290  0.9483  0.0871  0.0760
15889SOL    HW159646  12.141   9.770   2.304  1.9342 -0.6047 -0.4063
15889SOL    HW259647  12.047   9.711   2.201  0.5217  0.3887  0.2858
15890SOL     OW59648   3.853   9.743   2.299  0.2046  0.1637 -0.0579
15890SOL    HW159649   3.911   9.725   2.225 -1.7495  0.6333 -1.8063
15890SOL    HW259650   3.800   9.817   2.269 -2.3954 -1.2733  0.7589
15891SOL     OW59651  10.303   9.582  13.554  0.3071 -0.1424  0.3683
15891SOL    HW159652  10.342   9.618  13.633 -1.4389  1.0698  0.7341
15891SOL    HW259653  10.237   9.646  13.528 -1.0645 -1.8031 -0.5119
15892SOL     OW59654   2.647   3.506   8.043 -0.5153  0.1561 -0.0334
15892SOL    HW159655   2.695   3.587   8.022 -0.3891 -0.2676 -1.4468
15892SOL    HW259656   2.715   3.442   8.062 -0.6013  0.1868  0.3978
15893SOL     OW59657   0.507  10.691   2.092 -0.0429 -0.2109  0.0074
15893SOL    HW159658   0.581  10.749   2.108 -0.0374  0.5803 -2.4100
15893SOL    HW259659   0.545  10.604   2.085  0.2525 -0.2227  1.4055
15894SOL     OW59660   0.064   0.305  10.197 -0.8685 -0.0290 -0.3477
15894SOL    HW159661   0.155   0.325  10.220 -0.9787 -0.4989  0.5311
15894SOL    HW259662   0.027   0.390  10.172  0.2344 -0.0697 -2.3007
15895SOL     OW59663   8.509   8.391   9.233 -0.1196 -0.4209  0.2357
15895SOL    HW159664   8.467   8.305   9.241  3.1860 -2.4489 -1.6546
15895SOL    HW259665   8.558   8.402   9.315  0.2129 -0.8508  0.1010
15896SOL     OW59666   9.720  12.516   5.659  0.2619  0.3429 -0.0982
15896SOL    HW159667   9.657  12.557   5.717  0.9382  1.5179 -0.1678
15896SOL    HW259668   9.802  12.515   5.709  0.4743 -0.0706 -0.4459
15897SOL     OW59669   0.827  11.541   5.064  0.0847  0.5931  0.1387
15897SOL    HW159670   0.740  11.533   5.103 -0.1373  2.1353  0.0056
15897SOL    HW259671   0.811  11.531   4.970  0.0590  0.7735  0.1231
15898SOL     OW59672   4.601  13.476   0.330 -0.7284 -0.0805 -0.2019
15898SOL    HW159673   4.556  13.401   0.290  0.4759  0.1022 -2.0537
15898SOL    HW259674   4.539  13.511   0.393 -2.9022 -0.2965 -2.0937
15899SOL     OW59675  11.253   5.453   6.136 -0.1207  0.1004 -0.0682
15899SOL    HW159676  11.208   5.516   6.192 -1.3240 -0.9959  0.2334
15899SOL    HW259677  11.193   5.378   6.130  1.3117 -1.0676 -0.3358
15900SOL     OW59678   1.222  13.441  13.281 -0.2957 -0.3918 -0.1791
15900SOL    HW159679   1.298  13.447  13.339 -1.2427  2.5758  0.9224
15900SOL    HW259680   1.147  13.429  13.340 -0.9640 -0.5381 -1.0279
15901SOL     OW59681   0.126  13.409   5.997  0.0130 -0.0206 -0.1889
15901SOL    HW159682   0.044  13.413   5.948 -0.5921 -2.7650  0.4147
15901SOL    HW259683   0.100  13.420   6.089  0.6831  1.5928 -0.1674
15902SOL     OW59684   5.083   8.705  14.020  0.0038 -0.1054  0.6390
15902SOL    HW159685   5.012   8.744  14.071  2.3067  3.5738  1.3806
15902SOL    HW259686   5.064   8.730  13.929 -0.7208 -0.9832  0.5430
15903SOL     OW59687  12.246  12.994  13.860  0.6209 -0.1447 -0.3997
15903SOL    HW159688  12.289  13.000  13.945  1.8963 -0.4812 -0.9948
15903SOL    HW259689  12.282  13.068  13.810 -0.1814  0.1035 -0.6294
15904SOL     OW59690   5.558   3.545   2.996 -0.2098  0.2242 -0.2317
15904SOL    HW159691   5.527   3.550   2.906 -0.1606  1.6961 -0.1857
15904SOL    HW259692   5.635   3.488   2.992 -0.2495  0.2213 -1.0945
15905SOL     OW59693   3.145   7.423   8.290  0.1417  0.3745 -0.9314
15905SOL    HW159694   3.066   7.381   8.323  0.5043 -0.8504 -1.5782
15905SOL    HW259695   3.116   7.509   8.261 -0.5812  0.6735  0.5727
15906SOL     OW59696  12.051  11.663   3.397 -0.3747 -0.1555 -0.0654
15906SOL    HW159697  12.103  11.726   3.447 -0.0524  1.1152 -1.8914
15906SOL    HW259698  11.962  11.671   3.432  0.2025 -0.8389  1.6727
15907SOL     OW59699  12.755   9.992   4.419 -0.3612  0.4851  0.2683
15907SOL    HW159700  12.732   9.940   4.497  1.3737 -1.7042 -0.5529
15907SOL    HW259701  12.827  10.048   4.448  1.1932 -1.2704  0.0444
15908SOL     OW59702  13.369   9.524   0.691  0.3466 -0.4194  1.1296
15908SOL    HW159703  13.450   9.475   0.709  0.2787 -0.5005  1.2159
15908SOL    HW259704  13.360   9.519   0.595 -0.0129 -1.1472  1.1945
15909SOL     OW59705   4.115   5.674   0.673  0.3375 -0.0660  0.2457
15909SOL    HW159706   4.160   5.758   0.683  1.6984 -0.9310  2.2069
15909SOL    HW259707   4.032   5.695   0.631 -0.4044  2.6268  2.7530
15910SOL     OW59708   0.855  10.449   3.821  0.0261 -0.0313 -0.5182
15910SOL    HW159709   0.944  10.420   3.835  0.1916  1.2039  1.4201
15910SOL    HW259710   0.802  10.396   3.881 -0.1366  1.0912  0.3708
15911SOL     OW59711  10.734  12.560  10.798  0.4227 -0.0607  0.4710
15911SOL    HW159712  10.768  12.636  10.750 -1.5637  0.1191 -0.7870
15911SOL    HW259713  10.672  12.519  10.737 -0.0658 -1.5120  1.8731
15912SOL     OW59714   1.091   2.382  13.492 -0.1951  0.4821  0.7366
15912SOL    HW159715   1.118   2.325  13.565 -0.7651  0.7211  1.1418
15912SOL    HW259716   1.044   2.324  13.433  0.7971  0.1573  0.2485
15913SOL     OW59717   9.460   2.874   3.655  0.0788  0.2225 -0.0238
15913SOL    HW159718   9.473   2.817   3.731 -1.0071  0.3702  0.2865
15913SOL    HW259719   9.539   2.927   3.652 -0.4851  1.2975  1.9552
15914SOL     OW59720   2.217   4.564   5.773 -0.1461  0.0725  0.3192
15914SOL    HW159721   2.172   4.644   5.746 -1.8527 -0.9071  0.0413
15914SOL    HW259722   2.239   4.578   5.864  0.0392  1.0524  0.1309
15915SOL     OW59723   5.720   2.264   4.728  0.7800  0.2933 -0.0417
15915SOL    HW159724   5.803   2.275   4.682  0.2776  0.7670 -0.8799
15915SOL    HW259725   5.733   2.308   4.812  1.7521 -0.6655  0.3272
15916SOL     OW59726  13.070   8.828   9.468  0.6565 -0.3038  0.4504
15916SOL    HW159727  13.145   8.859   9.519  0.0404  2.7299 -0.3253
15916SOL    HW259728  13.105   8.817   9.380  0.7673 -1.5185  0.6332
15917SOL     OW59729  11.583   4.123   3.979 -0.1867 -0.5062 -0.0590
15917SOL    HW159730  11.664   4.074   3.968 -0.1712 -0.0855 -2.2821
15917SOL    HW259731  11.514   4.057   3.968 -0.1461 -0.5131 -0.2850
15918SOL     OW59732  10.708  13.901   1.934 -0.1895  0.1240 -0.3695
15918SOL    HW159733  10.757  13.892   1.853  0.1777 -1.2857 -0.0343
15918SOL    HW259734  10.697  13.811   1.965 -0.3618  0.6186  1.1131
15919SOL     OW59735   0.185  12.725   7.498  0.6932  0.0594 -0.0422
15919SOL    HW159736   0.151  12.677   7.574  0.7119 -2.4401 -1.4981
15919SOL    HW259737   0.273  12.753   7.525  0.7242 -0.8405  0.8647
15920SOL     OW59738  13.584  12.309   8.783 -0.1956 -0.8172 -0.3371
15920SOL    HW159739  13.676  12.306   8.758 -0.1178 -2.5081  0.0574
15920SOL    HW259740  13.542  12.243   8.729 -0.8336 -1.3683  0.8034
15921SOL     OW59741   7.496   0.868   8.607  0.5244 -0.4938 -0.9149
15921SOL    HW159742   7.523   0.777   8.595  0.6263 -0.4775 -0.8189
15921SOL    HW259743   7.407   0.872   8.573  0.6488 -0.5469 -1.2471
15922SOL     OW59744  12.764   5.402   1.118 -0.1542 -0.2893  0.0413
15922SOL    HW159745  12.761   5.480   1.174  1.4585 -0.1466 -0.0261
15922SOL    HW259746  12.777   5.436   1.030 -0.4239 -0.6002 -0.1180
15923SOL     OW59747   3.620   6.887   1.410  0.0636  0.4287 -0.2569
15923SOL    HW159748   3.536   6.852   1.441  0.5165 -1.5006 -1.0646
15923SOL    HW259749   3.606   6.904   1.316  0.2979  1.0591 -0.1847
15924SOL     OW59750   3.482  10.713   8.658 -0.6279  0.3467 -0.0342
15924SOL    HW159751   3.408  10.730   8.600  1.6627 -1.0555 -3.6983
15924SOL    HW259752   3.535  10.792   8.654  0.9923 -0.7499 -2.4334
15925SOL     OW59753   9.652  12.124   8.550  0.3623  0.3258 -0.1983
15925SOL    HW159754   9.659  12.211   8.590 -0.4501  1.3536 -2.1444
15925SOL    HW259755   9.675  12.138   8.458 -0.1050 -1.4572 -0.6269
15926SOL     OW59756   9.813   6.986   7.607 -0.2694 -0.2978  0.1755
15926SOL    HW159757   9.816   6.993   7.511 -0.7751  2.1940  0.2813
15926SOL    HW259758   9.771   6.902   7.623  2.1311 -2.0094 -1.7297
15927SOL     OW59759   8.900   7.602   4.234  0.1685  0.1489 -0.2980
15927SOL    HW159760   8.970   7.546   4.269  0.1500 -0.7223 -1.5995
15927SOL    HW259761   8.822   7.575   4.283 -0.0923 -1.8720 -1.7270
15928SOL     OW59762   2.065   9.444   9.982 -0.2005 -0.0976  0.2003
15928SOL    HW159763   1.978   9.409  10.003 -0.4732  0.2662 -0.3116
15928SOL    HW259764   2.051   9.497   9.904  1.0907 -2.8687 -2.1113
15929SOL     OW59765   5.503  11.416   5.247  0.1982 -0.2449  0.2584
15929SOL    HW159766   5.459  11.488   5.201  1.4297  0.0043 -0.5949
15929SOL    HW259767   5.523  11.352   5.179 -0.6144 -1.2854  0.9661
15930SOL     OW59768   3.141   4.124  11.421  0.1740  0.0354 -0.0041
15930SOL    HW159769   3.094   4.059  11.473 -0.3188 -1.6869 -2.3954
15930SOL    HW259770   3.232   4.118  11.451 -0.2886  0.0300  1.4694
15931SOL     OW59771   1.782   8.074  10.374 -0.2539 -0.5736  0.2407
15931SOL    HW159772   1.697   8.105  10.407  0.6876  1.5639  0.8652
15931SOL    HW259773   1.767   8.062  10.280 -0.9909  0.9780  0.1088
15932SOL     OW59774   7.012  11.222   0.998 -0.1982  0.2848 -0.5010
15932SOL    HW159775   6.955  11.230   1.075  1.2278  0.4214  0.5773
15932SOL    HW259776   6.955  11.242   0.924 -1.7601 -0.4501  0.4596
15933SOL     OW59777   2.262   8.315   0.361 -0.2550 -0.2757  0.7011
15933SOL    HW159778   2.182   8.336   0.410  0.2356 -0.1729  1.4700
15933SOL    HW259779   2.326   8.379   0.390  0.6380 -1.4648  1.4595
15934SOL     OW59780   7.634   0.216  10.169  0.3775  0.4219  0.3390
15934SOL    HW159781   7.671   0.259  10.246 -1.1988  1.7979  0.3738
15934SOL    HW259782   7.573   0.152  10.205  0.1999  0.5340  0.2359
15935SOL     OW59783   0.815  13.348   1.557  0.1361 -0.1790 -0.7057
15935SOL    HW159784   0.861  13.424   1.592  1.2516 -0.5543 -1.2667
15935SOL    HW259785   0.743  13.384   1.506  1.5201  0.6065 -2.2001
15936SOL     OW59786   3.141  12.196   6.773  0.3412  0.2505 -0.1052
15936SOL    HW159787   3.166  12.221   6.684  2.0811 -1.8448 -0.2912
15936SOL    HW259788   3.222  12.205   6.824 -0.6602  1.5669  1.3452
15937SOL     OW59789   8.049   3.358  10.381 -0.1716 -0.1337 -0.0927
15937SOL    HW159790   8.027   3.322  10.295 -1.1488 -0.0712  0.1205
15937SOL    HW259791   8.055   3.452  10.367  0.8774 -0.2335 -0.3384
15938SOL     OW59792  13.478  12.786   9.012 -0.1899  0.1721  0.1025
15938SOL    HW159793  13.420  12.748   9.078 -0.4236 -0.8872 -0.7010
15938SOL    HW259794  13.433  12.866   8.985  0.4758  1.2897  2.0519
15939SOL     OW59795   8.380   3.343   1.650  0.4464  0.6977 -0.4649
15939SOL    HW159796   8.424   3.419   1.612  1.8658  0.5420  0.7543
15939SOL    HW259797   8.351   3.373   1.736  0.8087 -0.0435 -0.0730
15940SOL     OW59798  13.264   3.914   3.655 -0.0137 -0.3614 -0.3636
15940SOL    HW159799  13.262   3.910   3.559 -0.5798 -2.8231 -0.3055
15940SOL    HW259800  13.322   3.843   3.680  0.4401  0.5085  1.1412
15941SOL     OW59801  12.188   9.159   7.304  0.7905 -0.6494 -0.2447
15941SOL    HW159802  12.128   9.085   7.309  1.4146 -1.2318 -0.9675
15941SOL    HW259803  12.133   9.236   7.316 -0.0097 -1.1963 -0.3372
15942SOL     OW59804  12.643  11.813   1.964  0.8118 -0.0670  0.7453
15942SOL    HW159805  12.572  11.825   2.027  0.1502  2.5249 -0.4015
15942SOL    HW259806  12.717  11.859   2.003  0.9097  0.0218  0.4578
15943SOL     OW59807   0.324  12.399  11.644 -0.3436 -0.0125  0.0892
15943SOL    HW159808   0.370  12.453  11.707  1.3140 -0.2001 -0.9084
15943SOL    HW259809   0.275  12.461  11.590 -2.3175  0.1111  1.8846
15944SOL     OW59810   0.345   9.061   1.933  0.7206  0.1624 -0.0849
15944SOL    HW159811   0.278   9.072   1.865 -0.2317 -0.6250  0.6979
15944SOL    HW259812   0.373   9.150   1.953  3.0424  0.3789 -3.4005
15945SOL     OW59813   1.182  11.931   1.390 -0.1294 -0.5662 -0.4770
15945SOL    HW159814   1.109  11.903   1.445 -0.0042 -1.1379 -0.5925
15945SOL    HW259815   1.147  11.929   1.301 -0.8754  2.0357 -0.3408
15946SOL     OW59816   9.059   6.456  13.881 -0.9161  0.5030 -0.0759
15946SOL    HW159817   9.043   6.551  13.882 -0.4730  0.5816 -0.1263
15946SOL    HW259818   9.154   6.448  13.866 -1.1354  0.0396 -1.3952
15947SOL     OW59819   8.716  11.203   5.114 -0.2066  0.2491 -0.5476
15947SOL    HW159820   8.799  11.201   5.066 -1.9874 -0.4097 -3.9388
15947SOL    HW259821   8.662  11.264   5.065 -2.3918 -0.8982  0.3201
15948SOL     OW59822   1.701   7.135   6.823 -0.2669 -0.1035 -0.2779
15948SOL    HW159823   1.774   7.152   6.882 -0.5396 -1.1129  0.3842
15948SOL    HW259824   1.630   7.190   6.856 -0.4564 -0.7509  0.4425
15949SOL     OW59825   3.099   7.807   0.539  0.8997  0.2112 -0.3852
15949SOL    HW159826   3.132   7.803   0.450 -0.0169 -2.2438 -0.6842
15949SOL    HW259827   3.022   7.750   0.540  1.0725 -0.1184  2.0575
15950SOL     OW59828   8.130   8.821   9.959  0.8444  0.3097  0.0189
15950SOL    HW159829   8.177   8.757  10.012  1.4269  0.7803  0.0849
15950SOL    HW259830   8.083   8.875  10.022 -0.2754 -0.5178 -0.0759
15951SOL     OW59831  14.026  12.571   6.520 -0.0742 -0.1279 -0.4091
15951SOL    HW159832  14.014  12.541   6.430  2.2875  0.4348 -0.9834
15951SOL    HW259833  14.099  12.517   6.553 -1.5164 -1.0142  1.5373
15952SOL     OW59834  10.737   9.417  10.449 -0.7274 -0.4544 -0.3555
15952SOL    HW159835  10.752   9.361  10.373 -1.0119  0.5365 -1.1591
15952SOL    HW259836  10.784   9.497  10.430 -1.4650  0.1177  0.1437
15953SOL     OW59837   9.390   3.496   7.053  0.1343 -0.3473  0.6815
15953SOL    HW159838   9.325   3.525   6.989  3.4475 -0.2717 -3.0318
15953SOL    HW259839   9.402   3.403   7.034  1.3212 -0.2747  1.0281
15954SOL     OW59840   4.574  10.218   4.297  0.1689 -0.2838  0.3315
15954SOL    HW159841   4.652  10.183   4.341  0.7698 -0.4890 -0.8420
15954SOL    HW259842   4.595  10.310   4.280 -0.7104  0.2267  1.8733
15955SOL     OW59843   3.084   9.307   5.157 -0.2516  0.4324 -0.5207
15955SOL    HW159844   3.093   9.396   5.192  1.2057 -0.1543  0.6966
15955SOL    HW259845   3.044   9.257   5.227  2.7258 -0.7642  0.4661
15956SOL     OW59846  12.509  13.236  11.191 -0.5463 -0.0042  0.0002
15956SOL    HW159847  12.530  13.198  11.277 -0.3051 -0.9113 -0.4420
15956SOL    HW259848  12.586  13.220  11.138 -0.5616  0.8680 -0.2930
15957SOL     OW59849  11.840   1.919   4.656  0.0582 -0.3192 -0.0882
15957SOL    HW159850  11.877   1.955   4.737  0.9923  0.7490 -0.9466
15957SOL    HW259851  11.812   1.831   4.679 -0.2128  0.1643  1.5349
15958SOL     OW59852   4.804   7.533   2.438 -0.5951  0.5026  0.2728
15958SOL    HW159853   4.875   7.534   2.502  0.1185 -2.4340 -0.3204
15958SOL    HW259854   4.845   7.565   2.357 -0.3432  0.2021  0.2803
15959SOL     OW59855   8.933   2.974   1.192 -0.7139 -0.0254  0.2550
15959SOL    HW159856   8.980   2.918   1.129  1.1238 -0.4058  1.8668
15959SOL    HW259857   8.999   2.995   1.258 -1.7974  2.7955  0.5417
15960SOL     OW59858   7.878  13.714   1.479 -0.1358  0.3150  0.0339
15960SOL    HW159859   7.877  13.624   1.448 -0.8982  0.0627  0.7633
15960SOL    HW259860   7.800  13.754   1.441 -0.3786  0.3602  0.5684
15961SOL     OW59861  11.294  13.684   8.424  0.0310  0.3571  0.1944
15961SOL    HW159862  11.277  13.724   8.509 -1.5477  1.0324 -0.4084
15961SOL    HW259863  11.390  13.677   8.420  0.1646  0.9793  1.7100
15962SOL     OW59864   3.408  13.105   7.369 -0.2093  0.4298 -0.2224
15962SOL    HW159865   3.458  13.145   7.298 -0.5168 -0.3236 -0.8781
15962SOL    HW259866   3.445  13.143   7.449  1.7811 -0.4944 -0.6404
15963SOL     OW59867  12.021   8.858  11.559  0.2131 -0.4997 -0.0893
15963SOL    HW159868  11.931   8.832  11.543  0.2144 -0.5524 -0.0117
15963SOL    HW259869  12.068   8.776  11.575 -0.2183 -0.3189  2.4149
15964SOL     OW59870   0.774   6.087   9.918 -0.1098  0.0956 -0.5485
15964SOL    HW159871   0.805   6.013   9.970  1.2035  0.6314 -0.5315
15964SOL    HW259872   0.684   6.064   9.894  0.6408 -2.0543 -1.5557
15965SOL     OW59873  10.964   5.605   7.267  0.3484 -0.0424  0.0196
15965SOL    HW159874  11.020   5.550   7.212 -0.4840 -0.5537 -0.3319
15965SOL    HW259875  10.997   5.590   7.356  1.8028  0.9129 -0.3292
15966SOL     OW59876  11.457   7.223  11.423 -0.0548 -0.9977  0.1036
15966SOL    HW159877  11.365   7.215  11.449 -0.1487 -2.4816 -0.5925
15966SOL    HW259878  11.479   7.314  11.443 -1.5868 -0.6812  0.5400
15967SOL     OW59879   1.914  13.364   8.594 -0.0306 -0.1430 -0.4354
15967SOL    HW159880   1.938  13.427   8.662  0.5102 -1.4081  0.5966
15967SOL    HW259881   1.998  13.330   8.563 -0.2737  0.3383 -1.7020
15968SOL     OW59882   3.631   3.425   2.744  0.1122  0.1115 -0.3091
15968SOL    HW159883   3.636   3.329   2.748 -1.0440  0.0501 -0.0217
15968SOL    HW259884   3.578   3.443   2.667 -1.3105  0.4382  0.6993
15969SOL     OW59885   2.839   3.168  11.465  0.1425 -0.4995  0.2105
15969SOL    HW159886   2.804   3.105  11.403 -0.1147 -0.0339 -0.1204
15969SOL    HW259887   2.830   3.253  11.421 -1.2101 -0.0042  1.3625
15970SOL     OW59888  10.042  12.769   2.467  0.2322  0.0410 -0.7464
15970SOL    HW159889   9.995  12.734   2.542 -0.0005  0.8060 -0.5185
15970SOL    HW259890  10.096  12.697   2.436 -0.1434 -0.4719 -0.2329
15971SOL     OW59891   4.528   3.456   1.306 -0.5291 -0.7308 -0.4644
15971SOL    HW159892   4.588   3.428   1.237  0.6411 -2.6333  1.2178
15971SOL    HW259893   4.522   3.551   1.295  0.7114 -0.8103 -2.2915
15972SOL     OW59894   7.741  13.890   7.946 -0.0536 -0.8211 -0.1495
15972SOL    HW159895   7.738  13.889   8.042 -0.8963 -1.2458 -0.1654
15972SOL    HW259896   7.797  13.965   7.924  0.4810 -0.9664  0.6756
15973SOL     OW59897   2.575   8.520  11.490  0.0280 -0.2602  0.0884
15973SOL    HW159898   2.538   8.463  11.423 -0.0808  0.5137 -0.5283
15973SOL    HW259899   2.650   8.562  11.446  0.6593 -0.6173  0.8165
15974SOL     OW59900  10.994   9.400  12.817  0.6789 -0.1016 -0.5917
15974SOL    HW159901  10.966   9.477  12.769 -1.7636  0.4470  1.4600
15974SOL    HW259902  10.941   9.329  12.782 -0.6665  0.1853  0.7371
15975SOL     OW59903  11.475   1.755   3.661 -0.2491 -0.3385 -0.5722
15975SOL    HW159904  11.397   1.769   3.714  0.4455 -0.8493  0.6291
15975SOL    HW259905  11.540   1.815   3.698  0.0786 -0.2494 -1.2633
15976SOL     OW59906   0.703   1.253  10.537 -0.0184 -0.0631  0.2925
15976SOL    HW159907   0.647   1.330  10.538 -0.2494 -0.2307  0.2741
15976SOL    HW259908   0.644   1.180  10.517 -0.0225 -0.4320  1.5998
15977SOL     OW59909   0.375   9.442   3.112 -0.0468 -0.5809  0.4981
15977SOL    HW159910   0.289   9.406   3.091 -1.1900  0.9314  2.2019
15977SOL    HW259911   0.432   9.366   3.120 -0.9538 -1.5578 -1.6666
15978SOL     OW59912  12.937   7.482   3.315 -0.0506  0.5903 -0.4275
15978SOL    HW159913  13.022   7.486   3.360 -1.0493  0.9483  1.5450
15978SOL    HW259914  12.919   7.389   3.306  0.8124  0.5016 -1.4460
15979SOL     OW59915   7.724   2.259   4.533 -0.0203  0.2269 -0.0668
15979SOL    HW159916   7.696   2.281   4.622 -2.2490 -0.0328 -0.6577
15979SOL    HW259917   7.658   2.198   4.501 -0.5697  2.0659 -2.7346
15980SOL     OW59918   3.630  13.444   1.739 -0.1657 -0.3042  0.0785
15980SOL    HW159919   3.666  13.362   1.770  0.1042 -0.2576 -0.1118
15980SOL    HW259920   3.664  13.454   1.650  0.8517  0.6444  0.5488
15981SOL     OW59921   2.740   6.411   2.599  1.1645 -0.5441 -0.1836
15981SOL    HW159922   2.717   6.475   2.531 -1.7179 -2.1297 -0.8667
15981SOL    HW259923   2.660   6.401   2.651  1.9184 -2.6489  0.6970
15982SOL     OW59924  13.040  11.278   3.531  0.2128 -0.3714  0.8122
15982SOL    HW159925  13.084  11.322   3.604 -0.1308  0.2239  0.6704
15982SOL    HW259926  12.961  11.330   3.517  0.1624 -0.6165  0.1657
15983SOL     OW59927   7.994   7.127   1.838  0.9402  0.2284  0.4794
15983SOL    HW159928   8.083   7.093   1.828  0.9198  0.1142  0.6678
15983SOL    HW259929   7.947   7.094   1.761  1.4881  1.7252 -0.5401
15984SOL     OW59930   8.772   7.610  13.116 -0.6273 -0.1516  0.2440
15984SOL    HW159931   8.678   7.608  13.134 -0.7906 -1.3270 -0.6608
15984SOL    HW259932   8.812   7.567  13.192 -0.8247  0.2110  0.5553
15985SOL     OW59933   7.989   2.989   9.467 -0.5310 -0.6158 -0.0250
15985SOL    HW159934   8.071   3.037   9.482 -0.9931 -0.1887  1.2873
15985SOL    HW259935   8.015   2.897   9.468  0.2482 -0.4553 -1.8039
15986SOL     OW59936  13.598   5.455   5.396 -0.1922 -0.1503 -0.1315
15986SOL    HW159937  13.663   5.393   5.429 -0.8546 -1.8304 -1.7635
15986SOL    HW259938  13.562   5.495   5.475  2.4647  0.5435  0.8432
15987SOL     OW59939  11.792   5.300  12.682  0.6876  0.1090 -0.0481
15987SOL    HW159940  11.743   5.223  12.652  0.0516  0.2074  0.7133
15987SOL    HW259941  11.802   5.287  12.776  4.6657 -1.3188 -0.4822
15988SOL     OW59942   3.278   1.307   3.742 -0.5556  0.0920  0.1084
15988SOL    HW159943   3.271   1.212   3.750  0.5554 -0.0146  0.0053
15988SOL    HW259944   3.188   1.337   3.731 -0.8164 -1.0921 -1.4053
15989SOL     OW59945   2.997   5.780   6.200 -0.2025  0.4279 -0.0540
15989SOL    HW159946   2.998   5.859   6.255  1.6432  0.1051  0.4426
15989SOL    HW259947   3.017   5.709   6.260  1.7470  0.0496 -1.0931
15990SOL     OW59948  13.335   3.492   9.665 -0.5377 -0.2266  0.3048
15990SOL    HW159949  13.323   3.560   9.599  1.1989 -0.9958 -0.8538
15990SOL    HW259950  13.323   3.537   9.749  0.6105  1.5186 -0.4268
15991SOL     OW59951   5.449   4.775   4.896  0.5570 -0.4025  0.7024
15991SOL    HW159952   5.449   4.785   4.801  1.4309  1.0149  0.8229
15991SOL    HW259953   5.511   4.704   4.913  1.2739  0.1002  0.2550
15992SOL     OW59954   1.205   1.630   0.304 -0.2908 -0.3723 -0.1519
15992SOL    HW159955   1.170   1.595   0.386 -2.3833 -1.4699 -1.4402
15992SOL    HW259956   1.229   1.552   0.253  0.4460  0.2713 -0.8098
15993SOL     OW59957  10.680  11.521   8.481 -0.6146 -0.2981 -0.2582
15993SOL    HW159958  10.651  11.610   8.463  0.5983  0.1186 -0.2523
15993SOL    HW259959  10.737  11.530   8.558  0.5801 -0.8549 -1.0452
15994SOL     OW59960  11.472   7.571   9.937  0.2113  0.7060  0.1103
15994SOL    HW159961  11.525   7.492   9.951 -0.0186  1.0560  4.4861
15994SOL    HW259962  11.532   7.643   9.955 -0.6257  1.3043  0.5689
15995SOL     OW59963   1.784   2.501   9.138  0.3291  0.2040  0.5877
15995SOL    HW159964   1.814   2.412   9.119  1.9847  0.2508  2.6456
15995SOL    HW259965   1.697   2.490   9.177 -0.2605 -0.3359 -0.8244
15996SOL     OW59966   6.688   4.136  13.212  0.0721  0.0389  0.3714
15996SOL    HW159967   6.646   4.062  13.256 -1.0529  0.3903 -0.0644
15996SOL    HW259968   6.615   4.190  13.182  0.8448  0.5078 -0.7167
15997SOL     OW59969   0.484   3.722  10.747 -0.4806  0.1357  0.8181
15997SOL    HW159970   0.436   3.765  10.675  1.8566  1.7847  0.0973
15997SOL    HW259971   0.497   3.791  10.812  0.5069 -0.3570  1.1733
15998SOL     OW59972   0.146   5.091   8.353  0.1319 -0.1741  0.6303
15998SOL    HW159973   0.184   5.051   8.431  1.6219  0.3402  0.2107
15998SOL    HW259974   0.078   5.031   8.326  2.0648 -2.3195  0.2114
15999SOL     OW59975  13.022   6.357   8.900  0.3618 -0.3242  0.5297
15999SOL    HW159976  13.017   6.379   8.807 -1.4900 -0.7241  0.4867
15999SOL    HW259977  12.931   6.346   8.926  0.8437 -0.0409  2.4526
16000SOL     OW59978   4.161  10.617   5.563  0.1268 -0.3188  0.0043
16000SOL    HW159979   4.097  10.624   5.634  0.6005  4.2230  0.3032
16000SOL    HW259980   4.108  10.622   5.483 -0.1507 -1.3697  0.1122
16001SOL     OW59981  12.222   7.706  10.398 -0.1537  0.1695 -0.4392
16001SOL    HW159982  12.306   7.669  10.425  0.7944  2.3811 -0.0657
16001SOL    HW259983  12.239   7.800  10.393 -2.4659  0.6106 -0.9925
16002SOL     OW59984   8.509  10.480   3.062  0.5131  0.0559  0.0731
16002SOL    HW159985   8.447  10.460   3.132 -0.9427 -0.1868 -1.2100
16002SOL    HW259986   8.546  10.395   3.038  1.0092  0.1386  0.5330
16003SOL     OW59987   6.226   9.458  13.043 -0.0213  0.5193 -0.3448
16003SOL    HW159988   6.188   9.538  13.008 -0.8739 -0.1624 -1.0376
16003SOL    HW259989   6.316   9.458  13.011  0.2975  1.6938  0.5199
16004SOL     OW59990   0.965   9.879   8.763 -0.2852  0.4605  0.0646
16004SOL    HW159991   1.024   9.830   8.706 -2.0765  0.7614 -2.1957
16004SOL    HW259992   0.972   9.970   8.732 -2.8761  0.3016 -1.2613
16005SOL     OW59993   9.777   3.559   5.968 -0.5808  0.1029 -0.4572
16005SOL    HW159994   9.846   3.596   6.023  0.7023 -1.8276 -0.6411
16005SOL    HW259995   9.823   3.530   5.889 -1.9096  0.2871 -1.3126
16006SOL     OW59996   1.864   1.066  14.025  0.4209 -0.1537 -0.1821
16006SOL    HW159997   1.776   1.030  14.036  1.3825 -2.4095  0.8076
16006SOL    HW259998   1.922   0.993  14.046  2.5783  1.9619  1.8432
16007SOL     OW59999   1.183   6.647   0.427 -0.0424  0.4125 -0.7260
16007SOL    HW160000   1.142   6.727   0.393  1.0079  0.8597 -0.9931
16007SOL    HW260001   1.169   6.582   0.358 -2.7677 -0.2938  0.3776
16008SOL     OW60002  10.777   6.890   0.721 -0.2288 -0.4899 -0.8400
16008SOL    HW160003  10.761   6.921   0.810 -0.7912 -1.3966 -0.6129
16008SOL    HW260004  10.824   6.807   0.732  0.4707 -0.1817 -1.4135
16009SOL     OW60005  13.928   9.967  13.816 -0.3290 -0.5884 -0.4276
16009SOL    HW160006  13.911  10.037  13.879 -0.2501 -0.2857 -0.7388
16009SOL    HW260007  13.886   9.889  13.854 -0.1140 -0.4521  0.0854
16010SOL     OW60008   5.323  12.660   8.942 -0.2095 -1.1254  0.2527
16010SOL    HW160009   5.255  12.727   8.944 -0.0550 -0.9816  1.2274
16010SOL    HW260010   5.395  12.700   8.892 -0.1440 -0.5827  0.7679
16011SOL     OW60011  11.111   5.269   1.366 -0.0663 -0.0665 -0.0582
16011SOL    HW160012  11.126   5.364   1.364  0.4591 -0.1547 -0.2551
16011SOL    HW260013  11.145   5.237   1.283  0.7887 -0.5785  0.4718
16012SOL     OW60014  10.975  11.570  12.352  0.3072 -0.1461 -0.6489
16012SOL    HW160015  11.009  11.504  12.413  0.8159 -0.0148 -0.7877
16012SOL    HW260016  10.922  11.628  12.408  1.0226  0.1529 -0.2701
16013SOL     OW60017  13.163   3.222   9.023 -0.2229  0.2748  0.0543
16013SOL    HW160018  13.204   3.148   8.979 -0.7857  0.0003 -0.0294
16013SOL    HW260019  13.182   3.208   9.116 -0.0360  0.2119  0.0070
16014SOL     OW60020   2.987  12.375   9.776 -0.9442  0.2969 -0.1151
16014SOL    HW160021   3.027  12.461   9.761 -1.3331  0.3889 -0.6561
16014SOL    HW260022   3.009  12.354   9.867  0.7242  0.1289 -0.5233
16015SOL     OW60023   8.339   8.732   5.953 -0.1799 -0.2228  0.4466
16015SOL    HW160024   8.273   8.688   5.900  0.2784 -2.3351  1.5442
16015SOL    HW260025   8.390   8.783   5.890 -0.7473 -1.2551 -0.8903
16016SOL     OW60026   3.048   1.672   1.647  0.1127  0.1667 -0.5332
16016SOL    HW160027   3.006   1.621   1.577 -0.4557  0.0073 -0.0835
16016SOL    HW260028   3.017   1.761   1.633  0.0430  0.1442 -0.5276
16017SOL     OW60029   0.708   1.884   1.867  0.0338 -0.5112 -0.4210
16017SOL    HW160030   0.789   1.846   1.833 -1.3923 -3.3784 -0.8788
16017SOL    HW260031   0.640   1.822   1.843 -2.2350  1.4152  0.6215
16018SOL     OW60032   7.855   6.426  12.288 -0.2693  0.3216  0.0472
16018SOL    HW160033   7.845   6.451  12.380 -0.3516  0.2098  0.0684
16018SOL    HW260034   7.915   6.491  12.252  1.8008 -1.0618  0.7967
16019SOL     OW60035  10.668   2.212  10.075 -0.2955 -0.1412  0.5947
16019SOL    HW160036  10.707   2.272  10.138  2.3661 -2.0218  0.8959
16019SOL    HW260037  10.664   2.263   9.994 -0.0743  1.0744  1.3130
16020SOL     OW60038   8.092  13.076   2.718 -0.0810  0.3227  0.4170
16020SOL    HW160039   7.998  13.057   2.710 -0.2146  1.4769 -1.3940
16020SOL    HW260040   8.095  13.164   2.755  0.3117  0.2128  0.6493
16021SOL     OW60041   6.507   0.257   1.423  0.1487 -0.0115  0.1453
16021SOL    HW160042   6.515   0.171   1.381 -0.4379 -0.7249  1.4253
16021SOL    HW260043   6.477   0.237   1.512  3.1430  1.2697  1.5800
16022SOL     OW60044   5.585   6.426  11.958  0.4709 -0.1032 -0.3474
16022SOL    HW160045   5.561   6.395  12.045  1.1560 -1.7095 -0.6936
16022SOL    HW260046   5.662   6.481  11.973 -0.7451  1.5392  0.2694
16023SOL     OW60047   4.188   1.578  13.372 -0.0448 -0.3064  0.0010
16023SOL    HW160048   4.281   1.589  13.349 -0.2715  0.5240 -0.5870
16023SOL    HW260049   4.167   1.489  13.344 -0.0797  0.3649 -2.3786
16024SOL     OW60050   0.391  11.807   3.194  0.4147 -0.0535 -0.1108
16024SOL    HW160051   0.332  11.762   3.135  0.9223  1.2323 -1.6828
16024SOL    HW260052   0.369  11.774   3.281 -0.7255 -1.5988 -0.9514
16025SOL     OW60053   9.266   4.377   0.400  0.1091 -0.1916 -0.1317
16025SOL    HW160054   9.182   4.392   0.357 -0.2789  1.7081  1.1263
16025SOL    HW260055   9.257   4.423   0.484  3.1404  1.9662 -0.8378
16026SOL     OW60056   0.319   4.771   5.419 -0.1245 -0.2365  0.2601
16026SOL    HW160057   0.374   4.718   5.361 -0.3520 -1.2974  1.0013
16026SOL    HW260058   0.276   4.833   5.360  0.4528 -0.5989 -0.5683
16027SOL     OW60059  12.688  10.654   9.412  0.0490 -0.4211  0.6941
16027SOL    HW160060  12.739  10.581   9.448  0.3862 -0.8209 -0.5636
16027SOL    HW260061  12.600  10.620   9.403  0.1962 -0.6597  0.1530
16028SOL     OW60062  12.624   7.626   4.476  0.3488  0.2757  0.0494
16028SOL    HW160063  12.611   7.708   4.429 -1.0794  0.3064  0.4291
16028SOL    HW260064  12.612   7.558   4.410 -0.6133  0.3424  0.1391
16029SOL     OW60065   3.066  13.160  13.076  0.5404 -0.3610 -0.1731
16029SOL    HW160066   3.143  13.133  13.027  0.3478 -0.7826 -0.2532
16029SOL    HW260067   3.100  13.193  13.159  1.0773  2.6387 -1.4622
16030SOL     OW60068   0.450  12.792   6.454 -0.0600 -0.6473 -0.2506
16030SOL    HW160069   0.408  12.707   6.437 -1.7404  0.5526 -2.6661
16030SOL    HW260070   0.395  12.832   6.521 -0.7226 -0.5173 -0.8569
16031SOL     OW60071   2.181   3.285   2.807  0.1535 -0.2726  0.1274
16031SOL    HW160072   2.096   3.246   2.783 -0.3376  0.1200  1.1632
16031SOL    HW260073   2.237   3.267   2.732 -1.1081  0.2719 -1.0008
16032SOL     OW60074  11.039   9.817   9.192  0.3223 -0.1214  0.7683
16032SOL    HW160075  11.051   9.758   9.117 -0.2326  0.6775  0.0381
16032SOL    HW260076  10.960   9.866   9.171  0.7492  0.8495  1.3989
16033SOL     OW60077   3.104   7.807  10.002 -0.3758 -0.6855  0.4068
16033SOL    HW160078   3.117   7.754   9.924  0.8183  0.1792 -0.0177
16033SOL    HW260079   3.016   7.844   9.992 -0.9564 -2.0358  0.3929
16034SOL     OW60080   2.589   5.702  13.380 -0.2815 -0.3959  0.4714
16034SOL    HW160081   2.654   5.656  13.327 -0.0567  0.2326  0.1828
16034SOL    HW260082   2.627   5.705  13.468  0.3143  0.3749  0.2058
16035SOL     OW60083   9.165  11.991   9.543  0.0359 -0.4119 -0.2419
16035SOL    HW160084   9.199  12.079   9.563 -0.7384 -0.6052  2.3267
16035SOL    HW260085   9.239  11.946   9.502  0.2085  1.6407 -2.3894
16036SOL     OW60086  13.252   1.822   6.516 -0.5775 -0.0628  0.0299
16036SOL    HW160087  13.318   1.815   6.447  1.4240  1.1176  1.6842
16036SOL    HW260088  13.302   1.817   6.597 -2.8269 -1.2650  1.4405
16037SOL     OW60089   7.800  11.704   7.799 -0.1538  0.3496  0.6932
16037SOL    HW160090   7.718  11.657   7.811 -0.8718  1.8964  2.1584
16037SOL    HW260091   7.854  11.677   7.873  0.7121 -0.6891 -0.2850
16038SOL     OW60092   8.032   4.252   2.310 -0.4385 -0.4503 -0.1477
16038SOL    HW160093   8.018   4.347   2.312  1.6383 -0.0890 -0.6265
16038SOL    HW260094   7.965   4.219   2.250  0.5665  1.0993 -2.2297
16039SOL     OW60095  10.256  10.917   5.093  0.0262  0.3165 -0.0503
16039SOL    HW160096  10.283  10.947   5.180 -1.1008  0.6375  0.2067
16039SOL    HW260097  10.335  10.880   5.055  0.2930 -0.8016  1.5154
16040SOL     OW60098   5.412   0.683  13.898  0.1121  0.0415 -0.0652
16040SOL    HW160099   5.438   0.647  13.982  2.2341  2.0394  0.2386
16040SOL    HW260100   5.490   0.728  13.865 -1.1741  0.8561 -2.2593
16041SOL     OW60101  13.585   3.036  13.499  0.1239  0.1353 -0.5998
16041SOL    HW160102  13.530   3.008  13.573 -0.4557  0.4843 -0.8900
16041SOL    HW260103  13.674   3.009  13.523 -0.2732 -1.0905 -0.4451
16042SOL     OW60104   5.274   0.009   1.148  0.0106 -0.4261 -0.0437
16042SOL    HW160105   5.310   0.026   1.060 -0.8396 -0.4312 -0.3956
16042SOL    HW260106   5.214  -0.064   1.135 -0.9675  0.3034  0.3369
16043SOL     OW60107   2.169   1.498   5.916  0.1157  0.2057 -0.5687
16043SOL    HW160108   2.206   1.427   5.863  0.3307  1.0282 -1.5705
16043SOL    HW260109   2.132   1.559   5.852 -0.7254  0.6435  0.3046
16044SOL     OW60110   5.693  13.619   2.421 -0.0964  0.2314  0.0593
16044SOL    HW160111   5.679  13.627   2.515  1.6261 -0.8562  0.4522
16044SOL    HW260112   5.631  13.551   2.393  1.3736 -1.6219  1.0169
16045SOL     OW60113   3.110   0.620   7.157  0.3410 -0.1910 -0.0864
16045SOL    HW160114   3.019   0.647   7.149  0.5241  0.5182  0.0750
16045SOL    HW260115   3.157   0.701   7.180  0.9772 -0.5832  0.0368
16046SOL     OW60116   4.815   9.752   3.057  0.5401  0.2032  0.2669
16046SOL    HW160117   4.859   9.836   3.067 -0.0559  0.5190  0.2969
16046SOL    HW260118   4.781   9.753   2.967  0.6238 -0.0503  0.2311
16047SOL     OW60119   9.924   0.772   6.368  0.0296  0.6247 -0.3472
16047SOL    HW160120   9.833   0.779   6.398  0.8287  1.4813  2.1508
16047SOL    HW260121   9.943   0.679   6.370 -0.2370  0.5827  1.0413
16048SOL     OW60122   4.835   4.479   6.243  0.0469 -0.3166 -0.3469
16048SOL    HW160123   4.817   4.573   6.241  1.1941 -0.0355  1.3661
16048SOL    HW260124   4.748   4.439   6.251 -0.3953  0.6125 -0.3081
16049SOL     OW60125   1.418   6.147  10.470 -0.8087 -0.2670 -0.1895
16049SOL    HW160126   1.452   6.093  10.541 -0.3413 -0.0092 -0.2197
16049SOL    HW260127   1.479   6.220  10.463 -0.9797 -0.1700 -0.7024
16050SOL     OW60128  10.302   4.876  11.382  0.1039  0.4790 -0.3798
16050SOL    HW160129  10.245   4.799  11.380 -1.0833  1.1968  1.9868
16050SOL    HW260130  10.244   4.947  11.410  1.7433  1.6608  0.1571
16051SOL     OW60131  13.631   0.607   8.508 -0.1271  0.3698  0.5030
16051SOL    HW160132  13.584   0.678   8.550  0.3821  0.3587  1.1048
16051SOL    HW260133  13.645   0.542   8.577  0.9648  0.4748  0.4072
16052SOL     OW60134  11.134   8.892   3.736 -0.2028  0.2588  0.1302
16052SOL    HW160135  11.116   8.900   3.829  0.1512 -1.1390  0.3427
16052SOL    HW260136  11.218   8.845   3.731  0.6727  1.8265 -0.8807
16053SOL     OW60137  13.537   5.421   4.698  0.2017 -0.1094 -0.0328
16053SOL    HW160138  13.542   5.494   4.636 -3.6764  0.9029  0.6165
16053SOL    HW260139  13.543   5.343   4.643 -1.1771  0.7633 -1.4901
16054SOL     OW60140  11.231  12.542   4.180  0.3818  0.3433 -0.2377
16054SOL    HW160141  11.194  12.454   4.186 -1.4498  1.1003  0.0674
16054SOL    HW260142  11.292  12.537   4.106 -0.5149 -0.8878 -0.9240
16055SOL     OW60143   5.909   0.255  10.663  0.3064  0.0071  0.9650
16055SOL    HW160144   5.935   0.336  10.619  0.3709 -0.3391  0.3548
16055SOL    HW260145   5.814   0.253  10.656  0.4662 -2.0677 -2.9178
16056SOL     OW60146   3.030   8.462   7.081 -0.1232  0.0073  0.6173
16056SOL    HW160147   3.037   8.557   7.083  0.7560 -0.0336  0.0058
16056SOL    HW260148   2.977   8.440   7.158  2.4995  0.7765  2.8193
16057SOL     OW60149   0.706   8.728   4.228  0.3046  0.1699  0.2691
16057SOL    HW160150   0.650   8.805   4.227  1.3878  0.9705  0.1511
16057SOL    HW260151   0.654   8.661   4.273 -0.7218  0.8933  0.1928
16058SOL     OW60152   6.019  12.175   7.951  0.2792 -0.0790  0.1996
16058SOL    HW160153   5.970  12.093   7.947 -0.7307  0.5060  0.3639
16058SOL    HW260154   6.111  12.148   7.947  0.0913 -1.4002  2.6285
16059SOL     OW60155   9.132  13.271   9.564  0.3177 -0.5197 -0.6982
16059SOL    HW160156   9.091  13.334   9.624  0.6255 -0.4582 -0.5509
16059SOL    HW260157   9.221  13.304   9.552  0.8399 -1.5288  0.2505
16060SOL     OW60158  13.195  12.466   5.026  0.1934  0.0068 -0.4880
16060SOL    HW160159  13.204  12.382   5.071 -0.0345  0.7565  1.0130
16060SOL    HW260160  13.111  12.460   4.981 -0.3176 -0.1780  0.4731
16061SOL     OW60161  11.804  13.346   4.519 -0.1396  0.2723 -0.0125
16061SOL    HW160162  11.817  13.259   4.556 -1.6408  0.1321  0.2740
16061SOL    HW260163  11.751  13.331   4.440 -0.1526  0.8895 -0.1292
16062SOL     OW60164   6.632  11.383  10.983  0.0803  0.3080 -0.4097
16062SOL    HW160165   6.579  11.341  10.916 -1.8388 -1.5186  2.0494
16062SOL    HW260166   6.712  11.330  10.987  0.1509  0.3527 -1.1138
16063SOL     OW60167  11.840  11.398   9.935 -0.0463  0.1328  0.3540
16063SOL    HW160168  11.805  11.359  10.016  0.6572  1.4622  1.3426
16063SOL    HW260169  11.773  11.461   9.909 -0.6061 -0.8073 -0.5354
16064SOL     OW60170  13.356   0.295   5.954  0.1920  1.2288 -0.3716
16064SOL    HW160171  13.350   0.363   6.022 -1.7020 -1.2737  2.1711
16064SOL    HW260172  13.422   0.234   5.986 -1.6899 -0.7163  0.0432
16065SOL     OW60173   8.479  12.295   9.372 -0.1867 -0.0229  0.4568
16065SOL    HW160174   8.473  12.375   9.319 -0.6473 -0.7192 -0.5809
16065SOL    HW260175   8.472  12.325   9.462 -0.3223  1.1110  0.0855
16066SOL     OW60176  11.567   0.815  11.632 -0.3510 -0.6856 -0.1102
16066SOL    HW160177  11.568   0.879  11.703 -0.0667 -0.2028 -0.5450
16066SOL    HW260178  11.497   0.754  11.655 -2.5210  1.3059 -1.0143
16067SOL     OW60179   0.051  10.764   9.447 -0.0813 -0.6060  0.0745
16067SOL    HW160180   0.022  10.676   9.472  0.7013 -1.1075 -0.7429
16067SOL    HW260181   0.115  10.749   9.377  2.1148  0.4684  1.7429
16068SOL     OW60182  10.593  10.590   3.974  0.6675 -0.1379 -0.7324
16068SOL    HW160183  10.583  10.670   3.921 -1.7115 -1.0256 -1.7541
16068SOL    HW260184  10.625  10.525   3.912  0.7219 -0.4752 -0.3516
16069SOL     OW60185   8.327   8.216  10.718 -0.3430  0.4864 -0.3209
16069SOL    HW160186   8.281   8.161  10.654  2.5220 -1.9110 -0.5509
16069SOL    HW260187   8.289   8.193  10.802 -0.4424 -0.4938 -0.6268
16070SOL     OW60188   0.601  11.220   6.679  0.0116 -0.7556 -0.0937
16070SOL    HW160189   0.543  11.221   6.603 -0.1303  0.2362  0.0146
16070SOL    HW260190   0.685  11.251   6.644  0.1549 -1.0490 -0.0069
16071SOL     OW60191   0.370   8.491  13.770  0.0372 -0.1000  0.2924
16071SOL    HW160192   0.399   8.454  13.687  0.4163  0.8375 -0.0166
16071SOL    HW260193   0.406   8.580  13.770 -1.1841  0.4110  0.8062
16072SOL     OW60194   6.895   8.218   1.886 -0.6327 -0.0504 -0.4138
16072SOL    HW160195   6.812   8.170   1.882  0.4624 -1.9922 -0.6644
16072SOL    HW260196   6.956   8.158   1.929  0.5543  1.5231  0.2126
16073SOL     OW60197  11.394  11.778   6.038 -0.1533 -0.3564  0.2416
16073SOL    HW160198  11.399  11.717   6.112 -0.7497  0.1961  0.7442
16073SOL    HW260199  11.317  11.750   5.989 -1.3914  0.9675  1.3711
16074SOL     OW60200   2.804   9.523   0.662 -0.2521  0.4912  0.0454
16074SOL    HW160201   2.848   9.519   0.746  0.2897  1.1628 -0.1881
16074SOL    HW260202   2.776   9.615   0.654 -0.0738  0.4975 -0.6028
16075SOL     OW60203   8.658   5.326  13.917 -0.0312 -0.3275  0.2386
16075SOL    HW160204   8.697   5.413  13.920 -0.2386 -0.0929 -1.9262
16075SOL    HW260205   8.688   5.283  13.996  1.7723  1.0117  0.3376
16076SOL     OW60206   3.755   7.653   4.352 -0.0444  0.4965  0.0786
16076SOL    HW160207   3.823   7.662   4.419 -0.7801  0.2477  0.8813
16076SOL    HW260208   3.730   7.742   4.330 -0.9098  0.5708  1.3086
16077SOL     OW60209   1.281   4.295   0.514  0.5184 -0.7458 -0.0910
16077SOL    HW160210   1.221   4.315   0.442 -0.1343 -0.5049  0.5100
16077SOL    HW260211   1.226   4.253   0.580  1.2689 -1.7015 -0.0535
16078SOL     OW60212   8.880  12.053   4.912  0.2434  0.2185  0.1831
16078SOL    HW160213   8.949  12.114   4.886  1.8657 -0.2629  2.9008
16078SOL    HW260214   8.800  12.104   4.911  1.0664  1.5449 -0.4781
16079SOL     OW60215  13.076   7.323  10.604  0.4048 -0.8849 -0.1065
16079SOL    HW160216  13.081   7.228  10.615  0.1039 -0.9232 -0.3071
16079SOL    HW260217  12.992   7.347  10.642  1.3214 -0.4361  1.7953
16080SOL     OW60218   2.689  10.855   0.577  0.2743 -0.4353 -0.0276
16080SOL    HW160219   2.707  10.918   0.508  0.7127 -0.6816 -0.1384
16080SOL    HW260220   2.593  10.849   0.579  0.2792 -1.2845 -1.4016
16081SOL     OW60221   1.716   6.459   9.852 -0.2446  0.3683  0.0277
16081SOL    HW160222   1.697   6.480   9.761 -0.1315  0.1370 -0.0483
16081SOL    HW260223   1.797   6.507   9.871  1.1847 -1.6067 -0.7624
16082SOL     OW60224  11.675   3.987   6.622 -0.4168  0.0601  0.1686
16082SOL    HW160225  11.683   3.973   6.716  0.8704 -1.5528 -0.1321
16082SOL    HW260226  11.754   4.034   6.598 -1.9646  2.9097  0.2261
16083SOL     OW60227   1.549   8.611   6.238  0.0589  0.0768  0.0039
16083SOL    HW160228   1.603   8.689   6.226  0.7507 -0.1551  1.3646
16083SOL    HW260229   1.605   8.550   6.286 -1.1176 -0.4929  0.7179
16084SOL     OW60230   5.707   8.932  12.567 -0.5728 -0.5482  0.3586
16084SOL    HW160231   5.673   8.860  12.514 -1.9150  0.4830 -0.2359
16084SOL    HW260232   5.684   9.011  12.518  0.8117  0.3184  1.0152
16085SOL     OW60233   1.127   0.682  13.018  0.0096  0.0783  0.3302
16085SOL    HW160234   1.222   0.685  13.010  0.0908 -0.3528  1.0947
16085SOL    HW260235   1.111   0.639  13.101 -0.8751 -2.4413 -1.0419
16086SOL     OW60236  10.188   3.053   1.256  0.3916 -0.0229 -0.2016
16086SOL    HW160237  10.276   3.089   1.247  0.3314 -0.1946 -1.6591
16086SOL    HW260238  10.150   3.102   1.329  1.6982  0.0106  0.5022
16087SOL     OW60239   0.151   2.794   7.167  0.0961  0.2326  0.0580
16087SOL    HW160240   0.195   2.876   7.142  0.8786 -0.3784 -0.6237
16087SOL    HW260241   0.109   2.764   7.086 -0.3881  0.0878  0.3657
16088SOL     OW60242   1.010   6.852   0.293 -0.4592 -0.6939  0.5334
16088SOL    HW160243   0.973   6.918   0.235  0.7209 -0.8621 -0.4613
16088SOL    HW260244   0.949   6.779   0.290  0.2244 -1.2502 -1.6266
16089SOL     OW60245  12.833   8.922  13.074 -0.1525  0.1367  0.3005
16089SOL    HW160246  12.780   8.947  12.999  0.4858 -0.7446 -0.4740
16089SOL    HW260247  12.922   8.915  13.040  0.1539 -0.2578  1.1406
16090SOL     OW60248   8.211  10.821  11.173 -0.5141  0.6236 -0.0632
16090SOL    HW160249   8.249  10.877  11.104  1.5022 -0.2038  0.3215
16090SOL    HW260250   8.206  10.735  11.132 -1.9966  0.7017 -0.0793
16091SOL     OW60251   0.728  13.648  12.336 -0.1857 -0.2560  0.3481
16091SOL    HW160252   0.676  13.648  12.417 -0.8397 -1.6639 -0.0342
16091SOL    HW260253   0.766  13.560  12.333 -0.1902 -0.2277 -0.8901
16092SOL     OW60254  12.044   9.486   9.358  0.5660 -0.3954  0.0133
16092SOL    HW160255  12.120   9.526   9.316 -0.1499  1.3896  0.3445
16092SOL    HW260256  12.059   9.392   9.350  2.3099 -0.0818 -0.8105
16093SOL     OW60257   7.867   3.777  11.427 -0.4029 -0.5823  0.0007
16093SOL    HW160258   7.944   3.723  11.410  0.1644 -0.2634  1.4277
16093SOL    HW260259   7.897   3.844  11.488 -2.2834 -1.7665  2.3916
16094SOL     OW60260   5.961   4.112  11.657 -0.2225  0.2553  0.1573
16094SOL    HW160261   6.054   4.123  11.638 -0.2128 -0.6276 -0.3867
16094SOL    HW260262   5.935   4.037  11.604 -1.1219  0.1624  0.7084
16095SOL     OW60263  13.060   6.518   5.997 -0.2293 -0.1719 -0.4401
16095SOL    HW160264  13.115   6.472   5.933 -1.9186 -0.8408 -1.4668
16095SOL    HW260265  13.081   6.610   5.984  1.1631 -0.4442 -0.2959
16096SOL     OW60266   4.045   0.603  10.345 -0.3642  0.1909  0.0426
16096SOL    HW160267   4.099   0.630  10.271 -0.5261  4.0207  1.0902
16096SOL    HW260268   3.955   0.608  10.314 -0.4093  1.3779  0.3026
16097SOL     OW60269   0.051   1.747   9.343 -0.0030 -0.0113 -0.1098
16097SOL    HW160270   0.004   1.831   9.347  0.8846  0.5299 -0.8883
16097SOL    HW260271   0.061   1.722   9.435  0.0445  0.9231  0.1561
16098SOL     OW60272   1.600   3.029   7.474 -0.1486  0.1755 -0.8076
16098SOL    HW160273   1.542   3.105   7.468 -0.8499 -0.2971 -0.1980
16098SOL    HW260274   1.606   2.995   7.385  1.0740  1.5834 -1.3092
16099SOL     OW60275   7.195  10.276  10.288  0.5038 -0.1997 -0.5230
16099SOL    HW160276   7.219  10.320  10.370  0.0558 -0.1992 -0.3890
16099SOL    HW260277   7.275  10.231  10.260  0.9091  0.5189 -0.5467
16100SOL     OW60278   1.580  10.591   2.245 -0.2243  0.3595  0.5589
16100SOL    HW160279   1.579  10.642   2.164  0.8840  0.3522  0.5248
16100SOL    HW260280   1.504  10.534   2.238 -0.8337  1.2129  0.0872
16101SOL     OW60281   8.331  11.271   1.359  0.2296 -0.4225  0.1112
16101SOL    HW160282   8.402  11.242   1.302 -0.2397 -2.2433  0.3921
16101SOL    HW260283   8.312  11.196   1.414 -0.5270  0.7166  1.4697
16102SOL     OW60284   9.566   2.194  11.802 -0.0633  0.1250 -1.0979
16102SOL    HW160285   9.624   2.127  11.838 -1.7286 -1.5129 -1.3275
16102SOL    HW260286   9.533   2.155  11.721 -1.5707  0.9465 -0.9058
16103SOL     OW60287   5.224  11.694   1.612  0.3364 -0.0387  0.0479
16103SOL    HW160288   5.204  11.783   1.640 -1.7319 -0.6666  0.7398
16103SOL    HW260289   5.215  11.696   1.517  1.3129  0.6988 -0.0455
16104SOL     OW60290   4.956   8.465  12.850  0.3178 -0.0536  0.1957
16104SOL    HW160291   4.906   8.481  12.930  0.2101 -1.4602  0.4375
16104SOL    HW260292   4.891   8.436  12.786  0.1762  2.3762 -0.8933
16105SOL     OW60293   2.541  11.291   8.267  0.0477  0.0130  0.4110
16105SOL    HW160294   2.460  11.318   8.223  1.4869 -2.7552 -4.7883
16105SOL    HW260295   2.532  11.196   8.276  2.2868 -0.2199  0.6500
16106SOL     OW60296   8.074   6.801   8.964 -0.2483  0.6829 -0.3847
16106SOL    HW160297   8.066   6.860   9.039  0.8208  1.6145 -0.9764
16106SOL    HW260298   8.137   6.735   8.993 -0.4766  0.5494 -0.1785
16107SOL     OW60299   6.351   9.229   5.309 -0.2002  0.3931 -0.3410
16107SOL    HW160300   6.286   9.271   5.366 -0.3574 -1.0791  0.6306
16107SOL    HW260301   6.434   9.240   5.356 -0.6314 -2.7013  1.3949
16108SOL     OW60302  12.115   3.503   8.527 -0.1229 -0.3680  0.1697
16108SOL    HW160303  12.116   3.493   8.432 -0.4344 -2.7914  0.3661
16108SOL    HW260304  12.123   3.414   8.561  1.7423  0.5667  2.4616
16109SOL     OW60305  11.209   0.844  13.280 -0.3456  0.0076  0.2061
16109SOL    HW160306  11.131   0.887  13.246 -0.6507 -1.2060 -0.7039
16109SOL    HW260307  11.276   0.912  13.279 -0.6754  0.3670 -1.7137
16110SOL     OW60308  11.675   0.773   5.655  0.9930  0.3392 -0.1232
16110SOL    HW160309  11.595   0.822   5.674  0.4623 -0.6977  0.3789
16110SOL    HW260310  11.727   0.779   5.735  1.5752  1.2589 -0.5466
16111SOL     OW60311   3.263   8.431  10.156 -0.4549  0.2562  0.0818
16111SOL    HW160312   3.237   8.485  10.231  0.0005  1.1655 -0.3987
16111SOL    HW260313   3.320   8.488  10.104  2.3577 -1.5195  0.9511
16112SOL     OW60314  10.561  12.542   9.038  0.4065  0.1059 -0.3708
16112SOL    HW160315  10.564  12.638   9.037 -0.0563  0.1425  0.5244
16112SOL    HW260316  10.608  12.517   9.118 -2.0924 -0.2476  1.1166
16113SOL     OW60317  13.607  12.496   9.634  0.1039  0.4904  0.6656
16113SOL    HW160318  13.541  12.561   9.658 -0.7802  0.8893 -2.4239
16113SOL    HW260319  13.690  12.540   9.649 -0.4704  2.4889 -1.4268
16114SOL     OW60320   3.712  13.231   6.621 -0.3071  0.0328 -0.4842
16114SOL    HW160321   3.631  13.254   6.667 -1.1644 -2.5991 -0.4777
16114SOL    HW260322   3.769  13.306   6.634 -1.1717  0.2609  3.2968
16115SOL     OW60323   3.454   6.790   3.201 -0.0443  0.1175  0.2866
16115SOL    HW160324   3.501   6.737   3.265 -1.5356 -2.1768 -0.4125
16115SOL    HW260325   3.361   6.776   3.222 -0.5623 -0.3291 -2.0471
16116SOL     OW60326   9.330   9.128   0.201 -0.4466 -0.5556  0.1252
16116SOL    HW160327   9.291   9.214   0.185 -0.0096 -0.2313  0.7482
16116SOL    HW260328   9.412   9.148   0.247 -0.9822 -1.3570  1.4882
16117SOL     OW60329  13.260   7.876   2.780 -0.3748  0.4649 -0.1094
16117SOL    HW160330  13.278   7.790   2.817  0.4156  0.5248 -0.3248
16117SOL    HW260331  13.190   7.912   2.834  0.8320  0.6082  1.4207
16118SOL     OW60332   8.342   1.001   4.907  0.2729 -0.4032  0.2222
16118SOL    HW160333   8.340   1.096   4.916  0.3426 -0.3193 -0.6008
16118SOL    HW260334   8.339   0.968   4.997  2.4721  0.3980  0.6526
16119SOL     OW60335  11.383   7.694   8.217 -0.1191  0.1960 -0.4974
16119SOL    HW160336  11.466   7.651   8.200  0.0917  0.3303  0.1593
16119SOL    HW260337  11.406   7.773   8.266 -0.6722 -0.0511  0.1796
16120SOL     OW60338   5.244   4.835   9.248  0.0468 -0.0308  0.0080
16120SOL    HW160339   5.194   4.818   9.168  0.6429  0.1911 -0.4155
16120SOL    HW260340   5.241   4.753   9.296 -1.0683  0.0892  0.1872
16121SOL     OW60341   1.083   3.131  13.669 -0.1176  0.0510  0.1056
16121SOL    HW160342   1.095   3.141  13.574 -0.5946 -0.7152 -0.0373
16121SOL    HW260343   1.066   3.038  13.681  0.3931  0.0686  1.0028
16122SOL     OW60344   4.334  11.863   2.980  0.4115 -0.0082  0.4213
16122SOL    HW160345   4.268  11.865   3.048 -0.4594 -1.7837 -0.3217
16122SOL    HW260346   4.407  11.815   3.019  1.1579  1.5768  1.0887
16123SOL     OW60347   0.912   5.065   6.667  0.7151 -0.0936  0.4210
16123SOL    HW160348   0.909   5.151   6.624  0.4757 -0.2773  0.0614
16123SOL    HW260349   0.840   5.068   6.731  0.1947 -0.3039 -0.1377
16124SOL     OW60350   7.447   3.532   7.771  0.4273 -0.4592  0.6026
16124SOL    HW160351   7.465   3.602   7.708  1.7487  0.4446  1.9233
16124SOL    HW260352   7.363   3.495   7.742 -0.3825  1.7460 -0.0655
16125SOL     OW60353   3.290   6.783   1.845 -0.3420  0.3760 -0.6669
16125SOL    HW160354   3.378   6.779   1.807  0.4672 -1.9347  1.1684
16125SOL    HW260355   3.288   6.866   1.894  0.1940  1.2138 -2.0200
16126SOL     OW60356   8.222   1.123  13.973 -0.8247  0.1080  0.0389
16126SOL    HW160357   8.305   1.170  13.963 -1.1006  0.2732 -1.9114
16126SOL    HW260358   8.196   1.139  14.064  0.2354  1.7905  0.0975
16127SOL     OW60359  10.648   5.382   4.499 -0.5062 -0.2778 -0.3169
16127SOL    HW160360  10.743   5.394   4.492 -0.4933 -0.6730 -0.9713
16127SOL    HW260361  10.611   5.462   4.462 -0.4270 -0.3183 -0.4848
16128SOL     OW60362   9.602   3.783   7.562 -0.5582  0.6140 -0.5704
16128SOL    HW160363   9.555   3.700   7.564 -1.0922  0.9251  0.3048
16128SOL    HW260364   9.662   3.775   7.488  1.3665 -1.6084  1.0744
16129SOL     OW60365   4.603   0.745   4.542  0.2900 -0.3873 -0.1383
16129SOL    HW160366   4.531   0.700   4.497 -0.8438  1.3309 -0.1216
16129SOL    HW260367   4.605   0.832   4.503  2.1062 -0.2578  0.1747
16130SOL     OW60368   6.689   4.306  12.043 -0.1247 -0.2621 -0.3953
16130SOL    HW160369   6.637   4.358  12.104 -1.4523 -2.2576  0.2930
16130SOL    HW260370   6.629   4.237  12.014  1.5552 -1.4742 -1.1433
16131SOL     OW60371   6.225   6.962   7.716  0.1660  0.6298  0.0306
16131SOL    HW160372   6.286   6.940   7.787 -0.5454 -0.8343  0.2432
16131SOL    HW260373   6.279   6.966   7.638  0.5714 -0.5197  0.2311
16132SOL     OW60374   8.434   6.442   8.312  0.0555  0.2489  0.1379
16132SOL    HW160375   8.516   6.474   8.275  0.6351 -1.3107 -0.0260
16132SOL    HW260376   8.455   6.353   8.342 -1.4373  0.0235  0.5933
16133SOL     OW60377   4.183   9.763   1.377 -0.1192 -0.1570  0.4745
16133SOL    HW160378   4.208   9.815   1.300 -1.1012  0.7657  0.7653
16133SOL    HW260379   4.219   9.811   1.451  2.0451 -1.7681  0.5570
16134SOL     OW60380   1.090   5.675   9.082 -0.3741 -0.2595 -0.4469
16134SOL    HW160381   1.095   5.742   9.149 -2.2329 -0.5430  0.0445
16134SOL    HW260382   1.069   5.595   9.130 -1.9694 -0.4224 -1.3472
16135SOL     OW60383   3.131  12.068   8.469  0.8626  0.0827  0.2150
16135SOL    HW160384   3.093  12.156   8.458 -0.8679 -0.8657 -2.1400
16135SOL    HW260385   3.194  12.060   8.398  0.1076 -0.9827 -0.3644
16136SOL     OW60386   3.302   9.328   5.630  0.5367 -0.8262  0.0057
16136SOL    HW160387   3.300   9.324   5.534  1.4417 -0.0074 -0.0647
16136SOL    HW260388   3.258   9.410   5.652 -0.8415 -1.6448  0.3717
16137SOL     OW60389   2.458   4.001   8.090 -0.0720  0.4953 -0.4378
16137SOL    HW160390   2.458   3.985   8.184  0.5756 -0.0078 -0.5212
16137SOL    HW260391   2.445   4.096   8.082  0.3532  0.6105  0.1727
16138SOL     OW60392  13.160   9.280   8.466  0.3895  0.4663 -0.8187
16138SOL    HW160393  13.249   9.312   8.476  0.2312  0.6094  0.2300
16138SOL    HW260394  13.164   9.188   8.493  0.1469  0.5843 -0.3696
16139SOL     OW60395   4.807   8.142   9.332 -0.5699 -0.1528  0.5487
16139SOL    HW160396   4.797   8.120   9.424 -0.6747  0.6432  0.7369
16139SOL    HW260397   4.821   8.058   9.288  0.4031 -0.4501  1.4054
16140SOL     OW60398  11.335   8.936   9.665 -0.9893 -0.1617  0.0713
16140SOL    HW160399  11.268   8.931   9.597 -0.9196  1.6466 -0.1740
16140SOL    HW260400  11.293   8.899   9.743 -1.7487 -0.4200 -0.4567
16141SOL     OW60401   2.804   7.245   5.362 -0.2855 -0.1097  0.3202
16141SOL    HW160402   2.771   7.335   5.354  1.1504  0.5527  1.3833
16141SOL    HW260403   2.775   7.216   5.448  1.6478  0.4366  1.2177
16142SOL     OW60404   9.902   4.635   3.229 -0.2738  0.1408  0.0119
16142SOL    HW160405   9.844   4.562   3.250  1.4554 -0.7332  2.0896
16142SOL    HW260406   9.981   4.594   3.192 -0.2493  1.1670 -1.1568
16143SOL     OW60407   1.680  12.481   4.622  0.3108 -0.2836 -0.1399
16143SOL    HW160408   1.678  12.554   4.560 -1.4413  0.7322  1.0360
16143SOL    HW260409   1.773  12.458   4.628  0.8158  1.2895 -1.1685
16144SOL     OW60410  13.114   6.125  13.902  0.2307  0.0783  0.2207
16144SOL    HW160411  13.189   6.126  13.843  0.4010  0.1072  0.4376
16144SOL    HW260412  13.146   6.084  13.983  0.9529  3.0048  1.5320
16145SOL     OW60413   2.123   8.321  11.274 -0.0624 -0.0923  0.0933
16145SOL    HW160414   2.092   8.241  11.231 -2.1912  0.7589 -0.0924
16145SOL    HW260415   2.163   8.372  11.203 -1.7431  0.4250 -0.5390
16146SOL     OW60416   0.496   8.887  10.466  0.0108 -0.3028  0.4457
16146SOL    HW160417   0.485   8.981  10.455 -2.2105 -0.6241 -0.6197
16146SOL    HW260418   0.480   8.871  10.559  2.3946  0.5494  1.0615
16147SOL     OW60419   2.500   8.558   2.285 -0.1542 -0.1198  0.6336
16147SOL    HW160420   2.500   8.651   2.261 -0.5460  0.3946  2.4765
16147SOL    HW260421   2.421   8.547   2.337  0.0400 -1.4256  0.6767
16148SOL     OW60422  11.996  13.549  13.922 -0.4253  0.3973 -0.6129
16148SOL    HW160423  12.078  13.530  13.876 -0.5051 -0.4648 -0.4165
16148SOL    HW260424  11.941  13.472  13.905 -0.3409 -0.1020  1.1864
16149SOL     OW60425  11.398   6.500  11.702  0.3431  0.0386  0.1115
16149SOL    HW160426  11.418   6.497  11.608 -2.2627  0.0549 -0.5264
16149SOL    HW260427  11.406   6.593  11.724  1.3489 -0.0170  0.0157
16150SOL     OW60428  10.313   7.498  11.840 -0.5687  0.0459 -0.1801
16150SOL    HW160429  10.402   7.485  11.807 -1.0800 -0.8236 -1.2927
16150SOL    HW260430  10.325   7.539  11.925  0.9586 -1.0460  0.1837
16151SOL     OW60431   3.591   3.656   7.166 -0.5619 -0.4877  0.8001
16151SOL    HW160432   3.510   3.704   7.183 -0.0533  0.8037 -0.2802
16151SOL    HW260433   3.652   3.722   7.134  0.2932 -1.8026 -0.3871
16152SOL     OW60434   7.094   9.144  13.486  0.2127 -0.7948  0.2554
16152SOL    HW160435   7.067   9.097  13.407  1.4286 -0.3364 -0.4636
16152SOL    HW260436   7.036   9.220  13.489  1.1412  0.0073 -1.0793
16153SOL     OW60437  12.299  11.073   2.894 -0.4993  0.2259  0.7008
16153SOL    HW160438  12.388  11.067   2.858 -0.7405  1.2757 -0.1136
16153SOL    HW260439  12.311  11.103   2.984  0.0867 -1.9575  1.4141
16154SOL     OW60440   1.414   0.518   0.915 -0.7222 -0.1822 -0.0342
16154SOL    HW160441   1.356   0.478   0.849  1.5799 -0.4586 -2.0215
16154SOL    HW260442   1.423   0.609   0.888 -0.9516  0.1164  0.8423
16155SOL     OW60443  12.882  13.486  11.565 -0.6555 -0.2364  0.3639
16155SOL    HW160444  12.868  13.459  11.474  0.2446  2.2840 -0.6069
16155SOL    HW260445  12.891  13.404  11.613  0.3851 -1.6643 -2.0718
16156SOL     OW60446  13.535   7.573   8.230 -0.2021  0.3316 -0.1072
16156SOL    HW160447  13.531   7.606   8.319 -0.4376 -0.0809  0.0397
16156SOL    HW260448  13.443   7.562   8.205 -0.1562  1.0358 -0.6279
16157SOL     OW60449   4.088   6.948   0.300  0.0048 -1.1231 -0.1689
16157SOL    HW160450   4.114   6.914   0.386 -1.4148  1.1847  1.2850
16157SOL    HW260451   4.100   6.874   0.241  0.5052 -2.9877  2.0934
16158SOL     OW60452   0.378   5.589   8.460  0.3948  0.3940 -0.2575
16158SOL    HW160453   0.464   5.626   8.479  0.8506 -0.2480 -0.9988
16158SOL    HW260454   0.388   5.495   8.475 -0.3323  0.3750  0.1677
16159SOL     OW60455  11.344   8.388   2.536 -0.4152 -0.0816 -0.2185
16159SOL    HW160456  11.254   8.370   2.509  0.6135 -2.5000 -2.4917
16159SOL    HW260457  11.381   8.303   2.556  2.3349  0.3066 -2.8989
16160SOL     OW60458  11.930   8.434  12.770 -0.0028  0.1185 -0.3921
16160SOL    HW160459  11.942   8.471  12.683  0.1853  0.1359 -0.3592
16160SOL    HW260460  11.846   8.468  12.799 -0.0618  0.1198 -0.5633
16161SOL     OW60461   0.198   4.838   4.996  0.7993  0.2150  0.2745
16161SOL    HW160462   0.142   4.876   4.929  1.0637  0.7183  0.3339
16161SOL    HW260463   0.146   4.842   5.076  0.1431 -1.1939 -0.0553
16162SOL     OW60464   7.719  14.022   1.833 -0.6151 -0.4106  0.2215
16162SOL    HW160465   7.665  13.977   1.898  1.2869 -2.1424  0.7114
16162SOL    HW260466   7.791  14.058   1.883 -0.5527  0.6365 -0.5940
16163SOL     OW60467  11.508  11.493   7.521 -0.8562 -0.1614 -0.9262
16163SOL    HW160468  11.494  11.488   7.616  1.7511 -1.0141 -0.5230
16163SOL    HW260469  11.508  11.402   7.492 -1.1019  0.0725 -1.6927
16164SOL     OW60470   4.395   9.126   4.669 -0.0082  0.0189  0.2936
16164SOL    HW160471   4.340   9.154   4.596  0.5877 -1.2391 -0.6855
16164SOL    HW260472   4.482   9.159   4.647  0.0275  0.3085  0.8463
16165SOL     OW60473  10.432   2.711   5.213 -0.1430  0.5014 -0.3659
16165SOL    HW160474  10.484   2.668   5.281  0.1526 -0.3496 -1.1003
16165SOL    HW260475  10.490   2.778   5.177  1.3184 -1.7378 -2.5548
16166SOL     OW60476   7.226  11.029   0.956 -0.3081 -0.3065 -0.3995
16166SOL    HW160477   7.154  11.091   0.963  0.0829  0.2215 -0.9110
16166SOL    HW260478   7.304  11.083   0.950  0.1670 -0.8764  0.4398
16167SOL     OW60479   2.252  13.392   6.128 -0.3760  0.2685  0.6181
16167SOL    HW160480   2.320  13.331   6.097 -0.0935  0.2750  1.2079
16167SOL    HW260481   2.301  13.470   6.154 -0.7659  0.8939 -0.4490
16168SOL     OW60482   4.555   3.818   1.436  0.2963  0.2786  0.0995
16168SOL    HW160483   4.528   3.758   1.366 -1.8673  0.4392  0.7366
16168SOL    HW260484   4.474   3.859   1.465  0.9932 -0.2667  3.1654
16169SOL     OW60485   1.477   4.063   2.826 -0.0622 -0.1167 -0.2833
16169SOL    HW160486   1.441   4.010   2.755 -1.9037  1.0875 -0.3333
16169SOL    HW260487   1.506   4.144   2.784 -1.6174  0.8120  0.3166
16170SOL     OW60488   2.137   6.991  12.167  0.6125 -0.2130 -0.4233
16170SOL    HW160489   2.105   6.914  12.214  1.0908 -0.5546 -0.6484
16170SOL    HW260490   2.082   7.063  12.199  0.4811 -0.5586  0.1484
16171SOL     OW60491   3.411   3.697   3.495 -0.1258  0.2404  0.3263
16171SOL    HW160492   3.468   3.620   3.503 -0.3823 -0.1814 -1.5066
16171SOL    HW260493   3.472   3.770   3.484  0.1001  0.1622  1.0173
16172SOL     OW60494   8.554  13.360   9.302 -0.2469 -0.1575 -0.0924
16172SOL    HW160495   8.526  13.430   9.360 -0.7642 -0.3225 -0.1336
16172SOL    HW260496   8.603  13.300   9.358 -1.0926 -0.5267  0.2808
16173SOL     OW60497  13.916   4.780  12.768 -0.1638  0.0039 -0.2408
16173SOL    HW160498  13.908   4.849  12.833 -0.5402  0.9966 -1.2971
16173SOL    HW260499  13.954   4.825  12.692  0.5213 -1.1777 -0.6119
16174SOL     OW60500   8.890   1.271   1.913 -0.7001  0.1973  0.4207
16174SOL    HW160501   8.872   1.356   1.953 -0.8589  0.1045  0.5452
16174SOL    HW260502   8.804   1.231   1.902 -0.8472  0.9246 -1.5650
16175SOL     OW60503   3.877   8.010   4.571 -0.3384  0.1399  0.3570
16175SOL    HW160504   3.849   8.030   4.482 -0.6155  0.0470  0.4228
16175SOL    HW260505   3.849   8.086   4.622  0.4397  0.5115  0.2452
16176SOL     OW60506   5.791   1.073   8.424 -0.2526  0.4197  0.5674
16176SOL    HW160507   5.820   1.031   8.343  0.8770 -1.9174  2.0721
16176SOL    HW260508   5.871   1.090   8.472 -0.8653  2.3154  1.0168
16177SOL     OW60509   9.103  13.214   9.992  0.6983 -0.7435 -0.0778
16177SOL    HW160510   9.164  13.279   9.957 -1.1941  0.7827 -0.7311
16177SOL    HW260511   9.016  13.254   9.981 -0.5003 -3.1164  0.1316
16178SOL     OW60512   7.703   8.282   5.157 -0.3986 -0.3088  0.1871
16178SOL    HW160513   7.784   8.321   5.190  0.2653 -1.3957 -0.1134
16178SOL    HW260514   7.634   8.318   5.213  0.5300 -0.9735  1.8080
16179SOL     OW60515   2.328   2.806   4.433  0.8989 -0.6082  0.4689
16179SOL    HW160516   2.250   2.808   4.379  0.7729 -0.4238  0.6594
16179SOL    HW260517   2.380   2.881   4.404  1.2476 -1.0303 -0.0185
16180SOL     OW60518  11.687   1.146   5.365 -0.4568 -0.3167  0.0068
16180SOL    HW160519  11.626   1.160   5.293  1.5079  1.1732 -1.5228
16180SOL    HW260520  11.711   1.054   5.360 -1.6289 -0.6194 -0.1437
16181SOL     OW60521   7.539   2.550   3.045 -0.2984 -0.5835 -0.1165
16181SOL    HW160522   7.515   2.625   3.099  1.0856 -1.0278  1.1669
16181SOL    HW260523   7.526   2.581   2.955 -0.1287  1.0770  0.3935
16182SOL     OW60524  11.019  11.410   9.510  0.1655 -0.4130  0.2356
16182SOL    HW160525  11.015  11.347   9.581 -0.6422  1.1874  1.6741
16182SOL    HW260526  10.929  11.444   9.503  0.1902 -0.6274 -1.6594
16183SOL     OW60527   8.829   1.142   0.751  0.0386 -0.4609  0.8558
16183SOL    HW160528   8.865   1.140   0.839 -0.5084 -1.8706  1.0658
16183SOL    HW260529   8.768   1.068   0.747 -0.3378 -0.1234 -0.5410
16184SOL     OW60530  12.937  12.667  12.908  0.3898 -0.0646 -0.4625
16184SOL    HW160531  12.985  12.656  12.991 -0.3240 -2.3863 -0.2843
16184SOL    HW260532  12.854  12.708  12.934 -0.6034 -2.3942  0.3397
16185SOL     OW60533  10.299   0.882   6.990 -0.5694 -0.5630 -0.0248
16185SOL    HW160534  10.368   0.837   6.941  0.7933  0.1664  1.1132
16185SOL    HW260535  10.265   0.948   6.929 -1.1877 -1.7727 -1.0257
16186SOL     OW60536   2.704   2.121   0.691 -0.7651 -0.4959 -0.1433
16186SOL    HW160537   2.767   2.178   0.647 -1.2210  0.2957  0.2146
16186SOL    HW260538   2.747   2.094   0.772  0.1111 -2.0247 -1.0646
16187SOL     OW60539   4.338   0.629   7.412 -0.0542 -0.1547 -0.1232
16187SOL    HW160540   4.256   0.661   7.450 -0.2390  0.8853 -1.3262
16187SOL    HW260541   4.406   0.660   7.473 -0.4656  0.0328  0.2492
16188SOL     OW60542  12.931   9.834   0.077  0.1485 -0.4097  0.1962
16188SOL    HW160543  12.908   9.786  -0.002 -0.7701 -1.2126  0.9266
16188SOL    HW260544  12.979   9.771   0.131  2.9699  0.8218 -0.6937
16189SOL     OW60545  12.134  11.819  10.855  0.2199 -0.2018  0.1801
16189SOL    HW160546  12.095  11.870  10.784 -2.0649 -2.4033 -0.2436
16189SOL    HW260547  12.198  11.762  10.812 -0.5794 -0.9621 -0.0094
16190SOL     OW60548   3.760  13.912  12.802 -0.2838  0.5201  0.2460
16190SOL    HW160549   3.738  13.909  12.709 -0.2719  0.5978  0.2411
16190SOL    HW260550   3.677  13.893  12.847 -0.1018 -0.4566  0.2091
16191SOL     OW60551  11.063   9.157   5.990  0.4623 -0.0206  0.1332
16191SOL    HW160552  10.994   9.182   5.928  0.7487 -2.3634 -1.2325
16191SOL    HW260553  11.123   9.232   5.990 -0.2426  0.5942 -1.4290
16192SOL     OW60554   9.694   1.467   7.132 -0.0127 -0.2209 -0.4319
16192SOL    HW160555   9.631   1.457   7.061 -1.4723  0.0706  0.7726
16192SOL    HW260556   9.696   1.381   7.175 -0.4965  0.0867  0.2334
16193SOL     OW60557   9.062   7.781  11.323 -0.7668 -0.1731 -0.0433
16193SOL    HW160558   9.019   7.791  11.409  0.8405  0.5017  0.7239
16193SOL    HW260559   9.023   7.850  11.269 -1.5636 -0.3971  0.2245
16194SOL     OW60560  10.982  13.632   5.165 -0.3702 -0.1210  0.3389
16194SOL    HW160561  10.963  13.664   5.077  0.8621 -0.4206 -0.0612
16194SOL    HW260562  10.988  13.711   5.219  1.2527  0.2785 -0.3577
16195SOL     OW60563  13.696   3.123   8.991  1.0927  0.1662 -0.3896
16195SOL    HW160564  13.722   3.212   8.966 -0.9764  0.8247 -0.4015
16195SOL    HW260565  13.656   3.087   8.912 -1.9772  0.8476  0.7162
16196SOL     OW60566  12.415   0.625   9.257 -0.1911  0.0472 -0.0988
16196SOL    HW160567  12.426   0.555   9.321 -0.3306  0.1072 -0.0114
16196SOL    HW260568  12.372   0.696   9.304  0.9700  0.6299  0.1216
16197SOL     OW60569  10.260   7.712   4.525  0.1730 -0.3090  0.0994
16197SOL    HW160570  10.276   7.707   4.431  1.5889 -0.1843  0.3181
16197SOL    HW260571  10.223   7.799   4.539  1.5413  0.3306 -0.1382
16198SOL     OW60572  11.461  13.868   2.138  0.3295  1.2421  0.2919
16198SOL    HW160573  11.475  13.866   2.044 -0.6050 -2.2067  0.0826
16198SOL    HW260574  11.539  13.827   2.175 -0.4903  0.0341  0.7396
16199SOL     OW60575   1.341   4.962  13.590  0.3211  0.0585 -0.6024
16199SOL    HW160576   1.283   4.950  13.515 -0.8501  0.3981  0.2112
16199SOL    HW260577   1.339   5.057  13.606 -0.3405 -0.1213  0.5149
16200SOL     OW60578   0.143   1.148  11.990 -0.4201 -0.3468 -0.5331
16200SOL    HW160579   0.193   1.137  12.071  1.2833  0.0902 -1.4705
16200SOL    HW260580   0.129   1.243  11.984 -1.9363 -0.5069  0.0102
16201SOL     OW60581   8.975  10.630   1.960 -0.7860  0.2307 -0.0320
16201SOL    HW160582   9.012  10.598   2.043 -2.5060  1.5582  1.3231
16201SOL    HW260583   9.001  10.564   1.896 -0.5942 -1.6191  1.8116
16202SOL     OW60584   5.755   1.851  12.741  0.5022 -0.1291  0.3139
16202SOL    HW160585   5.722   1.761  12.749 -0.8197  0.3764  0.6257
16202SOL    HW260586   5.699   1.891  12.675 -0.0215  0.9625  1.3906
16203SOL     OW60587   4.770   0.199   2.373  0.5321 -0.2778  0.1897
16203SOL    HW160588   4.799   0.289   2.384  0.5108 -0.2942  0.3828
16203SOL    HW260589   4.851   0.149   2.361  0.4587  0.1501 -2.9406
16204SOL     OW60590   5.511   2.243   8.198  0.6265  0.0674 -0.2430
16204SOL    HW160591   5.513   2.337   8.216 -0.2050 -0.1340  0.9999
16204SOL    HW260592   5.590   2.228   8.145  2.0441  1.0860  1.4574
16205SOL     OW60593   3.872  12.565   5.523 -0.1417  0.5408  0.0703
16205SOL    HW160594   3.937  12.618   5.477 -0.2136  0.0920 -0.5475
16205SOL    HW260595   3.827  12.515   5.455 -0.3380 -0.0343  0.6045
16206SOL     OW60596  10.616   4.123   3.017  0.1730  0.8975 -0.4269
16206SOL    HW160597  10.644   4.165   3.098  0.0683  1.7866 -0.8370
16206SOL    HW260598  10.522   4.141   3.011 -0.1953 -0.7217  0.1522
16207SOL     OW60599  12.369  10.276   0.362  0.7590  0.1988 -0.1787
16207SOL    HW160600  12.315  10.309   0.290  0.4826 -0.5017 -0.3014
16207SOL    HW260601  12.410  10.197   0.327 -0.3195 -0.8369  0.7991
16208SOL     OW60602  12.041   8.384   9.180  0.1877  0.2061 -0.0891
16208SOL    HW160603  12.136   8.381   9.185  0.1429 -1.2914  0.3576
16208SOL    HW260604  12.016   8.456   9.238  1.0843  1.7193 -1.4863
16209SOL     OW60605  13.708  10.518   9.070 -0.2995  0.3049  0.3615
16209SOL    HW160606  13.621  10.528   9.031 -0.6073  0.3451  1.0363
16209SOL    HW260607  13.699  10.441   9.127 -0.5274  1.5650  2.1022
16210SOL     OW60608   0.518   8.569  10.654  0.1066  0.3932 -0.2405
16210SOL    HW160609   0.482   8.520  10.580  1.3793 -0.2188 -0.4817
16210SOL    HW260610   0.455   8.553  10.725 -0.5576  0.0901 -0.8732
16211SOL     OW60611   8.238   0.111   0.582  0.1787  0.0314 -0.0638
16211SOL    HW160612   8.293   0.116   0.504  0.5714  0.7524  0.2425
16211SOL    HW260613   8.149   0.112   0.548  0.2714  2.6252 -0.4865
16212SOL     OW60614  11.437  11.630   0.135  0.4661  0.1979  0.4792
16212SOL    HW160615  11.421  11.577   0.212  1.1132 -0.3082  0.2715
16212SOL    HW260616  11.352  11.670   0.115 -0.4504 -2.0326 -0.3193
16213SOL     OW60617   5.974   0.614   0.284  0.6591 -0.0283  0.0075
16213SOL    HW160618   5.913   0.675   0.242 -0.1576  0.0718  1.2573
16213SOL    HW260619   5.998   0.658   0.366  1.9582 -0.3458 -0.1896
16214SOL     OW60620   4.884   0.098  13.463 -0.6768 -0.2464 -0.1223
16214SOL    HW160621   4.862   0.188  13.441 -1.5511  0.0931  1.8834
16214SOL    HW260622   4.965   0.104  13.515 -0.8239 -0.5783  0.1543
16215SOL     OW60623   4.044   3.660   5.754  0.3016 -0.4333 -0.2445
16215SOL    HW160624   3.979   3.591   5.768 -1.4570  1.0373 -0.7945
16215SOL    HW260625   4.017   3.731   5.813  1.0334  0.4652 -0.9558
16216SOL     OW60626   3.460   6.490   1.602 -0.3386  0.7684 -0.0874
16216SOL    HW160627   3.479   6.490   1.509  0.3875  2.1942  0.0315
16216SOL    HW260628   3.546   6.496   1.645 -0.4747 -2.1327  0.7787
16217SOL     OW60629   1.389   4.805   8.687 -0.1009  0.4851  0.3704
16217SOL    HW160630   1.477   4.792   8.654  0.1441 -0.4538  1.3285
16217SOL    HW260631   1.347   4.719   8.679 -1.6923  1.3939 -2.1188
16218SOL     OW60632   8.382   2.851  13.946 -0.3496  0.1705  0.2244
16218SOL    HW160633   8.407   2.781  13.886  0.4848  0.0884  0.6461
16218SOL    HW260634   8.442   2.923  13.924 -0.5867  0.4270  0.4120
16219SOL     OW60635  11.802  10.014  12.389  0.2766  0.3661 -0.7830
16219SOL    HW160636  11.727  10.029  12.448  2.0128  0.0125  1.6748
16219SOL    HW260637  11.781   9.932  12.345  0.3402 -1.2527  1.9396
16220SOL     OW60638  10.582   5.675   3.032  0.0212 -0.4124  0.3051
16220SOL    HW160639  10.620   5.590   3.007  0.9178 -0.1603  0.7609
16220SOL    HW260640  10.566   5.667   3.126  1.2927  0.3469  0.6094
16221SOL     OW60641   3.478   4.679   0.980 -0.0563 -0.2464  0.0330
16221SOL    HW160642   3.426   4.704   1.056 -0.8718 -2.0215  0.1171
16221SOL    HW260643   3.414   4.659   0.911  0.6396  0.5896 -0.8878
16222SOL     OW60644  12.894   1.563  13.077  0.3493  0.2635  0.0477
16222SOL    HW160645  12.832   1.514  13.023  0.2052  0.9971 -0.4564
16222SOL    HW260646  12.978   1.522  13.058  0.1796 -0.0281 -0.0941
16223SOL     OW60647   0.166   8.491   0.270  0.5435 -0.8129  0.1171
16223SOL    HW160648   0.073   8.487   0.293  0.4649  3.0101  1.1662
16223SOL    HW260649   0.211   8.455   0.347 -0.0047 -1.5459  0.1110
16224SOL     OW60650   3.383   9.935  10.910 -0.2381  0.1675 -0.0456
16224SOL    HW160651   3.459   9.940  10.968  0.6046  1.1589 -1.1810
16224SOL    HW260652   3.416   9.964  10.825 -1.0512 -2.6804 -1.4574
16225SOL     OW60653   2.680   4.309  13.545 -0.2563 -0.4630  0.3563
16225SOL    HW160654   2.651   4.248  13.613  1.5627  1.3165  2.9194
16225SOL    HW260655   2.619   4.382  13.551  0.6467  0.2612  1.0195
16226SOL     OW60656   4.296   9.339  12.930  0.2600 -0.3771  0.4295
16226SOL    HW160657   4.208   9.301  12.926  0.0071  0.2786 -1.9718
16226SOL    HW260658   4.285   9.418  12.982 -0.8951  0.3449 -0.8343
16227SOL     OW60659   9.725   4.717   4.445 -0.2831  0.1407 -0.5740
16227SOL    HW160660   9.768   4.669   4.374 -0.9021 -1.3561  0.0429
16227SOL    HW260661   9.636   4.684   4.446 -0.6643  1.1505  0.0238
16228SOL     OW60662   1.661  13.748   0.976 -0.4566 -0.0274  0.2384
16228SOL    HW160663   1.591  13.682   0.977 -0.9235  0.4184  2.1246
16228SOL    HW260664   1.645  13.800   1.055  2.5183 -0.4546  1.2330
16229SOL     OW60665   2.152  11.686  12.729  0.2253 -0.1319 -0.3867
16229SOL    HW160666   2.186  11.676  12.818 -1.1196  0.0275  0.1610
16229SOL    HW260667   2.101  11.607  12.714  0.3788 -0.1173 -0.9860
16230SOL     OW60668  11.008   7.792  13.737  0.1024  0.5570 -0.2652
16230SOL    HW160669  11.067   7.727  13.698  0.8198  2.0149 -1.7351
16230SOL    HW260670  11.012   7.775  13.831  1.0297 -0.8898 -0.5362
16231SOL     OW60671  13.322  10.059   9.660  0.0543  0.8474  0.6867
16231SOL    HW160672  13.288  10.143   9.629  0.3963  0.8908  0.4176
16231SOL    HW260673  13.267   9.993   9.617 -1.5821  0.9372  2.4947
16232SOL     OW60674  11.899   7.479   9.490 -0.2286  0.6524  0.1380
16232SOL    HW160675  11.818   7.432   9.474  1.5527 -2.4085 -0.5405
16232SOL    HW260676  11.934   7.441   9.571  1.1831  0.9186 -0.3107
16233SOL     OW60677   9.611   7.138   4.595 -0.6243 -0.2719  0.1371
16233SOL    HW160678   9.641   7.209   4.652 -0.0296  1.5190 -2.2756
16233SOL    HW260679   9.691   7.103   4.556 -0.9208 -2.2599  1.1892
16234SOL     OW60680   8.837   8.311   3.218  0.0726  0.3331 -0.0325
16234SOL    HW160681   8.880   8.230   3.245 -1.1097 -0.6604 -1.0472
16234SOL    HW260682   8.786   8.288   3.141 -0.6823  1.9361 -0.0656
16235SOL     OW60683   1.188   7.942   4.156  0.2531  0.2520  0.4256
16235SOL    HW160684   1.255   7.957   4.223 -0.2390 -0.1424  1.0087
16235SOL    HW260685   1.143   7.863   4.184 -0.9324  0.9089  0.4113
16236SOL     OW60686   3.822   9.093  11.323  0.2233 -0.5183 -0.2697
16236SOL    HW160687   3.782   9.068  11.406 -0.5544 -1.1444 -0.8186
16236SOL    HW260688   3.903   9.042  11.319  0.6406  0.0863  0.4448
16237SOL     OW60689  13.994  12.105   4.066  0.4339  0.4503 -0.6196
16237SOL    HW160690  14.073  12.079   4.018  1.4346  2.0475  0.0916
16237SOL    HW260691  13.935  12.138   3.999  0.4657 -0.4887 -1.1290
16238SOL     OW60692  11.683   2.536   1.900  0.6104  0.1232  0.5530
16238SOL    HW160693  11.720   2.607   1.847 -0.9344 -0.5009 -1.4816
16238SOL    HW260694  11.720   2.550   1.987  1.5271  2.5237 -0.1313
16239SOL     OW60695  11.194   3.701   6.618  0.1113  0.2225  0.2200
16239SOL    HW160696  11.248   3.760   6.566 -0.5600  1.8327  1.2710
16239SOL    HW260697  11.192   3.740   6.705 -2.1026 -0.1854  0.4127
16240SOL     OW60698  12.606  12.274   1.322 -0.2385  0.5361 -0.1436
16240SOL    HW160699  12.520  12.286   1.363  0.0375  1.2111  0.2526
16240SOL    HW260700  12.660  12.238   1.393 -0.7953 -2.3666 -1.0259
16241SOL     OW60701   6.719   3.862   9.346 -0.2196 -0.1629  0.0309
16241SOL    HW160702   6.788   3.802   9.318  0.5708  0.4643  0.5729
16241SOL    HW260703   6.707   3.921   9.271  1.0225  0.7502  0.5130
16242SOL     OW60704   2.672   6.097  10.821  0.2789  0.1228  0.1141
16242SOL    HW160705   2.747   6.045  10.849 -0.3387 -0.5675  0.5313
16242SOL    HW260706   2.676   6.096  10.725  0.0289 -1.0887  0.0998
16243SOL     OW60707   7.954  10.564  11.189  0.4989  0.1763 -0.0026
16243SOL    HW160708   7.988  10.613  11.114 -0.4660 -0.2910 -0.7706
16243SOL    HW260709   7.967  10.472  11.166 -1.0665 -0.0093 -0.2493
16244SOL     OW60710   7.019   5.881  10.879  0.4276  0.3271 -0.9521
16244SOL    HW160711   6.983   5.941  10.944  1.3521 -0.1112  0.0007
16244SOL    HW260712   6.943   5.845  10.835 -0.2472  0.3514  0.1560
16245SOL     OW60713  10.580  13.457   6.201  0.1294 -0.1086 -0.1098
16245SOL    HW160714  10.512  13.450   6.134 -0.2453 -3.0696  0.4425
16245SOL    HW260715  10.607  13.549   6.199 -0.6374  0.1479 -3.4996
16246SOL     OW60716   2.550   1.280   1.662  0.3563 -1.0403 -0.4944
16246SOL    HW160717   2.555   1.289   1.567  1.7625 -1.2426 -0.4487
16246SOL    HW260718   2.537   1.186   1.676  1.5948 -1.2239 -0.4597
16247SOL     OW60719   5.197   2.267   5.392  0.4066 -0.8037 -0.1185
16247SOL    HW160720   5.165   2.180   5.414  0.2659 -1.4337 -2.5040
16247SOL    HW260721   5.283   2.273   5.434 -0.1212 -1.5753  1.1024
16248SOL     OW60722   0.432   2.655   9.562  0.1005 -0.0147 -0.1830
16248SOL    HW160723   0.431   2.564   9.590 -0.8899  0.1806  0.4555
16248SOL    HW260724   0.345   2.688   9.583  1.0506  1.6245  1.4451
16249SOL     OW60725  11.676   1.881  10.070  0.1529  0.2454 -0.1895
16249SOL    HW160726  11.638   1.857   9.985  0.8342 -2.2604  0.1409
16249SOL    HW260727  11.629   1.827  10.134  2.0608 -0.5876  0.5876
16250SOL     OW60728   7.965   6.543   4.139 -0.0262  0.5681  0.1051
16250SOL    HW160729   7.901   6.481   4.173 -1.2065  1.8015  0.1993
16250SOL    HW260730   7.983   6.513   4.050  1.3983 -1.3881  0.9888
16251SOL     OW60731  11.808   8.185  10.955 -0.1030  0.2923  0.3520
16251SOL    HW160732  11.768   8.246  11.018  0.0296  1.3477 -0.5570
16251SOL    HW260733  11.805   8.100  10.999 -1.1779  0.7749  1.2652
16252SOL     OW60734   9.272  13.749   9.853 -0.2162  0.1683 -0.1640
16252SOL    HW160735   9.347  13.761   9.795  0.8267  0.1362  1.1114
16252SOL    HW260736   9.292  13.806   9.928 -1.0125 -0.5514  0.6074
16253SOL     OW60737   8.553   3.704   3.757  0.0292 -0.3543 -0.0417
16253SOL    HW160738   8.496   3.666   3.690  0.2374 -1.4837  0.3979
16253SOL    HW260739   8.495   3.760   3.809 -0.3284 -0.2058 -0.6008
16254SOL     OW60740   1.694  12.722   2.024 -0.8776  0.5717 -0.2100
16254SOL    HW160741   1.604  12.731   2.054 -0.5119  1.2248  0.7567
16254SOL    HW260742   1.725  12.812   2.014 -0.1631  0.3592  0.0133
16255SOL     OW60743   0.983   0.123   4.886  0.5218  0.2177 -0.5142
16255SOL    HW160744   1.033   0.193   4.927 -1.4282  0.4349  1.7224
16255SOL    HW260745   0.992   0.049   4.945  1.2881 -0.9880 -2.0663
16256SOL     OW60746   8.747   2.489   2.439  0.1590 -0.6058  0.1663
16256SOL    HW160747   8.672   2.547   2.454  0.3686 -0.3316  0.1690
16256SOL    HW260748   8.716   2.402   2.465 -0.0975 -0.4633  0.3428
16257SOL     OW60749   6.247   5.645   4.348 -0.0516 -0.2714 -0.1183
16257SOL    HW160750   6.162   5.675   4.378  0.5266 -2.1009  3.9532
16257SOL    HW260751   6.309   5.706   4.387  0.6518 -0.8530 -0.3086
16258SOL     OW60752   8.993   6.269  11.039 -0.4089  0.1800  0.4342
16258SOL    HW160753   8.910   6.267  11.086 -0.6200  0.4531  0.0762
16258SOL    HW260754   9.037   6.188  11.063 -0.3585  0.4808  1.3970
16259SOL     OW60755   5.671   2.768   5.193  0.7217 -0.1909  0.0874
16259SOL    HW160756   5.603   2.704   5.212  0.5037  0.2125  0.7090
16259SOL    HW260757   5.626   2.852   5.196  1.4383  0.1756  1.6200
16260SOL     OW60758   1.755  13.357   4.865  0.0203 -0.0554  0.4012
16260SOL    HW160759   1.835  13.310   4.839  0.1770  0.1794  0.4567
16260SOL    HW260760   1.762  13.442   4.821 -1.1072 -0.7204 -1.1350
16261SOL     OW60761   7.560   7.062   1.404  0.5923  0.2336 -0.3928
16261SOL    HW160762   7.566   6.982   1.456  1.1229  0.6641  0.2127
16261SOL    HW260763   7.515   7.035   1.324 -0.5435 -0.3539  0.4318
16262SOL     OW60764   9.747   7.401  11.301 -0.0137  0.8608 -0.0407
16262SOL    HW160765   9.817   7.427  11.242 -0.4972  0.3020 -0.8723
16262SOL    HW260766   9.792   7.353  11.371  0.2675 -1.0453 -1.4809
16263SOL     OW60767  13.714   0.414   5.346  0.3420  0.2648 -0.3067
16263SOL    HW160768  13.644   0.435   5.284 -0.0923  0.0556  0.1101
16263SOL    HW260769  13.680   0.340   5.397  0.5654  0.6413  0.3967
16264SOL     OW60770   2.755  12.901  11.304 -0.1789 -0.3565 -0.1090
16264SOL    HW160771   2.784  12.987  11.334 -1.1343 -0.1737  0.3215
16264SOL    HW260772   2.792  12.840  11.368  0.0710 -0.2185 -0.1220
16265SOL     OW60773  11.207   4.058   6.613 -0.0657 -0.5231 -0.0443
16265SOL    HW160774  11.208   4.109   6.532 -1.3508 -0.9145 -0.3297
16265SOL    HW260775  11.293   4.018   6.618  0.9271  1.5286  0.1100
16266SOL     OW60776   1.812  12.555  10.926  0.0675  0.3351 -0.3895
16266SOL    HW160777   1.837  12.642  10.958  0.8620 -0.6385  1.8640
16266SOL    HW260778   1.725  12.540  10.962  0.3768 -0.2101  0.1451
16267SOL     OW60779   1.757   2.465   5.564 -0.1242  0.2541  0.2209
16267SOL    HW160780   1.753   2.441   5.657  0.3211  2.3592  0.8410
16267SOL    HW260781   1.671   2.443   5.530 -0.3496 -0.3982  1.1658
16268SOL     OW60782   1.539  11.653   2.631  0.1396 -0.3074  0.0009
16268SOL    HW160783   1.505  11.739   2.609 -1.1360 -0.5278  0.9783
16268SOL    HW260784   1.610  11.670   2.693  0.9062  0.0870 -0.9553
16269SOL     OW60785   0.181  11.684   3.386 -0.3800  0.0890  0.3051
16269SOL    HW160786   0.137  11.693   3.470 -2.5409  3.2072 -0.9966
16269SOL    HW260787   0.111  11.685   3.321  1.3314 -0.1158 -1.6683
16270SOL     OW60788   8.264   5.747   5.789  0.0246  0.0328  0.1292
16270SOL    HW160789   8.344   5.742   5.738 -1.5650 -1.9911 -2.3830
16270SOL    HW260790   8.200   5.786   5.730 -1.3375 -0.1017  1.4460
16271SOL     OW60791   8.661   0.041  10.514 -0.2488 -0.0393 -0.1806
16271SOL    HW160792   8.568   0.061  10.516 -0.2198  0.1196 -0.4455
16271SOL    HW260793   8.697   0.085  10.591 -0.7066 -1.6922  1.0462
16272SOL     OW60794   2.979  12.596   7.495 -0.0565  0.0973 -0.5602
16272SOL    HW160795   2.893  12.592   7.537  0.2820 -0.6154  0.0926
16272SOL    HW260796   3.034  12.538   7.548  1.2679  1.8311  0.0540
16273SOL     OW60797   5.038  10.574   9.024 -0.0568  0.2783  0.2421
16273SOL    HW160798   5.024  10.499   8.966 -1.4988  0.0473  0.8376
16273SOL    HW260799   5.132  10.587   9.024  0.1010 -0.6600 -0.9670
16274SOL     OW60800   4.343   2.867   9.677  0.3800 -0.0551  0.0978
16274SOL    HW160801   4.313   2.956   9.696  1.3382  0.2756  0.1088
16274SOL    HW260802   4.297   2.842   9.597 -0.3943  0.1894  0.4575
16275SOL     OW60803   8.329   4.360  10.603 -0.0289 -0.6487  0.0616
16275SOL    HW160804   8.320   4.411  10.683  0.1088 -0.1139 -0.2609
16275SOL    HW260805   8.338   4.269  10.633 -1.5769 -0.6558  0.5914
16276SOL     OW60806   4.661   4.530  12.265 -0.2279  0.0929  0.3180
16276SOL    HW160807   4.751   4.559  12.277  0.4930 -2.6710  2.7055
16276SOL    HW260808   4.610   4.584  12.325  0.4620 -0.7235  1.6932
16277SOL     OW60809  12.080   6.202   3.085  0.3747  0.0698 -0.4175
16277SOL    HW160810  12.043   6.284   3.053 -1.5919 -0.5233  0.1966
16277SOL    HW260811  12.004   6.147   3.103  1.6268 -1.7470 -0.4213
16278SOL     OW60812   8.660   8.196   7.083  0.0864 -0.5865  0.0934
16278SOL    HW160813   8.751   8.227   7.086  0.3859 -1.0694 -2.1219
16278SOL    HW260814   8.667   8.102   7.067 -0.8032 -0.5435 -0.6265
16279SOL     OW60815  10.984   4.223   8.130  0.3844  0.6701 -0.3227
16279SOL    HW160816  11.065   4.179   8.106 -0.5015 -1.7368  0.7715
16279SOL    HW260817  10.987   4.228   8.226 -1.8606 -2.0386  0.0365
16280SOL     OW60818   5.820   1.767  11.425  0.2211  0.0958 -0.4072
16280SOL    HW160819   5.767   1.697  11.388  1.1265 -0.2343 -1.1236
16280SOL    HW260820   5.820   1.750  11.519 -1.2083  0.3096 -0.3486
16281SOL     OW60821   2.071   9.186   2.744  0.1313 -0.7611  0.2736
16281SOL    HW160822   1.991   9.183   2.691 -1.1004  1.9250  1.8132
16281SOL    HW260823   2.068   9.107   2.796 -1.2418 -0.9857 -0.1006
16282SOL     OW60824  11.520  12.710   4.644  0.3767  0.3433 -0.0840
16282SOL    HW160825  11.449  12.650   4.621 -0.6040  1.3053  0.3425
16282SOL    HW260826  11.541  12.755   4.562 -0.8323  1.4093  0.1690
16283SOL     OW60827   0.357  10.457   0.790 -0.0776  0.1972  0.5825
16283SOL    HW160828   0.282  10.513   0.772  0.3846  0.6540  0.0306
16283SOL    HW260829   0.328  10.399   0.861 -1.4699 -0.6548 -0.6212
16284SOL     OW60830  11.013  12.961   3.949  0.4555  0.1939  0.1290
16284SOL    HW160831  10.963  12.976   4.029  0.4503  1.2653 -0.0590
16284SOL    HW260832  10.979  12.878   3.914  0.1194 -0.0317  0.9671
16285SOL     OW60833  10.015   8.056   1.700  0.4272  0.1394 -0.0608
16285SOL    HW160834  10.016   8.101   1.785  0.9756  0.4243 -0.2158
16285SOL    HW260835  10.106   8.056   1.672  0.5639 -1.6949  0.2481
16286SOL     OW60836   6.219   4.896   1.988  0.1659 -0.1928  0.4292
16286SOL    HW160837   6.237   4.803   1.973  0.3789 -0.4005  1.8434
16286SOL    HW260838   6.266   4.917   2.068  2.3843  1.8434 -1.2452
16287SOL     OW60839   6.920  12.465   4.779  0.4542  0.0354 -0.2102
16287SOL    HW160840   6.971  12.426   4.708  2.9541 -1.2162  2.0553
16287SOL    HW260841   6.923  12.399   4.849 -2.8143  0.7197  0.7368
16288SOL     OW60842  12.799  11.636   1.860  0.3310 -0.2662 -0.3474
16288SOL    HW160843  12.885  11.665   1.893  0.7733 -1.1942 -0.6569
16288SOL    HW260844  12.737  11.695   1.902  1.0775  0.0774  0.3125
16289SOL     OW60845   1.765   6.346   8.976 -0.3976  0.3248 -0.2947
16289SOL    HW160846   1.793   6.392   9.055  0.2597  0.1040 -0.3961
16289SOL    HW260847   1.821   6.380   8.906 -0.1294 -0.3755 -0.4291
16290SOL     OW60848  10.669   0.233  11.536  0.1103  0.0239 -0.0334
16290SOL    HW160849  10.706   0.162  11.590  1.6490 -1.9841 -3.4292
16290SOL    HW260850  10.588   0.196  11.500 -0.8853  1.3322  0.7348
16291SOL     OW60851   8.918   2.414   2.885 -0.0310 -0.2164 -0.2700
16291SOL    HW160852   8.948   2.341   2.832 -0.4163 -1.4245  1.1203
16291SOL    HW260853   8.958   2.491   2.844 -0.4079 -1.0554 -2.3646
16292SOL     OW60854   0.051  13.436   1.238  0.8918  0.5188 -0.4707
16292SOL    HW160855   0.098  13.369   1.188 -0.6177 -0.3475 -0.8079
16292SOL    HW260856  -0.002  13.482   1.173  0.0393  0.3679  0.0992
16293SOL     OW60857   1.197  10.130   4.788  0.3541  0.3153  0.1225
16293SOL    HW160858   1.169  10.208   4.740  0.4048  0.4061  0.2385
16293SOL    HW260859   1.229  10.070   4.721  0.5912  0.5117  0.0582
16294SOL     OW60860  12.941   9.153  13.625 -0.2235 -0.1047  0.4873
16294SOL    HW160861  13.031   9.140  13.655 -0.5029 -1.3035  0.8534
16294SOL    HW260862  12.947   9.223  13.559  0.9979 -0.3149  0.3598
16295SOL     OW60863   0.196  12.419   6.469  0.2258 -0.3257  0.2314
16295SOL    HW160864   0.165  12.334   6.440  1.6889 -1.1366  0.9575
16295SOL    HW260865   0.248  12.453   6.395  0.2334 -0.3851  0.2099
16296SOL     OW60866   8.720  10.119   1.197 -0.3804  0.2542 -0.0834
16296SOL    HW160867   8.791  10.136   1.135 -0.9019  0.2252 -0.7019
16296SOL    HW260868   8.648  10.175   1.167 -1.0086 -0.5696 -0.1744
16297SOL     OW60869   8.509   9.514  13.393  0.3006  0.0010  0.2835
16297SOL    HW160870   8.530   9.549  13.479  2.9364  0.7532 -0.5748
16297SOL    HW260871   8.431   9.563  13.366  1.9717  3.0116  0.4883
16298SOL     OW60872   0.184   5.894   6.600 -0.0172 -0.2364  0.1460
16298SOL    HW160873   0.231   5.974   6.578 -1.8831  1.1816  1.0622
16298SOL    HW260874   0.115   5.887   6.533 -0.7819 -0.2412  0.9137
16299SOL     OW60875   6.268  12.304   0.217 -0.4271 -0.2599  0.1053
16299SOL    HW160876   6.313  12.237   0.165  0.0615  0.4076 -0.3420
16299SOL    HW260877   6.218  12.354   0.154 -0.9974 -0.3563  0.4754
16300SOL     OW60878   1.213   2.211   7.201 -0.1919 -0.0553 -0.0236
16300SOL    HW160879   1.241   2.126   7.234  1.3774  0.3598 -0.2035
16300SOL    HW260880   1.133   2.231   7.249  1.3259 -0.0371  2.6563
16301SOL     OW60881   8.283   0.780   4.114  0.5007 -0.0362 -0.2175
16301SOL    HW160882   8.341   0.841   4.068  2.6919 -0.5577  1.6982
16301SOL    HW260883   8.333   0.698   4.119 -0.7084 -0.7527  0.8736
16302SOL     OW60884  11.108   8.262   4.966  0.4385  0.1149 -0.1630
16302SOL    HW160885  11.108   8.354   4.993  1.5867  0.2424 -0.5448
16302SOL    HW260886  11.128   8.264   4.873 -0.2275 -0.4911 -0.3206
16303SOL     OW60887   3.071  11.784   9.656  0.1382  0.0154 -0.0588
16303SOL    HW160888   3.060  11.803   9.562  0.7825 -0.1010 -0.1645
16303SOL    HW260889   3.162  11.808   9.674 -0.3992  1.4823  0.8912
16304SOL     OW60890  11.295   0.104   9.692  0.0105  0.2064 -0.4346
16304SOL    HW160891  11.387   0.091   9.670 -0.0801 -0.4751 -0.4622
16304SOL    HW260892  11.263   0.015   9.712 -1.0582  0.1819 -2.0928
16305SOL     OW60893   8.049   7.970  12.241  0.4565  0.1319 -0.3170
16305SOL    HW160894   8.108   8.041  12.268 -0.9278  1.1693  0.1101
16305SOL    HW260895   8.033   7.986  12.148  1.5930 -0.7261 -0.6753
16306SOL     OW60896   5.145  13.924   3.628  0.0968  0.3112 -0.1751
16306SOL    HW160897   5.220  13.866   3.635  0.0963  0.2831 -0.3804
16306SOL    HW260898   5.069  13.869   3.647  0.0252  0.0413 -1.2012
16307SOL     OW60899   8.566   7.645  10.448  0.6332 -0.4192 -0.0825
16307SOL    HW160900   8.580   7.613  10.358 -2.5623  2.2091 -1.7109
16307SOL    HW260901   8.615   7.727  10.452 -0.1184  0.0247  0.1631
16308SOL     OW60902  12.572   8.235  10.878  0.4637  0.0797  0.3554
16308SOL    HW160903  12.498   8.181  10.907 -0.5601  0.8678 -0.6804
16308SOL    HW260904  12.643   8.173  10.865 -0.1262 -0.7590  0.9994
16309SOL     OW60905   6.117   3.655  12.702 -0.4011 -0.6079 -0.2907
16309SOL    HW160906   6.118   3.709  12.781  1.9062 -0.3403 -0.4244
16309SOL    HW260907   6.025   3.647  12.679 -0.9724  1.1821  1.1564
16310SOL     OW60908   3.829  10.111   6.363 -0.0211 -0.1201  0.2362
16310SOL    HW160909   3.795  10.187   6.410  2.0530  0.5155  0.8362
16310SOL    HW260910   3.797  10.122   6.273  0.3812  1.5856  0.2658
16311SOL     OW60911   0.799  11.082   7.880 -0.0029  0.4992 -0.4790
16311SOL    HW160912   0.748  11.028   7.819 -0.5234 -0.3919  0.7084
16311SOL    HW260913   0.752  11.075   7.963  1.2539  0.8440  0.2841
16312SOL     OW60914   6.461   6.289   9.389  0.7495  0.0483  0.0766
16312SOL    HW160915   6.505   6.213   9.351  0.9553  0.4632 -0.5208
16312SOL    HW260916   6.399   6.317   9.321 -0.8670 -0.8737  1.1037
16313SOL     OW60917  11.147   6.129  10.390 -0.1085  0.6077  0.1520
16313SOL    HW160918  11.063   6.161  10.355  0.9337  2.3205 -0.9175
16313SOL    HW260919  11.179   6.202  10.443  0.3349 -0.3591  1.2417
16314SOL     OW60920   1.032   5.142  13.533  0.4722 -0.5836  0.1034
16314SOL    HW160921   0.949   5.187  13.523  0.2806 -0.4020  2.1240
16314SOL    HW260922   1.051   5.105  13.446 -0.9823  0.5807 -0.7351
16315SOL     OW60923  10.186  11.422   6.953  0.6915  0.5841  0.3040
16315SOL    HW160924  10.092  11.403   6.952  0.1473  2.9883 -0.5679
16315SOL    HW260925  10.210  11.421   7.046  0.2315 -1.6838  0.4610
16316SOL     OW60926  11.156  10.216  12.343  0.1162  0.2151 -0.4711
16316SOL    HW160927  11.237  10.169  12.364 -0.3970 -0.8897 -0.9167
16316SOL    HW260928  11.153  10.288  12.407  1.6670  0.5496 -0.7243
16317SOL     OW60929   5.174   1.778   5.341 -0.1936 -0.7357  0.4007
16317SOL    HW160930   5.265   1.796   5.316  0.1521 -2.1019  0.5891
16317SOL    HW260931   5.181   1.706   5.404 -1.4361 -1.1587  0.0696
16318SOL     OW60932  13.017   3.450   9.993  0.2365  0.2394  0.9863
16318SOL    HW160933  13.108   3.481   9.987 -0.4284  2.4136  1.3134
16318SOL    HW260934  12.988   3.446   9.902  0.4390  0.2679  0.9190
16319SOL     OW60935   9.733   3.686   2.145 -0.4967 -0.1303  0.6560
16319SOL    HW160936   9.652   3.714   2.103  0.1140  1.3947  0.4041
16319SOL    HW260937   9.732   3.729   2.231  1.2506  2.2705 -0.3908
16320SOL     OW60938   5.230  11.175   7.717 -0.3568 -0.6476  0.3173
16320SOL    HW160939   5.204  11.147   7.629  0.7522  0.0692 -0.2746
16320SOL    HW260940   5.310  11.227   7.702 -0.1585 -0.5084  1.7501
16321SOL     OW60941   7.391  11.107   4.129 -0.2729 -0.0866  0.0263
16321SOL    HW160942   7.394  11.125   4.223  0.3096 -0.5828  0.1068
16321SOL    HW260943   7.479  11.128   4.098 -0.9113  1.6451 -0.7163
16322SOL     OW60944   0.082   0.302  11.988  0.2201 -0.1542  0.1787
16322SOL    HW160945   0.068   0.233  11.922  0.1593 -0.1866  0.2258
16322SOL    HW260946   0.169   0.282  12.024 -0.7056 -1.5163  1.7526
16323SOL     OW60947   4.811   1.546  11.499 -0.3818  0.0596 -0.6435
16323SOL    HW160948   4.827   1.560  11.592 -3.5916  2.9692 -0.3372
16323SOL    HW260949   4.896   1.561  11.457  0.9148 -0.3896  1.6959
16324SOL     OW60950  13.259  12.689   9.178  0.3928 -0.3951 -0.0854
16324SOL    HW160951  13.237  12.698   9.271 -0.2345 -0.3276 -0.2333
16324SOL    HW260952  13.189  12.635   9.143 -2.1882  3.5009 -1.5203
16325SOL     OW60953   5.642   4.938   4.398 -0.9314 -0.1990 -0.1937
16325SOL    HW160954   5.699   4.924   4.323  4.1504  0.2422  3.1133
16325SOL    HW260955   5.623   5.032   4.396  0.8650  0.2122  0.0014
16326SOL     OW60956  12.438   3.007   4.705  0.2175 -0.5131  0.0728
16326SOL    HW160957  12.451   3.100   4.721  1.4853 -0.9198  1.7789
16326SOL    HW260958  12.472   2.993   4.617  1.7206  0.3539  0.4816
16327SOL     OW60959   0.490  10.905   1.714 -0.5488 -0.3519  0.3579
16327SOL    HW160960   0.569  10.955   1.734 -0.0567 -0.7700 -0.4741
16327SOL    HW260961   0.523  10.818   1.690 -1.0709  0.0271 -1.9703
16328SOL     OW60962  12.321   5.486  12.478 -0.5523 -0.6184 -0.0871
16328SOL    HW160963  12.359   5.574  12.484  2.9411 -1.9366 -0.6773
16328SOL    HW260964  12.251   5.486  12.544  1.7600  1.4731  2.6423
16329SOL     OW60965  13.778   9.080   3.183  0.6537  0.0269 -0.3530
16329SOL    HW160966  13.784   8.993   3.145 -1.2437 -0.0289 -0.6265
16329SOL    HW260967  13.772   9.139   3.107  0.5124  0.2569 -0.1655
16330SOL     OW60968   1.521  12.618   7.243 -0.1036 -0.0761  0.3061
16330SOL    HW160969   1.573  12.539   7.261 -0.4733 -1.1201 -2.6480
16330SOL    HW260970   1.431  12.591   7.262 -0.3067 -0.6483 -1.3211
16331SOL     OW60971  12.590  13.970   0.279 -0.0539 -0.8550 -0.5142
16331SOL    HW160972  12.594  14.050   0.331 -0.3867  0.9234 -3.0019
16331SOL    HW260973  12.681  13.951   0.256  0.1110 -1.7536  0.8018
16332SOL     OW60974   8.450   3.197  11.456  0.2733  0.3859 -0.2213
16332SOL    HW160975   8.370   3.215  11.505  1.2617  2.8506  0.6665
16332SOL    HW260976   8.428   3.123  11.400 -1.9665 -0.3152  1.4570
16333SOL     OW60977   1.511   6.422   8.786  0.1591 -0.3165 -0.5397
16333SOL    HW160978   1.552   6.506   8.810 -0.4150 -0.5703  1.5705
16333SOL    HW260979   1.493   6.430   8.693  0.7273  1.6524 -0.5306
16334SOL     OW60980   4.249   7.549   4.349 -0.5450  0.0999 -0.1814
16334SOL    HW160981   4.296   7.519   4.271 -0.1673 -2.4749  0.9428
16334SOL    HW260982   4.318   7.568   4.412 -0.8479  2.2212 -0.3927
16335SOL     OW60983   0.477   7.069   8.079  0.6219  0.4290  0.0715
16335SOL    HW160984   0.533   7.142   8.054  1.5227 -0.1804  0.2443
16335SOL    HW260985   0.494   7.002   8.013  0.8778 -0.1380  0.6997
16336SOL     OW60986   9.330   9.353   5.734  0.2750 -0.2385  0.0931
16336SOL    HW160987   9.307   9.419   5.668  1.1299  1.8233  1.7323
16336SOL    HW260988   9.327   9.401   5.817  0.7819 -2.3478  1.3956
16337SOL     OW60989   8.220   0.441   2.414  0.8765  0.6612  0.3773
16337SOL    HW160990   8.251   0.485   2.493  0.0737  1.3826  0.3044
16337SOL    HW260991   8.125   0.445   2.420  0.7971 -0.1301 -0.1679
16338SOL     OW60992   3.974   5.984   3.251  0.4284 -0.3154 -0.5825
16338SOL    HW160993   4.060   5.957   3.218  0.9110  2.7044 -2.1275
16338SOL    HW260994   3.991   6.011   3.342  1.5464  1.7546 -1.3427
16339SOL     OW60995   1.627   5.971   5.663 -0.3748 -0.2271 -0.6016
16339SOL    HW160996   1.614   5.971   5.568  1.1262  0.8400 -0.8430
16339SOL    HW260997   1.555   6.023   5.697 -0.3178  0.2988 -1.2587
16340SOL     OW60998   8.009   2.540   6.362 -0.0052 -0.5271 -0.4186
16340SOL    HW160999   8.060   2.462   6.341  0.5815 -0.8908  1.9933
16340SOL    HW261000   8.002   2.538   6.458 -1.7703  1.2740 -0.4546
16341SOL     OW61001  13.080  13.551   9.029  0.1724 -0.0871 -0.3521
16341SOL    HW161002  13.114  13.557   9.118 -1.7456 -0.3107  0.4560
16341SOL    HW261003  12.989  13.581   9.036  0.4835  1.6405 -2.5953
16342SOL     OW61004  11.406   6.196  12.085  0.2362  0.1907  0.2750
16342SOL    HW161005  11.344   6.127  12.110  1.6390 -0.7973  1.1858
16342SOL    HW261006  11.428   6.177  11.993 -0.4419  0.2723  0.0928
16343SOL     OW61007   4.920   6.824  11.976 -0.2916 -0.0588  0.8691
16343SOL    HW161008   4.946   6.788  12.061 -0.1245 -1.6016  0.2008
16343SOL    HW261009   4.992   6.883  11.953 -0.4046  0.4822  1.8545
16344SOL     OW61010   7.536  11.654   0.258  0.1446 -0.3367 -0.6141
16344SOL    HW161011   7.546  11.653   0.163 -0.6297  1.7951 -0.7742
16344SOL    HW261012   7.498  11.739   0.277 -0.6347 -1.0955  1.5362
16345SOL     OW61013   9.486   3.147   4.004  0.2003 -0.0061 -1.0470
16345SOL    HW161014   9.489   3.068   4.058 -2.2301 -0.0094 -0.7818
16345SOL    HW261015   9.507   3.218   4.064 -0.0433 -0.2336 -0.6856
16346SOL     OW61016  11.682  10.138   7.883 -0.0997  0.2865 -0.1037
16346SOL    HW161017  11.694  10.171   7.794  0.8626  1.0581  0.2965
16346SOL    HW261018  11.693  10.043   7.875  2.4908  0.5436 -0.4540
16347SOL     OW61019  11.372  11.937   7.423  0.2982 -0.4523 -0.0070
16347SOL    HW161020  11.358  11.843   7.417  0.3515 -0.5664  1.4038
16347SOL    HW261021  11.346  11.960   7.512  1.7490  0.5977  0.1781
16348SOL     OW61022   0.023   4.108  13.742  0.6500  0.3436  0.2388
16348SOL    HW161023   0.026   4.015  13.720  0.2178  0.0207  1.4671
16348SOL    HW261024   0.020   4.110  13.837  0.4060  1.6133  0.2199
16349SOL     OW61025  10.282  10.848   4.126  0.6012 -0.2909  0.1573
16349SOL    HW161026  10.268  10.925   4.070  0.7760 -1.3896 -1.4772
16349SOL    HW261027  10.377  10.842   4.134  0.5844 -0.3083  0.3393
16350SOL     OW61028   3.525  11.253   2.129 -0.4251 -0.0881  0.2025
16350SOL    HW161029   3.618  11.240   2.149 -0.2452  1.1455  0.2544
16350SOL    HW261030   3.511  11.203   2.048  0.4935  0.3920 -0.2747
16351SOL     OW61031  13.136   7.624  12.593 -0.3944 -0.0323  0.4612
16351SOL    HW161032  13.171   7.651  12.508  2.2879  1.8503  1.9864
16351SOL    HW261033  13.150   7.530  12.597  1.4203  0.1575 -0.4110
16352SOL     OW61034   8.239   8.983   1.990 -0.2332  0.1667  0.6776
16352SOL    HW161035   8.284   9.021   1.914  0.7466 -0.3718  0.9701
16352SOL    HW261036   8.286   8.902   2.007 -0.5660  0.1888  1.7482
16353SOL     OW61037   3.357   2.105  13.021 -0.0521  0.2104  0.3811
16353SOL    HW161038   3.335   2.058  13.102 -0.4154 -0.1173  0.0923
16353SOL    HW261039   3.367   2.036  12.955 -2.3660  0.6255 -0.4767
16354SOL     OW61040   9.121   4.760   1.471  0.2140  0.3204 -0.1894
16354SOL    HW161041   9.084   4.681   1.510  1.4050 -0.1744 -0.0271
16354SOL    HW261042   9.176   4.728   1.400 -0.7748  1.1349 -1.3625
16355SOL     OW61043   1.656   6.176   7.855 -0.3187 -0.1840  0.0636
16355SOL    HW161044   1.574   6.224   7.871 -0.8736 -1.4671  1.2699
16355SOL    HW261045   1.673   6.131   7.938  0.3073 -1.8598 -0.9452
16356SOL     OW61046  10.118   7.432   9.543  0.2093  0.1998  0.3451
16356SOL    HW161047  10.162   7.354   9.576  0.8188  0.4048  0.0228
16356SOL    HW261048  10.057   7.398   9.477 -0.3215 -0.1098  0.9903
16357SOL     OW61049   2.272   3.194   0.331  0.3608  0.0160  0.3861
16357SOL    HW161050   2.198   3.141   0.360  1.0930 -0.5734  1.2024
16357SOL    HW261051   2.240   3.238   0.252 -1.0818  0.2946  1.0821
16358SOL     OW61052  11.569   8.853  11.777  0.5513 -0.2071 -0.0340
16358SOL    HW161053  11.651   8.889  11.809  0.4356 -1.0865  1.3458
16358SOL    HW261054  11.593   8.769  11.737  0.3201 -0.5398  0.5141
16359SOL     OW61055   4.364   2.571   8.076 -0.6196 -0.0583 -0.0454
16359SOL    HW161056   4.320   2.646   8.035 -1.7827 -0.8387 -0.2696
16359SOL    HW261057   4.375   2.598   8.167  1.6817  1.5546 -0.7082
16360SOL     OW61058   1.321  13.616   5.593 -0.9423 -0.4094 -0.3396
16360SOL    HW161059   1.265  13.538   5.588 -1.0120 -0.4387  0.6704
16360SOL    HW261060   1.351  13.618   5.684 -2.4276  1.7637  0.1954
16361SOL     OW61061  11.654   7.346   9.973 -0.1760  0.2396 -0.2843
16361SOL    HW161062  11.708   7.415  10.011  0.0883  0.3134 -0.7921
16361SOL    HW261063  11.702   7.265   9.991  1.4523  0.4911 -2.9296
16362SOL     OW61064   7.738   1.783  10.500 -0.1814  0.2614  0.0034
16362SOL    HW161065   7.666   1.811  10.443 -1.0763  1.0619  1.4768
16362SOL    HW261066   7.700   1.713  10.553  0.2474  0.4150  0.5124
16363SOL     OW61067  11.094  10.887  13.093  0.3742 -0.1586 -0.0123
16363SOL    HW161068  11.133  10.921  13.173  0.6471  1.5259 -0.8265
16363SOL    HW261069  11.107  10.792  13.098  0.7906 -0.0283  1.7001
16364SOL     OW61070   4.503   5.668   9.129  0.2475 -0.4137 -0.1635
16364SOL    HW161071   4.501   5.763   9.140  3.0691 -0.4332  1.4988
16364SOL    HW261072   4.449   5.651   9.052 -1.1524  2.4118  0.0845
16365SOL     OW61073  11.796   2.008  13.439  0.4592 -0.0759 -0.2781
16365SOL    HW161074  11.860   2.063  13.484 -1.1833 -0.0663  2.3196
16365SOL    HW261075  11.759   2.064  13.372  2.9318 -0.0226 -1.7082
16366SOL     OW61076   3.161   6.568  10.668  0.5063 -0.3675  0.0322
16366SOL    HW161077   3.087   6.605  10.620  0.6859  0.8114  0.6029
16366SOL    HW261078   3.137   6.477  10.685  0.4262 -0.8197 -2.2192
16367SOL     OW61079   2.966   2.282   2.793 -0.0801  0.1992  0.0095
16367SOL    HW161080   3.029   2.344   2.757 -1.8896  1.3336 -1.3682
16367SOL    HW261081   2.935   2.233   2.717 -1.2860  0.0697  0.5613
16368SOL     OW61082   2.167  10.522   8.010  0.5918 -0.4032  0.3494
16368SOL    HW161083   2.077  10.490   8.010  0.6732 -0.9625 -2.6917
16368SOL    HW261084   2.208  10.478   7.936  2.7581  1.4501  0.3347
16369SOL     OW61085   7.436   3.185   4.584 -0.7271  0.1772 -0.5661
16369SOL    HW161086   7.380   3.166   4.510  1.7567 -1.7078 -2.1242
16369SOL    HW261087   7.458   3.100   4.621 -0.0439  0.9421  0.9158
16370SOL     OW61088  10.161   7.758   8.214 -0.4119 -0.0696 -0.0631
16370SOL    HW161089  10.070   7.784   8.227 -0.2985  0.0798  0.4766
16370SOL    HW261090  10.163   7.665   8.233 -0.1527  0.2453  1.5825
16371SOL     OW61091   6.752   0.217   8.880  0.4248  0.0550  0.1788
16371SOL    HW161092   6.740   0.311   8.894  1.3266  0.4887 -1.6409
16371SOL    HW261093   6.806   0.211   8.801 -0.0506 -2.0176 -0.0510
16372SOL     OW61094   6.129   2.576  10.529  0.3731 -0.3950  0.0102
16372SOL    HW161095   6.182   2.607  10.455  0.8087  1.9747  1.2525
16372SOL    HW261096   6.040   2.577  10.495  0.7191 -1.0438 -1.0012
16373SOL     OW61097   4.158   2.455   8.231  0.3184 -0.1215  0.5070
16373SOL    HW161098   4.183   2.430   8.143  1.3118 -0.3578  0.8474
16373SOL    HW261099   4.108   2.536   8.220  0.5419 -0.0855 -0.2581
16374SOL     OW61100  10.996   4.175   0.596  0.2346 -0.5850 -0.4784
16374SOL    HW161101  10.915   4.222   0.614  1.0085  0.7624 -0.3355
16374SOL    HW261102  10.974   4.083   0.607 -1.1291 -0.2106  0.1213
16375SOL     OW61103  13.769  11.733   7.868 -0.4286 -0.5798  0.5545
16375SOL    HW161104  13.805  11.714   7.954 -0.7090 -0.6624  0.6533
16375SOL    HW261105  13.842  11.719   7.807 -0.7075 -2.2611  0.5848
16376SOL     OW61106   3.873  13.619   8.356  0.3049  0.0258 -0.3699
16376SOL    HW161107   3.948  13.644   8.409  0.4592  2.0078 -1.4319
16376SOL    HW261108   3.865  13.688   8.290 -1.0037 -1.3633 -1.7836
16377SOL     OW61109  13.787   4.670   0.323  0.2265  0.0707  0.3288
16377SOL    HW161110  13.723   4.723   0.370 -0.5906  2.2070 -2.7962
16377SOL    HW261111  13.846   4.734   0.284  1.8894 -1.6420 -0.1209
16378SOL     OW61112   2.137   0.571   4.138 -0.2064  0.0285 -0.1411
16378SOL    HW161113   2.101   0.657   4.118 -1.4522 -0.8291 -1.8733
16378SOL    HW261114   2.064   0.511   4.124  1.0159 -1.4421 -0.3979
16379SOL     OW61115   1.151  13.405   5.588  0.1618 -0.3063  0.2234
16379SOL    HW161116   1.065  13.441   5.611 -0.8376 -2.4803  0.1113
16379SOL    HW261117   1.167  13.337   5.654  0.9640 -1.1413 -0.7957
16380SOL     OW61118   6.556   3.544   0.655 -0.0841  0.2482  0.2622
16380SOL    HW161119   6.625   3.598   0.619  0.0329  1.0869  1.6508
16380SOL    HW261120   6.548   3.574   0.746 -0.8021 -1.2968  0.7339
16381SOL     OW61121   5.016   6.626  11.251  0.1711 -0.0243  0.3359
16381SOL    HW161122   4.996   6.693  11.315 -0.0589  0.4649 -0.2375
16381SOL    HW261123   4.983   6.661  11.168 -0.4217 -1.0704  0.1195
16382SOL     OW61124  12.950   1.978   8.726 -0.4896 -0.0305  0.0634
16382SOL    HW161125  12.977   1.915   8.659 -1.1353 -0.9516  0.6515
16382SOL    HW261126  12.936   1.925   8.805 -0.4725  0.9356  0.7290
16383SOL     OW61127   6.896   7.196  10.299 -0.1621  0.1595 -0.1381
16383SOL    HW161128   6.856   7.283  10.303  0.2325  0.4401 -1.8607
16383SOL    HW261129   6.830   7.138  10.338 -1.0140  1.0217 -0.2616
16384SOL     OW61130  11.410   4.799   5.456 -0.1391  0.4839 -0.0199
16384SOL    HW161131  11.349   4.728   5.438  0.5309 -0.0642 -0.1956
16384SOL    HW261132  11.477   4.791   5.388 -0.2871  1.5628 -0.3054
16385SOL     OW61133  12.018   1.634  10.599 -0.3248 -0.1112 -0.5767
16385SOL    HW161134  11.997   1.560  10.656 -1.4035 -0.1714 -1.0355
16385SOL    HW261135  12.071   1.692  10.655 -1.0814 -0.3233  0.3938
16386SOL     OW61136   2.349  11.101  12.104  0.1346  0.0415  0.0179
16386SOL    HW161137   2.356  11.023  12.160 -0.0704  0.3723  0.5053
16386SOL    HW261138   2.359  11.067  12.015  2.1249 -0.3012  0.3118
16387SOL     OW61139   4.367   7.988  11.354 -0.2406  0.1053  0.8531
16387SOL    HW161140   4.331   7.901  11.373 -0.8944  0.6349  2.1484
16387SOL    HW261141   4.291   8.041  11.333  0.0814  0.5665  0.8481
16388SOL     OW61142   6.653   3.002   1.222  0.0301 -0.4482  0.0232
16388SOL    HW161143   6.630   2.999   1.129 -0.0542 -0.8068  0.0551
16388SOL    HW261144   6.722   2.936   1.232 -0.5256 -0.9857  0.3701
16389SOL     OW61145   3.434   9.672  12.467 -0.2554  0.0727  0.2250
16389SOL    HW161146   3.341   9.692  12.456 -0.0494  1.6910  1.1457
16389SOL    HW261147   3.470   9.676  12.379 -0.5600  2.2890  0.1392
16390SOL     OW61148   4.904   0.082   1.499  0.1012  0.0779  0.1638
16390SOL    HW161149   4.831   0.144   1.505  0.6091  0.6742  0.2378
16390SOL    HW261150   4.947   0.103   1.416 -0.0415 -0.5405 -0.0766
16391SOL     OW61151  13.724   0.754  11.621  0.5617 -0.1786  0.4296
16391SOL    HW161152  13.736   0.666  11.657  2.3767  0.5193  1.6882
16391SOL    HW261153  13.812   0.792  11.619 -0.1568  1.5865 -0.1611
16392SOL     OW61154   9.316  10.362   9.789 -0.3044 -0.0203  0.2029
16392SOL    HW161155   9.411  10.370   9.783 -0.2846  0.3135  0.8546
16392SOL    HW261156   9.283  10.444   9.752 -0.3007  0.3129  0.9227
16393SOL     OW61157   9.476   9.614  11.138 -0.0373 -0.0105  0.2739
16393SOL    HW161158   9.462   9.610  11.043 -1.3588 -2.2179  0.4702
16393SOL    HW261159   9.535   9.540  11.156 -1.7112 -1.1554  1.3713
16394SOL     OW61160   8.995   0.182  11.232  0.1318 -0.4698  0.1333
16394SOL    HW161161   9.087   0.182  11.256 -0.2690  1.5872  1.9975
16394SOL    HW261162   8.950   0.143  11.308 -0.6591  0.2929  0.0763
16395SOL     OW61163   6.496   9.573   4.016  0.0094  0.0887  0.3781
16395SOL    HW161164   6.401   9.561   4.015  0.1930 -1.6122  0.8127
16395SOL    HW261165   6.509   9.663   4.045 -1.4512 -0.0559  1.5637
16396SOL     OW61166  13.462   8.531   8.146  0.7790 -0.4384  0.0246
16396SOL    HW161167  13.464   8.598   8.078 -2.7983  0.5250  0.6404
16396SOL    HW261168  13.398   8.467   8.114 -1.5634  0.4111  2.5847
16397SOL     OW61169   1.739   3.941  10.453 -0.3773 -0.2821  0.2122
16397SOL    HW161170   1.721   3.950  10.360 -1.4003  0.2007  0.4444
16397SOL    HW261171   1.834   3.927  10.458  0.2479  2.7389 -0.7516
16398SOL     OW61172   8.848  10.698   7.167  0.0044  0.6181  0.1278
16398SOL    HW161173   8.868  10.790   7.183 -2.2889  1.0799  0.6584
16398SOL    HW261174   8.779  10.700   7.100 -0.1167 -0.7164  0.1877
16399SOL     OW61175   5.445   3.482  11.655  0.4976  0.2375  0.3547
16399SOL    HW161176   5.536   3.476  11.625  0.5262  1.5898  0.0918
16399SOL    HW261177   5.423   3.574  11.644 -0.6143  0.1023  1.3030
16400SOL     OW61178   0.252   2.818   8.549 -0.5100 -0.1016  0.7351
16400SOL    HW161179   0.330   2.864   8.580 -0.7785 -0.4034  1.9347
16400SOL    HW261180   0.257   2.732   8.591 -1.3960 -0.1832  0.6930
16401SOL     OW61181  11.673   9.839   5.702  0.1270 -0.6686  0.1126
16401SOL    HW161182  11.726   9.898   5.755 -0.4098 -0.6711  0.6660
16401SOL    HW261183  11.731   9.765   5.684  0.6158 -0.2403 -0.0933
16402SOL     OW61184   1.492   9.932   8.913 -0.1618 -0.1269  0.2297
16402SOL    HW161185   1.425   9.904   8.851  0.0541 -0.8711  0.3243
16402SOL    HW261186   1.461  10.016   8.946 -0.4605  0.0999 -0.6127
16403SOL     OW61187   8.657  12.866   1.032  0.1473 -0.3870  0.4501
16403SOL    HW161188   8.655  12.841   1.125  1.6764 -0.7342  0.4188
16403SOL    HW261189   8.599  12.803   0.989 -0.9341  0.0646  1.2278
16404SOL     OW61190   9.423   7.138   9.832 -0.0259  0.2053  0.4820
16404SOL    HW161191   9.487   7.071   9.858 -0.6728 -1.2119 -1.3721
16404SOL    HW261192   9.357   7.090   9.783 -1.6848  1.9024  0.9606
16405SOL     OW61193  10.213  11.526   2.454  0.4240  0.4311  0.1936
16405SOL    HW161194  10.284  11.464   2.442  0.3252  0.6133 -1.6905
16405SOL    HW261195  10.256  11.612   2.450  0.0565  0.5683 -1.8031
16406SOL     OW61196  13.778   9.540   7.765 -0.6134  0.1808  0.1036
16406SOL    HW161197  13.749   9.453   7.791  0.1334 -0.4658 -1.1478
16406SOL    HW261198  13.711   9.599   7.800 -1.3015 -0.9154  0.6806
16407SOL     OW61199   4.983  10.927  10.259  0.4247 -0.1517 -0.4098
16407SOL    HW161200   4.916  10.858  10.259 -1.2493  1.3448 -1.7974
16407SOL    HW261201   4.934  11.008  10.278  1.6124  1.1176 -2.3142
16408SOL     OW61202  11.322   4.900   4.573 -0.2363 -0.8826 -0.1646
16408SOL    HW161203  11.358   4.813   4.587 -2.2325 -1.5392  1.4435
16408SOL    HW261204  11.232   4.884   4.544 -0.7112  0.6266  0.3892
16409SOL     OW61205   0.765   2.873  12.873  0.1657 -0.7117  0.3864
16409SOL    HW161206   0.681   2.828  12.883  0.7539 -2.2112 -0.9817
16409SOL    HW261207   0.748   2.940  12.807  0.0696 -1.1534 -0.0476
16410SOL     OW61208   8.040   4.950   7.120 -0.0282  0.0445 -0.6918
16410SOL    HW161209   8.089   4.992   7.050 -0.4078 -1.1833 -1.7448
16410SOL    HW261210   8.100   4.948   7.194 -0.5480  3.9676  0.0663
16411SOL     OW61211   2.807   6.471   6.045  0.2865  0.3437 -0.4776
16411SOL    HW161212   2.751   6.398   6.020 -1.0611  0.8388  0.9494
16411SOL    HW261213   2.884   6.429   6.084 -0.6427 -0.3721  0.6936
16412SOL     OW61214   9.774   4.604   8.033  0.0975 -0.2392  0.5450
16412SOL    HW161215   9.716   4.574   7.964  0.1554  0.2933  0.2556
16412SOL    HW261216   9.857   4.623   7.989 -0.0127  0.5580  0.6680
16413SOL     OW61217   9.137   2.408  11.963  0.2645  0.7003 -0.3282
16413SOL    HW161218   9.192   2.367  11.896 -1.4113 -1.7530 -0.3120
16413SOL    HW261219   9.072   2.457  11.914 -2.5566 -3.1171 -0.8696
16414SOL     OW61220   9.368   7.765   1.080  0.4117 -0.3471 -0.1221
16414SOL    HW161221   9.352   7.843   1.028  1.2114 -0.5954 -0.7722
16414SOL    HW261222   9.372   7.694   1.016 -2.3921 -1.2934  0.6354
16415SOL     OW61223   1.940  10.020  12.553  0.1057  0.1015 -0.5438
16415SOL    HW161224   2.010  10.080  12.577 -0.8719  1.0439  0.0083
16415SOL    HW261225   1.952  10.006  12.459  2.6000 -1.8460 -0.0587
16416SOL     OW61226  11.059   6.137   9.638  0.2807  0.3699 -0.4882
16416SOL    HW161227  11.032   6.226   9.663  0.2676  0.0913  0.5324
16416SOL    HW261228  11.151   6.146   9.613  0.1808  0.7280 -0.7461
16417SOL     OW61229   6.296   9.071   8.710 -0.0308  0.1209  0.4222
16417SOL    HW161230   6.319   9.110   8.794 -0.6859  1.5293 -0.0240
16417SOL    HW261231   6.372   9.085   8.655  0.6272 -1.3140  0.9105
16418SOL     OW61232   2.728   4.989   6.441  0.1196 -0.3129  0.6138
16418SOL    HW161233   2.676   5.064   6.410  1.1363 -0.5490 -1.8661
16418SOL    HW261234   2.717   4.923   6.373  0.4664 -1.8888  2.0324
16419SOL     OW61235   1.448   2.463   8.577 -0.5496  0.2486 -0.5138
16419SOL    HW161236   1.499   2.449   8.657 -0.4581  0.2521 -0.5709
16419SOL    HW261237   1.435   2.376   8.541  1.9631  0.4076 -2.0633
16420SOL     OW61238  11.982   1.521   2.847  0.4996 -0.2673  0.2561
16420SOL    HW161239  11.958   1.606   2.811 -0.6837 -0.3673  0.7659
16420SOL    HW261240  11.978   1.532   2.942  1.8655 -0.4864  0.3600
16421SOL     OW61241   6.892  11.651   1.640 -0.0294 -0.0926  0.3127
16421SOL    HW161242   6.870  11.712   1.711  0.2206 -0.4921  0.7379
16421SOL    HW261243   6.964  11.694   1.594 -0.4884  0.3779  0.0180
16422SOL     OW61244  12.181   7.533   9.985 -0.2872 -0.2607  0.6046
16422SOL    HW161245  12.216   7.509  10.071  0.3605  0.3269  0.5187
16422SOL    HW261246  12.115   7.599  10.003 -0.2183 -0.2059  0.6538
16423SOL     OW61247   2.874  12.024   7.818 -0.3797 -0.0186  0.0905
16423SOL    HW161248   2.963  12.056   7.800  0.1454 -0.8608  1.0595
16423SOL    HW261249   2.849  11.977   7.738  0.7484 -1.2406  0.4101
16424SOL     OW61250   8.512   2.832  10.936  0.0115 -0.6780 -0.2329
16424SOL    HW161251   8.448   2.761  10.936 -1.8033  0.8841 -0.9505
16424SOL    HW261252   8.524   2.854  10.844 -0.7345  1.0093  0.0413
16425SOL     OW61253  13.487   6.172   6.805 -0.0075  0.1992 -0.2285
16425SOL    HW161254  13.519   6.245   6.858 -0.1936  0.3342 -0.3015
16425SOL    HW261255  13.486   6.206   6.715 -1.2165  0.4845 -0.1126
16426SOL     OW61256   0.682  11.432   0.960 -0.7932 -0.6877  0.0848
16426SOL    HW161257   0.645  11.494   0.898  1.2252 -0.2098 -0.7187
16426SOL    HW261258   0.650  11.347   0.931 -3.0280 -0.1413  0.7922
16427SOL     OW61259  10.174   8.524   2.235  0.4006  0.1044 -0.3565
16427SOL    HW161260  10.140   8.478   2.311 -0.0043  1.4200  0.2938
16427SOL    HW261261  10.153   8.616   2.251  2.3679  0.7013 -0.9719
16428SOL     OW61262  12.282   8.169  13.293  0.1267 -0.3362  0.1954
16428SOL    HW161263  12.341   8.176  13.218  0.3145 -0.3316  0.3452
16428SOL    HW261264  12.196   8.156  13.254  0.2004 -0.1723 -0.0257
16429SOL     OW61265  13.437  13.437   4.535  0.7537  0.3252  0.2117
16429SOL    HW161266  13.452  13.502   4.604  0.7648  0.1769  0.3485
16429SOL    HW261267  13.351  13.401   4.555  0.0223  1.4224 -0.7677
16430SOL     OW61268   5.304   8.523  13.019 -0.0786 -0.1561  0.0911
16430SOL    HW161269   5.265   8.466  13.086 -0.3912 -1.1988 -0.9340
16430SOL    HW261270   5.248   8.601  13.019  0.3429  0.1726  1.5081
16431SOL     OW61271   9.104   5.733  10.504 -0.1487  0.1476 -0.1972
16431SOL    HW161272   9.081   5.641  10.518  2.4237 -0.7237 -1.1348
16431SOL    HW261273   9.068   5.754  10.418 -0.3877 -0.1056 -0.1611
16432SOL     OW61274  11.976   9.565   7.308  0.2303  0.0073  0.0714
16432SOL    HW161275  11.943   9.477   7.328  1.8443 -0.9350 -1.1380
16432SOL    HW261276  12.050   9.577   7.368 -0.5588  0.9494  0.8749
16433SOL     OW61277  11.352  12.446   6.938  0.1701  0.2560 -0.1070
16433SOL    HW161278  11.345  12.542   6.942 -0.1869  0.2171  0.3005
16433SOL    HW261279  11.304  12.416   7.015 -0.0815 -0.2676 -0.4657
16434SOL     OW61280   7.328  11.284  13.519 -0.0811  0.1763  0.1609
16434SOL    HW161281   7.300  11.194  13.535 -0.1452 -0.0011 -0.8683
16434SOL    HW261282   7.367  11.281  13.431 -1.7732  1.5146 -0.6861
16435SOL     OW61283  12.591  10.441  13.316  0.0338 -0.4480 -0.0791
16435SOL    HW161284  12.569  10.381  13.246 -0.7920  0.9007 -1.0270
16435SOL    HW261285  12.517  10.437  13.376 -0.6639  0.5920 -0.8408
16436SOL     OW61286   2.154   8.837  10.100  0.3144  0.0731 -0.3400
16436SOL    HW161287   2.074   8.872  10.140 -0.3363 -0.1548 -1.3939
16436SOL    HW261288   2.194   8.913  10.057  0.0462 -0.0423 -0.7963
16437SOL     OW61289   9.940   9.919   7.118  0.1349  0.0737  0.2235
16437SOL    HW161290  10.026   9.943   7.150 -0.2555  1.4297  0.3059
16437SOL    HW261291   9.883   9.992   7.144 -0.3420  0.9741 -2.9774
16438SOL     OW61292   8.799  13.879   3.076 -0.1437  0.0855  0.1568
16438SOL    HW161293   8.829  13.936   3.006  2.2702 -0.7935  0.3899
16438SOL    HW261294   8.757  13.938   3.139  0.9117  1.3868 -0.3224
16439SOL     OW61295  12.483   7.733   6.120  0.3153 -0.2011 -0.7512
16439SOL    HW161296  12.516   7.670   6.055 -0.3578 -2.8926  1.3442
16439SOL    HW261297  12.561   7.779   6.150  1.3802 -2.1791 -0.2582
16440SOL     OW61298  10.701   5.547  13.096  0.2868  0.2051  0.0564
16440SOL    HW161299  10.654   5.466  13.114 -0.0927  0.8096  2.1295
16440SOL    HW261300  10.632   5.611  13.078  0.4744  0.4562  0.2264
16441SOL     OW61301   1.778   6.268   3.218 -0.1947 -0.3930 -0.0936
16441SOL    HW161302   1.742   6.235   3.135 -0.9084 -0.7463  0.3462
16441SOL    HW261303   1.825   6.193   3.254 -0.6769 -0.5285  0.2632
16442SOL     OW61304  12.584  10.796   2.638 -0.2414  0.2866 -0.1211
16442SOL    HW161305  12.507  10.762   2.684 -0.2671  0.9334  0.3215
16442SOL    HW261306  12.619  10.720   2.591 -0.9305 -0.0971 -0.0272
16443SOL     OW61307  13.998   9.196   8.722 -0.1522 -0.0826 -0.7260
16443SOL    HW161308  14.038   9.281   8.743 -2.0915  1.1703 -1.7995
16443SOL    HW261309  14.051   9.132   8.769  0.7350  1.8167  0.9982
16444SOL     OW61310  10.834   4.227   4.216  0.1891 -0.2384 -0.0340
16444SOL    HW161311  10.806   4.145   4.175  0.3758  0.2047 -1.0727
16444SOL    HW261312  10.755   4.281   4.219 -0.1028 -0.6917  1.3006
16445SOL     OW61313   6.480   6.577   2.744  0.6399  0.1676 -0.1160
16445SOL    HW161314   6.571   6.589   2.716  0.3791  1.9449 -0.3015
16445SOL    HW261315   6.441   6.523   2.676  0.6986  2.2418 -1.8934
16446SOL     OW61316   1.626   4.752  12.129  0.2633  0.0782  0.0547
16446SOL    HW161317   1.605   4.736  12.221  0.3126 -0.5185 -0.0345
16446SOL    HW261318   1.641   4.665  12.092  2.6377  0.4302  0.0413
16447SOL     OW61319   2.741  13.437   6.035  1.1300  0.1401  0.3519
16447SOL    HW161320   2.793  13.426   5.956  3.8372  0.7557  1.9370
16447SOL    HW261321   2.737  13.532   6.049  0.0947  0.0714  0.6010
16448SOL     OW61322  12.766   0.202   5.303  0.6365  0.0045 -0.3319
16448SOL    HW161323  12.711   0.145   5.248 -0.9765 -0.2945  1.4790
16448SOL    HW261324  12.704   0.259   5.347  1.7010 -0.6175  2.1200
16449SOL     OW61325  10.175   5.612  12.545 -0.5456 -0.5895 -0.6403
16449SOL    HW161326  10.140   5.541  12.599  0.7797 -1.1543 -0.4894
16449SOL    HW261327  10.202   5.679  12.608 -1.3380 -0.1542 -0.7559
16450SOL     OW61328  13.643   8.641   1.963 -0.3383  0.2972 -0.4901
16450SOL    HW161329  13.724   8.658   1.916 -0.2404 -1.7698 -1.1601
16450SOL    HW261330  13.575   8.685   1.912  0.3388  2.3678  0.2829
16451SOL     OW61331   8.018   4.503   6.272  0.4558 -0.8373  0.3000
16451SOL    HW161332   7.991   4.586   6.311  1.0518 -0.2478 -0.4988
16451SOL    HW261333   7.947   4.482   6.211  0.7355 -0.4314 -0.1722
16452SOL     OW61334   4.450  12.012   2.777 -0.0077  0.2591 -0.0016
16452SOL    HW161335   4.499  11.951   2.721 -1.7596 -1.0471 -0.1896
16452SOL    HW261336   4.406  11.956   2.840 -0.8708  1.4289  0.4745
16453SOL     OW61337   0.608   7.976   5.448 -0.1954 -0.1466 -0.4133
16453SOL    HW161338   0.694   8.005   5.479 -0.2526 -1.0231  0.6086
16453SOL    HW261339   0.546   8.028   5.500 -0.3584  2.1160 -2.6718
16454SOL     OW61340   4.353  13.404   2.476 -0.3318 -0.0540  0.4370
16454SOL    HW161341   4.317  13.438   2.558 -1.1334 -0.9441  0.4746
16454SOL    HW261342   4.329  13.470   2.411  0.7215  0.8922  0.9753
16455SOL     OW61343  12.160   5.505  10.931  0.0553 -0.1665  0.0933
16455SOL    HW161344  12.209   5.581  10.961 -1.0886  1.5801 -2.2285
16455SOL    HW261345  12.223   5.433  10.934  1.7889  1.3001  0.3264
16456SOL     OW61346   4.028   1.606   3.672  1.0747  0.4834 -0.0356
16456SOL    HW161347   3.959   1.572   3.729  1.6058 -0.0339  0.3182
16456SOL    HW261348   4.104   1.550   3.691  2.0781  2.0628  0.7910
16457SOL     OW61349   6.768  12.081   6.462 -0.2612  0.1182  0.7296
16457SOL    HW161350   6.705  12.145   6.496  0.1553  0.0848  1.5828
16457SOL    HW261351   6.735  11.996   6.491  0.5926  0.1618  1.8708
16458SOL     OW61352   8.310   4.953   0.155 -0.4559  0.1605  0.1825
16458SOL    HW161353   8.274   4.908   0.079 -0.6674  0.0055  0.3714
16458SOL    HW261354   8.247   5.023   0.173 -1.3670 -0.8859  1.2872
16459SOL     OW61355  10.208   7.278  12.261  0.1906  0.6090 -0.0441
16459SOL    HW161356  10.155   7.322  12.194  1.1570  0.7566 -0.7393
16459SOL    HW261357  10.232   7.347  12.323  1.2004  0.9699 -0.8063
16460SOL     OW61358   7.783  12.719   3.668  0.9936  0.0634 -0.2437
16460SOL    HW161359   7.720  12.659   3.709 -0.6750  2.0994  0.3925
16460SOL    HW261360   7.792  12.791   3.731  1.3931  1.4155 -1.7724
16461SOL     OW61361  13.988  10.397   4.883  0.3598 -0.5255 -0.1559
16461SOL    HW161362  13.900  10.427   4.858  0.5945  2.4294  1.9346
16461SOL    HW261363  14.041  10.408   4.804 -0.3647  1.6105 -0.4302
16462SOL     OW61364  13.017   9.664   1.866 -0.3188 -0.5370  0.6774
16462SOL    HW161365  13.078   9.644   1.937  0.0182 -1.8475  0.0589
16462SOL    HW261366  13.033   9.595   1.801 -1.2914  0.0728 -0.2390
16463SOL     OW61367  12.771   4.118   8.709  0.1298 -0.1731  1.0217
16463SOL    HW161368  12.710   4.139   8.638  0.9278 -0.6530  0.1824
16463SOL    HW261369  12.736   4.036   8.746  0.1163 -0.3143  0.7032
16464SOL     OW61370  12.608   2.749  13.088  0.0671 -0.1925 -0.1415
16464SOL    HW161371  12.516   2.745  13.061  0.5656 -0.1681 -2.0199
16464SOL    HW261372  12.644   2.823  13.039  0.8871  0.4172  1.3194
16465SOL     OW61373   6.855   5.344   7.187  0.6447  0.4888  0.2865
16465SOL    HW161374   6.932   5.374   7.235 -0.5338  1.8735  1.4027
16465SOL    HW261375   6.796   5.311   7.255 -0.9784  2.3080 -0.1563
16466SOL     OW61376  10.503   5.208   7.861 -0.0569  0.4101 -0.2073
16466SOL    HW161377  10.599   5.209   7.866 -0.0079 -0.8133 -0.3835
16466SOL    HW261378  10.483   5.127   7.813 -1.2682 -2.0418  3.8794
16467SOL     OW61379   4.785  13.455   8.587 -0.1722 -0.3526  0.8433
16467SOL    HW161380   4.781  13.360   8.585  0.0310 -0.3558  0.4193
16467SOL    HW261381   4.694  13.484   8.576  0.0073 -0.4814 -1.2895
16468SOL     OW61382   7.784   8.640   1.394  0.2666 -0.2512 -0.0580
16468SOL    HW161383   7.879   8.624   1.394  0.3971  0.4518 -0.6319
16468SOL    HW261384   7.776   8.735   1.379 -0.5434 -0.4013 -0.6298
16469SOL     OW61385  14.028  13.792   1.025  0.3494 -0.2454 -0.4817
16469SOL    HW161386  14.110  13.808   0.979 -0.2001  1.8115 -0.8778
16469SOL    HW261387  13.996  13.880   1.048 -0.4308 -1.0968  2.0235
16470SOL     OW61388  12.477   5.002   8.777  0.4465 -0.3804  0.3033
16470SOL    HW161389  12.423   5.076   8.750  1.7572 -0.5176 -3.2353
16470SOL    HW261390  12.415   4.932   8.795 -0.7299  1.0215  1.9232
16471SOL     OW61391   6.484  13.047   3.871 -0.2699  0.1236 -0.1600
16471SOL    HW161392   6.429  13.023   3.796  0.4624 -1.3027 -0.2870
16471SOL    HW261393   6.494  13.142   3.864  0.6415 -0.0680 -2.5069
16472SOL     OW61394  13.919  10.565   9.662  0.1147 -0.1949 -0.1804
16472SOL    HW161395  13.988  10.504   9.636  0.5741  0.7864 -1.3948
16472SOL    HW261396  13.942  10.592   9.751  0.9031 -0.4165 -0.3155
16473SOL     OW61397   9.707   0.744   1.029 -0.1454 -0.1376 -0.3046
16473SOL    HW161398   9.655   0.762   0.950  0.1485  2.7025  0.0445
16473SOL    HW261399   9.797   0.757   1.001  0.1104 -0.9718  0.0949
16474SOL     OW61400   8.250   2.377   3.681  0.5239  0.0017 -0.5135
16474SOL    HW161401   8.159   2.370   3.652  0.2741  1.2598 -0.1330
16474SOL    HW261402   8.300   2.388   3.600  0.3247 -0.5797 -0.7166
16475SOL     OW61403   2.484   7.472   2.378 -0.1691 -0.4859 -0.2554
16475SOL    HW161404   2.545   7.440   2.445  1.3258  1.9705 -0.3315
16475SOL    HW261405   2.401   7.481   2.425  0.8807  1.3701  1.4448
16476SOL     OW61406   4.904   9.717   0.258 -0.1414  0.2149 -0.3401
16476SOL    HW161407   4.990   9.684   0.235  0.0274  0.7281 -0.4602
16476SOL    HW261408   4.867   9.749   0.175 -0.7549 -0.6798 -0.4296
16477SOL     OW61409  12.915  13.018  11.225 -0.2815 -0.4058 -0.2207
16477SOL    HW161410  12.892  12.960  11.153  0.5263 -1.1655  0.1210
16477SOL    HW261411  12.968  12.964  11.284 -0.4569  0.3580  0.6645
16478SOL     OW61412   4.565   7.723   0.586 -0.3991 -0.2555  0.5970
16478SOL    HW161413   4.578   7.654   0.521 -0.4883 -0.2117  0.5325
16478SOL    HW261414   4.592   7.803   0.542 -1.4238 -0.0821  0.2687
16479SOL     OW61415   3.002  12.900   7.747  0.4006 -0.0959 -0.1760
16479SOL    HW161416   3.051  12.847   7.810 -0.2533 -0.6706 -0.1406
16479SOL    HW261417   3.067  12.925   7.681  0.7779 -0.7231 -0.0471
16480SOL     OW61418   6.089   3.405  13.673  0.5174 -0.4987  0.3052
16480SOL    HW161419   6.120   3.365  13.754  2.4781 -0.9309 -0.6226
16480SOL    HW261420   6.089   3.335  13.609  0.2124  0.1199 -0.3947
16481SOL     OW61421   5.714  13.854   6.460 -0.4309  0.6319 -0.2142
16481SOL    HW161422   5.719  13.946   6.484 -1.3946  0.5014  0.5299
16481SOL    HW261423   5.622  13.840   6.438 -0.5065 -0.3965  0.6948
16482SOL     OW61424  11.050   0.664  11.924  0.3349  0.1571 -0.1665
16482SOL    HW161425  10.961   0.630  11.934  1.0418 -1.8523 -0.3808
16482SOL    HW261426  11.092   0.604  11.863  2.4880 -0.2764  1.6064
16483SOL     OW61427   3.530   8.711  12.549 -0.4204 -0.1791 -0.1913
16483SOL    HW161428   3.599   8.776  12.534 -1.1235  0.4664 -0.8038
16483SOL    HW261429   3.458   8.740  12.492 -0.3918 -2.0875 -1.2785
16484SOL     OW61430   5.671   6.629   8.237 -0.0020  0.1999  0.1467
16484SOL    HW161431   5.614   6.589   8.171 -0.0660 -1.3807  1.1148
16484SOL    HW261432   5.631   6.606   8.321  1.2967  0.2312  0.8044
16485SOL     OW61433   3.088   5.467  13.908  0.0458 -0.3885 -0.5201
16485SOL    HW161434   3.049   5.441  13.825  0.1370  0.8314 -0.9681
16485SOL    HW261435   3.015   5.506  13.957  0.4989  1.1803 -1.0474
16486SOL     OW61436   8.841   0.141   7.798  0.0111 -0.5190 -0.1509
16486SOL    HW161437   8.850   0.232   7.828 -1.4552 -0.6040  0.6397
16486SOL    HW261438   8.883   0.141   7.711  0.6415  0.7377  0.1167
16487SOL     OW61439   1.653   1.236   6.260 -0.1234  0.2849 -0.2836
16487SOL    HW161440   1.715   1.222   6.189 -0.7613 -2.1439 -0.4560
16487SOL    HW261441   1.591   1.300   6.226  2.0345  2.5781 -0.2009
16488SOL     OW61442  12.507   2.215  12.698 -0.2294 -0.1642  0.4049
16488SOL    HW161443  12.493   2.159  12.622 -1.3935 -2.7686  2.3613
16488SOL    HW261444  12.556   2.160  12.759  1.2617  2.0636  1.3447
16489SOL     OW61445   2.656   7.760   6.394  0.0474 -0.6150  0.0981
16489SOL    HW161446   2.728   7.735   6.336 -0.8603  1.0138 -1.8538
16489SOL    HW261447   2.590   7.692   6.381 -1.2463  1.0291 -2.9902
16490SOL     OW61448   0.181  10.791  12.659 -0.6266  0.6867 -0.2097
16490SOL    HW161449   0.125  10.714  12.669  1.7380 -1.0673  0.3159
16490SOL    HW261450   0.209  10.812  12.748 -0.3618  1.4967 -0.4736
16491SOL     OW61451   5.488  12.381   6.874  0.3320  0.0435  0.0561
16491SOL    HW161452   5.504  12.341   6.788  1.7085 -1.3422  0.8870
16491SOL    HW261453   5.394  12.396   6.877 -0.0048 -1.6173 -0.9833
16492SOL     OW61454  11.501  12.722   3.095 -0.5358  0.3429 -0.1343
16492SOL    HW161455  11.543  12.656   3.151  0.6819 -0.4279 -1.8732
16492SOL    HW261456  11.559  12.729   3.019 -0.6018  3.4751 -0.0040
16493SOL     OW61457   9.006   0.911   6.033 -0.2040  0.0058  0.1706
16493SOL    HW161458   9.063   0.860   6.091  2.1642  1.0729 -1.1201
16493SOL    HW261459   9.027   0.881   5.945 -2.7060 -0.5394 -0.3301
16494SOL     OW61460   0.482   3.203  12.240  0.3174 -0.7070 -0.0936
16494SOL    HW161461   0.394   3.219  12.274  0.3970 -0.0522 -0.1718
16494SOL    HW261462   0.470   3.198  12.145  0.5343  0.7843 -0.2326
16495SOL     OW61463   1.719  11.239   6.002  0.1600  0.0488  0.2766
16495SOL    HW161464   1.730  11.226   6.096  2.8720  1.8452  0.3303
16495SOL    HW261465   1.807  11.225   5.966 -0.8918 -0.9879 -2.0892
16496SOL     OW61466   8.948   4.809   3.659  0.0194 -0.3834  0.2892
16496SOL    HW161467   9.002   4.780   3.586 -1.6301 -0.1222 -1.0761
16496SOL    HW261468   8.858   4.801   3.628 -0.7234  0.0240  2.1881
16497SOL     OW61469   2.733   9.780   0.606 -0.2721  0.0162  0.1939
16497SOL    HW161470   2.718   9.831   0.686  0.6030  0.3068  0.1898
16497SOL    HW261471   2.668   9.812   0.544 -1.0119 -0.2644  0.8053
16498SOL     OW61472  12.047   6.680  13.685 -0.1590 -0.4716 -0.0638
16498SOL    HW161473  12.104   6.749  13.650 -0.6682 -0.2396 -0.4396
16498SOL    HW261474  11.959   6.718  13.684 -0.2101 -0.4944  1.3782
16499SOL     OW61475   5.779   7.382   4.784  0.5271 -0.1072  0.0632
16499SOL    HW161476   5.709   7.370   4.847  1.6658 -2.3785  1.0083
16499SOL    HW261477   5.810   7.293   4.765  2.0887  0.7110 -1.5364
16500SOL     OW61478   4.537   5.406   3.975 -0.6380  0.5381  0.1031
16500SOL    HW161479   4.519   5.434   3.885 -0.6065 -0.2508 -0.1618
16500SOL    HW261480   4.450   5.390   4.013 -0.6544 -2.3668 -0.8795
16501SOL     OW61481   9.026   9.645   3.165 -0.2439  0.1350 -0.4252
16501SOL    HW161482   8.993   9.734   3.154 -0.8789 -0.1443 -0.8419
16501SOL    HW261483   9.089   9.633   3.095 -1.6411 -0.4155 -1.6389
16502SOL     OW61484   3.019  13.406   8.853 -0.5382 -0.1820  0.0291
16502SOL    HW161485   3.094  13.446   8.897 -1.2226  0.8726  0.2938
16502SOL    HW261486   3.042  13.406   8.760 -0.7249  1.3375 -0.0358
16503SOL     OW61487  10.233   5.958   2.176  0.6032  0.3556  0.4719
16503SOL    HW161488  10.222   5.876   2.128  1.1779  0.6484 -0.1717
16503SOL    HW261489  10.285   6.013   2.118 -1.5667  1.9905 -0.0760
16504SOL     OW61490  10.814   7.171   7.725  0.5591 -0.5335  0.7637
16504SOL    HW161491  10.811   7.267   7.722  1.0534 -0.5387 -0.3339
16504SOL    HW261492  10.754   7.143   7.656  1.0091 -0.9971  0.5499
16505SOL     OW61493  13.043   2.890   8.447  0.1380 -0.4104 -0.0694
16505SOL    HW161494  13.046   2.807   8.495 -0.1740 -0.8935 -0.8741
16505SOL    HW261495  13.032   2.956   8.515 -2.1897 -1.2240  0.4376
16506SOL     OW61496   5.965   4.278  11.927  0.5586  0.2145  0.0412
16506SOL    HW161497   6.049   4.246  11.960 -1.0385 -1.9221  2.4147
16506SOL    HW261498   5.954   4.233  11.843 -0.6800 -4.4518  2.3364
16507SOL     OW61499   1.561   0.626   4.552  0.0288 -0.1375 -0.6351
16507SOL    HW161500   1.484   0.644   4.606 -0.5268 -1.9731 -0.7670
16507SOL    HW261501   1.535   0.552   4.497  1.1697  0.5981 -2.2205
16508SOL     OW61502   7.854  12.787  12.994  0.0875 -0.2003 -0.3274
16508SOL    HW161503   7.884  12.810  13.082 -0.2580 -1.7529  0.2417
16508SOL    HW261504   7.921  12.820  12.935  1.1687 -0.5800  0.6578
16509SOL     OW61505   0.377   5.387  12.892 -0.2438 -0.8343 -0.0765
16509SOL    HW161506   0.448   5.447  12.915 -0.8821 -0.4961  1.0903
16509SOL    HW261507   0.301   5.420  12.939 -0.8377 -2.0395 -0.1363
16510SOL     OW61508  11.879   1.266   6.796 -0.7284  0.3250 -0.2375
16510SOL    HW161509  11.931   1.344   6.776  0.6215 -0.6886 -0.8968
16510SOL    HW261510  11.790   1.299   6.809  0.0266  2.1282  0.8194
16511SOL     OW61511   6.352   5.005   5.030  0.0015 -0.2208  0.3204
16511SOL    HW161512   6.278   5.060   5.004 -0.1705  0.5794  2.3638
16511SOL    HW261513   6.323   4.916   5.010 -1.5452  0.0746  1.0867
16512SOL     OW61514   9.409   0.456   5.615 -0.1378  0.5717 -0.1412
16512SOL    HW161515   9.485   0.507   5.588  0.1385 -1.0339 -2.8218
16512SOL    HW261516   9.443   0.367   5.627 -1.2725  0.1833  0.3520
16513SOL     OW61517  12.829   6.562  13.290  0.1676  0.4427 -0.1630
16513SOL    HW161518  12.825   6.503  13.366 -0.5994  0.9438  0.1966
16513SOL    HW261519  12.752   6.538  13.238  0.3226  0.5589 -0.4429
16514SOL     OW61520  14.035   6.604   8.963  0.0595 -0.3650  0.0172
16514SOL    HW161521  14.124   6.587   8.996  1.2697  2.8596 -1.1491
16514SOL    HW261522  13.999   6.668   9.023 -0.5972  0.0272 -0.7784
16515SOL     OW61523  11.861   3.592   8.591 -0.0955 -0.3486  0.1593
16515SOL    HW161524  11.950   3.561   8.575  0.2050  0.5887 -0.0733
16515SOL    HW261525  11.844   3.653   8.519  0.1322  1.5882  1.6385
16516SOL     OW61526   1.266   8.827   8.372 -0.4949  0.6524 -0.1383
16516SOL    HW161527   1.185   8.833   8.320 -0.7153 -1.8485 -0.1816
16516SOL    HW261528   1.323   8.770   8.321  0.1198 -0.0930  1.3460
16517SOL     OW61529  11.792   0.925  13.726  0.0331 -0.5373 -0.1611
16517SOL    HW161530  11.764   0.897  13.638  0.1318 -0.3639 -0.2482
16517SOL    HW261531  11.876   0.968  13.712 -0.8737  1.3267 -0.2873
16518SOL     OW61532   0.586  13.014  11.022 -0.6540 -0.0696 -0.1606
16518SOL    HW161533   0.590  13.054  11.109 -0.2127  0.7279 -0.5306
16518SOL    HW261534   0.597  12.920  11.037  0.2839  0.1501  0.5766
16519SOL     OW61535   1.696   5.864  12.336  0.4470  0.2615  0.1833
16519SOL    HW161536   1.645   5.784  12.345  0.2574  0.4660  0.9866
16519SOL    HW261537   1.753   5.865  12.412  0.6178  0.7679  0.0526
16520SOL     OW61538  11.334  10.820  12.851 -0.4019 -0.1340  0.6059
16520SOL    HW161539  11.250  10.865  12.862 -0.9111 -0.6446 -0.9520
16520SOL    HW261540  11.364  10.803  12.941 -1.4601  0.9600  1.1975
16521SOL     OW61541   4.680   4.424  13.630  0.1690 -0.1536 -0.0389
16521SOL    HW161542   4.643   4.400  13.716  0.0388  2.6763  0.8094
16521SOL    HW261543   4.603   4.439  13.575  0.1667  0.5154  0.1361
16522SOL     OW61544  10.014  12.688   7.614  0.1538 -0.0559 -0.3218
16522SOL    HW161545   9.919  12.682   7.602  0.1809  0.3346 -0.7814
16522SOL    HW261546  10.035  12.617   7.674 -0.6194  0.6720  0.8517
16523SOL     OW61547  12.786   9.301   3.184  0.0454 -0.0081  0.0210
16523SOL    HW161548  12.789   9.236   3.255  2.7689  0.4332  0.3907
16523SOL    HW261549  12.874   9.302   3.148 -0.8685  0.9116 -2.4143
16524SOL     OW61550   2.909   2.050  11.314 -0.5292 -0.3579 -0.1046
16524SOL    HW161551   2.951   1.971  11.279 -0.0012  0.1719 -0.6975
16524SOL    HW261552   2.839   2.017  11.370 -0.1739 -1.2497 -0.1645
16525SOL     OW61553   0.110   8.151   5.866 -0.8163 -0.0031 -0.7312
16525SOL    HW161554   0.143   8.072   5.908 -0.1299 -0.1118 -1.4374
16525SOL    HW261555   0.086   8.123   5.777 -0.9785  0.4909 -0.8466
16526SOL     OW61556   3.985   1.190   2.321 -0.3385 -0.0816 -0.3857
16526SOL    HW161557   4.070   1.145   2.318 -0.6614 -0.8114  0.6402
16526SOL    HW261558   3.929   1.139   2.261 -0.0194  0.4961 -1.1858
16527SOL     OW61559  12.206   5.828  10.141  0.2715 -0.0739 -0.0183
16527SOL    HW161560  12.294   5.866  10.136  0.2088 -0.0351 -1.0926
16527SOL    HW261561  12.196   5.804  10.233  0.6200  1.7856  0.5569
16528SOL     OW61562   1.662   6.835   2.812 -0.2953  0.5142  0.0512
16528SOL    HW161563   1.738   6.802   2.764 -0.6830  1.1242 -1.0098
16528SOL    HW261564   1.591   6.775   2.789 -0.3589  0.4974  0.2906
16529SOL     OW61565  13.530   7.809  12.211 -0.3947  0.3787 -0.2737
16529SOL    HW161566  13.446   7.776  12.242  0.4887 -1.1544  0.5795
16529SOL    HW261567  13.545   7.889  12.261  0.1463 -1.0775  2.0395
16530SOL     OW61568  12.125   4.624   1.330 -0.0952  0.1073 -0.0688
16530SOL    HW161569  12.121   4.594   1.239 -0.7799  3.5052 -1.2827
16530SOL    HW261570  12.136   4.543   1.380  0.6495 -1.8947 -3.1399
16531SOL     OW61571   6.524   0.694   8.235 -0.6032  0.3967 -0.5235
16531SOL    HW161572   6.519   0.601   8.258  0.8924  0.3333 -0.3109
16531SOL    HW261573   6.618   0.715   8.241 -0.6888  1.4843 -2.2661
16532SOL     OW61574   3.782   2.733  11.133 -0.6117  0.3248 -0.0398
16532SOL    HW161575   3.700   2.686  11.124 -0.5874  0.1301  0.7128
16532SOL    HW261576   3.761   2.810  11.185 -0.4056  0.5192 -0.2362
16533SOL     OW61577   4.157   2.291   4.236  0.0394  0.8361 -0.0385
16533SOL    HW161578   4.076   2.341   4.227  0.3243  1.0585 -1.8384
16533SOL    HW261579   4.132   2.201   4.213  0.3328  0.9669 -0.9335
16534SOL     OW61580   8.617   1.809  12.649  0.0852  0.1952 -0.5901
16534SOL    HW161581   8.706   1.794  12.617  0.3333  0.5060 -0.0726
16534SOL    HW261582   8.595   1.729  12.697  0.7077  0.7200  0.6248
16535SOL     OW61583   1.144  13.398   9.608  0.1675  0.4292  0.4366
16535SOL    HW161584   1.146  13.435   9.696  1.2867  1.9748 -0.1986
16535SOL    HW261585   1.228  13.352   9.599 -1.0593 -2.1650  1.0988
16536SOL     OW61586   7.742   8.354  10.615  0.0751  0.3497  0.1544
16536SOL    HW161587   7.781   8.356  10.703 -0.8641  0.0419  0.5822
16536SOL    HW261588   7.735   8.261  10.594  1.8581  0.4099 -0.9769
16537SOL     OW61589  12.160   5.594   2.302 -0.0978 -0.5286  0.2258
16537SOL    HW161590  12.164   5.534   2.227 -1.8307 -1.5184  0.8683
16537SOL    HW261591  12.068   5.624   2.304  0.7909  2.6660 -0.4128
16538SOL     OW61592   1.451  12.374   3.317  0.0516  0.3314  0.5370
16538SOL    HW161593   1.386  12.398   3.251 -0.0511 -0.7954  0.2020
16538SOL    HW261594   1.435  12.281   3.334  0.8553  0.3118  1.2684
16539SOL     OW61595   8.054   2.244  11.522 -0.3763  0.3381  0.2001
16539SOL    HW161596   7.966   2.258  11.559 -0.0770  0.7401  0.7778
16539SOL    HW261597   8.093   2.332  11.521 -1.1079  0.7558 -3.0479
16540SOL     OW61598  10.424   3.519   4.656  0.2090 -0.1246 -0.4336
16540SOL    HW161599  10.468   3.468   4.588  0.4600  0.8771 -1.0575
16540SOL    HW261600  10.349   3.559   4.611 -0.8499 -1.0855  0.3955
16541SOL     OW61601   5.077  11.013  13.290  0.3046  0.1519 -0.0361
16541SOL    HW161602   5.144  10.949  13.312  1.2876  1.0656 -0.2655
16541SOL    HW261603   5.123  11.080  13.239 -0.8784  0.5879 -0.5805
16542SOL     OW61604   1.303   1.040   6.021 -0.1192  0.0927 -0.8802
16542SOL    HW161605   1.278   0.950   6.041 -0.8177  0.2277 -1.1385
16542SOL    HW261606   1.391   1.032   5.985  0.7032 -0.2787  1.0414
16543SOL     OW61607   2.321  11.842   1.780  0.2088 -0.1546 -0.3226
16543SOL    HW161608   2.270  11.922   1.766 -0.2804 -0.3636  0.2357
16543SOL    HW261609   2.319  11.828   1.875  1.6209  0.0369 -0.2421
16544SOL     OW61610   1.452   0.317   8.860 -0.4997 -0.1356  0.1785
16544SOL    HW161611   1.470   0.281   8.947  1.8803 -1.0833 -0.6126
16544SOL    HW261612   1.459   0.241   8.801 -1.5906  0.5781 -0.9178
16545SOL     OW61613   5.449   0.791   4.712 -0.1421 -0.4778 -0.5547
16545SOL    HW161614   5.461   0.855   4.783 -1.0215  0.1507 -0.9577
16545SOL    HW261615   5.354   0.777   4.709 -0.0355 -1.0972 -1.0903
16546SOL     OW61616   6.168   8.841  12.774 -0.5126  0.0691  0.6826
16546SOL    HW161617   6.259   8.864  12.788 -1.0527  1.8733  1.4634
16546SOL    HW261618   6.119   8.893  12.838 -2.1463 -0.3063 -0.1876
16547SOL     OW61619   1.000  13.924  11.429  0.0701 -0.0164 -0.1485
16547SOL    HW161620   0.988  14.006  11.477 -0.2423 -0.4384  0.4925
16547SOL    HW261621   1.032  13.862  11.494 -2.6301 -1.2451  0.1007
16548SOL     OW61622   0.682   5.491   4.227 -0.1230 -0.1261  0.0682
16548SOL    HW161623   0.754   5.555   4.221  1.9910 -2.4511 -2.8299
16548SOL    HW261624   0.719   5.418   4.276 -0.6506 -1.1220 -0.9575
16549SOL     OW61625  13.326   5.298  10.464  0.2610  0.5944 -0.7561
16549SOL    HW161626  13.273   5.349  10.403  0.7439  1.0331 -0.8253
16549SOL    HW261627  13.409   5.285  10.418  0.0232 -0.5646 -0.8749
16550SOL     OW61628   4.017   0.819   4.303  0.0201  0.1038 -0.5844
16550SOL    HW161629   4.001   0.753   4.235  1.4075 -0.8565 -0.0207
16550SOL    HW261630   3.933   0.826   4.349 -0.3084 -0.8715 -1.0033
16551SOL     OW61631   1.669   5.256   6.580 -0.3128  0.2711  0.0421
16551SOL    HW161632   1.601   5.324   6.587  1.1389  1.6171  2.1807
16551SOL    HW261633   1.626   5.176   6.611 -1.0545  1.0358  1.0768
16552SOL     OW61634   0.201   3.888   9.896  0.2522  0.1049 -0.4147
16552SOL    HW161635   0.290   3.918   9.876  0.5180 -1.2800 -1.4716
16552SOL    HW261636   0.171   3.845   9.816 -0.9404 -0.4461  0.2881
16553SOL     OW61637   6.414  10.746   7.969 -0.3521  0.2301 -0.3411
16553SOL    HW161638   6.453  10.715   8.052 -1.8793  0.1520  0.3730
16553SOL    HW261639   6.456  10.830   7.953  0.0791  0.1710  0.4187
16554SOL     OW61640   1.832   7.159  11.726 -0.4173 -0.2903 -0.6464
16554SOL    HW161641   1.891   7.107  11.780  1.2439  0.1571 -1.9381
16554SOL    HW261642   1.764   7.098  11.698  0.1300 -1.1477 -0.1540
16555SOL     OW61643  12.520   8.225   8.059 -0.0092 -0.2461 -0.7184
16555SOL    HW161644  12.511   8.133   8.033 -1.4068 -0.3763  0.0973
16555SOL    HW261645  12.430   8.259   8.056  0.5046  1.1227 -1.0758
16556SOL     OW61646   4.948  10.379   5.825  0.1128  0.0147 -0.0384
16556SOL    HW161647   4.887  10.400   5.755 -1.3413 -0.6583  0.9656
16556SOL    HW261648   5.033  10.409   5.793 -0.8333  1.5661 -1.2254
16557SOL     OW61649  11.079   9.966   2.774  0.9072  0.6277  0.3589
16557SOL    HW161650  11.097   9.938   2.685 -0.3971 -1.4524  0.6775
16557SOL    HW261651  11.161  10.004   2.805  1.7992  0.0649 -1.2394
16558SOL     OW61652  13.451  12.354  12.324  0.5207 -0.1017  0.1022
16558SOL    HW161653  13.374  12.359  12.268  0.7917  0.6377 -0.2148
16558SOL    HW261654  13.504  12.283  12.288  0.2384 -0.2646  0.0104
16559SOL     OW61655   1.605   7.890   8.685  0.2727  0.0139  0.1068
16559SOL    HW161656   1.680   7.945   8.660 -0.6790  0.7462 -1.2648
16559SOL    HW261657   1.613   7.813   8.629  0.5340 -0.3528  0.6485
16560SOL     OW61658   2.522  12.224   0.400 -0.1946  0.3199 -0.2646
16560SOL    HW161659   2.465  12.249   0.327 -0.3232  1.1858  0.1242
16560SOL    HW261660   2.485  12.141   0.431  1.6789 -1.8214 -3.1355
16561SOL     OW61661  11.071  13.724   7.309 -0.3204  0.5176 -0.3077
16561SOL    HW161662  11.060  13.641   7.264 -2.0561 -0.4936  1.7689
16561SOL    HW261663  11.162  13.726   7.336  0.3727  0.4801 -2.4604
16562SOL     OW61664  12.490  11.202   8.845  0.1689 -0.0652  0.7065
16562SOL    HW161665  12.522  11.170   8.761 -0.6194 -1.1933  0.8183
16562SOL    HW261666  12.564  11.191   8.905  1.1034  1.7539 -0.0351
16563SOL     OW61667  11.692   5.118   8.629 -0.5385 -0.6399  0.6951
16563SOL    HW161668  11.613   5.154   8.670 -1.5508 -1.2819 -0.6283
16563SOL    HW261669  11.660   5.052   8.568  0.9523 -0.2324 -0.5924
16564SOL     OW61670  13.987  13.019  12.062  0.6882  0.2546  0.0983
16564SOL    HW161671  14.049  13.072  12.112  1.4843 -1.9635  1.6017
16564SOL    HW261672  14.023  12.931  12.064 -0.8079 -0.4932 -1.9249
16565SOL     OW61673   0.913   3.609   2.784  0.1046 -0.5901 -0.1825
16565SOL    HW161674   0.993   3.557   2.791  0.0091 -0.8827 -1.1203
16565SOL    HW261675   0.858   3.578   2.856  0.8212 -0.3880  0.4673
16566SOL     OW61676   0.295   0.605   5.001 -0.0853 -0.6576  0.8447
16566SOL    HW161677   0.220   0.665   4.999  0.7842  0.5010  1.2818
16566SOL    HW261678   0.273   0.536   4.939 -0.9806  0.3127  0.0383
16567SOL     OW61679   8.688   6.955   4.509 -0.4365 -0.1533  0.4027
16567SOL    HW161680   8.741   6.894   4.457  0.6860  1.0070  0.1522
16567SOL    HW261681   8.623   6.988   4.448 -1.6812 -1.7807  0.7748
16568SOL     OW61682   3.034   3.635   6.073 -0.3063 -0.1920 -0.1133
16568SOL    HW161683   3.124   3.658   6.050 -0.1597  0.9046  1.3868
16568SOL    HW261684   2.982   3.662   5.998  0.5219 -0.1740 -0.7000
16569SOL     OW61685   4.006  12.756   6.043  0.3716  0.1327  0.2019
16569SOL    HW161686   4.002  12.816   5.968  0.6719 -0.0819  0.0149
16569SOL    HW261687   3.970  12.807   6.116 -1.5408 -0.2142 -0.4476
16570SOL     OW61688  10.110   3.536  10.056  0.1338  0.1765  0.2586
16570SOL    HW161689  10.147   3.510  10.140  0.5085  1.7653  0.6220
16570SOL    HW261690  10.097   3.453  10.009  0.8385 -0.6712  1.4848
16571SOL     OW61691   7.812   7.552   6.046  0.0798 -0.5819 -0.5685
16571SOL    HW161692   7.904   7.546   6.072  0.0832  1.5536  0.1162
16571SOL    HW261693   7.766   7.494   6.106  0.8079 -0.5575  0.0283
16572SOL     OW61694   0.782   5.606  10.837 -0.2498 -0.5129 -0.0885
16572SOL    HW161695   0.700   5.623  10.884 -0.2887 -0.2044 -0.2638
16572SOL    HW261696   0.759   5.542  10.771 -0.3280 -0.5056 -0.0694
16573SOL     OW61697   4.173  12.784   4.727 -0.3161 -0.1805  0.0038
16573SOL    HW161698   4.199  12.873   4.703  0.4537 -0.1674  0.8193
16573SOL    HW261699   4.083  12.775   4.695 -1.2704  1.7123  1.9425
16574SOL     OW61700  10.104   6.494   3.041  0.1159  0.0598  0.1960
16574SOL    HW161701  10.082   6.401   3.044  0.8777 -0.1182  0.5219
16574SOL    HW261702  10.183   6.498   2.987 -0.2495  0.5878 -0.3018
16575SOL     OW61703   0.296   3.999   2.218  0.2958  0.1556 -0.2107
16575SOL    HW161704   0.343   4.068   2.171  1.6047 -0.4156  0.2296
16575SOL    HW261705   0.234   3.965   2.154  1.5826 -0.1596 -1.3240
16576SOL     OW61706  12.843  12.639   2.647  0.4126  0.0686  0.5562
16576SOL    HW161707  12.837  12.622   2.741  2.2819 -0.9372  0.5537
16576SOL    HW261708  12.916  12.584   2.618  0.0087  0.5171 -1.4552
16577SOL     OW61709  11.575  11.344  12.417 -0.0752 -0.0486  0.2970
16577SOL    HW161710  11.605  11.362  12.328 -1.0297  1.4932  0.2479
16577SOL    HW261711  11.547  11.253  12.416 -1.6513  0.4077 -1.4554
16578SOL     OW61712   6.843   9.826   5.557  0.1137  0.0996 -0.3619
16578SOL    HW161713   6.937   9.812   5.550  0.4448  0.4420  2.4770
16578SOL    HW261714   6.808   9.740   5.580  0.0583  0.4555  0.9222
16579SOL     OW61715   1.579   4.802  12.791  0.8021  0.6593  0.2640
16579SOL    HW161716   1.511   4.841  12.846  0.1882  0.6822 -0.5107
16579SOL    HW261717   1.633   4.752  12.853 -0.7116 -0.5095  0.7262
16580SOL     OW61718   5.622  13.799   7.501  0.0684 -0.0176  0.2354
16580SOL    HW161719   5.535  13.808   7.540  0.0540 -2.3158  0.8954
16580SOL    HW261720   5.682  13.796   7.575  0.3190 -1.7289  0.0146
16581SOL     OW61721   1.587  12.405   9.399  0.5298 -0.2996  0.4783
16581SOL    HW161722   1.555  12.329   9.350 -0.6444  0.8653 -0.6323
16581SOL    HW261723   1.559  12.389   9.490  0.8050 -1.4446  0.3755
16582SOL     OW61724   4.480   6.489  14.030 -0.0340 -0.0878  0.9325
16582SOL    HW161725   4.554   6.499  14.089  0.2182 -0.2388  0.6479
16582SOL    HW261726   4.463   6.578  13.998 -0.2759  0.0181  1.3537
16583SOL     OW61727   4.311   2.530   4.015  0.0908 -0.0138 -0.6241
16583SOL    HW161728   4.362   2.572   4.085  0.6195  0.6592 -1.4020
16583SOL    HW261729   4.240   2.592   3.998 -0.2862 -0.3785 -0.4000
16584SOL     OW61730   2.523  13.905  10.882 -0.3263  0.1931  0.6155
16584SOL    HW161731   2.524  14.000  10.866 -0.2043  0.3912  1.7298
16584SOL    HW261732   2.440  13.889  10.927 -0.3874 -0.2459  0.3499
16585SOL     OW61733   4.398  12.545   5.560  0.0369  0.6307 -0.3880
16585SOL    HW161734   4.440  12.601   5.495  2.0351 -2.6744 -2.1815
16585SOL    HW261735   4.327  12.501   5.513 -0.9706  0.9695  0.7504
16586SOL     OW61736   2.588  10.262   8.290  0.1227 -0.3753  0.1201
16586SOL    HW161737   2.531  10.190   8.318  1.6598 -1.7667 -0.1765
16586SOL    HW261738   2.660  10.261   8.353  0.4820  0.5086 -0.2607
16587SOL     OW61739   9.294  11.642  13.851  0.4080 -0.1390 -0.1527
16587SOL    HW161740   9.370  11.649  13.793  0.9042  0.9333  0.5895
16587SOL    HW261741   9.268  11.733  13.866 -0.5997 -0.4679  0.1601
16588SOL     OW61742  13.888   5.983   5.817 -0.5481 -0.6802 -0.7284
16588SOL    HW161743  13.904   5.995   5.724  0.7820  0.0025 -0.4317
16588SOL    HW261744  13.927   5.897   5.837  0.6242 -0.1181 -0.5045
16589SOL     OW61745   5.918   1.522  12.790  0.0345  0.4484  0.2974
16589SOL    HW161746   5.855   1.455  12.817  1.5001 -1.2961 -0.3770
16589SOL    HW261747   5.949   1.560  12.872  1.0740 -1.5689  0.9075
16590SOL     OW61748  11.959   1.246   5.378  0.0719  0.4117  0.4101
16590SOL    HW161749  11.953   1.288   5.292  1.8717 -0.0124  0.0454
16590SOL    HW261750  11.872   1.210   5.392 -1.8763  4.6980  1.0507
16591SOL     OW61751   6.643   8.232   7.833  0.0936 -0.0641 -0.1948
16591SOL    HW161752   6.601   8.185   7.761  0.1568 -0.8785  0.2826
16591SOL    HW261753   6.688   8.305   7.791  0.9729 -1.0926 -1.1238
16592SOL     OW61754  11.748   4.592   4.545  0.0481  0.1141 -0.1450
16592SOL    HW161755  11.734   4.623   4.456  0.6727  1.0688  0.0743
16592SOL    HW261756  11.739   4.670   4.600  1.5334 -0.0762  0.4268
16593SOL     OW61757   0.988   2.255  13.243  1.0559 -0.4475  0.1572
16593SOL    HW161758   1.008   2.166  13.216 -0.3673 -0.2783 -1.6506
16593SOL    HW261759   1.039   2.311  13.184 -1.0142 -0.0887 -1.4305
16594SOL     OW61760   8.913   7.617   2.320  0.0022 -0.2467  0.4155
16594SOL    HW161761   8.976   7.674   2.276 -0.9090 -0.4155 -1.1698
16594SOL    HW261762   8.968   7.559   2.373  1.0927  0.4781  0.1195
16595SOL     OW61763  11.365   3.915   3.957 -0.3438  0.3208 -0.1485
16595SOL    HW161764  11.285   3.955   3.924 -2.3301 -2.1900  1.3080
16595SOL    HW261765  11.411   3.885   3.878 -1.8534 -0.0306 -0.9240
16596SOL     OW61766  10.278   5.642  11.669  0.2732 -0.7835  0.1208
16596SOL    HW161767  10.329   5.723  11.669  0.9778 -1.2101  1.1968
16596SOL    HW261768  10.246   5.634  11.579  0.0249  0.7846  0.0348
16597SOL     OW61769   4.811   4.205  12.445  0.2716 -0.0654  0.5341
16597SOL    HW161770   4.824   4.264  12.519 -2.6139  2.4537 -0.7680
16597SOL    HW261771   4.759   4.133  12.481  0.4857  0.1697  1.3298
16598SOL     OW61772   1.556   3.521   1.430 -0.1449  0.0299  0.2602
16598SOL    HW161773   1.470   3.480   1.416  0.4686 -0.5960 -2.2168
16598SOL    HW261774   1.591   3.477   1.507 -2.2608  0.7408  1.7192
16599SOL     OW61775   1.512   6.258   9.008 -0.2640  0.1071 -0.3730
16599SOL    HW161776   1.514   6.318   8.934 -1.1480  2.5107  1.4448
16599SOL    HW261777   1.602   6.258   9.041 -0.1167 -0.1080 -0.7690
16600SOL     OW61778  11.787   9.450   2.658  0.5941  0.1321  0.1024
16600SOL    HW161779  11.738   9.495   2.589  0.0523  1.0258  1.0270
16600SOL    HW261780  11.827   9.375   2.615 -1.1601 -0.3288 -0.8253
16601SOL     OW61781  11.347   7.745   9.029 -0.1907 -0.2098  0.2251
16601SOL    HW161782  11.344   7.789   9.114 -0.8368 -1.1922  0.7245
16601SOL    HW261783  11.368   7.815   8.967  1.6299  0.2686  1.3302
16602SOL     OW61784   4.796   5.430  11.042  0.4457  0.0377  0.2118
16602SOL    HW161785   4.791   5.510  11.096 -2.6259 -0.4357  0.8496
16602SOL    HW261786   4.824   5.362  11.103  1.3356  0.2862  0.0935
16603SOL     OW61787   7.644  13.212   5.398 -0.4041 -0.6302 -0.0203
16603SOL    HW161788   7.674  13.124   5.421 -1.0386 -0.6350  0.8193
16603SOL    HW261789   7.724  13.263   5.386 -0.0472 -0.9338  1.0246
16604SOL     OW61790   0.268   7.929   0.951 -0.3269  0.1275  0.0655
16604SOL    HW161791   0.328   7.966   1.015 -1.2469 -0.1513  1.1183
16604SOL    HW261792   0.188   7.911   1.000 -0.7053 -1.0785 -0.9254
16605SOL     OW61793   1.780   0.037  12.834 -0.1618 -0.5064  0.2714
16605SOL    HW161794   1.733  -0.027  12.780 -1.2487 -1.2602  2.0315
16605SOL    HW261795   1.872   0.018  12.818 -0.4279 -0.5306 -1.4886
16606SOL     OW61796   9.011   5.678   5.683  0.2315  0.0557 -0.4629
16606SOL    HW161797   8.994   5.657   5.775  0.5760  0.3566 -0.3293
16606SOL    HW261798   9.067   5.607   5.652 -0.9099 -0.7228 -0.7938
16607SOL     OW61799   3.318   4.459   7.490  0.0897  0.2821  0.3130
16607SOL    HW161800   3.286   4.372   7.514  0.2413  0.4563  1.1628
16607SOL    HW261801   3.357   4.448   7.403 -0.0214 -0.4593  0.3575
16608SOL     OW61802   4.012   8.705   6.792 -0.1017  0.3095  0.4397
16608SOL    HW161803   4.045   8.730   6.705 -0.1428  0.3757  0.4431
16608SOL    HW261804   4.036   8.779   6.849  2.2899 -0.8545  1.0528
16609SOL     OW61805  12.055   7.546   7.389  0.2306 -0.4910  0.0043
16609SOL    HW161806  11.970   7.563   7.349 -0.4623 -1.8306  0.8502
16609SOL    HW261807  12.112   7.522   7.316  0.4371  2.1122 -0.8283
16610SOL     OW61808   5.201   7.078  10.713 -1.1103 -0.2603  0.3300
16610SOL    HW161809   5.197   6.982  10.707 -1.4186 -0.1695 -1.0598
16610SOL    HW261810   5.213   7.095  10.807 -0.9566 -1.6586  0.5856
16611SOL     OW61811   9.550   1.789  10.789  0.3776 -0.2303 -0.1987
16611SOL    HW161812   9.645   1.777  10.793  0.3571 -1.1651 -1.8298
16611SOL    HW261813   9.537   1.880  10.816  1.5116 -0.6901  2.1553
16612SOL     OW61814   3.137   6.293  11.474 -0.1833  0.3387 -0.3100
16612SOL    HW161815   3.177   6.210  11.447  1.6216  0.8112  0.7244
16612SOL    HW261816   3.054   6.268  11.514  1.4237 -1.3283  2.3199
16613SOL     OW61817  13.265  13.926  11.076 -0.0138  0.0784  0.1158
16613SOL    HW161818  13.309  13.976  11.008 -0.8980 -0.0155 -0.5379
16613SOL    HW261819  13.261  13.985  11.151 -0.3833  0.7257 -0.4091
16614SOL     OW61820  10.138   1.686   8.987 -0.5119 -0.1820 -0.1545
16614SOL    HW161821  10.193   1.608   8.995 -1.1352 -0.4336  2.4984
16614SOL    HW261822  10.198   1.759   9.003 -0.3250 -0.2401 -0.5822
16615SOL     OW61823   6.227   7.724   3.917 -0.1821 -0.3991 -0.0928
16615SOL    HW161824   6.309   7.766   3.942  0.4504 -0.6798 -1.5828
16615SOL    HW261825   6.174   7.795   3.880 -1.2848  0.1023  2.2839
16616SOL     OW61826   0.774   6.440  12.773  0.2050 -0.1821  0.0366
16616SOL    HW161827   0.784   6.465  12.864 -1.9800 -2.1964  0.9461
16616SOL    HW261828   0.680   6.450  12.755  0.1387 -2.1824 -1.1563
16617SOL     OW61829   0.922   2.440   1.967  0.3397  0.1645 -0.4662
16617SOL    HW161830   0.867   2.510   2.003  0.5230  0.8299 -1.4476
16617SOL    HW261831   0.973   2.409   2.041 -0.5673  0.2870  0.2262
16618SOL     OW61832   0.522   3.950  11.366 -0.0512 -0.2781 -0.0597
16618SOL    HW161833   0.561   3.935  11.452 -1.4381  0.9675  0.8433
16618SOL    HW261834   0.486   3.865  11.341  0.0563 -0.5797  0.7721
16619SOL     OW61835   9.834   7.363  10.639  0.4457 -0.3210  0.1764
16619SOL    HW161836   9.797   7.375  10.726 -0.2530 -0.9343 -0.0230
16619SOL    HW261837   9.804   7.276  10.612  1.7928 -0.7202 -0.1235
16620SOL     OW61838   6.335   4.731   2.483  0.0588 -0.3648 -0.4721
16620SOL    HW161839   6.367   4.656   2.434 -1.5892 -0.3272 -1.6447
16620SOL    HW261840   6.325   4.699   2.573  1.9191 -0.7632 -0.3570
16621SOL     OW61841   5.612   4.674  12.027  0.1401  0.2039 -0.0678
16621SOL    HW161842   5.521   4.643  12.025 -0.2121  1.2546 -1.7241
16621SOL    HW261843   5.665   4.595  12.019 -0.6893 -0.2465 -1.3766
16622SOL     OW61844  12.365   9.088   4.622  0.0217  0.8670 -0.4087
16622SOL    HW161845  12.272   9.071   4.615 -0.1493  1.6658 -0.2278
16622SOL    HW261846  12.387   9.136   4.542  0.1979  1.0013 -0.2817
16623SOL     OW61847  13.772   7.988   2.589 -0.4081  0.2201  0.3344
16623SOL    HW161848  13.851   7.957   2.546 -1.4180 -1.3629 -0.4536
16623SOL    HW261849  13.802   8.018   2.676  1.0362 -0.2919  0.0373
16624SOL     OW61850  12.295   7.815   8.504  0.3499 -0.7630  0.2921
16624SOL    HW161851  12.311   7.722   8.519 -1.5436 -0.9954  1.2996
16624SOL    HW261852  12.201   7.820   8.485  0.1753  1.0271  1.3560
16625SOL     OW61853  10.320  13.593   7.630  0.0072  0.0869  0.1571
16625SOL    HW161854  10.389  13.536   7.598 -1.5058 -0.8160 -1.6750
16625SOL    HW261855  10.338  13.678   7.589 -0.7346 -0.5267 -1.5461
16626SOL     OW61856  11.889  13.437  10.740  0.1992  0.1256 -0.7050
16626SOL    HW161857  11.899  13.528  10.768 -1.3369  0.2246 -0.3958
16626SOL    HW261858  11.883  13.387  10.821 -1.6380  0.1000 -0.8120
16627SOL     OW61859   6.127  13.647  11.139 -0.1082 -0.1182 -0.7239
16627SOL    HW161860   6.067  13.651  11.214  1.2626  0.4940  0.3922
16627SOL    HW261861   6.208  13.611  11.175  0.2799 -0.7270 -2.1484
16628SOL     OW61862   8.179   9.968   4.929 -0.2207  0.2885 -0.3120
16628SOL    HW161863   8.166  10.061   4.947 -1.8572  0.0011  0.0841
16628SOL    HW261864   8.098   9.938   4.890  0.4865 -0.8697 -0.9613
16629SOL     OW61865   1.228   0.343   9.623  0.0827 -0.0973  0.0473
16629SOL    HW161866   1.150   0.319   9.575  0.3982 -1.3883  0.1565
16629SOL    HW261867   1.221   0.296   9.706 -0.9089  2.7756  1.7407
16630SOL     OW61868   3.132   6.900   8.202  0.1866  0.5097  0.3115
16630SOL    HW161869   3.159   6.830   8.143  2.1887  0.5219  1.1195
16630SOL    HW261870   3.197   6.969   8.188 -1.1670  1.8159  0.2534
16631SOL     OW61871   3.133   5.663  11.716 -0.4049 -0.4624 -0.4530
16631SOL    HW161872   3.113   5.639  11.806 -0.6760 -0.3642 -0.4858
16631SOL    HW261873   3.072   5.735  11.696 -0.9151 -1.0255 -0.9835
16632SOL     OW61874   4.938  10.384   5.537 -0.4632 -0.0261 -0.2085
16632SOL    HW161875   4.914  10.476   5.550  0.6257  0.1031  1.1004
16632SOL    HW261876   5.017  10.387   5.484 -0.0082 -0.1536  0.4471
16633SOL     OW61877   9.095   1.883  10.841 -0.0021 -0.3335 -0.1340
16633SOL    HW161878   9.164   1.851  10.899  0.9082 -0.6299 -1.3386
16633SOL    HW261879   9.032   1.925  10.899 -0.2648 -2.5734  1.3010
16634SOL     OW61880   0.753  10.171   8.349 -0.4977  0.0064  0.6325
16634SOL    HW161881   0.807  10.248   8.331  1.9111 -1.6453  0.2489
16634SOL    HW261882   0.755  10.162   8.445 -0.6691  0.3199  0.6669
16635SOL     OW61883  10.983   3.110   5.239 -0.2240 -0.5164 -0.2929
16635SOL    HW161884  10.928   3.179   5.276 -0.9125 -1.6391  0.8552
16635SOL    HW261885  11.068   3.124   5.280 -0.9481 -1.6874  1.7991
16636SOL     OW61886   3.354   4.933   5.877 -0.7229 -0.1257  0.2706
16636SOL    HW161887   3.318   4.847   5.896 -3.7143  1.1150  0.8419
16636SOL    HW261888   3.321   4.989   5.948  0.7616  1.6115 -0.3090
16637SOL     OW61889  12.852  13.379   2.574  0.2135 -0.6404  0.6171
16637SOL    HW161890  12.943  13.400   2.598 -0.2002  0.5849  1.1431
16637SOL    HW261891  12.859  13.346   2.485  1.0479  0.6551  0.1665
16638SOL     OW61892   8.784   2.483   5.378  0.0993 -0.0130 -0.3833
16638SOL    HW161893   8.727   2.504   5.452  2.0494  0.0239  1.2306
16638SOL    HW261894   8.860   2.441   5.418  0.5733 -1.4038 -2.5708
16639SOL     OW61895   2.689   4.631  10.998 -0.3344 -0.1061 -0.8579
16639SOL    HW161896   2.718   4.630  10.907 -0.2772  2.7006 -0.9468
16639SOL    HW261897   2.769   4.647  11.048 -0.2209 -2.4367 -0.1593
16640SOL     OW61898   5.336  13.254   8.874 -0.3922  0.2172 -0.0045
16640SOL    HW161899   5.276  13.258   8.949 -0.7231  2.1506 -0.3142
16640SOL    HW261900   5.334  13.163   8.845 -1.8865 -0.0990  1.0284
16641SOL     OW61901  11.949  13.542  11.190  0.3264  0.3160  0.0561
16641SOL    HW161902  12.035  13.521  11.153  0.4277  0.4643  0.2096
16641SOL    HW261903  11.923  13.462  11.236  1.7840  1.2639  2.7110
16642SOL     OW61904  10.032   4.799  13.260  0.6759  0.0408 -0.3900
16642SOL    HW161905   9.937   4.803  13.248  0.7234  0.0325 -0.7922
16642SOL    HW261906  10.044   4.777  13.352  0.2550 -1.1880 -0.6063
16643SOL     OW61907   2.330  10.624   5.001 -0.2778 -0.5900  0.4660
16643SOL    HW161908   2.305  10.716   4.994 -2.1007 -1.1851 -2.7482
16643SOL    HW261909   2.257  10.583   5.047 -2.4380 -1.2238 -3.1447
16644SOL     OW61910   6.958   9.685   2.653 -0.0277  0.0700  0.6806
16644SOL    HW161911   6.910   9.661   2.574  0.3598  1.5977 -0.0657
16644SOL    HW261912   7.016   9.611   2.670 -0.4863 -0.4968 -0.1542
16645SOL     OW61913   1.759   0.354   0.152  0.5851 -0.3502 -0.4106
16645SOL    HW161914   1.754   0.435   0.101  1.6734 -0.1238 -0.1770
16645SOL    HW261915   1.851   0.327   0.144  0.4892 -0.9443  0.4583
16646SOL     OW61916  13.254   5.802  11.870  0.5744 -0.1851  0.2578
16646SOL    HW161917  13.292   5.847  11.794  1.1579 -0.8208  0.1649
16646SOL    HW261918  13.173   5.850  11.888  1.5254  1.3563  0.6142
16647SOL     OW61919   3.974   8.272   5.418  0.1259  0.0512 -0.3738
16647SOL    HW161920   3.958   8.249   5.327 -3.2816 -2.9741  0.7302
16647SOL    HW261921   4.052   8.222   5.442 -0.2482 -0.9022 -1.0857
16648SOL     OW61922  13.739  13.163   5.501  0.7444  0.0941  0.5743
16648SOL    HW161923  13.660  13.109   5.500 -0.6782  1.9946 -1.2667
16648SOL    HW261924  13.794  13.128   5.431  0.4120  0.2052  0.2520
16649SOL     OW61925   9.005   2.016   5.474 -0.3008 -0.3228  0.0651
16649SOL    HW161926   8.966   1.970   5.399 -0.9846 -1.2692  0.9562
16649SOL    HW261927   9.063   1.951   5.514 -0.6974 -0.1763  0.9098
16650SOL     OW61928   4.932  11.002   1.519  0.0620 -0.2656 -0.3555
16650SOL    HW161929   4.842  10.969   1.520  0.2252 -0.6993  0.3073
16650SOL    HW261930   4.986  10.923   1.516  0.4188  0.0045 -1.6263
16651SOL     OW61931   0.059   6.331   6.166  0.0130 -0.2907  0.1892
16651SOL    HW161932  -0.023   6.302   6.125 -0.9673 -0.1310  1.9334
16651SOL    HW261933   0.072   6.420   6.133  1.0077 -1.2524 -2.2324
16652SOL     OW61934   3.405   5.016   5.054  0.5077  0.2971 -0.3492
16652SOL    HW161935   3.361   5.012   5.139  0.7503 -0.1735 -0.2415
16652SOL    HW261936   3.333   5.024   4.990  0.2757 -0.1972 -0.1569
16653SOL     OW61937   9.377   7.420   0.530  0.5088  0.9080 -0.0372
16653SOL    HW161938   9.292   7.459   0.550 -0.3060 -0.8549  0.1506
16653SOL    HW261939   9.381   7.420   0.434  0.9232  2.2525 -0.0255
16654SOL     OW61940   1.505  13.052   2.457 -0.0004  0.2020  0.1668
16654SOL    HW161941   1.522  13.002   2.537  1.0630 -0.5760 -0.5259
16654SOL    HW261942   1.501  13.143   2.487 -0.9209 -0.1827  1.2800
16655SOL     OW61943  10.974   9.907   7.280 -0.4307  0.1842  0.6109
16655SOL    HW161944  11.008   9.997   7.277  0.8268 -0.2947 -0.3232
16655SOL    HW261945  10.881   9.916   7.257 -0.4952  1.3059  1.2194
16656SOL     OW61946   1.547   8.541   5.456  0.7738  0.3997 -0.2226
16656SOL    HW161947   1.479   8.478   5.435 -0.0570  0.6228  1.5828
16656SOL    HW261948   1.612   8.531   5.387 -0.3096 -0.9726 -1.0882
16657SOL     OW61949   0.418   4.781   9.704  0.3497  0.6700  0.0899
16657SOL    HW161950   0.329   4.754   9.681 -0.2820  2.3050  0.4514
16657SOL    HW261951   0.473   4.748   9.633 -0.6057 -0.0301 -0.3371
16658SOL     OW61952   7.740   5.580  11.442  0.4827 -0.2526  0.2793
16658SOL    HW161953   7.649   5.592  11.415  0.8915  2.4473 -0.1179
16658SOL    HW261954   7.767   5.498  11.400 -1.8762 -1.4280  0.8710
16659SOL     OW61955   5.784   5.852   9.820 -0.1111 -0.3155  0.3501
16659SOL    HW161956   5.689   5.845   9.811 -0.0478  0.3206 -1.0456
16659SOL    HW261957   5.798   5.863   9.914 -1.1965 -3.0949  0.9390
16660SOL     OW61958  12.979  10.247   1.777  0.2431  0.4334 -0.2255
16660SOL    HW161959  13.063  10.204   1.761 -0.5501 -1.2690 -0.0970
16660SOL    HW261960  12.919  10.205   1.716 -0.3326  2.3242 -1.0082
16661SOL     OW61961   0.166   5.510   9.409  0.3149  0.3230 -0.3296
16661SOL    HW161962   0.244   5.454   9.408 -0.6732 -1.0858 -0.5165
16661SOL    HW261963   0.186   5.580   9.346  1.8880  0.6717  0.4891
16662SOL     OW61964   2.746   0.892   5.379 -0.0762  0.3689 -0.4531
16662SOL    HW161965   2.728   0.811   5.331 -1.4918  0.8851 -0.8496
16662SOL    HW261966   2.802   0.943   5.320  1.7105 -0.7100  0.2295
16663SOL     OW61967  11.307   6.864   1.181 -0.1190  0.2522  0.0627
16663SOL    HW161968  11.345   6.776   1.180 -0.3159  0.1368  1.1669
16663SOL    HW261969  11.230   6.856   1.238 -0.2753  1.0847 -0.0169
16664SOL     OW61970  12.706  13.005   9.378  0.0319  0.6418 -0.1022
16664SOL    HW161971  12.649  12.966   9.312  0.5395  0.1824 -0.2838
16664SOL    HW261972  12.789  12.959   9.367  0.1902  0.7227  0.7022
16665SOL     OW61973   5.471   9.307  11.614  0.2008 -0.2579 -0.3046
16665SOL    HW161974   5.422   9.225  11.620  0.3145 -0.4541 -1.7326
16665SOL    HW261975   5.435   9.362  11.684  0.3835 -1.6443  0.9377
16666SOL     OW61976   4.240   0.985   7.303 -0.1072 -0.0677  0.2961
16666SOL    HW161977   4.257   0.984   7.397 -0.6875 -0.5684  0.4029
16666SOL    HW261978   4.273   1.070   7.273 -1.2923  0.7417  1.2210
16667SOL     OW61979   1.365   9.781   0.720 -0.2573  0.1653  0.0206
16667SOL    HW161980   1.435   9.845   0.733  0.7707 -0.6263 -1.3768
16667SOL    HW261981   1.408   9.696   0.728 -1.7477 -0.4372  2.6170
16668SOL     OW61982  12.126  11.432   5.868  0.0776  0.5713 -0.3413
16668SOL    HW161983  12.211  11.418   5.909  1.3481  0.6245 -2.8040
16668SOL    HW261984  12.120  11.366   5.799 -0.2586  2.7610 -2.5449
16669SOL     OW61985   5.729  13.495   9.254 -0.3260 -0.4857  0.4688
16669SOL    HW161986   5.674  13.430   9.298 -1.1623 -0.1129  0.0191
16669SOL    HW261987   5.678  13.576   9.259 -0.5925 -0.4921 -1.3921
16670SOL     OW61988   1.008   6.166   2.743  0.0156  0.5122 -0.2588
16670SOL    HW161989   0.926   6.190   2.700 -0.1251 -0.6116 -0.6566
16670SOL    HW261990   1.073   6.227   2.708 -0.3210  0.3221 -1.2319
16671SOL     OW61991   6.704   2.376   8.458  0.5664 -0.0616 -0.2400
16671SOL    HW161992   6.632   2.361   8.520  0.6021  1.6500  0.2649
16671SOL    HW261993   6.771   2.314   8.484  0.3330  0.1956  1.0538
16672SOL     OW61994   3.129   3.646   9.081  0.5294 -0.3359 -0.1209
16672SOL    HW161995   3.052   3.701   9.092  0.9166  0.3723 -0.8558
16672SOL    HW261996   3.114   3.571   9.139 -0.4908  0.0184  0.0848
16673SOL     OW61997  11.894   0.291  11.055 -0.5799  0.0337  0.0884
16673SOL    HW161998  11.815   0.326  11.014 -0.3142  1.1135  0.4690
16673SOL    HW261999  11.963   0.352  11.029  0.5296 -1.8726 -1.7796
16674SOL     OW62000   9.740  12.095   9.886  0.4813 -0.1592 -0.1503
16674SOL    HW162001   9.816  12.152   9.895  0.8378 -0.7130  0.4357
16674SOL    HW262002   9.673  12.151   9.846  1.1411  0.3752 -0.5368
16675SOL     OW62003   7.007   1.020  10.839  0.1046  0.6026  0.1366
16675SOL    HW162004   7.025   0.940  10.789 -1.0057  0.2870  0.2184
16675SOL    HW262005   6.918   1.044  10.814  0.4778  1.9181 -0.0122
16676SOL     OW62006   3.894   0.548   0.278  0.4021  0.3898 -0.0900
16676SOL    HW162007   3.901   0.536   0.183 -2.2113 -1.2071 -0.1710
16676SOL    HW262008   3.985   0.561   0.307  1.2647  1.0709 -2.7834
16677SOL     OW62009   5.619   2.418  11.907 -0.4273  0.3079 -0.0685
16677SOL    HW162010   5.615   2.494  11.849 -1.7573  0.3878  0.1104
16677SOL    HW262011   5.686   2.362  11.867 -0.3377  0.9805 -0.9065
16678SOL     OW62012   2.563  11.122   2.725  0.1235 -0.0660 -0.4195
16678SOL    HW162013   2.501  11.053   2.750  0.3914 -0.3977 -0.6640
16678SOL    HW262014   2.649  11.081   2.733  0.3858  0.6661  0.8383
16679SOL     OW62015  10.574   1.329   3.851  0.1514  0.2177 -0.0314
16679SOL    HW162016  10.564   1.297   3.941 -1.1371 -0.8437 -0.5142
16679SOL    HW262017  10.485   1.348   3.822  0.4904 -0.0034 -1.2743
16680SOL     OW62018   8.621   3.375  11.602 -0.0234  0.4399  0.2906
16680SOL    HW162019   8.631   3.307  11.668 -1.0135 -0.4223 -0.4159
16680SOL    HW262020   8.560   3.338  11.538  0.7718  1.3245 -1.0173
16681SOL     OW62021   5.931  13.546  13.055  0.2931  0.4258 -0.4028
16681SOL    HW162022   5.916  13.529  13.148 -0.5180  1.0859 -0.3993
16681SOL    HW262023   5.885  13.475  13.010  0.3296  0.3415 -0.3053
16682SOL     OW62024   8.635   7.463   7.748  0.2264 -0.5730  0.1910
16682SOL    HW162025   8.709   7.521   7.765 -1.4887  2.5177 -2.0034
16682SOL    HW262026   8.669   7.396   7.689  2.2553 -2.0599  2.8105
16683SOL     OW62027   3.170   2.156   1.925  0.0745  0.2294  0.5950
16683SOL    HW162028   3.078   2.142   1.902  0.6199  0.3309 -2.0152
16683SOL    HW262029   3.197   2.075   1.968 -1.2043  0.1819  1.3572
16684SOL     OW62030   0.600   6.725  11.939 -0.0917 -0.3538 -0.0376
16684SOL    HW162031   0.644   6.801  11.978  0.5986 -0.0509 -1.3420
16684SOL    HW262032   0.654   6.703  11.863 -0.5895 -1.8191  0.0005
16685SOL     OW62033   4.745   2.408   6.784 -0.0906 -0.0373 -0.5526
16685SOL    HW162034   4.684   2.335   6.774 -1.5030  1.2326 -1.7222
16685SOL    HW262035   4.695   2.484   6.755  1.3625  1.3905  0.5692
16686SOL     OW62036   6.128   3.464   7.261 -0.1214  0.3849 -0.1185
16686SOL    HW162037   6.190   3.495   7.195  0.1220  1.4880  0.6093
16686SOL    HW262038   6.169   3.487   7.344 -1.0176  0.1608  0.3894
16687SOL     OW62039  11.910   9.537   2.909 -0.1028 -0.1465  0.0305
16687SOL    HW162040  11.835   9.579   2.951  0.0605 -0.9221  1.1568
16687SOL    HW262041  11.877   9.504   2.826 -0.7705  0.3198  0.1073
16688SOL     OW62042  10.076   3.373  11.299 -0.1961  0.0738 -0.2117
16688SOL    HW162043   9.989   3.387  11.335  1.0235  1.2288  2.4995
16688SOL    HW262044  10.101   3.457  11.260  0.1244  0.0711 -0.0196
16689SOL     OW62045   0.352   7.208  11.541 -0.8959 -0.1266  0.4607
16689SOL    HW162046   0.437   7.245  11.565 -0.5413 -0.7617  0.2041
16689SOL    HW262047   0.324   7.261  11.466 -0.7428  0.1117  0.5710
16690SOL     OW62048   6.153   8.429   2.217  0.7092 -0.3240 -0.1877
16690SOL    HW162049   6.197   8.347   2.195  0.2331 -0.2278 -1.6281
16690SOL    HW262050   6.078   8.433   2.157  0.2200  0.7365  0.4603
16691SOL     OW62051   6.922  10.450   3.974 -0.1236  0.3898 -0.1193
16691SOL    HW162052   6.889  10.360   3.981 -2.1580  1.0770 -0.1309
16691SOL    HW262053   6.963  10.454   3.888 -1.2180 -0.1824 -0.6886
16692SOL     OW62054   7.358   6.293  13.042 -0.6937 -0.2439 -0.5633
16692SOL    HW162055   7.446   6.313  13.012 -1.3891  0.5084 -2.2358
16692SOL    HW262056   7.300   6.332  12.976 -2.3365  0.7654  1.3627
16693SOL     OW62057  12.776   2.724  12.534 -0.0771  0.7140  0.4131
16693SOL    HW162058  12.713   2.697  12.601 -1.7671  0.5217 -1.1746
16693SOL    HW262059  12.749   2.677  12.455  1.0048  1.9778 -0.7589
16694SOL     OW62060   0.825  10.519   3.411 -0.0723 -0.7349 -0.2506
16694SOL    HW162061   0.907  10.520   3.460 -1.8044 -1.5682  2.9369
16694SOL    HW262062   0.782  10.601   3.434 -1.6477 -1.8798  1.0468
16695SOL     OW62063  10.496   0.737   2.994  0.1304  0.3749  0.6208
16695SOL    HW162064  10.513   0.706   3.083 -0.8366  1.2749  1.1428
16695SOL    HW262065  10.540   0.822   2.989  1.4681 -0.3260 -0.2923
16696SOL     OW62066   7.619   8.555   9.088  0.3091  0.2433 -0.3899
16696SOL    HW162067   7.613   8.459   9.088  1.0930  0.1805 -1.4497
16696SOL    HW262068   7.531   8.584   9.066 -0.5351 -0.1446  2.1538
16697SOL     OW62069   4.275  13.845   3.521  0.5861 -0.2206  0.0652
16697SOL    HW162070   4.315  13.815   3.440  0.5842 -2.1481  0.7329
16697SOL    HW262071   4.181  13.830   3.508  0.6846 -1.7356  0.8410
16698SOL     OW62072   4.110   6.943   3.515 -0.3397  0.2583  0.0736
16698SOL    HW162073   4.188   6.990   3.545 -0.3361  1.3905 -1.5950
16698SOL    HW262074   4.044   7.011   3.503 -0.6488 -0.2667 -1.4031
16699SOL     OW62075   4.634   0.517   6.628 -0.1517 -0.1158 -0.0313
16699SOL    HW162076   4.653   0.425   6.610  0.7645  0.1156 -0.2796
16699SOL    HW262077   4.614   0.554   6.542  0.6173  0.1709 -0.0895
16700SOL     OW62078   9.219   2.345   5.165 -0.3653 -0.3344 -0.4471
16700SOL    HW162079   9.286   2.278   5.149  1.4300  1.4438 -0.6905
16700SOL    HW262080   9.186   2.325   5.253  1.4132 -0.5220  0.2250
16701SOL     OW62081  13.517   7.217   2.129  0.5146  1.0165 -0.1660
16701SOL    HW162082  13.489   7.251   2.044  1.9236 -0.1409 -1.1339
16701SOL    HW262083  13.593   7.271   2.152  1.5675 -0.1192 -0.7982
16702SOL     OW62084   3.428  12.704  10.514  0.4556  0.1177  0.6468
16702SOL    HW162085   3.406  12.741  10.600  2.0332  0.8040  0.7928
16702SOL    HW262086   3.516  12.668  10.526  1.3665  1.6316 -1.0749
16703SOL     OW62087   6.218   1.857   3.173 -0.0589 -0.2489  0.0845
16703SOL    HW162088   6.128   1.830   3.192 -1.0453  1.6407 -1.4330
16703SOL    HW262089   6.213   1.953   3.166  1.9046 -0.1560 -0.7937
16704SOL     OW62090   3.068   0.177   9.185 -0.1936  0.1338 -0.0202
16704SOL    HW162091   3.159   0.156   9.204 -0.0987 -1.6836 -2.0021
16704SOL    HW262092   3.021   0.095   9.202 -0.8738  0.0217 -2.1444
16705SOL     OW62093   1.738  13.247   0.220  0.2934 -0.4517  0.1467
16705SOL    HW162094   1.714  13.182   0.154 -1.3611 -0.3841  0.6191
16705SOL    HW262095   1.725  13.332   0.177  0.6459 -0.4189  0.1040
16706SOL     OW62096  12.508   0.572   9.512  0.3588  0.3277 -0.3020
16706SOL    HW162097  12.479   0.510   9.579 -2.1003 -1.3694 -2.7181
16706SOL    HW262098  12.600   0.550   9.497 -0.4167 -2.9259 -1.0841
16707SOL     OW62099   5.591   0.434  12.879 -0.0198  0.3517 -0.2880
16707SOL    HW162100   5.560   0.356  12.924  1.0891  0.4039  0.6036
16707SOL    HW262101   5.533   0.504  12.911  0.3829  0.2815  0.6282
16708SOL     OW62102   8.823  10.278   6.599 -0.3703  0.3138 -0.4974
16708SOL    HW162103   8.864  10.331   6.667  0.7924 -0.2821 -0.7032
16708SOL    HW262104   8.734  10.262   6.631  0.2817 -0.3128  1.0820
16709SOL     OW62105   1.250  11.604   5.667 -0.2740 -0.9480 -0.2690
16709SOL    HW162106   1.178  11.575   5.613 -0.8020  0.5964 -0.4461
16709SOL    HW262107   1.241  11.554   5.748 -1.5244 -0.8017 -0.3004
16710SOL     OW62108   5.550   2.619   9.294 -0.5999 -0.1855 -0.1067
16710SOL    HW162109   5.465   2.586   9.266  0.2617 -1.9758 -0.7932
16710SOL    HW262110   5.610   2.597   9.222  0.3708  1.4780  0.1340
16711SOL     OW62111   3.768   8.666  10.829  0.5184  0.3672  0.0049
16711SOL    HW162112   3.729   8.607  10.763  0.7043 -0.5951  0.7402
16711SOL    HW262113   3.784   8.747  10.781 -0.1696 -0.0201 -0.9233
16712SOL     OW62114   5.518   4.089   6.156  0.8463 -0.1324 -0.4256
16712SOL    HW162115   5.570   4.101   6.236  1.1276  2.8280 -0.9288
16712SOL    HW262116   5.427   4.087   6.187  0.9736  0.6070  0.0150
16713SOL     OW62117  10.341   1.849   3.896 -0.0710 -0.2882 -0.0817
16713SOL    HW162118  10.429   1.829   3.864 -0.0151  0.5708 -0.4825
16713SOL    HW262119  10.352   1.867   3.989  0.3016  0.5174 -0.2704
16714SOL     OW62120   6.367  11.350   9.505 -0.1120 -0.4692 -0.5758
16714SOL    HW162121   6.351  11.406   9.428 -1.6492  0.3722  0.3079
16714SOL    HW262122   6.457  11.369   9.530 -0.1467  0.5264 -1.1523
16715SOL     OW62123   3.725   5.645   5.162 -0.3146  0.9051  0.2105
16715SOL    HW162124   3.808   5.613   5.127 -0.4371  0.0660  0.6645
16715SOL    HW262125   3.722   5.610   5.251 -0.3789  2.3345  0.7936
16716SOL     OW62126   2.584  10.316  12.537 -0.1372 -0.5857  0.1615
16716SOL    HW162127   2.498  10.358  12.537  0.0813 -0.0868  1.9988
16716SOL    HW262128   2.572  10.240  12.480 -0.5427  1.8149 -3.3388
16717SOL     OW62129  12.728  12.871   3.435  0.4429 -0.1598  0.0155
16717SOL    HW162130  12.740  12.906   3.524 -0.2678  0.5077 -0.1408
16717SOL    HW262131  12.645  12.824   3.438 -0.9728  2.1104 -0.9337
16718SOL     OW62132   7.579  13.517   1.705 -0.4279  0.0489 -0.3848
16718SOL    HW162133   7.590  13.466   1.785  1.0788 -0.0195 -0.6045
16718SOL    HW262134   7.652  13.578   1.706 -1.8419  1.8296 -0.4298
16719SOL     OW62135   1.791   1.672   5.563  0.0672  0.1480 -0.3021
16719SOL    HW162136   1.829   1.585   5.558  0.4291  0.2757  0.2202
16719SOL    HW262137   1.698   1.658   5.543  0.0461 -0.4107  0.1614
16720SOL     OW62138   2.714   3.355   2.159  0.3044 -0.1560 -0.4348
16720SOL    HW162139   2.706   3.418   2.231 -0.1974 -0.0336 -0.5892
16720SOL    HW262140   2.692   3.271   2.198  0.9779 -0.2425 -0.2270
16721SOL     OW62141   4.377   7.420  12.146  0.6094  0.0717  0.1701
16721SOL    HW162142   4.318   7.492  12.168  2.2833  1.5423  0.0811
16721SOL    HW262143   4.361   7.404  12.053 -0.4669 -0.3775  0.4130
16722SOL     OW62144   5.596   6.074  10.820 -0.0401 -0.1357  0.0886
16722SOL    HW162145   5.587   6.106  10.910  0.2467 -1.5129  0.6254
16722SOL    HW262146   5.541   5.996  10.816  0.1098 -0.2072 -0.8749
16723SOL     OW62147   0.091   8.392   2.092 -0.0591 -0.6311 -0.0580
16723SOL    HW162148   0.099   8.335   2.015  2.9844 -0.1505 -0.1926
16723SOL    HW262149   0.082   8.332   2.166 -1.6642 -1.1149 -0.5866
16724SOL     OW62150   5.604   0.130   7.478 -0.3845  0.5540  0.4189
16724SOL    HW162151   5.546   0.053   7.474  3.1908 -2.5045  1.6518
16724SOL    HW262152   5.639   0.137   7.389  0.5269 -0.3847  0.6840
16725SOL     OW62153   3.649  10.344   0.648  0.9501  0.7594  0.3520
16725SOL    HW162154   3.618  10.360   0.737  1.2712  0.5222  0.5098
16725SOL    HW262155   3.577  10.298   0.605  1.0344  0.3161  0.6817
16726SOL     OW62156   1.064  11.673   5.967 -0.5649 -0.2356 -0.4947
16726SOL    HW162157   1.114  11.592   5.982  0.3669  0.2770 -0.8101
16726SOL    HW262158   1.129  11.743   5.970 -1.5105  0.6554  1.0125
16727SOL     OW62159   5.379   2.865   8.187 -0.1650  0.2800  0.3145
16727SOL    HW162160   5.365   2.845   8.094 -1.9855  1.7591  0.2108
16727SOL    HW262161   5.474   2.869   8.196  0.0613 -0.0105 -1.4590
16728SOL     OW62162   4.608  10.314   3.544  0.3285  0.3648  0.4198
16728SOL    HW162163   4.593  10.394   3.494  0.2487 -0.4164 -0.8406
16728SOL    HW262164   4.698  10.289   3.523 -0.5099 -1.3366 -1.3931
16729SOL     OW62165  12.263   7.811   9.114  0.0107  0.1561 -0.2434
16729SOL    HW162166  12.249   7.895   9.156  1.3017  0.0591  0.4539
16729SOL    HW262167  12.250   7.747   9.184  1.5785 -0.0421 -0.0845
16730SOL     OW62168   5.201   8.408   7.614  0.5370  0.2277  0.7081
16730SOL    HW162169   5.190   8.460   7.694  3.1879  1.5957  0.2885
16730SOL    HW262170   5.197   8.317   7.644 -1.0130  0.6632  1.9686
16731SOL     OW62171   2.643   2.439   6.875  0.2713  0.5517 -0.1089
16731SOL    HW162172   2.633   2.379   6.801 -0.9977 -0.4544  0.8328
16731SOL    HW262173   2.598   2.519   6.848 -1.9881 -0.5105  0.2846
16732SOL     OW62174  11.503   0.224   8.211  0.4095  0.1226 -0.4265
16732SOL    HW162175  11.536   0.135   8.195  2.0330  0.8160 -1.0708
16732SOL    HW262176  11.581   0.279   8.213 -0.5105  1.4510  0.7224
16733SOL     OW62177   1.221   7.069   1.125  0.0893  0.8122 -0.5577
16733SOL    HW162178   1.157   7.063   1.055  0.6994 -0.1767 -1.0522
16733SOL    HW262179   1.303   7.037   1.086  0.4662  0.3392  0.5656
16734SOL     OW62180   6.007   1.994   9.790 -0.0639 -0.0109  0.0081
16734SOL    HW162181   6.033   2.070   9.738 -0.7815 -0.0548 -0.4239
16734SOL    HW262182   5.930   1.959   9.745 -1.0961  0.3251  1.4744
16735SOL     OW62183   7.136  13.449  10.010 -0.0394  0.4254 -0.3339
16735SOL    HW162184   7.172  13.367  10.045 -0.8569 -0.1719 -0.8525
16735SOL    HW262185   7.156  13.447   9.917  0.1265  0.9220 -0.3121
16736SOL     OW62186   8.093   9.030   5.014  0.3676 -0.1051 -0.0818
16736SOL    HW162187   8.086   9.126   5.006  0.4089 -0.2450 -2.8421
16736SOL    HW262188   8.105   9.000   4.924 -0.1300 -2.7706  0.6715
16737SOL     OW62189   1.388  12.430   1.955 -0.1370  0.3171  0.0059
16737SOL    HW162190   1.353  12.362   1.898  0.7951  0.2939 -0.5716
16737SOL    HW262191   1.314  12.457   2.010 -0.7986 -0.3563 -0.5374
16738SOL     OW62192   1.267   5.819   8.167 -0.4482  0.1006  0.1791
16738SOL    HW162193   1.252   5.910   8.144 -2.4131 -0.3437 -0.4679
16738SOL    HW262194   1.340   5.791   8.112 -0.1894  1.1308 -0.0054
16739SOL     OW62195   6.939   2.042  11.745  0.1548  0.1699  0.2618
16739SOL    HW162196   6.932   2.124  11.793 -3.1442  0.2771 -0.1735
16739SOL    HW262197   6.911   1.975  11.808 -0.1329 -0.2237 -0.2778
16740SOL     OW62198   2.216   9.480   7.165 -0.7419 -0.6765  0.2018
16740SOL    HW162199   2.291   9.537   7.151 -1.6555  1.1492  2.1426
16740SOL    HW262200   2.240   9.397   7.123  0.8490  0.9257 -2.2837
16741SOL     OW62201   5.197  10.837   5.126 -0.4260  0.0390 -0.4842
16741SOL    HW162202   5.182  10.867   5.036 -0.4263  0.2798 -0.4039
16741SOL    HW262203   5.150  10.754   5.131  0.2323 -0.3773 -0.9492
16742SOL     OW62204  11.619  12.617   6.115 -0.0607  0.7622 -0.2709
16742SOL    HW162205  11.660  12.599   6.031  0.5141  1.0575 -0.0626
16742SOL    HW262206  11.571  12.538   6.136 -0.5330  0.8302 -1.0583
16743SOL     OW62207   2.680  11.265  12.145 -0.0738  0.3545 -0.7996
16743SOL    HW162208   2.680  11.245  12.051  1.8958  1.2019 -1.0310
16743SOL    HW262209   2.772  11.280  12.166 -0.6904  2.2395  0.8265
16744SOL     OW62210  13.229  14.041   5.998 -0.7476 -0.2938  0.2905
16744SOL    HW162211  13.297  14.021   5.934 -0.3325  3.0755 -0.5181
16744SOL    HW262212  13.276  14.059   6.080 -0.5226  2.1982 -0.3093
16745SOL     OW62213   3.830   0.400  12.323 -0.3200 -0.0659 -0.2899
16745SOL    HW162214   3.902   0.337  12.330  1.0053  1.3445 -0.7905
16745SOL    HW262215   3.805   0.418  12.413  0.7222  0.2769 -0.0617
16746SOL     OW62216   1.517  10.373   8.838 -0.4552 -0.4775 -0.1425
16746SOL    HW162217   1.491  10.297   8.891 -0.0436 -1.0527 -0.7513
16746SOL    HW262218   1.496  10.347   8.748  0.3872 -0.1747 -0.4346
16747SOL     OW62219   6.292   7.772   6.182 -0.0154 -0.1530 -0.0279
16747SOL    HW162220   6.305   7.760   6.276  0.6049 -1.2665 -0.2437
16747SOL    HW262221   6.200   7.748   6.168 -0.5568  1.4261  0.4854
16748SOL     OW62222   2.295   1.252   8.326  0.5321  0.2148  0.5090
16748SOL    HW162223   2.319   1.345   8.317 -0.4455  0.4872  0.5889
16748SOL    HW262224   2.318   1.214   8.241  0.2389  0.6998  0.2043
16749SOL     OW62225   5.762  10.249   6.168  0.2158 -0.4674  0.3539
16749SOL    HW162226   5.783  10.157   6.179  0.2260 -0.5804 -0.5363
16749SOL    HW262227   5.809  10.275   6.089 -1.0155 -0.1047 -0.2908
16750SOL     OW62228   2.863  10.638   3.792  0.8158  1.1686  0.0573
16750SOL    HW162229   2.792  10.623   3.853  1.2249  1.5772  0.6474
16750SOL    HW262230   2.903  10.721   3.820  1.7085  0.8019 -0.0730
16751SOL     OW62231   3.207  10.830  11.471  0.4134 -0.5894 -0.0860
16751SOL    HW162232   3.211  10.794  11.559  1.4078  0.8099  0.4809
16751SOL    HW262233   3.298  10.830  11.441  0.2212 -0.0688 -0.6905
16752SOL     OW62234   1.037   5.805   5.951 -0.0197 -0.4471  0.1742
16752SOL    HW162235   0.963   5.819   6.010 -0.6266 -1.1164 -0.4008
16752SOL    HW262236   1.110   5.785   6.009 -0.6838 -1.4500  0.7046
16753SOL     OW62237   1.691  12.594  13.455  0.0445 -0.4693  0.8235
16753SOL    HW162238   1.701  12.571  13.362 -1.8669  1.7052 -0.0171
16753SOL    HW262239   1.596  12.606  13.466  0.3682  0.7769  2.6731
16754SOL     OW62240   8.374   4.380   3.949 -0.7971  0.0996  0.1022
16754SOL    HW162241   8.298   4.409   3.897 -1.4134 -0.6303  0.5780
16754SOL    HW262242   8.344   4.299   3.991  0.0804  0.0832  0.7030
16755SOL     OW62243  12.179  10.808   9.622 -0.3913 -1.0685 -0.0629
16755SOL    HW162244  12.106  10.745   9.623 -0.6405 -0.8498 -1.7203
16755SOL    HW262245  12.180  10.842   9.533  1.4041 -0.6402  0.0820
16756SOL     OW62246   3.763   0.372  13.933  0.5254 -0.3799  0.0642
16756SOL    HW162247   3.825   0.419  13.877  0.0344  0.4468  0.1832
16756SOL    HW262248   3.701   0.332  13.872 -0.6134  1.3700 -0.0130
16757SOL     OW62249  12.726  11.117   4.784  0.3119 -0.8037  0.4334
16757SOL    HW162250  12.700  11.062   4.857 -1.7750  2.5761  2.4981
16757SOL    HW262251  12.646  11.130   4.733  0.6611  0.4785  0.1687
16758SOL     OW62252   9.959   4.469   8.415  0.2686  0.2666 -0.0927
16758SOL    HW162253   9.917   4.517   8.487  1.1356  1.7192 -0.5190
16758SOL    HW262254  10.052   4.472   8.435  0.2973 -4.4710  1.8036
16759SOL     OW62255  12.288   6.261  13.537 -0.2493 -0.2966  0.0431
16759SOL    HW162256  12.290   6.185  13.594 -0.5455  0.3119  0.8887
16759SOL    HW262257  12.201   6.300  13.551 -0.9454 -0.9874 -1.9942
16760SOL     OW62258   1.019   3.186  11.539  0.1607  0.0298  0.0690
16760SOL    HW162259   1.102   3.162  11.497  0.1206  0.6397 -0.3842
16760SOL    HW262260   0.958   3.118  11.512  0.0940  0.5079 -1.0373
16761SOL     OW62261   1.015   6.053   5.467  0.5405  0.5225  0.4845
16761SOL    HW162262   0.989   6.009   5.548  0.1509 -0.5781 -0.2114
16761SOL    HW262263   1.110   6.045   5.465  0.3967 -1.7195 -0.3652
16762SOL     OW62264  12.489   9.754   2.948  0.2681 -0.0137  0.2722
16762SOL    HW162265  12.411   9.808   2.936  0.9893  1.2224  0.9304
16762SOL    HW262266  12.475   9.678   2.890 -1.9033 -0.3974  1.1954
16763SOL     OW62267   7.461   4.758   8.242 -0.1446  0.3086 -0.0140
16763SOL    HW162268   7.466   4.813   8.164  0.2440  0.4999  0.1416
16763SOL    HW262269   7.501   4.812   8.311 -0.0668 -0.0411  0.2138
16764SOL     OW62270   3.265  12.081  12.331 -0.1440  0.0928 -0.2118
16764SOL    HW162271   3.281  12.160  12.280 -0.3737  0.6497  0.5615
16764SOL    HW262272   3.351  12.042  12.344  0.2835  1.4357  1.3284
16765SOL     OW62273   5.420   9.220  10.839  0.6363  0.2868  0.0944
16765SOL    HW162274   5.347   9.192  10.894  0.3277  1.3383  0.2454
16765SOL    HW262275   5.396   9.191  10.751 -0.6187  1.7522 -0.0891
16766SOL     OW62276   7.094   2.612  13.328 -0.4267  0.3570 -0.4252
16766SOL    HW162277   7.150   2.556  13.275  0.6186  1.9614 -1.0940
16766SOL    HW262278   7.086   2.566  13.411  1.5269 -0.1650 -0.4785
16767SOL     OW62279   7.834  12.644   9.128 -0.4938  0.1574 -0.3786
16767SOL    HW162280   7.741  12.635   9.107 -1.0944  1.0638  1.6360
16767SOL    HW262281   7.849  12.581   9.198  0.2769  0.3913 -0.3253
16768SOL     OW62282  11.316   6.196   0.285  0.4027  0.5733 -0.3132
16768SOL    HW162283  11.314   6.289   0.307 -0.5143  0.7519 -1.0926
16768SOL    HW262284  11.253   6.187   0.213  1.7058 -0.3506 -1.3835
16769SOL     OW62285   1.027   1.408  12.494  0.0759 -0.4135 -0.0738
16769SOL    HW162286   0.965   1.426  12.424 -0.0540  0.5263  0.2695
16769SOL    HW262287   1.108   1.382  12.449  0.1719  0.7529 -0.5909
16770SOL     OW62288  13.825   9.964  11.587  0.4894  0.0268 -0.0032
16770SOL    HW162289  13.866  10.048  11.563 -0.1010  0.3125 -0.0239
16770SOL    HW262290  13.741   9.965  11.541 -0.1394  0.0488  1.1150
16771SOL     OW62291  12.452   8.125  10.184  0.3128 -0.4279 -0.2291
16771SOL    HW162292  12.477   8.043  10.226 -0.1501 -0.1800  0.5583
16771SOL    HW262293  12.397   8.169  10.249  0.1662  0.2901 -0.8280
16772SOL     OW62294  11.739   7.582  13.338  0.0962 -0.3252  0.0370
16772SOL    HW162295  11.828   7.562  13.364  0.4272 -1.2858 -1.6908
16772SOL    HW262296  11.748   7.622  13.251 -1.1709 -0.7067 -0.2883
16773SOL     OW62297   0.204   1.733  13.264  0.2522  0.1881  0.1859
16773SOL    HW162298   0.150   1.658  13.288  0.5557  0.0343  0.4007
16773SOL    HW262299   0.148   1.787  13.208  0.5631 -1.0274 -1.3554
16774SOL     OW62300   0.187   3.427   9.232  0.0238  0.1343  1.2698
16774SOL    HW162301   0.101   3.414   9.192 -0.2224 -0.9978  2.1246
16774SOL    HW262302   0.168   3.457   9.321  0.4573 -1.6025  1.9789
16775SOL     OW62303  13.513  12.539   9.288  0.1916 -0.4943  0.4894
16775SOL    HW162304  13.473  12.480   9.224 -0.5704  0.3010  0.2173
16775SOL    HW262305  13.471  12.515   9.371  0.3596 -0.7675  0.4977
16776SOL     OW62306   7.347   9.240   9.853  0.3947 -0.3287 -0.0278
16776SOL    HW162307   7.395   9.158   9.864  0.2491 -0.3434  0.5808
16776SOL    HW262308   7.322   9.242   9.761 -0.8840 -1.7044  0.2438
16777SOL     OW62309   8.837  12.795   9.278  0.3989  0.3926  0.0493
16777SOL    HW162310   8.831  12.770   9.371  0.5480  1.7649  0.4391
16777SOL    HW262311   8.817  12.888   9.277 -0.1607  0.2746 -1.3828
16778SOL     OW62312   8.718   1.012  10.990 -0.0141 -0.2953  0.7282
16778SOL    HW162313   8.747   0.949  10.924 -0.5781  1.9936 -1.9071
16778SOL    HW262314   8.797   1.058  11.016  0.0107 -0.2976  0.6561
16779SOL     OW62315   9.492   4.341  10.600  0.6927  0.0230 -0.1303
16779SOL    HW162316   9.585   4.324  10.614  0.8248  1.4963  0.8847
16779SOL    HW262317   9.459   4.260  10.560  2.1579 -0.9597  0.5774
16780SOL     OW62318  10.014  12.646   1.458  0.2201  0.0395  0.3477
16780SOL    HW162319  10.012  12.551   1.451 -1.1280 -0.0675  1.7782
16780SOL    HW262320   9.994  12.677   1.370 -1.4106 -1.0280  0.3032
16781SOL     OW62321  12.423  10.953   1.109  0.2548  0.1588 -0.2388
16781SOL    HW162322  12.424  10.917   1.198 -4.3012 -0.0823 -0.0701
16781SOL    HW262323  12.458  10.882   1.055 -1.5056 -1.7074  0.9105
16782SOL     OW62324   7.400   4.361   4.276 -0.1537  0.5117 -0.1101
16782SOL    HW162325   7.432   4.382   4.364 -1.2491  1.9108  0.0056
16782SOL    HW262326   7.320   4.311   4.290  0.9607 -1.4613 -0.3817
16783SOL     OW62327   3.596   7.428   9.364  0.2508 -0.5386  0.4912
16783SOL    HW162328   3.564   7.489   9.298  1.4830 -1.1236 -0.6684
16783SOL    HW262329   3.688   7.414   9.343  0.2764 -1.9492  1.3963
16784SOL     OW62330   5.927   2.562   5.750 -0.0834 -0.1897  0.3155
16784SOL    HW162331   5.989   2.564   5.823 -0.4924 -0.7458  0.6782
16784SOL    HW262332   5.925   2.471   5.722  0.3822  0.0838 -0.6688
16785SOL     OW62333   9.089   8.482   1.672  0.4476  0.1155  0.2691
16785SOL    HW162334   9.096   8.547   1.741 -0.2318 -0.3459  0.7860
16785SOL    HW262335   9.040   8.526   1.602 -2.4548 -0.6320  1.6912
16786SOL     OW62336   3.662  10.544   0.221  0.2031  0.2001 -0.2524
16786SOL    HW162337   3.752  10.534   0.253  0.0037  1.4270  0.7898
16786SOL    HW262338   3.671  10.596   0.140  0.4444  0.1014 -0.2889
16787SOL     OW62339   8.036  13.725   3.955  0.4009  0.1145  0.0238
16787SOL    HW162340   8.057  13.805   3.907  0.5967  1.3955  2.1343
16787SOL    HW262341   7.988  13.755   4.032 -0.5521 -1.9200  0.2981
16788SOL     OW62342  13.587   1.448  12.750  0.2947  0.2732  0.0847
16788SOL    HW162343  13.572   1.373  12.693 -0.2897  0.6457 -0.2695
16788SOL    HW262344  13.584   1.524  12.691  0.2564  0.6215  0.5227
16789SOL     OW62345  13.962  11.371   1.750  0.4278 -0.4519 -0.2636
16789SOL    HW162346  13.929  11.398   1.665 -1.6765 -1.9592 -0.0104
16789SOL    HW262347  14.017  11.295   1.732  2.1437  0.7969 -0.4821
16790SOL     OW62348  11.152   2.851  13.482 -0.3293 -0.0325  0.5114
16790SOL    HW162349  11.235   2.822  13.521  0.0814 -0.1718 -0.4523
16790SOL    HW262350  11.169   2.853  13.388 -1.1423  0.8402  0.3733
16791SOL     OW62351   5.336   4.873  10.439  0.3256  0.0601 -0.2497
16791SOL    HW162352   5.426   4.859  10.467  0.7488 -0.2240 -1.6508
16791SOL    HW262353   5.312   4.958  10.476  2.0141  1.3137 -1.8305
16792SOL     OW62354   8.325   3.812   6.020 -0.3240 -0.6914  0.1559
16792SOL    HW162355   8.394   3.769   5.969 -1.4981  0.1532 -2.2892
16792SOL    HW262356   8.334   3.905   6.000  0.3050 -0.0496  3.0291
16793SOL     OW62357  11.323   9.336   3.604 -0.3822 -0.0459  0.1416
16793SOL    HW162358  11.417   9.348   3.616 -0.4883  1.9610 -0.6388
16793SOL    HW262359  11.316   9.276   3.530  0.2906  0.1392 -0.0801
16794SOL     OW62360   7.111   3.941   2.106  0.1893 -0.1406 -0.1647
16794SOL    HW162361   7.171   3.899   2.168 -0.1006 -0.9356 -0.4130
16794SOL    HW262362   7.035   3.883   2.104 -1.7495  2.1307  2.1001
16795SOL     OW62363  13.556   8.260   1.432  0.6194 -0.6517  0.9525
16795SOL    HW162364  13.460   8.256   1.437  0.2282  2.3999 -1.0671
16795SOL    HW262365  13.581   8.313   1.508  0.1236  2.3003 -0.8040
16796SOL     OW62366   4.638   2.191   6.664  0.0811  0.1724  0.2881
16796SOL    HW162367   4.607   2.244   6.591  0.0147  1.5056  1.2614
16796SOL    HW262368   4.596   2.106   6.651  1.6317 -0.3255 -2.3422
16797SOL     OW62369  13.083   3.607   2.438  0.0451 -0.1156  0.0320
16797SOL    HW162370  13.146   3.642   2.375 -0.1041  0.6941  0.3099
16797SOL    HW262371  13.136   3.569   2.507  0.2130 -0.6826 -0.4035
16798SOL     OW62372   5.100  12.267  10.089  0.5842  0.1047 -0.1146
16798SOL    HW162373   5.185  12.269  10.044  1.4480 -1.1252  1.3702
16798SOL    HW262374   5.062  12.182  10.065 -0.5814  0.9286 -1.3216
16799SOL     OW62375   3.476   7.680   9.640 -0.0648 -0.7377  0.4193
16799SOL    HW162376   3.509   7.757   9.686 -1.3319 -0.7652  1.4455
16799SOL    HW262377   3.501   7.606   9.695 -0.1363 -0.9235  0.2046
16800SOL     OW62378  12.141  10.739   3.049 -0.6595  0.0346 -0.0888
16800SOL    HW162379  12.100  10.823   3.072  1.8177  0.8440  1.9418
16800SOL    HW262380  12.195  10.718   3.125  0.4263 -2.3826 -1.4171
16801SOL     OW62381   6.752   9.820   0.559 -0.1012 -0.0155  0.5566
16801SOL    HW162382   6.705   9.871   0.493 -0.8253 -0.2292  0.8954
16801SOL    HW262383   6.844   9.838   0.542 -0.2793  0.0035 -0.4591
16802SOL     OW62384   9.272  13.648   2.741  0.0625 -0.1067  0.3929
16802SOL    HW162385   9.262  13.590   2.817 -0.2660 -0.4910  0.0634
16802SOL    HW262386   9.192  13.701   2.742  0.1013 -0.0486  0.3741
16803SOL     OW62387   1.037   0.043   5.637 -0.1908  0.1788 -0.1094
16803SOL    HW162388   0.969   0.052   5.704  1.0837  1.4615  1.0856
16803SOL    HW262389   1.059  -0.050   5.638 -0.6072  0.0743  0.8578
16804SOL     OW62390  13.954   2.315   9.466 -0.7511 -0.7053 -0.0126
16804SOL    HW162391  14.003   2.275   9.394  0.5885 -2.2405  1.6669
16804SOL    HW262392  14.020   2.361   9.518 -1.3847 -1.1063  1.1917
16805SOL     OW62393   6.060   4.951   1.071  0.5534  0.1590 -0.6691
16805SOL    HW162394   6.045   4.865   1.034 -1.9107  0.5707 -0.7712
16805SOL    HW262395   6.112   4.997   1.005  1.2074 -0.9586 -0.9581
16806SOL     OW62396   7.481  11.584   7.623  0.0980  0.1500  0.3195
16806SOL    HW162397   7.453  11.626   7.704  2.2144  0.5495  0.9085
16806SOL    HW262398   7.405  11.591   7.565 -0.8757  1.4189  1.6558
16807SOL     OW62399   6.302   6.225   6.020  0.4314 -0.1876 -0.2579
16807SOL    HW162400   6.274   6.297   5.964  0.9688 -1.0704 -1.6986
16807SOL    HW262401   6.306   6.264   6.108  2.1231  1.9358 -1.1970
16808SOL     OW62402   0.220   7.498   0.216  0.2642  0.0376 -0.3147
16808SOL    HW162403   0.259   7.503   0.129 -0.1278 -0.5220 -0.5284
16808SOL    HW262404   0.134   7.538   0.206  1.3330  2.7881  0.5259
16809SOL     OW62405   1.035   4.658   6.712 -0.1870  0.3096 -0.1802
16809SOL    HW162406   1.046   4.690   6.802  1.0981 -0.4197 -0.0483
16809SOL    HW262407   1.103   4.701   6.662  0.4930 -0.9014 -0.3423
16810SOL     OW62408  12.420   4.648  14.002  0.1683 -0.3195  0.3020
16810SOL    HW162409  12.504   4.693  13.990 -0.5515  0.9713 -0.0739
16810SOL    HW262410  12.362   4.688  13.936 -1.1235 -0.1921  1.4791
16811SOL     OW62411  10.171  10.322   0.162  0.2901 -0.2567  0.2036
16811SOL    HW162412  10.266  10.318   0.160  0.2839 -2.7231  0.8842
16811SOL    HW262413  10.150  10.359   0.248  0.6874 -1.7019  0.9597
16812SOL     OW62414   8.004   8.592   4.268 -0.3376  0.0099 -0.2679
16812SOL    HW162415   8.086   8.640   4.252 -1.0109  0.8182 -1.5172
16812SOL    HW262416   7.999   8.529   4.196  0.2812 -1.6426  1.0789
16813SOL     OW62417  11.548   7.347  12.246  0.1861 -0.1931  0.1668
16813SOL    HW162418  11.484   7.306  12.187  1.0792 -0.9416 -0.3086
16813SOL    HW262419  11.624   7.288  12.244  1.3603  1.2713 -0.1979
16814SOL     OW62420   0.897   4.402   8.978 -0.7070  0.5611  0.2825
16814SOL    HW162421   0.868   4.490   8.954  0.6185  0.9476  0.0396
16814SOL    HW262422   0.898   4.403   9.074 -1.1445  0.6551  0.2878
16815SOL     OW62423   0.005  11.757   7.297  0.4621 -0.2107  0.0471
16815SOL    HW162424   0.060  11.679   7.303 -0.9537 -1.1383  1.6773
16815SOL    HW262425   0.025  11.807   7.376  0.4890  0.5217 -0.4048
16816SOL     OW62426   3.466   6.266  11.436  0.0348  0.0198  0.8380
16816SOL    HW162427   3.418   6.322  11.497 -0.2578 -0.2097  0.8222
16816SOL    HW262428   3.520   6.211  11.491 -0.0213  0.0027  0.8757
16817SOL     OW62429   9.228  12.806   3.560 -0.1717  0.8377  1.0292
16817SOL    HW162430   9.156  12.748   3.532 -0.0665  1.3171 -0.2933
16817SOL    HW262431   9.293  12.746   3.597 -0.9103  0.3197  1.5360
16818SOL     OW62432   8.243   9.967   7.467  0.6702 -0.3011  0.3218
16818SOL    HW162433   8.209  10.026   7.534  0.4134  1.8482 -1.5669
16818SOL    HW262434   8.164   9.927   7.429  0.6407  0.1736 -0.1323
16819SOL     OW62435   3.636   5.783  13.015 -0.4726 -0.2588  0.3964
16819SOL    HW162436   3.618   5.700  12.971 -0.9838  0.5743 -1.0233
16819SOL    HW262437   3.697   5.828  12.957  1.7487 -0.6024  2.3216
16820SOL     OW62438  11.917   8.509  12.501 -0.2185  0.3247  0.1234
16820SOL    HW162439  11.868   8.490  12.420 -0.9182  1.0510  0.3573
16820SOL    HW262440  11.956   8.595  12.485 -0.1710  0.3681  0.4671
16821SOL     OW62441   9.450   7.656  12.366 -0.1213  0.4638  0.7626
16821SOL    HW162442   9.463   7.751  12.365 -0.6844  0.5481  1.2343
16821SOL    HW262443   9.476   7.630  12.454  0.0427  0.1787  0.6280
16822SOL     OW62444   8.328   8.858   6.203  0.2913  0.1898 -0.1349
16822SOL    HW162445   8.274   8.807   6.263  1.8209 -0.6880  0.5774
16822SOL    HW262446   8.314   8.818   6.118 -0.9203  0.6226 -0.1596
16823SOL     OW62447   4.772  10.286  12.751 -0.4004  0.5308 -0.0593
16823SOL    HW162448   4.721  10.242  12.820  0.3658 -0.0784  0.1387
16823SOL    HW262449   4.745  10.243  12.670 -2.8133  2.6029 -0.4761
16824SOL     OW62450   3.211  12.129  12.641 -0.1847 -0.5121  0.3447
16824SOL    HW162451   3.303  12.119  12.664  0.3637 -1.0921 -1.8673
16824SOL    HW262452   3.211  12.161  12.550 -2.1630  0.3978  0.5972
16825SOL     OW62453   6.481   0.217   8.694  0.0339  0.2476  0.2346
16825SOL    HW162454   6.402   0.201   8.745 -0.2889  0.8551 -0.0592
16825SOL    HW262455   6.454   0.282   8.628  1.1952  1.8048  1.2189
16826SOL     OW62456  11.840  11.009   8.998 -0.1957  0.0208 -0.4615
16826SOL    HW162457  11.757  11.056   9.004 -0.3589 -0.3558  0.4302
16826SOL    HW262458  11.815  10.918   8.981 -0.0039 -0.2226  0.5233
16827SOL     OW62459  12.382   4.265   9.356 -0.7580  0.0553 -0.0915
16827SOL    HW162460  12.463   4.316   9.367  0.1484 -1.2622 -0.3829
16827SOL    HW262461  12.355   4.243   9.445  0.3901 -1.2477 -0.0338
16828SOL     OW62462   8.649   0.953   2.280  0.4646  0.6023  0.1583
16828SOL    HW162463   8.653   0.868   2.236 -0.3529 -0.7928  2.5910
16828SOL    HW262464   8.712   0.946   2.352  0.8259  2.3057  0.0459
16829SOL     OW62465   8.602   2.183  10.648 -0.4948  0.0340  0.1750
16829SOL    HW162466   8.520   2.206  10.605 -0.6828 -0.2651  0.3709
16829SOL    HW262467   8.640   2.267  10.675 -0.6077  0.1901 -0.1454
16830SOL     OW62468   0.982  13.507   7.094 -0.0953 -0.0215  0.5548
16830SOL    HW162469   1.070  13.503   7.057  0.0812 -0.4895  1.0251
16830SOL    HW262470   0.987  13.459   7.176 -0.7285  0.1688  0.7152
16831SOL     OW62471  11.816   9.943   7.574  0.1124  0.3476  0.3180
16831SOL    HW162472  11.842   9.929   7.483  0.7371  1.4464  0.3056
16831SOL    HW262473  11.895   9.978   7.616  0.5960 -2.3548  1.8912
16832SOL     OW62474   8.882   0.191   2.705  0.3472  0.0684 -0.3999
16832SOL    HW162475   8.892   0.286   2.704 -0.1828  0.2974  3.3226
16832SOL    HW262476   8.793   0.176   2.671  0.4259  0.8874 -0.9876
16833SOL     OW62477   9.736  12.972   9.773  0.0453 -0.1570  0.1325
16833SOL    HW162478   9.764  13.007   9.858 -0.3837  2.8572 -0.8211
16833SOL    HW262479   9.641  12.979   9.774  0.0445  0.1175 -0.6543
16834SOL     OW62480   3.570   7.117  13.422  0.0200 -0.1563  0.3414
16834SOL    HW162481   3.621   7.091  13.345  0.8850  0.1382  0.8018
16834SOL    HW262482   3.628   7.177  13.469 -0.6820  0.0209  0.9836
16835SOL     OW62483   5.358  11.906   1.000  0.2448  0.2720  0.4783
16835SOL    HW162484   5.440  11.874   0.962  0.5621  0.6039  0.8772
16835SOL    HW262485   5.355  11.999   0.976 -0.1656  0.1975  0.2133
16836SOL     OW62486   5.505   9.777  12.524 -0.1623  0.0130 -0.2965
16836SOL    HW162487   5.456   9.740  12.597 -1.0175 -0.7175 -1.2155
16836SOL    HW262488   5.527   9.866  12.552 -2.2331  0.4532  0.0570
16837SOL     OW62489  13.006  11.769   5.219  0.0499 -0.2870 -0.4561
16837SOL    HW162490  13.084  11.825   5.216 -1.0613  1.3659  0.1125
16837SOL    HW262491  12.978  11.772   5.310  0.7886 -3.0704 -0.0343
16838SOL     OW62492  12.444   1.296   5.659 -0.1759 -0.4324 -0.3927
16838SOL    HW162493  12.484   1.354   5.724  0.3566 -0.6295 -0.5413
16838SOL    HW262494  12.355   1.330   5.648  0.9917  2.2836 -2.6931
16839SOL     OW62495  10.969   2.972   3.567 -0.6297 -0.3394 -0.0044
16839SOL    HW162496  10.880   2.984   3.600 -0.5724 -1.3826  0.5984
16839SOL    HW262497  10.989   3.053   3.521 -1.8537 -0.0486 -0.0679
16840SOL     OW62498   5.425   7.796   5.391  0.5731  0.4079  0.2617
16840SOL    HW162499   5.419   7.708   5.430  1.3620  0.9589  1.7220
16840SOL    HW262500   5.342   7.837   5.414 -0.0812 -0.1613 -1.0124
16841SOL     OW62501   3.618  12.167   9.515 -0.7242 -0.1202 -0.5972
16841SOL    HW162502   3.648  12.079   9.495  1.7461  0.2766  0.9368
16841SOL    HW262503   3.619  12.212   9.430 -0.7718 -1.2050 -1.1914
16842SOL     OW62504   4.791   8.563  12.564 -0.1034 -0.0359 -0.0514
16842SOL    HW162505   4.736   8.490  12.592 -0.4554  0.1374 -0.2902
16842SOL    HW262506   4.848   8.525  12.496 -0.2342 -0.1099 -0.1208
16843SOL     OW62507  13.495   6.945   9.764  0.6250  0.9990 -0.1585
16843SOL    HW162508  13.473   6.996   9.685 -1.0365 -0.4615 -0.7084
16843SOL    HW262509  13.531   6.864   9.730 -1.1641 -0.1240  0.4920
16844SOL     OW62510  12.671   4.917  13.597 -0.0252  0.5880 -0.3571
16844SOL    HW162511  12.712   4.975  13.533 -0.1946  0.6995 -0.3668
16844SOL    HW262512  12.681   4.829  13.559  1.9351  0.3633  0.5616
16845SOL     OW62513   6.708  13.034   4.664  0.0652 -0.0503 -0.7488
16845SOL    HW162514   6.757  12.953   4.648 -0.7764 -1.1168  1.5822
16845SOL    HW262515   6.731  13.059   4.754 -1.1214  1.2620 -0.7718
16846SOL     OW62516  12.898   2.940   1.100  0.4174 -0.2764  0.3612
16846SOL    HW162517  12.942   2.861   1.068 -0.4731 -1.5698  2.1596
16846SOL    HW262518  12.915   2.940   1.194 -1.6448  0.2896  0.7881
16847SOL     OW62519  10.690   0.837   8.921  0.2007  0.6388 -0.1147
16847SOL    HW162520  10.601   0.871   8.909 -0.1830 -0.0243  0.8013
16847SOL    HW262521  10.726   0.886   8.994 -0.0847 -0.3718  0.7229
16848SOL     OW62522  12.129   6.706  10.765  0.1237 -0.1123  0.3264
16848SOL    HW162523  12.075   6.639  10.808  1.6755 -0.8370  1.2144
16848SOL    HW262524  12.183   6.657  10.703 -0.0759  0.5923 -0.4308
16849SOL     OW62525   8.704  13.297  11.389  0.7621  0.0061  0.3889
16849SOL    HW162526   8.668  13.309  11.302 -0.3143 -0.7568  0.7145
16849SOL    HW262527   8.628  13.287  11.446  1.4493  0.4729  1.4130
16850SOL     OW62528   7.137  10.372  13.559 -0.0461 -0.2777  0.0944
16850SOL    HW162529   7.114  10.434  13.628 -1.2371  0.3853 -0.8614
16850SOL    HW262530   7.170  10.427  13.488  1.6175 -0.9836  0.2799
16851SOL     OW62531  12.509   6.114  13.419 -0.1880 -0.0801  0.0103
16851SOL    HW162532  12.449   6.180  13.455  0.6387  0.7279 -0.0679
16851SOL    HW262533  12.594   6.134  13.458  0.7252  0.7767 -2.2617
16852SOL     OW62534   5.793   9.849   3.262 -0.0589  0.4666 -0.5423
16852SOL    HW162535   5.840   9.773   3.297 -2.5854 -0.6860  0.5709
16852SOL    HW262536   5.751   9.889   3.338 -2.8041  0.0040 -1.6849
16853SOL     OW62537  13.174   9.802   7.075 -0.7142 -0.0036 -0.0348
16853SOL    HW162538  13.242   9.780   7.011 -0.5094  0.0078  0.1770
16853SOL    HW262539  13.197   9.751   7.153 -0.9612 -0.0158  0.0289
16854SOL     OW62540   0.188   5.772   6.320  0.7384 -0.3717  0.4709
16854SOL    HW162541   0.181   5.790   6.226 -0.8834 -0.8384  0.4634
16854SOL    HW262542   0.264   5.822   6.349  0.9813  0.1580 -0.9977
16855SOL     OW62543   1.502   1.076   7.656 -0.1482  0.1411 -0.4725
16855SOL    HW162544   1.521   1.047   7.566 -0.2596 -0.0947 -0.4211
16855SOL    HW262545   1.480   1.168   7.647 -0.0417  0.1493 -0.6735
16856SOL     OW62546   0.224   9.726   9.207 -0.9583 -0.0377  0.6575
16856SOL    HW162547   0.146   9.672   9.220  0.6790 -3.3340 -1.8850
16856SOL    HW262548   0.205   9.777   9.129 -0.5438 -0.9948 -0.0836
16857SOL     OW62549   2.315  13.508  11.278  0.6080 -0.0649 -0.4464
16857SOL    HW162550   2.367  13.557  11.341  0.5064  0.9655 -1.1372
16857SOL    HW262551   2.355  13.526  11.193  0.1885 -0.6761 -0.7887
16858SOL     OW62552   0.597   6.610   7.882 -0.0143  0.0854 -0.3526
16858SOL    HW162553   0.652   6.621   7.959  0.5748  2.7548 -1.0722
16858SOL    HW262554   0.657   6.586   7.811 -0.0690  0.8106 -0.6556
16859SOL     OW62555   3.620   5.087   8.369 -0.7408 -0.3456 -0.1422
16859SOL    HW162556   3.700   5.139   8.354  0.1285 -1.5739  0.0394
16859SOL    HW262557   3.565   5.106   8.293 -0.5685  1.0359  0.0559
16860SOL     OW62558   1.626   2.687   8.466 -0.6312 -0.1831  0.5167
16860SOL    HW162559   1.573   2.608   8.460  0.0876 -0.5868 -0.7691
16860SOL    HW262560   1.698   2.664   8.525 -0.9337 -0.1889  0.8818
16861SOL     OW62561   9.917  11.147   7.849  0.2037 -0.3332 -0.5765
16861SOL    HW162562   9.999  11.137   7.800  0.8448  2.3822 -0.2194
16861SOL    HW262563   9.848  11.144   7.782  0.9111  1.1456 -1.4193
16862SOL     OW62564  13.687   1.829   6.970 -0.1290 -0.1713  0.6742
16862SOL    HW162565  13.746   1.789   7.033 -0.8232  0.8857  2.0571
16862SOL    HW262566  13.657   1.756   6.915  2.6214 -0.6899 -0.2842
16863SOL     OW62567  12.176   8.807  13.850 -0.0842 -0.7015 -0.4548
16863SOL    HW162568  12.261   8.804  13.806  0.0455  0.2417 -0.2920
16863SOL    HW262569  12.173   8.893  13.891 -0.9928 -0.8438 -0.1890
16864SOL     OW62570   6.725  11.900  13.360  0.1317 -0.1764  0.2549
16864SOL    HW162571   6.740  11.888  13.266 -0.8255  0.4606  0.0032
16864SOL    HW262572   6.630  11.894  13.369  0.3348 -3.0782  1.6094
16865SOL     OW62573   9.024   3.968  12.644  0.0059 -0.3398  0.4413
16865SOL    HW162574   9.100   3.910  12.640 -0.0407 -0.5563  2.0530
16865SOL    HW262575   8.951   3.910  12.663 -0.5938 -0.1335 -1.1261
16866SOL     OW62576  10.837   0.483  10.011 -0.2462  0.5681 -0.1227
16866SOL    HW162577  10.892   0.443  10.079 -0.2264  1.9480  0.7019
16866SOL    HW262578  10.748   0.460  10.037 -0.1515 -2.5339 -2.0022
16867SOL     OW62579   1.976  11.727  10.306  0.2997 -0.0451 -0.4478
16867SOL    HW162580   1.945  11.782  10.234 -0.3119  1.1123  0.6608
16867SOL    HW262581   1.906  11.662  10.318 -1.7594  2.3683  1.8337
16868SOL     OW62582   2.919   8.079   5.000  0.2880  0.4860  0.2278
16868SOL    HW162583   2.890   8.069   5.091  0.2870 -2.4750 -0.0060
16868SOL    HW262584   2.994   8.020   4.992 -0.0147  0.3002 -1.8158
16869SOL     OW62585  12.178   8.033  11.392  0.4790  0.2243  0.1251
16869SOL    HW162586  12.144   7.944  11.381  2.6532 -0.4894 -1.4739
16869SOL    HW262587  12.127   8.069  11.464 -0.1073 -2.4902  1.1875
16870SOL     OW62588  10.250   6.529   4.194  0.0276  0.3809 -0.5321
16870SOL    HW162589  10.203   6.548   4.113 -1.8836 -1.3842  0.0779
16870SOL    HW262590  10.247   6.612   4.243  0.5819  1.2599 -1.9066
16871SOL     OW62591   9.001   4.084  12.997 -0.3683 -0.0400 -0.1780
16871SOL    HW162592   8.934   4.117  13.057 -0.7024  0.1562 -0.6564
16871SOL    HW262593   8.952   4.037  12.930  0.0000 -0.1642 -0.3625
16872SOL     OW62594   4.637   7.869  10.467  0.0797  0.5028  0.1980
16872SOL    HW162595   4.698   7.937  10.439  0.6057  0.2583  0.7141
16872SOL    HW262596   4.565   7.874  10.405  1.0558  0.1773 -1.0009
16873SOL     OW62597   8.793  13.507   1.621  0.1355 -0.0567 -0.1247
16873SOL    HW162598   8.827  13.420   1.598  1.0092  0.0824  0.5903
16873SOL    HW262599   8.700  13.502   1.600 -0.0496 -1.5229  0.8744
16874SOL     OW62600   2.505  10.000   9.664  0.1176 -0.2757  0.8000
16874SOL    HW162601   2.574   9.981   9.727  1.9167  2.0064 -0.3243
16874SOL    HW262602   2.544   9.978   9.579  0.8837  3.9258 -0.1924
16875SOL     OW62603   4.601   8.674  10.663  0.2173  0.1734 -0.1539
16875SOL    HW162604   4.621   8.603  10.724 -0.0668 -1.4623 -1.8830
16875SOL    HW262605   4.687   8.705  10.633  0.5112  2.7532  2.8450
16876SOL     OW62606   3.055  13.538   8.317  0.1317 -0.0921  0.0823
16876SOL    HW162607   3.073  13.630   8.334 -0.5035  0.1219 -0.3748
16876SOL    HW262608   3.142  13.499   8.303  0.3848  0.4806  0.0376
16877SOL     OW62609   2.294  13.540   2.861  0.1354  0.2666 -0.3277
16877SOL    HW162610   2.286  13.486   2.939  1.5602  1.0698  0.4121
16877SOL    HW262611   2.251  13.489   2.792 -1.3961 -0.3386  1.0035
16878SOL     OW62612   3.310   6.901  11.826  0.3559 -0.1076  0.1827
16878SOL    HW162613   3.264   6.849  11.760  0.3282  0.5141 -0.2978
16878SOL    HW262614   3.260   6.983  11.832  0.5619 -0.0156  0.7209
16879SOL     OW62615   9.626   5.906   8.541 -0.2124 -0.0658  0.5709
16879SOL    HW162616   9.719   5.911   8.519 -0.5997  2.3565 -0.8657
16879SOL    HW262617   9.614   5.817   8.574  2.7914 -0.1216  1.7852
16880SOL     OW62618   7.528  12.284  13.937 -0.4486 -0.2118  0.4317
16880SOL    HW162619   7.531  12.292  14.032 -2.1919 -1.4315  0.6285
16880SOL    HW262620   7.561  12.196  13.919  0.5115  0.2587 -0.1568
16881SOL     OW62621   5.926   0.130   7.712 -0.4484  0.3999  0.0337
16881SOL    HW162622   5.872   0.200   7.748 -0.0793  0.7531 -0.1024
16881SOL    HW262623   5.870   0.052   7.718 -1.7564  1.1157 -1.9691
16882SOL     OW62624  10.730  11.995   2.377  0.0127 -0.1123 -0.2540
16882SOL    HW162625  10.776  11.913   2.360 -0.1124 -0.2631  0.1272
16882SOL    HW262626  10.644  11.983   2.337 -0.2856 -0.4709  0.4800
16883SOL     OW62627   5.856   0.713   5.768 -0.4289  0.0823 -0.2594
16883SOL    HW162628   5.905   0.651   5.714 -0.0574 -1.5187  1.8192
16883SOL    HW262629   5.896   0.798   5.747 -1.4425 -0.1418 -3.7192
16884SOL     OW62630  13.781   6.667   5.993 -0.4010 -0.0041  0.1882
16884SOL    HW162631  13.788   6.760   5.975 -0.2814 -0.2711 -1.2206
16884SOL    HW262632  13.756   6.663   6.086  0.1509  1.3993  0.4266
16885SOL     OW62633   1.570   8.812   3.871  0.4954  0.3295  0.6715
16885SOL    HW162634   1.528   8.748   3.812  0.1306  0.7124  0.5092
16885SOL    HW262635   1.499   8.871   3.896  0.4460 -0.3601  2.2427
16886SOL     OW62636   5.343  13.437   9.632  0.1822  0.0516  0.4273
16886SOL    HW162637   5.375  13.526   9.649  2.3495 -0.6224  0.1600
16886SOL    HW262638   5.301  13.410   9.714  1.8929  0.3718  1.4545
16887SOL     OW62639   8.788   2.376   1.217  0.6616 -0.3343  0.1538
16887SOL    HW162640   8.806   2.384   1.123 -1.5013 -3.0215 -0.6276
16887SOL    HW262641   8.716   2.436   1.233 -1.2747 -2.2493 -0.8036
16888SOL     OW62642   7.964   0.091   9.091  0.3615 -0.2344  0.0775
16888SOL    HW162643   7.905   0.139   9.150  1.6228  2.3426 -0.6147
16888SOL    HW262644   7.910   0.020   9.056 -2.2735  1.7648 -0.2504
16889SOL     OW62645   7.561   5.812   9.257 -0.0426 -0.0419 -0.0594
16889SOL    HW162646   7.590   5.849   9.340  1.0521 -2.0670  0.5183
16889SOL    HW262647   7.498   5.744   9.281  0.6019 -0.9360 -0.8429
16890SOL     OW62648   9.656  12.115  11.735  0.0791  0.4232 -0.7436
16890SOL    HW162649   9.580  12.164  11.702 -1.1053  0.3833  1.7296
16890SOL    HW262650   9.623  12.066  11.810  2.4527  0.0650  0.1689
16891SOL     OW62651   7.196  12.638  12.930 -0.0223 -0.3932  0.0314
16891SOL    HW162652   7.289  12.630  12.909 -0.0349  0.0524 -0.2020
16891SOL    HW262653   7.154  12.658  12.846 -0.5855 -2.4075 -0.2235
16892SOL     OW62654  13.531  12.041   3.515  0.0674  0.5834  0.1408
16892SOL    HW162655  13.589  12.104   3.557 -0.6296 -0.4057  2.7993
16892SOL    HW262656  13.452  12.091   3.494  0.8156  1.3221 -1.0207
16893SOL     OW62657  10.775   1.562   2.016  0.5765  0.1062  0.3327
16893SOL    HW162658  10.797   1.646   2.055  3.1916  1.5179 -3.5718
16893SOL    HW262659  10.743   1.584   1.928 -0.0137 -2.9364 -0.3246
16894SOL     OW62660   8.307   9.925   9.870  0.1880 -0.1057  0.0581
16894SOL    HW162661   8.290  10.007   9.917  1.4344  1.8743 -2.6585
16894SOL    HW262662   8.220   9.890   9.851 -0.3586 -0.1839  2.3801
16895SOL     OW62663   7.068   7.462  10.785  0.1528  0.8044  0.7041
16895SOL    HW162664   7.071   7.457  10.689 -1.6998  2.2977  0.5059
16895SOL    HW262665   7.123   7.390  10.814 -0.9895 -1.1205 -1.5016
16896SOL     OW62666   0.480  10.442   2.490 -0.1691  0.2117  0.1593
16896SOL    HW162667   0.522  10.526   2.475  1.1104 -0.0461  1.9908
16896SOL    HW262668   0.387  10.458   2.473  0.1182  1.8499 -0.0074
16897SOL     OW62669   2.170  13.490  12.947 -0.2551 -0.5360 -0.5930
16897SOL    HW162670   2.146  13.436  13.022  1.3691  0.8989  1.0731
16897SOL    HW262671   2.265  13.481  12.940 -0.1467  0.8393 -1.2537
16898SOL     OW62672   3.750   7.339  12.381  0.2568  0.2472 -0.1355
16898SOL    HW162673   3.728   7.246  12.371 -0.1022  0.2161  0.8614
16898SOL    HW262674   3.687   7.372  12.445  0.2196  1.2432 -0.6627
16899SOL     OW62675   0.858   0.049   8.924  0.4478 -0.0085  0.8513
16899SOL    HW162676   0.835  -0.043   8.908  0.0760  0.1288  0.5706
16899SOL    HW262677   0.775   0.095   8.919  0.7181  0.4349  0.2954
16900SOL     OW62678   1.286   9.814   9.116  0.1176  0.3860 -0.6852
16900SOL    HW162679   1.215   9.853   9.065  0.4018  0.7140 -0.8254
16900SOL    HW262680   1.318   9.741   9.062 -0.4692 -0.1062 -0.3863
16901SOL     OW62681   2.517   4.692   9.534 -0.0340 -0.3001 -0.4695
16901SOL    HW162682   2.519   4.723   9.443 -0.0195  1.9506  0.2231
16901SOL    HW262683   2.608   4.698   9.564 -0.2701  0.5553  0.1364
16902SOL     OW62684   2.065   7.778   3.056  0.0766  0.3522  0.1715
16902SOL    HW162685   1.997   7.834   3.019 -0.3637  0.8277  1.6291
16902SOL    HW262686   2.101   7.830   3.129  1.6596 -0.0876 -0.2580
16903SOL     OW62687   8.331   7.868  12.516  0.5976  0.1832 -0.0083
16903SOL    HW162688   8.389   7.804  12.557  1.3907 -1.0892 -2.8665
16903SOL    HW262689   8.386   7.945  12.501  0.6898  0.1212  0.0156
16904SOL     OW62690   4.581   3.569   8.076  0.4315  0.5057  0.1904
16904SOL    HW162691   4.626   3.627   8.016 -0.9917  0.8987 -0.5291
16904SOL    HW262692   4.515   3.624   8.118  0.4241 -0.1173  1.0187
16905SOL     OW62693  11.689   5.319   9.238  0.1110 -0.4652 -0.6059
16905SOL    HW162694  11.693   5.250   9.172  0.4391 -0.0085 -1.0673
16905SOL    HW262695  11.607   5.304   9.284  0.3492 -1.3799 -0.4661
16906SOL     OW62696  12.459   0.115  11.658  0.3837  0.5010 -0.3245
16906SOL    HW162697  12.530   0.149  11.712  1.5214 -0.1854 -1.3197
16906SOL    HW262698  12.478   0.021  11.651 -1.0652  0.1604  0.0084
16907SOL     OW62699  11.849   9.489   7.833 -0.3445  0.2514 -0.4314
16907SOL    HW162700  11.849   9.582   7.858 -0.2836  0.0604  0.2960
16907SOL    HW262701  11.819   9.443   7.911 -0.4258 -0.3410 -0.8072
16908SOL     OW62702  13.974  11.682   7.660  0.1160  0.0430  0.4213
16908SOL    HW162703  13.925  11.655   7.583  0.8590 -1.6708  0.4975
16908SOL    HW262704  14.037  11.746   7.628  1.2072 -1.5128 -0.6696
16909SOL     OW62705   7.812  13.131  12.379 -0.1578 -0.2104 -0.3144
16909SOL    HW162706   7.855  13.139  12.464  0.7908 -3.3474 -0.3884
16909SOL    HW262707   7.834  13.212  12.334  2.6780 -0.1311  0.9977
16910SOL     OW62708   4.366   1.464  14.006  0.5887  0.0761  0.0746
16910SOL    HW162709   4.340   1.372  13.997  0.6973 -0.0105  0.6089
16910SOL    HW262710   4.374   1.477  14.101  0.9388  0.5332 -0.0160
16911SOL     OW62711   8.762   3.418   4.011 -0.4369  0.1691 -0.2294
16911SOL    HW162712   8.778   3.371   4.093  0.5185  0.6220 -0.1488
16911SOL    HW262713   8.753   3.510   4.038  2.3257  0.7071 -0.8504
16912SOL     OW62714   9.992  13.153   5.325 -0.5006  0.6614  0.3975
16912SOL    HW162715   9.934  13.164   5.250 -0.1717  0.5750  0.1276
16912SOL    HW262716   9.935  13.159   5.401 -1.0792 -0.8386  0.0986
16913SOL     OW62717  10.326   8.946  13.300 -0.0501 -0.2184 -0.1892
16913SOL    HW162718  10.261   9.006  13.262 -0.0527  0.4931  0.9112
16913SOL    HW262719  10.291   8.924  13.386 -1.0088 -3.3632 -1.2467
16914SOL     OW62720   1.227   2.356   3.807  0.0797 -0.0806  0.4513
16914SOL    HW162721   1.283   2.376   3.732 -1.2955 -0.6379 -0.7849
16914SOL    HW262722   1.282   2.304   3.865  0.9033 -0.4481 -0.6214
16915SOL     OW62723   2.699   6.850  10.197  0.1818 -0.2842 -0.0017
16915SOL    HW162724   2.721   6.919  10.259 -1.4484  2.1200 -1.9041
16915SOL    HW262725   2.769   6.853  10.132  1.3120 -2.0671  1.0420
16916SOL     OW62726  13.772   0.112   7.861  0.1205  0.1709 -0.3946
16916SOL    HW162727  13.778   0.111   7.957  1.3282 -0.6076 -0.4635
16916SOL    HW262728  13.803   0.026   7.834 -0.6122  0.2342 -1.4789
16917SOL     OW62729   1.766   7.764   1.084 -0.4058  0.0939 -0.3099
16917SOL    HW162730   1.670   7.756   1.083 -0.4558  0.6093 -0.1819
16917SOL    HW262731   1.783   7.822   1.159 -0.0768  0.9833 -1.0593
16918SOL     OW62732   9.140  11.225   7.483 -0.0454  0.5107  0.6163
16918SOL    HW162733   9.136  11.316   7.455  0.9897  0.3014 -0.2819
16918SOL    HW262734   9.225  11.217   7.527  1.2820 -0.6763 -1.9355
16919SOL     OW62735   0.934   2.536  11.671  0.7173 -0.3903 -0.5098
16919SOL    HW162736   0.959   2.627  11.689  3.0938 -0.4310 -2.8740
16919SOL    HW262737   0.848   2.543  11.629  1.8888  1.1146 -2.8942
16920SOL     OW62738   8.060  13.097   3.491  0.3192  0.8300 -0.1422
16920SOL    HW162739   7.999  13.140   3.550 -0.2712  1.3641 -1.1052
16920SOL    HW262740   8.065  13.007   3.521 -0.2422  1.0133  0.4935
16921SOL     OW62741   4.203  11.410   6.276  0.4316  0.1275  0.0005
16921SOL    HW162742   4.218  11.470   6.349  0.6927  0.4701 -0.3312
16921SOL    HW262743   4.232  11.325   6.309  2.1412  0.5722 -0.2525
16922SOL     OW62744   7.040   5.112   9.627  0.3409 -0.0930 -0.5462
16922SOL    HW162745   7.135   5.111   9.618  0.4062 -0.2508  0.1013
16922SOL    HW262746   7.014   5.197   9.592  1.0624  1.3891  2.2076
16923SOL     OW62747  13.588   3.200   2.356  0.6927  0.3387 -0.4998
16923SOL    HW162748  13.554   3.133   2.297  0.0788  0.0629  0.1419
16923SOL    HW262749  13.534   3.277   2.339  2.1951  1.1195 -2.1277
16924SOL     OW62750  13.499   8.625   7.252  0.3813  0.1573 -1.1609
16924SOL    HW162751  13.445   8.631   7.331 -0.7941  0.9136 -1.9908
16924SOL    HW262752  13.555   8.549   7.266 -1.7285 -1.3872 -0.7595
16925SOL     OW62753   3.250  10.407  11.712 -0.7097  0.2954 -0.0269
16925SOL    HW162754   3.193  10.346  11.666 -0.8370  0.4854 -0.1206
16925SOL    HW262755   3.331  10.357  11.727 -0.7674  0.1442 -0.2109
16926SOL     OW62756   5.442   5.857   1.884  0.5943  0.4387  0.0418
16926SOL    HW162757   5.401   5.862   1.970  1.4379 -0.1009  0.4959
16926SOL    HW262758   5.369   5.853   1.822 -0.0237  0.3160  0.7659
16927SOL     OW62759   0.997   9.117  12.330  0.5607 -0.4072 -0.1612
16927SOL    HW162760   0.947   9.103  12.250  1.7093 -1.6270 -0.6904
16927SOL    HW262761   0.996   9.032  12.375 -0.8502  0.4743  1.6179
16928SOL     OW62762  12.147  10.173   6.196  0.0433 -0.5263  0.1188
16928SOL    HW162763  12.168  10.080   6.189 -0.0214 -0.8173  2.7681
16928SOL    HW262764  12.222  10.211   6.242 -0.1394  0.6662 -0.5171
16929SOL     OW62765   0.475  11.876   7.948  0.2773 -0.1437  0.6018
16929SOL    HW162766   0.387  11.898   7.979  0.0582  0.9089 -0.6674
16929SOL    HW262767   0.521  11.844   8.026 -0.4309  1.8095  1.8977
16930SOL     OW62768   3.075  10.141   5.709  0.4595 -0.5080 -0.1466
16930SOL    HW162769   3.013  10.113   5.777 -1.1636  2.1604 -0.3938
16930SOL    HW262770   3.020  10.156   5.632  1.8653 -0.7331 -1.2209
16931SOL     OW62771   8.622   4.026   6.630  0.5574 -0.1299 -0.1363
16931SOL    HW162772   8.630   3.985   6.544  0.1569 -1.4836  0.4464
16931SOL    HW262773   8.529   4.045   6.640  0.4839 -0.6957  0.3109
16932SOL     OW62774  10.960   5.944   0.291 -0.1588  0.1415  0.1750
16932SOL    HW162775  10.890   5.982   0.344 -0.0492 -1.3054  1.4273
16932SOL    HW262776  10.921   5.866   0.252  0.7394 -0.7522  0.9914
16933SOL     OW62777   2.762  13.287   7.055  0.0154  0.0397  0.1144
16933SOL    HW162778   2.678  13.317   7.090  0.2582  0.4552  0.3567
16933SOL    HW262779   2.789  13.216   7.114  0.2440  0.4875  0.5589
16934SOL     OW62780   7.211   8.354   9.134 -0.0172 -0.0683 -0.1053
16934SOL    HW162781   7.267   8.419   9.092 -0.3827  0.1526 -0.2607
16934SOL    HW262782   7.251   8.338   9.220  0.9367 -0.7870 -0.6660
16935SOL     OW62783   4.217   9.062  12.660 -0.1034 -0.2744  0.2119
16935SOL    HW162784   4.278   9.027  12.725  0.8829  2.7939  1.1205
16935SOL    HW262785   4.138   9.082  12.711  0.6612  2.1091  0.5972
16936SOL     OW62786  10.012  12.268   3.005  0.4258 -0.8918  0.1265
16936SOL    HW162787   9.996  12.185   3.049  0.0961 -0.7577  0.2604
16936SOL    HW262788  10.095  12.299   3.043  0.8583 -1.4422 -0.3589
16937SOL     OW62789   4.416   3.877  11.728 -0.5211  0.1953 -0.1913
16937SOL    HW162790   4.450   3.832  11.651  0.0758 -0.0152  0.1920
16937SOL    HW262791   4.487   3.933  11.758 -0.5759 -0.0788  0.4822
16938SOL     OW62792   2.873  11.882  13.442  0.3641  0.2711  0.2831
16938SOL    HW162793   2.859  11.879  13.536  0.9398  1.8049  0.4418
16938SOL    HW262794   2.933  11.810  13.424  0.1093 -0.1434  1.0467
16939SOL     OW62795   8.903   4.614   2.917  0.1713 -0.0905  0.2667
16939SOL    HW162796   8.862   4.682   2.970  0.2104  0.8729 -0.8877
16939SOL    HW262797   8.989   4.601   2.956  0.3869  0.9537  0.1625
16940SOL     OW62798   1.798   5.412   8.496  0.2651  0.1592 -0.3281
16940SOL    HW162799   1.751   5.341   8.451 -2.4369  2.2894 -1.1713
16940SOL    HW262800   1.756   5.417   8.582  1.1677  0.1103  0.1284
16941SOL     OW62801   4.663  13.346   6.543  0.0607 -0.4196 -0.1994
16941SOL    HW162802   4.704  13.409   6.483 -0.8753  0.6953  0.3061
16941SOL    HW262803   4.599  13.299   6.488 -1.5345  1.3030  0.0797
16942SOL     OW62804  10.897  12.155  10.761 -0.2011 -0.3024  0.0899
16942SOL    HW162805  10.985  12.140  10.795  1.2145  1.4886 -2.5046
16942SOL    HW262806  10.871  12.071  10.723  0.8722 -0.5387 -0.1443
16943SOL     OW62807   7.785  13.745  11.340 -0.4868 -0.1381  0.1836
16943SOL    HW162808   7.841  13.759  11.417 -0.3344 -0.0614  0.0583
16943SOL    HW262809   7.745  13.659  11.355 -3.3399  1.3561  2.1697
16944SOL     OW62810   8.213  13.781  13.240  0.4224 -0.4357  0.9398
16944SOL    HW162811   8.285  13.785  13.177 -1.3041 -0.3008 -1.1136
16944SOL    HW262812   8.250  13.734  13.315  2.9694  0.6396  0.4669
16945SOL     OW62813   6.834  13.238   2.417 -0.4187 -0.2452 -0.1309
16945SOL    HW162814   6.916  13.255   2.370  0.4684 -1.7426  0.7851
16945SOL    HW262815   6.791  13.323   2.422  1.9329  0.9646  0.9399
16946SOL     OW62816   4.883   9.275  10.236 -0.6049  0.5305  0.3725
16946SOL    HW162817   4.896   9.293  10.329  2.9375 -3.8657  1.1344
16946SOL    HW262818   4.812   9.210  10.234 -1.5041  1.5043 -0.2096
16947SOL     OW62819  10.823   3.278   3.925  0.0150  0.4734 -0.7660
16947SOL    HW162820  10.732   3.258   3.904  0.0163  1.3049 -1.6645
16947SOL    HW262821  10.828   3.374   3.920  1.1489  0.3868 -1.6750
16948SOL     OW62822   1.311   1.497  11.894 -0.0956 -0.3603  0.0771
16948SOL    HW162823   1.380   1.468  11.953 -1.8200 -0.6485  2.0810
16948SOL    HW262824   1.302   1.427  11.830  0.9715 -0.6503  0.2348
16949SOL     OW62825   7.787  10.174   7.921  0.3026 -0.3736  0.3449
16949SOL    HW162826   7.775  10.255   7.873  1.1845 -0.6330 -0.3368
16949SOL    HW262827   7.786  10.106   7.854 -0.2927 -0.9172  0.8936
16950SOL     OW62828   1.798  11.536   6.152 -0.2366 -0.0641  0.0616
16950SOL    HW162829   1.851  11.545   6.072 -1.2319 -0.9646 -0.7376
16950SOL    HW262830   1.787  11.442   6.162  0.6074 -0.0198  1.8077
16951SOL     OW62831   7.360  11.793   3.971 -0.5026  0.0372 -0.0042
16951SOL    HW162832   7.364  11.872   4.026  1.0159 -0.6054  0.8648
16951SOL    HW262833   7.357  11.721   4.033 -1.4553 -0.6199 -0.7978
16952SOL     OW62834  12.304   1.278   2.544 -0.4884  0.3015 -0.2083
16952SOL    HW162835  12.291   1.331   2.622  2.2578  0.7704  0.0282
16952SOL    HW262836  12.289   1.188   2.573  0.4068  0.4804  0.8865
16953SOL     OW62837  13.328   6.397   2.094 -0.1114 -0.2560  0.1910
16953SOL    HW162838  13.235   6.393   2.115  0.2147 -0.9036  1.6450
16953SOL    HW262839  13.366   6.448   2.165  0.3553  2.0531 -1.5902
16954SOL     OW62840   8.396  10.645   0.036 -0.6080  0.5301 -0.0157
16954SOL    HW162841   8.340  10.612   0.106 -0.8758  1.9660  0.4886
16954SOL    HW262842   8.386  10.582  -0.035 -1.0422 -0.4738  0.9039
16955SOL     OW62843   1.709   2.369   2.613 -0.0816  0.0357  0.4823
16955SOL    HW162844   1.698   2.276   2.597  0.8514 -0.0788  0.4270
16955SOL    HW262845   1.745   2.404   2.532  0.0299  0.3543  0.6647
16956SOL     OW62846  13.242   1.102   8.141  0.0210 -0.8418 -0.4712
16956SOL    HW162847  13.150   1.097   8.115 -0.2221 -0.8625  0.3512
16956SOL    HW262848  13.250   1.039   8.213  0.2767  0.3310  0.5594
16957SOL     OW62849   0.089   5.146   2.980  0.4309  0.4046  0.5984
16957SOL    HW162850   0.125   5.080   2.922  3.4068 -0.6113  3.2776
16957SOL    HW262851   0.144   5.223   2.967  0.5912  0.4440  1.4175
16958SOL     OW62852   8.724   3.695  13.530 -0.4738 -0.2073 -0.2295
16958SOL    HW162853   8.689   3.707  13.441 -0.7035 -0.1709 -0.1335
16958SOL    HW262854   8.667   3.630  13.569 -0.7165  0.1898  0.0846
16959SOL     OW62855   4.448   5.782  12.192 -0.1395 -0.3636 -0.1243
16959SOL    HW162856   4.480   5.695  12.171  0.5808  0.2992 -1.9985
16959SOL    HW262857   4.526   5.837  12.190 -0.7505  0.5294 -0.1624
16960SOL     OW62858   9.722   7.169  12.231 -0.6716 -0.0597  0.0841
16960SOL    HW162859   9.669   7.185  12.308  1.2639 -0.3522  1.5406
16960SOL    HW262860   9.723   7.252  12.184 -2.0132  0.0689  0.2503
16961SOL     OW62861   4.160   5.666  13.124  0.6118  0.1478 -0.0951
16961SOL    HW162862   4.190   5.742  13.174 -0.7253 -0.4969  1.8063
16961SOL    HW262863   4.240   5.628  13.087  1.5407  1.2262  0.7524
16962SOL     OW62864   2.309   0.891  12.896 -0.7755  0.1054 -0.2318
16962SOL    HW162865   2.221   0.854  12.908 -1.1457  1.0299  0.0027
16962SOL    HW262866   2.312   0.914  12.803 -0.6834 -0.1514 -0.2939
16963SOL     OW62867   6.682   2.572  12.471  0.3207  0.2900 -0.0896
16963SOL    HW162868   6.716   2.483  12.468 -1.4735 -0.4121 -1.9856
16963SOL    HW262869   6.661   2.586  12.564  1.4185 -0.9088  0.3716
16964SOL     OW62870  12.122  12.159   3.625  0.5474 -0.3511 -0.1669
16964SOL    HW162871  12.187  12.146   3.694 -0.2669  0.5773  0.8111
16964SOL    HW262872  12.117  12.254   3.615  0.0430 -0.4499 -0.9187
16965SOL     OW62873   5.726   0.080   1.793  0.5690  0.1740 -0.6881
16965SOL    HW162874   5.780   0.001   1.805  0.9519  0.2580 -1.8165
16965SOL    HW262875   5.719   0.090   1.698  0.0459  1.1860 -0.5473
16966SOL     OW62876   8.424  12.331   2.354 -0.6255  0.1961 -1.0990
16966SOL    HW162877   8.479  12.340   2.276  0.0919  2.1411 -0.4292
16966SOL    HW262878   8.357  12.399   2.344  0.1753  1.2645  0.5019
16967SOL     OW62879  12.697  12.762   3.160  0.5442 -0.1249  0.4986
16967SOL    HW162880  12.617  12.712   3.178 -1.1203  2.1659  0.0227
16967SOL    HW262881  12.750  12.750   3.239 -1.1716 -0.1341  1.7232
16968SOL     OW62882   3.022  12.575   6.905 -1.2006 -0.2997  0.3599
16968SOL    HW162883   3.001  12.638   6.973  0.1473  1.3287 -0.6613
16968SOL    HW262884   3.083  12.514   6.947  0.9897  1.6871  0.2290
16969SOL     OW62885   6.982  11.257   4.823 -0.2411 -0.3971 -0.1377
16969SOL    HW162886   6.989  11.346   4.789  1.6048  0.4715  2.2409
16969SOL    HW262887   6.897  11.226   4.793 -0.7969  2.0453 -1.3002
16970SOL     OW62888   2.704  11.041   1.520  0.5000 -0.2998 -0.5422
16970SOL    HW162889   2.788  11.088   1.524 -0.5689  1.6303  2.1995
16970SOL    HW262890   2.656  11.082   1.449  1.1043 -0.0293 -0.7977
16971SOL     OW62891  10.715   4.851   0.717  0.5543 -0.4612 -0.2393
16971SOL    HW162892  10.715   4.929   0.663 -0.1591 -1.4557 -1.7419
16971SOL    HW262893  10.628   4.812   0.704  0.5640 -1.0444  1.1883
16972SOL     OW62894  12.733  11.482   5.017 -0.0663  0.0593 -0.4192
16972SOL    HW162895  12.714  11.446   5.103 -2.1126  0.2159 -0.7556
16972SOL    HW262896  12.804  11.428   4.983 -1.2252 -1.9556  0.1844
16973SOL     OW62897   2.580   2.046   7.374 -0.3345 -0.1584  0.0241
16973SOL    HW162898   2.661   2.010   7.337  1.2790  2.0805  1.0977
16973SOL    HW262899   2.553   2.113   7.311 -1.6987 -1.2436 -0.5854
16974SOL     OW62900   3.797   6.425   9.074 -0.2641  0.5792  0.1356
16974SOL    HW162901   3.769   6.363   9.007  1.2401  0.0889 -0.0824
16974SOL    HW262902   3.780   6.380   9.157  0.2065  0.1304 -0.0030
16975SOL     OW62903   9.782   3.148   4.662  0.1361  0.6810  0.1499
16975SOL    HW162904   9.865   3.195   4.654  0.9807 -0.7101  0.4007
16975SOL    HW262905   9.771   3.104   4.578 -0.3822  0.9236  0.0923
16976SOL     OW62906  10.887   6.516   2.344 -0.0920 -0.1682 -0.5555
16976SOL    HW162907  10.957   6.576   2.319  0.4530 -0.7687 -0.4911
16976SOL    HW262908  10.883   6.453   2.272  1.7588 -2.1573  0.9440
16977SOL     OW62909   2.539   8.144  12.108 -0.3231 -0.2787 -0.0036
16977SOL    HW162910   2.585   8.072  12.065  1.1797  0.5310  0.2111
16977SOL    HW262911   2.605   8.212  12.120 -0.8428 -0.1360  2.8199
16978SOL     OW62912  13.168   5.973   0.100  0.4092 -0.0552  0.7076
16978SOL    HW162913  13.234   5.944   0.163  1.1211 -2.1178 -0.8662
16978SOL    HW262914  13.085   5.969   0.147  1.1979  1.0830  2.2716
16979SOL     OW62915  11.570   5.259   1.803  0.4626 -0.6945 -0.5499
16979SOL    HW162916  11.541   5.169   1.785 -0.3643 -0.6927  0.6575
16979SOL    HW262917  11.555   5.270   1.897  0.6839  0.6709 -0.6651
16980SOL     OW62918   5.097  13.407   1.687  0.0942  0.1497 -0.0755
16980SOL    HW162919   5.154  13.415   1.764  2.0630 -0.9541 -1.3206
16980SOL    HW262920   5.079  13.313   1.680 -1.0503  0.3722 -0.3059
16981SOL     OW62921   9.416   4.563  10.148  0.2151 -0.0193 -0.1401
16981SOL    HW162922   9.488   4.589  10.206 -0.4161  0.3061  0.5124
16981SOL    HW262923   9.401   4.639  10.092 -1.4689  1.0509  1.6063
16982SOL     OW62924  10.605  13.426   3.948 -0.1250 -0.2352  0.5281
16982SOL    HW162925  10.651  13.507   3.969 -0.4358 -0.6347  3.0544
16982SOL    HW262926  10.513  13.445   3.968 -0.1993 -1.1842  1.1237
16983SOL     OW62927  10.713  12.507   1.065 -0.1890  0.2428 -0.0349
16983SOL    HW162928  10.706  12.413   1.045  0.1410  0.1855  0.1059
16983SOL    HW262929  10.677  12.551   0.988 -0.4429 -0.0015 -0.0568
16984SOL     OW62930  12.469   3.126   9.979 -0.1447  0.3177  0.1315
16984SOL    HW162931  12.476   3.213   9.940 -0.3067  0.1622 -0.2609
16984SOL    HW262932  12.481   3.066   9.905 -1.3406  0.0246  0.1526
16985SOL     OW62933  10.129  12.241  10.779 -0.2936  0.5212  0.2221
16985SOL    HW162934  10.055  12.257  10.837 -1.4047 -2.1851 -0.3291
16985SOL    HW262935  10.093  12.252  10.691  0.8248  2.3349 -0.0775
16986SOL     OW62936   1.767  11.659   1.831  0.2544  0.2778  0.0685
16986SOL    HW162937   1.840  11.679   1.890 -0.7490  0.5320  1.2667
16986SOL    HW262938   1.776  11.566   1.812 -0.1055 -0.0993  1.6484
16987SOL     OW62939   9.789   1.809  13.265 -0.5851  0.3287 -0.7625
16987SOL    HW162940   9.840   1.732  13.289 -3.1453 -1.5627 -1.0327
16987SOL    HW262941   9.806   1.821  13.171  0.9104  1.0082 -0.4277
16988SOL     OW62942   0.899  12.378   9.696 -0.1880 -0.5607  0.1278
16988SOL    HW162943   0.955  12.300   9.699 -0.8826 -1.2298 -2.2132
16988SOL    HW262944   0.957  12.449   9.669 -0.2144 -1.0047 -1.1322
16989SOL     OW62945  10.985  10.502   6.444 -0.3129 -0.0569 -0.1556
16989SOL    HW162946  10.946  10.442   6.380 -1.7755  0.5596  0.1202
16989SOL    HW262947  11.012  10.445   6.516 -0.4042 -0.5312 -0.4879
16990SOL     OW62948   7.441   0.921   9.516 -0.3437 -0.1917  0.3353
16990SOL    HW162949   7.534   0.921   9.492 -0.3878 -0.9320  0.1406
16990SOL    HW262950   7.398   0.963   9.442 -0.1626  0.1483  0.4229
16991SOL     OW62951   0.806  13.143   3.968  0.2676 -0.4327 -0.4203
16991SOL    HW162952   0.802  13.217   4.028 -0.6906 -1.6666  1.1277
16991SOL    HW262953   0.790  13.066   4.023  0.6346 -1.7598 -2.0516
16992SOL     OW62954   4.195   0.324   6.914 -0.2127 -0.3469 -0.0626
16992SOL    HW162955   4.261   0.343   6.981 -0.7126 -2.9413  1.2840
16992SOL    HW262956   4.240   0.267   6.852 -0.3176  0.4772 -0.9172
16993SOL     OW62957   1.211   8.075  12.021 -0.1492 -0.2040 -0.3876
16993SOL    HW162958   1.248   8.078  12.109 -1.2500 -0.1153  0.0826
16993SOL    HW262959   1.207   7.981  12.000  0.4590 -0.2097 -0.5081
16994SOL     OW62960   2.262   9.360   0.856 -0.2188  0.0547 -0.0872
16994SOL    HW162961   2.220   9.406   0.930 -0.7900 -0.9360  0.2199
16994SOL    HW262962   2.352   9.392   0.856 -0.0400 -0.3757  1.4340
16995SOL     OW62963   4.545   7.564  10.211 -0.2857  0.6574  0.3545
16995SOL    HW162964   4.472   7.557  10.150  1.0093 -1.3997 -1.0900
16995SOL    HW262965   4.508   7.542  10.296 -1.4560  0.2826 -0.2405
16996SOL     OW62966  11.278   1.091   7.205 -0.1478  0.1164  0.3892
16996SOL    HW162967  11.200   1.087   7.148  0.1408  1.0106 -0.0935
16996SOL    HW262968  11.258   1.031   7.277 -0.1365 -1.7751 -1.1088
16997SOL     OW62969   8.518  13.598   9.490 -0.4359 -0.1764  0.0678
16997SOL    HW162970   8.464  13.676   9.504  0.0085  0.3195 -0.8814
16997SOL    HW262971   8.471  13.528   9.534 -2.2524  0.0830 -1.3386
16998SOL     OW62972   6.886   4.233  10.971 -0.0508 -0.1920  0.7831
16998SOL    HW162973   6.927   4.220  10.885  0.2421  0.6288  0.7886
16998SOL    HW262974   6.950   4.199  11.033  0.5524  0.8701  0.7750
16999SOL     OW62975   8.529   3.976   7.352 -0.1502  0.0497 -0.1132
16999SOL    HW162976   8.536   3.890   7.394 -1.6942 -1.0975 -2.0573
16999SOL    HW262977   8.537   3.959   7.259 -0.2024  2.0724 -0.5408
17000SOL     OW62978   3.041   4.363   8.660 -0.1444  0.2027  0.0070
17000SOL    HW162979   3.124   4.316   8.668 -1.4606 -2.5227 -0.8900
17000SOL    HW262980   3.064   4.455   8.665  3.0155 -0.4327 -1.0652
17001SOL     OW62981  11.391   3.545   5.328  0.3054  0.3248 -0.1579
17001SOL    HW162982  11.426   3.477   5.386  0.7192 -0.5999 -1.4687
17001SOL    HW262983  11.318   3.504   5.283  0.1719  0.9420 -0.5175
17002SOL     OW62984   7.495  10.884  11.475  0.0225 -0.5140 -0.6946
17002SOL    HW162985   7.446  10.833  11.539 -3.1027  1.2943 -1.4353
17002SOL    HW262986   7.444  10.878  11.394  0.1329  2.6769 -1.1577
17003SOL     OW62987  13.074   5.236   9.114  0.0129 -0.7154 -0.1496
17003SOL    HW162988  13.084   5.270   9.203 -0.0179  2.2321 -1.1733
17003SOL    HW262989  12.982   5.247   9.094  0.3067  0.1289 -1.0861
17004SOL     OW62990   6.131   3.286   0.501 -0.0116  0.0776  0.6497
17004SOL    HW162991   6.202   3.222   0.504  0.9346  0.9664 -1.1588
17004SOL    HW262992   6.152   3.341   0.425 -0.1898  3.2124  2.6918
17005SOL     OW62993   2.609   0.102   3.415  0.1996  0.3102 -0.1852
17005SOL    HW162994   2.528   0.054   3.401  0.8785 -0.5041 -1.5950
17005SOL    HW262995   2.584   0.194   3.411 -1.0311  0.1339  1.9748
17006SOL     OW62996   6.861   1.578   4.141  0.2292 -0.7146 -0.7681
17006SOL    HW162997   6.878   1.650   4.201 -0.3268 -1.6442  0.5388
17006SOL    HW262998   6.806   1.616   4.073  1.6819  0.5892 -1.2669
17007SOL     OW62999  10.958   2.654   5.474 -0.4057  0.7756 -0.4313
17007SOL    HW163000  10.986   2.571   5.436  0.7091 -0.2014  2.2183
17007SOL    HW263001  11.000   2.721   5.420 -0.1048 -0.4289 -1.7354
17008SOL     OW63002   7.286   0.285  10.160  0.2627 -0.2144  0.2070
17008SOL    HW163003   7.201   0.241  10.161  0.0029  0.2356 -0.5738
17008SOL    HW263004   7.302   0.309  10.251 -0.8792  0.4900  0.2483
17009SOL     OW63005   7.047   9.925   9.702 -0.3483 -0.4000 -0.6238
17009SOL    HW163006   7.064  10.008   9.748  0.5256 -1.6615  1.4602
17009SOL    HW263007   7.025   9.952   9.613  1.7877  2.0001 -0.5546
17010SOL     OW63008   2.886  11.188   5.927 -0.2630 -0.3891 -0.6481
17010SOL    HW163009   2.832  11.208   5.851 -2.0187 -1.8076  0.1505
17010SOL    HW263010   2.953  11.257   5.928 -0.3174 -0.1964 -3.3010
17011SOL     OW63011   2.231  10.255  13.997  0.6174 -0.5166  0.4749
17011SOL    HW163012   2.232  10.339  14.044 -0.2139 -0.7530  0.9397
17011SOL    HW263013   2.184  10.196  14.056  0.8499 -1.2072 -0.0241
17012SOL     OW63014   7.496  10.500   1.179 -0.0849  0.4918 -0.0656
17012SOL    HW163015   7.547  10.520   1.100 -0.1021  1.5301  0.1667
17012SOL    HW263016   7.522  10.568   1.241  2.1654 -1.9384  1.8940
17013SOL     OW63017  13.247  10.170  12.313  0.5836 -0.3885 -0.2059
17013SOL    HW163018  13.171  10.226  12.324  0.2267 -0.9168  0.0930
17013SOL    HW263019  13.265  10.136  12.401 -0.2883 -2.1023 -0.6446
17014SOL     OW63020   3.292   8.948   9.430  0.7302 -0.1411 -0.2100
17014SOL    HW163021   3.299   9.036   9.467 -2.3497  0.6074 -1.1587
17014SOL    HW263022   3.274   8.963   9.337  0.5303 -1.7866 -0.4567
17015SOL     OW63023   4.186  10.923  10.419 -0.1101  0.0704  0.1191
17015SOL    HW163024   4.162  10.919  10.326  0.8403 -0.0353 -0.1324
17015SOL    HW263025   4.255  10.858  10.429  0.2691  0.5556  0.7491
17016SOL     OW63026   7.554   6.074   2.878 -0.0759 -0.8658  0.3297
17016SOL    HW163027   7.591   5.986   2.886  1.1850 -0.5581 -1.4692
17016SOL    HW263028   7.623   6.133   2.907 -0.5764 -0.4170  0.6437
17017SOL     OW63029   1.095  13.776  11.626 -0.1008 -0.2773 -0.1394
17017SOL    HW163030   1.191  13.779  11.621 -0.0950 -1.3737 -1.3040
17017SOL    HW263031   1.074  13.683  11.632 -1.1079 -0.0857 -0.4611
17018SOL     OW63032   9.998  10.739   3.930 -0.5786  0.7436 -0.7532
17018SOL    HW163033   9.964  10.809   3.987  1.4061  0.8813  0.3595
17018SOL    HW263034   9.974  10.658   3.975 -2.6035  0.6793 -1.8809
17019SOL     OW63035  11.738   0.722   6.560 -0.2201 -0.1828  0.0539
17019SOL    HW163036  11.785   0.796   6.522 -1.2697  0.2067 -0.4964
17019SOL    HW263037  11.808   0.659   6.580  0.5781  0.5051 -0.4547
17020SOL     OW63038   9.004   1.045   2.542  0.0186  0.0245  0.1382
17020SOL    HW163039   9.096   1.038   2.567 -0.1428  0.3591  0.8560
17020SOL    HW263040   9.006   1.074   2.451  0.6252 -0.1580  0.0897
17021SOL     OW63041   2.751   8.129   9.773 -0.3868  0.0577  0.2036
17021SOL    HW163042   2.656   8.126   9.777 -0.4585  0.4587 -0.8313
17021SOL    HW263043   2.772   8.221   9.758  0.2331  0.1587  1.5338
17022SOL     OW63044   9.332   2.843  13.045  0.4011  0.2120  0.1473
17022SOL    HW163045   9.309   2.846  13.138  0.1551 -0.5691  0.1206
17022SOL    HW263046   9.247   2.843  13.000  0.4259 -1.7087  0.0127
17023SOL     OW63047  10.352  11.455  12.959  0.0690  0.0758  0.0379
17023SOL    HW163048  10.386  11.545  12.957 -2.4405  1.0989 -0.1788
17023SOL    HW263049  10.264  11.462  12.922 -0.0452 -2.5804 -0.3763
17024SOL     OW63050   4.025   4.182   2.410 -0.1963 -0.5071 -0.0561
17024SOL    HW163051   4.082   4.124   2.359  1.2560 -0.0784  1.0156
17024SOL    HW263052   3.966   4.123   2.457  0.8650 -1.1110  0.5524
17025SOL     OW63053  11.493   2.584  12.025  0.5288 -0.0109  0.1429
17025SOL    HW163054  11.516   2.496  11.994  1.1750 -0.4429  1.7464
17025SOL    HW263055  11.557   2.641  11.983  2.1483 -0.7270  1.4940
17026SOL     OW63056  13.726   0.299  11.785 -0.0600 -0.1101  0.0259
17026SOL    HW163057  13.736   0.386  11.822  1.2475 -0.6233  0.9697
17026SOL    HW263058  13.812   0.279  11.747 -0.8178 -0.3568 -1.6495
17027SOL     OW63059   5.576  13.892   6.141  0.2437 -0.5474 -0.3334
17027SOL    HW163060   5.525  13.852   6.071  0.9680 -2.6723  0.2616
17027SOL    HW263061   5.548  13.846   6.220 -0.7582  1.9730  0.8944
17028SOL     OW63062   4.028   2.616  10.010  0.2733 -0.5256  0.4270
17028SOL    HW163063   4.067   2.650  10.091 -0.0371 -0.3603  0.5073
17028SOL    HW263064   4.028   2.691   9.950  1.3376 -0.8694 -0.0424
17029SOL     OW63065  13.764   1.145   5.286  0.5170 -0.1159 -0.1823
17029SOL    HW163066  13.672   1.140   5.313  0.9894 -0.1349  1.5227
17029SOL    HW263067  13.760   1.156   5.191 -1.2200 -1.4153 -0.3133
17030SOL     OW63068   4.191  12.845   8.855 -0.5892  0.0722  0.3685
17030SOL    HW163069   4.216  12.803   8.773  1.7814 -2.0060  2.0058
17030SOL    HW263070   4.098  12.865   8.844 -0.7340 -1.5810 -2.2134
17031SOL     OW63071   5.037   2.988   3.036 -0.3898 -0.0163 -0.1839
17031SOL    HW163072   4.967   2.952   3.091 -0.9444 -0.4913 -1.1620
17031SOL    HW263073   5.112   2.996   3.095 -1.5458  1.5529  1.1777
17032SOL     OW63074   1.724   3.670  12.661  0.0881  0.0921 -0.0863
17032SOL    HW163075   1.783   3.746  12.655  0.0192  0.1137 -0.4926
17032SOL    HW263076   1.659   3.684  12.592 -0.7514  0.3721  0.7381
17033SOL     OW63077   9.393   1.424  10.917  0.3403 -0.0412 -0.4054
17033SOL    HW163078   9.403   1.402  10.824  0.7431 -0.6471 -0.2279
17033SOL    HW263079   9.474   1.470  10.940 -0.0657  0.7466 -0.5236
17034SOL     OW63080  11.677   0.625   4.859  0.3760 -0.3414  0.1606
17034SOL    HW163081  11.657   0.689   4.790  1.4762 -1.0025 -0.8003
17034SOL    HW263082  11.766   0.646   4.886 -0.4792  0.7709  2.3969
17035SOL     OW63083  12.075   9.821   5.611  0.0769 -0.0727  0.2472
17035SOL    HW163084  12.097   9.831   5.519  1.9081 -0.3078  0.6203
17035SOL    HW263085  11.982   9.797   5.611  0.0488 -0.0927 -1.5270
17036SOL     OW63086   9.433  13.637   0.767  0.1366  0.0690  0.2992
17036SOL    HW163087   9.462  13.724   0.796 -1.2860  0.5296  0.4328
17036SOL    HW263088   9.434  13.643   0.671 -0.7584  0.5385  0.3054
17037SOL     OW63089   4.158   8.784   7.630  0.1185 -0.1937 -0.5938
17037SOL    HW163090   4.103   8.861   7.618  0.1816  0.0213  0.4298
17037SOL    HW263091   4.247   8.814   7.611  0.0314 -0.2450 -1.0849
17038SOL     OW63092  13.713  10.171  12.329  0.4176 -0.6316 -0.1062
17038SOL    HW163093  13.657  10.242  12.297 -0.4002 -1.9314 -1.7099
17038SOL    HW263094  13.792  10.216  12.361 -1.2541  1.2169  1.7828
17039SOL     OW63095   2.594   2.058  12.764 -0.1209  0.1930 -0.2200
17039SOL    HW163096   2.531   2.003  12.810 -1.0299 -0.0910 -1.7391
17039SOL    HW263097   2.542   2.105  12.698  0.9718  1.3091 -0.3323
17040SOL     OW63098   2.218   1.438   5.375 -0.2325  0.1876 -0.2879
17040SOL    HW163099   2.211   1.480   5.461 -1.4198 -0.5912  0.0060
17040SOL    HW263100   2.152   1.482   5.321 -1.2289 -1.0080 -0.0810
17041SOL     OW63101   0.071  12.159  12.139  0.1833  0.4704 -0.4251
17041SOL    HW163102   0.126  12.232  12.167 -0.2398  0.2767  0.9415
17041SOL    HW263103   0.132  12.100  12.093  1.5397 -0.5157  2.3936
17042SOL     OW63104   2.200   5.964   4.827 -0.2807  0.0758 -0.4102
17042SOL    HW163105   2.141   5.991   4.756 -1.7678 -0.6192  0.5212
17042SOL    HW263106   2.160   5.885   4.862  3.0735 -2.5498 -1.9959
17043SOL     OW63107   2.590   7.961   4.492 -0.4209  0.1230  0.4703
17043SOL    HW163108   2.555   8.039   4.535 -2.9479 -0.4924 -0.3314
17043SOL    HW263109   2.660   7.931   4.551 -2.4344  0.3947  3.2085
17044SOL     OW63110  12.358   0.359  13.708 -0.2816 -0.1489 -0.3804
17044SOL    HW163111  12.428   0.342  13.645 -0.4552 -0.5401 -0.4643
17044SOL    HW263112  12.375   0.448  13.739  1.3729 -0.8999  1.0341
17045SOL     OW63113   1.231   2.117   8.288 -0.0863  0.0613  0.2129
17045SOL    HW163114   1.193   2.139   8.373 -0.6284  0.8131 -0.2078
17045SOL    HW263115   1.209   2.025   8.274 -0.3259  0.0386  0.7177
17046SOL     OW63116  11.127  13.639  11.692  0.8739 -0.6359  0.3956
17046SOL    HW163117  11.108  13.721  11.737  1.2985 -0.6612  0.6316
17046SOL    HW263118  11.093  13.651  11.604  0.8056 -0.2611  0.4698
17047SOL     OW63119   5.416   0.470   7.179  0.0696 -0.2773 -0.5135
17047SOL    HW163120   5.479   0.486   7.110 -0.6967  0.3927 -1.0764
17047SOL    HW263121   5.387   0.557   7.206 -0.1433 -0.5563  0.1761
17048SOL     OW63122   7.497   3.642  10.093  0.2962  0.5748 -0.2907
17048SOL    HW163123   7.436   3.598  10.152  0.2110 -1.6453 -1.8792
17048SOL    HW263124   7.531   3.716  10.143 -0.8931 -0.3025  1.9447
17049SOL     OW63125   8.241   4.965   8.109  0.4903  0.0712  0.0171
17049SOL    HW163126   8.173   4.966   8.177 -0.6350 -1.2601 -1.0312
17049SOL    HW263127   8.307   4.903   8.143  0.2724 -0.0612  0.2037
17050SOL     OW63128   0.837  12.980   2.088 -0.1521  0.6031  0.9877
17050SOL    HW163129   0.837  13.068   2.125  0.2243  1.3256 -0.6541
17050SOL    HW263130   0.878  12.926   2.155  0.9003  1.9403  1.4653
17051SOL     OW63131   1.601   1.354  10.861 -0.1897 -0.2517 -0.3424
17051SOL    HW163132   1.659   1.376  10.788 -1.0386 -0.4906 -1.0995
17051SOL    HW263133   1.527   1.309  10.820 -0.2459 -1.2099  0.7608
17052SOL     OW63134  13.358   2.338   6.849 -0.4808  0.0159  0.2007
17052SOL    HW163135  13.300   2.368   6.779 -0.5074 -1.4877 -0.4600
17052SOL    HW263136  13.304   2.279   6.901  1.3025 -4.8263 -2.8065
17053SOL     OW63137  12.850   8.701   8.464 -0.2420  0.1951  0.3482
17053SOL    HW163138  12.818   8.789   8.446  2.2093  1.3808  1.2904
17053SOL    HW263139  12.865   8.662   8.378  1.6002  1.9285 -0.2032
17054SOL     OW63140   6.657   0.678   7.244 -0.2786  0.5389 -0.8723
17054SOL    HW163141   6.647   0.668   7.339 -0.9724  0.1696 -0.9774
17054SOL    HW263142   6.604   0.607   7.207  0.5871  0.2218 -1.5276
17055SOL     OW63143   8.971   1.116   0.988 -0.1516 -0.5833 -0.0457
17055SOL    HW163144   9.023   1.044   1.025 -0.2089 -1.2783 -1.2659
17055SOL    HW263145   8.978   1.186   1.053  2.4503 -0.5765 -0.2155
17056SOL     OW63146   7.169  12.499   8.986  0.1143 -0.1548 -0.3239
17056SOL    HW163147   7.127  12.423   9.026 -0.4208  0.3111  0.0213
17056SOL    HW263148   7.176  12.562   9.058  2.3377 -0.5767 -0.1038
17057SOL     OW63149   9.684   0.995   9.186  0.3105 -0.1876 -0.4494
17057SOL    HW163150   9.628   0.923   9.160 -0.3991  0.0572  0.3278
17057SOL    HW263151   9.753   0.997   9.121  0.0727 -1.2555 -0.7540
17058SOL     OW63152   4.241   6.732   2.333  0.2958 -0.5622  0.1621
17058SOL    HW163153   4.223   6.761   2.423  0.1532 -0.4425  0.0947
17058SOL    HW263154   4.330   6.698   2.337  0.4681 -0.0999  0.2337
17059SOL     OW63155  13.450   3.130  12.151 -0.4311  0.4180  0.2439
17059SOL    HW163156  13.447   3.076  12.230 -0.3967  0.6936  0.4375
17059SOL    HW263157  13.437   3.069  12.079 -2.0414  0.3634  0.5441
17060SOL     OW63158  13.392  12.819   5.656  0.2355  0.2958  0.3056
17060SOL    HW163159  13.319  12.787   5.709  0.6311  0.8042  1.1753
17060SOL    HW263160  13.397  12.757   5.583  0.2723 -0.9781  1.3514
17061SOL     OW63161   2.660   6.711   2.105 -0.5303  0.5299  0.1787
17061SOL    HW163162   2.647   6.798   2.066 -1.4348  0.3339  0.0260
17061SOL    HW263163   2.755   6.696   2.098 -0.5450  0.8884 -1.1272
17062SOL     OW63164   2.035   5.916   0.876 -0.5032 -0.1462  0.1619
17062SOL    HW163165   2.042   5.823   0.897 -1.3561 -0.0978  0.7404
17062SOL    HW263166   2.100   5.931   0.808  0.6435 -0.8631  1.0740
17063SOL     OW63167   6.523   6.804   9.450  0.0865 -0.6936 -0.4401
17063SOL    HW163168   6.522   6.708   9.450 -0.4994 -0.6876 -0.0303
17063SOL    HW263169   6.594   6.827   9.389  1.1514 -1.3862  0.5038
17064SOL     OW63170   1.934   7.128   4.344 -0.4381 -0.3337  0.1734
17064SOL    HW163171   1.996   7.197   4.367 -0.2041 -0.4744 -0.0256
17064SOL    HW263172   1.966   7.050   4.389 -0.2331 -0.5034 -0.2548
17065SOL     OW63173  10.342  12.838   2.462 -0.6034 -0.3013 -0.0521
17065SOL    HW163174  10.262  12.787   2.472 -0.1841 -0.8650  0.6164
17065SOL    HW263175  10.406  12.776   2.427  0.3455 -0.7187  2.2403
17066SOL     OW63176   5.415   2.956   5.268  0.0288  0.3822 -0.5386
17066SOL    HW163177   5.334   3.004   5.284 -0.5971 -0.3014 -1.5828
17066SOL    HW263178   5.454   2.945   5.355  0.3160  2.9255 -0.2727
17067SOL     OW63179  11.717   3.172   0.875  0.0736  0.0723  0.0982
17067SOL    HW163180  11.761   3.095   0.838 -1.1470 -0.0960 -1.1318
17067SOL    HW263181  11.654   3.198   0.807  0.0849  1.8438  0.7163
17068SOL     OW63182  11.771   0.988   4.293 -0.2745 -0.3854 -0.1128
17068SOL    HW163183  11.694   0.930   4.294 -0.1550 -0.5859 -1.3201
17068SOL    HW263184  11.842   0.932   4.260 -0.1183  0.3878 -1.1354
17069SOL     OW63185   2.607   7.196  12.142 -0.4585  0.6497 -0.1149
17069SOL    HW163186   2.682   7.139  12.127 -0.7920 -0.1571  1.1103
17069SOL    HW263187   2.531   7.140  12.130 -0.8704  1.3476 -0.8883
17070SOL     OW63188  11.780   8.767  13.324  0.4811  0.1678 -0.1257
17070SOL    HW163189  11.832   8.704  13.275  0.3431  1.0155 -1.4103
17070SOL    HW263190  11.787   8.739  13.416  1.3519 -1.0152 -0.5377
17071SOL     OW63191   7.848   3.014   5.346 -0.3335 -0.0204 -0.1976
17071SOL    HW163192   7.921   3.061   5.305  0.0217  0.3796  0.8627
17071SOL    HW263193   7.817   3.073   5.415 -0.6847 -0.8315  0.3500
17072SOL     OW63194  13.850   2.617  12.042 -0.2695  0.2717  0.0626
17072SOL    HW163195  13.791   2.576  12.105  0.1124  0.0480  0.2744
17072SOL    HW263196  13.792   2.668  11.985 -0.7588 -0.6148 -0.2578
17073SOL     OW63197  13.784   0.823   0.338 -0.4284  0.4531 -0.8198
17073SOL    HW163198  13.868   0.837   0.380 -0.7329  1.0310 -0.4003
17073SOL    HW263199  13.767   0.729   0.348 -0.5523  0.6053  0.4425
17074SOL     OW63200   4.450   2.845   6.406  0.5871  0.3105  0.2967
17074SOL    HW163201   4.385   2.891   6.352  2.0995 -0.6472 -2.5641
17074SOL    HW263202   4.510   2.914   6.434 -0.5876  0.9240  1.4264
17075SOL     OW63203   6.306   1.357   1.051 -0.0971  0.2091  0.4870
17075SOL    HW163204   6.392   1.361   1.011  0.2025  0.0502  1.1037
17075SOL    HW263205   6.273   1.446   1.046 -1.0716 -0.2000 -2.2350
17076SOL     OW63206  11.650   1.770  10.520  0.6472 -0.5013 -0.4670
17076SOL    HW163207  11.734   1.765  10.474  1.4585  0.7822  0.7776
17076SOL    HW263208  11.671   1.814  10.602 -1.3807  0.5081 -0.4321
17077SOL     OW63209   2.006   3.965  10.103  0.2387  0.3029  0.0314
17077SOL    HW163210   2.088   3.915  10.107  0.3731  0.6100  1.4546
17077SOL    HW263211   2.028   4.050  10.142 -0.1843  1.2293 -1.6699
17078SOL     OW63212   6.469   2.385  11.375  0.0552 -0.3241  0.6256
17078SOL    HW163213   6.407   2.336  11.321 -0.3514 -0.4792  1.2154
17078SOL    HW263214   6.415   2.453  11.416  0.0223 -1.1577  2.0317
17079SOL     OW63215   4.098   4.670   4.388  0.1652 -0.1188 -0.5604
17079SOL    HW163216   4.192   4.654   4.388  0.6672  2.3054 -1.1741
17079SOL    HW263217   4.063   4.612   4.455  2.4062  0.4358  1.2239
17080SOL     OW63218   2.453  12.483  10.905  0.5199  0.3634 -0.6365
17080SOL    HW163219   2.459  12.412  10.969 -1.3163  0.7712  0.0586
17080SOL    HW263220   2.543  12.505  10.884  1.1417 -0.7716  0.7145
17081SOL     OW63221   3.702   2.940   0.161  0.2829  0.2427  0.1471
17081SOL    HW163222   3.636   2.873   0.145 -0.7792  0.8006  1.9324
17081SOL    HW263223   3.652   3.020   0.177  1.4321  0.9170  0.5117
17082SOL     OW63224   8.563   0.045   7.124  0.1789 -0.3189 -0.3553
17082SOL    HW163225   8.589   0.126   7.080 -1.2866  0.3975  0.0202
17082SOL    HW263226   8.491   0.011   7.071  0.0146 -0.7460  0.1294
17083SOL     OW63227  12.253   4.433  12.044 -0.4300  0.1943 -0.2708
17083SOL    HW163228  12.178   4.447  11.986 -0.4700 -0.1358 -0.3003
17083SOL    HW263229  12.219   4.447  12.132 -1.1865 -2.4289 -0.0535
17084SOL     OW63230   7.013   7.999   5.898 -0.2750  0.5755  0.5598
17084SOL    HW163231   6.977   8.009   5.986  0.1704  0.6212  0.7401
17084SOL    HW263232   7.100   8.040   5.902 -0.2905  0.6655  0.0751
17085SOL     OW63233   3.442   2.216   1.185 -0.1775  0.0814  0.2224
17085SOL    HW163234   3.450   2.226   1.280  1.2281 -1.0706  0.2595
17085SOL    HW263235   3.500   2.283   1.148 -0.0069 -0.0771  0.2012
17086SOL     OW63236  13.414   4.559   2.427 -0.2780 -0.3325 -0.5340
17086SOL    HW163237  13.328   4.601   2.422 -0.7737 -1.3574 -0.8263
17086SOL    HW263238  13.462   4.610   2.493 -0.9269  0.5518 -0.7282
17087SOL     OW63239  11.650   8.415   5.494  0.0687  0.2537  0.1315
17087SOL    HW163240  11.688   8.440   5.578  1.0485  1.1176 -0.5424
17087SOL    HW263241  11.717   8.361   5.452  0.5179  1.6026 -0.9742
17088SOL     OW63242  13.854   1.804   5.047 -0.1099  0.4783  0.0321
17088SOL    HW163243  13.875   1.846   4.963 -1.1771 -0.0392 -0.5182
17088SOL    HW263244  13.765   1.833   5.067  0.0603  0.4278  0.8836
17089SOL     OW63245   7.834   3.427   9.666  0.0427  0.0166 -0.5643
17089SOL    HW163246   7.748   3.386   9.669  0.3187 -0.5271  0.8568
17089SOL    HW263247   7.894   3.355   9.644  0.4927 -0.3384  1.6444
17090SOL     OW63248   8.191   8.998  13.590  0.3996 -0.8112  0.4696
17090SOL    HW163249   8.108   9.009  13.636  0.7703  0.0428  0.9612
17090SOL    HW263250   8.233   9.083  13.596  1.2300 -1.1812  0.0591
17091SOL     OW63251   3.835   3.804  12.786  0.3444  0.6903  0.6466
17091SOL    HW163252   3.808   3.808  12.695  0.4490 -0.3295  0.5563
17091SOL    HW263253   3.875   3.717  12.796 -0.9326  0.2189  2.0040
17092SOL     OW63254   2.125   3.259   5.838  0.8140 -0.2670  0.7916
17092SOL    HW163255   2.044   3.296   5.874  0.6867  0.3796 -0.1092
17092SOL    HW263256   2.118   3.165   5.854 -0.9715 -0.4764 -0.8342
17093SOL     OW63257  12.139   1.576   3.412 -0.3908 -0.3058  0.0530
17093SOL    HW163258  12.183   1.549   3.332  2.6413 -1.0943  1.8276
17093SOL    HW263259  12.065   1.515   3.421 -1.1814  0.1868 -2.3338
17094SOL     OW63260   2.560   6.726   4.580 -0.5187  0.5543 -0.2241
17094SOL    HW163261   2.629   6.663   4.600 -0.1991  1.4313  1.6193
17094SOL    HW263262   2.526   6.752   4.665  0.0071  3.5865 -0.8395
17095SOL     OW63263   5.327  12.342  13.452  0.4619  0.5408  0.1880
17095SOL    HW163264   5.374  12.299  13.381  1.5581  1.9354  0.0334
17095SOL    HW263265   5.261  12.396  13.408 -0.4013 -0.3477  0.3517
17096SOL     OW63266   3.864   2.006   7.388  0.0527  0.0921 -0.2179
17096SOL    HW163267   3.860   1.924   7.437 -3.3746 -0.0100 -0.4361
17096SOL    HW263268   3.898   2.070   7.451 -0.2733 -0.8483  0.9488
17097SOL     OW63269   0.727  10.718   7.667 -0.4631 -0.3734 -0.4407
17097SOL    HW163270   0.744  10.686   7.756 -0.0149  0.5957 -0.1661
17097SOL    HW263271   0.814  10.734   7.630 -0.6701  1.0491 -0.3679
17098SOL     OW63272   5.467   1.283   7.737 -0.0920 -0.0643  0.1321
17098SOL    HW163273   5.545   1.316   7.692  0.4657 -0.6340  0.6691
17098SOL    HW263274   5.435   1.358   7.787  0.4407  0.0169  0.3538
17099SOL     OW63275   0.516   7.120   3.010 -0.1020  0.5372 -0.2681
17099SOL    HW163276   0.497   7.152   3.098 -1.7745  0.5421 -0.6035
17099SOL    HW263277   0.599   7.163   2.986  0.4093  0.4805  1.3057
17100SOL     OW63278  13.641   2.115   2.135  0.1410  0.1893  0.2753
17100SOL    HW163279  13.609   2.055   2.067  2.2581  0.1734 -0.7816
17100SOL    HW263280  13.562   2.159   2.167 -1.2323 -1.7247 -0.2986
17101SOL     OW63281   9.461   9.866   8.925 -0.4816 -0.6559  0.0430
17101SOL    HW163282   9.453   9.772   8.910 -1.0795 -0.7349  0.8089
17101SOL    HW263283   9.532   9.893   8.867 -0.6705 -1.4754 -0.5917
17102SOL     OW63284  11.327  11.986  11.361 -0.2924  0.2725 -0.3140
17102SOL    HW163285  11.383  11.995  11.439 -0.7151  0.8281 -0.0696
17102SOL    HW263286  11.324  12.074  11.324 -0.5697  0.1282 -0.6303
17103SOL     OW63287   9.571   8.989  13.625 -0.3113  0.2348  0.3346
17103SOL    HW163288   9.493   9.027  13.585 -1.4142 -1.4068  0.8460
17103SOL    HW263289   9.608   9.061  13.677 -2.2063  0.7217  1.1118
17104SOL     OW63290  13.230  13.814   9.964  0.1357  0.9154  0.5339
17104SOL    HW163291  13.324  13.797   9.966 -0.2586 -1.6568  1.6299
17104SOL    HW263292  13.191  13.728   9.947 -2.0749  1.4136  2.5031
17105SOL     OW63293   9.297  10.145   2.899  0.0209  0.4673 -0.2700
17105SOL    HW163294   9.268  10.117   2.812 -0.4294  0.7869 -0.2276
17105SOL    HW263295   9.380  10.190   2.883  0.9202 -1.1291 -0.3042
17106SOL     OW63296   9.151   5.746  13.377 -0.5338  0.1494 -0.2207
17106SOL    HW163297   9.152   5.700  13.462  0.3933 -0.0867 -0.3489
17106SOL    HW263298   9.131   5.837  13.399  1.8226  0.5506  0.5098
17107SOL     OW63299   1.356  10.030  10.647  0.3360  0.0631  0.0906
17107SOL    HW163300   1.274  10.029  10.597  0.5850 -2.6942 -0.3900
17107SOL    HW263301   1.335   9.983  10.728  0.3230  3.2596  2.1319
17108SOL     OW63302   1.643   8.689  12.120 -0.4785 -0.6751 -0.3719
17108SOL    HW163303   1.692   8.750  12.066  2.0824 -2.3389 -0.0706
17108SOL    HW263304   1.606   8.743  12.190 -0.7135  0.9223 -1.6875
17109SOL     OW63305   1.037   2.186  12.514  0.0943 -0.1967  0.0097
17109SOL    HW163306   1.011   2.152  12.600  2.4098 -2.0847  0.0693
17109SOL    HW263307   0.986   2.135  12.451  0.4616 -0.8509  0.2284
17110SOL     OW63308   6.277   2.737   1.917 -0.2487  0.2457  0.1020
17110SOL    HW163309   6.235   2.732   1.831  1.6862 -0.6658 -0.8457
17110SOL    HW263310   6.352   2.678   1.910  1.2079  1.8077  1.6994
17111SOL     OW63311   5.935   6.895   5.924 -0.5265  0.3351 -0.3094
17111SOL    HW163312   5.966   6.809   5.953 -0.5988 -0.0496 -1.3182
17111SOL    HW263313   5.918   6.883   5.830 -2.6479  0.8321 -0.0321
17112SOL     OW63314   0.000   1.844   8.451  0.2539 -0.0657  0.2801
17112SOL    HW163315  -0.084   1.855   8.495 -0.9542 -0.5598 -1.7795
17112SOL    HW263316   0.018   1.750   8.456 -0.1394 -0.2041 -0.6424
17113SOL     OW63317  10.073   6.028   4.298 -0.4709  0.3333 -0.3076
17113SOL    HW163318  10.157   6.051   4.256  0.2678 -1.8523 -0.1432
17113SOL    HW263319  10.068   6.086   4.373  1.4013 -0.1178  0.2245
17114SOL     OW63320   0.150   8.688   8.424  0.1227  0.6255  0.0856
17114SOL    HW163321   0.086   8.621   8.398  1.3078  0.4803 -2.7993
17114SOL    HW263322   0.234   8.642   8.422  0.6790  1.6007  0.6508
17115SOL     OW63323   1.397   4.480  12.851  0.0148  0.3112 -0.0870
17115SOL    HW163324   1.391   4.413  12.919 -2.1477 -1.1079 -1.5621
17115SOL    HW263325   1.490   4.484  12.830  0.2615 -2.0722  0.2233
17116SOL     OW63326   8.475   3.888  13.667 -0.2782  0.1209  0.0947
17116SOL    HW163327   8.560   3.910  13.628 -0.7256 -0.1177 -1.0462
17116SOL    HW263328   8.438   3.972  13.693 -0.1073  0.3228 -0.2988
17117SOL     OW63329   9.005   1.291   3.769  0.2796  0.0012 -0.2181
17117SOL    HW163330   9.034   1.368   3.818 -0.1304 -0.2318  0.4048
17117SOL    HW263331   8.959   1.327   3.693 -1.1851  0.4117  0.8160
17118SOL     OW63332   8.907   4.386   6.887 -0.1964  0.2231  0.2642
17118SOL    HW163333   8.987   4.429   6.917  0.8371 -1.8989  0.7672
17118SOL    HW263334   8.935   4.334   6.812 -1.8396  1.9770 -1.6747
17119SOL     OW63335  12.777   2.937   5.408 -0.2290  0.5148 -0.1654
17119SOL    HW163336  12.861   2.919   5.365 -0.4133 -0.5743 -0.1032
17119SOL    HW263337  12.797   3.007   5.470  0.6799  0.1838 -0.0553
17120SOL     OW63338   1.941   7.535   1.031  0.0416  0.7478  0.2128
17120SOL    HW163339   2.026   7.573   1.009 -0.9055  2.3714 -0.8616
17120SOL    HW263340   1.892   7.607   1.071 -0.0617 -0.7995  3.1316
17121SOL     OW63341   3.638   8.081   7.772 -0.4897  0.0224  0.3327
17121SOL    HW163342   3.682   8.086   7.687  0.0995 -0.0111  0.6258
17121SOL    HW263343   3.703   8.040   7.830 -0.9899 -0.2269  0.7286
17122SOL     OW63344  13.456   1.695  11.610  0.6221 -0.2854  0.6378
17122SOL    HW163345  13.466   1.790  11.617 -3.8960  0.6939 -2.1343
17122SOL    HW263346  13.379   1.675  11.664  0.7289 -2.1232  0.1770
17123SOL     OW63347   7.163  12.603   0.297 -0.3839  0.0175  0.2091
17123SOL    HW163348   7.257  12.616   0.307 -0.1507 -1.4163  0.0844
17123SOL    HW263349   7.152  12.569   0.208 -1.0499  0.4021  0.1343
17124SOL     OW63350   9.083  10.192   4.534  0.3043  0.3070 -0.0528
17124SOL    HW163351   9.080  10.269   4.477 -0.4391 -0.0805 -0.5509
17124SOL    HW263352   9.131  10.126   4.484 -2.1180 -0.7388 -1.1737
17125SOL     OW63353  13.152   1.154   9.875  0.7308 -0.4462 -0.1222
17125SOL    HW163354  13.154   1.137   9.969 -1.9562 -0.8848 -0.0615
17125SOL    HW263355  13.162   1.068   9.835  0.9004 -0.3855 -0.2115
17126SOL     OW63356  13.422   7.390  12.323  0.5228 -0.2568 -0.3808
17126SOL    HW163357  13.335   7.371  12.358  0.5457 -1.7288 -1.0019
17126SOL    HW263358  13.429   7.485  12.324 -0.2617 -0.1779  1.6340
17127SOL     OW63359   0.190  13.775   1.808 -0.7295 -0.3835  0.2456
17127SOL    HW163360   0.198  13.714   1.882 -0.8685  0.5970  1.0981
17127SOL    HW263361   0.215  13.860   1.845 -0.2252  0.0200 -1.0046
17128SOL     OW63362   9.318   5.903   7.629  0.0335 -0.0947 -0.1009
17128SOL    HW163363   9.270   5.852   7.564 -0.9624  1.2176 -0.4395
17128SOL    HW263364   9.377   5.958   7.577 -0.5038  0.6976  0.1133
17129SOL     OW63365   9.522   7.247  12.738 -0.1199  0.2833 -0.4272
17129SOL    HW163366   9.540   7.188  12.811 -1.0279 -0.8976 -1.1100
17129SOL    HW263367   9.442   7.294  12.765  1.4233  2.3896  0.7690
17130SOL     OW63368   1.491   2.540  12.593 -0.3113 -0.6100  0.0293
17130SOL    HW163369   1.468   2.469  12.533  0.1644 -0.9463  0.2372
17130SOL    HW263370   1.512   2.614  12.536  0.3314 -0.9848 -0.2300
17131SOL     OW63371  13.843  12.867  13.127 -0.0727 -0.3125 -0.0245
17131SOL    HW163372  13.913  12.818  13.084  1.9561  2.6100 -0.3423
17131SOL    HW263373  13.809  12.807  13.194  2.4987 -1.9751 -0.0820
17132SOL     OW63374   0.627   6.912  11.503  0.2741 -0.5125 -0.1766
17132SOL    HW163375   0.627   6.840  11.439  0.1438 -0.8082  0.1537
17132SOL    HW263376   0.554   6.893  11.561  0.7286 -0.5479  0.3955
17133SOL     OW63377   7.439   5.596   7.819  0.0616 -0.1188  0.4621
17133SOL    HW163378   7.519   5.627   7.862 -0.3544  1.2010  0.3098
17133SOL    HW263379   7.469   5.563   7.734  0.4398  0.4085  0.3866
17134SOL     OW63380  13.761   5.301  13.385  0.5283 -0.0906  0.2145
17134SOL    HW163381  13.678   5.256  13.400  0.1383  0.5731  0.1063
17134SOL    HW263382  13.807   5.248  13.320 -1.2377  1.2266 -2.3049
17135SOL     OW63383  13.801   0.776  12.751 -0.2037  0.3813 -0.4406
17135SOL    HW163384  13.833   0.854  12.796  1.9636  0.6302 -2.2198
17135SOL    HW263385  13.879   0.721  12.741 -1.6044 -1.9218  0.4877
17136SOL     OW63386   1.081   9.296   0.974 -0.2697 -0.4690  0.5293
17136SOL    HW163387   1.038   9.237   0.912 -0.7909 -2.2088  2.4326
17136SOL    HW263388   1.109   9.370   0.921 -1.7822 -1.2818 -1.5483
17137SOL     OW63389   7.967   9.989  10.736 -0.5756  0.1008  0.4739
17137SOL    HW163390   7.896  10.002  10.799 -1.5420 -1.3278 -0.2737
17137SOL    HW263391   8.018   9.916  10.773 -0.2054  0.3222  0.4021
17138SOL     OW63392  13.856   9.982   3.369  0.0682  0.2630  0.1965
17138SOL    HW163393  13.852   9.898   3.414  0.6374  0.2084  0.1545
17138SOL    HW263394  13.786  10.034   3.409  0.1706  0.0085  0.7145
17139SOL     OW63395   9.217   9.341  13.805  0.3081  0.2548 -0.9074
17139SOL    HW163396   9.144   9.403  13.816  0.4718  0.1165  1.5565
17139SOL    HW263397   9.196   9.270  13.865  1.4581 -0.8132 -1.7437
17140SOL     OW63398  13.016   6.220  11.875 -0.1112  0.3938  0.3571
17140SOL    HW163399  13.001   6.140  11.825  0.6579 -0.0996  0.8854
17140SOL    HW263400  12.963   6.209  11.954  1.6813 -0.6446  1.4887
17141SOL     OW63401   7.463   2.927   7.477  0.4728 -0.1371 -0.1368
17141SOL    HW163402   7.502   2.901   7.393 -0.1405  0.0936 -0.5025
17141SOL    HW263403   7.413   2.850   7.505 -0.9377  0.4285 -0.9754
17142SOL     OW63404   2.869   5.831   1.792  0.7167 -0.5868  0.3872
17142SOL    HW163405   2.861   5.763   1.858 -1.9910  0.2267  1.0243
17142SOL    HW263406   2.897   5.909   1.840  1.0265 -0.5503  0.1529
17143SOL     OW63407   2.340   3.013   3.349 -0.3917 -0.0869  0.3123
17143SOL    HW163408   2.294   3.044   3.270 -1.9757 -0.8051  0.9071
17143SOL    HW263409   2.423   3.060   3.348 -1.0742  1.1830 -0.9059
17144SOL     OW63410   3.171  12.753   0.188  0.0389 -0.3203  0.0034
17144SOL    HW163411   3.257  12.770   0.149  0.0586 -2.4690 -1.0326
17144SOL    HW263412   3.189  12.694   0.261 -0.6573 -2.2417 -1.3111
17145SOL     OW63413  10.940   5.547  13.476  0.4514  0.0516 -0.5765
17145SOL    HW163414  10.968   5.463  13.439  1.6433  1.2003 -2.4365
17145SOL    HW263415  10.857   5.565  13.432  0.0401 -0.2806  0.0534
17146SOL     OW63416   3.199   7.111  13.380  0.1794 -0.0838 -0.3731
17146SOL    HW163417   3.186   7.020  13.353 -0.0003  0.0177 -0.6394
17146SOL    HW263418   3.115   7.154  13.362 -0.1537 -0.1421  0.9264
17147SOL     OW63419   1.176   0.806   0.206 -0.7472  0.3610 -0.0934
17147SOL    HW163420   1.142   0.718   0.188 -0.3153 -0.1919  1.6387
17147SOL    HW263421   1.268   0.792   0.228 -0.8104  1.1662  0.7191
17148SOL     OW63422  12.044   0.022   7.626 -0.0098 -0.3277  0.2589
17148SOL    HW163423  12.122  -0.032   7.643 -0.8518 -1.2797  1.2501
17148SOL    HW263424  12.070   0.079   7.554  1.2363 -1.4219 -0.2089
17149SOL     OW63425  10.071   2.945   2.138 -0.3934  0.1456  0.6977
17149SOL    HW163426  10.132   2.916   2.205  0.4320  1.5964  0.6087
17149SOL    HW263427  10.095   2.896   2.060  0.3729  0.3842  0.7800
17150SOL     OW63428   8.430   3.184   8.990 -0.5218 -0.2073  0.2101
17150SOL    HW163429   8.361   3.222   8.936 -0.3359  0.2447  0.2849
17150SOL    HW263430   8.497   3.253   8.996  0.2992 -0.9210 -0.5186
17151SOL     OW63431   6.033   1.455   3.809  0.6537  0.2191  0.1753
17151SOL    HW163432   6.117   1.435   3.768  0.3227  1.1293 -1.0109
17151SOL    HW263433   5.968   1.433   3.743  0.0079  0.3764  0.7469
17152SOL     OW63434  13.619   2.778  11.646 -0.2670 -0.0728  0.2644
17152SOL    HW163435  13.554   2.711  11.627 -1.4792  0.8058  1.1059
17152SOL    HW263436  13.655   2.753  11.731 -0.0711 -0.1399  0.1616
17153SOL     OW63437  13.374  13.648   5.944  0.8641  0.0214 -0.1245
17153SOL    HW163438  13.425  13.570   5.923 -0.1420 -0.7293  0.1239
17153SOL    HW263439  13.316  13.620   6.015  0.0088  0.7837 -0.5012
17154SOL     OW63440   9.415   2.118  12.759  0.3556  0.3339  0.1307
17154SOL    HW163441   9.397   2.200  12.712  2.0332  1.2529  0.9801
17154SOL    HW263442   9.421   2.052  12.690  0.7546  1.2770 -0.7749
17155SOL     OW63443   7.873   9.391   1.439  0.5576  0.4209  0.4053
17155SOL    HW163444   7.794   9.436   1.410  0.2707 -0.3592 -0.0499
17155SOL    HW263445   7.945   9.449   1.413  0.2482  0.1786 -1.0360
17156SOL     OW63446   6.325   5.726   3.989  0.1653 -0.5889  0.0536
17156SOL    HW163447   6.386   5.737   4.062 -0.0047 -1.2808  0.3048
17156SOL    HW263448   6.381   5.710   3.913  0.2959 -1.5521  0.3412
17157SOL     OW63449   6.570   5.067   4.693 -0.6070  0.2448 -0.2462
17157SOL    HW163450   6.533   4.979   4.691  0.3460 -0.2067  0.7569
17157SOL    HW263451   6.512   5.117   4.749 -0.1579 -0.2467  0.6784
17158SOL     OW63452  11.260   2.224  13.760  0.0608  0.0945 -0.5102
17158SOL    HW163453  11.331   2.168  13.727  0.8807  1.5453 -1.3083
17158SOL    HW263454  11.299   2.311  13.765 -0.8761  0.4587  1.6616
17159SOL     OW63455   5.912  11.457  10.347 -0.0930  0.1644 -0.3194
17159SOL    HW163456   5.916  11.477  10.441 -0.0367  0.6646 -0.4281
17159SOL    HW263457   5.836  11.398  10.339 -0.9366  1.1921 -0.1419
17160SOL     OW63458  11.696   2.862   6.678 -0.4394  0.3653 -0.2702
17160SOL    HW163459  11.672   2.950   6.648 -0.1076  0.1248 -1.2878
17160SOL    HW263460  11.697   2.869   6.773 -1.6861  1.1340 -0.2767
17161SOL     OW63461  11.541   8.818  12.747  0.2940 -0.0696  0.3665
17161SOL    HW163462  11.541   8.858  12.660  0.2852 -1.6578 -0.3920
17161SOL    HW263463  11.448   8.806  12.767  0.2866  0.5661  0.7393
17162SOL     OW63464   1.311   4.447  11.736 -0.3326 -0.4070 -0.0399
17162SOL    HW163465   1.369   4.520  11.712  1.4232 -1.6215  0.2697
17162SOL    HW263466   1.360   4.399  11.803 -1.1089 -2.2740 -0.7466
17163SOL     OW63467   0.256   0.293   8.129  0.7319  0.8173 -0.1459
17163SOL    HW163468   0.271   0.382   8.096  0.3174  1.0361  0.2464
17163SOL    HW263469   0.226   0.244   8.053 -0.8967  1.4853  0.0208
17164SOL     OW63470   0.662   5.066   3.788 -0.3523  0.5978  0.5715
17164SOL    HW163471   0.715   4.988   3.805  0.3147  0.9515  0.1631
17164SOL    HW263472   0.662   5.114   3.872  0.2520  0.7534  0.4878
17165SOL     OW63473  11.695  10.646   4.402 -0.1709  0.4411 -0.0326
17165SOL    HW163474  11.728  10.678   4.318  1.8619 -1.3386 -0.0215
17165SOL    HW263475  11.677  10.553   4.387 -0.2359  0.1975  1.3754
17166SOL     OW63476   8.806  10.611   8.934  0.1274 -0.5112  0.0927
17166SOL    HW163477   8.881  10.643   8.983 -0.9527 -1.0065  2.1795
17166SOL    HW263478   8.830  10.522   8.908  0.3256 -0.6026  0.5930
17167SOL     OW63479  12.094   4.532  13.770 -0.3847 -0.5400 -0.5040
17167SOL    HW163480  12.024   4.473  13.798  1.1814 -1.5158  1.6268
17167SOL    HW263481  12.172   4.500  13.814  0.6381  2.9881  0.6099
17168SOL     OW63482  12.787  12.396   0.076 -0.0522  0.1159 -0.3984
17168SOL    HW163483  12.770  12.304   0.055  1.4263 -0.2932  0.0838
17168SOL    HW263484  12.708  12.442   0.047 -1.2010 -1.4023  0.1598
17169SOL     OW63485   3.115   1.072   7.089 -0.6150  0.5053  0.1410
17169SOL    HW163486   3.157   1.158   7.092 -0.2317  0.4385 -1.8595
17169SOL    HW263487   3.187   1.010   7.075 -0.9164 -0.1333  1.2867
17170SOL     OW63488   2.013   2.760  10.456  0.6545 -0.0013  0.3301
17170SOL    HW163489   2.090   2.706  10.436  0.0230 -1.9440  2.6763
17170SOL    HW263490   2.009   2.762  10.552 -2.4254 -0.3363  0.3108
17171SOL     OW63491  11.246   0.461  13.760 -0.4298 -0.0078 -0.6712
17171SOL    HW163492  11.311   0.463  13.831 -1.9562  0.7332  0.7851
17171SOL    HW263493  11.179   0.400  13.791 -1.3917  0.7448 -1.2111
17172SOL     OW63494   5.796  13.522   9.966  0.4390 -0.2852 -0.2663
17172SOL    HW163495   5.735  13.556  10.031  1.1983 -0.3524  0.5069
17172SOL    HW263496   5.754  13.444   9.931 -0.9209  0.8880 -1.3943
17173SOL     OW63497   1.875   9.758   1.714  0.5544 -0.2902  0.6161
17173SOL    HW163498   1.882   9.789   1.804 -2.1324  0.2573  0.7118
17173SOL    HW263499   1.953   9.704   1.701  0.0126 -2.1246  3.9501
17174SOL     OW63500  11.396   6.176   3.238  0.0399  0.3399 -0.3062
17174SOL    HW163501  11.452   6.126   3.298 -1.2272 -0.1986  0.4847
17174SOL    HW263502  11.318   6.196   3.290 -0.0203  2.0852 -1.0116
17175SOL     OW63503   1.728   3.099   0.821  0.1975  0.5599  0.1734
17175SOL    HW163504   1.765   3.177   0.780 -0.3256  1.4837  1.4074
17175SOL    HW263505   1.740   3.114   0.915 -1.4226 -0.0738  0.5007
17176SOL     OW63506   4.695   8.322  12.630  0.2343 -0.2564  0.3230
17176SOL    HW163507   4.663   8.347  12.717  0.6901 -1.0227  0.7137
17176SOL    HW263508   4.755   8.250  12.646  0.9656  0.1373 -0.5521
17177SOL     OW63509   8.058   2.247  10.505  0.2951 -0.0182 -0.3203
17177SOL    HW163510   7.994   2.176  10.510  0.8665 -0.5214  0.0492
17177SOL    HW263511   8.010   2.325  10.532  0.0463 -0.5419  0.8045
17178SOL     OW63512   3.409  10.111   5.995  0.3784 -0.0326 -0.3380
17178SOL    HW163513   3.494  10.096   5.954  1.7943  0.6766  2.1014
17178SOL    HW263514   3.371  10.184   5.945  0.6897 -1.0300 -2.1047
17179SOL     OW63515   0.755   7.575   5.559 -0.6089 -0.3100  0.3045
17179SOL    HW163516   0.803   7.616   5.487 -0.6715  0.9700  0.9631
17179SOL    HW263517   0.731   7.648   5.617  1.0204 -1.4345  2.5856
17180SOL     OW63518   9.389   1.605   3.568 -0.4657  0.1657  0.2822
17180SOL    HW163519   9.386   1.523   3.618  0.4884  0.2747  0.5403
17180SOL    HW263520   9.417   1.578   3.481 -1.8524  0.0107 -0.1254
17181SOL     OW63521   4.282   9.755  11.280 -0.3044  0.2103  0.0840
17181SOL    HW163522   4.341   9.727  11.350  1.3219 -3.1092 -2.3265
17181SOL    HW263523   4.325   9.832  11.242  0.3682  0.2158  0.8260
17182SOL     OW63524   3.878   1.972   0.562 -0.6204  0.1358 -0.6982
17182SOL    HW163525   3.929   1.895   0.586 -2.0176 -0.0514  2.1706
17182SOL    HW263526   3.934   2.021   0.502  1.7518 -1.3964  0.1271
17183SOL     OW63527   4.498   4.886   0.916  0.0632  0.2957 -0.6596
17183SOL    HW163528   4.529   4.956   0.860 -1.6989  0.7132 -1.1517
17183SOL    HW263529   4.403   4.896   0.919 -0.0240 -0.5339  1.3064
17184SOL     OW63530   5.309   5.344  12.757 -0.6479 -0.6124  0.0714
17184SOL    HW163531   5.258   5.419  12.788  0.3283  0.4483 -0.8157
17184SOL    HW263532   5.386   5.383  12.716  0.4607 -2.1533  0.6336
17185SOL     OW63533   2.819   9.572   4.970  0.2172  0.0147 -0.5009
17185SOL    HW163534   2.751   9.577   4.902 -1.4532 -1.3465  0.9830
17185SOL    HW263535   2.782   9.621   5.044  2.5714  2.6646 -0.8977
17186SOL     OW63536   3.586  13.681  12.493 -0.5124 -0.3958 -0.2363
17186SOL    HW163537   3.532  13.630  12.553 -1.1146 -1.3448 -1.5622
17186SOL    HW263538   3.669  13.633  12.489 -0.5316 -0.4225 -0.3027
17187SOL     OW63539   0.412  10.536   1.086 -0.2355 -0.0952 -0.2987
17187SOL    HW163540   0.410  10.455   1.035  0.9152  0.5602 -1.4301
17187SOL    HW263541   0.469  10.516   1.160  0.8967 -0.0192 -1.1362
17188SOL     OW63542   3.399   0.075  12.718  0.0416 -0.3384 -0.4052
17188SOL    HW163543   3.460   0.021  12.669  1.5188  0.6073  0.3142
17188SOL    HW263544   3.423   0.165  12.696  0.6413  0.1275  1.8026
17189SOL     OW63545  12.287   9.891   7.484  0.8841  0.0212  0.2723
17189SOL    HW163546  12.343   9.898   7.562  1.1842 -0.3976  0.0986
17189SOL    HW263547  12.342   9.920   7.412  1.1505 -1.1247 -0.0094
17190SOL     OW63548   9.794  12.077  10.300  0.0086  0.2436  0.3449
17190SOL    HW163549   9.716  12.038  10.260  0.7953 -0.7017 -0.3260
17190SOL    HW263550   9.849  12.002  10.323  1.7322  0.9231 -1.2920
17191SOL     OW63551   0.613   3.779   3.207 -0.2714 -0.1911  0.1131
17191SOL    HW163552   0.643   3.868   3.189  1.2999 -0.6380  0.3642
17191SOL    HW263553   0.605   3.775   3.302 -0.3794 -0.3124  0.1000
17192SOL     OW63554   5.387   0.541   0.143 -0.1094  0.1797 -0.0449
17192SOL    HW163555   5.478   0.545   0.172 -0.3775  0.2175  0.8244
17192SOL    HW263556   5.343   0.609   0.194 -0.9897 -1.0651  0.9217
17193SOL     OW63557  13.551   3.570   2.075  0.2330 -0.0104  0.0097
17193SOL    HW163558  13.502   3.633   2.021 -0.4218  1.1939  1.9041
17193SOL    HW263559  13.489   3.543   2.142  1.7052  0.4911  1.6498
17194SOL     OW63560   3.506   9.139  10.477  0.7183  0.2422  0.4045
17194SOL    HW163561   3.555   9.180  10.405 -1.2854 -0.5267 -1.4960
17194SOL    HW263562   3.421   9.183  10.476  0.9460  0.8879  3.0082
17195SOL     OW63563   6.851  11.945   7.647 -0.4119 -0.8627 -0.3495
17195SOL    HW163564   6.761  11.952   7.678 -0.6759  2.7312 -1.4787
17195SOL    HW263565   6.848  11.974   7.556  1.8013 -1.3497 -0.6354
17196SOL     OW63566   6.152   3.679   0.578 -0.1148  0.5168 -0.2925
17196SOL    HW163567   6.113   3.739   0.642  2.7317  0.7513  1.4488
17196SOL    HW263568   6.112   3.594   0.597 -1.9503  1.2403 -0.7200
17197SOL     OW63569   2.845   9.916   4.505 -0.7689  0.2795 -0.3832
17197SOL    HW163570   2.750   9.924   4.494 -0.9621 -0.5898  0.5803
17197SOL    HW263571   2.859   9.915   4.599  0.1685 -0.0493 -0.5116
17198SOL     OW63572   9.623  13.914  13.591  0.0230 -0.0572 -0.2237
17198SOL    HW163573   9.687  13.970  13.635  1.4205 -2.6739  1.3315
17198SOL    HW263574   9.580  13.865  13.662 -0.0410 -2.0213 -1.5195
17199SOL     OW63575   3.317   5.263  12.549 -0.4793  0.2030 -0.2325
17199SOL    HW163576   3.395   5.237  12.598 -1.3870  0.0451  1.1615
17199SOL    HW263577   3.328   5.357  12.534 -0.9638  0.6077  1.7579
17200SOL     OW63578   6.570   2.069   5.094  0.1437 -0.6088  0.5121
17200SOL    HW163579   6.642   2.129   5.076 -0.0256  0.0661  1.9485
17200SOL    HW263580   6.612   1.987   5.122  0.3678 -1.1186 -1.2077
17201SOL     OW63581  12.832   0.233   1.532  0.2032  0.4085  0.0909
17201SOL    HW163582  12.785   0.248   1.450  0.9830  0.5578 -0.3408
17201SOL    HW263583  12.901   0.300   1.533  0.4066  0.1987  0.7059
17202SOL     OW63584   7.135  12.353  11.707 -0.6931  0.3100  0.7229
17202SOL    HW163585   7.222  12.345  11.745  0.3085 -1.2452 -1.6574
17202SOL    HW263586   7.146  12.415  11.635 -0.8673 -1.7619 -1.1972
17203SOL     OW63587  10.635  11.463   4.771  0.3425 -0.1506 -0.9198
17203SOL    HW163588  10.581  11.396   4.729  0.8989 -0.8903 -0.4743
17203SOL    HW263589  10.658  11.425   4.856  1.9693 -0.0597 -1.3027
17204SOL     OW63590   7.874   6.156   5.861  0.1754  0.5632 -0.0938
17204SOL    HW163591   7.886   6.244   5.897 -0.9164  0.6777  0.0177
17204SOL    HW263592   7.782   6.135   5.878  0.5770 -0.8807  0.5044
17205SOL     OW63593   6.594  13.395  10.452 -0.3727 -0.4611 -0.2601
17205SOL    HW163594   6.688  13.389  10.473 -0.6649 -0.3837  1.2246
17205SOL    HW263595   6.574  13.313  10.407  0.2522 -0.8459  0.1459
17206SOL     OW63596  10.016   5.836   0.590  0.0328  0.8644 -0.0140
17206SOL    HW163597  10.067   5.810   0.667  0.2816  0.2195 -0.3898
17206SOL    HW263598  10.060   5.793   0.516 -1.8484 -0.9475 -0.1922
17207SOL     OW63599   8.133   0.217   5.012 -0.7698  0.0211  0.1705
17207SOL    HW163600   8.126   0.237   5.105  0.6742  2.3676 -0.1314
17207SOL    HW263601   8.190   0.140   5.008  0.7177  1.0093  1.2082
17208SOL     OW63602  12.478   1.665  10.813  0.1772  0.2514  0.9348
17208SOL    HW163603  12.486   1.654  10.908 -1.1540  1.4286  1.2112
17208SOL    HW263604  12.384   1.680  10.798  0.5572  1.5453 -0.4024
17209SOL     OW63605   2.685   6.258   1.378 -0.4900  0.2227 -0.0880
17209SOL    HW163606   2.592   6.256   1.399 -0.3868 -0.1448  0.3533
17209SOL    HW263607   2.699   6.344   1.339 -0.6806  0.9833  1.4349
17210SOL     OW63608  10.647   7.708  11.118  0.5181  0.3096 -0.2023
17210SOL    HW163609  10.727   7.675  11.077 -1.1633 -2.5381 -1.4776
17210SOL    HW263610  10.593   7.737  11.044 -0.5465 -0.0366  0.4211
17211SOL     OW63611   5.880   0.635  13.566 -0.0006 -0.3050  0.0414
17211SOL    HW163612   5.875   0.730  13.555  0.9988 -0.3896 -1.3027
17211SOL    HW263613   5.795   0.603  13.534  1.2300 -0.1723 -3.9442
17212SOL     OW63614  12.685   0.282   1.302 -0.0361  0.2137 -0.4650
17212SOL    HW163615  12.599   0.256   1.335  0.2748  0.2204  0.3744
17212SOL    HW263616  12.690   0.243   1.214  0.8164 -3.5764  1.0534
17213SOL     OW63617   0.355   4.747   2.092  0.0714 -0.2757 -0.2103
17213SOL    HW163618   0.413   4.824   2.093  0.4358 -0.5158 -1.3487
17213SOL    HW263619   0.406   4.678   2.133  1.4210 -1.0163 -2.9233
17214SOL     OW63620  11.552  11.629   8.142 -0.3399  0.2024  0.5027
17214SOL    HW163621  11.622  11.659   8.200 -0.7998 -0.0378  1.2078
17214SOL    HW263622  11.570  11.669   8.058  0.3865  0.5099  0.8037
17215SOL     OW63623   6.354   6.766   2.451  0.2041 -0.4881 -0.7829
17215SOL    HW163624   6.294   6.771   2.377 -0.1435  0.7350 -0.4370
17215SOL    HW263625   6.385   6.675   2.451 -3.0186 -1.7277  0.1352
17216SOL     OW63626   5.661   8.887   5.522  0.5894  0.0459  0.0218
17216SOL    HW163627   5.718   8.941   5.467  1.1781  0.0069  0.5834
17216SOL    HW263628   5.713   8.809   5.540  0.2085 -0.1607  0.2358
17217SOL     OW63629   7.027   2.288   4.901  0.0282  0.6415  0.5650
17217SOL    HW163630   7.099   2.328   4.949  1.4284 -1.2762  0.1958
17217SOL    HW263631   7.050   2.300   4.809 -0.6119  0.8007  0.4174
17218SOL     OW63632  12.691  11.148   1.292 -0.1756 -0.0075  0.1680
17218SOL    HW163633  12.648  11.062   1.291 -0.4764  0.1436 -0.1423
17218SOL    HW263634  12.763  11.138   1.353 -1.1074 -0.0511  1.2995
17219SOL     OW63635   4.548   2.613   4.177 -0.8145  0.4264  0.0546
17219SOL    HW163636   4.512   2.573   4.256 -1.0129 -0.6097 -0.5495
17219SOL    HW263637   4.527   2.706   4.186 -0.0066  0.4947  1.6632
17220SOL     OW63638   6.594   3.030   3.230  0.2644 -0.0824 -1.0380
17220SOL    HW163639   6.656   3.102   3.215  1.0583 -0.2710  0.9627
17220SOL    HW263640   6.648   2.951   3.223  0.7640 -0.1962  2.3252
17221SOL     OW63641   2.325   5.489   2.829 -0.0027  0.1357  0.1139
17221SOL    HW163642   2.327   5.544   2.908  2.5423  0.1421  0.1197
17221SOL    HW263643   2.295   5.548   2.760 -2.4793  0.0817  1.0137
17222SOL     OW63644   6.691   4.687   1.573  0.2098  0.2690 -0.0782
17222SOL    HW163645   6.638   4.761   1.599 -0.3893  0.3223 -1.3894
17222SOL    HW263646   6.688   4.687   1.478  0.4921 -1.2275 -0.1119
17223SOL     OW63647   1.684  13.993   0.530 -0.0556 -0.5828 -0.0289
17223SOL    HW163648   1.685  14.067   0.469  1.9747 -1.1056 -0.7187
17223SOL    HW263649   1.655  14.031   0.613  0.2873  0.8504 -0.5325
17224SOL     OW63650   7.930  13.709   7.510 -0.0287 -0.3040  0.1685
17224SOL    HW163651   7.983  13.632   7.532 -0.0088  0.1043  1.6486
17224SOL    HW263652   7.843  13.687   7.543 -0.1294  0.1264  0.1868
17225SOL     OW63653   4.674   1.294  10.371  0.0968  0.5006 -0.1493
17225SOL    HW163654   4.622   1.220  10.402  3.0215 -1.7387 -0.1047
17225SOL    HW263655   4.616   1.342  10.313 -1.7295 -2.3509 -0.8640
17226SOL     OW63656   3.050   2.203   7.637 -0.4152  0.1346 -0.3081
17226SOL    HW163657   3.048   2.267   7.709 -0.3512 -1.3274  1.0556
17226SOL    HW263658   2.984   2.234   7.575 -0.0710  1.7481  0.0983
17227SOL     OW63659  13.085   8.880  12.963  0.1836  0.0153  0.0880
17227SOL    HW163660  13.128   8.831  13.033  1.7581  1.3175  0.0803
17227SOL    HW263661  13.157   8.917  12.912 -0.9453  0.0920 -1.5250
17228SOL     OW63662   9.733  13.920  12.168  0.0935 -0.0365 -0.0637
17228SOL    HW163663   9.815  13.897  12.212  0.7369 -1.7680 -1.9847
17228SOL    HW263664   9.666  13.915  12.236  1.3298 -0.5052  1.1548
17229SOL     OW63665  11.025   2.019   9.021 -1.2678  0.1004 -0.4997
17229SOL    HW163666  10.942   2.044   8.980 -0.4472  2.6033 -0.7586
17229SOL    HW263667  11.064   1.957   8.959 -1.2860  1.7441 -2.2351
17230SOL     OW63668  13.036   7.309   6.735  0.1976 -0.6179  0.2127
17230SOL    HW163669  13.040   7.405   6.739 -0.9505 -0.5300 -0.3316
17230SOL    HW263670  13.011   7.290   6.644 -0.1786 -1.4074  0.4766
17231SOL     OW63671  11.204   9.491   6.749 -0.1096  0.1465  0.8717
17231SOL    HW163672  11.153   9.521   6.824  1.7528  3.1398  1.1200
17231SOL    HW263673  11.200   9.564   6.686  0.2421 -1.3587 -0.9907
17232SOL     OW63674   6.606  10.820   3.045  0.4383 -0.1253 -0.5633
17232SOL    HW163675   6.584  10.772   2.965  1.1979 -0.6676 -0.4559
17232SOL    HW263676   6.617  10.910   3.016 -1.7331  0.1817 -0.6512
17233SOL     OW63677  11.609   8.332  12.220 -0.3506 -0.6266 -0.0313
17233SOL    HW163678  11.669   8.343  12.146 -0.6600 -0.5240 -0.2725
17233SOL    HW263679  11.557   8.255  12.197 -2.3303  0.9674 -1.2589
17234SOL     OW63680   9.055   0.624  12.313  0.2364 -0.4376 -0.7770
17234SOL    HW163681   9.123   0.558  12.301 -0.9326 -1.8223 -0.1132
17234SOL    HW263682   9.099   0.698  12.355  1.3346 -1.2830 -0.4140
17235SOL     OW63683   2.193  11.738   1.193 -0.1259  0.1625  0.8467
17235SOL    HW163684   2.209  11.812   1.252 -0.1581  1.9302 -1.2434
17235SOL    HW263685   2.125  11.769   1.134  1.4131 -0.6279 -1.5051
17236SOL     OW63686   3.899   2.137   1.104  0.0432  0.1922  0.5621
17236SOL    HW163687   3.952   2.063   1.075  0.3987  0.5177  0.3718
17236SOL    HW263688   3.830   2.097   1.157  0.1212 -0.2920  0.3103
17237SOL     OW63689   6.716   4.865   9.755 -0.4030  0.3076 -0.4145
17237SOL    HW163690   6.707   4.960   9.747 -0.6389  0.2799 -0.4826
17237SOL    HW263691   6.714   4.833   9.665  0.6248  0.3203 -0.4506
17238SOL     OW63692   3.868  13.951   4.536 -0.0352 -0.3335 -0.0890
17238SOL    HW163693   3.789  13.988   4.496 -1.4578 -0.2488  2.5765
17238SOL    HW263694   3.915  14.026   4.572 -0.3226 -0.6416  0.9557
17239SOL     OW63695  13.018   8.056   3.317 -0.0920 -0.4830  0.2314
17239SOL    HW163696  13.034   8.146   3.346 -0.6812 -0.2675 -0.0849
17239SOL    HW263697  12.958   8.020   3.383  0.5986 -0.8360  0.6706
17240SOL     OW63698  13.533  13.422   1.983  0.2088  0.6776 -0.2312
17240SOL    HW163699  13.508  13.379   1.902 -2.0741  0.2111  0.6224
17240SOL    HW263700  13.465  13.489   1.996 -0.5029 -0.3564  2.0597
17241SOL     OW63701  13.292   5.995   8.560  0.0357  0.5720 -0.1934
17241SOL    HW163702  13.313   5.916   8.610  0.1421  0.9804  0.4139
17241SOL    HW263703  13.247   6.052   8.622 -0.5483  0.7655 -0.7809
17242SOL     OW63704   5.605  10.598   9.192 -0.0654  0.2429  0.1910
17242SOL    HW163705   5.601  10.502   9.202 -0.0018  0.2567  0.3410
17242SOL    HW263706   5.519  10.629   9.222  0.5441  0.3928  1.8277
17243SOL     OW63707   1.721  10.853  11.967  0.3000  0.3288 -0.3846
17243SOL    HW163708   1.765  10.813  11.892 -0.9762 -0.2465 -0.8587
17243SOL    HW263709   1.723  10.786  12.035 -1.1911 -0.3447 -0.9382
17244SOL     OW63710   9.745  13.416   9.931 -0.4834 -0.4803  0.9914
17244SOL    HW163711   9.816  13.373   9.883 -1.6944 -0.4561 -0.9465
17244SOL    HW263712   9.667  13.366   9.908 -1.2343 -0.0576  2.4745
17245SOL     OW63713   7.336   4.744   9.798 -0.2903  0.0056  0.1052
17245SOL    HW163714   7.377   4.813   9.851 -1.2767 -0.0606  0.9950
17245SOL    HW263715   7.302   4.791   9.721 -0.4133  0.4100  0.3999
17246SOL     OW63716  10.081   4.447   9.478 -0.5499  0.4521 -0.3890
17246SOL    HW163717  10.074   4.414   9.568  0.2849 -0.9285 -0.8174
17246SOL    HW263718  10.155   4.401   9.440 -1.2035  0.6213 -1.9652
17247SOL     OW63719   5.751  13.011   4.778  0.1384  0.2342  0.7912
17247SOL    HW163720   5.796  13.067   4.714  1.2633 -1.6877 -0.1968
17247SOL    HW263721   5.807  12.934   4.785 -1.7266 -1.1180  1.5098
17248SOL     OW63722  12.884   5.388   9.385  0.5399  0.5780  0.5168
17248SOL    HW163723  12.890   5.297   9.356  0.2381  0.7745 -0.1956
17248SOL    HW263724  12.816   5.426   9.329  1.2798  1.4680  0.2013
17249SOL     OW63725  13.471   1.049   9.712  0.0824  0.1409  0.0308
17249SOL    HW163726  13.482   1.108   9.787  3.3686 -0.2653  0.0393
17249SOL    HW263727  13.499   1.101   9.636  0.0841 -0.4719 -0.3957
17250SOL     OW63728   9.468  10.948   6.564  0.4423 -0.5789  1.0074
17250SOL    HW163729   9.402  11.005   6.523 -0.8078 -0.6571  2.7844
17250SOL    HW263730   9.433  10.860   6.553  1.8329 -0.9628 -0.7652
17251SOL     OW63731   8.367   8.988  12.310  0.4872 -0.3238 -0.1136
17251SOL    HW163732   8.300   8.927  12.340  0.4027  1.7884  4.9039
17251SOL    HW263733   8.447   8.935  12.304 -0.4100 -1.7096 -0.4995
17252SOL     OW63734   3.899   0.732   1.395  0.3750 -0.5596  0.4192
17252SOL    HW163735   3.865   0.721   1.483  2.7844  0.2082  1.5242
17252SOL    HW263736   3.994   0.723   1.404  0.6994 -0.4309 -2.0896
17253SOL     OW63737   4.324  10.873   2.591  0.2999 -0.0948  0.2698
17253SOL    HW163738   4.407  10.835   2.561 -0.5696 -2.1341  0.2875
17253SOL    HW263739   4.341  10.902   2.681  1.2231  0.3747 -0.0448
17254SOL     OW63740   2.638   3.713  11.159  0.0327 -0.0508  0.5589
17254SOL    HW163741   2.591   3.795  11.172 -0.9047 -0.6354  0.9974
17254SOL    HW263742   2.682   3.723  11.074  0.2677  1.0457  0.7958
17255SOL     OW63743   7.818   7.473   0.831  0.2923 -0.2536 -0.6893
17255SOL    HW163744   7.838   7.541   0.767  1.3331  0.9525  0.8428
17255SOL    HW263745   7.887   7.408   0.820  0.0221 -0.4499 -1.2891
17256SOL     OW63746  10.780   3.976  11.694 -0.3524  0.2127 -0.4721
17256SOL    HW163747  10.708   3.979  11.757 -1.4227  2.7024 -1.6576
17256SOL    HW263748  10.746   3.925  11.620 -0.9500  1.3453 -1.0098
17257SOL     OW63749   2.278   9.891   3.232  0.5158  0.0964 -0.5324
17257SOL    HW163750   2.197   9.942   3.224 -0.4488 -1.2989 -0.0024
17257SOL    HW263751   2.267   9.819   3.170  1.2913 -0.2058 -0.3266
17258SOL     OW63752   0.907   3.117   1.804  0.2146 -0.0242 -0.5162
17258SOL    HW163753   0.899   3.194   1.747 -0.1559  0.8960  0.7183
17258SOL    HW263754   0.917   3.154   1.892 -2.4650 -1.3758  0.4578
17259SOL     OW63755   0.690  11.282   9.616 -0.2015  0.3318  0.0734
17259SOL    HW163756   0.645  11.348   9.668 -1.7060  1.5132 -2.5498
17259SOL    HW263757   0.621  11.222   9.588  0.1967  0.7826 -2.0147
17260SOL     OW63758   0.734   4.988   7.777  0.3375 -0.4617 -0.2133
17260SOL    HW163759   0.671   4.971   7.846 -0.2045  0.7616 -0.3853
17260SOL    HW263760   0.819   4.966   7.816  0.1045  0.7410  1.0654
17261SOL     OW63761   1.114  12.512   8.126 -0.0574  0.0934 -0.2193
17261SOL    HW163762   1.186  12.567   8.157 -0.6927  1.0170 -0.3586
17261SOL    HW263763   1.067  12.566   8.063 -0.4551 -0.7571 -0.6737
17262SOL     OW63764   6.382   7.294   5.159 -0.2296  0.0951 -0.4161
17262SOL    HW163765   6.317   7.362   5.175 -1.2442 -0.6910 -1.0701
17262SOL    HW263766   6.337   7.212   5.179  1.7177 -0.3644  2.8697
17263SOL     OW63767   2.335   4.361  12.635  0.2880  0.0911 -0.4605
17263SOL    HW163768   2.423   4.387  12.606  0.2882  0.0604 -0.4871
17263SOL    HW263769   2.349   4.326  12.723  0.4136 -0.6040 -0.7492
17264SOL     OW63770   0.918   2.861   4.963  0.1084 -0.2502  0.4016
17264SOL    HW163771   0.847   2.812   5.004 -0.0020 -0.0460  0.4545
17264SOL    HW263772   0.897   2.861   4.870  0.0971 -0.2837  0.4041
17265SOL     OW63773   3.905   5.171   1.757 -0.0480  0.2672  0.0537
17265SOL    HW163774   3.886   5.265   1.761  1.1215  0.5170  0.1906
17265SOL    HW263775   3.843   5.132   1.818 -0.1712  1.0123  0.4222
17266SOL     OW63776   8.044  12.219  10.750  0.4616  0.1781  0.1522
17266SOL    HW163777   8.135  12.247  10.742  0.6608 -0.2364  0.8832
17266SOL    HW263778   8.049  12.126  10.772 -0.1499  0.0654 -0.1547
17267SOL     OW63779   6.558  11.321  12.100  0.0404 -0.1781 -0.1864
17267SOL    HW163780   6.490  11.301  12.035 -1.2560 -2.6153  1.7381
17267SOL    HW263781   6.564  11.242  12.153  2.3785  1.0380  1.5435
17268SOL     OW63782   0.875   1.247   4.158 -0.2099  0.1518 -0.6020
17268SOL    HW163783   0.854   1.176   4.219  1.2642  0.5189  0.3777
17268SOL    HW263784   0.964   1.227   4.128 -0.5437  0.5145 -1.8901
17269SOL     OW63785  10.237   2.658   2.035  0.3247 -0.4855  0.4238
17269SOL    HW163786  10.288   2.633   2.111 -0.7485 -1.3903  0.8862
17269SOL    HW263787  10.179   2.583   2.020 -0.0884  0.0417 -0.7428
17270SOL     OW63788   2.720   4.784  10.267  0.2362 -0.4198  0.3082
17270SOL    HW163789   2.787   4.800  10.200 -1.0556  2.1186 -0.5198
17270SOL    HW263790   2.646   4.748  10.218  0.4370 -1.7451  0.9573
17271SOL     OW63791   0.372  10.589   4.254  0.5557 -0.4706  0.2113
17271SOL    HW163792   0.426  10.513   4.231 -1.0055 -2.0138  1.3459
17271SOL    HW263793   0.305  10.592   4.185 -0.0990 -0.9036  0.8118
17272SOL     OW63794   9.658   6.242   1.997 -0.0155  0.1322 -0.0706
17272SOL    HW163795   9.685   6.157   1.961 -0.4306 -0.9374  1.9618
17272SOL    HW263796   9.730   6.266   2.056 -0.8358  0.1236  0.9584
17273SOL     OW63797   7.316   9.113   5.573 -0.0034 -0.2690 -0.3672
17273SOL    HW163798   7.356   9.174   5.636 -1.2554  1.9033 -1.5477
17273SOL    HW263799   7.338   9.026   5.606  1.5761  0.8036  1.6184
17274SOL     OW63800   4.435   0.520   0.864  0.4038 -0.1869  0.3987
17274SOL    HW163801   4.442   0.438   0.913  0.4296 -0.8064 -0.6169
17274SOL    HW263802   4.346   0.520   0.829 -0.3766  1.2967  2.1930
17275SOL     OW63803  12.287   5.990   0.987  0.1097 -0.0894  0.2831
17275SOL    HW163804  12.292   6.022   0.897  1.1868 -0.8949  0.0384
17275SOL    HW263805  12.216   5.926   0.986 -0.0433  0.0824  0.0714
17276SOL     OW63806  10.088  11.954   2.295 -0.0793  0.0616  0.7588
17276SOL    HW163807  10.146  11.878   2.301 -0.6917 -0.3713  1.3390
17276SOL    HW263808  10.095  11.996   2.381  0.0089  0.4891  0.5485
17277SOL     OW63809  13.113   3.372   8.260  0.1579 -0.0447  0.2221
17277SOL    HW163810  13.166   3.417   8.325 -3.1529  2.9923  1.1609
17277SOL    HW263811  13.083   3.293   8.306  1.9777 -0.6683  0.4225
17278SOL     OW63812   4.785  10.708  13.931  0.4409  0.4751 -0.3110
17278SOL    HW163813   4.794  10.804  13.935  2.1567  0.2991  1.9686
17278SOL    HW263814   4.874  10.676  13.922  0.3353 -0.9770  2.7687
17279SOL     OW63815   8.847   0.522   9.005  0.3281  0.1980 -0.3255
17279SOL    HW163816   8.752   0.507   9.001  0.3456 -1.1038  2.4445
17279SOL    HW263817   8.885   0.454   8.950 -0.2784  0.6250 -1.3161
17280SOL     OW63818  11.974   8.474  11.832 -0.8515  0.3671 -0.0549
17280SOL    HW163819  11.996   8.547  11.890 -2.1384  1.0837 -0.4329
17280SOL    HW263820  11.886   8.493  11.801 -1.1732 -1.2841 -0.2762
17281SOL     OW63821   6.007  13.176  10.932 -0.2189  0.2622  0.3185
17281SOL    HW163822   6.028  13.183  10.840  1.5428  1.6598  0.7786
17281SOL    HW263823   5.960  13.093  10.940 -1.4617  0.6710 -1.9861
17282SOL     OW63824  13.738   8.232   9.697  0.1193 -0.1349 -0.1576
17282SOL    HW163825  13.810   8.236   9.761  1.5527  1.9824 -1.7697
17282SOL    HW263826  13.769   8.171   9.630 -0.1533 -0.1885 -0.2356
17283SOL     OW63827   9.082   9.271   3.057  0.3941  0.6492  0.1813
17283SOL    HW163828   9.079   9.292   2.963 -1.2385 -0.2114 -0.0056
17283SOL    HW263829   8.991   9.281   3.086  0.0540 -2.8084  0.7735
17284SOL     OW63830   1.406  11.628   6.294 -0.2527 -0.0263  0.4333
17284SOL    HW163831   1.374  11.717   6.313  1.3636  0.3338  1.6528
17284SOL    HW263832   1.499  11.639   6.276 -0.0617 -1.4718  0.4254
17285SOL     OW63833   6.425  10.442   5.351  0.2214  0.2967  0.0123
17285SOL    HW163834   6.382  10.410   5.430 -1.8695 -3.2090 -2.2680
17285SOL    HW263835   6.516  10.414   5.361 -0.3178 -1.3879  0.6513
17286SOL     OW63836   9.177   2.607   0.837  0.1820  0.5984  0.3834
17286SOL    HW163837   9.204   2.520   0.865  1.6154  0.3983 -1.4014
17286SOL    HW263838   9.120   2.639   0.907  2.1773 -0.4768  2.6125
17287SOL     OW63839  12.460   6.940   5.610  0.5074  0.1427  0.1939
17287SOL    HW163840  12.418   6.960   5.526  3.8607  0.1487 -1.6146
17287SOL    HW263841  12.465   6.845   5.612  1.3394  0.1722 -0.1339
17288SOL     OW63842   2.188   7.556  11.793 -0.4089  0.2823 -0.2726
17288SOL    HW163843   2.116   7.613  11.821 -1.3452 -0.5004 -1.0069
17288SOL    HW263844   2.266   7.592  11.836 -0.9237  2.2317 -0.8990
17289SOL     OW63845   0.857  10.072   4.551  0.3009  0.7102  0.4057
17289SOL    HW163846   0.901  10.157   4.554  0.4743  0.6087  2.1200
17289SOL    HW263847   0.782  10.086   4.493  2.2383  1.0182 -2.1997
17290SOL     OW63848   3.892  12.616   9.405 -0.0666 -0.2693  0.1043
17290SOL    HW163849   3.832  12.690   9.399  1.6205  1.1452 -0.2653
17290SOL    HW263850   3.876  12.565   9.326 -0.2144  0.5713 -0.4234
17291SOL     OW63851   0.483   4.367   3.656 -0.2946  0.0569 -0.5910
17291SOL    HW163852   0.488   4.317   3.575  0.2050 -1.7238  0.4797
17291SOL    HW263853   0.435   4.310   3.717 -0.1326  1.0828  0.5502
17292SOL     OW63854   1.891   9.316   8.059  0.6310  0.4937 -0.2088
17292SOL    HW163855   1.806   9.302   8.102  0.6413 -0.7390 -0.5512
17292SOL    HW263856   1.874   9.299   7.966  1.1724  0.6178 -0.3342
17293SOL     OW63857   1.647  10.291  13.583 -0.3483  0.2562  0.0926
17293SOL    HW163858   1.597  10.211  13.599 -0.7382  0.8656  2.1916
17293SOL    HW263859   1.665  10.327  13.670  1.9044  1.2117 -0.6732
17294SOL     OW63860   1.149  13.630   9.955 -0.0664  0.1777 -0.3352
17294SOL    HW163861   1.133  13.540   9.924  1.0654 -0.2449  0.2327
17294SOL    HW263862   1.192  13.618  10.040  0.7732  1.2325 -0.5915
17295SOL     OW63863   0.126  12.043   8.247  0.3320 -0.3858 -0.1662
17295SOL    HW163864   0.165  12.040   8.159 -0.6444 -1.1827 -0.5842
17295SOL    HW263865   0.156  11.962   8.289 -1.1298 -1.2101 -0.6300
17296SOL     OW63866  11.519   7.294   1.907 -0.3883 -0.1488 -0.0548
17296SOL    HW163867  11.463   7.224   1.874 -1.2229  0.6981 -0.4992
17296SOL    HW263868  11.488   7.373   1.862  1.1810  0.3581 -0.3094
17297SOL     OW63869   6.724   1.507   1.043 -0.0658 -0.4375 -0.1231
17297SOL    HW163870   6.655   1.442   1.031 -0.6210 -0.3322  1.9588
17297SOL    HW263871   6.804   1.461   1.020 -0.5514 -1.5834  0.3602
17298SOL     OW63872   2.108  13.995  11.695  0.3206  1.0759 -0.3236
17298SOL    HW163873   2.186  13.939  11.685 -1.9777 -3.0874  2.0603
17298SOL    HW263874   2.050  13.968  11.625 -0.8453  0.3175  0.8872
17299SOL     OW63875   2.851  10.603   9.381 -0.3078 -0.1154  0.3605
17299SOL    HW163876   2.899  10.520   9.389  0.7360  0.2923 -1.3015
17299SOL    HW263877   2.896  10.662   9.442  1.0851  0.1358 -0.8541
17300SOL     OW63878  13.280   4.723   7.244 -0.1585 -0.2542 -0.9614
17300SOL    HW163879  13.205   4.781   7.259  0.3554  0.0947  0.4151
17300SOL    HW263880  13.346   4.780   7.204  0.2837  0.1177  0.2337
17301SOL     OW63881   0.351  13.337   7.070  0.3399 -0.1660 -0.2292
17301SOL    HW163882   0.436  13.376   7.092  0.0325 -1.1476  3.2808
17301SOL    HW263883   0.291  13.411   7.069  0.7371  0.1718  0.3586
17302SOL     OW63884   4.383   7.115  11.389 -0.3075  0.5525  0.1926
17302SOL    HW163885   4.362   7.066  11.310 -1.1004 -1.3213  1.4764
17302SOL    HW263886   4.301   7.158  11.413  0.2785  2.2415 -0.6969
17303SOL     OW63887   1.655   0.308   2.918 -0.3346 -0.7721  0.1482
17303SOL    HW163888   1.717   0.305   2.845  1.1524  0.4177  1.2747
17303SOL    HW263889   1.609   0.392   2.906 -1.4219 -1.4274 -0.4120
17304SOL     OW63890  13.976  10.658   3.312  0.4185  0.2435 -0.3011
17304SOL    HW163891  13.906  10.660   3.378 -0.0365  1.1948 -0.7944
17304SOL    HW263892  13.975  10.568   3.279 -1.0300  0.4109 -0.7766
17305SOL     OW63893   6.478   3.990   3.553 -0.4952  0.5206  0.0040
17305SOL    HW163894   6.474   3.922   3.620 -1.1301 -0.5096 -1.0369
17305SOL    HW263895   6.441   4.068   3.595 -2.7573 -0.6180  0.2783
17306SOL     OW63896   1.158   9.093   7.409  0.5060 -0.2371 -0.3363
17306SOL    HW163897   1.181   9.178   7.447 -1.7832 -0.1772  1.1192
17306SOL    HW263898   1.167   9.032   7.482 -0.7502 -0.7131 -0.5565
17307SOL     OW63899   7.289   6.195   1.720  0.1689 -0.0780 -0.1037
17307SOL    HW163900   7.203   6.156   1.739  0.4861 -1.1303 -0.7630
17307SOL    HW263901   7.317   6.233   1.804 -1.1413  0.6953  0.0066
17308SOL     OW63902  10.397   1.384   5.035  0.1321  0.0906 -0.6535
17308SOL    HW163903  10.318   1.405   5.085 -0.1302 -2.1436 -0.0154
17308SOL    HW263904  10.365   1.362   4.947  0.0757 -0.4361 -0.5040
17309SOL     OW63905   4.243  12.443   0.972  0.3437 -0.3584  0.5050
17309SOL    HW163906   4.262  12.533   0.945 -1.8333  0.6680  2.0781
17309SOL    HW263907   4.170  12.416   0.916  1.0869 -1.2425 -0.0651
17310SOL     OW63908   4.632   7.324   3.517  0.1374 -0.5431 -0.3241
17310SOL    HW163909   4.720   7.288   3.506 -0.3060 -1.3984 -1.2617
17310SOL    HW263910   4.645   7.418   3.530  1.1339 -0.5140 -1.4218
17311SOL     OW63911   8.381   1.895   2.742 -0.2505 -0.5184 -0.3478
17311SOL    HW163912   8.367   1.954   2.669 -0.9918 -1.4598 -0.9901
17311SOL    HW263913   8.359   1.808   2.708 -0.4560 -1.0004  0.9400
17312SOL     OW63914   0.449   8.704   1.865 -0.7990  0.6994  0.5851
17312SOL    HW163915   0.436   8.643   1.938 -0.7094  0.5714  0.4955
17312SOL    HW263916   0.365   8.706   1.820 -1.2098  1.6486  1.3442
17313SOL     OW63917   4.246   9.145   8.500 -0.9345 -0.5714  0.0090
17313SOL    HW163918   4.229   9.160   8.593  0.1274  3.3830 -0.2766
17313SOL    HW263919   4.328   9.095   8.499 -2.3233 -3.0751  1.0926
17314SOL     OW63920   9.301   1.900  13.297 -0.7374  0.2441  0.0408
17314SOL    HW163921   9.346   1.828  13.341 -0.1491 -0.4519 -1.5904
17314SOL    HW263922   9.365   1.932  13.233 -1.9807  0.3023 -1.2294
17315SOL     OW63923   1.893   8.171   6.345  0.1654 -0.1393 -0.1050
17315SOL    HW163924   1.880   8.178   6.250  0.2274  0.3974 -0.0783
17315SOL    HW263925   1.985   8.147   6.355  0.6699  1.6203 -0.1421
17316SOL     OW63926   3.300   1.099   2.391 -0.1802 -0.0870  0.1412
17316SOL    HW163927   3.283   1.005   2.397  0.0663 -0.3521 -2.2026
17316SOL    HW263928   3.246   1.138   2.460 -1.6409 -1.8215  0.0444
17317SOL     OW63929   4.973   9.598  11.992 -0.2095 -0.4986  0.5120
17317SOL    HW163930   5.064   9.615  12.017 -0.5666  0.1247  1.4309
17317SOL    HW263931   4.925   9.600  12.074 -1.0217 -1.0994  0.0626
17318SOL     OW63932  11.509   2.474   5.462  0.3687 -0.3010  0.5981
17318SOL    HW163933  11.600   2.494   5.486 -0.0256  0.3093  1.6965
17318SOL    HW263934  11.464   2.466   5.546 -0.6214 -0.4662  0.0665
17319SOL     OW63935   1.997   6.525  11.538  0.3763  0.6210 -0.3049
17319SOL    HW163936   2.072   6.479  11.575 -0.5042 -0.4726  0.1773
17319SOL    HW263937   1.923   6.466  11.553 -1.1069  2.8314  1.7234
17320SOL     OW63938   4.626  12.641   4.212  0.5453  0.3022 -0.3236
17320SOL    HW163939   4.558  12.582   4.245  1.6550 -0.4449  0.7467
17320SOL    HW263940   4.589  12.729   4.223 -0.6594 -0.1337 -0.7887
17321SOL     OW63941  13.018   8.995   4.761  0.3285  0.4372 -0.5765
17321SOL    HW163942  12.927   8.985   4.788  0.8075  1.4059  1.6413
17321SOL    HW263943  13.032   9.089   4.757  1.9971  0.4569  2.3953
17322SOL     OW63944   0.036   7.750   4.698 -0.2448  0.2855  0.8616
17322SOL    HW163945  -0.059   7.759   4.689 -0.5122 -0.3625  2.5744
17322SOL    HW263946   0.048   7.666   4.743  0.9809  1.3868  2.7375
17323SOL     OW63947  10.186   3.880  13.893 -0.3757 -0.0948  1.2086
17323SOL    HW163948  10.199   3.864  13.986  0.1917 -2.5782  0.7921
17323SOL    HW263949  10.271   3.862  13.853 -0.4399  1.5322  0.2366
17324SOL     OW63950   1.343  11.487  13.856 -0.3602 -0.0863 -0.4549
17324SOL    HW163951   1.354  11.436  13.936 -0.9927 -0.4746 -0.6100
17324SOL    HW263952   1.249  11.499  13.849 -0.1914  3.8531  1.3002
17325SOL     OW63953   0.783   2.693   8.225 -0.4143  0.3173 -0.0427
17325SOL    HW163954   0.838   2.771   8.222 -1.1017  0.7965 -0.6114
17325SOL    HW263955   0.746   2.693   8.314  0.5209 -0.0356  0.3573
17326SOL     OW63956   2.139   3.119   2.168  0.0701  0.0071  0.0522
17326SOL    HW163957   2.184   3.191   2.125  0.9191 -0.7210 -0.3058
17326SOL    HW263958   2.047   3.132   2.147  0.3054  0.5331 -0.6769
17327SOL     OW63959   8.323   1.081   5.883  0.5571 -0.3056  0.0023
17327SOL    HW163960   8.250   1.042   5.930 -0.2304  2.1887  1.0314
17327SOL    HW263961   8.398   1.072   5.942  0.0303  1.0244  0.9044
17328SOL     OW63962   3.264   6.513  10.958 -0.1191  0.1194  0.3551
17328SOL    HW163963   3.211   6.586  10.926  0.3271 -0.2280 -1.2672
17328SOL    HW263964   3.201   6.448  10.988 -0.5255  1.0338  1.6123
17329SOL     OW63965   8.186   0.887  10.218  0.1229 -0.4814 -0.2624
17329SOL    HW163966   8.203   0.828  10.144 -0.5715 -0.0828 -0.7454
17329SOL    HW263967   8.096   0.917  10.205 -0.3376 -1.1188  1.2405
17330SOL     OW63968   9.785   1.968   7.123 -0.5498 -0.5830 -0.0365
17330SOL    HW163969   9.819   2.048   7.163 -1.7273  0.4961 -1.1284
17330SOL    HW263970   9.773   1.908   7.197 -0.9993  0.7396  1.0085
17331SOL     OW63971   9.969  12.013   3.096 -0.3586  0.2372 -0.4864
17331SOL    HW163972   9.922  11.929   3.096 -1.1138  0.6024  1.4232
17331SOL    HW263973  10.014  12.016   3.180  2.7813  0.1569 -2.0372
17332SOL     OW63974   3.172   0.448  13.573  0.5118 -0.1513  0.3727
17332SOL    HW163975   3.100   0.474  13.631  0.2738 -0.2116  0.1063
17332SOL    HW263976   3.162   0.504  13.496  2.0914  1.4496  1.2620
17333SOL     OW63977   3.053   2.756   5.141 -0.4401  0.3121  0.2994
17333SOL    HW163978   3.062   2.661   5.136  0.9072  0.4108  0.5753
17333SOL    HW263979   3.142   2.789   5.144 -0.8818  1.6224 -0.1866
17334SOL     OW63980  13.339   6.114  12.356  0.3291  0.0569 -0.1792
17334SOL    HW163981  13.337   6.018  12.364 -0.5390 -0.2362 -2.8880
17334SOL    HW263982  13.252   6.137  12.324  0.4575  1.8119  0.6424
17335SOL     OW63983   2.413  11.844  13.315 -0.0103  0.2829  0.1720
17335SOL    HW163984   2.472  11.844  13.391 -0.7670  1.8100  0.8039
17335SOL    HW263985   2.329  11.875  13.350 -0.4649  0.6847 -1.2188
17336SOL     OW63986   4.790  11.297   9.434  0.2191 -0.2338 -0.1219
17336SOL    HW163987   4.856  11.269   9.370  0.2081 -0.3040 -0.1038
17336SOL    HW263988   4.714  11.322   9.381 -0.5992 -2.4020 -0.0738
17337SOL     OW63989   6.057   7.383   8.195 -0.1845  0.1048 -0.0831
17337SOL    HW163990   6.024   7.373   8.106 -0.2384 -1.2876  0.0835
17337SOL    HW263991   6.052   7.478   8.211 -1.5434  0.2268 -1.0327
17338SOL     OW63992   0.974   1.298   8.501  0.1369 -0.2406  0.0463
17338SOL    HW163993   1.058   1.253   8.512 -0.0609 -0.2915  1.5217
17338SOL    HW263994   0.983   1.378   8.553  0.3311  1.3055 -2.1709
17339SOL     OW63995   1.081   0.975  13.571  0.3084  0.0711 -0.0394
17339SOL    HW163996   1.148   1.001  13.508 -0.4786  0.3195 -0.7891
17339SOL    HW263997   1.005   1.028  13.549  0.2484  0.7196  1.6193
17340SOL     OW63998   9.962   9.536  10.596  0.0013  1.0232 -0.7148
17340SOL    HW163999   9.954   9.547  10.501 -0.3431 -0.8918 -0.9606
17340SOL    HW264000  10.057   9.537  10.612  0.2649 -1.5494 -1.5720
17341SOL     OW64001   5.534   1.655  11.597 -0.4131 -0.2778 -0.1225
17341SOL    HW164002   5.453   1.644  11.647  0.1173 -0.3840  0.7420
17341SOL    HW264003   5.516   1.729  11.538 -1.4700 -0.9595 -0.6750
17342SOL     OW64004   9.514   4.272   1.579 -0.2325  0.3949  0.0446
17342SOL    HW164005   9.528   4.229   1.663  1.8445  2.3505  0.8261
17342SOL    HW264006   9.566   4.352   1.585 -0.0145  0.6014 -3.1164
17343SOL     OW64007   7.910  13.272   7.958 -0.0237  0.0258 -0.3619
17343SOL    HW164008   7.819  13.250   7.977  0.4230 -0.3709  1.6156
17343SOL    HW264009   7.954  13.187   7.953  1.1009  0.0929  3.9674
17344SOL     OW64010   2.210  12.580   3.112 -0.2906 -0.2646  0.3306
17344SOL    HW164011   2.190  12.516   3.044 -0.9768  0.6555 -0.3540
17344SOL    HW264012   2.288  12.545   3.156 -0.6693 -1.5747 -0.0001
17345SOL     OW64013   7.019   9.814   6.276 -0.0531  0.7087  0.1049
17345SOL    HW164014   6.958   9.867   6.326 -0.4814  0.3338 -0.0127
17345SOL    HW264015   7.009   9.843   6.186  0.4570  1.1339  0.1812
17346SOL     OW64016   8.348   7.755   5.135  0.3936  0.1021 -0.0032
17346SOL    HW164017   8.312   7.812   5.203 -0.8274 -0.3611 -0.2377
17346SOL    HW264018   8.399   7.814   5.080 -0.8961  1.0109 -0.2841
17347SOL     OW64019   7.981   8.993  11.257  0.2490 -0.2079 -0.1857
17347SOL    HW164020   7.912   9.002  11.192 -0.5377 -0.2031  0.6273
17347SOL    HW264021   8.019   8.907  11.240 -0.2808 -0.4155 -0.3472
17348SOL     OW64022  12.902   0.291   7.674 -0.0746 -0.3666  0.1127
17348SOL    HW164023  12.908   0.358   7.606 -1.8317 -1.1203 -0.8608
17348SOL    HW264024  12.890   0.341   7.755 -0.7669  0.5250 -0.5210
17349SOL     OW64025  13.021   8.972  10.433 -0.0243 -0.6206  0.2606
17349SOL    HW164026  13.087   8.968  10.364  0.3353 -1.0471  0.6298
17349SOL    HW264027  12.937   8.973  10.385  0.2312 -0.3531 -0.1961
17350SOL     OW64028   2.511   1.877   4.335 -0.1247  0.6985  0.3730
17350SOL    HW164029   2.424   1.877   4.376 -0.0740  2.4272  0.5440
17350SOL    HW264030   2.494   1.859   4.243 -0.7443  1.5420  0.3087
17351SOL     OW64031  11.317   6.507   5.709  0.3902 -0.7829 -0.0260
17351SOL    HW164032  11.389   6.454   5.742 -1.7099 -2.2400  2.5341
17351SOL    HW264033  11.263   6.447   5.658  0.3837  0.0485 -1.0477
17352SOL     OW64034   6.078  11.544   3.857 -0.0646  0.4693 -0.7762
17352SOL    HW164035   6.125  11.627   3.843 -0.2304  0.6003 -0.5676
17352SOL    HW264036   6.100  11.491   3.781  1.2061  0.1611 -0.2001
17353SOL     OW64037  11.261  12.278  12.026 -0.1993 -0.2727 -0.1927
17353SOL    HW164038  11.199  12.344  12.057  0.0615 -0.4949  0.8333
17353SOL    HW264039  11.342  12.326  12.011 -0.0953 -0.3118  0.2564
17354SOL     OW64040   9.679   5.534   9.376  0.2102  0.3452 -0.2380
17354SOL    HW164041   9.594   5.576   9.382  0.3094  0.5916 -0.5774
17354SOL    HW264042   9.661   5.441   9.390 -0.4560  0.0390 -2.6798
17355SOL     OW64043  12.844   0.351   7.062  0.2216 -0.0413  0.5098
17355SOL    HW164044  12.917   0.412   7.066 -0.8645  1.4088 -0.4779
17355SOL    HW264045  12.845   0.317   6.972 -0.6801  0.5107  0.2720
17356SOL     OW64046   7.510  12.652  13.513 -0.4919  0.0142 -0.6545
17356SOL    HW164047   7.538  12.610  13.595 -2.7102  3.2840  2.0828
17356SOL    HW264048   7.444  12.593  13.477 -0.5630 -0.8104  0.7403
17357SOL     OW64049   7.439   3.009  11.117 -0.1972  0.2711  0.2040
17357SOL    HW164050   7.527   2.971  11.119 -0.9871 -1.6947  0.8380
17357SOL    HW264051   7.402   2.982  11.033 -1.0075 -1.0910  0.9408
17358SOL     OW64052   7.301   3.959  12.363  0.2938  0.0914 -0.4209
17358SOL    HW164053   7.380   3.972  12.310  0.2766 -1.2290 -0.8081
17358SOL    HW264054   7.262   3.878  12.329 -1.8096  1.2385 -0.9461
17359SOL     OW64055   3.409   1.414  11.975  0.0288  0.0498  0.2291
17359SOL    HW164056   3.490   1.405  11.926 -0.7705  0.2157 -1.1836
17359SOL    HW264057   3.386   1.507  11.967  0.1786  0.1964  1.4140
17360SOL     OW64058   0.461   5.922  11.681  0.5629  0.2891  0.1655
17360SOL    HW164059   0.554   5.925  11.658  0.5275  0.2525  0.0220
17360SOL    HW264060   0.451   5.841  11.731  0.3848 -0.2834 -0.7777
17361SOL     OW64061   0.598   4.291   9.711  0.7556 -0.2138  0.1403
17361SOL    HW164062   0.684   4.323   9.685  2.3383 -1.2220  3.6009
17361SOL    HW264063   0.569   4.351   9.780  0.7875 -2.2726  2.0707
17362SOL     OW64064  13.974   6.260   0.013 -0.6435 -0.2608 -0.3255
17362SOL    HW164065  13.880   6.259   0.032 -0.5798  0.3171  0.0496
17362SOL    HW264066  13.988   6.343  -0.032  0.0498  0.7125  1.5842
17363SOL     OW64067  12.489   6.740   9.157  0.0685 -0.4467  0.4837
17363SOL    HW164068  12.542   6.702   9.087 -1.6976 -2.7782  0.3048
17363SOL    HW264069  12.469   6.667   9.215  1.2286  1.3573  3.3740
17364SOL     OW64070   8.519   7.412  10.600 -0.5136 -0.2762  0.2220
17364SOL    HW164071   8.525   7.498  10.558  1.1285 -0.7057 -0.5351
17364SOL    HW264072   8.499   7.352  10.528 -2.4080 -0.4752  0.8616
17365SOL     OW64073   7.393   0.117  12.929  0.1416  0.7115 -0.8593
17365SOL    HW164074   7.366   0.176  13.000 -0.7534 -0.1345 -0.4751
17365SOL    HW264075   7.481   0.146  12.907  0.6040  0.7605  0.8564
17366SOL     OW64076   0.874   8.099   5.493  1.0369  0.2812  0.5448
17366SOL    HW164077   0.907   8.120   5.406  0.5033 -1.6560 -0.1701
17366SOL    HW264078   0.945   8.125   5.552  1.0443  2.4821 -0.3390
17367SOL     OW64079   7.677   4.624   8.100  0.1973  0.3541  0.0372
17367SOL    HW164080   7.748   4.590   8.154 -0.3933  0.7174  1.0616
17367SOL    HW264081   7.602   4.626   8.158 -0.4246  0.8790 -0.7729
17368SOL     OW64082  11.237  12.589   7.241 -0.1154 -0.1134  0.3692
17368SOL    HW164083  11.147  12.610   7.217  0.2935  1.1111 -0.1456
17368SOL    HW264084  11.286  12.670   7.228  1.2222 -0.9548 -0.1207
17369SOL     OW64085  11.884   8.771   5.168 -0.2810  0.2753  0.2345
17369SOL    HW164086  11.806   8.716   5.177 -0.7727  1.1331  1.7453
17369SOL    HW264087  11.850   8.860   5.176  0.1943  1.0714 -4.1429
17370SOL     OW64088   7.030   5.215   2.437 -0.0201  0.2208 -0.3468
17370SOL    HW164089   6.970   5.161   2.386 -1.0540  0.9555  0.0754
17370SOL    HW264090   7.091   5.251   2.372  0.4867 -1.1570 -0.6768
17371SOL     OW64091  11.728   5.808   7.556  0.9302 -0.6912  0.5620
17371SOL    HW164092  11.656   5.845   7.504  0.9581  1.2296  1.7878
17371SOL    HW264093  11.794   5.785   7.491 -0.1172 -0.9425 -0.4588
17372SOL     OW64094  10.270   2.560   1.685  0.4033  0.2012 -0.4063
17372SOL    HW164095  10.353   2.512   1.685  2.4074  3.3692 -0.4563
17372SOL    HW264096  10.281   2.627   1.752 -2.2046  0.7291 -0.3853
17373SOL     OW64097  12.126   0.674   5.915 -0.3044  0.3790 -0.3857
17373SOL    HW164098  12.171   0.664   5.831  0.3568  1.2529 -0.1477
17373SOL    HW264099  12.123   0.585   5.951  1.1975  0.2855 -0.4344
17374SOL     OW64100   8.100  13.612   0.873 -0.1590 -0.2397  1.0801
17374SOL    HW164101   8.068  13.702   0.870 -0.2507 -0.3020 -0.0487
17374SOL    HW264102   8.057  13.574   0.950  0.8613  1.0253  2.3296
17375SOL     OW64103  12.518   0.518   3.830 -0.0191  0.4558 -0.0939
17375SOL    HW164104  12.479   0.435   3.804 -0.7836  0.2260  1.6819
17375SOL    HW264105  12.612   0.504   3.822 -0.1824  0.3195 -2.3548
17376SOL     OW64106  13.599   8.655  10.329  0.8368 -0.1164  0.1003
17376SOL    HW164107  13.581   8.710  10.405 -1.7673  0.2557 -0.6802
17376SOL    HW264108  13.670   8.699  10.283  0.5077  1.2214  0.8246
17377SOL     OW64109   0.967   5.996   4.266 -0.0644 -0.3563 -0.5536
17377SOL    HW164110   0.924   6.040   4.192  2.2982 -0.0768 -1.8535
17377SOL    HW264111   1.059   6.021   4.258  0.1968  0.1716  2.8861
17378SOL     OW64112   8.077  12.300   3.836  0.3202  0.1621 -0.3858
17378SOL    HW164113   8.140  12.321   3.906 -0.5689  1.3977  0.0946
17378SOL    HW264114   8.089  12.370   3.772 -0.3655  0.2508 -0.4219
17379SOL     OW64115  13.986  10.498  13.830 -0.0200 -0.3939 -0.1651
17379SOL    HW164116  13.969  10.526  13.920  2.3387 -1.0154  0.5384
17379SOL    HW264117  13.901  10.505  13.786 -1.5718 -1.4968  2.4689
17380SOL     OW64118   1.449  12.713   4.742 -0.3618 -0.5146  0.2040
17380SOL    HW164119   1.382  12.770   4.780  1.0277  0.1337  1.8210
17380SOL    HW264120   1.501  12.771   4.686  0.4795 -0.3439  1.1163
17381SOL     OW64121   0.173  13.428   8.216 -0.3137  0.1509 -0.0533
17381SOL    HW164122   0.182  13.402   8.124  0.0565  2.1919 -0.6544
17381SOL    HW264123   0.146  13.348   8.261 -1.2617 -0.7411 -2.0529
17382SOL     OW64124   1.121   1.021  13.013  0.6519  0.1798 -0.0773
17382SOL    HW164125   1.158   0.949  13.065 -1.9958  0.4761  2.4442
17382SOL    HW264126   1.107   1.092  13.075 -5.3221 -0.3739 -0.1866
17383SOL     OW64127   4.570   3.935   7.627 -0.0109  0.3441 -0.4427
17383SOL    HW164128   4.503   3.943   7.559  1.1988  1.0260 -1.6161
17383SOL    HW264129   4.635   3.875   7.590  0.2432  0.0210  0.4960
17384SOL     OW64130   4.301   2.212  10.132  0.1297  0.5950 -0.1192
17384SOL    HW164131   4.278   2.229  10.041  0.1617  0.1239 -0.2145
17384SOL    HW264132   4.287   2.118  10.144 -2.1606  1.0111  1.0047
17385SOL     OW64133   6.480   4.372   8.846 -0.0531 -0.4241  0.7089
17385SOL    HW164134   6.498   4.391   8.938 -1.3100  0.3730  0.8141
17385SOL    HW264135   6.470   4.277   8.842  1.7439 -0.6641  1.0447
17386SOL     OW64136   0.967   9.388  12.216  0.0416  0.3555 -0.0316
17386SOL    HW164137   0.955   9.340  12.298  2.0567  1.3894  0.9277
17386SOL    HW264138   0.902   9.350  12.157  0.8065 -2.8656  0.9731
17387SOL     OW64139  10.149   9.072   3.085 -0.2861  0.0093 -0.2660
17387SOL    HW164140  10.211   9.129   3.131 -0.4719 -0.2698  0.3412
17387SOL    HW264141  10.189   9.058   2.999  0.4456 -0.0750  0.0723
17388SOL     OW64142   5.633   6.685   4.405 -0.0525  0.4652 -0.3717
17388SOL    HW164143   5.546   6.706   4.373  0.2399  0.7709 -0.9787
17388SOL    HW264144   5.655   6.757   4.464 -0.3214  0.2429  0.0028
17389SOL     OW64145   1.480   2.597   6.191 -0.1525 -0.7101 -0.1621
17389SOL    HW164146   1.415   2.641   6.135 -0.8690 -0.3124  0.9445
17389SOL    HW264147   1.452   2.506   6.192 -1.0338 -0.4501  0.7267
17390SOL     OW64148  12.945  10.674  10.107  0.1816 -0.3246  0.2625
17390SOL    HW164149  12.884  10.607  10.076 -1.5356  1.0801  0.4351
17390SOL    HW264150  12.988  10.705  10.028 -1.1273  0.3368 -0.2192
17391SOL     OW64151   9.378   3.784   1.686  0.2316 -0.0547  0.3457
17391SOL    HW164152   9.426   3.842   1.626 -1.1048 -0.2447 -0.9809
17391SOL    HW264153   9.337   3.843   1.749  0.3219  0.3005  0.0778
17392SOL     OW64154   1.795  12.816   0.421  0.7346  0.3846  0.2984
17392SOL    HW164155   1.738  12.797   0.495 -2.2825  4.7180 -0.5095
17392SOL    HW264156   1.763  12.760   0.351  0.5515 -0.4788  1.0591
17393SOL     OW64157  12.711  12.516  10.270 -0.1985 -0.0428  0.0288
17393SOL    HW164158  12.644  12.472  10.323 -0.1908 -0.6174 -0.4247
17393SOL    HW264159  12.784  12.455  10.268  1.0442  1.2956  1.9299
17394SOL     OW64160   8.912   3.521  11.516 -0.7370 -0.5984 -0.2926
17394SOL    HW164161   8.906   3.429  11.490 -0.0031 -0.9993  0.8548
17394SOL    HW264162   9.003   3.545  11.500 -1.2195  0.3605 -1.8459
17395SOL     OW64163   0.346   6.171   4.346  0.2828 -0.0737 -0.5379
17395SOL    HW164164   0.261   6.128   4.349 -0.2737  1.0278  0.2878
17395SOL    HW264165   0.383   6.157   4.433  0.9331 -0.5181 -0.8832
17396SOL     OW64166   9.004   0.262  10.723 -0.3035 -0.3325 -0.1049
17396SOL    HW164167   8.940   0.328  10.748 -0.6346 -0.1841 -1.2652
17396SOL    HW264168   9.054   0.245  10.803 -0.2968  1.2154  0.2451
17397SOL     OW64169   6.297  10.938   6.499 -0.2765  0.5976 -0.5858
17397SOL    HW164170   6.373  10.949   6.441 -0.4166  2.8534 -0.4269
17397SOL    HW264171   6.292  11.020   6.548 -2.6536  0.4099 -0.3940
17398SOL     OW64172  10.172   6.926  11.348  0.1742 -0.7745 -0.4849
17398SOL    HW164173  10.164   6.835  11.321 -1.3733 -0.4547 -1.2162
17398SOL    HW264174  10.095   6.969  11.311 -0.7305  0.2470  2.2880
17399SOL     OW64175   7.459  13.153  10.372  0.1566 -0.2141 -0.0450
17399SOL    HW164176   7.485  13.242  10.349 -0.2752 -0.0280  0.1712
17399SOL    HW264177   7.504  13.097  10.309 -1.6509  0.3212 -1.9065
17400SOL     OW64178   8.062  13.452   3.840 -0.2341 -0.3217  0.6617
17400SOL    HW164179   8.047  13.534   3.887 -1.2647 -0.0977 -0.0119
17400SOL    HW264180   7.974  13.421   3.819  0.1912 -0.1340 -1.5969
17401SOL     OW64181   4.278   5.661   8.981  0.1613  0.0953 -0.1367
17401SOL    HW164182   4.266   5.722   8.908  0.3755  1.4485  0.9230
17401SOL    HW264183   4.223   5.696   9.051 -0.4185 -1.4540  0.2181
17402SOL     OW64184   0.813   1.499   4.278 -0.1418 -0.0071 -0.9801
17402SOL    HW164185   0.806   1.423   4.220 -0.4788 -1.2145  0.5793
17402SOL    HW264186   0.906   1.504   4.299 -0.3563 -1.2739  0.4851
17403SOL     OW64187  11.182  12.483  11.139 -0.4787 -0.1760 -0.6433
17403SOL    HW164188  11.164  12.576  11.125  3.4563  1.0384  0.8445
17403SOL    HW264189  11.220  12.453  11.056 -0.5974 -0.1024 -0.7241
17404SOL     OW64190  11.832  10.807   6.431 -0.1701 -0.6225  0.3332
17404SOL    HW164191  11.845  10.843   6.343 -0.3582 -1.2881  0.0293
17404SOL    HW264192  11.786  10.876   6.478 -1.4733 -0.8427 -0.5538
17405SOL     OW64193   9.612   8.154   8.568 -0.0923  0.1686  0.3157
17405SOL    HW164194   9.592   8.109   8.650 -0.9895  0.9206  0.5263
17405SOL    HW264195   9.695   8.116   8.539 -0.7676 -1.5401  0.5283
17406SOL     OW64196   5.834  13.100   7.987  0.5228  0.2478  0.2266
17406SOL    HW164197   5.802  13.155   8.058  0.8288  0.9703 -0.1830
17406SOL    HW264198   5.865  13.162   7.920  0.3390 -0.4111 -0.4898
17407SOL     OW64199   3.710  13.585   7.642 -0.0265 -0.3517 -0.3380
17407SOL    HW164200   3.759  13.552   7.567  1.0749  1.1479 -0.3318
17407SOL    HW264201   3.704  13.512   7.702  1.2957 -0.8583 -0.8068
17408SOL     OW64202   9.383   6.247  12.916 -0.2524  0.2002  0.5965
17408SOL    HW164203   9.406   6.335  12.944  0.8569  0.4460 -0.9945
17408SOL    HW264204   9.466   6.201  12.907 -0.8033 -1.0215  1.3592
17409SOL     OW64205   6.699   8.626   3.414 -0.0418  0.4477  0.1438
17409SOL    HW164206   6.642   8.623   3.337 -0.5051  1.6157  0.4143
17409SOL    HW264207   6.726   8.535   3.428 -0.2597  0.1690 -1.1593
17410SOL     OW64208   1.489   6.911   5.518  0.4568  0.5854  0.1661
17410SOL    HW164209   1.451   6.992   5.554  1.9388  0.1742  2.8913
17410SOL    HW264210   1.544   6.941   5.446 -1.0016  1.6972 -0.5346
17411SOL     OW64211  10.633  13.413   1.779 -0.2674 -0.0123 -0.2541
17411SOL    HW164212  10.543  13.382   1.776  0.6915 -3.2335  0.3036
17411SOL    HW264213  10.675  13.374   1.702  1.2725 -1.0698  1.0439
17412SOL     OW64214   7.766   0.046   0.614 -0.6257  0.0718  0.5512
17412SOL    HW164215   7.849   0.080   0.580 -1.3115  0.4474 -0.8355
17412SOL    HW264216   7.791  -0.025   0.674  0.7373  1.3365  1.5325
17413SOL     OW64217  12.826   0.483   0.555  1.3292  0.3921  0.3032
17413SOL    HW164218  12.915   0.463   0.584  1.2994  1.5403  1.2748
17413SOL    HW264219  12.796   0.551   0.616 -0.3679 -0.2726  0.2693
17414SOL     OW64220   3.826  13.243  10.769  0.1260  0.4886  0.7365
17414SOL    HW164221   3.763  13.192  10.718  1.2056 -0.3483  0.2076
17414SOL    HW264222   3.802  13.335  10.753  0.0052  0.2198 -0.7037
17415SOL     OW64223  12.001  11.221  10.793  0.0262  0.2616  0.7417
17415SOL    HW164224  11.918  11.233  10.746  0.2151 -0.6662  0.1417
17415SOL    HW264225  12.013  11.126  10.796  1.3581  0.3956  0.3068
17416SOL     OW64226  13.324   6.555   2.803  0.3514 -0.2820 -0.0283
17416SOL    HW164227  13.343   6.462   2.816  0.3307 -0.1067  1.4335
17416SOL    HW264228  13.380   6.581   2.729 -0.3897 -1.6637 -1.1180
17417SOL     OW64229   7.927   1.915   1.543  0.4524 -0.4289 -0.0066
17417SOL    HW164230   7.917   1.932   1.636  0.7581 -1.3390  0.2003
17417SOL    HW264231   7.932   2.002   1.503  1.9660 -0.0157  0.9913
17418SOL     OW64232   4.190   3.239  12.553 -0.4219  0.1562 -0.2541
17418SOL    HW164233   4.241   3.297  12.495 -0.2140 -0.4240 -0.6596
17418SOL    HW264234   4.146   3.299  12.613 -1.6540  0.8694 -1.8011
17419SOL     OW64235  10.306   8.255   7.457 -0.0333 -0.2873 -0.1488
17419SOL    HW164236  10.243   8.190   7.486  0.7013 -0.4081  1.2472
17419SOL    HW264237  10.392   8.218   7.478  0.4256  0.7956  0.0067
17420SOL     OW64238   1.337  12.449   3.727  0.0139 -0.0618  0.3481
17420SOL    HW164239   1.408  12.470   3.667 -0.5210  2.0893  0.4077
17420SOL    HW264240   1.353  12.504   3.804 -0.6992 -0.9291  1.1464
17421SOL     OW64241   2.883   4.370  11.022  0.2136 -0.6826 -0.0253
17421SOL    HW164242   2.970   4.350  11.057 -0.5482 -1.0287  1.7831
17421SOL    HW264243   2.827   4.378  11.100 -1.1177  0.8308 -1.0613
17422SOL     OW64244   0.917   9.983  12.769 -0.3528  0.7396 -0.7211
17422SOL    HW164245   0.858  10.000  12.843  0.9530 -0.7806  0.7320
17422SOL    HW264246   0.940  10.070  12.737 -1.8072  1.4032 -0.0770
17423SOL     OW64247  11.432   5.637   0.844  0.7268  0.0394 -0.2834
17423SOL    HW164248  11.436   5.722   0.799  0.0918 -0.7811 -1.9842
17423SOL    HW264249  11.491   5.581   0.793  1.8268 -0.3601  1.3364
17424SOL     OW64250   4.287   8.113   5.743  0.3718 -0.0850 -0.0124
17424SOL    HW164251   4.371   8.075   5.768  1.1965  1.1625 -0.7711
17424SOL    HW264252   4.310   8.182   5.680 -1.1910  0.4867  0.0062
17425SOL     OW64253  11.103   6.588   8.986 -0.6300 -0.3430  0.0741
17425SOL    HW164254  11.162   6.519   9.016 -0.6320 -1.5146 -2.3998
17425SOL    HW264255  11.151   6.669   9.001  0.9133 -1.1567 -0.3310
17426SOL     OW64256   3.176  10.185  11.942 -0.2438  0.5703  0.6678
17426SOL    HW164257   3.154  10.190  11.849 -0.7463 -0.7645  0.7005
17426SOL    HW264258   3.118  10.249  11.983 -1.1505  0.0397  0.2440
17427SOL     OW64259   6.124  12.688  12.957 -0.6536 -0.1921  0.3705
17427SOL    HW164260   6.151  12.732  13.038 -0.3669 -0.0295  0.1863
17427SOL    HW264261   6.195  12.704  12.895 -0.9089 -0.2449  0.0575
17428SOL     OW64262  11.325  10.125   7.552 -0.3625 -0.2913  0.3775
17428SOL    HW164263  11.372  10.042   7.542 -0.0526 -0.2060  1.0471
17428SOL    HW264264  11.248  10.103   7.604  0.1619 -0.0241  1.2993
17429SOL     OW64265   0.941   9.373   8.915 -0.3633  0.3982 -0.5031
17429SOL    HW164266   0.988   9.304   8.961 -1.1424  0.9655  1.2167
17429SOL    HW264267   1.001   9.447   8.915 -0.5267  0.5328 -0.0003
17430SOL     OW64268   4.573  10.441  13.397  0.2077 -0.1286 -0.0525
17430SOL    HW164269   4.545  10.410  13.484  1.4507  0.3809  0.5536
17430SOL    HW264270   4.564  10.536  13.401  0.0397 -0.1184 -0.5831
17431SOL     OW64271   9.087   8.088   8.084 -0.0728 -0.1180 -0.6002
17431SOL    HW164272   9.064   8.177   8.056  1.0952  0.1184 -0.8752
17431SOL    HW264273   9.121   8.047   8.005 -0.7632 -0.8733 -0.5092
17432SOL     OW64274   6.516   9.710   5.645  0.5516  0.5382 -0.1563
17432SOL    HW164275   6.432   9.673   5.672  1.0694  0.4002  1.3576
17432SOL    HW264276   6.521   9.692   5.551 -1.5943  1.5675 -0.5060
17433SOL     OW64277   0.641   7.550  12.401  0.3226  0.1143  0.3451
17433SOL    HW164278   0.588   7.555  12.322  2.5664  0.8781 -1.2065
17433SOL    HW264279   0.673   7.460  12.403  1.3596  0.4431 -0.4307
17434SOL     OW64280   5.272   2.319   3.317 -0.2164  0.1048 -0.3270
17434SOL    HW164281   5.234   2.246   3.269  1.1649 -0.7154 -0.2034
17434SOL    HW264282   5.243   2.397   3.269 -2.2938 -0.4368 -0.0521
17435SOL     OW64283   0.817  14.022   6.772  0.6094 -0.1468 -0.2345
17435SOL    HW164284   0.763  14.007   6.695  0.1881  1.0064 -0.1775
17435SOL    HW264285   0.906  14.001   6.744  0.2048 -1.7452 -0.4226
17436SOL     OW64286  12.537   0.845   1.001  0.2672 -0.2267 -0.0300
17436SOL    HW164287  12.633   0.847   1.006  0.2154 -0.9759  2.1575
17436SOL    HW264288  12.512   0.937   0.997  1.0577 -0.0177 -0.4685
17437SOL     OW64289   9.941   3.385   1.799 -0.2303 -0.2739 -0.5152
17437SOL    HW164290   9.880   3.450   1.834  0.4374 -0.4137  0.9941
17437SOL    HW264291   9.904   3.300   1.825  2.0606 -0.3385  3.2784
17438SOL     OW64292  11.813   3.664  10.486  0.0439  0.3108 -0.0279
17438SOL    HW164293  11.830   3.580  10.443  0.3701  1.1694 -1.6514
17438SOL    HW264294  11.718   3.664  10.501  0.2652 -1.1235  1.7730
17439SOL     OW64295   7.482   4.145  13.734 -0.0167 -0.3035 -0.7473
17439SOL    HW164296   7.471   4.053  13.758  0.0812 -0.6044 -1.7995
17439SOL    HW264297   7.432   4.193  13.800  1.5806 -0.9633  1.0128
17440SOL     OW64298   1.642  10.856   4.923 -0.1730 -0.1077 -0.0863
17440SOL    HW164299   1.697  10.935   4.919  0.1854 -0.3325  0.2460
17440SOL    HW264300   1.560  10.886   4.961 -0.9079  0.5637 -2.0862
17441SOL     OW64301   9.808  12.154   7.669  0.0468 -0.0296 -0.4465
17441SOL    HW164302   9.739  12.144   7.735  1.2011 -1.0717  0.6282
17441SOL    HW264303   9.887  12.175   7.718  0.9915 -1.0682 -1.4469
17442SOL     OW64304   1.572   1.297  10.518  0.4932  0.1243  0.0647
17442SOL    HW164305   1.545   1.295  10.426  1.2883  1.3910 -0.2196
17442SOL    HW264306   1.620   1.380  10.527 -0.6493  0.6434  1.9240
17443SOL     OW64307   3.461  13.732   8.136  0.1178 -0.4729  0.3381
17443SOL    HW164308   3.439  13.816   8.178  0.4572  0.1443 -0.6719
17443SOL    HW264309   3.377  13.690   8.120 -0.0837 -0.1014  0.4147
17444SOL     OW64310  11.342   2.774   8.705  0.7644  0.2208  0.0073
17444SOL    HW164311  11.339   2.828   8.626  2.0473  0.7706  0.3062
17444SOL    HW264312  11.254   2.784   8.744  0.5413  0.9990 -0.6638
17445SOL     OW64313  12.519  10.711  10.490  0.2513 -0.2952  0.2298
17445SOL    HW164314  12.532  10.794  10.536 -0.5665 -0.4386  0.7385
17445SOL    HW264315  12.558  10.725  10.404 -0.3122  0.7776  0.1388
17446SOL     OW64316   3.631   4.821  10.224 -0.6993  0.2353 -0.0631
17446SOL    HW164317   3.700   4.755  10.232 -1.1068 -0.2067 -0.1267
17446SOL    HW264318   3.671   4.892  10.173  0.3076  0.8363  1.4886
17447SOL     OW64319   7.384  12.251  12.799 -0.1214 -0.3390 -0.0506
17447SOL    HW164320   7.470  12.278  12.766 -0.0435  0.4930  0.7908
17447SOL    HW264321   7.322  12.282  12.733  0.0694  0.8780  0.3205
17448SOL     OW64322  10.792  12.872   3.548  0.2667  0.3477  0.4123
17448SOL    HW164323  10.825  12.953   3.510 -0.7532  0.6731  0.1923
17448SOL    HW264324  10.698  12.874   3.531  0.3678 -1.4127 -0.5841
17449SOL     OW64325  13.127  13.384  11.804  0.1421  0.5582  0.2632
17449SOL    HW164326  13.129  13.340  11.889  1.8391 -0.7502 -0.3929
17449SOL    HW264327  13.057  13.341  11.756 -0.3513  0.8140  0.7412
17450SOL     OW64328   4.969   8.985   5.344 -0.4480  0.4066  0.2643
17450SOL    HW164329   4.943   9.052   5.407  0.1432  1.3164 -0.4451
17450SOL    HW264330   4.889   8.968   5.294 -0.5842  0.6094  0.4092
17451SOL     OW64331  10.651   2.644   7.766 -0.4715  0.2360  0.6342
17451SOL    HW164332  10.643   2.564   7.714  1.7936 -0.3270  1.0594
17451SOL    HW264333  10.573   2.694   7.743 -0.4784 -0.7694 -1.9415
17452SOL     OW64334   6.726  13.470   6.601  0.6847  0.3888 -0.3527
17452SOL    HW164335   6.740  13.563   6.583 -0.5577  0.8163  0.7337
17452SOL    HW264336   6.806  13.428   6.570  2.1374  2.0466  0.8818
17453SOL     OW64337  12.476  12.400   4.201 -0.3009 -0.1739  0.8546
17453SOL    HW164338  12.383  12.416   4.219 -0.2792  0.3638  0.5030
17453SOL    HW264339  12.477  12.336   4.130 -0.4609  2.2295 -1.4355
17454SOL     OW64340  11.205   1.543   6.704 -0.1106  0.3148  0.1003
17454SOL    HW164341  11.181   1.460   6.664 -0.3132  0.5234 -0.2242
17454SOL    HW264342  11.296   1.558   6.675 -1.3853  2.2730 -3.5222
17455SOL     OW64343  12.847   3.698   1.363  0.1103 -0.3688  0.3350
17455SOL    HW164344  12.860   3.690   1.269  0.5606  1.3272  0.2389
17455SOL    HW264345  12.782   3.631   1.383  0.4875 -1.1992 -1.0595
17456SOL     OW64346   2.268  10.057   6.620  0.1204  0.0159 -0.1525
17456SOL    HW164347   2.218  10.029   6.697  0.9019  0.2068  0.4319
17456SOL    HW264348   2.332   9.988   6.606 -0.5501 -0.4346 -1.1621
17457SOL     OW64349  11.021   1.360  11.338 -0.0230  0.4694 -0.8974
17457SOL    HW164350  11.025   1.304  11.415  0.7168  2.1083  0.3376
17457SOL    HW264351  11.001   1.447  11.373 -0.0154  1.2040 -2.6072
17458SOL     OW64352   0.977   6.744  13.455 -0.3323  0.0947 -0.1640
17458SOL    HW164353   0.960   6.726  13.547 -1.2341 -1.4165 -0.5963
17458SOL    HW264354   0.959   6.661  13.410 -1.2676  1.1662 -1.8778
17459SOL     OW64355   2.827  13.581  11.924  0.3763 -0.6076  0.2591
17459SOL    HW164356   2.906  13.614  11.966  0.9048  0.7510 -1.6294
17459SOL    HW264357   2.781  13.660  11.893  0.2939 -1.4765 -2.0703
17460SOL     OW64358   6.932  11.622   7.308  0.5283 -0.3303  0.3686
17460SOL    HW164359   6.977  11.548   7.267 -2.4854 -1.6681 -0.9125
17460SOL    HW264360   6.902  11.588   7.392 -1.5448 -0.9729 -0.5525
17461SOL     OW64361   1.512   8.480   9.769 -0.0876 -0.5320  0.1945
17461SOL    HW164362   1.460   8.553   9.737  0.5631 -0.0038  0.3168
17461SOL    HW264363   1.571   8.459   9.696  0.5151 -0.1686  0.5628
17462SOL     OW64364   1.433   3.483  13.136  0.4737 -0.2066  0.2998
17462SOL    HW164365   1.502   3.549  13.141  0.9656 -0.7991  2.5496
17462SOL    HW264366   1.362   3.526  13.088  1.3743  1.3996  0.3413
17463SOL     OW64367   4.486   7.292   0.034 -0.1976  0.2837  0.7331
17463SOL    HW164368   4.537   7.234  -0.024 -0.4172 -0.6912  1.4972
17463SOL    HW264369   4.522   7.379   0.017 -0.5301  0.0919 -1.1663
17464SOL     OW64370   0.402   0.580   9.768 -0.1007 -0.5253 -0.7496
17464SOL    HW164371   0.361   0.645   9.824 -0.7100 -0.4419 -1.2783
17464SOL    HW264372   0.366   0.598   9.681  1.1950 -0.3254 -1.2700
17465SOL     OW64373   1.188   4.369  11.505  0.4026 -0.4820  0.5162
17465SOL    HW164374   1.217   4.391  11.594  0.4307  1.2871  0.1087
17465SOL    HW264375   1.216   4.444  11.452 -2.1266 -0.1688 -0.4825
17466SOL     OW64376   2.038  12.701   5.045  0.0827 -0.3614 -0.2455
17466SOL    HW164377   1.978  12.661   4.982 -0.8706 -0.1649  0.5091
17466SOL    HW264378   1.994  12.781   5.072  0.2557 -0.6644  1.0040
17467SOL     OW64379   1.695   9.149  12.535 -0.2982  0.0383 -0.2255
17467SOL    HW164380   1.656   9.085  12.594  1.4263 -0.4569  0.4325
17467SOL    HW264381   1.647   9.139  12.453 -0.4437 -1.6906  0.0432
17468SOL     OW64382   5.972   5.083  10.216 -0.3044 -0.6914  0.1760
17468SOL    HW164383   6.052   5.080  10.162 -0.7675 -1.6995 -0.4863
17468SOL    HW264384   5.955   4.992  10.239 -1.2686 -0.4869  0.3086
17469SOL     OW64385   3.569  13.794   2.924 -0.2501  0.0649 -0.4899
17469SOL    HW164386   3.524  13.760   2.847  0.2262  0.1014 -0.7846
17469SOL    HW264387   3.596  13.882   2.900  1.7923 -0.6742 -1.0767
17470SOL     OW64388  12.153   5.473   6.578  0.0816  0.0992 -0.1647
17470SOL    HW164389  12.245   5.452   6.593  0.0146 -0.2166 -0.1988
17470SOL    HW264390  12.123   5.408   6.515 -0.7641 -1.2560  1.5496
17471SOL     OW64391  13.264   6.876   9.214  0.5298 -0.4123 -0.2918
17471SOL    HW164392  13.179   6.849   9.180  0.2010 -0.4662  0.5310
17471SOL    HW264393  13.262   6.850   9.306  1.3721 -0.2542 -0.2175
17472SOL     OW64394  10.957  11.532  11.693  0.4795 -0.4467  0.0191
17472SOL    HW164395  10.976  11.622  11.667  0.0946 -0.8334 -1.7697
17472SOL    HW264396  11.039  11.500  11.730  0.3194  0.9279  1.6904
17473SOL     OW64397  12.243   6.515   6.979 -0.1414  0.1381 -0.0550
17473SOL    HW164398  12.262   6.433   6.933  2.1434  1.1404 -1.0575
17473SOL    HW264399  12.223   6.577   6.909  4.3908  1.9596 -0.0628
17474SOL     OW64400   8.392   6.568  11.024  0.5233 -0.0679  0.1907
17474SOL    HW164401   8.302   6.601  11.014  0.3567 -0.8402 -1.0361
17474SOL    HW264402   8.447   6.635  10.983  0.5723  0.6801  1.4500
17475SOL     OW64403   5.882   3.865   5.882  0.1461 -0.2259 -0.4333
17475SOL    HW164404   5.799   3.906   5.856 -1.1171  1.0943  4.5106
17475SOL    HW264405   5.940   3.939   5.899  1.2584 -1.0054 -0.7428
17476SOL     OW64406   3.848   3.494   5.176 -0.4447  0.5351  0.3968
17476SOL    HW164407   3.920   3.453   5.128 -0.9227 -0.0905  0.2004
17476SOL    HW264408   3.890   3.538   5.250  0.4006  2.1129 -0.9466
17477SOL     OW64409   5.747   3.065   3.443 -0.6344  0.3782 -0.3385
17477SOL    HW164410   5.803   3.040   3.369 -2.3042  0.2355 -1.6200
17477SOL    HW264411   5.696   2.987   3.462 -1.1219  0.8034  0.1247
17478SOL     OW64412  12.950   0.706   3.066 -0.0722 -0.1064  0.1052
17478SOL    HW164413  13.012   0.672   3.132  0.8494  1.1034 -0.0972
17478SOL    HW264414  12.864   0.681   3.100  0.4294 -0.2950  1.3201
17479SOL     OW64415   0.067   3.209   4.110 -0.1535 -0.5284  0.2336
17479SOL    HW164416   0.015   3.139   4.150  0.0534 -0.2546  1.0042
17479SOL    HW264417   0.006   3.282   4.102  0.6644  0.7204  3.6328
17480SOL     OW64418  11.878   2.657   3.816  0.5652 -0.1439  0.2387
17480SOL    HW164419  11.794   2.648   3.861  0.4126 -1.3495 -0.2469
17480SOL    HW264420  11.874   2.594   3.744  2.2637 -1.0176  0.8222
17481SOL     OW64421   7.679   4.849   4.857 -0.1269  0.2274  0.4137
17481SOL    HW164422   7.737   4.899   4.915 -1.7757  0.9142  1.5609
17481SOL    HW264423   7.657   4.770   4.907  0.4687 -0.4409 -0.3610
17482SOL     OW64424   2.085   1.803   1.991  0.8749  0.6635 -0.2868
17482SOL    HW164425   2.152   1.776   2.053  0.9104  1.3111 -0.0316
17482SOL    HW264426   2.003   1.795   2.039  0.8422  0.5911 -0.3540
17483SOL     OW64427   1.528   4.991   2.387 -0.2536 -0.1416  0.1181
17483SOL    HW164428   1.461   5.037   2.439  0.6586  1.7336 -0.2874
17483SOL    HW264429   1.603   4.984   2.446 -0.9146 -2.7122  0.7486
17484SOL     OW64430  11.809   2.250   8.179 -0.5678 -0.0716  0.1350
17484SOL    HW164431  11.746   2.226   8.111 -0.1434 -1.4592  0.1985
17484SOL    HW264432  11.783   2.197   8.255  1.4041 -1.6797 -0.2340
17485SOL     OW64433   0.791   3.857   2.152 -0.2131 -0.4226 -0.0594
17485SOL    HW164434   0.807   3.892   2.064  0.5709  0.2822  0.3516
17485SOL    HW264435   0.867   3.883   2.203 -0.2011 -1.6707  0.5985
17486SOL     OW64436   1.722   5.678   2.252 -0.6554 -0.0802 -0.2091
17486SOL    HW164437   1.646   5.646   2.203  0.8058 -1.4902 -1.7333
17486SOL    HW264438   1.772   5.598   2.273  1.6825  0.9057 -1.5790
17487SOL     OW64439   2.598   2.265  11.226 -0.6656 -0.3897  0.6577
17487SOL    HW164440   2.579   2.178  11.261 -0.5585 -0.5402  0.3464
17487SOL    HW264441   2.552   2.269  11.143  0.6324 -0.7650 -0.1051
17488SOL     OW64442  12.098  11.140  13.848  0.3665  0.0061  0.0892
17488SOL    HW164443  12.191  11.136  13.866  0.5688 -1.1571 -0.9868
17488SOL    HW264444  12.093  11.163  13.755 -0.5422  3.7136  0.9047
17489SOL     OW64445   1.192   2.814   2.140  0.3819  0.1058  0.9357
17489SOL    HW164446   1.266   2.823   2.080 -1.3165 -2.2706 -1.7629
17489SOL    HW264447   1.193   2.722   2.165 -1.3683  0.1257  1.1897
17490SOL     OW64448  10.062   0.753   8.700 -0.5964  0.2477  0.1335
17490SOL    HW164449   9.980   0.801   8.691 -1.0086 -0.6989 -1.4738
17490SOL    HW264450  10.095   0.745   8.611 -0.3068 -2.0154  0.3765
17491SOL     OW64451   9.303   5.806  11.518 -0.9568  0.1342 -0.5088
17491SOL    HW164452   9.265   5.756  11.445 -1.4237 -0.6150  0.2195
17491SOL    HW264453   9.363   5.744  11.560  1.6601  1.4670 -1.9932
17492SOL     OW64454  13.183  10.119   5.942  0.1081 -0.6000 -0.4108
17492SOL    HW164455  13.209  10.087   6.028  1.8710  1.4525 -0.0857
17492SOL    HW264456  13.089  10.133   5.948  0.4823  1.4842  1.9457
17493SOL     OW64457   6.002  12.122   3.825 -0.0635  0.5254 -0.4872
17493SOL    HW164458   6.039  12.163   3.747  0.4096  0.3845 -0.3415
17493SOL    HW264459   6.072  12.066   3.859 -0.2426  0.6273  0.0731
17494SOL     OW64460  12.800   2.615   5.624  0.3422 -0.5764  0.6425
17494SOL    HW164461  12.888   2.607   5.587 -0.2772 -1.6444 -0.6655
17494SOL    HW264462  12.801   2.556   5.700  0.8068 -0.4083  0.7734
17495SOL     OW64463   1.725   3.886   8.579  0.3318  0.4265  0.4482
17495SOL    HW164464   1.728   3.812   8.519  1.4191  0.3559  0.5589
17495SOL    HW264465   1.635   3.887   8.611  0.1407 -0.4797 -0.0051
17496SOL     OW64466   8.836   3.982   5.080 -0.1571 -0.2761  0.1948
17496SOL    HW164467   8.755   3.935   5.102 -0.5604 -0.2041 -1.0752
17496SOL    HW264468   8.894   3.916   5.043 -0.2920 -0.0126 -0.5078
17497SOL     OW64469   7.184   2.503   9.872 -0.5098 -0.0388 -0.2114
17497SOL    HW164470   7.249   2.433   9.866 -1.4647 -1.1152  1.3258
17497SOL    HW264471   7.214   2.557   9.945 -0.7757  0.0688 -0.1803
17498SOL     OW64472  11.913   2.672   4.781  0.1294  0.1082  0.1869
17498SOL    HW164473  11.907   2.761   4.816 -0.6040 -0.1454  0.7399
17498SOL    HW264474  12.005   2.661   4.758  0.5369  0.4604  1.5801
17499SOL     OW64475   5.178   9.701  13.225  0.1261  0.5021  0.3984
17499SOL    HW164476   5.211   9.742  13.145 -0.8886 -0.1804 -0.4015
17499SOL    HW264477   5.233   9.623  13.237 -0.5210 -0.0914 -0.3714
17500SOL     OW64478   0.881   4.648   6.467 -0.0385  0.2126 -0.1871
17500SOL    HW164479   0.957   4.681   6.515  1.6570 -1.3159 -1.6596
17500SOL    HW264480   0.823   4.613   6.535  1.1212  0.3488  0.9130
17501SOL     OW64481   2.067   0.254  12.556  0.0190  0.0234  0.0520
17501SOL    HW164482   2.079   0.251  12.461 -0.7855 -0.6157 -0.0368
17501SOL    HW264483   2.076   0.163  12.584  1.7259  0.3817  0.7914
17502SOL     OW64484   3.858   9.482   4.890 -0.5156  0.1893  0.0346
17502SOL    HW164485   3.797   9.454   4.822 -0.5732  0.3377  0.0243
17502SOL    HW264486   3.817   9.560   4.928 -1.3089 -0.8199  1.3524
17503SOL     OW64487  13.967   0.553  11.356 -0.0395 -0.1487  0.4356
17503SOL    HW164488  13.905   0.490  11.392 -1.2223  1.6052  1.6194
17503SOL    HW264489  14.043   0.547  11.414  0.4068 -1.3381 -0.2221
17504SOL     OW64490   6.991   7.160  10.642 -0.0598  0.1264 -0.4926
17504SOL    HW164491   7.016   7.079  10.598  0.0498 -1.0186  1.5831
17504SOL    HW264492   7.053   7.168  10.715 -2.4745 -0.0901  1.7296
17505SOL     OW64493   0.447   4.053   5.466 -0.0398  0.5739 -1.3356
17505SOL    HW164494   0.533   4.015   5.483  0.6700  0.9714 -3.6580
17505SOL    HW264495   0.385   3.991   5.504  1.1963  1.6955  3.1395
17506SOL     OW64496  13.228   2.656   6.230 -0.0774 -0.4375 -0.1938
17506SOL    HW164497  13.187   2.649   6.316  0.8152  0.1389  0.2905
17506SOL    HW264498  13.317   2.622   6.243  0.8575  1.7775 -0.2894
17507SOL     OW64499   0.636   3.009   9.408 -0.1996  0.3790 -0.4467
17507SOL    HW164500   0.706   2.947   9.424 -1.5729 -1.0978  0.0292
17507SOL    HW264501   0.609   3.039   9.495 -0.0716  1.0674 -0.6340
17508SOL     OW64502   5.860  12.185   8.774 -0.0327  0.0031  0.4623
17508SOL    HW164503   5.803  12.262   8.769 -1.5278 -1.1528 -1.3796
17508SOL    HW264504   5.800  12.112   8.790  0.9820 -1.1548 -0.8349
17509SOL     OW64505   2.798   1.831  11.479  0.0045  0.6556 -0.2061
17509SOL    HW164506   2.810   1.894  11.550 -1.3625 -0.4768  1.1199
17509SOL    HW264507   2.883   1.786  11.473 -0.0329  0.3138  1.2225
17510SOL     OW64508   2.271  13.299   9.806  0.2485  0.2525  0.2038
17510SOL    HW164509   2.241  13.214   9.773  1.5025 -1.0640  2.2602
17510SOL    HW264510   2.204  13.325   9.869 -0.3171  1.0180 -0.6795
17511SOL     OW64511   0.073   5.087   0.888  0.3811  0.7127  0.0993
17511SOL    HW164512   0.124   5.008   0.905 -0.3463  0.2353  0.0981
17511SOL    HW264513   0.067   5.131   0.973  1.1866  1.0175  0.0062
17512SOL     OW64514  13.468   6.521  11.200 -0.0337  0.1139  0.0578
17512SOL    HW164515  13.482   6.574  11.278  1.3135  0.7889 -0.6172
17512SOL    HW264516  13.455   6.432  11.233 -1.4406  0.6718  1.1477
17513SOL     OW64517   7.913   8.438  10.081  0.7943  0.0440 -0.0104
17513SOL    HW164518   7.859   8.488  10.141 -0.0153 -0.3218 -0.4175
17513SOL    HW264519   7.918   8.351  10.119 -0.0405 -0.2955 -0.6471
17514SOL     OW64520   3.493   2.977   3.035 -0.5116 -0.2090 -0.0717
17514SOL    HW164521   3.460   2.935   3.115  3.2649  0.7952  2.3048
17514SOL    HW264522   3.498   3.070   3.058  2.7875 -0.1781 -0.4738
17515SOL     OW64523   2.859  13.539   4.433  0.0530  0.2715  1.0205
17515SOL    HW164524   2.850  13.598   4.357  0.1040  0.6488  1.3022
17515SOL    HW264525   2.783  13.560   4.488 -0.6478 -0.8515  0.5087
17516SOL     OW64526   9.862   5.729   5.867  0.6349 -0.1686 -0.3060
17516SOL    HW164527   9.954   5.752   5.880  0.2717  2.5472 -1.8281
17516SOL    HW264528   9.836   5.778   5.790 -2.4774  0.2841  0.8994
17517SOL     OW64529   0.804  12.733   4.552 -0.1965 -0.6368  0.0292
17517SOL    HW164530   0.734  12.720   4.616 -1.1717  2.5959 -0.2451
17517SOL    HW264531   0.880  12.760   4.604  0.2649 -1.9879  0.1122
17518SOL     OW64532  12.249   7.737   3.387  0.3621 -0.2178  0.1461
17518SOL    HW164533  12.338   7.718   3.358 -0.0827 -0.8069 -0.8844
17518SOL    HW264534  12.223   7.813   3.337 -0.0856 -0.6904 -0.3537
17519SOL     OW64535  12.834   1.050  12.953  0.4183 -0.7609  0.8132
17519SOL    HW164536  12.848   1.138  12.989 -0.2326 -0.0657 -0.5328
17519SOL    HW264537  12.921   1.020  12.928  0.7076 -0.7127  1.7425
17520SOL     OW64538   8.034   0.886   2.128 -0.1681  0.0318 -0.0975
17520SOL    HW164539   7.946   0.887   2.090 -0.5425 -0.3545  0.7127
17520SOL    HW264540   8.062   0.977   2.126 -0.7460  0.2159 -0.0296
17521SOL     OW64541  10.668   2.733   3.808 -0.3922  0.4730 -0.0236
17521SOL    HW164542  10.576   2.759   3.803 -0.8227 -1.0760 -1.0503
17521SOL    HW264543  10.681   2.679   3.730  1.4760  0.8796 -0.0344
17522SOL     OW64544   2.557  13.381   3.484  0.0279  0.0848  0.0298
17522SOL    HW164545   2.597  13.418   3.563 -1.3357  1.1506  0.2512
17522SOL    HW264546   2.548  13.288   3.503 -1.8794  0.5804  1.8727
17523SOL     OW64547   8.220   2.137  10.104 -0.4754  0.1528 -0.1960
17523SOL    HW164548   8.244   2.148  10.012 -1.4014 -0.5949 -0.5464
17523SOL    HW264549   8.174   2.217  10.127  0.6325  0.7745 -0.0739
17524SOL     OW64550   8.244   6.586   0.983  0.4509 -0.0708  0.3126
17524SOL    HW164551   8.227   6.662   0.928  0.8994 -0.0222  0.2400
17524SOL    HW264552   8.165   6.577   1.037  0.1627  0.1003 -0.0802
17525SOL     OW64553   9.849  10.730   7.949  0.6714  0.4464  0.0262
17525SOL    HW164554   9.869  10.808   8.001  3.0714  0.1601 -0.3826
17525SOL    HW264555   9.891  10.658   7.996  1.1373 -0.1243 -1.2268
17526SOL     OW64556   3.932   8.848   6.322  0.1186  0.0999  0.3712
17526SOL    HW164557   3.880   8.867   6.245 -0.4196  0.4310  0.8102
17526SOL    HW264558   4.023   8.856   6.292 -0.0807 -0.0707 -0.2936
17527SOL     OW64559   9.675   0.985   8.046 -0.3077 -0.5021 -0.1469
17527SOL    HW164560   9.650   0.965   8.136 -0.6926  0.6482  0.0136
17527SOL    HW264561   9.610   0.940   7.992 -0.7943 -0.2134  0.1901
17528SOL     OW64562  10.625   7.737   2.713 -0.4735 -0.8876 -0.0144
17528SOL    HW164563  10.658   7.815   2.666 -1.1911  0.2383  1.2820
17528SOL    HW264564  10.701   7.705   2.761 -0.6660  0.3281  1.1478
17529SOL     OW64565  11.223   1.481   3.704  0.0909 -0.0231 -0.0131
17529SOL    HW164566  11.268   1.508   3.624 -0.1785  1.2384  0.2420
17529SOL    HW264567  11.199   1.390   3.688 -0.0037  0.2221 -1.3895
17530SOL     OW64568   8.008   1.021   4.140  0.1475 -0.2752  0.0603
17530SOL    HW164569   8.077   1.040   4.076 -0.3677 -0.1350 -0.4555
17530SOL    HW264570   7.960   0.947   4.103 -0.7804  0.4523 -0.2076
17531SOL     OW64571   1.481   4.296  11.884 -0.1004 -0.5770 -0.4947
17531SOL    HW164572   1.490   4.258  11.796  0.9639  1.2083 -1.2156
17531SOL    HW264573   1.521   4.231  11.941  1.4181 -0.7285 -1.6518
17532SOL     OW64574   9.650   3.850   3.702  0.3749 -0.2534 -0.4478
17532SOL    HW164575   9.678   3.771   3.657 -1.2520  0.3354 -2.6755
17532SOL    HW264576   9.695   3.921   3.656 -1.4785  0.3810 -1.3694
17533SOL     OW64577   7.625   6.483   5.887 -0.2102 -0.5852  0.1692
17533SOL    HW164578   7.530   6.490   5.894 -0.2093 -1.1191  0.8610
17533SOL    HW264579   7.652   6.443   5.970  0.5567 -0.9744 -0.2577
17534SOL     OW64580   2.967   2.592   5.896  0.0342 -0.3666  0.0036
17534SOL    HW164581   3.044   2.535   5.901 -0.8486 -1.6052  0.1767
17534SOL    HW264582   2.925   2.582   5.982 -0.7396 -0.3362 -0.3617
17535SOL     OW64583   2.270   3.468   5.311 -0.1390  0.2991 -0.6309
17535SOL    HW164584   2.184   3.503   5.287  0.5439  1.6172 -1.3291
17535SOL    HW264585   2.255   3.376   5.332 -2.2398  1.1784  2.2933
17536SOL     OW64586   2.984   8.989   5.900  0.1907 -0.5199  0.2506
17536SOL    HW164587   3.047   8.944   5.844  2.1483 -1.4891  2.9758
17536SOL    HW264588   2.943   8.918   5.951 -0.1731  0.4130  1.2893
17537SOL     OW64589   9.638   2.555  12.278  0.7007  0.1803 -0.0136
17537SOL    HW164590   9.682   2.629  12.237  1.1572  0.3508  0.7699
17537SOL    HW264591   9.709   2.497  12.305  0.3235 -1.1401 -1.6709
17538SOL     OW64592   8.843   3.316  13.715 -0.1699 -0.0822  0.4237
17538SOL    HW164593   8.928   3.274  13.726 -0.0810 -0.3792 -1.1672
17538SOL    HW264594   8.784   3.264  13.770  0.6856  0.2625  1.7149
17539SOL     OW64595   9.567   1.257   4.117 -0.5112 -0.1245  0.2304
17539SOL    HW164596   9.577   1.351   4.126  1.5616 -0.2346 -0.2149
17539SOL    HW264597   9.477   1.244   4.089 -1.0311  1.6574  0.9435
17540SOL     OW64598   9.954  13.799  10.415  0.3781 -0.0978  0.0601
17540SOL    HW164599  10.021  13.796  10.347 -1.3977 -0.4100 -1.7650
17540SOL    HW264600   9.925  13.890  10.417  2.4114  0.6158  2.5536
17541SOL     OW64601   9.657  11.829   5.618  0.1644  0.2272  0.3756
17541SOL    HW164602   9.576  11.778   5.615  0.9788 -1.0908  0.0945
17541SOL    HW264603   9.688  11.819   5.708  0.7323 -0.4458  0.1126
17542SOL     OW64604   0.613   0.466   8.712  0.1082 -0.6029  0.0444
17542SOL    HW164605   0.539   0.408   8.732 -0.7727  0.7292  0.8312
17542SOL    HW264606   0.665   0.417   8.649 -2.4409 -0.8946 -2.0428
17543SOL     OW64607   7.621   0.668  11.757 -0.1557  0.5010  0.2918
17543SOL    HW164608   7.688   0.667  11.825  1.0163  1.8378 -0.7910
17543SOL    HW264609   7.636   0.588  11.706 -0.2907  0.0975  0.8799
17544SOL     OW64610   0.614  12.490  11.182 -0.4995  0.0610  0.3885
17544SOL    HW164611   0.618  12.522  11.273 -0.7417  1.2785 -0.0033
17544SOL    HW264612   0.568  12.407  11.188 -1.8903  0.8375  1.2224
17545SOL     OW64613   3.098   4.088   5.329  0.0981  0.4331 -0.0126
17545SOL    HW164614   3.016   4.046   5.356  0.1030  0.9121  0.7741
17545SOL    HW264615   3.100   4.077   5.234 -0.4745 -0.3099  0.0475
17546SOL     OW64616   4.524   2.603   2.327 -0.5544 -0.1982 -0.5138
17546SOL    HW164617   4.465   2.536   2.359 -0.7463 -1.3062 -3.0036
17546SOL    HW264618   4.612   2.566   2.339 -0.4447  0.4504  0.9471
17547SOL     OW64619   6.017   5.365   1.122  0.4780  0.8486 -0.1075
17547SOL    HW164620   5.987   5.280   1.155 -0.7252  1.3024  0.0253
17547SOL    HW264621   5.946   5.394   1.065  1.8641  0.7587 -1.9557
17548SOL     OW64622   9.275  13.067   2.307 -0.0195  0.2459  0.8874
17548SOL    HW164623   9.306  13.127   2.240 -0.5121  0.8371  1.1821
17548SOL    HW264624   9.318  13.095   2.388 -0.3588  0.3003  1.0539
17549SOL     OW64625   9.847   4.665   0.093  0.2027 -0.0253  0.2211
17549SOL    HW164626   9.839   4.603   0.166 -1.1453  0.4821  0.5297
17549SOL    HW264627   9.897   4.617   0.027 -2.3203 -2.1885 -0.3080
17550SOL     OW64628   4.056   2.128   8.869  0.3663 -0.1821  0.4989
17550SOL    HW164629   4.132   2.157   8.818  0.6276  1.8297  1.9038
17550SOL    HW264630   4.069   2.034   8.879  2.0659 -0.0862 -0.2910
17551SOL     OW64631   6.668   0.147  13.268 -0.1122  0.0810  0.2894
17551SOL    HW164632   6.694   0.078  13.330  1.7394  0.0373 -0.4635
17551SOL    HW264633   6.661   0.102  13.184 -0.3160  0.5582  0.0468
17552SOL     OW64634  10.922   4.103   6.016  0.3435  0.6493  0.1766
17552SOL    HW164635  10.948   4.038   6.081  0.5119  0.9248  0.3874
17552SOL    HW264636  10.922   4.186   6.064 -0.9834  0.6563  0.2032
17553SOL     OW64637   2.542   2.145  11.674 -0.1291 -0.6842 -0.0327
17553SOL    HW164638   2.539   2.050  11.689 -2.1072 -0.6003  0.3198
17553SOL    HW264639   2.522   2.184  11.759  1.5408  0.1068  0.0321
17554SOL     OW64640   5.098   5.410   1.968 -0.5592  0.0893  0.0244
17554SOL    HW164641   5.076   5.453   2.051  0.4733 -0.0358  0.3803
17554SOL    HW264642   5.182   5.367   1.985  1.5530  2.9555 -2.0699
17555SOL     OW64643  13.292  10.736   1.889  0.2321 -0.5136 -0.2721
17555SOL    HW164644  13.222  10.730   1.823  0.2877 -0.4182 -0.3394
17555SOL    HW264645  13.354  10.799   1.853  0.0437 -0.1235  0.0743
17556SOL     OW64646   9.293  10.056   9.308  0.0304  0.4364 -0.1084
17556SOL    HW164647   9.357  10.048   9.379  0.0937 -0.5744 -0.2658
17556SOL    HW264648   9.317   9.988   9.246 -0.6447  0.6465 -0.6163
17557SOL     OW64649   6.456   3.565  12.035  0.4802 -0.7125  0.2345
17557SOL    HW164650   6.365   3.554  12.062  0.3720  0.6823  0.5192
17557SOL    HW264651   6.493   3.628  12.097  1.0536  0.2917 -1.0726
17558SOL     OW64652   7.895   1.577   5.634  0.4826 -0.3780  0.3050
17558SOL    HW164653   7.916   1.495   5.591  1.8577 -0.2825  0.7548
17558SOL    HW264654   7.971   1.633   5.618 -0.7368  1.1006 -0.6630
17559SOL     OW64655   5.461   7.906   3.705  0.4139  0.2057 -0.0457
17559SOL    HW164656   5.403   7.871   3.772 -0.7132 -0.1374 -1.1456
17559SOL    HW264657   5.438   7.999   3.700 -1.0656 -0.1919 -1.4119
17560SOL     OW64658  10.272  13.199   4.053 -0.3259 -0.7527  0.5814
17560SOL    HW164659  10.317  13.232   3.975 -1.3804 -0.8606 -0.0848
17560SOL    HW264660  10.343  13.169   4.110  0.7702  2.6724  1.2970
17561SOL     OW64661  13.016   0.802   0.751  0.2562  0.6088  0.2085
17561SOL    HW164662  12.931   0.825   0.788  0.2525  0.0488  0.5593
17561SOL    HW264663  13.076   0.867   0.788  0.2904 -0.0526  1.3774
17562SOL     OW64664  10.918   6.789   3.344  0.1438  0.2119 -0.3358
17562SOL    HW164665  10.996   6.845   3.348  0.0814  0.2660  0.1332
17562SOL    HW264666  10.949   6.703   3.374  0.0792  0.1671 -0.3956
17563SOL     OW64667   2.256   3.146   8.890  0.0206  0.2707 -0.2442
17563SOL    HW164668   2.223   3.105   8.810 -0.1948 -0.6768  0.3125
17563SOL    HW264669   2.185   3.202   8.920 -0.1233  0.1690 -0.3953
17564SOL     OW64670   5.108   4.601   0.104 -0.8191 -0.3045 -0.0504
17564SOL    HW164671   5.198   4.627   0.121 -0.6942  0.0492 -1.1576
17564SOL    HW264672   5.061   4.683   0.090 -1.6898 -0.3737  2.0850
17565SOL     OW64673   8.721   8.271   1.043  0.0187 -0.3198 -0.4906
17565SOL    HW164674   8.765   8.188   1.061  0.2900 -0.3220 -1.1421
17565SOL    HW264675   8.645   8.271   1.101  0.9090 -0.2779  0.6963
17566SOL     OW64676   7.836   3.085   4.755 -0.6970  0.4425 -0.1680
17566SOL    HW164677   7.827   2.991   4.745 -0.5917  0.5291 -1.2569
17566SOL    HW264678   7.918   3.106   4.710  0.8533  0.6987  2.5856
17567SOL     OW64679  11.803   8.795   4.425 -0.3383 -0.1723  0.1513
17567SOL    HW164680  11.847   8.731   4.368 -0.6921  1.7700 -2.5093
17567SOL    HW264681  11.711   8.768   4.425 -0.0735 -1.1688  1.3172
17568SOL     OW64682   3.471  10.212   8.604  0.1223  1.0526  0.1083
17568SOL    HW164683   3.388  10.201   8.557  0.6841 -1.1379 -0.4604
17568SOL    HW264684   3.478  10.135   8.660  1.6572  1.3157  0.3243
17569SOL     OW64685   2.091   9.498   8.018  0.5142 -0.1210 -0.3658
17569SOL    HW164686   2.035   9.422   8.033  0.4520  0.0497  0.2919
17569SOL    HW264687   2.097   9.505   7.922 -1.9753  0.8693 -0.5241
17570SOL     OW64688  13.486  12.251   9.417  0.1819  0.3608  0.2821
17570SOL    HW164689  13.392  12.257   9.402  0.5402  1.1797 -2.1463
17570SOL    HW264690  13.517  12.189   9.351  1.4371  0.7161  0.5028
17571SOL     OW64691   1.879   5.000  13.466 -0.2510  0.0322  0.2744
17571SOL    HW164692   1.803   4.943  13.474 -0.0853 -0.0255  1.5909
17571SOL    HW264693   1.894   5.007  13.371 -1.6840 -0.2092  0.0132
17572SOL     OW64694   5.714   1.274   6.345 -0.2477  0.4311  0.7804
17572SOL    HW164695   5.657   1.336   6.300  0.3133 -0.3694 -1.1204
17572SOL    HW264696   5.794   1.324   6.363 -0.7504  0.9665  1.6146
17573SOL     OW64697   9.271   9.050   3.139  0.2336  0.7273  0.1356
17573SOL    HW164698   9.196   9.106   3.119 -2.4065 -2.6433 -0.3237
17573SOL    HW264699   9.270   9.041   3.234  0.3958  1.1283  0.1741
17574SOL     OW64700   0.543   2.976   8.170  0.1417  0.3296 -0.1483
17574SOL    HW164701   0.516   3.036   8.100  0.2172  0.7826  0.2020
17574SOL    HW264702   0.612   2.923   8.132  0.3618  0.7542 -0.3389
17575SOL     OW64703   0.357   8.233  12.562  0.0541 -0.5712  0.9961
17575SOL    HW164704   0.316   8.285  12.631  0.4821  1.5931 -0.2961
17575SOL    HW264705   0.390   8.297  12.500 -1.9611 -2.3899 -2.2361
17576SOL     OW64706   8.039   9.207   8.538  0.3471  0.2222 -0.0446
17576SOL    HW164707   7.997   9.173   8.617 -0.0933  0.2364 -0.2702
17576SOL    HW264708   8.066   9.296   8.561 -1.3515  0.8925 -0.4412
17577SOL     OW64709   6.592   1.372   7.288  0.4026  0.6223 -0.1805
17577SOL    HW164710   6.629   1.389   7.375 -0.6495 -0.3364  0.4791
17577SOL    HW264711   6.504   1.410   7.291  0.5498  1.0800 -1.0397
17578SOL     OW64712   2.656  10.533   2.669  0.2702 -0.1013 -0.1752
17578SOL    HW164713   2.653  10.458   2.609  1.5355 -0.6393  0.3897
17578SOL    HW264714   2.696  10.498   2.749 -1.6839  0.5097  1.1474
17579SOL     OW64715   6.092   2.650  13.276  0.2445 -0.1547  0.4265
17579SOL    HW164716   6.045   2.624  13.197 -1.5377 -0.8888  1.6620
17579SOL    HW264717   6.114   2.568  13.319 -0.0624  0.2559  1.3862
17580SOL     OW64718   8.578   4.200   6.225 -0.1085 -0.2073 -0.0869
17580SOL    HW164719   8.525   4.131   6.265 -0.9848  0.3411 -0.2953
17580SOL    HW264720   8.668   4.166   6.230 -0.3759 -0.7995  0.9697
17581SOL     OW64721   2.461  10.042   7.757 -0.6183 -0.1358 -0.6671
17581SOL    HW164722   2.468  10.126   7.712  0.1552 -1.3784 -3.0511
17581SOL    HW264723   2.370  10.015   7.745 -0.7189  0.0953 -0.4194
17582SOL     OW64724   6.042  10.287   5.037  0.1904 -0.3454  0.6101
17582SOL    HW164725   6.119  10.287   5.094  0.3850  0.7701  0.3828
17582SOL    HW264726   6.025  10.380   5.021 -0.2737 -0.6151 -0.5894
17583SOL     OW64727   8.130   6.089  11.727  0.0264 -0.0612  0.4750
17583SOL    HW164728   8.049   6.042  11.709 -0.4407  0.5524  0.9217
17583SOL    HW264729   8.186   6.025  11.771  0.0492 -0.6874 -0.4597
17584SOL     OW64730   9.364   8.698  11.545 -0.2399  0.0427  0.1296
17584SOL    HW164731   9.427   8.736  11.606 -0.7586  0.4313  0.4352
17584SOL    HW264732   9.380   8.603  11.551 -1.1543 -0.0501  1.9036
17585SOL     OW64733   8.657   6.502   3.960 -0.4993 -0.7006  0.0773
17585SOL    HW164734   8.684   6.590   3.936 -0.0561 -1.0202 -0.6109
17585SOL    HW264735   8.564   6.498   3.935 -0.8628 -0.0339  1.2519
17586SOL     OW64736  10.341   7.269   7.424  0.3774  0.0270 -0.3010
17586SOL    HW164737  10.406   7.246   7.357  0.3082 -1.9761  0.2632
17586SOL    HW264738  10.332   7.190   7.476 -0.8006  1.0329  1.0820
17587SOL     OW64739  12.864   3.265   6.064 -0.2177 -1.0208  0.8345
17587SOL    HW164740  12.942   3.234   6.110  0.6456 -1.3708 -0.7836
17587SOL    HW264741  12.864   3.360   6.077  0.7166 -0.9701  0.5363
17588SOL     OW64742   0.716   1.395   3.046  0.5505 -0.2686  0.1822
17588SOL    HW164743   0.714   1.299   3.040  2.5850 -0.2844 -1.3764
17588SOL    HW264744   0.698   1.414   3.138 -2.5783 -1.9591  0.0448
17589SOL     OW64745   1.687   0.577   2.517  0.5047  0.5213 -0.3951
17589SOL    HW164746   1.722   0.620   2.595  0.8075  0.2310 -0.3675
17589SOL    HW264747   1.713   0.485   2.527 -1.6308 -0.0490  0.4143
17590SOL     OW64748   3.147   5.108  12.769  0.0965  0.2538 -0.2825
17590SOL    HW164749   3.128   5.015  12.780 -0.7980  0.4751  0.1010
17590SOL    HW264750   3.234   5.110  12.729 -0.5079 -0.7775 -1.7081
17591SOL     OW64751   3.351   8.837   9.855  0.5037  0.6242  0.3816
17591SOL    HW164752   3.313   8.902   9.914 -0.4435 -0.1664  0.6659
17591SOL    HW264753   3.440   8.823   9.888  0.1205  0.4846  1.3856
17592SOL     OW64754  12.311   3.241   5.435 -0.0243  0.3006  0.7554
17592SOL    HW164755  12.377   3.189   5.390 -1.5700 -1.2797  0.1884
17592SOL    HW264756  12.280   3.303   5.368  0.7506  0.9630  0.9881
17593SOL     OW64757   7.591   9.506   6.251 -0.0324 -0.3179 -0.3262
17593SOL    HW164758   7.681   9.532   6.230  0.0053 -0.9256 -0.9379
17593SOL    HW264759   7.540   9.533   6.175  0.0483 -2.2076 -1.1131
17594SOL     OW64760   4.735   3.207   5.784  0.3586 -0.1113  0.2042
17594SOL    HW164761   4.735   3.128   5.730  0.6952  1.3014 -1.9980
17594SOL    HW264762   4.816   3.202   5.835  0.2671 -1.2644  0.2479
17595SOL     OW64763   8.706   5.489   1.257 -0.0516 -0.0050  0.2318
17595SOL    HW164764   8.701   5.418   1.194  1.6204 -0.0993  0.1668
17595SOL    HW264765   8.657   5.457   1.334 -0.7063 -0.5358 -0.3894
17596SOL     OW64766  13.451   1.837   9.490 -0.1886 -0.4935  0.1279
17596SOL    HW164767  13.507   1.765   9.460 -0.8667 -0.8027 -0.3956
17596SOL    HW264768  13.365   1.798   9.501 -0.0739 -0.3033  2.0869
17597SOL     OW64769  14.029   7.107   7.927 -0.3815 -0.1771 -0.3076
17597SOL    HW164770  13.986   7.189   7.949  0.9479  1.2501 -2.5491
17597SOL    HW264771  14.087   7.090   8.001  0.4990  1.8296 -0.4671
17598SOL     OW64772  10.436  13.468  13.186 -0.7780 -0.2579  0.2035
17598SOL    HW164773  10.440  13.560  13.212 -1.0838 -0.8364  2.4834
17598SOL    HW264774  10.458  13.420  13.266 -0.8064 -2.1834 -0.8970
17599SOL     OW64775  12.094   3.941  10.222 -0.2158  0.1469 -0.2612
17599SOL    HW164776  12.121   3.907  10.136  0.8716  0.2160  0.0308
17599SOL    HW264777  12.177   3.956  10.268 -0.7484  1.1157  0.4125
17600SOL     OW64778   2.897   8.489   1.419 -0.3368  0.8434  0.3405
17600SOL    HW164779   2.990   8.490   1.397 -0.2702 -0.3089  0.5497
17600SOL    HW264780   2.894   8.492   1.515 -0.3965 -2.0579  0.5091
17601SOL     OW64781   6.269   9.001   0.864  0.1454  0.0609  0.4496
17601SOL    HW164782   6.305   9.072   0.918  0.8292 -0.5218  0.7866
17601SOL    HW264783   6.248   9.042   0.781 -1.1461  1.0354  1.2286
17602SOL     OW64784  12.681   7.244   5.983 -0.6585  0.3519  0.8913
17602SOL    HW164785  12.599   7.195   5.970 -0.9797  0.2802  2.8702
17602SOL    HW264786  12.718   7.207   6.063  1.1911  0.5868  0.1841
17603SOL     OW64787   7.502   5.159  10.542  0.5756  0.5819  0.3882
17603SOL    HW164788   7.520   5.164  10.636 -0.3958  0.9893  0.5637
17603SOL    HW264789   7.530   5.070  10.517 -0.8322 -0.2023  1.4482
17604SOL     OW64790  13.439  12.633   1.646  0.6342 -0.3488  0.3570
17604SOL    HW164791  13.396  12.626   1.561 -1.1696 -0.7461  1.2536
17604SOL    HW264792  13.516  12.687   1.630 -0.1943  0.4034 -1.3299
17605SOL     OW64793   0.939  11.362   0.819 -0.0271  0.3466 -0.6491
17605SOL    HW164794   0.929  11.351   0.913 -1.4061  0.7720 -0.7237
17605SOL    HW264795   0.991  11.287   0.791  2.7458  1.5572  0.7969
17606SOL     OW64796   2.290   1.945   4.583 -0.3557 -0.3566 -0.3297
17606SOL    HW164797   2.316   1.993   4.662  1.9085 -0.7941 -0.7288
17606SOL    HW264798   2.288   1.853   4.610 -0.7919 -0.3995 -0.4988
17607SOL     OW64799   3.061  13.376  10.452 -1.0632  0.0585  0.6255
17607SOL    HW164800   3.046  13.471  10.445 -1.3552  0.0222  0.7626
17607SOL    HW264801   3.047  13.343  10.363  0.5981  0.3601  0.2141
17608SOL     OW64802   0.750   7.186   8.193  0.0258 -0.2025  0.5429
17608SOL    HW164803   0.693   7.111   8.176 -0.0525  0.2596 -1.4079
17608SOL    HW264804   0.833   7.163   8.150  0.2390  0.5256  0.5586
17609SOL     OW64805   6.920  13.149   5.325 -0.1479  0.3193 -0.4757
17609SOL    HW164806   7.012  13.131   5.345  0.0467 -0.9246 -2.2089
17609SOL    HW264807   6.923  13.212   5.253 -0.6658  0.2080 -0.6000
17610SOL     OW64808   5.627   6.103   6.041  0.4325 -0.3530  0.6141
17610SOL    HW164809   5.624   6.080   5.948 -0.1636  0.7056  0.3493
17610SOL    HW264810   5.718   6.088   6.067  1.1487  1.3329 -0.7134
17611SOL     OW64811   5.270   9.810   9.953  0.2518  0.2329  0.2883
17611SOL    HW164812   5.182   9.840   9.974  0.5929  1.0954  0.5587
17611SOL    HW264813   5.258   9.746   9.884 -0.4915  1.4333 -0.7381
17612SOL     OW64814   1.688   2.867   6.780 -0.1843 -0.1885  0.4153
17612SOL    HW164815   1.655   2.813   6.708 -1.0004  1.2908 -0.3713
17612SOL    HW264816   1.661   2.820   6.859  0.3048 -1.5971 -0.2122
17613SOL     OW64817   5.990  11.911   4.674 -0.2990 -0.2443  0.2120
17613SOL    HW164818   5.922  11.856   4.712 -0.9477 -0.1269 -0.7380
17613SOL    HW264819   6.069  11.888   4.722 -1.3549  1.0444  2.7510
17614SOL     OW64820   9.592  12.009   3.631  0.0886  0.3464  0.2652
17614SOL    HW164821   9.628  11.920   3.636  0.2821  0.3834 -0.3942
17614SOL    HW264822   9.606  12.045   3.718  0.7329  0.0084  0.3102
17615SOL     OW64823  10.431   9.084  10.690 -0.3695  0.5009 -0.3656
17615SOL    HW164824  10.436   9.037  10.607 -0.5812  1.4134 -0.9168
17615SOL    HW264825  10.496   9.154  10.682  0.4801 -0.1469  0.7417
17616SOL     OW64826   2.860   6.509   1.947 -0.4122 -0.1464  0.1380
17616SOL    HW164827   2.868   6.421   1.911 -1.8608 -0.0199 -0.5621
17616SOL    HW264828   2.773   6.512   1.986  0.9530 -0.1674  3.5189
17617SOL     OW64829   7.508   2.731  10.176  0.8733  0.2247 -0.3808
17617SOL    HW164830   7.560   2.790  10.121 -0.0468  1.4545  0.0145
17617SOL    HW264831   7.559   2.723  10.257  2.3851 -1.8391 -1.4387
17618SOL     OW64832   9.681   7.812   2.303  0.1451  0.7589 -0.2224
17618SOL    HW164833   9.733   7.882   2.264  0.2544  0.6622 -0.2521
17618SOL    HW264834   9.661   7.753   2.230 -0.2336  0.9332 -0.2642
17619SOL     OW64835   3.761   5.270  10.851 -0.0689  0.5457 -0.3883
17619SOL    HW164836   3.838   5.259  10.796 -1.5651 -4.3503 -1.9961
17619SOL    HW264837   3.780   5.219  10.930 -0.2438  2.6155  1.0775
17620SOL     OW64838   2.658  10.194   8.990  0.0585  0.4896  0.5421
17620SOL    HW164839   2.688  10.205   8.900 -0.7744  0.1143  0.2084
17620SOL    HW264840   2.689  10.272   9.036  0.6687  0.5800 -0.0216
17621SOL     OW64841   0.358  10.758   8.447  0.3881 -0.8310  0.4243
17621SOL    HW164842   0.307  10.792   8.521 -1.5185 -0.0708 -1.1577
17621SOL    HW264843   0.319  10.672   8.429  1.1929 -1.2449  0.5918
17622SOL     OW64844  13.941  11.903   5.568  0.2512  0.0443 -0.2296
17622SOL    HW164845  13.869  11.883   5.508  0.6744 -0.2351 -0.6417
17622SOL    HW264846  13.984  11.979   5.529 -0.9650  1.4435  0.9994
17623SOL     OW64847  11.918   2.132   6.012  0.0634  0.0048 -0.4976
17623SOL    HW164848  11.940   2.202   5.951 -1.2817  0.5181 -0.4227
17623SOL    HW264849  11.826   2.112   5.993 -0.0212 -0.6565  0.5520
17624SOL     OW64850   8.627   5.488   5.225 -0.1475 -0.5187 -0.0115
17624SOL    HW164851   8.700   5.544   5.201 -0.9941  0.6709  0.1329
17624SOL    HW264852   8.634   5.478   5.320 -0.8091  0.5288  0.1574
17625SOL     OW64853  12.566   1.156  10.044  0.5369  0.4733 -0.1369
17625SOL    HW164854  12.527   1.218  10.105  1.3480  0.7600  0.1133
17625SOL    HW264855  12.661   1.169  10.054  0.6906  0.7648 -1.7125
17626SOL     OW64856  13.939   1.229   4.640 -0.2502  0.0628 -0.2020
17626SOL    HW164857  13.928   1.249   4.733  1.0871  0.6727 -0.1453
17626SOL    HW264858  13.851   1.237   4.604 -0.5810  1.2522  0.7582
17627SOL     OW64859   4.415   7.926   5.284 -0.0250  1.1320  0.3921
17627SOL    HW164860   4.390   8.014   5.254 -2.4259  0.0296 -1.1418
17627SOL    HW264861   4.332   7.883   5.302  1.0537 -1.1224  0.2603
17628SOL     OW64862   4.628   3.364  12.513 -0.9386 -0.5080 -0.7289
17628SOL    HW164863   4.706   3.310  12.528 -0.8670  0.0186  0.9555
17628SOL    HW264864   4.566   3.305  12.471 -1.4999 -2.4965  2.5439
17629SOL     OW64865   1.988  10.352  10.619 -0.3181 -0.4716 -0.2349
17629SOL    HW164866   2.049  10.423  10.641 -2.3742  1.3172 -0.0456
17629SOL    HW264867   2.029  10.308  10.545  3.1300 -1.9287  2.2626
17630SOL     OW64868   8.320   7.461   1.723  0.6811 -1.2705  0.6084
17630SOL    HW164869   8.229   7.444   1.700  1.4589 -0.8079 -3.7296
17630SOL    HW264870   8.367   7.381   1.695  1.9453 -0.1320 -0.7174
17631SOL     OW64871   8.819   7.630   8.828  1.0324 -0.2465  0.6128
17631SOL    HW164872   8.844   7.541   8.803  0.2705 -0.2958 -0.0154
17631SOL    HW264873   8.879   7.653   8.899  1.5121 -1.1010  0.4966
17632SOL     OW64874  12.394  12.597   7.356  0.3888  0.4591 -0.3113
17632SOL    HW164875  12.444  12.656   7.299  2.2775 -0.3679  0.4061
17632SOL    HW264876  12.434  12.608   7.443 -1.8370  1.0284  0.6988
17633SOL     OW64877   4.119   3.873  10.499  0.7180 -0.3135  0.0457
17633SOL    HW164878   4.035   3.840  10.468 -0.1611  1.7538  0.0831
17633SOL    HW264879   4.114   3.866  10.594 -0.1604  1.4019  0.1570
17634SOL     OW64880  12.461  13.979   9.512  0.1839  0.3860  0.3804
17634SOL    HW164881  12.416  13.895   9.504 -0.1403  0.4870  1.1065
17634SOL    HW264882  12.411  14.037   9.455  1.5598 -0.3377 -1.6987
17635SOL     OW64883   3.862   1.137   1.408 -0.2621  0.0009 -0.4290
17635SOL    HW164884   3.795   1.158   1.343  0.6863  0.7055 -1.2027
17635SOL    HW264885   3.934   1.100   1.357  0.1235 -0.3350  0.3418
17636SOL     OW64886   8.511  13.449  10.677 -0.1445  0.0512 -0.1417
17636SOL    HW164887   8.525  13.543  10.660 -0.5335  0.0158 -0.6730
17636SOL    HW264888   8.575  13.428  10.745 -0.5666  0.8757  0.5332
17637SOL     OW64889  11.728  13.520   8.545 -0.2949  0.2191  0.5286
17637SOL    HW164890  11.809  13.541   8.591  0.3888 -1.5140  0.1699
17637SOL    HW264891  11.674  13.476   8.611 -0.3180 -0.0224  0.3493
17638SOL     OW64892   4.889   8.801   6.019  0.1589 -0.1549  0.0867
17638SOL    HW164893   4.917   8.854   5.944 -3.2851  1.4135 -0.3346
17638SOL    HW264894   4.910   8.855   6.095 -1.0059  0.7275 -0.1783
17639SOL     OW64895  12.816   6.930  10.726 -0.4435  0.5479  0.2776
17639SOL    HW164896  12.759   6.855  10.710  2.7563 -2.3899  1.2475
17639SOL    HW264897  12.857   6.948  10.642  0.6471 -0.5662  0.5451
17640SOL     OW64898  13.242  12.203   7.394  0.1995  0.4584  0.2239
17640SOL    HW164899  13.260  12.295   7.408  1.7244  0.3035 -0.5070
17640SOL    HW264900  13.281  12.159   7.470  1.9257  0.2176 -0.7675
17641SOL     OW64901   0.271  12.574  13.225 -0.0328  0.5973  0.6601
17641SOL    HW164902   0.326  12.498  13.205 -0.4355  0.2577  0.8440
17641SOL    HW264903   0.181  12.541  13.222 -0.2570  1.2359 -0.0356
17642SOL     OW64904   9.707   0.738   7.145  0.2511  0.2957  0.0701
17642SOL    HW164905   9.651   0.772   7.214 -0.5512 -0.4785 -0.1744
17642SOL    HW264906   9.705   0.643   7.158  0.9480  0.2157 -0.3707
17643SOL     OW64907  11.177   9.013  13.627  0.2371  0.0839  0.0347
17643SOL    HW164908  11.222   8.933  13.654 -0.5602 -0.5341 -0.4245
17643SOL    HW264909  11.225   9.084  13.670  0.3614 -0.7103  1.2337
17644SOL     OW64910  12.708   2.728   4.068 -0.0591  0.6039 -0.8678
17644SOL    HW164911  12.676   2.797   4.010 -0.4092 -1.3942 -3.2364
17644SOL    HW264912  12.803   2.732   4.061  0.1147  2.5663  1.2873
17645SOL     OW64913   4.211   5.275   4.973  0.0606 -0.5988  0.0110
17645SOL    HW164914   4.161   5.332   4.914 -1.1331 -0.6714  0.9127
17645SOL    HW264915   4.298   5.315   4.978  0.0351 -0.3057 -1.3603
17646SOL     OW64916   8.597   9.311   7.035 -0.1618 -0.4887 -0.6333
17646SOL    HW164917   8.624   9.366   7.108 -1.3583 -0.5901 -0.0859
17646SOL    HW264918   8.663   9.241   7.032  1.2054  0.7905 -1.1614
17647SOL     OW64919  11.916   8.088   6.154 -0.5229 -0.1217 -0.5500
17647SOL    HW164920  11.958   8.059   6.074 -0.1254 -0.9419 -0.0478
17647SOL    HW264921  11.837   8.134   6.124  0.9711  1.9712 -1.5386
17648SOL     OW64922   8.031   0.388   8.026 -0.5200  0.5719  0.2347
17648SOL    HW164923   7.969   0.321   8.054 -1.6297  1.5158  0.1378
17648SOL    HW264924   8.039   0.376   7.931 -1.5581  1.2277  0.0475
17649SOL     OW64925  13.282   6.690   5.113 -0.0672 -0.3689 -0.3745
17649SOL    HW164926  13.338   6.622   5.075  0.2747 -0.3269  0.0474
17649SOL    HW264927  13.308   6.770   5.068 -0.0584 -0.4137 -0.4504
17650SOL     OW64928   6.149   1.324   5.956 -0.4877  0.2040 -0.1091
17650SOL    HW164929   6.090   1.357   5.889 -0.5722  2.5426  1.0283
17650SOL    HW264930   6.095   1.316   6.034  0.3243  0.7692  0.5209
17651SOL     OW64931   1.781   9.336   1.297 -0.6991 -0.3068  0.2265
17651SOL    HW164932   1.774   9.307   1.206  0.8228  1.0418 -0.3801
17651SOL    HW264933   1.855   9.287   1.332  0.1967  0.8279 -0.0044
17652SOL     OW64934   0.951  12.410  13.614 -0.0153 -0.0919  0.4479
17652SOL    HW164935   1.027  12.443  13.662 -0.9282 -1.0795  2.7335
17652SOL    HW264936   0.981  12.403  13.524  2.7760 -0.8798  1.3222
17653SOL     OW64937  12.797   3.737   9.879 -0.0297 -0.2835  0.0888
17653SOL    HW164938  12.838   3.823   9.872 -0.1846 -0.2516 -0.4247
17653SOL    HW264939  12.863   3.681   9.920  0.9056 -0.4805 -1.5973
17654SOL     OW64940   2.723   3.064   1.365  0.3390 -0.5031 -0.6400
17654SOL    HW164941   2.693   3.057   1.456  1.7024 -0.1494 -0.1372
17654SOL    HW264942   2.751   2.976   1.342  0.2088 -0.5456 -0.6359
17655SOL     OW64943   2.345   8.051   9.346 -0.1557  0.1287  0.0489
17655SOL    HW164944   2.398   7.980   9.311 -0.9510 -0.3695 -0.1537
17655SOL    HW264945   2.347   8.039   9.441 -1.2169 -0.8488 -0.0384
17656SOL     OW64946   9.375   7.795   2.057  0.5512  0.6543 -0.6131
17656SOL    HW164947   9.393   7.885   2.031 -2.1677  1.0254 -1.4487
17656SOL    HW264948   9.360   7.748   1.975 -1.7452  0.3513 -0.0958
17657SOL     OW64949  12.374   8.892   9.172 -0.2701 -0.0302 -0.4092
17657SOL    HW164950  12.372   8.820   9.235  2.2861  0.2663  0.1252
17657SOL    HW264951  12.385   8.970   9.226 -0.8523  0.5489 -1.1014
17658SOL     OW64952   5.775   1.204   0.880  0.3657  0.0137  0.2708
17658SOL    HW164953   5.700   1.244   0.835  1.9146  1.0685 -1.5724
17658SOL    HW264954   5.817   1.277   0.925  1.5394 -0.0779 -0.6290
17659SOL     OW64955   0.793  12.065   2.425  0.5154  0.0907 -0.6847
17659SOL    HW164956   0.847  11.988   2.408  1.1710  0.4342 -0.2160
17659SOL    HW264957   0.717  12.031   2.473  1.1201 -0.1889  0.0986
17660SOL     OW64958   7.285   2.769  13.512 -0.1320 -0.3024 -0.2709
17660SOL    HW164959   7.254   2.688  13.552  0.1188 -0.4996 -0.4741
17660SOL    HW264960   7.226   2.784  13.438 -0.9825  0.3883  0.5196
17661SOL     OW64961  13.022   7.907   3.662  0.2807 -0.4277  0.0519
17661SOL    HW164962  13.099   7.913   3.719 -0.4177 -1.1038  1.0981
17661SOL    HW264963  12.984   7.995   3.665 -0.1754 -0.6474  1.2648
17662SOL     OW64964   5.959  14.039   2.899 -0.2278  0.7453 -0.4725
17662SOL    HW164965   5.906  14.042   2.819  0.7845  2.1319 -1.1351
17662SOL    HW264966   6.042  14.002   2.871 -0.1051  0.5846  0.0973
17663SOL     OW64967   6.807  10.653   7.345  0.1613  0.4695 -0.0127
17663SOL    HW164968   6.804  10.634   7.251  1.4383 -1.3771  0.2685
17663SOL    HW264969   6.721  10.624   7.378  0.2261 -0.2136 -0.4129
17664SOL     OW64970   0.228   5.591   2.019  0.2859  0.0303 -0.2777
17664SOL    HW164971   0.309   5.619   1.978  0.1867  0.9729  0.1328
17664SOL    HW264972   0.253   5.565   2.108  0.1487  0.3068 -0.1555
17665SOL     OW64973   2.870  12.044   3.721 -0.3344 -0.1974  0.2245
17665SOL    HW164974   2.804  12.083   3.663 -0.5950 -0.7074  0.1704
17665SOL    HW264975   2.926  12.117   3.747  0.0265 -0.0216 -0.9821
17666SOL     OW64976  10.864   7.038  12.931  0.5919 -0.2139  0.0400
17666SOL    HW164977  10.841   7.128  12.953 -0.1869  0.0109 -1.5881
17666SOL    HW264978  10.855   7.033  12.836  0.4974 -2.0512  0.1085
17667SOL     OW64979   7.159  10.821  11.481  0.5884 -0.5864 -0.2049
17667SOL    HW164980   7.113  10.901  11.508 -0.4252 -0.7159 -1.4852
17667SOL    HW264981   7.221  10.805  11.552 -0.8699 -0.0311  1.2734
17668SOL     OW64982   9.448   1.074   0.292  0.0223  0.3592 -0.1398
17668SOL    HW164983   9.434   1.026   0.211  2.2659  0.5071 -0.6711
17668SOL    HW264984   9.512   1.022   0.341  1.0851  1.8074  0.0984
17669SOL     OW64985   8.304  12.610   8.539 -0.0815 -0.6638 -0.1742
17669SOL    HW164986   8.272  12.618   8.450 -0.1531  0.0526 -0.0878
17669SOL    HW264987   8.273  12.688   8.584  0.1345 -0.9089  0.4249
17670SOL     OW64988   8.970  13.830   7.845  0.0007 -0.5412 -0.0964
17670SOL    HW164989   8.976  13.768   7.772 -0.7517 -0.6055 -0.1112
17670SOL    HW264990   9.046  13.888   7.834  1.7740 -2.5316  0.9438
17671SOL     OW64991   6.787   6.270   5.490  0.6388 -0.5315 -0.2171
17671SOL    HW164992   6.849   6.341   5.476  0.3730 -0.4660 -1.0648
17671SOL    HW264993   6.702   6.312   5.494  0.6340 -0.6159  1.0004
17672SOL     OW64994   5.070  10.402  10.749  0.4301 -0.2141 -0.1090
17672SOL    HW164995   5.155  10.430  10.714 -0.4676  2.0905 -0.6378
17672SOL    HW264996   5.012  10.402  10.673 -0.6446  0.9431  0.6752
17673SOL     OW64997   8.515   7.021   8.490  0.2125  0.3517  0.0423
17673SOL    HW164998   8.564   7.078   8.430  0.4008  0.0223 -0.1190
17673SOL    HW264999   8.428   7.017   8.452 -0.0153  1.1356  0.4608
17674SOL     OW65000  13.043   3.270   5.737 -0.5640 -0.5447 -0.4361
17674SOL    HW165001  13.116   3.229   5.785 -1.4780  0.0564  1.5789
17674SOL    HW265002  12.991   3.196   5.706 -2.2636 -1.1104  3.2635
17675SOL     OW65003  12.587   9.840   0.370 -0.4073  0.0277  0.5857
17675SOL    HW165004  12.523   9.777   0.404 -0.3809 -0.4821 -0.2816
17675SOL    HW265005  12.672   9.798   0.384 -0.1508  1.0579  2.5075
17676SOL     OW65006   1.410  10.420   4.871 -0.1586  0.4551  0.0724
17676SOL    HW165007   1.440  10.508   4.849 -0.8621  0.1374 -2.3506
17676SOL    HW265008   1.491  10.371   4.885  0.4018  0.6866 -1.9978
17677SOL     OW65009   6.067  10.265  11.735  0.0551 -0.1063  0.6421
17677SOL    HW165010   6.092  10.247  11.826  0.4342  0.3963  0.6441
17677SOL    HW265011   6.103  10.352  11.718 -0.0821 -0.1677  0.0319
17678SOL     OW65012   5.901   4.938   0.778  0.1106  0.3904 -0.1293
17678SOL    HW165013   5.903   4.881   0.855  2.3797 -1.1022 -1.1876
17678SOL    HW265014   5.982   4.989   0.784 -0.1099  0.8657 -1.0989
17679SOL     OW65015   4.925  10.321   7.628  0.3693  0.5099 -0.7346
17679SOL    HW165016   4.978  10.267   7.687 -1.3540 -1.0689 -0.4973
17679SOL    HW265017   4.971  10.404   7.623  1.3883  0.1823  1.6474
17680SOL     OW65018  13.512   1.657   3.264  0.3838  0.2584 -0.5629
17680SOL    HW165019  13.460   1.594   3.315  1.0344 -0.8848 -1.2766
17680SOL    HW265020  13.457   1.677   3.188  0.4148  0.1214 -0.6209
17681SOL     OW65021   8.032   1.014   7.217 -0.1376  0.5337 -0.2202
17681SOL    HW165022   8.066   1.082   7.158 -2.1512  2.3533  0.5851
17681SOL    HW265023   8.025   1.058   7.302 -0.2458 -1.1048  0.6513
17682SOL     OW65024   7.361   6.033   0.041  0.5282 -0.1557  0.4156
17682SOL    HW165025   7.296   6.075   0.097 -0.8302  1.7561 -2.3584
17682SOL    HW265026   7.400   6.105  -0.009  1.1908 -1.7588 -1.5056
17683SOL     OW65027   7.077   6.723   5.956  0.5104 -0.4507  0.2343
17683SOL    HW165028   7.148   6.729   6.021  0.2402 -0.6343  0.5523
17683SOL    HW265029   7.112   6.765   5.878  0.2937  1.1729  0.9757
17684SOL     OW65030   1.612   0.073  13.077  0.1579  0.0470  0.3433
17684SOL    HW165031   1.627   0.042  12.988  0.0862 -0.7780  0.6140
17684SOL    HW265032   1.641   0.164  13.075  0.4189 -0.0407 -0.4484
17685SOL     OW65033   4.955   1.268   6.967 -0.8244 -0.3278  0.2889
17685SOL    HW165034   5.001   1.352   6.970 -0.8366 -0.2903 -0.5803
17685SOL    HW265035   4.908   1.265   7.051 -0.3328  0.2493  0.5937
17686SOL     OW65036  10.380   6.201   1.078  0.3359  0.0311 -0.3153
17686SOL    HW165037  10.303   6.182   1.132 -0.7718 -2.1161 -2.4542
17686SOL    HW265038  10.454   6.167   1.128 -0.4078 -0.1754  0.6624
17687SOL     OW65039   9.341  13.024  11.896  0.0214  0.2852  0.0388
17687SOL    HW165040   9.288  13.014  11.817  0.0192  1.2508 -0.0959
17687SOL    HW265041   9.428  13.048  11.864  0.9157 -2.4052  0.1940
17688SOL     OW65042  11.349   4.164  11.062 -0.1298 -0.1067 -0.4203
17688SOL    HW165043  11.255   4.177  11.066 -0.0059  1.3174 -1.3189
17688SOL    HW265044  11.385   4.229  11.122  0.2898 -0.4515 -0.2888
17689SOL     OW65045  12.756   7.518   2.832  0.7253 -0.0747 -0.3318
17689SOL    HW165046  12.749   7.612   2.852 -1.0559 -0.6820  2.3016
17689SOL    HW265047  12.829   7.488   2.885  0.5604 -0.3772 -0.2764
17690SOL     OW65048   0.754  10.162  13.243 -0.3773  0.0839  0.7507
17690SOL    HW165049   0.767  10.253  13.218 -0.0530 -0.0177  0.5510
17690SOL    HW265050   0.733  10.165  13.337  0.4859  0.2929  0.9422
17691SOL     OW65051   0.368  12.228   5.607  0.3390 -0.2749  0.1986
17691SOL    HW165052   0.348  12.296   5.543 -0.7448  0.9298  1.7294
17691SOL    HW265053   0.289  12.223   5.661  0.8913 -1.8661  0.9162
17692SOL     OW65054   6.606   4.753  11.338 -0.5762  0.3527 -0.0891
17692SOL    HW165055   6.531   4.784  11.388  0.4062  0.5503  1.2955
17692SOL    HW265056   6.654   4.697  11.398  0.0971 -0.2475 -1.1445
17693SOL     OW65057   8.145   8.293  13.784 -0.3801 -0.0658 -0.2729
17693SOL    HW165058   8.106   8.273  13.699  1.3079 -1.5427 -0.7867
17693SOL    HW265059   8.201   8.217  13.802 -0.8321  0.1175  2.2666
17694SOL     OW65060  11.559   9.203   7.023 -0.0060 -0.0473 -0.7236
17694SOL    HW165061  11.558   9.149   7.102 -1.9066  0.2113 -0.5181
17694SOL    HW265062  11.629   9.167   6.969  1.5422 -0.0454  1.1887
17695SOL     OW65063  13.681   0.166   2.092 -0.3838 -0.2784 -0.1736
17695SOL    HW165064  13.729   0.209   2.164  1.3500 -3.7758  0.9945
17695SOL    HW265065  13.742   0.168   2.018 -0.5657 -0.1635 -0.3208
17696SOL     OW65066   5.580   2.639   7.338  0.5297 -0.1804  0.2579
17696SOL    HW165067   5.594   2.603   7.425 -0.0987  0.5806  0.6862
17696SOL    HW265068   5.632   2.720   7.337  2.0330 -1.1007 -0.7322
17697SOL     OW65069  10.599  11.872   3.003  0.2717  0.7603 -0.1418
17697SOL    HW165070  10.658  11.819   3.056  1.3663  1.1720 -0.9126
17697SOL    HW265071  10.642  11.878   2.918 -1.7250 -0.4064 -1.3172
17698SOL     OW65072   1.387  12.920   7.393 -0.0886  0.6737 -0.0874
17698SOL    HW165073   1.411  12.896   7.482 -0.0223 -0.5487 -0.4091
17698SOL    HW265074   1.448  12.872   7.337 -0.9281  0.4074 -0.8147
17699SOL     OW65075   9.451   9.881  12.730  0.1052 -0.2121  0.4173
17699SOL    HW165076   9.505   9.803  12.715 -0.7029 -0.9067  1.0531
17699SOL    HW265077   9.443   9.887  12.825  0.4480  0.8633  0.3964
17700SOL     OW65078  13.303   2.772   5.166  0.0126  0.4454 -0.0887
17700SOL    HW165079  13.292   2.697   5.223 -1.3407 -0.6017 -1.6221
17700SOL    HW265080  13.396   2.773   5.143  0.1280 -0.4635  0.3276
17701SOL     OW65081   4.091   9.852  13.343 -0.1124  0.2101  0.1623
17701SOL    HW165082   4.079   9.885  13.253 -2.3951 -1.0998 -0.1011
17701SOL    HW265083   4.184   9.863  13.360  0.6674 -0.5857 -2.8402
17702SOL     OW65084   0.579   7.899   3.625 -1.2146  0.1368 -0.1331
17702SOL    HW165085   0.621   7.982   3.649  0.9989 -0.8107 -0.5079
17702SOL    HW265086   0.607   7.883   3.535 -0.9057 -1.4159  0.2127
17703SOL     OW65087   7.722   3.649   8.619  0.3734  0.2218  0.1912
17703SOL    HW165088   7.778   3.576   8.642  0.8138  0.1598 -0.9747
17703SOL    HW265089   7.727   3.653   8.523 -1.4845  0.3172  0.0651
17704SOL     OW65090   0.704   1.361   7.632 -0.5528  0.9990  0.1649
17704SOL    HW165091   0.797   1.369   7.610 -0.5191  2.3739  0.7235
17704SOL    HW265092   0.690   1.266   7.639  0.6962  0.7488 -0.3394
17705SOL     OW65093  13.289   2.681   8.508 -0.0016  0.2043  0.2261
17705SOL    HW165094  13.218   2.693   8.572 -0.6879 -1.7297 -0.1160
17705SOL    HW265095  13.314   2.770   8.483  0.2398  1.0382  3.1057
17706SOL     OW65096   6.665  11.623   5.974 -0.2528  0.5260 -0.4947
17706SOL    HW165097   6.634  11.672   5.897 -1.2778  0.4174 -0.1666
17706SOL    HW265098   6.667  11.688   6.044 -0.7414  0.3095 -0.2729
17707SOL     OW65099   5.921   2.544   3.974  0.2403  0.1469  0.6416
17707SOL    HW165100   5.985   2.573   3.909 -0.0513  0.4092  0.4684
17707SOL    HW265101   5.842   2.527   3.924 -0.4285  1.7528  1.0906
17708SOL     OW65102   5.189   2.636   8.839  0.3177  0.1033 -0.2156
17708SOL    HW165103   5.152   2.556   8.803  0.5974 -0.8102  1.4368
17708SOL    HW265104   5.145   2.707   8.792 -1.4982 -0.9778 -0.2124
17709SOL     OW65105   0.023   1.511  12.625 -0.1253 -0.2685 -0.4310
17709SOL    HW165106   0.048   1.591  12.671 -0.8826 -0.7423  0.8692
17709SOL    HW265107  -0.033   1.541  12.554 -0.0169  0.3998 -0.2415
17710SOL     OW65108   8.316   1.175   6.461 -0.3914 -0.4458  0.2124
17710SOL    HW165109   8.397   1.132   6.434 -0.8837 -1.8452  0.8666
17710SOL    HW265110   8.300   1.143   6.549 -0.9687  0.8607  0.6087
17711SOL     OW65111   4.154  13.489  13.573  0.5861 -0.0598  0.7178
17711SOL    HW165112   4.151  13.565  13.514  0.7320 -0.3991  0.2629
17711SOL    HW265113   4.199  13.521  13.651  0.2169  0.4519  0.7251
17712SOL     OW65114   1.423  13.610   6.266  0.6221 -0.2260 -0.1806
17712SOL    HW165115   1.428  13.641   6.176  2.1307 -0.2606 -0.1324
17712SOL    HW265116   1.508  13.631   6.304  0.8502 -2.2395  0.5622
17713SOL     OW65117   4.066   9.870  10.860 -0.3250 -0.7368 -0.7475
17713SOL    HW165118   4.078   9.777  10.843  0.9793 -1.0251  1.3836
17713SOL    HW265119   4.114   9.914  10.789  0.0749 -1.7051 -1.0899
17714SOL     OW65120   3.602  12.117   0.428 -0.3342  0.0304 -0.9931
17714SOL    HW165121   3.636  12.110   0.338  0.9534 -0.4207 -0.4871
17714SOL    HW265122   3.574  12.028   0.450  0.6427 -0.1539 -0.4608
17715SOL     OW65123   7.719   5.874   6.941  0.6629 -0.0253  0.0906
17715SOL    HW165124   7.800   5.922   6.956  0.5655  0.3813 -0.6374
17715SOL    HW265125   7.715   5.810   7.012  1.2817  0.3980  0.5138
17716SOL     OW65126  11.887   9.795  12.753  0.2605 -0.1772  0.4818
17716SOL    HW165127  11.840   9.749  12.823  0.5882  0.1274  0.9038
17716SOL    HW265128  11.854   9.755  12.673  0.3730 -0.9978  0.8318
17717SOL     OW65129   2.437  10.537  10.868  0.8388  0.0400 -0.5433
17717SOL    HW165130   2.520  10.574  10.839  1.5763 -0.4755  0.8163
17717SOL    HW265131   2.375  10.610  10.863  2.0989  1.3446  1.3862
17718SOL     OW65132   2.047  13.656  11.453  0.7762 -0.1070 -0.1462
17718SOL    HW165133   2.063  13.575  11.502 -0.0782  0.1493  0.5720
17718SOL    HW265134   2.042  13.627  11.362 -1.0015 -1.1325  0.2151
17719SOL     OW65135   7.830   4.166  11.912  0.1197 -0.3655  0.0747
17719SOL    HW165136   7.842   4.071  11.923 -0.4947 -0.2454  2.4917
17719SOL    HW265137   7.851   4.202  11.998  0.5998  1.7535 -0.8721
17720SOL     OW65138   2.172  11.717  12.317  0.6281 -0.0820 -0.6651
17720SOL    HW165139   2.150  11.728  12.409 -0.8957  0.5191 -1.0640
17720SOL    HW265140   2.087  11.708  12.273  1.3036  0.0151 -2.0398
17721SOL     OW65141  10.777   4.274   0.733  0.2578 -0.3737  0.2208
17721SOL    HW165142  10.735   4.200   0.779 -0.1058  0.6106  1.5396
17721SOL    HW265143  10.855   4.293   0.785  1.2751 -0.8747 -1.0685
17722SOL     OW65144   7.287   3.962   7.894  0.1741  0.5140 -0.1310
17722SOL    HW165145   7.264   4.043   7.940  1.6569  1.0906 -0.3568
17722SOL    HW265146   7.368   3.983   7.847  0.4844 -1.0499 -0.3454
17723SOL     OW65147   8.464   0.229   9.846  0.4057 -0.0179 -0.4294
17723SOL    HW165148   8.558   0.246   9.857  0.2402  0.0148  1.2618
17723SOL    HW265149   8.447   0.154   9.902 -0.5671 -0.0960 -0.8111
17724SOL     OW65150   3.699   6.232   2.465  0.1255  0.4496  0.3305
17724SOL    HW165151   3.650   6.282   2.530 -0.0776  1.8476 -0.8526
17724SOL    HW265152   3.753   6.172   2.517 -1.7251 -0.1232  1.7007
17725SOL     OW65153   1.367   0.036   3.462  0.6072 -0.4644 -0.4305
17725SOL    HW165154   1.403   0.040   3.374 -0.8276  0.6830 -0.9994
17725SOL    HW265155   1.278   0.003   3.450  0.9582 -2.0027  0.8014
17726SOL     OW65156   5.509  13.761   8.728  0.1664  0.0625 -0.3146
17726SOL    HW165157   5.437  13.812   8.765 -0.0641  0.1810 -0.9078
17726SOL    HW265158   5.466  13.694   8.674  0.4146 -1.4722  1.2810
17727SOL     OW65159  12.570   0.273   2.169 -0.3096 -0.2458 -0.2563
17727SOL    HW165160  12.559   0.332   2.243 -2.6745  1.1865 -1.6149
17727SOL    HW265161  12.621   0.323   2.105 -0.4044 -0.5376 -0.5636
17728SOL     OW65162   2.929  10.134   6.296 -0.5250  0.3940 -0.1206
17728SOL    HW165163   3.002  10.073   6.282 -0.8885  0.3369 -2.0736
17728SOL    HW265164   2.908  10.166   6.208  0.0262  3.8342  0.8759
17729SOL     OW65165   3.120   7.671   2.823  0.9858  0.0309  0.3945
17729SOL    HW165166   3.036   7.644   2.786  1.3889  1.4317 -1.7303
17729SOL    HW265167   3.166   7.589   2.840  0.2223 -0.7180 -0.9799
17730SOL     OW65168   3.899   2.513   0.510  0.1776  0.0944 -0.2130
17730SOL    HW165169   3.981   2.492   0.554  0.4669  1.1890 -0.2122
17730SOL    HW265170   3.833   2.461   0.557  1.0143 -1.8503 -1.0728
17731SOL     OW65171   4.812  11.442   2.901  0.1984 -0.2243  0.8467
17731SOL    HW165172   4.812  11.537   2.911 -0.1092 -0.1904  0.5412
17731SOL    HW265173   4.750  11.425   2.830  1.6913 -0.5155 -0.4409
17732SOL     OW65174   5.776  13.809   7.788 -0.0376  0.4944  0.4881
17732SOL    HW165175   5.863  13.844   7.803 -0.4342  1.9107 -0.3191
17732SOL    HW265176   5.718  13.885   7.789 -1.3079 -0.4343  1.2441
17733SOL     OW65177  11.345  11.485   3.341 -0.8181 -0.2970 -0.0142
17733SOL    HW165178  11.346  11.578   3.360 -1.6320 -0.4449  0.7910
17733SOL    HW265179  11.293  11.477   3.261 -1.9185 -0.1853  0.6779
17734SOL     OW65180   4.898   2.044   9.771  0.3910 -0.2295 -0.5029
17734SOL    HW165181   4.843   2.002   9.837  1.9145 -3.0939 -0.9080
17734SOL    HW265182   4.985   2.044   9.809  1.0187 -0.4898 -1.8994
17735SOL     OW65183  13.496   0.122   6.439 -0.1829  0.6008  0.6676
17735SOL    HW165184  13.517   0.061   6.510  0.2302  0.3039  0.2919
17735SOL    HW265185  13.532   0.206   6.468  0.4208  0.3730  0.5925
17736SOL     OW65186   5.639   3.316  12.837 -0.4415 -0.1516  0.1857
17736SOL    HW165187   5.702   3.245  12.828  0.0044  0.0252  1.6423
17736SOL    HW265188   5.609   3.310  12.927 -0.3564  1.5337  0.3607
17737SOL     OW65189   8.858   9.872   3.080  0.5845  0.4156 -0.5499
17737SOL    HW165190   8.825   9.932   3.013  0.5158 -1.0551 -1.9133
17737SOL    HW265191   8.946   9.903   3.099  0.1462  1.5993 -0.3849
17738SOL     OW65192  13.371   6.481   6.582  0.6267  0.1227 -0.1998
17738SOL    HW165193  13.400   6.392   6.562  0.5350  0.0432  0.0191
17738SOL    HW265194  13.363   6.483   6.678 -1.8795 -0.4377 -0.3226
17739SOL     OW65195   4.647   0.572   3.121  0.1890 -0.1230  0.1169
17739SOL    HW165196   4.654   0.481   3.149  0.3132  0.0328  0.5979
17739SOL    HW265197   4.635   0.621   3.202  2.8933  0.5835  0.1747
17740SOL     OW65198   8.235   5.966   1.930 -0.0884  0.6041 -0.4520
17740SOL    HW165199   8.313   5.939   1.883 -0.7130 -0.0811 -1.1351
17740SOL    HW265200   8.183   5.885   1.938 -0.9094  1.1235 -0.3912
17741SOL     OW65201   3.337   3.379   3.801  0.4396 -0.1735 -0.1348
17741SOL    HW165202   3.349   3.467   3.764  1.0075 -0.3773 -0.4288
17741SOL    HW265203   3.252   3.384   3.845 -0.0166  0.2246 -1.0243
17742SOL     OW65204   7.154   2.512   1.595  0.5271 -0.2297 -0.0418
17742SOL    HW165205   7.070   2.548   1.566  0.2570 -0.3285  0.6131
17742SOL    HW265206   7.171   2.441   1.533  0.1313 -0.2075 -0.1815
17743SOL     OW65207   5.096   2.808   7.266  0.0629 -0.0562 -0.1034
17743SOL    HW165208   5.118   2.835   7.177 -1.8286 -0.9673 -0.8947
17743SOL    HW265209   5.109   2.713   7.267 -1.4240 -0.2802  0.0913
17744SOL     OW65210  12.965  10.101  11.383 -0.0765 -0.1361  0.7109
17744SOL    HW165211  12.979  10.049  11.304  1.4243 -0.6451  1.2678
17744SOL    HW265212  13.050  10.099  11.428  0.4242  3.7154  0.2623
17745SOL     OW65213   3.299   1.721   2.407 -0.0523 -0.1505 -0.6204
17745SOL    HW165214   3.379   1.768   2.385 -0.3949  0.8430  0.1705
17745SOL    HW265215   3.231   1.788   2.404 -0.5206 -0.5402  0.8065
17746SOL     OW65216   0.343   6.143   6.562  0.6649  0.0308  0.3802
17746SOL    HW165217   0.309   6.189   6.638 -0.0461 -1.6376  1.1114
17746SOL    HW265218   0.429   6.182   6.547 -0.3741  2.4326  0.1723
17747SOL     OW65219   9.742  10.535   8.792  0.2907  0.0213  0.4905
17747SOL    HW165220   9.709  10.594   8.860 -0.6308 -0.1671  0.2250
17747SOL    HW265221   9.686  10.457   8.799  0.6296 -0.2732 -0.0344
17748SOL     OW65222   1.032   5.214   5.724  0.2331  0.1159  0.2093
17748SOL    HW165223   1.122   5.185   5.739  1.7888  2.6106 -3.0695
17748SOL    HW265224   0.989   5.138   5.686  1.8632 -0.3169 -0.8986
17749SOL     OW65225   0.253   8.660   9.136 -0.7850 -0.2520  0.0059
17749SOL    HW165226   0.241   8.658   9.041  0.5874 -0.4855 -0.1802
17749SOL    HW265227   0.283   8.572   9.158 -0.5882 -0.0411  0.5777
17750SOL     OW65228  13.255  13.794   0.646  0.2191  0.5605  0.3420
17750SOL    HW165229  13.334  13.795   0.700  1.0929  0.9664 -0.8726
17750SOL    HW265230  13.245  13.703   0.619 -1.2679 -0.0075  2.5743
17751SOL     OW65231  11.534   1.508   4.955  0.4718 -0.0227 -0.1295
17751SOL    HW165232  11.613   1.551   4.987  0.2218  0.5097 -0.2083
17751SOL    HW265233  11.483   1.488   5.033 -0.0477  1.0955 -0.1550
17752SOL     OW65234   6.015   4.681  12.905 -0.6089 -0.2222  0.2507
17752SOL    HW165235   6.097   4.683  12.855 -1.2659  0.3238 -0.8378
17752SOL    HW265236   6.035   4.729  12.986  0.1580 -0.1421  0.0213
17753SOL     OW65237  11.500   5.027   7.436 -0.2806 -0.9851 -0.0395
17753SOL    HW165238  11.578   5.016   7.382 -0.6837 -0.3183 -0.7666
17753SOL    HW265239  11.534   5.029   7.526  0.8206  1.3655 -0.4161
17754SOL     OW65240   9.154  13.996  12.583  0.2208  0.7281  0.3647
17754SOL    HW165241   9.156  14.036  12.670 -2.5545 -0.2618  1.0013
17754SOL    HW265242   9.089  14.047  12.535 -0.6946 -0.7183  0.0002
17755SOL     OW65243   6.784  13.802  11.397 -0.1285 -0.0613 -0.0221
17755SOL    HW165244   6.870  13.774  11.430 -0.3886  1.2973  1.9993
17755SOL    HW265245   6.802  13.833  11.308  1.1680 -1.1940 -0.2071
17756SOL     OW65246   7.921   9.336   9.324  0.2310 -0.0115  0.2241
17756SOL    HW165247   7.869   9.263   9.292  0.0320  0.5775 -0.8488
17756SOL    HW265248   7.894   9.410   9.270 -0.0653  1.0183  1.7299
17757SOL     OW65249   0.659  10.078   7.329  0.0226 -0.5752  1.0442
17757SOL    HW165250   0.686  10.161   7.291 -0.3787 -0.5908  0.7235
17757SOL    HW265251   0.573  10.095   7.367 -0.3674 -1.0113  0.3827
17758SOL     OW65252   5.601   0.326   4.954  0.2187 -0.1203  0.5368
17758SOL    HW165253   5.675   0.328   5.015 -0.7148  0.7200  1.6804
17758SOL    HW265254   5.551   0.405   4.974 -1.5040 -1.1344  0.4432
17759SOL     OW65255  13.914  10.124   8.619  0.1816  0.0952 -0.3853
17759SOL    HW165256  13.923  10.037   8.658  1.4779  0.5033  0.2663
17759SOL    HW265257  13.822  10.129   8.594  0.2925 -1.8572 -1.4001
17760SOL     OW65258   3.626  10.257   7.192 -0.3357 -0.0791  0.0395
17760SOL    HW165259   3.712  10.245   7.152 -0.8092 -0.5517 -0.8912
17760SOL    HW265260   3.602  10.169   7.223 -1.0400 -0.2620 -0.9365
17761SOL     OW65261   1.420  13.972  13.867  0.5130 -0.4932 -0.0351
17761SOL    HW165262   1.392  13.922  13.943  1.6497 -1.2021 -0.0589
17761SOL    HW265263   1.495  14.023  13.898  0.2026  0.1775 -0.3645
17762SOL     OW65264   7.348   0.893  12.143 -0.5367 -0.4374  0.6792
17762SOL    HW165265   7.296   0.861  12.217  0.9372 -1.9081  1.1231
17762SOL    HW265266   7.438   0.896  12.176 -0.3342  2.7899  0.1814
17763SOL     OW65267   4.420  10.393  13.949 -0.5922  0.0187  0.0415
17763SOL    HW165268   4.461  10.472  13.984 -0.9407  0.3025 -0.1760
17763SOL    HW265269   4.333  10.392  13.990 -1.5519  1.1255 -1.8531
17764SOL     OW65270  12.190  10.846  13.292 -0.1370 -0.8306  0.0491
17764SOL    HW165271  12.270  10.895  13.272  0.7028 -1.9991  0.4483
17764SOL    HW265272  12.188  10.842  13.388 -0.5556 -1.0022  0.0347
17765SOL     OW65273   3.619   2.646   5.234 -0.3017 -0.5484 -0.2633
17765SOL    HW165274   3.636   2.627   5.142 -0.9894  0.3361 -0.5789
17765SOL    HW265275   3.616   2.560   5.276 -1.2538 -1.0364 -1.2962
17766SOL     OW65276  13.171   0.408   2.682  1.1687  0.1201  0.0328
17766SOL    HW165277  13.126   0.429   2.764  0.6537 -1.1350  0.0944
17766SOL    HW265278  13.100   0.399   2.618  1.3967 -0.9758 -0.0746
17767SOL     OW65279   8.484   2.324   6.262 -0.1239 -0.4306  0.2464
17767SOL    HW165280   8.438   2.361   6.186 -0.3504 -1.5543 -0.1810
17767SOL    HW265281   8.539   2.396   6.294 -0.0361  0.0742 -0.9710
17768SOL     OW65282   5.448  13.776   3.227 -0.0002 -0.0963 -0.0808
17768SOL    HW165283   5.535  13.781   3.187 -1.4685  2.9564 -3.4800
17768SOL    HW265284   5.434  13.864   3.263 -1.0845 -1.0749  2.0271
17769SOL     OW65285   5.950   9.830  10.774  0.3324  0.2571  0.4755
17769SOL    HW165286   5.894   9.902  10.746 -0.2352  0.4108  1.9026
17769SOL    HW265287   6.003   9.867  10.845  0.1853 -0.6675  1.0835
17770SOL     OW65288   5.435   7.403  12.493  0.0479  0.2076 -0.9949
17770SOL    HW165289   5.413   7.420  12.402  2.2145 -0.0906 -1.6337
17770SOL    HW265290   5.505   7.337  12.490 -0.2840 -0.3167  0.9113
17771SOL     OW65291  12.841   0.413  13.363  0.1370 -0.5674 -0.0819
17771SOL    HW165292  12.800   0.362  13.292 -0.4444  0.6715 -0.6558
17771SOL    HW265293  12.848   0.502  13.328 -1.4235  0.4047  1.8988
17772SOL     OW65294   1.378   3.994  11.107 -0.1080  0.1614 -0.6237
17772SOL    HW165295   1.409   4.082  11.084 -1.9847  1.3021  0.8711
17772SOL    HW265296   1.385   3.990  11.203 -0.4853 -1.1500 -0.6307
17773SOL     OW65297  12.122   8.271  11.968 -0.6803 -0.4779  0.0669
17773SOL    HW165298  12.104   8.359  11.934 -0.3696 -0.7997 -0.9769
17773SOL    HW265299  12.069   8.213  11.913 -0.2438 -1.0107  0.2052
17774SOL     OW65300   6.555   0.719   5.462 -0.4144  0.3933  0.3193
17774SOL    HW165301   6.591   0.806   5.474  0.1839  0.0836  0.8632
17774SOL    HW265302   6.460   0.732   5.457 -0.3471  1.0413  0.6970
17775SOL     OW65303  10.853   0.587   7.355 -0.3168 -0.0272 -0.0574
17775SOL    HW165304  10.836   0.527   7.282  0.4024  0.3547 -0.5491
17775SOL    HW265305  10.837   0.534   7.433 -1.7546 -0.2532 -0.4700
17776SOL     OW65306   3.747  11.533   9.070  0.0165 -0.0766 -0.8798
17776SOL    HW165307   3.704  11.544   9.155 -0.0466  1.4961 -1.0880
17776SOL    HW265308   3.799  11.453   9.080 -2.1046 -1.4938 -0.2768
17777SOL     OW65309   7.429  12.244   7.594  0.0380 -0.2875 -0.2713
17777SOL    HW165310   7.404  12.255   7.502 -0.3585  0.3766 -0.0876
17777SOL    HW265311   7.519  12.275   7.599 -1.1267  3.5212  0.2995
17778SOL     OW65312   1.827   3.144   5.914  0.1218  0.1424  0.1076
17778SOL    HW165313   1.802   3.114   5.827  0.8412  1.3005 -0.5277
17778SOL    HW265314   1.919   3.119   5.923  0.3029  0.8074  0.1656
17779SOL     OW65315  13.246   8.018  10.795 -0.4745  0.2231 -0.2970
17779SOL    HW165316  13.283   7.982  10.715 -3.2179 -1.2361 -1.0510
17779SOL    HW265317  13.296   7.977  10.866  0.9202  0.2829 -1.2103
17780SOL     OW65318   9.050   2.245   0.242 -0.2650 -0.1753 -0.2428
17780SOL    HW165319   9.108   2.320   0.253  0.0382 -0.6378  1.8985
17780SOL    HW265320   9.076   2.205   0.159  1.7132  0.2820  0.1093
17781SOL     OW65321   9.879   4.547   5.041  0.2234  0.7011 -0.0031
17781SOL    HW165322   9.847   4.474   5.094 -1.1280  1.2379 -0.0530
17781SOL    HW265323   9.802   4.602   5.026  0.7879  1.0851 -1.6773
17782SOL     OW65324   7.324  12.388  13.515  0.4032  0.2585 -0.0458
17782SOL    HW165325   7.367  12.335  13.447  2.5098  1.9659 -0.1566
17782SOL    HW265326   7.333  12.336  13.595  1.3165 -0.1116 -0.3776
17783SOL     OW65327  13.202  12.712  10.556  0.3163  0.1285 -0.1776
17783SOL    HW165328  13.297  12.703  10.550  0.2920  0.0888 -0.5233
17783SOL    HW265329  13.176  12.750  10.473 -0.1560 -1.5285 -0.8345
17784SOL     OW65330   4.364   0.887   0.294  0.4234 -0.1488  0.1256
17784SOL    HW165331   4.410   0.809   0.323 -0.2968 -0.5513  0.1975
17784SOL    HW265332   4.299   0.856   0.231 -0.5709  0.2529  0.9343
17785SOL     OW65333   8.804   9.117  13.876 -0.3452  0.1762  0.7653
17785SOL    HW165334   8.764   9.092  13.959 -1.3121 -0.9417  0.0057
17785SOL    HW265335   8.765   9.201  13.854 -1.8384 -0.5869  0.3644
17786SOL     OW65336  11.781  13.380  11.483 -0.3473 -0.0172  0.0297
17786SOL    HW165337  11.823  13.446  11.539 -0.3829 -0.2562  0.3413
17786SOL    HW265338  11.728  13.329  11.543  0.9237 -1.3541  0.0739
17787SOL     OW65339  11.724   2.136  10.137  0.2472  0.1744  0.3615
17787SOL    HW165340  11.700   2.043  10.128  1.9297 -0.2887  0.1942
17787SOL    HW265341  11.645   2.178  10.169 -1.2165 -0.9479 -1.5345
17788SOL     OW65342   9.947   7.968   5.350 -0.1773 -0.1410  0.1069
17788SOL    HW165343   9.991   8.027   5.288  0.6041 -0.0817  0.7049
17788SOL    HW265344  10.015   7.905   5.375 -0.6456 -0.5063  0.4750
17789SOL     OW65345   6.205  11.873  10.762  0.5189  0.0998  0.3512
17789SOL    HW165346   6.112  11.866  10.785  0.3222 -0.8535 -0.6071
17789SOL    HW265347   6.224  11.791  10.716  1.7714  0.3979  0.3032
17790SOL     OW65348   1.823   1.634   4.354  0.1117 -0.4276  0.0681
17790SOL    HW165349   1.778   1.645   4.271 -2.4671  0.3439  1.4653
17790SOL    HW265350   1.892   1.700   4.353  1.3585 -1.6432 -2.1372
17791SOL     OW65351  13.356   7.721   4.492  0.0328 -0.3098 -0.2670
17791SOL    HW165352  13.321   7.632   4.492 -0.0988 -0.2588  0.1680
17791SOL    HW265353  13.315   7.763   4.416 -0.9679 -0.2058  0.3203
17792SOL     OW65354   0.479   4.641   3.650 -0.4969  0.1827  0.4899
17792SOL    HW165355   0.493   4.549   3.629  0.7060  0.3899  0.3487
17792SOL    HW265356   0.407   4.668   3.593 -0.9588 -0.6877  0.6291
17793SOL     OW65357  13.733   4.940   9.950  0.0191 -0.2877  0.3443
17793SOL    HW165358  13.638   4.930   9.946 -0.2112  1.9571 -1.5706
17793SOL    HW265359  13.751   4.954  10.043 -1.5533 -0.3949  0.6914
17794SOL     OW65360   7.624  10.172   9.777  0.2127 -0.0478 -0.5622
17794SOL    HW165361   7.555  10.194   9.839 -1.0437  0.9907 -2.2712
17794SOL    HW265362   7.660  10.256   9.750  0.7901 -0.4931 -1.2043
17795SOL     OW65363  11.803   8.370   1.934 -0.3118 -0.3178 -0.5556
17795SOL    HW165364  11.836   8.398   2.019  0.2889  1.0088 -1.2070
17795SOL    HW265365  11.750   8.443   1.903 -0.4001 -0.7201 -1.3970
17796SOL     OW65366  10.546   2.354   6.984 -0.0165  0.2676 -0.3270
17796SOL    HW165367  10.521   2.350   6.891  2.1285  1.2329 -1.0368
17796SOL    HW265368  10.642   2.350   6.982  0.0495 -0.3928  1.9284
17797SOL     OW65369  13.077   9.779  11.873 -0.0405  0.1714 -0.4122
17797SOL    HW165370  12.984   9.774  11.852  0.1456 -0.1667 -1.1791
17797SOL    HW265371  13.093   9.704  11.930 -0.1535  0.0067 -0.5985
17798SOL     OW65372   7.744   4.292   5.653 -0.0689  0.0067 -0.1941
17798SOL    HW165373   7.826   4.325   5.617 -0.1699  0.0400 -0.3958
17798SOL    HW265374   7.679   4.309   5.584 -0.1045 -0.7096 -0.3372
17799SOL     OW65375   0.471   3.052  10.845  0.5563 -0.1471  0.0790
17799SOL    HW165376   0.420   2.990  10.793  0.2565 -0.4135  0.6773
17799SOL    HW265377   0.478   3.011  10.931  1.1257  0.2421  0.2272
17800SOL     OW65378   6.884   2.815   8.108 -0.5501  0.0181 -0.8237
17800SOL    HW165379   6.951   2.805   8.039 -0.1201  0.4246 -0.4737
17800SOL    HW265380   6.801   2.805   8.062 -0.2972  1.1434 -1.5615
17801SOL     OW65381   6.933   0.615  12.471 -0.4915 -0.7835  0.1470
17801SOL    HW165382   6.936   0.705  12.505 -1.3864 -0.7255  0.0832
17801SOL    HW265383   7.017   0.577  12.497 -0.7932 -0.4669  1.6912
17802SOL     OW65384  13.211   7.480  12.068 -0.4984  0.1516  0.4186
17802SOL    HW165385  13.244   7.554  12.119  0.5557  0.0218 -0.0461
17802SOL    HW265386  13.230   7.503  11.977 -3.3318  0.8700 -0.0824
17803SOL     OW65387  11.330   5.456  12.058 -0.3027 -0.0396  0.1197
17803SOL    HW165388  11.291   5.414  12.135 -0.1596 -0.0907  0.1652
17803SOL    HW265389  11.255   5.482  12.004 -0.3978 -0.1981  0.1737
17804SOL     OW65390   6.032   9.495   3.821 -0.2605 -0.5895  0.0174
17804SOL    HW165391   6.110   9.450   3.789 -0.5555  0.1442 -1.8577
17804SOL    HW265392   5.962   9.431   3.810 -0.3469 -0.3667 -0.7691
17805SOL     OW65393   6.768   7.983   2.425 -0.3229 -0.3203  0.5810
17805SOL    HW165394   6.799   8.042   2.493  3.0251 -0.3505 -0.7543
17805SOL    HW265395   6.826   7.907   2.430 -0.7978 -0.8922 -1.4560
17806SOL     OW65396   1.219   6.036   8.390  0.0578 -0.4863  0.1634
17806SOL    HW165397   1.128   6.051   8.363  0.9346  2.8010 -1.4890
17806SOL    HW265398   1.271   6.060   8.313  2.4012  0.4781  1.9299
17807SOL     OW65399   6.822   6.902   0.076 -0.1146  0.1465 -0.1825
17807SOL    HW165400   6.802   6.821   0.029 -0.1617 -0.6099  1.0883
17807SOL    HW265401   6.907   6.885   0.117 -0.7033  0.2658  1.1110
17808SOL     OW65402   8.195  10.914   4.321  0.6592  0.3142  0.5353
17808SOL    HW165403   8.199  11.006   4.296 -0.9405 -0.1241 -1.5924
17808SOL    HW265404   8.139  10.913   4.399 -1.2547  0.9740 -0.7579
17809SOL     OW65405   1.189   6.112   1.718 -0.1030 -0.2558  0.2519
17809SOL    HW165406   1.253   6.181   1.732  0.6869 -1.3110  2.3884
17809SOL    HW265407   1.178   6.108   1.623  1.5577  1.2395 -0.0594
17810SOL     OW65408   9.535  10.726   1.844  0.1219 -0.0186 -0.2421
17810SOL    HW165409   9.556  10.634   1.828 -0.3020 -0.0510 -0.6311
17810SOL    HW265410   9.475  10.750   1.774  0.1946  0.5460 -0.1204
17811SOL     OW65411  13.460  13.206   3.327 -0.3614 -0.0803 -0.7930
17811SOL    HW165412  13.467  13.114   3.304  0.6837 -0.0826 -0.5401
17811SOL    HW265413  13.548  13.229   3.358 -1.3431  0.1816  2.1459
17812SOL     OW65414   8.030   3.417  12.873  0.5151 -0.0938  0.3848
17812SOL    HW165415   8.092   3.377  12.935  1.4443 -0.3036 -0.6630
17812SOL    HW265416   8.082   3.435  12.795 -0.4713  0.8795 -0.0724
17813SOL     OW65417   5.445  11.784  12.692  0.4335  0.0200  0.1649
17813SOL    HW165418   5.452  11.877  12.672  0.1741  0.6160  2.5366
17813SOL    HW265419   5.529  11.747  12.665  0.1760  0.6996 -1.7312
17814SOL     OW65420   8.148   2.174   1.160 -0.6340  0.1927 -0.2871
17814SOL    HW165421   8.091   2.211   1.093 -1.6971 -3.0710 -1.3557
17814SOL    HW265422   8.205   2.114   1.112 -0.2025 -0.8817  1.4981
17815SOL     OW65423   5.217   4.237   7.543  0.0698  0.1847  0.4654
17815SOL    HW165424   5.143   4.226   7.603 -0.8551  0.6207 -0.5596
17815SOL    HW265425   5.237   4.330   7.547  0.1181  0.1840  0.2220
17816SOL     OW65426   2.997   9.875   5.799 -0.2855 -0.1010  0.0170
17816SOL    HW165427   3.077   9.825   5.811 -0.5544 -0.6051 -0.2727
17816SOL    HW265428   2.937   9.815   5.755  0.1147  1.1091 -2.3811
17817SOL     OW65429  13.099   6.166   1.389 -0.3509 -0.3109 -0.6289
17817SOL    HW165430  13.081   6.117   1.469 -1.7571  0.2493 -0.5824
17817SOL    HW265431  13.144   6.103   1.332  2.1851 -0.2695  1.1408
17818SOL     OW65432   2.739   5.413   3.758 -0.2966  0.4709 -0.3658
17818SOL    HW165433   2.812   5.426   3.819 -0.6381 -0.9567  0.3865
17818SOL    HW265434   2.670   5.471   3.792 -0.4714 -0.2806  0.6070
17819SOL     OW65435  12.408   5.439  12.988  0.5758 -0.7911 -0.0264
17819SOL    HW165436  12.376   5.468  12.903 -0.0052  0.9348  0.7271
17819SOL    HW265437  12.340   5.466  13.050  1.9957  0.0920  1.2390
17820SOL     OW65438   6.515   0.343  13.380 -0.1277 -0.1833  0.0864
17820SOL    HW165439   6.455   0.288  13.431  0.5758 -0.2841  0.8413
17820SOL    HW265440   6.577   0.281  13.341 -0.3984 -0.0659 -0.5429
17821SOL     OW65441   2.754  11.730   4.330 -0.0448  0.1407  0.4435
17821SOL    HW165442   2.671  11.735   4.376  0.3304 -1.3223  1.3380
17821SOL    HW265443   2.730  11.731   4.237 -1.1009 -0.7303  0.6858
17822SOL     OW65444   6.827   7.444   0.968 -0.0258 -0.6794  0.1170
17822SOL    HW165445   6.827   7.439   1.063  0.3154 -0.7360  0.1156
17822SOL    HW265446   6.743   7.486   0.946 -0.2628 -0.9935  0.4205
17823SOL     OW65447  11.411   0.371  12.998 -0.5047  0.1601  0.2610
17823SOL    HW165448  11.389   0.362  13.090  0.1341  1.1708  0.5358
17823SOL    HW265449  11.339   0.329  12.951 -1.2191  0.3140  1.2016
17824SOL     OW65450  11.777   7.832  10.785  0.5484  0.0182 -0.1908
17824SOL    HW165451  11.809   7.751  10.745  2.0820  0.0990  0.7976
17824SOL    HW265452  11.843   7.854  10.851 -0.9657  0.8774  1.1111
17825SOL     OW65453  11.025  12.677   0.263 -0.8678 -0.2489 -0.4068
17825SOL    HW165454  11.055  12.733   0.334 -0.1636  0.4690 -1.2406
17825SOL    HW265455  10.995  12.597   0.306 -0.8208  0.3151  0.7150
17826SOL     OW65456   8.106   9.685   2.005 -0.4297  0.7424 -0.0615
17826SOL    HW165457   8.139   9.596   2.006 -0.8767  0.5705 -0.1472
17826SOL    HW265458   8.107   9.713   2.097 -1.7500  0.0871  0.1795
17827SOL     OW65459   9.303   3.921   5.361  0.0644 -0.1237  0.5320
17827SOL    HW165460   9.380   3.878   5.324  0.0417  1.1431 -1.1199
17827SOL    HW265461   9.230   3.885   5.310 -0.3667 -0.7554  1.5747
17828SOL     OW65462   3.938   5.091  14.001 -0.0674 -0.0738 -0.2279
17828SOL    HW165463   3.923   5.126  14.088 -2.1482 -0.8101 -0.2526
17828SOL    HW265464   3.974   5.164  13.951 -1.3204  1.1015  0.5623
17829SOL     OW65465   0.795   5.823  11.422 -0.0103  0.2069 -0.4865
17829SOL    HW165466   0.762   5.913  11.427 -1.5913 -0.4066  1.0471
17829SOL    HW265467   0.773   5.794  11.333 -1.2072  0.7382 -0.3823
17830SOL     OW65468   2.127   4.448   0.981 -0.2664  0.1335  0.6600
17830SOL    HW165469   2.185   4.374   0.967  0.0769  0.3716  0.8126
17830SOL    HW265470   2.042   4.409   1.001 -0.5820 -0.2292 -1.1797
17831SOL     OW65471   1.023   9.108  11.955 -1.2509 -0.1078 -0.1302
17831SOL    HW165472   0.933   9.137  11.945 -0.9813  0.4093 -1.1288
17831SOL    HW265473   1.059   9.107  11.866 -0.3122 -0.4346  0.2346
17832SOL     OW65474   1.897   5.131  11.222  0.0812  0.2077 -0.1222
17832SOL    HW165475   1.961   5.100  11.285 -0.7895 -2.4715 -0.4043
17832SOL    HW265476   1.943   5.130  11.138  0.3889  0.8617  0.0328
17833SOL     OW65477   2.068   8.975  11.089  0.0682 -0.2698  0.0626
17833SOL    HW165478   2.156   8.952  11.116 -0.0062  0.8871  1.3781
17833SOL    HW265479   2.019   8.986  11.171 -1.1489 -0.2972 -0.6238
17834SOL     OW65480   6.879   7.872  12.412 -0.2173 -0.3739  0.7008
17834SOL    HW165481   6.797   7.841  12.372 -1.2955  3.6732 -0.6489
17834SOL    HW265482   6.853   7.947  12.465  2.6360  1.0733  0.1971
17835SOL     OW65483  10.160   8.031   7.534  0.3990  0.0254  0.0820
17835SOL    HW165484  10.115   7.980   7.601  1.0911 -0.3420  0.2842
17835SOL    HW265485  10.174   7.968   7.462 -0.0739  0.3370 -0.2893
17836SOL     OW65486   7.216  11.846   6.557  0.5112 -0.0107 -0.6550
17836SOL    HW165487   7.164  11.884   6.628 -0.1786 -0.8643 -0.6868
17836SOL    HW265488   7.209  11.751   6.571 -1.4765 -0.3234 -3.1135
17837SOL     OW65489   5.666   0.269  11.989 -0.0402 -0.4362  0.3690
17837SOL    HW165490   5.717   0.236  11.915 -0.6104 -0.4143 -0.0414
17837SOL    HW265491   5.576   0.243  11.969 -0.1004 -1.1063  1.4287
17838SOL     OW65492   0.497   4.411  13.064 -0.0287 -0.1769  0.6688
17838SOL    HW165493   0.499   4.475  12.993  0.3663 -1.3454 -0.4171
17838SOL    HW265494   0.525   4.329  13.023 -0.8830 -1.1384  1.9265
17839SOL     OW65495   6.090  11.735  13.297  0.5245  0.2478 -0.0452
17839SOL    HW165496   6.147  11.732  13.221  1.7809  1.3638  0.7976
17839SOL    HW265497   6.078  11.644  13.323  1.7033 -0.0184 -0.4099
17840SOL     OW65498  13.681   5.686   9.227  0.4096 -0.0592 -0.1206
17840SOL    HW165499  13.654   5.618   9.165 -0.6811  0.4587 -0.2448
17840SOL    HW265500  13.765   5.656   9.261  1.2914 -0.1247 -2.2122
17841SOL     OW65501   8.916   8.633   9.356 -0.3397 -0.0662 -0.4260
17841SOL    HW165502   8.886   8.542   9.357  3.0028 -1.3032  0.9692
17841SOL    HW265503   8.880   8.671   9.436 -0.3122 -0.7144 -0.0966
17842SOL     OW65504   1.766   6.747   0.692 -0.3390  0.1821  0.3141
17842SOL    HW165505   1.705   6.682   0.658  0.2596 -0.0409 -0.3590
17842SOL    HW265506   1.838   6.749   0.628 -0.4842  1.7330  0.1432
17843SOL     OW65507   4.774  13.363   5.025  0.5692 -0.1517  0.1463
17843SOL    HW165508   4.710  13.351   4.955 -0.4079 -0.3393  1.0419
17843SOL    HW265509   4.791  13.457   5.027  0.8359 -0.1816 -0.5357
17844SOL     OW65510  12.309  13.932   6.110 -0.2441 -0.1904 -0.0866
17844SOL    HW165511  12.226  13.977   6.126 -0.9571 -1.9097  1.3870
17844SOL    HW265512  12.284  13.840   6.097  1.3539 -0.5685 -0.7230
17845SOL     OW65513   2.383   5.291   3.476 -0.5107  0.1498  0.4890
17845SOL    HW165514   2.426   5.251   3.552 -0.4559 -2.1325 -0.6518
17845SOL    HW265515   2.423   5.248   3.401 -1.8996  0.9661 -0.7719
17846SOL     OW65516   9.802   7.085  10.599 -0.0758  0.1748 -0.7233
17846SOL    HW165517   9.717   7.058  10.633  1.8533 -2.1999  2.8314
17846SOL    HW265518   9.839   7.006  10.561  1.4860  0.4710  0.0983
17847SOL     OW65519  13.461   3.992   8.546 -0.6432  0.4063 -0.0059
17847SOL    HW165520  13.387   3.976   8.604  1.4196  0.6132  2.9265
17847SOL    HW265521  13.424   3.991   8.458 -3.6990 -1.8385  1.1311
17848SOL     OW65522   9.477   0.577   7.718  0.8423 -0.0208 -0.1206
17848SOL    HW165523   9.479   0.564   7.812 -0.9736  2.4184  0.3677
17848SOL    HW265524   9.443   0.495   7.682 -1.3791  0.0256  1.6750
17849SOL     OW65525   0.023   8.603   5.449 -0.3247  0.1381  0.5743
17849SOL    HW165526  -0.022   8.623   5.367 -1.1158  2.2959  1.4788
17849SOL    HW265527   0.115   8.622   5.432 -0.5175  0.7795  0.2379
17850SOL     OW65528   9.382  12.098   3.211  0.0592 -0.8766  0.0535
17850SOL    HW165529   9.394  12.098   3.116  0.4626 -1.8019  0.0938
17850SOL    HW265530   9.469  12.080   3.246  0.3287  1.3059  0.6979
17851SOL     OW65531  10.346   1.910   7.438 -0.4362 -0.3817  0.4170
17851SOL    HW165532  10.334   1.977   7.371  0.4124 -0.1967  0.4348
17851SOL    HW265533  10.406   1.847   7.398 -1.1151 -1.0617  0.4513
17852SOL     OW65534   2.432   4.510   8.579 -0.0235  0.0159  0.1609
17852SOL    HW165535   2.380   4.476   8.652 -0.7421  1.3161  0.2681
17852SOL    HW265536   2.490   4.437   8.557 -2.2726 -1.7622 -0.3750
17853SOL     OW65537   0.552   9.740   1.137 -0.2191 -0.3373  0.0732
17853SOL    HW165538   0.518   9.823   1.169  0.8239 -0.2043  0.8777
17853SOL    HW265539   0.627   9.763   1.083 -0.3010 -0.7248 -0.2094
17854SOL     OW65540   1.834   9.081   6.391  0.3172 -0.5813 -0.0451
17854SOL    HW165541   1.904   9.017   6.405 -0.9686 -1.7379  1.5077
17854SOL    HW265542   1.859   9.156   6.444  1.3023 -0.2003 -1.0165
17855SOL     OW65543  11.644   0.128   1.955  0.1199  0.1700  0.3777
17855SOL    HW165544  11.714   0.193   1.965 -1.2869  1.6863  0.9413
17855SOL    HW265545  11.587   0.143   2.031 -0.4705 -1.4863  0.3013
17856SOL     OW65546   3.709  11.642  10.337  0.4207  0.3362 -0.0253
17856SOL    HW165547   3.671  11.730  10.331 -0.4512 -0.0095  0.1445
17856SOL    HW265548   3.803  11.656  10.332  0.2490  1.1440 -1.5530
17857SOL     OW65549  11.675   0.960   5.094 -0.4309  0.2585 -0.2029
17857SOL    HW165550  11.747   0.940   5.155  0.3466 -0.5244 -1.3417
17857SOL    HW265551  11.719   0.974   5.010 -1.5339  0.8231 -0.6941
17858SOL     OW65552   9.354   0.473  10.788 -0.0227 -0.1394 -0.2603
17858SOL    HW165553   9.426   0.445  10.730  0.3150 -0.7810  0.4477
17858SOL    HW265554   9.397   0.519  10.859 -0.3892  0.1660 -0.2364
17859SOL     OW65555   7.559   2.264   6.309  0.2689 -0.2344 -0.5189
17859SOL    HW165556   7.537   2.355   6.327 -0.1923 -0.4860  0.2604
17859SOL    HW265557   7.597   2.265   6.222  1.9205  0.9488  0.1666
17860SOL     OW65558  12.538   7.976  10.610  0.0476 -0.3233  0.0902
17860SOL    HW165559  12.616   7.976  10.555 -0.3947  0.0939 -0.5644
17860SOL    HW265560  12.535   7.888  10.648 -0.5075 -1.2121 -1.8640
17861SOL     OW65561  11.645   5.076  13.584 -0.4078  0.4130  0.1675
17861SOL    HW165562  11.659   5.045  13.495 -0.2873  1.5465 -0.2251
17861SOL    HW265563  11.659   4.999  13.639  2.4200  0.2921 -0.5726
17862SOL     OW65564   9.165   6.815  13.518 -0.8470 -0.2057  0.3759
17862SOL    HW165565   9.109   6.752  13.472 -0.1766 -2.3116  2.2864
17862SOL    HW265566   9.104   6.879  13.554 -1.8185 -1.1728  0.4963
17863SOL     OW65567  12.344   8.779  11.567 -0.0476  0.3151 -0.1241
17863SOL    HW165568  12.324   8.819  11.651 -0.0685  1.9071 -0.8620
17863SOL    HW265569  12.279   8.710  11.556 -1.0284  1.1407  0.4460
17864SOL     OW65570   8.702   7.555   2.496 -0.3060  0.0565  0.3640
17864SOL    HW165571   8.662   7.640   2.516 -0.8624  0.2222 -1.2902
17864SOL    HW265572   8.771   7.576   2.432 -0.8612 -0.7837 -0.5301
17865SOL     OW65573   9.600  12.823   0.693 -0.2415  0.1601 -0.4443
17865SOL    HW165574   9.621  12.825   0.600  1.3779 -0.7934 -0.1300
17865SOL    HW265575   9.672  12.870   0.736  0.7997 -2.2152  0.5755
17866SOL     OW65576   3.378  11.803  12.283  0.0685  0.1788  0.2169
17866SOL    HW165577   3.369  11.776  12.375  0.3505  1.7846  0.7575
17866SOL    HW265578   3.290  11.793  12.246 -0.2899  0.4506  0.9605
17867SOL     OW65579   1.862  13.652  13.468 -0.2915 -0.2748 -0.2281
17867SOL    HW165580   1.852  13.736  13.513 -0.6585 -0.9974  1.0900
17867SOL    HW265581   1.899  13.674  13.383 -1.1635  1.3009 -0.2264
17868SOL     OW65582  13.535   8.838   7.499 -0.5509 -0.6265 -0.6465
17868SOL    HW165583  13.577   8.830   7.585 -0.1168  1.2303 -0.6433
17868SOL    HW265584  13.497   8.752   7.483 -1.2052 -0.8444  1.6913
17869SOL     OW65585   2.425   0.235   8.732 -0.2823 -0.0633  0.2743
17869SOL    HW165586   2.501   0.255   8.788 -0.2709  0.3049  0.1263
17869SOL    HW265587   2.367   0.310   8.743  0.0383  0.3497 -0.7538
17870SOL     OW65588   4.742   0.922   6.646  0.3581  0.1480 -0.0231
17870SOL    HW165589   4.708   0.893   6.561 -0.6065 -0.9777  0.7155
17870SOL    HW265590   4.823   0.872   6.658  0.6021  0.4561 -0.3532
17871SOL     OW65591   9.989   9.561  11.760  0.1806  0.2895 -0.0117
17871SOL    HW165592  10.039   9.502  11.817 -0.0694  1.3988  1.4114
17871SOL    HW265593  10.055   9.614  11.716  0.3823 -0.6602 -0.8921
17872SOL     OW65594   3.000   2.449  12.277  0.4600  0.5285 -0.3524
17872SOL    HW165595   3.046   2.436  12.360  0.0775  0.1236 -0.1976
17872SOL    HW265596   2.908   2.455  12.302  0.3826  0.8572 -0.7078
17873SOL     OW65597   9.339  12.208  12.339  0.0253  0.5041  0.4658
17873SOL    HW165598   9.253  12.165  12.342 -0.5206  1.4291 -0.9060
17873SOL    HW265599   9.400  12.140  12.366 -1.2834  0.3645  3.4897
17874SOL     OW65600   8.109   2.666   0.214 -0.2751 -0.0960 -0.1438
17874SOL    HW165601   8.198   2.631   0.209  0.6738  1.9780  0.9067
17874SOL    HW265602   8.074   2.657   0.126  1.1739 -0.4532 -0.7021
17875SOL     OW65603   9.377   1.657   7.478 -0.0569  0.7954  0.1334
17875SOL    HW165604   9.459   1.609   7.461 -0.1635  0.5098  0.3993
17875SOL    HW265605   9.338   1.669   7.392  0.0777  0.5904  0.0419
17876SOL     OW65606   4.802   5.959   6.959 -0.1309  0.5156 -0.3041
17876SOL    HW165607   4.866   6.022   6.991  0.0688  0.4661 -0.5991
17876SOL    HW265608   4.738   6.012   6.912  0.8089  0.3750 -1.8044
17877SOL     OW65609  13.941   1.034   1.525 -0.4930  0.4632 -0.4231
17877SOL    HW165610  13.967   0.956   1.475 -0.2450  0.6651 -0.6146
17877SOL    HW265611  14.023   1.080   1.543 -0.6232  0.6050 -0.1851
17878SOL     OW65612  13.954  13.335   3.690  0.2769 -0.2520  0.0985
17878SOL    HW165613  14.041  13.368   3.711 -0.2344  0.5882  0.9880
17878SOL    HW265614  13.906  13.339   3.773 -0.0297 -2.6566  0.1314
17879SOL     OW65615  10.584   1.274   4.115  0.0923 -0.3419  0.0224
17879SOL    HW165616  10.656   1.266   4.178  2.0091 -0.4487 -2.0860
17879SOL    HW265617  10.564   1.368   4.113  1.7077  0.0149 -0.9491
17880SOL     OW65618  11.910  13.194   0.423  0.6071 -0.4122 -0.5932
17880SOL    HW165619  11.861  13.148   0.491 -2.7820 -0.1731 -2.6600
17880SOL    HW265620  11.946  13.271   0.467 -2.2575  0.2363  0.8394
17881SOL     OW65621   7.902  10.476  12.887 -0.2106 -0.3758 -0.2465
17881SOL    HW165622   7.984  10.523  12.871  0.8621 -1.9124  0.4360
17881SOL    HW265623   7.836  10.545  12.895  1.1346  0.9586 -0.0991
17882SOL     OW65624  12.350   6.234   7.551 -0.7402 -0.1806 -0.3498
17882SOL    HW165625  12.315   6.317   7.519 -3.1777  0.0229  2.3491
17882SOL    HW265626  12.397   6.258   7.631  1.0221 -1.1146 -1.0754
17883SOL     OW65627   7.365   3.849   4.170 -0.1989 -0.6100 -0.0541
17883SOL    HW165628   7.318   3.855   4.253  0.9673 -1.7322  0.7337
17883SOL    HW265629   7.416   3.768   4.178  1.6811  0.4287 -0.9273
17884SOL     OW65630   3.105   3.700   3.957  0.3560 -0.6261  0.2570
17884SOL    HW165631   3.095   3.795   3.950 -1.9366 -0.8518 -0.1621
17884SOL    HW265632   3.169   3.678   3.889  0.9171  0.6077  0.3677
17885SOL     OW65633   0.480   3.154   6.971 -0.2924  0.1306  0.2417
17885SOL    HW165634   0.498   3.238   7.014 -0.7114  0.9897 -1.1709
17885SOL    HW265635   0.499   3.171   6.879 -0.6856 -1.2560 -0.1099
17886SOL     OW65636   8.814   0.756   0.607  0.3400  0.9821 -0.0310
17886SOL    HW165637   8.851   0.692   0.546 -0.6102 -0.4687  0.8601
17886SOL    HW265638   8.865   0.746   0.687  0.0108  1.1589  0.2049
17887SOL     OW65639   0.693  10.910  13.085 -0.1819  0.0584 -0.1021
17887SOL    HW165640   0.668  10.938  12.997  0.6987 -1.4642 -0.8689
17887SOL    HW265641   0.614  10.872  13.122 -0.4651  0.3992 -0.3477
17888SOL     OW65642  10.983  11.812  11.575 -0.4738 -0.9221  0.3991
17888SOL    HW165643  10.966  11.868  11.651 -0.0929 -0.5746  0.2277
17888SOL    HW265644  10.947  11.860  11.501 -2.8788 -2.2275  0.5852
17889SOL     OW65645   6.999  11.641   9.473 -0.0334 -0.6050 -0.0549
17889SOL    HW165646   7.050  11.722   9.480 -0.1876 -0.2506 -2.2802
17889SOL    HW265647   6.924  11.655   9.531  0.0736  0.7533 -0.2095
17890SOL     OW65648   5.856   0.310   2.030  0.1784 -0.2069 -0.1911
17890SOL    HW165649   5.782   0.346   1.982  1.0878 -0.1992 -1.6702
17890SOL    HW265650   5.933   0.355   1.993  1.0802 -1.5955 -0.1095
17891SOL     OW65651   0.465   3.175  13.100 -0.0804 -0.5398  0.0895
17891SOL    HW165652   0.373   3.157  13.122  0.4461 -1.6339  1.5954
17891SOL    HW265653   0.504   3.202  13.183  1.3888 -2.0806 -0.0563
17892SOL     OW65654  11.433   7.188   2.263 -0.0976 -0.2179 -0.3878
17892SOL    HW165655  11.422   7.202   2.357 -1.3480  0.6033 -0.6332
17892SOL    HW265656  11.453   7.274   2.228 -2.2559  0.0330 -1.1816
17893SOL     OW65657   7.982  13.117   0.159  0.3874 -0.2016 -0.1132
17893SOL    HW165658   8.051  13.075   0.211  1.2916  1.4784  0.1290
17893SOL    HW265659   7.956  13.051   0.095  3.0903 -0.5390 -0.9892
17894SOL     OW65660  13.752  11.687   9.917 -0.0787  0.1445 -0.2424
17894SOL    HW165661  13.680  11.707   9.858  2.0086  0.0181 -3.0647
17894SOL    HW265662  13.806  11.766   9.918  0.7726 -0.4170  0.2033
17895SOL     OW65663   2.892   3.217  12.235 -0.0464 -0.0738  0.1628
17895SOL    HW165664   2.980   3.190  12.262  0.8099  1.7642 -0.6057
17895SOL    HW265665   2.894   3.212  12.140 -0.4810  0.7764  0.0989
17896SOL     OW65666  10.099  10.656   2.368  0.1321 -0.3985  0.2300
17896SOL    HW165667  10.087  10.637   2.461 -1.5181 -1.0113 -0.0787
17896SOL    HW265668  10.192  10.678   2.360 -0.1803  2.3849  2.4878
17897SOL     OW65669   0.853   6.618   8.788 -0.2819 -0.2479  0.0892
17897SOL    HW165670   0.891   6.532   8.768  0.0119 -0.3486  1.0412
17897SOL    HW265671   0.767   6.599   8.823  0.0312 -0.1996  0.9030
17898SOL     OW65672   0.562   6.820   9.115  0.0079  0.0693 -0.2790
17898SOL    HW165673   0.478   6.861   9.138 -0.6559 -1.3187 -0.0889
17898SOL    HW265674   0.613   6.822   9.195  0.6860  2.0610 -0.7138
17899SOL     OW65675  12.414   3.211  12.366  0.1480 -0.1906 -0.3191
17899SOL    HW165676  12.337   3.260  12.396  0.9789  1.0233 -0.1043
17899SOL    HW265677  12.395   3.120  12.390 -1.1967  0.0864 -0.2366
17900SOL     OW65678   3.277   0.758  11.547 -0.4212  0.4608  0.6437
17900SOL    HW165679   3.346   0.776  11.483  0.4565  0.0798  1.4529
17900SOL    HW265680   3.291   0.667  11.573 -2.9825 -0.5874 -1.2264
17901SOL     OW65681   1.426   9.029  10.663 -0.3348  0.4712 -0.2853
17901SOL    HW165682   1.378   8.994  10.588 -2.1087 -0.2256  1.1031
17901SOL    HW265683   1.489   8.961  10.685 -1.0586 -0.1397 -0.0483
17902SOL     OW65684  13.375   8.792   2.828  0.3741  0.6083  0.3818
17902SOL    HW165685  13.320   8.832   2.895  0.6228  1.2748  0.1976
17902SOL    HW265686  13.442   8.745   2.877  1.1987  1.9795  0.6296
17903SOL     OW65687   1.866  11.232   7.090  0.1507  0.3255  0.7187
17903SOL    HW165688   1.795  11.209   7.030  0.5600  3.3398 -1.1174
17903SOL    HW265689   1.946  11.220   7.038  1.1689 -2.8806  2.6953
17904SOL     OW65690  12.865   4.213   0.120 -0.2328 -0.1211  0.1562
17904SOL    HW165691  12.961   4.207   0.118 -0.2418 -0.2995  0.2408
17904SOL    HW265692  12.836   4.122   0.121 -0.4094 -0.0685 -0.1106
17905SOL     OW65693   0.996   9.017  13.036  0.5749  0.2582  0.1075
17905SOL    HW165694   1.027   8.929  13.058  0.0897 -0.0601 -0.4736
17905SOL    HW265695   0.924   9.033  13.097  0.4066  0.0955 -0.0485
17906SOL     OW65696   5.884   9.986  10.223  0.0219 -0.1292 -0.3885
17906SOL    HW165697   5.924   9.941  10.297 -0.9713  0.0860  0.2958
17906SOL    HW265698   5.893   9.924  10.150  0.5741 -0.5435  0.0234
17907SOL     OW65699   6.955   3.619  12.980  0.4353  0.3532  0.4460
17907SOL    HW165700   6.869   3.625  12.939  0.6587 -1.3382 -0.3330
17907SOL    HW265701   7.009   3.572  12.917  1.8988  1.2030  1.0096
17908SOL     OW65702   0.868   4.841  13.282 -0.0697  0.1540 -0.1494
17908SOL    HW165703   0.854   4.767  13.223 -2.0189  0.6303 -0.3324
17908SOL    HW265704   0.864   4.803  13.370 -0.6976 -0.0265 -0.2519
17909SOL     OW65705  10.357  11.283   9.800  0.6195  0.4173 -0.3623
17909SOL    HW165706  10.423  11.348   9.775  0.8696 -0.2144 -1.4403
17909SOL    HW265707  10.275  11.330   9.801  0.4686  0.4169 -3.1255
17910SOL     OW65708  10.233  11.256   0.227  0.1319  0.3147  0.3896
17910SOL    HW165709  10.273  11.244   0.313 -1.6395 -2.1444  0.9659
17910SOL    HW265710  10.277  11.193   0.171  0.5342  1.1602 -0.2699
17911SOL     OW65711  13.103  10.797   7.269  0.1864  0.0313 -0.2346
17911SOL    HW165712  13.175  10.770   7.326 -0.8602 -0.0317  1.1091
17911SOL    HW265713  13.044  10.722   7.267  0.3633 -0.0987 -1.7139
17912SOL     OW65714  13.480   6.315   7.562 -0.2529 -0.0123 -0.3638
17912SOL    HW165715  13.486   6.382   7.629 -0.7367 -0.2738 -0.0501
17912SOL    HW265716  13.457   6.363   7.482 -1.0310  0.1491 -0.0492
17913SOL     OW65717  12.921  12.372   4.319  0.0698 -0.6695 -0.2121
17913SOL    HW165718  12.998  12.390   4.372 -0.6157  0.0171  0.5698
17913SOL    HW265719  12.912  12.448   4.262  0.2266 -0.9561 -0.6255
17914SOL     OW65720  12.391   6.385  13.960 -0.9439 -0.2719  0.0648
17914SOL    HW165721  12.407   6.408  14.052 -2.1106  0.5520  0.0843
17914SOL    HW265722  12.318   6.441  13.934 -1.4222 -1.3606 -1.0135
17915SOL     OW65723  11.836   1.125  11.801 -0.2553  0.2069 -0.2675
17915SOL    HW165724  11.767   1.059  11.797  1.2644 -1.7630  2.3853
17915SOL    HW265725  11.821   1.171  11.883 -0.6581  2.5600 -1.5754
17916SOL     OW65726   8.776   7.058  10.559 -0.5405 -0.5385  0.0894
17916SOL    HW165727   8.827   7.128  10.600 -2.1465  0.0768  1.1046
17916SOL    HW265728   8.814   7.050  10.471  1.6781 -0.5279  0.9726
17917SOL     OW65729   8.325   2.402  10.620 -0.3913  0.0638 -0.8407
17917SOL    HW165730   8.327   2.390  10.715 -0.2233 -0.0011 -0.8522
17917SOL    HW265731   8.297   2.317  10.586 -2.3380  0.5985 -0.7511
17918SOL     OW65732   6.764   5.457  10.530 -0.3674  0.2637 -0.5419
17918SOL    HW165733   6.839   5.512  10.552 -0.0829  0.8530 -2.7587
17918SOL    HW265734   6.708   5.459  10.608  0.4239  2.3480  0.0142
17919SOL     OW65735  10.443   6.642   3.673  0.2427 -0.2787  0.3653
17919SOL    HW165736  10.514   6.667   3.732  0.9102  2.8000 -1.5238
17919SOL    HW265737  10.473   6.669   3.586 -2.3087 -0.9801 -0.8293
17920SOL     OW65738  13.863  10.578   4.029 -0.4757  0.6990  0.2791
17920SOL    HW165739  13.824  10.491   4.020 -0.1202  0.6099 -0.4506
17920SOL    HW265740  13.824  10.630   3.958  1.4028  0.3479 -1.0933
17921SOL     OW65741  13.604  11.864  12.380  0.1672 -0.4750 -0.1716
17921SOL    HW165742  13.559  11.796  12.329 -1.6084  0.4437  0.1071
17921SOL    HW265743  13.667  11.902  12.318 -1.5989  0.2950 -1.5648
17922SOL     OW65744   0.177   2.393   9.424  0.2710 -0.3715  0.9869
17922SOL    HW165745   0.257   2.374   9.374 -0.5865 -3.2167  0.5096
17922SOL    HW265746   0.108   2.397   9.358 -0.5173 -1.7615  1.6791
17923SOL     OW65747  11.413   8.288   0.722 -0.5140  0.3183 -0.2151
17923SOL    HW165748  11.463   8.227   0.667  0.1514  1.2123 -0.6146
17923SOL    HW265749  11.424   8.373   0.680 -1.2050  0.7721  0.4966
17924SOL     OW65750   8.297   9.335   1.428 -0.2504 -0.5681  0.5523
17924SOL    HW165751   8.381   9.379   1.437 -0.6634  0.3120  0.1473
17924SOL    HW265752   8.296   9.271   1.500  0.8784 -0.7977  0.3854
17925SOL     OW65753   7.544   4.069  11.124  0.0446  0.0577  0.3522
17925SOL    HW165754   7.625   4.026  11.152  0.2156  0.4600  0.4698
17925SOL    HW265755   7.477   4.033  11.182  0.1744 -0.1100  0.4003
17926SOL     OW65756   6.303   5.475   2.159 -0.4513 -0.4324  0.1593
17926SOL    HW165757   6.229   5.422   2.187 -0.4064 -1.1478 -0.9995
17926SOL    HW265758   6.289   5.488   2.065 -0.2974  1.3631  0.3456
17927SOL     OW65759  11.927  11.067   0.280 -0.0945  0.1280  0.2286
17927SOL    HW165760  11.856  11.121   0.245  1.5315  1.7856 -0.6617
17927SOL    HW265761  11.971  11.124   0.343  1.2454 -0.3895 -0.2156
17928SOL     OW65762   0.149   4.855   4.580 -0.5936  0.2970  0.6261
17928SOL    HW165763   0.244   4.852   4.574 -0.2511 -0.4671  4.2191
17928SOL    HW265764   0.120   4.773   4.540  0.0061  1.3083 -2.0899
17929SOL     OW65765  10.598   4.480   1.791  0.3104  0.0111  0.1070
17929SOL    HW165766  10.665   4.520   1.736  0.0222 -1.4213 -1.3511
17929SOL    HW265767  10.519   4.479   1.737  0.0211 -1.4754  0.5025
17930SOL     OW65768   0.921   1.750   3.904 -0.0045 -0.6287 -0.5120
17930SOL    HW165769   0.959   1.726   3.819  2.5575 -1.4137  0.7438
17930SOL    HW265770   0.958   1.837   3.923 -1.1953 -0.1027 -0.5183
17931SOL     OW65771  13.211   0.855  13.352  0.4779 -0.1318 -0.2694
17931SOL    HW165772  13.172   0.861  13.264  0.9327 -1.3771 -0.5911
17931SOL    HW265773  13.305   0.853  13.335  0.5461 -2.6901  0.0117
17932SOL     OW65774  10.710  11.025  11.051  0.5236 -0.1669  0.1235
17932SOL    HW165775  10.787  11.071  11.084 -0.5834  0.8377  1.4720
17932SOL    HW265776  10.691  10.958  11.117 -1.4225  1.5309  1.4212
17933SOL     OW65777  11.106   9.567   7.677 -0.0630 -0.4399  0.2017
17933SOL    HW165778  11.178   9.521   7.635 -1.1244 -2.0225  0.0490
17933SOL    HW265779  11.057   9.607   7.605 -0.0469 -0.4166  0.2041
17934SOL     OW65780  13.874  11.651   4.317 -0.1673  0.1639  0.3673
17934SOL    HW165781  13.806  11.690   4.373  0.1733  0.6336  0.4599
17934SOL    HW265782  13.897  11.569   4.361 -1.1923 -0.3651 -0.0508
17935SOL     OW65783   0.396  10.948  10.216 -0.2923 -0.3507 -0.1221
17935SOL    HW165784   0.359  11.036  10.209 -0.8400 -0.6118 -0.6708
17935SOL    HW265785   0.320  10.892  10.233 -0.5421 -1.1772 -3.2499
17936SOL     OW65786   3.160   2.973  13.520  0.3320  0.1675 -0.1896
17936SOL    HW165787   3.118   2.920  13.587  0.5541  1.7304  1.2637
17936SOL    HW265788   3.247   2.934  13.510 -0.5338 -1.5654 -1.4105
17937SOL     OW65789  12.233   6.974   9.728  0.5861 -0.3645  0.2494
17937SOL    HW165790  12.197   7.060   9.704  2.0805  0.0458 -0.7011
17937SOL    HW265791  12.229   6.923   9.647  2.7120 -0.0564 -0.1131
17938SOL     OW65792  11.548  12.953  12.564  0.1721 -0.3938  0.4536
17938SOL    HW165793  11.466  12.904  12.563  0.6309 -1.1545  0.1387
17938SOL    HW265794  11.520  13.044  12.580 -0.8575 -0.3935 -1.1329
17939SOL     OW65795   4.063   9.143   5.109  0.1147  0.4213  0.1209
17939SOL    HW165796   3.987   9.112   5.158  0.6873 -0.8836  0.2146
17939SOL    HW265797   4.072   9.235   5.135  0.9290 -0.4248  3.2024
17940SOL     OW65798   4.530  13.775   6.287  0.4964 -0.0017  0.0886
17940SOL    HW165799   4.539  13.867   6.263  2.8233  0.2810  1.6369
17940SOL    HW265800   4.469  13.775   6.361 -0.2689  0.1615 -0.5388
17941SOL     OW65801   3.344   8.032   7.719 -0.3325 -0.0006  0.0011
17941SOL    HW165802   3.317   8.086   7.793  1.1743 -0.2436  0.7607
17941SOL    HW265803   3.439   8.029   7.725 -0.1617  0.0055 -1.9820
17942SOL     OW65804   1.078   6.596   4.164  0.5057 -0.3378 -0.6312
17942SOL    HW165805   0.995   6.642   4.147  0.5005 -0.0981  0.0262
17942SOL    HW265806   1.132   6.617   4.088 -1.1558 -3.2476 -2.8407
17943SOL     OW65807   0.758  13.842  10.271 -0.0033 -0.2255 -0.1567
17943SOL    HW165808   0.741  13.795  10.189  1.8876 -1.8229  0.2964
17943SOL    HW265809   0.783  13.930  10.244  1.1898 -0.9005 -1.3653
17944SOL     OW65810   6.218   3.331  10.855 -0.2293 -0.5780 -0.7266
17944SOL    HW165811   6.255   3.406  10.807 -0.6092  1.2221  1.5889
17944SOL    HW265812   6.162   3.287  10.791 -0.1442  1.2510 -2.1554
17945SOL     OW65813   9.689   9.927   8.788  0.3066  0.4031 -0.2492
17945SOL    HW165814   9.770   9.959   8.747  0.0898 -0.9279 -1.7963
17945SOL    HW265815   9.668   9.847   8.740 -0.8110 -0.4059  1.5145
17946SOL     OW65816   3.008   0.634  12.875 -0.1358  0.4615  0.4360
17946SOL    HW165817   2.998   0.586  12.793 -0.3573 -0.3924  0.9480
17946SOL    HW265818   2.981   0.572  12.942 -1.5319  1.6724  1.0487
17947SOL     OW65819   3.505   3.160   6.984 -0.1421 -0.0953  0.3240
17947SOL    HW165820   3.534   3.250   7.003 -0.1096  0.0746 -0.4652
17947SOL    HW265821   3.434   3.172   6.920 -0.8265 -0.5895  0.9791
17948SOL     OW65822  13.308   2.614   3.477 -0.2965 -0.1550 -0.2479
17948SOL    HW165823  13.325   2.654   3.563 -0.7343  0.0799 -0.2716
17948SOL    HW265824  13.215   2.594   3.477 -0.3688  0.1470 -0.7960
17949SOL     OW65825   8.439   7.321   7.884  0.1723  0.2188  0.8356
17949SOL    HW165826   8.487   7.381   7.826  0.9358 -0.3976  0.8047
17949SOL    HW265827   8.486   7.238   7.876  0.3610  0.1427  2.4167
17950SOL     OW65828  10.526  13.345  13.392  0.3123  0.1076  0.6492
17950SOL    HW165829  10.599  13.352  13.453 -0.7177  0.3278  1.9013
17950SOL    HW265830  10.449  13.370  13.444 -0.6932 -0.4212 -0.5450
17951SOL     OW65831   3.074   7.111  11.507  0.6086 -0.6522 -0.3489
17951SOL    HW165832   3.093   7.018  11.496  0.6634 -0.5979 -0.7289
17951SOL    HW265833   3.071   7.124  11.601 -2.4236 -1.6623 -0.1931
17952SOL     OW65834   7.945  11.387   4.762 -0.0288  0.1487 -0.1689
17952SOL    HW165835   8.036  11.356   4.762 -0.2944 -0.7819  1.8998
17952SOL    HW265836   7.934  11.427   4.676  1.4050 -2.4800 -1.7347
17953SOL     OW65837   0.699   9.657   7.188  0.0116  0.0964 -0.0754
17953SOL    HW165838   0.673   9.619   7.272 -0.7484 -0.5490 -0.5857
17953SOL    HW265839   0.647   9.736   7.180 -0.9525 -0.5775 -0.5639
17954SOL     OW65840   4.990   4.266   5.355 -0.3303  0.5204 -0.7085
17954SOL    HW165841   5.060   4.288   5.418 -0.8372 -1.6638  0.7525
17954SOL    HW265842   5.034   4.211   5.290 -0.5379 -0.5302 -0.0020
17955SOL     OW65843   9.998  10.887   5.350  0.2325  0.1821  0.0710
17955SOL    HW165844   9.958  10.816   5.401  0.3143  0.2133  0.1802
17955SOL    HW265845  10.036  10.946   5.416 -1.2424  1.1866  0.0628
17956SOL     OW65846   7.804  13.500   1.991 -0.2946 -0.0754  0.1624
17956SOL    HW165847   7.833  13.528   1.904 -0.2087  0.4511  0.3598
17956SOL    HW265848   7.785  13.581   2.038  1.8263 -0.2062  1.3915
17957SOL     OW65849   6.790   8.545  11.128  0.4566  0.0703 -0.2567
17957SOL    HW165850   6.857   8.602  11.089  1.9089 -0.4165  1.3567
17957SOL    HW265851   6.707   8.586  11.105  1.4197  2.6407  0.4379
17958SOL     OW65852   0.463   1.127   8.665  0.1644 -0.3010  0.8089
17958SOL    HW165853   0.499   1.155   8.750  3.3527  0.3740 -0.6144
17958SOL    HW265854   0.518   1.053   8.640 -2.1274 -1.9005  0.2183
17959SOL     OW65855   4.024  13.021   0.805  0.4133  0.1367 -0.6103
17959SOL    HW165856   4.100  12.964   0.794  0.1701 -0.5150  0.8008
17959SOL    HW265857   3.969  13.004   0.729  0.8408 -0.7357 -0.7304
17960SOL     OW65858   5.441   4.495  12.271  0.0050 -0.6118 -0.2501
17960SOL    HW165859   5.406   4.500  12.360  0.5418 -0.9988 -0.0126
17960SOL    HW265860   5.531   4.463  12.282  0.2941 -0.0416 -0.8795
17961SOL     OW65861   9.604  13.417   0.729 -0.0361  0.2649 -0.4621
17961SOL    HW165862   9.622  13.426   0.636 -0.3619 -2.6565 -0.9080
17961SOL    HW265863   9.536  13.482   0.747 -1.0362 -0.0884 -2.6284
17962SOL     OW65864  12.023  10.091   3.984 -0.1510 -0.2138 -0.6817
17962SOL    HW165865  12.107  10.130   4.009 -0.7495  0.9797 -0.4755
17962SOL    HW265866  12.046  10.028   3.916  0.7039  1.7080 -2.2926
17963SOL     OW65867   0.706   1.679  10.972 -0.4227  0.1694  0.2527
17963SOL    HW165868   0.697   1.762  11.019 -1.0465 -0.0699  0.5646
17963SOL    HW265869   0.617   1.643  10.969 -0.4564  0.2906 -1.3209
17964SOL     OW65870   7.094   9.793   5.491 -0.1881  0.0780 -0.0619
17964SOL    HW165871   7.188   9.809   5.486 -0.1488 -0.1154  0.0474
17964SOL    HW265872   7.076   9.730   5.422 -0.3140  0.4523 -0.3738
17965SOL     OW65873   2.750  10.933   8.296  0.3852 -0.1567 -0.1350
17965SOL    HW165874   2.660  10.957   8.320  0.7915 -0.3963  1.7583
17965SOL    HW265875   2.803  11.006   8.327  1.2384 -1.7315  2.3725
17966SOL     OW65876  10.633   9.006   8.184  0.0399  0.8098 -0.1604
17966SOL    HW165877  10.558   9.042   8.137  0.5148  0.6028 -1.1048
17966SOL    HW265878  10.628   8.911   8.169  1.2223  0.9058 -1.3940
17967SOL     OW65879  12.122   5.369   9.543 -0.3996  0.0240 -0.1656
17967SOL    HW165880  12.067   5.427   9.596 -0.7001  0.5069 -0.9985
17967SOL    HW265881  12.200   5.354   9.598 -0.8237  0.2874  0.5251
17968SOL     OW65882   5.084   6.804   7.721  0.6057  0.2180 -0.2572
17968SOL    HW165883   5.115   6.847   7.801  0.7559  1.9293 -1.1982
17968SOL    HW265884   5.114   6.860   7.650 -0.1216 -0.9050 -1.5025
17969SOL     OW65885   5.606   3.507   6.706 -0.2322 -0.2795  0.1838
17969SOL    HW165886   5.568   3.515   6.618 -0.1671  0.9101  0.2588
17969SOL    HW265887   5.648   3.591   6.722 -1.8814  0.2655  2.1175
17970SOL     OW65888   3.122   2.755   2.186  0.2244 -0.3392  1.3711
17970SOL    HW165889   3.191   2.737   2.123 -1.0636 -4.2545  0.7974
17970SOL    HW265890   3.052   2.796   2.134  0.6313  0.0030  1.0925
17971SOL     OW65891   9.291   0.690   7.430  0.4506 -0.3982 -0.4385
17971SOL    HW165892   9.332   0.608   7.403  0.6825 -0.2301 -0.5980
17971SOL    HW265893   9.311   0.752   7.359  0.6188 -0.0979 -0.1328
17972SOL     OW65894   3.926   5.175   6.306  0.4041  0.0272 -0.5640
17972SOL    HW165895   3.840   5.170   6.263  0.7509  0.6411 -1.3643
17972SOL    HW265896   3.909   5.148   6.396 -0.5394 -0.3276 -0.8345
17973SOL     OW65897   8.946   2.370   9.918  0.4091  0.5832  0.5198
17973SOL    HW165898   9.005   2.434   9.956  0.8078  1.2851 -1.2015
17973SOL    HW265899   8.883   2.422   9.867 -0.3254 -0.2887  0.4991
17974SOL     OW65900   7.531   5.534   7.111  0.1334  1.1224  0.0667
17974SOL    HW165901   7.539   5.445   7.075  0.1872  0.4823  1.5709
17974SOL    HW265902   7.621   5.558   7.134  0.2326  1.9253 -1.1131
17975SOL     OW65903   3.669   4.702   2.549 -0.4836 -0.0633  0.3196
17975SOL    HW165904   3.594   4.727   2.496 -0.9390 -1.9521  0.0155
17975SOL    HW265905   3.693   4.782   2.596 -0.4397  1.5347 -2.2248
17976SOL     OW65906  13.085   1.848   6.249  0.0669 -0.4975  0.4632
17976SOL    HW165907  13.076   1.820   6.158  1.1600 -0.3143  0.2806
17976SOL    HW265908  13.165   1.901   6.249  0.7882 -1.5419  1.7737
17977SOL     OW65909  12.541  12.683   8.886  0.1535  0.7164  0.8786
17977SOL    HW165910  12.632  12.700   8.909 -0.0422 -0.7000  3.0189
17977SOL    HW265911  12.544  12.602   8.835  0.0387  0.0784  1.8590
17978SOL     OW65912   4.596   6.449  11.149 -0.6046  0.1836 -0.8289
17978SOL    HW165913   4.608   6.510  11.222 -1.1343 -1.0104  0.2963
17978SOL    HW265914   4.568   6.367  11.190 -2.4558 -0.1022 -2.4640
17979SOL     OW65915   4.937  12.841   4.263 -0.2669 -0.8237 -0.0505
17979SOL    HW165916   4.987  12.920   4.242 -0.0056 -0.8735  0.3773
17979SOL    HW265917   4.869  12.837   4.195 -0.1291 -0.3679 -0.2184
17980SOL     OW65918  10.338  11.558   1.397 -0.1965  0.4986  0.4409
17980SOL    HW165919  10.365  11.588   1.484 -1.8027  1.0852  0.7780
17980SOL    HW265920  10.383  11.474   1.385 -1.1961 -0.4148  2.5559
17981SOL     OW65921  10.812  12.965   7.510 -0.0760  0.1050  0.1706
17981SOL    HW165922  10.849  12.892   7.461  1.6479 -0.8991  2.7319
17981SOL    HW265923  10.730  12.931   7.545 -0.0446 -0.0667  0.0749
17982SOL     OW65924  13.761   5.103   8.447 -0.0418 -0.2051 -0.5200
17982SOL    HW165925  13.687   5.082   8.390 -0.9494  0.9772  0.1499
17982SOL    HW265926  13.825   5.034   8.431 -0.9392 -0.7894 -1.7552
17983SOL     OW65927   3.364   2.480   1.526  0.1143 -0.1732 -0.8254
17983SOL    HW165928   3.366   2.388   1.501  0.4857 -0.1204 -0.9993
17983SOL    HW265929   3.294   2.486   1.590 -0.8015 -0.3414 -1.7755
17984SOL     OW65930   5.042   5.440   4.809  0.0424  0.3249  0.9140
17984SOL    HW165931   5.030   5.528   4.773 -0.7316 -0.2992 -0.4643
17984SOL    HW265932   5.079   5.390   4.736 -3.2150 -1.4282  0.2499
17985SOL     OW65933   5.452  12.607   8.677  0.1314 -0.2075  1.2495
17985SOL    HW165934   5.492  12.574   8.596 -0.4471  0.7010  0.5697
17985SOL    HW265935   5.426  12.529   8.725 -0.2972 -0.7674  0.1438
17986SOL     OW65936   3.543  10.417   1.405 -0.1534  0.1256 -0.3449
17986SOL    HW165937   3.624  10.411   1.355  0.2820  0.1789  0.3451
17986SOL    HW265938   3.485  10.470   1.350  0.0621 -0.4166 -1.1118
17987SOL     OW65939   8.317  12.959  10.931 -0.5259 -0.0405 -0.2564
17987SOL    HW165940   8.267  12.957  10.849 -2.3703 -0.7883  0.8086
17987SOL    HW265941   8.297  13.045  10.968  1.0429  0.6746 -0.9574
17988SOL     OW65942   6.815  11.713  13.548  0.2157  0.8669 -0.0754
17988SOL    HW165943   6.899  11.751  13.574  1.5161 -0.8372 -1.5804
17988SOL    HW265944   6.796  11.751  13.462  1.2705 -1.3340 -1.3549
17989SOL     OW65945   8.221   7.140   8.442  0.2954  0.0955 -0.5645
17989SOL    HW165946   8.221   7.145   8.538 -0.7505 -0.2557 -0.5368
17989SOL    HW265947   8.255   7.225   8.414  0.9999  0.0580  0.1126
17990SOL     OW65948   8.676   6.277   9.505 -0.2213  0.0314  0.2805
17990SOL    HW165949   8.747   6.214   9.515 -0.7761 -0.3875  1.8506
17990SOL    HW265950   8.664   6.285   9.411  0.4586 -1.5202  0.0403
17991SOL     OW65951   7.224   5.022   8.425  0.1681  0.4501 -0.3025
17991SOL    HW165952   7.290   5.084   8.393 -1.6761  3.0520  0.5566
17991SOL    HW265953   7.238   5.018   8.519 -1.0607  1.3377 -0.0527
17992SOL     OW65954   6.058  12.475  12.727  0.1213  0.0870  0.6653
17992SOL    HW165955   6.131  12.497  12.668  0.0784  0.1527  0.6366
17992SOL    HW265956   6.003  12.554  12.727 -1.4929 -0.9355 -1.5656
17993SOL     OW65957   5.964   8.319   6.892 -0.6979 -0.0069 -0.2657
17993SOL    HW165958   5.979   8.225   6.883  0.0161 -0.3940  3.4026
17993SOL    HW265959   6.049   8.358   6.874 -0.8128 -0.0907 -1.0453
17994SOL     OW65960  11.130   5.139  11.603  0.5525  0.0247  0.4560
17994SOL    HW165961  11.041   5.163  11.628  0.4988 -0.0658  0.3522
17994SOL    HW265962  11.120   5.093  11.519  0.5894 -0.8722  0.9322
17995SOL     OW65963   0.118  13.105   0.687  0.2430 -0.2165 -0.1605
17995SOL    HW165964   0.100  13.199   0.698  2.5329  0.0671  2.0294
17995SOL    HW265965   0.031  13.065   0.677 -0.8975  1.9388  0.4867
17996SOL     OW65966   2.774   6.867   3.643 -0.3497 -0.0184 -0.2557
17996SOL    HW165967   2.716   6.879   3.718 -2.4967 -1.5876 -1.5247
17996SOL    HW265968   2.857   6.904   3.670 -1.2021 -0.0011  2.6656
17997SOL     OW65969  11.909  10.504   6.093  1.0028  0.6168 -0.1542
17997SOL    HW165970  11.928  10.429   6.150  1.0153  1.3416  0.8169
17997SOL    HW265971  11.982  10.564   6.106  0.7720  0.9971 -0.5836
17998SOL     OW65972   8.943   0.388  12.408 -0.1314 -0.6327  0.0460
17998SOL    HW165973   8.984   0.343  12.333 -0.5114 -1.1679  0.1487
17998SOL    HW265974   8.886   0.453  12.368  1.0980  0.3911 -0.0950
17999SOL     OW65975   1.255   5.507  12.484  0.6746 -0.1803 -0.6639
17999SOL    HW165976   1.279   5.421  12.517  0.6680  0.2849  0.6121
17999SOL    HW265977   1.321   5.527  12.418  0.4517 -1.3071 -1.2548
18000SOL     OW65978   5.276   8.477   7.864  0.9265 -0.4100  0.3759
18000SOL    HW165979   5.364   8.507   7.840  1.5349 -1.2972  1.4051
18000SOL    HW265980   5.277   8.474   7.959 -1.0452  1.8757  0.5678
18001SOL     OW65981   3.482   1.238  13.419  0.5531 -0.5716  0.0331
18001SOL    HW165982   3.402   1.203  13.459 -0.7112  1.4763 -0.5741
18001SOL    HW265983   3.492   1.187  13.338  1.7745 -3.0770  1.6398
18002SOL     OW65984  11.436  11.489   1.933  0.1075 -0.1464  0.2829
18002SOL    HW165985  11.526  11.521   1.929  0.6709 -1.4757  1.2548
18002SOL    HW265986  11.432  11.439   2.015 -1.1039 -1.2603 -0.4053
18003SOL     OW65987   2.069   3.401   3.707  0.3478  0.6647 -0.1678
18003SOL    HW165988   2.055   3.494   3.694 -0.1381  0.3458 -2.2445
18003SOL    HW265989   1.981   3.363   3.708  0.4829  0.2969  1.6069
18004SOL     OW65990  11.021   3.090   7.430 -0.1380  0.0191 -0.6602
18004SOL    HW165991  11.064   3.127   7.507 -0.8691  1.8731 -1.1018
18004SOL    HW265992  11.086   3.030   7.394  0.7874  0.2440  0.5544
18005SOL     OW65993   9.787  10.950   4.510  0.6992  0.6771  0.3301
18005SOL    HW165994   9.842  10.902   4.572  0.1110 -0.7873 -0.2442
18005SOL    HW265995   9.784  10.895   4.432 -0.6068  1.2785 -0.0838
18006SOL     OW65996   8.644  12.827  11.608  0.3938  0.6650 -0.2853
18006SOL    HW165997   8.670  12.736  11.597  1.3156  0.9488 -0.5313
18006SOL    HW265998   8.559  12.833  11.563  2.3847  0.9314 -4.4970
18007SOL     OW65999   1.994  12.317  13.135  0.5060 -0.2698  0.1927
18007SOL    HW166000   2.076  12.268  13.135  0.3091 -0.6519 -1.2505
18007SOL    HW266001   1.971  12.324  13.043  0.1789  2.0057  0.4033
18008SOL     OW66002  13.263   0.414  12.623 -0.3254  0.4701  0.2507
18008SOL    HW166003  13.342   0.407  12.676 -1.0936  0.7173  1.4554
18008SOL    HW266004  13.193   0.429  12.686 -1.1130  1.9317 -0.9055
18009SOL     OW66005   6.810  11.575   9.672 -0.0562 -0.8847  0.3369
18009SOL    HW166006   6.844  11.530   9.750 -1.1101  0.0338  1.3676
18009SOL    HW266007   6.732  11.622   9.703 -0.2928 -0.1859 -1.2009
18010SOL     OW66008  12.894  12.017  12.755  0.3313 -0.5845 -0.3971
18010SOL    HW166009  12.852  12.034  12.670 -1.9478  1.4667  1.0187
18010SOL    HW266010  12.948  12.094  12.771  0.5859 -0.8664  0.1327
18011SOL     OW66011   7.406  12.436   8.420 -0.3787 -0.1482 -0.1485
18011SOL    HW166012   7.466  12.446   8.346 -1.0324 -0.4503 -0.7340
18011SOL    HW266013   7.429  12.507   8.480  0.9525 -0.6136 -0.0808
18012SOL     OW66014   5.186  10.344   6.374  0.7434 -0.4198  0.0318
18012SOL    HW166015   5.212  10.314   6.461  0.2563  0.4084  0.4708
18012SOL    HW266016   5.102  10.387   6.387  0.0119 -1.4349 -1.0664
18013SOL     OW66017   9.769   3.646   3.528 -0.0687 -0.5251 -0.5618
18013SOL    HW166018   9.829   3.655   3.454  0.0822 -0.1651 -0.4006
18013SOL    HW266019   9.711   3.574   3.504  0.3396 -0.7829 -0.7816
18014SOL     OW66020   0.817  12.816   2.951  0.2434 -0.7621 -0.0631
18014SOL    HW166021   0.772  12.847   3.030 -2.8412  0.0897 -1.9765
18014SOL    HW266022   0.877  12.887   2.928 -1.0810  0.3992 -0.0944
18015SOL     OW66023  12.385   5.986  11.518 -0.0656 -0.8580  0.4164
18015SOL    HW166024  12.311   5.926  11.516 -0.6400 -0.1484 -0.3065
18015SOL    HW266025  12.347   6.072  11.503  0.6373 -0.1697  2.2400
18016SOL     OW66026   7.102   9.663   8.977  0.2339  0.1126  0.2676
18016SOL    HW166027   7.085   9.638   9.068  0.5965  0.6374  0.4865
18016SOL    HW266028   7.187   9.706   8.979  0.1389  0.3437 -0.2792
18017SOL     OW66029  10.454  14.023   2.445  0.0293 -0.4635 -0.1148
18017SOL    HW166030  10.479  14.079   2.519 -0.8080  1.4879 -1.2273
18017SOL    HW266031  10.373  13.980   2.474  0.1135 -0.2938  0.3824
18018SOL     OW66032  13.470   6.403  12.077  0.0319  0.4468  0.1833
18018SOL    HW166033  13.528   6.388  12.002 -0.3359 -1.2561  0.2082
18018SOL    HW266034  13.387   6.364  12.052 -0.0946 -0.1576  1.4820
18019SOL     OW66035  10.139   1.968   6.062  0.5818  0.0084 -0.1750
18019SOL    HW166036  10.127   2.063   6.066 -0.5098 -0.0806 -0.9859
18019SOL    HW266037  10.212   1.955   6.000  0.2168  0.2934 -0.6700
18020SOL     OW66038   7.057   7.695   7.338 -0.6289  0.6733  0.0939
18020SOL    HW166039   7.000   7.707   7.414 -0.0958  0.3595  0.5559
18020SOL    HW266040   6.999   7.704   7.262 -1.0398  1.7166  0.5123
18021SOL     OW66041  11.692   4.978   4.372  0.2679 -0.5537  0.5732
18021SOL    HW166042  11.616   4.959   4.317  1.1435 -0.0824 -0.8814
18021SOL    HW266043  11.763   4.993   4.309  1.0594  1.2107  1.7970
18022SOL     OW66044  12.529   2.817  13.651  0.4568 -0.2899  0.2136
18022SOL    HW166045  12.525   2.794  13.558 -0.6064 -1.1845  0.4682
18022SOL    HW266046  12.569   2.741  13.693  2.8922  0.9124  0.2739
18023SOL     OW66047  12.842  10.893  10.857 -0.0835 -0.0353 -0.4770
18023SOL    HW166048  12.923  10.902  10.806 -0.3560 -1.1598 -1.1503
18023SOL    HW266049  12.819  10.982  10.881  0.7366  0.4120 -1.2798
18024SOL     OW66050   0.311  11.954   2.465 -0.0946 -0.5028 -0.1774
18024SOL    HW166051   0.294  12.047   2.478 -2.1533 -0.7570 -0.6306
18024SOL    HW266052   0.224  11.913   2.471  1.0030 -2.7686  2.7788
18025SOL     OW66053   6.233   9.779  10.997  0.0697  0.8248 -0.2322
18025SOL    HW166054   6.287   9.812  10.925  0.2072  1.2010  0.0414
18025SOL    HW266055   6.159   9.840  11.002  0.8146  1.6710  0.8945
18026SOL     OW66056   3.716  11.685   4.981 -0.0862 -0.3070 -0.1478
18026SOL    HW166057   3.679  11.602   5.010 -2.0629  0.8413  0.7957
18026SOL    HW266058   3.645  11.727   4.932  0.9525  0.7474 -0.8019
18027SOL     OW66059  10.078   5.152  13.492 -0.3227  0.6838  0.4855
18027SOL    HW166060   9.984   5.136  13.504 -0.0670 -0.9957  0.5015
18027SOL    HW266061  10.086   5.183  13.402 -0.8226  0.1454  0.2463
18028SOL     OW66062  10.565   5.082   5.626  0.0339 -0.2884  0.0906
18028SOL    HW166063  10.558   5.053   5.717  1.1252 -1.0158 -0.0383
18028SOL    HW266064  10.480   5.122   5.607  0.0642  0.6200  1.6730
18029SOL     OW66065   6.395   9.400  11.373  0.1269  0.1286  0.3943
18029SOL    HW166066   6.377   9.493  11.389 -0.3971  0.2599 -0.8307
18029SOL    HW266067   6.491   9.395  11.371  0.2168  1.2143 -2.3220
18030SOL     OW66068   7.037   3.472   8.997 -0.1965  0.3172 -0.0485
18030SOL    HW166069   7.065   3.554   8.958  0.3737 -1.3173 -3.4953
18030SOL    HW266070   6.942   3.470   8.985 -0.2656  0.6287  0.4262
18031SOL     OW66071  13.464   5.933  10.321 -0.2486  0.2079 -0.3172
18031SOL    HW166072  13.554   5.902  10.322 -0.5536 -0.8059  1.7560
18031SOL    HW266073  13.412   5.854  10.303 -0.7704  0.6859 -0.9818
18032SOL     OW66074   9.779  12.442   8.925 -0.2852  0.8302  0.0262
18032SOL    HW166075   9.863  12.396   8.918 -0.3676  0.5557  0.7662
18032SOL    HW266076   9.782  12.508   8.856 -0.5758 -0.9237 -1.7394
18033SOL     OW66077   9.421   3.543   4.693  0.1465 -0.0217  0.3392
18033SOL    HW166078   9.383   3.522   4.779  1.6491 -0.0941  1.0199
18033SOL    HW266079   9.502   3.492   4.690 -0.1406 -0.4484 -1.3709
18034SOL     OW66080   8.416   4.410   5.056 -0.7174  0.5427  0.3071
18034SOL    HW166081   8.377   4.418   4.969 -1.8097 -1.8840  0.5141
18034SOL    HW266082   8.507   4.385   5.039 -0.6953  0.9063 -0.1320
18035SOL     OW66083   3.564   7.732   8.328  0.2198  0.0608 -0.1497
18035SOL    HW166084   3.531   7.642   8.325  1.9532 -0.5918 -1.5459
18035SOL    HW266085   3.576   7.750   8.422 -0.6268 -0.9696  0.1730
18036SOL     OW66086   2.736   4.915   1.642  0.6523  0.2495 -0.2335
18036SOL    HW166087   2.766   4.836   1.687  0.2160  0.1108 -0.1806
18036SOL    HW266088   2.761   4.901   1.550  0.7144  0.1201 -0.1974
18037SOL     OW66089   7.017  11.656   4.385  0.4344  0.5756 -0.4593
18037SOL    HW166090   6.925  11.681   4.383 -0.6753 -2.3448  3.2976
18037SOL    HW266091   7.025  11.585   4.321 -0.8816 -1.4631  1.5256
18038SOL     OW66092   1.131   3.990  13.028  0.2856  0.5159  0.1584
18038SOL    HW166093   1.191   3.997  12.954  0.1535  1.3676  0.1246
18038SOL    HW266094   1.058   3.939  12.995  1.6316 -1.8913  0.6296
18039SOL     OW66095   8.458   0.850  11.998  0.0026 -0.2472 -0.5148
18039SOL    HW166096   8.388   0.825  12.058  0.8332 -0.6430  0.3164
18039SOL    HW266097   8.413   0.867  11.915 -1.1020 -0.2413  0.0595
18040SOL     OW66098  12.705   5.291  11.080 -0.5929 -0.0306  0.0692
18040SOL    HW166099  12.754   5.339  11.012  0.3911 -0.3663  0.5190
18040SOL    HW266100  12.718   5.344  11.159  2.3190 -2.0242  1.0931
18041SOL     OW66101   1.433   4.968  13.253 -0.2145 -0.2576  0.5938
18041SOL    HW166102   1.342   4.983  13.280  0.0674  2.6347  0.1958
18041SOL    HW266103   1.426   4.937  13.163 -0.8100  0.8124  0.2546
18042SOL     OW66104   4.531  13.006   9.920  0.6112  0.2244  0.1561
18042SOL    HW166105   4.515  12.990  10.013  0.2345  1.9426  0.4201
18042SOL    HW266106   4.624  12.986   9.907  1.2127  2.0698  1.4086
18043SOL     OW66107   9.071  12.788  12.505 -0.2040  0.3137 -0.2005
18043SOL    HW166108   9.134  12.781  12.576 -0.7056 -1.2115  0.1412
18043SOL    HW266109   8.986  12.787  12.548 -0.5106 -0.4702 -0.7911
18044SOL     OW66110  10.608   5.315  10.643 -0.0885 -0.4392 -0.3245
18044SOL    HW166111  10.604   5.232  10.690  0.1370  0.2863  1.0422
18044SOL    HW266112  10.649   5.376  10.705 -1.5733  1.0620 -0.7113
18045SOL     OW66113   6.163   2.919  13.734  0.6148  0.5604  0.6254
18045SOL    HW166114   6.110   2.857  13.685  0.2664  1.0182  0.4168
18045SOL    HW266115   6.148   3.004  13.691  1.7676  0.6492  0.3470
18046SOL     OW66116   6.284   1.034   4.875  0.1184  0.1008 -0.1768
18046SOL    HW166117   6.242   1.089   4.809 -0.3477 -0.8734 -0.7150
18046SOL    HW266118   6.237   1.053   4.956  1.2776  1.9848  0.1274
18047SOL     OW66119  12.880   6.926   5.463  0.1132 -0.4187 -0.1916
18047SOL    HW166120  12.964   6.970   5.474  0.3065 -0.7574 -0.2891
18047SOL    HW266121  12.824   6.963   5.531  0.1960  0.1556 -0.4345
18048SOL     OW66122  10.078   8.286   7.746  0.0106  0.4369 -0.1355
18048SOL    HW166123  10.017   8.283   7.821  0.9233 -1.2958  0.6052
18048SOL    HW266124  10.164   8.294   7.786  0.6791 -2.1753 -0.8206
18049SOL     OW66125   4.624   4.495  10.987  0.0898 -0.5384  0.2201
18049SOL    HW166126   4.569   4.499  10.909 -0.1361  0.9140  0.4290
18049SOL    HW266127   4.693   4.432  10.964 -1.1546 -1.7597 -0.3486
18050SOL     OW66128  14.039   4.881   7.237 -0.1116  0.3970  0.3006
18050SOL    HW166129  14.020   4.861   7.329 -0.0212 -0.0149  0.2343
18050SOL    HW266130  14.099   4.955   7.241  0.6602 -0.2245  0.6146
18051SOL     OW66131  12.012   6.777  11.646 -0.0698  0.3547  0.0451
18051SOL    HW166132  12.078   6.820  11.592  0.5139  0.5698  0.8972
18051SOL    HW266133  11.958   6.850  11.679  0.4249  0.3803  0.8399
18052SOL     OW66134   6.647   1.892   8.573  0.5150  0.4412  0.2401
18052SOL    HW166135   6.606   1.888   8.486  1.0546  3.2330 -0.2447
18052SOL    HW266136   6.642   1.803   8.606 -1.9726 -0.2225 -1.6190
18053SOL     OW66137   4.588  10.033   1.450 -0.4372 -0.1363 -0.4026
18053SOL    HW166138   4.579  10.128   1.455 -2.0294 -0.2584 -0.4936
18053SOL    HW266139   4.542  10.000   1.527  2.6345 -0.7822  1.2962
18054SOL     OW66140   5.230   8.952  13.249 -0.7902  0.2684 -0.1339
18054SOL    HW166141   5.217   9.047  13.253 -0.0247  0.3693  0.1140
18054SOL    HW266142   5.143   8.917  13.229 -1.0242  1.0378 -0.5055
18055SOL     OW66143   7.556   8.546   7.257 -0.1219 -0.1009  0.3592
18055SOL    HW166144   7.640   8.560   7.301  0.0402 -1.0994  0.4028
18055SOL    HW266145   7.547   8.450   7.255 -0.2226 -0.0849 -1.5947
18056SOL     OW66146   6.110   3.321   4.236  0.3500 -0.0802  0.4548
18056SOL    HW166147   6.113   3.230   4.267 -1.7742  0.0114  1.0141
18056SOL    HW266148   6.093   3.313   4.142 -1.3894 -0.2832  0.7584
18057SOL     OW66149   5.508   8.085  13.412 -0.0725 -0.1056  0.1379
18057SOL    HW166150   5.480   7.999  13.382  0.1837  0.3543 -1.5277
18057SOL    HW266151   5.579   8.068  13.474  1.6323 -1.0817 -1.9445
18058SOL     OW66152  14.029  11.550  13.547  0.2599  0.5887 -0.5312
18058SOL    HW166153  13.965  11.493  13.589  0.6043  0.7364  0.2153
18058SOL    HW266154  14.074  11.493  13.485  0.1929  0.1964 -0.2290
18059SOL     OW66155   4.725  12.291   0.674  0.2858  0.2398 -0.2218
18059SOL    HW166156   4.751  12.231   0.745 -0.8154 -0.8703 -0.7266
18059SOL    HW266157   4.777  12.370   0.690  0.1448 -0.0063  1.7754
18060SOL     OW66158   0.809   4.070  11.377 -0.1507 -0.3040 -0.6848
18060SOL    HW166159   0.775   4.145  11.425  0.4359  0.7039 -1.7774
18060SOL    HW266160   0.870   4.108  11.313  0.8165 -1.7840 -0.7050
18061SOL     OW66161   7.515   8.297   9.072  0.7599 -0.2693 -0.5008
18061SOL    HW166162   7.480   8.337   8.993 -0.2692 -0.1027  0.0174
18061SOL    HW266163   7.441   8.248   9.109  1.3672 -0.7738  0.0782
18062SOL     OW66164   7.057   6.542  12.896  0.1427 -0.3788 -0.3102
18062SOL    HW166165   7.079   6.620  12.844 -1.4056  0.7172  0.5954
18062SOL    HW266166   7.112   6.549  12.974  0.4434 -0.5265 -0.5070
18063SOL     OW66167   0.540   4.289   8.289  0.0966  0.1875  0.0245
18063SOL    HW166168   0.630   4.303   8.260  0.0741  0.8290  0.2462
18063SOL    HW266169   0.486   4.328   8.220 -0.0739 -1.3776 -0.7829
18064SOL     OW66170  11.938   4.837   8.647  0.3114 -0.1945  0.0812
18064SOL    HW166171  11.932   4.832   8.552 -2.1125  0.5345  0.1346
18064SOL    HW266172  11.927   4.747   8.677 -1.9096 -0.0927 -0.2745
18065SOL     OW66173  12.620  10.384  10.289  0.2948  0.4123 -0.4778
18065SOL    HW166174  12.539  10.380  10.338 -0.0475  3.3096 -0.6577
18065SOL    HW266175  12.689  10.369  10.354 -0.2585  1.2911  0.3209
18066SOL     OW66176   9.056   9.506   4.225  0.2634 -0.1177 -0.7011
18066SOL    HW166177   9.122   9.459   4.276  1.1814 -1.2274 -2.7943
18066SOL    HW266178   9.033   9.581   4.280  2.0639 -0.5745  0.8027
18067SOL     OW66179   2.656   2.410   9.475  0.1359  0.1494 -0.3648
18067SOL    HW166180   2.638   2.497   9.511  0.9953 -0.1871  0.9328
18067SOL    HW266181   2.682   2.427   9.384  0.5404  1.2725 -0.0562
18068SOL     OW66182   3.267   8.240   6.092 -0.3388 -0.0620 -0.1835
18068SOL    HW166183   3.327   8.291   6.038 -0.1933  0.6133  0.5864
18068SOL    HW266184   3.186   8.292   6.093 -0.2589  0.0606  0.4353
18069SOL     OW66185  13.001   4.401  12.611  0.1106 -0.5058 -0.4394
18069SOL    HW166186  13.040   4.382  12.526  0.5612  0.3694 -0.4469
18069SOL    HW266187  12.921   4.449  12.591 -1.8511 -3.5270 -0.4818
18070SOL     OW66188  10.545  13.525  11.283 -0.2255 -0.0376 -0.2988
18070SOL    HW166189  10.461  13.534  11.238 -0.0513  1.1882 -0.4151
18070SOL    HW266190  10.522  13.526  11.376 -0.5593 -2.2914 -0.3024
18071SOL     OW66191   1.222  10.019  13.902 -0.5130 -0.1172  0.1766
18071SOL    HW166192   1.228  10.073  13.981  0.1235 -1.3035  0.9772
18071SOL    HW266193   1.312  10.010  13.872 -0.6890 -0.1558 -0.3471
18072SOL     OW66194   2.830  11.434   3.763 -0.0159  0.1023 -0.0921
18072SOL    HW166195   2.846  11.343   3.741  1.3450 -0.0097  1.1850
18072SOL    HW266196   2.754  11.432   3.822 -0.4464 -0.1028 -0.6413
18073SOL     OW66197   2.821   4.239   3.002 -0.7784 -0.4110  0.0752
18073SOL    HW166198   2.750   4.210   3.059 -1.0907  0.8491  0.3508
18073SOL    HW266199   2.830   4.332   3.020  1.0316 -0.5617  0.1351
18074SOL     OW66200   7.304  10.610   3.795 -0.0954 -0.2638 -0.1682
18074SOL    HW166201   7.312  10.550   3.869  0.8693 -0.1972 -0.2084
18074SOL    HW266202   7.298  10.697   3.835  1.8630 -0.0852 -0.1661
18075SOL     OW66203   3.869   7.518   1.762 -0.3393  0.1150 -0.6903
18075SOL    HW166204   3.956   7.556   1.769 -0.4454  0.3409 -0.5743
18075SOL    HW266205   3.883   7.430   1.727 -0.0888  0.2448 -0.9090
18076SOL     OW66206   3.126   8.202   9.536  0.1232 -0.6818  0.2500
18076SOL    HW166207   3.219   8.212   9.556 -0.1462 -0.7411  1.6815
18076SOL    HW266208   3.100   8.286   9.500  0.6400 -0.5038  0.2821
18077SOL     OW66209   0.274  10.227  10.350 -0.2442 -0.5014 -0.1713
18077SOL    HW166210   0.217  10.276  10.290 -1.2560 -0.2115  1.0021
18077SOL    HW266211   0.362  10.262  10.333 -0.3867 -0.9143 -1.9602
18078SOL     OW66212   4.482   2.283  11.329 -0.2627  0.1757  0.1578
18078SOL    HW166213   4.486   2.226  11.406  1.9095  0.4021  0.2909
18078SOL    HW266214   4.397   2.325  11.334  0.0188  0.5722  2.7564
18079SOL     OW66215  10.042   5.646   2.579  0.1694  0.2693  0.1742
18079SOL    HW166216   9.950   5.631   2.556  0.0744  0.6149  0.3143
18079SOL    HW266217  10.073   5.561   2.611 -0.7035  0.6282  2.1381
18080SOL     OW66218  12.351   1.348   9.427  0.1065  0.6677 -0.0271
18080SOL    HW166219  12.397   1.321   9.506  1.8034  0.6048 -0.9718
18080SOL    HW266220  12.324   1.438   9.445  1.3050  0.9845  0.3117
18081SOL     OW66221   4.129   1.863   7.565  0.0228 -0.1562  0.2805
18081SOL    HW166222   4.203   1.923   7.573  0.0739 -0.2403  0.4359
18081SOL    HW266223   4.061   1.902   7.620  0.9571 -1.6481  2.6394
18082SOL     OW66224   9.680   3.851   1.266 -0.2155  0.1848  0.1852
18082SOL    HW166225   9.657   3.761   1.289  0.3708 -0.1002 -0.3224
18082SOL    HW266226   9.728   3.884   1.342  0.8043 -0.4096 -0.1797
18083SOL     OW66227   0.540  11.366   4.125  0.7158 -0.3382  0.0781
18083SOL    HW166228   0.566  11.453   4.156 -1.4158  0.1639  0.6056
18083SOL    HW266229   0.470  11.339   4.184  1.8725 -2.8112  0.4278
18084SOL     OW66230  11.881   4.192   3.562  0.1429 -0.2132 -0.0686
18084SOL    HW166231  11.975   4.203   3.547  0.3349 -1.5889 -0.0324
18084SOL    HW266232  11.875   4.126   3.631 -0.8477  0.9805  1.0183
18085SOL     OW66233   5.196   8.476   6.342  0.4382  0.1027 -0.7668
18085SOL    HW166234   5.193   8.551   6.282 -1.0489  2.5194  2.0454
18085SOL    HW266235   5.267   8.497   6.402 -1.3663  0.4739  1.3610
18086SOL     OW66236   0.474   6.252   6.779  0.3867 -0.1499 -0.1864
18086SOL    HW166237   0.422   6.245   6.859 -0.1821 -1.6680 -0.6664
18086SOL    HW266238   0.536   6.323   6.798 -0.4486  0.2616  1.1792
18087SOL     OW66239   9.285   8.817   7.870 -0.0800  0.8017 -0.5820
18087SOL    HW166240   9.263   8.764   7.946  0.9038  0.7871 -0.3040
18087SOL    HW266241   9.207   8.812   7.814 -0.4388  0.0330 -0.0212
18088SOL     OW66242   1.111   2.444  12.655 -0.0982  0.7741 -0.3322
18088SOL    HW166243   1.142   2.376  12.597 -1.4920 -0.1413 -0.0365
18088SOL    HW266244   1.017   2.448  12.641 -0.2460  1.6228  0.7238
18089SOL     OW66245   2.417   8.131   6.984 -0.3025  0.2594  0.1592
18089SOL    HW166246   2.365   8.195   7.032  0.0736  0.3493  0.4547
18089SOL    HW266247   2.375   8.124   6.899 -1.9928 -1.1521  1.0420
18090SOL     OW66248   9.129   8.841   8.715 -0.0765 -0.0294  0.1567
18090SOL    HW166249   9.167   8.903   8.652 -1.3457 -0.2545 -0.8824
18090SOL    HW266250   9.116   8.760   8.665 -1.3464 -0.1344  0.6061
18091SOL     OW66251   0.097   1.278   5.462  0.5263  0.1119 -0.2430
18091SOL    HW166252   0.141   1.204   5.421 -0.8784 -0.1786 -1.3124
18091SOL    HW266253   0.037   1.239   5.525 -0.7022  0.2371 -1.2754
18092SOL     OW66254   6.025   2.095   5.175 -0.8553 -0.4695  0.3825
18092SOL    HW166255   6.015   2.109   5.269 -1.1282  0.9806  0.1495
18092SOL    HW266256   6.114   2.061   5.165 -0.8897 -0.8059  1.1703
18093SOL     OW66257   4.283   5.630   0.909 -0.1558  0.3972  0.0041
18093SOL    HW166258   4.314   5.718   0.932 -1.0582  0.6719  0.2166
18093SOL    HW266259   4.240   5.641   0.825  0.3890  0.0039 -0.3301
18094SOL     OW66260   1.426  12.871   7.643  0.1733  0.2594  0.4961
18094SOL    HW166261   1.355  12.819   7.680 -0.7960  0.6432 -0.7674
18094SOL    HW266262   1.497  12.865   7.708 -1.0483 -0.0214  1.8444
18095SOL     OW66263   2.348   2.123   1.329 -1.2319  0.3340  0.0012
18095SOL    HW166264   2.361   2.133   1.424  0.0504  0.1735 -0.1384
18095SOL    HW266265   2.360   2.211   1.294  0.3816  0.0452 -0.2171
18096SOL     OW66266   4.961   5.179  10.394 -0.4291  0.1797  0.0767
18096SOL    HW166267   4.866   5.176  10.384 -0.4563  0.0302  0.3415
18096SOL    HW266268   4.995   5.159  10.307 -0.6363  1.0678 -0.2127
18097SOL     OW66269  12.231  10.172   3.687  0.2445 -0.1323  0.0333
18097SOL    HW166270  12.181  10.249   3.717  0.6813 -0.0679  0.6107
18097SOL    HW266271  12.194  10.099   3.736 -0.2688 -0.3231 -0.6228
18098SOL     OW66272  10.769  13.373  11.172 -0.3414  0.1257  0.2187
18098SOL    HW166273  10.731  13.309  11.233 -1.9123 -0.7341 -1.5573
18098SOL    HW266274  10.720  13.453  11.188  0.7653  0.5712  1.5670
18099SOL     OW66275   1.801   2.949  11.638 -0.0024 -0.3767  0.8566
18099SOL    HW166276   1.810   2.925  11.546 -3.8188 -0.3836  0.3359
18099SOL    HW266277   1.827   3.041  11.641 -0.4425 -0.1963 -0.3525
18100SOL     OW66278  13.481  10.656  11.432  0.3732  0.0153  0.7923
18100SOL    HW166279  13.457  10.664  11.340  0.0339 -1.1929  0.7597
18100SOL    HW266280  13.400  10.675  11.480  0.8911  2.1206  0.9303
18101SOL     OW66281   9.142   2.681  13.305  0.4388 -0.1606  0.0927
18101SOL    HW166282   9.062   2.706  13.259  1.2997 -1.9208 -2.6523
18101SOL    HW266283   9.185   2.763  13.327 -0.8943  0.7971 -0.7691
18102SOL     OW66284   6.978   3.098   8.094 -0.7298  0.1024 -0.4126
18102SOL    HW166285   6.957   3.005   8.090  0.8476 -0.2461 -1.0461
18102SOL    HW266286   6.949   3.132   8.009  2.4899 -0.6991 -1.9670
18103SOL     OW66287   9.448   6.058   9.175 -0.1747  0.1109 -0.5017
18103SOL    HW166288   9.459   6.113   9.252  1.8547 -2.5799  1.3182
18103SOL    HW266289   9.501   6.100   9.107  0.4697  0.9717  0.5084
18104SOL     OW66290   2.082  13.215  12.382 -0.7534 -0.8260  0.0769
18104SOL    HW166291   2.090  13.193  12.289 -0.1701 -1.2516  0.2193
18104SOL    HW266292   1.988  13.227  12.396 -0.6659  2.2268 -1.2265
18105SOL     OW66293   8.680   8.573   1.930 -0.4006  0.6224  0.1772
18105SOL    HW166294   8.726   8.516   1.868 -0.8229  1.2867 -0.7758
18105SOL    HW266295   8.679   8.659   1.887  1.1614  1.6622  2.0338
18106SOL     OW66296   1.175   3.773  10.826  0.4429 -0.1511  0.4195
18106SOL    HW166297   1.141   3.845  10.879  0.3349  0.1010  0.0150
18106SOL    HW266298   1.103   3.710  10.822  0.5247 -0.2659  0.7441
18107SOL     OW66299   8.281   2.067   9.498 -0.4148 -0.1863  0.0487
18107SOL    HW166300   8.300   2.133   9.565  2.0778 -3.4572  2.9802
18107SOL    HW266301   8.359   2.067   9.442  0.1254 -1.2761  0.7613
18108SOL     OW66302   8.386   3.867   3.250  0.0901 -0.3026 -0.0763
18108SOL    HW166303   8.334   3.920   3.310  0.7680 -0.1164  0.3580
18108SOL    HW266304   8.477   3.890   3.270  0.4195 -1.8552  0.3522
18109SOL     OW66305  11.276  12.087   3.478 -0.4246 -0.0326  0.0405
18109SOL    HW166306  11.230  12.115   3.557 -0.9680  0.4975 -0.4564
18109SOL    HW266307  11.207  12.074   3.413  0.0112 -0.5239 -0.3322
18110SOL     OW66308   1.941  13.573  13.965 -0.0278  0.6797 -0.1850
18110SOL    HW166309   1.866  13.601  13.913 -0.2675  2.2487  0.9238
18110SOL    HW266310   1.978  13.500  13.917 -0.7383  1.5185 -2.0966
18111SOL     OW66311   3.862  11.137  11.740  0.7715 -0.1977  0.2480
18111SOL    HW166312   3.874  11.193  11.816  1.7357 -0.8459  0.5969
18111SOL    HW266313   3.887  11.050  11.770  0.5647 -0.5734 -0.6395
18112SOL     OW66314   9.134   4.651   8.584 -0.5820  0.7879  0.3766
18112SOL    HW166315   9.071   4.714   8.548 -0.5332 -0.0012 -1.1614
18112SOL    HW266316   9.155   4.594   8.511  0.9247  0.2112  1.2228
18113SOL     OW66317   6.315  10.378  12.170 -0.5366 -0.2628 -0.8909
18113SOL    HW166318   6.347  10.295  12.136 -0.8999 -0.7309 -0.1249
18113SOL    HW266319   6.393  10.433  12.177  0.3991 -1.7625  2.0501
18114SOL     OW66320   2.242   6.202   4.942 -0.0706  0.5003  0.4011
18114SOL    HW166321   2.155   6.242   4.939 -0.6675 -0.7168  0.7046
18114SOL    HW266322   2.230   6.118   4.897  1.0786  0.5365  0.0071
18115SOL     OW66323   5.005   1.732   1.867 -0.7080 -0.6167  0.3217
18115SOL    HW166324   4.942   1.739   1.796 -0.3979 -1.9434 -0.1199
18115SOL    HW266325   4.977   1.654   1.916 -0.2344 -0.4080  0.9424
18116SOL     OW66326   3.878  12.457   4.150 -0.4605 -0.0451  0.3927
18116SOL    HW166327   3.852  12.495   4.234  1.1404  2.5320 -0.1788
18116SOL    HW266328   3.800  12.408   4.121 -2.9835  3.2061  1.0310
18117SOL     OW66329   0.849   0.009   4.404 -0.0039 -0.6016 -0.1918
18117SOL    HW166330   0.878  -0.018   4.491  0.7670 -0.2709 -0.3339
18117SOL    HW266331   0.873  -0.064   4.348  1.8248  0.1825 -0.5287
18118SOL     OW66332   5.854  11.938  13.573  0.4247  0.1996  0.4049
18118SOL    HW166333   5.930  11.975  13.528  0.5862  0.7069  1.0723
18118SOL    HW266334   5.797  11.905  13.503  1.8150 -1.3254 -0.0568
18119SOL     OW66335   0.547  11.144   8.549  0.3029 -0.4117  0.2140
18119SOL    HW166336   0.510  11.111   8.632  2.4374  0.2339  1.4997
18119SOL    HW266337   0.476  11.196   8.511 -1.5557 -2.6290  0.4049
18120SOL     OW66338   6.485  12.025   4.649 -0.1579  0.6307  0.4067
18120SOL    HW166339   6.531  12.106   4.627 -0.0480  0.0974 -1.5129
18120SOL    HW266340   6.554  11.962   4.666 -0.2305  0.6147  0.6479
18121SOL     OW66341  10.183   9.768   4.162 -0.6464  0.0004 -1.0104
18121SOL    HW166342  10.133   9.687   4.155 -1.5718  0.3131  1.1920
18121SOL    HW266343  10.265   9.743   4.204 -1.0235  0.2251 -0.1297
18122SOL     OW66344   7.798   0.987   6.285 -0.3395  0.5371  0.2075
18122SOL    HW166345   7.725   0.985   6.223 -0.2697  0.0666  0.1368
18122SOL    HW266346   7.844   1.068   6.265  0.5094 -0.2932 -1.3176
18123SOL     OW66347  11.426   3.326   5.491 -0.1331  0.3417  0.4145
18123SOL    HW166348  11.505   3.273   5.499  0.2946  0.7709 -0.6568
18123SOL    HW266349  11.393   3.335   5.580  1.6948  1.1396  1.0671
18124SOL     OW66350  13.445  13.179   5.067 -0.7286  0.3131  0.2898
18124SOL    HW166351  13.427  13.271   5.090 -2.4608 -0.2393  1.3095
18124SOL    HW266352  13.417  13.129   5.143 -0.5104 -1.1416 -0.5418
18125SOL     OW66353   4.254   8.163  13.611  0.0053  0.3957 -0.4628
18125SOL    HW166354   4.213   8.243  13.577  0.2150  0.6593 -0.1042
18125SOL    HW266355   4.207   8.092  13.569 -0.6199  0.7031 -0.2944
18126SOL     OW66356   0.255   8.698  11.732 -0.5912  0.6392  0.0140
18126SOL    HW166357   0.328   8.755  11.709  1.5064 -1.5039  1.0094
18126SOL    HW266358   0.245   8.640  11.656 -0.5195  0.2433  0.3012
18127SOL     OW66359   8.775   5.269   4.919  0.3021 -0.1212 -0.4600
18127SOL    HW166360   8.770   5.328   4.845  1.0388 -0.5610 -0.8803
18127SOL    HW266361   8.700   5.210   4.909 -0.7070  1.0065  0.2212
18128SOL     OW66362   3.995   4.307   6.922 -0.2775  0.2442  0.1789
18128SOL    HW166363   3.990   4.286   6.828 -0.2141  2.3424 -0.3359
18128SOL    HW266364   3.904   4.302   6.952 -0.2610 -0.7553  0.1029
18129SOL     OW66365   9.536   7.104  12.988  0.0298  0.3600  0.6014
18129SOL    HW166366   9.525   7.009  13.000 -2.0319  0.4586 -0.1683
18129SOL    HW266367   9.548   7.138  13.077 -3.0987 -0.2356  1.3637
18130SOL     OW66368   0.241   7.805   7.502 -0.1928  0.1807  0.4379
18130SOL    HW166369   0.193   7.723   7.504 -2.4977  1.4469  0.7181
18130SOL    HW266370   0.221   7.846   7.587  0.4065  1.2795  0.0651
18131SOL     OW66371   6.153   7.924   3.704  0.8842  0.4355 -0.4027
18131SOL    HW166372   6.130   7.882   3.621  2.6946 -3.0797  0.7110
18131SOL    HW266373   6.221   7.987   3.680  1.1370 -0.2845 -1.6641
18132SOL     OW66374   4.409   3.174  12.054  0.0849 -0.1581 -0.1119
18132SOL    HW166375   4.381   3.264  12.037  0.9520 -0.0156 -0.8226
18132SOL    HW266376   4.333   3.121  12.029 -0.1658  0.3221 -0.3941
18133SOL     OW66377   0.805  10.244  13.675  0.2825 -0.0473 -0.4063
18133SOL    HW166378   0.809  10.328  13.629 -0.2838  0.6724  0.8167
18133SOL    HW266379   0.894  10.229  13.706 -0.0369  1.2715  1.3320
18134SOL     OW66380  10.326   6.994  10.238  0.2598 -0.4559 -0.2608
18134SOL    HW166381  10.396   7.012  10.301  0.3213 -0.1233 -0.4211
18134SOL    HW266382  10.338   7.060  10.170 -1.8722  1.4106  1.0215
18135SOL     OW66383  13.244  12.711   3.841  0.0479 -0.4562 -0.3982
18135SOL    HW166384  13.245  12.754   3.926  0.1882  0.9153 -1.0538
18135SOL    HW266385  13.156  12.728   3.807 -0.8497 -3.0357  0.4102
18136SOL     OW66386  10.747   2.455   9.243 -0.0954  0.0464  0.1283
18136SOL    HW166387  10.717   2.544   9.264 -0.7453  0.1427 -1.1380
18136SOL    HW266388  10.683   2.398   9.284  0.4286  0.1495  1.1090
18137SOL     OW66389  10.645  10.582   2.135 -0.7108 -0.5074 -0.3488
18137SOL    HW166390  10.629  10.562   2.227 -1.5646  0.0167 -0.3712
18137SOL    HW266391  10.674  10.499   2.097 -0.2868 -0.7117  0.4023
18138SOL     OW66392   4.431   6.758  13.990  0.0170 -0.3556 -0.0112
18138SOL    HW166393   4.368   6.830  13.995 -0.1457 -0.5769  1.6502
18138SOL    HW266394   4.507   6.789  14.039 -0.1934 -1.4130  1.0312
18139SOL     OW66395   2.109   5.050  11.350 -0.1825  0.4839  0.1012
18139SOL    HW166396   2.133   5.004  11.430  0.4887  0.6357 -0.0093
18139SOL    HW266397   2.130   4.988  11.279 -2.5826 -0.4393  0.1019
18140SOL     OW66398   9.682   6.588  12.178  0.7927  0.8183  0.8389
18140SOL    HW166399   9.727   6.622  12.100  1.7032  0.9444  1.4134
18140SOL    HW266400   9.749   6.584  12.245  0.6954 -1.9943  0.8623
18141SOL     OW66401   4.146   0.373  10.100 -0.4668 -0.1929  0.0882
18141SOL    HW166402   4.158   0.468  10.102 -1.3361 -0.0843  1.4789
18141SOL    HW266403   4.213   0.339  10.158  0.0517 -0.4746 -0.6620
18142SOL     OW66404   5.644  12.552   6.470 -0.4473  0.1033  0.1313
18142SOL    HW166405   5.583  12.480   6.486 -0.1453  0.4471  3.8322
18142SOL    HW266406   5.595  12.631   6.492 -0.2381  0.9617 -2.1896
18143SOL     OW66407  11.761   3.650   9.326 -0.1711  1.8581 -0.0981
18143SOL    HW166408  11.809   3.629   9.407  1.5982  1.2339 -1.2583
18143SOL    HW266409  11.679   3.688   9.357  0.3227  1.3695  2.0021
18144SOL     OW66410  12.783   2.337   0.273 -0.1748 -0.0825 -0.0069
18144SOL    HW166411  12.835   2.286   0.335  0.4129  1.6249  0.9704
18144SOL    HW266412  12.722   2.273   0.235 -0.6120 -1.2102  2.3783
18145SOL     OW66413   6.634   3.764   3.004 -0.1194  0.4730 -0.1559
18145SOL    HW166414   6.691   3.700   2.962  0.8779  2.1763 -1.4911
18145SOL    HW266415   6.555   3.765   2.949 -0.5042 -0.1953  0.3627
18146SOL     OW66416   5.252   0.004  13.894  0.0443  0.1683 -0.5816
18146SOL    HW166417   5.193  -0.016  13.822 -0.7600 -0.2540  0.1830
18146SOL    HW266418   5.261   0.099  13.892 -0.0351  0.1698 -1.1786
18147SOL     OW66419   2.442   7.329   3.719 -0.3727 -0.0388 -0.4942
18147SOL    HW166420   2.438   7.243   3.760  2.6600 -0.0927 -0.0925
18147SOL    HW266421   2.351   7.360   3.719 -1.1132 -1.8389  2.3314
18148SOL     OW66422  10.747   4.229   7.030  0.1668 -0.3661  0.3814
18148SOL    HW166423  10.776   4.296   7.092 -3.6653 -0.9182  3.1400
18148SOL    HW266424  10.671   4.268   6.985 -0.9185 -2.0892  0.6005
18149SOL     OW66425   7.890   7.426   8.795 -0.7134  0.2669  0.4694
18149SOL    HW166426   7.918   7.471   8.875 -3.6625  3.0030  0.1728
18149SOL    HW266427   7.966   7.432   8.736  0.4229  1.0691  1.9392
18150SOL     OW66428  10.894   1.251   1.043  0.1284  0.0200 -0.3737
18150SOL    HW166429  10.884   1.200   1.123  0.8164 -0.8851 -0.8375
18150SOL    HW266430  10.979   1.294   1.052 -0.0960  0.4626 -0.3321
18151SOL     OW66431   0.745   0.449   7.713  0.6520 -0.4340 -0.3363
18151SOL    HW166432   0.786   0.431   7.798 -1.6259 -3.2185  0.3388
18151SOL    HW266433   0.670   0.504   7.735  1.3858  0.8501 -0.9403
18152SOL     OW66434   3.201   5.632   5.054 -0.6842 -1.0515  0.0066
18152SOL    HW166435   3.127   5.691   5.039 -0.7398 -0.7341  1.3907
18152SOL    HW266436   3.180   5.589   5.137  0.2187 -1.6965 -0.0932
18153SOL     OW66437   5.228   5.933  12.036  0.0998 -0.7117  0.0055
18153SOL    HW166438   5.240   5.908  12.128  1.5939  0.7135  0.2398
18153SOL    HW266439   5.248   6.026  12.034  1.7000 -1.0466 -2.0264
18154SOL     OW66440   0.955   9.626   8.618 -0.8842  0.3979  0.0071
18154SOL    HW166441   0.865   9.649   8.642 -0.5572  2.0357 -0.2379
18154SOL    HW266442   0.949   9.595   8.528 -0.9370  2.7554 -0.8671
18155SOL     OW66443   8.252   8.011  10.907 -0.2966  0.3174  0.7746
18155SOL    HW166444   8.337   7.969  10.895 -1.0235 -0.7599 -1.0327
18155SOL    HW266445   8.195   7.941  10.941 -0.9192  0.5063  0.1328
18156SOL     OW66446   0.942   6.619   4.645 -0.1229 -0.5290  0.3476
18156SOL    HW166447   1.024   6.582   4.679  0.7319  1.6931  0.8407
18156SOL    HW266448   0.874   6.568   4.688  0.9697 -1.6597  0.8259
18157SOL     OW66449  11.801  12.699   2.944  0.3627 -0.1411 -0.9159
18157SOL    HW166450  11.881  12.680   2.896 -0.3472 -0.1174 -2.1501
18157SOL    HW266451  11.825  12.688   3.036  1.2437 -2.2487 -1.3274
18158SOL     OW66452   4.948   9.813  13.170 -0.2105 -0.4479  0.0510
18158SOL    HW166453   5.016   9.747  13.186 -0.6311 -1.7625 -2.7534
18158SOL    HW266454   4.995   9.886  13.130 -0.1925 -0.6521 -0.3129
18159SOL     OW66455  13.454   7.495   7.915 -0.3457  0.2732  0.1779
18159SOL    HW166456  13.447   7.399   7.911 -0.3804  0.1708  1.8649
18159SOL    HW266457  13.538   7.515   7.875 -1.9842 -0.0433 -3.9446
18160SOL     OW66458   9.743   7.672   7.377  0.6493  0.2965  0.0829
18160SOL    HW166459   9.709   7.587   7.403 -1.2074  0.5471 -1.2390
18160SOL    HW266460   9.838   7.665   7.387  0.4951 -1.7083  0.5634
18161SOL     OW66461   9.398   6.947   5.664 -0.1754 -0.1225 -0.5222
18161SOL    HW166462   9.431   6.945   5.754 -0.9299  0.3072 -0.2287
18161SOL    HW266463   9.456   7.008   5.619 -0.0141 -0.0643 -0.2409
18162SOL     OW66464  11.111   3.801   1.444  0.2179 -0.1413  0.4069
18162SOL    HW166465  11.102   3.895   1.456  0.8459 -0.0058 -0.1278
18162SOL    HW266466  11.126   3.790   1.350  1.2067 -0.6855  0.6102
18163SOL     OW66467  10.273   4.319   0.722  0.0971 -0.1352  0.6471
18163SOL    HW166468  10.201   4.375   0.695 -1.3165 -1.3743  1.7109
18163SOL    HW266469  10.313   4.289   0.640  1.2205  2.7346  0.0389
18164SOL     OW66470   1.427   2.750  13.605 -0.2292  0.3961  0.0037
18164SOL    HW166471   1.491   2.802  13.557 -1.5112  3.4333  1.3013
18164SOL    HW266472   1.461   2.746  13.694 -2.0406  2.6412  0.8765
18165SOL     OW66473   8.875  11.715   8.310 -0.5923  0.0947  0.3507
18165SOL    HW166474   8.916  11.640   8.353  1.0445  0.9221  0.3125
18165SOL    HW266475   8.947  11.758   8.263 -1.3490  2.0599  0.8885
18166SOL     OW66476  12.411   3.458  11.692  0.4308 -0.6864 -0.1998
18166SOL    HW166477  12.431   3.416  11.608  0.8614 -1.3591  0.2271
18166SOL    HW266478  12.349   3.398  11.735 -1.6857  0.8180 -1.0225
18167SOL     OW66479   9.067  10.223  10.840 -0.2882  0.0666 -0.9274
18167SOL    HW166480   9.010  10.287  10.882  1.1443  0.1577  1.0301
18167SOL    HW266481   9.015  10.143  10.836 -1.3069  0.7277 -1.2925
18168SOL     OW66482  13.715   7.408   4.790 -0.0201  0.5587  0.1745
18168SOL    HW166483  13.713   7.503   4.786  1.5353  0.6994  1.6074
18168SOL    HW266484  13.750   7.388   4.877 -1.2014 -1.3421  0.2816
18169SOL     OW66485   0.649   8.822   5.605 -0.4323 -0.5863  0.6830
18169SOL    HW166486   0.680   8.909   5.579  0.1317 -0.4864  1.6760
18169SOL    HW266487   0.567   8.838   5.651 -0.6694 -0.6433  0.2880
18170SOL     OW66488  11.260   5.753   7.046  0.0644  0.2705 -0.2329
18170SOL    HW166489  11.347   5.765   7.008 -0.1885  2.3666 -0.2999
18170SOL    HW266490  11.206   5.719   6.974  0.5251  0.2381 -0.5650
18171SOL     OW66491   5.395   8.211   8.582  0.1109 -0.1095 -0.2977
18171SOL    HW166492   5.325   8.195   8.646  1.5468 -1.5335  0.9981
18171SOL    HW266493   5.349   8.229   8.500 -1.7825 -2.1558  0.2373
18172SOL     OW66494   5.237   5.077  11.374  0.5484  0.3831 -0.2695
18172SOL    HW166495   5.186   5.000  11.351 -2.1541  1.7120  0.8134
18172SOL    HW266496   5.200   5.147  11.321  1.3739  1.3815  0.4317
18173SOL     OW66497  13.733   3.449  11.031 -0.2418 -0.2412  0.1266
18173SOL    HW166498  13.800   3.445  11.099  0.5538 -1.4108 -0.7098
18173SOL    HW266499  13.779   3.433  10.949 -1.4223 -0.3127 -0.5523
18174SOL     OW66500   4.524   5.481   4.845  0.6670 -0.1838 -0.9645
18174SOL    HW166501   4.469   5.480   4.924  2.2779 -0.9881  0.1905
18174SOL    HW266502   4.566   5.567   4.847 -1.5876  1.0924 -2.6936
18175SOL     OW66503   5.662   1.076   9.572 -0.0619  0.0067  0.7999
18175SOL    HW166504   5.683   0.990   9.536  3.9757  0.3543  1.8620
18175SOL    HW266505   5.639   1.129   9.495  1.2214 -1.0886 -0.4000
18176SOL     OW66506   5.304   3.367  10.357  0.3780 -0.0499 -0.1943
18176SOL    HW166507   5.361   3.312  10.304  1.1043 -0.2481  0.7494
18176SOL    HW266508   5.362   3.435  10.391  0.0908 -0.3018  0.8506
18177SOL     OW66509  13.999  11.311   6.332  0.2139 -0.2025  0.3933
18177SOL    HW166510  13.953  11.292   6.414  1.0354  0.3640  1.0053
18177SOL    HW266511  13.943  11.274   6.264 -1.5188  1.0680  1.0400
18178SOL     OW66512   3.127   7.723  10.680  0.0816  0.1784  0.7061
18178SOL    HW166513   3.096   7.805  10.642 -0.5124 -0.1382  0.5019
18178SOL    HW266514   3.218   7.742  10.706  0.3942  0.5031 -0.5352
18179SOL     OW66515   8.034  12.023   0.336  0.3704 -0.2484  0.3104
18179SOL    HW166516   8.125  12.033   0.308  0.0299 -0.9880 -1.1814
18179SOL    HW266517   7.983  12.032   0.255 -0.9259  0.5516  1.1726
18180SOL     OW66518   5.351   4.843   2.668  0.5085  0.5247 -0.1438
18180SOL    HW166519   5.342   4.830   2.573  0.1592  1.0125 -0.1786
18180SOL    HW266520   5.445   4.857   2.681  0.4695  1.1514 -0.5099
18181SOL     OW66521  12.784   2.476   4.394 -0.0144 -0.2368  0.4309
18181SOL    HW166522  12.724   2.406   4.368 -0.6020  0.6974 -0.8445
18181SOL    HW266523  12.793   2.466   4.489 -1.7140 -0.7939  0.5678
18182SOL     OW66524   5.994   3.908   6.224 -0.1158 -0.1260 -0.7285
18182SOL    HW166525   6.053   3.885   6.153  0.5995 -1.3307  0.2011
18182SOL    HW266526   6.015   3.999   6.245  1.8189 -0.6646 -0.1026
18183SOL     OW66527  12.660   2.905   7.514  0.3139 -0.6177  0.6928
18183SOL    HW166528  12.736   2.937   7.465  0.0507  0.6226  1.0522
18183SOL    HW266529  12.636   2.978   7.571  0.3787 -1.8727  2.4146
18184SOL     OW66530   6.295  10.920   7.664  0.4594  0.2826  1.1449
18184SOL    HW166531   6.316  10.842   7.612  0.7338  0.1047  1.5086
18184SOL    HW266532   6.380  10.946   7.702  0.1690  0.0510  1.9784
18185SOL     OW66533   7.801   9.721  12.323  0.2772  0.3378 -0.4235
18185SOL    HW166534   7.883   9.690  12.285  0.9633 -0.0671  1.3195
18185SOL    HW266535   7.738   9.651  12.304  0.5773  0.1796 -0.8601
18186SOL     OW66536  13.521   6.089  10.870 -0.4459  0.5351  0.4478
18186SOL    HW166537  13.551   6.023  10.934 -1.1131 -0.3887 -0.1667
18186SOL    HW266538  13.434   6.115  10.900  0.1016  1.7046  1.0928
18187SOL     OW66539   4.916  13.253   7.819  0.0128 -0.0089  0.2171
18187SOL    HW166540   4.877  13.234   7.734 -1.7488 -1.3232  1.2538
18187SOL    HW266541   4.986  13.189   7.829 -0.6670 -0.7484  0.3080
18188SOL     OW66542  11.276   9.406  12.238 -0.1959  0.1856 -0.1052
18188SOL    HW166543  11.198   9.354  12.259 -0.6323  0.7321 -0.3284
18188SOL    HW266544  11.313   9.430  12.322  1.5793 -2.6947  0.0988
18189SOL     OW66545   5.175  12.862   6.259  0.0237  0.2076 -0.3923
18189SOL    HW166546   5.138  12.825   6.339  1.2498 -1.2806 -0.4699
18189SOL    HW266547   5.171  12.792   6.195 -0.0115  1.0634 -1.3547
18190SOL     OW66548   4.232  13.833  13.788  0.4655  0.0896  0.3136
18190SOL    HW166549   4.146  13.874  13.779  0.4892 -0.2725 -2.3265
18190SOL    HW266550   4.291  13.889  13.736  0.7079 -2.5062 -2.5002
18191SOL     OW66551  10.745  10.188   7.133  0.2521 -0.0418 -0.5107
18191SOL    HW166552  10.730  10.095   7.147 -1.4414  0.1842 -0.6317
18191SOL    HW266553  10.667  10.219   7.087  0.1746  1.6886  0.6810
18192SOL     OW66554   6.502   2.793   4.105  0.2501 -0.3758 -0.3837
18192SOL    HW166555   6.429   2.770   4.163 -0.4198 -1.0532 -1.4744
18192SOL    HW266556   6.506   2.889   4.109 -0.3982 -0.3547  0.0437
18193SOL     OW66557   6.351   3.400   8.987  0.0067 -0.2383  0.8869
18193SOL    HW166558   6.412   3.473   8.996 -0.4422  0.0103  2.1394
18193SOL    HW266559   6.407   3.322   8.987  0.4098  0.0485  0.8398
18194SOL     OW66560   5.676   1.004   7.827  0.3470  0.2983 -0.7222
18194SOL    HW166561   5.705   1.073   7.887 -0.3003  1.1216 -1.3175
18194SOL    HW266562   5.744   1.001   7.760  1.2641 -0.8851  0.2176
18195SOL     OW66563  13.425   5.014   1.067  0.0017 -0.0978 -0.2322
18195SOL    HW166564  13.477   5.053   1.137  0.3708  0.0626 -0.5912
18195SOL    HW266565  13.343   4.988   1.109  1.5158 -3.2854  1.1132
18196SOL     OW66566   9.607   7.849   1.435  0.0631  0.0444  0.6802
18196SOL    HW166567   9.536   7.911   1.453 -0.4590 -0.5565  0.7435
18196SOL    HW266568   9.672   7.865   1.504 -0.7263 -0.4547  1.5654
18197SOL     OW66569  12.641   4.454   9.722  0.4493  0.0498 -0.4006
18197SOL    HW166570  12.666   4.520   9.658 -1.4333  1.9131  0.6707
18197SOL    HW266571  12.721   4.438   9.772  1.5878 -0.4444 -2.2976
18198SOL     OW66572   3.005   8.313  13.341  0.2348 -0.3950 -0.0352
18198SOL    HW166573   2.957   8.343  13.264  0.4059 -2.0381 -0.8190
18198SOL    HW266574   3.094   8.345  13.327  0.0040  0.3141  0.0717
18199SOL     OW66575   2.490   3.557  10.783  0.8954 -0.5526  0.5526
18199SOL    HW166576   2.414   3.582  10.730  0.2823 -0.7654  1.3061
18199SOL    HW266577   2.452   3.512  10.859  1.7069  0.2468  1.4622
18200SOL     OW66578  13.662   4.227  12.537 -0.0623  0.3348  0.2577
18200SOL    HW166579  13.626   4.270  12.459 -0.8465  2.0360  1.4920
18200SOL    HW266580  13.697   4.144  12.504 -2.4705 -0.1058 -1.5261
18201SOL     OW66581   4.248  10.819  11.689 -0.2281  0.2127 -0.1447
18201SOL    HW166582   4.199  10.771  11.756 -0.2971 -0.1813 -0.4732
18201SOL    HW266583   4.309  10.755  11.653  0.2526  0.5934 -0.0197
18202SOL     OW66584  12.210  10.303   5.249  0.4634 -0.0039 -0.1167
18202SOL    HW166585  12.252  10.257   5.322  0.5649  2.1794  1.2819
18202SOL    HW266586  12.155  10.370   5.290  0.1752  1.0257 -2.0386
18203SOL     OW66587   5.735   4.420  11.966 -0.0340 -0.1270  0.1189
18203SOL    HW166588   5.694   4.342  12.004  2.5060 -1.0867  1.0873
18203SOL    HW266589   5.821   4.390  11.936  0.8320  2.2145  0.0512
18204SOL     OW66590   3.869   5.883   3.549  0.1049  0.4845 -0.6978
18204SOL    HW166591   3.928   5.840   3.611 -1.9942 -0.3225  0.8858
18204SOL    HW266592   3.829   5.811   3.500  0.5587  1.0238 -1.8957
18205SOL     OW66593  10.261   9.315  11.348  0.4463 -0.2645 -0.2687
18205SOL    HW166594  10.286   9.324  11.440 -0.1735  0.2314 -0.1385
18205SOL    HW266595  10.217   9.398  11.328  2.2449  0.4346 -1.5661
18206SOL     OW66596  13.766   9.325  10.403 -0.2230 -0.1924 -0.1852
18206SOL    HW166597  13.713   9.272  10.343  0.1134 -0.5811 -0.1438
18206SOL    HW266598  13.704   9.386  10.442 -1.0238 -1.8123  1.2284
18207SOL     OW66599  10.261  11.037  13.298 -0.1370  0.5190 -0.0353
18207SOL    HW166600  10.308  11.056  13.379  1.3062 -1.3824 -0.3396
18207SOL    HW266601  10.300  11.097  13.234 -1.2458  1.9878  0.6188
18208SOL     OW66602   7.336   1.182   8.049 -0.5167 -0.2898 -0.4944
18208SOL    HW166603   7.356   1.166   8.141 -0.5364  2.0451 -0.0064
18208SOL    HW266604   7.421   1.180   8.005 -0.5746 -2.1028 -0.6038
18209SOL     OW66605   3.361   5.891   1.948  0.0806  0.1146  0.1151
18209SOL    HW166606   3.328   5.848   2.027 -0.4646 -1.2405 -0.8098
18209SOL    HW266607   3.315   5.847   1.876  0.1778  1.6618 -0.9359
18210SOL     OW66608  10.481   3.389  11.593 -0.1398 -0.5067  0.0831
18210SOL    HW166609  10.439   3.448  11.531 -1.6990 -0.3199  1.2519
18210SOL    HW266610  10.441   3.410  11.677  1.4928 -1.1409  1.0701
18211SOL     OW66611   3.021  12.120   3.429 -0.3849  0.3975 -0.1306
18211SOL    HW166612   3.001  12.047   3.487 -0.4012 -1.5145 -2.4155
18211SOL    HW266613   3.114  12.138   3.443 -0.2529 -0.4275  0.0596
18212SOL     OW66614   7.719   5.873   4.711 -0.2129  0.2234  0.0322
18212SOL    HW166615   7.663   5.809   4.666  0.3754  0.5798 -1.2660
18212SOL    HW266616   7.697   5.957   4.670 -0.7326  0.8157  1.4815
18213SOL     OW66617   2.374   2.945   1.476 -0.1580  0.4440 -0.6347
18213SOL    HW166618   2.444   2.907   1.423  0.9677 -0.3430  1.3137
18213SOL    HW266619   2.325   2.869   1.508  2.1222  0.3855  3.3227
18214SOL     OW66620   9.807  12.757   2.195 -0.1008  0.0935 -0.3079
18214SOL    HW166621   9.881  12.815   2.178  0.0438  0.0309  0.0978
18214SOL    HW266622   9.841  12.693   2.258 -0.2053 -0.5309 -0.8715
18215SOL     OW66623   6.546   5.666  11.810 -0.0217  0.5219 -0.1745
18215SOL    HW166624   6.584   5.709  11.887 -1.1859 -2.5532  2.3649
18215SOL    HW266625   6.453   5.688  11.814  0.1884  2.0364 -2.0670
18216SOL     OW66626   0.073   9.061   7.600 -0.5589  0.7135  0.6499
18216SOL    HW166627  -0.023   9.065   7.610 -0.5101  2.3902  0.7896
18216SOL    HW266628   0.087   8.991   7.537 -1.7870 -0.4602  1.6193
18217SOL     OW66629   8.592   0.600   1.518  0.8466 -0.2922  0.0582
18217SOL    HW166630   8.608   0.667   1.452  1.3239  0.2917  0.7567
18217SOL    HW266631   8.503   0.617   1.549  1.2028  0.4537  0.7086
18218SOL     OW66632   6.722  12.756   1.532 -0.1817  0.3017  0.4806
18218SOL    HW166633   6.689  12.804   1.456  1.1369 -0.5638 -0.7020
18218SOL    HW266634   6.785  12.815   1.572 -0.6754  0.6543  0.7489
18219SOL     OW66635  13.740   0.229   9.916  0.6166 -0.1339  0.1484
18219SOL    HW166636  13.683   0.305   9.925  0.0298 -0.4322 -0.9138
18219SOL    HW266637  13.774   0.235   9.827  0.2339 -1.3210 -0.1001
18220SOL     OW66638   8.673   0.029   1.802  0.5026  0.0487 -0.3629
18220SOL    HW166639   8.735   0.088   1.845 -1.2704  2.4090 -0.8733
18220SOL    HW266640   8.725  -0.015   1.734  2.1180  0.1606  0.7351
18221SOL     OW66641   6.282  11.682   9.031  0.8197 -0.3161 -0.1688
18221SOL    HW166642   6.373  11.711   9.029  1.5614 -2.4621 -0.4335
18221SOL    HW266643   6.255  11.679   8.940  1.0432 -1.2032 -0.2190
18222SOL     OW66644   9.725   4.067   3.542 -0.2976  0.0364 -0.6464
18222SOL    HW166645   9.712   4.014   3.463 -0.1431  0.4209 -0.9357
18222SOL    HW266646   9.813   4.103   3.532  0.5215 -1.4600  0.6403
18223SOL     OW66647   5.808  13.947   2.632  0.3410  0.4377 -0.1065
18223SOL    HW166648   5.821  14.018   2.569 -0.8839  0.1480 -0.7034
18223SOL    HW266649   5.725  13.967   2.674  0.9468  0.4079  1.1591
18224SOL     OW66650   4.952   8.312   3.895  0.7961  0.3095  0.1130
18224SOL    HW166651   4.997   8.242   3.943 -0.1245 -0.0910  0.4067
18224SOL    HW266652   5.018   8.380   3.886  1.9501 -0.8769 -0.8116
18225SOL     OW66653   8.310   0.600   1.517 -0.2086 -0.0660  0.1154
18225SOL    HW166654   8.300   0.689   1.484  0.2913  0.3307  1.0214
18225SOL    HW266655   8.286   0.545   1.442 -0.0087  0.8168 -0.6238
18226SOL     OW66656  10.378  12.719   9.532  0.2132 -0.2738 -0.1670
18226SOL    HW166657  10.471  12.721   9.555  0.3013  0.2656 -0.5428
18226SOL    HW266658  10.370  12.648   9.469  0.2966 -0.5728  0.1552
18227SOL     OW66659  12.988   1.034   2.693  0.1542 -0.1021  0.0898
18227SOL    HW166660  12.961   0.950   2.730 -1.0246  0.2896  0.1488
18227SOL    HW266661  13.069   1.055   2.739 -0.5243 -0.3077  1.4156
18228SOL     OW66662   1.631  12.664  11.595 -0.1214  0.0241  0.1544
18228SOL    HW166663   1.629  12.582  11.546 -0.2662 -0.0501  0.2848
18228SOL    HW266664   1.546  12.669  11.638 -0.9678  1.2293 -1.5061
18229SOL     OW66665  12.392   8.934   3.105 -0.0999 -0.1502 -0.0205
18229SOL    HW166666  12.350   8.957   3.022  0.6095  0.8052 -0.1296
18229SOL    HW266667  12.486   8.936   3.086  0.0921  0.7578  0.9684
18230SOL     OW66668  13.273   0.214   8.188 -0.3452 -0.2967 -0.0780
18230SOL    HW166669  13.285   0.294   8.238  0.9139 -0.9222  0.6850
18230SOL    HW266670  13.223   0.157   8.246  0.9297 -0.9445  0.4368
18231SOL     OW66671   2.215   9.187  13.112 -0.2732  0.3812  0.1673
18231SOL    HW166672   2.131   9.189  13.065 -0.0422  0.9648 -0.2296
18231SOL    HW266673   2.259   9.108  13.079 -1.3489 -0.8900  1.6150
18232SOL     OW66674   8.238   8.606   4.023 -0.6245 -0.4087 -0.5623
18232SOL    HW166675   8.208   8.697   4.032 -0.2295 -0.0375 -2.5860
18232SOL    HW266676   8.274   8.584   4.109 -2.5854  0.6360  0.6006
18233SOL     OW66677   9.903  12.204  12.837 -0.7203 -0.2286 -0.0551
18233SOL    HW166678   9.880  12.275  12.776  0.1742  1.9464  2.0025
18233SOL    HW266679   9.994  12.222  12.861 -1.0025 -1.0900  1.7927
18234SOL     OW66680   8.858   5.092  13.220 -0.1953 -0.2547  0.8114
18234SOL    HW166681   8.843   5.161  13.155  0.4213  0.2166  1.1560
18234SOL    HW266682   8.921   5.033  13.179 -0.6304 -0.5492  0.5643
18235SOL     OW66683  11.566   6.551   1.774 -0.8330 -0.4280  0.2757
18235SOL    HW166684  11.538   6.461   1.791 -1.7670 -0.0596  0.7507
18235SOL    HW266685  11.566   6.558   1.678 -1.1790 -0.8080  0.2464
18236SOL     OW66686   7.312   7.337  12.590  0.1356  0.6493  0.2430
18236SOL    HW166687   7.279   7.327  12.679  2.9148 -2.2558  1.1518
18236SOL    HW266688   7.281   7.260  12.543 -0.3048  1.5457 -0.9915
18237SOL     OW66689   6.807   8.246  11.134  0.4507 -0.8686  0.2434
18237SOL    HW166690   6.792   8.340  11.132 -1.6926 -1.1246  1.6984
18237SOL    HW266691   6.814   8.221  11.042 -1.4560  0.3695 -0.2892
18238SOL     OW66692   6.690   0.872  10.728 -0.1901  0.0143  0.4895
18238SOL    HW166693   6.616   0.825  10.766 -1.7483 -0.0118 -2.3303
18238SOL    HW266694   6.672   0.964  10.745  0.2338 -0.0759  1.5521
18239SOL     OW66695   2.851   0.263  13.229 -0.8158 -0.0293  0.2842
18239SOL    HW166696   2.824   0.172  13.236 -1.1015 -0.0125 -0.4923
18239SOL    HW266697   2.931   0.268  13.281 -1.1695 -0.5544  0.9030
18240SOL     OW66698   2.927   6.873   5.361  0.0731  0.6165  0.6266
18240SOL    HW166699   2.871   6.917   5.296  0.6004  0.3241 -0.0296
18240SOL    HW266700   2.933   6.783   5.331  0.2225  0.4439  1.1573
18241SOL     OW66701   0.466  11.561   2.485 -0.0949  0.3962 -0.2029
18241SOL    HW166702   0.527  11.515   2.427 -0.1853  1.3267 -1.0778
18241SOL    HW266703   0.382  11.557   2.438 -1.0962 -2.0584  1.6080
18242SOL     OW66704   1.612   5.075   3.929 -0.0231  0.1686  0.0849
18242SOL    HW166705   1.612   4.995   3.981  1.2688 -0.7712 -1.3203
18242SOL    HW266706   1.543   5.062   3.864  0.5910 -0.0700 -0.5246
18243SOL     OW66707  13.114  12.241   6.027  0.0774 -0.3846  0.4269
18243SOL    HW166708  13.204  12.269   6.039 -0.2375  0.2155  1.5364
18243SOL    HW266709  13.118  12.145   6.031  0.9373 -0.4948 -1.7642
18244SOL     OW66710   2.554   2.119  10.189 -0.1276  0.5808 -0.3234
18244SOL    HW166711   2.507   2.154  10.265  2.2812  2.2042  0.5296
18244SOL    HW266712   2.540   2.024  10.195 -1.0628  0.7695  1.3886
18245SOL     OW66713  10.605  10.462  10.864  0.4303  0.2564 -0.4141
18245SOL    HW166714  10.536  10.482  10.801 -0.3758  1.0975  0.6844
18245SOL    HW266715  10.563  10.475  10.950  0.9946 -2.4234  0.3587
18246SOL     OW66716  12.883   3.331   2.459 -0.0945 -0.5003  0.0341
18246SOL    HW166717  12.970   3.314   2.423  0.6905  1.4869  0.8405
18246SOL    HW266718  12.898   3.341   2.553 -1.1686  0.0186  0.1627
18247SOL     OW66719   4.132  10.397   5.802 -0.8305  0.3554 -0.2939
18247SOL    HW166720   4.129  10.382   5.707 -1.7410  1.2280 -0.4170
18247SOL    HW266721   4.194  10.331   5.834 -2.4864 -1.7608 -1.1406
18248SOL     OW66722   9.165   5.167  12.664  0.0834 -0.0312 -0.3541
18248SOL    HW166723   9.166   5.221  12.742  1.7147 -3.0871  1.9872
18248SOL    HW266724   9.161   5.077  12.697  1.3970 -1.5325 -3.7480
18249SOL     OW66725   0.381   2.765  13.627 -0.4005  0.4384  0.3267
18249SOL    HW166726   0.353   2.846  13.584 -0.9604 -1.4116 -3.2267
18249SOL    HW266727   0.313   2.701  13.604  1.0385 -1.5289  1.1964
18250SOL     OW66728   6.367   6.017  11.749 -0.1671 -0.3517  0.1177
18250SOL    HW166729   6.350   5.933  11.791  1.2486 -0.5940  0.2507
18250SOL    HW266730   6.361   5.999  11.655 -1.2459 -0.2747  0.1591
18251SOL     OW66731  11.839   7.028   5.463  0.0642 -0.0706  0.8328
18251SOL    HW166732  11.819   7.111   5.419  2.1635  0.0065 -0.0917
18251SOL    HW266733  11.755   6.983   5.468 -0.9560  1.6937  0.4876
18252SOL     OW66734  10.333   2.266  10.059  0.2817 -0.4384  0.6581
18252SOL    HW166735  10.350   2.280   9.966  0.4149  1.3584  0.9041
18252SOL    HW266736  10.331   2.171  10.069  2.3652 -0.7267 -0.7951
18253SOL     OW66737   7.683   7.064   4.743 -0.1270 -0.4917  0.1315
18253SOL    HW166738   7.589   7.046   4.742 -0.0598 -0.8552  0.4233
18253SOL    HW266739   7.704   7.088   4.653 -0.3252 -1.3068 -0.1364
18254SOL     OW66740   2.800   0.832   3.256 -0.4311 -0.1312  0.1039
18254SOL    HW166741   2.789   0.897   3.187  0.9023 -1.5346 -1.5371
18254SOL    HW266742   2.887   0.796   3.241 -1.3064 -2.6429  0.5987
18255SOL     OW66743   6.346   6.309  12.494  0.0813  0.0345  0.1253
18255SOL    HW166744   6.331   6.282  12.404  0.4999  1.0022 -0.2475
18255SOL    HW266745   6.423   6.260  12.522 -0.7523 -1.1750  0.3786
18256SOL     OW66746  10.527  12.248   8.934  0.5258 -0.2372  0.1873
18256SOL    HW166747  10.561  12.300   8.861 -0.6619  2.2958  1.3127
18256SOL    HW266748  10.592  12.260   9.004 -0.1786  0.5285  0.7332
18257SOL     OW66749   4.557   7.755  13.514  0.1753  0.0170  0.5232
18257SOL    HW166750   4.552   7.710  13.598  0.3492  0.0699  0.5624
18257SOL    HW266751   4.544   7.848  13.535  1.9242  0.2558  0.7228
18258SOL     OW66752   1.851   2.532   7.583  0.5123 -0.0977 -0.0869
18258SOL    HW166753   1.939   2.561   7.604  0.3976  0.2024 -0.0150
18258SOL    HW266754   1.803   2.538   7.666  0.4182 -0.2414 -0.1298
18259SOL     OW66755   8.291   6.773   6.963 -0.1219  0.0971  0.3717
18259SOL    HW166756   8.375   6.813   6.985  0.4144  0.7451 -2.4682
18259SOL    HW266757   8.235   6.847   6.940 -1.1284 -0.4169  1.1025
18260SOL     OW66758   8.719   5.025  11.774  0.5489 -0.5308 -0.2962
18260SOL    HW166759   8.709   4.931  11.789 -1.5150  0.0474  3.0323
18260SOL    HW266760   8.811   5.042  11.794  0.5128 -1.6352  1.0520
18261SOL     OW66761  11.840   2.090   8.866  0.1004 -0.0399 -0.1276
18261SOL    HW166762  11.863   2.046   8.784  0.6769  0.5835 -0.3059
18261SOL    HW266763  11.838   2.019   8.931 -1.0039 -0.6411 -0.7878
18262SOL     OW66764   8.894  11.844   2.958  0.4052  0.0282 -0.2023
18262SOL    HW166765   8.989  11.849   2.968  0.2031  0.1567  2.0176
18262SOL    HW266766   8.873  11.753   2.978 -0.0436  0.2656  0.4149
18263SOL     OW66767   2.233   4.094   4.602  0.7168  0.0031  0.6069
18263SOL    HW166768   2.187   4.014   4.628  1.0588 -0.3611  0.1105
18263SOL    HW266769   2.217   4.102   4.508  0.4798  0.6563  0.6988
18264SOL     OW66770   7.634  11.648   3.032  0.0268  0.2349  0.0032
18264SOL    HW166771   7.625  11.718   2.967  0.1154  0.9491  0.7503
18264SOL    HW266772   7.618  11.568   2.982 -0.4902  0.8088 -0.7841
18265SOL     OW66773  11.411   7.741   4.633 -0.8555  0.3067 -0.0680
18265SOL    HW166774  11.371   7.656   4.614  0.0028  0.1856 -1.4558
18265SOL    HW266775  11.474   7.755   4.563  1.0407  0.8345  1.6343
18266SOL     OW66776   5.752   3.274   9.840  0.1603  0.8518  0.0267
18266SOL    HW166777   5.699   3.222   9.780  0.5474 -1.1920  1.3645
18266SOL    HW266778   5.701   3.354   9.853 -0.9243  0.4406 -1.3516
18267SOL     OW66779   3.806  10.780   5.153  0.7543 -0.0058  0.5168
18267SOL    HW166780   3.796  10.844   5.224 -1.4933 -1.6447  1.8028
18267SOL    HW266781   3.729  10.724   5.160  1.5938 -1.6085 -1.8620
18268SOL     OW66782   6.687  10.111   2.450 -0.4151 -0.1410 -0.0091
18268SOL    HW166783   6.603  10.068   2.433 -1.2196  0.8837  1.1987
18268SOL    HW266784   6.691  10.118   2.545  0.3668  1.1236 -0.1101
18269SOL     OW66785   9.778  10.912  13.899  0.6070  0.6707 -0.3340
18269SOL    HW166786   9.746  10.835  13.853  1.1842  0.4622 -0.3991
18269SOL    HW266787   9.812  10.968  13.830  0.0196  1.0718 -0.3037
18270SOL     OW66788  11.470  10.450   3.472  0.1922  0.9718 -0.3401
18270SOL    HW166789  11.525  10.371   3.476  0.1496  1.0039  1.5952
18270SOL    HW266790  11.381  10.417   3.487  0.0566  1.2808 -0.4757
18271SOL     OW66791  13.400   1.883   2.328 -0.5551  0.3666  0.0226
18271SOL    HW166792  13.345   1.961   2.338  0.2835  1.3213 -2.2200
18271SOL    HW266793  13.386   1.856   2.237 -0.4798 -1.8813  0.6180
18272SOL     OW66794   0.511   7.799   6.482  0.1191 -0.8646  0.3693
18272SOL    HW166795   0.537   7.751   6.561 -2.1915 -0.1875  1.6382
18272SOL    HW266796   0.532   7.890   6.501 -0.8259 -0.6428  0.4191
18273SOL     OW66797   3.577   3.087  10.599 -0.1340  0.0542 -0.3919
18273SOL    HW166798   3.666   3.071  10.567  0.0193  1.6538 -0.8252
18273SOL    HW266799   3.589   3.126  10.685 -0.4987 -1.9023  0.5983
18274SOL     OW66800   3.408  12.088  13.436  0.0086 -0.0971 -0.6242
18274SOL    HW166801   3.357  12.100  13.516 -1.0729  1.9098 -1.5409
18274SOL    HW266802   3.498  12.107  13.462 -0.2223 -0.2059  0.2792
18275SOL     OW66803  13.772  13.555  10.249  0.0979  0.4052 -0.2048
18275SOL    HW166804  13.792  13.648  10.253  0.5005  0.3535 -0.9224
18275SOL    HW266805  13.858  13.512  10.253 -0.0050  0.1093 -1.0350
18276SOL     OW66806   2.140   7.238   2.212  0.2128 -0.1221 -0.0202
18276SOL    HW166807   2.157   7.232   2.306 -1.1809  1.4096  0.3788
18276SOL    HW266808   2.109   7.328   2.199  2.2867  0.3731 -2.2812
18277SOL     OW66809   0.761   3.905   6.457  0.5363 -0.8674  0.4050
18277SOL    HW166810   0.704   3.847   6.406  0.4884 -0.8314  0.4177
18277SOL    HW266811   0.823   3.940   6.393  0.1767 -0.4493  0.2828
18278SOL     OW66812   0.337   4.885  13.332  0.0512 -0.3965  0.5132
18278SOL    HW166813   0.363   4.921  13.417  0.2348 -0.2749  0.4069
18278SOL    HW266814   0.276   4.950  13.296  1.1307  0.2983 -0.1099
18279SOL     OW66815   8.213   7.633   4.300  0.2492  0.5571 -0.0028
18279SOL    HW166816   8.168   7.663   4.380  0.8391 -0.2211  0.6365
18279SOL    HW266817   8.306   7.643   4.321  0.4366 -0.9353 -0.0792
18280SOL     OW66818   9.564   8.624  13.837 -0.1461  0.4009 -0.4985
18280SOL    HW166819   9.660   8.619  13.838 -0.1561 -0.2902 -1.2934
18280SOL    HW266820   9.542   8.628  13.744 -0.8753  1.0720 -0.3041
18281SOL     OW66821   6.038  10.242  13.921  0.3777  0.2299  0.6328
18281SOL    HW166822   6.089  10.199  13.852 -0.9314  0.0904 -0.3022
18281SOL    HW266823   5.964  10.282  13.874 -1.4468 -1.2125  2.1114
18282SOL     OW66824  12.793   4.134   3.605  0.3047 -0.2385  0.6573
18282SOL    HW166825  12.807   4.140   3.700 -0.3155 -0.6538  0.7834
18282SOL    HW266826  12.726   4.065   3.595  0.4423 -0.2722 -0.0867
18283SOL     OW66827   3.710   8.299   9.306  0.1554  0.2839 -0.4602
18283SOL    HW166828   3.798   8.299   9.344  0.2598  1.3457 -0.6707
18283SOL    HW266829   3.723   8.264   9.218  0.5496  1.3535 -0.8449
18284SOL     OW66830   2.368   6.429  13.012  0.4942  0.4544 -0.6427
18284SOL    HW166831   2.367   6.384  13.096  2.1891 -0.3979 -1.0285
18284SOL    HW266832   2.302   6.498  13.021 -0.3403 -0.4910  0.8707
18285SOL     OW66833   4.526  10.780  11.515 -1.0176  0.5114  0.0299
18285SOL    HW166834   4.491  10.770  11.426 -0.9388  1.8174 -0.1745
18285SOL    HW266835   4.573  10.863  11.512  1.7545 -0.9329  0.4187
18286SOL     OW66836  13.662   2.171   4.713 -0.8334  0.8080 -0.4916
18286SOL    HW166837  13.623   2.188   4.627 -0.6633  0.5271 -0.6243
18286SOL    HW266838  13.753   2.197   4.703 -0.1480 -1.6341 -1.1818
18287SOL     OW66839  12.033  11.031   3.121 -0.1964 -0.0379 -0.0581
18287SOL    HW166840  12.011  11.067   3.207 -1.8717  1.7078 -1.1402
18287SOL    HW266841  12.117  11.072   3.099 -1.2643  1.9961 -0.5412
18288SOL     OW66842   4.929   4.804   0.073  0.2178 -0.3363  0.0828
18288SOL    HW166843   4.896   4.831   0.159  0.4228  0.4896 -0.0874
18288SOL    HW266844   4.982   4.878   0.044  0.5760 -0.8287 -0.5287
18289SOL     OW66845   4.418   2.513  12.324  0.1428  0.5335 -0.2256
18289SOL    HW166846   4.494   2.562  12.293 -0.9134  1.4656 -1.4262
18289SOL    HW266847   4.366   2.577  12.373  0.7521 -0.4215  1.7791
18290SOL     OW66848  10.001   7.982   0.991 -0.1145 -0.2115 -0.2118
18290SOL    HW166849  10.094   7.999   0.975  0.3399  0.1477  2.2765
18290SOL    HW266850  10.000   7.925   1.069 -1.9647  0.9162  0.6759
18291SOL     OW66851   5.293   8.206   1.106  0.2355  0.3782  0.4372
18291SOL    HW166852   5.316   8.221   1.014 -0.0422 -0.0568  0.2932
18291SOL    HW266853   5.284   8.111   1.113 -0.8015  0.4817  0.6519
18292SOL     OW66854  13.879   1.409  10.927  0.2063 -0.6196 -0.3962
18292SOL    HW166855  13.889   1.314  10.917  0.9046 -0.4154 -1.9334
18292SOL    HW266856  13.933   1.446  10.858  0.3021  0.9273  0.4710
18293SOL     OW66857   1.600   8.569  12.948  0.0878  0.3131 -0.1306
18293SOL    HW166858   1.527   8.618  12.910  0.0204  1.2947  1.1698
18293SOL    HW266859   1.678   8.608  12.909 -0.0174  0.6624 -0.0011
18294SOL     OW66860   1.792   8.610  11.562 -0.0491 -0.1408  0.6987
18294SOL    HW166861   1.824   8.535  11.512 -0.3924  0.4194 -0.4037
18294SOL    HW266862   1.788   8.579  11.653  0.9876 -1.0538  0.4513
18295SOL     OW66863  12.907   2.628  11.168  0.4636  0.1575 -0.0223
18295SOL    HW166864  12.988   2.584  11.193  0.3717 -0.4580 -0.7877
18295SOL    HW266865  12.910   2.632  11.072 -0.4858 -0.0207 -0.0688
18296SOL     OW66866   8.604   1.683   6.016  0.1210 -0.4441 -0.7157
18296SOL    HW166867   8.619   1.746   6.086 -1.2226  0.2647 -1.0323
18296SOL    HW266868   8.514   1.698   5.989 -0.4854 -2.9486 -0.3630
18297SOL     OW66869  12.657   4.843  12.265  0.3438 -0.1481  0.0652
18297SOL    HW166870  12.629   4.762  12.223  0.6029 -0.9895  1.4581
18297SOL    HW266871  12.745   4.859  12.228  0.2473 -0.4262 -0.2963
18298SOL     OW66872   2.424   6.426  11.969  0.0769 -0.2527 -0.0675
18298SOL    HW166873   2.442   6.341  12.010  1.1464  0.0804  0.1774
18298SOL    HW266874   2.393   6.481  12.041  0.9997  0.0465  0.1030
18299SOL     OW66875  13.582  13.267   1.690  0.2676  0.0417  0.0773
18299SOL    HW166876  13.640  13.193   1.709  0.7467  0.3734 -0.0754
18299SOL    HW266877  13.495  13.238   1.719  0.3322 -0.8102 -0.5372
18300SOL     OW66878  12.657  12.152   1.869  0.4395 -0.3967  0.6140
18300SOL    HW166879  12.612  12.075   1.834  0.8659  0.1244 -1.2130
18300SOL    HW266880  12.750  12.136   1.850  0.4634  0.8764 -0.4954
18301SOL     OW66881   5.038  10.221  12.414 -0.9160  0.4808  0.3144
18301SOL    HW166882   5.084  10.275  12.349 -0.3156 -0.8098 -0.3610
18301SOL    HW266883   5.072  10.251  12.498  0.7456 -0.0352 -0.1453
18302SOL     OW66884   3.481  13.150   4.907 -0.0378  0.5518 -0.2387
18302SOL    HW166885   3.450  13.230   4.865  0.5036  1.4934  1.0896
18302SOL    HW266886   3.402  13.107   4.939 -0.3082  0.6857 -0.7200
18303SOL     OW66887   8.175   2.706   0.721 -0.0146 -0.0607 -0.4114
18303SOL    HW166888   8.097   2.737   0.677  0.2778 -0.9264 -1.6072
18303SOL    HW266889   8.241   2.700   0.652  0.9575  0.1269  0.4659
18304SOL     OW66890   8.970   1.936   2.980 -0.2107 -0.6490 -0.7059
18304SOL    HW166891   8.891   1.916   3.031  0.4394 -0.2270  0.5287
18304SOL    HW266892   9.040   1.937   3.046  0.7206 -0.3978 -1.6844
18305SOL     OW66893  12.223   3.145  10.899 -0.2418  0.0103  0.0460
18305SOL    HW166894  12.144   3.094  10.881 -1.1082  0.3586  2.5355
18305SOL    HW266895  12.280   3.085  10.948 -0.3210  0.7174  1.0310
18306SOL     OW66896   0.645   9.740   4.791 -0.3782  0.4544  0.9407
18306SOL    HW166897   0.712   9.794   4.749  0.6268 -0.5837  1.1711
18306SOL    HW266898   0.694   9.677   4.843 -1.5202 -0.6555  0.7214
18307SOL     OW66899  12.261   7.268   9.300 -0.1528  0.3370 -0.3370
18307SOL    HW166900  12.289   7.220   9.222  1.0389 -1.0819  0.8994
18307SOL    HW266901  12.178   7.228   9.325  0.0244  0.0196 -0.2484
18308SOL     OW66902   8.418   9.593   6.178  0.4186  0.4063  0.1034
18308SOL    HW166903   8.392   9.520   6.123  0.8243  0.4858 -0.2027
18308SOL    HW266904   8.503   9.620   6.143  0.6396  0.5172  0.7088
18309SOL     OW66905  13.988   8.753  11.322 -0.6033  0.0153  0.1278
18309SOL    HW166906  13.995   8.838  11.365 -2.1039  0.4050 -0.3537
18309SOL    HW266907  13.988   8.690  11.394 -0.0791  0.4409  0.5151
18310SOL     OW66908  11.470  10.174   2.746 -0.0101 -0.3368  0.0979
18310SOL    HW166909  11.421  10.255   2.729  0.1361 -0.4368 -0.8038
18310SOL    HW266910  11.540  10.202   2.806  0.8120  0.4834 -1.1999
18311SOL     OW66911   5.533   3.681   7.474 -0.1073  0.5525 -0.5637
18311SOL    HW166912   5.470   3.685   7.402 -0.5641  0.5397 -0.1631
18311SOL    HW266913   5.490   3.724   7.547  0.4839  0.8515 -0.3860
18312SOL     OW66914   8.019   5.913   4.672 -0.2094 -0.4712 -0.1726
18312SOL    HW166915   7.932   5.894   4.706 -0.6418 -0.0000 -0.9942
18312SOL    HW266916   8.077   5.852   4.719 -0.9057 -0.4731  0.7085
18313SOL     OW66917  10.180  12.190   1.868 -0.3694 -0.7880 -0.1331
18313SOL    HW166918  10.115  12.123   1.846 -1.2289  0.1925 -0.6815
18313SOL    HW266919  10.165  12.260   1.804  1.8092 -0.8771 -0.8358
18314SOL     OW66920   3.555   8.911  10.665 -0.6921 -0.0201 -0.3680
18314SOL    HW166921   3.488   8.843  10.658  0.3411 -1.1203  0.0597
18314SOL    HW266922   3.547   8.961  10.584 -2.3171  0.1747 -0.1316
18315SOL     OW66923   2.267   0.814  13.748 -0.0462  0.8794  0.0419
18315SOL    HW166924   2.303   0.862  13.673 -1.6972 -0.1951 -1.5146
18315SOL    HW266925   2.217   0.742  13.708 -1.9882  0.9828  2.1416
18316SOL     OW66926   4.428   1.012   4.653 -0.8415 -0.1198  0.6646
18316SOL    HW166927   4.441   1.009   4.558 -0.4625 -0.0359  0.7110
18316SOL    HW266928   4.461   0.928   4.685 -2.6488 -0.9102  0.5372
18317SOL     OW66929  12.647   4.534   2.663 -0.5755 -0.6926 -0.5988
18317SOL    HW166930  12.679   4.483   2.737  0.2675 -0.9381 -1.1079
18317SOL    HW266931  12.555   4.550   2.682 -0.2112 -0.1089  0.8595
18318SOL     OW66932   7.362  13.857   8.287 -0.1788 -0.3979  0.5569
18318SOL    HW166933   7.268  13.847   8.271 -0.2743  0.9604  0.1099
18318SOL    HW266934   7.402  13.851   8.200  0.0476 -0.1261  0.6370
18319SOL     OW66935   4.918  13.915  12.074 -0.3935 -0.0587  0.0818
18319SOL    HW166936   4.930  13.975  12.000 -0.3984  2.2595  1.8552
18319SOL    HW266937   5.006  13.903  12.109 -0.4899 -0.5019  0.1692
18320SOL     OW66938  11.865  10.877   4.755  0.7438 -0.1012  0.3193
18320SOL    HW166939  11.953  10.909   4.735  1.1334 -0.9895  0.5765
18320SOL    HW266940  11.840  10.926   4.834  1.2698 -0.2992  0.6175
18321SOL     OW66941   2.543   1.891   2.645 -0.5005 -0.2246  0.0447
18321SOL    HW166942   2.632   1.925   2.646 -1.2998  2.0808 -1.1710
18321SOL    HW266943   2.550   1.805   2.686  2.2960 -0.1955 -0.2025
18322SOL     OW66944   5.739  10.435  13.511 -0.5631 -0.1180  0.9877
18322SOL    HW166945   5.689  10.417  13.431  0.5247 -0.6467  0.4057
18322SOL    HW266946   5.689  10.504  13.556  0.1291  2.1008 -1.4081
18323SOL     OW66947  13.871   4.921   2.676 -0.1485 -0.1947  0.2572
18323SOL    HW166948  13.966   4.935   2.686 -0.2408 -0.1749  1.1781
18323SOL    HW266949  13.835   5.009   2.666 -0.0959 -0.1925  0.0707
18324SOL     OW66950   1.407   1.351   2.712  0.3587 -0.3240  0.1678
18324SOL    HW166951   1.367   1.381   2.794 -0.5968 -0.0033 -0.4035
18324SOL    HW266952   1.384   1.258   2.707  0.7729 -0.4469  0.4574
18325SOL     OW66953   3.628   2.730   1.160  0.3066 -0.1641  0.0500
18325SOL    HW166954   3.563   2.663   1.182  1.8838 -1.1864  1.8976
18325SOL    HW266955   3.588   2.813   1.187 -1.5083 -0.3279 -1.8971
18326SOL     OW66956  10.206   3.055   4.990 -0.1201 -0.2273  0.1398
18326SOL    HW166957  10.246   3.033   5.074 -0.1105 -1.0747 -0.0731
18326SOL    HW266958  10.260   3.008   4.925 -0.5374 -0.1356 -0.2789
18327SOL     OW66959  13.525   9.211   1.261  0.4683 -0.4476  0.0540
18327SOL    HW166960  13.508   9.294   1.215 -0.0117 -0.7866 -0.3907
18327SOL    HW266961  13.559   9.153   1.194  0.9039 -0.5815  0.3898
18328SOL     OW66962   1.871  11.013   5.214  0.4751 -0.2828 -0.0405
18328SOL    HW166963   1.807  10.944   5.235  0.3181 -0.6514 -1.6044
18328SOL    HW266964   1.927  10.974   5.147 -1.1673  1.8571 -2.8856
18329SOL     OW66965   0.062   2.981   6.026  0.1294  0.3482  0.0898
18329SOL    HW166966   0.061   2.930   6.107 -0.8307  0.7327  0.3361
18329SOL    HW266967   0.021   3.064   6.050  4.8432  2.8475  0.6829
18330SOL     OW66968  10.354  12.243   0.723 -0.2604 -0.1715  0.0655
18330SOL    HW166969  10.448  12.235   0.736 -0.1930  0.4425 -0.0359
18330SOL    HW266970  10.344  12.308   0.653 -0.8027  0.8698  1.0847
18331SOL     OW66971   6.655  12.385   8.681  0.1262  0.1344 -0.2317
18331SOL    HW166972   6.657  12.464   8.735  1.5635  0.4888 -0.7778
18331SOL    HW266973   6.661  12.417   8.591 -0.8316 -0.5286 -0.5513
18332SOL     OW66974   2.150   7.617  10.244  0.4189 -0.5421 -0.1471
18332SOL    HW166975   2.124   7.576  10.326 -0.9710  1.0608  0.2778
18332SOL    HW266976   2.149   7.546  10.180  3.2645 -2.2180  1.4605
18333SOL     OW66977   3.084   6.358   5.497 -0.1986  0.1324  0.1951
18333SOL    HW166978   3.023   6.350   5.424 -0.3042 -1.9288  0.4471
18333SOL    HW266979   3.071   6.278   5.548 -0.2016  1.5350  2.5596
18334SOL     OW66980   2.722   5.544   6.829 -0.0435 -0.4580  0.6157
18334SOL    HW166981   2.782   5.470   6.819  0.8916  0.0876  2.0259
18334SOL    HW266982   2.669   5.521   6.905 -0.3215 -0.0420  0.5488
18335SOL     OW66983   7.321   2.192   5.073 -0.0759  0.2303  0.2691
18335SOL    HW166984   7.362   2.157   4.994  1.2393  1.9829  0.1347
18335SOL    HW266985   7.295   2.281   5.049 -0.2136  0.5723  1.6236
18336SOL     OW66986   1.761   7.653  10.998 -0.0349 -0.5428  0.0850
18336SOL    HW166987   1.811   7.708  11.057  0.4052  1.7911 -2.2556
18336SOL    HW266988   1.690   7.709  10.966  0.7909 -1.0053 -2.8848
18337SOL     OW66989   6.100  12.503   6.332 -0.2658 -0.1069 -0.0664
18337SOL    HW166990   6.155  12.431   6.300 -1.1425 -0.5684 -0.5579
18337SOL    HW266991   6.028  12.460   6.377 -0.6707  0.4677 -0.1500
18338SOL     OW66992   3.456   7.813   1.531 -0.6258  0.1669 -0.3052
18338SOL    HW166993   3.547   7.786   1.542 -1.6424 -3.0866  1.8578
18338SOL    HW266994   3.441   7.813   1.437  1.3677 -0.2036 -0.6532
18339SOL     OW66995   3.212  13.834   6.255  0.3049  0.8146 -0.4797
18339SOL    HW166996   3.257  13.902   6.304 -0.6859  1.7163 -0.7784
18339SOL    HW266997   3.236  13.851   6.163 -2.0834  2.5264 -0.8795
18340SOL     OW66998   8.333   9.627   5.768 -0.0275  0.1032  0.0657
18340SOL    HW166999   8.394   9.607   5.697  0.5363  0.3493  0.4770
18340SOL    HW267000   8.388   9.631   5.847 -0.3560  1.6555  0.2411
18341SOL     OW67001   3.148  12.755   8.969 -0.1962  0.2305 -0.4134
18341SOL    HW167002   3.189  12.805   8.898 -1.7740  0.1581 -1.4543
18341SOL    HW267003   3.055  12.753   8.944 -0.4467 -1.6627  0.5617
18342SOL     OW67004   7.486   3.454   4.561 -0.3363  0.3711  0.0840
18342SOL    HW167005   7.524   3.442   4.648  2.1884 -1.5856 -1.1912
18342SOL    HW267006   7.439   3.373   4.543 -0.3237  0.5111 -0.6277
18343SOL     OW67007   7.097   2.349  12.172 -0.7539  0.2250  0.7143
18343SOL    HW167008   7.020   2.405  12.185  0.0846  1.7873 -0.5598
18343SOL    HW267009   7.087   2.279  12.236 -2.8323  0.8010  1.1163
18344SOL     OW67010   2.348   0.765   6.537  0.2310 -0.2798  0.1293
18344SOL    HW167011   2.277   0.777   6.599 -0.6047 -0.1575 -0.8218
18344SOL    HW267012   2.367   0.671   6.540  1.9457  0.0436  2.3789
18345SOL     OW67013  10.951   2.767   6.371  0.2700  0.5072 -0.9268
18345SOL    HW167014  10.927   2.745   6.461  1.0091  0.9653 -0.6037
18345SOL    HW267015  10.868   2.772   6.324 -0.0783 -0.4890 -0.4485
18346SOL     OW67016   2.757   0.342   0.183  0.1621 -0.2173  0.6283
18346SOL    HW167017   2.745   0.247   0.192 -1.2807 -0.1339 -0.1960
18346SOL    HW267018   2.808   0.366   0.260 -0.6538 -1.4606  1.6033
18347SOL     OW67019   8.934  12.677   0.508 -0.5522 -0.5030 -0.2377
18347SOL    HW167020   8.896  12.637   0.429  0.5897  0.6517 -1.4135
18347SOL    HW267021   8.859  12.719   0.551 -0.9960 -0.0243 -1.4210
18348SOL     OW67022   9.370   7.778  11.407 -0.1670 -0.5416  0.1553
18348SOL    HW167023   9.300   7.724  11.444 -0.3459  0.6733  1.6524
18348SOL    HW267024   9.333   7.866  11.403  0.1256 -0.4468 -2.2451
18349SOL     OW67025   7.934  12.668   2.578  0.1888  0.4274 -0.0919
18349SOL    HW167026   7.884  12.618   2.513  1.2742  0.3818 -0.9262
18349SOL    HW267027   7.948  12.607   2.650 -0.7772  0.3812  0.0670
18350SOL     OW67028   3.250  13.283   7.086 -0.9548 -0.2252 -0.2817
18350SOL    HW167029   3.167  13.331   7.077 -2.4228 -2.3546  0.9258
18350SOL    HW267030   3.309  13.346   7.126 -1.9780  1.3619 -1.1564
18351SOL     OW67031  13.188  11.142   6.361  0.1971  0.2637 -0.7236
18351SOL    HW167032  13.258  11.207   6.354 -0.1633  1.5852  4.0492
18351SOL    HW267033  13.233  11.059   6.375  0.9172  0.8792  0.9331
18352SOL     OW67034   4.892   1.332   1.601 -0.3988 -0.1555 -0.3934
18352SOL    HW167035   4.885   1.256   1.544  1.0085 -1.1999  0.7607
18352SOL    HW267036   4.935   1.399   1.548 -2.3653  0.1744 -1.6734
18353SOL     OW67037   0.701   3.250   4.619 -0.0396 -0.5066 -0.1328
18353SOL    HW167038   0.701   3.297   4.535  1.5831  1.9767  1.1316
18353SOL    HW267039   0.778   3.195   4.616 -0.1185 -0.6061 -0.3633
18354SOL     OW67040  11.517   0.985   6.272 -0.3243  0.1597 -0.2199
18354SOL    HW167041  11.497   0.902   6.228  0.8339  0.4905 -1.4090
18354SOL    HW267042  11.461   1.049   6.230  0.3646  0.3681 -0.8429
18355SOL     OW67043  13.785   5.131   7.621  0.5817 -0.6533 -0.1011
18355SOL    HW167044  13.713   5.125   7.684  0.5145  0.1269 -0.0978
18355SOL    HW267045  13.856   5.171   7.670  0.4080  0.3121 -0.6162
18356SOL     OW67046  10.973  13.073   1.310 -0.0087 -0.0512  0.6149
18356SOL    HW167047  10.891  13.118   1.289  1.0023  0.7478 -2.0150
18356SOL    HW267048  10.945  12.987   1.341 -1.8487  0.3261  0.1697
18357SOL     OW67049   3.911  12.194   4.643 -0.2124 -0.0694  0.0520
18357SOL    HW167050   3.956  12.256   4.585  0.3905  0.6310  1.2343
18357SOL    HW267051   3.821  12.225   4.646 -0.1934  0.0337 -0.3149
18358SOL     OW67052   7.053   1.861  11.190  0.6040 -0.0428  0.3587
18358SOL    HW167053   7.032   1.950  11.220  2.0630 -0.3626  2.5544
18358SOL    HW267054   7.052   1.808  11.270  1.9097 -1.5779 -0.5759
18359SOL     OW67055   8.168  13.685   5.796 -0.2013  0.2423  0.0952
18359SOL    HW167056   8.177  13.743   5.721  0.2547  0.9495  0.6901
18359SOL    HW267057   8.077  13.696   5.824 -1.2511 -2.0745 -1.9764
18360SOL     OW67058  13.296   1.848   8.977 -0.3482  0.0622 -0.0096
18360SOL    HW167059  13.312   1.884   8.890 -4.4705  2.6464  0.0300
18360SOL    HW267060  13.350   1.901   9.035  1.0405 -0.4687 -0.7565
18361SOL     OW67061   3.784   6.246   3.970  0.4752 -0.2757 -0.2399
18361SOL    HW167062   3.869   6.223   4.007  0.8376 -2.8242 -2.2882
18361SOL    HW267063   3.770   6.180   3.901 -3.1498  0.0552 -0.0098
18362SOL     OW67064  11.677   0.568  11.043 -0.2598  0.2139  0.1164
18362SOL    HW167065  11.608   0.630  11.022  0.8083  1.5080  0.2725
18362SOL    HW267066  11.725   0.556  10.960  1.5866  2.3023  0.7684
18363SOL     OW67067  12.386  10.810   8.906 -0.0349 -0.1075  0.6854
18363SOL    HW167068  12.343  10.892   8.883  0.1272 -0.0103  0.7312
18363SOL    HW267069  12.315  10.754   8.938 -0.2216 -0.1591  0.1903
18364SOL     OW67070   9.628   3.301   5.033 -0.4375  0.0522  0.3437
18364SOL    HW167071   9.559   3.250   4.991  0.2430 -1.6676  1.2342
18364SOL    HW267072   9.709   3.256   5.009  0.1945  0.7416  1.1352
18365SOL     OW67073   2.889   4.213   6.945  0.0758  0.0703  0.5578
18365SOL    HW167074   2.953   4.177   6.884  0.2427  0.5965  0.4161
18365SOL    HW267075   2.804   4.199   6.903  0.1690  0.1868  0.3335
18366SOL     OW67076   5.269   0.779   0.164 -0.4569 -0.1127 -0.5744
18366SOL    HW167077   5.261   0.820   0.250  0.6800 -0.8187 -0.0985
18366SOL    HW267078   5.337   0.830   0.119  0.2628 -0.8420 -0.3444
18367SOL     OW67079   6.722  11.613   3.661 -0.5646  0.2563 -0.1965
18367SOL    HW167080   6.702  11.583   3.749  1.0696 -0.0998  0.0864
18367SOL    HW267081   6.771  11.694   3.674  1.9438 -1.0983 -0.6188
18368SOL     OW67082   9.572   4.851  10.619 -0.7005 -0.5408  0.0170
18368SOL    HW167083   9.529   4.766  10.609 -0.2296 -0.5928 -1.8322
18368SOL    HW267084   9.665   4.830  10.626 -0.3181 -0.1364 -2.7596
18369SOL     OW67085   0.260   9.942   9.042  0.1196  0.1272 -0.3019
18369SOL    HW167086   0.185   9.970   9.095  0.7675  2.4027 -0.4941
18369SOL    HW267087   0.263  10.005   8.970 -0.0123 -2.1574 -2.4523
18370SOL     OW67088   6.046  13.237   3.173  0.6557  0.4120  0.2064
18370SOL    HW167089   5.996  13.288   3.110 -0.6932 -2.5944 -1.3727
18370SOL    HW267090   6.137  13.263   3.160  0.3119  0.4710 -2.4510
18371SOL     OW67091   0.814   8.835   8.834  0.1222  0.2712  0.2198
18371SOL    HW167092   0.720   8.850   8.832  0.0856  0.1426 -2.3644
18371SOL    HW267093   0.824   8.750   8.876 -1.1701 -0.8663 -1.6162
18372SOL     OW67094   6.961   2.393   7.003 -0.0323  0.1268  0.2422
18372SOL    HW167095   7.025   2.464   6.987 -0.3370  0.3498 -0.0033
18372SOL    HW267096   6.936   2.404   7.095  2.6799 -1.9336  1.3719
18373SOL     OW67097  10.772   2.824   1.602 -0.6191  0.2907  0.1412
18373SOL    HW167098  10.715   2.892   1.566 -0.6878  1.4618  2.2857
18373SOL    HW267099  10.712   2.756   1.632 -0.5837 -0.4829 -1.4297
18374SOL     OW67100   0.684  11.698  13.896  0.2849  0.2296 -0.4896
18374SOL    HW167101   0.697  11.786  13.861 -0.4334  0.1967 -0.8668
18374SOL    HW267102   0.664  11.711  13.988  0.0700  0.4797 -0.5679
18375SOL     OW67103  10.462   3.666   1.017 -0.1927  1.1790  0.0796
18375SOL    HW167104  10.451   3.695   0.926  2.2148 -2.1085 -1.5121
18375SOL    HW267105  10.429   3.576   1.017 -1.1427  1.4334  2.8436
18376SOL     OW67106  12.843   5.014   1.862 -0.2640 -0.3711 -0.1646
18376SOL    HW167107  12.852   4.964   1.780 -0.6969  0.7290 -0.9039
18376SOL    HW267108  12.926   5.059   1.872 -1.7186  3.3256 -2.6492
18377SOL     OW67109   9.828   7.457   5.790  0.0017 -0.3042  0.0315
18377SOL    HW167110   9.878   7.529   5.828  0.2816  0.1431 -1.1313
18377SOL    HW267111   9.894   7.390   5.769 -0.0415 -0.2229 -0.3736
18378SOL     OW67112   6.267   3.410   7.945 -0.1060 -0.1495  0.0250
18378SOL    HW167113   6.360   3.384   7.947  0.1706  0.8204  0.0231
18378SOL    HW267114   6.269   3.504   7.928 -1.1433 -0.4489 -2.1818
18379SOL     OW67115   0.150   7.774   3.835  0.1395  0.0301 -0.8837
18379SOL    HW167116   0.165   7.749   3.744  2.5951  0.5787 -0.7068
18379SOL    HW267117   0.238   7.789   3.870 -0.7608  0.1023  1.5128
18380SOL     OW67118   2.071   2.017   1.676 -0.0434 -0.1501 -0.2464
18380SOL    HW167119   2.042   2.028   1.766 -0.6347 -2.3322 -0.1046
18380SOL    HW267120   2.125   1.938   1.678  0.7269  0.3092 -1.6444
18381SOL     OW67121   7.591   4.991  13.071  0.0868 -0.4089  0.5178
18381SOL    HW167122   7.526   4.946  13.017 -0.1677  1.0107 -0.4065
18381SOL    HW267123   7.618   4.925  13.135 -0.5516 -1.7528 -0.5303
18382SOL     OW67124   7.508  11.210   9.528  0.3941  0.8423  0.1784
18382SOL    HW167125   7.432  11.262   9.556  0.3355 -0.4727  2.7047
18382SOL    HW267126   7.582  11.248   9.576  0.2002 -1.8434  2.9061
18383SOL     OW67127   1.273   5.293   4.817 -0.4648  0.0047 -0.0077
18383SOL    HW167128   1.198   5.239   4.794 -0.9379  0.2837  0.8347
18383SOL    HW267129   1.334   5.284   4.743 -0.9750 -0.8591 -0.3243
18384SOL     OW67130   9.941   1.304   3.519  0.2991 -0.2477 -0.0018
18384SOL    HW167131   9.865   1.247   3.507 -0.0454  0.3518 -0.7531
18384SOL    HW267132   9.950   1.311   3.614  1.2185 -2.6546  0.1442
18385SOL     OW67133   0.290  11.615  10.868  0.1581  0.2367 -0.1051
18385SOL    HW167134   0.320  11.706  10.872 -1.1288  0.6672  0.3421
18385SOL    HW267135   0.196  11.622  10.849 -0.2719 -0.9365  1.4180
18386SOL     OW67136  13.426   2.217   5.005  0.3415 -0.3151 -0.1112
18386SOL    HW167137  13.486   2.277   4.961 -1.8577 -0.2041 -3.2181
18386SOL    HW267138  13.429   2.137   4.953 -1.5003 -0.6255  0.1958
18387SOL     OW67139   2.708   4.895   4.576  0.0098 -0.2747 -0.2166
18387SOL    HW167140   2.783   4.907   4.518  1.0600 -0.3731  1.0680
18387SOL    HW267141   2.743   4.848   4.652 -1.2949 -0.1220  0.5178
18388SOL     OW67142  11.681  13.644   9.000 -0.4691 -0.5421 -0.1650
18388SOL    HW167143  11.774  13.668   9.000 -0.3259 -1.0937 -0.4832
18388SOL    HW267144  11.637  13.723   9.031  0.1169 -0.3297  0.1502
18389SOL     OW67145  12.974   0.554   1.246 -0.0021 -0.3091 -0.6213
18389SOL    HW167146  12.954   0.518   1.160 -0.6646 -1.0972 -0.1478
18389SOL    HW267147  12.912   0.626   1.257 -1.7789 -1.9325  0.3096
18390SOL     OW67148   4.980   7.204  10.873 -0.0448 -0.5094 -0.2443
18390SOL    HW167149   4.984   7.150  10.794 -0.0853 -0.7194 -0.1049
18390SOL    HW267150   4.968   7.141  10.944 -2.5196 -0.2140 -0.3000
18391SOL     OW67151   3.077  12.479   0.703  0.2692 -0.5335 -0.1045
18391SOL    HW167152   2.983  12.461   0.710  0.3567 -1.1139 -0.4156
18391SOL    HW267153   3.083  12.553   0.642  0.0797 -1.1793 -0.9190
18392SOL     OW67154   8.209   6.375  13.441 -0.1537  0.4250 -0.1212
18392SOL    HW167155   8.115   6.381  13.455 -0.5440 -1.0446 -1.8127
18392SOL    HW267156   8.228   6.281  13.442  1.1330  0.6594 -0.7075
18393SOL     OW67157   9.698   9.304   1.866 -0.4742 -0.5886  0.0255
18393SOL    HW167158   9.690   9.341   1.779 -0.4231 -1.8780 -0.5525
18393SOL    HW267159   9.745   9.371   1.916  0.8817 -0.4611 -1.3451
18394SOL     OW67160  10.965  12.910  10.838  0.6851  0.0421  0.0750
18394SOL    HW167161  10.972  12.817  10.858  0.0125 -0.0440 -0.0624
18394SOL    HW267162  10.871  12.927  10.834  0.6223  1.4998  3.7549
18395SOL     OW67163  11.761   3.258  11.806  0.4320  0.6136 -0.6411
18395SOL    HW167164  11.768   3.333  11.747 -0.0534  0.2648 -1.1477
18395SOL    HW267165  11.756   3.297  11.893  0.5555  1.1560 -0.8701
18396SOL     OW67166   1.797   6.977  10.773  0.0234 -0.0036 -0.0001
18396SOL    HW167167   1.732   7.045  10.788 -1.1418 -0.5601 -2.0935
18396SOL    HW267168   1.767   6.932  10.694  0.1136 -3.6963  1.8634
18397SOL     OW67169   9.812  12.991   0.759  0.2530 -0.4737 -0.2031
18397SOL    HW167170   9.887  13.022   0.809  1.5512 -1.7843 -1.2535
18397SOL    HW267171   9.744  13.057   0.773  1.6643  0.8563  0.5894
18398SOL     OW67172  10.340  12.780   4.075 -0.4377  0.4325  0.0622
18398SOL    HW167173  10.292  12.710   4.030 -0.0232  0.1308  0.0864
18398SOL    HW267174  10.418  12.737   4.111 -0.6590  0.7131  0.8971
18399SOL     OW67175   2.552   3.984  13.986 -0.2285  0.0630 -0.2462
18399SOL    HW167176   2.642   4.017  13.984 -0.1224  0.0061  1.7859
18399SOL    HW267177   2.556   3.902  13.936  0.7538  0.2699 -0.5364
18400SOL     OW67178   7.211   6.455  13.997 -0.2413  0.3471  0.5028
18400SOL    HW167179   7.181   6.526  13.940 -1.9837  0.1038  1.0513
18400SOL    HW267180   7.142   6.389  13.992  1.8867 -1.9246 -0.9250
18401SOL     OW67181  12.605   4.908   7.390 -0.4604 -0.5104 -0.1060
18401SOL    HW167182  12.646   4.821   7.392 -0.9464 -0.7560 -0.7313
18401SOL    HW267183  12.673   4.965   7.353 -0.3434 -0.7362 -0.2469
18402SOL     OW67184   7.504   8.104   6.393 -0.2166  0.7553  0.3226
18402SOL    HW167185   7.533   8.067   6.310 -0.8174  0.3391  0.2914
18402SOL    HW267186   7.496   8.198   6.377  0.0725  0.7301  0.0313
18403SOL     OW67187   3.928   9.576   0.684 -0.2648  0.4066  0.0120
18403SOL    HW167188   3.906   9.669   0.678 -1.3982  0.0956 -1.1061
18403SOL    HW267189   3.844   9.533   0.699  0.0810 -0.5203 -0.6603
18404SOL     OW67190   8.331  11.973   7.747  0.4678  0.0320 -0.3948
18404SOL    HW167191   8.354  12.044   7.807 -0.7937  0.5869 -0.5391
18404SOL    HW267192   8.241  11.951   7.769  0.8315 -1.5698 -0.3402
18405SOL     OW67193   4.680   8.487   2.381 -0.1284 -0.2475 -0.5002
18405SOL    HW167194   4.664   8.567   2.431 -1.3358  0.9738 -2.6756
18405SOL    HW267195   4.770   8.463   2.402 -0.8923 -0.5354  3.0995
18406SOL     OW67196  12.028   2.729  10.484 -0.0364 -0.3752  0.3391
18406SOL    HW167197  11.961   2.724  10.416  1.7515 -0.1041 -1.5618
18406SOL    HW267198  12.080   2.649  10.472  1.0034  0.2449  0.5824
18407SOL     OW67199   3.706   9.950   2.871  0.3392  0.5539  0.2964
18407SOL    HW167200   3.664  10.035   2.881  1.5263  1.2109 -0.1011
18407SOL    HW267201   3.652   9.904   2.806  0.7102  1.7315 -0.8991
18408SOL     OW67202   8.515   4.345  11.192  0.3642  0.1617 -0.6021
18408SOL    HW167203   8.580   4.353  11.122  1.4439 -0.0929  0.3462
18408SOL    HW267204   8.565   4.320  11.269 -1.0081 -1.2477 -0.1019
18409SOL     OW67205   0.322   1.577   4.645  0.3612  0.8491 -0.6972
18409SOL    HW167206   0.259   1.525   4.694  0.8697  1.3083  0.4989
18409SOL    HW267207   0.293   1.573   4.554 -1.9622  1.8317 -0.0655
18410SOL     OW67208  12.292   8.681  10.898  0.5621 -0.2870  0.4688
18410SOL    HW167209  12.378   8.646  10.876 -0.0494 -1.6722  0.1553
18410SOL    HW267210  12.230   8.616  10.863 -0.6452  1.1636 -0.1935
18411SOL     OW67211   3.118   6.825   2.616 -0.4857 -0.6180 -0.9668
18411SOL    HW167212   3.030   6.789   2.621 -1.6105  2.0554  1.8839
18411SOL    HW267213   3.169   6.772   2.677 -1.0241 -0.1665 -0.0973
18412SOL     OW67214   6.385   3.006  11.931  0.4641  0.0295 -0.4256
18412SOL    HW167215   6.323   2.935  11.944 -0.6764  1.2705  1.3393
18412SOL    HW267216   6.449   2.995  12.002 -0.1513  1.1348  0.3420
18413SOL     OW67217   6.778   1.608   4.497 -0.3927 -0.0746  0.1616
18413SOL    HW167218   6.867   1.638   4.481 -0.5085 -0.4121 -1.1609
18413SOL    HW267219   6.724   1.661   4.439 -1.2814  1.3025  2.1104
18414SOL     OW67220   8.112  10.188  13.353 -0.1099  0.0543  0.2504
18414SOL    HW167221   8.150  10.149  13.274 -1.5386 -2.0964  0.5176
18414SOL    HW267222   8.098  10.113  13.412 -3.1894  0.8959  0.7559
18415SOL     OW67223  11.125   4.649   9.708 -0.0236  0.3614 -0.0514
18415SOL    HW167224  11.090   4.730   9.745 -0.3871  0.8110 -1.3322
18415SOL    HW267225  11.049   4.605   9.670  0.4140  0.2014 -0.7635
18416SOL     OW67226   7.875  13.645  13.073 -0.0504  0.4393 -0.1729
18416SOL    HW167227   7.812  13.699  13.027 -0.0698  0.0055 -0.6719
18416SOL    HW267228   7.829  13.562  13.088 -0.1781  0.6887  0.9750
18417SOL     OW67229   2.312  11.821  11.022  0.3126 -0.3771  0.1251
18417SOL    HW167230   2.318  11.895  10.961  0.6225 -0.6637 -0.2008
18417SOL    HW267231   2.255  11.758  10.977  0.2485 -0.4390  0.2928
18418SOL     OW67232   9.191   2.592   5.377 -0.0659  0.0831 -0.0360
18418SOL    HW167233   9.131   2.665   5.364  0.3625  0.5757  0.7371
18418SOL    HW267234   9.175   2.535   5.301 -0.6139  0.8177 -0.4865
18419SOL     OW67235   9.305   4.886   2.576 -0.1221 -0.6463 -0.0853
18419SOL    HW167236   9.283   4.832   2.499  1.1753 -1.5255  0.1231
18419SOL    HW267237   9.397   4.866   2.593 -0.0699  0.4303  1.0026
18420SOL     OW67238  13.470   1.882   3.016  0.2217  0.0275  1.2137
18420SOL    HW167239  13.375   1.886   3.010  0.1912 -1.2428  0.5271
18420SOL    HW267240  13.501   1.909   2.930  0.4119 -1.0740  0.9199
18421SOL     OW67241  12.401  10.067   2.742 -0.5243  0.7122  0.0560
18421SOL    HW167242  12.344  10.121   2.795 -1.0701 -0.2725  0.5048
18421SOL    HW267243  12.343  10.026   2.678 -0.6693 -1.6123  1.5711
18422SOL     OW67244   6.406   0.793   8.484 -0.4925  0.7370  0.1872
18422SOL    HW167245   6.455   0.777   8.403 -0.2187  0.4083  0.4187
18422SOL    HW267246   6.314   0.786   8.457 -0.4216  1.3118 -0.2370
18423SOL     OW67247   6.203   8.910   6.434 -0.5760  0.0468 -0.2314
18423SOL    HW167248   6.180   8.825   6.397 -0.5446 -0.1165  0.1133
18423SOL    HW267249   6.137   8.970   6.399 -0.1904  0.0140 -1.0138
18424SOL     OW67250  11.000  12.620   5.080 -0.1676 -0.4621  0.3016
18424SOL    HW167251  11.050  12.615   5.161 -0.2815  0.5893  0.4494
18424SOL    HW267252  10.944  12.542   5.081  0.7501 -1.1271  0.6022
18425SOL     OW67253   7.924   7.888   7.528 -0.3818 -0.7215 -0.2574
18425SOL    HW167254   7.833   7.889   7.560  0.0007 -1.5924  0.9432
18425SOL    HW267255   7.976   7.873   7.607  1.0523  2.4033 -0.4406
18426SOL     OW67256   3.190  10.042   6.783  0.0505 -0.9810  0.7631
18426SOL    HW167257   3.275  10.075   6.814  0.1255 -0.4448  0.0239
18426SOL    HW267258   3.129  10.114   6.799 -0.0306 -0.9307  0.2407
18427SOL     OW67259   3.580   9.980  11.067 -0.1064 -0.8471 -0.3552
18427SOL    HW167260   3.597   9.959  11.158  0.0909  1.5620  0.2197
18427SOL    HW267261   3.646  10.046  11.044 -0.0715 -1.4856 -2.2871
18428SOL     OW67262   4.621  11.781   2.657 -0.0865  0.1694 -0.3121
18428SOL    HW167263   4.684  11.757   2.589  0.4164  2.4469 -0.7376
18428SOL    HW267264   4.538  11.793   2.611 -0.1404  0.0746 -0.2409
18429SOL     OW67265  12.969   5.517   3.919  0.9613  0.3971  0.2232
18429SOL    HW167266  13.063   5.524   3.900  0.8669 -2.7212 -1.9714
18429SOL    HW267267  12.949   5.424   3.912 -2.2465  0.8830  1.1607
18430SOL     OW67268   3.038   9.813  13.013  0.0465  0.6189  0.1045
18430SOL    HW167269   2.966   9.848  12.960  0.6006 -1.3568 -2.1100
18430SOL    HW267270   2.996   9.751  13.072 -0.1689 -0.2696 -0.9447
18431SOL     OW67271   2.265  11.646  11.460 -0.1437 -0.1695  0.0827
18431SOL    HW167272   2.328  11.596  11.511  0.0814  0.9790  0.9504
18431SOL    HW267273   2.303  11.651  11.372  0.4449 -0.3946  0.3240
18432SOL     OW67274  10.657  13.977  10.618 -0.1152  0.2368 -0.1315
18432SOL    HW167275  10.734  13.986  10.675  0.3847  0.3604 -0.8157
18432SOL    HW267276  10.622  13.890  10.640 -0.6775  0.7877  1.2581
18433SOL     OW67277  12.959   2.561   2.035 -0.0551 -0.9022 -0.9155
18433SOL    HW167278  12.926   2.478   2.070 -0.1455 -0.0677  1.1102
18433SOL    HW267279  12.954   2.622   2.108  1.6117  0.4734 -1.8645
18434SOL     OW67280   3.401   2.251   0.792  0.1048  0.3572  0.1478
18434SOL    HW167281   3.486   2.234   0.833 -0.0661  0.6795  0.6466
18434SOL    HW267282   3.377   2.339   0.822  0.6795  1.2704 -1.8886
18435SOL     OW67283   1.396   3.584  10.241 -0.1466 -0.0403 -0.1786
18435SOL    HW167284   1.414   3.635  10.320 -1.1192 -0.3740  0.2719
18435SOL    HW267285   1.301   3.588  10.231 -0.3338 -2.2107  0.2017
18436SOL     OW67286   1.851   9.220   8.863  0.3145 -0.0415  0.6120
18436SOL    HW167287   1.897   9.217   8.780  0.2375  1.3443  0.4957
18436SOL    HW267288   1.819   9.131   8.876 -1.3590  0.1102 -1.8112
18437SOL     OW67289   5.754   7.561  13.839  0.1141  0.5547 -0.0310
18437SOL    HW167290   5.722   7.562  13.749  0.7773 -0.1096 -0.2812
18437SOL    HW267291   5.843   7.597  13.834  0.6778 -0.7444  0.1320
18438SOL     OW67292  10.615   8.877  13.505  0.0935  0.9811 -0.2853
18438SOL    HW167293  10.609   8.950  13.444  1.1139  1.4318  0.1347
18438SOL    HW267294  10.708   8.870  13.525  0.1035 -0.8664 -0.8263
18439SOL     OW67295   4.675   7.535   3.031  0.1840  0.3003 -0.7190
18439SOL    HW167296   4.752   7.538   3.087 -0.4602  0.9729  0.1533
18439SOL    HW267297   4.710   7.527   2.942  1.2192 -0.5846 -0.2422
18440SOL     OW67298  13.187   8.257   9.236  0.0794  0.5558  0.2508
18440SOL    HW167299  13.111   8.259   9.295 -0.2132 -0.5568 -0.0574
18440SOL    HW267300  13.170   8.328   9.173 -0.8509  0.1527  0.0235
18441SOL     OW67301   1.936   1.868   1.133 -0.3291  0.0282  0.7386
18441SOL    HW167302   2.018   1.917   1.135 -0.5922  0.5678 -0.5835
18441SOL    HW267303   1.872   1.931   1.099 -1.0119 -0.7626  0.5346
18442SOL     OW67304  10.736   9.768  13.351  0.2089 -0.5834  0.2774
18442SOL    HW167305  10.681   9.820  13.293  0.3099 -1.5546 -0.7469
18442SOL    HW267306  10.702   9.784  13.439 -1.3583 -0.7326 -0.2685
18443SOL     OW67307   7.203   8.652   7.249  0.4403  0.2297  0.2145
18443SOL    HW167308   7.256   8.649   7.328  0.0100  0.0989  0.5036
18443SOL    HW267309   7.238   8.582   7.193 -0.6088 -1.1214  1.1779
18444SOL     OW67310  11.721   5.083   2.518 -0.3739 -0.4749  0.2911
18444SOL    HW167311  11.816   5.090   2.508 -0.4984 -0.4655 -1.0303
18444SOL    HW267312  11.698   5.001   2.476 -1.1162  0.2056 -0.6735
18445SOL     OW67313   3.463   1.327   1.814 -0.2748  0.0961  0.2457
18445SOL    HW167314   3.404   1.368   1.878 -1.1391  1.3693 -1.3059
18445SOL    HW267315   3.551   1.342   1.850 -0.7894 -0.8577  2.0391
18446SOL     OW67316   1.430   3.236  12.232 -0.5210 -0.2206  0.2394
18446SOL    HW167317   1.394   3.272  12.151  0.6573  2.2716  0.7211
18446SOL    HW267318   1.380   3.156  12.246  0.8222 -2.1417 -4.1683
18447SOL     OW67319   7.809   8.894   1.317 -0.0871 -0.1444 -0.2156
18447SOL    HW167320   7.845   8.933   1.237  0.0135 -0.0020 -0.1010
18447SOL    HW267321   7.759   8.964   1.358  0.8965  0.1630  0.4941
18448SOL     OW67322  13.852   8.082   2.821  0.7764 -0.0788 -0.4442
18448SOL    HW167323  13.892   8.166   2.799  0.3634 -0.0454 -1.1324
18448SOL    HW267324  13.925   8.024   2.839  1.0836  0.3180 -0.4174
18449SOL     OW67325   1.155   8.344  12.443  0.7907 -0.4446  0.1168
18449SOL    HW167326   1.201   8.280  12.497  1.0608 -2.1141 -1.9313
18449SOL    HW267327   1.209   8.353  12.365 -0.0131  1.1911 -0.3076
18450SOL     OW67328  11.335  10.226   7.195 -0.3114 -0.1903 -0.2250
18450SOL    HW167329  11.401  10.294   7.180  0.3305 -0.5844  0.7201
18450SOL    HW267330  11.367  10.177   7.271 -0.2296 -2.2184 -1.4876
18451SOL     OW67331  10.223  13.578   6.152 -0.1072  0.0008 -0.2207
18451SOL    HW167332  10.153  13.602   6.091  0.2739  0.8160 -0.3594
18451SOL    HW267333  10.177  13.549   6.231 -0.6037  0.2390 -0.4141
18452SOL     OW67334   8.546   6.444   3.523 -0.1629  0.4857  0.5074
18452SOL    HW167335   8.473   6.410   3.575 -0.5268 -1.2436 -1.0217
18452SOL    HW267336   8.616   6.380   3.536 -0.1490  0.2149 -0.8192
18453SOL     OW67337  12.525   6.435   4.892  0.0864 -0.1657 -0.0551
18453SOL    HW167338  12.430   6.440   4.882  0.0947  1.2243  0.3576
18453SOL    HW267339  12.538   6.425   4.986  0.3673  1.2253  0.0768
18454SOL     OW67340   6.092   8.574   1.203 -0.3482 -0.2847  0.2466
18454SOL    HW167341   6.160   8.641   1.191 -1.1176  0.2623 -1.3138
18454SOL    HW267342   6.141   8.493   1.220  0.6749  0.2313 -0.1571
18455SOL     OW67343   5.334  13.172   1.153  0.7363 -0.3957  0.3749
18455SOL    HW167344   5.407  13.111   1.163  2.3181  1.5279  1.1216
18455SOL    HW267345   5.316  13.172   1.059  0.4106 -2.2731  0.3997
18456SOL     OW67346  12.746   6.051   2.551  0.6765  0.6944 -0.1981
18456SOL    HW167347  12.724   6.144   2.548 -2.0442  0.1199 -1.8413
18456SOL    HW267348  12.782   6.037   2.638 -1.6573  2.7577  1.2398
18457SOL     OW67349   5.038  10.232   2.089  0.1172 -0.3169  0.2673
18457SOL    HW167350   5.038  10.137   2.078 -0.8811 -0.5483  1.9007
18457SOL    HW267351   4.958  10.262   2.047  0.3811 -0.2018 -0.1589
18458SOL     OW67352  10.592  12.071  10.559 -0.4405 -0.1753  0.2341
18458SOL    HW167353  10.526  12.138  10.573 -0.1392  0.5008 -1.4045
18458SOL    HW267354  10.549  12.006  10.503  0.3710  0.5079 -1.2523
18459SOL     OW67355   5.997   5.222   0.646 -0.0229  0.2412 -0.4563
18459SOL    HW167356   5.959   5.286   0.706 -1.0116 -1.8076  1.2468
18459SOL    HW267357   6.038   5.157   0.704 -0.5007 -1.5217 -2.0147
18460SOL     OW67358   7.972  10.029   6.536 -0.4917 -0.5835 -0.8642
18460SOL    HW167359   8.035  10.101   6.545 -0.8008 -0.5426  1.7674
18460SOL    HW267360   8.012   9.970   6.472  1.2475  0.4063 -0.7594
18461SOL     OW67361   3.497   6.394   8.113 -0.2530 -0.3263 -0.1716
18461SOL    HW167362   3.489   6.466   8.176  1.0534 -0.2831 -0.0333
18461SOL    HW267363   3.561   6.335   8.152  2.0400  0.6095 -2.2802
18462SOL     OW67364   4.241   5.741  10.868  0.0969  0.0395  0.2235
18462SOL    HW167365   4.309   5.784  10.815 -1.1582 -0.5066 -1.9183
18462SOL    HW267366   4.197   5.682  10.808 -2.7774  0.8909  1.3219
18463SOL     OW67367   3.909   1.425   9.254  0.8267 -0.2556 -0.0679
18463SOL    HW167368   3.888   1.512   9.219  2.4725 -0.6364 -2.1806
18463SOL    HW267369   3.993   1.437   9.299 -0.2048 -0.2641  2.0100
18464SOL     OW67370   8.303  10.891  13.418 -0.1808  0.7289  0.1192
18464SOL    HW167371   8.379  10.950  13.414 -0.1320  0.6125 -0.6928
18464SOL    HW267372   8.320  10.836  13.494  0.8266  0.3382 -0.3699
18465SOL     OW67373   8.984   9.048   5.051  0.0426 -0.0307  0.3577
18465SOL    HW167374   9.004   8.987   4.981  0.0528  0.0197  0.3169
18465SOL    HW267375   8.957   8.993   5.124  0.9286 -0.1348  0.6156
18466SOL     OW67376   9.503  12.450  12.033  0.4657 -0.1081  0.4459
18466SOL    HW167377   9.479  12.541  12.048  0.6632 -0.3032  2.2529
18466SOL    HW267378   9.584  12.438  12.084  1.2411 -0.9315 -0.9124
18467SOL     OW67379  10.279   7.231  13.677 -0.5135  0.3005  0.1694
18467SOL    HW167380  10.361   7.195  13.642 -1.3868 -1.7489  0.0817
18467SOL    HW267381  10.250   7.293  13.610  0.5466  0.4450 -0.1832
18468SOL     OW67382  11.742  11.096   7.384  0.1659 -0.1526 -0.0209
18468SOL    HW167383  11.661  11.063   7.345 -0.5023  1.0656  0.2679
18468SOL    HW267384  11.806  11.026   7.370 -0.8694 -1.0414 -0.4667
18469SOL     OW67385   5.652   4.490   0.359  0.2395  0.0561  0.0574
18469SOL    HW167386   5.707   4.467   0.434 -0.0874 -2.7883 -0.4883
18469SOL    HW267387   5.707   4.548   0.307  1.1028  0.7023  1.5988
18470SOL     OW67388  11.910  11.802   0.290 -0.4459  0.1371 -0.0588
18470SOL    HW167389  11.878  11.879   0.338  0.7746  1.6852 -1.5579
18470SOL    HW267390  11.903  11.828   0.198 -3.0605 -2.8568 -0.8592
18471SOL     OW67391   5.439  10.636   4.751  0.4218 -0.2771  0.5279
18471SOL    HW167392   5.406  10.549   4.773 -0.3098  0.2590  1.6413
18471SOL    HW267393   5.532  10.633   4.773  1.1722 -1.7031 -2.3353
18472SOL     OW67394   0.994   2.620  13.604 -0.3479  0.6254  0.1093
18472SOL    HW167395   1.020   2.543  13.554  2.0649  1.6125 -0.3041
18472SOL    HW267396   0.983   2.589  13.693  0.4737 -0.2180 -0.0769
18473SOL     OW67397  12.703   0.823   0.303  0.2636  0.2949 -0.0930
18473SOL    HW167398  12.621   0.788   0.338  0.2014  0.6001  0.0682
18473SOL    HW267399  12.679   0.908   0.265  0.3683  0.0568 -0.6983
18474SOL     OW67400   3.173   0.089  13.080  0.2421  0.5515  0.2236
18474SOL    HW167401   3.266   0.078  13.062  0.0451 -2.2655  0.5046
18474SOL    HW267402   3.130   0.078  12.995  0.0278 -0.9798  0.5093
18475SOL     OW67403  11.561  13.306   2.140 -0.2066 -0.2605 -0.4197
18475SOL    HW167404  11.503  13.283   2.213 -0.7259 -0.3131 -0.8423
18475SOL    HW267405  11.649  13.285   2.171 -0.4804 -0.8409 -0.0294
18476SOL     OW67406   1.448   3.684   8.376 -0.2459  0.2541 -0.1501
18476SOL    HW167407   1.431   3.650   8.464  0.8238  1.3708  0.5236
18476SOL    HW267408   1.537   3.655   8.355  0.0858  1.2613 -0.2077
18477SOL     OW67409  10.740   8.287   8.793  0.1238  0.0850  0.8179
18477SOL    HW167410  10.682   8.291   8.717 -0.1223 -1.2117  0.9291
18477SOL    HW267411  10.816   8.341   8.768 -0.1741  0.0719 -0.1457
18478SOL     OW67412   0.752   7.461   3.211  0.1379 -0.0997 -0.1876
18478SOL    HW167413   0.697   7.383   3.196  1.1815 -1.2453  1.6084
18478SOL    HW267414   0.800   7.472   3.129 -0.4954 -0.9706 -0.6998
18479SOL     OW67415   1.659   1.866  13.873 -0.5264 -0.4495 -0.0154
18479SOL    HW167416   1.648   1.953  13.912  0.7151 -0.3839  0.2246
18479SOL    HW267417   1.632   1.805  13.941 -1.6580 -0.2739 -0.2729
18480SOL     OW67418   6.890   6.969   0.438 -0.9909 -0.5752  0.1881
18480SOL    HW167419   6.871   6.881   0.407 -1.9594 -0.7536  1.2306
18480SOL    HW267420   6.872   6.966   0.532  2.2777 -0.1750  0.9436
18481SOL     OW67421   9.005   2.261   4.599  0.4828 -0.4147 -0.2644
18481SOL    HW167422   9.086   2.271   4.650  0.5103 -1.0156 -0.1893
18481SOL    HW267423   9.012   2.328   4.531  1.4866 -1.0801 -0.8397
18482SOL     OW67424   2.194  13.882   4.182 -0.2574  0.1640 -0.0341
18482SOL    HW167425   2.163  13.916   4.266  1.6751  0.3102  0.6757
18482SOL    HW267426   2.159  13.793   4.179  0.6813 -0.3071  1.5580
18483SOL     OW67427  10.813  11.872   9.777 -0.4159  0.0575 -0.5338
18483SOL    HW167428  10.754  11.937   9.814 -0.7186 -0.3751 -0.2569
18483SOL    HW267429  10.864  11.921   9.711  0.5617  0.9946  0.8480
18484SOL     OW67430  11.138   1.189   3.763  0.2726 -0.1565 -0.0053
18484SOL    HW167431  11.065   1.185   3.825 -0.4334 -0.3524 -0.8283
18484SOL    HW267432  11.097   1.178   3.677  1.5116 -2.6641 -0.3587
18485SOL     OW67433   3.637   4.212  10.742  0.5460  0.0734  0.2443
18485SOL    HW167434   3.606   4.273  10.674  0.2906 -0.2715  0.0447
18485SOL    HW267435   3.732   4.208  10.729  0.3712 -0.9917 -0.9601
18486SOL     OW67436   2.018   6.385   4.929  0.1527  0.4254  0.1322
18486SOL    HW167437   1.979   6.364   5.014 -0.0493 -0.7706 -0.2350
18486SOL    HW267438   2.060   6.470   4.942  1.3502 -0.3906  1.8280
18487SOL     OW67439   7.283   8.121  11.559 -0.4377 -0.3148 -0.0983
18487SOL    HW167440   7.319   8.205  11.585  1.2294 -1.3169  1.0767
18487SOL    HW267441   7.193   8.122  11.592 -1.3540  1.9305 -2.3536
18488SOL     OW67442   4.526  12.148  11.447 -0.2005  0.2688 -0.6240
18488SOL    HW167443   4.599  12.099  11.411  1.6934 -0.0208  3.1118
18488SOL    HW267444   4.461  12.082  11.470  0.1111  0.0639 -0.3221
18489SOL     OW67445  13.506   6.286   4.739 -0.5024  0.4169  0.2574
18489SOL    HW167446  13.502   6.194   4.711 -1.7537  0.7770 -0.8240
18489SOL    HW267447  13.510   6.281   4.835 -0.2858 -0.7746  0.2012
18490SOL     OW67448   1.039  12.780   6.710  0.0592 -0.5259 -0.2876
18490SOL    HW167449   1.008  12.855   6.760  0.2342  1.2784 -2.6764
18490SOL    HW267450   1.017  12.704   6.763 -4.2250  0.8822  0.2860
18491SOL     OW67451  13.727   3.705  12.031 -0.3438  0.2801  0.3838
18491SOL    HW167452  13.735   3.632  11.971  0.0047  0.6043  0.0334
18491SOL    HW267453  13.723   3.664  12.118  1.8871 -0.0739  0.3594
18492SOL     OW67454   2.037   4.233  13.965  0.5718 -0.4422 -0.4815
18492SOL    HW167455   2.037   4.151  13.916  2.7304 -2.0231  1.9024
18492SOL    HW267456   2.116   4.278  13.936  0.8791 -0.5244  0.2311
18493SOL     OW67457  13.927   3.894   8.646 -0.0879 -0.2749  0.6682
18493SOL    HW167458  13.890   3.843   8.717 -1.2218  2.1602  1.9729
18493SOL    HW267459  13.860   3.960   8.626  0.9753  0.2724 -1.3738
18494SOL     OW67460  10.710   4.250   8.105 -0.7227  0.3082  0.8400
18494SOL    HW167461  10.805   4.253   8.115 -0.7153  0.3814  0.7469
18494SOL    HW267462  10.676   4.257   8.194 -0.6044 -1.3307  1.0608
18495SOL     OW67463   9.942  11.872   1.040  0.5117  0.2355  0.2688
18495SOL    HW167464   9.873  11.882   1.105  1.3570  0.9368  1.0889
18495SOL    HW267465   9.965  11.961   1.015  0.0163 -0.0218 -1.2295
18496SOL     OW67466  11.141   1.189   0.156 -0.0327  0.0297 -0.9802
18496SOL    HW167467  11.150   1.191   0.061 -1.1997 -1.3187 -1.1638
18496SOL    HW267468  11.055   1.227   0.173  0.5366  1.0923 -0.3670
18497SOL     OW67469   8.578   5.797   8.536  0.2369  0.2808 -0.4476
18497SOL    HW167470   8.658   5.802   8.588  0.8086  1.7189 -1.3745
18497SOL    HW267471   8.511   5.837   8.591  0.0316 -1.3161  0.5030
18498SOL     OW67472   4.593   9.756   2.405  0.2844  0.0788  0.2879
18498SOL    HW167473   4.528   9.815   2.367  1.0588  0.8297  0.0831
18498SOL    HW267474   4.620   9.700   2.333 -0.0070 -0.1162  0.3303
18499SOL     OW67475   0.949   8.818   3.031  0.1315  0.1591 -0.1357
18499SOL    HW167476   1.017   8.773   3.081 -1.0721 -0.1151  1.3436
18499SOL    HW267477   0.868   8.771   3.055 -0.8564  1.7619 -0.2155
18500SOL     OW67478  11.290   3.278   4.579  0.1201 -0.2312  0.9786
18500SOL    HW167479  11.382   3.293   4.560 -0.0789 -0.4962 -0.2555
18500SOL    HW267480  11.271   3.192   4.540 -0.7351 -0.0062  0.8874
18501SOL     OW67481  13.590   5.472   6.065 -0.3653  0.2819  0.5853
18501SOL    HW167482  13.645   5.395   6.080 -1.2218 -0.4094  0.3023
18501SOL    HW267483  13.501   5.443   6.088 -1.1460  0.3174 -2.0210
18502SOL     OW67484   9.912   1.740   8.816 -0.7158 -0.3853  0.1856
18502SOL    HW167485   9.977   1.717   8.882  0.7257 -2.3609 -1.7825
18502SOL    HW267486   9.830   1.706   8.851  0.2816 -2.8795  0.3288
18503SOL     OW67487   3.020   8.687   0.156  0.0670 -0.3007 -0.6604
18503SOL    HW167488   2.925   8.692   0.163 -0.0807 -1.9697 -1.0521
18503SOL    HW267489   3.037   8.677   0.062  0.5117 -1.4029 -0.4843
18504SOL     OW67490  11.995   7.778   2.016  0.4255  0.7316 -0.3813
18504SOL    HW167491  12.046   7.859   2.012  1.5665  0.1065  0.7785
18504SOL    HW267492  11.974   7.767   2.109 -1.5251  0.7595 -0.7748
18505SOL     OW67493   4.736  13.623  13.254  0.7779  0.2857 -1.2816
18505SOL    HW167494   4.689  13.569  13.317  1.4152  0.2200 -0.8661
18505SOL    HW267495   4.668  13.649  13.191  0.0874  0.5670 -0.4396
18506SOL     OW67496  12.560   3.575   7.657 -0.6644  0.3252 -0.2833
18506SOL    HW167497  12.573   3.573   7.562 -1.1710 -0.3803 -0.3509
18506SOL    HW267498  12.474   3.617   7.669 -0.5343  0.5496 -0.1296
18507SOL     OW67499   1.069  11.977  10.492  0.0058 -0.3889  0.5824
18507SOL    HW167500   1.126  12.009  10.562  0.8053 -1.7255  0.5786
18507SOL    HW267501   1.010  11.916  10.536  0.4817 -1.2041  0.1188
18508SOL     OW67502   2.803   7.337   4.069 -0.2335 -0.3394  0.1330
18508SOL    HW167503   2.830   7.428   4.054  0.9051 -0.2941  2.1037
18508SOL    HW267504   2.745   7.317   3.996  2.2811  0.8185 -2.3725
18509SOL     OW67505   2.061   4.390   0.145 -0.4523 -0.1187 -0.0087
18509SOL    HW167506   2.059   4.363   0.237  0.0402  1.1431  0.3870
18509SOL    HW267507   2.043   4.309   0.097 -1.3160 -0.6854  1.2052
18510SOL     OW67508   9.104   4.818  13.784 -0.4809  0.4318 -0.1614
18510SOL    HW167509   9.096   4.756  13.856  1.8280  1.2771  0.9294
18510SOL    HW267510   9.070   4.900  13.819  0.5496  0.8206 -0.0380
18511SOL     OW67511   1.149   2.058   6.881  0.3586  0.0478  0.3445
18511SOL    HW167512   1.138   2.046   6.787  0.4118 -0.7114  0.4303
18511SOL    HW267513   1.244   2.066   6.893  0.2823  1.6767  0.1742
18512SOL     OW67514   5.977   7.703  12.950 -0.1983 -0.2239  0.0758
18512SOL    HW167515   6.058   7.681  12.903 -0.2597 -1.0945  0.3726
18512SOL    HW267516   5.916   7.729  12.881  0.7188  1.7807 -0.0659
18513SOL     OW67517   3.950   4.631   1.187  0.2037  0.6167 -0.4081
18513SOL    HW167518   4.034   4.641   1.142  0.0246  0.2750 -0.8227
18513SOL    HW267519   3.939   4.714   1.234  2.1069 -0.3736  1.9691
18514SOL     OW67520   0.259  10.243   0.919 -0.1390 -0.5682 -0.0203
18514SOL    HW167521   0.232  10.204   0.836  0.0360 -1.2614  0.2429
18514SOL    HW267522   0.207  10.198   0.985  0.2822 -0.5694  0.3145
18515SOL     OW67523  12.244   7.279   5.916 -0.5086  0.5512  0.0057
18515SOL    HW167524  12.271   7.272   6.008 -1.5395 -0.9195  0.2298
18515SOL    HW267525  12.316   7.240   5.867 -0.1892  0.8612  0.2165
18516SOL     OW67526  12.673  13.909  11.146 -0.0059  0.0245 -0.2685
18516SOL    HW167527  12.707  13.942  11.063 -0.3055  1.7881  0.2801
18516SOL    HW267528  12.720  13.827  11.160  3.0779  1.6843 -0.1994
18517SOL     OW67529  13.441   5.981   1.711 -0.0086  0.4086  0.2412
18517SOL    HW167530  13.534   5.973   1.733  0.5673  0.4121 -1.9134
18517SOL    HW267531  13.417   5.894   1.680 -0.2596  0.8168 -0.7398
18518SOL     OW67532   8.028   0.424   8.813 -0.0431  0.0957 -0.5497
18518SOL    HW167533   8.019   0.517   8.795  1.5607  0.5445  0.7385
18518SOL    HW267534   8.010   0.415   8.907  0.3112 -0.8065 -0.5530
18519SOL     OW67535   0.366  12.799   9.685  0.0928 -0.2150  0.6211
18519SOL    HW167536   0.353  12.816   9.592  2.1264  0.8081  0.4647
18519SOL    HW267537   0.283  12.822   9.726 -0.7019 -0.3107 -0.8966
18520SOL     OW67538  10.567   6.263   7.705  0.0791 -0.1303  0.1194
18520SOL    HW167539  10.483   6.217   7.696  0.1022  0.1520 -2.3505
18520SOL    HW267540  10.619   6.206   7.761 -1.4297 -0.7762  0.9446
18521SOL     OW67541  10.214  10.215  10.797 -0.4563  0.7739  0.4718
18521SOL    HW167542  10.207  10.235  10.703  1.2360  1.0578  0.3773
18521SOL    HW267543  10.125  10.193  10.823 -0.5499 -2.3343 -1.8803
18522SOL     OW67544  10.569  11.464   9.778 -0.0330  0.2006 -0.2275
18522SOL    HW167545  10.652  11.436   9.817 -0.2969  0.3178  0.4358
18522SOL    HW267546  10.594  11.510   9.698  0.6449  1.4032  0.6270
18523SOL     OW67547   6.469  10.381  10.759  0.6793  0.0533 -0.3814
18523SOL    HW167548   6.496  10.468  10.730  0.8361  0.2582  0.3637
18523SOL    HW267549   6.515  10.368  10.842  0.8091 -0.8213 -0.5848
18524SOL     OW67550   9.672   3.385   4.733  0.1548 -0.3792  0.0894
18524SOL    HW167551   9.701   3.295   4.719  0.4946 -0.1660 -0.6265
18524SOL    HW267552   9.753   3.436   4.732 -0.1167  0.0437 -0.4217
18525SOL     OW67553  10.448   5.811   5.504  0.3694  0.2952 -0.1217
18525SOL    HW167554  10.469   5.756   5.428  2.9656  0.6625  0.2323
18525SOL    HW267555  10.407   5.751   5.566  0.4825 -0.5704 -0.8552
18526SOL     OW67556   9.912  12.853  11.603 -0.0661 -0.2423  0.3691
18526SOL    HW167557   9.954  12.824  11.522  0.8686  2.5336 -0.2664
18526SOL    HW267558   9.932  12.784  11.667  0.9762 -1.4950 -1.2367
18527SOL     OW67559   2.351  13.400   1.209 -0.3019 -0.3272 -0.0867
18527SOL    HW167560   2.383  13.338   1.143  1.2752  0.9356 -0.5816
18527SOL    HW267561   2.428  13.419   1.263 -0.5245  1.7476 -0.4318
18528SOL     OW67562   8.672  11.874  12.553  0.0936 -0.1782  0.2098
18528SOL    HW167563   8.766  11.858  12.547  0.4354 -0.5593  4.2556
18528SOL    HW267564   8.662  11.967  12.530  1.7626  0.3581  1.4737
18529SOL     OW67565  10.436   5.865   4.280  0.1970 -0.3350  0.1278
18529SOL    HW167566  10.383   5.845   4.357 -1.7085  1.0465 -0.7415
18529SOL    HW267567  10.389   5.937   4.237  1.8387 -0.2764 -1.6869
18530SOL     OW67568   1.554   3.566   1.138 -0.1910  0.2383 -0.3642
18530SOL    HW167569   1.635   3.522   1.111 -0.9330 -1.1820 -0.3543
18530SOL    HW267570   1.544   3.543   1.230 -0.8218  0.0545 -0.4758
18531SOL     OW67571   3.829   6.876   2.789 -0.3458  0.3441  0.4370
18531SOL    HW167572   3.754   6.867   2.731 -0.0727  0.3419  0.0767
18531SOL    HW267573   3.903   6.889   2.730  0.1360 -0.9416  0.7145
18532SOL     OW67574  11.737   8.268   2.974  0.1091  0.2524  0.1820
18532SOL    HW167575  11.732   8.264   2.879 -1.7564  2.2296  0.1125
18532SOL    HW267576  11.817   8.221   2.996  0.9590  0.3449 -2.3946
18533SOL     OW67577   2.701   9.486  12.801 -0.5715 -0.7411  0.4130
18533SOL    HW167578   2.642   9.465  12.873 -1.8639 -1.1913 -0.7366
18533SOL    HW267579   2.734   9.402  12.771  0.9170 -0.4753  1.2234
18534SOL     OW67580   7.602  11.354   0.651  0.3718 -0.5334 -0.3545
18534SOL    HW167581   7.632  11.264   0.660  0.7849 -0.3388  0.2967
18534SOL    HW267582   7.534  11.350   0.584  0.7148 -1.2467 -0.6703
18535SOL     OW67583  11.995   4.248   4.778  0.3688  0.5907 -0.1703
18535SOL    HW167584  11.919   4.270   4.724  0.7039  0.6759 -0.6146
18535SOL    HW267585  12.069   4.291   4.735  0.9926 -1.0998 -0.9026
18536SOL     OW67586   7.962   7.701   8.632  0.1242 -0.4581  0.0074
18536SOL    HW167587   7.959   7.605   8.626 -1.2499 -0.4627  0.3646
18536SOL    HW267588   8.014   7.718   8.710 -1.7344 -1.0127  1.4389
18537SOL     OW67589  11.401  11.791   9.010 -0.3098 -0.2194 -0.4976
18537SOL    HW167590  11.482  11.783   9.060 -1.5067 -0.8669  1.4406
18537SOL    HW267591  11.352  11.860   9.055 -1.2536 -0.5227 -1.0397
18538SOL     OW67592   9.625  13.120  11.163  0.2436 -0.7811  0.2835
18538SOL    HW167593   9.675  13.061  11.107  1.2741 -0.0562  0.3852
18538SOL    HW267594   9.665  13.206  11.147 -1.1472 -0.1316  0.2092
18539SOL     OW67595   8.110   9.759   8.943 -0.1800  0.5354 -0.0874
18539SOL    HW167596   8.059   9.714   9.010  0.3509  0.5114  0.3001
18539SOL    HW267597   8.058   9.837   8.922  0.0237  0.9609  0.9259
18540SOL     OW67598   6.011   0.077   2.004  0.3191  0.1416  0.0608
18540SOL    HW167599   5.948   0.148   2.018 -2.4308 -2.3525  1.5998
18540SOL    HW267600   5.965   0.014   1.948  2.0858 -1.0613 -0.1258
18541SOL     OW67601   6.063  13.169  11.388  0.3298  0.1988 -0.2361
18541SOL    HW167602   6.072  13.120  11.470  0.7988  0.1837 -0.2933
18541SOL    HW267603   6.111  13.251  11.404 -1.1920  1.0615  0.1753
18542SOL     OW67604   8.839  13.978   2.325  0.6315 -0.0936  0.2196
18542SOL    HW167605   8.884  13.952   2.245 -0.8962 -0.8523 -0.4516
18542SOL    HW267606   8.864  13.912   2.389  0.4412 -0.5514 -0.1676
18543SOL     OW67607  11.530   0.686   1.066 -0.6705 -0.0844  0.4089
18543SOL    HW167608  11.517   0.737   0.987  4.2292  0.4835 -0.3373
18543SOL    HW267609  11.563   0.748   1.131  1.0823 -1.4028  0.8970
18544SOL     OW67610   5.647  11.975   0.614  0.4571 -0.7092 -0.0706
18544SOL    HW167611   5.589  11.963   0.538 -0.7986 -0.1140  0.7575
18544SOL    HW267612   5.630  11.899   0.670  1.7051 -1.3737 -0.5531
18545SOL     OW67613   1.881   2.926   9.102  0.0862 -0.8980 -0.2451
18545SOL    HW167614   1.918   3.001   9.149  0.4132 -1.6919  0.8014
18545SOL    HW267615   1.932   2.920   9.022  0.3116 -0.2380 -0.1558
18546SOL     OW67616   6.171   6.687   7.945  0.0604  0.3290 -0.0181
18546SOL    HW167617   6.149   6.771   7.986 -1.0775 -0.4418  1.0409
18546SOL    HW267618   6.215   6.638   8.014 -0.6910 -0.5038 -0.1049
18547SOL     OW67619   8.885  10.490   0.411  0.4758  0.5253  0.3174
18547SOL    HW167620   8.889  10.484   0.315  1.7572  1.5387  0.2827
18547SOL    HW267621   8.901  10.400   0.440 -3.4465 -0.5729 -0.4016
18548SOL     OW67622   7.483   2.092   4.178  0.1204 -0.2520  0.7399
18548SOL    HW167623   7.388   2.090   4.171  0.0585 -0.6862  1.6215
18548SOL    HW267624   7.509   2.001   4.188  0.5664 -0.0834  1.1763
18549SOL     OW67625   9.710   5.851  13.483  0.1208 -0.1603 -0.3067
18549SOL    HW167626   9.697   5.943  13.508  0.6689  0.3308 -1.7176
18549SOL    HW267627   9.639   5.804  13.525  0.1528  0.8268  0.9061
18550SOL     OW67628   4.969   9.561  10.532 -0.4461  0.1663  0.4549
18550SOL    HW167629   5.045   9.570  10.589  0.3239 -2.9473  0.1222
18550SOL    HW267630   4.905   9.623  10.567  1.6639  1.7570  1.7131
18551SOL     OW67631   2.681  13.213  10.892 -0.5508 -0.0130  0.5498
18551SOL    HW167632   2.722  13.266  10.824 -1.5256 -1.7951 -1.5159
18551SOL    HW267633   2.631  13.277  10.944  1.2288  1.5511  0.4494
18552SOL     OW67634   6.549   4.609  13.395  0.4726  0.3270  0.1349
18552SOL    HW167635   6.596   4.534  13.430 -0.3536  0.2825  1.2279
18552SOL    HW267636   6.596   4.685  13.430  0.0469  0.2863  0.8204
18553SOL     OW67637   0.773   0.161  13.209 -0.1115 -0.1487 -0.3448
18553SOL    HW167638   0.678   0.162  13.221 -0.0484 -0.9682  0.3372
18553SOL    HW267639   0.792   0.242  13.162 -1.1796 -0.1166 -0.7617
18554SOL     OW67640   7.192   0.452   3.918  0.3752  0.0614 -0.0371
18554SOL    HW167641   7.171   0.533   3.871 -0.3243  0.7839  1.4510
18554SOL    HW267642   7.285   0.437   3.899 -0.0764 -0.2122 -2.3674
18555SOL     OW67643   2.522  10.205   5.833  0.4092  0.3861 -0.6788
18555SOL    HW167644   2.428  10.221   5.848  0.9458  1.4662  2.2918
18555SOL    HW267645   2.561  10.293   5.835  1.6749 -0.1720 -0.1264
18556SOL     OW67646   9.502   2.440   4.914 -0.9462 -0.4723  0.1732
18556SOL    HW167647   9.490   2.529   4.947  1.4669 -0.2170  0.5834
18556SOL    HW267648   9.495   2.450   4.819 -1.4996  0.0071  0.2573
18557SOL     OW67649   8.273  13.257   3.647  0.2778 -0.4203  0.4735
18557SOL    HW167650   8.305  13.172   3.677  0.7274  0.5229  2.9683
18557SOL    HW267651   8.221  13.290   3.720  0.1306  1.4644 -0.4222
18558SOL     OW67652   3.896   0.701   7.156 -0.1321  0.1683 -0.0179
18558SOL    HW167653   3.989   0.706   7.178 -0.3794  0.9714  0.8762
18558SOL    HW267654   3.890   0.628   7.094  1.1713  0.4524 -0.5043
18559SOL     OW67655   3.524  10.651   5.594 -0.2635 -0.0589  0.1767
18559SOL    HW167656   3.472  10.679   5.519  1.2566  2.8651  0.0448
18559SOL    HW267657   3.483  10.696   5.669 -0.5222 -1.2689  0.7793
18560SOL     OW67658   3.531   8.758   5.991 -0.2286 -0.7850 -0.0262
18560SOL    HW167659   3.474   8.815   6.042 -0.3735 -0.2152 -0.8012
18560SOL    HW267660   3.473   8.687   5.962 -0.8369  0.2933 -1.6261
18561SOL     OW67661   5.922   6.591  13.011  0.6098  0.3873 -0.1072
18561SOL    HW167662   5.870   6.547  13.078 -0.1824  1.4515  0.0047
18561SOL    HW267663   5.938   6.678  13.046 -0.7064  1.3273 -1.6920
18562SOL     OW67664   7.151   4.880   7.822  0.6066 -0.5894  0.2681
18562SOL    HW167665   7.130   4.876   7.728  0.5345 -0.9953  0.2986
18562SOL    HW267666   7.246   4.892   7.825  0.3989  1.5277  0.1257
18563SOL     OW67667   2.606   1.155   9.790  0.2429  0.1977 -0.1793
18563SOL    HW167668   2.663   1.132   9.717  0.4203  0.7385 -0.2102
18563SOL    HW267669   2.665   1.167   9.864  0.1088  0.1401 -0.0614
18564SOL     OW67670   2.170  11.928  11.613  0.3725 -0.3304 -0.0210
18564SOL    HW167671   2.197  11.836  11.621 -0.6360 -0.6569 -0.1268
18564SOL    HW267672   2.091  11.924  11.559  0.4289  0.6268 -0.1784
18565SOL     OW67673   8.337  11.674   3.424 -0.1945  0.1545 -0.0741
18565SOL    HW167674   8.319  11.581   3.408  0.7273 -0.1163  0.4492
18565SOL    HW267675   8.336  11.713   3.336  2.1380 -0.8453 -0.6219
18566SOL     OW67676   7.933   9.598   3.505  0.5729 -0.6050  0.1028
18566SOL    HW167677   7.854   9.651   3.498  0.4158 -0.2944  2.9397
18566SOL    HW267678   7.999   9.657   3.540  1.4284 -1.4066 -0.1132
18567SOL     OW67679   4.592  12.173   4.712 -0.4795  0.6431 -0.0853
18567SOL    HW167680   4.507  12.131   4.712 -0.4386  0.5572  0.0657
18567SOL    HW267681   4.612  12.188   4.620 -1.4829  2.3431 -0.0731
18568SOL     OW67682  12.795  11.430   5.352 -0.4056  0.4832  0.1138
18568SOL    HW167683  12.891  11.425   5.359 -0.4242 -0.2284 -0.0454
18568SOL    HW267684  12.769  11.343   5.322 -1.1800  0.4232  0.9192
18569SOL     OW67685  12.991  13.475   6.825  0.6067  0.0387  0.5605
18569SOL    HW167686  13.022  13.520   6.903 -0.7804 -0.1868  1.2610
18569SOL    HW267687  12.908  13.519   6.803 -0.2913 -1.5088  0.6972
18570SOL     OW67688   8.405   4.902   1.546  0.2887 -0.1204 -0.0380
18570SOL    HW167689   8.404   4.806   1.557  1.8575 -0.0066  1.6753
18570SOL    HW267690   8.477   4.931   1.602 -0.3840  2.1118 -0.2546
18571SOL     OW67691   7.135   0.725   5.582  0.0663  0.0467 -0.0811
18571SOL    HW167692   7.218   0.750   5.622 -0.5907  1.3398  0.5248
18571SOL    HW267693   7.095   0.665   5.645  1.1444 -1.7648 -1.0294
18572SOL     OW67694  10.321  12.975  11.665 -0.1556  0.4267  0.1363
18572SOL    HW167695  10.234  12.962  11.629  0.2239 -1.7361 -0.0845
18572SOL    HW267696  10.380  12.932  11.604  0.8690  0.0976  1.3109
18573SOL     OW67697   2.539   8.330   6.498  0.4417  0.1089 -0.0271
18573SOL    HW167698   2.458   8.373   6.523 -1.8906 -3.5141 -0.6479
18573SOL    HW267699   2.533   8.322   6.402  1.7342  0.1194 -0.1289
18574SOL     OW67700   4.422   5.183   2.022 -0.5300  0.4074  0.9217
18574SOL    HW167701   4.428   5.118   2.091  1.0147  1.1368  1.5164
18574SOL    HW267702   4.386   5.261   2.065  1.6208  1.2733  1.2672
18575SOL     OW67703   5.654   3.365   7.410 -0.1987 -0.3528 -0.0741
18575SOL    HW167704   5.654   3.272   7.435  0.4530 -1.2965 -3.1792
18575SOL    HW267705   5.589   3.371   7.341 -0.4796  1.6384  0.3037
18576SOL     OW67706   5.984   2.770   0.265  0.6111  0.4115 -0.4238
18576SOL    HW167707   6.032   2.802   0.341 -2.0798 -0.7206  1.9242
18576SOL    HW267708   6.024   2.687   0.243  1.8409  1.0677 -0.7411
18577SOL     OW67709  12.848  10.804   4.339  0.2446  0.2661  0.2499
18577SOL    HW167710  12.925  10.843   4.380  1.3147 -2.3496  0.9220
18577SOL    HW267711  12.783  10.801   4.409  0.6447 -0.3889  0.6047
18578SOL     OW67712  10.296  11.364  12.611 -0.4644  0.2253  0.1667
18578SOL    HW167713  10.200  11.369  12.606 -0.5979 -0.9943  1.0191
18578SOL    HW267714  10.320  11.428  12.677 -0.9543 -1.1882  1.7935
18579SOL     OW67715  10.011  13.866   1.159  0.3272 -0.0354  0.3686
18579SOL    HW167716   9.988  13.859   1.066  0.8117 -0.8585  0.3001
18579SOL    HW267717  10.074  13.795   1.173  0.2270  0.0611  1.3380
18580SOL     OW67718  11.446   2.413   8.086 -0.0804  0.2273  0.3221
18580SOL    HW167719  11.378   2.424   8.152  1.2922 -1.9213  2.2367
18580SOL    HW267720  11.494   2.496   8.087 -0.2669  0.3339  1.8479
18581SOL     OW67721  12.853   0.165   2.774  0.6170 -0.2346  0.1363
18581SOL    HW167722  12.884   0.136   2.689  0.6418  1.8764 -0.6235
18581SOL    HW267723  12.850   0.261   2.768  0.1022 -0.0510  2.3229
18582SOL     OW67724   4.102   3.773   1.451  0.3117 -0.1103  0.4461
18582SOL    HW167725   4.143   3.702   1.501 -0.3520 -1.2866 -0.6303
18582SOL    HW267726   4.010   3.772   1.478 -0.0261 -0.6674 -0.6581
18583SOL     OW67727   0.721  13.903  13.140 -0.2336  0.1354 -0.0681
18583SOL    HW167728   0.637  13.927  13.102  0.6691  2.2281 -0.9071
18583SOL    HW267729   0.755  13.984  13.177  1.8877 -0.3717 -0.7382
18584SOL     OW67730  12.407   7.253  13.270 -0.0706 -0.5943 -0.5968
18584SOL    HW167731  12.431   7.169  13.231 -0.6251 -0.8247 -0.4454
18584SOL    HW267732  12.435   7.247  13.361  1.4868  0.0509 -0.9881
18585SOL     OW67733  13.870   7.826   3.147 -0.1636  0.3945 -0.0200
18585SOL    HW167734  13.874   7.747   3.094 -1.1088  0.3453 -0.0491
18585SOL    HW267735  13.880   7.796   3.237 -1.3387  0.1106  0.0423
18586SOL     OW67736   1.245   7.384   3.416  0.1101  0.0246  0.4967
18586SOL    HW167737   1.290   7.400   3.499 -0.0014  1.0221  0.3848
18586SOL    HW267738   1.264   7.293   3.395  2.2778  0.4589  0.3267
18587SOL     OW67739  10.613   2.576   8.922  0.1165 -0.5003 -0.1480
18587SOL    HW167740  10.615   2.665   8.955 -0.2615 -0.0174 -1.3476
18587SOL    HW267741  10.534   2.537   8.960  0.0843 -0.1996  0.0936
18588SOL     OW67742  10.243   2.277   9.491  0.0535  0.0478 -0.1226
18588SOL    HW167743  10.176   2.345   9.491  1.1033  1.1643  1.7580
18588SOL    HW267744  10.290   2.290   9.409  0.3840  1.7893  0.3094
18589SOL     OW67745  13.980  10.886   4.387 -0.0524 -0.0228 -0.5852
18589SOL    HW167746  14.026  10.816   4.342 -1.3795 -1.8580  0.7622
18589SOL    HW267747  13.901  10.901   4.335  1.2043  2.0824 -2.0658
18590SOL     OW67748   3.247   3.658   4.690 -0.2783 -0.1133 -0.2528
18590SOL    HW167749   3.303   3.733   4.671  0.7670 -0.4486  1.2511
18590SOL    HW267750   3.237   3.660   4.785  1.5987 -3.0297  0.1436
18591SOL     OW67751  13.505   9.575   7.731 -0.3014  0.8180  0.5430
18591SOL    HW167752  13.528   9.489   7.769 -2.0697 -1.5200 -3.1136
18591SOL    HW267753  13.413   9.587   7.754 -0.4027  1.1011 -0.0014
18592SOL     OW67754   0.897   9.888   9.276 -0.2887  0.0908 -0.6161
18592SOL    HW167755   0.903   9.819   9.210  0.5916  0.5436 -1.0141
18592SOL    HW267756   0.987   9.916   9.290 -0.3776 -0.4112  1.2227
18593SOL     OW67757  10.140   4.142   1.693  0.1770 -0.4347  0.1183
18593SOL    HW167758  10.138   4.096   1.608  3.9108 -1.2584  0.2874
18593SOL    HW267759  10.185   4.225   1.674  0.2207 -0.2208  1.1073
18594SOL     OW67760   4.186  11.648   2.025 -0.1770  0.3234 -0.1561
18594SOL    HW167761   4.145  11.574   1.981 -0.0923  0.9595 -1.3496
18594SOL    HW267762   4.116  11.713   2.033  0.2286  0.8724 -0.9342
18595SOL     OW67763   0.764   7.392   2.445 -0.3654  0.3161  0.3748
18595SOL    HW167764   0.697   7.327   2.424  0.1957 -0.0952 -0.1426
18595SOL    HW267765   0.838   7.342   2.477 -0.1081  0.7356  0.4426
18596SOL     OW67766   3.240   9.969   1.129  0.0634  0.1293  0.3451
18596SOL    HW167767   3.225   9.950   1.036  0.6357  1.5832 -0.0650
18596SOL    HW267768   3.176   9.914   1.174 -0.3599 -0.4693 -0.9160
18597SOL     OW67769   8.977  12.665   3.559  0.0760 -0.2522  0.3355
18597SOL    HW167770   8.903  12.723   3.578  0.7110  0.9598 -0.6973
18597SOL    HW267771   8.963  12.637   3.468  0.5768 -0.4765  0.3239
18598SOL     OW67772  10.722   8.071   9.784 -0.0012 -0.0835  0.7435
18598SOL    HW167773  10.779   8.029   9.848 -0.0113  0.0416  0.8348
18598SOL    HW267774  10.674   7.998   9.744 -0.2875 -0.1333  1.1615
18599SOL     OW67775   1.792   9.553  12.170  0.2187  0.0624  0.3417
18599SOL    HW167776   1.827   9.473  12.133 -0.6862 -0.4740  0.6019
18599SOL    HW267777   1.799   9.618  12.100 -0.7818 -0.7379 -0.5219
18600SOL     OW67778  11.665   1.657  12.240 -0.4071 -0.4706  0.1728
18600SOL    HW167779  11.730   1.716  12.201 -0.0300  0.0678  1.5464
18600SOL    HW267780  11.583   1.705  12.232 -0.5018 -0.7788 -0.7948
18601SOL     OW67781  10.712  13.044   0.396 -0.1888 -0.1409  0.2255
18601SOL    HW167782  10.759  13.003   0.469 -1.8472 -1.2145  0.7395
18601SOL    HW267783  10.649  12.978   0.368  0.0641  0.4292 -1.8947
18602SOL     OW67784   4.938   8.237   9.864 -0.1515  0.1942 -0.8401
18602SOL    HW167785   5.003   8.233   9.794  0.0745  0.5593 -0.6553
18602SOL    HW267786   4.964   8.168   9.925 -0.3541 -0.1296 -1.1233
18603SOL     OW67787  10.941   0.899  10.146  0.1433  0.4345  0.3669
18603SOL    HW167788  10.995   0.932  10.074  2.5524 -1.1559  1.3323
18603SOL    HW267789  10.970   0.808  10.158 -1.8234 -0.0549  1.8731
18604SOL     OW67790   9.241   3.880   4.914 -0.2222 -0.5782  0.3565
18604SOL    HW167791   9.324   3.860   4.873 -0.1820 -2.0080  1.0688
18604SOL    HW267792   9.223   3.971   4.890  1.0507 -0.5618 -0.6121
18605SOL     OW67793   4.861   8.197   1.405  0.0540 -0.2628  0.1349
18605SOL    HW167794   4.933   8.203   1.342 -0.4755  0.1301 -0.4482
18605SOL    HW267795   4.828   8.287   1.412  0.1750 -0.2849  1.0602
18606SOL     OW67796  13.080   5.008   4.634  0.3252 -0.3321  0.4335
18606SOL    HW167797  13.008   5.072   4.630 -0.4403 -0.9886  2.3684
18606SOL    HW267798  13.109   5.000   4.543 -1.2198  0.8827 -0.2369
18607SOL     OW67799  11.029   0.159   1.746 -0.6785  0.3013 -0.4545
18607SOL    HW167800  10.996   0.240   1.706  2.4686  0.9082 -2.1775
18607SOL    HW267801  11.106   0.186   1.796 -1.2780 -1.2827  1.4327
18608SOL     OW67802  13.020   5.418  12.485 -0.0889 -0.9963 -0.1689
18608SOL    HW167803  12.936   5.462  12.469  0.5618  2.0775  3.3445
18608SOL    HW267804  13.080   5.456  12.421 -0.2655  1.1526  0.8327
18609SOL     OW67805   9.994  11.571  10.650  0.2809  0.5601  0.1236
18609SOL    HW167806   9.943  11.501  10.608 -0.1176 -0.0332  1.5473
18609SOL    HW267807   9.941  11.599  10.724  1.4879  0.7517  0.9440
18610SOL     OW67808   4.996   2.073   7.325 -0.2396  0.0942  0.7131
18610SOL    HW167809   5.076   2.046   7.371 -0.5958  0.6633  1.7000
18610SOL    HW267810   5.027   2.129   7.254  0.2483  0.2109  1.0122
18611SOL     OW67811  11.944   0.706   4.895 -0.2778  0.1613 -0.1765
18611SOL    HW167812  12.019   0.722   4.838  0.5130  0.2159  0.8583
18611SOL    HW267813  11.982   0.680   4.979 -1.4057  0.3266  0.4086
18612SOL     OW67814   1.785   6.393  10.101  0.1216  0.4273  0.4026
18612SOL    HW167815   1.757   6.415  10.012  1.6061  1.6760  0.2024
18612SOL    HW267816   1.812   6.302  10.096 -1.5261 -0.0884  0.0485
18613SOL     OW67817   1.695   1.220   1.384 -0.3654  0.2199 -0.1507
18613SOL    HW167818   1.734   1.134   1.400  0.2811  0.5809  0.2239
18613SOL    HW267819   1.646   1.239   1.464  1.2365  1.1371  0.6442
18614SOL     OW67820   8.884   4.915   7.218  0.1586  0.0332  0.6988
18614SOL    HW167821   8.934   4.947   7.293  2.9410  0.2286 -1.0802
18614SOL    HW267822   8.904   4.821   7.215  0.9558  0.2151 -0.3524
18615SOL     OW67823  10.563   3.630   8.070 -0.3043  0.4266  0.4141
18615SOL    HW167824  10.536   3.573   8.143 -1.9066  0.9861  0.3156
18615SOL    HW267825  10.522   3.591   7.993  1.7834 -0.4384 -0.3215
18616SOL     OW67826   9.308  13.885   5.504 -0.5315  0.2764 -0.3426
18616SOL    HW167827   9.318  13.919   5.415 -0.7014 -1.2394 -0.9837
18616SOL    HW267828   9.395  13.896   5.544 -1.0248  3.0729  0.1494
18617SOL     OW67829   4.661  11.995  11.053  0.2040 -0.0031 -0.3772
18617SOL    HW167830   4.675  12.068  10.993  0.6011  0.4898  0.3112
18617SOL    HW267831   4.734  11.999  11.115 -0.3584 -0.3236  0.3260
18618SOL     OW67832   4.252   5.838  11.592  0.0627 -0.1038 -0.3382
18618SOL    HW167833   4.323   5.810  11.534 -0.5882  0.3144 -1.3685
18618SOL    HW267834   4.283   5.920  11.631  0.0996  0.1552 -0.8983
18619SOL     OW67835   4.138  11.303   9.039  0.4758 -0.0179 -0.0019
18619SOL    HW167836   4.128  11.231   8.977  0.8131  0.4304 -0.5822
18619SOL    HW267837   4.225  11.291   9.076  1.6167  1.5350 -1.9981
18620SOL     OW67838  12.569  10.911   3.505 -0.4317  0.2966 -0.3299
18620SOL    HW167839  12.578  10.930   3.598  2.7334 -1.4878 -0.1453
18620SOL    HW267840  12.502  10.842   3.500 -0.2438  0.0380  0.6746
18621SOL     OW67841   7.205   7.464   5.643 -0.1363 -0.3199  0.5875
18621SOL    HW167842   7.211   7.464   5.548  0.3485  0.6422  0.6087
18621SOL    HW267843   7.280   7.412   5.672  1.1635  1.4075  0.4882
18622SOL     OW67844   0.416   2.342  12.664  0.0712  0.3304 -0.3965
18622SOL    HW167845   0.441   2.432  12.682 -0.7337  0.3837  0.5542
18622SOL    HW267846   0.495   2.290  12.680  0.6902  0.9047 -1.4781
18623SOL     OW67847  10.817   8.605   3.864 -0.0404 -0.2886  0.1250
18623SOL    HW167848  10.824   8.628   3.957 -0.3028 -0.8134  0.2782
18623SOL    HW267849  10.723   8.614   3.845  0.1933  1.2006 -0.4582
18624SOL     OW67850   0.587   3.310   2.058 -0.1097 -0.0837  0.0321
18624SOL    HW167851   0.622   3.356   2.135 -1.7001  0.0068  0.7302
18624SOL    HW267852   0.630   3.225   2.060  0.3854  0.1706  0.6213
18625SOL     OW67853   9.620   4.139   3.185 -0.7366  0.1758 -0.1669
18625SOL    HW167854   9.684   4.109   3.120  0.5893  0.9491  0.7457
18625SOL    HW267855   9.626   4.076   3.256 -1.3627 -0.0171 -0.2729
18626SOL     OW67856  11.717  13.633   1.504  0.1926 -0.0231 -0.1009
18626SOL    HW167857  11.767  13.713   1.485  1.2296 -0.6681 -0.1855
18626SOL    HW267858  11.709  13.632   1.599 -1.3804  1.0802 -0.1941
18627SOL     OW67859   3.413   3.127   4.979  0.5202  0.0115  0.1579
18627SOL    HW167860   3.319   3.114   4.992  0.4545  1.7662  2.0400
18627SOL    HW267861   3.435   3.075   4.902 -1.7158 -1.5268  0.4850
18628SOL     OW67862   1.323  11.831  12.043 -0.1817  0.3952 -0.0412
18628SOL    HW167863   1.325  11.906  12.103  2.0572 -0.0079  0.4701
18628SOL    HW267864   1.331  11.755  12.100  3.0981  0.0408 -0.8023
18629SOL     OW67865   9.114   4.647   7.630 -0.0504 -0.0755  0.2738
18629SOL    HW167866   9.132   4.719   7.691  1.4894 -0.2240  0.0358
18629SOL    HW267867   9.195   4.595   7.630 -0.6245 -1.0062 -0.6447
18630SOL     OW67868   7.131   9.373   4.202  0.0900 -0.2015 -0.0254
18630SOL    HW167869   7.063   9.393   4.138 -0.1724 -0.5945  0.1312
18630SOL    HW267870   7.104   9.291   4.242  1.8151 -1.5896 -1.5538
18631SOL     OW67871   9.900   5.006   1.646  0.4207 -0.1640 -0.4679
18631SOL    HW167872   9.891   5.076   1.581  1.8809  0.4305 -0.0726
18631SOL    HW267873   9.834   5.025   1.712  0.8643  0.9269 -0.3162
18632SOL     OW67874   5.986   4.853   4.452  0.4322 -0.2132 -0.1515
18632SOL    HW167875   5.924   4.784   4.476 -0.3165  0.1562 -0.9744
18632SOL    HW267876   6.016   4.830   4.365 -0.4525  0.9094 -0.7847
18633SOL     OW67877   4.874  13.675   6.664 -0.0098 -0.0651 -0.2768
18633SOL    HW167878   4.951  13.648   6.713 -0.7655  0.4961  1.2752
18633SOL    HW267879   4.858  13.766   6.691 -1.7512 -0.4659  0.1908
18634SOL     OW67880   1.110  13.207   5.785  0.2628  0.5684  0.3903
18634SOL    HW167881   1.099  13.111   5.784  1.0070  0.4155  2.3537
18634SOL    HW267882   1.039  13.238   5.841  1.1086  0.9426  1.2964
18635SOL     OW67883   5.849  10.552   3.966  0.2328  0.5363  0.0881
18635SOL    HW167884   5.801  10.634   3.956 -3.6574 -1.4353  0.7237
18635SOL    HW267885   5.856  10.517   3.877  0.2061  0.6979  0.0229
18636SOL     OW67886  10.103  11.420   6.651  0.5194 -0.1416 -0.4364
18636SOL    HW167887  10.116  11.449   6.742  0.8761  3.6681 -1.5372
18636SOL    HW267888  10.188  11.386   6.625  0.4451 -1.1705  0.5592
18637SOL     OW67889   9.256   0.374   5.879 -0.2199  0.0084  0.3064
18637SOL    HW167890   9.309   0.451   5.900 -2.6768  1.7072  0.5952
18637SOL    HW267891   9.284   0.350   5.790  1.6241  0.2654  0.7713
18638SOL     OW67892  10.637   0.557   2.832 -0.4241  0.0978 -0.7730
18638SOL    HW167893  10.571   0.621   2.860 -0.9109 -0.2522 -1.1008
18638SOL    HW267894  10.718   0.587   2.872 -0.9400  0.0623  0.3479
18639SOL     OW67895   3.792  12.445   0.694 -0.1711  0.4620  0.5272
18639SOL    HW167896   3.854  12.460   0.622 -0.7507  1.2446  0.1589
18639SOL    HW267897   3.756  12.532   0.712 -2.3343 -0.1797 -0.3719
18640SOL     OW67898   4.574   9.857  10.563 -0.2861 -0.1736 -0.7484
18640SOL    HW167899   4.532   9.816  10.487 -3.0102 -0.5754  0.8414
18640SOL    HW267900   4.558   9.950  10.552 -0.1097 -0.1716 -0.9851
18641SOL     OW67901  12.730   0.848  13.940 -0.4981 -0.0514  0.4203
18641SOL    HW167902  12.783   0.901  13.881 -2.4165  1.2846 -0.1891
18641SOL    HW267903  12.790   0.824  14.011  1.1165  0.6692 -0.6447
18642SOL     OW67904   2.036  10.661   8.357  0.0698  0.2488 -0.0379
18642SOL    HW167905   2.037  10.742   8.408  1.8018  0.8031 -0.8536
18642SOL    HW267906   2.027  10.691   8.266  0.5407 -0.4758 -0.3305
18643SOL     OW67907   9.872   0.191   1.516 -0.1484 -0.3031 -0.6562
18643SOL    HW167908   9.935   0.149   1.574 -1.9215  0.6985  2.1888
18643SOL    HW267909   9.921   0.205   1.434  3.2027  0.0700  1.2123
18644SOL     OW67910  12.940   6.897  13.998  0.4312  0.3321  0.2254
18644SOL    HW167911  12.925   6.916  14.091  0.4450  2.2121 -0.1201
18644SOL    HW267912  13.012   6.834  13.998 -0.5225 -0.8139  1.5270
18645SOL     OW67913   4.809   7.291  12.035  0.4810  0.0983 -0.1453
18645SOL    HW167914   4.894   7.286  11.991  0.3518  0.8356 -0.4905
18645SOL    HW267915   4.756   7.347  11.979 -0.0596  0.1072  0.3623
18646SOL     OW67916   0.587   8.847  12.474  0.1689 -0.5307  0.4526
18646SOL    HW167917   0.617   8.765  12.514 -2.4923 -2.5438 -1.3798
18646SOL    HW267918   0.552   8.821  12.389  1.0992  2.8663 -1.1298
18647SOL     OW67919   3.059   0.081   8.792 -0.6522 -0.4314  0.7043
18647SOL    HW167920   3.044   0.068   8.698  0.0237 -0.0393  0.5375
18647SOL    HW267921   3.017   0.165   8.812 -0.5109 -0.3544  0.6801
18648SOL     OW67922  12.079  11.177  12.936  0.3759  0.1226 -0.2579
18648SOL    HW167923  12.134  11.253  12.954 -0.5945  1.9232 -4.0422
18648SOL    HW267924  11.991  11.205  12.959  0.4939 -2.1097  3.9690
18649SOL     OW67925   2.608  11.370   5.995  0.8596  0.8830  0.5801
18649SOL    HW167926   2.517  11.354   6.020  0.6335  0.2328 -0.6099
18649SOL    HW267927   2.659  11.314   6.054  0.2483 -1.9125 -1.3620
18650SOL     OW67928   0.781   5.760   4.179  0.7854 -0.1658  0.3236
18650SOL    HW167929   0.819   5.833   4.228 -0.3033 -0.1316  1.1593
18650SOL    HW267930   0.688   5.781   4.173  0.8323 -0.3207 -1.5346
18651SOL     OW67931  13.952  12.115   6.852 -0.0962  0.0622 -0.6067
18651SOL    HW167932  13.985  12.042   6.800  0.9268  0.9166 -1.1853
18651SOL    HW267933  14.030  12.158   6.886 -0.6437  1.3168 -0.8652
18652SOL     OW67934  11.544   6.683   6.964  0.3324  0.1189 -0.6889
18652SOL    HW167935  11.628   6.693   6.919  0.1378 -0.4259 -1.1908
18652SOL    HW267936  11.526   6.769   7.001  2.0480 -0.2399  1.1364
18653SOL     OW67937  11.195   7.610  13.339 -0.0057  0.1219 -0.0994
18653SOL    HW167938  11.189   7.533  13.396 -1.2140  0.2716  0.0076
18653SOL    HW267939  11.219   7.682  13.397 -2.2298  0.4795  0.4645
18654SOL     OW67940   9.977  13.611   2.508  0.0145  0.6031 -0.4761
18654SOL    HW167941   9.957  13.520   2.531  3.3029 -0.3332 -0.8411
18654SOL    HW267942   9.946  13.621   2.418 -1.3375  0.2219 -0.0757
18655SOL     OW67943   8.332  13.183   8.271  0.1559  0.2484  0.7175
18655SOL    HW167944   8.260  13.187   8.334 -0.2462  2.6587  0.2269
18655SOL    HW267945   8.406  13.224   8.317  0.5062 -0.0116  0.3907
18656SOL     OW67946   0.503   7.279   5.808  0.3468  0.1933  0.0071
18656SOL    HW167947   0.578   7.334   5.784  0.8876 -0.4160  0.2877
18656SOL    HW267948   0.458   7.329   5.876 -0.4445  1.3215 -1.2817
18657SOL     OW67949   3.701   5.901  11.403  1.2324 -0.2769 -0.2723
18657SOL    HW167950   3.725   5.813  11.432  4.6061  0.6149  0.1569
18657SOL    HW267951   3.756   5.959  11.456 -1.3736  2.2063 -0.0326
18658SOL     OW67952   6.669   3.869  13.452 -0.0559  0.0535  0.8240
18658SOL    HW167953   6.664   3.837  13.541 -1.8877 -1.2505  0.3107
18658SOL    HW267954   6.690   3.792  13.399  0.3296  0.6666  0.0490
18659SOL     OW67955  10.537   0.296   9.739 -0.0563  0.0359 -0.1826
18659SOL    HW167956  10.538   0.287   9.834  0.7276  1.6754  0.0010
18659SOL    HW267957  10.473   0.231   9.709  0.2145 -1.0134  1.3853
18660SOL     OW67958   6.019   0.094   8.600  0.1875 -0.2988  0.4497
18660SOL    HW167959   6.092   0.050   8.644  0.3273 -1.2170 -0.6456
18660SOL    HW267960   6.053   0.114   8.513 -0.5622  0.1385  0.2531
18661SOL     OW67961   2.214   2.237   9.798  0.8586 -0.1881  0.2017
18661SOL    HW167962   2.250   2.150   9.785  0.2722 -0.4649  0.4015
18661SOL    HW267963   2.290   2.295   9.798  1.0821 -0.2847 -3.0723
18662SOL     OW67964   0.560   3.156   3.630 -0.3685  0.2768 -0.3317
18662SOL    HW167965   0.513   3.096   3.572 -0.8481  0.6788 -0.3575
18662SOL    HW267966   0.534   3.243   3.602 -0.2230  0.4864  0.1660
18663SOL     OW67967   6.472   3.233  10.722 -0.0599  0.1235  0.5846
18663SOL    HW167968   6.559   3.209  10.754  0.4121  2.1425  0.9913
18663SOL    HW267969   6.418   3.237  10.800  0.1714  1.4319  0.7056
18664SOL     OW67970   8.814   3.206   4.213 -0.4746  0.5054 -0.2578
18664SOL    HW167971   8.746   3.144   4.239 -0.9650  0.7820 -0.8549
18664SOL    HW267972   8.850   3.238   4.296 -1.6093  0.9451  0.0890
18665SOL     OW67973   7.448   3.808   5.045 -0.1658  0.2338 -0.0816
18665SOL    HW167974   7.439   3.843   4.957 -1.5351  3.2795  1.1349
18665SOL    HW267975   7.541   3.818   5.065  0.0116  0.2770 -0.8836
18666SOL     OW67976   8.546   2.731   9.218 -0.1289  0.3345  0.0226
18666SOL    HW167977   8.540   2.747   9.124 -1.7157  0.4624  0.1319
18666SOL    HW267978   8.639   2.747   9.239  0.7901 -1.8826 -1.8905
18667SOL     OW67979   4.692  10.662   0.273  0.4159 -0.6086 -0.9813
18667SOL    HW167980   4.746  10.585   0.290  0.8518  0.1348  1.2467
18667SOL    HW267981   4.695  10.713   0.354 -0.5413  1.3598 -2.1038
18668SOL     OW67982   4.845  12.647   0.280 -0.4438  0.3570  0.2832
18668SOL    HW167983   4.918  12.666   0.221  0.3157 -0.2583  0.9888
18668SOL    HW267984   4.768  12.645   0.223  0.4354 -1.6171 -0.9749
18669SOL     OW67985   1.672  11.143  13.856  0.0265 -0.2036 -0.0580
18669SOL    HW167986   1.708  11.114  13.772 -0.1041 -1.4011  0.2814
18669SOL    HW267987   1.598  11.085  13.872 -1.6664  1.7771 -0.3883
18670SOL     OW67988  10.508   1.516  10.935  0.1697 -0.0704 -0.2410
18670SOL    HW167989  10.523   1.507  11.029 -0.0584  0.0945 -0.1857
18670SOL    HW267990  10.594   1.533  10.898  0.8717 -3.6098 -0.5254
18671SOL     OW67991   6.104   5.387  12.968 -0.1644  0.0990 -0.0741
18671SOL    HW167992   6.060   5.323  13.025 -0.6559 -0.4730 -1.0662
18671SOL    HW267993   6.100   5.348  12.881  0.9383  0.7688 -0.4486
18672SOL     OW67994   5.262   1.611   6.691 -0.4524  0.2593  0.3331
18672SOL    HW167995   5.221   1.649   6.614 -1.3419  0.6643  0.9948
18672SOL    HW267996   5.345   1.658   6.700 -0.5174  0.4648 -0.1553
18673SOL     OW67997  13.233   7.050  12.526 -0.3725 -0.0307 -0.4174
18673SOL    HW167998  13.276   7.046  12.440 -1.4884  1.1482 -1.0771
18673SOL    HW267999  13.198   7.139  12.531  0.2187  0.1208  1.5581
18674SOL     OW68000   7.294  13.034   8.740  0.1491  0.0120  0.5461
18674SOL    HW168001   7.351  13.034   8.663  0.2694  0.8451  0.6241
18674SOL    HW268002   7.251  13.119   8.738 -0.4005 -0.2487  0.9982
18675SOL     OW68003   2.348  13.391   8.378  0.0106 -0.2122 -0.6198
18675SOL    HW168004   2.393  13.387   8.294  1.5730  0.1919  0.1586
18675SOL    HW268005   2.418  13.398   8.443 -1.1830  1.1440  0.6214
18676SOL     OW68006   0.483   0.231   2.034  0.0951  0.1774 -0.7546
18676SOL    HW168007   0.430   0.277   1.970  1.0651  2.9440  0.2876
18676SOL    HW268008   0.492   0.143   1.998 -1.5556  0.8478 -3.0712
18677SOL     OW68009   4.027   5.914   0.034  0.1417  0.8208 -0.5184
18677SOL    HW168010   4.053   5.926   0.125 -3.6275 -0.9998  1.0194
18677SOL    HW268011   3.985   5.828   0.032 -0.6697  1.1547 -3.7920
18678SOL     OW68012   5.112  12.527  13.046 -0.8838  0.1398  0.2152
18678SOL    HW168013   5.018  12.514  13.043 -0.6592 -2.2413  1.6198
18678SOL    HW268014   5.146  12.477  12.972 -0.7709  2.8517 -1.7443
18679SOL     OW68015   5.785   8.487   5.927  0.7282 -0.1928 -0.3899
18679SOL    HW168016   5.731   8.524   5.857 -0.4393 -1.8529 -0.4370
18679SOL    HW268017   5.730   8.491   6.005  1.4387  0.2231  0.1036
18680SOL     OW68018   4.735   0.281   7.432  0.0793  0.0115 -0.3031
18680SOL    HW168019   4.822   0.259   7.398  0.5713  1.2701  0.1007
18680SOL    HW268020   4.726   0.375   7.416 -0.1363  0.4282  1.9652
18681SOL     OW68021  10.204   8.461   8.647  0.3302  0.2313  0.0806
18681SOL    HW168022  10.211   8.520   8.722  1.0226  0.1311  0.0995
18681SOL    HW268023  10.140   8.503   8.589 -0.9201 -0.1581  1.1374
18682SOL     OW68024   6.821   0.769  13.331 -0.9435  0.1705 -0.3403
18682SOL    HW168025   6.745   0.710  13.333  0.0892 -1.1853  0.6231
18682SOL    HW268026   6.794   0.843  13.385 -1.1565 -0.8821  1.0518
18683SOL     OW68027   3.252  12.475   4.433  0.0799  0.2373  0.4506
18683SOL    HW168028   3.172  12.507   4.390 -0.9857 -0.5194  1.7756
18683SOL    HW268029   3.276  12.545   4.494  0.1091  0.2330  0.4438
18684SOL     OW68030   4.123  10.064   0.701  0.1883 -0.1544  0.0282
18684SOL    HW168031   4.082  10.106   0.777  0.5392  0.4910 -0.1371
18684SOL    HW268032   4.118  10.129   0.632  1.0213 -0.2635 -0.1429
18685SOL     OW68033   4.374   2.560   2.744 -0.0461  0.0295  0.0209
18685SOL    HW168034   4.354   2.521   2.658 -0.2001 -0.7041  0.3783
18685SOL    HW268035   4.289   2.591   2.776 -0.1612 -0.5846  0.3292
18686SOL     OW68036  11.584   9.897  10.795 -0.0707  0.6027 -0.5055
18686SOL    HW168037  11.539   9.981  10.803  1.0220  1.2536 -0.8527
18686SOL    HW268038  11.646   9.911  10.723  0.6005 -0.2804 -0.1168
18687SOL     OW68039   2.821   4.060  13.946  0.5275  0.1185  0.5047
18687SOL    HW168040   2.863   4.024  13.867  1.0702  0.3243  0.6966
18687SOL    HW268041   2.872   4.137  13.967 -0.1019  0.5165  0.6066
18688SOL     OW68042   4.501   3.211  12.343  0.4808  0.3077 -0.5632
18688SOL    HW168043   4.470   3.207  12.253 -1.3310 -0.4688  0.0560
18688SOL    HW268044   4.462   3.135  12.386  1.4732  0.5423  0.8470
18689SOL     OW68045   0.969   7.051   6.617 -0.6999  0.1361 -0.0140
18689SOL    HW168046   1.031   7.031   6.687 -0.2441 -1.9326 -0.9376
18689SOL    HW268047   0.883   7.026   6.653 -0.4059 -1.4452 -0.3212
18690SOL     OW68048   3.979   6.852   9.403 -0.5007  0.2076 -0.5089
18690SOL    HW168049   3.898   6.805   9.382  0.3796 -1.4456 -0.4046
18690SOL    HW268050   4.047   6.785   9.398  0.6214  1.1356  1.3091
18691SOL     OW68051   3.999  13.539   0.191  0.3759 -0.1108 -0.1367
18691SOL    HW168052   3.962  13.486   0.120 -0.6118  0.2239  0.1151
18691SOL    HW268053   3.996  13.629   0.158 -0.5868  0.1118  0.5221
18692SOL     OW68054  11.082   9.338   3.290  0.2792 -0.3662  0.4849
18692SOL    HW168055  11.038   9.417   3.320 -0.3898 -0.4157 -0.3212
18692SOL    HW268056  11.097   9.287   3.369  1.4413  0.9063  1.1257
18693SOL     OW68057   5.576   4.690   9.784 -0.3036  0.6766 -0.5502
18693SOL    HW168058   5.601   4.611   9.832  0.7091  0.5016 -1.3497
18693SOL    HW268059   5.481   4.683   9.774 -0.1093 -0.9435 -1.5031
18694SOL     OW68060   9.523  12.208   6.106 -0.3740  0.2018 -0.3594
18694SOL    HW168061   9.533  12.112   6.108 -0.2163  0.2097 -0.8275
18694SOL    HW268062   9.437  12.222   6.068 -0.4553  0.2436 -0.1598
18695SOL     OW68063   9.547   2.655   6.658 -0.1239  0.0963  0.3421
18695SOL    HW168064   9.468   2.652   6.713  0.6325 -1.1952  1.4270
18695SOL    HW268065   9.612   2.606   6.707  1.1433  0.4704 -0.8991
18696SOL     OW68066   1.468   2.110   5.413 -0.0291  0.2438 -0.1761
18696SOL    HW168067   1.411   2.035   5.429 -0.0970  0.1536 -0.8078
18696SOL    HW268068   1.557   2.074   5.414  0.1669  0.6335  2.3391
18697SOL     OW68069   7.209   1.213  13.283  0.5218  0.6284  0.1914
18697SOL    HW168070   7.193   1.190  13.375  0.2752  0.9929  0.2440
18697SOL    HW268071   7.133   1.178  13.236  1.0090 -0.2245  0.0100
18698SOL     OW68072   2.541   0.108  10.834  0.0599  0.4785 -0.1813
18698SOL    HW168073   2.581   0.134  10.917  0.2136 -1.0041  0.2487
18698SOL    HW268074   2.598   0.145  10.767 -0.5411  2.4297  0.3272
18699SOL     OW68075   1.759   8.976   3.351 -0.3070 -0.1931 -0.0142
18699SOL    HW168076   1.692   9.020   3.299  0.3153  1.7014  0.7196
18699SOL    HW268077   1.734   8.993   3.442 -0.1858 -1.6050  0.3068
18700SOL     OW68078   4.920  11.850   3.212 -0.2470 -0.1887  0.1312
18700SOL    HW168079   4.831  11.816   3.197 -0.4269  0.3259  0.0050
18700SOL    HW268080   4.975  11.772   3.215 -0.7193 -0.5227  0.3167
18701SOL     OW68081   3.543   2.624  10.762  0.3913 -0.3577 -0.8742
18701SOL    HW168082   3.584   2.630  10.676  1.2100  0.4566 -0.4419
18701SOL    HW268083   3.469   2.685  10.758 -0.2881 -1.1919 -1.3715
18702SOL     OW68084   8.929   8.977   0.923  0.0770  0.3992  0.5303
18702SOL    HW168085   8.863   9.004   0.986  0.1090  0.9696  0.3282
18702SOL    HW268086   8.977   8.907   0.967  0.7305  1.4410  1.5347
18703SOL     OW68087   5.804  10.358   1.077 -0.2807 -0.0044  0.0127
18703SOL    HW168088   5.726  10.413   1.075 -0.9977 -0.9737  0.4758
18703SOL    HW268089   5.845  10.372   0.992 -0.5441  1.0907  0.0499
18704SOL     OW68090   3.323   7.265  13.576  0.3158  0.0129  0.3860
18704SOL    HW168091   3.281   7.213  13.507 -1.1376 -0.4216  1.5588
18704SOL    HW268092   3.408   7.223  13.589  0.9832  0.5704 -1.6403
18705SOL     OW68093   4.842   1.522  12.174 -0.0657  0.6067  0.1598
18705SOL    HW168094   4.873   1.446  12.223  0.5977  1.5129  1.1712
18705SOL    HW268095   4.896   1.523  12.095 -0.6403 -0.4247 -0.2779
18706SOL     OW68096   7.974   7.230   6.241  0.3050 -0.0512 -0.1170
18706SOL    HW168097   7.970   7.134   6.242  0.5281 -0.0625 -0.2555
18706SOL    HW268098   7.954   7.255   6.331 -1.6009 -0.1401 -0.4833
18707SOL     OW68099  10.231  13.335   9.453  0.1617 -0.9614  0.3047
18707SOL    HW168100  10.278  13.281   9.389  2.4546  0.8434  0.3237
18707SOL    HW268101  10.184  13.399   9.400  1.1561 -0.1670  0.3535
18708SOL     OW68102   0.794  10.424   5.011 -0.2734 -0.3424 -0.2786
18708SOL    HW168103   0.822  10.515   5.002  2.7517 -0.9775  1.2263
18708SOL    HW268104   0.706  10.429   5.047 -0.2046  1.9745 -0.2685
18709SOL     OW68105   4.508   8.678   3.174 -0.2491 -0.1615 -0.3341
18709SOL    HW168106   4.454   8.638   3.106 -0.3651  0.0906 -0.3928
18709SOL    HW268107   4.529   8.765   3.140  0.9192 -0.5646 -0.6874
18710SOL     OW68108   0.493   6.052   8.929 -0.3850 -0.3241 -0.2017
18710SOL    HW168109   0.464   6.121   8.869  1.9234  1.9075  1.0707
18710SOL    HW268110   0.584   6.073   8.948  0.0377 -3.0288  1.3110
18711SOL     OW68111   5.773  10.422   0.104  0.0675 -0.4111  0.0650
18711SOL    HW168112   5.726  10.500   0.134 -0.2344 -1.0631  1.3524
18711SOL    HW268113   5.799  10.443   0.015 -1.9091  0.3110 -0.3865
18712SOL     OW68114   9.592  12.069   3.376 -0.0097 -0.1739 -0.4112
18712SOL    HW168115   9.637  12.151   3.361 -0.7020  0.5570  1.2527
18712SOL    HW268116   9.599  12.054   3.470 -1.1339 -1.2819 -0.4699
18713SOL     OW68117   3.442  10.514   2.603 -0.4217  0.3697  0.1007
18713SOL    HW168118   3.505  10.582   2.625  1.1903 -1.4437  1.4329
18713SOL    HW268119   3.485  10.461   2.535 -1.1669 -0.0149 -0.0938
18714SOL     OW68120   7.031   9.831   8.035 -0.8427  0.4791  0.6090
18714SOL    HW168121   7.082   9.854   8.113  0.1611  4.2440 -0.8960
18714SOL    HW268122   7.094   9.837   7.963 -2.1550 -0.9087 -0.7155
18715SOL     OW68123   1.897   1.394   4.530  0.1606  0.2875  0.3272
18715SOL    HW168124   1.843   1.320   4.502 -0.2833  1.1533 -1.2578
18715SOL    HW268125   1.973   1.355   4.571 -0.2681 -1.0378 -0.0993
18716SOL     OW68126   1.429  10.166   3.833 -0.1318  0.4439  0.6421
18716SOL    HW168127   1.492  10.160   3.762  0.2193  2.7209  0.6881
18716SOL    HW268128   1.344  10.167   3.790  0.1163  3.1884  0.0465
18717SOL     OW68129   3.065  12.797   5.079 -0.5530  0.1598 -0.3582
18717SOL    HW168130   3.042  12.729   5.017 -0.6806  0.5004 -0.6851
18717SOL    HW268131   3.160  12.805   5.073 -0.4804 -0.3393  0.0494
18718SOL     OW68132   7.065  11.135   2.000 -0.1302 -0.0291  0.5457
18718SOL    HW168133   7.075  11.119   2.094  0.2198  0.1530  0.5413
18718SOL    HW268134   6.998  11.203   1.994 -0.2052 -0.0920  0.6561
18719SOL     OW68135  11.170  10.381   8.164  0.2221  0.8431 -0.6262
18719SOL    HW168136  11.108  10.336   8.222  0.2415  1.1830 -0.3412
18719SOL    HW268137  11.205  10.312   8.108 -0.5453  0.6684 -0.9096
18720SOL     OW68138   7.804   9.441   6.866  0.5030  0.2344  0.5609
18720SOL    HW168139   7.816   9.350   6.839 -0.1778  0.4055 -0.3516
18720SOL    HW268140   7.787   9.488   6.785  0.5734  1.1297  1.0592
18721SOL     OW68141   2.753   4.727  11.363 -0.1625  0.6625  0.3955
18721SOL    HW168142   2.660   4.706  11.370 -0.2181  1.3431  2.2866
18721SOL    HW268143   2.755   4.815  11.327 -0.3489  1.2785  1.8276
18722SOL     OW68144   0.522  10.802   4.298 -0.0564  0.2436 -0.1709
18722SOL    HW168145   0.498  10.864   4.229  0.1993 -1.9487 -2.3497
18722SOL    HW268146   0.463  10.728   4.286 -0.1763 -0.1183  2.1777
18723SOL     OW68147   9.482   9.796  13.945 -0.5121 -0.4960  0.4202
18723SOL    HW168148   9.566   9.751  13.939 -0.0541  0.2759  0.8632
18723SOL    HW268149   9.417   9.727  13.934  0.1722 -1.2875  1.2064
18724SOL     OW68150   6.532   2.180   0.247  1.2606  0.1901  0.0893
18724SOL    HW168151   6.578   2.248   0.296  1.8072  0.7411 -1.1413
18724SOL    HW268152   6.519   2.219   0.160 -1.3416 -0.0170  0.3123
18725SOL     OW68153   1.910  10.034   7.358  0.4075  0.3677  0.0287
18725SOL    HW168154   1.907  10.128   7.341  0.5010  0.3407 -0.1400
18725SOL    HW268155   2.004  10.012   7.356  0.4189  0.3511  0.5151
18726SOL     OW68156  11.641   8.573   7.027 -0.1244 -0.1347 -0.6018
18726SOL    HW168157  11.564   8.630   7.030  0.0311  0.1042 -1.0469
18726SOL    HW268158  11.694   8.600   7.102 -2.0481 -2.6042  1.8621
18727SOL     OW68159  13.000  11.215  12.516  0.4889 -0.2189 -0.1398
18727SOL    HW168160  13.065  11.266  12.564  0.5363 -0.6972  0.3198
18727SOL    HW268161  13.009  11.126  12.551 -0.2135 -0.3510 -0.2717
18728SOL     OW68162  10.755   0.691  11.357  0.2500  0.0324  0.1721
18728SOL    HW168163  10.728   0.599  11.360 -1.4108  0.4786 -0.3527
18728SOL    HW268164  10.807   0.698  11.277 -0.6748 -0.2044 -0.4707
18729SOL     OW68165   0.159   8.739   0.174  0.2374  0.2690  0.2858
18729SOL    HW168166   0.241   8.759   0.128 -0.5107  0.3418 -1.0643
18729SOL    HW268167   0.170   8.649   0.204  0.5653  0.0494 -0.4633
18730SOL     OW68168   0.139   7.300   5.074 -0.3464 -0.1096  0.1527
18730SOL    HW168169   0.080   7.357   5.025  0.1464 -0.4428 -0.8551
18730SOL    HW268170   0.181   7.358   5.139  1.1707  1.0248 -1.7376
18731SOL     OW68171  12.385   0.173   8.978 -0.3199  0.1942 -0.0041
18731SOL    HW168172  12.386   0.138   8.888  0.2179  1.5082 -0.5389
18731SOL    HW268173  12.333   0.110   9.028 -2.7330  0.6606 -1.7572
18732SOL     OW68174   6.419   8.734  12.144  0.3425 -0.6211 -0.0044
18732SOL    HW168175   6.486   8.703  12.083 -1.3620 -1.3659 -1.5717
18732SOL    HW268176   6.364   8.658  12.160  0.5159 -0.3496  2.2394
18733SOL     OW68177   7.839  10.659  13.629  0.5264  0.4489 -0.3374
18733SOL    HW168178   7.816  10.722  13.697  0.3908  0.6336 -0.5537
18733SOL    HW268179   7.755  10.632  13.591  0.4553 -1.0597  0.8095
18734SOL     OW68180   6.542   1.670   8.376 -0.2144 -0.2489  0.4531
18734SOL    HW168181   6.555   1.672   8.281  1.7995  0.1010  0.6839
18734SOL    HW268182   6.500   1.586   8.393  0.0397 -0.6294 -0.6992
18735SOL     OW68183   2.448   7.349   7.451 -0.3014 -0.1117 -0.7577
18735SOL    HW168184   2.372   7.376   7.400 -0.1037  1.4053 -0.2937
18735SOL    HW268185   2.466   7.423   7.509  0.0610 -1.3978  0.8592
18736SOL     OW68186  13.517  11.105   0.866 -0.4063 -0.8213  0.2499
18736SOL    HW168187  13.499  11.051   0.943 -0.2416 -0.7384  0.3462
18736SOL    HW268188  13.586  11.057   0.819 -0.0499 -0.5403  0.4903
18737SOL     OW68189   2.998  12.587   4.319  0.2446 -0.0633  0.4673
18737SOL    HW168190   2.920  12.537   4.343  0.0388  0.0978  0.1479
18737SOL    HW268191   3.016  12.641   4.396  0.4362 -0.5844  0.7933
18738SOL     OW68192   8.763   4.613   6.466  0.5401  0.0868 -0.6480
18738SOL    HW168193   8.840   4.668   6.456  1.5161 -1.3133 -1.1590
18738SOL    HW268194   8.729   4.602   6.377  0.8480 -0.7710 -0.6763
18739SOL     OW68195   9.771   2.726  10.599 -0.6904 -0.0364  0.7130
18739SOL    HW168196   9.733   2.696  10.517  0.1610 -0.7702  0.5743
18739SOL    HW268197   9.708   2.789  10.633 -0.2367  1.6987 -1.4070
18740SOL     OW68198  11.255   4.190   1.986 -0.4604 -0.0728 -0.7700
18740SOL    HW168199  11.254   4.113   2.043  0.4574  0.0046 -0.6272
18740SOL    HW268200  11.169   4.230   1.999 -0.4306 -0.2928  0.2513
18741SOL     OW68201   2.717   4.594   1.631 -0.4834 -0.2822 -0.2059
18741SOL    HW168202   2.761   4.595   1.716 -0.4143 -2.2041 -0.1675
18741SOL    HW268203   2.788   4.593   1.567 -0.4707  3.8805 -0.5158
18742SOL     OW68204   3.294   4.746  12.590 -0.1444 -0.1132 -0.3404
18742SOL    HW168205   3.334   4.813  12.646 -0.8977 -0.4386  0.6141
18742SOL    HW268206   3.204   4.739  12.623 -0.7001 -0.0943 -1.8036
18743SOL     OW68207   1.619   8.348   1.195 -0.0769 -0.1821 -0.1356
18743SOL    HW168208   1.661   8.349   1.109  0.0700 -0.1413 -0.0647
18743SOL    HW268209   1.688   8.376   1.255 -0.7893  2.0653 -0.2803
18744SOL     OW68210   9.790   1.059  13.272  0.6067  0.2382 -0.3857
18744SOL    HW168211   9.716   1.009  13.237  0.5739 -0.0707  0.1094
18744SOL    HW268212   9.824   1.108  13.197 -0.3382  0.6836 -0.5336
18745SOL     OW68213  11.032  11.399   3.618  0.3282  0.0191 -0.0438
18745SOL    HW168214  11.113  11.434   3.656  1.2673 -2.2375  0.1745
18745SOL    HW268215  10.966  11.410   3.686  0.4702  1.6353 -0.1216
18746SOL     OW68216   6.058   2.101   4.753  0.5398  0.7251 -0.5593
18746SOL    HW168217   6.129   2.139   4.804 -1.0352  2.3476  0.5603
18746SOL    HW268218   6.010   2.177   4.719 -0.6313 -0.3116 -1.3092
18747SOL     OW68219   4.790   1.493   5.860 -0.0140 -0.2832 -0.6865
18747SOL    HW168220   4.884   1.508   5.852 -0.2698  0.8956 -1.9009
18747SOL    HW268221   4.766   1.535   5.942  0.6028 -1.0909 -0.0832
18748SOL     OW68222   0.294   2.202  13.498  0.0627 -0.1481 -0.1354
18748SOL    HW168223   0.329   2.267  13.559 -0.5738  0.3293 -0.2650
18748SOL    HW268224   0.334   2.119  13.525  0.4321  0.1997  0.3999
18749SOL     OW68225   8.179   5.887   7.971  0.1411  0.3829 -0.9613
18749SOL    HW168226   8.177   5.933   8.056 -0.2782  2.0107 -1.8008
18749SOL    HW268227   8.113   5.819   7.979  0.0098  0.6078 -0.0186
18750SOL     OW68228   4.280  11.305  13.422  0.1989 -0.0608  0.1565
18750SOL    HW168229   4.243  11.229  13.377  0.8639  0.4167 -1.2496
18750SOL    HW268230   4.366  11.276  13.453 -0.1987 -0.3443  1.0184
18751SOL     OW68231   9.977   9.928   8.247 -0.2816  0.1376 -0.3171
18751SOL    HW168232  10.021   9.990   8.306  3.5440 -1.8248 -0.7740
18751SOL    HW268233   9.941   9.861   8.306 -3.0219  1.7743  0.0632
18752SOL     OW68234   8.643   3.954   4.348 -0.3367 -0.0973  0.0703
18752SOL    HW168235   8.557   3.918   4.327 -0.6527  0.7286 -0.0777
18752SOL    HW268236   8.627   4.047   4.363  0.3089 -0.1740  1.3891
18753SOL     OW68237   3.376   7.304   3.273  0.1189  0.1766 -0.0454
18753SOL    HW168238   3.398   7.228   3.219  0.6188  0.0178  0.3722
18753SOL    HW268239   3.281   7.311   3.267 -0.2786 -2.0602  1.9461
18754SOL     OW68240   0.629   0.824  11.331 -0.4374  0.3456  0.0870
18754SOL    HW168241   0.609   0.766  11.257 -0.4381  0.1471  0.2397
18754SOL    HW268242   0.711   0.867  11.307  1.3607 -2.1328  1.3414
18755SOL     OW68243   3.520  11.448   5.923  0.4013 -0.4066 -0.0546
18755SOL    HW168244   3.518  11.384   5.995  0.9375 -0.0180  0.3191
18755SOL    HW268245   3.495  11.398   5.846 -1.2532 -0.5890  0.5711
18756SOL     OW68246   5.053  10.972  12.557  0.1280 -0.3090  0.4404
18756SOL    HW168247   5.083  11.054  12.598  1.4359 -0.1834 -0.6864
18756SOL    HW268248   5.060  10.989  12.463  1.1103 -1.9471  0.1842
18757SOL     OW68249   0.238   1.979  10.891  0.4075  0.2475  0.3153
18757SOL    HW168250   0.208   2.031  10.817 -0.3436 -0.5899  0.0251
18757SOL    HW268251   0.215   2.031  10.968 -1.5560 -0.2361  0.0916
18758SOL     OW68252  11.993   1.958   0.531  0.3525 -0.2777  0.0881
18758SOL    HW168253  11.979   1.922   0.443 -2.3990  2.2254 -0.6769
18758SOL    HW268254  11.991   2.053   0.518  0.6638  0.1629  2.7886
18759SOL     OW68255   5.009  10.085   3.917  0.1849 -0.5925 -0.7527
18759SOL    HW168256   4.932  10.142   3.924  1.1101  0.7585 -1.1229
18759SOL    HW268257   4.992  10.015   3.979 -1.0803 -0.0052 -0.3920
18760SOL     OW68258   8.868  12.681  11.911  0.4350 -0.0279  0.4671
18760SOL    HW168259   8.920  12.644  11.839  1.0414  0.1479  0.8014
18760SOL    HW268260   8.900  12.771  11.920 -0.7619  0.4637 -0.0840
18761SOL     OW68261   2.193   6.781   8.555  0.0306 -0.0488 -0.4063
18761SOL    HW168262   2.204   6.686   8.546  1.2831  0.1367 -1.0945
18761SOL    HW268263   2.262   6.807   8.617 -1.4169  0.2017  1.1691
18762SOL     OW68264   7.926   2.736   2.966  0.0954  0.0611 -0.0922
18762SOL    HW168265   7.899   2.827   2.955  1.8914  0.4592 -1.8236
18762SOL    HW268266   8.020   2.737   2.949 -0.0363 -2.2907 -1.3756
18763SOL     OW68267   3.575   1.567  12.719  0.2076 -0.9098 -0.1071
18763SOL    HW168268   3.480   1.565  12.727 -0.1790  0.7168 -2.8078
18763SOL    HW268269   3.606   1.607  12.800 -1.3955 -1.4904  0.8199
18764SOL     OW68270   4.136   0.400   9.319  0.3735  0.0987 -0.0793
18764SOL    HW168271   4.042   0.397   9.339  0.0647  1.5449 -1.1407
18764SOL    HW268272   4.152   0.320   9.269 -0.2470 -0.2378  0.2413
18765SOL     OW68273  10.363  13.609  11.512  0.7726 -0.4260 -0.2397
18765SOL    HW168274  10.358  13.525  11.558  0.6196  1.0065  2.5015
18765SOL    HW268275  10.272  13.638  11.506  0.9579  0.2988  0.3302
18766SOL     OW68276  10.322  13.022   2.180 -0.3593  0.0617  0.1885
18766SOL    HW168277  10.336  13.043   2.273 -0.0787 -0.9931  0.3989
18766SOL    HW268278  10.390  12.958   2.160  0.5484  1.3926 -1.1813
18767SOL     OW68279  11.788   8.739   3.729 -0.5129 -0.2110 -0.1063
18767SOL    HW168280  11.727   8.788   3.784 -1.2473  0.0079 -1.0829
18767SOL    HW268281  11.780   8.649   3.759 -0.6808 -0.0475  0.3466
18768SOL     OW68282   8.765  11.269  12.045 -0.7274 -0.0225  0.1077
18768SOL    HW168283   8.730  11.260  12.133  0.1273 -0.6494  0.4058
18768SOL    HW268284   8.857  11.293  12.058 -1.1062  2.0856 -0.6456
18769SOL     OW68285  10.700   1.497  13.889 -0.1286  0.2618  0.1038
18769SOL    HW168286  10.616   1.524  13.927 -0.3703 -0.0051 -0.2416
18769SOL    HW268287  10.723   1.568  13.829 -0.1992  0.2443  0.0555
18770SOL     OW68288   3.986   5.230   6.003  0.3085 -0.6373  0.1343
18770SOL    HW168289   3.908   5.186   6.037 -0.5687  0.6508 -0.1297
18770SOL    HW268290   4.014   5.177   5.928 -2.2106  0.4997 -1.7637
18771SOL     OW68291   9.219   2.123  11.170  0.2432  0.0353 -0.1319
18771SOL    HW168292   9.301   2.074  11.161 -0.5180 -0.9343 -2.7589
18771SOL    HW268293   9.245   2.215  11.162  1.4542  0.0803  2.9639
18772SOL     OW68294   3.032   6.978   3.707  0.0998  0.9196 -0.1677
18772SOL    HW168295   3.097   6.975   3.637 -2.0226 -0.1515 -2.2318
18772SOL    HW268296   3.063   6.915   3.771 -0.5674 -2.4380 -2.8415
18773SOL     OW68297   4.308   9.564  14.033  0.2362  0.3185 -0.4468
18773SOL    HW168298   4.400   9.589  14.029  0.8366 -1.8139 -1.0465
18773SOL    HW268299   4.296   9.529  14.121 -0.4544  2.0875  0.1985
18774SOL     OW68300   6.017   7.723   6.170  0.5651 -0.3590  0.0772
18774SOL    HW168301   5.979   7.640   6.141  0.5066 -0.2506 -0.1583
18774SOL    HW268302   5.953   7.789   6.146  1.5625  0.0031 -1.7741
18775SOL     OW68303   9.084   2.345   6.061 -0.3046 -0.5946 -0.3446
18775SOL    HW168304   9.042   2.364   6.145 -2.6957 -2.3824 -1.0030
18775SOL    HW268305   9.174   2.375   6.071 -1.4915  2.8456  1.4473
18776SOL     OW68306   6.147   3.175   8.155 -0.0392  0.0026  0.2731
18776SOL    HW168307   6.058   3.208   8.145  0.3523  1.4210  1.1616
18776SOL    HW268308   6.161   3.119   8.078 -1.0059  1.3792 -0.9636
18777SOL     OW68309   5.304   2.819   7.917  0.5065  0.5121 -0.1879
18777SOL    HW168310   5.281   2.807   7.825  0.4057  2.1620 -0.3963
18777SOL    HW268311   5.238   2.879   7.951 -1.0560 -2.0424  1.6927
18778SOL     OW68312   5.905  13.359   3.406 -0.4260 -0.2481 -0.1132
18778SOL    HW168313   5.878  13.303   3.480  1.0484 -0.3716  0.3650
18778SOL    HW268314   5.952  13.300   3.348 -0.8013  0.0490 -0.7273
18779SOL     OW68315   3.611   7.211   2.193 -0.2316 -0.6165  0.3939
18779SOL    HW168316   3.557   7.205   2.114  0.5972  3.8001 -0.7474
18779SOL    HW268317   3.667   7.133   2.190 -0.1483 -0.5858 -3.4559
18780SOL     OW68318   8.911  11.492   4.135 -0.1824  0.9880 -0.0210
18780SOL    HW168319   8.918  11.402   4.103 -0.8792  1.2303 -0.8803
18780SOL    HW268320   8.971  11.495   4.210  0.5747  0.0805 -0.5667
18781SOL     OW68321   6.521   9.715   6.300  0.1341 -0.5420 -0.0760
18781SOL    HW168322   6.592   9.654   6.280  0.5010 -0.8318  1.9313
18781SOL    HW268323   6.453   9.660   6.340 -0.5147  0.0035 -0.4055
18782SOL     OW68324   2.149   9.898   5.199  0.4857 -0.1980 -0.4449
18782SOL    HW168325   2.123   9.823   5.253  1.2848 -2.0048 -2.4450
18782SOL    HW268326   2.110   9.881   5.114  0.2576  1.9768 -0.8325
18783SOL     OW68327  11.808   9.914   4.807 -0.1546 -0.5420  0.1896
18783SOL    HW168328  11.796   9.941   4.716  0.9789  0.4515  0.3161
18783SOL    HW268329  11.828   9.821   4.802 -0.4102 -0.5619 -0.5419
18784SOL     OW68330   1.897   9.795   9.530 -0.2169 -0.1706 -0.1505
18784SOL    HW168331   1.976   9.744   9.514  0.1566  0.2589  0.3118
18784SOL    HW268332   1.881   9.842   9.448  1.5772  1.8825  0.5816
18785SOL     OW68333   1.880   8.141   1.759 -0.6404  0.4312  0.2249
18785SOL    HW168334   1.797   8.095   1.748 -0.3195 -1.1891  3.5005
18785SOL    HW268335   1.944   8.088   1.712 -1.0883  0.5669 -0.5661
18786SOL     OW68336   5.756   4.917   0.558  0.2085 -0.4272 -0.3475
18786SOL    HW168337   5.808   4.949   0.631 -0.7386  1.7217 -0.5415
18786SOL    HW268338   5.784   4.969   0.483 -0.7290 -0.7059 -0.9131
18787SOL     OW68339  12.832   4.131   4.170  0.0675  0.4761 -0.0130
18787SOL    HW168340  12.764   4.154   4.233 -0.5836  0.4759 -0.7028
18787SOL    HW268341  12.852   4.039   4.190  0.7288  0.8146  0.9633
18788SOL     OW68342  10.019  12.421   8.360 -0.5531 -0.5761  0.0949
18788SOL    HW168343   9.932  12.382   8.373 -0.2888 -0.9179  0.9323
18788SOL    HW268344  10.004  12.493   8.299 -1.9941  1.2545  2.3994
18789SOL     OW68345   3.426  11.177   8.849  0.1572 -0.4302 -0.1463
18789SOL    HW168346   3.510  11.160   8.892  0.0418  2.2841  1.3739
18789SOL    HW268347   3.427  11.121   8.771  1.9215 -2.8980  1.5006
18790SOL     OW68348   0.955  13.554   5.695  0.4023 -0.1153 -0.2424
18790SOL    HW168349   0.928  13.626   5.638  0.8653 -0.5928 -1.0863
18790SOL    HW268350   0.973  13.596   5.779  0.2682  0.6948 -0.6034
18791SOL     OW68351   5.084   1.938   5.787 -0.2684 -0.5221  0.2701
18791SOL    HW168352   5.013   1.959   5.727  1.1944  2.0442 -0.7426
18791SOL    HW268353   5.053   1.968   5.872 -0.3873  0.7270 -0.1902
18792SOL     OW68354   2.556   1.271   9.084 -0.5232 -0.5156 -0.2195
18792SOL    HW168355   2.572   1.294   8.993 -3.1064 -2.2790 -1.2493
18792SOL    HW268356   2.467   1.301   9.101 -0.6904 -1.6730  1.1844
18793SOL     OW68357   6.183   3.202   1.652 -0.4503 -0.0887  0.3705
18793SOL    HW168358   6.200   3.292   1.680 -2.5902  0.6797 -0.5551
18793SOL    HW268359   6.131   3.211   1.573  1.0791 -2.1901 -0.9805
18794SOL     OW68360   9.399   4.912   8.069 -0.7056  0.0205 -0.0912
18794SOL    HW168361   9.351   4.905   8.151  2.1186  1.0570  1.7820
18794SOL    HW268362   9.385   4.827   8.026 -2.8547 -0.2750  1.0613
18795SOL     OW68363   7.877   1.440   8.549  0.1077 -0.2911 -0.6793
18795SOL    HW168364   7.917   1.501   8.486 -1.3374  0.6247 -0.7644
18795SOL    HW268365   7.794   1.416   8.508 -1.0395  0.6129  1.0025
18796SOL     OW68366  10.967   3.260   9.722 -0.6607 -0.2795  0.4455
18796SOL    HW168367  10.950   3.187   9.662  0.1439 -0.3110  0.2515
18796SOL    HW268368  10.884   3.273   9.767 -0.5258 -2.0210  1.2519
18797SOL     OW68369   6.762   9.135   1.260  0.2440  0.5752 -0.3463
18797SOL    HW168370   6.745   9.165   1.349 -1.9783 -0.3225 -0.3890
18797SOL    HW268371   6.753   9.213   1.206 -1.7793  0.5921 -0.0768
18798SOL     OW68372  11.218   3.400  12.595  0.0960  0.7441 -0.2181
18798SOL    HW168373  11.130   3.432  12.575 -0.1703  0.6412  0.7320
18798SOL    HW268374  11.210   3.304  12.593 -0.1697  0.7054  1.2160
18799SOL     OW68375   6.789  13.548   8.211  0.4289  0.0481  0.3748
18799SOL    HW168376   6.817  13.598   8.134  0.5322  2.0931  1.6680
18799SOL    HW268377   6.871  13.521   8.253  0.3875  0.2555  0.5882
18800SOL     OW68378   4.514   8.654  12.683 -0.3225 -0.0100 -0.1428
18800SOL    HW168379   4.466   8.639  12.602 -0.8804  0.4091  0.1081
18800SOL    HW268380   4.545   8.567  12.709  0.4708 -0.0616 -1.1687
18801SOL     OW68381  11.958   9.690   1.397 -0.0168 -0.4000  0.3163
18801SOL    HW168382  11.940   9.686   1.304 -0.2586 -0.0851  0.3488
18801SOL    HW268383  11.997   9.776   1.411  0.9541 -0.8278  0.3464
18802SOL     OW68384   0.335   9.822   0.181  0.1199  0.1119  0.1497
18802SOL    HW168385   0.370   9.768   0.110  0.4387  0.9610 -0.3625
18802SOL    HW268386   0.410   9.874   0.210 -0.3503  0.8416  0.0942
18803SOL     OW68387  10.517   7.942   7.656 -0.0669  0.0628  0.1211
18803SOL    HW168388  10.438   7.891   7.642 -1.0294  1.0524  1.6475
18803SOL    HW268389  10.524   7.999   7.580 -1.5183  0.8042  0.5158
18804SOL     OW68390   4.298   6.316   7.216  0.0068  0.0672 -0.9422
18804SOL    HW168391   4.301   6.255   7.290 -2.1010 -0.1436 -0.9671
18804SOL    HW268392   4.357   6.387   7.241  0.0611 -0.4467  0.5252
18805SOL     OW68393  13.215   3.582   6.638  0.1132  0.4513  0.2391
18805SOL    HW168394  13.204   3.672   6.669 -2.2041  0.1401  0.4722
18805SOL    HW268395  13.241   3.533   6.716 -0.2994  0.6131  0.4792
18806SOL     OW68396   5.644   8.876   9.059 -0.4912 -0.4352 -0.7992
18806SOL    HW168397   5.684   8.888   9.145  1.2334 -2.4657 -1.2342
18806SOL    HW268398   5.570   8.818   9.075 -2.0049  1.5517 -0.3112
18807SOL     OW68399  12.231   6.001   8.380 -0.5185 -0.0720 -0.4236
18807SOL    HW168400  12.298   5.990   8.312 -0.7690 -2.8073 -0.3030
18807SOL    HW268401  12.242   5.926   8.438 -1.4982  1.2452  1.5884
18808SOL     OW68402   5.415   4.234   3.051  0.7749  0.6077 -0.1062
18808SOL    HW168403   5.392   4.318   3.091 -1.7468 -0.2088  0.3646
18808SOL    HW268404   5.489   4.254   2.993  0.4403  3.0717  0.2066
18809SOL     OW68405   9.520   2.960   8.402 -0.1917 -0.0283  0.2282
18809SOL    HW168406   9.561   3.016   8.336 -0.5314 -0.8104 -0.6521
18809SOL    HW268407   9.507   2.876   8.359  0.0077 -0.7055  1.4351
18810SOL     OW68408   6.131   1.875   3.698 -0.0908  0.3205  0.0791
18810SOL    HW168409   6.059   1.830   3.743  1.7201 -2.5552  0.3495
18810SOL    HW268410   6.173   1.807   3.645  2.1371  1.9836 -0.4537
18811SOL     OW68411   1.691   7.955   5.088 -0.1126 -0.2382  0.1393
18811SOL    HW168412   1.664   8.032   5.038 -1.1558 -0.2526  0.6691
18811SOL    HW268413   1.610   7.907   5.104 -0.0965  0.6237  3.3204
18812SOL     OW68414  12.459   3.958  12.599  0.5202 -0.7260 -0.5075
18812SOL    HW168415  12.365   3.949  12.587 -0.1125  3.2480  0.3248
18812SOL    HW268416  12.486   4.022  12.534  1.9928  0.5495  1.2450
18813SOL     OW68417   8.621  13.742   1.356  0.1639  0.2543 -0.0036
18813SOL    HW168418   8.587  13.786   1.278  0.4988  0.8901  0.1995
18813SOL    HW268419   8.550  13.748   1.420 -0.1670 -0.3988 -0.2971
18814SOL     OW68420   0.854   1.989   8.010  0.1236  0.0563  0.1975
18814SOL    HW168421   0.920   2.053   8.038  2.2103 -2.3257  1.1264
18814SOL    HW268422   0.881   1.963   7.922 -0.6297  0.3407 -0.1245
18815SOL     OW68423   3.065  11.133  11.065 -0.7853 -0.4643 -0.1354
18815SOL    HW168424   3.075  11.078  11.143  0.2891 -0.6539 -0.3853
18815SOL    HW268425   3.108  11.083  10.995 -1.0835  0.0396 -0.6910
18816SOL     OW68426   6.731   9.117   3.192  0.4342 -0.0372  0.4447
18816SOL    HW168427   6.694   9.118   3.280  0.3885  0.5383  0.4206
18816SOL    HW268428   6.744   9.024   3.172  0.3972 -0.1700  1.0371
18817SOL     OW68429   8.737   4.846   5.853  0.8805  0.2224 -0.1927
18817SOL    HW168430   8.676   4.857   5.926 -0.2638  1.5478 -1.3054
18817SOL    HW268431   8.685   4.803   5.784  0.6460  2.7770 -1.7306
18818SOL     OW68432   2.698  10.834  12.762  0.3428  0.0530 -0.2083
18818SOL    HW168433   2.684  10.822  12.856  0.0920 -1.7201 -0.4398
18818SOL    HW268434   2.667  10.923  12.744  2.9773  1.5174  1.8505
18819SOL     OW68435   2.066  13.402  13.432  0.0053 -0.0387 -0.3209
18819SOL    HW168436   2.105  13.330  13.481  0.1641  0.7377  0.7358
18819SOL    HW268437   1.980  13.414  13.471 -0.8549 -0.9681 -1.8534
18820SOL     OW68438  11.823   4.772   2.953 -0.5940  0.1225 -0.4913
18820SOL    HW168439  11.887   4.705   2.976  0.6236  1.2092 -0.5664
18820SOL    HW268440  11.818   4.768   2.858 -2.3028 -1.4137 -0.3677
18821SOL     OW68441   5.022   4.554   4.501  0.1607  0.3135  0.1422
18821SOL    HW168442   4.946   4.505   4.534 -0.3212 -0.6652 -2.2150
18821SOL    HW268443   4.992   4.644   4.495 -1.1613 -0.1758 -1.4904
18822SOL     OW68444   0.882   3.732   5.530 -0.5415 -0.3976  0.6816
18822SOL    HW168445   0.942   3.755   5.601 -1.0355 -2.0015  1.6640
18822SOL    HW268446   0.930   3.667   5.479 -0.6345 -0.1017  0.2136
18823SOL     OW68447   1.525   7.837  11.733 -0.4673 -0.1830 -0.2862
18823SOL    HW168448   1.554   7.774  11.800  0.3957 -0.4845 -0.9220
18823SOL    HW268449   1.430   7.839  11.742 -0.3169  0.6570  1.7172
18824SOL     OW68450   2.938   1.143   5.465  0.0426  0.2979  0.7618
18824SOL    HW168451   2.866   1.085   5.489  0.7396 -1.3598 -0.8822
18824SOL    HW268452   2.899   1.204   5.402 -0.4306  0.9553  1.6575
18825SOL     OW68453   8.300   5.886  11.713  0.2075  0.9351  0.2992
18825SOL    HW168454   8.282   5.812  11.771 -0.4784  1.4842  0.8070
18825SOL    HW268455   8.376   5.930  11.752  0.9820  0.1846 -0.3236
18826SOL     OW68456   0.613   5.862   8.403  0.2782  0.4604 -0.0568
18826SOL    HW168457   0.663   5.860   8.321  1.4326  0.1570  0.6273
18826SOL    HW268458   0.565   5.944   8.400 -0.0274  0.2620 -1.2236
18827SOL     OW68459  12.539   0.265   9.201  0.2026 -0.0085 -0.4467
18827SOL    HW168460  12.492   0.241   9.121  0.4770  1.3196 -1.0265
18827SOL    HW268461  12.473   0.304   9.257 -0.2780 -2.1553  0.5636
18828SOL     OW68462   3.828   5.865   2.829  0.0328 -0.4325 -0.1424
18828SOL    HW168463   3.797   5.835   2.915  0.1098 -0.9858 -0.3023
18828SOL    HW268464   3.859   5.785   2.786  0.5061 -0.0761 -0.4718
18829SOL     OW68465   0.769   9.829   1.017  0.3398 -0.2593  0.4829
18829SOL    HW168466   0.807   9.806   0.933 -1.8057 -0.7309 -0.4178
18829SOL    HW268467   0.729   9.915   1.003 -1.4547 -1.0418  0.4740
18830SOL     OW68468   7.461  10.219  13.502 -0.4064  0.0965  0.4147
18830SOL    HW168469   7.381  10.169  13.486 -0.7192  0.1636  1.6698
18830SOL    HW268470   7.439  10.277  13.574 -0.0475  2.0914 -1.0119
18831SOL     OW68471   3.506   2.217   9.496 -0.2828 -0.4157  0.4806
18831SOL    HW168472   3.495   2.127   9.466 -2.3727  0.4755 -1.7212
18831SOL    HW268473   3.439   2.228   9.564 -0.2913 -0.4139  0.4716
18832SOL     OW68474  12.295   3.896   6.529  0.3891 -0.1361  0.6996
18832SOL    HW168475  12.350   3.938   6.594  2.3547 -1.3901 -0.0573
18832SOL    HW268476  12.341   3.910   6.446 -0.8891 -0.5037 -0.0993
18833SOL     OW68477   8.576   3.828  14.024 -0.0074 -0.1026  0.3288
18833SOL    HW168478   8.531   3.903  14.062 -2.5202 -0.6314 -1.3245
18833SOL    HW268479   8.632   3.865  13.956 -0.5597  0.3655  0.1183
18834SOL     OW68480  12.204   0.929   3.378 -0.6713 -0.5104 -0.2871
18834SOL    HW168481  12.272   0.944   3.443 -0.3250 -0.9593 -0.5419
18834SOL    HW268482  12.126   0.970   3.415 -0.6469 -1.3423  0.7256
18835SOL     OW68483   3.267   0.112   2.181 -0.2928 -0.5058 -0.0226
18835SOL    HW168484   3.189   0.071   2.143 -0.7379  0.1755  0.1232
18835SOL    HW268485   3.262   0.091   2.274 -0.6113  0.0194  0.0788
18836SOL     OW68486   2.994   8.479  11.965  0.5307 -0.0063  0.0222
18836SOL    HW168487   3.022   8.391  11.991 -0.3955 -0.3146 -0.0065
18836SOL    HW268488   3.012   8.483  11.871 -0.2258 -0.4783 -0.1461
18837SOL     OW68489   4.839  13.399  12.440  0.5291 -0.1140  0.2572
18837SOL    HW168490   4.897  13.326  12.420  1.1857 -0.6427  3.4864
18837SOL    HW268491   4.897  13.474  12.449  0.8344 -0.5746  3.1464
18838SOL     OW68492  11.786   5.128   1.962  0.3637 -0.1204 -0.0075
18838SOL    HW168493  11.702   5.085   1.951 -0.4957  1.8108 -1.4988
18838SOL    HW268494  11.851   5.061   1.939 -0.8848 -0.7373 -1.9209
18839SOL     OW68495   1.961   9.144   1.403 -0.0795 -0.5383 -0.4623
18839SOL    HW168496   1.958   9.106   1.491  2.3389 -0.1526 -0.1409
18839SOL    HW268497   1.965   9.068   1.345  1.1570 -0.8182 -0.0404
18840SOL     OW68498   1.430   0.400   6.491 -0.4172 -0.0650 -0.9299
18840SOL    HW168499   1.442   0.343   6.415  0.6233 -1.7222  0.4032
18840SOL    HW268500   1.503   0.462   6.487 -0.4077 -0.1032 -1.3186
18841SOL     OW68501  12.513   4.926   4.909  0.3317 -0.4536 -0.2050
18841SOL    HW168502  12.528   4.920   5.003  1.8220 -0.1455 -0.3984
18841SOL    HW268503  12.519   4.836   4.878 -1.4931 -0.7311  0.1469
18842SOL     OW68504   6.843  11.309   1.992  0.4742 -0.4853  0.1773
18842SOL    HW168505   6.859  11.368   2.065  0.3664 -1.3417  0.8995
18842SOL    HW268506   6.790  11.361   1.931  0.0902  0.0560  0.9552
18843SOL     OW68507   4.180  10.901   6.393 -0.3917 -0.0597  0.2565
18843SOL    HW168508   4.089  10.907   6.422  0.3528  1.1278  2.5807
18843SOL    HW268509   4.220  10.836   6.450  0.5744  0.5772  0.3352
18844SOL     OW68510   0.462   1.994   9.795  0.2866  0.5430 -0.4756
18844SOL    HW168511   0.414   2.040   9.726 -0.8064  1.5022  0.8538
18844SOL    HW268512   0.554   1.997   9.767  0.1190  2.6586 -0.9636
18845SOL     OW68513  10.907   8.490  10.789  0.3961  0.3628  0.3275
18845SOL    HW168514  10.846   8.464  10.858 -1.7011 -0.9626 -1.8944
18845SOL    HW268515  10.984   8.435  10.803  0.0331  0.1319  1.5745
18846SOL     OW68516   3.459  10.572   1.169  0.2623 -0.1097 -0.1007
18846SOL    HW168517   3.453  10.561   1.074  0.8369  0.8562 -0.2569
18846SOL    HW268518   3.369  10.562   1.200  0.0033  0.0042 -0.7932
18847SOL     OW68519   8.114  11.085   5.014  0.4358  0.2831  0.2170
18847SOL    HW168520   8.084  11.077   4.924  0.1469 -0.0574  0.3406
18847SOL    HW268521   8.087  11.003   5.055  2.6606 -0.6068  0.0165
18848SOL     OW68522   1.810   1.160   1.754 -0.0897 -0.0351 -0.4310
18848SOL    HW168523   1.780   1.149   1.664 -0.1343 -0.9465 -0.3121
18848SOL    HW268524   1.864   1.082   1.770 -0.1550  0.0817  0.3571
18849SOL     OW68525   4.608  11.816  13.783  0.1465  0.6308 -0.3256
18849SOL    HW168526   4.681  11.767  13.745 -0.1483 -0.0426 -0.0477
18849SOL    HW268527   4.543  11.822  13.713  0.3128  0.8991 -0.4563
18850SOL     OW68528  13.306   3.736   2.880  0.1362  0.2583 -0.4767
18850SOL    HW168529  13.341   3.672   2.941 -1.5193 -0.8427 -0.6056
18850SOL    HW268530  13.343   3.820   2.908 -0.9417 -0.1287  2.3761
18851SOL     OW68531   6.847   4.941  13.976 -0.5961 -0.1796 -0.1954
18851SOL    HW168532   6.806   4.918  13.892 -0.4345 -1.2630  0.0098
18851SOL    HW268533   6.839   4.861  14.029  1.4440 -0.3168 -0.0167
18852SOL     OW68534   4.722   0.330   1.007 -0.2444  0.0168  0.0614
18852SOL    HW168535   4.802   0.304   1.054  1.0071  0.6580 -1.6084
18852SOL    HW268536   4.727   0.282   0.924  0.1368  2.5289 -1.4566
18853SOL     OW68537   3.829   1.523   3.854 -0.3465 -0.2093  0.1832
18853SOL    HW168538   3.843   1.447   3.911 -0.4617 -0.7644 -0.5170
18853SOL    HW268539   3.823   1.597   3.914  0.8544 -0.5928  0.8171
18854SOL     OW68540  12.744  12.111   1.529  0.2021 -0.2603 -0.7343
18854SOL    HW168541  12.666  12.080   1.576 -1.1255  1.9599 -1.3001
18854SOL    HW268542  12.816  12.101   1.591 -1.1303  0.7051  1.0471
18855SOL     OW68543  13.139   0.998  13.960 -0.6530 -0.7134  0.1616
18855SOL    HW168544  13.207   0.933  13.975  1.9585  1.6676 -0.5219
18855SOL    HW268545  13.134   1.046  14.042 -0.9193 -0.3723 -0.0519
18856SOL     OW68546   8.536   8.107   2.441  0.2530  0.0757 -0.2943
18856SOL    HW168547   8.470   8.081   2.376 -0.0420 -2.3427  0.8422
18856SOL    HW268548   8.616   8.064   2.412  0.5019  0.2898  0.0723
18857SOL     OW68549   0.888  13.573   5.073 -0.0734 -0.5669 -0.0917
18857SOL    HW168550   0.825  13.529   5.129  1.4101 -1.8919  0.5978
18857SOL    HW268551   0.941  13.503   5.035  0.2122  0.4219 -1.6213
18858SOL     OW68552   4.107   5.918   5.610 -0.4456 -0.3150  0.1458
18858SOL    HW168553   4.069   5.985   5.553  0.7310  1.0149  0.8484
18858SOL    HW268554   4.036   5.895   5.670 -1.0226 -0.0907 -0.4367
18859SOL     OW68555   5.202  12.601   1.543 -0.1288 -0.2142 -0.0598
18859SOL    HW168556   5.251  12.553   1.610  1.1476 -1.3174 -1.6967
18859SOL    HW268557   5.138  12.539   1.510 -1.7879  0.7949  1.1002
18860SOL     OW68558  12.591   7.243  11.724 -0.2211 -0.0465 -0.1325
18860SOL    HW168559  12.646   7.251  11.647 -1.1125 -2.5049 -1.1511
18860SOL    HW268560  12.642   7.189  11.785 -0.3043  0.2038  0.1617
18861SOL     OW68561   8.437  11.218   7.952  0.2679  0.3722 -0.1465
18861SOL    HW168562   8.492  11.157   7.903  0.2610 -2.3207  2.9024
18861SOL    HW268563   8.494  11.292   7.972  0.8051  0.6434 -2.3864
18862SOL     OW68564   8.127   4.132   0.822  0.1441  0.2964  0.1538
18862SOL    HW168565   8.099   4.084   0.745 -0.1556 -0.5465  0.7758
18862SOL    HW268566   8.076   4.095   0.894  2.0032 -0.5011  1.1408
18863SOL     OW68567   2.679   5.165   4.719 -1.1462 -0.2942  0.0644
18863SOL    HW168568   2.684   5.253   4.681  2.6306  0.2600  1.3858
18863SOL    HW268569   2.714   5.107   4.651  0.2189 -0.1275  0.5972
18864SOL     OW68570   8.596   0.563   6.331 -0.1979  0.4547  0.3326
18864SOL    HW168571   8.671   0.546   6.274 -1.0430  1.3109 -1.0655
18864SOL    HW268572   8.631   0.619   6.401  0.5600  0.4659 -0.0484
18865SOL     OW68573  11.614   1.652   2.005 -0.1838  0.3333 -0.2197
18865SOL    HW168574  11.706   1.651   2.031 -0.2176 -0.4490 -0.0906
18865SOL    HW268575  11.611   1.595   1.928 -0.6991 -0.3943  0.3174
18866SOL     OW68576   8.852   2.078   9.302 -0.3079 -0.7737 -0.3372
18866SOL    HW168577   8.832   2.120   9.386  0.5581 -1.5855  0.2961
18866SOL    HW268578   8.857   1.984   9.322  0.4573 -0.9319 -1.1752
18867SOL     OW68579   9.435   2.719   3.438  0.4715 -0.4288  0.2568
18867SOL    HW168580   9.445   2.769   3.519  0.0069 -1.6383  1.0949
18867SOL    HW268581   9.433   2.627   3.467  0.6197 -0.8978 -1.1619
18868SOL     OW68582   0.668   2.260   8.609  0.1265 -0.6022  0.2733
18868SOL    HW168583   0.667   2.242   8.515  0.8990 -0.7133  0.2861
18868SOL    HW268584   0.675   2.356   8.615 -0.6795 -0.5326  0.2220
18869SOL     OW68585   9.849  11.635   3.700 -0.9132 -0.0978  0.1468
18869SOL    HW168586   9.902  11.710   3.671 -0.8495  0.0992  0.7610
18869SOL    HW268587   9.761  11.654   3.666 -0.8899  0.2385  0.2737
18870SOL     OW68588  13.149   8.178   6.555 -0.2799  0.1272 -0.2443
18870SOL    HW168589  13.087   8.244   6.525  0.3839  1.7013  1.6334
18870SOL    HW268590  13.233   8.223   6.557  0.8261 -1.7253 -1.9157
18871SOL     OW68591   0.022   6.456   6.964  0.2806  0.2785 -0.6307
18871SOL    HW168592  -0.014   6.377   7.005  0.3615  0.2335 -0.6474
18871SOL    HW268593  -0.015   6.528   7.015  0.1022  0.2343 -0.6978
18872SOL     OW68594   9.949  10.411   5.495  0.1700  0.4563 -0.2215
18872SOL    HW168595   9.931  10.329   5.540  0.9560  1.6034  2.4160
18872SOL    HW268596   9.924  10.396   5.405  3.4711 -3.8351 -0.7266
18873SOL     OW68597  10.452   8.558   7.657 -0.0492  0.6430 -0.5277
18873SOL    HW168598  10.538   8.517   7.653  1.0744  2.8534 -0.3277
18873SOL    HW268599  10.415   8.546   7.570  0.0598 -1.0212 -0.3852
18874SOL     OW68600   6.252  13.549   0.433 -0.0513  0.1897  0.6237
18874SOL    HW168601   6.253  13.569   0.339  0.4125 -0.5262  0.4681
18874SOL    HW268602   6.325  13.598   0.469 -1.6764  2.4447  1.0652
18875SOL     OW68603   4.169  13.760  10.176  0.3883  0.4579  0.2904
18875SOL    HW168604   4.136  13.689  10.231 -0.2231  1.2907  1.0416
18875SOL    HW268605   4.256  13.779  10.211  0.3773  0.3696  0.3660
18876SOL     OW68606   5.384   3.197   7.537  0.2290  0.2668 -0.0874
18876SOL    HW168607   5.304   3.158   7.503  0.5715 -0.3912 -0.1382
18876SOL    HW268608   5.449   3.128   7.532  0.8683  0.8760 -0.2785
18877SOL     OW68609   5.409  12.915   5.231  0.2053  0.0090  0.5803
18877SOL    HW168610   5.412  12.924   5.326 -0.6263  0.7773  0.5462
18877SOL    HW268611   5.405  12.820   5.216  3.6828 -0.3814  1.1559
18878SOL     OW68612  10.338   2.309   1.124 -0.0903  0.0308 -0.1520
18878SOL    HW168613  10.314   2.381   1.184 -0.5353 -0.4517  0.2659
18878SOL    HW268614  10.255   2.285   1.082 -0.5890 -2.2010  1.8989
18879SOL     OW68615  11.336   7.760   5.811  0.1109  0.0021 -0.6145
18879SOL    HW168616  11.279   7.837   5.808  0.5662  0.4244  0.7590
18879SOL    HW268617  11.383   7.762   5.727 -1.3871  0.0114 -1.4863
18880SOL     OW68618  12.243  12.416   8.609  0.1582 -0.1105 -0.3626
18880SOL    HW168619  12.284  12.486   8.557 -0.0667  0.6235  0.4178
18880SOL    HW268620  12.296  12.411   8.688  0.1781 -0.8458 -0.4149
18881SOL     OW68621  13.409   8.382   7.672 -0.3418 -0.7628 -0.1460
18881SOL    HW168622  13.354   8.417   7.742  0.0301 -2.0830  0.8633
18881SOL    HW268623  13.498   8.405   7.699 -0.3438  1.6051 -1.9043
18882SOL     OW68624  12.669  13.447   2.766 -0.9443  0.2322  0.0476
18882SOL    HW168625  12.598  13.501   2.730 -0.1409  0.1954 -1.7169
18882SOL    HW268626  12.709  13.406   2.689  0.8039  0.0102  1.0120
18883SOL     OW68627   1.055   0.313  10.095  0.2442 -0.6566  0.3551
18883SOL    HW168628   1.084   0.393  10.051  0.4053 -0.3241  1.0587
18883SOL    HW268629   0.981   0.342  10.149 -1.2495 -1.4191 -1.1588
18884SOL     OW68630   3.679   0.895  12.636 -0.1019  0.1867 -0.6196
18884SOL    HW168631   3.596   0.848  12.643  0.6828 -1.3710 -1.2985
18884SOL    HW268632   3.661   0.968  12.578 -0.7187 -0.8745 -1.8118
18885SOL     OW68633  12.121   1.566   0.987 -0.2414 -0.2295 -0.3463
18885SOL    HW168634  12.039   1.528   1.016 -0.5044  0.6186  0.0726
18885SOL    HW268635  12.146   1.626   1.058  1.0321 -0.8842 -0.2020
18886SOL     OW68636   8.473   7.427   2.958 -0.0323  0.4348  0.2500
18886SOL    HW168637   8.450   7.411   2.866 -0.5275 -2.6897  0.8116
18886SOL    HW268638   8.432   7.510   2.979 -2.4372 -0.1887 -1.5747
18887SOL     OW68639   5.474  13.143   2.116 -0.3010 -0.5662  0.2418
18887SOL    HW168640   5.521  13.216   2.076  0.1323  0.0271  1.7390
18887SOL    HW268641   5.409  13.118   2.051  0.0459  0.6520 -0.6178
18888SOL     OW68642   8.019   7.620   9.377  0.1194  0.6160  0.0754
18888SOL    HW168643   7.999   7.581   9.462 -0.2342 -0.6155 -0.5540
18888SOL    HW268644   8.062   7.550   9.328 -0.3975  1.0647 -1.0355
18889SOL     OW68645   7.841   5.327   6.412 -0.2470  0.0161  0.0022
18889SOL    HW168646   7.894   5.377   6.351 -1.9581 -0.0386 -1.6187
18889SOL    HW268647   7.787   5.392   6.456 -0.2993 -0.1219  0.1444
18890SOL     OW68648  11.584  10.019   4.233  0.0542  0.2605  0.0261
18890SOL    HW168649  11.548   9.960   4.299  1.2597 -0.6881 -0.1361
18890SOL    HW268650  11.642   9.964   4.180 -0.6089  1.0666 -1.6225
18891SOL     OW68651   8.858  13.327  13.769 -0.1138  0.8380 -0.2655
18891SOL    HW168652   8.881  13.397  13.831 -0.8061  1.1071 -0.2945
18891SOL    HW268653   8.762  13.322  13.775 -0.0047 -0.9401  0.6258
18892SOL     OW68654  12.035   0.179   3.754 -0.7401  0.1100 -0.1148
18892SOL    HW168655  11.952   0.131   3.753  0.3453 -2.2205  3.2304
18892SOL    HW268656  12.095   0.124   3.704 -0.7349  0.8603 -0.9587
18893SOL     OW68657  13.320   1.076   6.067 -0.0213 -0.0396  0.1761
18893SOL    HW168658  13.225   1.064   6.074 -0.1406  0.8902  0.2517
18893SOL    HW268659  13.335   1.093   5.974  0.3391 -2.2422 -0.2152
18894SOL     OW68660   8.460   2.427  11.105  0.6301 -0.3375 -0.3901
18894SOL    HW168661   8.402   2.418  11.180  0.6429  0.0024 -0.3352
18894SOL    HW268662   8.515   2.503  11.126 -1.8759  2.2358 -2.3799
18895SOL     OW68663   1.710   2.614   7.234  0.5985  0.1243 -0.8276
18895SOL    HW168664   1.712   2.536   7.290  0.7360 -0.1634 -1.2247
18895SOL    HW268665   1.723   2.580   7.145  2.1255  0.7289 -0.8704
18896SOL     OW68666   1.687   8.360   9.223  0.0632 -0.1348 -0.2153
18896SOL    HW168667   1.673   8.265   9.220  0.5037 -0.2757  1.3958
18896SOL    HW268668   1.771   8.373   9.179  0.2207 -0.5476 -0.0424
18897SOL     OW68669  10.997   4.348  10.880 -0.3435  0.4018  0.3101
18897SOL    HW168670  11.043   4.294  10.945  0.1525 -1.6116 -1.6155
18897SOL    HW268671  10.913   4.305  10.867 -0.1128  0.2906 -0.9488
18898SOL     OW68672  11.440   4.216   4.434  0.1934  0.0461  0.6127
18898SOL    HW168673  11.506   4.147   4.447  1.3825  1.2021  0.9645
18898SOL    HW268674  11.392   4.219   4.517  1.0551  0.5418  1.1108
18899SOL     OW68675   2.593   1.730   2.333  0.2709 -0.5683 -0.1586
18899SOL    HW168676   2.533   1.800   2.355  0.5235 -0.5179  0.4036
18899SOL    HW268677   2.542   1.669   2.280 -0.0245 -0.0995 -0.4116
18900SOL     OW68678   5.825  10.357   5.388 -0.0266 -0.2127 -0.0685
18900SOL    HW168679   5.904  10.334   5.437  0.8742  1.7932 -0.5050
18900SOL    HW268680   5.856  10.383   5.302 -1.4734 -2.2676 -1.3263
18901SOL     OW68681  11.742   7.558   8.611 -0.0065 -0.4840  0.3257
18901SOL    HW168682  11.752   7.615   8.534  0.3688  0.3062  0.9493
18901SOL    HW268683  11.662   7.589   8.654  0.1121 -0.5297  0.5794
18902SOL     OW68684   0.057  11.183   5.918 -0.0665 -0.5595  0.1681
18902SOL    HW168685   0.135  11.227   5.952 -0.2837 -0.3290  0.3735
18902SOL    HW268686   0.050  11.215   5.828 -0.4015  0.0739  0.4164
18903SOL     OW68687   0.376   9.653  14.001 -0.1935  0.1089 -0.2082
18903SOL    HW168688   0.300   9.599  13.982 -1.8118  1.6949  1.3410
18903SOL    HW268689   0.360   9.735  13.954 -0.7533  1.3835  2.0401
18904SOL     OW68690   8.459   0.365  10.313 -0.1298 -0.1902  0.4049
18904SOL    HW168691   8.511   0.373  10.234  1.7487 -0.1459  1.5797
18904SOL    HW268692   8.375   0.407  10.292  0.3909 -0.0150 -1.4571
18905SOL     OW68693  11.863   4.026   1.532 -0.1022  0.6077  0.6145
18905SOL    HW168694  11.790   4.040   1.593  0.7673 -0.7560  2.0257
18905SOL    HW268695  11.835   4.070   1.452 -1.2809  2.5171  1.9762
18906SOL     OW68696   1.305   5.585  10.892 -0.5143 -0.0609 -0.1750
18906SOL    HW168697   1.274   5.527  10.962  0.8374  0.2486  0.7258
18906SOL    HW268698   1.385   5.544  10.861 -0.7084  0.2017 -1.0396
18907SOL     OW68699   9.616   5.123   5.584  0.3286 -0.0604 -0.3848
18907SOL    HW168700   9.527   5.127   5.617  0.2923  2.6413 -0.5977
18907SOL    HW268701   9.655   5.048   5.629 -2.2655 -1.9000 -1.0117
18908SOL     OW68702   4.670   8.801  10.067  0.1247 -0.3873  0.3406
18908SOL    HW168703   4.665   8.708  10.049 -1.3294 -0.2746  0.0777
18908SOL    HW268704   4.588   8.822  10.110 -1.0209  1.3324 -2.3976
18909SOL     OW68705   4.422   1.722   8.398 -0.0209  0.0739 -0.4048
18909SOL    HW168706   4.481   1.675   8.456  1.8354  1.8811 -0.7426
18909SOL    HW268707   4.376   1.784   8.454 -0.3197 -0.1215 -0.4296
18910SOL     OW68708   1.491   0.511   2.788  0.3203 -0.1132  0.1701
18910SOL    HW168709   1.492   0.489   2.695  0.2006  1.3607 -0.2053
18910SOL    HW268710   1.430   0.584   2.796 -0.8034 -1.1482  1.6549
18911SOL     OW68711   6.119  13.728  12.025 -0.0174  0.1785 -0.5344
18911SOL    HW168712   6.048  13.783  12.056  1.0155  1.3744 -0.1939
18911SOL    HW268713   6.135  13.665  12.095 -1.5274 -0.9121 -1.1267
18912SOL     OW68714   5.064   0.140   0.095 -0.4382 -0.1816 -0.2136
18912SOL    HW168715   5.156   0.161   0.083 -0.7789  0.2392 -2.6504
18912SOL    HW268716   5.020   0.225   0.102 -0.4447 -0.3209  4.1434
18913SOL     OW68717   8.986   6.681   7.229 -0.1063 -0.7233 -0.2640
18913SOL    HW168718   9.065   6.645   7.270 -0.4149 -1.7821 -0.5711
18913SOL    HW268719   8.991   6.653   7.138 -0.3786 -0.0073 -0.5021
18914SOL     OW68720  11.149   3.516   4.198 -0.3019  0.1772 -0.0922
18914SOL    HW168721  11.235   3.481   4.175 -0.2767  0.5548 -0.5833
18914SOL    HW268722  11.160   3.550   4.287 -0.5006 -1.6255  0.6631
18915SOL     OW68723  12.941   7.928   9.447  0.1366  0.0860 -0.2508
18915SOL    HW168724  13.026   7.920   9.403  0.1753  0.5326 -0.2695
18915SOL    HW268725  12.963   7.966   9.533 -0.0215  0.0010 -0.1728
18916SOL     OW68726   0.003   9.966   9.159 -0.0341 -0.2246  0.5642
18916SOL    HW168727  -0.009   9.979   9.253  0.0308 -0.7364  0.6459
18916SOL    HW268728  -0.077   9.923   9.130  0.6158 -1.5982  0.7030
18917SOL     OW68729  13.229  11.488  11.617 -0.3022  0.0478 -0.1698
18917SOL    HW168730  13.261  11.577  11.634 -1.6350  0.4856  0.2410
18917SOL    HW268731  13.299  11.445  11.569  1.0584  0.7988  1.0613
18918SOL     OW68732  11.250  10.883   8.849  0.7685 -0.1884  0.4483
18918SOL    HW168733  11.162  10.912   8.828  0.4140 -0.3395  1.6221
18918SOL    HW268734  11.257  10.893   8.944  0.5674 -3.9372  1.0258
18919SOL     OW68735  13.700   6.136  10.414  0.0465  0.5303 -0.0164
18919SOL    HW168736  13.666   6.052  10.384  0.2538 -0.0841  1.3789
18919SOL    HW268737  13.716   6.123  10.507  1.1185  1.7788  0.0018
18920SOL     OW68738  10.914   0.591   2.948  0.2496  0.3950  0.4619
18920SOL    HW168739  10.940   0.536   2.874 -0.5889 -1.9672  1.8236
18920SOL    HW268740  10.982   0.658   2.953  0.2985  0.6896 -2.4310
18921SOL     OW68741   0.918   8.648   7.331 -0.3036 -0.1748 -0.2983
18921SOL    HW168742   0.926   8.670   7.238 -3.1016  0.8482 -0.3964
18921SOL    HW268743   0.981   8.705   7.375  0.4495 -0.0631 -1.4822
18922SOL     OW68744   9.946   1.410   7.900 -0.2558 -0.3338 -0.8277
18922SOL    HW168745   9.929   1.409   7.994  1.5511 -0.7752 -0.4572
18922SOL    HW268746   9.877   1.464   7.863 -1.1392 -0.3468  0.7265
18923SOL     OW68747  10.151   2.463   7.011  0.0890 -0.3090  0.4859
18923SOL    HW168748  10.090   2.391   6.993  1.2691 -0.8239 -1.7644
18923SOL    HW268749  10.201   2.434   7.087 -1.8701 -0.2243  1.8759
18924SOL     OW68750   8.924   7.029   0.838 -0.0366  0.2738 -0.2104
18924SOL    HW168751   8.966   6.948   0.808  1.0598  0.9889 -0.6373
18924SOL    HW268752   8.861   7.049   0.769  2.1641  1.6617 -1.9555
18925SOL     OW68753   1.643   1.454  13.567 -0.0500  0.7039  0.3841
18925SOL    HW168754   1.627   1.399  13.644 -0.3430 -1.0004 -0.8175
18925SOL    HW268755   1.729   1.492  13.582 -0.4489  1.0582  1.9062
18926SOL     OW68756  12.935  11.572   8.523  0.1949 -0.4396 -0.1677
18926SOL    HW168757  12.843  11.549   8.534  0.4950 -1.9737 -0.6844
18926SOL    HW268758  12.954  11.628   8.598 -0.8646 -1.0476  0.5848
18927SOL     OW68759  11.299  11.287   7.141  0.3443 -0.4364  0.1884
18927SOL    HW168760  11.228  11.249   7.090 -0.0024  1.0857 -0.5222
18927SOL    HW268761  11.361  11.319   7.076  0.6541  0.1344  0.7478
18928SOL     OW68762   9.449   0.721   3.761 -0.3259  0.8258  0.0087
18928SOL    HW168763   9.511   0.752   3.827  0.0287  2.6199 -1.0964
18928SOL    HW268764   9.382   0.675   3.811  2.3406 -2.1016  1.1409
18929SOL     OW68765   2.096   5.600   4.419 -0.6837 -0.3439 -0.1353
18929SOL    HW168766   2.052   5.672   4.373 -1.9941  0.9753  2.9126
18929SOL    HW268767   2.188   5.625   4.419 -1.2268  1.9276  1.6767
18930SOL     OW68768   3.389   2.967  12.501 -0.3061 -0.0636  0.1178
18930SOL    HW168769   3.359   2.966  12.592 -0.5684 -3.1018  0.1282
18930SOL    HW268770   3.474   2.922  12.504 -0.0144  0.3827 -1.0523
18931SOL     OW68771   1.746  12.866   9.491 -0.2904  0.1707 -0.4997
18931SOL    HW168772   1.725  12.842   9.401  0.8024 -0.9185 -0.4903
18931SOL    HW268773   1.740  12.784   9.540 -1.3270  0.8297  0.5301
18932SOL     OW68774   0.456   2.882  13.157 -0.0337  0.0036 -0.4930
18932SOL    HW168775   0.515   2.957  13.148  0.5489 -0.1963  1.4303
18932SOL    HW268776   0.488   2.834  13.232 -1.5342 -1.1683 -0.5503
18933SOL     OW68777   9.072  10.619  11.046 -0.0975 -0.1748  0.3513
18933SOL    HW168778   9.018  10.697  11.034  0.3312  0.3986  1.9700
18933SOL    HW268779   9.084  10.584  10.957 -1.1486  1.0089 -0.2774
18934SOL     OW68780   7.359   5.588   8.348  0.1101  0.3641  0.2176
18934SOL    HW168781   7.391   5.516   8.293  0.2032 -0.2621  1.0695
18934SOL    HW268782   7.418   5.587   8.424  0.1083  1.3408  0.2331
18935SOL     OW68783   6.134   3.472  10.249  0.5164 -0.5517  0.2063
18935SOL    HW168784   6.040   3.488  10.248  0.9026  2.2883 -2.0673
18935SOL    HW268785   6.143   3.378  10.237 -2.0088 -0.8799  0.4435
18936SOL     OW68786  10.447   2.869   3.307  0.0943 -0.1907  0.5937
18936SOL    HW168787  10.428   2.935   3.373 -1.1439 -0.7208  0.7910
18936SOL    HW268788  10.379   2.803   3.318  1.5701 -1.7618  0.7264
18937SOL     OW68789   8.898   4.749   7.472 -1.0580 -0.4073  0.1867
18937SOL    HW168790   8.987   4.737   7.504 -1.0513 -0.2390  0.2352
18937SOL    HW268791   8.890   4.689   7.397 -0.8155 -0.2291  0.0166
18938SOL     OW68792   3.730  10.788   4.095 -0.0627 -0.1509 -0.1768
18938SOL    HW168793   3.718  10.747   4.180  0.5157 -1.2185 -0.5896
18938SOL    HW268794   3.805  10.742   4.057 -1.0889 -0.5600 -1.7767
18939SOL     OW68795   5.300   5.302   2.483 -0.5012  0.2202  0.1124
18939SOL    HW168796   5.356   5.237   2.440 -1.0035  1.0184 -1.8650
18939SOL    HW268797   5.331   5.303   2.574  2.5436  0.4431 -0.7963
18940SOL     OW68798  11.746   1.645  13.958 -0.0407 -0.4471 -0.2201
18940SOL    HW168799  11.654   1.622  13.945  0.3162 -1.3827 -1.2830
18940SOL    HW268800  11.785   1.567  13.997  0.0183  0.4804  1.6711
18941SOL     OW68801   2.122   1.379  10.595 -0.3544 -0.2700  0.7008
18941SOL    HW168802   2.097   1.295  10.556 -0.5687  0.6312 -1.2115
18941SOL    HW268803   2.047   1.437  10.578  0.5110  0.7893  0.3333
18942SOL     OW68804   8.840  13.900  13.742  0.0223  0.4056  0.1085
18942SOL    HW168805   8.775  13.831  13.752  1.3281 -0.6998  1.4498
18942SOL    HW268806   8.857  13.931  13.831 -0.5056  2.4643 -0.4653
18943SOL     OW68807   9.968   6.104   0.563  0.3428  0.2604  0.2191
18943SOL    HW168808   9.894   6.125   0.505  1.0450 -0.7176 -1.0834
18943SOL    HW268809   9.980   6.010   0.552  1.8642  0.4289  0.3143
18944SOL     OW68810   4.054   1.356  11.236 -0.0091  0.2641 -0.4210
18944SOL    HW168811   4.091   1.331  11.151 -0.3749  0.8924 -0.7758
18944SOL    HW268812   4.049   1.451  11.232 -0.1298  0.2886  0.2675
18945SOL     OW68813   7.382   1.464   4.777 -0.6004  0.2455 -0.0242
18945SOL    HW168814   7.438   1.449   4.700 -0.7716  0.1405 -0.1289
18945SOL    HW268815   7.358   1.557   4.771  0.5218  0.5973  0.6651
18946SOL     OW68816   6.068   3.779   4.351  0.8059  0.1814 -0.5276
18946SOL    HW168817   6.127   3.850   4.325  0.4352  0.2258 -1.2631
18946SOL    HW268818   5.986   3.798   4.306  1.1970 -1.6136 -2.1202
18947SOL     OW68819  11.333  13.426   4.490  0.2477 -0.2384  0.3151
18947SOL    HW168820  11.344  13.338   4.454 -0.3925  0.3246 -1.3408
18947SOL    HW268821  11.285  13.412   4.572 -1.3842 -1.3420 -0.7579
18948SOL     OW68822  13.268   4.161   4.046 -0.0080 -0.4747 -0.3796
18948SOL    HW168823  13.194   4.200   4.092  1.7798  1.0589  1.3231
18948SOL    HW268824  13.316   4.112   4.113  1.4694  0.0150 -1.0378
18949SOL     OW68825   6.427   7.448   2.469 -0.3353  0.3539 -0.2428
18949SOL    HW168826   6.370   7.424   2.542 -1.4240  0.7521 -0.9340
18949SOL    HW268827   6.419   7.374   2.408 -1.0072  0.9131 -0.8439
18950SOL     OW68828   5.794   2.735   6.055  0.0924 -0.0805  0.2997
18950SOL    HW168829   5.785   2.643   6.031  0.3134 -0.5634  1.9373
18950SOL    HW268830   5.708   2.761   6.086  0.0943  0.2108  0.0754
18951SOL     OW68831  11.594   1.564   0.275  0.1438 -0.1505  0.1691
18951SOL    HW168832  11.640   1.481   0.276 -0.9789 -0.8005  1.3382
18951SOL    HW268833  11.503   1.541   0.294 -0.2505  1.3080  0.1841
18952SOL     OW68834   3.237   0.216  12.228  0.0192 -0.4569  0.0866
18952SOL    HW168835   3.169   0.192  12.292 -0.1263 -0.3697 -0.0350
18952SOL    HW268836   3.215   0.305  12.202  0.6636 -0.1232  0.6676
18953SOL     OW68837  10.716   6.151   1.001 -0.8245  0.4267  0.0632
18953SOL    HW168838  10.671   6.125   1.081  0.0215 -2.1642 -0.2202
18953SOL    HW268839  10.801   6.183   1.030  0.0074 -1.7384  0.2258
18954SOL     OW68840  11.859   7.843  12.826 -0.1465  0.4315  0.4147
18954SOL    HW168841  11.943   7.855  12.782  1.7382  0.6898  3.6936
18954SOL    HW268842  11.837   7.931  12.859  0.3682 -0.2423  2.7862
18955SOL     OW68843   6.363   4.478  13.785  0.1882 -0.3176  0.0150
18955SOL    HW168844   6.270   4.474  13.811  0.2639  0.3392  0.4121
18955SOL    HW268845   6.376   4.400  13.731 -0.1349 -1.4209  1.4693
18956SOL     OW68846   1.403   3.090   8.289  0.0683  0.0821 -0.9247
18956SOL    HW168847   1.497   3.108   8.287  0.3244 -0.9582  0.4010
18956SOL    HW268848   1.373   3.113   8.201  1.8957 -1.3202 -1.9892
18957SOL     OW68849   8.155   5.172   1.618 -0.2220  0.0615  0.0664
18957SOL    HW168850   8.163   5.267   1.625 -1.0338  0.1203  0.2350
18957SOL    HW268851   8.224   5.138   1.676  2.2924  0.5056 -2.4119
18958SOL     OW68852   8.230   8.172   7.960 -0.6575 -0.8016  0.2690
18958SOL    HW168853   8.157   8.164   7.900 -0.4402 -0.4350 -0.0472
18958SOL    HW268854   8.190   8.200   8.043 -0.7132  1.0184 -0.3356
18959SOL     OW68855  11.982   0.746   8.198  0.2491 -0.4921  0.2775
18959SOL    HW168856  12.033   0.824   8.220  0.4332 -0.6072  0.2640
18959SOL    HW268857  11.903   0.753   8.251 -0.0067  0.0022 -0.1536
18960SOL     OW68858   1.735   5.296   1.343  0.6491 -0.1754  0.4589
18960SOL    HW168859   1.827   5.281   1.322  0.9667  0.2796  1.4320
18960SOL    HW268860   1.691   5.304   1.258  1.3936 -1.0122 -0.0128
18961SOL     OW68861   8.641   3.648   1.928 -0.1219  0.2348  0.3086
18961SOL    HW168862   8.689   3.567   1.909 -1.3810 -0.2221 -1.0511
18961SOL    HW268863   8.700   3.718   1.900 -0.1433 -0.3125 -1.1879
18962SOL     OW68864   6.071  13.592  11.559 -0.0319 -0.3739  0.1448
18962SOL    HW168865   6.147  13.551  11.518  0.3129 -1.6377  1.9255
18962SOL    HW268866   6.107  13.646  11.629 -0.7263 -0.7768  0.8388
18963SOL     OW68867  10.213   6.277  12.634  0.1265 -0.5933  0.0788
18963SOL    HW168868  10.255   6.363  12.645 -0.3530 -0.2484 -0.6868
18963SOL    HW268869  10.198   6.269  12.540  0.8383 -1.8534  0.0548
18964SOL     OW68870   4.475   1.243   1.616 -0.4124 -0.3777 -0.0738
18964SOL    HW168871   4.448   1.334   1.629 -2.1751 -0.9222  0.3222
18964SOL    HW268872   4.495   1.212   1.704  1.4034 -0.0574 -0.3348
18965SOL     OW68873   9.124   2.262   7.186 -0.0039 -0.2743  0.3883
18965SOL    HW168874   9.039   2.272   7.143  0.4353  0.6331 -0.3190
18965SOL    HW268875   9.139   2.346   7.230  0.0426 -0.8144  1.4417
18966SOL     OW68876  12.630   2.208   1.513  0.1080 -0.3389 -0.1436
18966SOL    HW168877  12.554   2.167   1.556  1.1362 -1.5888  0.5475
18966SOL    HW268878  12.612   2.302   1.518 -0.2083 -0.4695  2.3127
18967SOL     OW68879   9.118  12.052  11.216 -0.0996 -0.2675  0.2753
18967SOL    HW168880   9.051  11.994  11.179 -1.1425  0.6951  0.5891
18967SOL    HW268881   9.068  12.116  11.268  0.9459  1.2489 -0.5166
18968SOL     OW68882   2.069   9.566  12.740 -0.5907  0.6510  0.6121
18968SOL    HW168883   2.121   9.511  12.799 -1.8252 -0.3225  0.8053
18968SOL    HW268884   2.093   9.656  12.766  2.5526  0.3307 -0.6754
18969SOL     OW68885   5.507  11.816   0.180 -0.0130 -0.2473 -0.0729
18969SOL    HW168886   5.507  11.869   0.100  2.6529  2.5980  1.5993
18969SOL    HW268887   5.589  11.838   0.224 -0.1023 -3.7141  2.2315
18970SOL     OW68888   6.227   4.451  11.168  0.2579  0.3959 -0.3478
18970SOL    HW168889   6.235   4.369  11.216  0.0925  0.7418  0.2827
18970SOL    HW268890   6.315   4.489  11.171  0.1054  0.7243  0.2597
18971SOL     OW68891   9.170   3.835   1.095  0.0163  0.4756  0.2690
18971SOL    HW168892   9.210   3.907   1.047 -0.7174  0.4510 -0.4080
18971SOL    HW268893   9.217   3.757   1.066 -0.7627  0.3965 -0.8262
18972SOL     OW68894  11.549  12.222   3.943 -0.0354 -0.2185  0.2434
18972SOL    HW168895  11.510  12.199   3.858 -0.9967 -1.5259  1.0055
18972SOL    HW268896  11.542  12.142   3.995  2.0063  0.0756  1.0482
18973SOL     OW68897   1.002   1.014   3.807  0.0579  0.7657 -0.0024
18973SOL    HW168898   1.009   0.919   3.811 -0.0937  0.7805  1.2155
18973SOL    HW268899   1.084   1.043   3.769  0.1319  0.1539 -0.3177
18974SOL     OW68900   7.466  14.045   7.768 -0.1622  0.0200 -0.4312
18974SOL    HW168901   7.426  14.129   7.747 -0.9985 -0.3543 -0.3677
18974SOL    HW268902   7.539  14.067   7.827  1.0506  0.8940 -2.1852
18975SOL     OW68903  12.454  12.032   0.909 -0.1475 -0.4531  0.2920
18975SOL    HW168904  12.465  12.117   0.951 -2.1118  1.6573 -3.0391
18975SOL    HW268905  12.544  12.003   0.891  0.5783  0.6206  1.8835
18976SOL     OW68906   2.487   9.786  13.488 -0.0037  1.2145  0.2006
18976SOL    HW168907   2.397   9.771  13.515  0.1765 -1.7963 -0.5467
18976SOL    HW268908   2.494   9.743  13.403  2.2549  0.9588  0.4590
18977SOL     OW68909   7.516  13.336   9.424  0.0653 -0.3612 -0.3406
18977SOL    HW168910   7.534  13.288   9.505  2.4109 -0.5969 -0.9431
18977SOL    HW268911   7.515  13.428   9.451  2.2194 -0.3373 -0.2150
18978SOL     OW68912   4.570   4.220  13.021  0.5309  0.3947 -0.4426
18978SOL    HW168913   4.601   4.297  13.069 -0.3956 -0.0402  0.9044
18978SOL    HW268914   4.476   4.235  13.009 -0.3236 -1.7743  2.4383
18979SOL     OW68915  13.959   0.407   8.488  0.2621 -0.0827 -0.5535
18979SOL    HW168916  13.928   0.490   8.524 -1.4827 -0.5291 -0.9443
18979SOL    HW268917  13.964   0.349   8.564 -0.8192 -0.2642 -0.6005
18980SOL     OW68918  10.095   3.340   7.358 -0.2198  0.6495 -0.3966
18980SOL    HW168919  10.092   3.252   7.319  1.5013 -0.6272  2.1390
18980SOL    HW268920  10.008   3.351   7.396 -0.6487  0.3340 -1.2392
18981SOL     OW68921  13.578  10.716  12.477  0.3644  0.1566 -0.1495
18981SOL    HW168922  13.551  10.680  12.392 -0.5295  0.1096  0.1466
18981SOL    HW268923  13.668  10.686  12.488  0.2270 -0.4911 -0.7342
18982SOL     OW68924   7.429   3.230   1.235 -0.1857 -0.2097 -0.2987
18982SOL    HW168925   7.352   3.244   1.179  0.2964 -0.0906 -0.9496
18982SOL    HW268926   7.439   3.135   1.238 -0.2926 -0.2214 -0.3071
18983SOL     OW68927  13.389   2.553   0.225 -0.5453 -0.9976  0.8141
18983SOL    HW168928  13.353   2.465   0.220 -0.8859 -0.8183 -0.0155
18983SOL    HW268929  13.430   2.557   0.312  1.0689 -2.5640  0.1729
18984SOL     OW68930  10.156  13.496   5.796  0.1303 -0.0006 -0.2039
18984SOL    HW168931  10.218  13.430   5.764 -1.0535 -1.2188 -0.0482
18984SOL    HW268932  10.096  13.510   5.723 -1.3812 -1.3065  0.7338
18985SOL     OW68933   8.360   3.524   5.278  0.6056 -0.6829  0.1425
18985SOL    HW168934   8.347   3.556   5.367 -0.0048 -1.5766  0.3913
18985SOL    HW268935   8.283   3.469   5.261  0.2788  0.1323 -1.2474
18986SOL     OW68936   6.979  12.814   1.303 -0.7303  0.3389 -0.1202
18986SOL    HW168937   7.059  12.767   1.326 -0.4516  0.2019 -1.2981
18986SOL    HW268938   6.908  12.758   1.334 -0.3898  0.7490  1.4838
18987SOL     OW68939  10.141   6.733   0.683 -0.4833 -0.3169  0.2360
18987SOL    HW168940  10.210   6.799   0.695 -1.4688  0.9588 -0.8031
18987SOL    HW268941  10.182   6.664   0.632 -0.4624  1.3989 -2.2466
18988SOL     OW68942   9.733  13.359  12.987 -0.3397 -0.6679 -0.2976
18988SOL    HW168943   9.684  13.332  13.065 -0.1010 -1.8704 -0.5379
18988SOL    HW268944   9.823  13.332  13.004 -0.6122 -2.6859 -1.7249
18989SOL     OW68945   5.591   4.589   7.240 -0.0425 -0.0991 -0.6554
18989SOL    HW168946   5.558   4.545   7.162 -0.8668 -1.3740  0.3529
18989SOL    HW268947   5.513   4.610   7.291  0.5433 -1.4773  0.9221
18990SOL     OW68948   3.538   3.734   8.832 -0.5290 -0.2612  0.2973
18990SOL    HW168949   3.571   3.697   8.915  1.2788 -0.1532 -0.3316
18990SOL    HW268950   3.610   3.787   8.799 -1.1359 -0.4536 -1.4526
18991SOL     OW68951   2.115  11.371   0.543 -0.2106  0.0471 -0.3909
18991SOL    HW168952   2.082  11.381   0.632 -0.0595  0.2541 -0.3582
18991SOL    HW268953   2.109  11.459   0.505 -0.6935 -0.1261 -0.7282
18992SOL     OW68954  11.332   1.703   7.827  0.2544  0.2943 -0.6595
18992SOL    HW168955  11.297   1.685   7.740 -1.7620  0.1903  0.1183
18992SOL    HW268956  11.339   1.798   7.831  0.3390  0.3007 -0.9138
18993SOL     OW68957  13.279   7.591   5.076 -0.1750 -0.3151  0.1090
18993SOL    HW168958  13.264   7.555   4.989 -0.1342 -2.8747  1.0763
18993SOL    HW268959  13.250   7.682   5.070 -1.6236 -0.8526 -2.1333
18994SOL     OW68960  13.544  12.825  11.916  0.3476 -0.4524  0.4535
18994SOL    HW168961  13.591  12.897  11.959 -0.4865  0.6113 -0.3396
18994SOL    HW268962  13.479  12.797  11.981 -0.4082  0.6416  0.1981
18995SOL     OW68963   6.541   5.481   3.562 -0.1484 -0.5199  0.0045
18995SOL    HW168964   6.522   5.412   3.625 -0.3745 -0.8045 -0.3705
18995SOL    HW268965   6.586   5.437   3.490  1.7314  0.0880  0.7467
18996SOL     OW68966  13.405   8.914  13.236 -0.3164  0.5425 -0.1472
18996SOL    HW168967  13.420   8.821  13.252 -1.4686  0.5310  1.0529
18996SOL    HW268968  13.354   8.943  13.312  0.5511  2.3014 -0.2062
18997SOL     OW68969   9.198  13.581   3.313 -0.1732 -0.2005  0.2821
18997SOL    HW168970   9.227  13.589   3.404  2.9667 -0.3880 -0.5833
18997SOL    HW268971   9.120  13.635   3.308 -0.4717 -0.2212  3.0777
18998SOL     OW68972  11.935  11.704  13.734  0.7339 -0.2901  0.3588
18998SOL    HW168973  11.922  11.636  13.668  0.1958 -1.5476  1.7306
18998SOL    HW268974  12.002  11.761  13.696 -0.1208 -0.5258 -1.6116
18999SOL     OW68975  13.975   1.194  12.483  0.1842  0.0819 -0.3030
18999SOL    HW168976  14.031   1.265  12.451  0.4844  0.5602  1.2124
18999SOL    HW268977  14.032   1.144  12.542 -0.8017  0.2315  0.8066
19000SOL     OW68978   9.480   3.825  13.654 -0.1833  0.0863  0.2210
19000SOL    HW168979   9.485   3.729  13.654  1.2938  0.1415 -0.3451
19000SOL    HW268980   9.421   3.845  13.581  2.6642 -0.3368 -2.3779
19001SOL     OW68981   1.243  11.971   8.757  0.4672 -0.2502  0.7019
19001SOL    HW168982   1.299  12.048   8.759  2.5608 -1.5968 -0.9763
19001SOL    HW268983   1.263  11.925   8.839  1.6487 -0.5498  0.2718
19002SOL     OW68984  12.498  10.654  13.816  0.0555 -0.0746 -0.3741
19002SOL    HW168985  12.410  10.657  13.853 -0.2912 -3.4212 -0.5900
19002SOL    HW268986  12.509  10.738  13.771 -1.2113  2.3206  3.3716
19003SOL     OW68987   2.723   6.019   3.388  0.2183 -0.1203 -0.1348
19003SOL    HW168988   2.735   6.112   3.368  1.2464 -0.4308 -0.9979
19003SOL    HW268989   2.700   6.018   3.481 -1.2162  1.0911 -0.4362
19004SOL     OW68990   1.920   4.170   2.637  0.0449 -0.3720  0.5434
19004SOL    HW168991   1.876   4.092   2.602  0.7281 -0.5159 -0.0160
19004SOL    HW268992   1.976   4.200   2.565  0.5678  0.0355  1.1151
19005SOL     OW68993  13.633   7.107   7.436 -0.1244  0.5227  0.2255
19005SOL    HW168994  13.567   7.177   7.439 -0.2808  0.3500  1.1645
19005SOL    HW268995  13.597   7.038   7.492 -0.1305 -0.4665 -0.9608
19006SOL     OW68996   2.045   7.184   0.217 -0.3530  0.1757 -0.4765
19006SOL    HW168997   2.121   7.176   0.274  0.1878 -0.8997 -1.3123
19006SOL    HW268998   1.984   7.239   0.266 -0.3071 -1.4573  1.5644
19007SOL     OW68999  10.689  13.895   4.489 -0.3069  0.3140 -0.4176
19007SOL    HW169000  10.768  13.869   4.536 -0.1699  1.4676  0.0252
19007SOL    HW269001  10.720  13.954   4.421 -0.5929 -0.7683 -1.5237
19008SOL     OW69002  10.580  10.130   6.728 -0.1679  0.5664  0.0313
19008SOL    HW169003  10.515  10.164   6.789 -1.8638 -1.7363 -0.3563
19008SOL    HW269004  10.566  10.182   6.648 -1.3632  0.3060  0.0497
19009SOL     OW69005   4.287   1.774   3.899  0.0918 -0.3232 -0.2281
19009SOL    HW169006   4.221   1.722   3.944 -2.0991  0.6217 -2.1600
19009SOL    HW269007   4.297   1.852   3.953 -0.6501 -0.3086 -0.1088
19010SOL     OW69008   5.955   0.334  14.010  0.1302 -0.0702 -0.0471
19010SOL    HW169009   5.877   0.389  13.999  0.2085 -0.0920 -0.7613
19010SOL    HW269010   5.943   0.293  14.095 -0.2642  0.5261  0.1936
19011SOL     OW69011   9.805   1.813  12.527  0.2982 -0.3773 -0.1537
19011SOL    HW169012   9.881   1.781  12.575 -0.5518  0.5381  1.9036
19011SOL    HW269013   9.815   1.776  12.439  1.6536 -2.5684  0.8356
19012SOL     OW69014   0.428   6.133  12.814  0.1306 -0.2248  0.1000
19012SOL    HW169015   0.487   6.208  12.814 -1.2009  0.8766 -0.6639
19012SOL    HW269016   0.413   6.114  12.721  0.5053 -1.5128  0.2754
19013SOL     OW69017   3.256   8.159   4.747 -0.5189 -0.3483  0.0194
19013SOL    HW169018   3.289   8.233   4.696 -0.0193 -0.3508  0.3327
19013SOL    HW269019   3.163   8.152   4.723 -0.7133  0.7471  0.4270
19014SOL     OW69020   2.205   9.529  13.584  0.1878 -0.0126 -0.4202
19014SOL    HW169021   2.117   9.560  13.563 -0.6011 -2.0009 -0.2996
19014SOL    HW269022   2.207   9.439  13.550  1.6363 -0.5341  0.9390
19015SOL     OW69023   3.438   3.740  10.545 -0.4824 -0.3270 -0.0832
19015SOL    HW169024   3.464   3.797  10.617  0.9058 -0.7039 -0.2660
19015SOL    HW269025   3.343   3.732  10.555 -0.1805 -1.7212  2.7172
19016SOL     OW69026   6.858  13.054   0.881 -0.2285 -0.1872  0.2999
19016SOL    HW169027   6.931  13.018   0.831  0.1545 -1.5699  1.8118
19016SOL    HW269028   6.855  13.147   0.855  1.6030 -0.2614 -0.3094
19017SOL     OW69029   8.583   4.802  11.598  0.4228 -0.3029  0.3119
19017SOL    HW169030   8.516   4.744  11.563  1.4195 -0.4958 -1.3865
19017SOL    HW269031   8.626   4.750  11.666  0.3958 -1.0825 -0.2431
19018SOL     OW69032   2.098   8.324  13.402  0.0071 -0.3292 -0.2380
19018SOL    HW169033   2.053   8.303  13.484  2.0995  0.4086  1.1998
19018SOL    HW269034   2.121   8.238  13.365  0.8331 -0.7200  1.0648
19019SOL     OW69035   8.291   5.168   8.839 -0.3661 -0.4402 -0.1969
19019SOL    HW169036   8.274   5.229   8.767 -0.0262 -0.9035 -0.6805
19019SOL    HW269037   8.225   5.188   8.904  0.2815  1.0594  0.0430
19020SOL     OW69038   6.330  10.591  13.635  0.1880  0.5074  0.0512
19020SOL    HW169039   6.248  10.592  13.587  0.3119 -0.8884 -0.2123
19020SOL    HW269040   6.305  10.574  13.726  0.1325  0.9115  0.1147
19021SOL     OW69041  11.749   1.172   3.741  0.3476  0.3774 -0.1126
19021SOL    HW169042  11.821   1.185   3.804 -0.1911  0.6768  0.4465
19021SOL    HW269043  11.670   1.190   3.791 -0.2565 -1.8364 -0.1898
19022SOL     OW69044  11.657   9.384  11.525  0.3835 -0.4542 -0.2177
19022SOL    HW169045  11.623   9.300  11.555  0.5432  0.2692  2.2661
19022SOL    HW269046  11.747   9.387  11.558  0.0226  1.1096  0.7554
19023SOL     OW69047  10.428  12.929  10.749 -0.2581 -0.8713  0.1952
19023SOL    HW169048  10.365  13.001  10.755 -0.1130 -0.2122 -3.6631
19023SOL    HW269049  10.375  12.852  10.732 -0.1986 -1.0903  0.9428
19024SOL     OW69050  12.350   0.864   6.597  0.0061 -0.7360 -0.1000
19024SOL    HW169051  12.281   0.882   6.661 -0.7441 -1.5501 -0.6454
19024SOL    HW269052  12.374   0.950   6.563 -0.9985 -0.4608 -0.1577
19025SOL     OW69053   8.122  11.719  11.445  0.5517  0.4738  0.6835
19025SOL    HW169054   8.095  11.712  11.354  0.9815 -1.0084  0.6480
19025SOL    HW269055   8.155  11.809  11.454  1.4542  0.3347 -0.8886
19026SOL     OW69056  10.245   5.372   1.388 -0.2921 -0.7231 -0.2326
19026SOL    HW169057  10.334   5.348   1.362  1.2320  2.1795  1.7248
19026SOL    HW269058  10.230   5.323   1.469 -0.1283 -0.6076 -0.1308
19027SOL     OW69059  10.340   8.242  12.502 -0.4815  0.1632 -0.2382
19027SOL    HW169060  10.352   8.324  12.550 -1.0127 -0.1046  0.3697
19027SOL    HW269061  10.429   8.216  12.477 -0.3406  1.1662 -0.8770
19028SOL     OW69062  10.884  13.484   5.488 -0.3414  0.2543  0.6656
19028SOL    HW169063  10.907  13.431   5.412 -2.2764 -0.6105  0.6377
19028SOL    HW269064  10.798  13.520   5.468 -0.8973  0.0119  2.4323
19029SOL     OW69065   8.734   9.934   4.645 -0.1033  0.8088  0.0424
19029SOL    HW169066   8.734   9.843   4.615 -0.6083  0.3686  1.2963
19029SOL    HW269067   8.728   9.986   4.564 -0.8789 -0.2972 -0.6419
19030SOL     OW69068  10.752  11.032  12.884  0.1649  0.3355 -0.4847
19030SOL    HW169069  10.697  11.108  12.899  2.6817  2.4983 -1.4156
19030SOL    HW269070  10.786  11.008  12.970  0.8499  1.5467 -0.3959
19031SOL     OW69071  12.722  11.093  13.183 -0.7336 -0.7195 -0.1500
19031SOL    HW169072  12.675  11.011  13.194  1.1016 -2.0444 -1.5895
19031SOL    HW269073  12.706  11.118  13.091  1.0580 -1.0406 -0.5764
19032SOL     OW69074   7.889   8.911  10.462  0.4886 -0.0515 -0.1555
19032SOL    HW169075   7.952   8.864  10.408  0.5457 -0.4259  0.2375
19032SOL    HW269076   7.943   8.973  10.512  0.4152  0.4368 -0.6586
19033SOL     OW69077  13.640   2.587   3.139 -0.1475  0.0151  0.5170
19033SOL    HW169078  13.641   2.538   3.221  0.9993  0.4680  0.7931
19033SOL    HW269079  13.559   2.561   3.096 -0.3048 -0.9359  1.3675
19034SOL     OW69080   3.863  11.351   5.309 -0.0678 -0.1047  0.5346
19034SOL    HW169081   3.815  11.270   5.294  1.6001 -1.0009 -0.3167
19034SOL    HW269082   3.889  11.348   5.401  1.2740 -1.3202  0.1473
19035SOL     OW69083   6.847  13.643   9.344  0.2227 -0.4164 -0.6670
19035SOL    HW169084   6.813  13.567   9.297  0.9858 -1.4038  0.3419
19035SOL    HW269085   6.782  13.661   9.412 -1.3288  1.5553 -2.5303
19036SOL     OW69086   8.313  10.616  12.121  0.6916 -0.7341  0.4061
19036SOL    HW169087   8.230  10.645  12.084  0.5604 -1.0864  0.4203
19036SOL    HW269088   8.292  10.593  12.212  0.6945 -1.3186  0.2609
19037SOL     OW69089   1.529  12.408  12.660 -0.2952  0.1862 -0.0498
19037SOL    HW169090   1.534  12.341  12.729  1.0758 -0.2981 -0.5860
19037SOL    HW269091   1.607  12.393  12.607 -0.4656  1.6259 -0.7397
19038SOL     OW69092   1.892   4.713  11.887  0.2858 -0.3736  0.4549
19038SOL    HW169093   1.817   4.772  11.885  1.9054  1.9573  2.3167
19038SOL    HW269094   1.862   4.638  11.939 -1.7332 -1.2121 -1.7432
19039SOL     OW69095  14.045  11.072   2.097  0.1635 -0.3995 -0.3203
19039SOL    HW169096  13.961  11.117   2.097  0.5552  0.3564  0.0202
19039SOL    HW269097  14.047  11.023   2.179  0.4833  0.4324  0.1856
19040SOL     OW69098   6.886   7.008   9.627 -0.6683 -0.4795 -0.2557
19040SOL    HW169099   6.833   7.087   9.627  0.7138  0.5049  1.3478
19040SOL    HW269100   6.952   7.023   9.695  1.8802 -1.4852 -2.3474
19041SOL     OW69101   6.332   4.166   8.046  0.2145 -0.1026 -0.5559
19041SOL    HW169102   6.421   4.164   8.009 -0.0218  0.7169 -1.1785
19041SOL    HW269103   6.319   4.257   8.073  0.1591 -0.5524  1.0335
19042SOL     OW69104  13.583  13.496   6.214  0.0295  0.0329 -0.1796
19042SOL    HW169105  13.617  13.450   6.137  1.0087 -0.0297  0.2777
19042SOL    HW269106  13.599  13.589   6.195 -1.0570  0.1368 -0.6730
19043SOL     OW69107   9.598  11.918   9.289  0.2435  0.0086  0.7614
19043SOL    HW169108   9.610  11.999   9.240 -1.7830 -0.8218 -1.2546
19043SOL    HW269109   9.686  11.881   9.296  0.7786  0.8220 -1.1158
19044SOL     OW69110   4.372   3.582   4.266  0.4955 -0.6971  0.2679
19044SOL    HW169111   4.408   3.531   4.338  3.2464  1.7190  0.7914
19044SOL    HW269112   4.401   3.537   4.187  0.8138 -1.2457  0.6978
19045SOL     OW69113   5.694   7.882   9.647  0.5607  0.3426 -0.4992
19045SOL    HW169114   5.600   7.870   9.631  0.7439  0.8158 -2.1250
19045SOL    HW269115   5.699   7.959   9.704 -0.0811 -0.4819  0.7030
19046SOL     OW69116   4.124  11.544   8.718 -0.0523  0.1024  0.2975
19046SOL    HW169117   4.086  11.495   8.792  0.6599 -0.4963  0.2797
19046SOL    HW269118   4.049  11.565   8.663 -0.2589 -2.1740 -0.3930
19047SOL     OW69119   1.234   9.748   4.057  0.0982 -0.5181  0.1006
19047SOL    HW169120   1.322   9.765   4.092  1.1049 -0.7778 -2.1758
19047SOL    HW269121   1.210   9.829   4.012 -1.0511 -0.3004  1.0419
19048SOL     OW69122  14.003   9.478   3.098  0.1964  0.1913 -0.0725
19048SOL    HW169123  13.982   9.455   3.007 -0.7374 -0.2790  0.2426
19048SOL    HW269124  13.939   9.545   3.121  0.3667  0.2389  0.2683
19049SOL     OW69125  11.486   0.312   5.413 -0.1347  0.0090 -0.3215
19049SOL    HW169126  11.486   0.238   5.475  0.0149 -0.6354 -1.0726
19049SOL    HW269127  11.509   0.388   5.466 -0.2890 -0.4869  0.4696
19050SOL     OW69128   5.887  13.749   8.501 -0.6302  0.3311 -0.0735
19050SOL    HW169129   5.958  13.716   8.446 -0.1649  0.8423  0.2154
19050SOL    HW269130   5.818  13.682   8.493  0.1527 -0.5290  0.2106
19051SOL     OW69131  10.542  12.305  13.099  0.0046  0.5067 -0.1692
19051SOL    HW169132  10.637  12.297  13.102 -0.0553  0.1275  2.4570
19051SOL    HW269133  10.526  12.399  13.090  0.6129  0.6444  0.1452
19052SOL     OW69134   7.139   3.354   8.396 -0.2727  0.0318  0.0793
19052SOL    HW169135   7.191   3.355   8.316 -0.1688  2.9974  0.0596
19052SOL    HW269136   7.189   3.409   8.457 -0.7822 -1.4533  1.9122
19053SOL     OW69137   8.877   1.380  11.809 -0.3429  0.6045  0.8978
19053SOL    HW169138   8.971   1.395  11.823  0.1052 -0.8055 -0.2714
19053SOL    HW269139   8.868   1.375  11.714 -1.3561 -0.6633  1.0392
19054SOL     OW69140  10.486  10.977   7.943  0.0660 -0.2551 -0.2528
19054SOL    HW169141  10.437  10.908   7.988 -0.4107  0.7120  0.7519
19054SOL    HW269142  10.440  10.988   7.859 -0.5651 -0.3368  0.0774
19055SOL     OW69143  11.496   4.538   8.726 -0.9527  0.5205 -0.1394
19055SOL    HW169144  11.471   4.446   8.727  0.9542 -0.0429  1.5201
19055SOL    HW269145  11.421   4.585   8.763 -1.1863 -0.6194  0.8753
19056SOL     OW69146   3.699   9.464   2.222 -0.2500  0.0800 -0.0531
19056SOL    HW169147   3.735   9.547   2.191  0.4706 -0.2553 -0.1479
19056SOL    HW269148   3.748   9.397   2.173  0.4036 -0.4393  1.2716
19057SOL     OW69149  12.794   8.196  10.296 -0.4261 -0.2307 -0.1993
19057SOL    HW169150  12.781   8.148  10.214 -0.8515  0.1059 -0.3339
19057SOL    HW269151  12.795   8.129  10.364 -2.0821 -0.3617 -0.2664
19058SOL     OW69152   0.962  12.447  10.571  0.8519  0.0878 -0.3893
19058SOL    HW169153   0.943  12.410  10.484  0.1247  0.6764 -0.4897
19058SOL    HW269154   0.964  12.370  10.628  0.5119 -0.2330 -0.7904
19059SOL     OW69155   0.638  11.571  13.203  0.1175  0.5962  0.2975
19059SOL    HW169156   0.728  11.578  13.233  0.2710 -0.5574  0.1274
19059SOL    HW269157   0.622  11.477  13.196 -1.3275  0.7566  1.0291
19060SOL     OW69158  10.342  12.208   6.390  0.3098 -0.6567 -0.2325
19060SOL    HW169159  10.421  12.217   6.445  0.9203  0.3339 -1.2187
19060SOL    HW269160  10.372  12.231   6.302 -1.2905  0.6943 -0.4712
19061SOL     OW69161   5.862  13.787   9.117  0.6565  0.5018 -0.1060
19061SOL    HW169162   5.949  13.820   9.095 -0.2098  3.6507  0.6722
19061SOL    HW269163   5.813  13.791   9.035  0.8152  0.1409 -0.2230
19062SOL     OW69164  10.879   6.424   5.243 -0.1912 -0.1054  0.2636
19062SOL    HW169165  10.881   6.511   5.283  0.1134 -0.7389  1.6924
19062SOL    HW269166  10.867   6.441   5.150  1.9340  1.5599  0.2020
19063SOL     OW69167  13.342   4.524   8.482  0.3133 -0.4627  0.3031
19063SOL    HW169168  13.329   4.523   8.576  0.2013 -1.7377  0.2941
19063SOL    HW269169  13.380   4.439   8.462 -0.1032 -0.3987 -0.8575
19064SOL     OW69170   4.907  10.779   0.596  0.1466 -0.1292  0.1147
19064SOL    HW169171   4.976  10.835   0.633 -1.0166  1.2397  0.2895
19064SOL    HW269172   4.837  10.782   0.661 -0.8518  0.0835 -0.9503
19065SOL     OW69173  10.167  11.112   7.753  0.1520  1.6390  0.6595
19065SOL    HW169174  10.261  11.099   7.742  0.1220  0.8869  1.2056
19065SOL    HW269175  10.150  11.198   7.716  0.5904  0.6514 -2.0804
19066SOL     OW69176   2.327  12.296  12.923  0.0697 -0.1222  0.4410
19066SOL    HW169177   2.314  12.382  12.962 -1.2470 -0.1289  0.0695
19066SOL    HW269178   2.296  12.235  12.990  0.5638 -0.2882  0.5223
19067SOL     OW69179   3.128   9.835   2.730  0.0581 -0.2871 -0.5469
19067SOL    HW169180   3.041   9.830   2.690  0.7514 -2.2179 -1.9556
19067SOL    HW269181   3.159   9.923   2.708 -1.7127  0.6511  0.4804
19068SOL     OW69182  10.182   6.958   3.647 -0.0973  0.1490  0.4097
19068SOL    HW169183  10.230   7.037   3.620 -1.7154  1.5152  1.3609
19068SOL    HW269184  10.198   6.951   3.741  0.2885 -0.8869  0.2873
19069SOL     OW69185   7.880   1.165  13.806 -0.0456  0.0208  0.0326
19069SOL    HW169186   7.867   1.082  13.853  1.5480  1.3714  3.1992
19069SOL    HW269187   7.969   1.160  13.772 -0.4017 -0.0436 -0.9144
19070SOL     OW69188   5.987   7.571   3.753  0.0223 -0.2280  0.0902
19070SOL    HW169189   5.897   7.548   3.729  0.7392 -2.5791 -0.6259
19070SOL    HW269190   6.018   7.626   3.682 -0.9374  0.9649  0.5494
19071SOL     OW69191   7.675   3.387   0.640  0.0423 -0.4972  0.5389
19071SOL    HW169192   7.644   3.413   0.553  0.6568  0.7908  0.6767
19071SOL    HW269193   7.653   3.294   0.647 -1.4933 -0.2306 -0.3380
19072SOL     OW69194   6.147   5.098  13.263 -0.1320  0.3847 -0.1621
19072SOL    HW169195   6.085   5.161  13.300 -0.0890  0.0496  0.4938
19072SOL    HW269196   6.211   5.152  13.216 -1.9736  0.6548 -2.5595
19073SOL     OW69197   6.521  12.475  11.824 -0.0993 -0.3712 -0.8951
19073SOL    HW169198   6.589  12.533  11.859 -0.6744  1.0216 -1.9966
19073SOL    HW269199   6.565  12.428  11.753 -0.6696  1.9703 -2.9635
19074SOL     OW69200  10.862   1.305   2.587  0.1944  0.1983  0.4988
19074SOL    HW169201  10.822   1.339   2.507  0.4833 -1.1880 -0.2450
19074SOL    HW269202  10.853   1.378   2.650 -0.9841  0.9209 -0.4552
19075SOL     OW69203   4.227   1.624   6.874  0.1262 -0.4936  0.1931
19075SOL    HW169204   4.160   1.617   6.941 -0.0948  0.2432  0.0516
19075SOL    HW269205   4.250   1.717   6.871  0.3417 -0.5625 -0.5449
19076SOL     OW69206  11.315  11.690  10.550 -0.0057 -0.3671 -0.5855
19076SOL    HW169207  11.298  11.784  10.542  0.0483 -0.2958  0.1281
19076SOL    HW269208  11.410  11.683  10.551 -0.0063 -0.3312  0.4372
19077SOL     OW69209   5.923   4.330  12.240 -0.2405 -0.2076 -0.8920
19077SOL    HW169210   5.898   4.310  12.150 -0.7144  0.0404 -0.8201
19077SOL    HW269211   5.946   4.423  12.238 -4.5221  1.0930  0.0782
19078SOL     OW69212   7.236   0.854   3.192 -0.5598 -0.2381  0.6768
19078SOL    HW169213   7.302   0.835   3.259 -2.0541 -0.6899  2.0705
19078SOL    HW269214   7.157   0.811   3.223 -2.0790  1.9517  0.0761
19079SOL     OW69215  10.161   8.282   0.646  0.4913  0.3471 -0.2033
19079SOL    HW169216  10.147   8.366   0.689 -2.0058  0.4691 -1.1297
19079SOL    HW269217  10.163   8.301   0.553 -3.2832 -0.8332 -0.6817
19080SOL     OW69218   5.218   0.931   1.153 -0.4362  0.6396  0.4245
19080SOL    HW169219   5.312   0.921   1.168 -0.7357 -0.0174  2.1448
19080SOL    HW269220   5.191   0.997   1.218 -1.2035  0.6756  0.0817
19081SOL     OW69221   9.325  11.360   5.049 -0.7473 -0.5152 -0.3326
19081SOL    HW169222   9.401  11.371   5.106 -0.8913  4.2525 -0.7006
19081SOL    HW269223   9.360  11.327   4.967 -0.0080 -3.6196  1.0787
19082SOL     OW69224  13.137   7.163   1.360  0.1368 -0.3176 -0.5145
19082SOL    HW169225  13.111   7.105   1.289  1.3466 -0.5424 -0.7934
19082SOL    HW269226  13.085   7.134   1.435 -1.6056  0.3148 -1.4122
19083SOL     OW69227   9.096   1.096  13.249 -0.1835 -0.0619 -0.3524
19083SOL    HW169228   9.023   1.042  13.221 -0.7701  0.2899  0.4614
19083SOL    HW269229   9.057   1.163  13.305  0.5255  1.1847 -1.2916
19084SOL     OW69230   0.273  11.033   9.477  0.0703  0.3261  0.3534
19084SOL    HW169231   0.340  10.980   9.435  1.8716  0.9626  2.2304
19084SOL    HW269232   0.192  11.010   9.432  1.5048 -0.5840 -1.9169
19085SOL     OW69233   3.691  12.791   3.153  0.3592  0.3873  0.6267
19085SOL    HW169234   3.603  12.821   3.177 -0.9070 -0.3233 -2.6179
19085SOL    HW269235   3.718  12.850   3.082  1.4938 -0.8055  0.0283
19086SOL     OW69236  13.020  13.972  13.504 -0.6404 -0.4884  0.0557
19086SOL    HW169237  13.044  13.941  13.591  0.1776  1.3687  0.5445
19086SOL    HW269238  12.991  14.062  13.518  0.1759  0.0844 -1.6654
19087SOL     OW69239   5.247   2.723   0.552  0.0919  0.1259 -0.0385
19087SOL    HW169240   5.339   2.702   0.569 -0.5658 -0.9164  2.7959
19087SOL    HW269241   5.223   2.667   0.478  0.8414 -2.4333  1.5181
19088SOL     OW69242  10.246   6.991  12.944 -0.0759  0.3674  0.0520
19088SOL    HW169243  10.186   7.031  13.006  0.1842  0.1618  0.4418
19088SOL    HW269244  10.227   7.033  12.860 -0.4590  0.6118  0.2650
19089SOL     OW69245   8.988  10.482   7.573 -0.2942 -0.3249  0.2767
19089SOL    HW169246   9.032  10.426   7.636 -2.1809 -1.3818  0.7213
19089SOL    HW269247   8.924  10.425   7.531 -1.9572  1.3619  0.4000
19090SOL     OW69248   4.237   8.475   0.695 -0.4704 -0.0150 -0.3799
19090SOL    HW169249   4.162   8.530   0.675  0.7147  2.1631  0.7718
19090SOL    HW269250   4.307   8.510   0.640 -0.0317 -1.3988 -0.7506
19091SOL     OW69251   8.182   5.392   2.426 -0.7398 -0.4080 -0.5525
19091SOL    HW169252   8.160   5.472   2.474 -0.8389 -0.0786 -1.1423
19091SOL    HW269253   8.276   5.399   2.411 -0.3372 -1.4043  1.2101
19092SOL     OW69254   8.315  13.916  13.813  0.4173 -0.7684  0.1912
19092SOL    HW169255   8.382  13.857  13.779  0.9985 -0.3757  0.6273
19092SOL    HW269256   8.244  13.911  13.749  0.1679 -2.4274  0.5414
19093SOL     OW69257   1.977  13.407   9.406  0.4695 -0.1176 -1.3009
19093SOL    HW169258   2.063  13.371   9.423 -0.0638 -1.5549 -1.5048
19093SOL    HW269259   1.930  13.336   9.362 -0.2818  1.2056 -2.7143
19094SOL     OW69260  10.690  10.321   3.539  0.1035  0.4259  0.2950
19094SOL    HW169261  10.681  10.345   3.446  0.9106 -0.2585  0.0269
19094SOL    HW269262  10.627  10.250   3.551  1.3779 -0.8304 -0.2495
19095SOL     OW69263   3.963  12.131   2.973 -0.5875  0.3614  0.1065
19095SOL    HW169264   3.962  12.050   3.025 -0.9905  0.6241  0.5137
19095SOL    HW269265   3.918  12.107   2.892 -1.7138  0.4656  0.6809
19096SOL     OW69266   0.954   0.778   8.559  0.2599  0.0249  0.1733
19096SOL    HW169267   0.870   0.758   8.600 -0.5452  2.8343  0.0977
19096SOL    HW269268   1.010   0.805   8.632  0.9182 -1.1601  0.1333
19097SOL     OW69269   1.974   6.452   3.558 -0.6000 -0.0733 -0.2877
19097SOL    HW169270   2.058   6.458   3.513 -1.2935 -2.5940 -2.1358
19097SOL    HW269271   1.913   6.500   3.502 -0.6020  1.1030  0.6636
19098SOL     OW69272   3.163   3.063   2.137 -0.2288  0.2470  0.1768
19098SOL    HW169273   3.236   3.005   2.157 -0.7341  0.1720  1.9258
19098SOL    HW269274   3.155   3.058   2.041  1.7308 -0.0928 -0.0203
19099SOL     OW69275  12.045   5.483   5.148  0.7691  0.0030 -0.2482
19099SOL    HW169276  12.063   5.405   5.200 -1.5653 -0.3587  0.0953
19099SOL    HW269277  12.031   5.553   5.212 -2.1262 -0.4465 -0.2931
19100SOL     OW69278   8.442   2.387   1.777 -0.4486 -0.1644 -0.2502
19100SOL    HW169279   8.506   2.380   1.706 -2.2519  0.2901 -2.0025
19100SOL    HW269280   8.432   2.297   1.809 -2.1375 -1.0556 -2.9816
19101SOL     OW69281   0.470   7.443  13.608 -0.0597  0.3074  0.4078
19101SOL    HW169282   0.465   7.483  13.695  0.5391  0.5754  0.3239
19101SOL    HW269283   0.563   7.423  13.596 -0.4299 -1.8160  0.7481
19102SOL     OW69284   3.473   6.319   4.831  0.5765  0.7785 -0.1145
19102SOL    HW169285   3.475   6.413   4.852  1.5837  0.2812  2.4222
19102SOL    HW269286   3.527   6.279   4.899 -1.9306 -1.9251  0.4519
19103SOL     OW69287   8.201   1.971  12.872  0.4013 -0.7885 -0.0346
19103SOL    HW169288   8.268   1.954  12.806 -2.2470 -0.0907 -3.1629
19103SOL    HW269289   8.126   1.918  12.845 -1.5576  1.2257  1.0730
19104SOL     OW69290  10.883  10.498   8.335 -0.1778 -0.5849 -0.3444
19104SOL    HW169291  10.797  10.459   8.321  0.4874 -2.4243  0.4444
19104SOL    HW269292  10.913  10.463   8.418  1.4778 -0.2291 -0.7423
19105SOL     OW69293  10.404   7.788   9.697  0.1562  0.0859  0.0059
19105SOL    HW169294  10.314   7.755   9.699 -0.1404  0.8522 -0.3771
19105SOL    HW269295  10.417   7.816   9.606  0.2185  1.4790  0.4198
19106SOL     OW69296  13.886  12.084  12.892 -0.0139 -0.0273 -0.1086
19106SOL    HW169297  13.823  12.152  12.915  1.0311  0.6328  0.9270
19106SOL    HW269298  13.967  12.132  12.873  0.3388 -0.8889 -0.8639
19107SOL     OW69299   2.485   2.120  10.614 -0.1320 -0.7192  0.1855
19107SOL    HW169300   2.571   2.089  10.644 -0.7999 -2.9325 -0.0300
19107SOL    HW269301   2.450   2.168  10.689  1.6283  1.0677 -0.0355
19108SOL     OW69302   2.358   5.010  10.597 -0.1797  0.5643  0.8561
19108SOL    HW169303   2.382   5.096  10.564 -0.3349 -0.0653 -0.9836
19108SOL    HW269304   2.371   4.951  10.523 -3.9946 -0.3958  0.7438
19109SOL     OW69305   4.383   3.147   2.954 -0.4103 -0.3753  0.2278
19109SOL    HW169306   4.393   3.197   3.035 -0.0496  0.0175 -0.0587
19109SOL    HW269307   4.332   3.205   2.897  0.2991 -0.1930 -0.2247
19110SOL     OW69308   4.768  10.270  10.967 -0.3295  0.1337 -0.0146
19110SOL    HW169309   4.736  10.345  10.917  0.3743  0.4308 -0.0384
19110SOL    HW269310   4.851  10.300  11.004  0.4631 -0.9680 -0.8407
19111SOL     OW69311  11.161  11.147   5.158  0.3470  0.2936 -0.2995
19111SOL    HW169312  11.163  11.238   5.128 -0.0761  0.5866  0.5161
19111SOL    HW269313  11.228  11.143   5.226 -0.7124  0.4265  0.7858
19112SOL     OW69314  12.800   3.750  12.734  0.2460  0.5086  0.2597
19112SOL    HW169315  12.765   3.838  12.750  3.2743  1.8295  0.5017
19112SOL    HW269316  12.895   3.761  12.744  0.8423 -2.5294 -1.0554
19113SOL     OW69317   2.836   8.395  11.360  0.3326 -0.6369 -0.0740
19113SOL    HW169318   2.890   8.426  11.287 -0.3718  0.0531 -0.3140
19113SOL    HW269319   2.889   8.413  11.437 -0.0714  1.3404 -0.1850
19114SOL     OW69320   5.789   4.610   4.641 -0.0175 -0.3088  0.0712
19114SOL    HW169321   5.713   4.557   4.619 -0.2220 -0.0402  0.1324
19114SOL    HW269322   5.857   4.580   4.581 -0.1474 -0.6038  0.0690
19115SOL     OW69323   3.568   8.276  11.586  0.6244  0.4391 -0.4368
19115SOL    HW169324   3.569   8.347  11.651 -1.3562  0.7562 -0.6720
19115SOL    HW269325   3.578   8.321  11.502  1.6158  0.1917 -0.4557
19116SOL     OW69326   0.802  11.273  11.906  0.3165  0.4838 -0.1643
19116SOL    HW169327   0.727  11.270  11.967  0.1156 -0.7154 -0.4372
19116SOL    HW269328   0.788  11.352  11.854 -0.3340  0.7005  0.3242
19117SOL     OW69329  12.927   6.677   5.544  0.1259 -0.1794 -0.2435
19117SOL    HW169330  12.925   6.750   5.482 -2.8769 -0.7000 -0.9128
19117SOL    HW269331  12.948   6.600   5.491  0.0347 -0.2623 -0.1626
19118SOL     OW69332  11.540   3.464   1.729  0.0195 -0.2168 -0.3937
19118SOL    HW169333  11.586   3.548   1.729  0.6201 -0.3957  3.0743
19118SOL    HW269334  11.452   3.485   1.762  0.5236 -1.0071  1.6016
19119SOL     OW69335   3.364  11.448   3.818  0.0862 -0.4810  0.3886
19119SOL    HW169336   3.300  11.450   3.747 -0.9124  2.1269  1.2439
19119SOL    HW269337   3.449  11.439   3.773 -0.4412  1.8382 -1.2811
19120SOL     OW69338   3.793  10.068   1.850 -0.5857 -0.1706  0.1100
19120SOL    HW169339   3.866  10.111   1.895  1.2351 -0.2939 -2.5094
19120SOL    HW269340   3.715  10.107   1.889  0.9041  1.9663  1.1506
19121SOL     OW69341  13.423  12.202   9.682  0.3071 -0.1635 -0.2035
19121SOL    HW169342  13.376  12.119   9.686  0.4561 -0.2369  0.1080
19121SOL    HW269343  13.373  12.261   9.739 -0.8430  0.5167 -1.8361
19122SOL     OW69344   0.654  10.144  12.798  0.4135  0.1052 -0.5092
19122SOL    HW169345   0.617  10.057  12.779 -1.9275  1.3807 -2.3176
19122SOL    HW269346   0.681  10.138  12.890 -0.7555 -2.1822 -0.2228
19123SOL     OW69347  13.599   8.728   3.888  0.3405  0.5328  0.0537
19123SOL    HW169348  13.577   8.664   3.821  0.5274  0.6273 -0.0980
19123SOL    HW269349  13.583   8.813   3.847  1.7273  0.6224 -0.3197
19124SOL     OW69350   6.268   3.663   7.975 -0.2133 -0.2467  0.5132
19124SOL    HW169351   6.356   3.683   8.007  0.2953 -1.5832  0.0502
19124SOL    HW269352   6.220   3.745   7.981  0.7614  0.2559  1.7809
19125SOL     OW69353   7.847   7.922  13.562  0.7428  0.0090 -0.2238
19125SOL    HW169354   7.918   7.985  13.572 -1.0353  2.2425 -0.8141
19125SOL    HW269355   7.769   7.976  13.549 -1.2043 -2.2922  1.0322
19126SOL     OW69356  13.167   4.604   5.442  0.0248  0.0501 -1.3524
19126SOL    HW169357  13.202   4.625   5.356 -1.4811  1.5965 -1.6570
19126SOL    HW269358  13.072   4.616   5.433 -0.3991 -1.8053 -0.0095
19127SOL     OW69359   7.907  10.517  10.278  0.2380  0.2233  0.3596
19127SOL    HW169360   7.906  10.426  10.309 -0.9841  0.5299  1.2727
19127SOL    HW269361   7.955  10.565  10.345  0.9373  0.2556 -0.1537
19128SOL     OW69362   3.365   1.001   9.378 -0.1559 -0.2095  0.5802
19128SOL    HW169363   3.361   0.920   9.429 -0.9492  0.6140  1.8904
19128SOL    HW269364   3.276   1.013   9.346  0.4042 -0.8935 -1.3582
19129SOL     OW69365  12.742   4.001   1.004 -0.8709  0.0560  0.3450
19129SOL    HW169366  12.819   4.037   0.960 -0.4182 -2.8821 -1.4811
19129SOL    HW269367  12.690   4.078   1.027  1.3884  1.9981 -0.6552
19130SOL     OW69368  11.691  13.111   2.671  0.3490  0.3449  0.4114
19130SOL    HW169369  11.701  13.029   2.717 -0.7201  1.4526  2.7842
19130SOL    HW269370  11.617  13.154   2.714  0.7535  2.4688 -0.8579
19131SOL     OW69371   2.022   7.157   0.624 -0.1409 -0.2623 -0.0128
19131SOL    HW169372   2.002   7.078   0.674 -2.7321 -0.5157 -1.2943
19131SOL    HW269373   2.076   7.127   0.551 -0.9177 -0.8409 -0.3627
19132SOL     OW69374  13.284  13.829   0.949 -0.6178 -0.3062  0.2654
19132SOL    HW169375  13.367  13.814   0.905 -0.1697  0.0283  0.9864
19132SOL    HW269376  13.274  13.756   1.009 -0.9300 -0.4360  0.0601
19133SOL     OW69377   6.214   6.045  12.440  0.3605  0.4095  0.5589
19133SOL    HW169378   6.197   6.118  12.381 -1.5798  0.0046  0.5654
19133SOL    HW269379   6.162   6.064  12.518  0.7348 -0.4231  1.0298
19134SOL     OW69380   7.428   0.078   3.965  0.0989  0.6380  0.1138
19134SOL    HW169381   7.339   0.049   3.986  0.0584 -0.3695 -1.2668
19134SOL    HW269382   7.435   0.165   4.003 -1.5163  0.7676  0.1860
19135SOL     OW69383   3.871   0.919   4.793 -0.1526 -0.1332 -0.0004
19135SOL    HW169384   3.965   0.925   4.781 -0.1112  1.1000  0.6978
19135SOL    HW269385   3.847   1.003   4.834 -1.4691 -0.6284  0.2985
19136SOL     OW69386   1.012  11.009   3.111  1.0104  0.3919 -0.2374
19136SOL    HW169387   1.082  11.022   3.048 -0.5584  1.2267 -1.8629
19136SOL    HW269388   0.987  11.097   3.139  1.1960  0.0629  1.0267
19137SOL     OW69389   1.844   4.318  10.733  0.6274  0.4088  0.5797
19137SOL    HW169390   1.868   4.226  10.739  1.2535  0.6185  1.4782
19137SOL    HW269391   1.906   4.355  10.670 -0.3205  0.0143 -0.6336
19138SOL     OW69392   6.291  12.988   3.658 -0.0201 -0.1267 -0.3051
19138SOL    HW169393   6.233  12.912   3.668  1.5318 -1.4093 -0.6329
19138SOL    HW269394   6.352  12.962   3.589  1.2079  1.0094  0.3218
19139SOL     OW69395   4.998  12.197   7.700  0.1836  0.0681 -0.1964
19139SOL    HW169396   5.057  12.222   7.771  2.0363 -1.2951 -1.1700
19139SOL    HW269397   4.992  12.102   7.705  0.9557 -0.1443 -2.2639
19140SOL     OW69398   3.520   2.741   6.534  0.1606 -0.1349 -0.0813
19140SOL    HW169399   3.497   2.830   6.559 -1.8001 -0.4604 -0.5359
19140SOL    HW269400   3.487   2.687   6.606  2.4870 -0.4598  0.8333
19141SOL     OW69401   9.156  13.812   0.732  0.0921  0.0574  0.4409
19141SOL    HW169402   9.069  13.792   0.766  0.4484  1.3683  2.2878
19141SOL    HW269403   9.217  13.780   0.798  1.1286 -1.6829 -1.2469
19142SOL     OW69404   5.623   3.272   0.684 -0.3040  0.4665  0.0909
19142SOL    HW169405   5.672   3.200   0.644  0.5394  0.0902  1.7029
19142SOL    HW269406   5.672   3.351   0.659 -1.1920  0.5327 -1.6220
19143SOL     OW69407  11.142  13.938   4.762 -0.5748  0.1388 -0.3091
19143SOL    HW169408  11.084  14.007   4.797 -0.6245 -0.3368  0.5647
19143SOL    HW269409  11.216  13.986   4.726 -0.2481  0.6301  0.9640
19144SOL     OW69410   7.467   2.728   1.847  0.6395 -0.3078  0.2773
19144SOL    HW169411   7.441   2.669   1.776 -0.7144 -0.7628  1.1185
19144SOL    HW269412   7.401   2.797   1.845  0.3949 -0.4984  1.2779
19145SOL     OW69413   2.975   4.264   1.273 -0.1976  0.5039  0.0939
19145SOL    HW169414   2.924   4.185   1.255 -0.1189  0.4362  0.1665
19145SOL    HW269415   2.947   4.327   1.206 -0.6857  0.6104  0.3916
19146SOL     OW69416   1.807   7.955   5.848 -0.2044  0.4925  0.0927
19146SOL    HW169417   1.787   7.888   5.783 -0.9283  0.4507  0.3540
19146SOL    HW269418   1.724   7.971   5.893  0.2751  0.5496  0.9794
19147SOL     OW69419  10.182   3.341   1.891  0.6140 -0.0282  0.1167
19147SOL    HW169420  10.173   3.333   1.986  2.1065  1.1881  0.4048
19147SOL    HW269421  10.093   3.335   1.857  0.0419 -0.2530  1.6084
19148SOL     OW69422   1.161  12.127   2.644 -0.2722  0.4255  0.1642
19148SOL    HW169423   1.096  12.120   2.714 -0.7871  1.2389 -0.2286
19148SOL    HW269424   1.152  12.046   2.595 -1.5847  0.8841 -0.3914
19149SOL     OW69425   0.798   0.175   7.591  0.4404  0.1525  0.0801
19149SOL    HW169426   0.788   0.234   7.665  0.0058 -0.1695  0.2839
19149SOL    HW269427   0.760   0.223   7.517 -0.0377  0.0750  0.2723
19150SOL     OW69428  12.741   4.514   6.905 -0.0362 -0.1836  0.0413
19150SOL    HW169429  12.698   4.434   6.874  1.2288 -0.9965  0.2865
19150SOL    HW269430  12.798   4.540   6.834 -1.3827  1.2943 -0.5620
19151SOL     OW69431   9.694   1.829  10.334  0.0707 -0.4648  0.1105
19151SOL    HW169432   9.601   1.849  10.342  0.5442  2.6014 -0.6944
19151SOL    HW269433   9.730   1.851  10.420 -0.0681 -3.0085  0.8926
19152SOL     OW69434   6.269  11.894   7.665 -0.3220  0.5016  0.5119
19152SOL    HW169435   6.206  11.922   7.598  1.0969  0.8232 -0.7297
19152SOL    HW269436   6.263  11.799   7.665 -0.1707  0.4868 -0.2501
19153SOL     OW69437   3.437  11.712   0.217  0.3723  0.3576  0.2013
19153SOL    HW169438   3.452  11.631   0.168  0.3406  0.6877 -0.3638
19153SOL    HW269439   3.347  11.736   0.198  0.7017  1.0979 -0.5153
19154SOL     OW69440   1.034  11.477   3.629 -1.0661 -0.1526 -0.5057
19154SOL    HW169441   0.988  11.560   3.636 -0.3516  0.3078 -1.1176
19154SOL    HW269442   0.999  11.436   3.550 -0.9777 -0.1501 -0.5468
19155SOL     OW69443   4.332   1.892  10.090 -0.0065  0.3431 -0.2966
19155SOL    HW169444   4.362   1.862  10.176  0.9578 -0.7395 -0.9882
19155SOL    HW269445   4.412   1.913  10.042 -0.3898 -1.1987 -1.6850
19156SOL     OW69446  10.709  12.474  12.704  0.4781 -0.1107  0.4578
19156SOL    HW169447  10.776  12.476  12.773 -0.8928 -1.7306  1.8998
19156SOL    HW269448  10.641  12.535  12.735  0.9358  1.0495 -0.7057
19157SOL     OW69449   7.005  12.172   0.673 -0.1580 -0.1685 -0.4281
19157SOL    HW169450   7.090  12.212   0.651  0.9055 -0.5422  2.5421
19157SOL    HW269451   7.022  12.078   0.672 -0.6456 -0.2596 -0.2415
19158SOL     OW69452   7.285   1.905  11.454 -0.2266 -0.0799 -0.3284
19158SOL    HW169453   7.260   1.818  11.487 -0.8050  0.5909  1.0658
19158SOL    HW269454   7.211   1.961  11.477  0.1194  0.7941 -1.2676
19159SOL     OW69455   5.044   6.322  13.283  0.3118  0.4785  0.6046
19159SOL    HW169456   4.976   6.257  13.303  0.4250 -0.3106 -1.3172
19159SOL    HW269457   5.051   6.374  13.362 -1.2643 -0.5571  1.4929
19160SOL     OW69458  10.293  10.661   0.669 -0.5315 -0.0927 -0.7073
19160SOL    HW169459  10.332  10.650   0.582 -2.2134  1.1444 -1.6747
19160SOL    HW269460  10.212  10.610   0.665 -0.3369 -0.4982  0.3552
19161SOL     OW69461   2.715   0.382   6.417  0.3439 -0.4226  0.2844
19161SOL    HW169462   2.807   0.408   6.413  0.1263  0.2718 -2.0179
19161SOL    HW269463   2.712   0.309   6.479  1.6744  2.3164  3.8685
19162SOL     OW69464   6.136   3.738  10.855  0.9036  0.7743  0.0841
19162SOL    HW169465   6.181   3.744  10.771  1.5315 -1.1915  0.2156
19162SOL    HW269466   6.071   3.669  10.842  1.7712 -0.3706  1.4931
19163SOL     OW69467   9.764   6.982   8.350 -0.7041  0.0508  0.2213
19163SOL    HW169468   9.741   6.926   8.276 -0.8093  0.5190 -0.0984
19163SOL    HW269469   9.860   6.982   8.350 -0.6865 -0.8244  0.7529
19164SOL     OW69470   7.944  13.616   6.166  0.2686  0.0754 -0.0049
19164SOL    HW169471   7.907  13.633   6.252 -0.8221 -0.0557 -0.4403
19164SOL    HW269472   7.953  13.521   6.161 -0.3398  0.0283 -0.2988
19165SOL     OW69473  11.268   6.931   1.735  0.1509 -0.5722  0.2218
19165SOL    HW169474  11.316   6.881   1.801  2.0797 -0.4516 -1.0389
19165SOL    HW269475  11.306   6.905   1.652 -1.4559  0.1370 -0.7853
19166SOL     OW69476   9.180   3.191   8.576 -0.1497 -0.4965 -0.3260
19166SOL    HW169477   9.270   3.174   8.605 -0.1775  1.0512  0.8188
19166SOL    HW269478   9.189   3.219   8.485  0.5561 -0.1891 -0.1696
19167SOL     OW69479  10.406   3.053  12.787 -0.1569 -0.0181 -0.3036
19167SOL    HW169480  10.364   3.027  12.869 -1.0299 -0.1520 -0.7773
19167SOL    HW269481  10.335   3.052  12.723  0.6961 -0.8470 -1.2577
19168SOL     OW69482  10.100   1.891  10.520  0.4619 -0.9790 -0.4840
19168SOL    HW169483  10.082   1.874  10.428 -0.7211  0.9070 -0.6640
19168SOL    HW269484  10.102   1.987  10.526 -2.4160 -0.9096  1.9009
19169SOL     OW69485   4.886   7.076  11.468 -0.1495  0.5915  0.3089
19169SOL    HW169486   4.921   7.001  11.419 -1.6876  1.3923 -2.2369
19169SOL    HW269487   4.956   7.141  11.464  0.5962 -0.1369  1.1617
19170SOL     OW69488   9.079   2.956   6.622  0.1557  0.1772  0.0105
19170SOL    HW169489   9.041   2.986   6.539  0.3538  0.8281  0.1503
19170SOL    HW269490   9.163   3.001   6.627 -0.0942  0.5726  0.8239
19171SOL     OW69491   3.917   9.001   8.509  0.4260  0.3638 -0.1430
19171SOL    HW169492   3.888   9.025   8.597 -1.8089 -0.9153 -0.4700
19171SOL    HW269493   3.968   8.921   8.521  1.0779  0.8113  0.0953
19172SOL     OW69494   9.953  13.110   4.930 -0.3728  0.0540  0.0374
19172SOL    HW169495  10.044  13.114   4.960  0.0622 -0.6466 -1.0962
19172SOL    HW269496   9.932  13.016   4.931 -1.7090  0.3303  2.0059
19173SOL     OW69497  13.837   3.242  10.044  0.3702  0.4638 -0.4299
19173SOL    HW169498  13.765   3.184  10.068  0.3810  0.5079 -0.2908
19173SOL    HW269499  13.834   3.312  10.108  1.4952 -0.3344  0.5303
19174SOL     OW69500  10.408   7.265   1.344  0.3961 -0.3624 -0.4006
19174SOL    HW169501  10.460   7.345   1.336 -1.4600  0.8410 -1.1344
19174SOL    HW269502  10.370   7.270   1.432 -0.1698 -0.1433 -0.6560
19175SOL     OW69503   7.453   8.777   3.335 -0.6850  0.1022 -0.4229
19175SOL    HW169504   7.510   8.744   3.404 -0.1413  2.5766  0.4040
19175SOL    HW269505   7.432   8.700   3.282 -0.3310 -1.6952  1.9132
19176SOL     OW69506  13.979   5.556   1.146  0.0824 -0.9465 -0.0191
19176SOL    HW169507  13.993   5.568   1.240 -1.2524  1.9626 -0.0777
19176SOL    HW269508  13.889   5.523   1.138 -0.4622  0.5337 -0.2860
19177SOL     OW69509   5.743   9.426   5.963 -0.4696  0.9409  0.2036
19177SOL    HW169510   5.826   9.442   5.919  0.0588  1.6615  1.4214
19177SOL    HW269511   5.741   9.489   6.035 -0.5350 -1.2504  2.2490
19178SOL     OW69512   2.512   3.437   9.416 -0.2814  0.5263  0.3883
19178SOL    HW169513   2.539   3.529   9.422 -0.3960  0.5826  0.0514
19178SOL    HW269514   2.426   3.440   9.375 -0.3996  0.2836  0.6191
19179SOL     OW69515  10.048  12.100   0.988  0.1821 -0.8009 -0.5590
19179SOL    HW169516  10.034  12.191   0.962  0.5974 -0.1068  1.4383
19179SOL    HW269517  10.087  12.059   0.911 -1.0392  0.3915 -1.8927
19180SOL     OW69518   0.534   6.007  12.005 -0.0958  0.2390 -0.5382
19180SOL    HW169519   0.453   5.968  12.040 -1.2748  2.7498 -0.1987
19180SOL    HW269520   0.503   6.079  11.950  1.9234  1.1905 -0.4973
19181SOL     OW69521   1.236   6.127   4.636 -0.0185  0.1787 -0.4455
19181SOL    HW169522   1.176   6.058   4.664  0.8714  0.0049  1.1520
19181SOL    HW269523   1.243   6.115   4.541  0.6818 -2.4286 -0.1617
19182SOL     OW69524   9.125   8.170   2.658 -0.0237 -0.2643  0.6989
19182SOL    HW169525   9.147   8.082   2.628 -1.0165 -0.6763  1.1161
19182SOL    HW269526   9.048   8.195   2.606  1.3589  1.1583 -0.7786
19183SOL     OW69527   9.164   9.902  12.623  0.5698  0.6214 -0.4620
19183SOL    HW169528   9.087   9.937  12.667  1.4456  3.1966 -0.7977
19183SOL    HW269529   9.231   9.899  12.691  0.7607  0.4697 -0.6559
19184SOL     OW69530   1.593   1.695   0.052  0.1432 -0.0583 -0.1322
19184SOL    HW169531   1.549   1.626   0.003 -0.8264 -0.7596  1.6146
19184SOL    HW269532   1.524   1.731   0.109  1.0792  1.0493  0.3434
19185SOL     OW69533  10.678   0.758   6.143 -0.0192 -0.3661  0.1288
19185SOL    HW169534  10.664   0.669   6.174 -0.0112 -0.8692 -1.2427
19185SOL    HW269535  10.706   0.748   6.052  0.6637  1.0103  0.1558
19186SOL     OW69536   0.616  10.062   0.975 -0.1047  0.4739 -0.1063
19186SOL    HW169537   0.549  10.048   1.043  0.1970  0.2740  0.1520
19186SOL    HW269538   0.657  10.146   0.999 -1.1170  1.2490 -0.9875
19187SOL     OW69539   6.314  13.912   5.524  0.5557 -0.1404  0.1366
19187SOL    HW169540   6.222  13.911   5.499  0.2515 -2.2972  1.1002
19187SOL    HW269541   6.343  14.001   5.504 -1.0899 -0.0535 -2.3643
19188SOL     OW69542   3.025  12.539   7.807  0.0417 -0.2786 -0.2530
19188SOL    HW169543   3.045  12.464   7.863 -0.2800  0.3480  0.7254
19188SOL    HW269544   3.071  12.612   7.848  0.2566  0.0965 -1.1341
19189SOL     OW69545   3.371   4.967  13.062 -0.0747  0.2791 -0.5129
19189SOL    HW169546   3.389   4.898  13.126 -1.3005  2.2901  2.2062
19189SOL    HW269547   3.425   5.041  13.091 -0.0628  1.0354 -2.3269
19190SOL     OW69548   5.144  12.116  12.590  0.3080  0.3011  0.6767
19190SOL    HW169549   5.102  12.039  12.629 -0.1838  0.4874  0.5225
19190SOL    HW269550   5.121  12.188  12.650 -1.6104  0.8550 -0.6560
19191SOL     OW69551   4.521   3.163   9.720  0.2801  0.2538 -0.0402
19191SOL    HW169552   4.498   3.256   9.727 -0.5390  0.0209  0.6162
19191SOL    HW269553   4.500   3.127   9.806  1.4362 -0.3715 -0.0085
19192SOL     OW69554   5.816  10.107   0.455  0.5048 -0.4187 -0.1847
19192SOL    HW169555   5.777  10.022   0.475  1.1307 -0.5914  0.3422
19192SOL    HW269556   5.873  10.125   0.530  0.4768  0.4014 -0.3609
19193SOL     OW69557   8.555  11.867   9.268 -0.0650 -0.1144  0.7624
19193SOL    HW169558   8.598  11.899   9.348 -0.6856  2.0156  0.2938
19193SOL    HW269559   8.619  11.882   9.199  0.0275 -0.8667  0.6834
19194SOL     OW69560  10.101  10.100   3.130 -0.5861 -0.0585  0.2081
19194SOL    HW169561  10.139  10.013   3.142 -1.4871 -0.6021 -0.7432
19194SOL    HW269562  10.045  10.092   3.053 -1.3660  1.1366  0.6158
19195SOL     OW69563   6.933   4.584   7.158 -0.3802  0.4472  0.5674
19195SOL    HW169564   7.003   4.648   7.164  0.9498 -0.6712 -1.6763
19195SOL    HW269565   6.860   4.631   7.117 -0.7159  1.3864  2.1450
19196SOL     OW69566   0.319   0.739   9.978  0.4677  0.5749 -0.1038
19196SOL    HW169567   0.306   0.834   9.968  0.2794  0.6797  1.0224
19196SOL    HW269568   0.230   0.704   9.985  0.5602  0.4057  0.2176
19197SOL     OW69569   7.693   4.454  11.626 -0.3986  0.4996 -0.2250
19197SOL    HW169570   7.672   4.381  11.568 -1.5577  0.4658  0.2199
19197SOL    HW269571   7.613   4.469  11.676  0.6624  0.3441  1.5712
19198SOL     OW69572  13.075   5.626   0.886 -0.2732  0.2036  0.3948
19198SOL    HW169573  13.089   5.683   0.961  1.1437  0.6120 -0.1484
19198SOL    HW269574  13.061   5.686   0.813  0.7660 -0.1298 -0.0949
19199SOL     OW69575   6.836   8.529   9.307 -0.6546  0.1766 -0.1000
19199SOL    HW169576   6.774   8.466   9.271  0.0593  0.0201 -1.1112
19199SOL    HW269577   6.893   8.478   9.363 -0.9009  0.1718  0.1507
19200SOL     OW69578   7.450  10.362   5.246  0.1344 -0.0429  0.0898
19200SOL    HW169579   7.496  10.336   5.167  0.9114 -0.9708  0.8233
19200SOL    HW269580   7.502  10.325   5.317 -1.9987 -1.5599  0.9556
19201SOL     OW69581   9.320   4.670   5.635  0.0165 -0.5820  0.3116
19201SOL    HW169582   9.364   4.668   5.551  0.9218  1.3944  0.6764
19201SOL    HW269583   9.229   4.648   5.616 -0.2311  1.6837 -1.5291
19202SOL     OW69584   4.566   5.039  11.079  0.0133 -0.3635 -0.0525
19202SOL    HW169585   4.626   4.976  11.118  0.6245  0.4425  0.3396
19202SOL    HW269586   4.582   5.032  10.985 -1.4118 -2.2578 -0.2108
19203SOL     OW69587   8.106   5.971   0.299 -0.2479  0.1364 -0.2483
19203SOL    HW169588   8.105   6.049   0.243 -1.3732 -0.9833 -1.8690
19203SOL    HW269589   8.031   5.982   0.357  2.4320  2.6525  3.2183
19204SOL     OW69590   5.883  12.370   6.423  0.0475 -0.2610 -0.1057
19204SOL    HW169591   5.810  12.432   6.419 -0.8846 -1.0105  2.6965
19204SOL    HW269592   5.847  12.288   6.389 -0.7778 -0.8406  1.9912
19205SOL     OW69593  10.855   7.322   3.376 -0.3224 -0.0892  0.4583
19205SOL    HW169594  10.911   7.382   3.327  0.7401 -0.9205  0.6179
19205SOL    HW269595  10.877   7.338   3.468 -2.1856  1.3481  0.7101
19206SOL     OW69596   4.527   2.642   9.730  0.2181  0.3421 -0.0832
19206SOL    HW169597   4.497   2.625   9.641 -0.8017 -2.4203  0.7118
19206SOL    HW269598   4.475   2.718   9.759 -0.2002  0.5915 -1.4547
19207SOL     OW69599   1.544   9.138   4.199  0.8428 -0.1430  0.5372
19207SOL    HW169600   1.510   9.052   4.223  3.1397 -1.1415  0.4770
19207SOL    HW269601   1.569   9.178   4.282 -1.0119  0.8905  0.6513
19208SOL     OW69602   9.584   4.861  12.700 -0.7944  0.2675  0.2681
19208SOL    HW169603   9.579   4.813  12.783 -0.9221 -0.5924 -0.2157
19208SOL    HW269604   9.647   4.811  12.648 -1.5387  0.1409 -0.5498
19209SOL     OW69605   4.274  12.385   7.569 -0.1254 -0.1445  0.0025
19209SOL    HW169606   4.328  12.431   7.634 -0.1466  0.1430 -0.1787
19209SOL    HW269607   4.305  12.418   7.485 -1.9604  1.6419 -0.0698
19210SOL     OW69608   6.333   4.817   1.447  0.3796 -0.2375  0.2556
19210SOL    HW169609   6.265   4.884   1.443  0.0061 -0.5738  0.8317
19210SOL    HW269610   6.384   4.840   1.525 -0.6564 -1.4647  1.3276
19211SOL     OW69611  13.672   4.808   2.833 -0.1457  0.0332  0.0955
19211SOL    HW169612  13.724   4.758   2.895 -0.2597 -0.0391  0.1343
19211SOL    HW269613  13.735   4.860   2.784  0.0585 -0.8212 -0.5617
19212SOL     OW69614  13.207  11.916   8.974 -0.6610 -0.5823  0.0441
19212SOL    HW169615  13.146  11.990   8.978  0.3870  0.3274 -0.3113
19212SOL    HW269616  13.159  11.843   9.016 -1.3732  0.5166  1.2246
19213SOL     OW69617   9.190   3.347   1.349  0.0075  0.0122 -0.4361
19213SOL    HW169618   9.110   3.389   1.319  0.4224 -0.4286 -2.2664
19213SOL    HW269619   9.161   3.263   1.385 -0.4893  0.5302  0.4190
19214SOL     OW69620   6.442   7.382   0.293  0.0421 -0.3151 -0.1061
19214SOL    HW169621   6.379   7.411   0.359 -1.1930 -0.2241 -1.2892
19214SOL    HW269622   6.516   7.442   0.302 -1.2688  1.4370 -0.6080
19215SOL     OW69623   2.728   0.447  13.464 -0.5747  0.3990  0.1015
19215SOL    HW169624   2.801   0.506  13.449 -0.1182 -0.3086 -0.5738
19215SOL    HW269625   2.652   0.504  13.474 -0.3779  1.0817 -1.8863
19216SOL     OW69626   3.794   3.201   7.113 -0.2127 -0.5153  0.2959
19216SOL    HW169627   3.765   3.203   7.205  1.3980  0.6800  0.8268
19216SOL    HW269628   3.743   3.270   7.071  0.0673 -0.0808  0.6504
19217SOL     OW69629  11.032   1.449   4.771  0.4232 -0.0626 -0.0511
19217SOL    HW169630  10.990   1.466   4.856 -0.0268  1.7724 -0.6026
19217SOL    HW269631  11.113   1.403   4.793  0.0321 -0.1420  1.3223
19218SOL     OW69632  13.887  10.351   3.671 -0.0487  0.0454  0.2399
19218SOL    HW169633  13.893  10.261   3.702  1.2128  0.1750  0.4217
19218SOL    HW269634  13.953  10.398   3.722  0.0885  0.8425 -0.6512
19219SOL     OW69635   9.219   4.458   7.987  0.0739 -0.2218  0.0317
19219SOL    HW169636   9.269   4.434   7.909 -0.8475 -0.3830 -0.5222
19219SOL    HW269637   9.128   4.457   7.959 -0.2065  0.7757  0.8423
19220SOL     OW69638   5.985  10.077   9.266 -0.0844 -0.5058  0.4935
19220SOL    HW169639   5.937  10.155   9.292 -1.6242 -1.3905  0.4021
19220SOL    HW269640   6.063  10.077   9.323 -0.6931  0.4136  1.3638
19221SOL     OW69641   6.382   5.961   7.743  0.5689 -0.1590 -0.0388
19221SOL    HW169642   6.324   5.986   7.671  0.1491  0.3679  0.4793
19221SOL    HW269643   6.469   5.989   7.715  0.2960  0.7070 -0.0291
19222SOL     OW69644  11.120   7.532  10.923  0.0342  0.3660  0.1487
19222SOL    HW169645  11.073   7.470  10.868 -0.2052  0.5971  0.0889
19222SOL    HW269646  11.180   7.478  10.975  1.5830  0.2869 -1.6152
19223SOL     OW69647   6.213  11.846   5.858 -0.2269  0.3458 -0.5973
19223SOL    HW169648   6.288  11.902   5.838  0.4044 -0.5081 -0.6433
19223SOL    HW269649   6.160  11.899   5.919 -0.1826  1.3980 -1.4466
19224SOL     OW69650   9.199   2.491   3.018 -0.0322 -0.3017  0.2461
19224SOL    HW169651   9.208   2.490   2.923 -2.5967 -1.3606 -0.0698
19224SOL    HW269652   9.277   2.445   3.050 -0.0492 -1.6006 -1.4588
19225SOL     OW69653   2.129   0.486   5.811  0.1286 -0.2149 -0.0023
19225SOL    HW169654   2.039   0.456   5.827  0.2389  0.9163  3.7135
19225SOL    HW269655   2.184   0.417   5.848  0.7279 -0.0821 -0.6360
19226SOL     OW69656   3.414   0.438   6.994  0.1514 -0.2858 -0.1666
19226SOL    HW169657   3.496   0.399   6.964 -0.4192  0.3877 -2.8744
19226SOL    HW269658   3.416   0.528   6.962 -1.1357  0.0906  0.7177
19227SOL     OW69659   8.940  10.279   7.974 -0.3855 -0.5276 -0.6457
19227SOL    HW169660   9.028  10.251   7.948 -0.7731 -1.5448 -0.9318
19227SOL    HW269661   8.890  10.277   7.892 -0.6336  0.2171 -0.5145
19228SOL     OW69662   3.157   3.792   9.349  0.2117  0.3743  0.8563
19228SOL    HW169663   3.094   3.864   9.342  0.1587  0.2795  0.3039
19228SOL    HW269664   3.198   3.788   9.263 -1.8167 -2.1210 -0.1387
19229SOL     OW69665   2.085   9.931  13.895 -0.3530 -0.3944  0.0209
19229SOL    HW169666   2.161   9.930  13.836 -0.9522 -1.3290 -0.7685
19229SOL    HW269667   2.103   9.863  13.959 -0.9246 -1.2707 -0.7235
19230SOL     OW69668   3.972   1.542   0.545  0.0788 -0.4349 -0.2256
19230SOL    HW169669   4.020   1.603   0.489 -0.6085 -1.5311 -2.0735
19230SOL    HW269670   3.998   1.567   0.634  1.5564  1.0699 -1.0138
19231SOL     OW69671  12.401   0.594   2.094 -0.0675  0.4268 -0.0958
19231SOL    HW169672  12.340   0.646   2.041  1.8991  0.9363 -1.9854
19231SOL    HW269673  12.381   0.504   2.070 -1.7334  0.3753  1.2449
19232SOL     OW69674   1.244   2.548   8.377 -0.2309  0.3934  0.3322
19232SOL    HW169675   1.256   2.641   8.354  0.2856  0.0708 -0.7467
19232SOL    HW269676   1.306   2.533   8.448  0.1272  0.7271  0.0950
19233SOL     OW69677  12.884   5.799  11.428 -0.4107  0.0875 -0.2253
19233SOL    HW169678  12.949   5.868  11.417 -0.5711  0.3793  0.6325
19233SOL    HW269679  12.934   5.718  11.419 -0.3697  0.2676 -2.1895
19234SOL     OW69680   9.471   1.790   7.124  0.1791 -0.3208  0.0506
19234SOL    HW169681   9.418   1.728   7.174 -0.4555 -1.0397 -1.4535
19234SOL    HW269682   9.515   1.843   7.191 -2.0244 -0.0088  1.3805
19235SOL     OW69683  12.422   2.430  12.200 -0.3956 -0.0254  0.2071
19235SOL    HW169684  12.428   2.404  12.109  0.0995 -0.1393  0.2677
19235SOL    HW269685  12.502   2.480  12.216 -1.9085  2.7684 -0.2852
19236SOL     OW69686   3.650  12.852   2.787 -0.5465 -0.3425  0.4542
19236SOL    HW169687   3.701  12.916   2.837 -0.6116  0.7541 -0.8109
19236SOL    HW269688   3.559  12.883   2.795 -0.6364 -0.5518  0.2442
19237SOL     OW69689   3.551   6.192   4.612  0.5627  0.4444  0.1991
19237SOL    HW169690   3.593   6.117   4.655  2.5344  1.7374  0.6807
19237SOL    HW269691   3.513   6.242   4.685 -2.0152 -0.7287 -0.2328
19238SOL     OW69692   6.477   1.357   8.770 -0.1621  0.1153  0.7785
19238SOL    HW169693   6.398   1.313   8.739 -0.7439  1.1464  0.7481
19238SOL    HW269694   6.549   1.316   8.721 -0.8843  0.5101 -0.6508
19239SOL     OW69695   3.421  12.433   3.179 -0.3821  0.5172 -0.3352
19239SOL    HW169696   3.383  12.479   3.254  1.4265 -2.2119  2.5248
19239SOL    HW269697   3.448  12.502   3.119 -0.6795  2.9728  2.1567
19240SOL     OW69698   3.285   4.589   9.343 -0.1678 -0.0673 -0.2632
19240SOL    HW169699   3.364   4.642   9.350  0.8764 -1.6099  0.0069
19240SOL    HW269700   3.241   4.601   9.427  1.0757 -1.1406  0.5761
19241SOL     OW69701   5.410   2.782  13.574 -0.2462 -0.1822  0.6836
19241SOL    HW169702   5.405   2.702  13.522 -2.1264  1.2883 -1.6356
19241SOL    HW269703   5.324   2.788  13.616  0.4203 -0.1259  2.0858
19242SOL     OW69704  12.710   1.436   5.052 -0.2561  0.2430  0.1297
19242SOL    HW169705  12.762   1.515   5.036 -0.9834  1.1840  2.0853
19242SOL    HW269706  12.687   1.441   5.144 -1.5250 -1.5654 -0.0391
19243SOL     OW69707   8.584  11.090   4.858 -0.2750  0.0260 -0.1669
19243SOL    HW169708   8.536  11.165   4.823 -1.4823 -0.8288 -0.4142
19243SOL    HW269709   8.600  11.112   4.949 -0.2323  0.7583 -0.3433
19244SOL     OW69710   3.929   6.978  13.163  0.1764 -0.4544 -0.3334
19244SOL    HW169711   3.979   7.056  13.138 -0.0990  1.1338  3.4362
19244SOL    HW269712   3.982   6.935  13.230 -1.6775 -0.9196  0.9174
19245SOL     OW69713   2.946   4.531  12.525 -0.7513 -0.3280 -0.3026
19245SOL    HW169714   2.972   4.606  12.579 -3.7111 -0.9090  2.2401
19245SOL    HW269715   2.946   4.457  12.586 -2.2260 -1.4792 -1.6123
19246SOL     OW69716  11.131   6.699   1.550  0.6620 -0.5067 -0.2143
19246SOL    HW169717  11.128   6.648   1.631 -0.6728  1.2651  0.9496
19246SOL    HW269718  11.209   6.753   1.558  0.1537  0.1770  0.2579
19247SOL     OW69719  11.051   3.627   9.895 -0.2724  0.2280  0.3438
19247SOL    HW169720  11.071   3.581   9.813  1.8744  1.1409  0.2991
19247SOL    HW269721  10.991   3.568   9.941 -1.0695 -0.5659 -1.6039
19248SOL     OW69722   9.082   8.602   8.566  0.1853  0.0512  1.1551
19248SOL    HW169723   9.097   8.526   8.622  1.6134  0.7077  1.6993
19248SOL    HW269724   9.155   8.602   8.504 -0.9670 -0.2352 -0.2593
19249SOL     OW69725  12.647  11.401   1.422 -0.0711 -0.2744 -0.3922
19249SOL    HW169726  12.692  11.349   1.489  0.7026 -0.1898 -0.8355
19249SOL    HW269727  12.641  11.342   1.347 -0.3311 -0.1415 -0.4754
19250SOL     OW69728   2.916   9.114   3.395 -0.3501 -0.2556  0.4533
19250SOL    HW169729   2.932   9.190   3.339  0.8562 -0.6917  0.1649
19250SOL    HW269730   2.938   9.144   3.483 -0.6806 -0.0299  0.4582
19251SOL     OW69731   0.486  11.861  13.503  0.6147  0.0076  0.4711
19251SOL    HW169732   0.472  11.766  13.495 -1.8622  0.2446  1.2450
19251SOL    HW269733   0.561  11.869  13.563 -0.2230 -1.4625  1.7792
19252SOL     OW69734  11.203  13.105   9.244  0.9012  0.1995  0.2052
19252SOL    HW169735  11.180  13.195   9.266  0.7942  0.7589 -1.9963
19252SOL    HW269736  11.126  13.072   9.197  1.4387 -0.6094 -0.1320
19253SOL     OW69737   2.118   3.458   3.017  0.0825  0.0984 -0.2724
19253SOL    HW169738   2.111   3.387   3.081  0.8330  0.3944  0.1475
19253SOL    HW269739   2.138   3.414   2.934 -0.6254 -0.2621 -0.2613
19254SOL     OW69740   5.860   5.147  12.258  0.2846  0.2391 -0.6817
19254SOL    HW169741   5.813   5.195  12.190  1.6197  1.1792 -0.9948
19254SOL    HW269742   5.939   5.199  12.272  0.8991 -0.9271  0.2930
19255SOL     OW69743   2.188   5.779   1.239  0.2731 -0.4715 -0.0784
19255SOL    HW169744   2.188   5.747   1.149  1.2386  0.7935 -0.5671
19255SOL    HW269745   2.271   5.827   1.247  0.0018 -0.1920  1.3576
19256SOL     OW69746   0.035  13.641   2.886  0.1288  0.5416  0.6514
19256SOL    HW169747   0.016  13.557   2.844 -0.0397  1.4033 -1.1344
19256SOL    HW269748   0.130  13.641   2.898 -0.0268 -0.4959  2.0913
19257SOL     OW69749   7.577   0.210   1.750 -0.0806 -0.4782 -0.1674
19257SOL    HW169750   7.497   0.196   1.701  0.0601 -1.3439 -0.1614
19257SOL    HW269751   7.596   0.126   1.792  0.5793 -0.1611  0.2034
19258SOL     OW69752   6.027  10.575   4.990 -0.7225  0.1641 -0.8216
19258SOL    HW169753   6.013  10.667   5.014  1.5609  0.8992 -1.9822
19258SOL    HW269754   5.946  10.549   4.947 -1.6036  1.4767 -0.0223
19259SOL     OW69755   0.612   1.705   7.598  0.0474 -0.2686 -0.2879
19259SOL    HW169756   0.671   1.662   7.537 -0.7766  0.1112 -1.3724
19259SOL    HW269757   0.670   1.747   7.662  0.9579  0.3103 -1.4743
19260SOL     OW69758  12.351   6.775   8.148  0.2155  0.0559 -0.3492
19260SOL    HW169759  12.262   6.809   8.160  0.1709  0.1964 -1.0352
19260SOL    HW269760  12.391   6.781   8.235 -0.7278 -0.8365  0.1679
19261SOL     OW69761  11.543   3.361  10.743  0.3328 -0.1171  0.0585
19261SOL    HW169762  11.450   3.342  10.733  0.0720  0.0063  1.9157
19261SOL    HW269763  11.548   3.417  10.820  1.8248  1.1449 -0.8901
19262SOL     OW69764   7.446  12.119   2.013 -0.4232 -0.0201 -0.4393
19262SOL    HW169765   7.405  12.035   2.030  0.4222 -0.4290 -0.3432
19262SOL    HW269766   7.489  12.141   2.096  3.1831 -1.7031 -1.6656
19263SOL     OW69767   0.434   9.311   1.580 -0.0935  0.3236 -0.8781
19263SOL    HW169768   0.378   9.234   1.569  1.0159 -0.6992  0.2853
19263SOL    HW269769   0.431   9.355   1.495 -0.2370 -1.3546 -1.7954
19264SOL     OW69770  13.851   3.600   0.649 -0.5631  0.2024 -0.5280
19264SOL    HW169771  13.839   3.644   0.733 -0.2930  2.1393 -1.4495
19264SOL    HW269772  13.944   3.611   0.629 -0.7116  0.1458 -1.2878
19265SOL     OW69773   0.335   6.219   6.102  0.6384  0.6989  0.8184
19265SOL    HW169774   0.425   6.189   6.092  0.2107 -0.1356 -0.8726
19265SOL    HW269775   0.341   6.314   6.099  1.4418  0.6435  0.3725
19266SOL     OW69776  10.526   4.001   7.395  0.4155 -0.1171 -0.7239
19266SOL    HW169777  10.595   4.022   7.332  0.6193  0.3172 -0.3553
19266SOL    HW269778  10.456   3.963   7.342 -0.1443  1.8418 -1.4931
19267SOL     OW69779   1.404   0.510   9.969 -0.9158 -0.0558  0.1914
19267SOL    HW169780   1.368   0.440   9.916 -0.5811  0.0120 -0.1248
19267SOL    HW269781   1.451   0.566   9.908 -2.0120  1.0112  0.2702
19268SOL     OW69782   6.279   1.273   6.407 -0.0289  0.1888 -0.0002
19268SOL    HW169783   6.368   1.298   6.431  0.0112  0.6983 -0.6394
19268SOL    HW269784   6.249   1.344   6.351 -0.2871 -0.7061 -1.0320
19269SOL     OW69785  13.137   0.492  11.567  0.0824 -0.0632  0.2848
19269SOL    HW169786  13.116   0.427  11.634 -2.4676 -1.3262 -1.5978
19269SOL    HW269787  13.199   0.447  11.509  0.6702  0.3049  0.6112
19270SOL     OW69788  12.068  11.644   2.610  0.2713  0.1004 -0.0950
19270SOL    HW169789  12.042  11.597   2.690 -1.8749  2.5304  0.7828
19270SOL    HW269790  12.128  11.711   2.641  0.9240 -0.1164 -0.8626
19271SOL     OW69791   5.670   2.487   8.809  0.5084 -0.0177  0.1012
19271SOL    HW169792   5.591   2.540   8.798  0.3779 -0.1344  0.4641
19271SOL    HW269793   5.692   2.495   8.902 -0.3701 -1.7986  0.5049
19272SOL     OW69794   0.284  13.562   3.422 -0.4385  0.3266 -0.3384
19272SOL    HW169795   0.378  13.579   3.434 -0.2997 -0.9128  0.4645
19272SOL    HW269796   0.248  13.647   3.395  0.7610  1.0287  0.1854
19273SOL     OW69797   9.821   5.457  11.218 -0.3392 -0.4296 -0.4557
19273SOL    HW169798   9.726   5.452  11.206 -0.1044 -1.9888 -2.1933
19273SOL    HW269799   9.844   5.376  11.263  0.1641  0.0236  0.1165
19274SOL     OW69800  13.284   9.741   1.486 -0.1765 -0.0210  0.0491
19274SOL    HW169801  13.226   9.735   1.411 -1.4334  2.2394  0.7506
19274SOL    HW269802  13.297   9.651   1.514  0.0474 -0.8987 -2.6230
19275SOL     OW69803   8.712  13.389   9.077  0.8529  0.2743 -0.0136
19275SOL    HW169804   8.758  13.450   9.135 -1.2501  2.3816 -0.4223
19275SOL    HW269805   8.635  13.362   9.127 -0.5961  1.5469 -1.4468
19276SOL     OW69806   1.041   0.359   8.379 -0.0841 -0.2225  0.0913
19276SOL    HW169807   1.069   0.367   8.288 -1.0043 -0.2652 -0.2107
19276SOL    HW269808   1.084   0.280   8.411  1.1446  0.4086  0.0507
19277SOL     OW69809   5.729   8.263   6.510  0.3223 -0.9485  0.5534
19277SOL    HW169810   5.801   8.213   6.547  1.6816  0.3186 -0.2371
19277SOL    HW269811   5.770   8.345   6.482 -0.8411 -1.2986 -2.5243
19278SOL     OW69812  12.794   1.221   6.661 -0.1627  0.8161 -0.0204
19278SOL    HW169813  12.881   1.203   6.697  0.0648 -0.5327 -1.1655
19278SOL    HW269814  12.802   1.204   6.568 -1.5784  1.0152 -0.2051
19279SOL     OW69815   3.892  10.925   7.031  0.5526 -0.3072  0.2859
19279SOL    HW169816   3.894  10.898   7.123  1.5514  1.4494  0.8295
19279SOL    HW269817   3.964  10.988   7.023 -0.3219  0.5502 -1.3794
19280SOL     OW69818  12.794  11.024   8.945  0.2689 -0.0461 -0.0216
19280SOL    HW169819  12.846  11.027   9.026 -0.2133  2.2407  0.2791
19280SOL    HW269820  12.722  10.964   8.964  0.7369 -0.3311  0.8785
19281SOL     OW69821   9.417   5.271  12.579  0.3118  0.4529 -0.3256
19281SOL    HW169822   9.367   5.348  12.552  0.6830  0.4765 -0.9732
19281SOL    HW269823   9.352   5.212  12.619 -0.4363  0.0575 -2.0330
19282SOL     OW69824   5.106   6.607   6.481 -0.5381  0.3969  0.0271
19282SOL    HW169825   5.174   6.604   6.415 -2.0963 -0.7706 -1.6271
19282SOL    HW269826   5.122   6.529   6.535 -1.9183 -1.3789 -1.9250
19283SOL     OW69827  10.404   7.785   0.913 -0.0520  0.4059 -0.3564
19283SOL    HW169828  10.438   7.842   0.981  0.5190 -0.9119  0.5004
19283SOL    HW269829  10.423   7.832   0.831  0.2927  1.4813  0.3178
19284SOL     OW69830   2.097   8.598   2.028  0.6313 -0.0324  0.1975
19284SOL    HW169831   2.053   8.516   2.007  1.1626 -0.2601 -0.0560
19284SOL    HW269832   2.068   8.660   1.960  1.1998 -0.3617 -0.3586
19285SOL     OW69833   4.443  13.732   5.257  0.0304  0.0595 -0.0100
19285SOL    HW169834   4.522  13.783   5.272  0.5106 -0.9959  1.3220
19285SOL    HW269835   4.374  13.779   5.304  0.3129 -0.0993  0.5763
19286SOL     OW69836  13.337  10.387  12.718  0.0601 -0.1730 -0.1171
19286SOL    HW169837  13.358  10.477  12.743  1.0000 -0.0622 -1.2359
19286SOL    HW269838  13.257  10.367  12.766  0.4868  0.8497  1.0582
19287SOL     OW69839   0.856   1.145  13.446  0.3039 -0.3482 -0.1548
19287SOL    HW169840   0.801   1.069  13.469  0.6257  0.0028  1.9732
19287SOL    HW269841   0.793   1.215  13.428 -0.0061 -1.0815 -2.3342
19288SOL     OW69842  12.027  10.850  10.528 -0.2123  0.5293 -0.3521
19288SOL    HW169843  12.120  10.871  10.523 -0.4262  1.5744 -0.2424
19288SOL    HW269844  11.993  10.871  10.441 -0.3942  0.3979 -0.3126
19289SOL     OW69845  11.989   1.538  12.715  0.0994 -0.1501  0.4339
19289SOL    HW169846  12.073   1.492  12.722 -0.1646 -0.5116  1.4092
19289SOL    HW269847  11.979   1.557  12.622  1.0121 -0.5782  0.2440
19290SOL     OW69848   2.697   8.502   7.803 -0.2066 -0.6095 -0.1217
19290SOL    HW169849   2.655   8.473   7.722  1.1174 -1.2687 -0.5952
19290SOL    HW269850   2.626   8.543   7.853 -0.8202  0.9249 -2.1140
19291SOL     OW69851   9.873  10.228  11.911  0.2167  0.5476  0.4221
19291SOL    HW169852   9.850  10.224  11.818  1.7550 -0.9319  0.0659
19291SOL    HW269853   9.884  10.321  11.929  1.5869  0.7643 -1.3251
19292SOL     OW69854  12.273  11.680  10.639  0.0421  0.0521  0.1926
19292SOL    HW169855  12.183  11.657  10.615  0.1084  0.3610 -0.3813
19292SOL    HW269856  12.327  11.637  10.573  0.3427 -0.4652  0.7743
19293SOL     OW69857   9.831   4.130   1.359 -0.6202 -0.0696  0.5718
19293SOL    HW169858   9.738   4.148   1.375 -0.5890 -0.9595  1.8692
19293SOL    HW269859   9.857   4.197   1.295 -1.8186  1.0343  1.1789
19294SOL     OW69860   9.142   8.877   5.690 -0.5108 -0.3021 -0.0283
19294SOL    HW169861   9.230   8.846   5.712  0.5998  2.7657  0.3152
19294SOL    HW269862   9.154   8.928   5.609 -1.6981  1.1909  0.6806
19295SOL     OW69863  10.967   6.632  12.776  0.2232 -0.2355  0.2941
19295SOL    HW169864  10.935   6.677  12.854 -0.6205  0.3795 -0.3941
19295SOL    HW269865  10.926   6.545  12.780  1.2141 -0.6780  1.1995
19296SOL     OW69866   3.342  12.403  10.718 -0.4539  0.1816  0.0255
19296SOL    HW169867   3.277  12.385  10.785  0.5776 -0.4379  0.8863
19296SOL    HW269868   3.413  12.448  10.765 -0.4494  1.2858 -0.9792
19297SOL     OW69869   3.298   3.533   8.874  0.2578 -0.5700 -0.1482
19297SOL    HW169870   3.373   3.591   8.858  0.2846  0.3052  2.6528
19297SOL    HW269871   3.257   3.568   8.953 -4.9207  0.8002 -2.9318
19298SOL     OW69872   1.760  12.303   3.598  0.6225 -0.0031 -0.5329
19298SOL    HW169873   1.845  12.258   3.596  0.8354  0.3285  0.4187
19298SOL    HW269874   1.729  12.291   3.688 -0.8168 -0.9681 -1.1350
19299SOL     OW69875   6.085  12.835   1.510 -0.4552 -0.5135 -0.0943
19299SOL    HW169876   5.998  12.864   1.538 -0.3863 -1.6030  1.3266
19299SOL    HW269877   6.139  12.844   1.588  0.3937 -1.1210 -0.5980
19300SOL     OW69878  13.089  12.908   4.536  0.1107 -0.1641 -0.0805
19300SOL    HW169879  13.184  12.909   4.544  0.1112 -0.4417 -0.0342
19300SOL    HW269880  13.070  12.827   4.488  0.0693  1.1147 -2.3593
19301SOL     OW69881   3.391   4.349   0.297 -0.0475 -0.5048 -0.3154
19301SOL    HW169882   3.402   4.339   0.202  0.2499  1.7360 -0.5848
19301SOL    HW269883   3.470   4.394   0.326 -1.2170  1.1536  0.5235
19302SOL     OW69884   3.971   8.774   2.217 -0.7779  0.3469 -0.1477
19302SOL    HW169885   3.963   8.828   2.138 -2.0645 -0.0666 -0.3194
19302SOL    HW269886   3.924   8.693   2.196  0.8299 -0.7230  0.2388
19303SOL     OW69887  10.193   8.460   5.677  0.2923  0.4571  0.3647
19303SOL    HW169888  10.275   8.439   5.632  0.5724  0.1379  0.9979
19303SOL    HW269889  10.219   8.523   5.744  0.2535 -0.5711  1.3741
19304SOL     OW69890   9.923  10.393   3.776 -0.2069  0.6375 -0.7035
19304SOL    HW169891   9.947  10.396   3.868  0.1829 -1.5086 -0.6825
19304SOL    HW269892   9.939  10.482   3.743  3.2390  0.5530  0.4203
19305SOL     OW69893   5.512   3.521   5.326 -0.0412 -0.0690 -0.0760
19305SOL    HW169894   5.536   3.526   5.418 -5.0510 -0.9521  1.5697
19305SOL    HW269895   5.504   3.613   5.298 -1.6089  0.2764  1.4055
19306SOL     OW69896   6.104   6.245   0.565  0.2112 -0.1503 -0.7023
19306SOL    HW169897   6.023   6.269   0.609 -1.1240 -0.6694 -2.7541
19306SOL    HW269898   6.077   6.187   0.494  2.2454  0.5613 -2.1584
19307SOL     OW69899   1.193   9.938   2.084  0.2294  0.2624 -0.0582
19307SOL    HW169900   1.118   9.997   2.085  1.4799  1.9633 -0.9634
19307SOL    HW269901   1.218   9.932   1.992 -0.1128 -2.0928 -0.0597
19308SOL     OW69902  10.959   0.809   0.684 -0.2260  0.0243 -0.6813
19308SOL    HW169903  10.929   0.737   0.628 -0.8570  0.1266 -0.4892
19308SOL    HW269904  10.971   0.769   0.770 -1.0026  0.2234 -0.4681
19309SOL     OW69905  11.194   6.607   0.536  0.0367 -0.0949 -0.2064
19309SOL    HW169906  11.271   6.575   0.582  0.5134  1.4883  0.1422
19309SOL    HW269907  11.185   6.549   0.460  1.0719 -0.7900  0.1891
19310SOL     OW69908   5.135   9.473  13.532  0.4855  0.3003 -0.3483
19310SOL    HW169909   5.040   9.463  13.527  0.1460 -0.4004  3.9272
19310SOL    HW269910   5.169   9.396  13.487 -1.0437 -0.6443  0.0309
19311SOL     OW69911   1.599   6.025   1.066 -0.2695  1.0182 -0.5769
19311SOL    HW169912   1.560   5.941   1.044 -0.1048  0.4302  1.2167
19311SOL    HW269913   1.676   6.032   1.010 -0.1086 -0.1742 -0.5168
19312SOL     OW69914   7.667   7.845   0.811  0.6644  0.6668  0.0145
19312SOL    HW169915   7.719   7.792   0.752  0.4578 -0.0804  0.4841
19312SOL    HW269916   7.687   7.936   0.788  1.0772  0.3810 -0.7502
19313SOL     OW69917   3.282   2.093   7.806  0.0227  0.8354  0.2392
19313SOL    HW169918   3.326   2.011   7.783  0.8128  1.0612  0.9044
19313SOL    HW269919   3.272   2.139   7.723  0.2735  0.4056 -0.0353
19314SOL     OW69920   5.635   8.526   2.108 -0.1644  0.1271  0.1960
19314SOL    HW169921   5.646   8.582   2.185 -0.0586  0.7496 -0.2649
19314SOL    HW269922   5.660   8.581   2.034  2.1783 -1.1908 -0.0967
19315SOL     OW69923  10.807   9.318  10.210  0.0507 -0.2367  0.1065
19315SOL    HW169924  10.843   9.250  10.154  1.3605  0.4487  0.0880
19315SOL    HW269925  10.850   9.399  10.182 -0.2335  0.3284  1.2224
19316SOL     OW69926  11.377   2.260   9.903 -0.1090 -0.2542  0.1268
19316SOL    HW169927  11.308   2.326   9.902 -0.2658 -0.4077  0.6017
19316SOL    HW269928  11.390   2.240   9.996 -1.3630 -2.2339 -0.0612
19317SOL     OW69929   8.013  11.328   8.041  0.6079 -0.0066 -0.6467
19317SOL    HW169930   8.056  11.318   7.956  1.7300 -2.5785  0.1324
19317SOL    HW269931   7.942  11.264   8.039 -0.7832  1.4600 -0.4091
19318SOL     OW69932  12.213   3.447   6.399 -0.1824  0.1616 -0.0407
19318SOL    HW169933  12.258   3.445   6.315  4.0222  0.9597  1.9299
19318SOL    HW269934  12.221   3.358   6.432  2.7954  0.8866  1.5063
19319SOL     OW69935  13.690   0.385   3.862 -0.3772 -0.2296  0.6328
19319SOL    HW169936  13.642   0.429   3.932 -0.3846  2.0055 -0.6876
19319SOL    HW269937  13.676   0.292   3.878 -1.9409  0.2607  2.4868
19320SOL     OW69938   9.302   3.030   8.965 -0.3196 -0.2954 -0.3107
19320SOL    HW169939   9.235   3.012   9.031 -0.0029  0.9070  0.3691
19320SOL    HW269940   9.270   3.107   8.918  0.1077 -0.3249 -0.6553
19321SOL     OW69941  13.412   3.872   4.618 -0.3298 -0.1300 -0.2766
19321SOL    HW169942  13.471   3.811   4.576  0.1162 -0.4958  0.8393
19321SOL    HW269943  13.469   3.934   4.664 -0.7552  1.5323 -1.8935
19322SOL     OW69944   0.090   6.594   4.315  0.2856 -0.1729  0.0641
19322SOL    HW169945   0.167   6.609   4.261 -0.2622  0.9513 -0.4450
19322SOL    HW269946   0.105   6.508   4.356  3.3665  1.4252  2.7069
19323SOL     OW69947   0.470   0.819   8.861  0.2874 -0.3612  0.1122
19323SOL    HW169948   0.508   0.864   8.785 -0.1522 -0.5705 -0.2293
19323SOL    HW269949   0.528   0.744   8.875  1.2838  0.5282  0.9506
19324SOL     OW69950   9.773   3.952  12.265 -0.3099  0.1461  0.1299
19324SOL    HW169951   9.695   3.971  12.213 -0.2213  1.3757  0.4014
19324SOL    HW269952   9.837   4.017  12.237 -0.4817  1.3307  2.1930
19325SOL     OW69953   2.252  12.880   8.443  0.0425 -0.2309  0.3000
19325SOL    HW169954   2.253  12.940   8.369  1.8683 -0.4699  0.0927
19325SOL    HW269955   2.167  12.896   8.485  0.0405  1.7495 -0.3348
19326SOL     OW69956   9.073   3.596   9.811 -0.3854  0.5927 -0.0251
19326SOL    HW169957   9.108   3.520   9.860 -0.2112  1.3693  1.1013
19326SOL    HW269958   9.019   3.557   9.743  1.1076 -0.6090 -0.6002
19327SOL     OW69959  13.872  10.978   3.085  0.2813  0.8651 -0.1257
19327SOL    HW169960  13.914  11.064   3.082 -0.1128  1.1195  1.0847
19327SOL    HW269961  13.778  10.997   3.080  0.2024  0.4981 -0.0889
19328SOL     OW69962   2.130   5.636   8.966 -0.0271  0.4484 -0.4793
19328SOL    HW169963   2.053   5.671   8.923 -0.7812  0.2309  0.6321
19328SOL    HW269964   2.162   5.708   9.021  0.6277  0.5713 -1.0134
19329SOL     OW69965   8.431   2.362   3.436  0.1581  0.0565 -0.0181
19329SOL    HW169966   8.524   2.383   3.438  0.0703  0.3844  1.9309
19329SOL    HW269967   8.396   2.416   3.364  1.2420  0.8849  0.0503
19330SOL     OW69968  10.592   2.833   1.271  0.1585  0.3985  0.0023
19330SOL    HW169969  10.678   2.791   1.272  0.5967  1.2341 -0.8284
19330SOL    HW269970  10.544   2.785   1.204 -0.7499 -1.3803  1.8242
19331SOL     OW69971   1.921  10.487   2.851  0.4471  0.1256  0.3129
19331SOL    HW169972   1.991  10.435   2.813  1.0438 -0.5377  2.1957
19331SOL    HW269973   1.906  10.448   2.937 -0.8654  1.4916  0.7482
19332SOL     OW69974  11.699   3.694   9.045 -0.4280  0.2414 -0.2665
19332SOL    HW169975  11.716   3.668   9.136 -2.3867 -0.6244 -0.1045
19332SOL    HW269976  11.614   3.738   9.049 -1.1399 -0.9234 -1.8506
19333SOL     OW69977   6.949  13.133   0.286  0.5841 -0.4554 -0.2849
19333SOL    HW169978   6.935  13.057   0.343  0.7332 -1.1186 -1.1078
19333SOL    HW269979   7.031  13.114   0.241 -0.1519 -0.5437 -1.6248
19334SOL     OW69980   0.100   8.895   9.167  0.2081  0.5871 -0.3525
19334SOL    HW169981   0.165   8.825   9.171 -1.0824 -0.5992  1.0906
19334SOL    HW269982   0.026   8.863   9.219 -1.5267  1.9115 -1.8306
19335SOL     OW69983   4.336   8.021   7.231 -0.5382 -0.5219  0.5029
19335SOL    HW169984   4.259   8.057   7.186  0.2224 -0.9216 -1.1960
19335SOL    HW269985   4.306   7.936   7.264 -1.0254 -0.3659  0.4753
19336SOL     OW69986  13.812   6.712   1.714  0.2500  0.2086 -0.3467
19336SOL    HW169987  13.778   6.701   1.803  1.6051 -0.6122  0.0946
19336SOL    HW269988  13.736   6.697   1.657  0.0535 -2.8396  0.5464
19337SOL     OW69989  12.258  10.403   5.871 -0.5566 -0.1907  0.1624
19337SOL    HW169990  12.317  10.465   5.912  0.2740 -0.1863 -0.9902
19337SOL    HW269991  12.309  10.322   5.864 -1.5262 -0.9591  1.3854
19338SOL     OW69992   0.116  12.663   2.024 -0.0254  0.8792  0.4354
19338SOL    HW169993   0.076  12.584   2.059  0.2555  0.1354 -0.8788
19338SOL    HW269994   0.146  12.711   2.102 -1.3577  0.3428  1.3101
19339SOL     OW69995   8.571   7.416   5.916  0.1091 -0.3178  0.3185
19339SOL    HW169996   8.622   7.357   5.971 -0.2577 -1.3741 -0.4316
19339SOL    HW269997   8.579   7.379   5.828 -0.1919  0.7200 -0.1670
19340SOL     OW69998   0.690  10.009   1.365 -0.4453 -0.4813 -0.1524
19340SOL    HW169999   0.616   9.998   1.424  0.1125 -0.3234  0.5912
19340SOL    HW270000   0.710   9.921   1.334 -0.7007 -0.5705 -0.0604
19341SOL     OW70001   8.868   5.135   3.268 -0.2681 -0.2221 -0.0012
19341SOL    HW170002   8.821   5.124   3.185  0.6693 -0.1945 -0.5481
19341SOL    HW270003   8.923   5.057   3.275  0.3568  0.2219  0.1240
19342SOL     OW70004  10.073   3.494   2.858  0.1382  0.1672  0.1582
19342SOL    HW170005   9.982   3.522   2.871  0.3818  0.9692  0.1948
19342SOL    HW270006  10.123   3.576   2.857  0.8379 -0.2577 -0.0391
19343SOL     OW70007   3.459   3.207   9.009  0.2250 -0.7077 -0.4520
19343SOL    HW170008   3.548   3.203   8.975 -0.1805 -0.2921 -1.5790
19343SOL    HW270009   3.455   3.290   9.057  0.6343 -1.0518  0.2057
19344SOL     OW70010  11.340   3.278   7.490 -0.5349 -0.0329 -0.0807
19344SOL    HW170011  11.401   3.204   7.479  2.1897  1.8840  1.1077
19344SOL    HW270012  11.269   3.242   7.543  0.6761 -1.8416  0.4275
19345SOL     OW70013  10.651   6.023   6.035  0.3112  0.2148 -0.0034
19345SOL    HW170014  10.666   6.092   5.970  0.9555  0.3309  0.2693
19345SOL    HW270015  10.728   6.025   6.091 -1.3672  1.9670  2.4432
19346SOL     OW70016   0.214   3.151   4.527  0.0697 -0.1905 -0.0988
19346SOL    HW170017   0.309   3.144   4.529  0.1697  0.1180 -2.0191
19346SOL    HW270018   0.197   3.238   4.491 -0.8682 -1.0311 -1.8519
19347SOL     OW70019  12.566   5.488   0.740  0.0021 -0.5754  0.6830
19347SOL    HW170020  12.514   5.552   0.690  0.0296 -0.9196  0.2008
19347SOL    HW270021  12.503   5.420   0.764  0.6403 -2.3150 -2.1170
19348SOL     OW70022   0.157  11.713   6.150  0.0276  0.5438  0.0010
19348SOL    HW170023   0.090  11.649   6.126 -0.2187  1.3203 -1.5060
19348SOL    HW270024   0.165  11.769   6.073  3.9766 -0.7937 -0.7787
19349SOL     OW70025  13.484   4.378   0.552  0.1537 -0.2626 -0.0049
19349SOL    HW170026  13.480   4.350   0.644  0.3619 -0.8790 -0.1791
19349SOL    HW270027  13.578   4.391   0.536  0.3614 -2.3540 -0.7624
19350SOL     OW70028   4.043   5.996  13.668 -0.0483  0.0704 -0.5809
19350SOL    HW170029   4.105   6.033  13.604 -0.3353  1.3837 -0.1365
19350SOL    HW270030   4.097   5.943  13.726  0.0634 -2.1648 -2.5715
19351SOL     OW70031   7.257   8.730   0.205  0.5803 -0.0071 -0.2503
19351SOL    HW170032   7.305   8.657   0.166  0.8056 -0.4498  0.8134
19351SOL    HW270033   7.325   8.789   0.237  0.4161  1.2080 -1.9845
19352SOL     OW70034   2.340   2.123   8.169 -0.0915  0.4827  0.2677
19352SOL    HW170035   2.423   2.161   8.140 -0.0508 -1.3703 -2.3960
19352SOL    HW270036   2.365   2.055   8.232  0.2631  0.9271  0.6158
19353SOL     OW70037  10.110  13.785   5.443 -0.2040  0.0748 -0.1245
19353SOL    HW170038  10.169  13.764   5.371 -0.6417 -0.8359 -0.2309
19353SOL    HW270039  10.040  13.836   5.402 -1.1023 -1.4911 -0.6111
19354SOL     OW70040  10.319   6.701   8.696 -0.1329 -0.4711 -0.0235
19354SOL    HW170041  10.411   6.722   8.682 -0.4251  0.3384 -0.8778
19354SOL    HW270042  10.307   6.617   8.652  0.3207 -0.8723  0.6025
19355SOL     OW70043   5.453   2.406   4.559  0.2819  0.4553  0.3366
19355SOL    HW170044   5.429   2.461   4.485  0.5469  0.7019  0.4303
19355SOL    HW270045   5.523   2.454   4.602  0.7938 -0.1437  0.1888
19356SOL     OW70046  11.279   9.752  10.218  0.0008 -0.1705  0.0436
19356SOL    HW170047  11.374   9.746  10.232  0.0573 -1.8613 -0.8606
19356SOL    HW270048  11.256   9.671  10.174 -2.1130 -0.3935  1.4173
19357SOL     OW70049  11.622   4.163  11.321  0.3004 -0.1734 -0.1248
19357SOL    HW170050  11.660   4.204  11.243  0.1803  2.1579  0.9568
19357SOL    HW270051  11.695   4.115  11.361  1.2258  1.2804 -0.0019
19358SOL     OW70052   9.017   6.843   6.093 -0.4092  0.3342  0.5860
19358SOL    HW170053   8.977   6.817   6.011  1.4649 -0.5086 -0.1106
19358SOL    HW270054   8.989   6.777   6.157 -0.8265  0.2620  0.3269
19359SOL     OW70055  11.319  12.825  13.463 -0.3195 -0.1215 -0.0384
19359SOL    HW170056  11.364  12.756  13.415  0.5531  0.2529  0.2100
19359SOL    HW270057  11.346  12.906  13.419  1.7850  0.3850  1.9519
19360SOL     OW70058  13.456  13.838   3.290 -0.5308 -0.1694 -0.2340
19360SOL    HW170059  13.431  13.759   3.242 -1.6667 -1.3180  2.0702
19360SOL    HW270060  13.520  13.881   3.233 -0.0812 -2.5807 -1.7274
19361SOL     OW70061   7.048   9.667   8.510  0.1205  0.1452  0.3328
19361SOL    HW170062   6.959   9.686   8.539 -0.0052  0.5356 -0.3030
19361SOL    HW270063   7.042   9.585   8.461 -0.1096  0.7919 -0.7524
19362SOL     OW70064   4.156   4.474   9.917  0.1616 -0.5236 -0.2049
19362SOL    HW170065   4.170   4.526   9.837  0.0298 -1.2893 -0.7318
19362SOL    HW270066   4.159   4.383   9.888  1.7487 -0.8812  0.9274
19363SOL     OW70067   1.917   0.582   6.606  0.1231 -0.4022  0.3221
19363SOL    HW170068   1.980   0.528   6.654 -1.3835 -1.9392  0.6808
19363SOL    HW270069   1.968   0.656   6.574  1.3335  0.4555  3.8513
19364SOL     OW70070   2.972   6.962   9.180 -0.6536  0.0451  0.1731
19364SOL    HW170071   2.915   7.037   9.195 -0.2615  0.2272  0.8218
19364SOL    HW270072   2.963   6.909   9.259 -0.4718 -0.2797 -0.0240
19365SOL     OW70073   7.412  12.047   5.306 -0.3027  0.3172 -0.0699
19365SOL    HW170074   7.334  11.998   5.330 -1.6467  2.4042  0.1095
19365SOL    HW270075   7.472  12.035   5.379 -1.4653  0.6975  0.9782
19366SOL     OW70076   3.203   2.232   0.603 -0.4425 -0.3094 -0.4298
19366SOL    HW170077   3.277   2.239   0.665 -0.0162  0.4970 -1.0035
19366SOL    HW270078   3.201   2.140   0.579  0.4799 -0.3243 -0.5107
19367SOL     OW70079   8.283  13.821  12.877  0.3442  0.3039  0.2408
19367SOL    HW170080   8.198  13.783  12.858 -0.4913  0.9427  2.4570
19367SOL    HW270081   8.329  13.819  12.793 -1.9291  0.1934 -1.0887
19368SOL     OW70082   7.855   1.910   7.499  0.6122 -0.0998 -0.2644
19368SOL    HW170083   7.903   1.993   7.488  2.0738 -1.2015 -3.5329
19368SOL    HW270084   7.923   1.845   7.515 -0.1377 -1.1224 -1.0932
19369SOL     OW70085  13.609   7.416   0.489  0.0473  0.3642  0.4506
19369SOL    HW170086  13.649   7.497   0.457 -1.0608  0.3916 -0.9436
19369SOL    HW270087  13.615   7.355   0.416 -0.2158 -0.4282  1.0721
19370SOL     OW70088  12.875   6.897   6.786  0.2515 -0.1345 -0.2209
19370SOL    HW170089  12.786   6.905   6.753  0.3335 -1.1407 -0.7399
19370SOL    HW270090  12.877   6.814   6.832  1.3602 -1.0473 -1.7879
19371SOL     OW70091  12.155  12.765   7.106  0.5734 -0.4123 -0.2317
19371SOL    HW170092  12.060  12.753   7.109  0.7686 -2.1058  0.9551
19371SOL    HW270093  12.168  12.858   7.126 -0.7949 -0.3288  0.4185
19372SOL     OW70094  11.655   6.939   6.554  0.1353  0.0232 -0.3492
19372SOL    HW170095  11.571   6.963   6.595  0.3123 -0.0328  0.0522
19372SOL    HW270096  11.714   7.010   6.579  0.6113 -0.7217  0.6751
19373SOL     OW70097  10.997   5.253  10.423  0.0502 -0.2698  0.2436
19373SOL    HW170098  10.908   5.279  10.399  0.6794  0.6064 -1.2843
19373SOL    HW270099  10.996   5.157  10.421 -1.3846 -0.3700  2.4141
19374SOL     OW70100  11.667  12.572   7.267  0.1331  0.1881 -0.2773
19374SOL    HW170101  11.755  12.591   7.299 -0.6440  0.3939  1.9469
19374SOL    HW270102  11.619  12.653   7.280 -0.8236 -0.4445  0.2863
19375SOL     OW70103   2.305   9.781   0.505  0.2396  0.4681  0.1174
19375SOL    HW170104   2.311   9.720   0.431 -0.3994 -0.3456  0.7274
19375SOL    HW270105   2.215   9.812   0.503  0.1802  0.3326  0.6482
19376SOL     OW70106  11.243   5.816  10.643  0.1166 -0.1178  0.1018
19376SOL    HW170107  11.174   5.763  10.604  0.4192 -0.0569 -0.5297
19376SOL    HW270108  11.319   5.758  10.645 -0.1638 -0.4769  1.6017
19377SOL     OW70109   1.042   8.750   8.202  0.4312  0.1820 -0.3476
19377SOL    HW170110   1.084   8.700   8.131  1.8098  1.0856 -0.2167
19377SOL    HW270111   0.996   8.685   8.254  1.5453 -0.8489 -0.6191
19378SOL     OW70112   7.500  13.354   4.180  0.4226  0.6943 -0.1048
19378SOL    HW170113   7.580  13.304   4.165  0.9289  1.5442 -0.3404
19378SOL    HW270114   7.531  13.437   4.217  0.0509  2.5571 -3.5153
19379SOL     OW70115  10.986   5.723   1.976  0.0746 -0.1194  0.7210
19379SOL    HW170116  10.964   5.643   1.929  2.0225 -1.5359  2.0477
19379SOL    HW270117  11.035   5.776   1.913  0.3699 -0.7982  0.3768
19380SOL     OW70118   7.391   0.007   5.353 -0.0079  0.0193 -0.0116
19380SOL    HW170119   7.397  -0.087   5.335 -2.3880 -0.2282  0.2786
19380SOL    HW270120   7.402   0.015   5.448  0.4074  0.0779 -0.0609
19381SOL     OW70121   7.854  11.354  13.243 -0.4897 -0.1544  0.2437
19381SOL    HW170122   7.820  11.417  13.179 -0.3200  0.4222  0.7155
19381SOL    HW270123   7.949  11.355  13.230 -0.4355  0.1110  0.6268
19382SOL     OW70124   1.349  13.653   8.712 -0.2239 -0.0663 -0.4344
19382SOL    HW170125   1.359  13.577   8.770  0.3823 -0.6544 -1.3052
19382SOL    HW270126   1.254  13.663   8.703 -0.3255 -0.1296  0.4318
19383SOL     OW70127   9.066   9.940   9.617 -0.0439 -0.3735 -0.5558
19383SOL    HW170128   9.133   9.992   9.661  0.7344 -1.1263 -0.8311
19383SOL    HW270129   9.114   9.885   9.556 -0.9204 -0.8924 -0.7974
19384SOL     OW70130   4.872   1.801   9.653  0.2358  0.3352  0.6623
19384SOL    HW170131   4.896   1.880   9.702  0.1354 -0.0056  1.2752
19384SOL    HW270132   4.790   1.772   9.694 -0.4071  0.6119 -0.3784
19385SOL     OW70133   9.049  11.874   0.578 -0.0169 -0.7986 -0.0071
19385SOL    HW170134   9.073  11.809   0.645  0.1492 -0.7453 -0.0144
19385SOL    HW270135   9.071  11.832   0.495  2.7149  0.2917  0.0598
19386SOL     OW70136  11.917   5.266   4.802  0.0700  0.1401  0.7330
19386SOL    HW170137  11.872   5.284   4.720  0.3286 -0.4397  0.4579
19386SOL    HW270138  11.882   5.331   4.863  0.4083  1.0438 -0.0169
19387SOL     OW70139   5.418   9.258   8.705 -0.1523  0.2364  0.3492
19387SOL    HW170140   5.481   9.322   8.671  0.2357 -1.2952 -2.0445
19387SOL    HW270141   5.471   9.200   8.759  0.1917 -0.0314 -0.2570
19388SOL     OW70142  11.216   2.049   4.361  0.3563 -0.4441 -0.7550
19388SOL    HW170143  11.125   2.080   4.359 -0.5064 -2.8590 -1.5548
19388SOL    HW270144  11.225   2.009   4.448  0.2442 -1.3114 -1.1363
19389SOL     OW70145   0.810  13.328   5.241 -0.3595  0.0862 -0.4079
19389SOL    HW170146   0.770  13.384   5.307  1.0273 -0.9544  1.3936
19389SOL    HW270147   0.735  13.291   5.193 -1.5152 -0.2911  1.5700
19390SOL     OW70148   7.441   6.933   0.421 -0.1256 -0.5252 -0.7594
19390SOL    HW170149   7.349   6.913   0.407 -0.4986  0.2569  0.3687
19390SOL    HW270150   7.469   6.979   0.342 -0.2419 -2.1725 -1.7985
19391SOL     OW70151   4.829  13.096   5.917 -0.2384 -0.3175  0.2042
19391SOL    HW170152   4.780  13.151   5.856 -0.5262  0.2088  0.8971
19391SOL    HW270153   4.874  13.159   5.973 -0.9476 -0.7812  1.3132
19392SOL     OW70154   1.328   4.431  10.439 -0.4958  0.3404 -0.3731
19392SOL    HW170155   1.398   4.425  10.374  0.2039  0.3518  0.3645
19392SOL    HW270156   1.257   4.378  10.404 -0.4330  0.9819 -1.5246
19393SOL     OW70157  11.304   5.054   1.800 -0.1132  0.2271 -0.3537
19393SOL    HW170158  11.270   5.098   1.877 -1.0117 -0.4359 -0.3595
19393SOL    HW270159  11.276   5.108   1.726 -0.2078  0.2651 -0.2886
19394SOL     OW70160   2.981  13.106   5.044  0.0272  0.0910 -0.3814
19394SOL    HW170161   2.933  13.023   5.033  0.1114 -0.4493  2.4314
19394SOL    HW270162   2.915  13.173   5.027 -0.7348 -0.6038 -0.2916
19395SOL     OW70163  13.509   4.232  11.223  0.0548  0.0928  0.2585
19395SOL    HW170164  13.433   4.243  11.166 -0.3986  0.0731  0.8530
19395SOL    HW270165  13.520   4.317  11.265  0.5735  0.1973 -0.0782
19396SOL     OW70166   3.192  10.502   5.686  0.1435  0.1716 -0.2789
19396SOL    HW170167   3.181  10.530   5.595  0.5735 -0.2305 -0.4586
19396SOL    HW270168   3.115  10.537   5.731 -0.2624  0.0676 -0.8716
19397SOL     OW70169   6.994   9.562   9.983 -0.3057  0.5270 -0.2981
19397SOL    HW170170   6.958   9.490  10.035  0.7371  0.0994 -0.1593
19397SOL    HW270171   6.916   9.607   9.949 -0.9822 -0.8026 -0.5821
19398SOL     OW70172   3.851   8.791   7.059  0.1717 -0.1727 -0.9585
19398SOL    HW170173   3.779   8.851   7.078 -0.2059 -0.2006 -2.2222
19398SOL    HW270174   3.898   8.833   6.987  1.0909 -0.4359 -0.5225
19399SOL     OW70175  10.142   5.982   6.294  0.0141  0.5725  0.1664
19399SOL    HW170176  10.203   5.921   6.254 -0.4955  0.3837 -0.3290
19399SOL    HW270177  10.139   5.955   6.386  0.3702  0.3364  0.1122
19400SOL     OW70178  12.706   7.858   3.876 -0.5478  0.0082 -0.3056
19400SOL    HW170179  12.752   7.774   3.867  1.0193  0.7149  0.7760
19400SOL    HW270180  12.664   7.853   3.962 -2.4326 -0.5527 -1.2005
19401SOL     OW70181   8.641  10.122   0.075 -0.2956  0.0264  0.0125
19401SOL    HW170182   8.716  10.072   0.043 -0.1815  0.7180 -0.8318
19401SOL    HW270183   8.635  10.197   0.016 -2.3509 -0.5967 -0.6344
19402SOL     OW70184   9.445   4.061   7.535  0.1322  0.6344 -0.2807
19402SOL    HW170185   9.513   4.113   7.491  0.6879 -0.5276 -0.8550
19402SOL    HW270186   9.364   4.084   7.490  0.6657 -0.4055 -1.8383
19403SOL     OW70187   1.225   0.448  11.639 -0.5377  0.2625 -0.4046
19403SOL    HW170188   1.236   0.525  11.583 -0.4259  0.9392  0.5248
19403SOL    HW270189   1.193   0.483  11.722 -1.2364 -0.7814 -0.2150
19404SOL     OW70190   5.813   7.450  10.405  0.0216 -0.4101 -0.1204
19404SOL    HW170191   5.811   7.473  10.312  3.1260 -0.6170 -0.3250
19404SOL    HW270192   5.852   7.362  10.407 -0.7718 -0.7685  1.3514
19405SOL     OW70193   4.481   3.433  11.007  0.2432  0.1285  0.3205
19405SOL    HW170194   4.484   3.473  11.094 -1.1109 -1.2504  1.0626
19405SOL    HW270195   4.552   3.474  10.959  0.0287  2.0939  1.5653
19406SOL     OW70196   5.572   5.620  13.546  0.1708 -0.0815  0.1043
19406SOL    HW170197   5.533   5.647  13.629 -0.1518 -1.1091  0.3059
19406SOL    HW270198   5.500   5.584  13.496  0.6092 -0.7746 -0.0470
19407SOL     OW70199   5.721   5.656  10.748 -0.0980 -0.4071 -0.8055
19407SOL    HW170200   5.707   5.670  10.842 -0.6443  1.5343 -1.1473
19407SOL    HW270201   5.641   5.611  10.719  0.0971 -1.0685 -0.3494
19408SOL     OW70202   8.540  12.640   0.883  0.1266 -0.1287 -0.0923
19408SOL    HW170203   8.453  12.610   0.855  0.1728  1.8075 -2.7494
19408SOL    HW270204   8.591  12.643   0.802  3.0082 -1.9317  1.4998
19409SOL     OW70205   4.112  12.100   6.783  0.5438 -0.0088  0.1697
19409SOL    HW170206   4.138  12.036   6.717  1.7734  1.1598 -0.5327
19409SOL    HW270207   4.195  12.128   6.824 -0.0224  0.6309  0.9299
19410SOL     OW70208   4.355   5.277   0.027  0.5657  0.8309  0.2602
19410SOL    HW170209   4.428   5.236  -0.020  1.4386  0.5859  1.7827
19410SOL    HW270210   4.396   5.322   0.101 -0.7217  1.6826  0.4851
19411SOL     OW70211   2.039   6.543  11.281  0.1325 -0.2359  0.3658
19411SOL    HW170212   1.969   6.595  11.242 -0.8353 -0.8689  1.2066
19411SOL    HW270213   2.015   6.535  11.373 -1.0248 -3.9697 -0.0546
19412SOL     OW70214   1.656   7.622  12.262 -0.7590  0.1421 -0.0081
19412SOL    HW170215   1.563   7.632  12.283 -0.6268 -1.8969  1.9261
19412SOL    HW270216   1.677   7.533  12.288  1.7809  0.5628 -0.3465
19413SOL     OW70217   4.717  12.296   8.111 -0.0751 -0.1101  0.3892
19413SOL    HW170218   4.669  12.277   8.030 -1.4104 -0.8335  1.3197
19413SOL    HW270219   4.762  12.214   8.131 -1.9994 -0.8795  1.8416
19414SOL     OW70220  10.796   3.972  12.179  0.3815  0.2381  0.0681
19414SOL    HW170221  10.713   4.017  12.163 -0.0994 -0.2223  1.1541
19414SOL    HW270222  10.791   3.892  12.126 -0.4694 -0.4472  1.1293
19415SOL     OW70223  13.893  10.110   1.638  0.1924 -0.7947 -0.1611
19415SOL    HW170224  13.960  10.178   1.638 -1.2831  0.7785  1.5267
19415SOL    HW270225  13.888  10.080   1.548  1.0454  1.1880 -0.9138
19416SOL     OW70226   0.376   0.489   6.845  0.6538  0.0833 -0.2515
19416SOL    HW170227   0.384   0.524   6.757 -1.3807  1.7610  0.1336
19416SOL    HW270228   0.286   0.511   6.871  0.5832 -2.0216  1.5543
19417SOL     OW70229   2.881   6.807  11.637  0.5017  0.1267  0.8004
19417SOL    HW170230   2.797   6.836  11.602 -0.0096 -1.0163  1.0355
19417SOL    HW270231   2.917   6.885  11.679 -0.9028  0.3840  1.5910
19418SOL     OW70232   7.104   1.373   8.051  0.9266 -0.2113 -0.2364
19418SOL    HW170233   7.023   1.359   8.101  1.8040 -0.1033  1.2511
19418SOL    HW270234   7.163   1.304   8.081  2.1515  1.0654  0.3458
19419SOL     OW70235  12.709   5.960   9.058 -0.0384  0.2306 -0.2643
19419SOL    HW170236  12.670   5.878   9.027 -2.7911  1.2724  0.2053
19419SOL    HW270237  12.713   5.950   9.153 -1.2494  0.9366 -0.1172
19420SOL     OW70238  13.665  12.990  13.695  0.0637 -0.4989  0.1823
19420SOL    HW170239  13.739  12.949  13.651 -0.2665 -0.9492  0.0441
19420SOL    HW270240  13.615  12.917  13.731 -0.7043 -0.2340 -0.3487
19421SOL     OW70241  10.063   0.468   9.608  0.0985  0.3726 -0.5037
19421SOL    HW170242  10.042   0.551   9.651 -1.6404  0.1008 -0.7462
19421SOL    HW270243   9.988   0.452   9.551 -0.3547 -2.1127  0.6635
19422SOL     OW70244   2.464  10.248  10.369 -0.0601 -0.3806 -0.3325
19422SOL    HW170245   2.448  10.342  10.368  0.6941 -0.2172  0.8777
19422SOL    HW270246   2.543  10.238  10.421  0.6768 -1.5832 -1.6254
19423SOL     OW70247   4.593   8.630   9.217 -0.2046 -0.0009 -0.3391
19423SOL    HW170248   4.499   8.613   9.224 -0.1957 -0.9302 -1.9437
19423SOL    HW270249   4.631   8.546   9.191  1.1742  0.2017  0.8601
19424SOL     OW70250  12.040  13.724   8.649  0.0289 -0.1244 -0.5800
19424SOL    HW170251  11.946  13.739   8.657 -0.1038 -1.0593 -0.2748
19424SOL    HW270252  12.048  13.655   8.584  0.4285 -0.8974  0.2693
19425SOL     OW70253   8.481   5.733  11.206 -0.4631 -0.0159 -0.8276
19425SOL    HW170254   8.526   5.677  11.144 -0.1773 -2.7910  1.6436
19425SOL    HW270255   8.434   5.673  11.263  0.3733  2.1250  2.4556
19426SOL     OW70256   3.886  12.256  12.821 -0.9172  0.0523  0.2167
19426SOL    HW170257   3.950  12.205  12.770  1.1587  0.9714  1.7400
19426SOL    HW270258   3.827  12.293  12.755  1.6487  1.2201 -1.6071
19427SOL     OW70259   1.992   8.974  10.439 -0.7656  0.8373 -0.0843
19427SOL    HW170260   1.978   9.003  10.349  0.7674  2.3581  0.1297
19427SOL    HW270261   2.019   8.883  10.431 -1.2161  0.7798 -1.1030
19428SOL     OW70262   7.189   0.372   0.034 -0.0033  0.2875 -0.1109
19428SOL    HW170263   7.162   0.298   0.088  0.6447 -0.7729 -1.1886
19428SOL    HW270264   7.132   0.368  -0.042  1.7754 -0.8039 -1.4792
19429SOL     OW70265   0.440   3.912  10.153 -0.4150  0.4048 -0.2178
19429SOL    HW170266   0.492   3.993  10.152 -2.5973  1.9452  0.9770
19429SOL    HW270267   0.349   3.943  10.154 -1.3577 -2.1347 -1.3510
19430SOL     OW70268   3.903   2.400   4.276  0.5423  0.2275 -0.1419
19430SOL    HW170269   3.878   2.477   4.225  0.7437  0.1205 -0.4031
19430SOL    HW270270   3.896   2.428   4.367  0.9879  0.6757 -0.2390
19431SOL     OW70271   9.432  11.131  10.430 -0.4902 -0.1151 -0.2511
19431SOL    HW170272   9.412  11.038  10.446  1.9765 -0.8998 -1.2676
19431SOL    HW270273   9.485  11.157  10.506 -2.0299  0.8165  0.5487
19432SOL     OW70274   2.602   0.284   0.454 -0.6788 -0.4047 -0.0479
19432SOL    HW170275   2.687   0.325   0.438 -1.7064  0.8916 -2.8069
19432SOL    HW270276   2.596   0.215   0.388 -2.0821  0.0450 -0.4181
19433SOL     OW70277   4.557   4.668  11.427  0.9592 -0.3073 -0.4736
19433SOL    HW170278   4.534   4.660  11.334 -0.1743 -1.7843 -0.0888
19433SOL    HW270279   4.625   4.602  11.441  1.9381  0.6580 -0.4613
19434SOL     OW70280  11.883   9.843   7.313 -0.5190 -0.0139 -0.4323
19434SOL    HW170281  11.936   9.881   7.243  1.3281 -1.3063  0.1788
19434SOL    HW270282  11.888   9.748   7.298 -0.3753 -0.3031  1.2233
19435SOL     OW70283   8.061   2.838   1.792  0.5745 -0.4159  0.3430
19435SOL    HW170284   8.013   2.784   1.856  0.1776 -0.4109  0.0567
19435SOL    HW270285   7.998   2.905   1.765  0.9489 -0.0284  0.4227
19436SOL     OW70286  10.147  11.523   9.225  0.0510  0.2431  0.7152
19436SOL    HW170287  10.103  11.574   9.157  0.6183  1.5614  1.2952
19436SOL    HW270288  10.208  11.586   9.266 -0.6067 -0.3743  2.7338
19437SOL     OW70289  13.939  11.348   0.185  0.0658  0.5775 -0.0717
19437SOL    HW170290  13.954  11.261   0.223 -0.6340  0.1436 -0.7406
19437SOL    HW270291  14.021  11.396   0.200  0.2496 -0.0019  0.8223
19438SOL     OW70292   6.584  11.458  11.619 -0.1223 -0.0510 -0.3637
19438SOL    HW170293   6.549  11.462  11.530 -1.5922  1.1726  0.2269
19438SOL    HW270294   6.639  11.535  11.626 -1.9144  1.2225  0.4935
19439SOL     OW70295  11.117   1.686  11.641  0.2910 -0.1468 -0.0687
19439SOL    HW170296  11.156   1.686  11.728  1.1543 -1.6560 -0.4112
19439SOL    HW270297  11.187   1.657  11.583 -0.4747  0.1188 -1.1726
19440SOL     OW70298  13.703   0.053   8.818  0.2818 -0.2020 -0.2429
19440SOL    HW170299  13.659   0.066   8.902 -0.1277 -0.4912 -0.4043
19440SOL    HW270300  13.648  -0.012   8.773  0.7756 -0.4245 -0.5284
19441SOL     OW70301   7.236  11.523   8.996 -0.6538  0.0477  0.1857
19441SOL    HW170302   7.205  11.519   9.087 -0.3026  0.3051  0.3223
19441SOL    HW270303   7.286  11.605   8.992 -0.4411 -0.0974 -0.1683
19442SOL     OW70304   3.772   6.704   9.092  0.3956 -0.2617 -0.2231
19442SOL    HW170305   3.843   6.743   9.142  0.6442 -1.7930  0.6824
19442SOL    HW270306   3.792   6.610   9.089 -1.0815 -0.6016 -0.7614
19443SOL     OW70307   0.771  11.135  10.264  0.0082  0.1931  0.0143
19443SOL    HW170308   0.694  11.110  10.315  0.2047  0.9560  0.7273
19443SOL    HW270309   0.801  11.216  10.306 -0.7053  1.7318 -2.2376
19444SOL     OW70310  11.090   3.488   5.258 -0.1092 -0.3756 -0.1789
19444SOL    HW170311  11.046   3.555   5.310  0.5023 -0.2138  0.1300
19444SOL    HW270312  11.073   3.513   5.167  2.0342  1.5422 -0.1406
19445SOL     OW70313   8.553   7.089   2.704 -0.6046 -0.1168  0.3135
19445SOL    HW170314   8.504   7.103   2.785  0.8382  0.5634  1.1045
19445SOL    HW270315   8.535   7.168   2.652  1.0401  0.9966  1.3626
19446SOL     OW70316   4.707  12.316   3.972  0.1294  0.2353 -0.1699
19446SOL    HW170317   4.765  12.255   3.926  0.4440 -0.1342  0.7079
19446SOL    HW270318   4.668  12.264   4.042  0.1098  0.9491  0.3521
19447SOL     OW70319   7.128  13.570   9.555 -0.2531  0.1177 -0.7551
19447SOL    HW170320   7.097  13.603   9.639 -0.4717  0.8735 -1.1220
19447SOL    HW270321   7.131  13.647   9.499  2.5490  0.1604 -0.6734
19448SOL     OW70322   2.186   0.547   0.004 -0.2918  0.0461  0.0609
19448SOL    HW170323   2.202   0.486  -0.068 -2.8266 -0.3308 -0.2686
19448SOL    HW270324   2.235   0.625  -0.020 -0.1241 -0.4940 -1.4912
19449SOL     OW70325  10.957  11.326  11.473 -0.5080  0.9991  0.4143
19449SOL    HW170326  10.917  11.239  11.471 -0.7341  1.1018 -1.1033
19449SOL    HW270327  10.964  11.347  11.566 -3.0585  0.5237  0.8016
19450SOL     OW70328   7.244   3.908   7.575 -0.3089  0.1832  0.4467
19450SOL    HW170329   7.208   3.855   7.646 -2.4431 -1.8323 -1.9344
19450SOL    HW270330   7.337   3.887   7.573 -0.2749 -0.0067  2.3409
19451SOL     OW70331   3.484  11.830   4.040 -0.1235  0.5459 -0.4729
19451SOL    HW170332   3.454  11.832   3.949 -1.5399 -1.6134 -0.1261
19451SOL    HW270333   3.427  11.766   4.083  0.5292  1.4838  1.9489
19452SOL     OW70334   1.724   3.367  13.628  0.1927 -0.0330 -0.5386
19452SOL    HW170335   1.701   3.275  13.645  1.1938 -0.0357  0.9914
19452SOL    HW270336   1.757   3.367  13.538  0.4727 -1.2287 -0.4486
19453SOL     OW70337   5.179   5.350   4.568 -0.1608  0.2108 -0.3201
19453SOL    HW170338   5.142   5.287   4.507 -2.8001  1.3424 -0.0260
19453SOL    HW270339   5.185   5.431   4.518 -0.9112  0.7712  0.4663
19454SOL     OW70340   6.187   3.352   2.977  0.4461  0.5244 -0.0757
19454SOL    HW170341   6.227   3.280   2.928 -0.7001  0.7339 -1.3544
19454SOL    HW270342   6.248   3.367   3.050 -0.6047 -3.6198  1.9706
19455SOL     OW70343   7.956  13.585  10.273  0.1440  0.0159  0.3066
19455SOL    HW170344   7.921  13.613  10.357  1.5560  1.4127  0.4819
19455SOL    HW270345   7.887  13.607  10.210 -0.4922 -0.0551  0.9630
19456SOL     OW70346   2.271  11.645   9.143  0.2294 -0.6064  0.1568
19456SOL    HW170347   2.249  11.583   9.074 -0.8296  1.6842 -1.7254
19456SOL    HW270348   2.200  11.637   9.207 -0.7131 -0.3220 -0.8287
19457SOL     OW70349  12.948  10.552   5.381 -0.5633  0.2061 -0.5587
19457SOL    HW170350  12.855  10.576   5.380 -0.4719  0.5975 -0.1533
19457SOL    HW270351  12.971  10.543   5.289 -0.5348  2.0009 -0.7664
19458SOL     OW70352   5.750   8.310   0.539  0.2884 -0.1155 -0.3784
19458SOL    HW170353   5.681   8.342   0.480  1.1207  0.0318 -1.3072
19458SOL    HW270354   5.786   8.389   0.578 -0.1457 -0.2024  0.2152
19459SOL     OW70355   1.724  11.123   2.080  0.5956  0.2010  0.1594
19459SOL    HW170356   1.776  11.199   2.106  0.0802  1.2374 -1.7011
19459SOL    HW270357   1.640  11.136   2.123  0.5965  0.5349  0.0600
19460SOL     OW70358   1.150  13.636   6.174 -0.2334  0.4546  0.0840
19460SOL    HW170359   1.242  13.631   6.202 -0.3306 -1.9519  0.2202
19460SOL    HW270360   1.114  13.711   6.221  1.1003  0.0274  1.8842
19461SOL     OW70361   5.264  10.160   9.799  0.2934 -0.6442 -0.1622
19461SOL    HW170362   5.325  10.143   9.728  0.1794  2.8690 -1.2588
19461SOL    HW270363   5.307  10.227   9.853 -1.1490 -0.6157  1.0319
19462SOL     OW70364   5.586   7.589   5.900 -0.1185  0.1671 -0.1156
19462SOL    HW170365   5.555   7.508   5.860 -0.3481 -0.0836  0.5561
19462SOL    HW270366   5.658   7.618   5.844 -1.5113  0.7414 -1.7138
19463SOL     OW70367   1.653   3.961   5.036 -0.0525 -0.1232  0.4935
19463SOL    HW170368   1.615   4.019   4.970 -1.1949 -0.5779  0.7428
19463SOL    HW270369   1.640   3.873   5.001  0.6767 -0.3036  0.6453
19464SOL     OW70370   9.667   1.488   1.238 -0.0872 -0.0699  0.1591
19464SOL    HW170371   9.663   1.519   1.148  0.3535  1.5289  0.6498
19464SOL    HW270372   9.579   1.457   1.257 -0.4572  0.5412 -0.4987
19465SOL     OW70373  13.381   0.143   9.128  0.1823 -0.1402  0.1286
19465SOL    HW170374  13.328   0.211   9.087 -1.1432 -0.5694  1.0573
19465SOL    HW270375  13.471   0.165   9.105 -0.3072  1.2868 -0.5052
19466SOL     OW70376   5.384  13.240   5.424 -0.3621  0.4498 -0.1634
19466SOL    HW170377   5.290  13.224   5.414 -0.1954 -0.2265 -0.7586
19466SOL    HW270378   5.390  13.314   5.484 -1.3400  2.2537 -2.1768
19467SOL     OW70379   6.862   1.783  12.556  0.1595  0.2571  0.5584
19467SOL    HW170380   6.852   1.688  12.564 -0.5189  0.3154  0.4177
19467SOL    HW270381   6.905   1.795  12.471  2.7849 -0.0632  1.7364
19468SOL     OW70382   8.731   8.270   1.503  0.1935 -0.4145  0.0761
19468SOL    HW170383   8.770   8.262   1.415  1.0354  0.9346  0.3015
19468SOL    HW270384   8.637   8.272   1.487  0.3679  1.6361 -1.0029
19469SOL     OW70385   0.774   8.649   6.595 -0.0784  0.3184 -0.0211
19469SOL    HW170386   0.704   8.698   6.552  1.8300  3.2884 -0.0445
19469SOL    HW270387   0.855   8.682   6.554  1.5534 -0.2493  2.5208
19470SOL     OW70388   8.736   4.842   0.578  0.0358 -0.8281  0.2660
19470SOL    HW170389   8.734   4.746   0.582  1.0865 -0.8651  0.1535
19470SOL    HW270390   8.774   4.861   0.492 -0.1875 -0.3139  0.2831
19471SOL     OW70391   4.093  13.918  12.009 -0.0773 -0.5310 -0.5607
19471SOL    HW170392   4.046  13.958  12.082  0.3712  2.1713 -1.6425
19471SOL    HW270393   4.025  13.889  11.949 -0.4093  0.5586 -0.7182
19472SOL     OW70394   2.401  13.472   8.945 -0.1631  0.0028 -0.3855
19472SOL    HW170395   2.377  13.379   8.948 -0.6400 -0.0171 -3.0008
19472SOL    HW270396   2.335  13.516   8.999  0.7312 -1.2189  1.8606
19473SOL     OW70397   7.978   4.616   5.914  0.0692 -0.0139  0.4139
19473SOL    HW170398   8.065   4.599   5.876 -0.5769 -1.7013 -0.4209
19473SOL    HW270399   7.974   4.711   5.921  0.9222  0.3206 -2.2019
19474SOL     OW70400   8.494   9.082   4.953 -0.6747 -0.1256  0.0638
19474SOL    HW170401   8.452   9.053   5.034  1.7674  0.9098  1.8306
19474SOL    HW270402   8.432   9.142   4.913 -1.5312  0.1170  1.7158
19475SOL     OW70403   1.334  10.762   3.496 -0.3445 -0.5326  0.7981
19475SOL    HW170404   1.401  10.734   3.433  0.1899  0.2585  1.0045
19475SOL    HW270405   1.273  10.815   3.444 -0.2793 -0.4512  0.8039
19476SOL     OW70406  12.183  12.368   9.329 -0.1917  0.1904 -0.2334
19476SOL    HW170407  12.261  12.422   9.344  0.0486 -0.0954 -0.4611
19476SOL    HW270408  12.125  12.424   9.278 -0.7141  0.9113  1.0854
19477SOL     OW70409  10.779   1.897   4.417  0.5494  0.0679  0.1671
19477SOL    HW170410  10.817   1.810   4.431  1.5018  0.0724 -2.0606
19477SOL    HW270411  10.794   1.943   4.500 -0.4757 -2.0135  1.6115
19478SOL     OW70412   9.485  11.888   2.172  0.8553  0.0964 -0.4089
19478SOL    HW170413   9.546  11.960   2.159  2.0683 -0.9769 -0.8225
19478SOL    HW270414   9.510  11.823   2.107  0.1508 -0.9412  0.3281
19479SOL     OW70415   0.505   0.216   6.939  0.2910  0.3269 -0.3909
19479SOL    HW170416   0.460   0.293   6.904 -0.1852  0.0849 -0.3222
19479SOL    HW270417   0.577   0.200   6.878  0.6066  1.0311 -0.2144
19480SOL     OW70418   8.927   3.344   9.748  0.1488  0.0961 -0.1596
19480SOL    HW170419   8.853   3.350   9.809  0.1787  0.3334 -0.1437
19480SOL    HW270420   8.960   3.255   9.759  1.2514  0.6534  1.4883
19481SOL     OW70421   8.820   3.157   8.239  0.5511 -0.2960 -0.1458
19481SOL    HW170422   8.784   3.193   8.320 -2.5045 -1.2546 -0.9773
19481SOL    HW270423   8.785   3.068   8.234 -1.1517  0.4008 -3.4635
19482SOL     OW70424   9.111  13.447   7.176 -0.5134  0.4353 -0.3062
19482SOL    HW170425   9.045  13.426   7.110  0.9951 -0.5624 -1.5726
19482SOL    HW270426   9.139  13.536   7.155 -0.5133  0.3663 -0.5979
19483SOL     OW70427  10.176   4.073   8.915  0.6013  0.1211  0.2884
19483SOL    HW170428  10.224   4.133   8.858 -0.8492 -0.9659 -2.2429
19483SOL    HW270429  10.107   4.126   8.955  0.4189  0.4975 -0.5227
19484SOL     OW70430  10.332   5.205   2.391  0.2135  0.4373  0.0667
19484SOL    HW170431  10.325   5.287   2.441 -3.9799 -0.3761  1.1571
19484SOL    HW270432  10.368   5.142   2.453  0.4649  0.7141  0.2083
19485SOL     OW70433   6.893  11.595   2.509 -0.1757 -0.1855 -0.5879
19485SOL    HW170434   6.963  11.657   2.528 -0.8535  0.9250 -1.5849
19485SOL    HW270435   6.843  11.589   2.590 -0.5801  1.2240 -0.7049
19486SOL     OW70436   5.947   2.774   8.341  0.0075 -0.2915 -0.2740
19486SOL    HW170437   6.024   2.740   8.295 -0.2016  0.3483 -1.1314
19486SOL    HW270438   5.943   2.866   8.315  0.3319  0.3313  1.6508
19487SOL     OW70439   7.230   4.597   2.661  0.5867 -0.3318  0.3288
19487SOL    HW170440   7.280   4.678   2.647  0.4307 -0.4108 -0.8525
19487SOL    HW270441   7.271   4.555   2.736  1.6630  0.0933 -0.0011
19488SOL     OW70442   0.012  10.230   4.472  0.1219  0.3848 -0.1481
19488SOL    HW170443   0.043  10.277   4.395  0.2579  1.0356  0.2857
19488SOL    HW270444   0.062  10.149   4.474 -1.5076 -0.7371 -2.0183
19489SOL     OW70445  14.013   3.934   4.256  0.0950 -0.3846  0.7472
19489SOL    HW170446  13.941   3.920   4.317  1.8362 -2.2510  2.5317
19489SOL    HW270447  14.015   3.855   4.202  0.2471  0.0652  0.0816
19490SOL     OW70448   4.724  11.180   4.017 -0.5059  0.2419 -0.2782
19490SOL    HW170449   4.720  11.086   4.033  1.7083  0.0938 -0.2957
19490SOL    HW270450   4.690  11.220   4.097  1.0467 -0.5741  0.8295
19491SOL     OW70451   3.293   8.774  12.894  0.1443  0.6339 -0.4045
19491SOL    HW170452   3.243   8.702  12.855  0.8553 -1.0263  1.5221
19491SOL    HW270453   3.384   8.752  12.877  0.4208  0.3844  1.2327
19492SOL     OW70454   7.627   9.757   7.614  0.6833 -0.4192  0.0836
19492SOL    HW170455   7.536   9.774   7.590  1.1043  0.9997 -0.6706
19492SOL    HW270456   7.641   9.664   7.594 -0.2103 -0.3068 -1.1589
19493SOL     OW70457   9.063   3.873   7.893 -0.1620  0.7704  0.0694
19493SOL    HW170458   9.156   3.889   7.912  0.0188  0.8829 -0.8459
19493SOL    HW270459   9.017   3.900   7.972  0.3034  3.6737 -0.5252
19494SOL     OW70460  12.905   6.271   3.341 -0.1133 -0.0556  0.2159
19494SOL    HW170461  12.830   6.252   3.397 -0.0884  2.9302  1.4763
19494SOL    HW270462  12.978   6.283   3.402  0.3179  1.4762 -0.5464
19495SOL     OW70463   0.733  12.254   8.440  0.0341  0.4261 -0.3765
19495SOL    HW170464   0.702  12.172   8.402 -0.8167  0.9416 -0.8521
19495SOL    HW270465   0.815  12.273   8.395  0.8325 -0.7114  0.5329
19496SOL     OW70466   6.005   3.287   3.981  0.3820 -0.4987  0.6252
19496SOL    HW170467   5.923   3.240   3.995 -0.2832  0.4096 -0.0759
19496SOL    HW270468   5.979   3.370   3.941  1.7321 -0.6132 -0.5767
19497SOL     OW70469   9.966   3.003   9.736  0.0835  0.2111  0.3809
19497SOL    HW170470   9.995   2.942   9.668  2.5484  2.1954 -0.4874
19497SOL    HW270471   9.893   3.050   9.696 -0.0564 -0.2909  0.0340
19498SOL     OW70472   9.557   5.344   7.942  0.1376  0.0494 -0.2764
19498SOL    HW170473   9.541   5.269   8.000  1.1486 -0.4705 -0.6358
19498SOL    HW270474   9.650   5.336   7.919  0.2036  1.3063 -0.4841
19499SOL     OW70475   2.937   3.962   4.200 -0.0750  0.0962  0.1449
19499SOL    HW170476   3.000   3.902   4.240 -1.6499 -2.4824 -0.9669
19499SOL    HW270477   2.977   3.987   4.117  1.1412  1.7260  1.1466
19500SOL     OW70478   6.378   7.122  10.544 -0.3392 -0.2013 -0.6200
19500SOL    HW170479   6.452   7.122  10.483 -0.5048  0.7736 -0.8312
19500SOL    HW270480   6.307   7.163  10.495 -1.3740 -2.1275 -0.8265
19501SOL     OW70481   6.780   5.550   2.397  0.4386  0.1447 -0.1036
19501SOL    HW170482   6.826   5.617   2.347  0.4834 -0.4329 -0.8511
19501SOL    HW270483   6.689   5.580   2.399  0.5766  0.5604  0.1479
19502SOL     OW70484  10.324   6.652  13.301  0.5785 -0.1751  0.2542
19502SOL    HW170485  10.365   6.568  13.320  1.5242 -0.0476 -1.1077
19502SOL    HW270486  10.396   6.715  13.302  0.4483  0.1009 -1.8771
19503SOL     OW70487   6.022   8.889   7.793 -0.4046  0.1697 -0.0427
19503SOL    HW170488   5.948   8.832   7.812 -2.3258  2.3146 -0.6216
19503SOL    HW270489   6.024   8.894   7.698 -1.5018  2.4183 -0.0215
19504SOL     OW70490  12.381  13.709   9.403  0.4537  0.6704 -0.4144
19504SOL    HW170491  12.338  13.704   9.317 -0.8332  1.2060  0.1753
19504SOL    HW270492  12.436  13.630   9.407 -0.6738 -0.1781 -1.1000
19505SOL     OW70493   4.333   3.806  12.907 -0.8547 -0.0975  0.1358
19505SOL    HW170494   4.330   3.712  12.926 -0.0764 -0.2078 -0.2578
19505SOL    HW270495   4.412   3.836  12.950 -1.2630  0.4469  0.5158
19506SOL     OW70496  11.689  12.443   9.373 -0.2439 -0.8270  0.1187
19506SOL    HW170497  11.773  12.409   9.405  0.6210  1.2554  0.2017
19506SOL    HW270498  11.699  12.443   9.278 -0.0690 -0.3824  0.1372
19507SOL     OW70499   5.848   5.372   4.184  0.4880 -0.4026  0.3216
19507SOL    HW170500   5.868   5.461   4.213  1.7446 -0.7467  0.6058
19507SOL    HW270501   5.855   5.318   4.263 -0.8034 -0.6976  0.2589
19508SOL     OW70502   9.681  12.389   8.198 -0.0731  0.3098 -0.6670
19508SOL    HW170503   9.695  12.461   8.137  1.4976  0.5828 -0.0413
19508SOL    HW270504   9.620  12.423   8.263 -0.1683  0.7081 -0.9635
19509SOL     OW70505  12.765   1.151   2.136 -0.3047  0.8587  0.6602
19509SOL    HW170506  12.761   1.155   2.041  1.1801  0.8952  0.5782
19509SOL    HW270507  12.675   1.133   2.163 -0.4712 -0.8443 -0.8398
19510SOL     OW70508  12.431   7.857  12.571  0.0469  0.0237  0.5410
19510SOL    HW170509  12.422   7.884  12.479  1.6264  2.2458  0.9668
19510SOL    HW270510  12.485   7.778  12.566 -0.4486 -0.2752 -0.4786
19511SOL     OW70511   8.134  12.537   2.735  0.3258 -0.2657 -0.2560
19511SOL    HW170512   8.208  12.553   2.794  1.3630 -1.7664 -1.0902
19511SOL    HW270513   8.167  12.563   2.648  0.0303 -1.3399 -0.6994
19512SOL     OW70514  13.862   5.031  10.906  0.4441 -0.4664  0.2357
19512SOL    HW170515  13.835   5.123  10.898 -1.2434 -0.8947  0.7508
19512SOL    HW270516  13.883   5.020  10.998 -2.3507 -1.3344  0.8419
19513SOL     OW70517   8.429  12.906   4.314 -0.1030 -0.1551 -0.4900
19513SOL    HW170518   8.367  12.923   4.244  0.5418  3.3512 -0.3755
19513SOL    HW270519   8.515  12.916   4.274  0.3092 -0.3525  0.3134
19514SOL     OW70520   2.054   0.093   7.809  1.0267 -0.1814  0.1748
19514SOL    HW170521   2.030   0.147   7.885 -1.1705 -1.8564  0.7684
19514SOL    HW270522   2.004   0.130   7.737 -0.5737 -1.3983  0.6072
19515SOL     OW70523   7.276   2.950   0.513 -0.5584 -0.3481  0.2279
19515SOL    HW170524   7.320   2.878   0.559 -0.6208  0.3125  1.3644
19515SOL    HW270525   7.343   2.988   0.457 -0.5716 -1.3872 -0.5132
19516SOL     OW70526   7.513   1.777   1.485  0.7392 -0.6409  0.0614
19516SOL    HW170527   7.467   1.820   1.557  1.6019 -0.6205  0.6134
19516SOL    HW270528   7.448   1.771   1.415  0.4166  1.0056  0.1827
19517SOL     OW70529  11.682  11.161   8.798  0.2286 -0.0448  0.3128
19517SOL    HW170530  11.736  11.203   8.731  0.9167 -1.2072  0.0917
19517SOL    HW270531  11.702  11.067   8.788 -0.4356 -0.3238  1.4658
19518SOL     OW70532  12.823   9.362   6.732 -0.0880  0.1472 -0.2492
19518SOL    HW170533  12.827   9.324   6.644 -1.5687 -0.2061 -0.1918
19518SOL    HW270534  12.899   9.326   6.777  1.7463  1.7282 -1.8894
19519SOL     OW70535   2.653   6.515   2.281 -0.3140  0.2798  0.6492
19519SOL    HW170536   2.642   6.436   2.227  0.1333  0.4039  0.3703
19519SOL    HW270537   2.637   6.588   2.221  1.8958  0.4679  0.2277
19520SOL     OW70538   9.850   9.402  10.966  0.3161  0.1391  0.0285
19520SOL    HW170539   9.934   9.358  10.970 -0.5965 -1.6275  2.3475
19520SOL    HW270540   9.802   9.356  10.897 -0.1713 -1.8101  1.5684
19521SOL     OW70541   3.616   4.159   5.895  0.5954 -0.1758 -0.0798
19521SOL    HW170542   3.661   4.235   5.930 -1.5698  0.6086  1.1694
19521SOL    HW270543   3.568   4.192   5.819 -0.5778 -0.2093  0.6330
19522SOL     OW70544  10.960  10.529  13.401  0.0482 -0.5123  0.2954
19522SOL    HW170545  10.933  10.472  13.472  0.1297 -1.4441 -0.4111
19522SOL    HW270546  11.038  10.574  13.435 -0.0815 -0.7388  0.8952
19523SOL     OW70547   2.373   6.758   6.022 -0.8868  0.4735  0.0797
19523SOL    HW170548   2.333   6.679   5.988 -0.7586 -0.3721  1.7919
19523SOL    HW270549   2.326   6.830   5.980 -1.2119 -0.4968 -1.2573
19524SOL     OW70550   2.101   7.349   7.646 -0.0126 -0.0813 -0.3044
19524SOL    HW170551   2.162   7.280   7.621 -0.1680 -0.9607  1.6378
19524SOL    HW270552   2.091   7.340   7.740 -3.1469  0.0330 -0.5331
19525SOL     OW70553   8.909   2.719   4.074 -0.3317  0.3074 -0.2449
19525SOL    HW170554   8.865   2.738   3.991 -1.6295 -2.1870 -0.2490
19525SOL    HW270555   8.844   2.669   4.124  1.9009 -2.1456  0.4282
19526SOL     OW70556  13.306   7.508   2.659 -0.3931  0.5517 -0.0923
19526SOL    HW170557  13.276   7.417   2.652  1.6967 -0.5086  2.6607
19526SOL    HW270558  13.323   7.535   2.569 -1.9960 -1.4264 -1.0611
19527SOL     OW70559   5.764   9.838   0.527 -0.0223  0.4277  0.4203
19527SOL    HW170560   5.793   9.756   0.487  1.7469  0.6770  1.0912
19527SOL    HW270561   5.731   9.812   0.613 -1.9299  0.1421 -0.3472
19528SOL     OW70562   4.968   1.854   6.651  0.1757 -0.0828 -0.2883
19528SOL    HW170563   4.925   1.772   6.629 -2.3830  0.8967  0.7325
19528SOL    HW270564   4.947   1.913   6.579  0.5345  0.1953 -0.1717
19529SOL     OW70565  10.795  12.395   7.862  0.1267  0.6968 -0.0871
19529SOL    HW170566  10.715  12.438   7.892  1.2292  1.8790  1.2835
19529SOL    HW270567  10.849  12.466   7.826  0.9485  0.0731 -0.1258
19530SOL     OW70568   8.606  10.705   3.770 -0.0106 -0.3890 -0.1705
19530SOL    HW170569   8.552  10.764   3.718 -1.1834  1.0517  2.4566
19530SOL    HW270570   8.543  10.651   3.818  0.8835 -0.2618  1.2256
19531SOL     OW70571   4.537   6.871   9.393 -0.1706 -0.2655  0.0854
19531SOL    HW170572   4.571   6.853   9.305  0.4044  0.7790  0.0840
19531SOL    HW270573   4.569   6.958   9.414  1.4892 -1.3027  2.1999
19532SOL     OW70574   1.626  11.109   8.773 -0.1506  0.4956  0.0487
19532SOL    HW170575   1.611  11.017   8.795  2.0097 -0.9687 -3.6602
19532SOL    HW270576   1.552  11.132   8.716  0.6860  0.0838 -1.2479
19533SOL     OW70577   0.341   9.617  11.455 -0.6954 -0.2019 -0.2410
19533SOL    HW170578   0.347   9.669  11.534 -1.8672 -1.3319  0.6352
19533SOL    HW270579   0.404   9.656  11.395 -0.9073  1.6309  0.6850
19534SOL     OW70580   4.495   6.042   4.102 -0.9754 -0.8235 -0.6819
19534SOL    HW170581   4.479   5.954   4.135 -1.5694 -1.1761 -1.8526
19534SOL    HW270582   4.492   6.033   4.007 -0.1947  0.3092 -0.8336
19535SOL     OW70583   8.385  12.893   7.197 -0.2243  0.0811 -0.4613
19535SOL    HW170584   8.367  12.837   7.273 -0.0583 -0.3419 -0.7280
19535SOL    HW270585   8.462  12.944   7.223 -0.1901 -0.0345 -0.3338
19536SOL     OW70586   7.587   8.475  12.306 -0.2742  0.6558  0.2223
19536SOL    HW170587   7.570   8.447  12.396 -0.2713  0.2646  0.1026
19536SOL    HW270588   7.656   8.541  12.314  1.3192 -0.9399  0.3330
19537SOL     OW70589  12.504  12.715  10.550  0.1404  0.5143 -0.0652
19537SOL    HW170590  12.459  12.798  10.560 -0.6629  0.0796 -0.0132
19537SOL    HW270591  12.503  12.675  10.637  1.3904  0.8704  0.1354
19538SOL     OW70592  10.114   1.012   2.318  0.1247  0.0776  0.0130
19538SOL    HW170593  10.201   0.991   2.351  0.5868 -1.1683 -1.8455
19538SOL    HW270594  10.131   1.064   2.239 -0.8909  1.6933  0.8174
19539SOL     OW70595   8.716   7.993  12.529 -0.2904  0.2581 -0.5629
19539SOL    HW170596   8.807   8.020  12.518  0.6626 -3.0667 -2.1582
19539SOL    HW270597   8.713   7.952  12.616  0.2152 -1.0707 -1.1474
19540SOL     OW70598   9.894  12.708   7.222 -0.3450  0.2145  0.3416
19540SOL    HW170599   9.846  12.629   7.196 -0.9042  0.5511  0.3215
19540SOL    HW270600   9.984  12.678   7.237 -0.4449 -0.3340 -0.1238
19541SOL     OW70601   6.563  13.011  13.575  0.2867  0.3383  0.2158
19541SOL    HW170602   6.471  12.992  13.590  0.2090  1.6505  1.5756
19541SOL    HW270603   6.609  12.936  13.613 -0.1868  0.2270  0.5827
19542SOL     OW70604   1.912   6.472   6.889  0.3774 -0.4517 -0.0870
19542SOL    HW170605   1.881   6.483   6.978  0.6130 -0.0695 -0.0509
19542SOL    HW270606   1.859   6.533   6.837  0.5944 -0.3008 -0.1299
19543SOL     OW70607  10.172   8.382   9.869  0.2834  0.1772 -0.5241
19543SOL    HW170608  10.213   8.375   9.956 -0.7018 -0.4794 -0.0914
19543SOL    HW270609  10.082   8.409   9.888  0.3206  0.9624 -1.4149
19544SOL     OW70610   5.030   1.773   7.168 -0.1348  0.3138 -0.5288
19544SOL    HW170611   5.096   1.838   7.144 -0.0662  1.4828  2.3761
19544SOL    HW270612   4.974   1.765   7.090  2.2667  0.7118 -2.3959
19545SOL     OW70613  12.716  10.461   1.477 -0.0831  0.1936 -0.4744
19545SOL    HW170614  12.799  10.420   1.454 -0.5302 -1.4382  0.6497
19545SOL    HW270615  12.725  10.484   1.569 -0.1084  2.0542 -0.8974
19546SOL     OW70616  13.691   4.736   6.218  0.0734 -0.2794 -0.3195
19546SOL    HW170617  13.727   4.647   6.218 -1.7583 -1.0856 -0.7571
19546SOL    HW270618  13.596   4.722   6.221 -0.2630  1.6619 -0.9287
19547SOL     OW70619   8.307   7.502   0.852  0.3030  0.0991  0.1917
19547SOL    HW170620   8.261   7.510   0.768  1.2062  1.6409 -0.1977
19547SOL    HW270621   8.244   7.458   0.910 -0.6065 -0.3303 -1.0705
19548SOL     OW70622   5.700  12.487   6.142  0.1235 -0.0840 -0.1381
19548SOL    HW170623   5.661  12.538   6.071  0.2602 -0.2208 -0.3114
19548SOL    HW270624   5.794  12.499   6.131  0.1405  0.0105  0.1059
19549SOL     OW70625   5.837   0.125   5.590 -0.0564  0.2377 -0.5229
19549SOL    HW170626   5.745   0.104   5.577 -0.2839  2.4546 -3.5724
19549SOL    HW270627   5.884   0.060   5.537  0.0537  0.0415 -0.1882
19550SOL     OW70628   4.464   0.168   4.208  0.8219 -0.4534 -0.1668
19550SOL    HW170629   4.558   0.184   4.203  0.9602 -1.0151  0.5372
19550SOL    HW270630   4.434   0.179   4.118  1.3349  1.0062 -0.1954
19551SOL     OW70631   9.581   3.812  11.034  0.2207  0.1893  0.8056
19551SOL    HW170632   9.570   3.722  11.005  1.0465 -0.4215  2.3036
19551SOL    HW270633   9.562   3.865  10.956 -0.8012 -1.2366  0.0465
19552SOL     OW70634   0.996  13.112   3.772  0.1466 -0.3760  0.1261
19552SOL    HW170635   1.021  13.204   3.763  0.1459 -0.5278 -1.8691
19552SOL    HW270636   0.939  13.110   3.849  0.9018  1.1213  0.7578
19553SOL     OW70637  13.804  11.993  11.309  0.2007  0.4033 -0.5473
19553SOL    HW170638  13.769  12.054  11.374 -0.8343  0.1508 -0.8473
19553SOL    HW270639  13.859  12.047  11.252 -3.3271  1.8847 -2.8773
19554SOL     OW70640  11.038   2.910   0.457  0.3088  0.1443  0.2556
19554SOL    HW170641  11.032   2.939   0.365 -1.5977 -2.2025 -0.4509
19554SOL    HW270642  11.114   2.851   0.458  0.9364  0.9350  0.4561
19555SOL     OW70643   2.135   9.206   8.721 -0.2097 -0.8111  0.6299
19555SOL    HW170644   2.107   9.239   8.636 -2.3549 -1.8762  0.8422
19555SOL    HW270645   2.227   9.182   8.709  0.3630  1.6583 -0.5450
19556SOL     OW70646   2.998  13.618   9.734 -0.0525  1.0774 -0.2477
19556SOL    HW170647   2.989  13.542   9.792  2.1552 -0.4874 -1.7984
19556SOL    HW270648   3.012  13.692   9.793  0.8133 -0.2315  1.2672
19557SOL     OW70649  11.527   9.352   6.721 -0.0424 -0.0877  0.0647
19557SOL    HW170650  11.458   9.375   6.659 -0.9862 -1.0867  0.7046
19557SOL    HW270651  11.505   9.400   6.801  0.5291  0.2988  0.0006
19558SOL     OW70652   2.642   5.838   3.864 -0.2313  0.3229  0.2701
19558SOL    HW170653   2.653   5.931   3.843 -1.7567  0.3896 -0.3644
19558SOL    HW270654   2.678   5.791   3.789 -1.6291  0.4788 -0.5346
19559SOL     OW70655   5.783   4.528   0.903 -0.1442 -0.0776  0.1959
19559SOL    HW170656   5.752   4.442   0.932  3.3702 -1.9054 -0.8547
19559SOL    HW270657   5.779   4.523   0.807  0.6160  0.6946  0.1140
19560SOL     OW70658   7.960   0.590   4.602  0.1556  0.4265 -0.3150
19560SOL    HW170659   8.050   0.595   4.570  1.0559 -0.0490  1.9404
19560SOL    HW270660   7.968   0.549   4.688 -2.2039  0.6130  0.0476
19561SOL     OW70661   1.179   6.715  11.813  0.1320 -0.2869  0.2838
19561SOL    HW170662   1.133   6.636  11.789  1.3621 -0.4340 -1.8098
19561SOL    HW270663   1.266   6.685  11.839  0.4578  0.3235 -0.0790
19562SOL     OW70664   1.723  10.698  10.033  0.4171 -0.0428 -0.4692
19562SOL    HW170665   1.747  10.704  10.125  0.2055 -2.5745 -0.1674
19562SOL    HW270666   1.644  10.752  10.025  1.3571  1.5269  0.4163
19563SOL     OW70667   3.377   2.264   8.894 -0.3977  0.1755 -0.4339
19563SOL    HW170668   3.404   2.349   8.927  0.9031  0.4838 -2.1362
19563SOL    HW270669   3.435   2.247   8.820  0.7809 -3.1139  1.0454
19564SOL     OW70670   0.898  10.026   6.053  0.4099  0.5293 -0.3469
19564SOL    HW170671   0.957  10.006   5.981  2.0556  1.6885  0.6099
19564SOL    HW270672   0.905   9.950   6.112  0.6014  0.4646 -0.4522
19565SOL     OW70673   4.980   6.991   2.859 -0.0253  0.1103  0.0980
19565SOL    HW170674   4.921   7.008   2.786  0.7190  0.9653 -0.3383
19565SOL    HW270675   5.067   7.009   2.823  0.7649 -3.1459  0.0892
19566SOL     OW70676   6.252  12.950   4.702 -0.0423  0.2540 -0.1564
19566SOL    HW170677   6.266  12.864   4.742  0.8176  0.6370  0.4230
19566SOL    HW270678   6.329  12.964   4.647  0.0069  0.7887  0.0345
19567SOL     OW70679  12.206   0.438   8.671 -0.3014 -0.4898  0.8616
19567SOL    HW170680  12.132   0.394   8.714  0.8136 -1.9372  1.3945
19567SOL    HW270681  12.268   0.454   8.742  0.6668 -0.9827  0.1575
19568SOL     OW70682  11.455   5.849   2.789  0.3992  0.4142  0.3478
19568SOL    HW170683  11.436   5.774   2.845 -2.4970  0.2344 -0.7505
19568SOL    HW270684  11.402   5.836   2.711  3.0159  1.5181 -1.7939
19569SOL     OW70685   0.015  13.764   3.127  0.0022  0.0607  0.3382
19569SOL    HW170686   0.018  13.713   3.046 -0.6041 -0.1074  0.4153
19569SOL    HW270687   0.106  13.786   3.145 -0.0098  2.0358 -1.5981
19570SOL     OW70688   1.578  10.011  13.880 -0.1203  0.2354 -0.5690
19570SOL    HW170689   1.671  10.025  13.900 -0.1524  0.2601 -0.4319
19570SOL    HW270690   1.570  10.032  13.787 -0.1530  1.0974 -0.3810
19571SOL     OW70691   9.361   2.148   1.772  0.2856 -0.0869 -0.4572
19571SOL    HW170692   9.436   2.159   1.713  3.4110 -0.2202  3.1204
19571SOL    HW270693   9.365   2.056   1.797 -1.7345 -0.3235 -0.8966
19572SOL     OW70694  13.330  13.903   6.411 -0.2626  0.1661 -0.2438
19572SOL    HW170695  13.266  13.960   6.369  0.3203  1.4377  0.5236
19572SOL    HW270696  13.409  13.911   6.358 -0.7101 -1.4696 -1.2395
19573SOL     OW70697   3.540  13.648   1.900 -0.0106 -0.1639 -0.2282
19573SOL    HW170698   3.600  13.607   1.838 -0.0912 -0.9131  0.1774
19573SOL    HW270699   3.516  13.731   1.859  0.1472 -0.5245 -1.0706
19574SOL     OW70700   4.912  11.680   1.234 -0.4561  0.0279  0.7395
19574SOL    HW170701   4.871  11.599   1.262 -2.9671  0.2731 -1.7802
19574SOL    HW270702   4.847  11.722   1.178  1.8877  2.3344 -0.4894
19575SOL     OW70703   9.446   0.935   4.659 -0.2848  0.3546  0.3757
19575SOL    HW170704   9.510   0.887   4.712  0.4321 -0.9392 -1.5501
19575SOL    HW270705   9.487   0.942   4.573 -2.5431 -0.1293 -0.8123
19576SOL     OW70706   5.092   7.384   8.031  0.3095  0.2392  0.5733
19576SOL    HW170707   5.026   7.415   7.969  0.1933  0.8269  0.9923
19576SOL    HW270708   5.153   7.457   8.039  0.1408  0.2961  1.4076
19577SOL     OW70709  11.494   2.201  12.844 -0.3892  0.2984 -0.0818
19577SOL    HW170710  11.572   2.190  12.790  0.3462  0.1117  0.9895
19577SOL    HW270711  11.425   2.227  12.782  0.3220 -0.3209 -1.1522
19578SOL     OW70712   4.480   0.891   1.349 -0.1025 -0.1606 -0.3681
19578SOL    HW170713   4.537   0.929   1.282  0.5487 -1.2757 -0.4603
19578SOL    HW270714   4.430   0.824   1.303 -1.1418  0.4612 -0.1740
19579SOL     OW70715  12.705  10.078   6.566  0.0152 -0.0588 -0.0148
19579SOL    HW170716  12.699  10.038   6.653 -0.3087  1.0076  0.4758
19579SOL    HW270717  12.765  10.152   6.578 -0.5284  0.4774 -0.5478
19580SOL     OW70718   4.038   2.033   9.140 -0.0211 -0.2922 -0.4220
19580SOL    HW170719   4.017   2.063   9.051  0.8208 -1.4946 -1.0481
19580SOL    HW270720   3.997   2.098   9.197 -0.4481  0.5925 -1.6885
19581SOL     OW70721  13.899   0.168   9.066 -0.1409  0.2518 -0.4377
19581SOL    HW170722  13.975   0.130   9.111 -1.9704 -2.6920  0.4389
19581SOL    HW270723  13.928   0.179   8.976  1.6410  0.2602  0.0905
19582SOL     OW70724   8.837   1.683  11.382  0.2240  0.2083 -0.2073
19582SOL    HW170725   8.778   1.706  11.310  0.5830  0.3060 -0.4719
19582SOL    HW270726   8.924   1.680  11.342  0.4905  0.7406  0.3224
19583SOL     OW70727  12.533   7.716   0.897  0.2128 -0.1741  0.3327
19583SOL    HW170728  12.466   7.656   0.930  0.0749  0.5409  1.4020
19583SOL    HW270729  12.575   7.751   0.975  0.2898  1.1303 -0.2680
19584SOL     OW70730   2.943   1.169  10.917 -0.0983  0.0695  0.4870
19584SOL    HW170731   2.913   1.179  10.827  2.7211 -0.4869 -0.6321
19584SOL    HW270732   2.966   1.258  10.944  0.5840  0.0490  0.0162
19585SOL     OW70733   0.098   5.478  10.224  0.3649  0.4210 -0.5192
19585SOL    HW170734   0.178   5.499  10.175  1.7980  0.5270  1.7336
19585SOL    HW270735   0.121   5.402  10.277 -1.6918 -0.7920 -1.2522
19586SOL     OW70736   5.410   8.815   9.234 -0.0853 -0.0694  1.1755
19586SOL    HW170737   5.326   8.768   9.237 -0.9469  1.4504  1.9372
19586SOL    HW270738   5.422   8.849   9.322  0.1150  1.7339  0.5018
19587SOL     OW70739   3.503   4.332   5.218  0.7935 -0.2045  0.2250
19587SOL    HW170740   3.597   4.336   5.233  0.3978 -0.4313  3.4112
19587SOL    HW270741   3.489   4.384   5.138  3.4688  0.7729  0.3138
19588SOL     OW70742   1.042  10.487   3.193  0.3953  0.0886  0.4309
19588SOL    HW170743   1.023  10.576   3.163  0.6174  0.3675  1.0922
19588SOL    HW270744   0.993  10.478   3.275  0.2369 -0.4613  0.2837
19589SOL     OW70745   8.143   1.695  12.427  0.4405 -0.4576  0.2379
19589SOL    HW170746   8.185   1.641  12.360  0.2632 -2.4494  1.6456
19589SOL    HW270747   8.202   1.689  12.502 -0.6740 -0.5105  1.1320
19590SOL     OW70748   8.543  13.096   1.522  0.2492 -0.1562 -0.0049
19590SOL    HW170749   8.536  13.137   1.436  0.9066 -0.3135 -0.1317
19590SOL    HW270750   8.573  13.167   1.579 -1.3548  0.2747  0.3565
19591SOL     OW70751  12.581   6.713  13.085  0.3220 -0.0325  0.0996
19591SOL    HW170752  12.507   6.748  13.036  1.8087  0.6557 -1.7734
19591SOL    HW270753  12.655   6.769  13.061  1.7661 -1.5721  0.7387
19592SOL     OW70754   0.542   3.170   3.308 -0.4609 -0.2516 -0.3746
19592SOL    HW170755   0.471   3.219   3.267  0.1991  0.7406 -0.3648
19592SOL    HW270756   0.609   3.164   3.239 -0.3046 -0.6370 -0.1874
19593SOL     OW70757  13.498   0.004   5.259 -0.2604  0.5582  0.8581
19593SOL    HW170758  13.425   0.066   5.259  0.0766  0.9889 -0.9714
19593SOL    HW270759  13.573   0.054   5.228  0.3484 -0.4119  0.7229
19594SOL     OW70760  12.608   3.145   6.595  0.1186 -0.1724 -0.2773
19594SOL    HW170761  12.699   3.123   6.618  0.6031  0.3581 -1.5783
19594SOL    HW270762  12.570   3.061   6.567 -0.1091 -0.5841  1.2034
19595SOL     OW70763  10.738  13.157  12.652 -0.2845  0.2127 -0.5280
19595SOL    HW170764  10.764  13.134  12.741  0.6328  2.0272 -0.2641
19595SOL    HW270765  10.683  13.085  12.623  3.4460 -3.0294 -0.3887
19596SOL     OW70766   5.028   5.903   9.990  0.3243 -0.1332 -0.2279
19596SOL    HW170767   4.959   5.848   9.953 -0.0948  0.6429 -0.6561
19596SOL    HW270768   5.083   5.844  10.040 -0.6902 -0.7654  0.1722
19597SOL     OW70769   6.484   1.072  10.570  0.1663  0.6327  0.2044
19597SOL    HW170770   6.424   0.997  10.571 -0.6489  1.2467  1.9415
19597SOL    HW270771   6.443   1.134  10.510  0.6955 -0.1543 -1.0166
19598SOL     OW70772   4.710   1.274   1.101  0.4230 -0.3971 -0.7478
19598SOL    HW170773   4.713   1.263   1.196 -0.1965 -0.1000 -0.6839
19598SOL    HW270774   4.703   1.369   1.088 -0.8578 -0.5003 -1.0236
19599SOL     OW70775  13.388   7.165   1.420  0.1117 -0.5393  0.0796
19599SOL    HW170776  13.375   7.148   1.514 -1.3006 -1.2767 -0.2283
19599SOL    HW270777  13.301   7.156   1.382  0.4253  1.0950 -1.1195
19600SOL     OW70778   3.637   2.299   6.315 -0.3494  0.1373 -0.3345
19600SOL    HW170779   3.596   2.273   6.397 -1.2222 -1.0440 -1.1119
19600SOL    HW270780   3.641   2.219   6.263  1.8847  0.4509 -0.7712
19601SOL     OW70781   5.518   7.609  11.956 -0.2678  0.2801 -0.3194
19601SOL    HW170782   5.518   7.699  11.988  1.3936  0.6661 -1.2766
19601SOL    HW270783   5.603   7.575  11.984 -0.2174 -0.4664 -1.3562
19602SOL     OW70784   5.929   9.036   5.723  0.0269 -0.0971 -0.0799
19602SOL    HW170785   5.955   8.948   5.750 -1.2460 -0.5983 -0.4546
19602SOL    HW270786   6.012   9.078   5.697  0.7158 -0.9798  0.6314
19603SOL     OW70787   1.352   9.995   7.073 -0.4802 -0.1028 -0.2796
19603SOL    HW170788   1.440  10.033   7.082 -0.7148  0.4938 -0.4489
19603SOL    HW270789   1.331   9.963   7.161  0.0150 -0.4942 -0.2984
19604SOL     OW70790  11.599  12.663   1.920 -0.2304  0.0622 -0.0006
19604SOL    HW170791  11.610  12.573   1.887  0.7421  0.4411 -0.7918
19604SOL    HW270792  11.655  12.666   1.998  0.4039  0.1968 -0.4470
19605SOL     OW70793  10.143   1.785   5.499 -0.0630  0.1215 -0.0476
19605SOL    HW170794  10.151   1.733   5.580 -2.5909  0.0734  0.2362
19605SOL    HW270795  10.131   1.720   5.430  0.5347  0.2265 -0.2599
19606SOL     OW70796  11.063  14.013  13.231 -0.2519 -0.1954  0.3779
19606SOL    HW170797  10.978  13.984  13.263 -0.7597 -1.2455 -1.7694
19606SOL    HW270798  11.044  14.056  13.147  1.3286 -0.4221 -0.1327
19607SOL     OW70799   8.631   4.548   7.266  0.0288  0.1273  0.6280
19607SOL    HW170800   8.589   4.567   7.349  0.4348 -1.2084  1.1632
19607SOL    HW270801   8.559   4.531   7.206 -0.3170  2.3306  0.3381
19608SOL     OW70802   1.600   8.064   1.132  0.3294 -0.0955 -0.4055
19608SOL    HW170803   1.663   8.013   1.183 -1.1259 -1.3065  0.2337
19608SOL    HW270804   1.622   8.155   1.152  0.7285 -0.5264  1.2357
19609SOL     OW70805   6.930   7.742   9.755 -0.2283 -0.4229 -0.8028
19609SOL    HW170806   6.875   7.668   9.779 -0.2078 -0.8351 -1.9499
19609SOL    HW270807   7.013   7.728   9.801 -0.6417 -0.4689 -0.0716
19610SOL     OW70808   1.683   8.893   1.337 -0.4922 -0.2870 -0.4195
19610SOL    HW170809   1.730   8.915   1.257  0.7434 -0.6147  0.1898
19610SOL    HW270810   1.751   8.869   1.399 -1.4822 -0.8630  0.4824
19611SOL     OW70811   2.980   8.896  10.766 -0.1266  0.1379 -0.6787
19611SOL    HW170812   3.055   8.931  10.814  0.6344 -0.8854 -1.0770
19611SOL    HW270813   2.919   8.867  10.833  0.5751 -0.5521 -0.3309
19612SOL     OW70814   1.872  13.154   3.616  0.6737  0.0090  0.3441
19612SOL    HW170815   1.912  13.075   3.653  0.3540 -0.1195  0.4207
19612SOL    HW270816   1.781  13.130   3.602  0.6215  0.3023  0.1765
19613SOL     OW70817   3.607   3.683   4.819  0.3888  0.4762  0.0017
19613SOL    HW170818   3.573   3.593   4.825  1.5705 -0.1628 -1.8066
19613SOL    HW270819   3.544   3.728   4.762 -0.0862  0.7378  0.7299
19614SOL     OW70820   1.971   2.816   2.978 -0.1228  0.3055  0.4623
19614SOL    HW170821   2.033   2.780   3.042 -0.4415 -0.3740  0.3960
19614SOL    HW270822   2.000   2.781   2.894 -0.2420  0.4600  0.3575
19615SOL     OW70823   8.693  10.775  10.408  0.4610  1.0933  0.0799
19615SOL    HW170824   8.638  10.728  10.470  0.8721 -0.3017 -0.5757
19615SOL    HW270825   8.632  10.826  10.355 -0.6473 -2.5270 -2.4721
19616SOL     OW70826   9.597   7.940   8.735  0.2599 -0.4445  0.0637
19616SOL    HW170827   9.523   7.883   8.752 -0.9901  1.1206  0.1397
19616SOL    HW270828   9.674   7.890   8.762 -0.5253 -2.8859 -1.8764
19617SOL     OW70829  10.031   6.278   3.308 -0.0086 -0.1997 -0.2085
19617SOL    HW170830   9.942   6.243   3.317 -0.3950  0.1558 -2.1750
19617SOL    HW270831  10.065   6.280   3.397 -2.0708 -0.0994  0.6390
19618SOL     OW70832  12.529  12.252   1.060 -0.0627  0.3075 -0.5743
19618SOL    HW170833  12.582  12.252   1.140  2.8322  4.4169 -2.1393
19618SOL    HW270834  12.467  12.324   1.073 -1.9237 -1.1758 -0.8145
19619SOL     OW70835   2.033   1.255  13.780  0.4749  0.4971  0.4165
19619SOL    HW170836   2.045   1.170  13.823  0.7597  0.8300  0.9922
19619SOL    HW270837   2.035   1.319  13.851  0.5125  1.0137 -0.0459
19620SOL     OW70838   5.565   8.533  10.477 -0.1649 -0.4859 -0.3298
19620SOL    HW170839   5.618   8.458  10.448  0.9872  0.1105  0.1740
19620SOL    HW270840   5.613   8.610  10.446  0.4289  0.1412  2.0006
19621SOL     OW70841  12.579  11.221  13.543 -0.3148 -0.0705  0.0488
19621SOL    HW170842  12.649  11.182  13.595  0.0126  0.6879  0.1817
19621SOL    HW270843  12.621  11.289  13.491 -1.3816  2.5561  2.3867
19622SOL     OW70844   9.578   8.961   9.515 -0.1810  0.1585 -0.2242
19622SOL    HW170845   9.547   9.022   9.448  2.1946  1.5976 -0.1262
19622SOL    HW270846   9.660   8.999   9.547  1.0831 -2.7417  0.3580
19623SOL     OW70847  11.396   4.448   2.042 -0.1870 -0.2111 -0.2918
19623SOL    HW170848  11.356   4.362   2.029 -1.4718  0.2855  0.2097
19623SOL    HW270849  11.489   4.429   2.056 -0.3578 -1.4679 -0.7005
19624SOL     OW70850   4.818   7.848   0.719  0.1861  0.2348 -1.0442
19624SOL    HW170851   4.873   7.789   0.667 -2.0159 -2.1795 -0.7969
19624SOL    HW270852   4.732   7.843   0.678 -1.0442  0.0953  1.4203
19625SOL     OW70853  11.471  13.749   4.856 -0.2807 -0.9982 -0.5287
19625SOL    HW170854  11.460  13.797   4.774  2.2244  1.0919  0.2424
19625SOL    HW270855  11.565  13.740   4.866 -0.5010 -1.0832  2.2003
19626SOL     OW70856   8.081   7.555   1.363 -0.4541 -0.2736 -0.1807
19626SOL    HW170857   8.177   7.546   1.366 -0.3708  0.7650  0.9790
19626SOL    HW270858   8.061   7.567   1.270  0.6596  0.5357 -0.3373
19627SOL     OW70859   4.263   7.474   7.674  0.0614  0.0073  0.0390
19627SOL    HW170860   4.211   7.554   7.683 -0.0033  0.0199 -0.4185
19627SOL    HW270861   4.200   7.403   7.691  0.2176  0.0573  0.8853
19628SOL     OW70862   8.100   2.856   3.600 -0.2960  0.3512  0.2110
19628SOL    HW170863   8.045   2.805   3.660 -0.4519  1.5722  1.1442
19628SOL    HW270864   8.117   2.938   3.647  0.1818  1.0491 -1.1285
19629SOL     OW70865  13.774   7.865  13.057  0.0681  0.4217 -0.1699
19629SOL    HW170866  13.750   7.818  13.137 -0.6157 -1.2550 -1.3181
19629SOL    HW270867  13.870   7.866  13.058  0.0694  0.5387  0.7203
19630SOL     OW70868   1.169   9.436   2.853  0.1047 -0.3298 -0.7154
19630SOL    HW170869   1.262   9.418   2.866  0.4080  0.5876 -1.4605
19630SOL    HW270870   1.124   9.363   2.894  1.1023  0.1795  1.4132
19631SOL     OW70871   8.254   0.358   3.707 -0.1064 -0.4869  0.2984
19631SOL    HW170872   8.328   0.389   3.759  0.9533 -0.7203 -1.0017
19631SOL    HW270873   8.196   0.433   3.700 -0.2961 -0.4641  1.8273
19632SOL     OW70874  13.441  10.290   3.945  0.8574  0.0542  0.4592
19632SOL    HW170875  13.393  10.371   3.928  0.8936 -0.2203 -1.1443
19632SOL    HW270876  13.386  10.242   4.007 -0.0924  0.5024 -0.0153
19633SOL     OW70877   0.136   6.080   3.535 -0.1974 -0.1008  0.1436
19633SOL    HW170878   0.066   6.072   3.600 -1.4235  0.1963 -1.0959
19633SOL    HW270879   0.178   6.164   3.555 -1.6607  0.8063 -0.4584
19634SOL     OW70880  11.046   4.312  13.381  0.3765  0.0387 -0.2836
19634SOL    HW170881  11.135   4.279  13.390  1.2514  2.4508  1.0485
19634SOL    HW270882  11.039   4.338  13.289  1.0873 -0.1278 -0.3889
19635SOL     OW70883   7.420  11.771   0.821 -0.2640 -0.4623  0.7440
19635SOL    HW170884   7.403  11.679   0.801  0.4479 -0.5293  0.4198
19635SOL    HW270885   7.410  11.816   0.738 -2.1617  0.0042  1.1899
19636SOL     OW70886   5.281  10.742   1.736  0.4283 -0.7725  0.1461
19636SOL    HW170887   5.314  10.743   1.646 -1.3854 -1.1019 -0.5807
19636SOL    HW270888   5.252  10.832   1.751  1.2013 -0.5973  0.5961
19637SOL     OW70889  11.021  12.076  12.989  0.1164  0.0468 -0.4298
19637SOL    HW170890  11.021  12.073  13.085 -0.8042 -2.4539 -0.4118
19637SOL    HW270891  10.932  12.102  12.966 -0.3259 -1.4322 -0.5334
19638SOL     OW70892   5.528   3.096   4.875  0.0334  0.4352  0.4427
19638SOL    HW170893   5.573   3.019   4.840 -0.5383  0.2751  0.0388
19638SOL    HW270894   5.559   3.104   4.965  0.0331 -0.3228  0.5131
19639SOL     OW70895   5.242   9.819   3.601 -0.3509 -0.2025 -0.8455
19639SOL    HW170896   5.170   9.879   3.619 -0.6564 -1.0285  0.9140
19639SOL    HW270897   5.256   9.826   3.506 -2.1438  0.6323 -1.0958
19640SOL     OW70898   5.136   6.234   1.925  0.3604  0.2754 -0.9101
19640SOL    HW170899   5.189   6.214   1.848 -0.2041 -0.5655 -1.0924
19640SOL    HW270900   5.109   6.149   1.958  1.7145  0.5347  1.0379
19641SOL     OW70901   5.184   1.190  10.512 -0.9453 -0.0689 -0.1642
19641SOL    HW170902   5.144   1.233  10.437 -0.0803 -1.2706 -1.3411
19641SOL    HW270903   5.111   1.163  10.567 -1.5875  0.6106 -0.6712
19642SOL     OW70904   4.366   4.902   6.505  0.2724  0.1330  1.1404
19642SOL    HW170905   4.284   4.932   6.465 -0.6034 -1.5079  1.6076
19642SOL    HW270906   4.338   4.841   6.574  1.8836 -0.6797  1.1257
19643SOL     OW70907   6.379   1.754   2.140 -0.3177 -0.2515 -0.1083
19643SOL    HW170908   6.299   1.797   2.111 -0.7095  0.7645  2.2102
19643SOL    HW270909   6.441   1.768   2.069 -1.9809 -0.4849 -1.6699
19644SOL     OW70910  13.086   4.246   4.229 -0.0600 -0.0271 -0.7440
19644SOL    HW170911  13.085   4.249   4.324 -0.2971  0.7385 -0.7660
19644SOL    HW270912  12.996   4.220   4.205  0.1311 -0.6915 -0.7476
19645SOL     OW70913  12.036   9.794  11.679  0.4578 -0.5327  0.7142
19645SOL    HW170914  12.077   9.879  11.665  1.5841 -1.0612  0.7083
19645SOL    HW270915  12.103   9.730  11.656 -0.7573 -1.4530 -0.5033
19646SOL     OW70916   6.865  13.691  13.028 -0.1361  0.0367  0.1497
19646SOL    HW170917   6.948  13.684  12.981  0.9263 -1.3689  2.1347
19646SOL    HW270918   6.811  13.621  12.991  1.2861 -2.1852  2.0159
19647SOL     OW70919   1.763   1.650   5.914 -0.0378 -0.0166 -0.3607
19647SOL    HW170920   1.719   1.724   5.955 -2.7196 -0.9725 -1.2772
19647SOL    HW270921   1.805   1.686   5.836  0.8793  0.9323  0.5451
19648SOL     OW70922   1.116   0.970   1.105  0.6123  0.3504 -0.5946
19648SOL    HW170923   1.036   0.950   1.154 -0.8556 -1.0884 -3.3396
19648SOL    HW270924   1.133   1.062   1.123  0.7699 -0.2666  3.2710
19649SOL     OW70925  12.232  11.695  13.544 -0.3037 -0.7148  0.1929
19649SOL    HW170926  12.327  11.701  13.534 -0.1965  0.6854  1.7096
19649SOL    HW270927  12.214  11.601  13.547  0.7604 -1.0621 -2.0344
19650SOL     OW70928   2.754   7.804   2.899 -0.6606 -0.0795  0.2763
19650SOL    HW170929   2.755   7.862   2.975 -1.5579  2.5483 -1.5636
19650SOL    HW270930   2.677   7.748   2.912  0.4366 -1.1965  2.2776
19651SOL     OW70931   6.508   9.874  13.614 -0.5856 -0.2184  0.1832
19651SOL    HW170932   6.528   9.923  13.694 -0.6534  0.6482 -0.3174
19651SOL    HW270933   6.456   9.934  13.561 -0.0703 -0.5666 -0.7553
19652SOL     OW70934   8.585   7.942  10.588  0.1045  0.0797 -0.2196
19652SOL    HW170935   8.591   8.006  10.517 -0.2183  0.4243  0.0580
19652SOL    HW270936   8.493   7.914  10.587  0.4677 -1.1472 -0.9951
19653SOL     OW70937  12.277   3.479   2.740 -0.3079 -0.1195 -0.1767
19653SOL    HW170938  12.249   3.533   2.666  1.8106  0.0066 -0.9591
19653SOL    HW270939  12.330   3.410   2.701 -0.5994 -1.0750  1.0811
19654SOL     OW70940   1.452   6.910   3.277 -0.3718 -0.0073 -0.1832
19654SOL    HW170941   1.413   6.822   3.277  1.5972 -0.9608 -0.6318
19654SOL    HW270942   1.448   6.938   3.186  0.2554 -0.2598 -0.2947
19655SOL     OW70943  13.431   1.190   8.440 -0.2200 -0.2649  0.3413
19655SOL    HW170944  13.492   1.162   8.373  0.1178  2.0251 -0.3825
19655SOL    HW270945  13.459   1.144   8.519  1.0078 -0.9906 -0.4916
19656SOL     OW70946   5.262   1.732  11.133  0.0321  0.5438 -0.0000
19656SOL    HW170947   5.272   1.779  11.216  1.0003  0.1367  0.1329
19656SOL    HW270948   5.272   1.799  11.066 -1.5657  1.0195  0.1977
19657SOL     OW70949   4.780  11.976   7.899  0.5171 -0.2439 -0.3534
19657SOL    HW170950   4.698  11.980   7.850  0.9511 -0.9004 -1.1451
19657SOL    HW270951   4.848  11.970   7.832  1.1428 -0.8462  0.3165
19658SOL     OW70952   6.404   2.192  10.499  0.0748 -0.2576 -1.2483
19658SOL    HW170953   6.484   2.241  10.479  0.6374 -1.0558 -0.9936
19658SOL    HW270954   6.387   2.209  10.591  1.0998 -1.6618 -0.7554
19659SOL     OW70955  13.296   3.287  13.103 -0.0624 -0.1573 -0.2754
19659SOL    HW170956  13.209   3.247  13.094  0.3563 -0.8379 -1.5943
19659SOL    HW270957  13.315   3.282  13.197 -0.5914 -1.9038 -0.2228
19660SOL     OW70958   4.326  14.007   4.253 -0.0312  0.0986  0.4584
19660SOL    HW170959   4.366  14.092   4.237  2.6155 -1.1374 -0.0436
19660SOL    HW270960   4.311  14.005   4.347  2.0683  0.3156  0.8571
19661SOL     OW70961   9.002   5.272  11.242  0.3069  0.2753 -0.5901
19661SOL    HW170962   9.016   5.233  11.328 -0.7490 -0.3079 -0.6683
19661SOL    HW270963   9.040   5.360  11.249 -1.2330  0.8747  1.0044
19662SOL     OW70964  12.883   0.445   6.509 -0.1668  0.4692 -0.5882
19662SOL    HW170965  12.911   0.464   6.599 -2.2454 -0.7007  0.3957
19662SOL    HW270966  12.840   0.526   6.480 -1.1035  0.2701  0.1960
19663SOL     OW70967   4.750   2.915   1.751 -0.1379 -0.7832  0.4698
19663SOL    HW170968   4.683   2.848   1.757 -0.1937 -0.6802  1.0649
19663SOL    HW270969   4.833   2.867   1.756 -0.1446 -0.6758  3.2761
19664SOL     OW70970   7.869  13.289   4.397  0.0822  0.8309 -0.5670
19664SOL    HW170971   7.885  13.264   4.488 -2.0935  1.9606  0.1869
19664SOL    HW270972   7.793  13.236   4.372 -0.2423  1.6033 -1.2322
19665SOL     OW70973  10.129   4.987   5.113  0.0924 -0.0719 -0.4852
19665SOL    HW170974  10.159   5.028   5.194  1.6388  0.3296 -1.2317
19665SOL    HW270975  10.139   4.893   5.127  0.8688  0.0214 -0.4010
19666SOL     OW70976   4.785   2.023   4.564  0.6883  0.0466 -0.4547
19666SOL    HW170977   4.876   2.044   4.585  1.2095 -0.4284 -2.0922
19666SOL    HW270978   4.789   1.935   4.526 -0.5479 -0.2385  0.0264
19667SOL     OW70979   5.858   3.934  13.191  0.1326 -0.0170  0.0382
19667SOL    HW170980   5.914   3.961  13.264  0.0562  0.6641 -0.1486
19667SOL    HW270981   5.860   3.838  13.194  1.4902 -0.0117 -0.0956
19668SOL     OW70982   4.323   3.688  11.506  0.8212  0.5354 -0.6381
19668SOL    HW170983   4.298   3.650  11.422 -0.0187  3.1324 -1.6542
19668SOL    HW270984   4.407   3.647  11.527  0.4093 -1.1658 -2.0244
19669SOL     OW70985  10.038   1.830   6.294 -0.1686  0.1441  0.2998
19669SOL    HW170986  10.072   1.740   6.293 -1.8325 -0.5346 -0.6619
19669SOL    HW270987  10.091   1.876   6.230 -0.1903 -0.5524 -0.2385
19670SOL     OW70988   8.204   4.189  10.312 -0.2399 -0.0154 -0.4255
19670SOL    HW170989   8.169   4.105  10.339  0.0320 -0.2195 -0.7057
19670SOL    HW270990   8.160   4.208  10.229 -1.7899  1.0532  0.5741
19671SOL     OW70991   3.913   7.439  11.863 -0.1384  0.7690  0.0833
19671SOL    HW170992   3.858   7.362  11.850 -1.6201  1.8216 -0.1175
19671SOL    HW270993   4.000   7.412  11.835 -0.7649 -0.6350 -0.5713
19672SOL     OW70994   7.638   8.189  12.276 -0.0129  0.3050  0.2339
19672SOL    HW170995   7.602   8.147  12.197 -1.4923 -0.4680  1.2706
19672SOL    HW270996   7.598   8.276  12.277 -1.0161 -0.1390  0.7670
19673SOL     OW70997   7.862   1.502   5.232 -0.3318  0.0055 -0.6548
19673SOL    HW170998   7.926   1.543   5.290 -1.1968  0.6654 -0.1426
19673SOL    HW270999   7.839   1.420   5.276 -1.0414  0.5391 -0.0094
19674SOL     OW71000   0.241   4.585   7.740 -0.0966 -0.0475  0.2087
19674SOL    HW171001   0.216   4.562   7.651  0.1255  0.4986 -0.0006
19674SOL    HW271002   0.175   4.649   7.767  0.0420  0.0534  0.3095
19675SOL     OW71003  13.828   1.036   8.814  0.4316  0.1978  0.9468
19675SOL    HW171004  13.799   1.126   8.830 -0.2815 -0.2662  2.4615
19675SOL    HW271005  13.883   1.015   8.890 -0.6388 -1.1209  1.3956
19676SOL     OW71006   4.464  10.299   0.758  0.0317  0.2483  0.0913
19676SOL    HW171007   4.534  10.346   0.712  1.3195 -0.1307  1.5650
19676SOL    HW271008   4.490  10.207   0.752 -2.3129 -0.3937 -2.5314
19677SOL     OW71009   9.005   8.468  13.216  0.1651  0.2714  0.9389
19677SOL    HW171010   8.974   8.427  13.135 -0.4281  0.0612  1.2642
19677SOL    HW271011   9.100   8.468  13.208  0.1022  1.7528 -0.4955
19678SOL     OW71012   8.329  10.783   4.847 -0.0094 -0.1095  0.1102
19678SOL    HW171013   8.380  10.707   4.817 -0.3062 -0.7125  1.0632
19678SOL    HW271014   8.376  10.859   4.813  0.0005 -0.7301 -1.3183
19679SOL     OW71015   5.668   5.613   9.458 -0.2232  0.4703  0.3676
19679SOL    HW171016   5.677   5.517   9.456 -1.8215  0.1804  2.6394
19679SOL    HW271017   5.732   5.641   9.522  1.2262  1.1388 -1.3120
19680SOL     OW71018   3.355  10.675   9.482  0.3606  0.1122  0.1836
19680SOL    HW171019   3.439  10.688   9.439 -0.1182 -0.8088 -1.0857
19680SOL    HW271020   3.359  10.730   9.561  2.0256  0.2882 -0.0022
19681SOL     OW71021   6.226   4.960   2.546  0.4008 -0.5615 -0.1484
19681SOL    HW171022   6.293   4.892   2.539  1.4868  0.5114 -0.4623
19681SOL    HW271023   6.212   4.970   2.640  2.1944  0.6036  0.0404
19682SOL     OW71024   2.023   2.418   8.751  0.6377  0.8175 -0.3697
19682SOL    HW171025   2.022   2.344   8.691  0.8344  0.0348  0.5824
19682SOL    HW271026   1.930   2.436   8.769  0.5648 -1.3190  1.9273
19683SOL     OW71027   0.550  11.321   4.695  0.1025  0.4486 -0.1807
19683SOL    HW171028   0.644  11.319   4.679  0.0769  0.1680 -0.3163
19683SOL    HW271029   0.538  11.271   4.776  0.1873  1.4940  0.4831
19684SOL     OW71030   3.025   0.347   9.400  0.2422 -0.0234 -0.1292
19684SOL    HW171031   3.013   0.303   9.316  1.9884 -0.0590 -0.3851
19684SOL    HW271032   2.963   0.302   9.459 -1.3783  0.3522 -1.4653
19685SOL     OW71033   8.410  11.622  11.287  0.3643  0.1300  0.0809
19685SOL    HW171034   8.457  11.646  11.367  0.3595  0.5659 -0.0435
19685SOL    HW271035   8.471  11.641  11.217  0.1673  0.2732 -0.0529
19686SOL     OW71036   9.379   6.132  11.723  0.0273 -0.1770  0.5886
19686SOL    HW171037   9.389   6.220  11.689  0.2385 -0.2534  0.4500
19686SOL    HW271038   9.467   6.108  11.753  0.5244 -1.2430 -1.5574
19687SOL     OW71039   9.125   5.853   3.654  0.5046 -0.1623  0.2931
19687SOL    HW171040   9.110   5.875   3.562  2.1064  1.5147  0.3730
19687SOL    HW271041   9.040   5.823   3.685  0.0101 -1.1360 -1.8142
19688SOL     OW71042   0.504   8.875   9.493  0.4606  0.2336  0.8250
19688SOL    HW171043   0.590   8.917   9.501  1.9527 -2.8710  3.1213
19688SOL    HW271044   0.446   8.931   9.545  1.8606  0.7124  1.9445
19689SOL     OW71045   5.587   1.674   9.754 -0.0288 -0.2246 -0.4348
19689SOL    HW171046   5.535   1.653   9.676  1.3555  0.0209 -1.4627
19689SOL    HW271047   5.628   1.592   9.779 -0.9765 -0.4434  0.4464
19690SOL     OW71048   2.815   1.512  10.324 -0.2754 -0.4262  0.3443
19690SOL    HW171049   2.908   1.536  10.328 -0.3197 -0.3770  1.1607
19690SOL    HW271050   2.793   1.520  10.231  0.1208  1.1334  0.3604
19691SOL     OW71051  11.449   9.645   9.638  0.4215 -0.1744 -0.4044
19691SOL    HW171052  11.387   9.696   9.691  0.2931  0.8776 -1.5320
19691SOL    HW271053  11.439   9.555   9.670 -1.7534 -0.0643 -0.6064
19692SOL     OW71054   0.098   3.613  13.790 -0.0601 -0.1646 -0.5688
19692SOL    HW171055   0.043   3.577  13.860  0.8877  0.0299  0.2955
19692SOL    HW271056   0.154   3.541  13.764  2.0768  0.6567  1.3990
19693SOL     OW71057   5.361   4.913   6.052 -0.0857  0.1785 -0.3246
19693SOL    HW171058   5.449   4.916   6.016  1.2098 -1.8446  2.3466
19693SOL    HW271059   5.360   4.982   6.119 -0.7656  0.5745 -0.7293
19694SOL     OW71060   7.983  10.931   2.854 -0.1186 -0.3687  0.1400
19694SOL    HW171061   7.889  10.915   2.852 -0.2128  0.1341  0.4364
19694SOL    HW271062   7.993  11.009   2.909  0.1524  1.8222 -2.7715
19695SOL     OW71063   8.599   9.348   5.860  0.3767 -0.3063  0.3829
19695SOL    HW171064   8.580   9.300   5.779  0.1321  1.3281 -0.5656
19695SOL    HW271065   8.636   9.281   5.918  2.0222 -1.2442 -1.5963
19696SOL     OW71066  10.708   5.628  11.463  0.2595 -0.2113  0.4973
19696SOL    HW171067  10.772   5.577  11.415  0.0380  0.0691 -0.1076
19696SOL    HW271068  10.723   5.606  11.555  2.1320  0.8694  0.4988
19697SOL     OW71069   9.671   9.825  10.546  0.4787 -0.1184 -0.5920
19697SOL    HW171070   9.762   9.842  10.570  0.3045  1.0146 -0.6806
19697SOL    HW271071   9.665   9.729  10.542  1.7687 -0.2014 -1.0140
19698SOL     OW71072   2.576   7.592   2.975  0.1428 -0.5487  0.0135
19698SOL    HW171073   2.534   7.590   3.061  0.2978 -2.2355  0.0920
19698SOL    HW271074   2.669   7.578   2.994  0.0812 -1.7138 -0.4504
19699SOL     OW71075   7.120   4.792   7.144  0.1696 -0.2164 -0.6019
19699SOL    HW171076   7.215   4.780   7.146  0.6890  2.7155 -1.8796
19699SOL    HW271077   7.108   4.886   7.158 -2.6228 -0.6120  0.1623
19700SOL     OW71078   3.396   7.891  11.213 -0.1610  0.3341 -0.1180
19700SOL    HW171079   3.304   7.877  11.190  0.2609 -0.3191 -1.5601
19700SOL    HW271080   3.438   7.807  11.196  0.9611  1.0134 -0.8504
19701SOL     OW71081   2.814  12.772  11.589  0.2871 -0.1427 -0.7171
19701SOL    HW171082   2.764  12.692  11.605 -2.0411  1.0814 -1.4635
19701SOL    HW271083   2.753  12.843  11.608  2.5264  1.5464  0.7246
19702SOL     OW71084  12.162   3.941   0.629 -0.8023  0.5729  0.3980
19702SOL    HW171085  12.142   3.884   0.555 -2.2517  0.8539  0.5450
19702SOL    HW271086  12.190   4.023   0.589  2.3944 -0.4941  0.1677
19703SOL     OW71087   3.056   1.883  12.071 -0.2793  0.6489 -0.2017
19703SOL    HW171088   3.093   1.932  11.997  0.7751  1.7895  1.0231
19703SOL    HW271089   3.132   1.847  12.116 -0.8735  0.3479  0.5799
19704SOL     OW71090   4.497   5.315   2.374 -0.8385 -0.1717 -0.3758
19704SOL    HW171091   4.534   5.244   2.321 -0.6711  1.7525 -3.0665
19704SOL    HW271092   4.572   5.353   2.419 -0.6376 -0.4940 -0.4308
19705SOL     OW71093  10.984  12.231   7.295  0.0747  0.6415 -0.5354
19705SOL    HW171094  10.929  12.156   7.316 -0.8457  1.4987  0.1512
19705SOL    HW271095  10.923  12.302   7.277  0.9134  1.0646 -1.9080
19706SOL     OW71096   5.994   6.674  10.044 -0.4081 -0.0255 -0.9314
19706SOL    HW171097   5.982   6.651  10.136 -1.2159 -0.6530 -1.1895
19706SOL    HW271098   5.980   6.593   9.996 -0.9206  0.4930 -1.6848
19707SOL     OW71099   5.788   0.880   0.220 -0.3621  0.6877 -0.5471
19707SOL    HW171100   5.817   0.950   0.279 -0.5348  0.5657 -0.3138
19707SOL    HW271101   5.844   0.889   0.143 -0.6355  1.3164 -0.6734
19708SOL     OW71102   7.992   3.033   6.178 -0.1420  0.0290 -0.1758
19708SOL    HW171103   7.910   3.079   6.160  0.0884  0.7850  0.6175
19708SOL    HW271104   7.965   2.951   6.220 -0.4754  0.6763  0.9135
19709SOL     OW71105   6.581   9.993   4.397 -0.1480 -0.3366 -0.2599
19709SOL    HW171106   6.637   9.916   4.383  0.1530 -0.1210 -0.2524
19709SOL    HW271107   6.556   9.986   4.489 -2.1562 -1.7648 -0.8547
19710SOL     OW71108   4.193   6.651   0.712  0.0939  0.3852  0.4034
19710SOL    HW171109   4.169   6.723   0.654 -1.1033  0.2563  0.7224
19710SOL    HW271110   4.252   6.692   0.777 -0.8883  1.1833  0.8252
19711SOL     OW71111   6.395   3.902   1.600 -0.0118  0.4130 -0.0782
19711SOL    HW171112   6.384   3.978   1.542 -1.1157 -0.6456 -1.3419
19711SOL    HW271113   6.330   3.915   1.669 -0.2377  0.6088 -0.3215
19712SOL     OW71114   9.966  10.171   5.621 -0.2222  0.0846 -0.8705
19712SOL    HW171115   9.929  10.159   5.534 -1.0710  0.1310 -0.5295
19712SOL    HW271116  10.058  10.190   5.606 -0.9387  3.2953 -1.9577
19713SOL     OW71117   0.198   0.367   5.172  0.7758 -0.5754 -0.1561
19713SOL    HW171118   0.117   0.416   5.162  0.0439 -1.6413  0.3787
19713SOL    HW271119   0.266   0.425   5.137 -0.2661  0.1528 -1.0214
19714SOL     OW71120   0.680  12.274   0.032  0.2747 -0.1318 -0.0153
19714SOL    HW171121   0.590  12.239   0.032  0.4140 -0.5269 -0.9862
19714SOL    HW271122   0.686  12.324  -0.050  0.6561  0.6606  0.4886
19715SOL     OW71123   7.721  10.912   5.159 -0.2185  0.0504  0.1101
19715SOL    HW171124   7.761  10.988   5.116 -0.8656 -0.3504 -1.2663
19715SOL    HW271125   7.627  10.931   5.158 -0.2591  0.0008  1.3378
19716SOL     OW71126   7.027  11.201   3.646  0.4218  0.3639 -0.5142
19716SOL    HW171127   6.981  11.176   3.726 -0.6387 -1.1789 -1.5260
19716SOL    HW271128   7.021  11.296   3.643 -0.7156  0.3490  0.5497
19717SOL     OW71129  12.289   5.025  10.143 -0.1389  0.0425 -0.3962
19717SOL    HW171130  12.362   5.069  10.187 -0.3434  0.3772 -0.3977
19717SOL    HW271131  12.232   4.996  10.214 -1.9495  3.0551 -0.4817
19718SOL     OW71132   8.176  12.723   1.160 -0.1221  0.1005 -0.4084
19718SOL    HW171133   8.234  12.795   1.185 -0.2383 -0.2263  0.8591
19718SOL    HW271134   8.105  12.765   1.111 -1.1283  1.1305  1.8070
19719SOL     OW71135   2.424  13.075   5.035 -0.3728 -0.2597  0.2192
19719SOL    HW171136   2.447  13.119   5.117 -1.0200  1.7974 -0.6328
19719SOL    HW271137   2.357  13.011   5.060 -0.6834  0.4550  1.2680
19720SOL     OW71138  10.423   7.883   1.952 -0.6368  0.9902 -0.3875
19720SOL    HW171139  10.353   7.860   2.014 -0.0658 -0.9514 -0.3997
19720SOL    HW271140  10.504   7.858   1.997  0.2597  4.3111  0.1246
19721SOL     OW71141   0.946   2.846  10.161 -0.2844  0.0231  0.2638
19721SOL    HW171142   0.979   2.867  10.073 -1.8418  1.0172 -0.1212
19721SOL    HW271143   0.852   2.837  10.150 -0.1497 -4.2178  1.0547
19722SOL     OW71144   8.296  10.280   9.704  0.4781 -0.6522  0.0100
19722SOL    HW171145   8.307  10.197   9.659  1.1763  0.1508 -1.3424
19722SOL    HW271146   8.202  10.296   9.701  0.1850 -1.8999  1.2808
19723SOL     OW71147   5.034  12.634   8.213  0.5597  0.0117 -0.0772
19723SOL    HW171148   5.029  12.592   8.299  1.5868 -0.7319 -0.3602
19723SOL    HW271149   5.071  12.567   8.156  1.1747  0.9402 -0.8013
19724SOL     OW71150   3.508  12.109   3.521  0.4801 -0.6807  0.2848
19724SOL    HW171151   3.478  12.033   3.471  0.5928 -0.3733 -0.2606
19724SOL    HW271152   3.431  12.165   3.527  0.8902  0.0418 -0.9904
19725SOL     OW71153   3.539   6.920   2.352 -0.0582  0.7537 -0.0605
19725SOL    HW171154   3.485   6.841   2.357  0.7140  0.2243  0.1834
19725SOL    HW271155   3.603   6.901   2.283  0.9765  0.6071  0.9056
19726SOL     OW71156   9.756  11.803  11.248 -0.0249 -0.3790 -0.4179
19726SOL    HW171157   9.824  11.865  11.222  1.1429 -0.9517  1.1122
19726SOL    HW271158   9.696  11.856  11.301  1.4294 -0.6355  1.6145
19727SOL     OW71159   7.995   6.971  12.656 -0.1043  0.3757  0.1959
19727SOL    HW171160   8.073   7.000  12.704  0.6094  0.7543 -1.1459
19727SOL    HW271161   7.997   7.021  12.574 -1.7497  0.3590  0.1212
19728SOL     OW71162   1.867   9.928   9.002  0.4198 -0.4628 -0.1002
19728SOL    HW171163   1.897   9.839   9.019  0.7694 -0.4033 -0.4037
19728SOL    HW271164   1.940   9.984   9.027  0.2176 -0.2628  0.0503
19729SOL     OW71165   2.150   8.849  13.722  0.3200  0.2229  0.2583
19729SOL    HW171166   2.164   8.832  13.815  2.5277  0.5686  0.0524
19729SOL    HW271167   2.170   8.765  13.679  1.0800  0.5296 -0.0098
19730SOL     OW71168   8.971  11.575   9.851  0.1556  0.3265  0.4333
19730SOL    HW171169   8.993  11.493   9.896  1.1445  1.0689  1.3549
19730SOL    HW271170   9.041  11.587   9.787 -0.1176  0.3480  0.1338
19731SOL     OW71171   2.287   7.048   5.283 -0.4280 -0.0942 -0.1433
19731SOL    HW171172   2.224   7.061   5.353  0.4698  0.2729  0.6099
19731SOL    HW271173   2.273   6.958   5.254 -0.2177 -0.5444  1.1129
19732SOL     OW71174   1.718   3.456   6.156 -0.3817  0.0786 -0.0876
19732SOL    HW171175   1.699   3.363   6.164 -0.3346  0.1348  0.7139
19732SOL    HW271176   1.796   3.470   6.211 -0.4442  0.6053 -0.1255
19733SOL     OW71177   8.250   9.802   8.626 -0.4517  0.6283 -0.4539
19733SOL    HW171178   8.226   9.881   8.675 -1.9918 -0.1078  0.0529
19733SOL    HW271179   8.262   9.735   8.693  0.4074  0.3140 -0.9082
19734SOL     OW71180   1.122   5.281   5.075  0.3676  0.4753  0.1274
19734SOL    HW171181   1.201   5.238   5.041 -0.0559 -1.3397  1.3208
19734SOL    HW271182   1.117   5.254   5.166 -2.1167 -0.1832 -0.1394
19735SOL     OW71183   0.403   4.770   4.541  0.1382  0.2459 -0.3918
19735SOL    HW171184   0.434   4.682   4.516  0.0062  0.0415  0.1459
19735SOL    HW271185   0.393   4.765   4.636  1.0857  1.1555 -0.2344
19736SOL     OW71186   3.062  13.063   3.834 -0.3073 -0.4713  0.3101
19736SOL    HW171187   3.087  13.067   3.741  1.8251 -0.1279  0.8465
19736SOL    HW271188   3.024  13.150   3.852 -2.8909 -1.2736 -0.7169
19737SOL     OW71189   9.057   1.219   5.839  0.4403 -0.1804 -0.0517
19737SOL    HW171190   9.094   1.130   5.843  2.0818  0.3217 -2.0543
19737SOL    HW271191   9.123   1.270   5.792 -0.9835  1.8340  0.0157
19738SOL     OW71192   4.166   4.598   7.796 -0.1588  0.1653 -0.1686
19738SOL    HW171193   4.087   4.652   7.790  1.1120  2.2273  0.7175
19738SOL    HW271194   4.229   4.641   7.739  1.0556 -0.0678  0.9468
19739SOL     OW71195   9.241   9.747   5.977  0.5717  0.2530  0.4411
19739SOL    HW171196   9.250   9.819   6.040 -0.3293  2.1964 -1.4972
19739SOL    HW271197   9.147   9.743   5.960  0.6531 -1.1845  0.2172
19740SOL     OW71198  13.149   1.785   5.922  0.5133  0.3288 -0.4332
19740SOL    HW171199  13.056   1.798   5.938  0.2415  0.4524 -1.9338
19740SOL    HW271200  13.173   1.854   5.861  1.1176 -0.8385 -1.5762
19741SOL     OW71201   5.529  11.546   0.571 -0.4488 -0.3639  0.0792
19741SOL    HW171202   5.522  11.613   0.639 -2.1426 -0.4758  0.0558
19741SOL    HW271203   5.469  11.477   0.599 -0.0488 -1.0765 -0.7794
19742SOL     OW71204  10.208   5.035   7.234  0.4971  0.2468  0.3448
19742SOL    HW171205  10.163   4.957   7.201 -2.0542  1.4609  0.6738
19742SOL    HW271206  10.301   5.018   7.218 -0.0212 -2.5175 -0.2534
19743SOL     OW71207   2.281   0.791  13.312 -0.2849  0.5058 -0.1908
19743SOL    HW171208   2.282   0.806  13.217 -3.2945 -0.9612 -0.5894
19743SOL    HW271209   2.274   0.695  13.320 -3.5573  0.7484  1.2930
19744SOL     OW71210   1.462   1.737   1.803  0.4523 -0.8248  0.2223
19744SOL    HW171211   1.492   1.827   1.817  1.2565 -1.1462  0.6430
19744SOL    HW271212   1.464   1.726   1.708  0.3097 -0.3906  0.1659
19745SOL     OW71213  11.956   6.163   7.347  0.7850 -0.2740 -0.1432
19745SOL    HW171214  11.860   6.163   7.340  0.8723 -1.5249 -1.7598
19745SOL    HW271215  11.985   6.228   7.284  1.0266  0.1429  0.3824
19746SOL     OW71216   9.756   6.459   1.609  0.0792 -0.6417  0.2251
19746SOL    HW171217   9.707   6.377   1.602 -0.2630 -0.4068 -0.1943
19746SOL    HW271218   9.749   6.499   1.522  1.1933 -0.6966  0.1000
19747SOL     OW71219  13.077  11.816   8.075 -0.6834  0.1677  0.1856
19747SOL    HW171220  13.169  11.816   8.050 -0.8211 -1.0553 -0.3505
19747SOL    HW271221  13.075  11.775   8.161 -0.7810 -0.1931  0.0104
19748SOL     OW71222  10.073   5.299   3.849  0.1644  0.1551  0.4666
19748SOL    HW171223  10.035   5.275   3.765 -1.9393 -0.9098  1.6452
19748SOL    HW271224  10.025   5.246   3.913  1.4400  1.1991  2.3798
19749SOL     OW71225   6.484   6.701  12.176 -0.3544 -0.1002  0.1394
19749SOL    HW171226   6.532   6.764  12.121  0.2619 -2.4234 -2.1936
19749SOL    HW271227   6.524   6.616  12.156 -1.5457 -1.3790  2.6790
19750SOL     OW71228   6.042   5.017   7.672 -0.3898 -0.2642 -0.1147
19750SOL    HW171229   6.045   5.065   7.755  0.0714  0.4393 -0.5333
19750SOL    HW271230   5.948   5.001   7.657 -0.3866 -2.1428  1.5099
19751SOL     OW71231  13.609   9.532  11.823  0.2985  0.4458 -0.0312
19751SOL    HW171232  13.634   9.441  11.839  0.9529  0.7076  0.5169
19751SOL    HW271233  13.650   9.581  11.895 -2.3691  0.8480  1.3079
19752SOL     OW71234   0.350  12.492   2.008  0.0229 -0.6016  0.1511
19752SOL    HW171235   0.348  12.493   1.912 -0.3182  1.2006  0.1546
19752SOL    HW271236   0.297  12.415   2.031  1.6133 -2.1681 -1.0867
19753SOL     OW71237   3.301  12.621  11.294 -0.2984  0.0740 -0.5091
19753SOL    HW171238   3.259  12.544  11.330  0.0286  1.1310  2.4790
19753SOL    HW271239   3.395  12.601  11.296 -0.3371 -0.3637 -2.1841
19754SOL     OW71240   8.433  13.524  13.173  0.1101  0.1158  0.2357
19754SOL    HW171241   8.436  13.542  13.267 -1.5283  0.4578  0.2620
19754SOL    HW271242   8.440  13.611  13.132 -3.3534  0.5137  0.2239
19755SOL     OW71243   8.115   3.336   1.569 -0.2768 -0.1907  0.3529
19755SOL    HW171244   8.114   3.381   1.485 -0.3058  0.1824  0.5516
19755SOL    HW271245   8.208   3.336   1.595 -0.5393  1.9754  1.5264
19756SOL     OW71246  13.559  12.854   6.504 -0.2857  0.1397 -0.0355
19756SOL    HW171247  13.602  12.811   6.430 -0.9812 -0.7596  0.0674
19756SOL    HW271248  13.493  12.910   6.465 -1.5580 -1.3324 -0.0889
19757SOL     OW71249   7.290   6.904  12.607 -0.3780  0.6679 -0.4828
19757SOL    HW171250   7.351   6.968  12.644  0.6365 -0.3379 -0.3523
19757SOL    HW271251   7.263   6.941  12.524 -0.1348  1.4558 -0.2183
19758SOL     OW71252   2.170   5.998   6.827 -0.1844 -0.4442  0.2481
19758SOL    HW171253   2.217   6.073   6.790 -0.8132  0.7350  1.7317
19758SOL    HW271254   2.083   6.032   6.848  0.2285 -0.8629  3.1343
19759SOL     OW71255   8.318   5.280  11.708  0.4396  0.4943  0.1588
19759SOL    HW171256   8.241   5.274  11.765  0.9971  0.7255  0.9559
19759SOL    HW271257   8.389   5.244  11.761  0.8114 -0.0768 -0.7172
19760SOL     OW71258   4.765  13.453  12.955  0.6383  0.2085  0.4516
19760SOL    HW171259   4.694  13.504  12.915 -0.8879 -3.3286 -1.7661
19760SOL    HW271260   4.737  13.440  13.045  0.3559  1.8979  0.6569
19761SOL     OW71261  11.675   3.614  12.916 -0.2945  0.0492  0.2704
19761SOL    HW171262  11.614   3.580  12.982 -2.5837 -0.3388 -1.9047
19761SOL    HW271263  11.693   3.703  12.945 -0.2909 -0.4693  2.0119
19762SOL     OW71264   5.035   9.416  11.776  0.1205  0.3732 -0.3307
19762SOL    HW171265   5.003   9.476  11.843  2.6137  0.7025  0.6419
19762SOL    HW271266   5.124   9.445  11.757 -0.2524 -0.1189 -3.3474
19763SOL     OW71267   0.303   5.155   4.273 -0.3412  0.4069  0.5680
19763SOL    HW171268   0.395   5.155   4.302  0.0684  0.4506 -0.6484
19763SOL    HW271269   0.301   5.088   4.204 -0.7816  1.6804 -0.6985
19764SOL     OW71270   7.418  12.796   2.040  0.0626 -0.3221 -0.2923
19764SOL    HW171271   7.455  12.772   2.125 -0.3597 -1.5388 -0.4301
19764SOL    HW271272   7.493  12.811   1.984  0.3441 -0.1744  0.1230
19765SOL     OW71273   7.626   5.413   2.456 -0.2333  0.0385  0.2805
19765SOL    HW171274   7.597   5.367   2.535  0.4191 -0.5351  0.1938
19765SOL    HW271275   7.548   5.459   2.426 -0.3335  0.8052  1.6295
19766SOL     OW71276   1.240  11.033   3.813 -0.4929 -0.3152  0.8666
19766SOL    HW171277   1.253  10.938   3.814 -1.2499 -0.4922 -0.9517
19766SOL    HW271278   1.145  11.044   3.808 -0.3678  0.4551 -0.5288
19767SOL     OW71279   7.466   0.604   0.755 -1.2012  0.2039 -0.4315
19767SOL    HW171280   7.436   0.629   0.668 -1.8088  3.2726  0.5387
19767SOL    HW271281   7.553   0.641   0.762 -2.0213  2.0084  0.9883
19768SOL     OW71282   2.827  10.085   9.577  0.5042 -0.5511  0.0772
19768SOL    HW171283   2.817  10.178   9.556  0.7602 -0.3332  0.8859
19768SOL    HW271284   2.746  10.045   9.547 -0.3096  0.2040  1.1662
19769SOL     OW71285  10.979  10.158  11.643  0.2630 -0.0418  0.0727
19769SOL    HW171286  10.970  10.207  11.725  1.0551  0.5518 -0.1840
19769SOL    HW271287  10.970  10.224  11.575  1.1025 -0.2882 -0.2835
19770SOL     OW71288   8.391   6.090   3.799  0.2007 -0.5424  0.5946
19770SOL    HW171289   8.370   6.157   3.734  0.2232 -1.1971 -0.1048
19770SOL    HW271290   8.475   6.116   3.836 -0.3479  0.4431  1.1922
19771SOL     OW71291   6.232   3.096   6.740  0.7223 -0.2858 -0.2081
19771SOL    HW171292   6.302   3.055   6.689  0.9152  0.7830 -0.8347
19771SOL    HW271293   6.277   3.145   6.807  0.5745  0.3178 -0.5451
19772SOL     OW71294  10.928   1.260   6.915  0.0611  0.6543 -0.3637
19772SOL    HW171295  10.926   1.333   6.977  1.2229  1.4423 -1.2212
19772SOL    HW271296  10.979   1.193   6.960 -0.6503  0.5043  0.2546
19773SOL     OW71297   8.931   9.628   0.840  0.3526 -0.2428 -0.8467
19773SOL    HW171298   8.907   9.703   0.787  2.2511  1.3693  0.4178
19773SOL    HW271299   8.930   9.660   0.930  1.0482 -1.7710 -0.2439
19774SOL     OW71300   4.588  12.194   7.340  0.5854 -0.3820  0.5153
19774SOL    HW171301   4.658  12.149   7.293 -0.1275 -0.6164 -0.3281
19774SOL    HW271302   4.603  12.172   7.432  1.9321  0.0097  0.4138
19775SOL     OW71303  12.783  13.333   4.457  0.0979 -0.5220 -0.4877
19775SOL    HW171304  12.719  13.370   4.518 -0.7537 -0.9303 -1.1225
19775SOL    HW271305  12.837  13.276   4.511  1.7787  1.9473  0.6419
19776SOL     OW71306  11.525   9.042  12.525 -0.2037  0.8459 -0.3354
19776SOL    HW171307  11.595   9.095  12.564 -1.1887  1.8394  0.1710
19776SOL    HW271308  11.519   9.073  12.435 -1.2940  2.2352  0.1651
19777SOL     OW71309  11.649  10.961   9.400 -0.4210 -0.2891 -0.3681
19777SOL    HW171310  11.629  11.001   9.485 -0.1662 -0.4789 -0.2187
19777SOL    HW271311  11.658  11.035   9.341  4.1569  0.2880  0.6840
19778SOL     OW71312  12.915   9.716   9.585 -0.3106  0.4863 -0.0657
19778SOL    HW171313  12.890   9.633   9.543  0.4006  0.6497 -0.8538
19778SOL    HW271314  12.945   9.690   9.673  1.4542 -0.3396 -0.8542
19779SOL     OW71315  12.227   9.033   2.033  0.3674  0.6956  0.4743
19779SOL    HW171316  12.181   9.116   2.044 -0.7738 -0.0442  1.6209
19779SOL    HW271317  12.310   9.046   2.080  0.9724  1.7270 -0.8149
19780SOL     OW71318   8.729   6.108   5.576  0.6862  0.3568 -0.2117
19780SOL    HW171319   8.731   6.124   5.481  1.3670  0.8544 -0.1302
19780SOL    HW271320   8.700   6.191   5.613  1.7474  0.6169  0.0814
19781SOL     OW71321   7.871  13.663  10.507 -0.0129  0.0045  0.3591
19781SOL    HW171322   7.962  13.689  10.519 -0.6538  1.7788  1.7960
19781SOL    HW271323   7.843  13.632  10.593 -0.7257 -0.6813 -0.1078
19782SOL     OW71324   5.276   4.690  11.973 -0.1939  0.2750  0.6236
19782SOL    HW171325   5.221   4.706  11.897 -1.5211  1.2672  1.7185
19782SOL    HW271326   5.314   4.604  11.959 -0.1209  0.5904 -1.3002
19783SOL     OW71327   4.040   8.180   5.857 -0.1305 -0.3456  0.2957
19783SOL    HW171328   4.027   8.272   5.881 -1.6103 -0.9278  1.9147
19783SOL    HW271329   4.130   8.177   5.823  0.1146  1.6067  0.6577
19784SOL     OW71330   8.182   1.988   4.884  0.2787 -0.4016 -0.0289
19784SOL    HW171331   8.137   1.996   4.968 -2.2387 -0.0909 -1.2923
19784SOL    HW271332   8.111   1.979   4.820  2.0867 -0.4652 -2.1491
19785SOL     OW71333   8.518   7.378   2.615  0.3304 -0.2286 -0.0255
19785SOL    HW171334   8.577   7.451   2.599 -1.7913  1.3120 -1.4858
19785SOL    HW271335   8.435   7.405   2.574 -0.8177 -3.0803  0.1674
19786SOL     OW71336  11.501  12.464   5.468 -0.1026  0.1234  0.2414
19786SOL    HW171337  11.408  12.455   5.447 -0.1161  1.1999 -0.2424
19786SOL    HW271338  11.526  12.379   5.505 -1.2841 -0.1658  0.4202
19787SOL     OW71339   8.815   0.159  12.719 -0.0978 -0.3112 -0.3714
19787SOL    HW171340   8.862   0.168  12.801  0.4079 -1.0980 -0.5680
19787SOL    HW271341   8.759   0.082  12.731 -0.8820  0.2409 -0.3644
19788SOL     OW71342   5.194   9.033  12.940  0.1240  0.1948  0.3000
19788SOL    HW171343   5.236   9.056  12.856  1.6050 -0.8553  0.6984
19788SOL    HW271344   5.167   9.117  12.977 -1.4704  0.6248 -1.6468
19789SOL     OW71345   3.058   2.588   7.604  0.0048 -0.2827 -0.2628
19789SOL    HW171346   3.048   2.644   7.527  2.9731  1.2774  0.3554
19789SOL    HW271347   3.150   2.561   7.602  0.2238 -0.1222  2.7570
19790SOL     OW71348   3.855   3.390  11.870  0.1983 -0.1072 -0.6655
19790SOL    HW171349   3.771   3.391  11.916  0.4650  0.3346 -0.1807
19790SOL    HW271350   3.831   3.397  11.777 -0.3634 -1.4612 -0.6581
19791SOL     OW71351   0.734   4.300   1.476 -0.0356 -0.0110 -0.3927
19791SOL    HW171352   0.795   4.231   1.502  1.1758  0.4585 -1.8321
19791SOL    HW271353   0.654   4.282   1.526  1.0842 -0.9607  1.1500
19792SOL     OW71354  10.792   2.004   3.860  0.1442 -0.0602 -0.6453
19792SOL    HW171355  10.814   2.022   3.952 -2.2207  1.4843 -0.2964
19792SOL    HW271356  10.863   2.044   3.810  0.5041  0.7596  0.4753
19793SOL     OW71357   2.845   0.262   2.764 -0.1235 -0.4711  0.4032
19793SOL    HW171358   2.781   0.218   2.709 -0.9005  0.2267  0.7297
19793SOL    HW271359   2.827   0.229   2.852  0.1651 -0.4934  0.4556
19794SOL     OW71360   2.455   7.160  10.774 -0.0507  0.7108 -0.8484
19794SOL    HW171361   2.409   7.211  10.840 -0.1895  1.5204 -1.5510
19794SOL    HW271362   2.546   7.191  10.778 -0.1679  1.1454 -1.3841
19795SOL     OW71363   1.954   3.686   9.983  0.1101 -0.0873 -0.0933
19795SOL    HW171364   2.034   3.687   9.930  0.1959  1.5852  0.0120
19795SOL    HW271365   1.974   3.741  10.058 -0.3349 -1.6629  1.2415
19796SOL     OW71366   3.881  11.166   0.488  0.2749  0.1346 -0.3177
19796SOL    HW171367   3.874  11.203   0.400  1.1570 -1.7094 -1.2099
19796SOL    HW271368   3.969  11.128   0.491  0.2151  0.0475  1.3243
19797SOL     OW71369   6.159   2.205  12.773 -0.0203  0.3790  0.1931
19797SOL    HW171370   6.152   2.123  12.725 -1.6945  0.2624  0.5904
19797SOL    HW271371   6.083   2.256  12.745 -0.1573  0.9386  1.5122
19798SOL     OW71372   2.946  10.379   5.166 -0.0856  0.0427  0.2290
19798SOL    HW171373   2.886  10.346   5.099 -0.0816 -0.2708  0.3780
19798SOL    HW271374   3.014  10.425   5.117 -0.2618  0.1012  0.0375
19799SOL     OW71375  10.926   6.266   0.586 -0.8505 -0.3092  0.0101
19799SOL    HW171376  10.919   6.172   0.569 -0.9974 -0.3728  0.4323
19799SOL    HW271377  10.938   6.305   0.499  0.7500 -0.8609 -0.0488
19800SOL     OW71378   2.968  12.420   2.170 -0.0459  0.3298  0.3471
19800SOL    HW171379   2.995  12.334   2.201  1.5456  0.5978 -0.2359
19800SOL    HW271380   2.933  12.404   2.083  1.3266  0.4023 -0.2374
19801SOL     OW71381  10.751   0.097   3.827 -0.2917  0.0367  1.0616
19801SOL    HW171382  10.711   0.084   3.913 -1.7089  0.7248  0.5373
19801SOL    HW271383  10.696   0.047   3.767  0.4601 -0.1337  0.4968
19802SOL     OW71384   5.618   5.551   2.329 -0.1877  0.8172 -0.0032
19802SOL    HW171385   5.680   5.594   2.389  0.7506 -0.3441 -0.0964
19802SOL    HW271386   5.546   5.523   2.385 -0.1599  1.2839  0.2789
19803SOL     OW71387   9.126   0.500   8.089  0.2278 -0.0954 -0.1109
19803SOL    HW171388   9.038   0.476   8.061  1.0275 -2.1716 -0.9870
19803SOL    HW271389   9.130   0.473   8.181 -0.2745  0.7484  0.1749
19804SOL     OW71390   8.785  11.913   5.829  0.4559 -0.5966  0.4247
19804SOL    HW171391   8.693  11.893   5.845  0.1244  0.0704 -0.5590
19804SOL    HW271392   8.802  11.989   5.884  0.3837 -0.6304  0.4946
19805SOL     OW71393   4.131  13.272   7.956 -0.1506 -0.2627 -0.2923
19805SOL    HW171394   4.052  13.219   7.949  0.0406 -0.7421  0.8358
19805SOL    HW271395   4.104  13.350   8.005 -0.5848  1.0689 -2.5267
19806SOL     OW71396  11.606   2.492   0.887 -0.4190 -0.0749 -0.2002
19806SOL    HW171397  11.543   2.555   0.923  0.6621  0.1536  1.3987
19806SOL    HW271398  11.631   2.529   0.802 -1.6425  0.3475 -0.4053
19807SOL     OW71399   0.811  11.660   1.605 -0.4795 -0.0464 -0.8530
19807SOL    HW171400   0.854  11.575   1.612  0.4447  0.5265  1.1973
19807SOL    HW271401   0.751  11.663   1.680 -0.2704  1.2084 -0.7136
19808SOL     OW71402   4.960   3.468  12.736  0.0198 -0.2650 -0.0895
19808SOL    HW171403   5.033   3.480  12.675 -0.1990 -1.6530 -0.6745
19808SOL    HW271404   5.001   3.444  12.818  0.2564  0.0495 -0.1122
19809SOL     OW71405   6.565  10.366  13.279 -0.0071 -0.4725 -0.2738
19809SOL    HW171406   6.495  10.338  13.338 -1.2882  0.8873 -1.0694
19809SOL    HW271407   6.561  10.305  13.205 -0.9445  0.0787 -0.7014
19810SOL     OW71408   7.626   5.651   0.313 -0.3697 -0.2576 -0.5754
19810SOL    HW171409   7.628   5.727   0.371 -1.1925 -0.0339 -0.8315
19810SOL    HW271410   7.588   5.683   0.232 -2.1499 -1.2607 -0.1821
19811SOL     OW71411   4.646   5.266   6.152 -0.4198  0.3637 -0.4458
19811SOL    HW171412   4.645   5.336   6.217  0.7162  0.4114 -0.4599
19811SOL    HW271413   4.583   5.202   6.185  0.0502  0.4463  0.6447
19812SOL     OW71414  10.564   9.417   7.354 -0.0770  0.3408  0.3845
19812SOL    HW171415  10.577   9.416   7.259  1.8578 -0.4255  0.6175
19812SOL    HW271416  10.507   9.492   7.369 -0.7178  0.2599 -1.4113
19813SOL     OW71417   1.096   7.477   6.068 -0.0410  0.4855  1.0959
19813SOL    HW171418   1.142   7.559   6.051 -0.2416  0.4776  0.4752
19813SOL    HW271419   1.014   7.485   6.019  0.8220 -0.9237 -0.7407
19814SOL     OW71420  10.232  13.712  11.772  0.5089 -0.0739  0.4338
19814SOL    HW171421  10.282  13.636  11.801 -0.7616 -0.4300  1.7996
19814SOL    HW271422  10.155  13.675  11.729 -2.1782  0.1476  4.4445
19815SOL     OW71423  12.160   7.700   4.196  0.4858  0.1790 -0.1034
19815SOL    HW171424  12.155   7.626   4.256  1.0739  1.4156  1.5589
19815SOL    HW271425  12.197   7.771   4.248  2.3823  0.9575 -2.3118
19816SOL     OW71426   5.233  10.208   8.347 -0.7461  0.4963  0.0946
19816SOL    HW171427   5.153  10.240   8.305 -0.8118  0.5398  0.2552
19816SOL    HW271428   5.267  10.284   8.394  0.3890  1.0245 -1.4967
19817SOL     OW71429  11.546   2.978   8.959 -0.2430 -0.0016 -0.3131
19817SOL    HW171430  11.455   2.994   8.934 -0.0162  3.2322  0.5147
19817SOL    HW271431  11.564   2.890   8.928 -3.4723 -0.5436 -1.0006
19818SOL     OW71432   9.449  13.774  12.066 -0.5714  0.0514  0.1019
19818SOL    HW171433   9.489  13.715  12.130  0.5691 -0.7259 -1.2725
19818SOL    HW271434   9.366  13.800  12.106 -0.9206 -2.1501  0.9154
19819SOL     OW71435   2.778   5.603   1.912  0.8813  0.0466 -0.2027
19819SOL    HW171436   2.814   5.548   1.981  0.7033  0.2112  0.0252
19819SOL    HW271437   2.685   5.611   1.933  1.0237  0.9683  0.1479
19820SOL     OW71438   6.121  10.291   1.176 -0.2863  0.2481  0.1801
19820SOL    HW171439   6.057  10.225   1.204 -3.1810  1.2439 -3.3279
19820SOL    HW271440   6.094  10.370   1.222  0.8633 -0.0681  1.4985
19821SOL     OW71441  12.047   8.620  12.047 -0.5198  0.3348 -0.0517
19821SOL    HW171442  12.008   8.633  12.134 -2.1766 -0.1326 -0.6957
19821SOL    HW271443  12.140   8.639  12.060 -1.0941  2.5102  1.3198
19822SOL     OW71444   5.800   2.773   0.479 -0.6497  0.1807 -0.1969
19822SOL    HW171445   5.837   2.713   0.544  2.8712  2.3054  0.0347
19822SOL    HW271446   5.819   2.732   0.394 -0.8973 -0.3239 -0.0161
19823SOL     OW71447   1.057   1.855   0.349 -0.6889 -0.8850  0.3260
19823SOL    HW171448   1.082   1.924   0.410 -1.6583  0.1217 -0.3630
19823SOL    HW271449   1.129   1.793   0.351  0.7772  0.7336  0.1170
19824SOL     OW71450   9.624  10.676  10.357 -0.0747  0.7112  0.2470
19824SOL    HW171451   9.645  10.753  10.411 -0.7804  0.2966  1.1571
19824SOL    HW271452   9.709  10.639  10.333  0.2593  1.3184  0.4807
19825SOL     OW71453  11.665  11.627   4.381  0.2152 -0.3812  0.2029
19825SOL    HW171454  11.742  11.675   4.410  0.2514 -0.9444  1.0458
19825SOL    HW271455  11.636  11.675   4.303 -0.0569  1.3221  1.2953
19826SOL     OW71456  13.761   6.026  12.909 -0.2710  0.3583 -0.4417
19826SOL    HW171457  13.707   5.949  12.886 -2.8213  1.3916  1.5464
19826SOL    HW271458  13.705   6.101  12.889  0.9649  1.5668  0.4534
19827SOL     OW71459   2.759   5.052   8.801 -0.5055  0.1134 -0.3781
19827SOL    HW171460   2.815   5.106   8.746  0.6505 -0.4256  0.2457
19827SOL    HW271461   2.693   5.016   8.741  0.0674  0.4161 -1.1934
19828SOL     OW71462   3.272   4.719   4.586  0.5685 -0.2929 -0.0080
19828SOL    HW171463   3.229   4.741   4.669  0.2769 -0.7841 -0.0243
19828SOL    HW271464   3.260   4.797   4.532 -0.2635 -0.3986  0.0076
19829SOL     OW71465   2.067  13.169  10.767 -0.2883  0.2401 -0.1375
19829SOL    HW171466   2.092  13.109  10.696  0.1487 -2.4452  2.1210
19829SOL    HW271467   2.149  13.195  10.807 -0.6006 -1.9339  2.1217
19830SOL     OW71468   1.177  11.652   0.843 -0.1188 -0.4597 -0.4698
19830SOL    HW171469   1.254  11.701   0.871  1.3634 -1.4484 -2.5740
19830SOL    HW271470   1.152  11.600   0.919  1.0509  0.1654  0.3720
19831SOL     OW71471   2.228  10.259  12.010 -0.4857  0.2031  0.2822
19831SOL    HW171472   2.162  10.237  12.075 -1.2984 -0.3482 -0.6938
19831SOL    HW271473   2.299  10.300  12.060 -0.6852 -1.0170  1.6235
19832SOL     OW71474   3.285   9.486   7.174  0.2404 -0.1496  0.7967
19832SOL    HW171475   3.270   9.572   7.212 -1.8386 -1.0333  2.1223
19832SOL    HW271476   3.229   9.427   7.224 -0.0880 -1.9422 -1.4996
19833SOL     OW71477   8.592   0.667   1.207 -0.0926  0.2636 -0.0827
19833SOL    HW171478   8.515   0.647   1.153  0.2936  2.6843 -1.6345
19833SOL    HW271479   8.608   0.760   1.193  3.1702 -0.1685  0.1560
19834SOL     OW71480  10.184   5.197  10.742 -0.1455  1.0604 -0.4897
19834SOL    HW171481  10.206   5.106  10.721 -1.9034 -0.0581  1.9814
19834SOL    HW271482  10.233   5.215  10.823 -1.3723  1.5606  0.1682
19835SOL     OW71483   4.788   2.252  13.999 -0.3100  0.2215 -0.4713
19835SOL    HW171484   4.756   2.162  13.995  1.7244 -0.6345  0.9060
19835SOL    HW271485   4.736   2.293  14.068  0.6345 -0.8031  0.9169
19836SOL     OW71486   1.981   6.978  11.859 -0.0531 -0.2692  0.3296
19836SOL    HW171487   2.067   7.006  11.888  0.1439 -0.1969 -0.3150
19836SOL    HW271488   1.967   6.894  11.902 -0.1653  0.2715  1.3669
19837SOL     OW71489   7.973   3.523   2.739 -1.0290  0.5677 -0.7513
19837SOL    HW171490   7.942   3.495   2.653 -1.0899 -1.5390 -0.1061
19837SOL    HW271491   7.965   3.445   2.793  0.5735  1.3916  0.7523
19838SOL     OW71492   3.896   5.496   9.789 -0.6419  0.0390 -0.1107
19838SOL    HW171493   3.986   5.526   9.773 -0.3506 -0.1333  1.1019
19838SOL    HW271494   3.890   5.412   9.743  0.0373 -0.2754  0.3677
19839SOL     OW71495   7.602  10.503  10.957 -0.1993 -0.1013  0.2835
19839SOL    HW171496   7.694  10.477  10.962 -0.3233 -0.6758 -0.2743
19839SOL    HW271497   7.593  10.570  11.025  0.9467  0.9429 -0.5500
19840SOL     OW71498   0.891   8.686   2.136  0.1073 -0.3254 -0.4532
19840SOL    HW171499   0.823   8.668   2.201  0.4903 -1.1727 -0.2789
19840SOL    HW271500   0.964   8.630   2.162 -0.0090 -1.2721 -2.0389
19841SOL     OW71501   2.914   2.132   6.756  0.4753 -0.0938 -0.3693
19841SOL    HW171502   2.824   2.163   6.743  0.1382 -0.8320  0.1005
19841SOL    HW271503   2.969   2.201   6.719 -0.3305 -0.6099 -2.7321
19842SOL     OW71504   0.437   5.854   4.274 -1.0482  0.0107  0.1127
19842SOL    HW171505   0.479   5.924   4.323 -2.3767  1.4573 -0.7481
19842SOL    HW271506   0.447   5.879   4.182 -0.9403 -1.2971 -0.2648
19843SOL     OW71507   2.017   2.828   4.859  0.6362 -0.3131 -0.4858
19843SOL    HW171508   2.087   2.801   4.919  0.7360 -1.0134 -0.9001
19843SOL    HW271509   2.060   2.888   4.798  0.6749 -0.0723 -0.2242
19844SOL     OW71510   7.343   8.619   2.466 -0.1582  0.3176  0.4887
19844SOL    HW171511   7.287   8.546   2.494 -1.4146  1.2252  0.4361
19844SOL    HW271512   7.310   8.642   2.379 -0.8949  1.9799  1.1522
19845SOL     OW71513   2.917  10.632  13.354 -0.4392 -0.6992 -0.4588
19845SOL    HW171514   2.853  10.691  13.315  0.9485  0.2758 -1.3633
19845SOL    HW271515   2.985  10.623  13.287  0.5734 -1.3535  0.6175
19846SOL     OW71516  12.557   4.663   0.332 -0.0884 -0.2265  0.4901
19846SOL    HW171517  12.642   4.665   0.289  0.0543 -1.5872  0.6624
19846SOL    HW271518  12.506   4.600   0.281 -0.0665 -1.5404  1.9862
19847SOL     OW71519   8.202   4.761   7.901  0.0220  0.0453  0.4488
19847SOL    HW171520   8.115   4.800   7.898  0.1480  0.2964 -0.2738
19847SOL    HW271521   8.206   4.706   7.823  0.1310 -0.8148  1.0439
19848SOL     OW71522  13.989  11.808   3.803  0.7310  0.5113 -0.2168
19848SOL    HW171523  13.994  11.903   3.790  0.1393  0.3829 -1.5836
19848SOL    HW271524  13.945  11.798   3.888  2.1499  1.4417  0.6791
19849SOL     OW71525  13.624  12.727  13.802  0.1978 -0.1926  0.3610
19849SOL    HW171526  13.666  12.759  13.882  0.9405 -2.1167  0.8026
19849SOL    HW271527  13.591  12.640  13.826 -1.7592  0.1918 -0.7393
19850SOL     OW71528  11.670  12.413   8.816  0.0231  0.1841 -0.1513
19850SOL    HW171529  11.716  12.497   8.810  1.7851 -0.7490 -0.5767
19850SOL    HW271530  11.704  12.362   8.742 -0.1989 -1.2598  0.6919
19851SOL     OW71531   4.654   3.106   2.961  0.2986 -0.3816 -0.1698
19851SOL    HW171532   4.675   3.195   2.991  2.9059 -0.0857 -2.4521
19851SOL    HW271533   4.561   3.109   2.941 -0.0090  1.3494  1.2622
19852SOL     OW71534   2.999   3.795   4.922  0.6464 -0.0636  0.4881
19852SOL    HW171535   2.971   3.714   4.964  0.2546 -0.8478 -1.2000
19852SOL    HW271536   2.931   3.813   4.857  1.2269  1.0815  0.1687
19853SOL     OW71537   7.393  12.265   8.620  0.3614  0.3316 -0.2786
19853SOL    HW171538   7.340  12.191   8.589  0.8782  0.0228 -0.4595
19853SOL    HW271539   7.388  12.329   8.549 -1.0087  0.9569  0.3671
19854SOL     OW71540   4.276   2.996   8.244 -0.2268 -0.4410  0.0493
19854SOL    HW171541   4.192   2.992   8.198 -0.3309 -0.5637  0.2441
19854SOL    HW271542   4.271   3.077   8.294  0.5027  0.4623 -1.3076
19855SOL     OW71543  11.977   8.524  11.025  0.3078  0.1177  0.2726
19855SOL    HW171544  12.034   8.449  11.011  2.0481  1.0429  1.9560
19855SOL    HW271545  12.028   8.583  11.081 -1.7554  1.6566  0.6507
19856SOL     OW71546   5.836   0.270   2.293  0.2797 -0.0058 -0.3767
19856SOL    HW171547   5.902   0.336   2.314  0.1468 -0.0840  0.2935
19856SOL    HW271548   5.838   0.264   2.197  0.1209  1.1416 -0.4676
19857SOL     OW71549   8.597   0.575  11.744  0.4939  0.0402 -0.1444
19857SOL    HW171550   8.619   0.651  11.690 -0.8378  0.7206  0.2404
19857SOL    HW271551   8.673   0.564  11.802  0.3918  1.5553  0.3091
19858SOL     OW71552  13.115   3.411   7.652 -0.0837 -0.4517 -0.1989
19858SOL    HW171553  13.181   3.362   7.702  0.4606 -0.0277 -0.4853
19858SOL    HW271554  13.056   3.344   7.618  0.3301 -0.8647 -0.1208
19859SOL     OW71555   6.324   3.445   1.282 -0.3850 -0.7187  0.2763
19859SOL    HW171556   6.236   3.474   1.305  0.3977  0.1327  2.5332
19859SOL    HW271557   6.315   3.354   1.257 -2.2887  0.1079 -2.5328
19860SOL     OW71558  13.899   6.803   9.933 -0.1681  0.0699  0.4161
19860SOL    HW171559  13.866   6.761  10.012  0.6530  1.0823  1.3169
19860SOL    HW271560  13.931   6.888   9.962  0.9592  0.1080 -0.8416
19861SOL     OW71561   1.304   9.112   9.373  0.2533 -0.3169 -0.1919
19861SOL    HW171562   1.349   9.103   9.458  1.8309  1.1202 -0.8111
19861SOL    HW271563   1.233   9.173   9.391 -0.5570 -1.4167  0.4672
19862SOL     OW71564   8.353   2.019   1.041 -0.9298 -0.0631  0.2775
19862SOL    HW171565   8.399   2.103   1.046 -0.6601 -0.2720  2.0802
19862SOL    HW271566   8.375   1.985   0.955 -0.2772  1.2986 -0.1201
19863SOL     OW71567  10.555   7.404   8.661 -0.2355  0.4620 -0.1993
19863SOL    HW171568  10.556   7.397   8.756 -0.5085  0.2087 -0.2120
19863SOL    HW271569  10.519   7.491   8.643 -2.6461 -0.4363 -0.0835
19864SOL     OW71570  12.588   6.149   2.916  0.6079  0.3208 -0.0032
19864SOL    HW171571  12.651   6.093   2.871  1.2515  0.7993  0.2786
19864SOL    HW271572  12.641   6.198   2.979  0.0416  1.1481 -0.1539
19865SOL     OW71573  10.826   6.793   6.524 -0.6524 -0.0510 -0.5796
19865SOL    HW171574  10.778   6.759   6.449  0.9094 -2.0602 -0.7688
19865SOL    HW271575  10.900   6.733   6.534 -1.1919 -0.3261  3.0404
19866SOL     OW71576   9.114   8.315  11.266 -0.2506 -0.2064  0.5802
19866SOL    HW171577   9.128   8.394  11.214  2.2244  0.0344  1.5206
19866SOL    HW271578   9.084   8.250  11.202 -1.0809  1.0948 -0.4204
19867SOL     OW71579   3.769   4.491   2.150 -0.7971 -0.0452  0.0331
19867SOL    HW171580   3.729   4.462   2.231  2.6648  0.5858  2.1648
19867SOL    HW271581   3.820   4.568   2.174  2.0524 -1.0298 -2.2228
19868SOL     OW71582   4.183  12.767   7.507  0.5523 -0.5181 -0.5321
19868SOL    HW171583   4.248  12.836   7.491  0.0146 -0.2582 -1.7316
19868SOL    HW271584   4.103  12.799   7.465 -0.3640 -0.8442  0.8918
19869SOL     OW71585   3.613  14.040   2.811 -0.8735 -0.3920 -0.3018
19869SOL    HW171586   3.573  14.110   2.760 -1.8012 -0.8223 -0.1894
19869SOL    HW271587   3.654  14.084   2.885 -1.5642  0.0292 -0.1622
19870SOL     OW71588  11.333   8.836  11.606  0.1248 -0.2996  0.5314
19870SOL    HW171589  11.288   8.752  11.593 -0.3157  0.1514 -1.1390
19870SOL    HW271590  11.399   8.817  11.672 -0.0558 -1.9330  0.3054
19871SOL     OW71591  12.655   7.872   4.991  0.2626 -0.1354 -0.1388
19871SOL    HW171592  12.640   7.808   4.921 -1.0829 -0.1535  0.1278
19871SOL    HW271593  12.675   7.819   5.068  1.1388 -0.1426 -0.3682
19872SOL     OW71594   3.360   3.908   0.838  0.0774  0.3267  0.4027
19872SOL    HW171595   3.373   3.834   0.897  2.1541 -2.6296 -3.2802
19872SOL    HW271596   3.287   3.880   0.781  1.6545  0.4327 -1.7945
19873SOL     OW71597   9.059  10.531  12.568 -0.3505  0.6509  0.2010
19873SOL    HW171598   9.131  10.512  12.506  0.5722 -0.2678  1.5029
19873SOL    HW271599   9.098  10.589  12.632  0.0990 -1.8818  2.4078
19874SOL     OW71600   5.232   4.641   8.736  0.3103  0.2364  0.2569
19874SOL    HW171601   5.192   4.562   8.700 -0.3999  0.3016  0.8851
19874SOL    HW271602   5.179   4.713   8.702 -0.0929  0.3262  1.0671
19875SOL     OW71603  10.909  13.270  11.792  0.6774  0.7215  0.1751
19875SOL    HW171604  10.899  13.182  11.757  2.8047 -0.1421  1.4924
19875SOL    HW271605  10.849  13.273  11.867  0.0642  0.6661 -0.3096
19876SOL     OW71606  12.567   2.325   7.866 -0.5767  0.5616 -0.5061
19876SOL    HW171607  12.642   2.327   7.926 -1.0272  0.8708  0.0607
19876SOL    HW271608  12.491   2.321   7.924 -0.9724 -2.6154 -1.0511
19877SOL     OW71609   2.726  13.753   0.889  0.1760  0.9129 -0.0453
19877SOL    HW171610   2.778  13.692   0.837  1.6927  1.5499  0.6704
19877SOL    HW271611   2.669  13.698   0.942 -0.5723  0.2220 -1.4872
19878SOL     OW71612  11.464   5.050   8.782  0.3510 -0.1885  0.2920
19878SOL    HW171613  11.416   5.053   8.865 -0.5755 -0.6346 -0.2078
19878SOL    HW271614  11.416   5.110   8.725 -1.1843 -2.4943 -0.9932
19879SOL     OW71615   1.327   3.079   0.923  0.2259  0.1106  0.8479
19879SOL    HW171616   1.309   3.172   0.937  1.5796  0.5164  0.0832
19879SOL    HW271617   1.349   3.072   0.831 -2.5442 -1.4802  0.1911
19880SOL     OW71618  13.870   3.728   3.953 -0.1971  0.1286  0.1263
19880SOL    HW171619  13.836   3.795   3.894 -0.1886  1.5896  1.6972
19880SOL    HW271620  13.925   3.673   3.897  1.1026  2.3638 -0.9912
19881SOL     OW71621   9.824   8.078  10.929  0.0285 -0.2000  0.4862
19881SOL    HW171622   9.847   8.168  10.951 -0.2779  0.0631 -0.2408
19881SOL    HW271623   9.776   8.046  11.005  1.6495 -0.3428  1.5025
19882SOL     OW71624  13.008  11.199  11.527 -0.5072  0.1814  0.1251
19882SOL    HW171625  13.010  11.274  11.468 -3.4375  0.7971  0.6472
19882SOL    HW271626  13.025  11.235  11.614  0.7177 -0.2279  0.0730
19883SOL     OW71627   4.116   9.203  11.977 -0.4872 -0.1312 -0.1730
19883SOL    HW171628   4.150   9.159  11.899 -1.7288 -3.5303  0.9982
19883SOL    HW271629   4.187   9.198  12.041  0.2204  1.8634 -0.7511
19884SOL     OW71630  11.544   8.186   1.452 -0.2037  0.0795  0.4299
19884SOL    HW171631  11.623   8.240   1.443 -0.2479  0.5979  2.6180
19884SOL    HW271632  11.568   8.102   1.413  0.8155  0.7813 -0.5316
19885SOL     OW71633   9.441   0.491   2.566  0.1180 -0.3239 -0.3028
19885SOL    HW171634   9.422   0.437   2.643  0.6003 -0.3859 -0.2229
19885SOL    HW271635   9.426   0.581   2.596 -1.9366 -0.4589 -0.8014
19886SOL     OW71636   7.313  11.129  13.843  0.2218 -0.3221  0.5175
19886SOL    HW171637   7.406  11.119  13.821  0.3511  0.3002  0.7777
19886SOL    HW271638   7.267  11.110  13.761  0.5772 -0.5321  0.3616
19887SOL     OW71639   8.320   5.442  13.147 -0.6179 -0.9889  0.0590
19887SOL    HW171640   8.354   5.457  13.236  0.5240  2.5496 -0.7902
19887SOL    HW271641   8.229   5.416  13.161 -0.4160 -0.7601  2.2945
19888SOL     OW71642  11.908   4.941   7.887 -0.1525 -0.5641  0.1794
19888SOL    HW171643  11.975   4.889   7.931  0.7961 -0.4998 -1.1295
19888SOL    HW271644  11.956   5.012   7.844 -1.1452 -0.0923 -0.1975
19889SOL     OW71645   6.810  10.642   4.467 -0.9117  0.1969  0.4153
19889SOL    HW171646   6.851  10.557   4.485 -1.9085 -0.3531  0.1618
19889SOL    HW271647   6.784  10.636   4.375 -0.4885  1.0045  0.2324
19890SOL     OW71648   5.577   7.320   4.962 -0.5782  0.0432 -0.0217
19890SOL    HW171649   5.482   7.329   4.969 -0.6259 -0.9066  0.7294
19890SOL    HW271650   5.605   7.297   5.050  0.3920  0.6506 -0.1699
19891SOL     OW71651   7.241  13.795   9.369 -0.3253  0.0312  0.5168
19891SOL    HW171652   7.224  13.853   9.443  0.0175  0.2725  0.4097
19891SOL    HW271653   7.228  13.850   9.292  0.5365  0.1166  0.4246
19892SOL     OW71654  10.926   4.294   7.864  0.2652  0.5150  0.1209
19892SOL    HW171655  10.971   4.232   7.808  1.6165  2.3013 -0.8531
19892SOL    HW271656  10.919   4.249   7.949  1.1589 -0.9467 -0.5432
19893SOL     OW71657   4.464   4.461  13.476 -0.0111  0.1489 -0.6041
19893SOL    HW171658   4.431   4.433  13.562 -0.4582 -2.7720 -1.5929
19893SOL    HW271659   4.384   4.479  13.426 -0.0821 -2.8496 -1.7498
19894SOL     OW71660   9.264   2.214  13.552 -0.6634 -1.0486 -0.1015
19894SOL    HW171661   9.327   2.253  13.491 -1.6645 -1.6328 -1.5825
19894SOL    HW271662   9.228   2.288  13.600 -1.0969 -0.3496 -1.4537
19895SOL     OW71663  10.495   8.287   9.720 -0.0175 -0.2297 -0.4495
19895SOL    HW171664  10.548   8.209   9.734  1.4345  0.9612  1.1357
19895SOL    HW271665  10.477   8.288   9.626  2.2884 -1.0039 -0.9683
19896SOL     OW71666   0.298   2.382   0.356 -0.4163  0.3093 -0.5789
19896SOL    HW171667   0.257   2.315   0.410  1.4455 -0.2044  0.2880
19896SOL    HW271668   0.388   2.351   0.342 -0.0749  1.7001 -1.7820
19897SOL     OW71669  12.534  10.968  11.014 -0.1451 -0.5516  0.7755
19897SOL    HW171670  12.597  11.012  10.958 -0.6800 -1.5555 -0.6790
19897SOL    HW271671  12.462  11.031  11.023 -0.4263 -0.6810 -0.3960
19898SOL     OW71672   2.619   2.440   1.903 -0.4231 -0.4170  0.1170
19898SOL    HW171673   2.542   2.472   1.950 -0.5180  0.7236 -0.7857
19898SOL    HW271674   2.625   2.348   1.929 -0.1258  0.2683  2.8189
19899SOL     OW71675   1.865  12.041   4.441  0.0611  0.0926  0.1013
19899SOL    HW171676   1.888  12.009   4.528  1.9420  0.0549 -0.3723
19899SOL    HW271677   1.779  12.082   4.452 -0.2994 -1.0208  1.6918
19900SOL     OW71678  11.750   1.386   0.826 -0.1539 -0.6545 -0.2670
19900SOL    HW171679  11.674   1.398   0.882  0.8136 -1.3534  1.2824
19900SOL    HW271680  11.730   1.435   0.746 -1.1212  1.3453  1.1272
19901SOL     OW71681  10.447   7.151   3.760 -0.3540  0.3561 -0.1274
19901SOL    HW171682  10.464   7.069   3.806  1.5925  1.2559  0.8501
19901SOL    HW271683  10.419   7.123   3.672 -1.9176 -1.3463  0.8438
19902SOL     OW71684   2.453   2.219   9.480  0.3606  0.4315  0.1366
19902SOL    HW171685   2.364   2.245   9.458 -0.1842  1.1979  2.7763
19902SOL    HW271686   2.505   2.299   9.466  0.4320  0.2988 -0.3681
19903SOL     OW71687   1.016   8.056   2.922  0.2879  0.2472  0.5259
19903SOL    HW171688   1.066   7.975   2.917 -1.2684 -0.8241  1.5740
19903SOL    HW271689   0.948   8.039   2.987 -2.3105  1.1257 -1.7659
19904SOL     OW71690   4.568   7.397   8.465 -0.7846  0.0532 -0.2855
19904SOL    HW171691   4.654   7.368   8.495 -0.8901  0.1378  0.1146
19904SOL    HW271692   4.518   7.407   8.546 -1.2646 -0.2976 -0.5386
19905SOL     OW71693   0.123   5.165   9.215  0.4958  0.1163  0.3364
19905SOL    HW171694   0.079   5.198   9.294  3.5850 -0.8331  2.6373
19905SOL    HW271695   0.112   5.070   9.221 -0.1752  0.0828 -1.0568
19906SOL     OW71696   2.442   7.689   3.914 -0.0298 -0.0407 -0.6278
19906SOL    HW171697   2.505   7.678   3.985  0.1255 -0.3111 -0.8049
19906SOL    HW271698   2.393   7.767   3.937  0.7909  0.5425 -0.7965
19907SOL     OW71699   3.805   6.137  13.573 -0.1313 -0.9474  0.6291
19907SOL    HW171700   3.886   6.088  13.589  0.4591 -0.1277  0.2126
19907SOL    HW271701   3.829   6.203  13.508 -0.2327  1.5229  2.9351
19908SOL     OW71702   5.201   8.902   0.925  0.0210  0.3597 -0.0336
19908SOL    HW171703   5.191   8.993   0.955 -1.0643  0.4253 -0.5567
19908SOL    HW271704   5.196   8.907   0.830 -0.8654 -0.3291 -0.0392
19909SOL     OW71705  10.424  12.594   0.158  0.3356 -0.0211  0.6428
19909SOL    HW171706  10.475  12.583   0.078  0.0156  0.4608  0.3642
19909SOL    HW271707  10.429  12.509   0.202  0.4107 -0.3315  0.0466
19910SOL     OW71708   7.104   1.072   3.371 -0.7442  0.2326 -0.3937
19910SOL    HW171709   7.082   1.000   3.311  0.7603  1.2757 -2.3324
19910SOL    HW271710   7.126   1.145   3.313  5.0342  0.1447  1.1042
19911SOL     OW71711   5.291   0.699   3.854  0.0875 -0.0966 -0.4620
19911SOL    HW171712   5.199   0.672   3.858  0.0268  0.1983  0.5119
19911SOL    HW271713   5.320   0.674   3.767 -0.7574 -0.7282 -0.5735
19912SOL     OW71714   1.258   2.554   0.343 -0.0853  0.4527 -0.2936
19912SOL    HW171715   1.344   2.580   0.311 -0.5283  1.3220 -0.8253
19912SOL    HW271716   1.216   2.637   0.368 -0.0006 -0.1163  2.0076
19913SOL     OW71717   3.518   7.482   9.818 -0.2177 -0.4072  0.4311
19913SOL    HW171718   3.433   7.505   9.854  0.7251  1.8004  1.4306
19913SOL    HW271719   3.566   7.443   9.891  0.4730  0.7143  0.5939
19914SOL     OW71720  12.988  13.478   3.936  0.0136  0.2087 -0.0237
19914SOL    HW171721  13.075  13.514   3.917 -0.0454  0.1027 -0.5123
19914SOL    HW271722  12.987  13.467   4.031  0.8354 -0.5429 -0.0915
19915SOL     OW71723   5.597  11.278   8.143  0.3383  0.0378 -0.0010
19915SOL    HW171724   5.687  11.301   8.167 -0.1709  0.7615  1.3407
19915SOL    HW271725   5.596  11.183   8.141  1.0829  0.0198  0.2023
19916SOL     OW71726   8.081   4.015   0.585  0.3721 -0.5025  0.5596
19916SOL    HW171727   8.084   3.965   0.504  1.0800 -0.6679  0.6848
19916SOL    HW271728   8.162   4.066   0.585 -0.2098  0.4486  0.5603
19917SOL     OW71729   6.591   1.894   3.844 -0.6079 -0.3958  0.0754
19917SOL    HW171730   6.612   1.837   3.918 -0.1673 -1.8396 -1.0937
19917SOL    HW271731   6.495   1.902   3.847 -0.5302  0.3488  1.3191
19918SOL     OW71732   9.266   6.949   6.161  0.3546  0.4098  0.3802
19918SOL    HW171733   9.240   6.983   6.247  0.3002  0.8141  0.2044
19918SOL    HW271734   9.186   6.911   6.125  0.3729  0.2567  0.4969
19919SOL     OW71735  11.927   3.761   8.820  0.2352 -0.2279 -0.1924
19919SOL    HW171736  11.983   3.685   8.809 -0.6057 -0.5715 -2.8302
19919SOL    HW271737  11.842   3.724   8.844  0.0282 -0.1023 -0.7012
19920SOL     OW71738   9.812   5.247   8.194  0.4263 -0.3825  0.2686
19920SOL    HW171739   9.851   5.289   8.117  1.8228 -1.5662  0.2914
19920SOL    HW271740   9.717   5.260   8.183  0.6653  0.4049 -1.0783
19921SOL     OW71741   4.124   3.032  12.187  0.3980 -1.0181 -0.0574
19921SOL    HW171742   4.137   3.032  12.092  2.2082 -1.2660  0.1406
19921SOL    HW271743   4.181   2.961  12.218  1.2512  0.2294  1.3622
19922SOL     OW71744  10.463   3.790  13.884  0.2704 -0.2445  0.2031
19922SOL    HW171745  10.538   3.800  13.826 -0.1450 -2.0989 -0.7222
19922SOL    HW271746  10.461   3.871  13.935  3.3876 -0.4806  0.8698
19923SOL     OW71747   7.408   9.874  11.404  0.4081 -0.0668 -0.0850
19923SOL    HW171748   7.354   9.932  11.351 -0.8723 -0.5613  0.6521
19923SOL    HW271749   7.346   9.822  11.454  1.5604 -1.0337  0.3835
19924SOL     OW71750  11.926  12.021  12.090  0.1988 -0.0455 -0.3190
19924SOL    HW171751  12.004  11.970  12.110 -0.4826 -0.0659  2.7214
19924SOL    HW271752  11.956  12.111  12.085  0.6260 -0.2056 -0.7847
19925SOL     OW71753  13.717  12.494   2.198 -0.2006 -0.1238  0.2125
19925SOL    HW171754  13.716  12.587   2.218 -1.0511 -0.1940  0.5610
19925SOL    HW271755  13.789  12.458   2.249  0.0312  0.3184  0.1966
19926SOL     OW71756  12.170  10.544  13.701 -0.3665 -0.0819 -0.4135
19926SOL    HW171757  12.183  10.503  13.787  1.2200 -0.0003 -0.5790
19926SOL    HW271758  12.126  10.478  13.649 -0.2056 -0.6101  0.1051
19927SOL     OW71759  13.210  11.492  13.757 -0.0543 -0.8312 -0.3793
19927SOL    HW171760  13.163  11.571  13.730  0.4171 -0.1340  0.7446
19927SOL    HW271761  13.196  11.430  13.686 -0.9169  0.0706 -1.0244
19928SOL     OW71762   8.266  11.943   6.221  0.2834 -0.1393  0.0271
19928SOL    HW171763   8.317  12.016   6.254 -1.0379  1.7093 -1.7853
19928SOL    HW271764   8.270  11.951   6.125 -0.5573 -1.9642 -0.2121
19929SOL     OW71765  13.261   3.041   5.070 -0.7543 -0.3197 -0.1334
19929SOL    HW171766  13.167   3.056   5.069 -0.8646 -0.9245  0.5922
19929SOL    HW271767  13.272   2.958   5.116  0.2269  0.6213  1.4520
19930SOL     OW71768   8.025   0.456   2.763 -0.4763 -0.0826  0.0716
19930SOL    HW171769   7.999   0.487   2.850  0.5392  0.2920  0.2558
19930SOL    HW271770   8.007   0.362   2.765  0.3750 -0.2427  1.0112
19931SOL     OW71771   7.318  11.333   8.119 -0.0305 -0.0968 -0.2005
19931SOL    HW171772   7.402  11.331   8.073 -0.2624 -1.0227 -0.5887
19931SOL    HW271773   7.342  11.335   8.212  0.4287 -1.7215 -0.2664
19932SOL     OW71774   4.815   1.552   4.644  0.2502  0.1098  0.0919
19932SOL    HW171775   4.884   1.576   4.707 -1.1462  1.8900  1.0623
19932SOL    HW271776   4.862   1.522   4.567  2.1494  1.5464  0.6045
19933SOL     OW71777  11.436  14.004  12.865  0.4784  0.0532 -0.3640
19933SOL    HW171778  11.343  14.009  12.889  0.9525  0.4491  1.5427
19933SOL    HW271779  11.448  14.075  12.802 -0.0100  1.6871  1.3000
19934SOL     OW71780  13.860   1.296   7.154 -0.1591  0.0210  0.6529
19934SOL    HW171781  13.935   1.346   7.185 -0.2481 -0.2658  1.3601
19934SOL    HW271782  13.830   1.343   7.076  1.4652 -0.5109 -0.3623
19935SOL     OW71783   1.594   6.053  11.422 -0.1401  0.6332  0.2039
19935SOL    HW171784   1.511   6.013  11.396 -0.7241  0.3466  2.3020
19935SOL    HW271785   1.569   6.123  11.483  1.1243  1.1331  0.1807
19936SOL     OW71786  10.546   8.360  11.825  0.2130 -0.0965  0.2243
19936SOL    HW171787  10.639   8.349  11.844  0.8251  0.0538 -2.2684
19936SOL    HW271788  10.539   8.450  11.792 -0.9218  0.0426  0.7939
19937SOL     OW71789   7.332  12.560  12.580 -0.1015 -0.6538 -0.7327
19937SOL    HW171790   7.422  12.587  12.561 -0.3335  0.5250 -0.2116
19937SOL    HW271791   7.338  12.512  12.663 -0.1416  0.6415  0.0319
19938SOL     OW71792  11.276  10.968  12.254 -0.1006 -0.0017  0.0971
19938SOL    HW171793  11.250  11.059  12.268  1.0161  0.3225  0.1658
19938SOL    HW271794  11.262  10.926  12.339  1.2172  0.5880  0.6365
19939SOL     OW71795   3.198   8.225  10.388 -0.1082 -0.2890  0.4607
19939SOL    HW171796   3.186   8.308  10.342  1.3818  0.4633  1.3568
19939SOL    HW271797   3.236   8.167  10.323  0.1514  0.1669  0.2009
19940SOL     OW71798   6.845  10.295   3.188 -0.1518  0.1516  1.0075
19940SOL    HW171799   6.823  10.378   3.148  1.6027  0.3273  0.2971
19940SOL    HW271800   6.775  10.279   3.251 -1.2109  1.5026  0.2262
19941SOL     OW71801   1.130   2.132  11.245  0.4048 -0.9003  0.2123
19941SOL    HW171802   1.035   2.116  11.249  0.6861 -2.8883  0.2208
19941SOL    HW271803   1.138   2.227  11.238 -1.6168 -0.7322 -0.7095
19942SOL     OW71804   0.097   0.599  11.599  0.4511  0.4216 -0.6688
19942SOL    HW171805   0.046   0.523  11.628 -0.3413  1.0076 -0.4652
19942SOL    HW271806   0.171   0.562  11.551 -0.4408 -0.4672 -1.4247
19943SOL     OW71807   5.887   8.974  11.925 -0.2898  0.4508 -0.2069
19943SOL    HW171808   5.883   9.030  12.003  0.5834  1.0428 -0.5653
19943SOL    HW271809   5.964   8.919  11.940  0.6138  1.4075 -1.1804
19944SOL     OW71810   1.439   7.112   9.113 -0.5934 -0.0353 -0.0748
19944SOL    HW171811   1.498   7.139   9.043 -0.4155  0.0543  0.1059
19944SOL    HW271812   1.495   7.066   9.175 -1.2536 -2.9047 -1.4327
19945SOL     OW71813   5.370   5.568  14.010 -0.3798 -0.4753  0.0162
19945SOL    HW171814   5.276   5.575  13.993 -0.6659  2.1559  2.0797
19945SOL    HW271815   5.376   5.537  14.100  0.7696 -0.6974 -0.1213
19946SOL     OW71816   2.470   6.451   4.513  0.2349 -0.8350 -0.1540
19946SOL    HW171817   2.469   6.421   4.604  0.1782 -0.4762 -0.0326
19946SOL    HW271818   2.544   6.406   4.473  1.4413  0.4481  0.5708
19947SOL     OW71819  11.541   6.257   7.623  0.0763  0.4379  0.0065
19947SOL    HW171820  11.528   6.312   7.700 -1.1941  0.6370 -0.3322
19947SOL    HW271821  11.581   6.177   7.657 -2.4450 -0.3761  1.2191
19948SOL     OW71822  10.090   3.868   2.554  0.3817 -0.2832 -0.1476
19948SOL    HW171823  10.164   3.849   2.496 -0.4330 -1.6190 -0.8344
19948SOL    HW271824  10.015   3.829   2.509 -0.4741 -0.3741  1.2890
19949SOL     OW71825  11.120   4.118   3.987 -0.0206  0.0829 -0.4875
19949SOL    HW171826  11.109   4.189   3.925 -2.7434  0.6837  0.5397
19949SOL    HW271827  11.161   4.158   4.063  0.1077  0.1272 -0.5795
19950SOL     OW71828   6.565  12.228   2.548  0.0788 -0.1000 -0.7651
19950SOL    HW171829   6.617  12.305   2.526 -0.1029 -0.1937 -1.5671
19950SOL    HW271830   6.555  12.181   2.465  1.4668 -1.8035 -0.0278
19951SOL     OW71831   7.840   2.974   2.448 -0.1368  0.0337  0.1879
19951SOL    HW171832   7.929   2.940   2.461  0.0551  0.8350  1.1369
19951SOL    HW271833   7.783   2.908   2.487  0.1403  0.1071  0.7370
19952SOL     OW71834  13.306   7.065   9.941  0.5262  0.2127 -0.0643
19952SOL    HW171835  13.280   6.981   9.978 -4.1978  1.3116 -0.3135
19952SOL    HW271836  13.353   7.042   9.861 -1.0524 -2.2299 -0.3899
19953SOL     OW71837   5.470   2.981   0.824 -0.6158  0.2200  0.1798
19953SOL    HW171838   5.484   2.949   0.735 -0.9034  0.9566 -0.1413
19953SOL    HW271839   5.443   2.904   0.874  0.0844 -0.3114 -0.2397
19954SOL     OW71840  11.845   0.740   7.239  0.7653  0.1473 -0.0907
19954SOL    HW171841  11.792   0.740   7.159 -2.3735 -2.1473  1.7239
19954SOL    HW271842  11.905   0.666   7.228  1.3503  0.7206 -0.8510
19955SOL     OW71843   4.544   4.031  11.064  0.5794  0.2630 -0.3349
19955SOL    HW171844   4.575   4.089  10.995 -0.9930 -0.6401 -1.8951
19955SOL    HW271845   4.576   4.070  11.145  1.2874  2.1542 -1.4648
19956SOL     OW71846   7.993  10.615   0.898  0.4612  0.9203  0.3111
19956SOL    HW171847   7.932  10.620   0.971 -1.5339 -0.1820 -1.1675
19956SOL    HW271848   8.004  10.706   0.869 -0.2583  1.1713  0.8065
19957SOL     OW71849   1.468   4.518   0.967  0.5112  0.5348  0.3196
19957SOL    HW171850   1.458   4.533   0.873 -1.2493 -1.1051  0.1776
19957SOL    HW271851   1.419   4.589   1.008  1.9057  1.6925  0.0797
19958SOL     OW71852   6.842  11.368   3.024  0.1397  0.0760  0.3774
19958SOL    HW171853   6.785  11.381   2.948  0.8762 -0.9968 -0.3858
19958SOL    HW271854   6.803  11.423   3.093 -0.2858  1.4167 -0.8864
19959SOL     OW71855   8.956  12.102  10.352  0.1766 -0.2108 -0.1791
19959SOL    HW171856   8.896  12.029  10.334  0.1449  0.0483 -1.1517
19959SOL    HW271857   8.907  12.180  10.328 -0.0821  0.2170  1.6149
19960SOL     OW71858  12.335   2.980  11.472  0.2423 -0.5497 -0.5785
19960SOL    HW171859  12.387   3.048  11.428  0.1482 -0.1167 -0.0349
19960SOL    HW271860  12.396   2.907  11.485  0.4521 -0.4159 -0.8105
19961SOL     OW71861  11.121   7.938   7.502 -0.1912  0.3302 -0.3740
19961SOL    HW171862  11.094   7.852   7.534 -3.7465  1.6368  0.5122
19961SOL    HW271863  11.107   7.934   7.407  2.3903 -0.8534 -0.7993
19962SOL     OW71864  12.305   4.425   6.556  0.2289 -0.2694 -0.1891
19962SOL    HW171865  12.253   4.379   6.622 -1.0420 -0.3012 -1.1550
19962SOL    HW271866  12.259   4.407   6.473  0.7892  1.1496 -0.8453
19963SOL     OW71867   4.024   2.498  13.515 -0.1689  0.2822 -0.2316
19963SOL    HW171868   3.940   2.455  13.532  0.1456  0.0701  0.8782
19963SOL    HW271869   4.058   2.453  13.438 -0.0475 -1.2069  0.6445
19964SOL     OW71870  12.247   8.460   5.506  0.4299 -0.0320 -0.4028
19964SOL    HW171871  12.229   8.439   5.415  1.8204 -1.1585 -0.4495
19964SOL    HW271872  12.336   8.496   5.505  0.0464  0.9808  0.3767
19965SOL     OW71873   3.626   6.623   9.895  0.4233  0.3014  0.1073
19965SOL    HW171874   3.714   6.594   9.871  1.6224  2.5851  1.3356
19965SOL    HW271875   3.571   6.546   9.884  2.4473 -1.0452 -1.3141
19966SOL     OW71876   9.847   3.754  11.246 -0.1079 -0.0539 -0.0540
19966SOL    HW171877   9.875   3.759  11.338 -0.4887 -0.2736  0.0752
19966SOL    HW271878   9.825   3.844  11.223 -0.1760 -0.0254  0.1219
19967SOL     OW71879   9.604  12.589  12.550  0.0729 -0.4448 -0.1172
19967SOL    HW171880   9.518  12.607  12.512 -0.0316  2.4744  1.1816
19967SOL    HW271881   9.592  12.600  12.644  2.0207  1.2005  0.0191
19968SOL     OW71882   4.979   5.886  13.459  0.4445  0.1181 -0.6117
19968SOL    HW171883   4.931   5.958  13.500 -0.0229 -1.2957  1.4342
19968SOL    HW271884   4.967   5.812  13.518  1.7995 -1.3785 -2.1164
19969SOL     OW71885  13.280  10.313   9.560  0.1033  0.5913 -0.1039
19969SOL    HW171886  13.246  10.371   9.629 -1.7891 -0.7797  0.1957
19969SOL    HW271887  13.267  10.363   9.479 -1.1980  0.7576  0.1737
19970SOL     OW71888   5.741  12.220   0.645  0.7021  0.2809 -0.2577
19970SOL    HW171889   5.823  12.233   0.598  0.5134 -0.0220 -0.6721
19970SOL    HW271890   5.714  12.131   0.622  0.9534 -0.1290  0.9503
19971SOL     OW71891   4.583   1.747  12.379 -0.8539  0.2858  0.1606
19971SOL    HW171892   4.614   1.812  12.317  0.8701 -0.2403  0.4069
19971SOL    HW271893   4.502   1.783  12.415 -2.5795  0.0791 -3.1958
19972SOL     OW71894   0.434   2.896   3.928 -0.0809 -0.8135  0.8755
19972SOL    HW171895   0.399   2.811   3.902 -1.1950  0.0902 -0.7675
19972SOL    HW271896   0.357   2.951   3.939  0.7065  0.8068 -1.2290
19973SOL     OW71897   9.617   0.194   4.475 -0.1466 -0.0205  0.0074
19973SOL    HW171898   9.524   0.217   4.472 -0.1041  0.1545 -0.0233
19973SOL    HW271899   9.625   0.137   4.551 -0.0477  1.0228  0.8056
19974SOL     OW71900   2.295   5.629  13.475 -0.3528  0.2890 -0.0436
19974SOL    HW171901   2.377   5.679  13.474  0.9611 -1.6636  1.6284
19974SOL    HW271902   2.290   5.589  13.388 -0.4199  1.7325 -0.7252
19975SOL     OW71903   6.120  12.950  10.750  0.3673  0.3487  0.3326
19975SOL    HW171904   6.122  13.038  10.714  0.2707  0.2839  0.1652
19975SOL    HW271905   6.116  12.893  10.673  0.3639  0.2018  0.4418
19976SOL     OW71906   5.570   2.190  10.329 -0.3603  0.5973  0.3145
19976SOL    HW171907   5.504   2.204  10.261 -0.4543  0.7986  0.4471
19976SOL    HW271908   5.555   2.100  10.358  0.2288  0.2137 -0.5199
19977SOL     OW71909   2.087   1.696  12.971  0.1965 -0.5873 -0.3871
19977SOL    HW171910   2.032   1.679  12.895 -1.1138  2.0936 -0.1606
19977SOL    HW271911   2.083   1.616  13.022 -1.2434 -1.4330 -1.7341
19978SOL     OW71912   0.390  11.150   3.840 -0.5746  0.0927 -0.0009
19978SOL    HW171913   0.369  11.063   3.807  0.3693 -0.4195  0.6794
19978SOL    HW271914   0.462  11.180   3.784 -0.0218 -0.1202  0.5896
19979SOL     OW71915   5.604   5.202   7.241  0.1880  0.0326 -0.0336
19979SOL    HW171916   5.594   5.143   7.166  0.3554 -0.5388  0.3874
19979SOL    HW271917   5.570   5.286   7.210  2.2255  0.4063 -1.4830
19980SOL     OW71918   3.896   1.473   8.757  0.6790  0.0587  0.4341
19980SOL    HW171919   3.838   1.536   8.714 -0.3079 -0.0409  1.5726
19980SOL    HW271920   3.936   1.523   8.829  0.3152 -0.4605  1.0030
19981SOL     OW71921   2.257   5.464   4.721 -0.6326  0.0941 -0.2862
19981SOL    HW171922   2.188   5.416   4.673  0.6043  0.0876 -2.1816
19981SOL    HW271923   2.263   5.419   4.805 -0.9214 -1.8389 -1.2307
19982SOL     OW71924   3.525   0.082   6.586  0.0463  0.0716  0.3855
19982SOL    HW171925   3.473   0.140   6.642 -1.5919 -2.2866  1.4697
19982SOL    HW271926   3.600   0.058   6.639  1.4140  2.0411 -0.5195
19983SOL     OW71927  13.771   7.916   8.573 -0.0922  0.8778  0.3732
19983SOL    HW171928  13.750   7.969   8.650  1.0987  0.1724  1.2075
19983SOL    HW271929  13.775   7.827   8.605 -0.2704  0.4759 -0.6694
19984SOL     OW71930   4.907   2.388   1.365  0.6895  0.2716  0.2254
19984SOL    HW171931   4.943   2.418   1.281  0.3720 -1.6520 -0.6413
19984SOL    HW271932   4.824   2.435   1.374  1.3462  1.4876  0.1346
19985SOL     OW71933   0.910   5.582   5.878 -0.0058 -0.0089 -0.7566
19985SOL    HW171934   0.974   5.653   5.884 -0.8167  1.1859 -4.0868
19985SOL    HW271935   0.839   5.608   5.937  1.2255  0.0992  0.7431
19986SOL     OW71936   3.947   7.932   3.648  0.1322 -0.8322 -0.8447
19986SOL    HW171937   3.990   8.000   3.698  0.0322  0.8220 -2.8712
19986SOL    HW271938   4.019   7.877   3.616  0.4411 -0.2382 -1.1899
19987SOL     OW71939   3.493  10.894   4.325 -0.5391  0.1286  0.4471
19987SOL    HW171940   3.518  10.838   4.398 -0.2919 -0.5522 -0.1449
19987SOL    HW271941   3.401  10.873   4.309 -0.2567 -0.6433 -0.2266
19988SOL     OW71942   2.487   6.502  10.365 -0.0063 -0.4133  0.0386
19988SOL    HW171943   2.536   6.505  10.447  0.1391  2.2250 -0.0621
19988SOL    HW271944   2.405   6.457  10.387  0.7225 -1.2152  1.2048
19989SOL     OW71945   8.430   1.240   8.738 -0.1957 -0.1151 -0.1741
19989SOL    HW171946   8.479   1.311   8.697 -1.3438  1.1630  0.5591
19989SOL    HW271947   8.460   1.240   8.829  1.7428 -2.3925 -0.7018
19990SOL     OW71948   9.792   3.591   2.895 -0.1047  0.1282  0.0051
19990SOL    HW171949   9.774   3.530   2.967  2.1649  0.4782  0.9839
19990SOL    HW271950   9.727   3.660   2.905 -2.4934 -1.8495 -0.8994
19991SOL     OW71951  11.710  10.160   0.202 -0.4428  0.0650 -0.3803
19991SOL    HW171952  11.801  10.132   0.193  0.1042  2.0147 -1.4045
19991SOL    HW271953  11.714  10.235   0.261 -1.4147  0.0999 -0.3389
19992SOL     OW71954   6.605   7.875  13.899  0.3300  0.7336 -0.2082
19992SOL    HW171955   6.525   7.826  13.882 -0.3865  1.1244  1.7426
19992SOL    HW271956   6.585   7.964  13.870 -1.3501  1.7122  3.3687
19993SOL     OW71957   7.926   6.879  11.609 -0.0082  0.1288 -0.0357
19993SOL    HW171958   7.902   6.932  11.532 -1.0822 -0.0286  0.1747
19993SOL    HW271959   8.019   6.897  11.622  0.2624 -0.0253 -1.5204
19994SOL     OW71960  12.877   0.677   2.344 -0.3166 -0.2472  0.0678
19994SOL    HW171961  12.842   0.595   2.378  0.6802 -1.1742 -1.0510
19994SOL    HW271962  12.824   0.695   2.266  1.3973 -1.5433 -1.5091
19995SOL     OW71963   0.603   8.483  13.076 -0.8057 -0.3738 -0.1936
19995SOL    HW171964   0.526   8.443  13.118 -0.0711 -2.0159 -0.3125
19995SOL    HW271965   0.649   8.409  13.036  0.7615  0.5874 -0.2472
19996SOL     OW71966  11.216   5.497   1.943 -0.6323 -0.8462  0.0280
19996SOL    HW171967  11.239   5.546   2.022  0.6614 -1.8901  0.3253
19996SOL    HW271968  11.252   5.550   1.871 -1.6082 -0.0140  0.1270
19997SOL     OW71969   8.054   4.864  13.138  0.0403  0.6461  0.0370
19997SOL    HW171970   8.149   4.866  13.147 -0.1415  0.0660  3.1627
19997SOL    HW271971   8.031   4.771  13.145 -0.7702  0.7991 -0.4711
19998SOL     OW71972  11.246   2.380   8.323  0.4139 -0.0091  0.2505
19998SOL    HW171973  11.157   2.417   8.330  0.9493  1.2827  0.5000
19998SOL    HW271974  11.232   2.291   8.292 -0.8616  1.6575 -5.1406
19999SOL     OW71975   3.375   8.085   0.899  0.0573 -0.0054 -0.7210
19999SOL    HW171976   3.446   8.021   0.908 -0.1710 -0.1527  0.0977
19999SOL    HW271977   3.345   8.075   0.809  0.6133 -0.4329 -0.8644
20000SOL     OW71978  12.188  13.227   9.869  0.0062 -0.0181  0.5706
20000SOL    HW171979  12.256  13.232   9.803  0.2867  1.2126  0.9261
20000SOL    HW271980  12.201  13.141   9.910  1.0523  0.0116  0.3313
20001SOL     OW71981  12.526   3.826   5.951 -0.9713 -0.1029  0.1444
20001SOL    HW171982  12.498   3.829   5.860 -1.6032  0.8954  0.3600
20001SOL    HW271983  12.590   3.755   5.954  1.2958  1.7421 -1.6636
20002SOL     OW71984   9.766  13.312   6.005 -0.8792 -0.2815  0.1888
20002SOL    HW171985   9.836  13.262   5.964 -0.2368  0.2839  0.5840
20002SOL    HW271986   9.687  13.284   5.959 -0.6920 -2.3812  1.0483
20003SOL     OW71987   7.218  10.072  13.493 -0.3405  0.2247  0.3268
20003SOL    HW171988   7.196   9.989  13.536  0.5722 -0.3808 -0.3192
20003SOL    HW271989   7.159  10.136  13.532 -1.8906 -0.9459  0.0061
20004SOL     OW71990   9.363   7.700  10.217 -0.2639  0.4472  0.0071
20004SOL    HW171991   9.343   7.669  10.306  0.5644 -2.2189 -0.6266
20004SOL    HW271992   9.342   7.625  10.161  1.9767  1.0229 -1.7328
20005SOL     OW71993   6.454   3.178   3.834 -0.2275 -0.2778 -0.2104
20005SOL    HW171994   6.398   3.256   3.831 -0.4914 -0.4732 -3.4791
20005SOL    HW271995   6.414   3.117   3.772  1.1275 -2.2424  0.7599
20006SOL     OW71996   5.213   1.120   0.622  0.0486 -0.8717 -0.0117
20006SOL    HW171997   5.246   1.209   0.632 -0.0785 -0.8858  0.5967
20006SOL    HW271998   5.229   1.079   0.707  1.0126 -1.7383 -0.5919
20007SOL     OW71999   3.791   9.177   8.335  0.5693  0.0201  0.4438
20007SOL    HW172000   3.839   9.116   8.392  1.9730  1.6140  1.0822
20007SOL    HW272001   3.756   9.123   8.265  1.3038 -1.5883  1.2675
20008SOL     OW72002  11.839   9.048   7.096  0.6498  0.0551  0.1578
20008SOL    HW172003  11.894   9.060   7.173  0.1472  0.3971  0.4665
20008SOL    HW272004  11.750   9.037   7.131  0.5300 -0.6184 -0.3249
20009SOL     OW72005   3.686   8.171   7.058  0.0257 -0.4207 -0.3581
20009SOL    HW172006   3.652   8.156   7.146 -0.5581 -1.0095 -0.6810
20009SOL    HW272007   3.679   8.266   7.045 -1.3932 -0.5179 -0.3824
20010SOL     OW72008   5.245   8.476  12.207  0.3515  0.0488  0.3441
20010SOL    HW172009   5.310   8.461  12.139  1.0427  1.0273  0.7616
20010SOL    HW272010   5.292   8.524  12.275 -0.7303  0.5076  0.7972
20011SOL     OW72011   9.817   8.193   9.645 -0.3124 -0.4461 -0.0664
20011SOL    HW172012   9.908   8.220   9.660 -0.1865  0.4810 -2.2200
20011SOL    HW272013   9.767   8.245   9.708  0.4180  1.0683 -0.6843
20012SOL     OW72014   1.416   1.397   6.438 -0.4567  0.0115 -0.2452
20012SOL    HW172015   1.363   1.410   6.360 -0.7088  1.2209  0.1030
20012SOL    HW272016   1.356   1.359   6.502  0.0823 -2.2532 -1.0247
20013SOL     OW72017   1.033   2.490  10.631  0.3938  0.1030  0.8003
20013SOL    HW172018   0.982   2.516  10.708  1.3602 -1.6609  2.1046
20013SOL    HW272019   0.968   2.481  10.561 -0.6335  0.8275  1.6329
20014SOL     OW72020   4.631  10.944   4.942  0.0881  0.5206 -0.0067
20014SOL    HW172021   4.614  10.956   4.849 -1.0298  0.3524  0.1607
20014SOL    HW272022   4.561  10.993   4.985 -0.3761 -0.7638  0.7332
20015SOL     OW72023   4.605   0.681   9.474  0.1362  0.2212 -0.5126
20015SOL    HW172024   4.565   0.596   9.493 -0.2160  0.6191  0.6678
20015SOL    HW272025   4.664   0.696   9.548 -0.2116  1.2362 -0.4304
20016SOL     OW72026   0.533   1.645  12.836  0.0070 -0.0565 -0.1846
20016SOL    HW172027   0.579   1.726  12.815 -0.3527  0.0521 -0.5795
20016SOL    HW272028   0.469   1.671  12.904 -2.1327  0.6784 -2.3254
20017SOL     OW72029  11.905   0.035   8.526  0.4844  0.6691 -0.5477
20017SOL    HW172030  11.865  -0.019   8.458 -0.1685  0.6684 -0.1699
20017SOL    HW272031  11.994   0.051   8.495  0.1675  0.7293 -1.4332
20018SOL     OW72032   9.753   6.850   2.954 -0.1401  0.1044  0.2414
20018SOL    HW172033   9.728   6.835   3.045 -2.9488 -0.3109 -0.5060
20018SOL    HW272034   9.748   6.763   2.913  1.8083  0.1520 -0.2124
20019SOL     OW72035   9.825   5.871   7.574  0.9771 -0.1597  0.4025
20019SOL    HW172036   9.812   5.947   7.517 -0.1859 -0.1504  0.6430
20019SOL    HW272037   9.880   5.812   7.523 -0.1700 -0.2294 -0.8290
20020SOL     OW72038   0.094   7.788   1.787  0.2642  0.2805 -0.3513
20020SOL    HW172039   0.158   7.823   1.725  2.7098 -1.2465  1.1491
20020SOL    HW272040   0.123   7.823   1.872 -0.9441 -0.4161  0.3619
20021SOL     OW72041  12.318  12.776  13.471  0.1393 -0.1043 -0.1346
20021SOL    HW172042  12.365  12.819  13.401  0.5674 -0.2026  0.0896
20021SOL    HW272043  12.320  12.683  13.448 -0.1030 -0.0905 -0.2155
20022SOL     OW72044   3.367  10.963   1.016 -0.2488 -0.2592  0.3274
20022SOL    HW172045   3.352  10.987   0.924 -1.7589  0.6894  0.7915
20022SOL    HW272046   3.458  10.933   1.018  0.7477  2.4111 -0.9512
20023SOL     OW72047   3.787   3.480   1.083 -0.3668  0.1685  0.0644
20023SOL    HW172048   3.808   3.536   1.157 -0.6724  1.0349 -0.4925
20023SOL    HW272049   3.717   3.423   1.116  1.6485 -1.6771  1.4313
20024SOL     OW72050   2.542   6.146   3.999 -0.3230  0.3018 -0.3642
20024SOL    HW172051   2.487   6.096   3.939  0.2036 -1.3698  0.4803
20024SOL    HW272052   2.480   6.187   4.059 -0.7148 -1.0251  0.1802
20025SOL     OW72053   1.898  13.692   3.513  0.0685 -0.8307 -0.1710
20025SOL    HW172054   1.992  13.703   3.528 -0.1972 -0.3343  1.2573
20025SOL    HW272055   1.880  13.744   3.434  0.8040  0.0158  0.2039
20026SOL     OW72056   9.882   7.117   4.494  0.3885 -0.1853  0.1984
20026SOL    HW172057   9.944   7.169   4.545 -0.0599 -0.3655  0.9339
20026SOL    HW272058   9.938   7.059   4.442  0.8554  0.1464  0.3194
20027SOL     OW72059   1.474   1.814  13.430 -0.0373 -0.1981  0.0134
20027SOL    HW172060   1.540   1.883  13.437  0.1813 -0.5346  1.8214
20027SOL    HW272061   1.507   1.757  13.360  0.5868  0.6623 -0.4179
20028SOL     OW72062   5.827   4.291   8.263  0.1489  0.4517  0.7223
20028SOL    HW172063   5.752   4.341   8.292 -1.4452 -1.0445 -0.5799
20028SOL    HW272064   5.894   4.356   8.244 -1.0316  1.8798  1.2994
20029SOL     OW72065   1.032   9.142   2.373 -0.0890  0.0971 -0.1458
20029SOL    HW172066   1.087   9.220   2.369  1.0854 -0.7163 -0.3269
20029SOL    HW272067   1.012   9.131   2.467  1.0072 -0.2377  0.0553
20030SOL     OW72068  11.809  13.307   6.935  0.4146 -0.0510 -0.0587
20030SOL    HW172069  11.904  13.301   6.927  0.4111  1.0924 -1.3074
20030SOL    HW272070  11.779  13.337   6.849 -1.1557 -1.0600  0.0876
20031SOL     OW72071   9.678   4.669  13.485  0.0563  0.0449 -0.2473
20031SOL    HW172072   9.699   4.673  13.391 -1.6875  0.1560 -0.6752
20031SOL    HW272073   9.653   4.577  13.499 -2.1482  0.5517 -0.5180
20032SOL     OW72074  12.660   5.145   2.508  0.4078  0.2847  0.3271
20032SOL    HW172075  12.692   5.059   2.538  1.9088  0.9516  0.7455
20032SOL    HW272076  12.665   5.201   2.585 -0.5633  0.7652  0.0547
20033SOL     OW72077   0.475   4.959  11.294 -0.2605 -0.4700  0.0397
20033SOL    HW172078   0.440   4.944  11.382 -0.0218 -1.6954 -0.0465
20033SOL    HW272079   0.550   5.016  11.308 -0.8669  0.2500  0.4936
20034SOL     OW72080  12.717  12.559   4.010  0.2287 -0.0115 -0.2866
20034SOL    HW172081  12.623  12.554   4.027  0.2945 -0.4228 -0.0404
20034SOL    HW272082  12.725  12.624   3.940  0.0050  2.0913  1.5665
20035SOL     OW72083   9.574   4.617  12.898  0.2708 -0.1710 -0.3894
20035SOL    HW172084   9.657   4.574  12.919 -0.5773 -0.8360  1.9248
20035SOL    HW272085   9.538   4.567  12.824  1.8761  0.1188 -1.4081
20036SOL     OW72086   3.103   6.492   1.175  0.1491 -0.1176  0.0930
20036SOL    HW172087   3.052   6.565   1.139  0.6731 -0.2067 -0.8605
20036SOL    HW272088   3.050   6.415   1.156  0.8296 -0.2728 -1.3842
20037SOL     OW72089   0.442   4.307  11.212 -0.6370  0.0895 -0.3862
20037SOL    HW172090   0.348   4.285  11.208 -0.6149  0.1192 -2.7203
20037SOL    HW272091   0.462   4.310  11.305 -2.2680 -2.9234  0.1902
20038SOL     OW72092   5.147   5.184   1.131  0.2454 -0.1955 -0.6072
20038SOL    HW172093   5.105   5.270   1.140  0.3615  0.0994 -2.5532
20038SOL    HW272094   5.085   5.133   1.079  0.4283 -1.1202  0.0712
20039SOL     OW72095   2.437   0.816   6.274  0.5162  0.0040  0.2172
20039SOL    HW172096   2.514   0.760   6.266  0.0532 -0.6285  0.0283
20039SOL    HW272097   2.390   0.781   6.350  0.1694  0.0635  0.0319
20040SOL     OW72098   2.169   6.004   8.815 -0.0495 -0.1273 -0.3431
20040SOL    HW172099   2.114   5.996   8.894 -0.0853  0.6294 -0.2783
20040SOL    HW272100   2.211   6.090   8.825  0.1099 -0.1246 -1.0468
20041SOL     OW72101   5.260   3.314   8.870 -1.1407  0.2664  0.1001
20041SOL    HW172102   5.277   3.245   8.805 -0.2606  1.5226 -1.0622
20041SOL    HW272103   5.166   3.333   8.861 -1.0455  0.3672 -0.7616
20042SOL     OW72104   6.174   2.705   2.196  0.4296  0.1940 -0.3673
20042SOL    HW172105   6.222   2.703   2.114  0.2306  0.3020 -0.4887
20042SOL    HW272106   6.195   2.623   2.239  0.3814  0.0513 -0.6151
20043SOL     OW72107   1.436  11.320   8.169 -0.2994 -0.3045  0.3503
20043SOL    HW172108   1.518  11.334   8.121 -0.2996 -1.7310 -0.1291
20043SOL    HW272109   1.453  11.242   8.222 -1.1892 -0.3171  0.6224
20044SOL     OW72110   2.606   6.242  12.984 -0.3601 -0.0069 -0.3573
20044SOL    HW172111   2.559   6.221  13.065  1.4882  0.6473  0.9627
20044SOL    HW272112   2.571   6.327  12.957  1.0539  1.2938  1.5367
20045SOL     OW72113   8.223   8.280  12.804  0.5683  0.1707 -0.2186
20045SOL    HW172114   8.249   8.287  12.896  0.9600 -0.3896 -0.2842
20045SOL    HW272115   8.211   8.186  12.790 -1.4203  0.3636 -0.2066
20046SOL     OW72116   3.228   7.406   2.858  0.7280 -0.0838 -0.0986
20046SOL    HW172117   3.310   7.384   2.901  1.2832  0.0668 -1.0464
20046SOL    HW272118   3.160   7.365   2.912  1.0669  2.8431  2.8141
20047SOL     OW72119   7.065   7.983   1.871 -0.7502  0.1418  0.2951
20047SOL    HW172120   7.129   7.922   1.908  0.9744  1.2868 -0.6758
20047SOL    HW272121   7.042   7.945   1.786 -0.6578  0.1843  0.2507
20048SOL     OW72122   1.654   0.013   4.711  0.3397  0.8769 -0.0279
20048SOL    HW172123   1.650  -0.011   4.618 -2.1040  1.7843 -0.2319
20048SOL    HW272124   1.700   0.097   4.712  0.3140  0.8994 -0.4445
20049SOL     OW72125   5.140   7.833  10.035  0.1980 -0.0346 -0.5778
20049SOL    HW172126   5.125   7.739  10.031 -0.6017  0.0584  0.0658
20049SOL    HW272127   5.062   7.872   9.995 -0.6453  0.4160  1.3979
20050SOL     OW72128   6.482   5.463   4.070 -0.1251  0.2252  0.1813
20050SOL    HW172129   6.406   5.476   4.014 -1.5564  2.4685  2.4831
20050SOL    HW272130   6.448   5.421   4.149  0.9929  1.1667  1.2191
20051SOL     OW72131   6.600  13.405   2.339  0.3874  0.3003  0.0669
20051SOL    HW172132   6.633  13.494   2.328  1.3278  0.0239  0.5398
20051SOL    HW272133   6.603  13.367   2.252  1.9276  0.0924  0.1833
20052SOL     OW72134   8.760   2.548   0.070  0.4239  0.3212 -0.4543
20052SOL    HW172135   8.711   2.630   0.057  0.9746  0.7326 -0.0032
20052SOL    HW272136   8.852   2.576   0.072  0.7085 -0.4735 -1.6073
20053SOL     OW72137   3.992  13.764  11.399 -0.2078  0.3449  0.4293
20053SOL    HW172138   4.067  13.747  11.456  0.1831  1.6965  0.3712
20053SOL    HW272139   4.030  13.771  11.311 -0.4375  0.6871  0.3524
20054SOL     OW72140   4.592   5.734   5.324  0.5319  0.1769 -0.5257
20054SOL    HW172141   4.537   5.673   5.372  0.2244  1.4851  0.8493
20054SOL    HW272142   4.609   5.805   5.385  1.1322  1.3356 -1.9648
20055SOL     OW72143   0.321   8.465   7.510  0.6424  0.0029 -0.3183
20055SOL    HW172144   0.277   8.382   7.490  0.4234 -0.3079  1.3683
20055SOL    HW272145   0.387   8.443   7.575  0.6318  1.1430  0.1097
20056SOL     OW72146   4.669  12.393  12.086  0.0615  0.0815  0.4777
20056SOL    HW172147   4.645  12.308  12.122 -0.1314 -0.4375 -0.8534
20056SOL    HW272148   4.644  12.389  11.994  1.1282  1.1505  0.1083
20057SOL     OW72149   2.243   3.332   3.276  0.6283 -0.3093 -0.0368
20057SOL    HW172150   2.275   3.290   3.356 -0.2341 -1.2822 -0.1925
20057SOL    HW272151   2.210   3.417   3.305  2.0465  0.1433  0.3352
20058SOL     OW72152   1.640   8.657   8.121  0.3022 -0.0610 -0.5293
20058SOL    HW172153   1.564   8.653   8.178 -0.0979 -1.0290 -1.1119
20058SOL    HW272154   1.622   8.731   8.062 -1.0687 -1.3991 -1.8554
20059SOL     OW72155   0.863   9.972   5.049 -0.2055 -0.1543  0.2993
20059SOL    HW172156   0.892  10.046   5.102 -0.5179  1.2492 -1.4085
20059SOL    HW272157   0.942   9.943   5.003 -0.4301  0.3529 -0.4365
20060SOL     OW72158   2.633   9.989   2.090  0.1693 -0.0521  0.7376
20060SOL    HW172159   2.713  10.032   2.061 -0.5712  0.8390 -0.0641
20060SOL    HW272160   2.611  10.032   2.172 -0.2518  0.7202  0.2321
20061SOL     OW72161  11.735   2.638   2.135  0.1669  0.4376  0.2561
20061SOL    HW172162  11.761   2.715   2.185  1.8556 -0.4889  0.8621
20061SOL    HW272163  11.655   2.608   2.178 -0.1576  1.4721  0.3991
20062SOL     OW72164   4.563  11.231   9.538 -0.3100  0.2496 -0.2604
20062SOL    HW172165   4.654  11.250   9.562  0.0934 -2.1672  0.3893
20062SOL    HW272166   4.552  11.270   9.452  0.6233  2.5083  0.5617
20063SOL     OW72167  10.699   3.280   2.305  0.4129  0.1621 -0.2586
20063SOL    HW172168  10.754   3.330   2.244  0.9050  0.6034  0.5285
20063SOL    HW272169  10.693   3.336   2.382  0.4946 -0.7485  0.4223
20064SOL     OW72170   7.497  11.048   8.771  0.3660 -0.3108  0.2591
20064SOL    HW172171   7.570  11.108   8.785 -1.2922  1.9272 -0.1070
20064SOL    HW272172   7.426  11.084   8.823 -0.7821 -1.8832 -0.1284
20065SOL     OW72173  12.383  12.510  12.251 -0.1891 -0.3478 -0.0824
20065SOL    HW172174  12.355  12.598  12.225  0.7943  0.4412  1.3782
20065SOL    HW272175  12.384  12.460  12.170  0.0039  1.2100 -1.0858
20066SOL     OW72176  12.052  12.635   5.093  0.0152 -0.0984 -0.2028
20066SOL    HW172177  12.092  12.697   5.154 -0.6545  2.1852 -1.9788
20066SOL    HW272178  12.119  12.567   5.082  0.1886 -0.6018  2.9264
20067SOL     OW72179   6.259   3.459   4.658  0.1873  0.0047 -0.2106
20067SOL    HW172180   6.216   3.543   4.677 -1.1201 -0.8240  0.6415
20067SOL    HW272181   6.350   3.482   4.641  0.1328  1.4739  1.2682
20068SOL     OW72182  12.406   7.190   0.970  0.1423 -0.4509 -0.3272
20068SOL    HW172183  12.346   7.255   1.007  0.6825 -0.6850  1.0208
20068SOL    HW272184  12.401   7.116   1.031  0.1684 -1.3561 -1.3832
20069SOL     OW72185   1.617   3.536   4.036  0.4494  0.2050  0.1418
20069SOL    HW172186   1.583   3.546   3.947 -0.6310 -1.5936  0.3184
20069SOL    HW272187   1.539   3.540   4.092  0.6135 -2.5167  0.6727
20070SOL     OW72188   1.410  11.618   7.052 -0.0819 -0.3741  0.1814
20070SOL    HW172189   1.368  11.563   7.118  0.4656 -2.1892 -0.9168
20070SOL    HW272190   1.490  11.571   7.029 -0.7984 -0.4333 -2.5694
20071SOL     OW72191   3.659  10.183   4.628  0.4693 -0.4255  0.1670
20071SOL    HW172192   3.744  10.223   4.606  0.1548  0.0718 -0.1518
20071SOL    HW272193   3.642  10.213   4.718 -1.1223  2.6264 -0.9991
20072SOL     OW72194   2.143   0.940   8.319 -0.0794  0.4801 -0.1406
20072SOL    HW172195   2.069   0.988   8.280  0.4582  1.2371 -0.2381
20072SOL    HW272196   2.125   0.941   8.413 -0.1567  0.7220 -0.1568
20073SOL     OW72197  11.062   8.717   6.248  0.3149  0.0202  0.3668
20073SOL    HW172198  11.135   8.763   6.206  0.2517 -0.4254 -0.2298
20073SOL    HW272199  11.066   8.628   6.213  0.2357 -0.3525  1.2714
20074SOL     OW72200   4.373  12.776   8.565 -0.2124 -0.5225  0.4370
20074SOL    HW172201   4.290  12.770   8.518  0.8810  0.2956 -1.7251
20074SOL    HW272202   4.397  12.685   8.583 -0.3390 -0.9360 -1.2865
20075SOL     OW72203   0.947   9.440  13.036 -0.6222 -0.5154 -0.4548
20075SOL    HW172204   1.012   9.383  12.994 -0.9216 -1.2601  0.0710
20075SOL    HW272205   0.980   9.529  13.021  0.9192 -0.8882  0.4008
20076SOL     OW72206   1.924  10.175  11.394  0.3588  0.1307 -0.0871
20076SOL    HW172207   1.912  10.150  11.486 -1.1575  0.9580 -0.0358
20076SOL    HW272208   1.873  10.255  11.384 -0.1124 -0.3474 -1.8502
20077SOL     OW72209  12.842   5.614   3.510 -0.8816 -0.5973 -0.5446
20077SOL    HW172210  12.808   5.704   3.511  0.8207  0.0705 -0.2542
20077SOL    HW272211  12.801   5.572   3.586 -1.1389  0.1361 -0.2671
20078SOL     OW72212   9.909  10.360  13.630 -0.0868 -0.4455 -0.0771
20078SOL    HW172213   9.962  10.281  13.635  1.7708  0.7769  4.3401
20078SOL    HW272214   9.818  10.329  13.634  0.4502 -2.3657 -1.5578
20079SOL     OW72215   5.862  12.089   0.864 -0.1211  0.2906 -0.7232
20079SOL    HW172216   5.954  12.110   0.879 -0.8304  1.6881  2.2909
20079SOL    HW272217   5.836  12.144   0.791  0.4893  3.0309  0.9987
20080SOL     OW72218   2.004   6.570   4.295  0.1121  0.5317 -0.7541
20080SOL    HW172219   1.961   6.486   4.281  0.5937  0.1824 -0.1982
20080SOL    HW272220   2.098   6.550   4.291  0.2598  0.7133  1.1069
20081SOL     OW72221   9.358  13.884  10.077  0.3446  0.8625  0.6970
20081SOL    HW172222   9.407  13.964  10.056  0.9462  0.6034  1.0621
20081SOL    HW272223   9.387  13.862  10.165 -1.7834  1.6789  1.6545
20082SOL     OW72224  12.553  11.113   4.074 -0.0273 -0.4030  0.3420
20082SOL    HW172225  12.590  11.192   4.034  0.0400  0.1250  1.4093
20082SOL    HW272226  12.535  11.055   4.000 -0.7181  0.8681 -0.5171
20083SOL     OW72227  12.167   1.920  11.278  0.1749 -0.0510 -0.1930
20083SOL    HW172228  12.072   1.930  11.284  0.1812  2.1458 -2.1972
20083SOL    HW272229  12.184   1.908  11.184  1.8192 -1.5770  0.2492
20084SOL     OW72230   8.735   6.915   0.360  0.7835  0.3141  0.1564
20084SOL    HW172231   8.667   6.947   0.301  0.8143  0.5123  0.2275
20084SOL    HW272232   8.731   6.820   0.352  1.0390  0.3475 -0.4521
20085SOL     OW72233   8.612   7.468   9.042  0.6913  0.7472  0.2107
20085SOL    HW172234   8.658   7.485   8.960 -0.1643  0.5773 -0.3228
20085SOL    HW272235   8.660   7.395   9.081  1.8630  1.6371  0.4898
20086SOL     OW72236   0.133   8.301  12.286 -0.4959  0.0285  0.4817
20086SOL    HW172237   0.112   8.370  12.224  0.8738 -0.3046 -0.3826
20086SOL    HW272238   0.133   8.221  12.234 -1.9694 -0.6521  1.4459
20087SOL     OW72239   1.379  11.652   7.719  0.4226  0.0062  0.4320
20087SOL    HW172240   1.441  11.676   7.788  0.2727 -2.5654  1.5487
20087SOL    HW272241   1.293  11.665   7.758  0.2360  1.4536 -0.3749
20088SOL     OW72242   3.558   2.537   1.872  0.7437  0.0977  0.8356
20088SOL    HW172243   3.589   2.521   1.961 -2.0616  0.4849  2.0058
20088SOL    HW272244   3.464   2.516   1.875  0.2275  1.6070 -1.6346
20089SOL     OW72245  12.616   4.354   2.383 -0.6819 -0.3582  0.5622
20089SOL    HW172246  12.618   4.435   2.333  2.5323 -1.1813 -0.8881
20089SOL    HW272247  12.524   4.342   2.406 -1.8564  1.6827 -2.4693
20090SOL     OW72248  11.025  11.784   4.167 -0.2412 -0.8817  0.1799
20090SOL    HW172249  11.088  11.844   4.126 -1.2254 -0.0634 -0.2120
20090SOL    HW272250  11.078  11.722   4.216  0.8430  0.0848  0.2688
20091SOL     OW72251  11.924   8.030   5.864 -0.1452  0.5076 -0.0419
20091SOL    HW172252  11.869   7.952   5.861 -1.7060  1.5772 -0.2903
20091SOL    HW272253  11.984   8.019   5.791 -2.9259  1.3055 -2.6428
20092SOL     OW72254   3.607   4.634  12.102  0.1122  0.0631  0.2263
20092SOL    HW172255   3.595   4.700  12.034 -0.0604  0.7399  0.9042
20092SOL    HW272256   3.535   4.572  12.087 -1.1025  1.2511  0.9721
20093SOL     OW72257   7.449   4.588   2.116 -0.1604 -0.2873 -0.2095
20093SOL    HW172258   7.511   4.603   2.045  1.2696 -1.2862  0.7735
20093SOL    HW272259   7.478   4.507   2.157 -1.0711  0.1336  1.3684
20094SOL     OW72260   1.387  12.288  10.665 -0.1209  0.2021 -0.6213
20094SOL    HW172261   1.399  12.382  10.681 -1.1241  0.2524 -0.0975
20094SOL    HW272262   1.468  12.248  10.698 -0.6612  0.6626  1.4169
20095SOL     OW72263   1.111  13.005   7.402 -0.1481 -0.2458  0.1351
20095SOL    HW172264   1.204  12.982   7.399  0.0440  0.4554  0.4283
20095SOL    HW272265   1.077  12.959   7.479  0.3362  0.7933  0.9952
20096SOL     OW72266   6.722  10.961   9.214 -0.6564 -0.0667  0.3856
20096SOL    HW172267   6.686  11.048   9.196 -0.2117  0.2202  0.8145
20096SOL    HW272268   6.809  10.963   9.175  0.3385  0.5830  2.4684
20097SOL     OW72269   6.029   5.550   2.311 -0.0923 -0.1695  0.0587
20097SOL    HW172270   6.068   5.546   2.398 -1.4304  0.3666  0.7134
20097SOL    HW272271   6.062   5.633   2.274 -1.1530  0.6654  0.9064
20098SOL     OW72272   4.569   1.127   5.983  0.3561  0.3798 -0.8885
20098SOL    HW172273   4.640   1.086   6.032  0.1564  0.6084 -0.3925
20098SOL    HW272274   4.611   1.167   5.907  0.7879  0.6602 -0.5114
20099SOL     OW72275   7.975   2.118   2.871 -0.5880  0.2193  0.4058
20099SOL    HW172276   7.955   2.176   2.945 -1.6240  0.2798  0.1080
20099SOL    HW272277   7.895   2.121   2.817 -0.2894 -0.7380 -0.1073
20100SOL     OW72278   8.254   7.850   9.817  0.2498 -0.3831 -0.5029
20100SOL    HW172279   8.169   7.831   9.858  0.7585 -1.7716 -0.0358
20100SOL    HW272280   8.309   7.882   9.889 -0.0400  1.1832 -0.9319
20101SOL     OW72281   4.563   6.231   8.768  0.1418 -0.1179  0.2203
20101SOL    HW172282   4.613   6.261   8.692 -0.0185  0.2772  0.2656
20101SOL    HW272283   4.549   6.311   8.819  1.3918 -0.5817  1.3491
20102SOL     OW72284   4.506   3.451   2.337 -0.2823 -0.0070 -0.1135
20102SOL    HW172285   4.490   3.375   2.282  0.7418  0.5084 -1.1804
20102SOL    HW272286   4.421   3.472   2.375 -0.6645 -1.4052 -0.1482
20103SOL     OW72287   3.504   2.791  13.904 -0.5392 -0.0198  0.1549
20103SOL    HW172288   3.553   2.709  13.907  0.7227  0.7259  0.4402
20103SOL    HW272289   3.443   2.780  13.831  1.5365 -0.1560 -1.6279
20104SOL     OW72290  11.228   9.390  12.678 -0.1672  0.0694 -0.7775
20104SOL    HW172291  11.137   9.389  12.707  0.2282 -1.1668  0.5445
20104SOL    HW272292  11.235   9.313  12.621  0.2930 -0.4798  0.0028
20105SOL     OW72293   1.396   2.722   3.166 -0.6605  0.3653 -0.2212
20105SOL    HW172294   1.355   2.777   3.233  1.0704  0.9860  0.3898
20105SOL    HW272295   1.409   2.781   3.091  0.4230  0.5841  0.1251
20106SOL     OW72296   5.120  11.518  10.744  0.1637  0.3398 -0.5589
20106SOL    HW172297   5.091  11.603  10.778 -2.3858 -0.0978 -1.4090
20106SOL    HW272298   5.044  11.461  10.755  1.8716 -1.9077  0.1340
20107SOL     OW72299   0.625  13.096  13.697 -0.5868 -0.0848  0.5329
20107SOL    HW172300   0.678  13.051  13.763 -1.8226  0.6595  2.0917
20107SOL    HW272301   0.535  13.068  13.715 -0.8046 -1.5063 -2.2136
20108SOL     OW72302   7.730   0.000   3.633  0.0049  0.0478  0.3423
20108SOL    HW172303   7.730  -0.096   3.635 -0.0258  0.0072 -0.9840
20108SOL    HW272304   7.822   0.024   3.616 -0.2113  0.2061 -0.6349
20109SOL     OW72305   6.629   4.337   4.347 -0.0618  0.1158 -0.1490
20109SOL    HW172306   6.667   4.355   4.433 -1.7268  0.1580  0.6198
20109SOL    HW272307   6.582   4.254   4.359 -0.3642  0.1579 -0.9909
20110SOL     OW72308  12.788   0.393  10.350  0.1121 -0.2629  0.2869
20110SOL    HW172309  12.808   0.303  10.323  0.7879 -0.3819  1.1290
20110SOL    HW272310  12.845   0.408  10.426  0.8372  1.2593 -0.5212
20111SOL     OW72311   0.679   2.499  13.708 -1.1724  0.2212  0.1682
20111SOL    HW172312   0.660   2.412  13.672  0.2842  0.3154 -0.9429
20111SOL    HW272313   0.765   2.489  13.748 -0.8378  1.2171 -0.2745
20112SOL     OW72314   6.604   1.060  11.286  0.4157  0.0390  0.3150
20112SOL    HW172315   6.665   1.006  11.236 -1.3506 -0.5823 -1.2830
20112SOL    HW272316   6.629   1.150  11.266  1.4618 -0.1948  0.5401
20113SOL     OW72317   0.590   4.877   4.396  0.4177 -0.0602  0.1144
20113SOL    HW172318   0.505   4.853   4.432  0.4277 -0.4288 -0.1120
20113SOL    HW272319   0.582   4.865   4.302  0.4222  0.8221 -0.0109
20114SOL     OW72320  12.229  10.412   1.440 -0.3979  0.1187 -0.0412
20114SOL    HW172321  12.234  10.369   1.354  0.3744  0.3892 -0.1379
20114SOL    HW272322  12.274  10.351   1.499  1.7531  1.2715 -0.3866
20115SOL     OW72323   5.487  12.067   0.003  0.2890  0.2083  0.1047
20115SOL    HW172324   5.537  12.124   0.061  0.6122  0.1059 -0.0756
20115SOL    HW272325   5.397  12.098   0.011  0.1198 -0.5475  1.5972
20116SOL     OW72326   7.291   6.466   4.952  0.2497 -0.3439 -0.0330
20116SOL    HW172327   7.365   6.444   5.009  0.6492 -0.0960 -0.4561
20116SOL    HW272328   7.316   6.435   4.865 -0.3947 -0.7967 -0.0666
20117SOL     OW72329   1.009   2.953   5.877  0.0527  0.6350  0.0995
20117SOL    HW172330   1.010   2.915   5.965 -1.5960 -0.3602 -0.2831
20117SOL    HW272331   1.085   2.915   5.834 -0.0408 -0.1227  0.5902
20118SOL     OW72332  10.441  10.252   2.216 -0.0406 -0.3092  0.1625
20118SOL    HW172333  10.480  10.339   2.210 -1.7711  0.4783 -0.4435
20118SOL    HW272334  10.411  10.245   2.307  0.2114 -0.3463  0.2451
20119SOL     OW72335   7.000   3.950  10.902  0.1711 -0.0222  0.0306
20119SOL    HW172336   6.948   3.927  10.826  0.0196 -1.0351  0.4364
20119SOL    HW272337   6.946   3.926  10.977 -0.2973  2.2841  0.5179
20120SOL     OW72338  13.673   2.940   3.901  0.4604 -0.5433 -0.1838
20120SOL    HW172339  13.758   2.929   3.860  0.2174  0.3564 -0.9681
20120SOL    HW272340  13.690   2.990   3.981  0.7241 -0.7829 -0.0915
20121SOL     OW72341   9.903   5.005  10.908 -0.0346  0.2210  0.0178
20121SOL    HW172342   9.965   4.966  10.970 -0.6209 -3.0948 -1.2595
20121SOL    HW272343   9.840   5.051  10.963  0.7668 -0.6336  1.7307
20122SOL     OW72344  11.732   3.472   3.215  0.3983 -0.0750  0.6698
20122SOL    HW172345  11.641   3.502   3.210 -0.4847 -2.5357  0.7573
20122SOL    HW272346  11.747   3.426   3.133  1.8508  0.9122  0.3412
20123SOL     OW72347  13.556   5.607  10.287 -0.5456  0.3428  0.5597
20123SOL    HW172348  13.553   5.515  10.313 -0.1914  0.3155  0.5208
20123SOL    HW272349  13.620   5.646  10.347 -0.5305  0.5138  0.4319
20124SOL     OW72350   2.276   8.611   6.343 -0.0915 -0.3652 -0.2737
20124SOL    HW172351   2.235   8.616   6.429 -3.2916 -2.4070 -1.5152
20124SOL    HW272352   2.264   8.699   6.306  1.9015  0.7368  1.4598
20125SOL     OW72353   9.150  12.181  10.168 -0.1611  0.2386  0.0725
20125SOL    HW172354   9.209  12.105  10.174 -1.7233 -1.1928 -1.5785
20125SOL    HW272355   9.077  12.158  10.225 -0.7348  0.4172 -0.5875
20126SOL     OW72356   2.092  12.027   9.986 -0.5669 -0.3557  0.1126
20126SOL    HW172357   2.042  12.047  10.065  0.6801 -1.9604  1.3598
20126SOL    HW272358   2.088  12.108   9.934 -1.8596  0.5506  1.5645
20127SOL     OW72359   1.304   0.147   9.199 -0.3797 -0.4024  0.3067
20127SOL    HW172360   1.329   0.227   9.246  0.0880 -0.1583 -0.3334
20127SOL    HW272361   1.217   0.167   9.164 -0.0583  0.0358 -0.2755
20128SOL     OW72362   0.138   0.211  11.466  0.6636 -0.5868  0.3570
20128SOL    HW172363   0.138   0.117  11.449  2.2039 -0.5817  0.1486
20128SOL    HW272364   0.229   0.231  11.491  1.1131  1.3154 -2.3332
20129SOL     OW72365  10.438   0.860   1.149  0.0307  0.1657  0.2877
20129SOL    HW172366  10.363   0.857   1.208 -1.0657 -1.4353 -1.0920
20129SOL    HW272367  10.405   0.902   1.070  0.4780 -0.8180 -0.4452
20130SOL     OW72368  12.555   8.775  11.409 -0.5573 -0.2932  0.2665
20130SOL    HW172369  12.588   8.690  11.438  0.2882 -0.8962 -2.2052
20130SOL    HW272370  12.482   8.794  11.467 -0.5328 -2.5345  1.1048
20131SOL     OW72371   3.385   2.265   3.330 -0.1169  0.5937  0.7140
20131SOL    HW172372   3.378   2.327   3.257 -0.5084 -1.1210 -0.7843
20131SOL    HW272373   3.326   2.193   3.306  1.6262 -1.1984  1.4979
20132SOL     OW72374   2.357   5.711   6.482 -0.2950  0.0022 -0.2937
20132SOL    HW172375   2.425   5.741   6.542  0.9084 -0.4132 -1.3938
20132SOL    HW272376   2.291   5.781   6.482  0.3023  0.5804  0.5191
20133SOL     OW72377   5.912  11.459   5.297 -0.2657  0.0795 -0.7212
20133SOL    HW172378   5.934  11.410   5.377 -1.2447  0.5029 -0.1775
20133SOL    HW272379   5.997  11.488   5.263  0.1829 -0.3051  0.0446
20134SOL     OW72380   8.075  11.972   7.855  0.0341  0.1431 -0.6379
20134SOL    HW172381   8.024  11.977   7.937 -2.7806 -1.6226 -2.1083
20134SOL    HW272382   8.060  12.056   7.813 -1.4874 -0.2232 -0.8882
20135SOL     OW72383  10.013  12.398   8.673 -0.0783  0.0282  0.1929
20135SOL    HW172384  10.078  12.394   8.602 -3.0438 -1.4599 -2.7233
20135SOL    HW272385   9.970  12.484   8.661 -1.6020 -0.8355 -0.9430
20136SOL     OW72386   0.132   9.260   4.165  0.0010  0.2556  0.0530
20136SOL    HW172387   0.060   9.277   4.103 -0.0157 -2.3740 -0.7819
20136SOL    HW272388   0.175   9.345   4.175 -2.8521  1.8371  0.1749
20137SOL     OW72389   1.825   9.669   0.239 -0.7972  0.2132 -0.3243
20137SOL    HW172390   1.773   9.648   0.162 -0.6657 -0.8561 -0.1417
20137SOL    HW272391   1.860   9.585   0.268 -0.1085  0.7206  0.3735
20138SOL     OW72392  12.375  11.373   5.967 -0.1643  0.4167  0.3305
20138SOL    HW172393  12.454  11.357   6.018  0.1297 -0.0957 -0.2802
20138SOL    HW272394  12.404  11.377   5.876 -0.8647 -0.0253  0.0735
20139SOL     OW72395   6.166   4.556   8.545  0.1816  0.4553 -0.2039
20139SOL    HW172396   6.187   4.472   8.586  0.9826  0.6627 -0.1657
20139SOL    HW272397   6.243   4.610   8.560 -0.4776  1.3321  0.1087
20140SOL     OW72398   0.857   0.466   3.427  0.0043  0.4157 -0.3371
20140SOL    HW172399   0.831   0.386   3.473 -0.4569  1.2581  0.9343
20140SOL    HW272400   0.913   0.436   3.356 -0.9195 -1.1050 -0.4615
20141SOL     OW72401   1.506   9.182   6.159 -0.2023  0.2989  0.5042
20141SOL    HW172402   1.527   9.102   6.209  0.0205 -0.4023 -0.6721
20141SOL    HW272403   1.523   9.158   6.068 -1.2402  1.3413  0.0158
20142SOL     OW72404   5.434  12.217   2.293 -0.4723  0.1582 -0.3074
20142SOL    HW172405   5.437  12.302   2.250 -0.0593  0.3477  0.0752
20142SOL    HW272406   5.526  12.198   2.313 -0.6619  0.1338  0.5878
20143SOL     OW72407   3.752  14.029   6.717 -0.4790 -0.0864  0.2034
20143SOL    HW172408   3.756  14.059   6.808 -0.3783 -2.7313  1.1334
20143SOL    HW272409   3.822  14.079   6.673 -0.4765  1.1866  1.5550
20144SOL     OW72410   8.724   4.464  13.204  0.4227  0.0711  0.1469
20144SOL    HW172411   8.787   4.516  13.254 -0.0467 -0.4045  1.2680
20144SOL    HW272412   8.771   4.384  13.183  0.4693  0.0739  0.2378
20145SOL     OW72413   7.162   1.216  10.288  0.0183  0.1814  0.1765
20145SOL    HW172414   7.097   1.286  10.277 -0.7528 -0.6866 -0.8955
20145SOL    HW272415   7.155   1.192  10.380 -0.4502  0.8060  0.3149
20146SOL     OW72416  13.449   4.853   7.635  0.0745  0.3257  0.2727
20146SOL    HW172417  13.506   4.793   7.683  1.1975  1.1457  0.0053
20146SOL    HW272418  13.506   4.894   7.570 -0.6499  1.7098  0.4764
20147SOL     OW72419   9.383   6.985   8.844  0.4793 -0.2627 -0.4654
20147SOL    HW172420   9.407   6.892   8.843 -2.8279 -1.2649  0.2945
20147SOL    HW272421   9.368   7.006   8.752 -0.2220 -0.9766 -0.5333
20148SOL     OW72422  11.177  10.284  13.725 -0.0491  0.1047  0.8907
20148SOL    HW172423  11.245  10.292  13.659 -0.9649 -1.3076 -0.2830
20148SOL    HW272424  11.156  10.374  13.750 -0.0008  0.6954 -1.0791
20149SOL     OW72425   9.732   4.239   0.090  0.2709  0.0460  0.3102
20149SOL    HW172426   9.804   4.182   0.064 -0.8566 -1.2094 -0.1678
20149SOL    HW272427   9.685   4.256   0.008 -0.5456  0.0335  0.7672
20150SOL     OW72428  10.567  12.656   2.612  0.4036 -0.1524  0.3280
20150SOL    HW172429  10.631  12.586   2.599  0.6895  0.2212 -0.3183
20150SOL    HW272430  10.527  12.668   2.526 -0.7315 -0.5513  0.7777
20151SOL     OW72431  11.969   1.277   1.431 -0.0499 -0.2508  0.0615
20151SOL    HW172432  12.018   1.215   1.377  0.0820  0.5258 -0.7358
20151SOL    HW272433  11.896   1.226   1.466  0.0591 -0.8522 -0.5745
20152SOL     OW72434  11.170   9.523   1.884  0.4691  0.4475 -0.1963
20152SOL    HW172435  11.214   9.501   1.802 -0.4467 -1.8222 -0.1562
20152SOL    HW272436  11.098   9.580   1.858  1.1429  1.0737 -0.7383
20153SOL     OW72437   7.131   3.320  13.892 -0.1026  0.1551  0.6714
20153SOL    HW172438   7.130   3.224  13.889  2.1860  0.1063 -1.0368
20153SOL    HW272439   7.198   3.342  13.957 -1.4054  0.6618  1.8927
20154SOL     OW72440   8.389   4.270   2.988 -0.1063 -0.0710 -0.2614
20154SOL    HW172441   8.362   4.182   3.013  1.1596  0.2640  2.6566
20154SOL    HW272442   8.402   4.265   2.893 -1.5967 -2.5594 -0.4151
20155SOL     OW72443   7.779   9.995   7.715 -0.1967 -0.1243 -0.3611
20155SOL    HW172444   7.708   9.933   7.698 -0.4246  0.1179 -0.2971
20155SOL    HW272445   7.859   9.944   7.700 -0.3563 -0.8583  1.1479
20156SOL     OW72446   5.783   9.226   1.011  0.0932 -0.3082 -0.3541
20156SOL    HW172447   5.792   9.222   0.916  0.3784  1.0072 -0.4093
20156SOL    HW272448   5.804   9.138   1.041 -0.8121 -0.9599 -1.5655
20157SOL     OW72449  11.435   0.217  11.773  0.0408 -0.1423  0.5807
20157SOL    HW172450  11.450   0.124  11.757 -1.0515 -0.6292  2.1412
20157SOL    HW272451  11.519   0.259  11.755  0.0936 -1.1418 -1.8934
20158SOL     OW72452   6.082   9.067   6.264 -0.2812  0.0051 -0.2077
20158SOL    HW172453   6.128   9.148   6.242 -0.4120 -0.1319 -1.0005
20158SOL    HW272454   6.049   9.034   6.181 -0.2738 -0.8414  0.1129
20159SOL     OW72455  11.762   1.802   4.366  0.0960  0.5721 -0.6871
20159SOL    HW172456  11.856   1.794   4.354  0.1091 -0.2176 -0.1163
20159SOL    HW272457  11.750   1.809   4.461 -0.3145  2.3155 -0.8165
20160SOL     OW72458   3.239  13.466   5.424 -0.6024  0.1957 -0.4653
20160SOL    HW172459   3.218  13.542   5.369  1.2984  0.1162 -1.3736
20160SOL    HW272460   3.319  13.430   5.386 -1.8363 -2.7529 -0.5211
20161SOL     OW72461   9.540   3.650   0.301 -0.5078 -0.4360  0.0318
20161SOL    HW172462   9.479   3.611   0.364 -1.1321 -2.1366 -1.5216
20161SOL    HW272463   9.537   3.744   0.320  0.3846 -0.9688  3.3884
20162SOL     OW72464  12.546   3.738  12.124 -0.2315 -0.4913 -0.1852
20162SOL    HW172465  12.560   3.646  12.145 -0.8735 -0.4105  0.6585
20162SOL    HW272466  12.555   3.784  12.208 -2.3055 -0.0899 -0.1315
20163SOL     OW72467   1.415  12.297   1.281  0.2863 -0.1495 -0.1085
20163SOL    HW172468   1.446  12.361   1.345  0.2254 -0.2951  0.0683
20163SOL    HW272469   1.459  12.215   1.307  0.6439 -0.1003 -0.5487
20164SOL     OW72470   8.573  11.487   8.001  0.0573 -0.0089  0.1921
20164SOL    HW172471   8.587  11.544   7.925  0.8242  0.6233  0.7949
20164SOL    HW272472   8.484  11.506   8.030 -0.1469 -0.0646 -0.3904
20165SOL     OW72473  13.558  11.839  12.772  0.1511 -0.2063  0.2506
20165SOL    HW172474  13.642  11.874  12.742 -0.8625  0.2020 -2.3402
20165SOL    HW272475  13.504  11.917  12.786 -0.7181 -0.5243 -1.1413
20166SOL     OW72476   5.125   4.266  10.684  0.3202  0.3438 -0.1407
20166SOL    HW172477   5.220   4.256  10.684  0.2444 -0.9379  2.1478
20166SOL    HW272478   5.100   4.261  10.776 -2.0704 -0.4259 -0.7565
20167SOL     OW72479   5.414   1.350   0.580 -0.6470 -0.1857 -0.0722
20167SOL    HW172480   5.397   1.444   0.582 -0.7431 -0.1481 -1.5887
20167SOL    HW272481   5.419   1.329   0.487  0.8521 -1.4164  0.2531
20168SOL     OW72482  10.836   5.979   9.077 -1.1716 -0.1231 -0.2595
20168SOL    HW172483  10.840   5.892   9.036 -0.9938  1.1263 -3.1390
20168SOL    HW272484  10.927   6.003   9.092 -1.2369 -0.5837  0.9855
20169SOL     OW72485   1.037   7.264   4.708 -0.4412  0.0364 -0.4920
20169SOL    HW172486   1.040   7.356   4.731 -2.6614  0.4519 -1.5983
20169SOL    HW272487   1.001   7.221   4.785  0.0469  0.1524 -0.1916
20170SOL     OW72488   5.009   3.423  13.036  0.1270 -0.0835 -0.5869
20170SOL    HW172489   5.095   3.464  13.028  0.2003  0.9224  3.5369
20170SOL    HW272490   5.020   3.338  12.994  1.6241  1.7332 -4.3494
20171SOL     OW72491   3.259   7.151   8.234  0.3748  0.4600 -0.0186
20171SOL    HW172492   3.235   7.169   8.143 -1.0357 -1.8980 -0.2052
20171SOL    HW272493   3.242   7.233   8.280  1.1993  1.7362 -1.8600
20172SOL     OW72494   9.783  13.468   7.088  0.2045  0.0190 -0.1050
20172SOL    HW172495   9.763  13.399   7.151 -0.3904  0.1430 -0.1480
20172SOL    HW272496   9.839  13.529   7.135 -0.1290  0.0434  0.2575
20173SOL     OW72497   4.049   4.336  13.175 -0.5138 -0.0406 -0.5555
20173SOL    HW172498   4.009   4.318  13.090  0.9180 -0.2583 -1.2134
20173SOL    HW272499   3.979   4.321  13.238 -1.4055 -0.5833 -1.6407
20174SOL     OW72500   6.272   1.384   4.974 -0.3423  0.2906 -0.6723
20174SOL    HW172501   6.176   1.377   4.977 -0.3667  0.7298  0.7500
20174SOL    HW272502   6.303   1.310   5.026  0.0402  0.7773 -0.1948
20175SOL     OW72503   1.401   3.200   8.833  0.0762 -0.5858 -0.5618
20175SOL    HW172504   1.395   3.110   8.864  1.9992 -0.1270  1.3803
20175SOL    HW272505   1.474   3.199   8.772  1.1836 -0.0883  0.7058
20176SOL     OW72506   4.317   0.001   9.305 -0.0669  0.2996  0.1957
20176SOL    HW172507   4.320   0.057   9.383 -2.6963  0.5928  0.1675
20176SOL    HW272508   4.342  -0.086   9.336  2.3963  1.0638  0.5856
20177SOL     OW72509   7.571  11.620  14.020 -0.7895 -0.2324 -0.5561
20177SOL    HW172510   7.541  11.621  13.929  0.5619  0.1047 -1.0233
20177SOL    HW272511   7.665  11.607  14.014 -0.6635 -0.0893  0.8019
20178SOL     OW72512   2.979   0.685   9.965 -0.2990 -0.6008 -0.1808
20178SOL    HW172513   2.921   0.620   9.925 -1.0645  0.2846 -0.5396
20178SOL    HW272514   2.942   0.698  10.053  0.2692 -1.1537  0.1490
20179SOL     OW72515   9.968   8.587   0.866  0.2926 -0.0115  0.3423
20179SOL    HW172516   9.986   8.597   0.960  0.0533  1.2490  0.2738
20179SOL    HW272517  10.046   8.620   0.823 -0.4604  1.5511  0.0967
20180SOL     OW72518   1.813   2.988   6.197 -0.5475 -0.4507 -0.0693
20180SOL    HW172519   1.830   3.030   6.113 -2.1283 -2.1138 -1.3314
20180SOL    HW272520   1.775   2.903   6.173  0.5636 -1.7219  2.3354
20181SOL     OW72521   4.799   6.522  12.087 -0.3681 -0.4446 -0.4354
20181SOL    HW172522   4.740   6.524  12.162 -1.8497  1.2277 -1.5718
20181SOL    HW272523   4.868   6.585  12.109 -1.3739  0.8557 -0.8672
20182SOL     OW72524   4.236   0.239  13.165  0.2945 -1.0975 -0.3960
20182SOL    HW172525   4.150   0.233  13.124 -0.1089  2.7647 -0.4261
20182SOL    HW272526   4.299   0.231  13.093 -0.2139 -0.0033 -0.9749
20183SOL     OW72527   5.083  13.719   1.386 -0.3804  0.1967  0.0167
20183SOL    HW172528   5.034  13.654   1.335 -1.0195  0.6501  0.0402
20183SOL    HW272529   5.058  13.803   1.348  0.6507  0.4224 -0.1952
20184SOL     OW72530  13.922  13.300  12.326 -0.0625  0.3289  0.3503
20184SOL    HW172531  13.880  13.219  12.356  3.8888 -1.7818  0.8358
20184SOL    HW272532  13.962  13.337  12.404 -0.2553  1.8278 -0.2197
20185SOL     OW72533   3.841  10.339   6.136  0.2801  0.0066 -0.3465
20185SOL    HW172534   3.863  10.429   6.111  0.4401 -0.1931 -0.9345
20185SOL    HW272535   3.745  10.339   6.144  0.2128  0.0491 -1.0816
20186SOL     OW72536  11.424   4.322  13.389  0.0293  0.1304 -0.8368
20186SOL    HW172537  11.344   4.270  13.399  0.1594  0.2853  2.2393
20186SOL    HW272538  11.495   4.257  13.390  0.0593  0.1636 -0.0209
20187SOL     OW72539   2.087   6.521   8.009 -0.3402  0.0473  0.1314
20187SOL    HW172540   2.047   6.526   7.923 -0.2607  0.5909  0.1246
20187SOL    HW272541   2.062   6.603   8.052 -0.0991 -0.0710  0.5034
20188SOL     OW72542  11.638   6.338   4.142  0.5603 -0.0606  0.3417
20188SOL    HW172543  11.614   6.425   4.109  0.5848 -0.4866 -0.8364
20188SOL    HW272544  11.726   6.324   4.109 -0.2541 -1.4382 -1.3913
20189SOL     OW72545   7.839   1.441  13.723  0.1685  0.0633 -0.6625
20189SOL    HW172546   7.842   1.350  13.752  1.1034 -0.6637 -2.8189
20189SOL    HW272547   7.919   1.452  13.672 -0.3616  1.8309 -1.1703
20190SOL     OW72548   3.404   4.511  11.239  0.1697  0.4774 -0.1143
20190SOL    HW172549   3.420   4.454  11.164 -0.7098  0.4158 -0.2595
20190SOL    HW272550   3.491   4.540  11.266  0.6941 -1.3888  0.3241
20191SOL     OW72551  10.323   0.120   0.830 -0.7062  0.4537  0.1476
20191SOL    HW172552  10.251   0.103   0.890  0.5197  1.0017  1.8635
20191SOL    HW272553  10.299   0.202   0.786 -1.2977  0.4383  0.4301
20192SOL     OW72554  10.465   3.411   4.173  0.2873  0.5622 -0.6421
20192SOL    HW172555  10.545   3.463   4.183  0.2198  0.6026 -0.2885
20192SOL    HW272556  10.496   3.326   4.142  0.3326  1.0432 -2.0086
20193SOL     OW72557   6.955   6.950   9.375 -0.4469  0.5812 -0.0668
20193SOL    HW172558   6.964   7.002   9.455 -0.1969  3.6380 -1.9229
20193SOL    HW272559   7.033   6.894   9.375 -0.3129  0.6993  1.6460
20194SOL     OW72560   1.916   6.641   7.803 -0.3511  0.1247  0.3649
20194SOL    HW172561   1.863   6.565   7.780  0.7152 -0.5264  0.0260
20194SOL    HW272562   1.867   6.683   7.875 -1.4112 -0.3413 -0.0614
20195SOL     OW72563   8.459   3.991   1.434 -0.1023  0.7066  0.4336
20195SOL    HW172564   8.508   3.947   1.365  0.2504  2.0743 -0.2175
20195SOL    HW272565   8.509   3.974   1.514 -0.4619 -0.7966  0.3709
20196SOL     OW72566  12.709   4.542  12.310  0.0866  0.5687  0.3974
20196SOL    HW172567  12.803   4.536  12.291  0.1076  0.4579  0.5328
20196SOL    HW272568  12.703   4.530  12.404 -0.2325 -1.4564  0.1545
20197SOL     OW72569   9.766   2.263   6.868 -0.2589  0.1407 -0.0204
20197SOL    HW172570   9.764   2.339   6.810 -1.4583  0.1646  0.0312
20197SOL    HW272571   9.692   2.210   6.840  0.1148 -0.6378  0.4492
20198SOL     OW72572  13.453   2.293  14.020 -0.0260 -0.2461 -0.6048
20198SOL    HW172573  13.489   2.275  14.106  1.9120  0.7989 -1.1488
20198SOL    HW272574  13.509   2.245  13.959 -2.0435 -1.9174 -1.2985
20199SOL     OW72575   9.848   8.696   0.493  0.4200 -0.2033  0.1144
20199SOL    HW172576   9.891   8.612   0.480 -0.2004 -0.2090 -2.3637
20199SOL    HW272577   9.809   8.717   0.408 -1.1884  1.6194  1.2075
20200SOL     OW72578   9.053   4.001  10.940 -0.4777  0.4403  0.0146
20200SOL    HW172579   9.031   4.063  10.870 -0.9289 -1.2316 -1.3764
20200SOL    HW272580   8.968   3.969  10.971 -0.3191  1.5485  1.7707
20201SOL     OW72581   8.015  13.426  11.547  0.2058  0.1517  0.7570
20201SOL    HW172582   7.945  13.367  11.517  0.6261 -0.4343  0.9028
20201SOL    HW272583   7.969  13.499  11.588 -0.3418  0.3604 -0.2176
20202SOL     OW72584   3.051   1.979   5.972 -0.0239  0.3447  0.2131
20202SOL    HW172585   3.119   1.913   5.987 -1.5935 -1.0058  1.8442
20202SOL    HW272586   2.985   1.962   6.039 -0.6799  3.4111  0.5064
20203SOL     OW72587   6.521   8.232   1.765  0.2622 -0.2593 -0.0806
20203SOL    HW172588   6.559   8.164   1.820  2.4741  1.2243  0.3799
20203SOL    HW272589   6.584   8.241   1.693  1.1458  2.5793  0.9142
20204SOL     OW72590   4.079   3.193   3.514  0.0559 -0.0408  0.0149
20204SOL    HW172591   4.153   3.151   3.557  1.2437  1.7144 -0.1909
20204SOL    HW272592   4.076   3.281   3.551 -1.7408  0.0416 -0.2332
20205SOL     OW72593   5.500  13.851   4.454 -0.5000 -0.0731 -0.2590
20205SOL    HW172594   5.439  13.914   4.416  0.5113  0.9695 -0.1977
20205SOL    HW272595   5.571  13.845   4.390  0.0964 -0.0665  0.3887
20206SOL     OW72596   5.377  13.850  10.621  0.9570 -0.4109 -0.3154
20206SOL    HW172597   5.376  13.774  10.563  0.0723 -0.8408  0.2347
20206SOL    HW272598   5.403  13.814  10.706  4.0876  0.4899 -0.7557
20207SOL     OW72599  11.874   4.819   7.473 -0.3092  1.0527  0.2361
20207SOL    HW172600  11.793   4.796   7.429 -0.6012  2.1688  0.1765
20207SOL    HW272601  11.942   4.774   7.422 -0.9556 -1.1531  1.1666
20208SOL     OW72602  13.191   4.717   9.251  0.0336 -0.3806 -0.3490
20208SOL    HW172603  13.147   4.688   9.171 -0.0047 -0.4466 -0.3046
20208SOL    HW272604  13.215   4.808   9.234 -1.5704  0.1880  0.2186
20209SOL     OW72605   0.742   1.835   8.690 -0.4739 -0.5893 -0.5163
20209SOL    HW172606   0.753   1.918   8.737  1.0677 -1.3379  0.5331
20209SOL    HW272607   0.801   1.842   8.616 -0.5014 -0.6637 -0.5451
20210SOL     OW72608  10.934  11.330   0.298  0.0457  0.1828 -0.2864
20210SOL    HW172609  10.911  11.310   0.207  1.4569  0.7242 -0.7923
20210SOL    HW272610  10.920  11.248   0.345 -0.3907 -0.1937 -1.0479
20211SOL     OW72611   8.381   7.016   0.930  0.1594 -0.0936 -0.3480
20211SOL    HW172612   8.401   7.100   0.887 -1.1613  1.2624  1.5299
20211SOL    HW272613   8.466   6.985   0.961  0.7976  0.0658 -1.8324
20212SOL     OW72614   5.419   0.596  13.020  0.2017 -0.0712 -0.5700
20212SOL    HW172615   5.420   0.646  13.101 -0.0838  0.3930 -0.8475
20212SOL    HW272616   5.423   0.505  13.048  0.3322  0.0917 -0.0443
20213SOL     OW72617  12.289  11.524   7.317  0.4638  0.3065  0.2537
20213SOL    HW172618  12.304  11.592   7.383  1.3096  0.9456 -0.5791
20213SOL    HW272619  12.195  11.527   7.301  0.2073 -0.0114  1.5794
20214SOL     OW72620   1.211  10.461  11.132 -0.0000 -0.3306  0.7033
20214SOL    HW172621   1.217  10.556  11.139 -0.3420 -0.3548  1.3655
20214SOL    HW272622   1.254  10.441  11.049 -1.5839  0.5660 -0.3858
20215SOL     OW72623   5.284   2.885   4.559  0.1946 -0.1618 -0.4974
20215SOL    HW172624   5.255   2.885   4.650  1.8828 -0.1915  0.0619
20215SOL    HW272625   5.212   2.926   4.511 -0.1812  1.0431  1.0276
20216SOL     OW72626   7.357  10.068   9.898 -0.1747  0.3975 -0.7008
20216SOL    HW172627   7.391   9.983   9.871  1.6305  0.2288  1.7698
20216SOL    HW272628   7.293  10.048   9.966 -0.2295  0.9921 -0.5719
20217SOL     OW72629  13.310  11.253   3.934 -0.2809  0.3017  0.1547
20217SOL    HW172630  13.301  11.287   4.023  2.6585 -0.9342  1.0510
20217SOL    HW272631  13.401  11.269   3.911  0.4065 -3.6559 -0.6560
20218SOL     OW72632   7.258   4.134   0.966 -0.4189  0.2580  0.5138
20218SOL    HW172633   7.301   4.151   1.050  0.5375 -0.9819  0.2986
20218SOL    HW272634   7.169   4.109   0.989 -0.5064  1.0365  1.0774
20219SOL     OW72635   5.227  10.265  11.673  0.7124  0.1805  0.1386
20219SOL    HW172636   5.138  10.240  11.648  0.9929 -1.8411  0.9650
20219SOL    HW272637   5.272  10.279  11.589  0.1621 -0.9005 -0.3637
20220SOL     OW72638   1.384  12.039   9.701 -0.8482 -0.2770 -0.1908
20220SOL    HW172639   1.329  12.005   9.631 -0.5728 -0.5962 -0.2507
20220SOL    HW272640   1.373  11.977   9.773  1.8218 -2.1419 -1.2162
20221SOL     OW72641  12.156   4.608   8.948 -0.6555  0.2019 -0.0903
20221SOL    HW172642  12.133   4.612   9.041 -1.4266  0.8460 -0.2949
20221SOL    HW272643  12.100   4.539   8.913 -0.3789 -0.0262 -0.0925
20222SOL     OW72644   3.202   2.557  12.717  0.2797  0.1389  0.0745
20222SOL    HW172645   3.184   2.647  12.689  1.9729  0.2787 -0.6617
20222SOL    HW272646   3.182   2.557  12.811 -1.3381  0.8123 -0.2327
20223SOL     OW72647   5.168   0.879   2.488 -0.5923  0.0956  0.0115
20223SOL    HW172648   5.111   0.948   2.453  0.2832  0.7983 -0.0535
20223SOL    HW272649   5.149   0.877   2.582 -1.9162 -0.8233 -0.2412
20224SOL     OW72650  12.919   1.313   5.382  0.0917 -0.3243  0.2031
20224SOL    HW172651  12.943   1.319   5.474 -2.6258 -0.6775  1.0318
20224SOL    HW272652  12.903   1.404   5.356  2.5343 -0.0204 -0.5189
20225SOL     OW72653  11.198   7.136  11.440 -0.5662 -0.1478  0.1737
20225SOL    HW172654  11.200   7.080  11.517  0.3002 -1.0173 -0.4514
20225SOL    HW272655  11.107   7.132  11.409 -0.5965 -0.9341  0.3485
20226SOL     OW72656   0.768  12.005   8.301 -0.2218  0.0553 -0.3427
20226SOL    HW172657   0.711  11.934   8.271 -0.1298  0.3018 -1.1143
20226SOL    HW272658   0.769  12.067   8.228 -0.7589  1.1310  0.5419
20227SOL     OW72659   7.678   1.493   3.217  0.1352 -0.2220 -0.1224
20227SOL    HW172660   7.666   1.398   3.227 -1.2471  0.0298  0.8512
20227SOL    HW272661   7.771   1.507   3.238  0.2561 -1.3064  0.1550
20228SOL     OW72662   9.969   2.784   0.694 -0.1372 -0.4766 -0.7820
20228SOL    HW172663   9.943   2.702   0.653  0.1635  0.9856 -4.2486
20228SOL    HW272664  10.051   2.808   0.651 -0.4273  1.8551 -0.1833
20229SOL     OW72665  13.346  12.371   3.169 -0.0031  0.5167 -0.1324
20229SOL    HW172666  13.338  12.280   3.198 -0.1964  1.1238  1.8848
20229SOL    HW272667  13.440  12.388   3.166  0.0451  1.0064  2.2580
20230SOL     OW72668   3.324   8.828   5.377  0.4233 -0.0413 -0.5719
20230SOL    HW172669   3.240   8.798   5.343 -0.1555 -1.2327  1.6863
20230SOL    HW272670   3.367   8.747   5.407  1.3247  0.7995  0.4605
20231SOL     OW72671   6.667  12.235   0.347  0.0958  0.2177  0.2670
20231SOL    HW172672   6.751  12.240   0.392  0.5563  0.3510 -0.5941
20231SOL    HW272673   6.634  12.148   0.369  0.7485 -0.0749  0.1216
20232SOL     OW72674   7.057   4.541   8.772  0.2603 -0.3929  0.1333
20232SOL    HW172675   7.102   4.625   8.775 -0.5536  0.0404  0.3267
20232SOL    HW272676   6.981   4.556   8.715  0.4352 -1.1524 -0.3147
20233SOL     OW72677   6.188  13.020   3.314 -0.0875  0.2859  0.0430
20233SOL    HW172678   6.262  13.067   3.275 -0.6513  2.5950  1.5224
20233SOL    HW272679   6.112  13.052   3.266 -0.5123  1.1854  1.2676
20234SOL     OW72680   8.762   2.163   8.529 -0.2474  0.3345 -0.2293
20234SOL    HW172681   8.741   2.209   8.610  0.6980  0.9834 -0.3337
20234SOL    HW272682   8.686   2.178   8.472 -0.4328  0.8305  0.1416
20235SOL     OW72683   6.766   5.326   8.896 -0.0973 -0.2488 -0.2448
20235SOL    HW172684   6.764   5.231   8.912  1.1504 -0.3916 -0.8531
20235SOL    HW272685   6.850   5.341   8.852 -0.8258  0.9651 -1.2693
20236SOL     OW72686  11.122  11.292   1.487  0.7819 -0.2887  0.2607
20236SOL    HW172687  11.184  11.315   1.556  0.1719 -0.5747  0.9229
20236SOL    HW272688  11.141  11.353   1.416  0.8838  0.5625  0.9947
20237SOL     OW72689   0.081   8.307   6.252 -0.5984  0.3024  0.7836
20237SOL    HW172690   0.139   8.381   6.234  1.3189 -1.0728  1.0244
20237SOL    HW272691   0.028   8.298   6.173 -0.2578  1.3761  0.4146
20238SOL     OW72692  12.937   8.670   7.705  0.1488 -0.4602 -0.2463
20238SOL    HW172693  12.974   8.606   7.766  0.5063 -1.3558 -1.3752
20238SOL    HW272694  13.013   8.718   7.672 -0.2069  1.7151  1.7533
20239SOL     OW72695   9.271  11.589   8.852 -0.0432 -0.0943 -0.3309
20239SOL    HW172696   9.359  11.557   8.869 -0.2196 -0.5831 -0.3258
20239SOL    HW272697   9.270  11.678   8.889  1.1141  0.8006 -2.2891
20240SOL     OW72698   9.353   1.030   0.757  0.2792 -0.5602  0.7154
20240SOL    HW172699   9.426   1.081   0.794  1.0990 -1.8011  0.8681
20240SOL    HW272700   9.277   1.088   0.765  1.1705  0.6290  0.8896
20241SOL     OW72701   6.264  12.493   1.696 -0.0304 -0.4639  0.2102
20241SOL    HW172702   6.182  12.532   1.727  0.3080  0.5398 -0.1182
20241SOL    HW272703   6.288  12.431   1.765 -0.6594 -0.1946  0.6887
20242SOL     OW72704   5.212   1.995  13.164 -0.1991 -0.3659 -0.2754
20242SOL    HW172705   5.225   2.007  13.070  0.6656 -1.1358 -0.2732
20242SOL    HW272706   5.117   1.998  13.176 -0.3151 -0.1932 -1.1632
20243SOL     OW72707   4.352  10.815   5.527 -0.0681  0.3129  0.4978
20243SOL    HW172708   4.338  10.889   5.586 -0.7123 -0.0860  0.8685
20243SOL    HW272709   4.287  10.750   5.555  1.3750 -0.9353  1.0847
20244SOL     OW72710   9.271   0.954  13.504  0.0357  0.5233  0.4038
20244SOL    HW172711   9.323   0.875  13.491  0.8316  1.0323  0.4105
20244SOL    HW272712   9.262   0.992  13.417 -1.7211 -0.3958  0.1498
20245SOL     OW72713   1.822   1.740   6.632  0.9047 -0.0643 -0.0411
20245SOL    HW172714   1.811   1.647   6.651 -0.4149 -0.5137 -2.4948
20245SOL    HW272715   1.916   1.751   6.619  1.1093 -0.9812  0.5810
20246SOL     OW72716   9.424  10.125   0.509  0.8108  0.1793 -0.8022
20246SOL    HW172717   9.341  10.173   0.506  0.6174 -0.2050 -2.6311
20246SOL    HW272718   9.400  10.034   0.492  1.3511 -0.3657  1.1254
20247SOL     OW72719   5.978   6.790   6.534  0.2021  0.0966 -0.1276
20247SOL    HW172720   5.926   6.729   6.587  1.2745  1.4176  2.6926
20247SOL    HW272721   6.056   6.741   6.509  0.4700 -0.1018  1.0309
20248SOL     OW72722  11.082   2.737   3.693 -0.5763 -0.4550 -0.3255
20248SOL    HW172723  11.056   2.812   3.639  2.9401  0.0077 -1.6788
20248SOL    HW272724  11.086   2.664   3.631 -1.2177 -1.0945  0.3796
20249SOL     OW72725  11.612  13.914  11.050  0.5700 -0.2491  0.7472
20249SOL    HW172726  11.693  13.869  11.023  0.7372  0.3463  0.2247
20249SOL    HW272727  11.575  13.947  10.968 -1.6530 -2.8060  0.5825
20250SOL     OW72728  12.269   8.489   7.185 -0.7708  0.2025  0.2456
20250SOL    HW172729  12.293   8.546   7.258 -0.7022  1.5078 -0.7579
20250SOL    HW272730  12.330   8.513   7.115  0.4421 -2.3594  0.2990
20251SOL     OW72731   7.449   6.465   1.112 -0.6785 -0.4766 -0.0835
20251SOL    HW172732   7.504   6.473   1.034 -0.3993  0.8652  0.2328
20251SOL    HW272733   7.390   6.540   1.107 -1.0918 -0.7496  0.6600
20252SOL     OW72734   9.078   0.087   3.930 -0.1729  0.1661  0.6174
20252SOL    HW172735   9.041   0.144   3.863  1.0337  1.4392  0.9774
20252SOL    HW272736   9.003   0.059   3.982 -0.8184  1.3961  0.3889
20253SOL     OW72737   0.108  10.208  14.013 -0.0634  0.6520 -0.0318
20253SOL    HW172738   0.057  10.230  14.090  0.8633 -0.0043  0.7999
20253SOL    HW272739   0.086  10.117  13.994  0.9952  0.2551  0.5336
20254SOL     OW72740   3.805   6.155   8.944 -0.1904 -0.9379 -0.1676
20254SOL    HW172741   3.777   6.186   8.857 -1.1676 -1.1386  0.0567
20254SOL    HW272742   3.857   6.077   8.925  2.0327  0.5950 -0.7174
20255SOL     OW72743  12.571   9.059   4.039  0.1820  0.4422  0.3038
20255SOL    HW172744  12.655   9.022   4.013 -0.9845 -0.5772 -2.4730
20255SOL    HW272745  12.585   9.154   4.038  1.4514  0.2762  0.5451
20256SOL     OW72746   9.799   3.355   8.139 -0.2119  0.9810 -0.1329
20256SOL    HW172747   9.715   3.360   8.094  0.1719  3.3818 -0.7208
20256SOL    HW272748   9.858   3.406   8.084  1.4142  0.1359  0.7635
20257SOL     OW72749   3.203   8.491   8.132 -0.1235  0.6890  0.6177
20257SOL    HW172750   3.179   8.413   8.182  1.6728 -0.4223 -0.1250
20257SOL    HW272751   3.130   8.503   8.070 -2.5073  2.2511  3.4864
20258SOL     OW72752  10.656  12.602   5.494 -0.4778  0.6040  0.2609
20258SOL    HW172753  10.707  12.682   5.503 -0.1137  0.2159  2.1043
20258SOL    HW272754  10.713  12.533   5.527 -1.0621 -0.3131 -0.5739
20259SOL     OW72755   6.594   8.299   2.058  0.2900  0.1434  0.1163
20259SOL    HW172756   6.508   8.286   2.098  0.3833 -2.9331 -0.4492
20259SOL    HW272757   6.619   8.213   2.025  2.7673  1.3337 -1.4646
20260SOL     OW72758  13.394  11.113   9.240  0.5302  0.7956 -0.0206
20260SOL    HW172759  13.428  11.080   9.156  0.5457  0.3065  0.1766
20260SOL    HW272760  13.385  11.035   9.294  1.5483  1.2360  0.8072
20261SOL     OW72761  12.967   3.847   2.202 -0.0316 -0.2140  0.0175
20261SOL    HW172762  13.008   3.762   2.215  0.7335  0.3922  1.9412
20261SOL    HW272763  13.040   3.908   2.194 -0.4052  0.8668  3.4001
20262SOL     OW72764   9.590   5.605   7.117 -0.1511  0.8288 -0.2593
20262SOL    HW172765   9.544   5.529   7.153  0.7204 -0.1644 -1.1611
20262SOL    HW272766   9.554   5.616   7.030 -0.5039  1.6757 -0.0168
20263SOL     OW72767   8.495   9.257   3.976  0.0751  0.3425 -0.1857
20263SOL    HW172768   8.523   9.307   3.899 -1.8559  1.4522 -0.2152
20263SOL    HW272769   8.575   9.212   4.005  0.6630 -1.0197 -3.4647
20264SOL     OW72770   1.571   9.097   7.036 -0.2825 -0.0732 -0.1614
20264SOL    HW172771   1.545   9.050   6.957  0.0459 -1.1366  0.3385
20264SOL    HW272772   1.511   9.172   7.040 -0.0343  0.2425 -1.6232
20265SOL     OW72773   4.472  10.084   7.930  0.9004  0.4268  0.1878
20265SOL    HW172774   4.482  10.175   7.959 -0.1642  0.4422  0.5347
20265SOL    HW272775   4.525  10.034   7.992 -1.0961  0.4963  2.0821
20266SOL     OW72776   9.361   3.836   3.697 -0.2969  0.0617  0.3770
20266SOL    HW172777   9.355   3.869   3.607 -0.3730 -1.6651 -0.3049
20266SOL    HW272778   9.450   3.855   3.724 -0.2351  0.4791 -0.1168
20267SOL     OW72779  11.033   6.122   5.130  0.3520  0.4329  0.1413
20267SOL    HW172780  11.033   6.177   5.052  0.3214 -0.9375 -0.8612
20267SOL    HW272781  11.080   6.173   5.196  0.0084  1.7888 -0.6364
20268SOL     OW72782   8.311   3.055   3.918 -0.2148  0.0525 -0.2355
20268SOL    HW172783   8.347   3.142   3.936  1.2530 -0.6564  0.4154
20268SOL    HW272784   8.380   2.994   3.946 -1.7490 -1.3701  0.6323
20269SOL     OW72785  11.120   1.102   4.177  0.1144  0.0787 -0.2098
20269SOL    HW172786  11.069   1.124   4.100  0.1709 -1.8238 -0.8419
20269SOL    HW272787  11.166   1.183   4.200  1.2092  0.3416 -3.0165
20270SOL     OW72788   7.758   4.004  12.717  0.1389  0.1279 -0.2296
20270SOL    HW172789   7.762   4.038  12.627  2.1015 -0.1754 -0.2945
20270SOL    HW272790   7.733   4.079  12.770 -1.4139  0.2334 -1.0445
20271SOL     OW72791   4.508   9.856  12.101 -0.5499 -0.2823  0.1568
20271SOL    HW172792   4.568   9.828  12.171 -0.0333  0.2973 -0.0387
20271SOL    HW272793   4.551   9.933  12.064  1.2943 -2.8042 -3.5207
20272SOL     OW72794   7.258   1.326   9.112  0.3335 -0.0389  0.2125
20272SOL    HW172795   7.234   1.247   9.062 -1.2289  1.0917 -0.9489
20272SOL    HW272796   7.242   1.303   9.203  0.7853 -1.3583 -0.0292
20273SOL     OW72797   2.385  12.692  13.729 -0.1682  0.0433 -0.1302
20273SOL    HW172798   2.424  12.737  13.804 -0.0177  0.2625 -0.3373
20273SOL    HW272799   2.309  12.646  13.765  0.0669 -0.0872  0.2106
20274SOL     OW72800   1.562   9.722   2.924  0.0994  0.4004  0.4428
20274SOL    HW172801   1.520   9.636   2.924  1.1249 -0.1236 -0.0607
20274SOL    HW272802   1.644   9.708   2.876  1.1103  1.2473  1.8457
20275SOL     OW72803   4.304   4.720   2.778 -0.1183 -0.0774 -0.1323
20275SOL    HW172804   4.226   4.749   2.826  0.1977  2.1808 -0.8734
20275SOL    HW272805   4.351   4.801   2.757  2.3583 -1.3464  0.1099
20276SOL     OW72806  11.269   3.717   3.265  0.2096  0.0732 -0.0742
20276SOL    HW172807  11.274   3.630   3.306  0.0935  0.8053  1.5860
20276SOL    HW272808  11.348   3.723   3.213  2.1432  0.3209  2.6915
20277SOL     OW72809   9.685   0.682   2.167  0.2220 -0.7382  0.2238
20277SOL    HW172810   9.682   0.648   2.257 -1.2374 -0.7748  0.1877
20277SOL    HW272811   9.593   0.692   2.142  0.5776  1.6498 -0.3896
20278SOL     OW72812   7.183   6.875   2.031 -0.3366  0.6389 -0.3492
20278SOL    HW172813   7.185   6.806   2.098 -0.2855  1.6034  0.6831
20278SOL    HW272814   7.092   6.905   2.029 -0.5019  0.1173 -1.2654
20279SOL     OW72815   8.032   0.800   6.834  0.3337 -0.0200 -0.4317
20279SOL    HW172816   7.937   0.799   6.843  0.3137  1.3907 -0.2398
20279SOL    HW272817   8.054   0.713   6.801 -1.0052 -0.4079 -0.3550
20280SOL     OW72818   6.650  12.310   9.111 -0.1874  0.3808  0.1135
20280SOL    HW172819   6.636  12.402   9.090 -2.7455  0.1548  0.5038
20280SOL    HW272820   6.644  12.265   9.027  0.3626  0.5078  0.0064
20281SOL     OW72821   8.324   4.708  11.304 -0.1157 -0.0399 -0.3882
20281SOL    HW172822   8.277   4.653  11.242  2.3868 -0.5912 -1.9143
20281SOL    HW272823   8.353   4.647  11.372  1.0228 -0.3017 -1.0865
20282SOL     OW72824   4.175  11.924   8.781  0.2652  0.0806 -0.1622
20282SOL    HW172825   4.251  11.937   8.838  1.6181 -1.5762 -1.4918
20282SOL    HW272826   4.166  11.829   8.773 -0.2874  0.2575 -2.1749
20283SOL     OW72827  11.608   4.145   5.588 -0.3312 -0.5242  0.0664
20283SOL    HW172828  11.674   4.120   5.653 -1.1103 -1.5298  0.4953
20283SOL    HW272829  11.572   4.061   5.557 -0.1768 -0.0536 -1.4633
20284SOL     OW72830  12.037  12.651  12.497  0.3264  0.1683 -0.1490
20284SOL    HW172831  12.059  12.602  12.577  2.1976  0.6496 -0.3178
20284SOL    HW272832  12.117  12.699  12.476 -0.6034  1.1826 -1.5178
20285SOL     OW72833   3.414   5.989   2.585  0.4144 -0.3177  0.4354
20285SOL    HW172834   3.375   5.911   2.546  0.9979  0.3373 -1.5786
20285SOL    HW272835   3.419   6.052   2.513 -1.1575  2.0743  2.2471
20286SOL     OW72836   9.271   0.397   0.629  0.4579  0.2507  0.1857
20286SOL    HW172837   9.205   0.337   0.594  1.2346  0.5255 -1.8801
20286SOL    HW272838   9.228   0.439   0.704 -1.3992 -0.2032 -0.5694
20287SOL     OW72839   8.497   0.775   3.431 -0.3862  0.5343 -0.0046
20287SOL    HW172840   8.504   0.734   3.345 -0.1134 -1.2331  0.8129
20287SOL    HW272841   8.570   0.837   3.435  0.0864  0.0344 -0.7476
20288SOL     OW72842   6.380   4.922   7.090  0.0792  0.4213 -0.0913
20288SOL    HW172843   6.401   4.830   7.083 -0.4110  0.3253 -0.4012
20288SOL    HW272844   6.391   4.956   7.001  0.6292  0.7411  0.1007
20289SOL     OW72845  13.330   5.806   6.098  0.3594 -0.4291  0.1084
20289SOL    HW172846  13.244   5.831   6.066  1.2409  0.4076 -1.7260
20289SOL    HW272847  13.389   5.819   6.024  1.9536 -1.7416  1.0706
20290SOL     OW72848  11.824  11.156   6.112 -0.5575  0.5123  0.7380
20290SOL    HW172849  11.773  11.079   6.135  0.2081 -0.4033 -0.5083
20290SOL    HW272850  11.915  11.127   6.118 -0.2841  0.7276 -1.5149
20291SOL     OW72851   7.400   3.553  12.205 -0.3932  0.7268 -0.2841
20291SOL    HW172852   7.304   3.550  12.208 -0.3727 -1.4279 -0.3515
20291SOL    HW272853   7.428   3.521  12.291  0.2469 -0.0261 -0.7567
20292SOL     OW72854   7.979  12.867  11.616 -0.0576  0.2418  0.1544
20292SOL    HW172855   8.025  12.843  11.696  0.6198 -0.4428 -0.4180
20292SOL    HW272856   8.046  12.861  11.547 -1.0180 -0.8766 -0.7243
20293SOL     OW72857   6.979  10.615   3.639  0.1406  0.7401 -0.0299
20293SOL    HW172858   6.934  10.552   3.582  1.6233 -2.7019  2.2773
20293SOL    HW272859   7.066  10.624   3.600 -0.1941  1.8223 -0.5850
20294SOL     OW72860   3.376   3.547  13.960 -0.0240 -0.2990  0.0822
20294SOL    HW172861   3.292   3.554  13.915 -0.3839 -1.6533  0.5109
20294SOL    HW272862   3.355   3.559  14.052  0.3168 -0.1880  0.1463
20295SOL     OW72863   3.783   7.191   3.808  0.1531 -0.2607  0.0698
20295SOL    HW172864   3.709   7.167   3.864  0.2417  0.8277  0.6913
20295SOL    HW272865   3.782   7.287   3.808  1.3562 -0.2375 -0.1946
20296SOL     OW72866  10.652   3.642   3.492 -0.4315 -0.2301 -0.6783
20296SOL    HW172867  10.557   3.647   3.502 -0.5329 -1.0135 -1.1368
20296SOL    HW272868  10.684   3.722   3.532 -1.0405 -1.4019  2.4658
20297SOL     OW72869  11.494  13.293   2.876  0.1177 -0.4766 -0.2634
20297SOL    HW172870  11.562  13.238   2.915 -0.4545 -1.8187 -1.0868
20297SOL    HW272871  11.445  13.234   2.820 -0.7356  0.8244 -0.9378
20298SOL     OW72872   6.247   5.156   2.333  0.3022  0.8557 -0.0019
20298SOL    HW172873   6.222   5.112   2.415 -0.5584  0.6821 -0.3493
20298SOL    HW272874   6.176   5.218   2.317  0.3941  0.7788 -0.6978
20299SOL     OW72875   8.348  10.966   6.577 -0.1704  0.5854  0.3690
20299SOL    HW172876   8.297  10.898   6.620 -0.0167  0.7293  0.7764
20299SOL    HW272877   8.432  10.968   6.623  0.5806 -0.3067 -0.8952
20300SOL     OW72878   9.362  13.414  13.691 -0.0413 -0.0487 -0.5630
20300SOL    HW172879   9.398  13.357  13.623 -0.9366 -1.5970  0.2061
20300SOL    HW272880   9.423  13.405  13.764  1.2597  2.0960 -1.3165
20301SOL     OW72881   1.746   3.986  10.199  0.2883 -0.4669  0.0217
20301SOL    HW172882   1.674   4.001  10.138 -0.7078 -0.5530  1.1380
20301SOL    HW272883   1.818   3.953  10.144 -1.2140 -2.4895 -0.8597
20302SOL     OW72884   3.053   3.982   3.894 -0.6769 -0.7639  0.2069
20302SOL    HW172885   3.095   4.018   3.816 -2.2301 -0.5186 -0.5715
20302SOL    HW272886   2.978   4.040   3.909 -0.4859 -0.8899  1.8175
20303SOL     OW72887  11.782   4.408   3.204 -0.5908  0.3172  0.4276
20303SOL    HW172888  11.744   4.340   3.148  1.2174 -1.9262  1.7404
20303SOL    HW272889  11.723   4.411   3.280 -0.1273 -0.5716  0.8368
20304SOL     OW72890   5.838   2.074   1.508  0.0381  0.2980  0.3368
20304SOL    HW172891   5.804   2.036   1.589  1.2750  0.1934  0.8276
20304SOL    HW272892   5.887   2.151   1.536 -0.3758  0.8571 -0.4253
20305SOL     OW72893  10.938  14.023   6.703  0.1771  0.1610 -0.0613
20305SOL    HW172894  10.845  13.997   6.703 -0.2199  1.4512  1.2134
20305SOL    HW272895  10.964  14.016   6.795  1.5768 -0.8910 -0.5153
20306SOL     OW72896   6.570   5.117  12.899 -0.7866 -0.5467  0.0393
20306SOL    HW172897   6.533   5.194  12.856 -0.8905  0.1447  1.3043
20306SOL    HW272898   6.537   5.043  12.848 -1.9395  0.1766 -0.3106
20307SOL     OW72899  11.409  12.768   2.672 -0.0234 -0.1645  0.4139
20307SOL    HW172900  11.385  12.860   2.684 -2.6764 -0.8899  1.3173
20307SOL    HW272901  11.405  12.755   2.577 -1.3666  0.2520  0.3986
20308SOL     OW72902   5.092   8.163   6.442  0.0778 -0.4693 -0.1286
20308SOL    HW172903   5.130   8.236   6.393 -0.5714 -1.2435 -1.8685
20308SOL    HW272904   5.145   8.158   6.522  2.7022 -0.5449 -1.7301
20309SOL     OW72905   8.462   9.785   9.711  0.0256  0.0555  0.6789
20309SOL    HW172906   8.406   9.762   9.637  1.6741  1.4646 -1.1055
20309SOL    HW272907   8.405   9.833   9.771 -0.7918  1.1979 -0.9373
20310SOL     OW72908   8.451   2.646   0.992  0.6177 -0.6340  0.9947
20310SOL    HW172909   8.522   2.701   1.026  1.0066 -0.2806 -0.3288
20310SOL    HW272910   8.395   2.706   0.944  0.6004 -1.2659  0.2083
20311SOL     OW72911   9.604   7.019   0.807  0.1607  0.9061 -0.4371
20311SOL    HW172912   9.662   7.095   0.807  1.1583  0.1594 -1.2590
20311SOL    HW272913   9.533   7.043   0.747  0.4563  1.2061 -0.6702
20312SOL     OW72914  13.164   0.452   9.893 -0.3759  0.5179 -0.1401
20312SOL    HW172915  13.084   0.425   9.847 -0.5794  1.8557 -0.6207
20312SOL    HW272916  13.154   0.546   9.904  0.5739  0.5084  0.9358
20313SOL     OW72917  11.067  11.598   1.595  0.5673 -0.2526  0.6433
20313SOL    HW172918  11.141  11.658   1.580 -0.9258  2.4259  3.0085
20313SOL    HW272919  11.109  11.512   1.607  3.3320  1.0674  1.5061
20314SOL     OW72920   6.506  14.001  10.004 -0.3947  0.5678 -0.2594
20314SOL    HW172921   6.567  14.052  10.057  0.1793 -0.3434 -0.0181
20314SOL    HW272922   6.478  13.930  10.061  0.6450 -0.7403 -1.3194
20315SOL     OW72923   2.876   9.733  13.479 -0.3566  0.1450  0.4892
20315SOL    HW172924   2.852   9.801  13.416 -0.8639  0.6434  1.1993
20315SOL    HW272925   2.875   9.778  13.564 -0.5194 -0.7038  0.9442
20316SOL     OW72926   3.549   2.886  12.818  0.1236  0.9287  0.3366
20316SOL    HW172927   3.597   2.842  12.748  2.1032  2.4663  0.6214
20316SOL    HW272928   3.479   2.934  12.774 -1.0811 -1.1708 -0.1229
20317SOL     OW72929   6.548   7.804  11.658 -0.1888  0.3204 -0.9077
20317SOL    HW172930   6.599   7.882  11.634  0.8608  0.3812  1.2541
20317SOL    HW272931   6.584   7.735  11.603  1.1875  0.7058 -0.5545
20318SOL     OW72932  12.354   7.136  10.133  0.5484 -0.3684 -0.2175
20318SOL    HW172933  12.300   7.057  10.120  1.3365 -0.7481 -1.3264
20318SOL    HW272934  12.355   7.149  10.228 -3.3165  0.9554 -0.1826
20319SOL     OW72935   8.229  10.867  13.688 -0.0454  0.4038  0.0629
20319SOL    HW172936   8.195  10.845  13.775 -0.0839 -0.4155 -0.1485
20319SOL    HW272937   8.169  10.934  13.655 -0.9605 -0.3966  0.0518
20320SOL     OW72938   2.807   3.982  11.041  0.1282  0.2615  0.1597
20320SOL    HW172939   2.723   4.015  11.072 -1.4966 -2.2258 -1.2617
20320SOL    HW272940   2.834   3.918  11.106  0.0628 -0.1279 -0.1889
20321SOL     OW72941   6.657  12.172  10.604  0.1271  0.0021  0.4967
20321SOL    HW172942   6.657  12.170  10.508  1.0496 -2.1020  0.4667
20321SOL    HW272943   6.635  12.082  10.629 -0.9438  0.7242  2.2886
20322SOL     OW72944   0.937  11.902   8.715  0.0073 -0.5531  0.3125
20322SOL    HW172945   1.021  11.946   8.726 -0.4344  0.2741  0.5082
20322SOL    HW272946   0.877  11.972   8.690 -0.9549 -0.8326  1.6949
20323SOL     OW72947  13.028  13.143   1.256  0.2829 -0.1367  0.5200
20323SOL    HW172948  12.985  13.195   1.188 -0.2044 -0.2081  0.7680
20323SOL    HW272949  13.120  13.166   1.250  0.3980 -0.8476 -0.8074
20324SOL     OW72950   4.323   0.072   2.458  0.4630 -0.1766 -0.1777
20324SOL    HW172951   4.404   0.078   2.509 -0.4087 -0.4015  1.2611
20324SOL    HW272952   4.302  -0.021   2.458 -0.7980  0.0881  1.0784
20325SOL     OW72953   3.835   4.565  11.095 -0.3400  0.0399 -0.0044
20325SOL    HW172954   3.827   4.583  11.001 -2.1449 -2.0371 -0.3300
20325SOL    HW272955   3.917   4.514  11.102  2.3526  3.9698  0.3304
20326SOL     OW72956  13.699   5.837   2.019 -0.3433  0.0539  0.2489
20326SOL    HW172957  13.783   5.837   2.065 -0.3306  0.4048  0.2291
20326SOL    HW272958  13.685   5.746   1.994  0.3864  0.1145 -0.4007
20327SOL     OW72959   8.936   6.893  11.030  0.0742 -0.3531  0.0262
20327SOL    HW172960   8.929   6.930  11.118 -1.5876  0.6335 -0.4866
20327SOL    HW272961   8.972   6.964  10.977 -1.9336  0.1964 -0.7001
20328SOL     OW72962   0.609   8.178   0.602  0.0093 -0.2290 -0.1778
20328SOL    HW172963   0.579   8.102   0.552 -2.0560  0.5674 -0.2585
20328SOL    HW272964   0.626   8.245   0.536  0.1833 -0.0897  0.0061
20329SOL     OW72965  12.944  10.675  10.647 -0.4718  0.4489  0.0318
20329SOL    HW172966  12.911  10.712  10.566 -2.1567 -0.0700  0.4358
20329SOL    HW272967  13.017  10.619  10.620  0.2109  1.7311 -0.8813
20330SOL     OW72968   0.316  13.451  11.574 -0.0506 -0.4004  0.3884
20330SOL    HW172969   0.387  13.502  11.535 -0.3775  0.3916  0.7916
20330SOL    HW272970   0.299  13.380  11.512  2.3599 -1.7525  1.1763
20331SOL     OW72971   6.816  10.687   9.014  0.7080 -0.3054  0.4513
20331SOL    HW172972   6.875  10.662   9.085 -0.8240 -2.9207  0.9232
20331SOL    HW272973   6.751  10.617   9.011 -2.1620  2.1607 -0.3194
20332SOL     OW72974  10.227  10.646  10.868 -0.5165  0.3283  0.0268
20332SOL    HW172975  10.296  10.690  10.918  0.3677 -0.3380 -0.6071
20332SOL    HW272976  10.162  10.715  10.853  0.6736  1.3376 -0.6191
20333SOL     OW72977   1.943  10.284   1.217 -0.6211  0.1027 -0.3901
20333SOL    HW172978   2.015  10.321   1.268 -1.0480  1.2900 -0.6199
20333SOL    HW272979   1.898  10.226   1.279 -0.5091  0.7111  0.2828
20334SOL     OW72980   3.747  10.928   2.533 -0.2020  0.7321  0.0002
20334SOL    HW172981   3.759  10.947   2.441 -0.1396  1.5377  0.1669
20334SOL    HW272982   3.677  10.862   2.535  0.6396 -0.2040 -0.6760
20335SOL     OW72983   0.793   9.421   9.204  0.5821 -0.3838 -0.1088
20335SOL    HW172984   0.707   9.387   9.181  0.0118 -0.3995  1.8129
20335SOL    HW272985   0.814   9.483   9.135 -0.3419 -1.3953 -1.3415
20336SOL     OW72986   0.274   4.380   9.298 -0.0512  0.1081  0.7365
20336SOL    HW172987   0.268   4.302   9.243 -0.3343 -0.1728  1.1641
20336SOL    HW272988   0.316   4.350   9.378  0.6973  0.5926  0.5396
20337SOL     OW72989   2.788   9.224  13.426  0.2288 -0.0965  0.7587
20337SOL    HW172990   2.790   9.141  13.474 -1.0095 -1.1064 -0.7896
20337SOL    HW272991   2.719   9.274  13.467 -0.1853 -0.5596  0.6385
20338SOL     OW72992   0.042  12.871   1.399 -0.1348 -0.3927  0.2685
20338SOL    HW172993   0.124  12.822   1.411 -0.8293 -1.4597  0.7778
20338SOL    HW272994  -0.016  12.839   1.468 -1.3205 -0.3768 -0.6804
20339SOL     OW72995   6.099   0.158  11.390 -0.3944 -0.0082 -0.5245
20339SOL    HW172996   6.060   0.089  11.337  1.1036 -0.3005 -1.3081
20339SOL    HW272997   6.144   0.214  11.327 -1.9061  1.9668  0.0438
20340SOL     OW72998   6.085   3.039   3.693  0.3107 -0.8262 -0.4316
20340SOL    HW172999   6.004   3.087   3.710  0.5909 -0.6467  0.3977
20340SOL    HW273000   6.070   2.998   3.608  0.0493  0.6987 -1.1661
20341SOL     OW73001   3.190   1.009  10.327  0.3203 -0.0529 -0.4836
20341SOL    HW173002   3.172   0.972  10.413 -0.6439 -0.6393 -0.9212
20341SOL    HW273003   3.112   1.060  10.306  0.6988  0.3774 -0.8577
20342SOL     OW73004   9.882   6.600   7.105  0.7428 -0.5036  0.1946
20342SOL    HW173005   9.856   6.592   7.013 -1.4901  0.2924  0.6912
20342SOL    HW273006   9.845   6.522   7.147  1.8701 -0.9332  0.4168
20343SOL     OW73007  12.154   3.494   8.229  0.1763  0.4779  0.2210
20343SOL    HW173008  12.070   3.529   8.199 -1.1923 -1.4194  1.5945
20343SOL    HW273009  12.151   3.401   8.207  2.6952  0.6590 -1.2419
20344SOL     OW73010  11.941  10.497   3.587 -0.3229  0.7698 -0.0220
20344SOL    HW173011  11.985  10.448   3.517 -0.1973 -0.3510  0.8111
20344SOL    HW273012  11.998  10.485   3.663 -0.9491  1.1791  0.5168
20345SOL     OW73013   3.339   1.945  11.317 -0.0802 -0.0335  0.3751
20345SOL    HW173014   3.405   2.007  11.348 -0.9781  0.1103  2.0900
20345SOL    HW273015   3.307   1.983  11.235  3.9270 -1.5051 -2.2287
20346SOL     OW73016   9.085   7.094  13.573 -0.7441 -0.4107  0.3740
20346SOL    HW173017   9.140   7.122  13.646  0.3821 -0.8081 -0.3044
20346SOL    HW273018   9.113   7.149  13.499 -1.9830  0.1082  0.2515
20347SOL     OW73019  12.388   0.657  12.151  0.0082 -0.5954 -0.7056
20347SOL    HW173020  12.317   0.593  12.144 -0.6072  0.1856 -2.0758
20347SOL    HW273021  12.451   0.630  12.085  0.7091 -0.9219  0.0812
20348SOL     OW73022  12.584   3.532   2.671 -0.3560 -0.5628 -0.8384
20348SOL    HW173023  12.670   3.571   2.679  1.0917 -3.6273  0.3431
20348SOL    HW273024  12.531   3.576   2.737  0.1423  1.5761 -1.7880
20349SOL     OW73025   6.492  10.595   0.049  0.2422  0.1182 -0.1460
20349SOL    HW173026   6.517  10.683   0.076  2.4259 -0.3698 -0.4289
20349SOL    HW273027   6.439  10.609  -0.030  0.0486  1.1840  0.1549
20350SOL     OW73028  11.697   3.179   2.926 -0.0628  0.1382 -0.7995
20350SOL    HW173029  11.703   3.265   2.884  1.9148 -0.0860 -1.0626
20350SOL    HW273030  11.753   3.186   3.003  0.0934 -0.8938 -0.8064
20351SOL     OW73031  12.558   7.712   0.069  0.1435 -0.0002  0.1434
20351SOL    HW173032  12.477   7.661   0.059 -0.5726  1.1983 -0.4818
20351SOL    HW273033  12.625   7.648   0.087 -0.9261 -1.0580  0.4753
20352SOL     OW73034   0.864  10.284  12.672  0.2872  0.1881  0.0688
20352SOL    HW173035   0.787  10.246  12.713  1.0213 -0.0126  1.3388
20352SOL    HW273036   0.865  10.375  12.703  0.9749 -0.0290  0.7392
20353SOL     OW73037   0.990   4.982   7.909 -0.3002 -0.4436 -0.3069
20353SOL    HW173038   1.031   5.067   7.893 -1.8531  0.8534  1.9595
20353SOL    HW273039   1.014   4.960   7.999 -1.4812 -1.4398 -0.2017
20354SOL     OW73040   6.415   1.298   0.667  0.2005 -0.3397  0.5874
20354SOL    HW173041   6.326   1.302   0.633  0.7371 -0.1332 -0.8571
20354SOL    HW273042   6.447   1.388   0.663  1.3300 -0.7632 -1.4069
20355SOL     OW73043  11.562  13.676  10.655 -0.1191 -0.0286  0.1837
20355SOL    HW173044  11.509  13.690  10.576 -0.6975 -3.1119 -0.1203
20355SOL    HW273045  11.501  13.685  10.727 -0.2283 -0.0185  0.0906
20356SOL     OW73046  10.503   6.723   9.619  0.3438 -0.4513 -0.2961
20356SOL    HW173047  10.588   6.755   9.651  0.2167 -0.9559  0.5800
20356SOL    HW273048  10.479   6.784   9.549  0.0134  1.5152  1.4314
20357SOL     OW73049   0.092   8.809   5.038 -0.8147 -0.0648  0.3392
20357SOL    HW173050   0.131   8.878   4.984 -0.3740 -0.0398  0.6854
20357SOL    HW273051   0.002   8.803   5.007 -0.5052 -0.2330 -0.5932
20358SOL     OW73052   3.520  12.102   2.788 -0.4918 -0.1240 -0.5052
20358SOL    HW173053   3.505  12.129   2.697  0.7111  0.8385 -0.4501
20358SOL    HW273054   3.512  12.183   2.839 -0.4849 -0.5343  0.1644
20359SOL     OW73055  10.311   5.497  12.284  0.2007  0.2796  0.1824
20359SOL    HW173056  10.293   5.552  12.361  0.7115  0.5666  0.0998
20359SOL    HW273057  10.328   5.560  12.214  0.0149  0.0157 -0.1030
20360SOL     OW73058   0.533  10.265  12.581  0.2298  0.5971 -0.0762
20360SOL    HW173059   0.580  10.218  12.649  0.9617  0.1600 -0.8540
20360SOL    HW273060   0.503  10.346  12.623  0.1187  0.0451  0.9142
20361SOL     OW73061  10.224  10.546   7.401  0.3211  0.0834 -0.3458
20361SOL    HW173062  10.195  10.592   7.323 -0.3748  0.4463  0.1186
20361SOL    HW273063  10.198  10.603   7.474 -0.9400 -1.2162  0.2799
20362SOL     OW73064   8.854   4.563  10.876  0.2115  0.2076  0.1215
20362SOL    HW173065   8.872   4.644  10.828  0.4758  0.1308  0.0908
20362SOL    HW273066   8.938   4.538  10.913 -0.0213  0.3522  0.7650
20363SOL     OW73067  12.937   3.637   8.719  0.1614 -0.2179  0.5909
20363SOL    HW173068  12.854   3.635   8.670  0.2873  0.5325  0.3263
20363SOL    HW273069  13.001   3.599   8.660  0.9102  3.2646 -1.0806
20364SOL     OW73070  13.554   9.943  13.127 -0.7816 -0.3454  0.0075
20364SOL    HW173071  13.593  10.030  13.119 -0.0189 -0.7155 -0.3057
20364SOL    HW273072  13.590   9.908  13.208 -1.4209 -0.2143  0.3610
20365SOL     OW73073   4.259   5.562  11.052  0.1231 -0.0868  0.5132
20365SOL    HW173074   4.251   5.614  11.132  0.0278  2.4329 -1.0111
20365SOL    HW273075   4.261   5.627  10.982  1.3854 -2.1339 -1.4778
20366SOL     OW73076   4.229  12.957  13.700  0.3976  0.3955 -0.1494
20366SOL    HW173077   4.308  12.969  13.754  0.6242 -1.0038 -0.1237
20366SOL    HW273078   4.165  13.016  13.739  1.4365  1.6052 -0.2022
20367SOL     OW73079   5.386   2.543   6.953 -0.2732 -0.1905 -0.5325
20367SOL    HW173080   5.358   2.545   6.862  0.6853  1.1201 -0.8243
20367SOL    HW273081   5.481   2.533   6.949 -0.4000 -2.4717  0.3989
20368SOL     OW73082   4.224   0.520   6.686  0.1473 -0.4283  0.5687
20368SOL    HW173083   4.233   0.570   6.767  1.9061 -1.6363  1.1893
20368SOL    HW273084   4.144   0.470   6.697 -0.7687  1.0016  0.6241
20369SOL     OW73085   0.763   9.062   8.251 -0.1821 -0.2605 -0.1301
20369SOL    HW173086   0.677   9.046   8.291  0.4665 -1.1974  0.9473
20369SOL    HW273087   0.769   8.997   8.182  0.0816 -0.9061  0.4874
20370SOL     OW73088  11.896   3.513   1.788 -0.8602 -0.2884 -0.2731
20370SOL    HW173089  11.981   3.552   1.805 -0.3230 -1.5863  0.1186
20370SOL    HW273090  11.884   3.523   1.693  0.1255 -0.8708 -0.4713
20371SOL     OW73091  12.925  12.873   7.757  0.4139  0.0672 -0.2352
20371SOL    HW173092  12.901  12.953   7.710 -1.7191 -1.1074 -1.3129
20371SOL    HW273093  12.948  12.903   7.845 -1.5995  1.8000 -0.1913
20372SOL     OW73094   0.217   5.825   1.658  0.0453  0.1645  0.5755
20372SOL    HW173095   0.272   5.902   1.670 -0.4534  0.4423  1.1330
20372SOL    HW273096   0.238   5.768   1.733 -1.2698  0.8020  1.4751
20373SOL     OW73097   7.244  12.883  10.081  0.2047  0.2750 -0.5137
20373SOL    HW173098   7.188  12.805  10.090 -0.6606  1.0972  2.4015
20373SOL    HW273099   7.208  12.929  10.006 -2.7370  0.4289  0.8321
20374SOL     OW73100   6.904   9.334  13.532 -0.0671 -0.1603  0.3399
20374SOL    HW173101   6.906   9.359  13.625 -3.3927 -0.0755  0.5006
20374SOL    HW273102   6.853   9.402  13.489 -2.1746 -2.2884 -0.7299
20375SOL     OW73103   6.124   8.438  13.178 -0.0905  0.3096  0.0625
20375SOL    HW173104   6.219   8.437  13.172  0.0625 -2.5709  1.5131
20375SOL    HW273105   6.096   8.368  13.118 -1.3270  1.1583 -0.3891
20376SOL     OW73106   2.580   7.125   2.309 -0.1055  0.3604 -0.3379
20376SOL    HW173107   2.551   7.046   2.355  1.0616  0.4715  0.6193
20376SOL    HW273108   2.507   7.186   2.318 -0.8197 -0.4201 -0.6650
20377SOL     OW73109  12.688   0.717   3.142  0.2294 -0.3824  0.2165
20377SOL    HW173110  12.606   0.722   3.092  0.0395  1.3412  0.6462
20377SOL    HW273111  12.664   0.747   3.230  1.3415  0.2120  0.3331
20378SOL     OW73112   5.660   0.495   4.467  0.2474 -0.5827  0.4652
20378SOL    HW173113   5.681   0.514   4.558 -0.2233 -0.2493  0.5058
20378SOL    HW273114   5.659   0.581   4.424  0.5539 -0.7462  0.1299
20379SOL     OW73115   8.000   8.970   7.735 -0.4348 -0.8775  0.5533
20379SOL    HW173116   7.924   8.964   7.793 -0.1339 -0.8886  0.9495
20379SOL    HW273117   7.963   8.968   7.647 -1.0221  0.7533  0.7397
20380SOL     OW73118   7.802   0.098   8.824 -0.0600 -0.3515  0.6159
20380SOL    HW173119   7.822   0.006   8.841 -0.4443 -0.4592  0.4804
20380SOL    HW273120   7.888   0.141   8.820  0.4117 -1.3174 -2.9026
20381SOL     OW73121  10.335   0.044   7.736  0.1399 -0.1435 -0.0030
20381SOL    HW173122  10.402   0.073   7.797  0.7317 -0.2764 -0.5830
20381SOL    HW273123  10.268   0.113   7.739  0.8702  0.5923 -0.3154
20382SOL     OW73124   9.529  12.459  11.502  0.2971  0.0727 -0.0985
20382SOL    HW173125   9.490  12.433  11.419 -1.2568  1.3449  0.1672
20382SOL    HW273126   9.519  12.382  11.559  0.0233 -0.3043 -0.6519
20383SOL     OW73127  10.379   9.881  13.425  0.3892  0.1515 -0.2427
20383SOL    HW173128  10.316   9.819  13.389 -1.1477  1.7585 -0.5147
20383SOL    HW273129  10.464   9.850  13.395 -0.4374 -1.1048 -1.4099
20384SOL     OW73130  11.465   3.809   3.075 -0.6752 -0.1249 -0.0106
20384SOL    HW173131  11.455   3.902   3.091  1.9347 -0.0254  1.5416
20384SOL    HW273132  11.528   3.779   3.140 -1.7180 -3.0944 -0.1812
20385SOL     OW73133   8.021  11.237   4.086 -0.3259  0.3842 -0.3684
20385SOL    HW173134   7.960  11.239   4.160  1.3382  0.4266  1.0839
20385SOL    HW273135   7.994  11.310   4.030 -2.2009 -0.2191 -0.3172
20386SOL     OW73136   6.628   4.759  13.111  0.2945 -0.3799  0.2007
20386SOL    HW173137   6.540   4.721  13.110  0.4708 -0.9169 -2.9106
20386SOL    HW273138   6.620   4.835  13.169 -2.8501  0.9428 -1.7193
20387SOL     OW73139  11.592   1.096  12.588  0.2831  0.0509  0.2365
20387SOL    HW173140  11.647   1.056  12.521  0.8609  3.0069 -1.2282
20387SOL    HW273141  11.645   1.091  12.668  1.0193 -0.6101 -0.2770
20388SOL     OW73142  11.003   9.623  10.362 -0.0894 -0.3056  0.2824
20388SOL    HW173143  11.098   9.614  10.360  0.1800  2.0540 -1.0729
20388SOL    HW273144  10.985   9.682  10.435 -0.4477 -0.1202  0.0463
20389SOL     OW73145   3.207   0.930   6.709 -0.6822  0.1900 -0.3853
20389SOL    HW173146   3.298   0.957   6.695 -0.1223 -0.1411  2.1481
20389SOL    HW273147   3.170   0.999   6.765 -1.3011 -0.7854  0.4307
20390SOL     OW73148   6.577   2.418   4.265  0.3218 -0.0448 -0.4220
20390SOL    HW173149   6.539   2.429   4.178  0.8697  1.4608 -0.5036
20390SOL    HW273150   6.652   2.478   4.267  1.5303 -1.4975  0.4092
20391SOL     OW73151   6.483   1.939   6.401 -0.2235  0.3545 -0.1525
20391SOL    HW173152   6.543   1.978   6.465 -0.1885 -1.4810  1.0152
20391SOL    HW273153   6.533   1.867   6.363 -0.3135  1.3141 -2.1785
20392SOL     OW73154   3.642   1.382  10.050  0.6485  0.1317 -0.2644
20392SOL    HW173155   3.720   1.378   9.995 -0.1996  2.3013 -1.8016
20392SOL    HW273156   3.578   1.329  10.005  0.4641  0.5107 -0.4539
20393SOL     OW73157   5.247   2.511  12.228 -0.1514 -0.4439  0.9009
20393SOL    HW173158   5.274   2.420  12.232  1.3090 -0.1326 -0.5674
20393SOL    HW273159   5.260   2.535  12.136 -3.5513  0.3720  0.4926
20394SOL     OW73160   0.269  11.009   1.158 -0.7379 -0.6435  0.6129
20394SOL    HW173161   0.199  11.001   1.094 -0.1193 -0.6109 -0.0874
20394SOL    HW273162   0.294  11.101   1.155  2.0272 -1.3166 -2.1421
20395SOL     OW73163   2.371   6.892  11.698  0.2342  0.1889  0.7255
20395SOL    HW173164   2.324   6.934  11.770  0.6464  1.3557  0.3307
20395SOL    HW273165   2.422   6.823  11.740  1.7537  1.8909  1.8192
20396SOL     OW73166   4.234   8.274   1.306  0.3945  0.1045 -0.0051
20396SOL    HW173167   4.320   8.317   1.304  0.5460 -0.2072 -0.2125
20396SOL    HW273168   4.182   8.322   1.242  0.9194 -0.7638 -1.1165
20397SOL     OW73169  10.540   5.868   0.892 -0.2570 -0.0175  0.3546
20397SOL    HW173170  10.530   5.829   0.805  0.5218  0.6060 -0.0228
20397SOL    HW273171  10.552   5.961   0.876 -2.3543  0.4695  1.2724
20398SOL     OW73172   7.678   0.603   3.341  0.1588  0.5924  0.0132
20398SOL    HW173173   7.661   0.598   3.435  1.0053  0.0767  0.1552
20398SOL    HW273174   7.734   0.527   3.324  0.6815  1.1479 -0.7592
20399SOL     OW73175  12.113   7.533   8.919  0.1865  0.7124  0.0745
20399SOL    HW173176  12.077   7.529   9.008  0.2101  0.3228  0.0664
20399SOL    HW273177  12.128   7.442   8.895  0.3734  0.8281 -0.2519
20400SOL     OW73178  10.101  12.973   8.999  1.2073  0.5782 -0.1181
20400SOL    HW173179  10.074  13.020   9.078 -0.3052 -0.1329 -0.1832
20400SOL    HW273180  10.070  13.026   8.926 -0.0059 -0.2027 -0.1949
20401SOL     OW73181  11.410   9.005  14.015  0.1183 -0.2892 -0.6612
20401SOL    HW173182  11.432   8.927  14.066 -0.6011  0.5345  0.9676
20401SOL    HW273183  11.403   9.075  14.079  1.0698  1.2306 -2.1177
20402SOL     OW73184   9.324  13.618   5.608  0.0229 -0.1593 -0.0677
20402SOL    HW173185   9.339  13.626   5.514 -1.2315  2.1890 -0.1626
20402SOL    HW273186   9.291  13.705   5.634 -0.3382 -0.9572  2.4039
20403SOL     OW73187  13.537  12.565   2.521  0.2164 -0.7077  0.0753
20403SOL    HW173188  13.500  12.516   2.595 -0.4449 -0.7958 -0.2988
20403SOL    HW273189  13.504  12.519   2.444 -0.2299  0.1877 -0.2784
20404SOL     OW73190  10.818  13.225   4.577 -0.0726  0.5505  0.2786
20404SOL    HW173191  10.906  13.189   4.589  1.2449  3.8803  1.9709
20404SOL    HW273192  10.759  13.158   4.614  1.7266 -1.4859 -0.3304
20405SOL     OW73193   4.822  12.801   2.874  0.2814 -0.2878 -0.3624
20405SOL    HW173194   4.745  12.853   2.891  0.7242  0.7166 -1.2842
20405SOL    HW273195   4.875  12.855   2.815  2.0142 -0.6452  0.8037
20406SOL     OW73196   0.591  10.690   2.452 -0.0620  0.4361 -0.3407
20406SOL    HW173197   0.635  10.775   2.445  0.1640  0.4123  0.6948
20406SOL    HW273198   0.500  10.708   2.431  0.0077  0.9149 -0.2330
20407SOL     OW73199   9.056   4.662   5.115 -0.3775 -0.2258 -0.2386
20407SOL    HW173200   9.021   4.633   5.199 -0.1153 -1.0170 -0.3945
20407SOL    HW273201   9.073   4.755   5.127 -2.5671  0.2218 -0.1753
20408SOL     OW73202   0.820   0.167   3.864 -0.1019  0.3365 -0.0646
20408SOL    HW173203   0.830   0.119   3.782  0.6687  0.4344 -0.0389
20408SOL    HW273204   0.813   0.259   3.837 -0.4526  0.3122 -0.0543
20409SOL     OW73205   2.176   8.077  13.310  0.5037 -0.0817  0.0367
20409SOL    HW173206   2.228   8.007  13.350  2.5116  0.5003 -1.4242
20409SOL    HW273207   2.094   8.034  13.285  1.9869 -2.1679 -1.5761
20410SOL     OW73208   3.508   3.892   1.410 -0.1916  0.5697 -0.6481
20410SOL    HW173209   3.418   3.861   1.398 -0.5859  1.2007  0.5247
20410SOL    HW273210   3.550   3.875   1.325 -1.1480 -0.5650 -0.9356
20411SOL     OW73211   4.395   1.208   7.239 -0.0360 -0.3663 -0.3316
20411SOL    HW173212   4.472   1.205   7.182 -0.5952  1.6337 -1.2655
20411SOL    HW273213   4.344   1.282   7.206 -1.1365 -0.1055  1.8198
20412SOL     OW73214   9.507   1.650   9.386 -0.2074  0.4865 -0.9097
20412SOL    HW173215   9.519   1.726   9.329  0.4839  0.7355 -0.4457
20412SOL    HW273216   9.559   1.581   9.346  1.2246  0.9905  0.0172
20413SOL     OW73217   4.305   4.844   8.143  0.2970  0.6965 -0.0407
20413SOL    HW173218   4.334   4.851   8.234 -0.7524 -1.1786  0.4984
20413SOL    HW273219   4.285   4.934   8.117 -1.8866  1.0538  2.4669
20414SOL     OW73220   8.341   1.700   7.405 -0.4062  0.4502  0.0497
20414SOL    HW173221   8.297   1.781   7.378 -1.1133 -0.1933 -0.7926
20414SOL    HW273222   8.289   1.668   7.478 -1.6865 -0.5630 -1.2516
20415SOL     OW73223   5.339   1.435   3.837  0.0182  0.1528 -0.0920
20415SOL    HW173224   5.428   1.399   3.839  0.0462 -0.0821 -2.5015
20415SOL    HW273225   5.286   1.365   3.797 -0.7092  1.2310 -1.0896
20416SOL     OW73226   7.371   0.468  12.813  0.5715  0.3187 -0.1939
20416SOL    HW173227   7.446   0.419  12.779 -0.2018  0.3177 -1.9808
20416SOL    HW273228   7.410   0.549  12.848  1.4729  0.0148 -0.4516
20417SOL     OW73229   5.294  11.198  11.106  0.0982 -0.4624  0.6841
20417SOL    HW173230   5.317  11.176  11.196  0.3195 -1.1589  0.4623
20417SOL    HW273231   5.219  11.257  11.115 -0.4583 -1.2363  1.3056
20418SOL     OW73232   8.646   2.272  11.773 -0.3070 -0.0880  0.3555
20418SOL    HW173233   8.681   2.199  11.722  0.6311  0.6869 -0.1573
20418SOL    HW273234   8.593   2.231  11.842  1.0035 -1.2860  0.6865
20419SOL     OW73235   6.891   3.441  12.522 -0.4222 -0.3293  0.1649
20419SOL    HW173236   6.851   3.434  12.609  0.3847  1.0899  0.6886
20419SOL    HW273237   6.836   3.505  12.476 -0.0982 -0.1015  0.0923
20420SOL     OW73238  10.949  11.075   5.835  0.7627 -0.0032 -0.5144
20420SOL    HW173239  10.864  11.115   5.854  1.1299  0.2648  0.6415
20420SOL    HW273240  10.978  11.117   5.754  0.5036  1.0454 -0.0731
20421SOL     OW73241   4.463  11.291   7.362 -0.0751  0.1474  0.4588
20421SOL    HW173242   4.480  11.197   7.367 -1.5223 -0.1617 -0.0091
20421SOL    HW273243   4.525  11.330   7.424  0.6927 -1.0872  0.4935
20422SOL     OW73244  11.536   7.618   9.605  0.0712 -0.6536 -0.3906
20422SOL    HW173245  11.529   7.633   9.511  0.3511 -0.6445 -0.4084
20422SOL    HW273246  11.525   7.523   9.615 -1.7381 -0.4840 -0.2724
20423SOL     OW73247   1.739   0.931   8.046  0.6304 -0.3830 -0.1939
20423SOL    HW173248   1.733   0.940   7.951  0.5788 -0.0591 -0.1611
20423SOL    HW273249   1.831   0.913   8.063  0.6653 -0.2948 -0.2920
20424SOL     OW73250   2.002   0.385   0.852  0.6092  0.0871 -0.4961
20424SOL    HW173251   1.916   0.406   0.817  0.0778 -1.4445 -0.1489
20424SOL    HW273252   1.985   0.328   0.926  1.8687  0.8809  0.4476
20425SOL     OW73253   7.877   8.246   5.918  0.0309 -0.2928 -0.0076
20425SOL    HW173254   7.784   8.253   5.896  0.6142  2.3286 -2.2144
20425SOL    HW273255   7.884   8.281   6.007 -1.2482 -2.3288  0.9737
20426SOL     OW73256   6.992  10.556   8.701 -0.2306  0.2759 -0.0234
20426SOL    HW173257   6.961  10.505   8.626  1.1869 -1.5435  0.5585
20426SOL    HW273258   6.969  10.647   8.679  0.4872 -0.1298 -2.8409
20427SOL     OW73259   7.715   1.171   8.977  0.3610  0.0070  0.0775
20427SOL    HW173260   7.781   1.176   8.908  0.4673  0.7039  0.2163
20427SOL    HW273261   7.634   1.145   8.932 -0.1060  2.5782 -0.7222
20428SOL     OW73262   6.382   6.323   0.159  0.4717 -0.3215  1.0710
20428SOL    HW173263   6.448   6.316   0.228  1.7591 -0.1750 -0.1174
20428SOL    HW273264   6.432   6.329   0.078 -0.9973  0.1300  0.1591
20429SOL     OW73265  11.543   0.339   4.372  0.5531  0.4326 -0.0153
20429SOL    HW173266  11.633   0.350   4.342  0.2930  1.6692 -0.3939
20429SOL    HW273267  11.549   0.331   4.467  0.8749  3.8064  0.3699
20430SOL     OW73268  12.734   3.626   9.413  0.3759 -0.1358  0.3741
20430SOL    HW173269  12.791   3.668   9.477 -0.7638  1.9126  0.1223
20430SOL    HW273270  12.646   3.633   9.450 -0.1561  0.0697 -0.8633
20431SOL     OW73271   6.027  13.622   2.034  0.3585 -0.0752  0.3625
20431SOL    HW173272   5.970  13.688   2.075 -0.5545 -1.2680  1.0518
20431SOL    HW273273   5.966  13.561   1.992  1.2264  0.4079 -1.7519
20432SOL     OW73274   2.589   5.372   5.661  0.2177  0.3492 -0.3576
20432SOL    HW173275   2.513   5.365   5.718 -0.5571 -1.4523 -1.5505
20432SOL    HW273276   2.561   5.430   5.591 -0.5283 -1.2314 -1.4258
20433SOL     OW73277   1.668  10.183   6.158 -0.1976 -0.3844 -0.3104
20433SOL    HW173278   1.743  10.132   6.127 -0.9173 -1.1332 -0.8711
20433SOL    HW273279   1.657  10.156   6.250 -0.7860 -1.5472 -0.6961
20434SOL     OW73280   5.951  13.357   8.446 -0.1982 -0.2540  0.3726
20434SOL    HW173281   5.864  13.388   8.469 -1.5771 -2.8372 -0.9423
20434SOL    HW273282   5.995  13.434   8.408 -2.2212  0.8683  0.1865
20435SOL     OW73283  10.147   5.279  11.081 -0.3631  1.0557  0.8253
20435SOL    HW173284  10.139   5.187  11.105  1.8166  0.9124  1.1838
20435SOL    HW273285  10.231   5.285  11.035 -1.3328  2.5410 -0.8967
20436SOL     OW73286   3.379  12.028  10.502 -0.0135  0.0716  0.1991
20436SOL    HW173287   3.329  12.090  10.451 -0.6794 -0.8368 -0.2784
20436SOL    HW273288   3.440  11.988  10.440  2.1715  1.9576  0.9767
20437SOL     OW73289   4.609   1.523   3.090  0.2941 -0.3556  0.0021
20437SOL    HW173290   4.655   1.581   3.029  1.2816 -1.9062 -0.8042
20437SOL    HW273291   4.643   1.436   3.069 -0.5920 -1.1339  1.6731
20438SOL     OW73292  12.637  11.986   6.555  0.0865  0.2150  0.1311
20438SOL    HW173293  12.557  11.943   6.526 -0.7699  0.9571  1.3447
20438SOL    HW273294  12.649  12.059   6.493 -0.5691  0.5239  0.3624
20439SOL     OW73295   5.909   5.615   8.597  0.7530 -0.1981  0.7001
20439SOL    HW173296   5.933   5.595   8.688  3.0464 -1.6208 -0.1112
20439SOL    HW273297   5.945   5.703   8.582  2.9064 -1.0406  0.4581
20440SOL     OW73298  12.568   8.830   6.987 -0.1547 -0.4446 -0.0705
20440SOL    HW173299  12.602   8.806   7.074 -0.5997  0.2517  0.3017
20440SOL    HW273300  12.625   8.901   6.958  0.3257 -1.0323 -0.5887
20441SOL     OW73301   0.857   9.805  13.267 -0.5112 -0.2862 -0.0160
20441SOL    HW173302   0.924   9.755  13.314 -0.4220 -0.8506 -0.7305
20441SOL    HW273303   0.894   9.892  13.258 -0.2877 -0.3304  0.4548
20442SOL     OW73304   7.346   3.472   2.018  0.1043 -0.5164 -0.4886
20442SOL    HW173305   7.349   3.528   1.940  0.3779 -0.6582 -0.5835
20442SOL    HW273306   7.373   3.528   2.090  0.8725 -0.6571 -0.6634
20443SOL     OW73307  13.915   9.904   3.870  0.1204 -0.1069  0.8220
20443SOL    HW173308  13.921   9.867   3.958 -1.3026 -1.9474  0.2054
20443SOL    HW273309  13.979   9.855   3.819 -0.2636 -0.2387  0.4629
20444SOL     OW73310   4.128   8.556   9.144 -0.6948  0.4710  1.2933
20444SOL    HW173311   4.096   8.516   9.064  2.3248  0.0945  0.1209
20444SOL    HW273312   4.050   8.589   9.188 -2.4896  0.5255 -1.6884
20445SOL     OW73313   0.557   4.127   4.403 -0.4393  0.3912 -0.5402
20445SOL    HW173314   0.493   4.166   4.462 -0.1792  1.0580 -0.6991
20445SOL    HW273315   0.523   4.038   4.387 -1.3572  0.7513 -0.6691
20446SOL     OW73316   7.147   8.728   4.553  0.2905  0.8191  0.4371
20446SOL    HW173317   7.134   8.663   4.484 -1.1325  1.3166  0.2026
20446SOL    HW273318   7.217   8.692   4.607  0.9516  0.0883 -0.8635
20447SOL     OW73319   3.101   2.235   0.922 -0.9775  0.0594  0.3127
20447SOL    HW173320   3.143   2.257   0.839 -2.0872 -1.2268 -0.6415
20447SOL    HW273321   3.076   2.143   0.913 -0.3236 -0.3952  2.4360
20448SOL     OW73322   0.812  11.612  13.501  0.3155  0.3275  0.3418
20448SOL    HW173323   0.804  11.564  13.583 -1.3313 -0.0830 -0.0285
20448SOL    HW273324   0.865  11.555  13.445  1.0879  0.4197  0.9672
20449SOL     OW73325   4.646   5.500   3.397  0.2086 -0.7149  0.0208
20449SOL    HW173326   4.701   5.565   3.352 -0.0349  0.4464  1.3209
20449SOL    HW273327   4.651   5.525   3.489 -1.2547 -1.5388  0.3451
20450SOL     OW73328   2.446   1.501  12.213 -0.3768 -1.1554 -0.2907
20450SOL    HW173329   2.507   1.568  12.245 -0.6069 -1.0246 -0.1241
20450SOL    HW273330   2.397   1.473  12.291  2.0332 -4.0049  0.3582
20451SOL     OW73331  11.828  11.717   3.529 -0.0631 -0.2326  0.3708
20451SOL    HW173332  11.745  11.741   3.488  1.0133  1.1919 -1.0826
20451SOL    HW273333  11.809  11.713   3.623 -1.3144  2.1445  0.2728
20452SOL     OW73334   2.663   5.243   4.238 -0.2862 -0.6217 -0.0558
20452SOL    HW173335   2.690   5.332   4.259 -0.4185 -1.0565  2.1704
20452SOL    HW273336   2.673   5.237   4.143  1.0670  1.3075 -0.0911
20453SOL     OW73337   3.203   3.739   9.618 -0.0942  0.2708 -0.2541
20453SOL    HW173338   3.116   3.727   9.655  0.6826 -3.0461  0.8519
20453SOL    HW273339   3.189   3.787   9.537 -3.0061 -0.6291 -0.3675
20454SOL     OW73340   8.288   0.623   9.584 -0.0365  0.1618  0.1108
20454SOL    HW173341   8.375   0.645   9.552 -0.8008  0.7680 -1.6797
20454SOL    HW273342   8.244   0.708   9.594 -1.4267 -0.2058 -2.1431
20455SOL     OW73343   8.516  10.334  10.882  0.2987 -0.5510 -0.4032
20455SOL    HW173344   8.474  10.412  10.918  1.8393 -0.5426  1.5742
20455SOL    HW273345   8.546  10.361  10.795 -3.2237 -0.4375 -1.7389
20456SOL     OW73346  11.411   4.183   4.727  0.1484 -0.2279  1.0496
20456SOL    HW173347  11.471   4.196   4.801 -1.2294  1.6225  1.9211
20456SOL    HW273348  11.334   4.142   4.765 -1.6701  3.0988  1.3195
20457SOL     OW73349   3.659   9.978  12.360  0.0163  0.2586  0.2501
20457SOL    HW173350   3.660  10.058  12.307 -0.2794  0.3315  0.3547
20457SOL    HW273351   3.636   9.909  12.298 -2.6593  0.6448  0.6850
20458SOL     OW73352   2.575  10.698  12.961  0.2746  0.7216 -0.4945
20458SOL    HW173353   2.566  10.624  12.900 -0.7554  2.4556 -2.5713
20458SOL    HW273354   2.549  10.661  13.045 -2.1257 -0.8931 -1.7889
20459SOL     OW73355   5.475   3.528   6.468 -0.1984  0.5457 -0.7295
20459SOL    HW173356   5.436   3.613   6.486 -0.5645  0.4202 -0.9118
20459SOL    HW273357   5.482   3.525   6.372  1.5343  1.1247 -0.6479
20460SOL     OW73358   1.849  10.516   9.566 -0.3395 -0.5450  0.0042
20460SOL    HW173359   1.905  10.481   9.496  1.1155 -0.9286  1.3087
20460SOL    HW273360   1.889  10.483   9.647 -2.2161 -0.4567  1.0147
20461SOL     OW73361   2.156   4.284   9.954 -0.2190  0.4298 -0.0268
20461SOL    HW173362   2.212   4.341   9.901 -1.6006  2.0999  0.2195
20461SOL    HW273363   2.118   4.223   9.891 -1.5824  2.1795 -0.9833
20462SOL     OW73364   1.087  11.148   3.476  0.0011 -0.3285 -0.5540
20462SOL    HW173365   1.151  11.085   3.444  1.1558  0.5896 -0.1390
20462SOL    HW273366   1.084  11.216   3.408  0.4350  0.2706  0.0150
20463SOL     OW73367   8.946   7.578  10.243 -0.2543 -0.1540  0.1254
20463SOL    HW173368   8.989   7.498  10.212 -0.9988  0.2015 -2.0180
20463SOL    HW273369   8.951   7.638  10.168 -0.8988  1.3266  1.2264
20464SOL     OW73370   2.184   3.377   0.088  0.0072  0.1151  0.4549
20464SOL    HW173371   2.243   3.305   0.065 -0.7721 -1.0688  2.0477
20464SOL    HW273372   2.242   3.444   0.124  0.5882 -0.2979  0.3122
20465SOL     OW73373  11.527  13.743   0.871  0.5028 -0.0991  0.7675
20465SOL    HW173374  11.606  13.690   0.881 -1.4480 -2.7999  3.8246
20465SOL    HW273375  11.526  13.800   0.948  0.5941  1.6887 -0.4930
20466SOL     OW73376   1.683   4.390   3.414 -0.5784 -0.0753 -0.3552
20466SOL    HW173377   1.609   4.445   3.440 -1.1188 -0.1613 -1.6253
20466SOL    HW273378   1.759   4.433   3.452 -1.3142 -0.3183  1.5025
20467SOL     OW73379  14.045   9.232   2.213 -0.6233 -0.4123 -0.2203
20467SOL    HW173380  14.016   9.197   2.297 -1.1419 -1.3319 -0.7626
20467SOL    HW273381  14.000   9.316   2.205 -0.7606 -0.4336  0.3186
20468SOL     OW73382   1.026   2.341  14.011 -0.0381  0.5040  0.2051
20468SOL    HW173383   1.051   2.299  13.928 -1.0478  1.9496 -0.8935
20468SOL    HW273384   1.090   2.309  14.074  0.2398 -1.3334 -0.9259
20469SOL     OW73385   6.230   4.495   0.255 -0.7260 -0.8858  0.2821
20469SOL    HW173386   6.287   4.476   0.180  0.2685  0.7137  0.5649
20469SOL    HW273387   6.283   4.472   0.331 -1.5969 -2.1552  0.5171
20470SOL     OW73388   9.265  11.146   9.301 -0.1229  0.3001 -0.1474
20470SOL    HW173389   9.279  11.133   9.394 -0.6262 -0.0982 -0.1250
20470SOL    HW273390   9.348  11.181   9.269  0.8505 -1.7226  0.0375
20471SOL     OW73391   8.361   7.423  11.826  0.5283  0.4689  0.1020
20471SOL    HW173392   8.359   7.514  11.856 -1.0046  0.5715 -0.2743
20471SOL    HW273393   8.375   7.373  11.906 -0.6439  0.9268  0.6189
20472SOL     OW73394   1.039  12.310   7.924 -0.1194  0.1556 -0.3349
20472SOL    HW173395   1.043  12.381   7.987 -0.2849  0.5492 -0.7677
20472SOL    HW273396   1.058  12.231   7.975 -1.3859  0.3308  0.4164
20473SOL     OW73397   5.505   2.434   3.936 -0.8518  0.5334  0.3638
20473SOL    HW173398   5.548   2.362   3.982 -1.3450  0.0184  0.0425
20473SOL    HW273399   5.411   2.420   3.952 -0.9375  1.3583  0.6596
20474SOL     OW73400   7.971   5.012   1.781  0.0864 -0.4133  0.3307
20474SOL    HW173401   8.024   5.085   1.749 -2.0062  2.0774  2.0882
20474SOL    HW273402   7.920   4.985   1.704  1.0131 -0.1385 -0.3967
20475SOL     OW73403   6.279   7.539   5.217 -0.5764 -0.3219  0.7059
20475SOL    HW173404   6.186   7.543   5.195 -0.3836  1.3057  0.1118
20475SOL    HW273405   6.287   7.594   5.295  0.0622  0.3895  0.1384
20476SOL     OW73406   5.802   4.302   1.451  0.5458 -0.2110 -0.5208
20476SOL    HW173407   5.834   4.331   1.536 -0.2687 -1.3214  0.1843
20476SOL    HW273408   5.792   4.207   1.460 -0.3136 -0.2396 -1.5985
20477SOL     OW73409   5.178  10.293   1.435 -0.5703  0.0025  0.0970
20477SOL    HW173410   5.107  10.331   1.383  0.8697  1.6793 -0.7296
20477SOL    HW273411   5.206  10.217   1.385 -1.2077 -0.1739 -0.0024
20478SOL     OW73412   2.486   3.893   8.360 -0.1040  0.1221 -0.1047
20478SOL    HW173413   2.478   3.976   8.407  0.1613 -0.9314  1.9221
20478SOL    HW273414   2.581   3.881   8.348  0.3617 -2.0918  4.0613
20479SOL     OW73415   7.883  10.262  10.333  0.3246  0.1536  0.4460
20479SOL    HW173416   7.830  10.251  10.254 -0.5335  1.7844  0.7579
20479SOL    HW273417   7.895  10.173  10.367 -2.7033 -0.2575  0.6835
20480SOL     OW73418   9.190  10.273  11.595  0.3312  0.4860 -0.0410
20480SOL    HW173419   9.232  10.307  11.517  0.3916 -0.6599 -0.5324
20480SOL    HW273420   9.256  10.216  11.635  0.2736  0.9973  0.8020
20481SOL     OW73421  12.251   4.290  10.608 -0.1993  0.5123 -0.3280
20481SOL    HW173422  12.295   4.346  10.544 -1.6229  1.7974 -0.2232
20481SOL    HW273423  12.167   4.267  10.567 -1.2175  1.5000  1.1034
20482SOL     OW73424   4.931   6.307   1.369  0.1069 -0.0480 -0.0854
20482SOL    HW173425   4.947   6.290   1.462  0.7896  0.9726 -0.0057
20482SOL    HW273426   4.849   6.355   1.367  1.1904  1.8830  0.1963
20483SOL     OW73427  10.690  10.514  13.326  0.5725 -0.1017 -0.2810
20483SOL    HW173428  10.777  10.532  13.363 -0.2640  2.1347  0.7733
20483SOL    HW273429  10.637  10.489  13.401  0.3190 -1.6377 -0.9460
20484SOL     OW73430   2.065   6.941   7.914  0.1162  0.0419  0.7946
20484SOL    HW173431   1.979   6.933   7.872  0.4661 -3.1598  0.4265
20484SOL    HW273432   2.066   6.873   7.981  2.0452  0.6642  1.4858
20485SOL     OW73433  12.965   3.613   5.769  0.0569  0.2707 -1.0498
20485SOL    HW173434  12.882   3.660   5.760 -1.0099 -1.5746 -1.4173
20485SOL    HW273435  12.966   3.583   5.860  1.4434  2.1816 -0.3769
20486SOL     OW73436  10.931   3.703   2.117  0.0754  0.1396 -0.4893
20486SOL    HW173437  10.980   3.632   2.160 -0.0214 -0.3881 -1.2355
20486SOL    HW273438  10.999   3.758   2.078  0.1186 -1.3423 -2.7242
20487SOL     OW73439  13.635  10.817   1.454 -0.2836  0.5736  0.1579
20487SOL    HW173440  13.642  10.877   1.528 -0.6374  0.2872  0.4231
20487SOL    HW273441  13.554  10.843   1.410 -1.9752 -1.4735  1.8632
20488SOL     OW73442  13.229   8.980   8.181  0.4183  0.2335  0.0342
20488SOL    HW173443  13.238   8.895   8.136  0.6177  1.6967 -2.9486
20488SOL    HW273444  13.294   9.036   8.139  0.6590  1.7625  2.3213
20489SOL     OW73445   0.441   5.447   4.374  0.2507  0.2616 -0.0430
20489SOL    HW173446   0.416   5.516   4.434 -0.4997  0.0087 -0.0587
20489SOL    HW273447   0.514   5.483   4.324  0.3057  0.7874  0.4158
20490SOL     OW73448   8.689   3.880  10.423 -0.1889  0.6206 -0.0848
20490SOL    HW173449   8.691   3.813  10.492  0.0347  0.5995 -0.1122
20490SOL    HW273450   8.598   3.879  10.392 -0.0310 -0.1345 -0.5408
20491SOL     OW73451  11.724  11.995   7.565  0.1982  0.3305  0.0228
20491SOL    HW173452  11.811  12.011   7.528 -0.0527  1.6051 -0.0462
20491SOL    HW273453  11.705  11.904   7.540  0.2028  0.9933 -2.6914
20492SOL     OW73454   5.252  13.220   0.641 -0.4404  0.1296  0.1071
20492SOL    HW173455   5.165  13.193   0.611 -0.5661  0.3571  0.2654
20492SOL    HW273456   5.256  13.314   0.621  0.7497 -0.3537 -2.3434
20493SOL     OW73457   8.679  13.952   2.807  0.0397  0.3074  0.0093
20493SOL    HW173458   8.636  14.003   2.876  0.5232  0.6492  0.0667
20493SOL    HW273459   8.609  13.904   2.764 -0.4372  1.1400 -0.1396
20494SOL     OW73460   2.674   1.113  11.303  0.2193 -0.1226  0.4749
20494SOL    HW173461   2.723   1.085  11.226  1.4690 -1.5802  1.7276
20494SOL    HW273462   2.633   1.033  11.336 -0.3659  0.4859  1.2662
20495SOL     OW73463   0.254  11.293   6.671  0.4687 -0.6262 -0.1462
20495SOL    HW173464   0.285  11.373   6.713  1.6390 -0.2185 -1.7036
20495SOL    HW273465   0.199  11.323   6.599 -0.4983 -1.2916  0.2838
20496SOL     OW73466   9.275  10.539   4.321 -0.6362 -0.2894  0.2397
20496SOL    HW173467   9.347  10.578   4.370 -0.1790 -0.4968 -0.2648
20496SOL    HW273468   9.317  10.481   4.257 -1.2949 -1.7783  1.0915
20497SOL     OW73469   7.444   4.461   4.528  0.4110 -0.0571  0.0427
20497SOL    HW173470   7.503   4.524   4.571 -1.7760  2.0353  0.2100
20497SOL    HW273471   7.405   4.412   4.600 -0.5289  0.9299  0.2403
20498SOL     OW73472  11.800   9.705   3.594  0.5247  0.4515  0.1726
20498SOL    HW173473  11.818   9.639   3.527  0.2679 -0.3358  0.8628
20498SOL    HW273474  11.797   9.787   3.546  1.2433  0.0185 -0.6507
20499SOL     OW73475   6.050   7.685   7.344 -0.6074  0.2877 -0.2882
20499SOL    HW173476   6.072   7.777   7.359 -1.9790  0.5901  0.0334
20499SOL    HW273477   6.094   7.662   7.262  2.8532  0.1162  1.4242
20500SOL     OW73478  10.283   1.452   5.740 -0.1100 -0.0552 -0.2080
20500SOL    HW173479  10.372   1.482   5.721  0.4640 -1.6305 -0.1022
20500SOL    HW273480  10.278   1.448   5.836  0.4690 -2.0569 -0.2206
20501SOL     OW73481   2.077   6.694   0.121  0.5472  0.4803  0.1847
20501SOL    HW173482   2.145   6.737   0.068  0.1942  0.4593 -0.2942
20501SOL    HW273483   2.012   6.762   0.136 -0.6579 -0.1950 -1.6906
20502SOL     OW73484   3.538   6.005   8.566  0.1468 -0.2671 -0.5846
20502SOL    HW173485   3.631   5.997   8.545  0.6443  0.0623  1.3519
20502SOL    HW273486   3.515   5.922   8.607  0.8514  1.2573  3.2748
20503SOL     OW73487   9.977   6.492  11.036  1.0453 -0.3499  0.2280
20503SOL    HW173488  10.037   6.439  11.089  1.1508  1.1853  1.7185
20503SOL    HW273489   9.890   6.464  11.062  1.0129 -2.5886 -1.9433
20504SOL     OW73490  10.558  13.783   8.326 -0.5341  0.0248  0.6464
20504SOL    HW173491  10.577  13.801   8.418 -0.4558 -0.6735  0.7754
20504SOL    HW273492  10.464  13.762   8.325 -1.0455  2.1502  0.2215
20505SOL     OW73493  13.960   0.363  11.140 -0.2290 -0.1485  0.0080
20505SOL    HW173494  13.964   0.446  11.189  1.0106 -0.7141  0.8884
20505SOL    HW273495  13.866   0.341  11.139 -0.4309  0.6115  0.8705
20506SOL     OW73496   1.805  11.157   7.343  0.6283 -0.1436  0.5758
20506SOL    HW173497   1.723  11.193   7.310 -0.7781 -2.8735  0.7308
20506SOL    HW273498   1.852  11.127   7.265  0.3818 -0.6593  0.6220
20507SOL     OW73499   2.854   7.058  13.638 -0.5384 -0.3376 -0.4414
20507SOL    HW173500   2.848   7.037  13.545 -0.7413 -0.6792 -0.3521
20507SOL    HW273501   2.929   7.007  13.670 -2.2724 -2.5876  0.2186
20508SOL     OW73502   2.378   8.094   0.267 -0.0335 -0.3101 -0.1522
20508SOL    HW173503   2.330   8.166   0.307 -2.6794 -1.1391 -1.6373
20508SOL    HW273504   2.348   8.016   0.314  1.9942 -0.6440  0.7149
20509SOL     OW73505  13.787   6.046   6.570  0.0950  0.1686  0.2963
20509SOL    HW173506  13.814   6.115   6.509 -3.0141  1.7010  0.4513
20509SOL    HW273507  13.860   6.040   6.633  0.6806  3.0631  0.0445
20510SOL     OW73508   3.258   9.871  11.147 -0.9160 -0.2669  0.5544
20510SOL    HW173509   3.295   9.894  11.062  1.0309 -1.9010  0.8906
20510SOL    HW273510   3.216   9.786  11.133 -1.5017 -0.0527  0.9848
20511SOL     OW73511   1.504  13.288   1.119 -0.4681  0.2062  0.0008
20511SOL    HW173512   1.540  13.250   1.199 -1.1612  0.8021  0.6102
20511SOL    HW273513   1.409  13.289   1.134 -0.5221  1.3407 -0.3766
20512SOL     OW73514   0.096   7.403   1.596 -0.0307 -0.0032  0.0227
20512SOL    HW173515   0.112   7.479   1.540 -1.4418  0.5121  0.2854
20512SOL    HW273516   0.025   7.431   1.654  0.0099 -1.2387  0.6923
20513SOL     OW73517  11.184  12.342   3.909  0.3435 -0.1139  0.1667
20513SOL    HW173518  11.136  12.324   3.990 -1.0966  0.7727 -0.4386
20513SOL    HW273519  11.261  12.391   3.937  0.0869 -0.1811  1.0341
20514SOL     OW73520   1.480  10.203  11.922  0.2504 -0.1321 -0.3792
20514SOL    HW173521   1.574  10.207  11.904  0.8926 -0.7258  2.2901
20514SOL    HW273522   1.455  10.114  11.898  1.5799 -1.6919  3.2457
20515SOL     OW73523   9.906   0.156   7.919 -1.4793  0.3264 -0.3315
20515SOL    HW173524   9.943   0.073   7.947 -1.9786  0.4720  0.7864
20515SOL    HW273525   9.961   0.183   7.845 -0.1493 -0.0809  0.4801
20516SOL     OW73526   9.618   7.892  11.378 -0.2097 -0.4028  0.0606
20516SOL    HW173527   9.599   7.922  11.467  0.4823  0.4335 -0.0582
20516SOL    HW273528   9.532   7.869  11.342 -0.9353  2.3536 -0.1549
20517SOL     OW73529   5.617   9.206  12.387 -0.5957 -0.5437 -0.2423
20517SOL    HW173530   5.600   9.289  12.343 -1.5873 -0.7746 -0.3225
20517SOL    HW273531   5.709   9.209  12.411  0.0632 -0.5427 -2.6020
20518SOL     OW73532   6.172   5.652  10.995  0.2306 -0.2108  0.4491
20518SOL    HW173533   6.234   5.632  11.065  1.9605 -1.5012 -1.3239
20518SOL    HW273534   6.217   5.718  10.942 -0.2075 -0.6443 -0.4810
20519SOL     OW73535   3.873   3.628   5.434 -0.4953  0.1082 -0.0629
20519SOL    HW173536   3.846   3.668   5.517 -0.0228  1.6021 -0.5907
20519SOL    HW273537   3.942   3.566   5.458 -1.8996 -1.1665  0.8899
20520SOL     OW73538   6.241   5.482   0.367 -0.3082  0.5989 -0.3185
20520SOL    HW173539   6.175   5.536   0.410 -0.5229 -0.9401  1.3962
20520SOL    HW273540   6.298   5.453   0.438  0.1532 -0.9012 -1.2563
20521SOL     OW73541   8.163  11.112   3.854  0.1585  0.2919 -0.8331
20521SOL    HW173542   8.153  11.024   3.889  3.1233  0.1561 -0.0505
20521SOL    HW273543   8.174  11.168   3.931 -1.2520  1.3207 -1.3338
20522SOL     OW73544   4.219  10.584   6.874 -0.2417 -0.1261 -0.1084
20522SOL    HW173545   4.124  10.594   6.887 -0.0065 -0.1702  1.8556
20522SOL    HW273546   4.227  10.513   6.810 -1.5187 -0.6717  0.3025
20523SOL     OW73547  11.144   8.893  13.069 -0.5668 -0.0603  0.1587
20523SOL    HW173548  11.074   8.873  13.008  0.3375 -1.5065 -0.4698
20523SOL    HW273549  11.122   8.845  13.149 -0.3691 -0.4258 -0.0017
20524SOL     OW73550   7.440   7.193   8.925 -0.5528 -0.3002  0.3828
20524SOL    HW173551   7.412   7.285   8.924  0.6645  0.1033 -0.3977
20524SOL    HW273552   7.533   7.198   8.902 -0.8190 -1.8409 -1.2209
20525SOL     OW73553   2.624  10.289  11.192  0.8583  0.0473 -0.2529
20525SOL    HW173554   2.576  10.229  11.249  0.2450 -1.0809 -1.9016
20525SOL    HW273555   2.562  10.361  11.175  1.0843  0.4464  0.5631
20526SOL     OW73556   4.318  10.126   1.189  0.1694  0.3654 -0.0534
20526SOL    HW173557   4.408  10.138   1.156  0.7796 -0.8717  1.0395
20526SOL    HW273558   4.319  10.168   1.275 -0.4365  0.7221 -0.2204
20527SOL     OW73559   4.749   9.935   0.610  0.3519 -0.1533 -0.0261
20527SOL    HW173560   4.773   9.886   0.688  0.9854  0.3633  0.1116
20527SOL    HW273561   4.832   9.967   0.575 -0.0500  0.8462 -0.0956
20528SOL     OW73562  11.812  10.961  13.828 -0.1231 -0.2222 -0.7230
20528SOL    HW173563  11.804  11.051  13.859 -1.8718 -0.9414  1.1693
20528SOL    HW273564  11.841  10.912  13.906 -0.4882 -1.4909 -1.3561
20529SOL     OW73565   0.888   1.374   5.328  0.1691  0.3224  0.0441
20529SOL    HW173566   0.976   1.407   5.309  0.7942 -2.2512 -2.1914
20529SOL    HW273567   0.830   1.444   5.299  1.4339  1.4715  0.1706
20530SOL     OW73568   7.390   5.168  12.200 -0.3092  0.1175 -0.5273
20530SOL    HW173569   7.332   5.132  12.267  1.5234 -0.3602  0.8702
20530SOL    HW273570   7.393   5.101  12.132  0.6786 -1.1052  0.6559
20531SOL     OW73571  10.825   9.857   0.025 -0.2057 -0.6839  0.1696
20531SOL    HW173572  10.753   9.858   0.088  0.0688 -0.7507  0.4838
20531SOL    HW273573  10.870   9.941   0.038 -0.5408 -0.4051 -0.3941
20532SOL     OW73574  13.161   3.124   3.393  0.9632 -0.7792  0.1759
20532SOL    HW173575  13.227   3.186   3.363 -0.2739  0.9284  0.8343
20532SOL    HW273576  13.117   3.094   3.313  1.2793 -0.4748 -0.1140
20533SOL     OW73577   6.194   7.565   7.652 -0.2923  0.7011 -0.9039
20533SOL    HW173578   6.167   7.555   7.743 -2.7490  1.5756 -1.4646
20533SOL    HW273579   6.285   7.595   7.658 -0.9705  2.6503  1.3573
20534SOL     OW73580   0.335   2.641   2.223  0.5432 -0.6847 -0.0267
20534SOL    HW173581   0.300   2.552   2.227  2.0357 -1.3008 -0.1176
20534SOL    HW273582   0.290   2.681   2.148  0.4671 -1.6475 -0.5079
20535SOL     OW73583   9.557   6.390  13.550 -0.2318  0.3960  0.3723
20535SOL    HW173584   9.575   6.484  13.538 -2.0542  0.8302  0.6865
20535SOL    HW273585   9.479   6.388  13.606  0.1982 -1.3380  0.9535
20536SOL     OW73586   3.941   2.339   6.042  0.3881  0.5027 -0.2110
20536SOL    HW173587   3.845   2.337   6.049  0.2093  0.5759 -2.1224
20536SOL    HW273588   3.960   2.420   5.995  1.5056  1.0468  1.0971
20537SOL     OW73589   2.860  13.058   9.193  0.2632  0.2357  0.6703
20537SOL    HW173590   2.943  13.085   9.153  0.4055  0.2770  0.9891
20537SOL    HW273591   2.823  12.995   9.131  0.9694 -0.4727  0.9459
20538SOL     OW73592  10.272   2.599   6.389  0.2859  0.3155 -0.0403
20538SOL    HW173593  10.257   2.694   6.393  1.3782  0.5525 -0.9625
20538SOL    HW273594  10.190   2.563   6.355  1.1056  1.3923 -3.5263
20539SOL     OW73595   3.982   3.837  10.743 -0.3673 -0.2297  0.3203
20539SOL    HW173596   3.912   3.902  10.734 -0.7244 -0.6338  0.1166
20539SOL    HW273597   3.988   3.820  10.837  0.9909  1.4494  0.5708
20540SOL     OW73598  11.030  11.624   3.266  0.6641  0.6423  0.2880
20540SOL    HW173599  11.002  11.688   3.331  1.6362  0.2010  1.1655
20540SOL    HW273600  10.950  11.578   3.241  0.1085  1.5582  0.3414
20541SOL     OW73601   3.872   6.422   7.608 -0.0255 -0.0664  0.3783
20541SOL    HW173602   3.820   6.395   7.684 -0.8570 -0.0355 -0.1642
20541SOL    HW273603   3.815   6.483   7.561  0.5457  0.0453 -0.1811
20542SOL     OW73604   9.535   3.480   6.663  0.7642 -0.3393 -0.1241
20542SOL    HW173605   9.523   3.402   6.717 -0.4954 -0.4258 -0.5021
20542SOL    HW273606   9.522   3.554   6.723 -1.2030 -0.4306 -0.3822
20543SOL     OW73607   6.049  11.741   8.471 -0.4060 -0.6939 -0.0673
20543SOL    HW173608   6.075  11.826   8.435 -0.4724 -0.1773  1.0416
20543SOL    HW273609   5.960  11.728   8.440 -0.5879 -0.0919  0.1918
20544SOL     OW73610   8.625   0.198  11.569 -0.1011  0.2471  0.3570
20544SOL    HW173611   8.662   0.277  11.530  1.0405 -1.2838 -1.8871
20544SOL    HW273612   8.699   0.159  11.617 -0.3201 -0.0766  0.4289
20545SOL     OW73613   2.184   2.507  10.930 -0.5001 -0.2988  0.1010
20545SOL    HW173614   2.155   2.477  11.016 -1.1594  0.3338  0.1014
20545SOL    HW273615   2.201   2.600  10.942 -0.8070 -0.1637 -0.5097
20546SOL     OW73616  11.474   8.200   2.897  0.3241 -0.1642  0.6781
20546SOL    HW173617  11.433   8.125   2.940 -2.4583  2.1154  2.3671
20546SOL    HW273618  11.559   8.209   2.939  0.8568 -2.4538  0.2315
20547SOL     OW73619  10.463   3.266   5.872 -0.3395 -0.1377 -0.0755
20547SOL    HW173620  10.515   3.260   5.951  0.7180 -1.0548 -0.8145
20547SOL    HW273621  10.466   3.178   5.833 -0.3726  0.4183 -1.4093
20548SOL     OW73622   0.218   0.930   2.413 -0.1828  0.0458 -0.1976
20548SOL    HW173623   0.289   0.944   2.477  1.2945 -0.3220 -1.6808
20548SOL    HW273624   0.258   0.950   2.329 -1.2652 -2.1302 -1.3038
20549SOL     OW73625  11.998   6.519   0.160  0.3358 -0.1602 -0.3622
20549SOL    HW173626  12.090   6.517   0.188  0.2981 -1.7764 -0.2577
20549SOL    HW273627  11.954   6.457   0.218 -0.6171 -0.1844 -1.0952
20550SOL     OW73628   5.055   4.963  11.592  0.6112  0.0046 -0.4274
20550SOL    HW173629   5.076   4.913  11.671  0.0414  1.0754  0.4193
20550SOL    HW273630   5.091   5.050  11.608 -1.6570  0.9784 -0.2476
20551SOL     OW73631   8.337  11.845   3.218  0.0986 -0.3235  0.7381
20551SOL    HW173632   8.356  11.883   3.132  0.0661 -2.0168 -0.0672
20551SOL    HW273633   8.381  11.902   3.281  0.8742  0.4460 -0.4760
20552SOL     OW73634   3.229   6.797   6.980  0.0172 -0.2986  0.2037
20552SOL    HW173635   3.305   6.738   6.984  0.8456  0.7249  0.0489
20552SOL    HW273636   3.212   6.807   6.887  0.2920  0.2066  0.2040
20553SOL     OW73637   7.801   3.587  11.025  0.5190 -0.4917 -0.0417
20553SOL    HW173638   7.788   3.598  11.119 -0.5852  0.4167 -0.2760
20553SOL    HW273639   7.890   3.618  11.010  0.2710  0.5480  0.5402
20554SOL     OW73640   5.814   0.246   9.766  0.4672 -0.3953  0.2897
20554SOL    HW173641   5.816   0.181   9.696 -0.0563 -1.3778  1.1727
20554SOL    HW273642   5.790   0.197   9.844  1.7319  0.5671  1.3153
20555SOL     OW73643  10.969  10.123  10.471  0.1463 -0.0170 -0.1944
20555SOL    HW173644  10.925  10.198  10.511 -2.4980  1.5497 -5.1956
20555SOL    HW273645  11.060  10.151  10.461  0.0835  0.8723  1.4429
20556SOL     OW73646   6.111   5.027   7.155 -0.0523  0.5336 -0.4142
20556SOL    HW173647   6.194   4.978   7.153  0.4767  1.3930 -0.1781
20556SOL    HW273648   6.110   5.068   7.241  0.7466  2.9630 -1.4801
20557SOL     OW73649   9.410   1.656  10.319 -0.4394  0.1962  0.3493
20557SOL    HW173650   9.397   1.660  10.414 -1.9102  0.8375  0.1548
20557SOL    HW273651   9.413   1.748  10.292  0.9231  0.0281 -0.1277
20558SOL     OW73652   3.717   1.623  11.549  0.1605 -0.6234  0.4491
20558SOL    HW173653   3.755   1.535  11.548  0.6466 -0.4426  1.6035
20558SOL    HW273654   3.767   1.670  11.615  0.5213  0.8117 -0.7888
20559SOL     OW73655   1.607  13.265   7.827  0.1560  0.0409 -0.0514
20559SOL    HW173656   1.566  13.275   7.741 -3.1777 -2.6942  0.9711
20559SOL    HW273657   1.674  13.198   7.814 -0.6052 -0.6529 -0.4954
20560SOL     OW73658   2.421  13.314   1.950 -0.0844  0.5150  0.5396
20560SOL    HW173659   2.515  13.318   1.933 -0.4072  0.6136 -1.4770
20560SOL    HW273660   2.404  13.222   1.972  0.3779  0.3278  0.1201
20561SOL     OW73661   1.905  10.037   7.057  0.2277  0.3647 -0.1104
20561SOL    HW173662   1.938  10.124   7.038  0.5814  0.4211  0.7312
20561SOL    HW273663   1.939  10.016   7.144  0.2252 -0.6480 -0.3358
20562SOL     OW73664   2.884   2.243  12.081 -0.3346  0.1975 -0.4973
20562SOL    HW173665   2.942   2.298  12.134  0.2129  0.1521 -1.0367
20562SOL    HW273666   2.803   2.294  12.073  0.4305  1.2994 -1.6505
20563SOL     OW73667   9.476  10.898   5.976  0.2502  0.3100  0.0341
20563SOL    HW173668   9.561  10.854   5.975  0.4341  0.6627 -1.1152
20563SOL    HW273669   9.476  10.948   6.058  1.5481  1.0264 -0.3671
20564SOL     OW73670   6.323  13.851   2.314  0.3068  0.2938  0.5345
20564SOL    HW173671   6.356  13.912   2.380 -0.3544 -0.3462  1.4843
20564SOL    HW273672   6.375  13.771   2.325  0.9920  0.5688 -0.5267
20565SOL     OW73673   9.847  10.183   7.263 -0.0242  0.0743  0.0267
20565SOL    HW173674   9.778  10.204   7.325 -0.3760  1.1168 -0.6971
20565SOL    HW273675   9.927  10.217   7.304  0.0981 -1.1629  0.8782
20566SOL     OW73676   2.516   0.375   5.213 -0.1067 -0.3157  0.3551
20566SOL    HW173677   2.529   0.323   5.133 -0.5036 -0.3965  0.3425
20566SOL    HW273678   2.429   0.413   5.203 -0.5472 -1.0832  1.1806
20567SOL     OW73679  12.920   8.762   9.033  0.1116  0.5209  0.8002
20567SOL    HW173680  12.847   8.822   9.016  0.2436  0.8087  1.2122
20567SOL    HW273681  12.882   8.694   9.089 -0.4332 -0.6716 -0.9540
20568SOL     OW73682   8.722   8.978  10.467 -0.3190  0.1617  0.1234
20568SOL    HW173683   8.752   8.995  10.556 -0.4927 -0.0260  0.2200
20568SOL    HW273684   8.694   8.886  10.469  2.6094 -0.8625 -0.9275
20569SOL     OW73685   3.887  10.510  11.883 -0.2812  0.5956 -0.3177
20569SOL    HW173686   3.964  10.454  11.886 -1.8867 -1.7368  0.9126
20569SOL    HW273687   3.869  10.521  11.790  0.3333 -0.6296 -0.6040
20570SOL     OW73688   3.423   5.633  10.787 -0.2851 -0.1842 -0.1640
20570SOL    HW173689   3.454   5.721  10.809 -1.5588  0.3214 -0.2576
20570SOL    HW273690   3.489   5.574  10.822  0.4364  0.8067  0.1803
20571SOL     OW73691   4.699   3.145   8.225  0.5418 -0.2080 -0.0673
20571SOL    HW173692   4.628   3.206   8.206 -1.4556 -2.2571  0.4046
20571SOL    HW273693   4.689   3.124   8.318  1.9797 -0.3287  0.0952
20572SOL     OW73694   7.382  12.912  13.763 -0.1105 -0.1589  0.4088
20572SOL    HW173695   7.406  12.819  13.763  1.5904  0.2376  0.1117
20572SOL    HW273696   7.338  12.925  13.847  0.7227 -0.9885  1.0020
20573SOL     OW73697   3.128   6.628  13.135 -0.2779 -0.1383  0.1218
20573SOL    HW173698   3.146   6.568  13.208 -1.8963 -0.3436  0.3816
20573SOL    HW273699   3.047   6.595  13.096 -0.4529  1.0820 -0.5922
20574SOL     OW73700  11.985   9.631   1.130  0.3872  0.0634 -0.3320
20574SOL    HW173701  11.959   9.575   1.056 -0.4815 -1.4361  1.0504
20574SOL    HW273702  12.071   9.597   1.155  0.3566  0.1004 -0.1812
20575SOL     OW73703   1.987  10.239  13.648  0.1073  0.0859 -0.2494
20575SOL    HW173704   1.955  10.283  13.569  1.4976  2.5893  0.4673
20575SOL    HW273705   1.907  10.218  13.697 -0.7161  2.9358 -0.1322
20576SOL     OW73706   4.940   3.168   1.766  0.2138  0.4803 -0.3126
20576SOL    HW173707   4.860   3.123   1.738  0.0854  0.0788  0.6267
20576SOL    HW273708   4.910   3.254   1.796  0.3891  1.0126 -1.6281
20577SOL     OW73709   9.298   9.437   0.146 -0.0478 -0.7833  0.1336
20577SOL    HW173710   9.380   9.424   0.195 -0.1707  0.1575  0.6210
20577SOL    HW273711   9.246   9.494   0.202 -1.1413 -1.5470 -0.0793
20578SOL     OW73712   9.221   0.062   6.300  0.5084 -0.3130 -0.4017
20578SOL    HW173713   9.222   0.118   6.223  1.6809  0.8144  0.3908
20578SOL    HW273714   9.276  -0.013   6.276  0.7847 -0.0142 -0.7028
20579SOL     OW73715  13.377   6.430   4.274 -0.2865 -0.3322 -0.4048
20579SOL    HW173716  13.386   6.402   4.183  0.9908 -0.4883 -0.2478
20579SOL    HW273717  13.460   6.475   4.293 -0.6715 -0.0271  0.5850
20580SOL     OW73718   4.059   3.358  10.530 -0.2897 -0.1466  0.0763
20580SOL    HW173719   4.064   3.274  10.577  0.0160  0.7707  1.7929
20580SOL    HW273720   4.131   3.354  10.467 -1.0937 -1.6754 -0.8105
20581SOL     OW73721   7.969   8.788  12.620  0.2897  0.6938  0.0757
20581SOL    HW173722   7.913   8.711  12.630  1.5309 -0.1862  0.5225
20581SOL    HW273723   7.910   8.862  12.628 -0.9630 -0.2167 -0.5405
20582SOL     OW73724   5.253   7.485   1.047  0.3191  0.2519 -0.0794
20582SOL    HW173725   5.264   7.400   1.004  0.0098  0.5610 -0.7908
20582SOL    HW273726   5.179   7.525   1.002  0.6834  1.0431  0.0111
20583SOL     OW73727   4.587   5.514  11.214  0.3618 -0.0167 -0.2005
20583SOL    HW173728   4.625   5.493  11.129  1.5956  2.4416 -0.3352
20583SOL    HW273729   4.522   5.581  11.195 -0.7765 -0.8541  0.6017
20584SOL     OW73730   0.840   0.177   6.981  0.0311  0.1960 -0.5522
20584SOL    HW173731   0.838   0.089   6.944  0.4119  0.2638 -0.7371
20584SOL    HW273732   0.927   0.210   6.959  0.6114 -0.0867  1.1765
20585SOL     OW73733   3.405   8.084   2.867 -0.6995  0.3757 -0.1418
20585SOL    HW173734   3.424   8.002   2.822  1.2915 -0.8706  2.6256
20585SOL    HW273735   3.364   8.140   2.801 -0.3882 -2.1550 -2.6488
20586SOL     OW73736   2.147   0.861   2.989 -0.3081 -0.0630  1.0198
20586SOL    HW173737   2.117   0.938   3.038  0.9601 -0.4610  2.5037
20586SOL    HW273738   2.180   0.802   3.056 -0.2307 -1.4494 -0.1970
20587SOL     OW73739   9.495  13.937   6.703 -0.4074 -0.1385 -0.9188
20587SOL    HW173740   9.414  13.907   6.661  0.6519 -2.5648 -1.4010
20587SOL    HW273741   9.497  14.032   6.686 -2.8130 -0.1145 -1.4091
20588SOL     OW73742   0.837  13.085   4.956  0.2087  0.0704  0.3665
20588SOL    HW173743   0.769  13.149   4.933  0.0223 -0.0803  0.5000
20588SOL    HW273744   0.788  13.007   4.982  0.4038  0.4100  1.8255
20589SOL     OW73745  12.104   1.108  11.666  0.1334 -0.0117  0.0694
20589SOL    HW173746  12.036   1.110  11.599  0.5039  1.9705 -0.3116
20589SOL    HW273747  12.063   1.145  11.744  0.0457 -1.2274  0.6199
20590SOL     OW73748  12.306  12.835   9.679 -0.2533  0.0896 -0.1905
20590SOL    HW173749  12.390  12.875   9.703  0.6830 -1.4624 -0.7371
20590SOL    HW273750  12.312  12.823   9.584 -1.3966  0.6037 -0.3395
20591SOL     OW73751   4.862  13.997   5.545 -0.0398 -0.4634  0.4507
20591SOL    HW173752   4.789  14.057   5.527  1.6822  1.3371 -1.1627
20591SOL    HW273753   4.822  13.920   5.583 -2.6326  0.9331  0.7483
20592SOL     OW73754  12.503   0.331  12.800 -0.2331  0.3574 -0.3857
20592SOL    HW173755  12.491   0.416  12.843 -2.0065  0.2485 -0.6008
20592SOL    HW273756  12.432   0.277  12.833  0.7080 -0.9701 -0.4867
20593SOL     OW73757   4.640  13.338   7.558  0.3803  0.1591 -0.9530
20593SOL    HW173758   4.651  13.433   7.553 -1.7923  0.4893 -0.4202
20593SOL    HW273759   4.585  13.324   7.635  3.1405 -1.8341  0.8508
20594SOL     OW73760   7.783  10.648  12.450  0.4808  0.0782  0.1757
20594SOL    HW173761   7.855  10.657  12.512  0.0095 -0.4349  0.8106
20594SOL    HW273762   7.739  10.567  12.476  0.6762 -0.5279 -1.2488
20595SOL     OW73763   6.561   5.847   6.861  0.3604 -0.2590  0.7128
20595SOL    HW173764   6.524   5.908   6.926  0.8925 -0.2127  0.9819
20595SOL    HW273765   6.580   5.768   6.911 -1.0011 -0.9212  0.2176
20596SOL     OW73766   2.103  12.876   4.662  0.7368  0.0321 -0.2012
20596SOL    HW173767   2.174  12.855   4.722  0.8239 -0.0046 -0.3170
20596SOL    HW273768   2.145  12.923   4.590  0.6312  0.0881 -0.2263
20597SOL     OW73769   1.326   8.823   2.833 -0.3703 -0.0575  0.1448
20597SOL    HW173770   1.271   8.898   2.855  1.1330  1.0956  0.1508
20597SOL    HW273771   1.324   8.768   2.912 -1.3792  0.0400  0.1905
20598SOL     OW73772  12.396   7.100   0.372 -0.2672  0.3273 -0.0047
20598SOL    HW173773  12.442   7.181   0.394 -0.1377 -0.1440  1.5589
20598SOL    HW273774  12.460   7.031   0.387 -0.2591 -0.0836 -1.6753
20599SOL     OW73775  12.308  11.856   4.472  0.3114  0.2707  0.4907
20599SOL    HW173776  12.237  11.850   4.409 -1.3918  1.8092  2.1320
20599SOL    HW273777  12.388  11.848   4.420 -1.0228  0.3981 -1.6762
20600SOL     OW73778  10.603   5.995   7.819  0.1074  0.1198  0.0853
20600SOL    HW173779  10.649   5.919   7.785  0.1789 -0.7881  2.0766
20600SOL    HW273780  10.511   5.968   7.819  0.1146  0.0826  0.6198
20601SOL     OW73781   1.433   4.529   9.883  0.6891  0.5725  0.3182
20601SOL    HW173782   1.353   4.493   9.922 -1.2910  2.0097 -2.1666
20601SOL    HW273783   1.457   4.467   9.815  0.4647  1.1947 -0.3320
20602SOL     OW73784   3.732   4.056   8.371  1.2260 -0.1955 -0.4789
20602SOL    HW173785   3.793   4.040   8.299 -0.1419 -0.3384 -1.6527
20602SOL    HW273786   3.645   4.050   8.330  0.4075 -0.5188  1.2353
20603SOL     OW73787  10.756   5.414  10.445 -0.2217 -0.1317 -0.0793
20603SOL    HW173788  10.676   5.368  10.471 -0.6786  0.7148  0.0485
20603SOL    HW273789  10.799   5.436  10.528  0.6438 -1.4095 -0.1588
20604SOL     OW73790   7.389   3.998   3.155 -0.0166 -0.5930 -0.4551
20604SOL    HW173791   7.326   3.997   3.083 -0.8469  0.8908  0.2189
20604SOL    HW273792   7.471   4.027   3.115 -0.5934  0.7204 -0.7443
20605SOL     OW73793   9.374   0.786   1.306 -0.4816  0.4758 -0.1366
20605SOL    HW173794   9.329   0.844   1.368  1.7755  1.7558  0.3886
20605SOL    HW273795   9.405   0.843   1.236  1.4538 -0.1014  0.1818
20606SOL     OW73796   6.479   3.157  13.620 -0.6649  0.5408  0.6681
20606SOL    HW173797   6.474   3.251  13.600  0.9203  0.5716  0.2852
20606SOL    HW273798   6.518   3.153  13.707  0.2074  0.2238  0.2702
20607SOL     OW73799   9.232   3.808  12.647 -0.4110  0.2724 -0.3284
20607SOL    HW173800   9.280   3.729  12.620 -0.4498  0.4417 -0.8976
20607SOL    HW273801   9.252   3.817  12.740  1.3289  0.8046 -0.7209
20608SOL     OW73802  13.677   1.172   7.307  0.3685 -0.5172 -0.0561
20608SOL    HW173803  13.738   1.217   7.249 -1.7085  1.3800 -0.8989
20608SOL    HW273804  13.614   1.130   7.248 -0.0100 -1.2003  0.8091
20609SOL     OW73805  13.135  10.095  10.183 -0.1497  0.0724  0.1613
20609SOL    HW173806  13.196  10.090  10.109 -0.2842  0.4503  0.0235
20609SOL    HW273807  13.048  10.098  10.143 -0.1822  1.2370  0.2924
20610SOL     OW73808   5.622   2.767   1.066  0.4752 -0.2367 -0.1297
20610SOL    HW173809   5.545   2.746   1.118  0.1552  0.0731 -0.4811
20610SOL    HW273810   5.596   2.750   0.975  0.7679  0.0219 -0.2624
20611SOL     OW73811   6.658  12.059   6.153  0.6886 -0.1227 -0.2774
20611SOL    HW173812   6.742  12.102   6.171 -0.0299  0.5499  1.7242
20611SOL    HW273813   6.597  12.131   6.141  0.4492 -0.6018 -2.3102
20612SOL     OW73814  10.654   7.461   8.398 -0.0716 -0.0722 -0.1278
20612SOL    HW173815  10.682   7.424   8.482 -1.3071 -1.0418 -0.1188
20612SOL    HW273816  10.724   7.438   8.337  1.1424  1.1785  0.7268
20613SOL     OW73817   1.937  11.300   4.341 -0.0707 -0.2445 -0.1858
20613SOL    HW173818   1.930  11.298   4.436  0.7501 -0.2552 -0.1185
20613SOL    HW273819   2.001  11.232   4.320 -0.6441 -0.6183 -0.7929
20614SOL     OW73820   7.188   4.772  13.480  0.1422 -0.4039 -0.2961
20614SOL    HW173821   7.114   4.757  13.540  0.4601 -0.0912  0.1895
20614SOL    HW273822   7.259   4.802  13.538  0.3944  0.0970 -0.8564
20615SOL     OW73823   1.921   7.728  12.506 -0.2558 -0.3143 -0.2538
20615SOL    HW173824   1.942   7.661  12.440  0.3955 -1.0919  0.7270
20615SOL    HW273825   1.989   7.719  12.572 -0.9014  0.4592  0.5345
20616SOL     OW73826   1.380   3.604   6.794  0.0936 -0.0288 -0.0821
20616SOL    HW173827   1.411   3.518   6.764 -0.3875 -0.0631 -0.4811
20616SOL    HW273828   1.296   3.587   6.835 -0.6857  0.4307 -1.4160
20617SOL     OW73829   4.013   4.929   7.987  0.0244 -0.4027 -0.2417
20617SOL    HW173830   3.958   4.955   7.913 -1.5516 -0.0559  1.0041
20617SOL    HW273831   4.101   4.959   7.963 -0.6973  0.9550 -1.3538
20618SOL     OW73832  10.114   9.585  13.929 -0.4390 -0.4435 -1.0250
20618SOL    HW173833  10.071   9.500  13.933 -1.0197 -0.1164  1.0104
20618SOL    HW273834  10.102   9.622  14.017 -0.5598  1.9269 -1.9728
20619SOL     OW73835   5.727   0.815   4.998 -0.3049  0.1872 -0.8399
20619SOL    HW173836   5.797   0.751   5.012 -0.6864 -0.0978 -0.1824
20619SOL    HW273837   5.738   0.843   4.908 -0.5630 -1.3464 -1.3857
20620SOL     OW73838   4.259   8.781  11.573 -0.2634 -0.1029 -0.1292
20620SOL    HW173839   4.331   8.744  11.521  0.1838  1.8478 -0.9924
20620SOL    HW273840   4.275   8.749  11.661 -0.5512 -2.8053 -0.9777
20621SOL     OW73841   5.905   0.118   2.509 -0.5872  0.0381  0.2580
20621SOL    HW173842   5.997   0.131   2.487 -0.3115 -2.3769 -0.2108
20621SOL    HW273843   5.858   0.134   2.427 -0.4125 -0.3550  0.0784
20622SOL     OW73844   3.890   0.989   8.335 -0.0561  0.3128 -0.4627
20622SOL    HW173845   3.877   0.912   8.390  0.8284 -1.2825 -2.3504
20622SOL    HW273846   3.963   0.965   8.278  0.4986  2.7265 -0.8586
20623SOL     OW73847   3.445   8.233   4.246 -0.6014 -0.0949 -0.6216
20623SOL    HW173848   3.433   8.314   4.197  0.4512  1.1928  1.1623
20623SOL    HW273849   3.356   8.201   4.261 -1.0894  1.2709 -0.4870
20624SOL     OW73850   3.810   2.681   9.473 -0.0739  0.3157  0.3411
20624SOL    HW173851   3.790   2.672   9.380  1.8112 -2.1124  0.0471
20624SOL    HW273852   3.762   2.610   9.515 -1.1876  1.6064  1.3328
20625SOL     OW73853   8.571  11.705   4.231 -0.4541  0.0424 -0.7106
20625SOL    HW173854   8.610  11.617   4.236  0.8849  0.5880 -1.2484
20625SOL    HW273855   8.505  11.705   4.300  2.6642  0.1397  2.5521
20626SOL     OW73856  10.026  11.043   6.198  0.2291  0.0271  0.3834
20626SOL    HW173857  10.036  11.079   6.109 -1.2599  1.7608  0.8452
20626SOL    HW273858   9.934  11.059   6.219  0.6172 -0.1526  2.3407
20627SOL     OW73859   4.121   0.022  11.390  0.5413  0.1820 -0.5109
20627SOL    HW173860   4.185  -0.049  11.381 -1.3491 -1.5213 -1.3003
20627SOL    HW273861   4.066   0.014  11.312 -2.6596 -0.6187  1.6286
20628SOL     OW73862   9.137  13.037   3.478 -0.5807  0.0904 -0.3195
20628SOL    HW173863   9.165  12.955   3.519  1.6162  1.0474  0.2633
20628SOL    HW273864   9.049  13.052   3.511 -0.9542 -1.9161 -0.2914
20629SOL     OW73865   9.897   7.676  11.187  0.2394  0.1762 -0.2371
20629SOL    HW173866   9.981   7.721  11.197  0.1862  0.2884 -0.3071
20629SOL    HW273867   9.895   7.649  11.095  0.5744 -0.5594 -0.0374
20630SOL     OW73868   3.546   5.148  10.147 -0.0931 -0.9329  0.0713
20630SOL    HW173869   3.631   5.117  10.176 -0.3049 -2.5902 -0.9418
20630SOL    HW273870   3.531   5.104  10.064 -1.0288  0.9659 -0.8449
20631SOL     OW73871   8.529   1.013   6.500 -0.5766  0.1708  0.5814
20631SOL    HW173872   8.520   0.953   6.425 -0.4322  1.6928 -0.7121
20631SOL    HW273873   8.514   0.958   6.577 -1.7506 -1.2621 -0.6079
20632SOL     OW73874  10.192   6.685   9.672 -0.4744 -0.1428  0.5992
20632SOL    HW173875  10.115   6.736   9.697 -1.6548  0.5433 -3.6144
20632SOL    HW273876  10.250   6.748   9.631 -0.2597 -1.4748 -1.2991
20633SOL     OW73877   5.697   2.467   0.465 -0.3679 -0.2912  0.0607
20633SOL    HW173878   5.674   2.429   0.379  0.9290 -0.2893 -0.2979
20633SOL    HW273879   5.695   2.392   0.525 -1.5639 -0.2464  0.1107
20634SOL     OW73880   6.316  10.640  11.288  0.3654  0.3010 -0.1140
20634SOL    HW173881   6.378  10.651  11.216 -0.1460 -0.6570 -0.7235
20634SOL    HW273882   6.367  10.654  11.367  1.4871 -0.9913 -0.5782
20635SOL     OW73883   0.858  11.456   7.475  0.0436 -0.1830 -0.0787
20635SOL    HW173884   0.850  11.550   7.491 -0.0757  0.0903 -1.5953
20635SOL    HW273885   0.786  11.435   7.417 -2.6014 -2.1350  3.4967
20636SOL     OW73886   9.879  12.017   4.567 -0.3975  0.1558 -0.5036
20636SOL    HW173887   9.791  11.995   4.537 -0.3652  2.7426 -2.8134
20636SOL    HW273888   9.937  11.966   4.510 -0.4034  1.2121 -1.4857
20637SOL     OW73889   9.030   9.586   8.151 -0.7478  0.1051  0.8665
20637SOL    HW173890   9.049   9.507   8.100  1.4911  0.0849  1.6218
20637SOL    HW273891   8.958   9.560   8.209  1.2968 -2.1622  2.6040
20638SOL     OW73892   1.845   1.892   0.182  0.0422  0.2601 -0.0609
20638SOL    HW173893   1.803   1.937   0.109 -1.8481 -1.6713 -0.2659
20638SOL    HW273894   1.783   1.902   0.255  0.1310 -0.9800  0.2024
20639SOL     OW73895   3.444   8.378   8.885  0.4755  0.3852  0.0502
20639SOL    HW173896   3.394   8.360   8.806 -0.7441  1.3441  0.5629
20639SOL    HW273897   3.473   8.469   8.875  2.3753 -0.2186 -0.3455
20640SOL     OW73898   8.895   6.033  12.861  0.0872  0.1281 -0.3284
20640SOL    HW173899   8.946   5.992  12.791  1.5313 -0.6134  1.0759
20640SOL    HW273900   8.882   6.123  12.832  0.6204 -0.1604 -1.5448
20641SOL     OW73901   9.773   8.388  11.264 -0.1706 -0.4895 -0.0102
20641SOL    HW173902   9.776   8.317  11.329 -1.6766  0.4426  1.1336
20641SOL    HW273903   9.833   8.454  11.298  1.2179 -1.1423 -1.0671
20642SOL     OW73904   1.280  13.733  13.724 -0.0821 -0.3856  0.2415
20642SOL    HW173905   1.206  13.757  13.669 -1.5509  0.2704  2.3806
20642SOL    HW273906   1.326  13.815  13.740  0.2281 -0.5412  0.1581
20643SOL     OW73907  12.650   5.334   4.994 -0.0168 -0.5750  0.4767
20643SOL    HW173908  12.638   5.428   4.983 -0.7708 -0.6028  0.9736
20643SOL    HW273909  12.625   5.296   4.910  0.7099 -0.3055  0.1326
20644SOL     OW73910   7.519   8.297   7.260 -0.1283 -0.0865  0.2912
20644SOL    HW173911   7.548   8.308   7.169 -1.3315  0.3899 -0.0610
20644SOL    HW273912   7.539   8.206   7.281 -2.9548 -1.3331 -1.6710
20645SOL     OW73913   9.379  10.953  11.985  0.1739 -0.0714  0.0123
20645SOL    HW173914   9.473  10.941  11.997  0.0135 -2.1030 -0.4402
20645SOL    HW273915   9.371  11.030  11.929  1.5234  0.5723  0.6805
20646SOL     OW73916   8.869   9.766   2.170 -0.7691 -0.2089  0.2836
20646SOL    HW173917   8.801   9.704   2.194 -0.5700 -1.2709 -1.6709
20646SOL    HW273918   8.869   9.765   2.074 -0.1848  2.2102  0.1957
20647SOL     OW73919   7.746  11.085   9.143 -0.8210 -0.0670 -0.4237
20647SOL    HW173920   7.816  11.124   9.195 -1.3808  2.1862 -1.2763
20647SOL    HW273921   7.695  11.034   9.206  0.1002  0.3293  0.6822
20648SOL     OW73922  13.381  10.696   8.834 -0.0013  0.2407 -0.3461
20648SOL    HW173923  13.369  10.777   8.883 -0.4731  0.4378 -0.7719
20648SOL    HW273924  13.473  10.697   8.807  0.3593 -0.0347  0.7983
20649SOL     OW73925   3.627   8.496   4.407 -0.4329  0.1835  0.5039
20649SOL    HW173926   3.564   8.537   4.348 -0.3167 -0.1155  0.1699
20649SOL    HW273927   3.610   8.537   4.492 -2.1302 -1.0022  0.7917
20650SOL     OW73928  11.570   8.033  11.914  0.1914  0.0811  0.0400
20650SOL    HW173929  11.642   8.050  11.854  0.5197  0.0321  0.4156
20650SOL    HW273930  11.605   8.057  12.000 -0.0633 -0.4589  0.2945
20651SOL     OW73931  13.412  12.968  10.026  0.2043  0.4835 -0.2654
20651SOL    HW173932  13.385  12.984   9.935 -0.5601 -1.2105 -0.3717
20651SOL    HW273933  13.338  12.921  10.065 -0.0678  2.3372  1.6654
20652SOL     OW73934   0.062  11.699   1.563  0.6253  0.0347  0.4898
20652SOL    HW173935   0.079  11.705   1.657 -0.0793  0.9427  0.5727
20652SOL    HW273936  -0.033  11.702   1.555  0.6172 -1.2863 -0.1862
20653SOL     OW73937   8.511   0.369   1.798 -0.2939 -0.2628 -0.4379
20653SOL    HW173938   8.461   0.296   1.835 -1.4614  0.8790  0.2861
20653SOL    HW273939   8.586   0.378   1.857 -1.4821  0.7274  1.0027
20654SOL     OW73940   1.030   9.219   9.388  0.4750 -0.4840 -0.0089
20654SOL    HW173941   1.004   9.171   9.467 -0.7578 -0.1126 -0.1609
20654SOL    HW273942   0.990   9.306   9.399  2.1519  0.3358 -0.0235
20655SOL     OW73943   4.627  13.848   3.520  0.5243 -0.0632  0.3556
20655SOL    HW173944   4.687  13.850   3.445 -0.3796 -1.0356 -0.4336
20655SOL    HW273945   4.684  13.843   3.596  1.4946  2.0980 -0.1691
20656SOL     OW73946   9.291   5.302   5.429 -0.2236 -0.7466  0.3036
20656SOL    HW173947   9.296   5.208   5.413 -0.1629 -0.5264 -1.0993
20656SOL    HW273948   9.273   5.340   5.343  1.2486  0.6475  0.5628
20657SOL     OW73949   0.952   2.661  10.915 -0.3602  0.7810 -0.4887
20657SOL    HW173950   0.861   2.632  10.923 -0.4363  0.9582 -0.7171
20657SOL    HW273951   1.003   2.589  10.951 -0.4871 -0.0897 -2.0104
20658SOL     OW73952  13.929   2.773   8.676  0.5976 -0.0367 -0.4895
20658SOL    HW173953  14.004   2.719   8.703  0.8431 -0.4432 -1.8969
20658SOL    HW273954  13.866   2.711   8.640  0.6082  0.5349 -1.5278
20659SOL     OW73955   1.168   1.666  13.225 -0.1227 -0.1232 -0.1561
20659SOL    HW173956   1.098   1.692  13.164 -0.0010 -1.2269 -0.7986
20659SOL    HW273957   1.237   1.630  13.168 -0.2523 -1.7455  0.6375
20660SOL     OW73958  12.116  13.234   9.328 -0.0552  0.2899 -0.2865
20660SOL    HW173959  12.199  13.282   9.330  0.1289 -0.0182 -0.3631
20660SOL    HW273960  12.126  13.174   9.254  0.4695 -1.1912  0.9504
20661SOL     OW73961   1.801   3.264   2.262  0.2154 -0.3743 -0.3832
20661SOL    HW173962   1.754   3.181   2.271 -0.7269  0.2328  0.4949
20661SOL    HW273963   1.848   3.275   2.345 -1.6417  1.1218  0.5556
20662SOL     OW73964   4.612   6.642  13.497 -0.1146 -0.4201  0.1322
20662SOL    HW173965   4.546   6.656  13.565 -0.3382 -0.7357 -0.0163
20662SOL    HW273966   4.619   6.727  13.453  1.1125  0.2180  1.4832
20663SOL     OW73967   0.759   7.039   4.293 -0.6230  0.2208 -0.6992
20663SOL    HW173968   0.790   6.976   4.227 -0.2113 -0.4204  0.0854
20663SOL    HW273969   0.790   7.124   4.261 -0.4357 -0.0769 -1.3340
20664SOL     OW73970   9.825   3.272  10.575  0.2792 -0.2183 -0.0223
20664SOL    HW173971   9.899   3.278  10.635  0.7151  1.1115 -0.6627
20664SOL    HW273972   9.862   3.241  10.493 -0.3231 -2.0708  0.3584
20665SOL     OW73973   4.357   6.428   3.031  0.1575 -0.1661  0.2146
20665SOL    HW173974   4.447   6.408   3.057 -0.2196  0.8034  2.5908
20665SOL    HW273975   4.342   6.517   3.065 -1.4095  0.0423 -0.9305
20666SOL     OW73976  12.707   0.860   0.638  0.0464  0.7769  0.3097
20666SOL    HW173977  12.701   0.832   0.729  2.0852  1.3255  0.6717
20666SOL    HW273978  12.710   0.955   0.642  0.4847  0.7972 -0.2876
20667SOL     OW73979   5.927   5.854   1.049  0.9109 -0.5182 -0.0284
20667SOL    HW173980   5.856   5.830   0.990  0.8150 -2.6939  0.8762
20667SOL    HW273981   5.919   5.949   1.059  0.0759 -0.2874 -2.3573
20668SOL     OW73982   9.218   4.370  10.640  0.0680  0.1433  0.6313
20668SOL    HW173983   9.313   4.359  10.647  0.3902  1.3598 -1.0037
20668SOL    HW273984   9.194   4.420  10.718  0.7400 -0.3302  1.1570
20669SOL     OW73985   0.755  10.797   9.489  0.3281  0.1751  0.0803
20669SOL    HW173986   0.763  10.815   9.395  2.5555 -0.6507  0.0445
20669SOL    HW273987   0.732  10.705   9.494  1.0930 -0.0088  0.3339
20670SOL     OW73988  11.643   1.391   6.796 -0.0739 -0.2989  0.4120
20670SOL    HW173989  11.657   1.469   6.741  1.6913 -0.3365  0.7394
20670SOL    HW273990  11.600   1.424   6.875  0.3027  0.2825  0.3777
20671SOL     OW73991  10.023   0.187   4.021 -0.6027 -0.0605 -0.0213
20671SOL    HW173992   9.973   0.240   4.083  1.2934 -0.0775  1.6242
20671SOL    HW273993  10.073   0.250   3.970 -1.4735 -0.0934 -0.9305
20672SOL     OW73994   2.214   9.403   3.512  1.0372  0.3938 -0.2935
20672SOL    HW173995   2.296   9.443   3.483  1.3532  0.9464  1.2747
20672SOL    HW273996   2.151   9.475   3.511  0.7129  0.1064 -0.9036
20673SOL     OW73997   4.462  10.063   0.431 -0.5114 -0.0720 -0.1133
20673SOL    HW173998   4.414   9.983   0.411  1.7330 -1.6366  0.4118
20673SOL    HW273999   4.470  10.107   0.346 -3.6678  0.8157 -0.0606
20674SOL     OW74000   8.000   6.805  13.168 -0.1625  0.0297  0.3745
20674SOL    HW174001   8.009   6.868  13.096 -2.7449 -1.1794 -1.1610
20674SOL    HW274002   8.068   6.740  13.152  0.0713  0.4252 -0.2613
20675SOL     OW74003   0.228   5.596   7.245 -0.0692 -0.6306 -0.5371
20675SOL    HW174004   0.152   5.647   7.273  0.7857  0.2127  0.3376
20675SOL    HW274005   0.302   5.656   7.255  0.8900 -1.8491 -0.0356
20676SOL     OW74006   6.466  12.797   0.710 -0.1123  0.2647  0.1478
20676SOL    HW174007   6.540  12.827   0.657 -0.2962 -1.6502 -1.3030
20676SOL    HW274008   6.506  12.739   0.775 -0.2081  0.0718  0.0367
20677SOL     OW74009   4.605  12.889   8.206 -0.7111  0.0663 -0.3576
20677SOL    HW174010   4.545  12.814   8.201 -0.0383 -0.4782 -0.3436
20677SOL    HW274011   4.607  12.911   8.299 -1.3388  0.4645 -0.4305
20678SOL     OW74012  12.955  13.896   5.295  0.0426 -0.0166  0.4258
20678SOL    HW174013  12.880  13.878   5.352  0.6435  1.8732  1.9114
20678SOL    HW274014  12.980  13.986   5.315  2.1329 -0.2676 -0.7161
20679SOL     OW74015   2.997   2.055   8.983 -0.3935 -0.0599  0.3590
20679SOL    HW174016   3.026   2.146   8.985 -0.4083 -0.0606  1.5215
20679SOL    HW274017   2.921   2.053   9.042  1.1309 -1.2940  2.4234
20680SOL     OW74018   9.293  13.802   1.967 -0.0071 -0.3840  0.3362
20680SOL    HW174019   9.204  13.787   1.935 -0.0452 -1.3521  0.8448
20680SOL    HW274020   9.348  13.746   1.912  0.0842 -1.0113  1.0396
20681SOL     OW74021  11.035   2.571  11.202 -0.3522  0.3844  0.1825
20681SOL    HW174022  11.078   2.512  11.140 -0.3220 -1.4446  1.8649
20681SOL    HW274023  10.955   2.598  11.157  0.6235  0.7463 -1.4355
20682SOL     OW74024  11.486  10.713  10.391 -0.1848  0.1415 -0.2053
20682SOL    HW174025  11.579  10.708  10.415 -0.0827  0.1991 -0.5770
20682SOL    HW274026  11.447  10.633  10.427  0.6407 -1.5431 -2.7775
20683SOL     OW74027   1.462   5.867   2.869  0.4539 -0.1378 -0.2842
20683SOL    HW174028   1.473   5.962   2.860 -0.8743  0.0595 -0.0134
20683SOL    HW274029   1.371   5.850   2.843  0.3494 -1.1857  0.6794
20684SOL     OW74030  11.269  10.796  14.031  0.1158  0.3475 -0.3859
20684SOL    HW174031  11.312  10.869  13.986  1.4290 -1.3370 -2.0445
20684SOL    HW274032  11.184  10.788  13.988 -0.4528  1.4568  0.4714
20685SOL     OW74033   2.361  13.985  13.122  0.5512  0.0604  0.2660
20685SOL    HW174034   2.412  13.904  13.117  1.0390  0.4190 -0.8174
20685SOL    HW274035   2.274  13.957  13.151  0.8737 -0.7691  0.4690
20686SOL     OW74036   3.773   5.417   6.435 -1.1294 -0.3946  0.5158
20686SOL    HW174037   3.723   5.498   6.443 -1.1773 -0.3575 -0.1247
20686SOL    HW274038   3.717   5.359   6.384  0.6262  0.6705 -2.9437
20687SOL     OW74039   6.750   3.621   9.895 -0.2578  0.1473 -0.0104
20687SOL    HW174040   6.756   3.639   9.989 -0.0697 -0.7442  0.1539
20687SOL    HW274041   6.772   3.705   9.853  1.3682  0.1172  0.7128
20688SOL     OW74042   9.921   5.737  11.003 -0.0408 -0.6224  0.1896
20688SOL    HW174043  10.002   5.741  10.951 -0.9513  1.4314 -1.2012
20688SOL    HW274044   9.914   5.645  11.029  1.5010 -1.3481 -1.6904
20689SOL     OW74045   4.459  10.526   5.642  0.7980  0.0411 -0.3713
20689SOL    HW174046   4.379  10.531   5.590  0.8399 -0.1524 -0.4559
20689SOL    HW274047   4.430  10.542   5.732  0.5668 -0.6579 -0.3187
20690SOL     OW74048   5.190   5.778   3.615 -0.2749 -0.2751  0.2799
20690SOL    HW174049   5.160   5.738   3.534 -0.9949 -0.6369  0.7157
20690SOL    HW274050   5.220   5.704   3.669  1.5334  0.0654 -0.1646
20691SOL     OW74051  10.661  11.403   6.993  0.0487  0.1175  0.6263
20691SOL    HW174052  10.654  11.491   7.030 -0.5903  0.2707  0.1619
20691SOL    HW274053  10.660  11.416   6.898  1.4004 -0.2927  0.5371
20692SOL     OW74054  10.736   0.216   6.872 -0.1799  0.2617  0.1547
20692SOL    HW174055  10.715   0.131   6.909  1.4887 -0.3168 -0.1428
20692SOL    HW274056  10.674   0.276   6.913 -1.8664 -1.1734 -0.1591
20693SOL     OW74057   8.878   6.436   5.744  0.1415  0.1056 -0.0519
20693SOL    HW174058   8.859   6.394   5.828 -1.1802  0.4234 -0.1704
20693SOL    HW274059   8.908   6.365   5.688 -1.0031 -0.5067  0.0756
20694SOL     OW74060   8.906   5.762   9.222  0.1549 -0.3350  0.0972
20694SOL    HW174061   8.818   5.726   9.214 -0.4635  0.8676  1.1987
20694SOL    HW274062   8.956   5.694   9.267 -0.2000 -1.0128 -0.5129
20695SOL     OW74063   4.911  13.142   4.363  0.1586  0.2176  0.1390
20695SOL    HW174064   4.875  13.230   4.360  1.5529  0.9391  2.2472
20695SOL    HW274065   4.977  13.140   4.294  1.5325  1.5527  1.3609
20696SOL     OW74066  11.678  13.520  13.856  0.5656 -0.2714  0.1870
20696SOL    HW174067  11.694  13.478  13.771  0.8811  0.9292 -0.3748
20696SOL    HW274068  11.590  13.557  13.847  1.3706  1.6422 -0.4322
20697SOL     OW74069   8.717   0.946  11.999 -0.1478 -0.4941  0.1543
20697SOL    HW174070   8.710   1.040  11.982  0.9772 -0.4584 -0.1682
20697SOL    HW274071   8.626   0.914  11.995 -0.4748  0.4641 -0.3850
20698SOL     OW74072  12.818  11.309   0.172  0.0349  0.2331 -0.1587
20698SOL    HW174073  12.774  11.292   0.255 -0.2999  1.1063 -0.1411
20698SOL    HW274074  12.904  11.343   0.197  0.4489 -0.7766 -0.1866
20699SOL     OW74075  13.552  10.519  13.499  0.1431 -0.0245 -0.2014
20699SOL    HW174076  13.505  10.499  13.418 -0.9808  1.0268  0.1663
20699SOL    HW274077  13.539  10.613  13.511 -1.1504 -0.4441  2.0934
20700SOL     OW74078  12.906   3.440   5.211 -0.1647  0.4175  0.8943
20700SOL    HW174079  12.969   3.497   5.168  0.3584  0.0053  1.0969
20700SOL    HW274080  12.955   3.401   5.284 -0.8347  0.5836  1.4448
20701SOL     OW74081  13.705   5.736   0.107  0.0284 -0.4250 -0.9342
20701SOL    HW174082  13.625   5.716   0.058 -0.3479 -0.2990 -0.3807
20701SOL    HW274083  13.740   5.650   0.131 -0.7528 -0.4696  0.1042
20702SOL     OW74084   6.636   3.152   5.581  0.5297  0.3197  0.1711
20702SOL    HW174085   6.665   3.221   5.521 -0.0511 -0.8661 -1.5502
20702SOL    HW274086   6.713   3.096   5.591 -0.2505 -1.3759 -2.3091
20703SOL     OW74087   4.237  11.175   4.094 -0.3344 -0.0817  0.4902
20703SOL    HW174088   4.226  11.190   4.188 -1.1963 -0.1440  0.4102
20703SOL    HW274089   4.192  11.249   4.053 -1.2350 -0.8191  0.1189
20704SOL     OW74090  11.255  13.712  13.618  0.5870 -0.0278  0.1799
20704SOL    HW174091  11.203  13.775  13.569  2.3688  0.2942 -1.4247
20704SOL    HW274092  11.194  13.641  13.638 -0.1563 -0.5253 -3.1796
20705SOL     OW74093   3.733   0.625  13.536  0.0143  0.3623 -0.1170
20705SOL    HW174094   3.708   0.713  13.562 -0.0547  0.4748 -0.5597
20705SOL    HW274095   3.656   0.590  13.491 -0.3632 -0.3329  1.0194
20706SOL     OW74096  12.846   5.956  13.592 -0.1186  0.4803 -0.0165
20706SOL    HW174097  12.894   5.933  13.671  0.1801  0.1985 -0.2784
20706SOL    HW274098  12.795   6.033  13.617 -1.6888 -0.8605  1.0687
20707SOL     OW74099   2.516  10.111  11.400  0.1755  0.6292 -0.2133
20707SOL    HW174100   2.441  10.099  11.457 -0.7367 -1.2033 -1.6853
20707SOL    HW274101   2.589  10.130  11.459 -0.4860 -2.2243  1.7066
20708SOL     OW74102   2.307  11.365  12.192  0.1874  0.0124  0.7232
20708SOL    HW174103   2.227  11.344  12.240 -0.0085 -1.2827 -0.1021
20708SOL    HW274104   2.342  11.280  12.166  0.4946  0.6211 -1.0401
20709SOL     OW74105   1.377  12.661   8.078 -0.7937  0.4889  0.5231
20709SOL    HW174106   1.400  12.622   7.993  0.0668 -0.9510  1.3712
20709SOL    HW274107   1.462  12.671   8.122 -1.2918  0.5721  1.4708
20710SOL     OW74108   7.620   1.182   3.893 -0.2135 -0.5528 -0.4269
20710SOL    HW174109   7.634   1.152   3.804  0.3422 -1.0178 -0.1855
20710SOL    HW274110   7.645   1.274   3.892 -4.4012  0.8333 -1.8275
20711SOL     OW74111   5.212  11.346  10.267  0.0179 -0.4032  0.3785
20711SOL    HW174112   5.234  11.254  10.285  1.8518  0.1642  1.3324
20711SOL    HW274113   5.122  11.355  10.298  0.5712 -1.3475  2.4568
20712SOL     OW74114   9.006   7.439   0.477  0.5056  0.6379  0.4569
20712SOL    HW174115   9.062   7.468   0.405 -0.0589  1.8959  0.4946
20712SOL    HW274116   8.996   7.345   0.463  1.4693  0.6327 -0.3459
20713SOL     OW74117  13.430   0.721   1.371 -0.3731 -0.3112  0.1395
20713SOL    HW174118  13.442   0.629   1.394  1.6985  0.2972  1.7947
20713SOL    HW274119  13.473   0.730   1.286 -1.2738 -0.9817 -0.4168
20714SOL     OW74120   8.664   9.057  12.482 -0.5170 -0.0581 -0.1908
20714SOL    HW174121   8.579   9.090  12.510 -1.6808  1.1053 -4.3229
20714SOL    HW274122   8.685   9.108  12.404  2.1427 -2.8472 -1.5244
20715SOL     OW74123   5.050   7.505   0.074 -0.5144  0.3303 -0.5412
20715SOL    HW174124   5.076   7.495  -0.017  1.0209 -0.7226 -0.0414
20715SOL    HW274125   4.988   7.433   0.089 -2.5502  1.8567 -1.3062
20716SOL     OW74126  13.353   9.279   6.453 -0.0866 -0.2511 -0.0592
20716SOL    HW174127  13.260   9.266   6.466 -0.4941  1.0370 -1.3900
20716SOL    HW274128  13.384   9.317   6.536 -0.9964  0.4718 -0.0373
20717SOL     OW74129  10.177   9.454   3.542  0.2435 -0.7182  0.0764
20717SOL    HW174130  10.252   9.494   3.498  0.2147 -1.0657 -0.2932
20717SOL    HW274131  10.199   9.361   3.550  1.4287 -0.3035  3.2158
20718SOL     OW74132  11.896  12.515   7.730 -0.1273  0.2565  0.5390
20718SOL    HW174133  11.966  12.531   7.666  0.0279  0.4839  0.7647
20718SOL    HW274134  11.815  12.536   7.683 -0.1013 -0.6060  0.0705
20719SOL     OW74135   1.286   9.721   1.624  0.1266 -0.7312  0.3720
20719SOL    HW174136   1.214   9.664   1.653 -1.3416  0.4440 -0.7662
20719SOL    HW274137   1.346   9.724   1.698 -0.7293 -2.1985  1.1698
20720SOL     OW74138   3.781  13.773  13.896  0.2886  0.8200 -0.2348
20720SOL    HW174139   3.701  13.720  13.893  0.0518  1.0473  1.2310
20720SOL    HW274140   3.842  13.729  13.837 -0.5774  0.0726 -0.5967
20721SOL     OW74141   9.790   5.254  13.007 -0.0153 -0.0077  0.0705
20721SOL    HW174142   9.790   5.317  12.935  0.2283  2.2754  1.9453
20721SOL    HW274143   9.703   5.262  13.046  0.4261  0.0692  1.0598
20722SOL     OW74144   7.845   8.085   8.238 -0.1711 -0.1761  0.1924
20722SOL    HW174145   7.865   8.093   8.144  0.8614  1.4250  0.5020
20722SOL    HW274146   7.875   7.998   8.262  2.1853  0.4038 -0.4098
20723SOL     OW74147   8.986   4.900  12.881  0.2487  0.7451  0.5365
20723SOL    HW174148   8.898   4.864  12.881  0.7079 -0.4873  1.7440
20723SOL    HW274149   9.023   4.875  12.797  0.5912 -1.8409  1.3686
20724SOL     OW74150   6.937   8.309   1.013 -0.4742 -0.3602  0.5200
20724SOL    HW174151   6.951   8.226   1.060  1.2702  0.1650  0.9807
20724SOL    HW274152   6.850   8.337   1.041 -0.2725 -1.0340  1.9334
20725SOL     OW74153   9.051   7.750  11.990  0.1396  0.1130  0.1839
20725SOL    HW174154   8.968   7.793  11.974  0.2019 -0.1910 -1.0015
20725SOL    HW274155   9.035   7.694  12.066 -0.6046  0.3724  0.2216
20726SOL     OW74156   0.989  11.941   9.960 -0.0568 -0.1595  0.1398
20726SOL    HW174157   0.951  11.976  10.041 -0.7096 -0.4027 -0.0529
20726SOL    HW274158   0.962  11.849   9.959  1.0534 -0.4971  0.2903
20727SOL     OW74159   2.729  12.690   4.057 -0.0227  0.2084 -0.5197
20727SOL    HW174160   2.794  12.746   4.015 -1.0972  2.6620  0.8926
20727SOL    HW274161   2.664  12.750   4.092 -0.2784 -1.7461  2.8041
20728SOL     OW74162  11.679   9.611   2.445 -0.5605 -0.1180 -0.9751
20728SOL    HW174163  11.709   9.692   2.404 -1.0825 -0.4974 -2.1356
20728SOL    HW274164  11.613   9.576   2.386  0.3579 -1.9125 -1.0203
20729SOL     OW74165   1.761   1.315   3.170 -0.3123  0.1571  0.5762
20729SOL    HW174166   1.798   1.318   3.258  1.2541 -0.1392 -0.0371
20729SOL    HW274167   1.764   1.222   3.146  0.9593  0.4241 -0.4353
20730SOL     OW74168   2.762   8.911   6.543 -0.8527 -0.0984 -0.4266
20730SOL    HW174169   2.712   8.922   6.624  0.2834 -0.1792  0.3089
20730SOL    HW274170   2.708   8.951   6.476 -1.4093  0.8023  0.5291
20731SOL     OW74171   3.727   7.941   4.255 -0.5410  0.0429 -0.3433
20731SOL    HW174172   3.641   7.945   4.297 -1.0652  2.6318 -1.4922
20731SOL    HW274173   3.736   8.026   4.212  2.1372 -0.6015 -1.1851
20732SOL     OW74174   8.322  12.916   0.835  0.8176 -0.5611  0.4340
20732SOL    HW174175   8.337  12.903   0.929  0.0696 -0.5776  0.5610
20732SOL    HW274176   8.239  12.871   0.818  0.9345 -0.5306 -0.2298
20733SOL     OW74177  10.557   2.990  13.905  0.6115  0.0922  0.0108
20733SOL    HW174178  10.481   3.042  13.878  0.1103 -0.5306  0.2227
20733SOL    HW274179  10.527   2.942  13.982  1.2803 -0.0191  0.2051
20734SOL     OW74180  10.838   4.480   3.566  0.6056 -0.1690  0.2798
20734SOL    HW174181  10.840   4.450   3.657 -4.9226 -2.4405  0.0358
20734SOL    HW274182  10.756   4.529   3.558  0.8069 -0.1259 -3.4817
20735SOL     OW74183   4.200  13.783   0.258  0.3302 -0.5017  0.1876
20735SOL    HW174184   4.205  13.822   0.170 -0.8667  0.5465  0.5481
20735SOL    HW274185   4.163  13.696   0.243 -0.1871 -0.2005 -0.3322
20736SOL     OW74186  10.418  12.632   3.097 -0.3638  0.0756 -0.2883
20736SOL    HW174187  10.374  12.717   3.091  1.7426  1.3503  0.9400
20736SOL    HW274188  10.493  12.649   3.154  0.4232 -2.5102 -0.4664
20737SOL     OW74189   5.761   3.312  12.514  0.4382  0.5880 -0.1588
20737SOL    HW174190   5.847   3.307  12.473  0.4496  0.5697 -0.1329
20737SOL    HW274191   5.699   3.293  12.443  0.4825  0.0352 -0.0537
20738SOL     OW74192  11.275  10.017   5.939 -0.1668  0.3885  0.0297
20738SOL    HW174193  11.302   9.996   6.028 -0.7569  0.1477  0.1541
20738SOL    HW274194  11.230  10.101   5.947 -1.0481 -0.0843  0.1108
20739SOL     OW74195   8.609   6.407   7.809  0.4856 -0.2486  0.2065
20739SOL    HW174196   8.680   6.471   7.804  0.4497 -0.1000  1.2333
20739SOL    HW274197   8.646   6.334   7.859  0.2793 -0.6737 -0.2623
20740SOL     OW74198   4.772   8.672   0.491  0.0145 -0.4698 -0.2331
20740SOL    HW174199   4.854   8.632   0.522  0.2822 -0.6200 -1.1034
20740SOL    HW274200   4.727   8.602   0.444 -0.2197 -0.1551 -0.4816
20741SOL     OW74201  10.517   4.420   0.784 -0.2096 -0.7287  0.5377
20741SOL    HW174202  10.573   4.346   0.809 -1.3037 -0.9250  2.5973
20741SOL    HW274203  10.428   4.391   0.805 -1.0750 -0.1248 -1.9092
20742SOL     OW74204  12.382   0.477  11.165 -0.2913  0.3812 -0.3636
20742SOL    HW174205  12.464   0.504  11.205  0.7481  0.0101 -2.1535
20742SOL    HW274206  12.321   0.549  11.184  0.5142  0.7889  0.7374
20743SOL     OW74207   9.600   8.717   5.242 -1.0686 -0.7088 -0.1301
20743SOL    HW174208   9.629   8.652   5.178 -1.0601  0.1671 -1.0385
20743SOL    HW274209   9.525   8.760   5.200 -1.2080 -0.2746  0.5449
20744SOL     OW74210   1.600   5.208  13.715  0.1360 -0.3255 -0.0765
20744SOL    HW174211   1.614   5.216  13.621  0.0131 -0.4806 -0.1081
20744SOL    HW274212   1.550   5.287  13.738  1.5355  0.5274  0.1424
20745SOL     OW74213   8.336   9.626   3.323 -0.6935  0.0276  0.3266
20745SOL    HW174214   8.356   9.699   3.381  2.3872 -0.1052 -0.4268
20745SOL    HW274215   8.304   9.557   3.382  2.1860 -0.0659  1.9721
20746SOL     OW74216   6.888   6.877   5.087 -0.6213  0.5131 -0.3616
20746SOL    HW174217   6.868   6.796   5.135 -1.0196  0.8633  0.0820
20746SOL    HW274218   6.983   6.885   5.092 -0.5487 -0.0973 -0.6956
20747SOL     OW74219   1.256   7.891   1.065  0.3957 -0.0521  0.1523
20747SOL    HW174220   1.206   7.823   1.112 -1.8546  1.0254 -0.5211
20747SOL    HW274221   1.212   7.899   0.981  1.0143  1.7783 -0.0387
20748SOL     OW74222  13.891   4.154  11.002 -0.2280 -0.4897  0.2143
20748SOL    HW174223  13.968   4.210  11.006 -0.2080 -0.5866  1.5066
20748SOL    HW274224  13.819   4.213  10.980  0.1569 -0.3553 -0.7310
20749SOL     OW74225   9.364   7.569  13.882  0.6268  0.1273 -0.4931
20749SOL    HW174226   9.381   7.663  13.885 -1.1258  0.5408 -2.1017
20749SOL    HW274227   9.451   7.529  13.888  1.3592  1.7902  0.8315
20750SOL     OW74228  11.328   1.896   4.587 -0.1068 -0.0445 -0.0665
20750SOL    HW174229  11.371   1.841   4.652 -1.8764 -1.2245  0.1724
20750SOL    HW274230  11.400   1.933   4.535  1.1856 -2.3652 -0.0653
20751SOL     OW74231   3.397   7.939   9.208 -0.1888 -0.5064  0.2585
20751SOL    HW174232   3.421   8.020   9.162  1.4007 -1.3653 -0.4854
20751SOL    HW274233   3.328   7.900   9.154  1.4782 -1.3794 -1.3580
20752SOL     OW74234  13.650  13.332   4.388  0.2023  0.6538 -0.3745
20752SOL    HW174235  13.666  13.376   4.305  1.8733 -1.2796 -1.1478
20752SOL    HW274236  13.576  13.380   4.427  0.4061  2.5836 -2.2119
20753SOL     OW74237   5.010   4.918   1.356 -0.7944  0.1321 -0.0663
20753SOL    HW174238   4.943   4.909   1.425 -0.5463  2.9829  0.6903
20753SOL    HW274239   4.980   4.861   1.286 -3.7651  0.8497  0.4743
20754SOL     OW74240   5.072   5.076   5.962  0.1834  0.1761  0.0069
20754SOL    HW174241   5.078   5.025   6.042 -0.0097 -0.5611 -0.4440
20754SOL    HW274242   5.090   5.014   5.892  0.5908  0.8660 -0.5100
20755SOL     OW74243   3.680   2.858  12.323 -0.3550 -0.8778  0.4450
20755SOL    HW174244   3.766   2.895  12.342 -0.4035 -1.3291  1.6227
20755SOL    HW274245   3.654   2.814  12.404 -1.3024 -1.5245 -0.1857
20756SOL     OW74246  11.937  11.819   1.011  0.0721  0.4393 -0.0428
20756SOL    HW174247  11.919  11.778   0.926  0.8303 -1.8371  0.8465
20756SOL    HW274248  12.031  11.836   1.010 -0.2684  2.7762 -0.5760
20757SOL     OW74249  11.602   1.975  11.266 -0.1869  0.0928 -0.2337
20757SOL    HW174250  11.690   2.010  11.250  0.5729 -0.2414  2.6701
20757SOL    HW274251  11.612   1.880  11.256 -0.3464  0.0895 -0.3656
20758SOL     OW74252  13.594   2.273   9.554  0.5885 -0.2365  0.0964
20758SOL    HW174253  13.596   2.234   9.466  2.8923 -1.5995  0.6720
20758SOL    HW274254  13.600   2.198   9.613  0.5535  0.7601  1.3968
20759SOL     OW74255   7.924  13.503   8.729  0.3331 -0.0879  0.1042
20759SOL    HW174256   7.989  13.457   8.782  0.7948  0.0878 -0.3004
20759SOL    HW274257   7.969  13.520   8.646 -0.2163  0.0729 -0.1669
20760SOL     OW74258   6.214   2.138   8.087  0.1344 -0.4065  0.8396
20760SOL    HW174259   6.192   2.051   8.120 -1.2527 -0.4369 -0.0695
20760SOL    HW274260   6.267   2.177   8.156 -1.5664 -0.9344  2.5445
20761SOL     OW74261   3.406   6.081   0.958  0.2980 -0.1183 -0.3277
20761SOL    HW174262   3.500   6.081   0.979  0.0610  0.7653  0.8796
20761SOL    HW274263   3.374   5.998   0.994  0.6079 -0.4000 -0.6993
20762SOL     OW74264  13.540   8.621  13.329  0.5301  0.1683 -0.0710
20762SOL    HW174265  13.556   8.533  13.362 -0.8836 -0.1991 -0.3242
20762SOL    HW274266  13.540   8.611  13.234 -1.9078 -0.0213 -0.0989
20763SOL     OW74267   9.290   6.393   8.600  0.3789  0.2101  0.3484
20763SOL    HW174268   9.289   6.419   8.692  1.4365  0.3272  0.3415
20763SOL    HW274269   9.214   6.335   8.590 -0.3624  1.0502  1.0315
20764SOL     OW74270   4.070   1.953   4.679  0.4682 -0.3203 -0.1856
20764SOL    HW174271   4.081   2.022   4.744  0.1799  1.0105 -1.4841
20764SOL    HW274272   4.056   2.000   4.597  0.9698 -1.9450 -1.2420
20765SOL     OW74273   3.749   1.849  10.284 -0.5832  0.6911  0.0015
20765SOL    HW174274   3.724   1.856  10.376 -1.2847 -0.8162 -0.0328
20765SOL    HW274275   3.717   1.762  10.257 -0.5829  1.1780 -1.7152
20766SOL     OW74276  13.552   9.265  12.941 -0.4438  0.5469  0.3152
20766SOL    HW174277  13.618   9.325  12.906 -0.0059  0.0141  0.2015
20766SOL    HW274278  13.591   9.178  12.928 -1.3274  0.1994 -0.0926
20767SOL     OW74279   0.242  10.015   6.280  0.1708  0.1186  0.6043
20767SOL    HW174280   0.220  10.084   6.218  2.3906 -0.0971 -0.5372
20767SOL    HW274281   0.208   9.935   6.239 -0.4871  0.2627  0.8615
20768SOL     OW74282   3.563   2.049  13.712  0.4040 -0.3282  0.0381
20768SOL    HW174283   3.500   1.990  13.670 -1.5212  1.6073  0.0533
20768SOL    HW274284   3.631   1.991  13.744 -0.4387 -2.3515 -1.5880
20769SOL     OW74285   1.015   9.688   0.645  0.0968  0.3995  0.2069
20769SOL    HW174286   1.023   9.673   0.739 -0.4631  0.8019  0.3217
20769SOL    HW274287   1.040   9.604   0.605  1.6580  0.6362  0.6476
20770SOL     OW74288   3.996   9.764  11.135 -0.4094  0.2665  0.4818
20770SOL    HW174289   4.072   9.776  11.192  0.4858  1.7544 -0.9326
20770SOL    HW274290   4.026   9.793  11.049 -3.2952  3.5920  0.3620
20771SOL     OW74291   1.608   5.532  13.349  0.6086  0.0563 -0.5004
20771SOL    HW174292   1.595   5.484  13.268 -0.0527 -1.5655  0.5242
20771SOL    HW274293   1.686   5.494  13.388  1.0337  0.9533 -0.4338
20772SOL     OW74294  11.391  12.456   5.818 -0.1941 -0.2794 -0.9215
20772SOL    HW174295  11.337  12.454   5.897 -0.7786 -0.4447 -1.3242
20772SOL    HW274296  11.448  12.379   5.827  0.2572  0.1198 -0.3052
20773SOL     OW74297   5.910   3.481   1.560  0.0922  0.4414 -0.3901
20773SOL    HW174298   5.822   3.462   1.527  0.2015 -0.9860  0.0620
20773SOL    HW274299   5.901   3.478   1.655  0.9907 -1.8226 -0.3072
20774SOL     OW74300  11.037   0.079   3.596  0.4400 -0.1330 -0.1371
20774SOL    HW174301  11.112   0.134   3.575 -0.4667  1.5241  0.7694
20774SOL    HW274302  10.971   0.140   3.629 -1.2206 -1.5665 -0.6619
20775SOL     OW74303   5.492   4.281  13.343 -0.3602  0.2537  0.2549
20775SOL    HW174304   5.516   4.291  13.251  0.2378 -1.7122  0.1422
20775SOL    HW274305   5.419   4.342  13.356 -1.8279 -0.8344 -2.0795
20776SOL     OW74306   5.900   1.374   2.654  0.5615  0.1218 -0.6526
20776SOL    HW174307   5.841   1.299   2.660 -1.1962  1.5504  3.7519
20776SOL    HW274308   5.846   1.445   2.620 -0.0335  1.0879  2.0832
20777SOL     OW74309  10.061   2.786   5.001 -0.1674 -0.3940 -0.8983
20777SOL    HW174310  10.140   2.745   4.965  0.9925  1.4319 -0.5153
20777SOL    HW274311  10.075   2.787   5.095 -0.3215  0.5910 -0.8817
20778SOL     OW74312  11.614   3.786   3.293 -0.4415 -0.3330 -0.2698
20778SOL    HW174313  11.690   3.755   3.342 -0.8754 -1.8129 -0.4964
20778SOL    HW274314  11.614   3.881   3.306  0.8984 -0.4207  0.4979
20779SOL     OW74315  11.707   8.117   8.493 -0.0723  0.6152 -0.1747
20779SOL    HW174316  11.637   8.170   8.531  0.8389  1.6386  0.1201
20779SOL    HW274317  11.784   8.138   8.545  0.4267 -0.6695 -0.3476
20780SOL     OW74318  12.190   1.447   5.563  0.1076  0.2457  0.4974
20780SOL    HW174319  12.113   1.390   5.554  1.2220 -1.5665  1.7142
20780SOL    HW274320  12.154   1.535   5.563 -1.5508 -0.2377 -3.4669
20781SOL     OW74321  10.891   2.003   9.441 -0.4465 -0.2253 -0.5490
20781SOL    HW174322  10.852   2.010   9.528 -1.7704  0.9476 -1.2098
20781SOL    HW274323  10.955   1.932   9.450 -1.9365 -1.4769  0.8657
20782SOL     OW74324   2.754  12.922   2.736  0.1819  0.0425  0.3400
20782SOL    HW174325   2.827  12.860   2.729  0.5263  0.5289 -0.4584
20782SOL    HW274326   2.753  12.968   2.652 -1.7598 -0.7455 -0.1327
20783SOL     OW74327  12.326   4.544   8.284 -0.4345  1.1657 -0.0722
20783SOL    HW174328  12.413   4.522   8.250 -0.1146  0.8381  0.9282
20783SOL    HW274329  12.343   4.588   8.367 -1.2303  0.1973  0.6380
20784SOL     OW74330   2.706   4.274   3.566  0.0379  0.1482  0.0712
20784SOL    HW174331   2.770   4.231   3.623  0.6374  1.7894  0.6970
20784SOL    HW274332   2.703   4.364   3.597 -0.9292  0.6593 -1.3915
20785SOL     OW74333   7.371   8.780  10.284  0.1699 -0.2746 -0.2911
20785SOL    HW174334   7.337   8.734  10.361  2.1498 -2.1755 -0.4454
20785SOL    HW274335   7.438   8.839  10.318  1.8368 -1.9219 -0.5680
20786SOL     OW74336   6.035   8.914   5.954 -0.2673  0.3711 -0.5834
20786SOL    HW174337   6.044   8.820   5.972 -1.8753  0.5894  1.7817
20786SOL    HW274338   6.123   8.949   5.969 -0.0503 -0.5147  0.3583
20787SOL     OW74339  12.628  13.023   4.139  0.3212 -0.0727 -0.5665
20787SOL    HW174340  12.602  12.940   4.100 -1.6106  0.4787 -0.5968
20787SOL    HW274341  12.546  13.072   4.146  1.0889  1.0468  1.3271
20788SOL     OW74342   3.076  12.740   1.789 -0.2874 -0.2591  0.1802
20788SOL    HW174343   3.043  12.820   1.747  0.9770 -0.4595 -1.3163
20788SOL    HW274344   3.028  12.669   1.747  0.3130 -0.4067 -0.2742
20789SOL     OW74345   7.656   8.073   7.362 -0.1895 -0.2986  0.1432
20789SOL    HW174346   7.663   7.988   7.406 -0.8904  0.5614  2.0279
20789SOL    HW274347   7.735   8.120   7.387 -1.0721  0.5742  1.4106
20790SOL     OW74348   5.815  13.329  12.907 -0.5160  0.0500  0.2522
20790SOL    HW174349   5.755  13.270  12.953 -0.1304 -0.6835 -0.1663
20790SOL    HW274350   5.884  13.272  12.874  0.9757  1.0158  1.5971
20791SOL     OW74351   0.700   1.060   4.422 -0.1070 -0.3176  0.6489
20791SOL    HW174352   0.628   0.996   4.418 -0.0115 -0.4203  0.5643
20791SOL    HW274353   0.779   1.007   4.412 -0.0825 -0.0081 -1.1065
20792SOL     OW74354   0.198   4.276  13.589 -0.2817 -0.3041 -0.0807
20792SOL    HW174355   0.133   4.259  13.656 -1.7923 -2.0978 -1.8680
20792SOL    HW274356   0.231   4.189  13.565 -0.5225  0.1660 -2.3163
20793SOL     OW74357  13.411  10.048   2.441 -0.3687 -0.1759  0.3831
20793SOL    HW174358  13.392  10.074   2.351 -0.7691 -0.5778  0.3460
20793SOL    HW274359  13.346  10.094   2.493 -1.1186 -1.1167  0.3111
20794SOL     OW74360   9.267  12.800   4.344 -0.3763 -0.4948 -0.7240
20794SOL    HW174361   9.318  12.775   4.267  0.8155  0.1654 -0.1687
20794SOL    HW274362   9.323  12.861   4.391 -2.2082  1.2923 -0.7479
20795SOL     OW74363   7.121  11.938   6.794 -1.0576  0.0587 -0.2192
20795SOL    HW174364   7.091  11.874   6.858 -0.8798  2.2638  2.2566
20795SOL    HW274365   7.065  12.015   6.809 -0.8602  0.7566 -2.6249
20796SOL     OW74366   4.909  12.642   3.098 -0.2448  0.4830 -0.0622
20796SOL    HW174367   4.874  12.690   3.023  0.5475  1.8980  0.4251
20796SOL    HW274368   4.976  12.700   3.134 -0.0077 -0.5393  1.2262
20797SOL     OW74369  12.222   5.110   5.515  0.1980  0.1609 -0.1489
20797SOL    HW174370  12.286   5.095   5.585  0.9138 -0.1855 -0.8714
20797SOL    HW274371  12.273   5.108   5.434 -0.3023  2.4144 -0.5899
20798SOL     OW74372   7.269   6.088  12.317  0.1765  0.5567 -0.0867
20798SOL    HW174373   7.346   6.122  12.362 -0.0050  1.5967 -0.5328
20798SOL    HW274374   7.250   6.152  12.249 -1.3733  0.5859  0.3247
20799SOL     OW74375   9.205  10.883   7.151  0.5756 -0.1612 -0.2030
20799SOL    HW174376   9.166  10.815   7.207  1.1898  0.8974  1.5984
20799SOL    HW274377   9.132  10.941   7.129  0.3536 -0.5174 -0.4168
20800SOL     OW74378   2.584   7.143   3.177 -0.1239 -0.3274  0.1234
20800SOL    HW174379   2.491   7.161   3.170 -0.0811 -0.2859 -0.3679
20800SOL    HW274380   2.594   7.052   3.149  0.3041  0.4449 -2.4429
20801SOL     OW74381  11.434   6.033  10.682 -0.1499 -0.0844  0.2942
20801SOL    HW174382  11.406   5.941  10.687  2.2445 -0.8544  0.5882
20801SOL    HW274383  11.376   6.079  10.743  1.4028 -2.2013  3.6757
20802SOL     OW74384  13.300   5.865   0.331 -0.3538  0.4227  0.0757
20802SOL    HW174385  13.376   5.888   0.385 -0.6260 -1.8114  1.5316
20802SOL    HW274386  13.225   5.894   0.382 -0.5548  0.0920 -0.0296
20803SOL     OW74387  12.257   5.427   0.008  0.3312  0.2228 -0.4084
20803SOL    HW174388  12.209   5.390   0.082 -0.5507  1.4596 -0.3424
20803SOL    HW274389  12.305   5.352  -0.029 -1.9718 -1.1914 -0.7555
20804SOL     OW74390  13.341   9.713   7.983  0.0428  0.6159  0.1220
20804SOL    HW174391  13.256   9.688   8.020 -0.8830  2.5529 -0.5398
20804SOL    HW274392  13.320   9.751   7.898  1.3468  2.5847  0.5879
20805SOL     OW74393  10.362   9.583   7.422 -0.2986  0.0208  0.2595
20805SOL    HW174394  10.377   9.668   7.464 -1.9173  0.5058 -0.0945
20805SOL    HW274395  10.270   9.564   7.438 -0.0042 -1.6086  0.1933
20806SOL     OW74396   6.782   2.467   2.939 -0.4979 -0.2700  0.2421
20806SOL    HW174397   6.862   2.417   2.955  0.7623  0.7981 -2.1928
20806SOL    HW274398   6.732   2.460   3.020  1.9844 -1.1112  1.7916
20807SOL     OW74399  13.884   3.391  12.680 -0.2337 -1.2259 -0.4799
20807SOL    HW174400  13.838   3.323  12.729 -0.1157  1.0625  3.2328
20807SOL    HW274401  13.976   3.380  12.704 -0.2447  0.2974  0.4018
20808SOL     OW74402   2.034  12.556  13.640 -0.5206 -0.5340 -0.2977
20808SOL    HW174403   2.037  12.634  13.584  0.8560 -0.5302 -0.2710
20808SOL    HW274404   1.942  12.533  13.645 -1.0434  1.4670  0.2001
20809SOL     OW74405  12.436   3.232  12.977 -0.5522  0.4957 -0.0320
20809SOL    HW174406  12.371   3.302  12.967 -1.2860 -0.0287  0.8257
20809SOL    HW274407  12.517   3.269  12.943 -1.3806  1.0313 -1.5452
20810SOL     OW74408   9.177  12.850  10.309 -0.1874  0.6432 -0.2615
20810SOL    HW174409   9.108  12.880  10.369 -0.3242 -0.3448  0.0958
20810SOL    HW274410   9.155  12.891  10.225 -1.7634 -0.4028 -0.3992
20811SOL     OW74411  12.045  12.991   5.065 -0.1425  0.4460 -0.0512
20811SOL    HW174412  12.096  12.917   5.096 -1.6447 -0.4615  0.3814
20811SOL    HW274413  11.983  13.009   5.136  0.2287  2.1719 -0.1189
20812SOL     OW74414   5.919  13.425   1.066 -0.4848  0.6150  0.5561
20812SOL    HW174415   5.854  13.466   1.122 -0.9309  0.4104  0.1940
20812SOL    HW274416   5.885  13.437   0.977 -0.7820 -0.8087  0.4643
20813SOL     OW74417   1.497   5.725   9.825  0.1848  0.1560  0.1097
20813SOL    HW174418   1.475   5.691   9.738 -0.4302 -0.9843  0.6838
20813SOL    HW274419   1.582   5.686   9.845  0.0094 -0.1392  0.2929
20814SOL     OW74420  13.811   2.281   9.731  0.1859  0.2708 -0.0249
20814SOL    HW174421  13.884   2.343   9.726 -1.0349  1.7285 -0.6689
20814SOL    HW274422  13.786   2.267   9.640 -1.4312  1.1638  0.2560
20815SOL     OW74423   2.657  11.774  12.330 -0.0783 -0.4645 -0.4157
20815SOL    HW174424   2.621  11.798  12.416 -1.0865 -3.0025 -0.0332
20815SOL    HW274425   2.580  11.762  12.275  0.5683  1.3300 -1.8005
20816SOL     OW74426   0.294   3.986  13.163 -0.1667 -0.6875 -0.6333
20816SOL    HW174427   0.215   3.936  13.144 -1.6318  0.9215  0.7947
20816SOL    HW274428   0.363   3.920  13.173 -1.6324 -2.2632 -0.4820
20817SOL     OW74429  10.613   9.739   0.423 -0.0768  0.2067  0.1932
20817SOL    HW174430  10.518   9.726   0.423  0.0409 -0.7660 -0.6668
20817SOL    HW274431  10.649   9.651   0.418  0.9122  0.4938  1.8881
20818SOL     OW74432   8.080   5.471   0.001  0.0940  0.1412 -0.2832
20818SOL    HW174433   8.071   5.376   0.002 -0.2998  0.0700 -2.8395
20818SOL    HW274434   7.991   5.503   0.013  0.3759  0.2768  1.7791
20819SOL     OW74435   2.055   1.338   3.045 -0.7740  0.4800 -0.5573
20819SOL    HW174436   2.112   1.398   3.093  1.2148  0.8347 -3.1436
20819SOL    HW274437   1.975   1.389   3.031 -0.7063  1.0004  0.7487
20820SOL     OW74438  12.617   5.496   1.853 -0.3480  0.2126  0.1831
20820SOL    HW174439  12.635   5.449   1.771 -0.2150  0.3794  0.1166
20820SOL    HW274440  12.527   5.471   1.875 -0.2908 -0.0502  0.1314
20821SOL     OW74441   6.709   6.588  10.973 -0.2506  0.7830  0.0885
20821SOL    HW174442   6.646   6.515  10.966 -0.9716  1.2741  1.0931
20821SOL    HW274443   6.793   6.550  10.949 -0.5868 -0.4418  0.7467
20822SOL     OW74444   3.948   9.144   2.781  0.1751  0.1419 -0.0921
20822SOL    HW174445   3.968   9.051   2.768 -0.9821  0.2048 -2.8627
20822SOL    HW274446   3.858   9.146   2.811  0.4377  0.3624  0.7081
20823SOL     OW74447  10.106   8.591   6.190  0.5657 -0.2160  0.0069
20823SOL    HW174448  10.121   8.618   6.099  2.1668  0.7945  0.5140
20823SOL    HW274449  10.059   8.664   6.229 -0.1643 -0.6709 -0.0061
20824SOL     OW74450   4.857  10.254   9.095 -0.2225 -0.0394  0.2115
20824SOL    HW174451   4.840  10.324   9.157 -1.7594 -0.7573  0.6694
20824SOL    HW274452   4.909  10.190   9.144 -0.3615 -0.0279  0.3751
20825SOL     OW74453   7.832   1.096  13.281 -0.0090  0.1024  0.4862
20825SOL    HW174454   7.766   1.102  13.350  1.1558 -0.8670  1.7699
20825SOL    HW274455   7.906   1.051  13.323  0.5453 -1.0503 -1.5730
20826SOL     OW74456   5.030   6.348   8.669 -0.1516 -0.4609  0.0949
20826SOL    HW174457   5.072   6.434   8.673  0.7013 -0.8783  0.2552
20826SOL    HW274458   5.066   6.308   8.590 -0.7287 -0.5892 -0.1093
20827SOL     OW74459   0.943   2.144   4.959 -0.2186 -1.1778  0.6907
20827SOL    HW174460   0.882   2.083   4.918 -1.5113 -0.2015  1.0848
20827SOL    HW274461   0.898   2.174   5.038  0.3506  0.2982  0.4962
20828SOL     OW74462  11.910   8.115  12.838 -0.0268  0.7450 -0.1114
20828SOL    HW174463  11.842   8.089  12.901 -0.8991  1.0598 -0.8938
20828SOL    HW274464  11.861   8.145  12.762  0.9914  1.7281 -0.4048
20829SOL     OW74465   2.290   2.692   1.699  0.2690  0.3359 -0.4882
20829SOL    HW174466   2.216   2.742   1.734  0.5100  0.1168  0.3364
20829SOL    HW274467   2.252   2.607   1.677 -0.4102  1.1926 -2.9795
20830SOL     OW74468   4.249   6.027   2.926 -0.3117 -0.2555  0.1144
20830SOL    HW174469   4.234   6.087   2.999  1.3505  0.5500 -0.1729
20830SOL    HW274470   4.313   5.964   2.959 -0.0832 -0.3096 -0.4206
20831SOL     OW74471  12.805   7.433  10.611 -0.5358  0.1989 -0.4431
20831SOL    HW174472  12.735   7.368  10.609  0.1435 -0.5767  0.2514
20831SOL    HW274473  12.817   7.459  10.519 -0.1614 -1.3825 -0.8662
20832SOL     OW74474   9.161   5.135   2.130 -0.5480 -0.1506  0.3759
20832SOL    HW174475   9.116   5.177   2.203 -1.3833  0.2101 -0.3292
20832SOL    HW274476   9.110   5.056   2.112 -0.9999  0.3311 -0.5190
20833SOL     OW74477  13.911   1.471   8.871 -0.2620 -0.3969 -0.4250
20833SOL    HW174478  13.881   1.414   8.801  0.0232 -0.3449 -0.5889
20833SOL    HW274479  13.988   1.427   8.907 -0.6060 -0.6018  0.0895
20834SOL     OW74480   0.882   9.773   2.369  0.3060  0.5455  0.2109
20834SOL    HW174481   0.858   9.849   2.315 -0.1928  1.3887  1.5618
20834SOL    HW274482   0.919   9.812   2.449  1.8596 -0.6811  0.1221
20835SOL     OW74483   0.331  12.927   8.477 -0.0799  0.2833  0.5487
20835SOL    HW174484   0.407  12.896   8.526  1.0682  3.5952  1.1006
20835SOL    HW274485   0.351  13.018   8.457 -2.2986  0.2428 -2.5990
20836SOL     OW74486   7.578   8.921   9.388 -0.1063 -0.4902  0.2442
20836SOL    HW174487   7.562   9.011   9.361  1.2249  0.0774  1.2698
20836SOL    HW274488   7.633   8.885   9.318 -0.3445 -0.4178  0.0148
20837SOL     OW74489   3.438  11.900   8.504  0.7376 -0.5207  0.0202
20837SOL    HW174490   3.372  11.837   8.534 -1.5863  2.4456  1.7743
20837SOL    HW274491   3.498  11.909   8.579 -0.2577  0.8651  0.7054
20838SOL     OW74492   4.920   6.578   6.828  0.1697  0.1667  0.2554
20838SOL    HW174493   4.920   6.657   6.773 -1.8578  0.0587  0.0250
20838SOL    HW274494   4.891   6.508   6.770 -0.9160 -0.1666  1.1494
20839SOL     OW74495   8.107  12.846   3.642 -0.0982 -0.3431 -0.4158
20839SOL    HW174496   8.060  12.867   3.723  1.8229 -1.2320  1.0074
20839SOL    HW274497   8.184  12.902   3.644 -1.6888  2.2623 -3.5128
20840SOL     OW74498  11.818   0.711  11.684 -0.6490  0.0093  0.2531
20840SOL    HW174499  11.783   0.719  11.773 -1.8903  2.7267 -0.3626
20840SOL    HW274500  11.755   0.758  11.629  1.6930  1.2263 -1.5812
20841SOL     OW74501   8.423   4.730   3.952  0.3524 -0.1462  0.0678
20841SOL    HW174502   8.497   4.759   4.007 -0.0299  0.7156  0.1506
20841SOL    HW274503   8.457   4.655   3.903  1.3941  0.4406 -0.1342
20842SOL     OW74504  13.176   7.276   5.188  0.7827 -0.0682 -0.2487
20842SOL    HW174505  13.152   7.354   5.238  1.2538 -0.3606  0.4385
20842SOL    HW274506  13.270   7.268   5.198  1.1608  0.7818 -2.5308
20843SOL     OW74507   6.136   1.830   1.987 -0.0943 -0.2767 -0.5238
20843SOL    HW174508   6.127   1.919   1.951  0.4573  0.3705  0.8433
20843SOL    HW274509   6.144   1.774   1.910 -0.0670  0.9120 -1.4241
20844SOL     OW74510  10.351  13.753   6.358 -0.4850  0.6543  0.3280
20844SOL    HW174511  10.296  13.828   6.378 -0.9564  0.3511  0.1756
20844SOL    HW274512  10.309  13.711   6.283 -3.1033 -2.5655  3.2411
20845SOL     OW74513   0.077   0.001  10.613  0.0483  0.0184 -0.0603
20845SOL    HW174514   0.171   0.018  10.599  0.0160 -0.7289 -1.2415
20845SOL    HW274515   0.072  -0.026  10.705  1.3408 -2.1407 -0.5426
20846SOL     OW74516   9.078   8.321  12.431  0.8822  0.7501  0.0667
20846SOL    HW174517   9.080   8.413  12.456 -0.7857  1.3002 -1.5877
20846SOL    HW274518   9.016   8.317  12.358  0.4512 -1.7879  0.4807
20847SOL     OW74519  11.688   4.380   2.143 -0.2846 -0.7279  0.4864
20847SOL    HW174520  11.663   4.462   2.184  1.6745 -0.8399  2.0189
20847SOL    HW274521  11.748   4.405   2.073 -0.5811 -0.7957  0.2040
20848SOL     OW74522  12.683  13.929  14.006  0.1064  0.5997 -0.1868
20848SOL    HW174523  12.680  13.852  14.063 -1.5160  0.9162  0.1929
20848SOL    HW274524  12.777  13.948  13.996  0.4552  1.1826  3.2189
20849SOL     OW74525   9.199   8.191  10.344  0.4017 -0.1473 -0.6569
20849SOL    HW174526   9.156   8.261  10.296  0.9216  0.1879 -0.6343
20849SOL    HW274527   9.131   8.124  10.354 -0.0726  0.3129 -0.7528
20850SOL     OW74528   0.085  12.640  12.283 -0.1779 -0.0527 -0.2444
20850SOL    HW174529   0.077  12.686  12.200 -1.1100 -1.4204 -0.9565
20850SOL    HW274530  -0.004  12.612  12.304 -0.0417  0.6835  1.4767
20851SOL     OW74531   2.190   7.241   6.394 -0.2345 -0.0282 -0.3916
20851SOL    HW174532   2.234   7.158   6.372  1.2286  0.5611  0.1900
20851SOL    HW274533   2.110   7.214   6.439  0.3596 -1.1247  0.0514
20852SOL     OW74534  10.419   0.215   6.243 -0.2914  0.1584 -0.2210
20852SOL    HW174535  10.487   0.148   6.247 -0.8360 -0.3867  0.1565
20852SOL    HW274536  10.456   0.284   6.187  0.1497 -0.6069 -0.8995
20853SOL     OW74537   9.197  10.273   7.668 -0.2636  0.2526 -0.5670
20853SOL    HW174538   9.277  10.326   7.670 -0.8506  1.1666 -0.1484
20853SOL    HW274539   9.209  10.209   7.738 -0.1258  0.7609 -0.1120
20854SOL     OW74540  10.320  11.414   0.606  0.1070  0.1698 -0.0945
20854SOL    HW174541  10.347  11.376   0.689 -0.8983 -0.6291 -0.1055
20854SOL    HW274542  10.392  11.471   0.580  0.8297 -0.2879  0.8678
20855SOL     OW74543   4.757   2.890   6.829  0.1427 -0.3399  0.5275
20855SOL    HW174544   4.799   2.959   6.778 -1.2561  0.3361  0.2507
20855SOL    HW274545   4.827   2.826   6.845  1.5371  1.2353  1.0170
20856SOL     OW74546  13.913  13.966   7.720  0.0561  0.0129 -0.0466
20856SOL    HW174547  14.007  13.970   7.703 -0.2611  1.7748 -1.6866
20856SOL    HW274548  13.873  14.012   7.646 -2.3462 -3.4771 -1.2287
20857SOL     OW74549   6.119   6.765   9.561 -0.1719 -0.4641  0.0403
20857SOL    HW174550   6.037   6.788   9.605  0.1734  0.9509 -0.0155
20857SOL    HW274551   6.159   6.699   9.618 -0.8441 -0.3977  0.6031
20858SOL     OW74552  13.765  13.105   3.835  0.1259  0.1144 -0.4287
20858SOL    HW174553  13.772  13.024   3.785 -0.0774 -0.2060  0.0528
20858SOL    HW274554  13.677  13.138   3.816 -0.0017 -0.0782 -0.1845
20859SOL     OW74555   1.788   0.161   7.176  0.3258  0.0863  0.4270
20859SOL    HW174556   1.781   0.082   7.123  0.9182 -0.8372  1.7025
20859SOL    HW274557   1.706   0.208   7.160  1.1984  0.8234 -2.7792
20860SOL     OW74558  10.612  10.768   8.211  0.2450  0.1896 -0.7092
20860SOL    HW174559  10.642  10.779   8.301 -0.1946  0.4329 -0.5881
20860SOL    HW274560  10.687  10.794   8.158  0.7410 -0.6169 -0.4213
20861SOL     OW74561   8.725   4.158   0.195 -0.5623  0.3591  0.5859
20861SOL    HW174562   8.809   4.163   0.241 -1.2411  0.4882  1.8697
20861SOL    HW274563   8.687   4.075   0.223 -1.1323  0.5862  0.5014
20862SOL     OW74564   0.389  13.464   7.587  0.1332 -0.0902  0.4967
20862SOL    HW174565   0.384  13.378   7.545  0.0578  0.5139 -0.7481
20862SOL    HW274566   0.425  13.522   7.520  1.5441  0.5733  1.7648
20863SOL     OW74567  12.779   9.041  11.932  0.0776  0.2866  0.3405
20863SOL    HW174568  12.735   9.122  11.954 -0.5436  0.1538 -0.4088
20863SOL    HW274569  12.725   9.001  11.864  1.2259  0.0172 -0.4447
20864SOL     OW74570   0.021  12.392  11.015 -0.1171 -0.3083 -0.0055
20864SOL    HW174571  -0.037  12.379  10.940 -0.1050 -0.5649  0.0278
20864SOL    HW274572   0.087  12.454  10.984 -0.0845 -0.4512 -0.2219
20865SOL     OW74573   9.765   8.902  12.050 -0.1914 -0.2126 -0.4898
20865SOL    HW174574   9.857   8.927  12.037  0.4893 -2.1492  0.1976
20865SOL    HW274575   9.767   8.806  12.049 -2.1119 -0.2891  0.2618
20866SOL     OW74576   3.143  11.291  12.673  0.0958 -0.8138 -0.5410
20866SOL    HW174577   3.188  11.375  12.663 -0.1739 -0.6657 -0.5409
20866SOL    HW274578   3.209  11.225  12.655  0.4349 -0.6110 -0.0681
20867SOL     OW74579  10.357   0.543   0.969 -0.3828 -0.1830 -0.5202
20867SOL    HW174580  10.387   0.612   0.911 -1.2956  1.5036  0.9055
20867SOL    HW274581  10.261   0.550   0.968 -0.4226  0.3703  1.6521
20868SOL     OW74582  10.382  10.392   5.809 -0.7105 -0.1838 -0.2115
20868SOL    HW174583  10.288  10.409   5.799 -1.0051 -1.9426 -0.9148
20868SOL    HW274584  10.424  10.474   5.785 -2.0767  0.8877  0.8831
20869SOL     OW74585  10.628   2.032   0.907  0.1179 -0.2568  0.5414
20869SOL    HW174586  10.581   2.108   0.874  0.5849  0.5650  1.7111
20869SOL    HW274587  10.598   2.022   0.997  1.2508 -0.4782  0.9162
20870SOL     OW74588   8.090   2.312  12.811 -0.1834  0.0599 -0.2298
20870SOL    HW174589   8.166   2.357  12.775 -1.7774  0.8022 -2.9835
20870SOL    HW274590   8.123   2.265  12.887  3.2763 -0.6379 -1.9852
20871SOL     OW74591   8.543   6.311  13.148 -0.5908 -0.1212  0.3827
20871SOL    HW174592   8.623   6.268  13.118 -0.7160  0.5903 -1.0812
20871SOL    HW274593   8.571   6.396  13.181 -0.7472  0.2769 -0.4642
20872SOL     OW74594   7.201   3.717   1.866 -0.0774 -0.0021  0.4710
20872SOL    HW174595   7.159   3.782   1.810  2.2310  1.3153  0.1556
20872SOL    HW274596   7.190   3.750   1.955 -1.1730 -0.5776  0.5696
20873SOL     OW74597  10.792   5.961   6.477 -0.2326  0.7518  0.1455
20873SOL    HW174598  10.849   5.973   6.552 -1.0113  0.4903  0.7995
20873SOL    HW274599  10.828   6.018   6.410 -0.0534  1.7071  1.0250
20874SOL     OW74600   9.715   3.224  10.881 -0.0094 -0.1706 -0.4639
20874SOL    HW174601   9.760   3.228  10.965 -0.1953 -1.4992 -0.2946
20874SOL    HW274602   9.783   3.198  10.819 -0.1319 -0.3319 -0.5304
20875SOL     OW74603   2.827   8.866  12.268 -0.1435 -0.3247 -0.2574
20875SOL    HW174604   2.762   8.904  12.208 -2.0291 -0.8940  1.2941
20875SOL    HW274605   2.870   8.798  12.217 -0.8745 -0.0192 -1.3213
20876SOL     OW74606   5.245   1.206  10.091 -0.3932  0.2965  0.2479
20876SOL    HW174607   5.332   1.207  10.051  0.1479  2.4944  1.3144
20876SOL    HW274608   5.233   1.115  10.119  2.4792  0.2747  1.8497
20877SOL     OW74609   1.712   9.628   1.962  0.3786  0.0887 -0.3975
20877SOL    HW174610   1.708   9.566   2.035 -1.9233  0.6844  0.0519
20877SOL    HW274611   1.721   9.713   2.005  1.5830  0.2544 -0.9429
20878SOL     OW74612   3.015   0.338  12.495  0.0099  0.1215 -0.3529
20878SOL    HW174613   2.978   0.380  12.417 -2.6214 -1.0019  0.1846
20878SOL    HW274614   3.105   0.368  12.498  0.2811  0.0442 -3.9324
20879SOL     OW74615   4.598   6.633   4.624 -0.6072 -0.3343 -0.2406
20879SOL    HW174616   4.582   6.642   4.530 -1.7509 -0.5096 -0.0860
20879SOL    HW274617   4.579   6.719   4.660  1.5805  0.2506 -0.3551
20880SOL     OW74618   7.482   5.113   1.716  0.5117 -0.0263 -0.4583
20880SOL    HW174619   7.464   5.194   1.668 -1.3183 -1.3611 -2.1587
20880SOL    HW274620   7.512   5.051   1.650 -2.3457 -2.0108 -0.0822
20881SOL     OW74621  13.000  13.061   4.849  0.2974  0.0505  0.3640
20881SOL    HW174622  13.060  12.991   4.821 -0.5732 -1.2480  1.5544
20881SOL    HW274623  12.946  13.078   4.773  1.1966  0.1781 -0.2633
20882SOL     OW74624  13.580  12.829   6.772 -0.6409 -0.4737  0.1015
20882SOL    HW174625  13.565  12.825   6.678 -1.4095 -2.6617  0.2640
20882SOL    HW274626  13.607  12.741   6.796 -0.7866 -0.0503  1.9903
20883SOL     OW74627  11.226  10.271   9.605  0.3747 -0.1658  0.6382
20883SOL    HW174628  11.234  10.344   9.544 -0.0091 -0.0681  0.6967
20883SOL    HW274629  11.200  10.311   9.688  2.4196 -0.1214  1.3147
20884SOL     OW74630   9.118   5.961   0.604 -0.4754 -0.1575  0.2997
20884SOL    HW174631   9.205   5.939   0.571  0.1165  1.7366  0.4861
20884SOL    HW274632   9.130   6.044   0.651 -2.2622 -0.1874  0.8997
20885SOL     OW74633   2.808   7.573  12.638 -0.1501  0.1473 -0.0723
20885SOL    HW174634   2.897   7.562  12.671  0.5280 -0.1095 -1.8788
20885SOL    HW274635   2.814   7.646  12.578 -0.9901 -0.3707 -0.8049
20886SOL     OW74636   5.504   7.927   3.386  0.1573 -0.6932  0.3628
20886SOL    HW174637   5.552   7.966   3.313 -0.9891 -3.5972 -2.1456
20886SOL    HW274638   5.570   7.875   3.432  0.2238 -1.7486 -0.8617
20887SOL     OW74639  11.541   5.781   8.606  0.3991 -0.0081 -0.4287
20887SOL    HW174640  11.568   5.865   8.644 -0.2408  0.3435 -0.7296
20887SOL    HW274641  11.482   5.744   8.671  1.4909 -0.7242  0.1783
20888SOL     OW74642   5.485   3.373   0.325  0.4546 -0.6132 -1.0309
20888SOL    HW174643   5.496   3.468   0.336 -3.4927 -0.1948  1.0346
20888SOL    HW274644   5.525   3.336   0.404 -1.2580 -0.2505  0.0579
20889SOL     OW74645  10.679   6.172   8.951  0.0904 -0.3507  0.2487
20889SOL    HW174646  10.744   6.124   9.002  2.5202 -2.2583 -4.0924
20889SOL    HW274647  10.613   6.106   8.928 -0.4300  0.2147  0.0722
20890SOL     OW74648   0.317  10.063   9.611 -0.0459 -0.0945 -0.1300
20890SOL    HW174649   0.368  10.068   9.531 -0.4113  0.2094 -0.3497
20890SOL    HW274650   0.361   9.997   9.664  2.2136  2.0530  0.8496
20891SOL     OW74651   7.134   1.036  11.660  0.7695 -0.1782 -0.1368
20891SOL    HW174652   7.076   1.048  11.584  0.2530  0.5268  0.3626
20891SOL    HW274653   7.117   0.946  11.688  0.5489 -0.2580 -0.5111
20892SOL     OW74654  13.712   8.815   5.451 -0.4711 -0.1050  0.3242
20892SOL    HW174655  13.652   8.875   5.407  0.8623 -0.9531 -2.9453
20892SOL    HW274656  13.656   8.761   5.507 -2.1259  1.8213  0.6294
20893SOL     OW74657   9.116  10.990  10.570 -0.5299 -0.1045 -0.0394
20893SOL    HW174658   9.211  10.977  10.560 -0.3605  0.8053  0.2543
20893SOL    HW274659   9.077  10.908  10.540  0.2694  0.0879 -1.6878
20894SOL     OW74660   4.608   3.449   6.913 -0.1644  0.4677  0.0306
20894SOL    HW174661   4.583   3.476   7.002 -0.0066  0.8380 -0.0343
20894SOL    HW274662   4.703   3.449   6.913 -0.1596 -0.5062  0.1442
20895SOL     OW74663   4.832   2.905   9.405  0.1269 -0.3164 -0.3892
20895SOL    HW174664   4.927   2.913   9.396  0.4839 -1.7218  1.5918
20895SOL    HW274665   4.813   2.944   9.490 -0.8411 -1.4213 -0.0736
20896SOL     OW74666   2.176   7.001   9.077  0.2840  0.4827 -0.1391
20896SOL    HW174667   2.182   7.095   9.096 -0.4362  0.5867 -0.3839
20896SOL    HW274668   2.096   6.973   9.122  1.2419 -0.3173  1.1059
20897SOL     OW74669   9.956   4.089   8.563  0.5396  0.5643 -0.0030
20897SOL    HW174670  10.005   4.086   8.481 -0.5151 -1.1381 -0.6332
20897SOL    HW274671   9.956   3.999   8.595 -2.4347  0.3784 -0.2337
20898SOL     OW74672   3.630   5.191   6.399  0.2942  0.0776 -0.1788
20898SOL    HW174673   3.543   5.223   6.372 -0.6795 -2.1964  0.0565
20898SOL    HW274674   3.611   5.115   6.454  2.4654 -0.6583 -0.3786
20899SOL     OW74675   1.217   5.980  13.328  0.4627  0.0910  0.3723
20899SOL    HW174676   1.172   5.895  13.327  1.7769 -0.6228 -0.7218
20899SOL    HW274677   1.269   5.981  13.248 -0.5007  2.5084 -0.3149
20900SOL     OW74678   3.144   4.296   7.228 -0.1890  0.3042 -0.2916
20900SOL    HW174679   3.227   4.343   7.234  0.9851 -1.3836 -2.2686
20900SOL    HW274680   3.087   4.356   7.180  1.1346 -0.0034 -2.3611
20901SOL     OW74681  11.602   1.002  12.106  0.3989  0.0822  0.3362
20901SOL    HW174682  11.654   1.079  12.127  1.5038 -0.3857 -0.6031
20901SOL    HW274683  11.661   0.928  12.118 -0.2821 -0.5249  0.0383
20902SOL     OW74684   8.820   0.867   0.919 -0.1200  0.1252 -0.0003
20902SOL    HW174685   8.744   0.876   0.976 -1.6459  1.2225 -2.0559
20902SOL    HW274686   8.894   0.893   0.973 -0.7719 -3.1154  2.7758
20903SOL     OW74687   4.108  12.647   5.764 -0.2735  0.7116  0.0056
20903SOL    HW174688   4.088  12.554   5.759 -0.7239  0.6890  1.6775
20903SOL    HW274689   4.039  12.690   5.714  0.0309  0.1491 -0.9115
20904SOL     OW74690  10.740   0.233   1.144  0.3356 -0.5545  0.1094
20904SOL    HW174691  10.747   0.171   1.217  2.2134 -2.1911 -1.3627
20904SOL    HW274692  10.673   0.195   1.087  0.1920 -0.2646  0.0866
20905SOL     OW74693   1.932   1.399   0.427 -0.0596  0.4657 -0.4727
20905SOL    HW174694   1.939   1.307   0.399 -1.5088  0.3254 -0.4502
20905SOL    HW274695   2.021   1.424   0.449  0.1421 -1.4988  1.2464
20906SOL     OW74696  11.246   6.211   1.532 -0.3396 -0.2688  0.5122
20906SOL    HW174697  11.332   6.197   1.493 -1.0778 -0.7559 -1.0020
20906SOL    HW274698  11.222   6.300   1.507  0.1539  0.2712  1.8526
20907SOL     OW74699  12.756   4.923   6.273  0.2511  0.3445 -0.2208
20907SOL    HW174700  12.733   4.836   6.306 -1.6703 -0.0579 -2.3689
20907SOL    HW274701  12.850   4.920   6.258  0.0732 -1.7831 -1.2365
20908SOL     OW74702   8.688   2.840   0.156 -0.5797  0.6153  0.1243
20908SOL    HW174703   8.666   2.932   0.148 -0.8965  0.8581  2.9673
20908SOL    HW274704   8.767   2.839   0.211 -1.3127 -0.8415  1.2028
20909SOL     OW74705  12.479   5.316   5.434  0.3024  0.0071 -0.0885
20909SOL    HW174706  12.425   5.272   5.368  0.7874  0.5145 -0.8330
20909SOL    HW274707  12.560   5.338   5.388 -0.1739  2.2711  0.0656
20910SOL     OW74708   7.078   2.756   9.320  0.2292 -0.5509 -0.7627
20910SOL    HW174709   7.023   2.723   9.391 -1.4924  1.1451 -1.2143
20910SOL    HW274710   7.167   2.729   9.342 -0.1790  0.2952  2.2844
20911SOL     OW74711   7.200   2.098   5.319  0.2347 -0.6176  1.0399
20911SOL    HW174712   7.244   2.113   5.235  1.1097  0.0526  1.5998
20911SOL    HW274713   7.111   2.072   5.295  0.1014  0.7622 -0.1002
20912SOL     OW74714   7.483  12.484   5.503  0.2314  0.9524  0.2447
20912SOL    HW174715   7.463  12.486   5.410  1.4890  2.5616 -0.0210
20912SOL    HW274716   7.540  12.408   5.514 -1.3513 -0.3262  0.0619
20913SOL     OW74717  10.824   7.816   3.132  0.2555 -0.1812 -0.4734
20913SOL    HW174718  10.910   7.811   3.090 -0.2766 -0.1289 -1.6220
20913SOL    HW274719  10.772   7.871   3.073 -0.4629  0.0892  0.3892
20914SOL     OW74720   2.381  11.061   4.026  0.2243 -0.1047 -0.1746
20914SOL    HW174721   2.314  11.130   4.022 -0.9089 -1.0464 -5.1950
20914SOL    HW274722   2.461  11.105   3.997  0.9250  0.1913  2.0867
20915SOL     OW74723   4.036   3.114  13.760  0.1339  0.2111 -0.2693
20915SOL    HW174724   4.006   3.093  13.848  0.2472  1.6609  0.1514
20915SOL    HW274725   4.131   3.122  13.769  0.4065 -1.7857 -1.0208
20916SOL     OW74726  13.199  12.790   4.791 -0.4271  0.2450 -0.0740
20916SOL    HW174727  13.179  12.739   4.869  0.2993 -1.0460 -0.6980
20916SOL    HW274728  13.285  12.829   4.809 -0.2708 -0.0325 -0.2072
20917SOL     OW74729  13.327  11.471   7.125  0.7399 -0.7251  0.3531
20917SOL    HW174730  13.305  11.457   7.033  0.5157 -0.0626  0.3008
20917SOL    HW274731  13.365  11.559   7.127  0.3108 -0.5517  0.9721
20918SOL     OW74732   7.900   4.394  11.797 -0.0311 -0.0956 -0.3367
20918SOL    HW174733   7.877   4.302  11.815  0.4169 -0.3647 -1.0801
20918SOL    HW274734   7.843   4.418  11.724  1.3621 -0.4908 -1.6113
20919SOL     OW74735   6.226   2.218   3.971  0.3186 -0.0951 -0.4248
20919SOL    HW174736   6.226   2.314   3.974 -0.4880 -0.1125  2.0247
20919SOL    HW274737   6.133   2.195   3.981  0.7247 -1.1157  1.3524
20920SOL     OW74738  12.120   2.778   2.390 -0.2442 -0.6611 -0.0773
20920SOL    HW174739  12.194   2.820   2.345  0.0684  0.3867  1.3378
20920SOL    HW274740  12.155   2.694   2.420  0.5667  0.0379  1.0174
20921SOL     OW74741   9.489   6.828   8.178 -0.3913 -0.1745  0.8010
20921SOL    HW174742   9.417   6.783   8.223 -1.4965  1.1964  0.4834
20921SOL    HW274743   9.458   6.918   8.168  0.9413  0.1905 -0.3288
20922SOL     OW74744  11.705   2.172   9.125  0.3615 -1.2983 -0.0186
20922SOL    HW174745  11.775   2.226   9.089 -1.4312  0.9687 -0.3441
20922SOL    HW274746  11.662   2.133   9.049  1.0218 -2.4081  0.1585
20923SOL     OW74747  11.868   7.679   9.723  0.0109 -0.7256  0.5651
20923SOL    HW174748  11.794   7.697   9.666 -1.0149 -1.2466  1.7048
20923SOL    HW274749  11.834   7.689   9.811  1.4299 -0.4889  1.1192
20924SOL     OW74750   6.852  13.554   2.681  0.1314 -0.1273  1.0572
20924SOL    HW174751   6.913  13.559   2.608 -0.1829  1.0692  0.8407
20924SOL    HW274752   6.894  13.604   2.752 -0.2651  0.0909  1.1458
20925SOL     OW74753   7.455   9.508  13.107 -0.3392 -0.3217 -0.2745
20925SOL    HW174754   7.465   9.445  13.179  1.3621  1.1480  0.8755
20925SOL    HW274755   7.527   9.569  13.119 -1.2906  1.2380 -1.9882
20926SOL     OW74756   6.904   1.372  12.765 -0.4065  1.0070 -0.4201
20926SOL    HW174757   6.935   1.284  12.746  0.5770  1.3975 -0.6649
20926SOL    HW274758   6.980   1.418  12.802 -1.2685  1.3558  1.0349
20927SOL     OW74759   2.420   2.047  12.241 -0.9281 -0.0410  0.0907
20927SOL    HW174760   2.448   2.117  12.183  0.8012 -0.6827  0.1081
20927SOL    HW274761   2.339   2.079  12.280  0.1420  2.2131  0.6002
20928SOL     OW74762   0.651   5.614   7.840  0.3385 -0.1030 -0.0500
20928SOL    HW174763   0.727   5.641   7.788 -0.4398  0.8774 -0.7151
20928SOL    HW274764   0.616   5.696   7.876  0.1899 -0.6495  1.1003
20929SOL     OW74765   3.801   6.075   7.780 -0.2773  0.1242 -0.1840
20929SOL    HW174766   3.722   6.030   7.750 -1.5156  2.7375 -1.1321
20929SOL    HW274767   3.872   6.031   7.734 -0.8470 -3.3883  1.9221
20930SOL     OW74768  10.655   0.250   0.211 -0.0486 -0.1321 -0.3688
20930SOL    HW174769  10.631   0.162   0.240  0.4901  0.4446  2.0802
20930SOL    HW274770  10.576   0.283   0.169 -1.0221 -1.0189  0.6734
20931SOL     OW74771  13.257  11.680   9.135 -0.5558 -0.0764  0.5271
20931SOL    HW174772  13.181  11.692   9.192 -0.8619 -0.9655  0.3283
20931SOL    HW274773  13.239  11.599   9.088 -0.6880  1.0379 -1.4432
20932SOL     OW74774  12.732  12.536   9.069 -0.2561 -0.7909  0.2373
20932SOL    HW174775  12.828  12.534   9.068 -0.2253  0.1424  0.4591
20932SOL    HW274776  12.711  12.610   9.125 -1.1190 -1.1133  0.3482
20933SOL     OW74777   6.229  12.411   2.479  0.5029  0.1466  0.1638
20933SOL    HW174778   6.153  12.463   2.505 -0.4968 -0.6944 -1.0034
20933SOL    HW274779   6.258  12.451   2.397 -0.9317 -1.7163 -1.3299
20934SOL     OW74780   6.081  12.633  10.781 -0.2867  0.1615 -0.4623
20934SOL    HW174781   6.076  12.630  10.876 -1.6931 -0.9142 -0.5496
20934SOL    HW274782   6.111  12.546  10.755 -1.3017 -0.0251 -1.0606
20935SOL     OW74783   9.505   0.893  13.734 -0.4063 -0.7014 -0.0402
20935SOL    HW174784   9.589   0.853  13.756  0.0603 -1.3144 -2.5525
20935SOL    HW274785   9.517   0.927  13.645 -2.8212 -0.9117 -0.5385
20936SOL     OW74786   9.531   4.380   4.697  0.1353 -0.7101  0.4884
20936SOL    HW174787   9.467   4.331   4.749  0.0347 -1.6182 -0.4593
20936SOL    HW274788   9.615   4.340   4.719  0.1796 -0.6268  0.4719
20937SOL     OW74789   9.354   6.980   7.893 -0.2237  0.6640  0.2819
20937SOL    HW174790   9.390   6.926   7.823 -1.2342  0.0823  0.1965
20937SOL    HW274791   9.318   6.917   7.956  2.4454  1.0315  2.3973
20938SOL     OW74792  11.789  14.042   4.875 -0.4850  0.4468 -0.1696
20938SOL    HW174793  11.807  14.050   4.781 -0.0740 -0.1201 -0.1469
20938SOL    HW274794  11.778  13.948   4.888  0.9476  0.3697  0.6188
20939SOL     OW74795   2.167   0.449   6.744  0.2895 -0.1021 -0.3078
20939SOL    HW174796   2.206   0.505   6.677 -0.4567  3.4096  1.9210
20939SOL    HW274797   2.240   0.426   6.801  0.2482  0.5297  0.0054
20940SOL     OW74798   7.159   3.647   1.313  0.4216  0.0126 -0.5123
20940SOL    HW174799   7.237   3.618   1.267 -0.5158 -0.7013 -1.6809
20940SOL    HW274800   7.137   3.575   1.372  0.4844  0.0962 -0.3864
20941SOL     OW74801   0.987   9.105   0.465  0.0030  0.6003  0.5819
20941SOL    HW174802   1.003   9.166   0.394 -0.4580  2.6243  2.1360
20941SOL    HW274803   0.894   9.113   0.484  0.3419  1.0333  2.1956
20942SOL     OW74804   7.304   4.241   9.963 -0.3647 -0.1389  0.2433
20942SOL    HW174805   7.320   4.151   9.935  0.5207 -0.0186  0.3261
20942SOL    HW274806   7.224   4.236  10.015 -0.3958 -0.8550  0.1361
20943SOL     OW74807  13.613  10.988   2.671  0.8813 -0.1077 -0.3493
20943SOL    HW174808  13.540  10.927   2.660 -0.3191  1.2323 -0.1932
20943SOL    HW274809  13.691  10.933   2.675 -0.2431 -1.7179  0.9417
20944SOL     OW74810   0.516   5.398   2.108  0.5165 -0.4069 -0.3226
20944SOL    HW174811   0.428   5.379   2.140  0.1067  0.7779 -0.6847
20944SOL    HW274812   0.566   5.319   2.128 -0.2104 -0.4785  1.3975
20945SOL     OW74813  13.724   9.126   6.089 -0.4470 -0.4281  0.1441
20945SOL    HW174814  13.798   9.065   6.085 -0.1442 -0.3297  2.7005
20945SOL    HW274815  13.647   9.071   6.074  0.0361 -0.7036 -1.5217
20946SOL     OW74816  11.861   0.031  11.601  0.2491  0.3496  0.5718
20946SOL    HW174817  11.904  -0.054  11.611  0.1072  0.2754  0.5611
20946SOL    HW274818  11.932   0.094  11.601  0.2439  0.4241  2.7145
20947SOL     OW74819   3.965   2.651   8.208 -0.0485 -0.3441  0.1205
20947SOL    HW174820   3.936   2.659   8.117  0.3312 -0.7981 -0.0496
20947SOL    HW274821   3.890   2.677   8.260  0.0102  0.7617 -0.3321
20948SOL     OW74822   0.455  13.995   5.369  0.1959 -0.1251 -0.0412
20948SOL    HW174823   0.532  14.000   5.312  1.8316 -0.8903  1.9497
20948SOL    HW274824   0.417  14.083   5.365  2.0222  0.7260 -0.0432
20949SOL     OW74825   0.968  13.069   2.925  0.9207  0.4908 -0.3703
20949SOL    HW174826   0.933  13.149   2.966  1.3021  0.7705 -0.5785
20949SOL    HW274827   1.045  13.048   2.978  0.5568 -0.0118 -0.0307
20950SOL     OW74828  12.397  10.281   5.471 -0.3498 -0.2511 -0.0694
20950SOL    HW174829  12.465  10.300   5.535  1.0943 -2.3774 -0.8698
20950SOL    HW274830  12.330  10.348   5.486  1.0741  0.8057  1.9533
20951SOL     OW74831   9.848  13.180  10.387  0.4880  0.6789  0.6521
20951SOL    HW174832   9.809  13.239  10.451  0.5429  2.7603 -1.1170
20951SOL    HW274833   9.796  13.192  10.308  0.9078 -1.2179  0.0245
20952SOL     OW74834  11.812   6.472  13.424  0.0567 -0.0550  0.2727
20952SOL    HW174835  11.905   6.453  13.435 -0.2928 -2.0115  0.3934
20952SOL    HW274836  11.802   6.562  13.452  2.0903  0.5852 -0.8293
20953SOL     OW74837   2.684   6.514   6.755 -0.0970 -0.5956 -0.2207
20953SOL    HW174838   2.633   6.592   6.776 -0.5809 -0.4273 -1.8688
20953SOL    HW274839   2.719   6.485   6.839 -0.3912  1.0508  0.5111
20954SOL     OW74840   2.107  10.431   4.972 -0.2732 -0.1768  0.5554
20954SOL    HW174841   2.064  10.346   4.959  1.2131 -1.0592  1.1651
20954SOL    HW274842   2.059  10.490   4.914 -1.3395 -1.4193  0.0935
20955SOL     OW74843  13.714   9.676   3.738 -0.0874  0.1390  0.0599
20955SOL    HW174844  13.697   9.736   3.811 -1.4793  1.6725 -1.4292
20955SOL    HW274845  13.663   9.597   3.760 -0.9932  0.8137  0.4538
20956SOL     OW74846   5.465   2.799  12.887  0.0383 -0.5542  0.2647
20956SOL    HW174847   5.497   2.802  12.977 -0.4951  2.7542  0.4516
20956SOL    HW274848   5.545   2.793  12.834  0.7685  2.1065  0.8964
20957SOL     OW74849  11.678   0.999   9.849  0.5141  0.0827  0.0596
20957SOL    HW174850  11.718   1.077   9.885 -2.2710  0.2948  3.1112
20957SOL    HW274851  11.680   0.935   9.920 -2.9997 -0.3536 -0.0488
20958SOL     OW74852   1.954   1.115   5.556 -0.1653 -0.8632 -0.0007
20958SOL    HW174853   1.952   1.120   5.460  0.2074  0.3118  0.0369
20958SOL    HW274854   1.959   1.206   5.585  1.3988 -1.2356  1.0784
20959SOL     OW74855   9.736   1.463   4.867 -0.3749  0.1294  0.1453
20959SOL    HW174856   9.663   1.422   4.822 -1.7056  2.6576 -0.2254
20959SOL    HW274857   9.811   1.451   4.809 -1.0340 -0.5298 -0.5881
20960SOL     OW74858   3.206   3.545  12.347  0.8736  0.3680  0.5792
20960SOL    HW174859   3.175   3.475  12.405  1.1361  0.4545  0.8234
20960SOL    HW274860   3.299   3.555  12.369  1.5757 -1.1052 -1.3323
20961SOL     OW74861   6.883  10.956  10.482  0.3479 -0.3637 -0.4663
20961SOL    HW174862   6.880  11.049  10.459  0.1292 -0.0172  0.8380
20961SOL    HW274863   6.824  10.949  10.557  2.7441 -0.8924  1.5345
20962SOL     OW74864   5.938   5.164   8.866  0.2332 -0.2203  0.1827
20962SOL    HW174865   6.010   5.193   8.811  0.2417 -0.1768  0.2179
20962SOL    HW274866   5.861   5.172   8.810  0.2466 -0.2075  0.1658
20963SOL     OW74867  10.062   7.140   8.546 -0.4266  0.2810 -0.3200
20963SOL    HW174868  10.020   7.075   8.603  0.6366 -0.5033 -0.3870
20963SOL    HW274869  10.156   7.129   8.563 -0.1633  0.9024 -1.2980
20964SOL     OW74870   1.543   6.228  13.792 -0.6515 -0.1482  0.2170
20964SOL    HW174871   1.481   6.294  13.760 -1.4269 -0.4015  1.1308
20964SOL    HW274872   1.526   6.224  13.886  1.1496  0.1749  0.5955
20965SOL     OW74873  12.630  13.405   6.521 -0.3660  0.7284 -0.7985
20965SOL    HW174874  12.686  13.417   6.444  0.1072  0.4751 -0.5047
20965SOL    HW274875  12.582  13.324   6.503  1.4243 -0.6420  0.1218
20966SOL     OW74876  13.451   5.267   7.986 -0.2433 -0.2286  0.2661
20966SOL    HW174877  13.372   5.213   7.990  0.2000 -0.9577 -0.4874
20966SOL    HW274878  13.486   5.266   8.075 -0.0917 -1.4346  0.2056
20967SOL     OW74879   4.102   3.374   9.338 -0.3426 -0.3696 -0.1720
20967SOL    HW174880   4.149   3.304   9.382 -2.0712 -1.4935 -0.0154
20967SOL    HW274881   4.018   3.335   9.313 -0.2578  0.8426 -2.6211
20968SOL     OW74882  13.911   5.178   6.384 -0.5674 -0.6710  0.3257
20968SOL    HW174883  13.858   5.200   6.460 -1.5159 -1.4201 -0.0943
20968SOL    HW274884  13.936   5.086   6.399  0.5012 -0.3779  0.4409
20969SOL     OW74885   9.840   4.494   2.753  0.3288  0.0139 -0.0836
20969SOL    HW174886   9.775   4.487   2.683  0.3187 -2.5009  0.0916
20969SOL    HW274887   9.908   4.551   2.717 -0.6071  0.3624 -1.3589
20970SOL     OW74888  10.250   5.090  12.645 -0.0643  0.1336  0.1144
20970SOL    HW174889  10.162   5.102  12.610 -0.8187 -0.5489  1.6569
20970SOL    HW274890  10.269   5.173  12.689  0.5571  0.6978 -1.1678
20971SOL     OW74891   2.807   9.396   3.005 -0.0230 -0.1096 -0.7393
20971SOL    HW174892   2.759   9.477   2.990 -0.1583  0.1022  0.7044
20971SOL    HW274893   2.846   9.375   2.920 -2.0894  0.0652 -1.7842
20972SOL     OW74894  13.338   2.495   8.319 -0.4803 -0.3710 -0.1773
20972SOL    HW174895  13.354   2.410   8.360 -1.5891 -1.3056 -1.5906
20972SOL    HW274896  13.313   2.552   8.392  2.4732 -0.5834  1.1498
20973SOL     OW74897  11.432   7.216   4.813 -0.5035 -0.1316 -0.0572
20973SOL    HW174898  11.461   7.235   4.724 -0.9856 -0.6441 -0.3245
20973SOL    HW274899  11.413   7.123   4.813 -1.8077  0.1146  0.2078
20974SOL     OW74900   6.050   5.631   4.086  0.5070  0.2078 -0.0517
20974SOL    HW174901   6.047   5.644   4.180  0.7251  1.5768 -0.2075
20974SOL    HW274902   6.135   5.665   4.060  1.2800 -1.9125 -0.5341
20975SOL     OW74903   3.632   1.638  10.843  0.0238 -0.6832 -0.2103
20975SOL    HW174904   3.681   1.720  10.854 -1.6693  0.6315 -1.6682
20975SOL    HW274905   3.672   1.596  10.768  1.2120 -1.4815  0.8398
20976SOL     OW74906   1.584   8.493   7.866  0.0888  0.1980 -0.0338
20976SOL    HW174907   1.574   8.492   7.961  0.4857  1.8369  0.0492
20976SOL    HW274908   1.670   8.455   7.849 -0.1289 -0.4199  0.2239
20977SOL     OW74909   6.770  13.994   1.084  0.3090  0.5325  0.5286
20977SOL    HW174910   6.836  14.017   1.150 -1.2439  1.3463  1.8715
20977SOL    HW274911   6.708  13.938   1.131 -0.4523  0.5233 -0.4646
20978SOL     OW74912   4.261   1.913  13.643  0.2068 -0.4689 -0.0778
20978SOL    HW174913   4.176   1.899  13.687  1.3763 -0.0120  2.5443
20978SOL    HW274914   4.288   2.000  13.673  0.5664  0.4489 -2.8244
20979SOL     OW74915  12.460   7.213  13.553 -0.0543 -0.0893  0.1873
20979SOL    HW174916  12.428   7.177  13.635 -0.8589  1.5196  0.6236
20979SOL    HW274917  12.484   7.304  13.574 -1.9895  0.9399 -1.6970
20980SOL     OW74918   7.832   5.004   5.049 -0.1000  0.0756  0.1126
20980SOL    HW174919   7.916   4.962   5.031 -0.7064 -0.2362 -2.2540
20980SOL    HW274920   7.850   5.097   5.049  0.4359 -0.0144  0.8758
20981SOL     OW74921   9.114   9.145  12.096 -0.5362  0.1036  0.2465
20981SOL    HW174922   9.045   9.078  12.101 -0.9706  0.5541  0.4147
20981SOL    HW274923   9.195   9.098  12.117 -0.9434 -0.2085  1.1710
20982SOL     OW74924   3.204   1.100   8.992 -0.1652  0.0744 -0.2820
20982SOL    HW174925   3.271   1.112   9.059  2.3066 -1.7630 -2.2141
20982SOL    HW274926   3.148   1.030   9.025  1.0019 -0.7922 -0.0686
20983SOL     OW74927   7.014  13.724   6.370 -0.0848  0.2328  0.5336
20983SOL    HW174928   7.097  13.714   6.416 -0.5765  1.1529  1.6671
20983SOL    HW274929   6.986  13.813   6.389 -1.3587 -0.0735  0.2183
20984SOL     OW74930   6.271  12.026   2.227 -0.2115 -0.1696  0.3461
20984SOL    HW174931   6.340  11.976   2.183  0.0483  0.1807  0.3524
20984SOL    HW274932   6.267  12.109   2.179  0.1001  0.2290  1.0039
20985SOL     OW74933   1.472   9.894   4.149 -0.4980 -0.0416  0.4876
20985SOL    HW174934   1.420   9.974   4.160 -2.7488 -1.3436 -0.0071
20985SOL    HW274935   1.563   9.925   4.145 -1.3040  2.5387 -0.2545
20986SOL     OW74936  13.461   6.408  13.666 -0.1995  0.0707  0.3153
20986SOL    HW174937  13.512   6.458  13.602  0.8828  0.0569  1.1461
20986SOL    HW274938  13.390   6.467  13.690 -0.0874  0.4288 -0.2027
20987SOL     OW74939   4.522   0.492  11.557 -0.0050  0.2648 -0.1264
20987SOL    HW174940   4.457   0.503  11.488  0.4647  1.6125 -0.3738
20987SOL    HW274941   4.471   0.489  11.638 -0.3275  3.8121 -0.0517
20988SOL     OW74942   3.260   6.165   4.969  0.0492  0.2048 -0.8861
20988SOL    HW174943   3.321   6.203   4.907  0.1710 -0.1032 -0.9549
20988SOL    HW274944   3.293   6.192   5.055 -0.2803  0.8683 -0.9639
20989SOL     OW74945  10.309  11.946  11.975 -0.4783 -0.5157 -1.0280
20989SOL    HW174946  10.364  12.013  11.932 -0.1467 -0.5021 -0.5846
20989SOL    HW274947  10.323  11.867  11.923  0.9652 -0.8473 -0.1643
20990SOL     OW74948  10.725   5.966   5.244  0.3096  0.4376  0.3915
20990SOL    HW174949  10.682   5.943   5.326  0.7705  1.1012  0.8262
20990SOL    HW274950  10.776   5.888   5.221  1.4783  0.8092  1.5987
20991SOL     OW74951   4.787   7.291   1.953 -0.2637 -0.3374 -0.4010
20991SOL    HW174952   4.866   7.339   1.929  0.0698 -1.0151 -0.6577
20991SOL    HW274953   4.716   7.351   1.930  0.1399  2.2255  3.8752
20992SOL     OW74954   4.891   1.498   5.111  0.4294 -0.3703 -0.1174
20992SOL    HW174955   4.919   1.589   5.112  1.6148 -0.5858  4.0345
20992SOL    HW274956   4.799   1.501   5.083  1.0214  1.7811 -2.0714
20993SOL     OW74957   9.784  13.120   2.106 -0.0407 -0.3155  0.6529
20993SOL    HW174958   9.775  13.193   2.167 -2.0680  1.3392 -1.4302
20993SOL    HW274959   9.697  13.082   2.101  1.1939 -3.9160  2.6660
20994SOL     OW74960   7.478   3.619  11.627  0.2090 -0.7134  0.2937
20994SOL    HW174961   7.489   3.704  11.670 -0.1394 -1.0568  1.0730
20994SOL    HW274962   7.555   3.568  11.654 -0.2386 -1.0836  0.8852
20995SOL     OW74963   1.194   6.638   8.475 -0.2044  0.5146 -0.1886
20995SOL    HW174964   1.152   6.603   8.397 -1.6334  0.4635  0.5665
20995SOL    HW274965   1.126   6.692   8.517  0.2965 -0.0091  1.3655
20996SOL     OW74966   5.842  12.167   5.956 -0.2900  0.2031  0.0730
20996SOL    HW174967   5.869  12.250   5.995 -1.0869  0.9321 -0.8822
20996SOL    HW274968   5.750  12.181   5.932 -0.5230 -1.0532  0.1527
20997SOL     OW74969   4.873   8.046  12.359 -0.5155 -0.2079  0.1661
20997SOL    HW174970   4.786   8.051  12.396 -0.5336 -0.4514  0.1632
20997SOL    HW274971   4.868   7.972  12.297 -0.4471  0.0943 -0.2067
20998SOL     OW74972   0.056   5.065   6.648  0.2462  0.0989 -0.1916
20998SOL    HW174973   0.034   4.991   6.705  0.4197  0.1672 -0.0367
20998SOL    HW274974   0.024   5.039   6.561  1.3459 -0.6530 -0.3825
20999SOL     OW74975   7.834  12.880   1.692  0.1714  0.1779  0.1415
20999SOL    HW174976   7.888  12.916   1.622 -1.3236 -0.4766 -1.4225
20999SOL    HW274977   7.781  12.813   1.649 -1.6454  0.5667  1.6362
21000SOL     OW74978  10.334  12.857   3.303 -0.3673  0.3075  0.5816
21000SOL    HW174979  10.380  12.926   3.255  1.1499 -0.3833  1.0044
21000SOL    HW274980  10.241  12.875   3.287 -0.0771  2.9157  1.3048
21001SOL     OW74981   4.005   8.147   9.811  0.4121 -0.9470 -0.3008
21001SOL    HW174982   4.013   8.223   9.868  0.6757 -1.1060 -0.1216
21001SOL    HW274983   4.067   8.164   9.740 -0.8897 -0.1124 -1.2771
21002SOL     OW74984   1.604   9.441   5.308  0.4448  0.0818  0.6331
21002SOL    HW174985   1.627   9.417   5.218  0.7763  0.5697  0.5851
21002SOL    HW274986   1.579   9.358   5.349  1.0934 -0.2777  0.3220
21003SOL     OW74987  11.279   0.282   1.853  0.2612  0.6155 -0.0852
21003SOL    HW174988  11.256   0.330   1.933 -0.2013 -1.2592  0.9640
21003SOL    HW274989  11.311   0.349   1.794  0.3854  2.1136  1.5870
21004SOL     OW74990  12.263  13.144   3.150  0.6175 -0.3596  0.3025
21004SOL    HW174991  12.330  13.106   3.093 -0.7699 -0.4395 -1.3409
21004SOL    HW274992  12.241  13.074   3.212  2.2545 -0.2171  1.1078
21005SOL     OW74993   5.712  10.115   3.965 -0.6857 -0.0091 -0.1460
21005SOL    HW174994   5.647  10.176   3.930 -1.5309 -1.2088 -0.7156
21005SOL    HW274995   5.699  10.034   3.915  2.6987  0.3144 -1.8892
21006SOL     OW74996   8.741  10.402  13.723  0.2112  0.4848 -0.3292
21006SOL    HW174997   8.814  10.341  13.708 -0.3392 -0.3083  0.1378
21006SOL    HW274998   8.751  10.468  13.654  0.4693 -0.4707 -1.2342
21007SOL     OW74999   0.337  13.031   7.616 -0.0241  0.2516 -0.2031
21007SOL    HW175000   0.368  13.062   7.701  0.1418 -0.4439 -0.0050
21007SOL    HW275001   0.380  12.946   7.604 -1.6196 -0.6244 -0.0352
21008SOL     OW75002  12.048   6.793   3.058 -0.2530 -0.1707  0.2248
21008SOL    HW175003  12.131   6.804   3.012  0.0108 -1.8785  0.2301
21008SOL    HW275004  11.989   6.757   2.991 -0.7865  0.3812  0.3953
21009SOL     OW75005   6.151   7.263   7.176 -0.6342  0.5879  0.2377
21009SOL    HW175006   6.078   7.267   7.113  1.8027  0.2328 -2.8539
21009SOL    HW275007   6.184   7.353   7.179 -0.2302  0.4357  0.3421
21010SOL     OW75008   9.529   0.895  10.219 -0.8916  0.0958  0.1589
21010SOL    HW175009   9.454   0.840  10.197 -1.5051  0.8291  0.3706
21010SOL    HW275010   9.511   0.979  10.177  0.2561  0.0065 -0.5563
21011SOL     OW75011   4.583   5.994   2.669  0.5003 -0.2784  0.0114
21011SOL    HW175012   4.623   5.911   2.644  0.1626 -1.0123  1.7510
21011SOL    HW275013   4.531   6.020   2.593  1.4370 -1.1092 -0.9482
21012SOL     OW75014   1.155  12.277   6.984 -0.5836  0.2268 -0.0123
21012SOL    HW175015   1.129  12.332   6.910  1.5537 -1.0546 -1.8375
21012SOL    HW275016   1.228  12.225   6.951 -1.0845 -2.1612  2.2720
21013SOL     OW75017   0.200  11.703  13.401 -0.4857  0.6940  0.2803
21013SOL    HW175018   0.155  11.684  13.484  1.2014  3.3924  1.9556
21013SOL    HW275019   0.274  11.642  13.401  1.0007  2.3471  2.1858
21014SOL     OW75020   2.261   4.470  11.616 -0.0410 -0.2125 -0.5427
21014SOL    HW175021   2.279   4.455  11.709  0.4987 -2.1428 -0.9180
21014SOL    HW275022   2.189   4.532  11.615 -1.4060 -1.6546  1.2203
21015SOL     OW75023   2.653  12.565   3.202 -0.6810  0.2302  0.0933
21015SOL    HW175024   2.721  12.519   3.251 -0.5626  0.2102 -0.0856
21015SOL    HW275025   2.693  12.649   3.180 -0.9790  0.5087  0.6119
21016SOL     OW75026   4.412  11.229   5.547 -0.1475  0.2630  0.5217
21016SOL    HW175027   4.483  11.213   5.609 -1.6441 -0.3976  2.1207
21016SOL    HW275028   4.391  11.322   5.557 -0.4070  0.1502  1.0413
21017SOL     OW75029  14.022   2.427   0.939 -0.1178 -0.0735 -0.0384
21017SOL    HW175030  14.110   2.408   0.973 -0.2827 -0.7067  0.0303
21017SOL    HW275031  14.017   2.379   0.857 -0.2050  0.4064 -0.3192
21018SOL     OW75032  12.287  13.883   7.177 -0.0214 -0.2649  0.0602
21018SOL    HW175033  12.212  13.853   7.229 -1.3025  2.0941 -0.2886
21018SOL    HW275034  12.261  13.970   7.146  3.5245  1.4298  1.3516
21019SOL     OW75035   4.813  10.517   5.028 -0.1718  0.6437 -0.6895
21019SOL    HW175036   4.801  10.552   5.116 -0.7720 -0.2348 -0.4059
21019SOL    HW275037   4.772  10.431   5.031 -1.7043  1.2627 -2.2895
21020SOL     OW75038   3.363   3.377  11.698  0.1541  0.1245  0.3118
21020SOL    HW175039   3.355   3.412  11.787 -1.0327  0.2462  0.1850
21020SOL    HW275040   3.281   3.329  11.684  0.7792 -0.7819 -0.3460
21021SOL     OW75041   9.127   0.720   2.686  0.5424  0.2347  0.0892
21021SOL    HW175042   9.079   0.787   2.734  0.4251  0.5094 -0.4081
21021SOL    HW275043   9.219   0.743   2.699  0.5359 -0.0493  0.6903
21022SOL     OW75044   6.331  10.547   0.481  0.3715  0.0514  0.4296
21022SOL    HW175045   6.348  10.632   0.440  2.1386 -0.0803  0.8127
21022SOL    HW275046   6.362  10.483   0.416 -0.9167 -0.3281  0.1575
21023SOL     OW75047   3.195   9.333   1.636  0.0573 -0.4636  0.0334
21023SOL    HW175048   3.121   9.315   1.578  0.8384 -0.4650 -0.9746
21023SOL    HW275049   3.234   9.247   1.652 -1.2527 -0.7462  2.1236
21024SOL     OW75050  10.687  13.194   6.248  0.5955 -0.3188 -0.1343
21024SOL    HW175051  10.640  13.110   6.250 -0.4346  0.2509  0.3030
21024SOL    HW275052  10.618  13.259   6.234  1.5171  0.3782 -1.7380
21025SOL     OW75053  11.244  13.977  11.968 -0.9481  0.1069  0.3450
21025SOL    HW175054  11.187  13.958  11.894 -0.5994  0.1614  0.0618
21025SOL    HW275055  11.220  13.912  12.034 -0.0910 -1.0309 -0.4394
21026SOL     OW75056   2.739   0.935   6.599  0.6292 -0.4273 -0.0554
21026SOL    HW175057   2.732   1.027   6.625  0.2925 -0.1592 -1.0533
21026SOL    HW275058   2.707   0.932   6.509 -0.6503 -1.7596  0.3997
21027SOL     OW75059   3.768  10.347   1.277 -0.4064  0.3179  0.9481
21027SOL    HW175060   3.784  10.295   1.198 -0.4952 -0.3220  1.3537
21027SOL    HW275061   3.856  10.362   1.314 -0.3392  0.8364  0.6004
21028SOL     OW75062   5.154   7.066  13.394 -0.4516 -0.3010  0.2347
21028SOL    HW175063   5.168   7.086  13.486  0.5813 -1.2875  0.3222
21028SOL    HW275064   5.214   7.124  13.347  0.4427 -1.1287  0.3184
21029SOL     OW75065   3.593   2.655  12.074 -0.0334  0.1444  0.2844
21029SOL    HW175066   3.597   2.565  12.106  0.7022  0.6371  1.6505
21029SOL    HW275067   3.683   2.675  12.050  0.4753  1.5093  2.9637
21030SOL     OW75068  10.162   1.223   3.748 -0.2231 -0.2715  0.2783
21030SOL    HW175069  10.147   1.263   3.833 -0.0961  0.0550  0.1509
21030SOL    HW275070  10.141   1.130   3.760 -1.8801  0.0550  0.2332
21031SOL     OW75071   7.148  13.933   9.140 -0.0892  0.5094 -0.0135
21031SOL    HW175072   7.069  13.879   9.132  0.7714 -0.7602 -0.3593
21031SOL    HW275073   7.116  14.023   9.137 -1.4496  0.0355 -1.0167
21032SOL     OW75074   5.229  10.192   0.977 -0.6372 -0.1038 -0.5802
21032SOL    HW175075   5.214  10.284   0.954 -1.7578 -0.5330 -1.6975
21032SOL    HW275076   5.320  10.190   1.007  0.2254  0.9660 -2.8518
21033SOL     OW75077   0.305  10.745   5.872  0.6100  0.4728  0.1965
21033SOL    HW175078   0.269  10.698   5.947  0.6954 -0.1028 -0.1124
21033SOL    HW275079   0.231  10.792   5.835 -0.4161 -2.2802 -1.6426
21034SOL     OW75080   5.183   4.169  13.639  0.2714 -0.0110 -0.1622
21034SOL    HW175081   5.259   4.117  13.612 -0.8843 -3.2275  2.2106
21034SOL    HW275082   5.221   4.253  13.666  3.2374 -1.8017  1.8720
21035SOL     OW75083   0.722   9.239   3.546  0.3158  0.3857  0.5459
21035SOL    HW175084   0.628   9.252   3.559  0.6346  1.7459  1.7622
21035SOL    HW275085   0.748   9.179   3.616  0.6676  1.5736  1.4721
21036SOL     OW75086   8.357   0.560  12.736 -0.0987  0.0914 -0.3233
21036SOL    HW175087   8.430   0.549  12.676  1.8094 -1.5033  2.0776
21036SOL    HW275088   8.374   0.644  12.779 -0.4409  0.3598 -0.7087
21037SOL     OW75089   4.962   7.091   3.435  0.0103 -0.1312  0.1639
21037SOL    HW175090   4.990   7.072   3.345  0.2444 -0.4360  0.2997
21037SOL    HW275091   4.989   7.182   3.450 -0.4988  0.0923 -0.2538
21038SOL     OW75092   0.586   8.708  13.725  0.1324 -0.3099 -0.0853
21038SOL    HW175093   0.668   8.741  13.760  0.2420  1.0512 -1.4943
21038SOL    HW275094   0.534   8.786  13.709 -1.2666 -1.1206  0.3325
21039SOL     OW75095   6.796  12.299   9.904 -0.3751  0.1239  0.2748
21039SOL    HW175096   6.883  12.336   9.890  0.4080 -1.7385 -0.1513
21039SOL    HW275097   6.770  12.266   9.818 -2.5362  2.6288 -0.1279
21040SOL     OW75098  10.857   9.898   8.716  0.0922  0.4285 -0.1880
21040SOL    HW175099  10.932   9.921   8.661 -0.9674  1.3513 -1.2994
21040SOL    HW275100  10.806   9.979   8.721 -0.6597 -0.0884  0.8481
21041SOL     OW75101   4.438   1.636   2.706 -0.0435  0.1990 -0.1799
21041SOL    HW175102   4.423   1.650   2.612  2.7963 -1.3422 -0.9755
21041SOL    HW275103   4.458   1.723   2.740  0.7025  0.5486 -1.4221
21042SOL     OW75104   1.023  10.790  11.239  0.4695  0.0913  0.5061
21042SOL    HW175105   0.945  10.797  11.183  0.6885  1.1791  0.3172
21042SOL    HW275106   1.095  10.777  11.179  0.7478  1.5755  0.4775
21043SOL     OW75107   1.387   0.101   0.364  0.2916 -0.0344  0.1375
21043SOL    HW175108   1.336   0.181   0.380 -1.2792 -1.2898  1.7881
21043SOL    HW275109   1.349   0.036   0.423  2.9687 -1.4261  0.4970
21044SOL     OW75110   5.506   1.684  13.137 -0.1761 -0.4993  0.1180
21044SOL    HW175111   5.521   1.766  13.090  0.6145  0.9277  2.6341
21044SOL    HW275112   5.414   1.690  13.165 -0.3554 -0.8705 -0.3845
21045SOL     OW75113   5.858   6.837   9.704 -0.2997  0.4216 -0.5918
21045SOL    HW175114   5.910   6.888   9.766 -1.8845  1.9638 -0.4413
21045SOL    HW275115   5.804   6.780   9.759  1.7256 -1.8611 -0.7627
21046SOL     OW75116  11.294   8.884  12.832  0.1301 -0.1473  0.1252
21046SOL    HW175117  11.253   8.885  12.918  1.0133 -0.1589  0.5537
21046SOL    HW275118  11.343   8.967  12.828 -0.6625  0.2925 -0.7379
21047SOL     OW75119  13.889   7.082  10.030  0.1305 -0.5509  0.5618
21047SOL    HW175120  13.799   7.054  10.010 -0.1022 -1.0109  2.1556
21047SOL    HW275121  13.905   7.155   9.969 -1.6104  0.0623  0.7658
21048SOL     OW75122   8.284   6.008   1.518 -0.1922 -0.1755  0.1823
21048SOL    HW175123   8.291   5.914   1.533 -2.0897 -0.3253  0.3812
21048SOL    HW275124   8.239   6.016   1.434  1.4333  0.5988 -0.6644
21049SOL     OW75125  10.865   2.404   6.496  0.0785  0.3054  0.3449
21049SOL    HW175126  10.864   2.351   6.416  2.0546 -0.1824  0.5902
21049SOL    HW275127  10.775   2.432   6.507 -0.8446 -2.1201 -0.3989
21050SOL     OW75128   2.812   7.543   6.952  0.4885 -0.2590  0.0449
21050SOL    HW175129   2.719   7.520   6.953  0.6821 -1.0451  0.4691
21050SOL    HW275130   2.814   7.632   6.916 -0.4110 -0.2940 -0.1159
21051SOL     OW75131   0.811  10.111   6.498 -0.2811  0.5612  0.1447
21051SOL    HW175132   0.831  10.028   6.540  0.0231  1.5180  1.9902
21051SOL    HW275133   0.733  10.093   6.444  1.4291 -1.5641 -1.7928
21052SOL     OW75134   9.534   1.267   7.408  0.5192  0.0772 -0.1942
21052SOL    HW175135   9.442   1.248   7.391 -0.2608  2.1292  1.2907
21052SOL    HW275136   9.576   1.266   7.322 -1.4190  1.5780 -1.2230
21053SOL     OW75137   4.894   3.054   0.199  0.8470 -0.2434 -0.3301
21053SOL    HW175138   4.889   3.119   0.269  4.9290 -0.0130 -0.0181
21053SOL    HW275139   4.938   3.099   0.127  0.7842 -1.7335 -1.3552
21054SOL     OW75140  11.521   0.552   5.518 -0.0191  0.5917 -0.3363
21054SOL    HW175141  11.592   0.615   5.535  1.1179  0.1279 -2.8638
21054SOL    HW275142  11.441   0.602   5.531  0.8424  2.4088 -1.5097
21055SOL     OW75143   6.259  13.829   7.220 -0.1141  0.8394 -0.5057
21055SOL    HW175144   6.215  13.835   7.135 -1.0602 -0.9697 -0.2054
21055SOL    HW275145   6.187  13.826   7.284  0.4723 -0.5929  0.1260
21056SOL     OW75146   2.411   8.806  13.405  0.0991  0.3205 -0.9742
21056SOL    HW175147   2.459   8.734  13.445 -0.9974  0.5045  0.8063
21056SOL    HW275148   2.324   8.770  13.388 -0.2327  1.0167 -0.7723
21057SOL     OW75149   3.693  13.388   7.849 -0.9493 -0.4967 -0.1138
21057SOL    HW175150   3.678  13.441   7.927 -0.8625 -0.8988  0.1766
21057SOL    HW275151   3.645  13.307   7.864 -1.0097 -0.5384 -0.5187
21058SOL     OW75152  13.235   5.357  10.187  0.5501  0.2443  0.4973
21058SOL    HW175153  13.295   5.321  10.120 -0.5593  1.7737 -1.4375
21058SOL    HW275154  13.244   5.452  10.178 -3.4365  0.6561 -1.2306
21059SOL     OW75155  13.312   4.344   0.351  0.7388 -0.1447 -0.0727
21059SOL    HW175156  13.380   4.373   0.412 -0.3521  1.1951  0.5733
21059SOL    HW275157  13.235   4.329   0.406  0.5734 -2.0172 -0.7355
21060SOL     OW75158   8.886  11.613   9.467  0.6590  0.5979  0.4077
21060SOL    HW175159   8.817  11.680   9.467  0.2693  0.2299 -1.0929
21060SOL    HW275160   8.845  11.537   9.509  0.5392  0.7512  0.5710
21061SOL     OW75161   5.456  13.308  11.619 -0.7796  0.0999  0.1657
21061SOL    HW175162   5.459  13.392  11.574 -0.0822  0.6619  1.1983
21061SOL    HW275163   5.530  13.311  11.680 -1.5858 -0.6645  1.2345
21062SOL     OW75164  13.454   0.971  10.187 -0.1171 -0.0075 -0.1010
21062SOL    HW175165  13.420   0.941  10.272 -0.2521 -0.0814 -0.1806
21062SOL    HW275166  13.548   0.953  10.191  0.0776  1.0134  0.4727
21063SOL     OW75167   7.476   8.994   4.127  0.3782 -0.2142 -0.2843
21063SOL    HW175168   7.456   9.009   4.220 -0.4492  0.4149 -0.5508
21063SOL    HW275169   7.526   8.913   4.126  0.0942 -0.4143  0.6815
21064SOL     OW75170   9.030   6.097  13.083  0.8051 -0.3989  0.7544
21064SOL    HW175171   9.124   6.105  13.064  0.4056  0.8405 -0.9566
21064SOL    HW275172   9.001   6.023  13.030  0.5273  0.2515 -0.0203
21065SOL     OW75173   7.386   3.945   9.926  0.2089  0.2485  0.4937
21065SOL    HW175174   7.322   3.881   9.959  0.7336  0.0411  1.1193
21065SOL    HW275175   7.448   3.956   9.998 -0.0740  1.7397  0.5273
21066SOL     OW75176   2.837   3.608   4.085  0.1505  0.0889  0.1208
21066SOL    HW175177   2.892   3.687   4.093 -1.8800  1.4820  1.4621
21066SOL    HW275178   2.751   3.636   4.118 -1.3365 -2.0298 -1.6904
21067SOL     OW75179   8.438   2.238   5.859  0.7995  0.1463 -0.6895
21067SOL    HW175180   8.463   2.246   5.767  0.9939 -1.0213 -0.7617
21067SOL    HW275181   8.506   2.285   5.907 -0.0299  1.9386 -1.1916
21068SOL     OW75182   1.390   0.778  12.910  0.8975 -0.3768 -0.7876
21068SOL    HW175183   1.381   0.747  12.819 -0.3953 -0.8825 -0.4996
21068SOL    HW275184   1.437   0.861  12.902 -0.3989  0.2862 -2.0673
21069SOL     OW75185   7.485   7.368  10.742 -0.9568  0.0263 -0.0198
21069SOL    HW175186   7.456   7.331  10.658 -2.2854  0.8528  0.0614
21069SOL    HW275187   7.504   7.291  10.796 -1.0764 -0.5222 -0.7338
21070SOL     OW75188  13.724   0.537   2.496  0.4592  0.2238 -0.0869
21070SOL    HW175189  13.639   0.577   2.477  0.7288  1.3323  0.9238
21070SOL    HW275190  13.775   0.607   2.537  1.7216 -0.5477 -0.2869
21071SOL     OW75191   9.179  11.189   5.233 -0.1930 -0.0222  0.3107
21071SOL    HW175192   9.233  11.110   5.240 -0.2085 -0.0082  0.5918
21071SOL    HW275193   9.224  11.243   5.168  0.8333  0.5390  1.4434
21072SOL     OW75194   9.306   2.074   0.811 -0.2040 -0.4105  0.1433
21072SOL    HW175195   9.291   2.061   0.904  0.5126 -1.8525  0.0814
21072SOL    HW275196   9.243   2.017   0.768  0.4053 -0.8263 -0.2197
21073SOL     OW75197   8.204   2.055   3.948 -0.5199  0.2596  0.1915
21073SOL    HW175198   8.245   2.018   3.870  0.4915  0.8383  0.4230
21073SOL    HW275199   8.255   2.018   4.021 -0.1111  1.3446  0.4665
21074SOL     OW75200   5.056   0.304   0.429  0.3108  0.8081 -0.1751
21074SOL    HW175201   5.147   0.300   0.459  0.8803 -2.2523 -1.7728
21074SOL    HW275202   5.006   0.260   0.498  0.5947 -0.3421 -0.6730
21075SOL     OW75203   7.839  12.690   8.474 -0.3171  0.4525  0.1700
21075SOL    HW175204   7.828  12.730   8.560  1.0925 -0.7813  0.9799
21075SOL    HW275205   7.913  12.736   8.435  1.3753 -1.2689  1.1461
21076SOL     OW75206   7.888   4.382   6.896  0.2284 -0.1312  0.2672
21076SOL    HW175207   7.825   4.430   6.950  0.2892  0.3612 -0.0909
21076SOL    HW275208   7.865   4.406   6.806  0.7404 -0.1879  0.1201
21077SOL     OW75209   3.892   6.410  11.285 -0.1016  0.3769 -0.2040
21077SOL    HW175210   3.850   6.452  11.209  1.1713  0.0350 -1.1191
21077SOL    HW275211   3.981   6.446  11.286  0.1623 -0.2786  0.6188
21078SOL     OW75212   5.802   4.335   2.640 -0.0445  0.5734  0.0736
21078SOL    HW175213   5.828   4.416   2.598 -1.3673 -0.1216 -2.2452
21078SOL    HW275214   5.839   4.266   2.585  1.6203 -0.4955  2.3401
21079SOL     OW75215   0.766  11.146  13.388 -0.0166 -0.3309 -0.3884
21079SOL    HW175216   0.829  11.084  13.350  1.0848  0.7523 -0.3693
21079SOL    HW275217   0.803  11.232  13.372 -1.2139  0.3174  0.1583
21080SOL     OW75218   1.192   6.948   2.079  0.2980 -0.2684 -0.2505
21080SOL    HW175219   1.181   7.035   2.039  0.1091 -0.6367 -1.0171
21080SOL    HW275220   1.236   6.966   2.163 -0.0301  0.5970 -0.2467
21081SOL     OW75221   2.299   7.075   7.317 -0.2437 -0.1147 -0.3591
21081SOL    HW175222   2.328   7.007   7.256  0.9226 -0.4771  0.5715
21081SOL    HW275223   2.238   7.128   7.265  1.1824 -0.0190 -2.0497
21082SOL     OW75224  10.932   4.999   8.732  0.5171  0.3770  0.1210
21082SOL    HW175225  10.987   4.924   8.753 -0.6100 -1.2121 -2.1807
21082SOL    HW275226  10.994   5.067   8.703  1.4032 -0.6842 -0.5395
21083SOL     OW75227   5.838   2.672  10.763  0.2410 -0.1261  0.2720
21083SOL    HW175228   5.885   2.591  10.743  1.9690  0.1613  2.6997
21083SOL    HW275229   5.790   2.692  10.683  0.3608 -3.1079 -0.6773
21084SOL     OW75230   1.180   1.284   6.532  0.0376 -0.0987  0.5164
21084SOL    HW175231   1.191   1.211   6.594  1.9770 -2.0199 -1.8793
21084SOL    HW275232   1.116   1.252   6.468  0.1048  0.7565  0.0049
21085SOL     OW75233   3.221  12.663   6.708  0.2188 -0.0600 -0.1031
21085SOL    HW175234   3.224  12.740   6.650 -0.4530 -0.1525 -0.2672
21085SOL    HW275235   3.132  12.664   6.744  0.7032  0.1343  1.1162
21086SOL     OW75236   5.683  11.876  12.321 -0.0353  0.0784  0.4433
21086SOL    HW175237   5.750  11.901  12.257 -1.1242 -0.6004 -1.0212
21086SOL    HW275238   5.602  11.914  12.288 -1.0338 -2.1201  0.1731
21087SOL     OW75239   9.036   4.676   2.309 -0.1017  0.1832  0.0291
21087SOL    HW175240   8.954   4.704   2.267  0.1426 -0.5280 -0.9627
21087SOL    HW275241   9.058   4.594   2.266  1.4587  0.6605 -0.1400
21088SOL     OW75242   6.342   8.243   4.638 -0.3057  0.2136  0.1682
21088SOL    HW175243   6.311   8.169   4.692  0.2261 -0.8326 -0.9179
21088SOL    HW275244   6.411   8.205   4.584 -0.1746  1.4770 -0.5708
21089SOL     OW75245   3.735   3.344   0.518  0.7912  0.1432 -0.2375
21089SOL    HW175246   3.822   3.334   0.559  0.5263 -0.5026  0.1911
21089SOL    HW275247   3.687   3.266   0.547 -0.3826  1.1643  0.6499
21090SOL     OW75248   9.624   7.530   9.551  0.1292  0.1936 -0.9723
21090SOL    HW175249   9.661   7.566   9.471  1.4260  0.3729 -0.3080
21090SOL    HW275250   9.699   7.508   9.605 -0.7277  0.3062  0.3076
21091SOL     OW75251   3.136  11.830   3.540  0.3882  0.0981  0.6322
21091SOL    HW175252   3.044  11.807   3.550  0.2455  0.6594  0.6346
21091SOL    HW275253   3.149  11.903   3.600  0.1963  1.6883 -1.1800
21092SOL     OW75254   9.357  13.214   0.660 -0.2935  0.2853 -0.2710
21092SOL    HW175255   9.441  13.203   0.616  0.7800  3.3898  0.7819
21092SOL    HW275256   9.303  13.263   0.598 -0.1443  1.2260  0.3325
21093SOL     OW75257  12.954   4.220  13.414 -0.1460  0.3462  0.2120
21093SOL    HW175258  13.018   4.280  13.452  1.0771 -0.8083  0.0443
21093SOL    HW275259  12.887   4.210  13.481  0.9948 -0.1471  1.3133
21094SOL     OW75260  11.915  12.691   8.080 -0.4933 -0.2078  0.2709
21094SOL    HW175261  11.954  12.663   8.163  0.2968  0.9050  0.3045
21094SOL    HW275262  11.901  12.786   8.091 -1.3483 -0.2283 -0.4935
21095SOL     OW75263   3.629   0.170   5.444 -0.2743 -0.0377  0.1193
21095SOL    HW175264   3.676   0.172   5.360  2.7391 -1.0154  1.6385
21095SOL    HW275265   3.605   0.261   5.461  2.8214  0.8932  0.0847
21096SOL     OW75266   0.490  13.622   8.099 -0.3763 -0.3473  0.1201
21096SOL    HW175267   0.497  13.573   8.017 -1.4378 -1.0790  0.4417
21096SOL    HW275268   0.453  13.706   8.073 -1.0771 -0.7166 -0.1300
21097SOL     OW75269   1.432  10.997  13.104 -0.4906  0.3788 -0.1443
21097SOL    HW175270   1.505  11.040  13.148  0.2010 -0.7209 -0.1997
21097SOL    HW275271   1.412  11.053  13.029 -0.2286  1.0976  0.3183
21098SOL     OW75272  13.474   3.643   6.142  1.0849  0.3668 -0.3696
21098SOL    HW175273  13.382   3.620   6.142  0.4988  2.3695 -2.4316
21098SOL    HW275274  13.520   3.560   6.124 -0.6106 -0.0676 -3.3901
21099SOL     OW75275   8.263   8.327   3.975  0.2932  0.2857 -0.0145
21099SOL    HW175276   8.218   8.297   4.054 -0.8724  1.1758 -0.3130
21099SOL    HW275277   8.257   8.422   3.979  0.2156  0.3431 -1.1727
21100SOL     OW75278   0.960   9.702   1.817  0.2568 -0.3887  0.7432
21100SOL    HW175279   1.027   9.705   1.886 -1.4030 -1.8802  2.5442
21100SOL    HW275280   0.883   9.665   1.860 -1.4149  0.2269 -1.5216
21101SOL     OW75281   1.079   9.507  13.920 -0.4954 -0.2116 -1.2078
21101SOL    HW175282   1.061   9.553  13.839  0.7141 -0.8114 -1.8442
21101SOL    HW275283   1.127   9.428  13.893 -1.1757 -1.0681 -0.0234
21102SOL     OW75284   9.397  13.560   4.980 -0.1443  0.4267  0.7778
21102SOL    HW175285   9.342  13.603   5.045 -0.6584  1.3662 -0.2388
21102SOL    HW275286   9.454  13.630   4.947  1.6877 -0.5204  1.7978
21103SOL     OW75287   3.101   0.305   0.435  0.1849 -0.0063 -0.5870
21103SOL    HW175288   3.147   0.237   0.485 -0.8281 -0.7645 -0.6432
21103SOL    HW275289   3.147   0.308   0.351 -0.6573 -1.7562 -1.1701
21104SOL     OW75290   2.948  10.399   0.679 -0.2298  0.0876  0.2282
21104SOL    HW175291   2.938  10.357   0.593 -0.9972 -0.4517  0.5759
21104SOL    HW275292   2.861  10.398   0.717  0.1518  0.0976  1.1250
21105SOL     OW75293   1.288  13.581   2.876  0.3339  0.0446 -0.4234
21105SOL    HW175294   1.287  13.528   2.796 -0.8970 -1.8914  0.7690
21105SOL    HW275295   1.317  13.520   2.944 -1.3818  0.7857  1.0556
21106SOL     OW75296   0.009   3.763  12.179 -0.3723  0.3990 -0.3787
21106SOL    HW175297  -0.031   3.718  12.254 -0.0617 -0.5575 -0.7727
21106SOL    HW275298   0.091   3.717  12.164 -0.5207  0.4476 -1.4263
21107SOL     OW75299  12.440   4.942   0.565  0.1591  0.3151  0.5966
21107SOL    HW175300  12.367   4.983   0.611  0.1412  1.1903 -0.1874
21107SOL    HW275301  12.441   4.852   0.597 -1.8517  0.0135 -0.0484
21108SOL     OW75302   6.853  10.249   8.585 -0.0943  0.5768  0.0644
21108SOL    HW175303   6.767  10.257   8.543  0.3036 -1.6722 -1.3470
21108SOL    HW275304   6.909  10.309   8.536 -0.2313 -0.1255 -1.0096
21109SOL     OW75305   2.025  10.539   4.413  0.0547  0.2102 -0.1715
21109SOL    HW175306   2.008  10.448   4.389  1.1975 -0.0690  0.0089
21109SOL    HW275307   2.051  10.581   4.331  0.9849 -0.0030  0.0013
21110SOL     OW75308   8.500   5.141   8.382 -0.2981 -0.4292 -0.2451
21110SOL    HW175309   8.420   5.155   8.432 -0.0313 -0.5805  0.2363
21110SOL    HW275310   8.473   5.143   8.291 -1.1586 -2.2373 -0.0665
21111SOL     OW75311   7.758   9.164   9.905  0.1365  0.3338  0.3488
21111SOL    HW175312   7.747   9.069   9.903 -0.8924  0.4485 -0.9660
21111SOL    HW275313   7.724   9.191   9.990  1.6075 -0.5689  1.2711
21112SOL     OW75314   8.464  10.022   1.580 -0.0156  0.0148 -0.2116
21112SOL    HW175315   8.472  10.091   1.514 -0.7383  0.7443  0.4456
21112SOL    HW275316   8.377  10.036   1.619  0.2678 -0.6093  0.6724
21113SOL     OW75317   4.187  12.605   9.857  0.8992 -0.2594  0.0590
21113SOL    HW175318   4.220  12.516   9.870  0.9166 -0.4562 -1.1740
21113SOL    HW275319   4.118  12.596   9.791 -0.7837  0.3229  1.6237
21114SOL     OW75320  13.917  12.662  10.888  0.3297 -0.1182  0.0142
21114SOL    HW175321  13.881  12.628  10.970 -2.8405  1.5111 -0.5347
21114SOL    HW275322  13.856  12.632  10.821  1.6955  0.3296 -1.4983
21115SOL     OW75323  13.401   6.694  11.754 -0.2186  0.4783  0.2288
21115SOL    HW175324  13.306   6.695  11.765 -0.1545  1.0614  0.7272
21115SOL    HW275325  13.436   6.686  11.842  0.1944 -0.3873  0.0009
21116SOL     OW75326   2.566  10.520   5.102  0.5001 -0.3953 -0.4412
21116SOL    HW175327   2.533  10.464   5.172  1.7230 -1.1828 -0.4658
21116SOL    HW275328   2.488  10.559   5.063 -0.1871  0.4329  1.6370
21117SOL     OW75329   1.947   9.300  12.524 -0.3941 -0.3836 -0.4701
21117SOL    HW175330   2.031   9.339  12.548  1.7110 -1.9540 -4.3326
21117SOL    HW275331   1.963   9.206  12.526 -1.7063 -0.6974 -2.2504
21118SOL     OW75332   4.917  10.959   0.927 -0.0486 -0.2178  0.0220
21118SOL    HW175333   5.013  10.960   0.927  0.0253 -2.2265  0.4971
21118SOL    HW275334   4.892  11.049   0.947  1.7607  0.0551  1.3769
21119SOL     OW75335   3.362   6.719   6.655 -0.0987 -0.0794  0.4299
21119SOL    HW175336   3.449   6.734   6.693  0.3640 -0.3244 -0.5254
21119SOL    HW275337   3.319   6.805   6.660  0.8104  0.4672 -0.6201
21120SOL     OW75338  11.546  11.464  13.937 -0.7615 -0.0695 -0.4315
21120SOL    HW175339  11.556  11.542  13.883  0.6891  0.3774  0.4058
21120SOL    HW275340  11.603  11.480  14.012  0.0959 -2.1840 -0.5423
21121SOL     OW75341   1.468   2.687   0.214 -0.2972  0.0764  0.3594
21121SOL    HW175342   1.466   2.774   0.253  1.5420  0.6928 -0.7945
21121SOL    HW275343   1.400   2.690   0.146 -0.4233  0.5126  0.5031
21122SOL     OW75344  13.508   4.643   1.268  0.1721 -0.4505  0.6754
21122SOL    HW175345  13.583   4.596   1.305  0.4225 -0.4691  0.1426
21122SOL    HW275346  13.491   4.714   1.330  2.7615  1.6591 -0.8572
21123SOL     OW75347  13.452   8.963   7.821  0.1313 -0.5683 -0.3043
21123SOL    HW175348  13.534   8.924   7.791  0.7508  0.3168  0.2050
21123SOL    HW275349  13.473   9.055   7.837 -0.8419 -0.4341  0.2964
21124SOL     OW75350   7.150  12.692  11.798 -0.4568  0.2076  0.1346
21124SOL    HW175351   7.142  12.762  11.732  0.8756  0.8819  0.6605
21124SOL    HW275352   7.074  12.637  11.782 -1.7260  1.9266 -0.1263
21125SOL     OW75353   9.344  12.120   0.364 -0.3176  0.1750 -0.1425
21125SOL    HW175354   9.312  12.200   0.323 -0.2459  0.8286  1.0475
21125SOL    HW275355   9.440  12.127   0.360 -0.2682  1.2212  1.9185
21126SOL     OW75356   3.058   5.469   4.626  0.3314  0.1162 -0.0274
21126SOL    HW175357   3.042   5.544   4.569  1.2935 -0.8853 -1.6890
21126SOL    HW275358   2.988   5.408   4.606 -0.7562  0.7385  1.7072
21127SOL     OW75359   6.924   1.978   4.783  0.3670  0.1047 -0.7546
21127SOL    HW175360   6.847   1.967   4.727 -0.6906  1.1757  0.4062
21127SOL    HW275361   6.909   2.061   4.828  1.1155 -0.7116  1.1494
21128SOL     OW75362   4.361   2.157   5.765 -0.1175 -0.0785  0.0742
21128SOL    HW175363   4.446   2.145   5.724 -0.0934  0.7055 -0.1035
21128SOL    HW275364   4.309   2.082   5.735  0.3422 -0.2762 -0.2284
21129SOL     OW75365   8.502   2.243   5.599 -0.2941  0.0879  0.1206
21129SOL    HW175366   8.537   2.312   5.543 -1.3291  0.3433 -0.2192
21129SOL    HW275367   8.561   2.169   5.584  0.1366  0.5268 -0.3999
21130SOL     OW75368  12.746   0.574   0.934 -0.1821 -0.0545 -0.3398
21130SOL    HW175369  12.777   0.664   0.922  2.3693 -0.4760  2.0631
21130SOL    HW275370  12.824   0.525   0.960 -1.9715 -2.4357  0.9391
21131SOL     OW75371  10.850  12.746  12.597 -0.3525 -0.4792 -0.0417
21131SOL    HW175372  10.776  12.695  12.564 -0.6265 -0.8629  1.1043
21131SOL    HW275373  10.818  12.785  12.678  0.1898  0.7043 -0.3734
21132SOL     OW75374  12.020   3.645   6.540  0.2556  0.1774 -0.1966
21132SOL    HW175375  12.031   3.693   6.457 -0.7379  1.6146  0.4706
21132SOL    HW275376  12.063   3.561   6.524  0.8151  0.7345 -1.8945
21133SOL     OW75377  12.675   5.857   1.613  0.4013  0.0241  0.1719
21133SOL    HW175378  12.580   5.856   1.630  0.3847 -2.7148  0.4635
21133SOL    HW275379  12.711   5.913   1.682 -0.8584 -0.4637  1.2724
21134SOL     OW75380   9.709  13.641   6.081 -0.5730 -0.5348  0.1299
21134SOL    HW175381   9.697  13.598   6.166  0.4389  0.0908  0.6163
21134SOL    HW275382   9.664  13.584   6.019 -1.3123 -1.0245  1.0787
21135SOL     OW75383   7.587  12.884   9.211 -0.6240 -0.2665 -0.0349
21135SOL    HW175384   7.588  12.810   9.271 -0.8952  0.1246  0.4548
21135SOL    HW275385   7.520  12.860   9.146 -0.2430 -0.7428 -0.2599
21136SOL     OW75386   8.626   3.146   2.116 -0.1980 -0.7050  0.2655
21136SOL    HW175387   8.634   3.240   2.136  0.4944 -0.7318  0.1437
21136SOL    HW275388   8.532   3.131   2.111 -0.3363  0.4010 -1.6639
21137SOL     OW75389  12.376   4.186  11.314 -0.2217  0.3630  1.0229
21137SOL    HW175390  12.330   4.269  11.325  0.9994  1.3278 -0.6453
21137SOL    HW275391  12.307   4.120  11.316 -1.1962  1.3482  2.6903
21138SOL     OW75392   1.629   1.520   6.559  0.3922 -0.1535 -0.2799
21138SOL    HW175393   1.561   1.474   6.509  0.6783  0.4351 -1.2396
21138SOL    HW275394   1.680   1.566   6.492 -0.8063  2.8590  0.7149
21139SOL     OW75395  11.046   6.038   1.639 -0.4550  0.0196 -0.4287
21139SOL    HW175396  10.973   6.049   1.578 -0.2444  2.0050 -0.4009
21139SOL    HW275397  11.108   6.107   1.613 -0.0885  0.5152  1.6272
21140SOL     OW75398   5.249   2.097   7.474  0.3757 -0.3370  0.3015
21140SOL    HW175399   5.238   2.141   7.559 -0.0558 -0.0717  0.1084
21140SOL    HW275400   5.289   2.012   7.497 -0.7046 -0.7137  0.8855
21141SOL     OW75401   0.914   7.080   5.811 -0.3330  0.1939  0.2737
21141SOL    HW175402   0.952   7.114   5.893  2.0424 -1.0332 -0.2342
21141SOL    HW275403   0.847   7.018   5.839  2.8225 -2.9823  1.5712
21142SOL     OW75404   1.143  10.245   3.077 -0.1693  0.1412  0.2627
21142SOL    HW175405   1.085  10.175   3.109  0.1958  0.1740  1.0243
21142SOL    HW275406   1.100  10.326   3.103 -0.6473  0.2188 -0.7177
21143SOL     OW75407   8.473   7.955   1.549  0.0417 -0.3048 -0.5421
21143SOL    HW175408   8.545   7.928   1.607  0.6179  1.2923 -0.4630
21143SOL    HW275409   8.415   7.879   1.547  0.7383 -0.9310  0.9756
21144SOL     OW75410  13.845  12.046   0.797 -0.5454  0.2343 -0.7431
21144SOL    HW175411  13.856  11.961   0.838  2.4773  0.0890 -1.5990
21144SOL    HW275412  13.780  12.091   0.850 -0.2223 -1.6235  1.3493
21145SOL     OW75413  10.372  10.453  11.776 -0.3245 -0.3559  0.3199
21145SOL    HW175414  10.358  10.440  11.870  0.0949 -0.3296  0.3869
21145SOL    HW275415  10.435  10.385  11.751 -2.0842 -1.8262 -0.4044
21146SOL     OW75416  10.047  11.083   0.978 -0.6096  0.0143 -0.1708
21146SOL    HW175417  10.041  11.083   0.882 -0.8033  1.2375 -0.1726
21146SOL    HW275418  10.028  11.173   1.003 -0.4562 -0.2715  1.0218
21147SOL     OW75419   0.959   9.902  13.795  0.6126  0.4779  0.0084
21147SOL    HW175420   0.944   9.996  13.785 -0.8926 -0.0098 -3.9956
21147SOL    HW275421   1.053   9.895  13.813  1.4319  2.7312 -2.6802
21148SOL     OW75422   8.954   3.027   6.853 -0.3668  0.5887  0.2121
21148SOL    HW175423   8.990   3.030   6.765  0.8920  0.3694  0.7011
21148SOL    HW275424   8.869   3.070   6.846 -0.7955 -0.4331 -1.3407
21149SOL     OW75425  12.258   2.743   5.998 -0.1949 -0.5557  0.2042
21149SOL    HW175426  12.239   2.734   5.905 -1.0792 -0.9060  0.4073
21149SOL    HW275427  12.256   2.837   6.013  0.4658 -0.4695 -0.2321
21150SOL     OW75428   0.592  12.316  10.899 -0.5832  0.5081 -0.7693
21150SOL    HW175429   0.523  12.262  10.859  0.2539 -0.6132 -0.7396
21150SOL    HW275430   0.567  12.323  10.991 -1.2942  1.1353 -1.0052
21151SOL     OW75431   1.855   6.256  13.250 -0.2866 -0.6001  0.3129
21151SOL    HW175432   1.792   6.321  13.217  1.0798  0.0069 -1.2632
21151SOL    HW275433   1.802   6.179  13.269 -1.8357  0.6658  1.3750
21152SOL     OW75434   7.965  11.195   9.324  0.1067 -0.1434 -0.3289
21152SOL    HW175435   7.967  11.267   9.261  0.3800 -0.9266 -1.2461
21152SOL    HW275436   8.057  11.170   9.335  0.1134  0.3336  0.8088
21153SOL     OW75437   1.816   3.240   1.726  0.2228 -0.1250 -0.2543
21153SOL    HW175438   1.827   3.227   1.632  1.0379  0.0930 -0.1954
21153SOL    HW275439   1.747   3.307   1.733  0.3318  0.0363 -0.7015
21154SOL     OW75440   2.385   4.017   1.218 -0.6401  0.5882 -0.1877
21154SOL    HW175441   2.410   3.928   1.193  2.2652  1.0175  0.7835
21154SOL    HW275442   2.336   4.006   1.299  0.7372 -0.1363  0.6018
21155SOL     OW75443   3.425   3.109   8.710 -0.8755 -0.6168 -0.5466
21155SOL    HW175444   3.389   3.196   8.692  0.0738 -0.3576 -1.2737
21155SOL    HW275445   3.492   3.124   8.776 -3.5580 -1.4142  2.6391
21156SOL     OW75446   0.541   7.259   5.481 -0.7412  0.1184  0.4576
21156SOL    HW175447   0.550   7.244   5.575 -0.6930  0.7876  0.5666
21156SOL    HW275448   0.630   7.251   5.446 -0.7181  0.1424  0.5110
21157SOL     OW75449   4.816  13.364   3.076  0.1550  0.4383  0.9961
21157SOL    HW175450   4.805  13.458   3.093  0.8644  0.5729  0.7479
21157SOL    HW275451   4.909  13.348   3.090  0.4060  0.1555 -0.7652
21158SOL     OW75452   4.692   6.793   1.624  0.4691 -0.1451 -0.3164
21158SOL    HW175453   4.725   6.709   1.655  0.6973 -0.4792 -1.4142
21158SOL    HW275454   4.646   6.772   1.543  0.8027  0.8319 -0.7733
21159SOL     OW75455   0.799  13.747   9.129  0.0043  0.5846 -0.0298
21159SOL    HW175456   0.736  13.746   9.201  1.8971  1.2350  1.7466
21159SOL    HW275457   0.847  13.664   9.138  0.0595  0.5295 -0.7619
21160SOL     OW75458  11.347   9.018   6.258 -0.2224  0.2606  0.6304
21160SOL    HW175459  11.428   9.037   6.305  1.3391 -0.3457 -1.6239
21160SOL    HW275460  11.303   8.952   6.311  1.8982 -1.0822  0.8345
21161SOL     OW75461  13.394  12.807   3.037 -0.2240  0.0685 -0.0038
21161SOL    HW175462  13.458  12.783   2.970 -0.2910 -2.5001  0.7272
21161SOL    HW275463  13.310  12.776   3.003 -1.0634  2.7097 -0.5999
21162SOL     OW75464  12.527   9.192   4.408  0.3035 -0.6604  0.4777
21162SOL    HW175465  12.617   9.161   4.395  0.4898  0.5322 -1.4688
21162SOL    HW275466  12.515   9.259   4.340 -2.7990 -2.3436 -0.8191
21163SOL     OW75467   3.463   2.191   3.585 -0.1174 -0.0890  0.2271
21163SOL    HW175468   3.390   2.139   3.618  1.1854 -1.9467  0.3474
21163SOL    HW275469   3.446   2.200   3.491 -0.6808 -0.1653  0.3178
21164SOL     OW75470   1.322  12.280   5.082 -0.4158  0.0252 -0.3466
21164SOL    HW175471   1.318  12.322   5.168 -1.3526 -0.6173 -0.0757
21164SOL    HW275472   1.247  12.316   5.034  0.5572  1.0101 -1.2065
21165SOL     OW75473   1.286   8.909   8.715 -0.1242  0.4681 -0.2183
21165SOL    HW175474   1.202   8.937   8.751 -0.5437  0.5937 -1.2421
21165SOL    HW275475   1.292   8.816   8.737 -0.3562  0.5451  0.1790
21166SOL     OW75476   2.940   1.317   8.431 -0.1493 -0.4459 -0.1442
21166SOL    HW175477   2.951   1.322   8.525 -0.6536  1.1738 -0.1444
21166SOL    HW275478   3.014   1.264   8.400  0.2807 -0.5856  1.0942
21167SOL     OW75479   4.799   3.525   8.982  0.4555 -0.3981  0.0596
21167SOL    HW175480   4.766   3.470   9.053  1.7397 -0.8681  0.3117
21167SOL    HW275481   4.870   3.575   9.022  0.2595  0.3753 -0.5428
21168SOL     OW75482   8.198   2.372   0.641  0.2490  0.3612  0.2718
21168SOL    HW175483   8.237   2.366   0.554 -0.4204  0.9481 -0.0789
21168SOL    HW275484   8.272   2.392   0.699  0.6535  0.2529 -0.2050
21169SOL     OW75485  10.431   7.470   0.486 -0.0840 -0.2771  0.2451
21169SOL    HW175486  10.462   7.403   0.426 -0.9792  0.6317 -1.3262
21169SOL    HW275487  10.502   7.534   0.490  0.0594 -0.4413  0.3137
21170SOL     OW75488   0.715   8.058   5.791  0.1400 -0.4534 -0.9827
21170SOL    HW175489   0.742   8.029   5.878  1.0260  1.7402 -0.4543
21170SOL    HW275490   0.793   8.045   5.736  1.3356  2.6408 -0.2492
21171SOL     OW75491   6.592   0.988  13.913  0.6159  0.4732 -0.3351
21171SOL    HW175492   6.563   0.931  13.842  1.5481  0.6325 -0.8574
21171SOL    HW275493   6.512   1.031  13.944 -0.0168 -0.7060 -0.2908
21172SOL     OW75494   6.581   6.454  12.065 -0.2256  0.0257  0.2961
21172SOL    HW175495   6.587   6.467  11.970 -0.7621  0.1051  0.2716
21172SOL    HW275496   6.595   6.360  12.077 -1.7368 -0.2610 -0.0119
21173SOL     OW75497   1.245   5.487   3.628 -0.6940  0.2053 -0.3578
21173SOL    HW175498   1.308   5.452   3.566  0.0116  2.8071 -1.2613
21173SOL    HW275499   1.290   5.485   3.713  0.2094  0.9899 -0.7979
21174SOL     OW75500  10.269   6.471   2.543  0.0765  0.3953 -0.4602
21174SOL    HW175501  10.310   6.392   2.508  2.9060  1.5154  0.0769
21174SOL    HW275502  10.222   6.509   2.469 -0.5597 -1.2667 -0.9550
21175SOL     OW75503   0.376   6.273  10.137  0.2661  0.1319 -0.0215
21175SOL    HW175504   0.404   6.362  10.115  0.1256 -0.2218 -1.7796
21175SOL    HW275505   0.281   6.280  10.147  0.0134 -0.1017 -1.9006
21176SOL     OW75506   1.941  10.401   8.068 -0.4044 -0.4087 -0.5265
21176SOL    HW175507   1.868  10.444   8.025  0.4828 -1.2684 -3.0897
21176SOL    HW275508   1.948  10.316   8.024  3.3580  0.4248 -1.9046
21177SOL     OW75509   1.287  11.100   2.024 -0.2699  0.3258 -0.1048
21177SOL    HW175510   1.286  11.163   1.952  0.7884  0.4228 -0.0409
21177SOL    HW275511   1.347  11.138   2.088 -0.5082 -0.2007  0.4367
21178SOL     OW75512   2.977   9.252   3.185  0.3539 -0.5303 -0.2514
21178SOL    HW175513   2.919   9.281   3.115 -0.4336 -0.1158  0.5654
21178SOL    HW275514   3.014   9.170   3.152  0.7061  0.1166 -1.5341
21179SOL     OW75515   1.632  11.063   9.933  0.1798  0.4919 -0.2932
21179SOL    HW175516   1.584  10.984   9.906  0.6519 -0.0221  0.3487
21179SOL    HW275517   1.633  11.117   9.854 -0.0145 -0.2083 -0.7958
21180SOL     OW75518   0.551   8.342  12.731 -0.1881  0.2138  0.3004
21180SOL    HW175519   0.471   8.393  12.724 -1.3346 -1.6279 -0.7654
21180SOL    HW275520   0.615   8.392  12.680 -0.7229  1.5181  0.8606
21181SOL     OW75521   3.521   0.558   4.517 -0.5444 -0.2256  0.3868
21181SOL    HW175522   3.452   0.559   4.584  0.6714 -0.8552  1.7160
21181SOL    HW275523   3.598   0.593   4.562 -0.4218  2.4328 -1.6363
21182SOL     OW75524  13.652   4.065  11.986 -0.2017 -0.1484  0.2036
21182SOL    HW175525  13.739   4.031  12.004 -0.9043 -2.5945 -0.6683
21182SOL    HW275526  13.664   4.122  11.910  0.5561 -0.8120 -0.1827
21183SOL     OW75527  11.428   2.953   4.842 -0.6086  0.1706  0.3289
21183SOL    HW175528  11.426   2.913   4.755  0.9815  0.2288  0.2223
21183SOL    HW275529  11.506   2.915   4.883  0.5377  2.5212  0.5072
21184SOL     OW75530   8.042   4.619   9.199  0.4234  0.0197 -0.5981
21184SOL    HW175531   7.963   4.571   9.173  0.8045 -0.4208 -0.9552
21184SOL    HW275532   8.015   4.711   9.199  0.0683 -0.0789 -1.2813
21185SOL     OW75533   5.648   9.021   6.578 -0.0372  0.4893 -0.0247
21185SOL    HW175534   5.700   8.942   6.591  1.4167  1.1735 -1.2808
21185SOL    HW275535   5.563   8.990   6.547  0.7701 -0.5848 -1.2641
21186SOL     OW75536   9.649   9.088  12.609  0.5058  0.0727  0.3368
21186SOL    HW175537   9.597   9.153  12.561 -1.2183 -0.0069  1.9669
21186SOL    HW275538   9.633   9.108  12.701  1.1477 -1.7419  0.8791
21187SOL     OW75539   2.881   3.987   6.154 -0.1362  0.4384 -0.0177
21187SOL    HW175540   2.918   4.062   6.107  1.0579 -0.1138  0.0048
21187SOL    HW275541   2.787   3.993   6.138  0.1281  0.8722 -1.5816
21188SOL     OW75542  13.821   7.398  13.148 -0.2177 -0.0763  0.0615
21188SOL    HW175543  13.863   7.350  13.220 -0.6059  0.3107  0.5570
21188SOL    HW275544  13.894   7.434  13.098  0.0607 -0.2607  0.3289
21189SOL     OW75545  10.939   0.723   2.092  0.2733 -0.2120  0.3711
21189SOL    HW175546  10.994   0.649   2.067 -0.4590 -1.4530  2.2485
21189SOL    HW275547  10.857   0.709   2.045  1.1093  1.0814 -1.6107
21190SOL     OW75548   6.609  10.750   3.788 -0.2163 -0.2579 -0.1033
21190SOL    HW175549   6.581  10.745   3.879 -0.8705 -0.6849 -0.3260
21190SOL    HW275550   6.541  10.801   3.744  0.3144  0.3203 -0.2743
21191SOL     OW75551   4.540   4.202  13.357 -0.3047 -0.4645  0.1844
21191SOL    HW175552   4.541   4.233  13.448  0.4333  0.6176 -0.1843
21191SOL    HW275553   4.508   4.276  13.306 -0.2977 -0.9247 -0.5001
21192SOL     OW75554   1.351   0.052   3.198 -0.5372 -0.4623  0.1491
21192SOL    HW175555   1.409   0.119   3.163  1.7021 -1.9113  0.8897
21192SOL    HW275556   1.322   0.003   3.120  1.2948 -1.2594 -0.0835
21193SOL     OW75557   5.849  10.437  11.325  0.7025  0.0597 -0.2824
21193SOL    HW175558   5.933  10.394  11.339  0.5530 -0.5601 -1.1812
21193SOL    HW275559   5.839  10.496  11.400  1.3448 -0.7882  0.4920
21194SOL     OW75560   2.950   8.417  10.580 -0.4456  0.3079  0.7679
21194SOL    HW175561   2.915   8.329  10.575 -0.5573  0.3512  0.7823
21194SOL    HW275562   2.951   8.438  10.673 -0.2501  0.2546  0.7796
21195SOL     OW75563  10.120  13.083   9.813  0.1774 -0.1572  0.3940
21195SOL    HW175564  10.138  13.047   9.726  0.6562  0.2455  0.3259
21195SOL    HW275565  10.205  13.084   9.857 -0.1046 -0.5832  0.9549
21196SOL     OW75566  12.780   0.924   4.379 -0.2351 -0.6976 -0.5596
21196SOL    HW175567  12.759   0.903   4.470 -0.7945 -1.1567 -0.7915
21196SOL    HW275568  12.876   0.921   4.375  0.0168  2.1806  0.7089
21197SOL     OW75569   3.971   5.897   0.954  0.2560  0.3706 -0.6853
21197SOL    HW175570   3.878   5.915   0.943  0.2620  0.1363 -1.1235
21197SOL    HW275571   3.973   5.816   1.006  0.1708 -0.9555 -2.6324
21198SOL     OW75572   5.519  13.111   0.902 -0.6332  0.6741  0.1764
21198SOL    HW175573   5.604  13.075   0.879 -0.9913  0.0228 -0.1679
21198SOL    HW275574   5.537  13.201   0.930  0.2529  0.3111  0.8142
21199SOL     OW75575   9.470   2.839   6.954 -0.4251 -0.4344  0.6511
21199SOL    HW175576   9.487   2.826   7.047 -2.3665  0.2090  1.1292
21199SOL    HW275577   9.423   2.922   6.948  2.7557  1.4805 -1.3147
21200SOL     OW75578   7.142  11.280  13.986  0.1763 -0.2310  0.1644
21200SOL    HW175579   7.200  11.236  13.923  0.0901  0.5352 -0.4600
21200SOL    HW275580   7.191  11.357  14.013 -0.4567  0.2990 -0.1911
21201SOL     OW75581   4.999   0.732   6.867  0.3606  0.2987 -0.3863
21201SOL    HW175582   5.090   0.732   6.895  0.1505  0.8780  0.3256
21201SOL    HW275583   4.998   0.789   6.790  0.1972  2.3535  1.0621
21202SOL     OW75584  11.508   9.527   2.188  0.4550 -0.1467 -0.2856
21202SOL    HW175585  11.422   9.551   2.155 -0.2806 -1.6472  0.4374
21202SOL    HW275586  11.559   9.504   2.110  0.1255  0.5168 -0.6929
21203SOL     OW75587   2.100  10.650  10.057  0.3213 -0.0604  0.0397
21203SOL    HW175588   2.109  10.699  10.138 -1.8117 -0.6632  0.7081
21203SOL    HW275589   2.071  10.563  10.084  1.0047 -0.7431 -1.3003
21204SOL     OW75590   8.965   7.201   0.328  0.1461  0.3293 -0.3980
21204SOL    HW175591   8.938   7.119   0.288  0.3227  0.7802 -1.4788
21204SOL    HW275592   8.923   7.269   0.274 -0.1547  0.9533  0.5846
21205SOL     OW75593  11.129  10.833  10.375 -0.4129  0.6649 -0.9425
21205SOL    HW175594  11.208  10.832  10.320  0.3898 -0.2807  0.1797
21205SOL    HW275595  11.063  10.876  10.321  1.0884  2.3019 -1.5997
21206SOL     OW75596   2.594   2.095   6.924 -0.4569 -0.7905 -0.1326
21206SOL    HW175597   2.596   2.001   6.906 -1.1563 -0.6193 -1.1508
21206SOL    HW275598   2.583   2.136   6.839 -1.1155  0.1812  0.4003
21207SOL     OW75599   4.879  13.050  13.240  0.5197 -0.1411  0.8062
21207SOL    HW175600   4.935  12.983  13.278  1.6889 -0.1884 -0.8696
21207SOL    HW275601   4.886  13.036  13.145 -2.3799 -0.1775  0.4922
21208SOL     OW75602   0.863   3.586   2.421  0.2390  0.0029 -0.1614
21208SOL    HW175603   0.939   3.644   2.432  1.4895 -1.7146  0.5982
21208SOL    HW275604   0.863   3.532   2.500 -3.2831  1.5500  1.1039
21209SOL     OW75605  10.564   8.761   1.180  0.5683  0.0992  0.3926
21209SOL    HW175606  10.498   8.709   1.136  2.3424 -1.3904 -0.6678
21209SOL    HW275607  10.608   8.809   1.110  0.9135  0.7043  1.0111
21210SOL     OW75608  13.498  12.796   5.997 -0.2224  0.1212  0.0525
21210SOL    HW175609  13.571  12.854   5.976 -0.2462  0.2080  0.2050
21210SOL    HW275610  13.538  12.709   6.006  0.2317  0.4882  2.2602
21211SOL     OW75611   3.855   4.127  13.039 -0.4170  0.2101 -0.2631
21211SOL    HW175612   3.829   4.202  12.986 -0.3071  0.3511 -0.1189
21211SOL    HW275613   3.945   4.108  13.011  0.9483  2.3914  2.1736
21212SOL     OW75614   0.020   9.176  13.316  0.1378  0.0713 -0.4147
21212SOL    HW175615  -0.030   9.220  13.385 -0.9782  0.2703 -1.3204
21212SOL    HW275616   0.002   9.083  13.329 -1.8166  0.2172 -1.6860
21213SOL     OW75617   5.444   7.040   7.486  0.2659 -0.0443  0.3883
21213SOL    HW175618   5.538   7.026   7.495  0.1808 -1.7038 -0.7414
21213SOL    HW275619   5.408   7.025   7.573  0.7912 -2.1279  0.2972
21214SOL     OW75620   6.613  11.660  13.191 -0.0058 -0.2928  0.2358
21214SOL    HW175621   6.672  11.708  13.133 -2.2188  2.3540 -0.0478
21214SOL    HW275622   6.535  11.646  13.138 -0.7893 -0.9225  1.5244
21215SOL     OW75623   5.566   7.156   0.412 -0.1021  0.6359 -0.1506
21215SOL    HW175624   5.562   7.092   0.341 -0.5947  0.2209  0.2424
21215SOL    HW275625   5.531   7.110   0.488  0.0883  1.1880  0.2810
21216SOL     OW75626   7.799  13.521   8.075 -0.1992 -0.0002 -0.1899
21216SOL    HW175627   7.761  13.433   8.080 -1.6841  0.6693  1.3369
21216SOL    HW275628   7.887  13.507   8.040 -1.0455 -1.8715 -1.7723
21217SOL     OW75629  11.928  10.705   5.735 -0.0142 -0.0770 -0.2382
21217SOL    HW175630  12.023  10.705   5.724 -0.0858  0.4833 -1.0246
21217SOL    HW275631  11.899  10.622   5.699  0.1800 -0.2673  0.0438
21218SOL     OW75632   8.219  12.837  11.805  0.1843 -0.6101 -0.1876
21218SOL    HW175633   8.224  12.745  11.779  0.4098 -0.4598 -0.6806
21218SOL    HW275634   8.275  12.843  11.882  1.6062 -0.5157 -1.1996
21219SOL     OW75635   3.578   9.732   1.734 -0.0170 -0.2714  0.0170
21219SOL    HW175636   3.666   9.712   1.767  0.5629  1.7431 -0.1387
21219SOL    HW275637   3.589   9.816   1.689 -2.3462  0.9278  1.5004
21220SOL     OW75638   4.951   4.822   2.472  0.0290  0.5038 -0.0407
21220SOL    HW175639   4.879   4.861   2.521  0.3132  1.4717 -0.3684
21220SOL    HW275640   4.985   4.894   2.418 -0.2053 -0.4796 -1.5660
21221SOL     OW75641  13.764   2.481   1.277 -0.1868 -0.7406 -0.5313
21221SOL    HW175642  13.750   2.553   1.339 -3.1939 -0.3525 -1.4725
21221SOL    HW275643  13.855   2.455   1.290  0.1596  1.2934  1.8918
21222SOL     OW75644  11.341  10.547   1.090 -0.0374 -0.0159  0.1953
21222SOL    HW175645  11.315  10.475   1.032 -0.7066  1.2521 -1.1485
21222SOL    HW275646  11.340  10.509   1.178 -1.3331 -1.3867 -0.3710
21223SOL     OW75647   6.017   8.902   3.281  0.1666 -0.6709 -0.5112
21223SOL    HW175648   5.926   8.930   3.272  0.0418 -0.8458  0.1274
21223SOL    HW275649   6.068   8.979   3.255 -0.1570 -0.7477 -1.3859
21224SOL     OW75650   2.381   5.700   7.472 -0.5342 -0.3231  0.3942
21224SOL    HW175651   2.324   5.648   7.529 -0.9566 -0.7257 -0.3927
21224SOL    HW275652   2.333   5.781   7.457 -1.2578 -0.9721 -0.8920
21225SOL     OW75653   1.314   2.929   6.627 -0.1529  0.3953 -0.3192
21225SOL    HW175654   1.365   2.892   6.556  0.5001  0.4320  0.1193
21225SOL    HW275655   1.223   2.911   6.604  0.1413 -1.5275 -0.0997
21226SOL     OW75656   0.358  10.302  10.872 -0.1456  0.1975 -0.1932
21226SOL    HW175657   0.377  10.263  10.957 -1.2102  0.5848  0.2501
21226SOL    HW275658   0.285  10.250  10.837  0.2091  0.1083 -0.8194
21227SOL     OW75659   2.271   5.280  11.907 -1.2353  0.1034  0.2221
21227SOL    HW175660   2.333   5.210  11.884 -1.6369 -0.6300  1.3154
21227SOL    HW275661   2.188   5.251  11.870 -1.2020  0.4831 -0.1581
21228SOL     OW75662   2.274   2.405  12.357  0.2730 -0.6455 -0.5871
21228SOL    HW175663   2.196   2.459  12.348  0.3751 -0.4477 -0.3107
21228SOL    HW275664   2.283   2.361  12.273 -0.8396 -1.6365 -0.2099
21229SOL     OW75665   2.774   5.430   4.951  0.2733 -0.2746 -0.3532
21229SOL    HW175666   2.757   5.494   4.882 -1.0548 -0.6902 -0.4417
21229SOL    HW275667   2.859   5.392   4.928  0.1794  0.0900 -1.3712
21230SOL     OW75668  12.159   9.453   1.820  0.4842  0.1993  0.4060
21230SOL    HW175669  12.173   9.499   1.737 -1.2012  0.8783  0.4590
21230SOL    HW275670  12.218   9.496   1.882  0.6335  0.7116 -0.0905
21231SOL     OW75671   5.420   8.163  13.098  0.7579 -0.2516  0.1436
21231SOL    HW175672   5.447   8.155  13.007  0.3262 -1.2863  0.0911
21231SOL    HW275673   5.502   8.178  13.146  1.1864 -1.1957 -0.2602
21232SOL     OW75674   6.859  13.187   3.228 -0.1321 -0.6821 -0.0113
21232SOL    HW175675   6.841  13.280   3.244 -1.1009 -0.6842 -0.9762
21232SOL    HW275676   6.914  13.187   3.149 -1.5898 -0.9868 -1.0583
21233SOL     OW75677   6.606  10.077  12.257 -0.4164 -0.1928  0.3666
21233SOL    HW175678   6.652  10.152  12.220 -0.0728 -0.0424  1.0793
21233SOL    HW275679   6.514  10.103  12.258 -0.1604  0.8245  1.9452
21234SOL     OW75680   6.101   0.192   7.190  0.3780  0.3208  0.5775
21234SOL    HW175681   6.088   0.155   7.278 -0.3454  0.1402  0.4069
21234SOL    HW275682   6.053   0.274   7.192 -0.3666 -0.0856  0.0976
21235SOL     OW75683   8.594   6.865   9.724 -0.0033 -0.8005 -0.4172
21235SOL    HW175684   8.682   6.838   9.750 -0.1028 -0.5088  0.2547
21235SOL    HW275685   8.568   6.803   9.656  1.3073 -0.0046 -1.6986
21236SOL     OW75686  11.892   6.866   9.534 -0.0033  0.3643  0.6539
21236SOL    HW175687  11.851   6.886   9.450 -1.7531  0.4634  1.4870
21236SOL    HW275688  11.851   6.928   9.596  0.3930 -0.4643  1.7848
21237SOL     OW75689   2.033   1.483  11.929 -0.5970  0.1006  0.2741
21237SOL    HW175690   2.031   1.556  11.868 -0.5933  0.0910  0.2626
21237SOL    HW275691   2.127   1.468  11.945 -0.5846 -0.1254  0.0045
21238SOL     OW75692   8.087  12.444   3.219  0.5866 -0.9717  0.7144
21238SOL    HW175693   8.100  12.533   3.188 -0.6204 -0.6057  1.1785
21238SOL    HW275694   8.155  12.392   3.175  0.5752 -0.0307 -0.4661
21239SOL     OW75695   8.681   3.075   5.550  0.2147 -0.1942 -0.3809
21239SOL    HW175696   8.701   3.023   5.473 -0.6498  0.8112 -1.3172
21239SOL    HW275697   8.626   3.019   5.604  0.4195 -0.7260 -0.7189
21240SOL     OW75698   4.322   1.593   4.602 -0.1112  0.0932 -0.0489
21240SOL    HW175699   4.404   1.554   4.572 -0.4110  0.5698 -1.5569
21240SOL    HW275700   4.314   1.674   4.553 -0.9241  0.6439  0.9399
21241SOL     OW75701  11.819   0.873   5.889  0.0011 -0.5355 -0.0541
21241SOL    HW175702  11.825   0.826   5.972 -0.0660  0.5077  0.5520
21241SOL    HW275703  11.796   0.963   5.913 -0.9661 -0.4319 -1.2606
21242SOL     OW75704   5.194   2.862   7.011 -0.1381 -0.2494 -0.9103
21242SOL    HW175705   5.193   2.957   6.998 -1.8329 -0.1069 -0.0011
21242SOL    HW275706   5.275   2.845   7.060  0.3762  0.6557 -1.4201
21243SOL     OW75707   3.433   2.766   7.001 -0.0658 -0.2102  0.4044
21243SOL    HW175708   3.398   2.720   7.077 -1.4221  0.9687  0.5387
21243SOL    HW275709   3.405   2.713   6.926 -0.1492 -0.4967  0.6364
21244SOL     OW75710   5.756   7.057  13.861 -0.4779 -0.2937 -0.0709
21244SOL    HW175711   5.788   6.968  13.874 -1.7512 -0.8920 -0.9465
21244SOL    HW275712   5.677   7.048  13.808 -0.3392  1.3960 -0.6385
21245SOL     OW75713   9.803   3.498   6.696 -0.3742 -0.3374  0.1080
21245SOL    HW175714   9.827   3.565   6.632 -1.8192  2.3067  2.1261
21245SOL    HW275715   9.709   3.484   6.681 -0.6934  0.1924  1.4631
21246SOL     OW75716  11.169   3.710   0.529 -0.5477  0.4157  0.3535
21246SOL    HW175717  11.253   3.702   0.574 -0.7110  1.3680  0.8536
21246SOL    HW275718  11.127   3.626   0.542 -0.0418  0.2336  0.8566
21247SOL     OW75719   2.004   0.634  10.484 -0.6690 -0.0659  0.3465
21247SOL    HW175720   2.041   0.555  10.445 -1.6089 -0.5412  0.3986
21247SOL    HW275721   1.996   0.695  10.410 -0.4079 -0.1870  0.2144
21248SOL     OW75722  10.409   6.952   7.808 -0.1923 -0.0496 -0.2259
21248SOL    HW175723  10.498   6.918   7.820 -1.5631 -4.1111  0.0943
21248SOL    HW275724  10.358   6.875   7.782 -3.5902  2.1686 -0.6996
21249SOL     OW75725   5.295  12.066   6.341  0.2581  0.3254 -0.4887
21249SOL    HW175726   5.297  12.150   6.296 -0.0825  0.1565 -0.8277
21249SOL    HW275727   5.207  12.032   6.324  0.8144 -0.6960 -1.4688
21250SOL     OW75728  10.959   5.832   5.116 -0.1091  0.7706  0.3712
21250SOL    HW175729  11.034   5.785   5.080 -0.4330  1.2556 -0.9819
21250SOL    HW275730  10.979   5.924   5.101 -0.3203  0.9878  1.3457
21251SOL     OW75731   3.961   3.912   6.044  0.7998  0.2678  0.1393
21251SOL    HW175732   4.042   3.903   5.993  0.8792  0.8282  0.1598
21251SOL    HW275733   3.967   3.843   6.111  0.6357 -0.5551 -0.6747
21252SOL     OW75734  10.069   7.638   0.833  0.1352 -0.5625 -0.8574
21252SOL    HW175735  10.015   7.702   0.788 -0.9999 -1.3997 -0.7211
21252SOL    HW275736  10.154   7.680   0.842 -0.2805  0.4934 -1.7343
21253SOL     OW75737  11.435   5.660   6.853  0.4077  0.1709 -0.2200
21253SOL    HW175738  11.510   5.720   6.858  0.0490  0.6528 -0.5188
21253SOL    HW275739  11.465   5.580   6.896  1.4186  0.0287 -1.1382
21254SOL     OW75740   1.146  12.900   9.698  0.1656 -0.9876 -0.0645
21254SOL    HW175741   1.169  12.822   9.749  1.9732 -0.3807  0.0931
21254SOL    HW275742   1.140  12.868   9.608 -2.9983 -2.0564  0.3816
21255SOL     OW75743   4.062   0.491   2.688  0.3442 -0.6737  0.0251
21255SOL    HW175744   4.064   0.410   2.637  1.2755 -0.2930 -0.5545
21255SOL    HW275745   4.154   0.518   2.694 -0.0763  1.1554 -1.0959
21256SOL     OW75746   4.447  13.406  11.337 -0.2288  0.1205 -0.4889
21256SOL    HW175747   4.490  13.383  11.255  1.7640 -1.6323  0.9576
21256SOL    HW275748   4.372  13.346  11.342  0.2507 -0.4879 -0.5406
21257SOL     OW75749   3.241  10.659   7.243 -0.5014 -0.0082 -0.0605
21257SOL    HW175750   3.166  10.718   7.237 -0.9173 -0.4247  0.9855
21257SOL    HW275751   3.212  10.587   7.299 -0.2032 -1.5368 -1.7524
21258SOL     OW75752   7.378   3.209   8.798  0.0371  0.0638 -0.0592
21258SOL    HW175753   7.455   3.204   8.741  0.6224 -1.9329  0.8281
21258SOL    HW275754   7.412   3.200   8.887 -1.1114  0.2816  0.4298
21259SOL     OW75755   3.860   8.996   8.866  0.3739  0.0989 -0.5989
21259SOL    HW175756   3.790   8.931   8.870  0.9277 -0.4857 -0.1693
21259SOL    HW275757   3.878   9.018   8.957  2.4609 -1.6734 -0.4851
21260SOL     OW75758  12.452  13.176   0.688 -0.2552  0.7022 -0.0161
21260SOL    HW175759  12.406  13.200   0.607 -0.5715  1.5527  0.4060
21260SOL    HW275760  12.393  13.205   0.758  0.3586  0.6542  0.5262
21261SOL     OW75761   1.772   5.289   9.643 -0.5020 -0.0929 -0.6601
21261SOL    HW175762   1.809   5.368   9.602 -0.1974  0.1177  0.0041
21261SOL    HW275763   1.819   5.281   9.726  0.1465 -1.5164 -1.1359
21262SOL     OW75764  13.566  13.022   2.922 -0.4254 -0.4778  0.1789
21262SOL    HW175765  13.646  13.053   2.880  0.3429 -1.5635  0.7751
21262SOL    HW275766  13.567  13.064   3.008 -0.8265 -0.0258 -0.0286
21263SOL     OW75767  13.986   0.694  11.032  0.0931  0.4340  0.5625
21263SOL    HW175768  13.916   0.689  11.096 -0.5073 -0.9839 -0.1456
21263SOL    HW275769  13.966   0.624  10.969  2.9830 -1.1512  1.2199
21264SOL     OW75770   9.267   2.607   7.050 -0.1606 -0.5286  0.3347
21264SOL    HW175771   9.215   2.678   7.086  0.4183  0.0822 -0.0031
21264SOL    HW275772   9.358   2.639   7.056  0.0935 -1.1923  0.0832
21265SOL     OW75773   0.764   6.543  12.215  0.4438  0.0862  0.1035
21265SOL    HW175774   0.827   6.571  12.149  1.6989 -0.3078  1.0912
21265SOL    HW275775   0.738   6.623  12.260  0.9646  0.1414  0.3082
21266SOL     OW75776   2.245   5.745   9.762  0.0338  0.0439 -0.1861
21266SOL    HW175777   2.292   5.826   9.782  1.4837 -1.0026  0.8725
21266SOL    HW275778   2.165   5.751   9.814  0.8481  0.1532  1.1045
21267SOL     OW75779  13.262   0.027   9.340 -0.2997  0.3864 -0.8004
21267SOL    HW175780  13.210   0.105   9.359 -0.4198  0.4836 -1.5256
21267SOL    HW275781  13.330   0.057   9.280  0.2857  0.1475 -0.2685
21268SOL     OW75782   5.156  12.145   0.764 -0.3555  0.0027  0.3540
21268SOL    HW175783   5.218  12.073   0.756 -1.0843 -0.7275  1.0286
21268SOL    HW275784   5.209  12.220   0.789  0.2682 -0.5934  0.8550
21269SOL     OW75785  13.848   3.778   4.434 -0.3418 -0.0467 -0.0022
21269SOL    HW175786  13.912   3.770   4.505 -0.7154  0.8340  0.4529
21269SOL    HW275787  13.819   3.688   4.418  2.4434 -0.7780 -1.6166
21270SOL     OW75788  11.759   6.991   8.748  0.3054  0.1966 -0.1963
21270SOL    HW175789  11.665   6.982   8.763  0.3224 -1.5677 -0.9023
21270SOL    HW275790  11.767   7.049   8.673 -0.1180  1.8365  0.9786
21271SOL     OW75791   5.841   9.096   8.078 -0.5311 -0.2463 -0.0232
21271SOL    HW175792   5.782   9.133   8.144 -0.0686  0.9345 -0.2510
21271SOL    HW275793   5.815   9.004   8.072 -1.8726  0.0829  0.3944
21272SOL     OW75794   4.485  10.539   1.405  0.0074  0.2879  0.5617
21272SOL    HW175795   4.406  10.588   1.383 -0.8866  0.1141  3.0849
21272SOL    HW275796   4.552  10.606   1.419 -0.2330  0.5594  0.4226
21273SOL     OW75797  12.527   1.696   5.861  0.2169 -0.4873  0.4936
21273SOL    HW175798  12.576   1.713   5.941 -0.4715  0.7070  0.6762
21273SOL    HW275799  12.566   1.753   5.795 -1.3647  1.0524  0.8270
21274SOL     OW75800  11.641   9.877  13.149  0.1165  0.2519 -0.4405
21274SOL    HW175801  11.728   9.839  13.148  0.3249  0.7072 -1.7202
21274SOL    HW275802  11.600   9.845  13.069 -0.8764  0.1011  0.1059
21275SOL     OW75803   1.051  11.137   5.375  0.1081 -0.3062  0.0080
21275SOL    HW175804   1.117  11.174   5.316 -0.6518  0.0682 -0.6301
21275SOL    HW275805   0.979  11.200   5.373 -0.1633 -0.5717  0.9039
21276SOL     OW75806   5.861   1.731   1.693 -0.4902  0.2741 -0.2477
21276SOL    HW175807   5.815   1.647   1.692 -1.4187  0.6629 -3.7265
21276SOL    HW275808   5.931   1.721   1.630  1.0633  1.3629  1.2093
21277SOL     OW75809   8.671   6.495  13.874 -0.2482 -0.4786  0.2397
21277SOL    HW175810   8.597   6.483  13.815 -0.2397 -2.1487  0.5299
21277SOL    HW275811   8.639   6.555  13.942 -0.9093 -0.1997 -0.3081
21278SOL     OW75812   3.042   2.363  10.969 -0.3763  0.1993  0.2032
21278SOL    HW175813   3.043   2.317  10.885 -2.8472  0.8562 -0.2649
21278SOL    HW275814   2.999   2.302  11.029 -1.9840  1.1073  0.0322
21279SOL     OW75815   9.116   9.638  12.098 -0.0978  0.2392 -0.2428
21279SOL    HW175816   9.114   9.662  12.191 -1.5794  0.5095 -0.3148
21279SOL    HW275817   9.077   9.550  12.095  1.7881 -0.6316 -0.4090
21280SOL     OW75818  12.193   1.352   4.803  0.5273  0.6675  0.4586
21280SOL    HW175819  12.163   1.442   4.809  2.4798  1.3506  0.6416
21280SOL    HW275820  12.288   1.357   4.816  1.1162 -1.0860 -2.3063
21281SOL     OW75821   0.493   0.454  11.674  0.3605  0.4946  0.0663
21281SOL    HW175822   0.528   0.478  11.760 -1.8012 -0.0067  1.1559
21281SOL    HW275823   0.465   0.537  11.636  1.1400  0.6959 -0.0793
21282SOL     OW75824   1.929   4.220  12.729  0.2957 -0.0895 -0.0989
21282SOL    HW175825   1.914   4.204  12.635 -0.7199  0.2379  0.0048
21282SOL    HW275826   1.851   4.187  12.772  1.4690 -1.8323  0.8175
21283SOL     OW75827   2.366   0.503   6.557  0.0051 -0.4805 -0.0940
21283SOL    HW175828   2.349   0.478   6.466 -2.0823 -1.6644  0.5472
21283SOL    HW275829   2.435   0.444   6.586  1.7694  0.8874 -1.2690
21284SOL     OW75830   0.665   2.540  13.093  0.2122 -0.0985  0.3033
21284SOL    HW175831   0.711   2.525  13.011  2.4405 -1.1703  1.6478
21284SOL    HW275832   0.578   2.503  13.080  0.2005  0.5743 -1.8274
21285SOL     OW75833   1.044   8.673  13.456  0.2701  0.2738 -0.5304
21285SOL    HW175834   1.044   8.599  13.517 -0.2729 -2.2371 -3.3067
21285SOL    HW275835   0.960   8.716  13.470 -0.7229 -1.4791 -0.7747
21286SOL     OW75836   5.485   0.302   2.294  0.4257  0.4675 -0.2970
21286SOL    HW175837   5.514   0.391   2.313  1.0733 -0.0656  1.3681
21286SOL    HW275838   5.406   0.291   2.348  0.5514 -0.0838 -0.2203
21287SOL     OW75839   8.584   7.004  12.157 -0.0234 -0.6221  0.7352
21287SOL    HW175840   8.529   6.968  12.088 -0.5804 -0.1386  0.9182
21287SOL    HW275841   8.523   7.050  12.215  0.6983  0.9454  0.3078
21288SOL     OW75842   9.788   1.475   6.784 -0.0880  0.1677 -0.0768
21288SOL    HW175843   9.712   1.532   6.796  0.1324  0.1581  1.4915
21288SOL    HW275844   9.838   1.517   6.714 -0.2423  1.5885  0.6179
21289SOL     OW75845   2.233   6.480   3.482 -0.4010 -0.4799  0.2434
21289SOL    HW175846   2.235   6.391   3.518  0.9207 -0.3103  0.6502
21289SOL    HW275847   2.325   6.505   3.477 -0.7056  0.4850 -0.8448
21290SOL     OW75848   0.307  11.552   3.936 -0.4444 -0.5067  0.1698
21290SOL    HW175849   0.250  11.475   3.940 -0.7899 -0.2021  2.2479
21290SOL    HW275850   0.395  11.516   3.946 -0.6152 -0.6711  1.3213
21291SOL     OW75851   7.350   2.811   8.605 -0.5954 -0.4978 -0.0328
21291SOL    HW175852   7.355   2.896   8.562 -1.7017  0.1476  1.0403
21291SOL    HW275853   7.339   2.748   8.533 -0.4182  0.3299 -0.8015
21292SOL     OW75854   7.383  10.469   4.847 -0.1789 -0.1194 -0.2637
21292SOL    HW175855   7.398  10.547   4.901  1.0971  0.1796 -0.9992
21292SOL    HW275856   7.444  10.405   4.881 -0.6844 -0.5530 -0.1642
21293SOL     OW75857   9.090   8.117  11.074 -0.1445 -0.5368 -0.0794
21293SOL    HW175858   9.179   8.086  11.062 -0.3220 -1.5415  1.0357
21293SOL    HW275859   9.042   8.041  11.108 -1.3790  0.0420 -0.4592
21294SOL     OW75860  12.454   5.396   4.687 -0.4385  0.6531  0.4057
21294SOL    HW175861  12.379   5.351   4.726 -1.2434 -0.0839 -1.8581
21294SOL    HW275862  12.420   5.481   4.660 -0.7849 -0.0547 -1.5199
21295SOL     OW75863   7.569  12.833   0.905 -0.4527 -0.4072 -0.3399
21295SOL    HW175864   7.570  12.919   0.948  0.1133 -0.1814 -0.7762
21295SOL    HW275865   7.529  12.850   0.820 -2.0728 -0.9562  0.2846
21296SOL     OW75866   2.593   3.652  12.753 -0.1285  0.7958  0.0062
21296SOL    HW175867   2.681   3.668  12.785  0.0693  1.8505 -0.9758
21296SOL    HW275868   2.581   3.717  12.683 -0.6260 -1.1938 -1.8508
21297SOL     OW75869  12.246   7.423   2.026  0.4527  0.3141  0.5786
21297SOL    HW175870  12.326   7.397   1.981  1.0028  1.6413  0.7537
21297SOL    HW275871  12.185   7.446   1.956 -0.2304 -1.8212  0.3922
21298SOL     OW75872   6.775  12.972  11.381  0.6225 -0.1241  0.1459
21298SOL    HW175873   6.753  13.052  11.333  1.2279 -0.6188 -0.9891
21298SOL    HW275874   6.856  12.995  11.427  2.0672 -0.7208 -1.9527
21299SOL     OW75875   3.990   6.249   1.849 -0.0883  0.1612  0.1804
21299SOL    HW175876   4.041   6.172   1.824  3.9904  2.3170  1.0655
21299SOL    HW275877   3.928   6.215   1.914 -0.8725 -2.8690 -1.8990
21300SOL     OW75878   2.170   0.138   6.667 -0.1667  0.0922 -0.6054
21300SOL    HW175879   2.112   0.208   6.638 -0.7021 -0.8072 -1.8184
21300SOL    HW275880   2.138   0.115   6.755 -0.9517  0.3377 -0.8203
21301SOL     OW75881   7.191   4.614   8.273  0.0920 -0.2859  0.3074
21301SOL    HW175882   7.257   4.683   8.270 -1.0388  0.8013 -0.2727
21301SOL    HW275883   7.133   4.640   8.345 -1.8697  0.8726 -1.5620
21302SOL     OW75884   6.269   2.476   2.325  0.0547  0.4569  0.0182
21302SOL    HW175885   6.201   2.433   2.377 -1.5642  1.3350 -1.2772
21302SOL    HW275886   6.348   2.470   2.380 -1.1183 -0.2918  1.7299
21303SOL     OW75887  12.920   3.406   2.990 -0.1973 -0.6910  0.0398
21303SOL    HW175888  12.957   3.380   3.074 -0.7898 -1.4965  0.0599
21303SOL    HW275889  12.925   3.502   2.990  2.4664 -0.7555 -0.2310
21304SOL     OW75890  11.401   5.139  11.631  0.6425  0.5500  0.6525
21304SOL    HW175891  11.310   5.157  11.609  1.1581  1.6239 -0.7526
21304SOL    HW275892  11.404   5.142  11.727 -0.9516 -0.3883  0.7596
21305SOL     OW75893  12.490   9.152   7.393 -0.0141  0.3166  0.2945
21305SOL    HW175894  12.418   9.109   7.347 -0.3877 -0.4029  1.4914
21305SOL    HW275895  12.448   9.217   7.449  0.4033  0.9727 -0.1430
21306SOL     OW75896   3.294   2.581  11.428  0.2917  0.2300 -0.9555
21306SOL    HW175897   3.226   2.513  11.426 -0.1282  0.6535 -2.6618
21306SOL    HW275898   3.246   2.663  11.439  0.8277  0.2703  1.5256
21307SOL     OW75899   4.430   5.786  11.151  0.3344 -0.1005  0.2581
21307SOL    HW175900   4.467   5.809  11.066 -1.2095 -0.5449 -0.5878
21307SOL    HW275901   4.378   5.863  11.175 -1.4410 -0.9825 -0.5595
21308SOL     OW75902   2.601   8.577   8.790  0.5129 -0.0264 -0.4831
21308SOL    HW175903   2.607   8.507   8.724  1.7856  0.0708 -0.4849
21308SOL    HW275904   2.658   8.549   8.861  0.1236  0.4718  0.0382
21309SOL     OW75905   1.786   2.397   5.298 -0.1258 -0.2558 -0.0052
21309SOL    HW175906   1.763   2.436   5.382  0.0469  0.4686 -0.2856
21309SOL    HW275907   1.834   2.317   5.321  0.8715  0.4872  0.6045
21310SOL     OW75908   7.105   8.462  11.601  0.1839  0.2986  0.2986
21310SOL    HW175909   7.073   8.529  11.540  0.1794  0.1503  0.1371
21310SOL    HW275910   7.199   8.480  11.609 -0.1193  1.4543  1.6750
21311SOL     OW75911   8.210  11.443   1.875 -0.2614  0.2333  0.2924
21311SOL    HW175912   8.290  11.395   1.852 -0.0271  0.2587  1.0314
21311SOL    HW275913   8.220  11.463   1.968  0.8632  3.9198 -0.4396
21312SOL     OW75914   2.826   9.765   6.300  0.0367  0.2715  0.1429
21312SOL    HW175915   2.888   9.786   6.230 -0.9823  0.3226 -0.7707
21312SOL    HW275916   2.878   9.771   6.381  1.4129 -0.5031 -0.6454
21313SOL     OW75917   5.071   9.039  10.775 -0.2410 -0.0113 -0.2112
21313SOL    HW175918   5.129   8.995  10.837 -0.6430  0.2168  0.3295
21313SOL    HW275919   5.118   9.118  10.749 -0.1308 -0.0418 -0.1014
21314SOL     OW75920  12.733   9.418   7.962  0.0445 -0.3608 -0.4392
21314SOL    HW175921  12.707   9.496   7.913 -0.3937 -0.0106  0.3252
21314SOL    HW275922  12.652   9.369   7.973  0.0246 -0.1526  0.4062
21315SOL     OW75923   6.571   1.977  10.648 -0.0124 -0.4756  0.3843
21315SOL    HW175924   6.643   1.925  10.684 -0.0072 -1.4041 -0.8948
21315SOL    HW275925   6.492   1.939  10.685  0.1136  0.3584  1.5614
21316SOL     OW75926   8.867   1.442   2.802  0.0348 -0.3829  0.0891
21316SOL    HW175927   8.789   1.475   2.757  0.1600 -0.2866 -0.0553
21316SOL    HW275928   8.897   1.516   2.855  0.7150 -0.0285 -0.7567
21317SOL     OW75929   7.744  13.016   4.799 -0.6697  0.3365 -0.3551
21317SOL    HW175930   7.798  13.069   4.741 -1.6986  0.7342 -0.9719
21317SOL    HW275931   7.710  12.946   4.743 -0.0686 -0.4448  0.2392
21318SOL     OW75932   1.776   7.096   9.857 -0.6010  0.4359  0.5165
21318SOL    HW175933   1.808   7.177   9.818  1.4023 -0.5003  0.0530
21318SOL    HW275934   1.804   7.101   9.949 -0.3864  0.2585  0.4643
21319SOL     OW75935   6.628   4.630  11.928  0.3928 -0.0100 -0.2954
21319SOL    HW175936   6.544   4.668  11.903  1.5287  2.0394 -1.2545
21319SOL    HW275937   6.608   4.574  12.002 -2.3305 -2.2959 -2.5444
21320SOL     OW75938   6.518   0.193   0.299 -0.1888  0.0687 -0.3773
21320SOL    HW175939   6.456   0.254   0.259 -0.2907  0.7361  0.7465
21320SOL    HW275940   6.464   0.131   0.347  0.0013  0.8342  0.8565
21321SOL     OW75941   9.125   6.633   9.536  0.1158  0.1343 -0.0511
21321SOL    HW175942   9.206   6.672   9.569  0.4591  1.7737 -2.5813
21321SOL    HW275943   9.152   6.581   9.461 -0.8662 -1.9431  0.9317
21322SOL     OW75944   6.219   2.702   5.362  0.0611  0.5107 -0.1245
21322SOL    HW175945   6.174   2.619   5.374  0.8289  0.0418 -0.4201
21322SOL    HW275946   6.254   2.723   5.449 -1.3135  1.2529  0.2881
21323SOL     OW75947   6.382   4.215  13.658 -0.2446 -0.0275  0.0653
21323SOL    HW175948   6.376   4.132  13.706 -1.7243  0.3015  0.4998
21323SOL    HW275949   6.292   4.236  13.635 -0.0082  1.8543  0.6574
21324SOL     OW75950   5.105   4.907  12.602 -0.0472 -0.4188  0.1567
21324SOL    HW175951   5.041   4.978  12.605  0.8281  0.3695  1.8572
21324SOL    HW275952   5.186   4.947  12.635  0.8387 -1.8497 -0.1983
21325SOL     OW75953   8.123  13.218  11.978  0.1962  0.1732  0.0273
21325SOL    HW175954   8.140  13.188  11.889 -0.8415 -1.7796  0.4230
21325SOL    HW275955   8.199  13.190  12.028 -1.1085 -2.8776  0.5623
21326SOL     OW75956   2.140   1.364   4.724  0.6236 -0.4631  0.0924
21326SOL    HW175957   2.225   1.364   4.680  0.3180 -0.0334 -0.5119
21326SOL    HW275958   2.120   1.456   4.738 -0.7834 -0.3937 -1.8649
21327SOL     OW75959   4.586   6.349   0.374  0.5971 -0.2272  0.2598
21327SOL    HW175960   4.517   6.356   0.308  1.3087  0.2055 -0.4576
21327SOL    HW275961   4.635   6.270   0.350  0.0906 -0.7896  1.0327
21328SOL     OW75962   6.264   5.615   8.162  1.0134 -0.0069 -0.3637
21328SOL    HW175963   6.244   5.645   8.073 -0.4611  0.6237  0.1446
21328SOL    HW275964   6.326   5.543   8.150 -0.4103 -1.0395 -2.0148
21329SOL     OW75965   4.983  10.191  10.283 -0.3895 -0.0025  0.0724
21329SOL    HW175966   5.072  10.161  10.267 -0.4809 -0.3330  0.1772
21329SOL    HW275967   4.948  10.130  10.348 -1.0152 -0.4457 -0.6664
21330SOL     OW75968   8.635  12.165  11.936 -0.5914  0.1713 -0.2469
21330SOL    HW175969   8.718  12.118  11.927 -0.5401  0.1428  0.3469
21330SOL    HW275970   8.660  12.253  11.964 -0.7464  0.2733 -0.4223
21331SOL     OW75971   5.351   9.009  13.799 -0.5737  0.3680 -0.2075
21331SOL    HW175972   5.391   8.923  13.810  0.5266  0.7435 -1.0431
21331SOL    HW275973   5.282   9.013  13.866 -1.0340 -1.3677 -0.5363
21332SOL     OW75974  11.774  11.183  12.611 -0.2086  0.2821 -0.2100
21332SOL    HW175975  11.851  11.239  12.608  0.3923 -0.4661  0.6887
21332SOL    HW275976  11.706  11.237  12.650  0.5154  0.2392  1.1662
21333SOL     OW75977   7.705   1.931   9.582  0.5178 -0.0351 -0.7112
21333SOL    HW175978   7.690   2.018   9.621  0.8836 -1.2056  2.3326
21333SOL    HW275979   7.644   1.927   9.509  0.3438  2.7018 -0.8300
21334SOL     OW75980   1.975   6.773   9.492 -0.0856 -0.2713  0.0423
21334SOL    HW175981   1.947   6.781   9.583  0.8476  0.4574  0.2716
21334SOL    HW275982   1.893   6.772   9.442 -0.5984 -0.5642  0.8750
21335SOL     OW75983   3.278   2.489  11.091 -0.3691 -0.4360 -0.5816
21335SOL    HW175984   3.316   2.415  11.137 -1.0199  0.0556  0.7853
21335SOL    HW275985   3.199   2.454  11.049 -0.1298 -0.7326 -0.7894
21336SOL     OW75986  10.444   1.074  10.973 -0.0621  0.1334  0.0203
21336SOL    HW175987  10.497   1.140  11.019 -0.0964 -0.3859  0.8191
21336SOL    HW275988  10.417   1.117  10.892  1.0976  0.6155 -0.1290
21337SOL     OW75989  13.366  12.901   5.248  0.4355 -0.3359  0.2412
21337SOL    HW175990  13.297  12.901   5.182  0.7643 -0.9094 -0.0996
21337SOL    HW275991  13.347  12.826   5.304  0.3764 -0.0745  0.5817
21338SOL     OW75992   8.839   9.311   1.867 -0.5547 -0.5040 -0.0169
21338SOL    HW175993   8.841   9.323   1.772  2.3915  1.3211  0.1603
21338SOL    HW275994   8.889   9.231   1.882  0.4603  0.1291  0.0516
21339SOL     OW75995  10.214   5.457   7.013  0.0758  0.1105  0.0953
21339SOL    HW175996  10.291   5.461   7.070 -0.2373 -0.4505  0.5680
21339SOL    HW275997  10.202   5.364   6.996  0.1906  0.2688 -0.9380
21340SOL     OW75998   9.563   5.187   6.460 -0.2850 -0.7057 -0.9699
21340SOL    HW175999   9.577   5.095   6.484  2.2349 -1.0083 -3.2424
21340SOL    HW276000   9.639   5.233   6.494 -3.1031  1.4370  3.3562
21341SOL     OW76001   5.770   8.676  12.984 -0.1287 -0.0822  0.3598
21341SOL    HW176002   5.696   8.618  12.965  0.6161 -0.2459 -2.5951
21341SOL    HW276003   5.775   8.734  12.908  2.8556 -0.2116  0.3355
21342SOL     OW76004  13.739  10.429   9.537  0.2314 -0.0291  0.4295
21342SOL    HW176005  13.809  10.467   9.590  0.9069 -0.4981 -0.1070
21342SOL    HW276006  13.727  10.341   9.574  0.0748 -0.0293  0.3783
21343SOL     OW76007   6.983   0.950   7.548  0.0659 -0.2353  0.1410
21343SOL    HW176008   7.004   0.877   7.605 -1.3037 -0.1170  0.8194
21343SOL    HW276009   7.030   1.025   7.586  2.1953 -0.8681 -1.0542
21344SOL     OW76010  11.107   6.598   8.023 -0.2696 -0.1726 -0.0443
21344SOL    HW176011  11.171   6.669   8.021 -1.4717  1.0020  1.5350
21344SOL    HW276012  11.099   6.574   8.115  1.1838 -3.4392 -0.6299
21345SOL     OW76013   4.927   2.086   5.968  0.8960 -0.3445 -0.5261
21345SOL    HW176014   4.831   2.087   5.970  0.8394  0.1446 -2.0113
21345SOL    HW276015   4.953   2.134   6.046 -0.1562  2.3458 -1.7112
21346SOL     OW76016   5.270   0.981   0.847  0.0466  0.0780  0.0980
21346SOL    HW176017   5.306   0.987   0.936 -0.9449  1.9671  0.4135
21346SOL    HW276018   5.322   0.912   0.805  0.7721 -0.6215  2.0182
21347SOL     OW76019   8.616   7.655  11.799  0.1616  0.2152  0.6764
21347SOL    HW176020   8.662   7.584  11.756  0.9519  1.5596 -0.7883
21347SOL    HW276021   8.682   7.696  11.855 -0.4863 -0.6129  2.1231
21348SOL     OW76022   4.282  10.867   1.067  0.1785 -0.7295  0.0178
21348SOL    HW176023   4.357  10.848   1.124  0.6502  2.2718  0.5874
21348SOL    HW276024   4.311  10.941   1.014 -2.1744  0.1463 -0.1520
21349SOL     OW76025   9.593  13.786   5.634  0.0433  0.0366  0.4738
21349SOL    HW176026   9.559  13.708   5.679  0.4092 -1.5836 -1.8738
21349SOL    HW276027   9.687  13.785   5.654  0.3323 -1.0793 -0.7566
21350SOL     OW76028   4.027  13.297  12.333  0.4577 -0.0039 -0.1836
21350SOL    HW176029   4.015  13.392  12.328 -1.5003 -0.2724 -2.4632
21350SOL    HW276030   4.072  13.274  12.251  0.9559 -1.0426  0.3662
21351SOL     OW76031  13.359   6.221  10.370 -0.2425 -0.0387  0.7342
21351SOL    HW176032  13.278   6.177  10.397 -0.3333 -1.9114 -2.1464
21351SOL    HW276033  13.429   6.160  10.396  0.1384  0.7476  1.6209
21352SOL     OW76034  11.581  11.202   3.091  0.3896  0.2499  0.0808
21352SOL    HW176035  11.601  11.242   3.007 -0.6792 -0.4935 -0.5484
21352SOL    HW276036  11.486  11.201   3.096  0.3058 -2.7078 -0.2100
21353SOL     OW76037   6.494   6.732   7.752 -0.2463 -0.5748 -0.0713
21353SOL    HW176038   6.571   6.706   7.702  2.5799  2.6899  2.1238
21353SOL    HW276039   6.495   6.676   7.829 -0.9456 -1.4684 -0.6977
21354SOL     OW76040  11.887   9.657  11.925  0.0500  0.3613  0.1788
21354SOL    HW176041  11.945   9.660  12.002  1.7929  1.6086 -1.1093
21354SOL    HW276042  11.919   9.727  11.868 -0.2102 -1.4619 -2.3700
21355SOL     OW76043   2.795   1.351   5.654  0.4283 -0.5620 -0.1169
21355SOL    HW176044   2.789   1.356   5.559 -1.2153  0.6310 -0.0126
21355SOL    HW276045   2.760   1.265   5.677 -1.5407  0.0742 -0.5162
21356SOL     OW76046  12.347  12.851   6.843  0.0978 -0.5972  0.1334
21356SOL    HW176047  12.388  12.896   6.769  0.6037 -1.1968  0.0402
21356SOL    HW276048  12.315  12.769   6.807 -1.0924 -0.1918  0.2369
21357SOL     OW76049  11.891  13.005   3.063  0.5934  0.3446 -0.0350
21357SOL    HW176050  11.940  12.940   3.013  0.8475  2.0553 -2.1359
21357SOL    HW276051  11.954  13.040   3.126  1.6936  1.4650 -1.6981
21358SOL     OW76052   8.539   6.196   1.864 -0.1108  0.4488 -0.0609
21358SOL    HW176053   8.518   6.173   1.773 -1.8589 -1.1135  0.6814
21358SOL    HW276054   8.580   6.282   1.858 -0.3037  0.4398 -2.3116
21359SOL     OW76055   4.615   5.735   4.864  0.5875  0.1492 -0.1944
21359SOL    HW176056   4.704   5.736   4.900  0.5760  3.3354  0.0443
21359SOL    HW276057   4.582   5.824   4.881 -2.1148 -0.4995 -1.5790
21360SOL     OW76058   0.799  11.877   7.149 -0.0604 -0.8491  0.9277
21360SOL    HW176059   0.733  11.825   7.103 -0.3113  0.8496 -0.8075
21360SOL    HW276060   0.771  11.968   7.136  2.3169 -0.0874  0.5360
21361SOL     OW76061  13.461   8.021   4.128 -0.6639  0.2277  0.1397
21361SOL    HW176062  13.443   8.097   4.184 -0.7796  0.4885 -0.2522
21361SOL    HW276063  13.423   7.947   4.175  0.9565  0.1231  1.4038
21362SOL     OW76064   0.559  11.143   2.686 -0.7437  0.0367  0.1406
21362SOL    HW176065   0.543  11.104   2.772 -1.4410  0.6954  0.3141
21362SOL    HW276066   0.548  11.237   2.700 -0.2762  0.1967 -0.5437
21363SOL     OW76067   0.056   6.837   5.272 -0.4746  0.5040  0.0414
21363SOL    HW176068   0.067   6.887   5.353 -0.3634 -0.6608  0.7662
21363SOL    HW276069  -0.038   6.823   5.266 -0.2997 -2.0652  1.6847
21364SOL     OW76070   2.689   1.780   6.612 -0.5675  0.2368  0.0422
21364SOL    HW176071   2.682   1.838   6.688  2.2846 -1.3125  1.6324
21364SOL    HW276072   2.657   1.833   6.539 -1.2718  2.5961  1.9249
21365SOL     OW76073   3.769  12.010   3.678  0.3077  0.0957 -0.5236
21365SOL    HW176074   3.678  12.014   3.648  0.0244 -0.6311  0.2114
21365SOL    HW276075   3.821  12.016   3.598 -0.4320 -2.6152 -1.3283
21366SOL     OW76076   0.469  13.211  12.135  0.1398 -0.4557  0.7033
21366SOL    HW176077   0.503  13.192  12.223  2.2281  0.2704  0.1371
21366SOL    HW276078   0.543  13.192  12.077 -1.3245 -1.2941 -0.9621
21367SOL     OW76079   6.528  12.832  11.585 -0.5702  0.4113  0.4025
21367SOL    HW176080   6.510  12.859  11.496  0.7691 -0.1488 -0.0625
21367SOL    HW276081   6.463  12.763  11.603 -0.0213 -0.3973 -0.6188
21368SOL     OW76082   8.219  10.340   8.566  0.4009  0.1530  0.2852
21368SOL    HW176083   8.227  10.331   8.661 -0.6639 -0.1611  0.3621
21368SOL    HW276084   8.138  10.293   8.544 -0.8995  2.5404 -0.4014
21369SOL     OW76085  10.489   2.312   6.727 -0.3911 -0.3645  0.1334
21369SOL    HW176086  10.420   2.247   6.713  1.1783 -1.6361 -2.3943
21369SOL    HW276087  10.571   2.262   6.720  0.8480  1.4241  1.0150
21370SOL     OW76088  12.325  12.467   0.717  0.6394 -0.4872  0.3617
21370SOL    HW176089  12.259  12.445   0.652 -0.3390 -0.8153  1.4512
21370SOL    HW276090  12.288  12.440   0.800  0.7378  2.2966  1.4120
21371SOL     OW76091   2.875   0.901   1.395  0.2864  0.2676 -0.2470
21371SOL    HW176092   2.887   0.989   1.430  1.7895 -0.2237  0.5741
21371SOL    HW276093   2.955   0.883   1.346  0.3827 -0.9485  0.3155
21372SOL     OW76094  13.346  10.260   0.683 -0.0030 -0.2222  0.0349
21372SOL    HW176095  13.322  10.182   0.632  1.5524 -0.9965  0.4287
21372SOL    HW276096  13.371  10.324   0.617 -0.3472 -0.3802 -0.2581
21373SOL     OW76097   0.229   0.356   8.397  0.5633 -0.0531  0.4391
21373SOL    HW176098   0.200   0.345   8.307 -1.0226  1.4480  0.7134
21373SOL    HW276099   0.322   0.376   8.391  0.5775 -0.4780 -0.8281
21374SOL     OW76100   1.598  11.432  12.866  0.6965  0.0113 -0.5315
21374SOL    HW176101   1.518  11.478  12.842 -1.5354 -2.8302  0.8403
21374SOL    HW276102   1.592  11.423  12.962  2.9947  0.2106 -0.3157
21375SOL     OW76103   1.401  12.376  13.070 -0.1434  0.3147  0.2535
21375SOL    HW176104   1.481  12.414  13.107 -1.2137 -0.3033  3.5234
21375SOL    HW276105   1.432  12.307  13.012  1.6853  2.0464 -0.9891
21376SOL     OW76106  10.695   7.924  12.358 -0.3393 -0.0265  0.3309
21376SOL    HW176107  10.709   7.855  12.293 -1.1038 -0.7346  0.8917
21376SOL    HW276108  10.768   7.985  12.344  0.0680 -0.6767 -0.5162
21377SOL     OW76109  11.187   6.662  12.375 -0.3070  0.1678  1.3701
21377SOL    HW176110  11.214   6.598  12.309  0.0837  1.3843  0.3033
21377SOL    HW276111  11.132   6.724  12.327 -1.3440  0.2053  2.5604
21378SOL     OW76112  12.143  12.694   1.274  0.2810  0.4392 -0.1531
21378SOL    HW176113  12.200  12.716   1.348  0.2546  3.4866 -0.9193
21378SOL    HW276114  12.065  12.656   1.315  0.7105  1.0394  1.3053
21379SOL     OW76115   2.249   2.731   3.380 -0.2981  0.1161 -0.4103
21379SOL    HW176116   2.250   2.826   3.370 -1.0198  0.1922  0.1612
21379SOL    HW276117   2.304   2.714   3.457  0.1515  0.0263 -0.7409
21380SOL     OW76118   8.340   3.201   2.108 -0.2991 -0.1292  0.7030
21380SOL    HW176119   8.249   3.224   2.125 -0.4592 -0.9016  0.9511
21380SOL    HW276120   8.335   3.138   2.035 -0.0153 -0.5638  1.0511
21381SOL     OW76121  11.319   2.232  12.142 -0.3184  0.4688  0.3821
21381SOL    HW176122  11.248   2.177  12.109  0.0200 -0.7124  1.5205
21381SOL    HW276123  11.347   2.284  12.067 -0.8623 -0.7033 -0.6692
21382SOL     OW76124   7.051   2.984  10.531 -0.0489 -0.0789 -0.3802
21382SOL    HW176125   7.043   3.075  10.560 -1.9210  0.1929 -1.6295
21382SOL    HW276126   7.023   2.985  10.440 -0.8717 -2.0381 -0.1826
21383SOL     OW76127   0.964   2.159   7.264  0.3597  0.5633  0.2730
21383SOL    HW176128   0.978   2.068   7.291 -1.2458 -0.2312 -1.2920
21383SOL    HW276129   0.869   2.170   7.267  0.5970  2.7060  1.8512
21384SOL     OW76130   7.024  13.059  12.113 -0.1572  0.3900  0.2146
21384SOL    HW176131   7.095  13.049  12.049  1.4046 -0.2664  1.9435
21384SOL    HW276132   7.036  12.985  12.174 -2.4309  0.1848  0.5075
21385SOL     OW76133   5.260   1.363  13.659  0.1088 -0.7040  0.3818
21385SOL    HW176134   5.260   1.269  13.641  0.1868 -0.7113  0.4224
21385SOL    HW276135   5.292   1.370  13.749  0.4121 -0.6164  0.2684
21386SOL     OW76136  12.189   5.714   6.680 -0.2217 -0.1992  0.2689
21386SOL    HW176137  12.165   5.631   6.639 -0.9468 -0.1859  0.6591
21386SOL    HW276138  12.265   5.744   6.630 -1.7305  0.3753 -1.8043
21387SOL     OW76139   6.787   4.843  12.869 -0.4211  0.4715 -0.1831
21387SOL    HW176140   6.743   4.808  12.946  0.9007  0.7039  0.7134
21387SOL    HW276141   6.843   4.913  12.903  3.7528 -2.3163 -0.5146
21388SOL     OW76142  12.878   8.059   1.186 -0.0542  0.3539  0.0000
21388SOL    HW176143  12.891   8.045   1.280 -0.0365  0.6270  0.0398
21388SOL    HW276144  12.825   8.138   1.181 -0.8359 -0.1719 -0.1949
21389SOL     OW76145   7.124   0.432   0.911 -0.0155  0.5715 -0.2753
21389SOL    HW176146   7.191   0.397   0.851  0.2540 -0.4260  0.5890
21389SOL    HW276147   7.156   0.410   0.998 -0.6539  1.5785  0.2353
21390SOL     OW76148   8.523   4.472   6.184 -0.1091  0.3953 -0.1708
21390SOL    HW176149   8.534   4.380   6.211 -0.8938 -0.0262 -1.2132
21390SOL    HW276150   8.468   4.510   6.253  0.7250  0.2666  0.5903
21391SOL     OW76151   5.065   3.763   9.937  0.2464  0.8086 -0.1475
21391SOL    HW176152   5.158   3.752   9.960  0.2599  0.9606 -0.1331
21391SOL    HW276153   5.066   3.817   9.858  0.3238 -1.5504 -1.8727
21392SOL     OW76154   8.267  12.510   5.360  0.5947  0.6430  0.5675
21392SOL    HW176155   8.282  12.574   5.429  2.0314  0.1487  0.7490
21392SOL    HW276156   8.355  12.482   5.334  0.0215 -0.9949  0.2747
21393SOL     OW76157  11.541  10.346   9.240 -0.7083  0.1692  0.0127
21393SOL    HW176158  11.591  10.419   9.277 -1.4812 -0.0906  1.7103
21393SOL    HW276159  11.603  10.274   9.236 -0.1141  0.7195 -1.0429
21394SOL     OW76160   8.765  13.831  10.698  0.0025 -0.0733  0.7579
21394SOL    HW176161   8.788  13.920  10.726  0.3724  0.0174  0.1821
21394SOL    HW276162   8.847  13.793  10.668 -0.1682 -0.5884  0.9307
21395SOL     OW76163  10.777   1.817   5.423 -0.0053  0.0728 -0.0351
21395SOL    HW176164  10.743   1.784   5.506  0.1304 -0.2597 -0.1126
21395SOL    HW276165  10.702   1.861   5.382 -0.7943 -1.9233 -0.8804
21396SOL     OW76166   9.429   6.674   9.009 -0.2045 -0.0019 -0.4338
21396SOL    HW176167   9.468   6.700   8.926 -0.9783  2.0506 -0.1989
21396SOL    HW276168   9.454   6.742   9.070 -2.2950  0.2497  0.2302
21397SOL     OW76169   6.726  13.941   0.631 -0.1008 -0.2732  0.7418
21397SOL    HW176170   6.636  13.914   0.611  0.3220 -0.8657 -0.4607
21397SOL    HW276171   6.760  13.870   0.686 -0.1346 -0.4306  0.5634
21398SOL     OW76172   7.527   4.060   7.760 -0.0965 -0.2189 -0.1684
21398SOL    HW176173   7.579   3.985   7.789 -1.7189 -1.3078  0.0416
21398SOL    HW276174   7.548   4.069   7.667  0.4923 -0.6170 -0.0792
21399SOL     OW76175   7.385  11.164   5.633 -0.0796  0.1242 -0.6892
21399SOL    HW176176   7.360  11.242   5.683 -1.0288  0.1406 -1.1720
21399SOL    HW276177   7.334  11.093   5.672  0.0288 -0.0717 -0.9022
21400SOL     OW76178   5.611   0.734   9.373  0.0635 -0.2255  0.3783
21400SOL    HW176179   5.529   0.724   9.421  0.2992  0.8837  1.0359
21400SOL    HW276180   5.587   0.780   9.293  0.1753  1.0430  1.0487
21401SOL     OW76181   7.275   8.144   1.446 -0.4106 -0.0199  0.1435
21401SOL    HW176182   7.238   8.056   1.452 -1.1542  0.2913  0.3481
21401SOL    HW276183   7.199   8.202   1.457 -0.0504  0.6394 -0.7397
21402SOL     OW76184   0.415  11.873  12.895 -0.7571  0.0721 -0.0593
21402SOL    HW176185   0.451  11.836  12.975 -1.4099 -0.9135 -0.2044
21402SOL    HW276186   0.329  11.907  12.921 -0.8137  0.0870 -0.2611
21403SOL     OW76187   5.986   9.283  12.768 -0.1424 -0.1317  0.1739
21403SOL    HW176188   5.993   9.196  12.807  1.8908  0.5279  1.4690
21403SOL    HW276189   5.931   9.332  12.829  0.9295  0.1936  0.9103
21404SOL     OW76190   4.635   3.683  11.836  0.2131 -0.2790 -0.1327
21404SOL    HW176191   4.644   3.708  11.744  2.9407  1.2931  0.4604
21404SOL    HW276192   4.609   3.764  11.881 -0.8016 -0.9605  0.5603
21405SOL     OW76193  13.869   7.873   7.755 -0.6200 -0.3839 -0.3723
21405SOL    HW176194  13.873   7.780   7.775 -2.2078 -0.3400  0.3292
21405SOL    HW276195  13.817   7.879   7.675 -0.1948 -0.1141 -0.6363
21406SOL     OW76196  11.130   0.538   7.781  0.5662  0.2137 -0.0292
21406SOL    HW176197  11.123   0.607   7.715  0.2547 -0.2972 -0.5340
21406SOL    HW276198  11.172   0.465   7.736 -0.1848 -0.3498  0.1692
21407SOL     OW76199   9.590  12.892  10.699  0.0205 -0.3907  0.0536
21407SOL    HW176200   9.660  12.855  10.645 -0.7010 -3.9497  1.2893
21407SOL    HW276201   9.509  12.859  10.659 -0.6629 -0.5529  1.5108
21408SOL     OW76202   5.642   8.495   6.183 -0.0267  0.4032 -0.0828
21408SOL    HW176203   5.587   8.558   6.136 -0.5975  0.3014  0.4274
21408SOL    HW276204   5.684   8.546   6.251  1.1595  0.6436 -0.9654
21409SOL     OW76205   6.933   5.347  12.955 -0.2040  0.4674 -0.3685
21409SOL    HW176206   6.902   5.378  12.870  1.6130  1.4400 -0.7340
21409SOL    HW276207   7.028   5.356  12.950 -0.0006 -0.3657  1.4327
21410SOL     OW76208   2.153   5.241   4.883 -0.1675 -0.1436 -0.1570
21410SOL    HW176209   2.235   5.206   4.849  0.6248  1.3305  0.1321
21410SOL    HW276210   2.103   5.164   4.910  0.9629 -1.0896 -0.6760
21411SOL     OW76211   8.492   5.395   4.958  0.2252 -0.1841 -0.3623
21411SOL    HW176212   8.441   5.325   4.918 -1.8040  0.5186  0.8209
21411SOL    HW276213   8.500   5.370   5.050 -1.6419  1.6349  0.3740
21412SOL     OW76214  12.351  10.952  13.090  0.2243 -0.8348 -0.4311
21412SOL    HW176215  12.349  11.048  13.087  0.9912 -0.8167 -0.6687
21412SOL    HW276216  12.283  10.925  13.028 -0.8193 -0.4574  0.5261
21413SOL     OW76217   0.261  12.986   6.590 -0.6389  0.1955  0.0820
21413SOL    HW176218   0.299  13.059   6.640 -2.1446 -0.1813  1.8868
21413SOL    HW276219   0.167  12.999   6.595 -0.9373 -1.6406  0.1169
21414SOL     OW76220   5.362  11.511   7.314 -0.2555  0.3048  0.2431
21414SOL    HW176221   5.361  11.418   7.295  0.1569  0.1566  0.9192
21414SOL    HW276222   5.388  11.517   7.406 -0.5352  1.0716  0.2843
21415SOL     OW76223   3.756   8.301  10.289 -0.1974 -0.6647 -0.1810
21415SOL    HW176224   3.813   8.368  10.251 -0.2816  0.8326  2.1440
21415SOL    HW276225   3.677   8.304  10.235 -0.5590  1.8004  0.3473
21416SOL     OW76226   2.820  12.748   3.118  0.3425  0.0818  0.2882
21416SOL    HW176227   2.794  12.790   3.037 -0.9185 -0.5681  0.3360
21416SOL    HW276228   2.847  12.820   3.175  0.3817  0.6157 -0.3961
21417SOL     OW76229   0.615  12.561   6.050  0.3040  0.1618  0.4310
21417SOL    HW176230   0.613  12.655   6.032 -2.0907  0.3572  1.2996
21417SOL    HW276231   0.680  12.551   6.120 -0.0665  1.3207  0.9651
21418SOL     OW76232   9.924  11.170   4.363 -0.1887 -0.6099 -0.2032
21418SOL    HW176233   9.890  11.104   4.303 -0.0377 -1.4043  0.5630
21418SOL    HW276234   9.868  11.164   4.440 -0.7735  0.8302 -0.4801
21419SOL     OW76235   5.315   2.804  11.386 -0.2157 -0.0433 -0.6483
21419SOL    HW176236   5.384   2.758  11.338 -0.7098 -1.4951 -0.0093
21419SOL    HW276237   5.236   2.790  11.334 -1.2462 -3.5861  1.5684
21420SOL     OW76238   3.312  13.375   4.863 -0.4692 -0.3340 -0.1261
21420SOL    HW176239   3.286  13.459   4.825 -0.5775 -0.2665  0.0947
21420SOL    HW276240   3.367  13.398   4.937 -1.9238 -0.3929  1.0236
21421SOL     OW76241   0.035  10.957   4.012  0.6680  0.3508 -0.4026
21421SOL    HW176242  -0.027  10.999   3.952  2.1097  1.8231 -0.9379
21421SOL    HW276243   0.104  10.922   3.954  1.1530  0.1722  0.2712
21422SOL     OW76244  13.844  12.261   2.080  0.5463  0.0578  0.4270
21422SOL    HW176245  13.827  12.215   1.998  0.2103 -3.8888  2.4802
21422SOL    HW276246  13.771  12.323   2.087 -0.4492 -0.7961 -1.3811
21423SOL     OW76247   8.182   5.703   1.456 -0.0861  0.4539  0.3298
21423SOL    HW176248   8.133   5.766   1.403 -0.3874  1.2890  1.5588
21423SOL    HW276249   8.186   5.743   1.543  2.1286  0.0381  0.4623
21424SOL     OW76250   0.523   8.139   6.151 -0.3224  0.1054 -0.3178
21424SOL    HW176251   0.497   8.187   6.073 -2.6610 -1.7089 -0.7284
21424SOL    HW276252   0.443   8.097   6.182  1.4884 -3.4262  0.0737
21425SOL     OW76253  12.728  10.344   9.378 -0.5898  0.4163 -0.2116
21425SOL    HW176254  12.676  10.278   9.423 -0.1839 -0.9490 -1.6355
21425SOL    HW276255  12.665  10.390   9.322 -0.8844  1.3113  0.8298
21426SOL     OW76256  10.753   4.051   0.921  0.2671 -0.0106  0.1937
21426SOL    HW176257  10.803   3.978   0.957 -0.8205 -1.7758 -1.6531
21426SOL    HW276258  10.723   4.100   0.998  1.2209 -1.3723  1.4873
21427SOL     OW76259  12.486  11.342   5.213 -0.2773  0.4063 -0.1027
21427SOL    HW176260  12.400  11.369   5.181 -0.0799  0.4646 -0.6094
21427SOL    HW276261  12.506  11.404   5.282 -1.6637 -1.0452  1.7024
21428SOL     OW76262   9.660   0.100   7.247 -0.1914  0.6988 -0.8535
21428SOL    HW176263   9.660   0.062   7.159 -2.4217 -0.4380 -0.4377
21428SOL    HW276264   9.679   0.193   7.233 -1.3247  0.7069 -2.6414
21429SOL     OW76265   2.118   5.226   6.255 -0.5191 -0.5495 -0.1285
21429SOL    HW176266   2.100   5.137   6.227 -0.8741 -1.0987  1.7049
21429SOL    HW276267   2.194   5.253   6.204 -0.2097 -2.0320 -0.4758
21430SOL     OW76268  12.913   0.584   8.524 -0.0312  0.0517 -0.0645
21430SOL    HW176269  12.855   0.658   8.509 -0.9371 -0.2445  1.6729
21430SOL    HW276270  12.925   0.582   8.619  0.1647 -1.8778 -0.0855
21431SOL     OW76271   8.418   4.744  12.276 -0.3577 -0.1970  0.5784
21431SOL    HW176272   8.451   4.819  12.228  0.2160 -1.2500 -0.7390
21431SOL    HW276273   8.351   4.780  12.335 -0.4455  1.2513 -0.3746
21432SOL     OW76274   6.619   5.151   0.919 -0.5329 -0.0918  0.3868
21432SOL    HW176275   6.590   5.060   0.910  0.5501 -0.5707  1.5160
21432SOL    HW276276   6.605   5.172   1.011 -1.8365  1.2906 -0.0827
21433SOL     OW76277   9.333   9.341   3.622 -0.0406 -0.4159  0.1934
21433SOL    HW176278   9.286   9.259   3.604  1.2156 -1.2901  0.8047
21433SOL    HW276279   9.370   9.366   3.538 -0.6883 -0.2951 -0.0638
21434SOL     OW76280   6.050   9.972   3.206  0.2035  0.2246  0.1502
21434SOL    HW176281   5.967   9.942   3.169  0.3685  1.0213 -0.9148
21434SOL    HW276282   6.041   9.957   3.300 -1.3973  0.9017  0.1349
21435SOL     OW76283   6.611   6.777   0.697  0.7023  0.0761  0.5097
21435SOL    HW176284   6.638   6.865   0.673  1.1805 -0.6244 -1.7630
21435SOL    HW276285   6.533   6.760   0.645  0.5626 -0.8125  0.9782
21436SOL     OW76286   6.274  10.487   4.939 -0.6773 -0.6302 -0.3414
21436SOL    HW176287   6.185  10.515   4.960 -1.3104 -1.7771 -1.3391
21436SOL    HW276288   6.331  10.541   4.994 -1.9126  1.0948 -0.6869
21437SOL     OW76289   3.223  10.190   3.482  0.0305 -0.1304  0.3127
21437SOL    HW176290   3.219  10.095   3.467  0.9368 -0.0970 -0.1788
21437SOL    HW276291   3.172  10.227   3.410 -0.4254 -0.2474  0.5729
21438SOL     OW76292  12.094   3.488   7.425 -0.0222  0.7293  0.3935
21438SOL    HW176293  12.074   3.524   7.512  1.8071 -0.2126  1.2434
21438SOL    HW276294  12.042   3.408   7.419  0.8136  0.1076  1.1824
21439SOL     OW76295  12.380   9.168   5.762 -0.1771  0.3627  0.0787
21439SOL    HW176296  12.411   9.150   5.673 -2.7139 -0.8330 -0.6362
21439SOL    HW276297  12.460   9.173   5.814  1.4152  1.3871 -2.2676
21440SOL     OW76298   6.351   2.612   8.666  0.1619  0.1448  0.5956
21440SOL    HW176299   6.336   2.517   8.668  0.3003  0.1346  1.1749
21440SOL    HW276300   6.443   2.621   8.639  0.3754  0.0906  1.2918
21441SOL     OW76301  13.026   5.936   7.594  0.1403 -0.5510  0.7238
21441SOL    HW176302  13.063   5.912   7.508 -2.2788  1.0365 -0.8838
21441SOL    HW276303  12.962   5.867   7.612 -0.2738 -0.1980  0.6120
21442SOL     OW76304   0.191  11.951  11.398  0.2198  0.5264  0.5443
21442SOL    HW176305   0.133  11.904  11.338  0.7744  2.0825 -1.2992
21442SOL    HW276306   0.131  12.003  11.453 -0.2230  0.7485 -0.1354
21443SOL     OW76307  10.980   2.464   4.071  0.9204 -0.1566 -0.4645
21443SOL    HW176308  11.064   2.471   4.116  1.2377 -0.0016 -1.0814
21443SOL    HW276309  10.957   2.555   4.049  0.1599 -0.0953  0.4698
21444SOL     OW76310   9.854   8.116   6.107  0.2186  0.4679  0.1760
21444SOL    HW176311   9.842   8.063   6.028  1.5772  2.8868 -1.7820
21444SOL    HW276312   9.948   8.113   6.124 -0.2060 -1.3265  2.7894
21445SOL     OW76313   0.453  11.710   5.621  0.0491 -0.1478 -0.4222
21445SOL    HW176314   0.454  11.647   5.549  0.5707 -1.5390  0.7403
21445SOL    HW276315   0.538  11.697   5.665  0.1913  1.4168 -0.1753
21446SOL     OW76316   8.239  10.645   6.877 -0.3242 -0.4999  0.3172
21446SOL    HW176317   8.281  10.570   6.920 -1.7910 -1.2698  0.4858
21446SOL    HW276318   8.237  10.713   6.944  2.8015  0.4843 -0.4162
21447SOL     OW76319  13.425  13.265   5.355  0.1227  0.0316 -0.2261
21447SOL    HW176320  13.500  13.314   5.388 -0.9198  1.1296  0.5805
21447SOL    HW276321  13.430  13.181   5.399  0.3285  0.4661  0.5976
21448SOL     OW76322   0.335  13.824  11.022  0.4786  0.2579  0.3302
21448SOL    HW176323   0.336  13.805  11.116 -1.3483  1.0921  0.5759
21448SOL    HW276324   0.375  13.748  10.981  2.7139  0.5267  1.8558
21449SOL     OW76325   4.096   8.821  10.509 -0.5510  0.4226 -0.6506
21449SOL    HW176326   4.183   8.796  10.477 -0.3419 -0.3134  0.4516
21449SOL    HW276327   4.101   8.810  10.604 -1.3091  2.0791 -0.3798
21450SOL     OW76328   7.055   3.374  13.133 -0.2916  0.4367 -0.1938
21450SOL    HW176329   6.988   3.431  13.094  0.9207  2.0173 -0.0385
21450SOL    HW276330   7.061   3.403  13.224 -2.3077 -2.4957  1.0330
21451SOL     OW76331   6.310   0.749   6.431 -0.1056 -0.3902 -0.5554
21451SOL    HW176332   6.376   0.799   6.383  0.6611 -2.0628 -1.3126
21451SOL    HW276333   6.246   0.724   6.364 -0.9281  0.2512 -0.0312
21452SOL     OW76334   5.441   1.288  10.280 -0.1234 -0.1910  0.3082
21452SOL    HW176335   5.423   1.255  10.192  0.7194  1.2269 -0.4394
21452SOL    HW276336   5.528   1.255  10.300 -0.5047 -0.8944  0.8040
21453SOL     OW76337  13.577   7.355   2.469  0.2022 -0.0049  0.1004
21453SOL    HW176338  13.605   7.265   2.454 -1.2284 -0.7377  1.5495
21453SOL    HW276339  13.481   7.351   2.463  0.1535  2.0943 -3.2042
21454SOL     OW76340   7.147   3.794  12.187  0.2785 -0.4490 -0.7941
21454SOL    HW176341   7.194   3.790  12.103  1.6508 -2.4544  0.0040
21454SOL    HW276342   7.111   3.707  12.199 -1.3697  0.2912 -0.0428
21455SOL     OW76343   1.292   1.927   2.395 -0.6140  0.1553 -0.2945
21455SOL    HW176344   1.261   1.900   2.481 -0.8416 -0.4255 -0.5529
21455SOL    HW276345   1.387   1.921   2.400 -0.6685 -2.2115 -0.7927
21456SOL     OW76346   0.871   8.783   9.713 -0.0844  0.1342  0.0843
21456SOL    HW176347   0.911   8.862   9.748  2.4791 -1.1905  0.4288
21456SOL    HW276348   0.802   8.761   9.776  1.2866  0.3928  1.7361
21457SOL     OW76349  12.930  11.970  12.303  0.1064 -0.3201  0.4119
21457SOL    HW176350  12.981  12.046  12.327 -0.7567  0.7062 -0.8332
21457SOL    HW276351  12.891  11.993  12.219 -1.2407 -1.6104  0.6350
21458SOL     OW76352   8.568   5.768  12.093 -0.3313  0.3830 -0.0678
21458SOL    HW176353   8.548   5.678  12.070 -1.0343  1.0755 -2.4971
21458SOL    HW276354   8.652   5.764  12.138  1.1607 -1.2691 -2.7242
21459SOL     OW76355   2.116  10.905   7.373  0.3949 -0.5622 -0.0621
21459SOL    HW176356   2.055  10.884   7.303 -0.6622  3.8342 -0.7728
21459SOL    HW276357   2.198  10.863   7.347  0.0867  0.9092 -4.1159
21460SOL     OW76358   9.425   1.466   8.441 -0.7048  0.3027 -0.6997
21460SOL    HW176359   9.331   1.484   8.447 -0.4361  1.6653 -0.3262
21460SOL    HW276360   9.438   1.389   8.496 -1.8295 -0.8733 -1.9867
21461SOL     OW76361  11.270  11.768  11.875 -0.5965 -0.0590 -0.1344
21461SOL    HW176362  11.248  11.732  11.961 -0.1768  0.7761  0.3341
21461SOL    HW276363  11.248  11.861  11.881 -1.6552 -0.2046 -1.3187
21462SOL     OW76364  11.104   7.643   0.475  0.0155  0.0273 -0.5727
21462SOL    HW176365  11.102   7.734   0.503 -0.4514  0.4167 -1.8344
21462SOL    HW276366  11.174   7.639   0.410  0.2356 -0.5867 -0.3073
21463SOL     OW76367   8.620   3.330  12.037 -0.1843  0.5537 -0.1524
21463SOL    HW176368   8.619   3.242  12.074 -2.0437  0.1882 -0.9756
21463SOL    HW276369   8.712   3.356  12.040  0.4656 -1.5674 -0.2667
21464SOL     OW76370   9.276   9.087  13.219  0.1210 -0.3018 -0.1917
21464SOL    HW176371   9.245   9.060  13.133 -1.5757  0.3352  0.1792
21464SOL    HW276372   9.367   9.115  13.205 -1.1762  3.3829 -2.6120
21465SOL     OW76373   3.815   7.114   4.118 -0.1180 -0.1110 -0.1923
21465SOL    HW176374   3.889   7.175   4.113 -0.1382  0.2880  2.7174
21465SOL    HW276375   3.738   7.170   4.127 -0.8787 -0.5207 -3.2141
21466SOL     OW76376   2.209   7.714  11.463 -0.4266  0.4436 -0.3704
21466SOL    HW176377   2.208   7.797  11.512  0.6550  1.4323 -1.9398
21466SOL    HW276378   2.201   7.740  11.372  1.5075 -1.0625 -1.0428
21467SOL     OW76379   5.114   1.848  12.319 -0.2331 -0.0149 -0.8509
21467SOL    HW176380   5.161   1.794  12.254  0.1268 -1.4807  0.5459
21467SOL    HW276381   5.022   1.839  12.295 -0.1532 -1.0294 -0.8445
21468SOL     OW76382   1.148   3.932   9.143  0.1388 -1.0153  0.1588
21468SOL    HW176383   1.090   3.884   9.084 -2.0010 -2.5605  3.2623
21468SOL    HW276384   1.097   4.007   9.171  0.8006 -0.7578  0.6934
21469SOL     OW76385   9.790   0.675   1.856 -0.5255 -0.1596 -0.3460
21469SOL    HW176386   9.823   0.699   1.769 -1.0089  0.0111 -0.4849
21469SOL    HW276387   9.757   0.585   1.845 -1.1213  0.0738 -0.4884
21470SOL     OW76388   4.029  13.907   6.416  0.0301 -0.3517  0.2174
21470SOL    HW176389   4.110  13.942   6.454  1.0918 -1.3762 -1.0269
21470SOL    HW276390   4.056  13.871   6.332 -1.8993  0.0815 -0.6343
21471SOL     OW76391  10.793   3.476   6.347  0.3431  0.5950  1.1184
21471SOL    HW176392  10.786   3.401   6.289 -1.0139  0.3076  1.6030
21471SOL    HW276393  10.829   3.440   6.428  0.8812  0.7168  0.9354
21472SOL     OW76394   0.249   8.137   9.089 -0.4894  0.0508 -0.1909
21472SOL    HW176395   0.291   8.122   9.174  0.4599  1.6223 -0.3229
21472SOL    HW276396   0.321   8.134   9.026 -0.5569  2.3325 -0.4836
21473SOL     OW76397   1.773  12.599   7.758  0.1805  0.5633  0.4518
21473SOL    HW176398   1.772  12.545   7.837 -1.0506  1.7185  1.2770
21473SOL    HW276399   1.732  12.544   7.691  0.1906 -0.0139  0.9124
21474SOL     OW76400   4.502  11.152   5.038  0.0844 -0.1045  0.2049
21474SOL    HW176401   4.558  11.187   4.969  0.8143 -2.3651 -0.4277
21474SOL    HW276402   4.429  11.111   4.992  0.3822 -1.2980  0.7478
21475SOL     OW76403   8.951   9.691  13.680 -0.1220  0.7573  0.0907
21475SOL    HW176404   8.973   9.618  13.622 -2.3487  0.7331 -0.8465
21475SOL    HW276405   8.945   9.651  13.767  1.1399  0.3636  0.0223
21476SOL     OW76406   1.234   3.811   5.040 -0.1046 -0.1222  0.0064
21476SOL    HW176407   1.308   3.790   4.983 -0.8991 -0.7758 -0.8182
21476SOL    HW276408   1.194   3.888   5.000  1.0842  1.2849  1.3947
21477SOL     OW76409   2.799   4.082  11.704 -0.7190 -0.0107 -0.6394
21477SOL    HW176410   2.873   4.116  11.755  0.0673 -1.0775 -1.0430
21477SOL    HW276411   2.748   4.160  11.682 -1.1047  0.5050  1.7656
21478SOL     OW76412   6.464   6.531   3.536  0.3682 -0.0225 -0.4231
21478SOL    HW176413   6.480   6.604   3.476  0.4302  0.5159  0.2369
21478SOL    HW276414   6.467   6.570   3.623 -2.3239 -0.2931 -0.1374
21479SOL     OW76415  10.319   3.584   2.088 -0.3425 -0.2650  0.4085
21479SOL    HW176416  10.293   3.675   2.104  3.4916  1.1305 -0.1939
21479SOL    HW276417  10.332   3.579   1.993  0.6436 -1.0157  0.5600
21480SOL     OW76418   7.816   9.230   5.139 -0.0748 -0.3566 -0.6664
21480SOL    HW176419   7.728   9.263   5.161 -0.3084 -1.6076  0.3373
21480SOL    HW276420   7.801   9.141   5.108  0.8309 -0.4630 -0.8116
21481SOL     OW76421   1.784   6.805   9.748 -1.0861  0.1212 -0.0986
21481SOL    HW176422   1.829   6.757   9.818  1.8051  0.9464 -1.2469
21481SOL    HW276423   1.776   6.894   9.781  0.1734  0.4834 -0.7118
21482SOL     OW76424  10.692  12.953  10.709  0.1888  0.1836  0.4701
21482SOL    HW176425  10.724  12.880  10.656 -0.6188  0.2624 -0.1479
21482SOL    HW276426  10.596  12.944  10.707  0.1186  0.5725  1.3719
21483SOL     OW76427  13.238  11.984   6.775  0.4307  0.5122  0.2306
21483SOL    HW176428  13.323  11.959   6.811  0.8276 -1.3901 -1.8661
21483SOL    HW276429  13.254  12.068   6.732  1.2206  0.2647  0.0186
21484SOL     OW76430   6.358   9.626   4.589  0.1684 -0.1055 -0.6602
21484SOL    HW176431   6.286   9.601   4.531 -0.4258  2.6473 -1.2940
21484SOL    HW276432   6.352   9.722   4.593  1.4686 -0.0294  2.3154
21485SOL     OW76433  13.747   4.589   1.579  0.2775  0.5448  0.0141
21485SOL    HW176434  13.808   4.659   1.601  0.6570  0.2871 -0.1940
21485SOL    HW276435  13.784   4.549   1.500  0.3100 -0.1677  0.3753
21486SOL     OW76436   2.715   5.908   6.125  0.3152  0.4146 -0.1616
21486SOL    HW176437   2.702   5.916   6.031  1.3132  1.3525 -0.2332
21486SOL    HW276438   2.808   5.889   6.135  0.3357  0.9281  0.6713
21487SOL     OW76439  13.835   2.337   2.185  0.0287  0.1175  0.3353
21487SOL    HW176440  13.825   2.289   2.267  1.5819 -1.5171 -0.3660
21487SOL    HW276441  13.802   2.278   2.118  1.4845  0.1913 -0.4891
21488SOL     OW76442  10.029  10.331   9.554  0.0324 -0.4842  0.3967
21488SOL    HW176443  10.084  10.257   9.577  1.7107  0.4441 -0.3966
21488SOL    HW276444   9.961  10.295   9.497  1.5808 -1.2476 -1.0502
21489SOL     OW76445   9.626   6.789   1.743  0.3534 -0.4338 -0.4181
21489SOL    HW176446   9.583   6.780   1.658 -2.0243  0.6954  0.5778
21489SOL    HW276447   9.599   6.711   1.792  0.3595 -0.2737 -0.1563
21490SOL     OW76448   1.857   5.615  10.313  0.3613  0.3003 -0.0062
21490SOL    HW176449   1.838   5.568  10.232 -0.0550 -0.6749  0.6322
21490SOL    HW276450   1.798   5.690  10.312  1.0478  0.8461 -1.0500
21491SOL     OW76451   5.469  11.221   9.963  0.0096  0.4804 -0.2454
21491SOL    HW176452   5.386  11.269   9.967 -0.3390 -0.1159 -0.1695
21491SOL    HW276453   5.536  11.287   9.981 -0.4595  0.9344 -0.1401
21492SOL     OW76454   0.218   5.546   1.151  0.0098  0.6449 -0.3784
21492SOL    HW176455   0.305   5.508   1.137  1.0127  2.8115 -0.4582
21492SOL    HW276456   0.204   5.540   1.246 -0.4858 -1.0803 -0.5159
21493SOL     OW76457  12.365   2.960  12.629 -0.0758 -0.3369 -0.3156
21493SOL    HW176458  12.315   3.019  12.686  0.4502 -0.4588  0.2947
21493SOL    HW276459  12.455   2.968  12.661 -0.1889 -2.4514  0.6521
21494SOL     OW76460   8.477   4.594  13.155  0.2735  0.8864  0.1413
21494SOL    HW176461   8.566   4.557  13.155 -0.1896 -0.2478 -0.0706
21494SOL    HW276462   8.433   4.551  13.228 -0.4032  0.7018 -0.3710
21495SOL     OW76463   1.002   8.054  13.121  0.1929  0.0858 -0.8009
21495SOL    HW176464   1.014   8.068  13.027  0.2360  1.8897 -0.5510
21495SOL    HW276465   1.090   8.036  13.154  0.2696  0.0814 -1.0076
21496SOL     OW76466   4.452  12.301   8.739 -0.0429  0.2907  0.0919
21496SOL    HW176467   4.358  12.291   8.755 -0.3237  1.1204 -0.9146
21496SOL    HW276468   4.488  12.214   8.757 -1.0379 -0.1016  0.2870
21497SOL     OW76469   7.996   6.552   1.123 -0.1159 -0.7583 -0.5739
21497SOL    HW176470   7.969   6.500   1.199 -1.3631 -1.1721 -1.2676
21497SOL    HW276471   7.998   6.642   1.156 -0.2191 -0.9819  0.0631
21498SOL     OW76472   8.724  13.928   5.567 -0.2241 -0.2556  0.2645
21498SOL    HW176473   8.674  14.010   5.559  1.5774  0.9695  0.8186
21498SOL    HW276474   8.762  13.932   5.655  1.6166 -0.6132 -0.4553
21499SOL     OW76475   7.489   5.986   6.829 -0.2403  0.3250 -0.1185
21499SOL    HW176476   7.569   5.946   6.863  0.2169  1.9883  0.9058
21499SOL    HW276477   7.426   5.914   6.824  0.7486 -0.6532  0.9090
21500SOL     OW76478   9.027   5.427   2.325  0.2179 -0.8313 -0.2775
21500SOL    HW176479   9.082   5.363   2.372  0.1822 -1.0460 -0.5238
21500SOL    HW276480   9.037   5.508   2.374  1.4436 -0.6448 -0.8081
21501SOL     OW76481   2.088   2.459   4.274  0.3406 -0.0368 -0.1182
21501SOL    HW176482   2.169   2.408   4.270  0.5050  0.2990 -1.5126
21501SOL    HW276483   2.092   2.516   4.198 -1.1693  0.0527 -0.1590
21502SOL     OW76484   9.797   4.693   0.748  0.1373  0.1759  0.3340
21502SOL    HW176485   9.805   4.769   0.805 -0.9414  0.4089  0.1988
21502SOL    HW276486   9.748   4.629   0.800 -1.3876  0.6152 -0.5171
21503SOL     OW76487  13.126   6.078   2.431  0.4870  0.6176  0.3872
21503SOL    HW176488  13.189   6.031   2.377 -0.4370 -0.8493  0.5498
21503SOL    HW276489  13.049   6.088   2.375  0.6314  1.9040  0.3808
21504SOL     OW76490  12.915   2.673  13.674 -0.0641  0.7062 -0.1652
21504SOL    HW176491  12.920   2.580  13.697 -0.7676  0.1729 -1.9715
21504SOL    HW276492  12.865   2.713  13.745  1.2481 -0.0475  1.2233
21505SOL     OW76493   5.694   7.107   8.271 -0.0619 -0.0375  0.1413
21505SOL    HW176494   5.673   7.022   8.310  0.2069 -0.4006 -0.4756
21505SOL    HW276495   5.618   7.128   8.218 -0.5118  0.5521  1.0092
21506SOL     OW76496  11.893   7.022   2.240 -0.1459 -0.5153 -0.3025
21506SOL    HW176497  11.847   7.043   2.321  0.4899  2.0425 -0.5003
21506SOL    HW276498  11.962   7.089   2.234 -0.5272 -0.2562 -3.2109
21507SOL     OW76499   9.405   5.448  13.897 -0.3225  0.0513 -0.2064
21507SOL    HW176500   9.436   5.538  13.887  2.4125 -0.6148  1.2180
21507SOL    HW276501   9.429   5.424  13.986  0.8125 -2.6623 -1.1284
21508SOL     OW76502   5.688  11.069  13.779 -0.3296 -0.3908  0.0178
21508SOL    HW176503   5.597  11.058  13.753  0.1044 -0.8380 -1.3924
21508SOL    HW276504   5.733  10.991  13.745  0.8085  0.4524 -0.4938
21509SOL     OW76505   5.874   7.932  11.529 -0.0463 -0.0348 -0.3071
21509SOL    HW176506   5.810   7.887  11.583 -0.7802  0.0962 -1.0544
21509SOL    HW276507   5.903   7.866  11.466  0.3600 -0.0168 -0.1452
21510SOL     OW76508   6.688   0.924   8.637  0.2718 -0.0455  0.5430
21510SOL    HW176509   6.646   0.841   8.658  0.4917 -0.0301  1.0464
21510SOL    HW276510   6.620   0.990   8.651  0.3438 -0.0592  0.9801
21511SOL     OW76511  12.707  12.911   2.769 -0.6846  0.0644 -0.9719
21511SOL    HW176512  12.666  12.917   2.855 -3.2797 -0.8830 -2.0133
21511SOL    HW276513  12.759  12.990   2.761 -0.2805  0.1183  1.4849
21512SOL     OW76514   6.722   9.065   0.961  0.0674 -0.1863 -0.1957
21512SOL    HW176515   6.754   9.108   1.040  1.2149  2.5394 -1.9703
21512SOL    HW276516   6.749   8.974   0.970 -0.5201 -0.1772  2.8302
21513SOL     OW76517   5.869  13.186   4.593  0.0564 -0.2075  0.7099
21513SOL    HW176518   5.913  13.107   4.562 -0.6202 -0.5229  0.5206
21513SOL    HW276519   5.917  13.258   4.552  0.8899 -0.4974  1.1540
21514SOL     OW76520  13.587   5.963   6.953 -0.6075 -0.6756 -0.1845
21514SOL    HW176521  13.509   5.909   6.965 -1.8784  0.4729 -2.4722
21514SOL    HW276522  13.553   6.048   6.923  1.4989  0.0339 -0.7522
21515SOL     OW76523   4.149   9.503  11.113  0.2956 -0.0080  0.2986
21515SOL    HW176524   4.150   9.422  11.165  0.5266  0.9889  1.9113
21515SOL    HW276525   4.145   9.573  11.177  1.5144  1.3299 -1.0013
21516SOL     OW76526   8.353   7.262  12.039 -0.1044 -0.1054 -0.0244
21516SOL    HW176527   8.293   7.187  12.032  0.9723 -1.0406  0.4892
21516SOL    HW276528   8.328   7.305  12.120  0.8521 -1.3632  0.9679
21517SOL     OW76529   9.889   1.100   1.862  0.0635 -0.3340 -0.0867
21517SOL    HW176530   9.929   1.016   1.842  0.5111 -0.2772  0.5526
21517SOL    HW276531   9.915   1.157   1.789  0.7725 -0.4196  0.0953
21518SOL     OW76532   5.069   6.393   4.321 -0.7043 -0.2830  0.1899
21518SOL    HW176533   5.067   6.471   4.265 -0.7157 -0.9720 -0.7942
21518SOL    HW276534   5.120   6.329   4.271 -1.8981 -1.3869  0.3525
21519SOL     OW76535   1.861   3.180   1.470  0.0648  0.2911  0.3877
21519SOL    HW176536   1.808   3.115   1.423 -1.9413  0.7798  1.8330
21519SOL    HW276537   1.894   3.238   1.401  1.3848 -1.8345 -0.8662
21520SOL     OW76538  13.991  12.379  13.554 -0.2114 -0.2941 -0.1801
21520SOL    HW176539  14.011  12.398  13.645  0.4635  0.7845 -0.5354
21520SOL    HW276540  14.070  12.336  13.521 -0.0729  0.2199 -0.5176
21521SOL     OW76541   6.385  12.720  12.843  0.0218 -0.0537 -0.0911
21521SOL    HW176542   6.390  12.812  12.870 -0.0789  0.2782 -1.1548
21521SOL    HW276543   6.376  12.724  12.748  0.2501 -1.1775 -0.1678
21522SOL     OW76544   9.204  10.674  12.744 -0.0636  0.4658 -0.4423
21522SOL    HW176545   9.278  10.615  12.763  0.3881  0.6215 -1.6591
21522SOL    HW276546   9.237  10.761  12.767 -0.5834  0.3363  0.9350
21523SOL     OW76547   1.990   5.243   9.363 -0.3544  0.2538  0.1157
21523SOL    HW176548   2.073   5.265   9.405  0.0013 -1.7509  0.5639
21523SOL    HW276549   1.925   5.296   9.410  0.2287 -0.7748  2.2147
21524SOL     OW76550   8.187   4.704   6.122 -0.2448 -0.0004 -0.6633
21524SOL    HW176551   8.100   4.692   6.161  0.7443  1.0954  2.1380
21524SOL    HW276552   8.245   4.651   6.176  0.8507 -1.2209 -2.8716
21525SOL     OW76553   6.386   1.157  13.958 -0.1751  0.1728  0.0901
21525SOL    HW176554   6.397   1.245  13.994 -2.1427  0.3997  0.2757
21525SOL    HW276555   6.303   1.126  13.995  0.5601 -1.8498  0.1759
21526SOL     OW76556   6.527   6.600  10.479 -0.4888  0.0793 -0.0276
21526SOL    HW176557   6.469   6.651  10.535  0.2578 -0.4154  1.2370
21526SOL    HW276558   6.566   6.535  10.538  1.1710  0.2599 -0.8827
21527SOL     OW76559   7.631   0.667   1.079 -0.2482  0.2790 -0.2296
21527SOL    HW176560   7.646   0.663   0.984  1.1419 -1.3702  0.0117
21527SOL    HW276561   7.545   0.626   1.091 -0.7697  1.1461 -0.8018
21528SOL     OW76562   7.830   3.830  10.172 -0.0672 -0.2333 -0.4827
21528SOL    HW176563   7.892   3.895  10.204  1.2516 -1.6279 -0.0874
21528SOL    HW276564   7.882   3.750  10.162 -1.8507 -1.5218  0.0540
21529SOL     OW76565   8.038  13.945  11.834 -0.0218 -0.5406  0.2766
21529SOL    HW176566   7.996  13.958  11.919 -0.8045  1.0803 -0.3182
21529SOL    HW276567   8.073  13.856  11.838 -1.0044 -0.8937  1.8821
21530SOL     OW76568   9.386   8.317   8.859  0.5733  0.5886 -0.0186
21530SOL    HW176569   9.431   8.240   8.894 -0.0284  0.4994  0.5770
21530SOL    HW276570   9.375   8.375   8.934 -1.4849  0.0260  0.1807
21531SOL     OW76571   7.779   8.916   0.164 -0.2338 -0.5410  0.5640
21531SOL    HW176572   7.698   8.952   0.199  0.0639  1.3446 -0.5283
21531SOL    HW276573   7.751   8.856   0.094 -0.7139  0.9183 -0.5422
21532SOL     OW76574   2.002  13.151   3.925  0.0123 -0.8090  0.3659
21532SOL    HW176575   1.996  13.096   3.848 -2.1559  0.8150 -0.7275
21532SOL    HW276576   1.944  13.111   3.989  0.9666 -1.5465  0.7977
21533SOL     OW76577  11.270   5.623   2.181  0.1208  0.1003 -0.1939
21533SOL    HW176578  11.235   5.706   2.214  2.1063  0.4356  1.2488
21533SOL    HW276579  11.350   5.610   2.231 -0.7221 -3.3117  0.4886
21534SOL     OW76580   2.311   7.924   3.982 -0.5805  0.1676 -0.0454
21534SOL    HW176581   2.321   7.948   3.890 -0.9913 -0.3770 -0.2377
21534SOL    HW276582   2.234   7.973   4.012 -0.9298 -0.2717 -0.2151
21535SOL     OW76583   0.905   2.936   3.864  0.3868 -0.1990 -0.2278
21535SOL    HW176584   0.943   3.017   3.896 -0.6706  0.6822 -1.1528
21535SOL    HW276585   0.811   2.953   3.858 -0.0151 -1.8709  0.6628
21536SOL     OW76586   2.646   2.198   0.079 -0.8204  0.2599 -0.4908
21536SOL    HW176587   2.636   2.183  -0.015 -1.1175 -0.6194 -0.3252
21536SOL    HW276588   2.558   2.184   0.115 -0.7102  0.5947 -0.0813
21537SOL     OW76589  11.213   4.808   1.427 -0.4881  0.6727 -0.4917
21537SOL    HW176590  11.140   4.842   1.478  0.8689  2.0420  0.6477
21537SOL    HW276591  11.269   4.885   1.412  1.9260 -0.7051  0.8046
21538SOL     OW76592   9.263   2.579   8.480 -0.2038  0.7182 -0.1141
21538SOL    HW176593   9.318   2.506   8.505  1.5969  2.0042 -0.1059
21538SOL    HW276594   9.244   2.565   8.387  1.9158  1.2795 -0.6792
21539SOL     OW76595   4.458   9.928   1.675  0.5000 -0.2374  0.7464
21539SOL    HW176596   4.440   9.981   1.752  0.0125 -0.2085  0.6159
21539SOL    HW276597   4.432   9.839   1.700  1.1881 -0.4005  0.9184
21540SOL     OW76598  11.739   8.781   7.497  0.8877 -0.0428  0.2989
21540SOL    HW176599  11.737   8.876   7.509  1.6797 -0.0617  0.7045
21540SOL    HW276600  11.831   8.757   7.513  2.0393 -0.2470 -4.8963
21541SOL     OW76601  13.799   6.834   6.617 -0.4758 -0.0365  0.4140
21541SOL    HW176602  13.817   6.765   6.681 -0.0653  0.0510  0.3989
21541SOL    HW276603  13.841   6.912   6.653 -1.0295  0.2355  0.4841
21542SOL     OW76604   2.659   7.285   6.348 -0.0872 -0.5344 -0.2023
21542SOL    HW176605   2.624   7.357   6.295 -0.0387 -0.4262 -0.0879
21542SOL    HW276606   2.655   7.317   6.438  0.7816 -0.3141 -0.2347
21543SOL     OW76607   2.677   3.279   5.672 -0.2373  0.3485  0.3988
21543SOL    HW176608   2.720   3.195   5.689 -0.7714  0.3784  2.1194
21543SOL    HW276609   2.725   3.342   5.726  0.4079  1.2441 -1.1796
21544SOL     OW76610   6.348  11.722   6.653  0.1989  0.0303  0.7890
21544SOL    HW176611   6.295  11.801   6.647  0.2439 -0.0120 -0.5078
21544SOL    HW276612   6.427  11.749   6.700  1.3298  1.4336 -1.7056
21545SOL     OW76613   5.889  13.199   2.349 -0.1339 -0.3502  0.0825
21545SOL    HW176614   5.985  13.206   2.354 -0.1144  0.7616 -1.2144
21545SOL    HW276615   5.857  13.270   2.405 -0.1942 -0.1810 -0.1684
21546SOL     OW76616   5.345   4.425   0.358  0.4794 -0.2378 -0.2647
21546SOL    HW176617   5.440   4.439   0.355  0.2877  1.0325 -1.8332
21546SOL    HW276618   5.327   4.373   0.279 -0.3026  0.8766 -0.8341
21547SOL     OW76619  12.199   1.767  10.342  0.7222 -0.1572  0.4356
21547SOL    HW176620  12.153   1.815  10.411 -0.9200 -2.7199  1.2782
21547SOL    HW276621  12.274   1.728  10.386  1.4239  0.6583  0.0050
21548SOL     OW76622   5.457   1.540  11.211 -0.3343  0.2204  0.1878
21548SOL    HW176623   5.405   1.613  11.177 -0.5079  1.5534  2.9987
21548SOL    HW276624   5.397   1.494  11.270 -0.2443 -2.3585 -1.5586
21549SOL     OW76625   0.655  13.405   8.779 -0.3377  0.4170 -0.2162
21549SOL    HW176626   0.711  13.467   8.827  1.7649 -0.5558 -1.2688
21549SOL    HW276627   0.691  13.319   8.801 -1.5269 -0.2654 -0.8491
21550SOL     OW76628   0.370  13.452  12.311 -0.1084  0.5708 -0.3169
21550SOL    HW176629   0.333  13.485  12.393  1.6708  0.2221  0.6965
21550SOL    HW276630   0.461  13.432  12.333  0.0489 -0.8380 -2.0339
21551SOL     OW76631   0.256   9.502   4.222  0.4715  0.3197  0.8348
21551SOL    HW176632   0.352   9.507   4.224  0.6418 -1.7884  0.5067
21551SOL    HW276633   0.231   9.560   4.150  1.7164 -0.6959 -0.5124
21552SOL     OW76634   1.562   8.189   6.905 -0.2014  0.6619  0.9569
21552SOL    HW176635   1.473   8.201   6.872 -0.1044  2.7074  1.3092
21552SOL    HW276636   1.591   8.106   6.866 -1.9022  0.4394  0.0661
21553SOL     OW76637  12.096   2.114   7.770  0.1699  0.1539  0.3271
21553SOL    HW176638  12.009   2.077   7.753  1.4723 -2.7813 -0.7071
21553SOL    HW276639  12.095   2.135   7.863 -1.8704  0.9134  0.1845
21554SOL     OW76640   8.625   1.839   8.106  0.8745  0.2686 -0.6363
21554SOL    HW176641   8.608   1.854   8.199  0.9892  0.5754 -0.6632
21554SOL    HW276642   8.698   1.777   8.105  0.6809  0.0373 -0.5224
21555SOL     OW76643   7.915   5.927   5.139 -0.4712  0.5048  0.2392
21555SOL    HW176644   7.888   5.914   5.229 -1.8887  2.6123  0.1785
21555SOL    HW276645   7.865   6.003   5.109  1.6383  1.2981 -1.5915
21556SOL     OW76646   5.764  12.621  11.255 -0.4191 -0.1988  0.1184
21556SOL    HW176647   5.703  12.547  11.252 -2.3510  1.3090  0.3013
21556SOL    HW276648   5.710  12.696  11.281  1.7307  1.0433  1.2840
21557SOL     OW76649  11.153   1.560   1.588  0.5045  0.4177  0.7361
21557SOL    HW176650  11.136   1.467   1.598 -1.5186  0.6649  0.1498
21557SOL    HW276651  11.206   1.584   1.664  0.5397 -1.0807  1.2120
21558SOL     OW76652   4.926   3.589   6.317 -0.5248 -0.4022 -0.1031
21558SOL    HW176653   4.981   3.663   6.345  0.3278 -0.2616 -2.0119
21558SOL    HW276654   4.874   3.624   6.245 -0.1646 -1.6128 -0.9844
21559SOL     OW76655   9.564  12.459   0.305  0.6257  0.1154 -0.2861
21559SOL    HW176656   9.468  12.459   0.302  0.5215  0.7994  1.6395
21559SOL    HW276657   9.587  12.545   0.341  1.8953 -0.4658  0.3606
21560SOL     OW76658   6.013   1.458   0.393 -0.4075  0.1420  0.1469
21560SOL    HW176659   5.980   1.487   0.478 -0.0967  0.1586  0.2640
21560SOL    HW276660   6.047   1.537   0.352 -1.1487  0.2517 -0.2703
21561SOL     OW76661   8.513  10.206   2.948 -0.3131  0.2160  0.3790
21561SOL    HW176662   8.569  10.179   2.874  0.1952  1.5439  0.2588
21561SOL    HW276663   8.443  10.256   2.907  0.0346  1.0574  0.7984
21562SOL     OW76664   3.307  10.581   0.124  0.3181 -0.1393  0.6975
21562SOL    HW176665   3.335  10.672   0.112  1.1638 -0.4758  0.0279
21562SOL    HW276666   3.297  10.572   0.219  0.9945  0.4328  0.8370
21563SOL     OW76667  11.132   2.587   2.908 -0.1875  0.3489 -0.0072
21563SOL    HW176668  11.177   2.567   2.990 -1.7641 -1.5096  0.4897
21563SOL    HW276669  11.186   2.546   2.841  1.0842  1.8350  0.0465
21564SOL     OW76670   9.347   3.070   2.876  0.5845  0.2180  0.1232
21564SOL    HW176671   9.291   3.147   2.890  0.6366  0.2938 -0.0888
21564SOL    HW276672   9.296   3.013   2.819 -0.0667 -0.5626  1.4370
21565SOL     OW76673   0.948   3.045   7.791  0.2276  0.5724 -0.0285
21565SOL    HW176674   0.959   3.054   7.697 -0.0244  0.3521 -0.0791
21565SOL    HW276675   0.977   3.129   7.827 -0.4344  0.9517 -0.3573
21566SOL     OW76676   6.345   1.389  11.083 -0.0364  0.0416 -0.0308
21566SOL    HW176677   6.320   1.395  11.175  1.8868  0.7431  0.4990
21566SOL    HW276678   6.375   1.299  11.072  2.0352  0.5811  0.7283
21567SOL     OW76679  11.791   4.353  10.776 -0.0278  0.3286 -0.4539
21567SOL    HW176680  11.698   4.347  10.794 -0.2000 -0.0447 -1.4011
21567SOL    HW276681  11.805   4.297  10.699  1.6449 -2.8785  1.9502
21568SOL     OW76682   5.965  13.747   2.729 -0.2071  0.1265  0.6757
21568SOL    HW176683   5.895  13.686   2.754 -0.4342  0.1259  0.0706
21568SOL    HW276684   5.919  13.826   2.702  0.1050  0.7103  1.8125
21569SOL     OW76685   1.765   4.604   2.071 -0.7384  0.3371 -0.0146
21569SOL    HW176686   1.684   4.631   2.113 -0.9087 -0.9828  0.5810
21569SOL    HW276687   1.780   4.515   2.104  1.4630  0.8846  0.6469
21570SOL     OW76688  12.912   5.170   4.463  0.3266 -0.1629  0.1311
21570SOL    HW176689  12.837   5.227   4.479  0.5498 -0.1077  1.0226
21570SOL    HW276690  12.874   5.090   4.427 -0.0065  0.4637 -0.9466
21571SOL     OW76691  12.056   6.106  11.818  0.1739 -0.1275 -0.1521
21571SOL    HW176692  12.037   6.012  11.820 -0.5884  0.0051 -0.8538
21571SOL    HW276693  12.086   6.125  11.907  1.6077 -1.2745 -0.3371
21572SOL     OW76694   0.034   3.263   6.878  0.3536  0.1147 -0.1676
21572SOL    HW176695  -0.020   3.196   6.920 -0.7916  0.9967 -0.2068
21572SOL    HW276696   0.067   3.316   6.950  1.9476 -0.9404 -0.0616
21573SOL     OW76697   2.129  11.576   8.878  0.7390 -0.3475  0.0647
21573SOL    HW176698   2.118  11.656   8.826  1.8155 -1.2736 -1.6734
21573SOL    HW276699   2.050  11.525   8.861  0.6206 -0.2120  0.1949
21574SOL     OW76700  13.900  10.292   0.512 -0.3894 -0.1433 -0.2813
21574SOL    HW176701  13.805  10.304   0.511 -0.6737 -2.0215  0.1224
21574SOL    HW276702  13.936  10.376   0.483 -2.1291  0.8977  0.4614
21575SOL     OW76703   0.293  11.011   7.317 -0.3333 -0.0287  0.1599
21575SOL    HW176704   0.348  11.032   7.392  0.8195  1.3007 -1.0009
21575SOL    HW276705   0.233  10.943   7.349 -0.7073  1.3563  2.5893
21576SOL     OW76706   7.439   4.295  12.718  0.2132  0.2776  0.2049
21576SOL    HW176707   7.438   4.367  12.654  1.6175  0.1452  0.0075
21576SOL    HW276708   7.360   4.308  12.770  0.5395  2.1084  0.3134
21577SOL     OW76709   3.059   1.368   8.142  0.5029  0.0532 -0.1542
21577SOL    HW176710   3.137   1.369   8.198  1.2695  2.8397 -1.1446
21577SOL    HW276711   2.989   1.335   8.199  1.9408 -0.5338  1.3621
21578SOL     OW76712   4.041   1.330   3.937  0.3210  0.2562 -0.5389
21578SOL    HW176713   4.041   1.274   4.014 -0.4075 -0.3689 -0.9806
21578SOL    HW276714   4.121   1.308   3.890  1.2903  1.3543  0.5211
21579SOL     OW76715   0.108   7.179  10.888 -0.0739 -0.3616 -0.0455
21579SOL    HW176716   0.037   7.212  10.832  1.3521  0.2959 -1.5374
21579SOL    HW276717   0.171   7.250  10.893  0.7363 -1.1052  0.8472
21580SOL     OW76718   8.214  12.136   8.848  0.6604  0.4010 -0.5457
21580SOL    HW176719   8.178  12.148   8.760 -2.1059 -0.8360  0.3152
21580SOL    HW276720   8.307  12.119   8.833  0.5387  1.4964 -3.1132
21581SOL     OW76721  12.837   8.237   1.895 -0.1434 -0.2247 -0.3060
21581SOL    HW176722  12.819   8.219   1.988  0.6989 -1.0274 -0.2830
21581SOL    HW276723  12.869   8.327   1.894  0.0974 -0.2981  0.2353
21582SOL     OW76724   6.316   9.202   8.309 -0.4508  0.3241 -0.2915
21582SOL    HW176725   6.316   9.296   8.295  1.1550  0.2965 -0.7545
21582SOL    HW276726   6.236   9.171   8.267  0.1580  1.2333 -2.2648
21583SOL     OW76727  12.308   5.395   0.437  0.2905 -0.3503  0.6596
21583SOL    HW176728  12.343   5.457   0.373 -0.4799  0.2294  0.7819
21583SOL    HW276729  12.378   5.330   0.449  0.0012 -1.1619 -1.6601
21584SOL     OW76730   0.972   5.925   8.283  0.1108  0.5344 -0.0642
21584SOL    HW176731   0.927   5.840   8.278  0.4412  0.3095  0.7246
21584SOL    HW276732   0.908   5.984   8.323  0.2695  0.3831  0.4169
21585SOL     OW76733   9.375  10.164  10.403  0.3442 -0.0352 -0.0692
21585SOL    HW176734   9.282  10.186  10.407  0.4944  0.5147  0.7795
21585SOL    HW276735   9.420  10.246  10.423  1.0048 -0.3414 -0.2669
21586SOL     OW76736  11.400  10.783   8.386 -0.5561 -0.4718 -0.1421
21586SOL    HW176737  11.360  10.696   8.383  2.1647 -1.8022 -0.7806
21586SOL    HW276738  11.476  10.772   8.443  0.7211  1.0878 -1.4696
21587SOL     OW76739   9.601   1.891   3.031  0.4975 -0.4600 -0.0564
21587SOL    HW176740   9.528   1.948   3.005 -1.3939 -2.2605  0.9837
21587SOL    HW276741   9.661   1.894   2.957  0.6455  3.0194  0.0349
21588SOL     OW76742   3.771   0.922   6.941  0.0120 -0.6998 -0.0371
21588SOL    HW176743   3.711   0.871   6.995 -1.5922 -2.2819 -3.0340
21588SOL    HW276744   3.778   1.006   6.986 -3.3398 -0.9377  1.2408
21589SOL     OW76745   6.410   4.220   0.984 -0.5738  0.3788 -0.1389
21589SOL    HW176746   6.493   4.215   1.031 -1.7255  0.3549  1.9957
21589SOL    HW276747   6.361   4.143   1.013 -2.3888  1.8290  0.8427
21590SOL     OW76748   5.343  13.019   8.724  0.5931  0.8201 -0.6397
21590SOL    HW176749   5.405  13.013   8.651  1.1333  0.3303 -0.1440
21590SOL    HW276750   5.270  12.962   8.698  0.7306  0.7381 -0.8449
21591SOL     OW76751  12.819  11.658   3.481  0.2342 -0.3153 -0.2559
21591SOL    HW176752  12.796  11.696   3.396 -1.4321 -2.3810 -0.8154
21591SOL    HW276753  12.823  11.564   3.465  1.3585 -0.6437  1.6630
21592SOL     OW76754   6.575  11.159  10.430 -0.0407 -0.2016 -0.1925
21592SOL    HW176755   6.506  11.221  10.453  1.0062  0.7926  0.3739
21592SOL    HW276756   6.636  11.209  10.375  1.3894 -0.3437  1.1667
21593SOL     OW76757   8.197   1.002  10.481  0.5814 -0.5625  0.1252
21593SOL    HW176758   8.203   0.955  10.398  0.9669 -1.0075  0.4027
21593SOL    HW276759   8.227   1.091  10.460  1.8944 -1.0066  0.0548
21594SOL     OW76760   4.401   2.426  10.762 -0.0565  0.1946  0.0170
21594SOL    HW176761   4.445   2.341  10.761  1.9186  1.1349  1.3476
21594SOL    HW276762   4.329   2.416  10.825 -0.8782 -0.9220 -1.0513
21595SOL     OW76763   4.364   5.726   4.459  0.0054  0.3508  0.1586
21595SOL    HW176764   4.369   5.797   4.524 -0.9942 -0.3806  1.0683
21595SOL    HW276765   4.451   5.686   4.461 -0.5204 -0.8742  2.5208
21596SOL     OW76766   2.418   8.525   2.888 -0.4936 -0.1097  0.0745
21596SOL    HW176767   2.484   8.521   2.819 -0.0776  0.3895  0.4388
21596SOL    HW276768   2.411   8.619   2.908 -2.7713  0.1187 -1.3827
21597SOL     OW76769   6.908   9.804  12.303  0.3364 -0.0129  0.6764
21597SOL    HW176770   6.872   9.828  12.388 -0.3493 -1.2368  0.7498
21597SOL    HW276771   6.842   9.746  12.264  0.6697  0.4710 -0.6595
21598SOL     OW76772  11.342   8.333  11.929 -0.4202 -0.5392 -0.1305
21598SOL    HW176773  11.388   8.417  11.931 -1.1993 -0.1044 -0.3168
21598SOL    HW276774  11.381   8.283  12.002  1.4007 -0.7655 -1.1787
21599SOL     OW76775  10.961   5.904  10.372 -0.4058  0.1065  0.0616
21599SOL    HW176776  10.993   5.827  10.325 -0.8803  0.5617 -1.0431
21599SOL    HW276777  11.036   5.963  10.376  0.1388 -0.6587  1.4740
21600SOL     OW76778   8.488   2.871   9.445  0.3269  0.7210  0.4662
21600SOL    HW176779   8.475   2.822   9.364 -1.2858  0.1298  1.0414
21600SOL    HW276780   8.481   2.963   9.418 -1.5390  0.5175  0.0825
21601SOL     OW76781   8.026   2.276   5.785 -0.4498  0.1666  0.3712
21601SOL    HW176782   7.995   2.262   5.695 -0.0790 -0.8936  0.3897
21601SOL    HW276783   8.087   2.203   5.800 -0.3764  0.4360  1.4215
21602SOL     OW76784   0.558  11.281   6.933  0.2460 -0.1137  0.4433
21602SOL    HW176785   0.479  11.332   6.949 -0.3073 -0.8788  0.1765
21602SOL    HW276786   0.559  11.267   6.838  0.1337 -1.0008  0.5642
21603SOL     OW76787   4.897   4.518  12.837  0.2992 -0.0241 -0.1685
21603SOL    HW176788   4.882   4.546  12.927  1.6863 -1.4182  0.5578
21603SOL    HW276789   4.979   4.561  12.812  0.5135 -0.5208 -0.3432
21604SOL     OW76790   7.610   9.687   3.842  0.3630 -0.2494 -0.8510
21604SOL    HW176791   7.602   9.780   3.820 -0.0832  0.4541  1.8691
21604SOL    HW276792   7.572   9.641   3.767  0.7935  1.7119 -2.3650
21605SOL     OW76793  10.634  13.648  13.477  0.0323  0.7437  0.2156
21605SOL    HW176794  10.570  13.579  13.461  0.8408  0.0857 -0.2876
21605SOL    HW276795  10.627  13.667  13.570 -0.3764  0.1563  0.3090
21606SOL     OW76796   9.286   4.828   8.720  0.9833 -0.8569  0.3163
21606SOL    HW176797   9.234   4.766   8.669 -0.2965  0.4832 -0.0688
21606SOL    HW276798   9.372   4.786   8.727  0.1327 -2.7330  0.2132
21607SOL     OW76799   4.203   4.938   0.923  0.0917  0.3420 -0.1631
21607SOL    HW176800   4.163   4.951   1.009  1.2440  2.1094  0.1851
21607SOL    HW276801   4.164   5.006   0.868 -0.1463 -0.3430 -0.8429
21608SOL     OW76802  13.144   9.840  12.768  0.8653  0.3074 -0.1193
21608SOL    HW176803  13.238   9.843  12.787  0.6872 -0.9459  1.0507
21608SOL    HW276804  13.125   9.748  12.749 -0.2784  0.4028  0.4746
21609SOL     OW76805   9.575  14.030   1.091 -0.4915  0.3974  0.1486
21609SOL    HW176806   9.574  14.115   1.048  0.2188 -0.3352 -1.4018
21609SOL    HW276807   9.484  14.003   1.092 -0.6214  0.8109 -0.1262
21610SOL     OW76808   6.664  12.116   8.549  0.1646 -0.2140  0.0120
21610SOL    HW176809   6.658  12.048   8.482  1.7757  0.3906 -0.8010
21610SOL    HW276810   6.657  12.198   8.500 -1.1118  0.2417  0.9006
21611SOL     OW76811   2.586   6.349   3.640 -0.2518  0.0963 -0.1315
21611SOL    HW176812   2.669   6.384   3.606 -0.3796  0.1646 -0.3728
21611SOL    HW276813   2.591   6.365   3.735 -0.3346  0.8375 -0.2412
21612SOL     OW76814   7.040   5.295   8.897  0.2920 -0.1990  0.0321
21612SOL    HW176815   7.116   5.284   8.841  1.3160 -0.5012  1.4417
21612SOL    HW276816   7.058   5.241   8.974 -1.0531  0.2299  0.6842
21613SOL     OW76817   2.493  13.782   0.166 -0.2295 -0.4622  0.6430
21613SOL    HW176818   2.433  13.784   0.241  1.0417 -0.0337  1.7014
21613SOL    HW276819   2.495  13.873   0.135 -1.6178 -0.8346 -0.6846
21614SOL     OW76820   8.661   2.125   1.914 -0.2306  0.4426  0.1469
21614SOL    HW176821   8.567   2.136   1.900 -0.3103 -0.2205  0.1442
21614SOL    HW276822   8.691   2.076   1.837  0.4298  2.0993 -0.7041
21615SOL     OW76823   5.984   8.183   5.703  0.7349  0.3039 -0.0213
21615SOL    HW176824   6.032   8.100   5.699  0.8075  0.3640 -0.4144
21615SOL    HW276825   5.964   8.195   5.796  2.8772  1.0800  0.4000
21616SOL     OW76826  11.410  13.314   3.474 -0.1506 -0.0345 -0.5237
21616SOL    HW176827  11.402  13.409   3.473 -0.1146 -0.0127  0.4820
21616SOL    HW276828  11.459  13.294   3.394  3.4134  1.1724  1.1095
21617SOL     OW76829   9.155   2.691  12.096  0.1042 -0.1677  0.1367
21617SOL    HW176830   9.125   2.600  12.103 -1.4117  0.0378 -2.3625
21617SOL    HW276831   9.250   2.684  12.090  0.0859 -1.5068  0.8580
21618SOL     OW76832  10.053  12.241  11.957 -0.0058  0.0208 -0.1619
21618SOL    HW176833  10.015  12.323  11.987  0.0659  1.0028 -2.5435
21618SOL    HW276834  10.127  12.267  11.902  0.3300 -1.6445 -0.5669
21619SOL     OW76835   6.774   4.320  11.257  0.1043 -0.5150  0.3075
21619SOL    HW176836   6.691   4.303  11.213 -0.7983 -1.0130  2.0873
21619SOL    HW276837   6.749   4.362  11.340  1.7341  0.7843  0.2041
21620SOL     OW76838   8.078   9.942   1.907 -0.1713 -0.0037  0.1445
21620SOL    HW176839   8.047   9.923   1.818 -1.0585  0.5768  0.3189
21620SOL    HW276840   8.105   9.857   1.941  0.7058 -0.1527 -0.8716
21621SOL     OW76841   6.346   4.464   8.005  0.1375 -0.5554 -0.3647
21621SOL    HW176842   6.348   4.522   7.929  0.0430 -0.5088 -0.3329
21621SOL    HW276843   6.307   4.517   8.074  1.0748 -0.2973 -0.0213
21622SOL     OW76844  10.328  11.125  11.022  0.0417  0.6340  0.4440
21622SOL    HW176845  10.389  11.086  10.959  0.3781  1.1588  0.4331
21622SOL    HW276846  10.242  11.093  10.996  0.2825  0.0788  0.3072
21623SOL     OW76847   5.826  12.097  10.923 -0.0273  0.4707 -0.4099
21623SOL    HW176848   5.830  12.014  10.876  0.1343  0.1882  0.0966
21623SOL    HW276849   5.732  12.119  10.925 -0.2832 -0.6285  1.0502
21624SOL     OW76850  12.263  12.989  10.275 -0.1168  0.3657  0.0517
21624SOL    HW176851  12.292  13.049  10.343  1.0411 -1.2786  1.0630
21624SOL    HW276852  12.332  12.923  10.270 -1.4100 -0.9720 -0.9179
21625SOL     OW76853   2.619  13.209   1.100 -0.1288  0.0099 -0.2711
21625SOL    HW176854   2.555  13.262   1.052 -0.0243 -0.3013 -0.7529
21625SOL    HW276855   2.579  13.197   1.186  0.1299  1.4132  0.0724
21626SOL     OW76856  11.316   2.886   5.712 -0.2566 -0.2858  0.0193
21626SOL    HW176857  11.275   2.966   5.745  3.0887  1.7267 -0.2867
21626SOL    HW276858  11.324   2.899   5.617  0.3908 -0.9401 -0.0336
21627SOL     OW76859   6.164   7.980   5.257  0.0478  0.3932 -0.0262
21627SOL    HW176860   6.086   7.944   5.215  0.5187 -0.3998 -0.2302
21627SOL    HW276861   6.195   8.048   5.196  0.5145 -0.4996 -0.8101
21628SOL     OW76862  13.858   2.083   1.007  0.4648 -0.3214 -0.2873
21628SOL    HW176863  13.821   1.995   1.000 -0.0943 -0.0925 -0.2119
21628SOL    HW276864  13.801   2.129   1.067  1.5163 -0.2921  0.7223
21629SOL     OW76865  13.466  11.976   5.503 -0.3977  0.2162 -0.1858
21629SOL    HW176866  13.551  12.006   5.471 -0.8177  3.0655  1.0422
21629SOL    HW276867  13.461  12.011   5.593 -2.6688 -0.2611 -0.0707
21630SOL     OW76868   0.276  12.481  12.630 -0.3253  0.0357  0.4688
21630SOL    HW176869   0.332  12.449  12.560 -1.6367  1.5831 -1.4247
21630SOL    HW276870   0.282  12.415  12.699  1.9634 -0.9604 -0.5918
21631SOL     OW76871   5.761   1.924  11.785  0.3477  0.0459 -0.2257
21631SOL    HW176872   5.715   1.974  11.719 -1.8069 -0.7512  0.5887
21631SOL    HW276873   5.694   1.900  11.849  1.8505 -1.3647  0.9236
21632SOL     OW76874   6.781  12.156  10.969 -0.0296 -0.2263  0.0493
21632SOL    HW176875   6.704  12.202  10.938  1.9569  3.0884 -0.4098
21632SOL    HW276876   6.771  12.154  11.064 -1.1124 -0.8024 -0.0571
21633SOL     OW76877   6.268   4.088   9.462 -0.2550 -0.1233  0.4386
21633SOL    HW176878   6.235   4.013   9.512 -2.2146 -0.6950 -1.5422
21633SOL    HW276879   6.362   4.072   9.454  0.0989 -0.1593  3.5529
21634SOL     OW76880   1.504   1.613   5.745  0.2494 -0.4902 -0.0312
21634SOL    HW176881   1.489   1.693   5.694  2.0463 -0.0058  0.1238
21634SOL    HW276882   1.486   1.638   5.836 -1.0319 -0.8135 -0.1749
21635SOL     OW76883   8.735   8.126  11.386  0.7908  0.0084  0.2726
21635SOL    HW176884   8.777   8.209  11.406  0.4744  0.2567 -0.0685
21635SOL    HW276885   8.807   8.064  11.375  0.9795 -0.4468  3.2744
21636SOL     OW76886   7.593   2.434  11.006 -0.4102 -0.6235 -0.1942
21636SOL    HW176887   7.539   2.470  11.076 -0.3732 -2.3274  0.7732
21636SOL    HW276888   7.546   2.356  10.977  0.6468 -1.1512 -0.5493
21637SOL     OW76889  12.331   6.553  12.311 -0.0472 -0.4492  0.2063
21637SOL    HW176890  12.275   6.611  12.259  0.5951 -0.0130 -0.0138
21637SOL    HW276891  12.391   6.611  12.356  2.3139 -0.9678 -1.9861
21638SOL     OW76892  12.241   6.628  12.678  0.1663  0.5209  0.1140
21638SOL    HW176893  12.211   6.703  12.627  0.6903  1.1928  0.7610
21638SOL    HW276894  12.206   6.551  12.632  2.0454  0.9794 -2.2764
21639SOL     OW76895   5.032   4.686   2.714 -0.0019 -0.1190  0.1760
21639SOL    HW176896   5.019   4.723   2.627  0.4619 -0.2395  0.0479
21639SOL    HW276897   5.128   4.677   2.721  0.1228  1.8342  1.5012
21640SOL     OW76898   4.415  10.918  13.242  0.2276  0.3169  0.3070
21640SOL    HW176899   4.330  10.961  13.234 -0.2238 -0.4513  0.8277
21640SOL    HW276900   4.425  10.870  13.160  1.1497  2.1060 -0.6661
21641SOL     OW76901   6.259  12.302   2.118 -0.0420 -0.0576  0.3321
21641SOL    HW176902   6.315  12.368   2.159 -0.1807 -0.8150  1.7785
21641SOL    HW276903   6.176  12.308   2.166 -1.2293  0.9832 -1.7090
21642SOL     OW76904   1.201   6.307   6.398 -0.4267 -0.1061 -0.2518
21642SOL    HW176905   1.220   6.366   6.472  1.2866  0.8341 -1.3785
21642SOL    HW276906   1.159   6.231   6.439 -1.7781  1.4234  1.3739
21643SOL     OW76907  11.694  11.551   1.942  0.1493 -0.0498  0.3570
21643SOL    HW176908  11.757  11.611   1.901 -0.4372 -0.1697 -0.7501
21643SOL    HW276909  11.747  11.502   2.005  0.4779  2.2107  1.9614
21644SOL     OW76910   6.219   8.503  11.132 -0.2488  0.3035  0.0233
21644SOL    HW176911   6.140   8.506  11.078  0.0095  1.0661 -0.3368
21644SOL    HW276912   6.219   8.586  11.180  0.7905  0.7318 -0.6663
21645SOL     OW76913   7.671   2.103   0.741 -0.2770  0.0690  0.5133
21645SOL    HW176914   7.601   2.038   0.732  0.1952 -0.7025  2.0617
21645SOL    HW276915   7.717   2.100   0.657 -1.1585 -0.5315  0.0309
21646SOL     OW76916   9.847   2.195  11.466 -0.0791 -0.1138  0.3759
21646SOL    HW176917   9.801   2.268  11.507  2.1068  1.2209  0.6024
21646SOL    HW276918   9.913   2.169  11.530 -0.1522 -1.6239 -0.1306
21647SOL     OW76919   4.184   7.815   1.498 -0.1714 -0.1261 -0.0472
21647SOL    HW176920   4.148   7.773   1.420 -0.8756 -0.1725  0.2897
21647SOL    HW276921   4.185   7.746   1.565  0.0364  0.0186  0.1024
21648SOL     OW76922   0.050  11.689   1.255  0.2512  0.6574  0.4004
21648SOL    HW176923   0.062  11.677   1.349  1.1386 -0.3797  0.1732
21648SOL    HW276924  -0.016  11.623   1.231  0.5875  0.3967  0.1779
21649SOL     OW76925  10.376  10.645   2.410  0.3828  0.0296 -0.7444
21649SOL    HW176926  10.349  10.651   2.502 -0.6496 -1.0232 -0.9532
21649SOL    HW276927  10.460  10.600   2.412  0.5928  0.4380 -0.2817
21650SOL     OW76928   2.274   2.127   7.453  0.3370 -0.1699 -0.9670
21650SOL    HW176929   2.363   2.142   7.422  0.8025 -2.0027 -0.6841
21650SOL    HW276930   2.218   2.158   7.383  1.2258  0.2694 -1.4950
21651SOL     OW76931   3.369   1.918  12.806  0.1825  0.4396 -0.1606
21651SOL    HW176932   3.363   1.927  12.711 -1.5099  3.2206  0.0850
21651SOL    HW276933   3.278   1.909  12.835  0.6952 -0.7552  1.1974
21652SOL     OW76934   0.644   6.395   2.079 -0.2645 -0.0649 -0.4073
21652SOL    HW176935   0.655   6.309   2.119 -0.8494  0.2272  0.3972
21652SOL    HW276936   0.718   6.446   2.111 -0.3872 -0.0175 -0.1982
21653SOL     OW76937   1.270  10.694   5.964  0.0207 -0.3187  0.8958
21653SOL    HW176938   1.329  10.739   5.903  0.3522 -2.8751 -0.8278
21653SOL    HW276939   1.190  10.679   5.913  0.3758 -2.6764  0.9066
21654SOL     OW76940  12.344   1.156   4.451  0.9396  0.0608 -0.1723
21654SOL    HW176941  12.273   1.173   4.390  1.8665  1.7281 -0.8387
21654SOL    HW276942  12.408   1.106   4.400  0.9286 -0.0950 -0.0346
21655SOL     OW76943   2.924   9.835   9.549  0.3159  0.1479 -0.8403
21655SOL    HW176944   2.873   9.792   9.618  1.3017  0.9472  0.4312
21655SOL    HW276945   2.886   9.922   9.541  2.1875  1.2247  1.0364
21656SOL     OW76946   9.155  13.767  13.700 -0.6046 -0.0587 -0.0581
21656SOL    HW176947   9.081  13.817  13.665 -0.0704  0.9311  0.1762
21656SOL    HW276948   9.182  13.710  13.628 -1.0874  0.1486 -0.4117
21657SOL     OW76949   9.823  10.274   6.779  0.6499  0.1962 -0.1272
21657SOL    HW176950   9.825  10.281   6.683 -1.7060 -0.0319 -0.2707
21657SOL    HW276951   9.862  10.189   6.798 -3.6479 -2.4077 -1.4722
21658SOL     OW76952   5.040   2.870   5.319 -0.1292 -0.0126 -0.4116
21658SOL    HW176953   5.071   2.820   5.394  0.0806  1.5788  0.6285
21658SOL    HW276954   4.962   2.823   5.290 -0.0169 -0.8639  0.5902
21659SOL     OW76955   5.177   3.636   2.381 -0.5853 -0.5468 -0.2708
21659SOL    HW176956   5.111   3.603   2.442 -0.5326 -0.8075 -0.3539
21659SOL    HW276957   5.246   3.672   2.436 -0.8341 -0.1933 -0.1828
21660SOL     OW76958  11.263   2.921   6.398 -0.7920  0.4102 -0.3013
21660SOL    HW176959  11.236   2.867   6.324 -2.4533 -0.3286  0.7764
21660SOL    HW276960  11.204   2.895   6.469  0.6646  1.1690  1.2503
21661SOL     OW76961  12.786  12.887  13.677 -0.2781  0.2240  0.0830
21661SOL    HW176962  12.851  12.956  13.691 -0.7038  0.7907 -0.6158
21661SOL    HW276963  12.809  12.850  13.592 -1.3698  1.0352 -0.5967
21662SOL     OW76964   0.411   9.684   3.598 -0.2091 -0.1515  0.1449
21662SOL    HW176965   0.461   9.754   3.556 -1.0798  0.3219 -0.1209
21662SOL    HW276966   0.323   9.720   3.610 -0.2257 -0.5875  1.5822
21663SOL     OW76967   8.144   9.685   6.081  0.2038  0.7034 -0.0979
21663SOL    HW176968   8.102   9.678   5.995 -0.5780  0.9050  0.2609
21663SOL    HW276969   8.232   9.651   6.067 -0.7782 -2.0101 -0.3492
21664SOL     OW76970   4.940  11.103  13.524  0.1113 -0.5981 -0.0469
21664SOL    HW176971   5.009  11.062  13.472 -0.8983  0.2244 -2.1924
21664SOL    HW276972   4.869  11.039  13.525 -0.0093 -0.4647 -0.0106
21665SOL     OW76973   9.627   4.526  13.790 -0.2174 -0.4282  0.4679
21665SOL    HW176974   9.655   4.451  13.842  0.0140  0.1663  1.2235
21665SOL    HW276975   9.569   4.489  13.723  1.1003 -1.4766 -0.1445
21666SOL     OW76976  12.022   9.307  12.464 -0.2134 -0.0883 -0.0126
21666SOL    HW176977  12.055   9.371  12.528  2.7136 -0.4905 -0.9946
21666SOL    HW276978  12.051   9.223  12.498 -1.5707 -0.6628 -0.2106
21667SOL     OW76979   1.600   7.853   6.854 -0.1588 -0.2843  0.5962
21667SOL    HW176980   1.584   7.767   6.894  1.0913 -0.8236 -0.0014
21667SOL    HW276981   1.591   7.837   6.760  0.2912  0.1949  0.4727
21668SOL     OW76982   1.736  13.270  10.342  0.2504 -0.1145 -0.4330
21668SOL    HW176983   1.682  13.242  10.416 -0.4251 -1.1603 -1.2865
21668SOL    HW276984   1.760  13.188  10.298  1.9369  0.3790 -0.5038
21669SOL     OW76985   8.367   3.296  11.833 -0.2632  0.5802 -0.5300
21669SOL    HW176986   8.306   3.309  11.905 -2.5323  0.1389 -2.2389
21669SOL    HW276987   8.434   3.237  11.868 -0.2669  1.8020  1.6876
21670SOL     OW76988  12.655   2.954  10.075 -0.4070  0.2974 -0.3206
21670SOL    HW176989  12.594   2.884  10.054  0.5732 -0.5624 -0.3493
21670SOL    HW276990  12.599   3.031  10.087 -1.5256 -0.5327 -0.0146
21671SOL     OW76991   2.735   0.050   8.956  0.5534 -0.2559  0.5912
21671SOL    HW176992   2.661   0.082   9.008 -1.4883 -0.9887 -1.6641
21671SOL    HW276993   2.740   0.110   8.882  3.3407  0.7171  1.4461
21672SOL     OW76994   2.128  11.754   2.802  0.6898  0.1005  0.0062
21672SOL    HW176995   2.073  11.678   2.782  0.5270 -0.0908  1.1273
21672SOL    HW276996   2.172  11.774   2.719 -0.8263  0.0714 -0.8321
21673SOL     OW76997   3.407   8.865   0.493 -0.1658  0.1607  0.2933
21673SOL    HW176998   3.376   8.946   0.453  3.3189  0.7632 -1.5817
21673SOL    HW276999   3.354   8.796   0.452 -3.2280  1.3094  1.9596
21674SOL     OW77000   5.628   4.556   6.611  0.0842  0.5890  0.9265
21674SOL    HW177001   5.620   4.537   6.517 -0.8469 -0.5993  1.2259
21674SOL    HW277002   5.723   4.556   6.627  0.2154 -1.2622  0.3600
21675SOL     OW77003   7.352  12.628  13.837  0.9208 -0.0423  0.3691
21675SOL    HW177004   7.258  12.629  13.822  1.1357 -2.5693 -1.8823
21675SOL    HW277005   7.379  12.539  13.815  4.1063  1.1386 -1.1379
21676SOL     OW77006   3.408  10.031   2.918 -0.2755  0.0664  0.1125
21676SOL    HW177007   3.366  10.033   3.004  1.1841  0.1058  0.8357
21676SOL    HW277008   3.493  10.073   2.931  0.6110 -1.2979 -0.9905
21677SOL     OW77009   1.132   8.792  10.695  0.0353  0.0968 -0.2100
21677SOL    HW177010   1.125   8.726  10.626  1.6184 -2.0238  1.5350
21677SOL    HW277011   1.056   8.776  10.752  2.5529 -3.3832  2.6227
21678SOL     OW77012   3.326   6.405   6.653  0.2056  0.2278  0.0661
21678SOL    HW177013   3.392   6.398   6.584  0.0529 -0.7849  0.0082
21678SOL    HW277014   3.266   6.473   6.622  1.5598  1.6461  0.4245
21679SOL     OW77015   6.060   1.667   8.759 -0.3155  0.4035  0.0077
21679SOL    HW177016   6.093   1.596   8.704  0.6283  1.4442 -0.8314
21679SOL    HW277017   6.132   1.684   8.820  0.0463  1.5078 -0.6842
21680SOL     OW77018  11.161   0.473   6.044 -0.5375  0.1444 -0.2033
21680SOL    HW177019  11.097   0.535   6.079 -2.0244 -0.6168 -1.4576
21680SOL    HW277020  11.127   0.387   6.069 -0.7980 -0.3387 -2.0627
21681SOL     OW77021  12.881   1.677  10.125  0.0728  0.1909  0.1505
21681SOL    HW177022  12.952   1.713  10.072  0.4989 -0.9374 -0.0898
21681SOL    HW277023  12.892   1.582  10.116 -1.1519  0.0046  0.5415
21682SOL     OW77024   5.907   6.150   6.725  0.8742  0.4585 -0.1619
21682SOL    HW177025   5.981   6.094   6.751  0.6980 -0.8333 -2.2599
21682SOL    HW277026   5.864   6.102   6.655 -0.9359  2.0207 -0.1978
21683SOL     OW77027   5.679  11.279  10.259  0.0315 -0.2459  0.3402
21683SOL    HW177028   5.630  11.361  10.272  0.0253  0.0234 -1.1165
21683SOL    HW277029   5.622  11.211  10.296 -0.4884  0.2916  0.5517
21684SOL     OW77030   5.583  12.287   5.875 -0.8651  0.3011 -0.4644
21684SOL    HW177031   5.590  12.383   5.882  1.6972  0.0808  2.1521
21684SOL    HW277032   5.553  12.272   5.786  0.4657  3.5310 -1.6420
21685SOL     OW77033   5.486   9.424   0.109  0.1072 -0.4651  0.8247
21685SOL    HW177034   5.445   9.344   0.076 -0.0506  0.6581 -1.9076
21685SOL    HW277035   5.571   9.395   0.143 -0.9450 -2.1169  2.2672
21686SOL     OW77036   6.632  11.687  10.044 -0.2272  0.1734 -0.4812
21686SOL    HW177037   6.542  11.709  10.070  0.3424  1.4445  0.5024
21686SOL    HW277038   6.626  11.667   9.950 -1.5166  0.3058 -0.4397
21687SOL     OW77039   8.344   1.767   4.958 -0.8346 -0.5983 -0.0097
21687SOL    HW177040   8.349   1.856   4.994  1.9594  0.9615 -3.5477
21687SOL    HW277041   8.260   1.765   4.912 -0.4922  0.6915 -0.7642
21688SOL     OW77042   7.357   3.874  13.740  0.6359  0.1374  0.1188
21688SOL    HW177043   7.331   3.783  13.757  0.9263  0.3767  2.0106
21688SOL    HW277044   7.275   3.924  13.748  0.8840  0.3427  1.7495
21689SOL     OW77045   2.095   3.358   4.531  0.3236  0.7228  0.0492
21689SOL    HW177046   2.092   3.408   4.449 -1.7671 -1.2427 -1.1996
21689SOL    HW277047   2.008   3.370   4.569  0.1811 -0.8843  0.3173
21690SOL     OW77048  12.537   6.183   0.655  0.0034  0.2547 -0.2579
21690SOL    HW177049  12.560   6.130   0.579 -3.4730 -0.4014 -1.0251
21690SOL    HW277050  12.497   6.122   0.716 -0.5280  1.3685  0.5367
21691SOL     OW77051   7.384  13.684   6.365  0.0676 -0.2837  0.2045
21691SOL    HW177052   7.415  13.756   6.309  0.8227 -0.6618  0.1240
21691SOL    HW277053   7.377  13.723   6.452  0.1369 -0.0232  0.0958
21692SOL     OW77054   3.462  12.003   0.755 -0.1322  0.4250  0.3862
21692SOL    HW177055   3.433  11.994   0.846 -0.5797 -1.1512  0.1201
21692SOL    HW277056   3.520  12.080   0.756  1.4862 -0.7040  2.4275
21693SOL     OW77057   2.855   0.937   2.740 -0.1095  0.7598  0.3858
21693SOL    HW177058   2.921   0.887   2.790 -0.8907 -1.3568 -0.5677
21693SOL    HW277059   2.776   0.930   2.793 -0.5458 -0.1785 -0.3527
21694SOL     OW77060   4.435   4.957  13.928 -0.0424  0.5121 -0.2340
21694SOL    HW177061   4.410   4.975  14.019 -2.3631  0.9831 -0.8840
21694SOL    HW277062   4.478   5.038  13.899 -0.0647  0.6818  0.1963
21695SOL     OW77063   0.489  12.914   9.187 -0.3607 -0.0648  0.1657
21695SOL    HW177064   0.406  12.888   9.226 -0.7440  0.5595 -0.2075
21695SOL    HW277065   0.482  13.009   9.178  0.6935  0.0928  0.8112
21696SOL     OW77066   7.954  11.544   4.526  0.1356 -0.4681 -0.2698
21696SOL    HW177067   8.022  11.611   4.537 -0.6479  0.6402 -1.7336
21696SOL    HW277068   7.982  11.493   4.450  0.0467 -0.9184 -0.0012
21697SOL     OW77069   4.023   7.897   4.781  0.2683 -0.1960 -0.5040
21697SOL    HW177070   3.946   7.861   4.824  0.5143  0.2681  0.3501
21697SOL    HW277071   3.988   7.948   4.707 -0.0904 -1.9082 -1.5611
21698SOL     OW77072  11.209   3.672   2.435 -0.0200 -0.7008  0.0110
21698SOL    HW177073  11.141   3.663   2.502 -0.1230 -3.5074 -0.3430
21698SOL    HW277074  11.174   3.625   2.360  2.2030 -2.1106 -0.2324
21699SOL     OW77075   4.080   2.505   8.650  0.0312  0.3908  0.0947
21699SOL    HW177076   4.144   2.493   8.580  0.1932  0.1722  0.2768
21699SOL    HW277077   4.043   2.417   8.664  2.7329 -0.4893  2.8868
21700SOL     OW77078   6.098   1.907   8.187 -0.4350  0.0319 -0.0918
21700SOL    HW177079   6.119   1.846   8.258  1.0108  0.3028 -0.2560
21700SOL    HW277080   6.053   1.853   8.122 -0.9586 -0.4132  0.6209
21701SOL     OW77081   2.020   2.642   4.445  0.4445  0.4425  0.6349
21701SOL    HW177082   2.016   2.714   4.383  0.0925  0.6561  0.8974
21701SOL    HW277083   2.039   2.565   4.392  0.5487  0.6868  0.3161
21702SOL     OW77084   0.440   3.016   6.181 -0.0675  1.0367  0.3704
21702SOL    HW177085   0.423   2.976   6.267 -1.0933  1.3259  0.3232
21702SOL    HW277086   0.456   2.942   6.122  0.1942  0.8142  0.7157
21703SOL     OW77087   7.608   8.300  12.533 -0.9128 -0.2292 -0.2332
21703SOL    HW177088   7.597   8.217  12.486 -0.4164 -0.2279 -0.3540
21703SOL    HW277089   7.576   8.281  12.621 -1.1044 -0.4580 -0.3514
21704SOL     OW77090   6.538   1.988   0.620 -0.3891  0.0144  0.5175
21704SOL    HW177091   6.505   1.902   0.591  0.1764 -0.5141  1.3906
21704SOL    HW277092   6.537   1.982   0.715 -3.3652  2.1403  0.7629
21705SOL     OW77093   8.970  13.788  10.430  0.8477  0.0936  0.0660
21705SOL    HW177094   8.894  13.777  10.373  0.1817  0.8822  0.7827
21705SOL    HW277095   8.988  13.882  10.429  0.5572  0.1845  1.4788
21706SOL     OW77096   3.179  13.537   9.550  0.1951  0.0626  0.7911
21706SOL    HW177097   3.234  13.615   9.553 -1.3349  1.3168 -1.2221
21706SOL    HW277098   3.102  13.560   9.602 -1.4002  0.9729 -1.7814
21707SOL     OW77099  11.104   7.051   6.304 -0.1254 -0.1103  0.0143
21707SOL    HW177100  11.194   7.081   6.313 -0.3680  0.2252  1.7574
21707SOL    HW277101  11.055   7.131   6.283  0.0063 -0.3528 -1.2947
21708SOL     OW77102  12.046   4.890   1.299 -0.0815 -0.3282 -0.0429
21708SOL    HW177103  11.971   4.927   1.253 -0.7079 -1.6849 -0.1711
21708SOL    HW277104  12.050   4.799   1.269  2.7978  0.1661 -1.5208
21709SOL     OW77105  13.283  11.419   6.603 -0.0670  0.4099 -0.6106
21709SOL    HW177106  13.363  11.405   6.553  0.7347  0.8373  0.5090
21709SOL    HW277107  13.248  11.502   6.571  0.1607  0.4226 -0.8215
21710SOL     OW77108  11.283  10.019   9.608 -0.4963  0.4499 -0.2203
21710SOL    HW177109  11.302   9.989   9.519  0.2887  2.7673 -0.9196
21710SOL    HW277110  11.274  10.114   9.599 -2.6954  0.5072  1.8182
21711SOL     OW77111  10.131  13.986  12.694  0.1569 -0.1878 -0.4356
21711SOL    HW177112  10.079  13.935  12.633  0.9951 -0.4849 -0.9157
21711SOL    HW277113  10.167  14.057  12.642  0.8562 -0.4270 -0.2866
21712SOL     OW77114   4.597  13.056  12.331  0.1332  0.5630 -0.0157
21712SOL    HW177115   4.582  13.140  12.375 -0.6570  0.9431 -0.9685
21712SOL    HW277116   4.518  13.042  12.278  0.5515 -0.4480 -0.4005
21713SOL     OW77117   8.757   2.951   6.554  0.3097  0.0773 -1.0112
21713SOL    HW177118   8.663   2.957   6.571 -0.0221 -2.6841 -1.4537
21713SOL    HW277119   8.787   3.042   6.554 -1.9028  0.9373  1.4857
21714SOL     OW77120  11.241  12.855   6.134 -0.8470  0.2310 -0.5786
21714SOL    HW177121  11.300  12.803   6.189 -3.1855 -0.1280  1.8323
21714SOL    HW277122  11.162  12.866   6.188 -1.7798  3.3961 -2.3274
21715SOL     OW77123  10.653   6.603   2.204  0.0736 -0.1957  0.1054
21715SOL    HW177124  10.695   6.556   2.131  0.5754 -0.5045  0.5817
21715SOL    HW277125  10.707   6.581   2.280 -1.5449 -1.4709  0.9542
21716SOL     OW77126   1.474  13.577   5.815 -0.0713 -0.4691  0.1713
21716SOL    HW177127   1.414  13.520   5.863  0.7241 -1.2713  0.2390
21716SOL    HW277128   1.500  13.644   5.879 -0.3505 -0.5226  0.3426
21717SOL     OW77129   5.305  10.049   4.294 -0.1707 -0.1322 -1.0016
21717SOL    HW177130   5.390  10.063   4.336 -0.7995 -0.3775  0.4418
21717SOL    HW277131   5.323  10.050   4.200  1.3610  0.1602 -0.7270
21718SOL     OW77132   4.742   8.058   1.103  0.3670 -0.1359 -0.2661
21718SOL    HW177133   4.772   8.147   1.124 -1.0970  0.5283 -0.8714
21718SOL    HW277134   4.755   8.050   1.009 -2.8884  0.8740 -0.9382
21719SOL     OW77135  13.270   9.302  10.889 -0.0445 -0.2266 -0.3527
21719SOL    HW177136  13.314   9.323  10.807  0.6011 -0.4898 -0.0829
21719SOL    HW277137  13.273   9.384  10.939 -0.5555 -0.0305 -0.6466
21720SOL     OW77138   0.129   8.397   3.021 -0.2137  0.4951 -0.8275
21720SOL    HW177139   0.137   8.407   3.116 -1.3037  0.8657 -0.7564
21720SOL    HW277140   0.188   8.325   2.999 -0.4679 -0.0592  0.2252
21721SOL     OW77141   2.968  10.649   3.007  0.2859 -0.5996 -0.2730
21721SOL    HW177142   3.004  10.736   2.988 -0.5587 -0.3326 -0.6517
21721SOL    HW277143   2.955  10.649   3.102 -1.3587  0.3418 -0.4689
21722SOL     OW77144  11.238   7.662   4.266 -0.3198 -0.0535  0.2696
21722SOL    HW177145  11.298   7.735   4.281 -0.4847  0.1706 -0.1440
21722SOL    HW277146  11.291   7.596   4.220 -0.4668  0.2783 -0.3931
21723SOL     OW77147  11.395   7.471   6.495 -0.4918 -0.4826 -0.3290
21723SOL    HW177148  11.402   7.376   6.498  2.1619 -0.3485  1.1427
21723SOL    HW277149  11.386   7.497   6.587  0.5851  0.7264 -0.5394
21724SOL     OW77150  13.710   4.848  13.974 -0.2471  0.0994  0.1673
21724SOL    HW177151  13.766   4.777  13.943 -2.3995 -1.8277  0.3903
21724SOL    HW277152  13.627   4.836  13.927 -0.3900  3.2109 -0.6348
21725SOL     OW77153  11.549  11.476   0.982 -0.1981  0.5129  0.3007
21725SOL    HW177154  11.569  11.411   1.048  0.1163  1.8640  1.6001
21725SOL    HW277155  11.477  11.528   1.020 -0.2564  1.0942 -0.5678
21726SOL     OW77156   4.426   4.348   7.647 -0.4457 -0.0908  0.1881
21726SOL    HW177157   4.448   4.301   7.728 -2.9392 -0.7028  0.5849
21726SOL    HW277158   4.477   4.303   7.579 -0.6720 -1.6128  0.9724
21727SOL     OW77159   7.807   7.470  12.179  0.1084 -0.0592 -0.5079
21727SOL    HW177160   7.723   7.506  12.210  0.0890 -0.5571  0.0202
21727SOL    HW277161   7.834   7.531  12.110 -2.0555 -1.3761 -2.6978
21728SOL     OW77162  13.861   4.057   2.081  0.2275  0.5685  0.5081
21728SOL    HW177163  13.771   4.034   2.061  0.5920  0.1402 -0.7541
21728SOL    HW277164  13.889   4.112   2.007  1.9490 -1.8827 -0.8319
21729SOL     OW77165  12.434   7.288   4.513 -0.3858 -0.6052  0.5609
21729SOL    HW177166  12.450   7.339   4.433 -1.4942  0.0320  0.7261
21729SOL    HW277167  12.349   7.248   4.499 -0.4576 -0.7261  1.3007
21730SOL     OW77168   5.575   2.842   6.240  0.0614 -0.1890  0.7142
21730SOL    HW177169   5.599   2.789   6.316 -2.5054 -1.6612  0.6018
21730SOL    HW277170   5.526   2.916   6.277  0.1977 -0.0228  0.5704
21731SOL     OW77171   0.465  12.446   0.777  0.6606 -0.3014 -0.0661
21731SOL    HW177172   0.398  12.512   0.760  0.5921 -0.3700 -0.0605
21731SOL    HW277173   0.459  12.386   0.703 -0.9430 -1.6965  1.1324
21732SOL     OW77174  11.999   1.733   0.048 -0.1796 -0.2558 -0.0470
21732SOL    HW177175  12.050   1.739  -0.033 -1.8403  0.1929 -1.1157
21732SOL    HW277176  11.910   1.716   0.019 -0.7505 -0.5565  1.7348
21733SOL     OW77177   7.396   7.983   0.779 -0.5952  0.1971 -0.1702
21733SOL    HW177178   7.312   7.940   0.793 -0.5751 -0.0623 -0.7969
21733SOL    HW277179   7.460   7.922   0.815 -0.6652  0.3437  0.2049
21734SOL     OW77180   2.148   0.675  12.588 -0.4947 -0.0141  0.6969
21734SOL    HW177181   2.223   0.618  12.575 -0.1807  0.4207  0.5679
21734SOL    HW277182   2.137   0.720  12.504 -1.9924 -1.3543  0.1337
21735SOL     OW77183  13.233   3.044   5.824 -0.2663 -0.2159 -0.6518
21735SOL    HW177184  13.326   3.059   5.806 -0.7534  1.5917 -1.9861
21735SOL    HW277185  13.204   2.988   5.752  0.2205 -2.8694  1.0566
21736SOL     OW77186   6.238  11.261  13.817  0.5912  0.6669 -0.2625
21736SOL    HW177187   6.275  11.330  13.763 -1.0525  2.2708  0.5712
21736SOL    HW277188   6.252  11.290  13.907 -0.2504 -0.0060  0.1002
21737SOL     OW77189   9.938  11.521   2.952  0.2552 -0.1117  0.4485
21737SOL    HW177190   9.991  11.509   2.873  0.0053  0.1234  0.2429
21737SOL    HW277191   9.880  11.445   2.953  1.5572 -1.1511  1.4562
21738SOL     OW77192   9.383  13.594  10.530 -0.6429  0.0477  0.0858
21738SOL    HW177193   9.427  13.636  10.604  1.7652  2.6800 -2.5818
21738SOL    HW277194   9.385  13.500  10.550  1.0537  0.5650  2.7213
21739SOL     OW77195   9.919   4.441  10.315  0.6954 -0.5385 -0.0425
21739SOL    HW177196   9.879   4.499  10.380 -0.7899 -1.1655 -0.3756
21739SOL    HW277197   9.858   4.369  10.305  2.2871 -1.9645  0.0069
21740SOL     OW77198  12.768   8.203   3.284 -0.3029  0.3442 -0.0905
21740SOL    HW177199  12.692   8.223   3.339  1.2687  0.9452  1.9907
21740SOL    HW277200  12.831   8.273   3.303  1.1871 -0.6964 -0.9389
21741SOL     OW77201   1.317   1.608   1.308  0.4019 -0.4262  0.6197
21741SOL    HW177202   1.306   1.673   1.377 -0.8616 -0.5823  0.5930
21741SOL    HW277203   1.265   1.533   1.336 -0.3635 -0.3917 -0.6050
21742SOL     OW77204   6.711   5.466  10.961 -0.2985  0.1383 -0.4356
21742SOL    HW177205   6.795   5.438  10.999 -0.1027  3.0779  1.5866
21742SOL    HW277206   6.726   5.461  10.866  2.8030  1.9825 -0.2013
21743SOL     OW77207   0.774   6.539   5.556  0.0716 -0.8593 -0.2769
21743SOL    HW177208   0.868   6.559   5.548  0.3160 -2.5016 -2.7900
21743SOL    HW277209   0.770   6.444   5.562 -1.4639 -0.9855 -2.2590
21744SOL     OW77210  11.493  11.327  10.500 -0.1261 -0.3050 -0.5143
21744SOL    HW177211  11.444  11.259  10.545 -0.7368 -0.1328 -0.9046
21744SOL    HW277212  11.491  11.302  10.408  0.5472 -0.3104 -0.5321
21745SOL     OW77213   3.565  11.570   8.451  0.3397  0.3260 -0.1909
21745SOL    HW177214   3.642  11.608   8.494 -0.1950  0.1521  0.9587
21745SOL    HW277215   3.586  11.573   8.357  1.4123  0.9974  0.0503
21746SOL     OW77216  11.431   2.567   3.546  0.5879 -0.7142  0.2392
21746SOL    HW177217  11.370   2.517   3.491 -1.3682  1.5424  0.2203
21746SOL    HW277218  11.381   2.587   3.626  0.1215  3.5404 -0.8763
21747SOL     OW77219   8.321  13.488   3.910 -0.8758 -0.2937  0.3314
21747SOL    HW177220   8.253  13.456   3.851 -0.2776 -2.1199  0.5773
21747SOL    HW277221   8.394  13.428   3.897 -0.0241  0.4466  1.5130
21748SOL     OW77222   1.220  10.273  10.346 -0.1427  0.7467 -0.4485
21748SOL    HW177223   1.198  10.314  10.262  1.0604 -2.6320 -2.5921
21748SOL    HW277224   1.314  10.287  10.356 -0.3084  1.2817  0.4667
21749SOL     OW77225   8.498  10.281  13.326 -0.4257 -0.1712 -0.7752
21749SOL    HW177226   8.559  10.301  13.254 -0.4416  1.5681 -0.3654
21749SOL    HW277227   8.532  10.201  13.366 -0.4409 -1.2018 -2.7260
21750SOL     OW77228   9.913   1.927   3.546  1.1256  0.0584 -0.0386
21750SOL    HW177229   9.863   1.938   3.627  2.4866 -1.7531  1.1004
21750SOL    HW277230   9.945   2.015   3.526  0.5810  0.5782  1.2593
21751SOL     OW77231   4.960   3.294   7.846  0.7657 -0.4451  0.2906
21751SOL    HW177232   4.937   3.250   7.764 -1.2031  0.4365  0.3104
21751SOL    HW277233   4.935   3.233   7.915  2.0620 -1.0281  0.2619
21752SOL     OW77234  13.163  13.373  13.246 -0.1489 -0.4114 -0.4490
21752SOL    HW177235  13.236  13.427  13.215 -0.4562 -0.1979 -0.8143
21752SOL    HW277236  13.085  13.420  13.219 -0.4330 -0.3312  0.4847
21753SOL     OW77237  13.852   4.558   5.377  0.0666 -0.6371  0.2622
21753SOL    HW177238  13.775   4.555   5.434  0.6178 -3.1934  1.0051
21753SOL    HW277239  13.860   4.470   5.342  2.5906 -0.4456  0.1323
21754SOL     OW77240   6.200  13.415   1.072  0.0383  0.5529  0.0505
21754SOL    HW177241   6.119  13.447   1.113 -0.0279  0.6331 -0.1403
21754SOL    HW277242   6.270  13.462   1.117  0.1618 -1.2904  1.9461
21755SOL     OW77243   3.314   4.986   1.137  0.1152  0.1606 -0.4280
21755SOL    HW177244   3.241   4.936   1.102 -0.0130 -0.8393  1.1453
21755SOL    HW277245   3.361   4.924   1.194  1.7156  1.0038 -0.7641
21756SOL     OW77246   1.375   7.100   0.654  0.1273 -0.2870  0.1135
21756SOL    HW177247   1.460   7.133   0.625  1.0104 -0.0434  2.7716
21756SOL    HW277248   1.341   7.167   0.713 -0.4176 -1.8099  1.6082
21757SOL     OW77249  12.761   4.808  11.725 -0.2334 -0.2974 -0.1364
21757SOL    HW177250  12.686   4.756  11.754 -1.1962  1.3571  0.4563
21757SOL    HW277251  12.723   4.886  11.686  1.1556  1.4043  1.6855
21758SOL     OW77252   6.195   6.873   3.641 -0.2565 -0.1226  0.1631
21758SOL    HW177253   6.279   6.904   3.607 -0.4815 -1.4318 -1.7522
21758SOL    HW277254   6.144   6.851   3.563 -1.9144 -0.5543  1.3158
21759SOL     OW77255   6.668   1.879   4.660 -0.1908 -0.1975  0.5650
21759SOL    HW177256   6.580   1.916   4.664 -0.2522 -0.2805  0.0500
21759SOL    HW277257   6.694   1.887   4.568  0.8379  0.9782  0.9234
21760SOL     OW77258  13.155  12.673   9.416 -0.6413 -0.2840  0.4852
21760SOL    HW177259  13.062  12.682   9.437 -0.7581 -0.8887  0.2357
21760SOL    HW277260  13.181  12.590   9.456 -1.2830 -2.3851 -3.0586
21761SOL     OW77261   6.302  13.242  14.028 -0.7495  0.0445 -0.5202
21761SOL    HW177262   6.244  13.316  14.010 -0.8499 -0.4176 -2.2290
21761SOL    HW277263   6.267  13.171  13.974  1.9348  0.0075 -2.3745
21762SOL     OW77264  13.423   4.943   4.199 -0.2350  0.3966 -0.4809
21762SOL    HW177265  13.425   4.988   4.115  1.2930 -1.2565 -1.3985
21762SOL    HW277266  13.408   4.851   4.177 -1.5060  0.1479  1.2037
21763SOL     OW77267   0.562   6.025   3.110 -0.6064 -0.4195  0.1902
21763SOL    HW177268   0.517   5.988   3.186  0.7824 -1.8230  0.3516
21763SOL    HW277269   0.610   6.100   3.145  0.8875 -1.6798  0.9709
21764SOL     OW77270   6.889  13.122  12.938  0.4857 -0.4112 -1.1489
21764SOL    HW177271   6.903  13.152  13.028  2.3431 -0.8616 -1.2436
21764SOL    HW277272   6.964  13.157  12.890 -0.5175 -0.1305 -2.5450
21765SOL     OW77273   4.717  12.907   7.795 -0.3915  0.4594 -0.1586
21765SOL    HW177274   4.797  12.933   7.749  0.1313  0.4735  0.7209
21765SOL    HW277275   4.749  12.870   7.878 -1.3004  0.5226  0.2298
21766SOL     OW77276   0.213   8.135   7.522 -0.2629  0.9783  0.0750
21766SOL    HW177277   0.306   8.151   7.536 -0.0833 -0.7159  1.0305
21766SOL    HW277278   0.173   8.145   7.608 -1.3320  3.5228 -0.6096
21767SOL     OW77279   3.499  13.318  12.033 -0.0463  0.3254  0.7929
21767SOL    HW177280   3.472  13.391  11.977 -0.4272  0.5224  1.2285
21767SOL    HW277281   3.450  13.331  12.114 -0.6206 -0.7994  0.6405
21768SOL     OW77282   0.927  11.035  11.951 -0.3265 -0.3306  0.7490
21768SOL    HW177283   0.918  10.993  11.866  2.8227  0.7018 -0.2145
21768SOL    HW277284   0.898  11.125  11.938  0.8194  0.0225  0.5361
21769SOL     OW77285   9.590  10.717  12.264  0.4389 -0.2254  0.2294
21769SOL    HW177286   9.580  10.802  12.308  1.7892 -0.3951  0.9416
21769SOL    HW277287   9.679  10.720  12.227  0.8654 -1.6463  1.0345
21770SOL     OW77288   2.148  12.512   1.655 -0.4091  0.5737  0.3265
21770SOL    HW177289   2.168  12.491   1.564  1.8857  3.5873 -0.0125
21770SOL    HW277290   2.092  12.589   1.650 -0.4829  0.6200  1.4917
21771SOL     OW77291  10.819   8.829  13.171  0.1096 -0.2385 -0.0245
21771SOL    HW177292  10.860   8.751  13.136  0.3392  0.5937 -1.6991
21771SOL    HW277293  10.876   8.856  13.243  0.4440 -1.1628  0.0687
21772SOL     OW77294  13.307   7.496   9.384 -0.0605 -0.0300 -0.0068
21772SOL    HW177295  13.245   7.429   9.414 -0.2265  0.0991 -0.0571
21772SOL    HW277296  13.265   7.533   9.306  0.3117 -0.2852 -0.3308
21773SOL     OW77297   9.407   4.189   9.932 -0.2594 -0.5511  0.5577
21773SOL    HW177298   9.346   4.218   9.999  0.8039 -0.4153  1.5043
21773SOL    HW277299   9.423   4.097   9.952 -0.5511 -0.7274 -0.0049
21774SOL     OW77300   2.292   7.246  10.989  0.0643  0.3277  0.4297
21774SOL    HW177301   2.285   7.155  11.019  0.6333  0.3831  0.7479
21774SOL    HW277302   2.232   7.295  11.046  0.0406  0.2061  0.5099
21775SOL     OW77303   1.354  11.081   9.817 -0.0898  0.3239  0.1020
21775SOL    HW177304   1.263  11.053   9.811  0.1538 -0.2762 -1.0047
21775SOL    HW277305   1.354  11.148   9.886 -1.1954 -0.3203  0.7529
21776SOL     OW77306  12.948  12.901  11.864 -0.2205  0.5753 -0.1261
21776SOL    HW177307  12.905  12.816  11.871  0.4578  0.1754 -0.6586
21776SOL    HW277308  12.944  12.937  11.953 -2.6168  1.0698 -0.3804
21777SOL     OW77309   0.713  11.574   4.807  0.2614  0.0511  0.8092
21777SOL    HW177310   0.784  11.637   4.792  0.5372 -0.3288  0.4855
21777SOL    HW277311   0.633  11.626   4.802  0.5242  0.5302  1.4186
21778SOL     OW77312  12.390  13.321   3.352 -0.0338 -0.1477  0.6348
21778SOL    HW177313  12.333  13.276   3.289  0.8596  0.7874 -0.9061
21778SOL    HW277314  12.351  13.408   3.360  0.8092  0.2931  0.0482
21779SOL     OW77315   6.986   2.140   6.881 -0.1144 -0.2884  0.1986
21779SOL    HW177316   6.992   2.227   6.919  0.7845  0.0138 -0.5841
21779SOL    HW277317   7.051   2.140   6.811 -0.9026 -1.2171 -0.5584
21780SOL     OW77318  13.352   8.207   8.327  0.0861 -0.0243  0.0556
21780SOL    HW177319  13.389   8.148   8.262  1.9522  2.4224 -1.2750
21780SOL    HW277320  13.311   8.277   8.276  0.0177  1.0532  1.5086
21781SOL     OW77321  10.657   5.932   6.993 -0.1102  0.6882 -0.2149
21781SOL    HW177322  10.746   5.962   6.972  0.3824  1.0724  2.1512
21781SOL    HW277323  10.670   5.848   7.037 -1.2509 -1.2623 -3.2581
21782SOL     OW77324  12.731  14.001  13.675  0.1393  0.3922  0.0351
21782SOL    HW177325  12.814  14.048  13.683  0.8694 -0.8403  0.0881
21782SOL    HW277326  12.713  13.970  13.764  0.0748 -0.0484 -0.1265
21783SOL     OW77327   4.770  11.344   3.577  0.2863 -0.7406  0.0921
21783SOL    HW177328   4.736  11.433   3.570  1.3669 -0.3315 -0.1354
21783SOL    HW277329   4.729  11.309   3.656 -0.5245 -0.2168 -0.0877
21784SOL     OW77330  13.133  10.908   3.232  0.1849 -0.9496 -0.1725
21784SOL    HW177331  13.044  10.925   3.264  0.2838  2.4615 -1.3598
21784SOL    HW277332  13.190  10.943   3.300  0.7000 -2.8504  0.4389
21785SOL     OW77333   2.117   3.834   5.097  0.3312 -0.3212  0.3091
21785SOL    HW177334   2.057   3.805   5.165  0.2931  1.5510  1.1142
21785SOL    HW277335   2.202   3.842   5.141  0.2585  1.1224  0.2341
21786SOL     OW77336   3.226  10.578   1.298 -0.2378 -0.5472  0.3025
21786SOL    HW177337   3.221  10.661   1.250  1.9913 -0.5002  0.0588
21786SOL    HW277338   3.138  10.567   1.335 -0.4617  2.1928  0.8120
21787SOL     OW77339  13.586  10.268   0.396 -0.0498  0.4297 -0.3025
21787SOL    HW177340  13.546  10.354   0.407  0.9080  0.6435  2.5752
21787SOL    HW277341  13.512  10.208   0.389 -0.8147  1.2661  0.3102
21788SOL     OW77342  11.186   5.845   0.693 -0.4798 -0.1202  0.5264
21788SOL    HW177343  11.116   5.780   0.692 -1.6548  1.0898 -1.1793
21788SOL    HW277344  11.190   5.877   0.603  1.0791  1.1321  0.9877
21789SOL     OW77345  12.774   8.286  13.321 -0.7957  0.1570 -0.0198
21789SOL    HW177346  12.750   8.374  13.294  0.7637 -0.0339 -2.3695
21789SOL    HW277347  12.703   8.230  13.291 -0.8959  0.4073 -0.2441
21790SOL     OW77348   3.807   5.009  10.128 -1.1067  0.1229  0.4617
21790SOL    HW177349   3.851   5.066  10.190  0.7228 -0.4569 -0.2422
21790SOL    HW277350   3.869   4.938  10.113 -2.3734 -0.8263 -0.4488
21791SOL     OW77351  10.537   9.256   8.360 -0.7712  0.3007 -0.2188
21791SOL    HW177352  10.625   9.243   8.326 -0.9289 -2.5802  0.2650
21791SOL    HW277353  10.480   9.212   8.298 -1.9543  2.1644 -0.5491
21792SOL     OW77354  10.211   4.520   8.117 -0.1256  0.7939 -0.1170
21792SOL    HW177355  10.229   4.435   8.157 -3.0695 -0.0224 -0.3355
21792SOL    HW277356  10.284   4.533   8.056  1.1242 -0.8770  0.9225
21793SOL     OW77357  11.340  10.924   9.405 -0.3744  0.2764 -0.8928
21793SOL    HW177358  11.431  10.895   9.410 -0.1066  0.9312 -1.7033
21793SOL    HW277359  11.305  10.882   9.326 -1.2470 -1.1787  0.2095
21794SOL     OW77360   8.894   5.818   3.795 -0.0587 -0.1014  0.4335
21794SOL    HW177361   8.808   5.785   3.771 -0.0265 -0.4301  0.7649
21794SOL    HW277362   8.884   5.851   3.884  0.3830 -1.0100  0.8292
21795SOL     OW77363  11.752  12.189   5.249  0.1471 -0.0262  0.2404
21795SOL    HW177364  11.746  12.161   5.341  2.1069  1.1835  0.8202
21795SOL    HW277365  11.821  12.256   5.250  1.9001 -1.5893 -2.4726
21796SOL     OW77366  10.899   0.915   6.710  0.7335  0.0872 -0.4172
21796SOL    HW177367  10.930   0.829   6.681 -0.4269 -0.7678  0.7714
21796SOL    HW277368  10.868   0.900   6.799 -0.5620  1.4755 -0.5995
21797SOL     OW77369  11.225   8.525  10.750  0.1903  0.1907  0.0657
21797SOL    HW177370  11.185   8.585  10.813 -1.0287  0.8184 -1.2518
21797SOL    HW277371  11.284   8.580  10.699 -1.0171  0.3526 -1.2242
21798SOL     OW77372   4.377  12.983   7.414  0.0944 -0.2140 -0.3911
21798SOL    HW177373   4.398  12.936   7.333 -0.6638 -0.3782 -0.4973
21798SOL    HW277374   4.386  13.075   7.391 -0.4701 -0.2491 -0.7653
21799SOL     OW77375  11.099  13.712   2.243  0.0042  0.6425 -0.8358
21799SOL    HW177376  11.138  13.796   2.268 -2.0284  1.8392 -1.4018
21799SOL    HW277377  11.009  13.734   2.219 -0.2536 -1.5325 -2.1697
21800SOL     OW77378   0.257  10.814  11.100  0.0931  0.5816 -0.4713
21800SOL    HW177379   0.279  10.799  11.008  1.2910 -0.1600 -0.0823
21800SOL    HW277380   0.221  10.731  11.130  0.5842  0.5218 -0.0338
21801SOL     OW77381   1.852   4.994  13.770 -0.1185  0.0638  0.0747
21801SOL    HW177382   1.863   4.996  13.675  0.2976  0.1944  0.1258
21801SOL    HW277383   1.884   4.907  13.796  0.5668  0.3539  0.1961
21802SOL     OW77384   7.738  13.751  11.794 -0.3345  0.1692  0.6192
21802SOL    HW177385   7.715  13.683  11.857  0.4542 -0.2800  0.4387
21802SOL    HW277386   7.670  13.818  11.804 -1.1998 -0.6967  0.7192
21803SOL     OW77387  13.556  11.100  11.572 -0.3532 -0.1537  0.1967
21803SOL    HW177388  13.466  11.100  11.540  0.4601 -0.2295 -2.2898
21803SOL    HW277389  13.582  11.192  11.568  0.4949 -0.4235 -1.7888
21804SOL     OW77390  11.872   3.574   3.419 -0.3004  0.2654 -0.2157
21804SOL    HW177391  11.959   3.597   3.385  0.0911 -0.1126  0.5141
21804SOL    HW277392  11.828   3.531   3.345  0.3301 -0.0296 -0.4255
21805SOL     OW77393  12.520   6.234   0.985  0.7365  0.1610  0.1330
21805SOL    HW177394  12.534   6.251   1.078 -0.8503  2.4781  0.0202
21805SOL    HW277395  12.566   6.306   0.941 -1.0534  0.8305 -0.7073
21806SOL     OW77396   7.215   8.578   0.709  0.3215 -0.3402  0.3080
21806SOL    HW177397   7.188   8.653   0.657  0.5911 -1.0310 -0.8772
21806SOL    HW277398   7.136   8.525   0.719  0.8107 -1.5340 -1.7334
21807SOL     OW77399   1.936  13.439   1.284  0.6492  0.3870  0.2144
21807SOL    HW177400   1.940  13.464   1.191 -1.2944 -1.9164 -0.5717
21807SOL    HW277401   2.026  13.447   1.314  1.7087 -0.6086 -2.3931
21808SOL     OW77402  13.087  13.802   5.808  0.4025  0.5189 -0.1051
21808SOL    HW177403  13.162  13.861   5.809  1.8313 -1.2041  0.3699
21808SOL    HW277404  13.110  13.733   5.870 -1.6075 -0.0608  0.0789
21809SOL     OW77405   6.564   6.805  10.853  0.1860  0.6267  0.3996
21809SOL    HW177406   6.575   6.851  10.937  1.1537  0.5925  0.3018
21809SOL    HW277407   6.616   6.726  10.863  1.1936  1.1399 -0.6253
21810SOL     OW77408   0.560   5.113   8.354  0.2007  0.2639  0.8780
21810SOL    HW177409   0.560   5.069   8.269 -0.4656 -1.4804  1.7266
21810SOL    HW277410   0.652   5.120   8.378  0.3790  0.5277  0.1329
21811SOL     OW77411   1.104   1.824   1.518  0.6871  0.4709 -0.1993
21811SOL    HW177412   1.142   1.903   1.556  0.1658  1.0136 -0.8019
21811SOL    HW277413   1.100   1.841   1.424  0.9611 -0.4405 -0.3919
21812SOL     OW77414   2.496   4.992   8.646  0.1494  0.0149 -0.2674
21812SOL    HW177415   2.458   5.002   8.733 -0.4737 -0.0035 -0.5294
21812SOL    HW277416   2.424   5.013   8.586 -0.3827 -3.0042 -0.8342
21813SOL     OW77417  10.454  10.051   9.329 -0.4647 -0.0446  0.4015
21813SOL    HW177418  10.443  10.146   9.336 -1.1899  0.1272 -1.9727
21813SOL    HW277419  10.549  10.038   9.322 -0.4205  0.6313 -0.3625
21814SOL     OW77420   6.836   0.441   0.319 -0.3371  0.3389  0.2717
21814SOL    HW177421   6.884   0.398   0.390  0.1293  0.9822  0.3592
21814SOL    HW277422   6.896   0.438   0.244 -1.2572 -1.3386 -0.4541
21815SOL     OW77423  10.534   4.922  13.891  0.1346 -0.6217  0.0752
21815SOL    HW177424  10.541   4.857  13.961  0.2156  0.1831  0.8191
21815SOL    HW277425  10.608   4.902  13.833 -0.0263 -1.3875  0.1236
21816SOL     OW77426  10.332  14.010   9.324 -0.2482  0.0570 -0.3111
21816SOL    HW177427  10.379  13.931   9.296 -0.4042 -0.7670  1.5732
21816SOL    HW277428  10.256  13.977   9.371  0.9702  1.1913  2.7030
21817SOL     OW77429   1.751  13.201   9.873  0.0898 -0.0585  0.0116
21817SOL    HW177430   1.703  13.119   9.891  1.7505 -0.9051  0.7670
21817SOL    HW277431   1.839  13.185   9.905  0.8321  1.5673 -1.0829
21818SOL     OW77432   8.579  13.650   5.809  0.5083 -0.4042  0.4543
21818SOL    HW177433   8.537  13.735   5.796 -2.3508 -1.7643  0.0890
21818SOL    HW277434   8.611  13.653   5.900 -2.3316  0.0410  1.5544
21819SOL     OW77435   6.255   6.519   5.234  0.1071 -0.0462  0.5541
21819SOL    HW177436   6.177   6.512   5.290  0.0961 -0.9895  0.4214
21819SOL    HW277437   6.239   6.599   5.182 -1.2964 -0.8127 -0.2670
21820SOL     OW77438   9.569  13.912  12.370  0.4737 -0.4772 -0.3542
21820SOL    HW177439   9.507  13.838  12.365 -1.4045  1.0674 -1.7688
21820SOL    HW277440   9.557  13.947  12.458 -2.0912  0.8171 -1.0976
21821SOL     OW77441  13.118   7.204  11.117  0.5116 -0.2048  0.3524
21821SOL    HW177442  13.150   7.126  11.070 -0.3226  0.1621 -0.8785
21821SOL    HW277443  13.155   7.278  11.068 -2.5063  0.2619 -1.4566
21822SOL     OW77444   3.812   0.235  11.688 -0.0213  0.2341  0.4208
21822SOL    HW177445   3.830   0.164  11.626 -0.5540 -0.5061  1.0926
21822SOL    HW277446   3.823   0.194  11.774 -1.2486  0.7294  0.8241
21823SOL     OW77447  13.954  12.779  12.710 -0.4433 -0.8252 -0.3277
21823SOL    HW177448  13.970  12.862  12.754 -0.0968 -1.3765  0.5953
21823SOL    HW277449  14.034  12.729  12.721 -0.5218 -1.1677 -1.1769
21824SOL     OW77450   3.155   4.263   0.376  0.4795  0.5353 -0.0216
21824SOL    HW177451   3.095   4.266   0.302 -0.3125  0.2442  0.5984
21824SOL    HW277452   3.242   4.266   0.336  0.0714  0.1859 -0.9724
21825SOL     OW77453   2.052   1.604   2.394  0.1954  0.4433 -0.0084
21825SOL    HW177454   2.003   1.617   2.313 -2.0049  0.7616  1.2761
21825SOL    HW277455   2.060   1.509   2.402  2.0435  0.4309 -1.4450
21826SOL     OW77456   5.279   4.357  11.103 -0.2198  0.2542 -0.2275
21826SOL    HW177457   5.199   4.352  11.050 -0.5105 -1.4676  0.2959
21826SOL    HW277458   5.339   4.410  11.051 -1.8763  2.1039 -0.3620
21827SOL     OW77459   3.865   1.793   1.095  0.8616 -0.0111 -0.0600
21827SOL    HW177460   3.882   1.700   1.078 -0.0392 -0.4065  1.0651
21827SOL    HW277461   3.862   1.832   1.008  2.1552 -0.8518 -0.5151
21828SOL     OW77462   8.460   5.879  13.118 -0.1177 -0.2933  0.0100
21828SOL    HW177463   8.394   5.912  13.179  0.2979 -1.3545  1.0991
21828SOL    HW277464   8.536   5.935  13.132 -0.3255  0.0477 -0.2175
21829SOL     OW77465   8.998   4.760  10.491  0.5204  0.5630 -0.2365
21829SOL    HW177466   8.947   4.713  10.424  1.5921 -1.3579  0.2066
21829SOL    HW277467   9.019   4.844  10.452 -1.6373  0.7941 -1.0276
21830SOL     OW77468  13.307   7.881   8.204  0.0249  0.2612  0.1305
21830SOL    HW177469  13.301   7.803   8.149 -1.9506 -1.7738  2.9478
21830SOL    HW277470  13.395   7.916   8.187  1.4202 -3.1916 -0.5449
21831SOL     OW77471   7.753   7.983  11.635 -0.1901  0.5959 -0.0181
21831SOL    HW177472   7.690   7.916  11.661  0.0263 -0.1153 -1.2930
21831SOL    HW277473   7.831   7.935  11.610  0.9469  1.4710  1.6156
21832SOL     OW77474   7.171  10.361   3.485  0.2974 -0.2058 -0.0944
21832SOL    HW177475   7.219  10.438   3.514 -0.7266  1.0257 -1.5028
21832SOL    HW277476   7.093  10.396   3.442  0.1721 -1.9767 -1.4464
21833SOL     OW77477  13.113   3.281   2.335 -0.4401 -0.1933  0.1423
21833SOL    HW177478  13.090   3.189   2.319 -1.1921 -0.0602  0.4108
21833SOL    HW277479  13.094   3.325   2.252  1.4249 -0.5202 -0.5282
21834SOL     OW77480  12.613   9.457   4.627  0.0467 -0.1027 -0.3839
21834SOL    HW177481  12.574   9.430   4.710 -0.6304  1.6833 -0.0895
21834SOL    HW277482  12.544   9.443   4.562  0.2304 -0.5426 -0.4854
21835SOL     OW77483   3.307  13.170  13.764 -0.6490 -0.7217 -0.2658
21835SOL    HW177484   3.300  13.203  13.854 -1.2286 -1.0709 -0.1730
21835SOL    HW277485   3.272  13.241  13.710 -1.7403 -1.0946 -0.0809
21836SOL     OW77486   7.308  11.795  10.229  0.0277  0.2373  0.4040
21836SOL    HW177487   7.224  11.749  10.237 -0.8013  1.4747 -0.6486
21836SOL    HW277488   7.361  11.738  10.173  0.0622 -0.7607  1.4239
21837SOL     OW77489  11.014  11.569   2.189 -0.3829  0.4419  0.5381
21837SOL    HW177490  11.075  11.495   2.194  0.9546  1.5430  1.4513
21837SOL    HW277491  11.069  11.644   2.168 -1.4193  1.4926  1.4285
21838SOL     OW77492   4.286   4.307   6.377 -0.4495 -0.2059  0.1448
21838SOL    HW177493   4.256   4.253   6.304 -0.0976  0.8296 -0.7775
21838SOL    HW277494   4.282   4.397   6.344  0.8198  0.1854  1.0053
21839SOL     OW77495   3.163   1.026   5.375  0.8443 -0.1417  0.2735
21839SOL    HW177496   3.101   1.077   5.426  1.3305 -0.4170  1.1658
21839SOL    HW277497   3.249   1.056   5.404  1.1421  0.2728 -0.9818
21840SOL     OW77498  11.950  12.633   1.636 -0.1956  0.8725  0.0672
21840SOL    HW177499  11.978  12.545   1.662 -0.1740  1.5823  2.6331
21840SOL    HW277500  11.921  12.622   1.545 -0.0253 -1.7293  0.2445
21841SOL     OW77501   7.154   3.965   1.291 -0.3089  0.0530 -0.2079
21841SOL    HW177502   7.236   3.969   1.339  0.6673 -0.3876 -1.7546
21841SOL    HW277503   7.125   3.875   1.300 -0.3747  0.0881 -0.0628
21842SOL     OW77504   7.423   8.744   8.548 -0.4267 -0.4647 -0.3398
21842SOL    HW177505   7.339   8.704   8.571  0.0636 -0.5785  1.4114
21842SOL    HW277506   7.479   8.671   8.524 -0.1086 -0.6735  0.9591
21843SOL     OW77507   0.809   5.445   2.542 -0.5117 -0.3307 -0.2648
21843SOL    HW177508   0.782   5.369   2.594  0.4013 -0.5952 -0.1591
21843SOL    HW277509   0.757   5.517   2.577  0.6592 -0.3256  1.6098
21844SOL     OW77510   6.886  13.398   5.887 -0.4741  0.0458  0.6055
21844SOL    HW177511   6.934  13.332   5.937  0.5989 -0.0738 -0.5331
21844SOL    HW277512   6.794  13.382   5.909 -0.0850 -0.4048  2.0201
21845SOL     OW77513  11.188   7.190  10.198 -0.5481  0.2953  0.3217
21845SOL    HW177514  11.174   7.233  10.282  0.4117  2.3723 -0.5006
21845SOL    HW277515  11.230   7.257  10.144  1.1111 -1.7307 -1.0597
21846SOL     OW77516   4.430  10.812  13.491  0.1726  0.5238  0.6294
21846SOL    HW177517   4.457  10.890  13.539  1.4380  0.6904 -0.2750
21846SOL    HW277518   4.438  10.837  13.399  0.6109 -0.6622  0.3210
21847SOL     OW77519   2.500   1.108   8.176 -0.2233  0.3007  0.1416
21847SOL    HW177520   2.561   1.155   8.233  0.6082 -0.0670 -0.4227
21847SOL    HW277521   2.484   1.025   8.221  0.0393  0.2212  0.0934
21848SOL     OW77522  11.997   0.955   7.630 -0.3748 -0.1486 -0.1520
21848SOL    HW177523  11.905   0.975   7.648 -0.7537 -2.1879  0.3913
21848SOL    HW277524  11.999   0.861   7.615  1.7408 -0.2700  0.5408
21849SOL     OW77525   7.974  13.676   3.119 -0.0218  0.0461 -0.9377
21849SOL    HW177526   7.983  13.589   3.159 -1.0975  0.0229 -0.7258
21849SOL    HW277527   7.945  13.657   3.030  0.1623  0.1819 -1.0268
21850SOL     OW77528   3.603   0.306   0.476 -0.5223 -0.2153 -0.1347
21850SOL    HW177529   3.650   0.316   0.558  0.8240  0.3203 -0.9398
21850SOL    HW277530   3.671   0.286   0.412 -1.1755  1.8464 -1.5830
21851SOL     OW77531   3.510   9.886  12.594 -0.2508 -0.2588  0.1420
21851SOL    HW177532   3.542   9.949  12.529  2.2740 -1.3321  0.2180
21851SOL    HW277533   3.479   9.812  12.542  1.4062 -0.9541  0.0792
21852SOL     OW77534  11.270   3.691   1.876 -0.8133  0.3038  0.3743
21852SOL    HW177535  11.247   3.599   1.886  0.5947 -0.1473 -0.2001
21852SOL    HW277536  11.281   3.703   1.782 -1.7174  1.2669  0.3710
21853SOL     OW77537   9.790   0.039   8.959 -0.1333 -0.1419  0.2264
21853SOL    HW177538   9.767   0.118   9.008 -1.7543 -0.5941  0.2333
21853SOL    HW277539   9.807  -0.027   9.027 -0.1862 -0.1739  0.2088
21854SOL     OW77540  13.423   6.982   5.420 -0.2966 -0.3114  0.4147
21854SOL    HW177541  13.386   6.952   5.502  2.2813 -1.0303  1.4120
21854SOL    HW277542  13.439   6.902   5.370  1.1304 -0.1801  0.6136
21855SOL     OW77543   6.017   8.276   1.882  0.0753  0.3205  0.3568
21855SOL    HW177544   6.081   8.254   1.949  1.2882  0.2705 -0.7870
21855SOL    HW277545   5.951   8.328   1.928  0.6778 -0.0174  1.6526
21856SOL     OW77546  12.130  12.544   9.094 -0.3553 -0.2556  0.2947
21856SOL    HW177547  12.084  12.483   9.037  0.8454 -0.5502 -0.3894
21856SOL    HW277548  12.064  12.610   9.116 -0.9158 -0.2449 -1.2747
21857SOL     OW77549  13.568   8.713   5.677  0.0759  0.3885  0.3016
21857SOL    HW177550  13.491   8.742   5.726  0.0834  1.1809 -0.1512
21857SOL    HW277551  13.642   8.750   5.725  0.2423 -0.9598  1.1505
21858SOL     OW77552   0.376   9.012  12.557 -0.1954  0.2685 -0.1488
21858SOL    HW177553   0.449   8.952  12.539  1.2950  2.0143 -0.2439
21858SOL    HW277554   0.350   9.045  12.472  1.2250  2.1697  0.0726
21859SOL     OW77555   6.689   2.331   5.955  0.5725 -0.0541 -0.3500
21859SOL    HW177556   6.754   2.300   6.017 -1.0880 -2.0421  0.5151
21859SOL    HW277557   6.661   2.252   5.908 -1.0142  0.7588 -0.8652
21860SOL     OW77558   8.483   0.877  13.216  0.1386 -0.2242  0.4236
21860SOL    HW177559   8.410   0.828  13.253 -1.1943  1.3158  0.0005
21860SOL    HW277560   8.484   0.852  13.123 -3.3226  3.3854 -0.8886
21861SOL     OW77561   6.858  13.656   5.494 -0.3555  0.1207 -0.2807
21861SOL    HW177562   6.869  13.572   5.538 -2.8391 -0.0534  0.2047
21861SOL    HW277563   6.778  13.692   5.533 -1.1145  1.2467 -2.7104
21862SOL     OW77564   0.591   8.132   1.248 -0.0527  0.0318 -0.4842
21862SOL    HW177565   0.577   8.075   1.173 -0.0763 -0.5708 -0.0277
21862SOL    HW277566   0.683   8.118   1.271  0.0976  0.6115 -0.7217
21863SOL     OW77567   7.803   6.188   9.785 -0.0047 -0.5068  0.2772
21863SOL    HW177568   7.752   6.261   9.749  1.0661  0.4410  0.6016
21863SOL    HW277569   7.817   6.211   9.877 -0.2611 -1.4882  0.5708
21864SOL     OW77570   2.322  13.652   6.268 -0.2960  0.2305 -0.3213
21864SOL    HW177571   2.230  13.626   6.269 -0.2296 -0.1004 -1.2860
21864SOL    HW277572   2.353  13.635   6.357 -1.3702  1.1408  0.2343
21865SOL     OW77573  11.102   6.727   6.488  0.1514  0.4609 -0.2213
21865SOL    HW177574  11.172   6.773   6.534  0.8351  0.4749 -1.2587
21865SOL    HW277575  11.107   6.758   6.398 -0.8350  0.0420 -0.4362
21866SOL     OW77576   8.168   8.615  12.771 -0.0645 -0.2979 -0.1917
21866SOL    HW177577   8.147   8.640  12.861  0.5259 -0.9474  0.1414
21866SOL    HW277578   8.083   8.599  12.730 -0.6572  3.6800 -0.9293
21867SOL     OW77579  11.384  11.178   5.328  0.7046 -0.4991  0.1570
21867SOL    HW177580  11.448  11.156   5.261  0.0121 -2.0519 -0.0347
21867SOL    HW277581  11.434  11.182   5.409  0.8582 -3.6129  0.3400
21868SOL     OW77582  13.513   9.970  11.540 -0.4645  0.3356  0.1419
21868SOL    HW177583  13.528   9.887  11.584  0.6811  0.7437  0.5573
21868SOL    HW277584  13.448  10.015  11.595  0.1280  0.3810  0.8206
21869SOL     OW77585   8.779  12.691   7.953  0.0695 -0.2936 -0.4821
21869SOL    HW177586   8.684  12.682   7.946  0.0676 -0.1102 -0.7274
21869SOL    HW277587   8.812  12.602   7.962 -0.3467 -0.2558  2.8444
21870SOL     OW77588  13.387   9.813   4.786 -0.0102  0.4817 -0.3605
21870SOL    HW177589  13.366   9.795   4.694 -2.2426  0.0879  0.1635
21870SOL    HW277590  13.481   9.798   4.792  0.2249  0.6842 -2.6117
21871SOL     OW77591   7.478   1.543   2.485  0.3758 -0.6565 -0.4203
21871SOL    HW177592   7.388   1.520   2.465  0.8329 -2.5931 -0.4057
21871SOL    HW277593   7.516   1.463   2.522  1.4821  0.7510  1.6923
21872SOL     OW77594  10.366   4.758   5.277  0.1504 -0.2512  0.0958
21872SOL    HW177595  10.462   4.760   5.285  0.2734 -2.8805  0.2441
21872SOL    HW277596  10.335   4.795   5.360  1.0963 -0.6659  0.6614
21873SOL     OW77597   6.146   1.018  13.729 -0.7928 -0.0051  0.6901
21873SOL    HW177598   6.181   1.073  13.659  0.5588 -0.0763  1.2712
21873SOL    HW277599   6.067   1.064  13.759 -0.8361  0.5289 -0.2067
21874SOL     OW77600  11.362  11.877   8.055 -0.2912  0.6795  0.4952
21874SOL    HW177601  11.427  11.832   8.110  0.1855 -0.2215 -0.7716
21874SOL    HW277602  11.394  11.865   7.966 -2.1618  0.2776 -0.1616
21875SOL     OW77603  12.706   7.432  10.018 -0.5872 -0.6909 -0.4905
21875SOL    HW177604  12.652   7.449   9.942 -0.9778  1.0273  0.1264
21875SOL    HW277605  12.783   7.487  10.006 -0.6951 -0.3244  0.3803
21876SOL     OW77606   5.700   4.482   1.736 -0.0836  0.3720 -0.2287
21876SOL    HW177607   5.692   4.389   1.758  1.3677  0.0908 -0.7886
21876SOL    HW277608   5.616   4.520   1.761 -0.6728 -1.0765  0.0698
21877SOL     OW77609   7.880  12.865   8.070 -0.7489  0.0417  0.3802
21877SOL    HW177610   7.926  12.877   8.153 -1.2493  0.8874  0.5551
21877SOL    HW277611   7.910  12.938   8.016 -2.5292  1.1694  0.8181
21878SOL     OW77612  10.976   9.742   1.802 -0.4768 -0.2480 -1.0415
21878SOL    HW177613  10.905   9.678   1.795  1.2172 -2.1961 -1.2496
21878SOL    HW277614  10.999   9.762   1.711  0.6107 -1.2537 -1.0022
21879SOL     OW77615  10.118   7.945   1.470  0.1033  0.2594  0.3388
21879SOL    HW177616  10.147   7.954   1.379 -0.2470  1.2942  0.3206
21879SOL    HW277617  10.133   7.853   1.490  0.8603  0.1749 -0.5331
21880SOL     OW77618   0.158  11.313   3.894 -0.3103 -0.5893 -0.6632
21880SOL    HW177619   0.241  11.266   3.883 -0.5655 -1.6300  1.3204
21880SOL    HW277620   0.092  11.253   3.859 -0.3685 -0.4424 -0.8056
21881SOL     OW77621   4.868   5.768   8.967  0.1481 -0.6909 -0.0217
21881SOL    HW177622   4.776   5.753   8.990  0.5310 -0.3073  1.9031
21881SOL    HW277623   4.905   5.814   9.042  1.8918 -0.6804 -0.8284
21882SOL     OW77624   6.011   9.087   8.726 -0.2063 -0.5620 -0.4467
21882SOL    HW177625   6.100   9.118   8.711 -0.0862 -0.5526  0.2484
21882SOL    HW277626   6.021   8.996   8.754 -0.3558 -0.3563  0.3086
21883SOL     OW77627   9.560   5.076   4.278 -0.4761 -0.0663  0.2467
21883SOL    HW177628   9.635   5.070   4.337  0.4707 -0.0555 -0.9345
21883SOL    HW277629   9.559   4.993   4.230 -2.7574 -1.1797  1.9779
21884SOL     OW77630   2.912   5.928   8.940 -0.2388  0.3876  0.2643
21884SOL    HW177631   3.005   5.947   8.946 -0.2988  0.5860  0.6129
21884SOL    HW277632   2.901   5.843   8.985 -0.1460  0.1003 -0.2550
21885SOL     OW77633   5.521  13.962  12.766  0.6488 -0.3111  0.3007
21885SOL    HW177634   5.430  13.934  12.754  0.5867  0.0206 -0.0171
21885SOL    HW277635   5.572  13.883  12.751  0.3821 -0.6439  1.0904
21886SOL     OW77636   9.533  10.830  12.662 -0.4990  0.0169 -0.1115
21886SOL    HW177637   9.585  10.894  12.710 -0.7600  1.2448 -1.4180
21886SOL    HW277638   9.445  10.867  12.660 -1.0787 -1.2444  0.6355
21887SOL     OW77639   0.900   6.340   5.806 -0.0367 -0.4494  0.7240
21887SOL    HW177640   0.915   6.418   5.859 -1.0051 -0.2683  0.7502
21887SOL    HW277641   0.985   6.319   5.769  0.1678  0.8161  0.4494
21888SOL     OW77642   2.852   7.246   4.527 -0.9394 -0.1278 -0.3687
21888SOL    HW177643   2.887   7.224   4.440 -0.4074  1.0260 -0.4641
21888SOL    HW277644   2.883   7.335   4.543 -1.8685  0.0357  0.5893
21889SOL     OW77645   7.947  12.385  12.455 -0.4449  0.8394 -0.0574
21889SOL    HW177646   7.899  12.316  12.501  0.6041  0.5766  0.6873
21889SOL    HW277647   7.894  12.405  12.379 -0.9923 -0.4825 -0.0450
21890SOL     OW77648  13.673   0.828  12.419 -0.8680  1.1332 -0.7607
21890SOL    HW177649  13.760   0.797  12.442 -1.2724 -0.6883 -1.4929
21890SOL    HW277650  13.679   0.923  12.422  1.3326  1.0625 -1.4745
21891SOL     OW77651   1.856   2.554   6.110  0.0558 -0.2244 -0.4434
21891SOL    HW177652   1.949   2.575   6.119  0.5256 -2.3491  0.0299
21891SOL    HW277653   1.854   2.459   6.096 -2.0139 -0.1278 -1.0643
21892SOL     OW77654   4.476   9.633   0.702 -0.0518 -0.2006  0.1464
21892SOL    HW177655   4.560   9.607   0.664  0.2827  0.6404  0.2824
21892SOL    HW277656   4.472   9.586   0.785  0.3887 -0.0917  0.2340
21893SOL     OW77657   1.102  11.174  11.536  0.0561 -0.3895 -0.0263
21893SOL    HW177658   1.188  11.133  11.526 -0.1898 -1.2207  1.1298
21893SOL    HW277659   1.040  11.101  11.530 -0.4850  0.0169  0.5561
21894SOL     OW77660   9.616  12.575   2.913  0.5470 -0.5727  0.3957
21894SOL    HW177661   9.606  12.670   2.914  2.8345 -0.2530 -0.9885
21894SOL    HW277662   9.620  12.551   3.005  0.2881  0.7206  0.7685
21895SOL     OW77663  13.066   9.433   9.329 -0.3073 -0.2531 -0.5020
21895SOL    HW177664  13.059   9.344   9.294 -0.8686 -1.0051  1.3943
21895SOL    HW277665  13.033   9.426   9.418  0.7302  1.6319  0.0815
21896SOL     OW77666   2.985   4.404   7.920  0.3260 -0.4287 -0.6309
21896SOL    HW177667   2.964   4.336   7.856 -0.8554 -1.4571  0.7842
21896SOL    HW277668   3.034   4.359   7.988 -0.0679  0.2359  0.1016
21897SOL     OW77669   9.639   8.662   9.867 -0.2943 -0.0880 -0.5668
21897SOL    HW177670   9.662   8.753   9.847 -0.3379  0.3747  1.2838
21897SOL    HW277671   9.609   8.664   9.958 -0.4409 -1.9399 -0.5275
21898SOL     OW77672   7.409   5.271  12.746  0.0468  0.1442 -0.0163
21898SOL    HW177673   7.488   5.225  12.718  0.8490  0.4402  1.6534
21898SOL    HW277674   7.346   5.201  12.765  0.3073 -0.1426 -0.1889
21899SOL     OW77675  13.620   9.634  11.345 -0.2297 -0.1239 -0.0222
21899SOL    HW177676  13.590   9.545  11.324  0.4952 -0.6041  0.8720
21899SOL    HW277677  13.567   9.661  11.419  0.2488 -0.2303  0.3656
21900SOL     OW77678  13.537   9.801   2.351  0.4153  0.0764 -0.0927
21900SOL    HW177679  13.505   9.871   2.408 -2.0641 -0.7229 -0.3527
21900SOL    HW277680  13.509   9.829   2.263  0.1684 -0.8198 -0.3044
21901SOL     OW77681   3.656   6.345   6.742  0.7352 -0.2536 -0.1121
21901SOL    HW177682   3.695   6.321   6.826 -0.2160 -0.9816  0.1422
21901SOL    HW277683   3.638   6.260   6.700 -0.7535  0.0517 -0.1263
21902SOL     OW77684   8.275   1.925   6.203 -0.2475 -0.5079 -0.2961
21902SOL    HW177685   8.291   2.004   6.255  1.7680  0.0377 -1.5783
21902SOL    HW277686   8.243   1.860   6.265 -0.4908  0.8806  1.0833
21903SOL     OW77687   6.924   7.218  13.110  0.1589  0.4832 -0.0275
21903SOL    HW177688   6.877   7.299  13.092 -0.4303  0.0462 -0.4784
21903SOL    HW277689   6.935   7.218  13.205 -2.5114 -0.3255  0.3674
21904SOL     OW77690   0.605  11.143   9.310 -0.0621 -0.0973 -0.0337
21904SOL    HW177691   0.652  11.225   9.299 -0.7684  0.1714 -1.2385
21904SOL    HW277692   0.519  11.168   9.343 -0.9229 -0.1388 -2.0844
21905SOL     OW77693  11.986   8.689   3.531 -0.2411  0.2535 -0.1388
21905SOL    HW177694  12.026   8.630   3.594 -0.2309  0.0565 -0.3285
21905SOL    HW277695  11.903   8.714   3.571 -0.7315 -0.7110 -0.5051
21906SOL     OW77696  11.364   9.020  10.570 -0.1278 -0.1898 -0.3675
21906SOL    HW177697  11.332   9.106  10.598 -0.7853 -0.3479 -0.6248
21906SOL    HW277698  11.382   9.030  10.477 -0.8985 -0.5209 -0.5647
21907SOL     OW77699   8.770  13.573   1.941  0.6747  0.2354  0.0881
21907SOL    HW177700   8.711  13.561   1.867  1.9902  2.6963 -1.5084
21907SOL    HW277701   8.757  13.664   1.968  0.7911 -0.3814  2.4529
21908SOL     OW77702   9.792   7.050   7.332 -0.3244  0.0397  0.1222
21908SOL    HW177703   9.868   7.030   7.278  0.4006  1.4174  0.5903
21908SOL    HW277704   9.728   7.088   7.272 -0.9815 -1.7754 -0.4114
21909SOL     OW77705   5.544  12.627   1.117 -0.0151 -0.7804  0.0130
21909SOL    HW177706   5.451  12.646   1.106  0.4664  1.3948 -0.8161
21909SOL    HW277707   5.587  12.677   1.047  1.8748 -0.7979  1.0941
21910SOL     OW77708   6.817   5.214   4.184 -0.3178 -0.2515 -0.9934
21910SOL    HW177709   6.751   5.165   4.234  1.3397 -0.4934  1.0682
21910SOL    HW277710   6.777   5.300   4.171 -1.0305 -0.3623  0.2819
21911SOL     OW77711   4.818   2.277   2.799  0.2103  0.1710  0.4177
21911SOL    HW177712   4.877   2.294   2.872  1.2467 -1.4305  0.0024
21911SOL    HW277713   4.874   2.243   2.730 -0.9852  0.1163 -0.5632
21912SOL     OW77714  12.285   1.325  11.560  0.3592  0.4177 -0.5369
21912SOL    HW177715  12.330   1.248  11.524  1.8602  0.1695  1.6580
21912SOL    HW277716  12.274   1.384  11.485 -0.2480 -1.6286 -2.1471
21913SOL     OW77717  10.137   7.656  10.728 -0.1186  0.1132 -0.0855
21913SOL    HW177718  10.227   7.644  10.759 -0.5980 -0.6280  1.0967
21913SOL    HW277719  10.124   7.584  10.665 -0.3383 -0.6874  0.8455
21914SOL     OW77720   9.730   1.326   5.142 -0.0679 -0.1307  0.1961
21914SOL    HW177721   9.717   1.372   5.059 -0.6005 -1.2990 -0.3946
21914SOL    HW277722   9.797   1.261   5.123 -1.0793 -1.2307  0.3273
21915SOL     OW77723  10.062   9.590   0.189 -0.0537 -0.0533 -0.4864
21915SOL    HW177724   9.976   9.554   0.167  0.6143 -1.7804 -0.4615
21915SOL    HW277725  10.064   9.591   0.285  0.0001 -0.1296 -0.4868
21916SOL     OW77726   7.407   1.672   8.393  0.1246 -0.3491  0.1562
21916SOL    HW177727   7.498   1.642   8.390 -0.0072 -0.7319 -0.2101
21916SOL    HW277728   7.357   1.592   8.411 -0.1962 -0.2748 -0.3882
21917SOL     OW77729  13.127   1.933   1.819 -0.0405 -0.2244 -0.1473
21917SOL    HW177730  13.127   1.837   1.814 -0.9608 -0.1774 -1.5461
21917SOL    HW277731  13.035   1.956   1.834  0.1209  0.4563 -0.1711
21918SOL     OW77732  11.098  12.499  10.376 -0.0401 -0.2389 -0.2654
21918SOL    HW177733  11.082  12.590  10.353  0.3884  0.0357  0.4934
21918SOL    HW277734  11.104  12.454  10.292  0.3681  0.5425 -0.6730
21919SOL     OW77735   7.549   8.095  12.037 -0.2197 -0.0487 -0.5461
21919SOL    HW177736   7.596   8.012  12.025 -0.1387 -0.0534 -0.1909
21919SOL    HW277737   7.472   8.087  11.980 -0.3765 -0.4945 -0.2810
21920SOL     OW77738   3.205   5.765   2.166 -0.3724  0.0455  0.1523
21920SOL    HW177739   3.140   5.705   2.129 -1.0541  1.4319 -1.0231
21920SOL    HW277740   3.154   5.840   2.197  0.5736  0.7327  0.1101
21921SOL     OW77741   1.700   9.849   5.764  0.1359  0.3259  0.2120
21921SOL    HW177742   1.609   9.868   5.784  0.0740  1.4655 -1.0178
21921SOL    HW277743   1.699   9.815   5.675  0.7839 -1.0440  0.6949
21922SOL     OW77744  11.408   1.203   6.687 -0.3285  0.4008  0.1485
21922SOL    HW177745  11.446   1.267   6.747 -1.4967  3.3413 -1.9787
21922SOL    HW277746  11.483   1.164   6.643  0.4883 -1.0835  2.6307
21923SOL     OW77747   5.347   1.634   0.620 -0.0505 -0.2468  0.0074
21923SOL    HW177748   5.418   1.699   0.618  0.8816 -1.2291  0.0025
21923SOL    HW277749   5.308   1.645   0.707 -1.5825  2.0040 -0.8771
21924SOL     OW77750   1.062   0.538   4.900  0.2923  0.2733  0.8412
21924SOL    HW177751   1.121   0.614   4.906  0.9201 -0.1921  0.6751
21924SOL    HW277752   1.041   0.532   4.807  2.3481 -1.2922  0.3909
21925SOL     OW77753   6.890   0.904   3.873 -0.7886  0.3136  0.0243
21925SOL    HW177754   6.949   0.844   3.826  1.6420 -0.5071  3.7160
21925SOL    HW277755   6.814   0.849   3.896  0.1146 -0.6002  0.9227
21926SOL     OW77756   3.936  12.970  11.801  0.2373 -0.3962 -0.5875
21926SOL    HW177757   3.855  12.996  11.758  0.5423  1.4749 -0.1373
21926SOL    HW277758   3.923  12.878  11.824 -0.1851 -1.2976 -3.9966
21927SOL     OW77759   2.156   6.501   7.069 -0.2317  0.4632 -0.3839
21927SOL    HW177760   2.214   6.533   7.000  0.6649 -1.1858 -0.4559
21927SOL    HW277761   2.070   6.495   7.027  0.2557 -0.3079 -1.3271
21928SOL     OW77762   5.273  11.541   5.130  0.9108  0.5404 -0.6373
21928SOL    HW177763   5.212  11.559   5.202  0.2070  1.4574 -1.4327
21928SOL    HW277764   5.238  11.463   5.088  1.4631 -0.1442  0.1505
21929SOL     OW77765   1.802  11.598  13.623  0.2295  0.8203 -0.3654
21929SOL    HW177766   1.784  11.681  13.666  0.9696  0.3737  0.8448
21929SOL    HW277767   1.742  11.536  13.664 -2.9440  1.3257 -3.7069
21930SOL     OW77768   0.248   0.715  10.528  0.2785 -0.3069  0.0764
21930SOL    HW177769   0.165   0.668  10.520 -1.0732  2.0412 -0.5477
21930SOL    HW277770   0.252   0.741  10.621 -0.7720  1.3623 -0.3101
21931SOL     OW77771   6.994   1.415   9.908  0.4775  0.1676  0.0287
21931SOL    HW177772   6.925   1.358   9.874 -0.7148  1.6907 -0.2151
21931SOL    HW277773   6.948   1.496   9.933  2.0210  0.8147  0.8914
21932SOL     OW77774   3.567   4.835   6.152  0.3522  0.4780  0.0159
21932SOL    HW177775   3.500   4.879   6.205 -1.3566 -2.1743  0.2569
21932SOL    HW277776   3.601   4.766   6.209 -1.4021 -2.3674 -2.1216
21933SOL     OW77777   9.505   9.088  10.889  0.1026 -0.0800 -0.7387
21933SOL    HW177778   9.518   8.998  10.918  1.9609 -0.0817 -1.3946
21933SOL    HW277779   9.449   9.081  10.812  0.6875 -0.7528 -1.1117
21934SOL     OW77780   5.140  13.493   8.744 -0.7642 -0.0414  0.6659
21934SOL    HW177781   5.172  13.533   8.824 -0.1839 -0.6216  0.7364
21934SOL    HW277782   5.087  13.561   8.702 -3.1058 -0.4646  2.6971
21935SOL     OW77783   8.774  13.297   1.025 -0.1006 -0.1814 -0.2574
21935SOL    HW177784   8.799  13.359   1.094  1.1352 -1.3402  0.3612
21935SOL    HW277785   8.705  13.343   0.977 -1.1630  0.5832  1.8575
21936SOL     OW77786   2.925   8.897   9.367 -0.0033  0.2764  0.2221
21936SOL    HW177787   3.010   8.866   9.335 -0.7549 -0.5114 -1.0784
21936SOL    HW277788   2.937   8.905   9.462  1.5934  0.4244  0.0328
21937SOL     OW77789   2.143   0.854  11.380  0.7274  0.5491  0.7421
21937SOL    HW177790   2.076   0.873  11.315  1.6119 -0.1615 -0.4005
21937SOL    HW277791   2.108   0.781  11.431  1.0580 -0.5256 -0.5312
21938SOL     OW77792   2.719   0.839   5.857  0.1969 -0.4129  0.2811
21938SOL    HW177793   2.703   0.772   5.923  2.1559 -0.6210  0.6201
21938SOL    HW277794   2.674   0.917   5.889 -0.8478 -1.1502  0.6443
21939SOL     OW77795  12.084   8.914   1.165  1.0247 -0.2297  0.1594
21939SOL    HW177796  12.104   8.938   1.075 -0.5627  0.5580 -0.0014
21939SOL    HW277797  12.056   8.823   1.160  1.6508 -0.4222 -0.0127
21940SOL     OW77798   8.258   3.060   6.125  0.3721  0.0880 -0.1553
21940SOL    HW177799   8.170   3.038   6.156  0.3955 -0.8238 -0.6930
21940SOL    HW277800   8.313   3.055   6.203 -0.0425  0.5808  0.1669
21941SOL     OW77801   3.457   4.290  11.075 -0.0804 -0.4492 -0.3282
21941SOL    HW177802   3.382   4.234  11.096 -0.9531  0.4830 -0.8812
21941SOL    HW277803   3.443   4.316  10.984  1.0188 -0.4048 -0.4990
21942SOL     OW77804   1.161   3.382   0.725  0.4449 -0.1337  0.2824
21942SOL    HW177805   1.087   3.402   0.667  0.0569 -2.8925 -0.3505
21942SOL    HW277806   1.123   3.381   0.813 -0.0694 -0.5283  0.0636
21943SOL     OW77807   6.182  13.051   8.784 -0.3650 -0.3506 -0.6922
21943SOL    HW177808   6.119  13.076   8.717 -1.3043  1.0815  0.6503
21943SOL    HW277809   6.171  12.957   8.794 -0.5285 -0.5138 -2.2033
21944SOL     OW77810   6.529   3.973   0.726  0.6686 -0.1156  0.8468
21944SOL    HW177811   6.614   4.017   0.734  1.8224 -1.6383 -1.8390
21944SOL    HW277812   6.544   3.885   0.761  0.6391 -0.8124 -0.7985
21945SOL     OW77813  11.524   5.320  13.595 -0.2316 -0.0514  0.3216
21945SOL    HW177814  11.458   5.303  13.662  0.5534  0.3883  1.2341
21945SOL    HW277815  11.573   5.238  13.588  0.5480  0.3024  1.3005
21946SOL     OW77816  10.235   4.274  13.073  0.1551 -0.6927  0.2865
21946SOL    HW177817  10.192   4.353  13.107  0.9006  0.0615 -0.4734
21946SOL    HW277818  10.275   4.233  13.150  0.6632  0.2535  0.5421
21947SOL     OW77819   2.458  10.146   3.838 -0.2253  0.0693 -0.0399
21947SOL    HW177820   2.427  10.217   3.782 -0.2213 -0.1144 -0.2807
21947SOL    HW277821   2.436  10.066   3.789 -0.5687 -0.1057  0.3982
21948SOL     OW77822  12.136  12.655   1.006 -0.3958 -0.4560 -0.3433
21948SOL    HW177823  12.166  12.566   1.020  1.4139  0.0775 -0.5443
21948SOL    HW277824  12.138  12.695   1.093  1.9104  0.2341 -0.6224
21949SOL     OW77825   1.443   4.737   0.503 -0.2261  0.3504 -0.4769
21949SOL    HW177826   1.504   4.810   0.510 -1.7679  1.6880 -0.6572
21949SOL    HW277827   1.359   4.772   0.530 -1.2067 -1.0976 -1.4737
21950SOL     OW77828   1.710  11.003   3.366  0.2309  0.2233  0.0884
21950SOL    HW177829   1.770  11.015   3.439  1.4944 -0.0128 -0.8730
21950SOL    HW277830   1.699  11.091   3.330 -1.6829  0.6129  1.5014
21951SOL     OW77831   6.453  12.224  13.448 -0.7696 -0.0386  0.6850
21951SOL    HW177832   6.536  12.241  13.405 -1.5208  0.5457 -0.5937
21951SOL    HW277833   6.387  12.246  13.383 -1.9321 -0.7341  1.5797
21952SOL     OW77834  13.076   2.333  13.702 -0.6205  0.1313  0.0694
21952SOL    HW177835  13.116   2.343  13.788 -0.8768 -0.5795  0.2792
21952SOL    HW277836  13.131   2.384  13.643  0.9990 -1.3339  0.2264
21953SOL     OW77837   3.213  12.518   8.775 -0.4347  0.2143  0.7160
21953SOL    HW177838   3.233  12.595   8.829  1.4257 -1.2531  2.2936
21953SOL    HW277839   3.132  12.541   8.729 -0.4347  2.7423  1.8071
21954SOL     OW77840   9.722  10.694  13.662  0.2938 -0.0303 -0.0693
21954SOL    HW177841   9.770  10.685  13.579 -0.6111  0.8968 -0.7265
21954SOL    HW277842   9.640  10.647  13.646 -0.0123  0.4148  0.1818
21955SOL     OW77843   4.739  14.046   6.377 -0.3132 -0.0661 -0.2449
21955SOL    HW177844   4.706  13.987   6.445  0.1832 -1.4901 -1.1956
21955SOL    HW277845   4.666  14.056   6.316  0.0045 -0.7606 -0.7544
21956SOL     OW77846  13.197   2.367   5.083  0.9650 -0.4407  1.1717
21956SOL    HW177847  13.134   2.361   5.011 -0.4441  4.3673  1.6390
21956SOL    HW277848  13.280   2.338   5.045 -0.5242 -2.2490 -0.9724
21957SOL     OW77849   3.573   3.004   5.150  0.0394  0.0852  0.1455
21957SOL    HW177850   3.526   2.996   5.233  0.3409 -0.4994  0.2640
21957SOL    HW277851   3.514   3.056   5.095 -0.7160 -0.5658  0.3160
21958SOL     OW77852  11.454  11.891  12.845  0.2108 -0.5495  0.0560
21958SOL    HW177853  11.391  11.889  12.917 -0.5571 -0.2926 -0.6036
21958SOL    HW277854  11.448  11.805  12.804  1.5044 -1.1330  0.9971
21959SOL     OW77855   3.881   7.404   8.531  0.2481  0.5992 -0.0714
21959SOL    HW177856   3.890   7.496   8.556 -1.2937  0.4776  1.1036
21959SOL    HW277857   3.802   7.401   8.478 -0.4764 -0.2071  0.9965
21960SOL     OW77858   0.841   2.828   9.497  0.5588  0.2005 -0.2088
21960SOL    HW177859   0.810   2.804   9.584 -1.7629  0.8620 -0.7940
21960SOL    HW277860   0.834   2.747   9.446  1.1622  0.0153 -0.0151
21961SOL     OW77861   9.039   9.989   3.453 -0.2310  0.0092 -0.0492
21961SOL    HW177862   8.954   9.974   3.495  0.2125 -0.4607  0.6965
21961SOL    HW277863   9.073   9.901   3.438  0.4925  0.2067  0.4137
21962SOL     OW77864   7.125  10.647   6.744 -0.2819 -0.0060 -0.3698
21962SOL    HW177865   7.102  10.558   6.769 -1.1447  0.4705  0.6353
21962SOL    HW277866   7.043  10.687   6.718 -0.3318  1.1443  1.3625
21963SOL     OW77867   9.784   9.190   9.630 -0.2840 -0.2007 -0.0013
21963SOL    HW177868   9.867   9.193   9.677 -0.3359 -1.0430  0.1614
21963SOL    HW277869   9.731   9.260   9.668  0.5985  0.8269 -0.6052
21964SOL     OW77870   8.942  12.297   4.471 -0.6040 -0.4199  0.0406
21964SOL    HW177871   8.862  12.336   4.437 -0.1037  0.3336 -0.2975
21964SOL    HW277872   8.962  12.347   4.550 -0.6496 -0.8406  0.3262
21965SOL     OW77873   1.426   9.888   5.811 -0.1902 -0.1201 -0.3123
21965SOL    HW177874   1.409   9.846   5.896  1.1323  0.1236  0.1060
21965SOL    HW277875   1.365   9.847   5.751 -0.6881 -0.7931  0.6301
21966SOL     OW77876  13.500   8.468  13.708  0.1472 -0.2950 -0.5878
21966SOL    HW177877  13.559   8.515  13.766  1.3412 -1.2353 -0.9895
21966SOL    HW277878  13.511   8.376  13.732 -1.8882 -0.4277 -0.0311
21967SOL     OW77879   2.118  10.077   1.032 -0.4142  1.0758 -0.2755
21967SOL    HW177880   2.029  10.102   1.056 -0.1066  0.1341  2.0783
21967SOL    HW277881   2.145  10.014   1.099  1.8372  0.9202 -1.2259
21968SOL     OW77882   3.426   4.535   5.376  0.8140 -0.5607  0.1589
21968SOL    HW177883   3.470   4.505   5.456  0.0243 -2.0564  0.0611
21968SOL    HW277884   3.438   4.463   5.314 -2.9548 -1.7445  0.5805
21969SOL     OW77885   6.446   2.034   0.916  0.3894  0.3031 -0.0311
21969SOL    HW177886   6.364   2.023   0.867  0.1696 -0.5998  0.5176
21969SOL    HW277887   6.418   2.053   1.006  0.7495 -0.8347  0.3458
21970SOL     OW77888   3.664  10.500   1.989 -0.2069 -0.1559  0.2307
21970SOL    HW177889   3.596  10.552   2.032  0.8471  1.4824  0.0215
21970SOL    HW277890   3.651  10.517   1.896  1.8117  2.0478  0.2598
21971SOL     OW77891   1.746   5.844  11.138  0.0978  0.6330  0.5391
21971SOL    HW177892   1.693   5.769  11.111  0.3758  0.6318 -0.0166
21971SOL    HW277893   1.682   5.914  11.152 -0.1785  0.2501  1.2396
21972SOL     OW77894   6.517  13.529  11.673 -0.4750 -0.4241 -0.6577
21972SOL    HW177895   6.566  13.499  11.750  0.1244 -0.3341 -1.0015
21972SOL    HW277896   6.429  13.548  11.707  0.1984  1.1424  0.3310
21973SOL     OW77897  10.528   9.533   1.793 -0.5204  0.3775  0.0633
21973SOL    HW177898  10.606   9.560   1.745  0.7308  0.3285  1.9854
21973SOL    HW277899  10.481   9.475   1.732  2.0577 -1.3979 -0.3935
21974SOL     OW77900   6.142   6.450   2.759 -0.1811  0.2774  0.1773
21974SOL    HW177901   6.181   6.412   2.681 -0.4773 -1.3102  0.7680
21974SOL    HW277902   6.072   6.390   2.783 -2.0617  2.2817 -0.0021
21975SOL     OW77903   7.237   5.546   6.799 -0.0683  0.5748 -0.0211
21975SOL    HW177904   7.308   5.483   6.817  0.4956  0.7614 -1.4361
21975SOL    HW277905   7.163   5.514   6.850 -0.3346 -2.2839 -1.9371
21976SOL     OW77906  10.175   2.042  12.553 -0.4377 -0.4413 -0.6204
21976SOL    HW177907  10.177   1.963  12.608 -0.1330 -0.1014 -0.1277
21976SOL    HW277908  10.183   2.010  12.464  2.4431 -0.8443 -0.2998
21977SOL     OW77909   9.127   5.677   2.926  0.6559  0.4284 -0.0375
21977SOL    HW177910   9.167   5.723   3.000  0.5448  0.1643  0.1880
21977SOL    HW277911   9.036   5.707   2.925  1.2402  2.4267 -1.6481
21978SOL     OW77912   2.655  13.715   8.484  0.4035  0.3509  0.2178
21978SOL    HW177913   2.594  13.641   8.482 -0.3239  0.9405  0.1241
21978SOL    HW277914   2.725  13.687   8.542  0.7608 -0.8850 -0.7605
21979SOL     OW77915   7.700   6.706  11.567  0.6453 -0.6123 -0.4312
21979SOL    HW177916   7.783   6.743  11.599 -0.5707  2.2663 -0.3145
21979SOL    HW277917   7.668   6.770  11.504 -1.4515 -1.7447 -0.6040
21980SOL     OW77918   5.730  11.691   2.028 -0.4449  0.0318  0.0714
21980SOL    HW177919   5.704  11.747   1.955 -1.0239 -0.6403 -0.2397
21980SOL    HW277920   5.742  11.752   2.102 -2.7743  0.3931  0.2087
21981SOL     OW77921   8.566   5.979   1.260 -0.0365 -0.1579  0.1080
21981SOL    HW177922   8.523   5.947   1.339  0.7931 -0.7528  0.3405
21981SOL    HW277923   8.512   6.052   1.230 -1.2060 -0.8924  0.3613
21982SOL     OW77924  11.015   8.467  12.884  0.5816 -0.3138  0.2538
21982SOL    HW177925  10.920   8.455  12.883  0.1999  2.2020  0.2617
21982SOL    HW277926  11.040   8.456  12.792  0.1985 -0.3699  0.1502
21983SOL     OW77927   8.815   6.654   0.109 -0.1387 -0.2509 -0.4076
21983SOL    HW177928   8.838   6.591   0.177  0.2329  0.6305  0.3030
21983SOL    HW277929   8.886   6.647   0.045  0.5477  0.2751  0.2666
21984SOL     OW77930   9.239  12.897   7.727  0.1072 -0.2841 -0.1849
21984SOL    HW177931   9.212  12.903   7.819 -0.6818 -2.1366 -0.2483
21984SOL    HW277932   9.320  12.947   7.723  1.7599 -2.4816  2.2206
21985SOL     OW77933   7.851   5.211  12.828 -0.1520 -0.2730  0.2622
21985SOL    HW177934   7.765   5.239  12.861 -0.3529  2.9320 -2.4456
21985SOL    HW277935   7.911   5.280  12.855  0.8932 -0.7669 -0.7197
21986SOL     OW77936  10.502   1.980   4.375  0.1484  0.5198  0.1389
21986SOL    HW177937  10.458   1.922   4.437 -0.6870  0.5867 -0.3757
21986SOL    HW277938  10.593   1.982   4.404 -0.0233 -0.2534  0.7513
21987SOL     OW77939   9.720   6.215  10.554  0.0680  0.5948 -0.3752
21987SOL    HW177940   9.644   6.261  10.520 -0.0297 -0.2443 -1.3228
21987SOL    HW277941   9.752   6.162  10.481  2.3731  1.9233 -0.4293
21988SOL     OW77942  12.866   3.262   7.051  0.4053  0.2334 -0.7396
21988SOL    HW177943  12.906   3.183   7.087 -1.4625 -0.0350  0.9538
21988SOL    HW277944  12.773   3.240   7.043 -0.0527  2.0327 -0.8533
21989SOL     OW77945   8.626   3.207   7.480  0.1550 -0.0216 -0.4922
21989SOL    HW177946   8.559   3.175   7.419 -0.7923  0.5441  0.2218
21989SOL    HW277947   8.647   3.294   7.448  0.6112 -0.2280 -0.7584
21990SOL     OW77948   8.907   6.602  12.366  0.7465  0.0367 -0.7502
21990SOL    HW177949   8.820   6.565  12.381  0.9476 -0.9639 -1.8344
21990SOL    HW277950   8.951   6.537  12.311  2.7870 -0.3094  1.1498
21991SOL     OW77951   2.964   2.071  12.267  0.4877  0.1900 -0.2346
21991SOL    HW177952   2.989   2.002  12.205 -0.3239 -0.8870  0.5867
21991SOL    HW277953   2.921   2.137  12.213 -0.9514 -1.1116 -0.7733
21992SOL     OW77954   5.736   4.900   8.586  0.1369  0.0247 -0.1828
21992SOL    HW177955   5.690   4.828   8.630  0.0357 -1.0335 -1.9362
21992SOL    HW277956   5.718   4.977   8.640 -1.4539 -0.8761  0.6315
21993SOL     OW77957  10.133   0.414   7.345  0.0930  0.5350 -0.2552
21993SOL    HW177958  10.159   0.391   7.255 -1.5339 -1.0864 -0.3610
21993SOL    HW277959  10.057   0.359   7.363  0.3883  0.8010  2.1461
21994SOL     OW77960   2.282  12.487   3.603 -0.0132  0.1495 -0.4599
21994SOL    HW177961   2.207  12.449   3.557  0.1313 -0.1998 -0.4103
21994SOL    HW277962   2.265  12.470   3.695 -0.1177  0.5182 -0.4093
21995SOL     OW77963  11.731   0.495   2.060  0.0548 -0.2205 -0.4794
21995SOL    HW177964  11.650   0.447   2.042  0.1716 -0.8859  0.6323
21995SOL    HW277965  11.798   0.448   2.010  0.3315 -1.8655  1.3182
21996SOL     OW77966   9.145   1.120   7.606 -0.3061 -0.4025 -0.1097
21996SOL    HW177967   9.131   1.177   7.682  0.0047  0.0231 -0.3682
21996SOL    HW277968   9.064   1.125   7.556 -0.4204 -0.4903  0.0695
21997SOL     OW77969  12.563  10.349   7.038 -1.0500  0.1899  0.1610
21997SOL    HW177970  12.543  10.294   6.963 -0.8426  0.5248 -0.1448
21997SOL    HW277971  12.644  10.394   7.013 -1.8633  1.5613 -0.1143
21998SOL     OW77972  10.218  13.880   7.851  0.3130  0.0345 -0.2281
21998SOL    HW177973  10.187  13.831   7.774 -0.5781  1.0714 -0.5436
21998SOL    HW277974  10.280  13.943   7.816  2.2156 -1.4606  0.2999
21999SOL     OW77975  11.771   1.507   0.574  0.5048 -0.0335  0.1360
21999SOL    HW177976  11.748   1.442   0.508  0.7162 -0.8898  0.8882
21999SOL    HW277977  11.861   1.533   0.552 -0.6058  2.4373 -2.0917
22000SOL     OW77978   9.831   1.879  12.977 -0.5752 -0.3550  0.7665
22000SOL    HW177979   9.835   1.973  12.992 -0.7952 -0.2058 -0.0819
22000SOL    HW277980   9.921   1.855  12.954 -0.4916 -0.3824  1.1116
22001SOL     OW77981   4.305   0.303   0.476  0.6012  0.3678  0.0234
22001SOL    HW177982   4.265   0.362   0.413 -0.1011 -0.6221 -0.4961
22001SOL    HW277983   4.266   0.326   0.560 -0.3292  0.0738 -0.3195
22002SOL     OW77984   0.196  10.219   8.421 -0.6443 -0.2342  0.2429
22002SOL    HW177985   0.283  10.186   8.402 -0.7432  0.2852 -1.3379
22002SOL    HW277986   0.164  10.166   8.494  0.3711 -1.4869 -0.1980
22003SOL     OW77987   5.153  11.244  13.121  0.4261 -0.2036 -0.4775
22003SOL    HW177988   5.101  11.284  13.051 -0.1556 -2.7300 -1.5761
22003SOL    HW277989   5.135  11.298  13.198 -0.9074  1.1557 -1.6823
22004SOL     OW77990   4.088   7.616   3.997 -0.1879 -0.5053 -0.0697
22004SOL    HW177991   4.117   7.703   4.024 -0.9177 -0.1346 -0.4381
22004SOL    HW277992   4.161   7.558   4.018 -0.8220 -0.3359  3.0872
22005SOL     OW77993   6.513  12.037  12.699 -0.0537 -0.9010  0.1380
22005SOL    HW177994   6.467  12.103  12.646  0.7115  0.3771  1.0073
22005SOL    HW277995   6.532  11.967  12.637  2.6127  1.3874 -1.9401
22006SOL     OW77996  10.420   8.994   9.663 -0.2536  0.2850 -0.2217
22006SOL    HW177997  10.351   9.060   9.672  0.4603  0.8887  0.9012
22006SOL    HW277998  10.381   8.928   9.606 -1.6193  0.8147  0.0551
22007SOL     OW77999   1.369  11.749  11.314 -0.3227  0.4597  0.5314
22007SOL    HW178000   1.285  11.789  11.337 -1.5489  0.0055 -2.6325
22007SOL    HW278001   1.435  11.814  11.339 -1.7950  1.8933  0.8476
22008SOL     OW78002   3.319   3.204  12.357  0.7604 -0.1755  0.1583
22008SOL    HW178003   3.272   3.259  12.420  1.9915  1.2546 -0.0974
22008SOL    HW278004   3.376   3.150  12.411  2.1021  1.3249  0.3492
22009SOL     OW78005   8.377   8.765  10.992  0.2945  0.1273  0.2089
22009SOL    HW178006   8.382   8.706  10.916 -1.7912 -1.0524  0.9075
22009SOL    HW278007   8.284   8.783  11.003  0.4025 -0.4341  2.9494
22010SOL     OW78008  12.590   0.885   9.456 -0.4830  0.0479 -0.0495
22010SOL    HW178009  12.558   0.794   9.456 -0.9836  0.2230  0.1259
22010SOL    HW278010  12.594   0.909   9.363  0.6736 -0.5033 -0.1645
22011SOL     OW78011   2.612   9.647   3.312 -0.4954  0.1418  0.4214
22011SOL    HW178012   2.623   9.628   3.219  0.3576  0.7683  0.3787
22011SOL    HW278013   2.642   9.738   3.321 -1.9802  0.6092  1.0488
22012SOL     OW78014   6.200   0.423   8.894  0.2529 -0.0258 -0.0436
22012SOL    HW178015   6.220   0.515   8.910 -1.1642  0.2469  0.2828
22012SOL    HW278016   6.140   0.424   8.819 -0.7112 -0.5704  0.6915
22013SOL     OW78017   9.595   5.474   3.697  0.7645 -0.4056 -0.4734
22013SOL    HW178018   9.670   5.428   3.735  0.9337  0.5286  0.3677
22013SOL    HW278019   9.518   5.428   3.733  0.8989 -1.4511 -1.4460
22014SOL     OW78020   3.399   0.459   7.267 -0.0235  0.1249  0.1660
22014SOL    HW178021   3.387   0.470   7.173  0.4473 -0.6341  0.0039
22014SOL    HW278022   3.461   0.386   7.274  1.0858  1.1137  1.0316
22015SOL     OW78023  11.228   4.155  11.682  0.0517 -0.0188 -0.2402
22015SOL    HW178024  11.287   4.089  11.646  0.7345 -0.9330  2.3790
22015SOL    HW278025  11.149   4.148  11.629  0.6470 -1.9351 -0.9276
22016SOL     OW78026   8.368   6.561   5.879  0.2259  0.8492  0.4584
22016SOL    HW178027   8.389   6.508   5.956 -1.3166  1.5246  1.4061
22016SOL    HW278028   8.410   6.645   5.896 -2.7188  2.1149  2.2341
22017SOL     OW78029  12.102   7.523  11.539 -0.3658 -0.5301 -0.7872
22017SOL    HW178030  12.136   7.481  11.617 -2.7131 -1.2662 -0.0604
22017SOL    HW278031  12.112   7.457  11.470  0.3056 -0.4546 -0.7700
22018SOL     OW78032   9.428   2.343   4.597 -0.0514  0.8534  0.5138
22018SOL    HW178033   9.359   2.410   4.596 -0.3005  0.5941 -0.5356
22018SOL    HW278034   9.408   2.290   4.675 -1.3215  0.5038 -0.0175
22019SOL     OW78035   8.424  12.910   9.476 -0.0454  0.8973  0.1768
22019SOL    HW178036   8.400  12.859   9.398 -0.8835  1.1234  0.2791
22019SOL    HW278037   8.341  12.943   9.509  0.4945  2.5375 -0.0211
22020SOL     OW78038   0.494   2.532  13.467  0.1883 -0.2830 -0.3820
22020SOL    HW178039   0.545   2.468  13.515  1.0637 -0.0440 -0.9668
22020SOL    HW278040   0.427   2.561  13.529  0.5736 -0.8223  0.2987
22021SOL     OW78041  10.830   4.203   3.789  0.4581 -0.5232 -0.0215
22021SOL    HW178042  10.852   4.145   3.862  0.1038 -0.2835  0.2781
22021SOL    HW278043  10.897   4.272   3.792 -0.4410  0.3574  1.0593
22022SOL     OW78044   4.544  13.288  12.451  0.1599 -0.7237 -0.0837
22022SOL    HW178045   4.511  13.321  12.534  0.4767 -0.6120  0.0020
22022SOL    HW278046   4.629  13.331  12.440  0.0787 -0.6639 -0.5118
22023SOL     OW78047  12.267  13.826  11.433 -0.6139 -0.3678  0.1371
22023SOL    HW178048  12.302  13.776  11.360 -0.8641 -0.4864  0.0987
22023SOL    HW278049  12.342  13.873  11.468 -0.9675  2.0866 -2.0715
22024SOL     OW78050   0.181   4.014   3.352 -0.0871  0.4311  0.3469
22024SOL    HW178051   0.183   3.978   3.440  1.7516  0.3463  0.3224
22024SOL    HW278052   0.190   4.109   3.364  1.1359  0.3506  0.2687
22025SOL     OW78053  12.124   4.845  12.090  0.0580  0.3611  0.2022
22025SOL    HW178054  12.063   4.918  12.098  1.8902  1.9015  0.7977
22025SOL    HW278055  12.114   4.815  11.999  0.4153  2.4438 -0.5723
22026SOL     OW78056   2.165   5.433   4.151 -0.1962  0.1156 -0.1925
22026SOL    HW178057   2.136   5.452   4.062 -2.3426 -1.4838  0.0909
22026SOL    HW278058   2.085   5.409   4.198  1.1137 -0.7357  1.7283
22027SOL     OW78059   4.434  11.227   7.725 -0.3501  0.3234 -0.6289
22027SOL    HW178060   4.378  11.257   7.654 -2.7800  0.8331  1.3758
22027SOL    HW278061   4.426  11.294   7.793  0.8467 -0.7613  0.6529
22028SOL     OW78062   2.713   6.646   3.156 -0.7992 -0.4923  0.0774
22028SOL    HW178063   2.684   6.577   3.097 -0.6308  0.5401 -1.2623
22028SOL    HW278064   2.802   6.667   3.127 -1.5894  1.6978 -0.9400
22029SOL     OW78065   3.993  11.819   2.095  0.6014  0.2105  0.0463
22029SOL    HW178066   3.918  11.766   2.124 -0.6270  1.1712 -1.2724
22029SOL    HW278067   4.007  11.881   2.165  0.5798 -0.3781  0.5832
22030SOL     OW78068   3.690   6.246   1.866 -0.1956 -0.1329  0.2572
22030SOL    HW178069   3.668   6.339   1.860  1.2296  0.2713  0.9697
22030SOL    HW278070   3.729   6.225   1.781 -2.2158 -0.6074 -0.6345
22031SOL     OW78071  12.212   9.903   0.364  0.1159  0.2294 -0.1694
22031SOL    HW178072  12.239   9.813   0.378  0.6395  0.4954  0.6281
22031SOL    HW278073  12.235   9.922   0.273  0.0440 -0.4213 -0.3225
22032SOL     OW78074   3.974   9.181   4.850 -0.3753 -0.2902 -0.3106
22032SOL    HW178075   4.038   9.236   4.805  0.0066  0.8001  1.4655
22032SOL    HW278076   4.019   9.152   4.929 -1.9136  0.1417  0.7653
22033SOL     OW78077   7.531   9.463  13.717  0.3335  0.0489 -0.2040
22033SOL    HW178078   7.510   9.448  13.809  0.3646  3.2515  0.4738
22033SOL    HW278079   7.625   9.446  13.710  0.7494  1.6944  0.9134
22034SOL     OW78080   8.196   5.671   8.368  0.0748 -0.2224  0.4454
22034SOL    HW178081   8.270   5.624   8.406 -0.4602 -0.6664  0.9707
22034SOL    HW278082   8.182   5.629   8.283  0.4091 -0.1564  0.3579
22035SOL     OW78083   7.610   2.210  12.322 -0.0419 -0.3828 -0.5624
22035SOL    HW178084   7.648   2.175  12.403 -1.3258 -0.3658  0.0700
22035SOL    HW278085   7.640   2.150  12.254 -0.6676 -1.6389  0.2328
22036SOL     OW78086  10.139   3.391   0.209  0.1633  0.7650  0.0696
22036SOL    HW178087  10.133   3.385   0.114 -1.0896  1.9198  0.0351
22036SOL    HW278088  10.220   3.439   0.226  0.6844  0.0553 -0.3784
22037SOL     OW78089   7.552   0.433  10.902 -0.0726  0.1736  0.3664
22037SOL    HW178090   7.581   0.345  10.878 -1.8461  0.1086 -1.8735
22037SOL    HW278091   7.597   0.491  10.840 -0.1424  0.6817  0.7876
22038SOL     OW78092   2.272   3.225   7.993  0.1119 -0.1732 -0.4018
22038SOL    HW178093   2.221   3.180   7.925  0.8358  0.0119 -1.0872
22038SOL    HW278094   2.329   3.284   7.944 -0.7749  1.4699  0.4677
22039SOL     OW78095   8.892   4.838   0.275  0.1605  0.2599 -0.4766
22039SOL    HW178096   8.980   4.818   0.244  0.9133  0.9983  1.0959
22039SOL    HW278097   8.851   4.885   0.201  1.6500  1.3623 -0.6548
22040SOL     OW78098   2.624  12.128   9.906 -0.3561  0.1623  0.2483
22040SOL    HW178099   2.628  12.118  10.001 -0.4634 -1.2647  0.1343
22040SOL    HW278100   2.531  12.130   9.887 -0.4076 -1.7636  0.0320
22041SOL     OW78101  10.092   6.444   0.910 -0.0857  0.2420 -0.2780
22041SOL    HW178102  10.177   6.404   0.925 -0.3375  0.7198  3.0861
22041SOL    HW278103  10.032   6.370   0.903  0.2090 -0.0573  0.3078
22042SOL     OW78104   3.359   0.186   1.112  0.2464 -0.4125 -0.2015
22042SOL    HW178105   3.319   0.156   1.030 -0.1725  2.3875 -1.1330
22042SOL    HW278106   3.295   0.247   1.149  1.6131  0.5325  0.7256
22043SOL     OW78107   5.975   9.410   8.674 -0.4562 -0.1015  0.9039
22043SOL    HW178108   5.936   9.360   8.746  1.2827 -1.2341  1.1247
22043SOL    HW278109   6.037   9.469   8.717 -1.0363  0.8319  0.4805
22044SOL     OW78110   9.921   6.817   9.358 -0.3378  0.0464 -0.1843
22044SOL    HW178111   9.928   6.899   9.407 -0.9706 -0.3970  0.6868
22044SOL    HW278112   9.841   6.826   9.307  0.5702  0.6970 -1.5348
22045SOL     OW78113   8.933   9.840  12.843 -0.1466  0.1092  0.3738
22045SOL    HW178114   8.842   9.868  12.839 -0.7111 -1.7026 -0.4336
22045SOL    HW278115   8.942   9.801  12.930 -0.9815 -2.1936 -0.4931
22046SOL     OW78116   4.086  10.625  12.579  0.0014  0.8568 -0.0413
22046SOL    HW178117   4.109  10.571  12.503  1.7220  1.9245 -0.3377
22046SOL    HW278118   4.170  10.642  12.622 -0.9948 -0.3171  2.5599
22047SOL     OW78119  10.863   4.228  12.088  0.5466  0.4982  0.1721
22047SOL    HW178120  10.862   4.140  12.127 -1.2039 -0.1441 -1.2011
22047SOL    HW278121  10.800   4.278  12.139  0.4198  0.5033  0.0135
22048SOL     OW78122   7.830  12.842  11.959 -0.4826 -0.5663  0.1770
22048SOL    HW178123   7.863  12.923  11.918  0.1327 -0.1903  1.3735
22048SOL    HW278124   7.739  12.862  11.980 -0.1127  0.1081  1.1775
22049SOL     OW78125  12.846   6.683   1.996 -0.4138  0.2785 -0.5527
22049SOL    HW178126  12.768   6.671   2.050 -0.3988  1.6786 -0.1692
22049SOL    HW278127  12.820   6.749   1.932 -0.2185 -0.8779 -1.8628
22050SOL     OW78128   7.879  11.564   3.465 -0.2455 -0.0573 -0.8369
22050SOL    HW178129   7.942  11.493   3.450  0.0315  0.5320 -2.6893
22050SOL    HW278130   7.808  11.547   3.403 -1.7168 -0.4054  0.8504
22051SOL     OW78131  10.435   3.753   7.151 -0.1290 -0.0478 -0.5029
22051SOL    HW178132  10.467   3.701   7.225  0.2573  2.2086  0.9957
22051SOL    HW278133  10.508   3.755   7.089  0.8315  0.8519  0.6206
22052SOL     OW78134   5.862  12.507   6.701 -0.2375 -0.2103  0.1009
22052SOL    HW178135   5.849  12.414   6.721  0.0156 -0.1228  0.7034
22052SOL    HW278136   5.805  12.524   6.626 -0.3974 -0.8173  0.0826
22053SOL     OW78137   1.196   8.537   1.741  0.7322 -0.1484  0.1610
22053SOL    HW178138   1.139   8.467   1.708  0.0111  0.5656 -0.1522
22053SOL    HW278139   1.227   8.504   1.825  1.2884 -1.3015 -0.4773
22054SOL     OW78140   3.951   4.257   5.742  1.0015  0.0692 -0.3071
22054SOL    HW178141   3.992   4.190   5.687 -1.5584 -1.2138 -0.8328
22054SOL    HW278142   3.959   4.338   5.692  2.1617 -0.2878 -0.7233
22055SOL     OW78143   3.726  10.283   0.035 -0.0429 -0.4823 -0.4287
22055SOL    HW178144   3.636  10.262   0.060  0.9227 -3.0901  1.2390
22055SOL    HW278145   3.719  10.318  -0.054 -2.7861  0.7341  0.1547
22056SOL     OW78146   0.876   4.321  12.150 -0.1212 -0.2820 -0.6929
22056SOL    HW178147   0.870   4.384  12.222 -0.7381  0.3972 -1.3235
22056SOL    HW278148   0.970   4.312  12.135 -0.0135  0.3417 -0.4610
22057SOL     OW78149  10.696   6.795   3.186  0.0340  0.0265 -0.0532
22057SOL    HW178150  10.702   6.867   3.124  0.1008  0.8427  0.8874
22057SOL    HW278151  10.777   6.798   3.235 -0.1263 -0.4604  0.2525
22058SOL     OW78152   7.336   9.662   3.455  0.0311  0.1853 -0.2767
22058SOL    HW178153   7.265   9.651   3.391  0.0735 -0.7559 -0.1734
22058SOL    HW278154   7.347   9.757   3.462  0.0194  0.3029 -1.6524
22059SOL     OW78155   2.661   6.915  12.391  0.6408  0.3272 -0.3573
22059SOL    HW178156   2.734   6.968  12.423 -0.6523  2.0382 -0.1423
22059SOL    HW278157   2.656   6.936  12.298 -1.3561  2.5454  0.1555
22060SOL     OW78158  11.084   5.288   9.890  0.0182  0.4253 -0.1359
22060SOL    HW178159  11.001   5.305   9.845 -0.8577 -0.7125  0.9952
22060SOL    HW278160  11.079   5.337   9.971  0.4296  0.2854 -0.0205
22061SOL     OW78161  11.136   0.766  10.440  0.6100  0.1999  0.4328
22061SOL    HW178162  11.107   0.829  10.374  0.7023  0.5951  0.7696
22061SOL    HW278163  11.109   0.681  10.405  0.8518  0.3857 -0.2178
22062SOL     OW78164   3.513  11.373   9.317 -0.3094 -0.2719  0.1253
22062SOL    HW178165   3.574  11.390   9.388  0.8674 -2.6252 -0.2169
22062SOL    HW278166   3.441  11.324   9.357 -0.2852 -0.4800 -0.0839
22063SOL     OW78167   6.885  10.298   6.726 -0.4138  0.2166  0.1788
22063SOL    HW178168   6.843  10.384   6.730  0.7632  0.7802  1.0667
22063SOL    HW278169   6.882  10.266   6.816  2.6323  1.1148  0.7129
22064SOL     OW78170   0.531   9.866   7.220  0.2953  0.4070  0.3623
22064SOL    HW178171   0.570   9.954   7.215  0.0339  0.5964  1.4436
22064SOL    HW278172   0.472   9.862   7.145  2.7198 -0.0899 -1.6710
22065SOL     OW78173  10.658   4.845  11.826  0.3659 -0.4690  0.4333
22065SOL    HW178174  10.634   4.817  11.915  2.9499 -1.0251  1.0410
22065SOL    HW278175  10.662   4.940  11.832 -2.4259 -0.2255  0.0088
22066SOL     OW78176   8.511  12.930  10.362 -0.2293 -0.1014  0.0907
22066SOL    HW178177   8.549  12.944  10.275 -0.5208  0.1215 -0.0024
22066SOL    HW278178   8.468  13.013  10.384  0.9396  0.2849  1.0101
22067SOL     OW78179   1.702   8.531   3.868  0.0706 -0.1124 -0.3423
22067SOL    HW178180   1.702   8.624   3.850 -1.6324 -0.2689 -1.3795
22067SOL    HW278181   1.620   8.516   3.915  0.5860 -1.0140  0.3109
22068SOL     OW78182   8.195   6.703   0.294 -0.7163  0.3023  0.0673
22068SOL    HW178183   8.245   6.776   0.331  0.1446 -0.8468  1.2473
22068SOL    HW278184   8.259   6.652   0.245 -1.0563 -0.3408  0.2820
22069SOL     OW78185  12.745   4.119   7.060 -0.7620 -0.1061 -0.0270
22069SOL    HW178186  12.762   4.051   7.125  1.4394 -0.4600 -0.8939
22069SOL    HW278187  12.744   4.072   6.977 -4.2283  0.2202 -0.3302
22070SOL     OW78188  13.511   4.226   7.447 -0.1990  0.1869 -0.1741
22070SOL    HW178189  13.422   4.207   7.418 -0.5240 -0.2281  1.0449
22070SOL    HW278190  13.540   4.146   7.490  0.3091  0.7387  0.5368
22071SOL     OW78191  10.062   7.044   8.878  0.0402  0.4085  0.2385
22071SOL    HW178192  10.062   6.976   8.811  3.2290 -0.8922  1.3532
22071SOL    HW278193  10.050   6.998   8.960  3.4049  0.8351  1.1360
22072SOL     OW78194   5.868   9.592   9.792  0.0112 -0.8408  0.1281
22072SOL    HW178195   5.818   9.616   9.714  0.9242 -1.2966 -0.5983
22072SOL    HW278196   5.839   9.503   9.812  1.3832 -1.5697 -1.0021
22073SOL     OW78197   1.129   9.536  13.602  0.0920  0.6504  0.2989
22073SOL    HW178198   1.158   9.448  13.623  0.9188  0.3386 -1.9098
22073SOL    HW278199   1.034   9.530  13.601  0.1402 -0.2247  0.1238
22074SOL     OW78200  10.061  11.168   2.169  0.1196 -0.1365  0.5340
22074SOL    HW178201  10.113  11.186   2.091  0.3318 -1.9351  0.2115
22074SOL    HW278202  10.029  11.253   2.198  1.2694  0.7202 -0.6524
22075SOL     OW78203   7.795  11.664   8.881  0.4662 -1.0686 -0.0974
22075SOL    HW178204   7.784  11.596   8.814 -1.3477 -1.3126  0.3776
22075SOL    HW278205   7.718  11.653   8.938  0.2003  1.3040  0.0750
22076SOL     OW78206   9.657  11.441  13.608  0.0928  0.0687 -0.1705
22076SOL    HW178207   9.733  11.404  13.653 -0.7416  0.8227  1.9860
22076SOL    HW278208   9.596  11.368  13.600  0.2069 -0.0522  0.0370
22077SOL     OW78209   2.214   1.000   5.820  0.5501  0.4118 -0.1247
22077SOL    HW178210   2.267   0.944   5.877  1.2645 -0.0150 -1.1879
22077SOL    HW278211   2.153   0.940   5.777  2.2912  0.1245 -2.4031
22078SOL     OW78212   7.725   2.040  11.591 -0.3591  0.0607 -0.3417
22078SOL    HW178213   7.722   2.136  11.588 -0.8796  0.1098  1.0877
22078SOL    HW278214   7.634   2.013  11.600 -0.3033 -0.6318 -1.6585
22079SOL     OW78215  12.934   1.194   8.545  0.5382 -0.2003  0.1591
22079SOL    HW178216  13.019   1.211   8.504 -0.0285 -0.6766 -1.2711
22079SOL    HW278217  12.936   1.245   8.626  2.2976 -0.4272  0.3132
22080SOL     OW78218   7.172   3.827   3.944 -1.0914 -0.8222  0.2525
22080SOL    HW178219   7.249   3.863   3.988  0.0652 -1.7632 -0.9120
22080SOL    HW278220   7.098   3.876   3.980  0.3493  2.8238 -1.3363
22081SOL     OW78221   8.745   7.609   6.047  0.2268  0.0295  0.2542
22081SOL    HW178222   8.740   7.586   6.140  1.0912 -2.4553 -0.2608
22081SOL    HW278223   8.689   7.545   6.003 -1.0170  1.8117 -0.9063
22082SOL     OW78224   0.021  10.439  11.176  0.8349 -0.2717  0.2548
22082SOL    HW178225   0.106  10.475  11.202  0.3176  0.6011  0.8050
22082SOL    HW278226  -0.039  10.514  11.180 -0.7792 -1.5513  3.5994
22083SOL     OW78227   1.790   3.824   1.212 -0.4075  0.3102 -0.0882
22083SOL    HW178228   1.821   3.912   1.189  1.0960  0.0114  0.6397
22083SOL    HW278229   1.734   3.798   1.139  0.2004  1.3613 -0.9534
22084SOL     OW78230   7.962   5.381   6.733  0.4893 -0.8392 -0.0411
22084SOL    HW178231   8.029   5.383   6.802  2.1203  0.7359 -1.5880
22084SOL    HW278232   7.967   5.291   6.699 -0.9737 -1.9448  2.3808
22085SOL     OW78233   2.951   7.207   2.660 -0.0562 -0.4121 -0.2486
22085SOL    HW178234   2.999   7.131   2.628  0.8409  0.4043 -0.9083
22085SOL    HW278235   2.908   7.242   2.582 -1.4648 -0.9280  0.2696
22086SOL     OW78236  12.874   9.458   0.432  0.4068 -0.1695  0.0035
22086SOL    HW178237  12.910   9.435   0.347 -1.1127 -0.8373 -0.4915
22086SOL    HW278238  12.934   9.418   0.495  2.3575  1.5237 -0.6588
22087SOL     OW78239   9.254   1.349   5.740 -0.1800  0.1365 -0.0495
22087SOL    HW178240   9.343   1.382   5.752 -1.4107  3.2300  1.8201
22087SOL    HW278241   9.213   1.413   5.681 -1.4680 -0.6246 -0.0219
22088SOL     OW78242   7.113   4.964   8.683  0.1276 -0.2814  0.0149
22088SOL    HW178243   7.065   5.010   8.614  0.4146  1.1138  0.7053
22088SOL    HW278244   7.045   4.920   8.734 -0.2201 -0.0508 -0.2417
22089SOL     OW78245   0.440  12.142   9.115  0.1361 -0.3801  0.1211
22089SOL    HW178246   0.479  12.214   9.065  1.7882 -1.2908  0.0305
22089SOL    HW278247   0.383  12.097   9.052  0.9268 -0.5408 -0.4943
22090SOL     OW78248   2.402  10.853   5.423  0.1386 -0.2975 -0.2809
22090SOL    HW178249   2.310  10.830   5.439 -0.1469 -0.1441 -1.5858
22090SOL    HW278250   2.425  10.912   5.495 -1.8024  2.3372 -1.6527
22091SOL     OW78251  12.993   5.634   1.821  0.3903 -0.1427  0.1132
22091SOL    HW178252  13.053   5.603   1.888  0.7430 -0.7889 -0.4795
22091SOL    HW278253  12.913   5.657   1.868  0.8808  0.1017  0.8320
22092SOL     OW78254  10.872  11.177  12.673 -0.1511 -0.2336 -0.2990
22092SOL    HW178255  10.799  11.199  12.615 -0.3607 -1.4821 -0.5348
22092SOL    HW278256  10.831  11.132  12.747  0.1166  1.3052  0.8427
22093SOL     OW78257  13.492   6.164  12.592 -0.0711 -0.0294 -0.1555
22093SOL    HW178258  13.488   6.180  12.497 -0.4390  0.8890  0.0085
22093SOL    HW278259  13.406   6.128  12.614 -0.8101  1.8698  0.1918
22094SOL     OW78260   7.963   3.796   5.985  0.1670 -0.3690  0.3500
22094SOL    HW178261   7.915   3.876   6.008  0.9080 -0.2067  1.4363
22094SOL    HW278262   7.964   3.745   6.067  2.2890 -0.1155  0.5441
22095SOL     OW78263   7.519  11.637  11.325  0.3172 -0.2255 -0.4217
22095SOL    HW178264   7.503  11.548  11.295 -0.1649 -0.6151  0.9011
22095SOL    HW278265   7.499  11.692  11.249  1.7112 -1.2880 -1.6101
22096SOL     OW78266  11.484  10.687   6.627 -0.3193 -0.4431  0.6460
22096SOL    HW178267  11.398  10.648   6.639 -0.3849 -0.7476 -0.6486
22096SOL    HW278268  11.510  10.662   6.538  1.0976 -0.3480  0.9943
22097SOL     OW78269   6.140  10.025   7.583 -0.5186  0.2243 -0.3347
22097SOL    HW178270   6.186  10.079   7.518  0.0106 -0.2572 -0.3700
22097SOL    HW278271   6.162  10.065   7.667 -1.9524  1.4134 -0.4801
22098SOL     OW78272   7.711   3.596  13.443  0.2090 -0.6219  0.0044
22098SOL    HW178273   7.739   3.685  13.464  0.4653 -0.9121  0.9610
22098SOL    HW278274   7.661   3.605  13.362  1.3194  0.1973 -0.6095
22099SOL     OW78275   5.797   8.447   0.281 -0.2913 -0.1310 -0.1843
22099SOL    HW178276   5.850   8.384   0.233 -0.6236 -1.1783  0.7728
22099SOL    HW278277   5.854   8.480   0.350 -0.7313 -0.9156  0.5645
22100SOL     OW78278   1.650  10.225   1.023  0.0828 -0.0355  0.2001
22100SOL    HW178279   1.609  10.208   1.108 -0.5023  1.4742  0.2495
22100SOL    HW278280   1.708  10.150   1.009 -0.7033 -0.8954  1.3700
22101SOL     OW78281   8.295  10.966   6.012  0.4530 -0.3747 -0.1465
22101SOL    HW178282   8.375  11.017   5.995  0.3282 -0.5016 -1.2299
22101SOL    HW278283   8.324  10.893   6.066  1.0931 -0.4334 -0.5536
22102SOL     OW78284   6.126   8.159  11.319  0.2905  0.2631 -0.4804
22102SOL    HW178285   6.075   8.208  11.255 -0.5696  0.6037  0.4389
22102SOL    HW278286   6.148   8.077  11.275  0.9618  1.0753 -1.7101
22103SOL     OW78287   7.677   4.983   3.723 -0.0871  0.0340 -0.1023
22103SOL    HW178288   7.594   4.985   3.676  0.4560  0.3109 -1.0957
22103SOL    HW278289   7.724   4.909   3.685  0.1487 -0.0781  0.4008
22104SOL     OW78290   9.302   7.480  11.949  0.4558  0.0928  0.1398
22104SOL    HW178291   9.242   7.460  12.021  0.5538  1.4995  0.6385
22104SOL    HW278292   9.377   7.522  11.991  0.2333  1.5270 -0.8230
22105SOL     OW78293  13.757   8.465   8.903 -0.2484  0.3362 -0.0191
22105SOL    HW178294  13.727   8.414   8.978 -0.2053  0.2884 -0.0344
22105SOL    HW278295  13.677   8.487   8.855 -0.2090 -0.2970 -0.3823
22106SOL     OW78296   5.732   0.528   7.542 -0.3189 -0.4012  0.1906
22106SOL    HW178297   5.699   0.616   7.559  0.2557 -0.4739  1.8999
22106SOL    HW278298   5.811   0.542   7.490 -0.5939  0.0426 -0.1138
22107SOL     OW78299   5.841  11.318  12.619 -0.2927  0.2916 -0.1231
22107SOL    HW178300   5.854  11.259  12.545 -1.9954 -0.2969  0.0014
22107SOL    HW278301   5.912  11.296  12.680  0.7271  0.3250 -1.2765
22108SOL     OW78302   6.153  10.365   7.569  0.1426 -0.5016 -0.2845
22108SOL    HW178303   6.184  10.442   7.521 -1.1019 -0.5161 -1.1793
22108SOL    HW278304   6.192  10.290   7.522 -0.3203 -0.4821 -0.7050
22109SOL     OW78305   3.802   5.447   7.382 -0.1855  0.3376  0.4621
22109SOL    HW178306   3.749   5.368   7.371  0.4431 -0.1634  0.9704
22109SOL    HW278307   3.741   5.519   7.363 -0.4274 -0.2967 -1.3573
22110SOL     OW78308  10.925   2.129  10.276 -0.3774  0.0274  0.5826
22110SOL    HW178309  10.853   2.087  10.323 -0.6518  0.1542  0.2723
22110SOL    HW278310  10.924   2.220  10.306 -0.1026 -0.0630  0.8707
22111SOL     OW78311   6.618  13.980  12.196  0.3661  0.3194 -0.1316
22111SOL    HW178312   6.711  13.960  12.205  0.0913 -1.0695 -0.1206
22111SOL    HW278313   6.592  13.937  12.115 -0.1458  1.2175 -0.4607
22112SOL     OW78314  13.714   7.490   8.546  0.4740 -0.0305  0.5073
22112SOL    HW178315  13.625   7.517   8.567  0.9115  1.5531  0.4553
22112SOL    HW278316  13.765   7.509   8.624  1.1222  0.9560 -0.1268
22113SOL     OW78317   0.477   4.866  12.215  0.3163 -0.6293 -0.0224
22113SOL    HW178318   0.420   4.790  12.220  1.7130 -1.6198  1.4273
22113SOL    HW278319   0.509   4.866  12.124  0.2763 -1.7506 -0.0454
22114SOL     OW78320   9.255   4.923   9.227  0.1605 -0.3394 -0.7044
22114SOL    HW178321   9.162   4.947   9.225 -0.3976 -2.2547 -0.3437
22114SOL    HW278322   9.254   4.827   9.229  2.1319 -0.3821  0.3417
22115SOL     OW78323   8.211   1.974   9.065 -0.3705 -0.1222 -0.4523
22115SOL    HW178324   8.167   2.029   9.129 -0.0035 -1.4540  1.0104
22115SOL    HW278325   8.179   2.005   8.980 -3.4010 -0.3849  0.4739
22116SOL     OW78326   3.401   8.528   1.047 -0.2477  0.0300 -0.0436
22116SOL    HW178327   3.308   8.509   1.039  0.0333 -1.4987  0.0233
22116SOL    HW278328   3.444   8.443   1.044  1.0932  0.6274  0.7871
22117SOL     OW78329  10.813   2.774  13.325  0.0734  0.1440 -0.5045
22117SOL    HW178330  10.812   2.699  13.385  1.6112  0.6776  0.2490
22117SOL    HW278331  10.879   2.750  13.259  1.6845  1.3838  0.5664
22118SOL     OW78332   6.863   7.011  11.351 -0.1150  0.3121  0.5065
22118SOL    HW178333   6.805   7.053  11.287 -0.0112  1.8467  1.3930
22118SOL    HW278334   6.821   6.926  11.368 -2.0311  1.3002  0.9799
22119SOL     OW78335   4.056  12.048   6.213 -0.5683 -0.0125 -0.0844
22119SOL    HW178336   4.104  12.001   6.144 -1.0661  0.6815 -0.9207
22119SOL    HW278337   4.009  11.979   6.260  1.5093 -0.7674  1.0182
22120SOL     OW78338   5.662   5.263  13.191  0.2043  0.5124 -0.5014
22120SOL    HW178339   5.569   5.286  13.195  0.3557  1.3562 -1.3515
22120SOL    HW278340   5.683   5.230  13.279 -0.9630  0.0158 -0.3938
22121SOL     OW78341  13.813   8.543   5.536 -0.3208  0.0319  0.1811
22121SOL    HW178342  13.787   8.591   5.615 -1.4968 -0.0805 -0.1133
22121SOL    HW278343  13.875   8.601   5.492  0.4094  0.0600  1.2218
22122SOL     OW78344   1.552   3.071  10.809  0.5073 -0.0566  0.0148
22122SOL    HW178345   1.594   3.004  10.863  1.0439  0.6542  0.5028
22122SOL    HW278346   1.533   3.027  10.727  1.6693 -0.5900  0.0071
22123SOL     OW78347  12.812   2.883  12.914 -0.0990  0.1946  0.0597
22123SOL    HW178348  12.877   2.936  12.961 -0.9287  1.5137 -0.2402
22123SOL    HW278349  12.859   2.802  12.893  1.4390  1.0646 -0.0709
22124SOL     OW78350   0.400   4.975   3.723  0.3655  0.2224  0.1886
22124SOL    HW178351   0.494   4.972   3.741  0.7917 -1.1508 -1.9301
22124SOL    HW278352   0.386   5.061   3.684  0.8667  0.2293  0.0114
22125SOL     OW78353   2.574   5.996   0.580  0.4015 -0.4418 -0.1954
22125SOL    HW178354   2.609   6.035   0.660  0.7793  0.1208 -0.6257
22125SOL    HW278355   2.487   6.035   0.571  0.6119 -0.0135 -0.3987
22126SOL     OW78356   5.734   5.196  10.173  0.2214 -0.0950  0.2565
22126SOL    HW178357   5.707   5.123  10.118 -1.4905 -0.4115  1.4437
22126SOL    HW278358   5.820   5.172  10.206 -1.3010 -2.8725  2.6608
22127SOL     OW78359   3.415   0.940  13.035 -0.3716 -0.4743 -1.2616
22127SOL    HW178360   3.354   0.941  13.109 -1.2379 -1.2332 -1.9478
22127SOL    HW278361   3.374   0.882  12.971  0.1232  0.5402 -2.5425
22128SOL     OW78362   4.397   2.887  11.684 -0.2646  0.3975 -0.4643
22128SOL    HW178363   4.301   2.886  11.676 -0.3073  0.8335 -0.0137
22128SOL    HW278364   4.420   2.980  11.687  0.0808  0.2881  0.5180
22129SOL     OW78365   1.031   5.435   9.932 -0.1656  0.5115 -0.0300
22129SOL    HW178366   1.080   5.355   9.915 -1.0067 -0.2662  1.0745
22129SOL    HW278367   1.045   5.488   9.854  1.3366 -0.2253 -0.2977
22130SOL     OW78368   9.422  13.147   7.177  0.5441 -0.1105 -0.6281
22130SOL    HW178369   9.406  13.079   7.111 -1.0314 -0.8869  0.4853
22130SOL    HW278370   9.511  13.177   7.159  0.9639 -1.8317 -1.7345
22131SOL     OW78371   4.298   8.873   9.407 -0.1610  0.2729  0.2049
22131SOL    HW178372   4.233   8.837   9.468 -0.6384 -1.2592 -1.1378
22131SOL    HW278373   4.255   8.950   9.369 -1.9153 -1.5707 -1.8023
22132SOL     OW78374   1.675   2.090   0.657  0.0466 -0.4564 -0.1420
22132SOL    HW178375   1.768   2.069   0.660  0.1721 -0.0395 -0.9537
22132SOL    HW278376   1.666   2.168   0.711 -0.2006 -1.7023  1.7362
22133SOL     OW78377  10.484   0.760  10.952  0.3062 -0.0724 -0.3872
22133SOL    HW178378  10.496   0.707  10.874  0.1477 -1.0661  0.2499
22133SOL    HW278379  10.500   0.850  10.923 -1.8047 -0.1525 -2.0347
22134SOL     OW78380   3.849   5.245   8.337  0.2280 -0.0345  0.1875
22134SOL    HW178381   3.840   5.202   8.252  0.4460  1.1225 -0.4510
22134SOL    HW278382   3.925   5.303   8.326 -0.0758  0.5281  0.9865
22135SOL     OW78383   3.601   2.575  13.110  0.3991  0.1357  0.1631
22135SOL    HW178384   3.578   2.533  13.193  2.7163  1.5343  1.6464
22135SOL    HW278385   3.530   2.636  13.094 -0.7272 -1.0637  0.3943
22136SOL     OW78386   3.895  11.662  11.541  0.3020 -0.4653 -0.2726
22136SOL    HW178387   3.871  11.739  11.593  0.0247 -0.8135  0.1170
22136SOL    HW278388   3.861  11.681  11.453  2.4205  0.9723 -0.8586
22137SOL     OW78389   0.296  12.680  13.989 -0.0546  0.3351 -0.0460
22137SOL    HW178390   0.381  12.641  13.971 -0.0884 -0.0863  0.6885
22137SOL    HW278391   0.308  12.728  14.072 -0.3160  0.9494 -0.3532
22138SOL     OW78392   0.039  12.430  13.265 -0.6364 -0.0568 -0.7349
22138SOL    HW178393  -0.038  12.398  13.218 -1.4425  0.5114  0.1500
22138SOL    HW278394   0.020  12.411  13.357  0.7018 -0.7338 -0.5782
22139SOL     OW78395   9.324   3.425  10.487  0.5277  0.0190  0.4870
22139SOL    HW178396   9.367   3.494  10.538  0.0352  0.2197  0.6344
22139SOL    HW278397   9.251   3.396  10.541 -0.5763  0.8953 -0.4758
22140SOL     OW78398   2.290   0.448   6.305  0.0410  0.0001  0.5286
22140SOL    HW178399   2.283   0.361   6.265  0.1595 -0.3054  1.1477
22140SOL    HW278400   2.215   0.496   6.272 -0.8260 -0.7954  1.2742
22141SOL     OW78401   4.981  10.640   6.596  0.1232 -0.4006  0.1837
22141SOL    HW178402   4.952  10.561   6.551 -0.1680 -0.0811 -0.2011
22141SOL    HW278403   5.030  10.608   6.672  0.8513 -0.9495 -0.4974
22142SOL     OW78404   9.690  11.096   0.462 -0.4443  0.1678  0.4428
22142SOL    HW178405   9.646  11.126   0.383 -0.8245 -1.8455 -0.1473
22142SOL    HW278406   9.710  11.004   0.446  2.1190  0.4391  1.5204
22143SOL     OW78407  11.135   1.702   4.312  0.0434 -0.1086  0.4300
22143SOL    HW178408  11.127   1.757   4.234 -0.3516 -0.8614 -0.0761
22143SOL    HW278409  11.128   1.762   4.386  1.0901  0.7077 -0.1163
22144SOL     OW78410   1.505   2.274   0.338  0.0829  0.0723  0.2788
22144SOL    HW178411   1.475   2.316   0.419 -1.3954  2.1039 -1.2407
22144SOL    HW278412   1.427   2.266   0.284  1.0161 -1.3573 -0.9404
22145SOL     OW78413   2.768   5.002  10.426  0.6280 -0.2926  0.0842
22145SOL    HW178414   2.745   4.914  10.398  3.0704 -0.3400 -2.2296
22145SOL    HW278415   2.846   5.024  10.374 -0.7611  3.8157 -0.6315
22146SOL     OW78416   8.975  10.518  11.289 -0.1218  0.3347  0.4454
22146SOL    HW178417   8.968  10.550  11.199  0.0754 -0.2699  0.2139
22146SOL    HW278418   9.063  10.545  11.317  1.0701 -2.1510 -0.6170
22147SOL     OW78419   9.180  12.921   7.991 -0.2538  0.4588 -0.1622
22147SOL    HW178420   9.142  13.006   8.014  0.1718  0.6640 -0.2079
22147SOL    HW278421   9.203  12.881   8.075 -0.7935  0.2269 -0.1212
22148SOL     OW78422   1.366  14.008   4.730 -0.8237 -0.0944  0.8831
22148SOL    HW178423   1.456  14.034   4.750 -0.8860  0.1668  0.8236
22148SOL    HW278424   1.318  14.090   4.722 -1.3625 -0.2546  2.2574
22149SOL     OW78425   0.624   7.031  11.249  0.3286 -0.0400 -0.0464
22149SOL    HW178426   0.622   7.041  11.344  0.3319  1.7015 -0.1849
22149SOL    HW278427   0.707   6.987  11.231  1.2360  1.2913  0.6854
22150SOL     OW78428   9.542   1.794   3.738  0.0928 -0.0468 -0.1647
22150SOL    HW178429   9.461   1.821   3.694 -1.5257 -0.9612  2.0639
22150SOL    HW278430   9.534   1.699   3.749 -0.3880  0.2626  3.3433
22151SOL     OW78431  11.978   1.763  11.700  0.0581  0.6460 -0.0805
22151SOL    HW178432  12.028   1.829  11.748  1.0287  0.3059 -0.5927
22151SOL    HW278433  12.042   1.694  11.680 -0.7101  0.0038 -0.3990
22152SOL     OW78434   6.611   7.127   0.713  0.8666 -0.3971  0.0370
22152SOL    HW178435   6.582   7.165   0.630 -1.0415 -1.7307  0.0342
22152SOL    HW278436   6.544   7.153   0.776  0.4406 -2.2360  0.4041
22153SOL     OW78437   5.094  13.986   9.804  0.4543 -0.2997  0.4955
22153SOL    HW178438   5.083  14.067   9.753  1.2156 -0.1465  0.5613
22153SOL    HW278439   5.041  13.921   9.757 -0.0370  0.1987  0.3510
22154SOL     OW78440   8.065   8.360   9.136 -0.0380 -0.0455 -0.1190
22154SOL    HW178441   8.113   8.348   9.054  0.9987 -1.8191  0.7019
22154SOL    HW278442   7.986   8.307   9.126 -1.8036  2.5804 -1.3194
22155SOL     OW78443  13.900  10.758  13.332 -0.1886  0.4109 -0.0191
22155SOL    HW178444  13.863  10.670  13.337 -1.4508  0.8897 -0.5064
22155SOL    HW278445  13.995  10.744  13.331 -0.3524 -0.8861  0.7085
22156SOL     OW78446   8.673  12.279  10.597  0.4938 -0.3810  0.3809
22156SOL    HW178447   8.768  12.274  10.601  0.5708  0.2241 -0.5443
22156SOL    HW278448   8.650  12.349  10.658  0.8950  1.5803 -1.5823
22157SOL     OW78449   2.447  13.626   7.795  0.5100 -0.1363  0.0376
22157SOL    HW178450   2.489  13.541   7.811  0.5075  0.0986  1.4395
22157SOL    HW278451   2.375  13.629   7.858 -0.6134  0.1557 -1.2417
22158SOL     OW78452  13.398   4.283   1.108 -0.0207 -0.4374 -0.5570
22158SOL    HW178453  13.479   4.298   1.157 -2.0110  0.1168  2.8508
22158SOL    HW278454  13.362   4.370   1.094 -1.0495 -0.7869 -0.1379
22159SOL     OW78455  12.514   9.384   8.969 -0.4487  0.0684 -0.7181
22159SOL    HW178456  12.535   9.471   9.005 -3.1545  1.0942 -1.4019
22159SOL    HW278457  12.588   9.363   8.912 -0.9483  3.2984 -2.8005
22160SOL     OW78458  11.553  10.946   7.203  0.5630  0.6712  0.4076
22160SOL    HW178459  11.487  10.952   7.272 -0.9140  0.8089 -0.9477
22160SOL    HW278460  11.588  10.857   7.211  0.7405  0.8266  1.5806
22161SOL     OW78461   1.363   5.643   9.597 -0.2693  0.4780 -0.1382
22161SOL    HW178462   1.369   5.666   9.505 -1.5543  0.2329 -0.3106
22161SOL    HW278463   1.278   5.599   9.605 -0.4380  1.0010  1.2647
22162SOL     OW78464   5.333  12.837   1.513 -0.3106  0.0259  0.2732
22162SOL    HW178465   5.363  12.874   1.430 -1.6228 -1.1357 -0.7645
22162SOL    HW278466   5.266  12.774   1.488 -0.0555 -1.0570  2.1663
22163SOL     OW78467  11.279   6.310  12.715  0.2345 -0.1675 -0.6711
22163SOL    HW178468  11.213   6.286  12.781 -0.0781 -0.8431 -1.2206
22163SOL    HW278469  11.294   6.229  12.666  0.2386  0.4075 -1.6337
22164SOL     OW78470   4.956   6.554   2.881  0.1658 -0.1083  0.2645
22164SOL    HW178471   4.965   6.460   2.867  2.9253  0.1934 -0.5580
22164SOL    HW278472   4.867   6.574   2.851 -0.9827 -2.5936  1.6639
22165SOL     OW78473   0.683   2.620   9.637 -0.1246  0.5597  0.0232
22165SOL    HW178474   0.733   2.565   9.576  1.2590  0.8978  0.8177
22165SOL    HW278475   0.599   2.633   9.593 -0.4839 -2.0418 -0.2755
22166SOL     OW78476   4.350  10.385   9.494  0.1548  0.6120  0.0256
22166SOL    HW178477   4.444  10.377   9.478  0.4421  0.3780  1.6619
22166SOL    HW278478   4.332  10.479   9.489  0.9589  0.9156  2.0216
22167SOL     OW78479   2.359  12.325   9.757 -0.2263 -0.4864  0.4948
22167SOL    HW178480   2.402  12.349   9.839 -0.3520  1.3638  0.0715
22167SOL    HW278481   2.280  12.278   9.784 -0.1859 -0.0357  1.4265
22168SOL     OW78482   3.494   3.283  10.382 -0.1274 -0.3615 -0.0173
22168SOL    HW178483   3.491   3.187  10.382  2.4221 -0.5156  0.8658
22168SOL    HW278484   3.563   3.305  10.443  1.1169  1.9733 -2.0687
22169SOL     OW78485  10.170  12.092  11.447  0.5424 -0.5986  0.2661
22169SOL    HW178486  10.259  12.112  11.416  0.1998  0.5541 -0.0348
22169SOL    HW278487  10.143  12.172  11.493 -0.4842 -0.7869  0.0023
22170SOL     OW78488   3.760   9.195   0.421  0.3690  0.1017 -0.2041
22170SOL    HW178489   3.730   9.133   0.487  0.1351  1.2684  0.8188
22170SOL    HW278490   3.837   9.236   0.459  0.7301  0.1907 -1.0119
22171SOL     OW78491   3.294  13.016   8.977  0.5265  0.4883  0.6067
22171SOL    HW178492   3.293  12.986   8.886 -0.3629  0.1351  0.7202
22171SOL    HW278493   3.336  13.102   8.974 -0.1711  0.8149 -0.2569
22172SOL     OW78494   0.422   3.270   5.863 -0.4926  0.1916  0.2689
22172SOL    HW178495   0.498   3.238   5.912  0.0438  0.3342 -0.4542
22172SOL    HW278496   0.456   3.289   5.776 -1.0980  1.3653  0.2612
22173SOL     OW78497   4.723   7.489   2.779  0.1052  0.1816  0.9002
22173SOL    HW178498   4.680   7.566   2.742  0.2384 -0.4813 -0.7091
22173SOL    HW278499   4.790   7.466   2.715  0.2535 -1.0999  1.4881
22174SOL     OW78500  13.589   2.005   9.341  0.2519 -0.3637  0.0406
22174SOL    HW178501  13.682   1.999   9.364  0.4554 -1.4085 -0.9357
22174SOL    HW278502  13.547   1.941   9.398  0.2340 -0.3948 -0.0082
22175SOL     OW78503  12.235   0.755   0.969  0.2968  0.2972 -0.2930
22175SOL    HW178504  12.225   0.730   0.877  0.2213  0.6969 -0.3957
22175SOL    HW278505  12.320   0.720   0.994  0.8865  1.2834 -0.8769
22176SOL     OW78506   4.005   8.998   0.033 -0.6906  0.2830 -0.1229
22176SOL    HW178507   3.919   9.039   0.045 -0.5448  0.5265  0.1137
22176SOL    HW278508   3.987   8.904   0.030 -0.8639  0.2794  0.8237
22177SOL     OW78509   9.668   5.565   4.791 -0.3747  0.3741 -0.7243
22177SOL    HW178510   9.645   5.497   4.855 -0.3531 -0.0302 -1.1346
22177SOL    HW278511   9.655   5.522   4.706 -0.2894  0.8654 -0.9875
22178SOL     OW78512  13.726   3.807   8.125  0.4185  0.0082 -0.2071
22178SOL    HW178513  13.677   3.728   8.102  1.3669 -0.5618 -0.3331
22178SOL    HW278514  13.677   3.878   8.083 -1.8219 -0.1702  1.8932
22179SOL     OW78515  13.615  12.778   4.674 -0.6489 -0.4660  0.3068
22179SOL    HW178516  13.585  12.769   4.764  0.6965  1.5832  1.0246
22179SOL    HW278517  13.555  12.841   4.635 -0.4292 -0.3391  0.1714
22180SOL     OW78518   4.683   4.750   2.764 -0.0273  0.3849 -0.1283
22180SOL    HW178519   4.619   4.809   2.805 -0.6780 -1.3236  1.4831
22180SOL    HW278520   4.690   4.781   2.674 -1.4086  2.0280  0.2679
22181SOL     OW78521   0.743   2.786   9.153  0.2054  0.4224 -0.3085
22181SOL    HW178522   0.807   2.721   9.124 -0.6752 -0.1994 -0.9233
22181SOL    HW278523   0.677   2.735   9.200  1.0151  1.2635  1.9050
22182SOL     OW78524   7.330  10.951   4.560 -0.1849 -1.1243  0.2283
22182SOL    HW178525   7.258  10.960   4.623 -1.1318  1.8142 -1.1154
22182SOL    HW278526   7.286  10.930   4.477  0.4163  0.7911 -0.6322
22183SOL     OW78527   9.030   2.558   0.047  0.0817 -0.2359 -0.2721
22183SOL    HW178528   9.068   2.541   0.133  2.4761  0.6396 -1.0802
22183SOL    HW278529   9.094   2.614   0.003 -0.5176 -1.5433 -3.0250
22184SOL     OW78530   9.757  11.107  11.840 -0.3141 -0.5546  1.1738
22184SOL    HW178531   9.730  11.143  11.755 -0.1592  0.5798  1.5830
22184SOL    HW278532   9.850  11.088  11.829 -0.2623 -0.2815  1.1263
22185SOL     OW78533  13.065  13.938   9.531  0.5781  0.1819  0.7884
22185SOL    HW178534  12.976  13.933   9.565 -0.0864  0.0179 -0.8842
22185SOL    HW278535  13.114  13.985   9.599 -1.0810  1.5011  1.1467
22186SOL     OW78536   7.633   1.120  13.464 -0.3077 -0.2306 -0.3333
22186SOL    HW178537   7.578   1.099  13.389 -0.7208  0.2375 -0.1656
22186SOL    HW278538   7.629   1.042  13.519 -2.1142  0.3623  0.4583
22187SOL     OW78539  11.348   8.893  12.370  0.1912 -0.2078  0.1668
22187SOL    HW178540  11.353   8.846  12.453  1.2272 -1.0813 -0.3674
22187SOL    HW278541  11.415   8.853  12.315  0.3512  1.1577 -0.6986
22188SOL     OW78542  13.720   5.246   6.133 -0.1180  0.5312  0.3557
22188SOL    HW178543  13.782   5.248   6.206 -1.2433 -0.0420  1.3735
22188SOL    HW278544  13.665   5.170   6.152  1.4039 -1.5115 -2.6799
22189SOL     OW78545   7.982   5.947  12.596 -0.0485 -0.2236  0.4454
22189SOL    HW178546   8.076   5.941  12.580  0.3294  1.5364  1.7457
22189SOL    HW278547   7.943   5.945  12.509  1.2703 -0.0534 -0.1712
22190SOL     OW78548  12.770   1.337   1.501  0.1940  0.3244  0.1592
22190SOL    HW178549  12.680   1.312   1.477  0.6824 -0.8619 -0.5231
22190SOL    HW278550  12.764   1.360   1.594 -0.5787 -1.0510  0.4805
22191SOL     OW78551   4.737  10.820   6.643  0.3708  0.4094 -0.0816
22191SOL    HW178552   4.772  10.862   6.564 -1.2761 -1.4926 -1.9468
22191SOL    HW278553   4.779  10.733   6.644 -1.6248 -0.6206 -0.4849
22192SOL     OW78554  12.129   1.534  11.032 -0.0188  0.3573 -0.2071
22192SOL    HW178555  12.045   1.498  11.002  0.9869 -3.0505  0.5869
22192SOL    HW278556  12.107   1.588  11.108 -1.8443  3.3429 -2.6261
22193SOL     OW78557  11.069  13.183   8.743  0.2727  0.2496 -0.1818
22193SOL    HW178558  11.082  13.277   8.735 -0.2718  0.3284 -0.1999
22193SOL    HW278559  11.055  13.169   8.837  1.8670 -0.0262  0.0386
22194SOL     OW78560   6.277   5.266  11.949  0.0518 -0.5146 -0.0499
22194SOL    HW178561   6.327   5.217  12.014 -0.9016 -1.2819  0.1342
22194SOL    HW278562   6.340   5.326  11.909  1.0080 -1.1765  0.4485
22195SOL     OW78563   4.495   3.447   2.937  0.3963  0.1383  0.7958
22195SOL    HW178564   4.440   3.512   2.981 -0.6651 -0.5741  0.5563
22195SOL    HW278565   4.465   3.446   2.847  0.7243 -0.3539  0.6861
22196SOL     OW78566   1.305  10.288   0.978  0.2441  0.1608 -0.3017
22196SOL    HW178567   1.357  10.288   0.898  1.0486 -0.1467  0.2076
22196SOL    HW278568   1.277  10.197   0.988  1.6806 -0.2070  0.7160
22197SOL     OW78569   3.861   6.957   2.489 -0.1813 -0.3973 -0.3979
22197SOL    HW178570   3.878   7.051   2.478 -0.0063 -0.1490  1.5675
22197SOL    HW278571   3.947   6.920   2.509 -0.1138 -1.1414 -1.9519
22198SOL     OW78572   4.458   1.510  13.744  0.4078 -0.2538 -0.0219
22198SOL    HW178573   4.419   1.496  13.830  1.1445  0.0809  0.3758
22198SOL    HW278574   4.448   1.426  13.699  0.1278 -0.4701  0.4349
22199SOL     OW78575   0.158   1.802   7.901 -0.1808 -0.9145 -0.7682
22199SOL    HW178576   0.075   1.849   7.901 -0.7098 -1.7776  0.6589
22199SOL    HW278577   0.138   1.721   7.853 -0.4752 -1.5828  0.4436
22200SOL     OW78578   4.861   5.703   2.973  0.8256  0.0389 -0.0462
22200SOL    HW178579   4.825   5.614   2.978  2.0873 -0.4754  0.1826
22200SOL    HW278580   4.896   5.710   2.884  2.0531 -0.2428  0.3919
22201SOL     OW78581  11.331  11.970   9.264  0.2843  0.0681 -0.1002
22201SOL    HW178582  11.416  11.926   9.268  0.2687  0.0339 -0.1532
22201SOL    HW278583  11.317  12.003   9.353  0.5739  0.4801 -0.2027
22202SOL     OW78584   4.433   6.747   0.290  0.4469 -0.0995  0.1228
22202SOL    HW178585   4.498   6.760   0.221 -0.7243  0.5035 -0.9272
22202SOL    HW278586   4.378   6.676   0.257 -0.3065  0.3989  0.2718
22203SOL     OW78587   1.950  12.887  10.370 -0.4201 -0.2528  0.2686
22203SOL    HW178588   1.949  12.924  10.459 -1.9562  1.0875 -0.2674
22203SOL    HW278589   1.871  12.921  10.329  0.4831 -0.5162 -1.7783
22204SOL     OW78590  11.204   3.602  13.574  0.0207  0.5757  0.5693
22204SOL    HW178591  11.249   3.617  13.491 -1.0528  0.9110  0.0374
22204SOL    HW278592  11.211   3.508  13.588  1.4260  0.6982  0.8197
22205SOL     OW78593   4.878  11.438   8.800 -0.0024 -0.4216 -0.5468
22205SOL    HW178594   4.888  11.362   8.857  1.0578 -0.3850 -0.6637
22205SOL    HW278595   4.794  11.476   8.825  0.5561 -0.2527  1.1753
22206SOL     OW78596   0.638   1.046   6.468  0.1785 -0.2243 -0.3457
22206SOL    HW178597   0.607   1.024   6.556 -0.7586 -1.2284 -0.9112
22206SOL    HW278598   0.564   1.027   6.411  1.2670 -1.0641 -1.5332
22207SOL     OW78599   0.892   6.167   2.990  0.4773 -0.1009  0.0757
22207SOL    HW178600   0.921   6.257   3.009  0.1140  0.1963 -0.7263
22207SOL    HW278601   0.939   6.144   2.910 -1.6120  0.4911 -1.4244
22208SOL     OW78602   3.600   1.995   9.309  0.7493 -0.7565 -0.4514
22208SOL    HW178603   3.520   2.030   9.271  0.0319 -0.1110  1.5557
22208SOL    HW278604   3.671   2.034   9.257 -0.1494  0.8319 -0.5349
22209SOL     OW78605   6.708   0.041   8.648 -0.7030  0.2123 -0.8182
22209SOL    HW178606   6.673  -0.044   8.621  0.2512  0.1298 -1.8390
22209SOL    HW278607   6.630   0.091   8.673 -1.5186 -0.1461 -2.5049
22210SOL     OW78608  10.839   2.864   2.272 -0.0043  0.2206 -0.2108
22210SOL    HW178609  10.780   2.939   2.272 -0.4961 -0.1616  0.1167
22210SOL    HW278610  10.926   2.902   2.284 -0.1469  0.8080 -0.9407
22211SOL     OW78611   6.325   7.851   9.174 -0.5418  0.3280 -0.3952
22211SOL    HW178612   6.349   7.759   9.169  2.7589  0.9508  0.9137
22211SOL    HW278613   6.235   7.852   9.207 -0.2673 -2.4035  0.6375
22212SOL     OW78614   9.545   0.412   0.695 -0.0330 -0.3359  0.5887
22212SOL    HW178615   9.520   0.352   0.764 -0.4307 -0.0347  0.7142
22212SOL    HW278616   9.462   0.434   0.651 -0.0063  0.7192  1.0396
22213SOL     OW78617   8.307   4.219   6.891  0.3778  0.2136  0.7240
22213SOL    HW178618   8.351   4.267   6.962  0.7259  0.9555  0.0284
22213SOL    HW278619   8.275   4.288   6.833  2.3751 -0.4029 -1.2038
22214SOL     OW78620   1.283   2.022   9.268  0.1784  0.2356 -0.8166
22214SOL    HW178621   1.322   2.050   9.351 -0.1785  0.3834 -0.6932
22214SOL    HW278622   1.194   1.994   9.292  0.3087 -0.3884 -1.0392
22215SOL     OW78623   5.591  12.909  13.228 -0.2312  0.1547 -0.7152
22215SOL    HW178624   5.686  12.907  13.238  0.3740  2.3555 -4.0869
22215SOL    HW278625   5.568  13.001  13.243 -1.7160 -0.1981 -0.7255
22216SOL     OW78626   3.538   6.089   3.080 -0.0699 -0.4133 -0.6294
22216SOL    HW178627   3.474   6.160   3.079 -0.4273 -0.7319 -1.6470
22216SOL    HW278628   3.505   6.027   3.144  0.8076  0.8140  1.0957
22217SOL     OW78629   0.439  13.598   5.571 -0.0709  0.3808 -0.2092
22217SOL    HW178630   0.445  13.690   5.597 -2.4557  0.2280  1.1013
22217SOL    HW278631   0.383  13.599   5.493  0.8926  0.1210 -0.9238
22218SOL     OW78632   8.620  13.223   1.274  0.1188 -0.0415 -0.2983
22218SOL    HW178633   8.688  13.281   1.240  0.3143 -0.0040  0.1533
22218SOL    HW278634   8.564  13.205   1.198 -0.5166  1.5133 -0.2313
22219SOL     OW78635  12.355   9.618   8.201 -0.4098  0.4026 -0.2201
22219SOL    HW178636  12.372   9.572   8.283 -0.5609 -1.8665 -1.3859
22219SOL    HW278637  12.438   9.660   8.179  0.8135 -2.0907 -0.7299
22220SOL     OW78638   5.374   7.018  11.787  0.3398 -0.0662 -0.0922
22220SOL    HW178639   5.377   7.099  11.837  0.5699  1.2299 -2.0913
22220SOL    HW278640   5.464   7.005  11.756  0.3593 -1.2295  0.4021
22221SOL     OW78641   5.437   2.475   2.322 -0.1918 -0.2777 -0.6199
22221SOL    HW178642   5.494   2.501   2.250 -1.3161 -0.0900 -1.4706
22221SOL    HW278643   5.496   2.458   2.395  0.9115  0.3260 -1.3498
22222SOL     OW78644   1.365   4.748   3.401 -0.5067  0.1972  0.8390
22222SOL    HW178645   1.369   4.838   3.435 -2.6560  1.5617 -2.0773
22222SOL    HW278646   1.276   4.720   3.419 -0.8572 -0.0516 -1.0614
22223SOL     OW78647   3.378   3.798   7.237  0.3854 -0.2309 -0.5837
22223SOL    HW178648   3.381   3.894   7.240 -0.8948 -0.1933  0.3381
22223SOL    HW278649   3.299   3.775   7.287  0.6975 -1.7678 -0.7557
22224SOL     OW78650   1.989  10.952   6.540 -0.2641  0.2429  0.5518
22224SOL    HW178651   1.917  11.015   6.548 -1.9943 -1.4301 -0.9404
22224SOL    HW278652   1.952  10.869   6.569  1.6742 -0.3399  1.5539
22225SOL     OW78653   0.987   1.174  12.637 -0.3921 -0.5293  1.0244
22225SOL    HW178654   0.970   1.268  12.625 -0.3632 -0.5370  0.9268
22225SOL    HW278655   0.980   1.136  12.549  0.7615 -0.4263  0.8730
22226SOL     OW78656   3.346  11.721   3.045 -0.4609  0.2441  0.0533
22226SOL    HW178657   3.311  11.701   3.132  0.8316  0.3013  0.6139
22226SOL    HW278658   3.379  11.811   3.054 -1.2641  0.6487 -0.8257
22227SOL     OW78659   0.111  10.417  12.575  0.6111 -0.1821  0.2620
22227SOL    HW178660   0.128  10.400  12.668  0.8315 -2.4841 -0.1286
22227SOL    HW278661   0.196  10.439  12.538  0.8281 -0.8930  0.3230
22228SOL     OW78662  10.347   9.724  11.173 -0.6051 -0.1195  0.4115
22228SOL    HW178663  10.341   9.774  11.254  1.7190  2.7587 -0.9837
22228SOL    HW278664  10.259   9.725  11.137 -0.6895  3.2255  0.4437
22229SOL     OW78665  10.064  12.841   2.204  0.8515 -0.2977 -0.0775
22229SOL    HW178666  10.027  12.816   2.289 -1.4022  2.7720  0.0280
22229SOL    HW278667  10.106  12.926   2.220  2.2255 -0.6316 -1.6442
22230SOL     OW78668   2.337   7.297   2.710  0.2467  0.4748  0.0668
22230SOL    HW178669   2.378   7.363   2.765  0.6108  0.2215  0.1069
22230SOL    HW278670   2.410   7.243   2.679 -0.1842 -0.9095  1.3415
22231SOL     OW78671   2.135  13.386   1.711 -0.2048  0.1670 -0.3927
22231SOL    HW178672   2.084  13.306   1.727  1.3987 -0.5252  1.7646
22231SOL    HW278673   2.099  13.421   1.630 -2.8248 -1.2488  0.0295
22232SOL     OW78674   7.494   8.894   5.471 -0.3485  0.2541  0.5917
22232SOL    HW178675   7.507   8.829   5.539  1.5843 -0.8633 -0.7582
22232SOL    HW278676   7.576   8.943   5.467  0.3565 -0.9498 -2.1229
22233SOL     OW78677   9.809   1.977  10.111  0.1822 -0.3476  0.4181
22233SOL    HW178678   9.758   1.925  10.173 -1.5147 -0.9218 -1.3737
22233SOL    HW278679   9.744   2.026  10.061  1.3551 -0.9862 -1.8489
22234SOL     OW78680  11.273   5.790   2.607  0.3184 -0.0689 -0.0543
22234SOL    HW178681  11.209   5.855   2.637  0.9097 -0.0319  1.2063
22234SOL    HW278682  11.227   5.706   2.618 -0.9313  0.1451 -2.9415
22235SOL     OW78683   9.545   3.486   3.447 -0.0592  0.3529 -0.3602
22235SOL    HW178684   9.590   3.403   3.430  0.9507  0.5828  1.0580
22235SOL    HW278685   9.487   3.466   3.521  1.4312  1.3002  1.1147
22236SOL     OW78686   6.337   6.064   4.333  0.3144 -0.3985 -0.4420
22236SOL    HW178687   6.262   6.081   4.275 -1.0153 -1.2518  0.9310
22236SOL    HW278688   6.309   6.099   4.418  2.1362  0.6737 -0.2271
22237SOL     OW78689   7.643  11.342   1.447 -0.4180 -0.3012  0.0995
22237SOL    HW178690   7.556  11.353   1.485 -0.6475  2.3074 -1.0402
22237SOL    HW278691   7.629  11.284   1.372 -1.8122  2.4378 -1.8918
22238SOL     OW78692   2.217  10.770   1.943  0.2755  0.7879 -0.7067
22238SOL    HW178693   2.195  10.810   1.859  0.8481  1.9695 -0.3245
22238SOL    HW278694   2.147  10.707   1.959  0.9260 -0.5085 -2.7301
22239SOL     OW78695   8.641  13.286   0.407 -0.1235  0.0347  0.2608
22239SOL    HW178696   8.657  13.347   0.335  1.7638 -1.0944 -0.3643
22239SOL    HW278697   8.560  13.242   0.384 -0.8055  1.3583  0.0600
22240SOL     OW78698  11.099   7.279   5.521 -0.5228  0.2375  0.3941
22240SOL    HW178699  11.113   7.266   5.615 -1.4008 -0.8339  0.3986
22240SOL    HW278700  11.180   7.247   5.480 -0.9404 -1.2892  0.6871
22241SOL     OW78701   4.192   6.324   8.639  0.4170  1.2347  0.7897
22241SOL    HW178702   4.139   6.245   8.631  2.5559 -0.4430  1.9291
22241SOL    HW278703   4.134   6.396   8.614 -1.5846 -0.6942 -0.3865
22242SOL     OW78704   4.589  12.976   8.516  0.2059  0.3237 -0.7559
22242SOL    HW178705   4.511  12.922   8.524  1.4455 -1.3187  1.2237
22242SOL    HW278706   4.559  13.065   8.537 -0.8333 -0.5549  1.7674
22243SOL     OW78707   4.701   7.526  11.914 -0.4005  0.1705  0.0284
22243SOL    HW178708   4.606   7.534  11.907 -0.3182  1.4077  0.0435
22243SOL    HW278709   4.733   7.616  11.912  0.8345 -0.2499 -0.7540
22244SOL     OW78710   4.619   1.277   5.413 -0.2376 -0.1279  0.0403
22244SOL    HW178711   4.527   1.302   5.411 -0.1254  0.3238 -2.6653
22244SOL    HW278712   4.618   1.181   5.415 -0.6899 -0.1344  1.8956
22245SOL     OW78713   3.378   0.944   5.191 -0.1684 -0.0108  0.3592
22245SOL    HW178714   3.429   0.993   5.255 -0.0538 -0.5902  0.7166
22245SOL    HW278715   3.300   0.914   5.239 -0.0583 -0.4893  0.2492
22246SOL     OW78716  10.307   1.368   4.623  0.0228 -0.1227 -0.6164
22246SOL    HW178717  10.286   1.441   4.681  1.2150  0.8450 -1.3510
22246SOL    HW278718  10.282   1.290   4.673  0.4716  0.6985  0.9789
22247SOL     OW78719   7.415   1.112   2.590  0.1179 -0.0349 -0.1313
22247SOL    HW178720   7.364   1.175   2.642  1.0349 -0.0964  0.8878
22247SOL    HW278721   7.480   1.166   2.544 -0.5808 -0.0006 -1.1013
22248SOL     OW78722   4.203   4.131   8.789 -0.4996 -0.4170  0.0923
22248SOL    HW178723   4.134   4.138   8.723 -0.9419 -0.6972  0.5116
22248SOL    HW278724   4.160   4.157   8.871 -0.6421 -2.3410  0.6814
22249SOL     OW78725  13.622   4.594   2.200 -0.0008  0.1163  0.1926
22249SOL    HW178726  13.710   4.576   2.166  0.4839 -0.9358  1.8501
22249SOL    HW278727  13.568   4.522   2.168 -0.1836  0.5658 -0.5245
22250SOL     OW78728  12.765  10.481  10.039 -0.1247 -0.2309  0.0692
22250SOL    HW178729  12.693  10.493   9.977  0.3756 -1.5221 -0.7990
22250SOL    HW278730  12.724  10.449  10.119 -0.7462  1.2071  0.3557
22251SOL     OW78731   0.279   7.019   2.039  0.2335 -0.3214  0.0680
22251SOL    HW178732   0.350   6.957   2.059  0.5228 -0.6880 -1.8793
22251SOL    HW278733   0.315   7.075   1.970 -0.4297  1.3081  1.0033
22252SOL     OW78734   6.058   5.043   3.100  0.3496 -0.2085  0.1204
22252SOL    HW178735   5.995   5.115   3.103  0.4955 -0.1143  1.6420
22252SOL    HW278736   6.113   5.056   3.176  1.6423 -0.8234 -0.6743
22253SOL     OW78737  11.816   6.705   8.319 -0.5164 -0.8184  0.2108
22253SOL    HW178738  11.885   6.739   8.376 -0.0698  1.0180 -1.3390
22253SOL    HW278739  11.864   6.660   8.250 -0.8441  0.3422 -0.7952
22254SOL     OW78740   8.111  10.559   4.562  0.4838 -0.2249 -0.2544
22254SOL    HW178741   8.171  10.559   4.637  0.5820  0.8499 -0.3172
22254SOL    HW278742   8.025  10.542   4.600  0.4905  0.5902  0.1588
22255SOL     OW78743  12.502  10.272   1.553  0.1557  0.8361  0.1875
22255SOL    HW178744  12.534  10.206   1.615  1.3268 -1.2373 -2.4716
22255SOL    HW278745  12.567  10.342   1.557  1.5995 -0.4176 -0.4669
22256SOL     OW78746   2.236   4.909  11.112  0.0046  0.1703  0.1470
22256SOL    HW178747   2.317   4.858  11.108 -0.7548 -1.0393 -0.3710
22256SOL    HW278748   2.260   4.994  11.075  0.9813 -0.2535 -0.2491
22257SOL     OW78749  13.029   3.946   3.766 -0.3809 -0.1098 -0.1967
22257SOL    HW178750  13.056   3.955   3.675  2.3231  2.8015  0.7147
22257SOL    HW278751  13.107   3.915   3.812 -1.6149 -1.2878  1.2406
22258SOL     OW78752  10.007   6.848   9.081 -1.0021  0.1061  0.4444
22258SOL    HW178753  10.064   6.774   9.060  1.2880  1.5374  1.3736
22258SOL    HW278754  10.013   6.857   9.176  0.8372  2.9925  0.1699
22259SOL     OW78755   6.821   4.017  10.169  0.1371  0.5758  0.1961
22259SOL    HW178756   6.852   4.106  10.155  0.9235  0.1898 -0.5941
22259SOL    HW278757   6.752   4.004  10.104  0.3484  0.4523 -0.0049
22260SOL     OW78758   3.608   2.999   9.527  0.1686 -0.7093  0.6191
22260SOL    HW178759   3.518   3.004   9.558 -0.6593  0.6123 -1.7055
22260SOL    HW278760   3.603   2.946   9.447  1.4519 -0.5974  0.4391
22261SOL     OW78761  11.021   6.118  12.110  0.1524  0.3776  0.0184
22261SOL    HW178762  10.964   6.137  12.184  0.3420 -1.1259  0.5853
22261SOL    HW278763  11.091   6.064  12.147  2.1933  2.4848 -0.5703
22262SOL     OW78764   8.357  13.953   8.606 -0.2969 -0.2426 -0.5730
22262SOL    HW178765   8.312  13.984   8.684 -2.7517 -0.1032 -1.9489
22262SOL    HW278766   8.442  13.998   8.608 -0.8585  0.8254  1.2625
22263SOL     OW78767   9.290  12.784   2.335  0.2909  0.0291 -0.2390
22263SOL    HW178768   9.322  12.756   2.250  0.0033  0.0078 -0.3418
22263SOL    HW278769   9.288  12.879   2.330  0.1782  0.0236 -0.2903
22264SOL     OW78770   8.817   8.417   1.723  0.1899 -0.4958  0.1565
22264SOL    HW178771   8.797   8.356   1.651  0.7972  1.8970 -2.1954
22264SOL    HW278772   8.913   8.412   1.731  0.1132 -0.8142  0.8702
22265SOL     OW78773   3.772  13.060   5.570  0.0643 -0.2129 -0.5794
22265SOL    HW178774   3.729  13.140   5.600 -0.6087 -1.3781  1.7306
22265SOL    HW278775   3.757  12.997   5.639  0.5078 -2.4081 -2.3798
22266SOL     OW78776   5.869  11.377   8.218  0.1364  0.3910  0.1046
22266SOL    HW178777   5.858  11.294   8.265  1.9458  0.6908  1.1723
22266SOL    HW278778   5.957  11.371   8.180 -0.8747  0.5937 -2.4659
22267SOL     OW78779  10.789  10.848   9.371  0.1727  0.0471 -0.1647
22267SOL    HW178780  10.737  10.917   9.330  1.3838  1.0869 -0.0222
22267SOL    HW278781  10.852  10.895   9.426  0.6253 -1.2061  0.4200
22268SOL     OW78782   0.992  13.970   0.812  0.3922 -0.1818 -0.5950
22268SOL    HW178783   1.031  13.980   0.899 -0.7910 -0.5242  0.0033
22268SOL    HW278784   0.926  13.902   0.823  1.3769 -1.4710 -2.1887
22269SOL     OW78785   4.058   5.832   4.395 -0.3980  0.1490 -0.0925
22269SOL    HW178786   4.113   5.755   4.409 -2.1633 -1.2415 -0.5254
22269SOL    HW278787   4.013   5.845   4.478 -2.1116 -0.9909 -0.7756
22270SOL     OW78788   4.282   0.527   8.948 -0.4194 -0.0539  0.4851
22270SOL    HW178789   4.338   0.605   8.947 -0.7201  0.1704  0.8810
22270SOL    HW278790   4.318   0.473   9.018 -1.0806  0.3815  1.1759
22271SOL     OW78791   3.125   9.210   5.959  0.6480  0.0516 -0.2686
22271SOL    HW178792   3.060   9.255   6.013 -0.0845 -0.4987 -0.6690
22271SOL    HW278793   3.080   9.131   5.928  1.5953 -0.4804 -0.3373
22272SOL     OW78794  10.002   8.654   0.096  0.1607  0.2512  0.4230
22272SOL    HW178795   9.938   8.703   0.147  1.8211  0.1317  2.8048
22272SOL    HW278796  10.082   8.657   0.149  1.9383 -0.2080 -2.0640
22273SOL     OW78797  12.962   0.016   2.570 -0.1085  0.5908 -0.2674
22273SOL    HW178798  12.918  -0.007   2.488 -0.3741  1.4976 -0.3932
22273SOL    HW278799  13.036  -0.044   2.576 -0.9550 -0.4888 -0.4123
22274SOL     OW78800   8.960  10.289   3.685 -0.8911 -0.2958  0.3594
22274SOL    HW178801   8.942  10.207   3.730 -0.7979 -0.1091  0.7381
22274SOL    HW278802   9.008  10.342   3.749 -0.6721 -0.0656  0.0101
22275SOL     OW78803   7.897  10.376  13.328  0.4085 -0.5559 -0.2371
22275SOL    HW178804   7.827  10.316  13.305 -0.1070  0.0181 -0.1825
22275SOL    HW278805   7.976  10.322  13.328 -0.1452 -1.3846  0.5489
22276SOL     OW78806   4.820  10.361   3.135  0.2612 -0.0198 -0.0751
22276SOL    HW178807   4.912  10.388   3.141  0.2661  0.9443 -2.9635
22276SOL    HW278808   4.780  10.395   3.216  2.2078  0.4309  0.7669
22277SOL     OW78809  11.070   5.089  11.897 -0.0774 -0.2648 -0.6534
22277SOL    HW178810  11.077   5.070  11.804  0.3305  0.2568 -0.7335
22277SOL    HW278811  11.160   5.097  11.927 -0.2062  1.5242 -0.6380
22278SOL     OW78812   8.688   7.124  10.204 -0.1650  0.0850 -0.3040
22278SOL    HW178813   8.763   7.076  10.240 -0.9809 -0.9102  0.1277
22278SOL    HW278814   8.719   7.158  10.120  0.1198 -2.1856 -1.1871
22279SOL     OW78815  13.839   8.947  10.476  0.0664 -0.8473 -0.1367
22279SOL    HW178816  13.842   8.933  10.571  1.6986  0.7715  0.1034
22279SOL    HW278817  13.920   8.993  10.456 -1.0179  0.3609 -2.0727
22280SOL     OW78818   9.174   9.904   6.921 -0.4233  0.2060 -0.2609
22280SOL    HW178819   9.181   9.972   6.853 -2.9801  0.5974 -0.2004
22280SOL    HW278820   9.131   9.831   6.878  2.1984 -1.4720 -0.2906
22281SOL     OW78821  13.488   4.333   2.244  0.3533  0.1562  0.4171
22281SOL    HW178822  13.465   4.399   2.310 -0.3414 -0.3288  0.6791
22281SOL    HW278823  13.437   4.256   2.269  0.4416 -0.1854 -0.4214
22282SOL     OW78824  12.263   6.259  12.759 -0.1725  0.1411 -0.0311
22282SOL    HW178825  12.203   6.289  12.690 -0.7189 -3.7348 -1.5199
22282SOL    HW278826  12.349   6.263  12.718 -0.1890  0.1238 -0.0680
22283SOL     OW78827  11.464   7.640   5.561 -0.0102  0.3466  0.6900
22283SOL    HW178828  11.434   7.559   5.603  0.4262  0.3247  0.9659
22283SOL    HW278829  11.517   7.610   5.487  1.9802  0.3376  2.0636
22284SOL     OW78830   7.922   3.848   3.693  0.4297  0.3774 -0.4852
22284SOL    HW178831   7.943   3.766   3.647  2.4427  2.0218 -2.7611
22284SOL    HW278832   7.841   3.878   3.652 -1.2819 -1.1848  1.5304
22285SOL     OW78833  12.971  12.677  10.709  0.1285  0.8401 -0.1986
22285SOL    HW178834  12.988  12.672  10.804 -1.0763  0.0710 -0.0031
22285SOL    HW278835  13.058  12.689  10.670  0.7194  0.4970  0.9577
22286SOL     OW78836   0.957   7.586  12.336 -0.3992  0.4575 -0.4045
22286SOL    HW178837   0.972   7.671  12.293 -2.0548  1.5106  0.9478
22286SOL    HW278838   0.873   7.556  12.301 -0.3332 -0.1024 -0.0931
22287SOL     OW78839   4.378   1.190   2.892  0.1854  0.5522  0.4479
22287SOL    HW178840   4.446   1.124   2.900 -0.1748 -0.1248 -1.4689
22287SOL    HW278841   4.299   1.148   2.925  0.3865  0.8282  1.3058
22288SOL     OW78842   1.795   6.402   7.775 -0.6229  0.2255  0.5932
22288SOL    HW178843   1.747   6.328   7.810  1.2475 -3.2004 -3.2099
22288SOL    HW278844   1.748   6.425   7.694  0.6099  1.0274  0.0773
22289SOL     OW78845   3.174   8.714   9.371  0.6768 -0.0676 -0.0060
22289SOL    HW178846   3.203   8.737   9.282 -1.1461  0.4287 -0.5161
22289SOL    HW278847   3.200   8.789   9.424 -0.3714  0.7595 -0.6174
22290SOL     OW78848  11.099   6.695  11.819 -0.2967 -0.7310 -0.2524
22290SOL    HW178849  11.192   6.710  11.833 -0.1018 -1.5014 -0.6926
22290SOL    HW278850  11.094   6.609  11.776 -1.1255 -0.2161 -1.2436
22291SOL     OW78851   2.438  10.411  12.157  0.0682 -0.3137 -0.2865
22291SOL    HW178852   2.527  10.384  12.176  0.2988  0.0343 -0.8322
22291SOL    HW278853   2.439  10.433  12.063 -0.8146 -1.1746 -0.5155
22292SOL     OW78854   2.895  13.799   4.233 -0.1997 -0.5217  0.0178
22292SOL    HW178855   2.884  13.868   4.168 -2.6039 -2.6264 -2.0241
22292SOL    HW278856   2.840  13.826   4.306 -0.2466  0.2210 -0.2876
22293SOL     OW78857   0.913  12.779   7.279  0.3717  0.7984 -0.5741
22293SOL    HW178858   0.999  12.738   7.281 -0.1990 -0.4611 -0.5500
22293SOL    HW278859   0.857  12.721   7.332 -0.4259  1.7524 -0.3243
22294SOL     OW78860   1.287   4.461   9.460  0.0487  0.4751  0.3565
22294SOL    HW178861   1.326   4.543   9.491 -0.2256  0.9891 -0.6147
22294SOL    HW278862   1.220   4.488   9.398  2.3389 -0.5214 -2.7852
22295SOL     OW78863  12.251   1.672   3.637  0.1298  0.0213 -0.2708
22295SOL    HW178864  12.172   1.713   3.672 -0.6808 -3.4735  2.6481
22295SOL    HW278865  12.220   1.620   3.563  0.0946  0.3529 -0.4874
22296SOL     OW78866   3.277  10.916   0.738 -0.1255  0.3776 -0.2801
22296SOL    HW178867   3.183  10.922   0.754 -0.7781 -0.2934 -3.3291
22296SOL    HW278868   3.299  10.825   0.757  0.0899  0.6871  1.0564
22297SOL     OW78869   0.478   2.476   5.352  0.5766  0.6605 -0.4549
22297SOL    HW178870   0.494   2.450   5.442 -0.1113  0.5200 -0.3714
22297SOL    HW278871   0.517   2.405   5.300  0.8666  0.6824 -0.2692
22298SOL     OW78872   0.127   7.122   7.509  0.3547  0.2330 -0.1385
22298SOL    HW178873   0.192   7.185   7.478  0.2835  0.5978  0.4349
22298SOL    HW278874   0.076   7.099   7.432 -1.1533  2.6643  0.0084
22299SOL     OW78875   4.301   3.993   1.447  0.3943 -0.3041 -0.2809
22299SOL    HW178876   4.272   4.043   1.524  1.5214 -2.5367  1.7521
22299SOL    HW278877   4.243   3.917   1.446 -0.8599  0.5769 -2.9159
22300SOL     OW78878   2.832   3.352   0.170  0.0547  0.0306  0.2922
22300SOL    HW178879   2.777   3.394   0.236  1.6908  0.8860  1.1710
22300SOL    HW278880   2.854   3.422   0.109 -0.8489 -0.5983 -0.8031
22301SOL     OW78881   7.083   8.869   1.533 -0.6383 -0.3289 -0.2886
22301SOL    HW178882   7.020   8.846   1.601 -1.7441  0.5988 -0.9598
22301SOL    HW278883   7.164   8.828   1.561 -1.0536  0.0421  1.5975
22302SOL     OW78884   0.676   4.127  12.277 -0.0942 -0.2376 -0.1111
22302SOL    HW178885   0.670   4.169  12.363 -3.8253 -0.8374  0.1217
22302SOL    HW278886   0.688   4.034  12.296 -1.1838 -0.4064 -0.1614
22303SOL     OW78887   5.280   5.839   6.035  0.4195 -0.5645  0.2358
22303SOL    HW178888   5.363   5.815   6.075  0.3257 -0.4928  0.4763
22303SOL    HW278889   5.249   5.759   5.993  1.0326 -0.3674 -0.6082
22304SOL     OW78890   6.360   4.022   7.698  0.3037  0.0988 -0.3689
22304SOL    HW178891   6.307   4.002   7.775  0.2281  0.3407 -0.3571
22304SOL    HW278892   6.338   3.954   7.635  0.1874  0.0388 -0.2627
22305SOL     OW78893  14.012   7.348   3.439 -0.2504 -0.0639 -0.0997
22305SOL    HW178894  14.031   7.325   3.348  0.5941  0.4538 -0.0571
22305SOL    HW278895  14.068   7.422   3.458 -0.7071  0.0823  0.7327
22306SOL     OW78896  13.030   2.381   7.487  0.0820  0.1562 -0.6775
22306SOL    HW178897  12.962   2.409   7.426  1.3779  2.2427 -1.2484
22306SOL    HW278898  13.094   2.334   7.433  0.3226  0.3787 -0.5850
22307SOL     OW78899   8.386   3.974   6.372  0.0405  0.8127  0.0571
22307SOL    HW178900   8.470   3.933   6.353  0.2830  1.4144 -0.1920
22307SOL    HW278901   8.349   3.922   6.444 -0.5423 -1.0575 -1.5023
22308SOL     OW78902  12.703   1.987   5.346  0.4727  0.3103  0.1867
22308SOL    HW178903  12.780   1.935   5.368  2.1500  1.7880 -1.7439
22308SOL    HW278904  12.721   2.073   5.385 -1.9737 -0.2385  2.8332
22309SOL     OW78905   5.785  13.280  10.236 -0.7337 -0.3925 -0.4279
22309SOL    HW178906   5.744  13.204  10.278 -0.3923 -0.5645 -0.3993
22309SOL    HW278907   5.801  13.252  10.146  2.1001 -1.4750  0.2796
22310SOL     OW78908   0.243  11.321   7.366 -0.0776  0.0866 -0.6518
22310SOL    HW178909   0.337  11.336   7.373  0.3435 -1.8414 -1.4915
22310SOL    HW278910   0.220  11.273   7.446  0.1594 -1.5153 -1.5047
22311SOL     OW78911   4.571   1.795   4.248 -0.2378 -0.2658 -0.1352
22311SOL    HW178912   4.580   1.885   4.218  2.9342 -0.4767 -0.0862
22311SOL    HW278913   4.622   1.743   4.186 -0.6158 -1.8203  0.7952
22312SOL     OW78914   9.090  11.675   3.330 -0.3661  0.1698  0.0746
22312SOL    HW178915   9.159  11.740   3.317  0.5022 -1.0342 -1.8253
22312SOL    HW278916   9.026  11.718   3.387  0.5069  2.4148 -0.5444
22313SOL     OW78917   5.157  11.545   6.632  0.1088  0.1428 -0.4212
22313SOL    HW178918   5.102  11.521   6.707 -0.6989  1.3854 -0.5946
22313SOL    HW278919   5.095  11.557   6.559  0.8348 -0.5589 -1.1743
22314SOL     OW78920   0.058   5.681   2.489  0.2192 -0.2220 -0.1241
22314SOL    HW178921   0.077   5.752   2.551 -1.1244 -0.7468  0.9469
22314SOL    HW278922   0.143   5.641   2.472  0.8335  0.8971  0.1823
22315SOL     OW78923   2.600   9.540   4.239  0.0711 -0.1287  0.4282
22315SOL    HW178924   2.592   9.503   4.151 -0.6063 -1.6633  1.0975
22315SOL    HW278925   2.676   9.496   4.276  0.3341  0.4918  0.6427
22316SOL     OW78926   1.233   6.685   4.953  0.3843  0.3819 -0.1925
22316SOL    HW178927   1.311   6.740   4.942 -0.0495  1.0784  0.1228
22316SOL    HW278928   1.174   6.738   5.006  0.7554 -1.2151  1.9154
22317SOL     OW78929   1.949   8.860   0.387  0.4852 -0.2521  0.0868
22317SOL    HW178930   1.959   8.807   0.309  1.4395 -0.4021  0.2924
22317SOL    HW278931   1.991   8.809   0.457 -1.9805 -0.9863  1.1155
22318SOL     OW78932   8.949   0.896   2.841 -0.5155 -0.3158  0.3159
22318SOL    HW178933   8.975   0.855   2.923  1.0997 -0.0943 -0.0384
22318SOL    HW278934   9.004   0.974   2.835  0.5015 -1.1049 -1.6530
22319SOL     OW78935   3.114   5.016  12.000  0.3808  0.4763  0.5736
22319SOL    HW178936   3.088   5.069  12.075  1.4568  0.9664  0.6186
22319SOL    HW278937   3.181   4.957  12.034  0.7969  0.6236  0.0288
22320SOL     OW78938   0.918  13.477   6.165 -0.3950 -0.2122  0.4946
22320SOL    HW178939   0.945  13.427   6.242  1.2824 -0.7220 -0.3627
22320SOL    HW278940   0.987  13.542   6.154 -1.4669  0.9151  0.3564
22321SOL     OW78941   0.059  12.878   9.978 -0.1680 -0.0778  0.4409
22321SOL    HW178942   0.085  12.967  10.003 -0.5247  0.4500 -0.9735
22321SOL    HW278943  -0.023  12.863  10.024 -1.9096  1.6707 -1.8524
22322SOL     OW78944   4.324  11.158  12.922 -0.7939 -0.3397 -0.2500
22322SOL    HW178945   4.369  11.238  12.952 -1.1725 -0.9370  2.0652
22322SOL    HW278946   4.367  11.138  12.838  0.5268  1.2997 -0.0448
22323SOL     OW78947   8.674  13.079   8.172 -0.2553  0.0857 -0.2569
22323SOL    HW178948   8.746  13.129   8.133 -0.2114 -1.1124 -1.7939
22323SOL    HW278949   8.690  13.083   8.266  1.6136  0.1568 -0.5506
22324SOL     OW78950   3.066  13.853   3.097 -0.4847  0.0102 -0.0005
22324SOL    HW178951   3.045  13.776   3.150 -1.0687  0.9514  1.1961
22324SOL    HW278952   3.119  13.820   3.025 -1.7910 -1.6980 -0.2235
22325SOL     OW78953   2.418   6.790  10.384  0.0552 -0.8777 -0.1879
22325SOL    HW178954   2.367   6.725  10.432  0.4265 -0.2058  1.1708
22325SOL    HW278955   2.502   6.795  10.430  0.1903  0.2533 -0.5025
22326SOL     OW78956   7.306  13.404   9.674  0.2879  0.4106  0.0037
22326SOL    HW178957   7.260  13.475   9.629 -0.5273 -0.3265 -0.3457
22326SOL    HW278958   7.237  13.346   9.705  0.7500  1.2002  2.7912
22327SOL     OW78959   7.733   3.465   1.011  0.2020  0.1734  0.5481
22327SOL    HW178960   7.664   3.498   0.953  0.0937  1.4629  1.3750
22327SOL    HW278961   7.706   3.375   1.031 -0.8365  0.4021  0.2588
22328SOL     OW78962  13.804  12.791   7.442 -0.5697 -0.2192  0.1253
22328SOL    HW178963  13.775  12.702   7.463  1.2125 -1.1657 -1.0868
22328SOL    HW278964  13.827  12.829   7.526 -0.4095 -1.2934  0.5862
22329SOL     OW78965   3.853   1.867   2.265  0.2249  0.1192  0.0419
22329SOL    HW178966   3.897   1.840   2.346  2.2916 -0.2358 -1.1387
22329SOL    HW278967   3.894   1.951   2.242  1.4638 -0.9398 -1.8842
22330SOL     OW78968  10.448   9.380   7.106  0.1355  0.2758  0.0986
22330SOL    HW178969  10.530   9.374   7.057 -0.3209  1.1548 -0.7967
22330SOL    HW278970  10.384   9.332   7.052 -0.4081  1.3834 -0.2658
22331SOL     OW78971   1.166  10.777   1.525  0.8386 -0.3720  0.3203
22331SOL    HW178972   1.187  10.688   1.554  1.7693 -1.0518 -2.1903
22331SOL    HW278973   1.133  10.766   1.435 -1.5943  1.5994  0.8588
22332SOL     OW78974   1.441   1.787   9.161  0.1445 -0.2427 -0.0365
22332SOL    HW178975   1.371   1.844   9.193  0.4807 -0.2740  0.7590
22332SOL    HW278976   1.506   1.787   9.231  2.2175  1.9397 -1.7547
22333SOL     OW78977  11.633   8.998   2.967 -0.5779  0.1495  0.1936
22333SOL    HW178978  11.725   9.019   2.952 -0.2745 -0.1323  1.4973
22333SOL    HW278979  11.606   8.950   2.889 -0.5699  2.9586 -1.7055
22334SOL     OW78980   6.929   2.780  11.704  0.2938 -0.1791  0.1154
22334SOL    HW178981   6.872   2.839  11.655  0.4265 -0.5213 -0.4597
22334SOL    HW278982   7.008   2.831  11.720  0.2240 -0.0459  0.0301
22335SOL     OW78983   5.085   4.548  13.688  0.2124  0.2416 -0.1915
22335SOL    HW178984   5.167   4.507  13.716 -0.3481 -0.2150  0.8413
22335SOL    HW278985   5.017   4.504  13.739 -0.5278  1.7137  0.1782
22336SOL     OW78986  12.239   0.859  11.525  0.1756 -0.3761 -0.3413
22336SOL    HW178987  12.207   0.946  11.548  2.0334  0.5964 -1.1872
22336SOL    HW278988  12.183   0.799  11.574 -0.2388  1.3336  1.4086
22337SOL     OW78989  10.336  10.296   9.395 -0.1523 -0.0070 -0.1896
22337SOL    HW178990  10.292  10.228   9.446 -1.2208  0.8395  0.0613
22337SOL    HW278991  10.334  10.374   9.451  0.7682  0.3282 -0.5934
22338SOL     OW78992   9.457   3.521   3.043 -0.0621 -0.8343 -0.2667
22338SOL    HW178993   9.526   3.463   3.011 -0.2962 -0.8680 -0.7335
22338SOL    HW278994   9.395   3.526   2.970  1.3740  2.3398 -1.4615
22339SOL     OW78995   0.088  11.231   5.382 -0.1054 -0.1831 -0.5652
22339SOL    HW178996   0.092  11.148   5.334  0.6280  0.4070 -1.5324
22339SOL    HW278997   0.000  11.264   5.364 -0.6990 -1.0872  0.4554
22340SOL     OW78998  13.055   8.842   2.145 -0.2802  0.0255  0.7539
22340SOL    HW178999  13.145   8.873   2.131 -0.3457  0.5722  1.4918
22340SOL    HW279000  13.066   8.754   2.180 -0.0697 -0.4493 -0.4607
22341SOL     OW79001  12.868   4.779  12.038 -0.3364 -0.0490 -0.4174
22341SOL    HW179002  12.789   4.745  11.995  0.2814 -1.9078 -0.1834
22341SOL    HW279003  12.926   4.803  11.966  0.0884 -1.6826 -0.6614
22342SOL     OW79004  11.293   2.670   7.956 -0.0261 -0.6555  0.2055
22342SOL    HW179005  11.198   2.666   7.941  0.0068 -2.0380  0.2659
22342SOL    HW279006  11.331   2.619   7.884  0.6133 -0.8188  0.6504
22343SOL     OW79007   6.405  13.219   4.416 -0.0225  0.4146  0.2406
22343SOL    HW179008   6.327  13.272   4.398 -0.8684 -0.8392  0.1611
22343SOL    HW279009   6.442  13.200   4.330 -0.8764 -0.8113  0.1181
22344SOL     OW79010   5.629  13.660   7.989 -0.1026  0.2428 -0.6062
22344SOL    HW179011   5.675  13.686   7.910  2.7444 -1.9551  0.1870
22344SOL    HW279012   5.681  13.696   8.061 -0.0626 -1.5299  0.3158
22345SOL     OW79013   0.513   6.525  10.733  0.2428  0.5803  0.0740
22345SOL    HW179014   0.503   6.433  10.709  2.3128  0.7223 -1.6225
22345SOL    HW279015   0.597   6.551  10.695  0.7888  2.5964  2.4023
22346SOL     OW79016   5.909  10.429   7.384  0.0009 -0.5688  0.5420
22346SOL    HW179017   5.863  10.513   7.389  0.4482 -0.2012 -1.1297
22346SOL    HW279018   5.942  10.415   7.473 -0.3279  0.8840  0.9159
22347SOL     OW79019   6.446   4.103   8.315  0.5943  0.5219 -0.0074
22347SOL    HW179020   6.522   4.128   8.367  1.6609 -0.5046 -1.0131
22347SOL    HW279021   6.418   4.184   8.272  0.5687  1.0792  1.0345
22348SOL     OW79022  13.909   8.677   0.024 -0.4096 -0.1103 -0.3889
22348SOL    HW179023  13.991   8.706  -0.017 -1.5819  1.8801 -1.4559
22348SOL    HW279024  13.927   8.586   0.049  2.1356  0.2719 -0.5162
22349SOL     OW79025  10.106   5.386  12.119  0.1412  0.4364 -0.2565
22349SOL    HW179026  10.029   5.443  12.123 -0.7527 -0.7898  1.4774
22349SOL    HW279027  10.169   5.425  12.179 -1.3548 -1.4516  2.8238
22350SOL     OW79028  12.112  12.005   8.356 -0.5195  0.6426  0.6106
22350SOL    HW179029  12.111  12.058   8.436 -3.2393 -1.2915  2.0192
22350SOL    HW279030  12.115  11.914   8.388 -1.8888 -0.2011 -1.4500
22351SOL     OW79031   9.719   3.114  11.481 -0.3277  0.5299 -0.2351
22351SOL    HW179032   9.782   3.083  11.546 -1.4903  0.7070  1.0374
22351SOL    HW279033   9.648   3.152  11.533 -0.8621  1.5652 -1.6447
22352SOL     OW79034   1.918   4.448   3.837 -0.2405 -0.2488 -0.3949
22352SOL    HW179035   1.924   4.440   3.742  1.2740 -0.8042 -0.2758
22352SOL    HW279036   1.967   4.527   3.857  0.3831 -0.7276  0.0043
22353SOL     OW79037   3.671   2.399   0.627  0.4255 -0.0105 -0.0547
22353SOL    HW179038   3.642   2.308   0.622 -1.3753  0.4731  0.7364
22353SOL    HW279039   3.623   2.443   0.556 -2.0966  1.0828  2.1583
22354SOL     OW79040   0.425   0.372   3.258 -0.5747 -0.3058 -0.3737
22354SOL    HW179041   0.509   0.342   3.222  0.4646  1.6617  0.2613
22354SOL    HW279042   0.425   0.466   3.243 -1.3089  0.2094  2.3169
22355SOL     OW79043  11.105   5.116  13.626  0.2867  0.0469 -0.1559
22355SOL    HW179044  11.111   5.089  13.717 -0.4579 -0.1816 -0.1698
22355SOL    HW279045  11.196   5.126  13.598  0.5209 -0.0266  0.5645
22356SOL     OW79046  10.556  12.048   5.529  0.2547  0.2624  0.2171
22356SOL    HW179047  10.495  11.988   5.486 -0.8397  1.6846 -0.2931
22356SOL    HW279048  10.576  12.114   5.462  0.1823  1.3472  1.2444
22357SOL     OW79049   0.338   8.338   7.070  0.2810  0.4768  0.6231
22357SOL    HW179050   0.384   8.390   7.135 -0.5827  2.6006 -0.3832
22357SOL    HW279051   0.388   8.350   6.989 -0.3948  0.4413  0.1894
22358SOL     OW79052   1.375   2.150   1.353  0.5397  0.1637 -0.9361
22358SOL    HW179053   1.348   2.190   1.270 -2.1951  2.0015  0.6744
22358SOL    HW279054   1.294   2.116   1.391  1.2983  1.2661  1.9027
22359SOL     OW79055   9.642  11.716  10.344  0.0085 -0.2643  0.2691
22359SOL    HW179056   9.678  11.714  10.255 -0.3029 -1.1684  0.1505
22359SOL    HW279057   9.612  11.626  10.359 -4.3003  0.8162 -0.5137
22360SOL     OW79058   1.120   8.154  10.253 -0.0993  0.0242 -0.1272
22360SOL    HW179059   1.174   8.094  10.304  1.0109 -0.3421 -1.6449
22360SOL    HW279060   1.063   8.097  10.201  2.0593  0.0731 -2.7847
22361SOL     OW79061   0.987   8.648   4.365 -0.4847 -0.5853  0.1647
22361SOL    HW179062   1.029   8.573   4.322  0.1223  0.8840 -1.9712
22361SOL    HW279063   0.899   8.651   4.327 -0.4802 -0.1764  0.1793
22362SOL     OW79064  12.471   5.921   7.217  0.3620  0.3307  0.8297
22362SOL    HW179065  12.400   5.939   7.278  1.1328 -0.7379  2.0655
22362SOL    HW279066  12.545   5.896   7.271  1.9896  2.1723 -0.3654
22363SOL     OW79067   1.479  10.631   6.612 -0.0959 -0.6484 -0.7669
22363SOL    HW179068   1.414  10.654   6.546  0.5467 -1.2105 -1.6150
22363SOL    HW279069   1.435  10.567   6.668 -1.7896  2.1505  1.4125
22364SOL     OW79070   0.048   9.841   1.666  0.1171  0.3460  0.2020
22364SOL    HW179071   0.067   9.897   1.741 -0.9333  0.4181  0.4360
22364SOL    HW279072   0.096   9.880   1.593  0.0901  1.0420  0.5542
22365SOL     OW79073   1.988  10.975   6.259 -0.3501 -0.7886 -0.1008
22365SOL    HW179074   2.000  10.925   6.340  0.7466 -0.7202 -0.1973
22365SOL    HW279075   2.049  10.934   6.197  0.6663  0.7289 -0.1435
22366SOL     OW79076  12.108   9.304   6.338 -0.1585  0.3222  0.0169
22366SOL    HW179077  12.195   9.333   6.312 -0.1633  1.2615  0.9849
22366SOL    HW279078  12.050   9.375   6.311 -0.4689  0.2239  0.4198
22367SOL     OW79079  12.044   8.052   7.294  0.0387  0.1078  0.0136
22367SOL    HW179080  12.038   7.961   7.325 -0.7644  0.0108 -0.4173
22367SOL    HW279081  12.138   8.072   7.297  0.2944 -0.9515 -0.5164
22368SOL     OW79082   9.581   5.067  13.912 -0.2657 -0.3168  0.4917
22368SOL    HW179083   9.498   5.063  13.864 -0.4968  2.4180  0.4947
22368SOL    HW279084   9.648   5.047  13.847 -0.7946 -0.3126 -0.0631
22369SOL     OW79085  12.497   4.555  12.756 -0.2280 -0.3660 -0.2392
22369SOL    HW179086  12.464   4.644  12.750 -0.7509 -0.4897  0.6078
22369SOL    HW279087  12.563   4.559  12.826  0.2194 -0.5132 -0.6458
22370SOL     OW79088  10.811   1.725  12.451 -0.3602  0.5080 -0.0217
22370SOL    HW179089  10.807   1.673  12.532 -0.2128  1.5383  0.6710
22370SOL    HW279090  10.892   1.698  12.408  0.5581  1.2876  1.1413
22371SOL     OW79091   6.010  11.228   0.519  0.3494  0.1053 -0.6710
22371SOL    HW179092   6.080  11.279   0.561  0.2739  0.3592 -0.8468
22371SOL    HW279093   5.958  11.294   0.474 -0.7742  0.0820  0.5439
22372SOL     OW79094   0.420   8.960   7.338 -0.4495 -1.1739  0.1324
22372SOL    HW179095   0.507   8.987   7.307 -0.9643 -1.1944 -1.4346
22372SOL    HW279096   0.414   8.868   7.311 -1.0133 -1.1333  0.1224
22373SOL     OW79097  10.137   9.380   2.129 -0.2408 -0.2487  0.8061
22373SOL    HW179098  10.122   9.472   2.107  1.4298 -0.0039  0.5386
22373SOL    HW279099  10.122   9.333   2.047  0.7507  0.0321  0.4462
22374SOL     OW79100   9.184   5.406  13.149 -0.1660  0.5055 -0.0316
22374SOL    HW179101   9.128   5.358  13.211  0.4750  2.2304  2.0011
22374SOL    HW279102   9.156   5.497  13.157  2.3419  1.2993  0.4844
22375SOL     OW79103  13.586   7.621  12.983 -0.5123 -0.8815  0.1288
22375SOL    HW179104  13.652   7.677  13.023  0.5309 -0.3833 -2.1396
22375SOL    HW279105  13.503   7.651  13.021  0.2570  0.5950  0.7284
22376SOL     OW79106   4.418   2.468   7.765 -0.1727  0.0963 -0.1191
22376SOL    HW179107   4.479   2.525   7.812  0.7155 -0.7959 -0.1508
22376SOL    HW279108   4.429   2.491   7.673 -1.3849  1.3374  0.0065
22377SOL     OW79109   4.073  10.192   6.424  0.2918  0.2242  0.4124
22377SOL    HW179110   3.986  10.151   6.422  1.0781 -1.6207 -2.0189
22377SOL    HW279111   4.055  10.286   6.429 -1.7491 -0.1601  1.8619
22378SOL     OW79112   5.437  13.825  13.868 -0.0838 -0.1055  0.5475
22378SOL    HW179113   5.498  13.898  13.863 -0.1521 -0.0918 -0.2260
22378SOL    HW279114   5.491  13.749  13.891  0.3504 -0.2180 -0.7572
22379SOL     OW79115   8.208   7.064   6.754  0.2414 -0.2089  0.2533
22379SOL    HW179116   8.276   7.045   6.819 -0.4611 -0.6786  0.8659
22379SOL    HW279117   8.231   7.009   6.680  0.7061 -0.1330  0.3359
22380SOL     OW79118   4.222   5.823   5.888  0.4946 -0.4049  0.3386
22380SOL    HW179119   4.224   5.809   5.793  0.7444  1.3715  0.0483
22380SOL    HW279120   4.255   5.741   5.924  0.5209 -1.0750 -1.1110
22381SOL     OW79121   9.138   8.175   1.420  0.0047  0.2329  0.1087
22381SOL    HW179122   9.210   8.206   1.475  1.0330  0.3237 -1.2564
22381SOL    HW279123   9.100   8.103   1.470  1.9088 -0.7192  0.2785
22382SOL     OW79124   9.947   8.581  10.702  0.2953  0.2646  0.0709
22382SOL    HW179125   9.922   8.664  10.660 -0.0479  0.2182  0.1791
22382SOL    HW279126   9.867   8.552  10.747  0.2118 -0.4740 -0.5325
22383SOL     OW79127   5.286   7.086   5.261  0.6682 -0.3744 -0.0676
22383SOL    HW179128   5.361   7.034   5.289 -0.4940 -2.5381 -0.7517
22383SOL    HW279129   5.324   7.157   5.210  2.3470 -0.2376  1.2714
22384SOL     OW79130  10.475   4.407  11.046  0.0387  0.1286 -0.3820
22384SOL    HW179131  10.562   4.421  11.008  0.4263 -0.4157  0.2868
22384SOL    HW279132  10.444   4.496  11.066  0.0458  0.3874 -1.4569
22385SOL     OW79133   5.507   2.094  10.939 -0.5871 -0.0638  0.1746
22385SOL    HW179134   5.585   2.074  10.887 -1.6270 -0.5022 -1.2771
22385SOL    HW279135   5.525   2.054  11.025 -0.3546 -2.6815 -0.9897
22386SOL     OW79136   7.295  13.954   2.611 -0.4015 -0.6661  0.0656
22386SOL    HW179137   7.200  13.940   2.609 -0.5304  0.0431  0.5116
22386SOL    HW279138   7.321  13.928   2.700 -0.3781  0.2202  0.3338
22387SOL     OW79139  13.957   6.503  10.059  0.0323 -0.1936 -0.0065
22387SOL    HW179140  13.919   6.472   9.977  1.5157  1.3810 -1.3781
22387SOL    HW279141  13.896   6.571  10.088 -2.4562 -3.0940  2.2591
22388SOL     OW79142   2.855   3.591   5.069 -0.6218 -0.5331  0.3534
22388SOL    HW179143   2.840   3.498   5.052 -3.2671  0.0001 -0.7823
22388SOL    HW279144   2.785   3.635   5.021  1.7132  2.2060 -0.7801
22389SOL     OW79145   4.027   9.287   1.167 -0.1854  0.0607  0.2583
22389SOL    HW179146   3.998   9.196   1.161 -0.8836  0.2188  1.0427
22389SOL    HW279147   4.118   9.282   1.195 -0.3764 -0.3874  0.8094
22390SOL     OW79148   3.412   9.530   8.290 -0.4467 -0.0865 -0.2456
22390SOL    HW179149   3.489   9.576   8.323 -0.9350  0.7633 -0.2669
22390SOL    HW279150   3.447   9.473   8.221 -0.1466  2.3213 -2.2447
22391SOL     OW79151   2.961  13.610   0.861 -0.4318  0.3873 -0.2809
22391SOL    HW179152   2.923  13.575   0.942 -0.7795 -0.8034 -0.9388
22391SOL    HW279153   3.006  13.690   0.889  1.7573 -1.3478  1.6084
22392SOL     OW79154   7.668   9.723   3.455  0.3739 -0.2095  0.0613
22392SOL    HW179155   7.582   9.747   3.420  1.5601  1.6008 -1.8059
22392SOL    HW279156   7.653   9.638   3.498 -2.3468  0.1107 -0.0510
22393SOL     OW79157   1.864   9.156   1.710 -0.3384  0.6236  0.1970
22393SOL    HW179158   1.793   9.188   1.765  0.1773  1.4470  0.4099
22393SOL    HW279159   1.848   9.062   1.701 -1.1477  0.7099  0.6768
22394SOL     OW79160   8.905  11.207  10.711  0.0057  0.3819  0.3572
22394SOL    HW179161   8.839  11.139  10.722  1.3406 -0.7331  2.0429
22394SOL    HW279162   8.935  11.198  10.620 -2.6697  1.4927 -0.7299
22395SOL     OW79163  13.248   2.266  12.807  0.0096 -0.7395  0.3068
22395SOL    HW179164  13.298   2.184  12.807  1.0280 -0.1662  1.7406
22395SOL    HW279165  13.182   2.253  12.875  0.5520 -0.1786  0.9550
22396SOL     OW79166   1.915   2.013   0.746  0.2748  0.5843  0.1220
22396SOL    HW179167   1.949   2.039   0.660 -1.2273  0.5469 -0.5158
22396SOL    HW279168   1.928   1.918   0.748 -1.2244  0.3310 -0.8121
22397SOL     OW79169   1.728   1.946   4.439  0.0597  0.5509  0.0236
22397SOL    HW179170   1.690   2.008   4.377 -0.0656  0.4960  0.0425
22397SOL    HW279171   1.822   1.953   4.427  0.0031 -0.3453 -1.0442
22398SOL     OW79172   7.796   7.794   2.181 -0.3157 -0.1854  0.1082
22398SOL    HW179173   7.703   7.812   2.170 -0.0608  0.8139 -0.5080
22398SOL    HW279174   7.801   7.743   2.262 -1.4642 -0.9078 -0.2531
22399SOL     OW79175   4.104  11.491   0.201 -0.5780 -0.5491  0.0245
22399SOL    HW179176   4.060  11.435   0.136 -1.0011 -0.5993  0.3464
22399SOL    HW279177   4.159  11.431   0.251  0.2660 -0.4088 -0.7058
22400SOL     OW79178   6.545   4.800   5.392  0.4241  0.6663 -0.4825
22400SOL    HW179179   6.562   4.852   5.313 -0.6778 -0.3523 -1.4149
22400SOL    HW279180   6.553   4.863   5.463 -3.4927  2.8543 -1.7161
22401SOL     OW79181   4.691  10.534  12.856  0.1479 -0.1027  0.0833
22401SOL    HW179182   4.729  10.453  12.822  2.3430  0.7488  0.2950
22401SOL    HW279183   4.651  10.509  12.939  1.6457 -0.8360  0.6196
22402SOL     OW79184   5.603   4.934  11.997 -0.1729 -0.4073 -0.0282
22402SOL    HW179185   5.659   4.947  11.921  1.0302 -1.3901  0.6673
22402SOL    HW279186   5.599   4.839  12.008  0.1732 -0.2707  1.4840
22403SOL     OW79187   8.856   5.874  13.249 -0.0225 -0.0355  0.0704
22403SOL    HW179188   8.934   5.892  13.301  0.4122 -0.7097 -0.3390
22403SOL    HW279189   8.802   5.818  13.305 -0.1169  0.2540  0.2696
22404SOL     OW79190   2.670   7.515   5.860  0.1968 -0.0580  0.7316
22404SOL    HW179191   2.743   7.454   5.849 -0.6250 -0.6531 -2.1048
22404SOL    HW279192   2.712   7.596   5.889  1.9112 -0.5907 -0.0900
22405SOL     OW79193  11.271   6.292   4.172 -0.0704 -0.2588  0.2294
22405SOL    HW179194  11.179   6.292   4.145  0.0465 -2.9513 -0.3806
22405SOL    HW279195  11.272   6.349   4.250 -2.0720  0.4762 -0.2132
22406SOL     OW79196   4.983   6.494   1.167  0.1965  0.2645  0.4919
22406SOL    HW179197   4.973   6.422   1.229  0.5598  0.2291  0.5123
22406SOL    HW279198   4.961   6.572   1.217 -1.8606  0.0334  0.0231
22407SOL     OW79199   0.031   6.817  13.034 -0.1649 -0.8453  0.2830
22407SOL    HW179200  -0.062   6.828  13.014 -0.1296  1.2584  1.1012
22407SOL    HW279201   0.034   6.809  13.129  0.5076 -0.9736  0.2558
22408SOL     OW79202   4.230   3.966   3.438 -0.1371  0.6877  0.0441
22408SOL    HW179203   4.289   3.921   3.498  2.7208  0.7430 -2.5145
22408SOL    HW279204   4.225   3.909   3.361 -2.6260  1.2221 -0.2749
22409SOL     OW79205   8.282   7.710   0.213  0.3916 -0.1095 -0.1383
22409SOL    HW179206   8.191   7.692   0.190  0.0972  1.8000 -0.6669
22409SOL    HW279207   8.329   7.630   0.189 -0.8800 -0.4909 -1.5126
22410SOL     OW79208   2.143   5.901   3.833 -0.0153 -0.0607 -0.3119
22410SOL    HW179209   2.186   5.865   3.911  0.2778  0.5547 -0.1786
22410SOL    HW279210   2.051   5.908   3.857  0.0195 -0.1993 -0.1395
22411SOL     OW79211   3.090  13.432   1.386  0.8775 -0.3831  0.1071
22411SOL    HW179212   3.185  13.426   1.383  0.8568 -0.2932 -1.1216
22411SOL    HW279213   3.072  13.512   1.436  1.4604 -0.0213 -0.2563
22412SOL     OW79214   5.681  11.308  11.565 -0.5208 -0.4364  0.0660
22412SOL    HW179215   5.601  11.265  11.594  0.5573 -4.0211 -1.6135
22412SOL    HW279216   5.722  11.244  11.507  1.7429  2.7136 -2.1361
22413SOL     OW79217   1.450  11.334  11.522  0.1725  0.4355  0.2063
22413SOL    HW179218   1.459  11.375  11.436  2.4711  1.2107  0.7320
22413SOL    HW279219   1.502  11.254  11.516  1.9825  1.4441  1.3625
22414SOL     OW79220   6.555   1.316   6.333  0.0529  0.1695 -0.1285
22414SOL    HW179221   6.495   1.261   6.282 -0.1118 -0.1856  0.4324
22414SOL    HW279222   6.640   1.302   6.293 -0.0691 -0.1261 -0.2896
22415SOL     OW79223  11.722   8.098   2.719  0.0667  0.1335 -0.4050
22415SOL    HW179224  11.687   8.010   2.737  1.1414 -0.5330 -1.4070
22415SOL    HW279225  11.791   8.083   2.654  0.4573  1.7011 -0.3846
22416SOL     OW79226  11.181   5.006   0.390 -0.3088 -0.2976 -0.1495
22416SOL    HW179227  11.262   4.986   0.344 -2.1686 -0.1364 -3.8878
22416SOL    HW279228  11.128   4.926   0.380 -1.6889  0.6308 -0.5646
22417SOL     OW79229   6.127   9.157  11.980 -0.1802 -0.2600 -0.2413
22417SOL    HW179230   6.213   9.125  12.006 -0.5608  0.3240  1.9555
22417SOL    HW279231   6.090   9.086  11.927  0.7144 -1.5558  0.8036
22418SOL     OW79232   9.184   1.445   6.138  0.3112  0.0396 -0.2814
22418SOL    HW179233   9.197   1.506   6.211 -0.5413 -1.1467  0.8989
22418SOL    HW279234   9.239   1.480   6.068  1.5046  0.9686  1.0615
22419SOL     OW79235  10.790   1.628   3.785 -0.0662 -0.1621 -0.0550
22419SOL    HW179236  10.858   1.598   3.725 -0.5564 -2.2479  0.3546
22419SOL    HW279237  10.800   1.573   3.863 -1.3932  0.3719  0.5352
22420SOL     OW79238   7.456   5.368  10.706 -0.1741  0.5682 -0.5971
22420SOL    HW179239   7.520   5.363  10.636 -0.3591  1.0128 -0.8020
22420SOL    HW279240   7.507   5.364  10.787 -0.0504 -1.2697 -0.7294
22421SOL     OW79241   5.665   3.176   8.244 -0.6573 -0.2212  0.1686
22421SOL    HW179242   5.604   3.245   8.216  1.0914  1.5162  0.3754
22421SOL    HW279243   5.619   3.132   8.315 -0.8816  2.4937  1.8678
22422SOL     OW79244   0.531  13.141   1.613 -0.0793  0.2652 -0.5219
22422SOL    HW179245   0.487  13.165   1.694  0.7815 -0.1597  0.0875
22422SOL    HW279246   0.617  13.182   1.620  0.7183 -1.3646 -0.3261
22423SOL     OW79247   3.766  10.825   8.394 -0.0521  0.4218 -0.1112
22423SOL    HW179248   3.740  10.853   8.306  0.0475 -0.3863 -0.4080
22423SOL    HW279249   3.857  10.854   8.402 -0.2700  1.0849 -0.0163
22424SOL     OW79250   3.469  12.420   9.876 -0.7126  0.3016  0.1980
22424SOL    HW179251   3.547  12.431   9.931 -1.6500  1.2633  1.3860
22424SOL    HW279252   3.501  12.373   9.799  0.8655 -0.0997  1.0497
22425SOL     OW79253  10.028   6.134  13.243 -0.5201 -0.3101 -0.0031
22425SOL    HW179254   9.936   6.157  13.231 -1.4382 -3.2911  0.6606
22425SOL    HW279255  10.052   6.088  13.163 -0.6264 -2.3398  1.0648
22426SOL     OW79256   0.715  13.375  12.668  0.5206  0.2878 -0.9473
22426SOL    HW179257   0.687  13.372  12.760  1.5067 -1.1853 -0.6555
22426SOL    HW279258   0.686  13.461  12.637 -0.5889  0.4806  0.4911
22427SOL     OW79259   0.342  12.756  11.015  0.4658  0.0929 -0.1028
22427SOL    HW179260   0.438  12.761  11.021  0.4102 -0.7802  2.8526
22427SOL    HW279261   0.319  12.674  11.057 -1.6156  0.1026 -1.0845
22428SOL     OW79262   5.874   4.164   7.298  0.7869 -0.7259 -0.2642
22428SOL    HW179263   5.901   4.112   7.374 -0.8384 -2.3595 -0.7497
22428SOL    HW279264   5.783   4.139   7.282  0.3440  1.3093 -1.3628
22429SOL     OW79265   5.880   8.616   8.791 -0.2942  0.3332 -0.2640
22429SOL    HW179266   5.974   8.604   8.773  0.1391 -2.1036  2.6738
22429SOL    HW279267   5.836   8.583   8.713  1.3541 -1.8766 -0.3642
22430SOL     OW79268   8.280  12.107   2.349  0.5917  0.1538  0.0602
22430SOL    HW179269   8.203  12.156   2.378  1.1388 -0.6522  3.2949
22430SOL    HW279270   8.349  12.173   2.343  0.3937  0.3995  0.4043
22431SOL     OW79271   7.743  12.794  10.717  0.6371 -0.3803 -0.9708
22431SOL    HW179272   7.693  12.810  10.797  0.6947 -2.0232 -0.5744
22431SOL    HW279273   7.682  12.814  10.646  0.7541  1.6109 -0.5539
22432SOL     OW79274  13.064   2.136   4.688  0.1095 -0.5480  0.5135
22432SOL    HW179275  13.075   2.072   4.758  0.3661 -1.5609 -0.4321
22432SOL    HW279276  13.069   2.085   4.608 -0.6266  0.5346 -0.2402
22433SOL     OW79277   8.837   3.618  13.283 -0.2351 -0.4820  0.3138
22433SOL    HW179278   8.895   3.561  13.232  0.1369  0.8009 -0.7489
22433SOL    HW279279   8.765   3.638  13.224 -0.8100 -0.5396  0.9836
22434SOL     OW79280   1.555   4.900   4.126 -0.1942 -0.1058  1.1126
22434SOL    HW179281   1.630   4.861   4.170 -0.7454 -0.5101  1.7083
22434SOL    HW279282   1.489   4.831   4.125 -0.6633  0.3419  0.8507
22435SOL     OW79283   6.825   8.736   6.954  0.1015 -0.3832 -0.0767
22435SOL    HW179284   6.732   8.736   6.974 -0.3341  1.7178 -1.7759
22435SOL    HW279285   6.830   8.737   6.858  1.8719 -0.5051 -0.0342
22436SOL     OW79286  12.268   4.100   4.510  0.2503 -0.3590 -0.3974
22436SOL    HW179287  12.219   4.032   4.465  0.8700 -1.5703  0.7012
22436SOL    HW279288  12.310   4.150   4.439 -1.2492 -0.2785 -1.2643
22437SOL     OW79289   6.882  12.621   2.631  0.0056 -0.3484 -0.0388
22437SOL    HW179290   6.815  12.657   2.572 -0.0768 -2.5639 -1.4177
22437SOL    HW279291   6.954  12.596   2.574 -0.2703 -3.0321  0.6300
22438SOL     OW79292  12.950   9.069   1.999  0.2527  0.0517  0.0816
22438SOL    HW179293  12.964   8.999   2.063 -1.9755  0.0670  0.6722
22438SOL    HW279294  12.965   9.149   2.048 -0.1711  0.0366  0.2398
22439SOL     OW79295   0.666   5.697   8.644 -0.2065 -0.4530  0.1000
22439SOL    HW179296   0.661   5.717   8.550  2.0979  3.2949  0.5525
22439SOL    HW279297   0.588   5.737   8.682 -0.9843 -1.7133 -0.0901
22440SOL     OW79298  11.231   1.300   9.727 -0.0212  0.0568 -0.3858
22440SOL    HW179299  11.272   1.250   9.798 -0.7484  0.7027  0.5182
22440SOL    HW279300  11.192   1.234   9.670  2.0703 -0.5573 -1.1639
22441SOL     OW79301   6.108  13.534   1.371 -0.5630  0.0078 -0.4599
22441SOL    HW179302   6.125  13.443   1.397 -0.4897 -0.0559 -0.7287
22441SOL    HW279303   6.180  13.584   1.409 -0.3750 -0.1063 -0.6605
22442SOL     OW79304   5.346   1.521   4.129  0.2084  0.1556 -0.1162
22442SOL    HW179305   5.354   1.613   4.102 -2.3634 -0.0192 -1.8969
22442SOL    HW279306   5.335   1.473   4.047 -2.3066 -1.2102  0.9053
22443SOL     OW79307   3.141   3.476  12.810  0.5142 -0.2071  0.3720
22443SOL    HW179308   3.167   3.566  12.790 -0.1163 -0.0911  0.0394
22443SOL    HW279309   3.122   3.477  12.904  0.6031 -0.0184  0.3887
22444SOL     OW79310  13.719   6.390   6.801 -0.0682 -0.2749  0.5766
22444SOL    HW179311  13.738   6.363   6.712 -0.5555 -0.5803  0.5602
22444SOL    HW279312  13.770   6.470   6.813 -0.6734  0.2592 -0.2734
22445SOL     OW79313   5.183   7.322   5.414 -0.1242 -0.0105  0.3276
22445SOL    HW179314   5.161   7.392   5.353 -0.0545  0.6169  1.0096
22445SOL    HW279315   5.209   7.248   5.358 -0.2486  0.4870 -0.3948
22446SOL     OW79316   2.754   1.846  11.790  0.3270 -0.3352  0.0847
22446SOL    HW179317   2.837   1.873  11.750 -1.1751  0.9368 -2.3991
22446SOL    HW279318   2.780   1.809  11.875  3.4243 -0.1682 -0.6538
22447SOL     OW79319   6.205   0.690  13.943 -0.4539 -0.2813  0.4976
22447SOL    HW179320   6.235   0.765  13.994 -0.1137 -0.7395  0.9789
22447SOL    HW279321   6.285   0.647  13.914 -0.6361 -0.9596  0.9765
22448SOL     OW79322   4.711   2.521   3.315  0.0366 -0.1197 -0.6393
22448SOL    HW179323   4.636   2.536   3.374  0.3711  1.4444 -0.5547
22448SOL    HW279324   4.671   2.517   3.228 -0.3854 -1.7329 -0.3933
22449SOL     OW79325   5.507   0.891  10.162  0.0487  0.0796 -0.1060
22449SOL    HW179326   5.479   0.909  10.252 -2.2263 -2.1666 -0.2375
22449SOL    HW279327   5.428   0.908  10.110  1.3042  1.2380 -1.7105
22450SOL     OW79328   4.363   6.731  10.810  0.5378  0.0253 -0.2459
22450SOL    HW179329   4.300   6.680  10.758 -0.8644  1.0714  0.3628
22450SOL    HW279330   4.375   6.680  10.890  1.1190 -0.5835 -0.7112
22451SOL     OW79331   5.810  13.789   4.833 -0.3715 -1.0976  0.7595
22451SOL    HW179332   5.831  13.714   4.779  0.6289 -0.0428 -0.3883
22451SOL    HW279333   5.724  13.818   4.803  0.0367 -0.7131 -0.0686
22452SOL     OW79334   5.276  10.351   6.637 -0.2860 -0.1878  0.3904
22452SOL    HW179335   5.190  10.329   6.673 -0.8717  2.8623  1.0999
22452SOL    HW279336   5.331  10.367   6.714  0.2615  0.1452 -0.0616
22453SOL     OW79337  10.992   1.634   8.344 -0.5036  0.1276  0.2412
22453SOL    HW179338  10.940   1.675   8.413 -2.2724 -0.7565 -0.4964
22453SOL    HW279339  11.005   1.702   8.279 -0.5929  0.4117  0.5198
22454SOL     OW79340   1.788  12.862  10.683  0.6450 -0.3004  0.1826
22454SOL    HW179341   1.738  12.786  10.653  1.2051 -0.5299 -0.1871
22454SOL    HW279342   1.799  12.849  10.777 -0.1821 -0.1327  0.3077
22455SOL     OW79343   8.608  14.004   0.520  0.1350 -0.0842 -0.4087
22455SOL    HW179344   8.560  14.044   0.448  0.6710  2.4713  0.5579
22455SOL    HW279345   8.548  14.011   0.595  0.8786  0.4934  0.1473
22456SOL     OW79346   2.491  12.906   1.498  0.2518 -0.3052  0.1615
22456SOL    HW179347   2.439  12.950   1.564 -0.5078  1.3807 -1.4693
22456SOL    HW279348   2.555  12.971   1.470 -0.7415 -0.2138 -2.1388
22457SOL     OW79349   4.461  12.617   9.834  0.0436  0.7561 -0.4898
22457SOL    HW179350   4.366  12.611   9.833  0.0892 -0.6748  0.5741
22457SOL    HW279351   4.490  12.573   9.754 -0.1740  0.5408 -0.4494
22458SOL     OW79352  11.891   8.855   2.915 -0.5320  0.4215  0.4462
22458SOL    HW179353  11.845   8.770   2.917  0.9849 -0.4368  0.3388
22458SOL    HW279354  11.897   8.881   3.006  1.8678 -1.2556  0.8636
22459SOL     OW79355   8.336   2.713   0.493 -0.3872 -0.1295 -0.1647
22459SOL    HW179356   8.358   2.752   0.409 -2.4521 -0.3712 -0.8796
22459SOL    HW279357   8.335   2.618   0.477 -1.8811 -0.1364 -0.2122
22460SOL     OW79358  13.804  11.539  10.463 -0.2720  0.0731  0.5543
22460SOL    HW179359  13.810  11.507  10.373  0.7596 -0.6183  0.8484
22460SOL    HW279360  13.893  11.529  10.498 -0.3915  1.3786  1.3073
22461SOL     OW79361   9.107   2.210  10.692  0.3370 -0.1886 -0.6764
22461SOL    HW179362   9.138   2.134  10.739  0.7324  1.4296  1.8477
22461SOL    HW279363   9.031   2.179  10.643  0.6158 -2.2203  0.1081
22462SOL     OW79364  11.731   4.467   1.487 -0.3115 -0.0288  0.5771
22462SOL    HW179365  11.660   4.439   1.545 -0.2518 -0.3083  0.5190
22462SOL    HW279366  11.792   4.513   1.545  0.4709 -1.5698  1.0404
22463SOL     OW79367   2.413   4.576  13.567  0.0461  0.4276 -0.6543
22463SOL    HW179368   2.406   4.522  13.489  2.3192 -1.9387  0.6118
22463SOL    HW279369   2.450   4.659  13.536  1.1570 -0.5575 -2.0821
22464SOL     OW79370   2.174  13.226   5.591  0.2919 -0.0186 -0.2256
22464SOL    HW179371   2.141  13.136   5.594 -0.4914  0.2855  0.7377
22464SOL    HW279372   2.137  13.268   5.668  0.5591  1.1669 -0.7165
22465SOL     OW79373   3.792   1.913   6.896 -0.1348  0.8551  0.4243
22465SOL    HW179374   3.718   1.885   6.842  0.4763  0.0709 -0.0300
22465SOL    HW279375   3.767   2.000   6.927 -1.6785  0.2017  1.1162
22466SOL     OW79376   4.781  12.530  11.225 -0.5593 -0.0839 -0.0926
22466SOL    HW179377   4.842  12.603  11.210 -0.1236 -0.6771 -1.3443
22466SOL    HW279378   4.837  12.452  11.228 -1.1855 -0.5731 -0.6721
22467SOL     OW79379  13.956   3.139  10.944 -0.7929  0.5387 -0.0490
22467SOL    HW179380  14.048   3.139  10.972 -0.4758  1.7273 -0.9990
22467SOL    HW279381  13.940   3.229  10.915 -2.2614  0.3426  0.0821
22468SOL     OW79382   2.654   8.389   8.601 -0.1327 -0.5028  0.0497
22468SOL    HW179383   2.654   8.293   8.601  1.2133 -0.5399 -0.7930
22468SOL    HW279384   2.747   8.412   8.598 -0.4591  0.7854 -2.3264
22469SOL     OW79385   2.345   0.179   4.672  0.0134 -0.4695  0.0745
22469SOL    HW179386   2.314   0.151   4.587 -1.2402 -0.7915  0.6139
22469SOL    HW279387   2.300   0.262   4.689  1.2603  0.2792 -0.1291
22470SOL     OW79388  11.042   1.291   5.175 -0.3791  0.5288  0.2883
22470SOL    HW179389  11.116   1.302   5.235 -0.7611 -1.6384  1.2668
22470SOL    HW279390  10.982   1.362   5.197 -0.5162 -0.2189  2.5672
22471SOL     OW79391  13.215   9.338  12.535  0.3272  0.1286 -0.4531
22471SOL    HW179392  13.163   9.258  12.526  1.0746 -0.3760 -0.4559
22471SOL    HW279393  13.213   9.378  12.448 -0.3508  0.3101 -0.3579
22472SOL     OW79394   5.987   6.228  12.513  0.6311  0.2805  0.0406
22472SOL    HW179395   5.921   6.294  12.531  2.0405  1.3298  1.8384
22472SOL    HW279396   6.031   6.258  12.434 -0.7044 -0.1969 -0.9139
22473SOL     OW79397   1.418  11.774   5.029 -0.1040  0.7112  0.5420
22473SOL    HW179398   1.448  11.703   5.086 -0.1619  0.1280 -0.1372
22473SOL    HW279399   1.499  11.819   5.004  0.2256 -0.6375 -0.9931
22474SOL     OW79400   4.454   3.212   2.204  0.0726 -0.2596  0.0615
22474SOL    HW179401   4.461   3.246   2.115  0.5893 -1.1257 -0.2496
22474SOL    HW279402   4.479   3.120   2.196 -0.9892 -0.6361  0.9131
22475SOL     OW79403  12.503   0.516  13.311 -0.2679  0.0768  0.1135
22475SOL    HW179404  12.544   0.569  13.242 -0.6726 -0.3881 -0.4976
22475SOL    HW279405  12.549   0.540  13.391 -1.2280  2.2422  0.0835
22476SOL     OW79406   0.543   9.600   6.044  0.0438  0.0627 -0.0318
22476SOL    HW179407   0.487   9.617   5.968  0.3456 -0.2693 -0.3276
22476SOL    HW279408   0.630   9.629   6.017  0.2333 -0.4267  0.0444
22477SOL     OW79409   0.581   7.179  10.419  0.1257 -0.2714  0.1930
22477SOL    HW179410   0.529   7.099  10.425 -0.1013 -0.1661 -0.3117
22477SOL    HW279411   0.553   7.220  10.338 -0.8922  1.0997  1.1788
22478SOL     OW79412   4.919   0.308  13.009 -0.3403 -0.5548 -0.1394
22478SOL    HW179413   4.967   0.228  12.988 -0.2372 -0.7451  0.7698
22478SOL    HW279414   4.953   0.334  13.094  1.9184  2.2260 -1.7389
22479SOL     OW79415  12.795   6.439  11.508  0.2137 -1.2225 -0.1581
22479SOL    HW179416  12.790   6.443  11.604  1.3240  0.2475 -0.1148
22479SOL    HW279417  12.889   6.437  11.489  0.0007 -2.2592 -1.2174
22480SOL     OW79418   1.193   9.070  10.977 -1.0731 -0.1204  0.5074
22480SOL    HW179419   1.141   9.028  11.046 -3.2999 -0.2926 -1.1522
22480SOL    HW279420   1.178   9.015  10.900  1.5434 -0.0791 -0.1129
22481SOL     OW79421   9.567   0.995  12.802  0.6525  0.0799 -0.2906
22481SOL    HW179422   9.495   0.949  12.758 -0.0318 -1.3795  2.1716
22481SOL    HW279423   9.634   0.928  12.815  0.7745  0.4150  0.9544
22482SOL     OW79424   9.053  13.598   1.625  0.0993  0.2882  0.0726
22482SOL    HW179425   8.961  13.571   1.618 -0.3123  1.2518  1.4563
22482SOL    HW279426   9.050  13.693   1.633  1.2802  0.3966 -0.5449
22483SOL     OW79427  10.195   1.075   8.531 -0.1098  0.0953 -0.6904
22483SOL    HW179428  10.101   1.056   8.536  0.0976 -0.8565 -0.0081
22483SOL    HW279429  10.213   1.081   8.437 -0.8072  0.0316 -0.8352
22484SOL     OW79430   7.482   5.317  10.190  0.5459  0.1688 -0.3393
22484SOL    HW179431   7.423   5.264  10.136  1.1006 -0.3387 -0.4581
22484SOL    HW279432   7.427   5.349  10.261 -0.2322  0.9534 -1.2585
22485SOL     OW79433  10.303   8.824   0.607 -0.4223 -0.8433 -0.3024
22485SOL    HW179434  10.265   8.832   0.519 -0.3590 -1.3925 -0.3850
22485SOL    HW279435  10.397   8.842   0.594 -0.9621  3.4562  0.3568
22486SOL     OW79436   9.837  11.264  13.106 -0.1078 -0.5952  0.2541
22486SOL    HW179437   9.860  11.229  13.192  1.1017  0.3392  0.3281
22486SOL    HW279438   9.861  11.194  13.045  1.0442 -0.4415  0.5073
22487SOL     OW79439   7.400   0.058  12.066  0.0338  0.4894  0.2544
22487SOL    HW179440   7.339   0.130  12.045  1.9764  1.8839 -0.9132
22487SOL    HW279441   7.405   0.058  12.161 -0.3793  1.5996  0.2922
22488SOL     OW79442   7.806   2.344   5.047 -0.1291  0.1341  0.4360
22488SOL    HW179443   7.724   2.383   5.079 -2.7896 -1.1281 -3.9181
22488SOL    HW279444   7.845   2.413   4.993 -0.5568 -0.5133 -0.7412
22489SOL     OW79445   3.993  13.414   7.724  0.2150  0.4279  0.4367
22489SOL    HW179446   4.020  13.382   7.638  0.8773  1.0787  0.3937
22489SOL    HW279447   4.062  13.385   7.783 -0.6755 -0.7844  0.9226
22490SOL     OW79448   1.299   6.532  12.046  0.5489 -0.5089 -0.4940
22490SOL    HW179449   1.237   6.547  12.118 -0.1049 -2.4050 -0.6176
22490SOL    HW279450   1.246   6.495  11.976  1.3026  0.7068 -1.7658
22491SOL     OW79451   3.974  11.392   8.388  0.1858 -0.3829 -0.1813
22491SOL    HW179452   3.990  11.418   8.297  1.7500 -1.1222 -0.1496
22491SOL    HW279453   3.933  11.469   8.427  1.7483  0.8904 -0.9128
22492SOL     OW79454   2.739  13.757   2.928  0.1938  0.4322  0.3065
22492SOL    HW179455   2.752  13.822   2.996  1.2156  0.4184  0.1507
22492SOL    HW279456   2.752  13.805   2.846 -2.0744  0.6932  0.0300
22493SOL     OW79457   6.477   4.823   4.687 -0.3445  0.9887 -0.1958
22493SOL    HW179458   6.394   4.779   4.707  0.2726  0.2376  0.7758
22493SOL    HW279459   6.539   4.751   4.673  0.3363  1.5473 -0.0945
22494SOL     OW79460   8.865   2.314   1.667  0.3364 -0.1659  0.1697
22494SOL    HW179461   8.780   2.271   1.656  0.8178 -1.5449  1.5035
22494SOL    HW279462   8.929   2.242   1.663  1.1559  0.3255  2.6489
22495SOL     OW79463   8.243  13.405  10.751  0.2267  0.1472 -0.0372
22495SOL    HW179464   8.204  13.426  10.666  1.1232  0.5708 -0.3481
22495SOL    HW279465   8.337  13.412  10.738  0.3669  0.9944  1.1813
22496SOL     OW79466   5.991  11.279  11.917 -0.1041 -0.4282  0.1553
22496SOL    HW179467   5.948  11.212  11.970 -1.2091 -0.3526 -0.6159
22496SOL    HW279468   6.064  11.310  11.972 -1.4004 -0.1064  1.7919
22497SOL     OW79469   3.935   2.959  10.076 -0.3374  0.6356  0.1199
22497SOL    HW179470   3.990   3.033  10.102  0.3537 -0.3701  1.7018
22497SOL    HW279471   3.980   2.919  10.002 -0.1438  1.1548 -0.0454
22498SOL     OW79472   3.404  10.687   0.872 -0.5093  0.7761  0.2560
22498SOL    HW179473   3.409  10.592   0.859 -2.3956  0.7173 -0.4677
22498SOL    HW279474   3.475  10.722   0.819  1.1596 -0.2594  1.6801
22499SOL     OW79475   7.670   1.401   3.657 -0.4720  0.2526  0.4315
22499SOL    HW179476   7.591   1.365   3.618 -0.1883 -0.0898  0.1652
22499SOL    HW279477   7.740   1.340   3.630 -0.0080  0.9234  0.0892
22500SOL     OW79478   0.527  14.024   9.029  0.0870 -0.5075 -0.4665
22500SOL    HW179479   0.514  14.100   8.972  3.0169 -0.3165 -1.0863
22500SOL    HW279480   0.585  13.967   8.978  1.9347 -0.8459  1.8379
22501SOL     OW79481  10.361   7.883   9.403 -0.7138  0.8530 -0.1887
22501SOL    HW179482  10.360   7.975   9.431 -1.4208  1.0677 -0.8790
22501SOL    HW279483  10.391   7.885   9.313 -0.4692  0.3734 -0.1225
22502SOL     OW79484  11.410  13.591   1.426  0.1705  0.2834  0.6249
22502SOL    HW179485  11.416  13.496   1.442  0.1960 -0.2402 -2.0218
22502SOL    HW279486  11.490  13.627   1.464  1.3506 -1.1339 -0.3885
22503SOL     OW79487   3.605  13.880  10.698 -0.2053  0.6556 -0.4350
22503SOL    HW179488   3.521  13.835  10.711  0.4641 -0.9732 -1.3970
22503SOL    HW279489   3.652  13.868  10.780  0.4809 -1.7088 -1.0709
22504SOL     OW79490  13.394   3.051   8.522  0.0974  0.2763 -0.8247
22504SOL    HW179491  13.306   3.040   8.559  0.4098 -3.1018 -0.7855
22504SOL    HW279492  13.411   3.145   8.529 -2.9618  0.8750  0.3646
22505SOL     OW79493   2.842   2.664   3.356 -0.2162 -0.3588  0.6008
22505SOL    HW179494   2.753   2.699   3.365 -1.5215 -3.0850 -0.5435
22505SOL    HW279495   2.833   2.590   3.295  2.8488 -0.7641  0.4772
22506SOL     OW79496  10.327   9.845   7.275 -0.5733  0.1297  0.2619
22506SOL    HW179497  10.420   9.864   7.266 -0.6061  1.1041  1.5731
22506SOL    HW279498  10.313   9.765   7.225  0.8025  0.4083 -0.6092
22507SOL     OW79499  13.590   8.930   9.155 -0.6498 -0.4608  0.2011
22507SOL    HW179500  13.663   8.874   9.129 -0.0525  0.8733 -1.1177
22507SOL    HW279501  13.521   8.911   9.092 -0.1830  0.7747 -0.7205
22508SOL     OW79502   7.976   9.301   5.486  0.0400 -0.4017 -0.1435
22508SOL    HW179503   8.045   9.315   5.552 -1.1562 -0.9174  1.2885
22508SOL    HW279504   7.978   9.206   5.469 -0.5095 -0.4700  0.1514
22509SOL     OW79505  11.781   0.852   3.959  0.2297  0.2260  0.1029
22509SOL    HW179506  11.698   0.898   3.953 -0.0126 -0.3925 -2.8603
22509SOL    HW279507  11.830   0.880   3.882  1.9647 -0.9510  0.6984
22510SOL     OW79508  11.935  10.281   5.334  0.0567 -0.5558 -0.0386
22510SOL    HW179509  11.932  10.375   5.319  3.8080 -0.3311 -0.4674
22510SOL    HW279510  11.860  10.246   5.288 -1.1519  2.1636 -0.3091
22511SOL     OW79511  13.941   9.004  10.945 -0.6387 -0.2673  0.0464
22511SOL    HW179512  13.944   9.047  11.030 -1.1062 -0.7833  0.3323
22511SOL    HW279513  13.848   8.982  10.933 -1.4774  3.4795 -2.4561
22512SOL     OW79514   0.334   9.217   5.705 -0.6247  0.2348 -0.6744
22512SOL    HW179515   0.280   9.296   5.694  0.5317  0.7951 -3.1005
22512SOL    HW279516   0.375   9.228   5.791 -2.1454  1.1882 -0.0192
22513SOL     OW79517  11.790   6.694   6.869  0.0147  0.4725  0.0024
22513SOL    HW179518  11.831   6.620   6.825  0.5109 -0.0344  1.2755
22513SOL    HW279519  11.855   6.722   6.934 -1.6237 -0.3922  2.1339
22514SOL     OW79520  11.315   5.842   4.050 -0.1151  0.8267 -0.2049
22514SOL    HW179521  11.280   5.870   3.965 -0.3620 -0.7434 -0.6403
22514SOL    HW279522  11.382   5.778   4.029  0.7557  1.3843  0.7575
22515SOL     OW79523   0.334   3.545   5.449 -0.8402 -0.0736  0.1506
22515SOL    HW179524   0.428   3.536   5.433 -0.9537 -1.2504  0.0213
22515SOL    HW279525   0.327   3.619   5.509  0.1003  0.5081 -0.4363
22516SOL     OW79526   5.134  10.132  12.801 -0.0811  0.2787 -0.1672
22516SOL    HW179527   5.212  10.173  12.763 -0.4145  0.5017 -0.6170
22516SOL    HW279528   5.062  10.188  12.775 -0.4113  0.0168  0.1657
22517SOL     OW79529   2.476   0.993   7.538 -0.0488  0.2674  0.3050
22517SOL    HW179530   2.395   0.978   7.489 -0.8774 -1.7429  2.1113
22517SOL    HW279531   2.544   0.999   7.471 -1.6798  2.5313 -1.3123
22518SOL     OW79532   6.951   7.533   6.546 -0.5000  0.0641  0.5778
22518SOL    HW179533   6.909   7.619   6.540  0.4904  0.4611 -2.4730
22518SOL    HW279534   6.884   7.472   6.515 -1.1323 -0.3324  2.5496
22519SOL     OW79535   3.184   2.521  13.678 -0.1498 -0.7298 -0.4680
22519SOL    HW179536   3.146   2.453  13.734 -1.3161 -0.4830 -0.9169
22519SOL    HW279537   3.231   2.473  13.610 -0.7135 -1.0947 -0.6106
22520SOL     OW79538   6.479  10.360   6.507  0.1498  0.4498  0.5242
22520SOL    HW179539   6.484  10.409   6.424  2.1706 -0.3721  0.0858
22520SOL    HW279540   6.479  10.427   6.575  0.0414  1.1107 -0.1188
22521SOL     OW79541   9.874  11.682   9.579 -0.3236 -0.5129  0.3937
22521SOL    HW179542   9.848  11.764   9.620 -0.6069 -0.8617  0.9284
22521SOL    HW279543   9.904  11.707   9.492 -1.7701  0.0007  0.0112
22522SOL     OW79544   4.631   2.654   6.723  0.7784 -0.3934  0.0334
22522SOL    HW179545   4.539   2.647   6.750  0.5707 -0.3252 -0.6419
22522SOL    HW279546   4.663   2.732   6.768  0.4013 -0.2097 -0.0096
22523SOL     OW79547  13.668   2.038  13.532  0.4400 -0.1469 -0.5383
22523SOL    HW179548  13.676   2.047  13.626 -0.1362  0.0361 -0.5044
22523SOL    HW279549  13.579   2.005  13.518  0.4383  0.0546 -1.0304
22524SOL     OW79550   6.573   0.807   2.905 -0.7684  0.8199  0.0038
22524SOL    HW179551   6.587   0.743   2.835 -1.8473  1.6582 -1.0339
22524SOL    HW279552   6.478   0.809   2.917 -0.6815  1.5064  0.7026
22525SOL     OW79553  12.706   8.181   9.246 -0.4490 -0.1710 -0.5493
22525SOL    HW179554  12.664   8.241   9.308  0.3284 -1.7241  1.6208
22525SOL    HW279555  12.642   8.110   9.235  0.3557 -1.0890  0.4418
22526SOL     OW79556   9.143  10.695  13.828  0.6471 -0.0632  0.3263
22526SOL    HW179557   9.208  10.655  13.886 -0.0575 -0.1487  1.0756
22526SOL    HW279558   9.190  10.713  13.747  1.0949 -1.9974  0.1251
22527SOL     OW79559  13.991   7.758   7.003  0.0186 -0.4395  0.2106
22527SOL    HW179560  13.914   7.812   6.989 -0.1451 -0.4647  1.0089
22527SOL    HW279561  14.063   7.810   6.966  0.0240  0.8025  1.8729
22528SOL     OW79562   9.695   8.803  11.078  0.0373  0.2312  0.0211
22528SOL    HW179563   9.781   8.767  11.096 -0.4673 -0.5975  0.8364
22528SOL    HW279564   9.633   8.735  11.106 -0.9590  1.8058  1.9203
22529SOL     OW79565  10.602  10.505   2.416  0.6707  0.2755 -0.7266
22529SOL    HW179566  10.696  10.523   2.420  0.9929 -1.3156 -0.6176
22529SOL    HW279567  10.583  10.458   2.497 -0.5431  1.8368 -0.0515
22530SOL     OW79568  13.571  10.307   1.942  0.5497  0.1690  0.6171
22530SOL    HW179569  13.656  10.351   1.941  1.6632 -1.8401  1.3119
22530SOL    HW279570  13.578  10.240   1.874 -0.4332 -0.1237  0.7895
22531SOL     OW79571   6.938   6.484   6.000 -0.4209  0.4439 -0.1946
22531SOL    HW179572   6.979   6.569   5.983 -0.2519  0.2618 -0.7044
22531SOL    HW279573   6.943   6.474   6.096 -1.1275  1.3478 -0.0501
22532SOL     OW79574   3.915   5.011   6.698  0.4549  1.0542  0.1015
22532SOL    HW179575   3.975   5.082   6.678  0.8199  0.6754 -0.1696
22532SOL    HW279576   3.885   4.981   6.612 -0.1874  1.2958  0.2373
22533SOL     OW79577  12.232   6.828   7.414  0.4010  0.1884  0.0263
22533SOL    HW179578  12.249   6.921   7.427 -3.3495  0.8642  1.1299
22533SOL    HW279579  12.183   6.801   7.492  0.0324 -2.3533 -0.9854
22534SOL     OW79580   7.246  12.402  11.015  0.0077 -0.2596  0.1922
22534SOL    HW179581   7.204  12.337  10.959 -0.8766  0.5954 -0.1619
22534SOL    HW279582   7.310  12.444  10.958 -0.4004  0.1304  0.0183
22535SOL     OW79583   2.314   7.431   9.609  0.3364 -0.2224  0.0428
22535SOL    HW179584   2.358   7.347   9.595  1.4045  0.3219  0.0499
22535SOL    HW279585   2.311   7.441   9.704 -2.0079 -1.3652  0.1672
22536SOL     OW79586   9.384   0.502   0.396  0.3191 -0.3823 -0.5577
22536SOL    HW179587   9.330   0.475   0.322  2.3139 -2.4299 -1.3761
22536SOL    HW279588   9.345   0.457   0.471 -0.6508  0.2847 -0.6422
22537SOL     OW79589   7.826   9.494  13.737  0.3353  0.0253  0.1978
22537SOL    HW179590   7.854   9.508  13.646  0.9267  1.1613  0.5322
22537SOL    HW279591   7.904   9.458  13.780 -0.3821 -1.9259 -0.0471
22538SOL     OW79592  11.812   1.984  12.272  0.6950  0.3451 -0.3209
22538SOL    HW179593  11.860   2.061  12.300 -0.0341  0.9723 -0.7407
22538SOL    HW279594  11.755   2.015  12.201  0.2246 -0.5235 -0.3490
22539SOL     OW79595   4.889   6.988   9.903 -0.3932 -0.2642  0.0695
22539SOL    HW179596   4.960   7.025   9.955 -0.3859  1.6565 -1.2237
22539SOL    HW279597   4.826   6.957   9.967  0.1701  0.9081  1.2295
22540SOL     OW79598   0.616   9.112   4.784  0.3772 -0.1436 -0.2932
22540SOL    HW179599   0.525   9.142   4.784  0.5644  0.4732 -1.5164
22540SOL    HW279600   0.617   9.039   4.846 -0.9152 -0.0436 -0.1315
22541SOL     OW79601   5.664   1.482  10.315 -0.0361 -0.4654 -0.3633
22541SOL    HW179602   5.650   1.522  10.229  0.5167  1.6910  0.4788
22541SOL    HW279603   5.726   1.411  10.299 -2.3134 -2.1999 -2.1821
22542SOL     OW79604   6.748   7.404  11.274  0.4753  0.2843  0.2631
22542SOL    HW179605   6.817   7.354  11.231  0.7727  0.0144  1.0352
22542SOL    HW279606   6.789   7.489  11.293  0.3930  0.3519  0.1331
22543SOL     OW79607   3.326  10.266  12.546  0.4062  0.3627  0.0194
22543SOL    HW179608   3.363  10.295  12.463 -0.4146  0.0464 -0.4736
22543SOL    HW279609   3.264  10.198  12.522  0.9770 -0.5252  1.0048
22544SOL     OW79610   3.739  13.858  10.439 -0.3379  0.2703 -0.0235
22544SOL    HW179611   3.820  13.907  10.429 -0.3965  0.1991 -0.8853
22544SOL    HW279612   3.714  13.873  10.531  0.0857  1.1580 -0.0373
22545SOL     OW79613  12.469   9.865   9.760  0.2872  0.3654 -0.3391
22545SOL    HW179614  12.498   9.839   9.672  0.7726  3.6484 -1.2789
22545SOL    HW279615  12.547   9.901   9.802 -0.5763  1.6543  0.2301
22546SOL     OW79616   2.345   1.342   7.812  0.1180  0.4942 -0.2629
22546SOL    HW179617   2.422   1.395   7.789 -0.0043  0.8986  0.2363
22546SOL    HW279618   2.380   1.255   7.829  0.3385  0.4274 -0.9875
22547SOL     OW79619   0.472  11.359   7.494 -0.4685  0.0627 -0.0276
22547SOL    HW179620   0.462  11.297   7.566  0.1806  1.9151  1.7643
22547SOL    HW279621   0.558  11.341   7.457  0.0149  0.3459  0.9472
22548SOL     OW79622   6.780  12.071  10.074 -0.0759 -0.1245 -0.1826
22548SOL    HW179623   6.707  12.090  10.134  0.5677 -0.5473  0.7598
22548SOL    HW279624   6.795  12.154  10.028  0.5194  0.7391  1.4697
22549SOL     OW79625   5.072   4.655   2.128  0.0495 -0.3034 -0.2920
22549SOL    HW179626   4.996   4.701   2.094  0.0415 -1.0709 -1.3603
22549SOL    HW279627   5.039   4.606   2.203 -0.3166  0.0464 -0.2236
22550SOL     OW79628   0.392   4.624  12.482 -0.0589  0.1354  0.1129
22550SOL    HW179629   0.398   4.529  12.474  1.6193  0.1537  0.8543
22550SOL    HW279630   0.306   4.645  12.445 -0.3595 -1.6278 -0.2996
22551SOL     OW79631   9.636   3.437   9.293  0.1834  0.0680  0.2558
22551SOL    HW179632   9.575   3.468   9.360  1.4138  1.3806  0.8374
22551SOL    HW279633   9.593   3.457   9.210 -0.0299  1.3321  0.6476
22552SOL     OW79634   3.721   8.804  11.272 -0.2448 -0.1376  0.3524
22552SOL    HW179635   3.659   8.785  11.201 -0.5729  1.2813  0.2384
22552SOL    HW279636   3.667   8.834  11.344  0.2658  0.7401  0.3839
22553SOL     OW79637  11.779  13.655   0.862  0.1620  0.0619  0.6158
22553SOL    HW179638  11.854  13.596   0.865  0.3285  0.2969  1.6261
22553SOL    HW279639  11.817  13.742   0.873  0.0339  0.5129 -1.9807
22554SOL     OW79640   4.710   6.034   8.955 -0.1690  0.3902  0.3193
22554SOL    HW179641   4.661   6.089   8.894 -1.5337  1.0305  1.9032
22554SOL    HW279642   4.799   6.032   8.920 -0.6281  1.7053 -1.0203
22555SOL     OW79643   8.208  10.225   0.129 -0.1224  0.4372 -0.4327
22555SOL    HW179644   8.274  10.237   0.196 -0.2453  0.3563 -0.2965
22555SOL    HW279645   8.183  10.314   0.104  0.2233  0.4696 -0.6718
22556SOL     OW79646   9.449   3.956   7.090 -0.3821 -0.3887 -0.2675
22556SOL    HW179647   9.497   4.034   7.063 -0.7606  0.7837  2.1470
22556SOL    HW279648   9.370   3.989   7.131 -1.3303 -2.1412 -0.5633
22557SOL     OW79649   9.955  12.328   0.864 -0.1031 -0.1679  0.1909
22557SOL    HW179650   9.869  12.339   0.905  0.0011  1.6015 -0.0094
22557SOL    HW279651   9.936  12.299   0.775 -0.4949  0.1110  0.1826
22558SOL     OW79652   3.299  13.772   9.636 -0.0695  0.3504  0.5630
22558SOL    HW179653   3.271  13.805   9.721 -1.6151 -1.4716  0.8365
22558SOL    HW279654   3.371  13.711   9.656 -2.5623 -2.6604  1.0744
22559SOL     OW79655   2.552   5.017  13.166  0.6368  0.2914 -0.1606
22559SOL    HW179656   2.467   5.055  13.185  0.1802 -0.4644 -0.6414
22559SOL    HW279657   2.589   5.072  13.097  1.4436  1.8456  1.4135
22560SOL     OW79658   6.812   0.703  11.866 -0.1877 -0.0859  0.1706
22560SOL    HW179659   6.732   0.683  11.914 -0.6178 -0.8159 -0.8366
22560SOL    HW279660   6.786   0.766  11.799 -0.3287 -1.6657 -1.3274
22561SOL     OW79661   1.437   8.761  11.573 -0.6716 -0.0620  0.0001
22561SOL    HW179662   1.451   8.670  11.598  0.5960 -0.0160 -0.4842
22561SOL    HW279663   1.470   8.767  11.483  1.2907  1.3542  0.7497
22562SOL     OW79664   7.876   1.990  11.231 -0.1531 -0.6259 -0.2274
22562SOL    HW179665   7.965   2.012  11.259 -0.9786  2.2152  0.5828
22562SOL    HW279666   7.842   1.934  11.301  0.0409  0.8274  1.0859
22563SOL     OW79667   2.459  11.324   5.420 -0.4961 -0.0931 -0.3101
22563SOL    HW179668   2.434  11.359   5.334  2.3775 -0.4689 -1.4014
22563SOL    HW279669   2.499  11.398   5.465  2.6295 -1.0254 -1.3577
22564SOL     OW79670   7.230   4.596  11.874 -0.4811 -0.2407 -0.4464
22564SOL    HW179671   7.186   4.680  11.857  0.5408  0.3499 -0.2967
22564SOL    HW279672   7.288   4.584  11.800  0.7383  0.1252  0.4219
22565SOL     OW79673   4.873   4.899   7.269  0.2363  0.4921  0.5211
22565SOL    HW179674   4.903   4.966   7.329  0.2109 -0.3104  1.4596
22565SOL    HW279675   4.777   4.909   7.269  0.2936  1.0885 -0.1143
22566SOL     OW79676  12.262   5.298  12.769  0.3370 -0.2097 -0.1829
22566SOL    HW179677  12.171   5.270  12.762  0.3559 -0.3125 -0.0317
22566SOL    HW279678  12.259   5.393  12.765  0.5502 -0.2254 -4.1339
22567SOL     OW79679   9.733   9.559   7.323  0.2311 -0.5295  0.0953
22567SOL    HW179680   9.785   9.482   7.348  2.8497  0.6006 -1.4738
22567SOL    HW279681   9.771   9.587   7.240 -1.1861  1.9871  0.2123
22568SOL     OW79682  10.762   7.449  11.221  0.6825 -0.4363  0.7659
22568SOL    HW179683  10.727   7.441  11.133  0.2680 -0.0584  0.8922
22568SOL    HW279684  10.694   7.412  11.278  1.3177 -1.4849  0.8643
22569SOL     OW79685   5.579   4.393   8.303 -0.0572 -0.2224 -0.3189
22569SOL    HW179686   5.541   4.319   8.349  0.4774 -0.9374 -0.9964
22569SOL    HW279687   5.519   4.410   8.230  0.1876 -0.4568 -0.5784
22570SOL     OW79688   7.336   9.144   0.141  0.1235 -0.0270  0.3594
22570SOL    HW179689   7.305   9.119   0.054  0.3018 -1.8269  0.7758
22570SOL    HW279690   7.287   9.224   0.162 -1.3235 -0.6154 -0.6241
22571SOL     OW79691   7.596   6.375   1.766 -1.0051 -0.0968  0.2458
22571SOL    HW179692   7.517   6.352   1.813 -0.5537 -2.8230 -0.1920
22571SOL    HW279693   7.667   6.337   1.818 -0.4928 -3.2507 -2.4490
22572SOL     OW79694   3.194   5.700   9.552 -0.6855 -0.1766  0.3905
22572SOL    HW179695   3.137   5.773   9.526  0.9849  1.4213  0.9492
22572SOL    HW279696   3.281   5.739   9.557  0.5006 -2.5163 -0.4247
22573SOL     OW79697  13.571  13.476   8.390  0.1278 -0.2836  0.4141
22573SOL    HW179698  13.482  13.466   8.356  0.8870  1.1853 -2.2652
22573SOL    HW279699  13.605  13.387   8.396 -1.2156 -0.8054  0.7071
22574SOL     OW79700  10.898   6.636   3.670  0.2004  0.1538  0.5508
22574SOL    HW179701  10.964   6.603   3.608 -1.1773 -2.6201  0.4498
22574SOL    HW279702  10.944   6.638   3.754  0.7525 -0.6039  0.2823
22575SOL     OW79703   8.179   4.501  10.810 -0.6104  0.1215  0.0588
22575SOL    HW179704   8.261   4.549  10.821 -1.3537  1.7467 -1.0784
22575SOL    HW279705   8.157   4.469  10.898  1.0503 -0.0612  0.4338
22576SOL     OW79706   4.135   5.289   4.655  0.3070 -0.1619 -0.0453
22576SOL    HW179707   4.076   5.214   4.640  0.3282 -0.0039 -0.9843
22576SOL    HW279708   4.222   5.249   4.661  0.4471 -0.1398 -1.5781
22577SOL     OW79709   0.723   4.616   2.532  0.2501  0.8129 -0.7681
22577SOL    HW179710   0.676   4.661   2.602 -0.0630 -0.3552 -0.2133
22577SOL    HW279711   0.710   4.523   2.549 -0.7456  0.4784 -2.9788
22578SOL     OW79712   8.903   4.887  13.461  0.2600  0.5374 -0.2799
22578SOL    HW179713   8.922   4.797  13.489  0.3099  0.7904  0.5100
22578SOL    HW279714   8.979   4.938  13.489  0.5808  0.7025 -1.4035
22579SOL     OW79715  11.193   8.460  12.582  0.3234  0.3648 -0.1482
22579SOL    HW179716  11.174   8.375  12.622  0.1962  0.8133  0.7518
22579SOL    HW279717  11.171   8.447  12.489  0.9845 -0.7924 -0.1671
22580SOL     OW79718   1.154   4.726   3.924 -0.0265  0.0831 -0.5880
22580SOL    HW179719   1.178   4.753   3.835  0.9717  1.5596  0.0888
22580SOL    HW279720   1.124   4.806   3.966 -1.4524 -0.8023  0.1300
22581SOL     OW79721   6.979   1.417   0.948  0.5479  0.3148  0.2622
22581SOL    HW179722   6.978   1.510   0.927  0.3384  0.1800 -0.3640
22581SOL    HW279723   7.039   1.409   1.022 -0.0058  1.0468  0.8034
22582SOL     OW79724   5.017   1.320  12.211 -0.2090 -0.2109 -0.4595
22582SOL    HW179725   4.949   1.275  12.161  0.0446 -0.3421 -0.6892
22582SOL    HW279726   5.061   1.250  12.259 -2.2385  0.1749  2.1828
22583SOL     OW79727   6.371   3.659   8.795 -0.2029 -0.2697 -0.0445
22583SOL    HW179728   6.333   3.691   8.713  1.5208  1.3043 -0.3049
22583SOL    HW279729   6.300   3.666   8.859 -1.6543 -1.8041 -1.4353
22584SOL     OW79730   1.834   4.255   7.961 -0.0593  0.3171  0.3577
22584SOL    HW179731   1.806   4.341   7.992 -0.9218  0.8882 -1.8248
22584SOL    HW279732   1.901   4.227   8.024  1.5281  3.3701  0.2082
22585SOL     OW79733   0.193  10.485  10.531  0.1954 -0.5401 -0.3832
22585SOL    HW179734   0.222  10.468  10.441  0.3896 -0.4555 -0.3363
22585SOL    HW279735   0.272  10.514  10.576  0.4458 -2.0073  0.1922
22586SOL     OW79736   4.321   5.485   8.505  0.3063  0.1945 -0.2239
22586SOL    HW179737   4.351   5.544   8.574  0.8818  1.3507 -1.4245
22586SOL    HW279738   4.227   5.501   8.499 -0.0855 -1.1574  1.4056
22587SOL     OW79739   2.915   7.397   1.130  0.6504 -0.7926 -0.0141
22587SOL    HW179740   2.973   7.371   1.058  1.0000  1.5146 -0.6299
22587SOL    HW279741   2.940   7.339   1.202  0.6833 -2.7858 -1.5292
22588SOL     OW79742  10.593  14.032   6.326 -0.7031  0.0136 -0.3887
22588SOL    HW179743  10.626  13.952   6.286  0.5643 -0.0923  0.7781
22588SOL    HW279744  10.671  14.076   6.360 -1.5532  0.8609  0.5617
22589SOL     OW79745   8.084  12.720   5.296 -0.4804 -0.2141 -0.0498
22589SOL    HW179746   8.043  12.742   5.379  0.4811 -2.4049  1.0652
22589SOL    HW279747   8.135  12.641   5.313 -0.5502 -0.9835 -2.8086
22590SOL     OW79748   5.251   1.626  10.627 -0.3280 -0.0399  0.7699
22590SOL    HW179749   5.274   1.579  10.547  0.2838 -0.9833  1.4765
22590SOL    HW279750   5.160   1.602  10.645 -1.4614  2.3759 -1.1176
22591SOL     OW79751  11.161   7.629   3.684  0.1424  0.1434 -0.3759
22591SOL    HW179752  11.239   7.682   3.702 -1.0356  0.9379  3.1817
22591SOL    HW279753  11.123   7.669   3.606  1.2364  2.2303  0.0831
22592SOL     OW79754  13.579   8.508   4.990  0.3810 -0.7192  0.7965
22592SOL    HW179755  13.621   8.562   4.923 -0.4428  0.2435  1.0309
22592SOL    HW279756  13.606   8.418   4.969  1.4162 -0.2726  0.1352
22593SOL     OW79757  12.355  10.784   5.840 -0.0052  0.1156  0.7290
22593SOL    HW179758  12.326  10.825   5.921 -1.9502  1.3310 -0.5154
22593SOL    HW279759  12.414  10.714   5.869  0.9788  1.7794  3.0635
22594SOL     OW79760  10.818   2.936   7.591  0.1456  0.2525 -0.3569
22594SOL    HW179761  10.791   2.857   7.544 -0.0527 -0.6527  1.2096
22594SOL    HW279762  10.846   2.997   7.523 -0.3196 -0.9330 -1.6377
22595SOL     OW79763   5.210   4.561   1.923 -0.4061 -0.7184  0.1750
22595SOL    HW179764   5.150   4.599   1.860 -1.3216 -0.2168  1.3117
22595SOL    HW279765   5.167   4.573   2.008  0.1250 -2.6139  0.7693
22596SOL     OW79766   6.340   2.365   7.451  0.2262  0.1424 -0.3729
22596SOL    HW179767   6.415   2.422   7.463  0.6209 -0.2453 -0.9385
22596SOL    HW279768   6.369   2.279   7.483 -0.0017  0.0120 -0.5138
22597SOL     OW79769   9.546  10.852   0.887  0.1021 -0.4843 -0.2371
22597SOL    HW179770   9.639  10.837   0.871 -0.0004 -0.1950 -1.1919
22597SOL    HW279771   9.520  10.916   0.820 -0.8836 -0.9266 -0.3034
22598SOL     OW79772  11.260  10.262   5.112  0.0140  0.1608  0.1608
22598SOL    HW179773  11.169  10.256   5.141  0.4447 -0.5313  1.4403
22598SOL    HW279774  11.284  10.172   5.088  0.1970  0.4366 -0.7331
22599SOL     OW79775   1.266  10.382   1.227  1.0351  0.2722  0.0405
22599SOL    HW179776   1.306  10.354   1.145  0.2892  1.8050 -0.9072
22599SOL    HW279777   1.332  10.437   1.269  1.1690  0.0361  0.1387
22600SOL     OW79778   0.759   5.943   9.218  0.1703 -0.2640  0.3796
22600SOL    HW179779   0.820   5.960   9.146 -0.4648 -0.4749 -0.2219
22600SOL    HW279780   0.695   5.883   9.181 -0.7688  0.4553  0.7992
22601SOL     OW79781  11.157  12.166   3.716  0.8086 -0.8475 -0.2453
22601SOL    HW179782  11.157  12.235   3.783  1.0891 -1.6464  0.5942
22601SOL    HW279783  11.072  12.175   3.673  0.2827 -0.8461  0.7750
22602SOL     OW79784  10.896   7.859  13.036  0.3975  0.1209  0.1517
22602SOL    HW179785  10.898   7.833  12.944 -0.9652 -0.8174  0.3625
22602SOL    HW279786  10.936   7.786  13.082  0.8065  0.4629  0.3462
22603SOL     OW79787   9.477  12.435   6.945  0.2726 -0.0310  0.1505
22603SOL    HW179788   9.520  12.443   6.859 -1.3816  0.2519 -0.6827
22603SOL    HW279789   9.497  12.346   6.973  2.9586  0.6476  0.6923
22604SOL     OW79790   5.534   7.685   4.962 -0.1177  0.4104  0.0698
22604SOL    HW179791   5.570   7.753   4.905 -1.3408  1.1195  0.1188
22604SOL    HW279792   5.473   7.731   5.019 -1.1593 -0.7660 -0.0613
22605SOL     OW79793   2.163   9.107   7.801 -0.7867  0.6128 -0.8076
22605SOL    HW179794   2.176   9.127   7.708  0.6286  0.7707 -0.5856
22605SOL    HW279795   2.102   9.175   7.831 -1.6336  0.2844 -1.7099
22606SOL     OW79796   6.687  10.684  10.506  0.1457 -0.3303 -0.4785
22606SOL    HW179797   6.754  10.706  10.440  0.7459 -1.4282 -0.2568
22606SOL    HW279798   6.607  10.726  10.474  1.5227  3.9057  0.8652
22607SOL     OW79799  13.577  13.891   3.938  0.4869  0.2287  0.7223
22607SOL    HW179800  13.582  13.913   4.031 -1.8088 -0.0654  0.9898
22607SOL    HW279801  13.483  13.895   3.918  0.9681  0.8428 -1.7290
22608SOL     OW79802  11.929   1.016   8.049  0.0918  0.2220 -0.6354
22608SOL    HW179803  11.851   1.068   8.032 -0.2393 -0.6231 -1.8467
22608SOL    HW279804  11.974   1.062   8.120 -0.4859  1.7963 -1.2551
22609SOL     OW79805  13.779  13.795   1.293 -0.1639 -0.2679 -0.1282
22609SOL    HW179806  13.821  13.846   1.225  0.4783 -1.6372 -0.7991
22609SOL    HW279807  13.685  13.805   1.276 -0.1288  1.7125  0.5698
22610SOL     OW79808   6.749   4.359  11.786 -0.6113  0.3422 -0.3165
22610SOL    HW179809   6.827   4.412  11.768 -1.5498  1.6886 -0.5437
22610SOL    HW279810   6.731   4.372  11.879 -2.9644  3.5273 -1.0531
22611SOL     OW79811   1.217  10.528   7.719 -0.5189 -0.2407  0.2699
22611SOL    HW179812   1.161  10.450   7.712 -0.9111  0.1788 -2.5903
22611SOL    HW279813   1.156  10.602   7.717  0.0063  0.1868 -0.2992
22612SOL     OW79814  11.407  12.784   0.038 -0.8336 -0.6038 -0.0350
22612SOL    HW179815  11.335  12.725   0.060 -0.7631 -0.8082 -0.3464
22612SOL    HW279816  11.406  12.788  -0.057  0.2968 -1.5284 -0.1080
22613SOL     OW79817   0.562   0.374  10.028  0.1102  0.5241 -0.2699
22613SOL    HW179818   0.563   0.366  10.124  0.7602 -1.9816 -0.4083
22613SOL    HW279819   0.472   0.398  10.007 -0.0907  0.9316  0.9521
22614SOL     OW79820  12.872  10.102   7.032 -0.3314 -0.3928 -0.5502
22614SOL    HW179821  12.909  10.033   7.086 -2.0530 -1.5324 -0.7355
22614SOL    HW279822  12.939  10.170   7.029  0.8451 -1.4528  0.7983
22615SOL     OW79823   4.320   9.573  12.495  0.2484 -0.0288  0.0720
22615SOL    HW179824   4.346   9.481  12.502 -0.3910 -0.1572  0.8715
22615SOL    HW279825   4.226   9.573  12.516  0.3338  0.8644  0.4812
22616SOL     OW79826  12.050   2.244   0.826  0.0192 -0.0413  0.3369
22616SOL    HW179827  11.960   2.232   0.795 -0.1797  0.4192  0.7269
22616SOL    HW279828  12.056   2.337   0.848  0.4020 -0.1897  0.8900
22617SOL     OW79829   9.276   2.219   2.790  0.0740  0.2965  0.0782
22617SOL    HW179830   9.287   2.310   2.818  2.1472  0.4719 -1.0909
22617SOL    HW279831   9.219   2.225   2.713 -0.8687  0.4390  0.7709
22618SOL     OW79832   4.157   0.849   1.413 -0.1855  0.3766 -0.1092
22618SOL    HW179833   4.110   0.886   1.487 -1.7000 -3.4090  1.0713
22618SOL    HW279834   4.221   0.789   1.453  1.3271  0.7339 -1.8492
22619SOL     OW79835   3.074   9.873   4.973  1.0470  0.6642 -0.7754
22619SOL    HW179836   3.102   9.798   5.025 -0.4824 -1.5003 -2.8558
22619SOL    HW279837   3.139   9.880   4.903  0.3553  0.2185 -1.4872
22620SOL     OW79838  12.917  10.714  11.950  0.2539  0.0675 -0.7508
22620SOL    HW179839  12.936  10.764  11.870  1.3462  2.0343  0.6421
22620SOL    HW279840  12.975  10.638  11.945  0.9167  0.6041 -1.4470
22621SOL     OW79841   0.617  10.787  12.329 -0.3698 -0.1243  0.2070
22621SOL    HW179842   0.701  10.818  12.294  0.8252  0.0046  2.9148
22621SOL    HW279843   0.563  10.866  12.335 -0.2266  0.0200 -0.3530
22622SOL     OW79844   9.642   8.391   0.711  0.3828  0.1745  0.3919
22622SOL    HW179845   9.636   8.354   0.623 -0.6600 -0.0807  0.5544
22622SOL    HW279846   9.570   8.454   0.716 -0.2125 -0.5344  1.3766
22623SOL     OW79847   6.978   4.687   4.266  0.3212 -0.5388 -0.0970
22623SOL    HW179848   7.071   4.662   4.274  1.2515  2.4962 -0.0206
22623SOL    HW279849   6.953   4.657   4.179  1.9208 -0.0218 -0.7931
22624SOL     OW79850   1.991  10.602   4.770  0.2648 -0.0722  0.4094
22624SOL    HW179851   1.933  10.589   4.695 -1.8189 -0.5553  2.0135
22624SOL    HW279852   2.044  10.678   4.746 -0.3321 -0.2110 -1.5296
22625SOL     OW79853  11.486  10.925  11.514  0.1294 -0.1783 -0.1040
22625SOL    HW179854  11.489  10.974  11.596  0.0452 -0.2354 -0.0670
22625SOL    HW279855  11.452  10.987  11.450 -1.9551 -0.7730  0.3558
22626SOL     OW79856  13.760   2.170   4.245  0.2596  0.1340  0.1291
22626SOL    HW179857  13.834   2.223   4.273 -1.5905  2.8160  0.3087
22626SOL    HW279858  13.740   2.201   4.156  0.1831 -1.5242 -0.4638
22627SOL     OW79859  14.032   3.221  10.468  0.4920 -0.1669  0.5187
22627SOL    HW179860  14.006   3.132  10.491  2.2207 -0.2007  2.8343
22627SOL    HW279861  14.087   3.211  10.391 -0.0592 -0.9805  0.2160
22628SOL     OW79862   4.194  10.525   2.174  0.2656 -0.3313 -0.0749
22628SOL    HW179863   4.261  10.502   2.109 -0.2012 -0.9763 -0.3406
22628SOL    HW279864   4.131  10.453   2.169 -1.0809  0.8450 -0.6976
22629SOL     OW79865   4.912   7.985  10.004  0.4223  0.1630  0.8552
22629SOL    HW179866   4.878   7.999  10.093  0.7534 -1.6923  1.3018
22629SOL    HW279867   4.857   7.915   9.968  2.9140 -2.0935  1.1682
22630SOL     OW79868   9.053   3.745   3.895 -0.3612  0.7941 -0.1155
22630SOL    HW179869   9.017   3.707   3.815  1.0952  1.6412 -1.2356
22630SOL    HW279870   9.018   3.834   3.897  1.4799  1.6004 -1.1766
22631SOL     OW79871   8.305   6.144  13.514 -0.2907  0.9046 -0.1262
22631SOL    HW179872   8.276   6.160  13.604  1.0338  0.9893  0.3102
22631SOL    HW279873   8.282   6.053  13.497  0.2802  0.6040  0.6466
22632SOL     OW79874  11.865   6.871   0.695 -0.8484 -0.2601 -0.7559
22632SOL    HW179875  11.954   6.874   0.728 -0.7291 -2.3999 -0.7511
22632SOL    HW279876  11.864   6.934   0.622  0.9128 -0.8601 -1.3338
22633SOL     OW79877   8.253  12.688  12.915  0.6287 -0.1889 -0.1366
22633SOL    HW179878   8.185  12.679  12.848  1.0961 -1.6383 -0.4371
22633SOL    HW279879   8.205  12.712  12.994 -0.1740 -0.6222 -0.4776
22634SOL     OW79880   1.941  11.588  12.202 -0.1193 -0.3568  0.1737
22634SOL    HW179881   1.954  11.520  12.135  1.0560 -1.0561  1.0635
22634SOL    HW279882   1.972  11.547  12.283 -1.7982  0.3631  1.2159
22635SOL     OW79883   1.431   3.925   8.237 -0.1734 -0.8010  0.3280
22635SOL    HW179884   1.430   3.832   8.260 -1.2532 -0.6383  1.0543
22635SOL    HW279885   1.354   3.961   8.283  0.8683  0.6702  0.9841
22636SOL     OW79886   3.541   2.358  12.897 -0.1762 -0.3588  0.4420
22636SOL    HW179887   3.477   2.394  12.958 -2.0439 -1.3200 -0.8245
22636SOL    HW279888   3.578   2.282  12.942 -0.1107  0.0660  1.1052
22637SOL     OW79889   7.543  11.704   8.482  0.3117  0.0091 -0.2792
22637SOL    HW179890   7.540  11.696   8.577  0.0886 -0.0044 -0.2859
22637SOL    HW279891   7.604  11.775   8.465 -0.2312  0.5268 -0.0982
22638SOL     OW79892  12.752   1.930   6.806 -0.0972  0.1430  0.6066
22638SOL    HW179893  12.790   1.850   6.770  0.9732  0.4570  0.9947
22638SOL    HW279894  12.721   1.979   6.729 -0.0542 -0.2965  0.3086
22639SOL     OW79895   4.084   2.735   4.345  0.2755 -0.1703  0.2432
22639SOL    HW179896   4.030   2.742   4.424 -1.1799 -3.3464 -0.3325
22639SOL    HW279897   4.174   2.730   4.378 -0.1296  0.6001  1.5353
22640SOL     OW79898   6.370  13.560  11.245  0.3242 -0.4411 -0.0674
22640SOL    HW179899   6.394  13.646  11.279 -2.3316  0.3176  0.1376
22640SOL    HW279900   6.379  13.501  11.319  1.5721 -0.2458 -0.0458
22641SOL     OW79901   6.607   1.842   2.000  0.3390 -0.3821  0.2090
22641SOL    HW179902   6.606   1.935   1.980 -1.0186 -0.4691 -0.2192
22641SOL    HW279903   6.678   1.807   1.948 -1.3305 -0.1290 -2.3979
22642SOL     OW79904   0.256   6.183   9.270 -0.0843  0.1332 -0.1065
22642SOL    HW179905   0.306   6.188   9.351 -0.0857  1.6567 -0.1712
22642SOL    HW279906   0.169   6.214   9.294 -0.0672  0.6524 -0.6957
22643SOL     OW79907   0.614   8.473   6.021  0.2914  0.1106 -0.3543
22643SOL    HW179908   0.612   8.567   6.004  0.5987 -0.1047 -1.6765
22643SOL    HW279909   0.641   8.434   5.938 -0.8339 -1.2266 -0.1339
22644SOL     OW79910  11.874   4.536   2.698 -0.2857  0.1648 -0.5095
22644SOL    HW179911  11.832   4.537   2.612 -0.9350 -0.0698 -0.2040
22644SOL    HW279912  11.939   4.606   2.694 -1.2249  1.0425 -0.7405
22645SOL     OW79913   1.920   8.004   3.065 -0.4329  0.4605  0.2929
22645SOL    HW179914   1.981   8.072   3.034  0.6243 -0.5165  0.1656
22645SOL    HW279915   1.898   8.031   3.154  0.1177  0.8843  0.3082
22646SOL     OW79916   0.310   3.408   0.345 -0.2021 -0.0525  0.6431
22646SOL    HW179917   0.328   3.460   0.423 -0.7359  0.6288  0.3283
22646SOL    HW279918   0.282   3.472   0.280  0.7026 -0.5481 -0.2650
22647SOL     OW79919  10.067  12.028   3.819 -0.0451 -0.3837 -0.3517
22647SOL    HW179920  10.067  12.088   3.893 -0.0436 -0.0707 -0.6006
22647SOL    HW279921  10.158  12.025   3.790 -0.0929 -0.2791 -0.5178
22648SOL     OW79922   4.641   1.215   2.101  0.3800 -0.2021 -0.0657
22648SOL    HW179923   4.561   1.172   2.071 -1.0310  1.8865  0.5236
22648SOL    HW279924   4.655   1.181   2.190 -3.2846  3.4931  2.2827
22649SOL     OW79925  12.532   8.083  13.530 -0.0720 -0.4193  0.2257
22649SOL    HW179926  12.491   7.997  13.521 -0.1619 -0.3369 -0.1519
22649SOL    HW279927  12.579   8.097  13.448 -2.2122  1.0181 -0.8528
22650SOL     OW79928   5.654  10.234   4.578  0.1139  0.4638 -0.6645
22650SOL    HW179929   5.653  10.315   4.527 -0.7301  0.2890 -0.9374
22650SOL    HW279930   5.657  10.263   4.669  0.2987  0.7975 -0.7751
22651SOL     OW79931   1.130  10.767   8.466 -0.1260 -0.4222  0.3732
22651SOL    HW179932   1.196  10.736   8.404  0.2593 -0.5713  0.8526
22651SOL    HW279933   1.050  10.723   8.440 -0.0218 -0.2900 -0.1741
22652SOL     OW79934  10.139   6.842  10.662 -0.4580 -0.1123 -0.0963
22652SOL    HW179935  10.082   6.853  10.739 -3.2317  1.6259 -2.1862
22652SOL    HW279936  10.112   6.758  10.624 -1.2825  0.4258 -0.7484
22653SOL     OW79937   7.108   6.912   0.652  0.0575  0.6774 -0.3732
22653SOL    HW179938   7.119   7.007   0.653  0.4774  0.6272 -0.1609
22653SOL    HW279939   7.023   6.898   0.694  0.8893  0.8404  1.4499
22654SOL     OW79940   3.947   1.502   5.367  0.0284 -0.2017  0.4217
22654SOL    HW179941   4.018   1.457   5.413  0.9940  0.2994 -0.5171
22654SOL    HW279942   3.955   1.473   5.276  0.6179  1.7191 -0.1994
22655SOL     OW79943   6.317  11.522   7.988 -0.0924 -0.9037 -0.9002
22655SOL    HW179944   6.247  11.573   7.947  0.3867  1.5253  1.0941
22655SOL    HW279945   6.397  11.571   7.968  0.6629 -1.9613 -0.5492
22656SOL     OW79946  12.420   1.852   9.955 -0.5854 -0.0418  0.0819
22656SOL    HW179947  12.434   1.947   9.953 -0.9653  0.0038 -1.7131
22656SOL    HW279948  12.362   1.838  10.030  0.4395  0.9835  1.1084
22657SOL     OW79949  10.739   5.851   9.732 -0.0259 -0.2399 -0.1905
22657SOL    HW179950  10.675   5.862   9.662 -2.0487 -0.9933  1.4464
22657SOL    HW279951  10.689   5.862   9.813  1.9348 -0.7676  1.1709
22658SOL     OW79952   4.022   8.525  11.402  0.2512 -0.3431  0.8246
22658SOL    HW179953   4.023   8.578  11.481 -0.3451 -0.1476  0.7057
22658SOL    HW279954   3.986   8.583  11.335  0.0781 -0.7327  0.5755
22659SOL     OW79955   9.148  11.720   3.610  0.6662 -0.0281  0.0952
22659SOL    HW179956   9.223  11.776   3.630  1.1419 -0.8521  0.6624
22659SOL    HW279957   9.073  11.766   3.649  0.8162  0.9412 -0.7256
22660SOL     OW79958   7.349   7.710  13.651 -0.4309  0.6335 -0.5548
22660SOL    HW179959   7.299   7.785  13.682  1.0468  1.4384 -0.0386
22660SOL    HW279960   7.440   7.739  13.651  0.2211 -1.2393 -0.0771
22661SOL     OW79961   4.660   4.895   4.263 -0.1839 -0.5462  0.4667
22661SOL    HW179962   4.740   4.897   4.211 -0.4735  0.8154  0.0288
22661SOL    HW279963   4.592   4.868   4.202 -0.2451 -0.5937  0.5562
22662SOL     OW79964  11.107   3.426   5.900  0.1615 -0.6695  0.4411
22662SOL    HW179965  11.030   3.448   5.849  0.4475 -0.6932 -0.0060
22662SOL    HW279966  11.099   3.479   5.979  0.0051 -0.1973  0.1136
22663SOL     OW79967   0.848   5.600  11.186 -0.3523 -0.2022  0.4708
22663SOL    HW179968   0.812   5.645  11.110  1.2764  2.1713  1.0115
22663SOL    HW279969   0.911   5.538  11.149  1.7091  2.1225 -0.1720
22664SOL     OW79970  11.643   7.697  11.203 -0.0680  0.2477 -0.0821
22664SOL    HW179971  11.676   7.616  11.242 -1.0368  0.0339  0.3038
22664SOL    HW279972  11.586   7.669  11.132 -1.5854  0.5296  0.9834
22665SOL     OW79973   7.669   0.843  11.533 -1.0062 -0.1266  0.6101
22665SOL    HW179974   7.703   0.815  11.617  0.6031 -0.5765 -0.1512
22665SOL    HW279975   7.581   0.875  11.552 -0.2590  0.8987  2.6511
22666SOL     OW79976   7.026   5.142   9.908  0.1042 -0.2275 -0.8165
22666SOL    HW179977   7.037   5.051   9.937  0.0873 -0.6942 -2.2020
22666SOL    HW279978   7.002   5.134   9.815 -3.0436  1.0442 -0.2469
22667SOL     OW79979   9.810   2.203   0.905  0.1648 -0.3770  0.3154
22667SOL    HW179980   9.807   2.189   0.810 -0.1729  0.6560  0.1600
22667SOL    HW279981   9.853   2.288   0.915  1.3229 -1.0293  1.1584
22668SOL     OW79982   7.867   5.770   1.732  0.1204  0.3119 -0.4498
22668SOL    HW179983   7.813   5.694   1.709  0.0885  0.7922 -2.1004
22668SOL    HW279984   7.929   5.778   1.660  0.8560  1.1861  0.2621
22669SOL     OW79985   9.637   7.028   9.556  0.1678  0.0152  0.0991
22669SOL    HW179986   9.652   7.079   9.635  0.6528  0.0277  0.0031
22669SOL    HW279987   9.560   7.068   9.515 -0.5770 -0.4972  0.9732
22670SOL     OW79988   0.846   1.748  13.556  0.2539  0.2976 -0.6838
22670SOL    HW179989   0.779   1.690  13.521  2.5893 -2.8283 -0.4851
22670SOL    HW279990   0.829   1.751  13.650 -0.5898  0.9799 -0.8510
22671SOL     OW79991   5.629  11.323  12.158  0.2984  0.2229 -0.5108
22671SOL    HW179992   5.613  11.374  12.079 -1.5012  0.0595 -0.3049
22671SOL    HW279993   5.582  11.241  12.143 -1.8207  0.9630  1.4733
22672SOL     OW79994  11.157   2.234  10.181 -0.2510  0.6499 -0.2843
22672SOL    HW179995  11.126   2.266  10.096  3.3579  1.4126 -1.4819
22672SOL    HW279996  11.135   2.141  10.181 -1.2695  0.8592 -1.5732
22673SOL     OW79997   3.941  11.349  12.486  0.2762  0.2617  0.1546
22673SOL    HW179998   3.848  11.349  12.509  0.0003  0.9703 -0.8714
22673SOL    HW279999   3.942  11.354  12.391  1.3647 -2.1090 -0.0331
22674SOL     OW80000   6.564   3.384   8.573  0.0233  0.1926  0.5416
22674SOL    HW180001   6.557   3.324   8.499  0.8624  1.5508 -0.7056
22674SOL    HW280002   6.476   3.422   8.581 -0.3081 -0.6137  0.8469
22675SOL     OW80003   4.380  11.658  11.805 -0.7700  0.6538 -0.0039
22675SOL    HW180004   4.378  11.562  11.807 -0.4676  0.6126 -0.9511
22675SOL    HW280005   4.300  11.682  11.759  0.3925  0.7129 -2.1414
22676SOL     OW80006   8.662   1.046  11.268  0.5622  0.1041 -0.2413
22676SOL    HW180007   8.593   0.984  11.291 -2.4097  3.1722 -0.1883
22676SOL    HW280008   8.656   1.055  11.173  1.6989 -0.4058 -0.3778
22677SOL     OW80009   6.372   1.611   8.645  0.2121  0.0634  0.5306
22677SOL    HW180010   6.326   1.528   8.660  0.9603 -0.1175  2.1360
22677SOL    HW280011   6.465   1.589   8.657  0.4847  0.9586  0.1330
22678SOL     OW80012   5.841   3.192  11.074  0.3515  0.0409  0.1900
22678SOL    HW180013   5.765   3.139  11.099  0.5636  0.1014  0.9992
22678SOL    HW280014   5.805   3.259  11.016  0.0142 -0.7289 -0.5163
22679SOL     OW80015  14.035  13.403   5.334  0.1119 -0.1171  0.0477
22679SOL    HW180016  14.083  13.476   5.295  0.5017 -1.0421 -1.3080
22679SOL    HW280017  13.979  13.443   5.400  2.7036  1.0288  1.7274
22680SOL     OW80018   6.489   9.123   8.516 -0.5143 -0.0868 -0.0080
22680SOL    HW180019   6.444   9.151   8.436 -0.7209 -2.8591 -0.9818
22680SOL    HW280020   6.517   9.033   8.497 -0.1408 -0.6711  2.8784
22681SOL     OW80021  11.287  11.513   1.335 -0.2675 -0.0958 -0.2799
22681SOL    HW180022  11.381  11.496   1.335 -0.2076  0.1466  0.8822
22681SOL    HW280023  11.266  11.532   1.244  0.8257 -0.0701 -0.5406
22682SOL     OW80024  12.729  10.046   0.035 -0.3902  0.4531 -0.5373
22682SOL    HW180025  12.676   9.967   0.022 -0.8625  1.0762 -2.9953
22682SOL    HW280026  12.814  10.013   0.062 -0.9175 -0.8169 -0.3306
22683SOL     OW80027   1.489   6.225   6.565 -0.4990  0.2134 -0.4770
22683SOL    HW180028   1.416   6.274   6.601 -1.6758 -1.6492 -0.1910
22683SOL    HW280029   1.471   6.221   6.471 -1.3045 -1.0309 -0.2910
22684SOL     OW80030   0.250   1.566   6.153  0.2185  0.3701 -0.5018
22684SOL    HW180031   0.180   1.555   6.089 -0.0152  0.3819 -0.2471
22684SOL    HW280032   0.252   1.484   6.201 -0.6175  0.9121  0.4872
22685SOL     OW80033   6.038   1.331   8.046  0.0754 -0.1206 -0.2017
22685SOL    HW180034   5.959   1.376   8.076  0.3493  0.6730 -0.6533
22685SOL    HW280035   6.107   1.396   8.054  0.3940 -0.3040 -1.3226
22686SOL     OW80036  10.986   0.738   1.193  0.0600  0.0202  0.1271
22686SOL    HW180037  10.891   0.740   1.199 -0.1056 -1.3495 -1.4401
22686SOL    HW280038  11.012   0.830   1.197 -1.3132  0.4112  0.6514
22687SOL     OW80039  12.708  12.309   9.602 -0.3355 -0.5710 -0.7278
22687SOL    HW180040  12.642  12.322   9.670  0.0610 -1.7530 -0.0841
22687SOL    HW280041  12.756  12.392   9.598  0.1163 -0.7158  0.9943
22688SOL     OW80042   1.579  12.043   5.900  0.6458  0.0097  0.3620
22688SOL    HW180043   1.564  12.133   5.927  1.4290  1.1049 -2.4505
22688SOL    HW280044   1.670  12.042   5.870  0.3652 -1.4459 -0.5675
22689SOL     OW80045   0.428  11.604   6.751 -0.2588 -0.3837  0.6499
22689SOL    HW180046   0.460  11.688   6.786 -0.7447 -0.5160  1.4265
22689SOL    HW280047   0.485  11.538   6.791  0.8286 -0.3765 -0.7937
22690SOL     OW80048   4.741   4.342   4.491  0.3907 -0.2163 -0.6462
22690SOL    HW180049   4.733   4.320   4.584  0.5556 -0.4701 -0.6920
22690SOL    HW280050   4.659   4.310   4.453 -0.8777  2.1931 -0.1543
22691SOL     OW80051   9.069  12.221   5.419 -0.0812  0.4559  0.1039
22691SOL    HW180052   8.983  12.200   5.456 -0.4231  2.3029  0.4181
22691SOL    HW280053   9.072  12.172   5.337 -1.8446  1.1454 -0.4042
22692SOL     OW80054   1.580   2.629   5.265  0.6809 -0.1409 -0.3858
22692SOL    HW180055   1.590   2.553   5.209  1.1074  0.5874 -1.3343
22692SOL    HW280056   1.500   2.672   5.234  0.9493  0.2985 -0.4717
22693SOL     OW80057   2.790   9.594   8.362  0.1515  0.8438  0.3845
22693SOL    HW180058   2.696   9.605   8.348  0.3861  0.4451 -2.2026
22693SOL    HW280059   2.831   9.659   8.304  1.4217 -0.5093 -0.3254
22694SOL     OW80060   2.992  13.414  10.872 -0.2508 -0.3598 -0.4377
22694SOL    HW180061   2.972  13.384  10.784 -1.9023  0.1339 -0.2668
22694SOL    HW280062   2.990  13.335  10.926  0.7586 -0.6608 -0.8291
22695SOL     OW80063   8.773  13.272  12.249  0.3614 -0.1795 -0.0639
22695SOL    HW180064   8.711  13.202  12.269  0.1071 -1.4193 -4.2099
22695SOL    HW280065   8.717  13.347  12.226  0.4175 -0.4567 -1.1634
22696SOL     OW80066   1.714   8.949  13.145 -0.3524  0.3239 -0.4500
22696SOL    HW180067   1.654   9.015  13.181 -0.1066 -0.7052  2.0653
22696SOL    HW280068   1.794   8.998  13.125 -0.3332  0.8922  0.9315
22697SOL     OW80069  12.765  10.265   3.756  0.1247  0.3475 -0.3645
22697SOL    HW180070  12.827  10.228   3.693  1.4486  0.3321  0.8937
22697SOL    HW280071  12.686  10.283   3.704  0.9822 -0.1312 -1.9078
22698SOL     OW80072   5.422   2.770  11.623 -0.5602  0.0076 -0.0157
22698SOL    HW180073   5.346   2.823  11.644  0.1636  0.4497  1.5967
22698SOL    HW280074   5.432   2.779  11.528 -2.3542  0.1151 -0.2330
22699SOL     OW80075   9.695   9.942   7.797 -0.2047  0.2749  0.5688
22699SOL    HW180076   9.744   9.912   7.873  0.8652 -1.0431 -0.5940
22699SOL    HW280077   9.726   9.887   7.725 -3.6476 -0.8797 -0.1864
22700SOL     OW80078   1.230  11.982   7.785  0.4426  0.2589 -0.4330
22700SOL    HW180079   1.320  12.013   7.776  0.6544 -0.0458  0.4805
22700SOL    HW280080   1.225  11.948   7.875 -0.9419  1.4473 -0.0088
22701SOL     OW80081  12.500   5.616   7.503 -0.3898 -0.1159 -0.0720
22701SOL    HW180082  12.434   5.615   7.573 -0.7653  0.4048 -0.4187
22701SOL    HW280083  12.453   5.589   7.425 -0.4011  1.0793 -0.4966
22702SOL     OW80084   0.888   8.401  10.356 -0.1780 -0.2979 -0.2174
22702SOL    HW180085   0.840   8.483  10.344  0.8156  0.4702  0.7176
22702SOL    HW280086   0.855   8.366  10.439 -0.3919 -0.6848 -0.4684
22703SOL     OW80087  12.234   5.070   4.133  0.2955  0.1634  0.0636
22703SOL    HW180088  12.211   5.115   4.052 -0.1698 -1.8506 -0.9790
22703SOL    HW280089  12.329   5.061   4.129  0.4033  1.1073  0.3306
22704SOL     OW80090   4.170  12.547   2.120 -0.0807  0.1033  0.4776
22704SOL    HW180091   4.122  12.600   2.184  0.5162  0.2220  0.8373
22704SOL    HW280092   4.157  12.593   2.037 -0.4753  0.2092  0.5961
22705SOL     OW80093   2.746   2.436  13.067 -0.1998  0.9971  0.1690
22705SOL    HW180094   2.807   2.427  13.140 -1.1812  0.3494  0.9388
22705SOL    HW280095   2.725   2.345  13.043  1.2304  1.1646 -1.9022
22706SOL     OW80096   6.467   0.839  13.142  0.5263 -0.3178  0.0531
22706SOL    HW180097   6.558   0.849  13.115  0.7215 -1.1134  0.3899
22706SOL    HW280098   6.416   0.884  13.074  1.1488 -0.1031 -0.2770
22707SOL     OW80099   5.626   3.238  12.276  0.1255  0.1198 -0.1969
22707SOL    HW180100   5.677   3.295  12.218  0.0186  0.0489 -0.3620
22707SOL    HW280101   5.535   3.252  12.249  0.1418 -0.6045 -0.6692
22708SOL     OW80102   1.613  12.247  10.394  0.0276 -0.0586  0.0603
22708SOL    HW180103   1.602  12.313  10.462  1.5647  0.1742  0.1293
22708SOL    HW280104   1.606  12.163  10.440 -3.0308 -0.0380 -0.2055
22709SOL     OW80105  11.359  10.365   6.762  0.4441 -0.1933  0.3292
22709SOL    HW180106  11.439  10.318   6.738  0.6817 -0.2149  1.1186
22709SOL    HW280107  11.327  10.401   6.680  2.2184  1.2962  0.2249
22710SOL     OW80108   0.366   8.473   4.734  0.0402 -0.5803 -0.1488
22710SOL    HW180109   0.426   8.433   4.671  1.0369 -0.2688  0.5853
22710SOL    HW280110   0.357   8.564   4.705 -0.7649 -0.8293 -0.7396
22711SOL     OW80111   9.310   3.833  11.768 -0.4075 -0.4780  0.3544
22711SOL    HW180112   9.294   3.745  11.802  0.0911 -0.8576 -0.3620
22711SOL    HW280113   9.243   3.887  11.809  0.0552 -0.9437  1.7880
22712SOL     OW80114   4.788  13.704   2.669 -0.5500 -0.0822 -0.1564
22712SOL    HW180115   4.846  13.634   2.640  1.2049  1.0505  0.4540
22712SOL    HW280116   4.760  13.748   2.589  0.7606  0.3533 -0.3949
22713SOL     OW80117   6.207   9.338   7.448  0.2285  0.3124  0.0452
22713SOL    HW180118   6.144   9.372   7.385  1.2597 -0.9841 -1.7994
22713SOL    HW280119   6.292   9.370   7.418  1.0493 -2.3702 -0.8560
22714SOL     OW80120  13.372   3.270  10.019  0.3511 -0.4015 -0.1933
22714SOL    HW180121  13.436   3.219   9.968  0.7024 -1.5055  1.3057
22714SOL    HW280122  13.425   3.334  10.066  0.2570 -0.7276  0.3587
22715SOL     OW80123   4.210   9.832   3.488 -0.1990 -0.8909  0.0491
22715SOL    HW180124   4.199   9.906   3.428  0.4342 -1.5763 -0.9447
22715SOL    HW280125   4.302   9.838   3.515 -0.4844 -0.5774  0.9887
22716SOL     OW80126   8.352   7.050  10.437  0.2291  0.4135  0.3754
22716SOL    HW180127   8.259   7.064  10.423  0.2539  0.6563  0.4476
22716SOL    HW280128   8.389   7.138  10.446  0.5306  0.3343 -0.0693
22717SOL     OW80129   3.034   4.793  11.009  0.5922  0.1315  0.4360
22717SOL    HW180130   3.122   4.756  11.016  0.0071 -1.0398  2.2656
22717SOL    HW280131   3.031   4.860  11.077  0.6983  1.6271 -0.9753
22718SOL     OW80132   6.482   6.132  10.676  0.1665  0.2066 -0.4199
22718SOL    HW180133   6.400   6.085  10.659 -0.8405  1.8677 -0.3101
22718SOL    HW280134   6.502   6.111  10.767  0.3003 -0.8336 -0.6771
22719SOL     OW80135  10.511  10.959   1.721  0.4254  0.4835 -0.3918
22719SOL    HW180136  10.483  10.881   1.768  1.1598 -0.1980 -1.0619
22719SOL    HW280137  10.602  10.971   1.747  1.1000 -0.3771 -2.2241
22720SOL     OW80138  13.159   1.380  10.687  0.0298  0.1228  0.3763
22720SOL    HW180139  13.214   1.397  10.610 -0.4768  0.8515  0.1686
22720SOL    HW280140  13.217   1.393  10.761  0.8413 -1.6961  0.1304
22721SOL     OW80141   9.042   8.775  11.107 -0.3690  0.6850  0.4126
22721SOL    HW180142   9.079   8.847  11.056  0.2993  0.2309  0.2436
22721SOL    HW280143   9.099   8.767  11.183  1.7303 -1.9093 -1.2712
22722SOL     OW80144  12.774   5.111  13.015 -0.0497 -0.2214 -0.3521
22722SOL    HW180145  12.792   5.023  13.049  1.1844  0.7788  1.7429
22722SOL    HW280146  12.721   5.153  13.083  0.0220  0.9158 -0.9777
22723SOL     OW80147  12.652  13.236  13.389  0.1146 -0.4096 -0.5647
22723SOL    HW180148  12.668  13.212  13.481  1.6478 -0.8102 -0.9244
22723SOL    HW280149  12.697  13.319  13.378  1.1256 -1.0429 -1.3195
22724SOL     OW80150   1.211   1.831  12.678 -0.6620 -0.2424  0.7197
22724SOL    HW180151   1.153   1.755  12.671 -0.2573 -0.4939  0.0142
22724SOL    HW280152   1.229   1.839  12.771  0.0551 -1.5958  0.7077
22725SOL     OW80153   6.764   7.180  11.031 -0.3684 -0.6487 -0.0614
22725SOL    HW180154   6.729   7.259  10.988 -0.7848 -0.0151  1.3721
22725SOL    HW280155   6.687   7.127  11.050 -0.3687 -0.2150  1.2345
22726SOL     OW80156   8.434  13.230   1.995 -0.8852 -1.4916  0.0929
22726SOL    HW180157   8.512  13.197   2.041 -0.7705 -1.3774 -0.0174
22726SOL    HW280158   8.420  13.318   2.031 -0.7032 -1.3418 -0.2003
22727SOL     OW80159   1.096   8.017   7.559 -0.0960 -0.8147 -0.3867
22727SOL    HW180160   1.128   8.011   7.469  1.0079 -0.6486 -0.0214
22727SOL    HW280161   1.103   7.928   7.593 -0.1096 -0.7957 -0.3323
22728SOL     OW80162  10.474  13.629   8.671  0.6794  0.3986  0.1629
22728SOL    HW180163  10.484  13.582   8.754 -1.9000  0.2194  0.4471
22728SOL    HW280164  10.491  13.564   8.604 -2.0268 -0.8540  0.5593
22729SOL     OW80165   7.199   3.666   0.250  0.3406  0.1154 -0.6958
22729SOL    HW180166   7.235   3.740   0.299 -0.9111 -0.6585  1.5713
22729SOL    HW280167   7.275   3.614   0.225  1.0546  0.6361  0.3233
22730SOL     OW80168   7.986   0.722   1.657  0.1687  0.2222 -0.1083
22730SOL    HW180169   7.938   0.789   1.609  1.0631  1.4679  0.6684
22730SOL    HW280170   7.948   0.724   1.745 -2.3559 -2.9405 -0.9462
22731SOL     OW80171   5.040  10.374   3.474 -0.5453 -0.0762  0.4574
22731SOL    HW180172   4.981  10.440   3.439 -0.1313  0.0995  0.0907
22731SOL    HW280173   5.091  10.419   3.541 -0.7997 -0.2203  0.7518
22732SOL     OW80174   0.163   0.273   9.637 -0.5601  0.2282  0.1696
22732SOL    HW180175   0.194   0.230   9.558  2.7149  1.5766  0.5821
22732SOL    HW280176   0.121   0.203   9.687  0.8041 -1.5352 -1.0383
22733SOL     OW80177   7.067   9.254   1.559 -0.2714  0.2462  0.4272
22733SOL    HW180178   7.085   9.201   1.481  0.0473 -0.4355  0.9515
22733SOL    HW280179   7.000   9.205   1.607 -0.4343  0.6383  0.6108
22734SOL     OW80180  11.638   0.851  13.445 -0.3462  0.7224 -0.2808
22734SOL    HW180181  11.731   0.832  13.457 -0.3299  1.0463  0.1038
22734SOL    HW280182  11.593   0.769  13.466 -0.1270  0.4671 -0.7972
22735SOL     OW80183   0.879   1.779  10.516 -0.3611 -0.6213  0.1802
22735SOL    HW180184   0.899   1.858  10.566  0.3945  0.0985 -1.2109
22735SOL    HW280185   0.965   1.740  10.498 -0.2101  1.0565 -3.5513
22736SOL     OW80186   4.211  14.000   7.775  0.0223 -0.5244  0.2397
22736SOL    HW180187   4.260  14.011   7.693  0.1284  0.8803  0.4540
22736SOL    HW280188   4.263  13.939   7.826  1.0915  0.2198  0.0833
22737SOL     OW80189  13.067  10.393  11.385 -0.5933 -0.5554  0.8953
22737SOL    HW180190  13.153  10.352  11.391 -0.7023 -1.1015 -0.8769
22737SOL    HW280191  13.009  10.333  11.431 -0.5270 -1.7941 -0.5542
22738SOL     OW80192   1.792   2.939   4.461 -0.0804 -0.2410 -0.6852
22738SOL    HW180193   1.722   2.906   4.517 -2.0353  1.7093 -1.8131
22738SOL    HW280194   1.766   2.911   4.373  0.0539  1.2247 -1.2167
22739SOL     OW80195   7.591   5.851   0.517 -0.7991 -0.0501 -0.2661
22739SOL    HW180196   7.542   5.827   0.595  0.5759  1.1218  1.0457
22739SOL    HW280197   7.681   5.823   0.536 -0.4752  0.1148 -1.4934
22740SOL     OW80198   2.487  11.291   9.868  0.5926  0.2088 -0.0232
22740SOL    HW180199   2.532  11.258   9.789  0.6282  1.6294 -0.6282
22740SOL    HW280200   2.506  11.226   9.935  2.2315 -0.0461 -0.6867
22741SOL     OW80201  12.692   6.185   7.506  0.1450  0.7148 -0.3190
22741SOL    HW180202  12.781   6.178   7.540 -0.6392  0.5995  1.8952
22741SOL    HW280203  12.653   6.099   7.525 -0.5048  0.8237 -1.1036
22742SOL     OW80204   0.575   5.880   5.896  0.7155  0.2718  0.3653
22742SOL    HW180205   0.613   5.949   5.841  2.1387 -0.2924  0.5767
22742SOL    HW280206   0.539   5.926   5.971  2.6151  0.7489  1.0391
22743SOL     OW80207   3.186  13.072   3.572  0.2099  0.0283 -0.5429
22743SOL    HW180208   3.121  13.136   3.542  1.3303  0.8059 -1.3986
22743SOL    HW280209   3.243  13.060   3.496  1.2617 -0.3694  0.3020
22744SOL     OW80210   9.439  12.133   5.071  0.4637  0.1551  0.0004
22744SOL    HW180211   9.465  12.202   5.011 -0.4711  0.3252 -0.2279
22744SOL    HW280212   9.369  12.085   5.025  1.8211 -1.6483 -0.3122
22745SOL     OW80213   0.057   8.888   6.725  0.6301 -0.7350  0.0257
22745SOL    HW180214  -0.031   8.916   6.699  0.9055 -0.1328 -0.2695
22745SOL    HW280215   0.085   8.828   6.656 -1.0728 -4.1362  2.0139
22746SOL     OW80216   3.576   4.314   6.532  0.0703  0.0088  0.1919
22746SOL    HW180217   3.566   4.298   6.438  0.3291 -1.2310  0.3643
22746SOL    HW280218   3.540   4.236   6.573 -2.4552  1.6111  1.2320
22747SOL     OW80219   7.081   9.226   8.907 -0.2755 -0.5441 -0.1061
22747SOL    HW180220   7.147   9.213   8.839 -0.6527  0.2482 -0.6347
22747SOL    HW280221   7.012   9.276   8.865 -1.5765 -1.9928  0.2332
22748SOL     OW80222   0.502   5.375   6.198 -0.2413 -0.6541  0.4311
22748SOL    HW180223   0.458   5.367   6.113 -0.4939 -1.8875  0.6632
22748SOL    HW280224   0.572   5.310   6.196  0.4910  0.1078  0.7349
22749SOL     OW80225  10.281   0.798   1.373  0.4836  0.2751  0.2495
22749SOL    HW180226  10.260   0.789   1.466  1.9304  0.3050  0.5988
22749SOL    HW280227  10.213   0.747   1.329 -0.6797  0.8951  1.2612
22750SOL     OW80228  10.922   7.487   8.929 -0.2480 -0.2411  0.2534
22750SOL    HW180229  10.876   7.523   8.853  0.1848  0.0285  0.1159
22750SOL    HW280230  11.014   7.508   8.913 -0.1247 -0.4247  0.7207
22751SOL     OW80231  12.384  13.260   9.692 -0.3832  0.7972 -0.1681
22751SOL    HW180232  12.452  13.324   9.717  0.2406  0.0253  0.1786
22751SOL    HW280233  12.419  13.218   9.613  0.6036 -1.0881  1.1783
22752SOL     OW80234   2.661  13.162   3.089  0.9128  0.5871  0.4378
22752SOL    HW180235   2.722  13.182   3.019  0.8328  1.1137  0.5169
22752SOL    HW280236   2.629  13.074   3.068  0.5658  0.9080 -0.4163
22753SOL     OW80237  12.782   2.127   7.181  0.0502 -0.0540 -0.0330
22753SOL    HW180238  12.741   2.066   7.120 -0.3294 -0.2976  0.4673
22753SOL    HW280239  12.722   2.133   7.255  1.3578 -1.2170  1.2007
22754SOL     OW80240   0.842   9.972   9.552  0.1447  0.1270 -0.0287
22754SOL    HW180241   0.864   9.905   9.617  0.7529  1.1882  0.9042
22754SOL    HW280242   0.797   9.925   9.483  0.8662 -1.3038  0.4386
22755SOL     OW80243   3.802   4.492   4.365  0.4665 -0.3311 -0.3292
22755SOL    HW180244   3.791   4.513   4.457  0.1810 -0.8537 -0.2377
22755SOL    HW280245   3.759   4.563   4.318  0.8004  0.0486 -0.0693
22756SOL     OW80246   2.432   1.871  12.880  0.7480 -0.2578  0.6937
22756SOL    HW180247   2.445   1.782  12.913  0.7002 -0.0274  1.3558
22756SOL    HW280248   2.344   1.869  12.841  0.9204 -0.6112  0.3211
22757SOL     OW80249   4.637   0.935   8.466  0.2288  0.0600  0.3261
22757SOL    HW180250   4.730   0.944   8.489  0.5345  0.7085 -1.0827
22757SOL    HW280251   4.601   1.022   8.482 -0.2234 -0.2683  1.1525
22758SOL     OW80252   0.713   4.090   4.103 -0.2972  0.3362 -0.1598
22758SOL    HW180253   0.806   4.078   4.081 -0.8953 -1.8844 -1.8446
22758SOL    HW280254   0.673   4.121   4.021 -1.4162 -1.0589 -0.1683
22759SOL     OW80255   1.034   2.852   8.465  0.7902 -0.7388  0.2829
22759SOL    HW180256   1.094   2.816   8.400  1.4718 -0.0247  0.5058
22759SOL    HW280257   1.091   2.883   8.536  0.2802  1.0847 -0.0507
22760SOL     OW80258   8.861  11.698   6.233 -0.2579 -0.9316 -0.2409
22760SOL    HW180259   8.880  11.608   6.259  2.3474 -0.1534  0.9829
22760SOL    HW280260   8.913  11.711   6.153  0.8583 -0.0628  0.5850
22761SOL     OW80261  11.821   0.440   6.963  0.5238  0.1047 -0.2535
22761SOL    HW180262  11.843   0.405   6.877  0.3897 -1.4408  0.3039
22761SOL    HW280263  11.728   0.462   6.957  0.6373  0.4956 -0.6467
22762SOL     OW80264   2.794   0.931   8.386 -0.7841 -0.5422  0.4137
22762SOL    HW180265   2.884   0.954   8.410 -0.7737 -0.8676  0.6908
22762SOL    HW280266   2.740   0.990   8.439 -0.7391 -0.5438  0.4620
22763SOL     OW80267   2.222   4.597   7.240 -0.0467  0.1511  0.0060
22763SOL    HW180268   2.195   4.675   7.288 -0.0568 -0.2609  0.6904
22763SOL    HW280269   2.300   4.566   7.287  0.6009  0.3541 -0.9115
22764SOL     OW80270  10.096   1.009   4.622  0.2228 -0.5249  0.3611
22764SOL    HW180271  10.027   1.035   4.683 -0.5408  0.7463 -0.9815
22764SOL    HW280272  10.091   0.914   4.618 -1.1960 -0.4817  0.6092
22765SOL     OW80273   3.495  11.740   5.944  0.1616 -0.1058 -0.1176
22765SOL    HW180274   3.495  11.661   5.891  2.0486  0.1773 -0.6081
22765SOL    HW280275   3.449  11.715   6.025  1.6632 -2.0540  0.2118
22766SOL     OW80276  13.520  12.971   9.345 -0.1159 -0.2676  0.1615
22766SOL    HW180277  13.463  12.914   9.396 -0.7702 -0.0744 -0.3375
22766SOL    HW280278  13.606  12.928   9.347 -0.0941 -0.2025  1.4974
22767SOL     OW80279   5.341  12.772   7.567  0.2147 -0.0305 -0.4915
22767SOL    HW180280   5.295  12.819   7.637 -0.0394  0.4380 -0.9713
22767SOL    HW280281   5.390  12.704   7.613  2.2601  1.9764  0.4882
22768SOL     OW80282  12.025   5.417   8.138  0.0972 -0.1002  0.4201
22768SOL    HW180283  12.099   5.430   8.079 -1.9426  2.4964 -1.8602
22768SOL    HW280284  11.981   5.339   8.105 -1.3467  1.6347 -2.1171
22769SOL     OW80285   1.998  13.787  12.415  0.2981  0.4147 -0.1910
22769SOL    HW180286   2.010  13.697  12.446 -0.1424  0.2176 -0.5753
22769SOL    HW280287   1.940  13.779  12.339  1.7076  0.8281 -1.3610
22770SOL     OW80288   4.396   5.002   8.674 -0.6398 -0.5717  0.5098
22770SOL    HW180289   4.418   5.085   8.630  0.9422 -1.6482 -0.8602
22770SOL    HW280290   4.370   5.028   8.762  2.7170  1.2490  1.1425
22771SOL     OW80291   7.998   6.543   8.237  0.5305 -0.3327  0.1416
22771SOL    HW180292   8.081   6.538   8.284  0.4503 -0.4884  0.2681
22771SOL    HW280293   7.993   6.633   8.205 -0.5141  0.4887  2.4454
22772SOL     OW80294  13.212  12.175   9.461  0.0680 -0.1608  0.6224
22772SOL    HW180295  13.228  12.087   9.426  2.1720  0.9348 -1.4307
22772SOL    HW280296  13.125  12.169   9.501 -0.1716 -2.9713 -0.0895
22773SOL     OW80297   6.758  10.397   3.485  0.0280  0.3472  0.0311
22773SOL    HW180298   6.737  10.399   3.579  0.8736 -0.5852  0.2539
22773SOL    HW280299   6.674  10.382   3.442 -0.0309 -2.0252  0.8202
22774SOL     OW80300   9.123   5.728   6.652 -0.1609  0.5708  0.3044
22774SOL    HW180301   9.150   5.636   6.647 -0.3228  0.4886  0.8875
22774SOL    HW280302   9.059   5.730   6.724 -0.2551  1.1146  0.2072
22775SOL     OW80303   0.634   3.010  13.373  0.1271  0.0821 -0.4343
22775SOL    HW180304   0.540   2.994  13.374  0.2321 -0.6032  0.4681
22775SOL    HW280305   0.643   3.105  13.361 -0.7455  0.4493  1.4518
22776SOL     OW80306  10.729  10.303   5.141 -0.2195  0.0144  0.0488
22776SOL    HW180307  10.658  10.344   5.091 -1.6333  3.5159  4.2451
22776SOL    HW280308  10.802  10.365   5.135  0.7030 -1.0575 -0.1358
22777SOL     OW80309   0.686   0.334   7.400  0.0307 -0.0084  0.3761
22777SOL    HW180310   0.737   0.302   7.326  1.2583  0.4458  1.0013
22777SOL    HW280311   0.639   0.410   7.365  1.7328  1.1137  0.3804
22778SOL     OW80312  12.686   2.266  12.173 -0.0049  0.5179  0.4578
22778SOL    HW180313  12.763   2.224  12.133 -0.1932  0.6308 -0.0285
22778SOL    HW280314  12.700   2.257  12.267 -1.0200 -2.4746  0.4202
22779SOL     OW80315   3.841   1.787   5.665  0.0547  0.1003 -0.2178
22779SOL    HW180316   3.883   1.784   5.578  2.8700  1.8524  0.9343
22779SOL    HW280317   3.856   1.700   5.701 -0.0479 -0.2643 -1.0350
22780SOL     OW80318   6.775   5.262  10.177  0.4797 -0.3783  0.1169
22780SOL    HW180319   6.706   5.242  10.114 -0.4555  1.1860  0.5847
22780SOL    HW280320   6.727   5.288  10.256  1.6236  0.2586  0.6113
22781SOL     OW80321   3.777   1.333   7.540  0.1366  0.8208  0.1559
22781SOL    HW180322   3.744   1.267   7.601 -1.3258 -1.6323 -2.9895
22781SOL    HW280323   3.870   1.313   7.530  0.2500  0.8542  1.0223
22782SOL     OW80324  10.486  11.949   8.515  0.1696  0.3045 -0.1353
22782SOL    HW180325  10.429  11.929   8.589 -0.3367  0.2103 -0.5431
22782SOL    HW280326  10.442  12.021   8.469 -1.0088 -1.4406 -1.9134
22783SOL     OW80327  11.155   5.978   6.178 -0.2203 -0.4269 -0.3651
22783SOL    HW180328  11.128   6.028   6.254 -0.9876 -1.7179  0.2523
22783SOL    HW280329  11.226   6.029   6.139 -1.6616  1.6494 -0.4059
22784SOL     OW80330   6.238   8.645   7.142 -0.2942  0.4114 -1.2329
22784SOL    HW180331   6.325   8.648   7.182 -1.1031  2.2470  0.5878
22784SOL    HW280332   6.230   8.729   7.097 -1.4499  0.6432 -0.6185
22785SOL     OW80333  12.028   8.487   5.015  0.1908  0.0444 -0.5341
22785SOL    HW180334  11.936   8.473   5.040 -0.0353  1.6673 -0.4044
22785SOL    HW280335  12.024   8.510   4.922  0.3767  1.0674 -0.2909
22786SOL     OW80336   0.125   7.081   3.454  0.1418 -0.2101  0.4651
22786SOL    HW180337   0.054   7.092   3.391  0.8191 -0.6866 -0.3898
22786SOL    HW280338   0.176   7.162   3.447  0.3575 -0.3661  0.2177
22787SOL     OW80339  13.086   3.867   5.597 -0.2938 -0.7793  0.8208
22787SOL    HW180340  13.072   3.822   5.514  0.9274 -1.8122  1.1454
22787SOL    HW280341  13.067   3.802   5.664 -1.3464  0.0680  1.3862
22788SOL     OW80342   4.051   1.293  12.285 -0.8564 -0.3779  0.0283
22788SOL    HW180343   4.004   1.375  12.302  0.4524  0.7614 -1.4719
22788SOL    HW280344   4.112   1.285  12.358  1.1360  1.7076 -1.2400
22789SOL     OW80345   8.600   8.597  10.233 -0.0917 -0.5786  0.0941
22789SOL    HW180346   8.511   8.601  10.197 -0.6918 -1.9019  1.3244
22789SOL    HW280347   8.643   8.530  10.181 -0.1591 -0.7046  0.2008
22790SOL     OW80348   4.334   0.290   8.406 -0.3381  0.0470 -0.1518
22790SOL    HW180349   4.371   0.365   8.361  1.8016 -1.3186 -0.8192
22790SOL    HW280350   4.359   0.301   8.498  3.3250 -1.5563 -0.7781
22791SOL     OW80351   3.664  11.193   7.134  0.1603 -0.3564  0.5570
22791SOL    HW180352   3.691  11.161   7.220 -0.7223  2.6801  2.0989
22791SOL    HW280353   3.742  11.232   7.097  0.5182 -1.5841 -0.0291
22792SOL     OW80354   6.392   8.395  13.205  0.3012 -0.2165  0.0021
22792SOL    HW180355   6.474   8.428  13.242  1.1910 -2.2642 -0.0040
22792SOL    HW280356   6.371   8.319  13.258 -1.7390  0.3537  0.1055
22793SOL     OW80357   5.552   9.346  12.035  0.1309 -0.5725  0.3948
22793SOL    HW180358   5.504   9.421  11.998 -1.1447 -1.1750  0.7534
22793SOL    HW280359   5.596   9.382  12.112  3.7567  0.9743 -2.1451
22794SOL     OW80360   7.728   6.727  13.044  0.3916 -0.7138 -0.3726
22794SOL    HW180361   7.701   6.691  13.129  1.8981  0.0824  0.4887
22794SOL    HW280362   7.675   6.806  13.033  1.4623  0.1935  0.7388
22795SOL     OW80363   5.230   6.975   0.743 -0.8259  0.5577  0.5491
22795SOL    HW180364   5.322   6.987   0.766 -0.4747  0.2218 -0.6318
22795SOL    HW280365   5.200   6.905   0.800 -0.4312  0.8634  1.1377
22796SOL     OW80366   1.800  12.594   9.814 -0.3614  0.1215  0.4164
22796SOL    HW180367   1.757  12.513   9.843 -1.9400  1.1559  1.0938
22796SOL    HW280368   1.743  12.626   9.744  0.9328  0.0373 -0.7127
22797SOL     OW80369  12.359   4.666   5.414 -0.2784 -0.2102 -0.1666
22797SOL    HW180370  12.404   4.594   5.369  0.6956  1.5183 -2.1072
22797SOL    HW280371  12.266   4.645   5.407 -0.0084 -1.2542 -0.7214
22798SOL     OW80372   9.543   7.423   5.759  0.3502 -0.2256  0.4928
22798SOL    HW180373   9.638   7.424   5.746  0.3732  1.0010  0.6901
22798SOL    HW280374   9.526   7.492   5.823 -0.7195 -0.1811  0.1835
22799SOL     OW80375   5.279   8.299   8.364 -0.0739  0.3987 -0.3527
22799SOL    HW180376   5.266   8.245   8.286  0.9590 -0.5284  0.0909
22799SOL    HW280377   5.192   8.303   8.405 -0.1348 -1.2051 -0.2446
22800SOL     OW80378  12.086  13.896   4.913 -0.6762 -0.1956  0.0109
22800SOL    HW180379  12.057  13.843   4.838 -0.6003  0.3111 -0.3818
22800SOL    HW280380  12.098  13.984   4.877 -1.2143  0.1871  0.7554
22801SOL     OW80381   0.127  12.570   5.187 -0.3097  0.2867 -0.0572
22801SOL    HW180382   0.165  12.525   5.261  0.9448  1.9512  0.3780
22801SOL    HW280383   0.107  12.658   5.220  0.1022  1.0066 -1.6269
22802SOL     OW80384  10.369   2.293   2.029 -0.3583  0.0635  0.1602
22802SOL    HW180385  10.390   2.199   2.024 -2.4015 -0.5991  2.5280
22802SOL    HW280386  10.397   2.327   1.944  0.1200 -2.7461 -0.9367
22803SOL     OW80387   1.266   9.309   4.804  0.2153 -0.0325  0.3325
22803SOL    HW180388   1.314   9.377   4.851 -1.8707 -0.1091  2.7626
22803SOL    HW280389   1.234   9.250   4.872  0.6996 -2.7100 -1.5751
22804SOL     OW80390   1.733   8.585   7.284  0.7573  0.6138  0.2572
22804SOL    HW180391   1.803   8.527   7.314 -0.2618 -1.0169 -0.4124
22804SOL    HW280392   1.775   8.644   7.221  1.3454 -1.0443 -0.9644
22805SOL     OW80393   9.647   2.446   9.661 -0.3916 -0.0497  0.2629
22805SOL    HW180394   9.555   2.461   9.686  0.0573  0.9581  1.4299
22805SOL    HW280395   9.669   2.520   9.604 -0.1183  0.0933  0.5484
22806SOL     OW80396  12.542  12.916  13.813 -0.5919 -0.5441  0.4937
22806SOL    HW180397  12.530  12.980  13.883  0.1104  1.8265 -1.3855
22806SOL    HW280398  12.637  12.902  13.809 -0.6998 -1.3001  0.5573
22807SOL     OW80399   2.326   3.871   5.891 -0.1376 -0.4713 -0.1046
22807SOL    HW180400   2.412   3.828   5.898 -0.5300 -1.1008  1.3141
22807SOL    HW280401   2.267   3.814   5.942 -1.4686 -0.2172 -1.3015
22808SOL     OW80402   8.257  13.060   1.535 -0.2441  0.0853 -0.3782
22808SOL    HW180403   8.321  13.097   1.475 -1.9266  1.8337 -1.2069
22808SOL    HW280404   8.309  13.011   1.599  1.6906 -0.8463 -2.5153
22809SOL     OW80405  12.168   2.942   5.461  0.0593 -0.8672  0.3048
22809SOL    HW180406  12.153   3.036   5.468  0.1205 -0.8019 -0.3540
22809SOL    HW280407  12.262   2.931   5.474  0.4402 -0.5752 -1.7860
22810SOL     OW80408   4.029   7.637   2.598  0.4168  0.7318 -0.0779
22810SOL    HW180409   4.063   7.718   2.636  0.7504  0.9560 -0.8340
22810SOL    HW280410   3.936   7.654   2.586 -0.2993 -0.2883  3.0609
22811SOL     OW80411   8.957   7.865   6.164  0.4028  0.7106  0.0451
22811SOL    HW180412   8.890   7.915   6.118 -0.7393 -0.8910 -0.1467
22811SOL    HW280413   8.990   7.804   6.098  1.1267  0.6255  0.4809
22812SOL     OW80414   0.457  13.835   6.371  0.1728 -0.2222  0.0468
22812SOL    HW180415   0.373  13.802   6.402  0.1514 -0.8647 -0.6666
22812SOL    HW280416   0.515  13.760   6.374  0.5596  0.0715 -0.0431
22813SOL     OW80417   7.337   3.516  10.282 -0.3488 -0.6782  0.4124
22813SOL    HW180418   7.243   3.533  10.272 -0.3985 -1.4853 -0.5812
22813SOL    HW280419   7.344   3.464  10.361 -0.4853  1.3395  1.8321
22814SOL     OW80420   1.159  10.032   3.944  0.3456  0.2563 -0.0598
22814SOL    HW180421   1.070  10.039   3.979 -0.2325 -2.3630 -0.7333
22814SOL    HW280422   1.216  10.052   4.019 -0.8097  1.0238  0.6454
22815SOL     OW80423   5.892   0.132   1.066  0.2840  0.3325 -0.3229
22815SOL    HW180424   5.974   0.153   1.111  1.1245  1.4978 -2.2610
22815SOL    HW280425   5.825   0.139   1.133  1.5982  0.9054  0.9775
22816SOL     OW80426  10.863   3.317   2.673 -0.1373  0.2671 -0.1037
22816SOL    HW180427  10.816   3.357   2.601 -0.8686  0.5846  0.5378
22816SOL    HW280428  10.841   3.371   2.749 -0.2343 -0.6914  0.5585
22817SOL     OW80429   1.587  13.688  10.891  0.0719  0.1900  0.1788
22817SOL    HW180430   1.646  13.672  10.817 -0.3539  1.9103 -0.5795
22817SOL    HW280431   1.499  13.671  10.857 -0.0281 -0.3662  0.7012
22818SOL     OW80432  11.240   7.606   4.920 -0.0630 -0.1890  0.0124
22818SOL    HW180433  11.223   7.597   4.826 -0.3224  0.3402  0.0022
22818SOL    HW280434  11.334   7.592   4.929 -0.2922 -1.9755 -0.0917
22819SOL     OW80435  12.652   3.345   0.221  0.2302 -0.3399 -0.2477
22819SOL    HW180436  12.633   3.416   0.282 -0.3030 -1.3386  0.7934
22819SOL    HW280437  12.663   3.388   0.136 -1.0176  0.8999  0.1790
22820SOL     OW80438  11.001   7.835   1.728  0.8549 -0.5658  0.6436
22820SOL    HW180439  10.971   7.889   1.656  1.0739  1.7447  2.1817
22820SOL    HW280440  10.927   7.777   1.747  0.6759 -0.9857 -1.1466
22821SOL     OW80441   6.943   0.807  13.874 -0.0299  0.3027 -0.1250
22821SOL    HW180442   7.022   0.810  13.820  0.0582  1.4310  0.0504
22821SOL    HW280443   6.965   0.746  13.945  1.3511  1.9391  0.9205
22822SOL     OW80444   7.216   6.792   2.373  0.1943  0.0445  0.2799
22822SOL    HW180445   7.217   6.779   2.468  3.2017  0.9735  0.4737
22822SOL    HW280446   7.220   6.887   2.363  2.0959 -0.1003 -0.6971
22823SOL     OW80447  11.714   6.420  10.923 -0.1957 -0.5760  0.4162
22823SOL    HW180448  11.622   6.432  10.899 -0.0289 -0.1487 -0.0243
22823SOL    HW280449  11.731   6.491  10.986 -0.1568 -0.6394  0.4780
22824SOL     OW80450   4.730   4.497  11.503 -0.4547 -0.4453 -0.0349
22824SOL    HW180451   4.817   4.533  11.523 -0.1704 -0.7238 -0.7226
22824SOL    HW280452   4.739   4.403  11.518 -0.9484 -0.3535  0.9116
22825SOL     OW80453   5.411  13.026   3.487  0.1224  0.6703 -0.5461
22825SOL    HW180454   5.497  12.983   3.482  0.3122  1.1732 -2.4477
22825SOL    HW280455   5.429  13.110   3.530  0.9748  1.5500 -2.5032
22826SOL     OW80456  12.121   6.359  12.537 -0.1550 -0.0429 -0.6579
22826SOL    HW180457  12.027   6.371  12.549  0.1407  0.6069  1.1936
22826SOL    HW280458  12.128   6.319  12.450 -1.9728  1.9708 -1.8462
22827SOL     OW80459   0.026   9.209  12.060 -0.4954  0.2601  0.5869
22827SOL    HW180460  -0.010   9.260  12.133 -0.8097 -0.6472  1.0838
22827SOL    HW280461   0.034   9.120  12.095  0.1967  0.0003 -0.2086
22828SOL     OW80462   8.269  12.779   2.257  0.5203 -0.1285  0.1751
22828SOL    HW180463   8.223  12.842   2.314 -0.5740 -1.4346  0.7812
22828SOL    HW280464   8.306  12.833   2.187  0.2700  1.2859  1.0906
22829SOL     OW80465   0.291  13.080   9.956  0.4067 -0.1768  0.2028
22829SOL    HW180466   0.347  13.126  10.019  0.3063 -0.3183  0.3949
22829SOL    HW280467   0.214  13.136   9.948  0.9131  0.4184 -0.6566
22830SOL     OW80468   0.366   3.197   5.265 -0.7632 -0.1927  0.0591
22830SOL    HW180469   0.334   3.286   5.246 -0.5683 -0.3239 -0.8837
22830SOL    HW280470   0.303   3.139   5.222  0.0878 -0.4758 -0.8268
22831SOL     OW80471  13.356   5.942  10.669 -0.1081 -0.2371 -0.5112
22831SOL    HW180472  13.405   6.023  10.682 -1.9451  0.7673  0.6832
22831SOL    HW280473  13.419   5.872  10.684  0.9964  0.9832  0.7879
22832SOL     OW80474   3.088   8.745  12.511  0.3130 -0.3831 -0.3923
22832SOL    HW180475   3.116   8.691  12.584 -1.1704  0.3074  0.7330
22832SOL    HW280476   3.019   8.693  12.468  0.0791 -0.1216 -0.3382
22833SOL     OW80477  11.970   7.231  12.713 -0.0935  0.1516 -0.2918
22833SOL    HW180478  11.913   7.198  12.782 -0.0700 -1.1772 -0.8890
22833SOL    HW280479  12.049   7.259  12.760 -0.4417  0.1398  0.3175
22834SOL     OW80480  11.081   7.809   6.595  0.6328  0.2508 -0.1551
22834SOL    HW180481  11.134   7.828   6.672 -0.9471  0.7833  0.8493
22834SOL    HW280482  11.110   7.873   6.529  0.7303  1.0262  0.6217
22835SOL     OW80483   6.183   8.512   6.862 -0.7062  0.1707 -0.2333
22835SOL    HW180484   6.178   8.535   6.954 -0.4427  0.2312 -0.2323
22835SOL    HW280485   6.277   8.510   6.843 -0.7436  2.3781 -1.0489
22836SOL     OW80486   8.073  13.274   5.499 -0.4004 -0.1294  0.0726
22836SOL    HW180487   8.022  13.224   5.563 -0.5089  1.3052  1.1356
22836SOL    HW280488   8.154  13.296   5.545 -1.2402  2.5095  0.4495
22837SOL     OW80489  11.227  12.212   0.756  0.2917 -0.3828 -0.2378
22837SOL    HW180490  11.138  12.212   0.720  0.8617 -0.0076 -1.7082
22837SOL    HW280491  11.256  12.302   0.746  0.2272 -0.0902  1.8823
22838SOL     OW80492  13.985   3.332   9.126  0.6903  0.0403 -0.3382
22838SOL    HW180493  13.941   3.417   9.128  0.3777 -0.1318  0.0350
22838SOL    HW280494  14.000   3.316   9.032  1.4125  0.8400 -0.3726
22839SOL     OW80495  13.114   8.933   2.665  0.2335 -0.2555 -0.4946
22839SOL    HW180496  13.062   8.874   2.610  1.2142 -0.3441 -1.3494
22839SOL    HW280497  13.157   8.875   2.728 -0.0191 -0.2726 -0.3344
22840SOL     OW80498  10.776   8.541  13.341  0.4716  0.6598  0.5533
22840SOL    HW180499  10.785   8.454  13.380 -0.9543 -0.0514 -0.5692
22840SOL    HW280500  10.822   8.600  13.400  0.3829 -0.6894  2.0169
22841SOL     OW80501   2.194   6.550  11.784  0.2608 -0.0200 -0.4043
22841SOL    HW180502   2.206   6.586  11.872  1.4415  0.9518 -0.9371
22841SOL    HW280503   2.185   6.626  11.727  0.7286 -0.6041 -1.2885
22842SOL     OW80504   9.941   3.379  11.678  0.2801 -0.1603  0.3423
22842SOL    HW180505   9.954   3.296  11.724  0.1371 -0.0227  0.6299
22842SOL    HW280506   9.918   3.353  11.589  0.4871 -0.4278  0.3632
22843SOL     OW80507  12.381   0.954   2.574 -0.4898  0.7149 -0.1555
22843SOL    HW180508  12.366   0.958   2.479 -0.7297 -0.8595 -0.2234
22843SOL    HW280509  12.475   0.936   2.583 -0.5979  0.1056 -0.1479
22844SOL     OW80510  13.480   4.283  10.541 -0.3864  0.3039 -0.2553
22844SOL    HW180511  13.516   4.206  10.496 -1.9288 -1.4679  1.3691
22844SOL    HW280512  13.416   4.318  10.480 -0.4575 -0.3625 -0.5756
22845SOL     OW80513   8.335   8.606   1.804  0.4828  0.3178 -0.3748
22845SOL    HW180514   8.381   8.688   1.823  1.7828 -0.2181 -1.1177
22845SOL    HW280515   8.335   8.600   1.709 -2.9588  1.2881 -0.5634
22846SOL     OW80516  10.653   8.614   9.655  0.5223 -0.4852  0.7195
22846SOL    HW180517  10.679   8.698   9.694  0.5816 -0.2275  0.1341
22846SOL    HW280518  10.692   8.548   9.712  1.4121 -0.1125  0.5582
22847SOL     OW80519  12.827   9.406   1.325  0.1683  0.4126 -0.5654
22847SOL    HW180520  12.798   9.315   1.332  0.0861  0.3907 -1.1334
22847SOL    HW280521  12.922   9.402   1.335  0.3650  0.0446 -2.3832
22848SOL     OW80522  13.589  13.125  13.481 -0.0998  0.5611 -0.3950
22848SOL    HW180523  13.623  13.083  13.560 -1.4987  0.1580  0.0122
22848SOL    HW280524  13.554  13.053  13.429  0.5977  0.8516 -1.2893
22849SOL     OW80525   5.960   2.381   0.707 -0.0516  0.4992  0.1917
22849SOL    HW180526   6.023   2.435   0.659 -0.3072  0.9240  0.3352
22849SOL    HW280527   6.007   2.299   0.724 -0.1607  0.1006 -1.3118
22850SOL     OW80528   6.720  11.603  10.644  0.1933  0.6378  0.2475
22850SOL    HW180529   6.789  11.619  10.580  0.2038 -0.6801 -0.0881
22850SOL    HW280530   6.760  11.547  10.710 -0.4767  0.0857  0.1901
22851SOL     OW80531   9.188   2.341   4.798 -0.0193 -0.3572 -0.2049
22851SOL    HW180532   9.251   2.348   4.870 -0.5036  0.5951  0.1415
22851SOL    HW280533   9.207   2.416   4.741 -0.3118 -0.5196 -0.5230
22852SOL     OW80534   1.070  13.611   8.153  0.0470  0.1926 -0.3507
22852SOL    HW180535   1.047  13.651   8.069  1.2408  0.9367 -0.3482
22852SOL    HW280536   1.138  13.547   8.132 -0.0182  0.0151 -0.0269
22853SOL     OW80537   2.055   4.913   0.477 -0.2505 -0.1987  0.4649
22853SOL    HW180538   2.090   4.827   0.497 -1.5223 -0.9863 -0.5698
22853SOL    HW280539   2.084   4.931   0.388  0.7663  0.8701  0.9810
22854SOL     OW80540   2.480   7.540  12.290 -0.0600 -0.2467 -0.2520
22854SOL    HW180541   2.441   7.494  12.216  2.5528 -0.8369 -1.3566
22854SOL    HW280542   2.535   7.607  12.250  1.1599 -0.3622  1.1666
22855SOL     OW80543   4.838   1.324  10.983  0.6280  0.4427  0.6960
22855SOL    HW180544   4.816   1.385  11.054  1.1230  1.1407  0.2676
22855SOL    HW280545   4.754   1.304  10.941  0.5949  1.8285  0.0568
22856SOL     OW80546   5.996   3.248  10.479 -0.4454  0.5386  0.1772
22856SOL    HW180547   6.075   3.264  10.529 -0.7237  0.9174  0.4975
22856SOL    HW280548   6.025   3.251  10.387  0.2572 -1.1825  0.3090
22857SOL     OW80549  12.871   9.323  13.396  0.2574  0.2694 -0.0174
22857SOL    HW180550  12.849   9.401  13.447 -1.7081 -0.1674 -0.1231
22857SOL    HW280551  12.789   9.275  13.389  1.4574 -1.9194  0.1922
22858SOL     OW80552   7.532   0.300  11.448 -0.0640 -0.5529  0.2743
22858SOL    HW180553   7.547   0.381  11.399 -0.6021 -1.1964 -0.9972
22858SOL    HW280554   7.512   0.235  11.381 -0.4629 -1.5551  1.3361
22859SOL     OW80555  10.348  12.488   3.772  0.4692 -0.2449  0.1858
22859SOL    HW180556  10.283  12.520   3.834 -1.1855 -0.8728 -1.1546
22859SOL    HW280557  10.398  12.566   3.748  0.2619  0.2456  1.2570
22860SOL     OW80558   3.848   3.949   2.495  0.6260 -0.4573  0.1804
22860SOL    HW180559   3.786   3.884   2.460  1.8262 -1.4608 -0.1422
22860SOL    HW280560   3.885   3.906   2.573  0.6788  0.2774  0.5650
22861SOL     OW80561  11.514   7.709   2.007 -0.1279  0.0825  0.4878
22861SOL    HW180562  11.508   7.792   2.055  2.1546 -1.5487  3.9346
22861SOL    HW280563  11.587   7.721   1.947  0.4101  0.4619  1.2124
22862SOL     OW80564   6.683   1.310  12.217 -0.0823  0.0419  0.1366
22862SOL    HW180565   6.605   1.271  12.255 -2.5518  2.2391 -2.2380
22862SOL    HW280566   6.661   1.402  12.204  3.2953  1.0118  0.1578
22863SOL     OW80567  11.457   3.140   7.772 -0.2153 -0.1457 -0.3583
22863SOL    HW180568  11.533   3.199   7.776  0.0412 -0.4212 -1.0285
22863SOL    HW280569  11.386   3.190   7.813  0.5347 -0.2281  1.0861
22864SOL     OW80570  11.936   6.040  12.289 -0.6007  0.6335  0.0236
22864SOL    HW180571  11.882   6.054  12.367 -0.8655 -0.9407  0.1611
22864SOL    HW280572  12.003   6.108  12.293 -0.5767  0.5465  1.6597
22865SOL     OW80573  10.527  11.011   0.905 -0.2119  0.2286  0.2966
22865SOL    HW180574  10.614  10.970   0.904 -0.5515 -0.5226  0.9386
22865SOL    HW280575  10.466  10.938   0.891 -0.6838  0.9756 -2.0107
22866SOL     OW80576   4.604   4.315   7.455  0.5078 -0.2773 -0.0222
22866SOL    HW180577   4.621   4.401   7.418  0.3418 -0.2470 -0.0266
22866SOL    HW280578   4.538   4.276   7.398 -1.9314  0.8818  1.8347
22867SOL     OW80579   9.923   2.134   4.838 -0.3344  0.3199 -0.0480
22867SOL    HW180580  10.011   2.172   4.830 -0.6048  0.6606 -1.6423
22867SOL    HW280581   9.936   2.056   4.893  0.5512  1.6088  1.6617
22868SOL     OW80582   4.967  13.596  12.114 -0.5156 -0.4692  0.2507
22868SOL    HW180583   4.960  13.587  12.209 -0.2337  0.8604  0.4156
22868SOL    HW280584   4.987  13.689  12.100 -3.6809  0.1250 -1.2582
22869SOL     OW80585   7.702   7.289  13.382 -0.0343 -0.1531 -0.1088
22869SOL    HW180586   7.653   7.371  13.386 -1.1309 -0.8480  2.1137
22869SOL    HW280587   7.794   7.316  13.392 -0.0403  1.0119 -2.5573
22870SOL     OW80588   2.919  13.211   6.228 -0.0987 -0.8034 -0.0725
22870SOL    HW180589   2.867  13.168   6.160 -1.7568  0.1722  0.4935
22870SOL    HW280590   2.857  13.273   6.269  1.2735 -0.2703  1.2898
22871SOL     OW80591  11.326   6.268  13.396 -0.2561 -0.3587  0.2986
22871SOL    HW180592  11.332   6.322  13.317 -3.7703  0.5495  0.5140
22871SOL    HW280593  11.325   6.178  13.363  0.3461 -0.0907 -0.5036
22872SOL     OW80594  10.620  13.498   8.249  0.2123  0.2702  0.2997
22872SOL    HW180595  10.625  13.475   8.341  3.7925 -0.6320  0.0138
22872SOL    HW280596  10.662  13.584   8.243 -1.3327  1.0221 -0.3629
22873SOL     OW80597   2.650   2.349   5.217  0.0245 -0.2500  0.2591
22873SOL    HW180598   2.651   2.399   5.136 -2.3342  1.3286  1.0791
22873SOL    HW280599   2.676   2.412   5.285  0.1854 -1.0350  0.9477
22874SOL     OW80600   7.790   1.085   5.027  0.4239  0.4812 -0.2125
22874SOL    HW180601   7.747   1.143   4.965 -0.1664  0.0208 -0.2327
22874SOL    HW280602   7.871   1.059   4.983  1.2970  2.2291  0.2688
22875SOL     OW80603   9.006   4.829   0.908 -0.0307  0.1516 -0.0359
22875SOL    HW180604   8.921   4.863   0.883 -1.2316 -1.8280  1.0928
22875SOL    HW280605   8.987   4.750   0.958  2.5229 -2.0382 -2.1748
22876SOL     OW80606  13.698  10.009   7.518  0.3004 -0.0736  0.0867
22876SOL    HW180607  13.649   9.949   7.575 -2.3710  1.3433 -0.5455
22876SOL    HW280608  13.762   9.953   7.473 -2.5705 -2.6872 -1.0936
22877SOL     OW80609   2.849   0.471   7.337 -0.3709 -0.0738  0.6461
22877SOL    HW180610   2.805   0.551   7.364 -0.5554  0.4200 -0.9760
22877SOL    HW280611   2.942   0.487   7.352 -0.5599 -0.4652  2.4720
22878SOL     OW80612  11.675   2.221  12.648  0.1547  0.0865  0.2121
22878SOL    HW180613  11.632   2.221  12.563 -1.0452 -1.9026  0.7428
22878SOL    HW280614  11.766   2.196  12.629 -0.4489 -1.7954 -0.3989
22879SOL     OW80615   1.919   3.775   3.927  0.0363 -0.4014  0.1523
22879SOL    HW180616   1.995   3.814   3.969  0.1469 -0.1971 -0.2402
22879SOL    HW280617   1.844   3.811   3.975  0.1731 -0.3931  0.3616
22880SOL     OW80618  13.039   8.962  11.911 -0.1909  0.3377  0.0040
22880SOL    HW180619  13.083   9.046  11.922 -1.0449  0.8409 -0.4238
22880SOL    HW280620  12.946   8.980  11.924 -0.2539 -0.8320  1.5116
22881SOL     OW80621   5.138   4.647   5.043  0.3521 -0.1641  0.3521
22881SOL    HW180622   5.138   4.673   5.135  0.5494  1.0487  0.0229
22881SOL    HW280623   5.144   4.729   4.994  1.7709 -0.8507 -0.7315
22882SOL     OW80624   7.653  10.885   4.149  0.3740 -0.1171  0.5378
22882SOL    HW180625   7.660  10.969   4.104  0.1282 -0.2973  0.1611
22882SOL    HW280626   7.639  10.909   4.241 -2.9451  0.3508  0.0537
22883SOL     OW80627   7.218   7.599  11.873  0.0100  0.5313  0.5101
22883SOL    HW180628   7.240   7.685  11.838  1.1154  0.7845  1.7312
22883SOL    HW280629   7.209   7.613  11.967 -0.9966 -0.4642  0.5787
22884SOL     OW80630   1.715   1.079   3.923 -0.3145  0.0722 -0.2142
22884SOL    HW180631   1.797   1.110   3.962  0.8361 -2.0537 -0.7732
22884SOL    HW280632   1.666   1.041   3.996  1.4755 -3.1547 -0.5062
22885SOL     OW80633   8.645  11.891   0.340  0.0737  0.0156  0.0683
22885SOL    HW180634   8.588  11.905   0.416  0.8832 -1.0952  0.9054
22885SOL    HW280635   8.717  11.953   0.353 -1.1287  1.7992 -1.2618
22886SOL     OW80636   4.870  10.114  13.939 -0.0814  0.1840 -0.1945
22886SOL    HW180637   4.872  10.143  14.030  1.2791  3.0409 -1.0271
22886SOL    HW280638   4.778  10.097  13.921 -0.1421 -3.5007  2.4687
22887SOL     OW80639  13.935   2.976   2.674 -0.1853  0.2307  0.6675
22887SOL    HW180640  13.933   3.045   2.608 -0.8432  0.0883  0.5391
22887SOL    HW280641  13.866   2.916   2.649  1.8460 -1.7166 -0.5422
22888SOL     OW80642  10.823   0.758   7.651 -0.3963 -0.0893 -0.8097
22888SOL    HW180643  10.730   0.778   7.665 -0.1089  1.6901 -1.1507
22888SOL    HW280644  10.826   0.663   7.640 -2.0124 -0.3201  0.3507
22889SOL     OW80645  13.319   1.007   0.347  0.0284  0.3292  0.4042
22889SOL    HW180646  13.280   0.943   0.287 -0.7493  2.0756 -1.0246
22889SOL    HW280647  13.350   0.954   0.420 -0.2885 -1.7223 -0.8559
22890SOL     OW80648   4.846   9.448  13.500  0.2401  0.5948 -0.1048
22890SOL    HW180649   4.821   9.513  13.434  0.2015  0.2922 -0.3941
22890SOL    HW280650   4.800   9.474  13.579 -0.6420  0.3014 -0.5074
22891SOL     OW80651   8.389  11.744   4.967  0.0316 -0.1336  0.0129
22891SOL    HW180652   8.421  11.709   5.050  0.9430 -0.0787 -0.2977
22891SOL    HW280653   8.439  11.825   4.954  0.1407 -0.3149 -0.7419
22892SOL     OW80654   5.229   6.044  12.966 -0.0049 -0.0434  0.2275
22892SOL    HW180655   5.153   6.003  13.008  0.4006 -0.4606  0.5602
22892SOL    HW280656   5.212   6.138  12.974 -0.0978 -0.1185  1.0275
22893SOL     OW80657   2.624   4.805   9.854 -0.5274 -0.4449 -0.1403
22893SOL    HW180658   2.594   4.716   9.870 -1.7259 -0.5245 -2.4591
22893SOL    HW280659   2.695   4.795   9.791  0.4900  0.1663  0.8657
22894SOL     OW80660   2.936   2.938   1.210  0.0210  0.6857 -0.0617
22894SOL    HW180661   2.858   2.884   1.199  0.7013 -0.3379 -0.0436
22894SOL    HW280662   2.956   2.969   1.122  0.9952 -1.1006 -0.5179
22895SOL     OW80663   7.482   5.600   1.252 -0.5188  0.1456  0.0731
22895SOL    HW180664   7.528   5.643   1.324 -0.4089 -0.0331  0.1095
22895SOL    HW280665   7.389   5.616   1.269 -0.4631  0.6283 -0.0756
22896SOL     OW80666   0.095   7.576   7.179 -0.7696  0.7274  0.0520
22896SOL    HW180667   0.180   7.580   7.136 -0.4161 -0.5930  0.5871
22896SOL    HW280668   0.042   7.640   7.133  0.5637  1.7218 -0.1652
22897SOL     OW80669   5.447   2.209  11.344  0.1271 -0.3853 -0.0996
22897SOL    HW180670   5.513   2.153  11.304 -0.4373 -2.0584  1.1986
22897SOL    HW280671   5.365   2.164  11.328 -0.3345  0.0284  1.0544
22898SOL     OW80672   5.689  10.653   7.114  0.1453 -0.0561 -0.4143
22898SOL    HW180673   5.628  10.722   7.088 -2.3166 -1.8548  0.2152
22898SOL    HW280674   5.712  10.674   7.204  0.7413  0.8113 -0.7583
22899SOL     OW80675   8.841  10.467   6.822  0.5048  0.0501 -0.1208
22899SOL    HW180676   8.936  10.474   6.835  0.7147 -2.4607  0.2920
22899SOL    HW280677   8.806  10.551   6.851  2.7845  2.0554 -2.6629
22900SOL     OW80678  12.147   8.119  13.014 -0.2519 -1.0093  0.1469
22900SOL    HW180679  12.128   8.051  13.079 -0.0631  0.4188  1.7953
22900SOL    HW280680  12.071   8.119  12.956 -1.0035 -1.5404  1.1004
22901SOL     OW80681  11.500   2.629   6.569 -0.0926 -0.0592 -0.4622
22901SOL    HW180682  11.487   2.582   6.652  0.0116 -1.2827 -1.1170
22901SOL    HW280683  11.561   2.699   6.591  0.1076 -0.5014  0.4566
22902SOL     OW80684   1.821   8.911   8.453  0.0582 -0.5516 -0.5240
22902SOL    HW180685   1.727   8.897   8.453 -0.2353  1.2108 -0.4688
22902SOL    HW280686   1.833   8.993   8.502  1.7164 -1.3242  0.4452
22903SOL     OW80687   1.558   1.054   5.942  0.0008  0.8383  0.2076
22903SOL    HW180688   1.613   1.114   5.992  0.8509 -0.8701  1.4287
22903SOL    HW280689   1.555   1.092   5.854  0.9323  2.3747  0.8029
22904SOL     OW80690   9.851   5.636   7.145 -0.2196  0.2166 -0.3097
22904SOL    HW180691   9.878   5.658   7.056  0.8652 -0.0394 -0.0630
22904SOL    HW280692   9.756   5.625   7.140 -0.2253  0.6412 -1.3348
22905SOL     OW80693   9.204   8.125   6.148  0.0411 -0.3134  0.2804
22905SOL    HW180694   9.182   8.194   6.210 -0.0857  0.2923 -0.4249
22905SOL    HW280695   9.145   8.139   6.074 -0.8305 -1.9204  0.6241
22906SOL     OW80696   5.037  12.875   1.728  0.1225 -0.5644  0.7042
22906SOL    HW180697   4.942  12.875   1.721  0.0474 -1.6471  1.5157
22906SOL    HW280698   5.065  12.804   1.670  0.3968 -0.6189  0.9016
22907SOL     OW80699   4.876  12.060   8.136 -0.4574 -0.5841 -0.5770
22907SOL    HW180700   4.845  12.013   8.059 -0.1403 -1.7720 -0.0081
22907SOL    HW280701   4.898  11.991   8.199 -0.9778  0.3563  0.6845
22908SOL     OW80702  12.331   8.318   6.347  0.6465  1.0633 -0.5277
22908SOL    HW180703  12.403   8.376   6.370  2.3962 -0.9722 -0.6026
22908SOL    HW280704  12.372   8.247   6.299 -1.2249 -0.8266  0.5293
22909SOL     OW80705   4.675   2.232  12.591 -0.9053 -0.8563 -0.3444
22909SOL    HW180706   4.580   2.244  12.589 -1.0834 -1.5148  1.7029
22909SOL    HW280707   4.708   2.286  12.519 -2.5888  1.7549  0.7046
22910SOL     OW80708   0.475  11.291  14.042 -0.1407  0.0769  0.2081
22910SOL    HW180709   0.517  11.348  14.106 -1.2302 -0.3729  1.3556
22910SOL    HW280710   0.524  11.209  14.046 -1.0878 -0.4529  1.5557
22911SOL     OW80711   3.371  10.302   4.948 -0.0740  0.6690  0.3385
22911SOL    HW180712   3.302  10.256   4.901  1.4780 -0.0475 -1.3182
22911SOL    HW280713   3.372  10.390   4.909  1.3874 -0.0033 -1.2687
22912SOL     OW80714  12.992   9.274   0.652 -0.8491  0.3913  0.5491
22912SOL    HW180715  13.050   9.286   0.728 -0.3980 -0.5213  0.3593
22912SOL    HW280716  12.913   9.234   0.689 -0.2781 -0.8983  0.4335
22913SOL     OW80717   3.089   0.865  11.685  0.3489  0.1089  0.3211
22913SOL    HW180718   3.164   0.823  11.644  0.1342  0.2811 -0.2512
22913SOL    HW280719   3.119   0.887  11.773  1.5155  1.6628 -0.4203
22914SOL     OW80720   3.964   1.177  13.403  0.4517  0.6897 -0.8346
22914SOL    HW180721   3.934   1.267  13.417  0.0638  0.1782  2.1861
22914SOL    HW280722   3.888   1.123  13.427  1.0177 -0.4825 -1.6128
22915SOL     OW80723  11.080   4.784   4.470 -0.2260 -0.5094  0.0067
22915SOL    HW180724  11.007   4.748   4.521  0.8967 -0.3280  1.8451
22915SOL    HW280725  11.056   4.875   4.455 -0.4083 -0.4520  0.6048
22916SOL     OW80726   5.161   5.257  13.717  0.0635 -0.4951  0.8045
22916SOL    HW180727   5.124   5.172  13.694 -0.4589  0.2346 -1.3174
22916SOL    HW280728   5.242   5.262  13.668  0.1087  0.2124  0.9415
22917SOL     OW80729  13.679   3.287  11.574  0.3526  0.2059 -0.8771
22917SOL    HW180730  13.625   3.333  11.639 -0.6367 -0.3402 -1.2910
22917SOL    HW280731  13.641   3.200  11.569  0.5513  0.1690 -2.0261
22918SOL     OW80732   3.166  11.642   7.834 -0.1169 -0.3209 -0.3666
22918SOL    HW180733   3.210  11.722   7.805 -1.5905 -0.0760 -2.1449
22918SOL    HW280734   3.093  11.672   7.888 -1.2915 -0.3042 -1.8604
22919SOL     OW80735   0.879   8.406   6.929 -0.0519  0.2011  0.5407
22919SOL    HW180736   0.863   8.333   6.988 -0.1594 -0.4708 -0.3081
22919SOL    HW280737   0.795   8.422   6.886  0.1703  0.2980  0.1358
22920SOL     OW80738   1.332   4.445   3.484 -0.7461 -0.0918  0.3532
22920SOL    HW180739   1.383   4.443   3.404  0.1152  0.4122  0.8820
22920SOL    HW280740   1.326   4.354   3.511 -0.6248 -0.2092 -0.0117
22921SOL     OW80741   4.063   0.281  12.049  0.1021 -0.5645 -0.2585
22921SOL    HW180742   4.135   0.222  12.028  0.4361  0.3149 -1.7163
22921SOL    HW280743   4.094   0.332  12.123  0.8357 -0.4724 -0.6247
22922SOL     OW80744   9.800   6.910  12.138 -0.2444  0.2660 -0.4448
22922SOL    HW180745   9.758   6.985  12.180 -1.5284 -0.1275 -0.9859
22922SOL    HW280746   9.758   6.904  12.052  0.8762 -0.1934 -0.9811
22923SOL     OW80747   0.478   9.152  10.542  0.0837  0.1464 -0.0562
22923SOL    HW180748   0.418   9.139  10.616  2.3047 -0.4249  1.7783
22923SOL    HW280749   0.492   9.246  10.539 -1.3061  0.3514 -0.8884
22924SOL     OW80750   9.667  10.054   1.061 -0.2048 -0.6537  0.3277
22924SOL    HW180751   9.748  10.022   1.099 -0.3816 -0.9415  0.4683
22924SOL    HW280752   9.694  10.110   0.988  0.1412  0.2575  1.1436
22925SOL     OW80753   5.114   7.041   3.892 -0.9493 -0.4698  0.1944
22925SOL    HW180754   5.070   7.126   3.896 -0.0451  0.0242 -0.1071
22925SOL    HW280755   5.197   7.059   3.847 -1.0985 -1.6639 -0.6088
22926SOL     OW80756   8.781   4.224   3.048 -0.1921  0.1004  0.5688
22926SOL    HW180757   8.774   4.128   3.052  0.4528 -0.0193 -0.7538
22926SOL    HW280758   8.869   4.243   3.080  0.3108  0.1086 -0.7925
22927SOL     OW80759   5.949   4.892   5.683 -0.1121 -0.0295  0.1605
22927SOL    HW180760   5.991   4.824   5.631  2.3477  1.6422 -0.1872
22927SOL    HW280761   5.866   4.908   5.639 -0.2676 -2.0157 -0.3599
22928SOL     OW80762   2.377  12.010   4.439 -0.2594 -0.1543 -0.0589
22928SOL    HW180763   2.304  11.952   4.416 -0.5675  0.2326 -0.0609
22928SOL    HW280764   2.362  12.032   4.531 -0.4422  0.3576 -0.2115
22929SOL     OW80765  10.662   8.026   8.823 -0.5122  0.1462  0.7342
22929SOL    HW180766  10.691   8.117   8.809 -1.3049  0.5730  1.7021
22929SOL    HW280767  10.718   7.994   8.894  0.8348 -0.6745 -0.6577
22930SOL     OW80768   9.984   6.082  12.340 -0.0962 -0.1367  0.0485
22930SOL    HW180769   9.922   6.154  12.325 -0.0870  0.1792  1.3881
22930SOL    HW280770   9.972   6.060  12.432 -0.9505 -2.6815 -0.5970
22931SOL     OW80771   9.558  13.502  13.863 -0.1390 -0.2778 -0.4548
22931SOL    HW180772   9.556  13.586  13.818  0.6358  0.2008  0.3791
22931SOL    HW280773   9.648  13.471  13.854  0.3220  0.3245  1.6074
22932SOL     OW80774   3.985  13.357   9.712  0.1359  0.4141  0.0147
22932SOL    HW180775   4.016  13.417   9.644 -1.2972  0.3930 -0.7009
22932SOL    HW280776   3.938  13.289   9.664  0.3860 -0.4249  0.9314
22933SOL     OW80777   8.020   3.286   6.344 -0.1242 -0.3625 -0.0224
22933SOL    HW180778   7.991   3.208   6.297 -0.3286  0.4825 -1.3738
22933SOL    HW280779   7.986   3.359   6.292  0.5694  0.6315  0.8701
22934SOL     OW80780   3.219   8.900   4.394 -0.0855  0.1814  0.2181
22934SOL    HW180781   3.313   8.896   4.380  0.1478  1.5277  1.1967
22934SOL    HW280782   3.181   8.866   4.313  1.2216  0.6537 -0.6320
22935SOL     OW80783   1.849  13.872   8.764  0.3210 -0.1143 -0.9473
22935SOL    HW180784   1.854  13.820   8.683  3.6707 -0.1953 -0.8235
22935SOL    HW280785   1.939  13.900   8.780 -0.1370 -0.4106  3.0053
22936SOL     OW80786   7.533   6.822   1.557  0.4303  0.1322 -0.1171
22936SOL    HW180787   7.569   6.749   1.608 -0.1740 -1.0188 -1.2875
22936SOL    HW280788   7.480   6.871   1.619 -1.0339 -1.7572  0.1924
22937SOL     OW80789   3.266   7.057   2.873  0.0801  0.2896  0.0433
22937SOL    HW180790   3.290   7.138   2.827 -1.5147  1.1653  0.6627
22937SOL    HW280791   3.270   7.081   2.966 -3.1139  0.5825  0.2181
22938SOL     OW80792   1.504   9.728   1.788  0.0110  0.0726  0.0694
22938SOL    HW180793   1.567   9.775   1.735 -0.1542  0.7480  0.4658
22938SOL    HW280794   1.557   9.677   1.850  0.1785 -0.0165 -0.1460
22939SOL     OW80795  11.286  10.709   0.528 -0.4546  0.2605 -0.3867
22939SOL    HW180796  11.284  10.748   0.441  1.9739 -1.5816 -1.3757
22939SOL    HW280797  11.376  10.719   0.557 -1.5013  2.2694  2.7142
22940SOL     OW80798   3.442   8.835  13.208  0.5408 -0.4865 -0.8647
22940SOL    HW180799   3.508   8.766  13.206  1.4089  0.1471  2.0385
22940SOL    HW280800   3.359   8.788  13.194  1.2382 -1.9077 -0.4475
22941SOL     OW80801   4.370   5.518   7.354 -0.7465  0.3927  0.1076
22941SOL    HW180802   4.371   5.577   7.279  0.4509  0.1356 -0.1052
22941SOL    HW280803   4.342   5.572   7.427  0.1066  1.1771 -0.1304
22942SOL     OW80804   5.111   3.464   5.084  0.3231 -0.0306  0.1236
22942SOL    HW180805   5.158   3.416   5.152 -2.0386  0.4859  2.2420
22942SOL    HW280806   5.148   3.552   5.085  0.7174 -0.2004  0.2943
22943SOL     OW80807   1.610  10.030   7.168  0.6198 -0.3542 -0.4816
22943SOL    HW180808   1.684  10.029   7.109  0.6438  0.6384 -0.4814
22943SOL    HW280809   1.642  10.074   7.247 -0.7292  2.8447 -1.5705
22944SOL     OW80810  11.127   0.444   4.899  0.3816  0.6565  0.2412
22944SOL    HW180811  11.096   0.375   4.839 -1.4094  1.0816  0.6291
22944SOL    HW280812  11.083   0.425   4.982  0.8759  1.5315  0.7148
22945SOL     OW80813  12.393   7.331  10.611 -0.2979  0.1860  0.5719
22945SOL    HW180814  12.461   7.366  10.668  0.4974  0.4903 -0.5078
22945SOL    HW280815  12.310   7.355  10.652  0.2452  1.4904  0.9317
22946SOL     OW80816   3.887  10.588   0.975  0.2087  0.2798 -0.0143
22946SOL    HW180817   3.934  10.671   0.978 -0.3868  0.6031  0.8542
22946SOL    HW280818   3.874  10.571   0.882 -0.9546  1.9243 -0.2073
22947SOL     OW80819   9.839  13.716   1.330  0.0675 -0.1021 -0.7887
22947SOL    HW180820   9.771  13.684   1.271 -2.2460  1.2683  0.9768
22947SOL    HW280821   9.886  13.783   1.280 -1.8056  1.0001 -1.1476
22948SOL     OW80822   5.896   3.880   0.148 -0.3529  0.0138 -0.5101
22948SOL    HW180823   5.958   3.823   0.193 -0.5455  1.0782  1.1787
22948SOL    HW280824   5.933   3.967   0.157 -2.4275  0.8106  1.2743
22949SOL     OW80825   9.959   8.174  10.232  0.6939  0.3182 -0.0055
22949SOL    HW180826  10.020   8.107  10.200  1.7153  1.3668 -0.3624
22949SOL    HW280827   9.967   8.245  10.168  0.2649  1.1139  0.7987
22950SOL     OW80828   4.192   8.010   4.344 -0.7321 -0.1435 -0.6042
22950SOL    HW180829   4.264   7.998   4.407 -2.2395 -0.1915  1.1915
22950SOL    HW280830   4.149   7.926   4.341 -1.2973  0.1562 -0.9082
22951SOL     OW80831   4.258  10.133   9.385 -0.0878 -0.0263 -0.0812
22951SOL    HW180832   4.274  10.061   9.445  0.0802 -0.6729 -0.8892
22951SOL    HW280833   4.307  10.207   9.422 -0.8601 -0.1080  1.1439
22952SOL     OW80834   9.198   9.047   6.730 -0.1961 -0.3345  0.2638
22952SOL    HW180835   9.270   9.110   6.730  2.0743 -2.7835  0.5705
22952SOL    HW280836   9.153   9.061   6.647  1.3979  0.4414 -0.4954
22953SOL     OW80837   0.521  13.904  12.312 -0.7501 -0.0472  0.0193
22953SOL    HW180838   0.536  13.862  12.227 -1.8314 -0.5893  0.0748
22953SOL    HW280839   0.436  13.871  12.340 -0.6260  0.5036  1.0968
22954SOL     OW80840   0.950   9.501  11.207 -0.1634  0.2813 -0.6569
22954SOL    HW180841   0.900   9.556  11.267 -0.6753  0.7875 -1.5207
22954SOL    HW280842   1.023   9.557  11.179  0.5259 -0.2266  0.0896
22955SOL     OW80843   7.282   1.835   0.125 -0.5960 -0.0240  0.4050
22955SOL    HW180844   7.354   1.787   0.085 -0.0798  1.0091  0.0397
22955SOL    HW280845   7.324   1.914   0.161 -1.5928  0.8055 -0.1986
22956SOL     OW80846   7.450   5.228   7.901  0.6418  0.5905  0.2127
22956SOL    HW180847   7.516   5.247   7.834 -0.2718  1.0457 -0.5839
22956SOL    HW280848   7.368   5.220   7.852  0.2675 -1.1161  1.0408
22957SOL     OW80849  13.793   8.054   5.531 -0.0621 -0.3597  0.3139
22957SOL    HW180850  13.699   8.045   5.544 -0.4396 -0.9383 -2.2171
22957SOL    HW280851  13.804   8.140   5.489  0.4135 -0.6982 -0.2768
22958SOL     OW80852   8.065   6.927   7.013 -0.3052 -0.4300 -0.3351
22958SOL    HW180853   7.975   6.924   6.982  0.2374 -2.5560 -1.9215
22958SOL    HW280854   8.086   6.837   7.036  2.0542 -0.4465 -2.1166
22959SOL     OW80855   3.070   6.428   6.908 -0.3244 -0.2959 -0.0216
22959SOL    HW180856   2.985   6.389   6.929 -0.9727 -0.7903 -3.1886
22959SOL    HW280857   3.048   6.509   6.862  0.8841 -0.6432 -1.2529
22960SOL     OW80858   3.925   2.057   5.395 -0.4158  0.1285  0.4895
22960SOL    HW180859   3.890   2.057   5.484  1.5690  2.4946  1.3670
22960SOL    HW280860   3.965   1.970   5.385 -1.9958 -0.7333  1.2796
22961SOL     OW80861   2.344   8.772   5.255 -0.6259 -0.2088  0.5971
22961SOL    HW180862   2.434   8.752   5.229 -0.1228  1.3638  1.0428
22961SOL    HW280863   2.298   8.788   5.173 -0.2331  0.0270  0.4182
22962SOL     OW80864   6.102  12.173  10.939 -0.4129  0.1251 -0.0381
22962SOL    HW180865   6.095  12.239  11.008  0.6155  1.5526 -1.2364
22962SOL    HW280866   6.014  12.136  10.933 -0.4409 -0.3137  2.2482
22963SOL     OW80867  13.249   3.939   4.899  0.2204 -0.0558  0.3107
22963SOL    HW180868  13.227   3.861   4.848  0.6296  1.0037 -1.5674
22963SOL    HW280869  13.304   3.906   4.970  1.1984 -1.3831 -0.9965
22964SOL     OW80870   6.606   8.015   3.878  0.1122  0.0890 -0.0267
22964SOL    HW180871   6.537   8.024   3.812  0.5094  1.3949 -0.3098
22964SOL    HW280872   6.687   8.036   3.831  0.7058 -1.3158  0.3286
22965SOL     OW80873   8.160   8.148   2.058 -0.3368  0.9519 -0.5543
22965SOL    HW180874   8.107   8.069   2.068 -0.2545  0.9432 -0.1453
22965SOL    HW280875   8.157   8.189   2.145 -3.4777  3.3985 -1.6199
22966SOL     OW80876   6.748   8.337   0.504 -0.0176  0.2852  0.4142
22966SOL    HW180877   6.657   8.350   0.479  0.0792  1.2277  0.5163
22966SOL    HW280878   6.746   8.322   0.598 -0.0673  0.3717  0.4272
22967SOL     OW80879   6.961   0.519  10.724 -0.1012  0.0021 -0.0862
22967SOL    HW180880   6.914   0.546  10.645 -1.1228  1.0299  0.8355
22967SOL    HW280881   7.021   0.591  10.742 -0.5687  0.2343  0.5998
22968SOL     OW80882   8.216   0.427  10.227 -0.0271 -0.2790  0.2094
22968SOL    HW180883   8.160   0.485  10.176  1.3839  0.3340 -0.6989
22968SOL    HW280884   8.177   0.340  10.216 -0.4296  0.0301 -0.9414
22969SOL     OW80885   5.746   9.720  10.008 -0.2595  0.3291  0.3188
22969SOL    HW180886   5.775   9.665   9.936  0.1503 -1.5051  1.7943
22969SOL    HW280887   5.807   9.793  10.009  1.0597 -0.7422  0.1128
22970SOL     OW80888  12.241   3.457   3.547  0.0147  0.1736  0.1612
22970SOL    HW180889  12.268   3.526   3.486  2.2222 -0.4705  0.3012
22970SOL    HW280890  12.195   3.394   3.492  1.0275  0.1237 -0.6764
22971SOL     OW80891  10.820   6.737   4.026  0.6574 -0.4645 -0.1371
22971SOL    HW180892  10.732   6.736   3.989  0.6704  0.7000 -0.2395
22971SOL    HW280893  10.840   6.645   4.044 -0.3889 -0.7835 -0.5512
22972SOL     OW80894  13.947   5.499   6.826 -0.5675  0.4703  0.2506
22972SOL    HW180895  13.911   5.486   6.914 -0.3511 -1.1717  0.1142
22972SOL    HW280896  14.000   5.421   6.809 -1.6838  0.0835 -1.8723
22973SOL     OW80897  13.203   5.048   8.941 -0.6945 -0.1928  0.3208
22973SOL    HW180898  13.285   5.034   8.988  0.4670 -0.4502 -1.6766
22973SOL    HW280899  13.154   5.110   8.996  2.2516  2.6646  0.0328
22974SOL     OW80900  10.380  13.821   2.643  0.0359  0.0254 -0.2337
22974SOL    HW180901  10.410  13.775   2.565 -0.1393  0.5333 -0.6081
22974SOL    HW280902  10.285  13.831   2.631  0.1442  0.9551 -0.4257
22975SOL     OW80903   4.889   8.889  11.035 -0.5175 -0.0660  0.0283
22975SOL    HW180904   4.961   8.848  11.083 -0.1287 -0.5776 -0.9611
22975SOL    HW280905   4.886   8.979  11.067 -0.5697 -0.5175  1.3367
22976SOL     OW80906  11.662   7.366   6.621  0.4681  0.1771  0.1024
22976SOL    HW180907  11.687   7.458   6.633 -1.4243  0.5697  1.4702
22976SOL    HW280908  11.715   7.318   6.684  0.0155  0.5998  0.8117
22977SOL     OW80909   6.304   1.413   7.241 -0.5197  0.3371 -0.3454
22977SOL    HW180910   6.334   1.439   7.154 -0.4019  0.4389 -0.2740
22977SOL    HW280911   6.225   1.466   7.256 -1.4040 -0.7401 -1.0049
22978SOL     OW80912   3.391   0.643   2.762  0.6049  0.0081 -0.4300
22978SOL    HW180913   3.413   0.727   2.722  1.1704  0.1644  0.2005
22978SOL    HW280914   3.298   0.631   2.742  0.4131  0.9837 -0.1641
22979SOL     OW80915   9.579   2.819  13.453  0.0078 -0.2395  0.4793
22979SOL    HW180916   9.557   2.831  13.545  0.1656 -1.3398  0.6677
22979SOL    HW280917   9.666   2.780  13.454  0.2536  0.2655 -0.1610
22980SOL     OW80918   9.253  12.098   3.802 -0.2623  0.4286 -0.0694
22980SOL    HW180919   9.226  12.062   3.887 -1.3743  1.7211  0.1558
22980SOL    HW280920   9.177  12.147   3.771  0.2439  0.2382 -1.6798
22981SOL     OW80921  10.646   6.597  10.043  0.1025  0.4797  0.3444
22981SOL    HW180922  10.624   6.566   9.955 -0.5263 -0.9036  0.9562
22981SOL    HW280923  10.742   6.597  10.046  0.1230 -0.5416  0.0128
22982SOL     OW80924  11.622  12.939   1.608  0.5483 -0.4320 -0.3549
22982SOL    HW180925  11.592  12.964   1.521 -0.6547  0.7679  0.3618
22982SOL    HW280926  11.622  13.021   1.658 -0.3918 -1.3265  1.2137
22983SOL     OW80927   0.669  10.047   4.859 -0.1986  0.5925 -0.3837
22983SOL    HW180928   0.743   9.998   4.894  0.4487  1.9129  0.2003
22983SOL    HW280929   0.613  10.064   4.935 -0.7601  0.1924 -0.7006
22984SOL     OW80930   7.823  13.130  11.534 -0.8310 -0.4150 -0.3949
22984SOL    HW180931   7.831  13.135  11.438  2.9998  0.2391 -0.1928
22984SOL    HW280932   7.863  13.046  11.557 -0.2237  0.1429  0.6844
22985SOL     OW80933   3.810  13.416   6.283 -0.3082  0.2988  0.4985
22985SOL    HW180934   3.789  13.509   6.273 -1.1395  0.0346 -0.2976
22985SOL    HW280935   3.735  13.379   6.330 -1.5067 -0.5425 -1.8876
22986SOL     OW80936  12.459   3.294   1.863 -0.3187 -0.2589  0.3690
22986SOL    HW180937  12.458   3.296   1.767  2.3537 -1.2310  0.2396
22986SOL    HW280938  12.507   3.372   1.889  1.2925 -1.3197  0.7356
22987SOL     OW80939   6.921  13.451   1.797 -0.1303  0.3150 -0.0882
22987SOL    HW180940   6.924  13.357   1.814  1.1378  0.3098 -0.2765
22987SOL    HW280941   6.882  13.488   1.877 -1.9328 -0.4623 -0.5475
22988SOL     OW80942   6.131   2.977   1.987  0.8420  0.3232  0.0834
22988SOL    HW180943   6.094   2.955   2.073 -1.9259 -0.4439 -1.1806
22988SOL    HW280944   6.181   2.900   1.962  0.6331  0.0462  0.4957
22989SOL     OW80945  10.605   4.956   0.188 -0.5896  0.2571  0.3839
22989SOL    HW180946  10.684   4.937   0.238 -0.9367 -0.7105  0.5925
22989SOL    HW280947  10.554   5.014   0.245 -0.7324 -0.3947  0.9341
22990SOL     OW80948   7.353   9.825   2.001 -0.2225  0.0196  0.4445
22990SOL    HW180949   7.377   9.883   1.928  2.0655 -1.9146 -0.4564
22990SOL    HW280950   7.388   9.869   2.078  1.8431 -0.2383 -0.2731
22991SOL     OW80951   3.615   7.229   1.892 -0.8749 -0.3658 -0.0468
22991SOL    HW180952   3.703   7.262   1.874 -1.0755  0.1090 -0.1557
22991SOL    HW280953   3.557   7.294   1.854 -1.2764 -0.6288  0.1175
22992SOL     OW80954   5.910  11.531  14.000 -0.1582 -0.6161  0.0403
22992SOL    HW180955   5.925  11.521  13.906  0.3301 -1.2985  0.1894
22992SOL    HW280956   5.870  11.618  14.008  1.7460  0.3645 -0.5878
22993SOL     OW80957  10.231   1.370   9.295  0.2560 -0.5153  0.3423
22993SOL    HW180958  10.272   1.287   9.272 -0.4403 -0.6195 -0.5600
22993SOL    HW280959  10.279   1.436   9.245 -1.3724 -0.7604 -1.6928
22994SOL     OW80960   6.993   9.283  13.873  0.1491 -0.2072 -0.3364
22994SOL    HW180961   7.066   9.339  13.847 -0.2167  0.5804  0.2881
22994SOL    HW280962   7.030   9.221  13.936  0.0813  0.8877  0.8249
22995SOL     OW80963  10.781  13.182   6.890  0.5627 -0.0169 -0.5259
22995SOL    HW180964  10.839  13.246   6.851 -0.1212  1.7915  1.2589
22995SOL    HW280965  10.834  13.138   6.957 -0.0908  1.9105  1.3825
22996SOL     OW80966   7.656   9.383  12.542 -0.2047  0.3706  0.6125
22996SOL    HW180967   7.604   9.463  12.555 -0.0061  0.5605  0.2726
22996SOL    HW280968   7.594   9.321  12.503 -0.0525  0.7722 -0.3007
22997SOL     OW80969  11.786   0.463   6.341  0.4521  0.6594 -0.4618
22997SOL    HW180970  11.770   0.495   6.430  3.0673 -0.5861  0.5582
22997SOL    HW280971  11.876   0.490   6.322  1.4062 -2.5589 -1.0816
22998SOL     OW80972   9.502  13.655   0.503  0.0576 -0.2046 -0.1979
22998SOL    HW180973   9.511  13.732   0.446 -0.1651  0.2756  0.3945
22998SOL    HW280974   9.572  13.596   0.475  0.1905  0.1846 -0.7111
22999SOL     OW80975   6.352  10.808   0.404  0.0688  0.6087 -0.1393
22999SOL    HW180976   6.280  10.793   0.343  1.7102  1.6225 -2.5011
22999SOL    HW280977   6.331  10.890   0.447 -0.4971  0.5620 -0.3153
23000SOL     OW80978  13.440  11.275   6.331  0.2591  0.2173  0.3171
23000SOL    HW180979  13.456  11.335   6.257  0.6199  0.4513  0.5826
23000SOL    HW280980  13.502  11.303   6.398  0.5109 -0.5259  0.4069
23001SOL     OW80981   8.477   0.536  13.347  0.1108 -0.8989  0.4459
23001SOL    HW180982   8.465   0.479  13.423  1.1818 -2.5121 -0.5349
23001SOL    HW280983   8.389   0.545  13.311 -0.0824 -2.0061  0.5880
23002SOL     OW80984   4.155   6.962  12.036  0.5091  0.1874  0.3249
23002SOL    HW180985   4.181   7.048  12.068  1.6036 -0.1805  0.4681
23002SOL    HW280986   4.172   6.965  11.942 -1.0272  0.6682  0.0339
23003SOL     OW80987   8.872   8.719   9.685 -0.4386  0.1998  0.2304
23003SOL    HW180988   8.834   8.678   9.763 -0.4556 -0.3176 -0.0462
23003SOL    HW280989   8.951   8.763   9.717 -0.7732  0.5106  0.6444
23004SOL     OW80990   6.947   1.373   2.500  0.1148  0.2678  0.7159
23004SOL    HW180991   6.893   1.415   2.567 -1.5285 -0.6588  0.0203
23004SOL    HW280992   6.956   1.283   2.529 -0.4246 -0.0882 -0.1789
23005SOL     OW80993   3.070   1.342  12.357 -0.0902 -0.5265  0.2219
23005SOL    HW180994   3.155   1.310  12.388 -0.6027 -2.0830  0.1000
23005SOL    HW280995   3.086   1.364  12.265  0.1634 -0.9012  0.1733
23006SOL     OW80996   1.193   5.671  11.169 -0.2024  0.9984  0.0293
23006SOL    HW180997   1.222   5.714  11.249  0.7650 -0.4199  0.4908
23006SOL    HW280998   1.112   5.716  11.145 -2.5872 -0.7517  3.7808
23007SOL     OW80999   3.931   4.518   5.631  0.1178  0.7592  0.6082
23007SOL    HW181000   3.864   4.566   5.679 -0.7677  0.0651  0.0898
23007SOL    HW281001   3.983   4.587   5.588 -0.7025  1.2840  0.4277
23008SOL     OW81002  10.603   3.790   6.910  0.3860 -0.4461 -0.1237
23008SOL    HW181003  10.580   3.847   6.835  0.9148 -0.6917 -0.4754
23008SOL    HW281004  10.683   3.746   6.883 -0.6558 -2.2716 -0.3410
23009SOL     OW81005   1.159  10.772  12.354  0.1394  0.3392 -0.8098
23009SOL    HW181006   1.088  10.722  12.395 -0.8649  1.8615 -0.6074
23009SOL    HW281007   1.230  10.768  12.418 -0.1476 -0.2567 -0.5126
23010SOL     OW81008   3.125   1.927   2.422  0.1262 -0.2014  0.1606
23010SOL    HW181009   3.065   2.000   2.408 -2.7829 -2.4580 -0.0199
23010SOL    HW281010   3.152   1.935   2.514  1.3259  2.0157 -0.3163
23011SOL     OW81011  13.465   3.492   7.207 -0.2704  0.3719  0.2456
23011SOL    HW181012  13.392   3.472   7.266 -1.4876  1.3431 -0.8795
23011SOL    HW281013  13.424   3.539   7.134  1.2571 -0.4599 -1.1849
23012SOL     OW81014  13.261   0.559  13.020  0.6571 -0.6671  0.5837
23012SOL    HW181015  13.250   0.567  12.925 -0.0257 -0.4454  0.6766
23012SOL    HW281016  13.341   0.608  13.039  0.7686 -0.6712  0.1285
23013SOL     OW81017  10.180   6.276  12.361 -0.5961 -0.3384 -0.1053
23013SOL    HW181018  10.154   6.184  12.360 -1.4854 -0.2646 -4.7717
23013SOL    HW281019  10.244   6.284  12.290  0.9999  2.3494  1.4729
23014SOL     OW81020   5.748   3.629   4.546  0.1132 -0.3236  0.2583
23014SOL    HW181021   5.657   3.599   4.552  0.6598 -1.8737  2.1211
23014SOL    HW281022   5.784   3.582   4.471 -0.9328  1.3788 -1.3858
23015SOL     OW81023   6.481   8.443  12.395 -0.0652 -0.6810 -0.0108
23015SOL    HW181024   6.470   8.534  12.419 -1.0620 -0.4102 -1.3614
23015SOL    HW281025   6.405   8.398  12.432 -0.8374 -0.5155 -1.3405
23016SOL     OW81026   5.268  10.442   1.653 -0.0489  0.3549 -0.1268
23016SOL    HW181027   5.225  10.387   1.587  0.6262  0.5439 -0.7368
23016SOL    HW281028   5.198  10.497   1.687 -0.4508  0.0925 -0.5172
23017SOL     OW81029   0.465  12.099  10.516  0.1118 -0.1218 -0.4531
23017SOL    HW181030   0.462  12.182  10.564 -2.6523  1.4292 -3.0075
23017SOL    HW281031   0.528  12.115  10.445 -0.2715 -0.2673 -0.8283
23018SOL     OW81032   5.995  11.693   9.124 -0.0642 -0.0598  0.1252
23018SOL    HW181033   6.075  11.714   9.076  0.9804 -0.7504  1.5229
23018SOL    HW281034   6.021  11.692   9.216 -1.5187 -0.9721  0.5589
23019SOL     OW81035   4.758   7.911   2.465  0.7096  0.5881 -0.2725
23019SOL    HW181036   4.797   7.866   2.390  0.1330  0.4776 -0.5102
23019SOL    HW281037   4.800   7.997   2.466  0.8216  0.5407 -0.6387
23020SOL     OW81038   6.710   0.867   8.011 -0.2350 -0.2936 -0.6798
23020SOL    HW181039   6.632   0.901   8.055  0.5659 -0.0587  0.6211
23020SOL    HW281040   6.754   0.814   8.077  0.2876 -1.1081 -1.6539
23021SOL     OW81041   2.954   4.995  11.577 -0.7812  0.0036 -0.4074
23021SOL    HW181042   3.045   4.994  11.607 -1.2300 -1.0528  1.0155
23021SOL    HW281043   2.946   5.076  11.527  0.7779  0.4190 -0.0218
23022SOL     OW81044   3.881   5.406   3.744  0.4020  0.1329  0.7331
23022SOL    HW181045   3.919   5.340   3.685 -0.6476  0.5865 -0.4994
23022SOL    HW281046   3.800   5.366   3.776  0.0199  0.6129  0.3778
23023SOL     OW81047   8.408  11.477   5.212  0.0049  0.2102  0.5980
23023SOL    HW181048   8.313  11.477   5.199 -0.0480 -0.3851  0.9435
23023SOL    HW281049   8.429  11.569   5.230 -0.6906  0.1783  1.7455
23024SOL     OW81050   6.246   5.653  10.170  0.1372 -0.3792 -0.6663
23024SOL    HW181051   6.315   5.715  10.197 -0.5298 -0.5188  1.5735
23024SOL    HW281052   6.293   5.581  10.130  1.5281 -1.1305  2.0781
23025SOL     OW81053   1.249   6.740   2.467  0.1218 -0.0639  0.6419
23025SOL    HW181054   1.245   6.714   2.375  1.9606  0.5057  0.3557
23025SOL    HW281055   1.166   6.784   2.484  0.1274  0.6461 -1.0182
23026SOL     OW81056  11.222  11.015   9.119  0.7750  0.0549  0.0662
23026SOL    HW181057  11.198  10.934   9.162 -0.6968  1.3303  1.7851
23026SOL    HW281058  11.200  11.084   9.182 -1.1319  2.0257 -2.5321
23027SOL     OW81059  10.775  11.674  13.750 -0.2228 -0.5274  0.4028
23027SOL    HW181060  10.705  11.720  13.797  0.8539  2.2202 -0.4552
23027SOL    HW281061  10.753  11.582  13.759 -3.4823  0.1559  0.9027
23028SOL     OW81062  12.482   7.166   5.782 -0.2977 -0.1541  0.1954
23028SOL    HW181063  12.451   7.098   5.723  0.9492 -1.5270  1.0436
23028SOL    HW281064  12.503   7.240   5.725 -0.9158 -0.7621 -0.8434
23029SOL     OW81065   1.397   7.898   2.762  0.3157  0.9129 -0.0351
23029SOL    HW181066   1.426   7.831   2.699  0.1311  0.4363  0.3801
23029SOL    HW281067   1.478   7.937   2.794  0.7294 -1.7481  2.5955
23030SOL     OW81068   2.948  12.285   2.441  0.3233  0.4166  0.4162
23030SOL    HW181069   3.044  12.288   2.449  0.8616 -3.8441 -1.3775
23030SOL    HW281070   2.920  12.238   2.519 -0.0495  0.0173  0.0462
23031SOL     OW81071   3.158   0.339   4.893  0.5972  0.3384  0.1649
23031SOL    HW181072   3.134   0.309   4.980 -1.1391 -0.5625 -0.5652
23031SOL    HW281073   3.076   0.372   4.855  1.7015  2.5555 -0.4521
23032SOL     OW81074  11.040   5.115   3.570  0.3106 -0.1155 -0.4223
23032SOL    HW181075  10.983   5.135   3.644 -1.0767 -1.1729 -1.1444
23032SOL    HW281076  11.125   5.151   3.594 -0.2705  0.1461  1.3818
23033SOL     OW81077   4.501   1.375   8.373 -0.7639 -0.9199 -0.1957
23033SOL    HW181078   4.514   1.453   8.428  0.5619 -2.7487  2.2991
23033SOL    HW281079   4.446   1.405   8.301  0.1028  2.4305  0.3683
23034SOL     OW81080   9.166  11.757   5.683 -0.8900 -0.3326 -0.3862
23034SOL    HW181081   9.225  11.716   5.620 -0.0871  0.4693 -0.1758
23034SOL    HW281082   9.170  11.700   5.760  1.0346  0.6475  0.2959
23035SOL     OW81083   8.631   2.324  10.210 -0.3585 -0.6222 -0.5472
23035SOL    HW181084   8.548   2.293  10.247  0.1491 -1.5770 -0.1576
23035SOL    HW281085   8.698   2.268  10.252  0.7151  1.5316  0.7967
23036SOL     OW81086  11.274   8.187   1.504 -0.1998 -0.2347  0.0996
23036SOL    HW181087  11.370   8.186   1.495 -0.3026  0.1366 -1.1347
23036SOL    HW281088  11.243   8.122   1.441 -0.7507 -0.7140  0.8476
23037SOL     OW81089   9.608   3.032  12.249 -0.1557  0.6749  0.7371
23037SOL    HW181090   9.628   3.067  12.162 -0.8326 -2.4290 -0.8164
23037SOL    HW281091   9.521   3.067  12.269  0.0472  1.4922  0.2248
23038SOL     OW81092   4.997   3.608   0.022  0.4868  0.1307 -0.4699
23038SOL    HW181093   5.082   3.593   0.064  0.3405  0.6987  0.0422
23038SOL    HW281094   5.016   3.605  -0.072  0.7601 -1.4973 -0.3920
23039SOL     OW81095  12.595   4.782   6.693 -0.5620  0.0455  0.1656
23039SOL    HW181096  12.622   4.752   6.606 -0.4544 -0.3645  0.3408
23039SOL    HW281097  12.534   4.715   6.723 -0.8044  0.3256  0.2952
23040SOL     OW81098   2.866  13.195  12.062  0.0584  0.8344  0.3498
23040SOL    HW181099   2.945  13.201  12.116 -0.7631  0.3485  1.6296
23040SOL    HW281100   2.818  13.120  12.097  0.8664 -1.4293 -2.9203
23041SOL     OW81101  11.242  12.268   9.957  0.4241  0.3572 -0.1589
23041SOL    HW181102  11.304  12.201   9.988  0.1232 -0.4066 -1.1497
23041SOL    HW281103  11.296  12.326   9.904  0.2322 -0.6477 -1.5206
23042SOL     OW81104  11.388   6.722  11.834  0.0777 -0.0201 -0.3730
23042SOL    HW181105  11.430   6.806  11.817  0.6637 -0.2737 -0.2143
23042SOL    HW281106  11.434   6.688  11.911  0.1483 -0.6851 -0.7086
23043SOL     OW81107   2.727   8.754   3.091 -0.0293 -0.1539 -0.1192
23043SOL    HW181108   2.752   8.796   3.173 -0.0107  0.3463 -0.3769
23043SOL    HW281109   2.762   8.812   3.023  0.0037 -0.5914 -0.4810
23044SOL     OW81110   1.871   5.548   8.271  0.4058  0.8411  0.2374
23044SOL    HW181111   1.852   5.516   8.359 -0.1610 -0.4237 -0.3125
23044SOL    HW281112   1.792   5.596   8.245  0.4204  0.8908  0.2866
23045SOL     OW81113   4.877   1.567   2.238  0.9220 -0.3865 -0.1070
23045SOL    HW181114   4.838   1.624   2.172 -1.5854 -0.0112  1.5195
23045SOL    HW281115   4.947   1.619   2.277 -0.4264  1.1498  0.4095
23046SOL     OW81116  12.179  12.993   3.363  0.4990  0.0859 -0.0899
23046SOL    HW181117  12.085  13.008   3.377  0.6792  0.9443  0.2797
23046SOL    HW281118  12.189  12.898   3.364 -0.2792  0.0007  0.4784
23047SOL     OW81119   1.008  12.869   7.626  0.1568  0.2736  0.1590
23047SOL    HW181120   0.918  12.845   7.603  0.3961  0.4006 -0.9478
23047SOL    HW281121   0.999  12.919   7.707 -0.9625  1.8209 -0.8711
23048SOL     OW81122   9.595   4.547  11.465  0.1020 -0.5119  0.3922
23048SOL    HW181123   9.652   4.549  11.388  1.0676 -0.7198  1.0750
23048SOL    HW281124   9.528   4.482  11.444 -1.3010  1.3905 -1.3535
23049SOL     OW81125  13.005   4.484   1.705 -0.4372  0.4669 -0.2377
23049SOL    HW181126  13.037   4.399   1.674  0.3157  0.8322 -0.4923
23049SOL    HW281127  13.043   4.547   1.644  0.0017  1.0853  0.6553
23050SOL     OW81128   4.497   6.653   2.312  0.3379 -0.0667 -0.1799
23050SOL    HW181129   4.544   6.673   2.393 -1.5428 -0.5121  1.0959
23050SOL    HW281130   4.562   6.665   2.243  1.8735  0.8391  1.3352
23051SOL     OW81131   1.286  12.783   5.629 -0.0580 -0.2476  0.0094
23051SOL    HW181132   1.308  12.697   5.666 -0.2272 -0.2800  0.0345
23051SOL    HW281133   1.225  12.764   5.558  0.5850 -0.2224 -0.5658
23052SOL     OW81134   2.575  11.176   9.421  0.6279 -0.6426 -0.3884
23052SOL    HW181135   2.541  11.103   9.369  0.0168 -1.1086  0.6498
23052SOL    HW281136   2.527  11.172   9.504 -0.0251  1.4515 -0.6022
23053SOL     OW81137  10.746   9.891   0.602  0.3707  0.4018  0.2292
23053SOL    HW181138  10.693   9.849   0.535  0.3719  0.2346  0.3316
23053SOL    HW281139  10.689   9.958   0.640  0.1102 -0.0017  0.5718
23054SOL     OW81140   6.701   0.152   4.357  0.0010  0.2916 -0.1367
23054SOL    HW181141   6.646   0.146   4.435  1.9892  2.1353  1.5298
23054SOL    HW281142   6.726   0.244   4.352  2.6542 -0.3960 -0.9680
23055SOL     OW81143   1.874   5.522   7.982  0.8617 -0.8381 -0.2561
23055SOL    HW181144   1.883   5.529   8.077  0.1486  0.2734 -0.2482
23055SOL    HW281145   1.955   5.561   7.948 -0.2691  1.8599 -0.1029
23056SOL     OW81146   1.044   7.625  10.388  0.2208  0.0290  0.2245
23056SOL    HW181147   1.070   7.684  10.318  0.5434  0.6973  0.8993
23056SOL    HW281148   0.955   7.653  10.411 -0.2446 -0.7736 -0.5145
23057SOL     OW81149  11.307  13.834   1.662  0.1470  0.4382 -0.4336
23057SOL    HW181150  11.307  13.745   1.698  1.4120  0.8537  0.6587
23057SOL    HW281151  11.217  13.864   1.673  0.0786 -0.1326  0.6700
23058SOL     OW81152   9.519   5.330   8.358  0.1292 -0.0325  0.4042
23058SOL    HW181153   9.496   5.420   8.335 -0.1610  0.0724  1.0721
23058SOL    HW281154   9.453   5.277   8.315 -1.7037  0.2886  2.6151
23059SOL     OW81155   1.611   6.192   3.016  0.1603 -0.0139  0.0503
23059SOL    HW181156   1.614   6.162   2.925 -0.7695 -0.6307  0.2135
23059SOL    HW281157   1.537   6.145   3.055  1.1773 -0.5543  1.4169
23060SOL     OW81158   3.956   9.361  12.144 -0.2946 -0.1469  0.0383
23060SOL    HW181159   4.018   9.306  12.097  0.7140  1.5333 -0.6558
23060SOL    HW281160   4.003   9.390  12.222 -1.1035 -0.8662  0.8297
23061SOL     OW81161   4.413   7.006   1.376 -0.3108 -0.2659  0.0762
23061SOL    HW181162   4.340   7.062   1.348 -1.1847 -0.9160  0.9530
23061SOL    HW281163   4.450   7.051   1.452  0.0070 -0.0939 -0.1784
23062SOL     OW81164   8.885   9.189   8.856 -0.6040 -0.0551 -0.8157
23062SOL    HW181165   8.976   9.212   8.836 -0.0643  0.5475  1.8751
23062SOL    HW281166   8.837   9.208   8.776  1.5617  0.0234 -2.1831
23063SOL     OW81167   0.164   3.530  11.210  0.3253 -0.1805 -0.8658
23063SOL    HW181168   0.182   3.511  11.303 -2.4337 -2.5371 -0.6701
23063SOL    HW281169   0.235   3.485  11.164  2.0137  1.4210  0.0371
23064SOL     OW81170   5.363   0.104   1.697 -0.0758  0.0124 -0.1677
23064SOL    HW181171   5.363   0.010   1.676 -4.1455 -0.1392 -0.3713
23064SOL    HW281172   5.404   0.109   1.783  0.1287 -1.9792 -0.0886
23065SOL     OW81173   6.989   2.033   8.778  0.3151  0.0422 -0.1169
23065SOL    HW181174   6.987   1.960   8.716  0.0041  0.7628 -0.9665
23065SOL    HW281175   6.914   2.016   8.836  0.0636 -0.1608 -0.4938
23066SOL     OW81176   7.993   7.173  13.856  0.3942  0.6684  0.4894
23066SOL    HW181177   7.897   7.173  13.861  0.4181 -0.5724  1.0727
23066SOL    HW281178   8.013   7.238  13.788 -0.8134  1.6852  1.0751
23067SOL     OW81179   5.294   5.173  11.734 -0.4797  0.5057 -0.4122
23067SOL    HW181180   5.301   5.089  11.779 -1.3321  0.2886 -0.6659
23067SOL    HW281181   5.332   5.236  11.795 -1.4454  0.1981  0.5507
23068SOL     OW81182   8.741   1.613  10.764  0.1113  0.4070 -0.2409
23068SOL    HW181183   8.687   1.636  10.840  0.3284 -0.1955  0.0999
23068SOL    HW281184   8.826   1.589  10.802 -0.2896 -1.5893 -0.5016
23069SOL     OW81185  11.150  11.996  10.602 -0.1066 -0.3764  0.1502
23069SOL    HW181186  11.226  12.046  10.573 -0.6332 -0.7911 -2.0922
23069SOL    HW281187  11.172  11.969  10.692  2.3816 -0.4822 -0.4235
23070SOL     OW81188   3.910   0.105   6.921 -0.4791 -0.0875 -0.0878
23070SOL    HW181189   3.946   0.122   6.834  1.0237 -0.4861  0.4279
23070SOL    HW281190   3.964   0.158   6.980 -0.3782 -1.1198  0.7711
23071SOL     OW81191   2.533   2.563  11.134  0.7127  0.8088  0.4346
23071SOL    HW181192   2.575   2.483  11.104  0.2904  0.4770  0.7206
23071SOL    HW281193   2.560   2.629  11.070 -1.0657 -0.0955 -1.3726
23072SOL     OW81194   0.190   7.994   5.172  0.2568 -0.4017 -0.1995
23072SOL    HW181195   0.166   8.076   5.215  1.8720  0.2989 -0.5748
23072SOL    HW281196   0.166   7.926   5.235  0.7225  0.4777  0.9608
23073SOL     OW81197   3.090   0.677   0.748 -0.0907 -0.0457 -0.6025
23073SOL    HW181198   3.155   0.618   0.710 -2.0100 -0.3486 -3.8252
23073SOL    HW281199   3.113   0.763   0.713 -1.0927 -0.0877 -1.4182
23074SOL     OW81200   7.821   4.805  13.692 -0.2929  0.7176 -0.1424
23074SOL    HW181201   7.730   4.777  13.678  0.6637 -2.0533 -1.6320
23074SOL    HW281202   7.861   4.802  13.605  1.7032 -0.0917  0.7460
23075SOL     OW81203  13.975  12.891  11.255  0.6531 -0.0379 -0.0433
23075SOL    HW181204  14.069  12.883  11.240  0.4940 -0.9768 -0.7228
23075SOL    HW281205  13.945  12.955  11.190  0.7528 -0.1067 -0.1566
23076SOL     OW81206   0.666   7.696   8.298  0.0285 -0.3838 -0.0668
23076SOL    HW181207   0.750   7.656   8.319  1.2675  2.1735  0.3031
23076SOL    HW281208   0.636   7.652   8.219  2.3934 -0.4755 -0.9654
23077SOL     OW81209  12.239   9.226  12.265  0.1021 -0.0258  0.4834
23077SOL    HW181210  12.194   9.152  12.225 -0.5880  0.4326  0.3837
23077SOL    HW281211  12.169   9.275  12.309  0.4817  0.7588  0.2402
23078SOL     OW81212   9.189   1.391  13.182 -0.4756  0.1425 -0.7751
23078SOL    HW181213   9.157   1.319  13.236 -1.6684  1.5319  0.4518
23078SOL    HW281214   9.284   1.381  13.182 -0.6696 -2.2133 -1.8233
23079SOL     OW81215  12.979   8.109  10.674 -0.1465  0.0869 -0.4607
23079SOL    HW181216  13.041   8.039  10.695 -0.0164  0.0129 -1.0877
23079SOL    HW281217  13.030   8.189  10.676 -0.0958  0.0591 -0.6786
23080SOL     OW81218   3.827   7.375   3.524 -0.7107  0.3339 -0.2800
23080SOL    HW181219   3.804   7.466   3.504 -0.6127  0.2659 -0.7175
23080SOL    HW281220   3.744   7.328   3.519 -0.8056  0.4408  0.2111
23081SOL     OW81221  11.693  13.091   5.076  0.3322  0.2183 -0.2547
23081SOL    HW181222  11.759  13.155   5.048 -0.7546  0.7008 -1.9019
23081SOL    HW281223  11.731  13.006   5.051  0.5952  0.4442 -0.6498
23082SOL     OW81224   3.936   0.583   3.762 -0.0375 -0.3057  0.1030
23082SOL    HW181225   3.857   0.571   3.815 -0.4618  1.1849 -0.1382
23082SOL    HW281226   3.904   0.574   3.671  0.0575  0.2982  0.0057
23083SOL     OW81227  13.741  10.549   4.331 -0.4648 -0.0492 -0.0209
23083SOL    HW181228  13.756  10.634   4.290  1.9437 -0.7420 -0.7399
23083SOL    HW281229  13.794  10.488   4.279 -1.2425 -1.8037  1.1556
23084SOL     OW81230   0.842   0.277   9.255  0.2459  0.3697 -0.3787
23084SOL    HW181231   0.832   0.372   9.264  0.4440  0.3346  0.3018
23084SOL    HW281232   0.754   0.242   9.270  0.2999  0.4078  0.0409
23085SOL     OW81233   6.422   0.555  13.873 -0.3548  0.3425 -0.1158
23085SOL    HW181234   6.423   0.518  13.785 -1.3606  0.1914 -0.0798
23085SOL    HW281235   6.514   0.563  13.898 -0.0522 -2.7197  0.1169
23086SOL     OW81236  10.553   4.597   5.047  0.1347  0.1550 -0.1399
23086SOL    HW181237  10.570   4.672   4.990 -0.7010 -0.2259 -0.9061
23086SOL    HW281238  10.542   4.635   5.134  0.5259  0.8342 -0.3773
23087SOL     OW81239  11.175   7.565   4.643 -0.3190  0.6798 -0.2353
23087SOL    HW181240  11.083   7.580   4.665 -0.5558  0.5301 -1.0870
23087SOL    HW281241  11.172   7.504   4.569  0.5156 -0.4368  0.6175
23088SOL     OW81242   8.543  11.721   5.227 -0.3691 -0.5557  0.3267
23088SOL    HW181243   8.617  11.695   5.282  0.1044  1.2579  0.6181
23088SOL    HW281244   8.540  11.816   5.235 -2.3139 -0.5261 -0.2399
23089SOL     OW81245   6.792   7.647  12.031 -0.5643 -0.1280 -0.0292
23089SOL    HW181246   6.791   7.731  11.985  0.4772  0.2577  0.6265
23089SOL    HW281247   6.875   7.646  12.078 -1.2616 -0.8423  1.2308
23090SOL     OW81248   4.504  10.286   9.772  0.0167 -0.0654  0.2795
23090SOL    HW181249   4.468  10.204   9.738  2.3404 -1.2563  0.4767
23090SOL    HW281250   4.542  10.329   9.695 -1.7996  1.2355  0.0505
23091SOL     OW81251   8.502   6.068   7.195  0.1471 -0.3361  0.2150
23091SOL    HW181252   8.448   5.997   7.228 -0.9948  0.5375  0.3061
23091SOL    HW281253   8.567   6.084   7.264 -0.9951  0.1854  1.1887
23092SOL     OW81254   9.288   6.146   7.910  0.3463 -0.0913  0.3141
23092SOL    HW181255   9.264   6.085   7.980  1.3395 -1.7826 -0.7686
23092SOL    HW281256   9.229   6.125   7.838  1.1468 -0.2523 -0.3044
23093SOL     OW81257   2.740   1.526   1.411  0.2224 -0.4609 -0.1445
23093SOL    HW181258   2.665   1.584   1.396  0.5000  0.5846  2.0053
23093SOL    HW281259   2.744   1.471   1.333 -1.0884  1.2937 -1.5503
23094SOL     OW81260   8.073   7.538   6.093  0.3529  0.2181  0.1788
23094SOL    HW181261   8.167   7.522   6.081  0.5176  1.0053  0.3801
23094SOL    HW281262   8.057   7.520   6.185  0.2448 -0.2025  0.0791
23095SOL     OW81263   3.418  10.326  12.311 -0.3090 -0.0601 -0.1092
23095SOL    HW181264   3.484  10.394  12.319  0.2160 -0.7516  2.0727
23095SOL    HW281265   3.436  10.284  12.227  0.5519  1.2317 -0.5924
23096SOL     OW81266  11.540   7.398   1.502 -0.4054 -0.2273 -0.3717
23096SOL    HW181267  11.608   7.446   1.549  0.1402 -1.1003 -0.2505
23096SOL    HW281268  11.576   7.384   1.414  0.4181 -2.3450  0.2394
23097SOL     OW81269   4.246   4.190   9.836  0.0722  0.1657 -0.2839
23097SOL    HW181270   4.173   4.132   9.814 -0.3634 -0.3743  2.2357
23097SOL    HW281271   4.321   4.155   9.788 -0.6967 -1.0286 -0.6575
23098SOL     OW81272  11.993   8.214  13.569  0.0937  0.0767  0.2078
23098SOL    HW181273  11.979   8.255  13.655 -0.5250  0.4344 -0.0588
23098SOL    HW281274  12.060   8.147  13.585 -2.0909 -1.9354  1.6205
23099SOL     OW81275   4.540   8.580  14.028 -0.3669  0.6336 -0.1220
23099SOL    HW181276   4.542   8.485  14.020 -0.9374  0.5081  0.9414
23099SOL    HW281277   4.477   8.596  14.099 -0.9741  1.8459 -0.9058
23100SOL     OW81278  12.398   4.780   3.166  0.4253 -0.3532  0.2471
23100SOL    HW181279  12.470   4.746   3.112 -0.7059 -2.4797 -0.0289
23100SOL    HW281280  12.347   4.702   3.190 -1.4484  1.0159  0.9624
23101SOL     OW81281   3.062   1.501   6.573 -0.7017 -0.3428 -0.2240
23101SOL    HW181282   2.978   1.513   6.617 -0.5059 -3.0927  1.1337
23101SOL    HW281283   3.068   1.407   6.559  2.2943 -0.2801  0.0297
23102SOL     OW81284   3.313   3.532   9.452  0.1737  0.3321  0.0876
23102SOL    HW181285   3.271   3.467   9.509 -0.1030 -0.2719 -0.7906
23102SOL    HW281286   3.292   3.616   9.492 -1.6200  0.0328 -0.1643
23103SOL     OW81287  14.020   0.029  13.678  0.6617 -0.0404 -0.1301
23103SOL    HW181288  14.091   0.032  13.743  1.0154 -1.4381 -0.4109
23103SOL    HW281289  13.993   0.120  13.668  1.7741  0.4106  0.6972
23104SOL     OW81290   2.314  14.038   0.227  0.6297 -0.0413 -0.0089
23104SOL    HW181291   2.266  14.119   0.244  0.9545  0.3817 -1.0005
23104SOL    HW281292   2.271  13.972   0.281  0.8024  0.9302  1.3661
23105SOL     OW81293   0.505   2.826   0.133  0.1597  0.3984  0.2694
23105SOL    HW181294   0.571   2.855   0.070 -0.0785  1.6779  0.5820
23105SOL    HW281295   0.422   2.857   0.097 -0.3090 -1.1949 -0.1181
23106SOL     OW81296   1.464   6.198  10.759  0.1533  0.5500  0.7244
23106SOL    HW181297   1.511   6.190  10.842  1.4684 -1.2823 -0.1409
23106SOL    HW281298   1.385   6.144  10.771  1.5089 -1.7094  0.0625
23107SOL     OW81299   0.308   9.215  13.305 -0.1832 -0.6031 -0.4057
23107SOL    HW181300   0.351   9.299  13.325  0.7222 -0.9001 -1.0316
23107SOL    HW281301   0.214   9.235  13.308  0.0231  0.6395 -1.3606
23108SOL     OW81302  12.151   6.060  12.913 -0.4115  0.2757 -0.1083
23108SOL    HW181303  12.203   6.139  12.897  0.2872 -0.3842 -1.3110
23108SOL    HW281304  12.137   6.059  13.007 -1.6739  2.5836 -0.1834
23109SOL     OW81305   1.708   9.050   2.033  0.0394 -0.2971  0.4606
23109SOL    HW181306   1.707   9.055   2.129  0.6217  0.9874  0.4296
23109SOL    HW281307   1.800   9.059   2.010 -0.1381 -0.2099 -0.2258
23110SOL     OW81308   9.488   7.060   7.220  0.0507  0.1725  0.5207
23110SOL    HW181309   9.571   7.026   7.187 -0.2455 -1.9006  1.7120
23110SOL    HW281310   9.431   7.065   7.144  0.6582 -0.3450  0.0243
23111SOL     OW81311  10.751  10.989   1.906 -0.3735 -0.0675  0.5988
23111SOL    HW181312  10.764  10.895   1.906  0.6091  0.0498 -0.4053
23111SOL    HW281313  10.837  11.026   1.926 -0.5914  0.6144  0.3217
23112SOL     OW81314   1.768  11.287   6.786 -0.0909  0.2769  0.2702
23112SOL    HW181315   1.674  11.300   6.801  0.1578  1.5652  0.8272
23112SOL    HW281316   1.781  11.309   6.694 -0.5978 -1.6472 -0.3176
23113SOL     OW81317   5.407  13.901  12.253 -0.8363  0.1650 -0.8006
23113SOL    HW181318   5.435  13.890  12.344 -2.0548 -0.0961 -0.4355
23113SOL    HW281319   5.482  13.940  12.209  0.1184 -0.6157  0.0957
23114SOL     OW81320   1.952   9.058   2.214 -0.2505 -0.2291  0.1665
23114SOL    HW181321   1.879   9.051   2.275 -0.7091  1.9282 -0.0732
23114SOL    HW281322   1.955   9.150   2.190  2.3877 -0.2964 -0.0568
23115SOL     OW81323   5.089   0.490  10.629  0.5157 -0.3552  0.4890
23115SOL    HW181324   5.096   0.420  10.693  2.0323 -0.3569  0.3548
23115SOL    HW281325   5.056   0.448  10.550  0.6840 -0.7731  0.6400
23116SOL     OW81326  10.089   6.777  13.178 -0.1214  0.5376 -0.1894
23116SOL    HW181327  10.089   6.683  13.160 -0.4965  0.2222  1.3017
23116SOL    HW281328  10.176   6.795  13.214 -1.0016  0.0812  2.4534
23117SOL     OW81329   6.954   6.368   5.727  0.3536 -0.1180  0.1322
23117SOL    HW181330   6.969   6.275   5.746  3.1176  0.2870  0.3159
23117SOL    HW281331   6.971   6.412   5.810  1.6670  0.7500 -0.5779
23118SOL     OW81332  12.122   9.049  12.564 -0.2490 -0.0475  0.1030
23118SOL    HW181333  12.113   8.999  12.483  0.4005 -0.8713  0.5285
23118SOL    HW281334  12.097   8.988  12.633 -2.0944  1.0369  0.4709
23119SOL     OW81335   7.648   3.636   5.315  0.3097  0.4084 -0.3816
23119SOL    HW181336   7.647   3.731   5.308 -1.4564  0.4708  0.1366
23119SOL    HW281337   7.717   3.608   5.256  0.3069  1.9661 -1.1769
23120SOL     OW81338   5.889   9.875   2.795  0.0160  0.5340  0.8357
23120SOL    HW181339   5.912   9.783   2.787 -1.9656 -0.0144  0.8716
23120SOL    HW281340   5.865   9.886   2.887  1.4730  1.4443  1.1502
23121SOL     OW81341  11.072   6.869  10.260  0.4240 -0.5000  0.0305
23121SOL    HW181342  11.008   6.940  10.266 -0.0567 -0.9047 -0.2272
23121SOL    HW281343  11.100   6.855  10.350  1.3425  0.7425 -0.0342
23122SOL     OW81344  11.650   0.627   7.835  0.6837  0.4585 -0.9120
23122SOL    HW181345  11.693   0.542   7.848  1.9092  1.4026  2.0395
23122SOL    HW281346  11.574   0.625   7.893 -0.2201  0.8445 -2.0365
23123SOL     OW81347   0.483   9.769  10.126  0.4144  0.5223  0.9282
23123SOL    HW181348   0.540   9.754  10.051 -1.3947  0.1695 -0.4483
23123SOL    HW281349   0.509   9.855  10.159  0.9410  0.8896 -0.3931
23124SOL     OW81350   7.163   7.605   2.521 -0.0596 -0.0312  0.3801
23124SOL    HW181351   7.229   7.674   2.513 -0.1536 -0.0879 -1.5229
23124SOL    HW281352   7.080   7.653   2.526 -0.1103  0.0344 -0.7560
23125SOL     OW81353   6.728  10.605  13.943  0.5012 -0.3819  0.8072
23125SOL    HW181354   6.753  10.688  13.983  0.7247 -0.5038  0.9221
23125SOL    HW281355   6.644  10.583  13.984  0.9186 -0.7045  1.5042
23126SOL     OW81356  12.604  11.125  13.947  0.0194  0.3337 -0.4746
23126SOL    HW181357  12.638  11.042  13.980  0.9962  0.1802 -1.8202
23126SOL    HW281358  12.568  11.168  14.025 -0.0915 -1.1297  0.3277
23127SOL     OW81359   2.258   8.621   4.372 -0.5456  0.4039 -0.0171
23127SOL    HW181360   2.219   8.547   4.419  0.0206 -0.3973 -0.7864
23127SOL    HW281361   2.336   8.585   4.330 -0.7393  1.2198 -1.1361
23128SOL     OW81362   6.015   0.428   9.728  0.4579  0.0092 -1.1199
23128SOL    HW181363   5.948   0.372   9.768  2.2969 -0.5993  1.3245
23128SOL    HW281364   6.060   0.372   9.666  2.2613 -1.4004  1.2777
23129SOL     OW81365   0.317   1.533   8.649  0.7467  0.2093 -0.9139
23129SOL    HW181366   0.405   1.563   8.668  0.3465  0.6492  0.3261
23129SOL    HW281367   0.329   1.450   8.602  1.8048 -0.2678  0.1746
23130SOL     OW81368  11.759  10.100  12.090 -0.2419  0.2477 -0.0797
23130SOL    HW181369  11.720  10.145  12.165 -1.2989 -0.6486 -0.0645
23130SOL    HW281370  11.756  10.163  12.019 -3.0052 -0.1717 -0.4474
23131SOL     OW81371  11.893   6.491   6.382  0.3637  0.2345  0.1443
23131SOL    HW181372  11.890   6.516   6.290 -2.3586  0.7277  0.2953
23131SOL    HW281373  11.966   6.430   6.388  2.2809  2.1474 -1.7907
23132SOL     OW81374   1.855   6.504   9.176  0.4635 -0.2334  0.1591
23132SOL    HW181375   1.848   6.490   9.271  0.7394  0.4214  0.2799
23132SOL    HW281376   1.937   6.551   9.165  0.3607 -0.1814 -0.3945
23133SOL     OW81377   8.881   6.349   6.696  0.5840 -0.1351  0.1610
23133SOL    HW181378   8.920   6.360   6.610 -0.6642  0.6692 -0.3202
23133SOL    HW281379   8.926   6.273   6.733  2.4987  0.6711 -0.3989
23134SOL     OW81380   8.354   2.263  13.209 -0.2174  1.2159 -0.4779
23134SOL    HW181381   8.330   2.174  13.182  0.2664  0.7242  0.6644
23134SOL    HW281382   8.287   2.318  13.169 -1.4280  0.1791  0.0391
23135SOL     OW81383   3.291   8.284   1.745  0.2736  0.4814  0.5090
23135SOL    HW181384   3.322   8.353   1.804  0.8141 -0.7879  1.7718
23135SOL    HW281385   3.364   8.272   1.683 -0.4314  2.0550 -0.7116
23136SOL     OW81386   1.836   5.860  13.525 -0.5149  0.0107 -0.0542
23136SOL    HW181387   1.912   5.854  13.468  0.4549  0.6788  1.1131
23136SOL    HW281388   1.775   5.917  13.478 -0.0998 -0.1442 -0.7988
23137SOL     OW81389   7.416  10.602  12.460  0.7432 -0.2336 -0.0595
23137SOL    HW181390   7.388  10.680  12.412  0.6110  0.1530  0.6343
23137SOL    HW281391   7.506  10.622  12.488  1.5075 -1.1904 -1.6839
23138SOL     OW81392  13.577   0.606  11.039 -0.1488 -0.1840  0.1729
23138SOL    HW181393  13.624   0.523  11.044 -0.8172 -0.6181 -0.5147
23138SOL    HW281394  13.561   0.620  10.946 -1.7159 -0.2587  0.3965
23139SOL     OW81395  13.589   1.226   2.949  0.2923 -0.5112  1.0897
23139SOL    HW181396  13.682   1.208   2.962  0.5694  0.8238  1.0423
23139SOL    HW281397  13.585   1.280   2.870 -0.5855 -1.0384  0.7534
23140SOL     OW81398   0.369  10.570   2.776  0.0492  0.2069  0.1972
23140SOL    HW181399   0.413  10.643   2.732 -0.1919  0.1385 -0.1638
23140SOL    HW281400   0.280  10.571   2.741  0.7944 -2.0895 -2.1647
23141SOL     OW81401   2.879   9.305   1.348  0.3253  0.4567  0.6738
23141SOL    HW181402   2.878   9.258   1.431  2.3996  1.3112  1.2549
23141SOL    HW281403   2.940   9.377   1.362 -0.3669  1.4831 -1.1634
23142SOL     OW81404  12.353  10.818   2.086  0.1610  0.0366 -0.2013
23142SOL    HW181405  12.275  10.874   2.093  0.5331  0.5544 -0.1573
23142SOL    HW281406  12.412  10.866   2.029  0.5917 -0.1955  0.0451
23143SOL     OW81407   8.770   7.009   8.331 -0.7147  0.2237 -0.4178
23143SOL    HW181408   8.790   7.088   8.381 -0.0246  0.0315 -0.3917
23143SOL    HW281409   8.700   7.037   8.271 -0.5684  0.8162 -0.3221
23144SOL     OW81410   2.910  10.038  13.957 -0.1292 -0.2235  0.2257
23144SOL    HW181411   2.892  10.126  13.989  3.6569  0.8590 -0.1426
23144SOL    HW281412   2.979  10.005  14.015  1.0062 -1.4832 -1.7086
23145SOL     OW81413  10.856   9.416   4.251 -0.0904 -0.2961 -0.2146
23145SOL    HW181414  10.928   9.472   4.281 -0.4297  0.1534 -0.2376
23145SOL    HW281415  10.838   9.359   4.326 -1.3151  1.1978  0.6934
23146SOL     OW81416  13.810   3.696   2.190  0.1099  0.3622 -0.6691
23146SOL    HW181417  13.861   3.628   2.145 -0.9317 -1.2293  0.4543
23146SOL    HW281418  13.719   3.674   2.171 -0.2517  1.4767 -0.2982
23147SOL     OW81419   0.838   2.432  12.639  0.0762  0.0369 -0.5768
23147SOL    HW181420   0.800   2.518  12.624 -1.0373 -0.4213 -0.5099
23147SOL    HW281421   0.848   2.426  12.734 -1.6187 -0.5909 -0.3934
23148SOL     OW81422   3.866  12.236   8.868  0.0499 -0.3390 -0.7156
23148SOL    HW181423   3.853  12.142   8.884 -2.0379  0.0746  0.2857
23148SOL    HW281424   3.924  12.264   8.939 -0.5691 -0.5924 -0.0944
23149SOL     OW81425   4.042   9.965   7.667  0.2530 -0.7525  0.2751
23149SOL    HW181426   4.129   9.991   7.697 -0.8606  0.4693  2.7068
23149SOL    HW281427   3.986  10.039   7.690 -1.5585 -1.7765 -0.6724
23150SOL     OW81428  13.691   6.200  14.012  0.0500 -0.2119  0.2924
23150SOL    HW181429  13.719   6.176  13.923 -2.1729  1.4183 -0.9517
23150SOL    HW281430  13.628   6.132  14.036 -0.9586  0.4837 -0.3120
23151SOL     OW81431   3.526   9.558   4.515  0.1204  0.1778 -0.1195
23151SOL    HW181432   3.511   9.588   4.605  2.0290 -0.2507  0.3897
23151SOL    HW281433   3.490   9.629   4.461 -0.0573  0.9723  0.9833
23152SOL     OW81434   0.077  11.208   7.156  0.3549 -0.5025 -0.2268
23152SOL    HW181435   0.120  11.127   7.126 -0.5442 -0.2338 -2.4603
23152SOL    HW281436   0.149  11.267   7.175  1.0952 -0.4843 -2.6522
23153SOL     OW81437   8.702   8.348  12.553  0.0244  0.8102  0.8146
23153SOL    HW181438   8.691   8.397  12.635 -1.0716  1.0741  0.5311
23153SOL    HW281439   8.786   8.303  12.563  0.2432  1.3971  1.7887
23154SOL     OW81440   2.567  11.889  12.578 -0.8307 -0.4665  0.1642
23154SOL    HW181441   2.597  11.824  12.642 -1.4167  0.0005  0.9417
23154SOL    HW281442   2.621  11.966  12.596 -0.7329 -0.4585 -0.1682
23155SOL     OW81443   1.503   7.018   1.059  0.0704 -0.6560  0.1192
23155SOL    HW181444   1.552   7.100   1.058 -0.1026 -0.5444 -1.2142
23155SOL    HW281445   1.525   6.976   0.976  0.5275 -2.2031  0.9828
23156SOL     OW81446   5.203   7.185   6.826 -0.1713  0.1228  0.2858
23156SOL    HW181447   5.156   7.118   6.877  1.3464 -0.4083  1.0653
23156SOL    HW281448   5.290   7.188   6.867  0.7896  0.3783 -1.6968
23157SOL     OW81449   3.117  12.214   0.593  0.4754  0.5484 -0.3252
23157SOL    HW181450   3.101  12.239   0.684 -0.8997  2.9540 -1.1344
23157SOL    HW281451   3.147  12.295   0.551 -2.4727  0.5594 -2.7778
23158SOL     OW81452   9.635  13.260   9.380  0.2812 -0.3056 -0.3445
23158SOL    HW181453   9.654  13.220   9.466  0.9003 -0.0932 -0.3761
23158SOL    HW281454   9.545  13.235   9.362 -0.2519  0.5761  0.8915
23159SOL     OW81455   8.548   6.046   5.096  0.4354 -0.4289  0.0932
23159SOL    HW181456   8.483   6.108   5.129  1.1384  1.5933 -2.1022
23159SOL    HW281457   8.496   5.983   5.045 -0.0489 -0.4396  0.5805
23160SOL     OW81458   3.205  10.669   2.572 -0.0777  0.4408 -0.1027
23160SOL    HW181459   3.145  10.595   2.579  2.1241 -1.4719 -0.2147
23160SOL    HW281460   3.291  10.629   2.558  0.8865  3.0609 -2.7669
23161SOL     OW81461   1.575   5.512  12.645 -0.1111  0.5263  0.1969
23161SOL    HW181462   1.601   5.565  12.720  0.1009  1.3168 -0.4171
23161SOL    HW281463   1.611   5.425  12.664 -2.0999  0.0463  2.1171
23162SOL     OW81464   6.515   4.476   1.570  0.4824 -0.2414  0.0204
23162SOL    HW181465   6.592   4.532   1.568  0.3660 -0.0371 -2.3035
23162SOL    HW281466   6.443   4.534   1.594  0.4453  0.5598 -1.8712
23163SOL     OW81467   2.427   8.643  12.350 -0.1613  0.0891 -0.3294
23163SOL    HW181468   2.481   8.573  12.386  0.8087  0.6083 -0.7435
23163SOL    HW281469   2.390   8.606  12.270  0.6254  0.1576 -0.7305
23164SOL     OW81470   7.321  13.870   9.968  0.0897 -0.2504  0.7472
23164SOL    HW181471   7.252  13.863  10.035  1.0784  1.2327  1.9701
23164SOL    HW281472   7.336  13.964   9.959  0.1068 -0.4150 -1.4890
23165SOL     OW81473   1.227   1.421   0.109  0.6360 -0.1608  0.0687
23165SOL    HW181474   1.292   1.355   0.085  1.3005 -0.1935  1.7846
23165SOL    HW281475   1.144   1.374   0.111  0.8525 -0.5614 -0.2851
23166SOL     OW81476   8.725   5.242  12.373  0.1759  1.0384 -0.1559
23166SOL    HW181477   8.821   5.248  12.375  0.3716 -0.6645 -1.8276
23166SOL    HW281478   8.698   5.252  12.464  1.9996  0.7354  0.4525
23167SOL     OW81479  12.346   7.894  12.315  0.1002  0.5003  0.1944
23167SOL    HW181480  12.331   7.808  12.276  1.2806  0.7354 -0.8158
23167SOL    HW281481  12.273   7.947  12.283 -0.6841 -0.1263  0.8954
23168SOL     OW81482  11.978   1.965  13.738 -0.0594 -0.4771 -0.5884
23168SOL    HW181483  11.931   1.887  13.709 -2.1119 -0.3692  2.1340
23168SOL    HW281484  11.948   2.034  13.679 -1.5418 -0.9094 -0.3751
23169SOL     OW81485  10.901   5.772   5.366 -0.4096 -0.2682  0.9272
23169SOL    HW181486  10.932   5.771   5.275 -0.8621 -0.4472  0.7680
23169SOL    HW281487  10.955   5.708   5.411 -0.1252 -0.1198  0.8038
23170SOL     OW81488   2.548   5.813   1.327  0.6291  0.5909 -0.2279
23170SOL    HW181489   2.623   5.753   1.333  1.0663  1.0678 -0.8559
23170SOL    HW281490   2.586   5.898   1.306 -0.0544  0.9333 -0.1196
23171SOL     OW81491   9.292  11.358  10.669 -0.1331 -0.5106 -0.4203
23171SOL    HW181492   9.334  11.390  10.749  0.7123 -0.1884 -0.9866
23171SOL    HW281493   9.327  11.269  10.658 -0.2513 -0.5553 -0.4375
23172SOL     OW81494   1.041   4.178  12.536 -0.0942 -0.2149  0.2175
23172SOL    HW181495   1.091   4.244  12.488 -0.7772 -0.2073 -0.5082
23172SOL    HW281496   1.012   4.117  12.468 -0.1431 -0.8149  0.7783
23173SOL     OW81497   8.192   1.808   1.969 -0.0576 -0.5430  0.0160
23173SOL    HW181498   8.274   1.844   2.003  0.0203  0.0560 -0.7709
23173SOL    HW281499   8.133   1.807   2.044  0.4167 -0.1826  0.3990
23174SOL     OW81500   9.766   4.958   8.046  0.3615  0.3014  0.5411
23174SOL    HW181501   9.771   4.890   7.978 -1.2854  0.4167  0.2542
23174SOL    HW281502   9.857   4.986   8.058  0.7660 -0.0064 -1.3415
23175SOL     OW81503   9.094   7.665   7.905 -0.7021  0.1227  0.0996
23175SOL    HW181504   9.104   7.652   7.999 -2.9469 -0.0935  0.3655
23175SOL    HW281505   9.152   7.600   7.866  1.4717  1.2361  1.2567
23176SOL     OW81506   9.782   4.696  12.548 -0.5707 -0.3844  0.0844
23176SOL    HW181507   9.864   4.651  12.569  0.4137  1.0481 -0.4863
23176SOL    HW281508   9.732   4.632  12.497  1.3838 -0.4311 -1.9435
23177SOL     OW81509  10.675   1.039   4.494  0.2640  0.3564 -0.0571
23177SOL    HW181510  10.703   1.084   4.574  2.1534  2.4561 -1.7562
23177SOL    HW281511  10.581   1.052   4.491  0.5895  3.4593  0.0964
23178SOL     OW81512   0.462   2.280   4.669 -0.4718 -0.2535 -0.3788
23178SOL    HW181513   0.511   2.360   4.650 -0.5092 -0.4789 -1.5098
23178SOL    HW281514   0.504   2.213   4.616 -1.2803 -0.6904 -0.4862
23179SOL     OW81515   7.199   3.480  11.042  0.5212 -0.5513  0.3706
23179SOL    HW181516   7.228   3.416  10.978  0.1699 -1.2467  0.8923
23179SOL    HW281517   7.279   3.527  11.067  0.4202  0.8901 -1.7831
23180SOL     OW81518   9.036   1.112  12.661  0.1737 -0.4459  0.3545
23180SOL    HW181519   9.021   1.054  12.587  0.1545 -0.7877  0.6272
23180SOL    HW281520   9.029   1.200  12.624  0.0652 -0.6149 -0.0287
23181SOL     OW81521   4.239   4.706   2.069  0.3518 -0.0381  0.1600
23181SOL    HW181522   4.176   4.647   2.111 -0.6756  0.6205 -0.3903
23181SOL    HW281523   4.321   4.692   2.116  0.0408 -1.6109  0.2904
23182SOL     OW81524  11.959   5.758   0.624 -0.4384 -0.2810 -0.3771
23182SOL    HW181525  11.929   5.826   0.564  0.7780 -0.3982 -1.1576
23182SOL    HW281526  11.960   5.678   0.571  0.3310 -0.4544 -0.1157
23183SOL     OW81527   9.523   1.295   6.105  0.4301 -0.4589  0.0565
23183SOL    HW181528   9.464   1.239   6.155 -2.2277  2.6802  0.7639
23183SOL    HW281529   9.556   1.238   6.035 -2.3623 -2.7741  0.4150
23184SOL     OW81530  10.942   8.839   7.814 -0.0075 -0.6534 -0.7182
23184SOL    HW181531  10.888   8.765   7.786 -1.8908  0.4192 -0.1052
23184SOL    HW281532  10.993   8.805   7.887 -0.0667 -1.6328 -1.1121
23185SOL     OW81533   8.489  11.989   4.825  0.1891 -0.1555  0.2146
23185SOL    HW181534   8.564  11.954   4.778  0.1464 -2.8764  1.9343
23185SOL    HW281535   8.524  12.065   4.872  0.8261  1.0324 -2.0775
23186SOL     OW81536   3.609  12.069   1.039 -0.2920 -0.1491 -0.4220
23186SOL    HW181537   3.621  12.079   1.134  0.2168  3.9857 -0.7443
23186SOL    HW281538   3.520  12.098   1.023  0.1137  0.6772 -1.3075
23187SOL     OW81539  11.700   5.629   8.887  0.1652  0.2158  0.4065
23187SOL    HW181540  11.693   5.551   8.943  1.4570 -1.1400 -1.1903
23187SOL    HW281541  11.612   5.666   8.887 -0.6460 -1.5670  0.8202
23188SOL     OW81542   9.326   6.059   6.403 -0.5973 -0.2906 -0.5986
23188SOL    HW181543   9.239   6.099   6.409 -1.0135 -1.2599  0.4038
23188SOL    HW281544   9.385   6.126   6.436 -1.2418 -0.3264  0.7398
23189SOL     OW81545   5.363   8.908   3.402  0.4384  0.3309  0.3236
23189SOL    HW181546   5.422   8.896   3.476  0.2010  0.3291  0.5118
23189SOL    HW281547   5.414   8.879   3.326  0.5621  0.0091  0.5267
23190SOL     OW81548   9.148   2.061   3.967 -0.6677 -0.1310  0.3686
23190SOL    HW181549   9.147   2.145   3.922 -0.1796 -0.2621  0.0984
23190SOL    HW281550   9.197   2.078   4.047  0.3526 -0.3903 -0.1822
23191SOL     OW81551  12.976   5.558  13.465  0.2129  0.3227 -0.4614
23191SOL    HW181552  12.934   5.487  13.514  1.0480 -0.2004 -0.4950
23191SOL    HW281553  13.003   5.621  13.531  1.5159 -0.4735 -0.2014
23192SOL     OW81554   9.728   8.785   8.202  0.2265  0.1207  0.6143
23192SOL    HW181555   9.818   8.766   8.228  0.0239 -0.2640  1.0594
23192SOL    HW281556   9.687   8.699   8.192  0.2904  0.2539 -1.0189
23193SOL     OW81557   7.815   9.223   1.663  0.2900  0.3497  0.6872
23193SOL    HW181558   7.833   9.291   1.598 -1.0638 -2.2420 -2.7308
23193SOL    HW281559   7.894   9.170   1.665 -0.1054 -0.2719  0.1843
23194SOL     OW81560  11.040   7.171   9.773 -0.1725  0.0213 -0.5476
23194SOL    HW181561  11.038   7.083   9.736 -0.0656  0.4998 -1.7175
23194SOL    HW281562  10.949   7.187   9.801  0.0515 -0.9119  0.8338
23195SOL     OW81563   5.935  11.411   0.328 -0.8560  0.1851 -0.0129
23195SOL    HW181564   5.874  11.459   0.384 -0.1134  2.7848 -1.2641
23195SOL    HW281565   5.883  11.385   0.252 -0.7103  1.4426 -0.5710
23196SOL     OW81566   8.175   4.585   8.610 -0.3405 -0.7665 -0.5600
23196SOL    HW181567   8.211   4.649   8.549 -0.1281 -0.8430 -0.5144
23196SOL    HW281568   8.192   4.621   8.697 -0.5789 -0.6929 -0.5419
23197SOL     OW81569  11.119  12.473  12.185  0.1748  0.0294 -0.3834
23197SOL    HW181570  11.129  12.562  12.154  3.6156 -0.2659 -0.5294
23197SOL    HW281571  11.131  12.479  12.280  2.0527 -0.3466 -0.5448
23198SOL     OW81572   6.990  11.782   7.796  0.3743  0.2270  0.1040
23198SOL    HW181573   7.078  11.817   7.783  0.2729  0.8281  0.9509
23198SOL    HW281574   6.934  11.839   7.744  0.3320  0.7059  0.6617
23199SOL     OW81575  10.324   5.377   2.081 -0.0398  0.3394 -0.2360
23199SOL    HW181576  10.287   5.303   2.130  2.0082  0.7270  2.0819
23199SOL    HW281577  10.334   5.343   1.992  2.0857 -2.7996  1.0084
23200SOL     OW81578   7.728  11.554   0.440  0.1137 -0.2609 -0.3415
23200SOL    HW181579   7.653  11.580   0.387 -0.1766  0.5591  0.4423
23200SOL    HW281580   7.690  11.522   0.522  0.6160  0.1282  0.0478
23201SOL     OW81581  12.900   0.338   9.846 -0.2602 -0.1395 -0.6233
23201SOL    HW181582  12.900   0.375   9.935 -2.5507 -1.9850  0.2467
23201SOL    HW281583  12.830   0.273   9.847 -0.0237 -0.5872 -3.6765
23202SOL     OW81584  11.542  11.549  11.908 -0.0175  0.3255  0.9717
23202SOL    HW181585  11.506  11.535  11.821 -2.4191 -1.4590  2.1020
23202SOL    HW281586  11.493  11.624  11.942 -0.8251 -0.4242  1.5418
23203SOL     OW81587   3.308   3.908   2.764 -0.6878 -0.0958  0.1237
23203SOL    HW181588   3.254   3.921   2.842  0.1239  0.1929  0.6532
23203SOL    HW281589   3.371   3.979   2.767 -0.6174 -0.1163 -0.7768
23204SOL     OW81590  12.321   2.127   3.338 -0.6101 -0.3888 -0.2116
23204SOL    HW181591  12.234   2.095   3.362 -0.1499 -0.4334  1.4830
23204SOL    HW281592  12.377   2.103   3.412  0.8326 -0.2506 -1.2162
23205SOL     OW81593   0.120   8.066   9.550 -0.8518  0.3405 -0.0092
23205SOL    HW181594   0.099   7.977   9.524 -1.4775  0.2622  0.7353
23205SOL    HW281595   0.177   8.056   9.627  0.0889  0.5801 -0.6508
23206SOL     OW81596  10.587  11.168   5.337  0.1443  0.2514  0.5962
23206SOL    HW181597  10.666  11.203   5.377  1.0986 -2.0822  0.9184
23206SOL    HW281598  10.610  11.157   5.245  0.0858 -0.0656  0.6169
23207SOL     OW81599  12.216   7.059  11.307 -0.9596 -0.3312 -0.3548
23207SOL    HW181600  12.172   7.006  11.241 -1.7877 -2.9453  2.0588
23207SOL    HW281601  12.309   7.042  11.296 -1.2331 -2.9619  0.7273
23208SOL     OW81602   7.546  10.226   0.897 -0.1801  0.7518 -0.1428
23208SOL    HW181603   7.581  10.279   0.825  0.1456 -1.4701 -1.7300
23208SOL    HW281604   7.511  10.148   0.855 -3.0330  0.8058  1.8325
23209SOL     OW81605   3.465   0.801  11.321 -0.3787  0.2063 -0.7640
23209SOL    HW181606   3.547   0.838  11.355  0.4195 -2.7407  0.8799
23209SOL    HW281607   3.487   0.770  11.234  0.6505 -1.5519  0.0785
23210SOL     OW81608   3.519   4.861   7.387 -0.5225 -0.0921  0.5043
23210SOL    HW181609   3.541   4.864   7.480 -1.1816  1.9016  0.6495
23210SOL    HW281610   3.472   4.943   7.371 -1.4187 -0.9089 -1.3488
23211SOL     OW81611   8.627   0.371   8.616  0.6026 -0.6217  0.3287
23211SOL    HW181612   8.667   0.415   8.691 -0.5786  2.6715 -0.7739
23211SOL    HW281613   8.533   0.376   8.632  0.3562 -0.6245 -0.9626
23212SOL     OW81614   9.320   3.820  12.201  0.1453 -0.0284 -0.2484
23212SOL    HW181615   9.373   3.863  12.268  0.3347  0.3401 -0.6278
23212SOL    HW281616   9.372   3.744  12.175  0.5753  0.4209 -0.7352
23213SOL     OW81617   0.657   8.027  10.598 -0.1242  0.1930  0.1373
23213SOL    HW181618   0.709   7.986  10.529 -0.1120  0.2644  0.1034
23213SOL    HW281619   0.586   8.071  10.552 -0.5009 -0.3228  0.2202
23214SOL     OW81620   9.842   7.862   6.656  0.0633 -0.6859  0.0937
23214SOL    HW181621   9.876   7.887   6.570 -0.5248  0.8581  0.2819
23214SOL    HW281622   9.773   7.799   6.638 -0.0224 -0.4050 -0.5545
23215SOL     OW81623  13.302   1.678   7.531 -1.1324 -0.0637  0.1907
23215SOL    HW181624  13.348   1.653   7.610  1.2186  2.0053 -0.4126
23215SOL    HW281625  13.338   1.620   7.463 -2.4273 -1.1608  0.3935
23216SOL     OW81626   2.801   7.483   9.537  0.4041  0.7882 -0.0444
23216SOL    HW181627   2.887   7.453   9.507  0.3326 -1.7475  1.8935
23216SOL    HW281628   2.820   7.552   9.601  0.8053  2.0483 -1.4637
23217SOL     OW81629  14.025   5.767   4.192 -0.4421 -0.1291  0.2253
23217SOL    HW181630  13.957   5.824   4.156 -0.8432 -0.8726 -0.2120
23217SOL    HW281631  14.013   5.773   4.287  0.5601  1.7626  0.2890
23218SOL     OW81632   4.211   0.127  10.774  0.2494  0.2641 -0.3543
23218SOL    HW181633   4.260   0.045  10.768  0.0115  0.0185  0.9109
23218SOL    HW281634   4.163   0.121  10.856 -3.1858 -0.2021 -2.1972
23219SOL     OW81635   8.110   1.825   6.395  0.2725  1.0723  0.1155
23219SOL    HW181636   8.177   1.794   6.456  1.0732  2.3610 -0.0499
23219SOL    HW281637   8.074   1.746   6.356  1.7061  0.3335  0.2172
23220SOL     OW81638   2.754   8.277   5.677  0.0732  0.0825 -0.1563
23220SOL    HW181639   2.726   8.185   5.674 -1.1099  0.4401 -0.2950
23220SOL    HW281640   2.681   8.324   5.716  0.3017  1.1121 -0.9179
23221SOL     OW81641  12.570   5.616   7.816 -0.2614 -0.1828 -0.5555
23221SOL    HW181642  12.645   5.562   7.843  0.6131  0.7920 -0.9475
23221SOL    HW281643  12.503   5.554   7.789  1.1148 -1.0803 -2.0626
23222SOL     OW81644  10.360   1.346  11.355  0.5012 -0.3624 -0.0794
23222SOL    HW181645  10.286   1.287  11.337 -0.1207  0.4751 -0.3334
23222SOL    HW281646  10.392   1.318  11.441  0.7119 -1.5662 -0.5249
23223SOL     OW81647   6.069   4.837  13.142 -0.2610 -0.1359  0.3974
23223SOL    HW181648   6.122   4.916  13.135 -2.1755  1.1983  0.0786
23223SOL    HW281649   6.005   4.857  13.210  1.0133 -2.5853  2.4710
23224SOL     OW81650  10.006   3.428   7.052  0.4146  0.1849 -0.3916
23224SOL    HW181651   9.983   3.480   7.130 -0.6242 -0.2500 -0.3898
23224SOL    HW281652  10.101   3.430   7.049  0.4556  0.4495  0.7318
23225SOL     OW81653   8.596  12.963  13.034  0.0539  0.1551  0.6331
23225SOL    HW181654   8.574  12.871  13.019  0.4205  0.2910 -0.8950
23225SOL    HW281655   8.596  13.002  12.947  0.3165  1.5206  1.2185
23226SOL     OW81656   2.101   0.092   4.938  0.1077 -0.3831 -0.7046
23226SOL    HW181657   2.017   0.050   4.919 -0.4583  0.4546 -0.1271
23226SOL    HW281658   2.077   0.172   4.984  1.3101 -1.1906  1.4541
23227SOL     OW81659   8.714   6.947   8.665 -0.2530 -0.1023  0.3127
23227SOL    HW181660   8.641   6.930   8.725 -2.6973 -1.9415 -2.8608
23227SOL    HW281661   8.673   6.954   8.579  3.2825 -0.2686 -1.5684
23228SOL     OW81662  13.518   1.951  12.396  0.5447  0.2156 -0.0686
23228SOL    HW181663  13.481   1.900  12.324  0.6309 -1.5731  1.0758
23228SOL    HW281664  13.604   1.911  12.413  1.6012  2.1708 -0.5191
23229SOL     OW81665   3.428   5.101   2.871 -0.3734 -0.4165  0.2924
23229SOL    HW181666   3.392   5.138   2.790 -0.6318  0.4532  0.7873
23229SOL    HW281667   3.490   5.167   2.901 -1.0204 -0.2592  1.3280
23230SOL     OW81668   4.340   6.701   7.563 -0.1845  0.1108 -0.0777
23230SOL    HW181669   4.277   6.629   7.562  1.2619 -1.2053 -0.5840
23230SOL    HW281670   4.408   6.673   7.624 -0.8336  2.2441  1.7576
23231SOL     OW81671  13.730  10.057  12.880  0.7830 -0.0734 -0.4943
23231SOL    HW181672  13.787  10.032  12.808  0.4306 -0.8657 -0.5022
23231SOL    HW281673  13.750   9.995  12.950  0.0561 -0.2482 -0.4362
23232SOL     OW81674  13.694   0.256  12.647  0.2623 -0.3729 -0.5813
23232SOL    HW181675  13.692   0.170  12.689  0.1008  0.5416  1.3467
23232SOL    HW281676  13.785   0.265  12.616  0.8235 -0.4644  0.9430
23233SOL     OW81677   8.989  13.158   7.836  0.3675  0.1484  0.8766
23233SOL    HW181678   9.067  13.152   7.892  1.4684 -1.0711 -0.7158
23233SOL    HW281679   8.928  13.095   7.875 -0.1018  1.5079  2.4670
23234SOL     OW81680   4.770   8.867   8.007  0.4257  0.3905  0.0391
23234SOL    HW181681   4.850   8.848   8.056  0.3398  0.0313  0.0446
23234SOL    HW281682   4.717   8.788   8.017  0.7129  0.0205 -1.2490
23235SOL     OW81683   7.988   1.952   5.554  0.3000  0.3325 -0.1379
23235SOL    HW181684   8.022   2.001   5.479  0.5670  1.5742  0.7695
23235SOL    HW281685   8.037   1.870   5.552  1.6150  1.0796 -0.2987
23236SOL     OW81686   4.580   9.392   3.032 -0.6689 -0.5972  0.2745
23236SOL    HW181687   4.582   9.336   2.954 -0.0898 -0.1401 -0.0456
23236SOL    HW281688   4.646   9.354   3.091 -0.9170 -0.7836  0.4343
23237SOL     OW81689   4.162   0.842  10.731  0.3222 -0.1345  0.4353
23237SOL    HW181690   4.104   0.909  10.694  0.4442  0.3314  1.0705
23237SOL    HW281691   4.184   0.875  10.818 -0.4770 -1.5025  1.1917
23238SOL     OW81692   4.694   3.708   2.676 -0.2195  0.4296  0.1909
23238SOL    HW181693   4.719   3.624   2.715 -0.1745 -0.2219 -1.1715
23238SOL    HW281694   4.619   3.737   2.728 -1.1233 -1.1559 -0.1402
23239SOL     OW81695   9.232   8.660   7.195 -0.1896  0.5543  0.5315
23239SOL    HW181696   9.231   8.620   7.282 -1.0883  0.3813  0.4591
23239SOL    HW281697   9.224   8.586   7.134 -0.5015  0.7390  0.3422
23240SOL     OW81698  11.427   9.194   8.404 -0.0116 -0.6245  0.2178
23240SOL    HW181699  11.457   9.187   8.495 -2.1138 -0.5513  0.9618
23240SOL    HW281700  11.425   9.103   8.373  0.4183 -0.6798  0.3438
23241SOL     OW81701   1.435   9.389   1.122 -0.5994 -0.3256  0.3593
23241SOL    HW181702   1.383   9.451   1.175  0.7257  0.4433  0.8095
23241SOL    HW281703   1.494   9.445   1.072 -0.2451 -1.1860 -0.1889
23242SOL     OW81704  10.361   2.659   9.200  0.7315  0.0583 -0.0668
23242SOL    HW181705  10.267   2.645   9.204  0.6988  0.4328  0.5758
23242SOL    HW281706  10.371   2.754   9.201  1.1419  0.0152  0.6856
23243SOL     OW81707  12.050   5.718   7.659 -0.0970 -0.2230 -0.2325
23243SOL    HW181708  12.041   5.719   7.564  1.0438  1.5544 -0.3567
23243SOL    HW281709  11.992   5.787   7.690  0.3330 -0.0834  0.2754
23244SOL     OW81710   9.925  10.658   3.644 -0.1641  0.1982 -0.2184
23244SOL    HW181711   9.837  10.693   3.631  0.0377  0.4498 -0.9692
23244SOL    HW281712   9.950  10.688   3.732 -0.2789  1.3569 -0.5624
23245SOL     OW81713  10.255   0.691   9.434 -0.4082  0.2365 -0.3663
23245SOL    HW181714  10.292   0.621   9.487 -0.0485 -0.7653 -1.8684
23245SOL    HW281715  10.329   0.725   9.383 -0.5779  1.7312  0.3278
23246SOL     OW81716  10.700  12.489   4.389  0.9891 -0.3871 -0.0156
23246SOL    HW181717  10.679  12.470   4.481  0.8870 -0.1872  0.0017
23246SOL    HW281718  10.720  12.403   4.351 -0.3993 -0.6613 -0.1860
23247SOL     OW81719   7.660  13.466  12.635  0.0956  0.5335 -0.2446
23247SOL    HW181720   7.712  13.536  12.596  0.6549  0.2975  0.0543
23247SOL    HW281721   7.614  13.508  12.708  0.2824  0.6379 -0.1855
23248SOL     OW81722   0.639   0.985   4.695 -0.2037 -0.4251 -0.1784
23248SOL    HW181723   0.661   1.016   4.607  0.2670 -1.9930 -0.6471
23248SOL    HW281724   0.677   1.050   4.754  0.0300  0.3104 -1.1198
23249SOL     OW81725  13.084   5.884   1.506 -0.3394 -0.7952  0.4731
23249SOL    HW181726  13.070   5.915   1.595 -0.8576  0.5639 -0.0586
23249SOL    HW281727  12.996   5.873   1.470 -0.1396  0.3920 -0.4338
23250SOL     OW81728   4.982   3.148  12.943  0.2093 -0.2158  0.2209
23250SOL    HW181729   5.072   3.123  12.923  0.6642  0.8938  0.7770
23250SOL    HW281730   4.973   3.135  13.037 -0.4197 -0.8866  0.0850
23251SOL     OW81731   7.282   5.571   2.619  0.4750  0.2683  0.2158
23251SOL    HW181732   7.201   5.569   2.567  0.2638  1.5690  0.4529
23251SOL    HW281733   7.351   5.589   2.555  0.2640  1.4868  0.3131
23252SOL     OW81734  12.236  13.629  10.103 -0.6598  0.0765 -0.0755
23252SOL    HW181735  12.192  13.592  10.027 -1.4327 -0.0209  0.4068
23252SOL    HW281736  12.287  13.556  10.139 -0.9051 -0.0875 -0.0569
23253SOL     OW81737   7.764  14.011   2.628 -0.7378  0.2502 -0.4899
23253SOL    HW181738   7.758  13.916   2.642 -2.3668  0.5602  1.3106
23253SOL    HW281739   7.677  14.044   2.648 -0.6221  2.0125 -2.5207
23254SOL     OW81740   0.903   8.557  12.368 -0.6430  0.0923  0.2326
23254SOL    HW181741   0.980   8.528  12.417 -1.4736 -0.9137  0.9947
23254SOL    HW281742   0.829   8.536  12.425 -1.6083 -0.6279 -1.2319
23255SOL     OW81743   2.724   2.769   6.685 -0.2018  0.3153 -0.1258
23255SOL    HW181744   2.738   2.851   6.732 -2.0997  1.3195 -1.2107
23255SOL    HW281745   2.652   2.727   6.732  1.5922 -1.4698  1.2481
23256SOL     OW81746   0.256   8.504  12.423  0.4251  0.4469  0.0390
23256SOL    HW181747   0.311   8.533  12.351 -0.9324  0.9848 -0.8174
23256SOL    HW281748   0.201   8.436  12.386 -0.6564  1.0902  0.4045
23257SOL     OW81749   7.527  13.118   7.810  0.5094  0.1176  0.5106
23257SOL    HW181750   7.583  13.179   7.761  0.3363 -0.9428 -1.0736
23257SOL    HW281751   7.589  13.066   7.862  0.7342  0.9085  1.0607
23258SOL     OW81752   3.458   0.941   0.246 -0.0890  0.0056 -0.5601
23258SOL    HW181753   3.460   0.919   0.339  0.8015  0.6424 -0.4133
23258SOL    HW281754   3.442   1.036   0.244 -2.1011 -0.2926 -1.1291
23259SOL     OW81755  11.236   4.287   2.550  0.1750 -0.0201  0.1054
23259SOL    HW181756  11.221   4.340   2.472  1.8475 -0.6676 -0.7011
23259SOL    HW281757  11.304   4.225   2.525  2.1174  0.9131  2.5663
23260SOL     OW81758   7.810  12.389   3.011  0.2429 -0.5007  0.3698
23260SOL    HW181759   7.719  12.404   3.034  0.9654  1.8024  2.1135
23260SOL    HW281760   7.850  12.476   3.011  2.3136 -1.3473 -1.0911
23261SOL     OW81761  11.154   5.041   7.658 -0.1104  0.4478  0.1870
23261SOL    HW181762  11.110   4.998   7.732  0.5778  0.5264  0.6546
23261SOL    HW281763  11.216   5.101   7.699  0.1653  0.6103 -0.4609
23262SOL     OW81764   3.019   3.203  13.744 -0.2954 -0.5325 -0.0031
23262SOL    HW181765   2.965   3.225  13.820 -0.0977  2.1702 -0.5425
23262SOL    HW281766   3.090   3.150  13.779 -0.3489  0.4481  1.7016
23263SOL     OW81767   3.252   1.357   6.945 -0.4213 -0.5306 -0.1613
23263SOL    HW181768   3.283   1.426   6.887 -0.8957 -0.2724 -0.1051
23263SOL    HW281769   3.312   1.359   7.020 -1.0954  0.5545  0.3666
23264SOL     OW81770  13.504   3.136  10.373  0.0751  0.0324  0.0711
23264SOL    HW181771  13.554   3.147  10.454  0.2753 -0.9758  0.0911
23264SOL    HW281772  13.442   3.209  10.374  0.1949  0.1440  1.0468
23265SOL     OW81773   5.139   3.880  12.733 -0.3831 -0.0540  0.1476
23265SOL    HW181774   5.073   3.939  12.696  0.4043 -0.4645 -2.0289
23265SOL    HW281775   5.146   3.809  12.670  3.0619  0.6330 -0.4095
23266SOL     OW81776   6.533  12.259  10.878  0.3977 -0.4863 -0.4851
23266SOL    HW181777   6.532  12.292  10.788  0.6592  0.4585 -0.1490
23266SOL    HW281778   6.503  12.169  10.870  2.0989 -0.9924 -1.7429
23267SOL     OW81779   6.383  12.696   4.501 -0.0486 -0.0259 -0.2709
23267SOL    HW181780   6.435  12.776   4.504 -0.4801  0.3467 -1.7080
23267SOL    HW281781   6.447  12.625   4.499  0.3554  0.3296 -0.0170
23268SOL     OW81782  10.395   6.046   4.640 -0.1504  0.4196 -0.1794
23268SOL    HW181783  10.322   6.075   4.695  0.4593 -1.1773  1.6096
23268SOL    HW281784  10.443   5.984   4.696  0.8501 -0.8841 -2.3570
23269SOL     OW81785   8.251  12.252   5.445 -0.4187 -0.1849  0.3303
23269SOL    HW181786   8.255  12.339   5.405  0.7419  0.7854  2.4382
23269SOL    HW281787   8.342  12.224   5.451 -0.5182 -0.2070  2.3973
23270SOL     OW81788   8.682   7.281   1.539  0.0222  0.0424 -0.6120
23270SOL    HW181789   8.736   7.354   1.509  0.8675 -0.8162 -1.2407
23270SOL    HW281790   8.743   7.221   1.581 -0.7238 -0.1338  0.2610
23271SOL     OW81791   9.680   7.967   4.958 -0.3503 -0.2294 -0.4483
23271SOL    HW181792   9.703   8.037   5.019 -0.6339 -1.0753  0.6477
23271SOL    HW281793   9.763   7.923   4.939 -0.5210 -1.1287  0.8068
23272SOL     OW81794   9.792   7.795  13.096 -0.4594  0.3942 -0.0070
23272SOL    HW181795   9.736   7.744  13.037  1.4517 -1.1144 -0.6303
23272SOL    HW281796   9.811   7.736  13.168 -2.5796  2.1418  2.1649
23273SOL     OW81797   4.388   5.165   4.613 -0.1729  0.1820 -0.3733
23273SOL    HW181798   4.384   5.082   4.565 -0.0177  0.8541 -1.6055
23273SOL    HW281799   4.452   5.150   4.682  0.0513 -0.6470 -0.7461
23274SOL     OW81800   7.817   2.529   3.098 -0.3489 -0.1365 -0.1035
23274SOL    HW181801   7.857   2.602   3.050 -1.0259  0.8994  0.8355
23274SOL    HW281802   7.728   2.525   3.063  0.2892 -1.9272 -1.6443
23275SOL     OW81803  10.735   1.532   1.236  0.3175  0.3275 -0.2381
23275SOL    HW181804  10.686   1.472   1.180 -1.5924 -1.7250  3.2912
23275SOL    HW281805  10.802   1.477   1.277  0.3271  1.2305  1.0091
23276SOL     OW81806   5.689   1.267  11.339 -0.2603  0.1428  0.0822
23276SOL    HW181807   5.628   1.271  11.266 -0.4510  1.7748  0.2750
23276SOL    HW281808   5.639   1.303  11.413 -0.0883 -1.5052  1.0341
23277SOL     OW81809  13.915  12.717   6.004 -0.5025 -0.1227 -0.0541
23277SOL    HW181810  14.009  12.732   5.994 -0.3721 -1.3672 -0.9787
23277SOL    HW281811  13.875  12.774   5.939 -0.3055 -0.4494 -0.4660
23278SOL     OW81812   5.128   4.645   6.175 -0.0453 -0.1345 -0.0988
23278SOL    HW181813   5.085   4.569   6.137 -0.0060  0.2793 -1.0005
23278SOL    HW281814   5.109   4.716   6.114  0.9231  0.3102  0.1045
23279SOL     OW81815  11.949  10.355   6.320 -0.2108 -0.0678 -0.1752
23279SOL    HW181816  11.990  10.274   6.292  0.5148  0.9794 -2.4471
23279SOL    HW281817  11.872  10.328   6.369  0.5719 -2.0984  0.0031
23280SOL     OW81818   3.412   5.497   6.533 -0.2657 -0.1294 -0.4906
23280SOL    HW181819   3.481   5.554   6.566 -1.0575  0.9746 -0.7036
23280SOL    HW281820   3.392   5.439   6.606  1.3110 -0.9059 -0.6243
23281SOL     OW81821  11.538   7.619   5.949  0.1272 -0.3363  0.0604
23281SOL    HW181822  11.449   7.644   5.926 -0.4205 -2.3475 -0.1449
23281SOL    HW281823  11.536   7.605   6.043  0.6354  1.0252  0.3103
23282SOL     OW81824   3.208   5.408   0.131 -0.9673 -0.8577 -0.7488
23282SOL    HW181825   3.279   5.455   0.175 -1.2895 -1.1269  0.0955
23282SOL    HW281826   3.229   5.413   0.038 -0.9432  0.8827 -0.6856
23283SOL     OW81827   4.067   9.398   5.096  0.1974 -0.7379 -0.1403
23283SOL    HW181828   4.131   9.388   5.026 -0.0219 -2.1242 -0.1649
23283SOL    HW281829   3.983   9.408   5.051  0.3414  0.9112 -0.1038
23284SOL     OW81830   3.046  13.895   2.715 -0.1609  0.0032 -0.5692
23284SOL    HW181831   3.046  13.970   2.773 -0.9090 -1.3792  1.3077
23284SOL    HW281832   2.959  13.895   2.675  0.1110  0.5570 -1.1744
23285SOL     OW81833   5.627  13.278   2.646 -0.7857  0.1382 -0.4675
23285SOL    HW181834   5.606  13.259   2.555  0.2154 -1.1692 -0.4522
23285SOL    HW281835   5.605  13.198   2.694  2.4767 -0.7800 -0.2243
23286SOL     OW81836  13.135   5.086  10.931 -1.0049  0.3506 -0.3039
23286SOL    HW181837  13.069   5.029  10.892 -0.6880 -0.7062  0.6663
23286SOL    HW281838  13.187   5.117  10.856 -0.0186 -2.1344 -0.7309
23287SOL     OW81839   6.908  11.988   0.299  0.0936  0.1747  0.0449
23287SOL    HW181840   6.994  11.990   0.339  0.4498 -0.2040 -0.6700
23287SOL    HW281841   6.863  11.914   0.341  0.8276 -0.8719 -0.9449
23288SOL     OW81842   1.462   7.582  10.422  0.1537  0.4325 -0.3037
23288SOL    HW181843   1.555   7.566  10.435  0.0325 -0.3683 -0.4186
23288SOL    HW281844   1.441   7.539  10.339 -0.3916  0.3288 -0.1140
23289SOL     OW81845   0.082   9.084   4.784  0.2325  0.3249 -0.6081
23289SOL    HW181846   0.005   9.097   4.839  1.2426  1.6724  0.5785
23289SOL    HW281847   0.047   9.072   4.696 -1.3498  0.2075 -0.0001
23290SOL     OW81848   1.801   1.560   0.188  0.2077  0.1760  0.2110
23290SOL    HW181849   1.785   1.472   0.154  0.8542 -0.0720  0.5274
23290SOL    HW281850   1.731   1.613   0.150 -0.2165 -0.4787  0.0497
23291SOL     OW81851  11.693   8.548   4.848 -0.5162 -0.3505  0.1915
23291SOL    HW181852  11.734   8.631   4.874 -1.4273  0.2750 -0.3341
23291SOL    HW281853  11.603   8.555   4.879 -0.4315 -1.4279  0.7246
23292SOL     OW81854  10.593  11.221   8.690 -0.9137  0.3541 -0.3205
23292SOL    HW181855  10.502  11.249   8.699 -1.3946 -0.8606 -1.2110
23292SOL    HW281856  10.592  11.157   8.619  0.4219 -0.6626  0.5170
23293SOL     OW81857  11.163  13.801  13.349  0.3274 -0.3658 -0.2212
23293SOL    HW181858  11.163  13.880  13.295  0.8747 -1.4675 -1.8993
23293SOL    HW281859  11.095  13.745  13.312  0.5088 -1.0360  0.4171
23294SOL     OW81860  12.341   9.581   5.507  0.4694  0.6563  0.3283
23294SOL    HW181861  12.302   9.667   5.494  4.1159  2.2646 -1.8879
23294SOL    HW281862  12.400   9.592   5.582  0.6455 -0.0002  0.2935
23295SOL     OW81863   7.947   3.853   8.786 -0.0266  0.0073 -0.9776
23295SOL    HW181864   7.864   3.900   8.786 -0.3263 -0.5093 -0.1726
23295SOL    HW281865   7.973   3.851   8.694 -0.4867  0.8931 -1.1401
23296SOL     OW81866  13.469  11.238   1.199 -0.1966 -0.9405 -0.6390
23296SOL    HW181867  13.524  11.160   1.189  2.1021  0.4309  0.4724
23296SOL    HW281868  13.465  11.275   1.111  0.4836 -1.1937 -0.7848
23297SOL     OW81869   2.197   9.012  12.474 -0.6473  0.1700 -0.2626
23297SOL    HW181870   2.199   9.051  12.387 -0.2754  0.7507  0.0028
23297SOL    HW281871   2.288   8.985  12.490  0.2394  3.6327  1.5153
23298SOL     OW81872   8.039   3.267   9.063 -0.0534  0.1757 -0.0741
23298SOL    HW181873   7.960   3.320   9.063  0.3297  0.7776 -0.9042
23298SOL    HW281874   8.083   3.290   9.144 -0.5510  0.1132  0.2143
23299SOL     OW81875   1.362   3.923  11.383  0.3347 -0.6420 -0.2758
23299SOL    HW181876   1.286   3.869  11.361 -0.4740  0.5010 -0.3773
23299SOL    HW281877   1.325   4.004  11.418  1.5324 -0.5360  0.8361
23300SOL     OW81878   4.824   1.270  13.058  0.0417  0.5921 -0.2587
23300SOL    HW181879   4.778   1.190  13.031 -0.0694  0.9058 -1.0334
23300SOL    HW281880   4.906   1.267  13.010  0.0466  0.9335 -0.2698
23301SOL     OW81881  10.842  10.788  12.145  0.5536  0.2642  0.1674
23301SOL    HW181882  10.789  10.793  12.224  0.1947  3.0716 -0.1679
23301SOL    HW281883  10.930  10.766  12.176  0.3319  0.9359  1.3210
23302SOL     OW81884  10.384  12.503   1.384  0.2982 -0.5719 -0.4719
23302SOL    HW181885  10.473  12.534   1.367  0.0484 -0.7626 -2.3080
23302SOL    HW281886  10.390  12.459   1.469  1.9384 -0.4994 -0.5183
23303SOL     OW81887   0.262   0.925  13.562  0.0453 -0.0901 -0.0038
23303SOL    HW181888   0.312   0.934  13.481  0.4390  1.5887  0.3815
23303SOL    HW281889   0.175   0.958  13.541  0.2542  0.7037  0.3295
23304SOL     OW81890   5.253   7.196  10.410  0.2096 -0.4309  1.0206
23304SOL    HW181891   5.160   7.175  10.421  0.1216 -0.8407 -0.3490
23304SOL    HW281892   5.286   7.129  10.350  1.3709 -0.2073  1.3845
23305SOL     OW81893   5.328   0.956   7.704 -0.7583  0.5757 -0.0884
23305SOL    HW181894   5.339   0.861   7.696 -2.5122  0.2608  0.7465
23305SOL    HW281895   5.327   0.972   7.798 -2.0866  1.1790 -0.1824
23306SOL     OW81896   5.259   4.854   1.119 -0.1950  0.3846  0.1101
23306SOL    HW181897   5.186   4.864   1.058  0.4414 -0.7944 -0.9115
23306SOL    HW281898   5.240   4.913   1.191 -1.8219  0.5735 -0.4511
23307SOL     OW81899  12.069  10.047   1.096 -0.6936 -0.0963 -0.6573
23307SOL    HW181900  12.079  10.097   1.014 -0.1508  0.1192 -0.4641
23307SOL    HW281901  12.000   9.984   1.077 -2.1292  1.3858 -0.5910
23308SOL     OW81902  11.372  10.066  12.427  0.4271 -0.4265 -0.0142
23308SOL    HW181903  11.308   9.995  12.436  1.6757 -1.9290 -2.1106
23308SOL    HW281904  11.438  10.031  12.367  2.3329  1.6845  0.7100
23309SOL     OW81905  13.425   5.176  10.907 -0.4627 -0.1959  0.4262
23309SOL    HW181906  13.350   5.211  10.954 -1.3241 -2.5562  0.9454
23309SOL    HW281907  13.425   5.224  10.824 -1.4109  1.1333  1.1513
23310SOL     OW81908   5.099   5.772   0.376  0.4456 -0.1675 -0.2560
23310SOL    HW181909   5.143   5.838   0.322 -0.1574  0.0712 -0.4643
23310SOL    HW281910   5.061   5.711   0.313 -0.8310  0.4733 -0.1535
23311SOL     OW81911   5.583  12.287   9.978 -0.1604 -0.1430  0.5287
23311SOL    HW181912   5.610  12.200  10.006  1.4925 -0.7031 -2.4425
23311SOL    HW281913   5.494  12.275   9.944  0.6975 -1.1544 -1.5172
23312SOL     OW81914   6.354   7.651   7.292  0.7430  0.2555  0.3062
23312SOL    HW181915   6.306   7.639   7.210  0.4367 -0.6423  0.5992
23312SOL    HW281916   6.287   7.677   7.355  0.6111 -1.0031  0.7175
23313SOL     OW81917   6.265  14.028   8.669  0.3617 -0.3094 -0.0762
23313SOL    HW181918   6.321  13.950   8.677  0.0404 -0.4743  0.6148
23313SOL    HW281919   6.282  14.077   8.750  1.0706  0.6842 -0.8018
23314SOL     OW81920   0.912   7.263   4.237  0.1224  0.3657  0.1210
23314SOL    HW181921   0.959   7.318   4.174 -1.0957  1.0198 -0.2509
23314SOL    HW281922   0.882   7.324   4.304 -0.5401  0.0340  0.1346
23315SOL     OW81923   9.673  13.635   7.598  0.0356 -0.5254  0.3544
23315SOL    HW181924   9.670  13.571   7.526 -0.2688 -0.3057  0.1693
23315SOL    HW281925   9.758  13.678   7.588  0.3989 -1.1472  0.6956
23316SOL     OW81926   8.835  10.872   6.069  0.3602 -0.5755  0.0666
23316SOL    HW181927   8.845  10.821   6.149  2.4812  1.3879  1.1894
23316SOL    HW281928   8.906  10.937   6.073  0.2841 -0.1055 -3.2107
23317SOL     OW81929  10.822   1.841   2.138  0.0583  0.3755 -0.2245
23317SOL    HW181930  10.747   1.889   2.104 -1.1182 -1.6810 -0.6937
23317SOL    HW281931  10.883   1.834   2.064 -1.6554 -2.4231 -1.5608
23318SOL     OW81932   4.644   1.681   9.097 -0.1861  0.0093 -0.3555
23318SOL    HW181933   4.702   1.754   9.116  0.3204  0.2268 -2.4220
23318SOL    HW281934   4.702   1.605   9.092 -0.0677  0.1766 -2.1355
23319SOL     OW81935   1.875   9.477   3.566  0.0081 -0.2334  0.1673
23319SOL    HW181936   1.857   9.542   3.634 -2.0199  0.0589 -0.5769
23319SOL    HW281937   1.895   9.397   3.614 -2.9279 -0.4676  1.2212
23320SOL     OW81938   3.640  13.160   6.101 -0.1689  0.2291 -0.2721
23320SOL    HW181939   3.623  13.223   6.170  0.2673 -1.9415  1.9810
23320SOL    HW281940   3.556  13.149   6.057 -0.8781  0.5522  0.9482
23321SOL     OW81941   5.796   3.589   7.959 -0.0259 -0.1241 -0.3979
23321SOL    HW181942   5.753   3.599   8.044  2.1354  1.4532  0.5807
23321SOL    HW281943   5.744   3.522   7.914 -3.4640  1.5692  0.6812
23322SOL     OW81944   3.337   1.429   0.816 -0.6756  0.3367  0.5030
23322SOL    HW181945   3.421   1.408   0.858 -0.6163 -1.0796 -0.2763
23322SOL    HW281946   3.354   1.510   0.768  0.3148 -0.0443  0.1847
23323SOL     OW81947   1.070   7.179  11.040  0.4498 -0.5874  0.1298
23323SOL    HW181948   1.136   7.173  11.109 -1.8542  1.5619  2.7092
23323SOL    HW281949   1.099   7.252  10.985 -0.4060  1.3085  2.0946
23324SOL     OW81950   0.930   4.195   7.332  0.0466  0.1638  0.0300
23324SOL    HW181951   0.956   4.279   7.368  0.4400  0.9692 -1.9848
23324SOL    HW281952   0.991   4.132   7.372 -0.1182  0.8341  1.3924
23325SOL     OW81953   5.708   9.059   3.085 -0.3685  0.7181  0.2825
23325SOL    HW181954   5.657   8.978   3.080  2.8248 -1.3886 -1.4067
23325SOL    HW281955   5.735   9.064   3.177 -0.7848 -0.0212  0.4529
23326SOL     OW81956   9.293  12.405   6.123 -0.0132 -0.6352 -0.0278
23326SOL    HW181957   9.303  12.379   6.214 -0.2330 -2.7058 -0.5610
23326SOL    HW281958   9.348  12.484   6.115  1.5598 -1.5078  1.4239
23327SOL     OW81959  11.416   5.728  11.730  0.0818 -0.0818 -0.0768
23327SOL    HW181960  11.338   5.673  11.741  0.2288 -0.4803 -0.8997
23327SOL    HW281961  11.466   5.683  11.661  0.9741  0.2374  0.3577
23328SOL     OW81962   9.209  13.238   5.182  0.1214 -0.4221  0.5340
23328SOL    HW181963   9.304  13.251   5.189  0.3038 -1.4325  0.0395
23328SOL    HW281964   9.181  13.224   5.273  0.2508  1.0750  0.8233
23329SOL     OW81965   4.329  10.030   5.449 -0.6050 -0.2585  0.3317
23329SOL    HW181966   4.293  10.071   5.527 -0.6453 -0.5560  0.4694
23329SOL    HW281967   4.332   9.937   5.469 -2.1073 -0.5408 -0.6054
23330SOL     OW81968   8.269   4.139   4.012 -0.5364  0.2726  0.2727
23330SOL    HW181969   8.228   4.102   3.934 -0.0920 -0.1776  0.2450
23330SOL    HW281970   8.242   4.081   4.084  1.0641 -0.8339  0.0625
23331SOL     OW81971   3.095   1.533   0.225  0.5040 -0.0707 -0.2162
23331SOL    HW181972   3.110   1.535   0.319  0.9096 -0.4840 -0.2636
23331SOL    HW281973   3.100   1.440   0.202 -0.5881 -0.0811 -0.4962
23332SOL     OW81974  12.785  12.433   8.370  0.1490 -0.0403 -0.5974
23332SOL    HW181975  12.788  12.444   8.275  2.9617 -1.2754 -0.7481
23332SOL    HW281976  12.818  12.516   8.405  2.1062 -0.6436 -0.8912
23333SOL     OW81977   3.760   7.623   2.264  0.5487  0.4855  0.1578
23333SOL    HW181978   3.758   7.555   2.196  1.0697  2.2038 -1.6877
23333SOL    HW281979   3.825   7.685   2.233  0.2722  1.7186  1.9108
23334SOL     OW81980  11.077   7.940  13.328 -0.0673 -0.2303 -0.2085
23334SOL    HW181981  11.155   7.905  13.373  0.3176 -0.7224 -1.2303
23334SOL    HW281982  11.107   8.020  13.285 -0.7220  0.8955  1.3435
23335SOL     OW81983  12.298   9.211   1.100  0.0748 -0.1257  0.2810
23335SOL    HW181984  12.345   9.157   1.038 -0.2491 -0.6836  0.5146
23335SOL    HW281985  12.213   9.228   1.058 -0.0700 -0.3409  0.4804
23336SOL     OW81986   5.891   4.141   1.980  0.5172  0.3220 -0.0076
23336SOL    HW181987   5.856   4.123   2.067 -1.7491 -1.5356 -1.1797
23336SOL    HW281988   5.848   4.222   1.953  0.0828  0.1070  0.0380
23337SOL     OW81989   9.721   5.135   3.419 -0.0613  0.3400 -0.4347
23337SOL    HW181990   9.693   5.227   3.420  0.3477  0.4670 -0.6889
23337SOL    HW281991   9.641   5.086   3.399 -0.1437  0.6863 -0.9496
23338SOL     OW81992   2.480   6.503   0.234 -0.0894 -0.3068 -0.4307
23338SOL    HW181993   2.391   6.486   0.202 -0.5283 -0.8246  0.9673
23338SOL    HW281994   2.485   6.455   0.317  0.3863  2.2684  1.1483
23339SOL     OW81995   1.858   7.515   3.001 -0.0533  0.1038 -0.4424
23339SOL    HW181996   1.787   7.578   2.991  0.4799  1.0073  1.2575
23339SOL    HW281997   1.935   7.567   3.022  0.8623 -0.9617 -1.0235
23340SOL     OW81998   4.683   8.394   9.407 -0.6748  0.4261  0.0016
23340SOL    HW181999   4.721   8.322   9.356 -0.9125 -0.8606  1.5775
23340SOL    HW282000   4.749   8.463   9.404  0.1870 -0.3958 -0.3340
23341SOL     OW82001   5.201   6.604   0.083 -0.2058  0.1195 -0.0515
23341SOL    HW182002   5.139   6.672   0.107  0.3508  0.2491  1.0916
23341SOL    HW282003   5.149   6.540   0.033 -1.0231  0.7032  0.0379
23342SOL     OW82004  11.250   2.845   3.470 -0.0788 -0.4529 -0.2661
23342SOL    HW182005  11.263   2.832   3.376  0.5007  1.0432 -0.4208
23342SOL    HW282006  11.161   2.878   3.478  0.1757  0.2805 -0.3948
23343SOL     OW82007  10.376  12.740   4.788 -0.0979 -0.2920  0.1188
23343SOL    HW182008  10.383  12.835   4.785 -0.8631 -0.2107  0.6245
23343SOL    HW282009  10.339  12.716   4.703 -0.8261 -0.0355  0.3519
23344SOL     OW82010  11.568  10.416  10.051 -0.3092  0.7259  0.3499
23344SOL    HW182011  11.634  10.415  10.120  2.3616  0.2770 -2.0086
23344SOL    HW282012  11.515  10.338  10.067  1.2227 -0.2198  1.0419
23345SOL     OW82013  11.109   1.929  13.480 -0.1604  0.3273  0.0559
23345SOL    HW182014  11.200   1.956  13.466 -0.5704  1.9217  0.3372
23345SOL    HW282015  11.075   1.913  13.392  0.8301 -1.9088  0.0166
23346SOL     OW82016  13.210   4.800   0.480  0.1383  0.6231  0.4558
23346SOL    HW182017  13.291   4.750   0.496  0.1149  0.4604  0.0694
23346SOL    HW282018  13.184   4.830   0.567 -0.2683 -0.7046  0.8219
23347SOL     OW82019   5.546   4.686   5.744  0.2926  0.7178 -0.3799
23347SOL    HW182020   5.555   4.595   5.772  0.5600  1.2127  1.2290
23347SOL    HW282021   5.452   4.702   5.742  0.2680  0.6214  0.0633
23348SOL     OW82022  13.040  10.285   6.197  0.3533  0.0914 -0.7116
23348SOL    HW182023  12.967  10.259   6.140 -0.5823  0.7199  0.1608
23348SOL    HW282024  13.043  10.218   6.265 -1.4922  1.6468  1.0352
23349SOL     OW82025  11.223   3.856   6.100  0.0465  0.5803 -0.8903
23349SOL    HW182026  11.155   3.908   6.142 -0.2931 -1.2641  0.9638
23349SOL    HW282027  11.304   3.905   6.116 -0.2419  0.5191  0.9390
23350SOL     OW82028   6.539  13.904   7.246  0.6256  0.7374 -0.4288
23350SOL    HW182029   6.579  13.819   7.265  0.8290  0.9604  0.1558
23350SOL    HW282030   6.445  13.886   7.241  0.6443  0.5176 -0.0479
23351SOL     OW82031   5.946   7.755   4.484  0.2985  0.3176 -0.0947
23351SOL    HW182032   5.868   7.703   4.500  1.0569 -0.4295  1.3520
23351SOL    HW282033   5.962   7.745   4.390 -0.2665 -1.0760 -0.0719
23352SOL     OW82034   5.129   7.961  12.524  0.0040  0.0755 -0.3814
23352SOL    HW182035   5.213   7.999  12.498 -0.6298  0.0355 -2.7516
23352SOL    HW282036   5.064   8.026  12.499 -0.9202 -1.4603 -2.2658
23353SOL     OW82037  11.031   4.301   5.048 -0.2515 -0.4256 -0.0283
23353SOL    HW182038  11.037   4.290   4.953  2.2994  1.7109 -0.2233
23353SOL    HW282039  10.953   4.355   5.061 -1.6891 -2.2361 -0.6688
23354SOL     OW82040   3.220   0.112   1.686  0.4309 -0.0974 -0.4299
23354SOL    HW182041   3.305   0.070   1.671  0.2132 -0.6606 -0.1150
23354SOL    HW282042   3.220   0.187   1.626  2.0724  1.2405  1.1078
23355SOL     OW82043   9.252   7.067   0.296 -0.2838  0.0977  0.1196
23355SOL    HW182044   9.245   7.058   0.391  0.2386  0.7294  0.2288
23355SOL    HW282045   9.310   6.996   0.269 -1.2441 -0.7144  0.1289
23356SOL     OW82046  10.903   3.413   6.596 -0.2490  0.0735 -0.1611
23356SOL    HW182047  10.968   3.468   6.638  0.9957 -0.0710 -1.7705
23356SOL    HW282048  10.942   3.325   6.596  1.6039  0.5966 -4.6279
23357SOL     OW82049  11.443   5.012   6.260 -0.3098 -0.7125  0.0292
23357SOL    HW182050  11.487   4.991   6.177  0.5910 -0.9593  0.5613
23357SOL    HW282051  11.401   4.930   6.287  2.3144 -1.6796  1.5620
23358SOL     OW82052   0.980  11.017  13.271 -0.2802  0.3113  0.6008
23358SOL    HW182053   0.985  10.922  13.264 -1.0460  0.3293 -0.3875
23358SOL    HW282054   1.062  11.049  13.232 -1.0688  0.1117 -1.3448
23359SOL     OW82055   9.655  12.615   8.052  0.0513  0.1041  0.2067
23359SOL    HW182056   9.736  12.654   8.086  0.4230 -0.6730  0.2175
23359SOL    HW282057   9.618  12.684   7.996  1.3734  0.0215 -0.8219
23360SOL     OW82058  11.344   3.619   1.077  0.0690 -0.6236  0.5791
23360SOL    HW182059  11.417   3.678   1.060 -0.6037 -0.0483 -0.4505
23360SOL    HW282060  11.380   3.531   1.063  0.0505 -0.2769 -2.3321
23361SOL     OW82061  11.090   6.112   4.374  0.2088  0.2542 -0.1918
23361SOL    HW182062  10.999   6.140   4.367  0.6459  1.3681 -3.0099
23361SOL    HW282063  11.113   6.083   4.286  2.0890 -1.7603  0.8697
23362SOL     OW82064   2.688  12.748  12.807 -0.1226  0.3662  0.1213
23362SOL    HW182065   2.737  12.817  12.852  1.3291 -1.9621  2.3564
23362SOL    HW282066   2.631  12.796  12.746  1.3109  3.4650  0.9879
23363SOL     OW82067   0.569   1.431   1.822 -0.9455  0.7157 -0.0281
23363SOL    HW182068   0.480   1.396   1.822 -0.7434  0.1919  0.0897
23363SOL    HW282069   0.600   1.418   1.911  0.1017 -1.3581 -0.6213
23364SOL     OW82070  11.898   9.197  11.876  0.4362 -0.2851  0.5807
23364SOL    HW182071  11.981   9.150  11.889  0.4921 -0.5596 -0.6252
23364SOL    HW282072  11.871   9.173  11.787 -0.6798  0.2104  0.7735
23365SOL     OW82073  10.871   4.135   6.702  0.3822  0.0463  0.7267
23365SOL    HW182074  10.883   4.073   6.775 -0.9116  0.1922  1.0760
23365SOL    HW282075  10.871   4.221   6.744 -1.2852  0.0842  0.6863
23366SOL     OW82076   2.288   8.838   3.862  0.3239  0.1663  0.0597
23366SOL    HW182077   2.236   8.760   3.844 -0.6238  0.7377  0.2805
23366SOL    HW282078   2.342   8.849   3.784  0.3311 -0.6017 -0.0499
23367SOL     OW82079   6.907  10.233   5.297  0.3161  0.0627  0.6452
23367SOL    HW182080   6.967  10.223   5.223  0.6035 -0.8467  0.9853
23367SOL    HW282081   6.962  10.222   5.374 -0.0612  0.5597  0.9875
23368SOL     OW82082   4.675  10.508  10.766 -0.1878  0.5804  0.7000
23368SOL    HW182083   4.729  10.502  10.687 -0.2277 -1.3584  0.7680
23368SOL    HW282084   4.728  10.555  10.829  0.6874  0.3107  0.1750
23369SOL     OW82085   6.989   2.002  13.488  0.0966 -0.2975  0.4716
23369SOL    HW182086   6.981   2.095  13.467  1.2253 -0.1778  0.4962
23369SOL    HW282087   7.054   1.999  13.558  1.9434 -1.2613 -1.1924
23370SOL     OW82088   1.506  12.558   3.530 -0.2880 -0.3813 -0.1768
23370SOL    HW182089   1.572  12.591   3.469 -0.8222  0.8966 -0.0947
23370SOL    HW282090   1.457  12.494   3.479 -1.2928  1.2951 -1.4313
23371SOL     OW82091  10.535  10.331   7.757  0.0660  0.2123  0.2862
23371SOL    HW182092  10.513  10.271   7.828  0.1686  0.1033  0.2269
23371SOL    HW282093  10.613  10.292   7.717 -0.3560 -0.0531 -0.2776
23372SOL     OW82094  10.359  13.026   1.560  0.2748  0.5371 -0.1661
23372SOL    HW182095  10.450  13.057   1.568 -0.1208  2.3022 -1.7634
23372SOL    HW282096  10.306  13.105   1.564 -1.1585 -0.3923 -0.0542
23373SOL     OW82097   3.515   8.079   3.971 -0.2942  0.1870 -0.0464
23373SOL    HW182098   3.574   8.062   3.897  0.0824  2.5405 -0.3369
23373SOL    HW282099   3.572   8.113   4.039 -0.5326 -2.5082  1.6643
23374SOL     OW82100   9.394  11.856   4.354  0.0306 -0.3118 -0.3644
23374SOL    HW182101   9.336  11.917   4.307  1.2900  3.4780  2.4479
23374SOL    HW282102   9.335  11.800   4.404 -1.2635  1.1915 -0.1293
23375SOL     OW82103   3.991   0.420   9.696  0.1739  0.4162 -0.5482
23375SOL    HW182104   3.959   0.430   9.606 -1.7184  0.9824  0.1412
23375SOL    HW282105   4.065   0.480   9.702 -0.4443  1.2924 -1.4020
23376SOL     OW82106   3.462  13.701  11.397 -0.0254  0.3237 -0.2559
23376SOL    HW182107   3.447  13.607  11.408  1.0211 -0.2537 -2.9692
23376SOL    HW282108   3.553  13.714  11.424 -0.5119  0.8537  1.2622
23377SOL     OW82109  11.102   2.110   1.566  0.2604 -0.1137  0.4036
23377SOL    HW182110  11.196   2.094   1.560  0.3951  0.9781 -1.0589
23377SOL    HW282111  11.071   2.105   1.475 -0.9884  0.0878  0.7995
23378SOL     OW82112  11.554   1.591  13.175 -0.6826 -0.2999 -0.0596
23378SOL    HW182113  11.558   1.634  13.089  3.3370  0.2839  0.2170
23378SOL    HW282114  11.531   1.500  13.155 -1.2657  0.1530 -1.5931
23379SOL     OW82115   0.443  11.712   4.888  0.0481  0.2757 -0.5426
23379SOL    HW182116   0.387  11.665   4.827 -2.0354  2.1896 -0.2504
23379SOL    HW282117   0.434  11.665   4.971 -0.1156 -0.1536 -0.8017
23380SOL     OW82118   0.092   7.900  12.694  0.1246 -0.3877 -0.3479
23380SOL    HW182119   0.002   7.909  12.664 -0.2089 -0.1353  0.6942
23380SOL    HW282120   0.127   7.989  12.693  0.1096 -0.3757 -0.0133
23381SOL     OW82121  10.641  12.762   7.514 -0.2837  0.4547 -0.3592
23381SOL    HW182122  10.601  12.680   7.542  0.6325 -0.3042 -1.2392
23381SOL    HW282123  10.586  12.793   7.442 -0.0494  0.0727 -0.7087
23382SOL     OW82124   3.923   6.193   5.802 -0.3579 -0.4701  0.1129
23382SOL    HW182125   3.893   6.112   5.760 -0.9354 -0.6309  0.8266
23382SOL    HW282126   3.942   6.169   5.892  0.9692 -0.1411 -0.0618
23383SOL     OW82127   2.639   7.509   9.014 -0.3441  0.0776  0.0005
23383SOL    HW182128   2.577   7.481   9.082 -0.7816 -2.7492 -1.4405
23383SOL    HW282129   2.645   7.604   9.026 -1.6809 -0.0742  2.8809
23384SOL     OW82130  10.577   9.111   5.256 -0.1637  0.1204  0.3726
23384SOL    HW182131  10.661   9.143   5.288  0.5348 -1.0093 -0.2722
23384SOL    HW282132  10.573   9.020   5.286 -0.4342 -0.3243 -0.9483
23385SOL     OW82133   7.880   1.194   5.852  0.1252 -0.6786 -0.1329
23385SOL    HW182134   7.940   1.229   5.785  1.1348 -1.6630  0.2167
23385SOL    HW282135   7.811   1.150   5.802 -0.5680  0.8469 -0.5500
23386SOL     OW82136   5.684  13.196  10.944 -0.1964  0.1622 -0.1959
23386SOL    HW182137   5.690  13.122  10.883  2.3248  1.2309 -1.3989
23386SOL    HW282138   5.593  13.224  10.938 -0.9457 -2.1184 -0.5582
23387SOL     OW82139  12.648   5.629   5.645 -0.1263  0.1335  0.6085
23387SOL    HW182140  12.654   5.723   5.630 -0.0742  0.1959  1.0052
23387SOL    HW282141  12.687   5.616   5.731 -0.9136 -0.1432  0.9299
23388SOL     OW82142  13.857   7.601   2.586  0.6911 -0.0930  0.5201
23388SOL    HW182143  13.762   7.611   2.574  0.4967 -0.4613  1.6364
23388SOL    HW282144  13.865   7.540   2.659  1.7731  1.5870  1.8657
23389SOL     OW82145   8.022  11.952   5.694  0.3896 -0.5521  0.2839
23389SOL    HW182146   8.006  11.990   5.608 -0.1699  0.1159  0.6640
23389SOL    HW282147   7.979  11.867   5.692 -1.8360  0.4904  0.7066
23390SOL     OW82148   5.962   3.973  10.541 -0.5512 -0.0645 -0.0738
23390SOL    HW182149   5.975   3.948  10.449 -1.0152  0.8431 -0.3995
23390SOL    HW282150   5.869   3.997  10.546 -0.3350  0.6830  0.4396
23391SOL     OW82151   4.103  10.723   9.049 -0.4330  0.2548 -0.1383
23391SOL    HW182152   4.014  10.758   9.044 -0.7042 -0.4042  0.0273
23391SOL    HW282153   4.120  10.686   8.963 -1.3054 -1.9417  0.5611
23392SOL     OW82154  11.014   3.839   7.997  0.0612  0.1296  0.6855
23392SOL    HW182155  10.968   3.833   7.914  1.3004 -0.5136  0.0051
23392SOL    HW282156  10.948   3.818   8.063 -0.4391 -1.6380 -0.3056
23393SOL     OW82157   9.257   4.985   9.501  0.3758 -0.0933 -0.3812
23393SOL    HW182158   9.258   4.950   9.412 -1.4380  0.2661 -0.5732
23393SOL    HW282159   9.294   5.073   9.492 -2.0750  0.9416 -1.2958
23394SOL     OW82160   0.149   6.074  10.120  0.2457 -0.2243  0.7142
23394SOL    HW182161   0.111   6.007  10.177 -0.5562 -0.2583  0.1576
23394SOL    HW282162   0.118   6.157  10.157  0.5637 -0.1971  0.9217
23395SOL     OW82163   7.306   5.842   1.048  0.0246  0.0056  0.4518
23395SOL    HW182164   7.397   5.865   1.061 -0.7100  2.1196  2.5384
23395SOL    HW282165   7.257   5.903   1.103 -2.5998 -1.7332  0.2654
23396SOL     OW82166   3.605  11.741   5.307 -0.0171 -0.3525  0.0095
23396SOL    HW182167   3.612  11.755   5.213  2.1188 -0.4541  0.0985
23396SOL    HW282168   3.556  11.659   5.315  1.1083 -1.1678 -1.0925
23397SOL     OW82169   1.327   8.024   0.274 -0.3576  0.0548  0.2320
23397SOL    HW182170   1.318   8.014   0.369  0.2693  0.1782  0.3095
23397SOL    HW282171   1.410   8.070   0.263 -1.0254  1.1740 -0.3228
23398SOL     OW82172   5.894  10.295   9.820  0.1902  0.4088 -0.1711
23398SOL    HW182173   5.807  10.305   9.780 -0.3432 -4.0865 -0.6791
23398SOL    HW282174   5.878  10.304   9.914 -0.4462  1.3847 -0.3557
23399SOL     OW82175  11.492   7.419   7.576  0.3757  0.0578 -0.2904
23399SOL    HW182176  11.401   7.445   7.590  0.5404  0.8931 -0.6671
23399SOL    HW282177  11.537   7.442   7.658  0.2924 -0.1201 -0.1960
23400SOL     OW82178   3.889  12.808   0.320  0.0976  0.3036  0.5006
23400SOL    HW182179   3.922  12.719   0.303 -0.7464  0.0563  0.1013
23400SOL    HW282180   3.961  12.852   0.366  1.3000  0.0436 -1.0624
23401SOL     OW82181   0.011   0.674  12.717 -0.0551  0.3456 -0.1340
23401SOL    HW182182   0.105   0.677  12.734 -0.2209  1.0709  0.7254
23401SOL    HW282183  -0.014   0.584  12.739  0.6538 -0.2738 -1.7110
23402SOL     OW82184   7.632   9.069   4.494  0.5379 -0.0267 -0.1285
23402SOL    HW182185   7.596   9.081   4.405  1.8323 -1.4890 -0.8956
23402SOL    HW282186   7.555   9.051   4.548 -0.4360  2.2161 -0.6421
23403SOL     OW82187   0.859   4.623   6.196  0.2602 -0.2291 -0.6257
23403SOL    HW182188   0.848   4.630   6.290 -1.1947 -1.5335 -0.6607
23403SOL    HW282189   0.946   4.585   6.184  1.0650  1.2835  0.0955
23404SOL     OW82190   1.433  12.288   0.070 -0.0440  0.8161 -0.2299
23404SOL    HW182191   1.496  12.326   0.008 -0.6428  1.2375 -0.5903
23404SOL    HW282192   1.437  12.194   0.054  0.6217  0.8177 -0.1250
23405SOL     OW82193   4.158   8.284   9.211 -0.2644  0.0204  0.1846
23405SOL    HW182194   4.229   8.268   9.149 -1.2457  0.0718 -1.0050
23405SOL    HW282195   4.148   8.379   9.213  0.0645  0.0449  0.7848
23406SOL     OW82196  13.428  12.126   2.961  0.8612 -0.7695 -0.3112
23406SOL    HW182197  13.420  12.034   2.933  0.8441 -0.7852 -0.2560
23406SOL    HW282198  13.451  12.120   3.054 -2.2944 -0.7367  0.6033
23407SOL     OW82199  13.502   0.469   4.060 -0.8792 -0.3496  0.1402
23407SOL    HW182200  13.504   0.403   4.129 -1.1726 -0.1128  0.3834
23407SOL    HW282201  13.409   0.477   4.038 -0.9216  0.4555  0.5800
23408SOL     OW82202   9.803   2.672   4.346  0.1857 -0.2765 -0.1836
23408SOL    HW182203   9.798   2.598   4.407  0.1172 -0.0071  0.1367
23408SOL    HW282204   9.884   2.717   4.370  0.0130 -0.0097 -0.1101
23409SOL     OW82205   7.971  13.471  12.678 -0.0286 -0.0849 -0.1259
23409SOL    HW182206   7.974  13.405  12.747 -0.1710 -0.2783 -0.3035
23409SOL    HW282207   8.035  13.441  12.613 -1.2425 -0.9319 -0.9851
23410SOL     OW82208   8.639  10.353   0.768 -0.4017 -0.5627  0.0909
23410SOL    HW182209   8.658  10.366   0.861 -0.2491  1.8215 -0.2073
23410SOL    HW282210   8.679  10.269   0.746  2.2954  0.2370  1.4976
23411SOL     OW82211  11.862   4.005   6.883  0.0224  0.0296  0.3157
23411SOL    HW182212  11.943   3.977   6.840  0.1262  1.1190 -0.2020
23411SOL    HW282213  11.858   3.951   6.962  0.9363 -0.4686  0.0354
23412SOL     OW82214   9.701   7.199   3.872 -0.4649  0.3425 -0.0283
23412SOL    HW182215   9.781   7.146   3.866 -0.6360  0.2547 -2.3629
23412SOL    HW282216   9.728   7.286   3.844 -1.1440  0.3564 -0.6382
23413SOL     OW82217  12.838   4.864   6.783  0.4151 -0.5589 -0.5484
23413SOL    HW182218  12.749   4.844   6.753 -0.8392  1.6138  1.3837
23413SOL    HW282219  12.829   4.876   6.878  2.4313  1.3780 -0.5189
23414SOL     OW82220   0.235  10.594   6.072  0.6544  0.1030  0.3478
23414SOL    HW182221   0.192  10.515   6.038  2.2887 -1.1419  1.0395
23414SOL    HW282222   0.184  10.618   6.149 -0.2776  0.1735 -0.2710
23415SOL     OW82223   9.552   3.211  12.797  0.0780 -0.2055  0.3295
23415SOL    HW182224   9.528   3.133  12.847 -1.1082 -0.0361  0.0345
23415SOL    HW282225   9.633   3.186  12.752 -0.7938 -1.6376 -0.5329
23416SOL     OW82226   5.121  11.049   3.840  0.6152  0.0373 -0.0843
23416SOL    HW182227   5.114  10.967   3.889  0.6308  0.0044 -0.1367
23416SOL    HW282228   5.098  11.117   3.903  0.2061 -0.0393 -0.1478
23417SOL     OW82229  11.399   4.164  10.191  0.3819  0.2031 -0.0975
23417SOL    HW182230  11.309   4.189  10.210  0.8589 -0.1072  2.9587
23417SOL    HW282231  11.391   4.077  10.151 -0.7048  0.8344 -1.3375
23418SOL     OW82232   4.542   3.406   5.844  0.2452 -0.2468  0.2043
23418SOL    HW182233   4.466   3.378   5.792 -1.0244 -1.2138  2.4481
23418SOL    HW282234   4.608   3.339   5.829 -0.6777 -1.3715  0.9907
23419SOL     OW82235   3.218   1.162   7.550 -0.0756 -0.1165  0.0809
23419SOL    HW182236   3.290   1.125   7.602  0.7806  2.4070  0.8402
23419SOL    HW282237   3.189   1.090   7.494  1.1954 -2.0001  1.7116
23420SOL     OW82238  11.386   4.722   9.754 -0.0312  0.3630  0.4069
23420SOL    HW182239  11.391   4.816   9.742  0.5125  0.1880 -0.9838
23420SOL    HW282240  11.294   4.700   9.737 -0.6047  0.8414  2.6507
23421SOL     OW82241   8.277   3.828   1.126  0.0320 -0.7729 -0.9418
23421SOL    HW182242   8.298   3.776   1.204 -0.4530 -0.9018 -0.8981
23421SOL    HW282243   8.361   3.835   1.079 -0.1660 -2.8243 -1.6955
23422SOL     OW82244  10.092   2.186   7.492  0.7944  0.7441  0.1159
23422SOL    HW182245  10.159   2.122   7.466 -0.4018 -0.6095  0.2539
23422SOL    HW282246  10.013   2.134   7.505 -0.0548  2.1743  0.9237
23423SOL     OW82247  10.462   5.625   0.975 -0.4428 -0.0632 -0.5579
23423SOL    HW182248  10.508   5.706   0.951 -1.5423  0.8435  0.2539
23423SOL    HW282249  10.459   5.575   0.893  0.9501  0.3424 -0.8926
23424SOL     OW82250   8.412   1.429   0.975  0.0616  0.8676 -0.0578
23424SOL    HW182251   8.327   1.407   1.012 -0.2098  0.4292 -0.9258
23424SOL    HW282252   8.421   1.523   0.988 -0.3549  0.8418  0.4325
23425SOL     OW82253   1.361   7.392  11.540  0.0560  0.2838 -0.4307
23425SOL    HW182254   1.315   7.319  11.581 -0.1883  0.7072  0.0501
23425SOL    HW282255   1.313   7.407  11.458 -0.8074  0.8696  0.1725
23426SOL     OW82256  13.468   1.966   7.238 -0.7543  0.1070  0.5865
23426SOL    HW182257  13.393   1.966   7.297 -0.7007 -1.0808  0.6863
23426SOL    HW282258  13.452   1.891   7.180  0.0832  0.1723  0.2611
23427SOL     OW82259   5.939   6.115   1.605  0.0214  0.0443  0.3761
23427SOL    HW182260   6.001   6.132   1.676 -0.0974  0.0778  0.4705
23427SOL    HW282261   5.943   6.020   1.593  1.9066  0.2501 -1.2375
23428SOL     OW82262   1.859   3.211  10.964 -0.0010  0.4443  0.0187
23428SOL    HW182263   1.813   3.144  10.914  0.1063 -0.5824  1.2524
23428SOL    HW282264   1.948   3.178  10.972  0.0953  0.8117  0.4951
23429SOL     OW82265   0.849   5.861   0.237  0.2712  0.2106 -0.2030
23429SOL    HW182266   0.905   5.827   0.307 -1.0360 -0.2133  0.6563
23429SOL    HW282267   0.910   5.879   0.165  1.4533 -0.6854  0.5349
23430SOL     OW82268   0.749   4.310   1.211  0.3481 -0.1825 -0.6157
23430SOL    HW182269   0.764   4.218   1.190 -0.9043 -0.4475 -0.4462
23430SOL    HW282270   0.758   4.315   1.306 -2.5196 -0.7978 -0.2147
23431SOL     OW82271   0.897   6.903  10.124 -0.0413  0.2691  0.2044
23431SOL    HW182272   0.843   6.982  10.110 -0.5264  0.0271  0.6695
23431SOL    HW282273   0.897   6.860  10.039  0.6315  1.0149 -0.1870
23432SOL     OW82274  13.343  11.260   2.130 -0.0548 -0.0657 -0.0059
23432SOL    HW182275  13.373  11.210   2.206  0.9834  0.9754  0.3086
23432SOL    HW282276  13.418  11.260   2.070 -0.2338  0.6166 -0.2462
23433SOL     OW82277  13.023  12.273   4.884 -0.2220  0.5276  0.1497
23433SOL    HW182278  12.975  12.349   4.918  0.4296  0.8162  0.4322
23433SOL    HW282279  12.956  12.223   4.836 -1.2202 -0.0156  2.0196
23434SOL     OW82280   6.647   5.265   7.023 -0.0891 -0.0218 -0.6658
23434SOL    HW182281   6.723   5.265   7.083 -0.5570  0.2749 -0.0633
23434SOL    HW282282   6.658   5.343   6.970  0.6376 -0.5902 -1.3769
23435SOL     OW82283  13.376   4.879   6.874 -0.2094 -0.3567 -0.0514
23435SOL    HW182284  13.292   4.834   6.867 -1.6842  1.9378  1.7326
23435SOL    HW282285  13.365   4.959   6.823  0.6967  0.2396  0.6513
23436SOL     OW82286   0.613   8.206   1.555  0.5529 -0.1010 -0.3820
23436SOL    HW182287   0.648   8.295   1.549  0.3982 -0.0656 -0.7735
23436SOL    HW282288   0.611   8.188   1.649  0.9865  0.1470 -0.3212
23437SOL     OW82289   1.854  11.244   8.661  0.2235  0.0077  0.0651
23437SOL    HW182290   1.773  11.216   8.705 -0.2384  1.0292 -0.1011
23437SOL    HW282291   1.870  11.332   8.696  2.5542 -1.0306  1.8411
23438SOL     OW82292  11.789  10.306   2.505 -0.1294  0.2510  0.4514
23438SOL    HW182293  11.759  10.355   2.581  0.1204  0.4806  0.4043
23438SOL    HW282294  11.880  10.334   2.492 -0.7574  1.7578 -1.1458
23439SOL     OW82295   1.436   9.500   4.976  0.1667 -0.6262  0.2639
23439SOL    HW182296   1.448   9.527   4.885  0.1914  1.4471  0.8165
23439SOL    HW282297   1.519   9.461   5.001  0.5345 -0.2290 -0.3113
23440SOL     OW82298   2.092   3.016   3.606 -1.0101 -0.2266  0.0245
23440SOL    HW182299   2.070   2.985   3.518  0.3855  0.3684 -0.5505
23440SOL    HW282300   2.128   2.939   3.650  3.6261  0.6153 -1.7955
23441SOL     OW82301   6.609   4.278  13.852  0.6452  0.3176 -0.0785
23441SOL    HW182302   6.563   4.211  13.802  1.5248  0.7461 -1.5293
23441SOL    HW282303   6.584   4.262  13.943 -0.0592 -1.2504 -0.5167
23442SOL     OW82304   4.054   8.379  13.544  0.3725 -0.4867 -0.4812
23442SOL    HW182305   3.962   8.367  13.570  0.2215  1.1134 -0.1927
23442SOL    HW282306   4.058   8.343  13.455 -0.5730 -0.4277 -0.5619
23443SOL     OW82307   9.827  11.352  11.031 -0.0027 -0.5595  0.0378
23443SOL    HW182308   9.766  11.314  10.967 -0.1135  0.2276 -0.3345
23443SOL    HW282309   9.840  11.442  11.001 -0.7089  0.0855  1.5861
23444SOL     OW82310   9.053   3.590  12.682  0.2378  0.5883  0.0370
23444SOL    HW182311   9.057   3.631  12.596  0.1201  0.6101  0.0406
23444SOL    HW282312   9.143   3.589  12.713  0.7540 -1.9155 -1.2472
23445SOL     OW82313   5.212   4.865   3.648 -0.2043 -0.1626  0.0523
23445SOL    HW182314   5.188   4.958   3.638 -0.2757 -0.3698 -2.3094
23445SOL    HW282315   5.265   4.863   3.727  0.6186  2.0765 -0.3583
23446SOL     OW82316   6.590   7.049  12.324  0.9348  0.1379  0.1856
23446SOL    HW182317   6.520   7.113  12.330  0.7821 -0.1832  3.2042
23446SOL    HW282318   6.549   6.966  12.349  1.9164 -0.4714 -0.1515
23447SOL     OW82319  12.034  12.115  13.056 -0.2963 -0.2752 -0.5020
23447SOL    HW182320  12.097  12.176  13.094 -0.1707 -0.6833 -0.0430
23447SOL    HW282321  12.037  12.133  12.962  1.0794 -0.8104 -0.5828
23448SOL     OW82322  10.173   0.071   1.080 -0.0173 -0.4099  0.1007
23448SOL    HW182323  10.156   0.016   1.157  0.1955 -0.4202  0.1399
23448SOL    HW282324  10.227   0.143   1.113 -0.1074 -0.2982  0.0036
23449SOL     OW82325   3.325   1.770   6.382  0.0560  0.4032 -0.9130
23449SOL    HW182326   3.401   1.712   6.385 -0.3455 -0.1091 -0.6824
23449SOL    HW282327   3.360   1.855   6.409 -0.2027 -0.6353  3.4018
23450SOL     OW82328   8.421  11.238   9.650 -0.0364  0.0151 -0.2465
23450SOL    HW182329   8.505  11.194   9.660  0.1063  0.1931 -0.6306
23450SOL    HW282330   8.433  11.322   9.694 -0.6607 -0.7459  1.4734
23451SOL     OW82331  10.829   8.381  11.765 -0.6833 -0.3380  0.4413
23451SOL    HW182332  10.854   8.473  11.760 -1.3091 -0.1675  0.3456
23451SOL    HW282333  10.889   8.343  11.829 -0.4793  0.1574  0.5461
23452SOL     OW82334   5.316   5.349   7.304  0.1651  0.0500 -0.2781
23452SOL    HW182335   5.353   5.348   7.392 -1.7498 -0.8446  0.5785
23452SOL    HW282336   5.372   5.408   7.255  0.1711  2.1556  2.0604
23453SOL     OW82337   7.482   9.234  11.390 -0.2646 -0.0299  0.6079
23453SOL    HW182338   7.491   9.298  11.461  2.3351 -0.2157  0.5302
23453SOL    HW282339   7.469   9.288  11.312  0.5503  0.3834  0.7368
23454SOL     OW82340   4.269   3.948   9.022  0.0849  0.7401  0.2893
23454SOL    HW182341   4.228   3.984   9.101  0.5670  0.3484  0.7235
23454SOL    HW282342   4.223   3.992   8.950 -1.4761 -0.0712  0.7297
23455SOL     OW82343  11.899  12.439  13.008  0.2568  0.5161  0.1983
23455SOL    HW182344  11.926  12.392  13.087 -0.0123 -0.6017 -0.3519
23455SOL    HW282345  11.886  12.529  13.037 -0.6471 -0.0383  1.6085
23456SOL     OW82346   1.525  12.183  12.924  0.6577 -0.2637  0.4096
23456SOL    HW182347   1.465  12.114  12.896  2.5444 -1.3423 -1.2711
23456SOL    HW282348   1.590  12.187  12.854  0.3443  3.6528  0.1234
23457SOL     OW82349   8.246   0.720   6.988 -0.1316 -0.2186  0.6091
23457SOL    HW182350   8.182   0.786   6.959  0.6238  1.4546  2.5022
23457SOL    HW282351   8.315   0.723   6.922 -1.5983 -1.6036 -1.1282
23458SOL     OW82352  13.323   9.105   3.532  0.2362 -0.4602  0.1376
23458SOL    HW182353  13.382   9.094   3.458  0.3701 -2.1916  0.4644
23458SOL    HW282354  13.379   9.130   3.605  0.3224 -0.3780  0.0427
23459SOL     OW82355   6.140   2.421   5.379  0.8009 -0.1823  0.3143
23459SOL    HW182356   6.117   2.352   5.440 -0.4118  1.4114  1.7418
23459SOL    HW282357   6.234   2.410   5.364  0.8180 -1.5150  1.2714
23460SOL     OW82358   0.485  12.989   6.257 -0.5082  0.0077  0.0602
23460SOL    HW182359   0.544  12.956   6.189 -1.8192  0.3023 -1.2884
23460SOL    HW282360   0.483  12.921   6.323 -0.1865 -0.8930 -0.8326
23461SOL     OW82361   4.253   4.595  10.432  0.2484  0.5956 -0.6061
23461SOL    HW182362   4.341   4.561  10.452  0.2102  1.1798  0.6668
23461SOL    HW282363   4.235   4.563  10.344  0.8157 -1.4375 -0.0550
23462SOL     OW82364  12.990   0.802   7.790  0.3852 -0.1487  0.5087
23462SOL    HW182365  13.061   0.756   7.835  0.8010 -1.2892 -1.2024
23462SOL    HW282366  13.034   0.870   7.739  0.2088 -0.4567 -0.0712
23463SOL     OW82367  10.328   6.473   6.542  0.3490  0.0235  0.4943
23463SOL    HW182368  10.408   6.455   6.493  0.0140  0.7045 -0.3400
23463SOL    HW282369  10.339   6.563   6.574  0.3116 -0.2099  1.1614
23464SOL     OW82370   5.730   2.397  12.431  0.2723  0.3097 -0.0270
23464SOL    HW182371   5.811   2.350  12.448 -0.3881 -1.2638 -1.0183
23464SOL    HW282372   5.713   2.384  12.338 -0.8933  0.9875  0.0675
23465SOL     OW82373   4.478   8.181  12.277  0.4334  0.0894  0.0026
23465SOL    HW182374   4.548   8.246  12.291 -0.2375  0.5677  1.3381
23465SOL    HW282375   4.459   8.148  12.365 -1.2494  0.2188 -0.2821
23466SOL     OW82376   5.257   1.026  11.435  0.3268 -0.2119 -0.2468
23466SOL    HW182377   5.321   0.979  11.381  0.9183  1.3972 -1.0266
23466SOL    HW282378   5.310   1.088  11.485 -0.2281 -1.5603  2.1459
23467SOL     OW82379   9.436   8.450   5.274 -0.0709 -0.5071 -0.1446
23467SOL    HW182380   9.410   8.541   5.288 -0.1896 -0.7390  1.2476
23467SOL    HW282381   9.387   8.401   5.340  1.1827 -1.3966  0.1473
23468SOL     OW82382   6.694   0.698   7.561  0.1132  0.1479 -0.1674
23468SOL    HW182383   6.752   0.769   7.532  1.5130 -1.1984 -0.7991
23468SOL    HW282384   6.710   0.691   7.655  0.9447 -0.1553 -0.3209
23469SOL     OW82385   4.556   0.594   3.972 -0.3443 -0.3063  0.0703
23469SOL    HW182386   4.492   0.535   3.932 -0.2634 -0.2791 -0.1009
23469SOL    HW282387   4.595   0.543   4.043 -0.7478 -0.2319  0.3521
23470SOL     OW82388   7.322   1.150   0.470  0.5418 -0.2207  0.7238
23470SOL    HW182389   7.264   1.223   0.448 -0.0366 -0.7077  0.6115
23470SOL    HW282390   7.273   1.072   0.445  1.9553 -0.6054 -1.0926
23471SOL     OW82391   1.543  11.723   0.840  0.2433  0.4170 -0.7044
23471SOL    HW182392   1.475  11.739   0.905 -0.7313  1.0069 -1.8431
23471SOL    HW282393   1.539  11.798   0.780  2.0746  0.6037 -0.6640
23472SOL     OW82394  11.687   9.135  10.428  0.1392  0.6298  0.0238
23472SOL    HW182395  11.781   9.119  10.437  0.2684  1.4765  0.2525
23472SOL    HW282396  11.653   9.128  10.517 -0.2405 -0.9266 -0.2107
23473SOL     OW82397   7.558  11.360   3.071 -0.2699  0.0698 -0.2792
23473SOL    HW182398   7.611  11.284   3.045 -1.9729 -1.1805 -0.2602
23473SOL    HW282399   7.543  11.407   2.989  0.2448  0.0273 -0.4022
23474SOL     OW82400   2.252  13.786  10.710 -0.3597 -0.0135  0.7179
23474SOL    HW182401   2.344  13.765  10.690  0.1570  1.2854  1.6057
23474SOL    HW282402   2.210  13.701  10.719  0.0811 -0.7158 -2.5128
23475SOL     OW82403   3.450   3.244   3.038 -0.3430  0.2460  0.2048
23475SOL    HW182404   3.429   3.286   2.955  0.5951  0.0834 -0.1260
23475SOL    HW282405   3.465   3.316   3.099  0.2053  0.3773 -0.0884
23476SOL     OW82406  12.886   4.505   8.246 -0.4051 -0.0997  0.9253
23476SOL    HW182407  12.928   4.532   8.164 -1.0015 -1.4021  0.1639
23476SOL    HW282408  12.882   4.586   8.297  0.2297  0.6953 -0.2057
23477SOL     OW82409   1.250   9.481   1.862 -0.3632 -0.8085  0.0488
23477SOL    HW182410   1.328   9.441   1.901 -0.2576 -1.1123 -0.4520
23477SOL    HW282411   1.204   9.521   1.935  0.3833 -0.4244  0.3152
23478SOL     OW82412  12.218  10.059   4.693  0.4171 -0.4113 -0.5370
23478SOL    HW182413  12.131  10.050   4.655 -0.4289 -0.0100  1.1903
23478SOL    HW282414  12.269   9.987   4.655 -1.1916 -1.7621 -0.2269
23479SOL     OW82415  12.365   1.198   5.961  0.3262  0.1799 -0.1920
23479SOL    HW182416  12.380   1.291   5.939  1.2360 -0.2191 -1.4057
23479SOL    HW282417  12.291   1.173   5.906 -1.8656  0.8857  2.2542
23480SOL     OW82418   3.040   5.800  12.200  0.0902  0.3685  0.2631
23480SOL    HW182419   3.074   5.882  12.235  0.6442  0.0332  0.5294
23480SOL    HW282420   2.967   5.778  12.257 -0.1499  0.7543  0.1016
23481SOL     OW82421  13.306   9.957   6.463  0.6342  0.0084  0.5638
23481SOL    HW182422  13.310   9.869   6.425  1.2425  0.1492  0.2820
23481SOL    HW282423  13.247   9.949   6.537  0.8649 -0.6931  0.6789
23482SOL     OW82424  11.272  11.797   2.674 -0.5262  0.2279 -0.3248
23482SOL    HW182425  11.281  11.803   2.579 -0.9783  1.0299 -0.3164
23482SOL    HW282426  11.346  11.847   2.708 -0.4953  0.1311 -0.2463
23483SOL     OW82427   3.030   3.484   5.498 -0.1468  0.1008  0.3360
23483SOL    HW182428   3.064   3.518   5.580 -0.2861  1.6367 -0.2121
23483SOL    HW282429   3.006   3.562   5.447 -0.7082 -0.8261 -0.8862
23484SOL     OW82430   1.250   7.834   8.336  0.5793  0.2424  0.1926
23484SOL    HW182431   1.202   7.862   8.258  0.8998  0.8648  0.2160
23484SOL    HW282432   1.326   7.787   8.301  0.9913  0.9588  0.1164
23485SOL     OW82433   0.533   2.749   3.603 -0.5727 -0.2676 -0.0328
23485SOL    HW182434   0.611   2.758   3.657 -0.2625 -0.8414 -0.3802
23485SOL    HW282435   0.462   2.734   3.665 -0.4646  0.5387  0.3048
23486SOL     OW82436  12.499  12.211   0.118  0.0228 -0.0348  0.0448
23486SOL    HW182437  12.524  12.184   0.030 -1.2075  0.3540 -0.4539
23486SOL    HW282438  12.416  12.257   0.106 -0.5829 -0.6790  1.5058
23487SOL     OW82439   3.157  13.845   4.340 -0.0544  0.0994 -0.0177
23487SOL    HW182440   3.191  13.764   4.378 -0.2457 -0.8368 -1.7452
23487SOL    HW282441   3.067  13.824   4.315 -1.3308  1.9260  2.6029
23488SOL     OW82442  11.997   2.338   4.644  0.3705 -0.4235 -0.0101
23488SOL    HW182443  12.076   2.373   4.601 -1.6342  1.4360 -2.4718
23488SOL    HW282444  11.967   2.268   4.586  1.0724 -2.3683  1.8402
23489SOL     OW82445   6.102   2.321   0.161 -0.3551 -0.2319 -0.4020
23489SOL    HW182446   6.074   2.381   0.230 -0.5395 -0.6780 -0.0801
23489SOL    HW282447   6.091   2.371   0.079  1.3231  0.8355 -0.0185
23490SOL     OW82448   9.962   4.928   7.764  0.1171 -0.2291 -0.7141
23490SOL    HW182449   9.985   4.975   7.844 -1.8245 -5.0845  3.2778
23490SOL    HW282450  10.042   4.879   7.743  0.3796  0.4364 -1.2894
23491SOL     OW82451   1.279   7.961   0.610  0.1761  0.4240 -0.0695
23491SOL    HW182452   1.262   8.046   0.569  0.2550  0.3188 -0.3248
23491SOL    HW282453   1.249   7.971   0.701 -2.4980 -0.1737 -0.8127
23492SOL     OW82454   0.862   1.760   2.467 -0.0397  0.6361 -0.5018
23492SOL    HW182455   0.838   1.686   2.412  3.1093 -0.5255 -0.5484
23492SOL    HW282456   0.872   1.723   2.555  0.1898  1.3076 -0.2371
23493SOL     OW82457   6.163   0.896  11.058  0.3955 -0.0172 -0.0039
23493SOL    HW182458   6.136   0.876  10.968 -2.4378  0.6779  0.6032
23493SOL    HW282459   6.106   0.841  11.113  0.7615  0.9537  1.3999
23494SOL     OW82460   0.745  13.870   6.378 -0.0772 -0.1697  0.3671
23494SOL    HW182461   0.703  13.786   6.363  2.0410 -1.0361 -1.2205
23494SOL    HW282462   0.707  13.901   6.461 -0.2090 -3.1436  1.5519
23495SOL     OW82463   0.968   4.255   2.840 -0.5172  0.2505 -1.3211
23495SOL    HW182464   1.048   4.205   2.856 -2.4253 -2.1764  1.7958
23495SOL    HW282465   0.975   4.332   2.898 -0.8923 -0.6300 -0.0567
23496SOL     OW82466   3.994  11.304   9.436  0.0974  0.4088 -0.1238
23496SOL    HW182467   3.923  11.252   9.471  0.2740 -0.1908 -0.6344
23496SOL    HW282468   4.067  11.242   9.425  0.4028  0.8190 -0.4586
23497SOL     OW82469   4.493   5.766   2.041  0.2372 -0.2961  0.4466
23497SOL    HW182470   4.433   5.740   2.111 -0.0410  2.3965  1.2920
23497SOL    HW282471   4.511   5.684   1.995 -0.7610 -1.9149  2.7172
23498SOL     OW82472  13.385   3.306   5.925 -0.4041  0.2406 -0.1982
23498SOL    HW182473  13.347   3.342   6.006  0.3555 -0.6162  0.5569
23498SOL    HW282474  13.479   3.319   5.935 -0.1395 -1.5022 -0.0965
23499SOL     OW82475  13.396   8.028  13.084  0.2075  0.0104  0.1398
23499SOL    HW182476  13.384   8.113  13.126  0.5025 -0.3813  1.0365
23499SOL    HW282477  13.471   7.989  13.130  0.0457 -0.7551 -0.2320
23500SOL     OW82478   5.822   6.302   0.766 -0.5510  0.1316 -0.2846
23500SOL    HW182479   5.896   6.244   0.782  0.6306  2.1795  2.8821
23500SOL    HW282480   5.749   6.261   0.811 -0.0750  0.3264  0.7098
23501SOL     OW82481   7.432  11.376  11.288  0.0123 -0.0510 -0.1983
23501SOL    HW182482   7.437  11.304  11.226 -1.0945  0.8135 -1.3463
23501SOL    HW282483   7.363  11.351  11.349 -2.2506  1.0815 -2.1270
23502SOL     OW82484   0.601   8.728   8.274 -0.1001  0.1380  0.3544
23502SOL    HW182485   0.583   8.810   8.319  0.0260  1.0556 -1.2053
23502SOL    HW282486   0.631   8.754   8.187 -2.4707 -1.5626 -1.1008
23503SOL     OW82487   6.462  11.529  10.233 -0.1757  0.1437 -0.3194
23503SOL    HW182488   6.454  11.615  10.192  0.4582  0.0910 -0.5712
23503SOL    HW282489   6.477  11.548  10.326 -2.5761  0.2411  0.0923
23504SOL     OW82490   4.238  10.803   2.187 -0.2705  0.4056  0.0431
23504SOL    HW182491   4.175  10.835   2.122  0.3309 -0.0780 -0.7989
23504SOL    HW282492   4.227  10.708   2.186 -0.3361  0.4015  0.7401
23505SOL     OW82493   7.398   3.930   5.339  0.7247 -0.2768  0.3106
23505SOL    HW182494   7.393   4.019   5.303  1.2515 -0.5360 -0.4292
23505SOL    HW282495   7.413   3.874   5.263 -0.0926 -1.0595  0.7136
23506SOL     OW82496   8.114   7.105  10.372 -0.3950 -0.0019 -0.1021
23506SOL    HW182497   8.095   7.133  10.462  0.9819 -2.3601  1.0332
23506SOL    HW282498   8.089   7.179  10.318 -0.5513  1.8243  2.2978
23507SOL     OW82499  11.466   7.888   4.120  0.2195  0.1222 -0.4519
23507SOL    HW182500  11.550   7.859   4.084  0.7751 -0.1331  0.9716
23507SOL    HW282501  11.414   7.912   4.044  2.1475  1.8703 -1.3382
23508SOL     OW82502  12.015   9.257   5.695  0.3867  0.2616 -0.9031
23508SOL    HW182503  12.093   9.280   5.644  1.8900 -0.3931  0.9483
23508SOL    HW282504  12.000   9.332   5.752  0.4711 -0.1196 -0.3638
23509SOL     OW82505  11.723   9.727   6.023  0.3110 -0.3916  0.1985
23509SOL    HW182506  11.691   9.780   5.949  0.4430  0.1088  0.4973
23509SOL    HW282507  11.662   9.654   6.028  1.5400 -1.6487 -1.7997
23510SOL     OW82508   9.125  10.839  11.304  0.8135 -0.7480  0.7817
23510SOL    HW182509   9.097  10.860  11.393 -1.3852 -1.7486  0.4041
23510SOL    HW282510   9.159  10.749  11.310 -0.6381 -1.3430  0.4045
23511SOL     OW82511   3.301   1.566   6.682 -0.0321  0.1296  0.1197
23511SOL    HW182512   3.317   1.660   6.681 -0.9388  0.4732  3.6904
23511SOL    HW282513   3.214   1.555   6.645  1.1052  0.2272 -2.9320
23512SOL     OW82514  13.415   5.240   2.211  0.3213  0.9591  0.1870
23512SOL    HW182515  13.470   5.163   2.197 -1.5585 -0.6448  1.0712
23512SOL    HW282516  13.362   5.217   2.287 -0.2868  3.1690  0.4806
23513SOL     OW82517   4.709  11.313  13.975  0.4974 -0.2261 -0.2589
23513SOL    HW182518   4.620  11.344  13.995  0.5361 -0.2078 -0.1114
23513SOL    HW282519   4.717  11.232  14.025  0.4844 -0.3432 -0.4494
23514SOL     OW82520   0.845  11.165   9.829 -0.1642  0.0029 -0.1315
23514SOL    HW182521   0.796  11.180   9.749  0.4519 -1.4385 -0.8232
23514SOL    HW282522   0.797  11.213   9.896 -1.2748  0.3973 -1.1714
23515SOL     OW82523  10.670   0.121  10.431  0.7570 -0.3684 -0.4327
23515SOL    HW182524  10.654   0.046  10.488 -0.5203  0.0936 -0.1316
23515SOL    HW282525  10.686   0.083  10.344  2.0320 -1.0448  0.0887
23516SOL     OW82526   6.667   2.971   5.009  0.2358  0.5078  0.1057
23516SOL    HW182527   6.735   3.039   5.011  2.7209 -1.7698  2.1445
23516SOL    HW282528   6.700   2.903   5.069 -2.6469 -1.9650 -0.8523
23517SOL     OW82529   8.784  12.176  12.262 -0.7545 -0.2852  0.0605
23517SOL    HW182530   8.798  12.201  12.170 -0.4406 -1.6699 -0.2869
23517SOL    HW282531   8.796  12.258  12.310 -0.8257  0.4502 -1.1187
23518SOL     OW82532   0.773   7.594   7.557  0.0446 -0.1736 -0.3734
23518SOL    HW182533   0.754   7.674   7.508 -0.1354 -0.9046 -1.5335
23518SOL    HW282534   0.866   7.577   7.542  0.0184 -0.3311 -0.3675
23519SOL     OW82535   7.670   1.144   4.407  0.0891  0.0086 -0.5417
23519SOL    HW182536   7.732   1.073   4.395  1.5605  0.9121  1.2163
23519SOL    HW282537   7.686   1.176   4.496 -0.2818  2.7009 -1.3282
23520SOL     OW82538   0.855   1.996   7.617  0.4487  0.1343  0.2856
23520SOL    HW182539   0.881   2.088   7.620  2.9207 -0.5053  1.2293
23520SOL    HW282540   0.903   1.962   7.541  0.1569 -0.5332  0.4016
23521SOL     OW82541  10.333   1.714  10.833  0.5529 -0.2265  0.1330
23521SOL    HW182542  10.388   1.642  10.864 -0.9128 -2.1634 -1.4561
23521SOL    HW282543  10.343   1.714  10.738  1.4034  2.5245  0.1317
23522SOL     OW82544  11.949  12.971   6.569 -0.1142  0.0565 -0.6471
23522SOL    HW182545  11.919  12.939   6.484  1.8615  1.4487 -1.9438
23522SOL    HW282546  12.043  12.952   6.570  0.0331  0.7185  0.9421
23523SOL     OW82547   2.544   3.365  11.666  0.1115  0.5200 -0.0802
23523SOL    HW182548   2.554   3.459  11.649 -1.0078  0.6706  0.0033
23523SOL    HW282549   2.606   3.347  11.736 -0.3023  1.3958  0.5305
23524SOL     OW82550   3.885  12.192   7.423  0.2699  0.0978 -0.1510
23524SOL    HW182551   3.871  12.247   7.346  3.1046  0.9143 -0.1960
23524SOL    HW282552   3.808  12.135   7.426 -1.4996  2.2284 -1.6550
23525SOL     OW82553  13.786   2.196   3.956 -0.1561 -0.0307 -0.3505
23525SOL    HW182554  13.847   2.187   3.883  1.3620  1.6269  0.6544
23525SOL    HW282555  13.719   2.257   3.924 -0.0998 -0.1619 -0.7221
23526SOL     OW82556   6.296  13.341  13.620 -0.5320  0.6197  0.9657
23526SOL    HW182557   6.340  13.380  13.545  0.9303 -0.9148  0.9818
23526SOL    HW282558   6.249  13.266  13.583 -1.4076  0.9983  1.2940
23527SOL     OW82559   3.493  10.616  11.599 -0.4497 -0.2407  0.0939
23527SOL    HW182560   3.427  10.629  11.668 -1.5903  0.3625 -1.0757
23527SOL    HW282561   3.478  10.688  11.538 -0.0801 -1.2829 -1.2663
23528SOL     OW82562   0.547   2.697   1.586 -0.7675 -0.3916  0.1409
23528SOL    HW182563   0.576   2.771   1.639 -1.8851 -0.5805  1.0567
23528SOL    HW282564   0.586   2.620   1.629  0.9538 -0.3184 -1.2024
23529SOL     OW82565   9.489   9.066   2.069  0.0197 -0.3733  0.0246
23529SOL    HW182566   9.533   9.049   1.985 -0.4252 -0.5248 -0.1820
23529SOL    HW282567   9.395   9.059   2.049 -0.1131  0.2189  0.3955
23530SOL     OW82568   3.623   8.110   7.312 -0.3571 -0.1600  0.4472
23530SOL    HW182569   3.556   8.165   7.351  0.1929  1.3660 -0.6452
23530SOL    HW282570   3.693   8.108   7.377 -0.3647  0.5017  0.4838
23531SOL     OW82571  10.396  12.824   8.681 -0.0614  0.5797 -0.1529
23531SOL    HW182572  10.486  12.817   8.713  0.5544  3.7513 -0.8275
23531SOL    HW282573  10.403  12.819   8.586 -0.9267 -1.1907 -0.1647
23532SOL     OW82574   7.681   8.295   4.113  0.4698  0.4970  0.1478
23532SOL    HW182575   7.721   8.216   4.149  0.4831  0.3811 -0.1222
23532SOL    HW282576   7.587   8.281   4.121  0.4740  0.7792  0.8017
23533SOL     OW82577  10.685   9.031   5.977 -0.2981  0.0494 -0.1863
23533SOL    HW182578  10.718   9.106   6.026 -0.6017 -0.0468  0.1668
23533SOL    HW282579  10.718   8.954   6.024  0.4346 -0.0417 -0.8360
23534SOL     OW82580  11.471   4.667  10.849 -0.0034 -0.3552  0.0097
23534SOL    HW182581  11.413   4.740  10.828  0.3913 -0.0099  0.1174
23534SOL    HW282582  11.559   4.700  10.830  0.2997 -0.3296  1.3802
23535SOL     OW82583   8.991   4.388   0.348  0.1663  0.6007  0.2467
23535SOL    HW182584   8.926   4.451   0.317 -0.7289 -0.7109 -0.6331
23535SOL    HW282585   8.952   4.349   0.426  0.4459  0.6979  0.4370
23536SOL     OW82586   4.787   4.124   0.236  1.2466  0.1614 -0.2084
23536SOL    HW182587   4.696   4.103   0.257  1.5387 -0.2409  0.7331
23536SOL    HW282588   4.832   4.039   0.240  1.3058  0.0143 -2.7499
23537SOL     OW82589  13.227  12.384   4.696  0.9591 -0.1741  0.3674
23537SOL    HW182590  13.171  12.341   4.760  2.1066 -1.9838  0.2275
23537SOL    HW282591  13.182  12.370   4.612 -0.1458  1.5200  0.6244
23538SOL     OW82592   8.984   1.494  12.843  0.1920 -0.4222 -0.6968
23538SOL    HW182593   8.939   1.516  12.925  1.3172 -1.9865  0.3805
23538SOL    HW282594   9.057   1.556  12.838 -0.3662  0.2346 -0.9923
23539SOL     OW82595   0.725   7.122  10.134 -0.2346 -0.1315  0.9089
23539SOL    HW182596   0.774   7.197  10.167  0.2434 -0.2954  0.5843
23539SOL    HW282597   0.639   7.157  10.113  0.3805  0.6282 -0.4675
23540SOL     OW82598   6.629   5.775  13.377 -0.6431 -0.1675 -0.3374
23540SOL    HW182599   6.553   5.742  13.329  0.4976 -1.5058 -1.3146
23540SOL    HW282600   6.670   5.836  13.316 -1.2900  1.1183  0.4678
23541SOL     OW82601  13.056   0.888   4.402  0.2297 -0.1407  0.3501
23541SOL    HW182602  13.124   0.843   4.452  0.4641 -0.5127 -0.2898
23541SOL    HW282603  13.099   0.914   4.321 -0.3049 -0.0758  0.0824
23542SOL     OW82604   9.898   2.108   7.757 -0.3087 -0.0272  0.0598
23542SOL    HW182605   9.982   2.076   7.789 -0.7431 -1.5935 -0.2877
23542SOL    HW282606   9.846   2.124   7.836 -0.0239 -0.0087  0.2426
23543SOL     OW82607   7.017  13.416   7.356 -0.0294 -0.2499 -0.1058
23543SOL    HW182608   7.111  13.419   7.342  0.1373 -1.6802  0.5984
23543SOL    HW282609   6.979  13.413   7.268  0.3669  3.5571 -0.5704
23544SOL     OW82610  10.812   5.534   0.837 -0.6141 -0.2499 -0.2216
23544SOL    HW182611  10.898   5.499   0.816  0.1159  0.8361  0.8552
23544SOL    HW282612  10.817   5.560   0.928 -2.1560 -0.3226 -0.0810
23545SOL     OW82613   8.451  11.920  13.864 -0.0372 -0.2290 -0.0088
23545SOL    HW182614   8.452  11.912  13.960 -0.6504  0.6219  0.0840
23545SOL    HW282615   8.380  11.861  13.837 -0.1535 -0.1426  0.1036
23546SOL     OW82616   1.380  10.840  10.425  0.3011 -0.6074 -0.1243
23546SOL    HW182617   1.450  10.781  10.452 -1.0197 -1.8416  0.7873
23546SOL    HW282618   1.360  10.892  10.503  0.5789  0.1391 -0.5427
23547SOL     OW82619   0.460   2.093   4.037  0.3198 -0.5190 -0.0035
23547SOL    HW182620   0.454   2.119   3.945  0.5388 -0.2117  0.0715
23547SOL    HW282621   0.484   2.000   4.033  0.5625 -0.4481 -0.2545
23548SOL     OW82622  13.944  11.219   6.885  0.7442  0.4965 -0.4550
23548SOL    HW182623  13.951  11.309   6.855 -1.9163  0.9203 -0.1099
23548SOL    HW282624  13.970  11.221   6.977  0.0556  1.0881 -0.2625
23549SOL     OW82625   0.552   3.152  13.701  0.2132  0.5924 -0.1357
23549SOL    HW182626   0.605   3.209  13.756  0.2364 -0.7468  1.2844
23549SOL    HW282627   0.615   3.094  13.658 -0.0512 -2.1918  2.9096
23550SOL     OW82628   5.874  13.067  12.440 -0.3417 -0.0038 -0.1518
23550SOL    HW182629   5.958  13.110  12.453 -0.3196 -0.5177  1.5950
23550SOL    HW282630   5.828  13.077  12.523 -1.8935 -0.0097 -0.9753
23551SOL     OW82631  12.497   6.071  12.908 -0.5137  0.0139  0.1971
23551SOL    HW182632  12.512   6.130  12.834  0.5603  0.6413  0.8862
23551SOL    HW282633  12.486   6.129  12.983  1.1867 -0.6252  0.9996
23552SOL     OW82634   3.046  11.048  11.913  0.3837  0.2303 -0.1661
23552SOL    HW182635   3.087  11.016  11.993 -3.5206  1.7579  2.7553
23552SOL    HW282636   2.983  10.980  11.889 -1.8059  1.7358  0.9872
23553SOL     OW82637  11.562   4.970   1.874  0.1052  0.2893  0.8124
23553SOL    HW182638  11.467   4.966   1.888 -0.0794  0.1122 -0.3757
23553SOL    HW282639  11.594   4.883   1.898  0.0422  0.4995  1.6790
23554SOL     OW82640  10.604   6.674   8.756 -0.3066  0.3520 -0.3071
23554SOL    HW182641  10.611   6.735   8.829  1.9575  1.1546 -1.1281
23554SOL    HW282642  10.609   6.587   8.796  0.3903  0.7721  0.5444
23555SOL     OW82643  13.398   9.285   9.568 -0.6604 -0.4422  0.0076
23555SOL    HW182644  13.465   9.345   9.534 -0.6075  0.7346  2.0179
23555SOL    HW282645  13.356   9.249   9.490  1.0956  0.1730 -1.2857
23556SOL     OW82646   0.163   4.538   7.458 -0.4730  0.2664  0.3820
23556SOL    HW182647   0.090   4.527   7.398  0.3640  1.0130 -0.8103
23556SOL    HW282648   0.236   4.494   7.415  0.3956  1.6952  0.3297
23557SOL     OW82649   6.699  10.055   5.453 -0.3312  0.2200 -0.5264
23557SOL    HW182650   6.758  10.122   5.419 -0.6711  1.2031  0.7450
23557SOL    HW282651   6.756   9.996   5.502 -0.3394  1.0290  0.4914
23558SOL     OW82652   2.728  11.303   8.548 -0.4097 -0.3281 -0.3068
23558SOL    HW182653   2.684  11.266   8.472  1.3911 -0.1111 -1.5339
23558SOL    HW282654   2.752  11.228   8.602  0.2633 -0.7108 -1.1076
23559SOL     OW82655  13.432   4.470   4.642 -0.7380 -0.5228 -0.4228
23559SOL    HW182656  13.428   4.496   4.734  0.5219 -1.4932 -0.0752
23559SOL    HW282657  13.428   4.375   4.644 -2.9187 -0.5109 -1.5362
23560SOL     OW82658  10.730   7.485   4.394  0.2013  0.1804 -0.4686
23560SOL    HW182659  10.810   7.535   4.376 -0.2718  0.1970 -2.9519
23560SOL    HW282660  10.685   7.535   4.462  1.8116  0.7171  0.2396
23561SOL     OW82661   0.729   4.596   9.834 -0.1352 -0.1761 -0.5612
23561SOL    HW182662   0.745   4.626   9.745  0.6620 -0.5495 -0.5513
23561SOL    HW282663   0.733   4.675   9.888 -1.3367  0.1556 -0.9361
23562SOL     OW82664   7.742   9.862   9.451 -0.0207  0.4004 -0.6231
23562SOL    HW182665   7.677   9.890   9.516  0.2540  0.1948 -0.2570
23562SOL    HW282666   7.819   9.915   9.471  0.8175 -1.2367  0.6692
23563SOL     OW82667   4.359   0.758  11.779 -0.4009 -0.2431 -0.5914
23563SOL    HW182668   4.295   0.766  11.850  0.0022 -1.1144 -0.1031
23563SOL    HW282669   4.369   0.663  11.767  0.9273 -0.1240 -0.5344
23564SOL     OW82670   6.307   8.034   8.965 -0.1017  0.9325  0.4882
23564SOL    HW182671   6.355   8.008   8.886  0.2542  1.4701  0.5218
23564SOL    HW282672   6.316   7.960   9.024 -2.4239 -0.5294 -0.8526
23565SOL     OW82673   3.771   3.374   8.269 -0.1439 -0.3591 -0.0365
23565SOL    HW182674   3.817   3.368   8.185  2.7838  0.9308  1.3378
23565SOL    HW282675   3.840   3.361   8.335 -1.6163  2.1862  2.2085
23566SOL     OW82676  12.721   3.298  10.079  0.3443 -0.0271  0.5879
23566SOL    HW182677  12.681   3.339  10.156 -0.7204  0.9739 -0.4649
23566SOL    HW282678  12.669   3.329  10.005  2.2843  0.2499 -0.7285
23567SOL     OW82679  12.264  12.733   9.924 -0.0050 -0.1128 -0.5216
23567SOL    HW182680  12.202  12.660   9.914 -1.0062  0.6179  0.1268
23567SOL    HW282681  12.268  12.772   9.837 -0.6999  0.0062 -0.5118
23568SOL     OW82682   7.865  12.865  11.131 -0.0553 -0.0960  0.4178
23568SOL    HW182683   7.818  12.791  11.169 -0.4412 -0.9436 -1.5966
23568SOL    HW282684   7.939  12.826  11.085 -0.0038  0.8093 -0.3021
23569SOL     OW82685   6.699   1.308   4.857  0.0165  0.2000  0.1943
23569SOL    HW182686   6.629   1.247   4.880 -1.3484  1.3279 -0.8516
23569SOL    HW282687   6.713   1.360   4.937  0.2209 -0.5406  0.6478
23570SOL     OW82688   7.693   8.739  10.432  0.0063  0.2444  0.4799
23570SOL    HW182689   7.759   8.806  10.447  0.7345 -0.4047  0.2420
23570SOL    HW282690   7.690   8.689  10.513 -1.9326  1.7085  1.3947
23571SOL     OW82691  12.495  10.167   9.905 -0.1639 -0.3458 -0.9685
23571SOL    HW182692  12.516  10.099   9.969 -0.3710  1.2788  0.8876
23571SOL    HW282693  12.416  10.135   9.861 -0.6748 -0.9909  0.3620
23572SOL     OW82694   3.950   6.742  13.342 -0.4230  0.1286 -0.8146
23572SOL    HW182695   3.953   6.812  13.407  2.5891  0.3857 -1.0920
23572SOL    HW282696   3.965   6.662  13.392 -0.4744  0.0704 -0.8934
23573SOL     OW82697  10.733   2.156  10.731 -0.9798 -0.0139 -0.4776
23573SOL    HW182698  10.688   2.080  10.694 -0.9790 -0.5329  0.5694
23573SOL    HW282699  10.679   2.183  10.805  0.5421 -0.8176  0.9869
23574SOL     OW82700   6.521   2.176  13.090  0.5292  0.1811 -0.1947
23574SOL    HW182701   6.426   2.180  13.083  0.4890  0.3149  0.3777
23574SOL    HW282702   6.542   2.236  13.162  1.1819  1.3958 -1.3695
23575SOL     OW82703   8.526  12.731  13.546 -0.3341  0.7379 -0.7318
23575SOL    HW182704   8.622  12.733  13.547 -0.2945  3.9866 -0.2125
23575SOL    HW282705   8.502  12.791  13.475 -2.0187 -0.2212 -1.0119
23576SOL     OW82706   6.161  11.130  12.232  0.0732 -0.0545 -0.7958
23576SOL    HW182707   6.246  11.122  12.189  0.8006  0.2705  0.5365
23576SOL    HW282708   6.098  11.120  12.161  1.1601 -1.9490 -1.5696
23577SOL     OW82709  13.876   0.896   9.065  0.1139  0.0463  0.1110
23577SOL    HW182710  13.879   0.810   9.105  0.6452  0.0315  0.0357
23577SOL    HW282711  13.851   0.955   9.136 -1.5383 -0.3344 -0.1068
23578SOL     OW82712   0.190  12.326   9.238  0.0039  0.3701 -0.4874
23578SOL    HW182713   0.283  12.304   9.240 -0.0404 -0.0674 -2.0792
23578SOL    HW282714   0.184  12.410   9.284  1.0381 -0.0195  0.4139
23579SOL     OW82715   9.886   4.512   6.930  0.5752 -0.1221  0.3138
23579SOL    HW182716   9.935   4.485   6.853  0.0056  1.8821 -0.8236
23579SOL    HW282717   9.871   4.431   6.979  1.5876 -1.3369 -1.2940
23580SOL     OW82718   0.418   4.913  13.078  0.3583  0.1663  0.4335
23580SOL    HW182719   0.451   5.003  13.076 -1.1611  0.8686  2.3729
23580SOL    HW282720   0.397   4.898  13.170 -1.2335 -1.4801 -0.1372
23581SOL     OW82721   2.948   5.660   4.450  0.5419 -0.1364  0.3165
23581SOL    HW182722   2.968   5.750   4.477  0.9302 -0.1189 -0.0266
23581SOL    HW282723   3.003   5.645   4.374  0.3774 -0.6230  0.2924
23582SOL     OW82724   8.713  11.417   7.598  0.4647  0.1672  0.9011
23582SOL    HW182725   8.758  11.353   7.543 -0.6366 -0.1908  0.3814
23582SOL    HW282726   8.782  11.458   7.649  1.2959 -0.7948  0.5757
23583SOL     OW82727   0.782   3.180   0.537  0.3320 -0.3147 -0.2972
23583SOL    HW182728   0.742   3.138   0.613 -0.3981 -0.8240 -0.9382
23583SOL    HW282729   0.746   3.132   0.462  0.4630  0.6488 -0.9959
23584SOL     OW82730  13.769   5.807   3.677 -0.2972  0.3870  0.1364
23584SOL    HW182731  13.718   5.757   3.613 -1.2774  0.4225  0.8660
23584SOL    HW282732  13.753   5.762   3.760  2.1618 -0.5937  0.1853
23585SOL     OW82733   5.725   7.776   0.949  0.6662  0.3117  0.1301
23585SOL    HW182734   5.641   7.751   0.988  0.5526 -0.7588 -0.7361
23585SOL    HW282735   5.702   7.823   0.870  0.8712 -0.0199 -0.1309
23586SOL     OW82736   1.723  10.239   2.212  0.1912 -0.1784 -0.4618
23586SOL    HW182737   1.771  10.156   2.207 -1.1391 -0.9503 -0.7617
23586SOL    HW282738   1.656  10.225   2.279 -0.3913  0.4686 -0.8934
23587SOL     OW82739   3.341   4.437  13.215 -0.1595  0.0125 -0.2432
23587SOL    HW182740   3.285   4.414  13.289 -0.0876 -0.0648 -0.2129
23587SOL    HW282741   3.344   4.358  13.161 -1.1163  0.4161 -0.9124
23588SOL     OW82742   0.836   0.547   1.019  0.0476  0.4410  0.3213
23588SOL    HW182743   0.764   0.606   1.038 -0.7486 -0.8063  1.3746
23588SOL    HW282744   0.845   0.550   0.924 -0.4278  1.7068  0.3053
23589SOL     OW82745  12.816   4.738   7.140 -0.0586  0.5935  0.1300
23589SOL    HW182746  12.824   4.650   7.105 -1.0630  0.2071  0.8564
23589SOL    HW282747  12.726   4.745   7.171 -0.6189  2.5267 -1.6307
23590SOL     OW82748   3.337  11.866   1.443 -0.1573 -0.6291 -1.1454
23590SOL    HW182749   3.357  11.820   1.362  0.5300 -0.7138 -0.9318
23590SOL    HW282750   3.259  11.823   1.477 -0.5613 -0.4664 -1.8590
23591SOL     OW82751   4.998  13.671  13.170  0.2174  0.2627  0.0513
23591SOL    HW182752   5.005  13.757  13.128  0.7906 -0.2180 -0.8709
23591SOL    HW282753   4.905  13.649  13.166  0.2143  0.4001 -0.5959
23592SOL     OW82754   0.243   9.121   2.222  0.5737 -0.1088 -0.1055
23592SOL    HW182755   0.257   9.147   2.131 -0.5660  0.2234 -0.2057
23592SOL    HW282756   0.163   9.168   2.249  0.7912 -0.3324  1.0089
23593SOL     OW82757  13.765   4.469  11.990  0.0158  0.8402 -0.1529
23593SOL    HW182758  13.758   4.563  12.011 -1.9296  0.6353  0.3048
23593SOL    HW282759  13.675   4.438  11.989  0.4846 -0.6482 -2.2061
23594SOL     OW82760   0.933   1.556   8.155 -0.6375 -0.1673  0.0441
23594SOL    HW182761   0.993   1.626   8.132 -0.0670 -0.8850 -0.7062
23594SOL    HW282762   0.881   1.592   8.227 -1.6332  1.6938 -1.5032
23595SOL     OW82763   9.834   6.129   8.180 -0.1116 -0.1474 -0.3329
23595SOL    HW182764   9.813   6.145   8.272  1.2480 -0.5961  0.0818
23595SOL    HW282765   9.925   6.101   8.181 -0.2455 -0.7292 -1.7650
23596SOL     OW82766   3.720   1.133   0.967 -0.0801 -1.2045 -0.1300
23596SOL    HW182767   3.684   1.053   0.928 -0.7321 -1.4991  1.0290
23596SOL    HW282768   3.815   1.122   0.961 -0.0950 -2.9066  1.5428
23597SOL     OW82769   5.920   1.429  10.062 -0.1768  0.5031  0.8363
23597SOL    HW182770   5.906   1.335  10.074 -0.6725  0.7110  2.1087
23597SOL    HW282771   5.993   1.450  10.120  0.5234  0.7593 -0.1180
23598SOL     OW82772   1.556   0.888   8.812 -0.1866  0.5512  0.3973
23598SOL    HW182773   1.552   0.840   8.730 -1.0439 -0.7515  1.1687
23598SOL    HW282774   1.649   0.903   8.826  0.1897 -1.4370  0.3960
23599SOL     OW82775   8.997  11.848  13.865 -0.6367  0.1887 -0.9766
23599SOL    HW182776   9.006  11.776  13.803  0.6419  1.0361 -1.8126
23599SOL    HW282777   8.946  11.810  13.938  0.5361 -1.7302 -1.0844
23600SOL     OW82778   1.507   3.348  11.349 -0.4584 -0.7805 -0.0234
23600SOL    HW182779   1.432   3.361  11.291 -0.9599 -1.1990  0.5285
23600SOL    HW282780   1.573   3.409  11.316 -1.8656  1.3996  0.9771
23601SOL     OW82781   9.784   0.468   7.478 -0.1667  0.2678 -0.0436
23601SOL    HW182782   9.879   0.465   7.466 -0.2435 -0.2580 -0.6187
23601SOL    HW282783   9.749   0.423   7.400 -0.8951  0.6991  0.0231
23602SOL     OW82784   0.206  10.461   1.883  0.2027 -0.0084 -0.1029
23602SOL    HW182785   0.184  10.493   1.970  1.1777  0.7433 -0.1139
23602SOL    HW282786   0.296  10.429   1.891 -0.1871 -1.3041 -0.4865
23603SOL     OW82787   5.537   7.929   0.200  0.0975 -0.0371 -0.3318
23603SOL    HW182788   5.456   7.978   0.211  0.0835 -0.2317  0.4686
23603SOL    HW282789   5.601   7.973   0.255  0.3315 -0.3523 -0.3419
23604SOL     OW82790  12.389   7.979   5.006  0.0193 -0.0558 -0.4732
23604SOL    HW182791  12.313   7.973   5.063  0.5778 -0.9495  0.2000
23604SOL    HW282792  12.443   7.903   5.028  1.7935  1.2782  0.0917
23605SOL     OW82793   2.135  12.954   5.691 -0.3431  0.3029 -0.3019
23605SOL    HW182794   2.212  12.912   5.654  0.0140 -0.0184  0.7747
23605SOL    HW282795   2.064  12.930   5.632 -0.1150 -1.6831  0.1571
23606SOL     OW82796   2.765  12.930   7.891 -0.2113  0.5540  0.9352
23606SOL    HW182797   2.777  13.025   7.888  1.0788  0.4380 -2.9675
23606SOL    HW282798   2.845  12.894   7.852  0.9212 -2.4816  5.3690
23607SOL     OW82799   5.507  13.873   9.159  0.5388 -0.1688  0.6056
23607SOL    HW182800   5.486  13.829   9.076 -0.0885  0.8232  0.2218
23607SOL    HW282801   5.425  13.870   9.208  0.5352  0.4412  0.6335
23608SOL     OW82802   8.088   1.976  10.714 -0.1941 -0.2924  0.2659
23608SOL    HW182803   8.162   1.936  10.668 -2.0262 -1.5909 -1.7565
23608SOL    HW282804   8.031   2.007  10.644 -1.6714  0.5055  1.7644
23609SOL     OW82805   0.298   3.625   2.954  0.5711  0.1816 -0.3535
23609SOL    HW182806   0.217   3.671   2.976 -0.1339 -0.9640 -0.4503
23609SOL    HW282807   0.268   3.540   2.920  1.8288 -0.6150  0.4598
23610SOL     OW82808   2.780   9.195   9.874  0.1190  0.3003  0.1153
23610SOL    HW182809   2.795   9.223   9.784  0.5835  1.7689  0.6211
23610SOL    HW282810   2.771   9.277   9.923 -1.2162 -0.4673  1.2379
23611SOL     OW82811   3.081  11.028   0.342  0.0815  0.2387  0.3988
23611SOL    HW182812   3.008  11.032   0.279  0.9682 -0.8281 -0.7347
23611SOL    HW282813   3.097  10.935   0.356  1.5864  0.4340  0.1884
23612SOL     OW82814   6.765  11.758  11.401  0.6456  0.3121 -0.5502
23612SOL    HW182815   6.674  11.732  11.387  0.4703  0.1199  0.8156
23612SOL    HW282816   6.762  11.815  11.478  1.8529 -1.0162  0.5579
23613SOL     OW82817  13.048   3.327   5.423 -0.1511  0.2938  0.3129
23613SOL    HW182818  13.133   3.290   5.398  0.9307  1.5606  1.8631
23613SOL    HW282819  13.058   3.349   5.516 -1.7166  1.7076  0.1989
23614SOL     OW82820   9.788  11.329   4.601 -0.0023  0.0219 -0.0938
23614SOL    HW182821   9.757  11.319   4.691  0.2395  0.1602  0.0069
23614SOL    HW282822   9.816  11.421   4.596  0.1459 -0.0317 -0.2588
23615SOL     OW82823   5.995   6.236  11.285 -0.4738 -0.3967  0.0270
23615SOL    HW182824   5.918   6.181  11.275 -0.3798 -0.1959 -2.3460
23615SOL    HW282825   6.057   6.203  11.221  0.3710  1.1651 -0.0170
23616SOL     OW82826   0.317   3.721   8.980 -0.0233 -0.2767  0.2853
23616SOL    HW182827   0.363   3.803   8.963 -1.1901 -0.0390 -2.0142
23616SOL    HW282828   0.305   3.721   9.075  0.0292  2.2138  0.3689
23617SOL     OW82829   7.220   1.920  12.549  0.3189  0.7018  0.5234
23617SOL    HW182830   7.206   2.015  12.539  1.6924  0.8174 -0.4970
23617SOL    HW282831   7.314   1.908  12.538  0.1968 -0.7639  0.9193
23618SOL     OW82832   2.614  11.145  12.776  0.3499 -0.2285 -0.4959
23618SOL    HW182833   2.701  11.171  12.808  0.1831 -0.2999  0.0332
23618SOL    HW282834   2.603  11.195  12.695 -0.2615  1.9899  0.8512
23619SOL     OW82835  11.528   7.964   9.942 -0.7271  0.0271 -0.3037
23619SOL    HW182836  11.486   8.048   9.961  0.2037  0.8575 -1.7608
23619SOL    HW282837  11.615   7.971   9.982 -0.7267 -0.3522 -0.2285
23620SOL     OW82838   3.224   7.219   0.078 -0.1627 -0.2666  0.2629
23620SOL    HW182839   3.172   7.269   0.015 -0.3370  0.1809  0.7542
23620SOL    HW282840   3.260   7.285   0.137 -0.6375 -0.7417  1.1027
23621SOL     OW82841   5.851  13.883  11.084 -0.3340 -0.1946  0.2325
23621SOL    HW182842   5.854  13.964  11.135  0.5154 -0.5515  0.7560
23621SOL    HW282843   5.766  13.844  11.106 -0.9549  0.7496 -0.3646
23622SOL     OW82844   4.869  14.039   2.646  1.0250  0.5333  0.1647
23622SOL    HW182845   4.823  13.965   2.606  1.2580 -0.6192  1.9216
23622SOL    HW282846   4.934  14.064   2.580  1.8436 -1.7395 -0.0044
23623SOL     OW82847  10.793   9.895  11.096 -0.6386  0.2784  0.2142
23623SOL    HW182848  10.807   9.800  11.103  2.5232  0.6556  0.5878
23623SOL    HW282849  10.774   9.909  11.003 -0.7965 -0.6880  0.0870
23624SOL     OW82850   8.326  11.894   7.050 -0.2180  0.2107 -0.1480
23624SOL    HW182851   8.326  11.982   7.013 -0.2213 -0.6311 -2.2874
23624SOL    HW282852   8.405  11.891   7.103  1.4987  0.6002 -2.5019
23625SOL     OW82853  10.400   6.309   4.379 -0.0958  0.3301 -0.6573
23625SOL    HW182854  10.383   6.392   4.425 -0.6289 -0.2236  0.1892
23625SOL    HW282855  10.450   6.257   4.442  0.8554  0.2551 -1.4510
23626SOL     OW82856   0.932   5.298   6.537 -0.0961 -0.0498  0.3050
23626SOL    HW182857   0.880   5.378   6.542 -2.3802 -1.3051 -1.3452
23626SOL    HW282858   0.981   5.306   6.455  2.0267  0.8823  1.5851
23627SOL     OW82859  12.932  12.720   4.412 -0.8373  0.3866  0.4821
23627SOL    HW182860  12.917  12.697   4.320 -1.6170 -0.9018  0.9059
23627SOL    HW282861  12.845  12.739   4.447 -1.1838 -3.1280  1.9389
23628SOL     OW82862   0.358   2.226   1.199 -0.2182 -1.0727  0.1240
23628SOL    HW182863   0.427   2.195   1.140 -0.1859 -0.1279 -0.3438
23628SOL    HW282864   0.279   2.227   1.145 -0.6505 -2.2555  0.6884
23629SOL     OW82865   7.601  12.664   9.400 -0.4782  0.2436 -0.1890
23629SOL    HW182866   7.638  12.594   9.346 -2.5157 -0.5766 -0.6064
23629SOL    HW282867   7.553  12.618   9.469  0.5226  1.2830  1.2502
23630SOL     OW82868  12.106  12.208   7.673 -0.2156 -0.0173  0.2032
23630SOL    HW182869  12.137  12.284   7.722 -0.8424  0.4455 -0.1007
23630SOL    HW282870  12.031  12.175   7.723  1.5875 -2.0609  1.7749
23631SOL     OW82871   0.833   8.817   2.778 -0.1239  0.1401  0.0260
23631SOL    HW182872   0.747   8.859   2.790  0.4563  2.0481 -1.9819
23631SOL    HW282873   0.866   8.805   2.867 -1.4755  1.5737  0.7667
23632SOL     OW82874   4.967   1.839  10.964 -0.0552  0.4325 -0.1938
23632SOL    HW182875   4.955   1.934  10.957 -1.4416  0.2017 -1.4564
23632SOL    HW282876   5.032   1.818  10.897  0.8325  0.5553  0.6006
23633SOL     OW82877   3.656   5.088   9.853  0.2459  0.4095  0.7274
23633SOL    HW182878   3.716   5.044   9.913 -0.3299  0.6766  1.5189
23633SOL    HW282879   3.713   5.131   9.788  0.8217 -1.9940 -0.4718
23634SOL     OW82880   9.694   0.647   0.659 -0.1045 -0.1851  0.0955
23634SOL    HW182881   9.664   0.716   0.718  0.0991  0.5735 -0.6764
23634SOL    HW282882   9.629   0.577   0.668 -0.0651 -0.0872  1.2221
23635SOL     OW82883   5.992   2.026   2.593 -0.4122 -0.3433  0.2416
23635SOL    HW182884   6.022   1.935   2.602  1.6491  0.2126 -0.3396
23635SOL    HW282885   5.901   2.019   2.566 -0.1933 -2.2464 -0.1620
23636SOL     OW82886   0.200   5.701   4.028  0.0351  0.0391  0.0571
23636SOL    HW182887   0.136   5.712   4.098  0.6585 -0.9639  0.8212
23636SOL    HW282888   0.244   5.618   4.049  1.5982  0.7148 -0.4335
23637SOL     OW82889   8.429  11.419  11.952 -0.1077 -0.2292 -0.2522
23637SOL    HW182890   8.434  11.455  12.041  0.4849  0.3881 -0.5241
23637SOL    HW282891   8.380  11.337  11.962  0.0875 -0.2488  0.6685
23638SOL     OW82892   4.641   7.334   1.179 -0.5494  0.2603  0.4271
23638SOL    HW182893   4.601   7.420   1.187 -0.6028  0.1739  1.2264
23638SOL    HW282894   4.706   7.331   1.249 -1.0232 -0.5916  0.8503
23639SOL     OW82895   7.219   2.217   5.804 -0.5365 -0.2663  0.1697
23639SOL    HW182896   7.238   2.144   5.744  0.9273  1.1276 -1.1601
23639SOL    HW282897   7.125   2.232   5.794 -0.5168 -0.7839 -0.9521
23640SOL     OW82898   3.241   5.582   3.776  0.3791  0.5667 -0.0564
23640SOL    HW182899   3.300   5.653   3.752 -0.2813  1.1568  0.0224
23640SOL    HW282900   3.299   5.510   3.801  1.0992  0.3021 -2.2534
23641SOL     OW82901   1.606   6.156  10.015 -0.5475  0.3661  0.1641
23641SOL    HW182902   1.586   6.250  10.011  0.4759  0.5608 -1.5289
23641SOL    HW282903   1.650   6.138   9.932 -0.9188 -1.6774  0.3705
23642SOL     OW82904  11.970  13.686  13.086 -0.2018 -0.3421 -0.0605
23642SOL    HW182905  11.960  13.628  13.010 -0.1304 -0.6762  0.1828
23642SOL    HW282906  11.980  13.627  13.160 -1.3592 -0.0296  0.3668
23643SOL     OW82907  13.379  10.694   2.345  0.2374  0.2560 -0.1239
23643SOL    HW182908  13.327  10.673   2.268  0.0192 -0.8494  0.2914
23643SOL    HW282909  13.355  10.626   2.409  2.9152 -0.9489 -0.2547
23644SOL     OW82910  13.166   5.960   7.366  0.4280 -0.0392  0.4205
23644SOL    HW182911  13.216   6.023   7.418 -1.3075  0.8593  1.0635
23644SOL    HW282912  13.154   6.003   7.281  1.0942 -0.4346  0.1214
23645SOL     OW82913   6.055   3.663   2.038 -0.0790  0.5875 -0.5579
23645SOL    HW182914   6.060   3.581   1.989  0.7358 -0.2170  0.7853
23645SOL    HW282915   5.987   3.714   1.994 -0.4816 -0.7438 -1.5346
23646SOL     OW82916  13.584   9.089  13.464 -0.5408  0.1950  0.0177
23646SOL    HW182917  13.493   9.071  13.439 -0.2183 -0.2013 -0.9295
23646SOL    HW282918  13.605   9.170  13.419 -0.1537 -0.1850 -0.5013
23647SOL     OW82919   1.054   3.304   0.999  0.0363  0.1530  0.4568
23647SOL    HW182920   1.028   3.290   1.090 -0.2728 -0.6337  0.2593
23647SOL    HW282921   1.143   3.339   1.004  0.6856 -1.4857  1.0411
23648SOL     OW82922   0.632   5.009   1.215  0.4215 -0.3274  0.2033
23648SOL    HW182923   0.602   5.100   1.215  1.2033 -0.0576 -0.9339
23648SOL    HW282924   0.551   4.957   1.218 -0.1278  0.3940 -1.3089
23649SOL     OW82925   4.458   9.451   0.912  0.5909  0.4783 -0.1687
23649SOL    HW182926   4.518   9.378   0.897  1.3536  1.1138 -0.2633
23649SOL    HW282927   4.507   9.512   0.968  0.2752  1.2872 -0.7472
23650SOL     OW82928   2.196  12.185   5.247 -0.0711 -0.4425  0.0736
23650SOL    HW182929   2.164  12.272   5.225 -1.2720 -1.5060 -2.8648
23650SOL    HW282930   2.163  12.169   5.335 -1.6293  1.2593 -0.1384
23651SOL     OW82931   1.991   7.159  12.614 -0.5263 -0.2636  0.4380
23651SOL    HW182932   1.934   7.162  12.691 -1.5177  0.7858 -0.3006
23651SOL    HW282933   2.064   7.217  12.635 -0.8742  0.1420  0.5420
23652SOL     OW82934   4.921  12.776   3.862  0.0313 -0.4962 -0.2551
23652SOL    HW182935   4.847  12.722   3.890  1.8068 -3.8257 -1.4522
23652SOL    HW282936   4.980  12.777   3.937  0.0556 -0.2208 -0.2751
23653SOL     OW82937   4.229   2.922   2.586 -0.3558  0.6230 -0.1222
23653SOL    HW182938   4.230   2.942   2.492 -0.8607 -0.3144 -0.3420
23653SOL    HW282939   4.138   2.899   2.605  0.1930 -1.7392  0.0111
23654SOL     OW82940  13.845  14.008  13.436  0.3707  0.4827 -0.7080
23654SOL    HW182941  13.845  14.009  13.532  1.0271  1.5855 -0.6937
23654SOL    HW282942  13.795  14.087  13.412 -0.0934  0.0204 -1.2817
23655SOL     OW82943   3.320  13.325   7.788 -0.2073 -0.1541 -0.4580
23655SOL    HW182944   3.266  13.318   7.867  0.1228 -2.5117 -0.3603
23655SOL    HW282945   3.258  13.349   7.719 -1.0103 -0.7608  0.0345
23656SOL     OW82946   2.518  11.403  13.798  0.0553  0.5327 -0.0078
23656SOL    HW182947   2.448  11.422  13.860  0.8737 -0.9407  1.4793
23656SOL    HW282948   2.474  11.383  13.716 -1.0166  3.6203 -0.2866
23657SOL     OW82949  13.771   8.173   6.975 -0.3384  0.3847 -0.2255
23657SOL    HW182950  13.834   8.197   7.043 -2.3573 -0.3221  2.0689
23657SOL    HW282951  13.710   8.247   6.973 -0.0759  0.5770 -1.6071
23658SOL     OW82952   6.742   2.273  12.955  0.3270 -0.2088 -0.7921
23658SOL    HW182953   6.690   2.227  13.021  1.5840 -0.9692 -0.2870
23658SOL    HW282954   6.683   2.284  12.881 -1.6854  2.1437  0.9700
23659SOL     OW82955   4.643   1.202   2.382  0.2617 -0.4885 -0.1595
23659SOL    HW182956   4.574   1.267   2.392 -0.7470 -1.6443  0.7849
23659SOL    HW282957   4.635   1.147   2.460  2.0619 -0.8365 -0.1875
23660SOL     OW82958   7.997   7.543   0.358 -0.2049  0.1046  0.2778
23660SOL    HW182959   7.977   7.456   0.323  0.7208 -0.8429  1.9103
23660SOL    HW282960   7.951   7.604   0.301  0.4663 -1.3402 -1.9419
23661SOL     OW82961   7.682   2.862  11.127 -0.0785 -0.4310 -0.2381
23661SOL    HW182962   7.681   2.776  11.087  0.2174 -1.9462  2.7209
23661SOL    HW282963   7.773   2.890  11.123 -0.0359 -0.6069 -0.5147
23662SOL     OW82964  13.747   3.208   2.584 -0.3619 -0.0871 -0.1692
23662SOL    HW182965  13.840   3.209   2.562  0.0619 -0.0405  1.5290
23662SOL    HW282966  13.702   3.205   2.499  1.1747 -0.0185 -1.0068
23663SOL     OW82967   5.457   6.102   6.704 -1.0373 -0.0680  0.1337
23663SOL    HW182968   5.444   6.101   6.609 -0.4450 -1.2134  0.0384
23663SOL    HW282969   5.410   6.024   6.735 -0.7060 -0.0467  0.6952
23664SOL     OW82970   8.144   0.520   5.449  0.2373 -0.1033  0.2548
23664SOL    HW182971   8.110   0.610   5.446  2.5634  0.8311 -0.3826
23664SOL    HW282972   8.078   0.471   5.497 -2.2225  1.4130 -1.3724
23665SOL     OW82973   9.500  13.682   2.617 -1.3483 -0.2727  0.8383
23665SOL    HW182974   9.417  13.664   2.662 -1.8048 -3.1233 -0.8732
23665SOL    HW282975   9.555  13.606   2.638 -0.1379  0.2638 -0.2567
23666SOL     OW82976   4.051   5.402   9.420  0.3347  0.9248  0.8197
23666SOL    HW182977   4.021   5.313   9.401 -0.8842  1.7642 -1.7409
23666SOL    HW282978   4.109   5.393   9.495  0.8773 -2.1485  0.1640
23667SOL     OW82979   9.172  12.035   5.704 -0.6144 -0.0482  0.0597
23667SOL    HW182980   9.227  12.066   5.632  0.1819  0.3229  0.8076
23667SOL    HW282981   9.152  11.944   5.682 -1.9185  0.5642 -1.5360
23668SOL     OW82982  10.484   8.551   6.336 -0.0411  0.2624 -0.7207
23668SOL    HW182983  10.470   8.465   6.376  3.1829 -0.3760 -0.6836
23668SOL    HW282984  10.459   8.540   6.244 -3.0283  0.4144 -0.0487
23669SOL     OW82985   0.879   8.254   8.559 -0.7563 -0.0535  0.1190
23669SOL    HW182986   0.904   8.252   8.651  2.6127 -0.2753 -0.6695
23669SOL    HW282987   0.962   8.254   8.511 -2.3406  0.8515 -2.9321
23670SOL     OW82988   8.616   2.734   6.790  0.7370 -0.1405 -0.1976
23670SOL    HW182989   8.708   2.719   6.812  0.3259 -1.5147  0.7136
23670SOL    HW282990   8.611   2.715   6.696  1.0007 -2.3126  0.1708
23671SOL     OW82991   5.270  10.035  12.285 -0.4378  0.4286  0.3814
23671SOL    HW182992   5.250  10.120  12.247  1.9190  1.3739  1.0598
23671SOL    HW282993   5.327   9.992  12.221 -0.4881 -0.0553  0.6530
23672SOL     OW82994  10.490  12.149  11.505 -0.2707 -1.0806 -0.0661
23672SOL    HW182995  10.491  12.134  11.410 -2.6498 -1.0412 -0.1670
23672SOL    HW282996  10.490  12.244  11.515 -1.3991 -1.0642 -0.1095
23673SOL     OW82997   1.684   8.517   4.316  0.0306  0.1525  0.4957
23673SOL    HW182998   1.624   8.573   4.267  1.9030  1.1263 -0.7971
23673SOL    HW282999   1.768   8.564   4.315  1.7293 -2.6179 -0.6717
23674SOL     OW83000  11.668   4.695   7.353 -0.3785  0.3033  0.1680
23674SOL    HW183001  11.607   4.648   7.411  0.6970 -1.7272 -0.2606
23674SOL    HW283002  11.692   4.631   7.286  2.0815  1.0849  0.2119
23675SOL     OW83003   3.101   9.320   7.276  0.0495 -0.6390  0.0147
23675SOL    HW183004   3.062   9.250   7.224 -1.9645  0.8551 -0.5758
23675SOL    HW283005   3.034   9.344   7.339  0.8785  0.4692  0.5163
23676SOL     OW83006   3.078   1.776   5.005 -0.1601  0.1245  0.1190
23676SOL    HW183007   3.046   1.686   4.999 -0.0912  0.1650 -1.0609
23676SOL    HW283008   3.001   1.830   4.989 -0.0040  0.2575 -0.1946
23677SOL     OW83009   1.065   1.501   7.916  0.3396 -0.1990 -0.7212
23677SOL    HW183010   1.088   1.594   7.922 -1.1893  0.2948 -1.8008
23677SOL    HW283011   1.010   1.485   7.992 -0.0852  0.0203 -0.9745
23678SOL     OW83012   1.111   1.396   1.379  0.0003  0.1831  0.1612
23678SOL    HW183013   1.152   1.335   1.441 -0.0218 -0.0028 -0.0025
23678SOL    HW283014   1.051   1.447   1.431 -0.2187 -0.1587  0.2492
23679SOL     OW83015  10.589   8.266   4.973  0.4070 -0.8638  0.3352
23679SOL    HW183016  10.638   8.203   4.920 -0.5432 -1.0369 -0.3444
23679SOL    HW283017  10.617   8.248   5.063  1.0408 -1.4516  0.0312
23680SOL     OW83018   4.722  10.739  10.965  0.4944  0.4320  0.1373
23680SOL    HW183019   4.638  10.767  10.929  0.1475  0.0454  0.6230
23680SOL    HW283020   4.700  10.700  11.050  1.2422  0.9521  0.5848
23681SOL     OW83021   1.545   1.551  12.788  0.5345 -0.4579  0.4107
23681SOL    HW183022   1.558   1.501  12.869  1.4646 -1.2027 -0.1811
23681SOL    HW283023   1.453   1.537  12.766  0.2000 -0.0450  1.4612
23682SOL     OW83024   1.358  11.814   1.021  0.2029  0.0472  0.8363
23682SOL    HW183025   1.280  11.855   1.057 -0.3938 -1.8034  1.7826
23682SOL    HW283026   1.431  11.854   1.070 -0.2760  0.6065  1.1001
23683SOL     OW83027   9.980  10.418   1.314 -0.5762  0.4391 -0.4720
23683SOL    HW183028   9.905  10.458   1.358  2.1652  0.9909  4.3846
23683SOL    HW283029   9.968  10.324   1.327 -0.3743  0.5358  0.4611
23684SOL     OW83030  14.044   0.568   5.634 -0.2995 -0.0951 -0.3938
23684SOL    HW183031  14.060   0.476   5.614  3.5522  0.0288  1.2384
23684SOL    HW283032  14.031   0.570   5.729  0.9513  1.0816 -0.2069
23685SOL     OW83033   5.280   2.874  11.966  0.0580  0.1463  0.1657
23685SOL    HW183034   5.240   2.866  12.052 -0.2888  1.5404  0.1566
23685SOL    HW283035   5.311   2.965  11.961  1.5871 -0.3700 -0.5414
23686SOL     OW83036  10.261   4.188   1.256 -0.0403  0.4695 -0.5121
23686SOL    HW183037  10.344   4.142   1.272 -0.1967  0.2401 -0.3633
23686SOL    HW283038  10.259   4.201   1.161 -0.0435  0.0761 -0.5685
23687SOL     OW83039   1.074   4.753   3.433  0.2193 -0.3930  1.1792
23687SOL    HW183040   1.061   4.679   3.373  1.6037  0.2688 -0.0037
23687SOL    HW283041   0.987   4.789   3.447 -0.1698 -0.7630 -0.2031
23688SOL     OW83042   7.730  13.462   1.433 -0.5730 -0.0760  0.2520
23688SOL    HW183043   7.687  13.414   1.361 -0.1249 -2.2114  1.3294
23688SOL    HW283044   7.678  13.440   1.510  0.4007  0.1391  0.9871
23689SOL     OW83045   3.649  11.434   8.710 -0.1975  0.3239  0.3998
23689SOL    HW183046   3.737  11.459   8.683 -0.1389 -1.6757 -1.4809
23689SOL    HW283047   3.591  11.474   8.644 -0.5690  0.3663  0.7447
23690SOL     OW83048   5.635   6.894   8.427  0.2883  0.1400  0.4061
23690SOL    HW183049   5.650   6.800   8.436  0.5551 -0.0419 -1.4605
23690SOL    HW283050   5.544   6.907   8.453  0.2390 -0.6260  0.6409
23691SOL     OW83051   4.796   7.594  10.452  0.4454  0.2461 -0.0393
23691SOL    HW183052   4.798   7.646  10.372 -1.1649  1.7432  0.8252
23691SOL    HW283053   4.736   7.640  10.510  0.5913 -1.4621  1.5984
23692SOL     OW83054   5.508  13.100   4.407 -0.4683  0.2033 -0.0496
23692SOL    HW183055   5.418  13.082   4.378 -0.9534 -0.7119  1.9175
23692SOL    HW283056   5.560  13.031   4.365 -1.0117 -0.5320  0.4527
23693SOL     OW83057   9.319   4.486   7.733 -0.1770  0.3122  0.2750
23693SOL    HW183058   9.279   4.402   7.710 -1.6579  1.2787 -0.8561
23693SOL    HW283059   9.412   4.475   7.710 -0.1951 -1.2136  0.7767
23694SOL     OW83060   2.217  10.734   8.911  0.1363 -0.1594 -0.0668
23694SOL    HW183061   2.151  10.794   8.946  1.9467  1.0283  1.4607
23694SOL    HW283062   2.202  10.735   8.816 -1.9897  0.0852  0.2329
23695SOL     OW83063  10.723  12.039  12.902 -0.2127 -0.3935  0.0796
23695SOL    HW183064  10.724  12.112  12.840  0.4238  2.1608  2.8865
23695SOL    HW283065  10.644  12.054  12.955 -0.1552 -1.8657  0.6148
23696SOL     OW83066  12.622   7.183  10.051 -0.5042  0.2491 -0.5546
23696SOL    HW183067  12.530   7.176  10.078 -0.1182 -0.2613  0.7016
23696SOL    HW283068  12.636   7.277  10.037 -1.4327  0.2517 -1.6113
23697SOL     OW83069  13.059  11.193   4.372 -0.5570 -0.0430  0.3833
23697SOL    HW183070  13.138  11.194   4.427 -0.6507 -0.5080  0.5334
23697SOL    HW283071  13.083  11.138   4.297 -1.1268 -1.2325  1.0398
23698SOL     OW83072  12.933  11.794   3.739 -0.0950 -0.5555  0.4770
23698SOL    HW183073  12.905  11.828   3.654  1.0219 -1.1779 -0.1601
23698SOL    HW283074  12.872  11.833   3.801 -2.4228 -1.8530 -0.8422
23699SOL     OW83075   8.349   1.243   5.657 -0.0478 -0.2559 -0.7885
23699SOL    HW183076   8.318   1.196   5.734  2.1614 -0.4553  0.0614
23699SOL    HW283077   8.399   1.178   5.608  1.5005  0.6957 -0.5470
23700SOL     OW83078  11.576  13.043   7.469 -0.2945 -0.2126 -0.3836
23700SOL    HW183079  11.627  13.117   7.435 -1.0208  0.6045  0.2587
23700SOL    HW283080  11.513  13.083   7.529  0.2755 -1.5143  1.1187
23701SOL     OW83081   1.062  12.191   1.094  0.7811  0.4474 -0.1553
23701SOL    HW183082   1.104  12.251   1.156  0.4946 -1.1517  1.6996
23701SOL    HW283083   0.986  12.240   1.062  2.1238  2.1088 -0.9523
23702SOL     OW83084   5.417   2.743  10.621  0.2446 -0.1150 -0.5651
23702SOL    HW183085   5.366   2.768  10.545  0.6878  0.6194 -0.6313
23702SOL    HW283086   5.355   2.696  10.677 -0.8375  1.7326 -0.1120
23703SOL     OW83087  11.926   5.362  10.006 -0.5413 -0.2736 -0.3294
23703SOL    HW183088  11.889   5.299   9.944 -0.2230  0.4979 -1.3265
23703SOL    HW283089  11.866   5.361  10.081 -2.5515  0.8844 -1.8523
23704SOL     OW83090  12.342   9.721   8.964 -0.0597 -0.5296 -0.2031
23704SOL    HW183091  12.417   9.667   8.939 -2.2091 -3.6413 -0.4603
23704SOL    HW283092  12.322   9.773   8.886  1.7457  0.3863 -0.1164
23705SOL     OW83093  12.997   2.833   1.882 -0.0449  0.0915  0.1792
23705SOL    HW183094  12.921   2.846   1.825  1.4713  0.9141 -1.7531
23705SOL    HW283095  12.990   2.741   1.910 -1.4733  0.0087 -0.3446
23706SOL     OW83096   4.527  10.474  12.583 -0.7333 -1.1083  0.7609
23706SOL    HW183097   4.486  10.515  12.506 -1.8604 -1.0237  1.3918
23706SOL    HW283098   4.578  10.544  12.623 -0.6777 -0.9768  0.4649
23707SOL     OW83099   1.917   5.466  10.057 -0.3267 -0.1818 -0.4696
23707SOL    HW183100   1.999   5.494  10.097 -1.6897  0.8249  1.7915
23707SOL    HW283101   1.939   5.383  10.013  2.4224  1.2690 -2.1190
23708SOL     OW83102   5.459   8.401  13.669  0.7173 -0.4799 -0.1549
23708SOL    HW183103   5.458   8.382  13.576 -0.4308  0.4831 -0.3596
23708SOL    HW283104   5.530   8.464  13.680 -1.2772  2.0681 -0.9885
23709SOL     OW83105   3.181   5.944  11.523  0.5576  0.3935 -0.6485
23709SOL    HW183106   3.228   5.910  11.447  0.1568  0.2202 -0.8259
23709SOL    HW283107   3.247   5.949  11.592  0.6540 -0.6403 -0.6509
23710SOL     OW83108   0.143   9.011   0.117  0.5035  0.6027  0.5502
23710SOL    HW183109   0.229   9.052   0.108  0.5351  0.4921  0.3259
23710SOL    HW283110   0.163   8.917   0.126  0.3724  0.4933 -0.2584
23711SOL     OW83111   8.921   7.928  11.138  0.5930 -0.1627  0.1480
23711SOL    HW183112   8.826   7.933  11.145  0.5974  0.6816 -0.2381
23711SOL    HW283113   8.937   7.894  11.049  0.6511  2.0174 -0.7371
23712SOL     OW83114   3.120  10.129  11.660 -0.3666 -0.4183 -0.1945
23712SOL    HW183115   3.043  10.092  11.703  0.3016 -1.9412 -0.2409
23712SOL    HW283116   3.119  10.093  11.572 -0.4035  0.7531 -0.6871
23713SOL     OW83117   0.805  12.209   9.434 -0.8681  0.4633 -0.5361
23713SOL    HW183118   0.767  12.283   9.482 -1.0529 -1.4952  2.6514
23713SOL    HW283119   0.898  12.231   9.425 -0.7276  0.7192  1.2225
23714SOL     OW83120   1.572   2.905  13.190  0.2530  0.3177  0.1421
23714SOL    HW183121   1.577   2.894  13.285 -0.8199 -1.1917  0.0550
23714SOL    HW283122   1.661   2.885  13.160  0.8188  1.5749  0.8530
23715SOL     OW83123  10.493   5.943   6.444  0.5523 -0.4698 -0.3830
23715SOL    HW183124  10.457   5.874   6.500 -0.6644 -0.2576 -0.8787
23715SOL    HW283125  10.587   5.945   6.466  0.4182 -1.5663  0.3798
23716SOL     OW83126  12.103   0.845  10.651 -0.1982  0.4745  0.1436
23716SOL    HW183127  12.051   0.911  10.604  1.7885  1.7069 -0.4258
23716SOL    HW283128  12.147   0.796  10.581  1.7157  1.4359  0.6126
23717SOL     OW83129   8.620   0.530   7.824  0.1675  0.4216  0.1930
23717SOL    HW183130   8.697   0.587   7.827 -1.4418  2.8264 -0.9241
23717SOL    HW283131   8.626   0.485   7.740  0.9776 -0.4291  0.6838
23718SOL     OW83132  14.013   9.455   1.827 -0.1947  0.8235 -0.1626
23718SOL    HW183133  14.079   9.515   1.862 -0.6025  0.3535  1.5431
23718SOL    HW283134  13.930   9.498   1.845 -0.4298  0.4760 -0.4119
23719SOL     OW83135   7.249   1.260  13.680  0.5362 -0.3343 -0.1685
23719SOL    HW183136   7.301   1.331  13.643  0.7420 -0.5123 -0.2259
23719SOL    HW283137   7.296   1.234  13.760  0.2530 -0.1488  0.0587
23720SOL     OW83138   1.946   3.707   5.251 -0.3611  0.0064  0.6094
23720SOL    HW183139   1.999   3.643   5.299  0.6473 -0.0227 -0.5009
23720SOL    HW283140   1.860   3.703   5.294 -0.8813 -3.3371 -0.4367
23721SOL     OW83141   9.665   8.612  12.048 -0.1544  0.1701 -0.6956
23721SOL    HW183142   9.726   8.549  12.010  0.4476  0.3549 -0.0567
23721SOL    HW283143   9.679   8.606  12.142 -1.2643  0.0853 -0.5217
23722SOL     OW83144  13.491   5.639  10.959  0.1911 -1.0857  0.1079
23722SOL    HW183145  13.432   5.569  10.987 -1.1991 -0.0147 -0.0445
23722SOL    HW283146  13.451   5.719  10.991  0.9331 -0.2123 -1.0348
23723SOL     OW83147   1.106   1.991  13.198 -0.4162  0.1766  0.9152
23723SOL    HW183148   1.109   1.919  13.261 -1.4173 -0.5311  0.1761
23723SOL    HW283149   1.190   2.036  13.209  0.3906 -1.3258  1.1196
23724SOL     OW83150   7.062   1.849   6.516  0.1810  0.5987 -0.5506
23724SOL    HW183151   7.111   1.776   6.553 -1.3223 -0.1922 -0.0168
23724SOL    HW283152   7.022   1.813   6.437 -2.8188 -0.1168  1.1311
23725SOL     OW83153   5.687  12.055   0.265  0.2951  0.1865  0.1179
23725SOL    HW183154   5.626  12.109   0.315 -0.6824 -1.3735  0.6778
23725SOL    HW283155   5.755  12.116   0.236  0.0406  1.4431  2.0018
23726SOL     OW83156   4.880   7.671  13.673 -0.1995  0.0696  0.6749
23726SOL    HW183157   4.946   7.630  13.728  2.1137 -0.0304 -1.9460
23726SOL    HW283158   4.913   7.761  13.661 -1.0836  0.3232  0.1173
23727SOL     OW83159   8.495   8.602   9.039  0.0121 -0.0955 -0.0700
23727SOL    HW183160   8.528   8.676   9.090 -2.4679  2.1228 -1.3943
23727SOL    HW283161   8.508   8.526   9.096  3.1396  1.1861  1.1582
23728SOL     OW83162   4.641   7.143   5.044  0.1041 -0.2694 -0.2152
23728SOL    HW183163   4.644   7.216   5.106  0.7946 -2.1303  2.0822
23728SOL    HW283164   4.727   7.143   5.002  0.3503 -0.1502  0.2810
23729SOL     OW83165  12.332   4.698  10.542  0.3793 -0.3515 -0.2527
23729SOL    HW183166  12.237   4.703  10.556  0.5995  0.7706  1.0507
23729SOL    HW283167  12.359   4.790  10.535  1.3445 -0.6720 -0.8661
23730SOL     OW83168   2.045   4.590   8.894  0.4010 -0.3086 -0.5708
23730SOL    HW183169   2.010   4.560   8.978 -0.1847 -1.5617 -1.2387
23730SOL    HW283170   1.981   4.655   8.864  0.6359  0.1810 -0.0494
23731SOL     OW83171   4.219   7.206   5.243 -0.0305  0.1881 -0.1165
23731SOL    HW183172   4.135   7.172   5.214  1.5070 -2.2424 -2.2013
23731SOL    HW283173   4.259   7.242   5.164  0.4390  2.4672  1.0817
23732SOL     OW83174  12.923   1.869   5.474  0.2769  0.6613  0.0383
23732SOL    HW183175  13.006   1.915   5.487  0.6040  0.0293  0.2103
23732SOL    HW283176  12.940   1.780   5.502  0.3391 -0.2042 -2.5299
23733SOL     OW83177   5.434   3.826   6.247  0.4818 -0.1659 -0.6104
23733SOL    HW183178   5.449   3.736   6.219  1.3853 -1.3152  3.0276
23733SOL    HW283179   5.520   3.867   6.240  0.3083  0.1085 -1.2054
23734SOL     OW83180   2.571  13.281  13.150  0.3742  0.1549 -0.2220
23734SOL    HW183181   2.647  13.249  13.102 -0.1265 -0.2686 -0.7486
23734SOL    HW283182   2.607  13.340  13.216  1.3403 -1.6758  0.9338
23735SOL     OW83183   8.008  13.367   7.240  0.1517  0.3323  0.5628
23735SOL    HW183184   7.990  13.390   7.332 -0.1310  1.1207  0.3224
23735SOL    HW283185   8.002  13.451   7.193  1.5647  0.1476  0.0061
23736SOL     OW83186   6.151   3.770   4.618 -0.0060  0.2893 -0.0427
23736SOL    HW183187   6.094   3.728   4.683 -0.1151  1.9364  0.9969
23736SOL    HW283188   6.113   3.746   4.533 -1.7047  0.5697  0.5991
23737SOL     OW83189   2.579  12.737   7.462  0.0190  0.3246 -0.2720
23737SOL    HW183190   2.609  12.827   7.472  0.5371  0.4254 -2.3922
23737SOL    HW283191   2.516  12.740   7.391 -1.8266 -0.6300  1.2258
23738SOL     OW83192   5.074   4.438  12.211  0.2271  0.1621  0.3625
23738SOL    HW183193   5.143   4.492  12.250  0.8417 -0.1821 -0.2155
23738SOL    HW283194   4.993   4.473  12.246  0.5257  2.1785 -0.8037
23739SOL     OW83195   3.040   9.094   4.413  0.5211 -0.1626 -0.1773
23739SOL    HW183196   3.117   9.038   4.415 -0.1630 -1.1667 -1.1767
23739SOL    HW283197   3.032   9.127   4.503  1.0549 -1.4948  0.3760
23740SOL     OW83198  13.027   2.664   1.524 -0.1316  0.9970  0.0619
23740SOL    HW183199  13.090   2.631   1.587 -1.5795  1.9255  2.1551
23740SOL    HW283200  12.966   2.591   1.509  0.0115  0.8877  0.0151
23741SOL     OW83201   6.459   2.669   6.845  0.6154 -0.2791 -0.7387
23741SOL    HW183202   6.509   2.632   6.772  1.2514 -1.0642  0.0759
23741SOL    HW283203   6.421   2.592   6.888  0.4504  0.1617 -0.0935
23742SOL     OW83204   0.863   2.025  11.253  0.2693  0.1838  0.3540
23742SOL    HW183205   0.854   1.942  11.299 -0.9893 -0.8544 -1.6060
23742SOL    HW283206   0.840   2.004  11.162  1.5507  2.3349 -0.5334
23743SOL     OW83207   0.886   0.178  11.161  0.8973  0.5170 -0.1967
23743SOL    HW183208   0.816   0.113  11.165  0.5891  0.8508 -0.0522
23743SOL    HW283209   0.914   0.190  11.252  2.0884 -0.6130 -0.3984
23744SOL     OW83210   7.851   8.363   6.153  0.1882 -0.4006  0.3857
23744SOL    HW183211   7.872   8.453   6.178 -0.7703  0.5075 -1.7696
23744SOL    HW283212   7.815   8.324   6.232 -1.2946  1.7629  0.8645
23745SOL     OW83213  12.138   2.329   1.356  0.6386  0.4536 -0.0397
23745SOL    HW183214  12.135   2.277   1.275  3.3078 -0.7346  0.5067
23745SOL    HW283215  12.150   2.419   1.326  0.7623  0.1374 -0.9761
23746SOL     OW83216   4.418   2.493   0.632 -0.1794 -0.3085  0.4391
23746SOL    HW183217   4.464   2.523   0.710 -1.7453 -1.2372  1.7818
23746SOL    HW283218   4.485   2.492   0.563  1.6258 -0.9361  2.1222
23747SOL     OW83219  12.768   3.841   3.263 -0.2116  0.4545  0.1569
23747SOL    HW183220  12.826   3.842   3.338  1.4750 -1.9369 -1.0081
23747SOL    HW283221  12.767   3.932   3.232  2.8284  0.6245  0.3303
23748SOL     OW83222   6.392  14.042  12.854 -0.1379 -0.7766  0.2929
23748SOL    HW183223   6.369  14.012  12.942 -0.8845 -1.0524  0.0162
23748SOL    HW283224   6.487  14.050  12.855 -0.1173 -1.0645  1.0361
23749SOL     OW83225   4.950  13.417   9.684  0.4163  0.3099  0.4453
23749SOL    HW183226   4.958  13.481   9.613 -0.6910  1.3708  1.2482
23749SOL    HW283227   4.864  13.377   9.671  1.0346 -0.9475  0.0369
23750SOL     OW83228   0.897   5.122   3.994 -0.0847  0.4110 -0.7985
23750SOL    HW183229   0.872   5.205   3.952 -0.0472  1.1704  0.6166
23750SOL    HW283230   0.867   5.131   4.084 -0.0664 -1.1303 -0.6161
23751SOL     OW83231   9.763   2.695  12.922 -0.6038 -0.1822  0.3389
23751SOL    HW183232   9.676   2.699  12.883 -0.7389 -1.6221  0.4504
23751SOL    HW283233   9.749   2.719  13.013 -0.8775 -0.3458  0.3418
23752SOL     OW83234   9.108   4.877   3.059 -0.2649 -0.2521 -0.1745
23752SOL    HW183235   9.102   4.827   2.978 -1.1966 -0.6564  0.1359
23752SOL    HW283236   9.120   4.968   3.030  1.5283 -0.6277 -0.7360
23753SOL     OW83237   1.019  12.795   4.347  0.0954 -0.3804 -0.2060
23753SOL    HW183238   0.999  12.810   4.440  0.6195 -0.7561 -0.0304
23753SOL    HW283239   1.107  12.758   4.347 -0.0844 -0.8250 -0.8236
23754SOL     OW83240  12.412   6.557   9.562 -0.0769  0.0246  0.5245
23754SOL    HW183241  12.422   6.576   9.469 -1.7510 -0.3396  0.2274
23754SOL    HW283242  12.452   6.471   9.574 -1.1833 -0.6191 -0.1997
23755SOL     OW83243   9.628  14.015   5.428 -0.2597  0.5816 -0.4543
23755SOL    HW183244   9.723  14.023   5.424 -0.1435 -0.2137  0.4683
23755SOL    HW283245   9.609  13.930   5.388 -0.3944 -0.1884  1.1724
23756SOL     OW83246   7.782   3.126   7.291  0.5879  0.5278 -0.0129
23756SOL    HW183247   7.726   3.083   7.356 -0.6032  2.1931  0.1227
23756SOL    HW283248   7.860   3.071   7.286 -1.3431 -2.3534 -0.7752
23757SOL     OW83249   7.867   6.890   8.268  0.2979 -0.1211 -0.2428
23757SOL    HW183250   7.937   6.895   8.333  0.3079 -1.7001 -0.0855
23757SOL    HW283251   7.910   6.912   8.185  0.7733 -0.2134 -0.0253
23758SOL     OW83252   7.071   2.213  13.136 -0.2177 -0.2689  0.0154
23758SOL    HW183253   6.991   2.215  13.190  1.0146  0.0238  1.9310
23758SOL    HW283254   7.103   2.123  13.145 -0.0228 -0.2279 -0.2669
23759SOL     OW83255   8.640   2.571   1.776 -0.3256  0.0424 -0.2108
23759SOL    HW183256   8.639   2.587   1.682 -1.9353 -3.7732 -1.0372
23759SOL    HW283257   8.554   2.601   1.807 -0.2493  0.2176 -0.1659
23760SOL     OW83258   0.922   4.631  11.828 -0.2049  0.0955  0.7911
23760SOL    HW183259   0.890   4.577  11.901 -0.1492 -1.2148 -0.1092
23760SOL    HW283260   1.010   4.657  11.853 -0.6444  0.7208  1.7295
23761SOL     OW83261  10.142  13.206   7.661 -0.6762  0.8859  0.0460
23761SOL    HW183262  10.236  13.191   7.655 -0.6985 -0.3195  1.8140
23761SOL    HW283263  10.108  13.179   7.575  0.4054 -0.4245 -0.0159
23762SOL     OW83264   1.815   6.206  13.743 -0.5084  0.0246  0.2172
23762SOL    HW183265   1.823   6.295  13.711  0.0837  0.4508  1.5079
23762SOL    HW283266   1.726   6.202  13.780 -1.1203 -0.4108 -1.2415
23763SOL     OW83267   1.723   6.067   9.795  0.3022 -0.1924 -0.2402
23763SOL    HW183268   1.754   5.977   9.785  0.4846 -0.1937  0.2940
23763SOL    HW283269   1.721   6.102   9.706 -0.4658 -0.9513 -0.5254
23764SOL     OW83270   8.230   3.241  12.974  0.4329  0.2695  0.2023
23764SOL    HW183271   8.222   3.180  12.901 -0.2368  0.1225  0.3933
23764SOL    HW283272   8.298   3.203  13.030 -0.3080 -0.5715  0.5667
23765SOL     OW83273  11.358   2.530   7.119 -0.6397 -0.1113 -0.0930
23765SOL    HW183274  11.352   2.620   7.085 -1.9370  0.1516  0.7681
23765SOL    HW283275  11.301   2.479   7.061  1.0742 -0.6611 -1.3637
23766SOL     OW83276   6.294   4.270   4.288  0.5290 -0.2071 -0.4200
23766SOL    HW183277   6.369   4.223   4.324  0.1825  0.4921  1.3256
23766SOL    HW283278   6.264   4.216   4.215  1.2896 -1.7047  0.3439
23767SOL     OW83279   0.409   1.323   3.926 -0.1163  0.4597 -0.5045
23767SOL    HW183280   0.372   1.292   3.843  1.2405 -1.3988 -0.4805
23767SOL    HW283281   0.500   1.293   3.924  0.4090  1.8016  0.9680
23768SOL     OW83282   4.180  11.130   9.342 -0.2529  0.0390  0.3021
23768SOL    HW183283   4.269  11.111   9.371  0.3096  1.2508 -0.4988
23768SOL    HW283284   4.169  11.077   9.263 -0.5320 -0.6872  0.8225
23769SOL     OW83285   6.525   1.278   4.058  0.3730  0.0183  0.2028
23769SOL    HW183286   6.521   1.211   3.989  0.7340  0.6697 -0.4781
23769SOL    HW283287   6.580   1.347   4.019  0.1901  0.6017  0.9761
23770SOL     OW83288  13.070   5.122   9.893  0.5912  0.5667  0.2254
23770SOL    HW183289  13.083   5.083   9.806  1.9544 -1.9223  1.4620
23770SOL    HW283290  13.139   5.188   9.900  1.0277  0.1702 -0.2552
23771SOL     OW83291   7.689  13.442   3.062 -0.3037 -0.0950 -0.9155
23771SOL    HW183292   7.723  13.483   2.982  0.8771 -0.3086 -0.5565
23771SOL    HW283293   7.684  13.513   3.126  0.9447 -0.3165 -0.5367
23772SOL     OW83294  11.018   0.749   3.470 -0.1157 -0.3374 -0.9321
23772SOL    HW183295  10.993   0.675   3.526 -0.4887 -0.1344 -0.8327
23772SOL    HW283296  10.937   0.797   3.456  0.5241  1.4532  1.0230
23773SOL     OW83297   4.434  13.679   3.755 -0.3208 -0.1033 -0.6134
23773SOL    HW183298   4.416  13.595   3.799 -1.1409 -0.2764 -1.2382
23773SOL    HW283299   4.357  13.693   3.700 -0.9585  1.8797  0.6944
23774SOL     OW83300  12.554   3.099  13.565 -0.0246 -0.0139 -0.0799
23774SOL    HW183301  12.495   3.075  13.494 -0.3446  0.2579  0.0961
23774SOL    HW283302  12.584   3.015  13.600 -1.0033 -0.1627  0.4187
23775SOL     OW83303   3.558   4.681   0.042  0.1785  0.0522  0.7397
23775SOL    HW183304   3.643   4.721   0.060 -0.1422  2.4267 -2.1878
23775SOL    HW283305   3.499   4.755   0.026 -2.5482 -1.4905  2.6789
23776SOL     OW83306   2.901   4.175   9.623 -0.1632 -0.2580  0.5474
23776SOL    HW183307   2.926   4.256   9.578  0.7088 -0.7019  0.2326
23776SOL    HW283308   2.965   4.166   9.694  1.1721 -1.8717 -0.8060
23777SOL     OW83309   3.941  14.040   3.853 -0.9110  0.1065 -0.0437
23777SOL    HW183310   3.970  14.131   3.863 -0.2002 -0.2357  1.2705
23777SOL    HW283311   3.992  13.992   3.918 -2.7651 -0.9036  0.7260
23778SOL     OW83312   6.124   8.316   9.100  0.1510  0.3334 -0.0242
23778SOL    HW183313   6.066   8.284   9.169  0.3695 -0.7049 -0.3122
23778SOL    HW283314   6.064   8.341   9.029 -0.0636  1.2740  0.4663
23779SOL     OW83315  12.033   7.953   7.733 -0.2350 -0.4788 -0.4522
23779SOL    HW183316  12.058   8.036   7.774  1.3517 -1.4518  0.6571
23779SOL    HW283317  12.115   7.917   7.699 -1.3296 -0.1513 -3.8399
23780SOL     OW83318   5.677   2.046   9.667 -0.0508  0.3495  0.9885
23780SOL    HW183319   5.584   2.065   9.675 -0.3923 -1.1951  0.9387
23780SOL    HW283320   5.684   1.993   9.588  0.9084  0.6110  0.8846
23781SOL     OW83321  12.257  11.233   0.703  0.2884  0.1569 -0.0556
23781SOL    HW183322  12.209  11.297   0.756 -0.2631 -0.4512  0.1853
23781SOL    HW283323  12.305  11.181   0.767  0.2294 -0.0828 -0.2067
23782SOL     OW83324   7.256   6.029  12.797  0.1236 -0.7388  0.4060
23782SOL    HW183325   7.233   5.964  12.731  2.5153 -1.4105  0.1329
23782SOL    HW283326   7.226   5.991  12.880  1.3882 -2.2269  0.2373
23783SOL     OW83327   8.718  12.269   7.912 -0.3310  0.4876 -0.0903
23783SOL    HW183328   8.790  12.318   7.951 -0.8833  0.6814  0.7036
23783SOL    HW283329   8.673  12.229   7.986 -0.9296  0.2093 -0.5907
23784SOL     OW83330   1.835   7.096   8.888  0.7540 -0.2669 -0.1306
23784SOL    HW183331   1.895   7.146   8.832  2.0105 -2.5734 -0.9402
23784SOL    HW283332   1.859   7.121   8.977  2.0826 -0.1938 -0.4831
23785SOL     OW83333   8.281   5.784  12.537 -0.5724  0.0602 -0.0863
23785SOL    HW183334   8.232   5.817  12.462  0.4501 -0.9333 -1.2293
23785SOL    HW283335   8.373   5.798  12.514 -0.1483 -2.1555 -0.0004
23786SOL     OW83336   9.106   4.533   3.104 -0.1549 -0.3925  0.5787
23786SOL    HW183337   9.158   4.567   3.176 -0.5245 -0.4628  0.8813
23786SOL    HW283338   9.169   4.490   3.046  0.3376  0.9122  0.1157
23787SOL     OW83339   7.162   0.896  10.458 -0.7563 -0.3639 -0.4844
23787SOL    HW183340   7.227   0.846  10.507 -0.7232 -2.0873 -2.1488
23787SOL    HW283341   7.193   0.894  10.367 -0.9868  2.4168 -0.7067
23788SOL     OW83342   6.918  13.967  11.677 -0.5304  0.7384 -0.0635
23788SOL    HW183343   6.883  14.052  11.704 -1.5160  0.2510  0.2497
23788SOL    HW283344   6.892  13.907  11.747  1.4711  0.4353  0.5112
23789SOL     OW83345   1.855   6.226  11.106  0.2883  0.3679  0.1496
23789SOL    HW183346   1.931   6.268  11.066  1.7915 -1.2786  1.1351
23789SOL    HW283347   1.825   6.164  11.039  0.7070  0.0292  0.2665
23790SOL     OW83348   4.482  10.148  12.804 -0.3069 -0.0977  0.4294
23790SOL    HW183349   4.451  10.206  12.734  1.9751 -0.5072 -1.0304
23790SOL    HW283350   4.408  10.142  12.865 -2.1876  0.7620 -1.6277
23791SOL     OW83351  13.170   1.363   7.221 -0.1034 -0.1353 -0.4213
23791SOL    HW183352  13.184   1.276   7.260  1.2863  0.1971 -0.1143
23791SOL    HW283353  13.087   1.355   7.174  0.3987 -1.8987 -1.1117
23792SOL     OW83354  11.626   5.101   5.324  0.2833  0.0572 -0.0541
23792SOL    HW183355  11.535   5.117   5.347  0.3725 -0.0453  0.3664
23792SOL    HW283356  11.635   5.006   5.324  0.4389  0.0722  0.0839
23793SOL     OW83357   5.641  13.789  10.871 -0.6344  0.1758 -0.2531
23793SOL    HW183358   5.556  13.755  10.897 -0.9843  1.4339  0.2775
23793SOL    HW283359   5.701  13.716  10.886 -1.5525 -0.6125 -0.3198
23794SOL     OW83360   0.824   4.065   1.544 -0.1065 -0.1037 -0.4456
23794SOL    HW183361   0.853   3.975   1.564 -1.2238 -0.0411  1.6645
23794SOL    HW283362   0.732   4.056   1.520  0.0315  0.4050 -1.2334
23795SOL     OW83363   9.269  11.542   6.183 -0.1095  0.8676  0.1767
23795SOL    HW183364   9.310  11.464   6.220 -0.5845  0.1802 -0.7329
23795SOL    HW283365   9.242  11.593   6.260 -0.3953 -0.1679  0.7814
23796SOL     OW83366   1.734  12.842  11.948 -0.0425  0.6203  0.0093
23796SOL    HW183367   1.656  12.807  11.906 -0.0028 -1.4836  1.5384
23796SOL    HW283368   1.807  12.801  11.902 -0.0030 -1.9897  2.1628
23797SOL     OW83369   2.969   1.229  11.251  0.3748  0.1690 -0.2019
23797SOL    HW183370   3.048   1.250  11.200 -0.3898  0.1547 -1.4401
23797SOL    HW283371   2.932   1.314  11.273  0.7794  0.1772  0.4669
23798SOL     OW83372   1.500   7.482  10.147  0.2244  0.1196  0.1093
23798SOL    HW183373   1.440   7.543  10.102  0.2424  1.6115  1.9790
23798SOL    HW283374   1.584   7.496  10.105  0.2248  1.4265  0.5023
23799SOL     OW83375   0.693  11.889  13.154 -0.2287  0.8120  0.3602
23799SOL    HW183376   0.612  11.936  13.174 -0.6815  0.1701  0.0756
23799SOL    HW283377   0.666  11.798  13.143  0.6985  0.3828  1.3812
23800SOL     OW83378   4.101  12.164  13.168  0.1866  0.7090  0.2768
23800SOL    HW183379   4.110  12.069  13.163  0.8364  0.8068 -0.5235
23800SOL    HW283380   4.190  12.195  13.184 -0.1115  1.1570  1.1412
23801SOL     OW83381   2.119  13.763   1.246  0.6230  0.1948  0.0363
23801SOL    HW183382   2.120  13.674   1.210  0.3766  1.6208 -4.0236
23801SOL    HW283383   2.206  13.797   1.227 -0.0554  1.5589 -0.7404
23802SOL     OW83384   1.254  12.007  11.407 -0.3348 -0.0312  0.4944
23802SOL    HW183385   1.343  12.042  11.409  0.2743 -1.5049  0.9044
23802SOL    HW283386   1.236  11.992  11.315 -0.1152  0.1861  0.4157
23803SOL     OW83387   4.410   9.372  13.272 -0.3713 -0.2502 -0.3271
23803SOL    HW183388   4.493   9.330  13.296 -0.6439 -1.0146 -0.7003
23803SOL    HW283389   4.363   9.379  13.355 -0.3975 -0.8552 -0.2849
23804SOL     OW83390   3.950   8.631   1.494 -0.1841 -0.0279  0.3997
23804SOL    HW183391   4.038   8.595   1.504  0.1164 -0.6238 -2.9815
23804SOL    HW283392   3.965   8.723   1.470 -0.5475  0.1314  0.7716
23805SOL     OW83393   1.191   4.111  11.483  0.0346 -0.1832  0.0685
23805SOL    HW183394   1.205   4.205  11.469 -0.2160 -0.0921  0.4047
23805SOL    HW283395   1.115   4.089  11.429 -0.9813  0.1844  1.2800
23806SOL     OW83396  12.190  11.449  13.078  0.4287 -0.2952 -0.2235
23806SOL    HW183397  12.265  11.390  13.090  1.1059 -0.0141 -2.6768
23806SOL    HW283398  12.221  11.534  13.111  0.1514 -0.7769  1.4035
23807SOL     OW83399   8.058   6.843  10.080 -0.0125  0.1017 -0.0810
23807SOL    HW183400   8.007   6.763  10.065  1.0137 -0.5155 -0.3950
23807SOL    HW283401   8.002   6.914  10.050  0.3065 -0.7470 -2.9729
23808SOL     OW83402   2.175  13.445  13.829  0.6366  0.2642  0.0859
23808SOL    HW183403   2.094  13.395  13.824  0.4388  0.5460  0.4301
23808SOL    HW283404   2.225  13.402  13.899  0.9024 -0.0778 -0.3124
23809SOL     OW83405   6.477   8.855   0.689 -0.5834 -0.0767  0.0221
23809SOL    HW183406   6.432   8.851   0.774 -0.9343  0.9477 -0.1128
23809SOL    HW283407   6.452   8.773   0.646 -0.9136 -0.3182  0.6530
23810SOL     OW83408   2.367  10.047   5.122 -0.0599 -0.2476  0.1549
23810SOL    HW183409   2.297  10.011   5.176  0.4500 -2.6015 -0.6455
23810SOL    HW283410   2.328  10.055   5.034 -0.3435  1.8312  0.4310
23811SOL     OW83411  12.138   5.296   6.372  0.4746 -0.2177 -1.0395
23811SOL    HW183412  12.119   5.355   6.298  0.6231 -1.2512 -1.9379
23811SOL    HW283413  12.169   5.215   6.330  2.6712 -0.1038  0.2358
23812SOL     OW83414   3.085  13.422   5.038  0.3413 -0.2045  0.9552
23812SOL    HW183415   3.081  13.327   5.054 -0.7465 -0.2998  0.2064
23812SOL    HW283416   3.135  13.429   4.957  1.8856 -0.0044  1.8792
23813SOL     OW83417   1.383  11.243   4.802  0.1733  0.1564 -0.2593
23813SOL    HW183418   1.374  11.326   4.755 -0.4511  0.4026  0.2868
23813SOL    HW283419   1.477  11.235   4.818  0.0996  1.6025  1.1573
23814SOL     OW83420   5.028  10.696   9.999  0.0092 -0.1894  0.5138
23814SOL    HW183421   4.964  10.674   9.932 -1.3266 -0.1129  1.7056
23814SOL    HW283422   5.016  10.628  10.066 -1.9289  2.1251  2.7628
23815SOL     OW83423   2.660   8.518   7.315  0.0224  0.0705  0.3087
23815SOL    HW183424   2.650   8.478   7.401  0.9613  0.1574  0.4707
23815SOL    HW283425   2.577   8.563   7.299 -0.5494 -0.8150  0.7026
23816SOL     OW83426   0.953   5.791  11.854  0.4159  0.5712 -0.1763
23816SOL    HW183427   0.875   5.783  11.799 -0.1375  0.9914  0.5311
23816SOL    HW283428   0.930   5.743  11.934  1.5058 -0.7086 -0.5993
23817SOL     OW83429   6.688   3.154   3.957 -0.2800  0.3669 -0.8603
23817SOL    HW183430   6.742   3.120   3.886 -0.2987 -0.0804 -0.6615
23817SOL    HW283431   6.601   3.164   3.918 -0.0882  0.9901 -1.1512
23818SOL     OW83432  11.903  12.076  13.474 -0.0994 -0.1149  0.0021
23818SOL    HW183433  11.956  12.034  13.405 -0.3197  0.5363 -0.5736
23818SOL    HW283434  11.906  12.169  13.453 -1.1442 -0.0271  0.1985
23819SOL     OW83435  12.771   3.095  10.819 -0.5566 -0.1604 -0.4453
23819SOL    HW183436  12.745   3.186  10.806  0.1966  0.4941  2.0854
23819SOL    HW283437  12.865   3.099  10.835 -0.5377 -1.3720 -0.1540
23820SOL     OW83438   5.704   9.264  10.200 -0.2650  0.0648  0.0978
23820SOL    HW183439   5.791   9.284  10.236  1.8851 -2.2769 -3.1135
23820SOL    HW283440   5.665   9.350  10.182  1.9303  1.2380  0.5452
23821SOL     OW83441   4.335   3.607   6.396  0.2334  0.4030  0.3745
23821SOL    HW183442   4.290   3.550   6.334 -1.3946  1.2086  0.7639
23821SOL    HW283443   4.426   3.576   6.395 -0.1051 -0.6778 -1.1353
23822SOL     OW83444   7.961   6.374  11.090  0.4138 -0.5530 -0.5052
23822SOL    HW183445   8.050   6.356  11.122  0.5571 -1.1925 -1.2413
23822SOL    HW283446   7.947   6.466  11.111  0.9023 -0.6794  0.4412
23823SOL     OW83447   5.923   8.500  13.587  0.4605 -0.5027  0.0921
23823SOL    HW183448   5.993   8.551  13.546 -0.7144 -0.1371 -1.5846
23823SOL    HW283449   5.914   8.423  13.530 -1.3854  0.1284 -0.5264
23824SOL     OW83450   3.423   1.270   8.607  0.1871 -0.0161  0.9737
23824SOL    HW183451   3.349   1.254   8.665  0.3721 -0.1619  1.1727
23824SOL    HW283452   3.444   1.363   8.619  0.0751  0.0104  0.9627
23825SOL     OW83453   9.638   2.711   9.556 -0.1947 -0.4417 -0.0316
23825SOL    HW183454   9.600   2.785   9.510  0.3372 -1.8030 -2.9228
23825SOL    HW283455   9.674   2.747   9.637  0.1563  2.4395 -1.3808
23826SOL     OW83456   3.806  11.388   5.714 -0.6579  0.2831 -0.1158
23826SOL    HW183457   3.775  11.473   5.744  1.1251  0.6439  0.8200
23826SOL    HW283458   3.726  11.342   5.686 -2.0881  1.0557  2.3485
23827SOL     OW83459   2.452   8.603   4.642  0.0192  0.3885 -0.6049
23827SOL    HW183460   2.363   8.629   4.617 -0.3819 -0.6065 -0.2871
23827SOL    HW283461   2.496   8.584   4.559 -0.1922  0.5001 -0.7428
23828SOL     OW83462   4.621  10.680   9.390 -0.0143 -0.9906  0.2823
23828SOL    HW183463   4.566  10.657   9.315  2.2301 -1.2977 -1.3868
23828SOL    HW283464   4.642  10.596   9.431 -1.0134 -0.8459  1.1109
23829SOL     OW83465   0.517   4.677   7.803  0.5206  0.2392  0.3228
23829SOL    HW183466   0.422   4.690   7.812  0.6620  1.8630 -0.1408
23829SOL    HW283467   0.526   4.589   7.766 -0.9107  0.7717 -1.4243
23830SOL     OW83468  11.329   8.071  10.544 -0.5174 -0.1984  0.9390
23830SOL    HW183469  11.342   8.101  10.454 -0.7690  1.7717  1.5242
23830SOL    HW283470  11.415   8.035  10.569 -0.1271  0.2527  0.2881
23831SOL     OW83471   3.246   0.517  11.138 -0.3506  0.0873  0.4698
23831SOL    HW183472   3.202   0.557  11.213 -1.4193  0.2937 -0.2562
23831SOL    HW283473   3.217   0.568  11.063  0.4720 -0.3079 -0.1361
23832SOL     OW83474   8.498   5.381   1.593 -0.6530 -0.2033  0.5831
23832SOL    HW183475   8.512   5.315   1.525 -0.2064 -0.7137  1.1580
23832SOL    HW283476   8.585   5.419   1.608 -0.7430 -0.1187  0.8995
23833SOL     OW83477   3.040   9.216   4.100  0.2747 -0.2395 -0.3073
23833SOL    HW183478   3.004   9.146   4.046  0.9892 -1.1198  0.3408
23833SOL    HW283479   2.987   9.216   4.179  1.3918 -1.2676  0.4722
23834SOL     OW83480  13.205   6.928  10.452  0.0725 -0.1135  0.3529
23834SOL    HW183481  13.200   6.938  10.357  0.8252 -1.1295  0.1851
23834SOL    HW283482  13.214   6.833  10.465  1.0187  0.1007  1.3742
23835SOL     OW83483  11.207  10.084   9.230  0.4745  0.3467 -0.9354
23835SOL    HW183484  11.292  10.040   9.234  0.8169  1.1002  2.2628
23835SOL    HW283485  11.147  10.018   9.194  1.7696 -1.3401 -0.1029
23836SOL     OW83486   6.848  13.186   1.141  0.0139  0.0686  0.1458
23836SOL    HW183487   6.887  13.141   1.216 -0.8556  0.1843  0.6838
23836SOL    HW283488   6.846  13.120   1.072 -0.1866 -0.3678  0.5648
23837SOL     OW83489  11.468   1.254   8.150 -0.0623  0.4487 -0.0614
23837SOL    HW183490  11.384   1.219   8.178 -0.9052  1.7176 -0.8988
23837SOL    HW283491  11.477   1.336   8.198 -0.6943  1.7535 -2.0241
23838SOL     OW83492   3.120   2.633  11.792 -0.4501  0.0042 -0.5354
23838SOL    HW183493   3.025   2.625  11.787 -0.5392  0.8016 -0.3289
23838SOL    HW283494   3.154   2.548  11.764 -1.2472 -0.6617  0.4636
23839SOL     OW83495   9.191   6.988   2.946  0.6028  0.1992 -0.4010
23839SOL    HW183496   9.106   7.018   2.976  1.0951 -0.7614  2.2022
23839SOL    HW283497   9.200   6.900   2.983  2.8384  0.4014 -0.3145
23840SOL     OW83498   6.792   3.675   4.740  0.7957  0.0299 -0.6234
23840SOL    HW183499   6.719   3.725   4.705  1.2017  1.2241  0.1668
23840SOL    HW283500   6.810   3.608   4.674  0.6343  1.3161 -2.0055
23841SOL     OW83501   8.035   7.208  12.428  0.4279 -0.5978 -0.0979
23841SOL    HW183502   8.102   7.246  12.484 -0.3190  2.9661 -1.3440
23841SOL    HW283503   7.955   7.254  12.452 -0.3995 -0.7608 -2.2958
23842SOL     OW83504  13.125   5.712   7.308 -0.3496 -0.4458  0.2354
23842SOL    HW183505  13.035   5.695   7.277  0.2091 -1.8806 -0.7277
23842SOL    HW283506  13.135   5.806   7.300 -1.9004 -0.1983  0.7437
23843SOL     OW83507   5.802   8.315   5.473 -0.0911  0.4134 -0.1780
23843SOL    HW183508   5.740   8.252   5.511  0.3279  0.5750  0.8157
23843SOL    HW283509   5.888   8.283   5.501  0.1459  1.2647  0.1016
23844SOL     OW83510   5.204   5.625   2.691 -0.2104 -0.3892  0.0484
23844SOL    HW183511   5.247   5.693   2.743 -1.7722  0.1778  0.6573
23844SOL    HW283512   5.179   5.558   2.755 -0.1718 -0.7528 -0.3089
23845SOL     OW83513  10.903  12.599   6.077  0.1459 -0.5044  0.1625
23845SOL    HW183514  10.900  12.695   6.077 -2.1173 -0.4881 -0.8684
23845SOL    HW283515  10.864  12.574   6.160  2.0969 -0.5910  1.1007
23846SOL     OW83516  11.265   9.894   6.752  0.0089 -0.8974  0.1342
23846SOL    HW183517  11.190   9.922   6.806 -0.5113 -0.4601 -0.7965
23846SOL    HW283518  11.329   9.964   6.762 -0.5496 -0.2467 -0.7129
23847SOL     OW83519  13.965   9.905   4.319 -0.3996  0.0443  0.4077
23847SOL    HW183520  13.929   9.818   4.299 -0.8933  0.4255 -0.4707
23847SOL    HW283521  13.894   9.950   4.365 -0.2795  0.1014  0.5361
23848SOL     OW83522   6.588   8.859   6.747  0.2600  0.1464  0.4138
23848SOL    HW183523   6.506   8.856   6.697  0.2650 -2.1074  0.4519
23848SOL    HW283524   6.586   8.944   6.791 -2.4074 -0.1231  0.9850
23849SOL     OW83525   5.580   0.776   7.952 -0.1089  0.0502  0.2416
23849SOL    HW183526   5.495   0.766   7.995  0.0255  0.5739  0.6422
23849SOL    HW283527   5.586   0.869   7.932 -0.3083 -0.2371 -1.2433
23850SOL     OW83528   0.157   0.369   3.317  0.7653 -0.0034  0.4154
23850SOL    HW183529   0.154   0.276   3.339 -0.1790 -0.8704 -2.7798
23850SOL    HW283530   0.248   0.385   3.293  0.5473 -0.7617 -1.0996
23851SOL     OW83531  11.864   3.549   0.929  0.0043  0.0182 -0.2108
23851SOL    HW183532  11.908   3.470   0.958 -2.6137 -1.5064 -0.0916
23851SOL    HW283533  11.925   3.591   0.869  1.4240 -2.1342 -0.3444
23852SOL     OW83534   9.852   6.832  10.343 -0.4009  0.0744 -0.0649
23852SOL    HW183535   9.857   6.775  10.266 -1.5084  0.7171 -0.6505
23852SOL    HW283536   9.897   6.912  10.316  1.4020 -0.5845  0.8519
23853SOL     OW83537   6.349  12.057   6.127  0.5004  0.1189  0.1218
23853SOL    HW183538   6.378  12.055   6.036  0.3460 -0.6711  0.0833
23853SOL    HW283539   6.298  11.976   6.138  0.4555  0.2419  0.8894
23854SOL     OW83540   1.747  13.738  10.682 -0.9303  0.2690 -0.1160
23854SOL    HW183541   1.811  13.753  10.752 -2.3954 -1.2955  1.6707
23854SOL    HW283542   1.763  13.808  10.620  2.9067 -0.3531 -0.0990
23855SOL     OW83543   8.785   4.075  11.760 -0.4184  0.1963 -0.4121
23855SOL    HW183544   8.708   4.127  11.782 -1.6754 -0.3558 -3.1642
23855SOL    HW283545   8.758   3.984  11.772 -0.7024 -0.0593 -2.6601
23856SOL     OW83546  13.790   5.332   5.581  0.5342  0.3527 -0.8061
23856SOL    HW183547  13.763   5.246   5.613 -0.1100  1.2998  1.4301
23856SOL    HW283548  13.882   5.339   5.608 -0.2683  1.5358  2.0048
23857SOL     OW83549   2.600   0.329   7.394 -0.3728  0.0674  0.2449
23857SOL    HW183550   2.521   0.359   7.437 -1.6044  0.2236 -1.9642
23857SOL    HW283551   2.663   0.400   7.407 -1.2948  0.9067  0.2654
23858SOL     OW83552   7.062   8.082   2.972  0.3908 -0.1048  0.0858
23858SOL    HW183553   7.001   8.098   2.900  0.9919  4.0593  0.2761
23858SOL    HW283554   7.128   8.024   2.934 -0.6251 -0.0352 -1.9527
23859SOL     OW83555   8.419  11.434   4.446  0.1374 -0.1644  0.3737
23859SOL    HW183556   8.510  11.434   4.476  0.8063 -1.1137 -1.5129
23859SOL    HW283557   8.420  11.384   4.365 -2.2481 -0.9747  0.7602
23860SOL     OW83558   0.008   8.648  12.393 -0.8544 -0.2304 -0.2947
23860SOL    HW183559  -0.046   8.581  12.434 -0.5817 -0.4616 -0.3127
23860SOL    HW283560   0.031   8.708  12.464 -0.4434 -0.5909 -0.1182
23861SOL     OW83561   4.489   2.853   8.137 -0.1355  0.1160  0.4980
23861SOL    HW183562   4.511   2.872   8.046 -0.6924  1.3742  0.6163
23861SOL    HW283563   4.408   2.900   8.153  0.1813  0.2559  1.7777
23862SOL     OW83564  13.004   0.944   2.435 -0.3039 -0.3260 -0.6314
23862SOL    HW183565  13.024   0.972   2.525  2.0601 -0.9487 -0.8808
23862SOL    HW283566  12.971   1.023   2.392 -0.4109  0.2613  0.4857
23863SOL     OW83567   7.228   0.576   4.462 -0.1526 -0.5917  0.0788
23863SOL    HW183568   7.203   0.668   4.472 -1.8019 -0.7400 -1.9742
23863SOL    HW283569   7.193   0.533   4.540 -0.9939  0.2391  0.1775
23864SOL     OW83570   7.279  13.125  10.588 -0.0353 -0.5576  0.0067
23864SOL    HW183571   7.313  13.197  10.642  0.6232 -0.6230 -0.3052
23864SOL    HW283572   7.304  13.148  10.499 -1.7244 -0.1119 -0.3781
23865SOL     OW83573   1.673  11.698  13.133  0.6106 -0.7053 -0.9350
23865SOL    HW183574   1.653  11.635  13.202  0.6747 -0.6681 -0.8825
23865SOL    HW283575   1.632  11.779  13.162  0.9647 -0.5884 -0.7531
23866SOL     OW83576  11.487   4.274  10.862  0.2313  0.4099 -0.3138
23866SOL    HW183577  11.442   4.228  10.933  0.1411  1.9361  0.6779
23866SOL    HW283578  11.418   4.322  10.817  0.3389 -0.2909 -1.2328
23867SOL     OW83579   4.286   3.927  12.373 -0.1032 -0.1437  0.4261
23867SOL    HW183580   4.234   3.878  12.437 -0.0127  2.4571  2.6824
23867SOL    HW283581   4.284   4.018  12.405  0.6075  1.1787 -2.9084
23868SOL     OW83582   9.048   1.254   9.124 -0.7111 -0.5290  0.2385
23868SOL    HW183583   9.054   1.349   9.127  0.9595 -0.4984 -1.7656
23868SOL    HW283584   9.131   1.223   9.160 -0.4488 -1.1408 -0.8318
23869SOL     OW83585   2.685   5.739   2.655  0.0645 -0.0996  0.9458
23869SOL    HW183586   2.614   5.746   2.719 -0.8534 -1.6580  0.1517
23869SOL    HW283587   2.685   5.824   2.610 -1.1637  0.0016  1.0964
23870SOL     OW83588   0.147   4.100   6.489 -0.2209  0.4170  0.1647
23870SOL    HW183589   0.117   4.052   6.566  0.3828  0.1674  0.2511
23870SOL    HW283590   0.070   4.146   6.458 -0.5984  0.0909  0.6043
23871SOL     OW83591  11.991  10.749   2.120  0.0670 -0.4492  0.4496
23871SOL    HW183592  11.927  10.820   2.110 -0.2433 -0.9999 -2.0711
23871SOL    HW283593  12.030  10.739   2.033  3.3410 -0.4369  1.7926
23872SOL     OW83594   0.953  13.240  13.903  0.2021 -0.2572  0.4746
23872SOL    HW183595   0.899  13.317  13.921  1.2805  0.6615 -0.1131
23872SOL    HW283596   0.948  13.188  13.984 -0.4177  0.4904  0.9334
23873SOL     OW83597   1.996   9.474   2.467  0.3284  0.1399 -0.3853
23873SOL    HW183598   1.962   9.391   2.498 -0.8445 -0.0815 -2.1243
23873SOL    HW283599   2.069   9.494   2.526 -1.6730 -0.2172  2.4263
23874SOL     OW83600  12.161  12.848   2.993 -0.0073  0.7713 -0.4524
23874SOL    HW183601  12.198  12.933   2.970  1.0840 -0.0368 -1.9135
23874SOL    HW283602  12.220  12.814   3.060 -1.0406  1.5610  0.9047
23875SOL     OW83603   4.198   4.116   5.069  0.0706  0.3701  0.8343
23875SOL    HW183604   4.273   4.093   5.123 -1.0053 -1.2340  1.7322
23875SOL    HW283605   4.160   4.193   5.112  1.8410  1.9763 -0.3304
23876SOL     OW83606   6.355  12.880   5.412  0.3518  0.7020  0.1203
23876SOL    HW183607   6.278  12.930   5.439  0.2072  0.1488  0.7544
23876SOL    HW283608   6.347  12.873   5.317  0.3981  1.9126  0.0106
23877SOL     OW83609   3.978   6.481   5.276 -0.2616 -0.0558 -0.1555
23877SOL    HW183610   3.889   6.458   5.251  0.0111 -1.3083 -0.0577
23877SOL    HW283611   3.981   6.576   5.270 -1.5596 -0.0065 -0.2958
23878SOL     OW83612  13.789   3.436   5.243  0.5942 -0.0885 -0.3244
23878SOL    HW183613  13.867   3.464   5.196  0.3655  0.8592 -0.1654
23878SOL    HW283614  13.744   3.518   5.266 -0.2119 -0.6015 -0.0254
23879SOL     OW83615   6.675   4.450  10.277  0.2838  0.2759  0.1839
23879SOL    HW183616   6.717   4.513  10.335 -0.1045 -0.9631  1.8761
23879SOL    HW283617   6.748   4.407  10.232  0.6491  0.5291  0.5275
23880SOL     OW83618   6.456   0.592   7.788  0.4479 -0.9367 -0.5898
23880SOL    HW183619   6.414   0.574   7.872  2.0507 -3.4339 -0.2192
23880SOL    HW283620   6.549   0.602   7.809  0.7208 -0.4361 -1.9462
23881SOL     OW83621   3.259   9.004  12.125  0.1750  0.0117 -0.3158
23881SOL    HW183622   3.208   8.947  12.067 -1.5257 -0.5291  1.5825
23881SOL    HW283623   3.203   9.016  12.202  1.8846  1.5613  0.7701
23882SOL     OW83624  13.535   2.757   5.966  0.3408  0.1350 -0.2310
23882SOL    HW183625  13.603   2.780   6.029 -0.1303 -1.9161  1.1626
23882SOL    HW283626  13.538   2.661   5.963 -1.3444  0.0843 -1.4374
23883SOL     OW83627   2.965   1.857   0.191  0.0515  0.3667 -0.2187
23883SOL    HW183628   3.009   1.786   0.144 -1.6338 -1.6279  1.0672
23883SOL    HW283629   3.036   1.914   0.219  1.4613 -0.7149 -1.4062
23884SOL     OW83630   3.323   6.126   7.373  0.0698  0.0031 -0.4282
23884SOL    HW183631   3.331   6.072   7.295  0.1676  0.0063 -0.4212
23884SOL    HW283632   3.229   6.135   7.387  0.0510  0.1896 -0.6718
23885SOL     OW83633   8.669   1.252   4.949 -0.4932 -0.2004  0.4514
23885SOL    HW183634   8.648   1.330   4.899 -1.6087 -1.1941 -0.7041
23885SOL    HW283635   8.646   1.274   5.039 -0.4009  0.9263  0.2161
23886SOL     OW83636  12.534   5.409   6.309  0.1742 -0.3431 -0.5704
23886SOL    HW183637  12.506   5.455   6.388 -0.4398 -1.9309  0.1781
23886SOL    HW283638  12.537   5.317   6.335 -0.6961 -0.9864 -2.5722
23887SOL     OW83639  13.179  10.613   3.201 -0.1402 -0.1945  0.2140
23887SOL    HW183640  13.219  10.698   3.178 -2.4777  0.7145 -0.8181
23887SOL    HW283641  13.253  10.558   3.227  1.9031  1.0949 -2.3817
23888SOL     OW83642  13.963   8.741   0.322  0.1253 -0.1384 -0.5509
23888SOL    HW183643  14.026   8.774   0.257 -0.2297 -1.5449 -1.6640
23888SOL    HW283644  13.926   8.662   0.282 -1.1935 -0.2369  0.7564
23889SOL     OW83645  12.547   2.405   9.052  0.1596  0.3670 -0.7222
23889SOL    HW183646  12.499   2.323   9.039  0.6766 -0.1630  0.5118
23889SOL    HW283647  12.588   2.422   8.967 -1.1182  0.1336 -1.4110
23890SOL     OW83648  14.019  13.963   7.999 -0.9198  0.4907  0.3038
23890SOL    HW183649  14.040  13.872   8.020 -0.1576  0.8351  1.1198
23890SOL    HW283650  13.968  13.994   8.073  1.3332  1.5641  1.5379
23891SOL     OW83651   0.699   5.911  13.064 -0.2123  0.3636 -0.1516
23891SOL    HW183652   0.687   6.006  13.066  0.1139  0.3962  0.7740
23891SOL    HW283653   0.793   5.899  13.077  0.2182 -0.0156 -2.9329
23892SOL     OW83654   5.519   7.190   2.016  0.0883 -0.8042  0.1212
23892SOL    HW183655   5.434   7.204   2.057 -0.5564 -0.9860 -1.1220
23892SOL    HW283656   5.502   7.130   1.943  1.0424  0.1743 -0.9457
23893SOL     OW83657   2.992   5.862  13.522 -0.0565 -0.0939  0.7885
23893SOL    HW183658   2.939   5.797  13.476  0.7735 -1.8198  2.1710
23893SOL    HW283659   3.082   5.837  13.504  0.2781  0.2922  1.8433
23894SOL     OW83660   0.640   1.560  13.563  0.1338  0.4774 -0.0049
23894SOL    HW183661   0.573   1.617  13.525  0.8846  0.6796 -1.0541
23894SOL    HW283662   0.610   1.545  13.653 -0.1125  2.5081  0.3027
23895SOL     OW83663   7.617   5.910  13.160  0.4116  0.5443  1.0747
23895SOL    HW183664   7.709   5.889  13.142  0.6407  1.9888  0.4192
23895SOL    HW283665   7.584   5.834  13.207  1.7023 -0.3897  0.5388
23896SOL     OW83666   8.698   8.351  11.985 -0.1482 -0.4505 -0.0479
23896SOL    HW183667   8.739   8.268  11.960 -0.5082 -0.9490  0.9959
23896SOL    HW283668   8.612   8.327  12.017 -1.8113  0.6760 -3.2105
23897SOL     OW83669   9.888   3.981   4.379  0.0434 -0.2226 -0.0728
23897SOL    HW183670   9.824   4.052   4.384  0.1134 -0.0255 -1.6803
23897SOL    HW283671   9.880   3.936   4.463 -2.1081 -0.1214 -0.1717
23898SOL     OW83672  12.769   1.557   5.311  0.6622 -0.1919 -0.3327
23898SOL    HW183673  12.718   1.480   5.338 -0.7295 -0.3254 -2.9829
23898SOL    HW283674  12.715   1.632   5.335 -0.4322 -0.3013 -2.2153
23899SOL     OW83675   3.304   9.033  10.054  0.1167 -0.0868  0.4247
23899SOL    HW183676   3.218   9.047  10.095 -0.7338  0.7115 -1.4869
23899SOL    HW283677   3.366   9.075  10.113 -0.7610 -0.7804  1.9132
23900SOL     OW83678   5.826   0.730   9.820  0.1991  1.1539  0.5805
23900SOL    HW183679   5.807   0.762   9.731  0.4457  1.0140  0.4758
23900SOL    HW283680   5.824   0.635   9.812  3.3637  1.0192 -0.0236
23901SOL     OW83681   9.480   7.252   8.272  0.3456  0.0634  0.1645
23901SOL    HW183682   9.432   7.318   8.221 -0.6658 -0.6142  0.2008
23901SOL    HW283683   9.515   7.192   8.207 -1.7714 -1.3594  0.2194
23902SOL     OW83684   4.229   9.921   9.056 -0.0126  0.3641 -0.0818
23902SOL    HW183685   4.283   9.972   8.995  1.9933  0.3097  1.5196
23902SOL    HW283686   4.177   9.988   9.102 -0.5879  0.5191 -0.9313
23903SOL     OW83687   1.159   3.425   8.520  0.1481  0.6646  0.6947
23903SOL    HW183688   1.237   3.376   8.494 -0.0527  0.5167  0.3586
23903SOL    HW283689   1.190   3.485   8.587  0.4471  0.2432  0.9399
23904SOL     OW83690  10.278   5.280   9.094 -1.1623  0.2953  0.5301
23904SOL    HW183691  10.292   5.242   9.007 -1.1483  0.2238  0.5639
23904SOL    HW283692  10.186   5.263   9.113 -0.8620 -0.8014  1.0662
23905SOL     OW83693   9.401   6.246   2.111  0.1025  0.1403  0.0786
23905SOL    HW183694   9.495   6.255   2.093  0.0957  2.7002  0.9289
23905SOL    HW283695   9.358   6.290   2.038 -0.2634  1.8784  1.2845
23906SOL     OW83696   7.624   9.191   8.575  0.1931 -0.1579 -0.0298
23906SOL    HW183697   7.564   9.127   8.538 -1.3808  0.8495  0.7080
23906SOL    HW283698   7.641   9.252   8.503 -1.3037  0.6909  0.2999
23907SOL     OW83699   7.430   1.110   8.316 -0.6664 -0.0837  0.0248
23907SOL    HW183700   7.423   1.017   8.294 -0.8515  0.0328 -0.4101
23907SOL    HW283701   7.382   1.119   8.398 -2.4717  0.0100 -0.9997
23908SOL     OW83702  11.629   9.707  11.940  0.5044 -0.0076 -0.0043
23908SOL    HW183703  11.579   9.630  11.913 -0.0785  1.0210 -2.0604
23908SOL    HW283704  11.720   9.683  11.927  0.4681 -1.0546  1.4445
23909SOL     OW83705  12.824   7.236   9.201  0.1850 -0.2271 -0.0533
23909SOL    HW183706  12.748   7.233   9.143 -0.3176  0.4970  0.5546
23909SOL    HW283707  12.859   7.146   9.199 -0.5940 -0.5312 -0.4533
23910SOL     OW83708   1.461   4.804   7.543  0.1782  0.2709 -0.0115
23910SOL    HW183709   1.529   4.744   7.512  0.7222  1.5086 -1.3243
23910SOL    HW283710   1.475   4.884   7.493 -2.3571  0.5345 -0.4691
23911SOL     OW83711   5.686  13.504  10.825  0.1876 -0.2547 -0.1047
23911SOL    HW183712   5.776  13.531  10.809 -0.1785 -0.0528 -1.9662
23911SOL    HW283713   5.693  13.412  10.852  0.7974 -1.2559 -3.3417
23912SOL     OW83714   0.774   6.110  11.396  0.2129 -0.4219  0.4165
23912SOL    HW183715   0.746   6.186  11.345 -0.2856 -1.4342 -0.8580
23912SOL    HW283716   0.792   6.145  11.483  2.8768  1.7471 -0.8287
23913SOL     OW83717   7.563   1.834   9.861 -0.5464 -0.3988 -0.4411
23913SOL    HW183718   7.632   1.860   9.922  0.2038  2.6455 -2.3781
23913SOL    HW283719   7.609   1.787   9.791  0.0367  2.9129 -2.4983
23914SOL     OW83720  12.913   0.212   6.844 -0.1754 -0.3376 -0.1683
23914SOL    HW183721  12.932   0.217   6.750  0.8494  1.2539  0.0883
23914SOL    HW283722  12.857   0.135   6.853  0.8520 -1.3472 -1.9025
23915SOL     OW83723  10.188  10.261  10.518  0.2493  0.7254 -0.7403
23915SOL    HW183724  10.168  10.181  10.469  1.3764 -0.1211  0.1473
23915SOL    HW283725  10.113  10.318  10.501 -0.1897 -0.1932 -2.0539
23916SOL     OW83726   8.772   5.467   1.596  0.1173  0.3207 -0.5150
23916SOL    HW183727   8.852   5.453   1.646  1.3285  0.4101 -2.3050
23916SOL    HW283728   8.769   5.562   1.582 -0.1684  0.2952 -0.6292
23917SOL     OW83729  10.388   1.749   4.511 -0.1711  0.0298  0.5250
23917SOL    HW183730  10.376   1.690   4.585 -0.1619 -0.9258 -0.2161
23917SOL    HW283731  10.435   1.697   4.446  0.0877  0.9477 -0.0346
23918SOL     OW83732   6.816  10.455   1.039  0.1130  0.7707 -0.1968
23918SOL    HW183733   6.774  10.422   0.959  0.7069  1.8691 -1.0006
23918SOL    HW283734   6.775  10.540   1.054 -0.6019  0.1968  1.1826
23919SOL     OW83735   1.909  11.962  11.479 -0.3945  0.3749 -0.1534
23919SOL    HW183736   1.906  12.049  11.440  0.2216  0.7887  0.6878
23919SOL    HW283737   1.856  11.969  11.558 -0.5557 -0.0875 -0.2151
23920SOL     OW83738   5.999   2.331   8.849  0.0903  0.3482  0.3164
23920SOL    HW183739   5.918   2.294   8.883 -0.4140  0.5177 -0.6818
23920SOL    HW283740   6.038   2.260   8.797  0.5113  0.3239  0.6514
23921SOL     OW83741   9.117   0.773   9.566  0.3335 -0.2916  0.1437
23921SOL    HW183742   9.159   0.830   9.501  2.0571 -2.3788 -0.7160
23921SOL    HW283743   9.120   0.823   9.647 -0.3537  1.7302 -0.9918
23922SOL     OW83744  12.376  13.319   2.578 -0.6368 -0.2817  0.4066
23922SOL    HW183745  12.403  13.402   2.539 -0.0266 -0.4996  0.3662
23922SOL    HW283746  12.358  13.341   2.670 -2.5625  0.3368 -0.0791
23923SOL     OW83747  12.033   7.736   0.638  0.1930 -0.5716 -0.0093
23923SOL    HW183748  12.113   7.727   0.586 -0.0413  0.5320 -0.5957
23923SOL    HW283749  12.053   7.804   0.702  0.0357 -0.9697  0.4673
23924SOL     OW83750   7.956  13.740   2.413  0.7182 -0.1128 -0.9709
23924SOL    HW183751   7.932  13.712   2.324  1.3832 -1.5558 -0.7201
23924SOL    HW283752   7.968  13.834   2.405 -0.3244 -0.0439 -2.1631
23925SOL     OW83753   3.709   4.627   6.585 -0.6150 -0.2730  0.8846
23925SOL    HW183754   3.798   4.610   6.617 -0.3318 -0.2132  0.1431
23925SOL    HW283755   3.653   4.614   6.662 -0.0649 -1.2444  1.1391
23926SOL     OW83756  10.253   9.650   9.885 -0.5512 -0.2540 -0.1363
23926SOL    HW183757  10.328   9.621   9.834 -0.5605 -0.4645 -0.0322
23926SOL    HW283758  10.275   9.626   9.975 -0.9267 -0.7001 -0.1608
23927SOL     OW83759   4.914   8.920  13.822 -0.0049 -0.0567  0.3241
23927SOL    HW183760   4.833   8.876  13.847 -0.4908 -0.3683 -1.6538
23927SOL    HW283761   4.885   9.007  13.794  0.5085  0.2504  0.7373
23928SOL     OW83762  13.575  12.505   1.949  0.3768 -0.0932  0.4034
23928SOL    HW183763  13.610  12.526   2.036 -0.8152  0.7924  0.6841
23928SOL    HW283764  13.559  12.590   1.908 -0.9288 -0.4751  0.0870
23929SOL     OW83765   7.382   1.038   9.737 -0.6306  0.2158  0.2746
23929SOL    HW183766   7.410   0.981   9.665  1.2547  1.0101  0.3124
23929SOL    HW283767   7.328   1.105   9.695  0.1939  0.4941 -0.3825
23930SOL     OW83768   4.839   9.443   6.923 -0.1143 -0.4341 -0.4426
23930SOL    HW183769   4.756   9.482   6.951 -0.7685 -1.2080 -1.2314
23930SOL    HW283770   4.879   9.510   6.867 -0.5765 -0.3427 -0.6728
23931SOL     OW83771  11.534   5.465   0.685  0.2514  0.3675 -0.7044
23931SOL    HW183772  11.457   5.426   0.644 -0.2938  0.8545 -0.1608
23931SOL    HW283773  11.597   5.475   0.613 -0.0669 -0.3170 -1.0934
23932SOL     OW83774   3.413  10.257   3.866 -0.1803 -0.3740  0.1403
23932SOL    HW183775   3.332  10.208   3.883  0.4769 -1.4827  0.1641
23932SOL    HW283776   3.397  10.301   3.783 -0.3984 -1.5115 -0.4450
23933SOL     OW83777   4.594   9.061   6.421 -0.1210 -0.0781  0.2886
23933SOL    HW183778   4.499   9.050   6.419 -0.0076 -2.1280 -3.2052
23933SOL    HW283779   4.614   9.105   6.338  2.0220 -1.1815  0.1552
23934SOL     OW83780   5.804   9.443   2.890 -0.2410  0.8735  0.1499
23934SOL    HW183781   5.839   9.359   2.921 -1.6460 -0.4579 -1.6307
23934SOL    HW283782   5.750   9.475   2.962  0.3356  0.2672  0.8626
23935SOL     OW83783  11.291   5.611   4.777  0.1373  0.0992 -0.5387
23935SOL    HW183784  11.338   5.652   4.704 -1.5338  0.7078 -1.3160
23935SOL    HW283785  11.242   5.539   4.738 -0.1664 -0.0618  0.1163
23936SOL     OW83786   7.287   6.988   0.912  0.2234 -0.1837 -0.1892
23936SOL    HW183787   7.280   6.913   0.971 -2.4746 -0.4196 -0.6773
23936SOL    HW283788   7.206   7.037   0.926  1.2756  1.8902 -0.9226
23937SOL     OW83789   0.612   0.672   2.037  1.1285  0.1564  0.2352
23937SOL    HW183790   0.643   0.619   1.964 -1.9488  0.0145 -1.0994
23937SOL    HW283791   0.657   0.756   2.027  2.3672 -0.5675 -0.5055
23938SOL     OW83792   3.976   2.127   1.904 -0.0891  0.0492 -0.0291
23938SOL    HW183793   4.065   2.152   1.882 -0.0446 -0.8752 -0.9816
23938SOL    HW283794   3.930   2.210   1.917  1.0999  0.5409  1.3839
23939SOL     OW83795   4.579   8.896   2.262  0.2275 -0.0596  0.2998
23939SOL    HW183796   4.597   8.805   2.240  0.3876 -0.4005  1.7834
23939SOL    HW283797   4.486   8.908   2.244  0.6163  0.1166 -1.9358
23940SOL     OW83798   7.463   7.806   6.680 -0.3227  0.2546  0.2574
23940SOL    HW183799   7.383   7.839   6.639 -0.3900  0.6901  0.7270
23940SOL    HW283800   7.505   7.884   6.715 -1.1912 -0.2756  2.6550
23941SOL     OW83801   7.215   6.983   0.233 -0.5401  0.2970  0.1232
23941SOL    HW183802   7.152   6.915   0.210  0.6553 -0.9389  0.3737
23941SOL    HW283803   7.167   7.041   0.293 -1.0547 -1.3632  1.3774
23942SOL     OW83804   5.157   5.721   1.743  0.5896  0.2793 -0.1343
23942SOL    HW183805   5.213   5.644   1.754 -1.0027 -1.2585 -2.0356
23942SOL    HW283806   5.170   5.746   1.651 -1.3934  0.2234 -0.4629
23943SOL     OW83807   9.969  13.896   8.703  1.0593  0.2894  0.2250
23943SOL    HW183808   9.894  13.955   8.702 -0.7200 -1.8654 -0.4168
23943SOL    HW283809  10.044  13.954   8.718 -0.0979  3.2307 -3.5514
23944SOL     OW83810  11.788   5.153   4.567 -0.2601  0.4505 -0.2978
23944SOL    HW183811  11.765   5.071   4.524 -0.2481 -0.3182  1.0881
23944SOL    HW283812  11.706   5.202   4.572 -0.1211  0.8556 -1.7851
23945SOL     OW83813   5.765  12.865  13.807 -0.0638  0.0412 -0.3440
23945SOL    HW183814   5.784  12.823  13.723 -0.0156  0.7421 -0.6956
23945SOL    HW283815   5.751  12.793  13.868 -1.5001 -0.4897 -1.2633
23946SOL     OW83816  13.514   2.265   3.109  0.2681  0.1041 -0.2117
23946SOL    HW183817  13.595   2.229   3.145  0.3354  1.3934  1.0232
23946SOL    HW283818  13.489   2.334   3.171 -1.1730  0.4856 -1.1691
23947SOL     OW83819   5.037  12.535   3.558  0.3659 -0.1053  1.0084
23947SOL    HW183820   5.049  12.477   3.483 -1.3657  0.4088  0.2885
23947SOL    HW283821   4.942  12.546   3.565  0.5785  1.2709  2.1911
23948SOL     OW83822  12.962  13.793   4.834 -0.2056 -0.6586  0.3770
23948SOL    HW183823  12.981  13.726   4.899  0.3407  0.2385  1.1580
23948SOL    HW283824  12.945  13.872   4.885  0.4891  0.1282 -0.5769
23949SOL     OW83825  13.943   4.160   6.098  0.0407  0.1028  0.1729
23949SOL    HW183826  13.983   4.134   6.015 -0.1312 -1.0494  0.4320
23949SOL    HW283827  13.992   4.237   6.125  0.4851  0.1448 -0.7085
23950SOL     OW83828   0.226   9.580   0.348 -0.1352 -0.1035 -0.5664
23950SOL    HW183829   0.202   9.640   0.419 -0.6486 -0.4965 -0.3978
23950SOL    HW283830   0.278   9.633   0.288  0.4214  0.1984  0.1699
23951SOL     OW83831   5.075  11.897   3.700 -0.1122 -0.2008  0.1699
23951SOL    HW183832   4.993  11.867   3.738 -1.2048  0.7774 -1.3005
23951SOL    HW283833   5.053  11.918   3.609  1.9572 -0.6927 -0.5105
23952SOL     OW83834   3.893   4.187   5.408 -0.4311 -0.5162  0.7165
23952SOL    HW183835   3.886   4.092   5.399  0.5674 -0.6155  0.8410
23952SOL    HW283836   3.832   4.210   5.478 -0.1373 -1.1644  1.1900
23953SOL     OW83837   7.660  13.278   8.093  0.3700 -0.7932  0.5393
23953SOL    HW183838   7.622  13.237   8.171  1.3641  0.7193  1.8773
23953SOL    HW283839   7.585  13.317   8.048 -0.2828 -2.0852  0.4521
23954SOL     OW83840   0.280   2.509  11.129 -0.7706 -0.3492 -0.0655
23954SOL    HW183841   0.288   2.490  11.036 -2.0137  0.1123 -0.2920
23954SOL    HW283842   0.353   2.463  11.170  0.6053  0.5414 -1.4120
23955SOL     OW83843   4.071  11.178   4.888  0.1544 -0.2312 -0.5523
23955SOL    HW183844   3.981  11.146   4.884 -0.1377  0.2720  1.0677
23955SOL    HW283845   4.063  11.273   4.889  0.6208 -0.1832  0.4918
23956SOL     OW83846   7.292   8.899  13.376  0.1585 -0.6129  0.1047
23956SOL    HW183847   7.324   8.910  13.287 -0.3658 -1.1631 -0.1587
23956SOL    HW283848   7.197   8.907  13.369  0.2093  0.8774  0.8620
23957SOL     OW83849  13.373  12.755   4.339 -0.3226  0.7176 -0.9069
23957SOL    HW183850  13.328  12.710   4.410  0.1454  1.5710 -0.0392
23957SOL    HW283851  13.458  12.779   4.376  0.2081  0.5691 -1.9820
23958SOL     OW83852  12.926   7.792  11.666  0.1902  0.4952 -0.4990
23958SOL    HW183853  12.869   7.720  11.692 -1.6721  1.5625 -1.4063
23958SOL    HW283854  13.010   7.750  11.644 -0.4046 -1.1929  0.2987
23959SOL     OW83855   9.806   4.833   7.321 -0.2425 -0.2159  0.5698
23959SOL    HW183856   9.785   4.922   7.295 -1.0794  0.0677  2.1017
23959SOL    HW283857   9.866   4.801   7.254 -0.7758  1.1211 -0.5677
23960SOL     OW83858   9.285  10.340   1.908  0.2683  0.3674 -0.0237
23960SOL    HW183859   9.270  10.296   1.824  2.6091  0.2235 -0.4151
23960SOL    HW283860   9.197  10.366   1.936 -0.9984 -2.5771 -0.8342
23961SOL     OW83861   3.193   6.167   2.113  0.4549  0.0205 -0.7898
23961SOL    HW183862   3.163   6.247   2.157 -2.5425 -1.4702  0.0999
23961SOL    HW283863   3.269   6.139   2.165 -0.0905  0.8734  0.5174
23962SOL     OW83864   4.433   5.348   6.378 -0.0454 -0.2682  0.4339
23962SOL    HW183865   4.371   5.324   6.309  0.4215  0.3813 -0.2198
23962SOL    HW283866   4.491   5.272   6.386  1.3833  0.5231 -1.5733
23963SOL     OW83867   6.075  13.292  10.051  0.4270 -0.4614 -0.9144
23963SOL    HW183868   6.010  13.273   9.984  0.3763 -0.4738 -0.8620
23963SOL    HW283869   6.107  13.380  10.030  1.0010 -0.7901 -1.4335
23964SOL     OW83870  10.462   0.336   3.862  0.6892  0.0381 -0.4734
23964SOL    HW183871  10.431   0.298   3.944  1.6772  0.8695  0.3104
23964SOL    HW283872  10.556   0.350   3.875  0.4441  2.5061 -0.7588
23965SOL     OW83873   6.190  12.382  10.747 -0.0919 -0.4392 -0.0970
23965SOL    HW183874   6.225  12.334  10.672 -0.3395 -0.7386 -0.0247
23965SOL    HW283875   6.158  12.313  10.806  1.4107 -0.2941  0.9551
23966SOL     OW83876  10.609   5.945   2.498  0.2860 -0.1980  0.2659
23966SOL    HW183877  10.628   6.037   2.478 -2.2229  0.1778 -0.8016
23966SOL    HW283878  10.644   5.932   2.586  1.0635  1.6591  0.2796
23967SOL     OW83879  10.110   5.246  11.448 -0.3277 -0.2474 -0.3062
23967SOL    HW183880  10.035   5.231  11.392  0.4436 -1.8155 -0.9735
23967SOL    HW283881  10.115   5.168  11.503  0.6953 -0.0858 -0.1523
23968SOL     OW83882  10.117  11.912  12.192 -0.2571 -0.1924 -0.2812
23968SOL    HW183883  10.106  12.000  12.226  0.2687 -0.7829  1.5169
23968SOL    HW283884  10.142  11.924  12.100  0.3067  1.5258  0.0713
23969SOL     OW83885   8.449   7.972   4.983  0.6086  0.1618 -0.4329
23969SOL    HW183886   8.477   7.956   4.893  2.3020  2.5624 -0.4200
23969SOL    HW283887   8.490   8.055   5.007 -1.7231  0.8085  1.7702
23970SOL     OW83888  10.059   6.663   8.355  0.2947 -0.1603  0.0834
23970SOL    HW183889  10.074   6.757   8.360  1.7154 -0.3915  0.8012
23970SOL    HW283890  10.050   6.645   8.262  2.0319  0.4440 -0.2459
23971SOL     OW83891  10.912  10.114  10.795 -0.5269  0.2676  0.5203
23971SOL    HW183892  10.883  10.174  10.726  0.1421 -0.1525 -0.1347
23971SOL    HW283893  10.895  10.162  10.877  0.6535  1.6506  0.0020
23972SOL     OW83894   3.436   5.594  11.183 -0.2963  0.0748 -0.4170
23972SOL    HW183895   3.387   5.676  11.179  0.0977  0.3685  0.6139
23972SOL    HW283896   3.519   5.616  11.225 -0.0127 -0.7721 -0.4983
23973SOL     OW83897  13.595  13.468   8.681  0.2097 -0.1170 -0.0202
23973SOL    HW183898  13.560  13.473   8.593 -2.6720 -1.6168  0.8851
23973SOL    HW283899  13.578  13.377   8.708  1.5414  0.1293  1.8773
23974SOL     OW83900   8.231   7.320  12.576  0.2121 -0.1368 -0.2128
23974SOL    HW183901   8.312   7.361  12.546  0.3158 -0.6917 -0.7116
23974SOL    HW283902   8.260   7.242  12.625 -0.0046 -0.0424  0.0700
23975SOL     OW83903  11.296   8.613   0.157 -0.7162 -0.1993 -0.4951
23975SOL    HW183904  11.240   8.621   0.080 -0.7262  0.2414 -0.4408
23975SOL    HW283905  11.374   8.664   0.136  0.1908 -1.7133 -1.0330
23976SOL     OW83906   2.578   9.606   6.175  0.2336 -0.0120  0.4662
23976SOL    HW183907   2.644   9.571   6.115  0.3750  0.0989  0.5540
23976SOL    HW283908   2.624   9.676   6.222  0.2312 -0.3247  0.9509
23977SOL     OW83909   1.981   3.962   8.606 -0.3081  0.2688 -0.0435
23977SOL    HW183910   2.009   3.960   8.515  0.4615  0.6002  0.1834
23977SOL    HW283911   1.887   3.944   8.602 -0.0138 -1.2685 -0.7774
23978SOL     OW83912  10.100   2.533  12.138  0.2324  0.0254  0.7915
23978SOL    HW183913  10.135   2.569  12.220  0.7419  0.2580  0.4735
23978SOL    HW283914  10.116   2.601  12.073  0.6253 -0.5199  0.3126
23979SOL     OW83915  11.678  10.190   2.933 -0.1725  0.2595  0.4386
23979SOL    HW183916  11.638  10.230   3.010  0.9693  0.1032  1.1255
23979SOL    HW283917  11.764  10.231   2.927  0.6442 -1.3840  0.5963
23980SOL     OW83918   7.375   8.087  12.431 -0.1796 -0.2376  0.1717
23980SOL    HW183919   7.384   8.019  12.364  1.8922  1.2356 -1.1533
23980SOL    HW283920   7.445   8.068  12.494  0.9410  1.0497 -0.6319
23981SOL     OW83921   1.835   1.561   7.205 -0.0563  0.3831  0.0345
23981SOL    HW183922   1.874   1.576   7.119  0.7626 -3.7317 -0.5505
23981SOL    HW283923   1.746   1.596   7.198 -0.3263 -0.6343 -2.8797
23982SOL     OW83924   3.870  12.270  11.556  0.5077 -0.4637  0.6080
23982SOL    HW183925   3.945  12.210  11.559  0.7399 -0.1309  1.8708
23982SOL    HW283926   3.833  12.258  11.468  0.5369 -2.4626  0.8277
23983SOL     OW83927   2.523  12.640   1.347  0.0395  0.2139  0.4191
23983SOL    HW183928   2.570  12.722   1.333 -1.3552  0.6234 -2.6974
23983SOL    HW283929   2.434  12.666   1.370 -0.7727 -0.3167 -1.9009
23984SOL     OW83930   2.577   8.683   5.145 -0.0139  0.0897  0.1112
23984SOL    HW183931   2.642   8.674   5.075 -0.3852 -1.3061 -0.0767
23984SOL    HW283932   2.559   8.593   5.173 -2.0689  0.4029 -0.0374
23985SOL     OW83933  13.703  13.042  11.286 -0.1834  0.2630 -0.4934
23985SOL    HW183934  13.634  13.047  11.352 -0.0128  0.2165 -0.3087
23985SOL    HW283935  13.665  12.988  11.216  0.0931 -0.8192  0.1568
23986SOL     OW83936   5.879  12.939   0.005 -0.1742  0.2799 -0.0304
23986SOL    HW183937   5.855  12.908  -0.082 -0.3191  3.7783 -1.3913
23986SOL    HW283938   5.956  12.995  -0.010 -0.2918  1.0962  2.0726
23987SOL     OW83939  11.034   6.282   1.132 -0.4023 -0.1671 -0.3524
23987SOL    HW183940  11.109   6.289   1.191 -0.4617  1.2152 -0.4136
23987SOL    HW283941  10.996   6.370   1.130 -2.7848 -1.0882  0.6206
23988SOL     OW83942   0.070   4.171   4.119 -0.0694 -0.2291 -0.0493
23988SOL    HW183943   0.165   4.182   4.118 -0.2295  1.2906  0.0155
23988SOL    HW283944   0.055   4.096   4.176  1.1926 -1.7871 -1.6538
23989SOL     OW83945   3.370  12.687   7.541  0.2455  0.0739  0.9553
23989SOL    HW183946   3.389  12.768   7.588 -0.7177  0.5224  0.5973
23989SOL    HW283947   3.398  12.704   7.451  1.3269 -0.4915  1.1713
23990SOL     OW83948   3.336   7.870   1.196  0.3173 -0.2927  0.8290
23990SOL    HW183949   3.380   7.786   1.201  0.4327 -0.2111  1.2104
23990SOL    HW283950   3.246   7.849   1.172  0.4060 -0.5050  0.6819
23991SOL     OW83951   0.986  13.652  10.391 -0.3329  0.3147  0.1228
23991SOL    HW183952   1.007  13.731  10.342  0.3171  0.1715  0.1562
23991SOL    HW283953   1.013  13.671  10.481 -0.3845  0.1411  0.1762
23992SOL     OW83954   7.717   8.799  13.756  0.3024 -0.6378 -0.5523
23992SOL    HW183955   7.708   8.760  13.669  0.2497 -0.5467 -0.5879
23992SOL    HW283956   7.633   8.843  13.771  0.2798 -0.7279 -0.4181
23993SOL     OW83957  12.404   6.680  10.095 -0.0857  0.3993  0.0794
23993SOL    HW183958  12.443   6.749  10.042  1.1302 -0.1885  0.1635
23993SOL    HW283959  12.468   6.663  10.164 -1.1051  0.3155  1.0250
23994SOL     OW83960   3.221   0.093   4.778  0.5385 -0.2946  0.4370
23994SOL    HW183961   3.193   0.178   4.812  2.4623 -0.2209  2.0115
23994SOL    HW283962   3.177   0.029   4.834 -0.4930 -0.3783 -0.4182
23995SOL     OW83963  11.971   4.474  11.530  1.0264  0.4251  0.4676
23995SOL    HW183964  11.987   4.382  11.509 -1.1686  0.0510  0.1282
23995SOL    HW283965  12.016   4.523  11.460  1.6433 -0.4129  0.2650
23996SOL     OW83966   1.439   7.177   9.923  0.7950  0.5149  0.3351
23996SOL    HW183967   1.454   7.088   9.893  1.8367  0.2889  1.4543
23996SOL    HW283968   1.525   7.220   9.915  0.3692  1.3458  0.0653
23997SOL     OW83969   7.320   9.684   3.106 -0.1250  0.7083  0.1837
23997SOL    HW183970   7.286   9.774   3.106  0.2196  0.8403  0.2119
23997SOL    HW283971   7.415   9.695   3.101 -0.0324  0.3667  1.1377
23998SOL     OW83972   6.435   9.204   3.115  0.6603  0.2505 -0.2849
23998SOL    HW183973   6.449   9.148   3.192 -0.0448 -0.8768 -0.9584
23998SOL    HW283974   6.374   9.271   3.145  0.3533 -0.2087  0.1312
23999SOL     OW83975  10.412  13.043   0.604  0.4635 -0.0728  0.5763
23999SOL    HW183976  10.470  13.117   0.620  1.2678 -0.5807  0.0913
23999SOL    HW283977  10.370  13.026   0.689  0.2668  0.9255  0.6883
24000SOL     OW83978   6.729  13.261   2.878  0.2860 -0.5090  0.3119
24000SOL    HW183979   6.812  13.304   2.897  0.6892 -1.2860  0.3350
24000SOL    HW283980   6.753  13.175   2.843 -0.4681 -0.1126 -1.2966
24001SOL     OW83981   7.100  10.512   9.683  0.0834  0.1501  0.4788
24001SOL    HW183982   7.146  10.483   9.762 -4.3751 -2.9590  2.3661
24001SOL    HW283983   7.100  10.435   9.626 -2.5307 -0.0433  0.6019
24002SOL     OW83984   5.223  10.210   7.084  0.0249 -0.2255  0.0833
24002SOL    HW183985   5.280  10.134   7.097 -0.4778 -0.4762  0.8998
24002SOL    HW283986   5.280  10.276   7.045  0.6689 -0.7542  0.1097
24003SOL     OW83987   7.073   5.601   2.163 -0.3368 -0.6308  0.1433
24003SOL    HW183988   7.067   5.516   2.119  1.6984 -0.5342 -0.4021
24003SOL    HW283989   7.114   5.581   2.247  1.4077 -0.0668 -0.5324
24004SOL     OW83990   1.770   9.327   5.896 -0.0585  0.0399  0.3375
24004SOL    HW183991   1.837   9.262   5.918 -1.3486 -1.6776 -0.5171
24004SOL    HW283992   1.731   9.351   5.981  1.0873  0.4719  0.7567
24005SOL     OW83993   1.100   8.923   1.009  0.5065  0.4878 -0.1306
24005SOL    HW183994   1.184   8.931   1.054  0.0878  2.3311  0.4196
24005SOL    HW283995   1.046   8.871   1.068  0.9555  0.1045 -0.0469
24006SOL     OW83996   4.756   3.165   5.435 -0.1096  0.0248  0.0825
24006SOL    HW183997   4.728   3.098   5.372  1.6143  0.0634 -0.8059
24006SOL    HW283998   4.775   3.116   5.515  0.5655 -0.4841 -0.3777
24007SOL     OW83999  12.198   5.402   2.896  0.4757  0.4479  0.1748
24007SOL    HW184000  12.259   5.401   2.969 -0.6100 -1.6187  1.1598
24007SOL    HW284001  12.126   5.344   2.924 -0.8681  1.0504 -1.7882
24008SOL     OW84002   9.485   6.138   0.870  0.5007 -0.0550 -0.2210
24008SOL    HW184003   9.524   6.052   0.854 -0.9107 -0.7874  0.0669
24008SOL    HW284004   9.402   6.135   0.822  0.6320  1.3191 -0.5589
24009SOL     OW84005  12.816   3.948  10.445 -0.3411  0.0004 -0.1142
24009SOL    HW184006  12.779   3.904  10.369  0.7332  2.2400 -2.0374
24009SOL    HW284007  12.742   3.963  10.503 -1.5058 -0.2414 -1.4999
24010SOL     OW84008   2.433   8.518   5.612 -0.5461  0.1104  0.4297
24010SOL    HW184009   2.441   8.612   5.628  0.8634  0.0696  0.1093
24010SOL    HW284010   2.366   8.511   5.544  0.0028  0.9690 -0.2213
24011SOL     OW84011   6.304  11.764   0.630 -0.3574  0.0135  0.0273
24011SOL    HW184012   6.258  11.682   0.614  1.4699 -0.8263 -1.3206
24011SOL    HW284013   6.286  11.784   0.722 -2.0023 -1.1156 -0.0101
24012SOL     OW84014   3.393   1.944   0.816  0.1191  0.0166 -0.2058
24012SOL    HW184015   3.446   2.016   0.782  1.0592  0.0081  1.1569
24012SOL    HW284016   3.337   1.985   0.882  0.4289 -0.4288  0.3425
24013SOL     OW84017  11.428  13.210  13.574  0.3240 -0.1093  0.8316
24013SOL    HW184018  11.339  13.240  13.552 -0.0750 -1.0271  1.1365
24013SOL    HW284019  11.417  13.161  13.655  1.0493 -0.5800  0.6544
24014SOL     OW84020   6.116   9.651  11.934  0.0634 -0.2270  0.1216
24014SOL    HW184021   6.166   9.609  12.003  1.6897 -0.7683 -1.3105
24014SOL    HW284022   6.037   9.598  11.926  0.8193 -1.4070  0.2107
24015SOL     OW84023   0.711  10.596   7.941 -0.6509  0.1030  0.7284
24015SOL    HW184024   0.791  10.555   7.974 -1.1682 -0.9946  0.6595
24015SOL    HW284025   0.642  10.534   7.964 -1.0174 -0.9889 -2.7478
24016SOL     OW84026  13.453   3.867  13.311  0.1172 -0.1462  0.3995
24016SOL    HW184027  13.533   3.845  13.263  0.1271  0.5178  0.0975
24016SOL    HW284028  13.384   3.817  13.267  0.1028  0.5711 -0.4105
24017SOL     OW84029   1.605   6.562  12.850  0.2467  0.1140  0.1271
24017SOL    HW184030   1.644   6.646  12.823 -0.1372  0.0546 -0.6270
24017SOL    HW284031   1.552   6.535  12.775 -2.0257  0.6396  1.4718
24018SOL     OW84032   5.347  11.781   1.845  0.2549  0.0741 -0.3529
24018SOL    HW184033   5.441  11.797   1.830  0.1547 -0.4732 -1.6529
24018SOL    HW284034   5.320  11.725   1.773 -1.4556  1.5613 -0.9403
24019SOL     OW84035   5.346   8.887   0.286  0.4097  0.2998 -0.2610
24019SOL    HW184036   5.418   8.874   0.348  0.6348 -0.3559 -0.6485
24019SOL    HW284037   5.346   8.808   0.232 -1.0190 -0.0170  0.1508
24020SOL     OW84038  12.537   7.983   7.342  0.0565  0.0436 -0.1127
24020SOL    HW184039  12.549   7.907   7.399  0.9896 -0.1054 -0.4824
24020SOL    HW284040  12.604   8.045   7.370 -0.8753  0.8564  0.3659
24021SOL     OW84041   8.868  10.223   1.398  0.2783  0.0122  0.1927
24021SOL    HW184042   8.857  10.317   1.384  0.7642  0.1406  0.6378
24021SOL    HW284043   8.811  10.182   1.333 -2.1427  0.6326  1.8171
24022SOL     OW84044   0.977  11.616  13.173  0.1917  0.5534 -0.2433
24022SOL    HW184045   1.005  11.665  13.250  1.1333 -0.9159  0.3859
24022SOL    HW284046   1.046  11.630  13.108  0.2405  0.4107 -0.2220
24023SOL     OW84047   8.564   7.357   1.289  0.2518  0.0570 -0.1435
24023SOL    HW184048   8.588   7.297   1.361  0.2044 -1.1140 -1.0718
24023SOL    HW284049   8.647   7.373   1.244  0.4644  1.5954  0.7241
24024SOL     OW84050   0.585   0.495   5.342 -0.5731  0.2460 -0.1331
24024SOL    HW184051   0.611   0.413   5.384  0.0798  0.3414 -0.3316
24024SOL    HW284052   0.645   0.561   5.378  1.2079  0.0326 -2.4218
24025SOL     OW84053  10.162   4.150   6.645 -0.1749 -0.2826  0.3687
24025SOL    HW184054  10.201   4.093   6.711 -0.4815 -0.9989 -0.0448
24025SOL    HW284055  10.097   4.094   6.602 -0.8716  0.5509  0.3171
24026SOL     OW84056   4.512   1.013   5.518 -0.2171  0.6237  0.0306
24026SOL    HW184057   4.470   1.017   5.432 -0.1016  0.1181 -0.0550
24026SOL    HW284058   4.440   1.028   5.580 -0.6104 -0.5942 -0.1050
24027SOL     OW84059   0.702   8.197  10.807  0.3208  0.0326  0.1053
24027SOL    HW184060   0.717   8.140  10.883  2.1617 -1.1724 -1.0864
24027SOL    HW284061   0.676   8.138  10.737 -3.0525  1.3170  0.1060
24028SOL     OW84062   8.826  10.446   1.067  0.5953 -0.4891  0.4366
24028SOL    HW184063   8.851  10.490   1.148  2.1428 -0.8440  0.1754
24028SOL    HW284064   8.740  10.408   1.087  0.3768  0.4728  1.4832
24029SOL     OW84065   3.194  12.254  12.114 -0.2013 -0.3516  0.8436
24029SOL    HW184066   3.100  12.248  12.095 -0.0970  0.7313 -0.1532
24029SOL    HW284067   3.229  12.310  12.045  1.1690 -0.6279  1.2735
24030SOL     OW84068  12.984   6.716   4.037 -0.0371  0.3513 -0.5220
24030SOL    HW184069  13.071   6.676   4.041 -0.5137 -0.6603  0.2834
24030SOL    HW284070  12.973   6.758   4.123 -1.3464 -1.7843  0.4367
24031SOL     OW84071   9.321   9.494   8.109  0.4302  0.0821  0.4966
24031SOL    HW184072   9.232   9.461   8.112 -0.2821  1.9309  1.2807
24031SOL    HW284073   9.347   9.501   8.201  0.8587  0.8525  0.3246
24032SOL     OW84074   0.731  12.649   2.725  0.4484 -0.6591  0.0418
24032SOL    HW184075   0.637  12.654   2.704 -0.0019 -0.6308  1.9496
24032SOL    HW284076   0.774  12.663   2.640 -1.2486 -0.2811 -0.8175
24033SOL     OW84077  13.183   4.017  11.429  0.7922  0.5092  0.6599
24033SOL    HW184078  13.097   4.057  11.439  1.2636  1.7716 -0.0933
24033SOL    HW284079  13.245   4.088  11.447  1.6657 -0.0433 -0.0580
24034SOL     OW84080   1.296  11.289   2.837 -0.5209  0.8964 -0.6042
24034SOL    HW184081   1.338  11.331   2.763  0.3298  2.2018  0.5697
24034SOL    HW284082   1.333  11.332   2.914 -2.8671  1.0380  0.5352
24035SOL     OW84083   4.475   3.676  10.567  0.3664  0.0019 -0.4548
24035SOL    HW184084   4.559   3.630  10.565  0.5721  0.3908 -1.2093
24035SOL    HW284085   4.428   3.643  10.491  0.7431  1.4173 -1.3460
24036SOL     OW84086  11.602  11.454   0.497 -0.3779 -0.2752 -0.7474
24036SOL    HW184087  11.551  11.410   0.429  0.0431 -0.2410 -1.0913
24036SOL    HW284088  11.680  11.487   0.452 -0.9183  1.2748 -0.6032
24037SOL     OW84089  13.224   7.244   2.598  0.1726 -0.2636  0.7740
24037SOL    HW184090  13.285   7.179   2.562 -0.9562 -0.9115 -0.0571
24037SOL    HW284091  13.216   7.309   2.528  1.8846  1.2334  1.8979
24038SOL     OW84092  11.482   6.305   9.998 -0.7308 -0.8946 -0.3675
24038SOL    HW184093  11.474   6.400   9.993 -0.3001 -0.7595  1.0558
24038SOL    HW284094  11.576   6.288   9.996 -0.3914 -0.8514  4.1176
24039SOL     OW84095   4.853   9.156   2.386  0.1954 -0.4175  0.2898
24039SOL    HW184096   4.828   9.208   2.310  2.4103  1.0393  0.4767
24039SOL    HW284097   4.772   9.149   2.437 -0.6464  1.1271 -0.7242
24040SOL     OW84098   2.112   6.771  13.488  0.3738  0.2860  0.0949
24040SOL    HW184099   2.058   6.700  13.456  1.6960 -0.5485 -0.3725
24040SOL    HW284100   2.051   6.831  13.531 -1.1443  0.2628 -1.8939
24041SOL     OW84101   6.230  10.567  11.709 -0.3681 -0.0288 -0.1768
24041SOL    HW184102   6.300  10.583  11.773  0.6731  1.3538 -1.5931
24041SOL    HW284103   6.210  10.653  11.673 -0.3824 -0.8543 -2.2688
24042SOL     OW84104   4.037   0.516   8.131 -0.1186  0.0880 -0.2248
24042SOL    HW184105   4.123   0.513   8.087  0.1570  2.6146  0.0233
24042SOL    HW284106   3.988   0.582   8.082 -1.5221 -0.4871  0.3788
24043SOL     OW84107   4.052   8.375  10.238 -0.6266 -0.7749  0.2290
24043SOL    HW184108   4.124   8.312  10.233 -0.9074 -1.2005  1.2269
24043SOL    HW284109   4.016   8.363  10.326 -1.3643  0.0428  0.0547
24044SOL     OW84110   2.614   3.501   2.666  0.1960  0.5904 -0.1399
24044SOL    HW184111   2.624   3.501   2.570 -0.7094 -0.8725 -0.2514
24044SOL    HW284112   2.632   3.592   2.691  3.5090  0.4030 -1.3367
24045SOL     OW84113   1.532  12.863   9.164  0.6069  0.4909  0.1158
24045SOL    HW184114   1.483  12.914   9.099  2.8263  0.6658 -1.5391
24045SOL    HW284115   1.466  12.807   9.205 -1.2899  2.0988 -0.5652
24046SOL     OW84116  13.008   9.033   8.674  0.1544 -0.5533 -0.0291
24046SOL    HW184117  13.019   8.943   8.645 -1.2373 -0.7058 -0.1734
24046SOL    HW284118  12.938   9.068   8.618 -0.2667  0.1834  0.9102
24047SOL     OW84119   1.355  10.495   6.181  0.2235  0.1541 -0.4336
24047SOL    HW184120   1.302  10.417   6.195  0.3673 -0.0035 -0.7546
24047SOL    HW284121   1.315  10.538   6.105  1.2648 -0.5975 -1.4441
24048SOL     OW84122   7.464   1.683  11.954  0.1770 -0.3276 -0.2222
24048SOL    HW184123   7.447   1.592  11.980 -1.1682 -0.4824 -1.5009
24048SOL    HW284124   7.559   1.693  11.964  0.2826 -1.7292  0.3961
24049SOL     OW84125   1.954   0.537   3.427  0.0560  0.0481  0.9074
24049SOL    HW184126   1.970   0.508   3.337 -2.5066  0.0331  0.3681
24049SOL    HW284127   1.966   0.459   3.481 -0.5297 -0.4892  0.2747
24050SOL     OW84128   4.312  11.342   0.381 -0.0999 -0.2126  0.7035
24050SOL    HW184129   4.285  11.308   0.466  0.3383 -0.8196  0.6081
24050SOL    HW284130   4.407  11.356   0.391 -0.2630  0.9414  0.7264
24051SOL     OW84131   0.458   7.288   6.723  0.6063 -0.1065 -0.3571
24051SOL    HW184132   0.398   7.356   6.751  0.6377 -0.3223  0.2432
24051SOL    HW284133   0.419   7.253   6.642  1.0786  1.2520 -1.2043
24052SOL     OW84134   9.775   2.452   7.340 -1.3057 -0.0917 -0.1516
24052SOL    HW184135   9.866   2.449   7.370  0.1187  1.9360 -3.6878
24052SOL    HW284136   9.728   2.500   7.409  1.0563  1.7792  0.2752
24053SOL     OW84137  11.443  12.133   3.699  0.0988  0.5340 -0.3855
24053SOL    HW184138  11.357  12.121   3.658 -0.5714  0.0895  1.0562
24053SOL    HW284139  11.499  12.166   3.629 -0.8725 -0.5474 -1.7288
24054SOL     OW84140   0.093   0.991   8.975  0.1408 -0.0246 -0.0045
24054SOL    HW184141   0.124   0.926   8.912 -0.2503  1.0267 -1.3400
24054SOL    HW284142   0.005   0.963   8.998 -0.0370  0.0429 -0.5929
24055SOL     OW84143   2.774   3.740   6.538 -0.0619 -0.2422  1.1303
24055SOL    HW184144   2.810   3.727   6.451  0.4263 -0.1599  1.3188
24055SOL    HW284145   2.771   3.652   6.576  0.3817 -0.1898  1.2871
24056SOL     OW84146  12.382   7.000  12.291 -0.1475  0.2996  0.5524
24056SOL    HW184147  12.339   7.056  12.355 -0.3284  1.5501 -0.6316
24056SOL    HW284148  12.474   7.027  12.293 -0.1513  0.3368  0.3063
24057SOL     OW84149   4.774  10.057  12.567 -0.2312  0.5809 -0.3766
24057SOL    HW184150   4.835  10.000  12.615 -0.7729  0.4306  0.1564
24057SOL    HW284151   4.793  10.040  12.475 -2.0596 -2.4523 -0.3520
24058SOL     OW84152  10.535   0.781  14.005 -0.2728  0.0092 -0.0104
24058SOL    HW184153  10.595   0.730  13.951  0.4774 -0.5540  1.2986
24058SOL    HW284154  10.499   0.847  13.946 -0.8808 -1.6954 -1.6221
24059SOL     OW84155  13.013  11.627  12.076  0.6217 -0.4083 -0.8225
24059SOL    HW184156  12.997  11.664  12.162 -1.2862 -1.6658 -0.5715
24059SOL    HW284157  13.102  11.591  12.081  0.5980 -0.3067  0.5452
24060SOL     OW84158  10.964   1.948   6.012  0.0580  0.1254 -0.1983
24060SOL    HW184159  10.967   2.036   5.974 -2.8145  0.0690 -0.8070
24060SOL    HW284160  10.964   1.890   5.936  1.0652 -0.3891  0.1782
24061SOL     OW84161   8.859   2.695   1.138  0.1495  0.3348 -0.4217
24061SOL    HW184162   8.852   2.681   1.232 -0.2531 -0.9498 -0.6101
24061SOL    HW284163   8.942   2.654   1.114 -1.0042 -1.8730 -0.9826
24062SOL     OW84164   8.943   8.228   7.062  0.3437  0.3378 -0.4444
24062SOL    HW184165   8.955   8.190   6.975  0.4025  2.3706 -1.3761
24062SOL    HW284166   9.017   8.289   7.072  0.8158 -0.4596  1.4026
24063SOL     OW84167   6.859   1.377   9.297 -0.0775  0.4048 -0.5475
24063SOL    HW184168   6.882   1.338   9.381  0.3585 -1.1720 -1.3658
24063SOL    HW284169   6.794   1.444   9.319 -1.8842 -1.6495  0.8099
24064SOL     OW84170   0.184   1.867   7.424 -0.3758  0.1476  0.3635
24064SOL    HW184171   0.095   1.902   7.431 -0.8403 -0.4345 -1.7593
24064SOL    HW284172   0.190   1.837   7.333  2.0722  0.3422  0.4075
24065SOL     OW84173  11.461   7.947   9.198  0.0009  0.2007 -0.3575
24065SOL    HW184174  11.518   7.979   9.128  0.8265  0.9975  0.6493
24065SOL    HW284175  11.518   7.941   9.274 -1.2305  0.9247  0.6595
24066SOL     OW84176  12.419   7.963   2.585  0.0471  0.0307 -0.2927
24066SOL    HW184177  12.462   8.009   2.657  2.0581 -0.7163 -0.9585
24066SOL    HW284178  12.490   7.919   2.538 -1.1084  0.9183 -3.0664
24067SOL     OW84179   5.067   1.709   5.069  0.0951 -0.1778  0.0676
24067SOL    HW184180   5.118   1.753   5.001 -0.0971 -0.6316 -0.3801
24067SOL    HW284181   5.116   1.725   5.150  1.0681 -0.7569 -0.3789
24068SOL     OW84182   4.422   3.947   4.024  0.1914  0.1783  0.3465
24068SOL    HW184183   4.449   3.885   4.092  1.1593  0.2080 -0.0061
24068SOL    HW284184   4.502   3.967   3.976 -0.6313 -0.4708 -1.3398
24069SOL     OW84185   7.385   6.599  12.012 -0.0936 -0.4717  0.0539
24069SOL    HW184186   7.427   6.600  12.098 -1.1724 -0.6517  0.5954
24069SOL    HW284187   7.447   6.645  11.955  0.1133  0.7235  1.1844
24070SOL     OW84188  12.191  13.304  13.064 -0.0491 -0.3006  0.0631
24070SOL    HW184189  12.167  13.273  13.151 -1.3477  1.6051  0.4545
24070SOL    HW284190  12.118  13.277  13.008 -0.1466  0.1289 -0.0244
24071SOL     OW84191   9.616   0.538  10.488  0.5494 -0.5711 -0.6534
24071SOL    HW184192   9.653   0.627  10.487  1.9951 -1.1350 -0.2089
24071SOL    HW284193   9.598   0.520  10.395  0.0158  0.2668 -0.7247
24072SOL     OW84194  12.375   0.051   5.667 -0.0616 -0.2922 -0.0603
24072SOL    HW184195  12.336  -0.035   5.678  0.3715 -0.2930  1.8370
24072SOL    HW284196  12.311   0.112   5.703  1.0101 -0.1726  1.7701
24073SOL     OW84197   6.321   8.241   4.010  0.1248 -0.5558 -0.1430
24073SOL    HW184198   6.377   8.317   3.995  0.6156 -0.8968 -0.0972
24073SOL    HW284199   6.372   8.186   4.070 -0.3624 -0.7686  0.0801
24074SOL     OW84200   1.851   0.941   8.502  0.0809 -0.1039  0.1179
24074SOL    HW184201   1.871   1.032   8.523 -0.6132  0.0690  0.0408
24074SOL    HW284202   1.757   0.940   8.483  0.1303 -0.7892 -0.1289
24075SOL     OW84203   4.132  10.746   7.136  0.0157 -0.0729  0.5793
24075SOL    HW184204   4.078  10.822   7.113 -0.8858 -0.7192  0.4615
24075SOL    HW284205   4.222  10.775   7.125 -0.3005  1.1706  1.1897
24076SOL     OW84206   1.455   5.170   1.818  0.2178  0.4706  0.5557
24076SOL    HW184207   1.518   5.239   1.838  1.7827 -0.6627 -0.3014
24076SOL    HW284208   1.507   5.100   1.780 -1.4375 -0.9161  0.7376
24077SOL     OW84209   0.497   3.531   8.487  0.0468  0.1122  0.0841
24077SOL    HW184210   0.508   3.610   8.540 -1.6336  0.4566 -0.0189
24077SOL    HW284211   0.460   3.467   8.548 -1.4597  0.3695 -0.5045
24078SOL     OW84212   3.359   9.625  11.965 -0.2287 -0.0648 -0.4123
24078SOL    HW184213   3.297   9.656  11.900 -1.6507 -1.1621  0.3716
24078SOL    HW284214   3.411   9.558  11.919 -1.0066 -0.6018 -0.5247
24079SOL     OW84215   0.064  13.186  10.647  0.5866  0.1045 -0.1905
24079SOL    HW184216   0.026  13.186  10.735 -2.1027  0.5441 -1.2380
24079SOL    HW284217   0.077  13.093  10.626  0.2717 -0.0536  0.3084
24080SOL     OW84218   7.538   6.171   0.422 -0.2636  0.0415 -0.3121
24080SOL    HW184219   7.469   6.236   0.436  1.1474  1.7784 -0.9087
24080SOL    HW284220   7.575   6.194   0.337  0.2731 -1.5937 -0.5478
24081SOL     OW84221   5.835  10.000   5.577  0.3791  0.5455  0.2450
24081SOL    HW184222   5.800   9.997   5.488  0.9265  0.7560  0.0171
24081SOL    HW284223   5.767  10.045   5.628  0.2202  0.7576 -0.1451
24082SOL     OW84224   5.857   2.055   2.226 -0.6101  0.2254  0.6458
24082SOL    HW184225   5.790   2.107   2.181 -0.8884 -1.7152 -1.3221
24082SOL    HW284226   5.939   2.098   2.204 -0.8839  0.2042 -0.4819
24083SOL     OW84227   0.179   2.602   8.731  0.4228 -0.5850 -0.1281
24083SOL    HW184228   0.252   2.542   8.720  0.7700 -0.3177  0.6421
24083SOL    HW284229   0.194   2.642   8.816  0.1571  0.5342 -0.5910
24084SOL     OW84230  13.684  11.108  11.211  0.9927 -0.0470 -0.3596
24084SOL    HW184231  13.666  11.189  11.258  0.5457 -0.5012  0.2592
24084SOL    HW284232  13.605  11.092  11.159  0.3708 -0.9741  0.8198
24085SOL     OW84233   9.457   8.244   1.171  0.1687 -0.1282  0.6324
24085SOL    HW184234   9.475   8.300   1.095  0.4264 -1.4636 -0.3347
24085SOL    HW284235   9.365   8.218   1.159  0.2787 -0.5242  0.6414
24086SOL     OW84236   7.361   7.198  13.652 -0.2180 -0.0726 -0.1461
24086SOL    HW184237   7.315   7.261  13.596 -1.7275 -0.7120  0.3198
24086SOL    HW284238   7.416   7.252  13.709 -1.4831  0.8371  0.2575
24087SOL     OW84239   4.504   4.115   7.949  0.1552  0.5208 -0.4731
24087SOL    HW184240   4.501   4.020   7.950 -0.5298  0.5365 -0.2013
24087SOL    HW284241   4.433   4.140   7.889  1.1363  0.8452 -1.5502
24088SOL     OW84242  12.163   2.393   5.634  0.5676  0.2717 -0.4855
24088SOL    HW184243  12.189   2.485   5.628  1.4163 -0.0246 -1.6118
24088SOL    HW284244  12.168   2.373   5.728 -0.5796  1.6174 -0.0915
24089SOL     OW84245   5.794   6.959   2.107 -0.3452 -0.2538  0.2018
24089SOL    HW184246   5.750   7.022   2.165 -1.1659 -0.8646  0.2584
24089SOL    HW284247   5.814   6.884   2.164  0.4352 -0.1478  0.0853
24090SOL     OW84248  12.898   0.033   9.911 -0.5595  0.3087 -0.0278
24090SOL    HW184249  12.807   0.057   9.898 -0.5039  0.1343 -0.7894
24090SOL    HW284250  12.924   0.077   9.992 -1.3547  0.2434  0.2659
24091SOL     OW84251   5.505   8.587   1.070 -0.1587 -0.4809 -0.2397
24091SOL    HW184252   5.443   8.660   1.076 -0.0715 -0.4614  0.7095
24091SOL    HW284253   5.478   8.527   1.140  1.6851  0.1556  1.0947
24092SOL     OW84254   3.121  12.944   9.709 -0.1298 -0.0595  0.5490
24092SOL    HW184255   3.028  12.953   9.686  0.1562 -0.5630 -0.9170
24092SOL    HW284256   3.122  12.879   9.779 -0.8999  0.0519  0.6776
24093SOL     OW84257   7.801  12.251   4.995 -0.0911  0.2855  0.0930
24093SOL    HW184258   7.708  12.249   4.970 -0.2839 -1.4259  0.7863
24093SOL    HW284259   7.840  12.316   4.937 -1.2905 -0.5526 -1.7717
24094SOL     OW84260   4.330   0.862  13.838 -0.2466 -0.2343  0.6265
24094SOL    HW184261   4.297   0.772  13.835 -0.8201  0.0123 -0.6607
24094SOL    HW284262   4.255   0.917  13.819  0.5903  0.3983 -1.0294
24095SOL     OW84263  11.828  11.446   5.782 -0.4907 -0.4858 -0.6568
24095SOL    HW184264  11.833  11.368   5.726  1.5202 -0.2973 -0.7883
24095SOL    HW284265  11.911  11.448   5.829  0.3483  2.5293 -1.9892
24096SOL     OW84266   7.638   9.608   5.614 -0.5503 -0.6040  0.1183
24096SOL    HW184267   7.576   9.668   5.571  0.9430  0.9225 -0.0329
24096SOL    HW284268   7.654   9.540   5.549 -1.0316 -0.2705 -0.3652
24097SOL     OW84269  12.428   7.401   5.024 -0.2346  0.3416  0.7450
24097SOL    HW184270  12.334   7.402   5.003 -0.2189 -0.2743  0.6547
24097SOL    HW284271  12.466   7.466   4.965 -0.0973 -1.7343 -1.6057
24098SOL     OW84272   3.647  12.116  12.844 -0.2971  0.1313 -0.9696
24098SOL    HW184273   3.669  12.023  12.843 -0.3770  0.1188 -1.9532
24098SOL    HW284274   3.731  12.161  12.842 -0.1761  0.1189  1.0490
24099SOL     OW84275   5.840  11.174  10.539 -0.3289  0.1875 -0.1626
24099SOL    HW184276   5.772  11.128  10.489  0.9799  0.1010 -1.9827
24099SOL    HW284277   5.804  11.261  10.554 -1.2810 -0.2046 -0.1000
24100SOL     OW84278   8.557   6.138  10.308  0.0724  0.3305 -0.1130
24100SOL    HW184279   8.568   6.169  10.219 -0.9371  1.0117 -0.0057
24100SOL    HW284280   8.491   6.195  10.346  0.5385  0.0982  1.0995
24101SOL     OW84281  13.347   2.156  11.447  0.1645  0.3542 -0.4888
24101SOL    HW184282  13.333   2.229  11.387 -2.1837  0.3123 -0.0755
24101SOL    HW284283  13.304   2.081  11.404  0.5536 -0.2467  0.1445
24102SOL     OW84284   8.357   7.849  11.184  0.3096 -0.2123  0.6807
24102SOL    HW184285   8.348   7.930  11.235 -1.3357  0.2053 -0.2051
24102SOL    HW284286   8.278   7.799  11.204 -0.3959 -0.0341 -1.3851
24103SOL     OW84287   5.935   3.101   1.773 -0.0160  0.6043  0.1563
24103SOL    HW184288   5.870   3.140   1.714  0.0145  0.3828 -0.0253
24103SOL    HW284289   6.019   3.130   1.738  0.0170  0.1687 -0.1303
24104SOL     OW84290   1.941  13.933   0.596 -0.3938 -0.0003 -0.1478
24104SOL    HW184291   1.852  13.956   0.572 -0.2879 -0.6662 -1.2372
24104SOL    HW284292   1.931  13.860   0.657 -0.5864 -1.2974 -1.6647
24105SOL     OW84293   5.771   9.771  11.788  0.6449  0.2890  0.4007
24105SOL    HW184294   5.783   9.686  11.746  0.8221  0.8427 -0.6928
24105SOL    HW284295   5.676   9.779  11.800  0.1386  1.5528 -3.1019
24106SOL     OW84296   8.855   1.577   3.321 -0.0876 -0.4704  0.1496
24106SOL    HW184297   8.928   1.617   3.369 -0.6891  1.5113 -0.5049
24106SOL    HW284298   8.896   1.508   3.269  1.0610 -0.4695  1.0058
24107SOL     OW84299   8.804   7.825  10.725  0.1202 -0.1613 -0.6225
24107SOL    HW184300   8.832   7.770  10.652 -0.8585  0.9009 -1.8249
24107SOL    HW284301   8.734   7.880  10.690  0.5363  1.3367  0.7236
24108SOL     OW84302   7.080   0.102  13.650 -0.3582 -0.6633  0.0372
24108SOL    HW184303   7.171   0.107  13.620  0.1874  0.6835  1.7402
24108SOL    HW284304   7.031   0.157  13.589  0.0029 -1.1242 -0.6864
24109SOL     OW84305  10.242   7.985   8.429  0.1967  0.0936 -0.0480
24109SOL    HW184306  10.229   7.891   8.419 -0.4632  0.1333  0.3999
24109SOL    HW284307  10.157   8.024   8.406  0.7516  0.6600 -1.2531
24110SOL     OW84308   7.453   7.219   2.015 -0.1360  0.0350 -0.0588
24110SOL    HW184309   7.489   7.218   1.927  1.6701 -0.7903  0.6246
24110SOL    HW284310   7.494   7.295   2.057  2.6785 -2.0803  1.3664
24111SOL     OW84311  11.141  13.038   2.475 -0.1513 -0.3239 -0.1000
24111SOL    HW184312  11.104  13.043   2.386 -0.4791  0.1299  0.0543
24111SOL    HW284313  11.228  13.001   2.463  1.7644  3.9516 -1.2317
24112SOL     OW84314  10.842   4.663   1.332 -0.1761 -0.1703  0.6810
24112SOL    HW184315  10.837   4.758   1.322 -1.3975 -0.1509  1.3005
24112SOL    HW284316  10.931   4.641   1.305  0.4232  1.2543  1.3735
24113SOL     OW84317   2.413  11.758  10.537 -0.4272 -0.3617 -0.0582
24113SOL    HW184318   2.493  11.782  10.490 -0.4890  1.7557  0.8010
24113SOL    HW284319   2.357  11.718  10.470  0.3685  0.4813 -1.2723
24114SOL     OW84320   6.905   7.737   7.119  0.0223  0.3611 -0.1828
24114SOL    HW184321   6.816   7.722   7.149 -0.2533 -0.1499 -1.2086
24114SOL    HW284322   6.897   7.810   7.057  0.0341 -0.6961 -1.4884
24115SOL     OW84323   0.076   0.316   3.655 -0.4623 -0.3252 -0.1319
24115SOL    HW184324   0.094   0.389   3.714  0.7056  0.6757 -1.6612
24115SOL    HW284325  -0.009   0.338   3.616 -0.5475 -0.2556  0.0888
24116SOL     OW84326   6.596   1.311   9.135 -0.7334  0.1486  0.2830
24116SOL    HW184327   6.650   1.362   9.195  2.4325 -1.2534 -1.1183
24116SOL    HW284328   6.573   1.373   9.066  0.2075  0.5136  0.2778
24117SOL     OW84329   4.719   3.374   9.989  0.5155  0.1416 -0.4296
24117SOL    HW184330   4.767   3.293   9.975  0.4135 -0.3096  1.5018
24117SOL    HW284331   4.787   3.442   9.992  1.1449 -0.4860  2.2456
24118SOL     OW84332   5.302  14.046   4.227 -0.4976 -0.3661  0.3608
24118SOL    HW184333   5.286  14.028   4.320 -1.7358  1.9430  0.6451
24118SOL    HW284334   5.232  14.000   4.181 -0.4460 -0.7287  0.6398
24119SOL     OW84335   8.663   5.975  10.064  0.6091  0.0146 -0.7246
24119SOL    HW184336   8.667   5.918   9.987  0.2127  1.0028 -1.4973
24119SOL    HW284337   8.569   5.980  10.085  0.5457  1.0444 -1.1864
24120SOL     OW84338   0.975  12.982  13.120  0.5573  0.0479 -0.0475
24120SOL    HW184339   0.961  12.891  13.143  0.3694  0.5150  1.8764
24120SOL    HW284340   0.903  13.004  13.061 -0.1356 -0.7021  0.5050
24121SOL     OW84341   8.597   1.587   3.087  0.3172  0.4024 -0.3628
24121SOL    HW184342   8.609   1.506   3.136  0.3597  0.4197 -0.3443
24121SOL    HW284343   8.562   1.559   3.003 -2.0614  0.5515  0.5067
24122SOL     OW84344   5.626   3.241   5.188 -0.2095 -0.4382  0.0813
24122SOL    HW184345   5.701   3.280   5.144 -0.5450  0.3704  0.2081
24122SOL    HW284346   5.652   3.151   5.205  0.7430 -0.1551  0.1534
24123SOL     OW84347   2.027   4.801   4.073  0.2765  0.8049  0.8085
24123SOL    HW184348   2.067   4.760   3.996 -0.2284  0.7313  0.5834
24123SOL    HW284349   1.939   4.825   4.045  0.0019  0.5589  1.4383
24124SOL     OW84350   5.864   3.472  10.582 -0.0609  0.4821 -0.0813
24124SOL    HW184351   5.923   3.545  10.561 -0.4278  0.3247 -1.8044
24124SOL    HW284352   5.905   3.396  10.541 -0.2723 -0.0656  0.7181
24125SOL     OW84353   1.885   8.383  10.528  0.2198 -0.0337 -0.2498
24125SOL    HW184354   1.974   8.403  10.501 -0.3547  1.1008 -1.4303
24125SOL    HW284355   1.853   8.320  10.464 -0.0690  0.1664 -0.3110
24126SOL     OW84356  10.870  10.780   8.747 -0.6378 -0.2949 -0.3670
24126SOL    HW184357  10.807  10.833   8.795 -0.1929 -0.3683  0.3080
24126SOL    HW284358  10.833  10.692   8.749 -1.1079 -0.1214 -1.0212
24127SOL     OW84359   5.759   6.368   8.991 -0.3217 -0.6075  0.0122
24127SOL    HW184360   5.824   6.376   9.060 -1.4751 -1.8924  1.3106
24127SOL    HW284361   5.808   6.383   8.910  0.9657  1.4887  1.0822
24128SOL     OW84362   7.937   3.229  10.146 -0.2296  0.1756  0.5368
24128SOL    HW184363   7.852   3.264  10.120 -0.1580  0.2185  0.3589
24128SOL    HW284364   7.939   3.140  10.109 -0.4053 -0.0138  0.9728
24129SOL     OW84365   0.967   0.681   2.515  0.2141 -0.4909 -0.3033
24129SOL    HW184366   0.983   0.618   2.445 -1.8674 -0.7375 -0.6120
24129SOL    HW284367   1.008   0.762   2.485  1.8054 -1.3192 -0.4753
24130SOL     OW84368   1.370  12.061   6.927  0.3361  0.4023 -0.2903
24130SOL    HW184369   1.420  12.056   7.008 -2.4538  0.0933  1.5439
24130SOL    HW284370   1.430  12.032   6.859  2.6080  0.1258  1.7329
24131SOL     OW84371   6.129   1.151   7.152 -0.0988  0.4363  0.0060
24131SOL    HW184372   6.175   1.174   7.071  0.3166 -0.7458 -0.1233
24131SOL    HW284373   6.167   1.066   7.177 -0.2849  0.7444  1.3949
24132SOL     OW84374   2.853  11.876   5.324  0.9738 -0.1406 -0.1766
24132SOL    HW184375   2.817  11.808   5.267 -0.5473  0.3907  0.0991
24132SOL    HW284376   2.871  11.950   5.267 -0.0666  0.2101 -0.0675
24133SOL     OW84377  10.927  12.288   4.587 -0.1631 -0.1562  0.3894
24133SOL    HW184378  10.866  12.261   4.656  1.1902 -2.1324  0.9048
24133SOL    HW284379  10.876  12.280   4.506 -1.4159  1.0346  1.0234
24134SOL     OW84380  12.567   7.014   1.162 -0.4272  0.3526 -0.3670
24134SOL    HW184381  12.565   6.931   1.211  2.9744 -0.0049 -0.5895
24134SOL    HW284382  12.547   7.081   1.228 -0.9592 -0.4729  0.3301
24135SOL     OW84383   4.318   8.862   2.216 -0.5056 -0.1822 -0.2848
24135SOL    HW184384   4.263   8.808   2.272 -1.9581  0.6572 -0.8347
24135SOL    HW284385   4.256   8.904   2.156  0.6747  1.2976 -0.5179
24136SOL     OW84386   6.220   3.532   5.066 -0.0492  0.2703  0.1555
24136SOL    HW184387   6.271   3.452   5.075  1.3869  1.2589  1.2702
24136SOL    HW284388   6.264   3.581   4.997 -0.6272  0.3330 -0.1793
24137SOL     OW84389  12.176   9.232   9.161 -0.4104  0.1002  0.0056
24137SOL    HW184390  12.182   9.226   9.257  1.8807  0.2845 -0.0577
24137SOL    HW284391  12.151   9.144   9.133 -2.3181  0.3462  0.7948
24138SOL     OW84392   1.515   4.121   7.493 -0.1181  0.5137  0.1756
24138SOL    HW184393   1.568   4.044   7.474 -1.2146  0.0745 -1.2603
24138SOL    HW284394   1.575   4.181   7.537  1.8531  0.4284 -2.2244
24139SOL     OW84395   5.098   5.964   3.278 -0.3256  0.0112 -0.0452
24139SOL    HW184396   5.077   6.037   3.221 -1.8472 -0.7797 -0.5688
24139SOL    HW284397   5.028   5.964   3.344  0.9038  0.3617  1.3156
24140SOL     OW84398   7.179   2.412  10.940 -0.6551  0.2718 -0.3979
24140SOL    HW184399   7.148   2.499  10.967 -1.4969  0.0819 -0.7181
24140SOL    HW284400   7.147   2.403  10.850 -1.9839 -1.0300  0.1778
24141SOL     OW84401   2.567  10.292   9.681  0.4155  0.2090 -0.2853
24141SOL    HW184402   2.601  10.288   9.770  2.1994  0.8632 -0.8927
24141SOL    HW284403   2.491  10.233   9.682  0.3666  0.2435  1.6545
24142SOL     OW84404   3.296   9.643  13.204  0.1619  0.2536  0.7322
24142SOL    HW184405   3.351   9.696  13.146 -1.6450  0.1891 -1.1515
24142SOL    HW284406   3.207   9.674  13.188 -0.6779 -1.5658  1.5446
24143SOL     OW84407  11.391   1.103   7.604 -0.5069  0.0349  0.5444
24143SOL    HW184408  11.428   1.132   7.521  2.5286 -1.8651  1.0388
24143SOL    HW284409  11.439   1.153   7.670 -1.6016  0.2393  1.2150
24144SOL     OW84410   4.777  10.882  13.560  0.2981  0.5623  0.9980
24144SOL    HW184411   4.793  10.791  13.535 -0.1784  0.5335  0.7818
24144SOL    HW284412   4.683  10.887  13.575  0.2674  1.0918  0.6907
24145SOL     OW84413   4.360  12.156   7.169 -0.2234 -0.0848  0.2333
24145SOL    HW184414   4.348  12.061   7.177  0.3891 -0.0859  1.3460
24145SOL    HW284415   4.440  12.175   7.219 -0.4718  1.0493  0.2380
24146SOL     OW84416   5.603  10.630   0.165 -0.8493  0.0401 -0.4963
24146SOL    HW184417   5.599  10.672   0.079 -0.1902 -0.1232 -0.6126
24146SOL    HW284418   5.596  10.702   0.227  2.2862  0.6358 -0.6663
24147SOL     OW84419   2.932   3.876   9.110 -0.0913  0.4120  0.0452
24147SOL    HW184420   2.875   3.882   9.033 -0.3549 -1.0652  0.0988
24147SOL    HW284421   2.955   3.967   9.130 -2.0018  1.0117 -0.2918
24148SOL     OW84422   5.791   1.366  12.467 -0.1851 -0.0267 -0.2339
24148SOL    HW184423   5.698   1.368  12.489  0.3214  2.7751  2.2797
24148SOL    HW284424   5.832   1.315  12.537  0.2881 -0.6452 -0.9407
24149SOL     OW84425  13.729   9.303   6.289  0.1125  0.2166 -0.4152
24149SOL    HW184426  13.801   9.277   6.347  0.4490  1.0064 -0.4641
24149SOL    HW284427  13.730   9.238   6.219  1.6672  0.9591 -1.1401
24150SOL     OW84428   8.932   3.367   8.666  0.0230  0.6258 -0.3729
24150SOL    HW184429   8.885   3.367   8.582 -1.3798  0.3495  0.3896
24150SOL    HW284430   9.020   3.336   8.643 -0.0014  1.5547 -1.9022
24151SOL     OW84431   6.688  13.138   6.835  0.4621  0.5092  0.3927
24151SOL    HW184432   6.745  13.066   6.861 -1.1181 -0.6565  0.7448
24151SOL    HW284433   6.671  13.185   6.917 -0.2122  0.0082  0.5474
24152SOL     OW84434   0.113   7.119  13.054 -0.4136  0.0228 -0.0934
24152SOL    HW184435   0.067   7.170  12.987  0.1820 -1.3457 -1.5850
24152SOL    HW284436   0.101   7.028  13.028 -0.1674 -0.5675  1.6899
24153SOL     OW84437   5.130  13.804   1.055 -0.7316  0.2773  0.1537
24153SOL    HW184438   5.091  13.741   1.116 -1.2814  0.4633  0.0045
24153SOL    HW284439   5.209  13.762   1.023  0.5125  0.8457  2.2916
24154SOL     OW84440   0.163  13.831   1.299  0.2202  0.3546 -0.4892
24154SOL    HW184441   0.133  13.744   1.326  1.1266 -0.0128 -0.6603
24154SOL    HW284442   0.189  13.820   1.207 -2.6275  1.5417 -1.5488
24155SOL     OW84443   0.262   0.824  11.138 -0.2830  0.4097  0.2421
24155SOL    HW184444   0.214   0.789  11.212 -0.5041 -0.1966 -0.1804
24155SOL    HW284445   0.274   0.750  11.079  0.7313  0.6681  0.1015
24156SOL     OW84446  12.320   3.688   8.024  0.7194 -0.0885  0.1757
24156SOL    HW184447  12.413   3.666   8.027  0.5936 -0.5389  0.9615
24156SOL    HW284448  12.305   3.743   8.101  0.5623  0.9445 -0.5673
24157SOL     OW84449   5.906   2.824   6.559 -0.1629 -0.3178 -0.6640
24157SOL    HW184450   5.891   2.787   6.472 -2.4676 -0.3066 -0.3353
24157SOL    HW284451   5.870   2.759   6.620  0.6254  0.0654  0.2399
24158SOL     OW84452   8.091   4.455  11.136 -0.1129 -0.0885 -0.3813
24158SOL    HW184453   8.156   4.386  11.151 -0.4979 -0.9172 -2.1972
24158SOL    HW284454   8.050   4.468  11.222 -0.0893 -2.2173  0.0251
24159SOL     OW84455   6.866  11.983   3.057  0.1494 -0.1552 -0.4102
24159SOL    HW184456   6.899  11.895   3.076  0.0908  0.2414  1.7608
24159SOL    HW284457   6.940  12.027   3.015  0.1768 -1.2120 -1.5251
24160SOL     OW84458   6.299   6.735   8.444 -0.0439  0.3888 -0.0633
24160SOL    HW184459   6.227   6.783   8.404  0.1729 -0.2703 -1.2897
24160SOL    HW284460   6.304   6.770   8.533  0.0008  2.5099 -0.8324
24161SOL     OW84461   7.996   3.604   1.797 -0.5590  0.0655 -0.0311
24161SOL    HW184462   8.045   3.528   1.766  1.1443  0.8865  0.4887
24161SOL    HW284463   7.996   3.595   1.893 -0.8608  0.4121  0.0033
24162SOL     OW84464   6.874   8.451   6.832  0.1271 -0.2053  0.2677
24162SOL    HW184465   6.906   8.541   6.822  3.3833 -1.2462  0.3397
24162SOL    HW284466   6.879   8.434   6.926  1.0701 -0.9663  0.0874
24163SOL     OW84467  12.507  11.175  11.666 -0.2281  0.4721  0.1655
24163SOL    HW184468  12.464  11.111  11.610 -1.0835  1.1203  0.0569
24163SOL    HW284469  12.600  11.163  11.650 -0.3967 -0.4821 -0.1316
24164SOL     OW84470  11.867   5.792   9.222 -0.4413 -0.5335 -0.4291
24164SOL    HW184471  11.926   5.784   9.297  0.1390 -1.7133 -0.9744
24164SOL    HW284472  11.802   5.855   9.249  1.2621  1.0951  0.0880
24165SOL     OW84473  12.769   3.296   5.749 -0.0596  0.2778  0.3049
24165SOL    HW184474  12.862   3.316   5.759  0.8600 -2.9601 -0.4077
24165SOL    HW284475  12.733   3.311   5.836  1.4923  0.1856  1.0095
24166SOL     OW84476   9.100   0.642  13.010  1.0892 -0.0656  0.0221
24166SOL    HW184477   9.114   0.731  13.044  1.8733 -0.5244  0.9255
24166SOL    HW284478   9.161   0.635  12.937  0.8222  0.2220 -0.2376
24167SOL     OW84479   3.122  12.111   7.741  0.8870  0.3954  0.0511
24167SOL    HW184480   3.131  12.157   7.658 -0.6869  0.7907  0.0680
24167SOL    HW284481   3.189  12.043   7.739  0.9137  0.4513 -1.5082
24168SOL     OW84482   6.984   4.777  13.703  0.5583  0.1200  0.2512
24168SOL    HW184483   6.897   4.789  13.740  0.3341 -1.7080  0.3949
24168SOL    HW284484   7.044   4.795  13.775  0.4127  2.6680 -0.1746
24169SOL     OW84485  12.122   6.513  11.781  0.6172 -0.2685  0.8599
24169SOL    HW184486  12.085   6.579  11.723  0.2181 -1.2314 -0.0277
24169SOL    HW284487  12.098   6.542  11.869 -0.1252  0.4194  0.4436
24170SOL     OW84488   5.583   1.519   0.062 -0.2423  0.4886  0.1400
24170SOL    HW184489   5.666   1.497   0.021  0.1667 -0.9939  1.6372
24170SOL    HW284490   5.598   1.506   0.156 -2.0025  0.7137  0.4963
24171SOL     OW84491   8.769  13.436  10.515  0.5285  0.0243  0.4830
24171SOL    HW184492   8.691  13.472  10.557  0.9186  0.6455  0.6859
24171SOL    HW284493   8.780  13.490  10.436 -0.2292 -1.1580 -0.4683
24172SOL     OW84494   3.946   4.036   7.470 -0.3813  0.9362 -0.2503
24172SOL    HW184495   3.855   4.052   7.497 -0.5248  1.3780 -0.9664
24172SOL    HW284496   3.950   4.066   7.379 -0.2797 -1.7785 -1.2510
24173SOL     OW84497   4.700  13.501  12.215  0.8344 -0.0835  0.1350
24173SOL    HW184498   4.741  13.479  12.299 -1.0093 -2.3720  0.5396
24173SOL    HW284499   4.710  13.421  12.162  1.1702  1.0104 -1.5432
24174SOL     OW84500   8.457  13.161   7.600  0.4668  0.2729  0.8695
24174SOL    HW184501   8.535  13.109   7.620  0.2795  0.6259  2.7405
24174SOL    HW284502   8.473  13.245   7.645  0.6259  1.7662 -1.7961
24175SOL     OW84503  12.289   6.207   2.612 -0.2266  0.1992  0.3853
24175SOL    HW184504  12.299   6.129   2.556  1.5290 -0.2004  1.1675
24175SOL    HW284505  12.197   6.207   2.637 -0.4054 -1.2665 -0.1487
24176SOL     OW84506  11.548   0.646   3.052 -0.4558  0.6015 -0.4526
24176SOL    HW184507  11.575   0.709   2.984 -1.3444 -0.3556 -1.7330
24176SOL    HW284508  11.615   0.655   3.120  1.5637  0.2567 -2.2865
24177SOL     OW84509  10.649  12.014   6.528  0.3096  0.4121  0.1468
24177SOL    HW184510  10.574  11.997   6.585 -0.9111  0.6967 -1.3224
24177SOL    HW284511  10.651  12.109   6.519 -0.3742  0.2998 -1.3781
24178SOL     OW84512  12.702  11.388   1.950  0.2091  0.1747  0.8080
24178SOL    HW184513  12.726  11.333   2.024 -1.9550  1.3548  2.5097
24178SOL    HW284514  12.758  11.466   1.958 -3.3561  2.7857  4.5828
24179SOL     OW84515   3.562   0.865   7.520  0.3513  0.2537  0.1225
24179SOL    HW184516   3.597   0.930   7.460 -1.3809  1.5813  0.4737
24179SOL    HW284517   3.598   0.782   7.490 -0.2528  0.8996 -2.6040
24180SOL     OW84518   4.698   4.649   3.712  0.0468  0.1531 -0.0761
24180SOL    HW184519   4.712   4.575   3.652 -1.5151  0.8866 -1.4439
24180SOL    HW284520   4.764   4.713   3.686  1.2903 -0.6403  0.9957
24181SOL     OW84521   8.650   5.478   5.497  0.2174 -0.1525  0.3715
24181SOL    HW184522   8.681   5.412   5.559 -1.8301 -0.1766  1.4465
24181SOL    HW284523   8.711   5.551   5.508 -0.9062  0.4687  3.6132
24182SOL     OW84524  14.007   3.533   2.389  0.4071 -0.1602 -0.5331
24182SOL    HW184525  14.070   3.562   2.455 -0.4819 -2.0288  1.2809
24182SOL    HW284526  14.008   3.601   2.322  1.4000  1.8472  1.4020
24183SOL     OW84527   3.218   8.651   8.513  0.3083  0.4363 -0.2958
24183SOL    HW184528   3.131   8.654   8.474  1.0507  1.2587 -1.9956
24183SOL    HW284529   3.276   8.626   8.441  1.6687  1.3537  0.4266
24184SOL     OW84530   6.096   4.387   0.999  0.5613 -0.0047  0.0031
24184SOL    HW184531   6.077   4.467   1.048  1.5922 -0.0401  0.4937
24184SOL    HW284532   6.015   4.336   1.002  0.1775  0.6302  0.4480
24185SOL     OW84533   7.221   5.932   3.408  0.3959  0.1309 -0.6407
24185SOL    HW184534   7.310   5.922   3.441  0.0092 -0.5652  0.2368
24185SOL    HW284535   7.193   5.843   3.388 -0.5073  0.2093  0.1933
24186SOL     OW84536  10.990  12.093  12.690  0.3696 -0.2241 -0.1428
24186SOL    HW184537  10.960  12.025  12.628  1.0224  0.5700 -1.3701
24186SOL    HW284538  10.971  12.056  12.776  1.6695 -2.4530 -0.7281
24187SOL     OW84539  10.264   9.024   4.026  0.0978  0.0370 -0.2216
24187SOL    HW184540  10.351   9.033   3.987 -0.1672 -0.0070 -0.8188
24187SOL    HW284541  10.269   8.945   4.079 -0.0709 -0.9097 -1.5718
24188SOL     OW84542   3.768   2.225   8.475 -0.1603  0.2677  0.5566
24188SOL    HW184543   3.855   2.210   8.511  0.4239  1.7803 -0.1583
24188SOL    HW284544   3.768   2.179   8.391 -0.8478 -1.5910  1.5159
24189SOL     OW84545   9.078   2.690   4.309  0.3595  0.3188  0.5265
24189SOL    HW184546   9.165   2.670   4.274  0.2123  0.5340  0.0230
24189SOL    HW284547   9.029   2.722   4.233 -0.1168  0.3326  0.8362
24190SOL     OW84548  12.446   3.389   6.940 -0.2677  0.2162  0.2476
24190SOL    HW184549  12.373   3.421   6.887 -0.2200  1.2048  0.7645
24190SOL    HW284550  12.452   3.296   6.918 -2.1577 -0.0609  0.7394
24191SOL     OW84551  10.123   9.268  13.961  0.1596 -0.2121 -0.0214
24191SOL    HW184552  10.080   9.191  13.924  0.3392 -0.7446  0.8429
24191SOL    HW284553  10.178   9.301  13.891  0.5060 -1.2029 -0.2285
24192SOL     OW84554   4.998   9.025   1.801 -0.0401  0.1910 -0.6110
24192SOL    HW184555   5.002   9.101   1.744  0.8645  1.9671  1.6289
24192SOL    HW284556   4.905   9.008   1.813 -0.3370  2.1812  0.2825
24193SOL     OW84557   1.177  13.022  14.006 -0.0366 -0.0039  0.4749
24193SOL    HW184558   1.230  12.944  13.988  0.3487  0.5403 -0.8584
24193SOL    HW284559   1.240  13.094  14.006 -0.9056  0.8916 -2.7786
24194SOL     OW84560   9.601   5.299   5.184 -0.3636  0.1312  0.4689
24194SOL    HW184561   9.587   5.355   5.261 -0.1635  0.8970 -0.0350
24194SOL    HW284562   9.689   5.264   5.196 -0.6839 -0.5011  1.0452
24195SOL     OW84563  10.460   2.696   1.091  0.1084  0.0360  0.3103
24195SOL    HW184564  10.420   2.777   1.061  0.2804  0.6930  1.7991
24195SOL    HW284565  10.508   2.663   1.014 -0.5411  0.9589 -0.5093
24196SOL     OW84566   5.410   9.707   3.790 -0.1596 -0.0139  0.3534
24196SOL    HW184567   5.362   9.762   3.729 -0.5429 -1.2264 -0.4728
24196SOL    HW284568   5.435   9.630   3.739  1.7677  0.1014  1.0292
24197SOL     OW84569   4.063   1.598  12.412  0.2770  0.0749 -0.2237
24197SOL    HW184570   3.988   1.638  12.368  0.6339  0.8690 -0.1325
24197SOL    HW284571   4.039   1.598  12.505  0.2533  0.0255 -0.2302
24198SOL     OW84572   0.099   8.322   6.952  0.1681  0.6252  0.8409
24198SOL    HW184573   0.082   8.412   6.924 -2.2492  0.4374  1.4278
24198SOL    HW284574   0.176   8.328   7.008  0.6133  2.1668  0.1021
24199SOL     OW84575   2.155   3.737  10.215  0.1276  0.0628 -0.1968
24199SOL    HW184576   2.113   3.669  10.269 -1.9957  1.2019 -0.2938
24199SOL    HW284577   2.211   3.688  10.155 -0.9223 -1.5800  0.0863
24200SOL     OW84578  10.248   8.352  10.911  0.4370  0.0791  0.6720
24200SOL    HW184579  10.247   8.278  10.850  0.4768  1.9301 -1.7341
24200SOL    HW284580  10.286   8.316  10.991  0.3864 -2.4971 -0.3519
24201SOL     OW84581  12.605   8.412   0.429  0.2058 -0.2033 -0.0915
24201SOL    HW184582  12.581   8.452   0.345  0.0703  1.0000  0.5019
24201SOL    HW284583  12.528   8.361   0.454 -0.2710  0.5186 -0.0623
24202SOL     OW84584   8.182   3.098  13.628  0.0667 -0.2088  0.3664
24202SOL    HW184585   8.205   3.165  13.693  0.1246  0.1588 -0.0305
24202SOL    HW284586   8.106   3.053  13.666 -0.3819  0.5169  0.3275
24203SOL     OW84587   6.693  13.065   8.777 -0.6204 -0.2101 -0.2410
24203SOL    HW184588   6.719  13.148   8.737  1.0142 -0.3499  0.4578
24203SOL    HW284589   6.666  13.089   8.866  0.1358 -0.4457  0.0590
24204SOL     OW84590   8.497   9.477   8.715 -0.4434  0.1946  0.2133
24204SOL    HW184591   8.476   9.403   8.771 -2.6773  0.7902  0.2618
24204SOL    HW284592   8.426   9.540   8.731  0.6654  1.7780 -0.8083
24205SOL     OW84593  11.814   1.679   7.722 -0.4350 -0.7113 -0.4699
24205SOL    HW184594  11.742   1.617   7.710 -0.1651 -0.7481 -2.1273
24205SOL    HW284595  11.775   1.765   7.710 -0.4380 -0.6586 -0.0951
24206SOL     OW84596   6.184   4.283  10.845  0.1554 -0.0479 -0.1726
24206SOL    HW184597   6.260   4.229  10.870  0.5937  1.0429  0.9844
24206SOL    HW284598   6.217   4.373  10.850 -1.7393  0.6213  2.5710
24207SOL     OW84599  10.105  10.945   7.115 -0.8044 -0.4892 -0.0673
24207SOL    HW184600  10.094  10.933   7.021  0.0238 -0.8104 -0.1282
24207SOL    HW284601  10.114  10.856   7.150  0.3689 -0.3183  0.1191
24208SOL     OW84602  13.200   3.672   6.357  0.3285  0.0630  0.2760
24208SOL    HW184603  13.236   3.610   6.293  0.4240 -1.2071  1.5113
24208SOL    HW284604  13.199   3.623   6.439 -2.1309  0.7911  0.7616
24209SOL     OW84605  11.750   7.602   3.605  0.5391  0.1947 -0.6044
24209SOL    HW184606  11.773   7.563   3.689  1.0353  1.1671 -0.2802
24209SOL    HW284607  11.735   7.527   3.547 -2.0249 -0.5619  0.9002
24210SOL     OW84608   2.813  13.232  13.013 -0.2711  0.2681 -0.5839
24210SOL    HW184609   2.909  13.232  13.021 -0.4257  0.7791  2.3246
24210SOL    HW284610   2.788  13.141  13.031 -0.4490  0.7662  1.9573
24211SOL     OW84611  13.214   0.028  11.661 -0.6111 -0.1324  0.0307
24211SOL    HW184612  13.270  -0.050  11.665 -0.4796  0.0108  2.3777
24211SOL    HW284613  13.252   0.081  11.592  0.8996 -0.9719  0.1712
24212SOL     OW84614   6.081   2.885  12.643  0.6702 -0.0078 -0.5291
24212SOL    HW184615   5.989   2.911  12.632  0.9586  0.7258 -1.3033
24212SOL    HW284616   6.078   2.790  12.648 -0.2947  0.0739  1.1645
24213SOL     OW84617   1.175  12.129   1.581  0.3770  0.0204 -0.5554
24213SOL    HW184618   1.200  12.081   1.502  0.1748  0.5885 -0.9700
24213SOL    HW284619   1.120  12.068   1.629 -0.8276  0.2105 -1.6296
24214SOL     OW84620   4.271  12.356   9.886  0.1121  0.3823 -0.4743
24214SOL    HW184621   4.301  12.332   9.798  1.2765  1.1979 -0.3232
24214SOL    HW284622   4.331  12.311   9.945 -0.7771 -0.3044 -0.0746
24215SOL     OW84623   1.555   3.585   7.593  0.9729  0.1285 -0.1941
24215SOL    HW184624   1.635   3.540   7.567  1.1183 -0.3610  1.0249
24215SOL    HW284625   1.495   3.515   7.619  0.8015  0.5810  0.6581
24216SOL     OW84626  11.189   2.400  11.042 -0.0314 -0.0574 -0.5976
24216SOL    HW184627  11.270   2.418  10.993 -0.9347 -0.7369 -2.4337
24216SOL    HW284628  11.138   2.344  10.984 -0.6718 -1.9724  1.6694
24217SOL     OW84629   1.765   0.781  10.747  0.0200  0.1938 -0.1323
24217SOL    HW184630   1.772   0.698  10.698  1.2747  0.4413 -0.4111
24217SOL    HW284631   1.673   0.804  10.741 -0.5293 -1.5906  0.6315
24218SOL     OW84632   2.445  13.221   0.245 -0.5496  0.7504  0.4020
24218SOL    HW184633   2.462  13.301   0.196  0.6441  0.3164  0.0678
24218SOL    HW284634   2.528  13.199   0.286 -0.2844 -1.3241 -1.0468
24219SOL     OW84635  11.154  13.430  10.831  0.0436  0.5024 -0.3597
24219SOL    HW184636  11.100  13.498  10.792 -0.8910  0.4799  0.8135
24219SOL    HW284637  11.243  13.464  10.827 -0.3680  1.6431 -0.1061
24220SOL     OW84638   4.459   2.059   6.968  0.0034  0.0597  0.1496
24220SOL    HW184639   4.480   2.013   6.887 -0.0394 -0.3876  0.3890
24220SOL    HW284640   4.372   2.028   6.993  0.5801 -0.8644  1.0913
24221SOL     OW84641   6.285   9.391   6.846 -0.2365  0.7472  0.6024
24221SOL    HW184642   6.256   9.318   6.901 -1.1553  1.2217  0.7615
24221SOL    HW284643   6.288   9.466   6.905 -0.5714  1.1161  0.1623
24222SOL     OW84644   6.551   4.573  12.812 -0.5337 -0.0586 -0.2588
24222SOL    HW184645   6.508   4.506  12.866 -0.2824  1.1721  1.5640
24222SOL    HW284646   6.624   4.527  12.770  1.4909 -0.4033  3.2810
24223SOL     OW84647   3.118   5.945   2.492  0.2507 -0.0710 -0.4036
24223SOL    HW184648   3.144   5.929   2.582  0.3886  0.9787 -0.2428
24223SOL    HW284649   3.155   6.031   2.471  1.5181 -0.9370 -1.9534
24224SOL     OW84650   3.433  11.329   4.360  0.5648 -0.1901 -0.5659
24224SOL    HW184651   3.437  11.352   4.268  1.1395  0.2742 -0.4282
24224SOL    HW284652   3.355  11.274   4.368 -1.0829  1.9514 -0.8657
24225SOL     OW84653   0.830   3.445   9.965 -0.0519 -0.2964 -0.9927
24225SOL    HW184654   0.828   3.540   9.952 -0.4881  0.1100  1.5708
24225SOL    HW284655   0.923   3.423   9.967  0.0715  0.2625 -0.4708
24226SOL     OW84656   5.911   1.197  11.462 -0.1377 -0.2469  0.4877
24226SOL    HW184657   5.835   1.180  11.405  0.2338 -1.2590  0.2686
24226SOL    HW284658   5.987   1.179  11.407  0.3306  2.0234  0.3088
24227SOL     OW84659   2.383   2.962   2.679  0.5089 -0.2667  0.1579
24227SOL    HW184660   2.390   3.054   2.654  1.1892 -0.0479  1.1037
24227SOL    HW284661   2.293   2.953   2.711  0.5507  0.1671  0.4112
24228SOL     OW84662  10.402  14.028   0.422  0.2256 -0.0716  0.0329
24228SOL    HW184663  10.461  13.964   0.463  0.9836  1.3224  1.2287
24228SOL    HW284664  10.448  14.055   0.342  0.4814 -0.1447  0.1536
24229SOL     OW84665  12.286   7.429   2.656  0.1009 -0.1919 -0.4232
24229SOL    HW184666  12.323   7.481   2.584 -0.5889 -0.1268 -0.7439
24229SOL    HW284667  12.361   7.400   2.707  0.4987  1.2875 -0.1311
24230SOL     OW84668  10.376   6.904   8.316 -0.2712 -0.1272 -0.1387
24230SOL    HW184669  10.386   6.827   8.262 -0.0395 -0.6570  0.6360
24230SOL    HW284670  10.450   6.900   8.377 -0.2247  0.7330 -0.1218
24231SOL     OW84671   9.952  12.069   1.763 -0.2411  0.0343  0.1967
24231SOL    HW184672   9.929  11.979   1.742  0.2814 -0.2563  0.8049
24231SOL    HW284673   9.904  12.122   1.700 -2.0658 -0.5556  1.0297
24232SOL     OW84674  12.637  12.081   4.287  0.1224 -0.2473  0.4483
24232SOL    HW184675  12.641  12.171   4.320  1.7311  0.3258 -1.1705
24232SOL    HW284676  12.694  12.032   4.346 -1.0890 -0.3463  1.5938
24233SOL     OW84677   0.541  10.129   4.646 -0.0315  0.2191  0.2612
24233SOL    HW184678   0.576  10.113   4.733  0.4380  0.0090  0.0385
24233SOL    HW284679   0.513  10.043   4.615 -4.6522  0.7966  2.0178
24234SOL     OW84680   0.960   9.619   2.803 -0.1792 -0.1845 -0.5785
24234SOL    HW184681   0.990   9.708   2.784 -1.6870  0.6652  0.8017
24234SOL    HW284682   1.041   9.569   2.818  0.6638  1.6425  1.4601
24235SOL     OW84683   5.431   5.661   1.090 -0.2025  0.0057  0.6906
24235SOL    HW184684   5.338   5.656   1.069 -0.0993 -1.5190  0.4849
24235SOL    HW284685   5.457   5.749   1.063 -0.9710 -0.4890 -1.9052
24236SOL     OW84686   1.034  13.432  13.481 -0.4906  0.0518 -0.0530
24236SOL    HW184687   0.950  13.389  13.466 -1.0755  0.6609  1.3551
24236SOL    HW284688   1.038  13.447  13.575  0.7353  0.9888 -0.2188
24237SOL     OW84689   3.259   2.100   9.596  0.6529  0.2947 -0.2055
24237SOL    HW184690   3.261   2.010   9.629 -1.6650  0.2470 -0.0440
24237SOL    HW284691   3.197   2.146   9.654  0.7354  1.6381 -1.1317
24238SOL     OW84692  11.336   3.543  10.415  0.1938  0.1619  0.1522
24238SOL    HW184693  11.246   3.568  10.395  0.2038 -0.3852 -0.6387
24238SOL    HW284694  11.389   3.619  10.390  0.1026 -0.1256 -1.0192
24239SOL     OW84695  13.857   9.174   6.513 -0.1302 -0.2678 -0.5551
24239SOL    HW184696  13.864   9.118   6.590  1.3971  0.2651 -0.2665
24239SOL    HW284697  13.843   9.262   6.548  1.1662  0.0705 -0.8310
24240SOL     OW84698   3.876  13.893   7.433 -0.0525  0.5935  0.2733
24240SOL    HW184699   3.878  13.905   7.528  0.8858  1.9967  0.1062
24240SOL    HW284700   3.965  13.916   7.404 -0.7806  1.8644 -1.1121
24241SOL     OW84701   6.106   2.140   0.685  0.1137  0.6242 -0.4166
24241SOL    HW184702   6.195   2.167   0.664  0.3793 -0.2817 -0.5168
24241SOL    HW284703   6.115   2.088   0.765 -0.0289 -1.1092 -1.4738
24242SOL     OW84704  13.129  11.071   5.689  0.2024 -0.0248 -0.2023
24242SOL    HW184705  13.202  11.067   5.750 -0.0988 -1.9720  0.1129
24242SOL    HW284706  13.153  11.011   5.618 -1.0208 -0.6155 -0.1547
24243SOL     OW84707  11.658   3.250  12.703  0.2530 -0.5504 -0.8043
24243SOL    HW184708  11.654   3.341  12.673  0.6115 -1.0520 -2.4765
24243SOL    HW284709  11.608   3.250  12.785  0.8802  1.2961 -0.3592
24244SOL     OW84710  13.593  13.956   0.635 -0.0910  0.2519 -0.1064
24244SOL    HW184711  13.601  14.042   0.594  3.7438 -0.1409 -0.5988
24244SOL    HW284712  13.617  13.895   0.565  0.6402 -0.8975  1.0948
24245SOL     OW84713   1.039  12.384  11.608  0.2881 -0.0258 -0.5592
24245SOL    HW184714   0.989  12.412  11.531  0.7252 -1.3547 -1.3550
24245SOL    HW284715   1.006  12.297  11.628  0.6253  0.0536  0.3778
24246SOL     OW84716   9.081  12.392  11.272  0.5012 -0.2680  0.3202
24246SOL    HW184717   9.130  12.465  11.233  0.4511  0.0790  0.9042
24246SOL    HW284718   9.012  12.373  11.208  0.7091 -0.0131  0.0184
24247SOL     OW84719   9.385   5.220  12.174  0.2228 -0.2228 -0.0646
24247SOL    HW184720   9.446   5.172  12.118  0.5789 -0.1638  0.2673
24247SOL    HW284721   9.441   5.267  12.236 -0.1630 -0.3055  0.3554
24248SOL     OW84722   8.385   6.615  10.585  0.1963 -0.6314  0.3043
24248SOL    HW184723   8.438   6.695  10.575 -1.6630  0.6578  0.2449
24248SOL    HW284724   8.364   6.589  10.496  0.5008 -1.0100  0.3377
24249SOL     OW84725   6.541   1.572   7.855  0.2358  0.6891  0.4180
24249SOL    HW184726   6.459   1.591   7.809 -0.7726 -2.7322  0.4956
24249SOL    HW284727   6.606   1.561   7.785 -0.6975 -1.8628 -0.1718
24250SOL     OW84728  11.518  13.572   5.906  0.6654 -0.0632  0.3903
24250SOL    HW184729  11.576  13.538   5.975 -0.5610  0.3670  1.6688
24250SOL    HW284730  11.445  13.511   5.903  1.1335 -0.5886 -1.2040
24251SOL     OW84731   8.087  13.143   5.238 -0.2112 -0.3238  0.1905
24251SOL    HW184732   8.007  13.091   5.236 -0.0570 -0.5488 -0.2053
24251SOL    HW284733   8.110  13.147   5.331  0.5206 -2.1394  0.1465
24252SOL     OW84734   6.848  12.822   8.729  0.2658 -0.1783  0.5292
24252SOL    HW184735   6.799  12.900   8.756 -0.1370 -0.3286  0.2558
24252SOL    HW284736   6.935  12.834   8.765  0.1174  0.2550  0.7488
24253SOL     OW84737   5.482  12.279   5.623  0.2882  0.1406 -0.5040
24253SOL    HW184738   5.538  12.257   5.549  0.2176  1.2411 -0.9006
24253SOL    HW284739   5.420  12.205   5.629  0.1238  0.1579 -1.7114
24254SOL     OW84740  13.882   7.496   3.030  0.0906  0.1227  0.1814
24254SOL    HW184741  13.855   7.526   2.943  1.9422  2.6043  0.3598
24254SOL    HW284742  13.801   7.500   3.082 -1.0746 -1.5225 -1.3681
24255SOL     OW84743  13.092  11.988   0.755  0.1159 -0.4117 -0.5216
24255SOL    HW184744  13.025  11.931   0.717  0.5532 -0.2732 -1.5290
24255SOL    HW284745  13.044  12.046   0.814 -0.4354 -1.3385 -0.0256
24256SOL     OW84746   1.410  11.198  12.887  0.2884  0.1214 -0.2263
24256SOL    HW184747   1.350  11.236  12.951 -1.3000 -0.3539 -1.3836
24256SOL    HW284748   1.464  11.272  12.858  1.0350  0.3451  1.6054
24257SOL     OW84749   2.121   5.326  13.065 -0.9556  0.7124  0.6242
24257SOL    HW184750   2.139   5.420  13.064  0.3231  0.4952 -0.8455
24257SOL    HW284751   2.080   5.308  12.981  2.1602 -0.5593 -0.7626
24258SOL     OW84752  11.552  13.073   4.534  0.8797  0.1716 -0.2650
24258SOL    HW184753  11.533  13.165   4.515  3.2836  0.8717  0.3966
24258SOL    HW284754  11.538  13.064   4.628 -0.2748 -0.4279 -0.4747
24259SOL     OW84755  12.793  13.114   6.499 -0.3023  0.4885  0.8162
24259SOL    HW184756  12.758  13.028   6.525  1.3955 -0.7554 -0.7354
24259SOL    HW284757  12.775  13.171   6.573 -1.5666 -1.1806  1.8644
24260SOL     OW84758   5.753   3.780   1.573  0.5564  0.2535 -0.4056
24260SOL    HW184759   5.670   3.775   1.621  0.1304 -0.1088 -1.1646
24260SOL    HW284760   5.744   3.716   1.503  1.7235 -0.2371 -0.1335
24261SOL     OW84761   9.690   9.711   9.827  0.1243  0.3652  0.5707
24261SOL    HW184762   9.759   9.769   9.859  0.3526  0.0800  0.6005
24261SOL    HW284763   9.613   9.734   9.879  0.7860 -0.8938  2.1606
24262SOL     OW84764  10.008   0.497   3.623 -0.3213 -0.1990 -0.4382
24262SOL    HW184765   9.993   0.569   3.684 -1.2001 -2.0087  1.6120
24262SOL    HW284766   9.930   0.497   3.567  1.1234  2.3734 -2.7142
24263SOL     OW84767  12.550  13.959   7.230 -0.1244  0.0215 -0.2179
24263SOL    HW184768  12.467  13.915   7.215 -0.1566 -0.3702  1.0126
24263SOL    HW284769  12.597  13.952   7.146 -1.2547  0.1233 -0.8707
24264SOL     OW84770   1.557   4.967   8.241  0.3227  0.3820 -0.4169
24264SOL    HW184771   1.642   4.938   8.273  0.7193  0.3913 -1.4448
24264SOL    HW284772   1.574   5.003   8.154 -0.9145 -0.7047 -1.1437
24265SOL     OW84773   8.275   9.744   0.516 -0.1789 -0.1414  0.1627
24265SOL    HW184774   8.297   9.700   0.434  0.3062 -0.3630  0.4044
24265SOL    HW284775   8.346   9.807   0.529 -1.4017  1.4667 -0.7047
24266SOL     OW84776   8.376  13.357  11.970  0.0994  0.4026 -0.1383
24266SOL    HW184777   8.342  13.388  11.886 -0.2400 -0.0264 -0.1644
24266SOL    HW284778   8.419  13.274  11.949 -1.5500 -0.6161  0.3823
24267SOL     OW84779   4.055   9.309   6.110 -0.2267  0.1983  0.6391
24267SOL    HW184780   4.142   9.269   6.117 -0.6276 -1.1772 -1.3412
24267SOL    HW284781   4.036   9.341   6.198  2.1062  0.1826  1.2157
24268SOL     OW84782   8.637   5.916  12.719  0.2826 -0.1892  0.3386
24268SOL    HW184783   8.699   5.897  12.648  0.3291 -1.1313  0.6079
24268SOL    HW284784   8.674   5.871  12.795  0.9742  1.9816  1.3481
24269SOL     OW84785  10.276  12.985   2.743 -0.0250 -0.1597  0.3369
24269SOL    HW184786  10.234  12.991   2.657 -0.0052 -0.0355  0.3361
24269SOL    HW284787  10.320  13.069   2.754 -0.5567  0.0680  0.7514
24270SOL     OW84788  13.112   9.488   2.388  0.2612  0.0124  0.2907
24270SOL    HW184789  13.207   9.496   2.384  0.1167  2.2763  0.1643
24270SOL    HW284790  13.082   9.573   2.420 -1.7401 -0.6441  0.3164
24271SOL     OW84791   0.137   4.962   3.355 -0.3939  0.2321 -1.2638
24271SOL    HW184792   0.075   4.966   3.427 -0.9196  1.5833 -1.7615
24271SOL    HW284793   0.157   5.053   3.335  1.1632 -0.1470 -1.6323
24272SOL     OW84794   0.663   1.495   9.944 -0.4382  0.4658 -0.4005
24272SOL    HW184795   0.708   1.413   9.924  0.6478  1.2095 -1.1357
24272SOL    HW284796   0.707   1.528  10.022 -2.2067 -0.6030  1.1162
24273SOL     OW84797   7.906   1.578   6.023  0.3787 -0.1560  0.2000
24273SOL    HW184798   7.831   1.567   5.965  1.8780  0.9578 -2.0876
24273SOL    HW284799   7.957   1.498   6.011  0.3734 -0.2085  0.5107
24274SOL     OW84800   2.123   0.251   1.503 -0.2164  0.9004  0.5313
24274SOL    HW184801   2.125   0.170   1.453 -1.5700 -0.2090  2.1714
24274SOL    HW284802   2.100   0.318   1.439  0.4555 -0.0618 -0.7583
24275SOL     OW84803   4.385   1.987   9.676  0.1600 -0.2721  0.1072
24275SOL    HW184804   4.294   2.005   9.651 -0.0546  0.3497  1.2716
24275SOL    HW284805   4.435   2.056   9.632 -0.0232 -0.1869  0.0295
24276SOL     OW84806   8.225  13.020  10.645  0.2041  0.2470 -0.2777
24276SOL    HW184807   8.218  12.927  10.624 -2.6480  0.4827 -0.8166
24276SOL    HW284808   8.295  13.053  10.589  0.0650 -1.2347 -1.3752
24277SOL     OW84809  13.546   4.790   3.180 -0.2796  0.3103  1.0725
24277SOL    HW184810  13.596   4.726   3.131 -1.2770  0.5648 -0.3271
24277SOL    HW284811  13.543   4.755   3.269  1.5095 -0.1922  0.9679
24278SOL     OW84812   2.014   0.374  11.971 -0.4026 -0.0582  0.3768
24278SOL    HW184813   2.059   0.360  11.888 -0.5370  0.8828  0.1303
24278SOL    HW284814   2.071   0.435  12.019 -1.3752  1.1162  0.0813
24279SOL     OW84815   1.999   6.807   6.778 -0.5344  0.4961  0.3082
24279SOL    HW184816   2.029   6.790   6.868  1.1721 -2.4959 -0.7025
24279SOL    HW284817   2.054   6.879   6.748  0.2792  0.2039  1.0401
24280SOL     OW84818   2.611   1.444   7.998 -0.5210 -0.0353 -0.4016
24280SOL    HW184819   2.694   1.483   7.971 -0.0964  0.1244  1.0187
24280SOL    HW284820   2.617   1.353   7.970  0.7708 -0.3989  0.9015
24281SOL     OW84821   5.235   9.761   1.723 -0.4174 -0.1052 -0.7078
24281SOL    HW184822   5.279   9.676   1.716 -0.1295  0.0612 -0.9375
24281SOL    HW284823   5.235   9.795   1.633 -0.9819 -0.0860 -0.7043
24282SOL     OW84824   0.810   6.359   7.477  0.0171 -0.1510 -0.6078
24282SOL    HW184825   0.842   6.269   7.473 -1.6213 -0.7991  0.1799
24282SOL    HW284826   0.760   6.363   7.558  0.4695  1.6285 -0.3787
24283SOL     OW84827  10.213  10.019   5.829 -0.4450  0.1217  0.0073
24283SOL    HW184828  10.229  10.105   5.791  0.1139  0.4241  0.8828
24283SOL    HW284829  10.180  10.037   5.917  0.3475 -0.5408  0.4647
24284SOL     OW84830   9.425   4.231   2.194  0.1348 -0.4976 -0.4865
24284SOL    HW184831   9.359   4.222   2.125 -1.9177 -1.6086  1.4937
24284SOL    HW284832   9.418   4.151   2.245  0.8922  0.6932  1.6028
24285SOL     OW84833   0.019  10.145  12.589  0.2337 -0.4516 -0.6646
24285SOL    HW184834   0.033  10.240  12.594 -3.1320  0.0973  1.1002
24285SOL    HW284835   0.022  10.126  12.495  0.6833  1.4544 -1.0858
24286SOL     OW84836   8.696  13.948   6.026  0.4067 -0.2863  0.0028
24286SOL    HW184837   8.734  13.977   6.109 -0.3867 -0.3479  0.3979
24286SOL    HW284838   8.748  13.993   5.959 -0.4096  1.6086  0.5718
24287SOL     OW84839   0.296   1.074   3.738 -0.1399  0.0173 -0.1687
24287SOL    HW184840   0.239   1.024   3.680  2.2761 -1.0003 -1.8561
24287SOL    HW284841   0.300   1.021   3.819  0.2304 -1.1393 -0.9119
24288SOL     OW84842   0.549   1.019   6.739  0.4669 -0.8577  0.0292
24288SOL    HW184843   0.481   1.067   6.787  0.5432 -0.5606 -0.1553
24288SOL    HW284844   0.616   1.000   6.805  1.9131  1.9877 -0.4488
24289SOL     OW84845   7.180   3.409   7.820  0.1082  0.1616  0.4262
24289SOL    HW184846   7.152   3.413   7.912  0.4245  0.3458  0.5145
24289SOL    HW284847   7.139   3.329   7.787  0.2363 -0.0690  0.8108
24290SOL     OW84848   8.259   1.314   1.700  0.1267 -0.0629 -0.0548
24290SOL    HW184849   8.215   1.298   1.783 -0.8765  1.9104 -0.1523
24290SOL    HW284850   8.321   1.242   1.691 -0.0141 -0.5258  2.2120
24291SOL     OW84851   6.422   4.700   9.714 -0.0514  0.1946  0.2199
24291SOL    HW184852   6.473   4.648   9.652 -1.4689  0.3674 -1.1546
24291SOL    HW284853   6.470   4.783   9.719 -0.3681  0.5208 -1.3932
24292SOL     OW84854  12.972   3.525  11.307 -0.3994 -0.2611  0.1073
24292SOL    HW184855  13.003   3.446  11.352 -0.6805 -0.0191  0.7390
24292SOL    HW284856  12.926   3.574  11.375  0.4672  0.8355 -0.0789
24293SOL     OW84857  11.264   9.282   1.435 -0.1550  0.1949  0.3331
24293SOL    HW184858  11.199   9.243   1.493  0.4291  0.7672  1.4042
24293SOL    HW284859  11.322   9.210   1.410 -0.7453 -0.1657 -0.0225
24294SOL     OW84860  13.376   3.818   5.101  0.1452 -0.7204  0.1993
24294SOL    HW184861  13.445   3.840   5.164 -1.0030 -0.8605  1.5473
24294SOL    HW284862  13.362   3.724   5.112 -0.3576 -0.6677  0.0437
24295SOL     OW84863   3.721  11.106   2.732  0.1639 -0.6207  0.3150
24295SOL    HW184864   3.631  11.130   2.712 -0.6963 -2.0567  2.1921
24295SOL    HW284865   3.743  11.038   2.669 -1.3056 -2.6677  1.8859
24296SOL     OW84866   7.377  11.290  10.826  0.5686 -0.2985 -0.9069
24296SOL    HW184867   7.438  11.356  10.794 -0.2576  0.3985 -1.0694
24296SOL    HW284868   7.325  11.265  10.749 -0.6923  0.5918 -0.3736
24297SOL     OW84869   7.167  10.719   4.928 -0.1357  0.1888  0.1428
24297SOL    HW184870   7.124  10.717   4.842  0.8079  1.4130 -0.3933
24297SOL    HW284871   7.248  10.767   4.912 -0.8065  2.1033  2.1170
24298SOL     OW84872   4.786   7.089   8.230 -0.6992 -0.7740  0.3961
24298SOL    HW184873   4.803   7.122   8.318 -0.7569 -1.1149  0.5391
24298SOL    HW284874   4.705   7.039   8.239 -1.6009  0.5504 -0.2057
24299SOL     OW84875  12.901   2.842  10.013  0.0873 -0.3223 -0.4980
24299SOL    HW184876  12.872   2.777   9.950 -0.4012  0.4711 -1.1062
24299SOL    HW284877  12.824   2.895  10.031 -0.0167 -1.0415  1.4301
24300SOL     OW84878   0.785   1.051  12.317 -0.0351  0.3297  0.1333
24300SOL    HW184879   0.774   1.129  12.263 -0.0768 -0.1524 -0.5681
24300SOL    HW284880   0.695   1.025  12.340 -0.0059  0.7035  0.6927
24301SOL     OW84881   5.054  11.324   1.110 -0.5372  0.0264  0.0135
24301SOL    HW184882   5.127  11.356   1.162  0.9609 -1.5841 -0.9835
24301SOL    HW284883   5.058  11.374   1.028 -1.5090  0.9896  0.5365
24302SOL     OW84884   3.076   0.402  13.870  0.2538 -0.3099 -0.3286
24302SOL    HW184885   3.115   0.485  13.843  0.2686 -0.9673 -2.4559
24302SOL    HW284886   3.150   0.341  13.875 -0.0105 -0.6656 -0.7051
24303SOL     OW84887   1.530   8.187  10.458 -0.2466  0.4580  0.5303
24303SOL    HW184888   1.453   8.131  10.453 -0.1203  0.2031  1.2927
24303SOL    HW284889   1.499   8.274  10.432 -0.1014 -0.2326 -2.2741
24304SOL     OW84890   5.595  12.310  13.576  0.0296  0.1232  0.0431
24304SOL    HW184891   5.646  12.288  13.498 -0.6882 -0.5232 -0.2577
24304SOL    HW284892   5.507  12.328  13.542 -0.6648 -1.5906  0.8414
24305SOL     OW84893  12.790   9.669   5.074  0.4110  0.2722 -0.4149
24305SOL    HW184894  12.837   9.599   5.029  0.6947  0.4980 -0.4715
24305SOL    HW284895  12.789   9.742   5.011 -0.0820  0.2420 -0.4448
24306SOL     OW84896   1.854   2.784  14.003 -0.3836  0.5907  0.1219
24306SOL    HW184897   1.940   2.815  14.030  0.9644 -0.0334 -2.9462
24306SOL    HW284898   1.818   2.741  14.080  1.6503  1.6584  1.7558
24307SOL     OW84899   2.659   8.397   0.796  0.1071  0.4569 -0.2245
24307SOL    HW184900   2.564   8.406   0.800 -0.0604 -0.7841 -1.0459
24307SOL    HW284901   2.683   8.352   0.877  0.0789  1.2004  0.2165
24308SOL     OW84902  10.478  11.618   4.471 -0.0828  0.4655  0.2119
24308SOL    HW184903  10.444  11.632   4.559 -1.6987  1.2276 -0.4943
24308SOL    HW284904  10.412  11.655   4.413  0.5872 -0.6732 -1.3684
24309SOL     OW84905   3.151   2.467   0.280  1.0151  0.2162  0.3684
24309SOL    HW184906   3.080   2.523   0.250  0.3816 -0.3474  0.7724
24309SOL    HW284907   3.151   2.394   0.219  2.8803  1.3770 -1.1262
24310SOL     OW84908   8.223   4.267   3.293  0.3990 -0.5884  0.0184
24310SOL    HW184909   8.149   4.322   3.267  0.5178 -0.5172 -0.1712
24310SOL    HW284910   8.274   4.255   3.212  0.4722 -0.8250  0.0978
24311SOL     OW84911  10.278   2.828   0.113  0.4082 -0.0847  0.0423
24311SOL    HW184912  10.284   2.750   0.058  2.6457  1.1817 -1.6513
24311SOL    HW284913  10.364   2.869   0.107 -1.6264  4.5740 -2.3183
24312SOL     OW84914  13.338  13.812   9.506 -0.2854 -0.0085 -0.5614
24312SOL    HW184915  13.418  13.865   9.507 -0.8404  0.8404 -0.3274
24312SOL    HW284916  13.355  13.741   9.567  0.8797 -0.7414 -1.6711
24313SOL     OW84917   5.327  13.677  11.736 -0.1404  0.1681 -0.2769
24313SOL    HW184918   5.239  13.710  11.722 -1.1220 -2.2395 -0.2999
24313SOL    HW284919   5.318  13.618  11.811  1.4767 -0.0645 -0.2377
24314SOL     OW84920   2.243  10.489   7.487  0.3020  0.4025 -0.0708
24314SOL    HW184921   2.260  10.569   7.538  0.0922 -0.6402  1.7076
24314SOL    HW284922   2.309  10.427   7.518 -0.1396 -0.4158 -0.7470
24315SOL     OW84923   4.531   4.027   7.117 -0.3219 -0.1054 -0.2558
24315SOL    HW184924   4.611   4.002   7.163 -0.7696  0.5635  0.9456
24315SOL    HW284925   4.469   3.956   7.136 -0.8791  0.7139  1.2528
24316SOL     OW84926   2.972   4.788   5.733 -0.3841  0.5959  0.2299
24316SOL    HW184927   2.954   4.882   5.732  2.0584  1.1289 -1.2217
24316SOL    HW284928   2.916   4.754   5.803 -0.7307  3.2265  1.3615
24317SOL     OW84929   7.869  11.975   1.854  0.1947  0.3828 -0.0278
24317SOL    HW184930   7.950  12.026   1.858  0.0654  0.5719  0.2353
24317SOL    HW284931   7.877  11.923   1.774  1.2335 -0.6861  0.7238
24318SOL     OW84932   8.562  11.058  12.055 -0.0726  0.6383  0.2988
24318SOL    HW184933   8.625  11.130  12.061  0.7846 -0.0969  0.3686
24318SOL    HW284934   8.480  11.100  12.030  1.1755  1.2710 -3.3091
24319SOL     OW84935   6.596  11.363   7.649  0.3090  0.2900  0.1642
24319SOL    HW184936   6.632  11.280   7.621  0.5220  0.0890  1.0040
24319SOL    HW284937   6.512  11.370   7.603 -0.0223 -0.7037  0.6044
24320SOL     OW84938  12.610   8.603   6.688 -0.1056  0.5720  0.0122
24320SOL    HW184939  12.669   8.674   6.661  1.8351 -0.3207  1.6229
24320SOL    HW284940  12.605   8.610   6.783 -1.2864 -0.4156  0.0546
24321SOL     OW84941   7.715   0.383   8.821  0.0069  0.2268 -0.4876
24321SOL    HW184942   7.758   0.302   8.847  0.8328  0.3120 -1.5477
24321SOL    HW284943   7.632   0.354   8.783 -1.3460  0.1082  2.2865
24322SOL     OW84944   8.874   8.536   7.197 -0.4968 -0.2177  0.1163
24322SOL    HW184945   8.877   8.620   7.242 -1.3138 -0.3219  0.3782
24322SOL    HW284946   8.959   8.529   7.154  0.1471  0.0613  1.3154
24323SOL     OW84947  13.977   0.438   5.187  0.0404 -0.8246  0.0611
24323SOL    HW184948  13.886   0.414   5.205 -0.5180  0.4796 -0.8652
24323SOL    HW284949  13.986   0.527   5.221  1.0145 -0.9733  0.2415
24324SOL     OW84950   7.645  10.489   5.467 -0.3362 -0.2495  0.2138
24324SOL    HW184951   7.578  10.421   5.480 -1.0603  0.6700  1.5379
24324SOL    HW284952   7.597  10.562   5.427 -0.2222  0.5008  1.3822
24325SOL     OW84953   8.327   2.200   9.797 -0.2676 -0.1321 -0.0958
24325SOL    HW184954   8.390   2.133   9.772 -0.4554 -0.0708 -0.7464
24325SOL    HW284955   8.375   2.283   9.789 -0.6916  0.0068 -1.5665
24326SOL     OW84956   3.888   9.563   5.346 -0.1056  0.3919  0.0397
24326SOL    HW184957   3.813   9.588   5.401  0.1352  1.4367 -0.0838
24326SOL    HW284958   3.865   9.476   5.313 -1.1501  0.5847  0.2148
24327SOL     OW84959  11.262  10.361  11.661  0.4818 -0.3798  0.0356
24327SOL    HW184960  11.257  10.284  11.717 -0.4730 -0.3271  0.0334
24327SOL    HW284961  11.254  10.326  11.572 -1.2295 -0.1928  0.0813
24328SOL     OW84962   9.081   1.555   8.831 -0.2240  0.4973  0.6451
24328SOL    HW184963   9.106   1.581   8.742  0.7167 -1.2275  0.3460
24328SOL    HW284964   9.029   1.628   8.864 -0.0067  1.4856 -1.0652
24329SOL     OW84965   0.220   6.731  11.788 -0.0020 -0.3316  0.1047
24329SOL    HW184966   0.278   6.791  11.835 -0.4734 -1.2141  1.8959
24329SOL    HW284967   0.132   6.755  11.818 -0.3266 -0.8467 -0.4259
24330SOL     OW84968   4.683  14.026   2.268  0.4781  0.2060  0.1484
24330SOL    HW184969   4.710  14.089   2.334 -2.0546  1.3460  0.2224
24330SOL    HW284970   4.613  14.070   2.220 -0.4205 -2.0435 -0.7471
24331SOL     OW84971   0.702   2.819  10.050 -0.2796 -0.4996 -0.7854
24331SOL    HW184972   0.725   2.747   9.991 -3.7643 -2.8378  0.3739
24331SOL    HW284973   0.614   2.845  10.023  0.5307  2.9614 -0.6390
24332SOL     OW84974   0.124   6.150   2.018 -0.3894  0.3946 -0.0069
24332SOL    HW184975   0.181   6.201   2.076 -1.7024  0.7663  1.0166
24332SOL    HW284976   0.152   6.060   2.030  1.2349  0.7399 -1.0015
24333SOL     OW84977  11.805  10.329  13.632  0.3927  0.1969  0.4272
24333SOL    HW184978  11.784  10.367  13.547 -0.0420  1.6704  1.1597
24333SOL    HW284979  11.881  10.274  13.616  0.0877  0.1473 -0.9757
24334SOL     OW84980  12.095   9.232   1.675 -0.3869 -0.3947  0.1025
24334SOL    HW184981  12.089   9.305   1.736 -0.3989 -0.8234  0.6235
24334SOL    HW284982  12.070   9.268   1.590 -3.0877 -0.4039  0.8319
24335SOL     OW84983   4.989   4.253   4.682 -0.9796  0.7403  0.2755
24335SOL    HW184984   4.979   4.193   4.608  0.6561  1.1799 -0.3426
24335SOL    HW284985   4.899   4.274   4.708 -1.6085  0.6977 -1.6893
24336SOL     OW84986   0.788   7.140   4.601  0.5256 -0.8272  0.1729
24336SOL    HW184987   0.808   7.063   4.548  0.7580 -0.2172 -0.6383
24336SOL    HW284988   0.874   7.175   4.627  0.4262 -0.7255  0.3729
24337SOL     OW84989   1.833   8.386   0.273  0.1089  0.1742 -0.0317
24337SOL    HW184990   1.845   8.307   0.220 -3.5768 -1.0273  0.6046
24337SOL    HW284991   1.904   8.444   0.246  1.3499 -2.2803 -2.5721
24338SOL     OW84992  12.606   2.450   1.618  0.0628 -0.2833  0.0176
24338SOL    HW184993  12.626   2.389   1.689  0.2332  0.9737  1.0983
24338SOL    HW284994  12.568   2.527   1.662 -0.0362  0.4408 -1.2722
24339SOL     OW84995   4.702  12.424   7.137  0.3089 -0.0604 -0.0243
24339SOL    HW184996   4.655  12.393   7.215  1.0818  1.5134  1.1392
24339SOL    HW284997   4.678  12.516   7.130  1.9597  0.3808 -0.3167
24340SOL     OW84998   1.078   1.646  10.918  0.2107  0.4194 -0.7963
24340SOL    HW184999   1.026   1.657  10.838  0.1905  0.7581 -0.7401
24340SOL    HW285000   1.089   1.552  10.927 -3.3460  0.0403  1.0641
24341SOL     OW85001   1.108   2.081   2.658 -0.3177 -0.0193 -0.3432
24341SOL    HW185002   1.151   1.998   2.638  0.3962 -0.2801  1.9896
24341SOL    HW285003   1.028   2.080   2.605 -0.4268 -2.2875 -0.2375
24342SOL     OW85004   1.431   3.344   2.800 -0.0915  0.8575  0.7541
24342SOL    HW185005   1.441   3.249   2.794  0.7640  1.0181 -1.2819
24342SOL    HW285006   1.500   3.372   2.860 -0.2864  0.2207  1.2889
24343SOL     OW85007   8.832   7.235   3.298  0.8920  0.4537 -0.4764
24343SOL    HW185008   8.781   7.293   3.242 -0.3060 -0.3925 -0.3065
24343SOL    HW285009   8.844   7.156   3.245  1.1912  0.2727 -0.1461
24344SOL     OW85010  11.773   4.492  12.759 -0.0463  0.0828 -0.3278
24344SOL    HW185011  11.736   4.473  12.844  0.5593 -0.9584 -0.2771
24344SOL    HW285012  11.722   4.565  12.725  0.2830  1.1033  1.3053
24345SOL     OW85013   5.504  12.438   3.164 -0.6412 -0.5917  0.5026
24345SOL    HW185014   5.476  12.518   3.120  0.3152 -0.2160  0.5390
24345SOL    HW285015   5.597  12.431   3.142 -0.9045 -2.2001 -0.2632
24346SOL     OW85016   7.801   6.473   8.455  0.4107  0.0086  0.0901
24346SOL    HW185017   7.750   6.395   8.435 -1.6218  1.4364 -0.7447
24346SOL    HW285018   7.854   6.489   8.378  0.3351 -0.1951 -0.0029
24347SOL     OW85019  10.571  13.954   5.367 -0.2368 -0.4078  0.3430
24347SOL    HW185020  10.575  13.859   5.359 -0.1948 -0.3182 -0.7362
24347SOL    HW285021  10.635  13.974   5.436 -0.8016 -1.2156  1.1305
24348SOL     OW85022   1.910  13.650   2.170  0.2325 -0.2601  0.1533
24348SOL    HW185023   1.848  13.697   2.226 -2.3388 -1.9858 -1.0774
24348SOL    HW285024   1.930  13.711   2.099  0.8324  0.6755  1.0825
24349SOL     OW85025   7.297   5.574   6.294 -0.4239 -0.1519  0.6957
24349SOL    HW185026   7.203   5.564   6.279 -0.0949  1.0547 -3.3449
24349SOL    HW285027   7.334   5.488   6.272 -0.4672 -0.1153  0.4724
24350SOL     OW85028  10.717   2.934   6.590  0.4007  0.1297 -0.1671
24350SOL    HW185029  10.794   2.879   6.607 -0.4990 -1.2718 -0.4486
24350SOL    HW285030  10.643   2.883   6.622 -0.7453  0.0237 -2.6998
24351SOL     OW85031   7.945   6.614   4.457  0.0938 -0.3322  0.2601
24351SOL    HW185032   7.971   6.634   4.367  1.9135  2.1590  1.2343
24351SOL    HW285033   7.894   6.690   4.485 -0.6661 -1.1833  1.2760
24352SOL     OW85034  12.851   4.031   9.866 -0.2623  0.2100  0.5733
24352SOL    HW185035  12.799   4.085   9.924 -0.3564 -0.1057  0.7887
24352SOL    HW285036  12.872   4.087   9.791 -1.3608  0.1865  0.2314
24353SOL     OW85037   0.498  11.616  13.703  0.3011 -0.1745 -0.0436
24353SOL    HW185038   0.563  11.612  13.774  0.1231 -1.2552  0.0748
24353SOL    HW285039   0.424  11.662  13.741  0.0303 -1.1371  0.6470
24354SOL     OW85040   8.666   2.970   7.961  0.5598 -0.3048 -0.5844
24354SOL    HW185041   8.585   2.939   7.923  0.8772 -0.3220 -1.2644
24354SOL    HW285042   8.640   3.043   8.017 -0.1977 -1.7827  1.0832
24355SOL     OW85043   2.319   6.337   5.909 -0.0926  0.6341  0.4389
24355SOL    HW185044   2.379   6.268   5.881 -0.0455  0.7359  0.2855
24355SOL    HW285045   2.271   6.299   5.982 -1.0027 -0.0278 -0.4886
24356SOL     OW85046   7.813  10.868   4.522 -0.6347  0.4125  0.1893
24356SOL    HW185047   7.872  10.942   4.510 -0.3917  0.1888 -0.0054
24356SOL    HW285048   7.799  10.864   4.617  1.5104 -0.9266  0.5310
24357SOL     OW85049   8.484   1.277   0.298  0.3245  0.0163  0.2143
24357SOL    HW185050   8.428   1.214   0.342  0.5581  0.2707  0.8937
24357SOL    HW285051   8.492   1.350   0.360 -0.1426  0.8268 -0.6547
24358SOL     OW85052   4.005   3.022   5.532 -0.1969  0.4626 -0.4864
24358SOL    HW185053   3.913   3.020   5.558 -0.2616 -0.4643 -0.7731
24358SOL    HW285054   4.023   3.115   5.516 -0.8471  0.7470  0.3725
24359SOL     OW85055  12.549   6.017   4.108 -0.2000  0.7660  0.0182
24359SOL    HW185056  12.533   5.923   4.114  0.1972  0.7890  2.2684
24359SOL    HW285057  12.632   6.031   4.155 -0.6841  2.3276  0.4810
24360SOL     OW85058   4.414   5.698   2.696 -0.0283  0.2804 -0.1957
24360SOL    HW185059   4.468   5.750   2.755  0.3274  0.4537 -0.6670
24360SOL    HW285060   4.438   5.729   2.609 -1.7499  1.2200 -0.3858
24361SOL     OW85061   8.808   4.853  13.905  0.2254  0.4593 -0.6771
24361SOL    HW185062   8.745   4.819  13.969 -1.5363  0.3501 -2.3645
24361SOL    HW285063   8.877   4.787  13.902 -0.2670 -0.1157  0.2429
24362SOL     OW85064   3.296   2.352  13.154 -0.3489 -0.1996 -0.1119
24362SOL    HW185065   3.323   2.397  13.234 -1.6941  0.5837 -0.0630
24362SOL    HW285066   3.365   2.289  13.137  0.7005  0.6631  0.8306
24363SOL     OW85067  11.998   4.463   6.036 -0.0688 -0.1569 -0.0526
24363SOL    HW185068  11.954   4.547   6.021 -1.1533 -0.4717  1.2596
24363SOL    HW285069  11.980   4.442   6.127  0.8036 -1.4860 -0.1597
24364SOL     OW85070   4.569   2.955   4.858 -0.0082 -0.5505 -0.2444
24364SOL    HW185071   4.512   3.031   4.847  0.9310 -0.0195 -1.9166
24364SOL    HW285072   4.551   2.900   4.782 -0.3350 -1.7968  0.7029
24365SOL     OW85073   2.673   1.191   3.382 -0.1809  0.8117 -0.1646
24365SOL    HW185074   2.696   1.141   3.304 -2.3599 -2.3874  1.0278
24365SOL    HW285075   2.621   1.130   3.435 -1.3261  3.7691  2.4311
24366SOL     OW85076   5.300   6.360   2.659  0.1138  0.1285  0.0155
24366SOL    HW185077   5.358   6.350   2.582 -1.1439  0.3911 -0.9965
24366SOL    HW285078   5.212   6.365   2.622 -0.7889 -2.1727  1.6437
24367SOL     OW85079  12.926   1.422  10.525  0.3218  0.3092 -0.1815
24367SOL    HW185080  12.892   1.500  10.570 -0.2217 -0.2379  0.3668
24367SOL    HW285081  13.013   1.408  10.564 -0.1587 -0.1789  0.7407
24368SOL     OW85082   1.518   9.669   6.619 -0.3671 -0.1623 -0.0165
24368SOL    HW185083   1.499   9.748   6.568  0.5580 -0.2742 -0.5610
24368SOL    HW285084   1.432   9.630   6.636 -0.7565  0.3750 -0.6922
24369SOL     OW85085   3.351   1.700   6.939 -0.1261 -0.3121 -0.0732
24369SOL    HW185086   3.409   1.644   6.888  1.1774  0.7019  0.2284
24369SOL    HW285087   3.339   1.778   6.884 -0.4215 -0.1164  0.2656
24370SOL     OW85088  10.841   7.435   7.469 -0.1369  0.0359  0.1098
24370SOL    HW185089  10.774   7.446   7.536  1.1030 -1.0144  1.5859
24370SOL    HW285090  10.792   7.420   7.388 -1.6753  1.8123  0.6433
24371SOL     OW85091   8.817   3.496  14.018  0.0313 -0.4645 -0.0256
24371SOL    HW185092   8.723   3.510  14.017 -0.0597 -1.0517  0.0229
24371SOL    HW285093   8.848   3.533  13.936  0.0006  1.3076  0.7096
24372SOL     OW85094  10.602   6.710   9.217  0.2270  0.3540  0.6332
24372SOL    HW185095  10.527   6.650   9.217 -0.0785  0.7063 -0.5269
24372SOL    HW285096  10.677   6.652   9.229 -0.0403 -0.3465 -0.7320
24373SOL     OW85097   3.196   1.802   3.833 -0.0716  0.2930 -0.2283
24373SOL    HW185098   3.111   1.809   3.875  0.1073  0.6157  0.0797
24373SOL    HW285099   3.255   1.773   3.903  0.0259 -0.1723 -0.4957
24374SOL     OW85100  11.813   5.956   4.097 -0.0734 -0.4268  0.2385
24374SOL    HW185101  11.784   5.958   4.006  0.9994  3.1625 -0.1943
24374SOL    HW285102  11.901   5.919   4.093  1.3237  2.7085 -0.8172
24375SOL     OW85103   8.336  12.329  10.059  0.3841 -0.0518  0.0664
24375SOL    HW185104   8.382  12.247  10.073  0.2651  0.0199  0.9235
24375SOL    HW285105   8.379  12.391  10.118  1.1315  0.7667 -1.2813
24376SOL     OW85106   6.875   9.773   7.339 -0.1160 -0.0278  0.3878
24376SOL    HW185107   6.936   9.739   7.404 -0.7808 -0.8370  0.6080
24376SOL    HW285108   6.919   9.761   7.255  2.0932  3.7790  0.7538
24377SOL     OW85109  12.365   7.200   7.164  0.4161  0.0250  0.2362
24377SOL    HW185110  12.406   7.114   7.173  2.5384  1.0821  1.3348
24377SOL    HW285111  12.427   7.252   7.113  0.4861  1.6619  1.8885
24378SOL     OW85112  13.202  13.707   2.343  0.1851  0.7335  0.8541
24378SOL    HW185113  13.130  13.719   2.405 -1.0023  1.3514 -0.5901
24378SOL    HW285114  13.273  13.759   2.379 -0.5689  1.3070  1.5549
24379SOL     OW85115  10.726   0.651  13.855 -0.0553  0.4342  0.2891
24379SOL    HW185116  10.759   0.588  13.792  0.4891 -0.0328  1.0336
24379SOL    HW285117  10.716   0.732  13.805 -0.7679 -0.2268 -0.6742
24380SOL     OW85118   3.315  11.587   8.376  0.2096  0.6326  0.4217
24380SOL    HW185119   3.240  11.577   8.434  0.1714 -0.8326  0.1554
24380SOL    HW285120   3.391  11.581   8.434  0.2654 -3.1012  0.2037
24381SOL     OW85121  12.404   0.968  13.947  0.7412 -0.3500 -0.0814
24381SOL    HW185122  12.451   0.905  14.001  1.3056  0.1964  0.0822
24381SOL    HW285123  12.463   0.985  13.873  1.1535  0.8810  0.4930
24382SOL     OW85124  13.491  12.531   7.333  0.2267  0.2553  0.2633
24382SOL    HW185125  13.477  12.611   7.384  0.4192  0.0247  0.6785
24382SOL    HW285126  13.414  12.477   7.351  0.4618  0.0273  0.5870
24383SOL     OW85127  12.724  10.568  12.585  0.0821 -0.3372  0.2222
24383SOL    HW185128  12.791  10.561  12.653 -0.4486  0.0790  0.8039
24383SOL    HW285129  12.670  10.490  12.597 -2.2633  1.4850  2.7944
24384SOL     OW85130  11.782   0.409   0.590  0.0462 -0.8876  0.4250
24384SOL    HW185131  11.745   0.477   0.647 -0.2139 -0.6742  0.0138
24384SOL    HW285132  11.755   0.436   0.502  1.0739 -0.7996  0.1208
24385SOL     OW85133   8.193   7.541   0.558  0.1218  0.1359 -0.3625
24385SOL    HW185134   8.193   7.636   0.568  0.8703  0.5346 -3.3062
24385SOL    HW285135   8.119   7.524   0.499  0.5587 -1.0128 -0.5914
24386SOL     OW85136   4.464  12.365   6.590  0.6279  0.2226 -0.1783
24386SOL    HW185137   4.488  12.456   6.574 -0.0415  0.1825 -1.5777
24386SOL    HW285138   4.380  12.369   6.635  0.3532  0.2987 -0.6934
24387SOL     OW85139  13.749   8.100   9.425  0.0328 -0.3521 -0.8161
24387SOL    HW185140  13.737   8.058   9.339 -0.2111  0.6283 -1.2704
24387SOL    HW285141  13.674   8.159   9.433  0.2103 -0.2233 -0.0445
24388SOL     OW85142   9.715   4.384   2.036  0.2401 -0.1057  0.1634
24388SOL    HW185143   9.640   4.421   1.989  0.6904  0.0475 -0.4369
24388SOL    HW285144   9.678   4.312   2.087 -0.4736  0.5194  0.5621
24389SOL     OW85145  13.882   1.226   7.850 -0.2787  0.1114  0.0244
24389SOL    HW185146  13.909   1.225   7.758 -0.4143 -0.8109 -0.0181
24389SOL    HW285147  13.856   1.316   7.866 -1.1515  0.0975 -1.1179
24390SOL     OW85148   9.649  11.139   9.830 -0.7676  0.5097 -0.0592
24390SOL    HW185149   9.608  11.083   9.896 -1.9042  1.8966  0.4777
24390SOL    HW285150   9.588  11.213   9.820  0.5079  1.4926 -0.9587
24391SOL     OW85151  12.474   3.051  13.308  0.0525  0.5091 -0.9170
24391SOL    HW185152  12.416   3.060  13.232  1.7038 -2.0322 -2.6294
24391SOL    HW285153  12.517   3.136  13.314 -2.7902  2.0689 -0.3355
24392SOL     OW85154   6.504   6.177   7.920 -0.6826  0.4008  0.0620
24392SOL    HW185155   6.464   6.094   7.896 -0.5220  0.0919  0.8363
24392SOL    HW285156   6.473   6.194   8.009  0.9618  0.0995  0.7239
24393SOL     OW85157   6.511   7.192   7.752  0.2478  0.2887 -0.2654
24393SOL    HW185158   6.555   7.224   7.674  0.7636  0.3345  0.0425
24393SOL    HW285159   6.578   7.193   7.820 -0.0948 -0.1261  0.0838
24394SOL     OW85160   6.237  13.285   7.692  0.1743  0.2913  0.4602
24394SOL    HW185161   6.183  13.363   7.682 -1.4957 -0.6896  1.2835
24394SOL    HW285162   6.293  13.303   7.767 -0.4263  0.5872  0.8399
24395SOL     OW85163   4.346   5.452   1.324  0.0081 -0.2302  0.0143
24395SOL    HW185164   4.423   5.417   1.281 -0.4830  0.0351 -1.1242
24395SOL    HW285165   4.331   5.394   1.399  0.3541 -1.2559 -0.6964
24396SOL     OW85166  14.036   0.938   9.712 -0.1488  0.1231 -0.1014
24396SOL    HW185167  14.076   0.896   9.788 -0.2667  2.1822  1.1830
24396SOL    HW285168  13.942   0.936   9.730 -0.0823  2.1236  0.7096
24397SOL     OW85169   7.181   5.415   4.899 -0.0226  0.4474  0.3739
24397SOL    HW185170   7.217   5.327   4.894  0.2356  0.5733 -0.0905
24397SOL    HW285171   7.154   5.435   4.809  0.3116  1.0039  0.3909
24398SOL     OW85172   1.000   9.436   7.881  0.2782 -0.0408  0.2042
24398SOL    HW185173   1.008   9.342   7.868 -0.2621 -0.3868  2.0736
24398SOL    HW285174   0.910   9.449   7.909 -0.2779  1.3272 -1.9471
24399SOL     OW85175  10.370  11.138   2.107 -0.0289 -0.2989 -0.1299
24399SOL    HW185176  10.381  11.046   2.132 -0.2598  0.0528  1.3487
24399SOL    HW285177  10.456  11.163   2.073  0.3970 -0.7382  0.5857
24400SOL     OW85178  12.725  13.604   3.883  0.7220 -0.0028 -0.1158
24400SOL    HW185179  12.728  13.699   3.871 -1.5265  0.1341 -0.0280
24400SOL    HW285180  12.814  13.580   3.907  1.0225  2.2961  1.3529
24401SOL     OW85181   8.823   0.362  11.993  0.2580 -0.0687 -0.7708
24401SOL    HW185182   8.769   0.331  12.066  0.5396 -1.2144 -1.0232
24401SOL    HW285183   8.811   0.457  11.992  1.0113  0.0894  1.3594
24402SOL     OW85184   9.244   8.127   8.626  0.1202 -0.3596 -0.1722
24402SOL    HW185185   9.243   8.056   8.561  3.3857 -0.6903 -0.0026
24402SOL    HW285186   9.320   8.180   8.602  0.1488  0.7344  2.1397
24403SOL     OW85187   1.493  12.631   5.022 -0.5433 -0.0194  0.2379
24403SOL    HW185188   1.479  12.654   5.114 -0.5374  0.0235  0.2280
24403SOL    HW285189   1.405  12.619   4.986 -0.5575  0.2986  0.1628
24404SOL     OW85190   5.316   1.563   8.381  0.0390 -0.2398  0.6392
24404SOL    HW185191   5.323   1.496   8.449 -1.5339  0.2921  1.3815
24404SOL    HW285192   5.334   1.646   8.427 -0.8777  0.1083  0.3880
24405SOL     OW85193   5.889   7.563  13.169  0.2191  0.3779  0.2999
24405SOL    HW185194   5.906   7.611  13.087  1.7160  1.0469  0.9522
24405SOL    HW285195   5.903   7.471  13.146  1.5956  0.6365 -0.0173
24406SOL     OW85196   5.497   9.355   5.378 -0.3168 -0.2272  0.4868
24406SOL    HW185197   5.478   9.347   5.471  1.2682 -1.0968  0.7752
24406SOL    HW285198   5.552   9.280   5.358  1.0593  1.0246 -0.6773
24407SOL     OW85199   4.613   0.126  13.350 -0.1749 -0.0579 -0.0558
24407SOL    HW185200   4.529   0.082  13.342 -0.4819  0.3071  0.9490
24407SOL    HW285201   4.678   0.055  13.349 -0.4640 -0.3170 -1.1205
24408SOL     OW85202   6.072   5.259   6.079  0.0314  0.2264 -0.7037
24408SOL    HW185203   6.140   5.284   6.141  0.4263 -0.7855 -0.7050
24408SOL    HW285204   5.997   5.237   6.133 -0.4002  1.6103 -0.7154
24409SOL     OW85205  10.152   3.621  13.790  0.2337  0.1765  0.1664
24409SOL    HW185206  10.061   3.599  13.768  0.0188 -0.8952  1.9528
24409SOL    HW285207  10.146   3.704  13.837  0.1354  0.0111  0.4520
24410SOL     OW85208   9.154   0.276   1.943  0.4239 -0.0164  0.3852
24410SOL    HW185209   9.102   0.313   2.014 -0.6397  2.0655 -1.3529
24410SOL    HW285210   9.232   0.240   1.986 -1.2397 -1.0161  2.8039
24411SOL     OW85211   2.710  11.707   0.390 -0.3899 -0.2483  0.2293
24411SOL    HW185212   2.661  11.769   0.336 -0.6613  1.4679  2.3220
24411SOL    HW285213   2.768  11.761   0.443  0.6971 -1.9406  0.8443
24412SOL     OW85214  10.251   8.983   7.310 -0.1350  0.6648 -0.3225
24412SOL    HW185215  10.302   9.041   7.367  0.5968  0.1017 -0.3774
24412SOL    HW285216  10.280   9.004   7.222  0.8350 -0.4009 -0.2866
24413SOL     OW85217   9.116   7.833   0.741  0.0654 -0.0422 -0.2486
24413SOL    HW185218   9.192   7.858   0.793 -0.9628 -0.4882  1.5644
24413SOL    HW285219   9.152   7.800   0.659  1.7655  0.4944  0.2459
24414SOL     OW85220   2.807  11.898   9.068  0.0903 -0.0635  1.1651
24414SOL    HW185221   2.762  11.963   9.122  0.6124  0.9669  0.3932
24414SOL    HW285222   2.741  11.868   9.006  0.2965  1.0204  0.4049
24415SOL     OW85223   8.361   3.496   0.559  0.2513  0.0308  0.4486
24415SOL    HW185224   8.311   3.426   0.518 -1.0808  0.8526  0.6226
24415SOL    HW285225   8.296   3.563   0.582  1.6643  2.3271 -1.6645
24416SOL     OW85226  11.800   6.470   3.780  0.0706  0.3134  0.1289
24416SOL    HW185227  11.839   6.472   3.693  0.5641 -0.0475  0.3372
24416SOL    HW285228  11.809   6.379   3.809  1.1090  0.7013  1.0846
24417SOL     OW85229   2.767   1.847   1.871  0.3899  0.0428 -0.1497
24417SOL    HW185230   2.710   1.784   1.826 -0.2554  0.3024  0.2927
24417SOL    HW285231   2.715   1.878   1.945  1.8218 -1.1947  1.4745
24418SOL     OW85232   3.030   3.064   8.509  0.3978 -0.0759 -0.1677
24418SOL    HW185233   3.045   3.158   8.496  1.4906 -0.2552 -0.3350
24418SOL    HW285234   2.946   3.059   8.554  1.7517  1.1910  2.8196
24419SOL     OW85235   2.630   8.365  10.943 -0.1469 -0.0855 -0.1675
24419SOL    HW185236   2.667   8.278  10.929 -0.9444 -0.3060 -0.9274
24419SOL    HW285237   2.707   8.423  10.948  0.3218 -0.5587 -1.5550
24420SOL     OW85238   1.261   9.228   2.155 -0.2448  0.1338 -0.3335
24420SOL    HW185239   1.263   9.294   2.224 -1.9209  0.3396 -0.4285
24420SOL    HW285240   1.169   9.202   2.150  0.3422 -2.1226 -0.3910
24421SOL     OW85241   5.293   8.868   1.462  0.4538 -0.4919  0.1487
24421SOL    HW185242   5.314   8.833   1.549 -0.6852 -1.3778  0.0815
24421SOL    HW285243   5.214   8.821   1.436  0.3548  0.3190 -1.0496
24422SOL     OW85244   2.437   9.362   5.325 -0.2630 -0.4177  0.5334
24422SOL    HW185245   2.394   9.419   5.261  0.2786 -0.9979 -0.3734
24422SOL    HW285246   2.367   9.338   5.386 -0.5337  1.0577  0.8266
24423SOL     OW85247   8.736   3.087  12.528 -0.2671  0.5985  0.0208
24423SOL    HW185248   8.816   3.074  12.477  1.0287  1.2740  1.8078
24423SOL    HW285249   8.685   3.007  12.512  0.4269  0.4470 -1.6772
24424SOL     OW85250  11.756   4.275   8.062 -0.3527  0.3907  0.3212
24424SOL    HW185251  11.696   4.312   8.127 -1.1292  0.0605 -0.1896
24424SOL    HW285252  11.808   4.349   8.032  0.3619  0.4661  1.6691
24425SOL     OW85253  10.217   1.245  12.045 -0.6373 -0.4027 -0.2304
24425SOL    HW185254  10.308   1.236  12.018 -1.1036 -1.3473 -1.6384
24425SOL    HW285255  10.191   1.332  12.015  0.1809  0.4918  1.5091
24426SOL     OW85256   8.988   8.819   4.885 -0.1370 -0.6853 -0.0748
24426SOL    HW185257   8.931   8.796   4.812 -1.1472 -0.9081  0.7617
24426SOL    HW285258   8.951   8.773   4.960  1.7933 -1.7233  0.3008
24427SOL     OW85259   5.069   0.240  11.616 -0.2753 -0.1934 -0.4024
24427SOL    HW185260   5.068   0.333  11.593 -1.8783 -0.3753 -1.1917
24427SOL    HW285261   5.020   0.197  11.546 -0.8433 -1.4403  0.7242
24428SOL     OW85262   3.917   0.381   1.715  0.0437 -0.4321 -0.0657
24428SOL    HW185263   3.989   0.350   1.771 -0.3739  0.1022  0.7916
24428SOL    HW285264   3.838   0.360   1.764 -0.3077  0.6143 -0.1543
24429SOL     OW85265   9.824   9.995  13.900 -0.0698 -0.2431  0.1000
24429SOL    HW185266   9.777   9.936  13.840  0.2887 -0.4409  0.0151
24429SOL    HW285267   9.890  10.037  13.845  1.9620 -2.2870  0.8618
24430SOL     OW85268  11.587   0.147  10.009  0.1841  0.2670 -0.1540
24430SOL    HW185269  11.649   0.217  10.025  0.2250  0.3244 -0.5414
24430SOL    HW285270  11.641   0.071   9.989  0.1631 -0.1090  1.1130
24431SOL     OW85271   7.448   8.806   1.321  0.0481  0.0047 -0.1353
24431SOL    HW185272   7.477   8.739   1.259 -0.7391 -0.6112  0.1494
24431SOL    HW285273   7.408   8.873   1.266 -0.3939 -0.4062 -0.3290
24432SOL     OW85274   7.796  11.478  10.465  0.2002  0.3351  0.5936
24432SOL    HW185275   7.890  11.491  10.478  0.1511  0.3675  0.9281
24432SOL    HW285276   7.773  11.539  10.396  0.5202 -0.0242  0.1647
24433SOL     OW85277   0.925  13.904   4.182 -0.4176 -0.4077 -0.0759
24433SOL    HW185278   0.977  13.832   4.218  1.0413 -0.3738 -1.9674
24433SOL    HW285279   0.875  13.864   4.111  0.4026  0.4092 -1.1415
24434SOL     OW85280   7.211   5.648   8.700  0.7611 -0.1692  0.2911
24434SOL    HW185281   7.145   5.593   8.658 -0.0201  1.7898 -1.2010
24434SOL    HW285282   7.295   5.613   8.670  0.3083 -0.8399 -0.2197
24435SOL     OW85283   8.608  11.298  11.040  0.5400  0.0018 -0.0093
24435SOL    HW185284   8.598  11.305  11.135 -0.1145 -1.1564  0.0297
24435SOL    HW285285   8.653  11.378  11.014  1.2325  0.0719  1.3492
24436SOL     OW85286   4.665  11.571   6.395 -0.5676 -0.1978 -0.2041
24436SOL    HW185287   4.733  11.533   6.339 -0.1202  0.5254 -0.1621
24436SOL    HW285288   4.651  11.659   6.360  0.5350  0.6934  1.5052
24437SOL     OW85289   1.559   0.083   9.168  0.0717  0.0501 -0.4167
24437SOL    HW185290   1.572   0.046   9.080  0.2548 -0.6890 -0.0793
24437SOL    HW285291   1.467   0.109   9.170 -0.4728 -1.7892 -0.1361
24438SOL     OW85292   7.780   3.012   0.260 -0.3809  0.1189  0.3750
24438SOL    HW185293   7.738   2.933   0.226 -0.4236  0.2763  0.0558
24438SOL    HW285294   7.786   3.070   0.184  1.1299 -0.1949  0.2287
24439SOL     OW85295  13.061   0.778   8.761 -0.2577 -0.0287  0.2561
24439SOL    HW185296  13.110   0.696   8.759 -1.4434 -0.7342 -1.5430
24439SOL    HW285297  12.972   0.753   8.784 -0.2210  1.0334  1.6965
24440SOL     OW85298   7.190   6.858   8.109 -0.1809  0.3707 -0.1362
24440SOL    HW185299   7.144   6.941   8.097 -0.5307  0.4826  1.6938
24440SOL    HW285300   7.121   6.792   8.106 -0.5190  0.5233  2.4262
24441SOL     OW85301   9.942   0.104  12.049  0.5684 -0.0262 -0.4452
24441SOL    HW185302   9.918   0.117  12.141  0.5580 -0.3676 -0.4008
24441SOL    HW285303  10.033   0.133  12.044  0.8843 -0.9204 -0.1147
24442SOL     OW85304   5.416   5.843  11.814  0.2393  0.2879  0.3892
24442SOL    HW185305   5.427   5.922  11.761  2.7474  0.4938  1.0755
24442SOL    HW285306   5.327   5.849  11.848  0.0037  2.2726 -0.4505
24443SOL     OW85307   9.488  13.539   9.727 -0.7265  0.4724  0.0723
24443SOL    HW185308   9.556  13.606   9.721  0.4310 -0.6552  0.1655
24443SOL    HW285309   9.527  13.470   9.782 -1.2066 -1.0274 -1.3797
24444SOL     OW85310  12.492   2.575   2.631 -0.6327 -0.1736  0.1189
24444SOL    HW185311  12.429   2.647   2.632 -1.3657 -0.7940  0.0465
24444SOL    HW285312  12.447   2.505   2.583  0.3339 -0.4393 -0.4314
24445SOL     OW85313   6.841   5.411   0.078 -0.3206 -0.0312  0.0288
24445SOL    HW185314   6.902   5.344   0.108  0.0052 -0.3818 -1.3437
24445SOL    HW285315   6.761   5.396   0.128  0.3372 -0.2862  1.0306
24446SOL     OW85316  10.995   2.031   1.023  0.6064 -0.1180 -0.1295
24446SOL    HW185317  10.974   2.103   0.964 -0.1499  0.0317  0.3065
24446SOL    HW285318  11.053   1.974   0.973  1.1284  0.7442 -0.5123
24447SOL     OW85319   3.929  13.003  10.248  0.5126 -0.3283 -0.6433
24447SOL    HW185320   3.978  13.044  10.177 -0.5607  1.5439 -0.3523
24447SOL    HW285321   3.877  12.935  10.204 -1.2638  1.7601 -1.9716
24448SOL     OW85322   5.755   1.028   4.550 -0.2505  0.2548 -0.9415
24448SOL    HW185323   5.757   1.018   4.455 -0.3291  0.2857 -0.9459
24448SOL    HW285324   5.691   1.097   4.567  0.0350  0.5076 -0.8866
24449SOL     OW85325   1.174  13.838   5.581 -0.1753 -0.8622  0.9876
24449SOL    HW185326   1.255  13.797   5.609  1.2596  0.6478 -0.6650
24449SOL    HW285327   1.153  13.795   5.498  0.4195  0.5114  0.0923
24450SOL     OW85328   2.580   5.241   6.588 -0.1733  0.3142 -0.1929
24450SOL    HW185329   2.528   5.239   6.668 -0.5202  1.3352 -0.3786
24450SOL    HW285330   2.521   5.208   6.520  0.2148 -0.8361  0.0022
24451SOL     OW85331   5.814   0.362   7.769  0.2245 -0.2263 -0.1003
24451SOL    HW185332   5.840   0.434   7.712 -1.3006 -0.1357 -0.7250
24451SOL    HW285333   5.838   0.392   7.857 -1.5630  1.6621 -0.1780
24452SOL     OW85334   3.158   4.508   9.615 -0.2335 -1.1066  0.3700
24452SOL    HW185335   3.250   4.481   9.622  0.0349 -0.4730 -0.4925
24452SOL    HW285336   3.133   4.530   9.705  0.8147 -0.1891  0.4618
24453SOL     OW85337   8.014  12.029   0.606 -0.1429  0.3862  0.5434
24453SOL    HW185338   8.022  12.042   0.511 -1.2837 -2.4181 -0.0347
24453SOL    HW285339   7.920  12.031   0.623  0.0932  2.0260  1.8592
24454SOL     OW85340   9.032  11.726  10.520  0.3202 -0.1735 -0.1312
24454SOL    HW185341   9.052  11.817  10.495  0.7119 -0.2521 -0.1234
24454SOL    HW285342   9.117  11.690  10.546  0.1887 -0.5872 -0.2719
24455SOL     OW85343   3.015   7.000   8.777 -0.6298 -0.0942  0.3625
24455SOL    HW185344   3.018   6.981   8.683 -1.5597  0.0921  0.2823
24455SOL    HW285345   3.056   6.924   8.818  1.3491  0.5871 -0.2674
24456SOL     OW85346   6.058  10.733   1.864 -0.7452 -0.1123  0.0839
24456SOL    HW185347   5.986  10.797   1.867 -2.0202 -1.4640 -0.5284
24456SOL    HW285348   6.104  10.744   1.947  0.2150  2.8190 -0.7015
24457SOL     OW85349   4.108   1.845  13.339  0.8248  0.5004 -0.1588
24457SOL    HW185350   4.104   1.850  13.244  0.0130  0.8852 -0.1079
24457SOL    HW285351   4.153   1.762  13.356 -1.5775 -1.0675 -0.8862
24458SOL     OW85352   4.345   4.955   2.643  0.1363 -0.3196  0.2635
24458SOL    HW185353   4.381   4.948   2.554 -1.2182 -0.6209 -0.2891
24458SOL    HW285354   4.257   4.989   2.630  0.1092  0.1286  1.5495
24459SOL     OW85355   3.127   2.143   3.575  0.1243  0.8439 -0.1070
24459SOL    HW185356   3.042   2.100   3.581  0.0049  1.3095  2.5947
24459SOL    HW285357   3.182   2.080   3.530 -1.5411  0.4310 -1.6925
24460SOL     OW85358   6.652   9.330   9.734  0.0334  0.0792 -0.0771
24460SOL    HW185359   6.704   9.402   9.698 -1.2368  0.1014 -1.9773
24460SOL    HW285360   6.608   9.367   9.810  0.8751  0.7372  0.1054
24461SOL     OW85361   3.457   2.011   4.358 -0.4567  0.1165  0.0939
24461SOL    HW185362   3.384   2.066   4.329 -0.8863 -0.1996  0.5497
24461SOL    HW285363   3.441   1.998   4.451 -1.1914 -1.9684 -0.2502
24462SOL     OW85364   6.719  12.772  13.541 -0.4483 -0.2561  0.1020
24462SOL    HW185365   6.650  12.740  13.483  0.5068  1.6005 -2.2070
24462SOL    HW285366   6.798  12.728  13.511  0.0955  0.8859 -0.1946
24463SOL     OW85367   8.253  12.568  13.884  0.1842  0.1427  0.0188
24463SOL    HW185368   8.275  12.496  13.825  1.7331  1.2989 -0.8971
24463SOL    HW285369   8.337  12.595  13.921 -0.2263  1.9709 -0.2730
24464SOL     OW85370  12.144  11.255   2.294 -0.3940  0.1080 -0.0911
24464SOL    HW185371  12.234  11.266   2.324 -0.6946  1.1061  0.5042
24464SOL    HW285372  12.094  11.236   2.373 -0.4903 -2.0705 -0.6232
24465SOL     OW85373   5.942   2.739   3.578  0.2249  0.3091 -0.1197
24465SOL    HW185374   6.017   2.794   3.557 -0.7529  1.3389 -1.0489
24465SOL    HW285375   5.904   2.716   3.493 -0.5144 -0.1826  0.3292
24466SOL     OW85376  10.620   7.043   6.714  0.4097  0.0153 -0.4902
24466SOL    HW185377  10.704   7.010   6.681  0.8297  0.4546  0.1076
24466SOL    HW285378  10.572   7.069   6.635  1.7874  2.0111 -0.7723
24467SOL     OW85379   0.363  10.048   2.465  0.1101 -0.0827 -0.0496
24467SOL    HW185380   0.434  10.102   2.501 -0.7843  1.3851 -0.3907
24467SOL    HW285381   0.283  10.089   2.499 -0.6011 -1.3889 -0.1034
24468SOL     OW85382  13.130   5.879  11.245 -0.3092  0.6612 -0.0165
24468SOL    HW185383  13.205   5.838  11.201 -0.4848  0.7045 -0.3583
24468SOL    HW285384  13.150   5.872  11.339 -0.5302 -0.5792 -0.0442
24469SOL     OW85385   9.382   6.529  11.366 -0.0684  0.2275  0.6474
24469SOL    HW185386   9.313   6.589  11.337  0.1861  1.2008  1.9554
24469SOL    HW285387   9.401   6.477  11.289 -0.8196  1.3328 -0.3403
24470SOL     OW85388   8.121  10.629  10.480  0.1142 -0.6877  0.0764
24470SOL    HW185389   8.085  10.671  10.402 -1.4247 -2.0590  0.0104
24470SOL    HW285390   8.196  10.579  10.448 -0.1763 -0.8057 -0.4189
24471SOL     OW85391  13.939  10.871   1.580 -0.5110 -0.8080 -0.2428
24471SOL    HW185392  13.968  10.875   1.489 -0.6248 -0.8365 -0.2796
24471SOL    HW285393  13.985  10.944   1.623 -0.4913 -0.7693 -0.3313
24472SOL     OW85394   7.342   8.759   7.741 -0.4282  0.2529  0.5366
24472SOL    HW185395   7.387   8.679   7.766  0.0927  0.4679  0.3110
24472SOL    HW285396   7.322   8.747   7.648  1.4175  1.1724 -0.0294
24473SOL     OW85397   1.754   8.446   4.799 -0.8004 -0.2314 -0.3360
24473SOL    HW185398   1.785   8.454   4.709  0.7483  0.3095  0.2217
24473SOL    HW285399   1.738   8.536   4.827  2.8081  0.0605  1.2563
24474SOL     OW85400   9.522   5.406  12.306  0.2392 -0.1239 -0.1174
24474SOL    HW185401   9.465   5.475  12.273  0.5141 -0.4882 -1.4070
24474SOL    HW285402   9.566   5.445  12.381  0.4489  1.1365 -0.8666
24475SOL     OW85403   9.616   0.219   4.992  0.1349 -0.5577 -0.5154
24475SOL    HW185404   9.630   0.261   5.076 -1.6253 -2.1350  0.6570
24475SOL    HW285405   9.693   0.163   4.979  0.4380 -0.2662  0.0084
24476SOL     OW85406  11.819   0.682  10.313 -0.1759 -0.4040  0.1904
24476SOL    HW185407  11.860   0.640  10.238  0.8021 -0.7037  0.8587
24476SOL    HW285408  11.809   0.774  10.288  1.0442 -0.2974  0.0350
24477SOL     OW85409   7.195   8.636   1.195  0.2950 -0.6842  0.8076
24477SOL    HW185410   7.197   8.610   1.287  0.8938 -1.5077  0.5720
24477SOL    HW285411   7.286   8.641   1.169  0.1240 -0.6523  0.2012
24478SOL     OW85412   1.543  13.410   2.909  0.2194  0.0539 -0.0213
24478SOL    HW185413   1.558  13.401   3.003 -1.0803 -1.2943  0.1083
24478SOL    HW285414   1.553  13.320   2.876  0.4230  0.4781 -1.1294
24479SOL     OW85415  10.946   6.632   4.361  0.4684 -0.0698 -0.1601
24479SOL    HW185416  11.037   6.647   4.389  0.6411 -1.7922  0.3165
24479SOL    HW285417  10.894   6.691   4.416  1.3819  2.1437 -1.5544
24480SOL     OW85418   8.161  12.266   1.350  0.5935 -0.1116 -0.4532
24480SOL    HW185419   8.232  12.322   1.318 -0.2408  1.5012  0.3730
24480SOL    HW285420   8.094  12.328   1.380 -1.3038 -1.5792 -1.4928
24481SOL     OW85421   1.883   7.021   2.077  0.3391  0.5517  0.0739
24481SOL    HW185422   1.822   6.966   2.028 -0.0345 -0.2041  1.3234
24481SOL    HW285423   1.829   7.062   2.145  0.8596  1.4538 -0.0496
24482SOL     OW85424  10.391   6.977  11.140  0.0925  0.1696 -0.3133
24482SOL    HW185425  10.334   7.021  11.078  0.3812 -1.3050 -1.6797
24482SOL    HW285426  10.341   6.977  11.222 -1.5535 -0.4012 -1.2736
24483SOL     OW85427   7.726   9.318   5.554 -0.0789  0.3916 -0.4248
24483SOL    HW185428   7.659   9.293   5.492 -0.0213 -0.5200 -0.1376
24483SOL    HW285429   7.809   9.299   5.509 -0.0357 -0.0124 -0.1838
24484SOL     OW85430   3.092   1.649  13.072  0.1172  0.2089 -0.3369
24484SOL    HW185431   3.178   1.622  13.041 -0.4966  0.0381 -1.9830
24484SOL    HW285432   3.030   1.595  13.021 -0.9590 -0.1523  1.2721
24485SOL     OW85433   2.714   4.865  12.273 -0.0297  0.7107  0.5069
24485SOL    HW185434   2.633   4.892  12.316  0.1365  0.7813  0.7803
24485SOL    HW285435   2.686   4.823  12.192 -0.3298  0.8898  0.5193
24486SOL     OW85436  13.374  13.816   8.234  0.6031 -0.5857  0.0929
24486SOL    HW185437  13.423  13.792   8.155 -2.7958 -2.3038 -1.6838
24486SOL    HW285438  13.336  13.734   8.265 -0.6521  0.5485  1.7530
24487SOL     OW85439   1.231   2.935   9.554  0.9651 -0.0915 -0.2174
24487SOL    HW185440   1.286   2.938   9.631 -0.0482  0.1990  0.5133
24487SOL    HW285441   1.236   3.023   9.516 -1.0837  0.8101  1.3897
24488SOL     OW85442   0.531  11.266   3.625  0.2330 -0.1008 -0.2024
24488SOL    HW185443   0.521  11.219   3.542 -0.0308 -1.5435  0.6204
24488SOL    HW285444   0.461  11.332   3.623 -1.3199 -1.6648 -0.1466
24489SOL     OW85445   9.467  12.154   8.158  0.7880 -0.0369 -0.1916
24489SOL    HW185446   9.496  12.066   8.181 -0.7098 -0.3022  0.8961
24489SOL    HW285447   9.546  12.208   8.161  1.4039 -0.9622  1.1742
24490SOL     OW85448   3.578   5.399   7.607  0.3520  0.2907  0.4582
24490SOL    HW185449   3.646   5.439   7.662  1.1087 -0.2281 -0.0632
24490SOL    HW285450   3.502   5.456   7.617  0.3073 -0.0724  2.4025
24491SOL     OW85451   3.590   9.093   2.362 -0.0901  0.1542 -0.5269
24491SOL    HW185452   3.593   9.101   2.267 -0.6121 -0.5707 -0.6148
24491SOL    HW285453   3.681   9.096   2.390 -0.0113  2.0528 -0.8870
24492SOL     OW85454   1.300   5.074   7.876  0.1039  0.2828 -0.0339
24492SOL    HW185455   1.338   4.987   7.861  3.7733  1.4907  1.2035
24492SOL    HW285456   1.241   5.086   7.802  2.1985 -1.8848 -2.2903
24493SOL     OW85457   7.149   4.341   3.117 -0.2788  0.4191 -0.2290
24493SOL    HW185458   7.164   4.264   3.173  1.7401 -0.1335 -1.3919
24493SOL    HW285459   7.082   4.312   3.054 -1.3107  0.4708  0.8206
24494SOL     OW85460   1.146   2.044   2.110 -0.1867 -0.3139 -0.9516
24494SOL    HW185461   1.089   2.064   2.036 -0.9803 -1.7848 -0.7676
24494SOL    HW285462   1.176   1.955   2.095  0.0106 -0.4737  0.2467
24495SOL     OW85463   5.011   3.529   2.554  0.3941 -0.3448  0.3400
24495SOL    HW185464   4.918   3.538   2.532 -0.0712  1.8768  2.7522
24495SOL    HW285465   5.014   3.535   2.649  2.9897 -1.1417  0.3920
24496SOL     OW85466   8.928   7.383   8.801 -0.2131 -0.9416 -0.3538
24496SOL    HW185467   8.875   7.310   8.834  0.9865 -1.3901  0.6332
24496SOL    HW285468   9.010   7.377   8.849 -0.0345  1.0114 -0.3361
24497SOL     OW85469   9.090   3.488   9.240 -0.2184  0.3557  0.1982
24497SOL    HW185470   9.184   3.504   9.247  0.0219  0.1586 -1.8413
24497SOL    HW285471   9.084   3.395   9.217 -0.6947  0.8729 -2.0775
24498SOL     OW85472   4.287   9.173   4.035 -0.3559 -0.3839 -0.2945
24498SOL    HW185473   4.271   9.079   4.024  0.0679 -0.5137  0.1731
24498SOL    HW285474   4.361   9.178   4.095 -0.9170  0.2662  0.3676
24499SOL     OW85475  13.606   7.233   3.909 -0.0961  0.0973 -0.1261
24499SOL    HW185476  13.688   7.227   3.958 -0.5752  0.3369  0.7333
24499SOL    HW285477  13.549   7.288   3.964 -0.8208 -0.0386 -0.7203
24500SOL     OW85478   8.049  11.827  12.955  0.2267  0.2952  0.0135
24500SOL    HW185479   7.995  11.787  13.022 -0.0289  2.4868  1.1804
24500SOL    HW285480   8.018  11.788  12.873 -2.2921  0.5656  0.7506
24501SOL     OW85481   7.504   4.081   3.592  0.4627  0.0680  0.0240
24501SOL    HW185482   7.457   4.117   3.516 -1.8018 -2.1360  0.2326
24501SOL    HW285483   7.456   4.115   3.668 -0.9918 -2.2324  0.2416
24502SOL     OW85484   2.290   0.021   2.400  0.1256 -0.4571 -0.1450
24502SOL    HW185485   2.197   0.040   2.393 -0.0467 -1.8726 -2.5127
24502SOL    HW285486   2.294  -0.064   2.444  0.5694  1.2429  3.4585
24503SOL     OW85487  13.646  13.019  12.909  0.3188 -0.3357  0.2345
24503SOL    HW185488  13.723  13.038  12.963  0.9682 -0.8090 -0.4938
24503SOL    HW285489  13.609  12.940  12.948  1.1138 -1.0060 -0.3135
24504SOL     OW85490   2.730   9.669   2.280  0.5039  0.0923 -0.0526
24504SOL    HW185491   2.787   9.630   2.347 -1.1282 -1.8553  0.2992
24504SOL    HW285492   2.754   9.624   2.199 -0.4191 -0.6767  0.0809
24505SOL     OW85493   4.905  11.148   2.046  0.6364  0.0397 -0.2172
24505SOL    HW185494   4.933  11.136   1.955  0.4054 -0.5085 -0.2181
24505SOL    HW285495   4.871  11.237   2.049  2.2949  0.7089 -0.2448
24506SOL     OW85496   9.788  13.355   3.415 -0.4839  0.2401  0.2119
24506SOL    HW185497   9.697  13.327   3.425 -0.6860  0.1142 -1.6246
24506SOL    HW285498   9.831  13.279   3.375 -0.2095  1.2139 -1.4265
24507SOL     OW85499   0.651   0.750   3.308 -0.1769  0.0817 -0.1860
24507SOL    HW185500   0.675   0.722   3.397 -0.6086 -1.1109 -0.4277
24507SOL    HW285501   0.585   0.818   3.322 -1.1631 -0.9623  0.4130
24508SOL     OW85502   9.637   2.123   8.428 -0.5114  0.2834 -0.3557
24508SOL    HW185503   9.548   2.154   8.411 -0.7150  0.9504  1.6695
24508SOL    HW285504   9.663   2.166   8.510  2.0231  0.8038 -1.3206
24509SOL     OW85505  13.240   8.314  13.445  0.0773  0.1556 -0.0631
24509SOL    HW185506  13.302   8.269  13.504 -0.0237  0.1655  0.0510
24509SOL    HW285507  13.192   8.243  13.403 -0.8970  0.1604  0.9782
24510SOL     OW85508   3.808   8.395   4.010  0.1864 -0.1242  0.3512
24510SOL    HW185509   3.786   8.312   4.053  0.2684  0.1031  0.8379
24510SOL    HW285510   3.774   8.386   3.921 -0.9515 -0.1809  0.7764
24511SOL     OW85511   6.373  13.548   9.730  0.2365  0.5127  0.1968
24511SOL    HW185512   6.300  13.570   9.787  0.0616  0.8029 -0.1405
24511SOL    HW285513   6.451  13.564   9.784  0.0424 -1.7567  1.2921
24512SOL     OW85514   6.204   4.336   9.842 -0.2951 -0.1953  0.1514
24512SOL    HW185515   6.200   4.337   9.746  1.6279  0.5303  0.0268
24512SOL    HW285516   6.236   4.249   9.864  1.3276  0.3129 -0.0418
24513SOL     OW85517   4.419   4.575   3.367  0.2402 -0.4326  0.4627
24513SOL    HW185518   4.362   4.580   3.291  0.7551 -0.8062  0.0499
24513SOL    HW285519   4.371   4.622   3.436  0.4391  1.2746 -0.5022
24514SOL     OW85520   6.245   4.754   4.904 -0.8200 -0.2069 -0.0274
24514SOL    HW185521   6.201   4.793   4.828 -0.5587  0.2851  0.0655
24514SOL    HW285522   6.180   4.760   4.974 -0.8477 -0.1072 -0.0608
24515SOL     OW85523   4.233   0.763   1.993 -0.4567 -0.5843 -0.0921
24515SOL    HW185524   4.235   0.830   1.924 -0.2152  1.5280  1.8383
24515SOL    HW285525   4.140   0.741   2.002 -0.3309 -2.6955 -2.5902
24516SOL     OW85526   3.351   3.366   8.682  0.0067  0.7761  0.0089
24516SOL    HW185527   3.342   3.426   8.756  1.8209  0.4835  0.5354
24516SOL    HW285528   3.439   3.384   8.647 -0.3307  0.0452 -1.2966
24517SOL     OW85529   6.532   1.938   2.299  0.7365  0.2789  0.3733
24517SOL    HW185530   6.495   1.864   2.249  0.8935 -0.0646  0.7645
24517SOL    HW285531   6.600   1.973   2.242  0.2207  0.5435 -0.1014
24518SOL     OW85532   9.018  13.550   5.952  0.1917  0.0865  0.4189
24518SOL    HW185533   8.971  13.471   5.923  1.5477 -0.7317  0.3695
24518SOL    HW285534   9.003  13.613   5.882  0.8490 -0.8454 -0.6022
24519SOL     OW85535   3.479   9.417  13.115 -0.0416  0.2452 -0.2852
24519SOL    HW185536   3.538   9.489  13.096  0.0376  0.2295 -0.1026
24519SOL    HW285537   3.478   9.365  13.035  0.4233  0.0825 -0.1892
24520SOL     OW85538   5.125   7.628   1.482 -0.0876  0.1858  0.3529
24520SOL    HW185539   5.215   7.600   1.468 -0.6615 -0.7523 -1.9113
24520SOL    HW285540   5.074   7.579   1.417 -1.7787  3.0909 -0.6946
24521SOL     OW85541  11.920  10.785  11.263  0.8030  0.1651 -0.5955
24521SOL    HW185542  11.863  10.766  11.338  0.5561 -0.4051 -0.9264
24521SOL    HW285543  12.009  10.780  11.299  0.6512  1.5697  0.0420
24522SOL     OW85544   7.718   4.295  12.535 -0.0226  0.2433  0.4809
24522SOL    HW185545   7.662   4.317  12.609  0.5425  0.2777  0.9006
24522SOL    HW285546   7.663   4.239  12.480 -0.6762  0.7849  0.5698
24523SOL     OW85547   6.212   4.071  12.223  0.5662 -0.1799  0.1972
24523SOL    HW185548   6.278   4.124  12.179  1.3704  0.0670  1.6419
24523SOL    HW285549   6.196   4.116  12.305  0.0924 -1.3237  0.7519
24524SOL     OW85550   2.393   9.791   3.475 -0.3539  0.3339 -0.2300
24524SOL    HW185551   2.438   9.715   3.438  0.7331  0.2113  1.2594
24524SOL    HW285552   2.345   9.829   3.401 -1.0329 -1.8596 -0.9844
24525SOL     OW85553   9.496   3.950   7.754 -0.3139  0.2075  0.5246
24525SOL    HW185554   9.468   3.998   7.676 -0.2720  1.0888  1.0338
24525SOL    HW285555   9.540   3.872   7.720 -0.1641  0.6497 -0.3330
24526SOL     OW85556   9.552  13.631   3.972 -0.2010 -0.1219  0.7878
24526SOL    HW185557   9.496  13.685   3.915 -2.1054 -1.8050  0.9732
24526SOL    HW285558   9.559  13.547   3.926  3.3731  0.3899  0.1095
24527SOL     OW85559   5.746   3.545   2.031  0.2281 -0.1661  0.2638
24527SOL    HW185560   5.807   3.600   1.981  1.9694 -1.1633  1.1883
24527SOL    HW285561   5.788   3.459   2.033 -2.0592 -1.3853 -0.5124
24528SOL     OW85562  11.261   2.348   0.976 -0.2907  0.4684  0.5676
24528SOL    HW185563  11.255   2.306   0.890  0.3356 -0.3470  0.9113
24528SOL    HW285564  11.184   2.405   0.980 -0.1789  0.7359 -0.6432
24529SOL     OW85565   3.515   5.344   3.596  0.7288 -0.4216 -0.3721
24529SOL    HW185566   3.554   5.269   3.640 -0.9601  0.2316  2.5545
24529SOL    HW285567   3.550   5.420   3.642 -2.2718  0.2509  1.0727
24530SOL     OW85568   8.891   6.131   9.526 -0.6508  0.0338 -0.0139
24530SOL    HW185569   8.931   6.094   9.604 -0.4563  1.3840  0.5592
24530SOL    HW285570   8.949   6.104   9.454 -0.7654 -1.1140  0.3101
24531SOL     OW85571   0.084  13.313  13.804  0.5994 -0.0652  0.6458
24531SOL    HW185572   0.168  13.286  13.766  1.3607  2.3592  0.4314
24531SOL    HW285573   0.019  13.288  13.739  1.4128  0.0098 -0.2281
24532SOL     OW85574   8.757   4.555   0.258  0.7974 -0.3578 -0.1931
24532SOL    HW185575   8.781   4.629   0.202  3.3181 -1.0805 -0.1978
24532SOL    HW285576   8.760   4.590   0.347  1.9512 -0.4064 -0.1961
24533SOL     OW85577   4.545   0.093   4.460 -0.3145  0.0023 -0.6390
24533SOL    HW185578   4.619   0.148   4.483  0.5310 -1.2323 -0.2951
24533SOL    HW285579   4.507   0.134   4.382 -0.4558  1.7097  0.2880
24534SOL     OW85580   4.465  10.429   2.098  0.4542  0.0019 -0.0862
24534SOL    HW185581   4.476  10.352   2.154 -0.0792 -0.9541 -1.2463
24534SOL    HW285582   4.547  10.477   2.107  0.7397 -0.6262  0.7795
24535SOL     OW85583   8.715   1.910   2.124 -0.1715  0.2184  0.1730
24535SOL    HW185584   8.712   1.977   2.056  1.4210  0.6826  0.5190
24535SOL    HW285585   8.781   1.848   2.095 -1.1786 -0.8954  0.1684
24536SOL     OW85586   5.872   4.420   9.942  0.1137 -0.3443 -0.0887
24536SOL    HW185587   5.948   4.422   9.883  0.1673 -0.7659 -0.0415
24536SOL    HW285588   5.805   4.374   9.891 -0.7999  1.7726 -0.9190
24537SOL     OW85589  10.693   6.811  13.141 -0.3804 -0.2063  0.0985
24537SOL    HW185590  10.700   6.894  13.189  1.9965  0.5678 -1.4212
24537SOL    HW285591  10.626   6.828  13.075  2.4420  1.8692 -2.4803
24538SOL     OW85592   3.007   8.785   7.900 -0.3821 -0.5046 -0.3305
24538SOL    HW185593   3.016   8.693   7.877 -1.0458 -0.6144 -0.1641
24538SOL    HW285594   2.915   8.806   7.883 -0.3451  0.0028  0.0599
24539SOL     OW85595   1.750   6.270   2.507  0.6391 -0.0048 -0.2266
24539SOL    HW185596   1.716   6.181   2.497  0.1700  0.0544  0.7608
24539SOL    HW285597   1.673   6.325   2.507  0.8505  0.2938  0.3325
24540SOL     OW85598  12.217   3.174   6.757 -0.0529 -1.2298  0.1880
24540SOL    HW185599  12.190   3.265   6.751  0.5268 -1.1403 -1.5227
24540SOL    HW285600  12.152   3.134   6.816  0.5714  0.5609  2.2332
24541SOL     OW85601   4.103   5.717  10.024  0.1994  0.0927  0.5007
24541SOL    HW185602   4.059   5.660  10.086 -0.7728  1.7739  1.4431
24541SOL    HW285603   4.077   5.806  10.050 -0.3611  0.8906 -2.4030
24542SOL     OW85604   7.238   5.159   0.958  0.2058 -0.0781  0.4980
24542SOL    HW185605   7.326   5.142   0.992  0.2597  0.5087  0.6625
24542SOL    HW285606   7.249   5.158   0.863  0.1963 -0.9879  0.5001
24543SOL     OW85607   8.318  11.257   8.371 -0.0596  0.3701 -0.4847
24543SOL    HW185608   8.275  11.222   8.293  1.2074  1.4346 -1.7034
24543SOL    HW285609   8.371  11.330   8.339 -0.3664  1.5546  1.5397
24544SOL     OW85610  12.080   8.733   0.626  0.1939  0.2024  0.1970
24544SOL    HW185611  12.127   8.734   0.710  0.2315 -1.0015  0.1984
24544SOL    HW285612  12.148   8.713   0.562  0.3030  1.8244 -0.2321
24545SOL     OW85613  13.224  13.068   1.028  0.0327 -0.4723  0.4828
24545SOL    HW185614  13.296  13.006   1.021 -1.4116 -2.2193  0.2843
24545SOL    HW285615  13.147  13.013   1.041 -1.6326  1.1507 -1.8516
24546SOL     OW85616   4.297  13.968   6.427  0.4111 -0.1427  0.2258
24546SOL    HW185617   4.273  14.057   6.451  0.6687 -0.4352  1.6406
24546SOL    HW285618   4.326  13.975   6.335  2.0304  1.5543  0.7971
24547SOL     OW85619   4.882   3.857   0.282 -0.5518 -0.2754 -0.4970
24547SOL    HW185620   4.928   3.841   0.364  0.2378  1.6230 -0.5055
24547SOL    HW285621   4.812   3.792   0.280  1.0169 -2.0794  0.3956
24548SOL     OW85622  13.515   7.982  11.247 -0.2859  0.3674 -0.4990
24548SOL    HW185623  13.576   7.938  11.188  1.1323  1.0789  0.3921
24548SOL    HW285624  13.475   7.911  11.297  0.5428 -0.0520 -0.4128
24549SOL     OW85625   9.058   5.162   5.990  0.7892 -0.3370 -0.3759
24549SOL    HW185626   9.032   5.192   6.078 -1.1275  1.0302 -1.3089
24549SOL    HW285627   9.115   5.232   5.957  0.3591 -0.1343 -0.7098
24550SOL     OW85628   9.813   4.428  12.916  0.1486 -0.2731 -0.9789
24550SOL    HW185629   9.879   4.491  12.944  1.1271 -1.0047 -1.5918
24550SOL    HW285630   9.833   4.349  12.966 -2.2195  0.3857  1.2163
24551SOL     OW85631   5.955  12.771   0.324  0.1462  0.4821  0.4173
24551SOL    HW185632   6.018  12.751   0.255 -0.5319 -0.2235 -0.0128
24551SOL    HW285633   5.968  12.864   0.342 -0.4126  0.9541 -1.4354
24552SOL     OW85634   3.710   0.915  10.259  0.5817 -0.0743  0.5773
24552SOL    HW185635   3.616   0.897  10.256  0.4005  0.9299 -0.4076
24552SOL    HW285636   3.717   1.001  10.300  1.1132 -0.3529  1.0866
24553SOL     OW85637  13.840   2.090  12.730  0.2950  0.5916 -0.2603
24553SOL    HW185638  13.859   2.175  12.691 -0.5737  0.4388 -1.0378
24553SOL    HW285639  13.777   2.109  12.799 -1.6744  0.3634 -1.8925
24554SOL     OW85640   0.314   5.971  12.562  0.3645  0.3272 -0.0315
24554SOL    HW185641   0.269   5.887  12.556  0.0501  0.5036 -0.1976
24554SOL    HW285642   0.380   5.968  12.493 -1.4551  1.2842 -1.9358
24555SOL     OW85643   1.447   0.318   7.887 -0.2913  0.6821 -0.6168
24555SOL    HW185644   1.383   0.313   7.815 -1.2163  0.2768  0.2088
24555SOL    HW285645   1.526   0.278   7.850 -0.9894 -0.2673 -1.1762
24556SOL     OW85646  10.253   4.914  13.877 -0.3672  0.4080 -0.3638
24556SOL    HW185647  10.340   4.925  13.916 -1.0360 -0.5082  1.5304
24556SOL    HW285648  10.260   4.833  13.827  0.1707  0.9628 -1.2200
24557SOL     OW85649   5.399   0.303   5.521  0.2134 -0.6166  0.0270
24557SOL    HW185650   5.429   0.318   5.431 -0.5507  0.6603 -0.0549
24557SOL    HW285651   5.304   0.293   5.513  0.2256 -1.2709  0.6161
24558SOL     OW85652   6.548   2.782   2.127 -0.4747 -0.3029  0.3147
24558SOL    HW185653   6.531   2.871   2.157  0.3742 -0.8578  2.6993
24558SOL    HW285654   6.564   2.790   2.033  0.9522  2.2834  0.6922
24559SOL     OW85655   6.445   4.216   3.841 -0.6277 -0.0213  0.3103
24559SOL    HW185656   6.507   4.289   3.845 -0.3274 -0.2957  0.9949
24559SOL    HW285657   6.364   4.254   3.809  0.2640  0.0900 -1.9793
24560SOL     OW85658  12.883   6.069   0.205  0.3935 -0.2775 -0.2648
24560SOL    HW185659  12.861   6.075   0.298 -0.4659 -0.5324 -0.4443
24560SOL    HW285660  12.936   6.147   0.188 -1.1457  0.8623 -0.0192
24561SOL     OW85661   8.426   9.207  13.319 -0.1678 -0.5430 -0.5016
24561SOL    HW185662   8.417   9.179  13.410  1.9559 -1.8534 -0.6083
24561SOL    HW285663   8.480   9.286  13.324 -1.9277  0.6968 -0.5200
24562SOL     OW85664   9.281  13.596   3.598 -0.3742 -0.0210  0.8576
24562SOL    HW185665   9.190  13.627   3.602 -0.1529  0.7333  0.3554
24562SOL    HW285666   9.277  13.506   3.629 -1.2319  0.1375  1.2397
24563SOL     OW85667   8.050   0.390  11.490 -0.5418  0.2680  0.6743
24563SOL    HW185668   8.005   0.310  11.463 -0.6540  0.2403  0.9411
24563SOL    HW285669   8.094   0.420  11.411  1.0593 -1.0701  1.0094
24564SOL     OW85670   2.462  11.647   5.856  0.5912  0.1160  0.0633
24564SOL    HW185671   2.516  11.638   5.935 -0.8527  0.9186  1.1828
24564SOL    HW285672   2.486  11.571   5.802  2.5902  0.2718  0.6276
24565SOL     OW85673   9.569   4.047  12.462  0.5433  0.4631  0.5690
24565SOL    HW185674   9.478   4.019  12.469  0.9783 -0.9881  0.8508
24565SOL    HW285675   9.585   4.098  12.541  0.3953 -0.6265  1.3277
24566SOL     OW85676  11.809   6.150   2.369  0.2834 -0.2139  0.6193
24566SOL    HW185677  11.778   6.064   2.340  2.0490 -0.3588 -1.0545
24566SOL    HW285678  11.737   6.185   2.422 -1.4022 -1.7691 -0.5172
24567SOL     OW85679  12.259   3.016  10.247  0.3069 -0.4242  0.5405
24567SOL    HW185680  12.320   3.066  10.301  1.9438 -1.1246 -0.5560
24567SOL    HW285681  12.229   3.078  10.181  0.2824 -0.2115  0.7517
24568SOL     OW85682   0.246   0.849   1.090  0.1978  0.2134  0.1243
24568SOL    HW185683   0.199   0.878   1.169 -0.5522 -0.7647  0.0660
24568SOL    HW285684   0.297   0.924   1.063 -0.3437  0.8988  0.9589
24569SOL     OW85685   0.241   6.809   0.746  0.2231  0.3781  0.2305
24569SOL    HW185686   0.183   6.783   0.817  2.3461 -0.6302  1.6850
24569SOL    HW285687   0.227   6.742   0.678 -0.1983  0.0751  0.6133
24570SOL     OW85688   3.169   8.046  11.954 -0.2780 -0.0238 -0.0974
24570SOL    HW185689   3.234   8.023  12.021  0.2199  1.0402 -0.2024
24570SOL    HW285690   3.125   7.963  11.935  0.5540 -0.6267  0.4981
24571SOL     OW85691   6.097   5.041  11.606 -0.1080 -0.1761  0.2211
24571SOL    HW185692   6.117   4.954  11.570 -0.2548 -0.6529  1.2364
24571SOL    HW285693   6.049   5.022  11.687  0.2540  0.8457  0.6912
24572SOL     OW85694   4.596   2.178   1.533 -0.0750  0.2602  0.1504
24572SOL    HW185695   4.562   2.263   1.561 -0.4179  0.4415 -0.7917
24572SOL    HW285696   4.683   2.172   1.573 -0.6995  0.3154  1.5985
24573SOL     OW85697   9.901   1.162   6.618  0.2897 -0.1403 -0.4804
24573SOL    HW185698   9.891   1.131   6.528  0.9330  1.5355 -1.1762
24573SOL    HW285699   9.877   1.254   6.614 -1.7490 -0.4950  1.5378
24574SOL     OW85700   5.029  12.130   7.359  0.2764  0.1437 -0.2948
24574SOL    HW185701   4.962  12.197   7.367 -0.7838 -0.8665 -0.5037
24574SOL    HW285702   5.067  12.144   7.273  1.7085  1.9293  0.5561
24575SOL     OW85703   9.172  13.236   5.463 -0.0744 -0.5571 -0.5864
24575SOL    HW185704   9.126  13.308   5.506  0.9619 -0.0197 -0.3480
24575SOL    HW285705   9.232  13.203   5.529 -1.4979 -2.5994 -0.2110
24576SOL     OW85706   3.234  10.815   1.195  0.6729  0.5191  0.1857
24576SOL    HW185707   3.241  10.899   1.240 -1.3794  0.3907  0.8527
24576SOL    HW285708   3.282  10.828   1.113 -0.7682  2.8564 -0.3990
24577SOL     OW85709   6.102   3.790   0.324  0.4591  0.2675 -0.4453
24577SOL    HW185710   6.193   3.775   0.298  1.0820  1.7031  0.7353
24577SOL    HW285711   6.097   3.754   0.412 -0.6471 -1.3721 -1.1264
24578SOL     OW85712   2.909   3.665  13.157 -0.3180  0.1062 -0.2761
24578SOL    HW185713   2.953   3.743  13.189  0.6905 -0.1542 -0.9995
24578SOL    HW285714   2.979   3.604  13.136 -1.1187 -1.6506  1.8369
24579SOL     OW85715  13.413  11.746   1.371  0.3594 -0.4889 -0.4912
24579SOL    HW185716  13.505  11.763   1.388  1.0515 -2.6836 -1.5640
24579SOL    HW285717  13.381  11.826   1.329  1.5754  0.5559  0.4896
24580SOL     OW85718  11.125   9.061  12.304  0.3037 -0.4315 -0.6923
24580SOL    HW185719  11.048   9.008  12.285  0.8369 -0.7305 -2.1508
24580SOL    HW285720  11.192   8.997  12.331  0.1880 -0.2193  0.1199
24581SOL     OW85721   1.373  10.859  12.021 -0.1617  0.4042 -0.1471
24581SOL    HW185722   1.456  10.812  12.021  0.0554  0.7931  0.1913
24581SOL    HW285723   1.385  10.931  12.082 -0.3239  1.2207 -1.0431
24582SOL     OW85724  10.878  12.761   3.011 -0.3395  0.2141  0.4472
24582SOL    HW185725  10.823  12.694   3.053 -0.2442  0.3570  0.8002
24582SOL    HW285726  10.845  12.765   2.921 -0.7861  0.1642  0.6053
24583SOL     OW85727   3.419   0.140   0.497  0.4552 -0.5805 -0.2455
24583SOL    HW185728   3.385   0.118   0.410  0.3608 -2.0749  0.1490
24583SOL    HW285729   3.485   0.208   0.480 -0.8364  0.4640 -1.2787
24584SOL     OW85730  13.106   1.652  10.363  0.5736  0.1000  0.1751
24584SOL    HW185731  13.012   1.650  10.382  0.5722 -0.2252  0.1255
24584SOL    HW285732  13.116   1.727  10.304 -0.0954 -1.5954 -2.2160
24585SOL     OW85733   5.290  12.955  13.402 -0.0066 -0.2742 -0.7369
24585SOL    HW185734   5.370  12.908  13.427  1.2027  1.6781 -0.7274
24585SOL    HW285735   5.280  13.022  13.469 -2.4596 -1.3020  0.0138
24586SOL     OW85736   4.297   0.296   1.085  0.4191  0.0028  0.0497
24586SOL    HW185737   4.285   0.220   1.028 -0.1635  1.1716 -1.4440
24586SOL    HW285738   4.363   0.268   1.148 -1.8494 -2.7477  1.4269
24587SOL     OW85739   3.028   5.919   4.544 -0.3391  0.0300 -0.3524
24587SOL    HW185740   3.103   5.978   4.531  1.1503 -1.9380 -1.4418
24587SOL    HW285741   3.033   5.894   4.636 -0.6017  1.0811 -0.0396
24588SOL     OW85742   5.129  11.828   8.557  0.2773  0.0544  0.5299
24588SOL    HW185743   5.166  11.836   8.645  0.9665  0.9808  0.1815
24588SOL    HW285744   5.134  11.735   8.537  0.1362 -0.1586  1.4577
24589SOL     OW85745  13.262  12.434   9.528 -0.4242 -0.4235  0.2526
24589SOL    HW185746  13.241  12.347   9.494 -0.0721 -0.0739 -0.9099
24589SOL    HW285747  13.275  12.420   9.622  0.1933 -1.7339  0.0010
24590SOL     OW85748   7.908  10.312  12.677  0.0399 -0.3702  0.2837
24590SOL    HW185749   7.846  10.359  12.623 -0.8840 -0.9440  0.8176
24590SOL    HW285750   7.918  10.367  12.755  0.3428 -0.1969  0.1259
24591SOL     OW85751   3.623   8.951   8.689 -0.0514 -0.2921  0.9348
24591SOL    HW185752   3.542   8.935   8.642  0.2287 -1.8861  0.9493
24591SOL    HW285753   3.601   9.019   8.753 -1.2241 -0.3105  0.5616
24592SOL     OW85754   5.769   1.354  12.967 -0.2347 -0.9279  0.2137
24592SOL    HW185755   5.735   1.292  13.031 -0.4870  1.1749  2.2509
24592SOL    HW285756   5.704   1.424  12.964  1.2632  0.5196  0.0486
24593SOL     OW85757   4.413   2.012   8.803 -0.0487 -0.2463  0.0208
24593SOL    HW185758   4.380   2.100   8.789 -2.5006 -1.0099  0.4198
24593SOL    HW285759   4.338   1.955   8.786  1.3334 -2.2446  0.1643
24594SOL     OW85760   3.821   1.320   5.841 -0.0478  0.2465  0.1397
24594SOL    HW185761   3.873   1.366   5.907  0.6238 -0.0522 -0.1663
24594SOL    HW285762   3.768   1.388   5.799 -1.9829  0.1902  2.2858
24595SOL     OW85763   8.090   7.432   8.589 -0.2415 -0.4363 -0.0038
24595SOL    HW185764   8.127   7.396   8.509  0.4720 -2.3139  1.0904
24595SOL    HW285765   8.163   7.479   8.630  0.2178 -1.7756  0.8003
24596SOL     OW85766   7.035   5.499   0.629 -0.5187 -0.1555 -0.3266
24596SOL    HW185767   6.994   5.417   0.655 -0.2826 -0.4591 -0.8978
24596SOL    HW285768   6.975   5.567   0.660  0.1296 -0.4558  1.6999
24597SOL     OW85769   6.724   9.718   1.737 -0.2752  0.1933 -0.0356
24597SOL    HW185770   6.794   9.782   1.724 -0.6829  0.6195 -0.1457
24597SOL    HW285771   6.766   9.646   1.783  0.6651 -0.3406 -1.6567
24598SOL     OW85772  13.566   9.805   9.230 -0.0733  0.0277  0.2162
24598SOL    HW185773  13.563   9.839   9.320 -0.7249 -0.3880  0.3625
24598SOL    HW285774  13.494   9.850   9.185  1.4275  1.6769 -0.6451
24599SOL     OW85775   3.884   6.831   8.173 -0.1451 -0.7267  0.1976
24599SOL    HW185776   3.954   6.864   8.230 -0.2040  1.6340 -0.9912
24599SOL    HW285777   3.927   6.766   8.118  1.0138  0.3039 -0.1461
24600SOL     OW85778   5.485  10.436   7.116 -0.7810 -0.8412 -0.6625
24600SOL    HW185779   5.472  10.410   7.207 -1.4223  1.2772 -0.0980
24600SOL    HW285780   5.560  10.496   7.119 -1.0459 -0.4652 -1.4627
24601SOL     OW85781   9.669   3.686  12.898 -0.2078 -0.5302 -0.3026
24601SOL    HW185782   9.677   3.591  12.909 -0.1179 -0.4362  0.4793
24601SOL    HW285783   9.632   3.717  12.981  1.2218  0.2983  0.0655
24602SOL     OW85784  12.632   1.193  12.805 -0.4320 -0.0198 -0.0147
24602SOL    HW185785  12.560   1.138  12.837 -0.3542 -1.0255 -1.4600
24602SOL    HW285786  12.709   1.136  12.810  0.3327  1.0820  1.6197
24603SOL     OW85787   3.015   1.463  13.324 -0.4457  0.1270  0.7201
24603SOL    HW185788   2.922   1.477  13.341 -0.5568  0.0670  0.2099
24603SOL    HW285789   3.032   1.514  13.245 -1.0353 -2.9422 -1.6073
24604SOL     OW85790  11.313   8.809   1.453 -0.6284  0.0101  0.5743
24604SOL    HW185791  11.290   8.746   1.384  0.5517  0.0439  0.1268
24604SOL    HW285792  11.372   8.760   1.511  1.2059  0.9820 -0.3882
24605SOL     OW85793   4.449  11.007   1.463 -0.0578 -1.0287  0.8183
24605SOL    HW185794   4.487  10.976   1.381  2.7784  1.6042  0.9400
24605SOL    HW285795   4.384  11.072   1.435 -1.1123 -2.1112  0.6783
24606SOL     OW85796  10.840   1.474  12.878 -0.0354  1.0125 -0.5345
24606SOL    HW185797  10.800   1.528  12.811 -0.6841  1.7153  0.4024
24606SOL    HW285798  10.849   1.532  12.954  0.7515  0.2591 -0.0331
24607SOL     OW85799   4.780   6.730   0.859  0.4753  0.2331  0.2252
24607SOL    HW185800   4.695   6.688   0.845  0.6137 -1.2505  3.0778
24607SOL    HW285801   4.759   6.822   0.876 -0.5816 -0.1327  0.9798
24608SOL     OW85802  12.074   1.164   2.778  0.1425  0.1695 -0.4247
24608SOL    HW185803  12.052   1.102   2.708  1.0951 -0.0052 -0.5860
24608SOL    HW285804  12.076   1.249   2.735  1.0883  0.0179 -0.7018
24609SOL     OW85805   7.326   2.473   9.008  0.3044  0.1515 -0.4839
24609SOL    HW185806   7.265   2.547   8.999  0.0618  0.0776  0.4250
24609SOL    HW285807   7.406   2.502   8.964  0.2265  0.9798 -0.0914
24610SOL     OW85808   1.991  10.532  11.547 -0.0956  0.2857  0.0252
24610SOL    HW185809   2.005  10.452  11.598 -2.0745 -0.1914 -0.1047
24610SOL    HW285810   2.021  10.603  11.605  0.8774 -0.4743  0.4781
24611SOL     OW85811   3.459  13.177   1.156  0.4560 -0.5751 -0.0832
24611SOL    HW185812   3.376  13.178   1.109  0.9048  1.8130 -0.9709
24611SOL    HW285813   3.435  13.161   1.248 -0.8846 -0.7618 -0.4485
24612SOL     OW85814   0.546   9.246   9.275 -0.0875  0.1764  0.4895
24612SOL    HW185815   0.591   9.273   9.354  0.6194  1.5227 -0.3358
24612SOL    HW285816   0.454   9.240   9.300 -0.1156  2.3184  1.0047
24613SOL     OW85817   4.322   3.464   5.275  0.3854 -0.1529  0.1185
24613SOL    HW185818   4.380   3.521   5.225 -2.2185  3.0503  0.3746
24613SOL    HW285819   4.255   3.437   5.212 -0.5044  0.2754  0.8594
24614SOL     OW85820  12.450   5.042   6.668 -0.4773 -0.4342  0.5016
24614SOL    HW185821  12.423   4.994   6.589  1.1324 -1.7583  0.6745
24614SOL    HW285822  12.505   4.979   6.716  0.1576  0.9816  1.7144
24615SOL     OW85823  13.261   5.446  11.082 -0.0580  0.1854 -0.1805
24615SOL    HW185824  13.261   5.358  11.121 -2.2485  0.4412  0.5475
24615SOL    HW285825  13.200   5.439  11.008  0.8723  0.7619 -1.0317
24616SOL     OW85826   1.224   2.134   8.606 -0.0235 -0.1611  0.0823
24616SOL    HW185827   1.154   2.181   8.651 -0.2435 -0.0774 -0.3463
24616SOL    HW285828   1.230   2.050   8.651  0.7897  0.5025  1.2591
24617SOL     OW85829  11.046   0.445   6.879  0.0689  0.0592  0.0312
24617SOL    HW185830  11.077   0.535   6.874 -0.5395  0.2015 -2.1371
24617SOL    HW285831  10.979   0.446   6.947 -0.0798  1.3038 -0.1201
24618SOL     OW85832   4.816   3.551   7.747 -0.0007  0.5572 -0.1589
24618SOL    HW185833   4.787   3.517   7.662 -0.4441 -0.6857  0.4628
24618SOL    HW285834   4.813   3.475   7.805  0.2146  1.4059  0.9898
24619SOL     OW85835  10.130   9.788  12.437 -0.1470 -0.0350 -0.1802
24619SOL    HW185836  10.037   9.769  12.447 -0.7646  2.2594 -0.9077
24619SOL    HW285837  10.147   9.775  12.344 -0.3166  1.6535 -0.4728
24620SOL     OW85838   9.012   3.358   8.339 -0.7014 -0.7669  0.3606
24620SOL    HW185839   8.966   3.286   8.297 -0.8815  0.3251 -1.4183
24620SOL    HW285840   9.091   3.370   8.287 -0.3955 -0.0505  0.9672
24621SOL     OW85841  11.680   8.052  12.215 -0.5170  0.2499  0.4141
24621SOL    HW185842  11.614   7.996  12.256  0.6956 -2.3891 -0.9950
24621SOL    HW285843  11.744   8.069  12.284 -1.8028  1.5295  1.3533
24622SOL     OW85844   6.615   5.429  11.488  0.1476  0.1777  0.2625
24622SOL    HW185845   6.602   5.453  11.396  0.1010 -1.5030 -0.2053
24622SOL    HW285846   6.697   5.378  11.488 -1.4071 -2.5259  0.5608
24623SOL     OW85847   2.526   0.622   7.560  0.2124 -0.3034  0.2150
24623SOL    HW185848   2.582   0.567   7.614 -0.0127  1.5042  2.4454
24623SOL    HW285849   2.437   0.603   7.592 -0.1568 -0.8168 -1.0765
24624SOL     OW85850  10.911  10.084   5.138  0.1847 -0.1726  0.2123
24624SOL    HW185851  10.850  10.157   5.154 -1.3283 -1.2003 -0.6274
24624SOL    HW285852  10.978  10.094   5.206 -0.0152  1.9328  0.1936
24625SOL     OW85853   7.273   2.892   5.812  0.5819 -0.0664  0.2501
24625SOL    HW185854   7.250   2.835   5.739 -0.0010  0.4991 -0.0090
24625SOL    HW285855   7.195   2.943   5.829  0.9253  0.2755  0.8448
24626SOL     OW85856   6.900  13.863   8.888 -0.6229 -0.0018  0.2707
24626SOL    HW185857   6.865  13.882   8.975  1.3625 -1.1925  1.4186
24626SOL    HW285858   6.944  13.944   8.862 -1.3575  0.4093  0.2903
24627SOL     OW85859   6.397   6.257   8.171  0.4215  0.1710 -0.2905
24627SOL    HW185860   6.411   6.337   8.221 -0.6935 -0.2461  0.7247
24627SOL    HW285861   6.404   6.187   8.236  1.4285 -0.5753 -1.1700
24628SOL     OW85862   7.761   1.456   1.831  0.1795  0.5608 -0.4331
24628SOL    HW185863   7.810   1.442   1.750  0.0087  0.3692 -0.5030
24628SOL    HW285864   7.684   1.506   1.805  1.0843  2.2086 -0.0984
24629SOL     OW85865  11.196   4.161   0.378 -0.3051 -0.8115  0.5016
24629SOL    HW185866  11.128   4.188   0.317  1.0593 -0.6625 -1.0025
24629SOL    HW285867  11.148   4.124   0.452 -2.0127 -0.7344 -0.5190
24630SOL     OW85868   7.052   5.642   4.571 -0.1900  0.3031 -0.4859
24630SOL    HW185869   7.041   5.683   4.486  0.4052 -1.3326 -1.3948
24630SOL    HW285870   7.127   5.583   4.560  0.2258  0.4357  1.3193
24631SOL     OW85871   3.896   7.727   5.317 -0.3878  0.2466  0.7555
24631SOL    HW185872   3.931   7.639   5.299  1.2299  0.4894  2.3668
24631SOL    HW285873   3.804   7.712   5.338 -1.4353 -0.4636 -3.4421
24632SOL     OW85874  13.166   7.213  12.102  0.3292 -0.1588  0.5056
24632SOL    HW185875  13.198   7.302  12.092  1.3924 -0.5117  0.6254
24632SOL    HW285876  13.198   7.168  12.023  3.1594 -1.3578  2.1785
24633SOL     OW85877   2.089   8.915   4.415 -0.4139  0.1655 -0.0143
24633SOL    HW185878   2.169   8.877   4.377 -0.4949  1.2762 -1.3845
24633SOL    HW285879   2.118   8.960   4.493  0.0953 -0.4832  0.1800
24634SOL     OW85880   9.664   0.496   5.872  0.3639 -0.4044  0.0221
24634SOL    HW185881   9.737   0.502   5.933  1.4262  0.2872 -1.2737
24634SOL    HW285882   9.673   0.409   5.833  0.3050 -0.4340  0.0729
24635SOL     OW85883   0.262   9.171   8.817 -0.1183  0.2198  0.3552
24635SOL    HW185884   0.322   9.100   8.837 -1.9317 -1.7037 -0.5392
24635SOL    HW285885   0.285   9.198   8.728 -0.0847  0.0203  0.3040
24636SOL     OW85886  11.937   8.371   9.835 -0.3238  0.4274  0.4771
24636SOL    HW185887  11.954   8.281   9.807 -0.6894  0.0388  1.4648
24636SOL    HW285888  11.897   8.362   9.922 -1.3708  1.4901  0.1361
24637SOL     OW85889   3.701   4.890   2.961 -0.1241  0.2674  0.5925
24637SOL    HW185890   3.686   4.896   2.866  1.5164 -0.6878  0.2363
24637SOL    HW285891   3.651   4.814   2.988  0.0595  0.0531  0.3386
24638SOL     OW85892   0.163   7.237  10.138  0.3039 -0.5914  0.1521
24638SOL    HW185893   0.170   7.187  10.057 -0.4717 -0.4920  0.0144
24638SOL    HW285894   0.136   7.324  10.111 -0.5228 -0.7139  0.5495
24639SOL     OW85895  13.990  12.537   4.129  0.0536 -0.3439 -0.0642
24639SOL    HW185896  13.994  12.585   4.046  1.1146  0.8030  0.6033
24639SOL    HW285897  14.081  12.511   4.145 -0.4285 -2.1743 -0.1495
24640SOL     OW85898  13.807   5.229   6.700 -0.4308 -0.6553  0.2537
24640SOL    HW185899  13.842   5.205   6.785 -1.2857  0.3891  0.9337
24640SOL    HW285900  13.743   5.161   6.680  0.2589 -1.2744  0.1113
24641SOL     OW85901   1.804   1.932   5.677  0.4299 -0.1887  0.3351
24641SOL    HW185902   1.798   1.973   5.590 -0.2595 -0.1281  0.4039
24641SOL    HW285903   1.791   1.838   5.660  0.3263 -0.1804  0.3670
24642SOL     OW85904   5.656   1.089  12.314  0.0354  0.6655 -0.4413
24642SOL    HW185905   5.598   1.141  12.259 -1.1681 -0.8580 -0.6961
24642SOL    HW285906   5.738   1.082  12.264 -0.7066  0.1093 -1.6281
24643SOL     OW85907   7.026  10.280   3.749  0.2514  0.3763 -0.3242
24643SOL    HW185908   7.066  10.203   3.791 -1.3139 -2.4157 -3.4361
24643SOL    HW285909   7.087  10.302   3.678  0.2224  1.4626 -0.0289
24644SOL     OW85910   8.910   8.910  13.374 -0.2479 -0.0568  0.8551
24644SOL    HW185911   8.910   8.904  13.470 -0.2324 -1.7367  0.7907
24644SOL    HW285912   8.830   8.958  13.353 -1.1661 -1.1650  1.6693
24645SOL     OW85913   2.480   3.169  10.189 -0.4369  0.8541 -0.1518
24645SOL    HW185914   2.561   3.139  10.146 -0.7025 -2.6187  1.4709
24645SOL    HW285915   2.510   3.224  10.261  0.4710  0.0080  0.1314
24646SOL     OW85916   2.856  10.299  14.013 -0.1065 -0.1373  0.7599
24646SOL    HW185917   2.786  10.351  14.054 -1.3817 -0.4089 -0.9734
24646SOL    HW285918   2.912  10.363  13.970 -0.6117 -0.0502  0.2164
24647SOL     OW85919  11.163  13.779   3.533  0.2882  0.3943  0.2084
24647SOL    HW185920  11.080  13.826   3.522  1.3197  2.3536  0.3472
24647SOL    HW285921  11.223  13.844   3.569  2.4133 -0.4462 -1.5819
24648SOL     OW85922   0.498   2.819  12.902 -0.1597 -0.0213  0.7141
24648SOL    HW185923   0.492   2.897  12.847 -0.7417 -0.0101  0.7905
24648SOL    HW285924   0.457   2.845  12.985 -1.0123 -0.6284  0.4925
24649SOL     OW85925   1.811   3.012   9.558  0.0814  0.1207  0.3007
24649SOL    HW185926   1.755   3.083   9.589  0.5363  0.4832  0.3005
24649SOL    HW285927   1.807   2.946   9.628 -1.8112 -0.6888 -0.5141
24650SOL     OW85928  12.240   0.799   9.366 -0.0450 -0.5076 -0.5836
24650SOL    HW185929  12.244   0.872   9.428  1.2875 -0.8930 -0.1940
24650SOL    HW285930  12.173   0.825   9.302 -1.1326  0.0902  0.7510
24651SOL     OW85931   2.167  10.942   0.464 -0.7363 -0.0232  0.1939
24651SOL    HW185932   2.130  10.971   0.381  1.6564  0.5635 -0.7342
24651SOL    HW285933   2.125  10.999   0.529 -2.2724 -0.1581 -0.6194
24652SOL     OW85934  14.022   0.298   6.684  0.6424 -0.3538  0.0029
24652SOL    HW185935  13.937   0.254   6.673  0.9353 -1.3451  1.4391
24652SOL    HW285936  14.053   0.312   6.595 -1.0377  0.0497 -0.5489
24653SOL     OW85937  10.673  11.372  11.637 -0.7889  0.3446  0.1706
24653SOL    HW185938  10.688  11.420  11.718 -1.2536  0.6824  0.0642
24653SOL    HW285939  10.746  11.397  11.580 -0.8031  0.5990  0.2643
24654SOL     OW85940   8.583  13.766   2.415 -0.3210 -0.6076 -0.5246
24654SOL    HW185941   8.547  13.758   2.503 -0.4631 -1.5547 -0.6645
24654SOL    HW285942   8.675  13.742   2.424 -0.5100 -1.4622 -0.7575
24655SOL     OW85943  11.091   1.138   4.951  0.3726  0.4432  0.4487
24655SOL    HW185944  11.143   1.188   4.888  0.6175  1.3107  1.3184
24655SOL    HW285945  11.078   1.198   5.024 -1.4197  0.0581  0.4763
24656SOL     OW85946  12.985   6.405   1.212  0.0056  0.4701  0.0882
24656SOL    HW185947  13.028   6.324   1.239  0.2325  0.6977  0.4228
24656SOL    HW285948  12.960   6.448   1.294  2.2189  1.9907  0.0702
24657SOL     OW85949   0.114   6.021   5.674 -1.2887 -0.9371  0.3479
24657SOL    HW185950   0.049   5.990   5.611 -1.9922 -0.4072  0.8008
24657SOL    HW285951   0.167   5.943   5.694  0.5721 -0.6363 -2.7530
24658SOL     OW85952   8.501   2.530   8.728 -0.3778  0.0026  0.8120
24658SOL    HW185953   8.560   2.604   8.729 -0.2520 -0.0962  0.7031
24658SOL    HW285954   8.413   2.569   8.724 -0.2848  0.1406 -0.1631
24659SOL     OW85955   4.622   2.368   0.130  0.1309 -0.6397 -0.0542
24659SOL    HW185956   4.642   2.334   0.217  0.7877  1.4170  0.6585
24659SOL    HW285957   4.534   2.407   0.139 -0.1507 -1.1399 -0.5534
24660SOL     OW85958  13.890   0.183  12.169 -0.3575 -0.5534 -0.4888
24660SOL    HW185959  13.971   0.232  12.155 -0.2936  0.1809  2.0013
24660SOL    HW285960  13.821   0.240  12.135 -0.0903  0.3644  0.4469
24661SOL     OW85961   2.982   2.995   5.463  0.7268 -0.9652 -0.0791
24661SOL    HW185962   2.898   3.027   5.496  1.3975  0.7625  0.0825
24661SOL    HW285963   2.983   2.902   5.486 -0.6068 -0.7452  1.0278
24662SOL     OW85964  13.024  13.716   7.269  0.8525 -0.4458 -0.2227
24662SOL    HW185965  12.945  13.673   7.301  0.3352  0.2584 -0.5212
24662SOL    HW285966  13.067  13.651   7.214  1.4039 -1.4397  1.3310
24663SOL     OW85967   8.150   2.695  11.478  1.1608  0.0165 -0.3070
24663SOL    HW185968   8.218   2.760  11.496  0.6058  0.6346 -0.3965
24663SOL    HW285969   8.165   2.627  11.543  1.4138  0.5004  0.1548
24664SOL     OW85970   9.739   2.189   9.169 -0.0576  0.0117  0.0820
24664SOL    HW185971   9.752   2.124   9.099  1.1641 -0.2648  0.5430
24664SOL    HW285972   9.750   2.139   9.250 -0.5566  0.5155  0.4676
24665SOL     OW85973  11.356  12.068   4.304  0.0343 -0.0111 -0.0570
24665SOL    HW185974  11.268  12.062   4.343  0.2230 -0.4033  0.3121
24665SOL    HW285975  11.397  12.141   4.351  0.2528 -0.4675  0.4730
24666SOL     OW85976  11.665  13.128   5.370  0.1408 -0.3602 -0.2870
24666SOL    HW185977  11.718  13.068   5.317 -1.7322 -0.8139 -1.7561
24666SOL    HW285978  11.649  13.081   5.452 -0.0393 -1.2481 -0.8207
24667SOL     OW85979   9.938   4.067  10.885  0.2277  0.4927  0.3202
24667SOL    HW185980   9.935   4.131  10.813  1.5066  0.7102  0.4469
24667SOL    HW285981  10.021   4.021  10.874  0.3861  0.4338  1.5876
24668SOL     OW85982   7.353   2.642   9.370  0.4054 -0.0668  0.0749
24668SOL    HW185983   7.366   2.547   9.370  0.7606 -0.0203  0.3060
24668SOL    HW285984   7.413   2.674   9.303  1.4731  0.1424  1.1025
24669SOL     OW85985  12.184  11.237   2.708 -0.0073 -0.1415  0.8590
24669SOL    HW185986  12.192  11.171   2.776  1.1437  1.5015  2.4151
24669SOL    HW285987  12.269  11.279   2.704  0.0508 -0.3046 -1.8243
24670SOL     OW85988  11.393  12.442   9.825  0.0581  0.1877 -0.0256
24670SOL    HW185989  11.359  12.521   9.784 -0.8026 -0.3032 -0.2921
24670SOL    HW285990  11.470  12.419   9.774  1.5782  1.9909  1.3140
24671SOL     OW85991   7.278  13.859   8.707  0.3636 -0.2026 -0.4158
24671SOL    HW185992   7.299  13.943   8.748 -1.9116  0.3116 -0.1244
24671SOL    HW285993   7.184  13.848   8.723  0.2648 -2.0252 -1.8942
24672SOL     OW85994   4.824   3.088   7.986  0.0849 -0.1588  0.0528
24672SOL    HW185995   4.791   3.123   8.068  0.6553  0.4209  0.0462
24672SOL    HW285996   4.764   3.017   7.963  0.5556 -1.0719  1.5329
24673SOL     OW85997   0.524  12.754  12.516  0.3589 -0.1828 -0.1921
24673SOL    HW185998   0.496  12.806  12.592  0.1858  0.6106 -0.7892
24673SOL    HW285999   0.444  12.741  12.465  0.5742 -0.2482 -0.5192
24674SOL     OW86000   4.372   7.958   9.790 -0.0608 -0.2200  0.4576
24674SOL    HW186001   4.378   8.017   9.715 -1.9472 -1.6473 -0.8947
24674SOL    HW286002   4.420   7.880   9.763 -1.5533 -1.1210  0.2911
24675SOL     OW86003  12.428  13.476   0.363 -0.2323  0.7742 -0.5582
24675SOL    HW186004  12.395  13.507   0.279 -3.0491  2.9213  1.1629
24675SOL    HW286005  12.509  13.526   0.378  0.7869 -0.2618 -2.2678
24676SOL     OW86006  11.244  12.443   7.928 -0.2237  0.4933  0.4176
24676SOL    HW186007  11.221  12.351   7.939  1.5736 -0.5297 -2.8482
24676SOL    HW286008  11.280  12.469   8.013 -1.5540 -1.5066  1.6845
24677SOL     OW86009   1.624   9.315   1.528 -0.0787  0.6173  0.1998
24677SOL    HW186010   1.689   9.367   1.574 -0.4302  0.8880  0.3993
24677SOL    HW286011   1.674   9.262   1.467  0.1280  3.1014 -1.9536
24678SOL     OW86012  13.071   3.261   6.657  0.1500  0.4935  0.2621
24678SOL    HW186013  13.101   3.213   6.734 -0.4675  0.2386  0.3417
24678SOL    HW286014  13.150   3.270   6.603  0.6003  0.7217  0.9419
24679SOL     OW86015   1.390  10.477   6.840  0.1097 -0.7844  0.0069
24679SOL    HW186016   1.433  10.462   6.924  1.0099 -0.0566 -0.3095
24679SOL    HW286017   1.303  10.439   6.850  0.2305 -0.7541  1.2466
24680SOL     OW86018   2.985   2.792  13.672 -0.0742  0.1749  0.3416
24680SOL    HW186019   2.917   2.857  13.694  0.2662  0.4250  0.6729
24680SOL    HW286020   3.021   2.766  13.757 -0.6622 -0.9629  0.2656
24681SOL     OW86021   9.365  10.614  13.057 -0.2599  0.2729  0.1486
24681SOL    HW186022   9.410  10.584  12.978 -0.0709 -0.9782  0.7124
24681SOL    HW286023   9.434  10.655  13.109 -0.5596  1.9600 -0.7206
24682SOL     OW86024  12.297   9.905   9.243 -0.7589  0.1099 -0.0750
24682SOL    HW186025  12.314   9.837   9.178 -1.8927  0.6083 -0.9238
24682SOL    HW286026  12.205   9.892   9.268 -1.0105  1.3596 -0.3076
24683SOL     OW86027  11.782   2.317   6.916  0.8793 -0.2751 -0.1868
24683SOL    HW186028  11.713   2.353   6.972  2.4507  1.6549  0.6479
24683SOL    HW286029  11.851   2.383   6.919  2.8577 -2.2143 -0.8261
24684SOL     OW86030   4.437   4.692  14.001  0.2107 -0.1285 -0.3289
24684SOL    HW186031   4.526   4.658  13.990  1.1239  1.1526  2.3841
24684SOL    HW286032   4.443   4.784  13.978  0.0603  0.3776  1.4884
24685SOL     OW86033   7.683  13.346   0.606 -0.0806 -0.3338  0.0808
24685SOL    HW186034   7.727  13.408   0.665  0.2939  0.0810 -0.6265
24685SOL    HW286035   7.752  13.316   0.547 -0.6680  0.0719 -0.8345
24686SOL     OW86036   1.712   2.536   9.814  0.3094  0.0488 -0.0467
24686SOL    HW186037   1.649   2.549   9.886  0.4386  0.5738 -0.0235
24686SOL    HW286038   1.782   2.485   9.854 -0.0946 -0.5392 -0.0708
24687SOL     OW86039   4.797   1.743  10.647  0.0544  0.1240  0.2942
24687SOL    HW186040   4.805   1.678  10.717 -1.1539 -0.4423 -0.0605
24687SOL    HW286041   4.788   1.826  10.692  1.8403  0.1177  0.7592
24688SOL     OW86042   7.801   8.599  12.709 -0.4921 -0.9821  0.0535
24688SOL    HW186043   7.712   8.615  12.743 -0.0187 -0.8250  1.2929
24688SOL    HW286044   7.834   8.527  12.763  1.2967  1.0835  1.9297
24689SOL     OW86045   2.681   0.264  12.594 -0.4245  0.3508  0.0445
24689SOL    HW186046   2.705   0.225  12.510  0.5455  2.4556 -0.7463
24689SOL    HW286047   2.754   0.322  12.615 -1.5574  1.3978  1.3147
24690SOL     OW86048   5.035  11.607   6.387  0.5294 -0.2603  0.0668
24690SOL    HW186049   5.029  11.695   6.350 -0.5015 -0.7626 -1.0212
24690SOL    HW286050   4.962  11.560   6.349 -0.5072 -0.8894  2.6288
24691SOL     OW86051   9.543   3.008  12.971  0.0222  0.1273 -0.1893
24691SOL    HW186052   9.583   3.010  13.058 -0.1970  2.2855 -0.0756
24691SOL    HW286053   9.471   2.946  12.979 -0.3775  0.7386  1.3626
24692SOL     OW86054  11.361   8.839   5.435  0.4164 -0.4042  0.6322
24692SOL    HW186055  11.346   8.880   5.519 -2.4034  0.2385 -0.0781
24692SOL    HW286056  11.365   8.745   5.454  0.8144 -0.2051  1.5597
24693SOL     OW86057   7.751   9.474  10.557  0.3158 -0.5017 -0.1009
24693SOL    HW186058   7.771   9.567  10.552 -0.2296 -0.4241 -1.0844
24693SOL    HW286059   7.747   9.455  10.651  2.5378 -0.0120  0.1630
24694SOL     OW86060  13.191   5.210   0.086 -0.0439 -0.3147  0.0696
24694SOL    HW186061  13.170   5.254   0.003 -0.7270  0.1749  0.4916
24694SOL    HW286062  13.281   5.179   0.074 -0.0618 -0.0766 -0.7819
24695SOL     OW86063   4.062   7.477   6.754 -0.2547 -0.1571 -0.2236
24695SOL    HW186064   4.048   7.510   6.665  0.4132  1.7379  0.3267
24695SOL    HW286065   4.138   7.419   6.747  0.5629  0.9349 -0.7150
24696SOL     OW86066   0.053   8.454   9.338  0.1604 -0.1330  0.2062
24696SOL    HW186067   0.001   8.373   9.336  0.1267 -0.0915 -1.4533
24696SOL    HW286068   0.112   8.447   9.263  0.8152  0.9736  0.5919
24697SOL     OW86069  12.285   9.316   3.321 -0.1881 -0.1830  0.5185
24697SOL    HW186070  12.331   9.339   3.402  0.3575 -0.2550  0.2345
24697SOL    HW286071  12.268   9.222   3.330  0.7132 -0.3923  0.1465
24698SOL     OW86072  13.696   0.034   4.861 -0.2230 -0.0942  0.4388
24698SOL    HW186073  13.707  -0.054   4.824 -0.2714 -0.5404  1.4513
24698SOL    HW286074  13.602   0.044   4.870 -0.1901 -1.3078  3.3807
24699SOL     OW86075  14.018   3.580   1.477  0.1077  0.8052  0.2368
24699SOL    HW186076  14.033   3.546   1.565 -2.1782 -0.4174  0.2105
24699SOL    HW286077  13.953   3.649   1.488 -1.1264 -0.1779 -0.5811
24700SOL     OW86078  13.834   7.145   9.734  0.1004 -0.4335  0.2472
24700SOL    HW186079  13.772   7.121   9.664  0.7040 -1.5801  0.0835
24700SOL    HW286080  13.895   7.205   9.692 -0.2640 -0.1411  0.1269
24701SOL     OW86081   9.670   4.763   1.949 -0.0672 -0.2137  0.6957
24701SOL    HW186082   9.627   4.683   1.979  0.6336 -0.7796  0.2223
24701SOL    HW286083   9.720   4.737   1.872 -0.3859  0.8312  0.1039
24702SOL     OW86084   6.718  10.711   1.054  0.4124 -0.0786  0.4607
24702SOL    HW186085   6.794  10.768   1.064 -1.2372  2.3597 -0.0803
24702SOL    HW286086   6.656  10.741   1.121 -0.3807 -1.5186  0.4200
24703SOL     OW86087   4.885  11.463   1.735 -0.1325 -0.0747 -0.2967
24703SOL    HW186088   4.952  11.502   1.791  1.0981 -2.0938 -0.2347
24703SOL    HW286089   4.914  11.483   1.646 -1.1065  1.5905 -0.2689
24704SOL     OW86090  10.257  10.264   8.981 -0.0147 -0.0622 -1.1021
24704SOL    HW186091  10.226  10.298   8.897  0.7587  0.3604 -1.2232
24704SOL    HW286092  10.195  10.298   9.045  0.0993  0.6518 -1.3589
24705SOL     OW86093   6.000   0.171   7.442  0.2903  0.1047  1.1262
24705SOL    HW186094   6.016   0.182   7.536  1.6515 -1.0770  1.0657
24705SOL    HW286095   5.947   0.092   7.436  0.6606 -0.1256  0.8678
24706SOL     OW86096   4.147   1.977   3.079 -0.4121  0.0890  0.1524
24706SOL    HW186097   4.157   1.900   3.022  1.3730  0.1610  0.3247
24706SOL    HW286098   4.082   1.949   3.144 -1.8494 -0.2877 -1.3687
24707SOL     OW86099  10.458   6.234   7.307  0.2753  0.5862 -0.2851
24707SOL    HW186100  10.552   6.230   7.291  0.0944  0.8114 -1.5721
24707SOL    HW286101  10.430   6.314   7.262 -0.4577  0.7971  0.5266
24708SOL     OW86102  12.377  13.981   7.976  0.1125  0.5455 -0.2643
24708SOL    HW186103  12.290  14.004   8.009  0.3607 -0.9246  1.5804
24708SOL    HW286104  12.436  14.045   8.017 -0.0060  1.1075 -0.9584
24709SOL     OW86105   1.920  10.275   1.868  0.2992 -0.2493 -0.5435
24709SOL    HW186106   1.996  10.317   1.908 -0.0435 -0.5166  0.4375
24709SOL    HW286107   1.890  10.338   1.802  0.2722  0.6991  0.3383
24710SOL     OW86108   1.656   0.698   1.421 -0.0128  0.1774 -0.8521
24710SOL    HW186109   1.588   0.707   1.488 -1.0429  1.1469 -1.9991
24710SOL    HW286110   1.611   0.660   1.346  0.6896  0.8960 -1.6526
24711SOL     OW86111  13.901   5.756   0.600 -0.3256  0.2943  0.1445
24711SOL    HW186112  13.933   5.846   0.592 -0.2220  0.2034 -0.4615
24711SOL    HW286113  13.859   5.753   0.686  2.6790 -0.0180  1.7325
24712SOL     OW86114   3.802  12.398   9.819  0.1683  0.6749 -0.3562
24712SOL    HW186115   3.897  12.408   9.825  0.3284 -0.7798 -0.0282
24712SOL    HW286116   3.769  12.426   9.905  0.4802 -0.4416  0.1443
24713SOL     OW86117  12.621   7.699   9.486 -0.1399 -0.0967  0.4535
24713SOL    HW186118  12.568   7.765   9.441  0.9055 -0.0230 -0.7178
24713SOL    HW286119  12.683   7.669   9.420  1.4949  0.0367  1.8582
24714SOL     OW86120   1.700  11.250  12.689 -0.3602 -0.3859  0.5827
24714SOL    HW186121   1.627  11.233  12.628 -0.5824  0.7114  0.5247
24714SOL    HW286122   1.670  11.323  12.742  0.4672 -0.3277  0.9794
24715SOL     OW86123  10.137   8.961   6.469 -0.1290  0.7074  0.4531
24715SOL    HW186124  10.064   8.919   6.423  0.1193 -0.6126  1.2026
24715SOL    HW286125  10.207   8.967   6.404 -0.1785 -0.0434  0.3240
24716SOL     OW86126  11.442   2.554  13.485 -0.3745 -0.7984  0.5158
24716SOL    HW186127  11.476   2.641  13.506  0.9078 -1.8112  3.1276
24716SOL    HW286128  11.456   2.545  13.391  2.7136  0.5606  0.6985
24717SOL     OW86129   4.130  13.954   7.335 -0.1299 -0.7647  0.2571
24717SOL    HW186130   4.200  14.018   7.319  2.4969 -3.0909  1.4527
24717SOL    HW286131   4.160  13.874   7.291 -1.7838 -1.9960  1.2336
24718SOL     OW86132   6.060   2.992   4.761  0.6411  0.1514 -0.1611
24718SOL    HW186133   6.112   3.054   4.812  0.0122  1.3781 -0.9672
24718SOL    HW286134   6.001   3.047   4.710 -0.8565 -1.1627  0.0858
24719SOL     OW86135   4.053  13.173   8.647 -0.4849 -0.4941 -0.2447
24719SOL    HW186136   4.128  13.193   8.703 -1.3986  1.1164  0.5069
24719SOL    HW286137   4.046  13.078   8.649  1.3010 -0.6474 -0.0417
24720SOL     OW86138   1.378  11.279  10.078  0.1671 -0.9302  0.2100
24720SOL    HW186139   1.463  11.322  10.077 -0.0104 -0.5773  0.3409
24720SOL    HW286140   1.395  11.194  10.119  0.6306 -1.2294 -0.5758
24721SOL     OW86141   2.527  10.748  13.456 -0.3750 -0.1773 -0.4757
24721SOL    HW186142   2.493  10.692  13.526 -0.6283  0.6961  0.1141
24721SOL    HW286143   2.499  10.836  13.480  1.1165  0.3935 -0.7054
24722SOL     OW86144   0.084   7.886   0.493 -0.2076  0.2001 -0.3789
24722SOL    HW186145   0.164   7.919   0.452  0.3028 -0.9687 -0.3780
24722SOL    HW286146   0.102   7.891   0.586 -0.7832  1.4490 -0.3181
24723SOL     OW86147   3.435   0.055   6.958  0.2388 -0.4017 -0.4376
24723SOL    HW186148   3.480  -0.007   7.015  0.4990  0.9139  0.8596
24723SOL    HW286149   3.343   0.047   6.980  0.3655  0.3062  0.4311
24724SOL     OW86150   5.612   4.342   4.552  0.0536  0.0791 -0.0130
24724SOL    HW186151   5.598   4.328   4.458  2.3701  1.2438 -0.5828
24724SOL    HW286152   5.652   4.260   4.583 -2.4396 -1.0695  0.4564
24725SOL     OW86153  12.061   1.895   1.666 -0.7398 -0.1056 -0.5549
24725SOL    HW186154  11.982   1.863   1.621 -0.2906  0.2627 -1.6557
24725SOL    HW286155  12.050   1.990   1.667 -1.0547 -0.1479  0.7472
24726SOL     OW86156   0.892  13.344   3.430 -0.3605  0.5934 -0.3365
24726SOL    HW186157   0.827  13.275   3.428  0.9509 -0.8111  1.5527
24726SOL    HW286158   0.974  13.301   3.403  0.5756  1.2177  1.3311
24727SOL     OW86159   5.757   8.089  10.030  0.1402  0.1897 -0.4507
24727SOL    HW186160   5.806   8.131  10.101 -0.2459 -0.1239  0.0086
24727SOL    HW286161   5.666   8.111  10.048  0.0298  0.0102 -0.7907
24728SOL     OW86162   4.019  10.028  11.401  0.3283  0.1775 -0.3732
24728SOL    HW186163   4.067  10.047  11.320  0.0907  0.1046 -0.5324
24728SOL    HW286164   4.079  10.055  11.471  0.4080  0.5487 -0.5796
24729SOL     OW86165  12.337   8.296  13.564 -0.2406 -0.0309  0.5256
24729SOL    HW186166  12.415   8.245  13.589 -0.5500 -0.5094  0.5409
24729SOL    HW286167  12.306   8.254  13.483 -0.2633  0.3999  0.3067
24730SOL     OW86168   6.701   3.488  11.245  0.2629  0.3206 -0.0555
24730SOL    HW186169   6.664   3.546  11.179  0.5078 -1.3480 -1.7584
24730SOL    HW286170   6.782   3.532  11.273  0.2587  0.9789 -1.0328
24731SOL     OW86171   6.180   4.689  10.129  0.0835 -0.1789  0.2462
24731SOL    HW186172   6.269   4.665  10.153 -0.4485 -2.1736  0.4600
24731SOL    HW286173   6.164   4.643  10.046  0.5908  3.5063 -2.1255
24732SOL     OW86174   4.244   3.807   7.947 -0.0077 -0.0668 -0.6818
24732SOL    HW186175   4.215   3.884   7.995  0.6796 -0.9107  1.1789
24732SOL    HW286176   4.330   3.830   7.912  0.9632 -0.4902  1.2935
24733SOL     OW86177   5.630   9.543   2.690 -0.7636 -0.8010  0.3866
24733SOL    HW186178   5.686   9.518   2.763 -1.1085  0.3277  1.0575
24733SOL    HW286179   5.631   9.639   2.690 -2.5123 -0.7470  0.2841
24734SOL     OW86180   8.815  10.880   3.823 -0.2726  1.0386 -0.9464
24734SOL    HW186181   8.848  10.895   3.911  1.2725  0.3561 -1.3810
24734SOL    HW286182   8.743  10.818   3.834  2.1209 -1.8454 -0.4328
24735SOL     OW86183   6.387   3.850  10.431 -0.0090  0.1206  0.0479
24735SOL    HW186184   6.456   3.870  10.367  0.2894 -1.0060 -0.0150
24735SOL    HW286185   6.388   3.924  10.492  0.3831  0.7302 -0.6783
24736SOL     OW86186   5.058  11.465  11.955  0.2083 -0.3446  0.4703
24736SOL    HW186187   5.027  11.420  11.877  0.8604  1.4580 -0.8855
24736SOL    HW286188   4.986  11.523  11.979  1.0459  1.1402 -0.4873
24737SOL     OW86189  12.036   4.454   0.113  0.2963 -0.1020 -0.5851
24737SOL    HW186190  12.035   4.547   0.134 -2.0810 -0.2554  0.4446
24737SOL    HW286191  11.961   4.418   0.162 -1.9109 -1.6945 -4.5991
24738SOL     OW86192   1.748   4.282   7.605  0.0729 -0.5255  0.4694
24738SOL    HW186193   1.820   4.250   7.660 -0.7616 -4.1986 -0.2636
24738SOL    HW286194   1.687   4.323   7.667  1.0285 -0.8322  1.6669
24739SOL     OW86195   8.912   7.612  12.504 -0.7636 -0.6929 -0.4508
24739SOL    HW186196   8.937   7.633  12.594  1.2996  0.3764 -1.2179
24739SOL    HW286197   8.918   7.516  12.499  0.6756 -0.6446  0.1290
24740SOL     OW86198   7.074   3.024   9.972 -0.7469 -0.5763 -0.2110
24740SOL    HW186199   7.106   2.943   9.931  1.2126  0.2960 -0.4961
24740SOL    HW286200   7.114   3.094   9.921 -2.0776  0.5907  0.3004
24741SOL     OW86201  13.795  13.427   1.786  0.6286 -0.3083 -0.3442
24741SOL    HW186202  13.708  13.389   1.773  1.0830 -1.7153  0.4847
24741SOL    HW286203  13.785  13.487   1.860  0.2724 -0.1766 -0.5014
24742SOL     OW86204   9.802  10.654   4.323  0.0212  0.2624 -0.2674
24742SOL    HW186205   9.819  10.577   4.269  0.6132 -0.9135  1.5066
24742SOL    HW286206   9.813  10.729   4.263  1.4446 -0.9208 -1.5668
24743SOL     OW86207   1.271   5.702   0.177  0.0386 -0.0840 -0.4073
24743SOL    HW186208   1.291   5.718   0.085 -1.4762  0.7523 -0.6210
24743SOL    HW286209   1.180   5.673   0.178 -0.6460  1.8807  0.9734
24744SOL     OW86210   2.431   1.071   4.845  0.1931  0.6897 -0.8243
24744SOL    HW186211   2.447   1.005   4.777  0.7581 -0.6907  0.5693
24744SOL    HW286212   2.513   1.121   4.848  0.9833 -0.5763  0.1778
24745SOL     OW86213   6.471   0.695   2.100  0.3355 -0.1207  0.1650
24745SOL    HW186214   6.408   0.762   2.073 -0.4563 -1.2101 -0.7873
24745SOL    HW286215   6.532   0.688   2.026 -0.6958 -1.7368 -0.5947
24746SOL     OW86216   7.812  12.846   0.635  0.1157  0.2256  0.6681
24746SOL    HW186217   7.757  12.893   0.574  0.3942  0.1601  0.3633
24746SOL    HW286218   7.778  12.757   0.636  1.4086 -0.3449 -1.0298
24747SOL     OW86219   5.209   5.897   8.371 -0.0603  0.1284  0.7824
24747SOL    HW186220   5.274   5.957   8.405  0.8303  0.1169 -0.8323
24747SOL    HW286221   5.256   5.842   8.309 -0.9148 -2.0300  1.9142
24748SOL     OW86222   8.046  11.180  10.444 -0.1561  0.1739 -0.7493
24748SOL    HW186223   7.956  11.146  10.445  0.3356 -1.1837  0.1480
24748SOL    HW286224   8.070  11.186  10.536  0.9880 -0.3654 -0.9980
24749SOL     OW86225  13.313  10.322  12.095 -0.3602  0.1348  0.2970
24749SOL    HW186226  13.226  10.348  12.123 -0.5403 -2.3563  2.3780
24749SOL    HW286227  13.340  10.255  12.158  2.1957 -0.7099 -1.5218
24750SOL     OW86228  11.068  13.546  13.737 -0.1681  0.5589  0.2231
24750SOL    HW186229  11.027  13.618  13.690  0.1763  1.3835  1.1539
24750SOL    HW286230  11.028  13.549  13.824 -0.4755 -0.6611  0.1434
24751SOL     OW86231   6.344  13.241   3.520  0.5252 -0.2519 -0.3221
24751SOL    HW186232   6.271  13.188   3.551  0.4095 -0.3650 -0.7776
24751SOL    HW286233   6.419  13.182   3.520  0.4247 -0.3825 -0.7015
24752SOL     OW86234   6.183   5.919  13.462  0.7174 -0.1396  0.3878
24752SOL    HW186235   6.238   5.959  13.394  0.0172 -0.7258 -0.5401
24752SOL    HW286236   6.109   5.882  13.415  0.1071 -0.3855  1.5010
24753SOL     OW86237  13.122   9.058   6.743 -0.0279  0.2537  0.0022
24753SOL    HW186238  13.040   9.044   6.790 -0.7671  1.3275 -0.8891
24753SOL    HW286239  13.102   9.036   6.652  1.2494 -1.3764  0.0723
24754SOL     OW86240   7.145  12.126   8.691 -0.6406  0.4455  0.6060
24754SOL    HW186241   7.062  12.163   8.659 -1.2338 -0.5414  0.9726
24754SOL    HW286242   7.156  12.164   8.778 -0.8712  0.3288  0.6872
24755SOL     OW86243   9.046   3.586   6.621 -0.5628  0.0724  0.3888
24755SOL    HW186244   9.112   3.611   6.686 -0.4655  1.7085 -0.2989
24755SOL    HW286245   9.096   3.547   6.550 -0.6922 -1.9889  1.3557
24756SOL     OW86246   2.335   3.536   5.886 -0.1280 -0.1369 -0.3061
24756SOL    HW186247   2.244   3.517   5.910 -0.1473  1.0033  0.5866
24756SOL    HW286248   2.387   3.489   5.951 -0.1626  1.7475  1.1925
24757SOL     OW86249   5.636   6.815  11.273  0.5177  0.0926  0.0797
24757SOL    HW186250   5.606   6.897  11.234 -0.0889 -0.1002  0.1425
24757SOL    HW286251   5.562   6.756  11.266  0.4069  0.0380  1.4876
24758SOL     OW86252   1.145  10.721  10.787  0.0387 -0.0147  0.1727
24758SOL    HW186253   1.133  10.633  10.751 -1.2313  0.3612 -0.3663
24758SOL    HW286254   1.095  10.778  10.729  2.8892  1.4641 -1.0426
24759SOL     OW86255   5.475   1.263   5.955 -0.5250  0.1752 -0.5077
24759SOL    HW186256   5.425   1.182   5.958 -1.9924  1.0554 -0.1540
24759SOL    HW286257   5.468   1.299   6.043  0.5257  0.4484 -0.5294
24760SOL     OW86258   9.488   2.662  11.258 -0.0953  0.1018  0.3390
24760SOL    HW186259   9.393   2.660  11.243 -0.1382  0.6189  0.5292
24760SOL    HW286260   9.526   2.650  11.171 -0.2866 -3.3602  0.5817
24761SOL     OW86261   0.316  13.195   5.145  0.0851 -0.0661  0.2764
24761SOL    HW186262   0.302  13.101   5.131  1.4211  0.0977 -2.9705
24761SOL    HW286263   0.244  13.237   5.098  1.3976  0.4933 -1.3488
24762SOL     OW86264   3.479   8.836   4.061  0.6020  0.5568  0.2887
24762SOL    HW186265   3.430   8.916   4.083 -1.1030 -0.1354 -0.8302
24762SOL    HW286266   3.556   8.839   4.119 -0.6812  1.7472  2.0540
24763SOL     OW86267   9.215   7.651   6.904 -0.3915  0.4072 -0.3579
24763SOL    HW186268   9.173   7.568   6.882 -0.3175  0.2428  0.1038
24763SOL    HW286269   9.197   7.708   6.829 -3.5935  1.1654  0.8285
24764SOL     OW86270   2.128   3.219  10.833  0.9647  0.5905 -0.3470
24764SOL    HW186271   2.197   3.161  10.866 -0.7246  0.2007  2.9421
24764SOL    HW286272   2.069   3.160  10.784  0.5506 -0.0554  0.8803
24765SOL     OW86273  11.422   9.328   5.834 -0.1268  0.1889 -0.3622
24765SOL    HW186274  11.357   9.364   5.894  1.5643  1.8302  0.5939
24765SOL    HW286275  11.402   9.367   5.750 -0.8138  0.0727 -0.2605
24766SOL     OW86276   4.214   2.018   6.550  0.4515  0.0113  0.0214
24766SOL    HW186277   4.212   2.112   6.569  1.0776 -0.3941  2.5026
24766SOL    HW286278   4.307   1.995   6.551  0.3210 -0.6051 -0.7950
24767SOL     OW86279   2.331  10.071  10.173  0.3564  0.4774 -0.0027
24767SOL    HW186280   2.377  10.139  10.222 -0.3362  0.3439  0.8480
24767SOL    HW286281   2.401  10.016  10.137  0.8922  1.0495  0.1470
24768SOL     OW86282   8.161   2.537   4.850  0.1573  0.2002 -0.1841
24768SOL    HW186283   8.184   2.453   4.891  0.9918  0.2520 -0.5175
24768SOL    HW286284   8.211   2.538   4.768 -1.9555 -0.1740 -1.5250
24769SOL     OW86285  13.087   0.799   1.821 -0.3023  0.1883 -0.2989
24769SOL    HW186286  13.021   0.866   1.840 -0.3640  0.0149  0.0959
24769SOL    HW286287  13.169   0.848   1.816 -0.1991  0.1707  0.9639
24770SOL     OW86288   5.937  12.360  12.030  0.4642  0.3891  0.5481
24770SOL    HW186289   5.925  12.427  12.098 -1.0004  0.4652  0.2554
24770SOL    HW286290   5.977  12.407  11.957  1.8599  0.3534  1.2519
24771SOL     OW86291   4.658   8.548   9.967  0.0105 -0.2969 -0.1319
24771SOL    HW186292   4.727   8.529   9.904 -0.9223 -1.3061 -0.8900
24771SOL    HW286293   4.582   8.571   9.914  0.1077  2.2486  0.7052
24772SOL     OW86294  11.985   0.784   7.911  0.4298 -0.9877  0.6922
24772SOL    HW186295  11.948   0.863   7.950 -3.3482 -2.6433  0.9481
24772SOL    HW286296  11.981   0.719   7.980 -0.0300 -2.2821 -0.5043
24773SOL     OW86297   3.436   3.384   5.067  0.3286 -0.3299 -0.3931
24773SOL    HW186298   3.465   3.404   4.978  0.0352 -2.8425 -1.1278
24773SOL    HW286299   3.406   3.293   5.063 -1.7835  0.1662  1.7702
24774SOL     OW86300   7.711  12.907   4.521  0.0677  0.0476  0.0877
24774SOL    HW186301   7.717  12.848   4.446 -1.5760 -0.4373  0.3004
24774SOL    HW286302   7.751  12.859   4.593 -0.4303 -0.4364  0.0447
24775SOL     OW86303   0.226   1.530   8.969  1.0265 -0.2724 -0.4882
24775SOL    HW186304   0.161   1.463   8.949  0.7867 -0.8574  1.9833
24775SOL    HW286305   0.226   1.587   8.892 -0.0736 -2.0569 -1.8859
24776SOL     OW86306  13.373  11.850   2.856 -0.7645  0.2667  0.2917
24776SOL    HW186307  13.333  11.826   2.772 -0.1135 -0.3889  0.1671
24776SOL    HW286308  13.300  11.884   2.907 -1.4128 -0.5110 -0.0850
24777SOL     OW86309   4.478   5.108   1.583 -0.6577  0.1318  0.1219
24777SOL    HW186310   4.519   5.049   1.519 -0.5324 -0.0734  0.3876
24777SOL    HW286311   4.552   5.155   1.622 -0.7278  0.1972  0.1754
24778SOL     OW86312   2.713  12.903   0.138 -0.0285  0.0442 -0.0462
24778SOL    HW186313   2.795  12.891   0.185  0.2223 -0.2765 -0.5592
24778SOL    HW286314   2.739  12.932   0.051 -0.5335  1.9692  0.3940
24779SOL     OW86315   2.919  11.323   9.564  0.0502 -0.4311 -0.3740
24779SOL    HW186316   3.010  11.355   9.569  0.5956 -1.4355 -2.5874
24779SOL    HW286317   2.886  11.332   9.653  2.4790 -0.4716  0.6141
24780SOL     OW86318   5.095  10.179   9.255  0.0336 -0.6149  0.4003
24780SOL    HW186319   5.133  10.178   9.167  0.2694 -2.0986  0.4918
24780SOL    HW286320   5.148  10.243   9.303 -0.3245  0.4761 -0.6186
24781SOL     OW86321   2.781   8.676   0.840 -0.0430  0.5514  0.9523
24781SOL    HW186322   2.827   8.657   0.759  0.1756 -1.1613  1.4251
24781SOL    HW286323   2.732   8.595   0.859 -1.2101  1.4207  1.7925
24782SOL     OW86324   2.990   1.746   4.207  0.5529 -0.3137  0.1227
24782SOL    HW186325   2.980   1.758   4.112  0.9494  0.1239  0.1340
24782SOL    HW286326   2.903   1.763   4.242  0.8161  1.4548  0.0212
24783SOL     OW86327   9.955   3.211  11.925 -0.7109  0.6104 -0.2160
24783SOL    HW186328   9.864   3.183  11.934 -1.6296  2.8716 -1.5136
24783SOL    HW286329   9.952   3.305  11.942  1.6622  0.5195  1.1262
24784SOL     OW86330  10.204  12.204   9.303 -0.2504  0.4156 -0.8606
24784SOL    HW186331  10.123  12.252   9.288  0.1904  1.2637 -0.6002
24784SOL    HW286332  10.269  12.249   9.248  0.5879  1.3431  0.8135
24785SOL     OW86333   1.930  10.238   0.430 -0.0847 -0.1369 -0.3055
24785SOL    HW186334   1.937  10.316   0.375 -2.3157 -0.1556 -0.7032
24785SOL    HW286335   1.856  10.190   0.393  0.5142 -1.8562  0.6620
24786SOL     OW86336  10.839   2.161   8.442 -0.3403 -0.6381 -0.0226
24786SOL    HW186337  10.792   2.126   8.366  0.8349 -3.9611  0.6155
24786SOL    HW286338  10.917   2.106   8.450  0.1732  0.3123  2.9315
24787SOL     OW86339  12.231   3.240  11.693 -0.0913  0.0932  0.3116
24787SOL    HW186340  12.154   3.252  11.637  1.9821 -2.0483 -3.4302
24787SOL    HW286341  12.213   3.159  11.740 -0.4144 -0.0398 -0.0278
24788SOL     OW86342   1.143   6.236   9.688 -0.1906  0.1980 -0.2210
24788SOL    HW186343   1.054   6.251   9.721  0.3595  1.1258  0.8621
24788SOL    HW286344   1.158   6.142   9.701 -1.2764 -0.1230 -1.1153
24789SOL     OW86345   7.765  11.568  11.601 -0.2008 -0.6218  0.4216
24789SOL    HW186346   7.824  11.621  11.548  0.1164 -0.4177  0.9631
24789SOL    HW286347   7.796  11.478  11.589  1.1711 -0.3918  1.8170
24790SOL     OW86348   1.548   5.435   4.714  0.0141 -0.1741  0.8354
24790SOL    HW186349   1.617   5.493   4.743 -0.9586  2.0776 -1.0086
24790SOL    HW286350   1.590   5.378   4.649  0.4562  0.1476  0.8401
24791SOL     OW86351   5.355  11.792  10.748  0.4330 -0.1408  0.0734
24791SOL    HW186352   5.262  11.779  10.732  0.6908 -1.2386 -0.5987
24791SOL    HW286353   5.362  11.802  10.843 -0.2630 -1.0020  0.2250
24792SOL     OW86354  12.255   0.049   1.633  0.5045 -0.0400  0.2492
24792SOL    HW186355  12.265   0.053   1.537 -1.1901  1.2617  0.0875
24792SOL    HW286356  12.335   0.089   1.666  0.9972 -0.2643 -0.6136
24793SOL     OW86357  13.608  12.508   2.997 -0.0100 -0.3190 -0.1369
24793SOL    HW186358  13.578  12.577   2.938 -0.8029  0.3931  1.0577
24793SOL    HW286359  13.588  12.541   3.085  0.1409 -1.8157  0.4930
24794SOL     OW86360   3.529   9.129  13.678 -0.0669  0.5330  0.0071
24794SOL    HW186361   3.532   9.058  13.743 -2.1543  0.3391 -0.0350
24794SOL    HW286362   3.589   9.195  13.712 -1.5635  0.7195  2.5231
24795SOL     OW86363   2.583  13.597   1.062 -0.4526  0.1227  0.0239
24795SOL    HW186364   2.506  13.550   1.029 -1.1519  0.6063  0.9177
24795SOL    HW286365   2.593  13.566   1.152  1.0686 -0.7317 -0.4030
24796SOL     OW86366   3.676  12.444   6.206  0.0053  0.0069 -0.0008
24796SOL    HW186367   3.590  12.421   6.242 -0.9283 -0.7698 -2.5349
24796SOL    HW286368   3.723  12.361   6.201 -0.1200 -0.0108 -1.1010
24797SOL     OW86369  11.974   6.834   6.689 -0.7266  0.3722 -0.5888
24797SOL    HW186370  11.925   6.801   6.614 -0.5546  0.2630 -0.6540
24797SOL    HW286371  11.911   6.832   6.762 -0.9814  0.7716 -0.7996
24798SOL     OW86372   1.868  10.449   1.663 -0.0293  0.1458 -0.3327
24798SOL    HW186373   1.836  10.539   1.663 -2.2188 -0.5882 -0.3096
24798SOL    HW286374   1.963  10.458   1.675  0.1901  2.5331 -2.8381
24799SOL     OW86375  10.603   4.280   3.623 -0.6654 -0.7724 -0.5016
24799SOL    HW186376  10.583   4.188   3.636  0.6280 -1.2480 -1.7332
24799SOL    HW286377  10.680   4.297   3.677  1.1233 -1.2962 -2.7359
24800SOL     OW86378   1.742  10.023   1.334 -0.5133  0.3595 -0.6046
24800SOL    HW186379   1.691  10.101   1.314 -0.7939  0.5674  0.8175
24800SOL    HW286380   1.707   9.991   1.417  0.6308 -0.3898 -0.3747
24801SOL     OW86381   0.726   1.214   4.863 -0.3286  0.4311  0.3211
24801SOL    HW186382   0.688   1.196   4.948 -0.0835 -1.0195  0.1516
24801SOL    HW286383   0.703   1.305   4.845 -2.2723  0.1089  0.9441
24802SOL     OW86384   1.039   6.351  13.135  0.2568  0.4488  0.0728
24802SOL    HW186385   1.033   6.304  13.218 -0.2459  0.8894  0.2917
24802SOL    HW286386   1.065   6.284  13.071  3.3135  0.5689  1.0059
24803SOL     OW86387   7.138  13.143   8.421 -0.1355 -0.1051 -0.1942
24803SOL    HW186388   7.045  13.168   8.419  0.1035  0.8809  0.2532
24803SOL    HW286389   7.166  13.163   8.510  1.0106  1.6260 -0.8850
24804SOL     OW86390   2.892   1.624   3.389  0.1953 -0.2008 -0.1249
24804SOL    HW186391   2.984   1.603   3.374  0.4312 -0.0477  1.0432
24804SOL    HW286392   2.877   1.705   3.341  0.9937  0.4211  0.6415
24805SOL     OW86393   5.837   7.743   2.557  0.2391  0.0627 -0.3335
24805SOL    HW186394   5.910   7.803   2.575 -1.5126  1.5267  2.6586
24805SOL    HW286395   5.768   7.798   2.521 -0.5889 -0.5766  0.2182
24806SOL     OW86396  11.680   6.206   4.838  0.3052  0.0170  0.0145
24806SOL    HW186397  11.614   6.151   4.795  0.4405  0.2499 -0.5013
24806SOL    HW286398  11.642   6.227   4.923 -2.3945  3.7520 -1.7703
24807SOL     OW86399  13.789   2.031   9.841 -0.3581 -0.4763  0.4216
24807SOL    HW186400  13.844   1.976   9.785 -2.9874  0.2246 -3.2328
24807SOL    HW286401  13.805   2.120   9.809  0.2738  0.4308  3.0088
24808SOL     OW86402  12.947   8.627  12.859  0.2660 -0.1544  0.0299
24808SOL    HW186403  12.962   8.709  12.907  0.6881 -0.5022  0.4965
24808SOL    HW286404  12.989   8.641  12.774  0.2690  0.1430  0.0791
24809SOL     OW86405  10.151   1.603   6.281  0.4430  0.6135  0.2291
24809SOL    HW186406  10.235   1.558   6.295 -0.2137 -0.6625  0.1521
24809SOL    HW286407  10.087   1.533   6.271 -0.7696  1.5746  0.9928
24810SOL     OW86408   2.382   5.409   3.093  0.1504  0.3456 -0.3219
24810SOL    HW186409   2.437   5.415   3.014  2.8188  0.9096  1.4606
24810SOL    HW286410   2.426   5.463   3.157 -1.1737 -1.1750  2.0125
24811SOL     OW86411  11.873  11.938   6.810 -0.1281  0.1424 -0.1121
24811SOL    HW186412  11.966  11.915   6.815  0.3947  1.9524 -0.8662
24811SOL    HW286413  11.841  11.889   6.734 -0.0854 -1.3046  0.7595
24812SOL     OW86414   9.213  12.762  12.285 -0.2046  0.3220 -0.4925
24812SOL    HW186415   9.165  12.742  12.365  2.0985 -0.0960  0.8773
24812SOL    HW286416   9.174  12.844  12.254 -2.2262 -0.3547  0.1096
24813SOL     OW86417   0.984   9.236   6.094 -0.3023 -0.1910 -0.0630
24813SOL    HW186418   1.020   9.227   6.006  1.4595  0.2756  0.5546
24813SOL    HW286419   0.988   9.330   6.111 -2.2551 -0.0782 -0.1044
24814SOL     OW86420   5.044  10.283   7.294  0.3702 -0.2230  0.6819
24814SOL    HW186421   5.093  10.248   7.219  1.5138  1.7279  0.4333
24814SOL    HW286422   5.111  10.300   7.360 -0.4913 -0.9066  1.7541
24815SOL     OW86423   2.493   1.192   6.209 -0.1761 -0.3352 -0.1414
24815SOL    HW186424   2.409   1.147   6.220 -0.3796 -0.8789 -3.0904
24815SOL    HW286425   2.468   1.282   6.186  0.1763  0.2491  1.5495
24816SOL     OW86426   8.275   9.384   6.317  0.4084 -0.1025 -0.4871
24816SOL    HW186427   8.295   9.292   6.299  3.7561  0.5974 -1.0212
24816SOL    HW286428   8.318   9.432   6.247 -0.0305  1.9537  0.5685
24817SOL     OW86429   4.830   6.121   8.367  0.0735  0.4805  0.4108
24817SOL    HW186430   4.751   6.078   8.400 -0.6769  0.9562 -0.7006
24817SOL    HW286431   4.860   6.065   8.295  0.2145  0.7758  0.2353
24818SOL     OW86432   1.208   4.121   2.923 -0.1965 -0.2887 -0.0131
24818SOL    HW186433   1.173   4.034   2.902 -0.2825 -0.0224 -1.0489
24818SOL    HW286434   1.299   4.118   2.893 -0.5121  0.3196 -1.1236
24819SOL     OW86435   5.771   8.169  10.560 -0.2171  0.1960 -0.3941
24819SOL    HW186436   5.821   8.170  10.642 -0.3851 -2.2077 -0.1649
24819SOL    HW286437   5.821   8.111  10.502 -2.2776 -1.7655 -0.3757
24820SOL     OW86438   2.403  12.350   8.060  0.3761  0.1751  0.6781
24820SOL    HW186439   2.385  12.257   8.043  0.6464  0.3075 -0.4284
24820SOL    HW286440   2.496  12.360   8.041  0.3579  0.6696  0.8326
24821SOL     OW86441   5.781   6.064   8.285  0.2335 -0.5417 -0.2741
24821SOL    HW186442   5.791   6.011   8.206 -1.5680 -0.9021 -0.3008
24821SOL    HW286443   5.866   6.057   8.329  0.3694 -2.7057 -0.7383
24822SOL     OW86444   4.163   7.150   6.853 -0.1075  0.0203 -0.0210
24822SOL    HW186445   4.101   7.090   6.811 -0.0399  0.4592 -0.7651
24822SOL    HW286446   4.115   7.185   6.928 -2.0349  2.8413 -2.3741
24823SOL     OW86447   1.495  12.395   5.737 -0.0957  0.1019  0.5646
24823SOL    HW186448   1.410  12.434   5.756  0.6970  1.6736  1.0771
24823SOL    HW286449   1.477  12.328   5.671 -1.5515  1.3130 -0.3231
24824SOL     OW86450   6.939  13.586  12.604 -0.4915 -0.4303  0.8238
24824SOL    HW186451   6.952  13.598  12.698  1.7323  2.7895  0.2631
24824SOL    HW286452   6.888  13.662  12.577  0.6413 -0.2198 -0.8661
24825SOL     OW86453  10.813   0.784   6.960 -0.4038  0.1232 -0.5194
24825SOL    HW186454  10.777   0.698   6.940 -0.8871 -0.2976  1.8083
24825SOL    HW286455  10.878   0.768   7.029  1.2484  1.3773 -1.6919
24826SOL     OW86456   0.867   3.011   2.233 -0.3324 -0.4425  0.2810
24826SOL    HW186457   0.788   2.961   2.253  0.6623 -2.6496 -0.9190
24826SOL    HW286458   0.859   3.032   2.140  0.4128 -0.5698  0.1807
24827SOL     OW86459   8.050   2.630   4.155  0.3764  0.1311  0.1352
24827SOL    HW186460   8.083   2.637   4.244  1.9953 -3.4011 -0.0296
24827SOL    HW286461   7.957   2.649   4.162  0.4487 -0.1388  2.6054
24828SOL     OW86462  13.391   0.108   3.542 -0.2359  0.1029 -0.0368
24828SOL    HW186463  13.456   0.038   3.545 -0.0848  0.2415 -0.0816
24828SOL    HW286464  13.347   0.097   3.457 -0.1569  0.1142 -0.0786
24829SOL     OW86465   8.152   4.827  10.838  0.1200  0.2882  0.5639
24829SOL    HW186466   8.234   4.796  10.877 -0.1524  1.9487  2.6161
24829SOL    HW286467   8.084   4.787  10.892 -0.3321  1.1765  0.6608
24830SOL     OW86468  11.023   5.070   4.416 -0.5836  0.2823  0.0952
24830SOL    HW186469  11.024   5.165   4.405  1.0074  0.1850 -0.8842
24830SOL    HW286470  10.938   5.043   4.381 -0.4523  1.2082 -0.9848
24831SOL     OW86471  12.960   8.190   1.609  0.1263  0.7622  0.1275
24831SOL    HW186472  12.924   8.239   1.683 -1.0713  2.5084 -1.5397
24831SOL    HW286473  13.049   8.166   1.637  0.0775  2.2618  1.7194
24832SOL     OW86474   1.740   1.328   0.092  0.4985 -0.0420 -0.0476
24832SOL    HW186475   1.750   1.279   0.010 -0.8016 -0.9939  0.3273
24832SOL    HW286476   1.778   1.271   0.158 -0.0849 -0.0834  0.2544
24833SOL     OW86477  13.353   5.953   3.140  0.2988 -0.1247 -0.2250
24833SOL    HW186478  13.273   5.937   3.090 -0.6448  1.8250  0.5571
24833SOL    HW286479  13.326   6.011   3.212  1.8922 -1.5781  1.6833
24834SOL     OW86480  11.459   5.282  13.257 -0.1125 -0.2324 -0.0073
24834SOL    HW186481  11.401   5.307  13.185  1.8181  0.5586 -1.3853
24834SOL    HW286482  11.420   5.323  13.334 -0.5974  1.5617 -1.1248
24835SOL     OW86483   5.747   3.101  11.765 -0.4772  0.4827 -0.1064
24835SOL    HW186484   5.832   3.121  11.726 -0.6427  1.1583 -0.1420
24835SOL    HW286485   5.726   3.180  11.816 -1.8400  1.0109 -1.4347
24836SOL     OW86486   2.065   3.894   6.443  0.1023  0.1513  0.3486
24836SOL    HW186487   2.015   3.818   6.413 -1.0090  0.8416  0.3843
24836SOL    HW286488   2.016   3.927   6.518 -1.0991  2.5522 -1.3162
24837SOL     OW86489   7.331  10.752  10.431  0.1608  0.8063 -0.0532
24837SOL    HW186490   7.245  10.779  10.464 -0.0185  0.6613 -0.3984
24837SOL    HW286491   7.392  10.815  10.470  0.0828  0.0578  1.3425
24838SOL     OW86492  11.574  12.123   6.331  0.8087 -0.2645  0.2957
24838SOL    HW186493  11.513  12.078   6.390 -1.3519  1.4570 -0.4847
24838SOL    HW286494  11.660  12.109   6.370 -0.2817 -1.1614  2.5424
24839SOL     OW86495  13.996  13.772   7.190 -0.6167  0.4343  0.4881
24839SOL    HW186496  13.959  13.742   7.107  1.7261 -0.5539 -0.2782
24839SOL    HW286497  13.995  13.694   7.246 -0.5403  0.6402  0.7816
24840SOL     OW86498  13.882  12.020   8.331 -0.0144  0.1800  0.5146
24840SOL    HW186499  13.969  11.990   8.306  0.7411  1.1753  1.7756
24840SOL    HW286500  13.897  12.077   8.407 -1.8038  0.0758  1.0075
24841SOL     OW86501   4.990   5.386   1.704  0.4437  0.1731 -0.3226
24841SOL    HW186502   5.021   5.419   1.789 -0.0574 -0.8641  0.2786
24841SOL    HW286503   5.041   5.436   1.640 -0.1625  2.0087  0.5293
24842SOL     OW86504  10.489   3.465   8.261  0.5267  0.0444 -0.2837
24842SOL    HW186505  10.496   3.370   8.260 -0.5642 -0.0504 -1.4371
24842SOL    HW286506  10.416   3.484   8.319  0.5965  0.1781 -0.2371
24843SOL     OW86507  11.898  12.958   5.619 -0.5296 -0.6484 -0.0408
24843SOL    HW186508  11.814  12.996   5.641  0.0692 -0.2811  1.7581
24843SOL    HW286509  11.958  13.033   5.613 -0.4024 -0.8361 -1.9083
24844SOL     OW86510   6.813  13.646   1.973  0.3170 -0.6266 -0.0655
24844SOL    HW186511   6.726  13.662   2.010  0.2271  0.3686 -0.6741
24844SOL    HW286512   6.837  13.728   1.931  1.0555 -1.2458 -0.9147
24845SOL     OW86513   6.016  10.665   7.919 -0.2382 -0.2450 -0.5471
24845SOL    HW186514   6.082  10.644   7.853  1.5472 -0.6507  1.2389
24845SOL    HW286515   6.035  10.756   7.943  1.8581 -1.2343  2.1384
24846SOL     OW86516   4.081  11.851  10.288 -0.7334 -0.6272 -0.3811
24846SOL    HW186517   4.164  11.811  10.262 -0.0010 -0.7325  1.8449
24846SOL    HW286518   4.031  11.779  10.326 -0.7795 -0.0953  0.6018
24847SOL     OW86519   7.930   6.639   4.770 -0.1966 -0.0296 -0.5045
24847SOL    HW186520   7.957   6.689   4.693 -0.2118 -0.3524 -0.7258
24847SOL    HW286521   7.895   6.704   4.830 -1.9870  0.0303 -1.5435
24848SOL     OW86522  10.589   8.950   1.471  0.2314  0.3609  0.2251
24848SOL    HW186523  10.666   8.919   1.519  0.0956 -0.4639 -0.0744
24848SOL    HW286524  10.613   8.941   1.379 -0.7469 -1.3666  0.0872
24849SOL     OW86525  13.252   4.015  13.801  0.4896 -0.8378 -0.3972
24849SOL    HW186526  13.179   4.074  13.783 -0.8466 -2.7812 -1.6891
24849SOL    HW286527  13.308   4.023  13.723  3.5275  3.0102  1.8405
24850SOL     OW86528   9.798  13.129   5.518  0.0573 -0.2102  0.1528
24850SOL    HW186529   9.813  13.053   5.574  0.1037  0.4613  1.0712
24850SOL    HW286530   9.713  13.113   5.477  0.5441 -1.2507 -0.4901
24851SOL     OW86531   3.680  13.041  11.639  0.4081  0.2354 -0.1108
24851SOL    HW186532   3.712  13.079  11.557 -2.2097  0.5282 -1.0879
24851SOL    HW286533   3.592  13.010  11.619 -0.1407 -0.1491  2.4807
24852SOL     OW86534   5.761  12.787   5.906 -0.0454 -0.5624 -0.2683
24852SOL    HW186535   5.808  12.753   5.829 -1.8152 -0.4055 -1.4630
24852SOL    HW286536   5.733  12.874   5.880  0.1385 -0.1265  0.9394
24853SOL     OW86537  10.470  11.377   5.958  0.5505 -0.0453  0.0269
24853SOL    HW186538  10.512  11.410   5.878 -0.7507 -0.9328 -1.0790
24853SOL    HW286539  10.402  11.442   5.978  1.2373  0.4692  0.7819
24854SOL     OW86540  10.049  12.719   4.209 -0.3939  0.0008 -0.3025
24854SOL    HW186541  10.089  12.652   4.154 -0.6840  0.0948 -0.6351
24854SOL    HW286542  10.123  12.763   4.251 -0.1881 -0.3099 -0.3360
24855SOL     OW86543   5.628   0.173   2.978 -0.0478  0.3449  0.1670
24855SOL    HW186544   5.608   0.087   2.940  1.0165  0.1963 -0.0861
24855SOL    HW286545   5.717   0.163   3.014 -0.4518  0.9221  1.3859
24856SOL     OW86546   4.997   9.151  11.062 -0.2571 -0.2897 -0.8189
24856SOL    HW186547   4.943   9.225  11.035 -0.1209  0.8670  1.7994
24856SOL    HW286548   5.075   9.191  11.100 -0.0712 -1.7654  0.4608
24857SOL     OW86549   9.646   8.627  12.698 -0.1323  0.5862  0.0591
24857SOL    HW186550   9.575   8.652  12.757  0.2983 -0.8100  1.2423
24857SOL    HW286551   9.643   8.531  12.696  0.0876  0.5885 -1.9486
24858SOL     OW86552   8.658  12.693   0.634 -0.6096 -0.1360 -0.2976
24858SOL    HW186553   8.589  12.677   0.569 -1.1052 -0.2269  0.2426
24858SOL    HW286554   8.637  12.779   0.670  0.4748  0.5458 -1.2486
24859SOL     OW86555   1.333   0.526  12.118 -0.1005  0.1536  0.2974
24859SOL    HW186556   1.407   0.585  12.135  0.1595 -0.1877  0.3715
24859SOL    HW286557   1.291   0.515  12.203 -0.3096  0.4400  0.2326
24860SOL     OW86558   5.353  13.837   7.924  0.2087 -0.2369  0.3028
24860SOL    HW186559   5.378  13.745   7.916  0.7054 -0.1328  0.6150
24860SOL    HW286560   5.392  13.866   8.007  0.8209  0.4983 -0.2336
24861SOL     OW86561   1.418  13.673  10.490  0.2547 -0.4751 -0.2638
24861SOL    HW186562   1.496  13.620  10.475  0.6533 -0.7476  2.3510
24861SOL    HW286563   1.396  13.658  10.582 -1.4292  1.5254 -0.2726
24862SOL     OW86564   4.122  14.030   8.517  0.3254  0.4163 -0.6135
24862SOL    HW186565   4.113  13.937   8.536  2.1895  0.6034  1.7003
24862SOL    HW286566   4.174  14.034   8.437 -0.2249 -0.4850 -1.0361
24863SOL     OW86567   6.302   9.378   0.248 -0.2266 -0.5747 -0.0104
24863SOL    HW186568   6.262   9.391   0.162  0.5659  0.2376 -0.2718
24863SOL    HW286569   6.396   9.390   0.233 -0.0175 -1.0542  0.8499
24864SOL     OW86570   3.803   7.287   8.929  0.2147 -0.1321 -0.2482
24864SOL    HW186571   3.890   7.317   8.956 -0.3848  0.6240  0.9542
24864SOL    HW286572   3.819   7.224   8.859  1.7082  0.2432 -0.2634
24865SOL     OW86573  11.426  11.140   7.829 -0.2158  0.4735  0.4729
24865SOL    HW186574  11.496  11.126   7.766 -0.4125 -1.5750  0.6296
24865SOL    HW286575  11.358  11.185   7.780  1.1319  2.4150  0.2933
24866SOL     OW86576   5.766   2.225  11.105 -0.7991 -0.4856 -0.0718
24866SOL    HW186577   5.788   2.315  11.079  0.6847 -0.1394  2.1664
24866SOL    HW286578   5.826   2.170  11.056 -0.4449 -0.1089 -0.0656
24867SOL     OW86579   4.598   8.847   9.430 -0.1434 -0.0463  0.0972
24867SOL    HW186580   4.507   8.872   9.451  0.2581  1.3290  0.2883
24867SOL    HW286581   4.589   8.777   9.366 -1.3451  0.4430 -0.2982
24868SOL     OW86582   2.472   0.996   9.004 -0.8367 -0.2952 -0.1220
24868SOL    HW186583   2.493   0.911   9.042 -0.2454 -0.6294 -1.1537
24868SOL    HW286584   2.542   1.054   9.033 -0.6218 -0.4409 -0.3516
24869SOL     OW86585   9.675   6.200  11.799 -0.4189  0.0132 -0.4646
24869SOL    HW186586   9.667   6.201  11.703  3.0107  0.9245 -0.8874
24869SOL    HW286587   9.745   6.137  11.817 -1.6122 -0.8303  1.5742
24870SOL     OW86588   5.480   1.661   7.035 -0.5611 -0.5124 -0.0850
24870SOL    HW186589   5.517   1.734   6.985  0.8065 -0.2616  1.2346
24870SOL    HW286590   5.411   1.702   7.088 -0.3773 -0.3367  0.0195
24871SOL     OW86591   2.853   0.411   1.405  0.0044  0.4156 -0.2422
24871SOL    HW186592   2.909   0.489   1.406 -0.4788  0.8007 -1.3103
24871SOL    HW286593   2.793   0.426   1.331 -0.0304 -1.0129 -0.5269
24872SOL     OW86594   4.128   2.082  11.415  0.2151  0.3511 -0.3946
24872SOL    HW186595   4.081   2.145  11.469 -0.8386 -1.0569  0.3812
24872SOL    HW286596   4.176   2.028  11.477  0.3937 -0.1855 -0.9913
24873SOL     OW86597   1.541  10.523   0.196  0.4623 -0.1063  0.1662
24873SOL    HW186598   1.447  10.509   0.186  0.5947 -0.9930  0.0847
24873SOL    HW286599   1.578  10.435   0.197  1.3853  0.2597 -0.6670
24874SOL     OW86600   3.175   7.936   3.150 -0.1129  0.1366 -0.9803
24874SOL    HW186601   3.154   7.919   3.058  1.1305 -0.9563 -1.0877
24874SOL    HW286602   3.267   7.912   3.159 -0.6510 -1.5399  0.9574
24875SOL     OW86603   1.614  13.060   3.621 -0.6536  0.4985 -0.0921
24875SOL    HW186604   1.551  13.068   3.693 -0.6709 -0.6151  0.0262
24875SOL    HW286605   1.619  12.966   3.603  0.1152  0.6739 -0.8718
24876SOL     OW86606   2.505   3.545   9.742 -0.5307 -0.1838  0.2195
24876SOL    HW186607   2.538   3.627   9.779  1.0580 -0.3885 -0.6366
24876SOL    HW286608   2.521   3.553   9.648 -0.5683 -1.3811  0.0974
24877SOL     OW86609  12.886  12.223  11.279  0.5277  0.3731 -0.1600
24877SOL    HW186610  12.900  12.178  11.196  0.4250 -0.2005  0.1300
24877SOL    HW286611  12.941  12.175  11.342  0.0532  0.3565  0.2460
24878SOL     OW86612  13.636   2.592   9.251  0.3249  0.0422 -0.5249
24878SOL    HW186613  13.648   2.498   9.236 -2.5297 -0.4233 -0.3788
24878SOL    HW286614  13.542   2.603   9.264  0.6745  2.8205  0.3753
24879SOL     OW86615   3.210   9.276   3.328  0.3506  0.7017  0.2866
24879SOL    HW186616   3.262   9.239   3.256 -0.2205 -1.3723  0.8778
24879SOL    HW286617   3.124   9.293   3.289 -0.4046 -1.7255  0.6963
24880SOL     OW86618   5.356   5.813   9.517 -0.1446 -0.2640 -0.0036
24880SOL    HW186619   5.335   5.872   9.444  2.7212  1.7774  0.6491
24880SOL    HW286620   5.442   5.777   9.494 -0.7037 -2.2651  0.8440
24881SOL     OW86621   8.198   1.613   8.402  0.0195 -0.6673 -0.2528
24881SOL    HW186622   8.259   1.541   8.388 -0.7709 -1.2512 -0.7992
24881SOL    HW286623   8.205   1.633   8.496  1.7564 -0.0474 -0.4738
24882SOL     OW86624   9.706   9.475   2.550  0.4515 -0.2198 -0.5602
24882SOL    HW186625   9.667   9.540   2.609 -1.2199 -1.3123 -0.3722
24882SOL    HW286626   9.668   9.495   2.465 -1.4443 -1.9158 -0.1853
24883SOL     OW86627   8.467   8.137   0.336  0.3760  0.1673 -0.1351
24883SOL    HW186628   8.453   8.175   0.249 -1.5677 -0.5218 -0.1820
24883SOL    HW286629   8.425   8.199   0.396  1.2577  0.3820  0.2701
24884SOL     OW86630   0.448  11.333   9.034  0.1625  1.0647 -0.6523
24884SOL    HW186631   0.443  11.295   9.122  0.4707 -1.4422 -1.6172
24884SOL    HW286632   0.423  11.424   9.046  1.9827  1.3319  2.3269
24885SOL     OW86633  12.859  13.880   7.102 -0.3850  0.0034 -0.1049
24885SOL    HW186634  12.922  13.949   7.082  0.7794 -1.0066 -0.0542
24885SOL    HW286635  12.909  13.815   7.152 -1.4460 -0.8640 -0.1190
24886SOL     OW86636   0.318   8.847  13.099 -0.1563 -0.4147  0.3970
24886SOL    HW186637   0.340   8.757  13.121 -0.8449 -0.7086 -0.0619
24886SOL    HW286638   0.334   8.853  13.005 -2.2668 -0.7527 -0.0427
24887SOL     OW86639  11.228   2.518   2.258  0.2986 -0.0863 -0.1342
24887SOL    HW186640  11.137   2.538   2.279  0.2386 -0.5830  0.1009
24887SOL    HW286641  11.233   2.422   2.260  0.7249 -0.0770 -0.5834
24888SOL     OW86642   3.896   5.972   0.341 -0.3201  0.0910  0.6788
24888SOL    HW186643   3.893   5.921   0.421  0.5659  1.0702  1.3589
24888SOL    HW286644   3.972   5.939   0.294 -1.3665 -1.1181 -0.2277
24889SOL     OW86645  10.863   7.720   0.799 -0.0925  0.1359 -0.1203
24889SOL    HW186646  10.903   7.777   0.864  0.3843  1.0287 -1.1515
24889SOL    HW286647  10.848   7.777   0.724 -0.8887 -0.7958 -0.6939
24890SOL     OW86648   1.045  11.425   6.357  0.1413  0.4341 -0.5020
24890SOL    HW186649   1.019  11.514   6.334  0.4830  0.2858 -1.4964
24890SOL    HW286650   1.131  11.414   6.318  0.0529 -0.3769 -0.4868
24891SOL     OW86651   0.135   6.339  11.298  0.3955  0.8043  0.1562
24891SOL    HW186652   0.047   6.333  11.336  0.7485 -1.3773  0.7330
24891SOL    HW286653   0.120   6.342  11.203 -0.3309  2.5170  0.2751
24892SOL     OW86654   1.066   0.815   4.140 -0.6897 -0.2180 -0.7806
24892SOL    HW186655   1.075   0.811   4.045  1.3215 -2.3697 -0.5928
24892SOL    HW286656   1.149   0.780   4.173 -1.0295  1.1522  1.7959
24893SOL     OW86657  12.004  13.525  12.869 -0.3453 -0.1127  0.2186
24893SOL    HW186658  12.023  13.544  12.777 -2.3444 -0.6291 -0.3394
24893SOL    HW286659  12.005  13.429  12.874  0.0320 -0.0822  0.8114
24894SOL     OW86660  11.970   8.582   9.666  0.1100  0.4825 -0.4358
24894SOL    HW186661  11.880   8.615   9.662  0.1948  0.9044  0.7588
24894SOL    HW286662  11.964   8.504   9.722  0.3347 -0.0877 -1.1830
24895SOL     OW86663   4.308   3.031   6.233  0.3806 -0.1133 -0.0424
24895SOL    HW186664   4.330   3.091   6.304  0.6034 -0.3511  0.0946
24895SOL    HW286665   4.213   3.037   6.225  0.5241  1.3317 -1.0004
24896SOL     OW86666   1.107  11.186   5.874 -0.0565  0.2543  0.0150
24896SOL    HW186667   1.111  11.150   5.785 -1.3021 -0.1183  0.1013
24896SOL    HW286668   1.015  11.183   5.897  0.1630  1.0723  1.0394
24897SOL     OW86669   3.596   6.751   3.967 -0.0314 -0.0351  0.1572
24897SOL    HW186670   3.631   6.664   3.948 -1.0804 -0.1062 -1.8093
24897SOL    HW286671   3.671   6.809   3.960  0.2985 -0.5467 -0.7779
24898SOL     OW86672  10.689   9.417  13.549  0.2824  0.1897 -0.4056
24898SOL    HW186673  10.723   9.331  13.577  0.4260  0.4657  0.2699
24898SOL    HW286674  10.614   9.395  13.494 -0.6087 -0.3558  0.9643
24899SOL     OW86675  13.156  13.046   0.686 -0.1993  0.5025 -0.0717
24899SOL    HW186676  13.119  13.106   0.751  0.1012 -1.1323  1.6795
24899SOL    HW286677  13.084  12.986   0.666  0.2175 -0.0399  0.0561
24900SOL     OW86678   1.675  10.943   0.271  0.2613 -0.5061  0.3896
24900SOL    HW186679   1.662  10.948   0.176  0.2267  0.0248  0.4205
24900SOL    HW286680   1.691  10.850   0.288 -0.6678 -0.7590 -0.0229
24901SOL     OW86681  11.114   5.748  11.419 -0.5938 -0.4887  0.1003
24901SOL    HW186682  11.106   5.662  11.461 -0.0768 -0.3894  0.4188
24901SOL    HW286683  11.150   5.805  11.488  2.1607 -0.7697 -0.9602
24902SOL     OW86684   1.148   4.915   1.867 -0.1339 -0.0742 -0.6131
24902SOL    HW186685   1.069   4.956   1.831 -0.0132  0.9504  0.2389
24902SOL    HW286686   1.177   4.855   1.798 -0.1328  1.4949 -2.0517
24903SOL     OW86687  10.097   8.500  10.281 -0.0067  0.7737 -0.6903
24903SOL    HW186688  10.054   8.511  10.196  0.0927  0.5032 -0.7771
24903SOL    HW286689  10.027   8.515  10.345 -0.4427 -0.5146 -0.8409
24904SOL     OW86690   5.781   6.403   9.368  0.0035 -1.1150 -0.2846
24904SOL    HW186691   5.854   6.351   9.335  0.1002  0.0293 -1.9977
24904SOL    HW286692   5.713   6.393   9.301 -1.0063 -1.2642  0.7412
24905SOL     OW86693   5.025  13.303   1.192  0.1857  0.0920 -0.0532
24905SOL    HW186694   4.951  13.244   1.178  0.2140  0.3084 -1.2005
24905SOL    HW286695   5.102  13.251   1.166  0.4312 -0.0407  0.8773
24906SOL     OW86696   1.820   1.848   4.066 -0.2707  0.0855  0.2411
24906SOL    HW186697   1.775   1.773   4.027 -0.7151  0.1394  0.6404
24906SOL    HW286698   1.854   1.897   3.992 -0.7102 -0.0585 -0.0604
24907SOL     OW86699  11.297  12.573   3.113 -0.0043  0.3290 -0.3926
24907SOL    HW186700  11.381  12.616   3.097  0.1742  0.1836  0.1220
24907SOL    HW286701  11.269  12.608   3.198  0.1610 -0.5924  0.0505
24908SOL     OW86702   4.019   4.282   1.529 -0.3603  0.0537 -0.5766
24908SOL    HW186703   4.081   4.214   1.556  0.0738  0.4601 -0.5367
24908SOL    HW286704   4.074   4.350   1.490 -0.8102  0.3015 -0.7841
24909SOL     OW86705   5.982   3.904   8.098 -0.0210  0.2718 -0.5522
24909SOL    HW186706   5.897   3.939   8.124  0.6132  0.1816  1.8232
24909SOL    HW286707   5.973   3.809   8.108  0.1949  0.2206 -0.8290
24910SOL     OW86708   9.705   4.118   7.805 -0.1772 -0.0636  0.3048
24910SOL    HW186709   9.762   4.108   7.729 -1.5488  0.5486 -0.8609
24910SOL    HW286710   9.633   4.056   7.790 -0.4037 -0.0397  1.1911
24911SOL     OW86711   2.565   9.893   0.443  0.4062 -0.5744  0.3439
24911SOL    HW186712   2.473   9.874   0.464  0.3151  1.0464  1.6536
24911SOL    HW286713   2.570   9.885   0.348 -2.2928  3.6134 -0.4390
24912SOL     OW86714   6.458   2.716   0.913 -0.2484  0.2353 -0.2582
24912SOL    HW186715   6.532   2.753   0.865 -0.6121  2.6604  0.9216
24912SOL    HW286716   6.495   2.643   0.962  2.1213  2.9921  2.4436
24913SOL     OW86717   5.493  10.121   0.505  0.9709 -0.0406 -0.3322
24913SOL    HW186718   5.507  10.167   0.588  5.9441 -1.0105 -0.2935
24913SOL    HW286719   5.544  10.171   0.441  0.4143 -1.4134 -1.9204
24914SOL     OW86720   6.184  12.354   9.174 -0.1930  0.0541  0.3202
24914SOL    HW186721   6.239  12.432   9.180  0.0994  0.0141 -1.4039
24914SOL    HW286722   6.195  12.324   9.084 -1.1318 -1.3744  0.6581
24915SOL     OW86723  13.793  13.484  13.009  0.0387  0.3531  0.5313
24915SOL    HW186724  13.798  13.422  12.936  0.1779 -1.3764  1.9314
24915SOL    HW286725  13.700  13.486  13.033 -0.1403  1.5862 -0.2222
24916SOL     OW86726   8.999  13.660   3.610  0.3995  0.0717 -0.2751
24916SOL    HW186727   8.926  13.677   3.551  1.8641  2.3057 -1.5625
24916SOL    HW286728   8.984  13.571   3.642 -2.6393  0.3083 -0.7850
24917SOL     OW86729   2.439  13.810   1.677 -0.5676 -0.0566  0.0701
24917SOL    HW186730   2.489  13.823   1.597  2.8660  2.1952  2.2965
24917SOL    HW286731   2.404  13.721   1.669 -1.7103  0.5352 -4.4051
24918SOL     OW86732  10.296  12.141  12.456  0.3423  0.1382  0.9560
24918SOL    HW186733  10.299  12.167  12.548 -0.8911 -0.3351  1.1502
24918SOL    HW286734  10.379  12.096  12.441  0.4085 -0.0888  1.9382
24919SOL     OW86735  11.184  11.456   4.462  0.1519 -0.0831 -0.1645
24919SOL    HW186736  11.198  11.374   4.508  1.0279  1.0110  1.6245
24919SOL    HW286737  11.102  11.444   4.414  0.1795 -1.9080  0.1888
24920SOL     OW86738   1.564  10.822  12.918  0.2467  0.2734  0.1873
24920SOL    HW186739   1.498  10.848  12.982  0.3022 -0.8240  0.7089
24920SOL    HW286740   1.544  10.731  12.898  1.5968 -0.0839  0.3678
24921SOL     OW86741   5.157  12.653   4.567  0.6322 -0.1750  0.1603
24921SOL    HW186742   5.190  12.729   4.615  1.4976  0.4698 -1.3848
24921SOL    HW286743   5.224  12.586   4.579  0.0143 -0.6261  1.2664
24922SOL     OW86744   0.187   4.181   5.216  0.0547 -0.1283  0.2942
24922SOL    HW186745   0.155   4.125   5.145  0.4017 -0.6366  0.5288
24922SOL    HW286746   0.166   4.132   5.296 -1.0930  0.8213  0.6024
24923SOL     OW86747  11.680   3.444  11.217  0.3936 -0.3656  0.2912
24923SOL    HW186748  11.760   3.490  11.242  0.1843 -0.4272  1.1053
24923SOL    HW286749  11.635   3.427  11.300 -1.5278  1.5817 -0.2805
24924SOL     OW86750   7.348   9.017   2.182 -0.0153  0.0033  0.9231
24924SOL    HW186751   7.437   8.992   2.207  0.6420  1.7077  0.4126
24924SOL    HW286752   7.340   8.992   2.090  0.4678  1.1340  0.5554
24925SOL     OW86753  14.007   1.414   9.830 -0.0366  0.2095  0.3742
24925SOL    HW186754  13.995   1.326   9.794 -1.4840  1.2587 -1.9503
24925SOL    HW286755  13.918   1.445   9.847  0.4222  1.4050  0.6702
24926SOL     OW86756   6.844   0.919  12.637  0.3912 -0.4698  0.4354
24926SOL    HW186757   6.781   0.934  12.707  1.6636 -0.7028  1.6689
24926SOL    HW286758   6.793   0.879  12.567 -0.9564 -0.0131  1.1187
24927SOL     OW86759  12.684   9.260  12.026  0.0369  0.5725  0.1593
24927SOL    HW186760  12.625   9.325  11.988  1.2205  2.2181  1.0460
24927SOL    HW286761  12.664   9.260  12.119  0.3831 -0.0096  0.2418
24928SOL     OW86762  13.402   2.096   9.158 -0.4820  0.2578 -0.2845
24928SOL    HW186763  13.325   2.109   9.213  0.0405 -0.7929  0.7376
24928SOL    HW286764  13.474   2.085   9.220  0.3964  0.6492 -1.2126
24929SOL     OW86765  13.177  12.117   9.854  0.1859  0.4709 -0.3692
24929SOL    HW186766  13.106  12.163   9.899 -0.7507 -0.7055 -0.5882
24929SOL    HW286767  13.181  12.032   9.898  1.1477  0.3482 -0.6770
24930SOL     OW86768   0.694  12.636   9.602  0.0697  0.0573  0.2281
24930SOL    HW186769   0.679  12.580   9.526  0.7524 -0.9466  0.8124
24930SOL    HW286770   0.654  12.589   9.675 -1.3312  1.4144  0.3782
24931SOL     OW86771   4.280   5.385  10.359 -0.3005  0.1673  0.3813
24931SOL    HW186772   4.343   5.453  10.336 -0.8399  1.1282  1.6069
24931SOL    HW286773   4.234   5.366  10.277  0.5703  0.5216 -0.2028
24932SOL     OW86774   2.147   7.899   1.134 -0.3846 -0.2744  0.2981
24932SOL    HW186775   2.135   7.809   1.103  1.6780 -0.4676 -0.1148
24932SOL    HW286776   2.194   7.943   1.063 -0.7748  0.9565  0.7754
24933SOL     OW86777   5.706  11.134   0.351  0.4539  0.0721  0.0367
24933SOL    HW186778   5.626  11.164   0.393 -0.4799 -1.3920 -0.6163
24933SOL    HW286779   5.733  11.208   0.295 -0.2146  0.7201  0.5561
24934SOL     OW86780  11.511  10.285   5.988 -0.3700  0.1336  0.0501
24934SOL    HW186781  11.477  10.313   6.073  0.3984  0.2006  0.3443
24934SOL    HW286782  11.562  10.206   6.008 -0.3229  0.0518 -0.3801
24935SOL     OW86783   7.237   1.467   9.787  0.4444 -0.0740  0.1848
24935SOL    HW186784   7.229   1.559   9.762 -0.2597 -0.1939 -0.0395
24935SOL    HW286785   7.154   1.446   9.830  1.4181 -0.0088  2.2084
24936SOL     OW86786   8.075   8.222   1.828  0.3813  1.0132 -0.3056
24936SOL    HW186787   8.022   8.291   1.867  1.2250  2.1260 -1.0705
24936SOL    HW286788   8.112   8.174   1.903 -1.5738  0.2746  0.2315
24937SOL     OW86789   0.221   4.206   7.622 -0.3552 -0.0318 -0.2466
24937SOL    HW186790   0.168   4.159   7.557 -0.3798 -0.6778  0.2362
24937SOL    HW286791   0.290   4.248   7.570 -1.2161  0.6678 -0.8663
24938SOL     OW86792  12.216   3.639   2.527 -0.0215 -0.1722  0.2180
24938SOL    HW186793  12.142   3.591   2.490 -0.8333 -0.1852  1.7628
24938SOL    HW286794  12.212   3.726   2.487  0.8648 -1.0145 -1.8445
24939SOL     OW86795   9.054   2.652  13.563  0.8682  0.1945  0.4413
24939SOL    HW186796   9.098   2.644  13.478  0.4702  0.1106  0.2394
24939SOL    HW286797   9.049   2.746  13.579  0.8158  0.2153  0.3022
24940SOL     OW86798   8.045   3.022   8.931 -0.3362  0.0011  0.0512
24940SOL    HW186799   8.063   3.097   8.988 -1.5905 -0.1666  0.7109
24940SOL    HW286800   7.956   3.037   8.898  0.6322  0.5331 -2.6106
24941SOL     OW86801   4.923  10.852   8.587  0.3793  0.9986 -0.2616
24941SOL    HW186802   4.856  10.913   8.554  0.3893 -1.4211 -5.7884
24941SOL    HW286803   4.995  10.859   8.524  2.9077 -0.6371  2.2354
24942SOL     OW86804   7.849  13.146   8.333 -0.6231  0.3120 -0.0840
24942SOL    HW186805   7.906  13.071   8.318  0.0018  0.7419  0.0863
24942SOL    HW286806   7.893  13.219   8.290 -0.3491  0.9298  1.1906
24943SOL     OW86807   3.542   1.844  11.093  0.0687 -0.5650  0.1550
24943SOL    HW186808   3.536   1.839  11.188 -0.8115  1.1487  0.2327
24943SOL    HW286809   3.635   1.833  11.074  0.1931 -1.4197  1.1542
24944SOL     OW86810  12.230   4.388  13.989 -0.5860  0.0124 -0.1714
24944SOL    HW186811  12.277   4.367  14.069  0.2370 -1.0069 -0.8964
24944SOL    HW286812  12.140   4.407  14.018 -0.3399 -0.4940  0.9571
24945SOL     OW86813   0.625   1.218   1.032 -0.0317 -0.3302  0.3929
24945SOL    HW186814   0.616   1.220   1.127 -1.7777 -1.0310  0.2911
24945SOL    HW286815   0.718   1.201   1.016  0.8115  2.3719  1.8920
24946SOL     OW86816  10.721   7.218   3.867  0.1365  0.1483  0.5177
24946SOL    HW186817  10.778   7.230   3.942  1.2738  0.1122 -0.3200
24946SOL    HW286818  10.635   7.198   3.905  0.6692  0.2101  1.7912
24947SOL     OW86819   0.627   0.690   6.755  0.4503  0.1753  0.1644
24947SOL    HW186820   0.546   0.707   6.707  0.9654  4.1705  0.3721
24947SOL    HW286821   0.599   0.681   6.846  0.1051 -0.5644 -0.0027
24948SOL     OW86822   6.959   4.506   4.507  0.3148  0.4715  0.4004
24948SOL    HW186823   7.028   4.442   4.525 -0.8520 -1.5204 -1.6266
24948SOL    HW286824   6.974   4.533   4.416 -0.7897  0.9917  0.3549
24949SOL     OW86825   1.980   1.201  12.959  0.1629 -0.7076 -0.0727
24949SOL    HW186826   1.996   1.125  13.015  1.4127 -0.2638  0.2140
24949SOL    HW286827   2.063   1.214  12.912  0.4311  1.2483  0.8333
24950SOL     OW86828  11.935   6.472  12.180 -0.5080  0.0683 -0.4067
24950SOL    HW186829  11.988   6.516  12.113  1.1631 -0.9682  0.1601
24950SOL    HW286830  11.864   6.534  12.199 -1.2691  0.2318 -3.3609
24951SOL     OW86831   8.481   3.272   5.923  0.0224 -0.0002 -0.0819
24951SOL    HW186832   8.572   3.243   5.925 -0.2335 -0.9591 -1.3535
24951SOL    HW286833   8.433   3.198   5.886 -1.0495  1.0572 -0.8907
24952SOL     OW86834   9.648   9.979   8.325  0.3220 -0.3330  0.2410
24952SOL    HW186835   9.606   9.924   8.391 -1.8319  0.2451 -0.5434
24952SOL    HW286836   9.611   9.948   8.242  1.3398  0.3475 -0.4923
24953SOL     OW86837   9.835   9.394  13.317 -0.2539 -0.2703  0.1845
24953SOL    HW186838   9.847   9.328  13.249 -1.4208 -0.0012 -0.3031
24953SOL    HW286839   9.901   9.373  13.383 -0.9289 -2.2153  0.2792
24954SOL     OW86840   9.349  11.201  12.440 -0.0403 -0.3665 -0.3698
24954SOL    HW186841   9.265  11.231  12.474  0.3140  0.2956 -0.0517
24954SOL    HW286842   9.364  11.116  12.482  0.1186  0.1740  0.6930
24955SOL     OW86843   2.816   1.913   8.831  0.0087 -0.5074  0.4103
24955SOL    HW186844   2.833   1.904   8.737  1.0809 -1.2809  0.6618
24955SOL    HW286845   2.859   1.995   8.856 -0.0654 -0.4274  0.2758
24956SOL     OW86846   8.761   5.428  11.987 -0.4260 -0.2965 -0.3235
24956SOL    HW186847   8.846   5.389  11.965 -0.4864  0.4920 -2.1774
24956SOL    HW286848   8.783   5.502  12.044 -0.0094 -0.9297  0.3560
24957SOL     OW86849   7.763   7.023   1.104  0.3727 -0.2320 -0.0086
24957SOL    HW186850   7.747   6.928   1.103  0.0235 -0.1798 -0.7581
24957SOL    HW286851   7.682   7.060   1.138  0.1590 -0.1573 -0.5853
24958SOL     OW86852  13.938   4.750  11.762 -0.7317 -0.4328  0.3623
24958SOL    HW186853  13.973   4.839  11.765  0.1444 -0.7938  1.3394
24958SOL    HW286854  14.005   4.697  11.806  0.0008 -1.9982 -2.4045
24959SOL     OW86855   8.906   1.657   5.449 -0.7007  0.2084 -0.7223
24959SOL    HW186856   8.952   1.725   5.400 -1.3186  2.7888  1.9487
24959SOL    HW286857   8.838   1.705   5.497 -0.9299 -2.2683  1.6315
24960SOL     OW86858   3.171   9.542   4.378 -0.3834 -0.4257 -0.0508
24960SOL    HW186859   3.131   9.555   4.293 -0.1109 -1.1621 -0.3008
24960SOL    HW286860   3.169   9.628   4.419 -3.0474 -0.5746  0.3217
24961SOL     OW86861   3.649   2.121   0.632  0.0175 -0.4461 -0.4094
24961SOL    HW186862   3.640   2.105   0.726 -1.1606 -0.5384 -0.5311
24961SOL    HW286863   3.707   2.051   0.602 -0.6795 -1.2306  0.0270
24962SOL     OW86864   1.919  10.962   1.111  0.2301 -0.4645  0.0007
24962SOL    HW186865   1.977  10.979   1.185 -0.0508 -1.1396  0.3836
24962SOL    HW286866   1.893  11.048   1.080  0.7465 -0.1703  0.3740
24963SOL     OW86867   3.553   1.370   7.837 -0.0846 -0.2361 -0.6178
24963SOL    HW186868   3.480   1.401   7.783 -0.4479  0.6770  0.3815
24963SOL    HW286869   3.583   1.447   7.885  0.2081 -1.0322  0.5295
24964SOL     OW86870   8.192  11.659   0.712 -0.6266  0.0071 -0.0423
24964SOL    HW186871   8.285  11.639   0.725 -1.1106 -2.9853 -0.4834
24964SOL    HW286872   8.179  11.743   0.757  2.1175  0.1567  0.6451
24965SOL     OW86873   1.389   6.549  11.140 -0.5059 -0.4365 -0.5140
24965SOL    HW186874   1.360   6.487  11.207 -1.6346  0.1429 -0.4416
24965SOL    HW286875   1.313   6.604  11.124  0.5663  1.1934 -0.2873
24966SOL     OW86876   1.703  10.128   5.556 -0.6924  0.2668 -0.0381
24966SOL    HW186877   1.714  10.119   5.650 -1.2646  0.7566  0.0763
24966SOL    HW286878   1.731  10.218   5.537  0.1186 -0.0515 -0.4477
24967SOL     OW86879   1.231   6.347   8.806  0.5944 -0.6417  0.3285
24967SOL    HW186880   1.310   6.401   8.811 -0.1148  0.4690  0.0590
24967SOL    HW286881   1.236   6.304   8.721  0.5034  0.1143 -0.0737
24968SOL     OW86882   6.143  11.114   9.351  0.2520  0.2464  0.3435
24968SOL    HW186883   6.189  11.164   9.284  1.5477 -2.2604 -0.7755
24968SOL    HW286884   6.212  11.073   9.402 -0.7552  0.2320  1.7465
24969SOL     OW86885  13.299  12.829   0.738 -0.7759 -0.5961 -0.1968
24969SOL    HW186886  13.254  12.884   0.674  0.6478  0.0218 -0.7165
24969SOL    HW286887  13.327  12.752   0.688  1.1300  0.2968 -0.6160
24970SOL     OW86888   9.657   3.916   5.050  0.3391 -0.7080 -0.2508
24970SOL    HW186889   9.720   3.981   5.022  0.7484 -1.1968 -0.4782
24970SOL    HW286890   9.603   3.899   4.973 -1.8302  1.6544  0.6223
24971SOL     OW86891   4.070  10.227   1.095 -0.0753 -0.3042 -0.7172
24971SOL    HW186892   4.062  10.322   1.110 -2.5300 -0.7339  1.5151
24971SOL    HW286893   4.162  10.208   1.113  0.2864  1.5423 -0.3566
24972SOL     OW86894   4.678   8.831   4.934  0.7458 -0.1981 -0.5940
24972SOL    HW186895   4.588   8.860   4.921  0.2577  0.1978  2.8233
24972SOL    HW286896   4.729   8.912   4.938  0.7714 -0.2626  0.4368
24973SOL     OW86897   3.237   5.403  10.145  0.1732 -0.2601 -0.2472
24973SOL    HW186898   3.228   5.498  10.147 -0.1779 -0.3000  0.6118
24973SOL    HW286899   3.275   5.384  10.059 -1.9496  0.4676 -1.4467
24974SOL     OW86900   7.528   4.015   0.530  0.4258  0.0970 -0.3143
24974SOL    HW186901   7.611   3.975   0.556  0.2416 -0.3602 -0.4214
24974SOL    HW286902   7.476   4.016   0.611  0.8359  1.1500 -0.0532
24975SOL     OW86903  12.594   9.153  12.291  0.0117 -0.0648 -0.0826
24975SOL    HW186904  12.640   9.088  12.344 -2.4048 -0.4950  1.6140
24975SOL    HW286905  12.527   9.189  12.349 -1.4484  0.9038 -2.2495
24976SOL     OW86906  13.959   0.789   1.115 -0.2033  0.1393 -0.0116
24976SOL    HW186907  14.013   0.720   1.153  1.4189  1.6269  0.5136
24976SOL    HW286908  13.927   0.838   1.191 -2.9889 -1.0866 -0.2416
24977SOL     OW86909   9.796   5.998   4.142 -0.5640  0.1593 -0.1927
24977SOL    HW186910   9.876   6.018   4.190  0.1688  1.3751 -1.8208
24977SOL    HW286911   9.755   6.084   4.128 -1.7264 -0.3665 -0.1122
24978SOL     OW86912   8.050   6.504  13.856  0.1366 -0.7124 -0.2687
24978SOL    HW186913   8.087   6.581  13.812 -0.0848 -0.4215  0.0448
24978SOL    HW286914   7.973   6.481  13.804 -0.5258  0.0548  0.3465
24979SOL     OW86915   9.532   0.042   0.176  0.3074  0.1754  0.3406
24979SOL    HW186916   9.499   0.128   0.150  0.0202  0.6399  2.0850
24979SOL    HW286917   9.594   0.017   0.108  1.1313  2.2163  0.2847
24980SOL     OW86918   4.749   5.866   9.317 -0.0836 -0.0145  0.3895
24980SOL    HW186919   4.828   5.895   9.271  1.4594 -0.5796  2.5319
24980SOL    HW286920   4.748   5.917   9.398  0.1724 -2.5414  2.1137
24981SOL     OW86921   2.114   5.626  12.239 -0.1953 -1.1548 -0.1303
24981SOL    HW186922   2.199   5.654  12.273  0.8517 -0.0174 -3.3293
24981SOL    HW286923   2.060   5.704  12.242 -1.0072 -1.7321  1.3333
24982SOL     OW86924   3.509   5.408   5.126 -0.0734  0.0082  0.4419
24982SOL    HW186925   3.568   5.483   5.117 -0.1311 -0.0219 -0.1850
24982SOL    HW286926   3.511   5.388   5.220  0.2750  0.5223  0.5505
24983SOL     OW86927   1.628   1.796   6.842 -0.0635  0.4295 -0.0290
24983SOL    HW186928   1.601   1.705   6.849 -0.3756  0.4045 -1.3456
24983SOL    HW286929   1.689   1.798   6.768  0.9182  1.0854  0.7613
24984SOL     OW86930  12.918   3.212   9.854  0.2696 -0.0907  0.2693
24984SOL    HW186931  12.973   3.250   9.786 -0.8537  0.2617 -0.4626
24984SOL    HW286932  12.851   3.163   9.807 -0.0382 -0.5281  1.1451
24985SOL     OW86933   1.154   2.331  11.840 -0.4008 -0.2571  0.4887
24985SOL    HW186934   1.133   2.249  11.885  0.4288 -0.3751  0.6880
24985SOL    HW286935   1.088   2.392  11.871  0.1340 -0.3372  1.9029
24986SOL     OW86936   8.177   9.468  12.354  0.0097  0.9392 -0.0325
24986SOL    HW186937   8.244   9.475  12.422  1.4918 -1.6362 -1.0559
24986SOL    HW286938   8.226   9.441  12.276 -2.1047 -0.0659 -1.0899
24987SOL     OW86939  10.597   4.410   7.904  0.1144  0.6916 -0.1477
24987SOL    HW186940  10.653   4.394   7.980 -2.0071 -2.3124  0.9538
24987SOL    HW286941  10.657   4.405   7.829  1.5558 -1.0734  1.0485
24988SOL     OW86942   5.385  10.575   6.507  0.4844 -0.1239 -0.1129
24988SOL    HW186943   5.336  10.510   6.557 -2.6872  2.5768  0.6161
24988SOL    HW286944   5.454  10.604   6.567 -2.0092  1.6170  2.1271
24989SOL     OW86945   2.219   4.216   1.673  0.2959 -0.6223  0.1970
24989SOL    HW186946   2.145   4.274   1.657  1.2020  0.8791  1.1753
24989SOL    HW286947   2.208   4.186   1.763 -0.1422 -2.0064 -0.2810
24990SOL     OW86948   2.191  10.840  12.554  0.0873  0.3714 -0.4452
24990SOL    HW186949   2.268  10.891  12.575  1.6442 -2.6234  1.9766
24990SOL    HW286950   2.195  10.827  12.459  2.2021  0.8291 -0.4552
24991SOL     OW86951   1.605  12.328   2.906  0.8168 -0.4139 -0.2845
24991SOL    HW186952   1.622  12.249   2.957  1.8583 -0.1408 -0.2036
24991SOL    HW286953   1.626  12.303   2.816 -0.9511 -0.8728 -0.6155
24992SOL     OW86954  10.608   1.795   2.326  0.0428 -0.7057 -0.2703
24992SOL    HW186955  10.700   1.819   2.315 -0.2477 -0.0912 -1.4889
24992SOL    HW286956  10.603   1.764   2.417  1.8648 -2.6579 -0.7484
24993SOL     OW86957  11.302  12.269   9.372 -0.4119 -0.1108  0.3092
24993SOL    HW186958  11.253  12.289   9.292 -1.1000 -0.6663  0.5845
24993SOL    HW286959  11.239  12.278   9.443  0.2357  0.5411  0.8197
24994SOL     OW86960   8.030  11.800   0.984 -0.3935  0.4078  0.1999
24994SOL    HW186961   7.993  11.813   1.072 -0.9075 -1.1813  0.2417
24994SOL    HW286962   7.954  11.786   0.928 -0.0966  1.7929 -0.6117
24995SOL     OW86963   9.599   4.932   6.527 -0.4969 -0.3722 -0.4342
24995SOL    HW186964   9.620   4.856   6.473 -1.5041 -0.8232 -0.2082
24995SOL    HW286965   9.572   4.896   6.611  2.5152  0.3707  0.9719
24996SOL     OW86966   2.018  12.213   6.339  0.3088 -0.0935 -0.5061
24996SOL    HW186967   2.041  12.246   6.426  1.1510  0.4866 -0.9282
24996SOL    HW286968   1.964  12.136   6.355  0.6079 -0.0947  0.5324
24997SOL     OW86969  11.621   6.805   5.775 -0.1616  0.0057 -0.1123
24997SOL    HW186970  11.610   6.898   5.755  0.2126  0.5489  1.9555
24997SOL    HW286971  11.572   6.792   5.856  1.1328 -1.2081  0.5158
24998SOL     OW86972   2.348   1.471   6.339  0.7213  0.3950 -0.4472
24998SOL    HW186973   2.290   1.507   6.273 -0.0936  0.1650  0.1256
24998SOL    HW286974   2.360   1.542   6.402 -0.0683 -0.0012  0.1562
24999SOL     OW86975   3.364  13.965   7.813 -0.4614  0.7118 -0.3493
24999SOL    HW186976   3.405  13.924   7.736 -1.7696 -0.4761 -0.4434
24999SOL    HW286977   3.436  14.010   7.857  0.5125  0.5349 -1.7025
25000SOL     OW86978   6.778   9.173  11.790 -0.1452 -0.8402 -0.2115
25000SOL    HW186979   6.720   9.236  11.832  0.9814 -0.2478  0.5084
25000SOL    HW286980   6.751   9.172  11.699 -1.7783 -1.1583  0.2556
25001SOL     OW86981   9.118   2.893   7.597 -0.5774  0.0087 -0.0114
25001SOL    HW186982   9.134   2.870   7.688 -0.7910 -2.6843 -0.5844
25001SOL    HW286983   9.062   2.823   7.563 -1.5328  1.5739 -1.9158
25002SOL     OW86984  10.752   9.964   9.336 -0.2837  0.3347 -0.4054
25002SOL    HW186985  10.771   9.952   9.242 -2.7845  1.1967 -1.1055
25002SOL    HW286986  10.713   9.880   9.362 -1.6709  0.8466 -0.7605
25003SOL     OW86987   9.804   6.343   2.218 -0.1077 -0.2118  0.0636
25003SOL    HW186988   9.739   6.410   2.195  0.0177  0.2294  0.9301
25003SOL    HW286989   9.888   6.389   2.211  0.1312 -0.7893 -1.0891
25004SOL     OW86990   5.509   7.922   2.663  0.2842  0.5530 -0.0869
25004SOL    HW186991   5.548   7.849   2.711 -0.6955  0.5431  0.7308
25004SOL    HW286992   5.561   7.998   2.688  0.2315  0.4224  0.4351
25005SOL     OW86993  11.326  10.636   2.833 -0.5643 -0.2091  0.2909
25005SOL    HW186994  11.294  10.699   2.898 -0.3651  0.1639  0.0301
25005SOL    HW286995  11.318  10.682   2.750  1.8334  0.4086  0.3241
25006SOL     OW86996  12.952   7.876   5.980 -0.2699  0.4738 -0.2805
25006SOL    HW186997  12.912   7.947   6.030  1.2575  1.1423  0.0285
25006SOL    HW286998  13.004   7.920   5.912  2.1675 -0.2172  1.0219
25007SOL     OW86999  13.287   5.484  13.293 -0.0434  0.5633  0.2487
25007SOL    HW187000  13.322   5.422  13.229 -1.9948  1.1081 -1.4389
25007SOL    HW287001  13.344   5.560  13.285  2.4200 -0.9015  2.3896
25008SOL     OW87002   8.971   1.491   5.196  0.0633  0.3792  0.6245
25008SOL    HW187003   8.909   1.559   5.168 -0.5502 -0.7695 -0.9853
25008SOL    HW287004   9.022   1.532   5.266 -0.3472  2.4532 -0.2144
25009SOL     OW87005   7.425   6.573  13.724 -0.5075 -0.6703 -0.1805
25009SOL    HW187006   7.357   6.518  13.684 -0.8237  0.8305 -1.8465
25009SOL    HW287007   7.383   6.658  13.735  1.3268  0.5874 -2.1957
25010SOL     OW87008   9.388   7.607   0.826 -0.6293 -0.3369 -0.0660
25010SOL    HW187009   9.309   7.581   0.780 -2.0494  1.0258  1.4669
25010SOL    HW287010   9.413   7.530   0.877 -2.3847 -0.0948  1.2571
25011SOL     OW87011   5.696   4.332   9.223 -0.1517  0.5991  0.4794
25011SOL    HW187012   5.786   4.340   9.256 -0.3858 -1.4339  1.7194
25011SOL    HW287013   5.705   4.349   9.129  1.9183 -1.6007  0.1807
25012SOL     OW87014   2.630   9.454  10.811  0.3368 -0.0926  0.0273
25012SOL    HW187015   2.657   9.492  10.728  1.3640 -0.9576 -0.0480
25012SOL    HW287016   2.562   9.391  10.788  1.6811 -1.4470 -0.3625
25013SOL     OW87017  12.440   8.119   5.665  0.2524 -0.1489 -0.4515
25013SOL    HW187018  12.532   8.133   5.641  0.0992  0.8244 -0.5050
25013SOL    HW287019  12.414   8.041   5.615  1.2418 -0.8710  0.1232
25014SOL     OW87020  13.836  13.896   6.481  0.2561  0.6960  0.2132
25014SOL    HW187021  13.756  13.848   6.499 -0.1098  1.7869  1.6822
25014SOL    HW287022  13.900  13.828   6.460 -0.6459 -0.3145  0.6104
25015SOL     OW87023  13.530   0.475   1.056  0.0711  0.1221 -0.1913
25015SOL    HW187024  13.440   0.491   1.085  0.4449 -0.1595  1.1686
25015SOL    HW287025  13.547   0.384   1.082  0.0337 -0.5905 -2.3937
25016SOL     OW87026   6.150  11.351   3.664 -0.3593  0.1851 -0.5797
25016SOL    HW187027   6.147  11.325   3.572 -1.1956  0.7618 -0.7273
25016SOL    HW287028   6.241  11.377   3.679  0.2185 -1.6157 -0.7453
25017SOL     OW87029   7.991   5.437   1.983 -0.3818 -0.5721  1.0796
25017SOL    HW187030   8.044   5.513   2.006 -1.4635  0.4239  0.3686
25017SOL    HW287031   8.017   5.370   2.046  1.2951  0.0645  1.0980
25018SOL     OW87032   5.668  12.060   6.961 -0.2489  0.0355  0.0627
25018SOL    HW187033   5.579  12.062   6.924 -0.6496 -0.3713  0.9768
25018SOL    HW287034   5.702  11.975   6.935 -0.7004 -0.4425  0.9750
25019SOL     OW87035  13.770   8.376   0.616  0.2047 -0.1149  0.0407
25019SOL    HW187036  13.813   8.367   0.701 -1.4723  0.2442  0.9688
25019SOL    HW287037  13.684   8.335   0.628 -0.6367  1.2484 -1.0122
25020SOL     OW87038   1.660   9.193   4.431  0.1978  0.2519 -0.6981
25020SOL    HW187039   1.650   9.101   4.454  0.7694  0.3310 -0.1085
25020SOL    HW287040   1.743   9.197   4.383  0.0805  0.4289 -0.8876
25021SOL     OW87041  11.669  11.889  11.844 -0.6074 -0.3648  0.1495
25021SOL    HW187042  11.741  11.827  11.851 -0.9578 -0.6291  1.9480
25021SOL    HW287043  11.601  11.842  11.795 -0.5706 -1.1241  0.8103
25022SOL     OW87044   1.852   2.043   9.254 -0.0377 -0.2000  0.3127
25022SOL    HW187045   1.885   2.065   9.166  0.6047  0.2861  0.6609
25022SOL    HW287046   1.812   1.957   9.243  1.6360 -0.9885 -0.0991
25023SOL     OW87047  12.517  10.220   3.948 -0.1887  0.1179  0.0634
25023SOL    HW187048  12.547  10.298   3.902 -1.8694  0.1174 -1.1442
25023SOL    HW287049  12.506  10.155   3.879  1.0348 -1.1749  1.0317
25024SOL     OW87050   5.426   2.311   0.194 -0.0532 -0.0177 -0.3820
25024SOL    HW187051   5.372   2.253   0.141  0.1483  0.6525 -1.3626
25024SOL    HW287052   5.507   2.321   0.143  0.1502  0.6371  0.0567
25025SOL     OW87053   1.702   3.642   8.371  0.3397 -0.4638 -0.3971
25025SOL    HW187054   1.694   3.572   8.306 -0.8318 -1.9767  1.2776
25025SOL    HW287055   1.781   3.621   8.420 -0.2626 -0.9230  0.4060
25026SOL     OW87056   0.433   9.088   9.698  0.1163 -0.1288  0.4097
25026SOL    HW187057   0.341   9.067   9.689  0.1884 -1.6500  2.4481
25026SOL    HW287058   0.434   9.180   9.727 -0.6563  0.2354 -0.6507
25027SOL     OW87059   1.650  10.887   8.925 -0.2659  0.3795 -0.3423
25027SOL    HW187060   1.626  10.926   9.009  0.4884  1.0250 -0.4136
25027SOL    HW287061   1.634  10.793   8.936  2.2781  0.0481  1.4624
25028SOL     OW87062   3.906  11.778   3.314  0.2876  0.2771  0.4844
25028SOL    HW187063   3.857  11.708   3.356  0.1215  0.7946  1.1827
25028SOL    HW287064   3.872  11.783   3.225 -0.3641  0.1039  0.7227
25029SOL     OW87065   7.854  13.349   3.336  1.0103  0.1753  0.2518
25029SOL    HW187066   7.913  13.332   3.409  1.0681 -3.4601 -0.4506
25029SOL    HW287067   7.912  13.369   3.263  1.1833  0.0380  0.3511
25030SOL     OW87068   6.456  13.532   5.251 -0.2400  0.5050 -0.2409
25030SOL    HW187069   6.509  13.523   5.172 -0.6734  0.6819 -0.5545
25030SOL    HW287070   6.480  13.618   5.287  0.9358 -0.1316  0.5557
25031SOL     OW87071   2.249  10.230   5.792  0.0764  0.1845  0.4696
25031SOL    HW187072   2.164  10.245   5.751 -0.7615  0.0654  2.1043
25031SOL    HW287073   2.247  10.138   5.817  1.1791 -0.1351 -0.5121
25032SOL     OW87074   7.313   4.500   3.298  0.1890  0.1590  0.2507
25032SOL    HW187075   7.365   4.423   3.275  0.8972  0.8205 -0.4636
25032SOL    HW287076   7.254   4.470   3.366 -1.2738 -1.6653 -1.6690
25033SOL     OW87077   4.931   2.190   8.138  0.3326  0.0468  0.2121
25033SOL    HW187078   4.928   2.096   8.157 -0.0827  0.2013  0.9501
25033SOL    HW287079   4.909   2.196   8.045  0.8237 -0.6183  0.0431
25034SOL     OW87080   6.125   2.398   1.341  0.3363 -0.0961  0.5296
25034SOL    HW187081   6.163   2.379   1.255 -0.3408  0.7616  0.0235
25034SOL    HW287082   6.186   2.460   1.381 -0.1095  0.6925  0.0256
25035SOL     OW87083   8.092   7.687   6.682 -0.0960 -0.3100  0.2909
25035SOL    HW187084   8.022   7.635   6.722 -1.2009 -0.4132 -1.6311
25035SOL    HW287085   8.052   7.725   6.604  0.9456  2.7174  1.0944
25036SOL     OW87086  13.116   8.373   9.876 -0.7476  1.0089  0.1854
25036SOL    HW187087  13.166   8.414   9.947  0.3825  1.2746 -0.7473
25036SOL    HW287088  13.079   8.446   9.827 -0.8130  0.8461 -0.0094
25037SOL     OW87089   3.468   4.104   2.676  0.1492 -0.0351  0.4582
25037SOL    HW187090   3.527   4.157   2.730  1.0285 -0.2615 -0.2676
25037SOL    HW287091   3.471   4.145   2.590 -1.1579  0.2480  0.5289
25038SOL     OW87092   2.920   7.630   8.876 -0.7734 -0.0288  0.5207
25038SOL    HW187093   2.970   7.569   8.930 -2.3553 -1.9649 -0.0661
25038SOL    HW287094   2.888   7.577   8.803 -2.7914  1.3214  0.3293
25039SOL     OW87095   9.687   8.082  13.116  0.0941  0.1989 -0.2564
25039SOL    HW187096   9.749   8.012  13.095  0.5895  0.3196  0.7826
25039SOL    HW287097   9.608   8.058  13.068 -0.2788 -1.9270  1.2632
25040SOL     OW87098   6.812   7.865  11.859 -0.4736 -0.5812 -0.1151
25040SOL    HW187099   6.806   7.830  11.770  0.5404 -0.2984 -0.3086
25040SOL    HW287100   6.731   7.913  11.871 -0.6554 -0.6824 -0.8692
25041SOL     OW87101   5.712  12.817  12.360 -0.3163 -0.1647  0.1988
25041SOL    HW187102   5.705  12.816  12.265  0.8512 -3.5831  0.0030
25041SOL    HW287103   5.782  12.879  12.379 -1.2787  1.3609 -1.0149
25042SOL     OW87104  10.865   4.361   9.100  0.5161  0.1834  0.4812
25042SOL    HW187105  10.787   4.330   9.054  1.5622 -0.8323 -0.6818
25042SOL    HW287106  10.831   4.407   9.177 -1.2294  0.2832 -0.3086
25043SOL     OW87107  12.267   2.068   8.838  0.0111  0.3267  0.4795
25043SOL    HW187108  12.265   2.115   8.921  0.9744 -0.4527  0.9587
25043SOL    HW287109  12.228   1.982   8.858 -2.4199  1.0852 -0.5499
25044SOL     OW87110  11.878   1.872   7.939  0.0175  0.0813 -0.1052
25044SOL    HW187111  11.863   1.839   7.851 -0.6700  1.9468 -0.7501
25044SOL    HW287112  11.801   1.844   7.989 -2.0316  2.9023 -1.3721
25045SOL     OW87113  12.965  13.415   5.192 -0.4293  0.1020 -0.3656
25045SOL    HW187114  12.997  13.337   5.147 -0.8473 -0.6365  0.5829
25045SOL    HW287115  13.016  13.419   5.273  1.3223  2.2097 -1.4461
25046SOL     OW87116  10.457  11.128   9.391  0.3481  0.5970  0.1468
25046SOL    HW187117  10.424  11.176   9.315 -1.3832  0.9103  1.0469
25046SOL    HW287118  10.435  11.036   9.373  1.0341  0.5077 -0.2622
25047SOL     OW87119  13.375   8.036   4.969  0.3882 -0.1036  0.1080
25047SOL    HW187120  13.310   8.047   4.900  0.9546  0.0763 -0.4011
25047SOL    HW287121  13.378   8.121   5.013  0.6437  0.0491 -0.1966
25048SOL     OW87122   8.280   4.981   5.492  0.4175 -0.0763  0.2199
25048SOL    HW187123   8.329   4.924   5.434 -1.2042 -2.7924  1.3315
25048SOL    HW287124   8.215   5.023   5.436  0.7655 -0.3597 -0.3970
25049SOL     OW87125   3.160   1.581   3.388  0.3221 -0.0297  0.1706
25049SOL    HW187126   3.186   1.489   3.383 -0.7967 -0.3498 -0.1593
25049SOL    HW287127   3.205   1.614   3.466  0.8107 -0.8371  0.2436
25050SOL     OW87128   4.362  13.167   7.990 -0.3316 -0.7856  0.4744
25050SOL    HW187129   4.282  13.220   7.982  0.8445  0.9005 -1.2579
25050SOL    HW287130   4.349  13.095   7.928  0.2001  0.5888 -1.3398
25051SOL     OW87131   5.060   1.482  11.724  0.1508 -0.2460  0.0113
25051SOL    HW187132   5.004   1.556  11.748  0.9046  0.5967 -0.7202
25051SOL    HW287133   5.058   1.481  11.628 -0.3562 -1.5955  0.0126
25052SOL     OW87134   8.596   8.166   2.700 -0.3253 -0.0517 -0.1836
25052SOL    HW187135   8.565   8.142   2.613 -4.6289 -0.5283  1.2148
25052SOL    HW287136   8.663   8.102   2.721 -1.4519 -1.9299 -1.9739
25053SOL     OW87137   7.518   8.782   8.031  0.5761 -0.3989  0.5516
25053SOL    HW187138   7.489   8.808   7.944  0.3953 -0.6518  0.5379
25053SOL    HW287139   7.510   8.862   8.084 -1.7274 -0.8551  0.9712
25054SOL     OW87140  13.567   7.961   4.737 -0.3145 -0.2720 -0.0863
25054SOL    HW187141  13.509   8.002   4.802 -0.6706  1.2718 -1.3430
25054SOL    HW287142  13.525   7.977   4.653  1.9152  0.9187 -1.0587
25055SOL     OW87143  10.162   2.741   3.611  0.5980  0.2128 -0.2320
25055SOL    HW187144  10.249   2.768   3.642 -0.5738  1.4269  2.2056
25055SOL    HW287145  10.108   2.820   3.618 -1.1553 -0.9573  0.0607
25056SOL     OW87146  11.440  13.442   7.420 -0.0912  0.2604 -0.2822
25056SOL    HW187147  11.370  13.378   7.432 -1.7063  1.7040 -1.3789
25056SOL    HW287148  11.482  13.417   7.337 -2.6829  2.1708 -2.3579
25057SOL     OW87149   5.527   5.536  11.827 -0.2833 -0.0676  0.3991
25057SOL    HW187150   5.590   5.555  11.897  1.2800  0.5955 -1.1281
25057SOL    HW287151   5.484   5.620  11.810 -0.0997 -0.0428  0.0455
25058SOL     OW87152   0.007   2.901   8.477  0.4799  0.0973 -0.1045
25058SOL    HW187153  -0.028   2.869   8.561 -0.3448 -3.1728 -1.5032
25058SOL    HW287154   0.089   2.853   8.466  1.1984  1.4092 -0.6615
25059SOL     OW87155   4.809   5.257   6.895  0.2775  0.1068  0.2379
25059SOL    HW187156   4.787   5.296   6.980 -0.2632  0.9934 -0.2964
25059SOL    HW287157   4.883   5.308   6.864  1.2166 -0.9461  0.6693
25060SOL     OW87158  13.490   0.359   7.606 -0.3688  0.1804 -0.2007
25060SOL    HW187159  13.569   0.304   7.602  0.2923  1.1229 -0.7509
25060SOL    HW287160  13.518   0.436   7.656 -1.1494  0.2109  0.1921
25061SOL     OW87161   8.450   7.266   1.941 -0.6896  0.1410 -0.3553
25061SOL    HW187162   8.532   7.312   1.960 -1.0121  0.7110 -0.3332
25061SOL    HW287163   8.450   7.256   1.846 -0.8963  0.7156 -0.4181
25062SOL     OW87164   0.356   8.893   6.373  0.1685 -0.4713 -0.1739
25062SOL    HW187165   0.410   8.946   6.431  2.0610 -0.7678 -1.5894
25062SOL    HW287166   0.381   8.920   6.285  0.3801 -2.8691 -0.9318
25063SOL     OW87167   8.150   1.638  14.045 -0.0660 -0.2027  0.0109
25063SOL    HW187168   8.095   1.585  14.101 -0.1955  0.8703  0.9305
25063SOL    HW287169   8.099   1.718  14.029 -0.2711 -0.6909 -2.1012
25064SOL     OW87170   0.191  12.319   4.793  0.1190 -0.1262 -0.2932
25064SOL    HW187171   0.249  12.244   4.781  0.5252  0.2418 -0.6322
25064SOL    HW287172   0.248  12.395   4.784 -0.4033  0.2344 -0.5713
25065SOL     OW87173   5.608   3.347   6.132  0.4641  0.1028  0.8307
25065SOL    HW187174   5.618   3.311   6.220 -1.3901  2.1796  1.9735
25065SOL    HW287175   5.659   3.428   6.133 -0.5657  0.7787  0.4257
25066SOL     OW87176  12.244   1.724   5.776 -0.5081  0.4368  0.3509
25066SOL    HW187177  12.251   1.811   5.814 -0.5830  0.8352 -0.5259
25066SOL    HW287178  12.333   1.690   5.775  0.1001  1.8513 -2.3544
25067SOL     OW87179  12.921   0.418  10.590 -0.5219  0.4111 -0.2193
25067SOL    HW187180  12.964   0.340  10.626  0.4868  0.3402 -1.4817
25067SOL    HW287181  12.862   0.447  10.659  0.3498 -0.4713  0.9455
25068SOL     OW87182   6.300   8.328  11.506  0.9933 -0.1466 -0.4825
25068SOL    HW187183   6.238   8.273  11.458  0.6752 -0.2978  0.0886
25068SOL    HW287184   6.386   8.290  11.487  0.6096 -2.5484  2.0115
25069SOL     OW87185   9.426   7.991  13.085  0.2540  0.0160  0.3159
25069SOL    HW187186   9.371   7.946  13.020 -0.1964  0.9721  0.0156
25069SOL    HW287187   9.441   7.925  13.153 -1.2196 -0.3022  0.3779
25070SOL     OW87188   8.839  11.788   0.833  0.1718  0.0465  0.0523
25070SOL    HW187189   8.782  11.856   0.796 -0.0579  0.3528  0.9503
25070SOL    HW287190   8.794  11.706   0.812  0.3320  0.1718 -0.8363
25071SOL     OW87191   3.112   0.353   7.024  1.0237 -0.5374  0.0375
25071SOL    HW187192   3.125   0.368   6.931 -0.2903 -1.0440 -0.2366
25071SOL    HW287193   3.131   0.438   7.065  1.0758 -0.1733 -0.7372
25072SOL     OW87194   0.738  11.145  13.966 -0.2167  0.4395 -0.0351
25072SOL    HW187195   0.726  11.148  13.871 -0.7508 -0.6692 -0.0222
25072SOL    HW287196   0.720  11.054  13.989 -0.5688  0.8049  1.1958
25073SOL     OW87197  11.393   5.040  10.462 -0.0509  0.2548  0.6484
25073SOL    HW187198  11.425   5.119  10.418 -1.1637 -0.0963 -0.8727
25073SOL    HW287199  11.298   5.051  10.465 -0.1268 -0.5344  1.4236
25074SOL     OW87200  10.843   4.129  13.427  0.3949 -0.1311  0.2097
25074SOL    HW187201  10.863   4.134  13.521  0.1493  2.5601  0.1936
25074SOL    HW287202  10.901   4.194  13.387 -1.2526  0.5430 -1.1702
25075SOL     OW87203   7.370   4.193   9.244 -0.8012 -0.8704  0.1251
25075SOL    HW187204   7.279   4.202   9.273 -0.3944  1.8594  0.8086
25075SOL    HW287205   7.369   4.221   9.152 -0.5208  0.1647  0.4254
25076SOL     OW87206   7.362   7.789  13.303 -0.4866  0.1125 -0.0923
25076SOL    HW187207   7.353   7.780  13.398 -0.5091  0.2738 -0.0786
25076SOL    HW287208   7.428   7.857  13.292  0.2354 -0.5865 -0.1895
25077SOL     OW87209  10.527   7.322   4.726 -0.3359  0.0202  0.5263
25077SOL    HW187210  10.555   7.251   4.669 -1.6941  0.0686 -0.2480
25077SOL    HW287211  10.600   7.384   4.725  1.5123 -1.9473  2.3751
25078SOL     OW87212  13.465  13.741  13.255 -0.5692  0.3806  0.1224
25078SOL    HW187213  13.383  13.707  13.291 -0.2388  0.7377  1.2647
25078SOL    HW287214  13.505  13.789  13.328 -0.0775  1.5169 -0.8670
25079SOL     OW87215  12.987  13.725   2.089 -0.1430  0.2320 -0.1897
25079SOL    HW187216  12.934  13.790   2.135 -0.2233  0.8416 -1.1062
25079SOL    HW287217  13.046  13.776   2.034  1.4970 -0.4309  0.8815
25080SOL     OW87218   3.153   6.298   8.743 -0.2410  0.0615 -0.1331
25080SOL    HW187219   3.229   6.240   8.745 -0.8023 -0.8324 -2.1289
25080SOL    HW287220   3.130   6.310   8.836  0.2569 -2.4428  0.4033
25081SOL     OW87221  10.749   1.133   0.335  0.2281 -0.2560  0.2872
25081SOL    HW187222  10.795   1.103   0.256 -1.3880 -0.1815 -0.7194
25081SOL    HW287223  10.795   1.213   0.361  1.3429 -0.7671 -0.0294
25082SOL     OW87224   3.265  11.970   5.241  0.2950 -0.6351 -0.4426
25082SOL    HW187225   3.343  11.951   5.294  1.2811 -1.2557 -2.0555
25082SOL    HW287226   3.252  12.065   5.251  1.5124 -0.4475 -0.4828
25083SOL     OW87227   2.930   8.501  11.133  0.2055  0.3830  0.1843
25083SOL    HW187228   3.025   8.511  11.128  0.1450  0.8482 -0.0562
25083SOL    HW287229   2.899   8.584  11.168 -0.0476 -0.0507  1.0124
25084SOL     OW87230   5.389  10.887   3.949 -0.6047  0.0917  0.0891
25084SOL    HW187231   5.467  10.893   4.006 -0.4555  0.2372 -0.1291
25084SOL    HW287232   5.345  10.972   3.960  0.9941  1.3354 -2.2636
25085SOL     OW87233  11.625   0.614   4.162 -0.1558 -0.4473 -0.2171
25085SOL    HW187234  11.604   0.521   4.155 -0.7843 -0.2709 -0.8265
25085SOL    HW287235  11.539   0.657   4.171  0.0582  0.1532 -0.9606
25086SOL     OW87236   8.889  11.891   1.074  0.2402  0.3806 -0.7645
25086SOL    HW187237   8.871  11.851   0.989  0.7877  1.9383 -1.6514
25086SOL    HW287238   8.958  11.955   1.056  1.3174 -0.1586  1.1081
25087SOL     OW87239  10.391   1.439   8.490 -0.4143 -0.4444  0.1187
25087SOL    HW187240  10.328   1.367   8.494  0.0885 -1.0454 -1.6062
25087SOL    HW287241  10.338   1.518   8.483 -1.0155 -0.9673 -1.6441
25088SOL     OW87242   5.210  11.121   8.552  0.6174 -0.0846 -0.1799
25088SOL    HW187243   5.290  11.077   8.523  0.5945  0.6538 -1.3952
25088SOL    HW287244   5.141  11.085   8.496  0.2779  0.0899  0.1216
25089SOL     OW87245   3.398  12.992   2.785 -0.4109  0.1576 -0.4392
25089SOL    HW187246   3.475  13.046   2.804 -1.0408  0.3582  1.7834
25089SOL    HW287247   3.323  13.050   2.802 -1.0801 -0.4699 -1.1665
25090SOL     OW87248   9.713   0.384  11.590 -0.3463 -0.2018  0.2152
25090SOL    HW187249   9.733   0.421  11.677  1.1027 -0.5727  0.0544
25090SOL    HW287250   9.795   0.389  11.542 -1.0507 -0.3166 -1.0415
25091SOL     OW87251   2.911   3.719   2.720 -0.1831 -0.8517  0.5350
25091SOL    HW187252   2.936   3.738   2.810  0.3487 -1.0787  0.4423
25091SOL    HW287253   2.860   3.795   2.692 -0.2475 -0.7278  0.9860
25092SOL     OW87254   0.053  13.485   7.273  0.0525 -0.7573  0.1793
25092SOL    HW187255   0.086  13.536   7.347  0.5818 -2.1002  0.9073
25092SOL    HW287256   0.073  13.394   7.295  0.1046 -1.2164 -1.5650
25093SOL     OW87257   3.866   5.862   1.404 -0.3399 -0.1862 -0.6487
25093SOL    HW187258   3.952   5.899   1.386  0.6983 -2.0527  0.2101
25093SOL    HW287259   3.843   5.895   1.491 -1.1633  1.4274 -1.4453
25094SOL     OW87260   4.202   0.170   6.493  0.2536 -0.0508 -0.6776
25094SOL    HW187261   4.131   0.219   6.452  0.0487  0.1401 -0.1009
25094SOL    HW287262   4.281   0.221   6.474 -0.2472  1.9346  2.0561
25095SOL     OW87263   5.810   8.819   6.434  0.0510 -0.4217  0.3844
25095SOL    HW187264   5.849   8.805   6.348  1.0948  0.4087  0.7016
25095SOL    HW287265   5.885   8.823   6.494 -0.6701 -1.2839  1.3800
25096SOL     OW87266   9.079  11.428   9.438  0.6212  0.6548 -0.4432
25096SOL    HW187267   9.053  11.365   9.370  0.7000  1.8603 -1.6243
25096SOL    HW287268   9.004  11.486   9.447 -0.7381 -1.3357  2.8918
25097SOL     OW87269  10.510   3.378  10.751 -0.1016 -0.1644 -0.2469
25097SOL    HW187270  10.431   3.336  10.717 -1.8699  3.2966 -0.9688
25097SOL    HW287271  10.502   3.372  10.846 -1.1886 -0.0503 -0.3144
25098SOL     OW87272   7.887   9.907   8.745 -0.4607  0.4180 -0.5870
25098SOL    HW187273   7.806   9.866   8.717 -0.9914 -0.2850  1.7525
25098SOL    HW287274   7.866  10.000   8.752 -0.8628  0.3350 -0.6747
25099SOL     OW87275  10.279   5.189   9.979  0.1355  0.3164  0.1116
25099SOL    HW187276  10.288   5.113   9.922  0.4675  0.2952  0.1922
25099SOL    HW287277  10.284   5.153  10.068  2.0067  0.6289  0.1559
25100SOL     OW87278  11.619  13.847   9.766 -0.1701  0.4634 -0.0716
25100SOL    HW187279  11.653  13.761   9.791  0.5619  0.5571 -0.6920
25100SOL    HW287280  11.549  13.865   9.828  0.6061  0.0402  0.9541
25101SOL     OW87281   9.666   1.897   4.818  0.2364  0.1479  0.4079
25101SOL    HW187282   9.739   1.897   4.756 -1.6697  3.5612 -2.1536
25101SOL    HW287283   9.703   1.933   4.899  1.6121  0.8453 -0.4998
25102SOL     OW87284  13.295  11.857   1.608 -0.0043  0.0600 -0.0444
25102SOL    HW187285  13.252  11.917   1.547  0.4450  1.0562  0.5877
25102SOL    HW287286  13.321  11.782   1.554  0.0061  0.7211 -0.9841
25103SOL     OW87287   0.878   6.691   9.906  0.1493 -0.4872 -0.4671
25103SOL    HW187288   0.793   6.655   9.882  0.0684 -0.8818  0.3745
25103SOL    HW287289   0.940   6.648   9.847 -0.0323 -1.5025  0.0553
25104SOL     OW87290   3.774  13.676   4.253 -0.3759  1.0943 -0.0190
25104SOL    HW187291   3.726  13.756   4.274 -0.5847  0.7457  0.8546
25104SOL    HW287292   3.710  13.620   4.211 -1.1370  0.1219  2.2931
25105SOL     OW87293   0.530   6.113   0.287 -0.0246  0.2692  0.5203
25105SOL    HW187294   0.617   6.103   0.323 -0.1099  0.1601  0.6982
25105SOL    HW287295   0.477   6.147   0.359  0.0637  1.2012  0.1618
25106SOL     OW87296   4.068   7.250  10.354 -0.5701 -0.6697 -0.2730
25106SOL    HW187297   3.984   7.291  10.336 -0.6174  0.0582  1.3906
25106SOL    HW287298   4.085   7.270  10.446  1.7280 -0.2265 -0.7205
25107SOL     OW87299  13.523   1.612   5.863 -0.0933  0.0953 -0.2766
25107SOL    HW187300  13.492   1.626   5.773 -1.0317 -1.2795 -0.2028
25107SOL    HW287301  13.515   1.518   5.876  0.6780  0.1949  1.0329
25108SOL     OW87302   1.964   1.320  12.623 -0.3611  0.5398 -0.2259
25108SOL    HW187303   1.999   1.379  12.555  0.5584 -0.7014 -0.8645
25108SOL    HW287304   2.021   1.335  12.698  0.4298 -0.1294 -0.6694
25109SOL     OW87305  13.772   2.252   3.430  0.2262 -0.1995 -0.3692
25109SOL    HW187306  13.759   2.296   3.346  0.6810 -1.6069 -1.2008
25109SOL    HW287307  13.834   2.309   3.477 -1.5036  1.6147 -0.1563
25110SOL     OW87308   0.434   4.867   0.239  0.1213  0.6784 -0.2070
25110SOL    HW187309   0.383   4.920   0.301  0.5214  2.7267 -1.5312
25110SOL    HW287310   0.487   4.810   0.295 -1.0723  0.9316  1.2654
25111SOL     OW87311  12.590   3.934   3.749  0.5359 -1.2462 -0.3847
25111SOL    HW187312  12.565   3.869   3.814  0.5184 -2.1099 -1.2270
25111SOL    HW287313  12.665   3.895   3.704  2.2295  0.4483  0.8023
25112SOL     OW87314  12.145   5.702   3.468  0.5568 -0.0913 -0.1675
25112SOL    HW187315  12.144   5.798   3.474  1.8876 -0.0996  0.8219
25112SOL    HW287316  12.147   5.684   3.375  1.3989  0.8899 -0.3622
25113SOL     OW87317   1.656   7.553   9.896 -0.5271  0.5884  0.0808
25113SOL    HW187318   1.725   7.600   9.943 -1.5528 -1.5306  4.2207
25113SOL    HW287319   1.698   7.470   9.871 -0.8228  0.4347  0.0916
25114SOL     OW87320  11.879   9.641   4.794  0.3564  0.2398  0.0413
25114SOL    HW187321  11.825   9.561   4.795  0.9794 -0.2128 -0.8536
25114SOL    HW287322  11.922   9.639   4.709  0.0557  1.7663 -0.1584
25115SOL     OW87323   9.326   4.955   1.713  0.7392 -0.3324 -0.0390
25115SOL    HW187324   9.395   4.918   1.658 -0.6047 -0.3291 -1.8245
25115SOL    HW287325   9.264   4.993   1.651 -1.7467 -1.8480  1.3491
25116SOL     OW87326  10.647   3.261   3.376 -0.3809  0.9135 -0.0889
25116SOL    HW187327  10.628   3.200   3.305 -4.0128  0.6198  0.9381
25116SOL    HW287328  10.629   3.348   3.338  0.4017  1.0076 -0.2679
25117SOL     OW87329   1.799  10.099  12.779 -0.0783 -0.0552 -1.1810
25117SOL    HW187330   1.711  10.099  12.740  0.3739  1.5191 -2.3060
25117SOL    HW287331   1.857  10.075  12.706  0.5726  0.5361 -0.8699
25118SOL     OW87332   6.088   7.746   0.335 -0.3499  0.3862 -0.1471
25118SOL    HW187333   6.092   7.749   0.431 -3.3384  1.6531  0.0329
25118SOL    HW287334   6.047   7.662   0.315 -1.1375  0.7727 -0.1990
25119SOL     OW87335   1.437   0.703   4.046  0.3058  0.3875  0.1381
25119SOL    HW187336   1.450   0.640   3.975 -1.0263  1.2439 -0.9039
25119SOL    HW287337   1.367   0.664   4.099  0.1932  0.4889  0.0664
25120SOL     OW87338   3.679   5.798   6.199 -0.3534 -0.0938 -0.3089
25120SOL    HW187339   3.758   5.745   6.206 -0.9882 -1.1920 -1.1899
25120SOL    HW287340   3.657   5.797   6.106 -0.7694  1.1656 -0.2524
25121SOL     OW87341   9.392   1.858   1.725  0.0850 -0.4820  0.7398
25121SOL    HW187342   9.409   1.809   1.645 -1.9969 -1.1818  0.6664
25121SOL    HW287343   9.475   1.856   1.773  1.1477 -0.7149 -1.0183
25122SOL     OW87344   2.384   2.465   5.368 -0.2253 -0.3204 -0.1733
25122SOL    HW187345   2.329   2.439   5.442 -0.7739  1.5032  0.1139
25122SOL    HW287346   2.366   2.400   5.300 -1.8276 -0.4385  0.3282
25123SOL     OW87347  10.915  11.394  10.147  0.6385 -0.2220 -0.2705
25123SOL    HW187348  10.972  11.470  10.157 -0.7827  0.8786 -0.2671
25123SOL    HW287349  10.905  11.359  10.236  1.3492 -0.4595 -0.2823
25124SOL     OW87350   6.639  13.631   1.130 -0.4109 -0.1210  0.0269
25124SOL    HW187351   6.629  13.536   1.133 -1.3578 -0.0762 -1.0423
25124SOL    HW287352   6.709  13.650   1.192 -0.6234 -1.4572  0.7048
25125SOL     OW87353   6.959   6.289   0.502 -0.0004  0.1970 -0.2577
25125SOL    HW187354   6.976   6.222   0.436  0.2944 -1.0984  1.0895
25125SOL    HW287355   7.023   6.358   0.483 -0.6968  0.4081 -2.0190
25126SOL     OW87356   5.044   8.774   1.410  0.7103  0.2551  0.0830
25126SOL    HW187357   5.022   8.692   1.367  0.3438  0.4342 -0.0766
25126SOL    HW287358   5.006   8.767   1.498 -0.2830  0.6881 -0.2937
25127SOL     OW87359   7.450  11.357   8.656 -0.0371  0.3608 -0.0420
25127SOL    HW187360   7.442  11.319   8.744 -0.7664  0.2027 -0.1686
25127SOL    HW287361   7.416  11.446   8.665  0.3019  0.4924 -0.0674
25128SOL     OW87362   8.780   1.432  10.563  0.9282 -0.0218  0.0156
25128SOL    HW187363   8.760   1.481  10.643  2.2967 -0.1597  0.4687
25128SOL    HW287364   8.728   1.475  10.496 -2.5675 -1.6742  1.3885
25129SOL     OW87365  10.871   5.389   4.170  0.6395 -0.0796  0.3865
25129SOL    HW187366  10.811   5.460   4.149 -0.8575 -1.4508 -0.1583
25129SOL    HW287367  10.958   5.430   4.169 -0.0347  1.4595 -1.3097
25130SOL     OW87368   8.749   5.107   1.058  0.3796  0.1867  0.4811
25130SOL    HW187369   8.745   5.053   1.137 -0.9985 -1.7247 -0.8277
25130SOL    HW287370   8.774   5.047   0.988 -1.8667  1.0118 -1.1650
25131SOL     OW87371   4.999  14.017   1.807  0.5732 -0.1007  0.3069
25131SOL    HW187372   4.914  14.020   1.763 -0.0716 -1.0112  1.4499
25131SOL    HW287373   5.044  13.942   1.767  0.0326 -0.8554  1.0688
25132SOL     OW87374   0.522  12.850   1.128 -0.0808 -0.5097 -0.0135
25132SOL    HW187375   0.617  12.842   1.139 -0.2806 -0.3454  2.1314
25132SOL    HW287376   0.485  12.783   1.185 -1.2873  0.8929  0.9111
25133SOL     OW87377   0.654  11.951   4.772 -0.2996  0.3338 -0.4022
25133SOL    HW187378   0.623  11.901   4.697 -0.4170  0.1145 -0.2076
25133SOL    HW287379   0.604  11.917   4.846  3.1004 -2.8888  0.7337
25134SOL     OW87380   7.504   1.569   3.417  0.7103 -0.7890 -0.4540
25134SOL    HW187381   7.512   1.663   3.434 -1.5496 -0.5033 -0.7234
25134SOL    HW287382   7.547   1.557   3.332  2.6511 -0.3763  0.4159
25135SOL     OW87383   1.919   8.370   1.594 -0.2318 -0.7204  0.1991
25135SOL    HW187384   2.012   8.372   1.614 -0.2091 -0.8055  0.1039
25135SOL    HW287385   1.883   8.302   1.652 -0.0877 -1.2959 -0.3689
25136SOL     OW87386   5.494  10.162   0.032 -0.4036 -0.2963 -0.1004
25136SOL    HW187387   5.557  10.188   0.099 -1.0563 -0.6689  0.6835
25136SOL    HW287388   5.465  10.075   0.059 -0.0669 -0.7978 -1.3318
25137SOL     OW87389   8.505  14.021   0.835 -0.0290 -0.4625 -0.2097
25137SOL    HW187390   8.588  13.979   0.858  0.4100 -0.7967 -2.1663
25137SOL    HW287391   8.439  13.967   0.878  0.7079 -1.0454  0.2316
25138SOL     OW87392  10.425   1.556   1.678  0.1626  0.2555 -0.1419
25138SOL    HW187393  10.354   1.608   1.641 -1.2140  0.7351  2.8762
25138SOL    HW287394  10.404   1.466   1.653 -0.0446  0.6387 -1.4201
25139SOL     OW87395  11.681  12.633   8.652  0.5386 -0.0116 -0.5175
25139SOL    HW187396  11.612  12.691   8.686  1.9774  0.9655  0.9309
25139SOL    HW287397  11.698  12.666   8.563  0.4998  1.0531 -0.1526
25140SOL     OW87398   4.593   5.955   5.812 -0.0519 -0.0000  0.7429
25140SOL    HW187399   4.661   6.022   5.824 -0.3900  0.4034  0.3850
25140SOL    HW287400   4.638   5.873   5.832  0.2256  0.3736  1.7336
25141SOL     OW87401   2.177   8.849  10.762  0.0048 -0.1306  0.4548
25141SOL    HW187402   2.127   8.776  10.799  0.3381 -0.0673  1.0568
25141SOL    HW287403   2.157   8.923  10.819  0.4839 -0.0147  0.4782
25142SOL     OW87404  12.131  10.352  13.970 -0.2746  0.3713  0.5950
25142SOL    HW187405  12.158  10.310  14.052 -1.1736  3.9785  2.9514
25142SOL    HW287406  12.203  10.333  13.909  1.4224 -0.7961  2.8117
25143SOL     OW87407   3.157   7.554   7.553  0.0470  0.0045 -0.2188
25143SOL    HW187408   3.104   7.491   7.601  1.5081 -0.2008  1.2005
25143SOL    HW287409   3.170   7.626   7.614  0.1973  0.7123 -1.0619
25144SOL     OW87410   6.680  11.420   4.972  0.7475  0.6082 -0.2327
25144SOL    HW187411   6.736  11.343   4.961  2.1828  1.5055  0.4113
25144SOL    HW287412   6.592  11.384   4.988  1.4653 -0.9129  0.5310
25145SOL     OW87413   5.123   8.872   4.188 -0.1671  0.0471 -0.3632
25145SOL    HW187414   5.029   8.852   4.186 -0.1551  0.0662 -2.1413
25145SOL    HW287415   5.153   8.857   4.099  1.7541 -0.9539  0.3872
25146SOL     OW87416   4.558   8.089  11.511  0.3098  0.0623 -0.0894
25146SOL    HW187417   4.501   8.039  11.453 -0.0198 -1.1249  1.2105
25146SOL    HW287418   4.507   8.167  11.533  0.9549  1.2170 -2.3853
25147SOL     OW87419   2.310   6.215   5.552  0.4384 -0.0572  0.4458
25147SOL    HW187420   2.377   6.220   5.620  2.3506  0.1793 -1.3563
25147SOL    HW287421   2.234   6.259   5.589  2.2741  2.4321  1.4757
25148SOL     OW87422   3.631   1.914  12.887 -0.3801 -0.2643 -0.3829
25148SOL    HW187423   3.542   1.897  12.856 -1.5581  1.8650  1.4333
25148SOL    HW287424   3.666   1.828  12.909 -1.8089 -1.1968 -1.5620
25149SOL     OW87425   9.450   1.152  12.998  0.0803 -0.6052 -0.0667
25149SOL    HW187426   9.394   1.215  12.952  0.2079  0.3238  1.0125
25149SOL    HW287427   9.468   1.084  12.932 -2.4880 -1.0863 -0.3931
25150SOL     OW87428   5.803  13.853  10.660  0.3075 -0.3367  0.4516
25150SOL    HW187429   5.731  13.858  10.723  0.2498  0.1206  0.3581
25150SOL    HW287430   5.780  13.779  10.603  0.0240 -0.3342  0.5609
25151SOL     OW87431  13.925   4.263   6.429  0.1399 -0.9741 -0.0658
25151SOL    HW187432  13.870   4.236   6.355  2.1647 -1.9130 -1.3164
25151SOL    HW287433  13.864   4.271   6.503 -1.9193 -0.2994 -1.7319
25152SOL     OW87434   1.112   8.298   3.139  0.1094 -0.5487  0.2889
25152SOL    HW187435   1.086   8.210   3.164  1.2906 -0.7980  0.7054
25152SOL    HW287436   1.182   8.321   3.200 -0.4254  0.8225  0.4251
25153SOL     OW87437  10.103  11.799   0.466  0.0022 -0.6354  0.0155
25153SOL    HW187438  10.033  11.741   0.492  0.1106 -0.4348  0.7654
25153SOL    HW287439  10.174  11.782   0.528 -0.2168  0.7792  0.6880
25154SOL     OW87440   7.121  10.813  13.870  0.5876 -0.1060 -0.0659
25154SOL    HW187441   7.173  10.875  13.920 -0.1295  0.1346  0.3880
25154SOL    HW287442   7.070  10.867  13.810  1.4856 -0.3932 -1.1198
25155SOL     OW87443   0.493  10.877   9.449 -0.0569  0.6900  0.1275
25155SOL    HW187444   0.501  10.938   9.522 -0.9741  0.1710  0.6797
25155SOL    HW287445   0.565  10.815   9.462  0.2626  1.0618  0.1361
25156SOL     OW87446   3.170  13.977   6.993  0.0613  0.0410  0.5392
25156SOL    HW187447   3.100  13.951   6.932 -0.7408 -2.0769  2.2244
25156SOL    HW287448   3.124  14.021   7.064  0.9432  2.0487 -0.0529
25157SOL     OW87449   1.412  11.793   8.220  0.4682 -0.1204 -0.1068
25157SOL    HW187450   1.471  11.721   8.198 -1.2071 -1.4453 -0.4894
25157SOL    HW287451   1.418  11.802   8.315  1.5972  0.0917 -0.1826
25158SOL     OW87452   8.796   5.032   2.014 -0.1304 -0.6436 -0.4026
25158SOL    HW187453   8.779   5.121   1.984 -0.6907 -1.1268 -1.5859
25158SOL    HW287454   8.709   4.993   2.025 -0.2900  0.4035  5.0900
25159SOL     OW87455  13.334   3.974   5.710  0.2969  0.0362 -0.4023
25159SOL    HW187456  13.254   3.954   5.661  0.7259 -0.4860 -0.9064
25159SOL    HW287457  13.309   4.045   5.770 -0.6925 -0.5199 -0.1364
25160SOL     OW87458   4.537   0.551   5.656 -0.1443  0.7324 -0.4833
25160SOL    HW187459   4.629   0.563   5.636  0.0817 -1.4453 -1.0439
25160SOL    HW287460   4.536   0.499   5.736 -0.7873 -0.7860 -1.4187
25161SOL     OW87461  10.460   5.021   1.468 -0.2743  0.6012 -0.0447
25161SOL    HW187462  10.399   4.948   1.480 -0.0038  0.3643 -0.0848
25161SOL    HW287463  10.477   5.022   1.374  0.0977  0.4038  0.0178
25162SOL     OW87464   2.915  11.105  12.829 -0.6338  0.7286  0.0341
25162SOL    HW187465   2.974  11.178  12.808  1.7606 -0.7185  1.2234
25162SOL    HW287466   2.951  11.031  12.779 -1.7468 -0.1229  0.4526
25163SOL     OW87467   8.509   4.757   0.830  0.4835 -0.3796 -0.1701
25163SOL    HW187468   8.561   4.749   0.750  0.7003  1.9221 -0.3436
25163SOL    HW287469   8.480   4.668   0.849  1.1869 -1.1308 -2.2903
25164SOL     OW87470   6.555  11.030   6.391  0.3130  0.1796  0.0645
25164SOL    HW187471   6.584  10.947   6.354 -0.3795 -0.6225  1.2749
25164SOL    HW287472   6.580  11.095   6.325  2.3935 -0.7554 -0.1494
25165SOL     OW87473  11.225   6.963  11.654  0.2010 -0.4563 -0.4418
25165SOL    HW187474  11.293   7.012  11.702  0.3806 -0.9115 -0.2288
25165SOL    HW287475  11.194   6.898  11.717 -2.2372  1.3209  0.3775
25166SOL     OW87476  10.144   2.109   9.141  0.3806 -0.0266 -0.0922
25166SOL    HW187477  10.069   2.054   9.119  1.5198 -1.6058 -0.2201
25166SOL    HW287478  10.143   2.179   9.077 -1.3993  0.4203  0.3715
25167SOL     OW87479   8.604   4.204   8.751 -0.0072 -0.3445 -0.5397
25167SOL    HW187480   8.643   4.129   8.705  1.4139  0.2225 -0.3108
25167SOL    HW287481   8.567   4.167   8.831  1.1561 -0.7504 -0.1670
25168SOL     OW87482   4.241   1.580  10.258  0.0446  0.0386  0.0373
25168SOL    HW187483   4.171   1.644  10.243 -0.1496 -0.0559  0.5210
25168SOL    HW287484   4.311   1.630  10.299  0.4964  0.2547 -0.9700
25169SOL     OW87485   9.197   1.163  10.289 -0.6460 -0.5816  0.0034
25169SOL    HW187486   9.187   1.178  10.195  3.1950  1.8038 -0.2453
25169SOL    HW287487   9.185   1.250  10.328  0.3050 -1.0413  1.3880
25170SOL     OW87488  12.201   2.685  12.638  0.3129 -0.2952 -0.0116
25170SOL    HW187489  12.261   2.756  12.618  0.9825 -1.5622 -3.1779
25170SOL    HW287490  12.118   2.712  12.599 -0.3140  0.0445  1.5001
25171SOL     OW87491   8.745  12.750  10.109  0.0985 -0.1314  0.7473
25171SOL    HW187492   8.818  12.701  10.148  0.9551 -0.9943 -1.7525
25171SOL    HW287493   8.667  12.700  10.135  0.6671 -0.9605  0.9192
25172SOL     OW87494   8.480   0.602   0.613  0.6117  0.3676 -0.3733
25172SOL    HW187495   8.515   0.653   0.541  0.9961  0.0383 -0.4225
25172SOL    HW287496   8.556   0.575   0.663  0.2272  2.7072  1.6443
25173SOL     OW87497  10.537   3.469   3.245 -0.1691  0.5048 -0.0420
25173SOL    HW187498  10.538   3.491   3.151 -3.2057 -0.2613 -0.3495
25173SOL    HW287499  10.495   3.545   3.286 -2.6358 -0.8070  0.0535
25174SOL     OW87500  13.820  12.406   4.277 -0.0961  0.0234  0.1070
25174SOL    HW187501  13.865  12.325   4.299 -0.4191 -0.0851  0.3721
25174SOL    HW287502  13.884  12.456   4.226  0.5952  0.1936  1.1092
25175SOL     OW87503   7.956  13.443   0.650  0.5675 -0.7989  0.3136
25175SOL    HW187504   8.043  13.478   0.671  0.0689  0.5477  0.1950
25175SOL    HW287505   7.917  13.426   0.735  0.2899  0.2941  0.4220
25176SOL     OW87506   9.692  10.491  11.930 -0.0025  0.1003  0.2362
25176SOL    HW187507   9.635  10.559  11.894  0.6822  0.4394 -0.2199
25176SOL    HW287508   9.781  10.522  11.912  0.3351 -1.7588 -1.6157
25177SOL     OW87509  11.596   9.269  11.088 -0.0546 -0.0848 -0.1404
25177SOL    HW187510  11.540   9.191  11.089  0.2305 -0.3117  1.5670
25177SOL    HW287511  11.570   9.319  11.166  1.7812  0.0117  0.4768
25178SOL     OW87512   7.568  11.687   9.052  0.0207 -0.0506  0.2340
25178SOL    HW187513   7.496  11.742   9.021  0.1306 -1.2060 -2.3866
25178SOL    HW287514   7.532  11.639   9.126 -1.3269  0.6682  0.0827
25179SOL     OW87515   4.017   4.176  10.940  0.1502 -0.0276  0.8491
25179SOL    HW187516   4.087   4.111  10.946 -0.0576 -0.1411  4.0790
25179SOL    HW287517   3.951   4.145  11.001 -1.5330  1.4732 -0.1224
25180SOL     OW87518  10.136  11.745  13.899  0.0350  0.2047  0.0940
25180SOL    HW187519  10.059  11.703  13.863  0.8909 -0.8521 -0.5497
25180SOL    HW287520  10.109  11.835  13.916 -1.7122 -0.4539  1.0956
25181SOL     OW87521   4.891   8.450   2.806 -0.2839 -0.3050 -0.1041
25181SOL    HW187522   4.832   8.525   2.808  0.2207  0.0867  0.8932
25181SOL    HW287523   4.955   8.468   2.876 -0.1415 -1.6445  0.1389
25182SOL     OW87524   3.974   1.623  11.244 -0.0312  0.0523 -0.1120
25182SOL    HW187525   3.881   1.614  11.221  0.1717 -0.5143 -0.7277
25182SOL    HW287526   3.975   1.690  11.313 -0.7352  1.1716 -1.1414
25183SOL     OW87527  13.065   5.666   8.993  0.2287 -0.5911 -0.0435
25183SOL    HW187528  13.022   5.630   8.915 -0.2319  0.0595 -0.0943
25183SOL    HW287529  13.131   5.725   8.959  0.3677 -0.6874  0.0573
25184SOL     OW87530   8.200   1.496   4.832  0.0210  0.5647 -0.0746
25184SOL    HW187531   8.193   1.550   4.753  1.1594  0.4838 -0.2421
25184SOL    HW287532   8.135   1.533   4.892 -0.4578  0.9862 -0.8374
25185SOL     OW87533   5.330  13.278   7.252  0.1985 -0.6177 -0.3389
25185SOL    HW187534   5.310  13.199   7.303 -0.1472 -0.9823 -1.0291
25185SOL    HW287535   5.245  13.318   7.236  0.2167 -0.9866 -1.3921
25186SOL     OW87536   7.894   3.612   7.098 -0.5670 -0.5846 -0.6082
25186SOL    HW187537   7.984   3.592   7.125 -0.7946  0.1464  0.7890
25186SOL    HW287538   7.861   3.530   7.062 -0.2295 -1.6957  1.4490
25187SOL     OW87539   3.258  10.098   7.418  0.3839 -0.6620  0.0592
25187SOL    HW187540   3.219  10.141   7.342  0.3468 -2.5419 -1.0547
25187SOL    HW287541   3.290  10.169   7.473 -1.2001  0.8083 -0.8366
25188SOL     OW87542  11.001   8.541   0.501 -0.3088  0.0711  0.2802
25188SOL    HW187543  10.955   8.560   0.419  0.7442 -1.3587 -0.6855
25188SOL    HW287544  10.980   8.449   0.519  0.9715 -0.1736  0.6113
25189SOL     OW87545   6.059   0.849   9.964 -0.4041 -0.3270 -0.3969
25189SOL    HW187546   6.091   0.760   9.951 -0.3856 -0.3507 -0.1975
25189SOL    HW287547   5.968   0.847   9.933 -0.1423 -0.1989 -1.1803
25190SOL     OW87548   9.474   3.560  13.630 -0.1840  0.4528  0.5751
25190SOL    HW187549   9.435   3.508  13.559  2.7899  1.0032 -1.6626
25190SOL    HW287550   9.529   3.497  13.677 -0.4150  0.5486  0.9690
25191SOL     OW87551  12.814   4.997   2.743 -0.4857 -0.2821 -0.5121
25191SOL    HW187552  12.833   4.903   2.745 -2.9054 -0.9740  4.1511
25191SOL    HW287553  12.719   5.002   2.753 -0.3994  2.6534 -0.3010
25192SOL     OW87554   9.116   8.611  10.733  0.1626 -0.5110 -0.4784
25192SOL    HW187555   9.046   8.607  10.798  0.4707 -1.8516 -0.2021
25192SOL    HW287556   9.087   8.552  10.663  0.5096 -0.2169 -0.8709
25193SOL     OW87557   0.784  12.798   8.975 -0.1483  0.0303  0.4303
25193SOL    HW187558   0.810  12.881   9.016 -1.2015  1.9368 -2.3873
25193SOL    HW287559   0.834  12.796   8.893  0.3435 -2.5282  0.7172
25194SOL     OW87560   5.567   2.250   4.191 -0.0353 -0.5264  0.0165
25194SOL    HW187561   5.500   2.316   4.207  0.4246  0.1065 -0.6176
25194SOL    HW287562   5.610   2.238   4.276 -0.6065 -0.5667  0.3047
25195SOL     OW87563   1.882  12.728  11.739 -0.5784  0.1838 -0.1802
25195SOL    HW187564   1.949  12.757  11.676 -1.5271  1.5957 -0.5967
25195SOL    HW287565   1.813  12.690  11.685 -0.3978 -0.6985  0.1993
25196SOL     OW87566  13.240   0.081  12.550  0.4755  0.1076 -0.1516
25196SOL    HW187567  13.194   0.164  12.538 -1.7326 -0.9147  0.7045
25196SOL    HW287568  13.203   0.023  12.483  0.7738 -0.6449  0.3253
25197SOL     OW87569   4.372   5.732   7.142  0.1379  0.5578  0.0889
25197SOL    HW187570   4.435   5.780   7.088  0.1220  1.1248  0.5673
25197SOL    HW287571   4.325   5.800   7.190 -1.0499  0.1686 -0.4725
25198SOL     OW87572   3.493   1.360  10.685 -0.5810 -0.3587 -0.2742
25198SOL    HW187573   3.463   1.345  10.596 -0.1736 -0.1307 -0.4526
25198SOL    HW287574   3.575   1.409  10.675 -1.0343  0.5444  0.2417
25199SOL     OW87575   5.129   8.135   8.186  0.7501 -0.0758 -0.1416
25199SOL    HW187576   5.042   8.160   8.155  0.5060  0.1434  0.6895
25199SOL    HW287577   5.165   8.080   8.117  0.6282  1.1890 -1.2566
25200SOL     OW87578   8.719   7.761   4.737 -1.0012 -0.0190  0.0655
25200SOL    HW187579   8.645   7.700   4.742 -2.3285  1.4990 -0.0190
25200SOL    HW287580   8.745   7.775   4.828 -0.6051 -0.7927  0.0763
25201SOL     OW87581   0.508   8.710  10.272  0.2511 -0.6772  0.4562
25201SOL    HW187582   0.487   8.762  10.349  0.6172 -0.8014  0.6419
25201SOL    HW287583   0.455   8.748  10.202  0.6657  0.0867  0.5405
25202SOL     OW87584  11.281  11.931   0.581  0.0608  0.1497 -0.2595
25202SOL    HW187585  11.219  11.939   0.653 -0.4891 -0.3427 -0.6737
25202SOL    HW287586  11.244  11.984   0.510  1.2673  1.7364  0.2368
25203SOL     OW87587   2.142  10.013   7.259  0.5354  0.0649 -0.2528
25203SOL    HW187588   2.162   9.925   7.227  1.0199  0.0157  0.1776
25203SOL    HW287589   2.223  10.043   7.301  0.8405  1.2587 -1.5995
25204SOL     OW87590   4.625   2.111   2.911 -0.2840  0.1667  0.5473
25204SOL    HW187591   4.695   2.163   2.871 -0.4356  0.5083  0.7243
25204SOL    HW287592   4.564   2.176   2.946 -1.6963 -0.0741 -1.3078
25205SOL     OW87593   7.024   4.923  10.101 -0.2084  0.2103 -0.3916
25205SOL    HW187594   7.002   4.839  10.061  1.2784 -0.1634 -0.4560
25205SOL    HW287595   6.944   4.949  10.147 -1.0493 -0.6861 -1.2963
25206SOL     OW87596  13.264   6.254  11.985 -0.1448  0.5339 -0.1339
25206SOL    HW187597  13.207   6.234  12.059 -1.0710  0.2386 -0.9166
25206SOL    HW287598  13.206   6.254  11.909  0.8846  0.2916 -0.9361
25207SOL     OW87599   5.423   5.449  12.358 -0.1200  0.1843 -0.0244
25207SOL    HW187600   5.517   5.443  12.339  0.1575  0.1477  1.2926
25207SOL    HW287601   5.384   5.378  12.307  0.7069 -0.4539  0.2067
25208SOL     OW87602   9.978  11.672   6.892  0.0363 -0.1632  0.3094
25208SOL    HW187603   9.895  11.625   6.903 -0.0604  0.1724  1.0273
25208SOL    HW287604   9.975  11.705   6.802 -1.8119  2.1173  1.1076
25209SOL     OW87605  10.570  10.666   3.437 -0.3478 -0.3394  0.5754
25209SOL    HW187606  10.508  10.595   3.421  1.0815 -1.5848  0.3570
25209SOL    HW287607  10.620  10.674   3.355 -0.4194  0.8596  0.6324
25210SOL     OW87608  13.326   1.730   1.272  0.5330  0.7852  0.2071
25210SOL    HW187609  13.415   1.755   1.249 -0.0383  2.7504  0.0307
25210SOL    HW287610  13.321   1.744   1.367  0.9145 -1.1038  0.5669
25211SOL     OW87611   5.928  13.526  10.251 -0.4260  0.0634 -0.5749
25211SOL    HW187612   5.871  13.455  10.282 -1.0948  1.4886  1.7149
25211SOL    HW287613   5.872  13.579  10.195 -1.5718  1.5093  1.7391
25212SOL     OW87614   3.091   7.494   3.768  0.1625 -0.2480  0.7724
25212SOL    HW187615   3.141   7.429   3.719  1.3469  1.7677 -0.8717
25212SOL    HW287616   3.144   7.511   3.846  1.4374  0.8499 -0.2707
25213SOL     OW87617  12.435  11.415   9.436  0.4896 -1.0029  0.5573
25213SOL    HW187618  12.390  11.359   9.499 -0.1016 -2.2034 -0.8795
25213SOL    HW287619  12.448  11.498   9.483 -0.3609 -1.6896  2.0807
25214SOL     OW87620   3.641   5.458  12.300 -0.1631 -0.2351  0.2262
25214SOL    HW187621   3.726   5.414  12.299  0.3734  0.5858  2.3827
25214SOL    HW287622   3.662   5.549  12.322 -1.3357  0.9106 -2.9556
25215SOL     OW87623   8.928   3.075  11.104  0.3480  0.1826  0.1076
25215SOL    HW187624   8.927   3.145  11.038  1.7925  0.2215  0.0905
25215SOL    HW287625   8.838   3.071  11.136 -0.1400  0.8962 -1.0984
25216SOL     OW87626   1.092   2.372   6.650 -0.1076 -0.6588  0.3757
25216SOL    HW187627   1.002   2.396   6.628 -0.4261 -1.7265  0.4722
25216SOL    HW287628   1.103   2.400   6.741 -0.4105 -0.7250  0.4312
25217SOL     OW87629   8.609   8.726  10.543  0.5313 -0.3062  0.5154
25217SOL    HW187630   8.591   8.742  10.635  0.2168  1.1355  0.2358
25217SOL    HW287631   8.522   8.721  10.502  0.6766  0.0064  0.1582
25218SOL     OW87632   2.191  12.756   3.661  0.0360 -0.1436  1.1185
25218SOL    HW187633   2.253  12.829   3.659 -1.3978  1.1530 -1.4467
25218SOL    HW287634   2.245  12.678   3.652  1.4209  0.7989  0.9916
25219SOL     OW87635   2.927   2.643  12.980  0.8614  0.0823 -0.1281
25219SOL    HW187636   2.884   2.687  12.906  0.1124  1.4232  1.0516
25219SOL    HW287637   2.862   2.580  13.012  0.4185  0.8662  0.5590
25220SOL     OW87638   9.507   8.552  11.100 -0.5100  0.2180 -0.7241
25220SOL    HW187639   9.595   8.518  11.117 -0.5886  0.0377 -0.6804
25220SOL    HW287640   9.449   8.479  11.121 -0.8614  1.1293  1.8341
25221SOL     OW87641  10.871   0.464   7.620  0.1117 -0.7150  0.0932
25221SOL    HW187642  10.949   0.462   7.675  0.1299 -0.0715  0.1004
25221SOL    HW287643  10.871   0.380   7.575  2.4580  0.3494 -2.1584
25222SOL     OW87644   0.070   2.465   7.227  0.0162  0.1596 -0.3939
25222SOL    HW187645   0.006   2.515   7.278  1.2387  1.6267 -0.2279
25222SOL    HW287646   0.060   2.498   7.138  0.6120  0.4667 -0.3472
25223SOL     OW87647   4.606   3.366   5.346 -0.1549 -0.4748 -0.5840
25223SOL    HW187648   4.526   3.323   5.315 -0.7046 -0.8104  1.1696
25223SOL    HW287649   4.662   3.294   5.375  0.1311 -0.1685 -0.3773
25224SOL     OW87650   3.011   3.495  10.616  0.3981  0.4606 -0.4233
25224SOL    HW187651   3.057   3.538  10.688  0.3954 -1.3098  0.6990
25224SOL    HW287652   2.929   3.466  10.654  0.0642  0.1597 -1.3517
25225SOL     OW87653   8.170   8.454   6.749 -0.2038  0.4465 -0.0075
25225SOL    HW187654   8.227   8.392   6.703 -1.5962 -0.5297 -0.4660
25225SOL    HW287655   8.089   8.454   6.699 -0.8677  1.2834  1.0291
25226SOL     OW87656   8.224   8.334   8.708  0.4454  0.1965  0.6460
25226SOL    HW187657   8.220   8.264   8.773  0.6689  0.4111  0.8915
25226SOL    HW287658   8.132   8.353   8.688  0.3379  1.0658  1.9106
25227SOL     OW87659  12.918   6.510  10.186  0.2884  0.0013  0.1301
25227SOL    HW187660  12.994   6.539  10.136  0.1833 -0.9119 -0.5816
25227SOL    HW287661  12.852   6.490  10.120  0.1211 -1.1316  0.6226
25228SOL     OW87662   6.102  11.718   1.245 -0.4464  0.3921 -0.2321
25228SOL    HW187663   6.058  11.791   1.288 -0.2720  0.1782  0.3169
25228SOL    HW287664   6.053  11.641   1.273  0.2393  0.1570  0.3460
25229SOL     OW87665   2.978  12.561   3.222  0.1112  0.2893 -0.8268
25229SOL    HW187666   2.922  12.488   3.249  2.0042 -1.9835 -2.5608
25229SOL    HW287667   2.917  12.628   3.191 -1.7203 -0.4550  0.9455
25230SOL     OW87668   4.194  10.015  11.929  0.0841  0.3691  0.1217
25230SOL    HW187669   4.187   9.932  11.882  1.3237  0.2979  0.0363
25230SOL    HW287670   4.278  10.052  11.901  0.1317  1.0568  1.1154
25231SOL     OW87671  11.933   6.363   0.355 -0.2227 -0.4410  0.2124
25231SOL    HW187672  11.947   6.312   0.435 -1.1295  0.4366  0.9476
25231SOL    HW287673  11.839   6.363   0.342 -0.0945 -0.4470 -0.7851
25232SOL     OW87674   2.823   1.522  12.130 -0.0198 -0.2878 -0.2551
25232SOL    HW187675   2.822   1.484  12.042 -1.0341 -2.8341  0.7622
25232SOL    HW287676   2.892   1.473  12.176 -1.3965 -1.0134  1.1248
25233SOL     OW87677   2.502   5.466   0.850 -0.2083  0.0694 -0.2981
25233SOL    HW187678   2.552   5.385   0.837 -1.7408 -1.2786  1.7148
25233SOL    HW287679   2.522   5.493   0.939  0.1615  1.8834 -0.8870
25234SOL     OW87680   7.835   0.654  11.911 -0.3046 -0.3785 -0.4921
25234SOL    HW187681   7.893   0.731  11.915 -0.4598 -0.2824 -0.0728
25234SOL    HW287682   7.886   0.588  11.865 -0.2200  0.0209 -0.9927
25235SOL     OW87683   0.990   8.640   4.904  0.1132  0.3911 -0.9741
25235SOL    HW187684   1.071   8.690   4.909  0.0675  0.4376 -0.7306
25235SOL    HW287685   0.939   8.682   4.834  0.9689 -0.5996 -2.2558
25236SOL     OW87686   1.377   4.341   3.229  0.3899 -0.2344  0.1055
25236SOL    HW187687   1.366   4.390   3.148  1.6919  0.2696  0.2243
25236SOL    HW287688   1.466   4.307   3.226  0.8875  0.7913  1.8563
25237SOL     OW87689   5.742   8.592  13.748 -0.4936 -0.0257 -0.1550
25237SOL    HW187690   5.821   8.557  13.708  0.2322  0.0420  1.1687
25237SOL    HW287691   5.761   8.684  13.763 -0.0119 -0.3946  1.9419
25238SOL     OW87692   4.609   3.534   9.439 -0.7473 -0.1613  0.2126
25238SOL    HW187693   4.552   3.460   9.462 -0.3793 -0.3560  0.5134
25238SOL    HW287694   4.593   3.549   9.346  1.8281 -3.0029 -0.8457
25239SOL     OW87695  12.873   9.389   4.607 -0.0697  0.4037  0.2593
25239SOL    HW187696  12.917   9.466   4.571 -0.4500  0.2472 -0.5728
25239SOL    HW287697  12.779   9.406   4.592 -0.1804 -0.0315  0.4409
25240SOL     OW87698  11.701   2.619   4.018  0.3955  0.1248  0.0655
25240SOL    HW187699  11.631   2.565   4.054  1.6814 -2.6061 -1.2005
25240SOL    HW287700  11.781   2.583   4.057  1.2622  2.0428  0.1775
25241SOL     OW87701   5.273   3.462   0.982 -0.1185  0.7581 -0.1181
25241SOL    HW187702   5.277   3.368   0.965 -1.4777  0.3587  1.5646
25241SOL    HW287703   5.199   3.473   1.041 -0.1555  2.9380 -0.4977
25242SOL     OW87704  11.617  12.381  12.265  0.4317  0.4136 -0.5555
25242SOL    HW187705  11.696  12.348  12.308 -0.4482 -0.5032  0.4069
25242SOL    HW287706  11.561  12.304  12.254  0.1496  0.8175 -2.3588
25243SOL     OW87707   8.862   0.974  10.751 -0.0077  0.1122 -0.0946
25243SOL    HW187708   8.939   1.031  10.758 -0.5191  0.7248  0.6425
25243SOL    HW287709   8.859   0.950  10.659 -0.5345  2.3646 -0.7310
25244SOL     OW87710  12.909   7.859   8.888  0.3023 -0.2289  0.0945
25244SOL    HW187711  12.847   7.793   8.921 -0.1283  0.6962  1.2004
25244SOL    HW287712  12.853   7.932   8.862  0.8185 -0.0680 -0.5650
25245SOL     OW87713  11.681   5.934  12.732 -0.0206  0.2239 -0.5267
25245SOL    HW187714  11.745   5.908  12.798 -0.3705  1.1433  0.1925
25245SOL    HW287715  11.641   5.852  12.703 -1.7804 -0.0765  2.3781
25246SOL     OW87716  13.219   1.180   5.379 -0.2254 -0.4195  0.8879
25246SOL    HW187717  13.310   1.193   5.352  0.0216  0.4241  2.0279
25246SOL    HW287718  13.168   1.182   5.298  0.4776  1.8868  0.4443
25247SOL     OW87719   9.337  13.230   4.281  0.0458  0.1228  0.3489
25247SOL    HW187720   9.344  13.279   4.199 -1.3992 -0.2858 -0.0435
25247SOL    HW287721   9.399  13.158   4.271  0.2225  0.3453 -0.1953
25248SOL     OW87722   1.257   3.203   4.987  0.2301 -0.5305 -0.0847
25248SOL    HW187723   1.214   3.287   4.972  0.6709 -0.5696 -1.7622
25248SOL    HW287724   1.193   3.151   5.037 -0.6495  0.2547 -0.3721
25249SOL     OW87725  13.054  10.203  13.115 -0.1796  0.1055 -0.5853
25249SOL    HW187726  13.096  10.116  13.118  1.0070  0.6844  0.6080
25249SOL    HW287727  12.962  10.185  13.133 -0.1166 -0.9839 -1.1945
25250SOL     OW87728   9.451  12.261   9.815  0.5253  0.3554 -0.6271
25250SOL    HW187729   9.356  12.256   9.825  0.2740  4.0419  0.2717
25250SOL    HW287730   9.482  12.297   9.898  2.6740 -0.1673 -1.1413
25251SOL     OW87731  11.368   3.072  13.802  0.0501 -0.0030  0.2905
25251SOL    HW187732  11.309   3.118  13.742 -1.1602 -1.6810  0.1128
25251SOL    HW287733  11.385   2.988  13.758  0.8712 -0.3869  1.3266
25252SOL     OW87734  12.486   7.500   6.708 -0.6363  0.1866 -0.3582
25252SOL    HW187735  12.572   7.496   6.668 -0.1890  1.2895  0.4370
25252SOL    HW287736  12.475   7.592   6.733 -0.6531 -0.5072  2.4901
25253SOL     OW87737   0.965  10.890  11.706  0.2305  0.2246  0.5274
25253SOL    HW187738   0.942  10.946  11.632 -0.1942  0.6587  0.9838
25253SOL    HW287739   1.028  10.827  11.670 -0.5684 -0.0758 -0.3889
25254SOL     OW87740   2.276   6.257   0.777  0.3499  0.5653  0.0143
25254SOL    HW187741   2.220   6.331   0.752  0.3523  0.9257  1.0411
25254SOL    HW287742   2.293   6.211   0.694  0.7720  1.9960 -0.7277
25255SOL     OW87743   3.844   8.974   7.323  0.1319  0.3760 -0.1179
25255SOL    HW187744   3.917   8.985   7.263  0.4795 -1.3083 -0.0404
25255SOL    HW287745   3.766   8.981   7.268  0.4420 -0.9672 -0.7753
25256SOL     OW87746  11.613   6.822  10.079  0.1745 -0.2992  0.4180
25256SOL    HW187747  11.591   6.851  10.168 -0.5212  0.3301  0.0543
25256SOL    HW287748  11.690   6.875  10.056 -0.9067  1.1010 -0.1264
25257SOL     OW87749   7.338   0.583  10.727  0.0750 -0.0929 -0.0212
25257SOL    HW187750   7.341   0.665  10.677 -0.2660  0.4795  0.8722
25257SOL    HW287751   7.383   0.603  10.809 -0.3989 -0.6629  0.3899
25258SOL     OW87752  11.257  12.466   6.081  0.0290 -0.2199 -0.1906
25258SOL    HW187753  11.326  12.492   6.142  1.0398 -1.1460 -0.8730
25258SOL    HW287754  11.241  12.374   6.100 -1.3068  0.0710  0.1933
25259SOL     OW87755   1.169  13.349   2.697 -0.6053  0.3786  0.3122
25259SOL    HW187756   1.081  13.333   2.729 -1.2092  0.2618 -1.3214
25259SOL    HW287757   1.221  13.276   2.732 -1.2046  0.2724  1.0131
25260SOL     OW87758   3.625   2.754  12.577 -0.0078 -0.0511 -0.3603
25260SOL    HW187759   3.584   2.677  12.618  1.7024  0.0857  1.8180
25260SOL    HW287760   3.719   2.740  12.590  0.3723  2.0612 -0.5378
25261SOL     OW87761   3.295   9.058  13.780  0.0712 -0.9404 -0.4976
25261SOL    HW187762   3.310   9.100  13.864  0.1544  0.1078 -1.0180
25261SOL    HW287763   3.360   9.098  13.721 -0.4341 -1.1593 -1.2218
25262SOL     OW87764   6.812   0.989  13.464  0.0760 -0.4796 -0.7127
25262SOL    HW187765   6.871   0.968  13.536  0.6834 -1.4613 -1.4782
25262SOL    HW287766   6.727   1.002  13.505  0.7615  0.7872  0.3921
25263SOL     OW87767   1.639  11.164   7.794  0.0447 -0.1172  0.5801
25263SOL    HW187768   1.667  11.112   7.870 -3.2910 -1.3409  1.1174
25263SOL    HW287769   1.575  11.109   7.749 -2.5541  2.8603  0.3108
25264SOL     OW87770   2.760   6.182   5.003  0.2962  0.4894  0.0802
25264SOL    HW187771   2.850   6.213   5.004  0.7012 -0.5476 -1.3242
25264SOL    HW287772   2.708   6.261   4.987  1.0779  0.8660 -0.6649
25265SOL     OW87773  11.447   5.726   8.065 -0.0478 -0.3870  0.0806
25265SOL    HW187774  11.393   5.803   8.083  0.1034 -0.6312  1.8120
25265SOL    HW287775  11.474   5.736   7.974 -0.1897  1.5086  0.2006
25266SOL     OW87776  13.491  13.607   4.721 -0.6249 -0.2912  0.1997
25266SOL    HW187777  13.488  13.613   4.816 -3.9820 -0.6820  0.2497
25266SOL    HW287778  13.496  13.698   4.692 -1.7012 -0.0155  0.8033
25267SOL     OW87779   2.540  12.591   1.625  0.0587  0.6458 -0.0445
25267SOL    HW187780   2.567  12.499   1.625 -0.4910  0.4820  0.3909
25267SOL    HW287781   2.537  12.615   1.532  0.2326  0.2360 -0.1593
25268SOL     OW87782  13.582   0.072   5.639 -0.1862  0.0884  0.1166
25268SOL    HW187783  13.493   0.103   5.658 -0.2150 -0.1489  0.3824
25268SOL    HW287784  13.623   0.064   5.725  0.3924  1.0740 -0.0658
25269SOL     OW87785  10.966  13.529  13.987 -0.2793  0.1132 -0.1048
25269SOL    HW187786  10.959  13.590  14.060 -0.4650 -1.6495  1.4473
25269SOL    HW287787  10.968  13.442  14.029 -2.0144 -1.0699 -2.2511
25270SOL     OW87788  13.288  12.766   7.857  0.0395 -0.1732 -0.1380
25270SOL    HW187789  13.305  12.734   7.945  0.2459 -0.4847 -0.2919
25270SOL    HW287790  13.193  12.760   7.847 -0.3308  2.3565  1.0298
25271SOL     OW87791   8.979  10.871   5.145 -0.3717  0.3084 -0.2484
25271SOL    HW187792   8.962  10.924   5.067  0.9916  0.0710 -0.7369
25271SOL    HW287793   9.074  10.875   5.156 -0.4029 -0.8430  0.5623
25272SOL     OW87794   3.368  10.143  12.984 -0.1293 -0.1564  0.7519
25272SOL    HW187795   3.390  10.212  12.922 -1.4399  0.3838  0.8731
25272SOL    HW287796   3.358  10.065  12.931 -1.9632  0.4501  0.1636
25273SOL     OW87797  10.529  10.346   8.959 -0.0473  0.2931 -0.4180
25273SOL    HW187798  10.446  10.309   8.987 -0.8278  1.6263 -0.8867
25273SOL    HW287799  10.573  10.373   9.040  0.6655 -1.7978 -0.0360
25274SOL     OW87800   0.340   7.622   7.060  0.7279  0.4753 -0.0007
25274SOL    HW187801   0.341   7.594   6.969 -0.2961 -1.4117  0.5256
25274SOL    HW287802   0.419   7.584   7.098  0.6661  0.4752  0.1280
25275SOL     OW87803  11.857   7.535   0.562 -0.0804  0.4313 -0.0367
25275SOL    HW187804  11.900   7.613   0.596  0.1436  0.2863  0.0164
25275SOL    HW287805  11.906   7.512   0.483  1.8114 -1.4120  1.5572
25276SOL     OW87806  12.945  11.392   7.160  0.1644  0.0946 -0.4427
25276SOL    HW187807  12.969  11.482   7.179  0.4530  0.1270 -0.9614
25276SOL    HW287808  13.004  11.365   7.091 -0.0217 -0.4463 -0.3962
25277SOL     OW87809   1.009   1.015   2.704  0.3441 -0.1547  0.1935
25277SOL    HW187810   0.960   1.094   2.680 -0.0419 -0.3904  0.2019
25277SOL    HW287811   1.025   0.971   2.620 -0.8025 -0.8603  0.3282
25278SOL     OW87812   2.863   2.589  10.908  0.4097  0.6048 -0.5465
25278SOL    HW187813   2.797   2.540  10.859  0.0415 -1.9299  2.2242
25278SOL    HW287814   2.921   2.523  10.945  0.6421  2.2639  2.3972
25279SOL     OW87815   1.156   9.413   2.361 -0.9007 -0.2771  0.5256
25279SOL    HW187816   1.062   9.431   2.359 -0.8717 -0.1115  0.6454
25279SOL    HW287817   1.194   9.488   2.407 -0.4582  0.6961 -1.3195
25280SOL     OW87818   5.720  10.072  13.737 -0.2526 -0.0615 -0.1137
25280SOL    HW187819   5.781  10.130  13.690  1.1267 -2.6526 -1.7626
25280SOL    HW287820   5.768  10.047  13.816 -0.6343  0.5950  0.3348
25281SOL     OW87821  13.298   7.727   5.471  0.3443  0.3026 -0.9628
25281SOL    HW187822  13.364   7.743   5.404 -0.2812 -1.7929 -2.1845
25281SOL    HW287823  13.344   7.739   5.554  2.6122 -2.0868 -1.7352
25282SOL     OW87824   1.571   5.919   3.790  0.1485  0.1181  0.0888
25282SOL    HW187825   1.542   5.894   3.703  0.9530 -0.8871  0.0926
25282SOL    HW287826   1.508   5.878   3.849 -1.4437  2.2404 -0.0248
25283SOL     OW87827  11.978   7.906   1.017  0.1959 -0.6829  0.1171
25283SOL    HW187828  11.900   7.858   0.990 -0.8222  0.7683  0.3496
25283SOL    HW287829  12.012   7.945   0.936 -2.4096  3.0214  0.5712
25284SOL     OW87830   2.130   3.775   8.823  0.0006 -0.4918 -0.8705
25284SOL    HW187831   2.100   3.829   8.751 -1.8132  0.0284  0.2202
25284SOL    HW287832   2.081   3.693   8.814 -1.7282  0.2853  0.8038
25285SOL     OW87833   1.793   3.297   7.177 -0.0772 -0.5608  0.5106
25285SOL    HW187834   1.760   3.367   7.120 -0.0961 -0.7283  0.3181
25285SOL    HW287835   1.877   3.331   7.208 -0.4286 -0.1299  1.0116
25286SOL     OW87836  10.934   8.689   4.308 -0.3342 -0.7781  0.3434
25286SOL    HW187837  10.960   8.605   4.346 -1.6730  0.3560  4.1818
25286SOL    HW287838  11.013   8.743   4.313  0.4100 -1.5433 -1.7522
25287SOL     OW87839   0.575   6.293   3.815  0.5308 -0.3352  0.1409
25287SOL    HW187840   0.548   6.269   3.903 -0.0226  0.1418  0.1053
25287SOL    HW287841   0.611   6.381   3.825  1.8091 -0.8347  0.1362
25288SOL     OW87842  13.339   0.885   6.260 -0.4620 -0.0652  0.1401
25288SOL    HW187843  13.354   0.955   6.324  0.8796  1.0088 -1.2578
25288SOL    HW287844  13.298   0.930   6.186  2.1243 -0.2800 -1.5615
25289SOL     OW87845   8.314  10.570  13.615 -0.0498  0.0646  0.1324
25289SOL    HW187846   8.285  10.575  13.524  0.1494 -0.2158  0.0510
25289SOL    HW287847   8.388  10.630  13.620 -1.6245  2.0607  0.7454
25290SOL     OW87848   8.836   6.701  10.811  0.2930 -0.0070 -0.0238
25290SOL    HW187849   8.886   6.740  10.882 -1.3384  1.3263  0.4502
25290SOL    HW287850   8.745   6.724  10.830 -0.1760  0.6935 -2.7001
25291SOL     OW87851   5.709  11.175   9.711  0.2204  0.8979 -0.2394
25291SOL    HW187852   5.722  11.241   9.779  0.6668  1.1659 -0.5838
25291SOL    HW287853   5.797  11.149   9.685  0.0644 -0.8453  0.8475
25292SOL     OW87854   1.250   8.832   3.752 -0.4254  0.0178 -1.1167
25292SOL    HW187855   1.189   8.805   3.683 -0.2424  0.6760 -1.5593
25292SOL    HW287856   1.275   8.922   3.727 -1.6197  0.9056  0.6850
25293SOL     OW87857   2.992  12.322   8.405  0.0466 -0.7586 -0.1374
25293SOL    HW187858   2.898  12.337   8.421  0.3570  1.8489 -0.3875
25293SOL    HW287859   2.996  12.285   8.317 -0.7324 -0.3503 -0.3550
25294SOL     OW87860  10.128  10.573  11.707 -0.0629  0.2295 -0.0887
25294SOL    HW187861  10.199  10.531  11.756 -1.0123 -0.6343  0.5857
25294SOL    HW287862  10.172  10.640  11.655  1.3271 -0.6913 -0.1644
25295SOL     OW87863   8.216   5.127   2.343  0.0959 -0.1918  0.7021
25295SOL    HW187864   8.257   5.064   2.402 -0.5162 -0.4595  0.8427
25295SOL    HW287865   8.211   5.208   2.393  1.8886  0.3028  0.1573
25296SOL     OW87866   6.281  13.378   2.030 -0.2938 -0.1834  0.3558
25296SOL    HW187867   6.216  13.412   1.968 -1.5376 -2.4839  0.2940
25296SOL    HW287868   6.232  13.361   2.110  0.5308 -0.6351  0.7776
25297SOL     OW87869   8.918   0.169  12.978  0.5973 -0.4153 -0.5411
25297SOL    HW187870   8.936   0.255  13.017 -1.2626  0.8683 -2.2870
25297SOL    HW287871   8.831   0.146  13.010 -0.2256 -0.1536 -2.4720
25298SOL     OW87872  13.399   6.890   0.041 -0.0147 -0.2171  0.2655
25298SOL    HW187873  13.353   6.863   0.121  0.3700 -0.5469  0.3806
25298SOL    HW287874  13.487   6.852   0.051 -0.1451 -0.7582 -0.5873
25299SOL     OW87875   7.164   4.286  11.801  0.7098 -1.2829 -0.7530
25299SOL    HW187876   7.105   4.256  11.871  0.6233 -1.7139 -1.0066
25299SOL    HW287877   7.190   4.374  11.828  1.0382 -1.6203  0.0518
25300SOL     OW87878   1.499  10.262   6.544  0.1740  0.6260  0.3404
25300SOL    HW187879   1.575  10.221   6.502 -1.2131 -1.0883 -0.6458
25300SOL    HW287880   1.463  10.193   6.600 -1.5577  0.8116 -0.4694
25301SOL     OW87881  11.041  13.483  11.228 -0.0908  0.6132  0.2706
25301SOL    HW187882  11.090  13.402  11.245  1.9297  1.5895 -0.4657
25301SOL    HW287883  10.978  13.459  11.160  0.6898 -0.2879 -0.1637
25302SOL     OW87884   8.905   1.209  10.199  0.0370  0.5862  0.1582
25302SOL    HW187885   8.883   1.293  10.239  0.9492  0.7290  0.3855
25302SOL    HW287886   8.936   1.232  10.111  1.5147  0.6420  0.6556
25303SOL     OW87887   8.137   2.966   2.713 -0.0760  0.1025 -0.3622
25303SOL    HW187888   8.134   2.913   2.792 -1.0494  1.0061  0.2380
25303SOL    HW287889   8.111   2.907   2.642 -2.3436  0.0369  0.4496
25304SOL     OW87890  11.633   7.439  11.494  0.1819  0.5557  0.4366
25304SOL    HW187891  11.708   7.456  11.551  0.5306 -0.2926  0.2406
25304SOL    HW287892  11.665   7.455  11.406  0.4773 -0.8301  0.2548
25305SOL     OW87893   3.733   2.179   7.205  0.0655 -0.0798 -0.1928
25305SOL    HW187894   3.768   2.096   7.237  1.2812  0.6020  0.3167
25305SOL    HW287895   3.745   2.175   7.110  1.4422  0.0754 -0.0434
25306SOL     OW87896  12.070   7.957  13.229 -0.3578  0.2442  0.0732
25306SOL    HW187897  12.153   7.931  13.270 -0.8356  0.0797  0.9596
25306SOL    HW287898  12.021   7.876  13.222 -0.3573  0.3048 -0.6671
25307SOL     OW87899   1.328  12.616  12.800 -0.0988  0.2486  0.6352
25307SOL    HW187900   1.289  12.639  12.716 -1.0413 -1.4872  0.5351
25307SOL    HW287901   1.409  12.571  12.777 -0.5540 -0.5894  0.5893
25308SOL     OW87902   9.412   4.324   3.842 -0.1325  0.5732  0.3496
25308SOL    HW187903   9.319   4.347   3.845 -0.2097  0.5740 -1.1312
25308SOL    HW287904   9.424   4.288   3.754  1.3166  0.7879  0.4436
25309SOL     OW87905   0.616  10.791  10.843  0.3519 -0.2871 -0.3222
25309SOL    HW187906   0.607  10.878  10.881  1.8762 -0.6560  1.0017
25309SOL    HW287907   0.527  10.756  10.842 -0.1337  0.8816  0.1191
25310SOL     OW87908   1.403  12.959  12.760 -0.3956 -0.1717 -0.2361
25310SOL    HW187909   1.348  12.987  12.833 -1.5662 -1.0012 -0.7596
25310SOL    HW287910   1.467  13.029  12.749 -1.6909  1.0865  0.0445
25311SOL     OW87911   2.184   0.308  12.229 -0.1566  0.1491 -0.4907
25311SOL    HW187912   2.253   0.298  12.294  0.3129  2.8979 -0.4428
25311SOL    HW287913   2.187   0.228  12.178  2.0289 -0.4539  0.4764
25312SOL     OW87914   9.191   4.705   4.468  0.2224 -0.2428 -0.4097
25312SOL    HW187915   9.219   4.735   4.381  1.2430 -0.9213 -0.3224
25312SOL    HW287916   9.168   4.785   4.514 -0.0517  0.1536 -1.2039
25313SOL     OW87917   5.289   5.069   6.969  0.4466  0.4758 -0.0027
25313SOL    HW187918   5.326   5.056   7.056  0.4501  0.5259  0.0029
25313SOL    HW287919   5.254   4.983   6.945  0.5386  0.4361  0.0046
25314SOL     OW87920   8.343   5.626  10.782 -0.4104  0.1197  0.2557
25314SOL    HW187921   8.374   5.644  10.693  0.3596 -0.0548  0.4778
25314SOL    HW287922   8.334   5.712  10.822  0.2355  0.1549  0.3318
25315SOL     OW87923   3.143   6.527  11.696  0.2064 -0.0568  0.3985
25315SOL    HW187924   3.130   6.621  11.709 -0.6220  0.1083 -1.3855
25315SOL    HW287925   3.130   6.488  11.783  0.0792  1.4145  1.0586
25316SOL     OW87926   3.608  12.379   3.623 -0.8042 -0.4400  0.4109
25316SOL    HW187927   3.694  12.336   3.616 -0.5386  0.2029 -0.3978
25316SOL    HW287928   3.549  12.322   3.574 -0.7803 -0.7223  0.7063
25317SOL     OW87929   3.957  13.191   6.126 -0.8717  0.4187 -0.1924
25317SOL    HW187930   3.919  13.104   6.130  0.5288 -0.1819  0.6552
25317SOL    HW287931   3.885  13.250   6.146 -1.0430 -0.7742  3.3404
25318SOL     OW87932   3.555   9.348  10.678 -0.2934  0.1831  0.3745
25318SOL    HW187933   3.547   9.256  10.701 -1.7691  0.4879  1.2282
25318SOL    HW287934   3.494   9.360  10.606  0.2289  0.4111 -0.0393
25319SOL     OW87935   2.967  11.245   4.641 -0.1601  0.6958  0.3163
25319SOL    HW187936   2.892  11.218   4.694  1.8483 -0.8597  2.5678
25319SOL    HW287937   3.016  11.304   4.698  0.2799  1.8556 -1.1971
25320SOL     OW87938   5.979  13.086  12.981  0.2537  0.1909  0.1140
25320SOL    HW187939   5.893  13.043  12.975  0.4409 -0.2307  0.4458
25320SOL    HW287940   6.016  13.077  12.893  0.3674 -0.4922  0.2231
25321SOL     OW87941  12.916   5.837   5.852 -0.3466  0.2052 -0.7211
25321SOL    HW187942  12.993   5.782   5.846 -1.5951 -1.6984 -0.2033
25321SOL    HW287943  12.843   5.776   5.858 -1.8708  1.9290 -0.6892
25322SOL     OW87944  10.163   8.552  11.542 -0.3481 -0.2813  0.2944
25322SOL    HW187945  10.097   8.573  11.475  1.5825 -0.1138 -1.6746
25322SOL    HW287946  10.233   8.615  11.526  1.7637 -2.5374  0.0493
25323SOL     OW87947   6.273  12.920  11.836 -0.0706  0.4868 -0.5183
25323SOL    HW187948   6.237  12.971  11.908 -1.9047  1.0773 -1.7741
25323SOL    HW287949   6.219  12.841  11.833  1.2613 -0.4738 -0.0440
25324SOL     OW87950   6.707   6.162  11.472 -0.2084  0.0690 -0.6913
25324SOL    HW187951   6.787   6.213  11.482 -0.0394 -0.5700  2.3642
25324SOL    HW287952   6.664   6.169  11.558 -2.7390 -0.7422 -1.8117
25325SOL     OW87953  11.807   5.877   0.097 -0.3441  0.1026  1.0425
25325SOL    HW187954  11.825   5.832   0.014 -1.1654  0.5724  0.5939
25325SOL    HW287955  11.771   5.809   0.153 -0.2526 -0.1084  0.8500
25326SOL     OW87956   8.131   4.598   6.924  0.3599 -0.2478 -0.2769
25326SOL    HW187957   8.213   4.556   6.899  0.3535 -1.0826  1.0187
25326SOL    HW287958   8.089   4.536   6.984 -1.2989  0.0972 -1.0276
25327SOL     OW87959   9.383  11.111   1.586 -0.2004  0.4010 -0.1839
25327SOL    HW187960   9.472  11.074   1.587 -1.2931 -2.5671  2.3837
25327SOL    HW287961   9.347  11.083   1.501  0.3703 -1.0368  0.0145
25328SOL     OW87962   9.594  10.613  12.517  0.5925 -0.2318  0.2120
25328SOL    HW187963   9.573  10.692  12.567  1.0842  0.2220 -0.2858
25328SOL    HW287964   9.577  10.637  12.426 -1.3410 -1.3904  0.2018
25329SOL     OW87965   7.032   3.562   7.519  0.4400  0.2110  0.4462
25329SOL    HW187966   7.024   3.604   7.433  0.9322  1.2459  0.8920
25329SOL    HW287967   7.070   3.629   7.576  0.4719 -0.5772  1.3916
25330SOL     OW87968  13.160  11.669   6.517  0.2698  0.0672 -0.2306
25330SOL    HW187969  13.088  11.685   6.457 -0.5165 -2.7179 -0.1346
25330SOL    HW287970  13.122  11.684   6.604 -1.2085 -3.9757  0.0379
25331SOL     OW87971  12.735   7.486   5.537 -0.0715 -0.1373 -0.0582
25331SOL    HW187972  12.722   7.405   5.487 -0.8205  0.5224 -0.9544
25331SOL    HW287973  12.784   7.543   5.477  1.6708 -0.3779  1.0536
25332SOL     OW87974   2.458   4.548   4.190 -0.2507  0.1214 -0.4442
25332SOL    HW187975   2.428   4.491   4.261 -0.4991  0.1469 -0.5283
25332SOL    HW287976   2.495   4.488   4.125  1.5609  0.2100  0.4546
25333SOL     OW87977   7.857   7.696   3.994  0.1801  0.2120 -0.2724
25333SOL    HW187978   7.908   7.699   4.074  0.6313 -0.9964 -0.5016
25333SOL    HW287979   7.821   7.785   3.985 -1.8901 -0.1985  2.5328
25334SOL     OW87980  10.611   8.832  10.072 -0.1843 -0.6854 -0.1911
25334SOL    HW187981  10.523   8.818  10.036 -0.1369  0.4937 -0.7938
25334SOL    HW287982  10.623   8.927  10.070  1.1347 -0.8359 -0.1818
25335SOL     OW87983  11.033  11.701   1.199  0.0603 -0.4953  0.2206
25335SOL    HW187984  10.995  11.729   1.115  0.7679  0.3480  0.1675
25335SOL    HW287985  10.963  11.716   1.263 -0.3179 -0.6741 -0.1480
25336SOL     OW87986   0.407  12.609  11.369  0.4114 -0.0957  0.8664
25336SOL    HW187987   0.317  12.637  11.388  0.5090 -0.0199  1.2262
25336SOL    HW287988   0.398  12.548  11.296 -0.1466 -1.6744  2.1995
25337SOL     OW87989   3.353   9.970   4.200  0.1779  0.2993 -0.3612
25337SOL    HW187990   3.301   9.928   4.131  0.1438 -0.2629 -0.0037
25337SOL    HW287991   3.373   9.899   4.261 -1.1641  1.0785  1.0613
25338SOL     OW87992   8.423   1.756   1.122 -1.0755  0.3568  0.3936
25338SOL    HW187993   8.397   1.845   1.145 -0.8084  0.3120  0.8875
25338SOL    HW287994   8.517   1.761   1.109 -1.2569  0.4543 -1.0910
25339SOL     OW87995   7.869   0.357   4.464 -0.2135  0.0012 -0.1378
25339SOL    HW187996   7.920   0.424   4.510 -2.4454  1.3826  0.4793
25339SOL    HW287997   7.831   0.403   4.389  2.7631 -2.0334 -3.1635
25340SOL     OW87998   6.809   2.883  10.125 -0.0130 -0.1334 -0.1685
25340SOL    HW187999   6.840   2.908  10.038  0.6415  2.3829  0.7074
25340SOL    HW288000   6.879   2.826  10.160  0.3031 -0.1511 -0.8202
25341SOL     OW88001  11.843   5.461   4.971 -0.5839  0.2670 -0.8401
25341SOL    HW188002  11.911   5.482   5.035 -0.0320 -2.2057 -0.5038
25341SOL    HW288003  11.767   5.438   5.024 -0.4060 -0.8894 -1.0517
25342SOL     OW88004   5.864   6.381   4.810  0.1282  0.5591 -0.0501
25342SOL    HW188005   5.922   6.454   4.833 -0.0690  0.1888  1.8443
25342SOL    HW288006   5.801   6.419   4.750 -0.6275  2.2964  1.7105
25343SOL     OW88007   8.641   5.783   2.331 -0.1858 -0.1197 -0.2240
25343SOL    HW188008   8.613   5.868   2.364  1.5377  0.1660  0.5938
25343SOL    HW288009   8.712   5.803   2.271 -1.0825 -0.8777 -1.5832
25344SOL     OW88010   1.982   0.157   1.951 -0.0499 -0.1857 -0.6935
25344SOL    HW188011   2.031   0.231   1.915 -1.1449  1.2194  0.5872
25344SOL    HW288012   2.036   0.081   1.931  0.3851  0.7295 -3.4194
25345SOL     OW88013   7.751   5.562   1.017  0.0584  0.3584  0.1878
25345SOL    HW188014   7.804   5.563   1.097  0.7325 -1.3090 -0.1963
25345SOL    HW288015   7.814   5.548   0.947 -0.8431 -2.2200 -0.2336
25346SOL     OW88016   9.651   6.473   8.633  0.8647 -0.3641  0.3521
25346SOL    HW188017   9.671   6.399   8.576  0.2610 -0.7113  0.5806
25346SOL    HW288018   9.578   6.517   8.590  0.3169 -0.7070  0.9142
25347SOL     OW88019  13.045  10.515   9.421  0.0535 -0.0975  0.9113
25347SOL    HW188020  13.016  10.426   9.399 -0.8686  0.2377  0.7548
25347SOL    HW288021  13.130  10.524   9.377 -0.0305 -0.7596  0.6078
25348SOL     OW88022   4.307   9.632  13.689 -0.0016  0.2898 -0.5284
25348SOL    HW188023   4.327   9.714  13.644  0.8412  0.0707 -0.5637
25348SOL    HW288024   4.302   9.655  13.781 -0.9584  0.5947 -0.6461
25349SOL     OW88025   5.308   2.189   7.222  0.1200 -0.1076  0.3541
25349SOL    HW188026   5.379   2.253   7.220 -0.1864  0.2360 -0.9053
25349SOL    HW288027   5.312   2.151   7.309  3.1565 -1.5806 -0.2781
25350SOL     OW88028   1.574   5.182  13.394  0.1128 -0.3134  0.0572
25350SOL    HW188029   1.590   5.186  13.300  2.0159 -0.6920  0.3052
25350SOL    HW288030   1.543   5.093  13.409  1.0265 -0.6695 -0.0858
25351SOL     OW88031   6.745  10.129  13.109  0.0338 -0.0180  0.3094
25351SOL    HW188032   6.789  10.213  13.122  0.0513  0.5421 -2.8157
25351SOL    HW288033   6.794  10.086  13.039  0.4170 -2.9988  2.2227
25352SOL     OW88034  13.470  13.963   1.448 -0.1546  0.1672 -0.2284
25352SOL    HW188035  13.377  13.958   1.469 -0.5311  0.7579 -1.6370
25352SOL    HW288036  13.513  13.973   1.533 -1.4954  1.4791  0.3419
25353SOL     OW88037   4.009  10.706   8.728 -0.5274  0.0057  0.0246
25353SOL    HW188038   4.046  10.630   8.682 -2.3393  0.0363 -1.5932
25353SOL    HW288039   3.920  10.680   8.750 -1.6803  2.0595 -1.7692
25354SOL     OW88040  10.553   2.989  11.645  0.1892 -0.0633 -0.7437
25354SOL    HW188041  10.539   2.994  11.740  2.5123 -0.2354 -0.3335
25354SOL    HW288042  10.595   2.904  11.632  0.5505  0.2723 -1.8386
25355SOL     OW88043   7.127   9.540   0.524  0.2919 -0.3219  0.3880
25355SOL    HW188044   7.036   9.538   0.495  0.2045 -1.0772  0.6775
25355SOL    HW288045   7.124   9.584   0.609  0.1932 -0.3246  0.3864
25356SOL     OW88046  11.185   8.912  13.892 -0.5694  0.0194 -0.5569
25356SOL    HW188047  11.258   8.959  13.932 -0.1646 -0.8502 -0.2511
25356SOL    HW288048  11.112   8.974  13.896  0.0039  0.6995 -0.3632
25357SOL     OW88049   3.327   2.700   4.467  1.0174  0.3171  0.2190
25357SOL    HW188050   3.366   2.665   4.547 -0.9947 -0.1364  1.0696
25357SOL    HW288051   3.317   2.624   4.410 -1.3149 -0.2348  1.2111
25358SOL     OW88052  11.006   3.160   6.602 -0.9351 -0.5157  0.2071
25358SOL    HW188053  11.020   3.066   6.605  0.3361 -0.4824 -1.9367
25358SOL    HW288054  11.084   3.194   6.558 -1.2987  1.5636  1.0319
25359SOL     OW88055  13.320   7.438   0.340  0.2648 -0.0781  0.8271
25359SOL    HW188056  13.346   7.507   0.280  0.8263 -0.6855  0.3530
25359SOL    HW288057  13.360   7.461   0.423  1.9723 -0.7361  0.2350
25360SOL     OW88058   2.399   4.009  11.739 -0.0949  0.1844  0.4917
25360SOL    HW188059   2.416   4.091  11.786 -1.4515  0.8695 -0.1581
25360SOL    HW288060   2.305   3.994  11.748  0.0448 -1.0345  0.1461
25361SOL     OW88061   1.654   0.249   8.322 -0.0936  0.2193  0.4591
25361SOL    HW188062   1.740   0.207   8.326  1.2677  2.3004 -2.6441
25361SOL    HW288063   1.601   0.189   8.270  0.6247  0.5154 -0.6492
25362SOL     OW88064  11.643   6.029   7.822 -0.4513  0.0502  0.2189
25362SOL    HW188065  11.691   5.948   7.842 -1.4729 -0.2590  1.5344
25362SOL    HW288066  11.573   6.032   7.886 -0.2302  2.1780  0.4371
25363SOL     OW88067   0.673   2.997   0.346  0.4423 -0.2403 -0.7523
25363SOL    HW188068   0.691   2.930   0.412 -2.6933  1.4246  2.1621
25363SOL    HW288069   0.596   2.965   0.300  0.0017  0.4978 -0.5559
25364SOL     OW88070   6.915   9.915   3.905  0.4551 -0.1422 -0.6776
25364SOL    HW188071   7.002   9.943   3.875  0.3876 -0.3629 -1.0937
25364SOL    HW288072   6.870   9.995   3.928  1.1541 -0.0889  0.6226
25365SOL     OW88073  12.942   4.762   2.118  0.3062  0.3717 -0.8643
25365SOL    HW188074  13.030   4.733   2.094  0.7188  2.0276 -1.5185
25365SOL    HW288075  12.892   4.754   2.037 -0.7021 -2.2634 -0.0883
25366SOL     OW88076  13.241   8.297   7.192 -0.1321  0.4597  0.0895
25366SOL    HW188077  13.246   8.270   7.284 -3.5352 -0.4918  0.1220
25366SOL    HW288078  13.288   8.228   7.145  1.9786  1.1470  1.0388
25367SOL     OW88079   2.428   1.513  11.644 -0.4444  0.4166 -0.0568
25367SOL    HW188080   2.394   1.442  11.699 -0.0387  0.8052  0.7121
25367SOL    HW288081   2.522   1.515  11.662  0.0090 -0.5504 -2.0458
25368SOL     OW88082  10.529   3.506   5.139  0.0232 -0.1973 -0.0677
25368SOL    HW188083  10.553   3.542   5.224 -0.5537  0.3853 -0.1470
25368SOL    HW288084  10.441   3.470   5.152  0.2394 -0.7903 -0.2211
25369SOL     OW88085   4.153  10.487   3.077 -0.9211  0.0310 -0.0441
25369SOL    HW188086   4.086  10.555   3.083 -1.3876 -0.3954 -0.2485
25369SOL    HW288087   4.117  10.425   3.013  0.3836  0.5904 -1.3683
25370SOL     OW88088   0.244   5.151   7.686 -0.4963 -0.1244 -0.1497
25370SOL    HW188089   0.190   5.122   7.760 -0.2796 -0.0646  0.0319
25370SOL    HW288090   0.325   5.183   7.726 -0.4887  0.1647 -0.3953
25371SOL     OW88091   1.231   3.028  11.796  0.2484 -0.0121 -0.3067
25371SOL    HW188092   1.240   2.936  11.821 -0.9512 -0.3184 -0.9483
25371SOL    HW288093   1.240   3.028  11.701  1.1015  0.6609 -0.2360
25372SOL     OW88094   2.302   6.388   1.188  0.3186  0.4174 -0.1624
25372SOL    HW188095   2.262   6.462   1.233  1.1964  0.1946  1.0532
25372SOL    HW288096   2.259   6.311   1.226  1.3489  0.2079  0.6588
25373SOL     OW88097   2.218   1.031   5.027 -0.0614  0.5557 -0.2516
25373SOL    HW188098   2.297   1.062   4.982  0.2519  0.0825 -0.0331
25373SOL    HW288099   2.224   1.068   5.115 -1.0084  2.0373 -0.7695
25374SOL     OW88100   7.806   1.864   5.736  0.4979 -0.0127 -0.0503
25374SOL    HW188101   7.874   1.909   5.686  0.8206  0.4393  0.7758
25374SOL    HW288102   7.759   1.812   5.671  2.2337 -1.1108 -0.4855
25375SOL     OW88103   6.102   0.838   4.562  0.1662 -0.2232 -0.0337
25375SOL    HW188104   6.094   0.846   4.467  0.4872  0.6337  0.0009
25375SOL    HW288105   6.088   0.745   4.579 -2.2324 -0.0448 -0.6830
25376SOL     OW88106  11.812   1.202  12.978  0.2942  0.1612 -0.3466
25376SOL    HW188107  11.741   1.265  12.990  1.9301  1.8740  0.9914
25376SOL    HW288108  11.807   1.144  13.053 -0.6897 -0.8218 -1.1389
25377SOL     OW88109   5.974  11.334   7.884  0.1702  0.1815  0.3947
25377SOL    HW188110   6.036  11.342   7.811 -0.7654  1.3291 -0.3034
25377SOL    HW288111   6.029  11.312   7.959  1.2397 -0.3229 -0.5131
25378SOL     OW88112  11.708   7.818   4.031 -0.4974 -0.0903  0.1243
25378SOL    HW188113  11.766   7.828   3.956 -1.3846 -0.5252 -0.6497
25378SOL    HW288114  11.766   7.811   4.106  0.5746 -2.7173 -0.8401
25379SOL     OW88115   5.345   2.277   1.881 -0.0649 -0.2987  0.2395
25379SOL    HW188116   5.318   2.360   1.920  1.2015  0.5192 -0.5505
25379SOL    HW288117   5.436   2.291   1.854 -0.5778 -1.1016 -2.1687
25380SOL     OW88118  10.585   0.144  11.871 -0.4274 -0.0642  0.9233
25380SOL    HW188119  10.658   0.186  11.916 -0.1001  1.5976 -1.0194
25380SOL    HW288120  10.626   0.088  11.805 -0.8412  1.1730 -0.4419
25381SOL     OW88121   4.602  11.723   7.648  0.5061  0.3540  0.3867
25381SOL    HW188122   4.581  11.735   7.740 -0.0270  0.8564  0.2005
25381SOL    HW288123   4.694  11.698   7.647  0.3798 -0.1612  1.0888
25382SOL     OW88124  12.628  13.782   4.849 -0.5429  0.4740  0.1631
25382SOL    HW188125  12.655  13.789   4.940 -0.0239 -1.2143  0.1593
25382SOL    HW288126  12.651  13.693   4.823 -1.2745  0.7091 -1.4282
25383SOL     OW88127   0.913   2.234  10.223 -0.1297 -0.0770 -0.0453
25383SOL    HW188128   0.974   2.304  10.248  1.1849 -1.1924  0.0091
25383SOL    HW288129   0.946   2.157  10.268 -2.2163 -0.5318  0.8082
25384SOL     OW88130   5.014   6.330   2.611  0.1860 -0.1491  0.5432
25384SOL    HW188131   4.984   6.391   2.544 -0.7135 -0.2971  0.7955
25384SOL    HW288132   4.937   6.278   2.633  1.2376 -2.3863 -0.6659
25385SOL     OW88133   4.180   0.417   0.706 -0.3610 -0.5496  0.6497
25385SOL    HW188134   4.137   0.365   0.774 -1.2719 -1.4274 -0.5509
25385SOL    HW288135   4.109   0.468   0.667  0.1908  0.1298  0.5335
25386SOL     OW88136   6.286   4.765   5.404  0.0486  0.9900  0.4769
25386SOL    HW188137   6.380   4.761   5.389  0.0085  0.6235  0.2972
25386SOL    HW288138   6.264   4.858   5.399  0.4721  1.1249  0.9849
25387SOL     OW88139  10.891   7.436   8.178  0.1111 -0.4218  0.4131
25387SOL    HW188140  10.885   7.456   8.084 -1.5790 -0.2187  0.5400
25387SOL    HW288141  10.928   7.516   8.217 -0.3898 -0.0256  0.0827
25388SOL     OW88142   5.419  13.176   9.856  0.0233  0.0970  0.2502
25388SOL    HW188143   5.327  13.150   9.869 -0.1322  0.3646 -0.3127
25388SOL    HW288144   5.468  13.116   9.912 -0.5263  0.2513  0.9241
25389SOL     OW88145  11.870  10.382   6.634 -0.1341 -0.0987  0.2238
25389SOL    HW188146  11.931  10.429   6.577  1.2813  0.3525  2.0078
25389SOL    HW288147  11.816  10.450   6.673  0.6101 -0.1014  1.3146
25390SOL     OW88148  11.077   8.242   9.794 -0.4864  0.4083 -0.5861
25390SOL    HW188149  10.988   8.275   9.789 -0.5080  0.5913  0.6505
25390SOL    HW288150  11.069   8.147   9.785 -0.9907  0.2696  1.0318
25391SOL     OW88151   0.230   3.743   9.266  0.2583  0.1672  0.1903
25391SOL    HW188152   0.276   3.790   9.336  0.5831 -1.4621  1.1408
25391SOL    HW288153   0.161   3.695   9.312  0.4394 -0.8920 -0.6073
25392SOL     OW88154   4.018   0.587   6.339 -0.1085  0.0004  0.3005
25392SOL    HW188155   4.030   0.681   6.324 -2.8048  0.3458 -0.2545
25392SOL    HW288156   4.003   0.551   6.251  0.4472 -0.9008  0.5583
25393SOL     OW88157   1.731   7.823   6.436  0.0134 -0.1188  0.1034
25393SOL    HW188158   1.775   7.796   6.517 -1.5483 -0.6931  0.7961
25393SOL    HW288159   1.770   7.768   6.368 -0.2213 -1.2379  0.8433
25394SOL     OW88160   2.998   4.544   6.362 -0.0150 -0.5380 -0.0126
25394SOL    HW188161   2.954   4.551   6.277 -0.2980  0.0369  0.1757
25394SOL    HW288162   3.053   4.466   6.354  0.8265  0.1341 -1.1219
25395SOL     OW88163   3.236   6.801  10.766  0.1605 -0.0503  0.2122
25395SOL    HW188164   3.208   6.713  10.740 -0.9566 -0.2565  1.9593
25395SOL    HW288165   3.330   6.802  10.748  0.0729 -1.3646 -0.4580
25396SOL     OW88166  12.973   9.032  10.930  0.5997  0.0915 -0.5750
25396SOL    HW188167  12.953   8.995  10.844 -0.7663  0.8555 -0.6169
25396SOL    HW288168  12.892   9.021  10.980  0.3891  2.2547 -0.3382
25397SOL     OW88169   3.847   2.017   8.702  0.3645  0.3860 -0.1754
25397SOL    HW188170   3.919   2.061   8.747  1.3946  0.0253 -1.3982
25397SOL    HW288171   3.805   2.086   8.650 -0.8588  0.8137  1.3041
25398SOL     OW88172  12.313   3.956   4.985  0.1672  0.0656 -0.0677
25398SOL    HW188173  12.320   3.898   5.061  1.2988  1.1099  0.6728
25398SOL    HW288174  12.372   4.028   5.005 -1.5760  1.7437 -0.7371
25399SOL     OW88175   7.112   8.911  11.595 -0.4431 -0.1443  0.0606
25399SOL    HW188176   7.061   8.848  11.543 -1.3352  0.6647 -0.0579
25399SOL    HW288177   7.143   8.860  11.670  1.7864 -1.6661 -1.7035
25400SOL     OW88178  11.569  11.934   7.264 -0.4040 -0.2350 -0.4749
25400SOL    HW188179  11.480  11.956   7.290 -0.3006  0.6965 -0.8616
25400SOL    HW288180  11.625  11.986   7.322 -0.0982 -1.0899  0.0114
25401SOL     OW88181   0.721  11.631   2.340  0.0100  0.1293  0.5746
25401SOL    HW188182   0.703  11.573   2.266  2.3074  0.2185 -0.1215
25401SOL    HW288183   0.665  11.707   2.325 -0.6040 -0.4731 -0.2852
25402SOL     OW88184   9.647   5.410   3.434 -0.2522 -0.4299  0.2942
25402SOL    HW188185   9.724   5.449   3.393  1.7256 -2.8267  1.4265
25402SOL    HW288186   9.642   5.452   3.520 -1.0626  0.6908 -0.2875
25403SOL     OW88187   3.764   8.865   6.098 -0.5216 -0.1480  0.0033
25403SOL    HW188188   3.696   8.797   6.098  0.9696 -1.7366  1.1404
25403SOL    HW288189   3.715   8.947   6.105 -2.3360 -1.2115  0.7302
25404SOL     OW88190  11.186  12.595   3.675 -0.2586 -0.0809 -0.1733
25404SOL    HW188191  11.210  12.536   3.747 -1.0131  0.7683  0.7881
25404SOL    HW288192  11.099  12.566   3.648 -1.1394  1.2874  1.0806
25405SOL     OW88193  11.750  12.926   0.894 -0.2225  0.4451  0.1129
25405SOL    HW188194  11.691  12.916   0.970  1.0562  0.1889  1.1162
25405SOL    HW288195  11.788  12.839   0.883  1.0994  0.9453  0.4772
25406SOL     OW88196   4.110   3.944   4.874  0.8666  0.0810 -0.0496
25406SOL    HW188197   4.119   3.981   4.786 -2.0041  2.0393  0.3366
25406SOL    HW288198   4.125   4.018   4.932  0.0030 -0.5322  0.9801
25407SOL     OW88199  12.071   3.639   5.591 -0.5888 -0.3325  0.0360
25407SOL    HW188200  12.029   3.724   5.603  0.9067  0.1394  2.9838
25407SOL    HW288201  12.135   3.654   5.521 -1.2260  0.5813 -0.3716
25408SOL     OW88202   9.605   5.235   8.730 -0.1777 -0.2836 -0.0803
25408SOL    HW188203   9.644   5.289   8.800 -2.1867  0.1601  0.7891
25408SOL    HW288204   9.657   5.255   8.652  0.8930  0.7396  0.8544
25409SOL     OW88205  12.478   7.199   4.139 -0.7674 -0.6249  0.2666
25409SOL    HW188206  12.456   7.289   4.165  0.2465  0.0756 -1.1942
25409SOL    HW288207  12.407   7.173   4.080 -0.8112 -0.6161  0.3149
25410SOL     OW88208  10.433   0.447  11.226 -0.2684  0.3688  0.3822
25410SOL    HW188209  10.527   0.432  11.233 -0.2367  0.2705 -0.1902
25410SOL    HW288210  10.401   0.443  11.316 -0.3777 -3.8330  0.3562
25411SOL     OW88211  12.147   0.859  13.575 -0.1608 -0.1781 -0.7132
25411SOL    HW188212  12.139   0.905  13.659 -1.3479 -0.4986 -0.6239
25411SOL    HW288213  12.215   0.907  13.527 -0.2260  0.6641  0.0131
25412SOL     OW88214   9.489  10.404  13.432 -0.0708  0.2487  0.1948
25412SOL    HW188215   9.487  10.329  13.373  0.4043 -0.4067  0.9778
25412SOL    HW288216   9.399  10.412  13.464 -0.1529  0.1032  0.0028
25413SOL     OW88217   5.336  11.496  10.944 -0.2948 -0.3448  0.0991
25413SOL    HW188218   5.281  11.453  11.009  0.3540  0.5548  1.2982
25413SOL    HW288219   5.278  11.513  10.870 -1.5294  0.1892  1.1527
25414SOL     OW88220   1.116   6.622   7.558  0.2057 -0.5182 -0.2451
25414SOL    HW188221   1.092   6.529   7.563 -2.1561  0.0081 -0.9106
25414SOL    HW288222   1.074   6.662   7.634 -2.2494  0.6262 -2.0538
25415SOL     OW88223  12.967   4.059  12.069  0.1337  0.1556  0.4863
25415SOL    HW188224  12.977   3.964  12.062 -1.6186  0.0811 -3.7237
25415SOL    HW288225  12.905   4.072  12.140 -1.3621 -2.0749 -0.3268
25416SOL     OW88226   3.768   6.697   9.400  0.5459 -0.1764  0.1426
25416SOL    HW188227   3.709   6.715   9.474 -0.1652 -0.8292 -0.2417
25416SOL    HW288228   3.737   6.613   9.365  0.2841  0.5501 -1.4499
25417SOL     OW88229  10.020  12.269   0.610  0.1745  0.4419  0.3557
25417SOL    HW188230  10.097  12.223   0.642 -1.9879 -1.6354  3.0357
25417SOL    HW288231   9.986  12.212   0.541 -1.9472 -1.7510  3.0033
25418SOL     OW88232  10.779   6.343   5.596  0.3412 -0.2181  0.0554
25418SOL    HW188233  10.756   6.310   5.509 -2.2497  1.1927  0.1005
25418SOL    HW288234  10.834   6.419   5.579  1.1587 -0.8707 -0.2724
25419SOL     OW88235   9.729  13.313   8.094  0.2654 -0.2355 -0.2091
25419SOL    HW188236   9.717  13.387   8.154 -1.0306  0.7145 -1.5759
25419SOL    HW288237   9.796  13.259   8.136 -0.2959  0.5939  1.8819
25420SOL     OW88238   6.638   1.084  12.804 -0.2434  0.7299 -0.4067
25420SOL    HW188239   6.566   1.022  12.798  0.4953 -0.0521 -1.7136
25420SOL    HW288240   6.598   1.169  12.789 -1.2854  0.6257  1.4792
25421SOL     OW88241   8.877  12.353  13.343  0.4176  0.4142 -0.3320
25421SOL    HW188242   8.893  12.276  13.398  1.3884 -0.4500 -1.7724
25421SOL    HW288243   8.949  12.353  13.281 -0.2515  1.7982 -1.1434
25422SOL     OW88244   9.731   9.744   4.994  0.0992 -0.3670  0.1003
25422SOL    HW188245   9.656   9.684   4.994  0.3096 -0.6629  1.6613
25422SOL    HW288246   9.798   9.699   5.045  0.7631  0.5914  0.1016
25423SOL     OW88247  10.608   5.275  13.526  0.4544  0.0278  0.7109
25423SOL    HW188248  10.552   5.211  13.483  2.0689 -1.2264  0.4125
25423SOL    HW288249  10.674   5.298  13.461 -0.5307  2.6762  0.4984
25424SOL     OW88250   2.395  10.875   9.456 -0.0658 -0.1974 -0.0369
25424SOL    HW188251   2.316  10.905   9.410  0.3966  1.1461 -0.0074
25424SOL    HW288252   2.453  10.844   9.386 -0.4783 -0.8640 -0.0888
25425SOL     OW88253   3.160  13.735   1.982 -0.2357  0.3400  0.0052
25425SOL    HW188254   3.077  13.754   1.939 -0.5510 -3.5247 -1.4959
25425SOL    HW288255   3.143  13.656   2.033  1.7854  1.2667  2.3077
25426SOL     OW88256  10.438   8.362   8.965  0.0633 -0.7745 -0.0346
25426SOL    HW188257  10.518   8.377   8.915 -0.3953  2.9201  0.1107
25426SOL    HW288258  10.369   8.358   8.898 -0.0277 -0.4372  0.0381
25427SOL     OW88259   4.819   3.043   3.487  0.8183 -0.0464 -0.0240
25427SOL    HW188260   4.803   2.993   3.568 -0.5834 -0.2216 -0.3746
25427SOL    HW288261   4.876   3.115   3.514 -1.2199  1.0660  1.6025
25428SOL     OW88262   5.230   0.015   3.031  0.4927 -0.9461  0.0704
25428SOL    HW188263   5.169  -0.057   3.011 -1.1857  0.1961  0.8416
25428SOL    HW288264   5.298  -0.027   3.084  0.3499 -2.2484 -0.7172
25429SOL     OW88265   3.085   3.939   2.537  0.2260 -0.3172 -0.4233
25429SOL    HW188266   3.145   3.906   2.604  1.1338  1.5054 -0.2777
25429SOL    HW288267   3.129   3.923   2.454  0.6761  0.4729 -0.3511
25430SOL     OW88268  13.542  12.511  13.047  0.3214  0.4879  0.8427
25430SOL    HW188269  13.531  12.451  12.974 -1.5241  1.7744 -0.0215
25430SOL    HW288270  13.521  12.458  13.125 -0.5726 -0.1879  0.1654
25431SOL     OW88271   8.526   3.464   4.449 -1.0932 -0.2767 -0.0086
25431SOL    HW188272   8.525   3.490   4.357 -1.5429  0.1748  0.1156
25431SOL    HW288273   8.442   3.420   4.462 -0.2431 -2.0437 -0.2708
25432SOL     OW88274   2.424   0.499   8.018  0.0962 -0.0921 -0.0009
25432SOL    HW188275   2.388   0.413   7.997  1.0890 -0.1707 -1.5161
25432SOL    HW288276   2.434   0.498   8.114  0.5309 -1.8340 -0.0317
25433SOL     OW88277   8.388  13.475  13.932  0.1823  0.0986  0.4766
25433SOL    HW188278   8.297  13.446  13.921  0.1043  0.7638 -0.9143
25433SOL    HW288279   8.438  13.420  13.871  0.6837 -0.1014  1.0631
25434SOL     OW88280   8.827   3.850  12.999 -0.6425 -0.5790  0.0483
25434SOL    HW188281   8.801   3.844  12.907 -1.8607  3.2880 -0.0189
25434SOL    HW288282   8.769   3.789  13.044 -1.5930 -0.8762 -1.4988
25435SOL     OW88283   7.939   6.844   5.790  0.4564 -0.0615 -0.3291
25435SOL    HW188284   7.992   6.812   5.717  0.9616 -1.6395  0.6743
25435SOL    HW288285   7.993   6.912   5.830  1.5889 -1.3461  0.4178
25436SOL     OW88286   4.227   4.978  12.543  0.4366  0.2475 -0.2921
25436SOL    HW188287   4.319   4.987  12.516  0.4970 -1.0708 -0.6402
25436SOL    HW288288   4.187   4.926  12.473 -1.3809  3.3236 -1.7660
25437SOL     OW88289  11.464  10.836  13.098  0.1469 -0.1830  0.0441
25437SOL    HW188290  11.429  10.803  13.181 -2.5606 -0.0368 -0.9498
25437SOL    HW288291  11.484  10.928  13.115  2.9739 -0.9286  1.4217
25438SOL     OW88292   3.495   6.169   2.033 -0.0629 -0.0602 -0.3905
25438SOL    HW188293   3.567   6.185   1.972 -1.9276  3.1919 -2.0134
25438SOL    HW288294   3.468   6.078   2.015  3.0572 -1.1173 -0.2214
25439SOL     OW88295  11.817   7.963  10.009  0.1888  0.3552 -0.5692
25439SOL    HW188296  11.874   7.986   9.936  1.6847 -0.3843  0.2970
25439SOL    HW288297  11.844   8.022  10.079 -1.1922  1.0211 -0.5856
25440SOL     OW88298   6.080  13.609   9.911 -0.6539  0.0858 -0.1838
25440SOL    HW188299   6.114  13.655   9.988  2.4906 -0.9381 -0.7901
25440SOL    HW288300   5.993  13.581   9.936 -0.3588  1.1730  2.3984
25441SOL     OW88301   8.568   3.246   0.384 -0.1189 -0.3486  0.4105
25441SOL    HW188302   8.610   3.308   0.444 -1.6077  0.6119  0.5139
25441SOL    HW288303   8.511   3.193   0.439 -0.9012  0.0168 -0.0249
25442SOL     OW88304   6.621   1.641   3.726 -0.1016 -0.0110 -0.1775
25442SOL    HW188305   6.612   1.736   3.725  1.2351  0.1674  1.2345
25442SOL    HW288306   6.696   1.624   3.783  0.7637 -1.8341 -1.7281
25443SOL     OW88307  10.161  12.133   7.148 -0.1059 -0.9819 -0.3973
25443SOL    HW188308  10.078  12.140   7.194  0.0607  1.3235 -0.3251
25443SOL    HW288309  10.139  12.147   7.056 -0.1135 -3.1535 -0.7783
25444SOL     OW88310   1.873  12.839  12.187  0.2995  0.4571  0.5224
25444SOL    HW188311   1.816  12.850  12.111  0.2927 -0.4437  0.3867
25444SOL    HW288312   1.812  12.827  12.260  0.2947 -0.5530  0.3699
25445SOL     OW88313   3.037   5.263  13.006 -0.3168 -0.6193 -0.5239
25445SOL    HW188314   3.077   5.234  12.924 -0.5708 -0.8391 -0.5725
25445SOL    HW288315   2.970   5.197  13.024  0.5451 -1.2542  0.4901
25446SOL     OW88316   4.693   3.012   8.453 -0.4414 -0.0329 -0.8315
25446SOL    HW188317   4.608   2.967   8.451 -0.5393  0.0745  0.3131
25446SOL    HW288318   4.696   3.053   8.539 -0.4326  2.3636 -1.9158
25447SOL     OW88319   4.180   5.491   1.885 -0.0631 -0.3409  0.2102
25447SOL    HW188320   4.129   5.552   1.938  1.2252  1.0853 -0.1370
25447SOL    HW288321   4.184   5.532   1.799  2.3972  0.0665  0.4561
25448SOL     OW88322   3.382   3.315  12.878 -0.0463 -0.5188  0.2489
25448SOL    HW188323   3.313   3.291  12.939 -0.4397  0.8643  0.3822
25448SOL    HW288324   3.348   3.391  12.831  1.6709  0.6992  0.8691
25449SOL     OW88325  12.731   5.652   5.909 -0.0826  0.5783  0.2356
25449SOL    HW188326  12.729   5.570   5.958 -0.1606  0.3862 -0.0824
25449SOL    HW288327  12.643   5.689   5.919 -0.0048  0.6935  0.4953
25450SOL     OW88328  11.026   7.953  10.476  0.3383  0.0512 -0.2093
25450SOL    HW188329  11.071   7.954  10.560  0.2484 -0.6593 -0.1457
25450SOL    HW288330  10.947   8.004  10.490  1.4981  2.0501 -0.5539
25451SOL     OW88331  12.862   9.464  12.681 -0.4335 -0.0884 -0.2319
25451SOL    HW188332  12.840   9.403  12.752  0.3440 -0.2910 -0.1507
25451SOL    HW288333  12.953   9.489  12.698  0.0397 -0.7633 -1.5816
25452SOL     OW88334  11.115   1.653   1.152  0.2070  0.0815 -0.4461
25452SOL    HW188335  11.019   1.647   1.145  0.3107 -2.7738 -0.5973
25452SOL    HW288336  11.147   1.607   1.074  1.6315 -1.5378  1.0145
25453SOL     OW88337   1.004   2.789  11.731 -0.8134 -0.1612  0.0066
25453SOL    HW188338   1.010   2.770  11.825  1.8387 -0.3517 -0.1494
25453SOL    HW288339   0.984   2.882  11.727  0.3441  0.1306  0.7700
25454SOL     OW88340   4.525   7.252   1.742 -0.0785 -0.2722 -0.0749
25454SOL    HW188341   4.564   7.201   1.671 -0.5457 -2.1103  0.9295
25454SOL    HW288342   4.475   7.188   1.793  1.1148  0.7596  2.5535
25455SOL     OW88343   5.585   6.760   1.341 -0.0225  0.3009  0.4060
25455SOL    HW188344   5.650   6.766   1.411 -0.3208 -0.8535  0.7992
25455SOL    HW288345   5.550   6.849   1.333  1.4048  0.8761  0.3730
25456SOL     OW88346  10.360   6.249   3.958  0.1073 -0.1677  0.2497
25456SOL    HW188347  10.447   6.289   3.955  0.0126 -0.0199 -0.7730
25456SOL    HW288348  10.364   6.178   3.894 -0.4484 -0.3237  0.3841
25457SOL     OW88349  10.380  11.252  13.155  0.2606  0.4315 -0.6755
25457SOL    HW188350  10.415  11.305  13.226 -2.2012  1.8149 -0.3850
25457SOL    HW288351  10.384  11.310  13.078 -0.5276  0.2987 -0.8242
25458SOL     OW88352   0.928  13.584   4.053  0.5812 -0.3055 -0.2585
25458SOL    HW188353   0.899  13.651   3.992 -2.9189 -0.1499  1.3512
25458SOL    HW288354   0.956  13.632   4.131  1.4533 -0.6237 -0.3647
25459SOL     OW88355  13.740   8.598   3.535 -0.3851 -0.0915  0.4288
25459SOL    HW188356  13.771   8.592   3.444 -2.0238 -0.0523 -0.1736
25459SOL    HW288357  13.799   8.662   3.576 -0.3195  0.7752 -0.9396
25460SOL     OW88358   8.795  13.186   8.927  0.0479  0.0365  0.0849
25460SOL    HW188359   8.872  13.190   8.984 -0.5820 -1.1521  1.0715
25460SOL    HW288360   8.739  13.257   8.959  0.5637  0.6773 -0.4058
25461SOL     OW88361   8.535   0.597   3.246  0.1943  0.0025  0.0379
25461SOL    HW188362   8.477   0.521   3.237  0.4577 -0.0812 -1.0836
25461SOL    HW288363   8.560   0.618   3.157  1.9523 -0.0039  0.5044
25462SOL     OW88364   4.527   1.156   4.889 -0.0249 -0.4762 -0.1600
25462SOL    HW188365   4.569   1.231   4.845  0.1971 -0.3392  0.2833
25462SOL    HW288366   4.515   1.092   4.819  0.0535 -0.1410 -0.4855
25463SOL     OW88367   4.731   9.314  11.365 -0.0014  0.5036 -0.4394
25463SOL    HW188368   4.681   9.238  11.394  0.8900  0.1184  0.1117
25463SOL    HW288369   4.666   9.384  11.358 -0.6545 -0.0396  0.0606
25464SOL     OW88370   3.822   2.731   0.980  0.2687 -1.0953 -0.2310
25464SOL    HW188371   3.766   2.722   1.057 -1.3465 -1.5220 -1.3872
25464SOL    HW288372   3.810   2.650   0.931  1.2584 -0.8396 -0.9452
25465SOL     OW88373   1.639   3.771   2.497 -0.1623 -0.6323  0.8274
25465SOL    HW188374   1.655   3.748   2.405 -1.9127  1.8543 -0.2071
25465SOL    HW288375   1.613   3.689   2.538 -0.5262 -1.6001 -1.2000
25466SOL     OW88376  13.187   5.333   9.349  0.2911  0.5609 -0.1484
25466SOL    HW188377  13.278   5.341   9.378 -0.0778  1.0842  0.9299
25466SOL    HW288378  13.168   5.417   9.307  0.8684 -0.2474 -2.1382
25467SOL     OW88379   6.431  11.112   4.369  0.1800 -0.5313 -0.2820
25467SOL    HW188380   6.487  11.073   4.436  1.3543  0.4306 -0.6830
25467SOL    HW288381   6.468  11.082   4.286  1.4425  1.7708 -0.6266
25468SOL     OW88382   6.875   7.375  11.548 -0.0992 -0.1985 -0.3298
25468SOL    HW188383   6.923   7.293  11.547  1.2894  0.5840 -0.9803
25468SOL    HW288384   6.792   7.355  11.504 -0.5005 -1.6168  0.9847
25469SOL     OW88385  10.279   0.105   9.886  0.2469 -0.1539  0.8550
25469SOL    HW188386  10.334   0.109   9.964  0.9317 -1.3000  0.4612
25469SOL    HW288387  10.321   0.040   9.830 -0.3351  0.5069 -0.3961
25470SOL     OW88388   8.294  10.005   9.104  0.2244  0.7332 -0.0967
25470SOL    HW188389   8.326   9.994   9.193 -1.7015 -1.3172  0.4131
25470SOL    HW288390   8.202  10.029   9.113 -0.5097 -1.2364 -1.4422
25471SOL     OW88391   8.046   9.356  13.802 -0.0115  0.0683 -0.0403
25471SOL    HW188392   7.993   9.301  13.860 -0.6617 -0.7796 -1.3868
25471SOL    HW288393   8.098   9.293  13.752  0.1497  0.7445 -0.7321
25472SOL     OW88394   0.784   1.054   9.740  0.6697  1.1830 -0.0162
25472SOL    HW188395   0.717   0.986   9.729  0.2911  1.6897 -0.8569
25472SOL    HW288396   0.867   1.008   9.726  0.3519  1.1939 -2.1735
25473SOL     OW88397   1.735  11.130  11.964  0.2057  0.1582  0.3127
25473SOL    HW188398   1.644  11.141  11.989  0.2292  0.7240  0.1821
25473SOL    HW288399   1.750  11.036  11.963 -0.7842 -0.0093 -1.1168
25474SOL     OW88400  10.135   2.143  11.104  0.5303 -0.4254 -0.2171
25474SOL    HW188401  10.145   2.228  11.060 -1.1884 -0.5841 -1.0190
25474SOL    HW288402  10.176   2.080  11.046  1.0234 -0.2536 -0.0576
25475SOL     OW88403   1.650   0.576   6.622  0.0352  0.0538 -0.7232
25475SOL    HW188404   1.646   0.670   6.604 -0.0725  0.0491 -0.7249
25475SOL    HW288405   1.744   0.557   6.629  0.1470  1.0354  3.7174
25476SOL     OW88406   3.304   0.006  10.576  0.2825 -0.7950  0.2445
25476SOL    HW188407   3.329  -0.086  10.566  0.8261 -0.5752 -0.5549
25476SOL    HW288408   3.208   0.005  10.573  0.2541 -1.4154  1.0947
25477SOL     OW88409   2.795   6.065   4.067 -0.0648  0.1585 -0.1131
25477SOL    HW188410   2.704   6.093   4.077 -0.5933 -1.6652  0.4363
25477SOL    HW288411   2.809   6.059   3.973 -1.1257 -1.4214 -0.1858
25478SOL     OW88412   8.145   2.042   8.828 -0.4435 -0.4166 -0.4251
25478SOL    HW188413   8.215   2.034   8.764  0.6595 -2.1105  0.9079
25478SOL    HW288414   8.067   2.010   8.783 -0.4401  1.4608 -1.9119
25479SOL     OW88415   8.482  11.484   9.716 -0.1815 -0.2667  0.3616
25479SOL    HW188416   8.508  11.483   9.807 -0.2355 -2.1075  0.3902
25479SOL    HW288417   8.394  11.522   9.716 -1.1063 -2.2722  1.3948
25480SOL     OW88418   5.913  12.571   4.336 -0.1648 -0.3274 -0.2647
25480SOL    HW188419   6.007  12.571   4.353 -0.4063  3.3447  1.9910
25480SOL    HW288420   5.873  12.550   4.421 -1.4103 -0.4378 -0.8555
25481SOL     OW88421   2.030   0.036  13.162 -0.2426 -0.4954 -0.3386
25481SOL    HW188422   1.991   0.099  13.223 -0.1556 -0.8374  0.0673
25481SOL    HW288423   2.055   0.090  13.086 -0.9633 -0.1783 -0.3619
25482SOL     OW88424   1.156   9.040   8.512  0.4853 -0.4800  0.3048
25482SOL    HW188425   1.213   9.012   8.583 -0.1974 -2.3093  0.1908
25482SOL    HW288426   1.195   9.002   8.433 -0.4015 -1.0566  0.1208
25483SOL     OW88427  13.817   1.243  12.854 -0.0914 -0.4772 -0.0723
25483SOL    HW188428  13.779   1.225  12.768 -2.8626 -2.6479  1.4187
25483SOL    HW288429  13.785   1.330  12.877 -0.2986 -0.3650 -0.7630
25484SOL     OW88430   6.130   7.302   5.940 -0.7139 -0.2745 -0.0799
25484SOL    HW188431   6.079   7.288   6.020  0.4228 -0.1143  0.6970
25484SOL    HW288432   6.166   7.390   5.950 -1.1260  0.0257 -1.1070
25485SOL     OW88433   1.179   9.773   8.306  0.1050  0.5181 -0.2418
25485SOL    HW188434   1.196   9.737   8.393 -0.0437  1.4839  0.2000
25485SOL    HW288435   1.200   9.702   8.246  1.1709  0.1548  0.5350
25486SOL     OW88436   1.821  10.839  12.451 -0.7796  0.0297  0.2573
25486SOL    HW188437   1.861  10.908  12.503 -0.7540  0.7264 -0.6560
25486SOL    HW288438   1.892  10.776  12.436 -0.2025  0.8892 -0.7309
25487SOL     OW88439   0.898   2.349   3.709  0.3677  0.2730 -0.2308
25487SOL    HW188440   0.910   2.420   3.646  0.1431  2.2782  1.8584
25487SOL    HW288441   0.969   2.360   3.772  0.4173 -1.4809  0.0741
25488SOL     OW88442   4.783   7.841   8.326  0.1487 -0.3226  0.3320
25488SOL    HW188443   4.783   7.770   8.391  1.3260 -0.9389 -0.3016
25488SOL    HW288444   4.843   7.810   8.258  0.6864  1.2986  0.0435
25489SOL     OW88445   2.973   5.072   1.947 -0.0709 -0.1999  0.2026
25489SOL    HW188446   2.933   5.004   2.000  1.2419 -1.0606  0.1233
25489SOL    HW288447   2.899   5.114   1.901 -0.9843 -0.8749  1.0307
25490SOL     OW88448   4.328   2.861  10.533 -0.0251  0.7663  0.3718
25490SOL    HW188449   4.288   2.876  10.618 -2.4197 -0.4597 -0.4321
25490SOL    HW288450   4.334   2.766  10.525  1.6499  0.8857 -0.2177
25491SOL     OW88451   4.834  13.660   7.823 -0.0526 -0.1552  0.5111
25491SOL    HW188452   4.833  13.751   7.852  0.2191  0.2692 -0.7433
25491SOL    HW288453   4.925  13.633   7.833 -0.1275 -0.2886  0.8543
25492SOL     OW88454   6.049  12.764   8.071 -0.0782 -0.7394  0.0827
25492SOL    HW188455   5.955  12.754   8.057  0.1409  0.4787 -3.0508
25492SOL    HW288456   6.068  12.854   8.044  1.9213 -0.7664  1.2091
25493SOL     OW88457   4.873   4.392  13.450 -0.0340  0.3425  0.4340
25493SOL    HW188458   4.801   4.382  13.512  1.0957 -1.2456  1.5759
25493SOL    HW288459   4.899   4.302  13.429  2.2126  0.8622  0.7899
25494SOL     OW88460  10.361  11.156   0.451  0.2892 -0.5107 -0.1952
25494SOL    HW188461  10.455  11.164   0.435  1.2515 -2.3858  3.3342
25494SOL    HW288462  10.349  11.190   0.540 -1.7376 -2.9498  0.5909
25495SOL     OW88463  12.115   6.303   9.774  0.1306 -0.5763 -0.6692
25495SOL    HW188464  12.175   6.230   9.756  0.7029 -0.4528  0.6320
25495SOL    HW288465  12.028   6.266   9.760  0.4196 -1.4658 -0.2108
25496SOL     OW88466   7.250   7.744   5.787  0.0638 -0.4186  0.1188
25496SOL    HW188467   7.198   7.666   5.769 -0.5046  0.1736 -0.8502
25496SOL    HW288468   7.276   7.734   5.879 -0.4972 -1.4459  0.1846
25497SOL     OW88469   2.161   3.436   7.683  0.0215 -0.0075  0.0775
25497SOL    HW188470   2.169   3.343   7.703  0.5464 -0.7607 -3.1846
25497SOL    HW288471   2.251   3.469   7.687  0.0673 -0.0567 -0.5021
25498SOL     OW88472  11.894   2.227   9.914  0.0905 -0.5211  0.4748
25498SOL    HW188473  11.862   2.202  10.000 -0.4407  2.7978  1.3604
25498SOL    HW288474  11.816   2.235   9.860 -0.2479  2.6343  1.2579
25499SOL     OW88475   5.372   5.203  13.558 -0.5355 -0.3148  0.1931
25499SOL    HW188476   5.395   5.116  13.525 -0.0034 -0.3608  0.6741
25499SOL    HW288477   5.447   5.257  13.536 -1.2490  0.2431 -0.9210
25500SOL     OW88478   3.673   0.939   5.883  0.3107  0.0560 -0.4184
25500SOL    HW188479   3.750   0.993   5.868  1.3797 -0.7980  1.5349
25500SOL    HW288480   3.616   0.992   5.939 -1.4730  1.3918 -3.2494
25501SOL     OW88481  11.489   4.524   9.584  0.2502 -0.7892 -0.0146
25501SOL    HW188482  11.456   4.596   9.637  4.0739 -0.1377  1.7617
25501SOL    HW288483  11.411   4.491   9.538 -2.6560  0.8680  3.2629
25502SOL     OW88484   3.819   3.828   8.491 -0.0391  0.1049  0.5384
25502SOL    HW188485   3.871   3.778   8.427 -4.5232 -0.8285 -2.8584
25502SOL    HW288486   3.795   3.908   8.445 -1.9548  0.2530  1.7033
25503SOL     OW88487  13.174  13.870   6.635  0.1953  0.2723 -0.5517
25503SOL    HW188488  13.247  13.871   6.572 -0.2759  1.9975 -1.1375
25503SOL    HW288489  13.100  13.834   6.586  1.1803 -4.3872  0.8699
25504SOL     OW88490   1.284  11.379   1.903  0.0738 -0.0448 -0.0497
25504SOL    HW188491   1.190  11.394   1.909  0.0752  0.3247 -0.8459
25504SOL    HW288492   1.319  11.413   1.985 -0.4507  0.0991  0.1184
25505SOL     OW88493   7.207  12.582   8.743 -0.0329 -0.3078  0.1333
25505SOL    HW188494   7.135  12.561   8.684  0.5886  1.9761 -1.6310
25505SOL    HW288495   7.180  12.549   8.828 -3.4291  0.8918 -0.3300
25506SOL     OW88496   0.812  11.951   1.887  0.1127  0.0105  0.1078
25506SOL    HW188497   0.745  11.993   1.832 -0.1504 -0.3499  0.1518
25506SOL    HW288498   0.802  11.992   1.973 -0.1531 -0.1493  0.1540
25507SOL     OW88499   7.504  11.839  13.418  0.4399  0.6418 -0.1195
25507SOL    HW188500   7.552  11.770  13.462  0.4659 -0.2358 -1.4921
25507SOL    HW288501   7.526  11.830  13.326 -0.6436  1.5988 -0.5024
25508SOL     OW88502   7.404   8.664  12.975 -0.6146 -0.1593  0.2709
25508SOL    HW188503   7.318   8.649  13.015 -0.4325  2.6862  1.9632
25508SOL    HW288504   7.466   8.658  13.047  0.0691  2.1025 -0.0620
25509SOL     OW88505  13.751   5.368   8.300  0.1683  0.1909  0.5254
25509SOL    HW188506  13.806   5.373   8.222 -0.8190 -1.2803 -0.3179
25509SOL    HW288507  13.792   5.302   8.355 -0.4703 -0.5659  0.1101
25510SOL     OW88508  11.341   8.535  13.195 -0.1302  0.0741  0.0732
25510SOL    HW188509  11.328   8.629  13.205  1.4871  0.3868 -0.4090
25510SOL    HW288510  11.434   8.526  13.172 -0.0915 -1.6794  0.7390
25511SOL     OW88511   5.466  13.594  13.582 -0.2208  0.2639  0.9939
25511SOL    HW188512   5.383  13.642  13.589  0.5095  1.6907  0.1808
25511SOL    HW288513   5.499  13.590  13.671 -0.4906  0.8994  1.1238
25512SOL     OW88514  12.544   2.775  10.469  0.5068 -0.1749  0.6275
25512SOL    HW188515  12.610   2.838  10.442 -2.0062  1.7393 -1.6807
25512SOL    HW288516  12.537   2.785  10.563  3.3911 -0.4777  0.9518
25513SOL     OW88517   6.723   8.724  13.112 -0.3032 -0.4903 -0.1862
25513SOL    HW188518   6.708   8.817  13.132 -0.0875 -0.9155  2.3500
25513SOL    HW288519   6.685   8.711  13.025 -0.5930  1.8982 -0.4775
25514SOL     OW88520   3.257   6.917   4.994 -0.4790 -0.7616  0.1758
25514SOL    HW188521   3.270   6.835   4.945 -1.0683 -0.9944  0.3977
25514SOL    HW288522   3.163   6.934   4.988 -0.4750 -0.4945  0.7500
25515SOL     OW88523   5.411   6.080   0.410 -0.1954 -0.0121 -0.3270
25515SOL    HW188524   5.470   6.008   0.428  2.6347  2.1357 -0.2937
25515SOL    HW288525   5.371   6.100   0.495 -0.3703 -1.0001 -0.1752
25516SOL     OW88526   5.322   1.844  12.760 -0.6733 -0.3893  0.1190
25516SOL    HW188527   5.377   1.909  12.716  0.9088 -2.1667 -0.6770
25516SOL    HW288528   5.275   1.800  12.690 -0.7177 -0.9845  0.5130
25517SOL     OW88529   9.676  11.892   4.860 -0.2304 -0.4240 -0.2757
25517SOL    HW188530   9.591  11.913   4.822 -1.6129 -0.4627  2.5442
25517SOL    HW288531   9.656  11.832   4.931  2.1937 -0.5731  0.3638
25518SOL     OW88532  13.868   1.373   1.221 -0.1379 -1.0538 -0.1477
25518SOL    HW188533  13.927   1.400   1.291  0.3552 -0.4114 -0.7992
25518SOL    HW288534  13.910   1.402   1.140  0.0585 -3.1242 -0.8498
25519SOL     OW88535   9.759  13.615  10.423 -0.0965 -0.0930  0.7578
25519SOL    HW188536   9.725  13.634  10.335 -1.1647 -2.3793  0.5849
25519SOL    HW288537   9.839  13.667  10.430 -0.1127  0.3474 -1.4815
25520SOL     OW88538   9.264   3.552   1.745 -0.1254  0.1673  0.1630
25520SOL    HW188539   9.324   3.619   1.712 -0.0040 -0.9772 -2.1523
25520SOL    HW288540   9.311   3.513   1.819  1.7458 -0.2129 -1.1429
25521SOL     OW88541   6.656  14.000   5.369 -0.1050  0.7143 -0.1650
25521SOL    HW188542   6.647  14.023   5.461 -0.1163 -0.1433  0.0612
25521SOL    HW288543   6.726  14.057   5.336  1.0521 -0.0862  0.7961
25522SOL     OW88544  13.530  13.251   7.570  0.1764 -0.4303  0.4623
25522SOL    HW188545  13.579  13.333   7.572 -0.5654  0.0311  0.1277
25522SOL    HW288546  13.597  13.183   7.564  0.8370  0.0986  1.5068
25523SOL     OW88547   0.438   3.104  10.548 -0.5549  0.0953 -0.6115
25523SOL    HW188548   0.387   3.032  10.585 -1.0646  0.2178 -1.0618
25523SOL    HW288549   0.376   3.177  10.541  0.4463  1.3024  1.8325
25524SOL     OW88550   9.020   4.673  14.003  0.1270  0.0932 -0.4112
25524SOL    HW188551   9.016   4.578  13.993 -2.0533  0.1452 -0.5605
25524SOL    HW288552   9.067   4.687  14.086 -0.9495 -1.2140  0.4643
25525SOL     OW88553  10.459  12.827  10.175  0.4507 -0.0022  0.7881
25525SOL    HW188554  10.372  12.852  10.205  0.2397  0.2382  0.0031
25525SOL    HW288555  10.508  12.909  10.169  0.6846 -0.1177  1.0601
25526SOL     OW88556   6.651   3.427   6.095  0.1759  0.0159 -0.3873
25526SOL    HW188557   6.619   3.349   6.049 -0.2520 -0.2279  0.3171
25526SOL    HW288558   6.664   3.491   6.026  1.5772 -1.0074 -1.1406
25527SOL     OW88559  13.351   3.491   1.680  0.1682 -0.1695 -0.4624
25527SOL    HW188560  13.312   3.559   1.736  1.1256 -0.3237  0.4260
25527SOL    HW288561  13.445   3.503   1.691  0.3508 -1.8875  0.0144
25528SOL     OW88562   7.801  12.886   9.856 -0.3381  0.2797 -0.4459
25528SOL    HW188563   7.807  12.818   9.924  1.7487  0.6040 -0.2360
25528SOL    HW288564   7.806  12.837   9.774 -2.0895 -0.0509 -0.3870
25529SOL     OW88565   7.384  13.880   0.647  0.8752 -0.3504  0.7329
25529SOL    HW188566   7.417  13.970   0.637  1.2404 -0.7064 -2.2896
25529SOL    HW288567   7.463  13.827   0.656  0.6346 -0.3551  4.2393
25530SOL     OW88568   9.884   0.757  12.042 -0.1141 -0.4611 -0.3459
25530SOL    HW188569   9.863   0.789  11.954  0.7796 -1.3615 -0.9102
25530SOL    HW288570   9.940   0.825  12.079 -0.5177 -0.0642 -0.4513
25531SOL     OW88571   1.695   8.191   7.139  0.5697 -0.1105 -0.5307
25531SOL    HW188572   1.763   8.250   7.108  0.2428 -0.6034 -2.2798
25531SOL    HW288573   1.623   8.202   7.077 -0.0006 -1.3680 -0.1353
25532SOL     OW88574   4.613  13.370   5.324  0.3013  0.1821  0.2645
25532SOL    HW188575   4.551  13.400   5.257 -0.3740 -0.4081  0.6100
25532SOL    HW288576   4.683  13.435   5.323  1.3254 -0.8084 -2.4095
25533SOL     OW88577  13.877   6.143   5.370 -0.6136  0.8297 -0.4713
25533SOL    HW188578  13.947   6.206   5.350 -1.5474  1.9025 -0.4775
25533SOL    HW288579  13.847   6.113   5.284  0.6580 -0.6169 -0.4555
25534SOL     OW88580  12.511   8.168   4.031  0.3027  0.4483  0.6097
25534SOL    HW188581  12.461   8.088   4.052 -1.0166  0.9489 -0.4285
25534SOL    HW288582  12.483   8.231   4.097 -1.7335  1.1936 -0.8417
25535SOL     OW88583  12.487  12.722   2.924  0.3214  0.1932  0.2403
25535SOL    HW188584  12.508  12.815   2.937 -0.6618  0.2403  1.7884
25535SOL    HW288585  12.403  12.710   2.969  1.6909 -2.0040  2.4695
25536SOL     OW88586   8.426   3.098  13.073  0.0285 -0.4256 -0.0506
25536SOL    HW188587   8.364   3.024  13.076  0.3463 -0.7278 -0.8788
25536SOL    HW288588   8.506   3.063  13.111  0.6354 -0.9671 -1.7409
25537SOL     OW88589   5.510   2.855  13.934  0.2205 -0.0070 -0.0421
25537SOL    HW188590   5.422   2.839  13.899  0.3772 -0.0901 -0.4046
25537SOL    HW288591   5.569   2.835  13.860  0.4195  3.0315 -0.8310
25538SOL     OW88592  12.338   6.989   5.379 -0.7223 -0.3423  0.2797
25538SOL    HW188593  12.321   6.896   5.368 -0.1579 -0.3495 -0.6829
25538SOL    HW288594  12.261   7.032   5.342 -1.0778 -0.4296  0.9205
25539SOL     OW88595  12.709   5.311   0.435 -0.3920 -0.0445  0.1997
25539SOL    HW188596  12.663   5.227   0.437  0.4609 -0.5309  2.2759
25539SOL    HW288597  12.736   5.326   0.526 -0.1880  2.3057 -0.1799
25540SOL     OW88598   0.889   5.450   5.140  0.1244 -0.0840  0.1092
25540SOL    HW188599   0.845   5.476   5.059 -0.4574  1.6480  0.9296
25540SOL    HW288600   0.970   5.408   5.111  0.2548  1.1183 -1.3791
25541SOL     OW88601   6.414   0.597   3.423 -0.3035  0.1437  0.1971
25541SOL    HW188602   6.387   0.689   3.412  0.6666  0.9004  3.1786
25541SOL    HW288603   6.501   0.593   3.381  1.4248  1.7506  3.2768
25542SOL     OW88604   8.675   2.262   2.580 -0.1185  0.1366 -0.4295
25542SOL    HW188605   8.595   2.251   2.631 -0.3211 -0.2658 -0.8301
25542SOL    HW288606   8.745   2.264   2.646 -0.5619  1.9389  0.0435
25543SOL     OW88607   4.899   8.413  11.197  0.2175 -0.1646  0.4496
25543SOL    HW188608   4.841   8.395  11.271 -0.8967 -1.3958 -0.6661
25543SOL    HW288609   4.849   8.474  11.142 -0.3625 -1.6748 -0.8038
25544SOL     OW88610  12.690  10.882   7.983  0.8364 -0.3061  0.3311
25544SOL    HW188611  12.778  10.920   7.981  0.3418  0.8808 -1.3073
25544SOL    HW288612  12.649  10.914   7.903 -1.7189  0.7048  1.9397
25545SOL     OW88613   6.947   5.377  12.659 -0.7434  0.4251 -0.2885
25545SOL    HW188614   7.020   5.346  12.605 -1.4479 -0.4497 -0.7720
25545SOL    HW288615   6.952   5.473  12.653  0.5102  0.3930 -0.0930
25546SOL     OW88616   9.995   6.935   7.010  0.0786  0.3545 -0.1480
25546SOL    HW188617  10.005   6.962   7.101 -0.5645  2.0022 -0.5301
25546SOL    HW288618  10.032   6.847   7.006  0.5353  0.4490  1.5976
25547SOL     OW88619  10.734  13.174   6.561 -0.0254  0.5639 -0.2304
25547SOL    HW188620  10.670  13.231   6.519  0.8890  1.4813 -0.4229
25547SOL    HW288621  10.789  13.234   6.613  1.6366  0.0233 -1.2951
25548SOL     OW88622  11.759  12.435   7.959  0.3964 -0.3250  0.2065
25548SOL    HW188623  11.753  12.502   8.027 -0.0527  1.3642 -1.4020
25548SOL    HW288624  11.834  12.462   7.905 -1.0527  0.1557 -1.6974
25549SOL     OW88625   5.611   4.905   2.621  0.6179  0.1346  0.1887
25549SOL    HW188626   5.674   4.958   2.669  0.7991  0.4263 -0.3577
25549SOL    HW288627   5.614   4.819   2.664  3.3073 -0.6793 -1.3824
25550SOL     OW88628   0.699   5.154   1.541 -0.3457  0.0868 -0.1786
25550SOL    HW188629   0.625   5.156   1.480 -0.7384  0.2890  0.2970
25550SOL    HW288630   0.767   5.207   1.499  0.1883 -1.4917 -1.4237
25551SOL     OW88631   6.404   7.021  12.576  0.4710  0.2406  0.0297
25551SOL    HW188632   6.430   6.953  12.513 -0.0378 -0.5008  0.6062
25551SOL    HW288633   6.320   6.992  12.610 -0.8267  2.2518 -1.2693
25552SOL     OW88634   1.996   3.115   6.368  0.1152 -0.6811 -0.6631
25552SOL    HW188635   1.928   3.091   6.305 -0.1854  0.4631 -0.7958
25552SOL    HW288636   1.949   3.128   6.451  0.1636  0.0016 -0.7309
25553SOL     OW88637   0.848   3.185   3.540  0.0821 -0.0504 -0.5443
25553SOL    HW188638   0.832   3.250   3.472 -0.0826 -0.3743 -0.8122
25553SOL    HW288639   0.762   3.170   3.580  0.1239 -0.0899 -0.4691
25554SOL     OW88640   6.103   0.729   7.732 -0.2475 -0.0561  0.2034
25554SOL    HW188641   6.181   0.726   7.676 -0.1693 -1.5070  0.3437
25554SOL    HW288642   6.035   0.765   7.675  0.4907  1.2122  0.0711
25555SOL     OW88643   4.382  10.793   6.274  0.1514 -0.1531  0.6023
25555SOL    HW188644   4.307  10.845   6.305  0.2879  0.1986  0.3537
25555SOL    HW288645   4.364  10.778   6.181  0.2558 -0.3017  0.6061
25556SOL     OW88646  10.539  11.968   4.596 -0.5893  0.3138 -0.6057
25556SOL    HW188647  10.562  11.906   4.666  1.8276  1.0452 -0.6535
25556SOL    HW288648  10.478  12.029   4.638  1.0286  0.9190  1.0468
25557SOL     OW88649   9.441   3.390   2.240  0.1728  0.0562 -0.4056
25557SOL    HW188650   9.420   3.428   2.325 -1.0102 -0.6508 -0.3697
25557SOL    HW288651   9.476   3.303   2.260 -1.1188 -0.5486 -0.6644
25558SOL     OW88652  12.611   4.342   4.035 -0.2851 -0.2766  0.7953
25558SOL    HW188653  12.633   4.266   4.090 -0.7671 -0.9489  0.0910
25558SOL    HW288654  12.594   4.304   3.949  1.4805  0.8825 -0.0948
25559SOL     OW88655   0.075  13.996  13.397  0.6423 -0.7403 -0.5383
25559SOL    HW188656   0.034  14.067  13.348  1.7057  0.9556  0.8993
25559SOL    HW288657   0.040  14.005  13.486  1.5724 -1.3475 -0.0933
25560SOL     OW88658  10.081   9.277  13.478  0.4708  0.0151  0.1957
25560SOL    HW188659  10.152   9.257  13.538  3.3739  1.1559 -2.5580
25560SOL    HW288660  10.063   9.195  13.433  0.6321 -0.0990  0.3401
25561SOL     OW88661  10.275   9.117   9.362 -0.1198 -0.0230 -0.1525
25561SOL    HW188662  10.346   9.065   9.326 -0.8377 -1.4786  0.4266
25561SOL    HW288663  10.195   9.073   9.332 -0.7990  1.6255 -0.8838
25562SOL     OW88664   6.173   0.440  12.367  0.2699  0.3305 -0.1903
25562SOL    HW188665   6.246   0.379  12.370  1.3033  1.4562 -1.3828
25562SOL    HW288666   6.206   0.520  12.408  0.3867  1.4702 -2.3383
25563SOL     OW88667  13.587   9.209  10.244  0.5525 -0.3599  0.0832
25563SOL    HW188668  13.567   9.120  10.273  0.4672 -0.4403 -0.2153
25563SOL    HW288669  13.507   9.237  10.199 -0.3076  0.7291  2.1506
25564SOL     OW88670   5.842   9.982   6.151  0.1939 -0.0823 -0.0497
25564SOL    HW188671   5.829   9.898   6.195 -1.9286  0.3640  0.2833
25564SOL    HW288672   5.893   9.961   6.072 -1.0778 -1.8392 -0.4546
25565SOL     OW88673   1.714   0.659  12.700  0.0209 -0.2024  0.2055
25565SOL    HW188674   1.728   0.751  12.720 -1.3491  0.0895 -0.0692
25565SOL    HW288675   1.689   0.658  12.608 -2.2639 -0.5486  0.7581
25566SOL     OW88676  12.867  13.911   0.206  0.5280  0.3843 -0.8760
25566SOL    HW188677  12.829  13.837   0.158  1.2283 -0.6476  0.1052
25566SOL    HW288678  12.932  13.871   0.264  0.4500  1.7042  0.1695
25567SOL     OW88679  10.203   3.794   8.387 -0.3739  0.4096 -0.1994
25567SOL    HW188680  10.270   3.859   8.409 -0.6001  0.0221  1.8304
25567SOL    HW288681  10.131   3.813   8.446 -1.0851 -0.6972 -0.6801
25568SOL     OW88682   0.722  13.697   3.576  0.3512  0.1636 -0.8006
25568SOL    HW188683   0.744  13.787   3.554  0.6047 -0.1942 -2.0911
25568SOL    HW288684   0.679  13.663   3.497  2.4958 -1.5815 -1.3314
25569SOL     OW88685   6.432  10.866   8.948  0.5650 -0.7254 -0.3619
25569SOL    HW188686   6.451  10.958   8.927 -0.7754 -0.6822 -1.5092
25569SOL    HW288687   6.454  10.858   9.041 -0.5060  1.1002  0.0914
25570SOL     OW88688   0.575   2.348   0.304 -0.1038  0.3987  0.1434
25570SOL    HW188689   0.615   2.371   0.220  0.6462 -0.8920  0.1117
25570SOL    HW288690   0.623   2.269   0.332 -0.6882  0.5129  1.5317
25571SOL     OW88691   9.310   5.020  12.391  0.1020 -0.2408  0.1220
25571SOL    HW188692   9.333   5.054  12.304 -2.3671  0.9168 -0.1483
25571SOL    HW288693   9.351   5.080  12.452  0.1673  0.1151 -0.2694
25572SOL     OW88694   8.016  10.239   9.986 -0.8170  0.2371  0.4939
25572SOL    HW188695   7.922  10.229  10.001 -1.1694 -0.8331 -1.9115
25572SOL    HW288696   8.031  10.333   9.991 -2.3814  0.5983 -0.7418
25573SOL     OW88697   8.407   4.267   2.250 -0.3340 -0.1492  0.0820
25573SOL    HW188698   8.396   4.173   2.235  1.0765 -0.4221  0.5786
25573SOL    HW288699   8.350   4.287   2.324 -0.8247 -0.5639 -0.1838
25574SOL     OW88700   1.506  12.001   6.174  0.1297  0.1255  0.1533
25574SOL    HW188701   1.494  12.004   6.079  0.3013  0.6799  0.1433
25574SOL    HW288702   1.596  11.972   6.186 -0.1714 -0.8352  0.1688
25575SOL     OW88703  13.071   4.417   2.923 -0.0992  0.1965  0.4048
25575SOL    HW188704  13.080   4.367   3.004  0.9584 -2.1043 -1.0178
25575SOL    HW288705  13.151   4.470   2.919  0.6107 -0.8712  0.1364
25576SOL     OW88706   2.147   7.353  11.213  0.5784  0.2681 -0.5128
25576SOL    HW188707   2.135   7.274  11.267  2.4011 -0.0086 -0.4366
25576SOL    HW288708   2.177   7.420  11.275  0.2438  0.6703 -0.7812
25577SOL     OW88709   3.728   1.248  11.340  0.3163  0.2810 -0.4948
25577SOL    HW188710   3.759   1.241  11.250  1.2040 -0.7118 -0.1327
25577SOL    HW288711   3.714   1.157  11.368  0.9316  0.5158  0.6577
25578SOL     OW88712   5.931   9.689   6.026  0.4183  0.0031 -0.1139
25578SOL    HW188713   5.981   9.617   5.987 -0.7530 -1.0140  0.1731
25578SOL    HW288714   5.954   9.765   5.974 -1.0692 -1.2843 -2.8592
25579SOL     OW88715  13.731  13.725   6.179 -0.1614  0.1217 -0.6478
25579SOL    HW188716  13.812  13.705   6.227 -0.6973 -0.5640 -0.0067
25579SOL    HW288717  13.758  13.728   6.087  0.7625  0.8327 -0.3687
25580SOL     OW88718   0.267   5.898   9.606 -0.3352 -0.3014 -0.0124
25580SOL    HW188719   0.197   5.959   9.631 -1.0748 -1.0081 -0.3063
25580SOL    HW288720   0.346   5.934   9.647 -1.1084 -0.2063  1.4647
25581SOL     OW88721   8.024  12.866   0.979 -0.2782  0.1106 -0.0298
25581SOL    HW188722   8.012  12.886   0.886 -1.3990  0.4397  0.1681
25581SOL    HW288723   8.005  12.948   1.025 -0.4141 -0.2199  0.5220
25582SOL     OW88724   1.017   0.818  10.498  0.3243  0.0193 -0.5278
25582SOL    HW188725   1.003   0.912  10.490  0.1716  0.4690  3.1053
25582SOL    HW288726   0.933   0.779  10.472 -0.4420  1.1003  0.2156
25583SOL     OW88727   1.044   8.335   1.647  0.4575  0.3860  0.9511
25583SOL    HW188728   1.092   8.288   1.579  0.4536 -0.5339  1.5484
25583SOL    HW288729   0.978   8.272   1.677 -0.2660  1.1703  1.0413
25584SOL     OW88730   1.062  11.310   7.392 -0.3484  0.6139 -0.2281
25584SOL    HW188731   0.985  11.362   7.414 -1.0770 -0.7162  0.4928
25584SOL    HW288732   1.033  11.257   7.317  0.1110  0.6253 -0.4154
25585SOL     OW88733  10.362   9.601  10.163  0.0606  0.5667 -0.2785
25585SOL    HW188734  10.329   9.529  10.217  0.7579 -0.6861 -1.4558
25585SOL    HW288735  10.435   9.637  10.213 -0.1558  0.3050  0.2283
25586SOL     OW88736   7.259   3.309   5.389 -0.3182  0.0120  0.0155
25586SOL    HW188737   7.330   3.338   5.331 -0.1981 -1.1456 -0.4490
25586SOL    HW288738   7.190   3.375   5.378  0.3279  0.6639 -0.2171
25587SOL     OW88739  12.288   3.771  13.755  0.8239  0.3469  0.4732
25587SOL    HW188740  12.263   3.681  13.734  2.0507  0.2768 -0.9253
25587SOL    HW288741  12.380   3.776  13.730  0.3863  2.4198 -0.9673
25588SOL     OW88742   4.119   6.205   9.175  0.5901  0.1780  0.3312
25588SOL    HW188743   4.144   6.229   9.086  0.5497  0.2147  0.3293
25588SOL    HW288744   4.179   6.135   9.199  0.3547 -0.0921  0.1333
25589SOL     OW88745   1.744  10.346   9.229  0.0686  0.1327 -0.0729
25589SOL    HW188746   1.695  10.428   9.227 -0.3545 -0.1254 -0.5758
25589SOL    HW288747   1.836  10.373   9.234  0.0102  0.6750 -1.4193
25590SOL     OW88748   4.119  11.771   3.550  0.5063 -0.3102 -0.5330
25590SOL    HW188749   4.054  11.797   3.486  0.2858 -0.1744 -0.2592
25590SOL    HW288750   4.106  11.832   3.624 -0.9183 -1.9947  0.6855
25591SOL     OW88751   8.889   9.162   5.425  0.1210 -0.0903  0.2649
25591SOL    HW188752   8.962   9.194   5.477  0.1102  0.9572 -0.3401
25591SOL    HW288753   8.851   9.240   5.385 -1.6287 -0.5549  0.9233
25592SOL     OW88754  10.971   2.099   3.676 -0.3278 -0.4323 -0.0983
25592SOL    HW188755  11.028   2.053   3.614  0.6952  0.1488  0.3681
25592SOL    HW288756  11.001   2.190   3.672  1.1498 -0.6859  2.6567
25593SOL     OW88757  13.913  13.256   5.682 -0.2757 -0.1322  0.1202
25593SOL    HW188758  13.859  13.214   5.614 -0.5768 -0.1394  0.3618
25593SOL    HW288759  13.911  13.349   5.660 -1.6776  0.0770  1.0036
25594SOL     OW88760   8.534  12.651   4.365 -0.2713  0.2124 -0.2119
25594SOL    HW188761   8.519  12.742   4.341  0.7541  0.4096 -0.1238
25594SOL    HW288762   8.489  12.601   4.297 -2.1763  0.7490  0.5786
25595SOL     OW88763  12.967   2.328   8.008  0.4819 -0.4350 -0.0393
25595SOL    HW188764  13.002   2.412   7.978  0.2137 -0.8727 -1.6943
25595SOL    HW288765  13.045   2.276   8.028  0.8274 -0.8658 -2.1918
25596SOL     OW88766   6.487  11.022   4.045  0.0423  0.3537  0.0758
25596SOL    HW188767   6.532  10.983   4.121 -1.3743  2.0545  1.8922
25596SOL    HW288768   6.555  11.072   4.000  0.4827  1.1526  1.5507
25597SOL     OW88769   0.467   0.909   5.650 -0.6800  0.5164 -0.4082
25597SOL    HW188770   0.474   0.816   5.629 -0.9878  0.1335  1.0612
25597SOL    HW288771   0.377   0.920   5.682 -1.0177  1.5658 -1.5986
25598SOL     OW88772   2.195  13.052   2.190 -0.1011  0.3916  0.1072
25598SOL    HW188773   2.153  13.112   2.128  0.3126  0.5334 -0.0398
25598SOL    HW288774   2.285  13.043   2.157 -0.4611 -1.2215 -0.5576
25599SOL     OW88775   5.960   4.704   6.414  0.0280 -0.8897 -0.5480
25599SOL    HW188776   6.044   4.671   6.383  0.1976 -0.5544 -0.4544
25599SOL    HW288777   5.903   4.701   6.337 -0.5859 -3.3751 -0.0662
25600SOL     OW88778   7.753   9.050   7.906 -0.0300  0.0795  0.2000
25600SOL    HW188779   7.679   9.003   7.867  0.7329  0.9501 -2.5777
25600SOL    HW288780   7.732   9.143   7.894  1.5050  0.3388 -0.7613
25601SOL     OW88781  10.294   0.293   9.030  0.1859 -0.0341  0.4083
25601SOL    HW188782  10.217   0.238   9.042  0.4545 -0.1168  2.0814
25601SOL    HW288783  10.362   0.250   9.082  0.9452  0.8324  0.1637
25602SOL     OW88784   9.072   9.101  13.905  0.1612  0.4340 -0.0901
25602SOL    HW188785   8.982   9.127  13.882  0.1698 -0.8176 -1.7048
25602SOL    HW288786   9.062   9.051  13.986 -1.0146 -2.0284 -1.6529
25603SOL     OW88787  11.201   3.999  13.113 -0.3733 -0.0503 -0.4480
25603SOL    HW188788  11.256   4.026  13.039  0.2409 -1.4923 -0.5511
25603SOL    HW288789  11.171   3.911  13.090 -0.8632 -0.1876  0.6467
25604SOL     OW88790   2.163   0.633  10.726  0.4330  0.0414  0.0577
25604SOL    HW188791   2.188   0.540  10.727 -0.1751 -0.1285 -0.3659
25604SOL    HW288792   2.115   0.644  10.645  0.1432  0.6419  0.3082
25605SOL     OW88793   4.534  10.168   8.289 -0.2727 -0.3982  0.1975
25605SOL    HW188794   4.444  10.176   8.321 -0.6169  1.0464 -1.0257
25605SOL    HW288795   4.586  10.222   8.349 -0.5359  0.3298 -0.2167
25606SOL     OW88796  10.413  13.104  13.340  0.2636  0.6926 -0.1853
25606SOL    HW188797  10.474  13.041  13.302 -0.0859  0.1059  0.2079
25606SOL    HW288798  10.457  13.188  13.332  1.5783  0.1546  1.0169
25607SOL     OW88799  14.007   4.512   6.857  0.1288  0.1446  0.6855
25607SOL    HW188800  14.064   4.547   6.789  1.2720 -0.8649  1.1087
25607SOL    HW288801  14.042   4.548   6.939 -1.0728  1.1329  0.8031
25608SOL     OW88802   7.719   3.088   1.415 -0.0525 -0.3283 -0.3421
25608SOL    HW188803   7.719   3.077   1.320  1.4450 -0.2526 -0.3810
25608SOL    HW288804   7.795   3.144   1.432 -0.8959  0.5090  0.8192
25609SOL     OW88805  11.497   8.356  12.889  0.0971  0.1614  0.4555
25609SOL    HW188806  11.428   8.420  12.906 -0.4361  0.2034 -1.6565
25609SOL    HW288807  11.454   8.271  12.901  0.3703  0.1657  1.6012
25610SOL     OW88808   9.449  11.800   8.405  0.3374 -0.0408  0.7151
25610SOL    HW188809   9.469  11.840   8.321 -0.5510  1.7484  1.3041
25610SOL    HW288810   9.530  11.810   8.456  1.6450 -3.0579 -0.5142
25611SOL     OW88811   0.066   0.755   4.951 -0.0385  0.0539  0.2276
25611SOL    HW188812   0.056   0.794   4.864  0.8789 -2.4454 -1.0891
25611SOL    HW288813  -0.015   0.708   4.966  1.0585 -2.3786 -0.9061
25612SOL     OW88814   2.942   5.679   2.786  0.1639  0.2154  0.4510
25612SOL    HW188815   2.992   5.709   2.710 -0.7826 -0.2727 -0.3820
25612SOL    HW288816   2.851   5.677   2.756 -0.2504  0.1334  1.6392
25613SOL     OW88817  11.061   2.038   1.286 -0.4222  0.2471  0.1357
25613SOL    HW188818  11.015   2.029   1.202 -1.5004 -0.9548  0.8044
25613SOL    HW288819  11.142   1.988   1.275 -1.2810 -1.2326  0.2726
25614SOL     OW88820  14.017   6.581   0.159  0.7049  0.3276  0.2024
25614SOL    HW188821  13.950   6.647   0.139  0.4536  0.1928  0.5977
25614SOL    HW288822  14.099   6.630   0.159  0.6727  0.3949 -0.8172
25615SOL     OW88823   7.263   5.167  11.301 -0.1497 -0.1425 -0.0475
25615SOL    HW188824   7.258   5.237  11.236  0.5704  1.4467  1.5327
25615SOL    HW288825   7.352   5.133  11.292  0.1482  0.4743  0.4647
25616SOL     OW88826   6.308   1.787   2.670 -0.4951 -0.0029  0.0225
25616SOL    HW188827   6.368   1.720   2.637 -1.5587  0.4248 -3.1317
25616SOL    HW288828   6.224   1.765   2.629 -1.5659  1.6001  1.2571
25617SOL     OW88829   0.053   1.668   0.965  0.7229 -0.0483  0.4320
25617SOL    HW188830   0.032   1.575   0.970  0.7641 -0.0587  0.4071
25617SOL    HW288831   0.027   1.694   0.877  0.5014  0.0142  0.5148
25618SOL     OW88832  11.238   3.369   9.155  0.4846 -0.2001  0.2379
25618SOL    HW188833  11.144   3.368   9.141  0.2923  0.1877  1.3923
25618SOL    HW288834  11.276   3.371   9.067 -0.6151  1.5346 -0.2400
25619SOL     OW88835  10.578   0.204   4.981 -0.1449 -0.5162 -0.2719
25619SOL    HW188836  10.652   0.159   5.023  0.4768 -1.3089 -2.1135
25619SOL    HW288837  10.602   0.296   4.982  0.3602 -0.6474  0.1256
25620SOL     OW88838   6.889  12.641  10.560  0.9253 -0.1614  0.0273
25620SOL    HW188839   6.965  12.636  10.619  1.3147  3.1129  0.0311
25620SOL    HW288840   6.856  12.730  10.573 -0.8097 -0.3394 -2.5557
25621SOL     OW88841   0.647   4.574   2.053 -0.5534 -0.3755  0.0483
25621SOL    HW188842   0.674   4.633   2.124 -0.6566 -0.1766 -0.0764
25621SOL    HW288843   0.720   4.514   2.043 -0.0274  0.3370 -0.4787
25622SOL     OW88844  13.292   7.756  12.796  0.0224  0.5639  0.0942
25622SOL    HW188845  13.249   7.706  12.726 -0.1936 -1.0643  1.3064
25622SOL    HW288846  13.345   7.821  12.751  0.0462 -0.5554 -1.5892
25623SOL     OW88847   1.891   4.913   2.865  0.0799  0.9294 -0.0595
25623SOL    HW188848   1.821   4.969   2.901  0.1843  1.8041 -1.1517
25623SOL    HW288849   1.845   4.835   2.833  0.0483 -0.1327  2.3781
25624SOL     OW88850   5.467   4.193   9.216  0.4599  0.4659  0.1530
25624SOL    HW188851   5.509   4.107   9.218  1.3446  0.7217 -2.9519
25624SOL    HW288852   5.540   4.255   9.209 -0.2477  1.1208 -2.3671
25625SOL     OW88853   1.366   1.814   0.174  0.1345 -0.4490  0.0082
25625SOL    HW188854   1.296   1.755   0.201  0.0590 -0.5268 -0.3445
25625SOL    HW288855   1.322   1.878   0.118  0.2172 -0.0633  0.3849
25626SOL     OW88856  11.407   1.690   2.180  0.1837 -0.1094 -0.1439
25626SOL    HW188857  11.488   1.688   2.129  0.6800 -0.7880  0.6485
25626SOL    HW288858  11.408   1.776   2.223  1.3086 -0.7165  1.1306
25627SOL     OW88859   8.419   4.599   2.517  0.1425  0.2005 -0.2026
25627SOL    HW188860   8.382   4.587   2.604  0.6813  0.8042  0.1213
25627SOL    HW288861   8.344   4.606   2.458 -0.2208 -0.8014  0.1235
25628SOL     OW88862   5.565   6.102  12.134 -0.9079 -0.0097  0.3876
25628SOL    HW188863   5.559   6.196  12.153 -0.5690  0.4464 -1.4995
25628SOL    HW288864   5.477   6.079  12.104 -0.7718 -0.0708  0.0237
25629SOL     OW88865  13.325   5.624   5.497 -0.0061  0.3628  0.2869
25629SOL    HW188866  13.292   5.611   5.408 -0.3602 -0.8291  0.5753
25629SOL    HW288867  13.357   5.714   5.497 -1.4128  0.9150 -0.6076
25630SOL     OW88868   3.109  12.691   4.083  0.3743  0.3084  0.1068
25630SOL    HW188869   3.076  12.642   4.158  1.3985  0.5351  0.7156
25630SOL    HW288870   3.203  12.701   4.099  0.3211  1.8429 -0.3574
25631SOL     OW88871   7.025  13.695   3.431  0.9901 -0.2056 -0.3623
25631SOL    HW188872   6.975  13.776   3.424 -0.0094 -0.7477  0.3800
25631SOL    HW288873   6.994  13.641   3.358  2.7610  0.6287 -1.8113
25632SOL     OW88874   3.857  13.605  13.091  0.3966 -0.1542  0.0499
25632SOL    HW188875   3.911  13.656  13.030 -0.2153  0.7718  0.2486
25632SOL    HW288876   3.874  13.645  13.176 -1.7195  1.2161 -0.0820
25633SOL     OW88877  10.562  10.231   5.601 -0.2571  0.8173 -0.1232
25633SOL    HW188878  10.536  10.272   5.684  0.4321  1.1220 -0.0485
25633SOL    HW288879  10.654  10.210   5.613 -0.3426  0.1906 -0.5518
25634SOL     OW88880   1.550   3.558  13.677  0.2251 -0.9145  0.3548
25634SOL    HW188881   1.619   3.491  13.678  0.5840 -0.6831 -1.9864
25634SOL    HW288882   1.588   3.632  13.724  2.0448 -0.4413 -1.7152
25635SOL     OW88883   2.430   2.360   4.498  0.6715  0.2594  0.1432
25635SOL    HW188884   2.500   2.421   4.520  1.2389 -0.7161  1.1804
25635SOL    HW288885   2.354   2.390   4.549  1.0544 -0.0878  0.9393
25636SOL     OW88886   4.644   6.002   7.290  0.0213 -0.1365  0.2916
25636SOL    HW188887   4.613   6.018   7.201 -0.7051 -0.9018  0.3967
25636SOL    HW288888   4.699   6.078   7.310  0.2637 -0.0026 -0.8373
25637SOL     OW88889   5.815   4.112   8.070 -0.1873  0.0795  0.4968
25637SOL    HW188890   5.726   4.111   8.037 -0.5833  0.8459  1.5124
25637SOL    HW288891   5.812   4.166   8.149  1.5854  2.0218 -0.6363
25638SOL     OW88892   3.164  12.785   8.276 -0.3245 -0.8501  0.4823
25638SOL    HW188893   3.084  12.797   8.329 -1.1927 -2.3469 -0.4247
25638SOL    HW288894   3.195  12.697   8.300  0.3838 -0.7482 -0.0521
25639SOL     OW88895  10.903   5.215   0.947  0.2209 -0.4080  0.7252
25639SOL    HW188896  10.877   5.294   0.899 -0.8971 -0.3627  1.3757
25639SOL    HW288897  10.987   5.191   0.909  0.8886  1.4466  0.9266
25640SOL     OW88898  13.967   8.283   6.042  0.6726 -0.4171  0.0860
25640SOL    HW188899  13.876   8.263   6.020  0.1116  2.1626 -0.2696
25640SOL    HW288900  14.018   8.228   5.983 -0.7507  0.5547 -2.1958
25641SOL     OW88901   6.818   1.378  13.085 -0.1974  0.5829  0.4585
25641SOL    HW188902   6.834   1.316  13.157 -1.9472  1.7919  1.9781
25641SOL    HW288903   6.903   1.419  13.070  0.2060  0.3609  1.9312
25642SOL     OW88904  10.605   1.627   0.244  0.5414 -0.4574  0.7281
25642SOL    HW188905  10.661   1.703   0.225  2.3759 -1.5156  1.5668
25642SOL    HW288906  10.594   1.629   0.339 -0.7601 -0.3612  0.5882
25643SOL     OW88907   5.344   4.098   7.839 -0.0810 -0.0715  0.1393
25643SOL    HW188908   5.305   4.136   7.760 -2.4885 -1.0446  0.7630
25643SOL    HW288909   5.284   4.028   7.864  1.5234 -0.9038  1.9060
25644SOL     OW88910   5.695   2.251   4.446 -0.4246 -0.5567  0.4470
25644SOL    HW188911   5.664   2.261   4.536 -1.6013 -1.3835  0.1556
25644SOL    HW288912   5.765   2.186   4.452  0.2129  0.1493  0.8908
25645SOL     OW88913   2.560  10.450   3.287 -0.1549 -0.1649  1.2551
25645SOL    HW188914   2.583  10.479   3.375 -0.1579 -0.8825  1.4989
25645SOL    HW288915   2.627  10.384   3.265 -0.1233  0.0476  0.7041
25646SOL     OW88916   1.208   8.815   6.321  0.5419  0.8529  0.4552
25646SOL    HW188917   1.216   8.764   6.240 -3.0513 -3.1305  2.2044
25646SOL    HW288918   1.168   8.898   6.293  0.4320  0.0841 -1.9559
25647SOL     OW88919   1.826   3.928   4.177 -0.1468  0.0496 -0.8490
25647SOL    HW188920   1.915   3.893   4.178 -1.4685 -3.9242  1.3748
25647SOL    HW288921   1.804   3.943   4.269 -1.4692  2.0110 -1.4143
25648SOL     OW88922   8.127   2.029  11.360 -0.9470 -0.0681 -0.2046
25648SOL    HW188923   8.124   1.962  11.428 -1.4980  1.0014  0.8629
25648SOL    HW288924   8.092   2.108  11.402 -2.5701  0.3158 -2.0938
25649SOL     OW88925   5.534   6.772  13.310  0.0959 -0.0181 -0.1862
25649SOL    HW188926   5.505   6.821  13.233 -0.3172  0.0352 -0.0039
25649SOL    HW288927   5.627   6.756  13.295 -0.2675 -1.2302 -1.3465
25650SOL     OW88928   2.775  10.066   3.132  0.3462 -0.0619  0.2795
25650SOL    HW188929   2.824  10.009   3.074  1.9144  1.0511  0.4469
25650SOL    HW288930   2.693  10.082   3.086  0.4915 -1.2564 -0.4258
25651SOL     OW88931  12.781   5.903  13.309 -0.9966  0.5595  0.1181
25651SOL    HW188932  12.829   5.822  13.295 -1.3976  0.4605 -0.7654
25651SOL    HW288933  12.819   5.941  13.388  0.7159  0.6378 -0.7087
25652SOL     OW88934   0.555   4.309   8.713 -0.3767  0.3110 -0.5629
25652SOL    HW188935   0.647   4.335   8.723 -0.0721 -0.7639 -0.4333
25652SOL    HW288936   0.532   4.270   8.797 -0.9401  0.4972 -0.6238
25653SOL     OW88937  13.217   2.436   4.640  0.0459  0.0634  0.4165
25653SOL    HW188938  13.161   2.367   4.676  1.0183 -0.8880  0.1587
25653SOL    HW288939  13.163   2.515   4.644 -1.7306 -1.0041 -0.8646
25654SOL     OW88940   7.960   0.006  12.923  0.2644  0.7612 -0.4332
25654SOL    HW188941   7.873  -0.032  12.934  0.1427  1.0042 -0.5758
25654SOL    HW288942   8.007  -0.020  13.003  0.4262 -0.3551 -0.8721
25655SOL     OW88943  12.861   3.564  13.163  0.3015 -0.4365  0.1738
25655SOL    HW188944  12.855   3.656  13.138  0.5766 -0.6982 -0.9117
25655SOL    HW288945  12.913   3.523  13.093 -1.4721 -1.8075 -0.4129
25656SOL     OW88946   5.442   1.869   5.255 -0.2326  0.3639  0.2710
25656SOL    HW188947   5.497   1.859   5.177 -0.7538  0.0090 -0.0539
25656SOL    HW288948   5.470   1.953   5.292  0.7537  0.0419  0.2967
25657SOL     OW88949  12.164   7.564   3.002 -0.0482  0.0607 -0.0193
25657SOL    HW188950  12.241   7.517   3.033 -0.2686 -0.7900 -0.7372
25657SOL    HW288951  12.129   7.607   3.081  1.6361  1.1985  0.1639
25658SOL     OW88952   9.456   2.518   1.336 -1.2127 -0.3133  0.1470
25658SOL    HW188953   9.372   2.558   1.314 -1.3668 -0.3149  0.7103
25658SOL    HW288954   9.443   2.481   1.424 -0.4380  0.2198  0.5022
25659SOL     OW88955  13.856  10.936  12.615  0.2846 -0.5762  0.0035
25659SOL    HW188956  13.817  10.998  12.554  1.0220 -1.0029 -0.9279
25659SOL    HW288957  13.841  10.975  12.702 -1.9515 -0.5957 -0.3027
25660SOL     OW88958  11.708   9.895  11.199 -0.1363 -0.1574  0.3329
25660SOL    HW188959  11.783   9.838  11.215  0.6171  0.4393 -0.9239
25660SOL    HW288960  11.634   9.851  11.241  0.5864 -1.6045  0.1291
25661SOL     OW88961   7.176   5.281   2.228 -0.0161 -0.4288  0.1720
25661SOL    HW188962   7.261   5.316   2.202 -0.6644  0.3271 -1.0382
25661SOL    HW288963   7.165   5.202   2.175 -0.1883 -0.3643  0.1102
25662SOL     OW88964   7.882   1.914   4.103  0.2970 -0.2289  0.3401
25662SOL    HW188965   7.960   1.878   4.146  0.3816  0.3355  0.6618
25662SOL    HW288966   7.842   1.970   4.169 -0.9793 -1.3357  0.5559
25663SOL     OW88967  11.975   5.673   5.341  0.5562 -0.1090  0.2117
25663SOL    HW188968  11.891   5.628   5.339 -0.2941  1.4159 -1.8266
25663SOL    HW288969  12.005   5.663   5.431 -1.9113 -0.5287  1.0634
25664SOL     OW88970   3.661  12.456  10.066  0.0415  0.2202 -0.9027
25664SOL    HW188971   3.639  12.543  10.098  0.9549  0.3520 -0.6071
25664SOL    HW288972   3.658  12.400  10.144  0.2329  0.1468 -0.9449
25665SOL     OW88973   2.472   3.724  10.189 -0.3211  0.2196 -0.6553
25665SOL    HW188974   2.563   3.705  10.163 -0.2897 -0.8947  0.1639
25665SOL    HW288975   2.419   3.674  10.127 -0.4986  2.4845 -2.4495
25666SOL     OW88976   3.238   9.413   8.924  0.5748 -0.3290 -0.0789
25666SOL    HW188977   3.217   9.364   9.004  1.3835 -1.1732 -0.3624
25666SOL    HW288978   3.236   9.347   8.855 -0.4015  0.4456 -0.8192
25667SOL     OW88979   1.812   4.494  12.027 -0.2744 -0.0191  0.5625
25667SOL    HW188980   1.725   4.477  12.062  0.1517 -0.9499  1.2214
25667SOL    HW288981   1.852   4.407  12.018  0.5895  0.3914  0.2723
25668SOL     OW88982   0.796   9.970   0.404  0.1292 -0.0612  0.8388
25668SOL    HW188983   0.833   9.984   0.491  1.7060  1.0759  0.0368
25668SOL    HW288984   0.751   9.886   0.410  2.0121 -1.0483  2.1713
25669SOL     OW88985   2.798  12.652   0.831  0.7140  0.2736 -0.7134
25669SOL    HW188986   2.831  12.562   0.839  0.7681  0.4188  1.0212
25669SOL    HW288987   2.818  12.693   0.915  0.1604  1.7423 -1.2634
25670SOL     OW88988   8.904   0.498   9.271  0.0502 -0.5740  0.3818
25670SOL    HW188989   8.876   0.498   9.179 -0.9658  1.7520  0.6183
25670SOL    HW288990   8.826   0.526   9.319  1.1313  0.2699  1.7168
25671SOL     OW88991  13.317   5.191   3.232 -0.4473 -0.0323  0.6038
25671SOL    HW188992  13.319   5.133   3.156  0.6515  1.2415 -0.3955
25671SOL    HW288993  13.227   5.183   3.266 -0.8351 -0.9355 -0.5736
25672SOL     OW88994   7.967   8.859   6.912  0.0377  0.0970 -0.5618
25672SOL    HW188995   8.030   8.908   6.858 -0.2192 -0.3592 -1.2928
25672SOL    HW288996   8.009   8.774   6.926  0.0382  0.1613 -0.1547
25673SOL     OW88997  13.134  10.825   2.629  0.2875  0.0422 -0.2648
25673SOL    HW188998  13.049  10.847   2.589  0.3466  1.5048  0.3434
25673SOL    HW288999  13.113  10.805   2.721  0.5483 -0.0999 -0.2338
25674SOL     OW89000   3.943  11.008   4.230  0.3471 -0.2139 -0.0308
25674SOL    HW189001   3.854  10.973   4.225  0.9664 -2.0736  0.8353
25674SOL    HW289002   3.933  11.094   4.269 -1.0345 -0.6683  0.6735
25675SOL     OW89003   4.757   4.183  12.118  0.5968 -0.0740 -0.4690
25675SOL    HW189004   4.768   4.248  12.187 -2.9030 -0.2366  0.4592
25675SOL    HW289005   4.807   4.107  12.148 -0.1179  0.1650  1.5208
25676SOL     OW89006  13.834   5.000   9.270 -0.6238 -0.4917 -0.5363
25676SOL    HW189007  13.823   5.089   9.304  0.0597 -0.5429 -0.1778
25676SOL    HW289008  13.830   5.011   9.175  1.5470  0.2311 -0.5899
25677SOL     OW89009  10.126   7.737   5.031 -0.4320 -0.5267 -0.1200
25677SOL    HW189010  10.158   7.648   5.048  0.4656 -0.2126 -0.0725
25677SOL    HW289011  10.206   7.788   5.018 -0.9665  0.1231 -0.8931
25678SOL     OW89012  13.738   7.772  10.201 -0.4586  0.1372  0.2719
25678SOL    HW189013  13.739   7.779  10.296 -1.9296 -1.9502  0.5173
25678SOL    HW289014  13.673   7.836  10.173 -0.8481 -0.0331  0.7763
25679SOL     OW89015  10.390  12.483   4.942 -0.1086 -0.2935  0.4440
25679SOL    HW189016  10.399  12.473   5.036  2.0152 -1.3376  0.1840
25679SOL    HW289017  10.389  12.578   4.928 -3.7363  0.0180  1.6664
25680SOL     OW89018  12.129   4.445   7.894 -0.4055 -0.4490  0.0653
25680SOL    HW189019  12.198   4.512   7.893 -0.8753  0.0366 -0.2298
25680SOL    HW289020  12.156   4.385   7.963  1.8346 -1.9080 -1.9120
25681SOL     OW89021  12.146   0.934  14.031 -0.3725 -0.3495  0.0511
25681SOL    HW189022  12.155   0.972  14.119  0.0270  1.4349 -0.7212
25681SOL    HW289023  12.230   0.952  13.989 -1.6052  1.7300 -1.7468
25682SOL     OW89024   4.761  10.748  12.402  0.0431  0.0774  0.4805
25682SOL    HW189025   4.814  10.759  12.481  1.1577  1.4904 -0.4200
25682SOL    HW289026   4.677  10.788  12.424  0.6317  1.2402  0.7131
25683SOL     OW89027   7.926  11.192  11.328  0.6058  0.1001  0.1279
25683SOL    HW189028   7.861  11.253  11.296 -0.3373 -1.8048 -1.8453
25683SOL    HW289029   8.005  11.212  11.278  0.6764  0.4784  0.3843
25684SOL     OW89030   1.041  12.123   0.111  0.4023 -0.2259  0.1635
25684SOL    HW189031   1.004  12.070   0.042 -1.0416 -0.3816  1.0210
25684SOL    HW289032   0.998  12.208   0.103 -0.5831 -0.5673  1.4896
25685SOL     OW89033   7.970  12.795   6.063 -0.1031 -0.5126  0.0709
25685SOL    HW189034   7.939  12.877   6.024  0.9100 -0.9929 -1.8675
25685SOL    HW289035   7.900  12.732   6.045 -0.8332 -0.1357  1.4656
25686SOL     OW89036  11.535   7.081   4.240 -0.6537 -0.2579  0.5026
25686SOL    HW189037  11.566   7.160   4.284 -0.5000 -1.0689  1.9429
25686SOL    HW289038  11.614   7.034   4.216 -0.7378  0.2098 -0.7415
25687SOL     OW89039   5.338   6.747   9.880 -0.1021 -0.3220  0.3205
25687SOL    HW189040   5.386   6.730   9.799 -1.6278  1.0473 -0.9723
25687SOL    HW289041   5.375   6.828   9.914 -0.0251 -0.4413  0.5203
25688SOL     OW89042  12.064   4.231   7.034 -0.2244 -0.1977 -0.3684
25688SOL    HW189043  11.996   4.197   7.093 -0.3986 -0.7211 -0.8665
25688SOL    HW289044  12.113   4.153   7.006  2.7345  0.3809  2.5512
25689SOL     OW89045   1.113   3.337  12.704  0.8197  0.3207  0.0475
25689SOL    HW189046   1.076   3.372  12.785  2.1710  0.5612  0.5912
25689SOL    HW289047   1.194   3.387  12.691  0.7607  0.0896 -1.3036
25690SOL     OW89048   4.679  10.857   1.543  0.3396 -0.0566  0.1151
25690SOL    HW189049   4.658  10.787   1.606  1.2320  1.1700  1.8773
25690SOL    HW289050   4.597  10.904   1.531  0.0937 -0.4718  0.1207
25691SOL     OW89051   5.216   8.746   4.580 -0.1531 -0.3111  0.2061
25691SOL    HW189052   5.122   8.747   4.564 -0.0384 -0.3232 -0.4965
25691SOL    HW289053   5.240   8.653   4.575 -0.2254 -0.3930  1.1659
25692SOL     OW89054   0.782  11.897  13.517 -0.0871 -0.5032 -0.3555
25692SOL    HW189055   0.770  11.816  13.467  2.3431  0.1369 -2.2002
25692SOL    HW289056   0.848  11.874  13.582  0.0546 -0.2104 -0.3961
25693SOL     OW89057  11.886  12.698   4.200  0.1735 -0.4487 -0.4599
25693SOL    HW189058  11.794  12.697   4.227 -0.5209  0.9403 -2.5007
25693SOL    HW289059  11.911  12.790   4.201  0.7465 -0.5342 -2.2075
25694SOL     OW89060  13.049  11.307  10.638 -0.3870  0.2512 -1.1462
25694SOL    HW189061  13.108  11.250  10.589 -1.0233 -0.7371 -0.7890
25694SOL    HW289062  12.969  11.310  10.584  0.1279  1.9816 -1.8783
25695SOL     OW89063   4.088   3.276   7.253 -0.0219  0.0000  0.2715
25695SOL    HW189064   4.157   3.268   7.319  0.6318 -1.7146 -0.5696
25695SOL    HW289065   4.013   3.231   7.291 -0.3889  1.0261  0.7857
25696SOL     OW89066   9.272   9.853  13.247  0.3987  0.0393  0.3576
25696SOL    HW189067   9.184   9.866  13.283  0.2873 -0.8738  0.4571
25696SOL    HW289068   9.269   9.893  13.160 -1.2450 -2.9408 -1.1206
25697SOL     OW89069   9.851   5.939   7.948  0.5308  0.7508  0.8736
25697SOL    HW189070   9.898   5.889   8.014 -1.8767  0.1853  2.2803
25697SOL    HW289071   9.805   6.007   7.997 -1.6777  0.0482 -0.0767
25698SOL     OW89072   7.893   1.464   2.804  0.4090 -0.5000 -0.0954
25698SOL    HW189073   7.816   1.408   2.798  1.1042 -1.5924  0.7644
25698SOL    HW289074   7.944   1.446   2.725 -0.2025  0.2417 -0.6762
25699SOL     OW89075  13.633   3.088   1.968 -0.4200 -1.0078 -0.2290
25699SOL    HW189076  13.684   3.170   1.974 -1.4554 -0.2981 -0.8241
25699SOL    HW289077  13.557   3.111   1.916 -0.8888 -2.2972 -0.1474
25700SOL     OW89078  10.675   8.340   7.260 -0.0478 -0.3459  0.2920
25700SOL    HW189079  10.715   8.335   7.347  1.6273 -0.7737 -0.4820
25700SOL    HW289080  10.709   8.264   7.213 -0.3426  0.2981 -0.9987
25701SOL     OW89081   3.925   3.092  10.957 -0.0857 -0.4704  0.3395
25701SOL    HW189082   4.014   3.127  10.963 -0.3451  0.4526 -0.8125
25701SOL    HW289083   3.937   3.005  10.918  0.2077  0.5155 -1.9685
25702SOL     OW89084  10.620   4.482  10.203  0.2854  0.0329  0.3149
25702SOL    HW189085  10.701   4.532  10.188  0.4882 -0.1149  0.8768
25702SOL    HW289086  10.640   4.394  10.174  0.1321  0.1280 -0.0904
25703SOL     OW89087  11.580  10.331  13.211 -0.0695 -0.1597 -0.3776
25703SOL    HW189088  11.639  10.394  13.253  0.8769 -0.9625 -0.4550
25703SOL    HW289089  11.591  10.346  13.117  1.9854 -1.9778 -0.4960
25704SOL     OW89090   8.403  13.932   9.899 -0.0367 -0.1569 -0.0323
25704SOL    HW189091   8.387  13.992   9.972  0.1871 -1.1209  0.8324
25704SOL    HW289092   8.389  13.986   9.820 -0.1624  0.9331  0.7088
25705SOL     OW89093   1.846   9.799  12.660 -0.0682  0.2774 -0.1381
25705SOL    HW189094   1.877   9.884  12.629  1.0022  0.0173  0.2046
25705SOL    HW289095   1.782   9.821  12.728  0.2312  0.8095 -0.0230
25706SOL     OW89096   8.849  13.157   4.932  0.0693 -0.8533  0.4597
25706SOL    HW189097   8.819  13.219   4.998  0.5642 -0.6272  0.4776
25706SOL    HW289098   8.821  13.195   4.849 -0.3067 -0.9944  0.5236
25707SOL     OW89099   3.488  10.291  11.732  0.3088 -0.3856 -0.1058
25707SOL    HW189100   3.479  10.217  11.671  0.2149 -0.1203 -0.4167
25707SOL    HW289101   3.567  10.337  11.702  0.7945 -0.7799  0.5438
25708SOL     OW89102   0.984   1.750  12.991 -0.5672 -0.6529 -0.2677
25708SOL    HW189103   1.045   1.758  12.918  1.6976  1.7475  1.6795
25708SOL    HW289104   0.899   1.774  12.954 -0.1291 -2.4293 -2.6919
25709SOL     OW89105  11.746   3.642   9.704  0.0086  0.2964 -0.7505
25709SOL    HW189106  11.701   3.574   9.753 -0.1799  0.3039 -0.9116
25709SOL    HW289107  11.707   3.724   9.734  0.8443  0.4020  0.0829
25710SOL     OW89108   4.577   5.869   3.575 -0.0680 -0.1651 -0.1590
25710SOL    HW189109   4.483   5.884   3.564 -0.5477 -2.0707  0.8296
25710SOL    HW289110   4.617   5.917   3.503 -1.7862  0.7837 -0.5465
25711SOL     OW89111  12.322   1.664  13.229  0.0993  0.1874  0.0339
25711SOL    HW189112  12.400   1.668  13.174  0.1044 -1.1742 -0.0859
25711SOL    HW289113  12.354   1.679  13.318  0.6206 -1.0283  0.0697
25712SOL     OW89114   8.390   6.075  12.397  0.5841  0.0973 -0.0656
25712SOL    HW189115   8.481   6.045  12.404 -0.0676 -1.9038  0.6296
25712SOL    HW289116   8.369   6.111  12.483 -0.1129 -2.1974  0.8121
25713SOL     OW89117   1.439   8.996   5.636 -0.0015 -0.5029  0.9533
25713SOL    HW189118   1.448   8.906   5.606 -1.4130 -1.1400  2.3362
25713SOL    HW289119   1.465   9.049   5.560  0.2333 -2.0549 -0.0923
25714SOL     OW89120  11.454   0.975   2.100  0.1370  0.5384 -0.2869
25714SOL    HW189121  11.390   0.989   2.029 -0.8522  0.0316  0.4748
25714SOL    HW289122  11.450   0.881   2.117  1.3933  0.4354 -0.4779
25715SOL     OW89123   0.692   0.541  12.259 -0.2479 -0.0266  0.1241
25715SOL    HW189124   0.771   0.486  12.254 -0.6885 -0.5408 -2.1906
25715SOL    HW289125   0.677   0.570  12.169 -2.2429  0.7311  0.6544
25716SOL     OW89126   5.731   2.067   2.488 -0.1854  0.0576  0.1284
25716SOL    HW189127   5.767   2.066   2.399  0.5486 -1.1495  0.4136
25716SOL    HW289128   5.636   2.070   2.475 -0.0978 -0.2539 -0.7038
25717SOL     OW89129   0.336   5.183   6.607 -0.6005 -1.2452  0.3240
25717SOL    HW189130   0.358   5.148   6.521 -1.5747  0.1908 -0.5468
25717SOL    HW289131   0.241   5.186   6.609 -0.6275  1.9131  0.0131
25718SOL     OW89132  10.257  12.672  11.832  0.2111 -0.4073 -0.0457
25718SOL    HW189133  10.186  12.668  11.769 -0.3887 -1.2221  0.6565
25718SOL    HW289134  10.259  12.764  11.860  0.4566 -0.0460 -1.1888
25719SOL     OW89135   1.145   0.866   7.214 -0.3578 -0.2764  0.0810
25719SOL    HW189136   1.132   0.908   7.299  0.1720 -0.0230  0.0438
25719SOL    HW289137   1.240   0.851   7.209 -0.3348  0.0863 -0.6441
25720SOL     OW89138   8.014   0.009   4.776  0.0292  0.2443  0.3598
25720SOL    HW189139   8.009  -0.026   4.687 -1.3857 -0.5095  0.7160
25720SOL    HW289140   8.056   0.094   4.765  1.5597 -0.5949 -0.7928
25721SOL     OW89141   1.433   1.871   8.333  0.3082  0.0608  0.1010
25721SOL    HW189142   1.414   1.842   8.244  1.1899  1.2776 -0.5103
25721SOL    HW289143   1.358   1.841   8.385 -1.3307  1.2558 -1.4549
25722SOL     OW89144  12.518   9.464   3.910  0.5523  0.2957  0.1214
25722SOL    HW189145  12.590   9.422   3.863 -0.3044 -0.4317 -0.5814
25722SOL    HW289146  12.519   9.555   3.880  1.1043  0.2615  0.0292
25723SOL     OW89147   2.173   4.235  10.967 -0.0295  0.3884  0.2536
25723SOL    HW189148   2.112   4.200  11.033 -0.2702 -0.4980 -0.4194
25723SOL    HW289149   2.192   4.160  10.910  0.0517  1.1668 -0.7715
25724SOL     OW89150  10.209   5.471  11.255 -0.0887  0.3663  0.0345
25724SOL    HW189151  10.304   5.460  11.262 -0.0339  1.0138  0.4358
25724SOL    HW289152  10.182   5.405  11.192  0.7625  0.8628 -0.8868
25725SOL     OW89153   3.004   9.294   0.901 -0.0221  0.2878 -0.0862
25725SOL    HW189154   3.066   9.254   0.840  0.1587 -2.6908  1.8133
25725SOL    HW289155   2.937   9.227   0.915  0.0354  0.7254  3.0494
25726SOL     OW89156   6.265   2.645  10.732  0.3201  0.4876  0.6170
25726SOL    HW189157   6.328   2.690  10.676  0.4704 -0.7067 -0.2272
25726SOL    HW289158   6.210   2.595  10.671  1.6736 -2.3746  1.5685
25727SOL     OW89159  10.112   7.941  10.221 -0.3310 -0.0932 -0.6712
25727SOL    HW189160  10.036   7.884  10.227 -0.4956  0.1510 -0.4200
25727SOL    HW289161  10.177   7.901  10.278 -1.1354  1.0396  1.1445
25728SOL     OW89162  13.116  13.244   6.689  0.4457  0.3552 -0.5111
25728SOL    HW189163  13.137  13.224   6.598  2.3513  0.6946 -0.1901
25728SOL    HW289164  13.074  13.330   6.686 -0.1826  0.0371 -1.1183
25729SOL     OW89165   4.268  13.034  12.501 -0.2752  0.0067 -0.1078
25729SOL    HW189166   4.332  12.963  12.504 -0.9442 -0.5714  1.1695
25729SOL    HW289167   4.227  13.025  12.414  2.2953  1.2872 -1.5689
25730SOL     OW89168  11.639   0.277   8.626 -0.1182  0.4397  0.3316
25730SOL    HW189169  11.568   0.229   8.584 -1.1862  0.5160  1.9455
25730SOL    HW289170  11.631   0.255   8.719  3.3433 -1.2964  0.3729
25731SOL     OW89171   5.325   1.340   6.732  0.0695  0.1158  0.0407
25731SOL    HW189172   5.403   1.326   6.785 -0.8957 -2.3647  0.9906
25731SOL    HW289173   5.322   1.434   6.718  1.8888  0.5668  2.0703
25732SOL     OW89174   3.175   4.495  10.998 -0.8703  0.4660 -0.1395
25732SOL    HW189175   3.214   4.576  11.032 -0.9380  0.8641 -0.9729
25732SOL    HW289176   3.174   4.435  11.072  0.4077  0.7886  0.1687
25733SOL     OW89177  13.343   4.790   6.293  0.5080  0.4169  0.7723
25733SOL    HW189178  13.347   4.699   6.263 -2.3277  0.7921 -1.1350
25733SOL    HW289179  13.368   4.786   6.385  2.5493 -1.9223  0.2302
25734SOL     OW89180   0.563   9.488   2.304 -0.1270 -0.0599  0.2327
25734SOL    HW189181   0.597   9.399   2.313 -1.1731 -0.2913  2.6106
25734SOL    HW289182   0.635   9.538   2.265  1.2903 -1.4879  0.9144
25735SOL     OW89183   5.633   1.860   5.070 -0.2882 -0.0103  0.0542
25735SOL    HW189184   5.613   1.928   5.005  1.6574 -0.7907 -1.4456
25735SOL    HW289185   5.656   1.783   5.018 -1.8720 -1.7075  1.7175
25736SOL     OW89186   0.558   6.167   6.385 -0.2093 -0.1140  0.3819
25736SOL    HW189187   0.560   6.242   6.326  0.6982 -0.9395 -0.7042
25736SOL    HW289188   0.650   6.148   6.402 -0.3628 -1.7185 -0.3869
25737SOL     OW89189   4.135  13.645   2.434  0.4313 -0.0397  0.5050
25737SOL    HW189190   4.053  13.651   2.384  0.6715 -0.2003  0.0837
25737SOL    HW289191   4.127  13.564   2.484  0.7789 -0.6232 -0.3623
25738SOL     OW89192   4.857   8.959   0.170  0.4880 -0.4479  0.1523
25738SOL    HW189193   4.799   9.009   0.111  0.8393 -0.9683 -0.6535
25738SOL    HW289194   4.840   8.868   0.149 -0.0654 -0.6863  1.5436
25739SOL     OW89195   9.852   4.856   2.527 -0.0464 -0.2193 -0.1326
25739SOL    HW189196   9.923   4.808   2.570 -1.2936 -1.8323  0.2495
25739SOL    HW289197   9.785   4.789   2.511 -1.3456  1.1865 -0.7748
25740SOL     OW89198   0.924   5.911   5.709 -0.2986  0.1161  0.9706
25740SOL    HW189199   1.015   5.888   5.726 -0.2402  0.4615  1.1381
25740SOL    HW289200   0.875   5.873   5.781 -0.3242 -0.3030  0.7382
25741SOL     OW89201   7.955  11.152   0.229 -0.1717  0.5440 -0.7126
25741SOL    HW189202   7.986  11.118   0.145 -0.4983  0.7925 -0.9375
25741SOL    HW289203   7.911  11.234   0.207 -0.9013  0.2508 -0.3917
25742SOL     OW89204   7.920   1.501   1.562  0.1463 -0.1113 -0.6136
25742SOL    HW189205   7.861   1.562   1.517 -2.6254 -2.1567 -0.0238
25742SOL    HW289206   7.935   1.431   1.498 -1.1413 -1.4126  0.4428
25743SOL     OW89207   7.920  10.340   1.458  0.2330  0.4232  0.5306
25743SOL    HW189208   7.987  10.327   1.525 -0.0300 -0.9507  0.5472
25743SOL    HW289209   7.951  10.415   1.407  0.3270  1.6586  2.3038
25744SOL     OW89210  13.311  11.386   5.857 -1.0416  0.3562  0.2617
25744SOL    HW189211  13.289  11.306   5.810  2.4866 -1.3706  1.2048
25744SOL    HW289212  13.268  11.456   5.808  1.1999 -1.3704 -4.8752
25745SOL     OW89213   2.237  12.258  10.862 -0.2968 -0.1221  0.1521
25745SOL    HW189214   2.165  12.314  10.833 -0.8053  0.5010  2.4095
25745SOL    HW289215   2.315  12.301  10.829 -0.8597  0.0279 -1.0375
25746SOL     OW89216  11.967  11.533  10.765  0.2356 -0.2215  0.3122
25746SOL    HW189217  12.000  11.463  10.709 -2.1230 -1.3428  0.2238
25746SOL    HW289218  12.027  11.533  10.840  0.6483 -1.9284  0.0234
25747SOL     OW89219   2.349   1.359  14.045  0.0607 -0.0451  0.7699
25747SOL    HW189220   2.315   1.446  14.066 -0.7404 -0.5735  1.7042
25747SOL    HW289221   2.275   1.314  14.003  0.4418 -0.3132  0.3739
25748SOL     OW89222  10.283  10.520   4.039  0.2370 -0.0359  0.6684
25748SOL    HW189223  10.195  10.541   4.070  0.3943  1.4417  0.2041
25748SOL    HW289224  10.341  10.551   4.108  0.4810  1.2107 -0.0640
25749SOL     OW89225   0.836   0.468   0.428 -0.1597 -0.4582  0.0108
25749SOL    HW189226   0.860   0.454   0.337 -0.4211 -2.7980  0.2311
25749SOL    HW289227   0.915   0.503   0.469  0.7335 -1.6727 -0.6227
25750SOL     OW89228   8.185   3.551   7.620 -0.0807  0.0987  0.6241
25750SOL    HW189229   8.234   3.520   7.544 -2.1970 -1.7924 -0.0632
25750SOL    HW289230   8.193   3.647   7.615 -0.1774  0.0498 -2.0170
25751SOL     OW89231   9.225  10.724   4.105  0.1259 -0.0262 -0.1514
25751SOL    HW189232   9.227  10.799   4.165 -0.0646  0.3426 -0.6028
25751SOL    HW289233   9.234  10.647   4.162 -0.6937  0.2825  0.4131
25752SOL     OW89234   3.447   5.508   0.865 -0.1061 -0.0899  0.5333
25752SOL    HW189235   3.399   5.564   0.804 -1.5785 -0.9892  0.8270
25752SOL    HW289236   3.433   5.419   0.833  1.1705 -0.4057  0.7935
25753SOL     OW89237   8.753   0.603   1.988 -1.1979  0.3029  0.0421
25753SOL    HW189238   8.723   0.513   1.973  1.0215 -0.5365  0.2633
25753SOL    HW289239   8.773   0.606   2.081 -2.2262  1.3860  0.2508
25754SOL     OW89240  11.753   1.949   1.225 -0.6337  0.6284  0.1085
25754SOL    HW189241  11.810   1.961   1.150  1.1124 -1.2374  1.0498
25754SOL    HW289242  11.666   1.933   1.188  0.3826 -1.3123 -1.5571
25755SOL     OW89243   1.161  13.461   1.923  0.1362 -0.3128 -0.6833
25755SOL    HW189244   1.205  13.439   1.840  0.0821  0.3019 -0.8809
25755SOL    HW289245   1.202  13.543   1.950  1.0434 -1.1355  0.5499
25756SOL     OW89246  10.121   5.976   7.368  0.1692  0.1871  0.1462
25756SOL    HW189247  10.096   6.039   7.301  0.2321 -1.0742 -1.1291
25756SOL    HW289248  10.039   5.931   7.390  0.6834 -1.9794 -1.9281
25757SOL     OW89249  12.889   8.031   4.847  0.3279  0.0687  0.1660
25757SOL    HW189250  12.926   8.101   4.901  0.7218  0.8768 -1.1248
25757SOL    HW289251  12.812   8.002   4.896 -2.1003  3.9404 -0.9352
25758SOL     OW89252   9.457   5.323   2.282 -0.3300 -0.6860 -0.3220
25758SOL    HW189253   9.452   5.413   2.250 -0.2551 -0.3840  0.4859
25758SOL    HW289254   9.483   5.272   2.205  0.8024  0.1448 -0.5269
25759SOL     OW89255   7.887  10.321   4.602 -0.4791  0.3445  0.4095
25759SOL    HW189256   7.901  10.367   4.685  0.9881 -0.5164  0.6808
25759SOL    HW289257   7.796  10.291   4.606 -0.7160  1.1388  1.2729
25760SOL     OW89258   8.586   0.694   0.388  0.1024  0.2193  0.5876
25760SOL    HW189259   8.534   0.661   0.314  0.7021 -2.2672  1.1680
25760SOL    HW289260   8.670   0.649   0.379  0.7400  1.0982  1.9072
25761SOL     OW89261  11.220   8.192   7.509 -0.5048 -0.1653 -0.5794
25761SOL    HW189262  11.186   8.103   7.501 -2.9308  0.5776  0.5847
25761SOL    HW289263  11.316   8.182   7.509 -0.7050 -2.6344 -1.4455
25762SOL     OW89264   0.113   9.902  12.076 -0.3201 -0.1013 -0.2899
25762SOL    HW189265   0.192   9.928  12.124 -0.3458 -0.5634  0.0178
25762SOL    HW289266   0.122   9.807  12.067  0.0433  0.0591 -1.8780
25763SOL     OW89267   6.943  11.458   2.183 -0.3628  0.1788  0.2811
25763SOL    HW189268   6.944  11.545   2.144 -0.3206  0.2703  0.4858
25763SOL    HW289269   6.923  11.473   2.275 -2.1761 -0.1689 -0.0256
25764SOL     OW89270   0.262  13.575   5.797  0.4338  0.1929  0.1922
25764SOL    HW189271   0.307  13.602   5.716  0.1557 -1.2053 -0.4560
25764SOL    HW289272   0.169  13.578   5.774  0.3487 -0.1390  0.4875
25765SOL     OW89273  13.061  11.616   1.212 -0.2904  0.7701 -0.7485
25765SOL    HW189274  13.123  11.565   1.265 -0.0767  1.4999 -0.2733
25765SOL    HW289275  13.025  11.680   1.273 -0.6838  1.0753 -1.2926
25766SOL     OW89276   3.609  13.753  11.934 -0.1408 -0.5407  0.2593
25766SOL    HW189277   3.667  13.772  11.860  2.8457 -0.2024  2.4858
25766SOL    HW289278   3.545  13.824  11.934  0.7396  0.2894 -1.0842
25767SOL     OW89279   0.091   2.971   2.374 -0.2967 -0.0323 -0.0326
25767SOL    HW189280   0.168   3.017   2.341  0.1701 -1.1929 -0.5886
25767SOL    HW289281   0.125   2.894   2.419 -1.0261  0.5615  1.6505
25768SOL     OW89282   5.422  12.073  10.728 -0.3108  0.0865 -0.1451
25768SOL    HW189283   5.380  11.989  10.709  1.1124 -0.7025  0.0192
25768SOL    HW289284   5.391  12.132  10.659 -0.0621 -1.0342 -1.2632
25769SOL     OW89285   6.835   6.243  13.513  0.0883 -0.1186 -0.7320
25769SOL    HW189286   6.853   6.152  13.490  1.6445  0.1040 -0.4609
25769SOL    HW289287   6.750   6.240  13.558 -0.0604 -1.3707 -1.0615
25770SOL     OW89288  13.482   4.683  10.152 -0.0852 -1.1478 -0.3398
25770SOL    HW189289  13.418   4.669  10.082  0.0897 -0.1476 -0.7150
25770SOL    HW289290  13.556   4.628  10.128  0.7723  0.6097 -2.0198
25771SOL     OW89291   0.495   4.437  12.215  0.1992 -0.3229  1.0707
25771SOL    HW189292   0.461   4.349  12.228  1.4097 -0.9028  0.5377
25771SOL    HW289293   0.567   4.445  12.278 -0.4264  0.6103  1.7014
25772SOL     OW89294   8.125   4.843   5.200  0.7055  0.3006 -0.1950
25772SOL    HW189295   8.168   4.850   5.115  1.3484 -0.2779  0.0693
25772SOL    HW289296   8.180   4.782   5.250  1.2496  1.8630  1.1966
25773SOL     OW89297  10.436   0.767   0.815  0.5712 -0.0715  0.2587
25773SOL    HW189298  10.421   0.860   0.835  0.7462 -0.0284  0.1897
25773SOL    HW289299  10.531   0.760   0.806  0.5552 -0.2528  0.2381
25774SOL     OW89300   9.189   4.457   8.394 -0.2017  0.2399  1.2279
25774SOL    HW189301   9.113   4.418   8.351  1.8809  0.5380 -3.2462
25774SOL    HW289302   9.245   4.384   8.416 -1.4926  0.0332  4.4171
25775SOL     OW89303   6.101   8.959   5.104 -0.9701  0.0550 -0.7604
25775SOL    HW189304   6.119   8.902   5.179 -0.8857  0.7689 -0.2326
25775SOL    HW289305   6.183   9.006   5.089 -0.7325 -0.6393 -1.8082
25776SOL     OW89306  10.651  13.027   5.796  0.2498 -0.0267  0.1925
25776SOL    HW189307  10.618  12.972   5.725 -0.1722  0.5427 -0.0619
25776SOL    HW289308  10.729  13.068   5.760 -0.7209  1.3353 -0.4618
25777SOL     OW89309   9.784   4.230   8.388 -0.5975  0.2401  1.0481
25777SOL    HW189310   9.821   4.236   8.476  2.6194  1.5897 -0.2304
25777SOL    HW289311   9.784   4.321   8.356 -0.3852 -0.3728 -0.8022
25778SOL     OW89312  13.613   4.170  10.018 -0.3895  0.6994 -0.1924
25778SOL    HW189313  13.600   4.079  10.044 -1.4637  0.5980 -1.0293
25778SOL    HW289314  13.671   4.206  10.086  0.8984 -0.8600 -0.4186
25779SOL     OW89315   7.608   0.535   8.202 -0.5011  0.3993 -0.4618
25779SOL    HW189316   7.645   0.456   8.164  0.1635  0.1384  0.6668
25779SOL    HW289317   7.672   0.562   8.268 -0.3415  2.3250 -1.3385
25780SOL     OW89318   7.438   4.555   7.864 -0.7854  0.2699  0.7297
25780SOL    HW189319   7.453   4.649   7.859 -0.9189  0.2364 -0.7846
25780SOL    HW289320   7.357   4.541   7.816 -0.6359 -0.6481  0.7267
25781SOL     OW89321   9.175   1.932   5.199  0.2475 -0.4627 -0.3169
25781SOL    HW189322   9.080   1.916   5.205  0.0970  0.5951  0.2884
25781SOL    HW289323   9.201   1.886   5.119 -0.3174 -2.8617  0.7578
25782SOL     OW89324   8.767  11.804   8.769  0.3226 -0.6897  0.2980
25782SOL    HW189325   8.773  11.899   8.767  0.5283 -0.6842  0.9627
25782SOL    HW289326   8.856  11.774   8.787 -0.2694 -0.8592  3.4472
25783SOL     OW89327   4.407   9.867   2.257  0.5996  0.1395  0.4165
25783SOL    HW189328   4.374   9.929   2.322  1.1995  0.0315  0.8225
25783SOL    HW289329   4.348   9.879   2.182  1.2646  1.8794  0.1143
25784SOL     OW89330   2.898   8.353   0.139  0.2382 -0.1093  0.6757
25784SOL    HW189331   2.817   8.352   0.190 -0.1029 -1.7657  0.1672
25784SOL    HW289332   2.966   8.327   0.202  0.0724 -0.5568  0.6731
25785SOL     OW89333   0.952   2.558  10.141  0.1297 -0.0601 -0.2510
25785SOL    HW189334   0.910   2.514  10.067 -0.8500  1.2318 -0.5031
25785SOL    HW289335   1.022   2.610  10.102  0.0018  0.1538 -0.1952
25786SOL     OW89336   5.975   5.787  11.858  0.2698  0.1398 -0.4694
25786SOL    HW189337   5.896   5.817  11.814  0.9437 -0.5706 -2.2584
25786SOL    HW289338   5.951   5.701  11.893  0.1173  0.1089 -0.6462
25787SOL     OW89339   1.193   1.452  12.173 -0.3433  0.2682  0.5748
25787SOL    HW189340   1.141   1.413  12.103 -0.5546 -0.6536  1.2301
25787SOL    HW289341   1.173   1.546  12.167  0.0395  0.2859 -0.9119
25788SOL     OW89342   6.970   2.753   6.334  0.5888 -0.3597 -0.4335
25788SOL    HW189343   7.062   2.766   6.312  0.6375 -0.0525 -0.0525
25788SOL    HW289344   6.962   2.784   6.424  0.1470 -0.5376 -0.4099
25789SOL     OW89345  11.586  11.074   9.669  0.6628  0.0324 -0.5894
25789SOL    HW189346  11.602  11.167   9.650 -1.4214  0.4056 -0.6738
25789SOL    HW289347  11.665  11.046   9.716  0.7638  2.2017  0.6465
25790SOL     OW89348   1.841  12.379   2.774 -0.0605 -0.3086  0.4372
25790SOL    HW189349   1.899  12.407   2.703  0.5204  1.4911  1.5625
25790SOL    HW289350   1.891  12.397   2.854 -1.6283 -0.0064  1.3868
25791SOL     OW89351   6.909   5.876   8.096  0.2042 -0.1208  0.0328
25791SOL    HW189352   7.003   5.871   8.078  0.2250  0.0396  0.1037
25791SOL    HW289353   6.902   5.929   8.175  0.3019 -2.9663  2.1178
25792SOL     OW89354   8.992   6.205  12.346 -0.2590  0.1660  0.1280
25792SOL    HW189355   8.993   6.127  12.291  0.2824  0.9277 -0.9710
25792SOL    HW289356   9.079   6.208  12.386 -0.8655 -0.7483  1.5911
25793SOL     OW89357  12.418   3.534  12.500 -0.0327  0.1843  0.0786
25793SOL    HW189358  12.373   3.517  12.418  2.1514 -0.8176 -0.9794
25793SOL    HW289359  12.426   3.448  12.542  1.4634  0.2315 -0.0813
25794SOL     OW89360   4.614   0.093   6.787  0.7150 -0.5966 -0.1841
25794SOL    HW189361   4.647   0.123   6.872 -0.6979 -0.7040  0.4253
25794SOL    HW289362   4.647   0.004   6.778 -1.7028 -1.8239  1.7957
25795SOL     OW89363   5.611   9.611  11.412 -0.3137  0.5569 -0.4780
25795SOL    HW189364   5.614   9.705  11.400 -1.4353  0.4473 -2.0157
25795SOL    HW289365   5.675   9.592  11.481 -1.8972  2.7100  1.7605
25796SOL     OW89366   1.968  10.462   6.526  0.5216 -0.1590 -0.2386
25796SOL    HW189367   1.882  10.498   6.505  0.3100  0.6618  1.7851
25796SOL    HW289368   2.019  10.472   6.446 -1.0811 -0.1506 -1.3085
25797SOL     OW89369   6.528   2.160  13.409 -0.2108  0.2409  0.4020
25797SOL    HW189370   6.531   2.252  13.436  2.5173  0.4943 -0.3745
25797SOL    HW289371   6.557   2.111  13.486 -1.5759  0.0054  0.7863
25798SOL     OW89372   8.641   9.484  12.081  0.5152  0.1127 -0.3175
25798SOL    HW189373   8.632   9.553  12.015 -0.2089 -1.4782 -1.9713
25798SOL    HW289374   8.661   9.405  12.031  0.4375 -1.0748  1.4254
25799SOL     OW89375   6.629   6.020   9.368  0.2111  0.5383 -0.2057
25799SOL    HW189376   6.552   5.997   9.316 -1.3874  1.8011  1.4294
25799SOL    HW289377   6.689   6.060   9.305 -1.4970  1.7247 -1.1914
25800SOL     OW89378   0.903   7.578   8.497  1.0349 -0.0479  0.6734
25800SOL    HW189379   0.887   7.540   8.583 -0.3419 -2.5266 -0.5347
25800SOL    HW289380   0.907   7.672   8.512 -0.9155 -0.2460  3.2118
25801SOL     OW89381  10.005   3.492   0.423 -0.3743  0.0712 -0.7582
25801SOL    HW189382  10.084   3.504   0.477 -0.3523  1.2313 -1.0215
25801SOL    HW289383  10.036   3.447   0.345 -0.5799 -2.5671  0.5868
25802SOL     OW89384  11.756   9.173   6.674  0.1551 -0.5896 -0.2372
25802SOL    HW189385  11.694   9.240   6.702  1.3533  0.4783 -0.0360
25802SOL    HW289386  11.754   9.107   6.743  2.1756  1.4181  1.9197
25803SOL     OW89387   0.825   4.587  13.127  0.7893  0.4404  0.0512
25803SOL    HW189388   0.769   4.533  13.183  1.9031 -0.7343  0.1022
25803SOL    HW289389   0.800   4.563  13.038 -0.4326  1.7219  0.0173
25804SOL     OW89390   4.819   4.457   3.049 -0.0244  0.3595  0.6789
25804SOL    HW189391   4.885   4.405   3.003 -0.7837 -0.8428  0.8978
25804SOL    HW289392   4.832   4.546   3.016  1.8900  0.2337  0.9357
25805SOL     OW89393   5.412   8.666   8.382 -0.1103  0.1507  0.5498
25805SOL    HW189394   5.468   8.605   8.430 -0.6023  0.0440  0.9953
25805SOL    HW289395   5.354   8.703   8.449  0.7137  1.7295  0.4450
25806SOL     OW89396   4.344   8.536  10.241 -0.5453 -0.6158  0.1184
25806SOL    HW189397   4.344   8.456  10.189 -1.4568 -0.7744  0.3369
25806SOL    HW289398   4.396   8.515  10.319 -2.5844 -1.7570  1.2594
25807SOL     OW89399   0.925   7.774   6.808 -0.1013  0.1112 -0.0321
25807SOL    HW189400   0.996   7.747   6.865  1.3718  1.0297 -1.3576
25807SOL    HW289401   0.865   7.700   6.807  1.1770 -0.9635  0.5610
25808SOL     OW89402  12.397   7.267  11.510  0.7858 -0.5804  0.2110
25808SOL    HW189403  12.386   7.181  11.469  1.4592 -1.0620  1.0122
25808SOL    HW289404  12.443   7.249  11.592  0.7646  0.5289  0.4850
25809SOL     OW89405   5.739   9.698   4.911 -0.9817 -0.5242 -0.9240
25809SOL    HW189406   5.700   9.649   4.838 -1.7309 -1.0196 -0.2134
25809SOL    HW289407   5.784   9.632   4.963 -1.0542 -0.2837 -0.5541
25810SOL     OW89408  13.766   4.250  12.818 -0.5329  0.3341 -0.0761
25810SOL    HW189409  13.733   4.267  12.730 -1.1201 -1.1191 -0.1625
25810SOL    HW289410  13.694   4.278  12.876  0.0512  1.7792  0.0093
25811SOL     OW89411  11.535   0.055   0.437 -0.1226 -0.4885  0.4396
25811SOL    HW189412  11.626   0.074   0.415 -0.6881  1.5268 -0.4151
25811SOL    HW289413  11.523   0.092   0.524 -0.6349  1.1779 -0.3041
25812SOL     OW89414  10.896  12.805  11.470 -0.1542  0.0584 -1.0595
25812SOL    HW189415  10.858  12.804  11.383 -3.3618 -0.8614  0.2067
25812SOL    HW289416  10.911  12.713  11.491 -0.1188  0.2149 -0.3723
25813SOL     OW89417  12.040  12.428   4.677 -0.2203  0.6389 -0.0718
25813SOL    HW189418  11.967  12.427   4.738  0.3169  0.7317  0.5877
25813SOL    HW289419  12.018  12.363   4.611  0.4490 -1.5495  1.7351
25814SOL     OW89420   8.239   2.039   1.612  0.3217  0.1512  0.1642
25814SOL    HW189421   8.215   2.059   1.703 -0.7479 -2.0656  0.4564
25814SOL    HW289422   8.184   1.964   1.589  0.1154  1.0384 -2.5619
25815SOL     OW89423   0.723  11.782  11.035 -0.0377 -0.3483  0.0083
25815SOL    HW189424   0.816  11.799  11.020 -0.1063 -1.7463 -2.4594
25815SOL    HW289425   0.721  11.698  11.081 -0.0822  0.2490  1.1339
25816SOL     OW89426  13.438  11.227   5.511  0.3569  0.3418 -0.0828
25816SOL    HW189427  13.434  11.132   5.504  2.1634  0.1899  0.5430
25816SOL    HW289428  13.460  11.257   5.423 -0.5903  0.2363 -0.3703
25817SOL     OW89429   8.439   3.245   5.645 -0.0889 -0.9886 -0.0624
25817SOL    HW189430   8.405   3.333   5.660 -0.9471 -1.5618  1.7410
25817SOL    HW289431   8.530   3.249   5.674  0.4599 -0.2755 -1.7512
25818SOL     OW89432   5.429   8.343  11.730  0.1408 -0.4611  0.0831
25818SOL    HW189433   5.354   8.292  11.760 -0.9142 -0.1348 -1.8683
25818SOL    HW289434   5.439   8.320  11.637  2.3869 -0.3903  0.2367
25819SOL     OW89435  11.406   5.654   6.037  0.2846  0.1789 -0.5055
25819SOL    HW189436  11.381   5.667   5.945  0.3127 -2.0703 -0.9024
25819SOL    HW289437  11.356   5.576   6.064 -2.3594  2.6351  2.4761
25820SOL     OW89438   8.683   8.246   3.008 -0.3749 -0.4953 -0.1524
25820SOL    HW189439   8.588   8.235   3.020 -0.6127  0.2228 -1.2476
25820SOL    HW289440   8.702   8.204   2.924  0.0884  0.2453 -0.4340
25821SOL     OW89441   0.875   7.837   2.622 -0.0860  0.3380  0.1182
25821SOL    HW189442   0.838   7.922   2.595  0.6695  1.5531  2.6121
25821SOL    HW289443   0.968   7.856   2.640  0.5439 -1.4589 -0.9610
25822SOL     OW89444   5.852   8.373   8.969  0.2321 -0.0562  0.5327
25822SOL    HW189445   5.845   8.455   8.919  0.4028 -1.0928 -1.2794
25822SOL    HW289446   5.773   8.371   9.023 -0.4299  0.6919 -0.3737
25823SOL     OW89447   2.336  13.668   5.408 -0.1845  0.1632  0.3884
25823SOL    HW189448   2.367  13.585   5.444  0.2937  0.3465  0.3980
25823SOL    HW289449   2.412  13.725   5.409 -0.2605  0.2966 -0.5495
25824SOL     OW89450   1.256  12.530   7.275 -0.1477  0.3806 -0.1078
25824SOL    HW189451   1.229  12.508   7.363  0.5554 -4.4301 -0.8209
25824SOL    HW289452   1.175  12.545   7.227 -0.9173 -1.9689  0.3587
25825SOL     OW89453   8.186  14.034   0.024 -0.6702  0.2136  0.2761
25825SOL    HW189454   8.127  14.051  -0.050 -0.4868 -1.8286 -0.4052
25825SOL    HW289455   8.252  13.975  -0.012  0.7378  0.9693  1.5235
25826SOL     OW89456   0.251  11.226   6.288  0.0694  0.6963  0.5421
25826SOL    HW189457   0.166  11.229   6.333 -0.4930  1.2291 -0.5111
25826SOL    HW289458   0.236  11.272   6.205  1.0198 -0.3870 -0.2733
25827SOL     OW89459  10.502   4.752   9.290 -0.1251 -0.9134 -0.8553
25827SOL    HW189460  10.438   4.815   9.257  0.0534 -1.3136 -2.0176
25827SOL    HW289461  10.452   4.699   9.352  0.5274  2.5847  3.1421
25828SOL     OW89462   0.825   3.857   4.633  0.0953  0.5624 -0.2525
25828SOL    HW189463   0.802   3.883   4.544 -1.4209 -0.4742 -0.2017
25828SOL    HW289464   0.914   3.822   4.625  0.2558  1.1578 -1.2109
25829SOL     OW89465   8.896  13.788   0.803  0.0778 -0.5134 -0.6174
25829SOL    HW189466   8.811  13.757   0.835 -0.8057  2.0858 -0.1297
25829SOL    HW289467   8.883  13.800   0.709  0.2423 -1.0854 -0.7140
25830SOL     OW89468  10.224   5.767   3.129 -0.9458 -0.1411 -0.3341
25830SOL    HW189469  10.304   5.781   3.078 -0.0036 -3.2994  0.0413
25830SOL    HW289470  10.235   5.822   3.207 -0.4473  1.5056 -1.5028
25831SOL     OW89471  13.862   2.680  12.827  0.0904  0.2887 -0.0477
25831SOL    HW189472  13.881   2.610  12.889  1.9430  0.4502 -0.3856
25831SOL    HW289473  13.919   2.663  12.752 -0.4248  1.3888 -0.7284
25832SOL     OW89474   0.893   4.580   5.266 -0.0837  0.7899 -0.1301
25832SOL    HW189475   0.825   4.513   5.274 -0.3395  1.1014  0.3342
25832SOL    HW289476   0.953   4.546   5.199  0.8898 -0.8939  1.4870
25833SOL     OW89477  13.607   4.375   0.940 -0.4256 -0.6242 -0.1540
25833SOL    HW189478  13.635   4.453   0.988  0.5115 -0.7289 -0.5063
25833SOL    HW289479  13.670   4.367   0.869 -1.2271 -1.0189 -0.8441
25834SOL     OW89480   2.986  11.933   6.695  0.1535  0.1233 -0.6814
25834SOL    HW189481   2.893  11.943   6.680 -0.0125 -1.4837 -0.8676
25834SOL    HW289482   3.014  12.018   6.730 -1.8111 -0.0902  1.6083
25835SOL     OW89483   8.364  13.769   3.177 -0.5942 -0.7980 -0.2252
25835SOL    HW189484   8.279  13.725   3.187 -0.0273 -1.9983 -0.5564
25835SOL    HW289485   8.349  13.857   3.212 -1.8202 -1.1731  0.2634
25836SOL     OW89486   1.921   2.792   7.272 -0.4753 -0.6816  0.0515
25836SOL    HW189487   1.845   2.734   7.273 -0.2253 -1.1448  3.0260
25836SOL    HW289488   1.891   2.871   7.317  0.7123 -0.7997  1.1186
25837SOL     OW89489  13.195   5.502   2.784 -0.2676 -0.1410  0.3714
25837SOL    HW189490  13.233   5.465   2.704 -0.4069 -0.8066  0.6013
25837SOL    HW289491  13.270   5.526   2.837 -0.1469  1.8095 -0.6018
25838SOL     OW89492   0.789   6.059   4.759  0.1494  0.4061  0.3713
25838SOL    HW189493   0.848   6.127   4.727 -1.3644  0.7515 -1.9393
25838SOL    HW289494   0.718   6.107   4.801  0.2248  0.1134  0.8453
25839SOL     OW89495  10.919   4.858  10.622  0.6649  0.0886  0.3479
25839SOL    HW189496  10.918   4.764  10.641 -0.8237 -0.0305 -0.1575
25839SOL    HW289497  10.954   4.898  10.701 -0.8732 -0.7349  1.5128
25840SOL     OW89498   7.660  12.852   1.893  0.0218  0.9115 -0.5081
25840SOL    HW189499   7.684  12.930   1.944 -1.4635  1.6267 -0.8405
25840SOL    HW289500   7.678  12.877   1.802  0.7236  0.3832 -0.5265
25841SOL     OW89501   9.971   1.165   9.937 -0.2693 -0.1336 -0.1263
25841SOL    HW189502   9.939   1.141  10.024 -0.4889  0.8445  0.0711
25841SOL    HW289503  10.066   1.150   9.941 -0.3340 -0.4864  0.1381
25842SOL     OW89504  13.149   0.299  12.393 -0.1204 -0.1562 -0.0183
25842SOL    HW189505  13.195   0.315  12.311 -0.2445  1.1795  0.1400
25842SOL    HW289506  13.203   0.342  12.459 -0.4931 -0.4353  0.4733
25843SOL     OW89507   6.196  12.723   0.581  0.0191  0.6611 -0.6008
25843SOL    HW189508   6.285  12.718   0.616  0.1401 -1.0270 -1.0497
25843SOL    HW289509   6.208  12.728   0.486 -0.3502 -1.1462 -0.7718
25844SOL     OW89510   0.354   8.153   3.761 -0.2783 -1.0250  0.1106
25844SOL    HW189511   0.448   8.144   3.773 -0.2161  0.7595  1.4651
25844SOL    HW289512   0.341   8.151   3.667  0.8644 -3.0524 -0.0561
25845SOL     OW89513   6.017   1.023   9.661  0.6714  0.3081 -0.0590
25845SOL    HW189514   6.027   0.939   9.705  0.0048  1.2479  2.0325
25845SOL    HW289515   5.949   1.007   9.595 -0.9123 -0.3572  1.6555
25846SOL     OW89516   8.756  12.432  13.037 -0.0096  0.0019 -0.1313
25846SOL    HW189517   8.843  12.406  13.066  0.2913  1.4774  0.3302
25846SOL    HW289518   8.705  12.440  13.118 -1.2474 -2.9558 -0.4830
25847SOL     OW89519  13.736   7.760   0.728  0.5807 -0.2776  0.0041
25847SOL    HW189520  13.768   7.833   0.674 -2.6862  0.2240 -1.5149
25847SOL    HW289521  13.710   7.801   0.811 -1.3967  0.4400 -0.9012
25848SOL     OW89522   9.931   2.129  13.049 -0.4517 -0.1840 -0.0148
25848SOL    HW189523   9.964   2.185  12.980 -0.6567  0.1869  0.1832
25848SOL    HW289524   9.843   2.163  13.068  0.1106  0.5885  1.3618
25849SOL     OW89525   3.299   6.825  12.615  0.2996 -0.0252  0.5278
25849SOL    HW189526   3.318   6.801  12.524  0.6095 -0.4091  0.6968
25849SOL    HW289527   3.348   6.907  12.628  0.5805 -0.1840  0.4767
25850SOL     OW89528   4.053  10.098   8.643 -0.2498  0.1467 -0.2075
25850SOL    HW189529   3.980  10.131   8.696 -0.5124  0.8001 -0.9611
25850SOL    HW289530   4.019  10.097   8.554  0.2811 -0.6812 -0.4114
25851SOL     OW89531   5.611   3.915  13.378  0.1361 -0.1608  0.2249
25851SOL    HW189532   5.601   3.926  13.283 -0.0769  1.5036  0.4058
25851SOL    HW289533   5.639   3.824  13.389 -0.3895 -0.5544 -1.3887
25852SOL     OW89534   0.312   5.578  13.203 -0.4820  0.0340 -0.6249
25852SOL    HW189535   0.266   5.661  13.204  0.0394  0.3305  0.7002
25852SOL    HW289536   0.404   5.600  13.218  0.0198 -0.6236 -2.3396
25853SOL     OW89537   9.774  11.310   7.220  0.6449  0.3702 -0.7413
25853SOL    HW189538   9.681  11.307   7.200  0.5460  0.9106 -0.3817
25853SOL    HW289539   9.804  11.220   7.208 -0.1082  0.0067  0.0447
25854SOL     OW89540   7.991   9.006   6.195 -0.2177 -0.0764  0.7022
25854SOL    HW189541   7.982   8.952   6.117  0.1418 -0.5904  1.0108
25854SOL    HW289542   7.939   9.084   6.176 -0.8202 -0.5626  0.2823
25855SOL     OW89543   8.932  13.960   3.447 -0.1411  0.3397 -0.3142
25855SOL    HW189544   9.017  13.968   3.492 -1.1517 -0.7126  1.9604
25855SOL    HW289545   8.885  14.039   3.470 -0.1862  0.4235 -0.6845
25856SOL     OW89546   8.988   0.593   1.080 -0.1875  0.4675  0.1083
25856SOL    HW189547   9.001   0.646   1.159 -0.5806 -0.1598  0.6121
25856SOL    HW289548   8.927   0.525   1.108  2.8616 -2.3463  0.4704
25857SOL     OW89549   2.280   5.138  10.988 -0.1267  0.7406  0.3007
25857SOL    HW189550   2.341   5.204  11.023  0.9927  0.8740 -1.7458
25857SOL    HW289551   2.332   5.089  10.925 -1.9849  0.4560 -1.0902
25858SOL     OW89552   2.279   1.849   9.575 -0.0334 -0.7061 -0.1456
25858SOL    HW189553   2.353   1.908   9.586  1.2790 -2.5173  1.3558
25858SOL    HW289554   2.235   1.849   9.660 -0.1185 -1.7352 -0.1801
25859SOL     OW89555   7.398   9.388   8.202 -0.6060  0.1432  0.0033
25859SOL    HW189556   7.412   9.338   8.122 -0.4203  1.1177 -0.5870
25859SOL    HW289557   7.482   9.430   8.220 -0.3405 -0.8656  1.2963
25860SOL     OW89558   9.615   2.708   2.228 -0.5752 -0.0200 -0.0308
25860SOL    HW189559   9.570   2.786   2.194  0.2312  0.1244 -0.8284
25860SOL    HW289560   9.556   2.672   2.293 -0.5199  1.8432  1.1160
25861SOL     OW89561  11.620   1.812   9.798 -0.1879 -0.4764 -0.1370
25861SOL    HW189562  11.585   1.752   9.732  0.6663 -0.7155 -0.3861
25861SOL    HW289563  11.566   1.891   9.790 -0.7571 -0.8880 -0.4081
25862SOL     OW89564   2.775   4.743   3.353  0.7304  0.2903  0.5120
25862SOL    HW189565   2.837   4.808   3.384  1.1838 -0.1155  0.4638
25862SOL    HW289566   2.824   4.691   3.289  0.0446  0.6094 -0.2999
25863SOL     OW89567   1.339   2.076  12.500  0.2546 -0.4201  0.7821
25863SOL    HW189568   1.350   2.006  12.564  0.8756 -1.8817 -0.8220
25863SOL    HW289569   1.247   2.100  12.507 -0.3012 -2.2944  0.5508
25864SOL     OW89570   3.633   2.101   0.905  0.1943 -0.4768  0.0939
25864SOL    HW189571   3.601   2.113   0.995  0.0772  2.5103 -0.2461
25864SOL    HW289572   3.706   2.040   0.914 -0.0367 -0.5357  2.1565
25865SOL     OW89573  13.656   4.786   5.252 -0.1780 -0.2383  0.1579
25865SOL    HW189574  13.632   4.874   5.282  0.3521  0.7484 -2.0944
25865SOL    HW289575  13.576   4.752   5.212  0.0072 -0.1372 -0.3147
25866SOL     OW89576   4.001   9.975   6.939 -0.2366 -0.0434 -0.3696
25866SOL    HW189577   4.042  10.016   7.015 -1.6348  1.1804 -0.2264
25866SOL    HW289578   3.961  10.047   6.890 -1.8143 -1.0773 -0.7131
25867SOL     OW89579  11.302   9.304  10.347 -0.2422  0.8711  0.1798
25867SOL    HW189580  11.226   9.249  10.328  0.8171 -0.7228  0.2943
25867SOL    HW289581  11.376   9.256  10.309  1.2156  0.3504  3.3669
25868SOL     OW89582   8.444   4.941  11.226  0.0380  0.2985  0.1315
25868SOL    HW189583   8.405   4.874  11.282  0.6503 -0.6160 -0.5064
25868SOL    HW289584   8.486   5.002  11.287  0.1834 -0.3502  0.6915
25869SOL     OW89585  12.283   8.890  13.253  0.3320  0.3581 -0.3748
25869SOL    HW189586  12.266   8.797  13.238 -0.8521  0.2008  1.6135
25869SOL    HW289587  12.215   8.936  13.204 -1.2074  0.0002  1.3108
25870SOL     OW89588   0.002   6.894   7.641 -0.0733 -0.3070 -0.4526
25870SOL    HW189589  -0.059   6.863   7.574 -0.0263 -1.9623  0.2179
25870SOL    HW289590   0.050   6.815   7.668  2.6347  0.9775 -1.1855
25871SOL     OW89591  11.420   7.406   5.689  0.0129  0.1820  0.7105
25871SOL    HW189592  11.509   7.379   5.712  0.0309 -1.1037 -0.7223
25871SOL    HW289593  11.365   7.332   5.715  0.1515 -1.9904 -4.0008
25872SOL     OW89594   1.820   7.147   1.373  0.2098  0.0282 -0.6726
25872SOL    HW189595   1.824   7.223   1.314 -0.1268  0.0603 -0.6587
25872SOL    HW289596   1.748   7.094   1.337 -1.2128  0.9223  0.7358
25873SOL     OW89597  13.035   9.370   6.089 -0.5125 -0.0012 -0.2738
25873SOL    HW189598  13.068   9.429   6.156 -1.3340  1.9719 -1.5337
25873SOL    HW289599  13.056   9.413   6.006 -0.0469 -2.0824 -1.3003
25874SOL     OW89600   5.237   5.838   2.122 -0.3396 -0.1789  0.7073
25874SOL    HW189601   5.275   5.751   2.108  0.4635  0.1455  0.8286
25874SOL    HW289602   5.230   5.846   2.217  0.6911  0.3454  0.7500
25875SOL     OW89603   4.597   0.167   7.647 -0.0364 -0.3192 -0.5696
25875SOL    HW189604   4.646   0.185   7.566 -1.1431 -0.6182 -1.3247
25875SOL    HW289605   4.528   0.233   7.648 -0.9606 -1.2582 -0.6683
25876SOL     OW89606   3.640   5.032   2.279  0.6262 -0.6128 -0.5170
25876SOL    HW189607   3.627   4.938   2.282 -2.9364 -0.2090  0.8368
25876SOL    HW289608   3.615   5.064   2.366  2.0787  1.5802 -0.8106
25877SOL     OW89609   4.365   1.348   3.441  0.0515  0.7479  0.0496
25877SOL    HW189610   4.376   1.307   3.355 -0.7174 -1.0136  0.7436
25877SOL    HW289611   4.340   1.438   3.421 -0.7362  0.2123 -1.5815
25878SOL     OW89612  12.712  13.504  10.170  0.1080  0.3625 -0.1742
25878SOL    HW189613  12.734  13.515  10.262  0.5255  0.0542 -0.2319
25878SOL    HW289614  12.672  13.417  10.165 -1.0528  0.8732 -0.0890
25879SOL     OW89615  10.555   3.088   7.410 -0.3085  0.2379 -0.4065
25879SOL    HW189616  10.630   3.031   7.426  1.1868  2.5204  1.3395
25879SOL    HW289617  10.543   3.085   7.315  0.0679 -2.4243 -0.4375
25880SOL     OW89618   1.034  13.726   7.917 -0.8657 -0.5159 -0.3639
25880SOL    HW189619   1.040  13.734   7.822 -1.0555 -1.1902 -0.4372
25880SOL    HW289620   1.037  13.816   7.949  1.2373 -0.3464 -0.8806
25881SOL     OW89621   5.590  13.249   4.165  0.3819 -0.3537  0.0950
25881SOL    HW189622   5.577  13.224   4.257 -0.7010  1.5600  0.5248
25881SOL    HW289623   5.520  13.205   4.118  1.5213 -2.1505 -0.0392
25882SOL     OW89624   0.818   1.246  13.936 -0.5095  0.0804 -0.2970
25882SOL    HW189625   0.745   1.202  13.891 -0.9276  1.1412 -0.6843
25882SOL    HW289626   0.871   1.283  13.866 -0.0344 -0.0035  0.0172
25883SOL     OW89627   1.076   9.545  11.618  0.0853 -0.1205 -0.2437
25883SOL    HW189628   1.107   9.534  11.708  0.4089  0.6158 -0.2552
25883SOL    HW289629   0.983   9.523  11.621  0.2813 -0.9182  0.0992
25884SOL     OW89630   5.807  10.589  12.851 -0.1691 -0.2220 -0.3011
25884SOL    HW189631   5.860  10.667  12.839  0.6332 -0.5270  1.1345
25884SOL    HW289632   5.801  10.551  12.763 -1.6205  2.0611 -1.2851
25885SOL     OW89633  12.383   4.076   7.120 -0.0345 -0.2477  0.2324
25885SOL    HW189634  12.432   4.049   7.198 -0.3862 -1.3937  0.0729
25885SOL    HW289635  12.410   4.015   7.052 -1.1426 -0.4544 -0.0418
25886SOL     OW89636   0.750   6.548  14.018  0.2101 -0.1116 -0.2358
25886SOL    HW189637   0.710   6.514  14.098  1.4338 -1.9266 -0.3360
25886SOL    HW289638   0.831   6.590  14.048  0.1495  0.1526 -0.4355
25887SOL     OW89639  13.580   8.498   3.237 -0.0571  0.3072  0.6678
25887SOL    HW189640  13.566   8.404   3.241  0.1399  0.2718  0.5720
25887SOL    HW289641  13.529   8.534   3.310  1.7488 -0.1059  2.2212
25888SOL     OW89642   7.817  12.782   6.314  0.4024 -0.3644 -0.0492
25888SOL    HW189643   7.755  12.844   6.275 -0.0766 -0.7152  0.1342
25888SOL    HW289644   7.889  12.778   6.252  0.0323 -0.2831 -0.4915
25889SOL     OW89645  13.261  10.273   2.313 -0.6000  0.3580  0.2897
25889SOL    HW189646  13.332  10.332   2.291 -0.7099 -0.0511 -1.3033
25889SOL    HW289647  13.288  10.188   2.276 -1.1306 -0.2159  1.1883
25890SOL     OW89648  10.152   1.568  10.248  0.3817 -0.0182 -0.3524
25890SOL    HW189649  10.151   1.513  10.325  2.3857 -1.5919 -1.3459
25890SOL    HW289650  10.073   1.544  10.199 -1.1428  1.3090  1.3049
25891SOL     OW89651   3.682   1.720   9.833  0.3123 -0.0622  0.1874
25891SOL    HW189652   3.678   1.645   9.774  0.6204 -0.9164  1.2143
25891SOL    HW289653   3.743   1.780   9.792 -0.7303  0.1094 -1.1739
25892SOL     OW89654   8.917  12.499   5.790 -0.5446  0.4008  0.4879
25892SOL    HW189655   8.982  12.465   5.728 -0.0196  0.0406  1.2106
25892SOL    HW289656   8.846  12.435   5.787  1.6232 -2.6878  3.9505
25893SOL     OW89657   5.729   8.245  13.334  0.0815  0.1343 -0.2043
25893SOL    HW189658   5.649   8.227  13.382 -0.6800 -0.3016 -1.5992
25893SOL    HW289659   5.702   8.300  13.261  1.3652  1.5849  0.3482
25894SOL     OW89660   8.712  10.679  12.220 -0.0983 -1.0463  0.5320
25894SOL    HW189661   8.693  10.657  12.311 -0.8626  1.3054  1.0089
25894SOL    HW289662   8.805  10.704  12.220  0.3484 -2.6242  0.2975
25895SOL     OW89663  12.910  12.118  11.010  0.4980  0.0322 -0.7127
25895SOL    HW189664  12.844  12.090  10.947  1.5005  0.3285 -1.9179
25895SOL    HW289665  12.940  12.036  11.050 -1.8358 -0.0248  1.2307
25896SOL     OW89666   8.981   4.485   7.834 -0.2958  0.6037 -0.0955
25896SOL    HW189667   8.922   4.413   7.814  1.0730 -0.2761 -1.1040
25896SOL    HW289668   9.021   4.507   7.750  1.2285  0.7828  0.6567
25897SOL     OW89669  10.730   1.452   9.031 -0.0561 -0.4204 -0.7876
25897SOL    HW189670  10.700   1.537   9.063 -0.4858 -0.3897 -1.2513
25897SOL    HW289671  10.653   1.396   9.037 -0.2627 -0.3177 -2.0857
25898SOL     OW89672   1.359   4.946  12.058  0.1742  0.0821  0.1854
25898SOL    HW189673   1.429   5.001  12.093  0.0329  0.6580 -0.4225
25898SOL    HW289674   1.372   4.861  12.099  1.3557  0.1213 -0.0922
25899SOL     OW89675   0.790   7.427   0.160 -0.1731 -0.0884  0.2520
25899SOL    HW189676   0.856   7.366   0.193 -1.9025 -3.3049 -1.7157
25899SOL    HW289677   0.840   7.499   0.122  2.0671 -1.0325  1.2717
25900SOL     OW89678   2.524  11.470   2.432  0.1990  0.2530 -0.1586
25900SOL    HW189679   2.454  11.429   2.483  0.0010  0.3357 -0.3645
25900SOL    HW289680   2.511  11.564   2.444  0.3666  0.2665 -0.0753
25901SOL     OW89681   2.448  12.658   6.514  0.3798  0.0987 -0.1669
25901SOL    HW189682   2.527  12.665   6.568  1.1421  1.6678 -1.3937
25901SOL    HW289683   2.442  12.742   6.470 -1.6991 -0.1942 -0.5366
25902SOL     OW89684   8.853   8.949  13.666 -0.6413  0.0052 -0.4893
25902SOL    HW189685   8.767   8.971  13.629 -0.4548  0.0350 -0.9167
25902SOL    HW289686   8.847   8.972  13.758 -1.4609 -1.0002 -0.2691
25903SOL     OW89687   5.323  13.108  13.144  0.5364 -0.0939 -0.3434
25903SOL    HW189688   5.299  13.088  13.235  1.5784 -0.2084 -0.0784
25903SOL    HW289689   5.346  13.023  13.106  2.2160  0.1927 -0.0511
25904SOL     OW89690   1.567  13.071   5.694 -0.0943 -0.2928  0.5674
25904SOL    HW189691   1.639  13.133   5.703 -1.5551  1.3045  2.0470
25904SOL    HW289692   1.568  13.020   5.775 -1.0002  0.2154  0.9206
25905SOL     OW89693   1.965  13.807   1.928  0.3433 -0.7417 -0.4210
25905SOL    HW189694   1.962  13.747   1.854  0.1301  1.8492 -2.6949
25905SOL    HW289695   2.037  13.868   1.907 -0.7535  1.0248  0.6572
25906SOL     OW89696   5.564  12.311  13.227 -0.1957 -0.8723 -0.4567
25906SOL    HW189697   5.574  12.226  13.269  1.5223 -1.1826 -1.3725
25906SOL    HW289698   5.526  12.292  13.142 -0.0650 -0.6999 -0.5552
25907SOL     OW89699   7.756  13.797  13.752  0.6438 -0.2570  0.3184
25907SOL    HW189700   7.804  13.863  13.701  1.9630 -1.7439 -0.4701
25907SOL    HW289701   7.823  13.734  13.777 -0.6389 -1.4750  0.7854
25908SOL     OW89702  12.100  12.363  10.329  0.5955 -0.1395 -0.1548
25908SOL    HW189703  12.187  12.330  10.349  0.8577  0.2901 -0.5555
25908SOL    HW289704  12.093  12.445  10.378  0.2835 -0.3445  0.1492
25909SOL     OW89705  13.226   2.915   6.557 -0.4042  0.3667  0.3920
25909SOL    HW189706  13.135   2.893   6.576 -0.0239  0.1558  2.1385
25909SOL    HW289707  13.276   2.841   6.590  0.4082  0.2837 -0.9328
25910SOL     OW89708   6.951   2.444   5.249  0.3309  0.3419  0.6505
25910SOL    HW189709   6.877   2.445   5.188 -0.6868  0.1143  1.8257
25910SOL    HW289710   6.921   2.390   5.322  1.7648  0.0393  1.0531
25911SOL     OW89711  10.884  13.736   3.920 -0.4895  0.1395  0.1841
25911SOL    HW189712  10.808  13.737   3.977 -1.5101  1.1808 -1.1352
25911SOL    HW289713  10.956  13.707   3.976 -1.6002  0.3575  1.7731
25912SOL     OW89714  11.016   2.566   7.550  0.1252  0.4201  0.6543
25912SOL    HW189715  11.093   2.622   7.543  0.4186  0.2596  2.1285
25912SOL    HW289716  10.992   2.571   7.643 -3.2232  2.4996 -0.1689
25913SOL     OW89717  13.270  10.284  13.999 -0.0996 -0.3456  0.1314
25913SOL    HW189718  13.195  10.226  14.003 -0.3440 -0.0267  0.2456
25913SOL    HW289719  13.251  10.343  13.926 -1.5920  1.9135  2.1801
25914SOL     OW89720   2.047   6.222  13.897 -0.1993  0.0836 -0.0123
25914SOL    HW189721   2.014   6.286  13.961 -1.8774 -0.5914 -0.1539
25914SOL    HW289722   1.970   6.198  13.845  0.5241 -1.5785 -0.3811
25915SOL     OW89723  13.084   9.777  11.112  0.4423  0.3937  0.1222
25915SOL    HW189724  13.112   9.740  11.029 -0.9163  1.4566 -0.8578
25915SOL    HW289725  13.163   9.781  11.165  1.7753  1.6367 -1.8617
25916SOL     OW89726   4.948   7.317  11.197 -0.3751 -0.6292  0.0341
25916SOL    HW189727   4.976   7.286  11.284 -0.0609  0.5042  0.3625
25916SOL    HW289728   5.026   7.307  11.143 -0.5054 -1.1299 -0.0660
25917SOL     OW89729  10.849   1.272  12.239 -0.2317 -0.6758 -0.5846
25917SOL    HW189730  10.929   1.318  12.267 -0.0924 -0.7431 -0.8650
25917SOL    HW289731  10.796   1.340  12.198  0.5484 -0.9949 -2.2146
25918SOL     OW89732  11.649   0.402   7.356  0.3552  0.1779 -0.0573
25918SOL    HW189733  11.567   0.429   7.313  1.1644  1.3963 -0.9213
25918SOL    HW289734  11.676   0.480   7.405  0.6583 -0.4330  0.7455
25919SOL     OW89735   8.603   8.713   4.936  0.2991 -0.0533 -0.0098
25919SOL    HW189736   8.682   8.766   4.936  0.6077 -0.5108 -0.4447
25919SOL    HW289737   8.627   8.634   4.984  0.2196 -0.3558 -0.4610
25920SOL     OW89738  13.170   6.548  13.411  0.4866  0.6411  0.0423
25920SOL    HW189739  13.122   6.509  13.484 -0.6342 -0.3646 -1.1712
25920SOL    HW289740  13.242   6.488  13.395 -1.2049 -1.0804 -1.7872
25921SOL     OW89741   7.109   1.044  13.535  0.1086 -0.6308 -0.0149
25921SOL    HW189742   7.154   1.109  13.590 -2.5250  1.1970  0.1620
25921SOL    HW289743   7.131   0.960  13.574  1.9901  0.2578  1.0188
25922SOL     OW89744   9.462   2.448   8.009  0.6260 -0.7013 -0.1394
25922SOL    HW189745   9.461   2.486   7.922  0.3507  1.8898  0.8884
25922SOL    HW289746   9.548   2.406   8.016  2.0754  2.0069 -0.5595
25923SOL     OW89747   6.318   8.080   2.731 -0.0526  0.0741 -0.0161
25923SOL    HW189748   6.343   8.013   2.668  0.3914 -0.1587  0.4035
25923SOL    HW289749   6.381   8.151   2.718  1.1151 -0.6651  1.2949
25924SOL     OW89750   9.725  10.714   4.772  0.2738  0.2070 -0.4126
25924SOL    HW189751   9.766  10.665   4.844 -1.1369  0.1524  0.4056
25924SOL    HW289752   9.782  10.699   4.697  0.5828 -1.6532  0.1313
25925SOL     OW89753  12.168   3.166  12.002  0.1555 -0.2347 -0.4041
25925SOL    HW189754  12.118   3.233  11.956 -0.6378 -0.4720  0.0846
25925SOL    HW289755  12.257   3.199  12.004 -0.1596  0.6398 -0.4705
25926SOL     OW89756   3.340   2.734  13.690 -0.2766 -0.6331 -0.4027
25926SOL    HW189757   3.265   2.675  13.685  0.8156 -2.0723 -0.7820
25926SOL    HW289758   3.353   2.764  13.600 -0.2278 -0.6316 -0.3954
25927SOL     OW89759   4.977   2.120  10.083 -0.9656  0.2816  0.0354
25927SOL    HW189760   4.907   2.055  10.080 -0.8149 -0.0155  1.6655
25927SOL    HW289761   5.053   2.076  10.046 -1.3796  0.2470 -0.7795
25928SOL     OW89762   2.065   4.671  11.597 -0.2441  0.1264 -0.0522
25928SOL    HW189763   2.023   4.739  11.649  0.5303 -0.6794  1.7100
25928SOL    HW289764   2.049   4.697  11.506 -5.1157 -0.5036  0.3841
25929SOL     OW89765   2.518   5.837   1.856 -0.0122 -0.3268  0.0156
25929SOL    HW189766   2.564   5.828   1.772 -1.6289 -0.3527 -0.9090
25929SOL    HW289767   2.447   5.898   1.837  0.6861  1.1451  1.8678
25930SOL     OW89768   9.653   1.207   7.177 -0.5542 -0.4160  0.3037
25930SOL    HW189769   9.733   1.155   7.184 -0.1556  0.2081  0.4733
25930SOL    HW289770   9.605   1.168   7.104  0.2848 -0.2854 -0.3207
25931SOL     OW89771   4.432   7.641  11.876 -0.2505 -0.2904 -0.3668
25931SOL    HW189772   4.427   7.573  11.808  1.1541 -0.8827  0.0716
25931SOL    HW289773   4.462   7.718  11.829 -1.0146 -0.2038 -0.7215
25932SOL     OW89774   8.931  13.317   4.614  0.2299 -0.6982 -0.2213
25932SOL    HW189775   8.898  13.269   4.539 -0.7045 -1.4083  0.6045
25932SOL    HW289776   9.009  13.269   4.642 -0.3510 -1.4041  0.2282
25933SOL     OW89777  11.011   5.408  10.142  0.2722  0.1321 -0.8062
25933SOL    HW189778  10.997   5.502  10.150 -0.6842 -0.0918  0.5648
25933SOL    HW289779  10.923   5.370  10.153  0.9393 -1.0200  0.9844
25934SOL     OW89780  12.605  12.191   8.322 -0.4328 -0.2477  0.2202
25934SOL    HW189781  12.678  12.164   8.266 -0.7568  1.5735 -1.1864
25934SOL    HW289782  12.634  12.272   8.362 -1.3378  0.0200  0.3628
25935SOL     OW89783  13.659   6.953   4.443 -0.0803 -0.1027  0.1142
25935SOL    HW189784  13.717   6.963   4.367  0.2786  1.4730  0.5473
25935SOL    HW289785  13.715   6.913   4.510  0.0852  0.0468  0.0666
25936SOL     OW89786   8.479  12.127  13.229 -0.0634  0.4671  0.1120
25936SOL    HW189787   8.545  12.139  13.162 -0.3861 -0.5529 -0.4193
25936SOL    HW289788   8.528  12.127  13.311  0.5501  0.1436 -0.2456
25937SOL     OW89789   1.418   0.850   2.453  0.2890 -0.2586 -0.3118
25937SOL    HW189790   1.451   0.915   2.515 -2.1670  1.7518 -0.9411
25937SOL    HW289791   1.476   0.859   2.377  1.5358 -0.6776  0.5605
25938SOL     OW89792   4.810   6.945   4.340  0.7265 -0.6953 -0.5245
25938SOL    HW189793   4.825   6.875   4.403  0.4219  0.2417  0.6339
25938SOL    HW289794   4.863   6.920   4.264  1.8530 -1.4114  0.4446
25939SOL     OW89795   8.263   2.269   8.940  0.2448  0.2856 -0.5076
25939SOL    HW189796   8.226   2.194   8.895  0.1562 -0.8989  1.4382
25939SOL    HW289797   8.218   2.345   8.902 -0.4635 -0.7254 -1.7331
25940SOL     OW89798   6.652   9.739  13.956 -0.3889  0.3956 -0.3426
25940SOL    HW189799   6.595   9.697  13.892 -1.2503  1.5251 -0.3414
25940SOL    HW289800   6.640   9.833  13.941  2.0519  0.7021 -0.8652
25941SOL     OW89801   2.685  13.769   3.774  0.0253  0.4724  0.7275
25941SOL    HW189802   2.639  13.853   3.783 -0.3537  0.2121  1.2443
25941SOL    HW289803   2.778  13.793   3.768 -0.2221  1.1333 -2.0094
25942SOL     OW89804   4.098  12.821  14.037 -0.0385 -0.6841  0.1206
25942SOL    HW189805   4.061  12.745  14.081 -0.9738  0.7005  1.8599
25942SOL    HW289806   4.070  12.812  13.946 -0.6386 -2.0764  0.4121
25943SOL     OW89807   0.621   0.112   5.247 -0.8835  0.1202 -0.5071
25943SOL    HW189808   0.563   0.143   5.177  1.5301  1.8887 -1.8871
25943SOL    HW289809   0.676   0.046   5.204 -1.4386 -1.1074  0.6165
25944SOL     OW89810   5.725   6.065   7.845 -0.2326  0.0383 -0.3958
25944SOL    HW189811   5.713   6.153   7.880  0.4596 -0.0727  0.1400
25944SOL    HW289812   5.660   6.058   7.775 -2.0887  0.0701  1.2166
25945SOL     OW89813   7.375   9.707   0.997  0.1758  0.6017  0.0850
25945SOL    HW189814   7.466   9.714   1.026 -0.3988  0.1592  2.1700
25945SOL    HW289815   7.378   9.730   0.904  2.5990 -0.6593 -0.2519
25946SOL     OW89816   9.343   3.758   6.910  0.4891 -0.3736 -0.4276
25946SOL    HW189817   9.375   3.822   6.973 -0.0866 -0.4029 -0.1002
25946SOL    HW289818   9.261   3.796   6.877 -0.5600 -1.5371  0.7474
25947SOL     OW89819   8.850  13.528   9.304 -0.1222  0.4964 -0.4113
25947SOL    HW189820   8.810  13.587   9.240 -0.5506  0.1798 -0.4388
25947SOL    HW289821   8.848  13.576   9.386 -0.1710  0.6450 -0.5001
25948SOL     OW89822   5.678   0.089   0.762  0.2473  0.6293  0.0828
25948SOL    HW189823   5.687   0.055   0.673  1.1802  2.6827 -0.6806
25948SOL    HW289824   5.585   0.080   0.782 -0.0740  0.6311 -1.3102
25949SOL     OW89825   8.051   0.413   4.068 -0.3318 -0.5061  0.4029
25949SOL    HW189826   8.013   0.452   4.147  1.1155  0.3548  0.7176
25949SOL    HW289827   7.976   0.402   4.009 -1.3215 -0.4463  1.5994
25950SOL     OW89828   3.603  10.316  13.614  0.2844  0.1174 -0.4217
25950SOL    HW189829   3.524  10.296  13.664  0.1617 -0.2857 -0.7824
25950SOL    HW289830   3.639  10.394  13.658 -0.6782  0.7203 -0.6833
25951SOL     OW89831   2.518  10.398   8.675  0.3321  0.1495 -0.1305
25951SOL    HW189832   2.433  10.356   8.663 -0.5225  2.0842 -1.5736
25951SOL    HW289833   2.582  10.332   8.650 -0.9272 -0.3888 -2.1833
25952SOL     OW89834   7.545  11.154   5.425  0.0392  0.2681  0.3516
25952SOL    HW189835   7.492  11.117   5.354  0.4066 -0.8432  0.6412
25952SOL    HW289836   7.495  11.134   5.504  0.7598 -0.5800  0.6045
25953SOL     OW89837   2.454   6.263   6.468  0.0785  0.5409 -0.2317
25953SOL    HW189838   2.503   6.197   6.516 -0.8192  0.4768  0.6374
25953SOL    HW289839   2.486   6.257   6.379  0.4046 -0.6896 -0.0509
25954SOL     OW89840   8.655   1.250  11.456 -0.1467  0.2381 -0.0499
25954SOL    HW189841   8.688   1.191  11.388 -0.4726 -2.6919  2.1491
25954SOL    HW289842   8.562   1.227  11.463  0.3194 -1.2021  2.8055
25955SOL     OW89843   9.925  10.090   3.390  0.2097  0.1505  0.2049
25955SOL    HW189844   9.970  10.134   3.318 -1.6012 -0.1134 -1.1539
25955SOL    HW289845   9.870  10.024   3.347  1.3530 -2.1581  2.0438
25956SOL     OW89846   7.685  12.266  10.258 -0.1860 -0.3098  0.4028
25956SOL    HW189847   7.619  12.258  10.327  0.1997  0.0056  0.8178
25956SOL    HW289848   7.686  12.359  10.236 -0.1122 -0.3660  0.1638
25957SOL     OW89849  10.446  12.659   8.381  0.6022  0.4664 -0.0415
25957SOL    HW189850  10.428  12.752   8.365  1.0995  0.3667 -1.3010
25957SOL    HW289851  10.541  12.651   8.370  0.6057 -0.1280  0.4000
25958SOL     OW89852  10.534  12.742  11.262 -0.1080  0.4510  0.0016
25958SOL    HW189853  10.544  12.755  11.168 -0.1146  2.0614  0.1905
25958SOL    HW289854  10.571  12.655  11.279 -0.3483  0.0322 -1.5093
25959SOL     OW89855   0.511   7.173   7.203 -0.1429 -0.0518 -0.6253
25959SOL    HW189856   0.562   7.114   7.258  0.3434  0.2947 -0.6923
25959SOL    HW289857   0.501   7.126   7.120 -2.9750 -1.6145  0.5024
25960SOL     OW89858   1.378   4.856  11.684  0.2973  0.0020  0.3749
25960SOL    HW189859   1.376   4.817  11.597 -1.0109 -1.0640  0.8377
25960SOL    HW289860   1.358   4.949  11.669  2.3374  0.3311 -0.6338
25961SOL     OW89861   9.084   0.211  11.605  0.5154  0.3534  0.2749
25961SOL    HW189862   9.007   0.161  11.575 -0.1041  0.1219  2.1298
25961SOL    HW289863   9.158   0.156  11.581 -0.1821 -1.9791  2.9873
25962SOL     OW89864  10.723   1.508   1.708 -0.1618  0.1410 -0.0624
25962SOL    HW189865  10.632   1.487   1.726  0.1497 -0.4095  0.9286
25962SOL    HW289866  10.721   1.550   1.622 -1.3049 -0.1442 -0.1945
25963SOL     OW89867   1.430   4.289   6.559  0.0009 -0.2966  0.7879
25963SOL    HW189868   1.340   4.290   6.527  0.7341  0.7092 -1.4195
25963SOL    HW289869   1.463   4.202   6.537 -0.6401 -0.9731  2.3658
25964SOL     OW89870  10.232   1.212   2.664  0.3215  0.0272 -0.1340
25964SOL    HW189871  10.317   1.247   2.693  0.6981 -0.3575 -0.7328
25964SOL    HW289872  10.248   1.184   2.573  0.0653 -1.7179  0.3121
25965SOL     OW89873  12.412   5.742   3.255 -0.1333  0.3968 -0.1443
25965SOL    HW189874  12.424   5.837   3.246  2.8935  0.1876  0.6659
25965SOL    HW289875  12.317   5.731   3.267 -0.6999  3.1950 -1.1830
25966SOL     OW89876  11.699   1.162   1.493 -0.2619 -0.2964 -0.1413
25966SOL    HW189877  11.693   1.183   1.586 -1.9689 -1.3213  0.0432
25966SOL    HW289878  11.607   1.151   1.466  0.2662 -1.5635 -1.5544
25967SOL     OW89879   1.747   6.484   3.400  0.3956  0.2728 -0.1245
25967SOL    HW189880   1.739   6.394   3.369  0.6233  0.4191 -0.6154
25967SOL    HW289881   1.747   6.537   3.320 -2.6367  0.9682  0.2037
25968SOL     OW89882   3.044   9.391   7.616  0.7413 -0.5594  0.1622
25968SOL    HW189883   2.950   9.395   7.633  0.6087 -1.1526 -0.3770
25968SOL    HW289884   3.072   9.482   7.610  0.2395 -0.3809  0.5554
25969SOL     OW89885  10.125   2.246   8.868 -0.2166 -0.2729  0.0639
25969SOL    HW189886  10.107   2.153   8.850 -1.0861 -0.0851 -0.1079
25969SOL    HW289887  10.188   2.272   8.801  1.5618 -1.2260  1.2955
25970SOL     OW89888   6.145   4.254   1.937  0.1387 -0.2843  0.2585
25970SOL    HW189889   6.110   4.319   1.999 -1.1893 -1.2806  0.6128
25970SOL    HW289890   6.085   4.180   1.945  0.9630 -1.1124 -0.9723
25971SOL     OW89891  11.470   8.067   3.819  0.0196  0.1309 -0.3107
25971SOL    HW189892  11.431   7.992   3.863  0.1645 -1.6146 -2.9611
25971SOL    HW289893  11.470   8.044   3.727  1.7012  2.6729 -1.0598
25972SOL     OW89894   7.039   1.875   3.125  0.6106 -0.6184 -0.7495
25972SOL    HW189895   6.978   1.945   3.147  0.4392 -0.4044 -1.8662
25972SOL    HW289896   7.018   1.804   3.186 -0.0878 -0.1837 -0.4793
25973SOL     OW89897   7.801   7.711  11.516 -0.1129 -0.0620 -0.1468
25973SOL    HW189898   7.734   7.675  11.574  0.3113  2.0709  1.8187
25973SOL    HW289899   7.849   7.635  11.485 -1.4540 -1.4148  0.9250
25974SOL     OW89900   5.175   9.949  10.971 -0.5793 -0.1950 -0.5082
25974SOL    HW189901   5.178  10.044  10.957 -0.4627  0.1566  1.5765
25974SOL    HW289902   5.264   9.926  10.998 -0.6323 -0.8909 -0.9117
25975SOL     OW89903   8.787   6.689  11.253 -0.4699 -0.0248  0.3278
25975SOL    HW189904   8.866   6.649  11.291 -1.3655 -0.6690  1.5835
25975SOL    HW289905   8.765   6.632  11.179  0.7854  0.7340 -0.6758
25976SOL     OW89906  12.832   6.244  10.046  0.1071  0.1205  0.0616
25976SOL    HW189907  12.888   6.207   9.977 -0.9108  0.8842 -1.2334
25976SOL    HW289908  12.747   6.257  10.003 -0.4975  0.8213  1.4137
25977SOL     OW89909   7.660   1.182  13.994 -0.1276 -0.1120 -0.1966
25977SOL    HW189910   7.719   1.216  13.927  1.1592 -0.2821  0.8120
25977SOL    HW289911   7.718   1.141  14.059 -1.4711 -2.2619 -0.2578
25978SOL     OW89912  11.476   7.095   7.685 -0.2539  0.0451  0.1224
25978SOL    HW189913  11.512   7.184   7.686 -0.9391  0.3636 -1.4516
25978SOL    HW289914  11.382   7.107   7.670 -0.4551 -0.9337  0.5068
25979SOL     OW89915   3.097   7.924   2.324  0.0306 -0.2811 -0.1884
25979SOL    HW189916   3.124   7.834   2.345  0.2563 -0.1219  0.1990
25979SOL    HW289917   3.012   7.934   2.366 -0.3746 -0.5806 -0.9106
25980SOL     OW89918   8.159  10.281  12.244 -0.1664 -0.2965 -0.6150
25980SOL    HW189919   8.249  10.305  12.224 -0.8851  1.7713 -1.7539
25980SOL    HW289920   8.131  10.225  12.172  0.2871 -1.1817 -0.1064
25981SOL     OW89921   0.882   1.182  11.163 -0.4589 -0.2189  0.7566
25981SOL    HW189922   0.847   1.127  11.093  1.0081 -0.1056 -0.1055
25981SOL    HW289923   0.886   1.269  11.125  2.3540 -0.5242  0.1664
25982SOL     OW89924   1.326   1.373   2.204  0.2040 -0.1563  0.0357
25982SOL    HW189925   1.248   1.428   2.198  0.2725 -0.1380 -0.8498
25982SOL    HW289926   1.360   1.369   2.114  2.4359  1.5844  0.7123
25983SOL     OW89927   1.571   4.039   2.464  0.8162 -0.3912 -0.2229
25983SOL    HW189928   1.578   3.944   2.460  0.6616 -0.3930 -0.4526
25983SOL    HW289929   1.527   4.056   2.547  0.2048 -0.5530 -0.5099
25984SOL     OW89930   9.293   3.272   4.699  0.3204  0.1526  0.1122
25984SOL    HW189931   9.229   3.289   4.631  0.3332 -0.2500 -0.0010
25984SOL    HW289932   9.264   3.326   4.773  0.4911  0.8427 -0.3108
25985SOL     OW89933   3.247   4.262   5.523  0.3486 -0.2278 -0.5162
25985SOL    HW189934   3.195   4.202   5.471  0.6748 -1.6366  0.6962
25985SOL    HW289935   3.215   4.349   5.500  1.3834 -0.6509 -3.9964
25986SOL     OW89936  12.205  10.145   5.700  0.5958 -0.0630  0.7540
25986SOL    HW189937  12.175  10.207   5.634  1.2518  0.1286  0.6285
25986SOL    HW289938  12.126  10.122   5.749  0.4048  1.1325  1.0297
25987SOL     OW89939   2.729   3.431  11.341  0.0973  0.0183  0.4798
25987SOL    HW189940   2.718   3.435  11.247  0.0894 -1.2206  0.4036
25987SOL    HW289941   2.779   3.509  11.364  1.0697 -0.2336 -0.7039
25988SOL     OW89942   3.811  13.370   0.030  0.1263  0.2846  0.0011
25988SOL    HW189943   3.747  13.383  -0.040  1.3148  0.3538 -1.0999
25988SOL    HW289944   3.775  13.297   0.081  0.3333 -1.3047 -2.0192
25989SOL     OW89945   1.726   4.387   5.093  0.5076 -0.0241  0.0140
25989SOL    HW189946   1.671   4.419   5.021 -0.8805  0.2300  1.1452
25989SOL    HW289947   1.782   4.321   5.053 -1.3183 -1.0276 -1.0182
25990SOL     OW89948  10.530   0.982   6.178  0.3389 -0.2049 -0.8075
25990SOL    HW189949  10.560   0.894   6.204 -0.1269 -0.4779 -1.1723
25990SOL    HW289950  10.598   1.014   6.120  0.6108 -0.2412 -0.5149
25991SOL     OW89951  11.639  11.670  12.352 -0.0087 -0.3039 -0.3882
25991SOL    HW189952  11.627  11.576  12.336  3.1966 -0.8970 -0.1244
25991SOL    HW289953  11.609  11.712  12.271 -1.2373 -1.5466 -0.6215
25992SOL     OW89954   3.956   8.082  12.625  0.3915 -0.0645  0.4590
25992SOL    HW189955   4.013   8.148  12.586  0.5889 -0.4660  0.0581
25992SOL    HW289956   3.870   8.123  12.629  0.7680  0.6725  1.3902
25993SOL     OW89957   4.395   4.645   4.750 -0.0168  0.1941 -0.1125
25993SOL    HW189958   4.469   4.699   4.721  0.4891 -1.5104 -2.2582
25993SOL    HW289959   4.405   4.563   4.701 -2.8365 -0.4263  0.1958
25994SOL     OW89960   9.172  12.294   8.268  0.0477 -0.3991 -0.6419
25994SOL    HW189961   9.188  12.205   8.237  0.3325  0.1857 -2.2643
25994SOL    HW289962   9.248  12.315   8.322 -0.8809 -1.7668  1.3024
25995SOL     OW89963   6.297   2.046  12.425  0.6438 -0.3069 -0.0191
25995SOL    HW189964   6.237   2.024  12.354 -0.1179  0.3748  0.4053
25995SOL    HW289965   6.316   1.963  12.467  1.5263 -0.8035 -1.3338
25996SOL     OW89966   9.423   5.500   2.522 -0.5539  0.0858 -0.1640
25996SOL    HW189967   9.364   5.425   2.520 -1.3077  0.6592 -0.1172
25996SOL    HW289968   9.366   5.573   2.547  0.2011  0.6342 -0.0401
25997SOL     OW89969   6.909  13.914   3.820  0.5122  0.1016 -0.5379
25997SOL    HW189970   6.816  13.909   3.795  0.7640 -2.7259 -1.2070
25997SOL    HW289971   6.945  13.829   3.797  2.6886  0.1339  2.2036
25998SOL     OW89972   4.500   5.490  11.553 -0.4672  0.0626  0.1587
25998SOL    HW189973   4.495   5.410  11.606 -1.8858 -1.4676 -2.1098
25998SOL    HW289974   4.592   5.495  11.525  0.1449  0.5338  2.1235
25999SOL     OW89975   4.715  13.416  11.440  0.1836  0.2491  0.0284
25999SOL    HW189976   4.624  13.419  11.412 -0.0465 -0.5013  0.6685
25999SOL    HW289977   4.734  13.323  11.451  1.8205  0.1659 -2.6032
26000SOL     OW89978  11.264  10.679   5.763 -0.2379  0.3477 -0.4833
26000SOL    HW189979  11.252  10.646   5.852 -0.4849  2.3124  0.2785
26000SOL    HW289980  11.187  10.734   5.748 -0.0099  0.3447 -1.7720
26001SOL     OW89981   7.299  11.288   9.701  0.7223  0.4425  0.3817
26001SOL    HW189982   7.303  11.346   9.777 -0.2564  1.3912 -0.2600
26001SOL    HW289983   7.257  11.341   9.633 -0.7197 -1.1947 -0.0702
26002SOL     OW89984   6.391   0.671  11.853  0.0231 -0.0986 -0.0862
26002SOL    HW189985   6.423   0.589  11.815 -0.2724 -0.8319  1.1846
26002SOL    HW289986   6.461   0.699  11.911 -0.0721  0.3206 -0.1700
26003SOL     OW89987   7.466   7.575   9.619  0.1266  0.2810 -0.5671
26003SOL    HW189988   7.419   7.524   9.685  0.7654 -0.4960 -0.6983
26003SOL    HW289989   7.429   7.663   9.626 -0.7742 -0.1172 -0.1192
26004SOL     OW89990   2.227   2.833   9.017 -0.1280 -0.0415 -0.4725
26004SOL    HW189991   2.193   2.756   9.063 -0.5208  0.0355 -0.6334
26004SOL    HW289992   2.250   2.800   8.930 -2.2633  0.4397 -1.2770
26005SOL     OW89993   3.337   5.613   0.433 -0.3045 -0.4171  0.0628
26005SOL    HW189994   3.278   5.538   0.426 -0.0433 -0.6308  0.0915
26005SOL    HW289995   3.310   5.672   0.363  0.3739 -1.1759 -0.8705
26006SOL     OW89996   8.449   0.554   7.465 -0.1967  0.1365  0.4134
26006SOL    HW189997   8.416   0.615   7.532 -0.4938 -0.4757  0.8354
26006SOL    HW289998   8.433   0.599   7.382  1.1645  1.3922  0.7772
26007SOL     OW89999   0.125   0.714  10.796  0.3081  0.3688  0.9326
26007SOL    HW190000   0.083   0.631  10.818 -0.7942  0.2038 -1.4709
26007SOL    HW290001   0.094   0.775  10.862 -1.2295 -0.4993  1.0602
26008SOL     OW90002   4.278   6.112  11.711  0.1080 -0.1346 -0.3343
26008SOL    HW190003   4.210   6.132  11.776 -0.0949 -0.1518 -0.5408
26008SOL    HW290004   4.245   6.150  11.630  1.4724  2.0687  0.0491
26009SOL     OW90005  10.758  11.536   2.083  0.3549  0.0692 -0.0240
26009SOL    HW190006  10.717  11.506   2.165  1.2516 -1.2096 -0.0212
26009SOL    HW290007  10.846  11.562   2.108  0.6603 -0.4001 -0.5903
26010SOL     OW90008  10.219   1.449  12.842 -0.7789 -0.0009  1.0499
26010SOL    HW190009  10.310   1.469  12.865 -0.8979  0.5130  1.0877
26010SOL    HW290010  10.207   1.489  12.756 -1.5337  1.6460  1.8742
26011SOL     OW90011   7.564  10.914  10.691  0.1131  0.2584 -0.4406
26011SOL    HW190012   7.639  10.858  10.712 -0.6985 -0.4906  0.5863
26011SOL    HW290013   7.560  10.977  10.764 -0.4811  0.0430 -0.2811
26012SOL     OW90014   1.717   5.331   6.890  0.3387  0.4447  1.0830
26012SOL    HW190015   1.648   5.295   6.946 -0.7917  1.1793  0.2188
26012SOL    HW290016   1.716   5.425   6.910  1.3310  0.4075  1.3108
26013SOL     OW90017   0.497   0.196  13.765  0.3687 -0.6650  0.3825
26013SOL    HW190018   0.521   0.288  13.777  1.8453 -1.1029  0.9829
26013SOL    HW290019   0.465   0.192  13.675 -0.3463  0.5527  0.5543
26014SOL     OW90020   2.371   5.629   5.998  0.0846  0.3292 -0.6909
26014SOL    HW190021   2.280   5.654   5.982 -0.3505 -1.1102 -0.5766
26014SOL    HW290022   2.394   5.674   6.080 -0.9720 -0.3626  0.0140
26015SOL     OW90023  10.865   5.775   8.917  0.1821  0.0366  1.1126
26015SOL    HW190024  10.806   5.811   8.851 -0.3354  0.4010  1.7543
26015SOL    HW290025  10.924   5.718   8.868 -0.9476 -0.6490  0.4903
26016SOL     OW90026   9.541  11.089   5.334  0.4844  0.7226 -0.3862
26016SOL    HW190027   9.631  11.099   5.366 -1.0737  2.1685  4.6069
26016SOL    HW290028   9.526  10.995   5.334  1.4546  0.5435  0.6795
26017SOL     OW90029   6.734   0.039   8.068  0.0750  0.1257 -0.2416
26017SOL    HW190030   6.775   0.023   7.983  3.5904  1.0620  1.0791
26017SOL    HW290031   6.714   0.133   8.067 -0.6286 -0.0211 -0.3049
26018SOL     OW90032   3.093   9.545  11.779 -0.1840  0.1312  0.3815
26018SOL    HW190033   3.153   9.586  11.717 -0.1523  1.3305  1.2003
26018SOL    HW290034   3.006   9.575  11.752 -0.6720 -2.5504 -1.5738
26019SOL     OW90035  10.021   8.700  13.268  0.0867  0.0073  0.4268
26019SOL    HW190036  10.077   8.650  13.209 -0.8158 -0.7033  0.1470
26019SOL    HW290037   9.982   8.768  13.212  2.5132  2.1298  1.1129
26020SOL     OW90038   3.643   3.821  13.762  0.2558  0.0086 -0.0058
26020SOL    HW190039   3.709   3.837  13.829 -0.0346 -0.5793  0.4325
26020SOL    HW290040   3.563   3.860  13.797  0.2640  0.3350 -0.3382
26021SOL     OW90041   3.022  12.472   5.655  0.4782 -0.0930 -0.0691
26021SOL    HW190042   3.019  12.500   5.564 -0.9092 -0.8524 -0.2767
26021SOL    HW290043   2.949  12.519   5.697  2.5490  2.1988  1.2780
26022SOL     OW90044  10.683   9.830   2.441  0.7615 -0.0378  0.0964
26022SOL    HW190045  10.626   9.791   2.374 -0.8501  0.0871  1.3312
26022SOL    HW290046  10.752   9.873   2.391 -0.7739  0.6748 -1.5259
26023SOL     OW90047   0.408   9.208   0.736  0.3726  0.1750 -0.3509
26023SOL    HW190048   0.397   9.291   0.689 -0.7572  0.5110  0.4349
26023SOL    HW290049   0.332   9.156   0.710  0.4597 -0.1606  0.0552
26024SOL     OW90050  13.616   9.509   5.291  0.7022  0.4147  0.3804
26024SOL    HW190051  13.591   9.462   5.371 -0.0908  1.0583  0.5192
26024SOL    HW290052  13.595   9.448   5.221 -1.5068  0.9832  0.4796
26025SOL     OW90053   8.923   5.092  13.861  0.3766 -0.3993  0.4078
26025SOL    HW190054   8.884   5.006  13.879  1.2498 -0.5102  1.9768
26025SOL    HW290055   8.922   5.137  13.946  0.4037  0.9494 -0.2858
26026SOL     OW90056  11.059   4.212   7.198 -0.2980  0.0477  0.0074
26026SOL    HW190057  10.991   4.279   7.190 -0.7570 -0.5563 -1.5261
26026SOL    HW290058  11.107   4.216   7.115  0.6793 -0.4608  0.5277
26027SOL     OW90059  11.002   9.582   5.587 -0.0126 -0.0809 -0.2139
26027SOL    HW190060  10.957   9.651   5.636 -1.2232  0.5606 -2.1411
26027SOL    HW290061  11.095   9.598   5.603 -0.2364  2.3436 -1.0186
26028SOL     OW90062  13.983   0.975  12.278  0.3795 -0.8721  0.7218
26028SOL    HW190063  13.944   1.047  12.328 -2.1023 -1.5745 -0.0602
26028SOL    HW290064  13.944   0.896  12.315 -1.0899 -1.4536 -1.7735
26029SOL     OW90065   0.355   7.330  12.484  0.4037 -0.0426  0.4351
26029SOL    HW190066   0.309   7.316  12.567  0.1059  2.3721  0.7579
26029SOL    HW290067   0.443   7.357  12.509  1.0420 -1.5112 -0.1229
26030SOL     OW90068   5.090   1.307   5.026 -0.0216  0.2236 -0.5274
26030SOL    HW190069   5.024   1.369   4.996 -1.3973 -2.1942 -2.9126
26030SOL    HW290070   5.048   1.262   5.100  0.0890  0.5310 -0.2713
26031SOL     OW90071  10.600   3.267   1.592  0.4331  0.4884  0.4763
26031SOL    HW190072  10.525   3.277   1.650 -0.7113 -0.1124 -0.8491
26031SOL    HW290073  10.583   3.185   1.545  0.6658  1.6025 -1.6442
26032SOL     OW90074   2.375   7.900  10.601  0.3070  0.0771 -0.1076
26032SOL    HW190075   2.360   7.875  10.692  2.5442 -0.9440  0.0413
26032SOL    HW290076   2.297   7.868  10.554 -0.9711  0.8118  1.4277
26033SOL     OW90077   0.835  11.421  10.989  0.1858 -0.1812 -0.2106
26033SOL    HW190078   0.904  11.446  10.927 -0.5273  0.1503 -0.8892
26033SOL    HW290079   0.849  11.477  11.065  0.4200  0.1789 -0.5144
26034SOL     OW90080   9.393   2.387  10.015 -0.2029  0.1700 -0.2380
26034SOL    HW190081   9.425   2.315   9.962 -1.0658 -0.6901  0.3753
26034SOL    HW290082   9.338   2.438   9.955 -0.9996 -0.6721 -0.2468
26035SOL     OW90083   8.423   8.009   8.063  0.4347 -0.1666 -0.0302
26035SOL    HW190084   8.363   8.074   8.026 -0.9312 -1.0536  0.5701
26035SOL    HW290085   8.492   8.000   7.997 -1.7176 -1.4447 -2.2588
26036SOL     OW90086   5.667  13.064   9.498  0.5012 -0.3256 -0.2231
26036SOL    HW190087   5.589  13.010   9.481  0.2801 -0.4953  1.2335
26036SOL    HW290088   5.635  13.154   9.495  0.1472 -0.4100  0.7977
26037SOL     OW90089   0.682   4.659   1.129 -0.1809  0.2539 -0.5747
26037SOL    HW190090   0.774   4.659   1.154 -0.1941 -0.6001 -0.4950
26037SOL    HW290091   0.661   4.567   1.115 -0.5620  0.5498 -2.2782
26038SOL     OW90092   7.456  12.997   6.398 -0.0757  0.3135 -0.2945
26038SOL    HW190093   7.396  12.931   6.364 -0.8398  1.1185 -0.5212
26038SOL    HW290094   7.525  13.003   6.331  0.2359 -0.5470 -0.0698
26039SOL     OW90095   7.125  11.482   7.523  0.3067  0.3956 -0.0325
26039SOL    HW190096   7.167  11.557   7.482 -0.3453  1.0780  0.5125
26039SOL    HW290097   7.049  11.519   7.569 -1.2966 -0.8472 -1.5184
26040SOL     OW90098  12.325   7.960   1.189 -0.1834 -0.3403 -0.4565
26040SOL    HW190099  12.383   7.931   1.260 -1.4059 -0.8030  0.3783
26040SOL    HW290100  12.248   7.903   1.196 -0.9449  0.5686 -1.2500
26041SOL     OW90101   5.507   9.446   0.944  0.1704 -0.0928 -0.7317
26041SOL    HW190102   5.499   9.384   1.016 -1.2273 -1.2957 -1.8623
26041SOL    HW290103   5.601   9.462   0.936  0.4811 -1.3528  0.1710
26042SOL     OW90104   4.543   0.912   3.155 -0.0334  0.2740  0.2350
26042SOL    HW190105   4.598   0.902   3.233 -0.4599 -1.6993  0.3515
26042SOL    HW290106   4.592   0.971   3.098  1.7399 -0.6391  0.7384
26043SOL     OW90107   3.789   4.343   6.687  0.4161 -0.0213 -0.5014
26043SOL    HW190108   3.771   4.387   6.770  0.1728 -0.6568 -0.2206
26043SOL    HW290109   3.709   4.355   6.636 -0.1270 -1.2162  0.0453
26044SOL     OW90110   4.378   2.831   7.250 -0.0748  0.1290  0.1294
26044SOL    HW190111   4.300   2.775   7.256 -0.8902  0.7304 -3.0470
26044SOL    HW290112   4.358   2.892   7.179  2.2189  2.1580  1.1096
26045SOL     OW90113  12.848  10.182   5.080 -0.1367 -0.3924  0.1672
26045SOL    HW190114  12.787  10.138   5.139  0.7419 -0.8741  0.7431
26045SOL    HW290115  12.806  10.265   5.058 -1.2750 -0.9871  0.0474
26046SOL     OW90116   9.470   9.898  13.000 -0.5222 -0.4444  0.5240
26046SOL    HW190117   9.465   9.803  13.010  1.1062 -0.7182 -0.8086
26046SOL    HW290118   9.516   9.928  13.079 -2.0291 -0.5787  1.5015
26047SOL     OW90119   4.313   7.090  10.606 -0.5099  0.1704  0.2405
26047SOL    HW190120   4.249   7.161  10.596 -2.2430 -0.8798  2.6962
26047SOL    HW290121   4.389   7.132  10.647 -0.9105  0.8643  0.2948
26048SOL     OW90122   1.603   4.261   2.687  0.6331 -0.0020  0.3898
26048SOL    HW190123   1.694   4.258   2.658  0.6512  0.7867  0.3411
26048SOL    HW290124   1.594   4.347   2.727 -0.4036  0.3915 -0.6388
26049SOL     OW90125   5.870  13.872   4.408 -0.4646  0.3608 -0.3430
26049SOL    HW190126   5.819  13.803   4.451 -0.1740  0.4122  0.0949
26049SOL    HW290127   5.806  13.941   4.391 -0.0404  1.8947  3.2819
26050SOL     OW90128   7.823  10.268  13.653  0.2993 -0.6007 -0.2415
26050SOL    HW190129   7.907  10.297  13.687 -0.5074 -1.0478  2.3568
26050SOL    HW290130   7.795  10.198  13.713 -1.3238 -1.3856 -1.8019
26051SOL     OW90131   9.611   0.070  12.770 -0.2063  0.7921  0.0989
26051SOL    HW190132   9.516   0.060  12.774 -0.1983 -1.3612 -2.5277
26051SOL    HW290133   9.624   0.154  12.724 -0.9753 -0.1499 -1.9727
26052SOL     OW90134   1.191   2.344   1.516  0.4091 -0.1092  0.0120
26052SOL    HW190135   1.112   2.325   1.464 -1.4142  1.9493  1.8151
26052SOL    HW290136   1.208   2.437   1.499  1.3618 -0.0806  1.0438
26053SOL     OW90137   0.449   6.857   4.992 -1.0531 -0.3877  0.3283
26053SOL    HW190138   0.445   6.914   5.069  0.7552  2.8960 -1.7846
26053SOL    HW290139   0.536   6.818   4.995 -0.6532  0.4079 -0.4005
26054SOL     OW90140  11.340   5.785   5.420 -0.3297  0.2958  0.5759
26054SOL    HW190141  11.364   5.872   5.449 -0.7899  0.9741 -0.9454
26054SOL    HW290142  11.245   5.789   5.406 -0.2870 -0.2860  0.0413
26055SOL     OW90143   6.212   5.760   7.031  0.4750  0.0522 -0.3483
26055SOL    HW190144   6.272   5.833   7.049  0.2351  0.6495 -1.8180
26055SOL    HW290145   6.224   5.700   7.105  0.2195  1.8591  1.2120
26056SOL     OW90146   1.137  13.364   3.738 -0.3208  0.1352  0.1033
26056SOL    HW190147   1.163  13.357   3.830 -0.7252  0.0066  0.2066
26056SOL    HW290148   1.069  13.431   3.737 -1.4646 -0.9844  0.1436
26057SOL     OW90149   6.631   3.181  12.198  0.0791  0.4952  0.3102
26057SOL    HW190150   6.660   3.152  12.111 -2.0967  0.7959 -0.5825
26057SOL    HW290151   6.692   3.140  12.258  0.6782 -1.0804 -1.2757
26058SOL     OW90152   5.826  12.224  13.992  0.2867 -0.0006 -0.3727
26058SOL    HW190153   5.918  12.204  13.973  0.3249  0.0140 -0.2074
26058SOL    HW290154   5.831  12.291  14.061  0.1663  0.6747 -1.0074
26059SOL     OW90155   0.218   5.799  10.839  0.2706 -0.4134  0.3907
26059SOL    HW190156   0.306   5.829  10.819  0.6703 -0.2887  2.1674
26059SOL    HW290157   0.171   5.879  10.863  0.2705 -0.7173  1.4444
26060SOL     OW90158   3.902   8.722  12.460  0.6259  0.0180  0.1235
26060SOL    HW190159   3.955   8.792  12.423 -0.7492  1.1319  0.1947
26060SOL    HW290160   3.871   8.756  12.544 -1.0818 -0.1360 -0.4075
26061SOL     OW90161  12.882   9.249   7.168 -1.0656  0.4076  0.3970
26061SOL    HW190162  12.939   9.234   7.244 -1.9899 -0.0223  1.0269
26061SOL    HW290163  12.919   9.326   7.125  0.6279 -0.4793  0.1597
26062SOL     OW90164  12.030   7.245   6.054  0.1451  0.3426  0.1793
26062SOL    HW190165  12.097   7.250   5.986  1.2432 -0.3174  1.1643
26062SOL    HW290166  12.008   7.336   6.074  0.9786  0.5744  0.0560
26063SOL     OW90167   8.729  13.594   5.037  0.9821 -0.0891 -0.4785
26063SOL    HW190168   8.793  13.661   5.061  1.4738 -0.3116 -1.1224
26063SOL    HW290169   8.779  13.530   4.986  0.7443 -1.4688  0.9438
26064SOL     OW90170   9.410  11.678   5.459  0.0815  0.2523 -0.1927
26064SOL    HW190171   9.464  11.745   5.418 -1.1552  1.8452  0.7087
26064SOL    HW290172   9.337  11.665   5.398 -0.1869  0.4332  0.0893
26065SOL     OW90173   5.359   6.283   8.921  0.4559 -0.1075 -0.1728
26065SOL    HW190174   5.433   6.270   8.863  0.2455 -0.7127 -0.3094
26065SOL    HW290175   5.364   6.375   8.947  0.3492  0.2692 -1.4336
26066SOL     OW90176  10.858   9.940   3.598 -0.1765 -0.5940 -0.5132
26066SOL    HW190177  10.937   9.916   3.647  0.8505  2.7089 -0.2981
26066SOL    HW290178  10.789   9.944   3.664  0.2938 -0.0795 -0.0452
26067SOL     OW90179   5.390   2.100   8.837  0.1248  0.1225 -0.1384
26067SOL    HW190180   5.301   2.126   8.812 -0.1518 -0.6624 -0.0055
26067SOL    HW290181   5.447   2.142   8.772 -0.4721 -0.7386 -1.2541
26068SOL     OW90182   0.955   7.347   0.752  0.7597  0.5156 -0.2502
26068SOL    HW190183   0.893   7.416   0.777 -0.7470 -0.1827 -1.8943
26068SOL    HW290184   0.947   7.281   0.821  1.0760  1.2659  0.5241
26069SOL     OW90185   7.534   5.470   6.489  0.0483 -0.2817 -0.0436
26069SOL    HW190186   7.495   5.553   6.517  1.0629  0.5763 -1.0924
26069SOL    HW290187   7.625   5.476   6.518 -0.1765 -1.6401  1.0745
26070SOL     OW90188   9.632   5.215   9.346  0.3617 -0.5557  0.8918
26070SOL    HW190189   9.585   5.161   9.282  1.3655 -0.6328  0.1941
26070SOL    HW290190   9.713   5.166   9.363  0.6700  0.0803  1.2725
26071SOL     OW90191   4.762  10.281   8.824 -0.3771  0.0032  0.1314
26071SOL    HW190192   4.805  10.264   8.908 -0.7746  1.1655  0.5835
26071SOL    HW290193   4.766  10.197   8.778  1.1393 -0.2812  0.7115
26072SOL     OW90194   2.115   1.579   5.645  0.1540  0.7174 -0.0204
26072SOL    HW190195   2.066   1.656   5.676 -0.8532 -0.5239  1.5898
26072SOL    HW290196   2.051   1.528   5.595  0.1127 -0.2925  1.0305
26073SOL     OW90197   4.528  13.344   1.469 -0.5945  0.5744 -0.1209
26073SOL    HW190198   4.481  13.359   1.551 -2.7564  3.1870 -1.6666
26073SOL    HW290199   4.473  13.385   1.402  1.0975 -1.3546 -2.9192
26074SOL     OW90200   4.567   1.107  12.481 -0.0145 -0.1980  0.9604
26074SOL    HW190201   4.507   1.081  12.411 -1.0384  0.1197  1.6923
26074SOL    HW290202   4.606   1.189  12.450 -1.3976  0.6046  1.2705
26075SOL     OW90203   6.047   2.488   6.606  0.5650 -0.0260  0.0937
26075SOL    HW190204   6.142   2.491   6.613  0.6403 -2.7370  2.0817
26075SOL    HW290205   6.016   2.519   6.691 -0.1907 -0.9908  0.1959
26076SOL     OW90206  11.734   5.303  10.552 -0.2251 -0.5510  0.2202
26076SOL    HW190207  11.796   5.233  10.570 -0.7594 -1.4028 -1.0491
26076SOL    HW290208  11.782   5.364  10.496  0.1560 -0.0264  1.1032
26077SOL     OW90209   1.686   2.765   6.169 -0.1844  0.2910  0.8516
26077SOL    HW190210   1.757   2.705   6.147 -0.0615  1.0180 -0.8620
26077SOL    HW290211   1.615   2.709   6.201  1.0274 -0.4641  2.3382
26078SOL     OW90212   4.164  11.275   8.600 -0.1968 -0.1266 -0.3677
26078SOL    HW190213   4.086  11.297   8.550  0.3590  2.0647 -0.3855
26078SOL    HW290214   4.234  11.324   8.558  1.5007 -2.9688 -1.0881
26079SOL     OW90215   6.049  12.932   2.877  0.2081  0.4273  0.6536
26079SOL    HW190216   6.128  12.906   2.924  0.0592  3.6084  2.9903
26079SOL    HW290217   6.082  12.985   2.804  0.3132 -2.4408 -1.5536
26080SOL     OW90218  12.921   7.192  12.157  0.5847 -0.3354 -0.0949
26080SOL    HW190219  12.906   7.283  12.129  1.2404 -0.1999 -0.0177
26080SOL    HW290220  13.016   7.182  12.157  0.6035 -0.4950  1.5354
26081SOL     OW90221   1.050  12.615   1.430 -0.4117  0.1490 -0.9657
26081SOL    HW190222   1.096  12.583   1.507 -1.9067  0.9151  0.2921
26081SOL    HW290223   1.096  12.695   1.405  0.3241 -0.3208 -1.1438
26082SOL     OW90224  12.995  10.668  11.299  0.2068  0.4940 -0.2769
26082SOL    HW190225  12.919  10.692  11.246  0.7450 -0.1223 -1.3579
26082SOL    HW290226  12.990  10.573  11.309  0.4408  0.5323  0.2786
26083SOL     OW90227   0.208   9.068  12.308  0.8053  0.4309 -0.5451
26083SOL    HW190228   0.237   8.996  12.252 -2.4072 -0.8446 -0.8179
26083SOL    HW290229   0.237   9.147  12.263  1.3620 -0.6491 -2.1627
26084SOL     OW90230  13.025   8.382   7.588  0.0475 -0.0754 -0.1750
26084SOL    HW190231  13.068   8.429   7.660  0.5975 -0.9606  0.0926
26084SOL    HW290232  12.932   8.404   7.597 -0.1649 -1.4926  1.8702
26085SOL     OW90233   8.929   6.358  12.928 -0.0952  0.3100  0.3998
26085SOL    HW190234   9.007   6.358  12.872 -0.2496 -0.1789  0.1741
26085SOL    HW290235   8.954   6.306  13.004 -0.8608 -1.7145 -0.6579
26086SOL     OW90236   5.106   0.192   9.703 -0.0395 -0.0187  0.5470
26086SOL    HW190237   5.088   0.280   9.668 -0.7768  0.2533  1.5861
26086SOL    HW290238   5.201   0.183   9.695 -0.1433  0.1008 -1.3409
26087SOL     OW90239   8.945   5.958   5.610 -0.0689  0.1972  0.0677
26087SOL    HW190240   8.955   5.906   5.689  0.4809  1.5776  0.9488
26087SOL    HW290241   8.862   6.005   5.622 -1.8450 -2.2077 -1.8215
26088SOL     OW90242   9.779   4.429   5.903  0.1590 -0.3684  0.1168
26088SOL    HW190243   9.684   4.437   5.905  0.1106 -1.0273  1.7412
26088SOL    HW290244   9.795   4.344   5.861 -0.1190 -1.5560  2.2576
26089SOL     OW90245   8.370   4.077  10.679  0.5108  0.3724  0.0483
26089SOL    HW190246   8.462   4.049  10.673  1.0257  2.0789 -0.7691
26089SOL    HW290247   8.354   4.086  10.773  1.0109 -0.4761  0.2225
26090SOL     OW90248  10.321   9.164  11.925 -0.1526 -0.3779 -0.8773
26090SOL    HW190249  10.408   9.176  11.889  0.2939  0.9312  0.5243
26090SOL    HW290250  10.316   9.071  11.947  0.5792 -0.6156 -1.6793
26091SOL     OW90251   3.290  14.002   8.905  0.6407 -0.3072 -0.0838
26091SOL    HW190252   3.306  14.070   8.971 -0.9965  0.2599 -0.2273
26091SOL    HW290253   3.206  14.027   8.865  0.1399 -2.2530 -0.3342
26092SOL     OW90254   5.005   7.672   9.653  0.0440 -0.0775 -0.5714
26092SOL    HW190255   4.921   7.669   9.698  1.2472  1.2399  1.9541
26092SOL    HW290256   5.015   7.585   9.614 -1.5773 -0.9412  0.8412
26093SOL     OW90257  12.804   5.555   4.325  0.0291 -0.3337  0.3058
26093SOL    HW190258  12.870   5.545   4.394 -1.3792 -0.8818  1.6353
26093SOL    HW290259  12.809   5.474   4.276  0.6234 -0.1928  0.1162
26094SOL     OW90260  12.666   9.552   7.297 -0.2895 -0.2786 -0.5555
26094SOL    HW190261  12.748   9.506   7.316 -0.1721 -0.1362 -0.7091
26094SOL    HW290262  12.695   9.637   7.262 -0.5010 -0.0423 -0.1640
26095SOL     OW90263  11.916   4.036  11.298 -0.4968 -0.5180  0.3283
26095SOL    HW190264  11.901   4.091  11.375  0.4324 -1.3461  1.1381
26095SOL    HW290265  11.943   4.097  11.230 -3.9052  0.5767 -0.2029
26096SOL     OW90266   2.598  11.856   7.089 -0.1319 -0.2483 -0.6132
26096SOL    HW190267   2.515  11.807   7.094 -0.4551  0.4407  1.5496
26096SOL    HW290268   2.596  11.914   7.164  1.3863  1.3354 -1.7342
26097SOL     OW90269  12.150   0.756   4.691  0.2791  0.5037 -0.0417
26097SOL    HW190270  12.231   0.749   4.743  0.3805 -1.6443 -0.4015
26097SOL    HW290271  12.162   0.692   4.621 -2.1976 -0.7513  0.5631
26098SOL     OW90272  11.035   6.240   9.979  0.3215 -0.2316 -0.1378
26098SOL    HW190273  11.128   6.240   9.957  0.0239  1.8897 -1.6941
26098SOL    HW290274  11.033   6.244  10.074  1.8007 -0.9803 -0.0407
26099SOL     OW90275   2.605   3.894   1.565 -0.1831  0.1492  0.3336
26099SOL    HW190276   2.561   3.965   1.610 -1.0795 -1.3332  1.8999
26099SOL    HW290277   2.661   3.938   1.501 -0.0232  2.2782  1.8244
26100SOL     OW90278   6.252   3.693  10.630  0.1379  0.0448  0.1761
26100SOL    HW190279   6.270   3.608  10.590 -2.3392  0.7354 -2.7784
26100SOL    HW290280   6.296   3.757  10.573 -0.3487  0.8915  0.7268
26101SOL     OW90281   0.271  10.707  13.847  0.0486  0.0424  0.3903
26101SOL    HW190282   0.326  10.785  13.845  0.2666 -0.1269 -0.4959
26101SOL    HW290283   0.265  10.684  13.940  1.9233 -0.2656  0.4693
26102SOL     OW90284   1.920  12.424  11.770  0.0259  0.5223 -0.2167
26102SOL    HW190285   1.942  12.516  11.755 -1.2178  0.4053 -3.7632
26102SOL    HW290286   1.979  12.376  11.712 -1.2204 -0.6618 -0.5422
26103SOL     OW90287  12.591   1.029   5.858 -0.5791 -0.2591 -0.2675
26103SOL    HW190288  12.521   1.083   5.894  0.9518 -0.4070  3.3869
26103SOL    HW290289  12.554   0.942   5.851 -1.0459 -0.1652  0.8434
26104SOL     OW90290   6.736   4.851  13.756  0.0885  0.3899  0.7494
26104SOL    HW190291   6.737   4.880  13.665  0.1894  2.2050  1.2794
26104SOL    HW290292   6.655   4.801  13.764 -0.6804  1.4666  0.0068
26105SOL     OW90293  10.817  10.287  13.010  0.3417 -0.0368 -0.2708
26105SOL    HW190294  10.728  10.314  13.033  0.7176 -0.5695  2.0719
26105SOL    HW290295  10.871  10.321  13.082  1.6091 -2.1426 -0.1634
26106SOL     OW90296   3.497  13.776   4.226  0.1260 -0.0071  0.3891
26106SOL    HW190297   3.466  13.776   4.136 -1.9512  0.8096  1.0485
26106SOL    HW290298   3.448  13.846   4.269  0.4630 -0.8773  2.3323
26107SOL     OW90299   5.380   5.274   1.427  0.4628  0.3394 -0.5273
26107SOL    HW190300   5.324   5.328   1.483  0.3100  0.2279 -0.5700
26107SOL    HW290301   5.332   5.192   1.417 -0.1420  0.8240 -1.8846
26108SOL     OW90302   4.783   0.743  11.173 -0.4220  0.3584  0.1577
26108SOL    HW190303   4.835   0.663  11.175 -0.3574  0.4074  1.0858
26108SOL    HW290304   4.828   0.802  11.234 -2.1085  0.0377  1.8001
26109SOL     OW90305  12.045   3.802   9.337 -0.6136  0.0472  0.2960
26109SOL    HW190306  12.031   3.708   9.326  1.3236 -0.3145  0.5250
26109SOL    HW290307  11.990   3.826   9.412  1.3365 -1.6240  2.4119
26110SOL     OW90308   6.156   7.389   3.025 -0.0596 -0.3196  0.2393
26110SOL    HW190309   6.171   7.456   2.958  1.9764 -0.6914  0.2656
26110SOL    HW290310   6.065   7.361   3.010  0.1869 -0.0724 -2.0842
26111SOL     OW90311   8.198   9.115   4.211 -0.3226  0.1953  0.2072
26111SOL    HW190312   8.284   9.152   4.234  0.5242 -0.8179 -1.1597
26111SOL    HW290313   8.157   9.183   4.158  0.6196 -0.2010 -1.0757
26112SOL     OW90314   8.149   0.626  10.722 -0.1155  0.5496 -0.0298
26112SOL    HW190315   8.232   0.673  10.733 -0.1542  1.3094 -2.4485
26112SOL    HW290316   8.164   0.569  10.647 -1.8190  0.8231 -0.6037
26113SOL     OW90317  12.066   6.996   0.104  0.2274  0.0176  0.1979
26113SOL    HW190318  12.083   7.069   0.164 -0.0219 -0.3381  0.7112
26113SOL    HW290319  12.038   7.038   0.022 -2.2976  0.5182  1.2079
26114SOL     OW90320   4.423  10.569  11.948  0.0851 -0.1137 -0.1237
26114SOL    HW190321   4.474  10.645  11.919 -0.1389  0.3624  0.7022
26114SOL    HW290322   4.471  10.493  11.912  0.2607  0.4082 -1.0272
26115SOL     OW90323  13.377  12.838   2.607 -0.2890  0.0216 -0.5121
26115SOL    HW190324  13.428  12.784   2.667  0.2151  1.8231  0.7375
26115SOL    HW290325  13.286  12.819   2.630 -0.2618 -2.2295 -1.8922
26116SOL     OW90326  12.477   1.357   4.815  0.1404 -0.1250  0.0807
26116SOL    HW190327  12.563   1.393   4.834  0.5759 -1.7861  1.5774
26116SOL    HW290328  12.451   1.314   4.897 -1.6001 -0.6253 -0.6917
26117SOL     OW90329   7.150   3.703   7.745  0.0103  0.5821 -0.8623
26117SOL    HW190330   7.139   3.610   7.764  0.2199  0.4300 -1.4614
26117SOL    HW290331   7.118   3.748   7.823  1.0712 -0.0313 -0.0561
26118SOL     OW90332   2.039   1.522   2.047  1.1653 -0.0776 -0.2898
26118SOL    HW190333   2.075   1.588   1.988  0.4722 -0.6559 -1.3878
26118SOL    HW290334   2.107   1.455   2.053  0.3440 -1.1696 -2.3623
26119SOL     OW90335   2.910   5.090   8.088 -0.0525 -0.0846  0.3677
26119SOL    HW190336   2.935   5.123   8.002 -0.4006 -0.5176  0.0980
26119SOL    HW290337   2.818   5.115   8.098 -0.3516 -1.0256  0.1213
26120SOL     OW90338  11.094   6.641  11.210 -0.0630  0.8023  0.1877
26120SOL    HW190339  11.121   6.732  11.224  0.6046  0.5550  0.5496
26120SOL    HW290340  11.158   6.589  11.259 -0.1192  0.1091 -0.4619
26121SOL     OW90341   4.998   4.573   6.975 -0.5476  0.5536  0.5698
26121SOL    HW190342   4.966   4.613   6.895  0.8139 -1.1599 -0.9203
26121SOL    HW290343   5.046   4.496   6.946  0.0121 -0.1302  3.0479
26122SOL     OW90344   1.655  13.620   1.286 -0.7630 -0.1771  0.1402
26122SOL    HW190345   1.624  13.710   1.291 -1.8488 -0.5910  1.9717
26122SOL    HW290346   1.692  13.612   1.198 -2.8320  1.3574 -0.9607
26123SOL     OW90347  11.212  13.101   7.415 -0.1739  0.3903  0.7573
26123SOL    HW190348  11.228  13.038   7.344  4.8085  1.7793  0.2874
26123SOL    HW290349  11.240  13.054   7.494 -0.9558  0.5181  1.1183
26124SOL     OW90350   4.887   8.498   9.823 -0.2339 -0.2645  0.5408
26124SOL    HW190351   4.954   8.552   9.865  2.0459 -2.4534 -0.0161
26124SOL    HW290352   4.910   8.408   9.847 -1.5560 -1.2600 -1.6273
26125SOL     OW90353   5.115   4.099   0.450 -0.3875  0.2823 -0.1121
26125SOL    HW190354   5.151   4.103   0.539 -2.5069 -2.6072  1.0364
26125SOL    HW290355   5.091   4.190   0.430  0.5257  1.0837  2.0991
26126SOL     OW90356  13.599  13.668   7.325 -0.4011  0.1050 -0.2917
26126SOL    HW190357  13.687  13.653   7.361  0.0010 -1.7035 -1.8591
26126SOL    HW290358  13.545  13.686   7.402  1.1642  0.3960  0.8001
26127SOL     OW90359   2.348   7.350   5.370  0.1649 -0.3946 -0.4858
26127SOL    HW190360   2.363   7.257   5.355 -1.2497 -0.5150 -1.2859
26127SOL    HW290361   2.263   7.368   5.330  0.6290  1.3447 -0.8010
26128SOL     OW90362   9.739  11.550   6.916 -0.1563  0.3242 -0.0047
26128SOL    HW190363   9.686  11.629   6.929  0.5887  0.8922 -0.3894
26128SOL    HW290364   9.687  11.496   6.856  0.3327  1.5087 -1.5456
26129SOL     OW90365   8.898   4.086  13.828  0.0519 -0.4306  0.0283
26129SOL    HW190366   8.953   4.062  13.903 -0.5473  0.8490  0.9301
26129SOL    HW290367   8.960   4.108  13.759  0.6345 -0.9465  0.3764
26130SOL     OW90368   7.248   9.411   0.145 -0.1693  0.0258  0.1114
26130SOL    HW190369   7.232   9.497   0.185 -0.5506  0.3548 -0.7172
26130SOL    HW290370   7.167   9.362   0.161 -0.1223 -0.0265  0.1914
26131SOL     OW90371  11.673   4.105  12.857  0.0509 -0.5348 -0.3641
26131SOL    HW190372  11.723   4.153  12.792  0.7426 -0.6412  0.0841
26131SOL    HW290373  11.624   4.172  12.904  0.6322 -0.3106 -0.0702
26132SOL     OW90374   6.987   4.694   2.829 -0.1459 -0.6000 -0.1197
26132SOL    HW190375   6.940   4.769   2.792  0.1246 -0.2986  0.1375
26132SOL    HW290376   7.002   4.636   2.755  1.5233  0.5783 -0.7544
26133SOL     OW90377   9.188  10.237   7.390 -0.0861  0.1261 -0.1887
26133SOL    HW190378   9.169  10.245   7.484 -1.5082 -1.2929 -0.3038
26133SOL    HW290379   9.155  10.150   7.367 -0.7265  0.8514 -2.2223
26134SOL     OW90380  13.882  11.456  11.156 -0.0196 -0.1556 -0.0997
26134SOL    HW190381  13.890  11.469  11.061  0.9579 -1.7149 -0.2599
26134SOL    HW290382  13.960  11.406  11.180 -0.5861 -0.3474  1.4276
26135SOL     OW90383   0.608  11.497  12.431  0.0080 -0.1361 -0.3479
26135SOL    HW190384   0.526  11.450  12.444  0.0580 -0.5261 -1.3548
26135SOL    HW290385   0.645  11.506  12.519 -0.5637 -0.9571 -0.0161
26136SOL     OW90386  13.150   8.775   8.864 -0.0239  0.7618  0.0749
26136SOL    HW190387  13.077   8.802   8.919 -1.7051 -0.9691 -1.1609
26136SOL    HW290388  13.123   8.799   8.775  0.8106 -0.0538 -0.4230
26137SOL     OW90389   6.111  11.884   6.633 -0.0912 -0.2476 -0.1080
26137SOL    HW190390   6.031  11.832   6.640  0.8224 -2.0803 -2.1263
26137SOL    HW290391   6.091  11.950   6.566  0.1354 -0.8689 -0.8014
26138SOL     OW90392   4.275   3.340   0.171  0.2527 -0.0969  0.3489
26138SOL    HW190393   4.294   3.250   0.146  0.4980  0.6376 -2.4459
26138SOL    HW290394   4.353   3.390   0.145 -0.3981  1.1165  0.6170
26139SOL     OW90395   2.831   2.938   0.542 -0.3901  0.1913  0.3988
26139SOL    HW190396   2.871   2.918   0.458 -2.0425  0.2015 -0.4401
26139SOL    HW290397   2.837   3.033   0.551 -0.4695  0.2211  0.1389
26140SOL     OW90398   6.827   5.371   6.192  0.5897 -0.4135 -0.2059
26140SOL    HW190399   6.778   5.338   6.267 -0.1095  2.5790  0.8038
26140SOL    HW290400   6.761   5.383   6.124  0.7527 -0.5797 -0.3974
26141SOL     OW90401  10.035  10.428  12.665 -0.3829 -0.2638  0.1185
26141SOL    HW190402   9.942  10.444  12.645 -0.1200  0.4008 -0.6132
26141SOL    HW290403  10.071  10.394  12.583  0.0779 -0.2754  0.3273
26142SOL     OW90404   0.403   8.374   4.270  0.3916 -0.2282 -0.3199
26142SOL    HW190405   0.319   8.353   4.310 -0.3847  0.9028 -1.2699
26142SOL    HW290406   0.446   8.431   4.334  0.9390 -1.6541  0.6417
26143SOL     OW90407   9.798   7.779   0.916 -0.1508 -0.4578  0.2443
26143SOL    HW190408   9.764   7.733   0.992 -0.9654 -1.3115 -0.6020
26143SOL    HW290409   9.785   7.718   0.843  0.9741  0.1736 -0.5167
26144SOL     OW90410   3.233  11.845   7.119  0.0977 -0.7678  0.1013
26144SOL    HW190411   3.191  11.926   7.149 -0.2837 -0.6449 -0.7163
26144SOL    HW290412   3.217  11.844   7.024  1.5830 -0.9262 -0.1725
26145SOL     OW90413   6.927   6.620   8.788  0.0049 -0.4662  0.3529
26145SOL    HW190414   6.853   6.665   8.747  0.4397  0.3163  0.3969
26145SOL    HW290415   6.955   6.556   8.723 -0.0044  0.0063 -0.1271
26146SOL     OW90416  12.871   9.562   2.235 -0.5361  0.5765 -0.2150
26146SOL    HW190417  12.956   9.519   2.222 -0.9809 -0.1688 -0.6726
26146SOL    HW290418  12.855   9.555   2.329 -0.7128 -0.4672 -0.3175
26147SOL     OW90419   8.494  10.397  12.566 -0.2600 -0.2225 -0.0321
26147SOL    HW190420   8.399  10.397  12.576 -0.2152  1.7349  1.0292
26147SOL    HW290421   8.525  10.340  12.636 -0.6314  0.0177  0.3377
26148SOL     OW90422   4.070   8.271  11.004  0.3337 -0.0385  0.7155
26148SOL    HW190423   4.052   8.215  10.928  0.0783  1.4923 -0.3848
26148SOL    HW290424   4.137   8.332  10.974  2.2024 -1.0838  2.5811
26149SOL     OW90425   6.081   9.677   9.914 -0.2483 -0.0770 -0.5277
26149SOL    HW190426   6.013   9.613   9.894 -1.9916  0.8085  2.0674
26149SOL    HW290427   6.039   9.762   9.899 -0.2805  0.5246  2.3763
26150SOL     OW90428   9.541   5.725   8.041 -0.2891 -0.2649  0.0784
26150SOL    HW190429   9.570   5.816   8.035  1.0525 -0.5372  1.5871
26150SOL    HW290430   9.509   5.715   8.130 -0.5320 -1.2374 -0.1006
26151SOL     OW90431   6.399   7.590   5.844  0.6099 -0.0673 -0.3506
26151SOL    HW190432   6.460   7.592   5.918 -0.0742  1.5412  0.2255
26151SOL    HW290433   6.434   7.522   5.786  1.2714 -1.2173  1.3341
26152SOL     OW90434  13.363   2.928   0.070 -0.4569  0.2734  0.4003
26152SOL    HW190435  13.360   2.914   0.165 -0.1281  1.0416  0.5295
26152SOL    HW290436  13.321   2.851   0.033  1.6307 -1.2880  1.0649
26153SOL     OW90437  13.101  10.705  12.622  0.0649  0.1199  0.1133
26153SOL    HW190438  13.125  10.794  12.598 -3.9302  1.0468 -1.1723
26153SOL    HW290439  13.095  10.658  12.539 -1.0098 -0.3749  0.4451
26154SOL     OW90440  10.999   0.854  11.377  0.0055  0.3543  0.4404
26154SOL    HW190441  10.967   0.820  11.460 -0.9116  0.0114 -0.0480
26154SOL    HW290442  11.090   0.823  11.372  0.3580  1.1062  1.6993
26155SOL     OW90443  10.055   6.276  10.069  0.2178 -0.3300  0.2145
26155SOL    HW190444  10.016   6.229   9.995 -0.8837  1.5716 -0.5013
26155SOL    HW290445  10.129   6.323  10.031 -0.7609  1.1989  0.1024
26156SOL     OW90446   0.613   2.500   8.110 -0.4283 -0.3846 -0.1044
26156SOL    HW190447   0.680   2.568   8.118  0.1324 -0.5504 -2.4392
26156SOL    HW290448   0.532   2.542   8.140  0.3767  0.4489  0.9470
26157SOL     OW90449   8.582   5.061  13.241 -0.0805  0.2040  0.0404
26157SOL    HW190450   8.546   5.137  13.287 -1.3913 -0.7846  0.6860
26157SOL    HW290451   8.557   5.074  13.150 -1.4669 -0.0728  0.3535
26158SOL     OW90452   2.704   0.089   0.275 -0.2503  0.1813  0.4558
26158SOL    HW190453   2.729   0.020   0.336 -0.1253 -0.8084 -0.6780
26158SOL    HW290454   2.646   0.045   0.213 -0.5203  1.2112 -0.0359
26159SOL     OW90455   9.252   1.643   2.001  0.4042 -0.3439 -0.1313
26159SOL    HW190456   9.324   1.685   2.047 -0.9259  0.9881  0.8203
26159SOL    HW290457   9.204   1.595   2.068 -0.4352 -0.0088 -0.4806
26160SOL     OW90458   0.116   4.993  12.006  0.2340 -0.6598 -0.1108
26160SOL    HW190459   0.057   5.029  12.072 -1.1175  0.3168 -1.7460
26160SOL    HW290460   0.175   5.065  11.984 -0.5094 -0.3464 -1.2133
26161SOL     OW90461  11.904   2.798   5.047 -0.4613 -0.1787  0.1103
26161SOL    HW190462  11.911   2.726   5.109 -0.6186  0.0223  0.3658
26161SOL    HW290463  11.956   2.869   5.087 -1.8469  0.4929  0.8100
26162SOL     OW90464  13.915   4.294   1.926 -0.3364  0.2256  0.4428
26162SOL    HW190465  13.994   4.324   1.971 -1.0903  2.5598  0.3240
26162SOL    HW290466  13.849   4.359   1.948 -1.3203  0.2247 -2.2125
26163SOL     OW90467   5.649   5.942   5.794 -0.1521  0.1176 -0.3128
26163SOL    HW190468   5.697   5.873   5.841  1.5023  1.7781  0.5600
26163SOL    HW290469   5.677   5.931   5.703  0.8994  0.2347 -0.0212
26164SOL     OW90470  13.919  10.166   5.265  0.4637  0.0112 -0.5794
26164SOL    HW190471  13.984  10.124   5.209 -0.1026 -1.6974 -0.0028
26164SOL    HW290472  13.971  10.214   5.330  1.1239  0.0850 -1.1445
26165SOL     OW90473  10.420  13.239   2.747  0.2368  0.1837 -0.2522
26165SOL    HW190474  10.490  13.188   2.787  1.0751  0.7473 -0.9639
26165SOL    HW290475  10.455  13.264   2.661 -1.1707 -0.2542 -0.9814
26166SOL     OW90476   4.502   8.904  12.161  0.1067 -0.7180  0.1886
26166SOL    HW190477   4.481   8.915  12.254 -0.6657  1.4726 -0.1736
26166SOL    HW290478   4.434   8.955  12.116  1.4668 -0.2981 -1.4656
26167SOL     OW90479  13.928   7.199  10.285  0.3253  0.0633  0.4353
26167SOL    HW190480  13.907   7.151  10.205 -2.7824  0.9372  0.5932
26167SOL    HW290481  14.021   7.219  10.277  0.0913  0.4455 -3.1706
26168SOL     OW90482   7.627   5.418   8.656  0.7110 -0.6810  0.2010
26168SOL    HW190483   7.664   5.388   8.739 -2.3352 -1.4612  1.4385
26168SOL    HW290484   7.701   5.454   8.608  2.7462 -0.8500  2.9502
26169SOL     OW90485  11.855  10.803  10.280  0.0685  0.0168 -0.1777
26169SOL    HW190486  11.810  10.760  10.353 -0.8856  0.4869 -0.4711
26169SOL    HW290487  11.798  10.786  10.204 -0.5448  2.0911 -0.2377
26170SOL     OW90488   9.095   1.869   3.208  0.5083  0.1039  0.4473
26170SOL    HW190489   9.055   1.809   3.271  1.0179  1.8900  2.5939
26170SOL    HW290490   9.188   1.845   3.210  0.4342 -0.2259 -0.0811
26171SOL     OW90491   9.600  12.503   6.708 -0.2647 -0.2469 -1.1920
26171SOL    HW190492   9.687  12.477   6.737 -0.5612 -1.1257 -1.0811
26171SOL    HW290493   9.611  12.523   6.615  0.1007 -0.1248 -1.1243
26172SOL     OW90494   8.970   7.456   2.067  0.1242  0.5776  0.5770
26172SOL    HW190495   8.998   7.434   1.978 -1.7781 -0.5512  0.1842
26172SOL    HW290496   9.044   7.431   2.123  0.1640 -1.7630 -0.4099
26173SOL     OW90497   7.814   0.075   4.425 -0.1489 -0.6426  0.9593
26173SOL    HW190498   7.811   0.149   4.486  0.1680  0.4095 -0.2721
26173SOL    HW290499   7.891   0.025   4.453  0.2739  0.0882  1.1304
26174SOL     OW90500   5.951  13.926  13.505  0.1813 -0.5907 -0.0995
26174SOL    HW190501   5.899  14.002  13.532 -0.8525 -0.7992 -1.4440
26174SOL    HW290502   5.980  13.887  13.588 -1.0621  0.0438  0.6727
26175SOL     OW90503   6.822  13.087  13.440  0.6080 -0.0969 -0.6731
26175SOL    HW190504   6.748  13.031  13.461  1.4651 -1.3429 -0.8226
26175SOL    HW290505   6.818  13.159  13.503  0.8010 -1.5711  1.1064
26176SOL     OW90506   4.713  12.902   4.093 -0.1917  0.4277 -0.3497
26176SOL    HW190507   4.692  12.985   4.051  1.5803  1.0582 -0.0991
26176SOL    HW290508   4.646  12.892   4.161  0.4882  2.5126  0.7202
26177SOL     OW90509   5.730   2.843  11.487  0.2649 -0.0233 -0.4467
26177SOL    HW190510   5.768   2.883  11.409  1.3803  2.2361  1.1550
26177SOL    HW290511   5.675   2.911  11.525 -2.4142 -1.9310 -0.5506
26178SOL     OW90512  10.380   6.213   2.478 -0.7660 -0.0838  0.2134
26178SOL    HW190513  10.473   6.203   2.495 -0.9473  0.4608  1.6656
26178SOL    HW290514  10.371   6.198   2.383  0.3752 -2.9889  0.4585
26179SOL     OW90515  12.237  13.339   2.004  0.1259 -0.4955  0.4391
26179SOL    HW190516  12.250  13.433   2.016 -2.6257 -0.1780  1.8448
26179SOL    HW290517  12.239  13.303   2.093  3.5551 -2.2929 -0.1818
26180SOL     OW90518   7.252   3.824   3.328  0.1108  0.0233  0.1068
26180SOL    HW190519   7.314   3.856   3.262 -1.0096  1.3245 -0.3704
26180SOL    HW290520   7.307   3.785   3.396  1.5258  1.8487  0.0892
26181SOL     OW90521   3.156  10.133   5.247  0.3960  0.5099  0.1880
26181SOL    HW190522   3.127  10.187   5.320  0.5396 -0.2917  0.8540
26181SOL    HW290523   3.080  10.129   5.189  1.0297  3.1940 -1.0012
26182SOL     OW90524  10.302   9.394   9.141 -0.3397  0.0280  0.0594
26182SOL    HW190525  10.312   9.478   9.185 -1.3392 -0.4005  1.1442
26182SOL    HW290526  10.384   9.349   9.156  0.5161  1.0792 -1.1953
26183SOL     OW90527   0.152   1.599   5.187  0.1560  0.2733  0.0342
26183SOL    HW190528   0.199   1.679   5.162  1.1692 -0.5932 -0.9298
26183SOL    HW290529   0.179   1.534   5.123 -1.4522 -0.5962  0.1875
26184SOL     OW90530   3.396   2.013   4.650  0.2406 -0.6207  0.0042
26184SOL    HW190531   3.377   1.920   4.662  3.3449 -1.3678  0.0473
26184SOL    HW290532   3.433   2.041   4.734 -0.5008  0.6302 -0.0655
26185SOL     OW90533   9.241  13.687   7.900  0.1781 -0.2953  0.1233
26185SOL    HW190534   9.211  13.751   7.836  0.2427  0.4248  0.7869
26185SOL    HW290535   9.334  13.676   7.882  0.3844  0.5503  0.6147
26186SOL     OW90536   8.480   9.859  11.708  0.0900 -0.4318  0.1492
26186SOL    HW190537   8.400   9.907  11.687  1.3465  2.5542  1.5798
26186SOL    HW290538   8.550   9.907  11.664  1.3443 -1.7545  0.5930
26187SOL     OW90539   7.497  12.087   0.901  0.0099 -0.7991  0.0802
26187SOL    HW190540   7.433  12.156   0.883 -0.4310 -1.4479 -0.9486
26187SOL    HW290541   7.458  12.037   0.973  0.1330 -0.2348  0.5447
26188SOL     OW90542   0.309  11.118   1.706 -0.4368 -0.2054 -0.1314
26188SOL    HW190543   0.337  11.148   1.620  2.4136 -0.0634  0.7453
26188SOL    HW290544   0.346  11.030   1.714 -0.6360 -0.2075  0.9546
26189SOL     OW90545   1.599   0.614   9.812  0.0219 -0.0603 -0.0760
26189SOL    HW190546   1.607   0.699   9.768 -0.5854 -0.4178 -0.8900
26189SOL    HW290547   1.668   0.560   9.774  1.8599  0.6817  1.9921
26190SOL     OW90548   2.693   3.060  10.066 -0.2895  0.5974 -0.1852
26190SOL    HW190549   2.774   3.109  10.080  1.3701 -1.9797  0.0776
26190SOL    HW290550   2.703   3.021   9.979 -0.5702 -0.8325  0.3904
26191SOL     OW90551  12.878   8.423  11.443  0.0182  0.5916 -0.6175
26191SOL    HW190552  12.875   8.488  11.513  2.1787 -0.5038  0.6127
26191SOL    HW290553  12.880   8.339  11.489  0.0071 -0.2193 -2.0474
26192SOL     OW90554   1.114   0.439   3.084  0.1321 -0.4654 -0.1297
26192SOL    HW190555   1.204   0.414   3.061  0.4425  0.9154 -0.4852
26192SOL    HW290556   1.065   0.429   3.002  0.5429  1.2959 -0.6295
26193SOL     OW90557  13.077   8.628   5.436 -0.4822 -0.0783  0.2515
26193SOL    HW190558  12.989   8.646   5.401 -0.8692 -2.3597 -0.0867
26193SOL    HW290559  13.061   8.575   5.514  0.6091 -2.6542 -1.1822
26194SOL     OW90560  10.223   4.751   7.762 -0.0631  0.1180  0.3451
26194SOL    HW190561  10.303   4.719   7.804  0.4187 -0.2061 -0.7914
26194SOL    HW290562  10.207   4.690   7.691 -0.4432  1.0668 -0.4129
26195SOL     OW90563   4.234   9.903   1.057 -0.0471  0.4483  0.2979
26195SOL    HW190564   4.317   9.910   1.010 -0.2943 -1.8103 -0.5761
26195SOL    HW290565   4.230   9.982   1.111  1.9651  1.3174 -0.7405
26196SOL     OW90566  10.794   4.685  11.629 -0.1990 -0.4945  0.4367
26196SOL    HW190567  10.768   4.748  11.696  1.5730  0.6071  0.1463
26196SOL    HW290568  10.739   4.706  11.554 -0.3191  0.0263  0.6710
26197SOL     OW90569   7.659   4.775  13.208 -0.0802  0.6275  0.5300
26197SOL    HW190570   7.567   4.752  13.221 -0.8481  1.9559 -1.8833
26197SOL    HW290571   7.691   4.712  13.144  0.4778  0.6476  0.7782
26198SOL     OW90572   2.146   1.841  13.298  0.0555 -0.2955  0.3241
26198SOL    HW190573   2.136   1.746  13.288  0.0488 -0.1762 -0.8835
26198SOL    HW290574   2.235   1.860  13.268 -0.8470  0.4117 -2.0878
26199SOL     OW90575   1.494   0.734   7.943  0.0059  0.2294 -0.3112
26199SOL    HW190576   1.583   0.746   7.908  0.4241  0.6985  0.8657
26199SOL    HW290577   1.483   0.806   8.005 -1.1370  0.0584 -0.2959
26200SOL     OW90578   9.421   4.280  12.059  0.0183 -0.6765  0.3396
26200SOL    HW190579   9.455   4.309  11.974  0.7160 -2.5770 -0.0721
26200SOL    HW290580   9.326   4.279  12.048 -0.1095  1.8895  0.5705
26201SOL     OW90581  11.930   5.678   8.992  0.4445 -0.0345  0.4767
26201SOL    HW190582  11.840   5.680   8.959  0.9084 -2.0024 -1.0402
26201SOL    HW290583  11.923   5.715   9.080 -1.7310  0.4703  0.1639
26202SOL     OW90584   5.692   1.153   6.938  0.1781 -0.0316  0.4596
26202SOL    HW190585   5.615   1.167   6.993 -0.1049 -2.4253  0.7735
26202SOL    HW290586   5.657   1.135   6.851  0.4879  0.7199  0.1738
26203SOL     OW90587  10.978   2.012  10.738 -0.2125  0.3169 -1.0110
26203SOL    HW190588  10.906   2.072  10.753  0.4374  0.4332  2.5331
26203SOL    HW290589  10.948   1.928  10.773  1.1081  0.2040 -0.0688
26204SOL     OW90590  10.306   7.207  11.426  0.1368 -0.2209  0.1082
26204SOL    HW190591  10.351   7.183  11.507 -1.0069 -1.3580  0.4319
26204SOL    HW290592  10.264   7.127  11.396  1.2668 -0.0517 -2.1374
26205SOL     OW90593  12.721   9.922   9.934  0.3969 -0.2212 -0.4122
26205SOL    HW190594  12.775   9.965  10.000 -0.0104  0.3095 -0.4196
26205SOL    HW290595  12.708   9.833   9.967  0.3528 -0.0138  0.1286
26206SOL     OW90596   9.462   8.951  12.881 -0.0450  0.6284 -0.6778
26206SOL    HW190597   9.508   9.035  12.892 -0.9861  1.0640  0.1573
26206SOL    HW290598   9.370   8.976  12.871 -0.6087 -0.3474  1.4746
26207SOL     OW90599   4.076  10.153  11.159 -0.2542 -0.1634  0.2924
26207SOL    HW190600   4.069  10.248  11.167 -1.1599 -0.1816 -0.1832
26207SOL    HW290601   4.153  10.139  11.104  0.4053  0.2548  1.0795
26208SOL     OW90602   6.743  11.779   6.856  0.4806  0.2597  0.1255
26208SOL    HW190603   6.789  11.703   6.889  2.6142  0.7143 -1.5832
26208SOL    HW290604   6.758  11.847   6.922  0.7518 -0.1056  0.4395
26209SOL     OW90605  12.915   4.894   9.447  0.0330  0.0092 -0.1259
26209SOL    HW190606  12.941   4.805   9.470 -0.1912  0.1283  0.5915
26209SOL    HW290607  12.997   4.940   9.431  0.3457  0.4782  2.4445
26210SOL     OW90608   5.687   4.843   2.373  0.3275  0.7395 -0.9649
26210SOL    HW190609   5.653   4.864   2.460  0.0882  0.0695 -0.8875
26210SOL    HW290610   5.656   4.914   2.317 -0.2304  0.7398 -0.6663
26211SOL     OW90611   3.847   5.317   8.614 -0.2873 -0.2079 -0.1653
26211SOL    HW190612   3.905   5.393   8.623 -0.9593  0.3091 -0.1699
26211SOL    HW290613   3.825   5.314   8.521 -2.5766  1.3496  0.2463
26212SOL     OW90614   6.325   2.623   4.660 -0.0925 -0.4345  0.5225
26212SOL    HW190615   6.389   2.692   4.680 -0.4311  0.2752 -0.6795
26212SOL    HW290616   6.243   2.670   4.644 -1.3983 -1.4289  3.5648
26213SOL     OW90617   5.762   1.191  10.306  0.0775 -0.0096  0.3347
26213SOL    HW190618   5.857   1.197  10.321  0.3026  0.5212 -1.1239
26213SOL    HW290619   5.755   1.160  10.216 -1.1131  3.1785 -0.7697
26214SOL     OW90620   2.230   8.061   5.037 -0.8533 -0.1469  0.1655
26214SOL    HW190621   2.157   8.012   5.075 -1.1531  1.0320  1.1737
26214SOL    HW290622   2.211   8.063   4.943 -0.6816 -2.1585  0.0602
26215SOL     OW90623   1.951  12.332  10.507  0.1332 -0.7047  0.2164
26215SOL    HW190624   1.945  12.382  10.588 -0.6148 -1.3433  0.5629
26215SOL    HW290625   1.998  12.390  10.447 -0.8079  0.4640  0.5683
26216SOL     OW90626   1.136   7.579   2.739  0.1448  0.7177  0.3194
26216SOL    HW190627   1.218   7.582   2.690 -0.0791  0.6085 -0.0592
26216SOL    HW290628   1.068   7.588   2.673 -0.1558  0.6423  0.6178
26217SOL     OW90629   0.173   4.879   3.901  0.0634 -0.3629  0.0961
26217SOL    HW190630   0.225   4.943   3.852 -2.0661 -0.0504 -1.9341
26217SOL    HW290631   0.191   4.796   3.857 -0.2768 -0.4434  0.1078
26218SOL     OW90632   4.046  12.865  12.796  0.3609 -0.2617 -0.0783
26218SOL    HW190633   4.054  12.920  12.717  0.4047  2.4417  1.6867
26218SOL    HW290634   4.133  12.828  12.808  0.9142  0.9302 -0.2199
26219SOL     OW90635   5.117   2.826  12.672  0.1937  0.1678  0.0313
26219SOL    HW190636   5.112   2.922  12.667  0.1554  0.1850  0.3783
26219SOL    HW290637   5.031   2.796  12.641  0.9944  0.1534 -2.3635
26220SOL     OW90638  12.599   7.892  11.399  0.2094  0.1552 -0.2662
26220SOL    HW190639  12.589   7.986  11.412  1.7429 -0.0227  3.0231
26220SOL    HW290640  12.510   7.859  11.386 -0.4349  1.8966 -0.4702
26221SOL     OW90641   3.304   6.747   7.815  0.1600  0.4148 -0.1473
26221SOL    HW190642   3.335   6.825   7.769  1.0050  0.2333  0.0948
26221SOL    HW290643   3.209   6.757   7.819  0.2371  1.2845 -0.3807
26222SOL     OW90644   2.535  13.992   8.429  0.2940 -0.3882  0.1970
26222SOL    HW190645   2.565  13.918   8.482  1.5330 -0.4302 -0.5207
26222SOL    HW290646   2.510  13.952   8.345 -1.8786 -0.3579  0.7757
26223SOL     OW90647   5.298   6.488   7.274 -0.1723  0.2278  0.2613
26223SOL    HW190648   5.312   6.422   7.207 -1.7359  0.9075 -0.7997
26223SOL    HW290649   5.203   6.501   7.276  0.0107  1.7359  1.1215
26224SOL     OW90650  13.675  11.368  11.627 -0.1457  0.1955  0.3891
26224SOL    HW190651  13.670  11.440  11.563  1.0662  0.4079  0.5150
26224SOL    HW290652  13.767  11.341  11.626 -0.2190 -0.1640  1.6551
26225SOL     OW90653   3.589   7.483   6.146  0.0368 -0.2972 -0.2482
26225SOL    HW190654   3.670   7.531   6.165  0.0828 -0.6083  0.3781
26225SOL    HW290655   3.520   7.535   6.188 -0.0196 -0.3255 -0.3059
26226SOL     OW90656   8.939  11.576  13.096 -0.1004  0.4299  0.2054
26226SOL    HW190657   8.880  11.630  13.149  1.1851  2.4820 -0.3152
26226SOL    HW290658   8.893  11.566  13.012 -0.1986  1.1211  0.1638
26227SOL     OW90659   5.995  13.001  10.296  0.2012 -0.1247  0.1738
26227SOL    HW190660   6.001  13.074  10.358 -0.3162  0.0371  0.0354
26227SOL    HW290661   6.084  12.994  10.260  1.1344 -1.6944  2.5579
26228SOL     OW90662   2.794   6.418   0.345 -0.3447  0.1493  0.2716
26228SOL    HW190663   2.820   6.327   0.331 -0.3544  0.0979  0.5828
26228SOL    HW290664   2.715   6.412   0.398 -0.6035  0.3274 -0.0853
26229SOL     OW90665  11.545   2.829   5.233 -0.7858 -0.2244  0.0369
26229SOL    HW190666  11.631   2.816   5.273 -0.4539  0.6009 -0.3889
26229SOL    HW290667  11.564   2.861   5.145 -1.5315 -0.3874 -0.1926
26230SOL     OW90668   5.699  10.220   7.651  0.4255  0.1427  0.6044
26230SOL    HW190669   5.763  10.260   7.593 -1.3771  2.8764  0.3000
26230SOL    HW290670   5.653  10.156   7.595  1.2644 -0.0888  0.1641
26231SOL     OW90671   5.982   1.058   8.754  0.4974 -0.0111  0.0411
26231SOL    HW190672   5.956   1.119   8.823 -0.0212  1.0104 -1.0227
26231SOL    HW290673   5.973   1.109   8.673  0.4357 -1.3898 -0.8392
26232SOL     OW90674   6.432   2.254   6.503  0.3072 -0.2532 -0.3421
26232SOL    HW190675   6.393   2.195   6.438 -0.3373  0.4107 -0.5784
26232SOL    HW290676   6.513   2.211   6.529 -0.2858 -1.3906 -0.2879
26233SOL     OW90677   3.224   2.168  12.250  0.2748 -0.1082 -0.1652
26233SOL    HW190678   3.247   2.075  12.243  2.7370  0.2078  2.1851
26233SOL    HW290679   3.137   2.168  12.291 -0.5520 -1.3179 -1.7947
26234SOL     OW90680   4.897  12.431   5.935 -0.2047 -0.4149 -0.2887
26234SOL    HW190681   4.958  12.500   5.908 -0.5819  0.1019  0.1348
26234SOL    HW290682   4.812  12.475   5.939 -0.3916 -0.8065  0.3644
26235SOL     OW90683  13.841   7.012   2.169  0.3523 -0.2167  0.1175
26235SOL    HW190684  13.887   7.087   2.130 -0.6182  0.8369  0.9038
26235SOL    HW290685  13.772   6.991   2.107  1.4621 -1.4022 -0.7701
26236SOL     OW90686  13.361   7.658   6.886 -0.2368 -0.4530 -0.3420
26236SOL    HW190687  13.426   7.603   6.930  1.7849  1.3033 -0.9394
26236SOL    HW290688  13.319   7.600   6.822  2.1387 -1.2622 -1.2812
26237SOL     OW90689  10.186   6.374  13.798  0.3675 -0.4224 -0.4337
26237SOL    HW190690  10.273   6.360  13.836 -0.3754 -1.8849  0.8497
26237SOL    HW290691  10.159   6.460  13.831  0.2070 -1.1756  1.4938
26238SOL     OW90692  10.335   4.003   7.141  0.3094  0.4786 -0.2545
26238SOL    HW190693  10.367   3.915   7.123  1.6788  0.9909 -0.4110
26238SOL    HW290694  10.358   4.054   7.062  2.8865  1.8324  1.2417
26239SOL     OW90695  10.926  12.561   6.939  0.3153 -0.2410  0.1109
26239SOL    HW190696  10.992  12.539   7.004  0.9015 -1.0937 -0.7501
26239SOL    HW290697  10.972  12.614   6.874 -0.4391  1.2530  0.7489
26240SOL     OW90698   0.719  12.541  10.813 -0.0774  0.1543  0.5588
26240SOL    HW190699   0.671  12.460  10.829 -0.0567 -0.0230 -0.2330
26240SOL    HW290700   0.686  12.573  10.729  2.2075 -0.7704 -0.7797
26241SOL     OW90701   9.735   0.847  10.675 -0.0964 -0.3051  0.2375
26241SOL    HW190702   9.699   0.834  10.587 -0.0247 -0.3103  0.2094
26241SOL    HW290703   9.659   0.864  10.730  0.0216  1.9032 -0.2007
26242SOL     OW90704   0.784   9.667   3.037 -0.1783 -0.4647  0.1796
26242SOL    HW190705   0.782   9.761   3.018 -2.7592 -0.6384 -0.7497
26242SOL    HW290706   0.852   9.632   2.980 -1.1274  0.4575 -1.5849
26243SOL     OW90707  10.228  10.649  13.390  0.0095 -0.3428 -0.8323
26243SOL    HW190708  10.159  10.629  13.454  0.5498 -1.3192 -0.5372
26243SOL    HW290709  10.295  10.694  13.441 -0.5958  1.0542 -1.2182
26244SOL     OW90710  12.043   2.186   9.067  0.1397 -0.0331  0.3002
26244SOL    HW190711  12.034   2.120   9.136 -1.6050  1.1161  1.2515
26244SOL    HW290712  11.988   2.154   8.996 -3.4761  1.7930  1.9986
26245SOL     OW90713  10.033   3.836   8.599 -0.0301  0.1524  0.1620
26245SOL    HW190714   9.946   3.802   8.622 -0.5138  1.6868  0.7773
26245SOL    HW290715  10.085   3.827   8.678  0.5452 -1.1857 -0.3391
26246SOL     OW90716   3.744   4.836   3.929 -0.3820 -0.2745 -0.0231
26246SOL    HW190717   3.727   4.793   4.013 -0.3473 -3.0521 -1.3160
26246SOL    HW290718   3.663   4.881   3.908 -0.1782  1.0328  1.7482
26247SOL     OW90719  13.406   3.362  11.385  0.1547  0.4125  0.1186
26247SOL    HW190720  13.476   3.297  11.380  2.3525  2.6136  0.0493
26247SOL    HW290721  13.417   3.414  11.304 -0.3138  1.9366  0.9960
26248SOL     OW90722   9.392   0.540   7.068  0.4116 -0.3817 -0.5167
26248SOL    HW190723   9.323   0.477   7.090 -1.0762 -0.4182 -4.4188
26248SOL    HW290724   9.472   0.501   7.101 -1.0475 -1.7311  1.7220
26249SOL     OW90725   3.501  11.603   9.619  0.5678  0.2842  0.2320
26249SOL    HW190726   3.475  11.611   9.527 -2.0170 -2.8889  0.5050
26249SOL    HW290727   3.440  11.660   9.666  0.2250 -0.0201  0.1592
26250SOL     OW90728  10.282   7.061   2.301 -0.0254 -0.1344 -0.2955
26250SOL    HW190729  10.326   7.144   2.285  0.1987  0.2346  1.9290
26250SOL    HW290730  10.333   6.997   2.251  1.9494  0.5698  0.6734
26251SOL     OW90731  10.516   1.090  10.233 -0.2823  0.5045  0.2759
26251SOL    HW190732  10.490   1.024  10.296 -0.2633 -0.2471 -0.4864
26251SOL    HW290733  10.442   1.151  10.230 -0.3895  0.4097  0.8227
26252SOL     OW90734   7.071  12.312   9.577  0.1283 -0.1155 -0.1568
26252SOL    HW190735   7.006  12.272   9.521 -1.0953  0.7834  0.5551
26252SOL    HW290736   7.047  12.284   9.666  0.1558  0.9277  0.1984
26253SOL     OW90737   8.183   5.623   8.986  0.3760  0.1424 -0.4195
26253SOL    HW190738   8.170   5.555   9.051 -0.0377  0.7202  0.1069
26253SOL    HW290739   8.278   5.635   8.982  0.3850  0.3316  0.3128
26254SOL     OW90740   0.312  12.957   4.548  0.0037 -0.6501 -0.5293
26254SOL    HW190741   0.385  12.915   4.592 -0.2213  0.2725  0.7575
26254SOL    HW290742   0.234  12.918   4.588 -0.2195 -0.6421 -0.9424
26255SOL     OW90743   3.955   6.478  12.730  0.1532 -0.1773 -0.2423
26255SOL    HW190744   3.968   6.557  12.678 -2.6398 -0.5943 -1.8035
26255SOL    HW290745   3.913   6.509  12.811  1.7828  0.1648  0.5164
26256SOL     OW90746   2.285   6.039   9.983  0.0461 -0.7008  0.6340
26256SOL    HW190747   2.299   6.050   9.888  0.4998 -2.0134  0.5401
26256SOL    HW290748   2.190   6.043   9.993 -0.0371 -1.0396  0.0532
26257SOL     OW90749   8.110  13.415   8.923  0.2789  0.3650  0.3922
26257SOL    HW190750   8.123  13.321   8.912 -0.6356  0.1529  1.0098
26257SOL    HW290751   8.168  13.438   8.996 -0.1266  0.1034  0.8068
26258SOL     OW90752  10.667   3.621  11.840  0.4843  0.4582 -0.3079
26258SOL    HW190753  10.612   3.698  11.823  0.7125  0.2675 -2.0062
26258SOL    HW290754  10.730   3.620  11.769  0.6946 -1.1325 -0.1290
26259SOL     OW90755  11.018  11.266   4.125 -0.3511 -0.4067  0.0441
26259SOL    HW190756  11.091  11.316   4.088  0.6966 -1.3823  0.6981
26259SOL    HW290757  10.988  11.318   4.199 -1.3513  0.7412 -1.1429
26260SOL     OW90758   4.352   4.841  13.427  0.0398  0.7975 -0.2915
26260SOL    HW190759   4.444   4.850  13.453  0.3549  0.8392 -1.3687
26260SOL    HW290760   4.308   4.916  13.468  0.5660  1.0282 -0.1364
26261SOL     OW90761  13.775   4.238  13.953 -0.1272 -0.4260  0.3914
26261SOL    HW190762  13.854   4.186  13.972  0.3039  0.5683  1.4497
26261SOL    HW290763  13.773   4.304  14.023 -1.8454 -0.3651  0.3165
26262SOL     OW90764   0.795   2.631  10.569 -0.5853  0.6884  0.2996
26262SOL    HW190765   0.761   2.633  10.480  0.4752  1.0955 -0.1121
26262SOL    HW290766   0.729   2.583  10.619 -1.4447  0.9080 -0.5894
26263SOL     OW90767   5.751   9.255   4.691 -0.4245 -0.5708  0.5082
26263SOL    HW190768   5.756   9.342   4.653  0.4097 -1.1765 -0.8730
26263SOL    HW290769   5.778   9.266   4.782 -1.4058  0.7627  0.6637
26264SOL     OW90770  13.567   8.922   9.637 -0.0103 -0.1067  0.1804
26264SOL    HW190771  13.585   8.867   9.713 -2.6848  0.1673  1.0895
26264SOL    HW290772  13.595   9.010   9.664  0.5804 -0.2937  0.1983
26265SOL     OW90773   3.281   5.096  10.558 -0.4803  0.6085 -0.1320
26265SOL    HW190774   3.292   5.135  10.471 -2.8571  2.1223  0.1481
26265SOL    HW290775   3.212   5.031  10.547 -0.8140  0.8252  0.6257
26266SOL     OW90776   2.994   5.317   4.864 -0.1429 -0.0427  0.7154
26266SOL    HW190777   3.023   5.392   4.812  0.9559 -0.2941  0.9416
26266SOL    HW290778   3.022   5.241   4.814 -0.0286 -0.2942  1.1614
26267SOL     OW90779   8.768   2.373   1.967  0.7908 -0.2682 -0.0409
26267SOL    HW190780   8.730   2.289   1.944 -1.2046  0.6853 -0.4189
26267SOL    HW290781   8.768   2.423   1.885 -0.1112  0.8444  0.6119
26268SOL     OW90782   9.170   7.310  11.453 -0.5225 -0.2054  0.1830
26268SOL    HW190783   9.257   7.310  11.412  0.4983 -2.2578  2.1390
26268SOL    HW290784   9.177   7.370  11.526 -0.6206 -0.6678  0.5769
26269SOL     OW90785  13.395  11.536   5.184  0.0116 -0.2284 -0.3186
26269SOL    HW190786  13.306  11.501   5.180 -0.0932 -0.0413  0.3145
26269SOL    HW290787  13.416  11.559   5.093 -0.0388 -1.6225 -0.7070
26270SOL     OW90788   5.351   6.939  12.740  0.1255 -0.1004  0.1098
26270SOL    HW190789   5.289   6.866  12.737 -1.1294  0.9195 -0.1763
26270SOL    HW290790   5.346   6.970  12.831  3.1959 -2.3810  1.2004
26271SOL     OW90791  12.717   9.357  12.914  0.0710  0.0235  0.3028
26271SOL    HW190792  12.732   9.388  13.003 -0.1356  3.0896 -0.6287
26271SOL    HW290793  12.628   9.385  12.893  0.3268 -0.1061 -1.0630
26272SOL     OW90794  13.226  10.592   7.497  0.2650  0.4973 -0.3264
26272SOL    HW190795  13.159  10.526   7.483 -0.9648  1.7423 -0.5593
26272SOL    HW290796  13.187  10.654   7.559  1.1627  1.2909 -0.5230
26273SOL     OW90797   0.244   7.049   7.767 -0.1998  0.1234  0.5147
26273SOL    HW190798   0.304   7.035   7.840 -0.3852 -2.4086  0.2712
26273SOL    HW290799   0.299   7.082   7.697  0.5793 -0.4642  0.8360
26274SOL     OW90800   2.109  10.800  13.480  0.4311 -0.4652  0.0591
26274SOL    HW190801   2.053  10.875  13.463 -0.2529 -0.7683  0.9322
26274SOL    HW290802   2.157  10.823  13.560 -0.6590 -1.4253  1.0189
26275SOL     OW90803  10.208   3.710  10.792 -0.0654  0.1086  0.2362
26275SOL    HW190804  10.162   3.719  10.709 -1.2035  0.3518  0.8687
26275SOL    HW290805  10.208   3.798  10.830  1.4782  0.2512 -0.0042
26276SOL     OW90806   9.199   4.458   2.198 -0.1118  0.0433  0.0016
26276SOL    HW190807   9.216   4.368   2.227  1.1315  0.2594 -0.0254
26276SOL    HW290808   9.167   4.448   2.108  1.3963 -0.3005 -0.5141
26277SOL     OW90809  13.851   7.026  10.791 -0.3236 -0.6958  0.2231
26277SOL    HW190810  13.782   7.068  10.740 -0.9923 -1.0863  0.7994
26277SOL    HW290811  13.908   7.098  10.818 -1.5277 -0.1288  1.3120
26278SOL     OW90812   1.670  12.160   7.985 -0.7712 -0.1176 -0.1813
26278SOL    HW190813   1.729  12.151   7.910  1.0463  1.0726  1.0371
26278SOL    HW290814   1.632  12.247   7.975 -1.1495 -0.2766 -0.1383
26279SOL     OW90815   0.831   7.892   8.173 -0.4916 -0.5072 -0.1437
26279SOL    HW190816   0.849   7.977   8.214  1.1233 -1.3465  1.0422
26279SOL    HW290817   0.748   7.864   8.210 -0.6197  0.1878  0.1052
26280SOL     OW90818   1.042  11.110   0.112  0.1263 -0.3376  0.1089
26280SOL    HW190819   1.050  11.175   0.042  1.2478  0.4554  0.9472
26280SOL    HW290820   1.040  11.025   0.066  0.7618  0.1681 -0.8780
26281SOL     OW90821   8.059   2.697  13.542  0.3386  0.0494 -0.5499
26281SOL    HW190822   8.016   2.693  13.457 -2.9588 -2.4107  1.0000
26281SOL    HW290823   8.070   2.791  13.559 -2.3606  0.7554 -2.1379
26282SOL     OW90824   5.206  11.653  12.760 -0.2513  0.1450 -0.1049
26282SOL    HW190825   5.266  11.706  12.707  0.1252 -0.1420  0.0283
26282SOL    HW290826   5.217  11.564  12.726 -1.2669  0.2232 -0.6796
26283SOL     OW90827   9.183  13.341  11.937  0.5192 -0.1024 -0.6429
26283SOL    HW190828   9.230  13.333  11.854 -0.3896  1.5556 -1.3526
26283SOL    HW290829   9.173  13.435  11.951  1.3325 -0.2871  1.7752
26284SOL     OW90830   9.267   8.404   1.000  0.2938  0.1662 -0.1871
26284SOL    HW190831   9.188   8.412   1.053  0.2027 -0.8349 -0.1620
26284SOL    HW290832   9.236   8.378   0.914  0.6382 -0.9198  0.0079
26285SOL     OW90833   3.913   6.963   6.861 -0.4294 -0.2074  0.1509
26285SOL    HW190834   3.897   6.976   6.955 -0.5718  0.5311  0.0319
26285SOL    HW290835   3.860   7.031   6.819  0.2889  0.0051 -0.4184
26286SOL     OW90836   0.429   6.968   6.287 -0.2324  0.2539 -0.4289
26286SOL    HW190837   0.448   6.969   6.194 -1.3751 -1.9831 -0.7466
26286SOL    HW290838   0.513   6.945   6.328 -0.2386 -1.0855 -1.1210
26287SOL     OW90839   9.380  10.947   6.864  0.3942  0.7760 -0.3144
26287SOL    HW190840   9.410  11.029   6.826 -3.0110  2.9394  1.2165
26287SOL    HW290841   9.439  10.931   6.938  0.8083  2.1242 -0.3383
26288SOL     OW90842   8.314   9.632   8.832  0.1132 -0.3481 -0.9761
26288SOL    HW190843   8.365   9.598   8.906  0.9357  1.8524 -0.4509
26288SOL    HW290844   8.254   9.696   8.872  0.2236  0.5098 -2.1275
26289SOL     OW90845  12.305   8.736   6.736  0.6650  1.1693 -0.1991
26289SOL    HW190846  12.366   8.782   6.679 -0.0448  1.3042 -0.8778
26289SOL    HW290847  12.251   8.805   6.775  0.5402  1.0139 -0.0928
26290SOL     OW90848   4.239   4.438  13.676 -0.8183 -0.1044  0.3658
26290SOL    HW190849   4.194   4.356  13.657 -1.5720  0.6086 -0.9807
26290SOL    HW290850   4.250   4.437  13.772  0.3320 -2.3421  0.2718
26291SOL     OW90851   0.613   5.000  12.626  0.1422  0.7896  0.2339
26291SOL    HW190852   0.544   5.005  12.560 -1.3181  0.2631  1.6452
26291SOL    HW290853   0.632   5.091  12.648 -0.2090  0.9401 -0.0843
26292SOL     OW90854   3.398  13.575   5.044 -0.3978 -0.1869  0.2779
26292SOL    HW190855   3.390  13.594   5.138  1.3310  3.2116 -0.0940
26292SOL    HW290856   3.344  13.642   5.002 -1.6350 -2.0360 -1.2022
26293SOL     OW90857   8.207   2.802  13.063 -0.3525  0.1573 -0.5296
26293SOL    HW190858   8.209   2.854  12.982  2.0798  1.4775  0.2813
26293SOL    HW290859   8.157   2.856  13.124 -1.5897 -0.5243 -0.9032
26294SOL     OW90860  12.059   0.640   3.737  0.0392 -0.6982  0.5203
26294SOL    HW190861  12.005   0.561   3.730 -0.2791 -0.4350 -0.0326
26294SOL    HW290862  12.131   0.614   3.794 -0.1961 -1.3156  0.5501
26295SOL     OW90863  13.441   3.239   9.491  0.7388  0.0930  0.0968
26295SOL    HW190864  13.469   3.159   9.536  1.4804  0.4340  0.2415
26295SOL    HW290865  13.379   3.280   9.552  0.7343 -0.1149  0.2348
26296SOL     OW90866  11.638   9.672   3.099 -0.0040  0.3801 -0.0130
26296SOL    HW190867  11.646   9.697   3.191 -0.8488 -0.6699  0.3652
26296SOL    HW290868  11.615   9.579   3.101  0.8470  0.1177 -1.3120
26297SOL     OW90869   5.719  13.800   8.206  0.5967 -0.4708 -0.1186
26297SOL    HW190870   5.794  13.857   8.189 -0.2304  1.4165  2.0622
26297SOL    HW290871   5.663  13.851   8.264 -1.8013 -2.3033 -0.6550
26298SOL     OW90872   3.662  12.207  13.222 -0.2485  0.2689 -0.0228
26298SOL    HW190873   3.750  12.208  13.185 -0.6844 -4.0223 -1.8163
26298SOL    HW290874   3.604  12.220  13.148 -1.1132 -0.3436  0.5198
26299SOL     OW90875   4.907   3.783   7.288 -0.0073  0.0199 -0.3074
26299SOL    HW190876   4.938   3.771   7.198  1.9759  0.3619  0.2870
26299SOL    HW290877   4.975   3.745   7.343 -0.4047  1.2263  1.1070
26300SOL     OW90878  10.246   0.353  13.152 -0.2728 -0.5724  0.5908
26300SOL    HW190879  10.153   0.371  13.138 -0.7658 -1.5924  2.1643
26300SOL    HW290880  10.246   0.286  13.220  1.6342 -0.4891  0.7097
26301SOL     OW90881   6.719   4.001   1.666  0.1838  0.1680 -0.2647
26301SOL    HW190882   6.757   3.923   1.624  0.7415  1.1621 -1.6858
26301SOL    HW290883   6.726   3.983   1.760  1.0702 -1.1416 -0.5442
26302SOL     OW90884  13.622  12.919  12.649 -0.3831  0.6595 -0.2066
26302SOL    HW190885  13.624  12.952  12.739 -1.3429  0.8397 -0.2338
26302SOL    HW290886  13.535  12.943  12.617 -0.0105  0.7077 -1.2293
26303SOL     OW90887   0.894   8.720   5.839  0.0419 -0.2834 -0.3551
26303SOL    HW190888   0.831   8.715   5.767  0.1621 -0.8056 -0.4267
26303SOL    HW290889   0.958   8.652   5.820 -0.2819 -0.8708  0.5759
26304SOL     OW90890   1.868  13.118   9.486 -0.6029  0.1135  0.5499
26304SOL    HW190891   1.831  13.030   9.478  0.5222 -0.5177  1.9609
26304SOL    HW290892   1.960  13.108   9.463 -0.7154  1.1876 -0.4775
26305SOL     OW90893   5.288   5.110   4.766  0.1046  0.2801  0.3696
26305SOL    HW190894   5.299   5.204   4.751  0.6858  0.2275  0.4434
26305SOL    HW290895   5.294   5.071   4.679  2.3938  0.0796  0.5770
26306SOL     OW90896   7.230   1.196  11.256 -0.5739  0.1075 -0.3351
26306SOL    HW190897   7.245   1.121  11.197 -0.9620 -0.2111 -0.0381
26306SOL    HW290898   7.314   1.210  11.299  0.1324  1.2650 -2.0038
26307SOL     OW90899   2.576  12.897   3.264 -0.3188  0.3711  0.4715
26307SOL    HW190900   2.605  12.911   3.174 -0.4412 -0.4026  0.3075
26307SOL    HW290901   2.503  12.836   3.256 -0.3606  0.3390  1.0972
26308SOL     OW90902   1.398   7.461  13.958  0.1279  0.0626  0.4811
26308SOL    HW190903   1.381   7.425  13.871  0.5407 -0.6247  0.6773
26308SOL    HW290904   1.467   7.525  13.944  0.3612 -0.2152  0.3301
26309SOL     OW90905  11.475  13.173  11.290  0.1455  0.4055 -0.1082
26309SOL    HW190906  11.431  13.142  11.211 -1.1207 -0.2021  0.8012
26309SOL    HW290907  11.545  13.230  11.258 -0.6537  0.5665 -1.6414
26310SOL     OW90908   0.855   6.270   0.780 -0.0561 -0.4141  0.5440
26310SOL    HW190909   0.801   6.295   0.855 -0.6723 -0.3186  0.0776
26310SOL    HW290910   0.816   6.316   0.706  0.1819 -0.9689  0.0653
26311SOL     OW90911   0.503  13.408   5.954 -0.8079  0.0899  0.4280
26311SOL    HW190912   0.583  13.458   5.970  0.1307 -0.8587 -1.0790
26311SOL    HW290913   0.511  13.377   5.864 -2.4198 -0.8707  0.5708
26312SOL     OW90914   8.881   0.720   7.853  0.2560 -0.5253 -0.2536
26312SOL    HW190915   8.968   0.761   7.852 -0.4003  0.9444 -1.1465
26312SOL    HW290916   8.826   0.784   7.900 -0.3132 -1.5396  0.4999
26313SOL     OW90917   9.028   7.751   1.561 -0.0484 -0.1755  1.1919
26313SOL    HW190918   9.094   7.753   1.492  0.4563  0.7261  1.6802
26313SOL    HW290919   8.966   7.684   1.533 -0.9629  1.5006 -1.1435
26314SOL     OW90920  13.036   7.822   5.342 -0.6383 -0.5981 -0.1313
26314SOL    HW190921  13.109   7.781   5.387 -0.4816 -0.7554 -0.5209
26314SOL    HW290922  12.994   7.876   5.408 -1.4972 -2.2082  0.6776
26315SOL     OW90923   4.280  11.057   6.659 -0.0783 -0.3874 -0.0882
26315SOL    HW190924   4.284  11.124   6.727 -0.5724 -1.9449  1.5482
26315SOL    HW290925   4.200  11.008   6.677 -1.1105  0.1327 -2.8053
26316SOL     OW90926   1.507  11.138   2.259  0.9347  0.3097  0.0750
26316SOL    HW190927   1.460  11.055   2.261  2.5992 -0.6645  0.1258
26316SOL    HW290928   1.488  11.178   2.345  0.7656 -0.3807  0.3644
26317SOL     OW90929   4.226   7.603   2.206  0.2940  0.5712 -0.1795
26317SOL    HW190930   4.229   7.632   2.115 -3.2592  0.9479 -0.3047
26317SOL    HW290931   4.188   7.678   2.253 -0.0275 -0.4221  1.1956
26318SOL     OW90932   2.877   8.805   6.109 -0.4640  0.4166 -0.1302
26318SOL    HW190933   2.851   8.732   6.052  1.6285 -0.4134 -0.1028
26318SOL    HW290934   2.879   8.767   6.197  1.3080  0.2661 -0.1984
26319SOL     OW90935   9.745   8.030  13.975 -0.1513  0.5267  0.1930
26319SOL    HW190936   9.839   8.013  13.966  0.2693  1.4293  2.3937
26319SOL    HW290937   9.706   7.944  13.991  0.2537  0.1419 -0.7877
26320SOL     OW90938   0.692   6.055   3.761 -0.2894 -0.4022  0.5697
26320SOL    HW190939   0.636   6.133   3.762  1.0993  0.9373 -3.2736
26320SOL    HW290940   0.733   6.053   3.847 -0.9280  2.7727  1.0721
26321SOL     OW90941  10.045   5.920   9.534 -0.5296  0.3527  0.3509
26321SOL    HW190942  10.071   5.838   9.491  0.7427  0.2386  1.2508
26321SOL    HW290943   9.968   5.949   9.487 -0.1158 -0.5870 -0.9591
26322SOL     OW90944  10.882   7.592   4.690 -0.4345 -0.2131  0.4381
26322SOL    HW190945  10.901   7.500   4.672  0.9263  0.5087 -2.5116
26322SOL    HW290946  10.795   7.592   4.730  0.0736 -2.8307  1.7016
26323SOL     OW90947   1.540   0.276  13.383  0.1224 -0.1213  0.1703
26323SOL    HW190948   1.473   0.209  13.398 -0.3215  0.3119  0.1382
26323SOL    HW290949   1.544   0.285  13.288  0.2341 -0.1498  0.1708
26324SOL     OW90950   3.564   1.006  13.797 -0.0435  0.2908  0.3856
26324SOL    HW190951   3.569   0.966  13.884  1.2604 -2.0180 -0.6831
26324SOL    HW290952   3.547   0.934  13.737  0.8557  1.5602 -1.4979
26325SOL     OW90953  11.354   4.464   4.671  0.1898 -0.0926  0.3952
26325SOL    HW190954  11.385   4.374   4.684  1.2812  0.0681 -0.8742
26325SOL    HW290955  11.369   4.507   4.755 -0.4050 -1.0910  1.0401
26326SOL     OW90956  11.722  10.809   0.961 -0.2230 -0.3290  0.2767
26326SOL    HW190957  11.809  10.782   0.932 -0.4239 -0.8193  0.1249
26326SOL    HW290958  11.738  10.884   1.018  0.2687 -0.1531 -0.0862
26327SOL     OW90959  12.239   2.631   4.803  0.1562 -0.0635 -0.2854
26327SOL    HW190960  12.220   2.583   4.884  1.4436  0.7927  0.5738
26327SOL    HW290961  12.305   2.696   4.829  1.7111 -0.7325 -2.3428
26328SOL     OW90962   5.824  10.479   6.297 -0.1616 -0.0669  0.3764
26328SOL    HW190963   5.828  10.404   6.237  0.5987  0.1446  0.1507
26328SOL    HW290964   5.848  10.442   6.382 -0.0707 -0.1357  0.3213
26329SOL     OW90965   8.340   0.276  12.874  0.1309 -0.3022  0.0997
26329SOL    HW190966   8.360   0.368  12.889 -0.0881 -0.2883  0.3295
26329SOL    HW290967   8.334   0.267  12.779  2.5919 -0.6119 -0.0963
26330SOL     OW90968  12.448   2.972  12.924 -0.1140  0.1498  0.7680
26330SOL    HW190969  12.432   3.055  12.969 -0.5863  0.6161 -0.2284
26330SOL    HW290970  12.386   2.911  12.963 -1.9226  1.0368 -0.5568
26331SOL     OW90971   4.544   4.649   9.125  0.2393 -0.1389 -0.4369
26331SOL    HW190972   4.452   4.674   9.133  0.1214 -0.0734 -1.8274
26331SOL    HW290973   4.558   4.640   9.031  2.8344  4.3457 -0.7225
26332SOL     OW90974  13.795   2.040   0.557 -0.4784  0.2621  0.0114
26332SOL    HW190975  13.725   2.076   0.612 -0.7058 -0.1625  0.0085
26332SOL    HW290976  13.756   2.038   0.469  0.5624  2.8353 -0.5923
26333SOL     OW90977   2.624  13.964   4.514 -0.2146 -0.1108  0.0510
26333SOL    HW190978   2.626  14.032   4.581  1.6608  1.0850 -1.1469
26333SOL    HW290979   2.688  13.991   4.449 -1.4649 -1.5680 -1.9264
26334SOL     OW90980   6.730   1.929  13.269  0.4740 -0.7379  0.1358
26334SOL    HW190981   6.721   1.885  13.353 -1.2743 -0.0857  0.3306
26334SOL    HW290982   6.643   1.963  13.249  1.1233  0.2268 -1.3353
26335SOL     OW90983   3.957   0.746   5.289  0.1647  0.1584  0.2854
26335SOL    HW190984   4.039   0.742   5.338  0.4274  2.3982  0.1402
26335SOL    HW290985   3.982   0.777   5.202 -0.6528 -0.8615 -0.3387
26336SOL     OW90986  13.583   2.536   5.668 -0.8100 -0.3554 -0.2286
26336SOL    HW190987  13.652   2.526   5.602  0.6709 -1.0023  1.3338
26336SOL    HW290988  13.590   2.628   5.695 -1.1801 -0.1823 -0.7140
26337SOL     OW90989   9.581   5.808   2.370  0.3326 -0.1505  0.0871
26337SOL    HW190990   9.594   5.894   2.411 -0.7693 -0.1308  0.4238
26337SOL    HW290991   9.632   5.812   2.290 -0.2544  1.0885 -0.2482
26338SOL     OW90992   1.899   1.404   5.932 -0.1801 -0.3433 -0.1370
26338SOL    HW190993   1.841   1.478   5.950  0.2896 -0.3578  1.5268
26338SOL    HW290994   1.987   1.437   5.949  0.0204 -1.3308  0.8709
26339SOL     OW90995   3.582   0.897  11.677 -0.1450  0.0721 -0.0008
26339SOL    HW190996   3.650   0.858  11.732  0.0979  0.9580  0.3421
26339SOL    HW290997   3.579   0.841  11.600  1.8790  0.6943 -0.6040
26340SOL     OW90998   1.280  12.553   5.801 -0.7692  0.0614 -0.3782
26340SOL    HW190999   1.296  12.595   5.885  0.3935 -0.6321 -0.2274
26340SOL    HW291000   1.185  12.555   5.791 -1.4726 -3.5031  2.9624
26341SOL     OW91001  12.866   2.322  10.864 -0.1665 -0.1383 -0.7414
26341SOL    HW191002  12.923   2.316  10.940 -1.6985 -0.1527  0.4664
26341SOL    HW291003  12.915   2.372  10.800  1.1419 -0.0814  0.2751
26342SOL     OW91004   3.569   0.030   9.259  0.4207  0.0105  0.2952
26342SOL    HW191005   3.521  -0.048   9.284  0.7614 -1.4778 -3.0835
26342SOL    HW291006   3.621   0.003   9.183  1.6345  3.1777 -0.1680
26343SOL     OW91007   2.578   4.939   0.163  0.1394  0.1698 -0.2730
26343SOL    HW191008   2.560   5.033   0.168 -1.8339 -0.2102  1.0558
26343SOL    HW291009   2.564   4.907   0.252 -0.2507 -1.5289 -0.8910
26344SOL     OW91010   2.678   1.100  12.668  0.1017 -0.3126 -0.0897
26344SOL    HW191011   2.731   1.179  12.654  0.1002 -0.3201 -0.1397
26344SOL    HW291012   2.743   1.030  12.676  0.1859 -0.0585  1.7258
26345SOL     OW91013   9.530   9.309   3.794 -0.5417  0.0962  0.4521
26345SOL    HW191014   9.617   9.330   3.761 -0.2162  1.0963  1.8615
26345SOL    HW291015   9.471   9.332   3.722  0.3497 -0.8119 -0.6104
26346SOL     OW91016   7.588   6.235   6.877 -0.4447  0.0773  0.2979
26346SOL    HW191017   7.531   6.304   6.845  0.5766 -0.1812 -2.3237
26346SOL    HW291018   7.544   6.153   6.853 -1.0426 -0.2415  2.2660
26347SOL     OW91019  10.970   0.669   0.913 -0.1920 -0.2084  0.1905
26347SOL    HW191020  10.902   0.601   0.915  1.3251 -1.7896 -0.0294
26347SOL    HW291021  10.985   0.689   1.006  1.4365 -2.4065  0.4747
26348SOL     OW91022   7.526  13.507   3.430 -0.0737  0.3962 -0.1087
26348SOL    HW191023   7.498  13.564   3.359  1.7661  0.6176 -0.7171
26348SOL    HW291024   7.496  13.420   3.405 -1.3001  0.8018 -0.0829
26349SOL     OW91025  12.993   7.816  13.990 -0.7083  0.5987  0.5693
26349SOL    HW191026  13.073   7.859  14.019  1.1814 -0.8514 -2.0846
26349SOL    HW291027  12.971   7.757  14.062  1.1200  0.4150  1.0373
26350SOL     OW91028   5.374  13.039   9.140  0.3274  0.5756 -0.0043
26350SOL    HW191029   5.372  12.985   9.219 -0.1470  0.4977 -0.0682
26350SOL    HW291030   5.467  13.058   9.127  0.4131  0.5612  0.5521
26351SOL     OW91031   9.703  10.149   3.880 -0.1305 -0.3026 -0.6326
26351SOL    HW191032   9.720  10.214   3.949 -1.2706  0.3059 -0.9092
26351SOL    HW291033   9.694  10.200   3.800  0.6285 -0.9639 -1.1580
26352SOL     OW91034  12.986   3.901   4.238  0.0774 -0.2065  0.0390
26352SOL    HW191035  13.015   3.927   4.326 -2.2176 -1.0114  1.1201
26352SOL    HW291036  13.059   3.849   4.204  1.3055  0.6937  1.1757
26353SOL     OW91037   4.910   4.296   9.950  0.2789 -0.4363 -0.5570
26353SOL    HW191038   4.833   4.352   9.963  0.2262 -0.3646 -1.1399
26353SOL    HW291039   4.930   4.304   9.857  0.3341 -1.3056 -0.6300
26354SOL     OW91040  12.513   3.509  10.684  0.4667 -0.1772 -0.0278
26354SOL    HW191041  12.494   3.543  10.596  2.7867 -0.6279 -0.7843
26354SOL    HW291042  12.451   3.437  10.696  0.5255 -0.5359 -1.6144
26355SOL     OW91043   0.517   9.424  10.488 -0.0882  0.3847 -0.4584
26355SOL    HW191044   0.505   9.512  10.453  0.9520  0.6240 -0.2386
26355SOL    HW291045   0.597   9.429  10.541 -0.0232 -0.6803 -0.4224
26356SOL     OW91046   2.358   8.172  10.280  0.2867  0.7105 -0.5543
26356SOL    HW191047   2.279   8.152  10.329  1.0672  0.5091  0.6641
26356SOL    HW291048   2.329   8.180  10.189 -1.2619  1.5554 -0.0101
26357SOL     OW91049   2.348   5.450   9.778  0.2460  0.0804  0.0754
26357SOL    HW191050   2.299   5.531   9.762  0.1358 -0.3502 -2.1081
26357SOL    HW291051   2.305   5.410   9.853 -1.0314  1.0375 -0.1140
26358SOL     OW91052  11.664   6.278  11.893 -0.7228  0.3160 -0.4971
26358SOL    HW191053  11.569   6.285  11.885 -0.9438  0.9368  2.0047
26358SOL    HW291054  11.678   6.191  11.931 -0.3479  0.6023  0.0161
26359SOL     OW91055   5.746   1.726   7.216 -0.1709  0.8893 -0.2724
26359SOL    HW191056   5.675   1.784   7.244 -2.3705 -2.5630  2.0907
26359SOL    HW291057   5.733   1.715   7.122 -2.1902  1.1296 -0.0614
26360SOL     OW91058   6.144   1.686  11.820 -0.5086 -0.6731 -0.0108
26360SOL    HW191059   6.163   1.735  11.900  2.1933 -0.2265 -0.8218
26360SOL    HW291060   6.156   1.594  11.844 -0.5892 -0.6034  0.3028
26361SOL     OW91061   0.166  12.891  13.196  0.0882 -0.7736  0.1567
26361SOL    HW191062   0.087  12.866  13.244 -1.5181  1.5551 -1.0794
26361SOL    HW291063   0.219  12.940  13.259 -0.6267 -0.2359  0.3451
26362SOL     OW91064   5.253   2.259   0.710  0.3043  0.3970  0.3502
26362SOL    HW191065   5.176   2.246   0.654  0.4880  0.4106  0.0909
26362SOL    HW291066   5.246   2.190   0.776  0.1777  0.2710  0.2063
26363SOL     OW91067   9.538   4.652   5.484 -0.1096 -0.2097  1.0095
26363SOL    HW191068   9.600   4.698   5.541  0.2762 -1.4103  1.5919
26363SOL    HW291069   9.583   4.571   5.462  0.2980  0.7133 -2.0485
26364SOL     OW91070   5.619   9.150   2.827 -0.6661  0.1498 -0.1716
26364SOL    HW191071   5.690   9.213   2.837 -0.7067  0.4548 -1.5207
26364SOL    HW291072   5.584   9.138   2.915 -0.3450  1.6540  0.1884
26365SOL     OW91073   8.046   9.290   2.417 -0.3958  0.5222  0.4417
26365SOL    HW191074   8.020   9.380   2.399  1.3416  0.6348 -1.9450
26365SOL    HW291075   8.024   9.277   2.509 -2.2805  2.7916  0.3979
26366SOL     OW91076   6.441   2.839   0.477 -0.8726 -0.2702 -0.1111
26366SOL    HW191077   6.527   2.867   0.444 -0.4470 -1.7078 -0.2792
26366SOL    HW291078   6.388   2.919   0.476 -0.0358  0.3077 -1.6087
26367SOL     OW91079   1.375   5.149  10.985 -0.1672  0.3828  0.0640
26367SOL    HW191080   1.360   5.207  10.911 -0.5944  0.5799  0.3010
26367SOL    HW291081   1.442   5.088  10.955 -0.0813  0.6844 -0.3594
26368SOL     OW91082   7.177   7.056   5.442  0.0935 -0.2103 -0.6976
26368SOL    HW191083   7.133   7.029   5.522 -1.7818 -1.5855 -2.0922
26368SOL    HW291084   7.257   7.002   5.439 -0.4581 -1.0714 -0.3535
26369SOL     OW91085  10.664   0.472   0.384  0.1086 -0.4964  0.1019
26369SOL    HW191086  10.580   0.460   0.428 -2.0151  1.0358 -3.1505
26369SOL    HW291087  10.688   0.385   0.352  0.1453 -1.0565  1.5806
26370SOL     OW91088  12.703   1.583   8.378  0.2658  0.3455 -0.4295
26370SOL    HW191089  12.662   1.505   8.415  1.6186  0.5124  1.5697
26370SOL    HW291090  12.766   1.548   8.314  1.7228 -0.3656  1.2990
26371SOL     OW91091   8.357   6.861   3.548  0.7281  0.2767 -0.5904
26371SOL    HW191092   8.300   6.784   3.549  1.2996 -0.1584 -0.5580
26371SOL    HW291093   8.377   6.875   3.456  0.3632  0.5895 -0.6244
26372SOL     OW91094   0.066   4.713   6.268  0.2001  0.0454  0.4084
26372SOL    HW191095   0.057   4.694   6.174 -0.4123  1.3655  0.1762
26372SOL    HW291096   0.152   4.756   6.275 -0.4590  1.4710  0.1555
26373SOL     OW91097   2.976  12.092   0.401  0.1403  0.0742 -0.1156
26373SOL    HW191098   3.030  12.141   0.464 -0.9071 -0.0548  0.9237
26373SOL    HW291099   3.038  12.036   0.355  0.9136 -0.0779  1.0564
26374SOL     OW91100   0.256   0.660  12.994  0.4183 -0.2735 -0.5856
26374SOL    HW191101   0.236   0.567  12.995 -0.6316 -0.1081  2.1980
26374SOL    HW291102   0.177   0.703  13.026  2.0624  1.1758  1.9498
26375SOL     OW91103   6.908   8.926   0.007  0.0991 -0.3200 -0.3526
26375SOL    HW191104   6.837   8.962  -0.046  0.6996  0.9449 -0.3187
26375SOL    HW291105   6.916   8.835  -0.023 -1.0871 -0.2919 -0.8110
26376SOL     OW91106  10.029   3.628   7.266  0.0790 -0.2276  0.1895
26376SOL    HW191107  10.078   3.690   7.212 -0.2427  0.9689  1.2281
26376SOL    HW291108  10.095   3.565   7.296  0.0178 -1.8191 -2.7370
26377SOL     OW91109  11.547  12.909  12.172  0.3984  0.1386  0.2946
26377SOL    HW191110  11.476  12.853  12.203 -0.1033  0.9250  0.5714
26377SOL    HW291111  11.528  12.924  12.079  1.7642 -2.0037 -0.4187
26378SOL     OW91112   1.121   7.460  13.164 -0.2060 -0.6252 -0.0272
26378SOL    HW191113   1.032   7.434  13.187  0.9990 -2.3779  3.2467
26378SOL    HW291114   1.177   7.397  13.208  2.7171  1.0151 -1.1193
26379SOL     OW91115   6.516  13.495   4.958 -0.2033  0.4532  0.5145
26379SOL    HW191116   6.477  13.549   4.889  0.8044  2.8461  1.7100
26379SOL    HW291117   6.453  13.423   4.970 -0.8878  0.5110 -2.1411
26380SOL     OW91118   6.672   8.258   3.273 -0.1208  0.3937  0.4064
26380SOL    HW191119   6.695   8.179   3.223  0.0897  0.9676 -0.4110
26380SOL    HW291120   6.631   8.316   3.209 -0.6277  0.8016  1.0946
26381SOL     OW91121   3.104   2.569   3.429  0.2509 -0.2413  0.0953
26381SOL    HW191122   3.071   2.507   3.363 -0.4585 -0.1365  0.3407
26381SOL    HW291123   3.026   2.595   3.478  0.6689  0.2285  0.5185
26382SOL     OW91124  12.893   6.715   8.856 -0.1517 -0.0932  0.3776
26382SOL    HW191125  12.849   6.636   8.824 -0.7806  0.6706 -0.7389
26382SOL    HW291126  12.823   6.780   8.863  0.8376  1.4828 -2.4801
26383SOL     OW91127  13.737   1.320   0.989  0.1016 -0.0296  0.1234
26383SOL    HW191128  13.771   1.318   1.079 -0.0173 -2.2218  0.1739
26383SOL    HW291129  13.703   1.232   0.975  0.7506  0.0647 -2.3448
26384SOL     OW91130   6.709   4.072   7.734 -0.1106  0.9728  0.0244
26384SOL    HW191131   6.646   4.024   7.681  1.1879 -0.8757  0.0741
26384SOL    HW291132   6.790   4.022   7.727  0.8169  2.1411  1.6211
26385SOL     OW91133   0.876   9.464   1.083 -0.3317 -0.7286 -0.1481
26385SOL    HW191134   0.950   9.405   1.092  1.6645  0.6027 -4.8536
26385SOL    HW291135   0.799   9.408   1.088  1.0314 -2.5488  2.2977
26386SOL     OW91136   0.877  13.882   3.091  0.1158 -0.6290  0.2469
26386SOL    HW191137   0.949  13.822   3.071  0.6101 -0.4532  1.4432
26386SOL    HW291138   0.911  13.939   3.160 -1.5058 -1.2230  1.6092
26387SOL     OW91139   9.139   2.971   9.210 -0.4322 -0.2504 -0.5218
26387SOL    HW191140   9.113   2.904   9.146  1.6681 -1.5154 -0.1332
26387SOL    HW291141   9.143   2.924   9.293  1.4743  0.2200 -0.3039
26388SOL     OW91142   6.524  10.808   1.249 -0.2565  0.6275  0.1758
26388SOL    HW191143   6.582  10.756   1.304 -0.3663 -0.6175 -0.8459
26388SOL    HW291144   6.436  10.789   1.283 -0.4320 -1.0890 -1.1356
26389SOL     OW91145   7.932   4.075   5.230  0.4618  0.8663  0.1915
26389SOL    HW191146   7.992   4.073   5.305  0.4918  0.0466  0.1605
26389SOL    HW291147   7.988   4.054   5.155  0.1047 -0.1327  0.1940
26390SOL     OW91148   5.110   3.482  13.492  0.0314  0.0759 -0.3341
26390SOL    HW191149   5.121   3.577  13.487 -0.9791  0.2307  0.0089
26390SOL    HW291150   5.019   3.470  13.519  1.2244 -0.8984  3.9535
26391SOL     OW91151   0.381   5.430   7.093 -0.2120 -0.0112 -0.3872
26391SOL    HW191152   0.320   5.480   7.147  0.4391 -0.2411  0.5727
26391SOL    HW291153   0.444   5.495   7.061  0.4051 -0.1301  0.5426
26392SOL     OW91154  13.761   9.360  11.145  0.2610  0.2529  0.1204
26392SOL    HW191155  13.672   9.358  11.179  0.0817 -1.2508 -0.3533
26392SOL    HW291156  13.805   9.427  11.197 -1.0688  0.8464  0.5275
26393SOL     OW91157  11.825   3.086   6.384  0.2034  0.1613 -0.0170
26393SOL    HW191158  11.895   3.070   6.447 -0.3037  0.0214  0.5233
26393SOL    HW291159  11.794   2.999   6.359  0.0757  0.2235 -0.0798
26394SOL     OW91160   8.921   6.178  12.620 -0.3134  0.1430 -0.1791
26394SOL    HW191161   8.986   6.238  12.657  0.9274 -1.8520  1.1012
26394SOL    HW291162   8.906   6.211  12.531  2.6321  0.6319 -0.6090
26395SOL     OW91163  10.477   4.428   3.422  0.2541  0.2245  0.2564
26395SOL    HW191164  10.504   4.365   3.489  1.8798 -0.6729 -1.1406
26395SOL    HW291165  10.480   4.513   3.466  1.5289 -0.3089  1.2752
26396SOL     OW91166   0.982   4.539   3.703  0.0814 -0.0257 -0.1304
26396SOL    HW191167   0.940   4.471   3.651  1.4819 -1.0673  0.0170
26396SOL    HW291168   1.076   4.530   3.683  0.4068  1.1392  0.7340
26397SOL     OW91169   4.692   4.011   3.984  0.1928 -0.1531  0.2016
26397SOL    HW191170   4.737   3.949   4.042 -0.3267 -0.5936  0.1437
26397SOL    HW291171   4.699   4.095   4.029 -0.7273 -0.5972  1.2066
26398SOL     OW91172  13.776  12.817   9.489  0.0549 -0.2119 -0.4243
26398SOL    HW191173  13.786  12.896   9.541 -0.5142  0.1441 -0.8416
26398SOL    HW291174  13.813  12.747   9.543 -1.1319  0.0276  0.7519
26399SOL     OW91175   2.370  13.413   5.552  0.5263  0.4225  0.0904
26399SOL    HW191176   2.378  13.421   5.647 -1.0162 -0.0686  0.2870
26399SOL    HW291177   2.306  13.343   5.539  0.1899  0.9586 -1.2989
26400SOL     OW91178  12.018   3.510   4.370  0.6067 -0.0107 -0.2206
26400SOL    HW191179  11.959   3.575   4.331  1.6102  0.8555 -0.3207
26400SOL    HW291180  12.106   3.537   4.343  1.1987 -0.3582  1.2545
26401SOL     OW91181   1.645   2.075   3.637  0.3929  0.1000  0.2844
26401SOL    HW191182   1.561   2.086   3.591 -0.1707  0.8613  1.4593
26401SOL    HW291183   1.655   1.981   3.645 -0.6345  0.0017  0.6188
26402SOL     OW91184   4.183  10.793   4.822  0.1699  0.0151  0.1769
26402SOL    HW191185   4.122  10.782   4.894 -0.0697 -0.7409 -0.1329
26402SOL    HW291186   4.262  10.745   4.849 -0.0919 -0.6745 -0.2561
26403SOL     OW91187   1.814   1.532   3.371 -0.2431  0.3665 -0.4566
26403SOL    HW191188   1.831   1.438   3.365  1.2690  0.5922 -0.1503
26403SOL    HW291189   1.826   1.565   3.282  0.2065  0.4066 -0.3842
26404SOL     OW91190   9.255   4.692  12.749 -0.0622  0.5819 -0.6579
26404SOL    HW191191   9.189   4.641  12.795  0.2105 -1.8959 -2.7891
26404SOL    HW291192   9.294   4.748  12.816 -1.3665 -1.0312  1.5445
26405SOL     OW91193   0.983  13.363   6.410 -0.1548 -0.0589  0.0752
26405SOL    HW191194   0.921  13.395   6.476 -0.8419 -0.4409 -0.3776
26405SOL    HW291195   1.001  13.273   6.435  2.0850  0.6994  1.5754
26406SOL     OW91196  12.969   0.125  13.694  0.2920 -0.3315  0.0512
26406SOL    HW191197  13.013   0.103  13.776 -0.0533  0.3257  0.4230
26406SOL    HW291198  12.973   0.220  13.689 -1.2584 -0.2354  0.2090
26407SOL     OW91199   8.984   9.608   7.634  0.4123 -0.2951 -0.1731
26407SOL    HW191200   8.948   9.696   7.636  1.4391  0.1213  0.9638
26407SOL    HW291201   8.933   9.560   7.700 -0.3738 -0.6736 -1.0261
26408SOL     OW91202   9.529  10.945   3.828  0.5464 -0.2163  0.0340
26408SOL    HW191203   9.597  10.900   3.778  0.6468  0.5933 -0.5922
26408SOL    HW291204   9.563  11.034   3.839 -0.1903  0.0609  0.1377
26409SOL     OW91205   2.255   0.333   7.284  0.1502 -0.4403  0.4934
26409SOL    HW191206   2.174   0.293   7.316 -0.5180  1.1286  0.8367
26409SOL    HW291207   2.305   0.352   7.364  0.3343 -0.3416  0.3555
26410SOL     OW91208  12.672   5.416   9.985 -0.2151 -0.7337 -0.1792
26410SOL    HW191209  12.730   5.403   9.910 -1.5697 -0.8711 -1.2537
26410SOL    HW291210  12.653   5.510   9.984 -0.0300 -0.6894  0.1679
26411SOL     OW91211  11.708   5.450  11.775 -0.3189  0.0983 -0.2472
26411SOL    HW191212  11.645   5.490  11.714  1.7122 -1.2599 -3.5456
26411SOL    HW291213  11.774   5.411  11.718  0.0376 -4.4028  2.7697
26412SOL     OW91214   9.126   0.621   8.633  0.0531  0.6861 -0.4851
26412SOL    HW191215   9.118   0.694   8.571 -1.2495  2.0902  1.2180
26412SOL    HW291216   9.055   0.635   8.696  0.7059 -1.2268  0.7755
26413SOL     OW91217  11.135   8.305   2.397 -0.3256  0.2603 -0.7013
26413SOL    HW191218  11.131   8.223   2.447  0.1617  0.3220 -0.5543
26413SOL    HW291219  11.102   8.282   2.310 -1.3203  0.1875 -0.3228
26414SOL     OW91220   0.118   9.596  12.269  0.2438  0.3984 -0.3298
26414SOL    HW191221   0.055   9.537  12.309  0.9882 -0.6473 -0.6652
26414SOL    HW291222   0.129   9.667  12.333  0.2076 -0.4220  0.5968
26415SOL     OW91223   7.906   8.155   4.754  0.4450 -0.4734 -0.2448
26415SOL    HW191224   7.827   8.145   4.806 -0.2265  2.0890 -0.6282
26415SOL    HW291225   7.977   8.162   4.818  0.1583 -1.1922  0.1583
26416SOL     OW91226  10.991   4.680   8.985  0.6058 -0.6131  0.0121
26416SOL    HW191227  10.951   4.693   9.070 -0.0213 -1.2306 -0.1758
26416SOL    HW291228  11.052   4.606   8.997 -0.4902 -1.6159 -0.3713
26417SOL     OW91229   6.788   5.883   1.593  0.0652 -0.0661  1.0922
26417SOL    HW191230   6.841   5.863   1.516 -1.0242  1.7388 -0.2071
26417SOL    HW291231   6.725   5.811   1.597 -0.6870  0.4567 -0.5290
26418SOL     OW91232   2.489  13.434  11.777  0.6340 -0.3031 -0.0459
26418SOL    HW191233   2.399  13.405  11.792  1.1942 -1.5668  1.0480
26418SOL    HW291234   2.542  13.381  11.836  2.1724  0.0674 -1.0278
26419SOL     OW91235   8.676   3.004  11.161 -0.0125 -0.4160 -0.0998
26419SOL    HW191236   8.611   3.025  11.228 -0.2613 -1.6192  0.0464
26419SOL    HW291237   8.648   2.920  11.126  0.2989  0.0341 -1.4968
26420SOL     OW91238   6.440   8.975   4.431 -0.2997 -0.0416  0.1243
26420SOL    HW191239   6.500   9.046   4.406 -0.7184  0.3685  0.2673
26420SOL    HW291240   6.478   8.938   4.510 -0.2803  0.2777  0.2677
26421SOL     OW91241   1.637   5.063  12.462 -0.2588  0.1341  0.2465
26421SOL    HW191242   1.584   4.984  12.477 -0.3508  0.3153  0.9151
26421SOL    HW291243   1.615   5.089  12.373  1.0428 -1.5404 -0.6245
26422SOL     OW91244   7.199   8.961  13.684 -0.2949  0.7117 -0.4247
26422SOL    HW191245   7.279   8.948  13.632  0.0054  1.6429 -0.2024
26422SOL    HW291246   7.148   9.025  13.635 -0.0422  1.5475  0.3695
26423SOL     OW91247   2.214  10.497   0.577  0.2221 -0.6955  0.2706
26423SOL    HW191248   2.223  10.493   0.482 -0.9306 -0.2363  0.1289
26423SOL    HW291249   2.140  10.556   0.592 -0.2943 -1.5801  1.4113
26424SOL     OW91250   6.069   3.163   0.830 -0.1046 -0.4266 -0.2353
26424SOL    HW191251   6.050   3.097   0.764 -1.4338  0.4413 -0.7585
26424SOL    HW291252   6.117   3.231   0.783  0.9283 -0.8050  0.2225
26425SOL     OW91253   5.858   6.383   4.422 -0.8119  0.2551 -0.1110
26425SOL    HW191254   5.859   6.456   4.359  2.3317  2.1541  1.8643
26425SOL    HW291255   5.883   6.306   4.371 -0.3477  1.3263 -1.5673
26426SOL     OW91256   3.934   7.918  13.360 -0.1283  0.5219  0.6843
26426SOL    HW191257   3.954   7.906  13.267 -2.6412  2.7749 -0.2848
26426SOL    HW291258   4.019   7.918  13.403  1.2173  0.5468 -1.7794
26427SOL     OW91259   9.469   4.605   8.316  0.4257 -0.4316  0.6466
26427SOL    HW191260   9.496   4.524   8.272 -1.0191 -0.6390  0.1196
26427SOL    HW291261   9.396   4.638   8.264  2.3289  2.4174 -0.4391
26428SOL     OW91262   6.451   3.278   7.256  0.0431 -0.9361  0.0592
26428SOL    HW191263   6.536   3.320   7.244  0.0421 -0.6800  0.8321
26428SOL    HW291264   6.461   3.227   7.337 -1.1986  0.9501  1.5001
26429SOL     OW91265   3.394   4.190   9.852 -0.1104 -0.6156  0.8091
26429SOL    HW191266   3.457   4.262   9.845  0.4816 -1.2460 -0.6417
26429SOL    HW291267   3.442   4.113   9.824 -0.9193 -1.5033  1.7557
26430SOL     OW91268  13.729   4.627   3.039  0.2067 -0.0331 -0.1688
26430SOL    HW191269  13.804   4.595   3.089 -0.7286 -0.9804  0.7030
26430SOL    HW291270  13.683   4.547   3.011  1.3749  0.3784 -3.7614
26431SOL     OW91271  12.836   0.976   6.370  0.2398 -0.0398 -0.2574
26431SOL    HW191272  12.771   0.982   6.299  0.0054  1.8262  0.0834
26431SOL    HW291273  12.801   0.908   6.428 -1.2212  0.6593 -0.2829
26432SOL     OW91274   1.270   7.024  12.673 -0.0570  0.1823  0.4026
26432SOL    HW191275   1.345   7.024  12.613  0.9831  0.5308  1.6485
26432SOL    HW291276   1.285   6.948  12.730 -1.7549 -0.9750 -0.5940
26433SOL     OW91277  13.475  12.394   2.311 -0.0016 -0.1956 -0.0213
26433SOL    HW191278  13.550  12.434   2.266  0.2342 -0.1906  0.3655
26433SOL    HW291279  13.425  12.350   2.242 -1.8553  3.1068 -0.9933
26434SOL     OW91280   4.272   8.131  10.632 -0.1686  0.3123  0.9490
26434SOL    HW191281   4.335   8.121  10.703  0.6201 -0.6134  0.1487
26434SOL    HW291282   4.319   8.100  10.555 -1.4742  0.0068  0.2642
26435SOL     OW91283   0.319  11.773   4.365  0.3918 -0.0964 -0.2342
26435SOL    HW191284   0.326  11.678   4.365  0.2104 -0.1445 -2.2998
26435SOL    HW291285   0.226  11.791   4.348  0.5806  0.4290 -0.7534
26436SOL     OW91286   2.040   1.647   3.458  0.4389  1.2454 -0.1324
26436SOL    HW191287   1.966   1.600   3.418 -1.8515  4.5851 -0.2148
26436SOL    HW291288   2.059   1.597   3.538  1.8987 -2.8026 -2.7031
26437SOL     OW91289   3.285  10.934   9.106  0.1771 -0.3658 -0.2059
26437SOL    HW191290   3.262  10.902   9.018  1.4112 -1.1241 -0.2658
26437SOL    HW291291   3.380  10.938   9.106  0.1665  2.9128 -0.0341
26438SOL     OW91292   0.346   4.349  12.754  1.0674 -0.1372  0.1327
26438SOL    HW191293   0.285   4.413  12.788  0.1054 -1.0725  0.2272
26438SOL    HW291294   0.359   4.287  12.827  1.4526 -0.4141 -0.1668
26439SOL     OW91295  10.019  13.349   0.261  0.1331 -0.2639 -0.2253
26439SOL    HW191296  10.078  13.422   0.244  0.0900 -0.4498 -1.2354
26439SOL    HW291297  10.026  13.334   0.356 -2.1157  2.9854  0.6228
26440SOL     OW91298  13.823   9.741   8.003  0.4273  0.0786 -0.1453
26440SOL    HW191299  13.866   9.668   7.958  1.9741  0.3209  0.8570
26440SOL    HW291300  13.878   9.817   7.984 -1.2511  1.0661 -1.3202
26441SOL     OW91301   3.735   8.026  10.407  0.2596  0.0160  0.0104
26441SOL    HW191302   3.769   8.085  10.339 -0.3411  1.1177  0.6467
26441SOL    HW291303   3.693   7.955  10.358 -0.7050  1.1094 -0.7933
26442SOL     OW91304  10.714  13.655   4.336 -0.2683 -0.4621  0.0068
26442SOL    HW191305  10.706  13.737   4.384 -0.9521  1.0474 -2.4578
26442SOL    HW291306  10.624  13.621   4.332 -0.0873 -1.0069  0.4814
26443SOL     OW91307   9.186   0.273   2.930  0.3175  0.1407 -0.0850
26443SOL    HW191308   9.098   0.308   2.918  0.5421  0.3943 -1.0007
26443SOL    HW291309   9.192   0.200   2.869  0.4336 -0.4720  0.6325
26444SOL     OW91310  12.658   3.227   8.194  0.2175 -0.0206 -0.7250
26444SOL    HW191311  12.635   3.319   8.186  0.2934  0.0664  0.0144
26444SOL    HW291312  12.688   3.217   8.284 -2.1406 -1.2772 -0.0100
26445SOL     OW91313   5.605  13.016   1.247 -0.0563 -0.2870 -0.1397
26445SOL    HW191314   5.588  12.995   1.339  2.0162  0.9511  0.5813
26445SOL    HW291315   5.697  12.992   1.233  0.8677  3.0792 -0.7378
26446SOL     OW91316  11.756   9.642  13.628 -0.0135 -0.5313  0.1260
26446SOL    HW191317  11.762   9.712  13.563 -1.1937  0.3231  0.9016
26446SOL    HW291318  11.771   9.562  13.578  1.5502  0.2655 -0.7508
26447SOL     OW91319   2.333  10.199  10.983 -0.3112 -0.3172  0.2920
26447SOL    HW191320   2.268  10.161  10.924 -0.0530 -1.8328  0.9534
26447SOL    HW291321   2.401  10.132  10.990  0.3728  0.4418  1.1625
26448SOL     OW91322   1.669   9.457   4.341 -0.3723  0.2476 -0.3885
26448SOL    HW191323   1.650   9.375   4.387  0.5606  0.5634  0.6014
26448SOL    HW291324   1.588   9.478   4.295 -0.9809 -0.6438  0.2478
26449SOL     OW91325  11.439   0.452  14.025 -0.1776  0.1564  0.1305
26449SOL    HW191326  11.475   0.527  14.071  2.5905 -0.2088 -1.2323
26449SOL    HW291327  11.394   0.401  14.093  1.7073  0.8211  1.9887
26450SOL     OW91328   5.585  10.723   3.686  0.0399 -0.2302  0.0054
26450SOL    HW191329   5.585  10.666   3.610 -0.1967  0.2288 -0.3469
26450SOL    HW291330   5.629  10.803   3.655 -0.5534  0.1697  0.1833
26451SOL     OW91331  11.422   8.335  10.903 -0.1765  0.3239  0.0436
26451SOL    HW191332  11.344   8.346  10.848  0.3112  1.0090 -0.5241
26451SOL    HW291333  11.486   8.292  10.846  0.3924  1.1944  0.0194
26452SOL     OW91334   7.251   5.824  10.796 -0.1932 -0.0180  0.4509
26452SOL    HW191335   7.269   5.763  10.867 -1.6946  0.6322  1.4274
26452SOL    HW291336   7.157   5.839  10.800 -0.1179  0.9874 -0.8995
26453SOL     OW91337   6.615   3.864   8.659  0.0325  0.1009  0.0423
26453SOL    HW191338   6.531   3.873   8.613  1.1688  0.6994 -2.0659
26453SOL    HW291339   6.634   3.771   8.655 -0.6909 -0.0992  0.8949
26454SOL     OW91340  10.443   4.831  10.475  0.0564 -0.4122 -0.2554
26454SOL    HW191341  10.491   4.857  10.397 -0.0804  0.1948 -0.1424
26454SOL    HW291342  10.426   4.737  10.463 -0.9430 -0.1070 -1.4904
26455SOL     OW91343   8.521   8.962   0.467 -0.5738  0.1424 -0.4172
26455SOL    HW191344   8.456   8.905   0.510 -0.0554 -0.2707 -0.1775
26455SOL    HW291345   8.533   8.923   0.380  1.0818 -1.1880  0.3416
26456SOL     OW91346   3.925   6.238   5.036 -0.0687 -0.4541 -0.5829
26456SOL    HW191347   3.870   6.310   5.067  1.4697  0.8762 -0.8380
26456SOL    HW291348   3.863   6.171   5.009 -1.5700  0.9119 -0.6818
26457SOL     OW91349   2.748   6.609  11.894  0.5190 -0.0143  0.3152
26457SOL    HW191350   2.756   6.554  11.971  0.3696 -0.8633 -0.2572
26457SOL    HW291351   2.787   6.557  11.823 -0.7665  0.0622 -0.4917
26458SOL     OW91352   1.349   5.539  12.219 -0.5176  0.0749 -0.2534
26458SOL    HW191353   1.254   5.541  12.209 -0.4474  1.0245 -0.9474
26458SOL    HW291354   1.380   5.613  12.166  0.5948 -0.1254  0.0857
26459SOL     OW91355  13.975   2.955   9.625  0.3839 -0.1823 -0.0214
26459SOL    HW191356  13.965   3.029   9.565  0.3399 -0.2874 -0.1444
26459SOL    HW291357  14.038   2.898   9.581  1.4962  0.4352  0.7037
26460SOL     OW91358   3.887   6.706   8.774  0.0074  0.0051 -0.4860
26460SOL    HW191359   3.920   6.624   8.810  0.8850  0.2947 -0.6015
26460SOL    HW291360   3.795   6.709   8.800 -0.0252 -0.9960 -0.4625
26461SOL     OW91361   0.411  13.713   9.914 -0.5538  0.4062 -0.4726
26461SOL    HW191362   0.472  13.640   9.906 -0.9799  0.0726 -0.7518
26461SOL    HW291363   0.415  13.758   9.830 -1.3389 -0.1447 -0.8201
26462SOL     OW91364   7.138   2.353   9.220 -0.1563 -0.1292 -0.0548
26462SOL    HW191365   7.157   2.393   9.304 -1.1345  1.0056 -0.3549
26462SOL    HW291366   7.197   2.397   9.159  0.9602 -1.3525  0.1070
26463SOL     OW91367   2.589   4.050  12.891  0.3732  0.1267  0.4767
26463SOL    HW191368   2.540   4.124  12.926  0.6163  1.0000 -0.9664
26463SOL    HW291369   2.678   4.081  12.883  0.1557  0.3170 -1.7921
26464SOL     OW91370   2.867  10.807   6.214  0.4785 -0.4099 -0.1822
26464SOL    HW191371   2.852  10.841   6.126 -1.5833 -0.7907 -0.0134
26464SOL    HW291372   2.849  10.713   6.208  1.1189 -0.5890  0.4780
26465SOL     OW91373   9.690  10.187  10.943  0.2300 -0.1641 -0.6463
26465SOL    HW191374   9.685  10.179  11.038 -2.3085  0.1891 -0.6759
26465SOL    HW291375   9.653  10.105  10.910 -0.0546  0.2153 -1.2964
26466SOL     OW91376  12.785   4.944   3.319 -0.5751 -0.0487  0.3543
26466SOL    HW191377  12.843   4.868   3.328  0.3237  0.6876  0.9651
26466SOL    HW291378  12.727   4.939   3.395 -0.6853 -0.2567  0.2583
26467SOL     OW91379   5.343   3.368   5.676  0.0474 -0.0376 -0.3842
26467SOL    HW191380   5.281   3.416   5.731  0.1241  0.7256 -0.9448
26467SOL    HW291381   5.377   3.299   5.733 -1.9536 -1.0490 -0.3079
26468SOL     OW91382  10.577   8.183  12.366 -0.1983 -0.3677 -0.3077
26468SOL    HW191383  10.617   8.202  12.281 -0.2206 -0.9512 -0.4552
26468SOL    HW291384  10.599   8.091  12.382  0.0160 -0.1926  0.4343
26469SOL     OW91385   1.998  13.770   3.867 -0.0848  0.7924  0.0789
26469SOL    HW191386   2.003  13.700   3.802  2.2334  0.0406  0.9793
26469SOL    HW291387   2.026  13.729   3.949  1.2327  2.7349  0.6524
26470SOL     OW91388  10.386  13.013   0.311 -0.0441  0.0812  0.1394
26470SOL    HW191389  10.396  13.042   0.402  1.6966 -0.7556  0.2660
26470SOL    HW291390  10.349  12.925   0.318  0.3376 -0.0886  0.0660
26471SOL     OW91391   7.061   3.017  11.011 -0.1694 -0.1425 -0.2078
26471SOL    HW191392   7.092   2.972  10.932  0.1734  0.1760 -0.2547
26471SOL    HW291393   7.116   2.983  11.081  0.2205  0.3420 -0.2741
26472SOL     OW91394   0.493  10.401   0.299  0.1827 -0.7959  0.2355
26472SOL    HW191395   0.490  10.355   0.215  1.4237 -0.7999  0.1775
26472SOL    HW291396   0.558  10.353   0.350  0.6983  0.2398  0.5735
26473SOL     OW91397  10.984   4.632   2.332  0.0157 -0.3200  0.1851
26473SOL    HW191398  11.063   4.577   2.339 -0.5383 -0.9661  1.7849
26473SOL    HW291399  11.003   4.692   2.260  2.3756  0.1624  1.1100
26474SOL     OW91400   7.843   4.883  11.358 -0.0396  0.5090 -0.0817
26474SOL    HW191401   7.851   4.923  11.444  0.1887 -1.3167  0.8033
26474SOL    HW291402   7.930   4.845  11.341 -0.1781  0.5666 -0.9639
26475SOL     OW91403   7.686  11.449   5.143 -0.1924 -0.4237  0.0146
26475SOL    HW191404   7.619  11.398   5.097  0.4730 -0.4337 -0.9630
26475SOL    HW291405   7.713  11.515   5.080 -1.3164  1.4496  1.3630
26476SOL     OW91406   1.294   9.531   6.705  0.5228  0.3275  0.4640
26476SOL    HW191407   1.335   9.452   6.670  1.0570  0.7005  0.2112
26476SOL    HW291408   1.225   9.500   6.763  1.9856 -0.3540  1.9067
26477SOL     OW91409   3.604   1.108  12.934 -0.0434  0.7820 -0.1007
26477SOL    HW191410   3.577   1.108  12.842 -0.3286  2.0251 -0.0285
26477SOL    HW291411   3.531   1.067  12.980 -0.9494  2.2480 -0.1644
26478SOL     OW91412   6.541   3.142  12.728  0.2877 -0.2376 -0.4044
26478SOL    HW191413   6.575   3.163  12.815  0.5661  0.8450 -0.7674
26478SOL    HW291414   6.447   3.129  12.742  0.1297  1.1232 -0.1308
26479SOL     OW91415   9.412  13.138  13.782  0.9066  0.2011  0.0478
26479SOL    HW191416   9.508  13.139  13.787  0.8435  1.2819  1.9718
26479SOL    HW291417   9.384  13.115  13.871 -0.6426 -0.1046 -0.4902
26480SOL     OW91418   4.550   7.083   1.144 -0.3251  0.2341 -0.2688
26480SOL    HW191419   4.518   7.064   1.233 -0.4992 -0.5767 -0.4966
26480SOL    HW291420   4.595   7.166   1.153  0.9891 -0.5550  0.9198
26481SOL     OW91421   0.322  12.251  10.755  0.0045 -0.1254 -0.4730
26481SOL    HW191422   0.317  12.338  10.715 -1.8390 -0.9055 -2.1661
26481SOL    HW291423   0.231  12.222  10.759  0.6613 -2.5739 -1.4120
26482SOL     OW91424   2.418  11.748   8.089  0.1520  0.4543 -0.0707
26482SOL    HW191425   2.379  11.667   8.058 -1.0277  1.7072 -2.1601
26482SOL    HW291426   2.369  11.771   8.168  2.0389 -1.9322  1.9509
26483SOL     OW91427   4.067   8.227   2.252  0.3113 -0.6193 -0.0801
26483SOL    HW191428   4.157   8.239   2.284  0.5926 -0.9584 -0.7193
26483SOL    HW291429   4.077   8.210   2.158 -0.6112  2.4157 -0.8365
26484SOL     OW91430   7.941  13.106   6.302  0.0792  0.5826 -0.2991
26484SOL    HW191431   7.933  13.112   6.398  0.4758 -0.2549 -0.2054
26484SOL    HW291432   7.857  13.073   6.273  0.1358  0.3447 -0.1914
26485SOL     OW91433  12.289  12.714   3.191 -0.1843  0.1546 -0.1671
26485SOL    HW191434  12.300  12.623   3.163 -1.1268 -0.0650  0.1395
26485SOL    HW291435  12.357  12.727   3.257  0.6533  0.0136 -0.9844
26486SOL     OW91436  13.059   6.409   8.617  0.1397  0.0284  0.4117
26486SOL    HW191437  12.976   6.414   8.570  0.8667  0.8349 -0.8240
26486SOL    HW291438  13.093   6.322   8.597  0.6901  0.5499 -1.0348
26487SOL     OW91439  14.000   9.877   5.919  0.2323 -0.4058 -0.5981
26487SOL    HW191440  14.075   9.858   5.863  1.3701  1.3927  0.2174
26487SOL    HW291441  13.972   9.965   5.893 -0.3986 -0.3003  0.3951
26488SOL     OW91442   8.147  11.430   0.114  0.5246 -0.5645  0.4989
26488SOL    HW191443   8.174  11.364   0.178  1.9219 -1.4016 -0.8790
26488SOL    HW291444   8.081  11.482   0.159  2.5033 -0.1513  3.1721
26489SOL     OW91445  11.898   4.798   9.633  0.2641  0.7917  0.2509
26489SOL    HW191446  11.966   4.744   9.594 -1.3814 -0.7263 -0.6593
26489SOL    HW291447  11.945   4.857   9.693  2.3868  0.1761 -0.7288
26490SOL     OW91448  13.956   3.354   2.965 -0.0837  0.1901 -0.4352
26490SOL    HW191449  13.915   3.271   2.942  1.0921  0.2164 -2.9825
26490SOL    HW291450  13.937   3.412   2.891  1.8256  1.1610 -0.2337
26491SOL     OW91451  11.972   9.158  10.523  0.1557  0.3287  0.5750
26491SOL    HW191452  12.066   9.140  10.517  0.3842  1.6457 -0.1625
26491SOL    HW291453  11.965   9.233  10.582 -0.4737 -0.0177  0.9547
26492SOL     OW91454  10.571   1.426  10.344  0.2480  0.3559 -0.3200
26492SOL    HW191455  10.559   1.484  10.269 -2.1219  0.5007  0.0869
26492SOL    HW291456  10.585   1.340  10.306  1.7277  0.8143 -0.9037
26493SOL     OW91457   2.395   7.333   5.965 -0.2381 -0.0243 -0.1787
26493SOL    HW191458   2.469   7.374   6.010  0.0636 -1.4106  0.6475
26493SOL    HW291459   2.325   7.398   5.970  0.3287  0.5387  0.7649
26494SOL     OW91460  11.563  12.185  13.124  0.1635  0.1319 -0.3474
26494SOL    HW191461  11.626  12.116  13.146 -1.3838 -1.3934 -0.4540
26494SOL    HW291462  11.575  12.199  13.030  1.2775  0.8685 -0.1116
26495SOL     OW91463  11.664  12.454  11.093 -0.0286 -0.4679 -0.2348
26495SOL    HW191464  11.741  12.445  11.150  1.1553  0.2740 -1.6203
26495SOL    HW291465  11.662  12.373  11.042  1.2117  0.3848 -1.7353
26496SOL     OW91466   5.390   8.211   4.279 -0.0021  0.1951  0.2712
26496SOL    HW191467   5.403   8.208   4.374  0.6332  1.7394  0.2650
26496SOL    HW291468   5.381   8.305   4.259  0.3610 -0.0662 -1.2517
26497SOL     OW91469   3.791   4.382   9.680  0.1186 -0.8132  0.9791
26497SOL    HW191470   3.816   4.471   9.656 -0.7360 -0.0607  2.7513
26497SOL    HW291471   3.849   4.360   9.753 -0.4401 -1.2736  1.2875
26498SOL     OW91472   3.933  12.348   8.031 -0.0729  0.4985 -0.0287
26498SOL    HW191473   3.945  12.429   7.981 -1.2158  0.1972 -0.8175
26498SOL    HW291474   3.848  12.314   8.003 -0.0086 -0.5299  0.9385
26499SOL     OW91475   5.430   5.265  10.173  0.9041  0.0448 -0.1898
26499SOL    HW191476   5.520   5.268  10.141  0.4047 -0.9586 -1.7512
26499SOL    HW291477   5.424   5.341  10.231  3.0635 -0.4860  0.8557
26500SOL     OW91478   2.146  12.721   7.483 -0.5797 -0.0418 -0.4354
26500SOL    HW191479   2.114  12.807   7.458 -0.5325 -0.5524 -2.5210
26500SOL    HW291480   2.201  12.736   7.559  1.1928  2.1209 -2.0198
26501SOL     OW91481   4.002   6.669   7.979  0.0397 -0.6224  0.2271
26501SOL    HW191482   4.041   6.743   7.933 -2.0203  0.3460 -0.0933
26501SOL    HW291483   4.024   6.592   7.926 -0.9589  0.2742 -1.5550
26502SOL     OW91484   3.837  12.850   4.980 -0.2886  0.0988 -0.5819
26502SOL    HW191485   3.774  12.783   5.007 -1.7783  1.4318 -0.6455
26502SOL    HW291486   3.922  12.813   5.005 -1.1113 -1.4964  0.0358
26503SOL     OW91487   1.372  12.712  13.281 -0.1219  0.1227 -0.0936
26503SOL    HW191488   1.332  12.799  13.282 -0.6516 -0.0956 -1.1780
26503SOL    HW291489   1.393  12.696  13.189  0.1016 -0.8417  0.1143
26504SOL     OW91490  10.614   7.039  11.413  0.1238  0.0207  0.0905
26504SOL    HW191491  10.610   7.024  11.508 -1.6707 -2.1894 -0.2595
26504SOL    HW291492  10.559   7.115  11.399 -1.9979 -1.3330  0.6022
26505SOL     OW91493   3.920  10.877   9.783 -0.3596  0.1729 -0.2090
26505SOL    HW191494   3.920  10.781   9.788  1.8352  0.0655 -1.0622
26505SOL    HW291495   3.933  10.896   9.690  0.1200  1.2686  0.0610
26506SOL     OW91496   0.291   7.815   6.290 -0.0442 -0.0860  0.2344
26506SOL    HW191497   0.287   7.906   6.262 -0.8310 -0.1041  0.2426
26506SOL    HW291498   0.374   7.807   6.337  1.2459 -0.0188 -1.9191
26507SOL     OW91499   0.753  10.620  13.797 -0.6349 -0.3995  0.1154
26507SOL    HW191500   0.742  10.581  13.884 -0.0250 -1.2471 -0.1745
26507SOL    HW291501   0.701  10.565  13.739 -1.3614  0.3963 -0.0219
26508SOL     OW91502   4.297  10.767   9.889 -0.6573 -0.4378 -0.1946
26508SOL    HW191503   4.252  10.721   9.960  2.6492 -1.9176  1.1373
26508SOL    HW291504   4.318  10.698   9.825  1.8117 -0.3294  0.4297
26509SOL     OW91505   3.852   0.264   0.352 -0.1435  0.1833 -0.2363
26509SOL    HW191506   3.808   0.227   0.276 -0.9028 -0.8669  0.6796
26509SOL    HW291507   3.866   0.356   0.330 -2.0689  0.3587 -0.8798
26510SOL     OW91508  13.217   8.761   0.239 -0.1480 -0.2006  0.6805
26510SOL    HW191509  13.261   8.846   0.238 -1.1556  0.3537  1.3616
26510SOL    HW291510  13.152   8.769   0.309 -0.8339 -1.2445  0.1853
26511SOL     OW91511   9.521  10.365   0.901 -0.6013 -0.0335  0.3557
26511SOL    HW191512   9.505  10.458   0.918 -0.8682 -0.3276  1.9314
26511SOL    HW291513   9.435  10.324   0.906 -0.4468 -0.4109 -0.0293
26512SOL     OW91514  10.229  11.309   1.565 -0.3258  0.1493  0.2431
26512SOL    HW191515  10.296  11.354   1.513 -0.0138  0.8320  1.2145
26512SOL    HW291516  10.278  11.266   1.635 -1.0128  2.6543  2.4338
26513SOL     OW91517   2.966  12.656   1.332 -0.1123 -0.6166 -0.1121
26513SOL    HW191518   2.962  12.571   1.376 -1.3847  1.0784  3.4016
26513SOL    HW291519   3.059  12.679   1.333 -0.0471 -0.8704  1.2780
26514SOL     OW91520   9.211  11.569  12.440 -0.0004  0.2687 -0.0655
26514SOL    HW191521   9.297  11.606  12.461  0.0324  0.7645 -1.0289
26514SOL    HW291522   9.149  11.618  12.494  0.0939  1.4392 -0.9892
26515SOL     OW91523   8.351   4.425   1.884 -0.3122 -0.4079  0.3843
26515SOL    HW191524   8.256   4.438   1.890 -0.1261  1.6115 -0.4600
26515SOL    HW291525   8.360   4.340   1.841 -1.7064 -1.1702  1.4997
26516SOL     OW91526  13.350   4.318   0.820  0.1960  0.4035 -0.3351
26516SOL    HW191527  13.427   4.321   0.876  0.5928  2.2370 -0.9063
26516SOL    HW291528  13.327   4.410   0.805 -1.8205 -0.0853 -0.5787
26517SOL     OW91529   4.997   9.106   8.129  0.8930 -0.4432 -0.2361
26517SOL    HW191530   4.980   9.012   8.124 -0.3805 -0.2101 -0.7256
26517SOL    HW291531   5.038   9.119   8.214 -0.7953 -1.1834  0.7325
26518SOL     OW91532  12.329   4.824   0.336 -0.2263  1.1254  0.9736
26518SOL    HW191533  12.319   4.857   0.425 -2.8907  1.1764  0.7557
26518SOL    HW291534  12.418   4.789   0.332  1.1947  4.2117  2.5611
26519SOL     OW91535  11.420   2.146   6.125  0.4280 -0.4173  0.5715
26519SOL    HW191536  11.437   2.206   6.052 -0.1691 -0.7660  0.1351
26519SOL    HW291537  11.387   2.067   6.084  0.6274 -0.8278  1.1904
26520SOL     OW91538   1.881   3.836  11.966 -0.1108 -0.2678 -0.0591
26520SOL    HW191539   1.823   3.861  11.895  0.2248  1.8707  0.3616
26520SOL    HW291540   1.826   3.786  12.026 -0.7744 -0.7414 -1.0355
26521SOL     OW91541  13.312   1.240   8.744 -0.2187  0.4232 -1.1098
26521SOL    HW191542  13.300   1.335   8.748  1.2393  0.5915 -0.0855
26521SOL    HW291543  13.313   1.212   8.835  1.9956 -0.1861 -1.2653
26522SOL     OW91544   1.596   2.988   2.581 -0.5959  0.1759 -0.1388
26522SOL    HW191545   1.692   2.986   2.580 -0.5993 -0.6005 -1.1613
26522SOL    HW291546   1.572   3.051   2.513 -0.8019  0.1693 -0.0721
26523SOL     OW91547   6.011   8.460   2.630  0.6462  0.2575  0.3912
26523SOL    HW191548   6.033   8.368   2.647  0.8086 -0.0511 -1.3413
26523SOL    HW291549   6.094   8.501   2.605  0.6719  1.0233  1.6626
26524SOL     OW91550   7.290   4.286  13.856  0.5113 -0.2333 -0.0655
26524SOL    HW191551   7.286   4.283  13.951 -3.9986 -2.3487 -0.0513
26524SOL    HW291552   7.253   4.371  13.832  0.6619 -0.1318  0.0640
26525SOL     OW91553   1.166   9.486   0.573  0.2503 -0.2587  0.2834
26525SOL    HW191554   1.211   9.433   0.638  0.4928  0.3926  0.6571
26525SOL    HW291555   1.153   9.428   0.498 -1.5373 -1.5485  1.5148
26526SOL     OW91556  12.407   2.943  12.359  0.1138  0.1200  0.0574
26526SOL    HW191557  12.340   2.898  12.308 -0.1497 -0.1645  0.6390
26526SOL    HW291558  12.377   2.936  12.450  0.8570  0.1171  0.3137
26527SOL     OW91559   2.843  13.811   0.275  0.2614  0.2521 -0.5255
26527SOL    HW191560   2.808  13.834   0.189 -1.1415 -2.5647 -0.8130
26527SOL    HW291561   2.790  13.861   0.337 -0.9295 -0.1650 -1.1818
26528SOL     OW91562   1.940   7.906  10.030 -0.3177 -0.1809  0.3607
26528SOL    HW191563   1.888   7.970  10.079  1.4406  0.3406  1.6913
26528SOL    HW291564   1.917   7.821  10.069 -3.4155 -0.6162 -2.0885
26529SOL     OW91565   1.496   5.212   8.620  0.8626 -0.3134  0.3354
26529SOL    HW191566   1.510   5.205   8.525  0.2826  1.8581  0.0440
26529SOL    HW291567   1.538   5.294   8.644 -0.8187  0.2359  1.5638
26530SOL     OW91568   5.482  11.252   5.048  0.1792 -0.5110 -0.1686
26530SOL    HW191569   5.407  11.200   5.019 -0.6251 -0.4616  1.6654
26530SOL    HW291570   5.529  11.275   4.968 -1.3323 -1.2048 -1.2866
26531SOL     OW91571   6.096   3.427  11.083  0.5350 -0.5951 -0.3414
26531SOL    HW191572   6.149   3.386  11.014  0.5589  1.2933 -1.5048
26531SOL    HW291573   6.080   3.356  11.146  0.7655 -2.3113 -2.1219
26532SOL     OW91574   4.326  13.509   4.007  0.5877 -0.7446 -0.5125
26532SOL    HW191575   4.349  13.586   4.058  1.4059 -1.5712  0.4044
26532SOL    HW291576   4.235  13.491   4.030 -0.4893  1.4280 -2.7092
26533SOL     OW91577   1.077   2.038  10.392 -0.2247 -0.1594  0.0886
26533SOL    HW191578   1.138   2.108  10.413 -0.9816  0.4437  0.3444
26533SOL    HW291579   1.034   2.018  10.475 -1.7684  0.8065 -0.4187
26534SOL     OW91580   5.954  11.274  12.377  0.3301  0.8424  0.1828
26534SOL    HW191581   5.978  11.217  12.304 -0.2724 -1.7352  1.8875
26534SOL    HW291582   6.038  11.309  12.408  0.6614  1.3514 -1.1997
26535SOL     OW91583   2.759   2.516   5.401 -0.1544  0.0413 -0.3237
26535SOL    HW191584   2.835   2.467   5.369 -0.5669 -1.5697  0.9502
26535SOL    HW291585   2.793   2.603   5.421  0.4706  0.5665 -3.3158
26536SOL     OW91586   1.874   9.669   3.019  0.0963  0.1875  0.1070
26536SOL    HW191587   1.952   9.615   3.006 -0.5914 -0.7804 -0.1415
26536SOL    HW291588   1.896   9.727   3.091 -0.5509 -3.3099  3.4719
26537SOL     OW91589  12.630   9.655   0.908  0.0797  0.2252 -0.0855
26537SOL    HW191590  12.654   9.633   0.817 -1.9912 -2.4822 -0.0930
26537SOL    HW291591  12.670   9.585   0.960  0.6001  1.3367  1.0604
26538SOL     OW91592   7.955   9.132  12.418  0.0900  0.3536 -0.0357
26538SOL    HW191593   7.940   9.226  12.429  0.6379  0.4878 -0.3941
26538SOL    HW291594   8.020   9.126  12.348  1.1379 -0.2195  0.9516
26539SOL     OW91595   2.673  10.668   3.107 -0.4122  0.0815  0.0964
26539SOL    HW191596   2.662  10.584   3.153  0.4460 -0.5834 -0.8879
26539SOL    HW291597   2.606  10.666   3.038  0.2755 -0.2559 -0.5708
26540SOL     OW91598   3.126  10.471   7.419  0.0420 -0.1547 -1.1407
26540SOL    HW191599   3.046  10.497   7.464  0.3126 -0.3584 -0.5265
26540SOL    HW291600   3.164  10.404   7.476  0.6575 -0.0395 -1.4146
26541SOL     OW91601   7.237  13.052  12.463  0.3785  0.3678  0.2813
26541SOL    HW191602   7.249  13.131  12.410 -3.2896  0.0200 -1.3260
26541SOL    HW291603   7.144  13.051  12.484  0.7640 -2.3064  2.3669
26542SOL     OW91604   3.370   0.964   2.902 -0.2022  0.5968  0.2507
26542SOL    HW191605   3.378   1.015   2.821  0.3944 -0.7552 -0.5725
26542SOL    HW291606   3.278   0.974   2.927 -0.0332  2.3212  0.3124
26543SOL     OW91607   5.450   6.329  10.030 -0.0453 -0.1465 -0.3085
26543SOL    HW191608   5.503   6.408  10.033  3.2355 -2.1534 -0.7237
26543SOL    HW291609   5.412   6.322  10.117 -1.7682  2.6353 -0.7388
26544SOL     OW91610   6.037   8.167  12.430 -0.0093  0.6490 -0.2790
26544SOL    HW191611   6.063   8.171  12.338 -0.5352  0.8809 -0.4228
26544SOL    HW291612   6.020   8.258  12.454  0.7409  0.6633  0.2363
26545SOL     OW91613  12.673   6.667   7.218  0.5236  0.5738 -0.3976
26545SOL    HW191614  12.579   6.684   7.212  0.2876 -0.6027 -0.2607
26545SOL    HW291615  12.680   6.588   7.271  1.5707  0.3571 -0.8261
26546SOL     OW91616  13.329  10.044   5.702 -0.9009  0.1855  0.2856
26546SOL    HW191617  13.401  10.094   5.663 -1.0027 -0.3741 -0.6327
26546SOL    HW291618  13.330  10.070   5.794  0.9528 -0.3564  0.4551
26547SOL     OW91619   7.897   0.049   5.412 -0.1387 -0.1401  0.0157
26547SOL    HW191620   7.890   0.052   5.508 -0.6287  0.2023 -0.0298
26547SOL    HW291621   7.987   0.078   5.394 -0.3323  0.7000  0.3304
26548SOL     OW91622   8.694   7.920   7.106  0.5436  0.0891 -0.4872
26548SOL    HW191623   8.655   7.914   7.193  1.1931  1.9478 -0.0173
26548SOL    HW291624   8.683   7.833   7.068 -0.4824 -0.5233  1.1313
26549SOL     OW91625   1.445  12.365  11.198  0.7402 -0.1415 -0.2882
26549SOL    HW191626   1.358  12.357  11.237 -0.4740  1.1915 -2.5307
26549SOL    HW291627   1.471  12.274  11.180 -0.0336 -0.5730  0.6799
26550SOL     OW91628   7.776   9.404   4.060 -0.2559 -0.5234 -0.0674
26550SOL    HW191629   7.778   9.309   4.068  0.4459 -0.4840  0.3151
26550SOL    HW291630   7.788   9.436   4.149 -0.7245 -0.0741 -0.1646
26551SOL     OW91631  13.047   2.656  13.227  0.1978 -0.0612 -0.1030
26551SOL    HW191632  12.966   2.692  13.263  0.5171 -1.5456  2.3529
26551SOL    HW291633  13.026   2.564  13.209  1.1924 -0.3684  0.2282
26552SOL     OW91634  13.875   6.022   2.248 -0.0995 -0.1898 -0.4963
26552SOL    HW191635  13.877   5.929   2.226  1.0379 -0.2114 -0.3366
26552SOL    HW291636  13.931   6.029   2.325  0.6799  0.7974 -1.1442
26553SOL     OW91637  13.976   7.718  11.276  0.1814 -0.4320 -0.5761
26553SOL    HW191638  13.999   7.651  11.212  0.6263  0.1540 -1.0427
26553SOL    HW291639  13.957   7.670  11.356  1.2739 -1.0586 -0.6821
26554SOL     OW91640   0.272   2.029   8.534  0.0590  0.8587  0.1857
26554SOL    HW191641   0.307   1.942   8.514  0.1126  0.2121  2.7077
26554SOL    HW291642   0.292   2.082   8.457 -0.9533 -1.6009 -1.9190
26555SOL     OW91643  10.550   6.359   3.091  0.0675 -0.2782 -0.1649
26555SOL    HW191644  10.495   6.299   3.040 -0.5153  1.5655 -1.8066
26555SOL    HW291645  10.498   6.380   3.168  0.1756 -1.6218  0.3089
26556SOL     OW91646   1.810   7.518   4.186 -0.0553  0.2368  0.0865
26556SOL    HW191647   1.853   7.435   4.163 -1.0462  0.5924 -3.5285
26556SOL    HW291648   1.882   7.581   4.191  0.3361 -0.0800 -1.2182
26557SOL     OW91649   8.855  12.094   8.450 -0.1432 -0.1151 -0.1263
26557SOL    HW191650   8.822  12.176   8.413  0.7323  0.0724 -0.5147
26557SOL    HW291651   8.778  12.038   8.456 -1.3467  1.6301  2.7005
26558SOL     OW91652   0.065   4.834   0.732  0.1839  0.0283 -0.1855
26558SOL    HW191653   0.003   4.767   0.759  1.0992 -0.6112  0.3596
26558SOL    HW291654   0.151   4.798   0.752  0.7208  1.1532 -0.3613
26559SOL     OW91655   8.239  12.516   6.770 -0.2056  0.6370  0.3151
26559SOL    HW191656   8.237  12.555   6.683  1.2725 -0.8725 -0.4674
26559SOL    HW291657   8.291  12.577   6.823 -0.4636  1.1899 -0.0668
26560SOL     OW91658  12.516   0.348  12.267  0.0384 -0.3525  0.4426
26560SOL    HW191659  12.425   0.370  12.245 -0.5296 -2.4051  0.4930
26560SOL    HW291660  12.567   0.423  12.237 -1.5577  0.3559 -0.6323
26561SOL     OW91661  10.566  13.935   3.476 -0.8653  0.8856 -0.0202
26561SOL    HW191662  10.623  13.981   3.414  0.0056 -1.5834 -1.1494
26561SOL    HW291663  10.599  13.846   3.478 -2.4173  0.2775  2.1883
26562SOL     OW91664   5.628   0.515   6.994 -0.0011 -0.3072 -0.2658
26562SOL    HW191665   5.593   0.476   6.913 -0.9416  0.1932 -0.1153
26562SOL    HW291666   5.671   0.595   6.965  1.4030 -1.1022 -0.4981
26563SOL     OW91667  12.829   7.271   7.588  0.1697 -0.0842  0.4860
26563SOL    HW191668  12.832   7.366   7.591 -2.5470  0.0454  1.8470
26563SOL    HW291669  12.844   7.244   7.679 -0.4646 -0.8884  0.3608
26564SOL     OW91670   1.680   7.364   5.599 -0.2497  0.5620 -0.7597
26564SOL    HW191671   1.614   7.428   5.625  0.6012  0.9675  0.4844
26564SOL    HW291672   1.733   7.408   5.533 -0.2414  0.8093 -0.5872
26565SOL     OW91673   2.253   7.636  13.816  0.9538  0.2443 -0.3643
26565SOL    HW191674   2.181   7.695  13.793  1.2674  0.5996 -0.4603
26565SOL    HW291675   2.219   7.584  13.889  0.9184  1.0789  0.2442
26566SOL     OW91676  12.517   3.725   9.842 -0.2284 -0.7031 -0.4774
26566SOL    HW191677  12.610   3.747   9.848 -0.7442  1.1142  2.7170
26566SOL    HW291678  12.481   3.787   9.778  0.4415 -0.1865 -0.3584
26567SOL     OW91679  13.941  12.455   7.239  0.1372 -0.0837 -0.5081
26567SOL    HW191680  13.967  12.526   7.180  2.1409 -1.9203 -1.9877
26567SOL    HW291681  13.848  12.441   7.221  0.1384  0.9768 -1.4481
26568SOL     OW91682   5.474  12.640   0.476  0.1237 -0.0348 -0.4012
26568SOL    HW191683   5.568  12.654   0.474 -0.1730  2.3439 -0.9583
26568SOL    HW291684   5.442  12.677   0.393 -1.3227 -0.5497 -0.1097
26569SOL     OW91685   6.647   9.266   2.158 -0.1324 -0.0461  0.1241
26569SOL    HW191686   6.742   9.259   2.160 -0.1293  0.1483  0.7845
26569SOL    HW291687   6.618   9.186   2.114  0.3310 -0.1088 -0.0693
26570SOL     OW91688  10.661   5.516   8.918 -0.0188  0.7833  0.1625
26570SOL    HW191689  10.653   5.477   9.005  0.2112  2.5750  1.0276
26570SOL    HW291690  10.746   5.561   8.919 -0.2017  1.1775 -0.8310
26571SOL     OW91691   7.819   8.169   6.457  0.4807  0.2803  0.0028
26571SOL    HW191692   7.835   8.124   6.374 -1.5585 -2.2188  0.8307
26571SOL    HW291693   7.862   8.115   6.522 -0.5039  0.4965  0.8622
26572SOL     OW91694  13.097  10.189  13.748  0.3835  0.2109  0.0929
26572SOL    HW191695  13.036  10.124  13.783 -0.5070  0.6560 -0.5779
26572SOL    HW291696  13.069  10.202  13.658  2.8727 -1.1867 -0.9518
26573SOL     OW91697   1.007   9.670  12.226  0.5911 -0.3590  0.2214
26573SOL    HW191698   0.984   9.577  12.220  0.9868 -0.3964 -1.1126
26573SOL    HW291699   0.989   9.704  12.138  0.9800  0.7007  0.5460
26574SOL     OW91700   2.204   9.429  12.180 -0.0244 -0.0653  0.0797
26574SOL    HW191701   2.263   9.485  12.128 -1.2242  0.2161 -1.0225
26574SOL    HW291702   2.170   9.488  12.248  0.6570 -0.1309  0.4878
26575SOL     OW91703  10.526   1.471   5.444  0.4184  0.1386  0.2398
26575SOL    HW191704  10.516   1.378   5.466 -1.4164  0.4816  1.0247
26575SOL    HW291705  10.515   1.517   5.527 -3.2735  1.2816 -0.7066
26576SOL     OW91706  13.381   9.541   8.412  0.1574 -0.0111 -0.0769
26576SOL    HW191707  13.452   9.541   8.349  0.2518 -0.8346  0.0212
26576SOL    HW291708  13.344   9.629   8.407  0.4641  0.0704 -0.9287
26577SOL     OW91709   5.051   1.704   9.257 -0.1440 -0.3737  0.5957
26577SOL    HW191710   5.091   1.617   9.261 -1.1213 -0.9316 -0.7736
26577SOL    HW291711   4.971   1.695   9.308  0.3075  0.0686  1.3972
26578SOL     OW91712   5.480  13.664   6.666  0.2804 -0.6364  0.0191
26578SOL    HW191713   5.410  13.730   6.659  0.0392 -1.0372 -1.9607
26578SOL    HW291714   5.558  13.714   6.689 -0.2726  0.0953  0.3462
26579SOL     OW91715   2.429   3.284   9.818 -0.6534  0.0903  0.1210
26579SOL    HW191716   2.444   3.372   9.782  0.6166 -0.3293 -0.4364
26579SOL    HW291717   2.510   3.263   9.864 -0.7392 -0.9926 -0.1982
26580SOL     OW91718   1.084   4.855   1.588 -0.1926  0.0334 -0.2297
26580SOL    HW191719   0.989   4.864   1.582 -0.5420 -1.9529  1.2382
26580SOL    HW291720   1.100   4.761   1.580  1.7908  0.4360 -1.7088
26581SOL     OW91721   3.513   7.570   0.430  0.0462  0.4811 -0.2630
26581SOL    HW191722   3.586   7.581   0.369  1.4329 -0.4259  1.1687
26581SOL    HW291723   3.551   7.526   0.506 -1.6913  1.2812  1.1403
26582SOL     OW91724  10.541   2.789   1.851 -0.6306  0.1484 -0.5664
26582SOL    HW191725  10.464   2.797   1.794 -1.7021  0.9446  0.9412
26582SOL    HW291726  10.577   2.877   1.853 -0.9486  0.2623  0.4355
26583SOL     OW91727   5.418   4.393  11.655  0.2039 -0.4482  0.9804
26583SOL    HW191728   5.360   4.467  11.640  0.2413 -0.4542  0.7945
26583SOL    HW291729   5.506   4.432  11.662  0.4163 -0.5847 -0.5199
26584SOL     OW91730   9.432  12.389  10.270 -0.0092  0.6207 -0.0237
26584SOL    HW191731   9.492  12.341  10.327  0.3375  1.5748  0.4340
26584SOL    HW291732   9.403  12.463  10.323 -1.2932  0.3920 -0.3772
26585SOL     OW91733   7.487   9.912   3.732  0.2905 -0.6865 -0.4758
26585SOL    HW191734   7.560   9.974   3.723  0.2939 -0.7668 -1.0523
26585SOL    HW291735   7.436   9.924   3.652 -1.4060  0.7377  0.7569
26586SOL     OW91736  11.373  11.366  12.623 -0.2965 -0.3334 -0.5463
26586SOL    HW191737  11.444  11.362  12.558  2.1732 -2.1194  2.0414
26586SOL    HW291738  11.378  11.455  12.658  2.6208 -1.1383  1.4369
26587SOL     OW91739   5.479   5.918   8.000  0.2078 -0.2349  0.3947
26587SOL    HW191740   5.479   5.881   8.088  1.9617  0.6393  0.8108
26587SOL    HW291741   5.523   6.002   8.009  1.3780 -0.5769 -1.4765
26588SOL     OW91742   7.403  12.086   9.409 -0.3566  0.0264  0.7035
26588SOL    HW191743   7.342  12.141   9.458 -1.3776 -0.2646 -0.1997
26588SOL    HW291744   7.417  12.133   9.327  0.2140 -0.1732  0.6852
26589SOL     OW91745  10.242  10.100  11.258  0.6730 -0.3411 -0.8017
26589SOL    HW191746  10.192  10.047  11.197  0.8447 -0.1054 -1.1529
26589SOL    HW291747  10.298  10.155  11.203 -0.8056  1.5460 -0.5325
26590SOL     OW91748   8.465   6.914  11.027  0.1051  0.4195  0.3036
26590SOL    HW191749   8.452   6.962  11.109 -3.2230 -0.8807  0.6978
26590SOL    HW291750   8.534   6.851  11.046  0.8817  1.5539  1.3798
26591SOL     OW91751  12.885   8.927   1.465  0.1078  0.2810 -0.1993
26591SOL    HW191752  12.819   8.974   1.515 -1.2536 -0.6670 -1.0234
26591SOL    HW291753  12.911   8.854   1.521  0.3729  0.5951  0.0848
26592SOL     OW91754   4.512   3.329   8.187  0.5697 -0.4589 -0.5068
26592SOL    HW191755   4.433   3.362   8.232  0.6408  0.4060 -0.9928
26592SOL    HW291756   4.548   3.406   8.143  1.0841 -1.0795 -1.1890
26593SOL     OW91757  12.143   3.808  11.417  0.0207  0.0127  0.0825
26593SOL    HW191758  12.234   3.792  11.392 -0.1262 -1.2832  0.3118
26593SOL    HW291759  12.140   3.786  11.510 -0.5835 -0.2202  0.0102
26594SOL     OW91760   9.576   2.326   5.626  0.4833  0.0985  0.0871
26594SOL    HW191761   9.483   2.326   5.601 -0.0606  1.5797  1.8971
26594SOL    HW291762   9.610   2.408   5.590  1.4435 -0.9396 -1.5328
26595SOL     OW91763   2.420   9.022  13.579  0.7188 -0.2923 -0.3148
26595SOL    HW191764   2.377   8.959  13.520 -0.0832 -0.3007  0.2594
26595SOL    HW291765   2.511   8.993  13.582  0.8022 -0.2296 -1.6263
26596SOL     OW91766  11.075   5.296  13.438  0.5376 -0.0528 -0.6950
26596SOL    HW191767  11.117   5.235  13.378  1.2219 -1.7281  1.3969
26596SOL    HW291768  11.058   5.245  13.517 -1.9526  1.5957 -0.0512
26597SOL     OW91769  13.282   7.930   3.318 -0.1637  0.3631  0.3592
26597SOL    HW191770  13.290   7.842   3.280  1.7091 -0.8305  3.2132
26597SOL    HW291771  13.189   7.940   3.336 -0.5800 -0.4720 -1.1702
26598SOL     OW91772   4.861   2.286   7.138 -0.5461 -0.4290 -0.0145
26598SOL    HW191773   4.766   2.277   7.131 -0.5267 -0.7727  0.1382
26598SOL    HW291774   4.896   2.212   7.089 -0.3505 -0.0947 -0.3786
26599SOL     OW91775  10.441   6.265   3.436 -0.4877  0.1059 -0.1985
26599SOL    HW191776  10.353   6.240   3.464 -0.0601 -1.8466 -0.4111
26599SOL    HW291777  10.431   6.350   3.394 -2.2001  0.0755  0.1014
26600SOL     OW91778   4.837   4.762   9.246  0.6047  0.6016  0.8559
26600SOL    HW191779   4.816   4.813   9.168 -1.2109 -0.0749  0.8477
26600SOL    HW291780   4.869   4.826   9.309  2.8922  1.0451 -0.6697
26601SOL     OW91781   0.480   1.109   9.122  0.3189 -0.0883  0.4406
26601SOL    HW191782   0.428   1.181   9.158  1.6519  0.2631  1.8049
26601SOL    HW291783   0.503   1.138   9.034  0.0670  0.7512  0.6388
26602SOL     OW91784   7.742   1.725   6.210  0.0269 -0.0460  0.4012
26602SOL    HW191785   7.790   1.695   6.132  2.3963  1.5245  1.1466
26602SOL    HW291786   7.757   1.658   6.275  2.1662  0.8658  0.9252
26603SOL     OW91787   5.950   5.264   4.750  0.3780  0.7691 -0.2467
26603SOL    HW191788   5.932   5.182   4.704 -0.5288 -0.8579  2.7478
26603SOL    HW291789   5.864   5.299   4.770  0.7489  1.3210  0.4006
26604SOL     OW91790   9.904   6.362   5.107  0.1149  0.2289  0.6762
26604SOL    HW191791   9.969   6.362   5.037  0.2952  0.9322  0.8330
26604SOL    HW291792   9.911   6.449   5.146 -1.4779  0.6191  0.1786
26605SOL     OW91793   4.404   1.514   6.685  0.0118 -0.3177 -0.1099
26605SOL    HW191794   4.452   1.448   6.736 -1.7624 -1.1952  0.4904
26605SOL    HW291795   4.350   1.559   6.750 -0.0352  0.6028 -0.7802
26606SOL     OW91796   5.019  11.781  10.875  0.1118  0.0635  0.3987
26606SOL    HW191797   4.975  11.725  10.939  1.6659 -1.4859  0.1952
26606SOL    HW291798   5.051  11.855  10.925  1.5774 -1.2708  1.5420
26607SOL     OW91799  12.747   1.835   2.890 -0.3955 -0.2280  0.3749
26607SOL    HW191800  12.830   1.839   2.938 -0.2071  1.0500 -0.0100
26607SOL    HW291801  12.698   1.765   2.933  0.1113  0.2822  1.8788
26608SOL     OW91802   0.861   4.811   9.694 -0.3873  0.0589  0.3644
26608SOL    HW191803   0.829   4.812   9.604 -1.1531 -0.2091  0.6220
26608SOL    HW291804   0.902   4.896   9.706 -0.5190  0.1976 -0.1568
26609SOL     OW91805   5.303   4.367   0.098  0.1895 -0.1296  0.3532
26609SOL    HW191806   5.262   4.281   0.096 -0.3695  0.1350 -0.0025
26609SOL    HW291807   5.229   4.428   0.094  0.6373  0.3712 -1.9939
26610SOL     OW91808  13.508  12.151  11.595 -0.0659  0.3343 -0.0907
26610SOL    HW191809  13.419  12.179  11.616  0.3845  1.5096  0.3439
26610SOL    HW291810  13.519  12.170  11.502 -0.3191  0.0354 -0.1821
26611SOL     OW91811  11.618   8.972   1.751 -0.2781 -0.2282 -0.2198
26611SOL    HW191812  11.588   8.907   1.688  0.7259 -0.9649  0.0387
26611SOL    HW291813  11.688   9.019   1.706 -0.3294  0.0085 -0.0561
26612SOL     OW91814   2.754   5.560  11.271  0.2008  0.2423  0.2936
26612SOL    HW191815   2.734   5.623  11.202 -0.6506 -2.0508 -1.6709
26612SOL    HW291816   2.845   5.578  11.295 -0.3608  2.9828  0.7514
26613SOL     OW91817   9.629  13.828   3.250  0.1545  0.0147  0.6835
26613SOL    HW191818   9.535  13.842   3.257  0.0340  0.1914 -0.8897
26613SOL    HW291819   9.667  13.888   3.314 -0.6213  3.2762 -1.7030
26614SOL     OW91820   7.727   9.048   0.469  0.2687 -0.0991 -0.2952
26614SOL    HW191821   7.683   9.132   0.472  0.2952 -0.0815 -0.3979
26614SOL    HW291822   7.783   9.053   0.392  0.6459 -0.0233 -0.0175
26615SOL     OW91823   4.523  13.346  11.043 -0.1358  0.4714 -0.6395
26615SOL    HW191824   4.496  13.433  11.015 -1.7220 -0.7390 -3.2512
26615SOL    HW291825   4.569  13.309  10.967  1.3963 -0.6549  0.7473
26616SOL     OW91826   2.573  10.150   6.139 -0.2991 -0.0471  0.0429
26616SOL    HW191827   2.657  10.177   6.100  0.7484 -0.0686  2.1217
26616SOL    HW291828   2.520  10.122   6.065  1.3679  0.4156 -1.3985
26617SOL     OW91829   1.771   6.008   4.653  0.4482  0.5488 -0.3222
26617SOL    HW191830   1.696   5.960   4.689 -0.5581  1.2821 -1.3662
26617SOL    HW291831   1.735   6.054   4.577  2.0646  0.5964 -1.0835
26618SOL     OW91832   4.815   8.091  11.462  0.1542  0.7717 -0.2283
26618SOL    HW191833   4.820   8.084  11.367 -2.1353 -0.7509 -0.3196
26618SOL    HW291834   4.722   8.083  11.482  0.7396 -1.6719  2.2890
26619SOL     OW91835   9.189   6.842  13.092  0.0884 -0.5524 -0.4610
26619SOL    HW191836   9.097   6.834  13.117  0.5507 -1.4167  1.0890
26619SOL    HW291837   9.225   6.906  13.154  0.2916  0.7065 -1.8266
26620SOL     OW91838   7.886   7.390   4.709  0.1673 -0.0037  0.4761
26620SOL    HW191839   7.842   7.472   4.729 -0.7830 -0.2824 -0.4264
26620SOL    HW291840   7.872   7.376   4.616 -0.2909 -1.5370  0.7469
26621SOL     OW91841   3.351   7.559   8.641 -0.0982 -0.0253  0.3952
26621SOL    HW191842   3.356   7.469   8.673  0.0405 -0.1620  0.0007
26621SOL    HW291843   3.389   7.611   8.711 -0.8204 -0.2004  0.9161
26622SOL     OW91844  10.655   9.616   5.515 -0.4167 -0.0220 -0.3107
26622SOL    HW191845  10.743   9.581   5.505  0.3510  2.2078 -2.4108
26622SOL    HW291846  10.653   9.654   5.603  0.5387 -0.4680 -0.0865
26623SOL     OW91847   7.841   5.718   7.135 -1.0210  0.0260  0.3070
26623SOL    HW191848   7.856   5.679   7.221  0.5997 -1.2205 -0.4960
26623SOL    HW291849   7.905   5.788   7.129  0.1544 -1.0726 -0.5593
26624SOL     OW91850   3.491   8.336  10.878 -0.5256 -0.2571 -0.1539
26624SOL    HW191851   3.397   8.324  10.873 -0.6111  0.3340 -0.0672
26624SOL    HW291852   3.519   8.352  10.788 -0.7986  1.5015  0.0256
26625SOL     OW91853  13.043  13.670   2.596  0.2207  0.5116  0.2018
26625SOL    HW191854  12.990  13.694   2.672  2.5503 -0.3306  2.2239
26625SOL    HW291855  13.070  13.580   2.614  3.0942  1.2040 -0.1813
26626SOL     OW91856  13.877   0.299  10.679  0.6665  0.4898  0.5189
26626SOL    HW191857  13.941   0.250  10.731 -1.0463 -0.8450  1.4747
26626SOL    HW291858  13.873   0.252  10.596 -0.2371 -0.4432  1.0666
26627SOL     OW91859   6.465   6.953   6.678  0.1197  0.0095  0.0602
26627SOL    HW191860   6.443   7.014   6.748  5.1256  0.0822  1.9839
26627SOL    HW291861   6.502   7.009   6.609 -0.7220 -0.4487 -0.7852
26628SOL     OW91862   6.205  11.793  12.677 -0.7516  0.2812 -0.1313
26628SOL    HW191863   6.286  11.793  12.729 -0.7772 -0.6662 -0.0686
26628SOL    HW291864   6.180  11.700  12.672 -1.6229  0.5255 -0.4776
26629SOL     OW91865   1.091  13.205   7.575  0.2503 -0.2395 -0.1208
26629SOL    HW191866   1.007  13.250   7.566  0.0830 -0.5265  0.0098
26629SOL    HW291867   1.097  13.150   7.497  0.8215  0.5978 -0.6927
26630SOL     OW91868   4.445  12.884  11.456 -0.8119  0.0545 -0.3781
26630SOL    HW191869   4.351  12.898  11.442 -1.0255 -1.1895 -0.3343
26630SOL    HW291870   4.487  12.929  11.384 -1.3790  1.4006  0.0927
26631SOL     OW91871   9.186   9.641   8.706  0.2218  0.4132  0.4997
26631SOL    HW191872   9.166   9.734   8.695  0.2631  0.3587 -0.0893
26631SOL    HW291873   9.106   9.603   8.744  0.1603  0.6642  0.6223
26632SOL     OW91874   5.267   3.365   5.347 -0.3207 -0.7419 -0.1960
26632SOL    HW191875   5.331   3.396   5.411  0.7559 -1.4446 -0.8966
26632SOL    HW291876   5.245   3.276   5.375 -0.1335 -0.9124 -0.5847
26633SOL     OW91877   7.492   0.079   0.602  0.0666  0.2021  0.2217
26633SOL    HW191878   7.475   0.078   0.508  1.9546  1.4266 -0.1935
26633SOL    HW291879   7.581   0.045   0.611 -0.1380 -0.0370  1.5906
26634SOL     OW91880   0.629   4.061  11.113  0.0492  0.5146  0.1839
26634SOL    HW191881   0.562   4.121  11.145 -1.4663 -0.6114 -0.7098
26634SOL    HW291882   0.674   4.030  11.192  2.0742  4.0172  0.5937
26635SOL     OW91883   0.861   2.280   2.362  0.3433 -0.2472 -0.0917
26635SOL    HW191884   0.841   2.189   2.387 -0.2384  0.1194  0.8410
26635SOL    HW291885   0.881   2.323   2.445 -0.4536  0.7363 -0.3979
26636SOL     OW91886   2.700   0.952  13.312  0.1891 -0.8159 -0.1301
26636SOL    HW191887   2.635   0.961  13.242 -1.9597  0.0305  1.8796
26636SOL    HW291888   2.753   1.031  13.305  0.4889 -1.0916 -1.2405
26637SOL     OW91889   7.154  13.046   0.707 -0.3597 -0.2136 -0.7445
26637SOL    HW191890   7.116  12.985   0.643 -0.5481 -0.9066  0.0150
26637SOL    HW291891   7.163  13.128   0.659  1.4732 -1.2409 -2.3287
26638SOL     OW91892   0.556   1.927   7.993 -0.6617 -0.0436 -0.6286
26638SOL    HW191893   0.604   1.845   8.002 -2.0390 -0.7209  1.1197
26638SOL    HW291894   0.623   1.993   7.973  0.6339 -1.3355 -0.7079
26639SOL     OW91895   4.746   3.882  10.761  0.1402  0.4062  0.3589
26639SOL    HW191896   4.714   3.968  10.785 -0.5948 -0.4439  2.6516
26639SOL    HW291897   4.841   3.890  10.764  0.1483  1.6328 -1.5434
26640SOL     OW91898   6.297   0.926   0.048  0.2541 -0.6320 -0.0971
26640SOL    HW191899   6.241   0.950   0.122  0.0409  0.1692 -0.5027
26640SOL    HW291900   6.367   0.991   0.049 -1.0598  0.9305 -2.0200
26641SOL     OW91901   2.148  13.007   1.582  0.0393 -0.4459 -0.1756
26641SOL    HW191902   2.142  12.943   1.511 -0.1896 -1.4753  0.7501
26641SOL    HW291903   2.211  12.969   1.643  0.1612  0.3827  0.2284
26642SOL     OW91904   2.964   5.060   9.883 -0.0667  0.2105 -0.0813
26642SOL    HW191905   2.956   5.063   9.787  0.5115 -0.0511 -0.1462
26642SOL    HW291906   3.058   5.052   9.898 -0.0356  1.6093  0.5608
26643SOL     OW91907   6.263   7.481   0.450  0.2992 -0.2678 -0.8211
26643SOL    HW191908   6.293   7.477   0.541  0.6275 -1.0294 -0.9512
26643SOL    HW291909   6.177   7.522   0.454  0.7571  0.6516 -0.2782
26644SOL     OW91910   7.505   7.190   2.631 -0.1602  0.4217 -0.3601
26644SOL    HW191911   7.532   7.157   2.717 -0.8893 -0.9861 -0.6513
26644SOL    HW291912   7.433   7.250   2.650 -0.2294  0.2219  0.0156
26645SOL     OW91913   7.116  13.788  11.061 -1.0210  0.1487 -0.2363
26645SOL    HW191914   7.076  13.857  11.008 -0.2073  0.8931  0.0905
26645SOL    HW291915   7.144  13.722  10.997 -2.0393 -0.0213 -0.5301
26646SOL     OW91916  13.626   4.170  11.686  0.6371  0.4373 -0.6651
26646SOL    HW191917  13.670   4.113  11.623  0.7869 -0.0137 -0.1548
26646SOL    HW291918  13.533   4.165  11.662  0.3336 -1.7898  0.7300
26647SOL     OW91919   6.929   0.938   8.438  0.3656  0.4763  0.4101
26647SOL    HW191920   7.013   0.969   8.469 -0.9028  2.6570  1.8978
26647SOL    HW291921   6.883   0.908   8.516 -0.6614  0.3560 -0.2077
26648SOL     OW91922  10.064   2.418   6.713  0.0884  0.5445  0.1111
26648SOL    HW191923  10.088   2.367   6.636 -0.6401  0.4682 -0.0800
26648SOL    HW291924  10.147   2.444   6.753  0.4713 -0.4336 -0.0281
26649SOL     OW91925  11.543   8.305   5.186  0.1200 -0.4580  0.6072
26649SOL    HW191926  11.519   8.240   5.120 -1.6407  0.9685 -0.2520
26649SOL    HW291927  11.484   8.288   5.259 -0.6734  0.4143  0.1938
26650SOL     OW91928   7.805   2.982   2.971 -0.5040  0.0421 -0.4392
26650SOL    HW191929   7.863   3.032   3.028 -0.9437 -0.3495  0.3717
26650SOL    HW291930   7.796   3.036   2.892  0.1190  0.5884 -0.1448
26651SOL     OW91931  12.332   8.892   5.649 -0.2114  0.0887 -0.3663
26651SOL    HW191932  12.247   8.851   5.661 -0.9588  0.8116 -2.6655
26651SOL    HW291933  12.317   8.984   5.672  0.0189  0.1662 -0.5281
26652SOL     OW91934  12.513   5.920   2.667 -0.2479  0.3486  0.1712
26652SOL    HW191935  12.428   5.930   2.625  0.5114 -2.7992 -2.4967
26652SOL    HW291936  12.575   5.960   2.605  0.6639 -2.2997 -0.7708
26653SOL     OW91937   4.609   9.431   8.551  0.0749 -0.0124 -0.3677
26653SOL    HW191938   4.528   9.407   8.596  0.6445  1.2083  1.4090
26653SOL    HW291939   4.619   9.365   8.483 -0.5075 -2.3520  1.6854
26654SOL     OW91940   2.955   5.361  10.761  0.1416 -0.3922 -0.2346
26654SOL    HW191941   2.958   5.267  10.781  0.4431 -0.9860 -2.7549
26654SOL    HW291942   3.028   5.376  10.702 -1.0256  1.0049 -1.4207
26655SOL     OW91943  12.329  13.937   8.581 -0.3953  0.5062 -0.2068
26655SOL    HW191944  12.410  13.893   8.609 -0.4565  0.1131 -0.6345
26655SOL    HW291945  12.261  13.872   8.595 -0.4206  0.2834 -1.3097
26656SOL     OW91946   3.410   4.444   9.574 -0.4063  0.0288  0.0119
26656SOL    HW191947   3.419   4.419   9.482 -3.3091 -1.2090 -0.0537
26656SOL    HW291948   3.457   4.376   9.622  0.0005 -0.0665 -0.5080
26657SOL     OW91949  13.928  12.579   9.057 -0.5577  0.1029 -0.4058
26657SOL    HW191950  13.926  12.488   9.025  0.7646 -0.3084  0.5867
26657SOL    HW291951  13.873  12.578   9.135  0.9753 -0.3287  0.7048
26658SOL     OW91952   1.830   8.797   7.087  0.4634  0.0416 -0.2584
26658SOL    HW191953   1.821   8.883   7.127 -0.1909 -0.4022  0.5828
26658SOL    HW291954   1.800   8.809   6.997 -0.9455  0.3963  0.2447
26659SOL     OW91955   0.583  10.146   1.808  0.0375  0.1166  0.0415
26659SOL    HW191956   0.634  10.071   1.776  1.4715  0.0122  2.3132
26659SOL    HW291957   0.640  10.222   1.793  0.0568  0.2647  0.8122
26660SOL     OW91958   6.915   6.006  10.037  0.2162 -0.2186 -0.2076
26660SOL    HW191959   6.860   6.083  10.025  0.6965  0.5504  2.1116
26660SOL    HW291960   6.998   6.029   9.995 -0.6448 -0.8202 -2.4122
26661SOL     OW91961   1.111   2.362   4.555  0.1912 -0.7851  0.2843
26661SOL    HW191962   1.131   2.313   4.636  1.8940  1.8158  1.5602
26661SOL    HW291963   1.190   2.352   4.502 -0.3744 -1.2945 -0.4801
26662SOL     OW91964  12.555   2.553   9.282 -0.0280 -0.6965 -0.0434
26662SOL    HW191965  12.546   2.496   9.206 -0.7120 -0.3216 -0.2440
26662SOL    HW291966  12.620   2.618   9.256 -0.0326 -0.7526 -0.1955
26663SOL     OW91967   4.908  13.260  11.068 -0.5428  0.3909 -0.8418
26663SOL    HW191968   4.964  13.234  10.994 -0.2812 -1.4498 -0.0396
26663SOL    HW291969   4.822  13.225  11.045 -1.2160  2.4000 -1.6222
26664SOL     OW91970   8.182   1.450   9.471  0.5993 -0.5300  0.5534
26664SOL    HW191971   8.262   1.491   9.439 -0.0755  0.6722  0.3042
26664SOL    HW291972   8.113   1.513   9.448 -0.6979 -2.4518 -1.1378
26665SOL     OW91973  12.552   5.384   5.727  0.3713  0.1714  0.1796
26665SOL    HW191974  12.596   5.467   5.707  0.1033  0.1581 -0.5028
26665SOL    HW291975  12.488   5.373   5.656 -1.5118  0.7397  1.6963
26666SOL     OW91976  11.556   4.156   7.372 -0.2873  0.3744  0.6028
26666SOL    HW191977  11.476   4.199   7.405 -1.1084  0.2992 -1.1951
26666SOL    HW291978  11.535   4.063   7.372 -0.8090  0.4536 -1.3006
26667SOL     OW91979   1.226   4.412   5.773  0.3323 -0.0799  0.5801
26667SOL    HW191980   1.249   4.325   5.806  0.8144 -0.2180 -0.1026
26667SOL    HW291981   1.177   4.453   5.845 -2.0600 -1.8065  0.0679
26668SOL     OW91982   5.763   7.114   4.784 -0.4828  0.1960 -0.2240
26668SOL    HW191983   5.715   7.135   4.864  0.3370  1.6767 -0.0917
26668SOL    HW291984   5.737   7.024   4.763 -1.4468  0.1300  1.1614
26669SOL     OW91985   8.568   6.976  13.414  0.4907 -0.1909 -0.5049
26669SOL    HW191986   8.614   6.892  13.414  1.1831  0.1864 -0.0750
26669SOL    HW291987   8.584   7.012  13.327  0.7860 -0.1816 -0.4473
26670SOL     OW91988   1.715   8.776   0.616  0.0356 -0.0378  0.6809
26670SOL    HW191989   1.666   8.708   0.570  0.0177 -1.0232  2.0867
26670SOL    HW291990   1.735   8.841   0.549  0.2476 -1.5343 -0.7715
26671SOL     OW91991   1.389   2.310   7.778 -0.4173 -0.3025 -0.7170
26671SOL    HW191992   1.482   2.317   7.757 -0.3599 -1.7722 -1.1131
26671SOL    HW291993   1.387   2.276   7.867 -0.6319  2.3392  0.3506
26672SOL     OW91994   3.626  10.227   9.360  0.1698 -0.4061 -0.5187
26672SOL    HW191995   3.710  10.222   9.404  0.3228 -0.0755 -0.7663
26672SOL    HW291996   3.611  10.321   9.349  0.3725 -0.4881 -1.6159
26673SOL     OW91997  13.121   2.169   1.600 -0.1412  0.2995  0.7409
26673SOL    HW191998  13.064   2.188   1.674 -1.6117 -2.0721  0.3065
26673SOL    HW291999  13.210   2.171   1.636 -0.6608  1.4592  2.0161
26674SOL     OW92000   7.970  11.895  12.494  0.5149  0.0630  0.3045
26674SOL    HW192001   8.029  11.966  12.519 -0.1141  0.4068  0.8491
26674SOL    HW292002   7.959  11.905  12.400 -0.0357  1.0637  0.4620
26675SOL     OW92003   2.671   9.672   3.027 -0.1044 -0.4512  0.0406
26675SOL    HW192004   2.618   9.607   2.981 -0.3968 -0.4473  0.3723
26675SOL    HW292005   2.677   9.745   2.966  0.1118 -0.7314 -0.2793
26676SOL     OW92006  13.453   3.280  13.361 -0.4764 -0.7478  0.2914
26676SOL    HW192007  13.472   3.203  13.414  0.1071  0.2207  1.5585
26676SOL    HW292008  13.527   3.339  13.376 -1.2893  0.3927  0.0288
26677SOL     OW92009   6.877  10.960  11.341 -0.4537 -0.2722  0.3648
26677SOL    HW192010   6.950  11.005  11.299 -0.0829 -1.2148 -0.0090
26677SOL    HW292011   6.889  10.977  11.435 -0.8388  1.1701  0.1775
26678SOL     OW92012   4.783   3.274   2.392 -0.0331  0.5011  0.2974
26678SOL    HW192013   4.776   3.240   2.481 -0.7874  0.8006  0.3541
26678SOL    HW292014   4.776   3.369   2.401 -0.9059  0.4879 -0.1507
26679SOL     OW92015  10.040   2.526   5.825 -0.0623 -0.4103 -0.2574
26679SOL    HW192016  10.109   2.573   5.872  0.0035 -0.7278 -0.0364
26679SOL    HW292017   9.977   2.503   5.894 -0.8408  0.6646 -0.5812
26680SOL     OW92018   6.734   7.614   2.173  0.2704  0.1499 -0.3748
26680SOL    HW192019   6.758   7.533   2.129  1.3823 -0.3357  1.0247
26680SOL    HW292020   6.781   7.683   2.126 -2.0074  0.2831 -2.6471
26681SOL     OW92021   2.768   5.633   0.543 -0.5187  0.0445  0.1090
26681SOL    HW192022   2.673   5.640   0.556 -0.5245 -1.3498  1.0424
26681SOL    HW292023   2.803   5.626   0.632  0.3568 -0.5546 -0.2840
26682SOL     OW92024  13.355   8.538  11.349 -0.0403  0.1521 -0.3358
26682SOL    HW192025  13.383   8.480  11.420  1.4023  0.0750 -0.9224
26682SOL    HW292026  13.272   8.501  11.319  0.8014 -1.5845 -0.6320
26683SOL     OW92027   5.690   9.005   0.676 -0.1264  0.3239 -0.1385
26683SOL    HW192028   5.725   8.920   0.703 -0.8801 -0.5455 -1.7411
26683SOL    HW292029   5.763   9.066   0.689  0.3060 -0.4821  1.4013
26684SOL     OW92030   8.772   6.840   2.211  0.1777 -0.1352 -0.3363
26684SOL    HW192031   8.805   6.811   2.296 -0.4894  1.5758  0.5609
26684SOL    HW292032   8.739   6.760   2.170 -0.8896 -0.7964  1.6769
26685SOL     OW92033   7.581   2.537   8.943 -0.7902 -0.2104  0.3907
26685SOL    HW192034   7.628   2.453   8.945  1.3397  0.9252  1.3517
26685SOL    HW292035   7.639   2.595   8.895 -0.9993  1.3603  1.9484
26686SOL     OW92036  12.627   7.872  10.875  0.3594 -0.1735 -0.1735
26686SOL    HW192037  12.682   7.793  10.884 -0.2991 -0.6331 -0.1110
26686SOL    HW292038  12.686   7.944  10.894  0.4922 -0.7578  1.8475
26687SOL     OW92039   8.678   5.662   7.516  0.2549  0.0642  0.1702
26687SOL    HW192040   8.624   5.593   7.554  1.0852  0.1378  1.5892
26687SOL    HW292041   8.659   5.660   7.423 -1.2255 -0.7447  0.4640
26688SOL     OW92042  12.209   1.888   6.584  0.6139 -0.3291  0.0622
26688SOL    HW192043  12.186   1.935   6.665 -0.4952  0.5873 -0.7496
26688SOL    HW292044  12.127   1.846   6.557  0.5130  0.7920 -1.4873
26689SOL     OW92045   2.023   1.915  10.901 -0.2295  0.3676 -0.3907
26689SOL    HW192046   2.002   1.826  10.932  2.0522 -0.8566 -2.0282
26689SOL    HW292047   1.983   1.920  10.814 -0.9310  1.2588 -0.0354
26690SOL     OW92048   2.247   8.357  10.037  0.0297 -0.0064  0.2656
26690SOL    HW192049   2.234   8.448  10.013  0.1851  0.1711  0.8276
26690SOL    HW292050   2.244   8.309   9.954 -0.1892  0.4900 -0.0169
26691SOL     OW92051   4.538   1.181   7.980  0.8561  0.5315  0.0003
26691SOL    HW192052   4.526   1.276   7.979 -2.9573  0.2295  0.9422
26691SOL    HW292053   4.504   1.151   7.896 -0.8892 -0.1144  0.8715
26692SOL     OW92054   5.361   2.508   8.586 -0.3025  0.4330 -0.4383
26692SOL    HW192055   5.277   2.470   8.561 -1.4763  1.9971  0.9299
26692SOL    HW292056   5.351   2.531   8.678  1.8092  0.2244 -0.1026
26693SOL     OW92057   2.521   0.488  11.387 -0.1754 -0.4135  0.6694
26693SOL    HW192058   2.447   0.493  11.326 -0.0925  0.8398  0.6436
26693SOL    HW292059   2.488   0.527  11.468  0.1985 -0.6317  0.9305
26694SOL     OW92060   5.082  13.871  11.288  0.2154 -0.0776  0.2724
26694SOL    HW192061   5.140  13.932  11.243 -0.5324  0.9879  0.7125
26694SOL    HW292062   5.101  13.786  11.248  0.4541  0.6257 -1.1816
26695SOL     OW92063   7.991   0.670   6.468 -0.0845 -0.2749 -0.5184
26695SOL    HW192064   7.926   0.735   6.495  0.9411  0.8239 -0.6307
26695SOL    HW292065   8.075   0.716   6.471  0.8467 -1.9073  0.5645
26696SOL     OW92066   7.503   8.233  11.118 -0.0802  0.3025  0.4541
26696SOL    HW192067   7.445   8.233  11.195  2.1174 -0.2972  2.1929
26696SOL    HW292068   7.443   8.243  11.044 -2.3598  0.2867  2.1742
26697SOL     OW92069   2.040   2.496   5.054 -0.3211 -0.6803 -0.0633
26697SOL    HW192070   1.948   2.470   5.050 -0.0158 -1.9313  0.3968
26697SOL    HW292071   2.046   2.556   5.128 -0.1591 -3.5697  2.4777
26698SOL     OW92072  13.897   4.881   0.172  0.5411 -0.2518 -0.0326
26698SOL    HW192073  13.967   4.943   0.153  0.2915 -0.2544 -0.9734
26698SOL    HW292074  13.845   4.877   0.092 -1.0676  0.4287  0.9358
26699SOL     OW92075  13.569  11.376   3.867 -0.2522 -0.2105  0.0750
26699SOL    HW192076  13.613  11.423   3.796 -1.1871  0.8702  0.1853
26699SOL    HW292077  13.622  11.395   3.945  0.4359 -0.9136 -0.1981
26700SOL     OW92078   9.666   2.367   0.370  0.7358  0.2587 -0.1124
26700SOL    HW192079   9.617   2.294   0.332  0.8616  0.0226  0.1810
26700SOL    HW292080   9.604   2.440   0.368  0.5408  0.0925 -0.2137
26701SOL     OW92081  12.646   9.811  10.877 -0.3360  0.7138  0.4290
26701SOL    HW192082  12.585   9.884  10.874  0.2292  1.1760 -0.1822
26701SOL    HW292083  12.636   9.768  10.792 -0.3472  0.3440  0.6148
26702SOL     OW92084   5.899   7.389   7.047  0.0582 -0.1230  0.2899
26702SOL    HW192085   5.981   7.437   7.042  0.5062 -1.0390 -3.0900
26702SOL    HW292086   5.832   7.452   7.019  0.0762 -0.3280 -0.2137
26703SOL     OW92087   4.029   5.007   4.620 -0.3947  0.3415 -0.2960
26703SOL    HW192088   3.978   4.944   4.671  0.2615  0.5974  0.6994
26703SOL    HW292089   4.089   4.952   4.569 -0.7876  0.1007 -0.5075
26704SOL     OW92090  11.429   3.095   3.820 -0.2762 -0.0243  0.3534
26704SOL    HW192091  11.453   3.102   3.913 -1.0570  0.2517  0.5436
26704SOL    HW292092  11.395   3.007   3.810 -0.3568  0.0042  0.3723
26705SOL     OW92093  11.995   6.744   3.606  0.6028 -0.1413  0.3122
26705SOL    HW192094  12.057   6.716   3.539  0.0605  0.9051 -0.6577
26705SOL    HW292095  11.930   6.674   3.609  1.5881 -1.0526  1.0544
26706SOL     OW92096   6.357   0.330   2.327  0.5005  0.1330 -0.0374
26706SOL    HW192097   6.330   0.407   2.277  0.4965  0.2650  0.1660
26706SOL    HW292098   6.378   0.264   2.260  1.3895  0.6043 -0.2377
26707SOL     OW92099   6.081   8.222  12.158  0.0022  0.1284  0.2428
26707SOL    HW192100   6.079   8.308  12.116 -1.4870 -0.1440 -0.2719
26707SOL    HW292101   6.165   8.185  12.130 -0.1187  0.7115 -0.9626
26708SOL     OW92102   2.613  11.877  10.347 -0.2434  0.0565  0.1408
26708SOL    HW192103   2.588  11.823  10.271  0.0077 -0.1042  0.1724
26708SOL    HW292104   2.678  11.824  10.394  0.5425  0.6761 -0.2175
26709SOL     OW92105  12.425  12.403   4.576  0.4258 -0.7269  0.7088
26709SOL    HW192106  12.515  12.379   4.554  0.0787 -1.5919  0.1790
26709SOL    HW292107  12.374  12.377   4.499  0.2720  4.0236 -1.1032
26710SOL     OW92108  11.153   1.247  12.945 -0.4925  0.4072 -0.0484
26710SOL    HW192109  11.232   1.197  12.929 -0.0657  0.6803  1.1000
26710SOL    HW292110  11.161   1.277  13.035 -1.9982  0.2770  0.1640
26711SOL     OW92111   1.521   2.799   1.216  0.0119  0.1429 -0.1284
26711SOL    HW192112   1.583   2.812   1.144  0.3063 -0.3434  0.0307
26711SOL    HW292113   1.505   2.705   1.216  0.3119  0.0830  0.6788
26712SOL     OW92114   4.329  13.206  11.522 -0.3978  0.5751 -0.4711
26712SOL    HW192115   4.287  13.181  11.605 -1.1853 -0.2087 -1.0834
26712SOL    HW292116   4.378  13.127  11.496 -1.8486  0.0693 -1.7833
26713SOL     OW92117  10.561  11.763  13.892 -0.1868  0.0743 -0.3638
26713SOL    HW192118  10.494  11.696  13.906  1.0114 -0.7879  1.7326
26713SOL    HW292119  10.525  11.819  13.824 -2.9629 -0.4431  0.5529
26714SOL     OW92120  10.771   4.329  10.460  0.0462  0.4438 -0.6284
26714SOL    HW192121  10.724   4.279  10.394  0.9413  0.8045 -1.5615
26714SOL    HW292122  10.711   4.333  10.535 -0.7212 -0.5090 -1.1827
26715SOL     OW92123   2.590  10.924  10.318 -0.7074  0.2684  0.5327
26715SOL    HW192124   2.640  10.963  10.390  0.1913 -1.5863  0.9730
26715SOL    HW292125   2.636  10.951  10.239  1.5396 -1.9966  0.9628
26716SOL     OW92126   1.580   5.711   2.643 -0.3761 -0.9027  0.9293
26716SOL    HW192127   1.564   5.752   2.728 -1.5198 -0.7924  0.6767
26716SOL    HW292128   1.498   5.723   2.595  0.0567 -1.4838  0.0234
26717SOL     OW92129   8.246  13.736   4.863 -0.5285 -0.0530  0.3844
26717SOL    HW192130   8.252  13.829   4.888 -0.5480  0.2426 -0.6632
26717SOL    HW292131   8.169  13.732   4.806 -0.1516 -0.5985 -0.0931
26718SOL     OW92132  12.760   3.090   9.366 -0.6222  0.0014 -0.1855
26718SOL    HW192133  12.849   3.058   9.356 -0.8065 -0.0640 -1.7493
26718SOL    HW292134  12.769   3.169   9.419  0.2856 -0.3143  0.1529
26719SOL     OW92135   1.011  10.379   2.133 -0.0439 -0.0928  0.0475
26719SOL    HW192136   1.094  10.341   2.161 -0.2305  0.1192  0.9220
26719SOL    HW292137   1.035  10.442   2.065  0.3610 -1.0565 -0.7312
26720SOL     OW92138  10.961  12.678  11.191  0.0566  0.2259 -0.4388
26720SOL    HW192139  11.056  12.690  11.185 -0.0381  0.4961 -1.9719
26720SOL    HW292140  10.925  12.766  11.181 -0.3528  0.1235  0.1245
26721SOL     OW92141   3.508   0.288   3.025  0.6552 -0.5541  0.2177
26721SOL    HW192142   3.564   0.253   2.956 -1.0008 -0.3982 -1.2693
26721SOL    HW292143   3.428   0.235   3.020 -0.2974  0.7934  0.6382
26722SOL     OW92144   6.528   5.614   9.592 -0.1399  0.4250 -0.3153
26722SOL    HW192145   6.486   5.693   9.561 -1.1837  0.8406  1.9577
26722SOL    HW292146   6.463   5.573   9.649  0.6400 -1.7118 -0.8707
26723SOL     OW92147   4.044   9.406   6.347 -0.6394  0.2905 -0.9521
26723SOL    HW192148   3.974   9.364   6.397 -0.9398 -0.9883 -2.3982
26723SOL    HW292149   4.059   9.489   6.393 -0.7063 -0.9104  1.4056
26724SOL     OW92150   7.269  11.417   5.719 -0.4853  0.6433  0.0724
26724SOL    HW192151   7.242  11.424   5.811  1.5957 -2.7282  1.1159
26724SOL    HW292152   7.308  11.502   5.699 -1.6619  1.7233  2.0138
26725SOL     OW92153   1.713   2.036  10.052 -0.0917 -0.4324 -0.6086
26725SOL    HW192154   1.765   1.960  10.077  0.2088  0.2702  1.1092
26725SOL    HW292155   1.777   2.104  10.030 -0.2927 -0.0326  0.0015
26726SOL     OW92156   6.607   7.281   5.316  0.1614 -0.0038 -0.1983
26726SOL    HW192157   6.519   7.289   5.280  0.3471 -2.0294 -1.2414
26726SOL    HW292158   6.665   7.303   5.244  0.5103 -0.4501 -0.0607
26727SOL     OW92159   4.064   8.087   6.628 -0.1133  0.1593  0.1732
26727SOL    HW192160   4.038   7.999   6.657  1.2957  0.1352  1.5233
26727SOL    HW292161   4.049   8.086   6.533 -0.3943 -1.4397  0.1965
26728SOL     OW92162  12.924  10.132   7.796  0.3829  0.4139  0.5530
26728SOL    HW192163  12.992  10.191   7.764  1.5542 -1.2475 -0.2188
26728SOL    HW292164  12.846  10.186   7.805  0.3491  1.4079 -3.6823
26729SOL     OW92165   4.377  12.054   8.081  0.4360  0.2124  0.4075
26729SOL    HW192166   4.388  12.120   8.013  1.8467  1.1185  1.4623
26729SOL    HW292167   4.403  11.972   8.039  0.2969  0.5886 -0.4308
26730SOL     OW92168   3.842   4.944   0.737  0.2462 -0.3067  0.8555
26730SOL    HW192169   3.778   4.887   0.780  0.0218 -2.3385 -1.9245
26730SOL    HW292170   3.838   4.920   0.645  2.2320  2.2978 -0.0443
26731SOL     OW92171   8.515   5.873   3.304  0.1962 -0.0600  0.3171
26731SOL    HW192172   8.477   5.908   3.224 -0.5149 -0.5464  0.4403
26731SOL    HW292173   8.561   5.794   3.277 -0.1234 -0.2763  0.3984
26732SOL     OW92174   4.185   2.649   2.335  0.1321 -0.0903  0.4568
26732SOL    HW192175   4.183   2.568   2.283 -1.6098 -0.3886  0.9313
26732SOL    HW292176   4.183   2.719   2.270  1.8838 -0.3804  0.0289
26733SOL     OW92177   5.633   9.296   5.073  0.0418 -0.2579 -0.6889
26733SOL    HW192178   5.559   9.357   5.076  0.2630 -0.0092  1.6225
26733SOL    HW292179   5.612   9.229   5.139  0.9409 -1.3407 -1.4573
26734SOL     OW92180   8.175  12.402   9.002 -0.0708  0.6849 -0.3722
26734SOL    HW192181   8.106  12.468   8.987 -0.8481  0.0051  0.1179
26734SOL    HW292182   8.160  12.337   8.934  1.9337  1.9361 -2.1296
26735SOL     OW92183   7.969  13.049   7.250 -0.2439 -0.1559  0.3087
26735SOL    HW192184   7.947  13.120   7.189 -1.4363 -0.2271  0.6318
26735SOL    HW292185   7.984  13.094   7.334 -0.4754 -0.2322  0.3914
26736SOL     OW92186   7.420   9.016   1.539  0.1790 -0.4287  0.0130
26736SOL    HW192187   7.449   8.998   1.449  1.9326  0.0042  0.4614
26736SOL    HW292188   7.371   8.938   1.563 -2.5024  0.4222 -2.1272
26737SOL     OW92189   1.848  12.594   1.342  0.3376 -0.0257  0.0803
26737SOL    HW192190   1.870  12.502   1.329 -1.1355 -0.7432  2.1270
26737SOL    HW292191   1.788  12.615   1.270 -1.2059 -1.4237  0.8839
26738SOL     OW92192  13.380   6.282   2.848  0.2876 -0.2259  0.1756
26738SOL    HW192193  13.304   6.273   2.905  0.1606  1.1464  0.2742
26738SOL    HW292194  13.398   6.194   2.815 -2.3980 -0.3292 -1.2404
26739SOL     OW92195   0.704  13.462  10.945 -0.2390  0.6750 -0.4191
26739SOL    HW192196   0.798  13.448  10.927  0.0604  1.0970  0.7357
26739SOL    HW292197   0.660  13.416  10.874  0.8460  0.6066 -1.0868
26740SOL     OW92198   4.608  11.384   8.666 -0.0933  0.0493 -0.4196
26740SOL    HW192199   4.641  11.296   8.683  2.0516  1.2570  2.4217
26740SOL    HW292200   4.527  11.389   8.717  0.3704  0.0287  0.3405
26741SOL     OW92201  12.002   4.043  10.813 -0.2714  0.1318  0.4788
26741SOL    HW192202  11.925   4.088  10.778 -0.5127 -0.3662  0.3586
26741SOL    HW292203  12.016   3.970  10.754 -0.7216 -0.7570  1.4370
26742SOL     OW92204  13.361   8.814   2.338 -0.3707  0.1800  0.3484
26742SOL    HW192205  13.389   8.855   2.420 -0.2610 -0.4877  0.6428
26742SOL    HW292206  13.415   8.856   2.271 -0.3769  0.6395  0.6262
26743SOL     OW92207  12.348   1.766  11.425  0.3816 -0.1531 -0.4422
26743SOL    HW192208  12.279   1.809  11.375 -0.4837 -0.4924  0.4235
26743SOL    HW292209  12.428   1.784  11.376  0.1594  2.8208  0.1122
26744SOL     OW92210   2.998   2.968   3.590 -0.6989 -0.0506 -0.2761
26744SOL    HW192211   2.912   2.974   3.632  0.2739  0.8577  1.7234
26744SOL    HW292212   3.039   3.053   3.607  1.2903 -1.1050  0.4685
26745SOL     OW92213   3.533  11.783   2.738 -0.3724  0.2461  0.0940
26745SOL    HW192214   3.547  11.857   2.797 -1.7572  0.3413  0.3289
26745SOL    HW292215   3.492  11.822   2.660  2.2760  0.2816 -1.4195
26746SOL     OW92216   2.907   4.132   4.806 -0.3827  0.2232  0.4098
26746SOL    HW192217   2.985   4.082   4.781  0.9345  2.1985  0.3578
26746SOL    HW292218   2.866   4.079   4.874  0.6004 -1.1980 -0.0484
26747SOL     OW92219   1.433   3.514   0.358  0.4948  0.2087  0.1858
26747SOL    HW192220   1.350   3.467   0.364  1.1603 -0.8995  1.0789
26747SOL    HW292221   1.488   3.458   0.303  1.8201 -0.9490  2.5408
26748SOL     OW92222  11.750   2.958   8.005 -0.3777  0.2923 -0.5200
26748SOL    HW192223  11.696   2.906   7.945 -1.4570 -0.2679  0.8829
26748SOL    HW292224  11.821   2.899   8.031 -0.0992  0.4236 -0.9704
26749SOL     OW92225  12.920  12.901   3.987  0.3525 -0.5985 -0.0723
26749SOL    HW192226  12.889  12.989   4.008 -1.7056 -1.2416 -0.2476
26749SOL    HW292227  12.914  12.853   4.069 -0.8967 -1.2197 -0.5177
26750SOL     OW92228   1.696   0.589  11.582  0.3139 -0.0350 -0.5283
26750SOL    HW192229   1.785   0.594  11.548  0.0905 -0.5690 -1.2147
26750SOL    HW292230   1.647   0.651  11.528 -0.0971 -1.0793 -1.3762
26751SOL     OW92231   8.810  11.187   5.807  0.4843  0.0416  0.0962
26751SOL    HW192232   8.805  11.248   5.881 -0.7712 -0.4699  0.4504
26751SOL    HW292233   8.819  11.244   5.730 -1.9582  0.7950  0.2889
26752SOL     OW92234   5.327   0.506   1.081  0.1507 -0.0859  0.5747
26752SOL    HW192235   5.277   0.427   1.061  1.5408 -1.4062  1.9713
26752SOL    HW292236   5.261   0.570   1.107 -1.0473 -0.5974 -1.0271
26753SOL     OW92237   5.967   7.393   8.700  0.0848 -0.1028 -0.6279
26753SOL    HW192238   5.873   7.387   8.686  0.0402 -0.7523 -0.0969
26753SOL    HW292239   5.977   7.425   8.790  0.3786  1.0381 -1.0436
26754SOL     OW92240  12.267   8.480   3.355  0.0200 -0.5772 -0.0358
26754SOL    HW192241  12.255   8.480   3.450 -0.7622  0.5853 -0.1151
26754SOL    HW292242  12.284   8.572   3.333 -0.0180 -0.8023 -1.0341
26755SOL     OW92243  13.069   9.139   0.437  0.0877  0.3674  0.4336
26755SOL    HW192244  13.045   9.177   0.521 -0.0091  0.4012  0.3899
26755SOL    HW292245  13.165   9.129   0.442 -0.0162 -0.5223  0.9229
26756SOL     OW92246   3.438  12.876   3.211  0.7223 -0.1697  0.3159
26756SOL    HW192247   3.408  12.962   3.238  1.0967  0.0527  0.0301
26756SOL    HW292248   3.358  12.825   3.202  0.3759  0.5360 -0.8340
26757SOL     OW92249   7.233   7.867   4.630 -0.2584 -0.2443 -0.5472
26757SOL    HW192250   7.275   7.830   4.708 -0.3170  1.4993  0.3581
26757SOL    HW292251   7.283   7.946   4.611 -0.6215 -0.3113 -1.9487
26758SOL     OW92252  10.655   9.713   9.361 -0.1468  0.0617  0.4478
26758SOL    HW192253  10.608   9.633   9.339 -0.9463  1.1246 -1.9209
26758SOL    HW292254  10.614   9.743   9.443 -0.6503 -1.2756  0.7108
26759SOL     OW92255   2.679  10.398   7.920 -0.0768 -0.0889 -0.3699
26759SOL    HW192256   2.637  10.366   7.840  0.1136  2.3302 -1.5441
26759SOL    HW292257   2.773  10.384   7.905 -0.1394 -1.4427  0.3390
26760SOL     OW92258   4.592  11.070  10.622 -0.6028 -0.5009  0.1857
26760SOL    HW192259   4.497  11.067  10.608 -0.2525 -1.3548 -2.5113
26760SOL    HW292260   4.619  11.156  10.591 -0.4342 -0.4170  0.5596
26761SOL     OW92261   9.788   9.024   0.476 -0.7037 -0.0764  0.1109
26761SOL    HW192262   9.849   9.061   0.413  0.7158  0.8692  1.9345
26761SOL    HW292263   9.798   8.929   0.465 -1.4623  0.0429 -1.9256
26762SOL     OW92264   3.046   0.750   6.845 -0.5353 -0.2326  0.5248
26762SOL    HW192265   3.041   0.839   6.810 -1.8298  0.0373  1.3341
26762SOL    HW292266   2.986   0.700   6.790  1.5036 -1.0635 -1.0863
26763SOL     OW92267   0.601  10.284  10.530 -0.7481  0.3423 -0.1514
26763SOL    HW192268   0.661  10.279  10.604 -1.4065  0.1519  0.3809
26763SOL    HW292269   0.575  10.193  10.514  0.4774  0.1956 -1.5475
26764SOL     OW92270   0.264  13.745   5.371 -0.0992  0.1572  0.1330
26764SOL    HW192271   0.284  13.836   5.352 -1.1627 -0.0708 -2.5476
26764SOL    HW292272   0.186  13.748   5.427 -0.7204  0.9297 -0.7387
26765SOL     OW92273   2.917   6.624  10.500  0.3376  0.6067  0.3447
26765SOL    HW192274   2.833   6.609  10.543 -0.6421  1.6034 -1.1121
26765SOL    HW292275   2.919   6.719  10.485  0.9791  0.3885 -1.0713
26766SOL     OW92276   4.198   6.543   6.431  0.6695 -0.5399  0.2736
26766SOL    HW192277   4.266   6.585   6.485 -0.4469 -0.1456  1.4116
26766SOL    HW292278   4.205   6.450   6.452 -0.3811 -0.2980  1.9056
26767SOL     OW92279   4.976   1.011   3.171  0.7396  0.7395  0.5335
26767SOL    HW192280   5.027   1.079   3.213  0.2312  1.3803  0.1314
26767SOL    HW292281   5.039   0.943   3.148  1.0374  0.3631  2.3142
26768SOL     OW92282   5.490   9.100   1.914  0.0686 -0.3206  0.4559
26768SOL    HW192283   5.423   9.128   1.977  0.3233 -0.0628  0.6154
26768SOL    HW292284   5.442   9.090   1.832 -0.1413  0.0218  0.5307
26769SOL     OW92285   1.154   6.723   6.844 -0.0166  0.7596 -0.1607
26769SOL    HW192286   1.228   6.707   6.786 -1.0223  0.0008 -1.2856
26769SOL    HW292287   1.146   6.819   6.847  1.9796  0.9300  1.3022
26770SOL     OW92288  12.345   8.734   8.937  0.0050  0.1975 -0.0283
26770SOL    HW192289  12.403   8.708   9.009 -0.0693  0.1085  0.0008
26770SOL    HW292290  12.288   8.658   8.924  1.6023 -0.7734 -1.8195
26771SOL     OW92291   1.571  13.751   9.269 -0.0889 -0.7529  1.1272
26771SOL    HW192292   1.584  13.768   9.176  0.5329 -0.8849  1.1867
26771SOL    HW292293   1.535  13.662   9.272  0.7640 -1.1095  1.0576
26772SOL     OW92294   8.806  12.759  13.590 -0.1772  0.3538  0.0608
26772SOL    HW192295   8.901  12.749  13.594  0.0887  2.4728  0.3716
26772SOL    HW292296   8.792  12.854  13.592 -2.3821  0.0798  1.9359
26773SOL     OW92297  10.352  12.925  12.144  0.1748 -0.3949  0.0543
26773SOL    HW192298  10.415  12.854  12.156 -0.1405 -0.5237  1.0698
26773SOL    HW292299  10.282  12.886  12.090  1.9187  0.3734 -3.0222
26774SOL     OW92300  12.708  14.010  11.409  0.0720  0.3559 -0.3596
26774SOL    HW192301  12.698  14.105  11.405  2.1832  0.7246  1.5972
26774SOL    HW292302  12.718  13.984  11.317  0.3389  2.1227 -0.8762
26775SOL     OW92303  13.531   1.969  11.557 -0.1508 -0.4101 -0.4410
26775SOL    HW192304  13.612   2.012  11.529 -0.6740  1.7004  0.9409
26775SOL    HW292305  13.461   2.029  11.530 -1.0319 -0.8916  0.6463
26776SOL     OW92306   3.975   6.649   1.450  0.4542  0.5026 -0.1635
26776SOL    HW192307   3.937   6.658   1.362 -3.5300 -2.1114  1.0055
26776SOL    HW292308   3.989   6.555   1.461  1.4348  0.8207  1.8208
26777SOL     OW92309   9.276   2.032   8.750 -0.1121 -0.2496  0.1773
26777SOL    HW192310   9.366   2.062   8.742  0.2012 -0.5831  2.0287
26777SOL    HW292311   9.229   2.107   8.787 -0.2439 -0.5968  0.7235
26778SOL     OW92312   9.405   5.280   8.976 -0.3976 -0.2639  0.0651
26778SOL    HW192313   9.389   5.186   8.974  1.4630 -0.6395  0.4486
26778SOL    HW292314   9.500   5.287   8.988 -0.3963  1.6690 -0.7837
26779SOL     OW92315  10.044   1.445   8.292  0.0270 -0.4527  0.7908
26779SOL    HW192316   9.983   1.407   8.229 -0.5416 -1.2856  1.8151
26779SOL    HW292317  10.068   1.529   8.254 -2.4061  0.2925  0.7340
26780SOL     OW92318   5.302   8.921  10.924 -0.5048 -0.5888  0.0243
26780SOL    HW192319   5.258   8.890  11.004 -1.3626  0.4427 -0.0229
26780SOL    HW292320   5.384   8.959  10.955 -1.1068  0.3568  0.5167
26781SOL     OW92321   2.250   3.735  13.788 -0.1110  0.4813  0.2812
26781SOL    HW192322   2.202   3.668  13.836  2.0392  0.3035  2.3423
26781SOL    HW292323   2.238   3.712  13.696 -0.7405 -1.7900  0.8771
26782SOL     OW92324  10.948   6.351  12.398  0.2404 -0.6759  0.2348
26782SOL    HW192325  11.032   6.328  12.359  0.0863 -0.2746 -0.3395
26782SOL    HW292326  10.931   6.440  12.369 -1.0611 -1.2482 -0.8335
26783SOL     OW92327   2.238   1.086  13.884 -0.6279  0.4748 -0.0727
26783SOL    HW192328   2.325   1.116  13.911 -0.7580 -0.1207  1.0825
26783SOL    HW292329   2.252   0.997  13.853 -0.8912  0.1670  0.6549
26784SOL     OW92330   6.038   1.746  12.351 -0.1602 -0.2495  0.5227
26784SOL    HW192331   6.130   1.745  12.378  0.4684 -1.5925 -1.4838
26784SOL    HW292332   5.992   1.700  12.422  0.9097 -0.7417  0.9168
26785SOL     OW92333   1.613  10.959   4.348 -0.0549 -0.0904 -0.0644
26785SOL    HW192334   1.517  10.968   4.345 -0.1677 -0.5006  1.3471
26785SOL    HW292335   1.631  10.876   4.304 -0.6075 -1.2259  1.7304
26786SOL     OW92336   7.810   2.814   9.150  0.4417  0.0364  0.1053
26786SOL    HW192337   7.832   2.903   9.177  0.7270  0.5408 -1.6974
26786SOL    HW292338   7.717   2.819   9.125  0.6525  0.0194 -0.7031
26787SOL     OW92339   3.630  12.342  10.326 -0.1534 -0.0023  0.4763
26787SOL    HW192340   3.671  12.306  10.404 -1.0086 -1.8681  0.1230
26787SOL    HW292341   3.547  12.380  10.358  0.7875  1.8781  0.8603
26788SOL     OW92342  13.842   9.765   3.529 -0.1999  0.3179 -0.7147
26788SOL    HW192343  13.832   9.688   3.473  1.7925 -0.6957  0.2146
26788SOL    HW292344  13.796   9.742   3.610  2.3326 -0.9947  0.4786
26789SOL     OW92345   3.070  10.151   4.677  0.0533 -0.0872  0.4695
26789SOL    HW192346   3.027  10.237   4.679 -0.6499 -0.3404 -1.5475
26789SOL    HW292347   3.003  10.090   4.706 -0.7120 -0.3522 -1.6640
26790SOL     OW92348  11.892   6.578   5.479  0.1312  0.2156 -0.3981
26790SOL    HW192349  11.906   6.614   5.566 -0.4050  3.1810 -1.4234
26790SOL    HW292350  11.800   6.551   5.478  0.3646 -0.6301  0.1867
26791SOL     OW92351   7.531  13.716  13.111 -0.1688  0.4651  0.3477
26791SOL    HW192352   7.591  13.765  13.055 -0.4017  0.0431 -0.2943
26791SOL    HW292353   7.446  13.756  13.095 -0.0969  0.9406  1.1130
26792SOL     OW92354   0.467   7.827  13.572 -0.1523 -0.6521  0.4995
26792SOL    HW192355   0.483   7.802  13.481  1.3983  0.6311  0.3778
26792SOL    HW292356   0.542   7.794  13.620  0.6454  1.3878  0.7468
26793SOL     OW92357   8.998  10.682   9.338  0.1105  0.3264  0.1399
26793SOL    HW192358   9.087  10.655   9.317 -0.2390 -0.4850 -0.3828
26793SOL    HW292359   8.987  10.659   9.430 -0.3045 -1.7957 -0.3837
26794SOL     OW92360  12.853   8.759   6.668  0.0788 -0.4769  0.6175
26794SOL    HW192361  12.902   8.783   6.746  2.0081 -0.0483 -0.6441
26794SOL    HW292362  12.841   8.841   6.620 -0.5931 -0.8064  0.1898
26795SOL     OW92363  13.377   8.992   0.204 -0.1996 -0.0651  0.2836
26795SOL    HW192364  13.440   8.999   0.133 -0.1153 -1.3314  0.2146
26795SOL    HW292365  13.297   9.033   0.169  0.1789  0.3610 -0.1027
26796SOL     OW92366   4.076   7.761   1.219  0.1711  0.2081 -0.5164
26796SOL    HW192367   3.991   7.762   1.175 -0.2352  0.6519  0.2544
26796SOL    HW292368   4.125   7.833   1.181 -0.5677  1.2717  0.4687
26797SOL     OW92369   4.594   3.040   1.081  0.2672 -0.4881  0.1398
26797SOL    HW192370   4.560   3.028   1.169 -0.8393 -0.0903 -0.2198
26797SOL    HW292371   4.681   3.078   1.094 -0.6290  1.4139  1.0558
26798SOL     OW92372  12.835   6.211  12.075  0.0936 -0.4525 -0.4081
26798SOL    HW192373  12.757   6.157  12.086 -0.3732  0.2275 -0.3456
26798SOL    HW292374  12.845   6.257  12.158  0.3333 -0.2329 -0.5563
26799SOL     OW92375   3.191   4.371   4.227  0.4678  0.0939 -0.3492
26799SOL    HW192376   3.124   4.305   4.248  0.6501  0.3891  1.3278
26799SOL    HW292377   3.237   4.336   4.151 -1.8045  0.0413 -1.7949
26800SOL     OW92378  12.632   0.507   3.447 -0.0642  0.0059 -0.2083
26800SOL    HW192379  12.544   0.469   3.439 -0.0248 -0.2178  0.3689
26800SOL    HW292380  12.617   0.601   3.449 -0.4132 -0.0518  1.1111
26801SOL     OW92381   1.652  13.609  10.083 -0.0638  0.2204 -0.3756
26801SOL    HW192382   1.625  13.517  10.081  0.8120 -0.0714  0.5786
26801SOL    HW292383   1.682  13.627   9.994 -1.5589  0.0135 -0.9549
26802SOL     OW92384   0.205   0.027   4.955  0.1498 -0.2509 -0.3056
26802SOL    HW192385   0.175   0.104   4.908  0.3624  0.4697  0.7029
26802SOL    HW292386   0.207  -0.042   4.889 -0.3801  0.5142 -1.1485
26803SOL     OW92387   9.328  10.107  11.805 -0.3179  0.0500 -0.6218
26803SOL    HW192388   9.253  10.143  11.851 -0.2685 -0.1657 -0.3681
26803SOL    HW292389   9.398  10.170  11.819 -0.0235 -0.4866  0.4484
26804SOL     OW92390   0.925  12.641   1.896  0.2161 -0.0269  0.3565
26804SOL    HW192391   1.017  12.666   1.905  0.1413  0.8900 -1.1416
26804SOL    HW292392   0.910  12.636   1.802 -0.6800 -2.5326  0.5338
26805SOL     OW92393   3.241  10.141  10.781  0.3703  0.2245  0.1424
26805SOL    HW192394   3.263  10.227  10.743  0.5852 -0.2471 -0.8397
26805SOL    HW292395   3.310  10.083  10.750 -0.1194 -0.4388  0.2678
26806SOL     OW92396   8.967   5.939   5.913 -0.2707 -0.1280  0.0068
26806SOL    HW192397   8.976   5.844   5.903 -0.5339 -0.0760 -0.8009
26806SOL    HW292398   9.004   5.957   5.999  0.9084 -0.8138 -0.3307
26807SOL     OW92399  11.260   7.915   3.932 -0.6366 -0.2210  0.1630
26807SOL    HW192400  11.196   7.844   3.943 -1.0504  0.4232  2.1574
26807SOL    HW292401  11.226   7.987   3.985  0.3489  1.1236 -0.9447
26808SOL     OW92402   3.214   7.497  13.482  0.0620  0.1442 -0.1799
26808SOL    HW192403   3.268   7.427  13.517 -0.1945 -0.3573 -0.7676
26808SOL    HW292404   3.270   7.541  13.418  0.8428  1.6261  1.4313
26809SOL     OW92405   4.378   6.480   8.868 -0.8031  0.3356  0.3518
26809SOL    HW192406   4.302   6.444   8.915 -2.8456 -1.1142 -3.6365
26809SOL    HW292407   4.341   6.538   8.802  1.8025  1.4665 -0.2626
26810SOL     OW92408   0.964  13.218   2.513 -0.0521  0.2873 -0.1033
26810SOL    HW192409   1.018  13.178   2.581  1.0018  2.2450  0.2896
26810SOL    HW292410   1.022  13.225   2.437 -1.3191 -2.2204 -1.4487
26811SOL     OW92411   5.065   0.669  13.286  0.7778  0.1003  0.2509
26811SOL    HW192412   5.132   0.630  13.343  0.0937 -1.8881 -0.2127
26811SOL    HW292413   5.013   0.594  13.257  1.0544  1.0290 -2.9590
26812SOL     OW92414   2.380   4.147  10.572 -0.2263  0.1375  0.0009
26812SOL    HW192415   2.365   4.235  10.538  2.1347  0.4532 -0.4169
26812SOL    HW292416   2.370   4.156  10.667 -1.4940  0.4866 -0.1524
26813SOL     OW92417   0.800   6.551   9.572  0.0532  0.7137  0.8050
26813SOL    HW192418   0.820   6.473   9.521 -3.6697  0.2666 -0.2723
26813SOL    HW292419   0.877   6.563   9.628  1.7955 -2.2722 -0.6758
26814SOL     OW92420   2.280   2.453  10.060  0.2817 -0.0427 -0.3620
26814SOL    HW192421   2.349   2.457   9.994  0.9643 -0.3667  0.3177
26814SOL    HW292422   2.253   2.544  10.073 -0.2696 -0.0213 -1.4885
26815SOL     OW92423  11.874   9.068   7.826  0.8286 -0.7321 -0.2538
26815SOL    HW192424  11.904   9.147   7.871 -1.7511  0.0919  0.2297
26815SOL    HW292425  11.834   9.015   7.895  1.5577 -1.9771 -0.7600
26816SOL     OW92426   6.803  12.715   7.920  0.1116 -0.2169 -0.2536
26816SOL    HW192427   6.737  12.671   7.973  1.2389  1.3627  2.7173
26816SOL    HW292428   6.877  12.654   7.919 -0.7699 -1.3598 -2.3579
26817SOL     OW92429   1.148   1.293   9.886  0.3428  0.3615  0.8671
26817SOL    HW192430   1.097   1.336   9.817  0.7729  0.3985  0.5679
26817SOL    HW292431   1.132   1.200   9.872  0.7782  0.3489  0.4410
26818SOL     OW92432   9.451  13.304  11.398  0.4844 -0.1418  0.4233
26818SOL    HW192433   9.537  13.303  11.356 -0.0413 -0.1551 -0.6776
26818SOL    HW292434   9.419  13.214  11.388  0.1737 -0.0361  0.4757
26819SOL     OW92435   1.048   8.302   0.741  0.2408  0.4366  0.6465
26819SOL    HW192436   0.995   8.224   0.725  0.4619  0.4555 -0.2348
26819SOL    HW292437   0.986   8.369   0.768 -0.2217  0.5122 -0.5637
26820SOL     OW92438   1.541  11.726   3.436  0.8471  0.4436  0.2875
26820SOL    HW192439   1.531  11.766   3.522  0.4564  0.1495  0.3839
26820SOL    HW292440   1.634  11.735   3.416  1.0091  0.1934  0.8980
26821SOL     OW92441  11.676  10.578   3.709 -0.1191 -0.4251  0.1741
26821SOL    HW192442  11.758  10.546   3.671  0.5325 -1.4653  2.3262
26821SOL    HW292443  11.608  10.544   3.650  0.8006 -2.6562  0.2832
26822SOL     OW92444  13.787   1.753   0.881  0.2834  0.2503 -0.5160
26822SOL    HW192445  13.803   1.659   0.881  2.7807  0.4604  2.8818
26822SOL    HW292446  13.853   1.789   0.822  0.2726 -0.0540 -0.7134
26823SOL     OW92447   8.645  10.288  13.103  0.0638  0.0262 -0.1906
26823SOL    HW192448   8.684  10.201  13.102  0.2088  0.0913 -0.3078
26823SOL    HW292449   8.685  10.333  13.029 -1.4016 -0.4178 -1.2946
26824SOL     OW92450   9.679   3.010   8.041 -0.4682  0.2459 -0.0835
26824SOL    HW192451   9.591   3.004   8.004 -0.4842  0.7106 -0.1293
26824SOL    HW292452   9.703   2.919   8.060 -1.0054  0.1247  0.0418
26825SOL     OW92453  11.388  13.125  13.831 -0.0394 -0.3445 -0.3305
26825SOL    HW192454  11.347  13.128  13.917 -1.1760  1.0423 -0.8735
26825SOL    HW292455  11.463  13.067  13.842 -0.6714 -0.9082  1.3533
26826SOL     OW92456   4.228   8.995   5.940  0.0167  0.0754  0.0023
26826SOL    HW192457   4.135   8.971   5.937 -0.3955  1.6474 -1.3304
26826SOL    HW292458   4.263   8.966   5.856  1.0378 -1.4575  0.9031
26827SOL     OW92459   7.641   4.769  11.970  0.9653  0.1250  0.0870
26827SOL    HW192460   7.713   4.719  12.009  0.4703 -0.3834  0.3697
26827SOL    HW292461   7.602   4.815  12.044  1.1497  0.5948 -0.1055
26828SOL     OW92462   2.453   8.899  12.235 -0.5635 -0.5218  0.3722
26828SOL    HW192463   2.482   8.949  12.311  2.7870 -0.7590 -0.5611
26828SOL    HW292464   2.446   8.809  12.267 -1.8486 -0.2213  0.9744
26829SOL     OW92465   8.366   3.610   3.293 -0.6091  0.4946 -0.1720
26829SOL    HW192466   8.367   3.704   3.271 -2.2685  0.3777 -0.9024
26829SOL    HW292467   8.397   3.567   3.213 -1.5488  0.3385 -0.4575
26830SOL     OW92468   0.934   6.266   9.839 -0.5261 -0.6585 -0.5255
26830SOL    HW192469   0.881   6.341   9.868  0.6610  0.0241 -0.0489
26830SOL    HW292470   0.892   6.190   9.879 -1.1183 -0.1307 -0.1198
26831SOL     OW92471   4.041   4.883   2.912  0.2672  0.2667 -0.1234
26831SOL    HW192472   3.966   4.930   2.948 -0.2894 -0.0225 -0.8709
26831SOL    HW292473   4.072   4.828   2.984 -0.3348  0.2799  0.1514
26832SOL     OW92474   0.746  10.191   5.432  0.0044 -0.2144  0.0418
26832SOL    HW192475   0.680  10.122   5.437 -1.6612  1.3719  1.3574
26832SOL    HW292476   0.823  10.155   5.476  0.7728 -2.7265 -2.9506
26833SOL     OW92477   3.333   5.125   2.357  0.0638  0.2439 -0.5283
26833SOL    HW192478   3.245   5.126   2.321 -0.6522 -0.7502  1.0722
26833SOL    HW292479   3.347   5.213   2.391 -0.8772  0.0350  0.4473
26834SOL     OW92480   9.398   3.048   4.805 -0.1566 -0.4979  0.2106
26834SOL    HW192481   9.370   3.133   4.770  0.1826 -0.5204 -0.1190
26834SOL    HW292482   9.400   3.061   4.900 -2.3757 -0.8167  0.3748
26835SOL     OW92483   6.281   3.667   1.539 -0.1109 -0.0400  0.1752
26835SOL    HW192484   6.202   3.703   1.499  0.8170 -0.3655 -2.0993
26835SOL    HW292485   6.333   3.743   1.563 -0.5108  0.1608  0.4122
26836SOL     OW92486  11.773   9.335   8.760  0.3509  0.1375  0.1454
26836SOL    HW192487  11.728   9.420   8.763  0.1849  0.0388  0.7723
26836SOL    HW292488  11.801   9.321   8.851  1.7893  0.2708 -0.2660
26837SOL     OW92489   5.163   9.608   9.794  0.2269 -0.3582 -0.3795
26837SOL    HW192490   5.222   9.599   9.719  0.9301 -1.3937  0.2727
26837SOL    HW292491   5.076   9.586   9.759  0.5216 -0.6601 -0.9273
26838SOL     OW92492  11.535   2.148   3.344 -0.3457 -0.0332  0.3604
26838SOL    HW192493  11.514   2.063   3.304  1.3362 -0.0676 -0.5169
26838SOL    HW292494  11.560   2.203   3.270  4.4928 -0.5576  1.2977
26839SOL     OW92495  10.211   7.514   8.846  0.1664  0.1340  0.0992
26839SOL    HW192496  10.185   7.596   8.887 -1.8291 -0.7079  0.6298
26839SOL    HW292497  10.263   7.469   8.912  0.5924  0.6233  0.1008
26840SOL     OW92498   2.214   9.612   5.675  0.1600  0.3974 -0.8216
26840SOL    HW192499   2.152   9.680   5.701 -1.8649 -2.1038  1.3806
26840SOL    HW292500   2.264   9.593   5.755 -1.2810 -2.5529 -0.5015
26841SOL     OW92501   2.152   8.758   5.893  0.2176  0.1885 -0.4133
26841SOL    HW192502   2.097   8.826   5.933  2.4398  1.4447  0.7145
26841SOL    HW292503   2.202   8.804   5.825  1.1098 -0.5048 -0.2486
26842SOL     OW92504  11.517   2.690   8.899  0.3654 -0.6237 -0.2583
26842SOL    HW192505  11.440   2.672   8.953  0.2617 -0.1724 -0.2486
26842SOL    HW292506  11.480   2.719   8.815  0.5047 -2.7230 -1.0951
26843SOL     OW92507   0.844   0.815  10.747 -0.0852  0.9347  0.0820
26843SOL    HW192508   0.891   0.773  10.819 -0.2212 -0.2930 -0.5044
26843SOL    HW292509   0.912   0.832  10.681  0.6317  4.8426  1.5800
26844SOL     OW92510   2.059  10.159   7.708  0.1295  0.1538 -0.0063
26844SOL    HW192511   2.002  10.212   7.652  0.0708 -0.5771 -0.6483
26844SOL    HW292512   2.016  10.159   7.793 -1.1275 -0.8509 -0.6249
26845SOL     OW92513  13.714   0.740   4.718 -0.3325  0.1097  0.7315
26845SOL    HW192514  13.803   0.705   4.713 -0.1154  0.2505  2.7888
26845SOL    HW292515  13.660   0.672   4.678  0.6268 -0.2006 -0.0979
26846SOL     OW92516  11.204   5.635  13.119 -0.1091 -0.2279  0.0658
26846SOL    HW192517  11.134   5.694  13.145  0.1985  0.2734 -0.2324
26846SOL    HW292518  11.228   5.589  13.200 -1.0231 -0.6626  0.0917
26847SOL     OW92519   0.051   4.137  12.315  0.3623 -0.0434 -0.2050
26847SOL    HW192520   0.016   4.049  12.300  2.5519 -1.2593  1.1956
26847SOL    HW292521  -0.002   4.194  12.260 -1.7402 -2.1018 -0.4457
26848SOL     OW92522   1.839   9.717   5.114  0.1159  0.2985 -0.6934
26848SOL    HW192523   1.884   9.634   5.134  0.5578  0.6991  0.0126
26848SOL    HW292524   1.748   9.701   5.139  0.2804  0.1574 -0.1632
26849SOL     OW92525   4.167   0.520   3.445  0.1586 -0.3556  0.3809
26849SOL    HW192526   4.257   0.524   3.413 -0.3147 -1.7074 -1.3047
26849SOL    HW292527   4.170   0.458   3.518  0.7238  0.2799  0.9080
26850SOL     OW92528   4.923   8.204   2.390 -0.2990 -0.0560  0.1004
26850SOL    HW192529   5.007   8.163   2.411 -0.7952 -1.4379 -0.4565
26850SOL    HW292530   4.910   8.270   2.458  0.0329 -1.6037  1.7438
26851SOL     OW92531   4.049   3.265   8.355  0.6230  0.5845 -0.1379
26851SOL    HW192532   4.029   3.277   8.262  2.2351  0.5288 -0.5278
26851SOL    HW292533   4.029   3.173   8.372 -0.4329  0.7920 -0.2126
26852SOL     OW92534   4.462   4.313   1.807  0.7457 -0.5494  0.1683
26852SOL    HW192535   4.393   4.339   1.867 -0.0301 -1.8754 -0.1097
26852SOL    HW292536   4.543   4.325   1.856  0.3038  0.5936  0.6519
26853SOL     OW92537   0.159   3.872  13.804  0.3171  0.1135  0.1899
26853SOL    HW192538   0.133   3.783  13.829 -1.0954  0.2923 -0.5213
26853SOL    HW292539   0.190   3.911  13.885  1.0418 -1.0488  0.4997
26854SOL     OW92540  11.144   1.176   9.490  0.1056  0.3990 -0.0995
26854SOL    HW192541  11.088   1.139   9.422  2.0925  0.1638 -1.6874
26854SOL    HW292542  11.175   1.259   9.452  0.1760  0.9408  1.1008
26855SOL     OW92543   7.428   9.867  12.695  0.6550  0.4738  0.2107
26855SOL    HW192544   7.338   9.840  12.677  1.1128 -0.5214 -0.6864
26855SOL    HW292545   7.419   9.943  12.752 -0.7369 -0.2169  0.9726
26856SOL     OW92546  11.464  11.021  13.647 -0.4138 -0.1383 -0.1953
26856SOL    HW192547  11.536  10.991  13.592 -0.0962 -0.0597  0.1730
26856SOL    HW292548  11.480  11.114  13.660 -2.4070  0.6994 -2.8746
26857SOL     OW92549   0.158   1.096   1.522 -0.7404  0.3651 -0.0323
26857SOL    HW192550   0.218   1.166   1.495 -0.4908  0.1392 -0.0647
26857SOL    HW292551   0.150   1.107   1.617  0.1096 -0.1929  0.1142
26858SOL     OW92552  12.501   9.534   6.181 -0.3431 -0.7301  0.4159
26858SOL    HW192553  12.572   9.561   6.239 -1.6781  2.1570  0.8996
26858SOL    HW292554  12.461   9.459   6.224  1.8614 -1.9306  0.5156
26859SOL     OW92555  11.095  11.892  13.719 -0.4741  0.3404 -0.1466
26859SOL    HW192556  11.190  11.894  13.732 -0.0901 -1.3548 -2.1821
26859SOL    HW292557  11.063  11.835  13.788 -0.0502  1.0473  0.6522
26860SOL     OW92558   0.336  13.736   2.163 -0.4666  0.5345  0.5409
26860SOL    HW192559   0.343  13.672   2.233  4.1328  1.7807  1.5453
26860SOL    HW292560   0.313  13.685   2.086  0.3931 -1.9240  1.8156
26861SOL     OW92561   6.079  12.086   7.211  0.5955 -0.0760  0.4832
26861SOL    HW192562   6.136  12.074   7.286 -1.1270 -1.2535  1.6948
26861SOL    HW292563   6.135  12.073   7.134  2.5624  1.9079  1.5009
26862SOL     OW92564  13.885  11.195   6.536  0.1195 -0.6702 -0.8185
26862SOL    HW192565  13.894  11.248   6.616  1.2052 -0.4691 -1.0522
26862SOL    HW292566  13.791  11.179   6.528 -0.0123 -0.6775  0.4915
26863SOL     OW92567  11.100  14.040   7.250  0.6128  0.5162 -0.2991
26863SOL    HW192568  11.084  13.948   7.273  0.0122  0.2955 -1.5253
26863SOL    HW292569  11.069  14.089   7.326 -0.5017 -0.2180 -0.2557
26864SOL     OW92570   6.232   8.542   3.888  0.8600 -0.3277  0.2486
26864SOL    HW192571   6.162   8.477   3.884 -0.8181  1.2789  1.6404
26864SOL    HW292572   6.311   8.492   3.869 -0.6104 -2.2208 -1.4501
26865SOL     OW92573  10.339  11.170   1.776  0.2411 -0.1811 -0.0605
26865SOL    HW192574  10.392  11.092   1.757  2.2749  1.3196 -0.7814
26865SOL    HW292575  10.327  11.168   1.871  2.7344  0.1206  0.3084
26866SOL     OW92576  12.758   9.141   0.745  0.1439  0.5203  0.7080
26866SOL    HW192577  12.704   9.094   0.682  0.8452 -1.0265  1.2159
26866SOL    HW292578  12.743   9.095   0.828 -0.0137  1.9117  1.4782
26867SOL     OW92579  12.947   8.268   6.099  0.3710  0.0098 -0.1876
26867SOL    HW192580  13.038   8.253   6.074  0.0580 -0.0481 -1.3473
26867SOL    HW292581  12.898   8.260   6.018 -0.7248 -0.3374  0.4801
26868SOL     OW92582   3.690   5.957   8.249 -0.4732 -0.3581 -0.0201
26868SOL    HW192583   3.662   5.866   8.247  0.0562 -0.5169 -1.6866
26868SOL    HW292584   3.616   6.006   8.213 -0.2998 -0.2675 -0.2524
26869SOL     OW92585  12.724  13.741  13.053 -0.6148 -0.4636  0.1547
26869SOL    HW192586  12.739  13.828  13.090  1.1896 -1.4738  2.0307
26869SOL    HW292587  12.800  13.725  12.997 -0.3038 -1.2347  0.7583
26870SOL     OW92588  13.091   7.787  10.985 -0.0774 -0.3700 -0.1167
26870SOL    HW192589  13.010   7.805  10.938 -0.0230  0.3697  0.0508
26870SOL    HW292590  13.160   7.821  10.927  0.0427 -0.1604  0.1458
26871SOL     OW92591  13.170   6.342  12.604  0.0863  0.0099  0.5488
26871SOL    HW192592  13.195   6.411  12.542  0.6672 -0.7626 -0.0880
26871SOL    HW292593  13.212   6.368  12.687 -3.0304  2.6445  1.5666
26872SOL     OW92594   6.057   3.012  11.932 -0.2602 -0.5803 -0.3734
26872SOL    HW192595   6.040   3.097  11.973 -2.2993  0.3245 -2.8382
26872SOL    HW292596   6.121   2.970  11.989 -0.7774  1.7224  2.0752
26873SOL     OW92597   7.055   3.733   8.876 -0.1007  0.3074  0.2593
26873SOL    HW192598   7.135   3.777   8.905  0.8729 -1.5470  0.4751
26873SOL    HW292599   7.034   3.775   8.793  2.0194 -0.2675 -0.6145
26874SOL     OW92600  12.493   8.379   8.427  0.0259  0.5779 -0.0590
26874SOL    HW192601  12.566   8.379   8.365  0.4198  0.3875  0.4024
26874SOL    HW292602  12.441   8.456   8.402  0.6100  0.9550 -0.1270
26875SOL     OW92603  12.461  11.471   8.862 -0.5704  0.1726 -0.1364
26875SOL    HW192604  12.531  11.472   8.797  0.7652 -1.2969  1.1764
26875SOL    HW292605  12.444  11.377   8.877 -3.0445  0.4709 -0.5993
26876SOL     OW92606   5.614   3.693  10.327  0.1488  0.2531 -0.1883
26876SOL    HW192607   5.615   3.786  10.304 -1.5591  0.9211  2.1313
26876SOL    HW292608   5.629   3.691  10.421 -0.7333 -1.7552 -0.0443
26877SOL     OW92609  13.510   8.744  12.939 -0.3676 -0.5754 -0.2418
26877SOL    HW192610  13.419   8.747  12.968 -0.5810 -2.6151 -0.5399
26877SOL    HW292611  13.544   8.663  12.976  1.6535  0.6154  0.6652
26878SOL     OW92612  11.585   7.509   8.178  0.3148 -0.0140  0.0303
26878SOL    HW192613  11.546   7.442   8.122 -2.9168  1.0342  0.8097
26878SOL    HW292614  11.604   7.463   8.260 -1.8663 -0.0908  0.5594
26879SOL     OW92615   9.075  11.052   3.965 -0.1403 -0.4762  0.7305
26879SOL    HW192616   9.141  11.004   3.915  0.1852  0.0421  0.6488
26879SOL    HW292617   9.004  10.990   3.977 -1.0906 -0.0777 -2.0767
26880SOL     OW92618   8.173   9.459   8.602  0.3472  0.2636  0.1811
26880SOL    HW192619   8.117   9.538   8.602 -0.6234 -0.3868 -1.0297
26880SOL    HW292620   8.189   9.442   8.695 -0.2205  1.3441  0.5021
26881SOL     OW92621   8.249  13.453  11.396  0.4230  0.4789 -0.1578
26881SOL    HW192622   8.239  13.385  11.329 -0.4871 -0.0316  0.4773
26881SOL    HW292623   8.165  13.455  11.441 -0.2654  3.3505 -1.3546
26882SOL     OW92624  10.999   4.212   6.435  0.6853  0.4319  0.0915
26882SOL    HW192625  11.008   4.305   6.416 -0.2648  0.5793  0.3178
26882SOL    HW292626  10.950   4.208   6.517  0.0484 -0.2655 -0.2993
26883SOL     OW92627   9.541   2.905   5.566  0.0406 -0.4653  0.1116
26883SOL    HW192628   9.604   2.963   5.610  0.7016 -1.8763  1.0988
26883SOL    HW292629   9.595   2.851   5.509 -0.5044 -0.4539 -0.4152
26884SOL     OW92630  13.778  12.756  13.524 -0.6188 -0.4659 -0.2003
26884SOL    HW192631  13.752  12.718  13.608 -0.7693 -0.2643 -0.1551
26884SOL    HW292632  13.714  12.722  13.461  0.2939 -1.7245 -0.4923
26885SOL     OW92633   5.014  12.656   9.016 -0.3563  0.4229 -0.2486
26885SOL    HW192634   5.057  12.738   9.040 -1.3196  0.4501  1.6099
26885SOL    HW292635   4.924  12.681   8.994 -0.5341 -0.0803 -0.1200
26886SOL     OW92636   9.467   4.599  10.612 -0.1808  0.3217  0.7070
26886SOL    HW192637   9.468   4.504  10.616 -0.4462  0.2990  0.3429
26886SOL    HW292638   9.376   4.623  10.630 -0.9769  0.3043 -2.6298
26887SOL     OW92639   1.560   1.138   5.678  0.2742 -0.7964  0.3241
26887SOL    HW192640   1.588   1.228   5.664 -3.5692  0.8442  1.8417
26887SOL    HW292641   1.485   1.127   5.619 -1.3008 -1.8338  2.3833
26888SOL     OW92642   1.534  10.606  13.853  0.0194 -0.3977  0.2167
26888SOL    HW192643   1.604  10.671  13.860 -0.3089 -0.2165  3.2067
26888SOL    HW292644   1.565  10.545  13.787  0.6776  2.3360 -2.2182
26889SOL     OW92645  11.117   1.937  12.271 -0.0067  0.1269 -0.5245
26889SOL    HW192646  11.048   1.994  12.238 -1.3256 -0.7943  0.5383
26889SOL    HW292647  11.177   1.927  12.197  0.2866  2.8401 -0.7581
26890SOL     OW92648  13.502   9.390  11.267  0.4994  0.1273 -0.2716
26890SOL    HW192649  13.426   9.385  11.209 -0.0704  0.5062  0.4149
26890SOL    HW292650  13.475   9.342  11.346  1.4798 -0.9051 -0.5315
26891SOL     OW92651   5.633  13.960   2.905  0.2305 -0.0161  0.0762
26891SOL    HW192652   5.550  13.913   2.898  0.3865 -0.5481  1.4686
26891SOL    HW292653   5.680  13.915   2.975  0.5842  1.9192  1.1504
26892SOL     OW92654   9.696   4.816   3.201  0.0196 -0.7664  0.5494
26892SOL    HW192655   9.622   4.785   3.150 -0.5390  1.7957 -0.3357
26892SOL    HW292656   9.739   4.736   3.232 -1.5384 -2.3513 -1.1402
26893SOL     OW92657   3.681   5.516   5.409  0.0299 -0.3312  0.1880
26893SOL    HW192658   3.696   5.428   5.374 -1.7473 -1.0218  1.0239
26893SOL    HW292659   3.630   5.501   5.489 -2.1057  1.5363 -0.7374
26894SOL     OW92660   9.741   2.917   3.506  0.5393  0.0505 -0.2022
26894SOL    HW192661   9.806   2.952   3.445  1.2975 -0.2418  0.4083
26894SOL    HW292662   9.737   2.824   3.487  0.2415  0.0803 -0.2884
26895SOL     OW92663  13.793   6.851   3.217  0.1928 -0.3605  0.4674
26895SOL    HW192664  13.770   6.776   3.272 -4.2390 -0.5870 -1.2657
26895SOL    HW292665  13.788   6.816   3.127  2.2900  1.1132 -0.2984
26896SOL     OW92666  12.783   9.456   1.017  0.0481  0.5117  0.2977
26896SOL    HW192667  12.877   9.444   1.034  0.1622 -0.3138 -0.8458
26896SOL    HW292668  12.745   9.370   1.032 -0.5171  0.8129  0.6138
26897SOL     OW92669   9.154   2.693  13.892  0.1429  0.2575  0.2804
26897SOL    HW192670   9.138   2.783  13.864  0.6347  0.6582  1.2467
26897SOL    HW292671   9.242   2.674  13.860  0.0683  0.1415  0.1413
26898SOL     OW92672   9.520   6.392  10.454  0.0117 -0.1104 -0.0684
26898SOL    HW192673   9.528   6.458  10.522  1.2271  0.5851 -0.8436
26898SOL    HW292674   9.441   6.416  10.406 -0.2775 -0.0039  0.4507
26899SOL     OW92675  10.207   7.727  13.600  0.1151 -0.1495 -0.1175
26899SOL    HW192676  10.225   7.809  13.553  0.6362 -0.1056  0.1493
26899SOL    HW292677  10.291   7.681  13.602  0.6887  0.8189  2.6265
26900SOL     OW92678   3.136   6.245  11.051  0.4562  0.1704  0.0021
26900SOL    HW192679   3.054   6.237  11.100  0.2456 -2.2544 -0.5872
26900SOL    HW292680   3.205   6.225  11.114  0.5281  1.2133  0.2629
26901SOL     OW92681   2.374   1.227   9.920 -0.2419  0.2529 -0.0073
26901SOL    HW192682   2.429   1.181   9.857 -1.3172 -0.2124 -0.6327
26901SOL    HW292683   2.359   1.313   9.880 -3.0971 -0.9119 -1.7841
26902SOL     OW92684   1.386   7.851  13.327 -0.5284  0.0481 -0.1785
26902SOL    HW192685   1.402   7.884  13.415 -0.0342  0.5534 -0.4499
26902SOL    HW292686   1.356   7.761  13.339 -2.0116  0.6093  0.5917
26903SOL     OW92687  11.904   2.411   0.563  0.3053 -0.2014  0.0916
26903SOL    HW192688  11.845   2.466   0.511  0.6794  1.3363  1.2095
26903SOL    HW292689  11.965   2.473   0.604  0.8364 -1.4658  1.3078
26904SOL     OW92690   1.178   1.204  12.814 -0.9025 -0.2664 -0.5945
26904SOL    HW192691   1.110   1.207  12.747 -2.6006 -1.4097  0.9701
26904SOL    HW292692   1.152   1.132  12.872  0.5861  0.5274  1.1811
26905SOL     OW92693  11.411  13.540  10.898  0.3995  0.2989 -0.0792
26905SOL    HW192694  11.502  13.513  10.891 -0.3230 -3.8157  2.5247
26905SOL    HW292695  11.403  13.577  10.986 -0.6196 -0.8061  0.3357
26906SOL     OW92696   3.982   7.791   5.988 -0.0233  0.2677  0.0930
26906SOL    HW192697   3.948   7.748   5.910  0.6523 -1.0109  0.4825
26906SOL    HW292698   3.952   7.737   6.061 -1.9713  2.2820  0.9069
26907SOL     OW92699   7.453   9.256  12.367  0.0770  0.8163 -0.2573
26907SOL    HW192700   7.362   9.277  12.384  0.0727  1.9990 -1.5889
26907SOL    HW292701   7.451   9.201  12.288  0.4951  0.5819 -0.1092
26908SOL     OW92702   2.792  13.896   8.322 -0.2369  0.2000  0.0658
26908SOL    HW192703   2.774  13.984   8.354 -0.5573 -0.2833  1.2726
26908SOL    HW292704   2.738  13.839   8.377  1.4017 -0.9056  0.5862
26909SOL     OW92705   3.870   2.288  11.831  0.8167  0.1657 -0.0996
26909SOL    HW192706   3.929   2.297  11.906  0.2485  0.5061  0.3111
26909SOL    HW292707   3.801   2.228  11.861  1.0491 -0.3852 -0.6414
26910SOL     OW92708  12.197   3.522  13.717  0.0711  0.2486  0.2117
26910SOL    HW192709  12.149   3.441  13.735 -1.3835  0.9663 -0.2580
26910SOL    HW292710  12.178   3.540  13.625  3.2055 -0.6593 -0.7344
26911SOL     OW92711  12.704   8.464  10.241 -0.0390  0.0095  0.0891
26911SOL    HW192712  12.728   8.376  10.267  0.3882  0.0147 -0.2764
26911SOL    HW292713  12.660   8.453  10.156 -1.6457 -0.0375  0.8813
26912SOL     OW92714   4.075  10.771   2.835 -0.3659  0.3412 -0.1443
26912SOL    HW192715   4.047  10.857   2.804 -1.9664 -0.6628 -1.6971
26912SOL    HW292716   4.056  10.712   2.762  1.1031 -1.2846  0.7064
26913SOL     OW92717  10.896   8.898  13.691 -0.1661  0.4661 -0.0882
26913SOL    HW192718  10.989   8.918  13.700  0.1443 -1.1054  0.5568
26913SOL    HW292719  10.861   8.907  13.779 -0.4460  0.2656 -0.1789
26914SOL     OW92720   8.397  12.385   1.690 -0.1495 -0.3970 -0.6107
26914SOL    HW192721   8.375  12.448   1.621 -0.4885  0.3493  0.1594
26914SOL    HW292722   8.373  12.429   1.771 -1.5139 -1.9804 -0.1016
26915SOL     OW92723   7.646   4.541   4.694  0.2740 -0.8922 -0.3458
26915SOL    HW192724   7.733   4.581   4.688  0.7824 -1.7918  0.8454
26915SOL    HW292725   7.595   4.603   4.747  0.1986 -0.4211 -0.9502
26916SOL     OW92726  12.562  10.425   7.610 -0.5079  0.4352 -0.0890
26916SOL    HW192727  12.537  10.334   7.592 -1.5334  0.6535  0.1987
26916SOL    HW292728  12.578  10.463   7.523  1.6774 -0.4689 -0.1537
26917SOL     OW92729   7.624   2.159   9.679 -0.2251  0.4849 -0.8820
26917SOL    HW192730   7.620   2.241   9.628 -2.3469  1.1455  0.2074
26917SOL    HW292731   7.678   2.180   9.754  0.8099  0.2808 -1.5531
26918SOL     OW92732   5.314   3.174   7.081  0.4393  0.0308 -0.7244
26918SOL    HW192733   5.251   3.208   7.145 -1.1401 -0.0186 -2.1827
26918SOL    HW292734   5.362   3.252   7.052 -0.3187  0.4121 -1.0117
26919SOL     OW92735   2.137   5.488   3.890 -0.0271 -0.4019  0.0517
26919SOL    HW192736   2.174   5.524   3.810 -1.4719 -0.6191 -0.7599
26919SOL    HW292737   2.151   5.393   3.882 -1.2877 -0.5614 -0.5962
26920SOL     OW92738   3.771   9.334   1.648 -0.0426 -0.0155 -0.4731
26920SOL    HW192739   3.792   9.426   1.632 -1.4094  0.2298 -1.0202
26920SOL    HW292740   3.701   9.314   1.586 -0.9082 -0.9590  0.7538
26921SOL     OW92741  11.956   4.187   9.330  0.3368 -0.2856 -0.1683
26921SOL    HW192742  11.941   4.121   9.263  1.3046 -0.2603 -0.4247
26921SOL    HW292743  11.969   4.137   9.411  0.8792 -0.4164 -0.3276
26922SOL     OW92744  11.477   9.047   4.168  0.4780 -0.0835  0.0024
26922SOL    HW192745  11.510   9.015   4.252 -1.2680 -0.5379  0.5639
26922SOL    HW292746  11.388   9.078   4.187  0.5068  1.0253 -1.4310
26923SOL     OW92747   6.075  12.478   7.451 -0.1575 -0.1517 -0.3339
26923SOL    HW192748   6.002  12.469   7.390 -0.4885  2.5814 -0.4607
26923SOL    HW292749   6.035  12.507   7.533  0.7196  1.0868 -0.3137
26924SOL     OW92750   4.759   0.150  12.491  0.1734 -0.0241  0.0165
26924SOL    HW192751   4.767   0.245  12.496 -0.9068  0.0366  0.8192
26924SOL    HW292752   4.816   0.125  12.418 -0.0289  1.3058 -0.6253
26925SOL     OW92753   4.661   0.202  13.639  0.5188 -0.1438 -0.3383
26925SOL    HW192754   4.579   0.248  13.656  0.3501 -0.4403 -0.3390
26925SOL    HW292755   4.640   0.140  13.568  0.8008 -0.0585 -0.4980
26926SOL     OW92756   2.597  10.018   4.448  0.3056  0.3716 -0.2648
26926SOL    HW192757   2.524  10.062   4.492  0.4290 -0.4047  0.7412
26926SOL    HW292758   2.555   9.958   4.386 -0.1093 -2.3488  2.4172
26927SOL     OW92759   9.947  12.688   9.795  0.1900  0.5884  0.1985
26927SOL    HW192760  10.011  12.619   9.810 -2.0856 -1.5675  0.6773
26927SOL    HW292761   9.982  12.738   9.722  3.5680  1.1044  1.9499
26928SOL     OW92762   7.451   2.755  13.718 -0.1474  0.4375  0.0441
26928SOL    HW192763   7.492   2.841  13.730  0.5467  0.1275 -0.0222
26928SOL    HW292764   7.409   2.760  13.632 -0.3253  0.7930  0.1510
26929SOL     OW92765  11.538   6.870   9.507 -0.4029 -0.0357  0.0653
26929SOL    HW192766  11.611   6.898   9.562  1.1342 -0.6338 -1.5798
26929SOL    HW292767  11.481   6.948   9.502  0.9829  1.0113 -0.0041
26930SOL     OW92768   2.402   2.991   5.858  0.6975  0.3220  0.3930
26930SOL    HW192769   2.440   2.922   5.803 -0.2892  0.2037 -0.1731
26930SOL    HW292770   2.371   2.944   5.936 -2.2095 -0.3718 -1.0505
26931SOL     OW92771   2.226   1.065   1.694 -0.3997  0.0263 -0.1733
26931SOL    HW192772   2.313   1.043   1.663 -0.1215  0.8289  0.0121
26931SOL    HW292773   2.225   1.161   1.699 -1.7839  0.1419 -1.6430
26932SOL     OW92774  10.512   6.350  11.966 -0.0158  0.6315  0.2352
26932SOL    HW192775  10.588   6.294  11.978  1.1570  2.3122  1.0203
26932SOL    HW292776  10.506   6.363  11.872 -0.9006 -1.5095 -0.0740
26933SOL     OW92777   6.370   5.029  12.621  0.0168 -0.4268  0.1546
26933SOL    HW192778   6.404   4.974  12.692 -2.0932 -1.5060  0.4172
26933SOL    HW292779   6.285   5.059  12.652  0.3143  1.5209 -0.7618
26934SOL     OW92780   0.559   5.297  12.151  0.8301  0.2789  0.2110
26934SOL    HW192781   0.595   5.287  12.063 -0.0648 -0.9758 -0.0424
26934SOL    HW292782   0.632   5.274  12.209  1.3948  1.0163 -0.1887
26935SOL     OW92783   0.749   9.768   3.572  0.2622 -0.0886 -0.4520
26935SOL    HW192784   0.748   9.736   3.481 -1.2568  0.9474 -0.8389
26935SOL    HW292785   0.700   9.850   3.569  3.0905  1.7843  0.6997
26936SOL     OW92786  12.367   8.511  11.221  0.6202 -0.1044 -0.6853
26936SOL    HW192787  12.276   8.506  11.193  0.5527  1.2698 -0.7829
26936SOL    HW292788  12.381   8.432  11.272 -1.2751  0.6451  1.1606
26937SOL     OW92789   5.284   7.219   9.011 -0.0426  0.4347 -0.0717
26937SOL    HW192790   5.236   7.294   8.975  0.4066 -0.0312 -1.7496
26937SOL    HW292791   5.376   7.241   8.999  0.1194  0.1541  0.6124
26938SOL     OW92792   2.858   1.234  10.678 -0.4426 -0.0684 -0.7286
26938SOL    HW192793   2.790   1.298  10.655 -0.6769 -0.4551 -1.1398
26938SOL    HW292794   2.824   1.151  10.645 -0.0186 -0.3590 -0.4368
26939SOL     OW92795   5.005   2.679   5.495 -0.3620 -0.3913  0.2868
26939SOL    HW192796   5.002   2.704   5.588 -0.8445 -0.8886  0.4156
26939SOL    HW292797   4.913   2.683   5.467 -0.0575  1.3051 -0.6069
26940SOL     OW92798   2.098   3.956   9.473 -0.5392  0.1036  0.1580
26940SOL    HW192799   2.170   3.893   9.477 -0.7054 -0.2910 -1.8327
26940SOL    HW292800   2.138   4.039   9.501  0.3464 -0.3827  0.3746
26941SOL     OW92801   1.152  11.213   7.028 -0.0979 -0.3214 -0.5839
26941SOL    HW192802   1.226  11.246   6.977  1.6244 -1.3560  1.0754
26941SOL    HW292803   1.106  11.291   7.058  0.0243  0.3354 -2.0360
26942SOL     OW92804  12.811   6.614   4.658  0.0355 -0.0550  0.7160
26942SOL    HW192805  12.879   6.552   4.631  0.2798 -0.7444  2.7003
26942SOL    HW292806  12.826   6.691   4.603  0.0218 -1.5296 -1.4902
26943SOL     OW92807  12.856  10.419   2.578  0.3594 -0.0938  0.5102
26943SOL    HW192808  12.908  10.371   2.514  0.0202 -0.3812  0.4481
26943SOL    HW292809  12.859  10.510   2.547 -0.7010 -0.3874 -0.5392
26944SOL     OW92810   5.995   9.552  11.437  0.5789  0.5899 -0.1198
26944SOL    HW192811   6.089   9.547  11.418  1.2957 -0.4952  3.0201
26944SOL    HW292812   5.952   9.521  11.358  3.0636 -2.2260 -0.5240
26945SOL     OW92813  10.231   3.465  10.935 -0.3687 -0.1629 -0.5359
26945SOL    HW192814  10.314   3.431  10.968 -0.1680 -0.3342 -1.1964
26945SOL    HW292815  10.255   3.539  10.880 -0.7268  0.3513 -0.0134
26946SOL     OW92816   2.521   9.286   3.464  0.2046  0.3604  0.0591
26946SOL    HW192817   2.468   9.213   3.430 -0.5352  1.3373 -0.9970
26946SOL    HW292818   2.566   9.320   3.387 -0.4360  1.7775  0.2688
26947SOL     OW92819   8.245  13.891   1.794  0.1428  1.1452  0.0970
26947SOL    HW192820   8.174  13.914   1.734 -1.2381  0.9970  1.6160
26947SOL    HW292821   8.311  13.958   1.780 -0.1707  1.1509 -1.5273
26948SOL     OW92822  10.467   2.875   1.586 -0.1815 -0.3116  0.1214
26948SOL    HW192823  10.402   2.865   1.516  0.9566 -0.0235 -1.0253
26948SOL    HW292824  10.508   2.959   1.568 -0.4416  0.1880  1.6822
26949SOL     OW92825  11.772   7.786   5.945 -0.0940  0.6926 -0.0842
26949SOL    HW192826  11.823   7.784   6.026  0.0442  1.3961 -0.1513
26949SOL    HW292827  11.681   7.787   5.974 -0.1665 -2.0588  0.0307
26950SOL     OW92828  13.940   3.005   0.404  0.4861  0.1637  0.0376
26950SOL    HW192829  13.895   2.928   0.369  1.0430 -1.5206  2.7318
26950SOL    HW292830  14.029   2.975   0.421  1.2337  1.9782 -0.5222
26951SOL     OW92831   0.024  10.399   5.756  0.2334  0.2010  0.7322
26951SOL    HW192832   0.035  10.373   5.847  0.3461  0.4869  0.7976
26951SOL    HW292833   0.110  10.429   5.728  0.0491  0.7130  0.7167
26952SOL     OW92834   6.411   7.479   7.877 -0.3840 -0.0229 -0.9580
26952SOL    HW192835   6.448   7.561   7.845  2.4109 -1.4962 -1.8686
26952SOL    HW292836   6.378   7.434   7.799 -0.2675 -0.5031 -0.7366
26953SOL     OW92837   5.736   4.019   0.577  0.0676  0.4614  0.0075
26953SOL    HW192838   5.744   4.100   0.527  1.6304 -0.7192 -1.7842
26953SOL    HW292839   5.776   4.039   0.662 -0.4972  1.8378 -0.0390
26954SOL     OW92840  12.529   4.251  10.344 -0.0588  0.3213 -0.2216
26954SOL    HW192841  12.491   4.334  10.373 -1.8475 -0.4496 -0.2275
26954SOL    HW292842  12.453   4.198  10.320  0.8851 -1.9856  1.5329
26955SOL     OW92843   8.123   4.456   7.962 -0.2033  0.6284  0.1098
26955SOL    HW192844   8.156   4.371   7.990  0.6274  0.7658 -0.4235
26955SOL    HW292845   8.197   4.497   7.917 -1.0026  1.0743 -0.8433
26956SOL     OW92846   0.005  10.951  10.452  0.0269  0.1340  0.4984
26956SOL    HW192847   0.054  11.024  10.489 -0.8503  1.8466 -1.5305
26956SOL    HW292848  -0.003  10.889  10.524 -0.4387  2.6575  2.7948
26957SOL     OW92849  13.391   1.564   2.419 -0.2637  0.9606  0.4740
26957SOL    HW192850  13.296   1.567   2.426 -0.3577  1.0883 -0.6682
26957SOL    HW292851  13.422   1.617   2.492 -1.0918  1.5093  0.4395
26958SOL     OW92852   6.076  13.089  12.728 -0.5336  0.7270 -0.1793
26958SOL    HW192853   6.088  13.150  12.655 -0.1158 -0.0217 -0.7549
26958SOL    HW292854   6.122  13.010  12.700 -0.5445  0.3593  0.8167
26959SOL     OW92855   0.298   1.819   5.118 -0.0366 -0.3505 -0.1539
26959SOL    HW192856   0.365   1.798   5.184  0.6964  2.4120  0.1070
26959SOL    HW292857   0.348   1.849   5.042 -0.9484 -0.4167 -0.7936
26960SOL     OW92858   4.068   2.838   5.959  0.1089 -0.3396  0.2041
26960SOL    HW192859   4.007   2.911   5.970 -2.8169 -2.4637 -0.7012
26960SOL    HW292860   4.106   2.851   5.872 -0.1519  0.2660  0.1745
26961SOL     OW92861  13.671   5.010  12.815 -0.2554 -0.1611 -0.1823
26961SOL    HW192862  13.765   5.025  12.807 -0.3731  0.0660 -1.3057
26961SOL    HW292863  13.662   4.914  12.811 -0.0991 -0.1664 -0.4593
26962SOL     OW92864  10.043   3.307   9.919  0.0845 -0.3049 -0.0214
26962SOL    HW192865  10.058   3.230   9.974  2.0366 -0.0032 -0.0689
26962SOL    HW292866   9.950   3.300   9.894  0.1888 -2.6352 -0.0204
26963SOL     OW92867  10.044   3.878  11.829  0.5191  0.2880 -0.2277
26963SOL    HW192868   9.961   3.838  11.804  1.5490 -1.8741 -0.4064
26963SOL    HW292869  10.022   3.932  11.905 -0.9071 -0.8891  0.2474
26964SOL     OW92870   0.353  10.712  10.852 -0.1335 -0.1906  0.3531
26964SOL    HW192871   0.344  10.769  10.776  0.9171  0.0515  0.4024
26964SOL    HW292872   0.287  10.644  10.838 -2.1002  1.5176  0.7783
26965SOL     OW92873  12.647   9.163   5.276  0.5226  0.1458  0.8564
26965SOL    HW192874  12.600   9.163   5.193  0.3320 -3.5561  0.8155
26965SOL    HW292875  12.669   9.255   5.291 -1.9592  1.3171 -1.8040
26966SOL     OW92876  11.188   6.680  13.939  0.1240  0.3677  0.0206
26966SOL    HW192877  11.151   6.598  13.909 -1.5384  1.1875 -0.2808
26966SOL    HW292878  11.112   6.732  13.966  1.2608  0.9768  2.3708
26967SOL     OW92879  12.532  11.165   6.326 -0.3586  0.6634  0.5740
26967SOL    HW192880  12.449  11.121   6.345 -0.4071 -0.0798 -1.1483
26967SOL    HW292881  12.597  11.096   6.328  0.0504  1.0524  0.8088
26968SOL     OW92882   5.776  12.972  10.690  0.0206 -0.4469 -0.2079
26968SOL    HW192883   5.777  13.061  10.655  1.2286 -0.7692 -1.0868
26968SOL    HW292884   5.806  12.918  10.617  0.6129 -1.4119  0.7187
26969SOL     OW92885   7.478   1.287   4.976 -0.2093 -0.5158 -0.3700
26969SOL    HW192886   7.555   1.332   5.011 -0.3826 -1.0293  0.7136
26969SOL    HW292887   7.442   1.348   4.912  0.4988  0.1837 -0.1179
26970SOL     OW92888   7.689   4.813  11.683 -0.1336  0.2560  0.2174
26970SOL    HW192889   7.669   4.739  11.626  2.5535 -0.1687 -0.2708
26970SOL    HW292890   7.667   4.782  11.771 -0.8610 -0.3839 -0.1710
26971SOL     OW92891  11.311   5.100   4.372  0.0597 -0.8816 -0.0935
26971SOL    HW192892  11.222   5.083   4.342  0.6104 -0.9961 -1.7794
26971SOL    HW292893  11.318   5.051   4.453 -1.8826  0.3909  0.9323
26972SOL     OW92894   0.746  13.671   7.980 -0.3822 -0.1376 -0.4073
26972SOL    HW192895   0.834  13.638   7.958  0.4841  0.2140  2.1158
26972SOL    HW292896   0.763  13.756   8.021 -1.7237 -0.7109  1.4678
26973SOL     OW92897   2.480   3.045   1.829  0.5766  0.9944  0.5499
26973SOL    HW192898   2.463   3.111   1.896  0.8044  1.9227 -0.2747
26973SOL    HW292899   2.413   3.059   1.762 -0.6016 -0.9281  1.2629
26974SOL     OW92900   9.855  11.990   8.999 -0.2022 -0.0585  0.6946
26974SOL    HW192901   9.826  12.073   9.034 -0.4156 -0.2464  0.9641
26974SOL    HW292902   9.778  11.953   8.955 -0.2034 -0.2681  0.8695
26975SOL     OW92903   3.801  11.305   6.315 -0.2032 -0.1978  0.1730
26975SOL    HW192904   3.743  11.280   6.243  0.6570  0.6219 -0.8261
26975SOL    HW292905   3.812  11.399   6.305 -0.1144 -0.0662  1.4254
26976SOL     OW92906  13.858   0.028   2.409 -0.2909 -0.6214 -0.2102
26976SOL    HW192907  13.876   0.112   2.453  1.7522 -0.5476 -1.0438
26976SOL    HW292908  13.894  -0.037   2.469  0.9352 -0.6402 -0.9269
26977SOL     OW92909   4.284   1.091   6.341  0.0530 -0.1998 -0.0953
26977SOL    HW192910   4.317   1.156   6.403  1.5863 -0.4229 -0.6323
26977SOL    HW292911   4.236   1.141   6.276 -2.5227 -0.0386  1.7523
26978SOL     OW92912   8.756   5.561  11.256  0.6742  0.0640 -0.0119
26978SOL    HW192913   8.737   5.639  11.205  0.6064  1.5310  2.1146
26978SOL    HW292914   8.681   5.503  11.240  0.2212  0.8644 -0.8336
26979SOL     OW92915  11.109   7.759   7.815  0.7391  0.4933 -0.1002
26979SOL    HW192916  11.099   7.854   7.817 -0.3189  0.3907  0.2482
26979SOL    HW292917  11.197   7.743   7.849  1.5005  1.4028 -1.5252
26980SOL     OW92918   6.204   5.947   9.292  0.4920 -0.6226  1.0011
26980SOL    HW192919   6.207   6.043   9.288  1.5525 -0.5911  2.0725
26980SOL    HW292920   6.266   5.918   9.225  0.8752 -0.5342  1.3133
26981SOL     OW92921   6.967   1.190   2.249 -0.4605  0.2927 -0.0355
26981SOL    HW192922   6.881   1.149   2.253 -0.2151 -0.4162 -1.4172
26981SOL    HW292923   7.027   1.124   2.283 -0.2705  0.1634 -0.6160
26982SOL     OW92924   7.314   6.047  10.036  0.2292  0.4980  0.3561
26982SOL    HW192925   7.388   5.988  10.047  0.4407  0.7614  0.3499
26982SOL    HW292926   7.353   6.134  10.033  0.1388  0.5220 -1.8146
26983SOL     OW92927   3.053   8.390   6.099  0.6049 -0.0068  0.3910
26983SOL    HW192928   2.987   8.356   6.160  2.3575 -2.3318  1.1342
26983SOL    HW292929   3.002   8.424   6.026 -1.4568 -1.9805  0.7863
26984SOL     OW92930   6.901  12.108   9.027  0.1923 -0.2463  0.6445
26984SOL    HW192931   6.810  12.128   9.007 -0.0548 -0.8321  1.1541
26984SOL    HW292932   6.923  12.036   8.967  0.1789 -0.4095  0.8346
26985SOL     OW92933   5.720   6.951   5.596  0.2232  0.0342  0.3040
26985SOL    HW192934   5.722   6.995   5.681 -0.9026  0.5594  0.0667
26985SOL    HW292935   5.792   6.990   5.547  0.0722  0.6438  0.5639
26986SOL     OW92936  11.652   4.768   4.017  0.0433 -0.3403  0.2709
26986SOL    HW192937  11.723   4.756   4.080  0.4300  0.9125  0.1215
26986SOL    HW292938  11.586   4.819   4.064 -0.1226 -0.2830 -0.0181
26987SOL     OW92939   8.638  13.185  13.406 -0.3517  0.1947  0.1872
26987SOL    HW192940   8.549  13.174  13.372 -0.3279 -0.8789  0.4170
26987SOL    HW292941   8.695  13.175  13.330 -0.3354 -1.4295  0.3792
26988SOL     OW92942   5.782  12.459   9.063  1.0535 -0.6986 -0.4204
26988SOL    HW192943   5.866  12.472   9.019  1.2281 -1.8219 -0.4542
26988SOL    HW292944   5.804  12.416   9.145  0.6854  0.9693  0.5870
26989SOL     OW92945   0.409   9.480   0.694  0.0358  0.4493 -0.3458
26989SOL    HW192946   0.443   9.515   0.776  0.7086  0.4878 -0.6362
26989SOL    HW292947   0.460   9.523   0.626 -0.6064  0.5173 -0.7962
26990SOL     OW92948   6.516   7.539  12.985  0.0787  0.3031 -0.3468
26990SOL    HW192949   6.507   7.502  13.072  0.9221  0.1645 -0.3131
26990SOL    HW292950   6.598   7.503  12.951  0.6715  1.7190 -0.5066
26991SOL     OW92951  11.505   8.647   8.517  0.5196  0.1534  0.3678
26991SOL    HW192952  11.600   8.648   8.523  0.5465 -1.1968  0.3647
26991SOL    HW292953  11.475   8.626   8.605  0.1576  1.6083  0.6291
26992SOL     OW92954  14.034   6.184   9.292  0.0112 -0.4502 -0.3907
26992SOL    HW192955  13.992   6.159   9.374  0.2687 -2.2187 -0.7557
26992SOL    HW292956  13.972   6.157   9.224  0.2212  0.1060 -0.8040
26993SOL     OW92957  10.088   9.895   5.433  0.3392 -0.2360 -0.1359
26993SOL    HW192958  10.182   9.899   5.453 -0.0782  2.2441  1.7531
26993SOL    HW292959  10.045   9.893   5.519 -1.3694  0.4676 -0.9277
26994SOL     OW92960   8.368   8.795  12.908  0.0189  0.2089 -0.2255
26994SOL    HW192961   8.370   8.843  12.991 -0.1969 -0.1867  0.0168
26994SOL    HW292962   8.444   8.736  12.912 -0.2335 -0.1124 -0.1196
26995SOL     OW92963  10.618   8.972   0.082  0.3444 -0.3851  0.4576
26995SOL    HW192964  10.607   9.061   0.048  0.7013 -1.0679 -1.6065
26995SOL    HW292965  10.529   8.943   0.103  0.2239  0.4174  1.1167
26996SOL     OW92966   8.368   1.966  12.605  0.0606 -0.1719  0.1363
26996SOL    HW192967   8.431   1.990  12.537  2.4109 -0.6897  2.0055
26996SOL    HW292968   8.289   2.015  12.583  0.2281 -1.3327 -3.6792
26997SOL     OW92969  10.039  12.616  13.019 -0.0078 -0.4459  0.4882
26997SOL    HW192970   9.952  12.628  13.058  0.6395 -0.0205  1.8402
26997SOL    HW292971  10.021  12.607  12.925 -1.8060 -3.3724  0.9689
26998SOL     OW92972   7.801   9.016  12.635 -0.1823 -0.3066  0.0666
26998SOL    HW192973   7.715   9.012  12.593 -0.0420 -0.7358 -0.1898
26998SOL    HW292974   7.862   9.033  12.563  0.1755 -2.0577 -0.0882
26999SOL     OW92975   1.613   5.287   2.718 -0.1513  0.2026  0.7076
26999SOL    HW192976   1.580   5.296   2.629  2.1087 -1.7502 -0.4544
26999SOL    HW292977   1.559   5.218   2.756 -0.2408  0.0628  0.3356
27000SOL     OW92978   1.912   5.891   2.420 -0.2845 -0.2104 -0.1346
27000SOL    HW192979   1.952   5.976   2.399 -0.4247 -0.2456 -0.5493
27000SOL    HW292980   1.844   5.879   2.354 -0.2294 -0.6714 -0.1119
27001SOL     OW92981   8.233  11.651   7.042  0.3434 -0.4002 -0.0899
27001SOL    HW192982   8.272  11.738   7.042  0.9421 -0.6632 -0.8277
27001SOL    HW292983   8.307  11.592   7.051 -0.0818 -0.8397  0.7079
27002SOL     OW92984  12.263  11.251   4.242 -0.2802 -0.5302 -0.2106
27002SOL    HW192985  12.285  11.337   4.205 -0.5349  0.1189  1.0926
27002SOL    HW292986  12.347  11.213   4.267 -0.3321  0.6378  1.9433
27003SOL     OW92987   5.750   3.176  10.173 -0.2454 -0.2813  0.0762
27003SOL    HW192988   5.780   3.093  10.209  1.5244  0.2979  0.0347
27003SOL    HW292989   5.805   3.191  10.096 -1.4820  0.2777 -0.7350
27004SOL     OW92990   3.282   8.484  11.713  0.2368  0.8984 -0.2175
27004SOL    HW192991   3.188   8.487  11.697  0.2440  1.9230 -0.1226
27004SOL    HW292992   3.321   8.503  11.627  0.3857 -0.2811 -0.4345
27005SOL     OW92993   7.659  13.848   9.669  0.2914  0.2554  0.2625
27005SOL    HW192994   7.670  13.834   9.763  0.0824 -1.0028  0.1308
27005SOL    HW292995   7.566  13.829   9.653  0.5926 -0.7951 -0.3729
27006SOL     OW92996   8.972   5.693  10.106  0.1701  0.3818 -0.0354
27006SOL    HW192997   8.936   5.671  10.192  0.3425 -1.3642 -0.3782
27006SOL    HW292998   8.942   5.622  10.049  1.7522  0.4283 -0.9713
27007SOL     OW92999   0.578  10.423   6.306 -0.5003  0.4855  0.6765
27007SOL    HW193000   0.673  10.430   6.299 -0.5655 -0.3968 -3.5967
27007SOL    HW293001   0.545  10.507   6.277 -1.1387  1.1230  3.0297
27008SOL     OW93002   0.070   6.094   3.976 -0.5857  0.1110 -0.0408
27008SOL    HW193003   0.110   6.125   3.896 -3.6031  2.1757 -0.9234
27008SOL    HW293004   0.099   6.155   4.044  0.1076 -0.2471 -0.0014
27009SOL     OW93005   4.373  11.736  12.343 -0.2472 -0.5045 -0.7179
27009SOL    HW193006   4.296  11.691  12.377 -0.4046 -1.3693 -2.1578
27009SOL    HW293007   4.373  11.718  12.249  1.5339 -0.2684 -0.8111
27010SOL     OW93008   8.934   0.804  13.176 -0.2015  0.7308  0.2694
27010SOL    HW193009   8.937   0.725  13.123  0.9391 -0.2717  1.7263
27010SOL    HW293010   8.846   0.806  13.213 -0.4311  0.4921 -0.2586
27011SOL     OW93011   5.963   2.481   8.056  0.1634  0.2331  0.1239
27011SOL    HW193012   5.992   2.403   8.009  0.5840 -0.5050  1.5416
27011SOL    HW293013   6.031   2.496   8.122 -0.8448  0.6693  1.0975
27012SOL     OW93014   5.655   4.196   0.279 -0.0227 -0.4038  0.6521
27012SOL    HW193015   5.648   4.291   0.285 -0.8575 -0.4678  0.7195
27012SOL    HW293016   5.573   4.163   0.315  0.4682 -1.1700  1.1163
27013SOL     OW93017   6.737   8.424   3.936  0.3352  0.0480  0.2226
27013SOL    HW193018   6.756   8.512   3.965 -0.4693  1.3589 -2.7721
27013SOL    HW293019   6.810   8.401   3.878  0.3429 -1.1063  0.6627
27014SOL     OW93020   2.538   6.655   8.724  0.1309  0.3372  0.1173
27014SOL    HW193021   2.588   6.603   8.661  0.9091  1.3761 -0.1609
27014SOL    HW293022   2.586   6.738   8.730 -0.8980  0.9146  0.7670
27015SOL     OW93023  11.550   2.551  10.380  0.4679 -0.0658 -0.2468
27015SOL    HW193024  11.617   2.498  10.338 -0.0641  0.4966 -1.8744
27015SOL    HW293025  11.471   2.497  10.377  0.5071 -0.1721  0.4059
27016SOL     OW93026  10.657  10.105   8.412  0.1211  0.3936 -0.3380
27016SOL    HW193027  10.630  10.020   8.447  0.8232  0.3228  0.0436
27016SOL    HW293028  10.575  10.151   8.396 -0.3274 -0.7559 -1.5742
27017SOL     OW93029  11.377   7.216   8.339 -0.1709 -0.1745  0.4386
27017SOL    HW193030  11.349   7.226   8.430  0.5873 -0.0790  0.6674
27017SOL    HW293031  11.433   7.139   8.340 -0.4154 -0.3566 -0.0104
27018SOL     OW93032  11.786   8.445   5.144 -0.3426 -0.1561  0.2279
27018SOL    HW193033  11.704   8.396   5.141  0.4990 -1.5428 -0.8220
27018SOL    HW293034  11.830   8.413   5.223  0.4708 -1.5806 -0.7696
27019SOL     OW93035   3.667   2.190   4.487  0.0217 -0.6303  0.5782
27019SOL    HW193036   3.601   2.137   4.443 -1.5938  1.4113  0.3801
27019SOL    HW293037   3.710   2.239   4.416 -1.6546  1.6447  1.0132
27020SOL     OW93038  10.837  12.485   5.666  0.5441 -0.3852 -0.0829
27020SOL    HW193039  10.798  12.471   5.752  1.1801  1.0867  0.4640
27020SOL    HW293040  10.875  12.573   5.670 -1.1640  0.5697 -2.5285
27021SOL     OW93041   7.334   6.912  12.056  0.0105 -0.7483  0.1767
27021SOL    HW193042   7.384   6.983  12.016 -1.5855  0.2982 -0.0426
27021SOL    HW293043   7.381   6.894  12.138  2.0116 -1.3735 -1.0385
27022SOL     OW93044   1.726   3.892   8.101 -0.2793  0.2447  0.2392
27022SOL    HW193045   1.642   3.846   8.110  0.1752 -0.5656  0.3547
27022SOL    HW293046   1.736   3.940   8.183 -0.9447  0.8956 -0.0401
27023SOL     OW93047   0.989  10.440   4.133 -0.0243  0.2039 -0.1616
27023SOL    HW193048   0.925  10.372   4.158  1.4097 -0.8387  0.8144
27023SOL    HW293049   1.040  10.400   4.062  0.5990  0.4073  0.1683
27024SOL     OW93050   0.924   5.123   1.862  0.2282  0.0631 -0.2662
27024SOL    HW193051   0.909   5.211   1.828 -0.0104 -0.0669 -0.5089
27024SOL    HW293052   0.942   5.135   1.955  0.5486  0.3969 -0.3725
27025SOL     OW93053   3.814   7.250   7.872  0.8779 -0.2960  0.2662
27025SOL    HW193054   3.798   7.244   7.778 -0.3619 -0.5557  0.4666
27025SOL    HW293055   3.807   7.160   7.904  2.0497 -0.3094  0.5043
27026SOL     OW93056   8.157   1.845   7.005  0.4134 -0.4068 -0.3517
27026SOL    HW193057   8.099   1.811   6.938 -1.0516 -1.5629  1.4109
27026SOL    HW293058   8.191   1.927   6.969 -3.2051  0.9591 -1.0522
27027SOL     OW93059   8.240   9.137   8.368  0.5500 -0.6052  0.6483
27027SOL    HW193060   8.226   9.051   8.330  1.0548  0.3485 -1.9164
27027SOL    HW293061   8.181   9.141   8.443 -1.3164 -2.2683 -0.6587
27028SOL     OW93062   5.519   4.436   6.050 -0.2502  0.0245 -0.1753
27028SOL    HW193063   5.458   4.503   6.082  1.8958  1.2282  1.6900
27028SOL    HW293064   5.519   4.447   5.955 -2.1997  0.5991 -0.1484
27029SOL     OW93065   6.310  11.968   9.640  0.2817 -0.4731  0.6902
27029SOL    HW193066   6.268  12.046   9.676 -1.2053 -0.8753 -0.1083
27029SOL    HW293067   6.398  11.997   9.615 -0.1005  0.8338  0.8048
27030SOL     OW93068   7.845  11.588   3.725 -0.3824 -0.2614 -0.2583
27030SOL    HW193069   7.870  11.563   3.636  1.1462  0.1231  0.0248
27030SOL    HW293070   7.825  11.681   3.719 -1.5680 -0.5225 -0.4409
27031SOL     OW93071  12.025   4.819   5.732 -0.2654  0.0997  1.0440
27031SOL    HW193072  11.932   4.797   5.736 -0.2609  0.1359  1.4239
27031SOL    HW293073  12.047   4.814   5.639 -0.1670 -1.9403  1.1285
27032SOL     OW93074   4.029   0.464  11.813 -0.5685  0.0023 -0.1736
27032SOL    HW193075   3.942   0.458  11.854  1.5460 -0.4752  5.0165
27032SOL    HW293076   4.052   0.373  11.793 -0.7242 -0.0520 -0.1092
27033SOL     OW93077  12.782  10.216   7.423  0.3782  0.1488 -0.7722
27033SOL    HW193078  12.787  10.121   7.435  0.0364  0.2755  0.5459
27033SOL    HW293079  12.715  10.228   7.356 -0.6795 -0.4893  0.1349
27034SOL     OW93080  12.525   2.095   8.756  0.4771  0.1238  0.1579
27034SOL    HW193081  12.439   2.080   8.796  1.2610  0.1457  1.9231
27034SOL    HW293082  12.573   2.013   8.772  1.5157  0.9039  1.1814
27035SOL     OW93083   3.900   8.600  11.179 -0.5352 -0.0706 -0.5898
27035SOL    HW193084   3.864   8.689  11.175 -0.6549 -0.0941 -0.1582
27035SOL    HW293085   3.828   8.548  11.214 -0.2541 -0.2174 -0.2240
27036SOL     OW93086  10.581   6.572   8.007  0.4346  0.4990  0.2647
27036SOL    HW193087  10.492   6.596   8.031  0.6635  1.2035  0.4412
27036SOL    HW293088  10.591   6.481   8.035 -0.3523  0.2925 -0.1134
27037SOL     OW93089  12.914   0.414   8.316 -0.0664  0.1313  0.2818
27037SOL    HW193090  12.908   0.466   8.396  0.7032  2.0974 -0.8544
27037SOL    HW293091  12.884   0.472   8.247  3.0648  0.0089 -1.4078
27038SOL     OW93092   3.076   6.319  10.794  0.3191  0.2564 -0.1834
27038SOL    HW193093   3.097   6.277  10.710 -1.6001 -1.1355 -0.0411
27038SOL    HW293094   3.118   6.264  10.860 -0.0356  0.0590 -0.1222
27039SOL     OW93095  11.548   6.550   8.747  0.1038 -0.0899 -0.1193
27039SOL    HW193096  11.476   6.490   8.724  0.4737 -1.0479  1.1193
27039SOL    HW293097  11.617   6.529   8.685 -0.5022  0.5070 -1.0149
27040SOL     OW93098   7.908   8.777  13.528 -0.0190  0.3531 -0.4705
27040SOL    HW193099   7.990   8.802  13.486  0.6004 -1.6790 -0.5819
27040SOL    HW293100   7.842   8.790  13.460 -0.0276  2.9112 -0.0953
27041SOL     OW93101   7.869  11.668   0.062  0.1826  0.7715  0.6509
27041SOL    HW193102   7.909  11.654  -0.024  1.1460  1.8797  0.8829
27041SOL    HW293103   7.819  11.749   0.052 -0.7576  0.2216  0.8034
27042SOL     OW93104   7.728  13.441   8.501 -0.1381 -0.3706 -0.4434
27042SOL    HW193105   7.819  13.440   8.472  0.2248 -0.6651  0.6636
27042SOL    HW293106   7.712  13.533   8.524 -0.5112 -0.0810 -1.7519
27043SOL     OW93107   6.013   2.281   1.552 -0.5516 -0.3158 -0.1697
27043SOL    HW193108   6.032   2.312   1.463  1.1362  0.6332  0.4737
27043SOL    HW293109   6.076   2.328   1.608 -2.1531 -0.2063  1.6536
27044SOL     OW93110  10.272   0.848   5.732  0.3490  0.1829 -0.2624
27044SOL    HW193111  10.305   0.837   5.821 -0.2577  0.9226  0.0699
27044SOL    HW293112  10.343   0.818   5.675 -0.0503 -2.4590  0.4710
27045SOL     OW93113   4.942   0.627  10.843  0.5356 -0.0557 -0.3586
27045SOL    HW193114   4.906   0.539  10.838 -2.4810  1.1124 -1.6686
27045SOL    HW293115   5.014   0.627  10.780 -0.8902 -1.0325 -2.0892
27046SOL     OW93116  10.490   3.049  11.338 -0.0480 -0.3823 -0.6625
27046SOL    HW193117  10.564   3.072  11.395 -0.7936 -0.6300  0.4291
27046SOL    HW293118  10.460   3.133  11.303 -1.3553  0.1372  1.5606
27047SOL     OW93119  10.073  13.261   3.165 -0.1930 -0.3545 -0.2399
27047SOL    HW193120  10.123  13.252   3.084  0.1223 -1.9859  0.0842
27047SOL    HW293121  10.010  13.331   3.148  0.8422  0.3411 -1.3657
27048SOL     OW93122   6.455  13.768   0.599  0.1412  0.3898 -0.1201
27048SOL    HW193123   6.396  13.712   0.650  1.0732  0.3531  0.9617
27048SOL    HW293124   6.535  13.716   0.592  0.3170  0.7634 -0.8791
27049SOL     OW93125  11.967   2.222   3.909 -0.1495  0.2633  0.4973
27049SOL    HW193126  12.026   2.237   3.836 -1.6711  0.1192 -0.8078
27049SOL    HW293127  12.001   2.278   3.979  1.7664 -0.1548 -0.0364
27050SOL     OW93128  12.160   4.203  11.794 -0.1831 -0.5085  0.4405
27050SOL    HW193129  12.181   4.295  11.777  0.8844 -0.8781 -0.3956
27050SOL    HW293130  12.200   4.156  11.721  0.9812 -1.8063  1.8509
27051SOL     OW93131   5.775   1.507   1.341  0.3908  0.0449  0.0273
27051SOL    HW193132   5.861   1.472   1.318 -0.2623 -1.2757 -0.5845
27051SOL    HW293133   5.728   1.432   1.378  0.0220  1.1301  1.8793
27052SOL     OW93134  12.895  11.512   5.818  0.3454 -0.0183 -0.2286
27052SOL    HW193135  12.921  11.431   5.774 -0.8413 -0.4495 -0.1748
27052SOL    HW293136  12.868  11.484   5.906  0.0477  0.4518 -0.1661
27053SOL     OW93137  13.717   3.286   0.889  0.1137 -0.3163  0.1277
27053SOL    HW193138  13.809   3.311   0.878 -0.4036  1.1294 -1.2390
27053SOL    HW293139  13.702   3.292   0.983  1.2881 -0.0880  0.3196
27054SOL     OW93140  12.069   8.961  10.002  0.0832 -0.8847 -0.0462
27054SOL    HW193141  12.023   8.999  10.077  0.5459 -2.2573  0.9737
27054SOL    HW293142  12.094   8.874  10.031 -0.5979 -1.8562 -2.1509
27055SOL     OW93143  10.403   0.187   6.972  0.0184  0.0734 -0.7676
27055SOL    HW193144  10.342   0.255   7.001  1.0385  0.2615  1.0638
27055SOL    HW293145  10.352   0.134   6.911 -1.5703  0.9956 -0.3042
27056SOL     OW93146  13.222   5.095   2.394  0.0284 -0.7094 -0.2527
27056SOL    HW193147  13.143   5.066   2.440  0.1638 -1.2655 -0.3586
27056SOL    HW293148  13.231   5.033   2.321  1.5636 -1.7898  0.7864
27057SOL     OW93149  12.238   4.123  13.765 -0.0117 -0.4797 -0.0141
27057SOL    HW193150  12.307   4.180  13.799 -0.7966 -1.0423  2.6903
27057SOL    HW293151  12.283   4.065  13.704  0.9262  2.4944 -2.3948
27058SOL     OW93152   3.311   4.760  13.256  0.3220  0.6507  0.2750
27058SOL    HW193153   3.317   4.671  13.292  3.0530  1.2507  1.5680
27058SOL    HW293154   3.228   4.794  13.287  0.1479 -0.7630  1.4387
27059SOL     OW93155   8.406   3.198   3.323 -0.0722  0.6113 -0.5507
27059SOL    HW193156   8.381   3.164   3.409  1.2406  0.8938 -0.0366
27059SOL    HW293157   8.342   3.159   3.263 -0.7939  0.1210  0.4917
27060SOL     OW93158   6.928   0.660   4.681 -0.1559 -0.1376  0.3510
27060SOL    HW193159   6.929   0.691   4.591 -1.5778 -0.0426  0.3476
27060SOL    HW293160   6.848   0.696   4.719 -1.7104 -3.3607  0.4669
27061SOL     OW93161   6.377  12.204  12.532 -0.3875  0.4792  0.2744
27061SOL    HW193162   6.288  12.187  12.503  0.4055 -0.5171 -1.7791
27061SOL    HW293163   6.412  12.267  12.469  0.7071 -0.0373  0.3322
27062SOL     OW93164   2.837  12.947  10.248  0.0688  0.2767  0.3398
27062SOL    HW193165   2.764  12.969  10.191  0.6087  0.3051 -0.3535
27062SOL    HW293166   2.801  12.883  10.309 -0.4306 -0.0115 -0.2416
27063SOL     OW93167  11.288  11.036   2.650  0.1403  0.5351 -0.0543
27063SOL    HW193168  11.270  10.985   2.729 -0.1413  0.0653 -0.4086
27063SOL    HW293169  11.381  11.022   2.633  0.3514  1.1642  0.5492
27064SOL     OW93170  10.302   7.697   3.382  0.0407 -0.6686  0.0584
27064SOL    HW193171  10.392   7.702   3.413 -0.3248  2.3688  0.9801
27064SOL    HW293172  10.310   7.674   3.290  1.6663 -1.5713  0.3812
27065SOL     OW93173   9.334  12.617   6.737 -0.1082 -0.3516  0.1726
27065SOL    HW193174   9.319  12.711   6.746 -3.4022 -0.7445 -0.2610
27065SOL    HW293175   9.429  12.610   6.721  0.0457  2.9863 -1.2089
27066SOL     OW93176  13.344  11.906  13.406 -0.5644 -0.3357  0.7459
27066SOL    HW193177  13.344  11.831  13.346  0.1111  1.9438 -2.3869
27066SOL    HW293178  13.434  11.912  13.438 -0.7587 -1.1504  1.4884
27067SOL     OW93179  12.651   7.610   1.892 -0.8788 -0.6909 -0.1551
27067SOL    HW193180  12.732   7.594   1.842  0.4501 -0.7608  1.9006
27067SOL    HW293181  12.614   7.688   1.850  0.9294  0.1013 -0.4185
27068SOL     OW93182   7.003  10.527   2.704  0.1840  0.0715 -0.3610
27068SOL    HW193183   6.942  10.460   2.735  0.7714 -0.2809  0.0594
27068SOL    HW293184   6.954  10.609   2.711  0.3793  0.0633  1.9096
27069SOL     OW93185  12.410   6.946  11.839 -0.7446 -0.2247 -0.4799
27069SOL    HW193186  12.423   7.041  11.840 -1.7783 -0.0713 -0.3471
27069SOL    HW293187  12.457   6.916  11.762  0.6907  0.2199  0.1931
27070SOL     OW93188  13.160  12.119   8.632  1.1522 -1.0705 -0.1128
27070SOL    HW193189  13.104  12.044   8.611  0.8079 -0.8766  0.0867
27070SOL    HW293190  13.105  12.196   8.614  0.6944 -0.8951  1.8225
27071SOL     OW93191  13.133  12.682   2.968 -0.0003 -0.7325  0.9142
27071SOL    HW193192  13.049  12.722   2.989 -0.3241 -0.7836 -0.2391
27071SOL    HW293193  13.112  12.606   2.915  0.8102 -0.0469 -0.4655
27072SOL     OW93194  12.813   7.427  11.188  0.0704 -0.4335  0.6754
27072SOL    HW193195  12.747   7.366  11.220  0.4567 -1.0217  0.3570
27072SOL    HW293196  12.823   7.490  11.260 -2.2518  0.8563 -0.0059
27073SOL     OW93197   1.060   7.103  11.551  0.2377 -0.3226 -0.0533
27073SOL    HW193198   0.983   7.060  11.588 -0.9826  1.3626 -0.5265
27073SOL    HW293199   1.099   7.038  11.493 -0.8687 -1.1821  0.1395
27074SOL     OW93200   0.506   0.565   1.503 -0.1514  0.2715  0.2904
27074SOL    HW193201   0.550   0.621   1.567 -2.0915  2.2700 -0.0128
27074SOL    HW293202   0.468   0.494   1.556  0.2556  0.5971  1.0391
27075SOL     OW93203   6.579   0.768  12.657 -0.0563  0.4390  0.2906
27075SOL    HW193204   6.554   0.697  12.716  0.6243  0.7316  0.9433
27075SOL    HW293205   6.509   0.833  12.666 -0.2634  0.2104  0.3114
27076SOL     OW93206  13.689   8.385   6.177  0.0607  0.0324 -0.2269
27076SOL    HW193207  13.777   8.404   6.144 -0.2397  2.5525  0.2664
27076SOL    HW293208  13.630   8.414   6.108 -0.4325  0.0016  0.1751
27077SOL     OW93209  10.949   1.417   3.284  0.3001 -0.2374  0.2443
27077SOL    HW193210  11.019   1.361   3.319 -1.0376 -1.0383  1.7374
27077SOL    HW293211  10.977   1.435   3.194  1.3685 -2.3556  0.0766
27078SOL     OW93212  11.270   3.714  13.832  0.3560  0.1996  0.1010
27078SOL    HW193213  11.236   3.687  13.747 -0.0094  0.2464  0.2298
27078SOL    HW293214  11.210   3.673  13.895 -0.2948  1.4205  0.2945
27079SOL     OW93215   2.743  11.463   0.955 -0.2013 -0.3249  0.0253
27079SOL    HW193216   2.743  11.505   0.869 -1.3934 -1.0223 -0.3415
27079SOL    HW293217   2.826  11.416   0.959  0.2369  0.4013 -0.3940
27080SOL     OW93218   0.486   6.828   2.096  0.0482 -0.0121 -0.5575
27080SOL    HW193219   0.417   6.763   2.083 -1.2656  1.1771  0.2100
27080SOL    HW293220   0.529   6.803   2.177 -0.1703 -0.1647 -0.4890
27081SOL     OW93221  13.666   3.659   4.120  0.0606  0.6057 -0.0767
27081SOL    HW193222  13.625   3.646   4.034 -0.3663  0.2384  0.1719
27081SOL    HW293223  13.753   3.692   4.101  0.3964 -0.5812 -0.6969
27082SOL     OW93224   2.937  12.728   2.708  0.5489 -0.7013  0.7239
27082SOL    HW193225   2.930  12.670   2.631  1.3532  0.6871 -0.4439
27082SOL    HW293226   3.028  12.721   2.735  1.3405  1.7623 -0.9434
27083SOL     OW93227   7.947   5.117  11.073  0.5505  0.2717  0.1798
27083SOL    HW193228   7.928   5.044  11.131 -0.5334 -0.0417 -0.5414
27083SOL    HW293229   8.042   5.130  11.080  1.0170 -2.1697 -0.8035
27084SOL     OW93230   1.822   1.737   9.198 -0.4747  0.2383 -0.0286
27084SOL    HW193231   1.914   1.740   9.226 -0.0061 -0.0686 -1.4542
27084SOL    HW293232   1.795   1.646   9.211 -0.0874 -0.0343 -1.0358
27085SOL     OW93233   7.108  13.260  13.420 -0.3039 -0.2088 -0.0602
27085SOL    HW193234   7.039  13.283  13.482 -0.9207 -1.0658 -0.4027
27085SOL    HW293235   7.187  13.250  13.474 -0.4503  0.7258  0.3406
27086SOL     OW93236   6.337  13.764   1.859  0.4392  0.2761 -0.4951
27086SOL    HW193237   6.392  13.832   1.819  0.2372  1.0166  0.4601
27086SOL    HW293238   6.274  13.813   1.912  1.6491 -0.7090  1.9818
27087SOL     OW93239  10.747   4.715   9.785 -0.4242  0.7359 -0.0898
27087SOL    HW193240  10.749   4.634   9.837 -0.1263 -0.0473 -1.2740
27087SOL    HW293241  10.832   4.756   9.802 -1.4983  2.1299  2.4581
27088SOL     OW93242   1.339  12.578   2.668 -0.1361  0.1715 -0.5201
27088SOL    HW193243   1.411  12.607   2.724 -1.8357  0.9130  1.3947
27088SOL    HW293244   1.357  12.485   2.651  2.0109  0.6818 -1.3742
27089SOL     OW93245   0.497   2.218   1.603  0.6336  0.1422 -0.2186
27089SOL    HW193246   0.488   2.266   1.685 -1.2353  1.1872 -0.9665
27089SOL    HW293247   0.440   2.142   1.613  0.6075  0.1306 -0.4435
27090SOL     OW93248   6.223   1.521  10.095  0.4449  0.0409 -0.6631
27090SOL    HW193249   6.310   1.557  10.108 -0.0373  1.5252 -1.3078
27090SOL    HW293250   6.180   1.528  10.180  1.1040 -1.1823 -0.2124
27091SOL     OW93251   9.046   8.391   9.851 -0.6253 -0.3488  0.6410
27091SOL    HW193252   9.121   8.338   9.878 -2.0652 -3.2423 -0.5981
27091SOL    HW293253   9.029   8.449   9.925  3.4969  1.3345  0.5134
27092SOL     OW93254  11.764   6.149   8.884 -0.1249 -0.2972  0.3611
27092SOL    HW193255  11.810   6.210   8.827 -0.5136 -0.5385 -0.2232
27092SOL    HW293256  11.783   6.179   8.972  2.7834 -1.5483  0.2527
27093SOL     OW93257  10.600   1.014  12.381  0.0858  0.3577  0.3909
27093SOL    HW193258  10.684   1.022  12.427  0.3499  0.5016 -0.1086
27093SOL    HW293259  10.594   1.095  12.329  0.0919 -0.0914 -0.3167
27094SOL     OW93260   7.574  10.794   3.849  0.1782  0.8000 -0.4827
27094SOL    HW193261   7.604  10.809   3.939  1.0263 -0.2273 -0.5765
27094SOL    HW293262   7.585  10.700   3.836  1.8394  1.1970 -2.2789
27095SOL     OW93263  11.202  11.003  11.184  0.4736 -0.3159  0.1677
27095SOL    HW193264  11.196  11.059  11.261  0.2224  0.4587 -0.4008
27095SOL    HW293265  11.197  11.064  11.110 -1.0072 -1.1821 -0.4828
27096SOL     OW93266   4.597   2.883   8.881  0.1538  0.3846 -0.6773
27096SOL    HW193267   4.565   2.821   8.816  0.4120 -1.7322  1.0902
27096SOL    HW293268   4.533   2.879   8.952  1.6465 -0.0889  0.7086
27097SOL     OW93269  10.817   0.588   0.569 -0.3156 -0.0098 -0.3308
27097SOL    HW193270  10.862   0.512   0.607 -0.6548 -0.3845 -0.6684
27097SOL    HW293271  10.764   0.551   0.499 -1.3594  0.3857  0.2378
27098SOL     OW93272   0.440  12.530  13.673 -0.1974  0.2455  0.0582
27098SOL    HW193273   0.534  12.532  13.657 -0.0949 -0.2059  0.5809
27098SOL    HW293274   0.401  12.563  13.592  0.2522 -2.6920 -1.4881
27099SOL     OW93275   0.021   7.061   4.682  0.3148 -0.3104 -0.1486
27099SOL    HW193276   0.015   6.998   4.610  3.6615 -0.5974 -0.3322
27099SOL    HW293277   0.078   7.018   4.747  0.7099  1.5608  0.8112
27100SOL     OW93278   6.558   4.004   7.030  0.0271 -0.1941  0.7489
27100SOL    HW193279   6.472   3.973   7.001 -0.4613  2.2454 -0.7918
27100SOL    HW293280   6.621   3.950   6.981 -0.6899 -0.6508  0.3128
27101SOL     OW93281   8.146   2.484   8.822  0.6457 -0.5034  0.2370
27101SOL    HW193282   8.156   2.578   8.838 -0.1487 -0.2246 -0.8262
27101SOL    HW293283   8.203   2.467   8.747  0.3877 -0.7618  0.1002
27102SOL     OW93284   9.154  10.465   1.595  0.1213 -0.2530  0.4055
27102SOL    HW193285   9.153  10.369   1.604 -0.5943 -0.2948 -0.0046
27102SOL    HW293286   9.106  10.481   1.514 -1.1477  0.5293  1.2834
27103SOL     OW93287   3.725   5.538   0.168  0.1383  0.1927 -0.1692
27103SOL    HW193288   3.664   5.491   0.224  0.9938 -1.7481 -0.7896
27103SOL    HW293289   3.685   5.537   0.082  0.8394 -0.7518 -0.4969
27104SOL     OW93290  11.482   9.221   2.861 -0.2722 -0.5026  0.0331
27104SOL    HW193291  11.485   9.286   2.931 -0.8039  1.2484 -1.5037
27104SOL    HW293292  11.546   9.155   2.888  0.4254  0.7330  1.5769
27105SOL     OW93293   7.320   9.031   8.073  0.6554 -0.2359  0.2409
27105SOL    HW193294   7.390   9.031   8.138  0.3915 -0.4707  0.5252
27105SOL    HW293295   7.344   9.100   8.011  1.6286 -0.9204 -0.1744
27106SOL     OW93296   8.107   9.779   2.269 -0.4240 -0.2765  0.5128
27106SOL    HW193297   8.050   9.832   2.325 -0.2437 -0.4871  0.8963
27106SOL    HW293298   8.189   9.828   2.264 -0.3593 -0.3710  0.6278
27107SOL     OW93299   3.855   3.233   0.970 -0.0459 -0.3209  0.2110
27107SOL    HW193300   3.851   3.303   1.034 -1.1921 -1.1579  1.1006
27107SOL    HW293301   3.782   3.251   0.910  1.0994  0.5357 -0.9922
27108SOL     OW93302   7.557   7.532  13.418 -0.0100  0.3863  0.0183
27108SOL    HW193303   7.466   7.529  13.389 -0.9467  0.4061  2.6883
27108SOL    HW293304   7.606   7.559  13.340 -2.3904  1.3305 -1.2531
27109SOL     OW93305   1.431  10.945  11.749 -0.3364 -0.2847  0.2022
27109SOL    HW193306   1.494  10.880  11.716  0.7719  0.4126  0.9019
27109SOL    HW293307   1.404  10.911  11.834 -1.2296 -0.7729 -0.2567
27110SOL     OW93308   5.779   1.665  13.025  0.5021  0.2809 -0.6639
27110SOL    HW193309   5.831   1.745  13.033  1.3597 -0.3166 -0.0667
27110SOL    HW293310   5.720   1.668  13.101 -1.2668  1.5617 -1.9855
27111SOL     OW93311   1.890  12.672   4.563 -0.1948 -0.0778  0.4957
27111SOL    HW193312   1.954  12.721   4.614 -0.3386 -1.2714  1.9028
27111SOL    HW293313   1.939  12.635   4.490  0.3430  0.4323  0.5968
27112SOL     OW93314   5.852  12.855  13.232  0.3041 -0.0767 -0.2551
27112SOL    HW193315   5.839  12.781  13.291  0.0459  0.5703  0.5180
27112SOL    HW293316   5.851  12.816  13.144  1.9413 -1.2292  0.1845
27113SOL     OW93317   0.841   8.054   9.562 -0.1891  0.3399 -0.3951
27113SOL    HW193318   0.866   8.037   9.653  2.0268 -1.1924 -1.2048
27113SOL    HW293319   0.848   8.148   9.552  0.3285  0.4470  0.8149
27114SOL     OW93320   5.192   8.210   2.186 -0.1607  0.0159  0.6833
27114SOL    HW193321   5.131   8.207   2.112 -0.1922 -0.8982  0.7329
27114SOL    HW293322   5.165   8.286   2.236  0.3302  1.1065 -0.6422
27115SOL     OW93323  10.262   8.423  11.310 -0.1533  0.4145  0.5926
27115SOL    HW193324  10.196   8.476  11.266 -1.3795 -1.7749 -0.3674
27115SOL    HW293325  10.228   8.412  11.399 -1.0312 -0.5119  0.1687
27116SOL     OW93326  12.446  13.672   5.515  0.2302  0.8468 -0.1221
27116SOL    HW193327  12.470  13.653   5.606  0.9410 -0.0539 -0.4946
27116SOL    HW293328  12.367  13.620   5.500  0.7381  0.1257 -0.3511
27117SOL     OW93329  13.204   6.245  13.015 -0.2552 -0.6967  0.5422
27117SOL    HW193330  13.253   6.327  13.019 -0.0901 -0.7777  0.2389
27117SOL    HW293331  13.246   6.195  12.945 -0.4706 -0.9636  0.5992
27118SOL     OW93332  11.925  13.032  11.582  0.5192 -0.2180  0.1036
27118SOL    HW193333  11.956  13.116  11.548  3.2411 -0.5068  1.5715
27118SOL    HW293334  11.921  13.045  11.677 -0.6832 -1.2765  0.2302
27119SOL     OW93335   4.258  10.514  10.807 -0.0286 -0.1445 -0.8978
27119SOL    HW193336   4.185  10.508  10.869  0.9157 -1.3419  0.1741
27119SOL    HW293337   4.284  10.423  10.793  2.3699  0.3089  0.1581
27120SOL     OW93338  11.155   0.884  11.815 -0.0148  0.1775  0.4130
27120SOL    HW193339  11.123   0.795  11.832  1.0823 -0.1885  0.5996
27120SOL    HW293340  11.156   0.925  11.902 -1.2601  0.6452  0.2314
27121SOL     OW93341   6.224  11.340   8.912  0.2516  0.2305  0.0268
27121SOL    HW193342   6.179  11.267   8.870  1.5672  0.9057 -2.7836
27121SOL    HW293343   6.168  11.416   8.896  0.2777  0.3394  0.4287
27122SOL     OW93344   3.506  13.444   9.252  0.5562  0.2269  0.2172
27122SOL    HW193345   3.419  13.410   9.274  0.2462  0.3084 -0.8303
27122SOL    HW293346   3.495  13.539   9.251 -0.2099  0.2382 -2.9961
27123SOL     OW93347   3.594  12.377   2.856  0.5029 -0.0250 -1.2454
27123SOL    HW193348   3.638  12.419   2.930 -0.9057 -0.1744 -0.3043
27123SOL    HW293349   3.660  12.377   2.787  1.7640  0.3633 -0.0900
27124SOL     OW93350  13.937   1.908   7.863 -0.0304  0.2670  0.3695
27124SOL    HW193351  13.888   1.925   7.783 -1.8806 -0.8901  1.2013
27124SOL    HW293352  13.887   1.950   7.932  0.6477 -0.1551  1.1406
27125SOL     OW93353   1.207  11.256   8.038 -0.2006  0.0377  0.2789
27125SOL    HW193354   1.286  11.291   8.078 -1.1678  0.7140  1.6796
27125SOL    HW293355   1.190  11.314   7.964  0.4815  0.0202  0.1047
27126SOL     OW93356   7.475   1.653   6.383 -0.3204 -0.1011 -0.1739
27126SOL    HW193357   7.446   1.562   6.382 -0.4011 -0.1076  0.8831
27126SOL    HW293358   7.571   1.649   6.376 -0.2799 -0.3063  0.4443
27127SOL     OW93359   7.460   0.258   0.191 -0.0799  0.7194  0.4593
27127SOL    HW193360   7.457   0.176   0.240 -0.2961  0.4628  0.0272
27127SOL    HW293361   7.465   0.326   0.258 -2.3144  0.4953  0.9475
27128SOL     OW93362   1.561   7.925   7.637  0.0224 -0.8942 -0.4261
27128SOL    HW193363   1.543   7.969   7.554 -1.6795 -1.1170 -0.2179
27128SOL    HW293364   1.580   7.996   7.698 -1.9179 -0.4310 -0.2795
27129SOL     OW93365  13.780   8.284  13.487 -0.2122 -0.2985 -0.7623
27129SOL    HW193366  13.808   8.374  13.471 -0.8797 -0.2598 -1.8365
27129SOL    HW293367  13.805   8.237  13.408  0.0637 -1.0452 -0.2378
27130SOL     OW93368   1.048  12.536   1.134  0.7764 -0.4082  0.2831
27130SOL    HW193369   1.038  12.597   1.207  2.1790  0.0187  0.1471
27130SOL    HW293370   1.139  12.546   1.107  0.2855 -0.5733 -1.5184
27131SOL     OW93371   9.600   2.228   2.373 -0.0237  0.6003  0.1223
27131SOL    HW193372   9.557   2.275   2.301  0.9989 -1.7483 -2.1632
27131SOL    HW293373   9.530   2.175   2.412 -0.0149 -0.4037 -1.1688
27132SOL     OW93374   0.640   4.055  13.182 -0.3067  0.0371  0.1884
27132SOL    HW193375   0.570   4.101  13.230  0.4387 -1.2767  2.7411
27132SOL    HW293376   0.636   4.092  13.094 -2.1980  2.2207  1.0494
27133SOL     OW93377  10.271   7.203   4.350 -0.3430 -0.3521  1.0727
27133SOL    HW193378  10.365   7.183   4.346 -0.0848  0.8167  0.8487
27133SOL    HW293379  10.265   7.282   4.404 -1.0256  0.4383 -0.0894
27134SOL     OW93380  11.563   4.731  12.845 -0.0963  0.4685  0.0550
27134SOL    HW193381  11.482   4.681  12.853 -0.0056  0.4741  1.1030
27134SOL    HW293382  11.580   4.734  12.751  1.1793 -3.5827 -0.0766
27135SOL     OW93383  10.765  12.542   6.627  0.3431  0.4141  0.3573
27135SOL    HW193384  10.794  12.504   6.710  1.3045 -0.8371 -0.5208
27135SOL    HW293385  10.686  12.591   6.650  0.6118  0.1346  2.0153
27136SOL     OW93386   6.842   7.581   4.651  0.2968  0.7084 -0.0465
27136SOL    HW193387   6.919   7.635   4.636  1.0430 -0.1302  0.6374
27136SOL    HW293388   6.774   7.643   4.678  0.5531  1.5267 -1.2207
27137SOL     OW93389   5.739  10.288  12.876  0.2346 -0.8191 -0.0142
27137SOL    HW193390   5.756  10.334  12.793  4.0402  0.2530  1.1433
27137SOL    HW293391   5.761  10.351  12.944  0.4265 -2.6821  1.7604
27138SOL     OW93392   7.990   4.208   7.269 -0.0001 -0.4103 -0.0259
27138SOL    HW193393   7.901   4.200   7.303 -0.0696 -0.7879 -0.2980
27138SOL    HW293394   7.999   4.136   7.207  0.8781 -1.0916  0.8588
27139SOL     OW93395   4.627   6.379   0.787  0.2961  0.6220 -0.1588
27139SOL    HW193396   4.648   6.308   0.847 -1.2775 -0.6986 -1.0897
27139SOL    HW293397   4.709   6.396   0.740  0.1677 -2.3708 -1.6753
27140SOL     OW93398   6.074   7.976   1.959  0.5325  0.3822 -0.2367
27140SOL    HW193399   6.144   8.025   2.003 -0.5543  0.2809  1.7529
27140SOL    HW293400   6.077   8.005   1.868  2.0800  1.6124  0.1604
27141SOL     OW93401  10.389  13.588  13.854  0.1580  0.5779  0.4023
27141SOL    HW193402  10.435  13.537  13.921 -3.1079 -1.8143  1.0758
27141SOL    HW293403  10.430  13.674  13.857  3.8762 -1.0488  1.4656
27142SOL     OW93404   1.418   6.417   5.386 -0.3155 -0.3623 -0.9163
27142SOL    HW193405   1.424   6.433   5.480  2.4002 -0.0677 -1.0570
27142SOL    HW293406   1.500   6.451   5.351 -1.3564 -0.2718 -3.4416
27143SOL     OW93407   1.801  10.735  10.302  0.3617  0.6483 -0.3699
27143SOL    HW193408   1.743  10.757  10.375 -0.1791 -1.4849 -0.0903
27143SOL    HW293409   1.852  10.661  10.334  0.1531 -0.3086 -2.1246
27144SOL     OW93410  10.523   2.939   8.052  0.1120  0.2608  0.0711
27144SOL    HW193411  10.469   2.999   8.001  0.9331  1.2334  0.3061
27144SOL    HW293412  10.591   2.910   7.992 -0.1008 -0.2097  0.0475
27145SOL     OW93413  11.630   6.601  13.670  0.4330  0.2429  0.1785
27145SOL    HW193414  11.590   6.625  13.753 -2.2277 -1.0099 -0.6654
27145SOL    HW293415  11.656   6.510  13.680  0.2439  0.1297 -0.2971
27146SOL     OW93416  12.283   8.373   0.188 -0.1809  0.4062  0.2744
27146SOL    HW193417  12.289   8.311   0.115 -1.5710  1.5431 -0.8574
27146SOL    HW293418  12.374   8.402   0.201  0.1564 -0.1480 -0.7087
27147SOL     OW93419   3.029   9.525   4.141 -0.1806 -0.1358  0.1885
27147SOL    HW193420   3.029   9.457   4.073  0.9385  0.8182 -0.8146
27147SOL    HW293421   2.964   9.588   4.112  0.5285  0.4357 -0.2043
27148SOL     OW93422   7.147   7.137   4.923 -0.2871 -0.2009  0.2253
27148SOL    HW193423   7.101   7.171   4.846  1.0418  0.2763 -0.3975
27148SOL    HW293424   7.152   7.043   4.909  2.7086  0.1343 -1.9616
27149SOL     OW93425   2.140   1.107   0.517  0.8186 -0.0726 -0.9955
27149SOL    HW193426   2.128   1.021   0.557  1.2946  0.6292  0.7352
27149SOL    HW293427   2.105   1.097   0.428 -0.3810 -1.6689 -0.3947
27150SOL     OW93428  10.597   3.071   3.188 -0.0528 -0.0547  0.0725
27150SOL    HW193429  10.687   3.042   3.174 -0.2158 -1.0471  0.9667
27150SOL    HW293430  10.552   2.993   3.220 -1.7166 -0.1385 -2.1934
27151SOL     OW93431   5.870  10.575  11.545  0.2270 -0.3535 -0.3137
27151SOL    HW193432   5.782  10.596  11.575  0.3597 -1.5993  1.0275
27151SOL    HW293433   5.920  10.562  11.625  1.2193 -1.2789 -1.0703
27152SOL     OW93434   1.599   9.342   5.643 -0.2012  0.2058  0.4655
27152SOL    HW193435   1.615   9.309   5.732  1.5220  0.8559  0.4390
27152SOL    HW293436   1.683   9.331   5.598 -1.5067 -1.9025 -1.7346
27153SOL     OW93437  13.914  10.686   1.776 -0.1097  0.3184  0.0804
27153SOL    HW193438  13.915  10.754   1.708  1.8073  0.1391 -0.1174
27153SOL    HW293439  13.987  10.707   1.833 -0.9601 -0.2334  1.4226
27154SOL     OW93440   1.894   9.995   2.990  0.6969 -0.3418 -0.3010
27154SOL    HW193441   1.939  10.023   3.070 -1.3722 -0.9396  1.1541
27154SOL    HW293442   1.801   9.997   3.013  0.0696 -1.0121 -2.5629
27155SOL     OW93443   9.037  11.718   9.229  0.6609 -0.4058  0.0398
27155SOL    HW193444   9.101  11.789   9.239 -0.5259  0.5440  1.2786
27155SOL    HW293445   8.995  11.711   9.315 -0.7662 -1.1348 -0.6835
27156SOL     OW93446  11.390  11.808   6.664 -0.2408 -0.3552  0.1870
27156SOL    HW193447  11.302  11.808   6.701 -0.8588  0.6821 -1.1757
27156SOL    HW293448  11.382  11.858   6.582  1.1581 -2.0696 -1.0861
27157SOL     OW93449   1.700   3.626   4.867 -0.1464  0.3235 -0.0935
27157SOL    HW193450   1.624   3.576   4.897 -0.5958  1.3925  0.6062
27157SOL    HW293451   1.766   3.560   4.848 -0.4414 -0.5133  1.5749
27158SOL     OW93452  11.076   9.169   9.575  0.4234 -0.1690  0.1184
27158SOL    HW193453  11.096   9.124   9.493  0.7115  1.9428 -1.0542
27158SOL    HW293454  11.139   9.241   9.579 -1.3465  1.4449  0.7530
27159SOL     OW93455   4.240  11.836   0.016 -0.3111  0.3789 -0.4359
27159SOL    HW193456   4.328  11.802   0.000 -0.5136  0.8497 -2.9777
27159SOL    HW293457   4.252  11.930   0.029 -0.2618  0.1405  1.6317
27160SOL     OW93458  12.593   2.188  11.181 -0.4493  0.1570  0.0250
27160SOL    HW193459  12.671   2.136  11.201 -1.0440 -1.7299 -2.0228
27160SOL    HW293460  12.553   2.206  11.266  2.5178  1.8455  1.2214
27161SOL     OW93461  13.623   6.862   1.083  0.5730  0.3690 -0.1632
27161SOL    HW193462  13.545   6.807   1.089  1.4676 -0.7430  3.5367
27161SOL    HW293463  13.600   6.942   1.130  1.8986 -0.4335  1.9911
27162SOL     OW93464   9.358  10.014   9.962 -0.1337 -0.4010  0.2073
27162SOL    HW193465   9.282  10.003  10.020 -0.1512 -0.3159  0.2010
27162SOL    HW293466   9.414  10.077  10.008 -1.7222  2.4055 -1.3801
27163SOL     OW93467   1.332   3.258   3.765 -0.4773  0.4139 -0.1119
27163SOL    HW193468   1.322   3.274   3.859 -1.3502 -0.0713 -0.1031
27163SOL    HW293469   1.276   3.324   3.724  1.2454  1.7491 -0.3856
27164SOL     OW93470   7.499   1.895  11.001  0.3767 -0.2261 -0.0588
27164SOL    HW193471   7.472   1.844  11.078 -1.5036  2.5757  1.3049
27164SOL    HW293472   7.566   1.955  11.035 -0.1597  0.7473 -0.6889
27165SOL     OW93473   6.503   1.596   4.652 -0.6549  0.6873  0.0997
27165SOL    HW193474   6.594   1.577   4.631 -0.5916  0.6347  0.4219
27165SOL    HW293475   6.456   1.583   4.569 -0.5435 -0.4064  0.1905
27166SOL     OW93476  11.551  12.948   9.793 -0.2114  0.1173  0.2641
27166SOL    HW193477  11.622  13.012   9.792 -0.1137  0.0454 -1.3998
27166SOL    HW293478  11.543  12.921   9.884  1.0756  1.0314  0.6702
27167SOL     OW93479   9.114   8.224  13.929  0.1923 -0.1620 -0.3881
27167SOL    HW193480   9.177   8.274  13.877  0.8442 -1.0501 -0.4963
27167SOL    HW293481   9.044   8.202  13.868 -0.0978  0.5963 -0.3383
27168SOL     OW93482   9.065   2.786  11.617 -0.2449 -0.3511  0.0749
27168SOL    HW193483   8.997   2.845  11.586  0.9316  0.6284 -0.7421
27168SOL    HW293484   9.032   2.698  11.597 -0.9155  0.1350 -1.0672
27169SOL     OW93485   1.785   2.126   8.752 -0.3753  0.3119 -0.3085
27169SOL    HW193486   1.878   2.148   8.764 -0.1844 -0.2217 -0.7599
27169SOL    HW293487   1.787   2.037   8.716 -1.0887 -0.1383  0.7279
27170SOL     OW93488   5.885   7.865   9.433  0.7829 -0.2256  0.8212
27170SOL    HW193489   5.817   7.851   9.500 -0.5298  0.9897 -0.1934
27170SOL    HW293490   5.908   7.958   9.441  1.0740 -0.2239  0.0092
27171SOL     OW93491   3.396   6.456   7.853 -0.0978 -0.2665  0.1060
27171SOL    HW193492   3.444   6.456   7.936 -0.2500 -0.2162  0.1954
27171SOL    HW293493   3.335   6.530   7.861  1.6378  1.3724 -1.0918
27172SOL     OW93494   2.290   1.175   1.241 -0.6158 -0.3248  0.5088
27172SOL    HW193495   2.231   1.247   1.219 -0.2936 -0.2437 -0.1203
27172SOL    HW293496   2.358   1.216   1.295  0.0316  0.0408 -0.5414
27173SOL     OW93497  13.676  13.992   3.251  0.6459 -0.3425 -0.1728
27173SOL    HW193498  13.749  13.975   3.192  0.3841 -0.0801 -0.5778
27173SOL    HW293499  13.696  14.077   3.290  0.2942 -0.0204 -0.6894
27174SOL     OW93500   6.480   1.671   0.199 -0.0368  0.0156 -0.1551
27174SOL    HW193501   6.561   1.687   0.151 -0.8179  0.5054 -1.3408
27174SOL    HW293502   6.436   1.756   0.201  0.1445  0.1247  1.8254
27175SOL     OW93503   2.246   2.610   0.426 -1.1104 -0.0836  0.6156
27175SOL    HW193504   2.292   2.557   0.360 -1.9264 -0.3876  0.2665
27175SOL    HW293505   2.246   2.699   0.390 -4.4002 -0.7568 -1.5144
27176SOL     OW93506   6.948   0.417   2.175  0.1795 -0.3717  0.0832
27176SOL    HW193507   6.963   0.335   2.129  0.0841 -1.3558  1.7289
27176SOL    HW293508   6.855   0.416   2.198  0.7248 -1.1171  2.4518
27177SOL     OW93509  13.324   2.758  13.208 -0.5721  0.4197 -0.3052
27177SOL    HW193510  13.238   2.717  13.208 -0.9766  1.2491 -0.4677
27177SOL    HW293511  13.378   2.700  13.155 -0.6885 -0.7787  0.8188
27178SOL     OW93512   3.574   2.054  13.299  0.2789  0.3747  0.2593
27178SOL    HW193513   3.583   1.965  13.267 -0.2223  1.4445 -3.2640
27178SOL    HW293514   3.647   2.065  13.360  1.2121 -1.9733 -0.3319
27179SOL     OW93515   5.087   6.209   9.313 -0.3318 -0.0927 -0.2658
27179SOL    HW193516   5.084   6.194   9.407  2.4603  1.7131  0.2163
27179SOL    HW293517   4.997   6.230   9.289 -0.6393  2.4376  2.6085
27180SOL     OW93518   3.669   8.163   1.442 -0.0619 -0.5392 -0.2856
27180SOL    HW193519   3.615   8.131   1.369 -0.3483 -2.1808  0.5943
27180SOL    HW293520   3.727   8.089   1.463 -1.1966 -0.8064  2.2842
27181SOL     OW93521   1.834   2.764   3.955 -0.5790  0.1626  0.2015
27181SOL    HW193522   1.858   2.827   3.886 -2.4110 -0.5261 -1.1469
27181SOL    HW293523   1.784   2.697   3.910 -2.0187 -0.2344  2.2497
27182SOL     OW93524   5.707   7.402   9.304 -0.4994  0.0729 -0.6649
27182SOL    HW193525   5.664   7.383   9.387  1.3898  2.0139  0.9135
27182SOL    HW293526   5.640   7.445   9.251 -0.9169  1.9944  1.2670
27183SOL     OW93527   5.066  11.015   6.216 -0.1876  0.8364 -0.2840
27183SOL    HW193528   5.098  10.986   6.301  0.5615  0.1779 -0.7691
27183SOL    HW293529   5.082  11.109   6.216 -1.0949  1.0061  0.6671
27184SOL     OW93530  14.008   9.634  12.043 -0.0723  0.5369 -0.0734
27184SOL    HW193531  13.924   9.659  12.082  0.1820  1.6656 -0.1990
27184SOL    HW293532  14.066   9.618  12.117  0.1720  1.8329  0.0401
27185SOL     OW93533   1.627   3.428   3.349 -0.0980  0.8639  0.2527
27185SOL    HW193534   1.605   3.337   3.330  2.6946  0.3700 -1.1978
27185SOL    HW293535   1.557   3.459   3.406 -2.4167 -1.4289 -1.1672
27186SOL     OW93536   9.009   8.876  12.037 -0.1581 -0.4843 -0.1552
27186SOL    HW193537   8.967   8.869  11.951 -1.4101 -1.9124  0.5250
27186SOL    HW293538   9.100   8.852  12.021 -0.4623 -1.1195 -1.0257
27187SOL     OW93539   7.791   3.395   6.954  0.4851  0.1720  0.3490
27187SOL    HW193540   7.827   3.313   6.987 -0.7622 -0.1745  0.9179
27187SOL    HW293541   7.702   3.373   6.926  1.1238  0.6557 -2.4299
27188SOL     OW93542   9.922  14.044  11.542  0.6104  0.1621 -0.3009
27188SOL    HW193543   9.922  14.019  11.635  1.9547  0.4118 -0.2100
27188SOL    HW293544   9.833  14.027  11.512  0.4855 -1.1202  0.7243
27189SOL     OW93545   4.876   9.231   0.480 -0.1330 -0.0227 -0.1503
27189SOL    HW193546   4.883   9.327   0.479  0.7894 -0.0526  0.9757
27189SOL    HW293547   4.914   9.204   0.396 -0.2040  0.5891 -0.3889
27190SOL     OW93548  10.777   0.190  13.426 -0.6613 -0.0963  0.0207
27190SOL    HW193549  10.687   0.223  13.430 -0.9391 -0.6780 -1.0316
27190SOL    HW293550  10.773   0.102  13.465 -0.6453 -0.3099 -0.4555
27191SOL     OW93551   3.771   2.642   7.555 -0.2452 -0.5132 -0.5196
27191SOL    HW193552   3.719   2.702   7.502 -1.1788 -0.3346  0.5556
27191SOL    HW293553   3.730   2.557   7.543 -1.1340 -0.2839  0.7224
27192SOL     OW93554   4.092   8.936   6.884 -0.0028  0.2444  0.0856
27192SOL    HW193555   4.187   8.947   6.886  0.0569 -0.3881  1.7600
27192SOL    HW293556   4.059   9.001   6.945 -0.6775  0.5229 -0.5569
27193SOL     OW93557   1.846   8.067  10.820  0.3085  0.3521 -0.0089
27193SOL    HW193558   1.767   8.097  10.774 -0.2004  0.3542  0.8412
27193SOL    HW293559   1.904   8.035  10.751 -1.6190 -2.5004 -0.4919
27194SOL     OW93560   4.466   2.616  12.748 -0.7928 -0.0935 -0.5406
27194SOL    HW193561   4.489   2.548  12.685  0.3393 -0.3688  0.1517
27194SOL    HW293562   4.501   2.585  12.832 -0.3003  1.3084 -0.2023
27195SOL     OW93563   9.746   4.792   9.902 -0.0728 -0.3215 -0.1214
27195SOL    HW193564   9.761   4.727   9.834 -0.7272  0.0793 -0.6702
27195SOL    HW293565   9.771   4.749   9.983  2.1464 -0.3200 -0.7427
27196SOL     OW93566   6.375  14.009  10.552  0.9222 -0.2055 -0.2185
27196SOL    HW193567   6.334  13.929  10.585  0.7489 -0.5359 -1.2037
27196SOL    HW293568   6.306  14.075  10.560  1.1466 -0.0774  0.8372
27197SOL     OW93569  11.817  11.267   8.580 -0.5314 -0.3720 -0.5129
27197SOL    HW193570  11.789  11.358   8.575 -0.4310 -0.3463 -0.6242
27197SOL    HW293571  11.877  11.256   8.506  0.5872 -0.1466  0.3339
27198SOL     OW93572   2.233   0.985   2.610  0.3273 -0.2461  0.2424
27198SOL    HW193573   2.199   1.023   2.529  0.7721 -3.1259 -1.4375
27198SOL    HW293574   2.158   0.939   2.648  0.9592 -2.0343 -0.5842
27199SOL     OW93575   7.249   7.982  13.668 -0.0693 -0.7254 -0.5968
27199SOL    HW193576   7.262   8.010  13.578 -0.9746  1.2191 -0.1780
27199SOL    HW293577   7.251   8.063  13.719  0.8847 -1.8195  1.2060
27200SOL     OW93578   9.936   1.918   9.117  0.2755 -0.4021  0.2409
27200SOL    HW193579   9.958   1.830   9.150 -1.6145 -1.4328 -1.0944
27200SOL    HW293580   9.847   1.910   9.085  0.2857  1.8756 -0.5036
27201SOL     OW93581   4.863   2.658   2.884  0.3172 -0.1312 -0.2243
27201SOL    HW193582   4.860   2.752   2.866  1.1730  0.0440  0.4977
27201SOL    HW293583   4.788   2.622   2.836  1.2392  0.5959 -2.3415
27202SOL     OW93584   0.865   6.850   5.647  0.3049  0.7509 -0.6352
27202SOL    HW193585   0.897   6.928   5.691 -0.4205  0.8928 -0.3467
27202SOL    HW293586   0.863   6.873   5.554 -1.1820  1.5463 -0.4273
27203SOL     OW93587   1.987   7.783  13.714  0.4792 -0.2840  0.1463
27203SOL    HW193588   2.006   7.768  13.621 -1.3069 -1.0444 -0.1330
27203SOL    HW293589   1.960   7.697  13.746 -2.3514  0.6359  0.4735
27204SOL     OW93590   9.016   8.182   7.686  0.7617  0.0579 -0.5794
27204SOL    HW193591   9.020   8.181   7.591 -0.5210 -0.5993 -0.6492
27204SOL    HW293592   9.000   8.091   7.710  0.2059  0.3578  0.2193
27205SOL     OW93593   4.434   1.978   1.103  0.5291  0.6232  0.2922
27205SOL    HW193594   4.359   1.995   1.046  0.8822  0.9905 -0.0690
27205SOL    HW293595   4.431   2.047   1.169 -0.2361 -0.1586  1.1014
27206SOL     OW93596   9.205   2.964   2.641 -0.0592  0.1985  0.0849
27206SOL    HW193597   9.290   2.922   2.648 -0.4976 -0.7772 -0.1759
27206SOL    HW293598   9.165   2.925   2.563 -0.0440  1.9567 -0.8631
27207SOL     OW93599   8.180   6.245   6.577 -0.3168  0.0681 -0.1186
27207SOL    HW193600   8.228   6.274   6.655 -1.0879  1.0190  0.0206
27207SOL    HW293601   8.242   6.257   6.505 -0.8299  3.0306 -0.2174
27208SOL     OW93602   7.641   9.236  13.994 -0.2137 -0.9321 -0.3672
27208SOL    HW193603   7.607   9.148  13.980  1.2472 -1.9889  2.0467
27208SOL    HW293604   7.570   9.294  13.967 -1.0443 -2.7905 -2.4542
27209SOL     OW93605   0.376   5.878   2.549 -0.7055 -0.1226 -0.1445
27209SOL    HW193606   0.442   5.910   2.488  1.9318 -0.3765  2.3424
27209SOL    HW293607   0.380   5.782   2.540 -0.2450 -0.1640  0.4512
27210SOL     OW93608   8.794  13.537   2.769  0.1601 -0.1404 -0.5215
27210SOL    HW193609   8.838  13.466   2.816 -0.9696 -0.4594  0.0713
27210SOL    HW293610   8.742  13.492   2.702  0.2191  0.1955 -0.7956
27211SOL     OW93611   6.475   2.721   9.127  0.1515 -0.1095  0.2008
27211SOL    HW193612   6.504   2.675   9.048 -0.1390 -2.1765  1.2206
27211SOL    HW293613   6.387   2.686   9.143 -0.0780  0.8199  1.0458
27212SOL     OW93614  10.788   7.407   0.477  0.1877  0.3891 -0.2368
27212SOL    HW193615  10.864   7.349   0.484  0.3121  0.3961 -1.3828
27212SOL    HW293616  10.798   7.450   0.392 -0.3016  1.5326  0.2596
27213SOL     OW93617  12.270  11.338   8.224 -0.2995 -1.2439  0.1789
27213SOL    HW193618  12.225  11.292   8.153 -0.5752 -1.4098  0.4660
27213SOL    HW293619  12.331  11.397   8.178 -2.4261  0.7236 -0.3227
27214SOL     OW93620  11.537  12.221   7.651  0.2363  0.5462 -0.1277
27214SOL    HW193621  11.579  12.294   7.605  1.8752 -0.0358  0.3997
27214SOL    HW293622  11.597  12.148   7.642 -0.6187 -0.3014  0.7480
27215SOL     OW93623  12.960  11.418   2.830  0.0916  0.5357 -0.0652
27215SOL    HW193624  12.959  11.395   2.923  0.5349 -0.8271 -0.3719
27215SOL    HW293625  12.923  11.341   2.787  2.0763  0.1610 -1.1936
27216SOL     OW93626   6.624  13.947   6.966  0.3318 -0.7325 -0.3817
27216SOL    HW193627   6.600  13.926   7.056 -0.4149 -2.4003 -0.9387
27216SOL    HW293628   6.710  13.906   6.954 -0.5984 -2.5843 -1.1028
27217SOL     OW93629  12.182   0.059   4.789  0.1058 -0.5401 -0.3074
27217SOL    HW193630  12.208   0.060   4.697  1.2517 -0.0533  0.0041
27217SOL    HW293631  12.265   0.069   4.837 -0.2799 -2.3391  0.8125
27218SOL     OW93632   5.474  11.996  12.529  0.2692 -0.4480  0.1658
27218SOL    HW193633   5.467  12.080  12.572 -1.1585 -1.2767  1.6475
27218SOL    HW293634   5.485  12.017  12.436 -3.5624  1.4597 -0.0687
27219SOL     OW93635  10.712   6.734   5.079 -0.1096  0.2916 -0.1814
27219SOL    HW193636  10.623   6.725   5.046  0.6402 -0.7007 -2.0859
27219SOL    HW293637  10.747   6.811   5.035  0.4031 -0.1247 -0.5172
27220SOL     OW93638  11.676  13.509  11.003  0.6195 -0.0077  0.2489
27220SOL    HW193639  11.657  13.482  11.092  1.0435 -1.2629 -0.0192
27220SOL    HW293640  11.707  13.600  11.011 -0.3935  0.2707  1.2387
27221SOL     OW93641   6.422   6.407   2.509  0.1395  0.1957  0.1556
27221SOL    HW193642   6.453   6.416   2.419 -0.7709 -1.1285 -0.3305
27221SOL    HW293643   6.332   6.375   2.500  0.4386 -1.1559  1.5184
27222SOL     OW93644   5.156  10.890   2.092 -0.2855  0.2260 -0.5640
27222SOL    HW193645   5.131  10.803   2.061  0.9596  0.7908 -3.5343
27222SOL    HW293646   5.077  10.923   2.135 -0.9767 -2.1116  0.1401
27223SOL     OW93647  10.226  11.540  10.184 -0.3386 -0.6262  0.4163
27223SOL    HW193648  10.178  11.621  10.166 -0.0337 -0.6026 -0.3066
27223SOL    HW293649  10.234  11.497  10.099  0.6427 -0.7842  0.5729
27224SOL     OW93650   5.907   7.270   1.242 -0.6881  0.1608 -0.2852
27224SOL    HW193651   5.986   7.253   1.293 -0.6170 -0.4793 -0.5954
27224SOL    HW293652   5.848   7.314   1.302 -0.0741  0.6924 -0.0623
27225SOL     OW93653   9.829  10.583  10.700 -0.7209 -0.0848  0.0026
27225SOL    HW193654   9.847  10.584  10.794  1.1969 -0.9576 -0.3158
27225SOL    HW293655   9.890  10.647  10.663 -2.0230  0.8681 -0.6037
27226SOL     OW93656  10.949   4.704   7.631  0.0131 -0.3805  0.5218
27226SOL    HW193657  10.907   4.620   7.612  1.1539 -0.5949 -1.3206
27226SOL    HW293658  11.000   4.688   7.710 -1.4826 -0.7625  1.4603
27227SOL     OW93659   3.898   3.647   1.240 -0.1750  0.4357 -0.3273
27227SOL    HW193660   3.868   3.670   1.328 -0.0508 -0.5561 -0.0186
27227SOL    HW293661   3.925   3.731   1.202 -1.6108  1.0947  0.0311
27228SOL     OW93662   3.733  11.369   1.573 -0.1964  0.3370 -0.2914
27228SOL    HW193663   3.716  11.283   1.612  1.2175  1.2156  2.5680
27228SOL    HW293664   3.708  11.431   1.642 -2.8778  2.4166 -2.8847
27229SOL     OW93665  13.555  11.010   9.631 -0.3473 -0.3659 -0.3700
27229SOL    HW193666  13.608  10.939   9.595  0.4125 -0.1737  0.3504
27229SOL    HW293667  13.617  11.080   9.650 -0.7366 -0.3977  1.1487
27230SOL     OW93668   8.516   0.865  12.730 -0.1447 -0.5352  0.0829
27230SOL    HW193669   8.532   0.828  12.817 -0.4749  1.5762  1.0860
27230SOL    HW293670   8.592   0.920  12.712  0.2072 -1.3945 -1.2709
27231SOL     OW93671   8.312  11.262  10.077 -0.0287  0.3995  0.0367
27231SOL    HW193672   8.349  11.218  10.153 -0.9062 -1.9053 -0.7867
27231SOL    HW293673   8.219  11.271  10.097 -0.5953 -1.7506 -1.3635
27232SOL     OW93674   1.808   5.568  11.650  0.6406  1.0142  0.2613
27232SOL    HW193675   1.806   5.473  11.647 -0.7001  1.0222  0.4829
27232SOL    HW293676   1.822   5.595  11.559  0.1726  0.6161  0.0700
27233SOL     OW93677   2.936  10.393  11.882  0.0895  0.1877  0.2191
27233SOL    HW193678   2.956  10.354  11.967  1.8986  2.6404  1.0261
27233SOL    HW293679   2.898  10.321  11.831  1.8524 -2.2010  2.0360
27234SOL     OW93680  12.311   8.156  11.190 -0.3989  0.1835  0.2659
27234SOL    HW193681  12.233   8.117  11.229 -0.4350  0.2181  0.2292
27234SOL    HW293682  12.378   8.151  11.259 -0.6075  0.7162  0.5185
27235SOL     OW93683  10.521  11.685  12.986 -0.2810 -0.0941 -0.1913
27235SOL    HW193684  10.472  11.686  13.069 -0.3112 -1.4049 -0.1709
27235SOL    HW293685  10.610  11.711  13.011  0.1606 -2.1813  0.6015
27236SOL     OW93686   0.773   5.365   8.374 -0.3011 -0.5430  0.5576
27236SOL    HW193687   0.820   5.330   8.298  0.0253  1.1978 -0.0794
27236SOL    HW293688   0.683   5.377   8.343  0.1925  1.7383 -0.1311
27237SOL     OW93689  12.944  12.646   2.178  0.1509 -0.2944 -0.9608
27237SOL    HW193690  12.902  12.730   2.157  0.7418  0.2041 -0.1868
27237SOL    HW293691  12.968  12.653   2.270  1.9336 -0.5660 -1.3711
27238SOL     OW93692   6.874   4.635   3.998  0.1090  0.5314  0.5320
27238SOL    HW193693   6.796   4.691   3.990  0.5055  0.9946 -0.2050
27238SOL    HW293694   6.849   4.555   3.951 -0.3693  0.1642  1.3789
27239SOL     OW93695  12.446   5.274  13.903  0.6067  0.9843 -0.2056
27239SOL    HW193696  12.519   5.296  13.961 -0.9183  0.2618  2.0861
27239SOL    HW293697  12.445   5.179  13.901 -1.0966  0.9348  0.9724
27240SOL     OW93698   7.573  11.340   6.354 -0.0207  0.6044  0.3324
27240SOL    HW193699   7.592  11.304   6.268 -1.3539  1.5360 -0.3836
27240SOL    HW293700   7.636  11.411   6.365  1.6077 -0.8832  1.1056
27241SOL     OW93701   8.761   8.619   9.931  0.0876  0.2161  0.5074
27241SOL    HW193702   8.772   8.550   9.996  1.5345  1.3386  1.5331
27241SOL    HW293703   8.667   8.624   9.917 -0.1284 -1.1503  1.2991
27242SOL     OW93704   7.597  13.123   4.353  0.5640 -0.3342 -0.3375
27242SOL    HW193705   7.646  13.044   4.375  1.1623  0.0709 -0.2026
27242SOL    HW293706   7.612  13.136   4.260  0.5716 -0.3016 -0.3317
27243SOL     OW93707   3.834  10.186   9.835 -0.0268 -0.5361 -0.0748
27243SOL    HW193708   3.869  10.106   9.875 -2.1759 -2.5089 -1.8090
27243SOL    HW293709   3.903  10.217   9.777  1.0197 -0.8727  0.9693
27244SOL     OW93710   2.738   5.360   9.096  0.2107 -0.3810 -1.0246
27244SOL    HW193711   2.674   5.333   9.162  0.6861  2.0023  0.5226
27244SOL    HW293712   2.686   5.389   9.022 -0.4883  0.4536 -0.2271
27245SOL     OW93713   0.144  10.019   7.440  0.7497  0.2088 -0.3365
27245SOL    HW193714   0.099  10.077   7.500  0.5127 -0.5628  0.2396
27245SOL    HW293715   0.237  10.038   7.453  0.8307 -1.2637  1.6859
27246SOL     OW93716  12.132   7.179   3.403 -0.1380  0.2879  0.0069
27246SOL    HW193717  12.121   7.190   3.308  3.0932 -1.2079 -0.6966
27246SOL    HW293718  12.147   7.268   3.436  1.2381  0.6179 -1.3650
27247SOL     OW93719   9.522  11.742   5.048  0.4812 -0.5674 -0.2364
27247SOL    HW193720   9.428  11.732   5.063  0.6036 -1.2485  0.1000
27247SOL    HW293721   9.543  11.678   4.980  1.0377 -1.7996  1.0275
27248SOL     OW93722   6.216   2.043   8.487 -0.1320 -0.4404  0.5546
27248SOL    HW193723   6.202   1.958   8.445 -2.1841  0.5904 -1.0330
27248SOL    HW293724   6.304   2.069   8.459  0.0862 -1.5610  0.1426
27249SOL     OW93725   5.870   9.290  13.142  0.4043  0.1854  0.1530
27249SOL    HW193726   5.888   9.362  13.203  1.2431 -1.1976  1.6020
27249SOL    HW293727   5.851   9.215  13.198  0.3100 -0.9203 -1.3089
27250SOL     OW93728  13.398   8.117  13.557  0.2616  0.2079 -0.2886
27250SOL    HW193729  13.436   8.116  13.469 -0.6941 -2.5318 -0.7668
27250SOL    HW293730  13.473   8.123  13.616  0.9707  1.2344 -1.2636
27251SOL     OW93731  13.810   3.883   2.587 -0.3006  0.1325  0.3405
27251SOL    HW193732  13.865   3.823   2.637  0.0917  1.3590  1.4408
27251SOL    HW293733  13.865   3.912   2.514  0.0398  0.3006  0.6628
27252SOL     OW93734   8.625  13.747   0.606  0.4952  0.2470  0.1013
27252SOL    HW193735   8.533  13.731   0.582 -0.2222  2.7379  0.8439
27252SOL    HW293736   8.651  13.822   0.553  1.4405  0.8149  1.3145
27253SOL     OW93737   9.239   5.696   6.122 -0.0659  0.2334  0.4112
27253SOL    HW193738   9.307   5.646   6.077 -0.5870  0.6554 -0.9146
27253SOL    HW293739   9.158   5.673   6.075 -0.8154 -0.0937  1.8119
27254SOL     OW93740   8.935   4.941   2.443  0.3724 -0.2834 -0.3647
27254SOL    HW193741   8.906   4.919   2.354 -0.0152 -0.3487 -0.2260
27254SOL    HW293742   8.946   4.856   2.486  0.3797 -0.2467 -0.2950
27255SOL     OW93743  10.699   6.079   2.834  0.0537  0.1204 -0.2919
27255SOL    HW193744  10.732   6.027   2.908  0.4046 -0.0477 -0.5646
27255SOL    HW293745  10.608   6.098   2.857  0.2928  0.4655  0.4073
27256SOL     OW93746   5.500  11.478  10.264 -0.2482  0.3333 -0.9434
27256SOL    HW193747   5.407  11.463  10.280 -0.5335  0.0922 -2.6144
27256SOL    HW293748   5.515  11.568  10.292 -0.6203 -0.0699  0.6838
27257SOL     OW93749   4.731  12.712   0.781 -0.3217 -0.3065  0.4480
27257SOL    HW193750   4.676  12.682   0.709  1.7432  1.7687 -2.1820
27257SOL    HW293751   4.787  12.637   0.801  0.0151 -0.5142 -1.1278
27258SOL     OW93752   3.951   3.544   9.785 -0.3063  0.3569  0.0250
27258SOL    HW193753   4.012   3.584   9.723  1.0387 -0.9613  0.4194
27258SOL    HW293754   3.981   3.453   9.792 -1.7593 -0.0876  0.9712
27259SOL     OW93755  10.813   3.469  13.725 -0.1311  0.2739 -0.1464
27259SOL    HW193756  10.759   3.412  13.671 -0.0703  0.0009  0.0804
27259SOL    HW293757  10.833   3.544  13.669 -0.2105  0.0720 -0.4427
27260SOL     OW93758   2.092   3.165  13.004  0.1387 -0.4585  0.6870
27260SOL    HW193759   2.087   3.070  13.014  0.5714 -0.6933 -1.0409
27260SOL    HW293760   2.179   3.182  12.969  0.0620  0.5806  0.9526
27261SOL     OW93761   5.249   1.275   3.057  0.6478  0.4385 -0.4796
27261SOL    HW193762   5.161   1.286   3.022  1.1408  1.0406 -1.5772
27261SOL    HW293763   5.305   1.323   2.997  1.6289  0.8597  0.7303
27262SOL     OW93764   0.613  10.056  11.758  0.4268 -0.4184 -0.0697
27262SOL    HW193765   0.597   9.979  11.812 -0.2245 -0.3316 -0.1347
27262SOL    HW293766   0.697  10.090  11.789 -0.0333 -0.2516  1.0423
27263SOL     OW93767   9.686   8.082  10.224  0.3433 -0.5559  0.2887
27263SOL    HW193768   9.634   8.056  10.299 -0.5258  0.5822  0.1080
27263SOL    HW293769   9.626   8.133  10.169  1.3795 -0.0255 -0.3905
27264SOL     OW93770  12.002   7.051  11.025 -0.3416  0.0261 -0.1415
27264SOL    HW193771  11.944   7.098  11.085  0.8649  0.8598  0.4260
27264SOL    HW293772  11.951   6.976  10.996 -2.0004  1.1741 -0.3339
27265SOL     OW93773  11.820   4.331   0.303  0.0696 -0.0949 -0.1506
27265SOL    HW193774  11.817   4.424   0.326  0.4229 -0.3052  0.7882
27265SOL    HW293775  11.867   4.290   0.376  2.2348 -0.6472 -1.7603
27266SOL     OW93776   6.498   4.309   6.695 -0.1801  0.5720  0.1983
27266SOL    HW193777   6.469   4.231   6.649 -2.5442  0.9730  0.8402
27266SOL    HW293778   6.565   4.278   6.756 -0.1211 -0.6981 -0.4784
27267SOL     OW93779   2.520   5.722  11.776 -0.3223 -0.2486 -0.0409
27267SOL    HW193780   2.517   5.629  11.798  0.7674 -0.4143 -0.5246
27267SOL    HW293781   2.495   5.725  11.683  0.1044 -0.1166 -0.1533
27268SOL     OW93782   4.637   9.094  11.476  0.4870 -0.1668  0.0508
27268SOL    HW193783   4.672   9.028  11.535 -0.2337 -0.2287  0.4160
27268SOL    HW293784   4.599   9.044  11.404 -0.7645 -0.1947  0.7140
27269SOL     OW93785   6.148  12.202   9.426  0.2174  0.2597  0.4869
27269SOL    HW193786   6.150  12.239   9.338  2.1594  1.7893  1.1130
27269SOL    HW293787   6.189  12.116   9.417 -2.8244 -1.2128 -0.6737
27270SOL     OW93788   4.786   6.611   7.069 -0.2206 -0.1256 -0.2126
27270SOL    HW193789   4.837   6.646   7.141  0.3287 -0.8882 -0.2180
27270SOL    HW293790   4.849   6.595   6.999 -0.4456 -1.1039 -0.2091
27271SOL     OW93791   8.369   3.265  13.414 -0.0208  0.1122  0.3681
27271SOL    HW193792   8.292   3.218  13.444 -0.4202  0.7478  0.3549
27271SOL    HW293793   8.341   3.309  13.333  0.0650  1.1044  0.8586
27272SOL     OW93794  13.212  14.034   2.450 -0.6556  0.3309 -0.2323
27272SOL    HW193795  13.253  14.120   2.435 -1.6436  0.8244 -0.2130
27272SOL    HW293796  13.285  13.974   2.459  0.0574  1.1365 -0.4903
27273SOL     OW93797  12.886   2.832   7.772  0.3697 -0.1975  0.5978
27273SOL    HW193798  12.794   2.843   7.794  0.4876  1.3242  0.4363
27273SOL    HW293799  12.890   2.845   7.677  0.5317 -1.9638  0.3311
27274SOL     OW93800   5.135   2.626   4.768 -0.1736 -0.2531 -0.3515
27274SOL    HW193801   5.069   2.610   4.701 -1.9435 -0.9449  1.4382
27274SOL    HW293802   5.136   2.721   4.779 -0.2453 -0.1765 -0.9971
27275SOL     OW93803   9.852   5.826   3.369  0.7476  0.0125  0.3119
27275SOL    HW193804   9.836   5.860   3.457  2.3731 -0.3859  0.8128
27275SOL    HW293805   9.816   5.892   3.310  0.6416  0.8406  1.2784
27276SOL     OW93806   3.755  10.663  14.018  0.0541  0.0269 -0.7771
27276SOL    HW193807   3.694  10.602  13.977 -0.8198  0.5787 -0.3151
27276SOL    HW293808   3.836  10.654  13.967 -0.5498 -0.3814 -1.6828
27277SOL     OW93809   0.033   9.692   1.024  0.2497 -0.3212 -0.3127
27277SOL    HW193810  -0.053   9.709   1.062 -0.3679  0.1094 -1.8404
27277SOL    HW293811   0.022   9.610   0.975  0.5884 -0.0576 -0.8389
27278SOL     OW93812   5.759   5.414   9.001  0.3130  0.0562 -0.2384
27278SOL    HW193813   5.731   5.322   8.996  0.8813 -0.0944 -0.7951
27278SOL    HW293814   5.788   5.425   9.092 -1.2486  0.1390  0.2756
27279SOL     OW93815   4.413   4.629   7.666 -0.3221  0.2587  0.4820
27279SOL    HW193816   4.422   4.535   7.682  2.0205  0.5588  1.3254
27279SOL    HW293817   4.448   4.643   7.578 -1.4491  0.2770  0.0107
27280SOL     OW93818   3.130  10.333   9.138 -0.1895  0.5330 -0.1385
27280SOL    HW193819   3.036  10.319   9.130 -0.1450  0.6048 -0.8276
27280SOL    HW293820   3.169  10.246   9.128 -0.1118  0.6708 -1.1783
27281SOL     OW93821  12.201   7.937   2.432  0.1312 -0.4338  0.2098
27281SOL    HW193822  12.131   7.946   2.497  0.6191 -1.9779  0.9902
27281SOL    HW293823  12.275   7.902   2.482  0.8833 -0.5439 -0.9638
27282SOL     OW93824   6.689   6.932   1.381  0.1747  0.2172 -0.1523
27282SOL    HW193825   6.611   6.887   1.412  1.1469 -0.7843  0.9412
27282SOL    HW293826   6.713   6.886   1.301 -0.0839  0.2252 -0.2349
27283SOL     OW93827   2.459   5.363  11.056  0.2175  0.0968  0.4620
27283SOL    HW193828   2.386   5.416  11.024  0.4887 -0.3704 -1.0033
27283SOL    HW293829   2.529   5.380  10.994  0.8870 -0.5948  1.0185
27284SOL     OW93830   1.732   4.700  13.959  0.0954  0.0668  0.7000
27284SOL    HW193831   1.806   4.688  13.899 -0.2767 -0.6767  0.3724
27284SOL    HW293832   1.763   4.665  14.043 -0.0004 -0.5739  0.4734
27285SOL     OW93833   8.556   5.337   0.431 -0.2155  0.2268  0.4442
27285SOL    HW193834   8.472   5.307   0.464  0.8308 -1.1500  1.9862
27285SOL    HW293835   8.616   5.330   0.505  1.1098  1.9350 -0.3829
27286SOL     OW93836  12.720   5.096   4.832  0.9092 -0.2040 -0.2133
27286SOL    HW193837  12.777   5.036   4.784  1.5921  2.0734 -2.5331
27286SOL    HW293838  12.637   5.048   4.841  1.4318 -1.5448 -1.9002
27287SOL     OW93839  10.964   1.263   6.271  0.4386 -0.7733  0.5055
27287SOL    HW193840  10.942   1.193   6.210 -0.2829  1.3676 -1.8453
27287SOL    HW293841  11.059   1.266   6.272  0.4694 -0.2567 -1.3106
27288SOL     OW93842   9.295  11.087   8.893 -0.6634 -0.1241  0.7423
27288SOL    HW193843   9.384  11.120   8.906 -0.8655 -0.3487  3.1396
27288SOL    HW293844   9.239  11.160   8.919 -1.1569 -0.6469  1.1646
27289SOL     OW93845   0.573   5.425   0.385 -0.0210 -0.3541  0.3848
27289SOL    HW193846   0.498   5.376   0.420 -0.0601  1.1370  2.5935
27289SOL    HW293847   0.649   5.378   0.418 -0.0542  0.3288  1.4974
27290SOL     OW93848  12.426  10.140   4.375  0.2063  0.2785 -0.1281
27290SOL    HW193849  12.436  10.216   4.317  1.3441  0.5997  0.4451
27290SOL    HW293850  12.501  10.146   4.435 -1.4442  0.5245  2.0394
27291SOL     OW93851  10.792  11.963   4.456 -0.0153  0.0087 -0.5262
27291SOL    HW193852  10.712  11.969   4.508  0.2856  1.4670 -0.1826
27291SOL    HW293853  10.859  11.934   4.518 -0.3028 -1.5206 -0.8821
27292SOL     OW93854  11.554   0.120   7.132  0.0548 -0.1584 -0.7846
27292SOL    HW193855  11.478   0.064   7.114 -1.0130  1.2630 -0.8084
27292SOL    HW293856  11.519   0.193   7.182  1.6831 -0.1961  0.4879
27293SOL     OW93857  11.710  10.393   4.289 -0.4496 -0.2862 -0.3212
27293SOL    HW193858  11.769  10.349   4.227 -1.1486  0.3669 -1.4746
27293SOL    HW293859  11.680  10.323   4.347  2.5989 -0.4133  1.2975
27294SOL     OW93860  10.946  12.340   1.629  0.0427  0.0079  0.2598
27294SOL    HW193861  11.034  12.373   1.613 -1.3518  2.5190 -3.5867
27294SOL    HW293862  10.906  12.405   1.687 -0.6166  1.5272 -1.8092
27295SOL     OW93863  12.811   9.166   3.409  0.0937 -0.2858  0.3887
27295SOL    HW193864  12.838   9.074   3.417  0.5204 -0.0407  2.1933
27295SOL    HW293865  12.749   9.180   3.481  0.5381  1.0042  0.5502
27296SOL     OW93866   4.017   9.545   5.990  0.0236 -0.1836 -0.3545
27296SOL    HW193867   4.056   9.464   6.023 -2.3996 -1.2126  0.2291
27296SOL    HW293868   4.008   9.601   6.066  0.2598  0.0118 -0.4686
27297SOL     OW93869   8.045  12.401  11.001  0.2437  0.0327 -0.4812
27297SOL    HW193870   8.132  12.362  11.016  0.2745  0.5318  0.6986
27297SOL    HW293871   8.028  12.384  10.908  1.7892  0.2982 -0.8486
27298SOL     OW93872   8.733   4.142  13.407  0.7544  0.4453 -0.4558
27298SOL    HW193873   8.689   4.090  13.340 -2.5056  1.7944  0.4247
27298SOL    HW293874   8.754   4.079  13.476  1.3094 -0.4416 -1.4007
27299SOL     OW93875   6.600   4.525  12.196 -0.5705 -0.0854  0.0256
27299SOL    HW193876   6.629   4.586  12.264 -1.1254  0.7508 -0.4731
27299SOL    HW293877   6.508   4.546  12.182 -0.1204  0.7862 -2.0037
27300SOL     OW93878  11.862   3.738   1.406 -0.3085 -0.3101  0.8234
27300SOL    HW193879  11.801   3.716   1.335  0.0310 -1.1362  0.7710
27300SOL    HW293880  11.840   3.828   1.430  1.0464  0.8725 -1.8926
27301SOL     OW93881   0.901   9.150  11.345 -0.4991 -0.8106  0.4248
27301SOL    HW193882   0.868   9.240  11.342 -0.7429 -0.9340 -1.8535
27301SOL    HW293883   0.954   9.147  11.425  0.0337  1.5286  0.2259
27302SOL     OW93884  11.082   2.572   9.157 -0.0205  0.5049 -0.1510
27302SOL    HW193885  11.017   2.514   9.117  0.5409  0.7871 -1.5204
27302SOL    HW293886  11.048   2.660   9.142  0.6236  0.6521 -0.8276
27303SOL     OW93887   6.496   0.800   2.597 -0.2980 -0.2163 -0.1970
27303SOL    HW193888   6.589   0.792   2.578 -0.1609  0.8402 -0.0174
27303SOL    HW293889   6.463   0.860   2.530 -0.1173  2.3238  1.8356
27304SOL     OW93890   2.774   5.678   5.511 -0.0711 -0.3842  0.4313
27304SOL    HW193891   2.681   5.699   5.503  0.3312  1.3403 -0.1243
27304SOL    HW293892   2.802   5.723   5.591  0.5850  0.3209 -0.1854
27305SOL     OW93893   2.003   3.916   7.432  0.3343  0.3133 -0.2777
27305SOL    HW193894   1.944   3.914   7.357 -0.4621 -1.7473  0.3226
27305SOL    HW293895   1.947   3.897   7.507  1.6002 -1.0242  0.3926
27306SOL     OW93896  14.009  12.871   1.707  0.0326  0.1564 -0.6609
27306SOL    HW193897  14.047  12.785   1.728 -0.9374 -0.5639 -1.7594
27306SOL    HW293898  14.085  12.929   1.703  0.6246 -0.4057  1.0543
27307SOL     OW93899   6.326   5.750   5.916 -0.2855  0.1730 -0.4343
27307SOL    HW193900   6.341   5.735   6.010  1.0332  0.8816 -0.5043
27307SOL    HW293901   6.326   5.662   5.878  2.7762 -0.0453 -0.2192
27308SOL     OW93902   7.147   3.316  10.108  0.0763 -0.0829  0.6439
27308SOL    HW193903   7.070   3.321  10.164 -0.2401 -0.0998  0.2116
27308SOL    HW293904   7.209   3.263  10.157 -0.2282 -0.1659  0.9417
27309SOL     OW93905  10.275   5.504   6.513 -0.0691  0.1226 -0.1500
27309SOL    HW193906  10.219   5.532   6.440 -1.2573  0.5708  0.9046
27309SOL    HW293907  10.292   5.585   6.562 -1.1070 -0.4787  1.2786
27310SOL     OW93908   6.942   9.599   5.944  0.0562 -1.0614  0.2378
27310SOL    HW193909   6.955   9.582   6.037 -0.9076  2.5783  1.2177
27310SOL    HW293910   6.847   9.597   5.932 -0.0736  1.6519  0.1940
27311SOL     OW93911  13.506  12.659   2.163  0.3391 -0.0289  0.2980
27311SOL    HW193912  13.429  12.686   2.213  0.4188  0.4390  0.1708
27311SOL    HW293913  13.569  12.730   2.173  1.1277 -0.8187  1.1786
27312SOL     OW93914  10.943   6.251  10.279 -0.4942 -0.1186  0.5299
27312SOL    HW193915  10.859   6.232  10.236 -0.9802  2.4396  0.1889
27312SOL    HW293916  10.918   6.300  10.358  0.6685  0.2164  0.7028
27313SOL     OW93917   0.287   0.679  11.858 -0.2245 -0.2840 -0.0104
27313SOL    HW193918   0.250   0.653  11.942 -0.2382  0.9271  0.3790
27313SOL    HW293919   0.211   0.684  11.799 -0.3236 -0.3541  0.1104
27314SOL     OW93920   3.363   1.786  13.494  0.1707  0.3934 -0.5190
27314SOL    HW193921   3.416   1.806  13.572  0.6621 -0.6886 -0.5513
27314SOL    HW293922   3.309   1.712  13.521 -0.5138  0.7684 -0.8507
27315SOL     OW93923  10.875   2.427   8.990 -0.0171  0.5422 -0.0025
27315SOL    HW193924  10.800   2.440   8.933  0.0448 -0.8057 -0.4412
27315SOL    HW293925  10.838   2.420   9.078 -0.4759 -0.4654 -0.2549
27316SOL     OW93926   6.393   1.932   0.257  0.3822  0.2216  0.4119
27316SOL    HW193927   6.340   1.939   0.178 -0.1133 -3.5300  0.2447
27316SOL    HW293928   6.454   2.006   0.251 -2.8028  3.0426 -0.8372
27317SOL     OW93929   8.210   3.188   5.873 -0.3539  0.0704 -0.0237
27317SOL    HW193930   8.239   3.276   5.895  1.2154 -0.3305 -0.3715
27317SOL    HW293931   8.201   3.143   5.957  2.0251 -0.3654  0.0666
27318SOL     OW93932   0.446  13.462   7.872  0.3910 -0.5326 -0.0113
27318SOL    HW193933   0.438  13.368   7.888 -1.1740 -0.3082  0.7763
27318SOL    HW293934   0.446  13.470   7.777 -0.1423 -1.2983 -0.0874
27319SOL     OW93935  12.006   7.331  10.178  0.2586 -0.0111  0.3205
27319SOL    HW193936  11.938   7.397  10.190 -0.6748 -0.6791 -0.9744
27319SOL    HW293937  12.070   7.348  10.247 -1.3880  0.4298  1.7930
27320SOL     OW93938   1.476  12.631   7.775  0.0405  0.3196  0.1874
27320SOL    HW193939   1.537  12.583   7.718  0.2798 -4.3013  3.7219
27320SOL    HW293940   1.389  12.605   7.745  0.0397  0.9646 -0.3724
27321SOL     OW93941   0.390   8.588   8.380 -0.0471  0.1288 -0.1863
27321SOL    HW193942   0.385   8.516   8.317  0.0771 -0.4781  0.4865
27321SOL    HW293943   0.466   8.639   8.352 -0.6056  0.4546 -1.1351
27322SOL     OW93944  10.403   0.902  12.537 -0.7373 -0.4155  0.0402
27322SOL    HW193945  10.318   0.931  12.506 -0.7255 -1.9653 -1.6088
27322SOL    HW293946  10.466   0.957  12.490 -0.8067 -0.1628  0.2447
27323SOL     OW93947   8.442   8.013  11.404  0.1946 -0.4816  0.4853
27323SOL    HW193948   8.532   8.046  11.410 -0.0280 -0.0812  1.6968
27323SOL    HW293949   8.434   7.950  11.476 -0.6831 -0.0583  0.7721
27324SOL     OW93950   4.832   2.509   7.996 -0.1471 -0.3032 -0.5929
27324SOL    HW193951   4.873   2.574   7.939 -0.5100 -0.0443 -0.5621
27324SOL    HW293952   4.868   2.528   8.083 -0.1285 -0.2495 -0.6123
27325SOL     OW93953   4.224  12.469  13.304 -0.6097  0.2403  0.0933
27325SOL    HW193954   4.149  12.505  13.257 -1.1544 -0.1144  0.6623
27325SOL    HW293955   4.291  12.537  13.298 -0.7541  0.2987 -0.9615
27326SOL     OW93956  13.467  13.908   5.915 -0.4840 -0.5977 -0.6621
27326SOL    HW193957  13.439  13.816   5.910  1.1773 -1.1193 -0.9537
27326SOL    HW293958  13.535  13.916   5.848 -0.6549  0.8824 -0.6907
27327SOL     OW93959   8.807   5.172   4.160  0.4345  0.0522  0.4482
27327SOL    HW193960   8.766   5.169   4.247  1.7004 -2.0305  1.0385
27327SOL    HW293961   8.884   5.227   4.172  0.1788  0.4140  0.4406
27328SOL     OW93962   3.918   1.136  12.618  0.3741  0.0868 -0.0465
27328SOL    HW193963   3.852   1.199  12.647 -0.5938 -0.3059 -1.3154
27328SOL    HW293964   3.867   1.063  12.583  1.4748 -0.1071 -1.3264
27329SOL     OW93965   3.578  11.121  11.685 -0.6164 -0.3361  0.3672
27329SOL    HW193966   3.566  11.208  11.645  0.6175 -0.3329 -0.0401
27329SOL    HW293967   3.673  11.110  11.689 -0.7558 -1.3371  1.1629
27330SOL     OW93968   9.978  10.015   2.890 -0.3797  0.0968  0.1686
27330SOL    HW193969   9.907   9.955   2.909 -0.7729  1.1236  2.1990
27330SOL    HW293970   9.948  10.063   2.812 -1.0868 -0.7028 -0.0682
27331SOL     OW93971   8.111  10.064   2.804 -0.0160  0.5834 -0.0815
27331SOL    HW193972   8.089  10.022   2.887 -0.2624  1.4421  0.2989
27331SOL    HW293973   8.114  10.157   2.824  3.4692  0.6394 -0.1897
27332SOL     OW93974   3.851   4.490   0.897 -0.7034  0.6315 -0.7725
27332SOL    HW193975   3.810   4.488   0.983  0.3834 -1.9576 -0.2439
27332SOL    HW293976   3.821   4.410   0.854  0.2399  0.9545 -2.1028
27333SOL     OW93977  12.808  10.711   1.663 -0.4498  0.2561 -0.0863
27333SOL    HW193978  12.814  10.615   1.663 -0.2365  0.1763 -2.6929
27333SOL    HW293979  12.744  10.730   1.594  1.3665  2.0141 -1.4006
27334SOL     OW93980   4.386   9.697  11.532  0.4200  0.2902  0.1616
27334SOL    HW193981   4.328   9.657  11.597 -0.1626  1.2826  0.2765
27334SOL    HW293982   4.383   9.791  11.552  1.9391  0.3813  0.0599
27335SOL     OW93983   9.630  14.000   4.359 -0.0387  0.4299 -0.3904
27335SOL    HW193984   9.621  14.094   4.344 -2.3588  0.4777  0.8289
27335SOL    HW293985   9.581  13.959   4.288  0.9636  0.1300 -0.9170
27336SOL     OW93986   1.146   8.588   5.797  0.2908  0.4811 -0.0718
27336SOL    HW193987   1.122   8.638   5.720 -1.4759  1.5273  1.1019
27336SOL    HW293988   1.231   8.623   5.823 -0.4090  2.1174  0.0869
27337SOL     OW93989   0.329   5.158   0.137 -0.0011  0.1310 -0.0705
27337SOL    HW193990   0.370   5.072   0.140  0.2592  0.2521 -0.1748
27337SOL    HW293991   0.366   5.205   0.211 -0.1657  0.1455  0.0039
27338SOL     OW93992  12.629   6.559   1.161  0.2966 -0.0186 -0.2526
27338SOL    HW193993  12.593   6.557   1.072 -0.1421  1.9481 -0.1658
27338SOL    HW293994  12.622   6.469   1.191 -1.0352 -0.4339 -1.6388
27339SOL     OW93995   9.200   4.079   6.121  0.4445 -0.4977  0.6353
27339SOL    HW193996   9.284   4.092   6.077 -0.4638 -0.6358 -1.2208
27339SOL    HW293997   9.218   4.010   6.185  1.9258  0.0389  0.8499
27340SOL     OW93998   1.461   0.071   3.941 -0.3519  0.0737 -0.0896
27340SOL    HW193999   1.477   0.030   3.856  1.8178  1.4158 -0.3837
27340SOL    HW294000   1.409   0.006   3.988  0.3444 -1.6961 -1.6053
27341SOL     OW94001   9.717   0.494   9.019  0.0113  0.4666  0.2892
27341SOL    HW194002   9.784   0.473   9.084  0.7921 -0.4258 -0.7556
27341SOL    HW294003   9.761   0.482   8.935 -2.0629 -2.7294 -0.5502
27342SOL     OW94004   0.188   2.705   8.993  0.3049  0.6829 -0.5137
27342SOL    HW194005   0.211   2.797   8.991  1.2306  0.4708 -0.0038
27342SOL    HW294006   0.119   2.699   9.060 -0.6719  1.1823 -1.4427
27343SOL     OW94007   1.682   8.948   0.371  0.2404  0.3604 -0.0523
27343SOL    HW194008   1.772   8.915   0.365 -0.1485 -0.5762 -0.9599
27343SOL    HW294009   1.671   9.002   0.293 -0.5425 -0.9875 -0.9072
27344SOL     OW94010  11.644   8.138   8.020 -0.3661  0.1599  0.0454
27344SOL    HW194011  11.641   8.179   8.106  0.5350  1.3283 -0.4513
27344SOL    HW294012  11.717   8.076   8.024  0.2525  0.8625 -0.1338
27345SOL     OW94013   6.795  10.583   6.732 -0.7822 -0.0866 -0.3653
27345SOL    HW194014   6.825  10.602   6.821  0.6361 -0.6628 -0.7040
27345SOL    HW294015   6.838  10.647   6.677 -1.2177 -0.0844 -0.7091
27346SOL     OW94016   4.486   8.630   8.733 -0.1459 -0.4251  0.3395
27346SOL    HW194017   4.473   8.680   8.652  1.3174 -1.8580 -0.8389
27346SOL    HW294018   4.487   8.539   8.706  4.4686 -0.8791  1.1993
27347SOL     OW94019   1.381   8.532   0.612 -0.0258 -0.1642 -0.3428
27347SOL    HW194020   1.360   8.460   0.671  2.3726 -0.7970 -0.1390
27347SOL    HW294021   1.297   8.575   0.595 -1.0386 -0.9110  2.2688
27348SOL     OW94022   1.964  10.126   7.975 -0.8499 -0.2523  0.1067
27348SOL    HW194023   1.906  10.095   8.044 -0.1019  1.5376  1.6328
27348SOL    HW294024   2.031  10.058   7.967 -0.3247 -0.0238  1.9973
27349SOL     OW94025   3.305   7.625   7.078  0.0261 -0.1058  0.4015
27349SOL    HW194026   3.309   7.632   6.983  0.0424  1.2046  0.4791
27349SOL    HW294027   3.212   7.611   7.097 -0.0809  0.3142  0.2148
27350SOL     OW94028  10.554   3.051   2.309 -0.2790 -0.6816 -0.3437
27350SOL    HW194029  10.615   3.124   2.299  0.4603 -1.4841 -2.4296
27350SOL    HW294030  10.478   3.088   2.354  0.4809  1.1073 -0.4544
27351SOL     OW94031   0.554   5.646   2.216 -0.0363 -0.3272 -0.0528
27351SOL    HW194032   0.533   5.561   2.176 -0.3129 -0.0046 -0.5945
27351SOL    HW294033   0.514   5.642   2.303 -1.5004 -0.1091 -0.6896
27352SOL     OW94034   7.270  10.663   0.427 -0.2459  0.0451  0.0015
27352SOL    HW194035   7.223  10.744   0.447  1.4379  1.0581  0.0158
27352SOL    HW294036   7.218  10.595   0.469 -1.7685  1.0897 -0.1134
27353SOL     OW94037   6.631  13.981   1.369  0.0452  0.3358  0.1924
27353SOL    HW194038   6.605  13.983   1.461  0.3213 -0.8841  0.3149
27353SOL    HW294039   6.690  13.906   1.363 -0.3796  0.0838 -1.0917
27354SOL     OW94040   7.065   4.386   8.483 -0.3359 -0.1560 -0.5572
27354SOL    HW194041   7.141   4.334   8.456  0.4754  0.9482 -0.5010
27354SOL    HW294042   7.103   4.466   8.520 -1.5277  0.3417 -0.3621
27355SOL     OW94043   4.424  12.759  10.380 -0.4720  0.4709 -0.3589
27355SOL    HW194044   4.416  12.854  10.384  0.0319  0.5302 -0.7595
27355SOL    HW294045   4.432  12.739  10.287 -0.2961  0.0549 -0.2574
27356SOL     OW94046   2.171  12.261   5.908  0.3024 -0.6042 -0.1057
27356SOL    HW194047   2.162  12.168   5.927  0.6396 -0.6126  0.0221
27356SOL    HW294048   2.092  12.284   5.859 -0.4517 -0.6504  1.0328
27357SOL     OW94049   3.695  10.714   4.622 -0.2367 -0.5304 -0.2254
27357SOL    HW194050   3.754  10.670   4.684 -0.1713  0.6445  0.5730
27357SOL    HW294051   3.608  10.685   4.647 -0.2662  0.3888  0.8410
27358SOL     OW94052  11.009   1.839   4.811  0.1008  0.2704 -0.0733
27358SOL    HW194053  10.925   1.879   4.790  1.0056  1.8780 -0.7860
27358SOL    HW294054  11.043   1.891   4.884  1.3228  0.8823 -1.0490
27359SOL     OW94055   3.956  12.574  12.478  0.6438  0.1246 -0.3152
27359SOL    HW194056   3.896  12.580  12.404 -0.9274 -1.2822  0.7566
27359SOL    HW294057   3.934  12.650  12.533 -0.0949 -0.3088  0.0041
27360SOL     OW94058   3.944   2.765   2.436 -0.0488 -0.1737  0.2375
27360SOL    HW194059   3.966   2.831   2.370  0.5746  0.0781  0.6899
27360SOL    HW294060   4.023   2.713   2.446 -0.2070 -0.3428  0.6392
27361SOL     OW94061  11.296  13.911   9.107 -0.8541 -0.1816 -0.1057
27361SOL    HW194062  11.340  13.901   9.191  0.0829  0.9222 -0.4368
27361SOL    HW294063  11.321  13.833   9.057  1.6452  0.8616 -0.6419
27362SOL     OW94064   5.803   3.499   3.589 -0.4264  0.1338 -0.0911
27362SOL    HW194065   5.747   3.429   3.558 -0.3058  0.9625 -2.3113
27362SOL    HW294066   5.753   3.540   3.660 -1.4453 -0.7725 -0.2678
27363SOL     OW94067   1.979   9.476   5.524  0.0930 -0.5518  0.5237
27363SOL    HW194068   1.926   9.401   5.498 -2.2559  1.0739  0.3028
27363SOL    HW294069   1.936   9.510   5.602  2.1266 -0.4176  1.6300
27364SOL     OW94070  13.726   6.269   3.536 -0.2321  0.1058  0.0570
27364SOL    HW194071  13.782   6.247   3.461  0.2004 -1.4883  0.8052
27364SOL    HW294072  13.772   6.232   3.612 -1.2251  0.6910  0.9597
27365SOL     OW94073   0.263   0.528   6.581 -0.2693  0.3666  0.3976
27365SOL    HW194074   0.228   0.439   6.584 -2.9867  1.3489  1.5531
27365SOL    HW294075   0.187   0.583   6.561  1.4042  2.4222 -0.7612
27366SOL     OW94076  13.147   1.311   3.044  0.3586 -0.2339  0.0411
27366SOL    HW194077  13.242   1.320   3.049  0.2373  0.6946  1.6985
27366SOL    HW294078  13.130   1.220   3.068  0.7911 -0.1310  0.7661
27367SOL     OW94079  11.250   1.739  12.644 -0.3801 -0.1847  0.7967
27367SOL    HW194080  11.171   1.700  12.682 -1.4696 -0.4183 -1.4847
27367SOL    HW294081  11.220   1.821  12.605  0.6820  0.1345  0.6114
27368SOL     OW94082  11.133   6.160  11.359  0.0918 -0.2979 -0.3128
27368SOL    HW194083  11.168   6.163  11.270  0.1333  1.4030 -0.2826
27368SOL    HW294084  11.043   6.192  11.351  0.3940  0.7766  0.3612
27369SOL     OW94085   6.009   1.358   4.956 -0.2213 -0.0135  0.1096
27369SOL    HW194086   5.970   1.385   5.039 -1.4839  1.7520 -0.9826
27369SOL    HW294087   5.936   1.323   4.905  0.3937 -0.4304 -0.5086
27370SOL     OW94088  11.444   3.716  11.377 -0.5704  0.4264 -0.5029
27370SOL    HW194089  11.353   3.697  11.358 -0.2995 -1.3139 -0.2445
27370SOL    HW294090  11.485   3.729  11.292 -0.9444  0.6276 -0.6510
27371SOL     OW94091  11.444   3.222  14.041 -0.0766  0.0089 -0.7207
27371SOL    HW194092  11.421   3.149  13.983 -0.9897  0.7348 -1.3069
27371SOL    HW294093  11.525   3.257  14.004  1.9025 -2.3233  1.1209
27372SOL     OW94094   4.280   6.695   8.719  0.0546 -0.4883 -0.5785
27372SOL    HW194095   4.214   6.671   8.654 -1.2447  1.2947  0.0108
27372SOL    HW294096   4.287   6.790   8.712  0.6983 -0.3670  1.1457
27373SOL     OW94097  11.238   5.998   7.172 -0.5102 -0.0399  0.0174
27373SOL    HW194098  11.160   5.983   7.226  1.2739 -0.4347  2.6588
27373SOL    HW294099  11.247   5.919   7.119 -1.3979 -0.3746  0.3460
27374SOL     OW94100   5.131  13.985   0.833 -0.2735 -0.5040 -0.2362
27374SOL    HW194101   5.125  13.944   0.919 -0.2232  0.3799  0.1990
27374SOL    HW294102   5.219  14.020   0.829 -0.9556  1.3749  0.2568
27375SOL     OW94103  13.548  11.653  12.177  0.2090 -0.2226  0.1465
27375SOL    HW194104  13.458  11.621  12.187  0.3175 -1.0573 -1.2619
27375SOL    HW294105  13.599  11.575  12.157  1.1394  0.3407  0.2723
27376SOL     OW94106  12.935  12.034   2.242 -0.1933 -0.4714  0.3810
27376SOL    HW194107  12.937  12.129   2.253  1.8198 -0.5980  1.6379
27376SOL    HW294108  12.954  12.020   2.150  1.6734  0.3606  0.5879
27377SOL     OW94109  12.798   2.187   8.706  0.8676 -0.3836  0.0214
27377SOL    HW194110  12.710   2.151   8.710  0.2417  1.1779  2.5861
27377SOL    HW294111  12.855   2.110   8.703 -0.5182 -1.4524  0.1118
27378SOL     OW94112  10.183   2.171   2.583 -0.4578 -0.4703  0.2832
27378SOL    HW194113  10.132   2.117   2.643 -0.2067 -0.3137  0.6368
27378SOL    HW294114  10.243   2.220   2.639  0.7634 -1.3727 -0.1915
27379SOL     OW94115   7.614   4.680   7.425  0.2441  0.6659 -0.0793
27379SOL    HW194116   7.666   4.752   7.390  0.9894  0.6476  0.9795
27379SOL    HW294117   7.677   4.622   7.466 -0.2869 -0.8216 -1.2419
27380SOL     OW94118   2.702   9.404   6.345  0.0648 -0.1649 -0.1584
27380SOL    HW194119   2.675   9.478   6.290 -0.2283 -0.6423 -0.6660
27380SOL    HW294120   2.726   9.444   6.429  1.2429  0.6581 -0.8703
27381SOL     OW94121   7.053   7.939  11.996  0.0164  0.2251 -0.1677
27381SOL    HW194122   6.979   7.891  11.959  1.1324 -0.9570 -0.9357
27381SOL    HW294123   7.055   7.914  12.088 -0.1317 -0.2615 -0.2978
27382SOL     OW94124   3.303   2.388   3.080 -0.0262  0.1356  0.3162
27382SOL    HW194125   3.255   2.469   3.059 -0.4136  0.1351  1.1539
27382SOL    HW294126   3.251   2.319   3.039  1.1081  0.4001 -1.7118
27383SOL     OW94127  13.914   1.160   2.159  0.6071  0.3326 -0.3638
27383SOL    HW194128  13.871   1.217   2.094  0.4840  0.5709 -0.0740
27383SOL    HW294129  13.973   1.218   2.206  0.8991  0.1008 -0.4461
27384SOL     OW94130   1.101   8.391  10.073 -0.0162  0.3393 -0.0710
27384SOL    HW194131   1.114   8.316  10.131 -3.7931  0.5064  1.2520
27384SOL    HW294132   1.029   8.440  10.113 -1.3562  1.6885 -3.7260
27385SOL     OW94133  11.172   0.129  12.284 -0.4965  0.3991 -0.4901
27385SOL    HW194134  11.232   0.123  12.209 -1.5122 -0.1588 -1.2814
27385SOL    HW294135  11.091   0.089  12.253 -1.1688  0.8109  0.6853
27386SOL     OW94136  10.179  10.720   8.634 -0.2533  0.4219  0.2802
27386SOL    HW194137  10.266  10.681   8.624 -0.3202  0.0908  0.9255
27386SOL    HW294138  10.120  10.655   8.597 -0.0389  1.9477 -3.0768
27387SOL     OW94139   4.410  12.823   0.296  0.2303 -0.4603  0.6173
27387SOL    HW194140   4.391  12.730   0.286 -2.3484 -0.1202  1.4864
27387SOL    HW294141   4.430  12.853   0.208  2.4853 -2.0379  0.5141
27388SOL     OW94142   8.229  10.985  10.025  0.6260 -0.4901 -0.1032
27388SOL    HW194143   8.303  11.041  10.001 -0.8611  0.6820 -2.2802
27388SOL    HW294144   8.235  10.977  10.120  1.9266  1.9025  0.0962
27389SOL     OW94145  13.616   8.903   7.155  0.3775 -0.0927  0.4407
27389SOL    HW194146  13.643   8.965   7.224 -1.3420  1.6428 -0.3391
27389SOL    HW294147  13.563   8.838   7.202  1.3805 -0.4544  1.1207
27390SOL     OW94148   7.561   5.265   1.921 -0.5098  0.2060 -0.0439
27390SOL    HW194149   7.654   5.244   1.929  0.3866  3.4209 -0.7572
27390SOL    HW294150   7.528   5.203   1.856  1.9645  1.0635 -2.3002
27391SOL     OW94151   3.040   7.410   6.887  0.3963  0.3762 -0.0228
27391SOL    HW194152   3.117   7.459   6.859 -0.2739  0.6375 -1.5445
27391SOL    HW294153   2.994   7.469   6.947  0.9211  0.5673  0.1962
27392SOL     OW94154   2.489   0.031  11.689  0.5205 -0.2530 -0.1861
27392SOL    HW194155   2.498  -0.041  11.626 -2.5671 -0.1803 -0.8713
27392SOL    HW294156   2.544   0.101  11.653 -0.9869 -0.2695 -2.8502
27393SOL     OW94157   4.641   8.009   8.130  0.4897  0.0315 -0.4871
27393SOL    HW194158   4.550   8.025   8.154  0.9803  1.7046  0.4208
27393SOL    HW294159   4.685   7.994   8.214  1.4930  1.9119 -0.6225
27394SOL     OW94160   2.861   3.695   4.448  0.5212  0.5828 -0.3509
27394SOL    HW194161   2.807   3.738   4.382 -0.2886 -0.4866 -0.4142
27394SOL    HW294162   2.834   3.603   4.446  1.6658  0.2042  0.3029
27395SOL     OW94163   1.907   4.470  11.112 -0.0693  0.2180 -0.0180
27395SOL    HW194164   1.939   4.559  11.103  1.7195 -0.4135 -0.2660
27395SOL    HW294165   1.961   4.431  11.181 -0.4190 -0.8377 -0.3069
27396SOL     OW94166  13.859   2.569   8.199 -0.1222  0.0800 -0.4748
27396SOL    HW194167  13.873   2.498   8.262  0.4135  0.3796 -0.2473
27396SOL    HW294168  13.872   2.527   8.113  2.6153  0.3533 -0.3015
27397SOL     OW94169   4.891   2.955   4.789 -0.0512  0.1757 -0.2377
27397SOL    HW194170   4.901   2.874   4.839  0.0152 -1.1809 -2.3710
27397SOL    HW294171   4.872   2.927   4.700 -1.4616  2.5277 -0.7783
27398SOL     OW94172  13.664   1.063   7.643 -0.0453  0.3254 -0.3300
27398SOL    HW194173  13.574   1.049   7.614 -0.3266  0.9909  0.2166
27398SOL    HW294174  13.664   1.039   7.736  0.2001  0.9280 -0.1742
27399SOL     OW94175   2.078   1.361  10.059 -0.2391 -0.1810  0.1573
27399SOL    HW194176   1.997   1.412  10.070  0.1624  0.4293  0.3263
27399SOL    HW294177   2.075   1.331   9.968 -0.4011  0.2790  0.0068
27400SOL     OW94178   9.601   7.421  11.977 -0.0826 -0.1349 -0.5447
27400SOL    HW194179   9.596   7.489  12.045  0.4412  1.2435 -1.8187
27400SOL    HW294180   9.695   7.412  11.959 -0.2112 -0.5348 -1.0374
27401SOL     OW94181   0.059   2.652   1.353 -0.2671 -0.1809 -0.3119
27401SOL    HW194182   0.089   2.743   1.360 -0.1443 -0.2266 -0.2251
27401SOL    HW294183  -0.023   2.657   1.303  0.3785 -0.1564 -1.4005
27402SOL     OW94184   2.757   2.545   2.210  0.1707  0.3688 -0.2331
27402SOL    HW194185   2.772   2.456   2.243  0.3189  0.9045  1.1758
27402SOL    HW294186   2.730   2.531   2.119 -1.8111 -1.2411  0.5122
27403SOL     OW94187   8.239   4.527  12.433  0.0046  0.1563  0.0353
27403SOL    HW194188   8.238   4.620  12.453  0.6968 -0.2785  2.4136
27403SOL    HW294189   8.146   4.502  12.436  0.0042  0.1344  3.2149
27404SOL     OW94190  11.613   7.525   0.889 -0.3614  0.0632 -0.1415
27404SOL    HW194191  11.624   7.435   0.917 -0.4349  0.6098  1.7516
27404SOL    HW294192  11.531   7.525   0.840 -0.3853 -0.8718 -0.1170
27405SOL     OW94193   8.054  13.673   3.619 -0.0770 -0.5119  0.0510
27405SOL    HW194194   8.126  13.734   3.600 -0.7261 -0.1525 -1.4403
27405SOL    HW294195   7.990  13.727   3.666 -1.1502  0.3548 -2.2521
27406SOL     OW94196  11.648  13.058   5.644  0.4265 -0.4421 -0.2047
27406SOL    HW194197  11.635  13.144   5.685  0.1541  0.2978 -1.7611
27406SOL    HW294198  11.620  12.995   5.711 -2.5063  0.7882 -0.1110
27407SOL     OW94199   8.873   0.924  11.599 -0.6781  0.0713  0.2520
27407SOL    HW194200   8.835   0.997  11.647 -2.6875 -0.6735 -0.0964
27407SOL    HW294201   8.955   0.905  11.644  0.0161  2.6653  0.1883
27408SOL     OW94202  11.834   9.975   9.772 -0.1714  1.1624  0.1389
27408SOL    HW194203  11.776   9.901   9.753  1.7192 -0.1011 -0.9993
27408SOL    HW294204  11.774  10.046   9.795 -2.0845 -0.5893  0.9708
27409SOL     OW94205   3.954   7.649  11.351  0.6627 -0.2468 -0.6451
27409SOL    HW194206   3.991   7.564  11.377 -0.9925 -0.3820  1.5888
27409SOL    HW294207   3.860   7.641  11.371  0.3662  1.9037 -0.9656
27410SOL     OW94208   6.766   7.398   1.931  0.2274 -0.4418 -0.0894
27410SOL    HW194209   6.752   7.346   1.852 -0.8814 -0.7539  0.2925
27410SOL    HW294210   6.837   7.353   1.977  0.1684 -0.8641 -0.4039
27411SOL     OW94211  12.748   1.592  13.998 -0.1784 -0.1313  0.6455
27411SOL    HW194212  12.808   1.547  13.938  0.0278  1.9950 -0.8785
27411SOL    HW294213  12.661   1.563  13.970 -0.0004 -0.9360  0.8856
27412SOL     OW94214   2.077  13.381  12.007  0.0817 -0.2309 -0.3581
27412SOL    HW194215   2.106  13.441  12.076 -0.1350  0.0192 -0.4868
27412SOL    HW294216   1.995  13.418  11.974  1.2737  0.8929 -2.2791
27413SOL     OW94217   1.161   2.498   4.279 -0.1703 -0.4277 -0.0191
27413SOL    HW194218   1.194   2.583   4.310 -1.2505 -0.2691  0.7165
27413SOL    HW294219   1.131   2.516   4.190 -2.0357  0.4286  0.7242
27414SOL     OW94220   9.070   3.152   1.475  0.3005 -0.0907 -0.3565
27414SOL    HW194221   9.108   3.078   1.427  1.5643  0.1333  0.2592
27414SOL    HW294222   9.017   3.111   1.543  1.9973 -0.4967  0.7848
27415SOL     OW94223  10.060  11.550   4.045  0.1428 -0.1209  0.2527
27415SOL    HW194224  10.053  11.467   4.092  1.6855 -0.0352  0.6756
27415SOL    HW294225  10.097  11.527   3.960 -0.6820 -0.0118 -0.1503
27416SOL     OW94226  11.945   7.010   9.834 -0.2633 -0.4814 -0.0600
27416SOL    HW194227  12.015   6.945   9.827 -1.3937 -1.5966 -2.0209
27416SOL    HW294228  11.989   7.094   9.819  1.2114 -0.7075  2.4784
27417SOL     OW94229   5.384   4.993   9.976  0.4289 -0.1282  0.0385
27417SOL    HW194230   5.471   4.962  10.001  0.5190  0.4762  0.5255
27417SOL    HW294231   5.328   4.916   9.981  1.0772 -0.6891 -1.0472
27418SOL     OW94232   6.254  12.519  12.563 -0.0583 -0.0812 -0.2634
27418SOL    HW194233   6.296  12.605  12.574 -1.7152  0.5782  1.5204
27418SOL    HW294234   6.309  12.459  12.613 -0.7573  0.6557  1.5008
27419SOL     OW94235   7.239   9.141   1.890 -0.0685  0.0714 -0.4973
27419SOL    HW194236   7.163   9.151   1.833 -0.2667  0.4337 -0.1733
27419SOL    HW294237   7.241   9.047   1.910  0.4788 -0.2048 -1.7407
27420SOL     OW94238   6.607   2.765  13.722 -0.2604  0.1082  0.3123
27420SOL    HW194239   6.617   2.767  13.627 -1.7554  0.0520  0.1369
27420SOL    HW294240   6.679   2.820  13.755  0.2973  0.0876 -0.8311
27421SOL     OW94241  11.143   3.295   2.412 -0.4038  0.3362  0.6809
27421SOL    HW194242  11.236   3.288   2.395 -0.4160  1.2135  0.1667
27421SOL    HW294243  11.134   3.280   2.506  0.1195 -0.8252  0.5608
27422SOL     OW94244   2.501   9.238   2.679 -0.0059 -1.0631  0.0144
27422SOL    HW194245   2.437   9.215   2.612  0.9419 -1.0589 -0.9122
27422SOL    HW294246   2.574   9.178   2.665  1.7396  1.2051 -1.2761
27423SOL     OW94247   4.971   2.732  13.403  0.0012 -0.1761  0.2235
27423SOL    HW194248   5.035   2.673  13.444  0.9284 -0.3981 -1.4464
27423SOL    HW294249   4.892   2.723  13.457  1.3356  0.0763  2.3219
27424SOL     OW94250  11.042   4.580   3.970 -0.5062  0.0798  0.0910
27424SOL    HW194251  11.087   4.662   3.949 -0.6882 -0.3817 -2.4269
27424SOL    HW294252  11.046   4.574   4.065  1.1419  2.0745  0.2125
27425SOL     OW94253  11.988   6.682   1.459  0.0129  0.2495  0.3744
27425SOL    HW194254  11.938   6.605   1.484  1.1123  0.4203  3.6706
27425SOL    HW294255  12.053   6.650   1.397  0.7910 -1.6687  2.0608
27426SOL     OW94256  13.895   6.444  10.395  0.4726  0.4778  0.1212
27426SOL    HW194257  13.940   6.495  10.328 -1.2683  1.7697 -0.1525
27426SOL    HW294258  13.809   6.425  10.357  0.1966 -0.5339  1.1974
27427SOL     OW94259   7.718   4.825   3.077  0.1470 -0.3907  0.0865
27427SOL    HW194260   7.717   4.858   3.167  0.6945  0.1472 -0.1014
27427SOL    HW294261   7.754   4.897   3.025  2.0591 -1.5319 -0.2254
27428SOL     OW94262   8.111  11.569   8.715 -0.0834  0.2583 -0.7664
27428SOL    HW194263   8.128  11.567   8.810 -2.2908  1.1980 -0.2814
27428SOL    HW294264   8.163  11.643   8.683  1.9347 -1.0175 -0.6424
27429SOL     OW94265   1.361  13.277  10.361  0.7027  0.3249 -0.1056
27429SOL    HW194266   1.327  13.358  10.398 -0.2057 -0.4807  0.9157
27429SOL    HW294267   1.392  13.227  10.437 -0.4845 -1.0411 -0.4668
27430SOL     OW94268   9.049   3.679   0.411  0.1410  0.3387  0.0065
27430SOL    HW194269   9.023   3.669   0.320  0.4313 -0.5639  0.0155
27430SOL    HW294270   8.967   3.690   0.459  0.0036  1.1701 -0.3931
27431SOL     OW94271   1.064   4.845   5.400 -0.4324 -0.4101  0.1673
27431SOL    HW194272   1.111   4.774   5.444 -0.1644  0.2567  0.9929
27431SOL    HW294273   1.018   4.803   5.328 -0.4384 -1.4529  0.7625
27432SOL     OW94274  11.541  10.660  14.037  0.5576  0.3829  0.0854
27432SOL    HW194275  11.454  10.692  14.060 -0.1684 -1.7881  0.5397
27432SOL    HW294276  11.557  10.697  13.950 -0.6947  1.0166  0.0977
27433SOL     OW94277  10.054   3.758   9.262 -1.0056  0.5393  0.0787
27433SOL    HW194278  10.143   3.794   9.268 -0.7433 -0.0325 -0.2826
27433SOL    HW294279  10.062   3.670   9.299 -1.6950  0.9355  1.2009
27434SOL     OW94280   7.220   1.391   1.972 -0.1104  0.3081  0.1854
27434SOL    HW194281   7.243   1.395   1.879 -0.6996  0.8892  0.0520
27434SOL    HW294282   7.141   1.336   1.974 -1.1963  1.8118  0.0958
27435SOL     OW94283  13.813  10.147  10.317 -0.1385 -0.1370  0.0063
27435SOL    HW194284  13.728  10.114  10.290 -1.3087  1.4462  1.5157
27435SOL    HW294285  13.812  10.139  10.413  1.9085 -1.1959 -0.0157
27436SOL     OW94286   0.129   7.015   5.463  0.2173 -0.0170  0.9143
27436SOL    HW194287   0.180   6.999   5.543 -0.1330 -0.9917  0.9539
27436SOL    HW294288   0.165   7.097   5.428  2.0341 -0.8199  0.7780
27437SOL     OW94289   1.020   3.764   6.319 -0.5012 -0.2282  0.2236
27437SOL    HW194290   1.095   3.752   6.261 -2.0011 -0.6938 -1.7066
27437SOL    HW294291   0.982   3.848   6.293  0.5949  1.1546  2.7481
27438SOL     OW94292   7.611   9.536  12.248 -0.3310  0.1027 -0.3587
27438SOL    HW194293   7.519   9.559  12.260 -0.2138  0.4643 -0.1467
27438SOL    HW294294   7.612   9.441  12.242 -0.9165  0.1679 -1.9883
27439SOL     OW94295   6.469   8.382   0.462 -0.3797  0.4429 -0.1493
27439SOL    HW194296   6.450   8.306   0.517  0.2151  0.3313 -0.0926
27439SOL    HW294297   6.407   8.374   0.389 -0.5368  0.0817  0.0189
27440SOL     OW94298  12.114  10.037   4.285 -0.0194 -0.5869 -0.2736
27440SOL    HW194299  12.204  10.043   4.319 -0.1525 -0.9084  0.1482
27440SOL    HW294300  12.080   9.956   4.324 -0.3599 -0.6771 -0.7533
27441SOL     OW94301   7.440   2.682   5.026  0.0071  0.0100 -0.1735
27441SOL    HW194302   7.493   2.758   5.002 -0.0530  0.1506  0.1292
27441SOL    HW294303   7.399   2.707   5.109  1.1472 -0.9031  0.7120
27442SOL     OW94304  11.361   5.678   6.577 -0.1601 -0.1322 -0.5437
27442SOL    HW194305  11.373   5.685   6.672  0.6832 -0.1911 -0.6458
27442SOL    HW294306  11.446   5.651   6.543 -0.2463  0.6157 -1.3966
27443SOL     OW94307   5.620  11.978   5.253  0.3144 -0.2368  0.7049
27443SOL    HW194308   5.589  11.893   5.283  0.3795 -0.2302  0.7916
27443SOL    HW294309   5.673  11.958   5.175  0.6970 -0.3203  0.9823
27444SOL     OW94310   1.850   9.161  11.532 -0.3585 -0.1598 -0.1375
27444SOL    HW194311   1.920   9.226  11.534  1.2360 -1.7945 -0.3591
27444SOL    HW294312   1.828   9.146  11.624  0.4939 -0.5352  0.0187
27445SOL     OW94313  10.223   8.756  11.924 -0.7695  0.0122  0.2665
27445SOL    HW194314  10.146   8.744  11.868 -2.2992  1.7344  1.8740
27445SOL    HW294315  10.297   8.755  11.863 -2.1509 -0.3559 -1.5025
27446SOL     OW94316  10.766   4.603   2.511 -0.2810 -0.0330 -0.6409
27446SOL    HW194317  10.764   4.689   2.553  1.5004 -0.4642  0.4320
27446SOL    HW294318  10.832   4.611   2.442 -0.1555 -0.5335 -0.5849
27447SOL     OW94319  10.955  11.798   4.827 -0.1711 -0.3859 -0.3257
27447SOL    HW194320  10.968  11.873   4.769 -1.5286  0.6569  0.6654
27447SOL    HW294321  10.882  11.750   4.789 -0.0311 -0.5877 -0.3409
27448SOL     OW94322   8.330   1.293   1.336 -0.5690  0.1057  0.3566
27448SOL    HW194323   8.260   1.312   1.273 -1.7169 -0.6879  1.3539
27448SOL    HW294324   8.367   1.379   1.357  0.8015  0.3106 -2.4098
27449SOL     OW94325   7.030   2.881   3.820  0.4678 -0.3248 -0.1006
27449SOL    HW194326   6.953   2.928   3.790  1.2969 -0.4562 -2.6891
27449SOL    HW294327   7.062   2.932   3.895 -1.6990  0.0871  0.6186
27450SOL     OW94328  11.188   7.513   8.925 -0.2321  0.4135 -0.3717
27450SOL    HW194329  11.230   7.599   8.930 -1.0734  0.8374 -0.3252
27450SOL    HW294330  11.166   7.492   9.016 -0.3816  0.3323 -0.4270
27451SOL     OW94331   4.472   4.340   9.971  0.4288 -0.1075 -0.0796
27451SOL    HW194332   4.383   4.316   9.946  0.4641 -0.7601  0.3779
27451SOL    HW294333   4.483   4.302  10.058 -0.1908  3.2568  1.6226
27452SOL     OW94334   6.960   2.904   1.197  0.5257  0.2634  0.3195
27452SOL    HW194335   6.892   2.837   1.196  1.3750 -0.6403 -0.5654
27452SOL    HW294336   7.017   2.879   1.270  1.4461 -0.6535 -0.6796
27453SOL     OW94337   4.135   7.367  11.698 -0.4873 -0.4569 -0.0710
27453SOL    HW194338   4.063   7.312  11.668  0.3778 -0.9824 -1.2542
27453SOL    HW294339   4.170   7.407  11.618  0.4715 -0.1417  0.4855
27454SOL     OW94340   6.817  10.052   0.809  0.3776  0.3287 -0.2966
27454SOL    HW194341   6.899  10.101   0.811  0.0272  0.9316 -0.3770
27454SOL    HW294342   6.762  10.100   0.747  0.0338 -0.1767 -0.3863
27455SOL     OW94343  11.411  10.784   1.231  0.4052  0.2338 -0.5972
27455SOL    HW194344  11.505  10.788   1.249  0.3208 -1.4629  0.4522
27455SOL    HW294345  11.399  10.699   1.189 -0.7885  0.0256  0.1358
27456SOL     OW94346   0.729   7.612   2.730  0.1029 -0.1566 -0.1101
27456SOL    HW194347   0.744   7.540   2.669  1.2228 -0.3521  0.3595
27456SOL    HW294348   0.781   7.684   2.693 -1.6301  0.6915 -1.0100
27457SOL     OW94349   0.891   1.541   8.630 -0.0881  0.4926  0.4567
27457SOL    HW194350   0.871   1.540   8.537  0.7528 -0.8024  0.2594
27457SOL    HW294351   0.846   1.618   8.664  0.5610  1.6592 -1.2299
27458SOL     OW94352  11.252   8.291   1.196 -0.3340 -0.5102  0.1193
27458SOL    HW194353  11.191   8.310   1.125 -0.5597  1.1564  0.7029
27458SOL    HW294354  11.212   8.218   1.244 -1.9920  0.6388  0.5828
27459SOL     OW94355  12.956   9.201   5.799  0.3414 -0.7804  0.4496
27459SOL    HW194356  12.910   9.243   5.872  0.1590  0.1970 -0.2133
27459SOL    HW294357  13.035   9.164   5.839  0.0943 -0.5223  1.1969
27460SOL     OW94358  11.873   0.569   1.206  0.0348 -0.2150 -0.3454
27460SOL    HW194359  11.839   0.644   1.158 -2.3610 -0.4259  0.8922
27460SOL    HW294360  11.874   0.597   1.297 -0.2520 -1.4345  0.0504
27461SOL     OW94361   8.560  10.618  12.816 -0.5430 -0.0071  0.5602
27461SOL    HW194362   8.638  10.613  12.761 -1.1081  0.3818 -0.2955
27461SOL    HW294363   8.589  10.665  12.894 -0.4712  2.2874 -0.7749
27462SOL     OW94364   2.635  13.530  10.149 -0.0291  0.4244  0.9002
27462SOL    HW194365   2.652  13.482  10.068  0.6256  2.0149  0.0492
27462SOL    HW294366   2.587  13.468  10.204 -0.1462 -0.8267 -0.5482
27463SOL     OW94367   5.723  12.092   2.409  0.0280 -0.1117 -0.3150
27463SOL    HW194368   5.740  12.186   2.415  0.5055 -0.2254  0.1273
27463SOL    HW294369   5.718  12.075   2.315 -0.8163  0.4870 -0.3884
27464SOL     OW94370   4.129   5.332  11.018 -0.1506 -0.0649 -0.0843
27464SOL    HW194371   4.056   5.374  10.973  0.7538  0.7683 -0.8178
27464SOL    HW294372   4.187   5.404  11.044  0.5554 -0.7277  0.2251
27465SOL     OW94373  11.512   3.072   7.098 -0.3028  0.0756  0.1819
27465SOL    HW194374  11.535   3.164   7.084 -0.7341  0.1199 -0.2344
27465SOL    HW294375  11.426   3.062   7.058  0.2405 -0.7913 -0.8160
27466SOL     OW94376   5.442  12.315  13.806 -0.2316 -0.0479  0.1566
27466SOL    HW194377   5.498  12.318  13.728  0.3534  0.6456  0.5856
27466SOL    HW294378   5.424  12.222  13.819  1.9554 -0.4558  0.7677
27467SOL     OW94379   5.178   1.748  12.558 -0.2013  0.0725 -0.2820
27467SOL    HW194380   5.148   1.774  12.471  0.1385 -3.4189 -1.6146
27467SOL    HW294381   5.151   1.656  12.566  2.9176 -0.8160  1.8170
27468SOL     OW94382   3.495   0.278   9.728 -0.3546  0.5886 -0.0527
27468SOL    HW194383   3.567   0.268   9.791 -0.0249  2.0483 -0.1677
27468SOL    HW294384   3.521   0.223   9.654  0.2832  0.5089  0.2190
27469SOL     OW94385   3.499   9.950   0.025 -0.1547  0.3635  0.0278
27469SOL    HW194386   3.551   9.913   0.096 -0.5149 -0.2178 -0.0049
27469SOL    HW294387   3.422   9.893   0.020 -0.2708  0.5729 -0.6330
27470SOL     OW94388   0.373   1.104   1.093  0.0593  0.8323 -0.2591
27470SOL    HW194389   0.294   1.121   1.144 -0.4065 -0.6124 -0.4863
27470SOL    HW294390   0.399   1.191   1.060 -1.2781  1.3504  0.0066
27471SOL     OW94391   6.310   1.321   7.487  0.3803 -0.0949  0.6079
27471SOL    HW194392   6.337   1.230   7.476  1.8886  0.2927  0.8528
27471SOL    HW294393   6.313   1.357   7.398  2.3481  0.3559  0.8139
27472SOL     OW94394  12.557   3.725   3.113 -0.3574  0.3904  0.6537
27472SOL    HW194395  12.601   3.773   3.184  2.0091  1.2127 -1.2320
27472SOL    HW294396  12.621   3.659   3.086 -0.7944  0.7161 -1.3042
27473SOL     OW94397   9.488   2.590   4.287 -0.0443 -0.3112 -0.0646
27473SOL    HW194398   9.580   2.603   4.262 -0.3535  0.5743 -0.7863
27473SOL    HW294399   9.492   2.560   4.377  0.9149  0.8982  0.3252
27474SOL     OW94400   2.814  11.625   0.761 -0.0518 -0.1531  0.2494
27474SOL    HW194401   2.861  11.553   0.720  0.9602  0.1340  0.8446
27474SOL    HW294402   2.836  11.702   0.708  1.5171  0.2783  1.4217
27475SOL     OW94403   2.042   8.210   7.474  0.0475  0.5985  0.0423
27475SOL    HW194404   2.107   8.278   7.491  1.7481 -1.2236  1.4012
27475SOL    HW294405   2.094   8.134   7.446 -1.4804 -0.9290  1.1123
27476SOL     OW94406  11.376  13.212  10.060  0.0752 -0.5649  0.6898
27476SOL    HW194407  11.451  13.260  10.024  0.8156 -2.9635 -1.2159
27476SOL    HW294408  11.301  13.242  10.007  0.3555 -0.7762  0.1622
27477SOL     OW94409  11.415   6.384  10.989 -0.2236 -0.4768 -0.2830
27477SOL    HW194410  11.397   6.475  11.012  0.6312 -0.0572 -1.1623
27477SOL    HW294411  11.375   6.373  10.903 -0.2897 -0.9176 -0.1959
27478SOL     OW94412  13.786   3.365  10.565 -0.8072  0.0578  0.3967
27478SOL    HW194413  13.819   3.275  10.559  0.3877  0.5842 -3.0649
27478SOL    HW294414  13.716   3.369  10.500 -0.1635  1.8503 -0.2565
27479SOL     OW94415  11.147   5.296   8.957  0.4214  0.4404  0.2157
27479SOL    HW194416  11.215   5.248   9.005  0.8118  1.6038  0.8662
27479SOL    HW294417  11.138   5.248   8.875 -0.7026 -1.9939  1.6261
27480SOL     OW94418  11.056   8.195   8.977 -0.0199 -0.5486 -0.0848
27480SOL    HW194419  11.022   8.172   9.064  0.3483 -1.1202 -0.0891
27480SOL    HW294420  11.128   8.134   8.963  0.0009 -0.3719 -0.7437
27481SOL     OW94421  10.358   9.666   7.066  0.3961 -0.1917 -0.0239
27481SOL    HW194422  10.368   9.718   6.986  1.0186  1.0278  0.8056
27481SOL    HW294423  10.437   9.611   7.069 -0.5676 -1.6990 -1.2327
27482SOL     OW94424   4.564   3.484   6.440  0.0727  0.4930 -0.4153
27482SOL    HW194425   4.576   3.417   6.507 -1.4521  0.2615 -0.3360
27482SOL    HW294426   4.606   3.448   6.362 -0.5356 -0.4743 -0.3145
27483SOL     OW94427   8.064  11.238   1.174 -0.1935  0.6045  0.1714
27483SOL    HW194428   8.084  11.317   1.124  1.4730  0.5445  0.6697
27483SOL    HW294429   8.150  11.198   1.191 -1.0252 -2.0330 -1.1921
27484SOL     OW94430   6.301  12.994  12.282 -0.2436  0.1708 -0.0361
27484SOL    HW194431   6.389  12.958  12.268  0.5684  2.0505 -0.0362
27484SOL    HW294432   6.316  13.076  12.329 -1.7147  2.0811 -2.6425
27485SOL     OW94433   4.774  10.346   7.307 -0.1962  0.2838 -0.2183
27485SOL    HW194434   4.861  10.310   7.291 -0.6531 -1.0811  0.2527
27485SOL    HW294435   4.771  10.362   7.401 -0.0079  1.6052 -0.4110
27486SOL     OW94436  13.999   9.517   7.984  0.2110  0.4776 -0.4346
27486SOL    HW194437  14.057   9.469   7.925  2.0322  0.5319  1.2433
27486SOL    HW294438  13.925   9.458   7.999  1.7224 -1.2653  0.4666
27487SOL     OW94439   2.500   4.638  11.334 -0.5217 -0.5462 -0.2170
27487SOL    HW194440   2.422   4.582  11.325 -1.3898  0.3179  1.4022
27487SOL    HW294441   2.496   4.697  11.259 -2.1444  0.2834  0.4639
27488SOL     OW94442   2.629   2.810   3.490 -0.4303 -0.4338  0.0798
27488SOL    HW194443   2.582   2.738   3.532 -0.0629 -0.1467  1.0076
27488SOL    HW294444   2.561   2.858   3.442 -1.4105  0.7967  2.5209
27489SOL     OW94445   0.403  12.498   3.091  0.1966  0.1094 -0.1915
27489SOL    HW194446   0.358  12.574   3.054 -0.7447 -0.0644  0.5447
27489SOL    HW294447   0.355  12.423   3.055 -1.9576 -0.0598  2.7046
27490SOL     OW94448   9.245   2.415   7.714 -0.3262  0.0204 -0.2512
27490SOL    HW194449   9.320   2.472   7.733  0.8249 -1.5193  0.0424
27490SOL    HW294450   9.171   2.458   7.756  0.7931  0.5459  1.2941
27491SOL     OW94451  10.557  12.290   6.512  0.2027  0.1975  0.6316
27491SOL    HW194452  10.628  12.334   6.465  0.4751 -0.7489  0.1363
27491SOL    HW294453  10.546  12.341   6.592 -1.5879  3.0750 -1.2627
27492SOL     OW94454  13.791  13.257   7.884  0.0719  0.1021 -0.0824
27492SOL    HW194455  13.851  13.227   7.816 -1.6648 -2.3563 -0.7138
27492SOL    HW294456  13.832  13.232   7.966  0.7191  0.0832 -0.4105
27493SOL     OW94457  13.023  11.863   4.442 -0.3401 -0.2123  0.0512
27493SOL    HW194458  13.114  11.874   4.467 -0.3406 -2.7140  1.5940
27493SOL    HW294459  12.999  11.777   4.478 -3.8715  1.1949  1.5348
27494SOL     OW94460  10.327   9.319   2.312 -0.4577  0.4518  0.4244
27494SOL    HW194461  10.264   9.356   2.250  0.1112  1.0414  0.1752
27494SOL    HW294462  10.311   9.225   2.310 -1.2936  0.5861  0.3355
27495SOL     OW94463   4.316   9.268   6.456  0.2292  0.1679 -0.3615
27495SOL    HW194464   4.314   9.172   6.466  2.0149 -0.1567 -2.4212
27495SOL    HW294465   4.249   9.286   6.390 -0.8809  0.5189  0.8157
27496SOL     OW94466   1.657  10.334   4.937 -0.1795  0.1798 -0.1785
27496SOL    HW194467   1.697  10.421   4.943  1.2202 -0.1941 -2.6368
27496SOL    HW294468   1.661  10.299   5.026 -1.1742  2.7481  0.9537
27497SOL     OW94469   4.037   0.803   5.043  0.1392  0.3570 -0.4694
27497SOL    HW194470   3.992   0.808   4.959 -0.5357  1.1051 -0.0772
27497SOL    HW294471   4.130   0.811   5.021 -0.0749  1.2564 -1.0858
27498SOL     OW94472  13.136   0.674   9.047  0.2259 -0.3029  0.1157
27498SOL    HW194473  13.190   0.611   9.094 -1.0060 -0.7859  0.9535
27498SOL    HW294474  13.052   0.673   9.094 -1.1680 -0.9977 -2.1901
27499SOL     OW94475  13.615  13.111   9.046 -0.1256 -0.2921 -0.5895
27499SOL    HW194476  13.681  13.056   9.088 -0.9962  0.4351  1.8948
27499SOL    HW294477  13.636  13.200   9.075 -1.7550  0.0315 -0.3195
27500SOL     OW94478   1.688   9.648   9.415 -0.0386 -0.2501 -0.1894
27500SOL    HW194479   1.661   9.689   9.332  0.3951  1.9965  0.7196
27500SOL    HW294480   1.759   9.703   9.447 -1.2131 -0.1345  2.4243
27501SOL     OW94481   9.408   4.776   9.972  0.4248 -0.3145 -1.0995
27501SOL    HW194482   9.459   4.836  10.025  0.3423 -0.1671 -1.1856
27501SOL    HW294483   9.325   4.822   9.955 -0.2752 -1.0757  0.1365
27502SOL     OW94484   3.976  12.390   0.485  0.1982  0.4661 -0.7022
27502SOL    HW194485   4.015  12.473   0.458  0.8767  0.8551  1.3088
27502SOL    HW294486   4.048  12.327   0.482  0.2626  0.4932  0.0197
27503SOL     OW94487   4.855   4.730   3.258 -0.2243  0.2698 -0.4130
27503SOL    HW194488   4.873   4.655   3.315 -0.7063 -0.0331 -0.6560
27503SOL    HW294489   4.889   4.703   3.172  1.2596  1.0452 -0.1020
27504SOL     OW94490   9.498   2.341   3.117 -0.2912  0.2268 -0.4748
27504SOL    HW194491   9.560   2.398   3.071  0.0556 -0.4780 -0.8978
27504SOL    HW294492   9.538   2.327   3.203 -0.4600  0.7453 -0.3048
27505SOL     OW94493   4.784   2.981   2.012 -0.0019  0.3518  0.2325
27505SOL    HW194494   4.702   2.991   1.964 -0.0630  1.4254  0.5524
27505SOL    HW294495   4.852   2.985   1.945 -0.2183 -1.7240 -0.1955
27506SOL     OW94496   3.162  12.283  11.531 -0.9293 -0.1879  0.1435
27506SOL    HW194497   3.164  12.192  11.561 -0.8021  0.3689  1.9514
27506SOL    HW294498   3.098  12.326  11.588 -1.6242  0.6929 -1.2456
27507SOL     OW94499   1.085   8.932   0.218 -0.2252 -0.0245 -0.7191
27507SOL    HW194500   1.118   9.022   0.216  0.0816 -0.0819  0.5080
27507SOL    HW294501   1.065   8.916   0.310  0.6206 -1.5154 -0.7506
27508SOL     OW94502   7.514   8.596   0.073 -0.4104  0.2029 -0.3628
27508SOL    HW194503   7.463   8.634   0.002  1.6676  1.1864 -1.4324
27508SOL    HW294504   7.600   8.579   0.034  0.4288 -0.3582  1.6075
27509SOL     OW94505  13.709   2.166   8.768 -0.4919 -0.0484 -0.0596
27509SOL    HW194506  13.791   2.214   8.778 -0.7606  0.6561 -1.1532
27509SOL    HW294507  13.683   2.146   8.858 -0.6833  2.3946  0.5060
27510SOL     OW94508   8.541   3.195   8.092 -0.7639 -0.3356  0.6269
27510SOL    HW194509   8.446   3.199   8.109 -0.7814  0.3956  0.3835
27510SOL    HW294510   8.578   3.265   8.146 -0.6159  0.8276 -0.9110
27511SOL     OW94511   7.366  10.998   2.179  0.5415 -0.3201 -0.1601
27511SOL    HW194512   7.452  10.964   2.205  0.6093  0.7898  1.2120
27511SOL    HW294513   7.386  11.080   2.135  0.2263 -0.5853 -0.8026
27512SOL     OW94514   7.560   0.676   4.434 -0.4317 -0.1168 -0.2087
27512SOL    HW194515   7.554   0.770   4.417 -0.1412  0.0308  0.4418
27512SOL    HW294516   7.517   0.635   4.360 -1.7570  0.5817  0.1348
27513SOL     OW94517   8.188   5.967  10.381  0.0920  0.9188 -0.5543
27513SOL    HW194518   8.152   6.054  10.362 -1.5967  0.3643 -0.0778
27513SOL    HW294519   8.113   5.916  10.410  1.4369 -0.0768  1.3813
27514SOL     OW94520  12.230   6.516   0.294 -0.2081  0.0627  0.0186
27514SOL    HW194521  12.278   6.597   0.305  0.7261 -0.1425 -1.9999
27514SOL    HW294522  12.222   6.480   0.382 -0.9116  2.4477  0.9982
27515SOL     OW94523   5.670  13.269   8.178  0.0917  0.1157  0.3812
27515SOL    HW194524   5.632  13.245   8.262 -3.2507  0.8261 -0.7799
27515SOL    HW294525   5.730  13.340   8.198 -1.1692  0.7623  2.1152
27516SOL     OW94526   3.774   3.817   5.661 -0.1180  0.0649 -0.3164
27516SOL    HW194527   3.684   3.798   5.688 -0.1601  0.6911 -0.0095
27516SOL    HW294528   3.766   3.891   5.601  0.2502  0.5534  0.2257
27517SOL     OW94529   0.746  12.193   8.118  0.1964  0.1009  0.2623
27517SOL    HW194530   0.776  12.150   8.038  0.7325  0.6896  0.1375
27517SOL    HW294531   0.752  12.287   8.098  1.5893  0.2944  1.4263
27518SOL     OW94532  12.327   0.052   3.852  0.4070  0.0580  0.3961
27518SOL    HW194533  12.418   0.058   3.824  0.5412 -1.6480  0.3993
27518SOL    HW294534  12.311   0.134   3.899  0.8189  2.0856 -2.7098
27519SOL     OW94535   5.305   1.422   7.977 -0.3370  0.1765 -0.1022
27519SOL    HW194536   5.220   1.404   8.018 -1.4379 -2.1698 -3.0581
27519SOL    HW294537   5.290   1.502   7.926 -1.1994 -0.8332 -1.4983
27520SOL     OW94538   4.097   8.052   3.838 -0.0249 -0.1119 -0.3834
27520SOL    HW194539   4.055   8.078   3.920 -0.8957  0.2021 -0.9187
27520SOL    HW294540   4.173   8.000   3.865  1.0349  1.9019  0.6903
27521SOL     OW94541   6.942   5.858   1.345 -0.2769 -0.5461 -0.0964
27521SOL    HW194542   6.990   5.941   1.337  0.2331 -0.8854 -0.6822
27521SOL    HW294543   7.004   5.792   1.315 -1.3487 -0.9214 -1.5724
27522SOL     OW94544  13.154   8.382   6.845  0.8007 -0.1987 -0.2375
27522SOL    HW194545  13.153   8.474   6.819  3.0400 -0.2643 -0.8163
27522SOL    HW294546  13.238   8.349   6.811  1.3865 -1.7009  2.3955
27523SOL     OW94547   7.041   5.118   3.981 -0.1325 -0.2010  0.5046
27523SOL    HW194548   7.111   5.059   3.951 -1.0461 -0.8239 -0.5069
27523SOL    HW294549   7.021   5.088   4.069  0.7170 -0.1705  0.7129
27524SOL     OW94550   7.015   3.201   2.016 -0.1524 -0.2480  1.0170
27524SOL    HW194551   6.990   3.163   2.100 -0.1027 -0.7921  0.7934
27524SOL    HW294552   6.933   3.235   1.980 -0.1915 -0.1055  1.2375
27525SOL     OW94553   8.504   8.695   4.688 -0.1268  0.0797  0.3465
27525SOL    HW194554   8.504   8.707   4.783  0.2205 -1.2743  0.5338
27525SOL    HW294555   8.596   8.683   4.665 -0.2151  0.3350 -0.1541
27526SOL     OW94556   6.999   0.813  10.682  0.0528 -0.7004  0.0195
27526SOL    HW194557   6.906   0.837  10.687  0.8577  2.8730  0.9395
27526SOL    HW294558   7.024   0.832  10.592 -0.1429 -2.1413 -0.3691
27527SOL     OW94559  12.386   1.952   2.430  0.0884  0.0643  0.2136
27527SOL    HW194560  12.359   2.027   2.483 -0.6989 -0.7309  0.9812
27527SOL    HW294561  12.343   1.877   2.472 -0.1677 -0.6547 -1.2732
27528SOL     OW94562   6.239   9.832   0.640  0.2945  0.4126 -0.3082
27528SOL    HW194563   6.164   9.882   0.673 -0.0442  0.2018 -0.7516
27528SOL    HW294564   6.258   9.770   0.711  3.1381  3.5415  1.9938
27529SOL     OW94565  11.243   4.426  12.310 -0.1339 -0.2071 -0.3993
27529SOL    HW194566  11.148   4.420  12.309 -0.0847 -1.3132 -0.6086
27529SOL    HW294567  11.271   4.364  12.242  0.7393 -0.1366 -0.1170
27530SOL     OW94568  10.863  10.496  11.145  0.0763  0.4627 -0.4762
27530SOL    HW194569  10.943  10.485  11.197  0.0539 -0.6413 -0.6392
27530SOL    HW294570  10.814  10.564  11.191  0.6489  0.4258  0.2160
27531SOL     OW94571   6.874   7.928  11.239 -0.2159  0.4801  0.3540
27531SOL    HW194572   6.887   7.978  11.320 -1.2231 -2.6954  2.6628
27531SOL    HW294573   6.920   7.845  11.254  0.8387  0.2912 -3.0119
27532SOL     OW94574   3.636  13.126  10.480 -0.3430 -0.1172  0.3671
27532SOL    HW194575   3.639  13.071  10.402 -1.2575  0.3081  0.0189
27532SOL    HW294576   3.593  13.206  10.451 -1.5939 -0.3346  1.5322
27533SOL     OW94577   7.835   5.913  12.831 -0.5356 -0.3786 -0.1300
27533SOL    HW194578   7.875   5.929  12.746 -0.4920  0.4265  0.0333
27533SOL    HW294579   7.753   5.963  12.829  0.0021  0.5707  0.7071
27534SOL     OW94580   0.699   7.023   7.324 -0.1452 -0.1445 -0.1609
27534SOL    HW194581   0.775   6.999   7.271  1.5819  1.3437  1.5201
27534SOL    HW294582   0.690   6.952   7.387 -0.7887 -0.7839 -0.9406
27535SOL     OW94583   2.906  11.655   5.020 -0.4348 -0.1549  0.5070
27535SOL    HW194584   2.880  11.651   4.927  2.1527 -0.0589 -0.2892
27535SOL    HW294585   2.948  11.740   5.029 -1.5347  0.2549  2.0753
27536SOL     OW94586   5.891   9.733  12.720  0.7484  0.0792 -0.3768
27536SOL    HW194587   5.904   9.803  12.656 -0.8166 -0.0911 -0.9037
27536SOL    HW294588   5.862   9.658  12.668  0.9326 -0.5187  0.3642
27537SOL     OW94589  12.747  11.241   8.314 -0.5362 -0.0445 -0.0984
27537SOL    HW194590  12.826  11.219   8.265 -1.6408 -2.4452 -0.9512
27537SOL    HW294591  12.775  11.240   8.406  0.4210 -0.9565 -0.3821
27538SOL     OW94592  13.595   0.188   2.714 -0.0471 -0.1632  0.2895
27538SOL    HW194593  13.636   0.274   2.723  0.6034 -0.0427 -2.8578
27538SOL    HW294594  13.669   0.127   2.706 -0.5226 -0.8713  1.0385
27539SOL     OW94595  10.865   8.116   2.901  0.4745  0.2422 -0.0150
27539SOL    HW194596  10.794   8.057   2.925  0.6681  0.6195  1.6717
27539SOL    HW294597  10.890   8.158   2.984  1.0531  1.8867 -0.9648
27540SOL     OW94598  13.279   2.150  13.423  0.2950 -0.8477  0.0361
27540SOL    HW194599  13.337   2.226  13.415  0.4654 -0.8149  1.3115
27540SOL    HW294600  13.197   2.179  13.384  0.3293  0.0339  0.5742
27541SOL     OW94601   0.942   8.772   0.084  0.1477  0.7821  0.3034
27541SOL    HW194602   0.986   8.847   0.123  1.4453 -0.4971  1.4464
27541SOL    HW294603   1.013   8.708   0.069 -1.3012 -1.7311  3.0350
27542SOL     OW94604   7.806   9.886   9.174 -0.3793 -0.5216 -0.3991
27542SOL    HW194605   7.865   9.811   9.171 -0.0262 -0.2228 -1.2308
27542SOL    HW294606   7.751   9.871   9.251  2.1203  0.2260  1.6324
27543SOL     OW94607   6.859   1.973  12.969  0.3312  0.5702  0.3737
27543SOL    HW194608   6.864   2.067  12.953  1.2202  0.5980  0.7669
27543SOL    HW294609   6.836   1.965  13.061 -3.3926  0.3972 -0.4479
27544SOL     OW94610   7.026  11.058  13.196  0.4489  0.2708 -0.2361
27544SOL    HW194611   7.104  11.087  13.243  1.2571 -0.5810 -0.9930
27544SOL    HW294612   7.024  10.963  13.210 -0.5483  0.3022 -0.0944
27545SOL     OW94613  10.777   2.359   5.170  0.4991 -0.0380  0.1643
27545SOL    HW194614  10.801   2.451   5.180 -1.0444  0.4287 -0.0852
27545SOL    HW294615  10.790   2.340   5.077  1.5245 -0.3006  0.3535
27546SOL     OW94616   8.994   1.166   7.377  0.1553  0.0511  0.4562
27546SOL    HW194617   8.943   1.204   7.305  0.9898  0.8545  0.2747
27546SOL    HW294618   9.024   1.082   7.342  0.6509  0.4848 -0.1953
27547SOL     OW94619  10.896   0.558   1.441  0.1058  0.3713  0.5762
27547SOL    HW194620  10.845   0.528   1.366  0.9726  0.9565 -0.2750
27547SOL    HW294621  10.833   0.602   1.498 -0.6089 -0.3161  0.3387
27548SOL     OW94622   7.332   0.776  13.606 -0.6511 -0.7584  0.1678
27548SOL    HW194623   7.417   0.821  13.609 -1.2313  0.4349 -0.8032
27548SOL    HW294624   7.348   0.693  13.653  1.2602 -0.9174 -0.6668
27549SOL     OW94625   1.127  12.703  12.945  0.3044  0.5176  0.0141
27549SOL    HW194626   1.201  12.663  12.901 -1.7704 -0.9140 -2.4745
27549SOL    HW294627   1.150  12.796  12.952  1.4243  0.5582 -2.8854
27550SOL     OW94628   2.752   9.238  12.752  0.2173 -0.4160 -0.2398
27550SOL    HW194629   2.744   9.148  12.784 -0.1061 -0.4882 -0.5244
27550SOL    HW294630   2.739   9.231  12.657 -2.0688  0.2063 -0.0224
27551SOL     OW94631  12.103   4.235  13.255  0.8512  0.3610 -0.2430
27551SOL    HW194632  12.076   4.307  13.199 -0.1136 -0.3757 -0.7722
27551SOL    HW294633  12.021   4.203  13.294  0.9427 -1.6028 -1.4786
27552SOL     OW94634   1.251  10.745   4.394 -0.0729  0.7151 -0.0736
27552SOL    HW194635   1.279  10.785   4.311  1.0160  1.7593  0.7547
27552SOL    HW294636   1.217  10.660   4.369 -1.0593  1.5425 -1.7516
27553SOL     OW94637   6.089   5.900   0.698 -0.6159  0.4060  0.4597
27553SOL    HW194638   6.181   5.925   0.704 -0.5708  0.0774  1.1962
27553SOL    HW294639   6.089   5.827   0.636 -0.4842  0.8814 -0.1126
27554SOL     OW94640   1.932  13.742  11.692  0.7864  0.1713 -0.7222
27554SOL    HW194641   1.999  13.711  11.632  2.0019  0.5246  0.3991
27554SOL    HW294642   1.850  13.702  11.660  1.9066 -2.3887 -0.6324
27555SOL     OW94643  11.129   0.723  10.713 -0.2380 -0.4446  0.2198
27555SOL    HW194644  11.134   0.718  10.618  0.2416  0.2807  0.2051
27555SOL    HW294645  11.035   0.720  10.732 -0.3000 -2.0338 -0.1783
27556SOL     OW94646   9.145   8.486   0.722 -0.4960  0.2229  0.0883
27556SOL    HW194647   9.181   8.575   0.732 -1.4937  0.7494 -0.7980
27556SOL    HW294648   9.205   8.443   0.661  0.0351  0.2535  0.5792
27557SOL     OW94649   5.583  11.090  12.458  0.1169  0.3817  0.3324
27557SOL    HW194650   5.516  11.158  12.450 -1.5981 -1.3918 -1.7331
27557SOL    HW294651   5.553  11.036  12.532 -0.2942  0.0533 -0.0722
27558SOL     OW94652   3.280   9.725   5.099  0.3376 -0.5492  0.7154
27558SOL    HW194653   3.336   9.751   5.026  0.3268 -0.7455  0.6360
27558SOL    HW294654   3.308   9.780   5.172 -0.2527  0.2712  0.3303
27559SOL     OW94655   6.763   8.734   6.072  0.1298  0.0763 -0.2301
27559SOL    HW194656   6.740   8.676   6.000  1.0999 -0.5912 -0.0320
27559SOL    HW294657   6.781   8.676   6.145  0.4127  0.6686  0.1866
27560SOL     OW94658   4.884   3.170  11.980 -0.1235 -0.0536  0.4942
27560SOL    HW194659   4.835   3.221  11.916 -0.4539 -0.6758  0.2424
27560SOL    HW294660   4.868   3.215  12.063  0.4179  0.8369  0.1320
27561SOL     OW94661   1.786   5.688   6.931 -0.2964 -0.3021 -0.0908
27561SOL    HW194662   1.872   5.723   6.906  0.0676 -1.5857 -0.7146
27561SOL    HW294663   1.770   5.723   7.019 -0.2972  2.0001 -0.9383
27562SOL     OW94664   7.656   6.575  12.813 -0.4366 -0.9601 -0.1920
27562SOL    HW194665   7.689   6.619  12.891 -1.5676 -1.2591  0.4770
27562SOL    HW294666   7.711   6.608  12.742  0.9479 -1.0626  0.7861
27563SOL     OW94667   3.818  11.891  11.662 -0.0070 -0.1740  0.2265
27563SOL    HW194668   3.779  11.920  11.745  2.7292 -0.7016  1.8099
27563SOL    HW294669   3.765  11.935  11.595 -1.2799  1.6687  2.2755
27564SOL     OW94670   2.077   6.768   8.132 -0.3736  0.1041  0.7568
27564SOL    HW194671   2.090   6.845   8.188  1.0075  0.2636  0.2708
27564SOL    HW294672   2.147   6.708   8.159 -1.8638 -1.3348  1.6432
27565SOL     OW94673   5.843   0.214   3.893  0.1097  0.0169 -0.2515
27565SOL    HW194674   5.779   0.165   3.841  0.2080 -0.3415 -0.0343
27565SOL    HW294675   5.927   0.174   3.872  0.3864  1.0107 -1.1639
27566SOL     OW94676   9.616   7.320   3.613  0.1084 -0.1871  0.4861
27566SOL    HW194677   9.701   7.294   3.576 -1.1871 -1.7163 -1.6627
27566SOL    HW294678   9.599   7.256   3.681 -0.4515 -1.5567 -0.8783
27567SOL     OW94679   4.664   8.915   1.530 -0.1469  0.5679  0.3793
27567SOL    HW194680   4.589   8.901   1.472 -1.3006  0.7689  1.7721
27567SOL    HW294681   4.698   9.000   1.504 -1.1659  1.0393  0.5374
27568SOL     OW94682   6.205   7.006   7.394  0.1288 -0.0386 -0.4042
27568SOL    HW194683   6.159   6.925   7.415 -1.1626  0.3040 -1.7568
27568SOL    HW294684   6.266   6.981   7.324  0.5848 -0.0779  0.0028
27569SOL     OW94685   6.093  11.994   6.375  0.1285 -0.4670 -0.0876
27569SOL    HW194686   6.032  11.935   6.331  0.4302 -0.5188 -0.4421
27569SOL    HW294687   6.038  12.048   6.432 -0.2075 -0.7300 -0.1622
27570SOL     OW94688  11.492   5.269   2.059 -0.0436  0.3185 -0.1063
27570SOL    HW194689  11.400   5.244   2.062 -0.1295  0.5292 -0.8287
27570SOL    HW294690  11.535   5.210   2.121 -0.6478  0.1634  0.1736
27571SOL     OW94691   7.136   3.268  12.209 -0.2421  0.4889 -0.2495
27571SOL    HW194692   7.162   3.299  12.122 -3.1512  1.0801 -1.0179
27571SOL    HW294693   7.059   3.213  12.193 -1.1063  0.9334  1.9698
27572SOL     OW94694   6.512   6.360   4.997 -0.7083 -0.2359  0.5623
27572SOL    HW194695   6.432   6.397   4.958  0.4534  0.0018 -1.7719
27572SOL    HW294696   6.553   6.435   5.042 -0.1096  0.5653 -1.2072
27573SOL     OW94697  14.033  10.048   5.635  0.5904  0.4212  0.2167
27573SOL    HW194698  14.060   9.970   5.587 -0.2180 -0.1250  0.6384
27573SOL    HW294699  13.950  10.074   5.595 -0.2097 -0.1661  1.4288
27574SOL     OW94700  13.340   3.302   7.786  0.5466 -0.3832  0.0476
27574SOL    HW194701  13.309   3.259   7.866  0.5275 -0.3966  0.0333
27574SOL    HW294702  13.413   3.247   7.757  0.5947 -0.3429  0.0909
27575SOL     OW94703   9.575   2.490   3.837 -0.2513  0.3695  0.3505
27575SOL    HW194704   9.569   2.499   3.742  0.4297 -0.3578  0.2346
27575SOL    HW294705   9.577   2.580   3.869  1.4832  0.6564 -0.4636
27576SOL     OW94706   5.969  11.972   3.212 -0.3358 -0.0258 -0.2553
27576SOL    HW194707   5.874  11.980   3.213 -0.1842  3.0793 -0.7668
27576SOL    HW294708   5.990  11.942   3.124 -0.7873  0.7342 -0.6267
27577SOL     OW94709   0.254   1.975   3.379 -0.9199 -0.0088 -0.2329
27577SOL    HW194710   0.228   1.906   3.441  0.6416  0.7833  1.3920
27577SOL    HW294711   0.349   1.982   3.389 -1.1687  3.6057  1.0917
27578SOL     OW94712   0.676   7.668  11.603 -0.1205 -0.7634 -0.5763
27578SOL    HW194713   0.768   7.648  11.583 -0.2936 -0.5215 -1.6709
27578SOL    HW294714   0.674   7.679  11.699  1.0370 -0.5221 -0.5650
27579SOL     OW94715  10.701   1.425   0.978 -0.5532 -0.7926  0.7132
27579SOL    HW194716  10.769   1.363   1.005 -0.8019 -1.4064 -0.0278
27579SOL    HW294717  10.731   1.458   0.893 -0.3694  0.1940  1.1523
27580SOL     OW94718   2.537   0.888   7.962 -0.0288 -0.1996 -0.3245
27580SOL    HW194719   2.625   0.855   7.945 -0.4792 -1.0815 -1.0001
27580SOL    HW294720   2.512   0.847   8.045  0.7670  1.2608  0.6845
27581SOL     OW94721  12.877   0.047  12.652 -0.2065  0.0720  0.1437
27581SOL    HW194722  12.893   0.035  12.558  0.6878 -1.5379  0.4604
27581SOL    HW294723  12.807  -0.015  12.672  0.9515 -1.0647  0.8699
27582SOL     OW94724   5.701  13.610   4.529 -0.0604  0.3365 -0.0580
27582SOL    HW194725   5.619  13.619   4.481  0.2952 -0.1508 -0.7847
27582SOL    HW294726   5.680  13.551   4.601  0.0308 -1.2225 -1.2518
27583SOL     OW94727   2.908   4.575   9.110 -0.0680 -0.0770  0.6408
27583SOL    HW194728   2.907   4.629   9.031  0.4979 -2.0484 -0.7656
27583SOL    HW294729   3.001   4.561   9.129 -0.2069 -0.0560  1.3839
27584SOL     OW94730   2.685  12.291   8.412 -0.5718  0.1713 -0.3399
27584SOL    HW194731   2.612  12.305   8.472  1.3818  1.4962  1.9143
27584SOL    HW294732   2.690  12.372   8.361 -0.6575  0.1166 -0.4327
27585SOL     OW94733   0.239   1.343  10.464 -0.5550  0.2557  0.2270
27585SOL    HW194734   0.317   1.398  10.475  1.2394 -1.4209 -2.7992
27585SOL    HW294735   0.180   1.397  10.412 -0.6865  0.8745  0.9935
27586SOL     OW94736   5.654  12.606   9.426 -0.0037  0.0204  0.0528
27586SOL    HW194737   5.590  12.535   9.418  0.4996 -0.6154  1.4806
27586SOL    HW294738   5.727  12.579   9.371  0.7466 -1.2356  1.6127
27587SOL     OW94739  12.687   2.464   5.920 -0.3077 -0.0429 -0.3595
27587SOL    HW194740  12.669   2.432   6.008  0.6163  0.7664  0.1302
27587SOL    HW294741  12.768   2.419   5.894 -1.9631 -2.3856 -1.9053
27588SOL     OW94742  11.278   2.163   4.923  0.1260 -0.4067  0.0508
27588SOL    HW194743  11.339   2.227   4.959 -0.3072  0.9019 -1.4561
27588SOL    HW294744  11.334   2.098   4.880  0.4893  0.5778 -0.9839
27589SOL     OW94745  11.526  12.813  13.707 -0.2797 -0.3652  0.7658
27589SOL    HW194746  11.574  12.752  13.651 -1.3588 -0.3078 -0.2653
27589SOL    HW294747  11.464  12.855  13.648 -0.3510  0.8856  1.7013
27590SOL     OW94748   1.320   1.715   2.912  0.2502 -0.1922  0.0501
27590SOL    HW194749   1.323   1.784   2.978 -0.6061 -0.1501  0.0567
27590SOL    HW294750   1.361   1.639   2.954 -0.7553 -0.3231  0.8341
27591SOL     OW94751   1.030  10.708   5.164  0.1610 -0.0541 -0.2110
27591SOL    HW194752   1.015  10.779   5.227 -1.4505  0.4534 -1.1227
27591SOL    HW294753   0.972  10.638   5.194 -1.1215  0.4338 -1.4685
27592SOL     OW94754   1.665   0.210   9.851 -0.0322  0.1794 -0.2267
27592SOL    HW194755   1.612   0.140   9.812  0.3667  0.2802 -0.9731
27592SOL    HW294756   1.620   0.231   9.932 -0.0497 -1.0886  0.1200
27593SOL     OW94757   3.804   0.338   5.161  0.1619 -0.1097 -0.0651
27593SOL    HW194758   3.845   0.388   5.231  1.0185  0.5601 -1.0264
27593SOL    HW294759   3.829   0.247   5.178 -0.8864 -0.1843  1.3324
27594SOL     OW94760  11.687  13.211  11.987 -0.3912 -0.4845  0.0719
27594SOL    HW194761  11.683  13.120  12.016 -1.0088 -0.1267  1.1814
27594SOL    HW294762  11.653  13.261  12.061 -0.8274  0.5849 -0.8216
27595SOL     OW94763   7.215   4.014   2.469  0.2247  0.0996 -0.7609
27595SOL    HW194764   7.144   4.059   2.516 -2.3788 -2.8267 -1.5037
27595SOL    HW294765   7.278   3.990   2.537 -0.8129  0.5035  0.3830
27596SOL     OW94766   3.798   4.483   7.400  0.0922 -0.5738 -0.2185
27596SOL    HW194767   3.758   4.453   7.481 -0.3215 -2.4324 -1.0511
27596SOL    HW294768   3.835   4.568   7.421 -3.1465  0.6949  0.9590
27597SOL     OW94769  12.148   3.663   4.908 -0.1644  0.0948  0.5134
27597SOL    HW194770  12.185   3.580   4.940  0.6775  0.2862  0.0763
27597SOL    HW294771  12.121   3.644   4.819 -1.4995 -0.1418  0.9471
27598SOL     OW94772   2.308   0.840   9.954  0.5773 -0.4425 -1.1108
27598SOL    HW194773   2.317   0.745   9.948 -0.1431 -0.5785 -0.1184
27598SOL    HW294774   2.360   0.865  10.029  0.7581 -0.0458 -1.3643
27599SOL     OW94775   8.516  10.786  13.686 -0.6292  0.4235 -0.3659
27599SOL    HW194776   8.435  10.817  13.725  0.4626  2.6364  0.3023
27599SOL    HW294777   8.577  10.777  13.759  0.4912  1.5022 -1.1036
27600SOL     OW94778   8.804   8.015   1.077 -0.1864 -0.4410 -0.2535
27600SOL    HW194779   8.723   8.010   1.027 -0.6910  2.6881  0.0640
27600SOL    HW294780   8.873   7.995   1.013 -1.0126  0.2689 -1.3938
27601SOL     OW94781   8.373   2.789   6.014  0.0630 -0.0590 -0.4413
27601SOL    HW194782   8.330   2.836   6.085 -0.6407 -2.2416  0.6769
27601SOL    HW294783   8.304   2.772   5.951  0.7249  2.0342 -1.8088
27602SOL     OW94784   4.508   8.418   8.059  0.4277  0.3180  0.0765
27602SOL    HW194785   4.494   8.365   7.980  2.8209 -1.1657  0.5431
27602SOL    HW294786   4.480   8.361   8.131  0.8104  0.6074  0.4534
27603SOL     OW94787   6.839   1.953   9.446 -0.2847  0.2901 -0.0001
27603SOL    HW194788   6.892   1.993   9.377 -0.3300  0.6621  0.1815
27603SOL    HW294789   6.767   2.014   9.459  0.5359  1.0016  1.4508
27604SOL     OW94790   2.748   0.470   8.316 -0.4912  0.0118 -0.4332
27604SOL    HW194791   2.832   0.445   8.276 -0.3336 -0.9253  0.4296
27604SOL    HW294792   2.743   0.565   8.303  1.8304  0.5172  1.4942
27605SOL     OW94793   3.446  12.871   8.096  0.7100  0.1572  0.2594
27605SOL    HW194794   3.539  12.850   8.102  1.0169  1.1694 -0.7527
27605SOL    HW294795   3.406  12.791   8.063  1.5096  0.3119 -1.1701
27606SOL     OW94796  10.243   0.175   1.972  1.1222 -0.3809 -0.1658
27606SOL    HW194797  10.242   0.142   2.062  1.9195  0.2977  0.1012
27606SOL    HW294798  10.225   0.269   1.981 -0.2015 -0.5538 -0.8401
27607SOL     OW94799   4.709   8.598  13.281  0.8241 -0.1253  0.2346
27607SOL    HW194800   4.615   8.599  13.302  0.8973  1.0908  0.6028
27607SOL    HW294801   4.751   8.622  13.364  1.4399 -0.2996 -0.0275
27608SOL     OW94802   9.335  13.753   5.193 -0.2529 -0.8608  0.3096
27608SOL    HW194803   9.289  13.698   5.257 -0.8602  1.9781  2.5368
27608SOL    HW294804   9.287  13.836   5.194  1.9353  0.5238 -1.1334
27609SOL     OW94805  11.877   4.100   8.382 -0.0226 -0.0305  0.2945
27609SOL    HW194806  11.807   4.164   8.394  1.0398  1.0594  0.8424
27609SOL    HW294807  11.883   4.056   8.467 -0.2260 -0.3176  0.1611
27610SOL     OW94808   6.308   2.322  13.886  0.1940  0.3789 -0.6151
27610SOL    HW194809   6.222   2.320  13.844 -1.0038 -2.8225  1.6442
27610SOL    HW294810   6.361   2.260  13.836 -0.2736 -1.0895  0.6627
27611SOL     OW94811   8.263   7.391   8.378  0.4316 -0.5503  0.3326
27611SOL    HW194812   8.272   7.359   8.289 -0.4247 -2.3720  0.8586
27611SOL    HW294813   8.319   7.470   8.381  0.5616 -0.5165 -1.7366
27612SOL     OW94814   4.357   6.037  12.114  0.4874  0.1946 -0.6191
27612SOL    HW194815   4.407   6.038  12.033  0.2181 -0.9697 -0.8211
27612SOL    HW294816   4.363   5.946  12.145  0.1934  0.5111  0.4147
27613SOL     OW94817   4.967  12.758   7.588  0.4738  0.3522  0.3116
27613SOL    HW194818   5.004  12.732   7.503 -1.0893  2.8717 -1.3005
27613SOL    HW294819   4.890  12.703   7.598 -0.5775  1.4526 -1.1043
27614SOL     OW94820   0.059   5.027   0.052 -0.4940  0.0594 -0.2837
27614SOL    HW194821   0.122   5.091   0.084 -0.2708 -0.1374 -0.3305
27614SOL    HW294822   0.088   5.007  -0.037  1.0251 -2.0997  0.6092
27615SOL     OW94823   2.482  12.866  12.648 -0.3516  0.1913 -0.1096
27615SOL    HW194824   2.468  12.915  12.567 -0.6627  0.4498  0.0974
27615SOL    HW294825   2.420  12.793  12.642  0.8164 -0.7742 -0.8842
27616SOL     OW94826   5.063   3.710  11.947 -0.4116 -0.1594 -0.1081
27616SOL    HW194827   5.087   3.739  11.860  0.7801  3.0377  1.1392
27616SOL    HW294828   5.146   3.709  11.996 -1.3758  0.6979  1.6214
27617SOL     OW94829   8.067  12.826   1.809  0.3403 -0.3609  0.0324
27617SOL    HW194830   8.061  12.763   1.881 -0.0385  0.3849  0.6732
27617SOL    HW294831   7.979  12.826   1.770  0.3048 -0.1427  0.1115
27618SOL     OW94832   3.660   3.692  11.470  0.0353 -0.0179  0.1313
27618SOL    HW194833   3.647   3.741  11.551 -0.2851  2.0608 -1.1166
27618SOL    HW294834   3.749   3.714  11.442  0.1981 -0.8443 -0.0469
27619SOL     OW94835   7.853   5.569   3.760  0.2091  0.6515  0.3105
27619SOL    HW194836   7.896   5.597   3.678  1.4434  2.2192  1.4285
27619SOL    HW294837   7.925   5.558   3.822 -0.8759  2.7353  2.0952
27620SOL     OW94838  10.477   4.293   1.506 -0.0554 -0.3786  0.2675
27620SOL    HW194839  10.528   4.339   1.439 -0.1524 -0.6240  0.0230
27620SOL    HW294840  10.503   4.201   1.497  0.0859 -0.3854  0.7058
27621SOL     OW94841   1.092   8.872  10.360  0.2233 -0.1930  0.2651
27621SOL    HW194842   1.080   8.778  10.342 -0.7199 -0.3318  1.5076
27621SOL    HW294843   1.003   8.907  10.367  0.5607  0.5094  1.2287
27622SOL     OW94844   4.180   6.717   9.683 -0.4339 -0.3766  0.3767
27622SOL    HW194845   4.256   6.661   9.669 -0.7895 -0.9189  0.5712
27622SOL    HW294846   4.211   6.806   9.664 -0.5124 -0.8648 -2.5405
27623SOL     OW94847   3.369  11.079   7.377 -0.1113 -0.1190  0.0860
27623SOL    HW194848   3.371  11.148   7.443 -0.2564  0.5416 -0.5833
27623SOL    HW294849   3.276  11.061   7.364 -0.2024  1.3333 -1.5260
27624SOL     OW94850  13.118   4.423   3.794  0.0805  0.2750  0.5306
27624SOL    HW194851  13.158   4.474   3.865 -0.7051 -1.4416  2.3230
27624SOL    HW294852  13.025   4.442   3.801  0.1043  0.9430 -0.8066
27625SOL     OW94853  10.216   7.242   3.523 -0.2131 -0.3669  0.0390
27625SOL    HW194854  10.167   7.220   3.444 -0.5346 -2.6402  0.7811
27625SOL    HW294855  10.308   7.237   3.497 -0.3229 -0.6336 -0.3059
27626SOL     OW94856  10.211   3.957   9.405 -0.2400  0.0685 -0.2986
27626SOL    HW194857  10.245   4.040   9.438  1.5446 -0.3846 -0.8822
27626SOL    HW294858  10.132   3.941   9.458 -1.1073  2.4890 -0.7307
27627SOL     OW94859   7.141   2.433   1.016  0.1819  0.0566  0.2803
27627SOL    HW194860   7.104   2.345   1.009  0.7512 -0.3464  1.8671
27627SOL    HW294861   7.222   2.429   0.964  0.2620 -0.4028  0.4336
27628SOL     OW94862  11.550  13.256   9.693 -0.5879  0.3103 -0.2025
27628SOL    HW194863  11.527  13.239   9.601  1.0060  0.1924 -0.6021
27628SOL    HW294864  11.593  13.342   9.691  1.2052 -0.5414  0.1004
27629SOL     OW94865  13.843   7.229   8.568  0.3186  0.4794 -0.1963
27629SOL    HW194866  13.860   7.183   8.486 -0.6457 -0.5923  0.1942
27629SOL    HW294867  13.789   7.304   8.543  0.5204  0.4854 -0.6162
27630SOL     OW94868  13.330   7.448  10.108 -0.1262 -0.3663  0.2174
27630SOL    HW194869  13.380   7.369  10.089  0.9542 -0.2010  2.0979
27630SOL    HW294870  13.267   7.421  10.175  1.6296  0.7163  2.4355
27631SOL     OW94871   8.068   3.896   5.746  0.3566 -0.2778  1.0178
27631SOL    HW194872   8.029   3.865   5.828  1.1025  0.6968  1.7668
27631SOL    HW294873   8.097   3.985   5.766 -0.5074  0.4180 -0.6681
27632SOL     OW94874   4.894   5.095  10.033 -0.8108 -0.4714 -0.2430
27632SOL    HW194875   4.858   5.115   9.947 -1.5912  1.1533  0.4131
27632SOL    HW294876   4.921   5.003  10.027 -1.9846 -0.7651 -1.8184
27633SOL     OW94877   1.627  12.892   4.572 -0.3306  0.5003 -0.2196
27633SOL    HW194878   1.587  12.973   4.604 -0.3537  0.8417 -1.0907
27633SOL    HW294879   1.705  12.881   4.627 -1.9853 -0.6350  2.0943
27634SOL     OW94880   7.511   5.861  12.712  0.4540  0.5108 -0.3042
27634SOL    HW194881   7.415   5.859  12.710  0.4600  0.8386 -1.3254
27634SOL    HW294882   7.532   5.909  12.792 -0.1865 -1.4617  1.1384
27635SOL     OW94883   3.270  10.819   2.780 -0.4401  0.0707 -0.0355
27635SOL    HW194884   3.296  10.756   2.847  1.8139 -0.2668 -1.1006
27635SOL    HW294885   3.263  10.766   2.700  2.2149  1.1636 -1.0999
27636SOL     OW94886   2.618   8.608  11.994  0.0591  0.3614 -0.0800
27636SOL    HW194887   2.604   8.532  12.051  2.0321  0.4438  0.5777
27636SOL    HW294888   2.653   8.571  11.913  1.3684  0.5563  0.3722
27637SOL     OW94889  13.861   6.949  11.090 -0.2896 -0.6148 -0.1729
27637SOL    HW194890  13.822   6.868  11.122  2.4677 -2.6539 -1.5063
27637SOL    HW294891  13.860   6.940  10.995  1.8300 -0.0490 -0.3066
27638SOL     OW94892   2.284   7.668   3.344  0.0425 -0.7274  0.4010
27638SOL    HW194893   2.251   7.578   3.340 -1.8631 -0.0297 -0.8330
27638SOL    HW294894   2.369   7.664   3.301 -0.6144 -1.7230 -0.8882
27639SOL     OW94895   3.080   7.480  12.711 -0.1491  0.0379 -0.4981
27639SOL    HW194896   3.135   7.499  12.787 -0.0671 -0.0786 -0.5275
27639SOL    HW294897   3.042   7.394  12.729 -1.0761  0.5254 -0.0397
27640SOL     OW94898  10.996   8.004  10.989  0.5955 -0.1977  0.4289
27640SOL    HW194899  10.942   8.057  11.047  0.2633  1.8307 -1.6453
27640SOL    HW294900  11.086   8.021  11.018  0.5139  1.7864 -0.3698
27641SOL     OW94901   8.228   7.776   0.909  1.2763 -0.3788  0.3855
27641SOL    HW194902   8.270   7.832   0.842  2.2999 -1.2711  0.2622
27641SOL    HW294903   8.235   7.688   0.874 -0.4621 -0.5979  0.5188
27642SOL     OW94904   8.009   3.633   9.247 -1.0425 -0.3198 -0.2919
27642SOL    HW194905   8.006   3.620   9.152 -1.3579 -0.7864 -0.2202
27642SOL    HW294906   8.004   3.728   9.258  0.6977 -0.1438 -0.8035
27643SOL     OW94907   9.330   4.594  13.530  0.3023  0.9484 -0.1173
27643SOL    HW194908   9.260   4.545  13.575 -1.1341  2.5953 -0.4468
27643SOL    HW294909   9.396   4.528  13.509 -1.3577 -0.7755 -0.1836
27644SOL     OW94910   8.371   0.446  11.687 -0.5645  0.5706 -0.0210
27644SOL    HW194911   8.456   0.483  11.711  0.1488 -1.1405  0.2322
27644SOL    HW294912   8.356   0.478  11.598 -0.3588  2.0443  0.4461
27645SOL     OW94913  11.727   2.421   2.375 -0.2058  0.3211  0.3530
27645SOL    HW194914  11.779   2.493   2.409 -0.4889  1.3563 -1.2723
27645SOL    HW294915  11.784   2.379   2.311 -0.5571  0.0314  0.2306
27646SOL     OW94916   1.175   6.177   3.174 -0.2447 -0.1888 -0.4346
27646SOL    HW194917   1.181   6.155   3.081 -2.6332 -0.6579 -0.5634
27646SOL    HW294918   1.138   6.265   3.176 -2.0440 -0.8873 -0.0262
27647SOL     OW94919  11.514   2.883   1.307 -0.1150  0.3397 -0.5294
27647SOL    HW194920  11.505   2.970   1.345 -1.1147  0.6760 -1.5132
27647SOL    HW294921  11.553   2.831   1.378  1.6000  1.8262 -0.3047
27648SOL     OW94922  10.896   4.835   5.566 -0.0784  0.6765  0.4798
27648SOL    HW194923  10.859   4.914   5.526  1.7882  2.1722  1.5778
27648SOL    HW294924  10.947   4.867   5.640 -0.1400 -1.6794  1.6314
27649SOL     OW94925   5.095   5.779   7.515  0.3231 -0.0368 -0.4696
27649SOL    HW194926   5.145   5.838   7.459  1.1732  0.3550  0.6586
27649SOL    HW294927   5.162   5.726   7.559 -0.3674 -0.9658 -0.5073
27650SOL     OW94928   6.787  13.141   4.941  0.3060 -0.0327 -0.8264
27650SOL    HW194929   6.834  13.062   4.966 -0.5438 -0.2559  0.1758
27650SOL    HW294930   6.834  13.212   4.985  0.1419 -0.1766 -0.4090
27651SOL     OW94931   2.058   5.897  11.208 -0.4935 -0.2382 -0.2250
27651SOL    HW194932   2.077   5.990  11.216 -0.9081 -0.1508 -0.2439
27651SOL    HW294933   1.963   5.892  11.196 -0.6014 -0.7095  0.6906
27652SOL     OW94934  13.634   6.155   2.712  0.1004 -0.0854  0.4721
27652SOL    HW194935  13.601   6.105   2.786 -1.3555  0.6196  0.3289
27652SOL    HW294936  13.678   6.230   2.752  1.2047 -0.7959  0.6486
27653SOL     OW94937   8.890   5.273   8.217  0.5383 -0.0164 -0.1560
27653SOL    HW194938   8.934   5.196   8.179 -1.1527 -1.7492  1.1728
27653SOL    HW294939   8.902   5.262   8.311 -0.7831  0.6962  0.1078
27654SOL     OW94940   4.182  11.540  12.456  0.2307 -0.3357  0.3364
27654SOL    HW194941   4.097  11.507  12.427 -0.3926  0.2294  1.4445
27654SOL    HW294942   4.161  11.596  12.531  1.6102 -0.3949  0.7845
27655SOL     OW94943  10.724  10.290   2.927 -0.3257  0.0577  0.2316
27655SOL    HW194944  10.782  10.365   2.941 -1.2167  0.7701  0.1998
27655SOL    HW294945  10.782  10.215   2.923  0.7049  0.9001 -1.0696
27656SOL     OW94946   5.586   5.468   4.940  0.0015  0.2877  0.4907
27656SOL    HW194947   5.615   5.558   4.924 -0.1397  0.1464 -0.6175
27656SOL    HW294948   5.536   5.474   5.022 -1.7048  1.6180 -0.5891
27657SOL     OW94949   1.394  13.198   7.542  0.0654 -0.5134 -0.4687
27657SOL    HW194950   1.406  13.292   7.532  0.6040 -0.7926 -3.3680
27657SOL    HW294951   1.300  13.184   7.525  0.3231 -0.6472 -1.8553
27658SOL     OW94952   9.592   0.186   1.435  0.0331 -0.5370  0.2567
27658SOL    HW194953   9.678   0.172   1.475  0.4114  0.3066 -0.2421
27658SOL    HW294954   9.534   0.204   1.509  0.7459  1.1082  0.4594
27659SOL     OW94955  11.268   6.554   4.664 -0.4127  0.0630 -0.1936
27659SOL    HW194956  11.307   6.481   4.714 -0.6295  0.7712  1.0511
27659SOL    HW294957  11.336   6.621   4.663 -1.2064  0.9297  1.1462
27660SOL     OW94958   2.141   7.486   8.581  0.3466  0.1189  0.4570
27660SOL    HW194959   2.155   7.562   8.637  2.6536 -0.1434  0.3458
27660SOL    HW294960   2.187   7.414   8.626 -0.1874 -0.7571 -0.3643
27661SOL     OW94961   8.476   1.239   9.007 -0.2817 -0.2632 -0.2249
27661SOL    HW194962   8.496   1.297   9.081 -0.0969 -1.9925  1.1542
27661SOL    HW294963   8.382   1.249   8.994 -0.2621  0.3068  0.0264
27662SOL     OW94964   8.806  13.074   6.165  0.6584 -0.1845 -0.1649
27662SOL    HW194965   8.808  12.983   6.135  0.4721  0.3298 -1.8689
27662SOL    HW294966   8.714  13.089   6.188  1.1742 -1.2396  3.0141
27663SOL     OW94967   5.209   8.637   0.456 -0.4254  0.0929  0.1847
27663SOL    HW194968   5.168   8.720   0.430 -0.6631  0.1145  0.6199
27663SOL    HW294969   5.248   8.604   0.375  0.0913  0.8681  0.1005
27664SOL     OW94970   3.028   3.052   2.876 -0.0510 -0.3943  0.1920
27664SOL    HW194971   2.943   3.011   2.893 -0.6588  0.5949 -0.3860
27664SOL    HW294972   3.038   3.116   2.947  0.3150 -0.6678  0.3864
27665SOL     OW94973   5.056   4.724  12.790  0.1740  0.0831  0.3064
27665SOL    HW194974   5.042   4.800  12.734 -0.5625 -1.5874 -1.9392
27665SOL    HW294975   5.149   4.704  12.779 -0.5279 -2.1054 -3.1048
27666SOL     OW94976   6.444   5.022  11.856 -0.4866  0.6783  0.2780
27666SOL    HW194977   6.374   5.087  11.859  0.1010  1.3680 -0.4734
27666SOL    HW294978   6.500   5.051  11.785  0.0889 -0.3587  0.2911
27667SOL     OW94979   9.169  12.810   0.617  0.2818 -0.3839  0.3594
27667SOL    HW194980   9.088  12.766   0.589  0.0575  0.1201  0.2077
27667SOL    HW294981   9.208  12.842   0.536 -0.2598  0.8958  0.5810
27668SOL     OW94982   0.344   9.109  11.893  0.0783 -0.6109  0.2050
27668SOL    HW194983   0.404   9.177  11.921  0.6339 -0.6363 -0.8532
27668SOL    HW294984   0.349   9.042  11.961 -0.5723  0.4487  1.3178
27669SOL     OW94985  10.718  13.296  13.593  0.0199 -0.1095  0.4208
27669SOL    HW194986  10.759  13.211  13.612 -1.0318 -0.5386  0.8566
27669SOL    HW294987  10.764  13.358  13.648  0.6819 -0.4269  0.2362
27670SOL     OW94988   9.438   9.775   8.534 -0.1093  0.6268  0.4279
27670SOL    HW194989   9.364   9.751   8.479  0.0639  1.5990 -0.2508
27670SOL    HW294990   9.399   9.812   8.612 -0.3817 -1.6212  1.4438
27671SOL     OW94991   0.662   1.275  10.934 -0.0712 -0.1458 -0.5600
27671SOL    HW194992   0.723   1.247  10.865 -0.4264 -0.3235 -0.8021
27671SOL    HW294993   0.718   1.316  11.000  0.5467 -1.8982  0.0562
27672SOL     OW94994  11.059   0.777   1.683 -0.7863  0.4803  1.1727
27672SOL    HW194995  11.111   0.853   1.659 -1.2100  0.3999 -0.0909
27672SOL    HW294996  10.968   0.806   1.673 -0.9634  0.1343  1.7549
27673SOL     OW94997   3.780  12.835   5.419  0.0801 -0.4094 -0.1864
27673SOL    HW194998   3.870  12.809   5.401  0.0087 -0.2063 -0.8830
27673SOL    HW294999   3.787  12.920   5.462  0.1820  0.5560 -2.0111
27674SOL     OW95000   2.053  13.028   1.842 -0.0136  0.3539 -0.4068
27674SOL    HW195001   2.027  13.117   1.868 -1.3684  0.1258 -0.8927
27674SOL    HW295002   2.076  13.036   1.749 -0.5227  0.1210 -0.5530
27675SOL     OW95003  12.163   6.403   8.672 -0.2651  0.0020  0.3936
27675SOL    HW195004  12.162   6.448   8.587 -0.6346  0.4036  0.6065
27675SOL    HW295005  12.218   6.326   8.657  2.2652  1.6313  0.5950
27676SOL     OW95006  10.104  10.817   5.838  0.1444  0.0283  0.0214
27676SOL    HW195007  10.185  10.768   5.823  0.4891  0.1830  1.2887
27676SOL    HW295008  10.134  10.906   5.856 -0.4232  0.5151 -1.3306
27677SOL     OW95009  11.193   6.783   4.375  0.0947 -0.1833 -0.0848
27677SOL    HW195010  11.254   6.852   4.401 -0.9993  0.3236  1.2965
27677SOL    HW295011  11.236   6.738   4.302  1.9620  0.3263  0.6559
27678SOL     OW95012  13.515   8.953   3.778 -0.4491 -0.5176 -0.7346
27678SOL    HW195013  13.545   9.043   3.767  1.5180 -1.2749 -2.1289
27678SOL    HW295014  13.420   8.961   3.788 -0.2198  1.7529  0.2095
27679SOL     OW95015  11.688  10.505  10.902  0.0278  0.4884 -0.0475
27679SOL    HW195016  11.653  10.587  10.869 -1.1413 -0.0264 -0.1164
27679SOL    HW295017  11.658  10.439  10.840 -1.2072 -0.3343  1.3550
27680SOL     OW95018   2.749   2.637   7.695 -0.2534  0.1122 -0.3167
27680SOL    HW195019   2.842   2.653   7.711 -0.4280  0.1294  0.7183
27680SOL    HW295020   2.746   2.609   7.603  0.7084  0.5728 -0.5084
27681SOL     OW95021   3.315   2.729   5.181  0.0062 -0.5930  0.1680
27681SOL    HW195022   3.407   2.753   5.194 -0.2124  1.1337 -1.1287
27681SOL    HW295023   3.318   2.636   5.158  1.5407 -0.3669 -0.7084
27682SOL     OW95024  13.422   9.790   5.095  0.4521 -0.4447  0.6152
27682SOL    HW195025  13.387   9.783   5.184 -1.7376 -1.3529 -0.2485
27682SOL    HW295026  13.357   9.745   5.040  2.2145 -0.7462 -1.3359
27683SOL     OW95027  13.888  12.094   7.467  0.4241 -0.3209 -0.3530
27683SOL    HW195028  13.862  12.181   7.498 -0.2171 -0.6941  0.1821
27683SOL    HW295029  13.962  12.110   7.408  0.2259  0.5955 -0.3586
27684SOL     OW95030  12.166   5.097   7.232 -1.0086 -0.0270 -0.4220
27684SOL    HW195031  12.134   5.100   7.322 -1.3672  1.2602 -0.5720
27684SOL    HW295032  12.090   5.070   7.180 -1.3394  1.1119 -0.5495
27685SOL     OW95033   7.540   2.331  12.076  0.3546  0.3221  0.3359
27685SOL    HW195034   7.457   2.315  12.033 -0.0983  1.3808  0.7740
27685SOL    HW295035   7.523   2.315  12.169  0.1406  2.1635  0.6637
27686SOL     OW95036   1.234   1.885   8.758 -0.0500 -0.2336  0.4149
27686SOL    HW195037   1.161   1.824   8.772  0.0125 -0.2190  0.8244
27686SOL    HW295038   1.244   1.929   8.842  2.0757 -2.0290  1.2200
27687SOL     OW95039   8.816   0.536   0.376 -0.5088 -0.0304  0.1631
27687SOL    HW195040   8.885   0.582   0.328 -1.2421 -0.3940 -1.3100
27687SOL    HW295041   8.779   0.476   0.312 -2.0597  0.0047  0.9839
27688SOL     OW95042   7.536  12.184  13.067  0.0130  0.4106 -0.6262
27688SOL    HW195043   7.554  12.109  13.010 -1.5656 -1.0998  0.7533
27688SOL    HW295044   7.444  12.204  13.054  0.0217  1.0843  0.2044
27689SOL     OW95045  13.951  10.869   8.846  0.3939 -0.2914 -0.0434
27689SOL    HW195046  14.009  10.863   8.922  0.4409  0.0685 -0.0487
27689SOL    HW295047  14.011  10.870   8.771  0.3516 -0.5503 -0.0815
27690SOL     OW95048   9.352  10.633  11.076  0.3237 -0.3005 -0.0374
27690SOL    HW195049   9.376  10.705  11.018 -0.0074 -0.7501 -0.7618
27690SOL    HW295050   9.257  10.625  11.066  0.3990 -1.0379 -0.2235
27691SOL     OW95051   2.845  13.612   4.846 -0.7518  0.0239  0.1306
27691SOL    HW195052   2.753  13.635   4.830 -0.2130  2.7424  0.6365
27691SOL    HW295053   2.881  13.685   4.894  1.9373 -0.5864 -0.7640
27692SOL     OW95054   0.722   6.199  13.075  0.2833 -1.0144 -0.4207
27692SOL    HW195055   0.808   6.189  13.035  0.1879 -0.5549 -0.7494
27692SOL    HW295056   0.710   6.294  13.083 -0.7144 -1.0102 -1.5535
27693SOL     OW95057   4.117   2.900   6.859 -0.2793  0.0686  0.1309
27693SOL    HW195058   4.062   2.974   6.836  1.3737  0.7594 -1.8617
27693SOL    HW295059   4.159   2.873   6.777 -1.3955 -3.6310  0.5705
27694SOL     OW95060   6.396   8.409   5.696  0.1745  0.3417 -0.2275
27694SOL    HW195061   6.388   8.332   5.753  0.2779 -0.3473 -1.1141
27694SOL    HW295062   6.424   8.479   5.755  1.0901 -0.5442  0.4349
27695SOL     OW95063   4.694   6.355   2.481  0.0725 -0.6393 -0.5954
27695SOL    HW195064   4.598   6.362   2.480  0.0131 -1.3506 -0.8589
27695SOL    HW295065   4.712   6.300   2.557  0.2087 -1.2198 -1.0413
27696SOL     OW95066  11.076   0.712   4.130  0.1617  0.4171 -0.1377
27696SOL    HW195067  11.015   0.688   4.061  0.7692  0.1999 -0.6045
27696SOL    HW295068  11.035   0.788   4.172 -1.0700 -0.5292  0.4303
27697SOL     OW95069  12.372  12.047   5.936  0.1924  0.4083  0.6221
27697SOL    HW195070  12.282  12.044   5.905  1.0485 -0.6991 -2.0319
27697SOL    HW295071  12.394  12.140   5.936  0.0137  0.5361 -2.0217
27698SOL     OW95072  13.077   1.232   1.223 -0.0496  0.1469  0.6337
27698SOL    HW195073  13.151   1.286   1.195  0.1218  0.0953  0.9882
27698SOL    HW295074  13.027   1.288   1.282 -0.1666  0.0985  0.5824
27699SOL     OW95075  12.106   6.921   5.156 -0.1448  0.2733 -0.0568
27699SOL    HW195076  12.076   6.862   5.225  1.1104  1.3586  1.4889
27699SOL    HW295077  12.072   7.007   5.181  2.1121  1.0895  0.4657
27700SOL     OW95078   3.864  12.322   6.490 -0.6365 -0.2284  0.2154
27700SOL    HW195079   3.776  12.337   6.526 -0.2628  1.2381  0.5850
27700SOL    HW295080   3.875  12.392   6.425 -0.1049 -0.9899 -0.5400
27701SOL     OW95081   5.136  13.861   7.641 -0.2889 -0.5699 -0.3993
27701SOL    HW195082   5.099  13.813   7.715  0.3014  1.1630  1.0768
27701SOL    HW295083   5.062  13.908   7.603 -0.4126 -0.6944 -0.3135
27702SOL     OW95084  12.369   0.367   5.267 -0.0244  0.0733 -0.3743
27702SOL    HW195085  12.303   0.431   5.294  0.4304  0.2500  0.3502
27702SOL    HW295086  12.436   0.418   5.223  1.5607  0.5412  2.3371
27703SOL     OW95087   7.375   2.737   0.171 -0.1875 -0.3834  0.2381
27703SOL    HW195088   7.387   2.832   0.179  2.1063 -0.5228 -0.6759
27703SOL    HW295089   7.342   2.725   0.082 -0.4656 -0.4568  0.3501
27704SOL     OW95090   0.715   1.783   4.577 -0.3145 -0.1201  0.0872
27704SOL    HW195091   0.742   1.803   4.488  0.4223  0.8380  0.4979
27704SOL    HW295092   0.780   1.719   4.608 -0.2931 -0.1011  0.0821
27705SOL     OW95093  12.935   2.088   3.870  0.3160 -0.0141 -0.0246
27705SOL    HW195094  12.996   2.020   3.900  1.2792  0.4034 -0.9719
27705SOL    HW295095  12.991   2.163   3.849 -0.6127  0.6655 -0.1323
27706SOL     OW95096   3.936   7.001   2.986 -0.0451 -0.4641  0.0901
27706SOL    HW195097   3.884   6.946   2.928 -0.6415  0.0155  0.1638
27706SOL    HW295098   3.918   7.091   2.958  1.7173 -0.3233 -0.6991
27707SOL     OW95099   6.278   2.932   4.915 -0.6665  0.2842  0.1168
27707SOL    HW195100   6.194   2.911   4.874 -0.4998 -0.7855  0.2903
27707SOL    HW295101   6.280   2.876   4.993 -0.1415  0.8882  0.5366
27708SOL     OW95102  11.075   8.024   8.366  0.1633 -0.0474  0.4622
27708SOL    HW195103  11.062   7.961   8.295  0.1426 -0.1603  0.5651
27708SOL    HW295104  11.161   8.061   8.350  0.2231 -0.1855  0.4643
27709SOL     OW95105   7.640  10.289   8.467 -0.3461 -0.1828  0.3183
27709SOL    HW195106   7.580  10.358   8.438 -0.3381  0.3266  1.4679
27709SOL    HW295107   7.682  10.259   8.386 -1.2481  0.2995 -0.3520
27710SOL     OW95108  12.709  11.881  14.005  0.1987 -0.4679  0.4106
27710SOL    HW195109  12.784  11.830  13.972 -0.1510 -0.6480 -0.1290
27710SOL    HW295110  12.633  11.841  13.962  0.0486  1.5350 -1.3640
27711SOL     OW95111   3.181   2.662   6.504 -0.3251  0.5255  0.0755
27711SOL    HW195112   3.087   2.668   6.488 -0.0206  0.0305 -2.3095
27711SOL    HW295113   3.201   2.569   6.496  0.3776  0.6274  0.5297
27712SOL     OW95114   5.276   9.068  11.714  0.2401 -0.1221  0.2753
27712SOL    HW195115   5.316   8.994  11.669 -2.4755 -1.7901  0.3985
27712SOL    HW295116   5.331   9.080  11.792  0.4449 -2.4532  0.5747
27713SOL     OW95117  11.038  12.516   8.494  0.2745 -0.1228  0.9926
27713SOL    HW195118  10.962  12.460   8.513  0.1840 -0.6756 -0.8104
27713SOL    HW295119  11.083  12.472   8.422 -1.5626  3.5848 -2.8590
27714SOL     OW95120   5.036   9.995   3.667  0.1005  0.2891  0.5057
27714SOL    HW195121   5.037  10.036   3.753  2.9731 -1.7067  1.5754
27714SOL    HW295122   4.960   9.936   3.669  0.3724 -0.0544  1.8906
27715SOL     OW95123   1.410  13.705   3.287 -0.2671 -0.7262 -0.2747
27715SOL    HW195124   1.390  13.611   3.294 -0.8379 -0.6158 -0.3331
27715SOL    HW295125   1.324  13.747   3.283 -0.0275 -0.1224  0.7114
27716SOL     OW95126   1.840   6.487   9.440 -0.1719  0.2414  0.0938
27716SOL    HW195127   1.916   6.519   9.489  1.0255  0.2230 -1.6515
27716SOL    HW295128   1.765   6.511   9.493  1.0330  0.6574  1.6720
27717SOL     OW95129   2.085   8.371  12.786  0.4348 -0.0960  0.2036
27717SOL    HW195130   2.168   8.404  12.819  0.2250 -0.0568  0.7115
27717SOL    HW295131   2.023   8.387  12.857 -0.7792  2.9932 -1.3549
27718SOL     OW95132   9.293   4.320   6.196 -0.3490  0.2677  0.3155
27718SOL    HW195133   9.244   4.238   6.186  1.0428 -1.0423  2.9432
27718SOL    HW295134   9.375   4.294   6.238  0.6919  2.8924  0.1188
27719SOL     OW95135   8.755  13.690   5.430 -0.2172 -0.0580 -0.4587
27719SOL    HW195136   8.697  13.636   5.484  1.9564 -0.9800  1.1773
27719SOL    HW295137   8.742  13.779   5.462  0.0478 -0.4158  0.7406
27720SOL     OW95138   0.393   9.869   6.499 -0.0953 -0.8783  0.1577
27720SOL    HW195139   0.396   9.787   6.450 -2.0363 -2.0404  1.8090
27720SOL    HW295140   0.337   9.926   6.447  1.3755 -0.4960 -1.0687
27721SOL     OW95141   9.405   9.775   6.784  0.1810 -0.3802 -0.1340
27721SOL    HW195142   9.422   9.741   6.696  2.4652  0.6679 -0.1889
27721SOL    HW295143   9.377   9.865   6.770  0.8388 -0.1143  0.1749
27722SOL     OW95144   6.084  11.851  11.293 -0.2517  0.3578 -0.5527
27722SOL    HW195145   6.157  11.911  11.274 -0.7334  0.7038 -1.3952
27722SOL    HW295146   6.006  11.905  11.283 -0.6405 -0.0241  0.2830
27723SOL     OW95147  12.346  13.878   2.535 -0.4231  0.0188 -0.1091
27723SOL    HW195148  12.382  13.811   2.593  0.7856  0.0341 -0.8151
27723SOL    HW295149  12.374  13.852   2.448 -3.0665 -0.5732 -0.8867
27724SOL     OW95150   4.359   7.197   0.515  0.2125 -0.1945 -0.3577
27724SOL    HW195151   4.353   7.241   0.430 -1.4833  0.8805  0.2742
27724SOL    HW295152   4.357   7.103   0.494  0.8714  0.0382 -1.5420
27725SOL     OW95153   6.213   2.071   6.248 -0.5654  0.1484 -0.4506
27725SOL    HW195154   6.130   2.026   6.266 -0.1012 -1.0957 -1.2917
27725SOL    HW295155   6.272   2.001   6.219  1.8586  0.3365  3.3145
27726SOL     OW95156   4.075   3.468   7.045 -0.3760 -0.6701  0.5695
27726SOL    HW195157   4.059   3.408   7.118  2.9012 -1.8469  0.4825
27726SOL    HW295158   4.072   3.413   6.967 -1.2938  0.0921  0.0462
27727SOL     OW95159   7.825   0.088   0.960  0.7064  0.0187  0.1358
27727SOL    HW195160   7.830   0.111   0.867 -0.2205 -0.3691 -0.0241
27727SOL    HW295161   7.770   0.009   0.962  2.4498 -1.2302  0.8132
27728SOL     OW95162  12.238   6.929  12.672  0.0873 -0.4400 -0.2115
27728SOL    HW195163  12.321   6.977  12.664 -0.9216  1.3875 -0.1776
27728SOL    HW295164  12.216   6.935  12.765 -0.0229 -1.0515 -0.1968
27729SOL     OW95165   0.205   3.571   4.989 -0.7064 -0.2990  0.5814
27729SOL    HW195166   0.274   3.551   5.052 -0.9478 -0.2834  0.8558
27729SOL    HW295167   0.157   3.489   4.980  0.2491 -0.7379 -0.7547
27730SOL     OW95168   3.624   6.355   4.386  0.4420 -0.3539 -0.0219
27730SOL    HW195169   3.598   6.305   4.463  0.9093  0.5018  0.7062
27730SOL    HW295170   3.694   6.303   4.346  0.1685 -0.8206  0.0959
27731SOL     OW95171  10.289   9.951   1.203 -0.8243 -0.6806  0.3345
27731SOL    HW195172  10.295  10.037   1.245 -0.1096 -0.8950  0.6881
27731SOL    HW295173  10.301   9.969   1.110 -0.2719 -0.4401  0.4479
27732SOL     OW95174   3.980   6.607   2.408 -0.1946  0.4142  0.1025
27732SOL    HW195175   4.037   6.536   2.438  0.7229  0.9645 -0.2967
27732SOL    HW295176   3.969   6.591   2.314 -1.0904  0.0464  0.2670
27733SOL     OW95177   7.966   0.445   0.060  0.2021 -0.3197  0.2791
27733SOL    HW195178   7.926   0.438   0.147  3.0645  4.1203  2.3072
27733SOL    HW295179   8.039   0.382   0.063 -1.4531 -2.3961 -0.2702
27734SOL     OW95180  12.793  12.157   5.296 -0.6334  0.5105  0.0794
27734SOL    HW195181  12.780  12.251   5.309 -1.2092  0.3255  0.9347
27734SOL    HW295182  12.746  12.137   5.216  0.3856  1.1372 -0.6978
27735SOL     OW95183   5.111   7.083   4.941  0.0907 -0.1734  0.3156
27735SOL    HW195184   5.157   6.999   4.939 -1.4599 -1.0306  0.0421
27735SOL    HW295185   5.170   7.140   4.991  1.1012 -1.4456  0.6420
27736SOL     OW95186  13.377   8.357  11.580  0.4382  0.2727 -0.3859
27736SOL    HW195187  13.321   8.381  11.654  0.5668 -0.4313 -0.0508
27736SOL    HW295188  13.466   8.358  11.616  0.3693 -1.8484 -0.0156
27737SOL     OW95189   3.958   6.156   8.330 -0.0067  0.0617  0.1167
27737SOL    HW195190   3.980   6.081   8.276 -0.6908  0.0450 -0.1420
27737SOL    HW295191   3.988   6.132   8.418 -0.0068 -0.4149 -0.0130
27738SOL     OW95192  11.494  10.876   0.849 -0.6243 -0.1186  0.3995
27738SOL    HW195193  11.573  10.848   0.895 -1.1168 -3.6531 -0.5609
27738SOL    HW295194  11.525  10.935   0.781  0.9586 -0.1550  1.0511
27739SOL     OW95195   5.541  11.941   3.608 -0.2618 -0.1244 -0.2063
27739SOL    HW195196   5.516  11.998   3.535 -2.1170 -1.2971 -0.5464
27739SOL    HW295197   5.614  11.986   3.650  0.3840  0.9498 -2.3446
27740SOL     OW95198  10.454  13.288  10.532 -0.1999 -0.4063  0.5599
27740SOL    HW195199  10.518  13.222  10.504 -0.5974  0.0760 -1.6794
27740SOL    HW295200  10.376  13.268  10.480 -1.4915 -0.2545  2.3817
27741SOL     OW95201  10.909   8.518   3.242 -0.2330 -0.2120 -0.0216
27741SOL    HW195202  10.924   8.423   3.234 -0.2504 -0.2235  0.0869
27741SOL    HW295203  10.877   8.543   3.155  0.0996 -0.2449 -0.1564
27742SOL     OW95204   8.118   6.148   4.987  0.0135  0.8579 -0.3077
27742SOL    HW195205   8.112   6.226   4.933 -2.3165  1.1875  0.3298
27742SOL    HW295206   8.027   6.119   4.999  0.6070 -0.4074  1.6778
27743SOL     OW95207  11.473   8.479  12.600  0.0883 -0.0226 -0.2587
27743SOL    HW195208  11.380   8.460  12.607  0.0633  0.1038 -0.2468
27743SOL    HW295209  11.517   8.398  12.627 -0.0159  0.0471  0.1217
27744SOL     OW95210   6.891   2.545   0.961 -0.3008  0.1940 -0.4384
27744SOL    HW195211   6.907   2.543   0.867  0.2870  1.4168 -0.3890
27744SOL    HW295212   6.968   2.503   0.999 -1.6472 -2.6131 -0.5497
27745SOL     OW95213   0.092   5.691   3.694  0.2338  0.6193  0.2007
27745SOL    HW195214   0.049   5.669   3.612 -1.8785  0.6692  1.2238
27745SOL    HW295215   0.138   5.611   3.720 -1.7180 -0.4609  0.5090
27746SOL     OW95216   9.681   3.958  10.503 -0.1521 -0.1991 -0.4212
27746SOL    HW195217   9.590   3.928  10.495 -0.3829  0.4875 -0.4748
27746SOL    HW295218   9.700   3.953  10.596  0.2584 -1.7421 -0.5593
27747SOL     OW95219   6.936   9.743   0.217  0.8703 -0.6169 -0.1517
27747SOL    HW195220   6.951   9.732   0.123  0.1142 -1.5460 -0.1865
27747SOL    HW295221   6.993   9.678   0.258  2.0606  0.5615  0.1178
27748SOL     OW95222   9.903   1.591   5.438  0.4457 -0.1195  0.1308
27748SOL    HW195223   9.884   1.498   5.448  2.1938 -0.4367  0.8795
27748SOL    HW295224   9.898   1.607   5.344 -0.5275 -0.8077  0.0590
27749SOL     OW95225   8.890  12.016   0.158  0.1418 -0.2599 -0.5371
27749SOL    HW195226   8.820  12.078   0.138  3.1556  2.6042 -3.5809
27749SOL    HW295227   8.902  12.023   0.253 -2.1067  0.8525 -0.2568
27750SOL     OW95228   7.056   0.463   9.691  0.3329 -0.4151  0.6509
27750SOL    HW195229   7.135   0.483   9.639 -1.4098 -0.1269 -2.0975
27750SOL    HW295230   7.079   0.384   9.740  2.3423 -0.3458 -0.0829
27751SOL     OW95231   1.211  12.949   3.648 -0.0525  0.3374 -0.1005
27751SOL    HW195232   1.163  12.998   3.715  1.1887 -1.2303  2.0753
27751SOL    HW295233   1.154  12.875   3.628 -0.3721  0.7447 -0.7250
27752SOL     OW95234   7.049   8.771  13.555  0.8058  0.5158 -0.4743
27752SOL    HW195235   6.996   8.800  13.480 -2.1550 -1.6896  0.5629
27752SOL    HW295236   7.058   8.849  13.609 -1.5885  1.0292 -0.6841
27753SOL     OW95237   7.881   5.134  12.555  0.3115  0.2547 -0.5029
27753SOL    HW195238   7.789   5.111  12.541 -0.3260  2.6571 -0.6841
27753SOL    HW295239   7.889   5.140  12.650  0.0190  0.9736 -0.5200
27754SOL     OW95240   3.053   4.984   6.367 -0.5728  0.0521 -0.1431
27754SOL    HW195241   2.964   5.018   6.377 -0.9667 -0.6937 -0.9630
27754SOL    HW295242   3.051   4.936   6.285  0.2266 -1.1050  0.4897
27755SOL     OW95243   8.743  10.748   2.447 -0.2107 -0.1213 -0.1614
27755SOL    HW195244   8.708  10.754   2.358 -0.6610  2.2497  0.0936
27755SOL    HW295245   8.683  10.689   2.492 -0.2598 -0.9641 -1.2679
27756SOL     OW95246  12.930   6.443   7.323  0.0316 -0.1595 -0.7418
27756SOL    HW195247  12.967   6.517   7.371  0.3022  0.7461 -2.2937
27756SOL    HW295248  12.999   6.415   7.263 -0.8164 -0.2358 -1.7194
27757SOL     OW95249   6.641  10.665   9.877 -0.4425 -0.6970  0.3306
27757SOL    HW195250   6.731  10.645   9.904 -0.5228 -0.6922  0.6017
27757SOL    HW295251   6.606  10.719   9.947 -1.1005 -1.8037  0.8861
27758SOL     OW95252   0.929   5.121  12.661  0.2638  0.2352 -0.2272
27758SOL    HW195253   0.935   5.209  12.699 -0.7425  1.3132 -2.3887
27758SOL    HW295254   0.886   5.069  12.729  1.1604  1.2956  1.2217
27759SOL     OW95255   6.866   9.245  11.334 -0.1790  0.5556 -0.1670
27759SOL    HW195256   6.946   9.214  11.376  0.4632  1.7375 -0.4651
27759SOL    HW295257   6.897   9.304  11.265 -1.2384 -0.5325 -1.6393
27760SOL     OW95258   7.214   8.139   7.071 -0.4936  0.6325  0.4413
27760SOL    HW195259   7.229   8.090   6.990  0.2277  0.9938  0.3490
27760SOL    HW295260   7.122   8.123   7.092 -0.5254  0.0329 -0.1127
27761SOL     OW95261   7.095   6.501  10.956  0.3397 -0.1972 -0.0507
27761SOL    HW195262   7.070   6.438  10.889 -0.1073 -0.4110  0.3130
27761SOL    HW295263   7.048   6.581  10.933  0.2219 -0.2567 -0.0162
27762SOL     OW95264   6.713   4.637   2.679  0.1271  0.2475 -0.1199
27762SOL    HW195265   6.736   4.729   2.690  0.7332  0.2297 -1.1160
27762SOL    HW295266   6.672   4.613   2.762 -0.9934  1.6848 -0.2167
27763SOL     OW95267   2.626   4.438   1.236 -0.1261  0.4254 -0.7867
27763SOL    HW195268   2.546   4.460   1.285  1.2691  1.1021  1.3415
27763SOL    HW295269   2.678   4.519   1.239  1.9336 -0.8603  0.6184
27764SOL     OW95270   4.094   2.348  13.327  0.5048 -0.7192 -0.9880
27764SOL    HW195271   4.135   2.268  13.362 -0.6104 -1.0039 -0.2841
27764SOL    HW295272   4.073   2.326  13.236  1.2680 -0.8059 -1.1515
27765SOL     OW95273   8.080   6.618  11.444 -0.3334 -0.2800  0.4212
27765SOL    HW195274   8.125   6.548  11.396 -1.1497 -0.2055 -0.4869
27765SOL    HW295275   8.065   6.581  11.531  0.6697 -0.6258  0.4639
27766SOL     OW95276  12.553  11.796   3.331 -0.0585  0.3743 -0.0517
27766SOL    HW195277  12.608  11.868   3.361  0.7900  0.5438 -1.8446
27766SOL    HW295278  12.465  11.833   3.326 -0.3607  0.1603  2.6618
27767SOL     OW95279   2.156   5.617  13.025 -0.1028  0.2270  0.7031
27767SOL    HW195280   2.065   5.632  13.000 -0.1335  0.3896  0.9091
27767SOL    HW295281   2.207   5.639  12.946 -0.1089  1.9117  1.1209
27768SOL     OW95282  10.289   5.886  11.812  0.3924 -0.3029 -0.2781
27768SOL    HW195283  10.293   5.953  11.881  1.0974 -1.6254  1.0174
27768SOL    HW295284  10.272   5.935  11.732 -1.1638  1.2390  0.9132
27769SOL     OW95285   5.425   1.776  10.303 -0.2223 -0.0731  0.8826
27769SOL    HW195286   5.437   1.814  10.390  2.4854  1.5361 -0.0740
27769SOL    HW295287   5.356   1.829  10.263 -0.4293  0.1588  1.5335
27770SOL     OW95288   5.823   2.869  12.893  0.2824  0.1132  0.5656
27770SOL    HW195289   5.776   2.886  12.975  1.5280  2.9504  0.8225
27770SOL    HW295290   5.770   2.912  12.826  1.0226  0.8747  0.4485
27771SOL     OW95291   2.944  10.505  10.697  0.3567  0.6906 -0.1537
27771SOL    HW195292   2.856  10.524  10.663  0.5199  1.6116 -0.0713
27771SOL    HW295293   2.940  10.412  10.721 -0.2541  0.4360 -1.1735
27772SOL     OW95294   1.253   9.801  11.291  0.1451  0.4749 -0.7267
27772SOL    HW195295   1.202   9.869  11.335 -0.3013  0.6800 -1.5306
27772SOL    HW295296   1.342   9.836  11.288  0.9874 -0.9149  2.8688
27773SOL     OW95297   8.152   3.109  12.446 -0.2952 -0.2403  0.1976
27773SOL    HW195298   8.163   3.091  12.353 -0.7525  1.4273 -0.2232
27773SOL    HW295299   8.241   3.127  12.477 -0.2399  0.1140 -0.1481
27774SOL     OW95300  11.867   6.225   4.024  0.2056 -0.0442 -0.0180
27774SOL    HW195301  11.909   6.142   4.044  1.6437 -0.0066 -2.4111
27774SOL    HW295302  11.827   6.212   3.938 -1.2137  1.1897  0.4047
27775SOL     OW95303   0.815   7.396   1.677  0.2655  0.1552 -0.1979
27775SOL    HW195304   0.896   7.360   1.642  0.3976  0.4517 -0.1963
27775SOL    HW295305   0.834   7.488   1.692 -0.1864  0.3071 -0.5507
27776SOL     OW95306   8.946   9.237   1.597 -0.1797 -0.2821 -0.3172
27776SOL    HW195307   9.032   9.196   1.602 -0.0592  0.0591  0.5692
27776SOL    HW295308   8.885   9.164   1.586  0.1692 -0.5647 -0.3844
27777SOL     OW95309   2.056  10.000  13.362 -0.3977 -0.8339 -0.0714
27777SOL    HW195310   2.115  10.024  13.433 -1.5197 -1.2652  1.0443
27777SOL    HW295311   2.114   9.984  13.287  0.7797  0.0221  0.6135
27778SOL     OW95312  12.982   2.830   9.544 -0.1881 -0.4503 -0.0312
27778SOL    HW195313  12.968   2.876   9.461 -0.0254 -0.3868 -0.0237
27778SOL    HW295314  13.074   2.846   9.565 -0.2662 -0.3421  0.2362
27779SOL     OW95315  11.891  10.267   4.151  0.0532 -0.0503  0.0870
27779SOL    HW195316  11.965  10.289   4.207  0.9260  0.0937 -1.0806
27779SOL    HW295317  11.930  10.220   4.077 -1.1041 -0.5511 -0.2310
27780SOL     OW95318   1.702   6.646  10.488 -0.3225  0.1876 -0.2221
27780SOL    HW195319   1.678   6.584  10.557  0.6482  0.3146  0.2391
27780SOL    HW295320   1.763   6.597  10.433 -0.2832  0.4299 -0.3938
27781SOL     OW95321   6.667   0.707   1.186 -0.4404  0.3216  0.6650
27781SOL    HW195322   6.592   0.704   1.127 -0.1786 -1.1161  0.3787
27781SOL    HW295323   6.733   0.757   1.138  0.2233 -1.8649 -0.8624
27782SOL     OW95324   0.602  10.289   7.115  0.5304 -0.1827  1.4243
27782SOL    HW195325   0.539  10.361   7.115  1.4151  0.6263  0.6237
27782SOL    HW295326   0.555  10.215   7.078  0.2860  0.6522 -0.0042
27783SOL     OW95327   9.739  10.310  10.144 -0.2953  0.0189  0.8605
27783SOL    HW195328   9.821  10.269  10.169 -1.0108 -0.2957  2.8369
27783SOL    HW295329   9.722  10.277  10.056  1.4156 -0.2983  0.6083
27784SOL     OW95330   2.889  12.542  10.685  0.4522 -0.1945 -0.3640
27784SOL    HW195331   2.883  12.636  10.701 -1.2385 -0.3604  0.2182
27784SOL    HW295332   2.866  12.502  10.769  0.1009 -1.1211 -0.8872
27785SOL     OW95333   3.674   1.043   1.989 -0.2195  0.6786 -0.0281
27785SOL    HW195334   3.617   1.082   2.056 -0.5883  1.3782 -0.7316
27785SOL    HW295335   3.614   0.999   1.929  0.1557 -0.4788  0.4148
27786SOL     OW95336   6.561   2.972   2.314  0.5766 -0.2340 -0.3472
27786SOL    HW195337   6.589   3.063   2.300 -1.3286  0.7604  1.7130
27786SOL    HW295338   6.467   2.973   2.296  0.5196 -1.7896 -0.2328
27787SOL     OW95339  10.922   7.131  12.379 -0.1734  0.3475  0.8357
27787SOL    HW195340  10.851   7.092  12.429 -0.1021  1.1514  1.5960
27787SOL    HW295341  10.882   7.159  12.297  0.0244 -2.3892 -0.3074
27788SOL     OW95342   4.093   7.635   3.717 -0.6160 -0.0939 -0.2256
27788SOL    HW195343   4.095   7.657   3.810  0.3168  0.5626 -0.3883
27788SOL    HW295344   4.059   7.546   3.714  1.9324 -1.2235  0.9825
27789SOL     OW95345   5.443  10.573  10.850 -0.5101  0.6804  0.3304
27789SOL    HW195346   5.463  10.522  10.928  0.9758  0.1801 -0.3305
27789SOL    HW295347   5.404  10.653  10.883  0.8852  0.8693  1.6695
27790SOL     OW95348   2.175   2.070   1.063  0.3525  0.3238 -0.0510
27790SOL    HW195349   2.127   2.149   1.039 -0.8246 -0.1258  0.7453
27790SOL    HW295350   2.266   2.099   1.074  0.0795  1.3986 -0.5143
27791SOL     OW95351   4.034  11.495   3.513  0.6544  0.1325 -0.2584
27791SOL    HW195352   4.089  11.569   3.539  0.8390 -0.8023  2.2606
27791SOL    HW295353   3.952  11.535   3.484  0.8660  1.3714  0.7569
27792SOL     OW95354   4.269  10.862   3.740  0.3818  0.2022  0.3935
27792SOL    HW195355   4.193  10.815   3.773 -0.6504  1.2366 -0.4418
27792SOL    HW295356   4.315  10.892   3.818  0.3992 -1.1336  0.9130
27793SOL     OW95357   7.721   3.789  12.365  0.3552  0.0272 -0.8738
27793SOL    HW195358   7.811   3.795  12.333  1.2272 -0.1254  1.3496
27793SOL    HW295359   7.720   3.711  12.420 -1.1207  0.0898 -0.7684
27794SOL     OW95360   4.631  11.510  12.769  0.5245 -0.2067 -0.2720
27794SOL    HW195361   4.541  11.496  12.796  0.5308  0.4408  0.0999
27794SOL    HW295362   4.624  11.564  12.690  0.6179  1.1199  0.5963
27795SOL     OW95363   0.563   5.870  13.416 -0.3992 -0.1580  0.8255
27795SOL    HW195364   0.627   5.936  13.388 -0.1099 -1.2524 -1.2615
27795SOL    HW295365   0.478   5.908  13.392 -0.2243 -0.5668 -0.5097
27796SOL     OW95366   8.518   8.101   8.332  0.4841 -0.1099  0.1131
27796SOL    HW195367   8.491   8.073   8.244  0.6256  1.3211 -0.4073
27796SOL    HW295368   8.613   8.095   8.331  0.4751 -0.3026  0.2520
27797SOL     OW95369   6.797  10.173  11.841  0.0759 -0.1913 -0.2308
27797SOL    HW195370   6.729  10.203  11.781  0.3879 -0.5927 -0.7839
27797SOL    HW295371   6.749  10.142  11.918 -0.2734  1.6211  0.3417
27798SOL     OW95372   3.465   5.968  12.819 -0.3118 -0.6258 -0.5248
27798SOL    HW195373   3.458   5.931  12.907  0.1391  0.3613 -0.0614
27798SOL    HW295374   3.558   5.990  12.810 -0.5412  0.2265 -0.8539
27799SOL     OW95375   1.704   0.530   3.940 -0.6953 -0.5797  0.0300
27799SOL    HW195376   1.726   0.502   3.851 -0.8247 -0.0329 -0.1764
27799SOL    HW295377   1.614   0.498   3.952 -0.4973 -1.1017  0.1574
27800SOL     OW95378  11.157  10.561   9.073  1.0791 -0.0011  0.3249
27800SOL    HW195379  11.128  10.556   8.982 -0.9836 -0.6357  0.9608
27800SOL    HW295380  11.179  10.471   9.096  1.3304  0.1175  0.5580
27801SOL     OW95381  13.770   0.111  11.436  0.3809  0.3827 -0.0633
27801SOL    HW195382  13.680   0.082  11.450  0.4142 -0.5763 -1.5558
27801SOL    HW295383  13.823   0.040  11.470  0.5297  0.2082 -0.6458
27802SOL     OW95384   4.589   4.605   7.949 -0.3617 -0.9415  0.0355
27802SOL    HW195385   4.497   4.591   7.972 -0.7909  0.0931 -0.9730
27802SOL    HW295386   4.617   4.522   7.910 -1.1027 -1.0068 -0.3760
27803SOL     OW95387   7.334   0.901   9.008  0.8142 -1.1129  0.4059
27803SOL    HW195388   7.273   0.868   8.942  0.0820  0.5032  0.2395
27803SOL    HW295389   7.313   0.851   9.087 -2.3867  0.9111  1.0222
27804SOL     OW95390  11.891  11.736   0.744 -0.4789 -0.1116  0.0245
27804SOL    HW195391  11.986  11.722   0.738 -0.4100  0.5481 -0.5477
27804SOL    HW295392  11.854  11.648   0.741  0.1450 -0.4258  0.9811
27805SOL     OW95393   9.140  10.397   3.220  0.2514  0.4064  0.3154
27805SOL    HW195394   9.168  10.480   3.259 -1.4709  1.1986 -0.0031
27805SOL    HW295395   9.093  10.352   3.291 -1.5615  1.1703 -0.3230
27806SOL     OW95396  10.593   6.562  13.467  0.1882  0.4300  0.2600
27806SOL    HW195397  10.623   6.547  13.377  1.6510 -0.9960  0.9316
27806SOL    HW295398  10.585   6.657  13.474 -1.0959  0.5434 -1.6878
27807SOL     OW95399   5.825  10.220  11.649 -0.4992 -1.0460 -0.1952
27807SOL    HW195400   5.831  10.129  11.622 -0.3670 -1.6480  1.7281
27807SOL    HW295401   5.915  10.244  11.673 -0.3120 -0.0160 -1.7581
27808SOL     OW95402   6.080  12.312  10.167  0.4789  0.0812  0.7576
27808SOL    HW195403   6.127  12.247  10.117 -1.0060  0.1022 -0.7565
27808SOL    HW295404   6.014  12.262  10.216  0.9256  0.2144  1.5069
27809SOL     OW95405  13.218  12.406   4.383  0.5261  1.0774  0.0695
27809SOL    HW195406  13.228  12.457   4.302  1.9057  2.1169  0.8479
27809SOL    HW295407  13.298  12.355   4.389  0.2537  0.7035  0.5868
27810SOL     OW95408   1.232   1.835   2.654 -0.1659  0.3293  0.3698
27810SOL    HW195409   1.145   1.800   2.634 -0.1611 -0.1751  1.1663
27810SOL    HW295410   1.259   1.786   2.732  1.3306 -0.3897 -0.5519
27811SOL     OW95411   3.279  13.402  11.154  0.1311  0.1754 -0.3526
27811SOL    HW195412   3.284  13.331  11.090 -0.5292 -0.3958  0.1975
27811SOL    HW295413   3.188  13.398  11.186 -0.3684  2.2399 -1.3845
27812SOL     OW95414   5.627   9.857  11.314 -0.3603 -0.3195  0.4004
27812SOL    HW195415   5.582   9.912  11.250  0.0340  0.4451  0.7746
27812SOL    HW295416   5.712   9.838  11.274 -0.3926 -0.4432  0.3890
27813SOL     OW95417  10.668   3.239   8.528 -0.7579  0.5607  0.1311
27813SOL    HW195418  10.638   3.240   8.437 -0.3586 -1.3508 -0.0500
27813SOL    HW295419  10.589   3.223   8.579 -0.5810 -1.4730 -0.1397
27814SOL     OW95420   4.101   5.957   1.447  0.0769 -0.4238 -0.1892
27814SOL    HW195421   4.193   5.943   1.428  0.0141 -4.0846  1.3322
27814SOL    HW295422   4.099   5.981   1.540 -0.4859  1.1294 -0.5671
27815SOL     OW95423   3.780   7.490  10.184  0.2263  1.1492 -0.2101
27815SOL    HW195424   3.748   7.519  10.269 -0.7515 -2.7179  0.9154
27815SOL    HW295425   3.701   7.465  10.136  0.9653  0.3653 -1.0612
27816SOL     OW95426   6.948   3.091  12.127 -0.2351 -0.1920 -0.4486
27816SOL    HW195427   6.991   3.021  12.077  1.0047  1.8512 -2.3896
27816SOL    HW295428   6.866   3.106  12.081  1.5451  2.6888 -2.9910
27817SOL     OW95429   7.580   8.477   2.278  0.1781  0.1779 -0.2371
27817SOL    HW195430   7.514   8.466   2.209  0.6471 -1.2594 -0.5015
27817SOL    HW295431   7.543   8.433   2.354  0.2881  0.4914 -0.0003
27818SOL     OW95432   9.484   1.179  11.675  0.3421 -0.0902  0.1941
27818SOL    HW195433   9.472   1.226  11.593  0.5270 -1.8143 -0.8647
27818SOL    HW295434   9.564   1.127  11.662  0.9039  0.3040  1.8097
27819SOL     OW95435   8.125   9.519   0.082  0.0937  0.5940 -0.5352
27819SOL    HW195436   8.044   9.524   0.131  0.3565  2.3980 -0.2006
27819SOL    HW295437   8.145   9.426   0.077 -2.3322  0.0348 -1.2332
27820SOL     OW95438   6.090  10.746  11.388 -0.1471 -0.3919 -0.1971
27820SOL    HW195439   6.177  10.708  11.375  0.1032 -0.2476  0.9265
27820SOL    HW295440   6.088  10.769  11.481 -0.8798  0.8716 -0.5060
27821SOL     OW95441  10.259   0.830   0.606  0.0225 -0.0110  0.1196
27821SOL    HW195442  10.331   0.790   0.656 -0.0074  1.5271  1.4755
27821SOL    HW295443  10.257   0.781   0.523 -0.6794 -3.5083  1.9822
27822SOL     OW95444   0.591  12.059   5.626  0.3413  0.0553  0.3329
27822SOL    HW195445   0.511  12.111   5.635 -0.4513 -0.9277 -0.6784
27822SOL    HW295446   0.604  12.019   5.711 -0.8319 -0.5719  0.2288
27823SOL     OW95447   8.819  10.129   1.665  0.0719 -0.7727  0.0662
27823SOL    HW195448   8.903  10.131   1.712 -0.5254  5.3578  1.6428
27823SOL    HW295449   8.839  10.167   1.580 -0.8739 -0.3965  0.0023
27824SOL     OW95450   9.092   6.210  13.745  0.7447  0.4294 -0.1695
27824SOL    HW195451   9.180   6.174  13.755  0.2756 -1.7327 -2.5916
27824SOL    HW295452   9.076   6.260  13.825  3.5516 -0.4277  1.0234
27825SOL     OW95453   3.320  10.849   6.432  0.0680  0.4806 -0.3769
27825SOL    HW195454   3.289  10.775   6.484 -0.4874  0.7415 -0.3321
27825SOL    HW295455   3.272  10.842   6.350  0.6532  0.2955 -0.7104
27826SOL     OW95456   9.264  13.076  13.283 -0.3839 -0.0211  0.5509
27826SOL    HW195457   9.317  13.028  13.347 -1.7891 -2.1309  0.2256
27826SOL    HW295458   9.190  13.110  13.333 -0.3468  0.2257  0.4405
27827SOL     OW95459   4.931   4.439  10.264 -0.0652  0.0519  0.1080
27827SOL    HW195460   4.899   4.510  10.208 -2.0473  0.2850  1.4097
27827SOL    HW295461   4.894   4.360  10.224  1.0097 -0.1300 -0.5650
27828SOL     OW95462   6.626   0.985   5.438  0.2144 -0.2630 -0.7780
27828SOL    HW195463   6.663   1.006   5.352  0.0759 -2.0554 -1.3021
27828SOL    HW295464   6.586   1.067   5.467  1.2274  0.6711 -1.9095
27829SOL     OW95465   6.413   4.741  11.833  0.1977 -0.2264  0.2271
27829SOL    HW195466   6.413   4.835  11.816  0.4837 -0.0951  0.9136
27829SOL    HW295467   6.331   4.726  11.880 -1.3638 -0.8439 -2.5123
27830SOL     OW95468  13.734  12.668   9.270 -0.3198 -0.2734  0.9311
27830SOL    HW195469  13.651  12.620   9.271 -0.4535 -0.0340  1.5462
27830SOL    HW295470  13.741  12.706   9.357  0.1180  0.2628  0.6694
27831SOL     OW95471  10.790   8.717   8.329  0.0160  0.2136 -0.6429
27831SOL    HW195472  10.770   8.744   8.239 -0.5932  0.0060 -0.5757
27831SOL    HW295473  10.711   8.740   8.379  0.0906 -0.2891 -0.2896
27832SOL     OW95474   4.610  13.708   2.077  0.2217  0.0889 -0.2775
27832SOL    HW195475   4.705  13.716   2.067  0.3176  0.4942  0.8014
27832SOL    HW295476   4.575  13.790   2.043  0.2516 -0.0377 -0.6233
27833SOL     OW95477   7.801   4.495  11.244  0.0788  0.5140  0.0730
27833SOL    HW195478   7.858   4.509  11.319  2.9105 -0.2957 -1.7805
27833SOL    HW295479   7.775   4.403  11.251  0.6966  0.3169 -0.1312
27834SOL     OW95480   3.469  13.737   6.291  0.2562 -0.1147 -0.1085
27834SOL    HW195481   3.434  13.798   6.226 -0.1712  1.0827  1.2047
27834SOL    HW295482   3.401  13.670   6.299  1.4464 -1.7913 -2.7903
27835SOL     OW95483  12.505  12.549   8.503  0.5081 -0.0109 -0.0227
27835SOL    HW195484  12.446  12.624   8.496  0.4718 -0.0028  0.3773
27835SOL    HW295485  12.537  12.537   8.414 -0.8966 -0.6711 -0.4691
27836SOL     OW95486  13.994   5.392  12.271 -0.2343  0.3012  0.0733
27836SOL    HW195487  14.075   5.375  12.223  0.4749  2.1410  0.5095
27836SOL    HW295488  14.021   5.403  12.362 -0.8822  1.3401  0.1636
27837SOL     OW95489   3.254  11.743   4.827 -0.0604  0.1613  0.3033
27837SOL    HW195490   3.319  11.812   4.818  0.3705 -0.2954 -0.1156
27837SOL    HW295491   3.224  11.726   4.738  0.8855 -1.1866  0.2125
27838SOL     OW95492   2.110   6.706  10.793  0.3267  0.2994  0.6430
27838SOL    HW195493   2.172   6.780  10.793  0.6494  0.0950 -1.5740
27838SOL    HW295494   2.063   6.715  10.710 -0.7361 -1.1060  1.0701
27839SOL     OW95495   7.911   9.767   5.587 -0.3032  0.5088  0.0609
27839SOL    HW195496   7.896   9.688   5.535  0.1845 -0.8650  1.9001
27839SOL    HW295497   7.859   9.835   5.543 -1.5596 -1.0657 -1.0062
27840SOL     OW95498   7.613   7.798  13.747  0.0441  0.4048 -0.1055
27840SOL    HW195499   7.695   7.840  13.722  0.6830 -0.1712  0.9701
27840SOL    HW295500   7.600   7.825  13.838 -0.4516 -0.3067  0.0383
27841SOL     OW95501   1.118   1.382  13.055 -0.3199  0.2213 -0.4672
27841SOL    HW195502   1.083   1.308  13.103  0.8352 -1.3392 -1.9052
27841SOL    HW295503   1.067   1.384  12.974 -2.1761  2.7429  0.6309
27842SOL     OW95504   0.302   1.082  10.545  0.0780  0.6707  0.4734
27842SOL    HW195505   0.287   1.171  10.514 -0.8832  0.8697  1.4283
27842SOL    HW295506   0.215   1.042  10.548  0.3613  0.0605  1.0846
27843SOL     OW95507   9.076   4.737   9.366  0.5948  0.3454  0.0738
27843SOL    HW195508   9.032   4.653   9.377  0.2022  0.5700  0.2097
27843SOL    HW295509   9.124   4.750   9.448 -1.2536  1.3775  1.0526
27844SOL     OW95510   4.953  13.051   6.865  0.2038 -0.2892  0.1536
27844SOL    HW195511   4.874  13.096   6.835  0.5918  0.2484 -0.0919
27844SOL    HW295512   4.936  12.958   6.850 -0.1653 -0.1314 -0.4083
27845SOL     OW95513   9.758   2.142   1.151 -0.7078 -0.0369 -0.4293
27845SOL    HW195514   9.842   2.107   1.179 -0.7414 -0.7048 -1.1385
27845SOL    HW295515   9.775   2.182   1.066 -1.6920 -2.9094 -2.0796
27846SOL     OW95516   3.139   0.468   5.906  0.2839 -0.2020  0.0888
27846SOL    HW195517   3.233   0.451   5.906  0.2914 -0.1595  0.0923
27846SOL    HW295518   3.127   0.537   5.841  0.2231 -0.3904 -0.1031
27847SOL     OW95519   7.556  13.616  10.845 -0.1972  0.0518 -0.2659
27847SOL    HW195520   7.538  13.563  10.922 -0.3840  0.6196  0.0878
27847SOL    HW295521   7.471  13.627  10.802  0.0790 -1.2067 -1.1861
27848SOL     OW95522   1.860   9.300   7.015  0.2108 -0.3628  0.3562
27848SOL    HW195523   1.937   9.247   7.038  1.8456  0.8811 -1.8717
27848SOL    HW295524   1.817   9.316   7.099  2.0105 -1.6631  1.6203
27849SOL     OW95525   3.119   1.359  13.563  0.1372 -0.2775  0.0079
27849SOL    HW195526   3.096   1.402  13.480 -1.2926 -0.7961  0.0993
27849SOL    HW295527   3.187   1.414  13.601 -1.2428  1.5962 -0.1416
27850SOL     OW95528   4.836   0.666   8.457 -0.1108  0.3181 -0.8025
27850SOL    HW195529   4.931   0.653   8.453  0.3022  2.1676  1.1552
27850SOL    HW295530   4.803   0.584   8.495  0.9585  0.3631  0.2811
27851SOL     OW95531   2.477   6.129   9.310 -0.3199  0.1490 -0.4365
27851SOL    HW195532   2.467   6.166   9.398  1.2299  1.8743 -0.9495
27851SOL    HW295533   2.419   6.182   9.255  1.1248  1.2021 -0.9911
27852SOL     OW95534   7.442   2.969   4.781 -0.0431  0.3060  0.2950
27852SOL    HW195535   7.470   3.056   4.807  2.0091  0.0234 -0.7139
27852SOL    HW295536   7.408   2.929   4.861  1.8692  0.9768  1.5161
27853SOL     OW95537  10.915  11.448   5.874 -0.4109  0.2842 -0.5485
27853SOL    HW195538  10.902  11.502   5.952  1.6029 -1.4966  1.1788
27853SOL    HW295539  10.966  11.503   5.815 -1.4860  1.4803 -0.3993
27854SOL     OW95540   6.961   6.500   1.603  0.6119 -0.1639 -0.1294
27854SOL    HW195541   6.878   6.521   1.646  0.7120  0.4380 -0.2164
27854SOL    HW295542   7.027   6.525   1.667  0.7266 -0.4626 -0.1354
27855SOL     OW95543   7.476   3.978   9.383 -0.0241 -0.1317 -0.4025
27855SOL    HW195544   7.390   3.940   9.400  1.0017 -1.2563  3.2035
27855SOL    HW295545   7.459   4.053   9.327 -3.1610 -0.9817 -0.7773
27856SOL     OW95546  11.112  12.489   6.357  0.1806 -0.0882 -0.3965
27856SOL    HW195547  11.110  12.465   6.264  1.0777  0.0956 -0.4697
27856SOL    HW295548  11.022  12.516   6.376 -0.0568 -0.3053 -1.1629
27857SOL     OW95549   2.485   8.728   7.621 -0.1351  0.3363  0.4050
27857SOL    HW195550   2.541   8.730   7.699  1.9613  1.1079 -1.0557
27857SOL    HW295551   2.414   8.789   7.641 -0.0046  0.0273  1.9453
27858SOL     OW95552   1.028   3.706   4.341  0.2078 -0.3503 -0.2538
27858SOL    HW195553   1.029   3.794   4.304  1.1675 -0.8094 -1.3762
27858SOL    HW295554   1.059   3.717   4.431 -0.4939  0.5565 -0.1143
27859SOL     OW95555   6.624   8.838   6.381  0.3685  0.4529 -0.3820
27859SOL    HW195556   6.620   8.765   6.444 -1.5821  1.3197  0.6037
27859SOL    HW295557   6.570   8.808   6.308 -0.3930  0.8345  0.0020
27860SOL     OW95558   6.617  11.077   1.417 -0.2292 -0.2770  0.2479
27860SOL    HW195559   6.648  11.037   1.336 -0.9725  0.2276 -0.2992
27860SOL    HW295560   6.522  11.067   1.414 -0.5232  2.0309 -0.2196
27861SOL     OW95561   0.933   7.202   7.745  0.3886 -0.9439  0.6146
27861SOL    HW195562   0.930   7.213   7.650  0.4174 -1.4267  0.5558
27861SOL    HW295563   1.027   7.205   7.766  0.3850 -0.8851  0.6220
27862SOL     OW95564   4.872   1.946   8.293  0.0171  0.3037 -0.2730
27862SOL    HW195565   4.829   1.911   8.371  1.3247 -1.4103 -0.2359
27862SOL    HW295566   4.966   1.933   8.310  0.3068 -2.0175 -2.8589
27863SOL     OW95567   8.643   2.350  11.508  0.0876  0.1708 -0.3334
27863SOL    HW195568   8.642   2.351  11.604 -1.1080  0.7297 -0.3406
27863SOL    HW295569   8.731   2.379  11.485  0.8142 -1.1729  0.5879
27864SOL     OW95570   3.749   7.871  12.599 -0.2487  0.1750 -0.8380
27864SOL    HW195571   3.739   7.941  12.535 -2.7015  0.6314 -0.0672
27864SOL    HW295572   3.775   7.916  12.680 -0.4755  0.0350 -0.6842
27865SOL     OW95573   7.490   3.410   4.152 -0.5546  0.7402 -0.3118
27865SOL    HW195574   7.447   3.484   4.195  1.4564  0.4236  2.4831
27865SOL    HW295575   7.574   3.446   4.122 -0.4321  0.0661 -0.7956
27866SOL     OW95576  11.184  11.454   3.116 -0.0036  0.2774  0.0227
27866SOL    HW195577  11.144  11.511   3.181 -0.3095  0.7490 -0.5715
27866SOL    HW295578  11.199  11.510   3.040  0.3212 -0.2711 -0.3283
27867SOL     OW95579   4.553   5.070   3.209  0.1034 -0.1493 -0.2404
27867SOL    HW195580   4.566   4.983   3.247  3.1025  0.2410 -0.1077
27867SOL    HW295581   4.461   5.071   3.184 -0.2294 -3.0806  0.3985
27868SOL     OW95582   9.529   3.270   8.992  0.1296  0.2441 -0.2620
27868SOL    HW195583   9.449   3.247   8.945 -0.4053  2.3342 -0.4655
27868SOL    HW295584   9.600   3.243   8.934 -0.4810  0.4731 -1.1293
27869SOL     OW95585   8.080   9.677   0.691 -0.0797  0.2024  0.2687
27869SOL    HW195586   8.151   9.678   0.627  0.2115  1.3512  0.5853
27869SOL    HW295587   8.028   9.754   0.670 -1.1944 -0.5779  0.0968
27870SOL     OW95588   4.472   0.104   0.191 -0.0789  0.2448  0.1964
27870SOL    HW195589   4.408   0.137   0.254 -0.6107 -0.4283  0.0164
27870SOL    HW295590   4.499   0.181   0.142  2.5885  1.4438  3.1417
27871SOL     OW95591   4.106   9.583   4.767  0.0296 -0.2031 -0.0787
27871SOL    HW195592   4.015   9.561   4.788 -0.2084  0.7732  0.0082
27871SOL    HW295593   4.152   9.500   4.765 -0.4942 -0.5643  1.6972
27872SOL     OW95594   1.358   1.786   8.099 -0.6050  0.4743  0.0169
27872SOL    HW195595   1.406   1.859   8.060 -0.0562 -0.0952 -0.3937
27872SOL    HW295596   1.393   1.709   8.055 -1.6716  0.0164 -0.0633
27873SOL     OW95597  11.841   1.321   4.748 -0.2380  0.2396 -0.0207
27873SOL    HW195598  11.800   1.280   4.824 -0.4365 -1.4069 -0.9828
27873SOL    HW295599  11.775   1.382   4.715  0.1380  1.5778  1.5399
27874SOL     OW95600   3.036  12.932  11.765  0.2165  0.0146 -0.5614
27874SOL    HW195601   2.972  12.994  11.798 -1.9814 -1.0740 -2.4973
27874SOL    HW295602   3.038  12.947  11.671 -0.9223 -3.2172 -1.2175
27875SOL     OW95603   5.187   5.591  12.803  0.5944  0.0659  0.5042
27875SOL    HW195604   5.171   5.657  12.735  0.2112  0.3971  0.9167
27875SOL    HW295605   5.102   5.577  12.844  0.9744  0.4505  1.4467
27876SOL     OW95606   5.884   1.112   6.738 -0.1399 -0.3711 -0.5452
27876SOL    HW195607   5.840   1.082   6.817 -0.6370  1.9915  0.1831
27876SOL    HW295608   5.833   1.188   6.710  1.6262  0.5396 -1.4919
27877SOL     OW95609   2.901   7.014   0.908 -0.0746  0.6101 -0.0676
27877SOL    HW195610   2.974   6.990   0.965 -0.1010 -0.0936 -0.3103
27877SOL    HW295611   2.830   6.955   0.933  0.1872 -0.3255 -1.3962
27878SOL     OW95612   7.222  12.049  11.628 -0.1604 -0.0307 -0.0559
27878SOL    HW195613   7.298  11.990  11.630 -0.3119 -0.2259 -0.0287
27878SOL    HW295614   7.248  12.124  11.681  0.5792  0.5908 -1.2509
27879SOL     OW95615  12.668  13.797   4.198 -0.4442  0.2512 -0.0832
27879SOL    HW195616  12.623  13.713   4.205 -0.0000  0.0726  0.7392
27879SOL    HW295617  12.638  13.847   4.274  1.6337 -0.3214  1.1977
27880SOL     OW95618   9.413  13.866  12.626 -0.6293 -0.1374  0.0097
27880SOL    HW195619   9.363  13.891  12.704 -1.5489  2.4052 -1.2996
27880SOL    HW295620   9.352  13.876  12.554  0.7019 -0.7483 -1.2600
27881SOL     OW95621  10.162   6.132   4.770  0.2022  0.6099  0.0122
27881SOL    HW195622  10.087   6.190   4.759  0.3035  0.6166 -0.6768
27881SOL    HW295623  10.123   6.046   4.786  0.0418  0.5740 -0.5573
27882SOL     OW95624   6.244  10.997   8.302 -0.0972  0.0640 -0.6459
27882SOL    HW195625   6.219  11.048   8.224 -0.8499  0.2296 -0.3055
27882SOL    HW295626   6.237  11.059   8.374  0.2588 -0.1845 -0.3960
27883SOL     OW95627   2.585  12.712  13.498 -0.4247  0.2794 -0.1421
27883SOL    HW195628   2.518  12.677  13.557  1.1256  0.9359  2.1514
27883SOL    HW295629   2.631  12.778  13.550  2.2556 -0.4236 -1.4433
27884SOL     OW95630   9.172   3.977   5.636 -0.0001  0.2283  0.6422
27884SOL    HW195631   9.100   4.024   5.594 -1.5471  0.4278  3.2799
27884SOL    HW295632   9.154   3.885   5.621  2.2638  0.2263 -3.3124
27885SOL     OW95633  11.532  12.220   7.921  0.3382 -0.7806 -0.1809
27885SOL    HW195634  11.608  12.276   7.938  0.0269 -0.2464 -0.5430
27885SOL    HW295635  11.511  12.236   7.829 -0.5785 -0.4868  0.0772
27886SOL     OW95636  11.190   9.343   4.984  0.4174 -0.2212 -0.1882
27886SOL    HW195637  11.206   9.275   5.050 -1.8306  0.2163  0.9078
27886SOL    HW295638  11.275   9.387   4.974  0.9517 -0.5800  2.1129
27887SOL     OW95639   9.138   7.264   6.514  0.0684 -0.0247  0.2504
27887SOL    HW195640   9.082   7.288   6.440 -0.3391 -0.0274  0.5606
27887SOL    HW295641   9.116   7.327   6.582 -1.5046 -1.6399  1.3285
27888SOL     OW95642   8.706   0.250  12.470 -0.6894  0.0777  0.6200
27888SOL    HW195643   8.781   0.294  12.430 -0.6310 -1.7641 -1.5426
27888SOL    HW295644   8.739   0.214  12.552  0.0010  1.6029  1.0442
27889SOL     OW95645   4.514  10.791   7.733 -0.7557 -0.5851  0.0030
27889SOL    HW195646   4.465  10.735   7.673 -1.7523  0.6095 -0.3296
27889SOL    HW295647   4.451  10.857   7.762  0.5129  0.7009 -0.0592
27890SOL     OW95648   4.752   7.786  11.840  0.4872 -0.1493  0.7633
27890SOL    HW195649   4.676   7.844  11.835  1.3936  1.3723  3.1533
27890SOL    HW295650   4.808   7.814  11.768  0.5623  1.4926  1.4175
27891SOL     OW95651   6.363   3.888   9.044 -0.1460 -0.1407  0.4535
27891SOL    HW195652   6.407   3.858   9.123 -0.8292 -1.5788  0.3292
27891SOL    HW295653   6.287   3.830   9.036 -0.5505  0.5303 -0.7919
27892SOL     OW95654  11.397  11.038   8.657 -0.2408  0.6428 -0.2267
27892SOL    HW195655  11.327  10.974   8.643  2.2310 -2.2158 -0.6158
27892SOL    HW295656  11.427  11.021   8.746  0.9307  0.6975 -0.5916
27893SOL     OW95657   4.756   3.049  12.810 -0.4550  0.3045  0.2207
27893SOL    HW195658   4.819   3.098  12.862  1.9648 -2.2152 -0.1450
27893SOL    HW295659   4.777   3.071  12.720 -0.8137  0.2138  0.1127
27894SOL     OW95660  12.851   6.562   6.501  0.6131  0.1052 -0.2224
27894SOL    HW195661  12.893   6.630   6.448  2.5390 -2.2237 -1.8830
27894SOL    HW295662  12.763   6.596   6.517  1.4501  2.9539 -0.9614
27895SOL     OW95663  11.178   9.314   0.782 -0.1079 -0.3191 -0.2682
27895SOL    HW195664  11.130   9.270   0.711 -0.7264 -0.6514  0.3480
27895SOL    HW295665  11.132   9.397   0.794 -1.2315 -1.1006  1.0575
27896SOL     OW95666   5.196  11.752   5.476 -0.2537 -0.1540  0.0267
27896SOL    HW195667   5.156  11.678   5.430 -0.4268 -0.6080  0.8825
27896SOL    HW295668   5.287  11.725   5.491 -0.0125  0.2680 -0.6134
27897SOL     OW95669   6.152   3.475   9.378 -0.2760  0.1721 -0.3650
27897SOL    HW195670   6.103   3.553   9.402  0.1441  0.3303 -0.0202
27897SOL    HW295671   6.243   3.495   9.400 -0.1678 -0.4161 -0.2622
27898SOL     OW95672   1.635  10.505   1.105  0.2380  0.1666 -0.0373
27898SOL    HW195673   1.717  10.555   1.114 -0.1181  1.3810 -2.6803
27898SOL    HW295674   1.658  10.433   1.046 -0.2782 -0.3320  0.3639
27899SOL     OW95675   7.057   5.382   0.979  0.0982 -0.1293  0.0675
27899SOL    HW195676   7.122   5.450   0.996  0.1584  0.0116 -0.7108
27899SOL    HW295677   7.108   5.302   0.964  0.0725 -0.1236 -0.0516
27900SOL     OW95678   3.752  11.733   3.724  0.0099 -0.4682 -0.3381
27900SOL    HW195679   3.727  11.706   3.813 -0.0824 -1.0522 -0.5366
27900SOL    HW295680   3.769  11.827   3.732 -0.8574 -0.3363  0.1118
27901SOL     OW95681  11.748   3.344  11.504  0.5976 -0.1425 -0.1598
27901SOL    HW195682  11.703   3.421  11.540  0.7033 -1.1144  2.2042
27901SOL    HW295683  11.677   3.289  11.471  0.4572  0.4892 -0.9692
27902SOL     OW95684  13.712   4.380   4.871  0.1103  0.6189  0.6212
27902SOL    HW195685  13.706   4.473   4.893 -0.5314  0.2968  1.9399
27902SOL    HW295686  13.646   4.339   4.927  1.8476 -0.8854  1.6624
27903SOL     OW95687  11.031   6.959   9.522  0.2173 -0.2435 -0.1684
27903SOL    HW195688  11.070   6.872   9.512  1.1397  0.1486 -0.0914
27903SOL    HW295689  11.042   7.001   9.437 -0.5621 -0.3242 -0.3183
27904SOL     OW95690  10.612   9.710   3.551  0.0703 -0.3947 -0.3229
27904SOL    HW195691  10.660   9.700   3.633  2.4619  0.5666 -1.5187
27904SOL    HW295692  10.642   9.793   3.515 -0.8982 -0.8001 -2.1981
27905SOL     OW95693   1.356   2.484  13.279 -0.6075 -0.1550  0.2278
27905SOL    HW195694   1.296   2.521  13.343 -2.3249 -2.1268 -0.1615
27905SOL    HW295695   1.427   2.549  13.272 -1.4140  1.0531  2.5352
27906SOL     OW95696   0.316   5.809   6.873  0.4100  0.0087 -0.3984
27906SOL    HW195697   0.366   5.886   6.846 -0.9575  2.1871  2.6651
27906SOL    HW295698   0.374   5.761   6.930  0.4126  0.2323 -0.2104
27907SOL     OW95699  11.780   8.338   1.450  0.0237 -0.4726  0.3629
27907SOL    HW195700  11.835   8.264   1.476 -0.8225 -0.6161  1.8375
27907SOL    HW295701  11.786   8.399   1.523 -0.9825 -0.0557  0.1096
27908SOL     OW95702  11.087   6.153   3.808 -0.0223  0.5662 -0.2818
27908SOL    HW195703  11.050   6.186   3.726 -0.4380  0.4158 -0.1551
27908SOL    HW295704  11.084   6.228   3.867  1.1147  0.9329 -0.6721
27909SOL     OW95705   8.850  11.102  13.093 -0.5408  0.4415 -0.5795
27909SOL    HW195706   8.771  11.052  13.074 -1.3893  0.6707  1.9747
27909SOL    HW295707   8.885  11.062  13.173  2.1866  0.1063 -1.8128
27910SOL     OW95708  13.455   6.706   1.907  0.7817  0.4892  0.1544
27910SOL    HW195709  13.529   6.685   1.963 -0.3618 -0.4196  1.4011
27910SOL    HW295710  13.422   6.620   1.878  0.8679  0.9177 -1.2779
27911SOL     OW95711  13.066   8.087   4.423 -0.0893 -0.3779  0.2156
27911SOL    HW195712  13.019   8.026   4.481  0.4693 -0.5211  0.5334
27911SOL    HW295713  13.118   8.141   4.483 -0.2024  0.0824 -0.0998
27912SOL     OW95714  11.374  11.709  13.586 -1.0806  0.1681  0.5656
27912SOL    HW195715  11.457  11.705  13.633 -1.6021 -1.2055  1.4355
27912SOL    HW295716  11.348  11.801  13.591  0.8254  0.8270 -0.5758
27913SOL     OW95717  12.991  12.428   2.531  0.0547  0.1910 -0.2759
27913SOL    HW195718  13.082  12.434   2.504 -0.3701 -0.3250 -1.9136
27913SOL    HW295719  12.988  12.352   2.588  1.0118  1.4421  1.5531
27914SOL     OW95720   4.385   4.588   0.211 -0.2488  0.1552  0.5014
27914SOL    HW195721   4.428   4.653   0.156 -1.3628  0.6180  0.1581
27914SOL    HW295722   4.292   4.610   0.207 -0.4892 -0.5942  1.5312
27915SOL     OW95723  11.529   4.655   0.884  0.2687 -0.2676  0.0773
27915SOL    HW195724  11.442   4.621   0.862  0.7781 -1.9848  0.5100
27915SOL    HW295725  11.585   4.624   0.813  0.9779 -1.4309  1.0996
27916SOL     OW95726  12.308   4.524   0.957  0.1733  0.8400  0.1800
27916SOL    HW195727  12.336   4.547   1.045  1.0566  2.8371 -0.5528
27916SOL    HW295728  12.378   4.467   0.924 -0.5548 -0.5855  0.9943
27917SOL     OW95729   0.742   0.720   3.740  0.6747  0.1968 -0.1924
27917SOL    HW195730   0.692   0.640   3.752 -3.1494  2.3316 -0.3289
27917SOL    HW295731   0.774   0.742   3.827 -0.1548 -0.3589  0.2684
27918SOL     OW95732   9.862   7.748   9.656 -0.3601 -0.2017  0.3376
27918SOL    HW195733   9.918   7.826   9.653  0.3489 -0.7111 -0.1917
27918SOL    HW295734   9.798   7.762   9.586  1.8136 -1.5412 -2.0957
27919SOL     OW95735   2.062   2.422   6.960 -0.1072 -0.5943  0.4430
27919SOL    HW195736   2.156   2.439   6.958 -0.4074  1.1426 -0.6809
27919SOL    HW295737   2.052   2.339   6.913  0.6602  0.5934 -2.0120
27920SOL     OW95738   8.255   1.832   3.422  0.0442  0.2463  0.2208
27920SOL    HW195739   8.248   1.898   3.354 -1.5781  0.7561  0.8250
27920SOL    HW295740   8.327   1.776   3.394 -0.5051  0.4931 -1.8638
27921SOL     OW95741   3.999   5.122   9.450  0.2059  0.0299 -0.3358
27921SOL    HW195742   4.008   5.034   9.487  0.1263  0.3392  0.4549
27921SOL    HW295743   4.025   5.113   9.359  0.6702 -0.7144 -0.1393
27922SOL     OW95744   9.765   8.955   7.943 -0.2433  0.7314  0.2246
27922SOL    HW195745   9.766   8.925   8.034  1.1024 -2.2439 -0.6521
27922SOL    HW295746   9.677   8.991   7.931 -0.1543  2.1489  2.9113
27923SOL     OW95747   7.714   1.686   4.358  0.2042  0.2894 -0.0303
27923SOL    HW195748   7.750   1.599   4.378  1.2990  1.1937  2.2069
27923SOL    HW295749   7.790   1.736   4.329  0.3497  1.4840  2.2174
27924SOL     OW95750  12.709   8.795  10.788 -0.0548  0.3981 -0.4876
27924SOL    HW195751  12.769   8.867  10.770  0.8164 -0.0137  0.7014
27924SOL    HW295752  12.708   8.786  10.883  1.1848 -2.2208 -0.6395
27925SOL     OW95753  12.715  10.953   2.991 -0.0185 -0.0420  0.5504
27925SOL    HW195754  12.783  11.006   2.950 -0.9596 -0.5141 -1.8039
27925SOL    HW295755  12.762  10.879   3.029  0.9638  0.6554  0.7218
27926SOL     OW95756  10.837   3.440   2.037  0.0692  0.1641 -0.1604
27926SOL    HW195757  10.876   3.453   1.951  0.7772 -0.7061  0.0056
27926SOL    HW295758  10.823   3.528   2.071 -2.1532  0.6096 -1.9823
27927SOL     OW95759  14.034   0.058   0.002 -0.3206  0.4505 -0.2967
27927SOL    HW195760  14.001  -0.022  -0.039 -0.4017 -1.1556  2.6218
27927SOL    HW295761  13.954   0.105   0.029 -0.2703  0.4501 -0.1457
27928SOL     OW95762   7.398   5.172   0.397  0.3421 -0.2947  0.1414
27928SOL    HW195763   7.327   5.223   0.358  1.1712 -0.4396 -1.6453
27928SOL    HW295764   7.477   5.220   0.376  0.8640 -0.4447  1.6089
27929SOL     OW95765  11.144   1.224   0.524 -0.0125  0.6058 -0.7032
27929SOL    HW195766  11.132   1.129   0.529  0.0934  0.3779 -3.1559
27929SOL    HW295767  11.091   1.250   0.449 -2.7054  3.0745  1.8205
27930SOL     OW95768   6.492   5.667   3.810  0.2884  0.1666 -0.5278
27930SOL    HW195769   6.484   5.595   3.749  1.1577 -0.9612  0.6444
27930SOL    HW295770   6.585   5.671   3.832 -0.0138  0.4570  0.7963
27931SOL     OW95771   3.440   6.288   2.900  0.4760  0.0614  0.0198
27931SOL    HW195772   3.506   6.282   2.831 -0.2106 -1.8693 -0.5397
27931SOL    HW295773   3.458   6.372   2.943  1.5481  0.8578 -1.8494
27932SOL     OW95774  10.889   7.736  10.896  0.0532  0.3312 -0.4808
27932SOL    HW195775  10.923   7.648  10.913  0.4661  0.2377 -1.6935
27932SOL    HW295776  10.960   7.794  10.924 -0.6514  0.3715  1.3988
27933SOL     OW95777   9.377   8.524  12.008  0.1347  0.1050  0.1016
27933SOL    HW195778   9.342   8.609  12.034 -0.0152  0.5284 -1.4173
27933SOL    HW295779   9.472   8.536  12.010  0.1779 -0.2280  1.5352
27934SOL     OW95780   4.982  12.057   6.616 -0.4562  0.2344 -0.2207
27934SOL    HW195781   5.011  12.051   6.525 -1.5260  1.6764 -0.6921
27934SOL    HW295782   4.901  12.005   6.619  1.0485 -2.2668  0.6641
27935SOL     OW95783  11.453   1.415  12.053  0.0912 -0.6384  0.3594
27935SOL    HW195784  11.405   1.455  12.126  0.6971 -0.7223  0.8199
27935SOL    HW295785  11.393   1.349  12.018  0.0372 -1.0562  1.2150
27936SOL     OW95786   9.690   1.266   2.975  0.1104  0.0375 -0.3288
27936SOL    HW195787   9.682   1.183   2.928  1.1575  0.1783 -0.7897
27936SOL    HW295788   9.654   1.247   3.062  1.0569 -1.1437 -0.1555
27937SOL     OW95789   1.263   9.891   0.429  0.0587 -0.1669 -0.3947
27937SOL    HW195790   1.204   9.829   0.385  0.0668 -0.6082  0.1990
27937SOL    HW295791   1.272   9.856   0.518 -0.9488  1.3720  0.3585
27938SOL     OW95792   8.246   7.467  10.404  0.3349  0.4855 -0.7899
27938SOL    HW195793   8.214   7.519  10.330 -0.9910 -1.2869 -1.5415
27938SOL    HW295794   8.323   7.422  10.370 -0.2862 -0.3446 -1.1236
27939SOL     OW95795  12.692  10.454  13.881 -0.0954  0.6657  0.0831
27939SOL    HW195796  12.633  10.381  13.900 -1.3637  1.6737  0.1124
27939SOL    HW295797  12.635  10.531  13.875  1.0530  1.4664 -1.2090
27940SOL     OW95798   4.857   7.268   0.098 -0.6300  0.1555  0.0284
27940SOL    HW195799   4.819   7.187   0.063  0.2427  0.1263 -0.8886
27940SOL    HW295800   4.811   7.338   0.050 -1.7595  0.2493  1.1928
27941SOL     OW95801   3.885   0.308   8.702 -0.1038 -0.6107  0.5699
27941SOL    HW195802   3.930   0.372   8.757  1.1620 -0.0894 -1.0147
27941SOL    HW295803   3.932   0.226   8.717  0.6491 -0.3279 -0.1923
27942SOL     OW95804   9.665   0.191  13.239 -0.1992  0.1938 -0.1342
27942SOL    HW195805   9.599   0.129  13.270  0.9304 -0.2181  1.6442
27942SOL    HW295806   9.744   0.167  13.288  0.6430  2.1350 -0.4666
27943SOL     OW95807   0.296   0.048   8.346  0.6108 -0.3893 -0.0095
27943SOL    HW195808   0.284   0.119   8.283  1.5582  2.2358  2.5295
27943SOL    HW295809   0.388   0.054   8.372 -0.2162  0.2937  3.2416
27944SOL     OW95810   7.873   6.494   7.361  0.2063  0.4207 -0.1855
27944SOL    HW195811   7.789   6.487   7.316 -0.2437 -0.2492  0.7135
27944SOL    HW295812   7.881   6.412   7.409  0.1631  1.4748  1.7486
27945SOL     OW95813   8.045  13.505   4.196 -0.2722  0.3639  0.7406
27945SOL    HW195814   8.100  13.580   4.220 -1.3416  0.6713  2.3728
27945SOL    HW295815   8.099  13.429   4.215 -0.0694  0.6742  1.4216
27946SOL     OW95816  11.092   7.022  10.716  0.2839 -0.5636 -0.4677
27946SOL    HW195817  11.046   7.023  10.632  0.2788 -1.3711 -0.4818
27946SOL    HW295818  11.185   7.029  10.691  0.1965  1.8740 -0.4078
27947SOL     OW95819  13.192  11.113   2.574  0.3304 -0.6589 -0.0406
27947SOL    HW195820  13.256  11.048   2.546  2.1224  0.6290  0.8479
27947SOL    HW295821  13.155  11.077   2.655  0.9055 -0.8338  0.1466
27948SOL     OW95822   9.451   3.097   2.346  0.2995  0.3045 -0.1152
27948SOL    HW195823   9.453   3.034   2.418 -0.4013  0.8165  0.3746
27948SOL    HW295824   9.358   3.107   2.326  0.5540 -1.3474 -2.4842
27949SOL     OW95825  10.033  10.302  12.409 -0.6070 -0.5488  0.2308
27949SOL    HW195826   9.943  10.277  12.388 -0.4275 -1.5925  0.6214
27949SOL    HW295827  10.079  10.219  12.416 -0.0641 -0.1388  2.0722
27950SOL     OW95828   6.190   0.173   3.360  0.3790  0.4326 -0.3599
27950SOL    HW195829   6.261   0.226   3.324 -0.7125  1.5439 -0.9657
27950SOL    HW295830   6.169   0.111   3.289  0.5451  0.3010 -0.2942
27951SOL     OW95831   8.211   2.688   7.849  1.0524  0.3832 -0.4248
27951SOL    HW195832   8.143   2.629   7.882  0.8136  0.4504 -0.7955
27951SOL    HW295833   8.273   2.696   7.922  1.3060 -0.6451 -0.5027
27952SOL     OW95834  10.707  11.980  11.468 -0.0609 -0.4297  0.0890
27952SOL    HW195835  10.763  12.004  11.541 -0.6370 -1.5412  0.9291
27952SOL    HW295836  10.643  12.051  11.462  0.6623  0.2196 -0.0715
27953SOL     OW95837   8.726   2.226   3.225 -0.1728 -0.1276 -0.1620
27953SOL    HW195838   8.769   2.140   3.228  0.6961  0.3067  0.7267
27953SOL    HW295839   8.778   2.280   3.285 -1.8264  0.5047  0.7514
27954SOL     OW95840   9.403  12.036  13.744  0.3878 -0.4558 -0.4591
27954SOL    HW195841   9.415  11.946  13.714  1.5547 -0.1546 -0.9499
27954SOL    HW295842   9.380  12.028  13.837  0.9629 -1.2517 -0.3743
27955SOL     OW95843   4.138   0.001  13.509 -0.3280  0.0592  0.9734
27955SOL    HW195844   4.201  -0.054  13.463  0.1412  2.6897 -1.9154
27955SOL    HW295845   4.083  -0.060  13.558  0.0189 -2.9891 -2.0657
27956SOL     OW95846   9.272  11.087   6.420  0.0280  0.2166  0.3964
27956SOL    HW195847   9.278  11.034   6.341 -1.1110  2.1709 -1.0785
27956SOL    HW295848   9.187  11.063   6.459 -0.4276  0.8231 -0.2006
27957SOL     OW95849  12.976  10.602   2.383  0.9419  0.0917 -0.4329
27957SOL    HW195850  13.059  10.644   2.406  0.8696  0.6686 -1.1953
27957SOL    HW295851  12.986  10.577   2.291  0.5359 -0.5000 -0.3255
27958SOL     OW95852  12.069   8.928   9.658  0.0354 -0.0965 -0.1881
27958SOL    HW195853  12.080   8.933   9.753 -0.1105  1.0676 -0.2173
27958SOL    HW295854  12.143   8.876   9.628  0.1164 -0.4290  0.5557
27959SOL     OW95855   3.694   4.382   7.634  0.2318  0.8357  0.0836
27959SOL    HW195856   3.752   4.417   7.702 -0.8177 -0.1948  1.5470
27959SOL    HW295857   3.633   4.325   7.680 -0.6617  0.2631 -1.7030
27960SOL     OW95858   7.812   2.342   1.513  0.0837 -0.5950 -0.4833
27960SOL    HW195859   7.856   2.273   1.462 -0.9496 -0.4221 -1.6748
27960SOL    HW295860   7.831   2.422   1.465 -0.5658 -0.3674 -0.3613
27961SOL     OW95861  11.446   3.060  10.383  0.3200 -0.0623 -0.4025
27961SOL    HW195862  11.482   2.992  10.326 -0.4995 -0.1591 -0.8151
27961SOL    HW295863  11.510   3.068  10.454  1.7656  0.6136 -1.7226
27962SOL     OW95864   0.304  11.230  13.292  0.2993 -0.0344  0.6864
27962SOL    HW195865   0.315  11.142  13.256  0.4194  0.3157 -0.1536
27962SOL    HW295866   0.246  11.274  13.229  0.1577  0.4545  1.1542
27963SOL     OW95867   2.388   9.515   2.243  0.0279  0.3631  0.3504
27963SOL    HW195868   2.393   9.497   2.337  0.9989 -0.4103  0.1693
27963SOL    HW295869   2.407   9.608   2.234  0.3462  0.3497  0.8886
27964SOL     OW95870   4.409   8.724  11.299  0.3589 -0.4815 -0.4423
27964SOL    HW195871   4.340   8.754  11.239  0.2224  0.5561  0.2137
27964SOL    HW295872   4.394   8.629  11.306 -1.2624 -0.2281 -0.0025
27965SOL     OW95873   0.675   8.175   0.047  0.1982  0.1111 -0.5141
27965SOL    HW195874   0.671   8.269   0.062 -1.9454 -0.1240  0.7883
27965SOL    HW295875   0.673   8.166  -0.048 -2.8703  1.3944 -0.7106
27966SOL     OW95876   4.122   1.849   0.710  0.3188  0.3164 -0.1227
27966SOL    HW195877   4.087   1.850   0.799 -0.7222 -1.1224 -0.4776
27966SOL    HW295878   4.211   1.884   0.719  0.4366 -0.3062  1.5678
27967SOL     OW95879   6.651   9.005  12.140  0.5164 -0.3615 -0.2852
27967SOL    HW195880   6.558   9.024  12.126  0.3977 -1.2470 -0.7341
27967SOL    HW295881   6.681   8.972  12.055  1.4636  0.7553 -0.4098
27968SOL     OW95882  11.774   1.130   5.938 -0.5398 -0.2723  0.0824
27968SOL    HW195883  11.726   1.202   5.896 -0.2097  0.1418  0.3998
27968SOL    HW295884  11.770   1.150   6.031 -0.3132 -0.5854  0.1604
27969SOL     OW95885   8.937   4.976   9.569 -0.8849  0.3441  0.3984
27969SOL    HW195886   9.005   5.043   9.558 -2.6294  2.0195 -1.0082
27969SOL    HW295887   8.979   4.906   9.618  1.1338  2.3704  1.7312
27970SOL     OW95888  12.556   8.536   8.856 -0.0325 -0.2344  0.0206
27970SOL    HW195889  12.494   8.605   8.833 -1.0181 -1.6030 -1.7207
27970SOL    HW295890  12.633   8.554   8.802 -0.1233 -0.2406 -0.1123
27971SOL     OW95891   3.734   6.965   3.644  0.6449  0.5894  0.3802
27971SOL    HW195892   3.729   7.025   3.718 -0.6010  0.3768  0.4930
27971SOL    HW295893   3.803   7.001   3.588 -1.2962  3.2390 -0.5072
27972SOL     OW95894  10.836   1.639   4.494  0.0445 -0.3803  0.7186
27972SOL    HW195895  10.914   1.672   4.538  0.2383 -0.9183  0.7912
27972SOL    HW295896  10.856   1.547   4.475 -0.8360 -0.7433  1.4065
27973SOL     OW95897   3.778   2.888   6.316 -0.1891  0.2066  0.4419
27973SOL    HW195898   3.757   2.974   6.280 -0.6093  0.3113  0.9153
27973SOL    HW295899   3.706   2.870   6.377 -0.4710 -0.7809 -0.1570
27974SOL     OW95900  12.950   6.097   9.504 -0.1064  0.2245 -0.2514
27974SOL    HW195901  12.964   6.069   9.414 -0.9686  2.8746 -1.3085
27974SOL    HW295902  12.857   6.082   9.521  0.1101 -0.5388  0.3397
27975SOL     OW95903   9.706   9.043   2.245  0.3574  0.1318 -0.3849
27975SOL    HW195904   9.628   9.056   2.190  0.1694 -0.8189 -0.3625
27975SOL    HW295905   9.675   8.989   2.318  0.2548  2.5901  1.4978
27976SOL     OW95906   1.946   3.048  10.712  0.2671 -0.0472 -0.3546
27976SOL    HW195907   1.946   3.056  10.616 -1.1330  0.1717 -0.3552
27976SOL    HW295908   1.870   2.993  10.731  0.2464  0.3275  0.6642
27977SOL     OW95909   1.359   2.551   4.734 -0.1431  0.3582  0.2997
27977SOL    HW195910   1.405   2.489   4.678 -1.1027 -0.6945  0.6480
27977SOL    HW295911   1.349   2.629   4.680 -1.1066 -0.6529 -1.0452
27978SOL     OW95912   3.689   3.091   4.276 -0.1581 -0.3700 -0.1850
27978SOL    HW195913   3.720   3.122   4.361 -0.4860  1.1103 -0.5802
27978SOL    HW295914   3.727   3.004   4.267  1.3991  0.1925  0.6609
27979SOL     OW95915   0.770   5.266   4.663  0.2407 -0.3218  0.1828
27979SOL    HW195916   0.699   5.204   4.680  0.9979 -1.3582 -0.2908
27979SOL    HW295917   0.822   5.266   4.743  0.4406 -0.5832  0.0551
27980SOL     OW95918  10.494  12.293   4.796 -0.1673  0.7603  0.1077
27980SOL    HW195919  10.439  12.218   4.819 -0.0554  0.9972  1.1861
27980SOL    HW295920  10.474  12.358   4.863  2.0098  0.5733  1.0177
27981SOL     OW95921   0.306   4.612   2.488 -0.1005  0.6912 -0.4649
27981SOL    HW195922   0.386   4.602   2.435 -0.6722 -1.3133 -1.0336
27981SOL    HW295923   0.306   4.536   2.546 -3.2671 -1.3860 -2.8619
27982SOL     OW95924   2.175   8.074   3.557  0.0625  0.1370  0.3580
27982SOL    HW195925   2.166   8.119   3.641 -0.5890  0.2188  0.2512
27982SOL    HW295926   2.151   8.140   3.492 -0.2539 -0.1627  0.1613
27983SOL     OW95927  11.836   9.805   0.102  0.5985 -0.6218 -0.2319
27983SOL    HW195928  11.754   9.761   0.124  0.4367 -0.3772 -0.3551
27983SOL    HW295929  11.843   9.797   0.007 -0.0154  0.6448 -0.3962
27984SOL     OW95930   7.994   0.196  10.250 -0.3626  0.1758  0.5947
27984SOL    HW195931   8.020   0.106  10.269  0.4633  0.2685 -0.0445
27984SOL    HW295932   7.922   0.214  10.311 -0.5200 -0.9033  0.7386
27985SOL     OW95933   4.833   8.638   4.797 -0.1008  0.5175 -0.5501
27985SOL    HW195934   4.922   8.644   4.833 -0.2349  0.2058 -0.1552
27985SOL    HW295935   4.778   8.680   4.862 -0.3329  0.0557 -0.4461
27986SOL     OW95936  12.988   7.274  13.387 -0.5033 -0.3890 -0.0577
27986SOL    HW195937  12.953   7.239  13.306 -2.2603  2.8237 -0.8484
27986SOL    HW295938  13.075   7.308  13.364 -0.0144 -1.5429  0.0281
27987SOL     OW95939   2.747   5.592  13.158  0.1820 -0.2773  0.0278
27987SOL    HW195940   2.711   5.640  13.083  0.0608 -1.0227 -0.4033
27987SOL    HW295941   2.832   5.561  13.128  0.5910  0.3191  0.5707
27988SOL     OW95942  12.948   5.951   9.279 -0.0515  0.1288  0.0234
27988SOL    HW195943  12.970   5.863   9.250 -0.0048 -0.1006  0.7277
27988SOL    HW295944  12.979   6.009   9.210  3.5042 -0.0883  1.2627
27989SOL     OW95945  12.563   4.802   8.302 -0.2161 -0.0243  0.1028
27989SOL    HW195946  12.549   4.896   8.311  0.7211  0.1072  0.3165
27989SOL    HW295947  12.569   4.787   8.207 -1.0827  0.0119  0.0379
27990SOL     OW95948   9.563   4.492   3.022  0.7091  0.4710 -0.8440
27990SOL    HW195949   9.637   4.432   3.020  0.5604  0.2168  0.2848
27990SOL    HW295950   9.494   4.449   2.972  0.8493  0.0441 -0.6672
27991SOL     OW95951   8.303   8.620   0.293  0.0629  0.6103 -0.0166
27991SOL    HW195952   8.374   8.574   0.249 -0.1014  1.7802 -1.5939
27991SOL    HW295953   8.227   8.608   0.236 -1.0873 -0.6848  1.6676
27992SOL     OW95954  11.905   8.878  11.247 -0.2878 -0.1976 -0.3645
27992SOL    HW195955  11.869   8.967  11.244 -0.7895 -0.4400 -2.6392
27992SOL    HW295956  11.888   8.849  11.337 -2.0912  1.1831 -0.2075
27993SOL     OW95957  13.303  12.808   6.634 -0.5209 -0.1592 -0.5503
27993SOL    HW195958  13.399  12.816   6.641 -0.3403 -2.4137  0.2908
27993SOL    HW295959  13.271  12.841   6.718 -0.3889 -0.4502 -0.3829
27994SOL     OW95960   7.264   1.326   6.205  0.3873  0.1546 -0.0272
27994SOL    HW195961   7.228   1.364   6.285 -0.4142  1.9062 -1.1628
27994SOL    HW295962   7.352   1.361   6.198  0.3167  0.3194 -0.1041
27995SOL     OW95963  12.683  13.092   0.173 -0.2874 -0.1273 -0.1463
27995SOL    HW195964  12.706  12.999   0.162 -2.2135 -0.5553 -1.0297
27995SOL    HW295965  12.609  13.091   0.234 -0.5473  0.7812 -0.4280
27996SOL     OW95966   6.718   9.140  11.527 -0.2041 -0.7414 -0.6712
27996SOL    HW195967   6.762   9.183  11.454 -0.9421  1.4509  0.0875
27996SOL    HW295968   6.637   9.105  11.488  0.3444 -1.3635 -1.2800
27997SOL     OW95969   1.918   7.608   5.943  0.1292 -0.0523 -0.2327
27997SOL    HW195970   1.835   7.644   5.912  0.1901 -0.6159 -1.1064
27997SOL    HW295971   1.941   7.661   6.019 -0.4826  0.8127 -0.6380
27998SOL     OW95972   0.975   6.399   2.494  0.3022 -0.0835  0.0858
27998SOL    HW195973   1.068   6.419   2.502  0.5695 -0.3285 -1.8177
27998SOL    HW295974   0.930   6.477   2.526  1.2043  0.6263 -0.3357
27999SOL     OW95975  14.045   9.922   0.792 -0.4494  0.3191  0.4048
27999SOL    HW195976  14.085   9.841   0.824 -2.1693  0.0032  1.9550
27999SOL    HW295977  14.022   9.904   0.701  2.5027  0.4103 -0.4496
28000SOL     OW95978   4.869   3.195  12.559  0.4962 -0.3336 -0.1015
28000SOL    HW195979   4.891   3.126  12.497 -1.2658 -0.6790 -0.4065
28000SOL    HW295980   4.953   3.225  12.593  1.4213 -1.0992 -1.6106
28001SOL     OW95981   0.707  12.912   1.848 -0.2006  0.2775 -0.4638
28001SOL    HW195982   0.774  12.945   1.908 -1.1108  2.7420 -0.6839
28001SOL    HW295983   0.702  12.978   1.779 -0.1226 -1.8410 -2.5956
28002SOL     OW95984   2.717   8.991   7.320  0.2942  0.1452  0.1590
28002SOL    HW195985   2.721   8.995   7.415 -2.0995 -0.9907  0.3728
28002SOL    HW295986   2.630   9.026   7.298 -0.1441 -1.7796 -1.4084
28003SOL     OW95987  10.835  10.434   5.445  0.5282  0.1758  0.3710
28003SOL    HW195988  10.812  10.507   5.502 -3.6785  0.3581 -1.1560
28003SOL    HW295989  10.836  10.358   5.502  0.7940  0.8714  1.3193
28004SOL     OW95990   3.582   5.652   3.152  0.1659  0.4864  0.4648
28004SOL    HW195991   3.663   5.672   3.106 -0.1929 -0.5839 -0.6972
28004SOL    HW295992   3.562   5.562   3.126 -0.9676  0.4583  1.3716
28005SOL     OW95993  10.357   3.075  10.970  0.2283  0.6087 -0.6013
28005SOL    HW195994  10.400   2.998  11.007  0.2782  0.1395 -1.6037
28005SOL    HW295995  10.338   3.051  10.880 -0.9496  1.2919 -0.5626
28006SOL     OW95996   3.711   1.920   6.390 -0.4416  0.3225  0.2993
28006SOL    HW195997   3.766   1.842   6.390  1.3718  1.4925  1.5622
28006SOL    HW295998   3.749   1.976   6.459 -2.0457  2.0435 -0.1167
28007SOL     OW95999   3.636   9.024   9.743  0.0046 -0.4022  0.1460
28007SOL    HW196000   3.559   9.077   9.764  0.5996  0.6903 -0.3391
28007SOL    HW296001   3.644   9.030   9.647  2.1972  1.7374  0.3688
28008SOL     OW96002   3.488   3.491   4.186  0.1742 -0.0346 -0.2220
28008SOL    HW196003   3.497   3.536   4.269 -0.5218 -0.1665 -0.0694
28008SOL    HW296004   3.465   3.560   4.123 -2.2290 -0.3072  0.2602
28009SOL     OW96005  12.345   2.542   6.145 -0.4513 -0.1404 -0.0613
28009SOL    HW196006  12.306   2.621   6.106 -1.4410 -0.6865 -0.2235
28009SOL    HW296007  12.360   2.565   6.236 -1.5315 -0.0220  0.1062
28010SOL     OW96008  13.961   3.550  13.989 -0.0832  0.0717  0.3269
28010SOL    HW196009  13.888   3.553  13.927 -0.1116  0.7343  0.3917
28010SOL    HW296010  13.956   3.462  14.027 -0.4566 -0.1111 -0.1367
28011SOL     OW96011   4.935   7.599   2.221  0.2975 -0.1489  0.2994
28011SOL    HW196012   4.948   7.694   2.227 -0.3191 -0.1376  3.6247
28011SOL    HW296013   4.863   7.588   2.159 -0.0596  1.6149  0.3484
28012SOL     OW96014   2.786   8.014   3.082 -0.2027  0.4027 -0.0666
28012SOL    HW196015   2.755   8.085   3.026  0.3004  0.3339 -0.4398
28012SOL    HW296016   2.750   8.034   3.168  1.1002  1.8973  0.1749
28013SOL     OW96017   3.795   0.351   6.103 -0.2007 -0.0692 -0.2138
28013SOL    HW196018   3.776   0.303   6.022 -1.7730  1.3647 -0.7485
28013SOL    HW296019   3.709   0.365   6.143  0.4056  0.7334  0.8381
28014SOL     OW96020   5.871   5.127   4.344  0.5327 -0.1149  0.4966
28014SOL    HW196021   5.922   5.090   4.415 -1.8115 -0.1022  2.3146
28014SOL    HW296022   5.837   5.051   4.297 -0.3889 -0.2423  1.3196
28015SOL     OW96023   2.941   3.202   0.529  0.3277  0.1662 -0.0528
28015SOL    HW196024   3.025   3.192   0.485  0.3913 -2.7510  0.5002
28015SOL    HW296025   2.929   3.296   0.536  1.1495  0.8153 -4.5437
28016SOL     OW96026   1.026   5.540   2.175 -0.1153  0.6981 -0.0343
28016SOL    HW196027   1.030   5.598   2.100  1.6452  1.0440  0.2784
28016SOL    HW296028   1.109   5.492   2.173 -0.1821  0.4515  1.4640
28017SOL     OW96029  11.136   7.905   0.570  0.1016  0.1620  0.2385
28017SOL    HW196030  11.167   7.964   0.500 -0.0970 -1.0475 -0.9121
28017SOL    HW296031  11.216   7.878   0.615  0.2001  1.2455  0.7554
28018SOL     OW96032   8.897   6.585   2.074  0.3650  0.3262 -0.3382
28018SOL    HW196033   8.954   6.585   1.997 -1.6571 -2.8063 -2.0374
28018SOL    HW296034   8.931   6.514   2.128  0.3833  1.0190  0.5777
28019SOL     OW96035   8.421   0.369  10.825  0.0807  0.2618 -0.4755
28019SOL    HW196036   8.484   0.381  10.896 -0.4040 -1.4298  0.3014
28019SOL    HW296037   8.340   0.409  10.858 -0.2884 -0.9877  0.1712
28020SOL     OW96038  13.006   5.909  11.923  0.1535  0.2865  0.3242
28020SOL    HW196039  12.922   5.879  11.889 -0.6312  0.6026  1.8734
28020SOL    HW296040  12.985   5.945  12.010  1.6879  1.5024  0.2398
28021SOL     OW96041  11.190   6.196  11.633 -0.3423  0.2620  0.4725
28021SOL    HW196042  11.147   6.114  11.654  0.1992 -0.1215  0.1188
28021SOL    HW296043  11.169   6.212  11.540 -1.6157  1.2606  0.8915
28022SOL     OW96044   0.599   9.792   4.410  0.0183  0.5822  0.0720
28022SOL    HW196045   0.694   9.806   4.414 -0.0061  0.8575 -0.2505
28022SOL    HW296046   0.588   9.699   4.430  0.5477 -0.0186 -2.1364
28023SOL     OW96047  12.800  11.355   7.992 -0.4847 -0.0246 -0.0755
28023SOL    HW196048  12.814  11.442   7.955  1.4823 -1.0693 -2.1070
28023SOL    HW296049  12.743  11.311   7.929  0.2995 -0.8543 -0.2241
28024SOL     OW96050   0.120   8.045  12.210 -0.4220  0.7793  0.3090
28024SOL    HW196051   0.036   8.061  12.166  0.5144  3.0590 -0.8218
28024SOL    HW296052   0.150   7.962  12.175 -1.4838  0.7076 -0.4882
28025SOL     OW96053  12.588   8.776  11.760  0.0836 -0.0581 -0.0044
28025SOL    HW196054  12.498   8.743  11.769  0.6307 -1.4667  0.6164
28025SOL    HW296055  12.579   8.855  11.708 -1.6338  0.3618  0.8487
28026SOL     OW96056   2.005   5.771   3.080 -0.8046 -0.6928 -0.2433
28026SOL    HW196057   1.967   5.848   3.039  0.2240 -0.4462 -0.7607
28026SOL    HW296058   1.975   5.775   3.171 -0.6363  0.4030 -0.2239
28027SOL     OW96059   1.630   9.353  12.746 -0.1988 -0.3054  0.0101
28027SOL    HW196060   1.626   9.267  12.789  0.2993 -0.8645 -1.0072
28027SOL    HW296061   1.672   9.411  12.809  0.1706 -1.0057  0.4174
28028SOL     OW96062  11.092   0.987   2.985 -0.2600 -0.7135  0.3787
28028SOL    HW196063  11.175   1.034   2.975 -0.7866  0.3659  0.9824
28028SOL    HW296064  11.118   0.896   3.002  0.7723 -0.8402 -1.5431
28029SOL     OW96065   7.157  13.358   9.390 -0.4156 -0.7316 -0.0084
28029SOL    HW196066   7.141  13.421   9.460  0.4769 -0.8903  0.3545
28029SOL    HW296067   7.249  13.334   9.400 -0.6578 -1.8394 -0.3552
28030SOL     OW96068  10.121   3.155  11.116 -0.5607  0.3871  0.3102
28030SOL    HW196069  10.126   3.230  11.174  1.0570 -1.2249  2.3920
28030SOL    HW296070  10.201   3.159  11.064 -1.1609  0.8555 -0.6008
28031SOL     OW96071   6.609   3.889   7.518  0.3110  0.0233 -0.2407
28031SOL    HW196072   6.639   3.799   7.509  0.2914 -0.0749  0.5945
28031SOL    HW296073   6.605   3.923   7.428 -0.6290 -1.1160 -0.6572
28032SOL     OW96074  13.859   6.995   4.251 -0.1714  0.2969 -0.6218
28032SOL    HW196075  13.951   6.984   4.276 -0.2217  0.4557 -0.3602
28032SOL    HW296076  13.858   7.077   4.201 -0.0049 -0.2167 -1.4915
28033SOL     OW96077   8.323  12.642   3.739 -0.0281 -0.5914 -0.0608
28033SOL    HW196078   8.238  12.618   3.703  1.2010 -2.4299 -1.9725
28033SOL    HW296079   8.334  12.734   3.715 -1.7200 -0.0766  0.8932
28034SOL     OW96080   3.446   4.134   2.388 -0.0805  0.1447  0.3313
28034SOL    HW196081   3.444   4.229   2.388 -1.3768  0.1876 -1.8442
28034SOL    HW296082   3.536   4.111   2.367 -0.1916  0.9635 -1.1470
28035SOL     OW96083  10.080   4.086  10.206  0.3937  0.4543 -0.0923
28035SOL    HW196084  10.020   4.049  10.270  1.2931 -2.5926 -0.8516
28035SOL    HW296085  10.162   4.099  10.254  1.2644 -2.4371 -0.6302
28036SOL     OW96086  13.223   0.762  11.573 -0.1708  0.0361  0.6759
28036SOL    HW196087  13.317   0.759  11.556 -0.5786  0.2189 -2.1388
28036SOL    HW296088  13.195   0.671  11.574 -0.1833  0.0195 -0.2194
28037SOL     OW96089   4.371   2.293   4.398 -0.3016  0.1384  0.1165
28037SOL    HW196090   4.290   2.286   4.348  0.5965 -1.1029 -1.2573
28037SOL    HW296091   4.440   2.273   4.334  1.0679  0.8547  1.3172
28038SOL     OW96092  13.767  11.674   2.336  0.0303 -0.1384 -0.0845
28038SOL    HW196093  13.747  11.768   2.338 -0.5969 -0.2539  2.1997
28038SOL    HW296094  13.713  11.639   2.266 -1.9439  0.8063  0.8727
28039SOL     OW96095   4.947  13.873  12.992  0.0677 -0.5762 -0.1630
28039SOL    HW196096   4.984  13.961  13.005 -1.7573 -0.1224  3.0775
28039SOL    HW296097   4.863  13.889  12.949  1.1846 -1.1519 -2.7484
28040SOL     OW96098   2.963  12.598   5.404 -0.1938  0.1667  0.1277
28040SOL    HW196099   3.032  12.654   5.367 -1.2270 -0.1718 -2.5689
28040SOL    HW296100   2.911  12.657   5.458  0.2147  1.2477 -0.6183
28041SOL     OW96101   8.880   8.037   9.820  0.3830 -0.0819 -0.5512
28041SOL    HW196102   8.838   7.981   9.755 -1.6743 -0.8452  1.3169
28041SOL    HW296103   8.848   8.125   9.800  0.1286 -0.2394 -0.8504
28042SOL     OW96104   3.005   1.688  13.530  0.9053 -0.5098  0.2425
28042SOL    HW196105   3.032   1.752  13.464  0.3170 -0.7782 -0.2621
28042SOL    HW296106   2.947   1.628  13.484  0.3890 -0.6326  1.0353
28043SOL     OW96107   1.300   9.931   1.854  0.3816 -0.3675  0.8161
28043SOL    HW196108   1.383   9.884   1.865  0.3034 -0.5522  0.6435
28043SOL    HW296109   1.289   9.937   1.759  0.0176 -0.6744  0.8347
28044SOL     OW96110   3.134   7.989   0.184 -0.3986 -0.2306 -0.0342
28044SOL    HW196111   3.119   8.075   0.144 -1.1950 -0.0649  0.6016
28044SOL    HW296112   3.185   7.941   0.119 -1.7552 -0.0131 -1.2979
28045SOL     OW96113   7.784   2.349   4.009  0.2844  0.0197 -0.1082
28045SOL    HW196114   7.816   2.364   4.098  0.3044 -0.0706 -0.1003
28045SOL    HW296115   7.855   2.301   3.966  0.0607 -0.3964 -0.0177
28046SOL     OW96116   6.182  11.453   7.020 -0.4281  0.5082 -0.0183
28046SOL    HW196117   6.196  11.401   7.099  0.2176 -1.3438 -1.2846
28046SOL    HW296118   6.241  11.527   7.029 -0.2433  0.2412  1.1628
28047SOL     OW96119   5.697   7.749   3.088 -0.0785 -0.3057 -0.1363
28047SOL    HW196120   5.713   7.831   3.136 -0.4535 -1.6670  2.5413
28047SOL    HW296121   5.783   7.725   3.053  0.1886  0.8450 -0.3007
28048SOL     OW96122   5.847  11.775  13.135  0.1870 -0.2810 -0.1984
28048SOL    HW196123   5.935  11.744  13.112 -0.1247  0.0504 -2.0110
28048SOL    HW296124   5.861  11.862  13.171  0.5672  0.0948 -1.2215
28049SOL     OW96125  10.825   1.142  13.420 -0.2794 -0.3041 -0.2511
28049SOL    HW196126  10.758   1.155  13.487 -1.4840 -3.1509 -0.7795
28049SOL    HW296127  10.780   1.156  13.337  0.4668  0.3407 -0.5584
28050SOL     OW96128   3.487   6.061   1.292 -0.9018  0.3842  0.0825
28050SOL    HW196129   3.471   6.032   1.382  4.0971  0.6550  1.3307
28050SOL    HW296130   3.546   5.996   1.255  1.6420  3.0291 -0.9235
28051SOL     OW96131  11.786   0.634   8.906 -0.0901  0.5563 -0.8210
28051SOL    HW196132  11.759   0.604   8.993  0.9083  1.4100 -0.1869
28051SOL    HW296133  11.832   0.717   8.923 -0.5381  1.1270 -2.2390
28052SOL     OW96134   3.122   9.537   2.077  0.5709  0.4334  0.2395
28052SOL    HW196135   3.035   9.561   2.047  0.9228  1.2454 -0.1706
28052SOL    HW296136   3.173   9.525   1.996  0.1563 -2.9246  0.3268
28053SOL     OW96137   3.820   1.758   0.028  0.1028  0.0269 -0.9543
28053SOL    HW196138   3.912   1.786   0.036 -0.1752  0.7847 -0.2990
28053SOL    HW296139   3.811   1.687   0.092 -0.3201  1.4472  0.6402
28054SOL     OW96140   2.119   6.494  12.703  0.2892  0.5962 -0.3098
28054SOL    HW196141   2.140   6.408  12.739 -0.3273  0.2252 -0.8159
28054SOL    HW296142   2.205   6.535  12.688  0.5629  0.5532  1.0442
28055SOL     OW96143   9.817   5.269   7.850  0.0415 -0.9399  0.5198
28055SOL    HW196144   9.901   5.315   7.855 -1.2116  1.9649 -1.9929
28055SOL    HW296145   9.825   5.214   7.771 -1.2979  1.6864 -1.5827
28056SOL     OW96146   4.085   1.604   4.020 -0.2976  0.2765  0.2842
28056SOL    HW196147   4.002   1.632   4.059  0.3043 -0.1983  1.9834
28056SOL    HW296148   4.061   1.529   3.965 -1.3467  1.7117 -1.3216
28057SOL     OW96149   4.949   4.752   9.798 -0.3740 -0.3506  0.4619
28057SOL    HW196150   4.884   4.789   9.857  0.2736  0.3294  0.7704
28057SOL    HW296151   4.905   4.679   9.756 -1.1515 -0.2503  1.0822
28058SOL     OW96152   2.544   7.641   3.275  0.2920 -0.4746 -0.5120
28058SOL    HW196153   2.538   7.681   3.362 -1.0687 -0.5878 -0.5353
28058SOL    HW296154   2.603   7.566   3.288  1.1772  0.2769 -0.0066
28059SOL     OW96155   4.743  10.049   4.113 -0.1805  0.2013 -0.0856
28059SOL    HW196156   4.763   9.978   4.052  0.3459  1.1639 -1.0672
28059SOL    HW296157   4.667  10.018   4.162  0.0196 -1.0191 -0.5114
28060SOL     OW96158   3.179  11.360   2.385  0.0424  0.2377  0.0160
28060SOL    HW196159   3.170  11.265   2.374  1.3711  0.2236 -1.2811
28060SOL    HW296160   3.181  11.394   2.295 -0.6468  1.5249  0.4718
28061SOL     OW96161  10.482  13.508  10.878 -0.4435  0.7824 -0.2002
28061SOL    HW196162  10.565  13.469  10.850 -0.2834  1.0460 -0.0883
28061SOL    HW296163  10.502  13.600  10.892 -0.5395  0.6812  0.6796
28062SOL     OW96164   7.932   8.130   3.220 -0.4936  0.1407 -0.4888
28062SOL    HW196165   7.897   8.052   3.176  1.0061 -0.8712  0.0647
28062SOL    HW296166   8.023   8.108   3.239 -0.1661  1.8758  0.0686
28063SOL     OW96167   9.165  10.164  13.102 -0.2448  0.5366  0.3031
28063SOL    HW196168   9.253  10.178  13.136  0.4371  0.4312 -1.3108
28063SOL    HW296169   9.107  10.182  13.176  1.0971  1.2388  1.2190
28064SOL     OW96170  11.994   9.660   3.935  0.2466 -0.3500 -0.5533
28064SOL    HW196171  11.950   9.610   3.866 -0.3208  1.0408 -1.2440
28064SOL    HW296172  11.926   9.679   3.999  0.2563  0.2165 -0.7007
28065SOL     OW96173   5.905  11.243   5.072 -0.2554 -0.1533 -0.2640
28065SOL    HW196174   5.898  11.216   5.164 -0.3088 -1.0776 -0.5311
28065SOL    HW296175   5.849  11.320   5.066  0.4771  0.4784  0.6896
28066SOL     OW96176   7.380   2.556   7.136 -0.3713 -0.1666  0.6237
28066SOL    HW196177   7.414   2.524   7.053  0.1323  0.6342  0.5127
28066SOL    HW296178   7.309   2.615   7.112  0.2174  0.6015  0.7140
28067SOL     OW96179   1.240  13.279   1.128 -0.3135  0.1046  0.1073
28067SOL    HW196180   1.191  13.263   1.209  1.5062  0.9314  1.4480
28067SOL    HW296181   1.177  13.322   1.070 -0.9968  1.9390  2.0639
28068SOL     OW96182   7.938   9.059   9.214  0.1618 -0.3066 -0.2522
28068SOL    HW196183   7.934   8.965   9.231  0.0159 -0.5300 -1.4397
28068SOL    HW296184   8.021   9.072   9.169 -0.3360 -0.0504 -1.1138
28069SOL     OW96185   3.342   5.301   6.709 -0.0483 -0.1451  0.1962
28069SOL    HW196186   3.404   5.278   6.778 -0.1103  1.2009  0.7388
28069SOL    HW296187   3.361   5.240   6.638  0.7759 -0.8281  0.9827
28070SOL     OW96188  12.113   0.443  13.011  0.1968 -0.2693  0.7774
28070SOL    HW196189  12.192   0.399  13.041 -0.8305 -1.5639  1.6803
28070SOL    HW296190  12.077   0.385  12.944  0.2256  0.5380  0.0356
28071SOL     OW96191   6.800   9.539  13.390  0.0095  0.0022  0.4317
28071SOL    HW196192   6.724   9.594  13.410  0.3115  0.3423  0.6735
28071SOL    HW296193   6.874   9.601  13.388  0.7940 -0.7041  3.2766
28072SOL     OW96194   1.173   8.061   3.577  0.1080  0.4542  0.3444
28072SOL    HW196195   1.253   8.068   3.525  0.4925  1.9359  1.0987
28072SOL    HW296196   1.144   8.151   3.590 -0.7572  0.0316  1.4980
28073SOL     OW96197   8.490   5.634   2.646 -0.6743  0.3327  0.7741
28073SOL    HW196198   8.474   5.718   2.604 -0.0356 -0.4431 -1.1476
28073SOL    HW296199   8.439   5.571   2.595 -1.0718 -0.4875  2.1148
28074SOL     OW96200   6.615  11.117   9.465 -0.3869 -0.4466 -0.5287
28074SOL    HW196201   6.708  11.103   9.484 -0.4794  0.5595  0.8798
28074SOL    HW296202   6.614  11.162   9.381  0.2720 -2.1169 -1.4716
28075SOL     OW96203   6.194   8.826  14.045 -0.2353 -0.8191  0.0832
28075SOL    HW196204   6.284   8.799  14.059  0.9094  1.5458 -1.8759
28075SOL    HW296205   6.164   8.773  13.971  0.0383 -0.6731 -0.1336
28076SOL     OW96206   3.486   1.127   5.978 -0.0838 -0.2305  0.1538
28076SOL    HW196207   3.454   1.157   5.893 -0.1821 -0.4498  0.1120
28076SOL    HW296208   3.407   1.103   6.027 -0.0379  0.0467  0.3654
28077SOL     OW96209   7.001  11.940   6.371 -0.2564  0.5185 -0.0686
28077SOL    HW196210   7.061  11.917   6.442 -0.2146  1.0706  0.0785
28077SOL    HW296211   6.930  11.989   6.414 -0.5499  0.3184 -0.3171
28078SOL     OW96212   8.414   4.987  13.829  0.2155  0.2243 -0.3806
28078SOL    HW196213   8.494   4.934  13.824 -0.8803 -1.3965 -2.1910
28078SOL    HW296214   8.349   4.927  13.867 -0.6181  0.8955 -0.7300
28079SOL     OW96215   5.122   1.457   8.786 -0.0778  0.0325 -0.2293
28079SOL    HW196216   5.123   1.418   8.873  0.6478  0.5114 -0.0146
28079SOL    HW296217   5.137   1.550   8.801 -1.8527  0.4294 -0.7347
28080SOL     OW96218   3.689  11.067  12.114  0.6566 -0.5735 -0.0943
28080SOL    HW196219   3.721  11.090  12.202 -2.2674  0.6450  0.7826
28080SOL    HW296220   3.709  11.144  12.061  2.0379 -1.1366 -0.4167
28081SOL     OW96221   1.015   5.607   8.048 -0.5343 -0.2806  0.3818
28081SOL    HW196222   1.091   5.663   8.061 -0.3914 -0.0479 -1.1829
28081SOL    HW296223   0.959   5.623   8.124  1.8499 -2.0063  2.6904
28082SOL     OW96224  11.480   9.194   5.470 -0.7951 -0.5913  0.0980
28082SOL    HW196225  11.484   9.148   5.553  1.2189  0.2891  0.5610
28082SOL    HW296226  11.559   9.165   5.423  1.4052  3.2237  0.9823
28083SOL     OW96227   3.444  13.318   3.204 -0.2408  0.8147  0.3897
28083SOL    HW196228   3.424  13.308   3.111  0.5094 -2.7955  0.4782
28083SOL    HW296229   3.528  13.365   3.206  1.4261 -1.8841 -1.0316
28084SOL     OW96230   1.992   7.572   1.842  0.2891 -0.3286 -0.2321
28084SOL    HW196231   1.975   7.593   1.934 -1.3188 -2.5103  0.0346
28084SOL    HW296232   2.037   7.650   1.808 -0.7480  1.3077  1.8955
28085SOL     OW96233   0.890   3.116   8.728  0.4726  0.3244  0.0863
28085SOL    HW196234   0.884   3.104   8.634  2.5365 -3.1309  0.1941
28085SOL    HW296235   0.984   3.118   8.746  0.1295  1.2442  2.0411
28086SOL     OW96236  11.303   0.079   4.411 -0.2651  0.2614 -0.5068
28086SOL    HW196237  11.319   0.087   4.317  0.3629 -0.8654 -0.5193
28086SOL    HW296238  11.246   0.002   4.418 -0.5250  0.4999  0.0185
28087SOL     OW96239   9.146  12.445   9.775  0.4713 -0.0517 -0.1740
28087SOL    HW196240   9.134  12.366   9.828 -1.4479  0.2335 -0.1139
28087SOL    HW296241   9.183  12.509   9.835  0.4995 -0.4298  0.2157
28088SOL     OW96242  12.841  13.197   9.615  0.2529 -0.4850 -0.0788
28088SOL    HW196243  12.856  13.271   9.555  0.0459  1.4676  2.1300
28088SOL    HW296244  12.769  13.148   9.575  0.2209  0.6457 -1.4966
28089SOL     OW96245   3.607  13.598   4.885 -0.1870  0.2163  0.0300
28089SOL    HW196246   3.686  13.580   4.937  0.8480 -0.6507 -1.7583
28089SOL    HW296247   3.535  13.586   4.947  1.0185 -0.0204  1.4578
28090SOL     OW96248   4.150   9.114   0.392 -0.6466 -0.1109 -0.1168
28090SOL    HW196249   4.083   9.168   0.433 -0.2154  0.5504 -0.2554
28090SOL    HW296250   4.216   9.103   0.461 -0.5512 -0.1278 -0.2109
28091SOL     OW96251   4.428   6.533   7.025 -0.4649 -0.3077  0.1463
28091SOL    HW196252   4.489   6.533   6.951 -0.8042 -1.4404 -0.1428
28091SOL    HW296253   4.354   6.480   6.995 -0.9668 -0.1072  1.0082
28092SOL     OW96254   6.261   7.483  10.544 -0.0001 -0.4927 -0.0724
28092SOL    HW196255   6.298   7.545  10.607  0.7463 -0.7801 -0.2242
28092SOL    HW296256   6.168   7.477  10.569 -0.1085  0.7596 -0.1194
28093SOL     OW96257   1.904   3.392   9.881  0.0349 -0.3268 -0.2791
28093SOL    HW196258   1.949   3.343   9.950  0.6515 -1.8674 -1.7073
28093SOL    HW296259   1.948   3.365   9.800 -3.3611 -1.8859 -1.7879
28094SOL     OW96260  10.197  13.405   2.525 -0.2363  0.0783  0.3511
28094SOL    HW196261  10.225  13.474   2.585  0.6806  0.1518 -0.1358
28094SOL    HW296262  10.246  13.327   2.552 -1.4222 -0.4683  1.0326
28095SOL     OW96263   1.620   7.390   3.554 -0.2183 -0.5532 -0.1210
28095SOL    HW196264   1.698   7.341   3.580  0.9488 -1.5473 -4.5860
28095SOL    HW296265   1.547   7.330   3.570  0.1765 -0.5957  1.7298
28096SOL     OW96266  10.293  12.344   9.669  0.0703  0.2011  0.0428
28096SOL    HW196267  10.234  12.283   9.625  0.5787  0.7937 -1.5455
28096SOL    HW296268  10.235  12.407   9.713 -0.4573 -1.4376  1.8192
28097SOL     OW96269   4.478   6.979  13.569 -0.1500  0.4055 -0.1497
28097SOL    HW196270   4.409   6.925  13.530 -0.3837  0.8645 -0.3846
28097SOL    HW296271   4.439   7.065  13.578  0.7879  1.0191 -1.5117
28098SOL     OW96272  13.846   7.943   4.675 -0.0988  0.2849  0.0265
28098SOL    HW196273  13.753   7.937   4.699 -0.3776  0.8579 -0.8436
28098SOL    HW296274  13.847   7.920   4.582  0.4581  1.4450 -0.2731
28099SOL     OW96275   0.897  10.316   6.012 -0.2197  0.1828  0.2750
28099SOL    HW196276   0.880  10.228   6.046 -1.8881 -0.1957 -1.3668
28099SOL    HW296277   0.811  10.360   6.015  0.0057  0.8096 -1.4172
28100SOL     OW96278   1.176  12.800  11.849 -0.5529 -0.0378 -0.0192
28100SOL    HW196279   1.155  12.843  11.932  1.4475 -0.9020  0.9865
28100SOL    HW296280   1.119  12.723  11.847 -2.4977  1.3263 -0.7578
28101SOL     OW96281   4.242  11.102  13.205 -0.1747 -0.0498 -0.0650
28101SOL    HW196282   4.251  11.133  13.115 -0.9553 -1.6416 -0.7439
28101SOL    HW296283   4.147  11.090  13.217 -0.0889  0.2328  1.0001
28102SOL     OW96284   3.434   8.884   2.003 -0.1899  0.3719 -0.5840
28102SOL    HW196285   3.487   8.955   2.039 -0.5552  0.0684  0.6246
28102SOL    HW296286   3.497   8.824   1.963  0.4857 -0.2527  1.3027
28103SOL     OW96287   0.790   5.780   0.758  0.1052 -0.4830  0.0512
28103SOL    HW196288   0.724   5.721   0.720  0.4598 -0.8398 -0.0209
28103SOL    HW296289   0.747   5.816   0.836 -1.0107  1.0410 -1.2038
28104SOL     OW96290  11.577  11.975  11.485  0.2071 -0.1801  0.6397
28104SOL    HW196291  11.623  12.045  11.532  2.7852 -1.6798  0.5576
28104SOL    HW296292  11.626  11.895  11.507 -2.3116 -1.9342  0.3675
28105SOL     OW96293   1.313  12.761  12.563  0.1545 -0.3003  0.1198
28105SOL    HW196294   1.390  12.757  12.506 -0.8165 -1.6998 -1.1682
28105SOL    HW296295   1.333  12.830  12.626  2.1000 -0.0629 -0.7046
28106SOL     OW96296   5.336   9.331   1.454 -0.1015  0.2172  0.4110
28106SOL    HW196297   5.415   9.364   1.496 -0.0507 -1.3467  1.6627
28106SOL    HW296298   5.362   9.309   1.365  0.6880  0.3953  0.5940
28107SOL     OW96299  12.212   9.821   4.031 -0.4570  0.3868  0.0485
28107SOL    HW196300  12.203   9.916   4.041 -0.5324  0.3240  0.6520
28107SOL    HW296301  12.126   9.792   4.000  0.0370  0.6945 -1.7260
28108SOL     OW96302   0.722  10.453  12.417 -0.0249  0.2555  0.3536
28108SOL    HW196303   0.648  10.492  12.371 -0.7667  1.8463  2.6966
28108SOL    HW296304   0.703  10.359  12.416 -0.9947  0.4324 -0.8553
28109SOL     OW96305  11.926   0.071   2.402 -0.5083  0.0224  0.1150
28109SOL    HW196306  11.880   0.153   2.385  0.1663  0.5479  0.7394
28109SOL    HW296307  11.869   0.023   2.462 -0.1761  0.7523  1.0441
28110SOL     OW96308  12.389   4.502   9.143 -0.3407  1.0831  0.7335
28110SOL    HW196309  12.334   4.565   9.191 -1.7516  1.0507 -0.7673
28110SOL    HW296310  12.362   4.417   9.178 -0.3496  1.1418  0.8735
28111SOL     OW96311   5.816   5.325   7.768 -0.3181 -0.3429 -0.0435
28111SOL    HW196312   5.893   5.277   7.797  0.3261  0.8516  0.2917
28111SOL    HW296313   5.742   5.267   7.789  0.3112 -0.5657  1.7364
28112SOL     OW96314  10.257   3.330   9.716  0.0741 -0.1806 -0.2995
28112SOL    HW196315  10.178   3.322   9.770  0.1551 -0.5655 -0.2291
28112SOL    HW296316  10.329   3.335   9.780  0.1124  0.0719 -0.3636
28113SOL     OW96317   4.426   7.997   4.888 -0.8603  0.1075 -0.7210
28113SOL    HW196318   4.343   8.006   4.936 -2.4019 -0.1780 -3.1628
28113SOL    HW296319   4.431   8.076   4.834 -0.2665 -0.5267 -1.6224
28114SOL     OW96320  12.490   9.896   1.410 -0.1521  0.3092  0.0881
28114SOL    HW196321  12.573   9.931   1.377  1.5334 -3.5001 -0.2336
28114SOL    HW296322  12.433   9.895   1.334  1.3616 -1.8650 -1.1337
28115SOL     OW96323  12.091  11.643   6.177 -0.6206 -0.1987  0.0280
28115SOL    HW196324  12.182  11.613   6.179  0.2557  2.1756 -0.3905
28115SOL    HW296325  12.064  11.632   6.085  0.5231  2.3322 -0.6978
28116SOL     OW96326   2.758   5.057   4.950 -0.2903  0.3613 -0.5726
28116SOL    HW196327   2.730   4.974   4.914  1.2467  1.1003 -3.8487
28116SOL    HW296328   2.710   5.123   4.900 -0.6901  1.5139  1.2249
28117SOL     OW96329   1.665  12.944   9.886 -0.2205  0.6647 -0.2245
28117SOL    HW196330   1.666  12.926   9.980 -2.5166 -1.0882 -0.4534
28117SOL    HW296331   1.757  12.938   9.859  0.3285 -0.0858  1.6632
28118SOL     OW96332   4.587   2.792   5.608 -1.0188  0.7465 -0.1010
28118SOL    HW196333   4.500   2.788   5.647 -0.6035 -0.6599  0.7567
28118SOL    HW296334   4.630   2.711   5.636  1.3645  2.3942  1.4365
28119SOL     OW96335   3.036  13.647   1.585  0.1562  0.0189 -0.1338
28119SOL    HW196336   3.062  13.707   1.514  2.6751  0.3671  0.9936
28119SOL    HW296337   3.032  13.702   1.663 -3.1122 -0.2548  0.0270
28120SOL     OW96338  13.040   8.388   5.210  0.3808 -0.3782 -0.3577
28120SOL    HW196339  13.130   8.411   5.232  0.2366  0.4943 -0.6454
28120SOL    HW296340  12.987   8.460   5.244 -0.3998 -1.6640  1.2712
28121SOL     OW96341   5.153  13.291  11.198  0.0218  0.0481  0.2294
28121SOL    HW196342   5.065  13.276  11.163  0.6933 -1.2131 -1.0229
28121SOL    HW296343   5.151  13.254  11.286 -0.6697 -0.0691  0.1680
28122SOL     OW96344   9.848  11.958   5.948 -0.3496 -0.1649 -0.2653
28122SOL    HW196345   9.771  11.904   5.933 -0.4244  0.0517 -0.6837
28122SOL    HW296346   9.895  11.915   6.020 -0.8391 -0.3187 -0.0341
28123SOL     OW96347   6.960  11.326   9.447  0.6468 -0.1768 -0.0278
28123SOL    HW196348   6.982  11.419   9.450  1.3710 -0.3251 -0.5654
28123SOL    HW296349   6.909  11.311   9.527  1.4324  0.4482  0.6078
28124SOL     OW96350   1.393   2.320   2.613 -0.0124 -0.2312  0.0625
28124SOL    HW196351   1.464   2.272   2.656 -0.2919 -0.0149  0.7776
28124SOL    HW296352   1.321   2.257   2.607  0.1595 -0.3818 -0.4565
28125SOL     OW96353   7.715  10.002   1.048  0.2934  0.2043  0.5610
28125SOL    HW196354   7.686  10.082   1.004  0.4708 -0.5447 -0.9607
28125SOL    HW296355   7.791   9.973   0.997  0.7629 -0.4799  1.6154
28126SOL     OW96356  12.231  10.471   3.472  0.2796  0.1243  0.0344
28126SOL    HW196357  12.303  10.444   3.415  0.8102  1.5429 -0.0115
28126SOL    HW296358  12.211  10.393   3.524  1.0692 -0.6289 -0.7558
28127SOL     OW96359  12.219   6.671   3.436 -1.0831  0.5309 -0.1458
28127SOL    HW196360  12.206   6.742   3.373 -1.2268  0.0603 -0.6529
28127SOL    HW296361  12.204   6.591   3.386  0.5268  0.0799  0.0600
28128SOL     OW96362   7.910   1.916   8.743 -0.4205  0.0604  0.0527
28128SOL    HW196363   7.870   2.003   8.736 -0.3115  0.3510  2.2332
28128SOL    HW296364   7.890   1.873   8.659 -1.4002  1.7946 -0.6506
28129SOL     OW96365   6.031  10.131  12.957  0.2496  0.6670  0.0047
28129SOL    HW196366   6.123  10.104  12.956  0.5283  1.5832 -1.8269
28129SOL    HW296367   6.010  10.149  12.866 -2.3170 -1.3009  0.0781
28130SOL     OW96368   3.967   0.103  12.360  0.1198  0.5660  0.0135
28130SOL    HW196369   4.032   0.033  12.357 -1.4874 -0.9849 -0.1294
28130SOL    HW296370   3.961   0.126  12.453  0.2787  0.1095  0.1418
28131SOL     OW96371   0.188   7.759  11.462 -0.4551  0.0753 -0.0019
28131SOL    HW196372   0.251   7.698  11.502 -0.0847  0.1413 -0.4770
28131SOL    HW296373   0.109   7.748  11.514  0.1718  0.5391  1.0955
28132SOL     OW96374   1.103  13.023   0.315 -0.2334  0.3652 -0.0723
28132SOL    HW196375   1.188  13.038   0.356 -0.7854  0.2258  1.1690
28132SOL    HW296376   1.100  12.928   0.299  0.1040  0.4608 -0.7316
28133SOL     OW96377   6.487  13.819   9.021 -0.7504  0.0791  0.1543
28133SOL    HW196378   6.467  13.811   9.114  1.3586 -0.0217  0.6276
28133SOL    HW296379   6.516  13.910   9.010  0.7731 -0.4021 -0.0176
28134SOL     OW96380   6.220  10.995   3.753 -0.5449 -0.2454  0.1385
28134SOL    HW196381   6.172  11.074   3.727 -1.4880 -1.2575 -1.4074
28134SOL    HW296382   6.312  11.018   3.742 -0.7983  0.7049 -0.0800
28135SOL     OW96383   5.303   3.479   7.537 -0.2517 -0.5137 -0.2608
28135SOL    HW196384   5.250   3.487   7.617  2.0665  1.5352  1.2294
28135SOL    HW296385   5.353   3.398   7.550 -0.1182 -0.3574  0.2403
28136SOL     OW96386   4.733   3.657  13.802  0.2431 -0.0312 -0.3720
28136SOL    HW196387   4.783   3.738  13.813 -2.2319  1.6084 -0.3917
28136SOL    HW296388   4.641   3.685  13.800 -0.6761 -2.7369 -1.4425
28137SOL     OW96389  13.944   3.240  11.517 -0.1184 -0.6824 -0.0995
28137SOL    HW196390  13.991   3.313  11.557 -0.1748 -0.6629 -0.0699
28137SOL    HW296391  13.852   3.258  11.535 -0.1457 -0.6535 -0.2725
28138SOL     OW96392   5.748   5.896   0.846 -0.1408  0.2082 -0.0503
28138SOL    HW196393   5.698   5.967   0.886 -2.2954 -0.5506 -1.2131
28138SOL    HW296394   5.788   5.936   0.768 -1.9621  0.0500 -1.1226
28139SOL     OW96395   8.645  12.459   7.688 -0.0069 -0.5740 -0.2958
28139SOL    HW196396   8.634  12.388   7.751  1.4767 -2.4999 -2.0229
28139SOL    HW296397   8.738  12.457   7.666 -0.3611  0.3616 -2.1048
28140SOL     OW96398   1.493   4.937   5.765 -0.4775 -0.0772 -0.0796
28140SOL    HW196399   1.570   4.917   5.818  0.1782 -1.7291 -1.5600
28140SOL    HW296400   1.528   4.958   5.679 -1.6285  0.1944 -0.5000
28141SOL     OW96401   9.912  10.957  10.622 -0.6994  0.2600 -0.2138
28141SOL    HW196402   9.970  10.914  10.685 -0.3458  0.2199 -0.5640
28141SOL    HW296403   9.968  10.976  10.547 -1.2982 -0.4559 -0.8623
28142SOL     OW96404  13.326   5.632   0.656  0.0339 -0.2744 -0.9189
28142SOL    HW196405  13.404   5.677   0.622  0.1599 -0.9611 -1.5586
28142SOL    HW296406  13.303   5.682   0.735  1.3204 -0.2684 -0.5147
28143SOL     OW96407   7.003  13.519   4.892 -0.7631 -0.2705 -0.4171
28143SOL    HW196408   7.050  13.499   4.811 -0.8798  1.1068 -0.8487
28143SOL    HW296409   6.912  13.503   4.871 -0.5520 -3.1692  0.4903
28144SOL     OW96410   3.082  10.281   8.148  0.3061 -0.1022 -0.6523
28144SOL    HW196411   3.013  10.216   8.137 -0.5856  0.7439 -0.2354
28144SOL    HW296412   3.078  10.334   8.069 -0.5696  0.8854  0.0245
28145SOL     OW96413   6.673  13.382  13.043  0.5487 -0.6772 -0.5251
28145SOL    HW196414   6.612  13.449  13.074  1.2491 -0.9150  1.5197
28145SOL    HW296415   6.714  13.421  12.966 -0.6457  0.3370 -0.6775
28146SOL     OW96416   5.126   5.693  11.958 -0.2639 -0.0116  0.4158
28146SOL    HW196417   5.031   5.699  11.966 -0.5071 -0.0680 -1.6777
28146SOL    HW296418   5.156   5.784  11.954 -0.2621  0.0043  0.7869
28147SOL     OW96419  11.985  10.937  10.787  0.5146 -0.1923  0.0064
28147SOL    HW196420  11.997  10.847  10.816 -1.6127 -0.8716 -1.0545
28147SOL    HW296421  11.984  10.932  10.692  0.4569  0.9764 -0.0726
28148SOL     OW96422  12.816   1.440   8.735 -0.0010 -0.1633 -0.1367
28148SOL    HW196423  12.738   1.464   8.686  0.0130  0.0351 -0.0650
28148SOL    HW296424  12.787   1.438   8.826  0.3601  1.1829  0.0309
28149SOL     OW96425  11.801   1.666   2.659 -0.5228  0.4025  0.3079
28149SOL    HW196426  11.833   1.734   2.719 -1.1515 -0.0909  1.2376
28149SOL    HW296427  11.737   1.712   2.604 -2.6118  0.2011  2.3666
28150SOL     OW96428   9.000   4.976   1.209  0.0149  0.0726  0.0541
28150SOL    HW196429   8.963   4.897   1.170 -1.6966  0.7996  0.1189
28150SOL    HW296430   8.961   4.981   1.296 -1.0765  1.7289 -0.4783
28151SOL     OW96431  10.961   1.343   0.355  0.5485 -0.4168 -0.0924
28151SOL    HW196432  10.913   1.345   0.437 -0.9022 -1.2431 -0.8716
28151SOL    HW296433  10.987   1.434   0.339 -1.4775  0.2207 -0.0148
28152SOL     OW96434   1.316   6.963   1.376 -0.2308 -0.4198 -0.3598
28152SOL    HW196435   1.279   7.015   1.305 -0.8388  0.3981  0.5298
28152SOL    HW296436   1.306   6.872   1.347  0.8878 -0.0789 -1.9625
28153SOL     OW96437   4.353   5.148   7.408  0.6554 -0.0642  0.0612
28153SOL    HW196438   4.397   5.193   7.481 -0.3941  0.5005  0.3666
28153SOL    HW296439   4.268   5.191   7.401  0.6643 -0.2357 -1.3919
28154SOL     OW96440   2.500   0.369   2.827  0.0713  0.2133  0.1161
28154SOL    HW196441   2.439   0.435   2.861  0.3769 -0.2157  1.5491
28154SOL    HW296442   2.581   0.417   2.812 -0.0592  0.4017  0.0063
28155SOL     OW96443   1.104   5.268   6.086 -0.3289  0.2776  0.0743
28155SOL    HW196444   1.131   5.195   6.031 -0.6764 -0.0828  0.3715
28155SOL    HW296445   1.018   5.294   6.052 -0.4467  0.1967  0.3066
28156SOL     OW96446  14.002   0.076   9.732  0.4115  0.2501 -0.0503
28156SOL    HW196447  14.044   0.108   9.812  0.2699 -0.4776  0.3305
28156SOL    HW296448  13.936   0.142   9.711 -0.2792 -0.0606  1.0544
28157SOL     OW96449   5.327   7.855   1.491  0.2799  0.0207  0.2154
28157SOL    HW196450   5.286   7.939   1.469 -0.1187  0.5252  2.6111
28157SOL    HW296451   5.261   7.789   1.466 -0.4163  0.5829  0.5468
28158SOL     OW96452   3.435   4.202   9.088 -0.3836  0.2877 -0.3222
28158SOL    HW196453   3.520   4.203   9.045 -0.7562  0.0007 -1.0956
28158SOL    HW296454   3.447   4.254   9.167  1.0435 -1.3382  0.6232
28159SOL     OW96455  11.372   6.239   1.068  0.6138 -0.1649 -0.9130
28159SOL    HW196456  11.353   6.170   1.130  1.0557  0.2329 -0.3149
28159SOL    HW296457  11.381   6.195   0.983  0.0341 -0.7131 -0.6891
28160SOL     OW96458   4.242   7.033   5.477 -0.7904  0.3922 -0.1298
28160SOL    HW196459   4.236   7.089   5.555  1.9835  0.2711  0.2951
28160SOL    HW296460   4.214   7.088   5.405 -2.3403  0.8674  0.7883
28161SOL     OW96461   3.657  11.725   4.624  0.0267  0.2826  0.7324
28161SOL    HW196462   3.609  11.663   4.569 -3.2020  2.1762  1.1986
28161SOL    HW296463   3.697  11.786   4.563  1.7456 -1.1147  0.3597
28162SOL     OW96464  11.913   5.725   7.395 -0.0926  0.4772 -0.3909
28162SOL    HW196465  11.899   5.739   7.302  0.0387  0.5503 -0.4003
28162SOL    HW296466  11.886   5.634   7.410 -2.6979  1.2522  0.0358
28163SOL     OW96467   0.299   2.027   6.706  0.2239 -0.1957 -0.3263
28163SOL    HW196468   0.221   2.023   6.651  0.8042 -1.1349 -1.1314
28163SOL    HW296469   0.271   2.071   6.785 -0.6818  1.0885 -1.3237
28164SOL     OW96470   3.147  10.630   5.433  0.0878 -0.0448 -0.2521
28164SOL    HW196471   3.240  10.645   5.419  0.7186 -1.0710  2.2611
28164SOL    HW296472   3.104  10.703   5.389  2.0573  0.4866 -1.4177
28165SOL     OW96473  13.447   5.004   9.909  0.1440  0.5871  0.4859
28165SOL    HW196474  13.404   4.931   9.866  0.5932  1.7665 -2.1507
28165SOL    HW296475  13.403   5.082   9.875  1.8669  1.6711  0.6053
28166SOL     OW96476   1.955   0.843   4.434 -0.3810  0.6901 -0.1670
28166SOL    HW196477   2.001   0.794   4.366  0.7588  0.8241  0.4735
28166SOL    HW296478   1.882   0.884   4.389  0.2875  0.6877 -1.2897
28167SOL     OW96479   3.285  11.884   7.725  0.2205  0.4863 -0.2937
28167SOL    HW196480   3.327  11.919   7.803 -0.0455 -0.0426  0.0924
28167SOL    HW296481   3.346  11.819   7.691  0.2096  0.5141 -0.3679
28168SOL     OW96482   2.397   5.172  13.989 -0.2519 -0.1440  0.2384
28168SOL    HW196483   2.315   5.133  14.019 -0.7856  0.4745 -0.3869
28168SOL    HW296484   2.446   5.098  13.951 -1.2733 -0.2312 -0.9871
28169SOL     OW96485  11.143  10.326   4.065  0.1935 -0.3917 -0.1794
28169SOL    HW196486  11.145  10.407   4.015  1.7305 -0.1866  0.1834
28169SOL    HW296487  11.201  10.342   4.140 -0.4322 -1.4121  0.5586
28170SOL     OW96488   2.657  12.470   3.837  0.4810  0.2447  0.4211
28170SOL    HW196489   2.633  12.561   3.851  0.4994  0.2969  0.1295
28170SOL    HW296490   2.694  12.468   3.749 -2.0150 -0.5249 -0.7063
28171SOL     OW96491   6.691   3.681  12.769 -0.4732  0.0538  0.2531
28171SOL    HW196492   6.738   3.758  12.736 -2.2840  2.3813  2.6468
28171SOL    HW296493   6.651   3.642  12.691 -0.1482  2.0162 -0.9629
28172SOL     OW96494   9.665   2.344  11.058  1.1893 -0.9265 -0.0900
28172SOL    HW196495   9.649   2.438  11.061  4.0420 -0.3913  1.5817
28172SOL    HW296496   9.693   2.328  10.968 -0.6867 -0.5266 -0.8068
28173SOL     OW96497   9.358   9.871  13.540 -0.3159  0.0206 -0.3263
28173SOL    HW196498   9.402   9.863  13.456  2.0569  2.5988  0.5128
28173SOL    HW296499   9.315   9.786  13.553 -1.9410 -0.0884 -4.6345
28174SOL     OW96500   9.320   8.549   8.408  0.3372 -0.4491  0.2120
28174SOL    HW196501   9.380   8.502   8.465  0.7484 -0.4002 -0.1738
28174SOL    HW296502   9.314   8.496   8.329 -0.5528 -0.7266  0.4538
28175SOL     OW96503   6.382   3.299  12.580  0.2202 -0.0127 -0.6332
28175SOL    HW196504   6.400   3.206  12.582  1.8498  0.2679  1.0266
28175SOL    HW296505   6.287   3.306  12.585  0.1311 -1.5852  0.2926
28176SOL     OW96506   2.425   2.379   4.858 -0.4654  0.0964 -0.4177
28176SOL    HW196507   2.508   2.412   4.823 -0.3624  0.0631 -0.2119
28176SOL    HW296508   2.391   2.452   4.910 -0.9442  0.3795 -1.1236
28177SOL     OW96509   7.859   3.736   5.648 -0.2725 -0.0790 -0.4837
28177SOL    HW196510   7.929   3.785   5.690 -0.7597  0.3856 -0.2007
28177SOL    HW296511   7.782   3.793   5.654 -0.9697 -1.0541  0.2755
28178SOL     OW96512   2.247   3.196   6.817 -0.0155 -0.4849  0.2301
28178SOL    HW196513   2.334   3.228   6.839  0.5816  0.0566 -2.4621
28178SOL    HW296514   2.187   3.260   6.855  1.0453  2.2303 -2.3070
28179SOL     OW96515   6.101   1.749   2.905 -0.8891  0.0861  0.4728
28179SOL    HW196516   6.151   1.793   2.837  1.1993 -0.9300  1.2594
28179SOL    HW296517   6.013   1.787   2.899  0.4686  3.5224  0.4151
28180SOL     OW96518  10.446   6.584  12.456  0.5116  0.1960  0.3813
28180SOL    HW196519  10.536   6.615  12.469  0.5203 -0.0876  1.0444
28180SOL    HW296520  10.433   6.520  12.525  0.5119 -1.3527 -0.9947
28181SOL     OW96521   7.000   2.988   2.555  0.4483 -0.9614  0.0801
28181SOL    HW196522   6.941   2.948   2.619  1.4196 -1.7089  0.5253
28181SOL    HW296523   7.084   2.947   2.571  0.6584 -1.3910 -1.8772
28182SOL     OW96524   8.887   8.347   4.998 -0.7310  0.3953 -0.0917
28182SOL    HW196525   8.837   8.383   4.925 -2.0390  0.2189  0.6810
28182SOL    HW296526   8.971   8.392   4.994 -1.6565  2.2271 -0.2510
28183SOL     OW96527   7.264   2.269   1.522 -0.3323 -0.1334 -0.0664
28183SOL    HW196528   7.359   2.280   1.530 -0.3783  0.9867 -0.7419
28183SOL    HW296529   7.233   2.258   1.612  0.2431  1.4548  0.3654
28184SOL     OW96530  11.171   0.773   0.318  0.2971 -0.0481  0.8617
28184SOL    HW196531  11.119   0.747   0.242 -0.0356  1.9336  0.3463
28184SOL    HW296532  11.179   0.693   0.370 -0.5826 -1.1439 -0.5962
28185SOL     OW96533  11.424  11.980  12.581  0.2933  0.5198  0.3340
28185SOL    HW196534  11.475  11.935  12.514 -0.6395 -0.3132  0.1504
28185SOL    HW296535  11.439  11.930  12.661  0.8860  1.1210  0.6022
28186SOL     OW96536  11.903  10.865   7.569  0.2490  0.1428  0.4615
28186SOL    HW196537  11.972  10.853   7.634 -0.7483  1.6390  1.8800
28186SOL    HW296538  11.950  10.878   7.486  1.5458 -1.9366  0.8106
28187SOL     OW96539   7.124  12.195   7.604  0.1557 -0.2758 -0.6686
28187SOL    HW196540   7.103  12.102   7.619  0.1315  0.1570  3.1138
28187SOL    HW296541   7.218  12.201   7.620  0.2721  0.2727 -1.5205
28188SOL     OW96542   0.017   2.239  13.372  0.4610  0.0971 -0.6257
28188SOL    HW196543  -0.007   2.165  13.427  1.5800  0.2729  0.1464
28188SOL    HW296544   0.067   2.297  13.430 -1.1543  1.9222 -0.9606
28189SOL     OW96545   5.731   4.108   4.613 -0.5826 -0.2105  0.3080
28189SOL    HW196546   5.672   4.047   4.569 -0.1479 -0.3845 -0.0374
28189SOL    HW296547   5.759   4.061   4.692  0.0952 -0.6434 -0.1773
28190SOL     OW96548   3.866   4.616   5.904 -0.3377 -0.1561 -0.2429
28190SOL    HW196549   3.930   4.561   5.859  0.5772  0.8265 -0.1784
28190SOL    HW296550   3.808   4.553   5.948  0.3364 -1.0743 -0.6222
28191SOL     OW96551   1.489   5.705   5.381  0.4027 -0.0321  0.3522
28191SOL    HW196552   1.484   5.644   5.455 -0.1374 -1.9463 -1.1740
28191SOL    HW296553   1.398   5.722   5.358  0.5736  0.0063 -0.2995
28192SOL     OW96554  10.818   7.654   1.791  0.4219  0.1259  0.0837
28192SOL    HW196555  10.838   7.564   1.763  1.4557  0.5019 -0.4456
28192SOL    HW296556  10.727   7.668   1.763  0.4483 -0.5545 -0.3685
28193SOL     OW96557  12.563  11.127   5.918  0.7647  0.3006 -0.2947
28193SOL    HW196558  12.635  11.066   5.900 -0.1612 -1.6740  2.0581
28193SOL    HW296559  12.562  11.135   6.013 -0.6992  2.1344 -0.4157
28194SOL     OW96560   1.484  11.742   5.637  0.2385  0.3986 -0.2005
28194SOL    HW196561   1.405  11.688   5.646  0.2477  0.5284  0.8981
28194SOL    HW296562   1.459  11.826   5.674 -0.3058  1.7814 -3.4046
28195SOL     OW96563   2.922   9.705   3.134 -0.0441  0.3888  0.0761
28195SOL    HW196564   2.831   9.690   3.108  0.1856  1.4544 -1.4798
28195SOL    HW296565   2.974   9.667   3.063  0.8152 -1.3621  1.5531
28196SOL     OW96566   8.491   4.668   8.303 -0.0551 -0.0201  0.2378
28196SOL    HW196567   8.430   4.719   8.356  0.9900  0.9651  0.5216
28196SOL    HW296568   8.460   4.680   8.213  2.1314  4.2013 -0.2119
28197SOL     OW96569  11.245   6.763  10.476  0.0734  0.3350 -0.1121
28197SOL    HW196570  11.316   6.710  10.440 -0.9968 -0.4827 -1.0947
28197SOL    HW296571  11.228   6.724  10.562 -0.4080 -0.6493 -0.6431
28198SOL     OW96572   7.167   8.706  13.150 -0.2418 -0.7014 -0.2967
28198SOL    HW196573   7.112   8.770  13.195  1.9528  1.9268 -1.0520
28198SOL    HW296574   7.106   8.654  13.098 -2.2144  0.2054  0.9778
28199SOL     OW96575   8.085   1.400  13.294  0.4100  0.1830  0.0145
28199SOL    HW196576   8.025   1.434  13.360 -0.5427 -1.0275 -0.1862
28199SOL    HW296577   8.126   1.324  13.335  0.7692  0.1832 -0.3354
28200SOL     OW96578  11.546   1.948   4.439  0.5918 -0.5093  0.2800
28200SOL    HW196579  11.506   1.969   4.355  2.0860  1.8697  0.0689
28200SOL    HW296580  11.613   1.883   4.418  0.3101 -0.6516 -0.2010
28201SOL     OW96581   7.600   5.152  11.650  0.1884  0.4662  0.1847
28201SOL    HW196582   7.633   5.169  11.561 -2.9960 -0.2193 -1.2575
28201SOL    HW296583   7.505   5.153  11.641 -0.3408 -3.8446  2.6966
28202SOL     OW96584   9.303   4.597   3.291  0.6321  0.4772 -0.2576
28202SOL    HW196585   9.374   4.630   3.236  1.3887 -0.2689  0.2489
28202SOL    HW296586   9.338   4.517   3.330  0.0430  0.8748  1.1546
28203SOL     OW96587  10.322   8.816   4.185 -0.0859 -0.6792  0.0609
28203SOL    HW196588  10.274   8.787   4.262  0.5131 -0.3778  0.5620
28203SOL    HW296589  10.391   8.751   4.174  1.3687  0.5693  1.2908
28204SOL     OW96590   4.200   7.254   5.661 -0.1480 -0.3394 -0.4444
28204SOL    HW196591   4.185   7.234   5.753  2.0450  0.6686  0.2105
28204SOL    HW296592   4.296   7.254   5.652 -0.2993 -0.0713 -2.6491
28205SOL     OW96593   7.960   7.025   4.173  0.2574  0.5189 -0.0187
28205SOL    HW196594   7.905   7.011   4.249  0.7155  0.6864  0.3496
28205SOL    HW296595   8.008   6.942   4.162  0.1143  0.4582 -0.1897
28206SOL     OW96596   1.728  11.337   8.094 -0.3712 -0.3099 -0.0965
28206SOL    HW196597   1.765  11.250   8.084 -1.5805 -1.0033  1.1461
28206SOL    HW296598   1.788  11.382   8.153 -0.2677 -0.6345  0.0464
28207SOL     OW96599  10.743   8.796   5.605  0.3970 -0.5608 -0.5585
28207SOL    HW196600  10.681   8.866   5.626  1.6154  1.6596 -3.6079
28207SOL    HW296601  10.825   8.823   5.647  0.7136 -0.4108 -1.2484
28208SOL     OW96602   8.941   0.212   0.340 -0.0600  0.0702  0.8826
28208SOL    HW196603   8.855   0.250   0.320  0.9973  1.7137 -0.8604
28208SOL    HW296604   8.946   0.134   0.285 -0.0362  0.5664  0.1690
28209SOL     OW96605  11.307   1.115   2.926 -0.2428  0.2323  0.0324
28209SOL    HW196606  11.398   1.111   2.898 -0.5039 -0.2132 -0.7610
28209SOL    HW296607  11.261   1.157   2.853 -0.6291  0.7592  0.5657
28210SOL     OW96608   7.964   5.458   3.266 -0.0957  0.6457 -0.3128
28210SOL    HW196609   7.894   5.404   3.302  0.0010  0.1192 -0.8954
28210SOL    HW296610   8.013   5.398   3.210  0.4880  1.1486 -0.3425
28211SOL     OW96611  10.906   1.587  11.452  0.1267 -0.0944  0.3408
28211SOL    HW196612  10.821   1.631  11.464  0.0001  0.0345 -0.9320
28211SOL    HW296613  10.966   1.638  11.506 -0.4973  0.1584  0.8120
28212SOL     OW96614   5.177   8.872  10.494 -0.0591 -0.0559  0.3564
28212SOL    HW196615   5.238   8.943  10.512 -0.4842  0.4813 -0.2681
28212SOL    HW296616   5.148   8.842  10.581  0.9540 -0.2106  0.6476
28213SOL     OW96617   8.420   7.510  13.831 -0.1194  0.4140  0.2537
28213SOL    HW196618   8.416   7.485  13.923  0.2792 -0.5647  0.0100
28213SOL    HW296619   8.513   7.517  13.812 -0.2052  0.8662 -0.0142
28214SOL     OW96620  11.220   7.112   7.679 -0.2516 -0.1843 -0.0630
28214SOL    HW196621  11.171   7.031   7.691 -0.6543  0.0637 -0.0242
28214SOL    HW296622  11.187   7.171   7.746 -0.1002  0.0788 -0.2162
28215SOL     OW96623   4.648   1.683  13.498 -0.2280 -0.3704  0.0712
28215SOL    HW196624   4.589   1.672  13.423 -1.2508  0.3752  0.7365
28215SOL    HW296625   4.590   1.687  13.574  0.7130  0.0351  0.7962
28216SOL     OW96626   3.056  14.031  11.592  0.0504  0.0570  0.3143
28216SOL    HW196627   3.026  14.084  11.665  1.0700  1.4345 -0.2190
28216SOL    HW296628   3.126  13.977  11.628 -2.6276 -2.9709  1.4965
28217SOL     OW96629   1.835   7.489  10.802  0.0712 -0.0725 -0.2931
28217SOL    HW196630   1.796   7.562  10.851  1.0226 -0.3645  0.9538
28217SOL    HW296631   1.885   7.531  10.731 -0.0345  0.4472 -0.0594
28218SOL     OW96632  13.906  10.984   2.498 -0.2786 -0.1816  0.0340
28218SOL    HW196633  13.955  10.989   2.580  1.8905 -0.9318 -1.1208
28218SOL    HW296634  13.931  11.063   2.451  1.4389 -1.4855 -1.3594
28219SOL     OW96635   2.473   1.603   0.249 -0.2954 -0.3192 -0.5585
28219SOL    HW196636   2.446   1.520   0.288 -2.1021  0.5658  0.2220
28219SOL    HW296637   2.409   1.618   0.179  0.1211  0.3259 -0.8060
28220SOL     OW96638   0.891  12.894  11.335 -0.3436 -0.1810  0.5574
28220SOL    HW196639   0.864  12.822  11.278  1.8171  0.0980 -0.9355
28220SOL    HW296640   0.936  12.851  11.408 -1.5838 -0.4472  1.1930
28221SOL     OW96641   9.529   2.630   0.326 -0.0574 -0.7741  0.4439
28221SOL    HW196642   9.545   2.723   0.307  3.2971 -1.7299 -2.7931
28221SOL    HW296643   9.513   2.627   0.420  0.4085  3.0127  0.8173
28222SOL     OW96644   7.225   2.800   7.117  0.0411 -0.0522  0.8014
28222SOL    HW196645   7.304   2.839   7.155 -0.1366 -0.2350  1.3668
28222SOL    HW296646   7.153   2.847   7.159 -0.1966 -1.5207  2.1150
28223SOL     OW96647  13.131   8.795   7.556  0.3787 -0.3316 -0.2469
28223SOL    HW196648  13.166   8.877   7.591  0.5037 -0.3293 -0.3750
28223SOL    HW296649  13.134   8.806   7.461  0.7614 -0.6325 -0.2744
28224SOL     OW96650   9.609   9.884  11.841  0.0507 -0.5770 -0.7452
28224SOL    HW196651   9.677   9.928  11.892 -0.8519  1.3672 -1.1351
28224SOL    HW296652   9.615   9.923  11.754 -1.1907 -0.7639 -0.9361
28225SOL     OW96653   5.901   0.750   7.553  0.0269  0.2543 -0.3701
28225SOL    HW196654   5.808   0.744   7.572  0.1139 -0.3687 -0.1118
28225SOL    HW296655   5.913   0.837   7.516 -0.9038 -0.1950 -1.7936
28226SOL     OW96656   5.476   9.061  11.305 -0.3479 -0.6682  0.4928
28226SOL    HW196657   5.405   9.124  11.298 -0.0712 -0.2849  1.1537
28226SOL    HW296658   5.442   8.991  11.361  0.2086  0.1133  1.8502
28227SOL     OW96659   4.360   3.450  10.384  0.0414  0.0309 -0.1991
28227SOL    HW196660   4.307   3.413  10.454  0.7044  0.5295  0.5813
28227SOL    HW296661   4.387   3.374  10.332 -0.7262 -0.3059 -0.1153
28228SOL     OW96662  11.241   1.633  10.776  0.3253  0.0351  0.0821
28228SOL    HW196663  11.313   1.647  10.715 -1.1181 -0.0125 -1.7222
28228SOL    HW296664  11.217   1.721  10.805  1.5434 -0.0003  1.2610
28229SOL     OW96665  13.333   4.734   3.777  0.2719 -0.1794  0.2936
28229SOL    HW196666  13.327   4.649   3.734 -0.7395 -0.9803  1.9258
28229SOL    HW296667  13.411   4.774   3.738  0.3062 -1.4777 -1.1121
28230SOL     OW96668   5.583   4.314  11.340 -0.0731 -0.3980  0.0944
28230SOL    HW196669   5.510   4.376  11.343 -0.0453 -0.1726 -2.0219
28230SOL    HW296670   5.543   4.230  11.364 -1.3855 -0.5126 -2.1570
28231SOL     OW96671   9.579  13.084   9.039 -0.3748  0.3208  0.4047
28231SOL    HW196672   9.629  13.157   9.076  0.2322  0.2442 -0.2446
28231SOL    HW296673   9.498  13.124   9.008 -0.8057  0.4206  1.5936
28232SOL     OW96674   2.201   6.701   0.410  0.2282  0.3055  0.5386
28232SOL    HW196675   2.255   6.779   0.417  1.1321 -0.2670  0.1740
28232SOL    HW296676   2.153   6.713   0.328  1.4396 -0.1594 -0.2596
28233SOL     OW96677  12.992  12.442   8.821 -0.2216  0.0294 -0.7233
28233SOL    HW196678  12.978  12.535   8.839  2.8323  0.2213  1.5380
28233SOL    HW296679  13.054  12.441   8.748  0.6144 -0.1044 -0.0431
28234SOL     OW96680   0.306   1.213   4.413  0.3308 -0.6503 -0.2969
28234SOL    HW196681   0.339   1.187   4.499  0.7625  2.2214  0.5391
28234SOL    HW296682   0.385   1.226   4.360  0.3932  1.6715  0.2561
28235SOL     OW96683   0.035  11.077   2.676 -0.9594  0.2167  0.0502
28235SOL    HW196684  -0.001  11.142   2.737 -1.3760  0.4542 -0.4435
28235SOL    HW296685   0.106  11.123   2.632 -0.2410 -0.1534  0.7977
28236SOL     OW96686   2.013   6.909   4.954  0.0540 -0.2078 -0.3507
28236SOL    HW196687   2.067   6.902   4.876  2.2534  0.4849  1.0316
28236SOL    HW296688   2.019   7.001   4.980  0.3958 -0.6585  1.3073
28237SOL     OW96689   3.508   6.992   8.925  0.0458  0.0561  0.6055
28237SOL    HW196690   3.513   7.059   8.993 -0.6433 -0.9627  1.6925
28237SOL    HW296691   3.416   6.964   8.926 -0.5747  1.5693 -2.3089
28238SOL     OW96692  10.173  12.225   6.599  0.5506  0.0428 -0.5542
28238SOL    HW196693  10.233  12.234   6.525  0.6629 -2.2286 -0.8347
28238SOL    HW296694  10.086  12.214   6.559  0.5509 -0.7496 -0.3671
28239SOL     OW96695  10.191  13.390   3.841  0.5836  0.1374  0.5373
28239SOL    HW196696  10.198  13.409   3.748  0.8864  1.3829  0.8061
28239SOL    HW296697  10.167  13.473   3.881  2.2561  0.0733  1.7910
28240SOL     OW96698  10.706   7.046   6.249 -0.0457 -0.3438 -0.1936
28240SOL    HW196699  10.735   7.059   6.339 -1.5880  1.3412  0.1195
28240SOL    HW296700  10.782   7.070   6.196  1.2020 -2.2886  0.6163
28241SOL     OW96701  12.329  11.282   9.646  0.6390 -0.5455 -0.7003
28241SOL    HW196702  12.310  11.350   9.711 -0.2579 -1.2096 -0.2323
28241SOL    HW296703  12.412  11.244   9.675 -1.1932 -2.9206  1.9667
28242SOL     OW96704   2.936   3.192  11.940 -0.3649  0.0624  0.6157
28242SOL    HW196705   3.031   3.193  11.932 -0.1672  0.9717  2.4989
28242SOL    HW296706   2.912   3.101  11.922  0.6221  0.1703 -1.6499
28243SOL     OW96707   8.298   9.900  13.473  0.1109  0.3349  0.4017
28243SOL    HW196708   8.213   9.902  13.515  0.0891 -2.4898  0.6486
28243SOL    HW296709   8.361   9.912  13.544 -0.0141 -1.0134  0.7528
28244SOL     OW96710  13.585   3.944   3.040  0.2177 -0.0787 -0.5668
28244SOL    HW196711  13.629   4.012   3.092  0.2157 -0.2221 -0.3787
28244SOL    HW296712  13.492   3.959   3.055  0.2342 -0.6051  0.0905
28245SOL     OW96713   9.901   8.130   0.396  0.0795 -0.0959  0.0597
28245SOL    HW196714   9.914   8.043   0.359  0.5611  0.1184 -0.2862
28245SOL    HW296715   9.981   8.178   0.373 -0.0813  0.3654  0.4489
28246SOL     OW96716   5.710  13.802   6.781  0.2352 -0.1314  0.1015
28246SOL    HW196717   5.650  13.845   6.842  1.4724  1.4113  0.2832
28246SOL    HW296718   5.797  13.822   6.815  0.9040 -0.9750 -1.0522
28247SOL     OW96719   8.609   0.167  10.160  0.3984  0.6990  0.1454
28247SOL    HW196720   8.638   0.258  10.155  0.9644  0.5164  0.0362
28247SOL    HW296721   8.683   0.116  10.128 -0.6422  0.3228 -1.8303
28248SOL     OW96722   3.890   4.822   6.107 -0.1820 -0.8228  0.5897
28248SOL    HW196723   3.806   4.799   6.148  1.0106 -1.1635  3.0130
28248SOL    HW296724   3.887   4.781   6.021 -2.4489 -0.9184  0.6515
28249SOL     OW96725   2.549  12.492   9.375 -0.0046  0.0084  0.6106
28249SOL    HW196726   2.495  12.527   9.445  0.2345 -0.6012  1.1120
28249SOL    HW296727   2.487  12.468   9.306 -0.2358  0.6486  0.5935
28250SOL     OW96728  11.293   3.001   1.606  0.3750 -0.4033 -0.3050
28250SOL    HW196729  11.364   2.962   1.656  0.9695 -0.7892 -1.4151
28250SOL    HW296730  11.321   3.091   1.590  0.5506 -0.5042 -0.5885
28251SOL     OW96731   8.973   5.230  12.483 -0.1030  0.1372 -0.2643
28251SOL    HW196732   8.968   5.140  12.449  0.1161  0.5880 -1.5224
28251SOL    HW296733   9.042   5.226  12.549 -0.3762 -0.7101 -0.0128
28252SOL     OW96734   6.355   7.871   4.618 -1.2482 -0.3418 -0.2269
28252SOL    HW196735   6.342   7.934   4.689  2.6783  0.6287 -0.1305
28252SOL    HW296736   6.389   7.793   4.661  0.8639  0.1446 -0.8804
28253SOL     OW96737   8.829   2.750   9.276 -0.2745  0.3775  0.2443
28253SOL    HW196738   8.910   2.768   9.323 -0.7896 -0.1953  1.3981
28253SOL    HW296739   8.844   2.784   9.188  1.8770 -1.2794 -0.1238
28254SOL     OW96740   4.688   1.411  11.894 -0.0751  0.2222 -0.1628
28254SOL    HW196741   4.629   1.365  11.834  0.0368  0.6614 -0.6087
28254SOL    HW296742   4.771   1.366  11.886  0.0280  0.4852 -0.5829
28255SOL     OW96743   4.796   5.035   7.622  0.2290  0.0278  0.4649
28255SOL    HW196744   4.732   4.989   7.568  0.8477 -0.5687  0.2199
28255SOL    HW296745   4.784   5.000   7.710  0.0235  0.1326  0.4783
28256SOL     OW96746   2.742  12.426  11.534 -0.2679 -0.3232 -0.3585
28256SOL    HW196747   2.724  12.335  11.558  1.4661 -0.7449 -0.5260
28256SOL    HW296748   2.683  12.477  11.589 -1.1104 -1.5349 -0.0937
28257SOL     OW96749   0.981   2.114   1.911  0.0886  0.3481  0.0944
28257SOL    HW196750   1.008   2.191   1.860  0.9334 -0.0554 -0.0852
28257SOL    HW296751   0.927   2.063   1.851 -0.8005  0.9834  0.3369
28258SOL     OW96752   0.993   3.965  10.415 -0.3538  0.2212 -0.1535
28258SOL    HW196753   0.901   3.990  10.427 -0.6902 -1.8669  2.4340
28258SOL    HW296754   1.000   3.944  10.322 -2.8885 -0.8520 -0.1802
28259SOL     OW96755  10.244   3.066   2.756 -0.3763 -0.2863 -0.1955
28259SOL    HW196756  10.171   3.102   2.706 -0.7181  0.2503  0.6696
28259SOL    HW296757  10.218   2.976   2.776 -1.0782  0.0787  0.6044
28260SOL     OW96758   6.807  12.515  12.226 -0.0462 -0.0708  0.1446
28260SOL    HW196759   6.900  12.495  12.214  0.9670  3.3591  1.0955
28260SOL    HW296760   6.764  12.430  12.232  2.7305 -1.8168 -2.1314
28261SOL     OW96761   0.296   0.076  10.096 -0.0674  0.1421 -0.1895
28261SOL    HW196762   0.380   0.121  10.086  0.5123 -0.7906  0.3330
28261SOL    HW296763   0.320  -0.013  10.121 -1.1908 -0.4332 -1.0998
28262SOL     OW96764   1.195  10.103   0.223 -0.3783  0.4376  0.4002
28262SOL    HW196765   1.121  10.044   0.211 -0.0502  0.1035 -0.0104
28262SOL    HW296766   1.263  10.048   0.264  0.2044  0.3149 -0.6956
28263SOL     OW96767   0.569   7.661   6.092  0.5177 -0.2730  0.6106
28263SOL    HW196768   0.640   7.709   6.135  0.3466  0.8914 -0.3660
28263SOL    HW296769   0.546   7.715   6.016 -2.1382 -0.0909  1.4644
28264SOL     OW96770   5.180  11.938  12.036 -0.5137 -0.4455  0.1543
28264SOL    HW196771   5.209  11.984  12.115  2.4797 -1.5640 -0.1456
28264SOL    HW296772   5.187  11.845  12.058 -0.1174 -0.7701 -1.2428
28265SOL     OW96773   2.966  10.574   3.263  0.0450  0.0059  0.2505
28265SOL    HW196774   2.951  10.586   3.356 -1.2022 -0.2808  0.1108
28265SOL    HW296775   2.932  10.486   3.244 -0.3942  0.3379 -0.5895
28266SOL     OW96776   2.083   1.503   0.885  0.4682 -0.4792  0.1866
28266SOL    HW196777   2.128   1.419   0.877  1.1091 -0.1674  0.4202
28266SOL    HW296778   2.037   1.497   0.969  1.2037 -0.2929  0.6208
28267SOL     OW96779   7.551   4.476  13.346  0.2028  0.0160  0.0777
28267SOL    HW196780   7.478   4.417  13.331  0.6438 -1.1041  1.9724
28267SOL    HW296781   7.517   4.563  13.322 -1.1479 -0.7025 -0.7284
28268SOL     OW96782  11.526   8.631   6.713  0.2252  0.1799  0.0233
28268SOL    HW196783  11.567   8.640   6.627  1.1179  2.0947  0.5838
28268SOL    HW296784  11.555   8.546   6.745 -0.7718 -0.9386 -1.8505
28269SOL     OW96785   6.685   7.688   1.119 -0.5902 -0.1699 -0.1824
28269SOL    HW196786   6.635   7.710   1.197 -0.2899  1.1013 -0.3208
28269SOL    HW296787   6.772   7.665   1.152 -0.9024 -1.1752 -0.0360
28270SOL     OW96788   3.007   5.891   5.389  0.2534 -0.1225  0.1380
28270SOL    HW196789   2.922   5.876   5.347 -0.1605  1.3218  0.4026
28270SOL    HW296790   3.059   5.937   5.324 -0.0090  1.1295  0.7740
28271SOL     OW96791   3.903   2.778  11.803  0.8159 -0.2873 -0.4938
28271SOL    HW196792   3.834   2.773  11.737  0.0761  1.0810  0.1389
28271SOL    HW296793   3.881   2.855  11.855  3.3274  0.7937 -0.8491
28272SOL     OW96794   6.970   2.134  14.027  0.3572 -0.0938  0.1209
28272SOL    HW196795   7.001   2.046  14.044 -0.5155 -0.4006  0.1611
28272SOL    HW296796   7.000   2.185  14.102 -0.7942 -0.7708  1.0678
28273SOL     OW96797   5.863   9.828  11.194 -0.0997  0.2229 -0.3255
28273SOL    HW196798   5.909   9.876  11.125 -0.0648  1.3738  0.4638
28273SOL    HW296799   5.918   9.839  11.272  0.1863 -1.5830 -0.2304
28274SOL     OW96800  11.302  11.094  10.577 -0.4386 -0.9622  0.4203
28274SOL    HW196801  11.251  11.104  10.497  1.3471 -0.5553 -0.7131
28274SOL    HW296802  11.263  11.158  10.638 -0.2735  0.5079 -0.9470
28275SOL     OW96803  10.653   5.332   2.111  0.7950 -0.3340  0.6444
28275SOL    HW196804  10.663   5.392   2.037  0.6511  0.2456  1.0868
28275SOL    HW296805  10.559   5.333   2.130  0.9981  0.5712  1.6869
28276SOL     OW96806  13.464  11.927   0.141 -0.0022 -0.0938  0.1351
28276SOL    HW196807  13.513  11.898   0.064  0.2056 -0.5525  0.4416
28276SOL    HW296808  13.501  11.878   0.214 -0.9466 -0.4917  0.3664
28277SOL     OW96809   3.368   0.162   9.111  0.0694  0.4310 -0.0769
28277SOL    HW196810   3.401   0.244   9.073  0.5643  0.1795 -0.2070
28277SOL    HW296811   3.437   0.135   9.171  0.3171 -0.3480 -0.6937
28278SOL     OW96812   8.256  13.857  11.309  0.0254  0.4809  0.5126
28278SOL    HW196813   8.285  13.921  11.375  2.0719 -1.5542  1.7244
28278SOL    HW296814   8.319  13.786  11.316 -2.6049 -2.0820 -0.1891
28279SOL     OW96815   6.988   2.051   4.320 -0.5215 -0.4144  0.4535
28279SOL    HW196816   6.980   2.008   4.234  3.4814  1.5227 -1.1174
28279SOL    HW296817   7.065   2.011   4.360  1.4977  2.9014  0.2428
28280SOL     OW96818   1.425   4.206   8.880  0.0449  0.2056 -0.3585
28280SOL    HW196819   1.442   4.264   8.955 -1.6214 -1.8898  1.8087
28280SOL    HW296820   1.443   4.118   8.913 -1.5781 -0.8813 -2.1687
28281SOL     OW96821   6.776  11.129   4.723 -0.0753  0.1789  0.3157
28281SOL    HW196822   6.737  11.041   4.720  2.0013 -0.9010 -4.7576
28281SOL    HW296823   6.717  11.183   4.670  0.1360  1.1344  1.0306
28282SOL     OW96824   7.805   3.311   5.976 -0.1989  0.6027  0.5218
28282SOL    HW196825   7.875   3.349   5.923  0.0267 -0.2176  0.2126
28282SOL    HW296826   7.726   3.358   5.949 -0.0493  0.3474 -0.3983
28283SOL     OW96827   4.736   9.548   0.650 -0.3297 -0.0425 -0.5697
28283SOL    HW196828   4.757   9.545   0.556 -1.5424  0.3363 -0.8694
28283SOL    HW296829   4.750   9.458   0.681  2.0748  0.2514 -0.6375
28284SOL     OW96830   3.076  10.481   4.932  0.1120 -0.2605 -0.1630
28284SOL    HW196831   3.143  10.484   4.864 -1.5374 -0.5263 -1.8691
28284SOL    HW296832   3.066  10.572   4.960  2.1093 -0.3727  1.1490
28285SOL     OW96833  11.850   7.069   1.680  0.2995  0.0954  0.0374
28285SOL    HW196834  11.761   7.052   1.649 -0.6301  0.5764  2.2556
28285SOL    HW296835  11.838   7.114   1.764  2.6487  0.4387  0.2542
28286SOL     OW96836   1.485  13.082   1.607  0.5536 -0.0311  0.0077
28286SOL    HW196837   1.564  13.029   1.615  0.6663  0.3082  1.4530
28286SOL    HW296838   1.505  13.145   1.537  1.3809 -0.2363  0.0503
28287SOL     OW96839  10.730  12.870   5.528  0.5020 -0.4931  0.1105
28287SOL    HW196840  10.795  12.939   5.541  0.0730 -0.2964  1.3367
28287SOL    HW296841  10.693  12.887   5.441  1.7201 -0.3142 -0.3852
28288SOL     OW96842  11.604  13.317   5.731  0.3668  0.0051  0.2210
28288SOL    HW196843  11.553  13.354   5.659  0.2246  0.3371  0.4881
28288SOL    HW296844  11.695  13.342   5.711  0.2214  0.9360  0.6471
28289SOL     OW96845   4.871  13.303  12.749  0.7929 -0.1551  0.3566
28289SOL    HW196846   4.869  13.350  12.832 -0.6446  1.2455 -0.4048
28289SOL    HW296847   4.779  13.293  12.725  1.1514 -1.4392 -0.5871
28290SOL     OW96848   4.541   7.208   9.823 -1.0390 -0.6799  0.2388
28290SOL    HW196849   4.462   7.159   9.845 -2.0476  0.7675 -0.0214
28290SOL    HW296850   4.599   7.196   9.898 -1.2932 -2.1512  0.2209
28291SOL     OW96851   6.085   0.161  13.442 -0.0629 -0.2656  0.3565
28291SOL    HW196852   6.096   0.239  13.388 -1.6034  0.0244  0.4087
28291SOL    HW296853   6.174   0.128  13.456  0.7146  1.9393  1.0325
28292SOL     OW96854   6.578  12.021   9.667 -0.1459  0.1747 -0.1543
28292SOL    HW196855   6.618  11.959   9.607 -0.4804  0.9895 -1.2402
28292SOL    HW296856   6.637  12.096   9.668 -0.0009  0.0681  0.7605
28293SOL     OW96857   3.898   2.060   0.144  0.7989  0.2430  0.5563
28293SOL    HW196858   3.948   1.999   0.088  0.0656  0.7833 -0.7393
28293SOL    HW296859   3.921   2.147   0.110  1.0451  0.6405  1.7188
28294SOL     OW96860  11.080  13.491  12.250  0.0982 -0.0904 -0.3500
28294SOL    HW196861  11.120  13.434  12.184 -1.5517  0.7706 -2.2229
28294SOL    HW296862  10.998  13.447  12.273  0.0104  0.2883  0.0781
28295SOL     OW96863  11.777   5.632  12.332  0.2845 -0.3366  0.3021
28295SOL    HW196864  11.743   5.600  12.416 -1.6585 -1.1833 -0.7562
28295SOL    HW296865  11.824   5.558  12.295 -1.7242 -1.1265 -0.8207
28296SOL     OW96866   4.733   1.508  11.149 -0.1719 -0.5357 -0.0670
28296SOL    HW196867   4.682   1.458  11.212  0.3509 -0.9966  0.0012
28296SOL    HW296868   4.678   1.584  11.127 -1.0527 -1.2373 -0.3196
28297SOL     OW96869   0.003  10.432   2.824 -0.1337  0.0761 -0.0590
28297SOL    HW196870   0.035  10.380   2.898 -0.7494  0.6118  0.6019
28297SOL    HW296871  -0.086  10.456   2.848  0.0183  1.1498 -0.4965
28298SOL     OW96872   4.626   0.217  11.707 -0.1668 -0.2664  0.4496
28298SOL    HW196873   4.581   0.257  11.781 -1.3106 -0.2448 -0.2287
28298SOL    HW296874   4.669   0.139  11.743  0.4091  0.4595  1.3771
28299SOL     OW96875  10.906   8.141  10.664 -0.7525  0.2854 -0.2363
28299SOL    HW196876  10.928   8.094  10.744 -1.1598 -0.4191 -0.5252
28299SOL    HW296877  10.989   8.176  10.632 -0.7343  1.4576  1.0327
28300SOL     OW96878   5.275   0.941   9.522 -0.2350 -0.3573  0.1118
28300SOL    HW196879   5.309   1.031   9.524 -1.3942  0.0915  0.5399
28300SOL    HW296880   5.275   0.918   9.429  3.0477 -1.1334  0.1996
28301SOL     OW96881   0.689  11.312   3.143 -0.0140  0.7717 -0.3128
28301SOL    HW196882   0.638  11.392   3.161 -0.0672  0.7333 -0.2905
28301SOL    HW296883   0.723  11.287   3.229 -1.1217  0.0044 -0.0644
28302SOL     OW96884   8.592   0.736   2.547  0.6817  0.1771 -0.5663
28302SOL    HW196885   8.678   0.765   2.518  1.2316 -0.3441  0.4850
28302SOL    HW296886   8.573   0.789   2.624  0.0289  0.3294 -0.8232
28303SOL     OW96887  12.286   4.771  13.810  0.6456 -0.0619 -0.1252
28303SOL    HW196888  12.311   4.782  13.719  1.7348  0.8108  0.2581
28303SOL    HW296889  12.223   4.699  13.809 -2.7915  2.6992 -2.1313
28304SOL     OW96890   4.289  11.040   4.657 -0.0677 -0.1319 -0.4270
28304SOL    HW196891   4.222  11.089   4.609 -0.1610 -1.5448 -1.8180
28304SOL    HW296892   4.246  10.958   4.681  0.2611  0.1883  1.3314
28305SOL     OW96893   1.988  13.192   8.245  0.1239  0.3732 -0.1178
28305SOL    HW196894   1.900  13.159   8.226  0.8671 -1.6501 -0.3436
28305SOL    HW296895   1.992  13.277   8.200 -0.2611 -1.4560 -4.0612
28306SOL     OW96896   8.793   9.941   3.570  0.3649 -0.4521  0.0748
28306SOL    HW196897   8.788   9.847   3.552 -0.3397 -0.2088 -1.1359
28306SOL    HW296898   8.748   9.982   3.496  0.5303  0.8377  0.6588
28307SOL     OW96899   4.162   6.631   1.806  0.0078  0.1464  0.4698
28307SOL    HW196900   4.173   6.684   1.885 -1.2229  3.3205 -1.3234
28307SOL    HW296901   4.215   6.676   1.740 -0.1495 -1.5944 -0.9051
28308SOL     OW96902   0.846  11.165  13.068 -0.2329  0.8829  0.1302
28308SOL    HW196903   0.830  11.232  13.135  1.4734  2.0339 -0.5416
28308SOL    HW296904   0.865  11.086  13.117 -2.4950  0.7847  0.9483
28309SOL     OW96905   5.125   0.598  12.388 -0.1825  0.2239 -0.1599
28309SOL    HW196906   5.067   0.560  12.322  1.0190 -1.6786 -0.1750
28309SOL    HW296907   5.148   0.684  12.352  0.5204 -0.7880 -2.3408
28310SOL     OW96908  11.584   6.386   5.304 -0.3124  0.9982 -0.1540
28310SOL    HW196909  11.567   6.457   5.366 -0.0297  0.8780  0.0635
28310SOL    HW296910  11.679   6.390   5.289 -0.2698  0.5501  0.0007
28311SOL     OW96911   1.310  12.223  13.536 -0.3460 -0.2747  0.2395
28311SOL    HW196912   1.266  12.272  13.605 -0.7742 -1.4117  0.8023
28311SOL    HW296913   1.340  12.290  13.474  0.2236  0.7835  1.6050
28312SOL     OW96914   4.183  11.501  13.605 -0.9094  0.2601 -0.2813
28312SOL    HW196915   4.212  11.433  13.546 -1.5682 -0.5762  0.3352
28312SOL    HW296916   4.242  11.494  13.680 -0.6390  0.7257 -0.4480
28313SOL     OW96917  12.583   7.834   4.125  0.3674 -0.3193  0.0985
28313SOL    HW196918  12.630   7.881   4.194  1.5396  0.2525 -1.0363
28313SOL    HW296919  12.496   7.874   4.124  0.8563  0.8026  0.1743
28314SOL     OW96920  12.988   1.272  10.851 -0.2004  0.3735 -0.4191
28314SOL    HW196921  13.045   1.308  10.783  1.6407  0.0196  0.8500
28314SOL    HW296922  13.039   1.280  10.932 -1.1287 -1.8154  0.4722
28315SOL     OW96923   4.061   8.529   0.127  0.1130 -0.2260  0.1841
28315SOL    HW196924   4.110   8.608   0.149 -0.5532 -0.0387  1.0560
28315SOL    HW296925   3.985   8.531   0.185  0.1689 -1.5932  0.3397
28316SOL     OW96926  11.727  11.058  10.955  0.2160  0.0437  0.2012
28316SOL    HW196927  11.708  11.098  10.870  0.7407  0.1164  0.1120
28316SOL    HW296928  11.810  11.011  10.941  1.6437  2.0594  1.2896
28317SOL     OW96929   1.470   8.725   6.851 -0.7559  0.4153 -0.0025
28317SOL    HW196930   1.488   8.694   6.940 -2.1905  2.9369  1.2807
28317SOL    HW296931   1.536   8.792   6.835  0.1793 -0.7670 -1.3462
28318SOL     OW96932   6.970  11.499   4.719  0.2251  0.3541 -0.3181
28318SOL    HW196933   6.917  11.568   4.759 -0.1095  0.9891 -1.7646
28318SOL    HW296934   7.052  11.542   4.695  1.3914 -0.5811  1.7288
28319SOL     OW96935  10.522   0.808   7.646 -0.4326 -0.0014  1.1157
28319SOL    HW196936  10.571   0.871   7.593 -1.4495  0.5153  0.7697
28319SOL    HW296937  10.479   0.862   7.713 -0.3069 -0.4886  1.5992
28320SOL     OW96938  10.140   7.771   8.922  0.0500  0.2074 -0.0291
28320SOL    HW196939  10.150   7.861   8.890 -1.0428  0.2278 -0.3668
28320SOL    HW296940  10.112   7.782   9.013 -2.5644  0.3285 -0.7494
28321SOL     OW96941   9.885   4.016  12.523  0.1132 -0.4421  0.3835
28321SOL    HW196942   9.962   3.990  12.573 -0.4362  0.0215  1.4901
28321SOL    HW296943   9.891   4.111  12.516 -0.4514 -0.3816  0.6452
28322SOL     OW96944  11.176   0.133   5.103 -0.1338 -0.0294  0.0894
28322SOL    HW196945  11.261   0.100   5.072 -0.0305 -1.1480  1.4587
28322SOL    HW296946  11.198   0.186   5.179 -0.7002 -1.1677  1.0850
28323SOL     OW96947   7.844   3.644  11.968 -0.4042 -0.3051 -0.5077
28323SOL    HW196948   7.898   3.581  12.016  0.4726  0.0336 -1.0139
28323SOL    HW296949   7.764   3.653  12.021 -0.8295 -2.2931 -0.7517
28324SOL     OW96950   2.614  13.914   9.596 -0.0488 -0.0903  0.4428
28324SOL    HW196951   2.599  13.979   9.665  2.2006  0.6223  0.3400
28324SOL    HW296952   2.527  13.881   9.574 -1.2077  2.4246  0.9546
28325SOL     OW96953  11.387  12.969  13.056  0.0301 -0.7193 -0.0051
28325SOL    HW196954  11.342  12.978  12.971  0.8364 -0.5592 -0.4226
28325SOL    HW296955  11.392  13.059  13.089  1.8386 -0.4411 -0.9157
28326SOL     OW96956   6.299   1.172   5.771 -0.6098 -0.0544  0.5664
28326SOL    HW196957   6.249   1.229   5.829 -0.4961  0.4491  0.1749
28326SOL    HW296958   6.363   1.130   5.829 -0.3987  0.5596  0.7893
28327SOL     OW96959   7.378   1.140  11.582  0.5197 -0.0697 -0.1795
28327SOL    HW196960   7.421   1.071  11.634 -1.0173 -0.5173  0.5499
28327SOL    HW296961   7.285   1.126  11.596  0.0667  0.2610 -2.5381
28328SOL     OW96962   4.993  13.520   0.814 -0.2380  0.0291  0.2099
28328SOL    HW196963   4.952  13.593   0.767 -0.4846  2.6024  3.9807
28328SOL    HW296964   4.924  13.487   0.872  0.4805 -1.8621  0.0461
28329SOL     OW96965   3.866   4.458   9.312  0.2289  0.0371  0.1767
28329SOL    HW196966   3.779   4.488   9.336 -0.9949 -1.9401 -1.4669
28329SOL    HW296967   3.875   4.482   9.220  0.4227 -1.7933 -0.3252
28330SOL     OW96968   6.924   5.302  10.982  0.7333 -0.3024  0.3580
28330SOL    HW196969   6.983   5.252  10.926  0.1036 -1.1755  0.4526
28330SOL    HW296970   6.944   5.272  11.071 -0.0671 -0.8523  0.3647
28331SOL     OW96971   1.466   2.836   7.692 -0.0608  0.1768 -0.0757
28331SOL    HW196972   1.426   2.753   7.716 -0.9496  0.0572 -1.8432
28331SOL    HW296973   1.467   2.835   7.596  1.6648  1.3829 -0.1093
28332SOL     OW96974  10.792   6.759   9.520 -0.8422  0.0595 -0.1683
28332SOL    HW196975  10.733   6.750   9.445 -1.4131  0.2772  0.2516
28332SOL    HW296976  10.870   6.710   9.494 -2.0250 -2.1031  0.1292
28333SOL     OW96977   4.792  13.492   7.188  0.1865  0.0381 -0.2361
28333SOL    HW196978   4.713  13.533   7.152 -0.0808 -0.1303  0.1534
28333SOL    HW296979   4.762  13.407   7.220  0.1429  0.6912  1.5560
28334SOL     OW96980   5.435   4.390   1.205 -0.6628 -0.4766  0.2238
28334SOL    HW196981   5.421   4.416   1.296  1.2415  2.2439 -0.1467
28334SOL    HW296982   5.349   4.402   1.163 -1.0430  0.3632  1.2031
28335SOL     OW96983   5.477  13.660   4.955 -0.1893 -0.2053 -0.0690
28335SOL    HW196984   5.524  13.624   4.879 -1.4940 -0.9862 -0.5500
28335SOL    HW296985   5.415  13.590   4.979  0.9884 -0.4725  2.4796
28336SOL     OW96986   9.713  13.607  12.614 -1.0239  0.4789  0.2599
28336SOL    HW196987   9.695  13.697  12.644 -1.2398  0.7294 -0.5828
28336SOL    HW296988   9.628  13.563  12.618 -1.4545  1.0344 -1.6435
28337SOL     OW96989   4.477  10.012   2.900 -0.4464 -0.1262 -0.1710
28337SOL    HW196990   4.500   9.922   2.924 -1.3741 -0.2464  0.3164
28337SOL    HW296991   4.553  10.064   2.925 -0.4372 -0.5917  0.7937
28338SOL     OW96992   2.365   0.054   4.905 -0.7729  0.6219 -0.0147
28338SOL    HW196993   2.364   0.093   4.818 -0.6778  2.0645  0.6052
28338SOL    HW296994   2.278   0.072   4.941 -0.9277 -0.2550  0.0823
28339SOL     OW96995   8.336   2.770  10.657  0.1591  0.0811  0.7721
28339SOL    HW196996   8.309   2.729  10.739  1.8540 -1.0795  0.8032
28339SOL    HW296997   8.355   2.861  10.681 -2.4813  0.6708  0.9458
28340SOL     OW96998  11.390  10.569   8.105  0.1910 -0.1637  0.6867
28340SOL    HW196999  11.438  10.517   8.170  0.3454 -1.4325 -0.4143
28340SOL    HW297000  11.317  10.513   8.078  1.7083 -0.8878 -2.2886
28341SOL     OW97001   2.130   7.649   5.754  0.4015  0.3813  0.0609
28341SOL    HW197002   2.042   7.641   5.793  0.2162  1.9655  0.0270
28341SOL    HW297003   2.121   7.719   5.689  1.5947  0.2566 -0.2509
28342SOL     OW97004   3.181  13.134   2.838 -0.3104 -0.1866  0.0049
28342SOL    HW197005   3.157  13.164   2.750 -0.8510  1.7365  0.7774
28342SOL    HW297006   3.101  13.092   2.871  0.7010 -3.6439 -1.4231
28343SOL     OW97007   8.377   5.112   1.081 -0.4118  0.3088  0.6375
28343SOL    HW197008   8.381   5.033   1.135 -0.9713 -1.3650 -1.5858
28343SOL    HW297009   8.455   5.108   1.025 -1.5593  0.0515 -1.0473
28344SOL     OW97010   8.075   5.457  11.447  0.4248 -0.4821 -0.1347
28344SOL    HW197011   7.999   5.436  11.394 -1.8312  0.2669  2.5717
28344SOL    HW297012   8.078   5.387  11.513  0.7514  0.6297  1.0650
28345SOL     OW97013   4.787   1.793   6.011  0.3829 -0.3819  0.0967
28345SOL    HW197014   4.872   1.828   6.039  0.5749 -1.4931  0.9764
28345SOL    HW297015   4.764   1.845   5.934  2.5231 -0.9427 -0.9969
28346SOL     OW97016   0.344   9.736  13.708  0.0272  0.0931 -0.2871
28346SOL    HW197017   0.273   9.705  13.651  1.0960  0.3177 -1.7965
28346SOL    HW297018   0.401   9.659  13.719 -0.4271 -0.0878  0.9216
28347SOL     OW97019   9.476   1.714  12.951  0.5840  0.1724 -0.2336
28347SOL    HW197020   9.505   1.716  13.042  1.1013  1.6187 -0.3970
28347SOL    HW297021   9.552   1.743  12.900  0.6690 -1.6932 -1.2669
28348SOL     OW97022   8.821   6.356   8.228 -0.4850  0.2049 -0.1269
28348SOL    HW197023   8.774   6.432   8.193  0.5062 -0.2875 -2.7221
28348SOL    HW297024   8.837   6.300   8.152  3.0123 -0.3171  0.8447
28349SOL     OW97025   4.146  10.865   4.100  0.3133 -0.2143 -0.4063
28349SOL    HW197026   4.214  10.929   4.119 -0.8517  0.4540  1.9891
28349SOL    HW297027   4.065  10.910   4.125 -0.5102 -2.7460  1.8406
28350SOL     OW97028   5.340  10.384  13.487  0.2201 -0.4452  0.3966
28350SOL    HW197029   5.246  10.398  13.492 -0.0908 -0.8015 -2.3818
28350SOL    HW297030   5.378  10.448  13.547 -1.7178  1.2281 -0.0549
28351SOL     OW97031   8.413  12.603   7.679  0.7690  0.1457  0.9698
28351SOL    HW197032   8.381  12.578   7.593 -0.4777 -1.4083  1.8317
28351SOL    HW297033   8.486  12.544   7.696  2.8181  2.2152 -0.0596
28352SOL     OW97034   0.399  13.498  11.840 -0.3015 -0.5958  0.0443
28352SOL    HW197035   0.494  13.494  11.849 -0.0830 -0.8204 -1.9087
28352SOL    HW297036   0.382  13.469  11.750 -2.1761  0.0172  0.1528
28353SOL     OW97037  12.438   6.036   4.385  0.2910 -0.3774  0.6237
28353SOL    HW197038  12.499   6.087   4.438  0.3059  0.9301 -0.5625
28353SOL    HW297039  12.460   6.059   4.295 -1.7731 -0.0536  0.1432
28354SOL     OW97040   1.183   0.313   4.065  0.1595  0.2294  0.3927
28354SOL    HW197041   1.119   0.384   4.070 -0.5799 -0.5206  2.8104
28354SOL    HW297042   1.131   0.235   4.045  0.4528 -0.2026  1.2734
28355SOL     OW97043   0.949   1.141  10.417 -0.2372  0.9983 -0.2505
28355SOL    HW197044   0.861   1.148  10.452 -0.4696 -0.1115 -0.5847
28355SOL    HW297045   0.944   1.179  10.329 -0.3181  1.1810 -0.1663
28356SOL     OW97046  10.784  11.655   1.501  0.0451 -0.0253  0.1633
28356SOL    HW197047  10.862  11.648   1.555  0.0175 -2.4915 -0.0322
28356SOL    HW297048  10.719  11.695   1.559  1.1476  1.2418  0.5900
28357SOL     OW97049   2.152   2.898   9.581 -0.2009  0.2015  0.2074
28357SOL    HW197050   2.155   2.871   9.673 -0.0984 -0.1909  0.0924
28357SOL    HW297051   2.199   2.981   9.578  0.3729 -0.1125  0.4006
28358SOL     OW97052  11.159   3.915   6.836  0.4160 -0.5726  0.4656
28358SOL    HW197053  11.076   3.948   6.871  0.1344 -1.1070  0.3106
28358SOL    HW297054  11.184   3.979   6.769 -0.0063 -0.5501  0.3257
28359SOL     OW97055   4.161   8.193  12.256 -0.1000  0.1287 -0.1487
28359SOL    HW197056   4.165   8.170  12.163  0.1967 -1.1692  0.1534
28359SOL    HW297057   4.175   8.287  12.259  1.8352 -0.0678 -1.3040
28360SOL     OW97058  12.881   7.093   8.668 -0.1608 -0.1595  0.0670
28360SOL    HW197059  12.908   7.116   8.580  0.9709  0.4303  0.5451
28360SOL    HW297060  12.959   7.055   8.708 -0.2745  0.7412  1.2032
28361SOL     OW97061  13.497   0.116  12.492  0.0807 -0.1198  0.5676
28361SOL    HW197062  13.412   0.127  12.534 -0.2637  1.0742 -0.4060
28361SOL    HW297063  13.476   0.092  12.402  0.7937 -0.1734  0.4099
28362SOL     OW97064  10.476   3.844  10.531 -0.4202  0.2821 -0.6126
28362SOL    HW197065  10.438   3.931  10.543  1.0637  1.2401 -2.4153
28362SOL    HW297066  10.480   3.833  10.436  1.5503 -0.7826 -0.4485
28363SOL     OW97067   7.513   0.294   7.533  0.4736 -0.3647  0.0043
28363SOL    HW197068   7.458   0.334   7.600  1.8722 -1.0316  1.6290
28363SOL    HW297069   7.482   0.204   7.526  0.2200 -0.2486 -0.3680
28364SOL     OW97070   6.633   5.979   8.270 -0.0829  0.1312 -0.4444
28364SOL    HW197071   6.582   5.898   8.276  1.1336 -0.5696  1.2394
28364SOL    HW297072   6.613   6.026   8.352  0.8788  0.5067 -0.4150
28365SOL     OW97073   9.968   8.164   9.090 -0.0159 -0.8846 -0.2864
28365SOL    HW197074   9.971   8.260   9.091 -0.3192 -0.7524 -3.1851
28365SOL    HW297075   9.913   8.143   9.015 -1.6354 -3.3890  1.4357
28366SOL     OW97076   0.470  10.448  14.010  0.1232 -0.0404 -0.2683
28366SOL    HW197077   0.440  10.438  13.919  0.3481  1.3704 -0.5206
28366SOL    HW297078   0.447  10.365  14.052 -0.4583 -0.5208 -1.4794
28367SOL     OW97079   3.272  12.395  13.263  0.5021  0.1827 -0.6947
28367SOL    HW197080   3.186  12.358  13.282  0.7950 -0.2131 -0.0905
28367SOL    HW297081   3.293  12.448  13.340  1.4756 -1.0009 -0.1071
28368SOL     OW97082  12.625  13.001   3.009  0.3454 -0.3592 -0.7445
28368SOL    HW197083  12.663  12.977   3.094 -0.1292 -0.1637 -0.4714
28368SOL    HW297084  12.690  13.060   2.970  0.4370 -0.2162 -0.3834
28369SOL     OW97085   9.723  10.007  12.759  0.3029 -0.0864 -0.1608
28369SOL    HW197086   9.664   9.934  12.742  0.4223 -0.3242  0.4194
28369SOL    HW297087   9.807   9.966  12.780  0.4636  0.2267 -0.1825
28370SOL     OW97088   8.860  10.812  12.735  0.1006 -0.0669  0.1356
28370SOL    HW197089   8.891  10.839  12.649 -2.9732  0.3245 -0.9610
28370SOL    HW297090   8.837  10.719  12.725 -1.1361  0.2121  0.2296
28371SOL     OW97091   5.400   8.949   8.277 -0.3469  0.0176 -0.3127
28371SOL    HW197092   5.456   8.907   8.342  0.2460 -0.3195 -1.0150
28371SOL    HW297093   5.441   9.033   8.261 -1.3693  0.7729  0.8769
28372SOL     OW97094  11.265   3.650  10.789  0.2978  0.2829 -0.1266
28372SOL    HW197095  11.345   3.678  10.835  0.6336 -1.0590  0.1684
28372SOL    HW297096  11.266   3.700  10.708  2.2791 -0.7844 -0.8268
28373SOL     OW97097   7.673   2.641   9.609  0.2592  0.5075  0.4270
28373SOL    HW197098   7.682   2.710   9.675 -2.0464  0.1140  1.2355
28373SOL    HW297099   7.679   2.688   9.525 -2.0261  1.8842  0.9549
28374SOL     OW97100  10.471   5.559   3.881  0.2000 -0.0315 -0.2031
28374SOL    HW197101  10.496   5.628   3.943  0.1691 -0.6463  0.5196
28374SOL    HW297102  10.381   5.537   3.906  0.4034 -0.7182 -0.0500
28375SOL     OW97103   5.801   7.511   9.869 -0.0841 -0.5189  0.4103
28375SOL    HW197104   5.734   7.579   9.860  1.2179  0.6254 -1.7089
28375SOL    HW297105   5.818   7.483   9.779  0.1262 -2.9888  1.1730
28376SOL     OW97106  12.315  11.009  12.706 -0.5530 -0.3753 -0.2714
28376SOL    HW197107  12.318  10.993  12.612 -1.9914 -0.3004 -0.3486
28376SOL    HW297108  12.318  11.104  12.714  0.2103 -0.4016 -0.2025
28377SOL     OW97109   5.689   1.881   4.239 -0.1140 -0.0990  0.0258
28377SOL    HW197110   5.645   1.929   4.168  0.1820 -0.9225 -0.7267
28377SOL    HW297111   5.618   1.832   4.282  0.0310 -1.5554 -1.2911
28378SOL     OW97112   1.789   6.591   3.784 -0.4119 -0.1969 -0.2599
28378SOL    HW197113   1.764   6.677   3.750 -0.4524 -0.2447 -0.3533
28378SOL    HW297114   1.880   6.581   3.757 -0.5016 -0.3167 -0.5244
28379SOL     OW97115  13.039   1.710   1.322  0.3119 -0.1639  0.5662
28379SOL    HW197116  13.033   1.652   1.246  0.0394 -0.9432  1.1702
28379SOL    HW297117  13.131   1.734   1.327  0.0904  1.2038 -0.9476
28380SOL     OW97118   3.996  13.489   8.084 -0.4667  0.7530  0.0243
28380SOL    HW197119   3.906  13.515   8.063 -0.9274 -0.1141  0.8339
28380SOL    HW297120   3.987  13.433   8.162  0.8517  1.3075  0.6045
28381SOL     OW97121  13.396   0.914   1.578 -0.0663  0.5165  0.0918
28381SOL    HW197122  13.420   0.841   1.521 -1.2809 -0.1017  0.3450
28381SOL    HW297123  13.301   0.915   1.578 -0.2247 -0.7697  3.6243
28382SOL     OW97124   1.179  12.100   4.193 -0.2367 -0.8603 -0.2789
28382SOL    HW197125   1.089  12.126   4.211  0.3555  1.7543 -0.7550
28382SOL    HW297126   1.213  12.168   4.136  1.8788 -2.1184 -0.6312
28383SOL     OW97127  11.802   0.411   7.833 -0.9846 -0.3999  0.4947
28383SOL    HW197128  11.834   0.442   7.749 -2.8068  1.3072  0.3387
28383SOL    HW297129  11.793   0.316   7.823  0.7465 -0.4792 -0.5139
28384SOL     OW97130   5.352   3.574   3.407  0.3495  0.2312 -0.0087
28384SOL    HW197131   5.336   3.637   3.477  2.0318 -0.3052  0.9074
28384SOL    HW297132   5.294   3.602   3.336 -0.0659  1.8801  0.9297
28385SOL     OW97133   8.934   7.051  10.322  0.6377  0.0762 -0.4713
28385SOL    HW197134   9.009   7.099  10.286  0.8394 -0.9502 -1.4999
28385SOL    HW297135   8.927   6.973  10.267  0.7288 -1.4258  1.5170
28386SOL     OW97136  11.818   6.280   7.875 -0.2328 -0.5394 -0.0333
28386SOL    HW197137  11.873   6.273   7.797  0.9984  0.2608  0.7287
28386SOL    HW297138  11.768   6.199   7.877  1.2508 -1.5113 -0.5371
28387SOL     OW97139   1.746   8.283   4.008 -0.2437  0.9891  0.0791
28387SOL    HW197140   1.670   8.333   3.980  0.4412  1.5647 -0.8309
28387SOL    HW297141   1.738   8.199   3.963  0.0836  1.3645 -0.6972
28388SOL     OW97142  12.695  10.045   5.266 -0.1760 -0.4453 -0.4361
28388SOL    HW197143  12.732   9.966   5.304 -0.4266 -0.6952 -0.7073
28388SOL    HW297144  12.605  10.048   5.300  0.4087  0.7371  1.0989
28389SOL     OW97145   3.771  10.909   6.700 -0.0621  0.3335 -0.7162
28389SOL    HW197146   3.789  10.976   6.765 -0.7953 -0.4856  0.3762
28389SOL    HW297147   3.676  10.898   6.703 -0.2250  0.9777 -2.6540
28390SOL     OW97148   2.149   6.924  13.800  0.5119 -0.2051  0.2389
28390SOL    HW197149   2.161   6.971  13.883  1.8613 -1.4778  0.8187
28390SOL    HW297150   2.125   6.992  13.737 -2.7704  0.5213  2.0721
28391SOL     OW97151  11.409   8.197  11.694 -0.0584  0.3434  0.4934
28391SOL    HW197152  11.397   8.239  11.780 -2.5539  0.0252  0.3813
28391SOL    HW297153  11.399   8.104  11.711  1.0299  0.1465  0.0797
28392SOL     OW97154  12.145  13.474   9.640  0.2207  0.8356 -0.5842
28392SOL    HW197155  12.138  13.489   9.545 -0.5928 -1.7538 -1.0059
28392SOL    HW297156  12.195  13.393   9.647 -0.5879  0.4502  1.1511
28393SOL     OW97157  12.282   0.470   1.374 -0.2303  0.3387 -0.0421
28393SOL    HW197158  12.347   0.519   1.425 -0.5416 -1.3917  2.1207
28393SOL    HW297159  12.230   0.538   1.330  1.3804  1.8217  0.2258
28394SOL     OW97160   3.506   0.713   6.478  0.0602  0.0800 -0.6253
28394SOL    HW197161   3.552   0.630   6.484 -1.4124 -0.6781  0.8956
28394SOL    HW297162   3.552   0.771   6.539  1.7526  0.8028 -2.4552
28395SOL     OW97163  10.368   1.786   8.237  0.1128 -0.0145  0.0476
28395SOL    HW197164  10.362   1.881   8.244 -0.6462  0.3211 -3.2190
28395SOL    HW297165  10.460   1.769   8.216  0.0592  0.1191 -0.3028
28396SOL     OW97166   6.636   7.210   4.183 -0.3528  0.3609  0.1713
28396SOL    HW197167   6.692   7.148   4.230 -0.7322  0.0909  0.2786
28396SOL    HW297168   6.696   7.265   4.134  0.1207  1.2689  1.7056
28397SOL     OW97169   3.637  13.531   0.341 -0.2563 -0.0503 -0.1843
28397SOL    HW197170   3.639  13.464   0.273  0.8860  0.8905 -1.1119
28397SOL    HW297171   3.711  13.510   0.398 -2.1775 -1.8291  1.8280
28398SOL     OW97172   0.216   7.703  11.046  0.6518  0.2003  0.1584
28398SOL    HW197173   0.152   7.747  11.103  0.8346 -1.9809  2.1971
28398SOL    HW297174   0.295   7.698  11.099  1.8442  0.8280 -1.4985
28399SOL     OW97175   5.980   0.793   2.022 -0.1287  0.2179  0.1296
28399SOL    HW197176   5.890   0.778   1.991 -1.0008  0.1152  2.4800
28399SOL    HW297177   5.986   0.887   2.036  0.4442  0.3346 -0.8727
28400SOL     OW97178  10.214  10.540  12.831  0.6357  0.9138 -0.0742
28400SOL    HW197179  10.200  10.632  12.809  0.5700  0.6298 -1.2840
28400SOL    HW297180  10.152  10.492  12.776  0.1417  0.1670  1.0712
28401SOL     OW97181  13.427  12.496  11.553  0.5501  0.1911  0.2046
28401SOL    HW197182  13.354  12.555  11.574  0.7298  0.0848  1.1653
28401SOL    HW297183  13.424  12.489  11.458 -1.1514 -0.3759  0.2591
28402SOL     OW97184   7.349   5.730   7.133 -0.1735 -0.3438  0.1616
28402SOL    HW197185   7.397   5.764   7.209 -0.1420  0.6449 -0.2880
28402SOL    HW297186   7.403   5.658   7.101  0.1133 -0.3864  0.7175
28403SOL     OW97187  10.851   7.497   0.118  0.1798  0.3242  0.1987
28403SOL    HW197188  10.850   7.552   0.040  2.0959  0.0451 -0.0582
28403SOL    HW297189  10.878   7.555   0.188  0.1617  0.1724  0.3321
28404SOL     OW97190   6.971   5.589  10.333 -0.0483  0.1493 -0.4184
28404SOL    HW197191   7.064   5.611  10.340 -0.1504  0.1189  3.3768
28404SOL    HW297192   6.968   5.494  10.344 -0.5134  0.2298  0.2806
28405SOL     OW97193   4.174  10.902  10.868 -0.0459 -0.3022  0.6450
28405SOL    HW197194   4.113  10.866  10.804  0.4472  1.2416 -0.7629
28405SOL    HW297195   4.230  10.829  10.892 -0.8451 -1.1309  0.0327
28406SOL     OW97196   8.688   2.186   7.018  0.0006  0.2790 -0.6868
28406SOL    HW197197   8.781   2.168   7.036 -0.4036 -0.6060  0.7189
28406SOL    HW297198   8.665   2.126   6.948  0.2102 -0.3343 -0.2379
28407SOL     OW97199   3.941   7.544  10.963  0.4593 -0.2760  0.1465
28407SOL    HW197200   4.010   7.531  11.028 -0.5691 -1.5867  1.0268
28407SOL    HW297201   3.938   7.639  10.951  1.6571 -0.1141  0.9236
28408SOL     OW97202   5.435   9.413   4.720 -0.1630 -0.5571 -0.1310
28408SOL    HW197203   5.366   9.427   4.656  0.6188  1.3033 -0.6217
28408SOL    HW297204   5.433   9.319   4.738 -3.0498 -0.5107  0.1669
28409SOL     OW97205   5.930   9.090  13.760 -0.2582 -0.1083 -0.0139
28409SOL    HW197206   5.879   9.056  13.686  1.1854 -2.5767  0.0228
28409SOL    HW297207   5.902   9.036  13.834 -0.9446  1.6609  1.0770
28410SOL     OW97208  11.764  12.625  12.436  0.4376  0.1434  0.3584
28410SOL    HW197209  11.722  12.677  12.504 -1.0460 -1.6332  0.8772
28410SOL    HW297210  11.853  12.610  12.468  0.8479  2.1041  0.2835
28411SOL     OW97211   6.987   3.597   5.728 -0.5670  0.4141  0.1943
28411SOL    HW197212   6.945   3.513   5.711  3.2882 -1.8955  1.0110
28411SOL    HW297213   7.057   3.603   5.663  0.0595  2.4000  0.9741
28412SOL     OW97214  13.588   9.386   9.871  0.4241 -0.3703 -0.1630
28412SOL    HW197215  13.554   9.468   9.836 -1.1713 -0.4602  1.0735
28412SOL    HW297216  13.528   9.363   9.942  2.6715 -0.9013  1.7113
28413SOL     OW97217   9.041   3.434  10.966 -0.0600 -0.3360  0.3913
28413SOL    HW197218   9.062   3.431  11.059 -0.2035 -1.5617  0.4091
28413SOL    HW297219   8.986   3.357  10.951  0.3131 -0.4030 -0.7849
28414SOL     OW97220   3.468   3.629  12.423  0.3861 -0.0196 -0.1949
28414SOL    HW197221   3.546   3.611  12.370  0.6755  0.3461  0.0965
28414SOL    HW297222   3.503   3.654  12.509 -0.0778 -0.6779  0.1968
28415SOL     OW97223   9.489  13.340   7.921 -0.3877  0.3164  0.5194
28415SOL    HW197224   9.563  13.338   7.981 -0.9020  1.0535  1.1976
28415SOL    HW297225   9.502  13.420   7.869  1.2489 -1.4129 -1.9602
28416SOL     OW97226   8.232  11.512   4.947  1.1274 -0.7605  0.6755
28416SOL    HW197227   8.171  11.506   5.020 -1.1185 -0.0845 -0.9923
28416SOL    HW297228   8.279  11.594   4.961 -0.8402  0.5015  0.3458
28417SOL     OW97229  13.836   0.037   1.593  0.1380  0.1129 -0.2120
28417SOL    HW197230  13.868  -0.050   1.570 -0.8297 -0.2720 -0.1366
28417SOL    HW297231  13.747   0.022   1.624 -0.4512  1.2557 -1.2800
28418SOL     OW97232   4.444   3.155   5.781  0.2791  0.4129  0.5694
28418SOL    HW197233   4.368   3.173   5.835  0.5399  0.1135  1.0442
28418SOL    HW297234   4.501   3.101   5.836  0.7237  0.4275  0.1372
28419SOL     OW97235  10.359   6.624   1.558 -0.1912 -0.2659  0.1481
28419SOL    HW197236  10.273   6.665   1.555 -0.2948 -0.5292 -0.7659
28419SOL    HW297237  10.419   6.695   1.579 -0.2610  0.5540 -2.1826
28420SOL     OW97238   1.719   0.827   5.478 -0.0860  0.1002 -0.1757
28420SOL    HW197239   1.658   0.756   5.499 -1.1015  1.2376  0.9175
28420SOL    HW297240   1.756   0.851   5.563  0.4210  0.7250 -0.5705
28421SOL     OW97241   4.031   1.929   6.059  0.6687  0.1573 -0.5522
28421SOL    HW197242   4.007   1.843   6.024  0.0889  0.2359 -0.3564
28421SOL    HW297243   4.059   1.912   6.149  1.6774  0.0230 -0.8795
28422SOL     OW97244   0.359   2.935   6.489  0.3131  0.0984 -0.0517
28422SOL    HW197245   0.283   2.993   6.485  1.6535  2.0207  0.7731
28422SOL    HW297246   0.331   2.863   6.546 -1.4961 -0.3063 -1.3557
28423SOL     OW97247   7.845   4.419   6.071 -0.3262 -0.4196 -1.4012
28423SOL    HW197248   7.883   4.490   6.019  0.1917 -0.2520 -0.8093
28423SOL    HW297249   7.894   4.341   6.045  1.2300 -0.0308  0.1204
28424SOL     OW97250   3.351  13.782   7.056  0.3925 -1.0773  0.3489
28424SOL    HW197251   3.399  13.751   6.980  1.2467  0.5640  0.1787
28424SOL    HW297252   3.275  13.828   7.020  0.3207 -1.0600  0.5178
28425SOL     OW97253  13.112  13.429   2.660  0.6855 -0.6922  0.1412
28425SOL    HW197254  13.081  13.408   2.748  1.9126 -0.5149  0.6430
28425SOL    HW297255  13.206  13.412   2.664  0.8869  0.0995 -0.9043
28426SOL     OW97256   0.543   8.628   2.708  0.6114  0.0728  0.2036
28426SOL    HW197257   0.608   8.563   2.680 -0.1877 -1.0712  0.8949
28426SOL    HW297258   0.468   8.611   2.652  0.0202 -0.3201  1.0978
28427SOL     OW97259   3.516   8.932   1.321  0.5676  0.2979 -0.3977
28427SOL    HW197260   3.483   8.846   1.296 -1.1428  0.7850  0.0614
28427SOL    HW297261   3.561   8.965   1.243  1.4229 -1.0701 -0.5102
28428SOL     OW97262   2.124  10.130   6.359  0.1933  0.3249  0.2831
28428SOL    HW197263   2.194  10.081   6.403  0.1801  0.2367  0.2048
28428SOL    HW297264   2.051  10.128   6.421 -0.2820 -0.9329 -0.2815
28429SOL     OW97265   5.569   4.253   3.371  0.2832 -0.0201  0.5420
28429SOL    HW197266   5.505   4.240   3.300  1.4231 -0.8002 -0.3873
28429SOL    HW297267   5.559   4.345   3.395 -1.2089 -0.1349  0.4451
28430SOL     OW97268   5.495   7.777  14.032 -0.9510 -0.1346  0.0098
28430SOL    HW197269   5.473   7.688  14.059 -0.2590 -0.3124  0.0176
28430SOL    HW297270   5.521   7.821  14.112  0.0541 -0.3456 -0.1793
28431SOL     OW97271   4.995  12.044   9.516 -0.1140  0.0608  0.7037
28431SOL    HW197272   4.905  12.064   9.542 -0.9275 -0.5146 -1.4332
28431SOL    HW297273   5.015  12.110   9.449  0.9653  0.0158  0.9694
28432SOL     OW97274   2.457   1.265   7.470 -0.1524  0.2005 -0.4811
28432SOL    HW197275   2.481   1.173   7.484  0.7881  0.1410 -2.1453
28432SOL    HW297276   2.487   1.311   7.548  0.2266 -0.7665 -0.0491
28433SOL     OW97277   7.906  13.739   1.090  0.1619 -0.3070  0.0102
28433SOL    HW197278   7.928  13.655   1.131  1.8917 -0.2734 -0.7421
28433SOL    HW297279   7.810  13.741   1.088  0.0716 -1.6478  1.2525
28434SOL     OW97280   5.530  12.144  10.342 -0.1817  0.4861  0.1759
28434SOL    HW197281   5.471  12.109  10.276  0.3980 -1.4454  0.5812
28434SOL    HW297282   5.580  12.067  10.371  1.4195  1.7583  0.9528
28435SOL     OW97283   9.776   5.537  10.771  0.1119  0.0750  0.2648
28435SOL    HW197284   9.727   5.615  10.798  1.0902  0.7822  0.0182
28435SOL    HW297285   9.805   5.498  10.854 -2.3635 -1.4032  0.5566
28436SOL     OW97286  10.731   2.857   7.343  0.3801  0.0667  0.3341
28436SOL    HW197287  10.706   2.765   7.337 -1.2230  0.3946  1.2649
28436SOL    HW297288  10.784   2.873   7.265 -0.6960 -1.2412 -0.7185
28437SOL     OW97289  10.438   3.824   5.227  0.3232  0.2624 -1.1266
28437SOL    HW197290  10.399   3.907   5.201 -1.3302 -0.7785 -2.1559
28437SOL    HW297291  10.406   3.808   5.315  0.0329  0.3743 -1.2115
28438SOL     OW97292   2.525   2.804   1.278 -0.0959  0.0232  0.4083
28438SOL    HW197293   2.517   2.709   1.283  3.1226 -0.4531 -1.2454
28438SOL    HW297294   2.524   2.823   1.185 -1.0621  1.7027  0.7244
28439SOL     OW97295   1.055   4.263   1.441 -0.0099 -0.1620 -0.1310
28439SOL    HW197296   1.088   4.311   1.365 -0.5947  1.2386  0.4725
28439SOL    HW297297   0.961   4.254   1.425 -0.2742  0.8179  0.7582
28440SOL     OW97298   4.832   0.812  12.281  0.6311 -0.3655 -0.9139
28440SOL    HW197299   4.855   0.740  12.222 -0.7670 -1.3399 -0.3433
28440SOL    HW297300   4.738   0.822  12.270  1.0016  2.6677 -2.3256
28441SOL     OW97301   2.045  10.246   5.598 -0.3201 -0.4690  0.6110
28441SOL    HW197302   1.987  10.299   5.544  0.9435  0.1141 -0.2152
28441SOL    HW297303   2.073  10.174   5.541 -1.0053 -1.3211  1.3221
28442SOL     OW97304   8.412  12.041  11.860  0.3885  0.1857  0.2872
28442SOL    HW197305   8.444  11.983  11.791 -2.2151  0.3469 -1.1949
28442SOL    HW297306   8.491  12.076  11.901  2.0230 -1.6211 -1.1535
28443SOL     OW97307   6.760   8.980   0.258 -0.4281 -0.3140  0.5183
28443SOL    HW197308   6.839   9.005   0.307 -1.9575  2.4878  1.7698
28443SOL    HW297309   6.794   8.936   0.180  2.4297  1.2651  0.7174
28444SOL     OW97310  12.827   6.480  10.437  0.5634 -0.0818 -0.1609
28444SOL    HW197311  12.752   6.539  10.426  1.0040  0.5133 -0.0440
28444SOL    HW297312  12.865   6.473  10.349  1.9013  1.7188  0.2137
28445SOL     OW97313   9.901   1.230   5.977 -0.6152  0.2045 -0.6289
28445SOL    HW197314   9.869   1.163   6.037 -1.4491  2.8721  2.1665
28445SOL    HW297315   9.825   1.286   5.960  0.8473  2.6686  0.4384
28446SOL     OW97316  11.910   2.922  13.398  0.3059  0.3396 -0.3264
28446SOL    HW197317  11.895   2.855  13.465  0.3214  0.8344  0.1799
28446SOL    HW297318  11.974   2.882  13.339 -0.6721 -0.5947 -0.7769
28447SOL     OW97319   1.467   5.632   7.035  0.0121  0.0998  0.1896
28447SOL    HW197320   1.551   5.665   7.067 -0.2623 -1.1705  2.4104
28447SOL    HW297321   1.469   5.538   7.054 -1.4165 -0.1841 -0.8951
28448SOL     OW97322   2.143   3.714  13.237  0.1744  0.0578 -0.5786
28448SOL    HW197323   2.097   3.793  13.210 -0.4058 -0.1144 -0.0983
28448SOL    HW297324   2.087   3.642  13.208 -0.7754 -0.1344  1.5345
28449SOL     OW97325  11.956  10.814   4.193 -0.2879 -0.2193 -0.1646
28449SOL    HW197326  11.939  10.786   4.103 -0.2304 -1.7762  0.2805
28449SOL    HW297327  12.001  10.740   4.233  3.0737  1.7732  0.1657
28450SOL     OW97328   7.095  13.213   1.337 -0.2072  0.1775 -0.0860
28450SOL    HW197329   7.138  13.214   1.251 -1.4140  1.2225 -0.7054
28450SOL    HW297330   7.167  13.206   1.399  0.8915  1.8226 -1.0893
28451SOL     OW97331   5.604   0.338  12.474  0.1787  0.2083  0.0652
28451SOL    HW197332   5.639   0.384  12.398 -1.7038  1.2712 -0.2033
28451SOL    HW297333   5.642   0.250  12.469  0.5587  0.4498 -1.7552
28452SOL     OW97334   2.866  12.014  12.927 -0.1558 -0.3354  0.3558
28452SOL    HW197335   2.813  12.065  12.867  0.7189 -0.1182 -0.2572
28452SOL    HW297336   2.817  11.934  12.941  0.5375 -1.3368 -2.3262
28453SOL     OW97337   8.660   7.580  10.180 -0.2296 -0.0157  0.2837
28453SOL    HW197338   8.680   7.511  10.116 -0.1827  0.7217 -0.5068
28453SOL    HW297339   8.746   7.616  10.204 -0.2729 -0.0595  0.5100
28454SOL     OW97340   1.254  12.499   9.181 -0.6094  0.0102 -0.1419
28454SOL    HW197341   1.290  12.577   9.222 -0.8158  1.4847 -2.5522
28454SOL    HW297342   1.168  12.525   9.149 -0.4527 -0.9753 -1.4999
28455SOL     OW97343   3.809  13.904  10.959  0.4378 -0.0816  0.0091
28455SOL    HW197344   3.822  13.987  10.911  0.0998  0.1785  0.3711
28455SOL    HW297345   3.775  13.930  11.044  1.0022 -0.5496  0.3900
28456SOL     OW97346   2.175  13.739   3.482  0.1669  0.5218  0.0467
28456SOL    HW197347   2.144  13.707   3.397 -0.3873 -1.1957  0.8468
28456SOL    HW297348   2.256  13.690   3.497  0.7395  1.4656  0.1373
28457SOL     OW97349   9.355   0.941   3.550 -0.2556 -0.1087 -0.2890
28457SOL    HW197350   9.335   0.992   3.628  0.6977  0.4302 -0.3838
28457SOL    HW297351   9.361   0.850   3.582 -1.7835 -0.1556 -0.0915
28458SOL     OW97352   7.092   9.266   3.458  0.2732  0.1021 -0.0495
28458SOL    HW197353   7.044   9.280   3.376  1.4327  0.4654 -0.7011
28458SOL    HW297354   7.114   9.173   3.456 -0.0873  0.0126  0.0758
28459SOL     OW97355   0.680  13.964  12.525  0.2109 -0.5229 -0.5286
28459SOL    HW197356   0.617  13.953  12.454 -0.4246 -0.2019 -0.0244
28459SOL    HW297357   0.631  14.007  12.595  1.3816  1.1568 -0.6805
28460SOL     OW97358  12.262  13.699   6.740 -0.0691  0.2662  0.5272
28460SOL    HW197359  12.244  13.745   6.822 -0.6891  0.3811  0.3261
28460SOL    HW297360  12.252  13.766   6.672 -2.6383 -0.5045  0.0634
28461SOL     OW97361   1.349   1.763   2.159 -0.6653  0.2965 -0.1699
28461SOL    HW197362   1.288   1.690   2.166  1.3748 -1.3366  2.0536
28461SOL    HW297363   1.326   1.821   2.233  1.1378 -0.9901  1.5106
28462SOL     OW97364  13.746   1.487   9.869  0.1839 -0.2630 -0.3453
28462SOL    HW197365  13.728   1.538   9.949  0.3811  0.3340 -0.6810
28462SOL    HW297366  13.663   1.442   9.851 -0.0594  0.1099 -0.1723
28463SOL     OW97367  10.811   7.019   3.723  0.3168 -0.2029 -0.2227
28463SOL    HW197368  10.754   7.078   3.772  0.7138  0.2078 -0.2416
28463SOL    HW297369  10.872   6.984   3.788  0.5075 -0.0675 -0.3263
28464SOL     OW97370  10.599   0.531   8.771 -0.0809  0.0429  0.1099
28464SOL    HW197371  10.603   0.552   8.864 -0.2570 -1.8115  0.5909
28464SOL    HW297372  10.686   0.553   8.737  0.5471 -0.7639  1.1048
28465SOL     OW97373   6.278   4.250   3.595  0.6737  0.4558  0.1502
28465SOL    HW197374   6.227   4.331   3.602  0.4161  0.3453 -0.3747
28465SOL    HW297375   6.228   4.196   3.534  1.0395  0.0478  0.2075
28466SOL     OW97376   0.575   1.083   5.879 -0.3430 -0.0296  0.7296
28466SOL    HW197377   0.489   1.124   5.870 -0.9496 -1.0778  1.5041
28466SOL    HW297378   0.567   1.001   5.830  1.1490  1.1019 -1.5951
28467SOL     OW97379  12.416   9.983   3.270  0.1870 -0.7336 -0.5937
28467SOL    HW197380  12.327   9.948   3.268 -0.0111 -0.2805  0.0075
28467SOL    HW297381  12.466   9.925   3.213 -0.2585 -1.6371 -0.0816
28468SOL     OW97382   4.991   4.148   8.499 -0.1740  0.2609  0.1050
28468SOL    HW197383   5.077   4.169   8.537 -0.4308  1.1462  0.2342
28468SOL    HW297384   4.929   4.169   8.568 -0.4974 -0.4391  0.0318
28469SOL     OW97385  11.591   6.796   2.912 -0.0348  0.8392  0.5209
28469SOL    HW197386  11.602   6.844   2.829  0.7481 -0.1456  0.0398
28469SOL    HW297387  11.594   6.864   2.979 -3.0385  1.9820 -0.3358
28470SOL     OW97388   2.176  10.742  10.307 -0.1887  0.0176 -0.1723
28470SOL    HW197389   2.235  10.676  10.345  1.7489  2.0697  0.5882
28470SOL    HW297390   2.130  10.779  10.382  1.5026  2.0600 -0.0696
28471SOL     OW97391   2.555   8.375   3.274  0.1130 -0.3955 -0.0083
28471SOL    HW197392   2.602   8.372   3.190  1.7691  1.2088  0.7804
28471SOL    HW297393   2.546   8.469   3.292 -0.2898 -0.7203  1.5777
28472SOL     OW97394  13.477  12.319   4.495 -0.1887  0.0891  0.5049
28472SOL    HW197395  13.547  12.255   4.508 -1.5594 -1.5829  0.0098
28472SOL    HW297396  13.429  12.318   4.578  0.6869  1.6852  1.0655
28473SOL     OW97397  11.425   9.800   5.814  0.5896 -0.2473  0.1359
28473SOL    HW197398  11.509   9.825   5.775  1.9455 -1.3428  2.1910
28473SOL    HW297399  11.393   9.880   5.855  0.6678  0.1468 -0.5525
28474SOL     OW97400   3.162   3.773   0.714  0.1517 -0.0361  0.1690
28474SOL    HW197401   3.083   3.804   0.671  0.0376  0.1110  0.4796
28474SOL    HW297402   3.204   3.715   0.650 -0.8933 -1.1823  0.4767
28475SOL     OW97403   7.513  12.209   9.922  0.2314  0.0029 -0.0858
28475SOL    HW197404   7.427  12.200   9.882 -0.3134  0.6630  0.8916
28475SOL    HW297405   7.506  12.163  10.005  0.7430  0.2747  0.1108
28476SOL     OW97406  12.688   4.015   9.592  0.3429  0.0683 -0.0310
28476SOL    HW197407  12.644   4.082   9.645 -0.1096 -0.4821  0.3076
28476SOL    HW297408  12.623   3.944   9.586  1.1234 -0.6916  0.3317
28477SOL     OW97409  10.019   7.375   8.447  0.1732 -0.3918 -0.2052
28477SOL    HW197410  10.032   7.282   8.468  1.5632 -0.0778  0.4114
28477SOL    HW297411   9.993   7.414   8.531  1.6001  0.1245  0.0137
28478SOL     OW97412   1.682   3.472   6.982  0.1402  0.3373  0.0098
28478SOL    HW197413   1.617   3.412   7.018  0.6477  0.3638  0.9865
28478SOL    HW297414   1.632   3.550   6.958 -0.3223  0.0183 -0.0827
28479SOL     OW97415  12.371  10.877   4.390 -0.4347  0.0681  0.4999
28479SOL    HW197416  12.293  10.917   4.353 -0.6448  1.9620  2.7170
28479SOL    HW297417  12.438  10.945   4.382  0.4607 -0.8201  0.3618
28480SOL     OW97418  11.503  13.857   6.901  0.2040 -0.0915 -0.3647
28480SOL    HW197419  11.436  13.825   6.840  0.6571 -0.9832 -0.4225
28480SOL    HW297420  11.456  13.911   6.964 -0.2956  0.7669 -1.4397
28481SOL     OW97421   4.443  11.341   0.007 -0.2513 -0.1034  0.4284
28481SOL    HW197422   4.460  11.415   0.067 -1.5861  0.6089 -0.0300
28481SOL    HW297423   4.388  11.282   0.058 -0.5151 -0.0021  0.2627
28482SOL     OW97424  10.376   3.486  11.849 -0.1688 -0.8151 -0.1913
28482SOL    HW197425  10.290   3.508  11.812 -0.2420 -0.5544  0.1383
28482SOL    HW297426  10.397   3.558  11.908  0.4806 -0.6550 -0.6072
28483SOL     OW97427   2.814  12.358   3.320 -0.0235 -0.4274 -0.4268
28483SOL    HW197428   2.878  12.290   3.296  0.7122  0.2538 -0.4316
28483SOL    HW297429   2.732  12.330   3.278  0.2845 -1.2774 -0.4799
28484SOL     OW97430  10.595   2.572   1.525 -0.0791 -0.9465 -0.4931
28484SOL    HW197431  10.648   2.578   1.446  0.6617 -0.3921  0.0333
28484SOL    HW297432  10.549   2.656   1.530 -0.1264 -0.9799 -0.3329
28485SOL     OW97433   2.459   2.775   0.959  0.0840  0.4152 -0.1117
28485SOL    HW197434   2.416   2.765   0.874 -0.0662 -0.3672  0.0466
28485SOL    HW297435   2.414   2.848   1.000  0.4062  1.0396 -0.8542
28486SOL     OW97436   3.241  10.511   4.694 -0.3145  0.4782 -0.3252
28486SOL    HW197437   3.273  10.425   4.670 -1.1964  0.3611 -1.1529
28486SOL    HW297438   3.312  10.551   4.744  0.2020 -0.6188 -0.1652
28487SOL     OW97439   3.236  13.591  13.688 -0.0989  0.1033  0.2530
28487SOL    HW197440   3.324  13.617  13.715  0.0631  0.9142 -1.0033
28487SOL    HW297441   3.242  13.496  13.677  0.6990  0.1788 -0.0569
28488SOL     OW97442   8.341   7.608   3.794 -0.3587  0.0101  0.1533
28488SOL    HW197443   8.404   7.538   3.808  0.6794  1.0404  0.8219
28488SOL    HW297444   8.294   7.616   3.878 -1.5517 -0.8787 -0.3956
28489SOL     OW97445   9.378  13.254  12.852  0.1194 -0.2508  0.1886
28489SOL    HW197446   9.315  13.308  12.804 -0.8866 -2.1678 -0.7763
28489SOL    HW297447   9.432  13.214  12.784 -0.7348 -2.2995  0.6436
28490SOL     OW97448  11.258   6.238   9.849  0.1576  0.0428 -0.4679
28490SOL    HW197449  11.341   6.252   9.893  1.0320 -1.7519 -1.4270
28490SOL    HW297450  11.279   6.242   9.756 -1.1176  0.9370 -0.7597
28491SOL     OW97451   1.277  12.443   6.197  0.0478 -0.8930  0.2969
28491SOL    HW197452   1.358  12.490   6.215 -0.6613  1.1028 -1.3252
28491SOL    HW297453   1.287  12.359   6.241  3.2132 -0.9369 -0.2977
28492SOL     OW97454  10.294   2.225   0.072  0.0343  0.8230  0.4473
28492SOL    HW197455  10.355   2.206   0.143 -0.2509  0.8287  0.6902
28492SOL    HW297456  10.279   2.319   0.078 -0.9359  0.6345  1.1361
28493SOL     OW97457   4.818   9.808   8.971  0.1293 -0.1699 -0.0925
28493SOL    HW197458   4.759   9.865   8.921  0.0436  0.0269  0.2269
28493SOL    HW297459   4.765   9.730   8.991  0.5860 -0.8687 -1.4817
28494SOL     OW97460  11.734   4.886   3.332 -0.0974 -0.2996  0.1328
28494SOL    HW197461  11.812   4.893   3.387  0.6468 -1.0195 -0.7899
28494SOL    HW297462  11.752   4.943   3.256  0.6696 -2.3647 -1.3244
28495SOL     OW97463   1.177  12.630   0.794  0.1808 -0.1788  0.0617
28495SOL    HW197464   1.122  12.706   0.813  1.4123  0.6117  0.6097
28495SOL    HW297465   1.119  12.568   0.751 -0.8323  1.1518 -0.5682
28496SOL     OW97466   8.284   5.190  12.294  0.0939  0.3153 -0.2916
28496SOL    HW197467   8.324   5.273  12.268 -1.6854  1.0442 -0.9085
28496SOL    HW297468   8.227   5.214  12.368  0.0427 -0.4732 -0.0704
28497SOL     OW97469  10.895   9.466  12.216  0.3725  0.1028 -0.3921
28497SOL    HW197470  10.967   9.496  12.161  0.4000  0.6615 -0.0558
28497SOL    HW297471  10.938   9.417  12.287  0.3368 -0.6138 -0.8619
28498SOL     OW97472  11.690   8.387   7.722  0.4853  0.6689 -0.0407
28498SOL    HW197473  11.718   8.307   7.766  0.8976  0.9365  0.1849
28498SOL    HW297474  11.715   8.374   7.630 -1.7971 -0.5741 -0.5688
28499SOL     OW97475   4.246   4.296   2.505  0.1423 -1.0346 -0.2341
28499SOL    HW197476   4.158   4.263   2.486 -0.7933  1.0967  0.1409
28499SOL    HW297477   4.236   4.345   2.587  1.4848 -0.0033 -0.6551
28500SOL     OW97478  10.324   3.833  11.962 -0.0039  0.2552  0.6436
28500SOL    HW197479  10.348   3.917  12.001 -0.5756  0.3740  0.7576
28500SOL    HW297480  10.238   3.849  11.923  0.1697 -0.1058  0.1049
28501SOL     OW97481   2.723  13.005   0.973  0.1763  0.0659  0.0468
28501SOL    HW197482   2.704  13.074   1.036 -0.5733 -0.5040  0.4632
28501SOL    HW297483   2.771  12.939   1.022  0.6613  0.1664 -0.2835
28502SOL     OW97484  12.421   5.036   7.113 -0.6286  0.1921  0.1256
28502SOL    HW197485  12.332   5.064   7.129 -0.8457  0.3652 -1.2715
28502SOL    HW297486  12.423   4.945   7.144 -1.7686 -0.3617 -1.3182
28503SOL     OW97487   2.982   3.707  10.876  0.0058  0.4113 -0.6506
28503SOL    HW197488   2.936   3.735  10.797 -0.6022  2.5540  0.3958
28503SOL    HW297489   2.914   3.698  10.942  0.7953  1.2533  0.3103
28504SOL     OW97490   5.507   1.773   0.912 -0.1243  0.2220 -0.0501
28504SOL    HW197491   5.459   1.702   0.955 -0.9671  1.6093  1.4621
28504SOL    HW297492   5.520   1.743   0.822  0.1389 -2.0839  0.7020
28505SOL     OW97493   1.477   9.664  11.056 -0.2041  0.1730  0.1341
28505SOL    HW197494   1.524   9.594  11.100 -0.3928 -0.2109 -0.2630
28505SOL    HW297495   1.423   9.703  11.124  0.2224  0.2127  0.4525
28506SOL     OW97496   7.780   7.574  13.280 -0.5978  0.1455 -0.1355
28506SOL    HW197497   7.859   7.527  13.307 -0.7316  0.2406  0.4360
28506SOL    HW297498   7.812   7.658  13.249 -0.5149  0.3915  0.6018
28507SOL     OW97499   7.428  11.457   0.430  0.1444  0.0705 -0.4288
28507SOL    HW197500   7.335  11.451   0.408 -0.0214  1.6751 -0.3067
28507SOL    HW297501   7.462  11.521   0.367  0.4985  1.7917  1.4290
28508SOL     OW97502  11.544   9.914   5.433  0.1618 -0.3736 -0.5148
28508SOL    HW197503  11.535   9.819   5.431 -1.2548 -0.2532 -1.7686
28508SOL    HW297504  11.607   9.931   5.503 -0.7084 -2.1358  0.7769
28509SOL     OW97505  10.938  11.971   9.544 -0.0089  0.6329 -0.5218
28509SOL    HW197506  10.923  11.953   9.451  1.0228 -0.3539 -0.5226
28509SOL    HW297507  11.007  11.909   9.569  1.5947  2.6133  0.2513
28510SOL     OW97508   5.226   8.585   3.255  0.0873  0.0952  0.3009
28510SOL    HW197509   5.179   8.648   3.200  0.0700  0.0778  0.2969
28510SOL    HW297510   5.280   8.535   3.193 -0.8261 -0.7298  0.1595
28511SOL     OW97511  10.110   7.653   3.600  0.2586  0.5012 -0.0816
28511SOL    HW197512  10.193   7.672   3.557  0.2849 -1.6305 -1.0928
28511SOL    HW297513  10.047   7.647   3.529  0.0604 -1.8759  0.2249
28512SOL     OW97514  13.637  11.954  10.224 -0.0200 -0.0853  0.3633
28512SOL    HW197515  13.675  11.903  10.295 -1.2670  1.5565  2.3195
28512SOL    HW297516  13.692  12.032  10.217  0.7725 -0.7492 -1.3169
28513SOL     OW97517  13.003   2.810   4.059  1.0951  0.0571 -0.1302
28513SOL    HW197518  13.095   2.806   4.085  1.2943  1.2199 -0.5945
28513SOL    HW297519  13.005   2.831   3.966  0.3612  0.2277 -0.1173
28514SOL     OW97520  11.601   5.286  13.982 -0.2816 -0.1041  0.2011
28514SOL    HW197521  11.512   5.290  13.949 -0.5564 -0.5850  0.8718
28514SOL    HW297522  11.656   5.287  13.904 -0.9444 -2.0529 -0.3321
28515SOL     OW97523   4.257   7.218   2.210 -0.5854  0.4883  0.4468
28515SOL    HW197524   4.169   7.254   2.221 -0.0681  1.3703  1.8033
28515SOL    HW297525   4.245   7.124   2.225 -1.5287  0.3572 -0.8611
28516SOL     OW97526   7.421   9.850  13.381 -0.3348  0.4776 -0.1671
28516SOL    HW197527   7.377   9.775  13.422 -0.3327  0.8129  0.4566
28516SOL    HW297528   7.422   9.917  13.449  1.0036  0.5373 -0.2243
28517SOL     OW97529  10.792   9.288   8.208 -0.2536 -0.1339  0.5316
28517SOL    HW197530  10.818   9.203   8.175  0.4693  0.9319 -1.8437
28517SOL    HW297531  10.874   9.337   8.215 -0.6843  0.4831  1.6094
28518SOL     OW97532   9.143  13.062  11.154 -0.1143  0.6615  0.7425
28518SOL    HW197533   9.216  13.058  11.091  1.1398  0.3581  2.1525
28518SOL    HW297534   9.127  13.155  11.166  1.0464  0.7970  1.4767
28519SOL     OW97535   0.240  11.534  13.785  0.2867 -0.2721  0.2676
28519SOL    HW197536   0.261  11.505  13.696  0.2116  1.2973 -0.2981
28519SOL    HW297537   0.216  11.626  13.775  1.2291  0.2164  2.0460
28520SOL     OW97538   2.953   2.674   6.168 -0.5735  0.5068  0.3263
28520SOL    HW197539   2.926   2.677   6.260  1.2305  0.7675  0.8731
28520SOL    HW297540   3.034   2.623   6.168 -0.9977 -0.2565 -1.2658
28521SOL     OW97541  12.808   1.180  13.718  0.2111  0.1906  0.0311
28521SOL    HW197542  12.873   1.113  13.737  1.3594  1.3895  0.4586
28521SOL    HW297543  12.760   1.146  13.642  0.6592 -1.1719  0.3385
28522SOL     OW97544   4.071  12.321   2.520  0.0421  0.9017 -0.3539
28522SOL    HW197545   4.059  12.246   2.578 -1.3451  1.7906  0.5747
28522SOL    HW297546   4.144  12.296   2.462  1.3323 -0.1156  1.6035
28523SOL     OW97547  12.586  10.613  13.089  0.1960  0.2515 -0.0312
28523SOL    HW197548  12.606  10.585  13.178 -1.8080  0.5987  0.5665
28523SOL    HW297549  12.617  10.541  13.034  2.8021  0.6637  0.7599
28524SOL     OW97550  11.324   6.865   0.251 -0.6483 -0.0430 -0.7577
28524SOL    HW197551  11.400   6.893   0.302 -0.9500 -0.7412  0.1066
28524SOL    HW297552  11.325   6.921   0.173 -1.4058  2.6947  1.0377
28525SOL     OW97553   9.030   9.880  12.016 -0.0074 -0.3202 -0.7814
28525SOL    HW197554   8.941   9.849  12.028  0.0378 -0.2562 -0.2506
28525SOL    HW297555   9.085   9.807  12.045  0.1145 -0.3938 -1.1938
28526SOL     OW97556   4.226  13.923   0.009 -0.0909 -0.1171 -0.2028
28526SOL    HW197557   4.208  13.872  -0.070 -0.0161 -1.3789  0.5675
28526SOL    HW297558   4.277  13.998  -0.022  0.5868 -0.9805 -1.2444
28527SOL     OW97559   3.081  13.053   9.996 -0.5272 -0.0387  0.1619
28527SOL    HW197560   3.116  13.094   9.917  1.0730  1.1049  1.3854
28527SOL    HW297561   3.120  12.966   9.996  1.4371  0.7798  0.8471
28528SOL     OW97562   6.787   2.132   8.542 -0.0120  0.1339 -0.3759
28528SOL    HW197563   6.741   2.048   8.553 -1.0646  0.7241 -0.1516
28528SOL    HW297564   6.784   2.172   8.629 -0.3678  0.8254 -0.6951
28529SOL     OW97565   2.296   5.425   1.241  0.0624  0.3813 -0.1517
28529SOL    HW197566   2.245   5.457   1.315  0.4939  0.5015  0.1012
28529SOL    HW297567   2.347   5.502   1.212  0.2228  0.2228 -0.2936
28530SOL     OW97568   8.361   1.060   3.559  0.5909  0.1970 -0.3979
28530SOL    HW197569   8.428   1.120   3.591  1.4766 -0.6923 -0.5432
28530SOL    HW297570   8.388   1.039   3.470 -0.3461  0.4736 -0.7629
28531SOL     OW97571   2.978   6.704  12.440  0.2678  0.3599 -0.6782
28531SOL    HW197572   2.965   6.728  12.532  0.4932  1.0812 -0.8274
28531SOL    HW297573   3.016   6.616  12.443  0.5314  0.4888 -0.0683
28532SOL     OW97574   5.389   6.512  10.997 -0.5263 -0.2299 -0.0616
28532SOL    HW197575   5.337   6.496  10.918 -0.2385 -0.8897 -0.1302
28532SOL    HW297576   5.329   6.494  11.070 -1.0793  1.3219 -0.0992
28533SOL     OW97577   5.045   2.843   0.246  0.5506 -0.4066  0.4348
28533SOL    HW197578   5.124   2.891   0.221 -0.7614  2.1823  0.8993
28533SOL    HW297579   4.977   2.910   0.250 -1.2954 -2.2471  1.8355
28534SOL     OW97580   3.460  10.714   1.987  0.2007  0.3438 -0.4859
28534SOL    HW197581   3.391  10.708   2.053 -0.1105 -0.4724 -0.8691
28534SOL    HW297582   3.431  10.656   1.917  0.6357  1.0354 -1.2430
28535SOL     OW97583   9.825  11.425   1.364 -0.5566  0.6490  0.2347
28535SOL    HW197584   9.807  11.334   1.342  1.8303  0.2308 -0.3377
28535SOL    HW297585   9.816  11.472   1.281  1.8842  0.2223 -0.3495
28536SOL     OW97586   9.757   5.793  12.424 -0.1028  0.1203  0.1606
28536SOL    HW197587   9.784   5.882  12.444 -1.2728  0.6117 -0.3287
28536SOL    HW297588   9.802   5.772  12.342 -1.6754  1.1937 -1.0342
28537SOL     OW97589  13.864  11.551   7.432 -0.4931  0.6244 -0.3310
28537SOL    HW197590  13.917  11.471   7.422 -0.3718  0.7519 -0.7021
28537SOL    HW297591  13.908  11.616   7.379 -0.7817  0.8524 -0.2936
28538SOL     OW97592   1.215   6.520   2.702  0.0670  0.0727  0.3874
28538SOL    HW197593   1.172   6.590   2.653 -0.8000 -0.1144  0.8535
28538SOL    HW297594   1.154   6.499   2.773  0.6267 -0.6772  0.6664
28539SOL     OW97595   9.669  10.417   1.171  0.2435  0.0071 -0.7638
28539SOL    HW197596   9.756  10.381   1.156 -0.8778 -3.1367 -0.3656
28539SOL    HW297597   9.619  10.393   1.093 -1.0607 -1.0849  0.3470
28540SOL     OW97598  13.404   7.170  13.096  0.1608  0.3934  0.1112
28540SOL    HW197599  13.483   7.122  13.119 -1.0633 -1.5558  0.4279
28540SOL    HW297600  13.335   7.132  13.150 -1.2794  1.0762 -1.1430
28541SOL     OW97601   0.356   3.030   3.460 -0.1340 -0.7468 -0.4971
28541SOL    HW197602   0.405   3.084   3.399  0.1183  0.3515  0.6377
28541SOL    HW297603   0.289   2.988   3.406  2.3104 -2.7329 -2.1894
28542SOL     OW97604   2.469   6.212   1.001 -0.0871  0.4235 -0.7019
28542SOL    HW197605   2.429   6.199   0.916 -0.6052 -0.4009 -0.3465
28542SOL    HW297606   2.431   6.294   1.034 -0.2907  0.4601 -1.0299
28543SOL     OW97607   2.300  12.523   7.842 -0.1124  0.1852  0.0656
28543SOL    HW197608   2.395  12.533   7.844 -0.1213  0.6440 -0.9976
28543SOL    HW297609   2.283  12.446   7.897  0.9810 -0.6228 -0.6602
28544SOL     OW97610   3.327  10.678  12.500 -0.2665 -0.0863 -0.3530
28544SOL    HW197611   3.332  10.604  12.561  0.8889 -0.8711 -1.3515
28544SOL    HW297612   3.237  10.709  12.508 -0.0687  0.0618  1.9806
28545SOL     OW97613  10.405   6.506   2.169 -0.0902  0.2262  0.5473
28545SOL    HW197614  10.427   6.414   2.151  0.4837  0.7019 -1.4750
28545SOL    HW297615  10.485   6.554   2.148 -2.0194  1.7909 -4.9997
28546SOL     OW97616   3.125   6.644  12.705  0.1649  0.1229 -0.0732
28546SOL    HW197617   3.043   6.691  12.720  0.2058 -0.2946  1.6824
28546SOL    HW297618   3.187   6.712  12.680 -0.1460  0.8126  0.9494
28547SOL     OW97619   0.374   9.579   8.551 -0.3822  0.7339  0.3705
28547SOL    HW197620   0.442   9.555   8.487 -1.1766 -1.3415  0.2305
28547SOL    HW297621   0.385   9.673   8.563  2.7062  0.4525  0.5725
28548SOL     OW97622   4.155  13.693   1.996 -1.1448 -0.2720 -0.3364
28548SOL    HW197623   4.174  13.772   2.046  0.6941 -0.5474 -0.5545
28548SOL    HW297624   4.062  13.701   1.975 -0.8330  2.2566 -1.0979
28549SOL     OW97625  13.142   4.490  13.048 -0.1755  0.2360  0.6589
28549SOL    HW197626  13.113   4.522  12.962  0.8320 -0.1282  0.1602
28549SOL    HW297627  13.066   4.445  13.084 -0.1866 -0.9008 -0.7007
28550SOL     OW97628   6.290  13.941   3.980 -0.1794 -0.1623  0.0243
28550SOL    HW197629   6.252  13.922   4.066  1.6539 -0.2602  0.8505
28550SOL    HW297630   6.379  13.969   3.999  0.4928 -0.8714 -1.9028
28551SOL     OW97631   2.994  12.399   7.225 -0.1868 -0.0251 -0.5693
28551SOL    HW197632   2.921  12.431   7.172  0.1066  1.2154 -0.2496
28551SOL    HW297633   2.973  12.427   7.314  0.0965 -0.7216 -0.2738
28552SOL     OW97634   5.647   7.871   4.273 -0.2426 -0.6125  0.4970
28552SOL    HW197635   5.694   7.837   4.198 -0.3440  0.2561  0.0311
28552SOL    HW297636   5.707   7.932   4.314 -1.1113  0.8932 -0.3939
28553SOL     OW97637   1.573   1.384   9.592 -1.1221  0.1771  0.2986
28553SOL    HW197638   1.571   1.289   9.584 -0.2210  0.2658 -1.5050
28553SOL    HW297639   1.483   1.412   9.577 -1.0975 -0.3093 -0.8271
28554SOL     OW97640   4.841  11.885   6.913 -0.9965 -0.2475  0.1974
28554SOL    HW197641   4.879  11.870   6.827 -0.0048  0.5734  0.4579
28554SOL    HW297642   4.751  11.853   6.907 -0.8083 -0.5762 -1.0050
28555SOL     OW97643  12.677   1.596  13.397 -0.4239  0.0156  0.0379
28555SOL    HW197644  12.614   1.659  13.432  0.4965  1.0852 -0.1753
28555SOL    HW297645  12.684   1.618  13.305 -0.6979 -0.9474 -0.2230
28556SOL     OW97646   3.054  12.336  13.444 -0.3657  0.4512  0.6218
28556SOL    HW197647   3.131  12.384  13.475  0.4828 -0.7130  0.3483
28556SOL    HW297648   3.009  12.307  13.524  1.4207 -1.9105  0.8664
28557SOL     OW97649   9.534  11.850  12.741  0.4113 -0.0230 -0.1102
28557SOL    HW197650   9.485  11.837  12.822  0.9149 -0.1930  0.1703
28557SOL    HW297651   9.614  11.893  12.768  0.0408  1.0504 -0.6772
28558SOL     OW97652   6.168   1.448  13.897  0.2511 -0.3240 -0.0824
28558SOL    HW197653   6.260   1.443  13.923  0.7053  1.0574 -1.3144
28558SOL    HW297654   6.170   1.472  13.805 -1.3612 -0.3580 -0.1539
28559SOL     OW97655  10.932  13.058   9.919 -0.2047  0.6854  0.3802
28559SOL    HW197656  10.928  13.088  10.009 -0.0907  0.2206  0.5435
28559SOL    HW297657  10.864  13.108   9.874 -0.3421  0.8335  0.7492
28560SOL     OW97658   3.500   2.141   1.986  0.0938 -0.1569 -0.4504
28560SOL    HW197659   3.452   2.100   2.058 -0.3718  1.0051 -0.0707
28560SOL    HW297660   3.528   2.225   2.021  0.2196  0.2480 -1.4909
28561SOL     OW97661  13.890   6.656   6.818  0.3519 -0.3394 -0.9829
28561SOL    HW197662  13.834   6.702   6.880 -1.8270 -3.7864 -0.1359
28561SOL    HW297663  13.970   6.637   6.868  0.4758  0.7045 -0.7449
28562SOL     OW97664   8.511   6.176   0.456  0.1913 -0.3594 -0.3381
28562SOL    HW197665   8.565   6.238   0.408 -0.4010 -0.0184 -0.5789
28562SOL    HW297666   8.449   6.231   0.503 -0.3076 -0.7637 -0.5174
28563SOL     OW97667   5.278  13.961  11.488 -0.0358  0.2531  0.3860
28563SOL    HW197668   5.211  13.902  11.454 -0.7044  0.8162  0.6854
28563SOL    HW297669   5.296  14.022  11.416  0.1794  0.0833  0.2955
28564SOL     OW97670  12.231   3.795   5.982 -0.0672  0.3770  0.0747
28564SOL    HW197671  12.324   3.800   6.003  0.1182 -0.4688 -0.5023
28564SOL    HW297672  12.197   3.881   6.004  0.6759  0.4218  1.1107
28565SOL     OW97673   8.883  13.661   1.352  0.5714  0.0490  0.0326
28565SOL    HW197674   8.795  13.697   1.344  0.3628 -0.8937 -3.4988
28565SOL    HW297675   8.942  13.733   1.330  0.6295  0.2826  0.9175
28566SOL     OW97676  10.087   8.762   6.684 -0.8320 -0.1377  0.3613
28566SOL    HW197677  10.140   8.685   6.663 -0.2887  0.2491  0.2784
28566SOL    HW297678  10.123   8.831   6.628 -1.1201  0.2465  0.6468
28567SOL     OW97679  12.358   2.012  11.589 -0.8227 -0.1972 -0.3583
28567SOL    HW197680  12.360   1.919  11.569  0.0162 -0.1956 -0.3445
28567SOL    HW297681  12.392   2.055  11.510 -0.2298  0.0123 -0.0004
28568SOL     OW97682  11.553   1.832   7.557  0.4411  0.5571 -0.0377
28568SOL    HW197683  11.595   1.764   7.504  1.2074 -0.1867  1.4730
28568SOL    HW297684  11.623   1.865   7.613 -0.2851  1.5213  0.3172
28569SOL     OW97685   8.990  10.355   6.413  0.0835  0.0254  0.0166
28569SOL    HW197686   8.912  10.335   6.464 -1.5722  0.2364 -2.2709
28569SOL    HW297687   9.037  10.272   6.408 -0.0535 -0.1461  1.2765
28570SOL     OW97688   1.296   6.593   7.326 -0.4856  0.0566  0.0094
28570SOL    HW197689   1.252   6.602   7.410  2.4307 -0.8114  1.7605
28570SOL    HW297690   1.327   6.681   7.306 -0.8252  0.1812  0.0111
28571SOL     OW97691   6.983   8.510   0.170  0.3914 -0.2306  0.2072
28571SOL    HW197692   7.075   8.500   0.144  0.4108  1.5128 -0.5426
28571SOL    HW297693   6.942   8.427   0.145  0.9854  0.3203 -3.0586
28572SOL     OW97694  11.067   6.824   0.361  0.3545  0.2195  0.0511
28572SOL    HW197695  11.158   6.834   0.334  0.5008  0.0641  0.4775
28572SOL    HW297696  11.071   6.778   0.445 -0.1105  0.3178  0.1342
28573SOL     OW97697   3.405   9.764  11.356  0.2448 -0.8924 -0.4293
28573SOL    HW197698   3.495   9.769  11.325  0.3340 -0.0894 -0.0466
28573SOL    HW297699   3.354   9.812  11.291  0.2421 -0.4352 -0.0977
28574SOL     OW97700  13.167   6.649  11.207  0.1272  0.1726  1.1200
28574SOL    HW197701  13.262   6.652  11.203  0.1048 -0.0217  0.1255
28574SOL    HW297702  13.144   6.700  11.284  0.9646  1.5373  0.4897
28575SOL     OW97703   8.479   9.196  11.081 -0.5219 -0.1946 -0.3570
28575SOL    HW197704   8.502   9.149  11.000  0.3247 -2.0138  0.8531
28575SOL    HW297705   8.398   9.154  11.111 -1.2032  0.9285 -0.5885
28576SOL     OW97706   7.137  11.814   1.558  0.8084  0.1610  0.0963
28576SOL    HW197707   7.109  11.883   1.498  0.4431 -1.3798 -1.5682
28576SOL    HW297708   7.216  11.849   1.599  0.3643  1.7541 -0.3241
28577SOL     OW97709  10.395   6.015   7.456 -0.0143 -0.0771  0.6445
28577SOL    HW197710  10.309   5.996   7.416 -0.4294 -1.4495  2.0903
28577SOL    HW297711  10.427   6.092   7.408 -0.4711 -1.5759 -2.2889
28578SOL     OW97712   0.859  13.625  13.775 -0.1612 -0.3452 -0.5209
28578SOL    HW197713   0.863  13.551  13.835  0.0282 -0.3827 -0.5769
28578SOL    HW297714   0.790  13.602  13.713 -1.3642  0.3388  0.5134
28579SOL     OW97715   7.168   0.232   4.172  0.2437 -0.3456  0.0771
28579SOL    HW197716   7.255   0.258   4.142  0.7037 -1.0273  0.7909
28579SOL    HW297717   7.109   0.297   4.133  1.0891  0.2766 -0.2000
28580SOL     OW97718   7.406   5.177   8.292  0.0376  0.4052  0.0663
28580SOL    HW197719   7.394   5.252   8.350  1.2655  1.0465 -0.4676
28580SOL    HW297720   7.432   5.216   8.208  2.2529 -0.6563  0.1992
28581SOL     OW97721   4.310   0.982   8.024 -0.0375 -0.1845  0.4416
28581SOL    HW197722   4.370   1.049   7.992 -0.2625 -0.4934 -0.6771
28581SOL    HW297723   4.365   0.904   8.035 -0.1088 -0.2953  0.0259
28582SOL     OW97724   8.852   3.719  12.123  0.2834  0.1719 -0.6126
28582SOL    HW197725   8.781   3.658  12.106  0.0961  0.3758 -0.5570
28582SOL    HW297726   8.932   3.666  12.113  0.1481  0.0807 -1.2332
28583SOL     OW97727   2.695   0.301   1.628 -0.0292 -0.1117  0.3511
28583SOL    HW197728   2.651   0.233   1.577  2.4906 -0.9298 -0.8915
28583SOL    HW297729   2.747   0.350   1.564  1.1555  0.5654  1.7579
28584SOL     OW97730  13.682   9.693  12.042 -0.1412  0.2044  0.0444
28584SOL    HW197731  13.702   9.763  11.980 -1.1935  0.3592 -0.1437
28584SOL    HW297732  13.715   9.725  12.126  1.7803 -0.2328 -0.4918
28585SOL     OW97733   0.726  13.771   7.410 -0.3829  0.6343 -0.0723
28585SOL    HW197734   0.745  13.845   7.467 -0.1647  0.7169 -0.2499
28585SOL    HW297735   0.800  13.712   7.421 -1.9061 -1.0064  2.3570
28586SOL     OW97736   4.734   9.041  10.879  0.1215  0.3023 -0.5712
28586SOL    HW197737   4.805   8.980  10.900  0.2607  0.6806  0.0668
28586SOL    HW297738   4.702   9.072  10.964  0.2223  1.3195 -0.8909
28587SOL     OW97739   4.695   0.882   7.843 -0.1569 -0.2408 -0.0197
28587SOL    HW197740   4.748   0.854   7.768  0.9369  2.2274 -0.2814
28587SOL    HW297741   4.625   0.934   7.804 -1.2218 -1.2246  0.5282
28588SOL     OW97742   8.325   0.393  12.207 -0.0710  0.1197 -0.0408
28588SOL    HW197743   8.369   0.337  12.143  0.8001  0.3347  0.3435
28588SOL    HW297744   8.357   0.481  12.187  0.2478  0.1820  0.7017
28589SOL     OW97745   2.321   4.222   4.075 -0.1334  0.3655 -0.0906
28589SOL    HW197746   2.355   4.185   4.156 -0.9729 -0.3666 -0.0537
28589SOL    HW297747   2.389   4.205   4.009 -1.2129 -2.9578 -0.5037
28590SOL     OW97748   0.657  10.953   2.525  0.6811 -0.1916 -0.2265
28590SOL    HW197749   0.625  11.011   2.594  0.1319  1.6095 -1.8705
28590SOL    HW297750   0.721  11.007   2.477  2.6975 -2.1305  0.1604
28591SOL     OW97751   3.318   1.655   4.414 -0.0148 -0.3063 -0.4245
28591SOL    HW197752   3.261   1.725   4.381  0.5776  1.1803  1.5116
28591SOL    HW297753   3.397   1.661   4.360  0.1074  0.6977 -0.1621
28592SOL     OW97754   3.118   1.465   0.497 -0.1919  0.1533 -0.9228
28592SOL    HW197755   3.026   1.438   0.493  0.0464 -0.7542 -0.5620
28592SOL    HW297756   3.165   1.386   0.524  0.5704  0.8812 -0.0487
28593SOL     OW97757   7.747   2.297  11.522  0.4390  0.1051 -0.0264
28593SOL    HW197758   7.737   2.353  11.599  1.2429  0.6368 -0.2973
28593SOL    HW297759   7.734   2.356  11.447  1.6498  0.0345 -0.3190
28594SOL     OW97760  11.726  13.525   5.017 -0.7604  0.3590 -0.0457
28594SOL    HW197761  11.769  13.449   4.978  1.3787  0.4846  1.8161
28594SOL    HW297762  11.659  13.488   5.075  0.6415 -0.2124  1.2804
28595SOL     OW97763   2.950  13.785   7.212  0.0283 -0.0503 -0.8297
28595SOL    HW197764   3.028  13.828   7.248  0.0685  0.7826 -1.8656
28595SOL    HW297765   2.903  13.753   7.289 -0.8123  3.2544  0.2116
28596SOL     OW97766   2.376  10.336   2.703 -0.1398 -0.2649 -0.0498
28596SOL    HW197767   2.444  10.281   2.741  2.2228  3.1403  1.1975
28596SOL    HW297768   2.409  10.359   2.616  0.2399  1.1609  0.4409
28597SOL     OW97769   2.059  13.558   6.333  0.0758 -0.1968 -0.0032
28597SOL    HW197770   1.996  13.557   6.260  0.6543 -1.0266 -0.5153
28597SOL    HW297771   2.075  13.465   6.352 -0.3254  0.0045  1.4310
28598SOL     OW97772  11.811  10.536   5.269 -0.0389 -0.0075 -0.0554
28598SOL    HW197773  11.738  10.482   5.297 -0.0132 -0.8026 -1.4292
28598SOL    HW297774  11.772  10.621   5.248 -0.8402 -0.8200 -2.0619
28599SOL     OW97775  11.483   1.233   7.834  0.7591 -0.5568 -0.5312
28599SOL    HW197776  11.425   1.265   7.904  1.2750 -1.6632  0.4363
28599SOL    HW297777  11.537   1.309   7.811  2.0937 -0.6882  1.8519
28600SOL     OW97778  13.108   6.673   4.865 -0.1064 -0.1367 -0.3004
28600SOL    HW197779  13.145   6.652   4.951 -1.8135 -0.3765  0.4000
28600SOL    HW297780  13.138   6.602   4.808  0.4215 -0.3725  0.2546
28601SOL     OW97781   7.908  13.880   8.894 -0.9503 -0.6723  0.5553
28601SOL    HW197782   7.840  13.813   8.895 -0.0824 -1.7125 -1.8911
28601SOL    HW297783   7.986  13.836   8.860  0.6971  0.7407  2.2479
28602SOL     OW97784   4.253   7.153  12.217 -0.2843 -0.0260  0.7953
28602SOL    HW197785   4.293   7.229  12.174 -1.1105  0.6764  1.2421
28602SOL    HW297786   4.319   7.126  12.281  0.7657 -0.8076 -0.5537
28603SOL     OW97787  12.632  12.103  11.266  0.5688 -0.6204  0.6712
28603SOL    HW197788  12.566  12.170  11.283 -0.7198 -0.5010 -3.5259
28603SOL    HW297789  12.716  12.149  11.273 -0.2262  1.1824 -0.7692
28604SOL     OW97790  11.211   7.888  11.241  0.1128  0.1808  0.5069
28604SOL    HW197791  11.225   7.796  11.220  0.7668  0.5598 -0.8001
28604SOL    HW297792  11.116   7.898  11.243  0.0118 -0.1082 -1.3963
28605SOL     OW97793   6.574   8.252   8.826 -0.2442 -0.0970 -0.1531
28605SOL    HW197794   6.651   8.244   8.882 -0.2505  2.6354  0.3977
28605SOL    HW297795   6.600   8.313   8.758 -1.3291 -0.6731 -1.1212
28606SOL     OW97796   7.807  11.163   5.093 -0.5055  0.2944  0.5832
28606SOL    HW197797   7.797  11.189   5.001 -0.7737  0.7457  0.7370
28606SOL    HW297798   7.773  11.237   5.142  2.8359  1.6273  1.1590
28607SOL     OW97799   6.295  12.222   6.443 -0.7450  0.0158 -0.1855
28607SOL    HW197800   6.273  12.239   6.351 -0.5037  1.1815 -0.0395
28607SOL    HW297801   6.227  12.161   6.473 -0.6502 -0.6257 -1.2085
28608SOL     OW97802   2.108   1.716   6.542 -0.0355  0.0665  0.0232
28608SOL    HW197803   2.155   1.784   6.591 -0.1753 -0.7076  1.2780
28608SOL    HW297804   2.155   1.635   6.562  1.3705 -0.0137 -3.0413
28609SOL     OW97805   5.646   0.225   6.279  0.0414  0.2425  0.6001
28609SOL    HW197806   5.551   0.226   6.267  0.2190  2.5500 -1.5161
28609SOL    HW297807   5.662   0.293   6.344  0.3168  1.2869 -0.5212
28610SOL     OW97808   3.060   4.848   1.008 -1.1051 -0.4245 -0.3730
28610SOL    HW197809   3.041   4.765   0.964 -0.8503  0.2303 -1.7669
28610SOL    HW297810   2.979   4.898   1.000 -1.2588 -0.5148  0.4682
28611SOL     OW97811   7.077   5.333   4.288  0.3593 -0.2164  0.1063
28611SOL    HW197812   7.150   5.279   4.261 -0.4500 -0.6372 -1.3141
28611SOL    HW297813   7.001   5.297   4.242 -0.3919  1.4426 -0.0348
28612SOL     OW97814   2.575   1.369  13.477  0.4340 -0.5180 -0.3554
28612SOL    HW197815   2.552   1.382  13.570 -0.7088  1.0138 -0.8046
28612SOL    HW297816   2.647   1.307  13.479  1.2910  0.4209  1.6554
28613SOL     OW97817   0.188  12.243   3.694  0.5572  0.3589  0.4464
28613SOL    HW197818   0.186  12.302   3.770  4.0974  0.7022  0.4448
28613SOL    HW297819   0.270  12.263   3.650  0.1034 -2.0223 -1.7410
28614SOL     OW97820  11.174   7.956   8.074 -0.8777 -0.0658  0.2146
28614SOL    HW197821  11.202   8.047   8.071 -0.1093 -0.3176 -0.8981
28614SOL    HW297822  11.140   7.938   7.986 -0.2090 -1.0874  0.1446
28615SOL     OW97823   9.654  13.037  12.981  0.3281  0.3739 -0.2779
28615SOL    HW197824   9.563  13.009  12.969  0.5303  0.1013 -1.3489
28615SOL    HW297825   9.704  12.956  12.971  0.6705  0.4651  0.6746
28616SOL     OW97826  11.800   7.264   5.323  0.1304 -0.5771  0.5556
28616SOL    HW197827  11.817   7.202   5.252  0.2584 -1.6447  1.4888
28616SOL    HW297828  11.731   7.321   5.289  1.2124 -0.0958 -0.9789
28617SOL     OW97829  11.291  13.399  12.999 -0.2975 -0.3918  0.0194
28617SOL    HW197830  11.355  13.469  13.008  0.6256 -1.0751 -0.9896
28617SOL    HW297831  11.333  13.335  12.942 -0.6349 -2.3406  1.8454
28618SOL     OW97832   0.742   8.578   7.936 -0.0855 -0.0213  0.2618
28618SOL    HW197833   0.694   8.505   7.975  0.1432 -1.1809 -1.5030
28618SOL    HW297834   0.676   8.645   7.920 -0.5592 -0.3973  0.6126
28619SOL     OW97835  10.466   4.011  13.637  0.7001 -0.1942 -0.7821
28619SOL    HW197836  10.438   4.052  13.555  2.6894  2.0435 -0.4529
28619SOL    HW297837  10.455   4.080  13.703  0.2237 -1.5748  0.6375
28620SOL     OW97838   6.997   0.859   1.965  0.0672 -0.0823 -0.2186
28620SOL    HW197839   6.952   0.855   1.881 -0.4969  0.0475  0.0746
28620SOL    HW297840   6.929   0.844   2.031  0.5245 -0.3254  0.2145
28621SOL     OW97841   9.845   2.354  10.012 -0.6650 -0.3843 -0.4741
28621SOL    HW197842   9.896   2.327  10.088 -0.7970 -2.4594 -1.0561
28621SOL    HW297843   9.838   2.449  10.020 -0.2261 -0.4873  1.8041
28622SOL     OW97844   2.148  11.468   1.069  0.0954  0.0398 -0.1830
28622SOL    HW197845   2.142  11.562   1.083 -0.3125  0.4059 -2.3460
28622SOL    HW297846   2.218  11.458   1.004 -1.3977 -0.8541 -1.7698
28623SOL     OW97847   2.771  13.697   6.112 -0.0723  0.2825 -0.1854
28623SOL    HW197848   2.692  13.715   6.161 -0.8795 -1.4805 -0.7769
28623SOL    HW297849   2.840  13.743   6.160 -1.5724  2.9094 -0.3413
28624SOL     OW97850   6.556   2.501   2.260 -0.2191 -0.0051 -0.5950
28624SOL    HW197851   6.564   2.587   2.219  0.6814 -0.8390 -2.2765
28624SOL    HW297852   6.494   2.453   2.204 -0.7845 -0.4344  0.3718
28625SOL     OW97853  11.070  12.178  11.819 -0.6865  0.9243  0.8652
28625SOL    HW197854  11.047  12.090  11.847  0.3390  0.5247  0.5067
28625SOL    HW297855  11.139  12.205  11.880  0.6304  0.5633 -0.4012
28626SOL     OW97856  10.287   3.849  13.064 -0.2341  0.2660 -0.1902
28626SOL    HW197857  10.252   3.790  13.131  1.5243 -0.4413  0.1740
28626SOL    HW297858  10.358   3.895  13.107  2.0343 -1.3828 -1.9077
28627SOL     OW97859  12.815   2.908   8.252  0.6697  0.7523 -0.1649
28627SOL    HW197860  12.903   2.875   8.270  1.4031  2.2647 -0.8790
28627SOL    HW297861  12.773   2.839   8.201  1.2637 -0.1857  0.5901
28628SOL     OW97862   9.252  10.063   2.611  0.4099  0.2193 -0.3711
28628SOL    HW197863   9.346  10.051   2.596  0.5410  0.2534  0.3720
28628SOL    HW297864   9.221  10.110   2.533  1.0137  0.2360 -0.6085
28629SOL     OW97865   9.165  13.041   3.140  0.3366  0.4772  0.3029
28629SOL    HW197866   9.104  13.115   3.144 -0.0403  0.3413 -1.9837
28629SOL    HW297867   9.128  12.977   3.201  0.1554  1.7756  1.6124
28630SOL     OW97868  10.706   5.981   4.370 -0.6580  0.5455  0.4445
28630SOL    HW197869  10.749   5.910   4.419  0.9584 -0.1016 -1.7560
28630SOL    HW297870  10.626   5.941   4.335  1.0719 -0.8964 -2.2275
28631SOL     OW97871   5.095  13.299   5.756 -0.1725 -0.5617  0.1894
28631SOL    HW197872   5.048  13.295   5.839  0.1570  0.8169  0.4708
28631SOL    HW297873   5.109  13.392   5.742  1.8016 -0.8945 -0.2630
28632SOL     OW97874   5.738   1.182   9.804 -0.4746  0.2514  0.0426
28632SOL    HW197875   5.808   1.120   9.825 -0.0283  1.2443  1.6760
28632SOL    HW297876   5.719   1.167   9.712  1.2616 -0.6710 -0.1997
28633SOL     OW97877  10.025   0.806   4.957  0.6827 -0.1264  0.4016
28633SOL    HW197878  10.063   0.742   4.897  1.0618  0.1794  0.3107
28633SOL    HW297879  10.026   0.762   5.042 -0.7563 -0.9357  0.0312
28634SOL     OW97880   9.735  13.225   7.216  0.0096 -0.1234 -0.2717
28634SOL    HW197881   9.781  13.143   7.233 -0.2104 -0.5867 -1.8461
28634SOL    HW297882   9.700  13.250   7.302 -0.7718 -2.1705  0.0554
28635SOL     OW97883   5.882   4.108   5.269 -0.9379 -0.4811 -0.5515
28635SOL    HW197884   5.821   4.124   5.197 -1.7938 -0.2333  0.2115
28635SOL    HW297885   5.964   4.085   5.226 -0.6291  2.3069 -1.7167
28636SOL     OW97886  10.064   0.421  10.964 -0.2033  0.6473 -0.1691
28636SOL    HW197887  10.045   0.378  10.881  1.4056 -0.1685 -0.1592
28636SOL    HW297888  10.017   0.370  11.030 -0.4179  0.4887 -0.4462
28637SOL     OW97889  12.567   4.717   4.722 -0.1917  0.1676  0.0025
28637SOL    HW197890  12.626   4.785   4.690  1.2137 -0.2925  1.5144
28637SOL    HW297891  12.616   4.635   4.713  0.1006 -0.0466  2.7380
28638SOL     OW97892   6.735   5.749   3.889 -0.0531  0.2510 -0.4435
28638SOL    HW197893   6.694   5.817   3.942  0.0971 -0.3152  0.4245
28638SOL    HW297894   6.783   5.695   3.952  2.7063  1.3321 -1.4586
28639SOL     OW97895   8.841   7.263   5.928 -0.0972 -0.5159  0.1064
28639SOL    HW197896   8.759   7.214   5.922  0.1216 -0.7049 -2.8250
28639SOL    HW297897   8.901   7.204   5.976 -0.8004 -1.6992 -0.4249
28640SOL     OW97898   1.619   0.360   5.704 -0.3592 -1.0337  0.7849
28640SOL    HW197899   1.607   0.287   5.764  0.2333 -2.0701 -0.2986
28640SOL    HW297900   1.711   0.355   5.678 -0.1918  0.3792  1.0183
28641SOL     OW97901  13.934   4.347   9.934 -1.0629 -0.3723  0.0031
28641SOL    HW197902  13.976   4.261   9.945  0.8591  0.0787 -2.8297
28641SOL    HW297903  13.967   4.399  10.007 -2.0833 -1.9206  1.6389
28642SOL     OW97904   6.989  10.881  12.895 -0.2939 -0.2678 -0.0673
28642SOL    HW197905   6.924  10.941  12.931 -0.5086  0.0746 -1.0014
28642SOL    HW297906   7.050  10.938  12.847  0.7475 -0.5740  0.8619
28643SOL     OW97907   0.299   5.540  11.064 -0.3745 -0.2029 -0.4283
28643SOL    HW197908   0.335   5.620  11.103 -0.8603  0.1243 -0.6478
28643SOL    HW297909   0.310   5.553  10.969 -0.7183 -0.2717 -0.4773
28644SOL     OW97910  10.958   2.696   0.751 -0.4126 -0.0384  0.6836
28644SOL    HW197911  11.001   2.753   0.814 -3.2102  0.9533  1.8607
28644SOL    HW297912  10.948   2.750   0.672 -0.4857  0.1104  0.7950
28645SOL     OW97913   3.175   9.620  11.134 -0.4957  0.2813 -0.0957
28645SOL    HW197914   3.236   9.561  11.178  1.0349  2.4966  0.9363
28645SOL    HW297915   3.089   9.587  11.159  0.2677 -1.6365  0.2072
28646SOL     OW97916  12.773   1.538  12.597  0.0173  0.1638 -0.1817
28646SOL    HW197917  12.749   1.531  12.504 -1.4770 -1.2306  0.2788
28646SOL    HW297918  12.864   1.507  12.601 -0.3589 -1.0990 -0.9893
28647SOL     OW97919   3.509   4.607   6.782 -0.3679 -0.0504  0.6898
28647SOL    HW197920   3.575   4.603   6.851  0.5149 -0.7264 -0.1587
28647SOL    HW297921   3.441   4.545   6.810  0.5918 -1.2961  0.3708
28648SOL     OW97922   5.288  12.417   0.286  0.0164  0.3572  0.2888
28648SOL    HW197923   5.315  12.404   0.377  0.7122  0.6492  0.1348
28648SOL    HW297924   5.309  12.508   0.268 -1.5146  0.7334  0.2820
28649SOL     OW97925  10.263   9.497  10.664 -0.0083 -0.0960  0.0264
28649SOL    HW197926  10.359   9.493  10.670  0.1560  2.9657  1.8435
28649SOL    HW297927  10.233   9.472  10.752 -0.6845  1.0175  0.1368
28650SOL     OW97928   0.121   2.196   4.834 -0.1297 -0.5644 -0.2009
28650SOL    HW197929   0.049   2.188   4.771 -1.0998 -0.2484  0.8253
28650SOL    HW297930   0.189   2.139   4.800 -0.9816 -1.1105 -1.0486
28651SOL     OW97931   3.624   8.842   9.940  0.6388  0.6488  0.5271
28651SOL    HW197932   3.700   8.871   9.990  1.8951 -1.7506  0.1690
28651SOL    HW297933   3.625   8.896   9.861  3.0591 -0.4065 -0.2703
28652SOL     OW97934   1.084  11.155  13.707 -0.3814 -0.2263  0.0006
28652SOL    HW197935   1.076  11.212  13.783  0.0012  0.7295 -0.6574
28652SOL    HW297936   1.112  11.071  13.742  1.9143  0.7791  0.7387
28653SOL     OW97937   5.583   2.191   1.507  0.1730 -0.1388 -0.7469
28653SOL    HW197938   5.649   2.139   1.461  0.1644 -0.4285 -0.4321
28653SOL    HW297939   5.563   2.263   1.446  1.3954  0.4344 -0.5080
28654SOL     OW97940   9.961  13.423   0.995  0.2930 -0.2375 -0.2995
28654SOL    HW197941   9.897  13.404   1.063  1.6773  0.0306  1.1517
28654SOL    HW297942   9.967  13.519   0.994  2.0521 -0.2713  1.0269
28655SOL     OW97943   8.346   3.602   4.969 -0.2874  0.2788 -0.8771
28655SOL    HW197944   8.422   3.634   4.920  0.3493  1.2386  0.6790
28655SOL    HW297945   8.382   3.567   5.050 -1.3938 -0.5456 -0.7175
28656SOL     OW97946  11.035   3.882  11.682 -0.2221  0.3791 -0.7472
28656SOL    HW197947  10.960   3.934  11.708 -0.1310  0.2892 -0.2985
28656SOL    HW297948  11.008   3.842  11.599 -0.3461  1.0141 -1.0178
28657SOL     OW97949   1.121  11.039   4.172 -0.1697 -0.2288 -0.4837
28657SOL    HW197950   1.134  11.119   4.121 -0.5321  0.4144  0.4014
28657SOL    HW297951   1.049  10.993   4.128 -2.6749  1.8537  1.1744
28658SOL     OW97952   4.496   0.769  12.930  0.3708  0.0617 -0.3404
28658SOL    HW197953   4.570   0.734  12.880  0.5866 -1.4462  0.9633
28658SOL    HW297954   4.429   0.788  12.864  1.8396  1.3383 -1.5242
28659SOL     OW97955   3.777  13.202  13.665  0.0632 -0.1334 -0.1961
28659SOL    HW197956   3.758  13.110  13.651 -0.6061  0.0265 -0.3917
28659SOL    HW297957   3.852  13.203  13.725 -0.2325 -0.7949  0.1894
28660SOL     OW97958   8.684   7.079   5.247 -0.3823 -0.3639  0.3691
28660SOL    HW197959   8.691   7.089   5.153  1.2158  0.9272  0.5829
28660SOL    HW297960   8.602   7.030   5.260  0.0253 -1.7099 -1.7067
28661SOL     OW97961   4.461   3.701   1.187 -0.0393  0.5019 -0.0917
28661SOL    HW197962   4.374   3.737   1.208  0.6705  1.0651  2.0742
28661SOL    HW297963   4.458   3.687   1.092 -1.9256  2.0634 -0.3338
28662SOL     OW97964   0.671   1.864   3.868 -0.6269 -0.0012 -0.1626
28662SOL    HW197965   0.761   1.831   3.869 -0.0409  1.4642  1.8687
28662SOL    HW297966   0.617   1.788   3.888  0.4791 -0.2963  2.0253
28663SOL     OW97967  13.284   1.040  12.492  0.4989  0.0111 -0.1661
28663SOL    HW197968  13.234   1.098  12.434  0.5290  0.2029 -0.0009
28663SOL    HW297969  13.359   1.093  12.518 -0.7346  0.8032  1.9804
28664SOL     OW97970   9.422   8.165   1.788 -0.8370  0.3019 -0.2531
28664SOL    HW197971   9.509   8.138   1.817 -0.7156 -1.5612 -2.1123
28664SOL    HW297972   9.369   8.166   1.868  0.0825 -2.0163  0.4633
28665SOL     OW97973   6.023   0.112  12.061 -0.0475 -0.1810 -0.0622
28665SOL    HW197974   5.971   0.187  12.030 -1.0241 -1.3509 -1.3781
28665SOL    HW297975   5.959   0.042  12.073  1.0892 -1.3842 -0.7956
28666SOL     OW97976  10.090   8.670  12.665  0.2718  0.1302 -0.5871
28666SOL    HW197977  10.142   8.743  12.697  1.6079 -0.5176 -1.2010
28666SOL    HW297978  10.018   8.662  12.727  1.0219  0.9263  0.4005
28667SOL     OW97979  10.824   1.091   7.291 -0.4011 -0.3004 -0.5147
28667SOL    HW197980  10.840   0.999   7.313 -0.4484 -0.3034 -0.4914
28667SOL    HW297981  10.885   1.110   7.220  1.0732  0.2361  0.8599
28668SOL     OW97982   5.340   5.184  12.267  0.0980 -0.3794  0.4256
28668SOL    HW197983   5.311   5.168  12.177 -0.6737 -1.1408  0.7988
28668SOL    HW297984   5.415   5.126  12.278 -0.5686 -1.1970  0.6681
28669SOL     OW97985   6.109   6.213   6.417 -0.2706  0.0132 -0.5525
28669SOL    HW197986   6.065   6.294   6.443 -3.0917 -1.6415  0.1944
28669SOL    HW297987   6.060   6.183   6.340  0.4116 -1.2561 -0.5180
28670SOL     OW97988   4.026   5.328   2.300 -0.0222  0.2271 -0.2205
28670SOL    HW197989   4.048   5.266   2.369  1.4119  1.4257  0.4346
28670SOL    HW297990   4.029   5.276   2.220 -0.5117 -0.9052  0.4595
28671SOL     OW97991   4.538   3.786   2.071 -0.8183 -0.1072 -0.3113
28671SOL    HW197992   4.503   3.741   1.994  0.0447 -0.0424 -0.7600
28671SOL    HW297993   4.605   3.726   2.105 -0.3957  0.3676 -0.2909
28672SOL     OW97994  10.583  12.559   7.941  0.2216  0.6680  0.6554
28672SOL    HW197995  10.509  12.530   7.995 -0.5394  1.0004 -0.1651
28672SOL    HW297996  10.602  12.648   7.972 -0.7606  1.1825 -0.1299
28673SOL     OW97997  13.986   6.008   2.687 -0.2810  0.1782 -0.0950
28673SOL    HW197998  13.895   6.038   2.694 -0.3761  0.7020 -2.4984
28673SOL    HW297999  14.013   5.993   2.777 -2.8685 -0.3851  0.6972
28674SOL     OW98000  13.711  11.378   3.601  0.0915  0.5116 -0.7084
28674SOL    HW198001  13.680  11.288   3.608  0.8566  0.2738 -0.2202
28674SOL    HW298002  13.678  11.409   3.517 -1.5418  0.3223 -0.1650
28675SOL     OW98003  10.823   9.235   0.450  0.5801  0.2369 -0.3756
28675SOL    HW198004  10.731   9.217   0.466  0.5383  1.1359  0.4871
28675SOL    HW298005  10.842   9.192   0.366 -0.4717 -0.4146 -0.2920
28676SOL     OW98006   3.158   1.959   8.356 -0.5839  0.3928 -0.1102
28676SOL    HW198007   3.112   1.890   8.404  2.4091 -1.4341  0.3948
28676SOL    HW298008   3.221   1.993   8.419 -1.0387  2.6902 -0.8065
28677SOL     OW98009  10.403   4.476   8.639  0.0782  0.4470 -0.2993
28677SOL    HW198010  10.420   4.541   8.570  1.0062  0.3865 -0.1408
28677SOL    HW298011  10.352   4.524   8.704 -1.2618  0.3646 -1.2517
28678SOL     OW98012   3.200   5.135  13.866  0.5004 -0.6800 -0.5820
28678SOL    HW198013   3.183   5.055  13.816 -0.7014 -1.8820  1.5930
28678SOL    HW298014   3.180   5.205  13.804 -2.3327 -2.0750 -1.4749
28679SOL     OW98015  13.338   6.892  13.614 -0.1554  0.4525 -0.2360
28679SOL    HW198016  13.411   6.869  13.556  0.3625  0.0428  0.5477
28679SOL    HW298017  13.303   6.974  13.579 -0.0640  0.0515 -1.3027
28680SOL     OW98018   1.427  10.390   4.090  0.5907 -0.3310  0.9205
28680SOL    HW198019   1.502  10.350   4.046  0.0062  0.8856 -1.3008
28680SOL    HW298020   1.446  10.484   4.091 -0.9198  0.0273  0.1617
28681SOL     OW98021   0.477   1.626   9.039  0.1940  0.2283 -1.0044
28681SOL    HW198022   0.539   1.553   9.041  0.3178  0.2520 -2.5904
28681SOL    HW298023   0.395   1.587   9.009  0.1402  0.6515 -1.4141
28682SOL     OW98024   9.392  11.082  13.978 -0.0427 -0.5522  0.1568
28682SOL    HW198025   9.417  11.008  14.034 -0.9850 -1.3574 -0.4349
28682SOL    HW298026   9.417  11.160  14.027 -0.9281 -1.2305  1.7457
28683SOL     OW98027  12.780   2.667   1.301 -0.6455  0.3358 -0.1931
28683SOL    HW198028  12.770   2.587   1.354 -2.6644  0.5480 -0.1780
28683SOL    HW298029  12.830   2.638   1.225  1.3234 -0.2321  1.2446
28684SOL     OW98030   4.823   7.467   4.837  0.3767 -0.3343  0.3843
28684SOL    HW198031   4.780   7.552   4.835 -0.2611 -0.6607 -0.1605
28684SOL    HW298032   4.837   7.449   4.930  0.2285  0.2147  0.5170
28685SOL     OW98033   8.124   0.359   3.338 -0.4795  0.3408 -0.1960
28685SOL    HW198034   8.194   0.298   3.316 -0.7128  0.6044 -1.7928
28685SOL    HW298035   8.151   0.442   3.300 -1.7315  0.3876 -1.0707
28686SOL     OW98036   2.519   6.676   5.733  0.5777 -0.4918  0.4329
28686SOL    HW198037   2.441   6.646   5.779  1.5676 -1.5923  1.4510
28686SOL    HW298038   2.485   6.736   5.666 -1.3793 -2.6526 -0.6790
28687SOL     OW98039   1.215   8.734   9.980 -0.4079 -0.2017  0.0340
28687SOL    HW198040   1.241   8.815   9.937  1.1463  0.8295  2.7093
28687SOL    HW298041   1.131   8.755  10.022  0.4526  0.4013  1.5273
28688SOL     OW98042  10.740   0.589   3.758 -0.0025 -0.0462  0.0444
28688SOL    HW198043  10.737   0.520   3.824  0.9005 -0.3387 -0.2119
28688SOL    HW298044  10.829   0.586   3.724  0.4355  2.0037  0.8504
28689SOL     OW98045   6.813   3.308   0.809  0.4600 -0.5575 -0.6857
28689SOL    HW198046   6.791   3.376   0.872  0.1587 -3.3560  2.5018
28689SOL    HW298047   6.835   3.356   0.729  0.2835  3.2153  1.2947
28690SOL     OW98048  12.916  12.884  12.116  0.2930 -0.5365  0.1060
28690SOL    HW198049  12.849  12.881  12.184 -0.2305 -1.4767 -0.4462
28690SOL    HW298050  12.988  12.831  12.150  1.4190  1.6257  1.3419
28691SOL     OW98051   0.532   9.945  13.630  0.1072  0.3530  0.5332
28691SOL    HW198052   0.542  10.009  13.701  0.2263  1.5367 -0.5074
28691SOL    HW298053   0.470   9.881  13.665 -0.1975  1.1568  1.5431
28692SOL     OW98054   8.910  12.817   1.432 -0.3822 -0.2290  0.5853
28692SOL    HW198055   8.916  12.731   1.472 -1.6810 -0.8063 -0.3739
28692SOL    HW298056   8.947  12.806   1.344 -0.1974  0.2875  0.5932
28693SOL     OW98057   7.508   0.928   4.427  0.2314 -0.2246 -0.2987
28693SOL    HW198058   7.420   0.954   4.454 -0.8830 -2.2145 -1.8037
28693SOL    HW298059   7.561   1.008   4.439 -1.9778  1.3267 -0.3717
28694SOL     OW98060   5.992  12.477  11.352 -0.1562  0.3203 -0.5381
28694SOL    HW198061   5.912  12.524  11.328 -0.4179  1.0338  1.5056
28694SOL    HW298062   6.036  12.536  11.414  1.0146 -0.8647 -0.2095
28695SOL     OW98063  13.602   5.284  12.011  0.3848  0.2469  0.1634
28695SOL    HW198064  13.573   5.194  11.997  0.3220  0.5161 -1.7625
28695SOL    HW298065  13.692   5.276  12.042  0.5888 -0.4775 -0.5888
28696SOL     OW98066   1.769  11.762   1.238 -0.5457  0.4061 -0.0237
28696SOL    HW198067   1.795  11.701   1.307  1.0016 -0.3640 -1.2285
28696SOL    HW298068   1.830  11.835   1.246 -1.0554  0.8252  0.0895
28697SOL     OW98069   0.039   6.086   5.113 -0.2972 -0.2831 -0.0825
28697SOL    HW198070  -0.002   6.159   5.067  2.8603  0.2909 -2.3412
28697SOL    HW298071   0.075   6.125   5.192 -0.2352  0.1955 -0.3415
28698SOL     OW98072   9.986  11.536  10.336 -0.0438 -0.5103 -0.4980
28698SOL    HW198073  10.077  11.525  10.361  0.3828  2.2414 -0.4820
28698SOL    HW298074   9.985  11.526  10.241  0.7435  1.6190 -0.7762
28699SOL     OW98075   9.456   8.184  12.044 -0.7221 -0.6793 -0.5613
28699SOL    HW198076   9.506   8.172  12.125 -0.3958  0.1860 -0.6256
28699SOL    HW298077   9.520   8.213  11.980 -1.3834  1.0204 -0.4921
28700SOL     OW98078   6.212   8.602   1.742 -0.2990 -0.5589 -0.1857
28700SOL    HW198079   6.170   8.554   1.671 -0.5741 -0.5214 -0.0464
28700SOL    HW298080   6.224   8.538   1.811  0.4635 -0.7305 -0.4640
28701SOL     OW98081   2.527   3.749  13.879 -0.2118 -0.5873 -0.3550
28701SOL    HW198082   2.439   3.749  13.840 -1.0299 -1.9328  1.4033
28701SOL    HW298083   2.544   3.658  13.900  1.5443 -0.3079 -0.4524
28702SOL     OW98084   6.202  10.849   3.339  0.2427  0.9533  0.4653
28702SOL    HW198085   6.249  10.931   3.354  1.6712  0.3872 -0.6994
28702SOL    HW298086   6.271  10.782   3.335 -0.7199 -0.0122 -0.6372
28703SOL     OW98087   4.118  12.264   2.156 -0.5946  0.2985  0.5355
28703SOL    HW198088   4.049  12.254   2.090 -1.6592 -0.1914  1.6968
28703SOL    HW298089   4.148  12.355   2.145 -1.3083  0.4693 -0.0854
28704SOL     OW98090   6.301   3.760   0.850 -0.0417 -0.1335 -0.8333
28704SOL    HW198091   6.241   3.687   0.863 -0.4860  0.2507 -0.6702
28704SOL    HW298092   6.387   3.720   0.842 -0.3755 -0.7354 -1.5687
28705SOL     OW98093  11.056  10.344   2.521 -0.2973  0.4239  0.7321
28705SOL    HW198094  10.976  10.315   2.565 -0.5687 -1.0110 -0.5843
28705SOL    HW298095  11.065  10.436   2.545 -1.7513  0.3386  1.7668
28706SOL     OW98096  10.919   8.660  10.225 -0.0732 -0.1207  0.0174
28706SOL    HW198097  11.002   8.623  10.253  2.4905  2.0107 -3.7886
28706SOL    HW298098  10.866   8.584  10.200  0.5905 -1.5281  2.5791
28707SOL     OW98099   4.380  13.356   7.736  0.8204 -0.0021 -0.6842
28707SOL    HW198100   4.366  13.312   7.820  0.3916  2.5745  0.6841
28707SOL    HW298101   4.303  13.332   7.684 -0.5087  0.8109  0.8131
28708SOL     OW98102   2.567   7.250   4.380  0.1025  0.3536 -0.0838
28708SOL    HW198103   2.499   7.218   4.440  0.2696  0.9345  0.4199
28708SOL    HW298104   2.645   7.200   4.404 -0.3767 -1.1291 -1.3975
28709SOL     OW98105  12.010   2.980   4.211 -0.1045 -0.2123 -0.6591
28709SOL    HW198106  12.001   2.951   4.303 -1.5981  0.1994 -0.6429
28709SOL    HW298107  12.050   3.066   4.217  3.9518 -1.8866 -0.6810
28710SOL     OW98108   0.553   5.751  10.171 -0.4848 -0.6201  0.4933
28710SOL    HW198109   0.544   5.667  10.126  0.1934 -0.6303  0.3663
28710SOL    HW298110   0.512   5.814  10.112  0.9879 -0.5268 -0.5024
28711SOL     OW98111   1.105   9.589   2.069  0.0735 -0.3036  0.0448
28711SOL    HW198112   1.151   9.635   2.139  0.6474 -1.4548  0.4642
28711SOL    HW298113   1.056   9.520   2.114 -1.3820  0.3461 -0.4846
28712SOL     OW98114   2.165   0.648   8.411  0.1978 -0.0655 -0.3036
28712SOL    HW198115   2.226   0.695   8.467  0.0005 -1.7742  1.4357
28712SOL    HW298116   2.120   0.716   8.361  1.0295  1.4491  0.9562
28713SOL     OW98117   9.974   4.498   2.425 -0.1097 -0.0765  0.0510
28713SOL    HW198118  10.054   4.463   2.464  0.4349  2.2214  1.2130
28713SOL    HW298119   9.960   4.446   2.346  1.9072 -1.2563  0.4104
28714SOL     OW98120   1.741   8.676   9.990  0.1266  0.4911  0.3538
28714SOL    HW198121   1.688   8.728  10.051 -2.8242 -2.5351  0.6651
28714SOL    HW298122   1.754   8.593  10.036  0.9933 -0.5922 -1.7540
28715SOL     OW98123  11.935  12.558   1.360 -0.0117 -0.7088  0.1838
28715SOL    HW198124  11.847  12.570   1.322 -0.0272 -1.6508 -0.1160
28715SOL    HW298125  11.975  12.491   1.305 -0.0548 -2.1870  1.8632
28716SOL     OW98126  11.788   1.894   1.542  0.4858  0.3405  0.0681
28716SOL    HW198127  11.774   1.980   1.503 -2.3071  0.3666  0.8990
28716SOL    HW298128  11.731   1.835   1.492 -0.4540 -0.2685  1.7574
28717SOL     OW98129   1.678   6.073   8.186  0.6092  0.3843  0.2125
28717SOL    HW198130   1.599   6.106   8.228 -1.0559 -0.5663 -2.0160
28717SOL    HW298131   1.670   5.978   8.190  0.8522  0.2718 -1.3643
28718SOL     OW98132   3.908   3.601   8.095  0.1676  0.1811 -0.2342
28718SOL    HW198133   3.949   3.633   8.175  0.6118 -2.5299  0.7253
28718SOL    HW298134   3.823   3.643   8.092  0.9639  1.9207  0.5214
28719SOL     OW98135   5.234   8.433  13.881 -0.8786 -0.3031  0.3173
28719SOL    HW198136   5.225   8.527  13.867 -0.7274 -0.2852  0.3467
28719SOL    HW298137   5.284   8.402  13.806 -3.2436 -0.7974 -1.1683
28720SOL     OW98138   8.905   0.149   1.903  0.6417  0.3480 -0.1723
28720SOL    HW198139   8.924   0.064   1.941  2.0790  0.3031 -0.9372
28720SOL    HW298140   8.989   0.195   1.902 -0.3627  2.3797  1.6111
28721SOL     OW98141   2.526   2.713   9.137 -0.0548  0.0415  0.0865
28721SOL    HW198142   2.444   2.762   9.133 -0.0945 -0.0827 -0.6650
28721SOL    HW298143   2.586   2.772   9.183 -0.5499  0.1501  0.5983
28722SOL     OW98144   9.887  12.713   2.700  0.4739  0.1469 -0.0138
28722SOL    HW198145   9.924  12.704   2.788 -2.0912  0.1909  1.1525
28722SOL    HW298146   9.809  12.658   2.702 -1.1103  2.2223 -1.3619
28723SOL     OW98147  11.248   3.537   8.684  0.2628  0.0744 -0.2454
28723SOL    HW198148  11.332   3.495   8.665 -0.8232 -1.4314 -2.0320
28723SOL    HW298149  11.266   3.593   8.760  2.9447  0.1014 -0.8106
28724SOL     OW98150   6.804   9.737   6.648  0.0554  0.0824  0.1446
28724SOL    HW198151   6.759   9.654   6.634 -0.1376  0.6493 -3.6337
28724SOL    HW298152   6.873   9.716   6.711 -0.7199 -2.6405  0.2320
28725SOL     OW98153   0.469   6.083   4.811  1.2533 -0.4958 -0.1717
28725SOL    HW198154   0.401   6.149   4.826  1.0400 -0.9769  1.1134
28725SOL    HW298155   0.426   6.014   4.761  1.2902  0.0089 -0.9147
28726SOL     OW98156  11.192   2.224   9.546  0.1842 -0.7638  0.8357
28726SOL    HW198157  11.110   2.265   9.516 -0.5124 -2.4233  0.3478
28726SOL    HW298158  11.163   2.154   9.604  1.2653 -1.2773  0.7768
28727SOL     OW98159   4.506   8.681   5.588 -0.0402 -0.1691  0.3060
28727SOL    HW198160   4.428   8.637   5.624  0.2044 -0.7615  0.1265
28727SOL    HW298161   4.578   8.647   5.641  0.4069 -1.5235 -1.0934
28728SOL     OW98162  11.307   3.048   5.193  0.1313  0.3438  0.3344
28728SOL    HW198163  11.330   3.027   5.283 -1.2081 -1.4443  0.3257
28728SOL    HW298164  11.273   2.966   5.157  0.2779  1.1027 -1.6919
28729SOL     OW98165   8.331   3.001   1.904 -0.2777  0.0110 -0.4119
28729SOL    HW198166   8.250   2.985   1.951  0.6343 -0.8241  0.9222
28729SOL    HW298167   8.338   2.927   1.842 -0.5701  0.1388 -0.6004
28730SOL     OW98168  10.601   3.730   4.999  0.2204 -0.8739  0.2811
28730SOL    HW198169  10.578   3.645   5.037  1.5094 -1.2464  0.2613
28730SOL    HW298170  10.571   3.794   5.064 -0.5106 -1.3366  0.4199
28731SOL     OW98171   5.560  10.840   6.960  0.7549 -0.9532 -0.7000
28731SOL    HW198172   5.518  10.926   6.964  0.3500 -1.1761  0.0134
28731SOL    HW298173   5.503  10.788   6.904  0.8173 -0.8560 -0.8537
28732SOL     OW98174   3.925  12.412   5.762  0.5857 -0.0935  0.1569
28732SOL    HW198175   3.958  12.335   5.716  0.2119  0.2487 -0.7172
28732SOL    HW298176   3.880  12.463   5.694 -1.6106 -0.4501  1.2533
28733SOL     OW98177   0.948  11.153   6.252  0.4085  0.0247  0.0567
28733SOL    HW198178   0.871  11.122   6.301  1.0192 -2.5699 -0.4922
28733SOL    HW298179   0.966  11.239   6.289 -0.8006 -0.6741  2.4975
28734SOL     OW98180   2.866   1.186  13.274  0.0238  0.2645 -0.2811
28734SOL    HW198181   2.931   1.122  13.246 -0.7277 -0.5289 -0.2425
28734SOL    HW298182   2.880   1.195  13.368 -1.0434 -1.2615  0.0752
28735SOL     OW98183  13.671   3.741   5.207  0.5161 -0.5902  0.3692
28735SOL    HW198184  13.719   3.821   5.185 -2.5450  1.0793 -0.7914
28735SOL    HW298185  13.654   3.748   5.301  0.7760 -0.1865  0.3887
28736SOL     OW98186   1.477  10.744   9.383  0.3473  0.4184 -0.4086
28736SOL    HW198187   1.464  10.829   9.341 -2.7607 -0.9267 -2.5148
28736SOL    HW298188   1.456  10.759   9.476  0.3295  2.0140 -0.6461
28737SOL     OW98189   7.489   7.329   8.138  0.2664  0.0501 -0.5946
28737SOL    HW198190   7.582   7.323   8.163 -0.7336  0.2683  3.9402
28737SOL    HW298191   7.476   7.422   8.118  0.8380  0.1556 -0.4956
28738SOL     OW98192   1.646   6.546  11.416  0.1474 -0.6062 -0.1048
28738SOL    HW198193   1.640   6.543  11.320  0.0575 -1.5563 -0.0799
28738SOL    HW298194   1.728   6.502  11.436 -0.2037 -1.0857  0.2911
28739SOL     OW98195   4.949   0.353   4.676 -0.2618 -0.4249  0.4321
28739SOL    HW198196   4.871   0.355   4.620 -0.6852 -0.9071  0.9940
28739SOL    HW298197   4.915   0.362   4.765  0.2582 -1.3373  0.7418
28740SOL     OW98198  11.458   8.998   3.179 -0.1064 -0.2896 -0.4296
28740SOL    HW198199  11.378   8.979   3.131 -2.2295  1.2800  2.1616
28740SOL    HW298200  11.523   9.014   3.112 -1.8028 -2.1320 -2.6619
28741SOL     OW98201   1.139   3.434  11.619  0.0674 -0.3439 -0.2695
28741SOL    HW198202   1.103   3.346  11.606  1.1752 -0.6060 -1.8825
28741SOL    HW298203   1.132   3.476  11.533 -0.7220  1.2902  0.5419
28742SOL     OW98204  12.434   7.574   3.624  0.0535 -0.4116 -0.1142
28742SOL    HW198205  12.453   7.664   3.650  1.5380 -0.4007 -1.0841
28742SOL    HW298206  12.465   7.521   3.697 -1.7304 -0.1344  0.9005
28743SOL     OW98207   7.962   4.330  10.734 -0.1111 -0.3105  0.1663
28743SOL    HW198208   7.929   4.337  10.824  1.7857 -0.6615  0.9449
28743SOL    HW298209   8.045   4.378  10.735  0.2791 -0.9102 -1.2085
28744SOL     OW98210   4.360  11.466  11.197  0.2787  0.6515 -0.4636
28744SOL    HW198211   4.383  11.484  11.106  2.0795  0.7680 -0.0292
28744SOL    HW298212   4.440  11.430  11.235 -0.0791  1.6588  1.3643
28745SOL     OW98213  12.851  10.731  10.372 -0.4092 -0.1309  0.1335
28745SOL    HW198214  12.895  10.708  10.290 -0.7883 -0.7786  0.0983
28745SOL    HW298215  12.758  10.716  10.354 -0.5685  0.4434  0.4566
28746SOL     OW98216   1.848  13.493  10.618 -0.3085  0.4371 -0.1432
28746SOL    HW198217   1.837  13.478  10.525 -0.5378 -1.6169  0.1788
28746SOL    HW298218   1.799  13.573  10.636 -1.4715  0.0609 -1.5256
28747SOL     OW98219   0.534   2.754  11.077  0.3858  0.0448  0.3021
28747SOL    HW198220   0.480   2.815  11.127  1.5626  0.2354  1.3925
28747SOL    HW298221   0.604   2.808  11.040  0.5750 -0.3976  0.0011
28748SOL     OW98222   6.312   4.964   4.434  0.0520  0.3742  0.4256
28748SOL    HW198223   6.400   4.928   4.421 -0.6838 -0.9714 -1.2504
28748SOL    HW298224   6.254   4.888   4.423 -1.3486  1.3615  0.8231
28749SOL     OW98225   3.472   5.588   9.935  0.5915  0.8606 -0.5940
28749SOL    HW198226   3.531   5.575   9.860  2.2070 -2.9315  1.0806
28749SOL    HW298227   3.411   5.515   9.931 -0.1183  1.3117  1.0535
28750SOL     OW98228   7.311   1.382   1.136  0.0259  0.2364 -0.0751
28750SOL    HW198229   7.313   1.472   1.169  0.3750 -0.6001  2.4676
28750SOL    HW298230   7.310   1.329   1.215 -0.0389 -2.0142 -1.5181
28751SOL     OW98231   7.018   8.591   6.263  0.4476 -0.1476 -0.2049
28751SOL    HW198232   7.107   8.557   6.274  1.6362  2.1817 -1.9063
28751SOL    HW298233   6.977   8.528   6.204  0.0346 -2.5538  2.3733
28752SOL     OW98234   2.557   8.112   5.920  0.5296 -0.0058 -0.2159
28752SOL    HW198235   2.527   8.033   5.876 -0.0242 -0.0417  0.2266
28752SOL    HW298236   2.532   8.184   5.861 -1.2017  0.0378  0.5337
28753SOL     OW98237   6.756   8.520  12.009  0.3256  0.1800 -0.5239
28753SOL    HW198238   6.729   8.445  12.063  0.5128  0.2580 -0.3197
28753SOL    HW298239   6.771   8.591  12.072  0.8621  0.1800 -0.6488
28754SOL     OW98240  10.927  11.127   1.635  0.0632 -0.5455  0.3294
28754SOL    HW198241  11.019  11.140   1.615 -0.1557  0.5987  0.0136
28754SOL    HW298242  10.923  11.040   1.676  1.2833 -0.5611  0.4353
28755SOL     OW98243   3.444  12.386   6.326  0.3822 -0.0411 -0.2309
28755SOL    HW198244   3.438  12.305   6.275 -0.6666  0.8846 -1.6457
28755SOL    HW298245   3.383  12.446   6.284 -0.4227  0.8473  2.0199
28756SOL     OW98246   0.061   4.871  10.971  0.5261 -0.8093  0.3921
28756SOL    HW198247   0.070   4.803  11.037  1.4410 -0.2194  0.8893
28756SOL    HW298248  -0.034   4.877  10.955  0.4803 -3.3785 -0.9241
28757SOL     OW98249   9.205  13.783  11.049  0.6077  0.2155 -0.4672
28757SOL    HW198250   9.213  13.716  11.118  1.2702 -0.2972 -1.0346
28757SOL    HW298251   9.295  13.805  11.026  0.4364 -0.9324 -2.4310
28758SOL     OW98252  13.203   4.692  11.168 -0.7739 -0.4242  0.1277
28758SOL    HW198253  13.272   4.727  11.112  0.4966  0.1690  1.9613
28758SOL    HW298254  13.128   4.748  11.152 -0.6284 -0.6010 -1.3347
28759SOL     OW98255   6.074   0.048   8.325  0.0444  0.4291  0.2371
28759SOL    HW198256   6.019   0.072   8.251 -2.6005  1.0603  2.2628
28759SOL    HW298257   6.084  -0.047   8.318 -0.2895  0.4576 -0.8157
28760SOL     OW98258   0.878   1.774  11.421  0.5732 -0.3965  0.1346
28760SOL    HW198259   0.942   1.735  11.362 -0.1260 -1.2861 -0.0669
28760SOL    HW298260   0.913   1.756  11.508  1.0668 -0.0412  0.0129
28761SOL     OW98261  10.126   7.104  12.721  0.2638  0.7576 -0.4766
28761SOL    HW198262  10.095   7.194  12.706  0.7524  0.7010 -1.9510
28761SOL    HW298263  10.046   7.051  12.724 -0.0298  1.2359  0.4333
28762SOL     OW98264   4.310   5.513  12.919  0.1171  0.0731 -0.8372
28762SOL    HW198265   4.372   5.586  12.913  0.6277 -0.2421  0.2570
28762SOL    HW298266   4.365   5.437  12.937 -0.5973 -0.1354  0.6699
28763SOL     OW98267   7.774   1.705   1.415 -0.3954  0.1410 -0.2255
28763SOL    HW198268   7.678   1.713   1.415 -0.4575 -0.3983  0.7472
28763SOL    HW298269   7.803   1.768   1.481  0.0276  1.1779 -1.3694
28764SOL     OW98270   8.600   8.812   6.259  0.3728 -0.1650 -0.3847
28764SOL    HW198271   8.633   8.898   6.284  0.1494  0.4237 -2.0024
28764SOL    HW298272   8.509   8.828   6.234  0.2100 -0.9472 -0.3161
28765SOL     OW98273   3.716   8.085  13.413 -0.1764 -0.2824 -0.2528
28765SOL    HW198274   3.795   8.044  13.378 -0.4720  1.0981 -2.7687
28765SOL    HW298275   3.650   8.016  13.411  0.4263 -0.8638 -0.2266
28766SOL     OW98276  11.504  10.445   7.199  0.2446 -0.0545  0.2237
28766SOL    HW198277  11.462  10.474   7.280  1.4344 -0.2954  0.9561
28766SOL    HW298278  11.456  10.489   7.130 -0.0498  1.0810  1.1226
28767SOL     OW98279  10.937   4.255   1.475 -0.5475 -0.6157  0.1765
28767SOL    HW198280  10.857   4.219   1.513 -0.3255 -0.4771  0.7850
28767SOL    HW298281  10.985   4.292   1.549  0.5393 -1.5488 -0.0385
28768SOL     OW98282  11.579   1.548   7.008  0.4348 -0.2309  0.8630
28768SOL    HW198283  11.644   1.511   7.068  0.7914 -0.2262  0.4878
28768SOL    HW298284  11.542   1.623   7.055  0.6492 -0.2808  1.1106
28769SOL     OW98285   6.354   1.191   9.144  0.8304  0.1091 -0.0657
28769SOL    HW198286   6.447   1.210   9.148  0.8070  0.1442  0.3752
28769SOL    HW298287   6.313   1.262   9.195  0.4515  0.8306 -1.3245
28770SOL     OW98288   9.118   7.742   9.753  0.6451 -0.0459  0.1639
28770SOL    HW198289   9.195   7.798   9.764 -0.2450  1.3299 -0.2443
28770SOL    HW298290   9.090   7.756   9.663 -1.9340  2.0976  1.1432
28771SOL     OW98291  10.518   1.084   5.553  0.3121 -0.5223 -0.4261
28771SOL    HW198292  10.443   1.122   5.598 -0.4268 -2.0586 -0.2987
28771SOL    HW298293  10.595   1.121   5.597 -0.3012  2.0804 -1.3888
28772SOL     OW98294   3.153  12.237   7.984  0.6943  0.0202 -0.2320
28772SOL    HW198295   3.149  12.180   7.907  0.7863  0.4427 -0.5534
28772SOL    HW298296   3.247  12.250   8.000  0.6786 -0.2839  0.1158
28773SOL     OW98297  12.308   1.113   6.835 -0.6737 -0.1630  0.0812
28773SOL    HW198298  12.369   1.044   6.860 -0.6943 -0.9356 -1.8509
28773SOL    HW298299  12.226   1.090   6.878 -0.4468 -0.8767  0.1391
28774SOL     OW98300   7.151   9.327  11.502 -0.0829 -0.3392  0.1513
28774SOL    HW198301   7.163   9.401  11.562  0.1888 -0.8696  0.7581
28774SOL    HW298302   7.182   9.251  11.551 -2.0952 -1.1556  0.2481
28775SOL     OW98303  13.781  13.753   8.185  0.1866 -0.6101 -0.2480
28775SOL    HW198304  13.688  13.752   8.159  0.0773 -0.6789  0.1372
28775SOL    HW298305  13.812  13.665   8.166  0.1454 -0.6169 -0.2836
28776SOL     OW98306  13.204  13.112  10.993 -0.4319  0.0016  0.1086
28776SOL    HW198307  13.213  13.055  10.916 -1.7801 -1.8129  1.1923
28776SOL    HW298308  13.230  13.056  11.067 -0.9065  1.1050  1.1401
28777SOL     OW98309  12.283   8.019   3.770  0.2645 -0.3639 -0.0237
28777SOL    HW198310  12.260   8.036   3.678  0.6082 -0.7236 -0.1762
28777SOL    HW298311  12.336   7.939   3.768  1.2378  0.2622  0.3721
28778SOL     OW98312   4.179   7.943   1.030  0.1063 -0.4939 -0.7144
28778SOL    HW198313   4.150   7.903   0.948 -1.2854 -1.3518  0.1555
28778SOL    HW298314   4.263   7.983   1.008 -0.1860 -0.7630 -2.5338
28779SOL     OW98315  12.875   2.280  10.366  0.2234 -0.5661  0.2307
28779SOL    HW198316  12.826   2.353  10.402  2.1900  0.6471  0.5879
28779SOL    HW298317  12.864   2.288  10.271 -0.8723 -0.7939  0.3236
28780SOL     OW98318   7.900   4.732  10.300 -0.9844 -0.2547 -0.4668
28780SOL    HW198319   7.832   4.669  10.276  0.4218 -1.2790 -1.9587
28780SOL    HW298320   7.936   4.698  10.382 -1.8218 -0.0599 -0.0110
28781SOL     OW98321   3.596   0.117   4.155 -0.0457 -0.3328 -0.1312
28781SOL    HW198322   3.586   0.210   4.174 -0.9048  0.2157 -2.8574
28781SOL    HW298323   3.521   0.075   4.198 -0.5603  0.4703 -0.2353
28782SOL     OW98324   1.124   9.687  11.087  0.3912 -0.1664  0.4918
28782SOL    HW198325   1.163   9.717  11.169 -0.2534  0.8146  0.4471
28782SOL    HW298326   1.048   9.743  11.074  0.1227 -0.7257 -0.4621
28783SOL     OW98327  11.363  11.103   9.858  0.1230 -0.2628  0.4037
28783SOL    HW198328  11.450  11.079   9.827 -0.4182 -2.9101  0.6951
28783SOL    HW298329  11.308  11.103   9.780 -0.3029 -2.2919  0.6528
28784SOL     OW98330   0.263   2.550   1.843  0.4609 -0.2295 -0.4046
28784SOL    HW198331   0.229   2.615   1.781  1.5487 -0.2593 -1.0538
28784SOL    HW298332   0.251   2.591   1.929 -1.9885 -0.5975 -0.4968
28785SOL     OW98333   6.390  13.821   1.186 -0.1555 -0.2955  0.3355
28785SOL    HW198334   6.471  13.774   1.165  0.2042  0.4742 -0.0316
28785SOL    HW298335   6.343  13.826   1.103 -0.3950 -0.3861  0.4653
28786SOL     OW98336  13.648  10.794  12.845 -0.1439  0.7074  0.0789
28786SOL    HW198337  13.573  10.812  12.901 -0.2870 -1.0603  0.5112
28786SOL    HW298338  13.724  10.815  12.899 -0.2597 -1.6210  1.2815
28787SOL     OW98339   6.799   6.647   6.321  0.3435  0.1216  0.1910
28787SOL    HW198340   6.730   6.642   6.254  0.3585  1.3134  0.0616
28787SOL    HW298341   6.755   6.683   6.398  0.8661  1.1192  0.0341
28788SOL     OW98342  13.601   4.714   0.811  0.2317 -0.3801  0.5554
28788SOL    HW198343  13.513   4.684   0.788  0.2128 -0.1471  0.3288
28788SOL    HW298344  13.626   4.773   0.741  0.0128  0.6483  1.3187
28789SOL     OW98345   6.621  12.544   2.174 -0.4919  0.4157 -0.5467
28789SOL    HW198346   6.651  12.455   2.155  0.1546  0.9141 -2.0337
28789SOL    HW298347   6.629  12.590   2.090 -0.4624  1.9729  0.2783
28790SOL     OW98348  13.203   3.623   9.921  0.4946  0.1364 -0.0735
28790SOL    HW198349  13.282   3.662   9.959  1.0151 -2.0557  1.2543
28790SOL    HW298350  13.131   3.671   9.963  1.1038  0.4467  0.6524
28791SOL     OW98351   2.103   4.328   7.294  0.4928  0.1814 -0.2493
28791SOL    HW198352   2.124   4.294   7.381  0.4846 -1.2400 -0.7644
28791SOL    HW298353   2.152   4.410   7.288  1.6865 -0.4342  0.5550
28792SOL     OW98354  13.605   9.159   5.669 -0.0916 -0.0144  0.7535
28792SOL    HW198355  13.511   9.139   5.663  0.0816 -0.6585  0.0998
28792SOL    HW298356  13.617   9.188   5.759 -1.2340  1.7654  0.3745
28793SOL     OW98357   4.484  10.853   6.831 -0.3614 -0.4498 -0.0967
28793SOL    HW198358   4.416  10.898   6.781  0.4338 -0.4655 -1.2213
28793SOL    HW298359   4.557  10.843   6.770  0.7938 -0.1303  1.1626
28794SOL     OW98360   1.747   1.184   4.209  0.2205  0.0235  0.2747
28794SOL    HW198361   1.659   1.220   4.218  0.1057 -0.3726  0.8444
28794SOL    HW298362   1.805   1.259   4.221 -0.0061 -0.0083  1.8961
28795SOL     OW98363  11.182   3.817  12.847  0.6696  0.4252  0.1619
28795SOL    HW198364  11.232   3.823  12.766  1.2153 -0.6035  0.4022
28795SOL    HW298365  11.114   3.883  12.838  1.7543  1.5129 -0.3950
28796SOL     OW98366  13.736   3.369   2.020 -0.4053  0.5860 -0.0855
28796SOL    HW198367  13.823   3.409   2.014  0.3671 -0.8831  0.7463
28796SOL    HW298368  13.681   3.438   2.058  0.3256  1.6037 -0.7961
28797SOL     OW98369   9.532   2.753   3.915 -0.2226  0.0002 -0.3912
28797SOL    HW198370   9.603   2.787   3.970 -1.3455  2.5049 -0.3228
28797SOL    HW298371   9.459   2.741   3.976 -0.7278  0.3861 -0.9101
28798SOL     OW98372   5.838  12.632  13.386  0.3612  0.0064  0.1184
28798SOL    HW198373   5.848  12.541  13.359  1.3400  0.1595 -0.0574
28798SOL    HW298374   5.794  12.628  13.471  0.0533 -0.6049 -0.0654
28799SOL     OW98375  10.033   9.499  11.387 -0.4500 -0.0846 -0.3753
28799SOL    HW198376   9.953   9.523  11.342 -0.8811 -2.3660 -0.9868
28799SOL    HW298377  10.004   9.443  11.460  0.5149 -0.0927  0.0227
28800SOL     OW98378   8.711  13.535   8.845  0.1042  0.3516  0.6431
28800SOL    HW198379   8.616  13.547   8.836  0.0498 -1.0742 -1.5096
28800SOL    HW298380   8.720  13.459   8.903 -0.2367 -1.3218 -1.3894
28801SOL     OW98381   3.108  12.731   3.437 -0.5337 -0.4283 -0.3795
28801SOL    HW198382   3.057  12.812   3.443  0.8942  0.7007 -2.2089
28801SOL    HW298383   3.064  12.680   3.369  0.4505  0.3514 -1.6430
28802SOL     OW98384   1.150   3.685   7.350  0.3743 -0.1834 -0.1013
28802SOL    HW198385   1.221   3.692   7.413  0.0576 -0.2197  0.2650
28802SOL    HW298386   1.166   3.603   7.304 -1.0939 -1.8064  2.0761
28803SOL     OW98387   0.858   0.417   5.615  0.2040 -0.1994  0.0124
28803SOL    HW198388   0.942   0.389   5.579  0.2888 -0.9542  0.7727
28803SOL    HW298389   0.793   0.366   5.566  0.2889 -0.8334  0.5503
28804SOL     OW98390   1.625   1.905   1.252 -0.4718 -0.0023 -0.3860
28804SOL    HW198391   1.679   1.957   1.193  0.0000 -1.1808 -1.0187
28804SOL    HW298392   1.546   1.886   1.202  0.6119 -2.3830 -1.3073
28805SOL     OW98393   6.743  12.733  13.123  0.6500 -0.1815 -0.3990
28805SOL    HW198394   6.790  12.655  13.153  0.1439 -0.9822 -1.6406
28805SOL    HW298395   6.797  12.806  13.154  0.3541 -0.9386  2.1419
28806SOL     OW98396  10.029   4.837   2.003 -0.2174 -0.1306 -0.1076
28806SOL    HW198397   9.974   4.763   1.976 -0.3944 -0.4763  1.1542
28806SOL    HW298398  10.005   4.854   2.094 -0.6308  1.9145 -0.5542
28807SOL     OW98399   1.316  11.050   0.420  0.0890 -0.1922 -0.1731
28807SOL    HW198400   1.268  11.130   0.399  0.1164 -0.2493 -0.4502
28807SOL    HW298401   1.255  10.979   0.399 -0.2618 -0.2258  0.8906
28808SOL     OW98402   5.880   0.997   7.455 -0.0668  0.1269  0.3715
28808SOL    HW198403   5.910   0.952   7.376  1.9766 -0.2765  1.3111
28808SOL    HW298404   5.887   1.090   7.433 -0.6053  0.0204 -0.2902
28809SOL     OW98405   9.631   4.420   1.173  0.2277 -0.5577 -0.0415
28809SOL    HW198406   9.629   4.444   1.080  0.5031 -0.3547  0.0058
28809SOL    HW298407   9.722   4.399   1.191 -0.0874 -2.2200 -0.2215
28810SOL     OW98408   0.110  12.388   7.424  1.0717  0.0099 -1.0194
28810SOL    HW198409   0.083  12.435   7.503  2.1285  1.6735 -1.6130
28810SOL    HW298410   0.034  12.392   7.366  0.3100 -1.1674 -0.1631
28811SOL     OW98411  12.667   7.917   4.381  0.4580  0.1514 -0.0437
28811SOL    HW198412  12.642   8.008   4.399 -0.0101 -0.2083  1.2820
28811SOL    HW298413  12.742   7.901   4.438 -0.0515 -0.5539  0.4624
28812SOL     OW98414   8.285   5.926  11.438 -0.2936 -0.0978 -0.5551
28812SOL    HW198415   8.289   5.833  11.417 -0.1682 -0.2350  0.0631
28812SOL    HW298416   8.251   5.929  11.528  0.0962  0.4319 -0.4217
28813SOL     OW98417  13.702  13.312   0.444 -0.4855  0.2760 -0.2185
28813SOL    HW198418  13.668  13.385   0.497  0.7968  0.2427  0.7063
28813SOL    HW298419  13.771  13.352   0.391  0.5623 -0.3245  0.6518
28814SOL     OW98420   9.633   5.545  12.504  0.4574 -0.8154  0.2298
28814SOL    HW198421   9.679   5.626  12.482 -0.3240 -0.2569  0.5904
28814SOL    HW298422   9.597   5.561  12.592 -1.9447 -0.5222 -0.7377
28815SOL     OW98423   2.383   1.885   8.330 -0.6510  0.0514 -0.5059
28815SOL    HW198424   2.447   1.826   8.290  0.7462 -0.1190  1.8214
28815SOL    HW298425   2.398   1.877   8.424 -2.3758  1.9849  0.0040
28816SOL     OW98426  11.907  11.977   9.963 -0.2896  0.7759  0.2860
28816SOL    HW198427  11.848  11.968   9.889 -0.8328 -0.5663  0.8470
28816SOL    HW298428  11.869  12.046  10.017 -1.3552 -0.0197  0.6052
28817SOL     OW98429  10.251  12.401  10.978  0.6061  0.7952 -0.2628
28817SOL    HW198430  10.343  12.421  10.989  0.4547  2.1535 -1.2693
28817SOL    HW298431  10.247  12.349  10.897  0.4628  0.9742 -0.3716
28818SOL     OW98432   1.589   1.957   2.457  0.2094 -0.9307  0.1061
28818SOL    HW198433   1.628   1.872   2.441 -1.1262 -1.7233  0.8640
28818SOL    HW298434   1.575   1.960   2.551 -0.4791 -0.1991 -0.0069
28819SOL     OW98435   3.992   4.022   1.855  0.0404  0.2163  0.5926
28819SOL    HW198436   3.919   3.962   1.841 -0.4127  1.0314 -0.7696
28819SOL    HW298437   4.070   3.972   1.831 -0.0789 -0.5621  1.7623
28820SOL     OW98438   1.845   6.992   7.591 -0.1385 -0.0926  0.0754
28820SOL    HW198439   1.763   7.030   7.561 -0.6775 -0.4694  1.0147
28820SOL    HW298440   1.893   7.065   7.629 -0.6615 -0.1137  0.8060
28821SOL     OW98441  12.119   2.003   0.098  0.1844 -0.0556 -0.0388
28821SOL    HW198442  12.037   1.999   0.146  0.7806 -1.9721  0.9331
28821SOL    HW298443  12.105   1.945   0.022 -0.2814  1.8624 -1.5038
28822SOL     OW98444   3.397   1.129   4.130 -0.1588 -0.0191 -0.2232
28822SOL    HW198445   3.393   1.060   4.063 -1.3738 -1.8433  1.6255
28822SOL    HW298446   3.483   1.117   4.171 -1.2093 -2.0844  1.6174
28823SOL     OW98447   1.219   4.092   7.242  0.1220  0.1587  0.7903
28823SOL    HW198448   1.267   4.094   7.325 -0.4578  2.3292  1.1437
28823SOL    HW298449   1.158   4.019   7.251  0.2891  0.1578  2.1414
28824SOL     OW98450   1.448  11.948   1.470 -0.4136 -0.3189  0.3610
28824SOL    HW198451   1.356  11.931   1.449 -0.5549 -0.6958  1.2040
28824SOL    HW298452   1.464  11.894   1.548  0.1511  0.7482  1.0052
28825SOL     OW98453   8.383   9.242   3.573  0.2146  0.4524  0.1635
28825SOL    HW198454   8.360   9.335   3.566  1.0761  0.6274 -0.6647
28825SOL    HW298455   8.346   9.214   3.656 -1.6936  1.0537 -0.4318
28826SOL     OW98456   4.217   1.249   1.497  0.0718 -0.3055 -0.3836
28826SOL    HW198457   4.307   1.282   1.494 -0.3432  0.8928 -0.3047
28826SOL    HW298458   4.218   1.182   1.565  0.6493  0.5915  0.5357
28827SOL     OW98459  10.021   4.979   6.297  0.3100  0.2479  0.6526
28827SOL    HW198460  10.069   5.016   6.223  0.6904  0.3487  0.9501
28827SOL    HW298461   9.974   5.053   6.335 -1.7542 -0.1822 -0.8729
28828SOL     OW98462   1.930   2.205   5.720 -0.1908  0.4698  0.2844
28828SOL    HW198463   1.922   2.126   5.773  2.3780  1.8401  2.9866
28828SOL    HW298464   2.001   2.186   5.659 -0.5793  0.2116 -0.0948
28829SOL     OW98465  11.817   3.717  10.218  0.4483 -0.1757  0.1408
28829SOL    HW198466  11.892   3.661  10.200 -1.2746 -2.5534 -0.0707
28829SOL    HW298467  11.827   3.742  10.310  1.1570 -0.9855  0.2936
28830SOL     OW98468   2.835  11.247   9.334 -0.4913 -0.3384 -0.2929
28830SOL    HW198469   2.862  11.281   9.419 -0.8497 -1.6273  0.3604
28830SOL    HW298470   2.744  11.221   9.346 -0.4367 -0.8717 -0.9561
28831SOL     OW98471   5.478   1.343   2.614 -0.3032  0.6646 -0.2325
28831SOL    HW198472   5.542   1.317   2.681 -0.1119 -0.2772 -0.7527
28831SOL    HW298473   5.527   1.340   2.532 -1.1720 -0.7697 -0.7321
28832SOL     OW98474   2.735   6.291  13.724  0.3596 -0.3241 -0.7314
28832SOL    HW198475   2.719   6.218  13.783 -0.0718 -0.0278 -0.4763
28832SOL    HW298476   2.818   6.328  13.753 -0.0238  0.0415 -0.0733
28833SOL     OW98477   7.868   8.650   6.310  0.3213  0.1395  0.0613
28833SOL    HW198478   7.808   8.686   6.244 -0.0873 -0.4531  0.1006
28833SOL    HW298479   7.859   8.708   6.385  1.4760  1.3733 -0.6963
28834SOL     OW98480   5.398   3.484  11.915  0.3017 -0.0241 -0.3649
28834SOL    HW198481   5.333   3.416  11.898  1.7569 -1.5856  0.0871
28834SOL    HW298482   5.435   3.503  11.829  0.0498  0.0579 -0.4591
28835SOL     OW98483   0.827   8.974  13.553 -0.2920  0.0866  0.0569
28835SOL    HW198484   0.757   9.035  13.572 -0.0118  0.4902 -0.1920
28835SOL    HW298485   0.797   8.924  13.477 -0.2580  0.3387 -0.1204
28836SOL     OW98486  11.665   7.418   7.322 -0.1410  0.0907  0.3430
28836SOL    HW198487  11.625   7.419   7.408 -1.5874 -0.4094 -0.3000
28836SOL    HW298488  11.684   7.510   7.303 -2.0168  0.4954  0.2266
28837SOL     OW98489  12.795   4.148   4.959 -0.5155  0.4549  0.7106
28837SOL    HW198490  12.713   4.102   4.977  0.6751 -2.0115  0.2633
28837SOL    HW298491  12.860   4.104   5.013  0.5834  2.2856  0.9735
28838SOL     OW98492   9.402   2.916  12.002 -0.5537  0.1775  0.1087
28838SOL    HW198493   9.404   2.822  12.018 -0.0289 -0.2196 -2.0141
28838SOL    HW298494   9.397   2.925  11.907  0.2312  2.3060  0.2008
28839SOL     OW98495  12.450   9.425   8.373  0.4555 -0.1873 -0.6315
28839SOL    HW198496  12.419   9.376   8.449  0.1485 -1.1322 -1.3529
28839SOL    HW298497  12.524   9.374   8.340  1.2095  0.7314 -0.4140
28840SOL     OW98498   2.076   5.993   8.438  0.3186 -0.0716 -0.0260
28840SOL    HW198499   2.030   5.964   8.516  1.0897  1.8489  1.2157
28840SOL    HW298500   2.028   5.953   8.365 -1.1522 -0.9223  1.3542
28841SOL     OW98501   2.447   2.052   9.707 -0.0275  0.3205  0.0810
28841SOL    HW198502   2.534   2.060   9.745 -0.2517  1.0621  0.4499
28841SOL    HW298503   2.449   2.109   9.630 -0.0166 -0.0894 -0.2271
28842SOL     OW98504   5.779  13.491  12.685 -0.0405 -0.2367 -0.0769
28842SOL    HW198505   5.788  13.436  12.763 -2.1185  0.6318  0.8546
28842SOL    HW298506   5.696  13.464  12.646  0.3301  0.2574 -1.2455
28843SOL     OW98507   5.696   7.678  11.390 -0.3159 -0.6983 -0.0359
28843SOL    HW198508   5.761   7.708  11.327  1.8302 -1.1491  1.8445
28843SOL    HW298509   5.618   7.730  11.371  1.4423  1.9289 -0.5968
28844SOL     OW98510   2.701   5.203   1.887  0.0625  0.2846 -0.5305
28844SOL    HW198511   2.636   5.267   1.915 -0.7404 -1.0019  0.6918
28844SOL    HW298512   2.655   5.149   1.823  0.8163  1.0637 -1.7599
28845SOL     OW98513   4.087   1.695   4.348 -0.9391 -0.2879  0.0970
28845SOL    HW198514   4.139   1.656   4.278 -0.8304  3.4980 -2.1566
28845SOL    HW298515   4.150   1.742   4.402 -1.5134  0.6001  0.0092
28846SOL     OW98516   9.145  12.491  12.724 -0.1124 -0.4669  0.1195
28846SOL    HW198517   9.136  12.402  12.758 -0.0918 -0.5069  0.0197
28846SOL    HW298518   9.057  12.515  12.696  0.1900 -1.1441 -1.5596
28847SOL     OW98519   7.739   6.321   3.703  0.2575 -0.4571 -0.1924
28847SOL    HW198520   7.821   6.343   3.658 -0.3477 -0.1733 -1.1953
28847SOL    HW298521   7.728   6.227   3.688 -0.4591 -0.1818 -1.5710
28848SOL     OW98522   5.875   5.237   6.272 -0.6501 -0.6228  0.4423
28848SOL    HW198523   5.871   5.196   6.359 -3.2304  1.2217  1.3072
28848SOL    HW298524   5.809   5.192   6.220 -0.4823 -0.4281  0.0524
28849SOL     OW98525  13.032  12.643   7.657 -0.1037  0.0809 -0.0842
28849SOL    HW198526  13.050  12.592   7.736  0.3437  1.1312  0.5173
28849SOL    HW298527  12.999  12.727   7.690 -0.6056  0.2736 -1.0392
28850SOL     OW98528   3.068   2.496   9.330 -0.2605  0.2854 -0.3841
28850SOL    HW198529   3.095   2.532   9.245  1.0642  1.5201  0.5126
28850SOL    HW298530   3.129   2.425   9.346  0.1715  0.7322 -0.0077
28851SOL     OW98531   8.847   2.015   3.287  0.2658  0.0344  0.2757
28851SOL    HW198532   8.936   1.985   3.302 -0.6145 -2.1578  1.6865
28851SOL    HW298533   8.805   1.945   3.237 -0.6517  1.0764 -0.4762
28852SOL     OW98534   1.212   3.622   5.940 -0.0802  0.5584  0.5438
28852SOL    HW198535   1.153   3.691   5.909 -0.1154 -0.1880 -1.1162
28852SOL    HW298536   1.297   3.645   5.903 -0.5453 -1.4725 -2.0358
28853SOL     OW98537   0.279   8.734   9.815 -0.2546  0.4748 -0.5182
28853SOL    HW198538   0.202   8.775   9.776 -0.9122  1.2588  1.4813
28853SOL    HW298539   0.334   8.808   9.843  0.7921 -0.0725 -1.0810
28854SOL     OW98540   6.927   2.732  13.167  0.2615 -0.2625 -0.1948
28854SOL    HW198541   6.983   2.696  13.235 -0.0064  0.1585  0.2552
28854SOL    HW298542   6.877   2.657  13.135 -0.8798 -0.1856  1.2998
28855SOL     OW98543   7.069  11.226   5.137 -0.5693  0.1245 -0.5658
28855SOL    HW198544   6.984  11.208   5.177  0.2590  2.1635  2.4702
28855SOL    HW298545   7.050  11.284   5.064 -1.8285  0.4660  0.0069
28856SOL     OW98546   7.557   8.206   7.006  0.3314  0.0589 -0.2475
28856SOL    HW198547   7.591   8.221   6.917 -0.1807  1.1585 -0.2758
28856SOL    HW298548   7.501   8.129   6.998  1.1021 -0.4726 -0.6529
28857SOL     OW98549   0.825   2.084   5.482  0.1628  0.6560 -0.0579
28857SOL    HW198550   0.823   1.998   5.524  1.6469  0.5254 -0.1906
28857SOL    HW298551   0.765   2.138   5.533 -2.1963 -0.9008 -1.0432
28858SOL     OW98552  13.593   8.374  12.109  0.3641  0.1625 -0.1008
28858SOL    HW198553  13.625   8.415  12.189 -1.1660 -0.1739  0.7323
28858SOL    HW298554  13.554   8.445  12.059  0.4853  0.2257 -0.1059
28859SOL     OW98555  13.866  10.071   6.825  0.2192  0.0437  0.1840
28859SOL    HW198556  13.818  10.126   6.887  0.1055  1.0263 -0.7428
28859SOL    HW298557  13.950  10.053   6.868  0.6785  1.8263  0.0922
28860SOL     OW98558   2.909   5.830  13.837  0.2263 -0.2311  0.5934
28860SOL    HW198559   2.854   5.765  13.794 -2.1368  1.3455  1.0112
28860SOL    HW298560   2.934   5.890  13.767 -0.3363  0.1728  0.7286
28861SOL     OW98561   2.031   8.559   4.144  0.4799 -0.3059  0.1534
28861SOL    HW198562   2.110   8.594   4.186  0.3153 -1.0544  1.0964
28861SOL    HW298563   1.961   8.615   4.175  0.5950  0.2696 -0.5735
28862SOL     OW98564  13.248   9.288  12.247 -0.5808  0.5222  0.3838
28862SOL    HW198565  13.226   9.297  12.154  0.2630 -1.4341 -0.0627
28862SOL    HW298566  13.217   9.201  12.270  2.1188 -0.3670  1.0075
28863SOL     OW98567   1.148   2.193   4.764  0.2697  0.8343 -0.5849
28863SOL    HW198568   1.080   2.168   4.826  0.0228  0.8703 -0.8392
28863SOL    HW298569   1.216   2.126   4.774 -0.6940 -0.3995 -1.7692
28864SOL     OW98570   0.894   7.006  10.732 -0.1553 -0.1712  0.2104
28864SOL    HW198571   0.824   6.953  10.769 -0.8460 -0.1116 -0.9782
28864SOL    HW298572   0.866   7.025  10.643  1.3107 -0.0379 -0.2547
28865SOL     OW98573  12.296   6.300   3.884  0.1963  0.3222 -0.2682
28865SOL    HW198574  12.321   6.207   3.884  1.7850  0.6952  1.5440
28865SOL    HW298575  12.231   6.307   3.814  0.7224 -1.9640 -1.0733
28866SOL     OW98576  10.423  10.019   9.690  0.1794  0.3596 -0.3369
28866SOL    HW198577  10.389  10.062   9.612  1.1460  0.7600 -0.5500
28866SOL    HW298578  10.471  10.087   9.737  0.5625 -0.1439  0.0239
28867SOL     OW98579  11.364   6.173  13.938  0.6341  0.5768  0.0383
28867SOL    HW198580  11.387   6.171  13.846  0.0921  0.4827 -0.0983
28867SOL    HW298581  11.405   6.095  13.976 -0.2854 -0.1404 -0.4023
28868SOL     OW98582  10.842   8.098  13.974 -0.1522  0.3683 -0.2607
28868SOL    HW198583  10.895   8.177  13.987  0.0267  0.2105 -0.0224
28868SOL    HW298584  10.790   8.118  13.896 -0.0908  0.7116 -0.2197
28869SOL     OW98585   6.710   3.524   9.268  0.3633 -0.4372  0.2406
28869SOL    HW198586   6.695   3.491   9.356  0.7156 -0.6546  0.2251
28869SOL    HW298587   6.654   3.470   9.212  2.0879 -2.1223  0.0311
28870SOL     OW98588  13.798  11.199   9.636 -0.0209  0.6209 -0.0260
28870SOL    HW198589  13.864  11.227   9.572  0.4677  0.6220  0.4701
28870SOL    HW298590  13.761  11.281   9.669  2.5821  0.8885  2.6652
28871SOL     OW98591  10.016   0.767   3.035 -0.3556  0.1580 -0.2582
28871SOL    HW198592   9.981   0.722   2.958 -0.8870 -0.0046  0.0731
28871SOL    HW298593  10.101   0.726   3.051 -0.1401  0.3403 -0.8830
28872SOL     OW98594   7.077   6.209   7.822 -0.0742  0.2872 -0.4967
28872SOL    HW198595   7.163   6.226   7.861  0.2884 -1.6641 -0.3892
28872SOL    HW298596   7.092   6.214   7.727  0.3649 -0.9152 -0.5001
28873SOL     OW98597   8.403   7.573   1.405 -0.0850  0.1376  0.5893
28873SOL    HW198598   8.417   7.483   1.377 -1.7218  0.7991 -2.8652
28873SOL    HW298599   8.489   7.614   1.398  0.0450 -0.3617 -1.3756
28874SOL     OW98600   4.001   0.029   0.900  0.3320  0.3026 -0.1837
28874SOL    HW198601   4.076   0.017   0.842 -0.9503 -1.7404 -1.5390
28874SOL    HW298602   3.988   0.124   0.902  2.3203  0.6403 -0.6977
28875SOL     OW98603   4.916   6.963   8.996  0.2484  0.1309  0.5522
28875SOL    HW198604   4.860   6.889   9.018 -0.6383 -0.1734 -2.3110
28875SOL    HW298605   5.005   6.930   9.005  0.0240  0.0867  3.4315
28876SOL     OW98606   3.832   4.415  10.493 -0.2411 -0.0797 -0.0044
28876SOL    HW198607   3.858   4.391  10.581 -0.0913 -1.6333 -0.4529
28876SOL    HW298608   3.902   4.381  10.437 -1.1519 -0.5990 -0.8589
28877SOL     OW98609  11.137  10.268   8.705  0.1218 -0.3906 -0.3451
28877SOL    HW198610  11.116  10.305   8.620  3.2985  3.0383  0.1285
28877SOL    HW298611  11.096  10.328   8.768 -0.6227 -1.8381  0.6180
28878SOL     OW98612   7.198   2.210   8.775  0.3529  0.2398  0.1389
28878SOL    HW198613   7.111   2.170   8.776 -0.3386  1.6337 -0.6854
28878SOL    HW298614   7.219   2.217   8.682  1.3094  0.0360  0.3302
28879SOL     OW98615   3.677   1.024   7.355 -0.0244 -0.1209  0.3227
28879SOL    HW198616   3.770   1.009   7.338  0.1995  0.7160  0.7332
28879SOL    HW298617   3.664   1.118   7.337 -1.1697 -0.5563 -1.4103
28880SOL     OW98618   1.728   7.265  11.261 -0.2648 -0.2159  0.2980
28880SOL    HW198619   1.695   7.353  11.278 -0.9385 -0.2054 -1.0060
28880SOL    HW298620   1.651   7.209  11.261  0.0886 -0.7116  0.4971
28881SOL     OW98621   3.269  13.163  11.015  0.0398  0.4811  0.2376
28881SOL    HW198622   3.354  13.120  11.013  0.0630  0.4745  0.9985
28881SOL    HW298623   3.206  13.092  11.006  0.1054  0.4358  0.1308
28882SOL     OW98624   5.377   6.733   7.140 -0.2833  0.0584  0.2619
28882SOL    HW198625   5.310   6.794   7.108  0.4993  1.0208  0.4140
28882SOL    HW298626   5.424   6.782   7.207  1.2781 -0.1995 -0.6073
28883SOL     OW98627  10.366   7.341  10.368 -0.6663 -0.2411  0.4549
28883SOL    HW198628  10.338   7.278  10.434 -2.0879 -1.3809 -1.1647
28883SOL    HW298629  10.287   7.362  10.318  0.0060  1.9507  0.1658
28884SOL     OW98630   1.970   5.461   1.715 -0.0079  0.0471 -0.3345
28884SOL    HW198631   1.953   5.375   1.754  0.5960 -0.6094 -1.4289
28884SOL    HW298632   1.888   5.509   1.724 -0.4821 -0.7921 -0.0557
28885SOL     OW98633  10.723   5.449  12.670  0.5697 -0.1032 -0.7318
28885SOL    HW198634  10.671   5.369  12.669 -0.7329  0.7185 -1.0466
28885SOL    HW298635  10.762   5.454  12.582 -1.8537  1.1405 -1.8383
28886SOL     OW98636   4.673   2.415   6.130  0.7297 -0.0121  0.1942
28886SOL    HW198637   4.715   2.446   6.050 -0.9270 -1.0065 -1.1090
28886SOL    HW298638   4.686   2.486   6.193  1.0420  1.2978 -1.2929
28887SOL     OW98639   4.494   4.370  12.680  0.0836 -0.3411 -0.4279
28887SOL    HW198640   4.577   4.322  12.670 -0.3917 -1.5252  0.9796
28887SOL    HW298641   4.473   4.362  12.773 -2.2921 -1.2620 -0.9690
28888SOL     OW98642  13.298   1.709  11.355  0.2181 -0.0847 -0.3643
28888SOL    HW198643  13.361   1.708  11.428 -0.1929 -0.4003 -0.0063
28888SOL    HW298644  13.319   1.631  11.305  0.8276  0.3943 -0.8808
28889SOL     OW98645   6.682   2.584  11.297  0.2216  0.1504 -0.5858
28889SOL    HW198646   6.639   2.598  11.213  0.3317  0.0679 -0.6576
28889SOL    HW298647   6.625   2.524  11.344 -0.5371  1.2615 -0.0549
28890SOL     OW98648   2.153  11.256   2.789  0.4644  0.1412  0.0782
28890SOL    HW198649   2.231  11.244   2.843  0.4372 -0.6326 -0.0486
28890SOL    HW298650   2.186  11.265   2.699  0.4976  1.2607  0.1843
28891SOL     OW98651   5.900   5.982   9.142 -0.0927 -0.6335  0.5621
28891SOL    HW198652   5.885   5.988   9.236  0.7303 -1.1216  0.7277
28891SOL    HW298653   5.815   6.006   9.103  0.0534  1.4093  1.3574
28892SOL     OW98654   8.217   9.266   9.614 -0.1896 -0.2897  0.0569
28892SOL    HW198655   8.185   9.223   9.693  0.2017 -0.2568  0.2381
28892SOL    HW298656   8.202   9.202   9.544  2.1563 -1.5852  0.6060
28893SOL     OW98657   0.324   6.261  12.122 -0.8862 -0.3808 -0.2163
28893SOL    HW198658   0.274   6.222  12.195  0.6244 -0.8845  0.6007
28893SOL    HW298659   0.405   6.291  12.163  1.0963 -2.8712 -2.0393
28894SOL     OW98660   7.616   8.186   0.073  0.1389 -0.2087  0.5426
28894SOL    HW198661   7.529   8.168   0.109  0.8327 -1.4207  1.6955
28894SOL    HW298662   7.664   8.104   0.084  1.2228  0.2184 -0.7479
28895SOL     OW98663  12.490   5.140   0.404  0.3313  0.2675  0.6423
28895SOL    HW198664  12.519   5.100   0.322 -3.6971  0.3522 -1.0753
28895SOL    HW298665  12.476   5.066   0.463  1.2862  0.0065  0.5539
28896SOL     OW98666   3.555  10.944   9.206  0.0895  0.7168  0.0325
28896SOL    HW198667   3.578  10.891   9.130 -2.5672  0.0756 -0.4483
28896SOL    HW298668   3.612  11.020   9.200  1.8325 -0.5892 -1.0393
28897SOL     OW98669   5.155   9.376  12.736  1.0827  0.1523 -0.2777
28897SOL    HW198670   5.204   9.345  12.660  1.4373  1.7425 -0.7452
28897SOL    HW298671   5.070   9.402  12.700  1.4316  1.3860 -0.2459
28898SOL     OW98672  11.370   3.887   2.279 -0.0771  0.1601  0.0062
28898SOL    HW198673  11.308   3.960   2.268  2.1375  2.0825 -0.5888
28898SOL    HW298674  11.327   3.829   2.342 -3.2888  0.3614 -1.7662
28899SOL     OW98675  12.325   7.986   6.782  0.0067 -0.2607  0.3299
28899SOL    HW198676  12.266   8.009   6.710  0.9136 -0.5892 -0.5501
28899SOL    HW298677  12.311   8.055   6.847  0.9095  1.4902 -1.2124
28900SOL     OW98678   8.877   7.483   9.937 -0.2261 -0.4255 -0.1746
28900SOL    HW198679   8.957   7.471   9.884 -0.4746  1.3967 -1.0271
28900SOL    HW298680   8.866   7.578   9.942 -0.6537 -0.5600  2.5666
28901SOL     OW98681   5.827   9.952  11.599  0.0790  0.4191 -0.5624
28901SOL    HW198682   5.805   9.893  11.671  1.9500  1.5888  1.0540
28901SOL    HW298683   5.743   9.971  11.557 -0.8149 -1.8341  0.0420
28902SOL     OW98684   4.697  13.182   0.954  0.2244  0.0880  0.1652
28902SOL    HW198685   4.707  13.170   1.048  0.4278 -0.7932  0.0397
28902SOL    HW298686   4.648  13.105   0.925  1.0170 -0.1556 -0.5871
28903SOL     OW98687   6.909   7.575  12.452  0.0978 -0.5458 -0.0487
28903SOL    HW198688   6.946   7.487  12.461 -1.7828 -1.3274  0.3315
28903SOL    HW298689   6.848   7.569  12.379 -1.2271  0.0015  0.9650
28904SOL     OW98690   3.621   1.910  11.861  0.0299 -0.7816 -0.5373
28904SOL    HW198691   3.551   1.931  11.924 -0.1896  0.1320 -1.0727
28904SOL    HW298692   3.600   1.963  11.784  1.2925 -0.5234 -0.7173
28905SOL     OW98693   2.404   8.897   9.353  0.2311 -0.2935 -0.2980
28905SOL    HW198694   2.493   8.868   9.333  0.7532  0.6851  0.5070
28905SOL    HW298695   2.355   8.816   9.365  1.2674 -0.8567  0.3186
28906SOL     OW98696   5.856   6.749   2.262 -0.6009  0.3501 -0.0562
28906SOL    HW198697   5.942   6.769   2.297  0.0259  0.8629 -1.7842
28906SOL    HW298698   5.813   6.698   2.331  1.7898 -1.6779  0.0762
28907SOL     OW98699   9.842  11.449   9.739  0.4600 -0.3045  0.6458
28907SOL    HW198700   9.748  11.434   9.732  0.1355  0.9516  2.0162
28907SOL    HW298701   9.856  11.535   9.699  1.1843 -0.8482 -0.3281
28908SOL     OW98702  12.161   7.396  10.714  0.2023  0.5810  0.5001
28908SOL    HW198703  12.074   7.430  10.697  0.3014  0.4278 -0.3649
28908SOL    HW298704  12.146   7.311  10.756 -0.0866  0.1158 -0.5112
28909SOL     OW98705   7.531   8.629   6.712 -0.2775 -0.1336  0.8378
28909SOL    HW198706   7.610   8.681   6.729 -0.1240  0.3095 -0.9990
28909SOL    HW298707   7.559   8.565   6.646 -1.2962 -0.3654  0.6193
28910SOL     OW98708   0.216   5.475   8.242  0.2282 -0.7562  0.0485
28910SOL    HW198709   0.158   5.551   8.234 -0.3791 -1.1791  0.3435
28910SOL    HW298710   0.299   5.511   8.271 -0.3132 -0.2955  1.0676
28911SOL     OW98711   3.819   1.693   6.462 -0.2855  0.2992 -0.4839
28911SOL    HW198712   3.872   1.722   6.536  0.1588 -1.8030  0.1004
28911SOL    HW298713   3.882   1.667   6.396 -0.6139 -0.4538 -0.5119
28912SOL     OW98714   3.027   0.801   2.093 -0.1346 -0.1319 -0.4527
28912SOL    HW198715   2.944   0.802   2.044  0.6069 -0.2126 -1.7671
28912SOL    HW298716   3.017   0.870   2.158 -1.3209 -0.2907 -0.4364
28913SOL     OW98717   3.264   0.239   9.884 -0.2077 -0.1335 -0.0893
28913SOL    HW198718   3.285   0.331   9.898 -2.2094  0.4359 -0.5490
28913SOL    HW298719   3.315   0.215   9.806  1.2293  0.2258  0.7176
28914SOL     OW98720  13.850   1.010   0.733 -0.0733  0.2514  0.2159
28914SOL    HW198721  13.911   1.071   0.691  1.4430 -2.0900 -1.2906
28914SOL    HW298722  13.897   0.981   0.812  0.2082 -0.5375 -0.2267
28915SOL     OW98723   7.950   7.806  13.304 -0.3941 -0.1449 -0.3332
28915SOL    HW198724   7.978   7.897  13.291 -2.3195  0.5190 -0.2401
28915SOL    HW298725   7.894   7.809  13.382  0.2425 -1.5909  0.2044
28916SOL     OW98726   0.010   2.578  13.801 -0.1905 -0.1553 -0.1809
28916SOL    HW198727  -0.032   2.621  13.876  0.4848 -0.6847  0.5229
28916SOL    HW298728  -0.039   2.497  13.790 -0.7110  0.2300 -0.7486
28917SOL     OW98729  10.703  11.416   6.719 -0.3217  0.2767  0.1044
28917SOL    HW198730  10.656  11.462   6.649  1.2268  0.3743 -0.9286
28917SOL    HW298731  10.795  11.425   6.695  0.0934 -3.3370 -0.1847
28918SOL     OW98732   3.215   5.329   5.022  0.1420 -0.3749 -0.4042
28918SOL    HW198733   3.126   5.344   4.990 -0.0008 -0.0547  0.1273
28918SOL    HW298734   3.204   5.291   5.109  0.5215 -1.6676 -0.8887
28919SOL     OW98735   3.155   5.381  12.077 -0.4257  0.3974 -0.3037
28919SOL    HW198736   3.177   5.307  12.020 -1.0094  0.6124 -0.8228
28919SOL    HW298737   3.085   5.427  12.030 -1.8131 -0.1218  1.1328
28920SOL     OW98738  13.909  10.099   7.950  0.3178 -0.0265  0.0852
28920SOL    HW198739  13.828  10.056   7.977 -0.2575  1.3689  0.6571
28920SOL    HW298740  13.894  10.122   7.858  1.1391 -2.1289 -0.6514
28921SOL     OW98741  13.122   3.035   4.768 -0.2861  0.2802  0.0818
28921SOL    HW198742  13.056   3.086   4.814 -0.8580  0.4862 -0.9489
28921SOL    HW298743  13.101   2.944   4.789 -0.9125  0.3434 -0.2361
28922SOL     OW98744  12.279  12.327  11.063 -0.3302  0.0183 -0.2210
28922SOL    HW198745  12.329  12.252  11.097  1.4314  1.2864  0.1092
28922SOL    HW298746  12.197  12.325  11.112 -0.3700 -1.7395 -0.2870
28923SOL     OW98747   4.970  10.152   6.728  0.1749 -0.1983 -0.3340
28923SOL    HW198748   4.900  10.216   6.713 -0.0507 -0.5099 -0.6247
28923SOL    HW298749   4.992  10.120   6.641  0.2936 -0.5101 -0.1903
28924SOL     OW98750   5.941   7.387  12.169  0.0985  0.1020 -0.1677
28924SOL    HW198751   5.998   7.458  12.197 -0.6787  1.2472 -1.3752
28924SOL    HW298752   5.969   7.367  12.080 -1.3314  0.6949 -0.7892
28925SOL     OW98753  10.810  10.561   9.637 -0.1739 -0.5549 -0.1842
28925SOL    HW198754  10.829  10.593   9.725 -1.5736 -2.0030  0.6931
28925SOL    HW298755  10.737  10.615   9.607  0.7282  0.3840 -0.7644
28926SOL     OW98756   2.331   6.685   0.977 -0.2519 -0.3219 -0.7227
28926SOL    HW198757   2.349   6.665   1.069 -0.9794 -0.4029 -0.5924
28926SOL    HW298758   2.308   6.777   0.976  0.9590 -0.0018 -1.0135
28927SOL     OW98759   9.958   8.355   2.126 -0.1976  0.2301  0.2210
28927SOL    HW198760   9.877   8.311   2.150 -0.6447  1.2752  0.6875
28927SOL    HW298761   9.961   8.432   2.182  1.0412  0.2990  0.0929
28928SOL     OW98762   8.527  13.157   2.465  0.3252  0.9200  0.0892
28928SOL    HW198763   8.463  13.122   2.527  1.0190  2.0557  1.5120
28928SOL    HW298764   8.560  13.080   2.419 -0.5143  0.0821  0.8499
28929SOL     OW98765   3.370  13.234   0.799 -0.1140 -0.0288  0.4185
28929SOL    HW198766   3.416  13.279   0.728  0.0138 -2.2147 -0.9676
28929SOL    HW298767   3.297  13.293   0.821  1.1375  1.7366  0.0669
28930SOL     OW98768  12.958  13.692   0.676 -0.0506  0.5357 -0.3420
28930SOL    HW198769  12.984  13.609   0.716  0.2112  0.2433 -1.1063
28930SOL    HW298770  12.944  13.751   0.750 -0.4982 -0.2609  0.2171
28931SOL     OW98771   0.214   2.664  12.955 -0.1237 -0.2852  0.0565
28931SOL    HW198772   0.215   2.702  12.867 -1.5888  0.2706  0.2416
28931SOL    HW298773   0.177   2.576  12.943 -0.1581 -0.2760  0.0947
28932SOL     OW98774  13.589   5.429  12.823  0.0213 -0.0767  0.1780
28932SOL    HW198775  13.560   5.518  12.844  0.7578 -0.0961  1.3601
28932SOL    HW298776  13.598   5.429  12.727  1.6448  1.6630  0.2711
28933SOL     OW98777  12.031  11.357   6.980  0.2919  0.1452 -0.4553
28933SOL    HW198778  12.064  11.300   7.049  1.1375  0.8336 -0.2614
28933SOL    HW298779  12.080  11.439   6.992 -0.2094  0.5820 -1.3060
28934SOL     OW98780   8.058   1.348   6.010 -0.4029 -0.0506 -0.1109
28934SOL    HW198781   8.054   1.270   6.066  1.2720 -0.2434 -0.2030
28934SOL    HW298782   8.010   1.323   5.931  0.4604 -1.1685 -0.3121
28935SOL     OW98783   4.397  10.338   5.351 -0.2160 -0.3242  0.4433
28935SOL    HW198784   4.438  10.356   5.436  0.5153  0.3795 -0.0435
28935SOL    HW298785   4.309  10.308   5.373 -0.4707  1.0329  1.4342
28936SOL     OW98786   7.524   8.959  13.964 -0.1099 -0.5315 -0.3129
28936SOL    HW198787   7.528   8.941  14.058 -0.3025 -1.7127 -0.5181
28936SOL    HW298788   7.467   8.890  13.929 -0.4738  0.2143 -1.2223
28937SOL     OW98789   8.712   1.787  13.281  0.4440  0.0611  0.3854
28937SOL    HW198790   8.617   1.795  13.278  0.5836  1.9665  0.0035
28937SOL    HW298791   8.728   1.725  13.353 -1.0880 -1.4757 -0.5004
28938SOL     OW98792   0.910  13.273   5.950  0.1264  0.0577  0.3795
28938SOL    HW198793   0.939  13.302   6.036  0.2562  1.5726 -0.1486
28938SOL    HW298794   0.863  13.348   5.913  0.7711 -0.2682 -1.1926
28939SOL     OW98795   4.667  13.566   1.194  0.6026  0.3662  0.6945
28939SOL    HW198796   4.662  13.649   1.242  0.5262  1.2470 -0.7729
28939SOL    HW298797   4.660  13.499   1.262  1.1942  1.5450  1.9845
28940SOL     OW98798   6.591   3.427   5.167 -0.3809  0.5893  0.0516
28940SOL    HW198799   6.636   3.408   5.249  0.1343 -1.3020 -0.6175
28940SOL    HW298800   6.661   3.454   5.107 -0.2227 -1.2359 -0.6608
28941SOL     OW98801   7.159   6.461   6.728  0.8865 -0.2543  0.7197
28941SOL    HW198802   7.251   6.434   6.721  0.5513 -1.3199  0.2974
28941SOL    HW298803   7.132   6.430   6.815  0.9097  0.0114  0.8222
28942SOL     OW98804   8.226   8.872   5.658 -0.4669  0.2346  0.4742
28942SOL    HW198805   8.300   8.893   5.715  0.5197  0.6540 -0.9041
28942SOL    HW298806   8.187   8.794   5.698  0.2185  0.4788  1.6771
28943SOL     OW98807   9.917  10.142   1.396 -0.1989 -0.2793  0.0494
28943SOL    HW198808   9.883  10.087   1.467 -1.1277  0.4980  0.2379
28943SOL    HW298809   9.872  10.110   1.318 -2.3828  1.4978  0.4724
28944SOL     OW98810  13.915   9.595   5.365 -0.5403  0.3746 -0.1015
28944SOL    HW198811  13.863   9.574   5.287 -1.2198 -0.1969  0.4994
28944SOL    HW298812  13.856   9.578   5.438 -0.6216  2.8566  0.4971
28945SOL     OW98813  14.028   6.208   7.126 -0.0485  0.0387 -0.1748
28945SOL    HW198814  14.058   6.120   7.103  0.2103  0.2538 -0.7007
28945SOL    HW298815  14.028   6.210   7.221  2.1739  0.2036 -0.1274
28946SOL     OW98816   3.553  11.789  13.968  0.7352  0.4029  0.0585
28946SOL    HW198817   3.517  11.702  13.985 -0.5771  0.9462  0.1444
28946SOL    HW298818   3.488  11.832  13.913  1.0790  1.5394  0.5060
28947SOL     OW98819  11.996  12.383   8.920 -0.1464 -0.2645  0.3340
28947SOL    HW198820  11.943  12.304   8.927 -1.2549  0.3689 -0.5930
28947SOL    HW298821  11.960  12.429   8.845  1.1008  0.6730  0.2793
28948SOL     OW98822   3.364  12.143   6.972 -0.3094 -0.3789  0.2628
28948SOL    HW198823   3.302  12.125   7.042 -0.1875 -0.4188  0.3619
28948SOL    HW298824   3.441  12.090   6.994 -0.5746 -1.0327 -0.3433
28949SOL     OW98825   0.133  12.789   5.361 -0.3971 -0.2220 -0.0668
28949SOL    HW198826   0.193  12.743   5.421  0.3921  0.6110 -0.2012
28949SOL    HW298827   0.189  12.850   5.313 -1.4039  0.8129  0.0311
28950SOL     OW98828   3.597   2.634   2.800 -0.3395  0.3358  0.3827
28950SOL    HW198829   3.643   2.577   2.738  0.9985  2.4059 -0.6539
28950SOL    HW298830   3.643   2.620   2.883 -1.1641 -1.3241  0.6118
28951SOL     OW98831   2.918   5.329   6.790 -0.4206 -0.3610 -0.2961
28951SOL    HW198832   2.932   5.290   6.703  2.2860  0.6122 -0.3931
28951SOL    HW298833   2.938   5.259   6.852  1.0758 -0.1435 -0.4905
28952SOL     OW98834  10.812   1.324   2.143 -0.1954  0.4219 -0.5401
28952SOL    HW198835  10.783   1.383   2.074 -2.7234  0.1453  0.1791
28952SOL    HW298836  10.765   1.353   2.221  0.4712 -0.9758  0.4274
28953SOL     OW98837  11.779  13.422  13.599  0.6807  0.7171 -0.4024
28953SOL    HW198838  11.854  13.467  13.559  0.0526  1.1187 -1.1619
28953SOL    HW298839  11.708  13.433  13.535 -0.2808  1.1354  0.7069
28954SOL     OW98840   5.498   2.781   3.102 -0.2308 -0.2353 -0.1414
28954SOL    HW198841   5.536   2.868   3.094 -1.9927  0.4573 -1.6675
28954SOL    HW298842   5.413   2.796   3.143 -0.7602 -1.1565 -0.8658
28955SOL     OW98843   4.223   2.813   7.654  0.0727 -0.2013 -0.3601
28955SOL    HW198844   4.226   2.719   7.633 -2.2162 -0.2228 -0.8761
28955SOL    HW298845   4.173   2.852   7.582 -2.8844  0.6804  1.9733
28956SOL     OW98846   0.442  11.186   3.393 -0.3408 -0.3840  0.1655
28956SOL    HW198847   0.349  11.166   3.402 -0.3186 -1.3652 -1.3361
28956SOL    HW298848   0.444  11.276   3.361 -0.7593 -0.3088  0.3399
28957SOL     OW98849   1.084   0.624   1.114 -0.0622 -0.1726 -0.4310
28957SOL    HW198850   1.132   0.611   1.032  0.3636 -1.6491  0.0111
28957SOL    HW298851   0.992   0.608   1.091  0.1930 -1.9052 -0.4013
28958SOL     OW98852   4.639  11.923  12.750 -0.4176 -0.2807  0.1136
28958SOL    HW198853   4.699  11.863  12.708 -0.1509  0.4439 -0.5543
28958SOL    HW298854   4.553  11.901  12.714 -0.5190 -1.0471  0.7727
28959SOL     OW98855   9.243   9.041   5.461  0.2062  0.0580  1.2202
28959SOL    HW198856   9.270   9.131   5.440 -1.0878  0.2485  0.2296
28959SOL    HW298857   9.314   8.986   5.427 -0.9973  0.4601 -2.4215
28960SOL     OW98858  12.662   6.638   2.182 -0.0933  0.6893  0.0118
28960SOL    HW198859  12.631   6.549   2.202  0.1236  0.1749 -1.7496
28960SOL    HW298860  12.584   6.693   2.190 -0.7217 -0.0263 -0.8887
28961SOL     OW98861  11.405   8.952   8.226 -0.0899  0.1264 -0.0507
28961SOL    HW198862  11.360   9.003   8.160  0.2944  1.4005  0.6313
28961SOL    HW298863  11.338   8.897   8.265 -0.1156 -1.4788 -2.2181
28962SOL     OW98864   1.863  13.998   7.454 -0.1555  0.8338 -0.0155
28962SOL    HW198865   1.859  13.904   7.466  0.7645  1.0074  2.1126
28962SOL    HW298866   1.793  14.018   7.392 -3.7444 -0.6969  3.1272
28963SOL     OW98867   5.124   1.931   3.449 -0.1896 -0.2093  0.1934
28963SOL    HW198868   5.141   1.840   3.474 -0.5022  0.2247  2.1273
28963SOL    HW298869   5.115   1.977   3.532 -0.5021  1.5118 -0.7607
28964SOL     OW98870  12.314   0.468   4.919 -0.1363  0.2487 -0.2845
28964SOL    HW198871  12.238   0.434   4.873  0.1309 -1.3945  0.4216
28964SOL    HW298872  12.385   0.408   4.896  0.5183  0.7190  0.4458
28965SOL     OW98873   3.987  11.777   9.651  0.3280 -0.7329  0.2028
28965SOL    HW198874   4.004  11.849   9.591 -1.3276 -0.3624  0.1396
28965SOL    HW298875   4.060  11.717   9.637  1.9832  1.0914  0.5784
28966SOL     OW98876   4.478   5.047   5.122 -0.3088 -0.3932 -0.0131
28966SOL    HW198877   4.444   5.077   5.207 -0.9497 -1.5792  0.1756
28966SOL    HW298878   4.402   5.010   5.078  0.1839 -0.5060 -0.7796
28967SOL     OW98879   3.015   3.524   2.515 -0.7906 -0.2180  0.1859
28967SOL    HW198880   2.945   3.566   2.564 -1.3025 -0.3228 -0.4351
28967SOL    HW298881   3.059   3.596   2.470  0.0479 -0.0550  1.2363
28968SOL     OW98882   4.598   9.691   9.745 -0.5978  0.0767  0.0985
28968SOL    HW198883   4.553   9.619   9.790  0.3124 -1.6817 -1.6686
28968SOL    HW298884   4.528   9.737   9.698 -1.2687  0.7567  1.6843
28969SOL     OW98885  10.839   1.440   7.097 -0.3504 -0.2782  0.3942
28969SOL    HW198886  10.879   1.480   7.175 -0.3176  0.7691 -0.1474
28969SOL    HW298887  10.753   1.411   7.127 -0.0359 -0.5995  1.0177
28970SOL     OW98888   9.506  10.073   3.266 -0.2731  0.7158 -0.2688
28970SOL    HW198889   9.423  10.104   3.230 -0.3911  0.7179  0.0115
28970SOL    HW298890   9.492  10.066   3.360 -0.4067 -0.6811 -0.3680
28971SOL     OW98891   2.113   9.458  13.069  0.7653 -0.0557  0.3316
28971SOL    HW198892   2.155   9.372  13.074  1.4776  0.2659  0.1293
28971SOL    HW298893   2.129   9.497  13.155  0.6582 -0.0343  0.3416
28972SOL     OW98894   1.071   7.536   7.576 -0.0483  0.5754 -0.0337
28972SOL    HW198895   1.059   7.618   7.624  0.5635  1.0377 -0.6582
28972SOL    HW298896   1.165   7.530   7.561  0.1111 -0.9702  1.2561
28973SOL     OW98897  13.606   1.454  11.576 -0.1391  0.4699  0.7320
28973SOL    HW198898  13.567   1.416  11.498  0.4017  0.2923  0.5408
28973SOL    HW298899  13.549   1.527  11.599  0.6393  1.6479 -0.8698
28974SOL     OW98900  13.849   3.058   6.741  0.2204 -0.2585 -0.2230
28974SOL    HW198901  13.932   3.030   6.703  0.3322 -1.2604  0.7193
28974SOL    HW298902  13.784   3.002   6.700  0.1648 -0.3448 -0.0171
28975SOL     OW98903   6.295   8.396   2.477 -0.1207  0.3813  0.0876
28975SOL    HW198904   6.264   8.429   2.393  1.0014 -0.1348 -0.5624
28975SOL    HW298905   6.289   8.301   2.469  0.4393  0.3157  0.4008
28976SOL     OW98906  12.589  12.452   8.725  0.4276 -0.2530  0.0823
28976SOL    HW198907  12.542  12.368   8.725  1.3723 -0.8427  2.1043
28976SOL    HW298908  12.567  12.491   8.641 -1.6987 -1.5988 -0.0800
28977SOL     OW98909   5.889   0.660   7.251  0.2579  0.5365 -0.1318
28977SOL    HW198910   5.922   0.656   7.341 -0.4268 -0.1950  0.0919
28977SOL    HW298911   5.804   0.703   7.258  0.0750  0.2210 -0.3929
28978SOL     OW98912   2.230   2.453  11.595 -0.4376 -0.3335 -0.3045
28978SOL    HW198913   2.310   2.429  11.548 -0.2705 -0.4196  0.0229
28978SOL    HW298914   2.162   2.397  11.556 -0.1495 -0.9586  0.0923
28979SOL     OW98915   4.713  10.147   3.002 -0.2412 -0.3103 -0.1915
28979SOL    HW198916   4.726  10.227   3.052  0.1311  0.8959 -2.0945
28979SOL    HW298917   4.794  10.097   3.014  0.0160  0.1630  0.0627
28980SOL     OW98918   3.674   4.381   3.130 -0.2539 -0.3796 -0.0536
28980SOL    HW198919   3.751   4.350   3.082 -0.9359 -1.4001 -0.5274
28980SOL    HW298920   3.690   4.357   3.221  0.0460 -0.4583 -0.1288
28981SOL     OW98921   7.561   7.140   2.885  0.3481 -0.3585 -0.0241
28981SOL    HW198922   7.502   7.207   2.919  1.6636  2.0604 -2.1509
28981SOL    HW298923   7.632   7.136   2.948  0.4797  0.6320 -0.0931
28982SOL     OW98924   2.302  12.669  10.249  0.0072 -0.0195  0.3605
28982SOL    HW198925   2.375  12.641  10.195  0.2034  1.4873 -0.2126
28982SOL    HW298926   2.311  12.620  10.331  1.9468  0.5113  0.4985
28983SOL     OW98927   2.624  10.736   6.538  0.0261  0.2532  0.2682
28983SOL    HW198928   2.675  10.811   6.507 -0.5545  1.0035  1.0695
28983SOL    HW298929   2.688  10.678   6.579  0.4134  0.5412  0.0743
28984SOL     OW98930   3.504   6.198   5.320  0.4201  0.1084  0.0330
28984SOL    HW198931   3.454   6.127   5.361  1.4402 -0.0383  1.0614
28984SOL    HW298932   3.572   6.219   5.383  0.9281  1.1345 -0.8265
28985SOL     OW98933  11.267  11.382  13.671  0.1493 -0.0248 -0.4989
28985SOL    HW198934  11.358  11.365  13.696 -0.2723  0.8396  1.8936
28985SOL    HW298935  11.250  11.320  13.600  1.6711 -2.4058  1.0484
28986SOL     OW98936   8.721   1.861  11.199  0.0256 -0.0750  0.4296
28986SOL    HW198937   8.792   1.907  11.155 -0.3646  0.0310 -0.0901
28986SOL    HW298938   8.654   1.928  11.213  0.1014 -0.1288  1.0945
28987SOL     OW98939   5.199  10.230   9.005 -0.4008  0.7256  0.1113
28987SOL    HW198940   5.144  10.258   8.932  1.0060  1.2820 -0.7696
28987SOL    HW298941   5.278  10.283   8.998  0.1557  0.1438  1.5046
28988SOL     OW98942   2.529   0.888  13.065 -0.1819  0.3021 -0.4243
28988SOL    HW198943   2.456   0.899  13.004 -0.5987  0.4654  0.0997
28988SOL    HW298944   2.580   0.816  13.027 -0.3387  0.5212 -1.0591
28989SOL     OW98945  13.167   6.462   4.723 -0.2287  0.1049 -0.3980
28989SOL    HW198946  13.101   6.395   4.734 -0.6056  0.3302 -1.1827
28989SOL    HW298947  13.228   6.426   4.658  0.3340 -0.0337  0.1933
28990SOL     OW98948   8.318   9.700   5.008 -0.3344  0.1792  0.2665
28990SOL    HW198949   8.322   9.605   5.016  0.2732  0.1750 -0.0490
28990SOL    HW298950   8.383   9.722   4.941 -0.0861  0.8622  0.7118
28991SOL     OW98951   0.950  10.991   9.561 -0.3213 -0.0473  0.2179
28991SOL    HW198952   0.882  10.926   9.572  0.1650 -0.4951  0.6763
28991SOL    HW298953   0.995  10.993   9.646 -0.5601  1.1505  0.3336
28992SOL     OW98954   8.010   2.720  10.055 -0.0579  0.2749 -1.1365
28992SOL    HW198955   7.949   2.669  10.002 -0.7541 -0.9588  0.7303
28992SOL    HW298956   8.066   2.654  10.097 -1.0047  0.9372  1.3779
28993SOL     OW98957   9.120  12.043   0.788 -0.0389 -0.2877  0.3561
28993SOL    HW198958   9.091  11.973   0.729 -1.4797  2.5118 -2.5433
28993SOL    HW298959   9.189  12.088   0.739 -1.8466  2.6377  0.2971
28994SOL     OW98960  12.033  10.421   9.791  0.8534  0.0958 -0.1703
28994SOL    HW198961  11.966  10.430   9.859 -0.9836 -2.4742 -1.4586
28994SOL    HW298962  12.026  10.501   9.739 -0.4479  0.3770  0.4017
28995SOL     OW98963   6.140   6.793  10.627 -0.2279 -0.4066 -0.0614
28995SOL    HW198964   6.224   6.833  10.651 -0.3071 -1.1830  1.6333
28995SOL    HW298965   6.137   6.799  10.531  0.7805  1.5431 -0.0196
28996SOL     OW98966   0.431   0.640   9.275 -0.0943 -0.6151 -0.8431
28996SOL    HW198967   0.493   0.707   9.247  1.9763 -2.1409 -0.2211
28996SOL    HW298968   0.449   0.565   9.217 -1.0970 -1.2309 -0.3913
28997SOL     OW98969   7.861   4.079   2.666  0.3669  0.1154 -0.0080
28997SOL    HW198970   7.950   4.054   2.643  1.1176  1.9926  0.7248
28997SOL    HW298971   7.844   4.159   2.615 -0.9490 -0.2716 -0.2281
28998SOL     OW98972   6.441   1.898   8.142 -0.1622  0.3660  0.0936
28998SOL    HW198973   6.404   1.907   8.230  0.2845 -0.9688  0.4526
28998SOL    HW298974   6.485   1.981   8.125 -1.3249  1.1166  0.5940
28999SOL     OW98975  12.916  10.647   2.079 -0.1090  0.6339  0.4322
28999SOL    HW198976  12.974  10.721   2.096  0.6879  0.1095  0.0216
28999SOL    HW298977  12.938  10.618   1.991 -0.6693  0.1372  0.4479
29000SOL     OW98978  10.397   2.432  12.859 -0.3231 -0.3145 -0.3230
29000SOL    HW198979  10.376   2.455  12.768 -1.2193  0.7775  0.1388
29000SOL    HW298980  10.491   2.417  12.858 -0.2641  0.0206 -1.3709
29001SOL     OW98981   5.585   1.305   1.332 -0.5719 -0.9031 -0.1234
29001SOL    HW198982   5.601   1.339   1.244 -1.7691 -1.4873 -0.5710
29001SOL    HW298983   5.610   1.213   1.328 -0.1791 -0.8231  0.2938
29002SOL     OW98984   2.835   2.947  13.121  0.4578  0.1590 -0.6903
29002SOL    HW198985   2.860   3.001  13.197  0.0963 -0.4186 -0.1558
29002SOL    HW298986   2.917   2.906  13.094  0.3661 -0.7087  0.2575
29003SOL     OW98987  11.019   3.673   5.438 -0.2143  0.0883  0.8097
29003SOL    HW198988  11.092   3.664   5.499 -0.7504  1.1330  1.6286
29003SOL    HW298989  10.951   3.718   5.487 -0.6873  0.9126 -0.5280
29004SOL     OW98990  13.931   2.571   7.405 -0.6183 -0.3296 -0.2068
29004SOL    HW198991  13.857   2.552   7.347 -1.4608 -0.4587  0.8852
29004SOL    HW298992  13.930   2.667   7.413 -0.0897 -0.2526 -0.9043
29005SOL     OW98993   0.872  12.931   5.293 -0.0753  0.2750 -0.0793
29005SOL    HW198994   0.844  12.865   5.355 -0.0215 -0.0646 -0.4156
29005SOL    HW298995   0.908  13.001   5.348  0.2428 -0.1479  0.2622
29006SOL     OW98996   2.364   2.656   9.641  0.2515 -0.2753 -0.2532
29006SOL    HW198997   2.290   2.693   9.689  0.5286 -0.0410  0.0001
29006SOL    HW298998   2.325   2.610   9.567 -0.1222  0.2021 -0.3578
29007SOL     OW98999   0.886  10.677  10.326 -0.2032  0.4211 -0.6686
29007SOL    HW199000   0.855  10.750  10.273  0.2466 -0.2732 -1.9106
29007SOL    HW299001   0.881  10.601  10.269  0.5657 -0.3078  0.1941
29008SOL     OW99002   8.962   8.395  12.956  0.5312  0.2190 -0.4310
29008SOL    HW199003   9.051   8.366  12.938  0.7668 -0.3380  1.3793
29008SOL    HW299004   8.909   8.316  12.947  0.2542  0.4939 -1.2481
29009SOL     OW99005  12.169  13.806  12.402 -0.0585 -0.0133 -0.2883
29009SOL    HW199006  12.247  13.852  12.372 -0.0055  0.0254 -0.0942
29009SOL    HW299007  12.199  13.716  12.415  0.2325  0.2386  0.8610
29010SOL     OW99008   2.854  10.800  12.121  0.8065 -0.3003 -0.0155
29010SOL    HW199009   2.849  10.895  12.116 -0.3922 -0.3380  0.0633
29010SOL    HW299010   2.929  10.782  12.178  2.3503  0.5273 -1.6849
29011SOL     OW99011   4.571   4.497   5.403  0.4300  0.3501 -0.7783
29011SOL    HW199012   4.583   4.577   5.352  0.6621  0.7345 -0.1381
29011SOL    HW299013   4.637   4.437   5.369 -0.2054  0.1685 -1.7473
29012SOL     OW99014   6.495   7.713  11.288 -0.1461 -0.0214  0.5387
29012SOL    HW199015   6.423   7.695  11.228  0.5101 -0.6451 -0.0761
29012SOL    HW299016   6.552   7.636  11.282 -0.1500 -0.1951  2.1035
29013SOL     OW99017   0.905   9.553   7.526 -0.5563 -0.2256 -0.0507
29013SOL    HW199018   0.912   9.584   7.617  0.9042 -0.4924 -0.0487
29013SOL    HW299019   0.860   9.623   7.480 -2.6442 -0.6890  1.1542
29014SOL     OW99020   1.694   1.049  10.630 -0.3146  0.3248 -0.4429
29014SOL    HW199021   1.760   1.026  10.564 -0.7274 -0.1370 -0.6987
29014SOL    HW299022   1.637   1.112  10.585  0.7250  1.7855  0.2052
29015SOL     OW99023   2.197   1.849  12.671 -0.5662 -0.2314 -0.1381
29015SOL    HW199024   2.141   1.899  12.612 -0.1965  0.7345  0.2969
29015SOL    HW299025   2.159   1.761  12.673 -0.3942 -0.4015 -2.0740
29016SOL     OW99026   7.550  12.474   1.865 -0.0667 -0.0435  0.5580
29016SOL    HW199027   7.522  12.562   1.839  1.7586  0.7411  1.0664
29016SOL    HW299028   7.469  12.424   1.873 -1.1475  1.5798  0.2101
29017SOL     OW99029   5.790   4.444   8.672 -0.0168  0.4979  0.2326
29017SOL    HW199030   5.722   4.508   8.692 -0.2839  0.1968  0.2941
29017SOL    HW299031   5.836   4.432   8.755 -0.0174  0.5482  0.2413
29018SOL     OW99032   7.704   6.223   2.114 -0.0762  0.3074  0.1396
29018SOL    HW199033   7.709   6.307   2.067 -0.4077  0.5728  0.5692
29018SOL    HW299034   7.676   6.247   2.203 -1.7691 -0.4075 -0.1653
29019SOL     OW99035   1.528   6.300  11.524 -0.4927  0.4108 -0.4171
29019SOL    HW199036   1.580   6.379  11.542 -0.3374  0.5389 -1.3718
29019SOL    HW299037   1.460   6.300  11.591 -0.6019  1.4574 -0.5157
29020SOL     OW99038  11.903   5.185   5.619 -0.4354  0.4464  0.2139
29020SOL    HW199039  11.979   5.128   5.616 -1.5423 -1.2481  1.9055
29020SOL    HW299040  11.855   5.165   5.539 -0.3525 -0.3363  0.3547
29021SOL     OW99041   9.359   8.234  13.174  0.1788 -0.0526 -0.6001
29021SOL    HW199042   9.394   8.287  13.102 -0.7367 -0.3023 -1.2561
29021SOL    HW299043   9.373   8.143  13.146 -0.6177 -0.1515 -0.6894
29022SOL     OW99044   3.994   0.148   9.591 -0.4805  0.0457 -0.6423
29022SOL    HW199045   4.084   0.168   9.565 -0.6900  1.4072 -0.4149
29022SOL    HW299046   3.981   0.198   9.672 -1.4162 -0.2132 -0.6211
29023SOL     OW99047  10.631  13.963   4.750  0.1337  0.2816 -0.1006
29023SOL    HW199048  10.632  13.927   4.661 -1.5615 -0.1512  0.0221
29023SOL    HW299049  10.538  13.965   4.774  0.5659  0.2747  1.7134
29024SOL     OW99050   9.663   4.102   8.877 -0.3812 -0.3084  0.0119
29024SOL    HW199051   9.700   4.171   8.822 -0.9818 -0.7977 -1.0268
29024SOL    HW299052   9.709   4.023   8.849  1.2991 -0.1833  2.1267
29025SOL     OW99053  10.363  12.738   2.753  0.2620  0.0225  0.3764
29025SOL    HW199054  10.345  12.828   2.728 -1.8753 -0.6173 -0.6028
29025SOL    HW299055  10.446  12.718   2.710  0.7709  1.5028  0.6134
29026SOL     OW99056  11.366   6.974   4.464 -0.0719 -0.3346  0.3184
29026SOL    HW199057  11.457   6.991   4.488 -0.4675  1.9799  0.3687
29026SOL    HW299058  11.360   7.000   4.372 -0.7341 -0.2282  0.3855
29027SOL     OW99059   4.250   1.888   6.799  0.1472 -0.1946 -0.2039
29027SOL    HW199060   4.223   1.953   6.734  1.3559  0.0500 -0.4875
29027SOL    HW299061   4.212   1.918   6.881 -1.6836 -0.6765 -0.8119
29028SOL     OW99062   7.097   9.853  13.605 -0.0198 -0.5847 -0.1296
29028SOL    HW199063   7.118   9.766  13.638  0.7100  0.5205  2.6746
29028SOL    HW299064   7.035   9.889  13.669  3.2992  2.6078  1.7128
29029SOL     OW99065  10.864   0.844   4.026  0.7429  0.2688 -0.1302
29029SOL    HW199066  10.918   0.913   3.986 -0.2820  0.2864 -1.5885
29029SOL    HW299067  10.806   0.816   3.955 -0.6601 -0.2463  1.1712
29030SOL     OW99068  12.932   1.166   0.834  0.1522 -0.1933  0.3604
29030SOL    HW199069  12.919   1.084   0.881 -0.0709 -1.3223 -1.5800
29030SOL    HW299070  12.893   1.233   0.890 -2.6750 -1.8320  0.4881
29031SOL     OW99071   1.272  12.234  10.425  0.0959 -0.2890  0.3008
29031SOL    HW199072   1.288  12.252  10.517 -1.9619 -4.1020  1.6281
29031SOL    HW299073   1.329  12.160  10.404 -2.0466 -1.8702 -0.3074
29032SOL     OW99074   7.695   7.983   1.249 -0.2149 -0.7450 -0.2170
29032SOL    HW199075   7.720   8.015   1.162  0.6989 -1.8557 -0.3861
29032SOL    HW299076   7.650   8.057   1.290 -0.2849 -0.0705 -1.4802
29033SOL     OW99077   0.056   3.291   0.299  0.3446  0.5047  0.2638
29033SOL    HW199078   0.045   3.215   0.356  0.4465  0.3479  0.0716
29033SOL    HW299079   0.144   3.323   0.319  0.8224 -0.2230 -0.6250
29034SOL     OW99080   7.054   6.089   9.472  0.2187  0.3953 -0.1646
29034SOL    HW199081   7.113   6.017   9.451  0.7045  0.4607  0.9021
29034SOL    HW299082   6.983   6.048   9.522  0.4041  0.6171  0.2888
29035SOL     OW99083   3.637  11.856  10.594 -0.9754 -0.0639  0.2867
29035SOL    HW199084   3.727  11.855  10.562 -0.9022 -0.4565  0.5037
29035SOL    HW299085   3.584  11.872  10.516 -0.6614  1.1465  0.2966
29036SOL     OW99086   5.203   1.604   5.562 -0.0532 -0.1649  0.0083
29036SOL    HW199087   5.152   1.604   5.643  0.1488 -0.8551  0.1422
29036SOL    HW299088   5.237   1.515   5.555  1.6656  0.4357  0.2509
29037SOL     OW99089  10.195   8.543   0.388 -0.0810 -0.2429 -0.2349
29037SOL    HW199090  10.123   8.489   0.358 -0.8295  1.0789 -0.9191
29037SOL    HW299091  10.264   8.529   0.323 -0.3514 -0.2111 -0.5336
29038SOL     OW99092   4.206   4.135   2.911  0.4197 -0.2834  0.0393
29038SOL    HW199093   4.226   4.059   2.857  0.9180  1.6273 -2.6760
29038SOL    HW299094   4.290   4.179   2.924 -0.2956  1.9066 -1.9899
29039SOL     OW99095  13.585   8.718  11.535  0.1730  0.4593 -0.2607
29039SOL    HW199096  13.576   8.633  11.577 -0.5147  1.1540  1.0675
29039SOL    HW299097  13.495   8.748  11.521  0.3283  2.0937  1.7636
29040SOL     OW99098   0.587   5.865   0.180 -0.4079 -0.0984  0.5143
29040SOL    HW199099   0.668   5.870   0.231  0.0277 -0.7314 -0.0917
29040SOL    HW299100   0.540   5.946   0.200  1.1769  1.1109 -0.4376
29041SOL     OW99101   1.216   7.334   1.127  0.1671  0.0874 -0.1883
29041SOL    HW199102   1.194   7.242   1.114  0.0975 -0.1592  1.4731
29041SOL    HW299103   1.269   7.335   1.206  0.9986  1.3771 -0.7292
29042SOL     OW99104   5.143   3.369  12.262 -0.4567 -0.0817 -0.1576
29042SOL    HW199105   5.089   3.395  12.187 -1.2279 -1.2128 -0.0063
29042SOL    HW299106   5.087   3.385  12.338  0.4445  1.3987  0.2486
29043SOL     OW99107  13.070  12.638   8.097  0.1651  0.1012 -0.1171
29043SOL    HW199108  13.142  12.620   8.158  0.2772  0.2560 -0.2010
29043SOL    HW299109  13.055  12.732   8.105 -0.5781 -0.0658  0.4916
29044SOL     OW99110   5.490   0.184   8.000 -0.7646 -0.8816 -0.7775
29044SOL    HW199111   5.439   0.237   8.061  1.0609 -0.5134  0.5017
29044SOL    HW299112   5.574   0.170   8.043 -0.5255 -3.3657 -1.8401
29045SOL     OW99113   9.538   7.009   1.106  0.2965 -0.2030 -0.2584
29045SOL    HW199114   9.534   7.093   1.151 -0.9731  0.0661 -0.8199
29045SOL    HW299115   9.496   7.026   1.021 -1.5750 -1.7947  0.2860
29046SOL     OW99116   1.729   3.128   1.100 -0.0014  0.0825 -0.6272
29046SOL    HW199117   1.786   3.064   1.143 -1.4831 -1.1537 -0.4281
29046SOL    HW299118   1.761   3.213   1.131  0.5307 -0.6575  0.9807
29047SOL     OW99119   0.168   1.309  10.849 -0.0626 -0.0360  0.1877
29047SOL    HW199120   0.243   1.369  10.850 -0.5287  0.5818 -0.5982
29047SOL    HW299121   0.152   1.289  10.941  0.4318  0.6404  0.4293
29048SOL     OW99122  13.020   7.587   6.412 -0.0924 -0.2495  0.1176
29048SOL    HW199123  13.043   7.644   6.485 -0.6539  0.2280 -0.0752
29048SOL    HW299124  13.104   7.570   6.368  0.9463 -3.5492  2.9349
29049SOL     OW99125  10.859   7.341   3.656  0.5002  0.5402 -0.8526
29049SOL    HW199126  10.948   7.343   3.693  0.4193  1.9068 -0.6913
29049SOL    HW299127  10.810   7.287   3.718  0.3751  2.7444  1.1429
29050SOL     OW99128   3.845   8.017  11.068  0.2219 -0.8462  0.5642
29050SOL    HW199129   3.798   8.036  11.149 -1.4189 -0.3530 -0.4526
29050SOL    HW299130   3.882   8.101  11.041  0.0320 -0.8224  0.3695
29051SOL     OW99131   2.252   8.464  13.692  0.3869  0.2405 -0.1577
29051SOL    HW199132   2.298   8.496  13.770  2.1567 -2.3445 -0.0048
29051SOL    HW299133   2.315   8.475  13.621 -0.7988  1.5158 -1.0594
29052SOL     OW99134   8.184   4.993   3.626  0.2428 -0.7904  0.2221
29052SOL    HW199135   8.169   4.917   3.569 -1.0636  0.0011 -0.5157
29052SOL    HW299136   8.122   5.059   3.596 -1.0454 -0.5832  3.0153
29053SOL     OW99137  13.907  10.376   1.147 -0.5541 -0.0150  0.5213
29053SOL    HW199138  13.834  10.318   1.169 -1.1069 -0.3244 -1.8964
29053SOL    HW299139  13.866  10.462   1.134 -0.5433 -0.1975 -0.8744
29054SOL     OW99140   5.191   2.971   2.679 -0.1114  0.8676 -0.1416
29054SOL    HW199141   5.277   2.976   2.639 -0.1436  1.7382 -0.1167
29054SOL    HW299142   5.132   2.950   2.606  0.3633 -2.0256  0.1850
29055SOL     OW99143   5.907   5.314   3.590 -0.0257  0.1504 -0.2062
29055SOL    HW199144   5.860   5.305   3.673 -0.4510 -0.1445 -0.4732
29055SOL    HW299145   5.944   5.227   3.574  0.0567  0.2070 -0.3225
29056SOL     OW99146   4.393   0.191  12.941  0.2391 -0.2467 -0.1650
29056SOL    HW199147   4.397   0.254  12.870  1.4352 -0.7310 -0.5541
29056SOL    HW299148   4.482   0.157  12.948  0.5127  0.7947  2.5027
29057SOL     OW99149  10.017   4.748   8.270  0.0341  0.0141  0.1959
29057SOL    HW199150   9.940   4.772   8.321  1.4813 -0.6503  2.8609
29057SOL    HW299151   9.984   4.686   8.205 -1.9308  1.1489  0.0166
29058SOL     OW99152  12.363   6.288   3.118 -0.5904  0.2092  0.0413
29058SOL    HW199153  12.417   6.244   3.184 -0.2060  1.3381  0.4890
29058SOL    HW299154  12.289   6.229   3.105 -0.6808 -0.0259  1.4971
29059SOL     OW99155   6.102   3.175  11.212  0.5013  0.0992  0.0839
29059SOL    HW199156   6.015   3.186  11.173 -0.4352  0.9519  2.1865
29059SOL    HW299157   6.101   3.086  11.248  1.0139 -0.3593 -1.0170
29060SOL     OW99158   2.980  13.707   1.266 -0.2521 -0.2681  0.2700
29060SOL    HW199159   2.927  13.753   1.331  1.5191 -0.0655  1.6464
29060SOL    HW299160   3.042  13.773   1.235 -0.9322 -0.4248 -1.5178
29061SOL     OW99161   3.485   6.976  10.676  0.3407 -0.6299 -0.4391
29061SOL    HW199162   3.553   7.014  10.621  0.7485 -0.7148 -0.0060
29061SOL    HW299163   3.466   7.043  10.741  0.1348 -0.6709 -0.4574
29062SOL     OW99164   3.610   1.964  12.486  0.1418  0.2873 -0.0912
29062SOL    HW199165   3.654   1.888  12.449  0.5644 -0.4204  1.7203
29062SOL    HW299166   3.594   2.022  12.412 -0.7930 -1.8449 -1.6332
29063SOL     OW99167  12.229  12.036  12.318 -0.1271 -0.3452 -0.0838
29063SOL    HW199168  12.260  12.050  12.407 -2.5989  1.4097  0.6161
29063SOL    HW299169  12.224  12.124  12.280 -3.8537 -0.4105 -0.1268
29064SOL     OW99170   9.549   1.582  12.345 -0.2020  0.0810 -0.1647
29064SOL    HW199171   9.535   1.584  12.439  0.4022 -1.5754  0.0062
29064SOL    HW299172   9.635   1.623  12.332 -0.0425 -0.1743  0.0744
29065SOL     OW99173  12.036   7.674  10.204  0.3753 -0.2235 -0.3224
29065SOL    HW199174  12.090   7.693  10.281 -0.3575 -0.3666  0.2434
29065SOL    HW299175  11.962   7.624  10.238  0.0025 -0.2357 -1.1143
29066SOL     OW99176  12.857   7.576  12.661 -0.2294  0.1944  0.7237
29066SOL    HW199177  12.917   7.521  12.610  0.6261  1.0211  0.8186
29066SOL    HW299178  12.891   7.571  12.750 -1.1260 -0.4309  1.0407
29067SOL     OW99179   0.066   7.339   1.156 -0.0952  0.0739  0.4046
29067SOL    HW199180   0.122   7.289   1.214 -0.8370 -1.2697  0.0036
29067SOL    HW299181   0.060   7.286   1.077  1.6532  2.2880 -1.3452
29068SOL     OW99182  10.697   5.799   2.287 -0.0040 -0.1463 -0.4532
29068SOL    HW199183  10.652   5.717   2.309 -1.1812  0.1424 -1.6081
29068SOL    HW299184  10.668   5.861   2.353 -1.5605  0.0916 -1.2955
29069SOL     OW99185   3.790   2.111   9.610 -0.5649 -0.1330 -0.2761
29069SOL    HW199186   3.745   2.151   9.684  0.2672  1.1699 -0.4322
29069SOL    HW299187   3.821   2.027   9.643  1.2329  1.1241  1.4242
29070SOL     OW99188   4.037  13.840   1.234  0.4405 -0.1078  0.0056
29070SOL    HW199189   3.944  13.858   1.250  0.2959  0.8509 -1.7543
29070SOL    HW299190   4.080  13.925   1.242  0.7886 -0.1070 -1.5529
29071SOL     OW99191   2.818  11.845   3.055  0.1213  0.5199  0.1778
29071SOL    HW199192   2.851  11.855   2.966 -0.5935  1.9945  0.0553
29071SOL    HW299193   2.766  11.765   3.053  0.4248  0.3394 -0.6313
29072SOL     OW99194  13.932   3.838  13.460  0.1530  0.4975 -0.4349
29072SOL    HW199195  13.859   3.776  13.456  0.0396  0.5149  0.8082
29072SOL    HW299196  13.907   3.899  13.530  1.1008  0.8306 -0.3744
29073SOL     OW99197   9.166  11.961   2.976 -0.3085  0.1953 -0.1504
29073SOL    HW199198   9.246  12.009   2.956 -1.6688  2.3217 -0.8251
29073SOL    HW299199   9.128  12.007   3.051 -0.2806 -1.5987  1.0151
29074SOL     OW99200  11.178   0.444   9.000  0.0083 -0.4667 -0.0597
29074SOL    HW199201  11.084   0.434   9.012 -0.1509  0.4151 -0.4658
29074SOL    HW299202  11.217   0.383   9.062 -0.8302 -0.5043  0.4474
29075SOL     OW99203   5.639   4.749   9.302  0.2536  0.1217 -0.3452
29075SOL    HW199204   5.606   4.801   9.229  0.5365 -0.1245 -0.6511
29075SOL    HW299205   5.623   4.804   9.379 -0.4769  0.1836 -0.5308
29076SOL     OW99206   8.112  10.493  13.138  0.1076  0.4685 -0.3833
29076SOL    HW199207   8.075  10.487  13.049 -1.5246  1.6474  0.1558
29076SOL    HW299208   8.040  10.527  13.191  1.1921  0.2110  1.3251
29077SOL     OW99209  13.753   8.255   4.953  0.5430  0.3273 -0.8235
29077SOL    HW199210  13.791   8.294   5.032 -1.5375  1.5270 -0.3236
29077SOL    HW299211  13.746   8.162   4.973  0.5276  0.5407  0.2170
29078SOL     OW99212   5.968  11.534   9.507 -0.3433  0.0025 -0.2529
29078SOL    HW199213   5.961  11.597   9.435 -1.2332 -1.4114 -1.4546
29078SOL    HW299214   5.879  11.506   9.524 -0.0153 -0.5482  0.6342
29079SOL     OW99215   4.594   0.869  13.759  0.2265  0.2442 -0.7486
29079SOL    HW199216   4.503   0.852  13.786  0.0519  1.4269 -0.5369
29079SOL    HW299217   4.628   0.783  13.734 -1.0483 -0.1785 -1.1201
29080SOL     OW99218   7.346   0.446   7.678 -0.1908 -0.1743  0.7221
29080SOL    HW199219   7.271   0.474   7.626 -0.1402  0.7424  1.1335
29080SOL    HW299220   7.331   0.483   7.764  1.5525  1.5039  0.3832
29081SOL     OW99221   5.548   2.226   3.557 -0.0944  0.3519 -0.1488
29081SOL    HW199222   5.589   2.142   3.579  2.8050  2.0161  1.3243
29081SOL    HW299223   5.568   2.239   3.465 -0.2142 -0.3778 -0.2841
29082SOL     OW99224  13.284   9.058   1.779  0.3113 -0.1214 -0.1718
29082SOL    HW199225  13.269   8.999   1.705  0.7189  0.1215 -0.4572
29082SOL    HW299226  13.206   9.113   1.782 -0.0226 -0.6009  0.0295
29083SOL     OW99227  11.307   4.810   7.202  0.3003  0.0671 -0.5095
29083SOL    HW199228  11.369   4.878   7.176  1.0482 -0.3617  0.1277
29083SOL    HW299229  11.292   4.825   7.295 -1.3744  0.8061 -0.8662
29084SOL     OW99230   1.595  13.060   4.305  0.7003  0.2785 -0.3759
29084SOL    HW199231   1.534  13.121   4.347 -2.7681 -2.0274 -1.6301
29084SOL    HW299232   1.597  12.984   4.363  1.2186 -0.2863 -1.1178
29085SOL     OW99233   6.025  11.534   4.936  0.0868 -0.1323 -0.9514
29085SOL    HW199234   6.114  11.509   4.960  0.7287  2.0500 -0.8710
29085SOL    HW299235   6.011  11.618   4.980 -2.5513 -1.0656  0.1939
29086SOL     OW99236   1.438  11.103   3.221  0.2503  0.1558  0.2618
29086SOL    HW199237   1.443  11.080   3.314 -1.0867 -2.1157 -0.1461
29086SOL    HW299238   1.365  11.165   3.216 -1.2487 -1.5168  0.4959
29087SOL     OW99239   0.371   2.017  11.234  0.6035  0.7163  0.0578
29087SOL    HW199240   0.286   2.014  11.190  0.9187 -1.6511 -0.5206
29087SOL    HW299241   0.403   2.106  11.217 -1.8184  1.7822  0.5159
29088SOL     OW99242  13.455   4.890   7.141  0.3016  0.3222 -0.3687
29088SOL    HW199243  13.547   4.912   7.134  0.2620  0.0720 -2.5085
29088SOL    HW299244  13.426   4.880   7.050 -2.0421  1.2268  0.2069
29089SOL     OW99245  11.166   2.380  13.065 -0.1255  0.3660  0.4360
29089SOL    HW199246  11.135   2.315  13.128 -1.5576 -1.1138 -1.6587
29089SOL    HW299247  11.249   2.410  13.100  0.6270 -2.6364  1.4936
29090SOL     OW99248   0.056   6.938  10.218  0.1257 -0.0751 -0.3267
29090SOL    HW199249   0.045   7.032  10.206  1.5286  0.0540 -0.7563
29090SOL    HW299250   0.134   6.916  10.167 -0.0080 -1.4202  0.0104
29091SOL     OW99251   5.738  13.055   5.856  0.5300 -0.5299 -0.0803
29091SOL    HW199252   5.667  13.044   5.794  1.2343 -0.8691 -0.8395
29091SOL    HW299253   5.702  13.113   5.924 -0.9249 -1.8255  0.3069
29092SOL     OW99254   9.533   4.463   9.106 -0.1826  0.0738 -0.2612
29092SOL    HW199255   9.454   4.502   9.144 -0.1296  0.0031 -0.0820
29092SOL    HW299256   9.503   4.379   9.070 -0.0041 -0.3622  0.5973
29093SOL     OW99257   5.070   0.097   7.084  0.5206 -0.8441 -0.6733
29093SOL    HW199258   5.138   0.126   7.024  1.7320 -1.7861  0.2019
29093SOL    HW299259   4.989   0.105   7.034  1.2709  0.2005 -1.7735
29094SOL     OW99260   9.728   0.658  10.948  0.0700 -0.0971 -0.5092
29094SOL    HW199261   9.760   0.629  11.033 -2.2062 -0.9280  0.1455
29094SOL    HW299262   9.807   0.678  10.898  1.6415 -2.5731  0.7490
29095SOL     OW99263   2.591   9.722   2.665 -0.1096  0.0172  0.1120
29095SOL    HW199264   2.609   9.779   2.740 -0.3590  0.7442 -0.3731
29095SOL    HW299265   2.570   9.782   2.593 -0.4677 -0.6910 -0.3880
29096SOL     OW99266   1.808   9.965   2.247 -0.3045 -0.4803  0.3120
29096SOL    HW199267   1.774   9.945   2.334  0.6230 -0.6680  0.6405
29096SOL    HW299268   1.898   9.933   2.249  0.4895  1.6249  0.0740
29097SOL     OW99269   1.438   5.679   1.561  0.1327 -0.0745  0.2215
29097SOL    HW199270   1.350   5.716   1.553  0.3433  0.1403 -1.5575
29097SOL    HW299271   1.442   5.613   1.491  1.5353  0.2437 -0.0300
29098SOL     OW99272  10.798   8.467   8.424 -0.2914 -0.0484  0.5711
29098SOL    HW199273  10.865   8.407   8.390 -0.9636 -0.1061 -0.6949
29098SOL    HW299274  10.811   8.548   8.375 -0.2251  0.4269  1.3595
29099SOL     OW99275   7.290   9.714   6.406 -0.6424  0.1835  0.2034
29099SOL    HW199276   7.211   9.665   6.430  0.3046 -1.5747 -0.1165
29099SOL    HW299277   7.267   9.758   6.324 -0.8180 -1.5953 -0.7455
29100SOL     OW99278  10.747   2.904   4.083  0.2990 -0.0240 -0.4052
29100SOL    HW199279  10.673   2.854   4.052  0.0527 -0.6765  1.1194
29100SOL    HW299280  10.822   2.872   4.032 -0.3880  0.4436 -1.7511
29101SOL     OW99281   9.026  11.737  10.218 -0.2142 -0.1947 -0.0716
29101SOL    HW199282   9.008  11.799  10.148 -0.4908 -0.0841  0.0963
29101SOL    HW299283   8.971  11.766  10.291 -0.4544 -0.7249 -0.0378
29102SOL     OW99284   3.651  12.923  10.806  0.4530  0.1290 -0.0807
29102SOL    HW199285   3.706  12.877  10.742  0.7438 -1.5155  1.2492
29102SOL    HW299286   3.562  12.906  10.778  0.5831  0.6446 -0.8328
29103SOL     OW99287   1.565   5.634  14.037 -0.2330 -0.6275 -0.1121
29103SOL    HW199288   1.566   5.724  14.005 -1.1815 -0.6548 -0.2546
29103SOL    HW299289   1.652   5.621  14.075  0.5537 -0.2575 -1.7218
29104SOL     OW99290   0.944   8.903  11.635 -0.0357 -0.5981 -0.3974
29104SOL    HW199291   0.972   8.995  11.629  1.8070 -1.0812  0.1076
29104SOL    HW299292   0.855   8.907  11.669  0.8286  0.9585  1.9477
29105SOL     OW99293  11.281   1.308   4.829 -0.0333 -0.4079  0.0484
29105SOL    HW199294  11.349   1.242   4.841  1.7960  1.3809 -0.0231
29105SOL    HW299295  11.308   1.357   4.752 -1.1688  0.6155  0.2685
29106SOL     OW99296   1.747  10.152  10.950  0.5559  0.0238  0.4360
29106SOL    HW199297   1.720  10.238  10.981  1.7655  0.8441 -0.6540
29106SOL    HW299298   1.712  10.146  10.862  0.4763 -0.6098  0.5066
29107SOL     OW99299   9.279   0.031  11.620 -0.2721  0.1801  0.2532
29107SOL    HW199300   9.329   0.050  11.699 -1.3631  0.2804  0.9285
29107SOL    HW299301   9.322   0.083  11.552  1.9905 -1.5120  0.2849
29108SOL     OW99302   4.920   7.690  13.306 -0.1871 -0.0335  0.1392
29108SOL    HW199303   5.006   7.703  13.347 -0.5936 -1.3575  1.5002
29108SOL    HW299304   4.940   7.670  13.215  0.9826 -0.6805  0.5161
29109SOL     OW99305   1.805   1.278   3.438 -0.1654 -0.1343  0.1817
29109SOL    HW199306   1.766   1.194   3.459  0.3050 -0.4421 -0.1628
29109SOL    HW299307   1.883   1.284   3.494 -0.1472  0.0257  0.1411
29110SOL     OW99308   5.144   6.189   6.724  0.1319 -0.1761  0.1440
29110SOL    HW199309   5.213   6.139   6.768  2.4335  2.0033 -0.7241
29110SOL    HW299310   5.117   6.254   6.789  0.8172  0.6193 -0.3360
29111SOL     OW99311  10.767   3.558   9.269 -0.0357 -0.3345 -0.7583
29111SOL    HW199312  10.776   3.633   9.328 -0.8954 -2.6736  2.6310
29111SOL    HW299313  10.687   3.575   9.219  0.6477  1.6632 -1.2614
29112SOL     OW99314   0.665   6.399  12.473 -0.0278 -0.3000  0.2958
29112SOL    HW199315   0.642   6.409  12.380 -0.4270  2.1586  0.5917
29112SOL    HW299316   0.714   6.478  12.494  0.4035 -0.9993  2.1134
29113SOL     OW99317   0.645   7.979  10.988 -0.0912 -0.0571 -0.3919
29113SOL    HW199318   0.641   7.910  10.922 -0.7264  1.0493 -1.5635
29113SOL    HW299319   0.626   7.935  11.070 -1.9070 -1.0510 -1.2905
29114SOL     OW99320   9.467  13.110  11.673  0.0476 -0.2093  0.4263
29114SOL    HW199321   9.432  13.196  11.695 -1.0695 -0.6337  0.3596
29114SOL    HW299322   9.404  13.072  11.612  1.8330 -0.0688 -1.6287
29115SOL     OW99323  13.537  12.549   1.226  0.3287 -0.3012 -0.1838
29115SOL    HW199324  13.593  12.625   1.238 -0.7395  0.5405 -0.4098
29115SOL    HW299325  13.568  12.509   1.145 -0.7713  1.4185 -1.5192
29116SOL     OW99326   5.851   6.988   1.370 -0.1401 -0.3304  0.8115
29116SOL    HW199327   5.821   6.919   1.311 -0.6590  0.3794  0.2314
29116SOL    HW299328   5.945   6.971   1.382  0.0568 -0.2676 -0.5307
29117SOL     OW99329  10.215  13.839   8.277  0.2458  0.4869 -0.0667
29117SOL    HW199330  10.240  13.830   8.185  0.7049  0.8829  0.0152
29117SOL    HW299331  10.196  13.750   8.306 -2.0000  0.5491 -1.1134
29118SOL     OW99332  13.630   3.647   8.687  0.0893  0.1701  0.3218
29118SOL    HW199333  13.706   3.644   8.629  0.3012 -1.2413  0.6388
29118SOL    HW299334  13.564   3.594   8.642 -0.4111  0.6645  0.4649
29119SOL     OW99335   1.767   9.915   9.310  0.2125 -0.3420  0.4389
29119SOL    HW199336   1.722   9.989   9.352 -0.9521 -0.1215 -1.0641
29119SOL    HW299337   1.777   9.943   9.219  0.0983 -1.8894 -0.0714
29120SOL     OW99338  11.894  11.157  11.491 -0.8936  0.4156  0.1770
29120SOL    HW199339  11.834  11.158  11.416 -0.2179  2.1152 -0.3767
29120SOL    HW299340  11.941  11.240  11.486  2.0804 -1.1310  0.1493
29121SOL     OW99341   4.896  13.154   3.274 -0.3786  0.3069  0.5385
29121SOL    HW199342   4.974  13.146   3.218  0.6030  0.5935  1.8352
29121SOL    HW299343   4.834  13.203   3.220 -0.4145 -1.5775 -1.2665
29122SOL     OW99344   1.956   4.746  12.667 -0.2063 -0.7274  0.1281
29122SOL    HW199345   1.954   4.817  12.603  0.5480  0.1375  1.0225
29122SOL    HW299346   2.046   4.746  12.700 -0.8377 -0.3784  1.9913
29123SOL     OW99347   2.283   7.906   9.682  0.1444  1.1630 -0.3833
29123SOL    HW199348   2.216   7.841   9.704  0.4863  0.9182 -0.0584
29123SOL    HW299349   2.245   7.990   9.707  0.6640  0.8684  1.5135
29124SOL     OW99350  10.249   9.818  10.892  0.0761  0.4358  0.2705
29124SOL    HW199351  10.270   9.899  10.938 -1.6088  0.0285  1.8957
29124SOL    HW299352  10.153   9.819  10.886  0.0229 -1.4314  0.3652
29125SOL     OW99353   3.102   9.967  11.422  0.4141 -0.0939  0.0565
29125SOL    HW199354   3.019   9.992  11.381  1.0462  2.2229  0.0207
29125SOL    HW299355   3.168   9.986  11.355  1.2348  1.4186  1.2110
29126SOL     OW99356   5.376   1.178   0.062  0.2875 -0.0139 -0.2528
29126SOL    HW199357   5.429   1.099   0.057  0.0447 -0.1393 -0.8971
29126SOL    HW299358   5.285   1.147   0.059  0.0727  0.0645  2.4231
29127SOL     OW99359   0.385  12.360   0.097 -0.7356 -0.2340  0.0017
29127SOL    HW199360   0.312  12.411   0.131 -0.6862 -0.9574  1.2437
29127SOL    HW299361   0.402  12.398   0.011 -1.6622  0.8558  0.2678
29128SOL     OW99362   5.849   1.120  13.626 -0.0133  0.1720 -0.3961
29128SOL    HW199363   5.836   1.182  13.555  0.5630  1.3522  0.4941
29128SOL    HW299364   5.873   1.174  13.702  0.9088 -1.1581  0.3161
29129SOL     OW99365   8.450   8.358  12.155 -0.4721  0.1490 -1.0392
29129SOL    HW199366   8.413   8.298  12.219  2.3732  0.6559  1.3156
29129SOL    HW299367   8.380   8.420  12.137 -1.3684  0.1725  1.9347
29130SOL     OW99368   0.838   4.226   0.054  0.4916 -0.4855  0.1398
29130SOL    HW199369   0.744   4.241   0.043  0.7939  1.2497 -0.3524
29130SOL    HW299370   0.875   4.242  -0.032  1.4053  0.5084  0.6853
29131SOL     OW99371   0.581   2.038  11.911  0.3014  0.0163 -0.1863
29131SOL    HW199372   0.524   1.972  11.951 -0.7346 -0.3849 -2.1701
29131SOL    HW299373   0.526   2.117  11.907  0.5079  0.1448 -0.4944
29132SOL     OW99374   7.729   0.196  13.758 -0.2945 -0.2753 -0.4631
29132SOL    HW199375   7.712   0.181  13.665  0.0098  0.5784 -0.6763
29132SOL    HW299376   7.759   0.287  13.761 -1.1779 -0.0076  0.5911
29133SOL     OW99377   1.203   0.052   6.521 -0.1438  0.1552  0.3804
29133SOL    HW199378   1.137   0.101   6.474  1.2412  0.7586 -1.0409
29133SOL    HW299379   1.257   0.118   6.564 -0.7521 -0.3462  2.0249
29134SOL     OW99380  13.547  12.372  11.812 -0.1099 -0.3567  0.0019
29134SOL    HW199381  13.508  12.369  11.725  1.0171 -0.6488 -0.5100
29134SOL    HW299382  13.496  12.439  11.859 -0.0548  0.5741 -1.2238
29135SOL     OW99383   4.693  12.125  12.279 -0.1716 -0.2091 -0.2722
29135SOL    HW199384   4.687  12.034  12.307 -0.5872  0.0558  0.5546
29135SOL    HW299385   4.615  12.167  12.315  0.6246  0.7394  0.4365
29136SOL     OW99386  12.188   1.904  11.810 -0.1954 -0.6568 -0.1399
29136SOL    HW199387  12.154   1.967  11.873 -0.2172 -0.5122 -0.2966
29136SOL    HW299388  12.244   1.955  11.752  0.3126 -0.8934  0.1299
29137SOL     OW99389   9.899   3.608   3.297  0.7155 -0.1606  0.0837
29137SOL    HW199390   9.917   3.673   3.229  1.9508 -0.3559  0.1924
29137SOL    HW299391   9.816   3.568   3.271 -0.2154  1.5985  0.1334
29138SOL     OW99392  11.309  12.094   7.679  0.3166  0.1828 -0.4505
29138SOL    HW199393  11.233  12.131   7.633 -0.6403 -0.6387  0.4293
29138SOL    HW299394  11.382  12.150   7.652 -0.9794  2.5229  0.5557
29139SOL     OW99395  11.818   9.489   3.406 -0.9760  0.1202  0.6563
29139SOL    HW199396  11.841   9.493   3.313 -1.3810 -1.2954  0.4707
29139SOL    HW299397  11.760   9.413   3.413  1.0406 -1.4080  2.4578
29140SOL     OW99398  11.791   9.416   5.114  0.2711  0.1352 -0.3562
29140SOL    HW199399  11.881   9.442   5.134  0.1721  0.4639 -0.3412
29140SOL    HW299400  11.749   9.496   5.084 -0.7492  0.5671  2.0678
29141SOL     OW99401   8.426  11.570  13.550  0.3808 -0.5113 -0.4393
29141SOL    HW199402   8.426  11.640  13.484 -0.6414  1.5128  1.5772
29141SOL    HW299403   8.517  11.565  13.579  0.3965  0.3551 -0.2902
29142SOL     OW99404  13.660  12.802   1.531  0.5904 -0.0293  0.2770
29142SOL    HW199405  13.647  12.822   1.439  1.4586  0.3152  0.2166
29142SOL    HW299406  13.687  12.886   1.570  0.2195 -0.1675  0.8472
29143SOL     OW99407   5.456   2.062  13.861 -0.1787 -0.0722 -0.3997
29143SOL    HW199408   5.429   2.044  13.771 -0.1133  1.5092 -0.7553
29143SOL    HW299409   5.513   1.989  13.883 -1.0999 -1.0839 -1.2327
29144SOL     OW99410  10.216   2.318  13.326  0.2431 -0.0005  0.1428
29144SOL    HW199411  10.263   2.387  13.279  1.2189 -0.2932  0.6694
29144SOL    HW299412  10.200   2.251  13.259  1.6126 -0.4089  0.1925
29145SOL     OW99413   4.064  13.828   2.784  0.4572 -0.2863 -0.1097
29145SOL    HW199414   4.097  13.739   2.772 -1.1557 -1.1406  1.3057
29145SOL    HW299415   3.975  13.825   2.749 -0.3125  0.1795  1.6793
29146SOL     OW99416   2.547   0.002   0.067 -0.2520 -0.1669 -0.2602
29146SOL    HW199417   2.535   0.045  -0.018 -0.6463 -0.8495 -0.5589
29146SOL    HW299418   2.467   0.021   0.115 -0.0027  0.2707 -0.0170
29147SOL     OW99419  12.794  11.134   7.229  0.3582  0.2603 -0.0748
29147SOL    HW199420  12.783  11.058   7.287  0.9806  0.3986  0.2307
29147SOL    HW299421  12.717  11.132   7.172  0.6433 -0.9219 -0.4425
29148SOL     OW99422   1.383  13.199   0.877 -0.3443  0.0676  0.1671
29148SOL    HW199423   1.419  13.230   0.960 -0.6924  2.1281 -0.3768
29148SOL    HW299424   1.336  13.275   0.842 -1.6331 -1.2557 -1.1312
29149SOL     OW99425  10.288   6.653   8.047 -0.0943 -0.1965  0.4337
29149SOL    HW199426  10.257   6.563   8.050  2.0778 -1.0555 -0.5818
29149SOL    HW299427  10.311   6.668   7.956  1.3811  0.7020  0.9144
29150SOL     OW99428   2.743   4.803   0.831  0.6652  0.5198 -0.6983
29150SOL    HW199429   2.785   4.883   0.862 -0.8883  1.1985 -0.2481
29150SOL    HW299430   2.710   4.761   0.911  1.8436 -0.8247 -0.8794
29151SOL     OW99431   0.889   6.638   2.565 -1.0256 -0.0044 -0.5088
29151SOL    HW199432   0.937   6.713   2.530  0.0409 -0.9882 -1.2405
29151SOL    HW299433   0.797   6.660   2.552 -0.7667  1.4822 -0.0345
29152SOL     OW99434  10.915   2.766  11.915 -0.6854 -0.0631 -0.1637
29152SOL    HW199435  10.984   2.732  11.858  0.7533  0.0024  1.4490
29152SOL    HW299436  10.883   2.688  11.962  0.0337  0.2272  0.8518
29153SOL     OW99437   3.631   3.650  11.780  0.0949 -0.1502 -0.2063
29153SOL    HW199438   3.627   3.590  11.706 -0.5793  1.2950 -1.4176
29153SOL    HW299439   3.667   3.599  11.852 -0.8794 -2.0968 -1.0474
29154SOL     OW99440   9.742  11.347   0.572  0.4058  0.1138  0.2145
29154SOL    HW199441   9.810  11.341   0.639  0.6973 -2.4875 -0.2017
29154SOL    HW299442   9.732  11.257   0.540 -4.3991 -0.0515  1.4148
29155SOL     OW99443   7.886   0.944  13.018 -0.1477 -0.4951 -0.0235
29155SOL    HW199444   7.902   0.850  13.024 -0.3531 -0.4544  1.7781
29155SOL    HW299445   7.879   0.973  13.109  1.5399  1.5525 -0.4499
29156SOL     OW99446   4.010   2.303  11.559 -0.8610 -0.3935 -0.1898
29156SOL    HW199447   3.995   2.333  11.649  0.7033  1.5107 -0.4837
29156SOL    HW299448   3.962   2.366  11.505 -0.3150 -0.4293 -0.7264
29157SOL     OW99449   9.900   1.574   5.844  0.1509 -0.0761 -0.4545
29157SOL    HW199450   9.855   1.541   5.922  0.1500 -1.1312 -0.8832
29157SOL    HW299451   9.991   1.585   5.872  0.0619 -0.0142 -0.1854
29158SOL     OW99452   4.017   0.002   2.513 -0.2669 -0.3259 -0.2849
29158SOL    HW199453   4.097  -0.034   2.476  0.9010  0.3386  1.5043
29158SOL    HW299454   3.991  -0.061   2.580  0.4625  0.8990  1.2054
29159SOL     OW99455   0.458  10.607  10.556 -0.2069  0.5249  0.3084
29159SOL    HW199456   0.511  10.644  10.486  0.0521 -0.2231  0.1014
29159SOL    HW299457   0.507  10.530  10.585 -0.9376  0.0975  0.4373
29160SOL     OW99458   9.951   5.468   0.928  0.3560 -0.1290  0.0843
29160SOL    HW199459   9.882   5.414   0.890 -1.5333  2.2769 -0.1787
29160SOL    HW299460   9.911   5.506   1.007  1.8339  0.3460  0.6441
29161SOL     OW99461   2.656  13.408   7.819 -0.2728 -0.1518 -0.5158
29161SOL    HW199462   2.685  13.410   7.911 -0.0827  0.0306 -0.5796
29161SOL    HW299463   2.723  13.457   7.772 -0.4667 -0.0903 -0.7272
29162SOL     OW99464   8.193   5.740   0.557  0.5021 -0.2733  0.3125
29162SOL    HW199465   8.242   5.705   0.632 -0.7949 -0.2629  1.2021
29162SOL    HW299466   8.217   5.683   0.484  2.9083  0.5970  0.3509
29163SOL     OW99467   4.124   1.146  11.698  0.6989  0.4605 -0.5856
29163SOL    HW199468   4.099   1.119  11.610  0.2964 -0.0722 -0.3139
29163SOL    HW299469   4.088   1.234  11.707  0.1154  0.2374 -0.6981
29164SOL     OW99470   1.265   5.124  12.881  0.1016  0.3151 -0.0543
29164SOL    HW199471   1.213   5.180  12.823 -1.1583  0.2370  0.9510
29164SOL    HW299472   1.227   5.138  12.968  0.7978 -0.9109  0.4741
29165SOL     OW99473   0.801  10.501  10.144 -0.0774 -0.5336 -0.3052
29165SOL    HW199474   0.870  10.493  10.079  1.3503  0.4457  1.0153
29165SOL    HW299475   0.723  10.525  10.094  0.6035 -1.2744 -1.7892
29166SOL     OW99476   3.061   6.159   7.365 -0.1955 -0.5443 -0.4793
29166SOL    HW199477   3.034   6.248   7.343  0.6307 -0.1613 -0.0081
29166SOL    HW299478   3.011   6.103   7.305 -1.5748  0.1488 -0.0340
29167SOL     OW99479   3.818  11.565   1.368  0.1288  0.2826  0.3146
29167SOL    HW199480   3.746  11.528   1.419 -1.3545 -0.8931 -2.4625
29167SOL    HW299481   3.799  11.658   1.364  0.0185  0.3238  1.4678
29168SOL     OW99482  12.861   5.336   4.182  0.3234  0.2303  0.2628
29168SOL    HW199483  12.855   5.300   4.093  1.3036  0.2747  0.1686
29168SOL    HW299484  12.954   5.352   4.195  0.5905 -2.2606  2.2689
29169SOL     OW99485   7.185  13.158   6.311  0.7278  0.3662 -0.2333
29169SOL    HW199486   7.259  13.217   6.322  1.2480 -0.2260 -0.5065
29169SOL    HW299487   7.217  13.090   6.252  0.0793 -0.0946 -0.0637
29170SOL     OW99488  11.054   8.935   1.421 -0.5117  0.2642  0.2196
29170SOL    HW199489  11.058   8.995   1.495  0.0452  2.8299 -1.7418
29170SOL    HW299490  11.137   8.887   1.424  0.3464  1.6800  0.2643
29171SOL     OW99491  11.939   7.845   2.313  0.3981  0.5633 -0.5827
29171SOL    HW199492  12.023   7.872   2.348  0.4675  0.7512 -0.8903
29171SOL    HW299493  11.883   7.922   2.319  0.2993  0.4887 -0.5365
29172SOL     OW99494   2.965  12.672  12.685  0.4343 -0.1018  0.0656
29172SOL    HW199495   3.020  12.603  12.722 -0.7418 -1.1142  0.0140
29172SOL    HW299496   2.899  12.689  12.753  0.6521  0.9149  0.0388
29173SOL     OW99497   1.634  11.761  12.259  0.1303 -0.2518 -0.0231
29173SOL    HW199498   1.605  11.850  12.239  0.0372 -0.3891 -0.5105
29173SOL    HW299499   1.651  11.722  12.174  1.3285 -0.3237  0.2379
29174SOL     OW99500   9.488  11.877  11.112 -0.3283 -0.2269  0.0684
29174SOL    HW199501   9.444  11.807  11.063 -1.6790  0.2389  0.5536
29174SOL    HW299502   9.489  11.846  11.202  0.6716 -0.3716  0.0189
29175SOL     OW99503  12.928   9.742  11.585  0.4263 -0.1773  0.2488
29175SOL    HW199504  12.887   9.711  11.503  1.4305 -3.7647  0.9238
29175SOL    HW299505  12.868   9.809  11.617 -1.3185 -0.4121 -2.1753
29176SOL     OW99506   9.198  11.343   9.759  0.1388 -0.2508 -0.2081
29176SOL    HW199507   9.190  11.322   9.853  1.4450  0.0879 -0.0025
29176SOL    HW299508   9.173  11.262   9.715 -2.3847  0.1496  0.3485
29177SOL     OW99509   8.114   9.394  11.152 -0.2564 -0.2570  0.3035
29177SOL    HW199510   8.195   9.441  11.173 -0.7804  0.3403  1.0817
29177SOL    HW299511   8.065   9.455  11.097 -1.1051  0.2944  1.6280
29178SOL     OW99512   3.495   9.605   7.875  0.7513  0.0159  0.5802
29178SOL    HW199513   3.531   9.602   7.964 -0.6990 -0.1970  1.1881
29178SOL    HW299514   3.404   9.633   7.887  0.0075 -1.6532 -0.6584
29179SOL     OW99515   1.140   6.791  11.334  0.0696 -0.4091  0.0705
29179SOL    HW199516   1.207   6.808  11.400  0.6817  0.8900 -0.8275
29179SOL    HW299517   1.187   6.790  11.251 -0.7313 -1.6599 -0.3940
29180SOL     OW99518   4.870  13.609  11.592  0.3404  0.3992  0.0217
29180SOL    HW199519   4.861  13.582  11.500  0.3707  2.5831 -0.6868
29180SOL    HW299520   4.788  13.582  11.633 -0.5479  1.1770 -1.1710
29181SOL     OW99521   2.161   1.899   3.522  0.6135  0.3354 -0.1579
29181SOL    HW199522   2.237   1.884   3.579  1.2352  1.0922 -0.7662
29181SOL    HW299523   2.115   1.815   3.521  0.9948  0.0998  0.8632
29182SOL     OW99524  11.987  10.336   1.797  0.2079  0.1083 -0.0437
29182SOL    HW199525  11.982  10.243   1.773 -0.8129 -0.6647  2.6867
29182SOL    HW299526  12.061  10.370   1.747  0.9838 -2.3220 -0.7115
29183SOL     OW99527   6.833   4.565   9.201 -0.7141  0.3159 -0.1059
29183SOL    HW199528   6.845   4.589   9.293 -0.7863 -0.2210  0.0488
29183SOL    HW299529   6.862   4.474   9.196 -4.3284 -0.9997  0.2176
29184SOL     OW99530   6.287  11.405  10.072 -0.0325 -0.4013  0.5122
29184SOL    HW199531   6.315  11.461  10.144  1.0164 -0.6194  0.2815
29184SOL    HW299532   6.234  11.463  10.017  0.2408  0.1104  0.7799
29185SOL     OW99533  11.019   3.160  13.309 -1.0043  0.1635  0.4462
29185SOL    HW199534  11.013   3.102  13.385 -0.4194  1.8469  1.8430
29185SOL    HW299535  11.082   3.227  13.335 -1.2845  1.1531 -1.2889
29186SOL     OW99536  11.343  12.339  13.094 -0.0250 -0.2435  0.3643
29186SOL    HW199537  11.415  12.283  13.122  0.2930  0.1388  0.3172
29186SOL    HW299538  11.321  12.308  13.006 -2.4546 -2.8888  1.7241
29187SOL     OW99539   6.781  12.683   9.085  0.0573 -0.4908 -0.1121
29187SOL    HW199540   6.711  12.664   9.022  0.0950  1.0665 -0.6725
29187SOL    HW299541   6.796  12.777   9.076  0.4373 -0.3195  1.8784
29188SOL     OW99542   2.117   6.641   4.936  0.0411  0.1502  1.1067
29188SOL    HW199543   2.075   6.724   4.958 -0.2202  0.3981 -0.2630
29188SOL    HW299544   2.202   6.665   4.899  0.8822 -0.3000  2.6556
29189SOL     OW99545   7.071   0.225   9.457  0.2370 -0.3834  0.2302
29189SOL    HW199546   7.075   0.314   9.421  0.2067 -0.4343  0.1008
29189SOL    HW299547   6.998   0.184   9.412  0.7193 -0.7159 -0.2605
29190SOL     OW99548  13.772   8.129   1.668  0.3153 -0.0064  0.3659
29190SOL    HW199549  13.824   8.092   1.740  0.8868  0.2471  0.0891
29190SOL    HW299550  13.825   8.114   1.590 -0.3723 -0.4202 -0.0343
29191SOL     OW99551   0.709  10.402   0.997  0.1028  0.5001 -1.1538
29191SOL    HW199552   0.774  10.387   1.066 -1.1005  0.6258  0.0662
29191SOL    HW299553   0.714  10.496   0.979  0.5095  0.4457 -1.3153
29192SOL     OW99554  11.826   3.544   6.856 -0.0918 -0.3762  0.1075
29192SOL    HW199555  11.793   3.605   6.790 -0.9994 -1.1470 -0.1641
29192SOL    HW299556  11.784   3.461   6.835  0.9330 -1.0450  0.6253
29193SOL     OW99557   1.969   7.526  12.316 -0.1034  0.0967 -0.3133
29193SOL    HW199558   1.958   7.556  12.226  0.4960 -0.9120 -0.7463
29193SOL    HW299559   1.901   7.459  12.327  0.1688 -0.1611 -0.1951
29194SOL     OW99560   4.690   1.977  13.267  0.1985  0.2384 -0.2445
29194SOL    HW199561   4.596   1.997  13.277  0.4421  2.1389 -1.2182
29194SOL    HW299562   4.694   1.919  13.192 -0.2990 -1.2181  0.8071
29195SOL     OW99563  12.341   4.372  11.636 -0.3064  0.2194 -0.0688
29195SOL    HW199564  12.303   4.381  11.549  0.3565 -0.1458 -0.4051
29195SOL    HW299565  12.418   4.429  11.635 -0.1144 -0.0318  0.1756
29196SOL     OW99566  13.065  13.472   3.026 -0.2859 -0.3479 -0.8896
29196SOL    HW199567  13.085  13.565   3.022 -1.7865 -0.0337 -2.3525
29196SOL    HW299568  12.970  13.467   3.016 -0.4581 -1.9698  0.8940
29197SOL     OW99569   7.406   1.866   8.810  0.8352 -0.5097  0.4952
29197SOL    HW199570   7.364   1.881   8.725  1.4200 -0.1313  0.2733
29197SOL    HW299571   7.479   1.808   8.790  0.3249 -1.3179  0.9119
29198SOL     OW99572   2.646   5.188   8.062 -0.6885 -0.3067 -0.0925
29198SOL    HW199573   2.598   5.186   8.145  2.9422 -1.8992  2.2239
29198SOL    HW299574   2.674   5.279   8.053  1.2738 -0.5858  2.1282
29199SOL     OW99575   0.697   4.874  11.014  0.2645 -0.3703  0.2196
29199SOL    HW199576   0.614   4.921  11.005  1.0240  0.5756 -3.2752
29199SOL    HW299577   0.680   4.788  10.975  1.6342  1.0612 -4.1443
29200SOL     OW99578   3.289   6.843   8.762  0.1549  0.2600 -0.2913
29200SOL    HW199579   3.229   6.774   8.734 -0.1774  0.3497  0.2047
29200SOL    HW299580   3.349   6.853   8.687 -0.7743  0.5520 -1.0148
29201SOL     OW99581   6.846   0.476  11.710  0.9351  1.0408 -0.3595
29201SOL    HW199582   6.877   0.403  11.764 -0.8839 -0.2706 -0.9888
29201SOL    HW299583   6.842   0.550  11.770  0.0298 -0.0998  1.0695
29202SOL     OW99584   1.222  10.303   5.039  0.1084 -0.5836 -0.0296
29202SOL    HW199585   1.308  10.319   5.002  1.1685 -1.2840  1.9773
29202SOL    HW299586   1.184  10.235   4.984 -0.2900  1.4932 -2.4874
29203SOL     OW99587   0.172   4.498   8.728  0.5436  0.2214  0.2189
29203SOL    HW199588   0.178   4.591   8.752 -2.1153  0.7228 -0.7169
29203SOL    HW299589   0.191   4.497   8.634 -0.0522 -0.0936  0.0999
29204SOL     OW99590   4.178   1.814   9.798  0.0759 -0.6512 -0.9943
29204SOL    HW199591   4.125   1.845   9.871  1.3078 -1.7013  0.3901
29204SOL    HW299592   4.241   1.884   9.782  0.5868 -0.9280 -0.2270
29205SOL     OW99593   5.382   2.079  13.374 -0.2750 -0.3397 -0.0644
29205SOL    HW199594   5.337   2.034  13.302  0.5992 -1.3809  0.0350
29205SOL    HW299595   5.452   2.128  13.331 -1.4376  1.2680 -0.2171
29206SOL     OW99596   0.451  11.867   2.928 -0.5652 -0.4028  0.7829
29206SOL    HW199597   0.434  11.830   3.015  0.0728 -1.3804  0.5077
29206SOL    HW299598   0.379  11.928   2.914 -1.1408 -0.8549  1.6503
29207SOL     OW99599  11.850   2.632   9.337  0.5387  0.0386  0.0555
29207SOL    HW199600  11.934   2.677   9.331  0.8571 -0.7565 -2.3318
29207SOL    HW299601  11.812   2.639   9.249 -1.4270 -0.5247  0.7940
29208SOL     OW99602   8.180   6.758   1.889 -0.3942  0.2039  0.1852
29208SOL    HW199603   8.257   6.710   1.860  0.2212  0.4960  1.2509
29208SOL    HW299604   8.156   6.717   1.972 -1.5983 -0.0873 -0.2835
29209SOL     OW99605   0.550  12.555   4.480 -0.9478  0.3834  0.3035
29209SOL    HW199606   0.489  12.628   4.486 -1.7385 -0.3090  1.0250
29209SOL    HW299607   0.591  12.551   4.566 -1.8874 -0.8244  0.7245
29210SOL     OW99608  13.594   0.639   5.141  0.7451  0.7864 -0.5047
29210SOL    HW199609  13.596   0.544   5.132  1.9752  0.6583  0.8108
29210SOL    HW299610  13.564   0.671   5.056  1.7908 -0.7087 -1.4592
29211SOL     OW99611   8.396  13.404   5.790  0.6600 -1.0456  0.0280
29211SOL    HW199612   8.419  13.496   5.803 -0.2837 -0.8707  0.6145
29211SOL    HW299613   8.477  13.356   5.803  0.5132 -0.6105  3.5363
29212SOL     OW99614  10.895   2.114   1.974  0.1764 -0.3200  0.2298
29212SOL    HW199615  10.822   2.055   1.957  0.9036 -1.1314 -0.1844
29212SOL    HW299616  10.856   2.188   2.020 -1.2438  0.2145 -1.7026
29213SOL     OW99617   4.724  12.452  10.954 -0.2280 -0.2252 -0.0314
29213SOL    HW199618   4.716  12.461  11.049  2.1380 -0.5778  0.2589
29213SOL    HW299619   4.726  12.358  10.938 -0.4363 -0.1695 -0.4075
29214SOL     OW99620   8.965  10.792  12.238 -0.5914  0.2941  0.5893
29214SOL    HW199621   8.999  10.834  12.317 -0.0320  0.6071  0.1920
29214SOL    HW299622   9.011  10.835  12.166 -2.2889  1.1604 -0.0217
29215SOL     OW99623   9.406   6.621   8.499  0.5173  0.3243 -0.1779
29215SOL    HW199624   9.385   6.651   8.411 -1.0726  0.5843  0.2663
29215SOL    HW299625   9.358   6.539   8.509  0.7917  0.2287  0.4004
29216SOL     OW99626  13.474   7.846   2.234 -0.1176  0.5880  0.4227
29216SOL    HW199627  13.566   7.828   2.217 -0.0474 -0.0171  1.3548
29216SOL    HW299628  13.428   7.817   2.155  0.5848  2.0657 -0.5767
29217SOL     OW99629   7.303   5.790   6.863  0.0109  0.2916 -0.0209
29217SOL    HW199630   7.298   5.707   6.815  0.5055  0.0611  0.3248
29217SOL    HW299631   7.285   5.767   6.954  0.0229  0.5803  0.0563
29218SOL     OW99632   2.503   7.942   1.831 -0.0932  0.2324  0.5640
29218SOL    HW199633   2.519   8.034   1.849  1.2594  0.1718 -0.2217
29218SOL    HW299634   2.497   7.936   1.736  1.3480 -0.7015  0.5024
29219SOL     OW99635  10.293  11.285   8.718  0.2825 -0.5623  0.0110
29219SOL    HW199636  10.327  11.311   8.633 -1.4729 -1.9354 -1.1942
29219SOL    HW299637  10.309  11.360   8.775  2.2856  0.0593 -1.2711
29220SOL     OW99638   0.141  12.769   5.898  0.4708 -0.0446 -1.0578
29220SOL    HW199639   0.113  12.806   5.815 -1.1562 -1.0698 -1.0112
29220SOL    HW299640   0.192  12.691   5.875  1.4964  0.6134 -1.0949
29221SOL     OW99641  12.848   1.374  11.352 -0.2771  0.2417  0.2925
29221SOL    HW199642  12.882   1.440  11.292 -0.8819  1.4713  1.2547
29221SOL    HW299643  12.797   1.315  11.296 -0.3689  1.0384 -0.4841
29222SOL     OW99644  10.506  13.052  13.608 -0.5576 -0.7030 -0.2702
29222SOL    HW199645  10.482  13.056  13.515 -0.8140 -2.1108 -0.2775
29222SOL    HW299646  10.471  13.133  13.645 -1.8417 -0.8514 -1.0896
29223SOL     OW99647   8.010   2.983   5.690 -0.3039 -0.5063  0.1960
29223SOL    HW199648   7.923   2.991   5.730  0.9269  0.1521  2.9623
29223SOL    HW299649   8.032   3.072   5.663 -0.4013 -0.6434 -0.3471
29224SOL     OW99650   1.374   8.267   4.834  0.3840  0.3977  0.5193
29224SOL    HW199651   1.373   8.178   4.797  1.0415  0.4633  0.3266
29224SOL    HW299652   1.344   8.323   4.762 -0.2344  0.3100  0.7075
29225SOL     OW99653  10.407   2.852  12.990 -0.2840 -0.0236  0.4358
29225SOL    HW199654  10.360   2.804  13.058 -1.7551  1.8428  0.7858
29225SOL    HW299655  10.377   2.813  12.908 -0.7679 -0.2834  0.7348
29226SOL     OW99656  12.149   5.590  12.282 -0.0444 -0.0690  0.6377
29226SOL    HW199657  12.198   5.532  12.341 -0.8890 -0.0773  1.3370
29226SOL    HW299658  12.099   5.648  12.340  0.8947  1.4908 -0.0397
29227SOL     OW99659   7.131  10.990   7.482  0.1987  0.1426 -0.2123
29227SOL    HW199660   7.132  10.949   7.396  1.0049 -0.5408  0.1005
29227SOL    HW299661   7.095  11.077   7.467 -1.6927 -0.7118 -0.8741
29228SOL     OW99662  10.691  12.994   4.650 -0.1060  0.1640  0.1215
29228SOL    HW199663  10.712  12.941   4.727  0.8357  0.2245 -0.0932
29228SOL    HW299664  10.690  12.931   4.577 -1.2834  0.0542  0.2061
29229SOL     OW99665  10.816   6.696   0.176  0.2473  0.2112  0.1825
29229SOL    HW199666  10.782   6.611   0.205 -0.3869  0.2788 -0.3518
29229SOL    HW299667  10.810   6.751   0.254  1.2925 -0.4076  0.7241
29230SOL     OW99668   2.967   4.450   1.067 -0.0068 -0.5580  0.9824
29230SOL    HW199669   2.871   4.454   1.061  0.0499  0.0728  0.3699
29230SOL    HW299670   2.997   4.451   0.976  0.6588  1.9079  1.1567
29231SOL     OW99671   3.731   7.444   2.055 -0.4808  0.1581 -0.1234
29231SOL    HW199672   3.771   7.459   1.970  0.1752 -0.3841  0.0821
29231SOL    HW299673   3.726   7.348   2.063 -0.3486  0.2029  0.5326
29232SOL     OW99674  10.184  12.607   5.286 -0.3674 -0.0495  0.4852
29232SOL    HW199675  10.265  12.595   5.336 -0.4026 -1.9085  0.1588
29232SOL    HW299676  10.114  12.584   5.347 -0.4737 -1.2184 -0.0575
29233SOL     OW99677   4.292   7.114   9.865 -0.2961  0.2356  0.2808
29233SOL    HW199678   4.272   7.180   9.799 -0.1300 -0.8319 -0.8623
29233SOL    HW299679   4.251   7.147   9.945 -1.6390  0.9058 -0.6555
29234SOL     OW99680  13.872   1.072   7.470  0.0211 -0.4255 -0.2936
29234SOL    HW199681  13.812   1.115   7.410 -0.9778 -0.6816  0.4919
29234SOL    HW299682  13.815   1.031   7.536  0.8759 -3.1202 -1.0760
29235SOL     OW99683   9.343  13.155   3.368 -0.4537 -0.3167  0.2001
29235SOL    HW199684   9.266  13.113   3.405 -1.1974  0.1748 -0.7612
29235SOL    HW299685   9.308  13.221   3.308  0.6829  0.9678  0.8880
29236SOL     OW99686   3.114   3.112   4.205  0.2038 -0.2198 -0.1219
29236SOL    HW199687   3.178   3.182   4.217  0.1954 -0.1811 -0.3049
29236SOL    HW299688   3.126   3.084   4.114  1.6159 -1.8264  0.5143
29237SOL     OW99689   8.561  12.673   5.481  0.0337  0.2203 -0.5177
29237SOL    HW199690   8.507  12.752   5.487 -1.4760 -0.8173  0.4174
29237SOL    HW299691   8.507  12.605   5.522  2.4123 -0.7047  1.2927
29238SOL     OW99692  10.549   1.740   6.033 -0.1192  0.0033 -0.6660
29238SOL    HW199693  10.582   1.666   5.982 -1.1226 -1.7414  1.0616
29238SOL    HW299694  10.627   1.779   6.072  0.3926 -0.4613 -1.2091
29239SOL     OW99695   3.558   4.874   1.425  0.4924 -0.8672  0.3023
29239SOL    HW199696   3.476   4.921   1.437  1.6848  1.1730  1.0558
29239SOL    HW299697   3.532   4.783   1.407 -1.8707 -0.4434  1.2291
29240SOL     OW99698   4.114  13.836   6.683  0.3089  0.3081  0.2661
29240SOL    HW199699   4.030  13.823   6.639  0.0275 -0.1831  0.9280
29240SOL    HW299700   4.148  13.748   6.696  1.0398  0.5145 -0.1922
29241SOL     OW99701   8.895   3.483  10.505 -0.3488 -0.0380 -0.5458
29241SOL    HW199702   8.923   3.495  10.415 -0.5268  0.2616 -0.5652
29241SOL    HW299703   8.812   3.435  10.499 -2.3210  3.1121 -0.7951
29242SOL     OW99704   7.163   1.496  12.192 -0.0824 -0.3685 -0.2576
29242SOL    HW199705   7.115   1.472  12.271  0.5405 -0.1752  0.1867
29242SOL    HW299706   7.097   1.534  12.134  0.1576  4.0250  1.9787
29243SOL     OW99707   1.589  12.160   8.248 -0.3099  0.3111  0.5146
29243SOL    HW199708   1.585  12.133   8.156 -3.1185 -0.2109  0.7163
29243SOL    HW299709   1.539  12.242   8.251 -1.2247 -0.2813  1.7558
29244SOL     OW99710   6.016   9.965   1.795  0.4027 -0.2655  0.5837
29244SOL    HW199711   6.060   9.977   1.879  1.5310  0.0837 -0.0282
29244SOL    HW299712   6.087   9.942   1.735 -0.3645 -0.3593 -0.2966
29245SOL     OW99713   9.502   7.653   7.025 -0.2413  0.7325  0.3225
29245SOL    HW199714   9.538   7.713   7.090  0.2207 -1.2873  2.0198
29245SOL    HW299715   9.414   7.687   7.008  1.0436  3.7521 -1.3242
29246SOL     OW99716   2.051   0.413   5.369 -0.3785  0.4471  0.4968
29246SOL    HW199717   2.053   0.377   5.281  0.9923 -0.0221  0.6869
29246SOL    HW299718   2.101   0.350   5.422 -0.1630  1.3048  1.3596
29247SOL     OW99719   6.722   0.391   6.423 -0.3493 -0.0218 -0.1554
29247SOL    HW199720   6.817   0.389   6.414 -0.4521 -1.0882 -1.2583
29247SOL    HW299721   6.702   0.479   6.453  1.3012 -0.8493  4.1115
29248SOL     OW99722   4.784   2.813   4.081 -0.2401  0.2733  0.1419
29248SOL    HW199723   4.746   2.730   4.110  0.7801 -0.0921  0.4481
29248SOL    HW299724   4.789   2.805   3.985  0.1983 -0.1721  0.1996
29249SOL     OW99725   9.714   2.139  12.300 -0.1413  0.0810  0.0297
29249SOL    HW199726   9.723   2.161  12.392  0.6758  0.4970 -0.1455
29249SOL    HW299727   9.623   2.109  12.291 -0.5739  1.1290  0.7366
29250SOL     OW99728  13.460   2.888   8.313  0.5292  0.1233 -0.4696
29250SOL    HW199729  13.450   2.929   8.399 -0.2631  0.4846 -0.7196
29250SOL    HW299730  13.542   2.839   8.319 -0.7156 -1.9429  1.3522
29251SOL     OW99731   1.939   8.622   3.458  0.4553 -0.2920 -0.6594
29251SOL    HW199732   2.007   8.634   3.392  1.1618 -0.1555  0.0628
29251SOL    HW299733   1.949   8.697   3.517  0.5606 -0.9524  0.1908
29252SOL     OW99734   3.739   0.983  13.372  0.1837  0.0093  0.2463
29252SOL    HW199735   3.652   0.944  13.358  0.4389 -0.5494  0.2042
29252SOL    HW299736   3.790   0.954  13.296  0.4826  0.1323  0.3999
29253SOL     OW99737  13.454   0.293  14.030 -0.5362 -0.2673  0.1716
29253SOL    HW199738  13.474   0.386  14.038 -1.6143  0.0982 -1.0197
29253SOL    HW299739  13.449   0.277  13.936 -0.6505 -1.4658  0.3646
29254SOL     OW99740   0.863  11.732   7.880 -0.1865  0.3638 -0.1374
29254SOL    HW199741   0.794  11.689   7.831 -0.8330 -0.6838  1.5996
29254SOL    HW299742   0.820  11.807   7.921 -0.3303 -0.2968  0.9568
29255SOL     OW99743   8.996   0.171   4.459 -0.1348 -0.7603 -0.3906
29255SOL    HW199744   9.030   0.086   4.432 -1.6752 -1.5434 -0.0120
29255SOL    HW299745   8.993   0.166   4.555 -0.4539 -0.3710 -0.3779
29256SOL     OW99746   0.010  10.624   9.901  0.3735  0.1466  0.4340
29256SOL    HW199747   0.079  10.599   9.962  0.7306  1.6508  0.6858
29256SOL    HW299748   0.032  10.713   9.874  0.2891 -0.4884 -1.9926
29257SOL     OW99749   4.840   2.062   8.688  0.2689  0.5371 -0.0345
29257SOL    HW199750   4.814   2.003   8.617  0.5222  0.9166 -0.4503
29257SOL    HW299751   4.848   2.148   8.646  1.9297  0.4978  0.1164
29258SOL     OW99752  11.946   9.513  10.630 -0.4911  0.4076  0.3693
29258SOL    HW199753  12.031   9.508  10.587  0.0052 -0.0591  1.3713
29258SOL    HW299754  11.887   9.462  10.575  0.2758 -0.7114  0.5668
29259SOL     OW99755   7.260  12.492   2.737  0.5184 -0.1692  0.2849
29259SOL    HW199756   7.166  12.486   2.751  0.6133  1.4398  1.9310
29259SOL    HW299757   7.270  12.554   2.665  0.3068 -1.8925 -1.3038
29260SOL     OW99758   3.634  12.460   9.624 -0.3948  0.0874  0.1826
29260SOL    HW199759   3.636  12.365   9.612 -1.3283  0.1199 -0.2759
29260SOL    HW299760   3.703  12.477   9.688  1.3889 -0.6286 -1.4699
29261SOL     OW99761  10.518   8.507   0.762  0.6870 -0.3886 -0.5660
29261SOL    HW199762  10.569   8.494   0.682  0.5423  0.7399 -0.8545
29261SOL    HW299763  10.558   8.582   0.805  0.7254 -0.9464  0.4066
29262SOL     OW99764  13.838   7.114   6.717  0.2339 -0.0310  0.0207
29262SOL    HW199765  13.745   7.096   6.702  0.5897 -1.7648 -0.3161
29262SOL    HW299766  13.856   7.190   6.662 -0.7113 -0.4267 -0.8783
29263SOL     OW99767   1.104   1.549   6.130 -0.3381  0.9466  1.2616
29263SOL    HW199768   1.013   1.521   6.138 -0.3624 -0.0064 -1.5658
29263SOL    HW299769   1.155   1.478   6.169 -0.7134  0.2060  0.4247
29264SOL     OW99770  11.480   5.426  11.624  0.3960 -0.1005 -0.1344
29264SOL    HW199771  11.451   5.335  11.624  3.2560 -1.1058  0.0443
29264SOL    HW299772  11.454   5.459  11.538 -1.3105 -0.8366  0.0686
29265SOL     OW99773  13.435  10.643  11.157 -0.3009 -0.3979  0.2725
29265SOL    HW199774  13.447  10.578  11.087 -1.9631  0.3021 -0.7242
29265SOL    HW299775  13.518  10.690  11.160  0.1320 -1.0675 -0.5734
29266SOL     OW99776   2.935  12.261  11.214 -0.1473  0.6116 -0.0771
29266SOL    HW199777   2.924  12.343  11.262  1.9504  0.4868  0.7225
29266SOL    HW299778   2.882  12.197  11.262 -0.4933  1.1422  0.2535
29267SOL     OW99779   9.199   7.647   3.616 -0.0999  0.2687 -0.3283
29267SOL    HW199780   9.111   7.679   3.598 -0.6916 -0.8123  0.5198
29267SOL    HW299781   9.188   7.555   3.637  1.1931  0.1920  0.1454
29268SOL     OW99782   7.943  13.321   1.726 -0.2278 -0.1459  0.4136
29268SOL    HW199783   8.020  13.273   1.758 -1.0811 -3.9474 -2.3863
29268SOL    HW299784   7.979  13.389   1.669  1.1159 -0.9253  0.2777
29269SOL     OW99785  10.652  12.944   4.134 -0.5809 -0.0416  0.5279
29269SOL    HW199786  10.707  12.904   4.202  2.2254  2.6200  0.0526
29269SOL    HW299787  10.695  13.028   4.115 -3.1168  0.7980 -2.2128
29270SOL     OW99788  13.577   6.338  10.074  0.0421  0.4200  0.1812
29270SOL    HW199789  13.583   6.355  10.168  0.6347  3.2457 -0.2675
29270SOL    HW299790  13.668   6.339  10.044 -0.2328  1.4312 -0.6750
29271SOL     OW99791   4.381   2.350  13.191  0.0880  0.4537  0.0570
29271SOL    HW199792   4.417   2.281  13.247  0.1579  0.2152 -0.2773
29271SOL    HW299793   4.322   2.304  13.131 -1.0441  0.8866  0.8167
29272SOL     OW99794  13.017   5.837  10.141  0.4894 -0.2267  0.2016
29272SOL    HW199795  12.943   5.869  10.090  1.1838 -0.7326 -1.1743
29272SOL    HW299796  13.091   5.891  10.113  1.3588 -1.9616 -1.0568
29273SOL     OW99797  11.361   5.282   0.537 -0.2662 -0.3346  0.4232
29273SOL    HW199798  11.282   5.242   0.501  0.3357  0.5297 -2.1034
29273SOL    HW299799  11.418   5.207   0.558 -1.0008 -0.9078  0.3954
29274SOL     OW99800   4.960   9.097   4.538  0.4462 -0.1478  0.1020
29274SOL    HW199801   4.942   9.005   4.521 -0.5673 -0.0237  0.4498
29274SOL    HW299802   5.041   9.097   4.590 -0.8042 -0.9962  2.1303
29275SOL     OW99803   7.342   1.502   3.616  0.1476  0.2262 -0.0901
29275SOL    HW199804   7.363   1.412   3.644 -2.6419 -1.3629 -2.5628
29275SOL    HW299805   7.405   1.521   3.547  1.0345  0.3838  0.7460
29276SOL     OW99806   5.306   3.078  11.398 -0.4156  0.2401  0.0206
29276SOL    HW199807   5.298   2.983  11.392  1.0739  0.0465  0.6890
29276SOL    HW299808   5.325   3.095  11.490  2.1143  0.9063 -0.5266
29277SOL     OW99809  11.231  12.213   2.816 -0.2653 -0.4177 -0.1061
29277SOL    HW199810  11.209  12.246   2.903 -0.3138 -0.6945 -0.0109
29277SOL    HW299811  11.270  12.287   2.770 -0.8034 -0.0973 -0.0522
29278SOL     OW99812   8.724  10.842  11.987  0.6974 -0.7414 -0.0772
29278SOL    HW199813   8.673  10.918  12.015 -0.4981 -0.8366 -1.8048
29278SOL    HW299814   8.722  10.782  12.062  1.5860  0.8398  1.2858
29279SOL     OW99815   2.141  12.595   1.117  0.1360 -0.0921 -0.4659
29279SOL    HW199816   2.061  12.544   1.102 -0.2975 -0.1480  1.6766
29279SOL    HW299817   2.192  12.583   1.038 -1.2647 -1.4278 -1.2245
29280SOL     OW99818   8.708  11.628   0.614  0.0624 -0.4481  0.1604
29280SOL    HW199819   8.689  11.577   0.535  2.0744  0.4720 -0.9923
29280SOL    HW299820   8.789  11.591   0.648 -1.1521 -1.3456  2.3300
29281SOL     OW99821  11.628   8.702   9.099 -0.1974 -0.6225  0.3102
29281SOL    HW199822  11.675   8.726   9.179 -0.9579 -0.3992  0.6904
29281SOL    HW299823  11.542   8.673   9.129 -0.1286 -1.5411 -0.3412
29282SOL     OW99824   3.188   8.171   4.237  0.1906  0.2417 -0.2698
29282SOL    HW199825   3.119   8.174   4.171 -0.6614  0.4261  0.6063
29282SOL    HW299826   3.141   8.171   4.321  1.2797  1.8186  0.3852
29283SOL     OW99827   7.291   4.434   8.079 -0.2671 -0.0363 -0.7018
29283SOL    HW199828   7.245   4.500   8.131  1.2290  1.6603 -1.4372
29283SOL    HW299829   7.352   4.484   8.025  1.8411 -2.1216 -0.3985
29284SOL     OW99830  13.671   2.644   1.496 -0.0797  0.1403 -0.2402
29284SOL    HW199831  13.644   2.733   1.473 -0.3677  0.1727  0.2261
29284SOL    HW299832  13.646   2.633   1.588 -2.4282 -1.3095 -0.9529
29285SOL     OW99833   4.586   7.402  12.314  0.7240 -0.0680 -0.3822
29285SOL    HW199834   4.643   7.469  12.276  1.3129 -0.4878 -0.2341
29285SOL    HW299835   4.508   7.404  12.258  1.5619 -0.6435 -1.6157
29286SOL     OW99836   3.157   1.269   4.140 -0.1636 -0.7233  0.0346
29286SOL    HW199837   3.249   1.243   4.133  0.4859  0.8251  1.9714
29286SOL    HW299838   3.111   1.208   4.082  2.2265 -0.5050 -2.2912
29287SOL     OW99839  10.028   4.957   9.927  0.9413  0.3807 -0.2988
29287SOL    HW199840   9.959   4.952   9.993  0.2608  2.2882 -0.8125
29287SOL    HW299841  10.107   4.930   9.974 -0.1078 -1.8723  0.2818
29288SOL     OW99842   2.885   0.484   3.782  0.1992  0.1527  0.5872
29288SOL    HW199843   2.938   0.519   3.711 -0.2025  0.0721  0.2402
29288SOL    HW299844   2.878   0.555   3.845 -0.6357  0.7326 -0.1234
29289SOL     OW99845  12.740  10.041   0.812  0.1496  0.6655  0.3316
29289SOL    HW199846  12.747  10.012   0.721 -2.0289  0.2137  0.2480
29289SOL    HW299847  12.724  10.135   0.807 -1.1261  0.4591  0.1489
29290SOL     OW99848   0.577   8.222   2.217 -0.1576  0.0049  0.2614
29290SOL    HW199849   0.519   8.204   2.143 -0.8384  0.9878  0.5371
29290SOL    HW299850   0.575   8.142   2.270 -0.5936 -0.2706 -0.1748
29291SOL     OW99851  10.522   4.840   8.088 -0.2881  0.4971  0.0121
29291SOL    HW199852  10.570   4.775   8.138 -0.6761  1.2487  1.4132
29291SOL    HW299853  10.474   4.891   8.153 -1.4467  1.0191 -1.1867
29292SOL     OW99854   7.372   7.406   0.638  0.3986  0.3842 -0.4987
29292SOL    HW199855   7.319   7.471   0.593  0.4411  0.7520 -0.0316
29292SOL    HW299856   7.456   7.405   0.592  0.7202  1.3216  0.0396
29293SOL     OW99857  11.548  11.294   1.203  0.2727  0.3006 -0.1230
29293SOL    HW199858  11.461  11.257   1.219  0.5551  0.0807  1.0161
29293SOL    HW299859  11.588  11.298   1.289  0.8940  1.6951 -0.4535
29294SOL     OW99860   7.241  13.377   8.311 -0.2826 -0.0353  0.7155
29294SOL    HW199861   7.198  13.309   8.363  1.7754 -0.4139  2.0601
29294SOL    HW299862   7.291  13.428   8.376  2.4390 -0.5552 -0.8177
29295SOL     OW99863   3.642   5.568  12.835  0.1423 -0.5045  0.0937
29295SOL    HW199864   3.738   5.565  12.830  0.1976 -0.9676  1.2034
29295SOL    HW299865   3.616   5.626  12.763  1.1456 -1.7333 -1.3404
29296SOL     OW99866   4.860   4.507   1.399  0.3986 -0.2265 -0.2354
29296SOL    HW199867   4.857   4.504   1.303  1.8083 -0.0531 -0.3114
29296SOL    HW299868   4.831   4.421   1.427  0.8644 -0.5953 -0.8617
29297SOL     OW99869   2.482   1.417   2.614 -0.5293  0.7363 -0.5539
29297SOL    HW199870   2.538   1.372   2.550 -0.8096  0.0285 -0.3098
29297SOL    HW299871   2.479   1.357   2.689 -1.5550  0.7945 -0.5334
29298SOL     OW99872   3.200   1.247   8.783 -0.4645  0.1746  0.7887
29298SOL    HW199873   3.109   1.226   8.764 -0.3018 -0.1517  0.3694
29298SOL    HW299874   3.219   1.199   8.864 -0.4283 -0.4163  0.4404
29299SOL     OW99875  12.458   8.755   5.844 -0.4506  0.3915 -0.5444
29299SOL    HW199876  12.427   8.815   5.777  0.2128  2.0870  0.5952
29299SOL    HW299877  12.423   8.791   5.926 -2.1138 -2.1681  0.0153
29300SOL     OW99878   2.677   5.987   8.294  0.0575 -0.4637  0.2510
29300SOL    HW199879   2.637   5.901   8.286  1.8454 -1.3114 -0.1627
29300SOL    HW299880   2.627   6.043   8.235  0.0168 -1.6772 -0.9129
29301SOL     OW99881   8.598   2.007  10.869  0.5870 -0.2839  0.9329
29301SOL    HW199882   8.594   2.066  10.944 -2.9716  0.3976  0.3913
29301SOL    HW299883   8.595   2.066  10.793 -0.9566 -1.0790  0.3501
29302SOL     OW99884  12.714   8.877   7.552  0.2848  0.8227 -0.3799
29302SOL    HW199885  12.778   8.828   7.604  1.1160  0.2203 -1.8837
29302SOL    HW299886  12.701   8.959   7.600  0.8320  0.2061  0.8645
29303SOL     OW99887  12.507   7.301   3.543 -0.0386 -0.5523  0.0721
29303SOL    HW199888  12.460   7.384   3.559 -0.3207 -0.6431 -0.2704
29303SOL    HW299889  12.466   7.239   3.603 -2.0608 -1.2456 -1.8832
29304SOL     OW99890   1.753  11.360   2.858 -0.2869  0.0371  0.2814
29304SOL    HW199891   1.799  11.277   2.846  1.4621  1.2819 -2.3417
29304SOL    HW299892   1.820  11.421   2.887 -0.9041  1.1855 -0.6296
29305SOL     OW99893   1.442   3.458   8.932  0.1872 -0.0471 -0.4711
29305SOL    HW199894   1.377   3.520   8.899  0.8100  0.8824  0.0103
29305SOL    HW299895   1.402   3.372   8.918 -1.0956  0.4985 -0.2931
29306SOL     OW99896   9.415  12.583   7.181 -0.3817  0.1804 -0.3906
29306SOL    HW199897   9.458  12.549   7.260 -2.2441  1.2665  1.1974
29306SOL    HW299898   9.424  12.513   7.117  3.2713  0.1901 -0.0643
29307SOL     OW99899   4.801   8.378   4.975  0.3158 -0.3351 -0.6158
29307SOL    HW199900   4.746   8.414   4.905  0.9389  0.8830 -0.5016
29307SOL    HW299901   4.870   8.443   4.988  2.5267 -2.3555 -1.5671
29308SOL     OW99902   1.148  10.254  11.279 -0.4288 -0.2151 -0.0825
29308SOL    HW199903   1.134  10.287  11.367 -0.3219  0.7711 -0.4187
29308SOL    HW299904   1.197  10.324  11.235  0.9190 -1.3404 -0.4604
29309SOL     OW99905   7.825   5.782  12.267 -0.1847 -0.0831 -0.6455
29309SOL    HW199906   7.864   5.861  12.304  2.2065 -2.3563  2.2434
29309SOL    HW299907   7.888   5.754  12.200  0.2701 -0.7797  0.0576
29310SOL     OW99908   3.066   6.507   4.297 -0.1759  0.7150  0.1203
29310SOL    HW199909   2.983   6.494   4.251  0.1873 -0.8277 -0.1560
29310SOL    HW299910   3.114   6.568   4.242  0.6687 -1.8459 -2.2282
29311SOL     OW99911  10.263  12.724   1.277  0.1837  0.3985 -0.4739
29311SOL    HW199912  10.193  12.755   1.335  0.8549  0.3250  0.4006
29311SOL    HW299913  10.306  12.654   1.326  0.4314 -0.0361 -1.2914
29312SOL     OW99914   8.587  13.401   2.613  0.4097 -0.6648 -0.3318
29312SOL    HW199915   8.606  13.319   2.568  1.5431 -0.5641 -0.0754
29312SOL    HW299916   8.544  13.456   2.547 -1.1410 -1.7345 -0.2698
29313SOL     OW99917   0.020  13.116   7.090 -0.2508 -0.1639  0.2354
29313SOL    HW199918   0.027  13.192   7.032  1.8307  0.0941  0.7305
29313SOL    HW299919   0.065  13.046   7.043  1.3400  0.0102  1.3798
29314SOL     OW99920   1.368   1.827   6.587 -0.0620  0.2180 -0.2429
29314SOL    HW199921   1.312   1.750   6.580 -1.4900  1.3275 -1.4708
29314SOL    HW299922   1.377   1.859   6.497  0.2544  1.6549  0.2738
29315SOL     OW99923   2.401   9.311   3.741  0.1009 -0.4845 -0.4289
29315SOL    HW199924   2.421   9.282   3.652 -0.4378 -0.8517 -0.4352
29315SOL    HW299925   2.305   9.304   3.748  0.1902 -1.0362  0.3742
29316SOL     OW99926   8.722   3.145   3.323 -0.3048  0.0051 -0.0087
29316SOL    HW199927   8.629   3.168   3.318 -0.4520  0.5741  3.2411
29316SOL    HW299928   8.739   3.133   3.417  3.1596  1.0192 -0.3760
29317SOL     OW99929   9.344   1.333  13.676 -0.4789 -0.8832 -0.4048
29317SOL    HW199930   9.378   1.368  13.594 -0.5937 -1.1813 -0.5839
29317SOL    HW299931   9.266   1.284  13.649 -0.8393 -0.5109 -0.0501
29318SOL     OW99932  13.697   7.114  13.077 -0.5855  0.3322  0.6576
29318SOL    HW199933  13.647   7.186  13.039  0.1367 -0.1569 -1.3648
29318SOL    HW299934  13.768   7.158  13.125 -0.4043  1.0013 -0.1857
29319SOL     OW99935  13.385   5.438   7.736 -0.2881 -0.2873 -0.0293
29319SOL    HW199936  13.401   5.344   7.744  1.9751  0.1613  1.3986
29319SOL    HW299937  13.294   5.449   7.763 -0.8614 -2.1216 -1.0208
29320SOL     OW99938  11.602   9.716   3.823  0.4669 -0.5539  0.8122
29320SOL    HW199939  11.662   9.758   3.761  0.4466  0.2187  1.2981
29320SOL    HW299940  11.518   9.716   3.778  0.6839 -1.0465  0.3896
29321SOL     OW99941   8.929   8.266   1.264 -0.6912  0.0189  0.1436
29321SOL    HW199942   8.950   8.221   1.182  1.3858  2.3087 -0.7016
29321SOL    HW299943   9.003   8.245   1.321 -0.5828  0.8981  0.3348
29322SOL     OW99944   7.791   8.881  13.064  0.8152 -0.1797 -0.0995
29322SOL    HW199945   7.833   8.934  13.132 -3.4425  1.5674  1.4845
29322SOL    HW299946   7.770   8.944  12.995 -2.4444 -0.0282  0.8746
29323SOL     OW99947   9.787   8.370   1.523  0.2529  0.0947  0.6351
29323SOL    HW199948   9.705   8.336   1.486  0.3211 -0.8838  1.3488
29323SOL    HW299949   9.767   8.385   1.616  0.9646 -0.4528  0.8865
29324SOL     OW99950   0.392  11.775   1.852  0.2906  0.0636  0.0793
29324SOL    HW199951   0.306  11.743   1.826  0.4721 -0.4509  0.0950
29324SOL    HW299952   0.386  11.784   1.947  0.1064  0.4847  0.0294
29325SOL     OW99953   4.459   2.523   3.154  0.2351  0.0699 -0.0396
29325SOL    HW199954   4.400   2.486   3.220  0.4953 -1.6893 -0.7397
29325SOL    HW299955   4.433   2.615   3.147  0.5251  0.4832  2.8497
29326SOL     OW99956   2.914   4.988   4.412 -0.1070  0.1363 -0.0686
29326SOL    HW199957   2.918   4.941   4.329  2.7256 -1.6625  0.9643
29326SOL    HW299958   2.987   5.049   4.409  0.7756 -0.7812  1.5069
29327SOL     OW99959   0.666   2.457   3.053 -0.0028 -0.2004 -0.3000
29327SOL    HW199960   0.643   2.375   3.096 -1.2422 -0.8130 -2.0079
29327SOL    HW299961   0.667   2.522   3.123  0.6451 -1.5931  1.0316
29328SOL     OW99962   5.658  12.969   6.423 -0.1805 -0.4247 -0.5064
29328SOL    HW199963   5.628  12.909   6.354 -0.0727 -1.6482  0.4721
29328SOL    HW299964   5.577  13.007   6.457 -0.2883 -0.4077 -0.7727
29329SOL     OW99965  12.781  12.044   4.971 -0.3974 -0.1881 -0.0656
29329SOL    HW199966  12.774  11.950   4.986  0.1420 -0.1129  0.6858
29329SOL    HW299967  12.724  12.060   4.895 -1.0679 -0.9968  0.2507
29330SOL     OW99968   0.031  10.317   9.670  0.7048  0.2678  0.0636
29330SOL    HW199969   0.083  10.299   9.592 -0.0535 -0.6653 -0.2499
29330SOL    HW299970   0.008  10.231   9.703 -0.5576  0.6531  0.2383
29331SOL     OW99971   9.346   3.104  12.380 -0.0602  0.0792  0.1366
29331SOL    HW199972   9.280   3.037  12.362 -0.1508  0.1105  0.3465
29331SOL    HW299973   9.307   3.158  12.449  0.1738  0.1137  0.2421
29332SOL     OW99974   2.505   2.529   2.410 -0.0710 -0.2259 -0.4858
29332SOL    HW199975   2.568   2.461   2.388  0.9857  0.3966  0.4971
29332SOL    HW299976   2.556   2.610   2.411 -0.8660  0.2921  0.3886
29333SOL     OW99977  13.173  12.689   7.403 -0.0328 -0.6419 -0.1383
29333SOL    HW199978  13.124  12.696   7.484 -0.9141  0.8421 -0.7429
29333SOL    HW299979  13.146  12.766   7.352  1.1285 -1.0699 -1.4825
29334SOL     OW99980   7.742   1.552   6.418  0.2091  0.3193  0.6608
29334SOL    HW199981   7.706   1.517   6.499 -0.4045 -0.2088  0.1737
29334SOL    HW299982   7.823   1.502   6.405 -0.0171 -0.0408  0.6249
29335SOL     OW99983   6.594   6.562   9.352 -0.0187  0.0407  0.1165
29335SOL    HW199984   6.539   6.485   9.342  0.4990 -0.4098  0.6281
29335SOL    HW299985   6.645   6.545   9.431  0.8836  0.4204 -0.3598
29336SOL     OW99986   0.494  13.988  13.027  0.1545 -0.1353 -0.1596
29336SOL    HW199987   0.498  14.046  12.951  1.1470  0.4227  0.2993
29336SOL    HW299988   0.416  14.016  13.074  1.5998  2.2019  1.0742
29337SOL     OW99989   7.693   4.885   8.581 -0.6216  0.0709 -0.3849
29337SOL    HW199990   7.648   4.899   8.498 -0.1008  1.3177 -0.4830
29337SOL    HW299991   7.633   4.830   8.632 -1.8258  0.8811 -0.8791
29338SOL     OW99992   0.426   6.686   6.726 -0.0561  0.3663  0.3257
29338SOL    HW199993   0.460   6.762   6.680 -0.1416 -0.2858 -0.8628
29338SOL    HW299994   0.362   6.648   6.666  1.3580 -1.7293  0.0405
29339SOL     OW99995   6.096   7.673  10.262 -0.2779 -0.8883  1.1056
29339SOL    HW199996   6.059   7.683  10.349 -0.1464 -0.9644  1.1710
29339SOL    HW299997   6.177   7.723  10.264  0.9820 -2.8439  1.8056
29340SOL     OW99998  11.939   6.122   4.785  0.4796 -0.4179 -0.0713
29340SOL    HW199999  11.861   6.173   4.810  0.9318 -0.0644  0.6546
29340SOL    HW2    0  11.913   6.031   4.798  0.4073 -0.2750  0.8572
29341SOL     OW    1  10.885  10.995   7.833  0.0979 -0.0808 -0.0748
29341SOL    HW1    2  10.970  10.969   7.867  0.6356  0.6774 -0.7910
29341SOL    HW2    3  10.830  11.005   7.911  0.1628 -2.2035  0.2903
29342SOL     OW    4  11.979   7.873  13.898 -0.6904 -0.0323  0.3406
29342SOL    HW1    5  11.903   7.926  13.876  0.0097  1.3689  1.1419
29342SOL    HW2    6  12.040   7.935  13.938  0.5520 -1.2756  0.4361
29343SOL     OW    7   0.955   5.360   3.111  0.6897  0.1439  0.1184
29343SOL    HW1    8   0.952   5.386   3.019 -1.3173 -0.4709 -0.0378
29343SOL    HW2    9   1.047   5.373   3.137  0.8934  2.1843 -1.3961
29344SOL     OW   10  12.841   3.889  13.949  0.6083  0.8574  0.6115
29344SOL    HW1   11  12.937   3.882  13.953  0.8211 -0.3241 -2.8538
29344SOL    HW2   12  12.810   3.834  14.021  2.5928 -1.1154  0.0855
29345SOL     OW   13   9.421  12.630   7.760 -0.1001 -0.7777  0.0818
29345SOL    HW1   14   9.458  12.680   7.833  2.0103  0.8280 -1.9413
29345SOL    HW2   15   9.327  12.626   7.779  0.3603 -0.5456  2.8847
29346SOL     OW   16   2.250   4.746   3.416 -0.1475  0.0456  0.2036
29346SOL    HW1   17   2.161   4.738   3.381 -1.1831  0.8571  2.4631
29346SOL    HW2   18   2.238   4.774   3.507  2.4454  2.0561  0.0673
29347SOL     OW   19  11.396   3.406   2.923  0.1980 -0.6193 -0.4000
29347SOL    HW1   20  11.370   3.323   2.884 -2.4527  0.4180 -1.0467
29347SOL    HW2   21  11.328   3.468   2.897  1.5088  1.5368  0.9323
29348SOL     OW   22   3.413  13.995  12.230 -0.1899  0.7602  0.7800
29348SOL    HW1   23   3.499  14.035  12.216 -0.0567  1.4816  3.2201
29348SOL    HW2   24   3.362  14.063  12.274 -1.7278  0.0241  0.1951
29349SOL     OW   25   9.681  12.806  13.616  0.6326 -0.0286  0.2226
29349SOL    HW1   26   9.710  12.716  13.602 -0.3975 -0.3225 -0.1809
29349SOL    HW2   27   9.760  12.854  13.640  1.0525 -1.2301  1.3778
29350SOL     OW   28   6.032   8.983   2.788 -0.0604 -0.4440  0.0151
29350SOL    HW1   29   5.972   9.054   2.812 -1.2058 -1.3712 -0.0196
29350SOL    HW2   30   6.046   8.934   2.869  2.4738  1.0266  0.5617
29351SOL     OW   31   0.598   8.587   5.484 -0.1329  0.1196  0.3436
29351SOL    HW1   32   0.646   8.520   5.531  0.2223  1.6774  2.3608
29351SOL    HW2   33   0.626   8.669   5.524 -0.2556  1.5446 -2.2651
29352SOL     OW   34   7.767   6.599  11.303  0.2119 -0.3064 -0.2257
29352SOL    HW1   35   7.683   6.614  11.260 -0.0136 -0.6835  0.0753
29352SOL    HW2   36   7.757   6.637  11.390 -0.5565 -2.5883  0.7529
29353SOL     OW   37  13.520   2.836   6.937  0.2877  0.2803  0.0852
29353SOL    HW1   38  13.540   2.787   6.857  1.6200  0.3726  0.3450
29353SOL    HW2   39  13.563   2.786   7.007  0.2923  0.9432  0.5628
29354SOL     OW   40   9.812   9.040  10.366  0.1121 -0.3167 -0.0521
29354SOL    HW1   41   9.831   9.116  10.421 -1.3231 -0.0720  0.1406
29354SOL    HW2   42   9.717   9.031  10.369  0.0300 -0.6316 -2.0591
29355SOL     OW   43  10.163   1.084   7.283  0.0789  0.2652 -0.1348
29355SOL    HW1   44  10.085   1.031   7.299  0.8294 -0.5349  1.0052
29355SOL    HW2   45  10.228   1.021   7.252  1.0298  0.4565  1.3935
29356SOL     OW   46  10.420   2.767   7.382 -0.2848  0.1206 -0.3676
29356SOL    HW1   47  10.499   2.815   7.357 -0.7977  0.2575 -1.8156
29356SOL    HW2   48  10.367   2.831   7.430 -0.0917  0.4024 -0.5323
29357SOL     OW   49   8.558   7.077  11.414 -0.0043 -0.0981  0.6476
29357SOL    HW1   50   8.490   7.097  11.349 -0.9442 -1.0498  1.3035
29357SOL    HW2   51   8.633   7.049  11.362  0.5455  2.5978 -0.1986
29358SOL     OW   52   0.924   9.201   7.655  0.1484 -0.5956  0.7062
29358SOL    HW1   53   0.927   9.118   7.704 -0.3805 -0.5298  0.8609
29358SOL    HW2   54   0.832   9.210   7.631  0.0502  0.3724  1.4128
29359SOL     OW   55   3.803   0.862   9.980  0.4543 -0.3451 -0.0023
29359SOL    HW1   56   3.783   0.881  10.071 -0.2386 -4.2461  0.8430
29359SOL    HW2   57   3.731   0.807   9.950  2.1536 -1.6948 -1.9277
29360SOL     OW   58   9.770   3.116   9.979 -0.3777 -0.2116  0.0132
29360SOL    HW1   59   9.849   3.070  10.007 -0.2516 -0.2479 -0.3919
29360SOL    HW2   60   9.706   3.098  10.047  0.1908  0.4655  0.7483
29361SOL     OW   61  11.645   7.994   8.774  0.2549 -0.2094 -0.0368
29361SOL    HW1   62  11.640   7.927   8.842 -3.2948 -0.8764 -0.7805
29361SOL    HW2   63  11.559   7.992   8.731  0.6396  3.4997 -1.3671
29362SOL     OW   64   9.164  11.811   4.779 -0.7801 -0.0519  0.1155
29362SOL    HW1   65   9.168  11.881   4.713  1.1623 -0.4560 -0.2493
29362SOL    HW2   66   9.177  11.857   4.863 -2.2394  0.3288  0.1678
29363SOL     OW   67   3.582   8.868  13.476  0.2297  0.3594 -0.4804
29363SOL    HW1   68   3.531   8.884  13.396 -0.6618 -0.8919 -0.1949
29363SOL    HW2   69   3.538   8.921  13.543  0.7867  1.1586 -0.7198
29364SOL     OW   70   7.469   6.539   4.225  0.1038  0.2423  0.0038
29364SOL    HW1   71   7.387   6.587   4.235  0.2187  0.5097 -0.3120
29364SOL    HW2   72   7.537   6.606   4.227  0.3421 -0.0124  0.6045
29365SOL     OW   73  11.586   7.943   4.685 -0.0007 -0.3699  0.0035
29365SOL    HW1   74  11.650   7.875   4.667  0.3193  0.0491 -0.4807
29365SOL    HW2   75  11.501   7.900   4.674  0.0888 -1.6286  3.1344
29366SOL     OW   76  13.973   5.042   1.833  0.0268 -0.1627  0.3797
29366SOL    HW1   77  13.927   4.964   1.864 -0.6484 -0.0002 -0.1733
29366SOL    HW2   78  14.031   5.067   1.905 -1.3453  0.0905  1.4320
29367SOL     OW   79  12.951  12.283   1.463  0.4625  0.3233 -0.4145
29367SOL    HW1   80  12.955  12.209   1.404  0.9186  0.7960 -0.9799
29367SOL    HW2   81  12.884  12.258   1.527  0.5953 -0.5600 -0.6034
29368SOL     OW   82  12.851  10.853  12.161 -0.1647 -0.0443 -0.1586
29368SOL    HW1   83  12.875  10.801  12.084 -4.0474 -0.7754 -1.1142
29368SOL    HW2   84  12.828  10.939  12.125  0.3285  0.4055  0.5735
29369SOL     OW   85  10.871   7.587   9.622  0.0002  0.2399  0.0330
29369SOL    HW1   86  10.889   7.614   9.712  2.6085 -1.9744  0.3118
29369SOL    HW2   87  10.935   7.634   9.570  0.2125 -0.4135 -0.3057
29370SOL     OW   88   4.276   8.614   8.134 -0.0912  0.1238  0.6115
29370SOL    HW1   89   4.210   8.678   8.109  0.0024 -0.2345 -0.6044
29370SOL    HW2   90   4.226   8.534   8.151  0.0858 -0.4086 -1.2279
29371SOL     OW   91   0.473   5.140  11.600 -0.9787 -0.2102  0.0296
29371SOL    HW1   92   0.404   5.077  11.579 -2.2173  1.0634  0.1527
29371SOL    HW2   93   0.446   5.221  11.557  0.6415  0.2441 -0.2207
29372SOL     OW   94  12.762   6.788  13.556  0.0896 -0.0333  0.4223
29372SOL    HW1   95  12.696   6.842  13.512  0.1028 -1.6831 -1.8096
29372SOL    HW2   96  12.714   6.743  13.626 -0.5128  0.8482  0.5842
29373SOL     OW   97   8.565  12.177   4.107  0.1524  0.2177  0.0716
29373SOL    HW1   98   8.620  12.255   4.111  0.0248  0.4723 -2.0069
29373SOL    HW2   99   8.626  12.106   4.085 -0.2660  0.4891 -2.1670
29374SOL     OW  100   3.538   2.904   3.891  0.1312 -0.7792  0.0480
29374SOL    HW1  101   3.500   2.988   3.919  2.0286  0.3348 -0.5475
29374SOL    HW2  102   3.462   2.847   3.878 -1.1557  0.4645  1.5845
29375SOL     OW  103   8.004   8.752  10.253  0.7910  0.1577  0.3574
29375SOL    HW1  104   7.934   8.687  10.254  3.0595 -2.4993  0.6673
29375SOL    HW2  105   8.074   8.710  10.203  2.2413  2.6112  0.1636
29376SOL     OW  106   9.182   2.480   0.563 -0.0281  0.1143  0.1157
29376SOL    HW1  107   9.200   2.543   0.633 -0.3573  1.0871 -0.6564
29376SOL    HW2  108   9.214   2.397   0.597  2.0287  1.0044  0.4784
29377SOL     OW  109   0.056   2.153   5.818  0.1419  0.0741  0.7766
29377SOL    HW1  110   0.007   2.135   5.738 -1.3215  3.0357  0.8603
29377SOL    HW2  111   0.146   2.130   5.797 -0.4229 -0.4636 -1.2617
29378SOL     OW  112   5.876   2.999   6.800 -0.2953  0.4256 -0.4779
29378SOL    HW1  113   5.809   3.058   6.835 -1.2310 -0.5201 -0.6066
29378SOL    HW2  114   5.934   2.981   6.874 -0.9725  0.1943  0.0048
29379SOL     OW  115   4.322   7.328   6.733 -0.4552 -0.3292 -0.4916
29379SOL    HW1  116   4.285   7.250   6.775 -1.0738  0.1987 -0.0251
29379SOL    HW2  117   4.289   7.326   6.643 -2.9532  0.9252  0.3185
29380SOL     OW  118   2.521   4.481   6.554 -0.0805  0.1364 -0.0223
29380SOL    HW1  119   2.586   4.419   6.587  0.7256  1.0731  0.2245
29380SOL    HW2  120   2.491   4.528   6.632 -1.9399 -1.0470  0.0403
29381SOL     OW  121   6.165  13.553   2.264 -0.1809 -0.4622  0.6285
29381SOL    HW1  122   6.100  13.596   2.320  0.1354 -0.2780  0.8576
29381SOL    HW2  123   6.121  13.546   2.179  0.5293  2.4295 -0.1136
29382SOL     OW  124   8.372  11.228  12.314 -0.2210 -0.3600  0.0764
29382SOL    HW1  125   8.283  11.229  12.348  0.1680  0.0916  1.1090
29382SOL    HW2  126   8.417  11.161  12.364 -0.0415 -0.7774 -0.6272
29383SOL     OW  127  13.902  12.199   6.458 -0.0456  1.2523 -0.3642
29383SOL    HW1  128  13.998  12.194   6.462  0.0119 -0.5022 -2.1504
29383SOL    HW2  129  13.884  12.258   6.385 -0.1639 -1.0779 -2.3764
29384SOL     OW  130  10.781   0.205  12.246 -0.8767  0.6698 -0.2140
29384SOL    HW1  131  10.795   0.248  12.331 -0.0151  0.7673 -0.4049
29384SOL    HW2  132  10.838   0.129  12.248  1.3851  2.2186 -1.8354
29385SOL     OW  133   5.727   8.048  13.094  0.3941  0.3291  0.3480
29385SOL    HW1  134   5.751   8.118  13.155  2.1038  0.2330 -0.1836
29385SOL    HW2  135   5.755   8.081  13.008 -0.7735 -0.1053 -0.2254
29386SOL     OW  136   7.007   5.895  10.497  0.6111 -0.5888  0.2803
29386SOL    HW1  137   6.936   5.924  10.439  1.9481 -1.2843 -1.8359
29386SOL    HW2  138   7.047   5.976  10.528  1.4889 -0.1213 -1.9202
29387SOL     OW  139   6.936   7.589   1.240 -0.1568  0.5980 -0.2041
29387SOL    HW1  140   7.019   7.636   1.225 -0.7244  1.3014 -1.2517
29387SOL    HW2  141   6.963   7.508   1.284  1.0530  0.9758 -0.1904
29388SOL     OW  142  13.642   3.535  13.139 -0.1905  0.4068  0.0774
29388SOL    HW1  143  13.647   3.629  13.150  4.8227  0.6455 -1.5597
29388SOL    HW2  144  13.582   3.522  13.066 -0.7036  2.3608  0.1097
29389SOL     OW  145   4.243   4.667   9.739 -0.0613  0.5750 -0.1116
29389SOL    HW1  146   4.297   4.731   9.693  0.4100  0.1186 -0.1930
29389SOL    HW2  147   4.262   4.682   9.832  1.5148 -0.6981 -0.1814
29390SOL     OW  148   4.341  11.162   2.009 -0.4923  0.2639  0.3125
29390SOL    HW1  149   4.414  11.118   1.965 -1.6145  0.6842 -2.1486
29390SOL    HW2  150   4.354  11.255   1.989 -1.4618  0.3872  0.2448
29391SOL     OW  151   7.416  12.298   7.989 -0.1991  0.1150 -0.4810
29391SOL    HW1  152   7.491  12.251   7.954  0.1036 -0.3127  0.7224
29391SOL    HW2  153   7.340  12.246   7.961  0.1835 -1.8621  1.8992
29392SOL     OW  154   3.232   2.857   2.889  0.5845 -0.5569  0.0103
29392SOL    HW1  155   3.167   2.927   2.898  0.8226 -0.5126  1.8077
29392SOL    HW2  156   3.316   2.902   2.891  0.7454 -0.8916  1.4192
29393SOL     OW  157   8.439   2.978   9.711  0.3478  0.3871  0.1636
29393SOL    HW1  158   8.421   2.905   9.770  0.7453  0.8323  0.8413
29393SOL    HW2  159   8.468   2.936   9.630  2.9983 -0.2296  1.3086
29394SOL     OW  160   2.892   0.626   0.274  0.6675 -0.1702 -0.1772
29394SOL    HW1  161   2.905   0.581   0.190  1.7318 -0.8881  0.3508
29394SOL    HW2  162   2.941   0.708   0.265  0.8604 -0.2897 -0.2258
29395SOL     OW  163  12.881   2.579   2.884 -0.0025  0.3437 -0.2999
29395SOL    HW1  164  12.807   2.528   2.854  2.6066 -2.6601 -2.2291
29395SOL    HW2  165  12.849   2.625   2.962 -3.5671 -1.3804 -0.5708
29396SOL     OW  166   9.500   7.457   7.625 -0.3541 -0.0850 -0.0996
29396SOL    HW1  167   9.438   7.491   7.560 -2.1511 -1.4178  0.8173
29396SOL    HW2  168   9.525   7.371   7.591 -0.2029 -0.1908  0.2801
29397SOL     OW  169   1.121  10.351   6.664 -0.5153  0.3889 -0.3069
29397SOL    HW1  170   1.166  10.280   6.709 -1.3588 -0.0590 -0.1432
29397SOL    HW2  171   1.097  10.314   6.579 -0.6623  0.5877 -0.3539
29398SOL     OW  172  12.478   5.121   9.100  0.2352 -0.2016 -0.2088
29398SOL    HW1  173  12.468   5.053   9.167 -0.0241  2.1284  2.2950
29398SOL    HW2  174  12.388   5.148   9.080  0.3179 -0.7876 -1.4592
29399SOL     OW  175  13.813  10.695   1.130 -0.3145 -0.1509 -0.3256
29399SOL    HW1  176  13.828  10.673   1.222 -0.8875 -1.6822 -0.5643
29399SOL    HW2  177  13.798  10.789   1.130  0.1620 -0.0500  1.0830
29400SOL     OW  178   7.711   7.033   6.857 -0.1774  0.4557 -0.2101
29400SOL    HW1  179   7.772   7.067   6.791  0.7882  2.2441  1.5047
29400SOL    HW2  180   7.733   6.940   6.863 -0.5301  0.1510 -2.5965
29401SOL     OW  181   4.654   6.017   6.432 -0.8832 -0.1226  0.0871
29401SOL    HW1  182   4.633   5.992   6.522  0.8276  0.9105  0.8137
29401SOL    HW2  183   4.676   5.935   6.389  1.8397 -0.3116  1.6423
29402SOL     OW  184   4.989   5.952   8.209  0.6104  0.6385 -0.3122
29402SOL    HW1  185   4.981   5.885   8.141  0.5885  1.2716 -0.9409
29402SOL    HW2  186   5.042   5.910   8.277 -2.1967 -1.2894  0.9323
29403SOL     OW  187   2.803  11.257  12.521  0.8631 -0.5583  0.4205
29403SOL    HW1  188   2.768  11.295  12.601 -0.4548 -1.9190  0.5419
29403SOL    HW2  189   2.834  11.333  12.470  1.0547  0.3816  1.8702
29404SOL     OW  190   3.980  10.483   2.561  0.0074 -0.8105  0.3489
29404SOL    HW1  191   3.942  10.569   2.579 -1.6383 -0.9104 -2.2041
29404SOL    HW2  192   4.059  10.502   2.509 -0.0917 -0.8278  0.1924
29405SOL     OW  193  12.856  12.987   2.200 -0.0893 -0.0554  0.2704
29405SOL    HW1  194  12.817  13.054   2.256 -0.0681 -2.0250  2.8117
29405SOL    HW2  195  12.793  12.916   2.198  0.5406 -0.6263 -1.1052
29406SOL     OW  196  13.656   2.738   5.306 -0.0795  0.0331 -0.4032
29406SOL    HW1  197  13.621   2.734   5.217 -0.5741  1.5761 -0.3222
29406SOL    HW2  198  13.595   2.796   5.353  0.8078  0.1819  0.6209
29407SOL     OW  199   3.207   1.656  13.884  0.2296  0.2800  0.0988
29407SOL    HW1  200   3.113   1.642  13.868  0.5816 -1.5631 -0.6830
29407SOL    HW2  201   3.212   1.688  13.974 -1.1262 -0.0610  0.3127
29408SOL     OW  202  10.479   6.156   6.277  0.4828  0.3748  0.1751
29408SOL    HW1  203  10.473   6.094   6.350 -0.3090  0.1712 -0.0440
29408SOL    HW2  204  10.533   6.111   6.212 -0.8504 -0.5315 -0.3742
29409SOL     OW  205  12.914   7.894   0.584 -0.6455  0.1407  0.7328
29409SOL    HW1  206  12.988   7.850   0.626 -0.0906  1.1619  0.8529
29409SOL    HW2  207  12.838   7.866   0.636 -0.1489  0.2914  1.5631
29410SOL     OW  208   5.964  12.906   0.962 -0.0557  0.2608 -0.6796
29410SOL    HW1  209   6.017  12.922   0.884  0.5619  1.4638 -0.0510
29410SOL    HW2  210   5.948  12.993   0.998 -1.2815 -0.1959 -0.0753
29411SOL     OW  211   4.996  12.354   7.238  0.6080 -0.2104  0.1230
29411SOL    HW1  212   5.049  12.361   7.317 -0.9267 -1.4201  1.3230
29411SOL    HW2  213   4.925  12.418   7.250 -0.5917 -1.5605  0.5765
29412SOL     OW  214  11.597   3.464  10.459 -0.0685 -0.0782  0.1135
29412SOL    HW1  215  11.504   3.483  10.448  0.1552  1.3320  0.3715
29412SOL    HW2  216  11.616   3.491  10.549  0.6306 -0.1145 -0.0155
29413SOL     OW  217   5.953  11.365   9.261 -0.3804 -0.0141 -0.1988
29413SOL    HW1  218   5.961  11.288   9.318 -1.1947  0.8654  1.1841
29413SOL    HW2  219   6.026  11.421   9.286 -0.0577 -0.1310 -0.8692
29414SOL     OW  220  11.535  11.182  12.197  0.0648  0.0034 -0.7575
29414SOL    HW1  221  11.523  11.088  12.209  0.3124 -0.2104 -2.0084
29414SOL    HW2  222  11.575  11.190  12.110  2.0961  1.1375  0.2116
29415SOL     OW  223   5.907   3.599  10.995 -0.3421  0.0486  0.0058
29415SOL    HW1  224   5.837   3.540  11.023  0.9380 -1.3197  0.4798
29415SOL    HW2  225   5.988   3.551  11.015  0.7568  1.8950  0.1831
29416SOL     OW  226   1.453   7.237  10.244  0.4515  0.1010 -0.2231
29416SOL    HW1  227   1.479   7.328  10.236  1.5803 -0.0657  1.2202
29416SOL    HW2  228   1.379   7.228  10.183  1.1880  1.6016 -1.4061
29417SOL     OW  229   7.794  10.268   9.531 -0.5933  0.1517  1.3994
29417SOL    HW1  230   7.847  10.196   9.496 -0.4906  0.6130  0.5747
29417SOL    HW2  231   7.730  10.286   9.462  0.4908  2.0177  0.7996
29418SOL     OW  232   8.097   0.389   4.779  0.2911 -0.5393  0.1336
29418SOL    HW1  233   8.182   0.419   4.744  0.1964  0.4774  0.7315
29418SOL    HW2  234   8.120   0.342   4.859  0.2079  1.3530  1.3326
29419SOL     OW  235  10.662   7.655   7.585 -0.8353 -0.1014 -0.1459
29419SOL    HW1  236  10.586   7.603   7.559 -0.8164 -0.8311  1.1347
29419SOL    HW2  237  10.634   7.699   7.665 -0.4227  0.8910 -0.5321
29420SOL     OW  238  12.569   5.534   4.032 -0.3278  0.0915  0.0750
29420SOL    HW1  239  12.559   5.628   4.015  1.2487  0.6660  2.0039
29420SOL    HW2  240  12.593   5.529   4.124  0.6759 -2.1510 -0.2609
29421SOL     OW  241  12.374   2.250   5.471 -0.3499 -0.1596 -0.0094
29421SOL    HW1  242  12.289   2.292   5.486 -0.0823  0.1754  0.6116
29421SOL    HW2  243  12.412   2.243   5.559 -0.3846 -1.6937 -0.0867
29422SOL     OW  244   9.262  13.159   7.404  0.1352 -0.5588 -0.0064
29422SOL    HW1  245   9.328  13.159   7.473  0.3783 -2.9924 -0.1473
29422SOL    HW2  246   9.312  13.158   7.323 -0.1053 -0.4478 -0.1569
29423SOL     OW  247  10.746   3.018   3.716 -0.5110  0.0197 -0.3732
29423SOL    HW1  248  10.741   2.941   3.772  1.9327  0.1757  0.1671
29423SOL    HW2  249  10.716   3.090   3.771  1.1168  0.0472  0.5316
29424SOL     OW  250   7.149   6.814   1.396 -0.3066  0.4908  0.8182
29424SOL    HW1  251   7.241   6.798   1.373  0.2632  0.8456  2.6937
29424SOL    HW2  252   7.102   6.739   1.360  0.5123  0.8591 -1.1849
29425SOL     OW  253   7.159  13.173  13.981 -0.2487  0.0186 -0.2066
29425SOL    HW1  254   7.137  13.125  13.901 -2.5542  0.3833  0.1281
29425SOL    HW2  255   7.231  13.231  13.956 -0.9687  0.1781 -2.0401
29426SOL     OW  256  11.178   4.318   0.718  0.3663 -0.6339 -0.6154
29426SOL    HW1  257  11.119   4.251   0.683 -1.0167  0.4380 -0.4055
29426SOL    HW2  258  11.122   4.374   0.771  1.4490  0.8285 -0.9599
29427SOL     OW  259   6.295   9.413   3.242  0.3767  0.5666 -0.5572
29427SOL    HW1  260   6.274   9.502   3.271  2.1053  0.5092  1.0353
29427SOL    HW2  261   6.328   9.369   3.320  1.1630 -0.9623 -1.7003
29428SOL     OW  262   6.277   0.263   9.509  0.1519  0.3337  0.0454
29428SOL    HW1  263   6.292   0.169   9.508 -0.6965  0.1012  2.5369
29428SOL    HW2  264   6.186   0.273   9.482  0.5541  0.5769 -1.3080
29429SOL     OW  265   5.459   1.068   6.490  0.3464 -0.3768 -0.2792
29429SOL    HW1  266   5.548   1.097   6.511 -0.0615  0.0343  0.9555
29429SOL    HW2  267   5.466   1.032   6.402  1.4323  1.0896 -0.8376
29430SOL     OW  268   0.897   2.180   6.359  0.0282 -1.1607 -0.1638
29430SOL    HW1  269   0.977   2.175   6.412 -0.2475 -0.5047  0.3339
29430SOL    HW2  270   0.827   2.193   6.424 -0.0980  1.8294 -0.7514
29431SOL     OW  271   9.799   6.162   6.985  0.3521 -0.6281  0.1237
29431SOL    HW1  272   9.785   6.085   7.040  0.6600 -1.5577 -1.0463
29431SOL    HW2  273   9.828   6.126   6.901  1.3545  0.8055 -0.1859
29432SOL     OW  274  11.404   0.740   0.568  0.1281  0.5133 -0.2991
29432SOL    HW1  275  11.325   0.793   0.580 -0.9446 -0.9752 -0.6024
29432SOL    HW2  276  11.402   0.677   0.640  0.5258 -0.1522 -0.8578
29433SOL     OW  277   4.030   2.307   7.040  0.1990  0.2931  0.1085
29433SOL    HW1  278   3.994   2.387   7.001 -0.4023  0.3622  0.7868
29433SOL    HW2  279   4.124   2.317   7.031  0.0903  0.5207 -0.9046
29434SOL     OW  280  12.624  12.834   0.764  0.2640  0.0341  0.1921
29434SOL    HW1  281  12.682  12.759   0.767  0.9449  0.5725  1.1122
29434SOL    HW2  282  12.559  12.813   0.697  0.9402 -0.9986 -0.1433
29435SOL     OW  283  10.181   1.171  11.307 -0.2855 -0.0229  0.2688
29435SOL    HW1  284  10.101   1.154  11.356 -0.1756 -0.3535  0.3411
29435SOL    HW2  285  10.191   1.094  11.250 -0.9532  0.8048 -1.0204
29436SOL     OW  286   6.450  11.141   3.704 -0.2357 -0.5933  0.5572
29436SOL    HW1  287   6.537  11.116   3.736 -0.1369 -1.7829 -0.5591
29436SOL    HW2  288   6.456  11.236   3.692  0.7243 -0.5806  1.0183
29437SOL     OW  289  12.184   6.561  13.881 -0.0995 -0.1061 -0.1000
29437SOL    HW1  290  12.138   6.590  13.960  1.2104  0.7948  0.3765
29437SOL    HW2  291  12.126   6.586  13.809 -1.6643 -1.6249  0.5840
29438SOL     OW  292   5.331   9.752  10.285 -0.3648 -0.4020 -0.0231
29438SOL    HW1  293   5.266   9.808  10.243 -0.0688  0.1106  0.1817
29438SOL    HW2  294   5.340   9.677  10.227  0.1577  0.3653 -0.9700
29439SOL     OW  295   6.116   2.842   7.925 -0.2240  0.2413 -0.3596
29439SOL    HW1  296   6.101   2.932   7.896 -1.0312  1.7636  4.0004
29439SOL    HW2  297   6.033   2.815   7.964  0.8215 -1.2835  0.9706
29440SOL     OW  298   7.679   6.455   1.274  0.1633  0.0529  0.2347
29440SOL    HW1  299   7.599   6.451   1.223 -0.4314  0.1740  1.1269
29440SOL    HW2  300   7.650   6.444   1.365  1.3883 -2.3714  0.4261
29441SOL     OW  301   5.840   5.029   3.500  0.1699  0.0053 -0.2320
29441SOL    HW1  302   5.845   4.946   3.453 -1.1142 -0.6775  0.7840
29441SOL    HW2  303   5.753   5.062   3.482  0.9892  1.6447 -1.3966
29442SOL     OW  304  11.997   1.297  13.217  0.0217  0.5415  0.7693
29442SOL    HW1  305  12.006   1.388  13.188 -1.4816  0.5016  0.0629
29442SOL    HW2  306  11.937   1.258  13.153  0.4729 -0.8938  1.1882
29443SOL     OW  307   8.646  10.967   0.902 -0.5483 -0.5092  0.3314
29443SOL    HW1  308   8.583  10.896   0.912 -0.8083 -0.1527  1.4187
29443SOL    HW2  309   8.636  10.996   0.812 -1.5742 -0.8068  0.3440
29444SOL     OW  310   1.333   5.687  13.475 -0.0783 -0.2569  0.4675
29444SOL    HW1  311   1.266   5.651  13.416  1.7213 -0.5509 -1.5562
29444SOL    HW2  312   1.397   5.727  13.416  0.9613  1.0399  2.3719
29445SOL     OW  313  11.622  13.494   0.079  0.2038  0.1100  0.2749
29445SOL    HW1  314  11.543  13.441   0.089 -1.3340  2.1333 -0.4860
29445SOL    HW2  315  11.655  13.472  -0.008 -0.6891  0.6886 -0.2276
29446SOL     OW  316  11.849   7.838   5.266 -0.0814 -0.1184  0.9261
29446SOL    HW1  317  11.820   7.886   5.344  1.3384  0.9928  0.8001
29446SOL    HW2  318  11.918   7.892   5.229 -0.6658 -0.6655 -1.0787
29447SOL     OW  319   0.509  12.340   2.306 -0.0947 -0.3341 -0.1553
29447SOL    HW1  320   0.518  12.428   2.342  0.1141 -0.4552  0.0888
29447SOL    HW2  321   0.524  12.350   2.212 -2.2018  0.2627 -0.4932
29448SOL     OW  322  13.056   8.233   3.942  0.4783 -0.2948 -0.2477
29448SOL    HW1  323  13.045   8.284   3.862 -0.6339 -0.5870 -0.2993
29448SOL    HW2  324  12.969   8.196   3.959  1.1560 -1.8361  0.0071
29449SOL     OW  325   8.053   0.683   8.750  0.4337  0.3077 -0.2472
29449SOL    HW1  326   8.148   0.674   8.743  0.3903  0.4035 -1.0461
29449SOL    HW2  327   8.032   0.755   8.690  0.0407  1.3711  1.1242
29450SOL     OW  328   2.703   6.728   7.925 -0.1848  0.2641 -0.2407
29450SOL    HW1  329   2.678   6.650   7.975  0.3889  0.0643 -0.2671
29450SOL    HW2  330   2.624   6.751   7.876 -0.3280 -0.3569 -0.3038
29451SOL     OW  331  12.782   5.085   7.296 -0.2455  0.3326  0.1936
29451SOL    HW1  332  12.856   5.085   7.356 -0.4549  0.6694  0.4533
29451SOL    HW2  333  12.819   5.109   7.211 -0.0379  0.3758  0.2977
29452SOL     OW  334   2.976   8.520   5.059 -0.1261  0.1470 -0.2778
29452SOL    HW1  335   2.982   8.446   4.999 -1.2670 -0.1128 -0.1057
29452SOL    HW2  336   3.041   8.583   5.027  0.1893 -0.5273 -0.9930
29453SOL     OW  337   3.205  10.110   3.778  0.1896 -0.0034 -0.0859
29453SOL    HW1  338   3.211  10.139   3.687 -1.3146 -0.0536 -0.2201
29453SOL    HW2  339   3.115  10.128   3.803  0.8281  0.9671  1.7333
29454SOL     OW  340  13.160  10.784   6.210 -0.0384 -0.0001  0.2121
29454SOL    HW1  341  13.202  10.774   6.125 -0.4268  0.7168 -0.0652
29454SOL    HW2  342  13.232  10.809   6.269 -0.0575  1.2674 -0.2724
29455SOL     OW  343   4.729  11.927   0.129  0.0323 -0.8766 -0.4395
29455SOL    HW1  344   4.793  11.857   0.130  0.8496 -0.2131  1.9345
29455SOL    HW2  345   4.667  11.904   0.199  0.0181  0.4792  0.0297
29456SOL     OW  346   9.256   5.512  12.493  0.2322  0.4336  0.2888
29456SOL    HW1  347   9.253   5.606  12.511 -0.5679  0.6554 -0.8852
29456SOL    HW2  348   9.213   5.502  12.408 -0.0992 -1.0498  0.5977
29457SOL     OW  349   5.751   1.070   5.338 -0.3337 -0.2393 -0.5581
29457SOL    HW1  350   5.799   1.082   5.256  1.3662  0.4134  0.4737
29457SOL    HW2  351   5.806   1.010   5.389 -0.9149  0.0527  0.4432
29458SOL     OW  352  13.394   3.249   2.061  0.3142 -0.1305 -0.2243
29458SOL    HW1  353  13.358   3.163   2.083 -2.0858  0.8003 -0.2107
29458SOL    HW2  354  13.431   3.239   1.973 -0.4886 -1.0116 -0.4687
29459SOL     OW  355  12.325   8.527  12.397 -0.3712 -0.0182  0.2967
29459SOL    HW1  356  12.273   8.448  12.407  0.1659 -0.4410 -0.1176
29459SOL    HW2  357  12.381   8.509  12.320  0.3219  0.4394  0.6795
29460SOL     OW  358  13.075   2.764  12.217 -0.3933 -0.0474  0.5620
29460SOL    HW1  359  13.026   2.704  12.160  0.6719 -0.2989 -0.1042
29460SOL    HW2  360  13.007   2.814  12.262 -1.2715 -0.4041 -0.3218
29461SOL     OW  361  12.609   0.318   1.651 -0.3340  0.2858  0.1227
29461SOL    HW1  362  12.560   0.310   1.569 -0.3387 -0.6274  0.2017
29461SOL    HW2  363  12.697   0.287   1.630 -0.6189 -0.9618  0.7060
29462SOL     OW  364   0.275   3.877   3.661  0.1884  0.2528 -0.5009
29462SOL    HW1  365   0.332   3.934   3.610 -1.2267  1.8894 -0.3433
29462SOL    HW2  366   0.327   3.853   3.738  1.0394  0.8205 -0.8892
29463SOL     OW  367   2.190   7.470  10.809  0.1175 -0.3334  0.5522
29463SOL    HW1  368   2.285   7.485  10.805  0.3478 -1.9304 -1.0937
29463SOL    HW2  369   2.181   7.383  10.846 -0.5764 -1.0640 -1.2433
29464SOL     OW  370   7.892   2.555  11.748  0.0596 -0.0820 -0.3576
29464SOL    HW1  371   7.979   2.548  11.708  0.1675 -1.0456  0.0092
29464SOL    HW2  372   7.862   2.643  11.725  2.3193  1.4311  1.9244
29465SOL     OW  373   2.161   5.329   7.823  0.6715 -0.1455  0.0085
29465SOL    HW1  374   2.118   5.243   7.826 -1.7399  1.0000  0.4172
29465SOL    HW2  375   2.111   5.378   7.758  0.1598  1.8526  1.8146
29466SOL     OW  376   0.023   4.967   3.618 -0.1697 -0.0772 -0.2421
29466SOL    HW1  377   0.044   4.877   3.641 -0.2181 -0.0334 -0.0239
29466SOL    HW2  378  -0.071   4.975   3.637 -0.3995 -0.2847 -1.2403
29467SOL     OW  379  10.184   6.404   0.340 -0.2269 -0.5851  0.4344
29467SOL    HW1  380  10.175   6.426   0.433 -0.7677  1.0152  0.0201
29467SOL    HW2  381  10.279   6.399   0.326 -0.1385 -0.5907  1.0040
29468SOL     OW  382   1.290   8.577   2.419 -0.0239  0.5137 -0.0108
29468SOL    HW1  383   1.326   8.636   2.485  1.5610 -0.9287  0.4896
29468SOL    HW2  384   1.335   8.494   2.434 -0.9247 -0.3575 -1.7911
29469SOL     OW  385   3.805   4.046  11.877  0.4532 -0.1797 -0.0096
29469SOL    HW1  386   3.833   4.096  11.800 -1.1580 -0.3567 -0.7596
29469SOL    HW2  387   3.842   4.093  11.951  0.0977  1.3756 -0.7694
29470SOL     OW  388   2.377   0.160   8.456  0.3935  0.5637 -0.1504
29470SOL    HW1  389   2.430   0.081   8.466  0.4348  0.5971 -0.1037
29470SOL    HW2  390   2.390   0.208   8.537  3.1915  2.3078 -1.4622
29471SOL     OW  391   9.086   3.055   4.754  0.1660 -0.1988 -0.1612
29471SOL    HW1  392   9.040   3.136   4.732  0.1450 -0.2210 -0.1980
29471SOL    HW2  393   9.178   3.074   4.735  0.0304 -0.5319 -1.1691
29472SOL     OW  394   5.932  10.212   7.222  0.1159  0.2484  0.3244
29472SOL    HW1  395   5.934  10.293   7.274  0.7413 -0.3323  1.2392
29472SOL    HW2  396   5.957  10.239   7.134  0.8588  0.9603  0.7449
29473SOL     OW  397  11.458   3.993   6.043  0.0441  0.0408 -0.1346
29473SOL    HW1  398  11.514   3.921   6.071 -0.6105 -0.5740 -0.3816
29473SOL    HW2  399  11.495   4.071   6.084  0.5796 -0.4855  0.3729
29474SOL     OW  400   0.044   1.064   0.188  0.0234  0.2173 -0.3733
29474SOL    HW1  401   0.095   1.029   0.261  1.0384 -0.0745 -1.2109
29474SOL    HW2  402  -0.023   1.119   0.230  0.9804  0.5681  0.7427
29475SOL     OW  403   8.136   8.065   8.814 -0.9203  0.5243 -0.2000
29475SOL    HW1  404   8.201   8.012   8.860 -1.0381 -0.2852 -0.9308
29475SOL    HW2  405   8.055   8.050   8.863 -1.0326 -0.2867 -0.6141
29476SOL     OW  406  11.248  12.683   3.365 -0.4673 -0.0400 -0.0546
29476SOL    HW1  407  11.195  12.763   3.360 -0.9579 -0.3637 -0.1921
29476SOL    HW2  408  11.195  12.623   3.418  0.2215 -0.0320  0.6549
29477SOL     OW  409   4.700   1.548   1.151  0.2075 -0.1379 -0.0060
29477SOL    HW1  410   4.774   1.605   1.128 -0.1462  0.4537  0.2863
29477SOL    HW2  411   4.644   1.603   1.206 -0.3577 -0.6400 -0.0700
29478SOL     OW  412  11.824   7.953   1.266 -0.2203 -0.1052  0.5421
29478SOL    HW1  413  11.734   7.955   1.232 -0.0767 -1.2854  0.0504
29478SOL    HW2  414  11.878   7.942   1.188  0.1240 -2.8341  1.0473
29479SOL     OW  415   0.040   6.437   1.251  0.8283 -0.2443 -0.0642
29479SOL    HW1  416  -0.050   6.464   1.263  0.9148 -0.3740  0.9418
29479SOL    HW2  417   0.078   6.503   1.193  1.1158  2.0487  2.5367
29480SOL     OW  418   0.840  10.652   4.312 -0.2057 -0.6584  0.0869
29480SOL    HW1  419   0.807  10.720   4.254 -0.0595 -0.5404  0.1386
29480SOL    HW2  420   0.880  10.587   4.254  0.3560 -0.3107  0.0792
29481SOL     OW  421   9.729   8.262   2.235 -0.0113 -0.5775 -0.3991
29481SOL    HW1  422   9.721   8.315   2.314 -0.4693  0.6659 -1.2443
29481SOL    HW2  423   9.641   8.264   2.196  0.1843 -1.2432 -0.9008
29482SOL     OW  424   8.793   0.693   2.795 -0.2092  0.4696 -0.1761
29482SOL    HW1  425   8.866   0.753   2.811 -0.9136  1.2284  0.2822
29482SOL    HW2  426   8.726   0.747   2.754  0.7759 -0.9734 -4.1085
29483SOL     OW  427   5.717  10.282  11.875  0.7233 -0.6453  0.2965
29483SOL    HW1  428   5.797  10.269  11.825  0.2698  1.7203 -1.1929
29483SOL    HW2  429   5.651  10.231  11.828  0.4462  1.0278 -1.2247
29484SOL     OW  430   5.861   9.514   5.075  0.0299 -0.3154 -0.2846
29484SOL    HW1  431   5.818   9.443   5.123 -0.7039  0.4161  0.1765
29484SOL    HW2  432   5.940   9.533   5.125 -0.8106  0.5474  0.7563
29485SOL     OW  433  12.044   9.904   4.537 -0.3049 -0.4041 -0.4651
29485SOL    HW1  434  12.054   9.809   4.534 -0.9917 -0.4633 -1.7538
29485SOL    HW2  435  11.952   9.919   4.515 -1.1164  0.4364  2.8745
29486SOL     OW  436   1.114   8.573   5.184 -0.3635  0.1417 -0.3325
29486SOL    HW1  437   1.157   8.615   5.258 -0.2238  2.7633 -1.7692
29486SOL    HW2  438   1.185   8.559   5.121 -1.0273  1.4190 -1.4076
29487SOL     OW  439   0.793  12.532   1.342 -0.2245 -0.1277  0.1122
29487SOL    HW1  440   0.875  12.575   1.367 -0.8784  0.6249  1.0132
29487SOL    HW2  441   0.788  12.544   1.247  1.1091 -0.9232 -0.0945
29488SOL     OW  442   2.393   2.713   5.224  0.1240 -0.2655 -0.3429
29488SOL    HW1  443   2.381   2.636   5.280  0.5604 -0.5082 -0.5744
29488SOL    HW2  444   2.355   2.785   5.274 -3.7215 -1.1513 -1.6343
29489SOL     OW  445   5.480  10.059   7.058 -0.1878 -0.5414 -1.1865
29489SOL    HW1  446   5.431  10.014   6.989  1.0767 -1.1309 -1.7322
29489SOL    HW2  447   5.537  10.121   7.012 -0.9640  0.7130 -0.5161
29490SOL     OW  448   1.082   1.378  10.989 -0.2804 -0.1334  0.2014
29490SOL    HW1  449   1.173   1.363  11.015 -0.2762  0.0679  0.3038
29490SOL    HW2  450   1.056   1.297  10.946  0.0986 -0.0156 -0.2627
29491SOL     OW  451  10.241   7.886  11.757  0.2174  0.6806 -0.0044
29491SOL    HW1  452  10.233   7.831  11.679  1.1972  1.2008 -0.4926
29491SOL    HW2  453  10.158   7.875  11.803  0.1100 -0.5992 -0.4798
29492SOL     OW  454   3.797  12.083   2.714  0.3037 -0.1417 -0.6716
29492SOL    HW1  455   3.772  12.166   2.673 -0.4560 -0.2462 -0.4464
29492SOL    HW2  456   3.713  12.044   2.740  0.6750 -0.8464 -0.5212
29493SOL     OW  457  11.319  12.113  10.948 -0.1011 -0.3815  0.0676
29493SOL    HW1  458  11.228  12.114  10.977  0.2782  0.9395  1.3344
29493SOL    HW2  459  11.335  12.023  10.920 -1.7415 -0.6708 -0.0257
29494SOL     OW  460  12.825  12.300  12.111  0.4514 -0.3360 -0.0260
29494SOL    HW1  461  12.823  12.325  12.018 -0.5472  0.1932  0.1232
29494SOL    HW2  462  12.875  12.219  12.113  0.8064 -0.1560 -0.9806
29495SOL     OW  463   5.474  13.849  11.187 -0.0520 -0.0528  0.0133
29495SOL    HW1  464   5.476  13.758  11.217 -1.4890 -0.1060  0.0071
29495SOL    HW2  465   5.480  13.901  11.267  0.6419 -0.1376  0.0265
29496SOL     OW  466   4.859   3.681  11.432  0.5188  0.1447 -0.0902
29496SOL    HW1  467   4.940   3.703  11.479  1.7909 -0.8530 -1.7159
29496SOL    HW2  468   4.865   3.731  11.350 -1.0948  0.9431  0.2422
29497SOL     OW  469  11.319   0.916  10.863  0.2521  0.5103  0.0421
29497SOL    HW1  470  11.370   0.966  10.800  2.2145 -1.2740  0.1051
29497SOL    HW2  471  11.255   0.868  10.810  0.0131  1.1769 -0.2722
29498SOL     OW  472  13.612   1.489   1.240 -0.3875 -0.0116 -0.2078
29498SOL    HW1  473  13.698   1.448   1.251 -0.0724  0.8561  0.8092
29498SOL    HW2  474  13.562   1.461   1.317 -0.2979  1.1595  0.2935
29499SOL     OW  475   9.812   5.907   3.650  0.3672  0.6809 -0.6782
29499SOL    HW1  476   9.741   5.910   3.713 -0.5054  0.1231 -1.5974
29499SOL    HW2  477   9.858   5.825   3.669  1.4337  1.5408  0.5875
29500SOL     OW  478  11.435   2.289  10.168 -0.0508  0.8085 -0.6289
29500SOL    HW1  479  11.347   2.256  10.188  0.0929 -1.5013 -3.2255
29500SOL    HW2  480  11.487   2.267  10.245 -1.1399 -0.5087 -0.2274
29501SOL     OW  481  10.877   5.769   4.466 -0.6859 -0.3331 -0.3306
29501SOL    HW1  482  10.905   5.792   4.555  0.3066  0.0031 -0.7152
29501SOL    HW2  483  10.883   5.674   4.462 -0.9550 -0.3680  0.0267
29502SOL     OW  484  11.088   6.215   7.010 -0.1076  0.1826 -0.2298
29502SOL    HW1  485  11.026   6.161   7.059  0.8174 -0.7235 -0.0109
29502SOL    HW2  486  11.153   6.152   6.977  1.2351  1.2112  0.3867
29503SOL     OW  487   6.640   9.607   5.976 -0.4480  0.9426 -0.8404
29503SOL    HW1  488   6.664   9.616   6.068 -0.0348  0.1197 -0.8612
29503SOL    HW2  489   6.563   9.549   5.978  0.2399  0.0014 -1.0816
29504SOL     OW  490   2.501  11.445   9.534 -0.0467 -0.6068 -0.2365
29504SOL    HW1  491   2.555  11.376   9.496 -0.0785 -0.8372  0.1252
29504SOL    HW2  492   2.468  11.407   9.615 -0.0600 -0.1640 -0.0293
29505SOL     OW  493   7.664  13.857   1.350  0.2291 -0.4149 -0.5192
29505SOL    HW1  494   7.584  13.816   1.319 -0.2921 -0.4509  0.8003
29505SOL    HW2  495   7.640  13.949   1.362 -0.0285 -0.6730  1.1413
29506SOL     OW  496   3.956   8.251   9.406 -0.1844  0.0695 -0.3914
29506SOL    HW1  497   4.016   8.259   9.332 -0.0667  1.0747 -0.1972
29506SOL    HW2  498   3.979   8.167   9.446  1.7193  0.8161  0.2075
29507SOL     OW  499   6.889   5.024   1.499  0.5164 -0.0707 -0.2007
29507SOL    HW1  500   6.894   5.025   1.403  0.1393  1.9639 -0.2571
29507SOL    HW2  501   6.815   4.967   1.519  1.9547 -2.3448 -0.9646
29508SOL     OW  502   7.386   0.085   1.335 -0.7077  0.4197 -0.2115
29508SOL    HW1  503   7.387   0.120   1.246 -1.7512 -1.4741 -1.0282
29508SOL    HW2  504   7.476   0.097   1.367  0.1205 -0.3424 -2.1339
29509SOL     OW  505  11.798   5.604   9.639  0.3281  0.4144  0.3395
29509SOL    HW1  506  11.812   5.698   9.634 -0.5605  0.5174 -0.5615
29509SOL    HW2  507  11.877   5.570   9.681  0.5243  1.5821  0.9617
29510SOL     OW  508   7.619   7.260   0.274 -0.1774 -0.2649 -0.6988
29510SOL    HW1  509   7.657   7.323   0.212  2.2584  0.2003  1.1207
29510SOL    HW2  510   7.642   7.295   0.360 -1.3370 -2.1480  0.4167
29511SOL     OW  511   1.647   9.108  12.282 -0.6153  0.0172 -0.3957
29511SOL    HW1  512   1.612   9.174  12.223  0.3411  1.0076  0.1007
29511SOL    HW2  513   1.613   9.025  12.249 -0.7799  0.6291 -1.8234
29512SOL     OW  514  13.674   7.308  10.931 -0.6043 -0.1376 -0.8132
29512SOL    HW1  515  13.688   7.399  10.905  2.4003  0.1241  1.1875
29512SOL    HW2  516  13.658   7.262  10.849  1.6588  1.6298 -2.3832
29513SOL     OW  517   6.946  13.373  11.362 -0.0315  0.8395 -0.6035
29513SOL    HW1  518   6.945  13.277  11.364  0.9577  0.8181 -0.5712
29513SOL    HW2  519   6.871  13.399  11.417 -1.1830  0.0976 -1.7593
29514SOL     OW  520   2.937  12.014   5.645 -0.6715 -0.1188 -0.3540
29514SOL    HW1  521   2.892  12.086   5.600 -0.2971 -1.2951 -2.8040
29514SOL    HW2  522   3.029  12.026   5.623 -0.7417 -2.0328 -1.9972
29515SOL     OW  523   1.322   9.314   0.741 -0.2046 -0.1015 -0.7194
29515SOL    HW1  524   1.410   9.350   0.732 -0.9630  1.7836 -1.0528
29515SOL    HW2  525   1.334   9.233   0.791  1.6532  0.3660 -0.3376
29516SOL     OW  526  12.020   1.260   2.354  0.0808  0.2545 -0.3014
29516SOL    HW1  527  11.955   1.291   2.417  0.1518 -0.7233  0.2669
29516SOL    HW2  528  12.098   1.312   2.373  0.7735 -1.4507  1.8690
29517SOL     OW  529   2.603   3.283   0.915  0.3996  0.0878  0.1201
29517SOL    HW1  530   2.611   3.268   1.009  0.6109  1.5927  0.3631
29517SOL    HW2  531   2.568   3.200   0.880 -0.8933 -0.0722  1.6908
29518SOL     OW  532   3.794   5.713   6.905  0.4820 -0.2184 -0.5839
29518SOL    HW1  533   3.798   5.632   6.854  0.8061  0.3428 -1.4630
29518SOL    HW2  534   3.877   5.714   6.954  1.3721  0.4993 -2.0291
29519SOL     OW  535   8.506   0.720  13.837  0.5246  0.3319 -0.4274
29519SOL    HW1  536   8.540   0.738  13.749  2.6373  0.5224  0.3717
29519SOL    HW2  537   8.430   0.777  13.845  1.6501  2.0715 -1.3201
29520SOL     OW  538  12.667  12.089  12.203  0.6658  0.5873  0.1369
29520SOL    HW1  539  12.712  12.172  12.218  0.8785  0.3335  0.9191
29520SOL    HW2  540  12.631  12.098  12.114  1.5638  1.1087 -0.1957
29521SOL     OW  541  11.854   7.915   7.980  0.0267  0.8275 -0.0960
29521SOL    HW1  542  11.932   7.923   7.925  0.9983 -0.1178  1.0657
29521SOL    HW2  543  11.874   7.969   8.057  0.6140 -1.2335  1.3003
29522SOL     OW  544   9.168  13.612   3.897  0.1622 -0.5490  0.3046
29522SOL    HW1  545   9.143  13.564   3.818  0.1877  1.1420 -0.8044
29522SOL    HW2  546   9.086  13.645   3.933  0.3108  0.6753 -0.4084
29523SOL     OW  547  11.563   8.699  12.182  0.6732  0.3981 -0.1281
29523SOL    HW1  548  11.541   8.718  12.273  0.8553 -0.5014  0.1187
29523SOL    HW2  549  11.534   8.776  12.133 -2.9766 -0.5698  0.1806
29524SOL     OW  550   5.546   9.118   8.915 -0.2456  0.1654  0.0480
29524SOL    HW1  551   5.557   9.155   9.003  2.0410 -2.1751  0.8793
29524SOL    HW2  552   5.524   9.026   8.930  0.7660 -0.4182 -1.7914
29525SOL     OW  553  13.538   7.219  12.734  0.1998  0.1614 -0.6083
29525SOL    HW1  554  13.449   7.215  12.770  0.4875  0.3399  0.1443
29525SOL    HW2  555  13.591   7.253  12.806  1.2929 -2.1484 -0.2243
29526SOL     OW  556   1.100   2.488   4.016 -0.2138  0.3827 -0.5131
29526SOL    HW1  557   1.123   2.421   3.952  1.4229  0.7401 -0.3347
29526SOL    HW2  558   1.112   2.571   3.970 -1.9500  0.5970 -0.6447
29527SOL     OW  559   0.519  12.884  13.907  0.1788  0.4534 -0.1229
29527SOL    HW1  560   0.614  12.885  13.893  0.7403  0.6801  2.9073
29527SOL    HW2  561   0.510  12.893  14.002 -2.8887 -0.2404 -0.2716
29528SOL     OW  562   0.937  13.796   4.825 -0.4015  0.3042  0.3624
29528SOL    HW1  563   1.019  13.754   4.801 -0.6887  0.1302 -0.3203
29528SOL    HW2  564   0.904  13.744   4.899  0.4071  0.7554  1.0596
29529SOL     OW  565   4.945   2.791   3.833  0.3593 -0.5705 -0.0110
29529SOL    HW1  566   5.034   2.814   3.859  0.2961  1.5150 -1.4071
29529SOL    HW2  567   4.951   2.770   3.740 -0.7007  0.3614 -0.3167
29530SOL     OW  568   2.683   8.231  10.172  0.3947 -0.2561  0.4714
29530SOL    HW1  569   2.686   8.302  10.109  0.5690 -1.0478 -0.4320
29530SOL    HW2  570   2.616   8.257  10.235 -0.7767 -0.0684 -0.8070
29531SOL     OW  571   3.444  12.350   1.569 -0.3289 -0.0706  0.3798
29531SOL    HW1  572   3.365  12.303   1.543 -0.4918  0.0549  0.6412
29531SOL    HW2  573   3.468  12.402   1.493  0.0431 -0.8239 -0.0345
29532SOL     OW  574  11.248   5.110  10.102 -0.1911  0.3816 -0.1630
29532SOL    HW1  575  11.214   5.113  10.191 -0.9522 -1.7861 -0.3361
29532SOL    HW2  576  11.202   5.181  10.057 -0.1706  1.1737  1.0158
29533SOL     OW  577   8.334   9.887  12.754  0.0931  0.0151  0.0664
29533SOL    HW1  578   8.309   9.979  12.762  0.5829  0.0942  0.7983
29533SOL    HW2  579   8.304   9.847  12.836 -0.2511 -0.5074 -0.3117
29534SOL     OW  580   6.847  11.210   9.712  0.8061 -0.2787  0.4709
29534SOL    HW1  581   6.776  11.168   9.762 -1.5603  2.1986 -0.5760
29534SOL    HW2  582   6.889  11.268   9.775  3.3328 -3.0544  1.6055
29535SOL     OW  583   2.156  10.929   1.683  0.0508  0.2052 -0.3440
29535SOL    HW1  584   2.093  10.998   1.704 -2.3542 -1.3465 -1.9007
29535SOL    HW2  585   2.237  10.976   1.663 -0.7651  2.3619  0.9862
29536SOL     OW  586   4.881  13.999   4.240 -0.2092 -0.2817  0.0774
29536SOL    HW1  587   4.953  13.955   4.194  0.0955  0.3287 -0.0343
29536SOL    HW2  588   4.810  13.935   4.239 -0.8644  0.3744 -2.8525
29537SOL     OW  589   1.311   9.813   6.069  0.2150  0.6772 -0.1635
29537SOL    HW1  590   1.324   9.902   6.103 -2.5653  1.0340  0.2165
29537SOL    HW2  591   1.255   9.771   6.134  1.4466 -1.3850 -0.3607
29538SOL     OW  592   4.948  10.527   7.900  0.4946 -0.2561  0.4416
29538SOL    HW1  593   4.891  10.584   7.848  0.7893 -0.0636  0.3245
29538SOL    HW2  594   4.998  10.587   7.955  0.6094 -0.4196  0.5148
29539SOL     OW  595   0.843   4.036   2.922  0.4864 -0.2102 -0.2045
29539SOL    HW1  596   0.878   4.111   2.874 -1.0047  0.0664 -0.9139
29539SOL    HW2  597   0.802   3.982   2.854  0.2163 -0.8945  0.4962
29540SOL     OW  598   7.680  12.466   8.562 -0.3127 -0.1165 -0.1413
29540SOL    HW1  599   7.601  12.519   8.578  0.4958  0.8432  0.8047
29540SOL    HW2  600   7.745  12.529   8.531  0.5295 -0.6387  0.5429
29541SOL     OW  601  11.217  11.731  12.167  0.4314  0.0772 -0.4141
29541SOL    HW1  602  11.132  11.770  12.190  1.0844  0.0413  2.3460
29541SOL    HW2  603  11.277  11.805  12.166  0.6710 -0.1201 -0.7420
29542SOL     OW  604  10.475  11.990   8.958 -0.2504  0.2056 -0.0457
29542SOL    HW1  605  10.477  11.973   9.052 -1.6355 -1.2053 -0.2177
29542SOL    HW2  606  10.492  12.084   8.950 -1.6893  0.6843  1.7482
29543SOL     OW  607   6.795  13.725   4.178  0.1355  0.4937  0.0689
29543SOL    HW1  608   6.710  13.686   4.158 -0.2354 -0.0258  2.3714
29543SOL    HW2  609   6.774  13.815   4.205  0.6470  1.2695 -1.9158
29544SOL     OW  610   4.853   1.851   0.652  0.4630  0.3259 -0.1834
29544SOL    HW1  611   4.943   1.877   0.635  0.4866 -0.1303 -0.7718
29544SOL    HW2  612   4.851   1.833   0.746  0.9354  0.5154 -0.1339
29545SOL     OW  613   8.486   4.485   8.763 -0.8508 -0.0053 -0.2642
29545SOL    HW1  614   8.480   4.393   8.737  2.4608  0.1396 -2.1247
29545SOL    HW2  615   8.445   4.489   8.849  0.1116 -3.5202  0.5137
29546SOL     OW  616  13.042   2.204   3.559  0.2125  0.2171 -0.1945
29546SOL    HW1  617  13.068   2.260   3.632 -1.7167 -0.0022  0.7007
29546SOL    HW2  618  13.026   2.118   3.599  0.2358 -0.2040 -1.0671
29547SOL     OW  619  13.477   2.268   0.472 -0.5835 -0.2710  0.0206
29547SOL    HW1  620  13.524   2.201   0.522  0.3966 -0.6835 -1.4070
29547SOL    HW2  621  13.392   2.274   0.515 -0.5094 -2.0740  0.5101
29548SOL     OW  622  11.590  12.497   4.341 -0.3160  0.3366 -0.3193
29548SOL    HW1  623  11.627  12.474   4.426 -0.3285  2.3190  0.2680
29548SOL    HW2  624  11.571  12.590   4.347 -3.2690 -0.0816 -1.3910
29549SOL     OW  625  11.454   7.056   1.042 -0.6225 -0.6674  0.1033
29549SOL    HW1  626  11.413   7.011   1.116 -0.0333  0.7511  1.3441
29549SOL    HW2  627  11.515   6.991   1.005 -0.8661 -1.3684  0.8959
29550SOL     OW  628   0.276   7.915  10.092 -0.4066 -0.5283 -0.1805
29550SOL    HW1  629   0.214   7.949  10.157 -0.4140 -2.6288  1.0209
29550SOL    HW2  630   0.363   7.932  10.130 -0.4242 -2.5914  0.9398
29551SOL     OW  631   3.690  11.604  13.807 -1.0268  0.0322 -0.0189
29551SOL    HW1  632   3.778  11.639  13.794 -0.2662 -1.8317 -0.0898
29551SOL    HW2  633   3.640  11.679  13.840  0.2558  1.4367 -1.1070
29552SOL     OW  634  13.583   7.933  12.611  0.2612  0.5700 -0.3133
29552SOL    HW1  635  13.545   7.963  12.693  0.1566  0.2593 -0.2440
29552SOL    HW2  636  13.564   8.003  12.548  0.1676  0.7183 -0.1204
29553SOL     OW  637  11.227   9.532  10.493  0.2157  0.2824  0.2923
29553SOL    HW1  638  11.307   9.571  10.527  0.5014 -1.1999  1.4623
29553SOL    HW2  639  11.254   9.445  10.462 -0.5913  0.4999 -1.1336
29554SOL     OW  640  14.026  12.947  10.305  0.7139  0.0092  0.1064
29554SOL    HW1  641  13.998  12.878  10.246 -0.5573  0.2650  0.3804
29554SOL    HW2  642  14.002  13.028  10.261  1.2027  0.2496  0.2736
29555SOL     OW  643  11.043   4.566  11.633  0.3419 -0.6040  0.4863
29555SOL    HW1  644  10.980   4.637  11.620  0.9509 -0.2747 -0.8312
29555SOL    HW2  645  10.994   4.499  11.681 -0.4008  0.4697  1.2756
29556SOL     OW  646   6.751   1.998   4.444  0.2940 -0.1309  0.5411
29556SOL    HW1  647   6.838   2.023   4.412 -0.6856  0.8884 -1.5500
29556SOL    HW2  648   6.703   2.081   4.450 -0.1384 -0.4702  3.2205
29557SOL     OW  649   9.856   1.271  13.993 -0.1582 -0.1152  0.2637
29557SOL    HW1  650   9.764   1.281  13.971 -0.3706  1.5774  1.6198
29557SOL    HW2  651   9.867   1.324  14.072  1.8302 -0.8488  0.5446
29558SOL     OW  652  12.276   3.543   0.084 -0.1186  0.1677  0.3463
29558SOL    HW1  653  12.300   3.450   0.087 -0.4034  0.0250 -1.0758
29558SOL    HW2  654  12.183   3.545   0.103  0.0270  0.2477  1.0900
29559SOL     OW  655   9.469   2.832   2.683 -0.3629 -0.0335  0.4012
29559SOL    HW1  656   9.545   2.888   2.667  0.4326 -1.2934 -0.4396
29559SOL    HW2  657   9.486   2.792   2.768 -1.7961  2.2533  1.8954
29560SOL     OW  658   2.501   0.790   1.893 -0.1990  0.4451  0.0025
29560SOL    HW1  659   2.517   0.742   1.812 -2.3529 -0.1616 -0.1024
29560SOL    HW2  660   2.406   0.797   1.899 -0.0339  1.8630  1.6917
29561SOL     OW  661  10.231   8.076   2.155  0.5904 -0.0586  0.1789
29561SOL    HW1  662  10.243   7.984   2.133 -0.6337 -0.2049  0.0599
29561SOL    HW2  663  10.312   8.118   2.126  1.6374 -1.2502  1.2400
29562SOL     OW  664   9.202   0.715   6.562  0.0527 -0.4202  0.2395
29562SOL    HW1  665   9.215   0.690   6.653 -0.4349  0.3192  0.5224
29562SOL    HW2  666   9.107   0.722   6.553  0.0988 -0.5092 -0.3282
29563SOL     OW  667   7.315  11.329   9.235 -0.1852 -0.2496 -0.5759
29563SOL    HW1  668   7.256  11.392   9.277 -1.0451  0.1598 -2.3062
29563SOL    HW2  669   7.400  11.372   9.236 -0.4006  0.1806 -0.1890
29564SOL     OW  670  13.059   8.087   1.928 -0.0436 -0.2690 -0.0690
29564SOL    HW1  671  13.127   8.150   1.953  0.0059 -0.7211  0.9754
29564SOL    HW2  672  12.991   8.140   1.886 -0.0428  0.4895  0.8737
29565SOL     OW  673   0.435   3.856   2.409 -0.0094 -0.0433 -0.8058
29565SOL    HW1  674   0.492   3.792   2.368 -1.2010 -1.7140  0.0545
29565SOL    HW2  675   0.398   3.906   2.335  0.0326 -1.1134 -1.5700
29566SOL     OW  676   6.840   0.607  10.485 -0.1986  0.3827 -0.3720
29566SOL    HW1  677   6.813   0.540  10.423  1.4275  0.1061 -0.8044
29566SOL    HW2  678   6.770   0.673  10.481 -0.9199 -0.4098 -1.2485
29567SOL     OW  679   2.368  10.876   5.952 -0.1283 -0.5819  0.5605
29567SOL    HW1  680   2.445  10.924   5.920  0.2951  0.2774  2.6702
29567SOL    HW2  681   2.372  10.792   5.907  0.0880  0.6628 -1.9578
29568SOL     OW  682   2.776   7.429  12.089  0.4678 -0.8179  0.7590
29568SOL    HW1  683   2.717   7.354  12.089  1.8619 -1.9760 -0.2078
29568SOL    HW2  684   2.854   7.398  12.044  0.7342  1.5406 -0.5508
29569SOL     OW  685   7.800   5.161   1.961  0.1475 -0.4987  0.6920
29569SOL    HW1  686   7.866   5.135   1.896 -0.4152  1.5012 -0.7478
29569SOL    HW2  687   7.849   5.165   2.043  1.1915 -1.7359  0.1760
29570SOL     OW  688  10.336   0.150   2.238 -0.4283 -0.3219 -1.0382
29570SOL    HW1  689  10.418   0.186   2.203  0.0484 -1.2093 -0.8872
29570SOL    HW2  690  10.365   0.082   2.299 -1.2612  0.5393  0.3595
29571SOL     OW  691  11.065   4.067   7.735 -0.2878 -0.1972 -0.3352
29571SOL    HW1  692  11.019   3.986   7.711  0.7581 -1.0047  0.2473
29571SOL    HW2  693  11.143   4.066   7.679 -0.5005  0.6551 -0.6496
29572SOL     OW  694  12.327   4.546   3.260 -0.3410  0.4613  0.3409
29572SOL    HW1  695  12.314   4.452   3.248  0.5920  0.5379 -1.8913
29572SOL    HW2  696  12.380   4.553   3.339  0.2073 -0.9603  0.1408
29573SOL     OW  697  11.837   3.472   8.225  0.1959  0.0292 -0.6394
29573SOL    HW1  698  11.823   3.476   8.130  1.5639 -1.2470 -0.9143
29573SOL    HW2  699  11.859   3.562   8.249 -2.5115  0.9356 -1.0795
29574SOL     OW  700   3.200  11.831   6.267  0.4310 -0.1639 -0.0821
29574SOL    HW1  701   3.165  11.822   6.356  1.7116  0.8525  0.5724
29574SOL    HW2  702   3.123  11.843   6.212 -0.3132  1.8967  1.2810
29575SOL     OW  703   0.821   0.142  10.464  0.1167 -0.1179 -0.2413
29575SOL    HW1  704   0.888   0.210  10.477  0.2453  0.0946 -1.8650
29575SOL    HW2  705   0.856   0.066  10.511  2.0504 -0.3373 -1.8913
29576SOL     OW  706   8.803   0.511  13.951  0.0699  0.3153  0.4118
29576SOL    HW1  707   8.795   0.586  14.008  1.4056  0.8324 -0.0220
29576SOL    HW2  708   8.893   0.480  13.965  0.0833 -0.1708 -0.6202
29577SOL     OW  709  12.712   0.263  12.058 -0.1061 -0.0450  0.0807
29577SOL    HW1  710  12.688   0.273  11.966 -2.1344 -0.9200  0.4426
29577SOL    HW2  711  12.724   0.353  12.089 -0.6462  0.3358 -0.7606
29578SOL     OW  712   5.775   3.351   7.105  0.3339  0.1247 -0.1322
29578SOL    HW1  713   5.688   3.354   7.065  0.3448 -0.4083 -0.1974
29578SOL    HW2  714   5.835   3.376   7.035  0.2632  0.1708 -0.1762
29579SOL     OW  715  13.287  10.147   9.962 -0.0120  0.1113  0.1520
29579SOL    HW1  716  13.381  10.154   9.946  0.2783 -0.8816  1.2520
29579SOL    HW2  717  13.254  10.095   9.889  0.8305 -2.0859  1.2505
29580SOL     OW  718   0.409  10.510   5.440 -0.4031 -0.0913 -0.4228
29580SOL    HW1  719   0.358  10.464   5.373  0.2552 -2.4459  0.5995
29580SOL    HW2  720   0.486  10.456   5.453 -0.3798  0.4432  2.0383
29581SOL     OW  721  12.280   3.642   0.771 -0.1577 -0.0010  0.5617
29581SOL    HW1  722  12.365   3.662   0.810 -0.3584  0.8179  0.5955
29581SOL    HW2  723  12.218   3.650   0.843 -0.1375 -1.8461  0.8380
29582SOL     OW  724   3.360   9.742   5.588 -0.1375  0.0014 -0.7487
29582SOL    HW1  725   3.448   9.769   5.563 -0.0688 -1.0150 -1.6943
29582SOL    HW2  726   3.307   9.821   5.575  0.8170  1.0100  1.0962
29583SOL     OW  727  13.310  12.589   1.410  0.4731  0.2601  0.4026
29583SOL    HW1  728  13.369  12.628   1.346  0.4553 -0.4430 -0.0523
29583SOL    HW2  729  13.313  12.495   1.391 -1.4261  0.2849 -0.1833
29584SOL     OW  730   2.906   8.444   4.053  0.2158  0.3193  0.1876
29584SOL    HW1  731   2.913   8.536   4.029  0.1873  0.4996  0.8505
29584SOL    HW2  732   2.945   8.439   4.141  0.0098 -0.2553  0.2508
29585SOL     OW  733   2.885   5.503   9.315  0.0730  0.2146 -0.0142
29585SOL    HW1  734   2.817   5.470   9.257 -1.6969  1.2977  1.3610
29585SOL    HW2  735   2.868   5.461   9.399  2.8170 -1.6029 -0.2238
29586SOL     OW  736   2.387   5.581  12.771 -0.0696  0.1752  0.0800
29586SOL    HW1  737   2.384   5.494  12.809 -0.4247 -0.3716 -1.1670
29586SOL    HW2  738   2.299   5.597  12.738  0.1879  0.6919 -0.3861
29587SOL     OW  739   0.030   3.344   8.869  0.3345 -0.9367 -0.4801
29587SOL    HW1  740  -0.015   3.308   8.793 -3.2049 -0.1123  1.0164
29587SOL    HW2  741   0.043   3.437   8.848 -1.1899 -0.5720  0.0775
29588SOL     OW  742  11.682   1.323   5.763 -0.7277  0.3096  0.1532
29588SOL    HW1  743  11.649   1.294   5.678  0.2479  1.5963 -0.7069
29588SOL    HW2  744  11.723   1.407   5.745  1.0266 -0.1775  1.5908
29589SOL     OW  745   2.733   9.020   0.211  0.0940 -0.2394 -0.0723
29589SOL    HW1  746   2.803   9.085   0.218 -0.8121  0.9922 -1.7202
29589SOL    HW2  747   2.677   9.037   0.288  0.3072  0.4048 -0.0476
29590SOL     OW  748   7.199   4.670   2.034  0.8120  0.0907  0.5703
29590SOL    HW1  749   7.163   4.605   1.975  0.8630 -0.1516  0.8046
29590SOL    HW2  750   7.267   4.624   2.083 -0.3771 -0.1766  2.0203
29591SOL     OW  751   7.534   4.582   6.831  0.0668  0.3434  0.3794
29591SOL    HW1  752   7.494   4.514   6.884 -0.6704  0.9780  0.6552
29591SOL    HW2  753   7.596   4.626   6.890  1.6132 -0.9671 -0.1873
29592SOL     OW  754  10.162   6.791  10.268 -0.0443  0.2420  0.2671
29592SOL    HW1  755  10.217   6.712  10.270 -0.2948 -0.0777 -2.4741
29592SOL    HW2  756  10.223   6.863  10.256 -0.0572  0.0431 -1.1480
29593SOL     OW  757   6.676   4.671   1.300  0.2824  0.0300 -0.4746
29593SOL    HW1  758   6.707   4.667   1.210 -0.0984  2.8622 -0.8188
29593SOL    HW2  759   6.582   4.683   1.293  0.2980  0.6929  0.2675
29594SOL     OW  760   5.906   8.325  11.165  0.0294 -0.5718  0.1127
29594SOL    HW1  761   5.914   8.322  11.069 -1.2929  2.5779 -0.2506
29594SOL    HW2  762   5.823   8.282  11.183 -1.7421  2.1530 -0.7535
29595SOL     OW  763   0.747   9.635   7.962  0.2219 -0.5040  0.4376
29595SOL    HW1  764   0.708   9.563   8.011  0.3319  0.8314  2.6529
29595SOL    HW2  765   0.803   9.679   8.026  1.8697  0.2676 -1.4421
29596SOL     OW  766   9.987   4.617  12.740  0.1469 -0.2620 -0.1456
29596SOL    HW1  767   9.909   4.585  12.785  0.2059 -0.7534 -0.3811
29596SOL    HW2  768  10.046   4.643  12.811 -0.6829  1.2651  0.0127
29597SOL     OW  769   7.071   2.005   0.574  0.0989 -0.3698 -0.8219
29597SOL    HW1  770   7.123   2.014   0.494  1.3658 -1.0749 -0.1178
29597SOL    HW2  771   7.057   2.096   0.603  0.9613 -0.1523 -1.0377
29598SOL     OW  772   4.344   5.367  13.726 -0.0976 -0.2175 -0.3042
29598SOL    HW1  773   4.259   5.391  13.689  0.0329  1.4621  0.3631
29598SOL    HW2  774   4.334   5.276  13.752 -2.0320  0.1819  0.5944
29599SOL     OW  775  10.102   0.815  12.525  0.0736 -0.0124  0.6677
29599SOL    HW1  776  10.127   0.905  12.506 -0.9408 -0.1055 -1.3096
29599SOL    HW2  777  10.006   0.815  12.520  0.0118 -1.0520  1.4513
29600SOL     OW  778   0.867  10.593   1.320 -0.1406 -0.1296 -0.0926
29600SOL    HW1  779   0.781  10.607   1.281  0.2985 -2.5479 -2.2023
29600SOL    HW2  780   0.909  10.679   1.319 -2.0508  0.8420 -0.2055
29601SOL     OW  781   7.783   1.203   4.657 -0.2572 -0.3788 -0.0565
29601SOL    HW1  782   7.857   1.148   4.685  1.0654  1.1382 -0.3993
29601SOL    HW2  783   7.707   1.166   4.701  0.6746 -2.1071  0.1817
29602SOL     OW  784   5.655  13.664   3.067 -0.1410 -0.0101 -0.5623
29602SOL    HW1  785   5.582  13.609   3.095 -0.9234  1.3621  0.2370
29602SOL    HW2  786   5.664  13.646   2.973 -2.1877  0.5088 -0.9184
29603SOL     OW  787   2.607   9.713   6.758  0.6418  0.2580 -0.0299
29603SOL    HW1  788   2.616   9.663   6.839 -0.2032 -0.0311 -0.1000
29603SOL    HW2  789   2.570   9.797   6.784 -1.6157 -0.5802 -0.2907
29604SOL     OW  790   8.803   4.119   4.743  0.1687  0.2650  0.6864
29604SOL    HW1  791   8.877   4.173   4.773  0.7171  0.3152 -0.7124
29604SOL    HW2  792   8.792   4.141   4.651  0.1532 -1.7285  0.1673
29605SOL     OW  793   8.213   2.075  10.932 -0.1636 -0.2010 -0.4242
29605SOL    HW1  794   8.158   2.027  10.870 -1.8508  0.2592  0.6209
29605SOL    HW2  795   8.279   2.012  10.959 -1.6380 -1.6323  0.0498
29606SOL     OW  796  13.701   1.746   4.280 -0.0812  0.0577 -0.6095
29606SOL    HW1  797  13.775   1.689   4.302 -0.0527  0.7562  1.3411
29606SOL    HW2  798  13.706   1.817   4.344 -2.5278  0.0545 -0.3160
29607SOL     OW  799  13.504  10.811  13.433  0.1192  0.2694 -0.1746
29607SOL    HW1  800  13.480  10.891  13.480 -0.8285 -0.2877  0.3036
29607SOL    HW2  801  13.455  10.816  13.351  0.0241  0.1542 -0.1244
29608SOL     OW  802   9.918   9.097   3.193  0.0648  0.4226 -0.1081
29608SOL    HW1  803  10.006   9.093   3.157 -0.3020  0.2039 -1.0155
29608SOL    HW2  804   9.862   9.067   3.122 -0.6701 -0.2289  0.7167
29609SOL     OW  805  10.956   5.368   3.138 -0.1659 -0.0545  0.2816
29609SOL    HW1  806  10.939   5.366   3.232 -0.8913 -2.3043  0.1611
29609SOL    HW2  807  11.046   5.337   3.129  0.7104  2.2931  0.3112
29610SOL     OW  808   9.224  10.917   9.102 -0.5332  0.2496  0.1402
29610SOL    HW1  809   9.234  10.996   9.155 -0.3069 -0.3985  1.0991
29610SOL    HW2  810   9.256  10.941   9.015 -1.4831  1.5169  0.1148
29611SOL     OW  811   7.441   1.553   2.188  0.0967  0.0620 -0.0603
29611SOL    HW1  812   7.406   1.465   2.202 -1.8897  0.4193 -2.1068
29611SOL    HW2  813   7.433   1.596   2.273  0.7284 -1.5965  0.8745
29612SOL     OW  814   9.822   5.960  12.043  0.4687 -0.2060 -0.1231
29612SOL    HW1  815   9.852   6.012  12.118 -1.0359  0.5654 -0.0189
29612SOL    HW2  816   9.867   5.999  11.968  0.4084  0.3591  0.1273
29613SOL     OW  817   0.410   2.346  10.362  0.7664 -0.2175 -0.0288
29613SOL    HW1  818   0.495   2.339  10.319  1.2595  0.6273  0.7745
29613SOL    HW2  819   0.351   2.295  10.306  2.0313 -1.9213  0.0916
29614SOL     OW  820   5.683   1.316   8.363  0.1912 -0.1286  0.4997
29614SOL    HW1  821   5.614   1.362   8.413 -0.1603 -0.6209  0.4718
29614SOL    HW2  822   5.693   1.232   8.408  1.0911  0.1168  0.7664
29615SOL     OW  823   8.647   8.724  13.935 -0.1659 -0.2013 -0.0819
29615SOL    HW1  824   8.631   8.790  13.868  0.5275 -0.8600 -0.9262
29615SOL    HW2  825   8.608   8.760  14.015 -1.1689  0.5275 -0.8721
29616SOL     OW  826  12.980   4.535  12.834  0.0483 -0.1143 -0.1834
29616SOL    HW1  827  12.996   4.482  12.756  0.5954 -0.0093 -0.1450
29616SOL    HW2  828  12.970   4.625  12.801  2.1880  0.2499  0.0164
29617SOL     OW  829  10.271   5.822   1.075  0.1925  0.2361  0.3712
29617SOL    HW1  830  10.258   5.875   0.997 -1.5828  0.4998  0.7824
29617SOL    HW2  831  10.348   5.769   1.057 -0.5697 -0.2114 -1.8547
29618SOL     OW  832   5.928   3.883   3.560 -0.2196  0.2373 -0.2100
29618SOL    HW1  833   5.925   3.927   3.475  2.6993  0.3570 -0.3441
29618SOL    HW2  834   5.975   3.801   3.543  0.4110  0.2593  1.2757
29619SOL     OW  835  10.956   2.700   7.781 -0.3174 -0.0734  0.1967
29619SOL    HW1  836  10.976   2.723   7.872  0.5310  1.7486 -0.4000
29619SOL    HW2  837  10.956   2.783   7.735 -1.4226 -0.8988 -1.3695
29620SOL     OW  838   2.003  12.433   9.533 -0.3129  0.1821  0.0210
29620SOL    HW1  839   2.072  12.369   9.550 -0.2328 -0.1218 -1.3260
29620SOL    HW2  840   1.927  12.380   9.506 -1.1485  0.4997  1.6230
29621SOL     OW  841   0.918   0.741   5.608 -0.1077 -0.0401  0.1935
29621SOL    HW1  842   0.848   0.795   5.572  2.1541  1.5572 -2.1659
29621SOL    HW2  843   0.905   0.655   5.568 -1.1565 -0.0302  0.4740
29622SOL     OW  844  12.994   7.579   6.757 -0.5562  0.3520  0.1221
29622SOL    HW1  845  13.054   7.636   6.708 -0.1195  0.2213  0.5135
29622SOL    HW2  846  13.001   7.609   6.847 -0.5901 -0.1014  0.2729
29623SOL     OW  847   7.088   4.228   1.253  0.1339 -0.6732  0.2045
29623SOL    HW1  848   7.000   4.236   1.215  0.9852  1.6926 -1.4895
29623SOL    HW2  849   7.110   4.136   1.245 -1.8412 -1.1619 -0.1324
29624SOL     OW  850   0.043   7.369   3.179 -0.1899  0.5098 -0.2125
29624SOL    HW1  851  -0.035   7.406   3.139  0.2997  0.5569 -1.1450
29624SOL    HW2  852   0.083   7.316   3.110  0.2127 -0.1190  0.4760
29625SOL     OW  853  12.414   5.160  12.931 -0.2200 -0.3466 -0.1720
29625SOL    HW1  854  12.367   5.203  12.860  0.7412  0.6539 -0.2327
29625SOL    HW2  855  12.504   5.193  12.924  0.9891 -3.4153 -1.1250
29626SOL     OW  856   9.661   8.911  11.342  0.5015 -1.0327  0.2605
29626SOL    HW1  857   9.574   8.950  11.350  1.2120  0.6148  0.3753
29626SOL    HW2  858   9.676   8.903  11.248  0.2830 -1.1833  0.2398
29627SOL     OW  859   7.796  12.997   2.695 -0.0383  0.0235  0.6045
29627SOL    HW1  860   7.775  13.084   2.660 -0.3523  0.3253  1.5045
29627SOL    HW2  861   7.713  12.950   2.693  0.0547 -0.1352  0.4534
29628SOL     OW  862   0.027   8.345  13.329 -0.0704 -0.1701  0.1697
29628SOL    HW1  863  -0.045   8.285  13.312  0.2424  0.0614 -2.3092
29628SOL    HW2  864   0.106   8.291  13.325  0.0152 -0.3071  2.2495
29629SOL     OW  865  10.696   1.664   1.495 -0.1042  0.4780  0.0419
29629SOL    HW1  866  10.680   1.618   1.412  0.5692  1.1521 -0.4856
29629SOL    HW2  867  10.715   1.754   1.468  1.9506  0.3286  0.7629
29630SOL     OW  868   0.645   7.189   3.461 -0.2081  0.4530  0.2428
29630SOL    HW1  869   0.628   7.259   3.524  1.2706 -0.0171  1.2276
29630SOL    HW2  870   0.736   7.202   3.435  0.1454 -1.1362  0.5332
29631SOL     OW  871   4.663   9.276   0.146  0.1471 -0.8309 -0.7853
29631SOL    HW1  872   4.614   9.327   0.210  0.9420 -2.2419  1.0193
29631SOL    HW2  873   4.755   9.298   0.162  0.3416 -0.8926 -1.7349
29632SOL     OW  874   2.185   0.648   6.986  0.0555 -0.5549  0.5026
29632SOL    HW1  875   2.251   0.592   6.945 -0.7893  0.0190 -1.8116
29632SOL    HW2  876   2.114   0.589   7.011 -0.1641 -0.7375 -0.5133
29633SOL     OW  877   5.806   3.340   1.290  0.6914  0.3526 -0.2729
29633SOL    HW1  878   5.858   3.311   1.215 -1.3272  0.0802 -1.6634
29633SOL    HW2  879   5.715   3.329   1.261 -0.1632  2.1399  1.4853
29634SOL     OW  880   2.074   4.757   9.727  0.3898 -0.2316  0.0379
29634SOL    HW1  881   2.082   4.780   9.820 -0.4862 -0.6389  0.2235
29634SOL    HW2  882   2.045   4.838   9.685 -2.5638 -0.8518  0.6719
29635SOL     OW  883  13.469   5.375   4.984 -0.0696  0.0139  0.7456
29635SOL    HW1  884  13.431   5.295   5.019 -1.0850 -0.2154 -0.7889
29635SOL    HW2  885  13.472   5.360   4.889  2.2740  0.7126  0.6485
29636SOL     OW  886   3.533  14.034  13.298 -0.2246 -0.2810 -0.8512
29636SOL    HW1  887   3.545  14.122  13.335  0.4667 -1.1108  1.0400
29636SOL    HW2  888   3.509  14.050  13.207 -0.8387  1.8796 -0.3826
29637SOL     OW  889   6.495   3.818  11.355  0.4573 -0.5037  0.4733
29637SOL    HW1  890   6.568   3.838  11.414  0.5592  0.2937  0.0824
29637SOL    HW2  891   6.474   3.726  11.374  0.7841 -0.3923  1.4278
29638SOL     OW  892   0.429  10.502   3.032  0.0884  0.3068  0.3222
29638SOL    HW1  893   0.367  10.571   3.057 -0.9970 -0.0806 -1.1329
29638SOL    HW2  894   0.425  10.501   2.936 -0.3074 -2.0906  0.2990
29639SOL     OW  895  12.574   0.621   1.216  0.2945  0.1286  0.5489
29639SOL    HW1  896  12.512   0.583   1.153  0.9446  0.4106 -0.2791
29639SOL    HW2  897  12.610   0.697   1.171  0.8280  0.2997  1.2461
29640SOL     OW  898  11.445   2.647  11.647 -0.0194  0.3902 -0.2044
29640SOL    HW1  899  11.381   2.576  11.653  1.2842 -0.8050  0.2864
29640SOL    HW2  900  11.512   2.614  11.587  1.2988  0.6065  1.0766
29641SOL     OW  901   9.394   1.360  12.265  0.1607 -0.5867  0.1898
29641SOL    HW1  902   9.440   1.441  12.286 -1.1465  0.5132 -0.9667
29641SOL    HW2  903   9.414   1.301  12.338  2.4500  0.1905  0.2691
29642SOL     OW  904  10.940   3.791  12.597 -0.4519  0.1829 -0.1624
29642SOL    HW1  905  10.891   3.868  12.628  0.2713  0.4492  0.3375
29642SOL    HW2  906  10.977   3.753  12.676 -1.2759 -1.0372 -0.3268
29643SOL     OW  907  12.175   1.258  12.576 -0.1900  0.4062 -0.0851
29643SOL    HW1  908  12.080   1.269  12.574  0.0180  2.5546 -0.9857
29643SOL    HW2  909  12.205   1.323  12.640  0.7514  0.8065 -0.9041
29644SOL     OW  910   5.146   3.557   2.925  0.0984 -0.2178  0.1127
29644SOL    HW1  911   5.145   3.512   3.009 -0.8490 -1.0320 -0.3245
29644SOL    HW2  912   5.195   3.638   2.942  0.4646 -0.6658  1.2818
29645SOL     OW  913  10.887   5.929   4.742  0.3278 -0.7322  0.4544
29645SOL    HW1  914  10.867   6.008   4.692 -0.4994 -1.2349 -0.0505
29645SOL    HW2  915  10.977   5.942   4.773  0.2683  0.3144  0.2260
29646SOL     OW  916   1.515  11.935   1.199  0.0606 -0.2299  0.0674
29646SOL    HW1  917   1.474  11.937   1.285  1.2320  0.9716  0.6387
29646SOL    HW2  918   1.600  11.894   1.214 -0.1776 -1.0771 -0.7617
29647SOL     OW  919  13.297   7.950   1.843  0.1988 -0.4931  0.5335
29647SOL    HW1  920  13.376   8.001   1.822  0.1422 -1.3153 -2.0098
29647SOL    HW2  921  13.228   8.015   1.854  0.2049  0.0960 -2.2798
29648SOL     OW  922   6.035   5.632   5.728  0.3302  0.4291 -0.2196
29648SOL    HW1  923   6.092   5.623   5.651  0.7799  3.3623 -0.3575
29648SOL    HW2  924   5.946   5.621   5.694  0.6131 -0.7945 -0.6321
29649SOL     OW  925  12.240   3.003   6.063 -0.2216 -0.0823 -0.1390
29649SOL    HW1  926  12.190   3.078   6.031 -1.4070 -0.2222  1.2827
29649SOL    HW2  927  12.320   3.042   6.099 -0.5264  0.4415 -0.0073
29650SOL     OW  928   0.857   5.291   8.127  0.2549 -0.2818  0.4855
29650SOL    HW1  929   0.788   5.316   8.065  0.2681  0.3979  0.7394
29650SOL    HW2  930   0.938   5.317   8.084  0.2701  0.1011  0.7451
29651SOL     OW  931   8.767   8.648  11.672  0.0326 -0.0032  0.5325
29651SOL    HW1  932   8.791   8.738  11.696  0.8747  0.4937 -1.8454
29651SOL    HW2  933   8.835   8.594  11.712  1.7476  0.8318 -1.0773
29652SOL     OW  934   6.022   2.716   8.888 -0.3471  0.1006  0.0273
29652SOL    HW1  935   6.011   2.688   8.797  1.8992  0.1593 -0.3198
29652SOL    HW2  936   6.030   2.634   8.937  1.7876  0.0029 -0.3657
29653SOL     OW  937   5.517   8.980  10.435  0.0913  0.1379 -0.5441
29653SOL    HW1  938   5.611   8.997  10.445 -0.3812  2.1589  1.1913
29653SOL    HW2  939   5.506   8.962  10.341  2.6163 -3.5909 -0.3164
29654SOL     OW  940   2.549   7.958   8.988 -0.4756 -0.1204 -0.1598
29654SOL    HW1  941   2.593   8.005   8.918 -2.3140 -1.2180 -2.1585
29654SOL    HW2  942   2.572   8.007   9.068  3.1561  0.1297 -1.1676
29655SOL     OW  943   1.191   7.366   1.892  0.6399  0.5198 -0.2169
29655SOL    HW1  944   1.134   7.439   1.916  1.4127  1.3114 -0.7078
29655SOL    HW2  945   1.138   7.312   1.833 -0.6118 -0.4015  1.6497
29656SOL     OW  946   3.000  10.082  12.298  0.1437 -0.4428  0.0946
29656SOL    HW1  947   3.095  10.078  12.287  0.1097 -2.6266  0.2105
29656SOL    HW2  948   2.988  10.111  12.388  0.7028 -0.5337  0.2036
29657SOL     OW  949   2.321   4.288   9.015 -0.2925 -0.0842  0.5881
29657SOL    HW1  950   2.383   4.221   8.986 -1.8416 -1.2255 -0.2535
29657SOL    HW2  951   2.253   4.239   9.061 -0.2391  1.2208  2.1642
29658SOL     OW  952   1.552   6.177  13.171  0.1272  0.5085  0.5800
29658SOL    HW1  953   1.478   6.153  13.115  0.2451  0.6526  0.3569
29658SOL    HW2  954   1.578   6.264  13.139  1.2848 -0.1189 -0.2895
29659SOL     OW  955   3.248   3.254   9.952 -0.4140 -0.4615 -0.5247
29659SOL    HW1  956   3.257   3.159   9.943 -1.8377 -0.9261  1.9590
29659SOL    HW2  957   3.295   3.275  10.033 -0.9841  0.7785 -0.4953
29660SOL     OW  958   7.167  11.856   8.750  0.2123  0.5360 -0.1950
29660SOL    HW1  959   7.083  11.818   8.723  0.7717 -1.3051  0.4908
29660SOL    HW2  960   7.163  11.947   8.720 -1.3603  0.0576 -1.6209
29661SOL     OW  961  10.705   1.581  10.754 -0.3340 -0.2062 -0.0514
29661SOL    HW1  962  10.752   1.502  10.730 -0.8372 -0.4504 -0.2510
29661SOL    HW2  963  10.636   1.589  10.687  0.0353  0.6790 -0.3378
29662SOL     OW  964  13.229   7.463   3.395 -0.3389  0.0353  0.1186
29662SOL    HW1  965  13.270   7.536   3.348 -1.7301 -0.2358 -1.6140
29662SOL    HW2  966  13.293   7.392   3.390 -1.3777 -0.9131 -3.9310
29663SOL     OW  967  11.278   6.538  11.373 -0.2854 -0.1144  0.5941
29663SOL    HW1  968  11.330   6.616  11.387 -0.2310  0.0965 -0.6451
29663SOL    HW2  969  11.336   6.465  11.396  1.1202  0.0358 -2.0713
29664SOL     OW  970   9.344   0.711  12.344 -0.3057 -0.3260  0.3344
29664SOL    HW1  971   9.397   0.677  12.271 -2.4963 -0.9393 -1.0587
29664SOL    HW2  972   9.336   0.805  12.325 -0.0470 -0.3044  0.3275
29665SOL     OW  973   5.084   9.253   1.630 -0.5181  0.2892 -0.5024
29665SOL    HW1  974   5.041   9.332   1.663 -0.0759  0.0876  0.6116
29665SOL    HW2  975   5.093   9.268   1.536  0.8339  2.2005 -0.1267
29666SOL     OW  976   7.661   7.917   5.770 -0.0112 -0.2059  0.0817
29666SOL    HW1  977   7.606   7.839   5.781  0.1604 -0.1776  1.1847
29666SOL    HW2  978   7.662   7.958   5.856  2.2789 -0.5476  0.2707
29667SOL     OW  979   4.780  11.631   5.708  0.3728  0.2643 -0.0775
29667SOL    HW1  980   4.856  11.572   5.707 -0.1501 -0.6189  3.0728
29667SOL    HW2  981   4.714  11.585   5.656  0.8881 -0.6057  0.0074
29668SOL     OW  982   4.318   9.502   8.362  0.2081  0.2912  0.3179
29668SOL    HW1  983   4.224   9.509   8.377 -0.1278 -0.7308 -1.1160
29668SOL    HW2  984   4.348   9.433   8.421 -0.1463 -0.1052  0.0384
29669SOL     OW  985   2.534  13.318   4.371  0.5716 -0.2845 -0.3462
29669SOL    HW1  986   2.607  13.259   4.390  0.2283 -0.5803  0.0838
29669SOL    HW2  987   2.575  13.397   4.335  1.0269 -0.8226 -1.0166
29670SOL     OW  988   6.635   5.471   7.789 -0.3723 -0.0126 -0.3213
29670SOL    HW1  989   6.657   5.395   7.844  0.8040  0.2775 -0.3680
29670SOL    HW2  990   6.586   5.434   7.715 -1.1304 -0.5258  0.4166
29671SOL     OW  991   8.083   4.460  11.632  0.2904  0.3490 -0.2208
29671SOL    HW1  992   8.167   4.495  11.662  1.0796 -1.2973 -0.4270
29671SOL    HW2  993   8.037   4.435  11.713  0.5056  0.1233 -0.1684
29672SOL     OW  994   0.744  13.514  13.157 -0.3155  0.5576 -0.2110
29672SOL    HW1  995   0.744  13.598  13.202 -0.7458  0.2142  0.4508
29672SOL    HW2  996   0.835  13.484  13.161 -0.3511  0.5208  0.4650
29673SOL     OW  997   9.219  12.771   6.241 -0.0485  0.0441  0.0416
29673SOL    HW1  998   9.276  12.838   6.277  1.8711 -0.9600 -0.9739
29673SOL    HW2  999   9.273  12.692   6.237 -2.4101 -1.8318  1.8135
29674SOL     OW 1000   9.988   2.236   7.009 -0.2093  0.1303 -0.3305
29674SOL    HW1 1001   9.911   2.269   6.962 -1.1325 -0.9672  0.3656
29674SOL    HW2 1002   9.953   2.199   7.090  0.8753 -1.5566 -0.5788
29675SOL     OW 1003   2.523  10.732  12.592 -0.3095 -0.8577 -0.1890
29675SOL    HW1 1004   2.455  10.797  12.612  0.3479 -0.8901  2.6452
29675SOL    HW2 1005   2.595  10.755  12.650  2.0276 -1.0674 -2.8030
29676SOL     OW 1006  11.593   1.806   2.510 -0.3840 -0.2864 -0.2496
29676SOL    HW1 1007  11.514   1.781   2.462  0.6298 -1.7279 -1.2435
29676SOL    HW2 1008  11.659   1.822   2.442  0.1948  0.9320  0.5560
29677SOL     OW 1009   6.304   8.150  10.764  0.6163  0.0546  0.2146
29677SOL    HW1 1010   6.253   8.069  10.752  1.3883 -0.2067 -1.8567
29677SOL    HW2 1011   6.369   8.128  10.830 -0.2392 -0.4541  0.9210
29678SOL     OW 1012   6.549   6.997   4.602 -0.0268 -0.2001  0.0678
29678SOL    HW1 1013   6.640   7.027   4.601 -0.0164 -0.2258  0.2293
29678SOL    HW2 1014   6.498   7.075   4.580  0.0014 -0.0657  0.4742
29679SOL     OW 1015   3.916   4.721   7.156 -0.0344 -0.2402  0.2309
29679SOL    HW1 1016   3.911   4.783   7.083  0.3774  1.1788  1.3701
29679SOL    HW2 1017   3.975   4.652   7.125 -1.3112 -0.6375 -1.4444
29680SOL     OW 1018  12.851  12.624   2.934  0.1899  0.6192 -0.2293
29680SOL    HW1 1019  12.861  12.559   3.003  0.9661  1.0870  0.1005
29680SOL    HW2 1020  12.795  12.692   2.972 -1.8282 -0.5018 -1.0434
29681SOL     OW 1021   2.621   0.073   5.597 -0.5203 -0.0173 -0.0215
29681SOL    HW1 1022   2.629  -0.018   5.627 -0.7964  0.2690  0.9354
29681SOL    HW2 1023   2.613   0.125   5.677 -2.6237  0.6515 -0.5998
29682SOL     OW 1024   1.643   9.237  13.448 -0.3835  0.2693  0.3856
29682SOL    HW1 1025   1.590   9.227  13.369 -0.3283  0.4293  0.3276
29682SOL    HW2 1026   1.632   9.155  13.495 -0.9192  0.4109  0.5163
29683SOL     OW 1027   4.266   6.085   9.516  0.2336 -0.2227  0.1659
29683SOL    HW1 1028   4.172   6.077   9.534 -0.2589 -0.3427 -2.1757
29683SOL    HW2 1029   4.296   6.156   9.573 -1.4060  0.2391  0.4935
29684SOL     OW 1030   7.326   9.054   8.715  0.6712 -0.1905 -0.1542
29684SOL    HW1 1031   7.355   9.027   8.627 -0.9122  1.3508 -1.2100
29684SOL    HW2 1032   7.288   9.140   8.702 -1.4418 -0.7632  1.6875
29685SOL     OW 1033   1.189   7.407  11.344  0.0734  0.0076  0.1600
29685SOL    HW1 1034   1.098   7.385  11.361 -0.3909  1.9028  0.3149
29685SOL    HW2 1035   1.185   7.478  11.279  1.4874 -0.6789 -0.7301
29686SOL     OW 1036   1.558   1.525   4.305 -0.2034  0.1623 -0.3898
29686SOL    HW1 1037   1.530   1.433   4.300 -0.8654  0.0612  3.1068
29686SOL    HW2 1038   1.651   1.520   4.327 -0.0894  0.3666 -0.8134
29687SOL     OW 1039   2.878  13.864  12.210  0.7958  0.2481 -0.5352
29687SOL    HW1 1040   2.943  13.885  12.143 -0.7017 -1.7420 -2.7803
29687SOL    HW2 1041   2.930  13.826  12.281  2.2289 -0.6744 -1.9846
29688SOL     OW 1042   9.906  12.683   5.837  0.3745 -0.0920  0.1390
29688SOL    HW1 1043   9.994  12.664   5.805 -0.0434  1.6300 -2.2377
29688SOL    HW2 1044   9.893  12.620   5.908  3.4078 -0.5461  0.4293
29689SOL     OW 1045  13.746   6.156   9.766 -0.0697  0.2535  0.4094
29689SOL    HW1 1046  13.679   6.094   9.793  0.6469 -0.8681 -0.3225
29689SOL    HW2 1047  13.828   6.106   9.768  0.6605  1.4089  0.6334
29690SOL     OW 1048   1.676   9.256  13.744 -0.1057  0.0839  0.0604
29690SOL    HW1 1049   1.673   9.340  13.698  1.0849 -0.1671 -0.5012
29690SOL    HW2 1050   1.656   9.191  13.676 -1.1370 -0.1020  0.5154
29691SOL     OW 1051   3.259   5.506   6.875  0.1411  0.4064 -0.3569
29691SOL    HW1 1052   3.289   5.439   6.814 -0.4857  0.4462 -0.7265
29691SOL    HW2 1053   3.333   5.521   6.933  0.4008 -0.3640 -0.4765
29692SOL     OW 1054  10.767   2.269   5.963 -0.5605  0.1154  0.4864
29692SOL    HW1 1055  10.752   2.363   5.974 -0.6298  0.2726 -0.8124
29692SOL    HW2 1056  10.720   2.246   5.882 -2.3033 -1.4575  1.8375
29693SOL     OW 1057  13.661   1.058   6.124 -0.7747 -0.8981 -0.0587
29693SOL    HW1 1058  13.570   1.069   6.149 -0.5184 -1.3822  1.1399
29693SOL    HW2 1059  13.676   0.964   6.125 -0.7222 -0.9617 -2.0563
29694SOL     OW 1060   3.789   5.572   6.066 -0.0956 -0.0642 -0.1155
29694SOL    HW1 1061   3.744   5.511   6.124 -0.2015  0.1787  0.0574
29694SOL    HW2 1062   3.720   5.606   6.009  0.1329 -0.8929 -0.9122
29695SOL     OW 1063  11.735   5.282  12.326  0.2339 -0.3028 -0.4286
29695SOL    HW1 1064  11.812   5.333  12.300 -0.9327  1.3568 -0.8069
29695SOL    HW2 1065  11.661   5.342  12.312 -1.1836 -2.0046 -0.5464
29696SOL     OW 1066  13.861   2.656  13.403 -0.5751 -0.0801 -0.2372
29696SOL    HW1 1067  13.828   2.686  13.319  0.4883  0.4681 -0.4816
29696SOL    HW2 1068  13.940   2.607  13.382 -1.0738 -1.1632  0.3423
29697SOL     OW 1069   5.222   4.404   4.590  0.4164 -0.0784  0.5171
29697SOL    HW1 1070   5.206   4.319   4.549  0.3338  0.5882 -0.9073
29697SOL    HW2 1071   5.143   4.455   4.573 -0.0699 -0.0945  2.4808
29698SOL     OW 1072   2.040   1.785   4.261  0.0490 -0.0677 -0.1036
29698SOL    HW1 1073   1.968   1.798   4.199 -0.1040 -1.8371 -0.3676
29698SOL    HW2 1074   2.054   1.871   4.301 -1.5590  0.5312 -0.7437
29699SOL     OW 1075   3.336  12.584   5.732  0.0437 -0.0625 -0.0122
29699SOL    HW1 1076   3.285  12.631   5.666 -1.2924  0.1300  1.1020
29699SOL    HW2 1077   3.427  12.592   5.703 -0.6498 -2.6601 -3.5175
29700SOL     OW 1078   1.985   2.745  10.725 -0.3505  0.1669 -0.0716
29700SOL    HW1 1079   1.922   2.789  10.782  0.8734 -1.3025  2.5946
29700SOL    HW2 1080   1.966   2.652  10.738  1.5973 -0.2619 -0.1230
29701SOL     OW 1081  13.694   4.905   1.793  1.0869 -0.0686  0.2428
29701SOL    HW1 1082  13.722   4.911   1.701 -0.2355 -0.6555 -0.2302
29701SOL    HW2 1083  13.738   4.827   1.826  0.2062 -0.8781 -0.4318
29702SOL     OW 1084  10.090   4.668  12.470 -0.0782  0.0256  0.6463
29702SOL    HW1 1085  10.157   4.733  12.450 -3.5385  3.7026 -0.2400
29702SOL    HW2 1086  10.065   4.685  12.561 -0.6585 -0.4045  0.5736
29703SOL     OW 1087  10.972  13.275   3.945 -0.4626  0.0604 -0.1373
29703SOL    HW1 1088  10.974  13.232   3.859  0.5063  0.2462 -0.2278
29703SOL    HW2 1089  11.055  13.323   3.949  0.4210 -1.4764  1.6657
29704SOL     OW 1090   7.777   8.773   6.715  0.0982 -0.0046 -0.6757
29704SOL    HW1 1091   7.834   8.802   6.786  0.2141 -1.1767 -0.2580
29704SOL    HW2 1092   7.755   8.853   6.667 -1.0323  1.0326  1.4281
29705SOL     OW 1093   2.053   7.322   9.993  0.0453 -0.2363  0.1107
29705SOL    HW1 1094   1.985   7.268  10.035 -1.6742  1.4580 -0.3607
29705SOL    HW2 1095   2.104   7.259   9.942  0.3806 -1.9268  2.3457
29706SOL     OW 1096   4.735  10.857   9.795 -0.2209 -0.6824 -0.0967
29706SOL    HW1 1097   4.734  10.867   9.699 -1.2084 -0.5939 -0.0787
29706SOL    HW2 1098   4.740  10.763   9.809  1.5987 -0.6478 -0.2240
29707SOL     OW 1099   9.845   8.806  12.797 -0.4317  1.1884  0.5739
29707SOL    HW1 1100   9.770   8.758  12.762 -0.0512  0.9707  0.0547
29707SOL    HW2 1101   9.886   8.846  12.720  1.3256 -0.5750  0.5384
29708SOL     OW 1102   5.445   4.528   4.207 -1.1355 -0.2060 -0.1052
29708SOL    HW1 1103   5.419   4.488   4.290 -1.7694  0.0414 -0.1731
29708SOL    HW2 1104   5.362   4.549   4.164 -0.8317 -1.2352 -1.2572
29709SOL     OW 1105   8.913  11.177   0.106 -0.7560 -0.0501 -0.3190
29709SOL    HW1 1106   8.918  11.180   0.202 -0.4776 -0.3777 -0.3231
29709SOL    HW2 1107   8.905  11.269   0.080 -0.6778  0.0492  0.0100
29710SOL     OW 1108  12.034  11.010   0.741  0.6453  0.0623  0.3667
29710SOL    HW1 1109  12.089  11.088   0.755 -0.5333  0.9689  0.0594
29710SOL    HW2 1110  12.061  10.977   0.655  0.8110  0.4074  0.2836
29711SOL     OW 1111  10.737   0.931   9.778  0.0549 -0.0265  0.0922
29711SOL    HW1 1112  10.810   0.913   9.837  0.2851  0.0780 -0.1543
29711SOL    HW2 1113  10.674   0.979   9.831  0.5854  0.7217  0.0648
29712SOL     OW 1114  12.022   3.699  12.842  0.4423  0.0917 -0.3766
29712SOL    HW1 1115  11.992   3.764  12.905  1.5409  0.9283 -0.6736
29712SOL    HW2 1116  11.973   3.717  12.763 -2.2019 -2.0438  0.6367
29713SOL     OW 1117   8.161   0.612   3.115 -0.1596  0.0359 -0.5144
29713SOL    HW1 1118   8.173   0.655   3.029  0.0812 -0.0157 -0.5080
29713SOL    HW2 1119   8.234   0.551   3.121 -0.0895  0.1485 -0.2054
29714SOL     OW 1120   3.262   5.957   0.580 -0.1552  0.3608 -0.5052
29714SOL    HW1 1121   3.316   5.964   0.502 -0.4685  1.4102 -0.6387
29714SOL    HW2 1122   3.275   6.040   0.626 -1.4909  0.5547 -0.4451
29715SOL     OW 1123   7.418   5.521  12.538 -0.2397 -0.2748 -0.0122
29715SOL    HW1 1124   7.454   5.602  12.501  1.8710 -0.4379  1.4485
29715SOL    HW2 1125   7.480   5.453  12.511 -0.8561 -1.0415  0.4552
29716SOL     OW 1126  13.009  12.501   0.221  0.2225 -0.4416  0.1748
29716SOL    HW1 1127  12.932  12.458   0.184  2.0478 -1.6034 -2.6580
29716SOL    HW2 1128  13.077  12.435   0.217  1.8723  1.1471  0.6722
29717SOL     OW 1129  13.004  10.021   9.215  0.3158 -0.3251  0.3087
29717SOL    HW1 1130  13.049   9.956   9.268  1.5172 -1.1087 -1.5630
29717SOL    HW2 1131  12.983   9.975   9.133 -1.3334  0.8602  0.0150
29718SOL     OW 1132   7.319  11.462   3.895  0.3227  0.4256  0.4542
29718SOL    HW1 1133   7.253  11.532   3.893  1.3392  1.3934 -0.9138
29718SOL    HW2 1134   7.367  11.471   3.813  1.1662 -1.2452  0.7121
29719SOL     OW 1135  10.619   2.013   2.579 -0.1347  0.1893  0.2625
29719SOL    HW1 1136  10.559   2.042   2.510 -0.5663 -0.8897  0.1676
29719SOL    HW2 1137  10.614   1.917   2.576  1.6212  0.0631  0.2248
29720SOL     OW 1138  13.463   1.960   7.698  0.2431  0.4124  0.1690
29720SOL    HW1 1139  13.410   1.938   7.774  0.0784 -0.4755 -0.1841
29720SOL    HW2 1140  13.408   2.019   7.646 -0.5704 -0.7417 -0.3503
29721SOL     OW 1141  13.013   5.863  12.678 -0.2650  0.1751  0.1102
29721SOL    HW1 1142  13.014   5.943  12.625  1.3565  0.9170  1.1692
29721SOL    HW2 1143  12.921   5.848  12.697 -0.5542  2.3929  0.7442
29722SOL     OW 1144  13.689   2.062   5.678 -0.1873  0.1473 -0.2540
29722SOL    HW1 1145  13.607   2.058   5.728 -0.1403  1.3308 -0.0594
29722SOL    HW2 1146  13.671   2.013   5.598 -0.1424 -2.1607  1.0467
29723SOL     OW 1147   0.968   0.744  12.802  0.4903 -0.0365 -0.1220
29723SOL    HW1 1148   0.986   0.681  12.732 -0.3790 -0.7577  0.2820
29723SOL    HW2 1149   1.020   0.713  12.876  0.4408  0.0101 -0.0673
29724SOL     OW 1150   3.085  11.794   1.511  0.5809 -0.4418  0.1870
29724SOL    HW1 1151   3.089  11.748   1.595  2.4040  0.1573  0.4652
29724SOL    HW2 1152   2.997  11.831   1.509 -0.9983 -3.8236 -0.0307
29725SOL     OW 1153   6.405   5.596   7.489 -0.1089  0.9112  0.5299
29725SOL    HW1 1154   6.492   5.635   7.499 -0.2658  1.9806 -1.7678
29725SOL    HW2 1155   6.422   5.502   7.482  1.0462  1.2061 -1.3054
29726SOL     OW 1156   8.152   9.196   9.885  0.4216 -0.0941  0.2295
29726SOL    HW1 1157   8.108   9.144   9.952  2.1937  1.4552  2.7570
29726SOL    HW2 1158   8.172   9.279   9.927  2.6972  0.5409 -1.8305
29727SOL     OW 1159  10.407  12.148   4.258 -0.0124 -0.0241 -0.3359
29727SOL    HW1 1160  10.426  12.193   4.175 -0.2230  0.9994  0.1519
29727SOL    HW2 1161  10.416  12.216   4.324 -0.3030 -0.7263  0.4364
29728SOL     OW 1162   1.916  13.850   4.595  0.0274 -0.2435  0.7780
29728SOL    HW1 1163   2.000  13.879   4.631  0.5747 -0.6171 -0.1635
29728SOL    HW2 1164   1.905  13.900   4.514 -1.4070  0.9183  1.6324
29729SOL     OW 1165   1.149   5.629   8.336  0.1135  0.4168  0.4760
29729SOL    HW1 1166   1.212   5.560   8.316  0.9539  1.0371  0.8770
29729SOL    HW2 1167   1.186   5.707   8.295  0.5431  1.1638  2.1821
29730SOL     OW 1168  11.218   6.420   6.427  0.2804 -0.2776 -0.3726
29730SOL    HW1 1169  11.178   6.479   6.364 -0.0114 -2.4309 -2.3340
29730SOL    HW2 1170  11.165   6.431   6.506 -0.7532  0.8899 -1.1864
29731SOL     OW 1171  11.443   4.678   4.551 -0.0870  0.2568 -0.0176
29731SOL    HW1 1172  11.415   4.596   4.591  0.6156  0.8268  1.7493
29731SOL    HW2 1173  11.458   4.657   4.459 -1.5940 -1.1670  0.0233
29732SOL     OW 1174   7.624   3.613  10.691  0.3562 -0.1533  0.0312
29732SOL    HW1 1175   7.633   3.539  10.630 -1.4015 -0.5138  0.1531
29732SOL    HW2 1176   7.656   3.688  10.642  0.3224 -0.6744 -0.8148
29733SOL     OW 1177   2.774  10.304   0.473 -0.0008 -0.5363 -0.2914
29733SOL    HW1 1178   2.693  10.254   0.488 -0.0907 -0.4507 -0.4885
29733SOL    HW2 1179   2.745  10.388   0.439  0.0376  0.4198  1.8532
29734SOL     OW 1180   6.100   2.476  11.713  0.5038 -0.2008 -0.5554
29734SOL    HW1 1181   6.101   2.492  11.618  0.3522  0.3307 -0.4738
29734SOL    HW2 1182   6.112   2.382  11.722 -0.1272 -0.3414 -1.1244
29735SOL     OW 1183   4.460   4.902  10.556  0.3920  0.1568 -0.5779
29735SOL    HW1 1184   4.457   4.981  10.501  0.6194 -1.3389 -2.8760
29735SOL    HW2 1185   4.546   4.865  10.540 -0.5320 -1.7788 -1.4387
29736SOL     OW 1186  10.822   6.330   3.152 -0.2791  0.0636 -1.1182
29736SOL    HW1 1187  10.734   6.326   3.115 -2.0942 -1.7979  2.8275
29736SOL    HW2 1188  10.812   6.380   3.233  1.8905 -1.5588  0.2708
29737SOL     OW 1189   1.395  11.057   0.160  0.2546 -0.2343  0.4624
29737SOL    HW1 1190   1.429  11.080   0.246  1.4292 -0.8884  0.1870
29737SOL    HW2 1191   1.318  11.002   0.178  0.5569 -0.4552  1.0941
29738SOL     OW 1192   3.546   3.983   3.916  0.2592 -0.5668  0.2465
29738SOL    HW1 1193   3.481   4.032   3.866  1.5602  1.8048  0.7515
29738SOL    HW2 1194   3.628   3.994   3.867  1.3954  1.1457  2.3326
29739SOL     OW 1195   0.477  13.600  13.094 -0.3039 -0.3094  0.1549
29739SOL    HW1 1196   0.440  13.663  13.155 -0.8113  0.3508 -0.8145
29739SOL    HW2 1197   0.549  13.559  13.143 -0.0897  0.8673  0.8639
29740SOL     OW 1198  10.085   3.884   3.534 -0.5359  0.1314  0.0035
29740SOL    HW1 1199  10.012   3.917   3.481  0.3453  1.9954 -0.1280
29740SOL    HW2 1200  10.082   3.937   3.614  1.5158  1.2841 -0.6235
29741SOL     OW 1201   2.881   7.673   6.268 -0.4742  0.1986 -0.6305
29741SOL    HW1 1202   2.901   7.610   6.337 -3.8462 -0.0342  0.3257
29741SOL    HW2 1203   2.931   7.752   6.291  0.1511 -0.5951  0.8218
29742SOL     OW 1204   3.476   0.190   2.693  0.5426 -0.0077  0.3876
29742SOL    HW1 1205   3.404   0.203   2.755  0.0045 -0.3717 -0.1543
29742SOL    HW2 1206   3.460   0.255   2.624 -0.6178 -1.6272 -0.9366
29743SOL     OW 1207   3.984   2.073   4.458  0.1773 -0.6177  0.2933
29743SOL    HW1 1208   4.013   2.046   4.371 -0.1961  2.8166 -1.0520
29743SOL    HW2 1209   3.889   2.068   4.453  0.0684  1.2204 -0.1876
29744SOL     OW 1210  12.448  13.817   2.017 -0.5116 -0.2661 -0.5506
29744SOL    HW1 1211  12.408  13.904   2.011 -0.2358  0.0335  1.1889
29744SOL    HW2 1212  12.379  13.757   1.991 -1.5056  0.3615  0.5263
29745SOL     OW 1213  10.163  10.641  12.086  0.2671 -0.2053 -0.6250
29745SOL    HW1 1214  10.138  10.708  12.150  0.0632 -2.3366  1.6874
29745SOL    HW2 1215  10.244  10.674  12.047 -0.1306  1.6268  0.0022
29746SOL     OW 1216   6.860  12.801   4.642  0.0435  0.0632 -0.4813
29746SOL    HW1 1217   6.881  12.740   4.571  2.1708  1.3621 -1.0559
29746SOL    HW2 1218   6.801  12.751   4.699  0.6099 -2.0430 -1.6136
29747SOL     OW 1219   1.066   8.927   5.763  0.2654  0.4658 -0.1816
29747SOL    HW1 1220   1.074   8.925   5.668 -0.5596 -0.4113 -0.2506
29747SOL    HW2 1221   1.007   8.855   5.784 -0.5521  1.4007  0.8933
29748SOL     OW 1222   1.974   5.689   3.987  0.0825  0.1166 -0.0848
29748SOL    HW1 1223   2.000   5.604   3.950 -0.8884  0.4537 -1.6592
29748SOL    HW2 1224   1.927   5.733   3.916  0.2628  1.8513  0.8046
29749SOL     OW 1225  11.309   4.663  13.891 -0.0106 -0.1615 -0.0065
29749SOL    HW1 1226  11.271   4.575  13.887  1.2630 -1.1252  4.1368
29749SOL    HW2 1227  11.404   4.649  13.886  0.1881  1.1399 -0.3924
29750SOL     OW 1228   7.814   1.448   4.545 -0.1241  0.2966  0.2343
29750SOL    HW1 1229   7.786   1.364   4.582  1.5458 -1.6068 -2.4539
29750SOL    HW2 1230   7.908   1.453   4.565 -0.1402  1.3927  0.0884
29751SOL     OW 1231  10.184   8.247  11.594 -0.9808 -0.6620 -0.2334
29751SOL    HW1 1232  10.207   8.229  11.685 -3.0244 -0.8096  0.3045
29751SOL    HW2 1233  10.190   8.343  11.586  0.2122 -0.7232 -0.2710
29752SOL     OW 1234   2.637   2.811  11.415 -0.6158  0.5340  0.3554
29752SOL    HW1 1235   2.630   2.752  11.340  1.9594 -0.4507  0.7605
29752SOL    HW2 1236   2.567   2.784  11.474  0.3239 -2.0036  0.4076
29753SOL     OW 1237  12.389   4.955   5.903  0.4022 -0.0585  0.1726
29753SOL    HW1 1238  12.332   5.032   5.899 -0.4063 -0.6453 -0.0896
29753SOL    HW2 1239  12.451   4.966   5.831  0.8573  0.7672  0.6813
29754SOL     OW 1240   0.590   3.277   2.601  0.3191 -1.4520  0.3198
29754SOL    HW1 1241   0.566   3.271   2.693  1.4674 -2.1777  0.5836
29754SOL    HW2 1242   0.542   3.353   2.569  0.6092 -0.6468  1.7367
29755SOL     OW 1243   2.186   1.190   2.285  0.0810 -0.3243 -0.0736
29755SOL    HW1 1244   2.183   1.100   2.254 -0.2253 -0.0478 -0.9006
29755SOL    HW2 1245   2.207   1.241   2.206  1.1668  0.2375  0.5646
29756SOL     OW 1246   1.795   3.450   7.535 -0.2791  0.8025 -0.3017
29756SOL    HW1 1247   1.857   3.480   7.601  0.5581  0.3426 -0.8562
29756SOL    HW2 1248   1.775   3.360   7.560  0.0739  0.6120 -0.6841
29757SOL     OW 1249  10.160   1.449   5.143 -0.3567  0.0326 -0.4755
29757SOL    HW1 1250  10.129   1.361   5.163 -0.3838 -0.0486 -0.8547
29757SOL    HW2 1251  10.174   1.490   5.228  2.6238 -1.3762 -0.1520
29758SOL     OW 1252   1.646   3.493   1.756 -0.1989  0.3310 -0.2432
29758SOL    HW1 1253   1.671   3.575   1.798  1.2388 -1.2840  2.3245
29758SOL    HW2 1254   1.566   3.466   1.802  0.3099 -0.5358  0.1564
29759SOL     OW 1255  12.627   6.503  12.902 -0.2233 -0.2900 -0.0917
29759SOL    HW1 1256  12.595   6.563  12.834  0.3094  0.7776  0.5652
29759SOL    HW2 1257  12.585   6.534  12.982  0.5422 -0.4005  0.3616
29760SOL     OW 1258   8.549   6.355   6.492 -0.4180  0.4740  0.3247
29760SOL    HW1 1259   8.576   6.377   6.581  0.9394 -1.4065  0.4278
29760SOL    HW2 1260   8.628   6.321   6.450 -0.7354  2.3000 -1.9996
29761SOL     OW 1261   6.458   0.290   0.885 -0.3046 -0.1035  0.4071
29761SOL    HW1 1262   6.530   0.232   0.861 -0.7764 -0.9591  0.9680
29761SOL    HW2 1263   6.454   0.355   0.816  1.6622  0.5869  0.8938
29762SOL     OW 1264  10.438   0.076  13.679 -0.7477 -0.1679  0.7768
29762SOL    HW1 1265  10.485   0.105  13.757 -0.4240 -1.4415  1.0830
29762SOL    HW2 1266  10.347   0.069  13.708 -1.1710  2.1828  0.2149
29763SOL     OW 1267  13.311  13.777   3.535 -0.1042 -0.2706 -0.3771
29763SOL    HW1 1268  13.357  13.806   3.456  0.1567 -0.6381 -0.3621
29763SOL    HW2 1269  13.345  13.689   3.552 -1.3162 -0.8282 -0.7579
29764SOL     OW 1270   1.903   6.178   9.965 -0.9507  0.1428 -0.2860
29764SOL    HW1 1271   1.904   6.094  10.010 -0.3113 -0.1075 -0.7558
29764SOL    HW2 1272   1.842   6.165   9.892 -0.9549  0.1284 -0.2799
29765SOL     OW 1273  10.824  11.345   7.897 -0.3478  0.0177 -0.0003
29765SOL    HW1 1274  10.811  11.252   7.878 -3.0410  0.3400 -0.2060
29765SOL    HW2 1275  10.915  11.352   7.926 -0.3001 -2.8039  0.7912
29766SOL     OW 1276   6.458   6.875  11.718 -0.4057 -0.7261 -0.4110
29766SOL    HW1 1277   6.507   6.957  11.703 -2.6720  0.9302  0.6059
29766SOL    HW2 1278   6.452   6.835  11.632  1.1601 -0.0678 -0.8589
29767SOL     OW 1279  10.192   3.747   2.792 -0.2244  0.1659  0.1742
29767SOL    HW1 1280  10.285   3.760   2.813 -0.2608  0.5941  0.0845
29767SOL    HW2 1281  10.184   3.776   2.701 -0.2852 -0.6512 -0.0898
29768SOL     OW 1282   8.415   0.011   3.052  0.3959 -0.1207 -0.3395
29768SOL    HW1 1283   8.475   0.082   3.029  0.3359  0.5530  1.4433
29768SOL    HW2 1284   8.382   0.035   3.138 -0.4582 -1.7917 -0.1743
29769SOL     OW 1285   8.956   7.909   4.715 -1.0697  0.2246 -0.3771
29769SOL    HW1 1286   8.983   7.960   4.792 -2.2163 -1.1023  0.9577
29769SOL    HW2 1287   8.872   7.871   4.739 -1.4358 -0.2919 -2.2900
29770SOL     OW 1288   6.531   6.561  12.914  0.3362  0.6013  0.4463
29770SOL    HW1 1289   6.541   6.470  12.887 -0.7376 -0.0583  2.1485
29770SOL    HW2 1290   6.597   6.574  12.982 -0.1493  0.8087  0.8813
29771SOL     OW 1291  12.794   8.142   2.942 -0.0664 -0.1361 -0.1832
29771SOL    HW1 1292  12.802   8.077   3.011 -2.9252 -0.2869  0.1495
29771SOL    HW2 1293  12.872   8.196   2.950  0.5325 -1.2087  2.0085
29772SOL     OW 1294  10.559  13.526   7.970  0.1731  0.7082  0.3495
29772SOL    HW1 1295  10.559  13.542   8.064  2.0829 -0.9092  0.7137
29772SOL    HW2 1296  10.477  13.478   7.954  1.4839 -2.4477  2.0043
29773SOL     OW 1297  13.536  10.943  12.609  0.6664 -0.2757 -0.6214
29773SOL    HW1 1298  13.542  10.911  12.699 -2.4337 -0.9045 -0.5113
29773SOL    HW2 1299  13.542  10.865  12.555 -0.7170 -0.3327 -0.7245
29774SOL     OW 1300   8.489   6.607  12.580 -1.1508  0.1920  0.3276
29774SOL    HW1 1301   8.446   6.692  12.580 -0.9624  0.3012 -0.8596
29774SOL    HW2 1302   8.498   6.585  12.672 -0.6202  1.7539  0.6744
29775SOL     OW 1303   4.315   2.344   7.025 -0.0735  0.3012  0.0987
29775SOL    HW1 1304   4.322   2.264   7.078 -0.8277  0.5589  0.6120
29775SOL    HW2 1305   4.376   2.406   7.065  0.1120  0.1622  0.0321
29776SOL     OW 1306   2.088   4.085   9.753  0.5681  0.0315  0.3516
29776SOL    HW1 1307   2.074   4.158   9.692  0.1808 -0.1054  0.2778
29776SOL    HW2 1308   2.166   4.041   9.719  0.8984  0.4985  0.4836
29777SOL     OW 1309  14.041   7.963   8.567 -0.1246 -0.6183  0.5034
29777SOL    HW1 1310  14.039   7.968   8.662 -0.4260  1.0757  0.4332
29777SOL    HW2 1311  13.954   7.933   8.542 -0.9269  1.4446  0.6760
29778SOL     OW 1312  10.546   2.148   3.071  0.4266 -0.5790  0.0343
29778SOL    HW1 1313  10.536   2.216   3.138 -2.9813 -1.7609  0.9370
29778SOL    HW2 1314  10.544   2.066   3.119 -0.1222 -1.4151 -1.3504
29779SOL     OW 1315   4.128   2.784   5.434 -0.1862 -0.3134  0.4932
29779SOL    HW1 1316   4.086   2.702   5.462  0.3380 -1.2985 -1.4006
29779SOL    HW2 1317   4.072   2.853   5.469 -1.2597 -1.5005  1.2123
29780SOL     OW 1318   1.158  14.041  13.788 -0.1411 -0.2150  0.1859
29780SOL    HW1 1319   1.149  14.136  13.785  1.2854 -0.0646 -2.0067
29780SOL    HW2 1320   1.245  14.026  13.826 -0.4574 -0.6671  0.7476
29781SOL     OW 1321   2.318   4.463  10.992  0.1137 -0.0753 -0.3364
29781SOL    HW1 1322   2.383   4.438  11.059 -2.2452 -0.2271  2.0635
29781SOL    HW2 1323   2.255   4.391  10.991  0.0261 -0.0501 -2.7978
29782SOL     OW 1324   5.547   4.521  10.309 -0.7721 -0.5709 -0.2806
29782SOL    HW1 1325   5.464   4.550  10.349 -1.2194 -0.8866 -0.9636
29782SOL    HW2 1326   5.549   4.565  10.224 -0.6317 -1.2035 -0.6092
29783SOL     OW 1327  12.204   7.882   4.795 -0.6456  0.2402  0.6207
29783SOL    HW1 1328  12.284   7.885   4.847 -1.3553  2.9894  1.7735
29783SOL    HW2 1329  12.158   7.804   4.826  1.9115 -1.9942 -0.7714
29784SOL     OW 1330   5.797   5.640   2.144  0.1263 -0.6036 -0.2603
29784SOL    HW1 1331   5.883   5.639   2.186  0.4457 -2.5322 -0.8707
29784SOL    HW2 1332   5.745   5.578   2.196 -0.8012  0.2878 -0.1071
29785SOL     OW 1333   7.405  11.518  10.545 -0.6044 -0.3575  0.6315
29785SOL    HW1 1334   7.459  11.447  10.580  0.4133 -0.4716 -1.0577
29785SOL    HW2 1335   7.434  11.596  10.594 -1.4200 -0.9875  2.1830
29786SOL     OW 1336   4.584  13.224  10.221  0.2422  0.8694 -0.1638
29786SOL    HW1 1337   4.513  13.288  10.210 -1.2553 -0.0386  3.0345
29786SOL    HW2 1338   4.541  13.147  10.258  2.2950 -1.4091 -2.2291
29787SOL     OW 1339   2.160   4.111   0.838 -0.3531 -0.3864 -0.5472
29787SOL    HW1 1340   2.205   4.189   0.805 -1.0171 -0.2947 -1.2709
29787SOL    HW2 1341   2.173   4.045   0.769  0.0836 -0.8778 -0.0059
29788SOL     OW 1342   6.444   7.746   9.555 -0.3620  0.3004 -0.0233
29788SOL    HW1 1343   6.355   7.717   9.573 -0.0344 -0.3687  0.5295
29788SOL    HW2 1344   6.441   7.841   9.570 -0.7272  0.1334  0.9928
29789SOL     OW 1345   6.284  11.722   9.777  0.4747  0.2856  0.0284
29789SOL    HW1 1346   6.203  11.678   9.802  0.8145  1.1720  3.0802
29789SOL    HW2 1347   6.255  11.795   9.722 -0.4988 -0.9099 -1.1289
29790SOL     OW 1348  12.648  14.026  11.982  0.3604 -0.6536  0.4203
29790SOL    HW1 1349  12.702  13.995  12.054  0.3673 -0.1418  0.6406
29790SOL    HW2 1350  12.710  14.044  11.911  0.3407 -1.2754  0.2379
29791SOL     OW 1351   7.886   2.772   5.128  0.0716 -0.0347  0.2292
29791SOL    HW1 1352   7.948   2.842   5.150 -1.2863  0.8792  1.2522
29791SOL    HW2 1353   7.826   2.768   5.202 -1.5264 -0.4179 -1.0300
29792SOL     OW 1354  12.588  11.923  12.405 -0.1488 -0.4281 -0.3067
29792SOL    HW1 1355  12.553  11.997  12.455  3.1268 -0.1862  1.9158
29792SOL    HW2 1356  12.644  11.964  12.339  2.5340 -0.7410  1.6041
29793SOL     OW 1357   4.333   8.919   5.699  0.2105 -0.1773  0.5483
29793SOL    HW1 1358   4.391   8.850   5.666 -1.2088 -1.4433  0.5485
29793SOL    HW2 1359   4.274   8.937   5.625  1.3917  2.0826  0.0654
29794SOL     OW 1360  12.371   3.368  11.364 -0.2967  0.0328 -0.7909
29794SOL    HW1 1361  12.298   3.307  11.370  0.3714 -0.7183 -0.2033
29794SOL    HW2 1362  12.336   3.442  11.314 -1.4651 -0.2971 -0.4860
29795SOL     OW 1363   2.698   1.076   6.320  0.2389 -0.2496 -0.0844
29795SOL    HW1 1364   2.705   1.132   6.397 -1.4835 -0.1617  0.0416
29795SOL    HW2 1365   2.624   1.111   6.271 -1.5249 -2.9496  0.4735
29796SOL     OW 1366  13.992   7.192   0.816 -0.4028  0.1597  0.1820
29796SOL    HW1 1367  13.959   7.145   0.892  2.8810 -0.5964  1.3143
29796SOL    HW2 1368  14.079   7.155   0.801  0.4968  2.7522 -1.7451
29797SOL     OW 1369   0.388  10.363   3.782  0.3197  0.0109  0.6149
29797SOL    HW1 1370   0.455  10.354   3.849  1.0539 -0.1199 -0.1259
29797SOL    HW2 1371   0.419  10.310   3.709 -0.4497  0.1764  0.1511
29798SOL     OW 1372   8.474   1.545  13.968  0.1892  0.2274  0.2443
29798SOL    HW1 1373   8.409   1.615  13.959  1.1552  1.0841 -0.2170
29798SOL    HW2 1374   8.544   1.585  14.019  0.4781 -0.6095  0.5092
29799SOL     OW 1375  12.097   2.805   7.040 -0.1762 -0.2618 -0.2116
29799SOL    HW1 1376  12.049   2.783   6.960  1.5334 -3.2597 -0.6070
29799SOL    HW2 1377  12.189   2.801   7.014  0.4097  1.5981  1.3245
29800SOL     OW 1378   1.028   2.552   1.709 -0.0408  0.0469  0.0012
29800SOL    HW1 1379   0.974   2.491   1.659  1.0794 -0.2238 -0.9197
29800SOL    HW2 1380   0.987   2.555   1.795 -0.6508 -1.3006 -0.2132
29801SOL     OW 1381   0.288   2.677   1.579 -0.0085 -0.1808 -0.1620
29801SOL    HW1 1382   0.272   2.609   1.513 -0.4678 -2.2171  1.9510
29801SOL    HW2 1383   0.382   2.693   1.574  0.1443 -1.1194 -0.5476
29802SOL     OW 1384   2.527   0.180   6.005 -0.0867 -0.0468  0.4672
29802SOL    HW1 1385   2.526   0.233   6.085  1.0006 -1.5342  1.5122
29802SOL    HW2 1386   2.613   0.196   5.967 -0.2645 -0.0482  0.0536
29803SOL     OW 1387  13.070   9.267  11.101  0.4980 -0.3549 -0.0802
29803SOL    HW1 1388  13.078   9.362  11.107  2.2858 -0.5209  0.8306
29803SOL    HW2 1389  13.095   9.236  11.188 -0.3821 -1.6705 -0.2631
29804SOL     OW 1390   2.166   7.844  10.423 -0.0687 -0.3125 -0.4626
29804SOL    HW1 1391   2.083   7.818  10.464  0.0669 -1.0717 -0.6549
29804SOL    HW2 1392   2.165   7.803  10.337 -0.3511  1.2828 -1.2618
29805SOL     OW 1393  10.245  11.617   7.188  0.2378  0.1919  0.4307
29805SOL    HW1 1394  10.269  11.709   7.195 -1.1275  0.5718  0.3672
29805SOL    HW2 1395  10.151  11.618   7.167  0.5838 -1.1656 -1.4490
29806SOL     OW 1396   9.265   3.559   3.884  0.2365 -0.2417  0.1295
29806SOL    HW1 1397   9.199   3.627   3.899 -1.6286 -2.4331  3.0652
29806SOL    HW2 1398   9.218   3.492   3.834  0.3879 -1.4946  1.5933
29807SOL     OW 1399  10.987   9.848  13.267 -0.2038 -0.1084 -0.9031
29807SOL    HW1 1400  10.998   9.905  13.343  0.1195 -2.6036  1.0635
29807SOL    HW2 1401  10.897   9.817  13.273 -0.5599  0.5778 -2.2735
29808SOL     OW 1402   4.476   0.749  11.003  0.0357  0.0750 -0.2315
29808SOL    HW1 1403   4.467   0.760  11.098 -0.6501  0.2845 -0.3181
29808SOL    HW2 1404   4.546   0.809  10.978 -0.6504  0.9625 -0.0450
29809SOL     OW 1405  13.166  11.890   1.045 -0.2270  0.0889  0.2857
29809SOL    HW1 1406  13.155  11.902   0.951  0.0484 -0.2847  0.2027
29809SOL    HW2 1407  13.084  11.849   1.073  0.7996 -2.5980 -0.3169
29810SOL     OW 1408   1.821  11.437   2.560 -0.0489  0.0288 -0.1757
29810SOL    HW1 1409   1.738  11.401   2.530 -0.2712  0.0612  0.3955
29810SOL    HW2 1410   1.839  11.509   2.499  0.6380 -1.3048 -1.6308
29811SOL     OW 1411   5.126  11.203   3.042 -0.3363  0.1205  0.6650
29811SOL    HW1 1412   5.169  11.261   3.104 -1.0251  0.1467  1.1336
29811SOL    HW2 1413   5.119  11.254   2.962 -0.1464  0.3673  0.8055
29812SOL     OW 1414   1.893  12.030   4.728 -0.3326 -0.2380 -0.2195
29812SOL    HW1 1415   1.919  12.067   4.812  0.8934 -3.2188  0.8504
29812SOL    HW2 1416   1.799  12.016   4.736 -0.4572  0.6943  0.1016
29813SOL     OW 1417   9.737  12.774   1.273  0.3352  0.2033 -0.7981
29813SOL    HW1 1418   9.714  12.682   1.286  1.5441  0.1120  1.0907
29813SOL    HW2 1419   9.792  12.775   1.195  1.0309 -0.8156 -0.3379
29814SOL     OW 1420   5.773   0.678  10.838 -0.3250 -0.4824  0.6522
29814SOL    HW1 1421   5.744   0.604  10.892  1.5729 -0.6610  1.4835
29814SOL    HW2 1422   5.739   0.755  10.882 -1.7240 -0.7709  0.1575
29815SOL     OW 1423  11.417   3.765   3.550  0.3712 -0.1673 -0.0581
29815SOL    HW1 1424  11.419   3.747   3.456  1.3900 -0.9144  0.0817
29815SOL    HW2 1425  11.332   3.732   3.579  0.5059 -0.9535 -0.5309
29816SOL     OW 1426  13.578   7.169  10.241 -0.2629  0.3732  0.5577
29816SOL    HW1 1427  13.609   7.202  10.157  0.5131  1.6754  1.3179
29816SOL    HW2 1428  13.494   7.127  10.221 -0.1505  0.7600 -0.8357
29817SOL     OW 1429   7.728   0.162  11.224 -0.1571  0.2676  0.0335
29817SOL    HW1 1430   7.728   0.197  11.313  1.4220  1.0753 -0.2555
29817SOL    HW2 1431   7.639   0.128  11.212 -0.2742 -0.2795  2.0707
29818SOL     OW 1432  10.021  10.801   5.078 -0.4577 -0.2508 -0.4500
29818SOL    HW1 1433   9.994  10.795   5.169  0.0105  1.2956 -0.1853
29818SOL    HW2 1434  10.104  10.848   5.080 -1.3237  1.4576 -1.7832
29819SOL     OW 1435   1.502  13.352   2.265  0.1385  0.1593 -0.2967
29819SOL    HW1 1436   1.430  13.414   2.270  1.3631  1.7358 -1.1072
29819SOL    HW2 1437   1.465  13.275   2.222 -1.2583  0.5655  0.1320
29820SOL     OW 1438   9.914   8.594  11.383  0.0454 -0.1067  0.3978
29820SOL    HW1 1439   9.943   8.664  11.324 -1.1098 -2.5380 -3.4114
29820SOL    HW2 1440   9.821   8.613  11.398 -0.6041 -1.3959 -1.7100
29821SOL     OW 1441  10.270   0.040   6.772  0.3869 -0.7233  0.0984
29821SOL    HW1 1442  10.335   0.042   6.702 -0.7838 -0.3015 -1.0174
29821SOL    HW2 1443  10.196   0.089   6.737 -1.4549 -3.1076  0.3853
29822SOL     OW 1444   1.668  12.368   3.854 -0.4892  0.2700  0.0779
29822SOL    HW1 1445   1.595  12.428   3.842 -1.3201 -0.7906 -0.3547
29822SOL    HW2 1446   1.672  12.352   3.948 -0.9332  0.1997  0.0872
29823SOL     OW 1447   9.826   9.171  13.153 -0.3688  0.6647 -0.1759
29823SOL    HW1 1448   9.880   9.110  13.101  0.4364  1.1053  0.1356
29823SOL    HW2 1449   9.812   9.125  13.235 -3.4506 -0.9814 -1.4600
29824SOL     OW 1450  12.394   3.177   1.209  0.7271 -0.1277 -0.1809
29824SOL    HW1 1451  12.319   3.203   1.156  0.4765 -1.0629 -0.3091
29824SOL    HW2 1452  12.355   3.141   1.289  1.0934  1.0199  0.5339
29825SOL     OW 1453   6.860  10.953   4.148 -0.0766  0.3259  0.5073
29825SOL    HW1 1454   6.926  10.963   4.079 -1.0714  0.6549 -0.4281
29825SOL    HW2 1455   6.845  10.858   4.153  0.2554  0.2735  0.5213
29826SOL     OW 1456  13.339  11.432   4.733  0.4893  0.4294  0.0392
29826SOL    HW1 1457  13.401  11.362   4.714  0.5231 -0.1267  1.9634
29826SOL    HW2 1458  13.267  11.418   4.672  0.5689 -1.2107  0.2678
29827SOL     OW 1459   2.289   4.551   2.916 -0.4612 -0.2515  0.7809
29827SOL    HW1 1460   2.286   4.635   2.962 -0.1128  0.3895 -0.3367
29827SOL    HW2 1461   2.369   4.555   2.863 -0.9794 -0.8645 -0.0710
29828SOL     OW 1462   5.308  13.447   5.599  0.5097  0.0135 -0.3461
29828SOL    HW1 1463   5.256  13.480   5.526  1.5242  0.3322 -0.9448
29828SOL    HW2 1464   5.258  13.472   5.677 -1.0442 -1.1144 -0.9206
29829SOL     OW 1465   7.119   6.627   3.695  0.7486 -0.2264 -0.1767
29829SOL    HW1 1466   7.061   6.680   3.640  0.8209 -0.9053 -0.9279
29829SOL    HW2 1467   7.118   6.540   3.654  0.5061 -0.8518  1.1289
29830SOL     OW 1468   9.456   1.771   8.983  0.5725 -0.0761  0.2040
29830SOL    HW1 1469   9.372   1.797   9.022  0.3071 -2.4835  1.3944
29830SOL    HW2 1470   9.432   1.714   8.911  1.1893  0.7005 -0.6391
29831SOL     OW 1471   5.527   0.662   1.380  0.2792 -0.3594 -0.1297
29831SOL    HW1 1472   5.527   0.703   1.294  1.7264  2.0205  0.9184
29831SOL    HW2 1473   5.602   0.602   1.378  0.7664  0.2496 -0.2916
29832SOL     OW 1474   7.653   7.836  12.077  0.5649  0.3399  0.1568
29832SOL    HW1 1475   7.615   7.749  12.071 -1.0653  0.9597  1.0496
29832SOL    HW2 1476   7.747   7.822  12.066  0.3859 -1.5849  0.8161
29833SOL     OW 1477   4.890   4.185  13.663  0.3110  0.1536 -0.0928
29833SOL    HW1 1478   4.984   4.196  13.677  0.3868  0.2361 -0.6558
29833SOL    HW2 1479   4.849   4.245  13.726  0.6637  1.2166 -0.8525
29834SOL     OW 1480   9.279   5.350   3.830 -0.4670 -0.1220 -0.3759
29834SOL    HW1 1481   9.280   5.263   3.790 -1.9327 -0.0570 -0.6159
29834SOL    HW2 1482   9.269   5.410   3.756 -0.1640  0.2016 -0.1536
29835SOL     OW 1483   9.117   4.147   2.505  0.7191  0.2318  0.1424
29835SOL    HW1 1484   9.211   4.150   2.517  0.7392  0.3700 -0.0303
29835SOL    HW2 1485   9.085   4.228   2.544  0.6705  0.1751  0.2190
29836SOL     OW 1486   8.750  10.610   3.068 -0.1290 -0.2160  0.6053
29836SOL    HW1 1487   8.669  10.558   3.074  0.0706 -1.3801 -3.5588
29836SOL    HW2 1488   8.819  10.545   3.051  1.1234  1.0123  0.8337
29837SOL     OW 1489  13.731   1.937   7.640  0.1603 -0.0238  0.3180
29837SOL    HW1 1490  13.760   2.025   7.663  1.0788 -0.3410  0.4217
29837SOL    HW2 1491  13.638   1.935   7.665 -0.0092  1.0694 -0.1584
29838SOL     OW 1492   5.251   8.202   6.643 -0.9592 -0.0755 -0.2425
29838SOL    HW1 1493   5.277   8.280   6.691 -0.7170  1.2101 -2.3469
29838SOL    HW2 1494   5.332   8.171   6.602 -0.9352 -1.8035  1.0058
29839SOL     OW 1495  13.127   0.095   2.858 -0.4983 -0.4541  0.3024
29839SOL    HW1 1496  13.036   0.102   2.827 -0.3679 -1.3865 -0.3405
29839SOL    HW2 1497  13.180   0.116   2.781 -0.1656 -2.4098 -0.0572
29840SOL     OW 1498   3.841  10.245   8.733 -0.0922 -0.3844  0.2147
29840SOL    HW1 1499   3.837  10.238   8.828  0.6147 -0.0685  0.2755
29840SOL    HW2 1500   3.757  10.210   8.702  0.2753 -1.9224  0.8708
29841SOL     OW 1501   5.974  11.454   4.675 -0.0652 -0.1662  0.3019
29841SOL    HW1 1502   5.882  11.471   4.656  0.1764  1.4939  0.4576
29841SOL    HW2 1503   5.988  11.490   4.762  1.2192  1.6513 -0.5876
29842SOL     OW 1504   5.741   4.989   5.538  0.3805 -0.2716 -0.6146
29842SOL    HW1 1505   5.758   5.057   5.474  0.8197  1.6789  1.4530
29842SOL    HW2 1506   5.656   5.011   5.575  0.7592 -0.5311  0.4429
29843SOL     OW 1507  13.504   7.274   6.364  0.5479 -0.3380  1.0433
29843SOL    HW1 1508  13.538   7.185   6.370 -0.4035 -0.6329  3.0695
29843SOL    HW2 1509  13.441   7.271   6.292  1.5089 -0.9290  0.2115
29844SOL     OW 1510  13.562   5.324   9.846  0.0716 -0.4415 -0.6179
29844SOL    HW1 1511  13.632   5.349   9.906  0.2999 -0.0400 -1.0424
29844SOL    HW2 1512  13.569   5.387   9.774 -1.2148  0.0967 -0.3057
29845SOL     OW 1513   1.736   3.640   7.335  0.0226  0.2577 -1.2380
29845SOL    HW1 1514   1.649   3.614   7.304 -0.6107 -0.6339  1.0460
29845SOL    HW2 1515   1.754   3.580   7.408  1.0263  2.6123  0.5821
29846SOL     OW 1516   1.480   0.116   7.000  0.8855 -0.0156 -0.0251
29846SOL    HW1 1517   1.513   0.097   6.912 -0.1693  0.7958 -0.6100
29846SOL    HW2 1518   1.416   0.047   7.017 -0.9839  1.3455 -1.0777
29847SOL     OW 1519  13.306   4.814   9.764  0.0373  0.3407  0.3085
29847SOL    HW1 1520  13.223   4.850   9.733  1.1060  1.7335 -1.0910
29847SOL    HW2 1521  13.364   4.818   9.687  1.9332  1.0984  1.6971
29848SOL     OW 1522  10.313   7.837  10.519 -0.3133 -0.4048 -0.6187
29848SOL    HW1 1523  10.232   7.804  10.479 -1.1377  1.5172 -0.6116
29848SOL    HW2 1524  10.293   7.927  10.544  1.4531 -0.2865  0.5329
29849SOL     OW 1525   1.218  14.021   5.343 -0.2267  0.8913 -0.0264
29849SOL    HW1 1526   1.290  13.957   5.349  0.6403  1.7219 -1.1329
29849SOL    HW2 1527   1.196  14.041   5.434  0.3116 -0.0721  0.3325
29850SOL     OW 1528  10.183   4.361   2.573 -0.5152  0.3287 -0.5164
29850SOL    HW1 1529  10.188   4.387   2.665  0.6565 -0.7518 -0.2596
29850SOL    HW2 1530  10.134   4.279   2.573  1.6300 -1.0221 -0.5271
29851SOL     OW 1531   8.331   5.374   3.951 -0.3684  0.2936 -0.5689
29851SOL    HW1 1532   8.321   5.281   3.934 -0.1814  0.4696 -1.6900
29851SOL    HW2 1533   8.365   5.411   3.869 -0.1662  1.2994 -0.0553
29852SOL     OW 1534  13.796  10.938   5.754  0.5047 -0.3450  0.2828
29852SOL    HW1 1535  13.770  10.968   5.841  0.7167 -2.1501  1.0251
29852SOL    HW2 1536  13.832  11.015   5.711 -1.8698  1.1701  0.8563
29853SOL     OW 1537   9.898   1.995  12.194 -0.9531  0.2063 -0.2230
29853SOL    HW1 1538   9.903   2.023  12.103  0.5236 -0.2068 -0.2950
29853SOL    HW2 1539   9.838   2.058  12.235 -0.9500  0.9285 -1.2794
29854SOL     OW 1540   6.842  10.203   9.864 -0.5480  0.8296 -0.0452
29854SOL    HW1 1541   6.814  10.221   9.774 -0.1687 -0.4465 -0.4471
29854SOL    HW2 1542   6.936  10.186   9.857 -0.8930 -1.5986  0.1590
29855SOL     OW 1543   3.016   5.496   6.364 -0.0185 -0.0021  0.1599
29855SOL    HW1 1544   3.069   5.433   6.413 -0.5557  0.0116  0.7729
29855SOL    HW2 1545   2.994   5.563   6.428 -2.4675 -1.0199  0.4930
29856SOL     OW 1546   8.974   1.630   0.033 -0.4513 -0.1385 -0.3088
29856SOL    HW1 1547   9.005   1.542   0.055 -0.9043 -0.6399 -1.5858
29856SOL    HW2 1548   9.020   1.652  -0.048 -0.1085  0.9479  0.1532
29857SOL     OW 1549   8.792   5.144   5.897  0.2959 -0.0429  0.1490
29857SOL    HW1 1550   8.766   5.054   5.877 -1.9883  0.7760 -0.9314
29857SOL    HW2 1551   8.886   5.139   5.912  0.5179 -2.3601 -1.4540
29858SOL     OW 1552   7.392   5.341   8.534  0.0900  0.0399 -0.2314
29858SOL    HW1 1553   7.345   5.314   8.613  1.7068 -3.2185 -0.2504
29858SOL    HW2 1554   7.475   5.375   8.566 -0.1348  0.8284 -0.4616
29859SOL     OW 1555   6.500   8.125  12.192 -0.2738  0.0966 -0.2840
29859SOL    HW1 1556   6.469   8.146  12.280  2.5631  2.1404  0.3510
29859SOL    HW2 1557   6.434   8.164  12.134 -0.5651  1.5696  0.9663
29860SOL     OW 1558   5.043   9.154   9.492 -0.4007 -0.3324 -0.1044
29860SOL    HW1 1559   5.058   9.192   9.578  0.8631  1.3699 -1.0356
29860SOL    HW2 1560   4.980   9.083   9.508  1.0389 -1.1331  2.4382
29861SOL     OW 1561   0.759   0.684   8.711  0.2532 -0.4026  0.1500
29861SOL    HW1 1562   0.691   0.617   8.712 -1.0321  0.8470  0.4226
29861SOL    HW2 1563   0.796   0.681   8.800 -0.8533  0.2349  0.6612
29862SOL     OW 1564   9.790   2.680   2.572  0.2973 -0.0473 -0.3247
29862SOL    HW1 1565   9.699   2.651   2.567  0.0135  0.9457 -1.1364
29862SOL    HW2 1566   9.830   2.647   2.492  0.9479 -1.3936  0.5242
29863SOL     OW 1567   3.364  13.143   8.153 -0.1611  0.3135  0.2973
29863SOL    HW1 1568   3.431  13.150   8.221  1.8804  0.3709 -1.6245
29863SOL    HW2 1569   3.375  13.055   8.118 -1.3879  0.1820  0.1906
29864SOL     OW 1570   0.674   3.821  13.531 -0.7409 -0.2505 -0.6417
29864SOL    HW1 1571   0.598   3.774  13.564 -0.7734  0.3269  0.1349
29864SOL    HW2 1572   0.648   3.913  13.531  0.4381  0.1284  1.0837
29865SOL     OW 1573   0.031  13.195  11.490 -0.2138 -0.5680  0.7761
29865SOL    HW1 1574  -0.032  13.200  11.418 -0.1696 -2.4133  0.5512
29865SOL    HW2 1575  -0.021  13.167  11.565  0.1299 -0.9715  0.8700
29866SOL     OW 1576   8.088   4.330   7.696 -0.1885  0.1293 -0.0534
29866SOL    HW1 1577   8.163   4.312   7.753  0.0503 -2.0337 -0.9501
29866SOL    HW2 1578   8.124   4.326   7.607 -1.5208 -2.2085 -0.5633
29867SOL     OW 1579   4.517   2.902   3.357 -0.0801 -0.1219 -0.2208
29867SOL    HW1 1580   4.487   2.863   3.275  2.1016  0.2581 -1.2478
29867SOL    HW2 1581   4.461   2.979   3.368 -0.1360  0.0475 -1.5551
29868SOL     OW 1582   3.036   6.474  11.299 -0.5141  0.6691  0.3978
29868SOL    HW1 1583   3.074   6.422  11.369 -2.5706  0.2415  1.2783
29868SOL    HW2 1584   3.095   6.549  11.289  1.7658 -1.0721  0.0536
29869SOL     OW 1585   5.712   4.082   2.524  0.2979  0.6168  0.3221
29869SOL    HW1 1586   5.649   4.115   2.461 -0.5569  0.2855  0.9789
29869SOL    HW2 1587   5.658   4.049   2.596  1.1419 -1.1776  0.1879
29870SOL     OW 1588   3.004   8.475  13.053 -0.2546  0.1851 -0.3198
29870SOL    HW1 1589   3.027   8.564  13.080  0.5457 -0.2836  0.6475
29870SOL    HW2 1590   3.082   8.443  13.007 -0.5039 -0.0354 -0.5908
29871SOL     OW 1591   5.344   4.504   1.440 -0.0835  0.2132 -0.2741
29871SOL    HW1 1592   5.271   4.559   1.469  0.7047  0.6478  0.9316
29871SOL    HW2 1593   5.422   4.545   1.477  0.7088 -0.6642 -0.9234
29872SOL     OW 1594  11.395   5.801   4.298 -0.4586  0.5590  0.1564
29872SOL    HW1 1595  11.361   5.830   4.214 -0.1379  2.2132  0.5518
29872SOL    HW2 1596  11.470   5.858   4.315  0.4163 -0.7412  0.8790
29873SOL     OW 1597   8.514   1.054   5.522  0.1806 -0.1101 -0.5062
29873SOL    HW1 1598   8.598   1.022   5.554 -0.9142 -1.2399  1.4339
29873SOL    HW2 1599   8.463   0.975   5.506 -0.0946  0.5117 -3.0241
29874SOL     OW 1600   4.067  10.161   9.125 -0.3081 -0.5521 -0.5780
29874SOL    HW1 1601   4.084  10.157   9.220 -0.7326 -1.2892 -0.5207
29874SOL    HW2 1602   4.088  10.250   9.100 -1.2466 -0.0335  0.4150
29875SOL     OW 1603   6.214   4.068   8.474 -0.6783  0.1489 -0.7677
29875SOL    HW1 1604   6.253   4.057   8.387 -0.2705  0.5132 -0.6328
29875SOL    HW2 1605   6.120   4.075   8.457 -0.5781  0.5040 -1.2077
29876SOL     OW 1606   9.666  12.364   4.933 -0.3402 -0.3005  0.2227
29876SOL    HW1 1607   9.740  12.313   4.966  0.5126  1.3998  1.0482
29876SOL    HW2 1608   9.705  12.432   4.879 -1.1024  1.5990  1.9271
29877SOL     OW 1609  12.258   1.650   6.124 -0.4010  0.5876 -0.6596
29877SOL    HW1 1610  12.305   1.623   6.203 -0.4750 -0.0351 -0.8202
29877SOL    HW2 1611  12.236   1.741   6.139  0.2420  0.6873 -0.2785
29878SOL     OW 1612   5.637   0.454   9.618 -0.2334 -0.6536  0.2338
29878SOL    HW1 1613   5.703   0.407   9.669 -0.2429 -0.6774  0.2243
29878SOL    HW2 1614   5.662   0.441   9.527  0.3639  0.2528  0.2614
29879SOL     OW 1615   8.625   1.997   0.329  0.0104 -1.0987  0.1903
29879SOL    HW1 1616   8.591   1.907   0.321 -0.6473 -0.8074 -0.4040
29879SOL    HW2 1617   8.704   1.997   0.275  0.0418 -1.3325  0.2321
29880SOL     OW 1618   2.064   7.655   7.749 -0.4121 -0.4083  0.0184
29880SOL    HW1 1619   1.979   7.612   7.742 -0.8719  0.4490  0.2846
29880SOL    HW2 1620   2.054   7.718   7.820  1.2095 -2.0529  1.8714
29881SOL     OW 1621  11.200   0.674   6.952 -0.0955  0.6821 -0.5515
29881SOL    HW1 1622  11.280   0.640   6.994 -0.2660 -0.4918 -1.1592
29881SOL    HW2 1623  11.232   0.734   6.885  0.4442 -1.6823 -2.5347
29882SOL     OW 1624   2.599   0.039  13.269 -0.0718 -0.3393 -0.1258
29882SOL    HW1 1625   2.638   0.054  13.183 -0.7369  2.1167 -0.0732
29882SOL    HW2 1626   2.525  -0.019  13.252 -1.3681  1.6388 -1.5733
29883SOL     OW 1627  10.070  11.330   9.827  0.1766  0.5419  0.6921
29883SOL    HW1 1628  10.005  11.368   9.768 -0.6490 -0.5305  0.8940
29883SOL    HW2 1629  10.036  11.244   9.849 -0.4014  1.4896  4.0893
29884SOL     OW 1630  11.748   3.696   2.078  0.6490  0.0923  0.5100
29884SOL    HW1 1631  11.654   3.712   2.068 -0.2456 -3.1646  2.1627
29884SOL    HW2 1632  11.759   3.605   2.051  3.2176  0.2051  0.9974
29885SOL     OW 1633   3.489   3.748   0.441  0.0226 -0.0265  0.4531
29885SOL    HW1 1634   3.485   3.799   0.360  1.4571 -0.0138  0.3576
29885SOL    HW2 1635   3.576   3.766   0.477 -0.6003  0.0235  2.0493
29886SOL     OW 1636   3.024   5.735  10.711  0.1498 -0.1616 -0.4664
29886SOL    HW1 1637   3.068   5.731  10.795 -1.6479 -1.0439  0.4871
29886SOL    HW2 1638   3.017   5.644  10.682 -2.6864 -0.2964  0.3702
29887SOL     OW 1639   8.299  12.408   4.626 -0.0529  1.0807  0.0253
29887SOL    HW1 1640   8.325  12.497   4.649  0.3901  0.9337  0.1117
29887SOL    HW2 1641   8.369  12.353   4.662 -0.4630  0.6762  0.2129
29888SOL     OW 1642   4.600   7.991   7.873 -0.0828 -0.6279  0.4613
29888SOL    HW1 1643   4.552   7.909   7.858 -3.5122  1.5037 -1.5425
29888SOL    HW2 1644   4.613   7.994   7.968  0.2502 -3.4565  0.6009
29889SOL     OW 1645  12.989   7.148  11.374 -0.1908  0.2137  0.1126
29889SOL    HW1 1646  13.056   7.116  11.435 -0.5813 -1.3615 -0.2238
29889SOL    HW2 1647  13.038   7.172  11.296  0.1400  0.6389  0.4442
29890SOL     OW 1648   8.908  11.575   7.676  0.5948  0.0723 -0.4261
29890SOL    HW1 1649   8.863  11.655   7.651  1.5770  1.1277  1.0408
29890SOL    HW2 1650   8.950  11.596   7.759  1.7316 -1.6462 -0.5160
29891SOL     OW 1651   7.419   8.920   7.375  0.3991 -0.3159 -0.0193
29891SOL    HW1 1652   7.404   8.828   7.398  1.8332 -0.6741 -0.4824
29891SOL    HW2 1653   7.378   8.931   7.289  0.4823 -0.5858 -0.0918
29892SOL     OW 1654   6.753   9.338   1.110 -0.2553  0.3285  0.7811
29892SOL    HW1 1655   6.833   9.391   1.113 -0.7563  1.0961  0.7502
29892SOL    HW2 1656   6.693   9.388   1.054 -0.1083 -1.1482 -0.8008
29893SOL     OW 1657   6.041   3.460   1.832 -0.0150  0.7066 -0.1090
29893SOL    HW1 1658   6.080   3.374   1.851 -1.3030 -0.3301 -1.7943
29893SOL    HW2 1659   6.083   3.489   1.751 -1.2439  0.4984 -0.8572
29894SOL     OW 1660  10.813  10.629  10.099 -0.1303  0.5838 -0.0905
29894SOL    HW1 1661  10.867  10.653  10.024 -0.1361  1.2426  0.1112
29894SOL    HW2 1662  10.866  10.565  10.147  0.5055  1.2896  0.1536
29895SOL     OW 1663   1.718   8.056  13.095  0.2186  0.0149 -0.0065
29895SOL    HW1 1664   1.673   8.138  13.117  0.2056  0.0520 -0.1746
29895SOL    HW2 1665   1.650   8.000  13.060  0.1978 -0.1245  0.2515
29896SOL     OW 1666   0.687   2.269   7.250 -0.6280 -0.3345  0.3893
29896SOL    HW1 1667   0.706   2.283   7.158 -0.9112  0.8186  0.4779
29896SOL    HW2 1668   0.653   2.180   7.256  0.3597 -0.7703 -0.4539
29897SOL     OW 1669  13.190   4.087   1.080 -0.1782 -0.0274  0.3853
29897SOL    HW1 1670  13.182   4.032   1.002  0.5706  2.0356 -1.2455
29897SOL    HW2 1671  13.276   4.129   1.071 -0.3334  0.7123  2.0121
29898SOL     OW 1672   2.401   3.480   0.203 -0.2624  0.1335 -0.1278
29898SOL    HW1 1673   2.433   3.495   0.114  1.0934 -0.1752  0.2896
29898SOL    HW2 1674   2.464   3.524   0.259 -1.6936  1.2587  0.6634
29899SOL     OW 1675   1.678   2.604   3.763 -0.3875  0.0582 -0.3816
29899SOL    HW1 1676   1.735   2.593   3.687 -0.2497 -1.8609 -0.0436
29899SOL    HW2 1677   1.605   2.544   3.748  1.0033 -2.5444  2.1980
29900SOL     OW 1678   8.122   6.729   5.368  0.2834 -0.0850  0.7911
29900SOL    HW1 1679   8.105   6.729   5.274  1.4943  0.9256  0.5407
29900SOL    HW2 1680   8.181   6.654   5.381  0.9155  0.3714  0.5753
29901SOL     OW 1681   3.944   2.795  13.663  0.2262 -0.2661  0.7189
29901SOL    HW1 1682   3.979   2.722  13.715 -0.0530  0.6762  2.3170
29901SOL    HW2 1683   3.911   2.857  13.729  0.9023  1.5318 -0.5669
29902SOL     OW 1684   3.730   3.597   0.118  0.3331 -0.2846  0.4242
29902SOL    HW1 1685   3.691   3.548   0.190 -1.6221 -2.0523 -1.7047
29902SOL    HW2 1686   3.821   3.566   0.114  0.0075 -1.3685  1.0995
29903SOL     OW 1687   0.745   3.917   9.315  0.3314 -0.2285 -0.3486
29903SOL    HW1 1688   0.751   3.843   9.255 -0.1142  0.3991 -1.2027
29903SOL    HW2 1689   0.656   3.913   9.350 -0.1701  0.6580 -1.4510
29904SOL     OW 1690   4.693   8.428   1.376  0.0400  0.1270 -0.3553
29904SOL    HW1 1691   4.614   8.392   1.417  0.7260  1.6956  2.6979
29904SOL    HW2 1692   4.707   8.512   1.421  2.8511  0.4056 -1.5324
29905SOL     OW 1693  12.457   8.327   6.818 -0.1070 -0.1143 -0.2174
29905SOL    HW1 1694  12.389   8.358   6.758 -0.5939 -0.2889  0.2357
29905SOL    HW2 1695  12.510   8.267   6.765 -1.3882 -1.3944 -0.1189
29906SOL     OW 1696  10.344   1.433   3.629  0.3733 -0.5999  0.2992
29906SOL    HW1 1697  10.284   1.362   3.652 -0.0245 -0.5836 -0.6507
29906SOL    HW2 1698  10.332   1.498   3.699  1.9686 -2.1468  2.1383
29907SOL     OW 1699   1.085   3.597   5.304 -0.4015 -0.0637 -0.1644
29907SOL    HW1 1700   1.082   3.527   5.369 -2.9004  1.2259  1.2771
29907SOL    HW2 1701   0.993   3.614   5.284  0.2312  1.0796 -2.4443
29908SOL     OW 1702  10.789  13.557  13.265  0.1194  0.4501 -0.0057
29908SOL    HW1 1703  10.714  13.519  13.221  1.3911 -1.8397 -0.3745
29908SOL    HW2 1704  10.752  13.606  13.339 -1.7318 -0.1877 -0.4686
29909SOL     OW 1705   1.755   7.278  12.463  0.2920  0.3935  0.1392
29909SOL    HW1 1706   1.820   7.210  12.447  0.1058  0.6338 -1.8361
29909SOL    HW2 1707   1.780   7.315  12.549  1.4642 -0.9286  0.4026
29910SOL     OW 1708   4.634   4.565   7.362  0.3050  0.0330  0.1985
29910SOL    HW1 1709   4.564   4.552   7.298  0.1845  0.4042  0.2491
29910SOL    HW2 1710   4.713   4.573   7.310 -0.0484  2.3702 -0.0770
29911SOL     OW 1711   4.933   4.276   9.148 -0.1647 -0.0170 -0.4018
29911SOL    HW1 1712   4.880   4.354   9.139  0.1947  0.2628 -0.1535
29911SOL    HW2 1713   4.970   4.282   9.237  0.6226  0.0167 -0.7222
29912SOL     OW 1714   8.980   9.397  12.079  0.0809 -0.6249 -0.5789
29912SOL    HW1 1715   8.997   9.408  11.986  0.0837 -0.5930 -0.5745
29912SOL    HW2 1716   9.005   9.307  12.098 -0.8070 -0.9343 -0.8141
29913SOL     OW 1717   2.293   3.571  10.038 -0.6414 -0.2190 -0.4906
29913SOL    HW1 1718   2.285   3.559   9.943  0.3259 -1.4394 -0.4372
29913SOL    HW2 1719   2.263   3.488  10.075  0.5991 -0.4008  0.1740
29914SOL     OW 1720  10.003  12.887   1.830 -0.2718 -0.3447  1.2209
29914SOL    HW1 1721  10.087  12.862   1.869  1.1349  0.8439 -0.8477
29914SOL    HW2 1722   9.988  12.977   1.860 -0.8138 -0.5319  1.5338
29915SOL     OW 1723   5.845   7.436  12.900  0.4954  0.5963  0.5572
29915SOL    HW1 1724   5.852   7.474  12.813  1.3827 -1.0487 -0.1263
29915SOL    HW2 1725   5.934   7.405  12.920 -0.0296 -0.3899  1.4161
29916SOL     OW 1726   9.380  11.792  13.617  0.1509 -0.0996  0.2662
29916SOL    HW1 1727   9.303  11.819  13.566  1.5558  1.0867 -1.3554
29916SOL    HW2 1728   9.409  11.711  13.575  2.7450  2.1002 -2.7028
29917SOL     OW 1729  12.311  12.748  13.746 -0.2566  0.0035 -0.3844
29917SOL    HW1 1730  12.293  12.774  13.655  0.0811  0.3453 -0.3574
29917SOL    HW2 1731  12.331  12.830  13.790  1.3636 -0.3451 -0.4236
29918SOL     OW 1732  10.023   5.136   0.361  0.0873 -0.3519 -0.2049
29918SOL    HW1 1733  10.036   5.218   0.408  0.6044 -1.0226  0.8479
29918SOL    HW2 1734   9.970   5.160   0.285 -1.3013  0.6539  1.0442
29919SOL     OW 1735  13.687  10.703  11.633 -0.2508  0.4949  0.5240
29919SOL    HW1 1736  13.637  10.650  11.571  1.3298 -2.0749  1.2800
29919SOL    HW2 1737  13.621  10.752  11.682 -1.7481 -0.1229 -0.7707
29920SOL     OW 1738   9.982   4.619   5.729  0.8618 -0.0227  0.2839
29920SOL    HW1 1739   9.939   4.700   5.758  0.0900  0.0211 -0.9259
29920SOL    HW2 1740   9.912   4.554   5.726  1.3924 -0.6303  0.7907
29921SOL     OW 1741  13.452   2.375   6.112  0.1143  0.8619 -0.2182
29921SOL    HW1 1742  13.507   2.384   6.035  2.3463 -1.6720  0.9168
29921SOL    HW2 1743  13.497   2.427   6.179 -0.3803  0.9567  0.0432
29922SOL     OW 1744  13.989  11.512   4.540  0.2051  0.2291 -0.3203
29922SOL    HW1 1745  13.951  11.460   4.610 -1.6064 -0.1283 -1.5033
29922SOL    HW2 1746  14.077  11.475   4.528  0.4144  0.0725  1.4790
29923SOL     OW 1747   9.890   2.299   9.743  0.1509 -0.0510 -0.2956
29923SOL    HW1 1748   9.912   2.332   9.830  0.4422 -2.9592  0.8438
29923SOL    HW2 1749   9.822   2.358   9.711 -1.3741 -0.0093  2.7511
29924SOL     OW 1750   4.694   3.115   6.104  0.5277 -0.1967 -0.0911
29924SOL    HW1 1751   4.752   3.111   6.028 -0.2189 -0.8150 -0.6330
29924SOL    HW2 1752   4.619   3.061   6.081  0.6905 -1.1589  1.4258
29925SOL     OW 1753   9.861   6.868  11.375 -0.1956 -0.1110 -0.7563
29925SOL    HW1 1754   9.893   6.783  11.346  0.0354 -0.4254  0.3498
29925SOL    HW2 1755   9.770   6.852  11.401  0.4886 -0.6132  1.6323
29926SOL     OW 1756  10.336   0.178   5.161 -0.7218 -0.3478 -0.0642
29926SOL    HW1 1757  10.407   0.186   5.096  0.7641 -0.3570  1.4778
29926SOL    HW2 1758  10.301   0.090   5.148 -0.8357 -0.1522 -1.2043
29927SOL     OW 1759   4.717  12.339   3.665 -0.3283 -0.1683  0.2270
29927SOL    HW1 1760   4.779  12.292   3.721  0.2348  1.6193  1.1720
29927SOL    HW2 1761   4.737  12.307   3.577  1.2443 -0.4285  0.6367
29928SOL     OW 1762   5.310  12.684   0.251  0.0305 -0.4809 -0.8419
29928SOL    HW1 1763   5.365  12.732   0.188 -1.1091 -1.2728 -2.5146
29928SOL    HW2 1764   5.242  12.747   0.275  0.5037 -0.1558 -0.3171
29929SOL     OW 1765   4.682   9.028   5.249 -0.4674 -0.4391  0.1245
29929SOL    HW1 1766   4.658   9.112   5.289 -1.9675  0.7654 -2.9690
29929SOL    HW2 1767   4.638   8.963   5.303 -0.8950  0.8959  1.4732
29930SOL     OW 1768  13.870  13.044   4.127  0.1676  0.4020 -0.3198
29930SOL    HW1 1769  13.942  13.094   4.164  0.0623 -0.4705  1.1337
29930SOL    HW2 1770  13.870  13.067   4.034  2.0126  0.7605 -0.2652
29931SOL     OW 1771   1.520   7.161   2.080  0.3120 -1.1713 -0.2388
29931SOL    HW1 1772   1.574   7.110   2.019  1.6203 -1.3146  1.0009
29931SOL    HW2 1773   1.565   7.154   2.164 -0.2176  0.9003  0.2751
29932SOL     OW 1774  13.188   7.180   9.112 -0.3678 -0.2611  0.0182
29932SOL    HW1 1775  13.167   7.243   9.182 -0.0915 -0.1851  0.0332
29932SOL    HW2 1776  13.134   7.103   9.132 -1.3173  0.2563 -0.4456
29933SOL     OW 1777   5.002  11.675  13.898  0.0754 -0.3999  0.0956
29933SOL    HW1 1778   5.054  11.668  13.818  1.8027 -0.2907  1.1829
29933SOL    HW2 1779   4.939  11.745  13.879  1.7184  0.9672 -0.5002
29934SOL     OW 1780   4.819  14.039  12.689  0.1347  0.6160  0.3452
29934SOL    HW1 1781   4.893  14.094  12.714 -0.8342  1.1134  2.3262
29934SOL    HW2 1782   4.786  14.078  12.608  1.0606  1.3106  0.2847
29935SOL     OW 1783  11.781  10.878   1.982  0.0040 -0.7182 -0.1009
29935SOL    HW1 1784  11.755  10.794   1.944 -1.7704 -0.2136 -0.0727
29935SOL    HW2 1785  11.771  10.941   1.910 -0.9566 -0.1724  0.4857
29936SOL     OW 1786   0.329  10.814   9.793 -0.1215 -0.0820  0.0706
29936SOL    HW1 1787   0.335  10.861   9.710 -0.5831 -0.4419 -0.1769
29936SOL    HW2 1788   0.300  10.726   9.768  0.4721 -0.4219  0.5457
29937SOL     OW 1789   9.950  14.026   1.919  0.3133 -0.2194 -0.1342
29937SOL    HW1 1790   9.873  14.020   1.861 -0.0609  1.2185  0.1707
29937SOL    HW2 1791   9.917  14.002   2.005 -0.3052  2.1131  0.3661
29938SOL     OW 1792   5.422   6.838  13.574  0.7166 -0.5703  0.2570
29938SOL    HW1 1793   5.508   6.872  13.597  0.5617  0.2024 -0.2597
29938SOL    HW2 1794   5.431   6.809  13.483  0.6419 -1.2316  0.4538
29939SOL     OW 1795   5.926   5.163   9.146 -0.2900 -0.3085  0.1399
29939SOL    HW1 1796   5.949   5.177   9.054 -0.3739  1.3841  0.3284
29939SOL    HW2 1797   5.992   5.214   9.195 -1.4682  0.5495  0.9025
29940SOL     OW 1798   5.651   8.750   6.721 -0.0311  0.5326  0.5093
29940SOL    HW1 1799   5.590   8.732   6.650  2.6915  0.4796 -1.9940
29940SOL    HW2 1800   5.704   8.671   6.729  0.6748  1.0804  1.5659
29941SOL     OW 1801   7.986   1.925  11.586 -0.1407 -0.4548 -0.2497
29941SOL    HW1 1802   7.905   1.970  11.610 -0.4367 -1.3484  0.5172
29941SOL    HW2 1803   8.056   1.981  11.621 -0.4344  0.1002 -0.5346
29942SOL     OW 1804   4.997   7.137  10.532  0.0962  0.7173 -1.4302
29942SOL    HW1 1805   4.974   7.056  10.486 -0.0208  0.7046 -1.3487
29942SOL    HW2 1806   5.079   7.117  10.576 -1.6357 -0.5247  1.4938
29943SOL     OW 1807  11.776   0.630   7.596  0.6199 -0.5572 -0.2158
29943SOL    HW1 1808  11.729   0.637   7.679  0.4379 -3.2129 -0.0283
29943SOL    HW2 1809  11.713   0.663   7.531  0.2090  0.1233  0.5031
29944SOL     OW 1810   5.262   9.886  11.397 -0.3027  0.1496  0.1004
29944SOL    HW1 1811   5.268   9.823  11.469  1.2708  2.2604  1.9941
29944SOL    HW2 1812   5.195   9.948  11.426  2.5682  2.8697  1.5200
29945SOL     OW 1813  12.253   6.676   5.907 -0.2278 -0.2305  0.0371
29945SOL    HW1 1814  12.310   6.712   5.976  1.5409 -0.3070 -1.3141
29945SOL    HW2 1815  12.220   6.753   5.861  0.0181 -0.2195 -0.1232
29946SOL     OW 1816  12.820   6.409  10.888 -0.0388  0.3364  0.4854
29946SOL    HW1 1817  12.771   6.327  10.883 -2.6991  1.7368  1.0245
29946SOL    HW2 1818  12.811   6.436  10.980  1.8369  0.6757  0.6054
29947SOL     OW 1819   8.231  12.715  10.562 -0.1704  0.6718  0.5912
29947SOL    HW1 1820   8.197  12.748  10.479 -0.0870  0.6682  0.5550
29947SOL    HW2 1821   8.323  12.695  10.543 -0.7533 -1.7760 -0.0649
29948SOL     OW 1822   3.393   9.574   4.857 -0.1599  0.2309  0.1243
29948SOL    HW1 1823   3.329   9.514   4.894 -3.0247  2.6600 -0.5623
29948SOL    HW2 1824   3.445   9.603   4.933 -1.4271 -0.0428  1.1314
29949SOL     OW 1825   6.128   8.936   9.586  0.4104 -0.3178  0.2510
29949SOL    HW1 1826   6.073   8.970   9.657 -1.0943  1.5988 -1.6899
29949SOL    HW2 1827   6.218   8.947   9.617 -0.1658 -2.4892  3.0703
29950SOL     OW 1828  12.104   6.023   0.724  0.5004  0.1181  0.2165
29950SOL    HW1 1829  12.038   6.048   0.789 -0.1776  0.7673 -0.6898
29950SOL    HW2 1830  12.075   5.938   0.692  0.7372 -0.1206  0.6261
29951SOL     OW 1831   7.854  13.004   5.195  0.0009 -0.5622 -0.2450
29951SOL    HW1 1832   7.775  13.004   5.140 -0.3648 -0.5781  0.2724
29951SOL    HW2 1833   7.824  12.970   5.279  0.7208 -1.2643 -0.2628
29952SOL     OW 1834   6.351   3.627   1.931  0.4650  0.4123 -0.1843
29952SOL    HW1 1835   6.260   3.655   1.937  1.1070  2.6297  0.2415
29952SOL    HW2 1836   6.368   3.581   2.013 -0.1157  0.4145 -0.0623
29953SOL     OW 1837   7.854   3.824   6.765  0.5206 -0.4287 -0.7911
29953SOL    HW1 1838   7.807   3.888   6.819  0.0698  0.0564 -1.7269
29953SOL    HW2 1839   7.937   3.810   6.811 -0.2076 -0.7114  0.4872
29954SOL     OW 1840   0.091   2.564   6.249  0.4047 -0.2582  0.2948
29954SOL    HW1 1841   0.080   2.659   6.245  0.1122 -0.2602  0.9077
29954SOL    HW2 1842   0.094   2.536   6.158 -0.3273  0.2480  0.1062
29955SOL     OW 1843   3.135   1.783   8.573  0.0889 -0.4533 -0.1220
29955SOL    HW1 1844   3.094   1.733   8.643  1.7537 -1.2529  0.3073
29955SOL    HW2 1845   3.220   1.741   8.559  2.1613  2.9406  1.1049
29956SOL     OW 1846   5.940   4.091   8.818 -0.1308 -0.2365 -0.0259
29956SOL    HW1 1847   5.968   4.094   8.726 -0.4651 -0.3297 -0.1319
29956SOL    HW2 1848   5.877   4.019   8.821 -0.0906 -0.2592  0.2858
29957SOL     OW 1849   7.835   3.313  12.248  0.0048 -0.1184  0.5990
29957SOL    HW1 1850   7.741   3.303  12.232  0.2964 -0.6786 -0.8265
29957SOL    HW2 1851   7.845   3.288  12.340 -1.1804 -0.4080  0.6751
29958SOL     OW 1852  13.631   7.014   5.775  0.2803  0.4881  0.2633
29958SOL    HW1 1853  13.712   6.988   5.731 -0.0033 -1.6991  0.9119
29958SOL    HW2 1854  13.652   7.008   5.868 -0.1361  1.7009  0.4563
29959SOL     OW 1855  12.112   1.758   8.602 -0.2049  0.4874  0.3158
29959SOL    HW1 1856  12.165   1.803   8.536 -2.5670  2.2691 -0.4821
29959SOL    HW2 1857  12.057   1.698   8.552 -0.8084  0.5958  0.8309
29960SOL     OW 1858   7.219   5.346  12.986 -0.1875 -0.1224  0.6263
29960SOL    HW1 1859   7.265   5.262  12.989  1.4248  0.6759 -0.0486
29960SOL    HW2 1860   7.257   5.397  13.058 -0.0734  0.5138  0.1319
29961SOL     OW 1861   6.615  12.980   0.257  0.5930  0.1946  0.2838
29961SOL    HW1 1862   6.682  13.012   0.197 -0.9093  0.3841 -1.3615
29961SOL    HW2 1863   6.548  13.048   0.257 -0.8603 -1.1775 -0.2502
29962SOL     OW 1864   8.344  11.904   5.474 -0.3582 -0.0444 -0.3050
29962SOL    HW1 1865   8.400  11.960   5.421 -1.2650  1.1262 -0.0668
29962SOL    HW2 1866   8.255  11.926   5.448 -0.9843  2.0518  2.9889
29963SOL     OW 1867   3.116  12.200   3.999 -0.5284  0.6231 -0.0847
29963SOL    HW1 1868   3.039  12.239   4.039 -0.6830  0.1201  0.1112
29963SOL    HW2 1869   3.103  12.214   3.905 -1.6000 -0.7628 -0.1785
29964SOL     OW 1870   4.733   2.467  10.290  0.2538 -0.2039  0.1622
29964SOL    HW1 1871   4.821   2.460  10.255 -0.0616  0.4155 -0.7944
29964SOL    HW2 1872   4.678   2.418  10.228 -0.1342 -0.2153  0.5073
29965SOL     OW 1873   7.833   1.321   0.351  0.2062  0.2093  0.1737
29965SOL    HW1 1874   7.874   1.252   0.404 -2.4506 -1.6911 -0.0727
29965SOL    HW2 1875   7.765   1.358   0.408 -0.1615  0.7765 -0.6167
29966SOL     OW 1876   6.776  12.395   6.690 -0.1186  0.3328  0.3031
29966SOL    HW1 1877   6.689  12.378   6.653  0.2553 -0.0977 -0.4007
29966SOL    HW2 1878   6.830  12.417   6.615  0.3347  0.8443  0.7669
29967SOL     OW 1879  13.446   7.252   5.303 -0.4194  0.2013  0.6538
29967SOL    HW1 1880  13.395   7.232   5.381  1.7395 -0.3898  1.9744
29967SOL    HW2 1881  13.504   7.177   5.292  0.3097  0.9208 -0.6954
29968SOL     OW 1882   2.008  11.157   4.800 -0.4032 -0.0434 -0.2243
29968SOL    HW1 1883   1.962  11.110   4.731 -2.6342 -1.0311  1.7795
29968SOL    HW2 1884   2.074  11.209   4.754 -0.1843 -2.3924 -2.8550
29969SOL     OW 1885   1.040  10.320   0.849  0.7064  0.6819 -0.9125
29969SOL    HW1 1886   1.111  10.287   0.904 -2.2562 -3.4894  0.9570
29969SOL    HW2 1887   0.995  10.384   0.905  0.9863  0.6967 -0.7034
29970SOL     OW 1888   0.757   2.218   9.035  0.3358 -0.0611  0.1105
29970SOL    HW1 1889   0.829   2.190   8.978  1.0964  0.4713  0.7963
29970SOL    HW2 1890   0.785   2.303   9.069 -0.3569 -0.1200  0.8537
29971SOL     OW 1891   7.249   0.311  12.140 -0.1430  0.2992 -0.1390
29971SOL    HW1 1892   7.292   0.384  12.096  0.2032 -0.2134 -0.6555
29971SOL    HW2 1893   7.221   0.253  12.069 -0.4965 -0.0245  0.2617
29972SOL     OW 1894  10.845  13.844   1.193 -0.0868  0.7579 -0.6885
29972SOL    HW1 1895  10.808  13.918   1.241 -0.9110  0.0285 -0.1597
29972SOL    HW2 1896  10.939  13.857   1.195  0.2568 -0.8008  3.8509
29973SOL     OW 1897   1.383   0.451  13.628 -0.5307 -0.5960 -0.4704
29973SOL    HW1 1898   1.426   0.422  13.709 -2.1796  1.5477  1.3138
29973SOL    HW2 1899   1.353   0.370  13.587  1.8424 -1.8691  0.1331
29974SOL     OW 1900   0.806  10.521   9.193 -0.6051  0.5375  0.5582
29974SOL    HW1 1901   0.779  10.433   9.217 -0.3669  0.7286  1.5922
29974SOL    HW2 1902   0.832  10.515   9.101 -0.4186 -0.4994  0.6717
29975SOL     OW 1903   9.820   1.503  10.860 -0.2477  0.5483 -0.1864
29975SOL    HW1 1904   9.896   1.516  10.918 -1.1459 -1.6683  1.6595
29975SOL    HW2 1905   9.744   1.509  10.918 -1.3634  0.5860 -1.5985
29976SOL     OW 1906   9.440   9.720   9.592  0.1110  0.1006  0.3746
29976SOL    HW1 1907   9.413   9.711   9.684  0.3134  1.0619  0.5314
29976SOL    HW2 1908   9.488   9.639   9.574  0.5484  0.1465  1.2747
29977SOL     OW 1909   6.893  12.673   9.591 -0.1949  0.3889  0.0363
29977SOL    HW1 1910   6.971  12.669   9.536 -0.5481  0.5173 -0.4727
29977SOL    HW2 1911   6.820  12.665   9.531 -0.6558  2.5862  0.2336
29978SOL     OW 1912   9.325   1.797  10.977  0.2537 -0.0702  0.0099
29978SOL    HW1 1913   9.360   1.867  11.032 -0.2608  0.1737  0.0373
29978SOL    HW2 1914   9.397   1.774  10.918  0.1879  1.0061 -0.5108
29979SOL     OW 1915   2.965  10.433   7.027 -0.4763  0.3234  0.4089
29979SOL    HW1 1916   2.885  10.391   7.059 -0.4129 -0.7909 -0.7696
29979SOL    HW2 1917   2.935  10.516   6.989 -1.2777 -0.5429 -0.9537
29980SOL     OW 1918   5.501   5.446  11.121  0.4944 -0.2046  0.1080
29980SOL    HW1 1919   5.431   5.510  11.134 -0.2443 -0.9886  0.1140
29980SOL    HW2 1920   5.499   5.392  11.200 -0.4157 -1.6355 -0.8371
29981SOL     OW 1921   7.318   5.952   7.889 -0.2366 -0.4244  0.0921
29981SOL    HW1 1922   7.320   6.012   7.814 -0.8091  0.4457  0.7512
29981SOL    HW2 1923   7.410   5.940   7.912 -0.1029  2.7841  1.8895
29982SOL     OW 1924  11.346   9.991  11.167  0.4066  0.3017  0.5243
29982SOL    HW1 1925  11.376   9.901  11.155  0.3570  0.4320 -0.6982
29982SOL    HW2 1926  11.299   9.989  11.251 -0.5215 -1.0689  0.0272
29983SOL     OW 1927   0.550   3.321   9.013 -0.4072 -0.0843  0.1888
29983SOL    HW1 1928   0.482   3.288   8.955 -1.4733  0.3805  1.1414
29983SOL    HW2 1929   0.574   3.406   8.976 -0.0402 -0.4244 -0.3735
29984SOL     OW 1930   4.368   7.815  13.142  0.2228  0.1242 -0.8976
29984SOL    HW1 1931   4.300   7.752  13.118 -0.7071  1.0970 -0.8868
29984SOL    HW2 1932   4.391   7.858  13.060  2.3888 -1.6087 -1.3181
29985SOL     OW 1933   5.362   2.399   2.734 -0.0751  0.0799  0.3298
29985SOL    HW1 1934   5.353   2.486   2.774 -1.7513  1.3990 -2.5850
29985SOL    HW2 1935   5.279   2.356   2.753 -2.1444  1.7882 -3.6655
29986SOL     OW 1936  13.450  13.060   3.589 -0.8523 -0.1522  0.2969
29986SOL    HW1 1937  13.524  13.100   3.545 -0.2474 -0.1435  1.3067
29986SOL    HW2 1938  13.451  12.969   3.559  0.3704 -0.4925  1.3108
29987SOL     OW 1939   6.650  10.437   5.697  0.0342 -0.6494 -0.3470
29987SOL    HW1 1940   6.675  10.511   5.642  0.2245  0.7400  1.4973
29987SOL    HW2 1941   6.731  10.390   5.713 -0.0432 -1.1456 -1.2964
29988SOL     OW 1942   4.880   9.509   3.808 -0.0297  0.6406  0.1938
29988SOL    HW1 1943   4.795   9.505   3.851  0.6466  1.2133  1.6724
29988SOL    HW2 1944   4.877   9.440   3.742 -1.3855  0.1980  0.6755
29989SOL     OW 1945   3.574  11.570   4.259 -0.2845  0.5794 -0.3229
29989SOL    HW1 1946   3.538  11.494   4.212 -0.6026 -0.3468  1.3578
29989SOL    HW2 1947   3.547  11.557   4.349  3.0371  0.5748  0.7989
29990SOL     OW 1948   7.417   4.139   6.267  0.0846 -0.2680  0.3230
29990SOL    HW1 1949   7.388   4.064   6.318 -1.6300 -0.6062 -1.0412
29990SOL    HW2 1950   7.512   4.127   6.258 -0.1610 -2.3925 -0.0212
29991SOL     OW 1951  12.600   4.508   1.680 -0.0937  0.5203  0.1283
29991SOL    HW1 1952  12.618   4.415   1.697  0.3723  0.7272  0.8168
29991SOL    HW2 1953  12.562   4.540   1.762  0.1175  1.0260  0.0271
29992SOL     OW 1954  12.743   1.342   9.434  0.0143  0.5941  0.1985
29992SOL    HW1 1955  12.765   1.403   9.504 -2.4602  0.2709  1.3836
29992SOL    HW2 1956  12.740   1.256   9.476 -1.8389  0.4400 -0.1431
29993SOL     OW 1957   1.715   6.018  13.324 -0.0135 -0.1492  0.0714
29993SOL    HW1 1958   1.647   6.063  13.274 -0.4394 -1.3702 -0.4928
29993SOL    HW2 1959   1.752   5.955  13.262  0.7710 -0.3622  0.7428
29994SOL     OW 1960   1.699  10.692  12.255  0.5935  0.3770  0.6106
29994SOL    HW1 1961   1.698  10.597  12.267  0.2677  0.2195 -0.5979
29994SOL    HW2 1962   1.754  10.724  12.327  0.7132 -0.7175  1.0308
29995SOL     OW 1963   7.395   8.564  12.518  0.1139 -0.0680  0.0561
29995SOL    HW1 1964   7.383   8.640  12.461 -1.8718  0.2796  0.8758
29995SOL    HW2 1965   7.443   8.597  12.593 -0.1443  0.2243  0.0940
29996SOL     OW 1966   8.015   0.842  10.672  0.6728 -0.3259 -0.1674
29996SOL    HW1 1967   8.074   0.873  10.603  1.0174 -1.2022 -0.2766
29996SOL    HW2 1968   8.049   0.756  10.696  0.5790 -0.0172  1.1333
29997SOL     OW 1969  10.412   3.181   4.693  0.9410  0.6055 -0.2348
29997SOL    HW1 1970  10.498   3.151   4.721  1.6784  3.1477  0.4703
29997SOL    HW2 1971  10.424   3.213   4.604  0.6427  0.6036 -0.2780
29998SOL     OW 1972   5.607  13.296   5.277 -0.0365 -0.5702 -0.5148
29998SOL    HW1 1973   5.545  13.283   5.349  1.6944 -1.1754  0.9463
29998SOL    HW2 1974   5.613  13.211   5.234 -0.1078 -0.5587 -0.5465
29999SOL     OW 1975  11.103   6.630   1.942 -0.4614 -0.1553 -0.1790
29999SOL    HW1 1976  11.117   6.543   1.905  0.0703  0.1920 -0.8081
29999SOL    HW2 1977  11.190   6.671   1.940 -0.5227  0.0788  0.9362
30000SOL     OW 1978   2.176   4.735   1.552 -0.0016  0.6889 -0.7885
30000SOL    HW1 1979   2.173   4.654   1.603 -2.0902  0.8157 -0.6058
30000SOL    HW2 1980   2.143   4.710   1.465  2.4574  0.7114 -1.8073
30001SOL     OW 1981   9.859   3.415   5.200  0.6367 -0.4211  0.5982
30001SOL    HW1 1982   9.916   3.362   5.145  0.6420 -0.2103  0.3994
30001SOL    HW2 1983   9.793   3.449   5.139  0.0072 -1.0646  0.9073
30002SOL     OW 1984   9.750   6.809   8.585 -0.1152 -0.4017 -0.6216
30002SOL    HW1 1985   9.810   6.734   8.581 -0.0101 -0.3691  0.1192
30002SOL    HW2 1986   9.726   6.826   8.494 -0.7266 -1.8078 -0.7455
30003SOL     OW 1987   6.464  14.017   0.952  0.0184 -0.2876  0.4288
30003SOL    HW1 1988   6.426  14.027   1.039  0.2915  1.8073  0.3528
30003SOL    HW2 1989   6.389  14.002   0.894 -0.5419  1.5240  0.6088
30004SOL     OW 1990   9.908   1.772   8.542 -0.3101  0.0477 -0.7948
30004SOL    HW1 1991   9.907   1.780   8.637  0.2182  1.9061 -0.9105
30004SOL    HW2 1992   9.850   1.698   8.524 -0.2869 -0.4546  0.9625
30005SOL     OW 1993  12.910   1.251  11.604  0.4365  0.2625  0.6622
30005SOL    HW1 1994  12.913   1.306  11.526 -1.5977  1.0228  1.0690
30005SOL    HW2 1995  12.933   1.309  11.676 -0.3331  0.2459  0.9293
30006SOL     OW 1996   8.310  13.808   8.088  0.0718  0.1334  0.6635
30006SOL    HW1 1997   8.282  13.783   8.000 -0.3081  0.2037  0.7615
30006SOL    HW2 1998   8.405  13.814   8.082  0.1345 -0.8205  0.5034
30007SOL     OW 1999   9.059  12.417  10.842 -0.2628  0.4115 -0.0676
30007SOL    HW1 2000   9.082  12.417  10.935  1.1559  1.5041 -0.3856
30007SOL    HW2 2001   9.070  12.508  10.815 -0.1014 -0.0038 -1.4338
30008SOL     OW 2002   8.561   7.368   2.276  0.3910 -0.1862  0.5592
30008SOL    HW1 2003   8.608   7.410   2.349 -1.0085  0.7154  0.9761
30008SOL    HW2 2004   8.512   7.439   2.235 -2.9119 -1.4462  1.9353
30009SOL     OW 2005  10.940  10.399  11.455  0.5338  0.0732 -0.4334
30009SOL    HW1 2006  11.011  10.452  11.491 -1.0638  1.5029  0.7259
30009SOL    HW2 2007  10.866  10.415  11.513 -0.5609 -1.9696 -1.1710
30010SOL     OW 2008  10.030   2.161   6.291  0.1479  0.3158 -0.5485
30010SOL    HW1 2009   9.997   2.095   6.352  1.3536  0.3981  0.2248
30010SOL    HW2 2010  10.108   2.196   6.333  0.6070  0.8936 -1.8214
30011SOL     OW 2011   9.283   3.961   3.935 -0.0012  0.4640 -0.3221
30011SOL    HW1 2012   9.341   3.905   3.986 -1.1217 -0.0475  0.4201
30011SOL    HW2 2013   9.304   3.941   3.843  0.2795 -0.4501 -0.0623
30012SOL     OW 2014   7.490   3.228  11.983  0.6445 -0.1219 -0.1640
30012SOL    HW1 2015   7.395   3.232  11.978  0.5109 -2.2532 -0.1397
30012SOL    HW2 2016   7.519   3.318  11.968 -1.4003  0.7835  1.0009
30013SOL     OW 2017  11.497  12.725   6.709  0.2279  0.0532 -0.6317
30013SOL    HW1 2018  11.487  12.778   6.788 -2.4926 -2.3682  0.8410
30013SOL    HW2 2019  11.446  12.772   6.643  0.1429  0.6695 -0.1429
30014SOL     OW 2020  10.340   4.131  10.284 -0.1309 -0.6231  0.3946
30014SOL    HW1 2021  10.330   4.079  10.364  0.8304 -0.2833  0.7465
30014SOL    HW2 2022  10.417   4.093  10.241 -0.2155 -0.3402 -0.0081
30015SOL     OW 2023   2.191   6.438   1.477 -0.3143  0.1642  0.2763
30015SOL    HW1 2024   2.109   6.391   1.460 -0.7938  0.6498  1.1251
30015SOL    HW2 2025   2.177   6.525   1.440 -1.0004  0.9141  2.1691
30016SOL     OW 2026  10.535   5.601   1.247  0.2974 -0.4773 -0.2794
30016SOL    HW1 2027  10.462   5.654   1.278 -0.4467 -1.9788  0.6860
30016SOL    HW2 2028  10.504   5.563   1.165 -0.4055 -1.7966  0.5537
30017SOL     OW 2029   1.058   2.732   7.118  0.0540 -0.3341  0.1582
30017SOL    HW1 2030   0.983   2.722   7.058 -0.3625 -1.3066  0.8053
30017SOL    HW2 2031   1.130   2.687   7.073 -0.0448 -0.3690  0.0317
30018SOL     OW 2032  13.826  10.508  13.383  0.1061  0.4310  0.0914
30018SOL    HW1 2033  13.821  10.513  13.479 -1.5406  0.2979  0.0498
30018SOL    HW2 2034  13.768  10.435  13.360  1.0535 -0.0175 -0.9820
30019SOL     OW 2035   5.781   2.417   8.263 -0.1842 -0.0272 -0.0699
30019SOL    HW1 2036   5.732   2.498   8.252 -0.4495 -0.0368  0.9358
30019SOL    HW2 2037   5.852   2.423   8.199 -1.7737 -0.2760 -1.9519
30020SOL     OW 2038   1.459  11.552   9.944 -0.2329  0.3703  0.0341
30020SOL    HW1 2039   1.380  11.506   9.915 -1.9060  3.2773 -0.5136
30020SOL    HW2 2040   1.524  11.532   9.877  0.2320 -3.5554  1.4258
30021SOL     OW 2041  10.654  13.563   2.595 -0.5315 -0.2850 -0.3637
30021SOL    HW1 2042  10.637  13.469   2.591 -1.9644 -0.1132  0.7551
30021SOL    HW2 2043  10.579  13.603   2.550 -1.7600  0.3949  2.0737
30022SOL     OW 2044  12.813   4.256   1.426 -0.5033  0.1518  0.1082
30022SOL    HW1 2045  12.884   4.260   1.362  0.6748 -0.4645  1.3211
30022SOL    HW2 2046  12.802   4.163   1.444  0.5594  0.3691  2.2095
30023SOL     OW 2047   0.496   4.995   2.180 -0.4261  0.1566  0.5908
30023SOL    HW1 2048   0.534   5.059   2.119  1.3169 -0.5554  0.8923
30023SOL    HW2 2049   0.532   5.018   2.265 -0.2428 -0.8665  0.8010
30024SOL     OW 2050  14.024   4.567   1.690 -0.3394  0.4793  0.3156
30024SOL    HW1 2051  14.062   4.479   1.687  0.6061  0.8855  0.1750
30024SOL    HW2 2052  13.957   4.562   1.759 -1.2344 -0.7031 -0.5876
30025SOL     OW 2053  13.043   4.102  10.971 -0.3050  0.7533  0.3011
30025SOL    HW1 2054  13.040   4.179  11.027  1.0670  1.4130 -0.4785
30025SOL    HW2 2055  12.999   4.033  11.021  3.1775  0.5134  3.4123
30026SOL     OW 2056   0.694  10.061   5.851  0.0105  0.1503 -0.5546
30026SOL    HW1 2057   0.751  10.089   5.779  0.5442 -0.5530 -0.4043
30026SOL    HW2 2058   0.753  10.044   5.924 -0.4507 -0.0023 -0.2124
30027SOL     OW 2059   1.358   6.257  11.755  0.6120 -0.4482  0.2470
30027SOL    HW1 2060   1.268   6.273  11.729  1.1346  0.5609 -1.0209
30027SOL    HW2 2061   1.357   6.262  11.851 -0.8285 -1.4143  0.3067
30028SOL     OW 2062   1.175   0.784   6.065 -0.1264  0.0889 -0.7814
30028SOL    HW1 2063   1.085   0.752   6.058 -0.5643  1.1714 -0.3094
30028SOL    HW2 2064   1.204   0.757   6.152 -0.2616  0.3827 -0.6435
30029SOL     OW 2065  11.985  11.933   3.109  0.7168  0.3793  0.3628
30029SOL    HW1 2066  12.069  11.919   3.153  1.5314  1.0596 -0.9004
30029SOL    HW2 2067  11.920  11.918   3.177  1.8969  0.8377  1.6617
30030SOL     OW 2068   4.598   6.797   8.689  0.4125 -0.0801 -0.0369
30030SOL    HW1 2069   4.665   6.729   8.690  0.1204 -0.4002  2.1005
30030SOL    HW2 2070   4.573   6.808   8.780 -1.3826  1.1011 -0.6055
30031SOL     OW 2071  13.558   0.686   3.501 -0.0107 -0.2067 -0.0388
30031SOL    HW1 2072  13.538   0.605   3.455 -0.5855 -0.4528  0.6304
30031SOL    HW2 2073  13.533   0.669   3.592 -2.4580  1.5171 -0.2990
30032SOL     OW 2074  11.473   6.364   6.347 -0.1283  0.0550 -0.0363
30032SOL    HW1 2075  11.378   6.359   6.359 -0.1463 -1.3622 -0.4874
30032SOL    HW2 2076  11.503   6.274   6.363  1.1199  0.4434 -0.0837
30033SOL     OW 2077   7.854  11.508   9.796  0.6333  0.1227 -0.0080
30033SOL    HW1 2078   7.825  11.486   9.708  1.1896  0.5923 -0.3087
30033SOL    HW2 2079   7.850  11.603   9.801  3.2770  0.3328 -0.4932
30034SOL     OW 2080   9.232   8.909  10.972  0.2263 -0.4040  0.1411
30034SOL    HW1 2081   9.293   8.839  10.949 -0.2886 -1.1505  1.0277
30034SOL    HW2 2082   9.165   8.906  10.903  0.0204 -1.0136  0.3643
30035SOL     OW 2083  13.384   5.687   2.961  0.3728 -0.1222  0.1740
30035SOL    HW1 2084  13.357   5.750   3.029 -2.0808  1.4041 -2.0127
30035SOL    HW2 2085  13.473   5.661   2.986 -0.7068 -0.4384  4.4538
30036SOL     OW 2086  10.072   8.406  12.737 -0.1935 -0.2285 -0.2843
30036SOL    HW1 2087  10.091   8.484  12.687  0.7586 -0.4273 -0.2560
30036SOL    HW2 2088  10.010   8.435  12.804 -1.0451  0.1545 -1.2083
30037SOL     OW 2089   7.480  12.740   9.724  0.3451 -0.0585 -0.4870
30037SOL    HW1 2090   7.516  12.668   9.775  0.0005  0.6804  0.8377
30037SOL    HW2 2091   7.556  12.793   9.700  0.4495 -0.1087 -0.2655
30038SOL     OW 2092   6.092   9.586   6.614  0.4433 -0.3243 -0.0855
30038SOL    HW1 2093   6.036   9.516   6.648  0.9825 -1.9052 -2.1863
30038SOL    HW2 2094   6.178   9.544   6.604  2.0468  1.9579  2.8166
30039SOL     OW 2095  11.605   9.642  10.914  0.9151  0.4269  0.0164
30039SOL    HW1 2096  11.570   9.584  10.846  1.8028  0.0682 -0.1476
30039SOL    HW2 2097  11.609   9.728  10.872  0.9313  0.3228 -0.1996
30040SOL     OW 2098   2.141  13.248  10.317 -0.1102  0.3673  0.5302
30040SOL    HW1 2099   2.078  13.313  10.348 -0.1487  0.4215  0.3368
30040SOL    HW2 2100   2.166  13.278  10.230 -0.9631 -0.4499 -0.0200
30041SOL     OW 2101   3.609   5.413   4.842 -0.2746 -0.0295 -0.5619
30041SOL    HW1 2102   3.683   5.448   4.891 -0.5622 -0.2782  0.0645
30041SOL    HW2 2103   3.638   5.327   4.814  0.5088  0.7567 -2.2787
30042SOL     OW 2104   5.311   0.415   4.146  0.5215  0.5075 -0.7301
30042SOL    HW1 2105   5.216   0.414   4.133  0.5336  3.3845 -1.8195
30042SOL    HW2 2106   5.345   0.355   4.079 -0.4987 -1.6968  0.6026
30043SOL     OW 2107   0.784   3.223   6.313  0.5585  0.7604 -0.2442
30043SOL    HW1 2108   0.757   3.313   6.292 -0.4456  1.1255  2.2748
30043SOL    HW2 2109   0.795   3.223   6.408 -0.4272 -2.0292 -0.0566
30044SOL     OW 2110  12.983   4.605   7.685 -0.0487 -0.1629  0.1915
30044SOL    HW1 2111  12.938   4.643   7.609 -0.2973 -1.2611 -0.2292
30044SOL    HW2 2112  12.922   4.539   7.718 -0.7637  1.5517  2.5104
30045SOL     OW 2113   0.094   7.873   8.019 -0.1895  0.2249 -0.0233
30045SOL    HW1 2114   0.004   7.856   8.049  0.0985  0.1060  0.7733
30045SOL    HW2 2115   0.147   7.808   8.064  0.0122 -1.3493 -2.3347
30046SOL     OW 2116   3.234  12.420   4.786  0.2810 -0.2400 -0.6599
30046SOL    HW1 2117   3.219  12.373   4.704 -0.8598 -0.1072 -0.5464
30046SOL    HW2 2118   3.297  12.488   4.764 -0.7315  0.3997 -1.6601
30047SOL     OW 2119  12.086   1.589   4.832 -0.4951  0.2712  0.0440
30047SOL    HW1 2120  12.129   1.652   4.890  1.0749  1.0370 -1.8329
30047SOL    HW2 2121  12.039   1.643   4.768 -1.0032 -0.5146 -0.2590
30048SOL     OW 2122   3.699   0.558   1.345 -0.5193 -0.6408  0.2078
30048SOL    HW1 2123   3.645   0.613   1.287 -0.0639 -0.0131  0.3626
30048SOL    HW2 2124   3.755   0.621   1.390  0.9957 -1.3502 -0.6356
30049SOL     OW 2125  11.796   4.346   4.617  0.0294  0.6952  0.0819
30049SOL    HW1 2126  11.705   4.319   4.628  0.1509 -0.3323 -1.1800
30049SOL    HW2 2127  11.790   4.436   4.587 -0.4479  1.5763  2.5700
30050SOL     OW 2128   4.520  12.081   1.801  0.0892  0.1247 -0.4839
30050SOL    HW1 2129   4.596  12.108   1.854  0.9016  0.5296 -1.7969
30050SOL    HW2 2130   4.448  12.133   1.835  0.8256  1.1761 -0.4808
30051SOL     OW 2131   7.171   1.088   3.056  0.2866  0.7658  0.2280
30051SOL    HW1 2132   7.100   1.127   3.108 -0.2044  0.2472 -0.0415
30051SOL    HW2 2133   7.193   1.007   3.102 -0.1877  0.2760 -0.3763
30052SOL     OW 2134   3.415   4.539   6.145 -0.5046  0.4333  0.4322
30052SOL    HW1 2135   3.435   4.578   6.229  0.6484 -1.5371  1.1546
30052SOL    HW2 2136   3.370   4.457   6.167  0.7807 -0.6552 -0.7645
30053SOL     OW 2137   6.693  10.275   0.455  0.4187  0.6875  0.0967
30053SOL    HW1 2138   6.667  10.203   0.397  1.9623 -0.4955  0.8280
30053SOL    HW2 2139   6.758  10.324   0.405  0.1763  0.9498  0.0304
30054SOL     OW 2140   5.674   9.403  13.849  0.5696  0.0455  0.3490
30054SOL    HW1 2141   5.590   9.363  13.872  0.5217 -0.3146 -0.4374
30054SOL    HW2 2142   5.665   9.428  13.757  0.5898  1.9104  0.8209
30055SOL     OW 2143  13.395   1.326   9.013 -0.1205  0.0398  0.4472
30055SOL    HW1 2144  13.471   1.329   8.956 -0.3423 -0.5408  0.1185
30055SOL    HW2 2145  13.360   1.415   9.011  1.4076  0.7335  1.7920
30056SOL     OW 2146   2.530   1.758   4.917 -0.1099 -0.0001 -0.1354
30056SOL    HW1 2147   2.508   1.741   5.009 -3.1455  0.4353 -0.6640
30056SOL    HW2 2148   2.548   1.852   4.914  1.3551 -0.2375  0.1770
30057SOL     OW 2149   8.832   0.070   6.205 -0.2619  0.8215 -0.0188
30057SOL    HW1 2150   8.814   0.042   6.294  0.4966 -1.0398 -0.4075
30057SOL    HW2 2151   8.924   0.096   6.205  0.1822 -0.6774 -0.5784
30058SOL     OW 2152   1.406   2.966  13.901  0.3502  0.6315  0.1010
30058SOL    HW1 2153   1.391   3.008  13.817  2.5373  2.0379  0.3169
30058SOL    HW2 2154   1.340   3.004  13.959 -1.4731 -0.6938 -1.0130
30059SOL     OW 2155   4.908   8.774  13.156 -0.6292 -0.0886  0.0614
30059SOL    HW1 2156   4.818   8.742  13.167 -0.4838 -0.3221  0.6122
30059SOL    HW2 2157   4.952   8.748  13.237  0.2435 -0.9797 -0.6875
30060SOL     OW 2158   2.527  11.949   0.156 -0.4575 -0.2884 -0.6034
30060SOL    HW1 2159   2.474  11.958   0.235 -4.2123 -0.4240 -2.8724
30060SOL    HW2 2160   2.496  11.868   0.116  1.7229 -0.5086 -2.0403
30061SOL     OW 2161  10.966   7.832   1.020  0.7505 -0.0771  0.0949
30061SOL    HW1 2162  10.899   7.820   1.087  0.4601  0.5103 -0.0826
30061SOL    HW2 2163  10.947   7.918   0.983  0.1479 -0.8761 -1.5755
30062SOL     OW 2164   0.710   1.710   8.005 -0.3018  0.2323  0.7834
30062SOL    HW1 2165   0.745   1.714   7.917 -1.0615  0.1783  0.4662
30062SOL    HW2 2166   0.782   1.737   8.062  0.6813 -1.2166  0.2841
30063SOL     OW 2167   5.598  10.814   6.524 -0.0928  0.5063 -0.0556
30063SOL    HW1 2168   5.683  10.857   6.533  0.3553 -0.1821 -0.8644
30063SOL    HW2 2169   5.618  10.721   6.521 -0.4143  0.3840 -3.8810
30064SOL     OW 2170  11.172   1.569   9.714 -0.1260  0.2569 -0.4177
30064SOL    HW1 2171  11.219   1.486   9.720  0.9575  0.8268 -0.6234
30064SOL    HW2 2172  11.088   1.553   9.757  0.6086 -0.5551  0.7844
30065SOL     OW 2173   9.484   9.443   2.836 -0.3470 -0.3570  0.7421
30065SOL    HW1 2174   9.464   9.484   2.920  2.1868 -0.8956  1.7067
30065SOL    HW2 2175   9.549   9.501   2.796 -2.1777  0.3766 -1.3330
30066SOL     OW 2176  11.811   2.734   7.106  0.0634 -0.3606  0.1160
30066SOL    HW1 2177  11.803   2.639   7.105  1.6029 -0.5274  1.1446
30066SOL    HW2 2178  11.882   2.752   7.168  0.3577  1.4114 -0.6730
30067SOL     OW 2179  12.566  12.434  10.477  0.4040 -0.0246  0.0796
30067SOL    HW1 2180  12.553  12.512  10.531  1.4726  0.5570 -0.4609
30067SOL    HW2 2181  12.487  12.428  10.423  0.5110  0.9838 -0.2147
30068SOL     OW 2182  13.353   0.690   8.838 -0.0013  0.0446  0.1038
30068SOL    HW1 2183  13.306   0.701   8.921 -0.3622 -1.6170  0.1439
30068SOL    HW2 2184  13.409   0.768   8.832 -0.5411  0.5727  1.5175
30069SOL     OW 2185  13.367   5.940   8.248 -0.1269  0.3665  0.5378
30069SOL    HW1 2186  13.418   6.021   8.255  0.7011 -0.2432  2.1566
30069SOL    HW2 2187  13.388   5.891   8.328 -2.9863 -0.0975  1.1162
30070SOL     OW 2188   7.537  12.617   0.147  0.1320  0.0183  0.2412
30070SOL    HW1 2189   7.485  12.561   0.205  0.1478 -1.3568 -0.9968
30070SOL    HW2 2190   7.628  12.594   0.167  0.1258 -1.0736 -0.8367
30071SOL     OW 2191   1.282  12.482  10.933  0.0527  0.2927 -0.0994
30071SOL    HW1 2192   1.315  12.451  10.848  1.8615 -0.2335  0.7317
30071SOL    HW2 2193   1.332  12.562  10.951  0.9980 -0.5413  1.2166
30072SOL     OW 2194   2.219   1.286  12.803 -0.1210  0.4669  0.0982
30072SOL    HW1 2195   2.286   1.217  12.806 -0.5081  0.0927  0.2482
30072SOL    HW2 2196   2.269   1.367  12.795  0.3954  0.2553  1.0260
30073SOL     OW 2197  11.074   0.261   6.169 -0.4073  0.0568 -0.1892
30073SOL    HW1 2198  10.985   0.274   6.135  0.0662  1.3829 -0.9978
30073SOL    HW2 2199  11.062   0.251   6.263 -1.4537 -0.1823 -0.3310
30074SOL     OW 2200  13.786  13.007   6.618  0.5056 -0.0029  0.2896
30074SOL    HW1 2201  13.752  13.093   6.644  0.4262  0.2386 -0.5913
30074SOL    HW2 2202  13.710  12.960   6.584  0.7163 -0.0904 -0.0692
30075SOL     OW 2203   4.600   1.165   4.065 -0.5786  0.1330  0.4918
30075SOL    HW1 2204   4.508   1.141   4.073 -0.8224  1.2618  1.2243
30075SOL    HW2 2205   4.621   1.149   3.973 -1.7109  0.5632  0.1491
30076SOL     OW 2206  10.800  11.615  13.055  0.1180 -0.0923  0.4062
30076SOL    HW1 2207  10.797  11.648  13.144  0.0121 -0.8619  0.6978
30076SOL    HW2 2208  10.872  11.663  13.014 -1.0124  1.6140  0.3316
30077SOL     OW 2209   1.769  13.465   3.417 -0.0257 -0.1034 -0.2564
30077SOL    HW1 2210   1.800  13.540   3.469 -0.5836  0.1591 -0.2982
30077SOL    HW2 2211   1.836  13.454   3.349  0.0471  0.3696 -0.2653
30078SOL     OW 2212   5.271  12.133   5.847 -0.1389 -0.0515 -0.3348
30078SOL    HW1 2213   5.230  12.170   5.925 -0.1552  0.6204 -0.6463
30078SOL    HW2 2214   5.202  12.140   5.780  0.1073  0.0293 -0.5796
30079SOL     OW 2215   2.672   7.449  11.696  0.2115  0.3118 -0.6909
30079SOL    HW1 2216   2.633   7.361  11.698  0.8476  0.0079 -1.1993
30079SOL    HW2 2217   2.610   7.501  11.644  0.3026 -0.0824 -1.2025
30080SOL     OW 2218   5.555   5.606  10.132 -0.0855 -0.0238  0.0142
30080SOL    HW1 2219   5.543   5.597  10.038  1.3108 -0.1686 -0.1744
30080SOL    HW2 2220   5.493   5.674  10.158 -0.2082  0.2987 -1.0786
30081SOL     OW 2221   2.430   4.796  13.040 -0.1373  0.0646  0.3925
30081SOL    HW1 2222   2.394   4.857  12.975 -1.3748  0.2756  1.2447
30081SOL    HW2 2223   2.483   4.851  13.098  1.1869 -0.1632 -0.5452
30082SOL     OW 2224   4.112  11.563  10.596 -0.4708  0.3475 -0.3408
30082SOL    HW1 2225   4.187  11.504  10.602 -1.4395 -0.8406  1.2410
30082SOL    HW2 2226   4.135  11.638  10.651  0.6173  1.3373 -2.0657
30083SOL     OW 2227   0.047   4.708  11.998 -0.0918  0.2563 -0.0771
30083SOL    HW1 2228   0.056   4.803  12.006  0.8329  0.3974 -2.1364
30083SOL    HW2 2229   0.123   4.673  12.044  0.1906  0.5771 -0.2932
30084SOL     OW 2230   1.509   0.340   9.550  0.2902  0.0854  0.1115
30084SOL    HW1 2231   1.419   0.350   9.580 -0.7037 -0.7724 -2.3322
30084SOL    HW2 2232   1.534   0.253   9.579  0.5182  0.4649  1.1197
30085SOL     OW 2233   7.360   0.110   9.928 -0.5337 -0.0995  0.0289
30085SOL    HW1 2234   7.405   0.154   9.856 -0.5375 -0.3395 -0.1186
30085SOL    HW2 2235   7.353   0.178   9.995  0.7289 -0.2672  0.3616
30086SOL     OW 2236   6.110  12.348  11.139 -0.2823 -0.5824 -0.0769
30086SOL    HW1 2237   6.185  12.398  11.106 -0.2018 -1.2233 -0.9083
30086SOL    HW2 2238   6.062  12.410  11.194  0.1750  0.2090 -0.5482
30087SOL     OW 2239   5.631   0.397   5.957  0.6284 -0.1789  0.1574
30087SOL    HW1 2240   5.572   0.448   5.901  0.0969 -0.7006  0.2295
30087SOL    HW2 2241   5.587   0.312   5.966  0.0732  0.2938  2.4098
30088SOL     OW 2242  11.933   7.294   8.271 -0.2231 -0.3719 -0.0449
30088SOL    HW1 2243  11.949   7.359   8.202  1.3435  0.3673  0.9752
30088SOL    HW2 2244  11.860   7.331   8.322  1.9121  1.7098  1.7427
30089SOL     OW 2245  11.442   1.177   1.388 -0.1749 -0.6458  0.2929
30089SOL    HW1 2246  11.401   1.262   1.401  0.2546 -0.1679 -1.2475
30089SOL    HW2 2247  11.412   1.149   1.301  1.6944 -0.8822 -0.3115
30090SOL     OW 2248   0.795   9.202   9.833  0.2420  0.3798  0.2156
30090SOL    HW1 2249   0.775   9.287   9.871 -1.1479  0.9549 -1.6297
30090SOL    HW2 2250   0.726   9.189   9.768  0.0482 -2.4487  0.8512
30091SOL     OW 2251   7.621  10.711   7.019 -0.3044 -0.6898 -0.1217
30091SOL    HW1 2252   7.684  10.783   7.011 -0.9648  0.2564  2.3481
30091SOL    HW2 2253   7.536  10.754   7.009 -0.7075 -1.0847  1.4386
30092SOL     OW 2254  10.122   8.435   6.463  0.0467 -0.0861  0.0745
30092SOL    HW1 2255  10.144   8.477   6.380  0.1757  0.2053  0.2542
30092SOL    HW2 2256  10.037   8.473   6.487  1.0467  1.5876  1.2162
30093SOL     OW 2257   2.288   0.849  11.142  0.3603  0.2503  0.3068
30093SOL    HW1 2258   2.257   0.821  11.229  0.7493 -0.5588  0.1979
30093SOL    HW2 2259   2.297   0.944  11.150 -2.0762  0.5515  0.3520
30094SOL     OW 2260  12.021  11.135   3.874 -0.2002 -0.5585  0.3082
30094SOL    HW1 2261  11.928  11.113   3.879 -1.0861  2.5797  0.1146
30094SOL    HW2 2262  12.029  11.214   3.929  3.0441 -2.4358  2.8976
30095SOL     OW 2263   3.371   8.691  10.865  0.0003 -0.1763  0.0526
30095SOL    HW1 2264   3.323   8.771  10.886 -0.4254 -0.3821 -0.1283
30095SOL    HW2 2265   3.447   8.693  10.924 -0.8014 -0.3979  1.1392
30096SOL     OW 2266   3.901   7.348   4.571 -0.2435 -0.2355 -0.0426
30096SOL    HW1 2267   3.936   7.375   4.486 -1.3717  1.0416 -0.1253
30096SOL    HW2 2268   3.879   7.430   4.615 -1.8281 -0.9521  0.5634
30097SOL     OW 2269  10.984  12.974   9.104  0.6280  0.0794  0.4026
30097SOL    HW1 2270  10.957  13.000   9.016 -0.2214 -1.8237  0.0325
30097SOL    HW2 2271  11.068  12.929   9.091  0.5221 -0.1664  0.5539
30098SOL     OW 2272   8.514   5.643  10.132 -0.1116  0.1925  0.6681
30098SOL    HW1 2273   8.509   5.654  10.037  0.3876  0.4069  0.6648
30098SOL    HW2 2274   8.516   5.732  10.167 -0.9221  0.1155  0.9198
30099SOL     OW 2275   8.286   4.550   4.865  0.0269  0.3472  0.0724
30099SOL    HW1 2276   8.213   4.575   4.921  0.9224  0.9193  1.0240
30099SOL    HW2 2277   8.254   4.566   4.776 -1.1261  0.2348  0.4470
30100SOL     OW 2278   8.052   0.944   8.591  0.0346  0.6381 -0.5986
30100SOL    HW1 2279   7.970   0.979   8.555 -1.7297  0.4815  2.8246
30100SOL    HW2 2280   8.100   1.022   8.621 -0.5772  0.5681  0.6126
30101SOL     OW 2281   6.384   3.907   5.062 -0.9761 -0.3983  0.4182
30101SOL    HW1 2282   6.392   3.991   5.108  2.5737  0.2475 -1.0345
30101SOL    HW2 2283   6.438   3.847   5.113 -1.4602 -1.1418  0.0685
30102SOL     OW 2284  13.790   7.074   4.798 -0.3782  0.1283  0.5869
30102SOL    HW1 2285  13.759   7.161   4.774  1.3752  1.0249  1.4241
30102SOL    HW2 2286  13.870   7.061   4.747 -0.4003 -0.8399  0.7701
30103SOL     OW 2287  11.169   0.744   8.346 -0.2431 -0.5052 -0.1118
30103SOL    HW1 2288  11.246   0.756   8.292 -0.4448 -0.3360 -0.3649
30103SOL    HW2 2289  11.125   0.668   8.308 -0.1248 -0.6916  0.1225
30104SOL     OW 2290   1.982   2.701   0.588  0.3304 -0.0488  0.9454
30104SOL    HW1 2291   2.056   2.661   0.544 -0.3767  0.4778 -0.8144
30104SOL    HW2 2292   1.967   2.647   0.665  0.4801 -2.1315 -0.4233
30105SOL     OW 2293   5.804   7.692  12.555  0.1074  0.1739  0.1317
30105SOL    HW1 2294   5.811   7.596  12.554 -2.0413 -0.0814 -2.3925
30105SOL    HW2 2295   5.890   7.722  12.582  0.9419 -2.4599  0.6964
30106SOL     OW 2296   1.291   0.860   0.513 -0.2428 -0.2700 -0.1545
30106SOL    HW1 2297   1.345   0.837   0.437 -0.1932  3.2064 -1.3830
30106SOL    HW2 2298   1.283   0.956   0.508 -1.8245 -0.0771  3.2073
30107SOL     OW 2299   5.388   3.538   9.781 -0.0456  0.4418 -0.7999
30107SOL    HW1 2300   5.380   3.485   9.702 -1.7769 -1.4682  0.5244
30107SOL    HW2 2301   5.309   3.517   9.832  0.9057  1.7145  1.3667
30108SOL     OW 2302  10.677   9.419   6.962 -0.2058  0.2130 -0.2956
30108SOL    HW1 2303  10.703   9.510   6.949 -1.3967  0.7083  0.5929
30108SOL    HW2 2304  10.746   9.383   7.018  0.3546  0.5058 -0.7783
30109SOL     OW 2305   9.386  13.350   5.741 -0.1114 -0.3731  0.3060
30109SOL    HW1 2306   9.376  13.256   5.729 -1.8585 -0.2183  0.3111
30109SOL    HW2 2307   9.338  13.389   5.667 -0.4838  0.5066  0.9931
30110SOL     OW 2308  13.571   7.324   1.025  0.3884  0.2193 -0.4080
30110SOL    HW1 2309  13.604   7.375   1.100  0.9318  2.3986 -2.0276
30110SOL    HW2 2310  13.564   7.388   0.954  0.1671 -1.8260 -2.3283
30111SOL     OW 2311   8.027   6.597  12.083  0.0149  0.2962  0.1452
30111SOL    HW1 2312   8.097   6.542  12.118  1.3474 -0.7732 -3.6954
30111SOL    HW2 2313   8.068   6.682  12.070  0.9316 -0.4903 -2.6623
30112SOL     OW 2314   9.609  12.805   6.236  0.3088 -0.2817 -0.2468
30112SOL    HW1 2315   9.580  12.807   6.327 -1.5707 -0.1579 -0.8183
30112SOL    HW2 2316   9.602  12.896   6.207  1.8687 -0.1412 -0.2570
30113SOL     OW 2317  10.382   8.715   9.938 -0.1283  0.1892  0.0944
30113SOL    HW1 2318  10.434   8.635   9.928 -0.8163 -0.3555  0.7553
30113SOL    HW2 2319  10.307   8.702   9.880  0.1176  0.6756 -0.3424
30114SOL     OW 2320   3.230   3.283  11.087  0.3107  0.9090 -0.3132
30114SOL    HW1 2321   3.323   3.263  11.082  0.1945 -0.6750  2.1162
30114SOL    HW2 2322   3.219   3.327  11.172 -1.3423 -0.2880  0.1440
30115SOL     OW 2323   1.794  10.934   0.712 -0.2066  0.6868  0.1511
30115SOL    HW1 2324   1.787  10.884   0.794 -0.5807  1.4808  0.6250
30115SOL    HW2 2325   1.729  10.894   0.654 -0.5954  0.7019  0.5684
30116SOL     OW 2326   7.813   7.278   6.472 -0.2754  0.3138  0.1530
30116SOL    HW1 2327   7.788   7.207   6.530  0.2973  0.9284  1.1826
30116SOL    HW2 2328   7.734   7.297   6.422 -1.0244  0.2902  1.2869
30117SOL     OW 2329  10.013   5.431  12.681  0.3106  0.1206  0.0236
30117SOL    HW1 2330  10.003   5.337  12.664 -0.3206  0.0823  0.6056
30117SOL    HW2 2331   9.940   5.454  12.737  1.4701  0.5839  1.4030
30118SOL     OW 2332  12.768   7.420   0.869  1.0632 -0.1810 -0.2801
30118SOL    HW1 2333  12.706   7.366   0.820 -0.5955 -0.3312  1.8481
30118SOL    HW2 2334  12.763   7.388   0.959  0.3891  3.0900  0.9986
30119SOL     OW 2335   4.736   8.030  10.245 -0.0987  0.2339  0.5357
30119SOL    HW1 2336   4.646   8.055  10.266  0.0713 -1.1018  3.2542
30119SOL    HW2 2337   4.789   8.076  10.309  1.0913  0.1887 -0.3802
30120SOL     OW 2338   5.332   9.700   0.993  0.1198 -0.8878  0.6697
30120SOL    HW1 2339   5.267   9.690   0.924  0.7602 -0.5032  0.0046
30120SOL    HW2 2340   5.387   9.622   0.986 -1.0395 -1.8869  2.0924
30121SOL     OW 2341  12.902  13.365   9.366  1.0689  0.2112 -0.1890
30121SOL    HW1 2342  12.896  13.328   9.278 -2.7514 -0.9115  0.3581
30121SOL    HW2 2343  12.863  13.451   9.359 -1.2461 -0.6876  0.6707
30122SOL     OW 2344  11.713   5.299  10.196 -0.0450  0.2235  0.0952
30122SOL    HW1 2345  11.669   5.341  10.271  1.4461  1.2162  0.4630
30122SOL    HW2 2346  11.653   5.314  10.123 -1.9839 -1.5571  1.1892
30123SOL     OW 2347   6.551   7.198   0.465 -0.4857  0.0594 -0.5024
30123SOL    HW1 2348   6.634   7.214   0.420 -0.5362  1.2431 -0.2121
30123SOL    HW2 2349   6.484   7.226   0.403 -0.5347  2.3873  0.5015
30124SOL     OW 2350   1.591   3.350   5.856 -0.2417  0.1408 -0.7122
30124SOL    HW1 2351   1.653   3.282   5.881  0.2351  0.8071 -0.0474
30124SOL    HW2 2352   1.507   3.304   5.847 -0.0182 -0.4589  0.1728
30125SOL     OW 2353   9.466   9.284  12.482  0.6165 -0.3167 -0.1211
30125SOL    HW1 2354   9.486   9.306  12.391 -0.7043  2.4976  0.1854
30125SOL    HW2 2355   9.374   9.257  12.481  0.9377 -1.4896  0.2293
30126SOL     OW 2356   3.325   8.544   6.314 -0.0870  0.1521  0.2705
30126SOL    HW1 2357   3.320   8.604   6.239 -0.0874  0.3996  0.4675
30126SOL    HW2 2358   3.235   8.532   6.342 -0.3077 -1.4501 -0.9456
30127SOL     OW 2359  12.046  13.359   7.381 -0.2931  0.2458  0.0750
30127SOL    HW1 2360  12.005  13.325   7.460  1.8812 -1.4130  0.5891
30127SOL    HW2 2361  12.029  13.291   7.315  1.1250 -0.2282  0.1687
30128SOL     OW 2362   8.319   1.463   0.689  0.3514  0.1616 -0.0231
30128SOL    HW1 2363   8.281   1.422   0.611 -0.1074 -3.4165  1.8570
30128SOL    HW2 2364   8.413   1.463   0.673  0.3902 -1.9725 -0.0635
30129SOL     OW 2365  10.635  11.753   6.824 -0.0698 -0.2376 -0.2378
30129SOL    HW1 2366  10.653  11.750   6.730  0.9199 -0.7376 -0.0564
30129SOL    HW2 2367  10.699  11.692   6.862 -1.7045 -1.5351  0.5849
30130SOL     OW 2368   1.381   6.393  13.065  0.4606  0.2021 -0.1137
30130SOL    HW1 2369   1.297   6.348  13.049 -0.9742  2.0536  1.6847
30130SOL    HW2 2370   1.395   6.446  12.986  0.3090 -0.5992 -0.7003
30131SOL     OW 2371   1.087   6.793   6.391  0.2941 -0.6569  0.3437
30131SOL    HW1 2372   1.014   6.764   6.445 -0.6731 -0.1787 -0.6630
30131SOL    HW2 2373   1.106   6.719   6.334 -0.4968 -0.2320 -0.4961
30132SOL     OW 2374   1.885   9.147  11.845 -0.1548 -0.1726  0.0954
30132SOL    HW1 2375   1.971   9.110  11.827 -0.3893 -0.9784  0.5679
30132SOL    HW2 2376   1.902   9.227  11.894  0.4128  1.0209 -1.9556
30133SOL     OW 2377   8.831  12.544   6.815  0.1893  0.3598  0.3599
30133SOL    HW1 2378   8.745  12.571   6.782 -0.0415 -0.8644 -0.0911
30133SOL    HW2 2379   8.833  12.449   6.803  0.5452 -0.0275  2.8746
30134SOL     OW 2380   1.095   3.028  11.150 -0.5294  0.2856  0.1937
30134SOL    HW1 2381   1.145   2.969  11.206  0.4138 -0.5303 -1.4453
30134SOL    HW2 2382   1.097   2.987  11.064 -0.5352  2.2989 -0.8229
30135SOL     OW 2383   9.876  10.473   8.133 -0.7124 -0.5105  0.7677
30135SOL    HW1 2384   9.947  10.512   8.185  0.5327 -0.4514 -0.9138
30135SOL    HW2 2385   9.859  10.389   8.176 -0.6343  0.0948  2.0276
30136SOL     OW 2386   1.106   5.631   6.577  0.0953 -0.3295 -0.4914
30136SOL    HW1 2387   1.083   5.556   6.523  0.4616 -0.3935 -0.5586
30136SOL    HW2 2388   1.152   5.594   6.652  0.9393 -0.1209 -0.8885
30137SOL     OW 2389   5.461   4.956   8.714 -0.4312 -0.3862  0.3733
30137SOL    HW1 2390   5.468   4.874   8.763 -2.3175 -1.2129 -0.6348
30137SOL    HW2 2391   5.373   4.954   8.677  0.1418  1.2370 -1.2273
30138SOL     OW 2392  13.353   5.406   2.018 -0.2453  0.0901  0.3076
30138SOL    HW1 2393  13.356   5.356   2.100 -0.0172 -0.1151  0.1749
30138SOL    HW2 2394  13.336   5.341   1.950  1.6084 -0.0614 -0.0632
30139SOL     OW 2395   8.279  10.767  11.453  0.6240 -0.3065  0.0162
30139SOL    HW1 2396   8.331  10.781  11.532  0.2599  0.2752  0.1566
30139SOL    HW2 2397   8.264  10.672  11.450 -0.1983 -0.2379  1.1845
30140SOL     OW 2398   0.295   6.733   1.230  0.0005 -0.1824  0.9377
30140SOL    HW1 2399   0.218   6.767   1.275 -0.7314 -0.6635  0.0919
30140SOL    HW2 2400   0.259   6.687   1.154  1.1653  0.2076  0.1334
30141SOL     OW 2401  12.567  10.691   7.683 -0.3970 -0.8502 -0.3536
30141SOL    HW1 2402  12.646  10.744   7.695  0.9423 -2.8873  0.3613
30141SOL    HW2 2403  12.599  10.601   7.672 -2.6156 -1.7382 -0.1676
30142SOL     OW 2404   6.524   4.088   9.434 -0.1160  0.1322  0.2556
30142SOL    HW1 2405   6.569   4.007   9.459 -1.6720 -1.4768 -1.8171
30142SOL    HW2 2406   6.583   4.130   9.372  0.1734 -0.0193  0.4254
30143SOL     OW 2407   1.954   7.150   6.531 -0.3985  0.4655  0.0992
30143SOL    HW1 2408   1.995   7.113   6.609 -1.7073  0.6373  0.8945
30143SOL    HW2 2409   1.941   7.075   6.473  2.0743  0.5750 -0.6941
30144SOL     OW 2410   5.534   4.268   2.720  0.1726  0.1180  0.0546
30144SOL    HW1 2411   5.517   4.174   2.727  1.9998 -0.1865  0.8608
30144SOL    HW2 2412   5.625   4.274   2.690  0.4353  1.6085  1.0451
30145SOL     OW 2413   9.171  11.978   5.046 -0.5948 -0.0188 -0.0943
30145SOL    HW1 2414   9.154  11.939   5.132  0.4669  0.6424  0.4325
30145SOL    HW2 2415   9.114  12.055   5.044 -2.9326 -1.6332 -1.2606
30146SOL     OW 2416   2.478   5.614   1.157  0.1428 -0.2381  0.5083
30146SOL    HW1 2417   2.475   5.686   1.220 -0.9322 -0.5780  0.8656
30146SOL    HW2 2418   2.569   5.612   1.128 -0.1190  2.3978 -0.8574
30147SOL     OW 2419   0.908   8.407   5.114 -0.1615  0.2347 -0.1441
30147SOL    HW1 2420   0.927   8.410   5.021  0.5920  0.4672  0.0108
30147SOL    HW2 2421   0.973   8.465   5.154  0.3483 -0.8605  0.6562
30148SOL     OW 2422   3.072  10.904   4.589  0.0628 -0.5827 -0.0023
30148SOL    HW1 2423   3.009  10.900   4.660  1.9995 -4.1951  1.8066
30148SOL    HW2 2424   3.141  10.962   4.621 -0.9307  1.1286 -0.8151
30149SOL     OW 2425   2.508  12.758   6.055 -0.2862  0.2246  0.1375
30149SOL    HW1 2426   2.444  12.702   6.099  0.8300 -1.1853  0.0092
30149SOL    HW2 2427   2.484  12.755   5.963  1.1599 -2.0572 -0.2461
30150SOL     OW 2428  10.499   2.470   2.874 -0.2838 -0.1371 -0.1619
30150SOL    HW1 2429  10.498   2.564   2.857 -0.2031  0.0203  0.6414
30150SOL    HW2 2430  10.566   2.436   2.815  0.0627  0.3887 -0.0810
30151SOL     OW 2431   8.225   4.046   2.959 -1.0114 -0.3676  0.1478
30151SOL    HW1 2432   8.159   4.001   3.012 -0.5485 -2.2643 -0.8066
30151SOL    HW2 2433   8.271   3.975   2.913 -1.7915  1.1486 -3.2839
30152SOL     OW 2434  10.647   2.850  13.697 -0.1121 -0.0050  0.6478
30152SOL    HW1 2435  10.608   2.909  13.761 -0.2334 -0.1495  0.7070
30152SOL    HW2 2436  10.730   2.823  13.736 -0.4193 -0.4924  0.9669
30153SOL     OW 2437   6.004   3.246   3.157  0.5806  0.3561 -0.6102
30153SOL    HW1 2438   6.056   3.300   3.097  0.8532 -1.4722 -2.1202
30153SOL    HW2 2439   5.935   3.209   3.101 -1.6305  1.6795  1.0715
30154SOL     OW 2440  12.082   4.618   8.199  0.8423 -0.0281  0.3450
30154SOL    HW1 2441  12.050   4.618   8.289 -0.3254  0.9425 -0.0404
30154SOL    HW2 2442  12.169   4.577   8.204  0.5277 -0.5665  1.7954
30155SOL     OW 2443   2.199   8.603   0.995  0.0500  0.1212 -0.2187
30155SOL    HW1 2444   2.150   8.523   1.013  0.2229  0.0404 -0.1027
30155SOL    HW2 2445   2.255   8.581   0.921  1.3604 -0.4065  0.8943
30156SOL     OW 2446   0.934  11.709   3.623  0.3045  0.2865 -0.1155
30156SOL    HW1 2447   0.933  11.751   3.709  0.0077 -0.7991  0.4260
30156SOL    HW2 2448   1.012  11.744   3.580 -0.1427  1.6751  0.1602
30157SOL     OW 2449   1.655   7.780  12.605 -0.9692  0.4005  0.1121
30157SOL    HW1 2450   1.622   7.863  12.571  1.1361  0.8624 -0.9376
30157SOL    HW2 2451   1.739   7.767  12.561 -1.8161 -2.9593 -0.8023
30158SOL     OW 2452  11.238   6.333  12.282 -0.4113  0.0015 -0.5150
30158SOL    HW1 2453  11.275   6.264  12.227  2.9967  1.8239 -0.8502
30158SOL    HW2 2454  11.235   6.410  12.225  1.0255  1.3696  1.1062
30159SOL     OW 2455   5.603  10.495   0.985  0.5440 -0.3685  0.4689
30159SOL    HW1 2456   5.571  10.473   0.898 -0.6780  0.8580  0.5833
30159SOL    HW2 2457   5.637  10.584   0.976  2.9701 -1.2073  0.6241
30160SOL     OW 2458  12.420   8.804   5.363 -0.0418  0.2163  0.1526
30160SOL    HW1 2459  12.428   8.716   5.400  0.6889  0.0964 -0.2742
30160SOL    HW2 2460  12.432   8.863   5.438  1.2268 -0.0277  0.1632
30161SOL     OW 2461  11.580   9.345   3.604 -0.0577 -0.4305 -0.3449
30161SOL    HW1 2462  11.630   9.309   3.531  1.4208  1.4422 -0.3251
30161SOL    HW2 2463  11.638   9.337   3.679 -1.1880 -1.4330  0.4639
30162SOL     OW 2464  10.300   7.431   6.210  0.0674 -0.4784  0.0349
30162SOL    HW1 2465  10.328   7.458   6.298  0.9662 -0.6703 -0.1855
30162SOL    HW2 2466  10.311   7.336   6.210 -1.5286 -0.6951  0.2584
30163SOL     OW 2467   3.300   0.011   6.408 -0.2171 -0.1986  0.1512
30163SOL    HW1 2468   3.252   0.078   6.359  0.4659  0.3086  0.1689
30163SOL    HW2 2469   3.311   0.049   6.496 -1.2640 -1.0201  0.6561
30164SOL     OW 2470  13.380  13.048  13.212  0.2836 -0.5571  0.5809
30164SOL    HW1 2471  13.431  12.969  13.231 -0.7750 -0.8063  2.7106
30164SOL    HW2 2472  13.291  13.016  13.197  0.0122  0.1683  0.6124
30165SOL     OW 2473   6.087   0.845   7.166  0.2142  0.2226 -0.7673
30165SOL    HW1 2474   6.132   0.832   7.083 -0.3522  1.5910 -1.3359
30165SOL    HW2 2475   6.032   0.768   7.176  1.8539 -0.9652 -0.5782
30166SOL     OW 2476   1.348  10.303   3.441  0.0435  0.1788 -0.0144
30166SOL    HW1 2477   1.254  10.308   3.428  0.1606  0.6511 -0.8111
30166SOL    HW2 2478   1.369  10.210   3.436 -0.1789  0.1816 -1.5606
30167SOL     OW 2479   2.244   6.777   2.589 -0.0731  0.0792  0.3414
30167SOL    HW1 2480   2.173   6.808   2.645 -0.1777  0.7622 -0.1537
30167SOL    HW2 2481   2.209   6.699   2.546 -1.1086  1.2714 -1.0613
30168SOL     OW 2482   8.611  13.233   1.769  0.3872 -0.0638 -0.1752
30168SOL    HW1 2483   8.697  13.201   1.796  0.9648  1.9698  0.5409
30168SOL    HW2 2484   8.555  13.220   1.846  0.6926  0.8721  0.2133
30169SOL     OW 2485   4.779   0.467  12.833  0.1543 -0.0435  0.6430
30169SOL    HW1 2486   4.810   0.557  12.833  2.5633 -0.7587 -1.2843
30169SOL    HW2 2487   4.807   0.431  12.917  2.9162 -0.0636 -0.2018
30170SOL     OW 2488   3.878   0.988  11.138  0.6362 -0.4116 -0.7391
30170SOL    HW1 2489   3.842   0.910  11.095 -2.0124  0.9213 -1.1851
30170SOL    HW2 2490   3.874   1.056  11.070  1.6796  0.4183  0.0058
30171SOL     OW 2491   2.674   8.353   0.310  0.0828 -0.0652 -0.5010
30171SOL    HW1 2492   2.605   8.418   0.294 -1.3985 -1.0978  1.3428
30171SOL    HW2 2493   2.669   8.335   0.403  2.2036 -0.9706 -0.5070
30172SOL     OW 2494  12.271   7.908   5.749 -0.2485 -0.3234 -0.5553
30172SOL    HW1 2495  12.198   7.885   5.692 -0.7767 -0.6711  0.2419
30172SOL    HW2 2496  12.299   7.824   5.787 -1.8238  0.1598  1.9397
30173SOL     OW 2497   0.304   1.310   2.297 -0.1163 -0.6974 -0.3998
30173SOL    HW1 2498   0.212   1.337   2.293 -0.5548 -1.6855  1.8153
30173SOL    HW2 2499   0.349   1.384   2.339 -0.0505 -0.5779 -0.6779
30174SOL     OW 2500   1.618  11.463   6.986  0.1736  0.1174 -0.0507
30174SOL    HW1 2501   1.568  11.382   6.978 -0.1970  0.4046 -0.7284
30174SOL    HW2 2502   1.687  11.443   7.049 -0.9859 -0.1982  1.1548
30175SOL     OW 2503  12.228  11.362  10.706  0.1284 -0.1420 -0.0810
30175SOL    HW1 2504  12.169  11.313  10.763 -3.2189  1.0994 -2.2241
30175SOL    HW2 2505  12.191  11.353  10.619  2.4524  1.7726 -1.3967
30176SOL     OW 2506   3.275   8.846   5.832 -0.0454  0.1426  0.1288
30176SOL    HW1 2507   3.248   8.757   5.809 -0.5715  0.2930  0.1566
30176SOL    HW2 2508   3.229   8.901   5.768  0.2326  0.3990  0.1503
30177SOL     OW 2509   0.201  10.627   1.666 -0.2061 -0.0288 -0.0346
30177SOL    HW1 2510   0.202  10.720   1.690  1.2227 -0.2672  0.9565
30177SOL    HW2 2511   0.194  10.581   1.750  2.5355 -0.8526 -0.1832
30178SOL     OW 2512   2.286   1.921   7.921  0.1305 -0.5407  0.0162
30178SOL    HW1 2513   2.328   2.006   7.930 -0.2831 -0.3981  0.6534
30178SOL    HW2 2514   2.248   1.923   7.833  1.3901 -0.6560 -0.5573
30179SOL     OW 2515  11.583   9.450   1.511 -0.3476 -0.3300 -0.5718
30179SOL    HW1 2516  11.628   9.468   1.429 -0.2181  1.6811 -0.1072
30179SOL    HW2 2517  11.492   9.473   1.494 -0.5691 -1.1141 -0.4969
30180SOL     OW 2518   1.540   2.440  10.234  0.2743  0.1070  0.0798
30180SOL    HW1 2519   1.473   2.452  10.302  1.9415 -0.1843  1.8502
30180SOL    HW2 2520   1.589   2.363  10.261  1.2570  0.2231 -1.2517
30181SOL     OW 2521   9.422   1.297   8.215 -0.1284 -0.5587 -0.0022
30181SOL    HW1 2522   9.454   1.351   8.143  2.3444 -2.0387 -0.1154
30181SOL    HW2 2523   9.392   1.360   8.281  2.5919  1.0375 -0.1338
30182SOL     OW 2524   6.384   2.150   1.920 -0.2150  0.1361  0.1582
30182SOL    HW1 2525   6.297   2.188   1.906  0.1504  1.2258  0.6905
30182SOL    HW2 2526   6.387   2.075   1.861 -0.9605  0.9863 -1.0221
30183SOL     OW 2527   2.473   9.837   6.491  0.7116  0.3464  0.8523
30183SOL    HW1 2528   2.390   9.798   6.519  1.5513 -1.5655  0.7992
30183SOL    HW2 2529   2.534   9.815   6.561  1.6619 -0.0868 -0.1047
30184SOL     OW 2530   2.855   0.513   3.006  0.2443  0.2528 -0.0520
30184SOL    HW1 2531   2.831   0.421   3.015  0.2758  0.2816  0.3518
30184SOL    HW2 2532   2.946   0.517   3.038  0.3162  0.3872 -0.2682
30185SOL     OW 2533   1.158   8.377  10.464 -0.1619 -0.3323 -0.1034
30185SOL    HW1 2534   1.096   8.327  10.412 -0.2190  0.7511 -1.1128
30185SOL    HW2 2535   1.189   8.315  10.531 -2.3321 -0.8810  0.4480
30186SOL     OW 2536  12.746   7.351   5.026  0.6807 -0.2254 -0.0343
30186SOL    HW1 2537  12.783   7.267   5.054 -0.0546 -0.7421 -0.5696
30186SOL    HW2 2538  12.667   7.328   4.977  0.8487  0.7410 -0.8185
30187SOL     OW 2539  11.075   9.094  12.725  0.0717 -0.2175  0.0975
30187SOL    HW1 2540  11.064   9.020  12.786  1.8525 -0.3923  0.2733
30187SOL    HW2 2541  10.987   9.126  12.710 -0.7282 -2.1633  0.3005
30188SOL     OW 2542  10.919   6.293   3.643 -0.1149 -0.6383 -0.3303
30188SOL    HW1 2543  10.925   6.205   3.605  1.6018 -1.0040  0.6903
30188SOL    HW2 2544  10.827   6.317   3.633 -1.1201 -3.4089  1.2085
30189SOL     OW 2545  10.047  10.392   2.964 -0.1727 -0.0633 -0.7943
30189SOL    HW1 2546   9.961  10.420   2.933 -1.4860 -3.5735 -0.7710
30189SOL    HW2 2547  10.036  10.376   3.058  1.1864  1.4934 -0.3092
30190SOL     OW 2548   2.905   6.814  11.965  0.0818  0.6781  0.3675
30190SOL    HW1 2549   2.854   6.748  11.919  1.2581 -0.3013  0.4167
30190SOL    HW2 2550   2.960   6.764  12.026  1.5565  1.6223 -0.1328
30191SOL     OW 2551  12.322   7.022   4.990 -0.3522 -0.2156  0.2251
30191SOL    HW1 2552  12.252   6.985   5.043 -2.4748 -0.6745 -2.6238
30191SOL    HW2 2553  12.296   7.113   4.975  1.4136  0.6178  1.7216
30192SOL     OW 2554   7.692  12.243  13.651  0.1165  1.1829  0.2330
30192SOL    HW1 2555   7.645  12.186  13.712  0.8814  0.9253  0.5921
30192SOL    HW2 2556   7.644  12.326  13.654 -0.4086  0.8794  0.4670
30193SOL     OW 2557  11.322   8.521  12.188  0.3641 -0.0097 -0.2110
30193SOL    HW1 2558  11.413   8.540  12.210  0.6055 -1.3823  0.0380
30193SOL    HW2 2559  11.306   8.569  12.107  2.0440 -1.5685 -1.5404
30194SOL     OW 2560   5.196   7.334   2.685  0.0442  0.0313 -0.2614
30194SOL    HW1 2561   5.224   7.262   2.743  0.5971 -0.0042 -0.5647
30194SOL    HW2 2562   5.174   7.405   2.745  0.9508  0.1121 -0.0022
30195SOL     OW 2563   0.335   4.831   3.481 -0.0596  0.1696 -0.6530
30195SOL    HW1 2564   0.267   4.872   3.427 -0.8011  0.2707  0.3165
30195SOL    HW2 2565   0.325   4.873   3.567  0.1132 -1.0111 -0.0366
30196SOL     OW 2566   8.834  14.015   8.544  0.0151  0.0972 -0.1779
30196SOL    HW1 2567   8.860  13.975   8.461  0.9020  0.0359  0.1213
30196SOL    HW2 2568   8.880  13.964   8.611 -0.6053  0.2148  0.3498
30197SOL     OW 2569   4.489   7.956   2.734  0.2628  0.3905 -0.1581
30197SOL    HW1 2570   4.516   7.916   2.817  0.9571 -0.8423 -0.9449
30197SOL    HW2 2571   4.510   7.890   2.668 -0.5336  1.2417 -1.2942
30198SOL     OW 2572  11.725  13.103   6.103  0.4617 -0.9384 -0.0709
30198SOL    HW1 2573  11.793  13.163   6.072  0.4803 -0.7846  0.2602
30198SOL    HW2 2574  11.732  13.027   6.046  0.6074 -0.7323 -0.3347
30199SOL     OW 2575   4.299   8.443  13.138  0.3062 -0.2475 -0.0605
30199SOL    HW1 2576   4.357   8.509  13.177 -0.0331  1.4373 -2.2117
30199SOL    HW2 2577   4.211   8.480  13.147 -0.4865 -2.5188  2.6594
30200SOL     OW 2578   1.009  10.806   6.069 -0.1451 -0.2917 -0.5674
30200SOL    HW1 2579   0.922  10.793   6.107 -0.0068 -0.5182 -0.3203
30200SOL    HW2 2580   0.995  10.802   5.975 -0.2039 -1.7474 -0.5279
30201SOL     OW 2581   6.860   0.150   7.617  0.3325  0.1393  0.4783
30201SOL    HW1 2582   6.901   0.150   7.531 -2.0395  0.1316 -0.7345
30201SOL    HW2 2583   6.870   0.240   7.648  2.5957 -0.2151  0.9950
30202SOL     OW 2584   1.390   2.477   7.093 -0.3856  0.2759 -0.7604
30202SOL    HW1 2585   1.378   2.553   7.148 -1.7957  0.4534 -1.2646
30202SOL    HW2 2586   1.408   2.405   7.154  0.0808  0.8288 -0.2316
30203SOL     OW 2587  12.700   7.452   8.876 -0.8031  0.3012 -0.0357
30203SOL    HW1 2588  12.736   7.439   8.788  1.7435  0.9949  0.7976
30203SOL    HW2 2589  12.684   7.364   8.909  0.4324 -0.0763 -0.3844
30204SOL     OW 2590  11.765  12.332   1.504 -0.0570 -0.3805 -0.6700
30204SOL    HW1 2591  11.817  12.252   1.500 -0.5317 -0.6436 -1.9345
30204SOL    HW2 2592  11.827  12.400   1.533  0.1169 -1.3621  1.4660
30205SOL     OW 2593   3.091   7.701   9.388  0.0128  0.1344 -0.2175
30205SOL    HW1 2594   3.021   7.665   9.333  0.0123  0.9546 -0.7652
30205SOL    HW2 2595   3.151   7.627   9.400  0.2329  0.0471 -1.6789
30206SOL     OW 2596  10.393   5.762   4.965  0.4626 -0.0177 -0.3334
30206SOL    HW1 2597  10.350   5.728   5.043  0.6263 -0.7723 -0.5655
30206SOL    HW2 2598  10.345   5.723   4.892  0.2727  0.7267 -0.6108
30207SOL     OW 2599   6.253   0.074   6.692 -0.4543 -0.0732 -0.0617
30207SOL    HW1 2600   6.335   0.091   6.738 -0.3996  1.2736 -0.5920
30207SOL    HW2 2601   6.247  -0.021   6.687  1.8127 -0.2239 -1.2788
30208SOL     OW 2602  10.165   0.633  10.128  0.0950  0.7292  0.1095
30208SOL    HW1 2603  10.250   0.649  10.170  0.2090 -1.3385  0.7882
30208SOL    HW2 2604  10.187   0.615  10.037  0.0925  2.7298 -0.3310
30209SOL     OW 2605  11.954  10.706   4.494 -0.0123  0.1969  0.4705
30209SOL    HW1 2606  12.016  10.665   4.433  0.2833  0.9864  0.2216
30209SOL    HW2 2607  11.868  10.675   4.465  0.3139 -2.7762  2.2197
30210SOL     OW 2608  10.988  12.648   7.498 -0.0530  0.9030  0.1137
30210SOL    HW1 2609  11.057  12.595   7.537 -0.5588 -0.7495 -1.1275
30210SOL    HW2 2610  10.912  12.591   7.496 -0.6141  1.6459 -1.2978
30211SOL     OW 2611   7.515   5.892   8.272  0.2948  0.2990  0.5456
30211SOL    HW1 2612   7.449   5.864   8.335 -0.4147  1.5303  0.3739
30211SOL    HW2 2613   7.583   5.825   8.277 -0.5004 -0.4598  1.4496
30212SOL     OW 2614   4.492   7.949  12.840  0.3978  0.1312  0.2643
30212SOL    HW1 2615   4.458   7.860  12.851 -1.0534  0.4799 -0.9998
30212SOL    HW2 2616   4.580   7.937  12.806 -0.1922 -0.8628 -0.9938
30213SOL     OW 2617  10.970   7.769   5.676 -0.2949  0.1948  0.0893
30213SOL    HW1 2618  11.006   7.724   5.599 -2.8830 -1.7227 -0.1088
30213SOL    HW2 2619  11.047   7.795   5.727  1.4671 -4.0959 -0.0243
30214SOL     OW 2620   0.037   5.123   1.138  0.4319 -0.0136 -0.3313
30214SOL    HW1 2621   0.025   5.208   1.182  1.4229 -0.0431  0.0363
30214SOL    HW2 2622  -0.023   5.064   1.183  1.2519  0.0173  0.8439
30215SOL     OW 2623   7.479   2.722   4.584 -0.0181  0.5410  0.6206
30215SOL    HW1 2624   7.395   2.764   4.601 -0.6300 -0.4945  0.2524
30215SOL    HW2 2625   7.521   2.777   4.517 -2.0165 -0.8459 -1.9713
30216SOL     OW 2626  11.446   8.853   5.165  0.8839  0.4507 -0.8480
30216SOL    HW1 2627  11.512   8.785   5.177  2.2329  1.7439 -0.6558
30216SOL    HW2 2628  11.404   8.861   5.251  1.5711  0.7145 -0.5329
30217SOL     OW 2629  10.098  12.217   4.014 -0.2552 -0.4348  0.6492
30217SOL    HW1 2630  10.100  12.160   4.090  0.1964 -0.8713  0.3159
30217SOL    HW2 2631  10.119  12.304   4.049  0.6208 -0.7493  0.9270
30218SOL     OW 2632  10.348   9.851  11.464 -0.0571 -0.6096  0.5851
30218SOL    HW1 2633  10.292   9.917  11.506 -0.0040 -1.5584  2.2144
30218SOL    HW2 2634  10.436   9.889  11.469  0.0588 -0.9957  2.0283
30219SOL     OW 2635   4.813  13.296  13.330  0.4343  0.0807  0.1843
30219SOL    HW1 2636   4.852  13.211  13.305 -0.4078 -0.5404  0.9184
30219SOL    HW2 2637   4.731  13.299  13.282  0.9077  0.9415 -0.5918
30220SOL     OW 2638   8.634   8.107  10.838 -0.7264 -0.3300  0.3747
30220SOL    HW1 2639   8.586   8.113  10.921  0.4542 -0.4606  1.0931
30220SOL    HW2 2640   8.583   8.045  10.786 -3.9570  2.8959 -0.7875
30221SOL     OW 2641   8.420   4.264   2.689 -0.4842 -0.6118 -0.3841
30221SOL    HW1 2642   8.366   4.228   2.618  1.0043 -0.6514 -1.5465
30221SOL    HW2 2643   8.509   4.264   2.653 -0.1909  2.9994  0.0258
30222SOL     OW 2644  11.928   8.606   4.283  0.3461  0.2340  0.0894
30222SOL    HW1 2645  11.953   8.515   4.267 -1.8555 -0.6359  1.2054
30222SOL    HW2 2646  11.923   8.645   4.195  0.4389 -0.9519 -0.4656
30223SOL     OW 2647   6.966  13.372   5.117  0.0076  0.0104 -0.2119
30223SOL    HW1 2648   6.971  13.415   5.032  1.3751  0.6361  0.1667
30223SOL    HW2 2649   7.039  13.408   5.167 -0.0751 -1.2097  0.8401
30224SOL     OW 2650  13.281   5.607  12.913 -0.3321  0.0951  0.0338
30224SOL    HW1 2651  13.246   5.695  12.930 -0.2459 -0.1547  1.6166
30224SOL    HW2 2652  13.209   5.561  12.869 -1.0959  0.3689  0.9564
30225SOL     OW 2653  10.646  12.193   6.851 -0.4103 -0.1177  0.2999
30225SOL    HW1 2654  10.740  12.185   6.863 -0.1061 -0.3002 -1.8606
30225SOL    HW2 2655  10.610  12.195   6.940  1.7672  1.9196  1.2207
30226SOL     OW 2656   7.048  10.974   9.681 -0.1683  0.2615 -0.1451
30226SOL    HW1 2657   7.001  10.895   9.706 -1.8182  0.5550 -2.0339
30226SOL    HW2 2658   6.990  11.046   9.705 -0.5664  0.6561 -2.0999
30227SOL     OW 2659  10.195   3.683   7.006  0.2711  0.2883 -0.1085
30227SOL    HW1 2660  10.284   3.706   7.032  0.0061  0.3760  0.7739
30227SOL    HW2 2661  10.180   3.732   6.926  1.4080 -0.6090 -0.8947
30228SOL     OW 2662   3.528   5.477   9.286 -0.3291  0.6153  0.1247
30228SOL    HW1 2663   3.615   5.469   9.246  0.7259  0.1778  2.3217
30228SOL    HW2 2664   3.515   5.572   9.295  0.0336  0.6785  0.0106
30229SOL     OW 2665   2.281   3.156   5.343  0.9824 -0.2090  0.4028
30229SOL    HW1 2666   2.301   3.069   5.376  0.1528 -1.7120 -2.6713
30229SOL    HW2 2667   2.232   3.198   5.414  1.5538 -2.1584  2.0406
30230SOL     OW 2668   3.770  13.932   1.868 -0.4035 -0.0170  0.3242
30230SOL    HW1 2669   3.753  13.879   1.790 -0.6028  0.8889 -0.2576
30230SOL    HW2 2670   3.683  13.958   1.898 -0.3394 -0.5355  0.9868
30231SOL     OW 2671  11.974   2.679  13.865 -0.4016 -0.1955 -0.3633
30231SOL    HW1 2672  12.027   2.758  13.875 -0.6798 -0.1366  0.7500
30231SOL    HW2 2673  12.024   2.611  13.910  0.2384 -0.8679 -2.0051
30232SOL     OW 2674  11.102   0.194  13.820 -0.4332 -0.3194 -0.1134
30232SOL    HW1 2675  11.159   0.144  13.879  0.1184  0.0135 -0.3574
30232SOL    HW2 2676  11.063   0.128  13.763 -3.0333 -1.0148  2.2436
30233SOL     OW 2677   8.605   4.553  13.903  0.1598 -0.0731 -0.0527
30233SOL    HW1 2678   8.628   4.480  13.961 -1.4019 -0.8407 -0.3243
30233SOL    HW2 2679   8.647   4.532  13.820  0.6627 -0.0708  0.2031
30234SOL     OW 2680   6.224   3.182  10.613 -0.0184 -0.4246 -0.5287
30234SOL    HW1 2681   6.316   3.196  10.634 -0.4842  0.2347  1.2207
30234SOL    HW2 2682   6.219   3.090  10.585  0.8263 -1.1431  1.5406
30235SOL     OW 2683   1.044   2.173   8.074  0.7839 -0.1031  0.1399
30235SOL    HW1 2684   0.989   2.251   8.073  0.2061 -0.5124 -0.8551
30235SOL    HW2 2685   1.096   2.182   8.154  2.0426  2.2169 -0.8328
30236SOL     OW 2686  13.409   8.777   4.093 -0.0146  0.1279  0.1146
30236SOL    HW1 2687  13.485   8.771   4.035 -0.6811  0.4810 -0.8335
30236SOL    HW2 2688  13.345   8.717   4.053 -0.1902 -0.2650  0.9728
30237SOL     OW 2689   1.254   3.868  11.817  0.6783  0.2387  0.7650
30237SOL    HW1 2690   1.280   3.782  11.851  0.4958  0.3901  1.2979
30237SOL    HW2 2691   1.312   3.882  11.742 -0.5932 -1.2070 -0.5527
30238SOL     OW 2692  11.943   8.462   5.690 -0.0664 -0.1835 -0.1409
30238SOL    HW1 2693  11.951   8.518   5.612  0.0409  1.6144  1.0880
30238SOL    HW2 2694  12.011   8.396   5.680 -0.7126 -0.6172 -2.0465
30239SOL     OW 2695   7.861   2.516   4.849  0.1380 -0.0246 -0.2969
30239SOL    HW1 2696   7.953   2.531   4.827  0.2985 -0.4466  0.0649
30239SOL    HW2 2697   7.815   2.594   4.817  0.5114 -0.1365 -1.1353
30240SOL     OW 2698  11.243   0.205  11.529  0.5568 -0.4381  0.2069
30240SOL    HW1 2699  11.306   0.196  11.601 -1.0421 -1.6321  1.5276
30240SOL    HW2 2700  11.158   0.186  11.569 -0.5522  0.1559 -1.7354
30241SOL     OW 2701  13.110  11.728   6.810  0.7986 -0.3868 -0.3248
30241SOL    HW1 2702  13.173  11.790   6.773  1.3815  0.2985  1.6841
30241SOL    HW2 2703  13.129  11.727   6.903 -2.6244  0.3843  0.5216
30242SOL     OW 2704   0.626  11.334   0.626  0.0147 -0.3201  0.0811
30242SOL    HW1 2705   0.678  11.255   0.610 -0.9996 -1.1693  0.8655
30242SOL    HW2 2706   0.649  11.392   0.554 -0.2402 -1.8494 -1.2990
30243SOL     OW 2707   3.162  13.379   0.868  0.1042 -0.3869  0.2448
30243SOL    HW1 2708   3.091  13.435   0.836 -1.3211 -1.9676  0.5094
30243SOL    HW2 2709   3.118  13.305   0.909  1.8636 -2.3179 -1.1150
30244SOL     OW 2710  11.866   6.664   3.225 -0.0358 -0.1529 -0.1780
30244SOL    HW1 2711  11.913   6.737   3.184 -0.7668  1.0355  1.0240
30244SOL    HW2 2712  11.913   6.586   3.196  2.7915  0.9617  1.0445
30245SOL     OW 2713  11.853   6.172  10.917 -0.6236 -0.0238  0.4459
30245SOL    HW1 2714  11.804   6.254  10.926  1.5422  1.1566  2.6348
30245SOL    HW2 2715  11.937   6.198  10.878 -0.8758 -1.6773 -1.3421
30246SOL     OW 2716  13.119   0.147   5.581  0.4386  0.9867  0.6235
30246SOL    HW1 2717  13.176   0.215   5.616 -0.3763  1.3041  1.3506
30246SOL    HW2 2718  13.044   0.144   5.641  0.2509 -0.2438  0.3593
30247SOL     OW 2719   5.477   2.641  11.233 -0.2465  0.0268 -0.5143
30247SOL    HW1 2720   5.546   2.616  11.294 -0.4601  0.8886  0.0855
30247SOL    HW2 2721   5.440   2.557  11.204 -0.0538 -0.3898  0.4228
30248SOL     OW 2722   6.622   2.415   9.111  0.6564 -0.5710 -0.0674
30248SOL    HW1 2723   6.636   2.320   9.107  1.6692 -0.5844  2.2137
30248SOL    HW2 2724   6.704   2.450   9.147 -0.0932  1.0444  0.1581
30249SOL     OW 2725   4.971   3.993   1.381  0.3127 -0.2408 -0.1695
30249SOL    HW1 2726   4.913   3.945   1.440  2.3887  1.3503  3.4557
30249SOL    HW2 2727   5.035   3.928   1.351 -1.3525 -1.2886 -1.7042
30250SOL     OW 2728   9.311   6.743  13.771 -0.2207  0.0484  0.1858
30250SOL    HW1 2729   9.246   6.709  13.831 -0.1058  0.5030  0.5732
30250SOL    HW2 2730   9.261   6.767  13.692 -0.1588 -1.9853 -0.5224
30251SOL     OW 2731   5.072   5.322   9.707 -0.1506 -0.3254 -0.0877
30251SOL    HW1 2732   5.120   5.290   9.784 -1.6598  0.4120  1.2433
30251SOL    HW2 2733   4.980   5.305   9.729 -0.5746 -0.9907 -2.1946
30252SOL     OW 2734  13.808   2.111   6.155 -0.3116  1.0364 -0.0911
30252SOL    HW1 2735  13.816   2.206   6.149  0.2572  0.9530 -0.7940
30252SOL    HW2 2736  13.849   2.078   6.075  0.6551  0.1380  0.7541
30253SOL     OW 2737  11.510   1.434  13.567 -0.3532  0.5033  0.2695
30253SOL    HW1 2738  11.596   1.394  13.552 -0.1267  0.4011  1.6562
30253SOL    HW2 2739  11.517   1.522  13.530 -0.0010  0.1461 -0.5383
30254SOL     OW 2740  10.313   1.584   7.637  0.1928  0.4072 -0.3532
30254SOL    HW1 2741  10.260   1.508   7.660  0.2997  0.7351  1.0651
30254SOL    HW2 2742  10.256   1.636   7.580 -1.3677  1.1299  1.7253
30255SOL     OW 2743   2.176   0.543   1.646 -0.5367  0.4297 -0.2452
30255SOL    HW1 2744   2.131   0.521   1.728  1.3144  2.4830  1.4754
30255SOL    HW2 2745   2.210   0.459   1.613 -1.4458 -0.4626  1.0038
30256SOL     OW 2746   5.688   9.639   3.505 -0.2241  0.7050  0.2886
30256SOL    HW1 2747   5.692   9.733   3.486  2.0539  0.5214 -0.3819
30256SOL    HW2 2748   5.742   9.628   3.582  0.5764 -0.2161 -0.3906
30257SOL     OW 2749  10.708   2.616  13.546 -0.3589  0.1070  0.0030
30257SOL    HW1 2750  10.671   2.701  13.570 -0.2254  0.1744 -0.0293
30257SOL    HW2 2751  10.709   2.566  13.627 -1.2054 -0.1552 -0.1345
30258SOL     OW 2752  11.941   0.798  11.290 -0.2089 -0.0340  0.1747
30258SOL    HW1 2753  11.891   0.721  11.319 -1.1044  0.6922  0.5855
30258SOL    HW2 2754  12.030   0.764  11.276 -0.7096 -1.2634 -0.1955
30259SOL     OW 2755  13.260   7.480   4.551  0.2639  0.0705 -0.4031
30259SOL    HW1 2756  13.196   7.410   4.541 -2.0493  1.3741  3.1798
30259SOL    HW2 2757  13.341   7.436   4.578 -0.6504 -1.3499  0.1518
30260SOL     OW 2758   9.756   6.881   2.461  0.0984  0.4281  0.2902
30260SOL    HW1 2759   9.731   6.788   2.459  0.1830  0.3076  2.3231
30260SOL    HW2 2760   9.822   6.890   2.393  0.3129 -1.0784  0.2699
30261SOL     OW 2761   5.833   8.451   1.261  0.0953  0.1417 -0.3499
30261SOL    HW1 2762   5.853   8.394   1.336 -2.5127  0.8190  1.0068
30261SOL    HW2 2763   5.915   8.494   1.240  1.6167 -2.3468  0.0922
30262SOL     OW 2764  13.732   6.345   5.777 -0.1931 -0.1698 -0.4413
30262SOL    HW1 2765  13.708   6.307   5.693 -0.7186  1.1360 -0.9189
30262SOL    HW2 2766  13.793   6.416   5.755 -2.1633  1.7784 -0.0154
30263SOL     OW 2767   9.595  11.180   0.219  0.3700  0.2602  0.3005
30263SOL    HW1 2768   9.550  11.249   0.171 -0.1232 -0.2445  0.0212
30263SOL    HW2 2769   9.541  11.102   0.206  2.7792 -1.1483 -2.5495
30264SOL     OW 2770   4.670   1.247   3.118  0.2667  0.3017  0.0583
30264SOL    HW1 2771   4.590   1.194   3.117  0.6096 -0.2068 -0.9769
30264SOL    HW2 2772   4.734   1.195   3.071  1.0268  1.0105  0.2868
30265SOL     OW 2773  11.345   5.757  13.802 -0.0872  0.1602 -0.0262
30265SOL    HW1 2774  11.440   5.768  13.798  0.1163 -0.3785  1.9040
30265SOL    HW2 2775  11.329   5.671  13.762  0.4896 -0.5786  1.2558
30266SOL     OW 2776   8.144   2.124   0.773 -0.2527  0.1128  0.1309
30266SOL    HW1 2777   8.154   2.212   0.738 -1.2022 -0.2540 -1.1206
30266SOL    HW2 2778   8.233   2.093   0.785  0.1053  1.3627  0.9424
30267SOL     OW 2779  13.734   9.897   6.620 -0.2655 -0.1595  0.1684
30267SOL    HW1 2780  13.718   9.991   6.606  1.2722 -0.1187 -1.7048
30267SOL    HW2 2781  13.813   9.894   6.674 -0.1448 -0.3627 -0.0170
30268SOL     OW 2782   3.453   9.768   5.899 -0.5359 -0.0287  0.2049
30268SOL    HW1 2783   3.472   9.777   5.992  0.7506  1.3477 -0.1608
30268SOL    HW2 2784   3.458   9.857   5.864  1.2326 -0.7497 -1.5740
30269SOL     OW 2785   9.301   2.290   5.809 -0.4422 -0.0738 -0.0712
30269SOL    HW1 2786   9.256   2.225   5.863 -0.6119  2.1387  2.6727
30269SOL    HW2 2787   9.391   2.258   5.802 -0.2294 -0.1151  2.2321
30270SOL     OW 2788   5.856  12.909   9.359  0.5340 -0.0452 -0.0650
30270SOL    HW1 2789   5.798  12.968   9.406 -1.9802 -1.9217 -0.6224
30270SOL    HW2 2790   5.871  12.951   9.274 -1.4735 -0.2784 -0.5787
30271SOL     OW 2791  13.740   6.571   3.854 -0.0543  0.4847 -0.3414
30271SOL    HW1 2792  13.668   6.516   3.822 -1.5410  1.6507  0.8594
30271SOL    HW2 2793  13.778   6.609   3.774  1.0830 -2.2263 -1.2296
30272SOL     OW 2794   9.773   9.774  13.708 -0.2712 -0.2409 -0.2671
30272SOL    HW1 2795   9.725   9.699  13.673  0.0982 -0.4358 -0.3725
30272SOL    HW2 2796   9.864   9.744  13.712 -0.0232  0.3994 -0.8648
30273SOL     OW 2797  13.270   5.645   4.313  0.0703 -0.6690 -0.3579
30273SOL    HW1 2798  13.342   5.629   4.375  0.2588  1.2072 -0.0423
30273SOL    HW2 2799  13.272   5.739   4.298  0.5219 -1.0961 -3.8781
30274SOL     OW 2800  12.639   1.432  12.938 -0.0310  0.0813 -0.1494
30274SOL    HW1 2801  12.648   1.355  12.881 -2.4392 -1.1264  0.9680
30274SOL    HW2 2802  12.628   1.505  12.877  1.0259 -0.6228 -1.2288
30275SOL     OW 2803   1.292   9.187   8.068  0.2001  0.0546 -0.0796
30275SOL    HW1 2804   1.257   9.102   8.041  1.2875 -0.3495 -0.2710
30275SOL    HW2 2805   1.230   9.218   8.134  0.7040 -1.7083  1.3039
30276SOL     OW 2806   6.018   6.756   7.530  0.8227 -0.5471 -0.5118
30276SOL    HW1 2807   6.039   6.691   7.597  1.1775  0.9753  0.9193
30276SOL    HW2 2808   5.933   6.791   7.556 -0.4500 -1.9618 -2.5307
30277SOL     OW 2809   4.947   4.274   0.033 -0.5336  0.0620 -0.3139
30277SOL    HW1 2810   4.919   4.202   0.089 -2.5223 -0.9254 -2.4341
30277SOL    HW2 2811   4.896   4.349   0.063 -0.4655 -0.0692  0.1424
30278SOL     OW 2812   3.267   9.392  13.872  0.1411 -0.3084  0.4970
30278SOL    HW1 2813   3.332   9.421  13.936 -0.8424  2.2603  0.4789
30278SOL    HW2 2814   3.294   9.434  13.790 -1.0080  0.0889  0.2989
30279SOL     OW 2815   0.546   6.861   9.433 -0.5181  0.0877 -0.3432
30279SOL    HW1 2816   0.454   6.835   9.429 -0.9267  1.1652  1.0013
30279SOL    HW2 2817   0.547   6.949   9.394  0.4688 -0.9568 -2.9093
30280SOL     OW 2818   5.033   8.011   6.853  0.3989 -0.6442 -0.3558
30280SOL    HW1 2819   4.987   8.075   6.799  0.6175 -0.0596  0.1387
30280SOL    HW2 2820   5.047   7.936   6.795  0.6219 -0.0358 -1.0998
30281SOL     OW 2821   4.566   3.904  11.357 -0.2249 -0.5618 -0.4295
30281SOL    HW1 2822   4.636   3.968  11.348 -0.3639 -0.1364  1.2170
30281SOL    HW2 2823   4.580   3.842  11.285  2.1917 -0.8379  0.2120
30282SOL     OW 2824   3.329  13.531   4.178 -0.5092  0.0178 -0.0689
30282SOL    HW1 2825   3.382  13.611   4.168  1.1782 -1.0525 -0.0495
30282SOL    HW2 2826   3.348  13.480   4.099  0.0798 -1.2620  0.8679
30283SOL     OW 2827   8.740   0.599   5.726  0.4055 -0.1301 -0.4187
30283SOL    HW1 2828   8.707   0.527   5.672 -1.1069 -0.3540  0.7365
30283SOL    HW2 2829   8.693   0.676   5.694  1.0814  0.1312 -0.8057
30284SOL     OW 2830   7.098   4.185   7.084 -0.1239 -0.2622 -1.0607
30284SOL    HW1 2831   7.062   4.186   7.173  0.0878 -0.9282 -0.9603
30284SOL    HW2 2832   7.154   4.107   7.082  1.7748  1.0355 -1.0344
30285SOL     OW 2833   0.654   0.628   9.936 -0.6668 -0.0873 -0.0672
30285SOL    HW1 2834   0.657   0.533   9.950  1.6438 -0.0417 -0.0241
30285SOL    HW2 2835   0.595   0.638   9.861 -0.7617 -1.5804 -0.2275
30286SOL     OW 2836   0.430   9.346  10.254  0.2207 -0.8565  0.4924
30286SOL    HW1 2837   0.466   9.359  10.342 -3.3344  1.5591  1.8188
30286SOL    HW2 2838   0.359   9.284  10.266  0.8217 -1.9046 -1.1087
30287SOL     OW 2839  12.445   2.704   0.383  0.2850  0.2930  0.2707
30287SOL    HW1 2840  12.532   2.744   0.393  0.2863 -0.0453  1.9234
30287SOL    HW2 2841  12.413   2.737   0.300  2.1979  0.0422 -0.6169
30288SOL     OW 2842  12.277   9.538  12.801 -0.6829 -0.1631 -0.1929
30288SOL    HW1 2843  12.347   9.475  12.787  1.1651  1.5106  0.8582
30288SOL    HW2 2844  12.256   9.530  12.894 -0.1535  0.9626  0.0477
30289SOL     OW 2845   1.136   6.393   9.381  0.2016 -0.0494  0.4174
30289SOL    HW1 2846   1.220   6.395   9.336  0.1018  1.0238  0.2531
30289SOL    HW2 2847   1.117   6.484   9.401  0.5756 -0.5046  3.2694
30290SOL     OW 2848   3.180   6.476   3.109  0.1860  0.0572  0.2874
30290SOL    HW1 2849   3.176   6.539   3.182  0.8851  0.9471 -0.4112
30290SOL    HW2 2850   3.264   6.493   3.067  1.2683 -2.6386  1.1624
30291SOL     OW 2851  12.786  12.493  13.505  0.4204 -0.8126 -0.4738
30291SOL    HW1 2852  12.837  12.417  13.477 -0.9880 -2.5290  1.3257
30291SOL    HW2 2853  12.695  12.467  13.491 -0.1692 -0.2495  1.9405
30292SOL     OW 2854   8.566   7.478   7.328  0.4357 -0.3414 -0.1172
30292SOL    HW1 2855   8.626   7.422   7.279  0.0984 -1.1704  0.4105
30292SOL    HW2 2856   8.624   7.537   7.377  0.7893 -0.2799 -0.5954
30293SOL     OW 2857   7.315   2.691  12.731  0.2018  0.5205 -0.4559
30293SOL    HW1 2858   7.324   2.655  12.820 -1.1889  2.0286  0.3545
30293SOL    HW2 2859   7.238   2.747  12.736  1.6165  2.7559 -1.9092
30294SOL     OW 2860   3.210   8.622   2.334  0.1567 -0.2167  0.1320
30294SOL    HW1 2861   3.119   8.596   2.321  0.5002 -2.1707  1.2352
30294SOL    HW2 2862   3.260   8.541   2.324  1.6076  0.4952  1.1720
30295SOL     OW 2863   4.162   4.306  10.630 -0.2713  0.4788  0.1015
30295SOL    HW1 2864   4.155   4.330  10.538 -1.0468 -2.6527 -0.7613
30295SOL    HW2 2865   4.071   4.297  10.659 -0.0281  0.2914  0.8329
30296SOL     OW 2866  13.176   4.229   7.925  0.0682  0.6921 -0.2863
30296SOL    HW1 2867  13.116   4.238   7.851 -0.6121  1.4148  0.3382
30296SOL    HW2 2868  13.189   4.135   7.933 -0.0954  0.5898 -1.1360
30297SOL     OW 2869   5.166   6.698   2.778  0.6030  0.3630  0.1798
30297SOL    HW1 2870   5.148   6.718   2.686 -1.1421 -1.3838  0.0528
30297SOL    HW2 2871   5.084   6.659   2.810  0.9512  1.5024  2.6729
30298SOL     OW 2872  12.224   7.294   0.551 -0.3227 -0.2021 -0.2506
30298SOL    HW1 2873  12.319   7.301   0.539 -0.3729  0.1704 -0.4450
30298SOL    HW2 2874  12.214   7.251   0.636  0.0329  2.0319  1.0058
30299SOL     OW 2875   0.390   3.714  11.401 -0.6870  0.1129 -0.2470
30299SOL    HW1 2876   0.368   3.634  11.450  0.4535  0.3302  0.6639
30299SOL    HW2 2877   0.306   3.750  11.375 -1.2275 -2.2034 -2.0693
30300SOL     OW 2878  10.096  12.774  10.294 -0.0995  0.1612  0.5366
30300SOL    HW1 2879  10.035  12.799  10.362  0.2650 -0.6253  1.1635
30300SOL    HW2 2880  10.086  12.842  10.227 -2.6163 -0.6406 -0.0084
30301SOL     OW 2881  11.386  11.200   8.102 -0.0495 -0.1257  0.4696
30301SOL    HW1 2882  11.331  11.125   8.124 -1.1186  0.4666 -0.0587
30301SOL    HW2 2883  11.413  11.185   8.012 -2.0835  1.1196 -0.4224
30302SOL     OW 2884   2.122   0.571  13.272  0.4632  0.3737 -0.3766
30302SOL    HW1 2885   2.084   0.484  13.285  3.6137 -1.0390  0.2287
30302SOL    HW2 2886   2.112   0.614  13.357 -2.8902  1.5479 -1.1851
30303SOL     OW 2887   3.435   7.817  10.115  0.1869 -0.8157  0.3166
30303SOL    HW1 2888   3.415   7.760  10.189 -0.7011  1.0547  1.5931
30303SOL    HW2 2889   3.356   7.812  10.060 -1.2756  1.4766  2.0198
30304SOL     OW 2890   2.005   7.813   2.341  0.1940 -0.4985 -0.0329
30304SOL    HW1 2891   2.008   7.754   2.416  3.1709 -0.4132  0.0243
30304SOL    HW2 2892   2.092   7.852   2.337 -0.9797  2.3063 -1.3689
30305SOL     OW 2893   9.225   8.729  11.300 -0.5911 -0.5457 -0.2396
30305SOL    HW1 2894   9.278   8.717  11.378 -1.0086  4.6249  1.2081
30305SOL    HW2 2895   9.137   8.699  11.325  0.0999 -2.6923 -0.2463
30306SOL     OW 2896   9.049   8.199   6.485  0.1068  0.5028 -0.8066
30306SOL    HW1 2897   9.046   8.104   6.474  0.8637  0.2589  0.8502
30306SOL    HW2 2898   8.957   8.224   6.500  0.2808 -0.6254  3.2010
30307SOL     OW 2899   7.565   5.304  12.367  0.0525  0.5641 -0.1270
30307SOL    HW1 2900   7.590   5.230  12.421 -1.8062  0.3741  0.5268
30307SOL    HW2 2901   7.513   5.266  12.296  0.4301  1.0876 -0.7008
30308SOL     OW 2902   1.349   7.387   1.407 -0.1999 -0.4804 -0.2853
30308SOL    HW1 2903   1.427   7.420   1.453  1.2919 -0.8244 -2.4257
30308SOL    HW2 2904   1.323   7.309   1.457  1.1973 -0.6985  0.1496
30309SOL     OW 2905   5.256  13.467  13.868  0.5122  0.7801  0.4013
30309SOL    HW1 2906   5.313  13.390  13.865 -1.8239 -1.0383  0.1012
30309SOL    HW2 2907   5.314  13.540  13.845  3.1975 -0.5893  2.2004
30310SOL     OW 2908   9.932   4.809   6.499 -0.0254 -0.3994 -0.1400
30310SOL    HW1 2909   9.956   4.857   6.420  0.5303 -0.5856 -0.0849
30310SOL    HW2 2910   9.917   4.877   6.564 -4.0301  0.0673 -1.2568
30311SOL     OW 2911   7.206  11.507   9.588  0.3684 -0.3944  0.5212
30311SOL    HW1 2912   7.244  11.574   9.644 -0.1292 -0.0136  0.4098
30311SOL    HW2 2913   7.141  11.553   9.535  2.1545 -0.3474 -1.7490
30312SOL     OW 2914   3.272   9.008   3.666  0.0551 -0.2813  0.0318
30312SOL    HW1 2915   3.220   8.931   3.689  1.3474 -1.4319 -0.7386
30312SOL    HW2 2916   3.348   9.003   3.723  0.2292  0.3400 -0.1381
30313SOL     OW 2917   6.252   0.939   9.214  0.2384 -0.0611 -0.6042
30313SOL    HW1 2918   6.313   0.873   9.248 -0.5696 -0.1450  0.7872
30313SOL    HW2 2919   6.303   1.019   9.209  0.0780  0.3660  2.4737
30314SOL     OW 2920   9.558   3.365   1.386 -0.2512  0.4458  0.5801
30314SOL    HW1 2921   9.647   3.332   1.367 -1.7161 -2.4998 -2.2394
30314SOL    HW2 2922   9.520   3.298   1.442 -1.3716  0.5414 -0.0496
30315SOL     OW 2923  11.167  10.244   3.041  0.2320  0.3978  0.2761
30315SOL    HW1 2924  11.150  10.338   3.042 -0.9727  0.2048 -0.4239
30315SOL    HW2 2925  11.111  10.209   3.110 -0.5425  0.0130 -0.5374
30316SOL     OW 2926   4.586   6.144  10.071 -0.4725 -0.1306  0.0748
30316SOL    HW1 2927   4.601   6.058  10.109  0.0040  0.1731  0.5967
30316SOL    HW2 2928   4.653   6.200  10.111  1.8642 -0.3399 -3.1671
30317SOL     OW 2929   2.697   6.140   0.212 -0.3246  0.5791  0.2023
30317SOL    HW1 2930   2.756   6.107   0.144 -0.7719  0.9355 -0.3716
30317SOL    HW2 2931   2.609   6.133   0.173 -0.6010  0.6368  0.8032
30318SOL     OW 2932   5.255  12.871   2.865 -0.3470 -0.4994 -0.8153
30318SOL    HW1 2933   5.237  12.941   2.927 -0.5727 -0.2890 -1.1120
30318SOL    HW2 2934   5.336  12.831   2.896 -0.9770 -1.0340  0.1744
30319SOL     OW 2935   1.471  10.608   5.116  0.3743 -0.2089  0.0324
30319SOL    HW1 2936   1.385  10.584   5.082 -0.1407  0.2278  0.9881
30319SOL    HW2 2937   1.521  10.633   5.038 -0.8216  0.9293 -0.4042
30320SOL     OW 2938   1.759   8.522  12.559 -0.0532  0.4171 -0.3421
30320SOL    HW1 2939   1.714   8.456  12.610  1.2840 -0.2803 -0.0082
30320SOL    HW2 2940   1.745   8.497  12.468  0.0028 -0.0351 -0.2284
30321SOL     OW 2941   9.837   9.225   2.440  0.8384  0.0732 -0.3708
30321SOL    HW1 2942   9.794   9.301   2.478  0.7163 -0.8433  1.4411
30321SOL    HW2 2943   9.782   9.201   2.365  1.0354  1.8841 -1.1326
30322SOL     OW 2944   5.515   7.962  12.755 -0.1242  0.1005 -0.1315
30322SOL    HW1 2945   5.494   7.872  12.780  1.5878 -0.0405  0.9313
30322SOL    HW2 2946   5.513   7.961  12.659  2.6548 -1.8785 -0.2993
30323SOL     OW 2947  13.772  10.625   5.064 -0.6039  0.1007  0.1366
30323SOL    HW1 2948  13.700  10.574   5.027 -0.3078  0.2519 -0.6619
30323SOL    HW2 2949  13.834  10.634   4.992  0.2056 -0.0107  0.8081
30324SOL     OW 2950   1.341   1.885  13.841 -0.1486  0.3302  0.0960
30324SOL    HW1 2951   1.293   1.814  13.799  0.2794 -0.2071  0.5046
30324SOL    HW2 2952   1.433   1.870  13.818  0.1433 -0.1963  1.5242
30325SOL     OW 2953   7.831  11.423   6.096 -0.2613  0.2772 -0.1160
30325SOL    HW1 2954   7.735  11.428   6.101 -0.1719  2.8213  0.0391
30325SOL    HW2 2955   7.858  11.507   6.059  1.9310 -0.4435 -0.3012
30326SOL     OW 2956   9.746  12.792  12.947 -1.0021 -0.2081 -0.2483
30326SOL    HW1 2957   9.792  12.742  12.881 -0.1834  2.1554 -1.5972
30326SOL    HW2 2958   9.786  12.766  13.030  0.8983 -0.2213 -1.1240
30327SOL     OW 2959   5.991   9.781   1.242  0.3434  0.0375 -0.1661
30327SOL    HW1 2960   6.025   9.703   1.285  1.0134 -1.0818 -2.5338
30327SOL    HW2 2961   5.896   9.777   1.256  0.5381 -0.2845  1.1333
30328SOL     OW 2962   2.529   5.684  12.584 -0.1635  0.1775  0.2057
30328SOL    HW1 2963   2.492   5.626  12.518  0.3195 -0.5112  0.5269
30328SOL    HW2 2964   2.483   5.662  12.664  0.2093  0.0464  0.3859
30329SOL     OW 2965   2.892   3.509   1.245  0.2932  0.4841 -0.0010
30329SOL    HW1 2966   2.959   3.459   1.199 -1.0835 -1.9969  0.5191
30329SOL    HW2 2967   2.826   3.527   1.178  0.3254  0.7295  0.0339
30330SOL     OW 2968  13.054   7.589   8.523 -0.8527 -0.1811 -0.4861
30330SOL    HW1 2969  13.087   7.625   8.606  1.6820 -1.0418 -1.0363
30330SOL    HW2 2970  13.006   7.661   8.483 -0.4466  0.8652  0.8262
30331SOL     OW 2971  13.531   8.954  12.597  0.2935  0.2985  0.6204
30331SOL    HW1 2972  13.530   9.049  12.607  1.1238  0.4813 -0.7659
30331SOL    HW2 2973  13.610   8.926  12.644 -0.6823  0.1119  2.2101
30332SOL     OW 2974  10.999   7.110  10.463 -0.5180 -0.2193 -0.0651
30332SOL    HW1 2975  10.907   7.112  10.435  0.1791  0.7097 -2.5420
30332SOL    HW2 2976  11.031   7.198  10.447  1.1852 -0.8930 -0.5930
30333SOL     OW 2977   5.337   8.134   3.736 -0.5043 -0.8051 -0.1699
30333SOL    HW1 2978   5.259   8.153   3.788 -0.5874 -0.1309 -0.5346
30333SOL    HW2 2979   5.313   8.160   3.646 -0.3105 -1.8018 -0.5249
30334SOL     OW 2980   7.209   2.592   4.361  0.9409  0.2605 -0.3354
30334SOL    HW1 2981   7.173   2.535   4.430  0.4606  0.9760  0.0178
30334SOL    HW2 2982   7.231   2.532   4.290  0.0074 -0.3172 -0.1559
30335SOL     OW 2983   3.097   9.045  10.228 -0.5014  0.2515  0.4173
30335SOL    HW1 2984   3.050   8.966  10.201  0.5686 -0.3247  0.1937
30335SOL    HW2 2985   3.109   9.035  10.323  0.4500 -0.3213  0.2488
30336SOL     OW 2986   8.531  10.506   2.205  0.3090 -0.1497 -0.2055
30336SOL    HW1 2987   8.488  10.586   2.234 -0.1616  0.1010 -1.4987
30336SOL    HW2 2988   8.523  10.508   2.109  2.7521 -0.3473 -0.4827
30337SOL     OW 2989   2.143  13.255   8.471  1.3047 -0.1115  0.4813
30337SOL    HW1 2990   2.116  13.193   8.404 -0.1132 -0.1957  1.0927
30337SOL    HW2 2991   2.197  13.319   8.424 -0.4535  0.3877 -0.9492
30338SOL     OW 2992   1.264  12.593  12.283  0.1051  0.4175 -0.3409
30338SOL    HW1 2993   1.309  12.553  12.208  0.0746 -1.7308  0.7185
30338SOL    HW2 2994   1.221  12.670  12.246 -1.0816 -1.3138 -2.8732
30339SOL     OW 2995  11.545  13.324   0.603  0.0118  0.1805  0.5655
30339SOL    HW1 2996  11.568  13.319   0.696  1.4088 -0.1722  0.2295
30339SOL    HW2 2997  11.563  13.237   0.569 -2.4799 -0.3137  0.3558
30340SOL     OW 2998   2.754   3.000  11.251 -0.2588 -0.6567  0.1557
30340SOL    HW1 2999   2.820   2.932  11.236 -0.5485 -0.7804 -0.5867
30340SOL    HW2 3000   2.680   2.953  11.290 -0.4735 -0.7780 -0.3923
30341SOL     OW 3001   4.423   5.640  11.786  0.1892  0.6028 -0.3103
30341SOL    HW1 3002   4.489   5.709  11.790  0.7875  0.1787 -2.0598
30341SOL    HW2 3003   4.412   5.621  11.693 -3.5040  1.6406 -0.2516
30342SOL     OW 3004   6.151  12.207   1.224 -0.0214  0.6195 -0.3535
30342SOL    HW1 3005   6.216  12.229   1.291 -0.2114 -0.4771  0.2077
30342SOL    HW2 3006   6.198  12.152   1.162 -0.8890 -2.0759  1.2278
30343SOL     OW 3007   4.087   1.666   5.581 -0.5222  0.0169  0.3052
30343SOL    HW1 3008   4.133   1.675   5.497  1.9878  0.8644  1.6470
30343SOL    HW2 3009   4.084   1.571   5.596  0.1088 -0.0940 -0.1957
30344SOL     OW 3010  10.146   7.176   9.606 -0.1739 -0.1773  0.4076
30344SOL    HW1 3011  10.210   7.120   9.649 -0.1474  1.1613  2.2238
30344SOL    HW2 3012  10.100   7.117   9.546  2.2474 -1.3247 -0.4605
30345SOL     OW 3013   3.873   7.103   6.111  0.0054  0.1562 -0.3391
30345SOL    HW1 3014   3.877   7.077   6.203 -1.3936  1.2104  0.0397
30345SOL    HW2 3015   3.917   7.188   6.107 -1.0691  0.7286 -0.3849
30346SOL     OW 3016   7.732   4.432   8.567  0.0324  0.3138  0.0745
30346SOL    HW1 3017   7.648   4.451   8.526 -0.7108  0.5877  1.6517
30346SOL    HW2 3018   7.790   4.501   8.536 -1.4667  2.7174  2.2389
30347SOL     OW 3019   0.193   3.128   1.426  0.1615 -0.3241 -0.2510
30347SOL    HW1 3020   0.284   3.109   1.406  0.4621  1.9323 -1.3381
30347SOL    HW2 3021   0.176   3.082   1.508  2.3538 -0.5438  0.1330
30348SOL     OW 3022   3.855  12.040  11.910 -0.0669  0.6688 -0.7203
30348SOL    HW1 3023   3.932  11.984  11.895  0.0167  0.4644  0.3401
30348SOL    HW2 3024   3.890  12.115  11.958 -0.6476  0.1358  0.5866
30349SOL     OW 3025   8.506  13.125  11.888 -0.0774 -0.4837 -0.7481
30349SOL    HW1 3026   8.571  13.150  11.823 -0.7207  0.3948 -1.0676
30349SOL    HW2 3027   8.547  13.053  11.936  1.9130  1.2663  0.3442
30350SOL     OW 3028  12.758   1.516   0.795  0.3606  0.2783 -0.0400
30350SOL    HW1 3029  12.707   1.439   0.770  0.9259  0.1799 -0.9194
30350SOL    HW2 3030  12.803   1.490   0.876 -0.2230  0.0412  0.2178
30351SOL     OW 3031  11.315   7.915   2.639  0.0514 -0.1699 -0.2993
30351SOL    HW1 3032  11.404   7.883   2.653  0.5245  1.7345  1.4414
30351SOL    HW2 3033  11.268   7.891   2.719 -0.7071 -0.1584 -0.7294
30352SOL     OW 3034   7.428   5.313   9.847 -0.5416 -0.1991 -0.4285
30352SOL    HW1 3035   7.502   5.260   9.877 -0.6698  1.1651  2.5857
30352SOL    HW2 3036   7.464   5.401   9.837 -1.6897  0.4508  0.9362
30353SOL     OW 3037   9.808  12.302   3.411  0.4371 -0.2649 -0.4646
30353SOL    HW1 3038   9.845  12.386   3.440 -1.5356  0.6054 -0.3275
30353SOL    HW2 3039   9.737  12.327   3.351  0.2073 -1.8681 -0.8886
30354SOL     OW 3040   3.391  10.316   2.818  0.3634  0.4254  0.1891
30354SOL    HW1 3041   3.394  10.362   2.735 -0.5547  0.6502  0.2739
30354SOL    HW2 3042   3.344  10.235   2.799  1.6717 -0.3522  0.1145
30355SOL     OW 3043   2.380   0.694   2.235 -0.5094  0.0431 -0.1069
30355SOL    HW1 3044   2.447   0.763   2.239 -0.7821  0.4494 -1.8563
30355SOL    HW2 3045   2.308   0.733   2.186 -0.0062 -1.9556 -2.6363
30356SOL     OW 3046  13.185   9.812  11.506  0.2325 -0.1919  0.0836
30356SOL    HW1 3047  13.096   9.813  11.542  0.8927 -0.0065  1.7925
30356SOL    HW2 3048  13.199   9.901  11.473  0.3014  0.1986  1.1551
30357SOL     OW 3049   0.443   8.530   8.108 -0.2843 -0.6798  0.0099
30357SOL    HW1 3050   0.492   8.475   8.046  2.2280 -0.5659  1.7552
30357SOL    HW2 3051   0.459   8.619   8.079 -0.3500 -0.6908 -0.0592
30358SOL     OW 3052   5.135   3.232   1.256 -0.0857 -0.4060 -0.3732
30358SOL    HW1 3053   5.061   3.236   1.317  1.0040  0.3996  0.9596
30358SOL    HW2 3054   5.127   3.311   1.203 -0.2023 -0.3511 -0.2744
30359SOL     OW 3055   5.231  10.081  10.604 -0.0301  0.3455  0.7675
30359SOL    HW1 3056   5.164  10.093  10.672  1.3622 -1.3765  2.5627
30359SOL    HW2 3057   5.313  10.102  10.647  0.8298  0.0854 -0.6782
30360SOL     OW 3058  12.055   3.288  13.753  0.3205 -0.5233  0.2315
30360SOL    HW1 3059  12.001   3.212  13.732  0.2054 -0.1900 -0.7347
30360SOL    HW2 3060  12.068   3.283  13.848 -3.2116  0.5457  0.9019
30361SOL     OW 3061  13.679   8.866   5.097  0.4438  0.3022 -0.0162
30361SOL    HW1 3062  13.624   8.930   5.142  0.3865 -0.8872  1.7083
30361SOL    HW2 3063  13.620   8.822   5.036 -0.0016  0.5447  0.2370
30362SOL     OW 3064  13.928   0.119  10.426 -0.7278  0.1375 -0.0255
30362SOL    HW1 3065  13.989   0.087  10.492 -1.1426 -3.0921 -1.0601
30362SOL    HW2 3066  13.983   0.149  10.354 -0.3190  2.3320  1.1154
30363SOL     OW 3067   2.860  13.171   2.258 -0.4390 -0.0136 -1.0018
30363SOL    HW1 3068   2.863  13.123   2.176 -1.4964 -1.8923 -0.0242
30363SOL    HW2 3069   2.860  13.263   2.233  1.3565 -0.4635 -2.9895
30364SOL     OW 3070   9.104   1.533   4.577  0.4874 -0.4339 -0.2821
30364SOL    HW1 3071   9.173   1.597   4.560  0.2295  0.4704  1.7239
30364SOL    HW2 3072   9.042   1.545   4.504  0.1026  2.1677  0.3641
30365SOL     OW 3073   1.890   0.110  13.635  0.1417 -0.0622 -0.2030
30365SOL    HW1 3074   1.891   0.045  13.705 -0.0923 -1.1916 -1.2179
30365SOL    HW2 3075   1.969   0.163  13.651  1.8550 -2.2674 -0.8606
30366SOL     OW 3076   6.835   9.820   9.091  0.1210  0.0320  0.6666
30366SOL    HW1 3077   6.757   9.833   9.037  0.2144  0.7951  0.7165
30366SOL    HW2 3078   6.885   9.753   9.044  0.0035  0.3880  0.0283
30367SOL     OW 3079  11.678   6.402   8.535  0.4491 -0.2842 -0.0525
30367SOL    HW1 3080  11.755   6.450   8.565  0.3390 -0.2157  0.1224
30367SOL    HW2 3081  11.696   6.311   8.557 -1.1924  0.1133  3.7301
30368SOL     OW 3082  13.396  10.908   1.348 -0.1980  0.5430 -0.6938
30368SOL    HW1 3083  13.416  10.899   1.255 -0.2006  2.4157 -0.9176
30368SOL    HW2 3084  13.332  10.839   1.365 -0.1132  0.0887 -2.0443
30369SOL     OW 3085   6.032   0.836  11.580  0.0081 -0.2291  0.4905
30369SOL    HW1 3086   6.020   0.825  11.675  1.4342 -1.6715  0.5473
30369SOL    HW2 3087   5.943   0.834  11.545 -0.6394  1.4023  1.8549
30370SOL     OW 3088   5.906   0.706   6.471 -0.0424 -0.5255 -0.0954
30370SOL    HW1 3089   5.992   0.684   6.436  0.2358 -0.7163  0.6946
30370SOL    HW2 3090   5.878   0.628   6.518 -0.6845 -0.4901 -0.4044
30371SOL     OW 3091  10.330   6.870   7.129 -0.0917  0.1378 -0.3005
30371SOL    HW1 3092  10.265   6.809   7.095 -0.0810  0.9888 -1.9720
30371SOL    HW2 3093  10.407   6.858   7.073  0.7378  0.0635  0.8216
30372SOL     OW 3094  11.727   7.577   3.087 -0.1743  0.2555  0.0539
30372SOL    HW1 3095  11.639   7.543   3.102 -0.2989  1.3474  2.0484
30372SOL    HW2 3096  11.785   7.508   3.118 -0.3617  0.3250  0.5645
30373SOL     OW 3097  10.770  10.573  12.669  0.2164  0.1530 -0.0457
30373SOL    HW1 3098  10.808  10.487  12.687  1.3208  0.4058 -1.0090
30373SOL    HW2 3099  10.693  10.555  12.615  0.6075 -0.2223 -0.4861
30374SOL     OW 3100   9.010   4.559   8.819  0.4451  0.1965 -0.9586
30374SOL    HW1 3101   8.999   4.603   8.735  2.0680  1.4183 -0.5723
30374SOL    HW2 3102   9.099   4.523   8.817  1.3419  2.0988  0.9999
30375SOL     OW 3103   7.635  12.411   1.579  0.4178 -0.1203 -0.0288
30375SOL    HW1 3104   7.624  12.394   1.672 -1.0839  0.4192 -0.0888
30375SOL    HW2 3105   7.555  12.376   1.538 -0.0294  1.7267 -0.8233
30376SOL     OW 3106   3.058   4.319  10.784  0.2455  0.1771 -0.4018
30376SOL    HW1 3107   3.100   4.318  10.698 -0.5246  1.7429 -0.8453
30376SOL    HW2 3108   3.088   4.400  10.824  0.3374 -0.3819  0.6948
30377SOL     OW 3109   8.583   5.102   4.880  0.3988 -0.2964 -0.2214
30377SOL    HW1 3110   8.539   5.094   4.795  0.5373 -1.1547 -0.2173
30377SOL    HW2 3111   8.622   5.016   4.895  0.7649 -0.0085  0.5012
30378SOL     OW 3112   6.386   0.603   3.068  0.6212  0.2085 -0.0635
30378SOL    HW1 3113   6.295   0.606   3.095  0.5590  0.2405 -0.2735
30378SOL    HW2 3114   6.383   0.610   2.972  0.8110 -0.3810 -0.1140
30379SOL     OW 3115  11.366  13.740  13.959 -0.1536  0.1697 -0.4735
30379SOL    HW1 3116  11.357  13.650  13.930  1.9349 -0.0442 -0.6192
30379SOL    HW2 3117  11.445  13.772  13.914  1.2659  0.8933  2.3373
30380SOL     OW 3118   4.329   5.513  13.397  0.1109  0.3516 -0.0281
30380SOL    HW1 3119   4.283   5.530  13.314 -1.5004 -0.7686  0.5697
30380SOL    HW2 3120   4.296   5.580  13.457 -1.1253 -0.6925  0.5115
30381SOL     OW 3121   4.569   3.987   0.848 -0.1191 -0.2067 -0.5487
30381SOL    HW1 3122   4.628   3.921   0.885  2.2361 -0.1026 -3.6434
30381SOL    HW2 3123   4.521   3.940   0.779  1.5605  1.1185 -2.7741
30382SOL     OW 3124   8.596   2.528   2.118 -0.1298  0.2997  0.3103
30382SOL    HW1 3125   8.660   2.481   2.065  0.8611  1.0273  0.8226
30382SOL    HW2 3126   8.611   2.621   2.099 -0.6423  0.5094  0.8728
30383SOL     OW 3127  11.319  12.004  12.069  0.5854 -0.4243 -0.2234
30383SOL    HW1 3128  11.302  12.088  12.111  3.0102  0.2167 -0.3396
30383SOL    HW2 3129  11.322  12.024  11.975 -0.7029 -1.0368 -0.4103
30384SOL     OW 3130   9.110  10.219   9.277 -0.3156 -0.8911  0.2516
30384SOL    HW1 3131   9.128  10.293   9.336  2.0939  0.6930 -2.1970
30384SOL    HW2 3132   9.174  10.152   9.303 -0.1975 -0.7509  0.3289
30385SOL     OW 3133  12.064  10.265   4.928 -0.8670  0.0119 -0.3133
30385SOL    HW1 3134  12.024  10.352   4.938  0.0154  0.6442 -1.9166
30385SOL    HW2 3135  12.077  10.256   4.834 -0.5678 -1.7108 -0.1319
30386SOL     OW 3136   1.175  12.544   5.049  0.2585 -0.2766  0.7741
30386SOL    HW1 3137   1.083  12.542   5.073  0.2018 -0.0999  0.5740
30386SOL    HW2 3138   1.221  12.516   5.128  0.2085  2.1853  1.7945
30387SOL     OW 3139   9.274   1.425  10.339 -0.5072 -0.0939  0.0309
30387SOL    HW1 3140   9.325   1.506  10.329  1.8025 -1.3676  0.8397
30387SOL    HW2 3141   9.187   1.455  10.366 -0.3467  2.2010 -1.6857
30388SOL     OW 3142   2.702  10.291  13.275  0.2996  0.1259 -0.5475
30388SOL    HW1 3143   2.746  10.305  13.359 -0.9707  0.2103  0.1320
30388SOL    HW2 3144   2.739  10.358  13.217  1.4448 -0.1520 -0.1786
30389SOL     OW 3145   0.305   6.963   4.371  0.5639 -0.5247  0.4070
30389SOL    HW1 3146   0.371   6.900   4.343  1.1725  1.4715 -3.4088
30389SOL    HW2 3147   0.343   7.048   4.349 -2.5843  0.8000 -0.4824
30390SOL     OW 3148   3.882  13.080   1.214  0.2782 -1.1059  0.6778
30390SOL    HW1 3149   3.882  13.101   1.121 -0.0785  1.7889  1.2272
30390SOL    HW2 3150   3.795  13.044   1.232 -0.1945 -0.2484  0.1456
30391SOL     OW 3151   8.122   5.099   0.995 -0.0486  0.1224 -0.0429
30391SOL    HW1 3152   8.114   5.015   0.949  0.3870  0.7913 -1.3932
30391SOL    HW2 3153   8.215   5.106   1.017  0.1024  0.6761 -0.8114
30392SOL     OW 3154   4.111   5.469   5.869  0.0659  0.1701 -0.2236
30392SOL    HW1 3155   4.108   5.489   5.963 -4.7173  0.0488 -0.0687
30392SOL    HW2 3156   4.103   5.373   5.865  0.3684  0.1631 -0.7679
30393SOL     OW 3157   3.027  10.695  12.289  0.0378  0.3880 -0.5430
30393SOL    HW1 3158   3.055  10.610  12.322 -0.4232  0.1669 -0.7145
30393SOL    HW2 3159   3.036  10.755  12.363 -0.7198 -0.0422 -0.0893
30394SOL     OW 3160   2.107   8.359  12.335  0.4147  0.1808  0.1469
30394SOL    HW1 3161   2.141   8.419  12.400  0.3114  1.3365 -0.8149
30394SOL    HW2 3162   2.184   8.323  12.292  0.4740  0.6065 -0.1136
30395SOL     OW 3163   9.551   6.449   9.285 -0.4094 -0.4778 -0.4174
30395SOL    HW1 3164   9.610   6.457   9.210 -1.3635 -2.4662 -1.4591
30395SOL    HW2 3165   9.609   6.425   9.358  0.1775 -1.8701 -1.2995
30396SOL     OW 3166  13.824   9.055  12.311 -0.1110 -0.2554  0.1497
30396SOL    HW1 3167  13.886   8.988  12.283 -0.1734  0.3475 -1.6074
30396SOL    HW2 3168  13.870   9.104  12.378 -0.1505 -2.1444  1.6208
30397SOL     OW 3169  11.038   7.241   7.066  0.1239  0.1504 -0.0684
30397SOL    HW1 3170  11.014   7.328   7.098 -1.3566 -0.0404 -0.6126
30397SOL    HW2 3171  11.030   7.246   6.971 -1.7990 -1.0566 -0.0282
30398SOL     OW 3172   1.998   5.595  10.791  0.6028  0.2324  0.4298
30398SOL    HW1 3173   1.982   5.688  10.771 -2.0659 -0.1542  0.4642
30398SOL    HW2 3174   1.994   5.590  10.887 -0.8102 -0.1403  0.3631
30399SOL     OW 3175   3.450   1.597  10.167 -0.2081 -0.0205 -0.1542
30399SOL    HW1 3176   3.507   1.539  10.117 -0.3160  0.3628 -0.7199
30399SOL    HW2 3177   3.488   1.597  10.255  1.4731  1.2851 -0.8346
30400SOL     OW 3178   1.710  11.056   1.461 -0.1078 -0.1976 -0.8157
30400SOL    HW1 3179   1.793  11.098   1.441 -1.5872  2.9998 -0.8731
30400SOL    HW2 3180   1.707  11.054   1.557 -0.2962  0.4467 -0.8050
30401SOL     OW 3181   1.010   8.361   1.210  0.0473  0.3058  0.4572
30401SOL    HW1 3182   1.074   8.432   1.211 -0.0270  0.4853 -2.0841
30401SOL    HW2 3183   1.060   8.282   1.192 -0.2348  0.1990  0.1230
30402SOL     OW 3184   7.992   1.730   2.512 -0.4098  0.0842 -0.3997
30402SOL    HW1 3185   7.902   1.726   2.546 -0.0344  0.9155  0.7785
30402SOL    HW2 3186   7.997   1.660   2.448 -1.5642 -0.7134  0.3435
30403SOL     OW 3187   2.361   2.115   4.804 -0.5471 -0.2782 -0.0091
30403SOL    HW1 3188   2.360   2.211   4.812 -1.1210 -0.1458 -1.4607
30403SOL    HW2 3189   2.283   2.087   4.852 -0.5762  0.0038  0.1122
30404SOL     OW 3190  10.555   5.189   4.323  0.3069 -0.1782 -0.7814
30404SOL    HW1 3191  10.582   5.257   4.385 -0.0107  1.9648 -2.8427
30404SOL    HW2 3192  10.474   5.223   4.284 -0.5292 -2.3375 -1.0574
30405SOL     OW 3193   0.252  12.953   9.468  0.1659  0.2238  0.2575
30405SOL    HW1 3194   0.243  12.921   9.378  0.0721 -0.3488  0.4633
30405SOL    HW2 3195   0.169  12.997   9.487 -0.4755 -1.0759  0.6046
30406SOL     OW 3196   1.847   8.251   9.899  0.1084  0.3605 -0.5175
30406SOL    HW1 3197   1.785   8.276   9.831 -1.8385  0.3456  1.1371
30406SOL    HW2 3198   1.929   8.233   9.853 -0.0383  3.8440 -2.4806
30407SOL     OW 3199   8.744  10.142   3.394  0.5467  0.0511 -0.0794
30407SOL    HW1 3200   8.800  10.147   3.317 -0.1894  0.7733 -0.5798
30407SOL    HW2 3201   8.755  10.226   3.438  2.0687 -0.8557  1.4247
30408SOL     OW 3202   4.520   4.495  10.508 -0.3011 -0.2169  0.3626
30408SOL    HW1 3203   4.595   4.521  10.454 -1.8639 -0.8315 -2.2863
30408SOL    HW2 3204   4.516   4.400  10.501 -2.0749 -0.1106 -0.7066
30409SOL     OW 3205   3.981   2.561   5.912  0.4830  0.2781  0.0441
30409SOL    HW1 3206   3.908   2.573   5.973  0.5662  0.0851  0.1841
30409SOL    HW2 3207   4.021   2.647   5.904 -0.0669  0.4946 -0.4212
30410SOL     OW 3208   2.374   9.396   8.021 -0.4498 -0.3823 -0.2653
30410SOL    HW1 3209   2.289   9.433   8.045 -0.9298 -2.1876  1.0798
30410SOL    HW2 3210   2.425   9.397   8.103  0.2913 -0.6340 -0.7118
30411SOL     OW 3211   8.043   0.151   1.098 -0.0637  0.2030 -0.1032
30411SOL    HW1 3212   7.960   0.143   1.050  0.1359  0.2304 -0.4575
30411SOL    HW2 3213   8.067   0.243   1.089  1.1848 -0.2364 -2.0108
30412SOL     OW 3214   8.285   2.750   8.884 -0.3169 -0.1001  0.3314
30412SOL    HW1 3215   8.368   2.796   8.872 -0.5562  0.2980  0.1972
30412SOL    HW2 3216   8.277   2.742   8.979  0.0036 -0.3822  0.3387
30413SOL     OW 3217   3.578   9.511  11.794 -0.7425 -0.4415  0.0260
30413SOL    HW1 3218   3.513   9.555  11.739 -0.5240 -0.2877 -0.1100
30413SOL    HW2 3219   3.656   9.504  11.738  0.0496  1.2498  0.8673
30414SOL     OW 3220   6.763  11.599   1.122 -0.7617 -0.4295 -0.1315
30414SOL    HW1 3221   6.708  11.628   1.194  0.8832 -0.4421  1.2005
30414SOL    HW2 3222   6.702  11.576   1.052 -2.4163 -0.5089  1.2842
30415SOL     OW 3223  10.548  11.841  10.393  0.0716  0.1490  0.0360
30415SOL    HW1 3224  10.566  11.858  10.301 -0.9150  0.5560 -0.0900
30415SOL    HW2 3225  10.604  11.767  10.415  1.6209  1.1198 -0.4198
30416SOL     OW 3226   0.492   7.619   4.765  0.0942 -0.2459 -0.2773
30416SOL    HW1 3227   0.404   7.601   4.797  0.4275  0.5448  1.1787
30416SOL    HW2 3228   0.480   7.682   4.694 -0.4474  0.9505  0.8435
30417SOL     OW 3229   6.302   1.237   6.962  0.1860  0.2378  0.3191
30417SOL    HW1 3230   6.362   1.312   6.963  1.9571 -1.1000  0.5038
30417SOL    HW2 3231   6.292   1.215   6.869 -0.5918  0.8691  0.2431
30418SOL     OW 3232   3.284   6.982   9.238 -0.1360 -0.0441 -0.8209
30418SOL    HW1 3233   3.320   6.894   9.222 -0.7075 -0.0217 -2.4325
30418SOL    HW2 3234   3.205   6.985   9.184 -2.2520  0.1699  2.0842
30419SOL     OW 3235  13.466   0.153   8.607 -0.2922 -0.3022  0.8712
30419SOL    HW1 3236  13.418   0.109   8.537 -2.0996  0.3622  1.6284
30419SOL    HW2 3237  13.541   0.193   8.563 -0.7218 -0.9095 -0.4650
30420SOL     OW 3238   7.573   8.180   3.561 -0.0648  0.6029 -0.0957
30420SOL    HW1 3239   7.662   8.151   3.581 -0.5006 -1.4340 -0.8319
30420SOL    HW2 3240   7.551   8.241   3.631  1.6572  0.6174  0.4780
30421SOL     OW 3241   1.608   7.153   0.245  0.3275  0.0957 -0.2581
30421SOL    HW1 3242   1.626   7.061   0.264 -0.3344 -0.5700 -2.5321
30421SOL    HW2 3243   1.536   7.152   0.182 -0.0055  2.2090 -0.0159
30422SOL     OW 3244   0.638  13.029   4.673 -0.3749 -0.4539  0.2835
30422SOL    HW1 3245   0.606  13.102   4.727 -1.1948 -0.9075  0.4298
30422SOL    HW2 3246   0.715  13.064   4.628 -0.5014  0.3647  0.6857
30423SOL     OW 3247  11.069   6.128   8.154 -0.1609 -0.9009  0.1077
30423SOL    HW1 3248  11.146   6.173   8.120 -0.0293 -2.0646 -1.1795
30423SOL    HW2 3249  11.004   6.198   8.165  0.2271 -0.2830 -1.2799
30424SOL     OW 3250   2.720  13.038   8.374 -0.2848  0.0924 -0.2364
30424SOL    HW1 3251   2.764  13.121   8.390 -2.6810  1.3074  0.5829
30424SOL    HW2 3252   2.650  13.035   8.439 -0.2231 -2.6311 -0.1972
30425SOL     OW 3253  10.219   0.026   1.737  0.3593 -0.4171 -0.3221
30425SOL    HW1 3254  10.233   0.071   1.819  0.2467  1.1717 -1.1436
30425SOL    HW2 3255  10.124   0.018   1.730  0.2884  0.9292 -1.0522
30426SOL     OW 3256  10.310   0.476  12.522 -0.2518 -0.1401 -0.2971
30426SOL    HW1 3257  10.392   0.429  12.536  0.1144 -0.3493 -2.7503
30426SOL    HW2 3258  10.300   0.529  12.602  0.9827 -1.8887  1.1261
30427SOL     OW 3259   8.776   5.132   3.011  0.2553  0.5076 -0.1156
30427SOL    HW1 3260   8.732   5.216   3.002  0.0934  0.2731 -1.8676
30427SOL    HW2 3261   8.823   5.121   2.928 -0.2568 -1.4234 -0.1819
30428SOL     OW 3262   1.787   4.184   7.131  0.0941 -0.4057 -0.1649
30428SOL    HW1 3263   1.749   4.143   7.053  0.6145  1.1204 -1.2663
30428SOL    HW2 3264   1.836   4.113   7.173 -2.0899 -1.8541  0.0970
30429SOL     OW 3265   3.624  10.214   5.057  0.5056 -0.3504 -0.1897
30429SOL    HW1 3266   3.660  10.280   4.999  0.1852  0.6855  0.7640
30429SOL    HW2 3267   3.530  10.230   5.059  0.4515 -0.6743  0.2439
30430SOL     OW 3268  13.896   5.168   6.981  0.2876  0.6199  0.4525
30430SOL    HW1 3269  13.893   5.261   7.004  2.2761  1.5899 -2.5769
30430SOL    HW2 3270  13.983   5.139   7.009 -0.1656 -0.2548  1.0044
30431SOL     OW 3271   1.713   2.105   0.030  0.8474  0.2099 -0.2021
30431SOL    HW1 3272   1.688   2.172   0.093 -0.7797 -0.3106 -0.2190
30431SOL    HW2 3273   1.714   2.150  -0.054 -1.0731  0.0966 -0.3342
30432SOL     OW 3274   8.046  10.312   3.531  0.2613  0.7839  0.2195
30432SOL    HW1 3275   7.996  10.339   3.453 -1.1007  1.5674  1.3093
30432SOL    HW2 3276   8.135  10.300   3.499 -0.1062  1.7935 -1.3307
30433SOL     OW 3277   4.578   7.590   5.075  0.3652  0.5393  0.4738
30433SOL    HW1 3278   4.516   7.623   5.010  0.2452 -0.1613  0.2209
30433SOL    HW2 3279   4.663   7.593   5.031 -0.0219 -2.2770 -0.6910
30434SOL     OW 3280   3.750  10.924   6.397 -0.0671  0.4222 -0.1325
30434SOL    HW1 3281   3.701  11.005   6.409 -2.0566 -0.6064 -0.7678
30434SOL    HW2 3282   3.743  10.878   6.481  1.3110  1.0000  0.3230
30435SOL     OW 3283   6.264   7.001   1.962  0.0723  0.2475  0.1460
30435SOL    HW1 3284   6.283   7.064   1.893 -0.2271  0.4972  0.2910
30435SOL    HW2 3285   6.289   6.916   1.925  0.0647  0.3987 -0.2057
30436SOL     OW 3286   9.314  12.098   6.385  0.8011  0.2254 -0.4502
30436SOL    HW1 3287   9.358  12.025   6.430 -2.4272 -1.8647 -0.3899
30436SOL    HW2 3288   9.262  12.056   6.317 -1.8474  2.3261  0.1217
30437SOL     OW 3289  10.163  11.824  13.518  0.1457  0.2768  0.2402
30437SOL    HW1 3290  10.243  11.798  13.563  0.7140  0.3970 -0.6748
30437SOL    HW2 3291  10.152  11.759  13.449 -0.8748 -0.0741  0.7148
30438SOL     OW 3292  11.197  10.628  13.513  0.0683 -0.1469  0.2347
30438SOL    HW1 3293  11.270  10.605  13.571  0.0214 -0.6951  0.0873
30438SOL    HW2 3294  11.239  10.652  13.430  0.1178  0.2875  0.3861
30439SOL     OW 3295   7.951  10.346   3.272 -0.0593 -0.0893  0.1452
30439SOL    HW1 3296   7.945  10.403   3.195 -1.5423 -0.4533 -0.0335
30439SOL    HW2 3297   7.997  10.268   3.241 -2.4026 -1.1182 -0.9680
30440SOL     OW 3298   6.167  12.567  12.303 -0.5468  0.0219  0.6698
30440SOL    HW1 3299   6.074  12.589  12.307 -0.5452  0.0148  0.7528
30440SOL    HW2 3300   6.202  12.592  12.389 -0.4501  0.1206  0.6028
30441SOL     OW 3301  11.690   1.939   0.487 -0.6194 -0.2327  0.4704
30441SOL    HW1 3302  11.673   1.853   0.526 -2.5192  0.5674  1.5406
30441SOL    HW2 3303  11.746   1.984   0.551  0.4105 -0.6593 -0.1098
30442SOL     OW 3304   8.047   5.123  13.572 -0.3011  0.5277  0.7447
30442SOL    HW1 3305   8.019   5.214  13.559 -0.3746  0.5178  0.8316
30442SOL    HW2 3306   8.138   5.122  13.543 -0.5375  0.4438 -0.0108
30443SOL     OW 3307   7.582  12.973   8.826 -0.3400  0.0215  0.0587
30443SOL    HW1 3308   7.627  13.058   8.827 -0.2934 -0.0058  0.3130
30443SOL    HW2 3309   7.506  12.987   8.770 -1.1436  0.6423  1.2525
30444SOL     OW 3310   5.009  13.072   0.492  0.1091  0.7535 -0.7587
30444SOL    HW1 3311   4.947  13.015   0.537  0.4571  1.5767  0.8578
30444SOL    HW2 3312   4.955  13.135   0.445 -0.2715 -0.1214 -1.4993
30445SOL     OW 3313   1.460  13.789   0.369 -0.4406 -0.4816 -0.2452
30445SOL    HW1 3314   1.464  13.702   0.411  0.4578 -0.8208 -0.9969
30445SOL    HW2 3315   1.510  13.845   0.428  0.1611 -0.7866 -0.4602
30446SOL     OW 3316  11.741   8.416   6.832  0.0300 -0.6094  0.0255
30446SOL    HW1 3317  11.768   8.339   6.883  2.3509  0.4500  0.5330
30446SOL    HW2 3318  11.683   8.465   6.890 -1.4742 -1.9344 -0.3036
30447SOL     OW 3319   8.961   2.715   6.683  0.7988  0.1373  0.5890
30447SOL    HW1 3320   8.930   2.744   6.768 -0.5694 -1.3155  0.6214
30447SOL    HW2 3321   8.984   2.796   6.637 -4.2947  1.6310  0.0941
30448SOL     OW 3322   2.017   3.189   3.942  0.0302 -0.4132  0.4897
30448SOL    HW1 3323   2.062   3.217   3.863  0.0845  1.9300  1.2784
30448SOL    HW2 3324   1.969   3.266   3.972  1.5271 -0.5649  3.7588
30449SOL     OW 3325  12.040  11.411  11.401 -0.3732 -0.7681  0.3704
30449SOL    HW1 3326  12.056  11.389  11.493  0.4064 -3.0593 -0.2482
30449SOL    HW2 3327  12.125  11.403  11.359 -1.3210 -3.8021 -1.2540
30450SOL     OW 3328  10.820   4.393  11.718 -0.5461 -0.2878 -0.0849
30450SOL    HW1 3329  10.796   4.484  11.703  0.1591 -0.0219  0.3510
30450SOL    HW2 3330  10.759   4.362  11.785 -2.1466 -0.7747 -1.6936
30451SOL     OW 3331  11.242   7.179   1.512 -1.0413  0.3534  0.5495
30451SOL    HW1 3332  11.260   7.262   1.555  0.6379  0.8398 -0.9534
30451SOL    HW2 3333  11.264   7.112   1.577  1.3560  1.0578  0.5390
30452SOL     OW 3334  11.815   7.647   2.827  0.5489 -0.3436 -0.4943
30452SOL    HW1 3335  11.889   7.585   2.824  0.8775  0.0684 -1.8095
30452SOL    HW2 3336  11.775   7.632   2.912 -0.1262 -3.2429 -1.1948
30453SOL     OW 3337   5.466  11.301  13.988  0.0021 -0.2169 -0.3062
30453SOL    HW1 3338   5.438  11.292  14.079  0.2866 -1.2154 -0.2985
30453SOL    HW2 3339   5.385  11.294  13.937 -0.4470  2.3679 -0.0840
30454SOL     OW 3340  13.213   5.919   9.026 -0.0046  0.1834 -0.8725
30454SOL    HW1 3341  13.159   5.997   9.032 -0.7608 -0.3519 -0.6549
30454SOL    HW2 3342  13.274   5.926   9.100  1.5644  1.7543 -2.2144
30455SOL     OW 3343  10.390  11.704   4.731  0.3329 -0.4488  0.1907
30455SOL    HW1 3344  10.380  11.799   4.727  0.6843 -0.4495 -0.8561
30455SOL    HW2 3345  10.358  11.680   4.818 -2.6636  0.2900 -0.6070
30456SOL     OW 3346  12.446   9.238   1.542 -0.6649  0.3386 -0.1266
30456SOL    HW1 3347  12.495   9.290   1.605 -1.8019 -0.9641  1.9615
30456SOL    HW2 3348  12.391   9.302   1.497  0.3008  1.3367  0.0577
30457SOL     OW 3349  11.694   4.261   8.495 -0.3608 -0.4938  0.1676
30457SOL    HW1 3350  11.772   4.288   8.544 -0.4353 -1.1363  0.6501
30457SOL    HW2 3351  11.632   4.234   8.562 -0.7307 -0.6928 -0.2527
30458SOL     OW 3352  12.884   4.693   7.441 -0.5206  0.1381  0.2691
30458SOL    HW1 3353  12.911   4.773   7.395  0.6104 -1.0804 -1.3216
30458SOL    HW2 3354  12.829   4.646   7.378  0.0824 -1.0288  0.5765
30459SOL     OW 3355  10.164   9.042   8.868 -0.2924 -0.4561 -0.5369
30459SOL    HW1 3356  10.209   9.033   8.952  1.2608 -1.2598 -1.4007
30459SOL    HW2 3357  10.085   9.092   8.887  0.6857  0.4962  1.1587
30460SOL     OW 3358   9.174  13.637   2.184  0.1348 -0.3974  0.6899
30460SOL    HW1 3359   9.231  13.707   2.151 -1.6001  0.4331 -0.6575
30460SOL    HW2 3360   9.136  13.599   2.106 -2.0190 -0.1880  1.5799
30461SOL     OW 3361   8.180   4.278  13.269  0.3933  0.0988  0.0346
30461SOL    HW1 3362   8.105   4.219  13.259  0.7075  0.0850 -3.8385
30461SOL    HW2 3363   8.255   4.219  13.276  0.2724  0.1232  2.0516
30462SOL     OW 3364   5.263   7.521   5.878  0.1304 -0.1780  0.2109
30462SOL    HW1 3365   5.248   7.613   5.855 -2.1496 -0.5285  0.0708
30462SOL    HW2 3366   5.226   7.471   5.806  0.3034 -1.2305  0.8241
30463SOL     OW 3367   0.171   0.599   2.719  0.0704  0.3188  0.4483
30463SOL    HW1 3368   0.209   0.578   2.805  1.3221 -2.2299 -0.6363
30463SOL    HW2 3369   0.243   0.636   2.669 -0.1200 -0.0776 -0.1237
30464SOL     OW 3370  13.088  13.122   2.300 -0.6932 -0.4136  0.2604
30464SOL    HW1 3371  13.018  13.187   2.292 -1.0174 -0.8023 -0.1106
30464SOL    HW2 3372  13.160  13.157   2.248 -0.3441  0.3191  1.1883
30465SOL     OW 3373   0.481   8.446  12.121  0.0229  0.1456  0.4934
30465SOL    HW1 3374   0.483   8.356  12.154  0.4768  0.1224  0.4109
30465SOL    HW2 3375   0.418   8.444  12.049  0.8360 -0.3554 -0.2167
30466SOL     OW 3376  13.301   7.589   9.694 -0.9629 -0.1948 -0.2956
30466SOL    HW1 3377  13.322   7.603   9.601 -2.6732  1.3202 -0.4873
30466SOL    HW2 3378  13.269   7.498   9.697 -0.3831 -0.4417 -1.0723
30467SOL     OW 3379   8.058   5.692   6.138  0.0190 -0.6457 -0.1299
30467SOL    HW1 3380   8.023   5.713   6.051  1.0058 -1.2902 -0.6996
30467SOL    HW2 3381   8.152   5.711   6.131  0.1716 -1.0671  0.6861
30468SOL     OW 3382   7.903   9.388  12.388  0.3815  0.4109 -0.0613
30468SOL    HW1 3383   7.982   9.442  12.389  1.3306 -0.9182 -0.2754
30468SOL    HW2 3384   7.843   9.431  12.449  1.1010  1.6793 -0.2259
30469SOL     OW 3385   1.196   7.382   8.560 -0.2471 -0.2116 -0.5004
30469SOL    HW1 3386   1.279   7.399   8.605  0.0514  0.1839 -1.1655
30469SOL    HW2 3387   1.138   7.452   8.588 -0.4317 -0.6174  0.1398
30470SOL     OW 3388  11.078  12.346  12.727  0.4636 -0.2013  0.1731
30470SOL    HW1 3389  11.166  12.327  12.761 -0.2242 -2.1812  1.0301
30470SOL    HW2 3390  11.044  12.261  12.700 -1.2413  0.5056 -0.0450
30471SOL     OW 3391   8.399   1.576   1.352 -0.6876 -0.0118 -0.0827
30471SOL    HW1 3392   8.403   1.642   1.283 -0.8741  0.3091  0.2130
30471SOL    HW2 3393   8.310   1.581   1.386 -1.0900 -1.2748 -0.8931
30472SOL     OW 3394   1.208  12.515   1.680 -0.9852  0.0873 -0.3107
30472SOL    HW1 3395   1.184  12.580   1.746  0.6443  0.4080  0.0092
30472SOL    HW2 3396   1.226  12.435   1.730  1.2063  0.5918 -0.1968
30473SOL     OW 3397   4.857   9.801   3.666  0.2211  0.3183  0.1595
30473SOL    HW1 3398   4.861   9.777   3.759  1.3347 -0.1948 -0.0077
30473SOL    HW2 3399   4.849   9.717   3.621 -0.2486  0.5650 -0.2230
30474SOL     OW 3400  13.218  12.916  10.727  0.4700  0.6121  0.1898
30474SOL    HW1 3401  13.149  12.970  10.687 -1.9400 -1.2290  1.5890
30474SOL    HW2 3402  13.228  12.842  10.668  2.4184  1.5496 -0.7577
30475SOL     OW 3403   1.048  13.772   9.602  0.1352  0.3618  0.2333
30475SOL    HW1 3404   0.983  13.702   9.597 -0.6462  0.9841  1.2556
30475SOL    HW2 3405   1.132  13.728   9.590 -0.3928 -0.6511  0.1626
30476SOL     OW 3406   7.901   9.164  13.931 -0.4346 -0.6709 -0.6341
30476SOL    HW1 3407   7.955   9.162  14.011  1.9002 -1.2627 -2.1093
30476SOL    HW2 3408   7.816   9.197  13.960  1.2305  2.2018  1.5832
30477SOL     OW 3409  12.341  10.088  11.273 -0.3747  0.3843  0.0859
30477SOL    HW1 3410  12.273  10.117  11.212  0.3111 -0.1198 -0.9501
30477SOL    HW2 3411  12.385  10.168  11.300 -1.6231  0.7660  1.1059
30478SOL     OW 3412  11.133   0.533   1.289 -0.4971 -0.2922  0.0045
30478SOL    HW1 3413  11.081   0.608   1.258  1.3451  0.7874 -0.6309
30478SOL    HW2 3414  11.114   0.529   1.383 -0.8340  0.8234  0.0053
30479SOL     OW 3415   1.695   3.372  12.265  0.4095  0.5898 -0.2777
30479SOL    HW1 3416   1.648   3.409  12.340  0.8863 -0.4719  0.5779
30479SOL    HW2 3417   1.631   3.315  12.223  1.0074 -1.2407  1.1747
30480SOL     OW 3418   1.019   6.864   4.716  0.2254 -0.1868 -0.2912
30480SOL    HW1 3419   0.969   6.794   4.675  1.4808 -2.6255  2.0888
30480SOL    HW2 3420   1.102   6.865   4.667  0.5649 -1.0402  0.2471
30481SOL     OW 3421  10.986   9.238  11.133  0.4433 -0.4168  0.0372
30481SOL    HW1 3422  11.063   9.203  11.177  0.5006 -1.2569 -0.6996
30481SOL    HW2 3423  11.021   9.305  11.073  0.4297  0.2831  0.7995
30482SOL     OW 3424   2.148   0.917   1.153 -0.2108 -0.1170 -0.0141
30482SOL    HW1 3425   2.201   0.985   1.194 -0.6407 -0.0229  0.3984
30482SOL    HW2 3426   2.173   0.919   1.061 -0.5857  0.9570 -0.1145
30483SOL     OW 3427  10.014  12.605  13.492  0.1731 -0.0228 -0.8245
30483SOL    HW1 3428   9.974  12.682  13.452  1.3743  1.4714  0.6997
30483SOL    HW2 3429   9.940  12.558  13.531 -0.4283  1.2131 -0.4201
30484SOL     OW 3430   3.137   3.205   3.698  0.4263  0.3519  0.0252
30484SOL    HW1 3431   3.219   3.253   3.710  0.6006  0.4306 -1.2957
30484SOL    HW2 3432   3.069   3.272   3.702  0.6909  0.8437 -2.1416
30485SOL     OW 3433   9.659   3.816   2.910 -0.0972 -0.2257 -0.1680
30485SOL    HW1 3434   9.564   3.809   2.912 -0.2911  1.6972  2.6658
30485SOL    HW2 3435   9.676   3.910   2.902  1.6422 -0.6393 -2.1440
30486SOL     OW 3436  11.894   5.804  12.110  0.3986  0.0683  0.1378
30486SOL    HW1 3437  11.861   5.757  12.186 -2.0248  1.1119 -0.1474
30486SOL    HW2 3438  11.920   5.890  12.144 -0.0147  0.2823 -0.0692
30487SOL     OW 3439   7.366  11.432   1.526  0.0555 -0.2589 -0.2633
30487SOL    HW1 3440   7.292  11.413   1.469  0.4010 -1.3013 -0.3892
30487SOL    HW2 3441   7.327  11.475   1.603 -0.4591  0.7661 -1.0775
30488SOL     OW 3442  10.001   2.842   2.637  0.0944  0.2925  0.4312
30488SOL    HW1 3443   9.933   2.774   2.630 -0.2557  0.7933 -2.5592
30488SOL    HW2 3444   9.952   2.924   2.637  0.5439  0.7004 -2.6610
30489SOL     OW 3445   8.926   3.214  10.861  0.2574  0.2123 -0.4497
30489SOL    HW1 3446   8.849   3.241  10.811 -0.9407 -0.3896  0.9977
30489SOL    HW2 3447   8.938   3.121  10.838 -0.3976 -0.1113  0.4685
30490SOL     OW 3448  11.234   6.009   5.770 -0.4117  0.1359  0.1526
30490SOL    HW1 3449  11.255   6.000   5.863 -1.2015  1.1391  0.4438
30490SOL    HW2 3450  11.320   6.017   5.727 -0.0644  0.5067  0.8936
30491SOL     OW 3451   8.404   8.893  13.773  0.1713  0.0862  0.4211
30491SOL    HW1 3452   8.349   8.928  13.702  1.7054  0.2885 -0.7226
30491SOL    HW2 3453   8.359   8.921  13.853 -2.8938 -2.0847 -0.3388
30492SOL     OW 3454  11.592   0.472   1.226  0.0708  0.7824 -0.3963
30492SOL    HW1 3455  11.545   0.544   1.185 -1.0515  1.5285  2.0281
30492SOL    HW2 3456  11.680   0.507   1.242 -0.5885  1.8236  1.1497
30493SOL     OW 3457   8.836   0.560   6.675  0.1970 -0.1180 -0.1347
30493SOL    HW1 3458   8.908   0.585   6.733 -0.0079 -1.5249  0.7815
30493SOL    HW2 3459   8.879   0.509   6.606  0.0791 -1.0906  0.4970
30494SOL     OW 3460   4.327   1.559   9.795  0.6642 -0.3162  0.2712
30494SOL    HW1 3461   4.326   1.580   9.701  3.1498  1.2814  0.5206
30494SOL    HW2 3462   4.278   1.630   9.836 -2.7731 -2.3568  0.1196
30495SOL     OW 3463   4.047  13.200   9.947  0.0750  0.1322  0.0315
30495SOL    HW1 3464   4.087  13.234   9.867  0.5953  1.1735  0.7221
30495SOL    HW2 3465   3.989  13.269   9.977 -1.9409 -1.1611 -0.6793
30496SOL     OW 3466   5.584   4.272   4.279 -0.7212 -0.5123  0.0594
30496SOL    HW1 3467   5.547   4.328   4.210 -1.3983 -1.5733 -0.4622
30496SOL    HW2 3468   5.678   4.274   4.263 -0.5906  1.3254  0.7169
30497SOL     OW 3469  13.879   0.297   2.217 -0.3899  0.0757 -0.1172
30497SOL    HW1 3470  13.885   0.386   2.251  0.7761 -0.3682  0.9674
30497SOL    HW2 3471  13.969   0.265   2.220 -0.8322 -1.2305 -0.2067
30498SOL     OW 3472   6.562  10.900  10.867 -0.5219 -0.1819 -0.1017
30498SOL    HW1 3473   6.544  10.986  10.830 -1.1196  0.2039  1.0493
30498SOL    HW2 3474   6.656  10.900  10.883 -0.2184 -0.4272 -1.7531
30499SOL     OW 3475   8.772   3.729   8.595  0.7078  0.0605 -0.4768
30499SOL    HW1 3476   8.678   3.724   8.576  0.5146 -0.0986  0.4732
30499SOL    HW2 3477   8.813   3.673   8.529  0.3638  1.8578 -2.3209
30500SOL     OW 3478  11.793   3.241   1.144  0.1505 -0.3747 -0.4971
30500SOL    HW1 3479  11.887   3.223   1.145 -0.1810 -2.3702 -1.1004
30500SOL    HW2 3480  11.767   3.231   1.052 -0.5263  1.0469 -0.4955
30501SOL     OW 3481   5.157   8.458  11.118 -0.4511 -0.3260  0.0825
30501SOL    HW1 3482   5.078   8.428  11.164 -0.2344 -0.8515  0.1274
30501SOL    HW2 3483   5.127   8.478  11.029 -0.8305  0.4837  0.3839
30502SOL     OW 3484   1.674   2.127   4.840  0.8052  0.3644 -1.0869
30502SOL    HW1 3485   1.755   2.088   4.872 -0.9766 -1.2376  1.9910
30502SOL    HW2 3486   1.674   2.215   4.875  0.1547 -0.4749  1.1985
30503SOL     OW 3487   0.630   5.146  10.871 -0.1120  0.3600 -0.1407
30503SOL    HW1 3488   0.548   5.114  10.910 -0.0344 -0.4375 -0.6075
30503SOL    HW2 3489   0.678   5.183  10.945 -0.9686  1.0063  0.1096
30504SOL     OW 3490   5.986   2.598   7.618  0.1175 -0.1317 -0.2321
30504SOL    HW1 3491   6.052   2.570   7.555 -0.3430  0.2655 -0.9012
30504SOL    HW2 3492   6.013   2.687   7.643 -0.2005  0.0596 -0.5634
30505SOL     OW 3493   5.025   3.650  10.599 -0.0076 -0.3183  0.5893
30505SOL    HW1 3494   5.018   3.648  10.504 -0.8764 -0.3337  0.6440
30505SOL    HW2 3495   5.095   3.714  10.617  0.8920 -1.0872 -0.0726
30506SOL     OW 3496   1.311   3.046   2.250  0.5015  0.2031  0.2665
30506SOL    HW1 3497   1.257   2.969   2.234  0.1020  0.0238  2.2445
30506SOL    HW2 3498   1.283   3.109   2.183  0.2012 -1.0307 -0.8020
30507SOL     OW 3499   3.392   4.943  12.784 -0.2303  0.3405 -0.2721
30507SOL    HW1 3500   3.365   4.948  12.876  0.4948  1.3609 -0.0934
30507SOL    HW2 3501   3.450   5.018  12.772  0.9675 -0.6798 -1.1509
30508SOL     OW 3502   2.406   6.875   4.426 -0.2431  0.3498  0.3758
30508SOL    HW1 3503   2.380   6.959   4.463 -1.3397 -0.3075  1.1701
30508SOL    HW2 3504   2.461   6.834   4.493  0.0364  0.3005  0.1202
30509SOL     OW 3505  12.875   1.675  12.019 -0.0959 -0.0625 -0.3771
30509SOL    HW1 3506  12.874   1.579  12.019  0.3200 -0.0850  0.7946
30509SOL    HW2 3507  12.784   1.700  12.034  0.2350 -0.3738  2.9530
30510SOL     OW 3508  12.985   3.741   6.858 -0.6680 -0.4112  0.7145
30510SOL    HW1 3509  12.971   3.666   6.916 -0.5328 -0.9094  0.1166
30510SOL    HW2 3510  12.939   3.718   6.778 -0.3501  0.0082  0.4095
30511SOL     OW 3511   7.245   0.961   1.901 -0.4880 -0.3376  0.5893
30511SOL    HW1 3512   7.255   0.915   1.818 -1.1710  1.4892 -0.5601
30511SOL    HW2 3513   7.161   0.932   1.935 -1.2026  0.4575 -0.4314
30512SOL     OW 3514   4.047   9.422   1.648  0.8615 -0.5131 -0.0512
30512SOL    HW1 3515   4.080   9.437   1.560 -0.0487  0.7361 -0.2065
30512SOL    HW2 3516   3.975   9.360   1.637  1.2175 -0.9217 -0.0895
30513SOL     OW 3517  10.912   6.775  13.013  0.4989 -0.8803  1.0455
30513SOL    HW1 3518  10.921   6.868  12.992  1.4162 -0.8801  1.3697
30513SOL    HW2 3519  10.835   6.771  13.069  0.1906 -0.3809  0.6746
30514SOL     OW 3520   3.868   5.908   8.025  0.3735 -0.1868  0.8622
30514SOL    HW1 3521   3.818   5.926   8.105 -0.4595 -0.8890  0.5059
30514SOL    HW2 3522   3.830   5.967   7.960  0.8142  0.1272  0.8845
30515SOL     OW 3523   3.035  13.997   1.812 -0.0994 -0.0897 -0.5994
30515SOL    HW1 3524   3.108  14.042   1.768  0.9125 -1.4177 -0.3301
30515SOL    HW2 3525   2.963  14.061   1.809  0.3645  0.4272 -2.8390
30516SOL     OW 3526   2.444   4.915  12.693  0.1051 -0.3888  0.0168
30516SOL    HW1 3527   2.485   4.995  12.661  1.2473 -0.8878  0.1873
30516SOL    HW2 3528   2.517   4.861  12.724 -0.4724 -2.1756 -1.5495
30517SOL     OW 3529   1.322   3.598  11.899  0.4378 -0.2406  0.1521
30517SOL    HW1 3530   1.230   3.572  11.891  0.3645 -0.5322  1.7295
30517SOL    HW2 3531   1.371   3.519  11.877  0.2380 -1.1174  2.5956
30518SOL     OW 3532   7.017  12.939  11.142  0.4992 -0.5929 -0.0171
30518SOL    HW1 3533   7.067  13.020  11.130  0.3859 -0.1368  2.1957
30518SOL    HW2 3534   6.962  12.933  11.064  1.6597  0.6132 -0.9644
30519SOL     OW 3535   3.715  10.314  12.036 -0.3787 -0.6260  0.0949
30519SOL    HW1 3536   3.742  10.399  12.001  1.4537 -0.4746  1.6994
30519SOL    HW2 3537   3.622  10.307  12.014 -0.1887  1.0493 -1.4705
30520SOL     OW 3538   3.560   8.825   1.584  0.6190 -0.1124  0.7285
30520SOL    HW1 3539   3.573   8.883   1.659 -2.4823  0.4710  0.9349
30520SOL    HW2 3540   3.540   8.884   1.511 -0.2246 -0.8118  0.3819
30521SOL     OW 3541  12.400   0.425   0.041 -0.4400 -0.1848  0.0886
30521SOL    HW1 3542  12.487   0.413   0.004 -0.5837 -1.2734  0.0495
30521SOL    HW2 3543  12.351   0.348   0.012 -0.9934 -0.3224  1.3029
30522SOL     OW 3544  12.362   0.786   6.036 -0.0146  0.2082 -0.5156
30522SOL    HW1 3545  12.278   0.752   6.008  0.4206  0.1579 -1.8051
30522SOL    HW2 3546  12.421   0.768   5.963  1.2879 -0.3869  0.6408
30523SOL     OW 3547  10.752   5.694   7.110  0.1266 -0.2628 -0.4342
30523SOL    HW1 3548  10.663   5.675   7.136 -0.1455  1.3748 -0.0491
30523SOL    HW2 3549  10.807   5.656   7.179 -0.2746 -0.8732 -0.4431
30524SOL     OW 3550   8.600  13.869   4.664  0.1203  0.5381  0.1837
30524SOL    HW1 3551   8.636  13.953   4.634  0.5849  0.4608  0.5198
30524SOL    HW2 3552   8.673  13.808   4.658 -0.3676  0.0235 -0.5880
30525SOL     OW 3553  13.739  13.261  13.772  0.2620  0.7582 -0.3169
30525SOL    HW1 3554  13.805  13.288  13.709 -0.0974  0.1708 -0.9524
30525SOL    HW2 3555  13.723  13.169  13.752 -0.6432  0.8579 -0.0796
30526SOL     OW 3556   3.155   6.057  10.001 -0.0859  0.5159  0.3355
30526SOL    HW1 3557   3.142   6.120  10.072  0.9388  1.2559 -0.1014
30526SOL    HW2 3558   3.242   6.022  10.016 -0.8244 -1.2032  0.8446
30527SOL     OW 3559   3.683   5.838  10.703 -0.3054 -0.2684 -0.1504
30527SOL    HW1 3560   3.681   5.748  10.669 -0.9084 -1.6296  3.0756
30527SOL    HW2 3561   3.591   5.859  10.719 -0.0359 -0.5716  2.3355
30528SOL     OW 3562  10.485   0.634   8.108  0.0460  0.0992  0.4281
30528SOL    HW1 3563  10.413   0.572   8.098  0.1394 -0.0843  0.8653
30528SOL    HW2 3564  10.477   0.666   8.198  0.5877 -0.0220  0.5207
30529SOL     OW 3565  12.518   7.363   1.991  0.5528  0.2956  0.5016
30529SOL    HW1 3566  12.536   7.300   1.921 -0.6497 -0.4493  0.8389
30529SOL    HW2 3567  12.550   7.446   1.957  0.7852 -0.2168 -0.5791
30530SOL     OW 3568   8.411   3.128   5.353  0.5352 -0.2762  0.3293
30530SOL    HW1 3569   8.349   3.057   5.369  1.4712 -1.3983 -0.7471
30530SOL    HW2 3570   8.436   3.158   5.440 -0.1034 -1.0902  0.8078
30531SOL     OW 3571   5.941   8.499   2.066 -0.2353  0.5095  0.7366
30531SOL    HW1 3572   5.868   8.475   2.009 -0.3658  0.1184  1.0618
30531SOL    HW2 3573   5.908   8.572   2.118 -0.1287  0.8425  0.3455
30532SOL     OW 3574   3.409  13.975   3.107 -0.0424 -0.0036  0.0952
30532SOL    HW1 3575   3.433  13.897   3.058  2.6574 -0.1742  1.4716
30532SOL    HW2 3576   3.357  14.027   3.046  0.3380 -1.6731 -1.7592
30533SOL     OW 3577   6.169   3.904   9.956 -0.1727 -0.2752  0.2355
30533SOL    HW1 3578   6.183   3.943  10.043  0.3670  1.9931 -0.7798
30533SOL    HW2 3579   6.181   3.810   9.969  1.6144  0.1669  2.2792
30534SOL     OW 3580  12.265  12.707   1.523  0.4497  0.0624 -0.1252
30534SOL    HW1 3581  12.265  12.801   1.542  1.8916  0.2430 -0.8618
30534SOL    HW2 3582  12.280  12.665   1.608  0.5860  0.5435  0.0894
30535SOL     OW 3583   2.072   9.932  12.326  0.0461 -0.2314  0.9737
30535SOL    HW1 3584   2.018   9.875  12.271  2.3652  0.7942 -2.7081
30535SOL    HW2 3585   2.123   9.871  12.380  1.0517 -1.6691 -1.4385
30536SOL     OW 3586  13.363   3.091   6.860 -0.1318  0.3238 -0.1744
30536SOL    HW1 3587  13.391   3.000   6.850 -0.3779  0.2668 -0.3673
30536SOL    HW2 3588  13.269   3.085   6.880  0.0890  0.4945  0.9446
30537SOL     OW 3589   7.702  13.402  12.235 -0.0600  0.1760 -0.5729
30537SOL    HW1 3590   7.736  13.488  12.209  0.4730  0.5043  1.1073
30537SOL    HW2 3591   7.628  13.422  12.292 -0.7406 -0.5150 -1.1843
30538SOL     OW 3592   5.478   8.036   9.796  0.0758 -0.4116 -0.5019
30538SOL    HW1 3593   5.511   8.081   9.873 -0.3390 -0.3482 -0.3606
30538SOL    HW2 3594   5.483   8.101   9.726  0.0920 -0.3496 -0.4435
30539SOL     OW 3595   3.545   4.494  10.089 -0.3661  0.8071  0.2740
30539SOL    HW1 3596   3.511   4.480  10.001  0.7736  0.3747 -0.1224
30539SOL    HW2 3597   3.640   4.500  10.077 -0.2111  0.9045  1.4499
30540SOL     OW 3598   1.431  13.786   6.030  0.0251  0.5079 -0.1638
30540SOL    HW1 3599   1.501  13.843   6.061  0.1033 -0.2418  1.0931
30540SOL    HW2 3600   1.360  13.846   6.005  0.4862  1.1919  0.1654
30541SOL     OW 3601  11.636   4.348  14.000 -0.5392 -0.4542  0.4990
30541SOL    HW1 3602  11.650   4.291  14.076 -0.5642 -1.0518  0.0626
30541SOL    HW2 3603  11.653   4.292  13.925  1.8693  0.7434  0.0671
30542SOL     OW 3604   3.602   6.227  13.729  0.0277 -0.0792 -0.0966
30542SOL    HW1 3605   3.685   6.183  13.710 -0.8970 -2.5327  1.1211
30542SOL    HW2 3606   3.603   6.240  13.824 -0.8266  0.2280 -0.1195
30543SOL     OW 3607   3.411  13.607   5.747 -0.2889  0.7400  0.2606
30543SOL    HW1 3608   3.486  13.633   5.801  0.3937  0.1973 -0.4129
30543SOL    HW2 3609   3.402  13.513   5.763  0.0256  0.5414 -0.7048
30544SOL     OW 3610   1.638  11.112   6.982  0.0789 -0.3458  0.0350
30544SOL    HW1 3611   1.586  11.102   7.062  1.1064 -0.9243  0.6510
30544SOL    HW2 3612   1.591  11.060   6.917  0.4394 -1.7748  0.8652
30545SOL     OW 3613   8.340  11.699   9.236 -0.3164  0.7376  0.5329
30545SOL    HW1 3614   8.289  11.776   9.261  0.6245  1.7005 -0.4366
30545SOL    HW2 3615   8.427  11.733   9.215 -0.2425 -0.4117 -1.2092
30546SOL     OW 3616   9.715  10.142   7.999 -0.4000 -0.2373 -0.2653
30546SOL    HW1 3617   9.763  10.183   8.070  1.1390  1.2329 -2.0548
30546SOL    HW2 3618   9.744  10.051   8.000  1.1959  0.2439 -0.2668
30547SOL     OW 3619   6.325  12.394   4.661  0.5664 -0.2676  0.0306
30547SOL    HW1 3620   6.297  12.481   4.690 -0.1486 -0.3475 -0.3912
30547SOL    HW2 3621   6.420  12.401   4.651  0.7026  0.0532  1.3681
30548SOL     OW 3622   8.166   5.357   7.706 -0.3459 -0.2188  0.1915
30548SOL    HW1 3623   8.210   5.378   7.624  0.7056  0.4119  0.8994
30548SOL    HW2 3624   8.138   5.266   7.695 -2.1646  0.4703 -1.6835
30549SOL     OW 3625   2.636   0.872   2.894 -0.2862 -0.1610  0.3304
30549SOL    HW1 3626   2.654   0.900   2.984 -0.6175  1.5073 -0.1003
30549SOL    HW2 3627   2.546   0.899   2.878  0.1642  0.6756 -0.9000
30550SOL     OW 3628   6.796   4.279   4.070  0.4574 -0.3257 -0.1397
30550SOL    HW1 3629   6.714   4.326   4.057  1.9722  2.5580 -0.1679
30550SOL    HW2 3630   6.771   4.198   4.114 -2.2985  0.9741  0.9183
30551SOL     OW 3631  11.218  14.013   5.702  0.5125 -0.1765  0.1372
30551SOL    HW1 3632  11.149  14.026   5.767 -0.8368 -3.0127 -0.5758
30551SOL    HW2 3633  11.222  13.918   5.691  1.0242  0.1500 -3.5500
30552SOL     OW 3634   6.293   5.936  10.644 -0.3246 -0.3703 -0.1119
30552SOL    HW1 3635   6.220   5.986  10.681  0.6059  1.1010 -0.2093
30552SOL    HW2 3636   6.251   5.863  10.597 -1.7103  0.2983  0.0484
30553SOL     OW 3637   3.773   5.929   8.513 -0.2980  0.3073 -0.5496
30553SOL    HW1 3638   3.861   5.964   8.529 -0.1673 -0.5439  0.7906
30553SOL    HW2 3639   3.765   5.929   8.418  1.6591 -0.7308 -0.7867
30554SOL     OW 3640   6.780  12.387   3.222 -0.7291 -0.3774  0.7011
30554SOL    HW1 3641   6.766  12.294   3.202  0.9632 -0.5973  0.3762
30554SOL    HW2 3642   6.743  12.433   3.147 -1.2647 -0.7976  0.6985
30555SOL     OW 3643   2.709   8.406  13.377  0.2773  0.4261  0.3230
30555SOL    HW1 3644   2.650   8.403  13.453 -0.1045 -1.7688 -0.0075
30555SOL    HW2 3645   2.749   8.320  13.374 -0.4403  0.0990 -2.5312
30556SOL     OW 3646   4.324   4.698  11.909 -0.2250 -0.0705 -0.0005
30556SOL    HW1 3647   4.416   4.711  11.885 -0.4724  0.1411 -0.8577
30556SOL    HW2 3648   4.277   4.699  11.826 -1.2447  1.7793  0.5417
30557SOL     OW 3649   5.812   9.074   5.302  0.2572  0.8379 -0.5451
30557SOL    HW1 3650   5.871   9.016   5.350 -2.1501  0.5405  2.3000
30557SOL    HW2 3651   5.785   9.023   5.226  0.8297 -0.4295  0.0766
30558SOL     OW 3652   0.417   8.598   6.242  0.2595  0.5507  0.1808
30558SOL    HW1 3653   0.503   8.607   6.200  0.3032 -0.2444  0.0806
30558SOL    HW2 3654   0.436   8.607   6.335  0.5539 -0.2500  0.2059
30559SOL     OW 3655  13.878   3.838   7.256 -0.2024  0.0533 -0.0305
30559SOL    HW1 3656  13.823   3.795   7.321  0.5458 -0.3602  0.3444
30559SOL    HW2 3657  13.950   3.876   7.307  0.4941 -0.4341 -0.6197
30560SOL     OW 3658   4.527   8.645  10.949  0.2531  0.1595 -0.2888
30560SOL    HW1 3659   4.447   8.615  10.992  0.7453 -0.3463  0.2840
30560SOL    HW2 3660   4.497   8.716  10.891 -0.4495  0.7181  0.7209
30561SOL     OW 3661  12.434   9.551  13.497 -0.2420  0.1893  0.5261
30561SOL    HW1 3662  12.428   9.499  13.417 -1.1906  1.0846 -0.0048
30561SOL    HW2 3663  12.440   9.487  13.567 -0.5400 -0.6210 -0.1771
30562SOL     OW 3664   4.077   7.132  12.441  0.4154 -0.0303  0.3624
30562SOL    HW1 3665   4.126   7.202  12.398  0.5090 -1.1987 -1.5451
30562SOL    HW2 3666   4.005   7.178  12.486  0.6698  1.3116 -0.5390
30563SOL     OW 3667   1.193   7.667   5.516 -0.3949 -0.2363 -0.9136
30563SOL    HW1 3668   1.282   7.694   5.492  0.0375 -0.1530  0.6883
30563SOL    HW2 3669   1.150   7.747   5.544 -0.7622 -0.3862 -1.0411
30564SOL     OW 3670   9.610  10.272  11.195  0.3148 -0.3392 -0.7571
30564SOL    HW1 3671   9.577  10.360  11.213  1.1597 -0.0866 -0.4222
30564SOL    HW2 3672   9.546  10.235  11.134  0.2823  0.7277 -1.3934
30565SOL     OW 3673  10.938   2.851   4.389 -0.3366 -0.4238  0.0167
30565SOL    HW1 3674  10.854   2.897   4.383 -0.4633 -0.8176 -1.6006
30565SOL    HW2 3675  11.001   2.910   4.349 -0.3758 -1.2895 -1.4175
30566SOL     OW 3676   8.784   0.960   5.530 -0.6972 -0.0070 -0.4218
30566SOL    HW1 3677   8.797   1.050   5.560 -1.5981  1.2934 -3.5594
30566SOL    HW2 3678   8.772   0.967   5.435 -0.9801 -3.4401 -0.7854
30567SOL     OW 3679   0.446  13.968   1.036  0.0058 -0.5544  0.4285
30567SOL    HW1 3680   0.541  13.965   1.038 -0.0064 -0.6190  1.3495
30567SOL    HW2 3681   0.424  13.997   0.947  0.8371 -1.8991 -0.2308
30568SOL     OW 3682   0.413   5.623   6.630  0.0584  0.3570  0.5034
30568SOL    HW1 3683   0.413   5.617   6.534  0.5138  1.6350  0.4006
30568SOL    HW2 3684   0.440   5.536   6.659 -0.5559 -0.1951 -0.5122
30569SOL     OW 3685  13.886   9.675   9.624 -0.2794 -0.0109 -0.0179
30569SOL    HW1 3686  13.841   9.603   9.580  0.5583  0.5857 -1.9935
30569SOL    HW2 3687  13.976   9.671   9.591  0.4776  0.3356  1.9063
30570SOL     OW 3688   7.242   0.710   5.903 -0.4743 -0.1907  0.5540
30570SOL    HW1 3689   7.269   0.801   5.889  0.6391 -0.7922 -1.6524
30570SOL    HW2 3690   7.149   0.709   5.884 -0.1396  0.2018 -1.3647
30571SOL     OW 3691   1.271   2.796   8.301  0.3102 -0.3078 -0.1159
30571SOL    HW1 3692   1.331   2.842   8.359 -0.4858  0.9380 -0.2383
30571SOL    HW2 3693   1.289   2.832   8.214  1.1395 -1.7920 -0.6037
30572SOL     OW 3694   6.981   0.181  10.661  0.1504 -0.1432 -0.7565
30572SOL    HW1 3695   7.033   0.247  10.706  0.5004 -1.2959  0.5977
30572SOL    HW2 3696   6.895   0.187  10.700  0.2381 -0.6181 -0.4847
30573SOL     OW 3697  14.006   1.694  10.648 -0.1903 -0.1696  0.0201
30573SOL    HW1 3698  14.072   1.737  10.702  0.4370 -3.0469  1.7446
30573SOL    HW2 3699  14.020   1.600  10.662 -4.7760 -0.9994  0.7423
30574SOL     OW 3700   4.091   7.254   7.790  0.1151 -0.4266  0.5179
30574SOL    HW1 3701   4.055   7.175   7.748 -1.5428  0.8560 -0.5786
30574SOL    HW2 3702   4.027   7.275   7.859 -0.9335  1.4214 -0.9265
30575SOL     OW 3703   3.241   8.390  12.950 -0.1483 -0.3774  0.0474
30575SOL    HW1 3704   3.322   8.375  12.998  0.4576 -0.4228 -0.9680
30575SOL    HW2 3705   3.209   8.303  12.928 -0.3400 -0.3502  0.2062
30576SOL     OW 3706   6.730  10.173   6.533  0.4395  0.1146 -0.1079
30576SOL    HW1 3707   6.769  10.210   6.611  0.3161 -0.0152  0.0157
30576SOL    HW2 3708   6.648  10.221   6.522  0.2912 -0.1047  0.0387
30577SOL     OW 3709  11.920   1.922   9.523  0.7976  0.3484  0.2723
30577SOL    HW1 3710  11.840   1.911   9.472 -0.0770 -0.3940  1.7670
30577SOL    HW2 3711  11.984   1.866   9.479  0.3749  0.5574 -0.6347
30578SOL     OW 3712  12.722   0.791   5.125  0.5310 -0.0127  0.4006
30578SOL    HW1 3713  12.678   0.876   5.127 -1.8260 -0.9922 -2.3237
30578SOL    HW2 3714  12.779   0.796   5.048  1.2564 -0.5514  0.8879
30579SOL     OW 3715   6.539   5.684  12.815 -0.0224 -0.2435  0.0930
30579SOL    HW1 3716   6.574   5.604  12.777 -0.4582 -0.4517  0.1283
30579SOL    HW2 3717   6.494   5.656  12.894  0.3758  0.1203  0.4581
30580SOL     OW 3718   2.406   1.926  10.874 -0.0207  0.8039 -0.1030
30580SOL    HW1 3719   2.466   1.921  10.948 -0.7842 -1.8799  0.4396
30580SOL    HW2 3720   2.332   1.978  10.907  0.3768  1.0466  0.4261
30581SOL     OW 3721   6.454   0.921   7.770 -0.3228  0.0025  0.0454
30581SOL    HW1 3722   6.481   0.878   7.851 -1.4738 -0.3615  0.2588
30581SOL    HW2 3723   6.459   0.852   7.704 -0.7249 -0.0773  0.0931
30582SOL     OW 3724   0.233  12.065   2.795 -0.6740  0.3844  0.1556
30582SOL    HW1 3725   0.207  12.055   2.886  0.2695  1.0200  0.5022
30582SOL    HW2 3726   0.197  11.987   2.751 -1.2312  0.1381  1.0336
30583SOL     OW 3727   1.878   6.007   3.013  0.0066  0.4020 -0.3074
30583SOL    HW1 3728   1.832   6.048   2.940  0.2383 -0.3304 -0.8849
30583SOL    HW2 3729   1.809   5.976   3.072 -0.2709 -0.8906 -1.2767
30584SOL     OW 3730   7.254  11.474   1.968 -0.4950 -0.0227  0.1700
30584SOL    HW1 3731   7.327  11.535   1.972 -1.5871  1.3525 -0.3352
30584SOL    HW2 3732   7.241  11.447   2.060 -0.7908  1.4833  0.5927
30585SOL     OW 3733   1.543   2.610  11.678  0.0240 -0.2148 -0.6306
30585SOL    HW1 3734   1.560   2.518  11.697 -0.1412 -0.1297 -0.0643
30585SOL    HW2 3735   1.451   2.611  11.649  0.2168 -0.3162 -1.2593
30586SOL     OW 3736   9.184   3.620  11.508  0.0045 -0.0216  0.0708
30586SOL    HW1 3737   9.251   3.634  11.575  1.0144 -3.3410 -0.0477
30586SOL    HW2 3738   9.232   3.622  11.425 -0.0627 -1.8800 -0.0566
30587SOL     OW 3739   5.157   2.870   6.442  0.1332 -0.0723  0.8079
30587SOL    HW1 3740   5.199   2.786   6.424  0.4065  0.0729  0.7557
30587SOL    HW2 3741   5.075   2.847   6.486 -0.7813 -0.4799 -1.0127
30588SOL     OW 3742   1.815  11.150   8.400 -0.5112 -0.1739  0.2869
30588SOL    HW1 3743   1.839  11.148   8.493  0.0413 -0.4116  0.1394
30588SOL    HW2 3744   1.824  11.242   8.376 -2.8633  0.3481  1.0251
30589SOL     OW 3745   5.716   2.273  13.597  0.5420 -0.5641 -0.3757
30589SOL    HW1 3746   5.729   2.218  13.674  0.3475 -0.4959 -0.2925
30589SOL    HW2 3747   5.726   2.213  13.523  1.8297 -0.4151 -0.3397
30590SOL     OW 3748  13.602   9.442   1.751 -0.3143  0.1932 -0.0599
30590SOL    HW1 3749  13.665   9.408   1.815 -0.7365 -0.6485 -0.0701
30590SOL    HW2 3750  13.625   9.534   1.740  0.4668  0.0651  0.4636
30591SOL     OW 3751   9.903   2.763   9.508 -0.2292 -0.2710 -0.0701
30591SOL    HW1 3752   9.888   2.800   9.421  1.3443  2.0110  0.5280
30591SOL    HW2 3753   9.821   2.720   9.531 -1.1325  0.2601 -2.1151
30592SOL     OW 3754   5.693   8.135   8.422 -0.2274 -0.3953  0.3308
30592SOL    HW1 3755   5.624   8.085   8.466  0.1766 -3.0138 -1.7778
30592SOL    HW2 3756   5.774   8.095   8.452  0.2368  0.4889  0.2861
30593SOL     OW 3757   4.019  11.277   5.559 -0.0343 -0.1800  0.3085
30593SOL    HW1 3758   4.096  11.325   5.590 -0.2633  0.3703  0.0472
30593SOL    HW2 3759   3.947  11.310   5.613 -0.3465  0.4220 -0.4577
30594SOL     OW 3760   4.850  12.428  12.873 -0.0132  0.1436  0.2024
30594SOL    HW1 3761   4.792  12.355  12.849  0.9060 -0.7218  0.5760
30594SOL    HW2 3762   4.902  12.394  12.946  2.6991  0.0224 -1.6770
30595SOL     OW 3763   3.827  13.887  11.791 -0.1532  0.2890  0.1018
30595SOL    HW1 3764   3.832  13.933  11.707  2.1979  0.3060  0.1685
30595SOL    HW2 3765   3.780  13.947  11.849  2.3962  2.5175  0.0619
30596SOL     OW 3766  11.245  10.736   3.411 -0.3643  0.0907  0.2265
30596SOL    HW1 3767  11.334  10.767   3.393  0.2280 -1.4458  0.3391
30596SOL    HW2 3768  11.235  10.659   3.355 -1.3624 -0.1745  0.7510
30597SOL     OW 3769   5.095   7.018   5.490 -0.2954 -0.5174 -0.1883
30597SOL    HW1 3770   5.151   7.037   5.414 -1.9415  2.0777 -0.8742
30597SOL    HW2 3771   5.151   7.035   5.566  0.3676  0.4216 -0.8577
30598SOL     OW 3772   3.488   6.659   0.330 -0.5672  0.4691  0.4213
30598SOL    HW1 3773   3.395   6.638   0.316 -0.1047 -0.9276 -0.8941
30598SOL    HW2 3774   3.519   6.589   0.387  0.0832 -0.1267 -0.6486
30599SOL     OW 3775  11.119   2.055   9.745 -0.0156  0.2137 -0.1337
30599SOL    HW1 3776  11.129   1.967   9.708 -0.5720  0.2977 -0.4977
30599SOL    HW2 3777  11.108   2.041   9.839 -0.7765 -0.1567 -0.2714
30600SOL     OW 3778   2.631   7.867  13.688  0.1503  0.3001 -0.2429
30600SOL    HW1 3779   2.720   7.843  13.715 -0.0529 -0.4907 -0.2588
30600SOL    HW2 3780   2.582   7.785  13.692 -0.9176  0.9836  1.0727
30601SOL     OW 3781  12.874   6.120   6.092  0.0021  0.6125  0.0930
30601SOL    HW1 3782  12.889   6.105   6.185  2.2686 -1.8021 -0.5325
30601SOL    HW2 3783  12.779   6.124   6.083 -0.2726  0.8878  2.4575
30602SOL     OW 3784   9.771   4.207   9.467 -0.2213 -0.4660 -0.3394
30602SOL    HW1 3785   9.772   4.214   9.371 -1.3174 -1.7040 -0.4683
30602SOL    HW2 3786   9.847   4.153   9.488 -0.9225 -1.6212 -0.6784
30603SOL     OW 3787   3.206  13.231  13.310  0.0463 -0.3268 -0.6971
30603SOL    HW1 3788   3.194  13.149  13.359  1.9305 -0.7811 -0.9084
30603SOL    HW2 3789   3.301  13.237  13.296  0.0212  2.1263 -0.3088
30604SOL     OW 3790   0.850  13.577   3.072  0.6770  0.3930  0.0109
30604SOL    HW1 3791   0.851  13.481   3.064  2.3373  0.4519 -0.8158
30604SOL    HW2 3792   0.850  13.609   2.982 -1.0241  1.2180  0.2581
30605SOL     OW 3793   5.994   5.803   9.425 -0.2325 -0.4797 -0.1395
30605SOL    HW1 3794   6.074   5.848   9.399  0.7525 -0.1851  3.0246
30605SOL    HW2 3795   5.931   5.872   9.442 -0.8630 -0.6672 -1.5845
30606SOL     OW 3796   3.110  10.971   7.428 -0.1718  0.1237  0.2648
30606SOL    HW1 3797   3.091  10.918   7.351 -0.0290 -0.4102  0.5960
30606SOL    HW2 3798   3.031  10.966   7.481 -0.0894  0.0885  0.3843
30607SOL     OW 3799   2.528  11.713  10.159  0.1870 -0.5240 -0.4360
30607SOL    HW1 3800   2.516  11.680  10.070 -1.2714 -0.5381 -0.2614
30607SOL    HW2 3801   2.451  11.683  10.206 -0.0129  1.1056  0.3459
30608SOL     OW 3802   9.388   6.601   5.518  0.2637  1.2196  0.6317
30608SOL    HW1 3803   9.316   6.648   5.559 -0.6628 -0.7301  1.3619
30608SOL    HW2 3804   9.450   6.586   5.589  0.0971  0.5109  0.6321
30609SOL     OW 3805   1.605   8.846   7.917  0.2948  0.2905 -0.3433
30609SOL    HW1 3806   1.519   8.833   7.878  0.8073 -3.0400 -0.6689
30609SOL    HW2 3807   1.650   8.905   7.857 -1.2852  0.9436 -0.9227
30610SOL     OW 3808   5.651   1.810   0.162  0.2163  0.2816 -0.0485
30610SOL    HW1 3809   5.571   1.779   0.206  2.5000 -2.3341  2.6669
30610SOL    HW2 3810   5.641   1.781   0.072 -2.7651  1.9797 -0.4016
30611SOL     OW 3811   1.944   5.566   6.172  0.0974 -0.4218  0.3069
30611SOL    HW1 3812   1.997   5.620   6.114 -0.3023  1.5519  1.6809
30611SOL    HW2 3813   1.961   5.600   6.259 -2.3647 -0.6177  0.9397
30612SOL     OW 3814   5.667   6.732  11.972  0.5495 -0.2971 -0.0523
30612SOL    HW1 3815   5.726   6.692  12.037  0.6148 -0.6595 -0.3309
30612SOL    HW2 3816   5.722   6.791  11.922  0.7036 -0.7160 -0.3830
30613SOL     OW 3817   3.389   5.869   5.154  0.6802 -0.0367 -0.0811
30613SOL    HW1 3818   3.344   5.795   5.113 -1.0683  1.3982 -0.8790
30613SOL    HW2 3819   3.319   5.922   5.192  1.9343  0.9383  0.9747
30614SOL     OW 3820  10.489   2.464   5.858 -0.5337  0.1229  0.0801
30614SOL    HW1 3821  10.559   2.502   5.911 -0.6057  1.0431 -0.4697
30614SOL    HW2 3822  10.430   2.537   5.841 -0.9326 -0.3477 -0.5835
30615SOL     OW 3823   5.141   2.641   2.638 -0.1534 -0.3038  0.3427
30615SOL    HW1 3824   5.191   2.679   2.710 -0.7355 -0.4058  0.8001
30615SOL    HW2 3825   5.057   2.685   2.640 -0.1392 -0.2287 -0.3499
30616SOL     OW 3826   4.060   6.454  12.154  0.6420 -0.4073  0.4930
30616SOL    HW1 3827   4.021   6.413  12.231  1.1257 -1.4163  0.2254
30616SOL    HW2 3828   4.111   6.527  12.188  1.5361 -1.3479  1.2238
30617SOL     OW 3829  11.241  10.129   6.959  0.1491 -0.3558 -0.4307
30617SOL    HW1 3830  11.263  10.170   7.042 -0.8331  0.7302 -0.6750
30617SOL    HW2 3831  11.203  10.200   6.907  3.1068 -0.3113 -2.8059
30618SOL     OW 3832  10.206  13.043  10.985  0.0192 -0.5658  0.0475
30618SOL    HW1 3833  10.259  13.094  10.925 -2.2678 -0.7509 -2.3225
30618SOL    HW2 3834  10.242  12.955  10.980 -0.3488 -0.6654 -1.4303
30619SOL     OW 3835   1.616  13.782   1.943  0.6186  0.1879  0.6298
30619SOL    HW1 3836   1.574  13.857   1.901  1.2545  0.7313  0.9479
30619SOL    HW2 3837   1.693  13.819   1.986  1.6682 -0.8801 -0.3134
30620SOL     OW 3838   6.350   8.283  12.045  0.4492  0.1102 -0.0190
30620SOL    HW1 3839   6.336   8.352  12.110 -1.4096  1.0569 -1.3449
30620SOL    HW2 3840   6.359   8.329  11.962  1.6722 -1.1487 -0.6311
30621SOL     OW 3841  12.472   5.067   5.651 -0.3534 -0.6475  0.5423
30621SOL    HW1 3842  12.528   5.144   5.640  0.4564 -1.5319 -2.5140
30621SOL    HW2 3843  12.530   4.993   5.632 -2.0156 -1.7128 -0.6564
30622SOL     OW 3844  12.174   1.902   1.915  0.5593  0.0913 -0.0927
30622SOL    HW1 3845  12.163   1.995   1.894 -0.2192  0.3557  1.3362
30622SOL    HW2 3846  12.140   1.856   1.838  1.5984  0.9785 -1.1045
30623SOL     OW 3847   1.864   6.198   3.612 -0.1111  0.3575 -0.6976
30623SOL    HW1 3848   1.881   6.291   3.595 -2.9762  0.9430 -0.8885
30623SOL    HW2 3849   1.874   6.157   3.526  0.5003  0.6080 -0.7505
30624SOL     OW 3850   0.088  13.614   5.111 -0.7661  0.2703  0.0305
30624SOL    HW1 3851   0.105  13.707   5.124 -1.0358  0.4602 -0.8838
30624SOL    HW2 3852   0.008  13.611   5.058 -0.8587 -0.4855  0.1951
30625SOL     OW 3853   1.953   0.648   5.528  0.5173  0.3302  0.3137
30625SOL    HW1 3854   2.008   0.590   5.476  1.5387  1.0490  0.5575
30625SOL    HW2 3855   1.922   0.713   5.466  0.3746  0.2273  0.2778
30626SOL     OW 3856   1.306   5.049  12.373 -0.7865  0.0829 -0.1146
30626SOL    HW1 3857   1.386   5.046  12.322 -0.6156  0.6354  0.1117
30626SOL    HW2 3858   1.237   5.062  12.308 -0.8301 -1.4950 -0.4202
30627SOL     OW 3859  10.736   4.026   1.900 -0.2862  0.1856  0.4769
30627SOL    HW1 3860  10.723   3.968   1.974 -2.6223  0.1681  0.1354
30627SOL    HW2 3861  10.696   4.109   1.928  2.2596  1.4515  0.6533
30628SOL     OW 3862   9.490  13.637   2.209  0.0837 -0.0578  0.0598
30628SOL    HW1 3863   9.448  13.714   2.247  0.4643  0.8828 -1.3257
30628SOL    HW2 3864   9.429  13.565   2.226 -1.0561  0.8637 -0.0222
30629SOL     OW 3865   7.841  12.482   1.904  0.7336  0.2420 -0.1417
30629SOL    HW1 3866   7.759  12.526   1.881  1.2056  1.2035 -0.0257
30629SOL    HW2 3867   7.815  12.391   1.920 -0.7442  0.9767  2.1924
30630SOL     OW 3868   2.127   5.685   7.843 -0.0715 -0.0567 -0.3344
30630SOL    HW1 3869   2.150   5.719   7.930 -2.2458  1.3947 -0.2631
30630SOL    HW2 3870   2.210   5.654   7.808  1.1518  0.7644  1.6321
30631SOL     OW 3871   9.894   5.425  10.566  0.3495 -0.5406 -0.3901
30631SOL    HW1 3872   9.851   5.466  10.641  0.6057 -1.4842  0.2883
30631SOL    HW2 3873   9.922   5.339  10.598  0.3740 -1.0009 -1.5952
30632SOL     OW 3874   1.866  12.648   5.276 -0.4712  0.0371  0.3648
30632SOL    HW1 3875   1.930  12.669   5.208 -0.9668  0.4560  0.0175
30632SOL    HW2 3876   1.915  12.652   5.358  0.2964 -1.1801 -0.0219
30633SOL     OW 3877   1.150   4.300   6.180  0.0287 -0.0742 -0.2775
30633SOL    HW1 3878   1.073   4.312   6.236 -0.6034  1.2899 -1.3693
30633SOL    HW2 3879   1.222   4.285   6.241 -1.1132 -1.6318  0.7626
30634SOL     OW 3880  13.994   5.832   9.207 -0.0981 -0.2510  0.1532
30634SOL    HW1 3881  14.053   5.780   9.152 -0.6066 -1.0503  0.3380
30634SOL    HW2 3882  13.964   5.903   9.150  2.4537  1.3169  0.5836
30635SOL     OW 3883   6.511  10.889  10.389 -0.1276  0.0635 -0.0812
30635SOL    HW1 3884   6.536  10.978  10.413 -0.9494  0.0326  0.9291
30635SOL    HW2 3885   6.424  10.877  10.427 -0.1024 -1.1099 -0.3578
30636SOL     OW 3886   7.332   2.191  12.620 -0.4323 -0.1689 -0.5898
30636SOL    HW1 3887   7.373   2.277  12.617  0.8212 -0.7364 -0.4850
30636SOL    HW2 3888   7.255   2.199  12.564  0.6600  0.5236 -2.0553
30637SOL     OW 3889  10.543   1.488  12.616  0.2480 -0.0590 -0.4763
30637SOL    HW1 3890  10.523   1.504  12.524  0.3099 -1.5954 -0.7761
30637SOL    HW2 3891  10.516   1.397  12.631  1.6875 -0.3404  0.6023
30638SOL     OW 3892  13.919  10.688   9.103 -0.2768 -0.0691  0.4927
30638SOL    HW1 3893  13.924  10.726   9.190 -0.2385  1.3785 -0.0972
30638SOL    HW2 3894  13.834  10.644   9.100 -1.2929  1.7584  0.5841
30639SOL     OW 3895   5.232   8.345  12.802  0.2924  0.9027  0.0554
30639SOL    HW1 3896   5.270   8.407  12.864 -0.6681  1.0207  0.5523
30639SOL    HW2 3897   5.138   8.362  12.805  0.2827  1.5448 -2.1518
30640SOL     OW 3898   7.421   3.272   2.936 -0.2043  0.4953  0.1679
30640SOL    HW1 3899   7.415   3.240   2.846 -1.1990  1.1525 -0.0228
30640SOL    HW2 3900   7.335   3.310   2.953 -1.7669 -3.6011  2.9803
30641SOL     OW 3901   0.952   4.275  10.230 -0.1099  0.1716  0.2559
30641SOL    HW1 3902   0.903   4.301  10.151 -0.6812  0.9234  0.8411
30641SOL    HW2 3903   0.896   4.303  10.303  0.4936 -0.3581  0.9332
30642SOL     OW 3904   1.463   4.799   4.493  0.5030 -0.0897 -0.1134
30642SOL    HW1 3905   1.411   4.728   4.531 -0.3479  0.1736 -0.7599
30642SOL    HW2 3906   1.519   4.829   4.565 -1.4827  0.7950  1.1421
30643SOL     OW 3907  10.530  10.475  11.338 -0.4066  0.0824 -0.0548
30643SOL    HW1 3908  10.542  10.392  11.292  0.5334  0.2029 -0.0463
30643SOL    HW2 3909  10.599  10.476  11.404 -1.2917  0.2391  0.8960
30644SOL     OW 3910   3.920   6.796   2.018  1.0743  0.3335 -0.0626
30644SOL    HW1 3911   3.978   6.730   2.055  0.5215  0.6224  1.3935
30644SOL    HW2 3912   3.857   6.746   1.966 -0.0295 -0.4588  1.9313
30645SOL     OW 3913   7.947   4.791   8.793  0.2872 -0.1977  0.5007
30645SOL    HW1 3914   7.879   4.725   8.805 -0.2304  0.4104  0.9661
30645SOL    HW2 3915   8.020   4.760   8.845  1.6434 -2.5576 -2.5227
30646SOL     OW 3916   4.858   6.582   3.142 -0.0378  0.2762  0.1989
30646SOL    HW1 3917   4.838   6.674   3.158 -1.2427  0.0384  0.1692
30646SOL    HW2 3918   4.920   6.583   3.070 -1.2153  1.0392 -0.8577
30647SOL     OW 3919   7.626   6.753   4.250  0.1983  0.1630 -0.3037
30647SOL    HW1 3920   7.694   6.788   4.307 -0.5791  1.6052 -0.2013
30647SOL    HW2 3921   7.585   6.831   4.211 -0.4637 -0.7198 -1.4513
30648SOL     OW 3922   1.741   9.414   9.541  0.6848 -0.3684  0.0214
30648SOL    HW1 3923   1.820   9.369   9.511  0.1156 -0.5093 -1.3335
30648SOL    HW2 3924   1.739   9.495   9.490 -0.4687 -0.7453 -0.5725
30649SOL     OW 3925   0.747   6.248   2.669  0.1645 -0.1323 -0.3461
30649SOL    HW1 3926   0.682   6.317   2.655 -0.5661 -0.6535  0.3373
30649SOL    HW2 3927   0.699   6.180   2.715  1.8492  0.6073  2.7762
30650SOL     OW 3928  11.485   0.368   2.087  0.2942 -0.0082 -0.2804
30650SOL    HW1 3929  11.463   0.286   2.131 -1.0783  0.6424  0.3099
30650SOL    HW2 3930  11.407   0.422   2.097  0.9716  1.1764 -1.1393
30651SOL     OW 3931   0.259   9.969  13.896 -0.2682  0.2869  0.1321
30651SOL    HW1 3932   0.198   9.935  13.962  0.1116 -0.3398  0.1662
30651SOL    HW2 3933   0.259   9.903  13.827 -0.1571  0.6210 -0.1916
30652SOL     OW 3934   1.382  10.859   9.654  0.4224  0.0824 -0.4947
30652SOL    HW1 3935   1.339  10.783   9.695 -0.3298  0.1001 -1.2323
30652SOL    HW2 3936   1.379  10.927   9.721  3.2884 -1.1905  1.1315
30653SOL     OW 3937   1.938   2.416   8.146  0.1111  0.0756 -0.3607
30653SOL    HW1 3938   1.976   2.453   8.066  0.3463 -0.7704 -0.6533
30653SOL    HW2 3939   1.985   2.333   8.157  4.6685  2.6873  4.0031
30654SOL     OW 3940   8.835   7.879  13.019  0.1163  0.3540 -0.4519
30654SOL    HW1 3941   8.811   7.786  13.021 -1.1501  0.6723 -0.1523
30654SOL    HW2 3942   8.916   7.883  13.071 -1.2550 -0.2071  1.8850
30655SOL     OW 3943   7.681  13.810   5.701  0.1576  0.1811 -0.2361
30655SOL    HW1 3944   7.712  13.753   5.631  0.3988 -1.1246  0.8885
30655SOL    HW2 3945   7.738  13.887   5.696  1.2770 -0.6309 -0.4282
30656SOL     OW 3946   9.942  11.863  13.658  0.5269  0.2656  0.4677
30656SOL    HW1 3947  10.035  11.866  13.637  1.1605  3.4805  2.9580
30656SOL    HW2 3948   9.933  11.793  13.723  0.7088 -1.4963 -1.3087
30657SOL     OW 3949   1.937   3.360  11.426 -0.3696  0.0040  0.3937
30657SOL    HW1 3950   2.016   3.338  11.474  0.1821  0.9097 -0.0565
30657SOL    HW2 3951   1.964   3.358  11.334 -1.5998 -2.5052 -0.0022
30658SOL     OW 3952  10.796   7.818   5.080  0.0333  0.0531  0.7657
30658SOL    HW1 3953  10.816   7.907   5.051  0.5092 -0.1906  0.3512
30658SOL    HW2 3954  10.816   7.819   5.174 -1.4171  0.8138  1.1045
30659SOL     OW 3955   5.776   6.041   4.892 -0.0268  0.0505  0.3526
30659SOL    HW1 3956   5.689   6.069   4.919  0.1678 -0.5006  1.6230
30659SOL    HW2 3957   5.835   6.085   4.953  0.4361 -1.1755  0.8068
30660SOL     OW 3958  13.126   3.322  11.436 -0.0358  0.4121  0.1759
30660SOL    HW1 3959  13.138   3.228  11.433  0.7371  0.5049  0.0925
30660SOL    HW2 3960  13.213   3.358  11.418  0.0897  1.1341  1.9365
30661SOL     OW 3961   2.655  12.466   0.476 -0.0371 -0.8262 -0.0621
30661SOL    HW1 3962   2.633  12.512   0.394  0.4862 -2.5885 -1.2345
30661SOL    HW2 3963   2.628  12.376   0.461  2.4568 -1.7841  0.7012
30662SOL     OW 3964   7.358   2.625   8.162  0.7302 -0.1749  0.0303
30662SOL    HW1 3965   7.418   2.698   8.176 -1.2408  1.7597 -0.9549
30662SOL    HW2 3966   7.331   2.599   8.250 -0.0519  1.6660  0.3706
30663SOL     OW 3967   4.088  13.423   4.091  0.0243 -0.2415  0.7254
30663SOL    HW1 3968   4.036  13.493   4.129 -1.6410 -1.4641  0.7750
30663SOL    HW2 3969   4.108  13.365   4.165  0.1807 -0.5643  0.4321
30664SOL     OW 3970   5.366   7.519  11.222  0.1995  0.0719  0.3639
30664SOL    HW1 3971   5.327   7.595  11.266 -1.7665 -0.3111 -0.6037
30664SOL    HW2 3972   5.427   7.556  11.158 -0.0822  0.7869  0.5026
30665SOL     OW 3973   7.774   8.681   5.925  0.2013  0.0133  0.1051
30665SOL    HW1 3974   7.828   8.753   5.957 -0.9187 -0.8172  4.4803
30665SOL    HW2 3975   7.837   8.611   5.905  0.9993  0.4422  1.0692
30666SOL     OW 3976   7.027   8.203  11.651 -0.2376 -0.5775 -0.2107
30666SOL    HW1 3977   7.069   8.289  11.647 -0.0114 -0.7260 -1.4639
30666SOL    HW2 3978   6.976   8.206  11.732  0.7577  0.2616  0.4213
30667SOL     OW 3979   7.919  12.615   5.101 -0.4278  0.5883 -0.1087
30667SOL    HW1 3980   7.973  12.569   5.037 -0.4537  0.2663  0.1022
30667SOL    HW2 3981   7.979  12.674   5.147  0.0680 -0.8783  1.1984
30668SOL     OW 3982  12.812   8.525  11.129 -0.4546  0.6795 -0.1570
30668SOL    HW1 3983  12.881   8.485  11.077  1.0484  2.7449  0.1187
30668SOL    HW2 3984  12.768   8.451  11.171  1.3859 -0.7366 -0.5862
30669SOL     OW 3985   2.311   0.764   0.648  0.1668  0.3261  0.0441
30669SOL    HW1 3986   2.342   0.824   0.581  1.4696 -0.1238  0.2150
30669SOL    HW2 3987   2.281   0.687   0.600 -1.6003  1.1063 -0.1825
30670SOL     OW 3988  11.080   4.326   5.396 -0.2411  0.4252 -0.4335
30670SOL    HW1 3989  11.029   4.377   5.459 -1.2688  0.9477 -1.6290
30670SOL    HW2 3990  11.092   4.386   5.322  0.8099 -0.2128 -0.7999
30671SOL     OW 3991   5.142  12.693   2.184 -0.4843 -0.6729 -0.3646
30671SOL    HW1 3992   5.169  12.670   2.273 -2.6320 -0.7451  0.3134
30671SOL    HW2 3993   5.097  12.777   2.194 -1.8624 -1.2863 -1.1587
30672SOL     OW 3994   7.503   8.977   7.795  0.0781  0.0562 -0.2877
30672SOL    HW1 3995   7.430   8.916   7.803  1.1695 -1.1940  0.6003
30672SOL    HW2 3996   7.538   8.961   7.708  0.5620 -0.8603  0.0589
30673SOL     OW 3997   1.835   8.389  13.182  0.0967  0.0409 -0.2176
30673SOL    HW1 3998   1.748   8.370  13.146 -0.5443  2.4753 -0.1306
30673SOL    HW2 3999   1.894   8.331  13.134 -1.4106 -0.6255 -1.3391
30674SOL     OW 4000  10.607   7.156  11.078 -0.0638 -0.2162 -0.2345
30674SOL    HW1 4001  10.663   7.103  11.021  1.7866  0.9652  0.3905
30674SOL    HW2 4002  10.550   7.092  11.120 -1.3091 -1.1698 -3.1002
30675SOL     OW 4003   9.397  11.703   3.860  0.4033  0.2644 -0.4235
30675SOL    HW1 4004   9.411  11.783   3.912  1.5010  0.3637 -0.8418
30675SOL    HW2 4005   9.314  11.668   3.893 -1.5122  2.9409 -1.9907
30676SOL     OW 4006   6.227  11.050  12.488 -0.0160 -0.6024 -0.4433
30676SOL    HW1 4007   6.321  11.052  12.471  0.1023  1.5556  0.1221
30676SOL    HW2 4008   6.186  11.061  12.403  0.3070  0.0722 -0.5196
30677SOL     OW 4009   0.004  10.109   4.127 -0.1985 -0.4849 -0.1372
30677SOL    HW1 4010  -0.023  10.028   4.170  0.7537 -0.4961  0.4854
30677SOL    HW2 4011  -0.074  10.163   4.127 -1.0946 -1.7140 -1.3610
30678SOL     OW 4012   3.425   1.673   0.764 -0.3421 -0.3664  0.0185
30678SOL    HW1 4013   3.520   1.676   0.764 -0.3129 -0.9950 -0.4630
30678SOL    HW2 4014   3.398   1.763   0.781  0.3518  0.3344 -2.1862
30679SOL     OW 4015  11.877   5.762   1.529 -0.5714 -0.3831 -0.0599
30679SOL    HW1 4016  11.825   5.687   1.557 -0.2133 -0.5721  0.1155
30679SOL    HW2 4017  11.817   5.817   1.479 -0.8219 -0.8201 -0.2405
30680SOL     OW 4018  10.826  13.366   3.363  0.2867 -0.1897  0.3433
30680SOL    HW1 4019  10.879  13.366   3.443  1.5564  0.2134 -0.4734
30680SOL    HW2 4020  10.843  13.452   3.324 -0.7775 -0.1579 -0.0847
30681SOL     OW 4021  11.900   6.479   3.523 -0.3932 -0.0462  0.2092
30681SOL    HW1 4022  11.981   6.466   3.474  0.3489  2.0403  0.8039
30681SOL    HW2 4023  11.834   6.494   3.455  0.7686  3.6664 -0.3096
30682SOL     OW 4024  10.808   5.559   9.528 -0.2107  0.1473 -0.1364
30682SOL    HW1 4025  10.854   5.476   9.540  1.7416  1.0953 -0.6390
30682SOL    HW2 4026  10.715   5.535   9.527  0.0869 -1.6640  2.7018
30683SOL     OW 4027   7.054  10.150   5.492 -0.0420  0.3474  0.1863
30683SOL    HW1 4028   7.071  10.056   5.490 -0.0200  0.3523 -1.1907
30683SOL    HW2 4029   7.139  10.189   5.513  0.1521  0.0893 -0.0969
30684SOL     OW 4030   7.785   8.666   7.914  0.4323  0.1563 -0.8590
30684SOL    HW1 4031   7.714   8.682   7.975  0.5484 -0.4444 -0.5514
30684SOL    HW2 4032   7.851   8.619   7.966  1.3228  1.2289 -0.9732
30685SOL     OW 4033   3.426   4.650   1.291 -0.4287  0.4033  0.0912
30685SOL    HW1 4034   3.471   4.572   1.259  1.1706 -0.2502  3.5087
30685SOL    HW2 4035   3.334   4.625   1.294 -0.0512 -1.0386  0.2520
30686SOL     OW 4036   8.793  12.295   8.650 -0.4650 -1.0245 -0.4505
30686SOL    HW1 4037   8.852  12.369   8.648 -3.0229  1.1604 -0.7328
30686SOL    HW2 4038   8.783  12.269   8.558 -0.2675 -1.1251 -0.4438
30687SOL     OW 4039   8.339   8.366   0.437  0.0376 -0.4546  0.3978
30687SOL    HW1 4040   8.264   8.380   0.379 -1.4784 -0.9332  2.1463
30687SOL    HW2 4041   8.301   8.362   0.525  1.6786 -3.6916  1.1190
30688SOL     OW 4042  13.643   0.410  12.378 -0.4438 -0.3048 -0.1223
30688SOL    HW1 4043  13.594   0.339  12.420  0.9866 -1.3532 -0.1725
30688SOL    HW2 4044  13.721   0.421  12.432 -0.3348  0.8153 -0.4818
30689SOL     OW 4045   4.173  13.582   2.757 -0.0355 -0.3877 -0.4791
30689SOL    HW1 4046   4.130  13.509   2.713 -0.0595 -0.5214 -0.2350
30689SOL    HW2 4047   4.185  13.552   2.847  1.2224 -0.6457 -0.7058
30690SOL     OW 4048  10.410  11.739   1.205  0.4761 -0.1881  0.2274
30690SOL    HW1 4049  10.455  11.823   1.204  1.7229 -0.7941  1.7446
30690SOL    HW2 4050  10.417  11.709   1.296 -1.9082 -0.9026  0.2440
30691SOL     OW 4051   2.709  11.702   5.517  0.1956  0.3062  0.0990
30691SOL    HW1 4052   2.774  11.758   5.476  0.0465  0.4606  0.0706
30691SOL    HW2 4053   2.661  11.761   5.576  0.9236 -0.0659  1.1013
30692SOL     OW 4054  11.222   4.475   7.628  0.0172 -0.3187  0.2460
30692SOL    HW1 4055  11.230   4.559   7.673  1.5972 -1.4014  2.1783
30692SOL    HW2 4056  11.142   4.482   7.576 -0.4782  1.9721  1.2147
30693SOL     OW 4057   9.890   1.636  13.533 -0.4810  0.7756  0.0410
30693SOL    HW1 4058   9.945   1.598  13.465  0.4394  0.2650  1.0458
30693SOL    HW2 4059   9.823   1.569  13.550  0.5966 -0.0729  1.1600
30694SOL     OW 4060   1.217   3.030  12.244 -0.3090 -0.5549  0.2136
30694SOL    HW1 4061   1.212   2.939  12.217 -0.7565 -1.2824  2.5069
30694SOL    HW2 4062   1.134   3.069  12.214 -0.0122 -0.8099 -0.9748
30695SOL     OW 4063   3.121  11.964  11.267 -0.0094 -0.1370  0.0727
30695SOL    HW1 4064   3.208  11.932  11.245  0.3476  0.2274  0.9083
30695SOL    HW2 4065   3.072  11.960  11.185  0.4922 -1.2936 -0.1822
30696SOL     OW 4066   1.152   3.495   6.898 -0.1688  0.2475  0.1368
30696SOL    HW1 4067   1.095   3.419   6.886 -0.4871  0.5061 -0.0204
30696SOL    HW2 4068   1.096   3.570   6.876 -0.7356  0.7577  2.9476
30697SOL     OW 4069   6.992   8.803   0.292  0.2320 -0.3823 -0.0759
30697SOL    HW1 4070   7.081   8.809   0.258  0.7453  0.5374  1.3736
30697SOL    HW2 4071   6.948   8.743   0.232  1.3973  0.3123 -1.7045
30698SOL     OW 4072   4.259   7.004  10.868 -0.2952 -0.3416 -0.0473
30698SOL    HW1 4073   4.293   7.010  10.778  1.5646 -1.4805  0.5379
30698SOL    HW2 4074   4.265   6.911  10.890  1.5515  0.2062  2.0605
30699SOL     OW 4075   8.431   1.025   0.199 -0.0753  0.0768 -0.2936
30699SOL    HW1 4076   8.438   1.118   0.178  2.1509 -0.0414 -0.3077
30699SOL    HW2 4077   8.499   0.983   0.147 -2.4329 -1.9435 -2.0164
30700SOL     OW 4078  12.228   5.428   7.968  0.5218  0.2238 -0.5727
30700SOL    HW1 4079  12.314   5.406   7.932  1.2997  3.2831 -0.8995
30700SOL    HW2 4080  12.232   5.523   7.980 -2.3542  0.2578  0.7047
30701SOL     OW 4081   6.404   5.751   9.847  0.4589 -0.7882  0.1661
30701SOL    HW1 4082   6.346   5.828   9.847  0.3907 -0.8388  0.7419
30701SOL    HW2 4083   6.345   5.677   9.829  0.5495 -0.6913 -0.5520
30702SOL     OW 4084   6.985  12.043   0.960 -0.2050  0.1084  0.1542
30702SOL    HW1 4085   6.981  12.080   0.872  0.0154 -1.1117 -0.3838
30702SOL    HW2 4086   6.925  11.968   0.958  1.1607 -1.0281  0.4907
30703SOL     OW 4087  11.644   6.918   6.225 -0.3250  0.0035 -0.6188
30703SOL    HW1 4088  11.691   7.000   6.224  0.2216 -0.2637  0.9781
30703SOL    HW2 4089  11.573   6.931   6.288 -0.5255 -0.5861 -0.7090
30704SOL     OW 4090   1.212   8.705  11.930  0.1800 -0.3454 -0.8074
30704SOL    HW1 4091   1.232   8.770  11.862  1.1903 -0.0015 -0.2156
30704SOL    HW2 4092   1.276   8.636  11.915 -0.5267 -0.9534 -1.0779
30705SOL     OW 4093   1.162   2.524   8.007  0.1683  0.4364  0.7610
30705SOL    HW1 4094   1.215   2.472   8.068  0.4322  0.2413  0.3767
30705SOL    HW2 4095   1.072   2.512   8.037  0.4632  2.3017  2.5789
30706SOL     OW 4096   5.370  12.418   9.654  0.2890 -0.0874 -0.3424
30706SOL    HW1 4097   5.456  12.460   9.650  0.0385  0.4241 -0.4869
30706SOL    HW2 4098   5.309  12.490   9.670 -0.3276 -0.1665 -2.1023
30707SOL     OW 4099   8.957   6.271   4.003  0.0455  0.4820 -0.3024
30707SOL    HW1 4100   8.948   6.317   3.919 -0.7629  1.3399  0.2326
30707SOL    HW2 4101   8.868   6.268   4.037  0.3045 -0.2625  0.3275
30708SOL     OW 4102   3.862  10.931   9.196  0.1414 -0.0178 -0.4128
30708SOL    HW1 4103   3.857  10.993   9.124  0.3354  1.0601  0.4654
30708SOL    HW2 4104   3.853  10.845   9.155  2.5052  0.3928 -2.0055
30709SOL     OW 4105   5.011   0.737  10.375  0.5449  0.1170 -0.8555
30709SOL    HW1 4106   4.929   0.754  10.420  0.7185 -0.0369 -0.4823
30709SOL    HW2 4107   5.071   0.707  10.443  0.6185 -0.7646 -1.2934
30710SOL     OW 4108  11.410  13.318   1.505 -0.4574  0.1275 -0.3502
30710SOL    HW1 4109  11.387  13.242   1.452 -0.9204  0.9081 -1.2929
30710SOL    HW2 4110  11.346  13.317   1.577 -0.6726 -0.1841 -0.5432
30711SOL     OW 4111   6.355  10.101   0.870  0.1799  0.3642  0.3762
30711SOL    HW1 4112   6.406  10.133   0.795  1.5872 -0.7886  0.8077
30711SOL    HW2 4113   6.399  10.021   0.897 -1.0712  0.0647  1.6562
30712SOL     OW 4114  13.330   5.384   6.356  0.4695  0.1151 -0.9328
30712SOL    HW1 4115  13.303   5.475   6.352 -0.0525  0.0260  0.1515
30712SOL    HW2 4116  13.421   5.386   6.383 -0.4071  0.2902  2.3955
30713SOL     OW 4117   5.754   3.864  10.111  0.4610 -0.0222  0.4307
30713SOL    HW1 4118   5.800   3.908  10.039 -1.7693 -1.5034 -2.0846
30713SOL    HW2 4119   5.671   3.911  10.118  0.4987 -0.1407  1.8332
30714SOL     OW 4120   7.354   0.666   7.387  0.1042  0.0532 -0.4002
30714SOL    HW1 4121   7.259   0.653   7.393 -0.1665  1.2105 -1.8489
30714SOL    HW2 4122   7.378   0.628   7.303  1.0973 -0.9532  0.2972
30715SOL     OW 4123   8.002  12.038  11.399  0.8078 -0.7778 -0.2525
30715SOL    HW1 4124   7.926  12.009  11.449  0.1762 -0.6046 -1.0828
30715SOL    HW2 4125   8.026  12.122  11.438 -0.1707 -0.2596 -0.7351
30716SOL     OW 4126  13.556   7.978   8.862  0.3689  0.2654  0.4865
30716SOL    HW1 4127  13.553   7.978   8.957  2.0416 -1.8086  0.6275
30716SOL    HW2 4128  13.644   8.007   8.840 -0.6539  2.8433 -0.5906
30717SOL     OW 4129  12.671   1.688   3.402 -0.4018  0.4808 -0.0494
30717SOL    HW1 4130  12.663   1.631   3.325  1.4881  1.4332 -1.0301
30717SOL    HW2 4131  12.596   1.747   3.396 -0.5151  0.2592 -0.9396
30718SOL     OW 4132  10.867  13.628   2.777 -0.0397 -0.5961 -0.1230
30718SOL    HW1 4133  10.925  13.690   2.732 -0.5076  0.0339  0.1250
30718SOL    HW2 4134  10.786  13.630   2.726 -0.3943 -0.2685  0.4449
30719SOL     OW 4135   2.623   3.535   6.911 -0.2460 -0.3553  0.1737
30719SOL    HW1 4136   2.577   3.591   6.850  0.9836  2.2335  1.4806
30719SOL    HW2 4137   2.694   3.589   6.946 -0.3728 -1.9349  3.2772
30720SOL     OW 4138   9.359   4.829  13.658  0.2437 -0.6620  0.4520
30720SOL    HW1 4139   9.362   4.737  13.631 -1.3259 -1.4515  2.6864
30720SOL    HW2 4140   9.272   4.840  13.698  0.3096  1.8622  0.1067
30721SOL     OW 4141   6.867   9.084   8.323  0.3038 -0.4765  0.3142
30721SOL    HW1 4142   6.914   9.011   8.364  1.2467 -0.6297 -0.9955
30721SOL    HW2 4143   6.926   9.116   8.256 -2.2289 -2.1825 -3.0479
30722SOL     OW 4144  10.482   1.600  10.142 -0.0047 -0.1603  0.0214
30722SOL    HW1 4145  10.520   1.644  10.066 -0.1666  1.6216  0.9187
30722SOL    HW2 4146  10.410   1.657  10.169 -0.7398 -1.4099  0.7757
30723SOL     OW 4147   9.252  11.946   2.511  0.5411 -0.1651 -0.0679
30723SOL    HW1 4148   9.330  11.995   2.488  0.6675 -0.1575  0.3677
30723SOL    HW2 4149   9.268  11.915   2.600 -0.7727  1.5535  0.8367
30724SOL     OW 4150  13.223   4.046   9.736  0.6127 -0.1910  0.9048
30724SOL    HW1 4151  13.287   4.074   9.671 -1.0212 -1.9124 -1.6023
30724SOL    HW2 4152  13.229   3.950   9.736 -1.5102 -0.3569  1.0455
30725SOL     OW 4153  12.272   9.951   0.110  0.3795 -0.5149  0.1662
30725SOL    HW1 4154  12.273   9.908   0.025  0.3431 -1.8667  0.8190
30725SOL    HW2 4155  12.358   9.992   0.117  1.2320 -2.2316  0.3512
30726SOL     OW 4156  10.194   2.209   7.777  0.1659  0.4995 -0.1019
30726SOL    HW1 4157  10.167   2.131   7.824  2.0661  0.3028  0.7638
30726SOL    HW2 4158  10.180   2.188   7.684  0.6738 -0.8888  0.1189
30727SOL     OW 4159   0.615   0.453   6.156 -0.1142  0.4483  0.6952
30727SOL    HW1 4160   0.610   0.540   6.196 -0.3981 -0.1707  2.0674
30727SOL    HW2 4161   0.525   0.421   6.157  0.0673 -0.0673  0.6727
30728SOL     OW 4162   6.139  11.158   1.677  0.0451 -0.2169  0.0641
30728SOL    HW1 4163   6.059  11.150   1.626  1.9221 -0.8030 -3.0174
30728SOL    HW2 4164   6.182  11.237   1.644  0.5994  0.3285  1.9393
30729SOL     OW 4165   5.114   9.749  13.593 -0.3910 -0.5434  0.4799
30729SOL    HW1 4166   5.114   9.657  13.569 -1.1200 -0.3065 -0.5054
30729SOL    HW2 4167   5.022   9.774  13.594 -0.2353  0.0488  1.2693
30730SOL     OW 4168  11.587   5.392   7.657  0.1719  0.0602  0.2965
30730SOL    HW1 4169  11.658   5.411   7.719  0.9571 -0.5950 -0.3753
30730SOL    HW2 4170  11.512   5.371   7.713  0.9678 -0.8962  1.0437
30731SOL     OW 4171   3.980   4.096   8.249  0.0236 -0.2335 -0.1164
30731SOL    HW1 4172   3.948   4.183   8.224 -0.8599 -0.2408  0.9115
30731SOL    HW2 4173   4.040   4.114   8.322 -0.9827 -0.5555  0.8074
30732SOL     OW 4174  12.754  12.947   6.010  0.0829  0.0314 -0.2369
30732SOL    HW1 4175  12.829  12.981   6.059 -0.4000  0.6942  0.0427
30732SOL    HW2 4176  12.706  13.024   5.981 -1.1877 -0.3925  0.6476
30733SOL     OW 4177  12.365  13.641   3.296  0.4632  0.4439  0.2240
30733SOL    HW1 4178  12.371  13.653   3.391  1.6506  0.6028  0.1424
30733SOL    HW2 4179  12.275  13.665   3.274  0.4401  1.2742  1.1814
30734SOL     OW 4180   1.518   0.220   5.993 -0.0040  0.0178  0.1541
30734SOL    HW1 4181   1.428   0.191   6.006  0.2186  0.0621  2.1280
30734SOL    HW2 4182   1.514   0.315   5.999  0.4903 -0.0479  3.3135
30735SOL     OW 4183   4.657   1.577   6.139 -0.3511  0.0888  0.3497
30735SOL    HW1 4184   4.632   1.603   6.228 -0.3703 -0.0049  0.3714
30735SOL    HW2 4185   4.696   1.656   6.102 -1.9721  0.6682 -0.1757
30736SOL     OW 4186   3.985  13.581  10.617 -0.3904  0.4457 -0.1508
30736SOL    HW1 4187   4.001  13.664  10.662 -0.2402  1.2510 -1.6424
30736SOL    HW2 4188   3.904  13.548  10.655  0.2635  0.5683  1.4320
30737SOL     OW 4189  11.154   1.961   3.538 -0.1454  0.5514 -0.3506
30737SOL    HW1 4190  11.122   1.874   3.561  2.3827 -0.2326  0.6745
30737SOL    HW2 4191  11.172   1.957   3.444  1.5761 -0.7195 -0.0281
30738SOL     OW 4192   1.930   7.141   5.317 -0.1547  0.2210 -0.5276
30738SOL    HW1 4193   1.956   7.051   5.336  1.4277  0.5065 -1.1695
30738SOL    HW2 4194   1.861   7.160   5.380 -1.7543 -1.9995 -1.4878
30739SOL     OW 4195   3.825   2.093  10.514 -0.2846 -0.3202 -0.0205
30739SOL    HW1 4196   3.778   2.146  10.451  0.4522 -1.3703 -1.5146
30739SOL    HW2 4197   3.914   2.130  10.516  0.0240 -1.0014 -0.5148
30740SOL     OW 4198   5.428   9.973   3.283  0.7320  0.1741 -0.0099
30740SOL    HW1 4199   5.498   9.973   3.349  0.9510  0.2310 -0.2397
30740SOL    HW2 4200   5.359  10.027   3.322  0.8175  0.1248  0.2160
30741SOL     OW 4201   4.381   7.408   3.424 -0.2924 -0.3609 -0.8513
30741SOL    HW1 4202   4.421   7.440   3.343  1.3683 -1.9322 -0.7209
30741SOL    HW2 4203   4.455   7.393   3.483 -1.3243 -0.7939  0.3926
30742SOL     OW 4204  10.451  11.786  11.517  0.2370  0.1085  0.0203
30742SOL    HW1 4205  10.538  11.824  11.517 -0.0864  0.8815 -0.5363
30742SOL    HW2 4206  10.463  11.698  11.481  0.6769  0.5046 -0.8343
30743SOL     OW 4207   2.623  12.918   2.962  0.1874 -1.1106  0.4854
30743SOL    HW1 4208   2.650  12.927   2.870  1.1900 -2.9815  0.5445
30743SOL    HW2 4209   2.528  12.903   2.957 -0.1878  1.0522 -0.0410
30744SOL     OW 4210  13.492   4.593   9.153  0.2122  0.0958 -0.3300
30744SOL    HW1 4211  13.411   4.593   9.203  0.3399 -0.2222 -0.1220
30744SOL    HW2 4212  13.534   4.676   9.174 -0.8564  1.0371 -1.7451
30745SOL     OW 4213   4.400   1.717   5.137 -0.9097 -0.1414  0.3239
30745SOL    HW1 4214   4.340   1.673   5.196 -0.6238  1.0446  1.5430
30745SOL    HW2 4215   4.353   1.795   5.107 -0.3378  0.2964  0.5450
30746SOL     OW 4216  12.794   2.317  13.421 -0.9039 -0.5844  0.5806
30746SOL    HW1 4217  12.761   2.236  13.458 -1.7131 -0.5482 -0.0215
30746SOL    HW2 4218  12.718   2.357  13.380 -0.3510  0.0938  0.1888
30747SOL     OW 4219   4.004  12.565   9.668 -1.0609 -0.5639 -0.1594
30747SOL    HW1 4220   4.014  12.609   9.584 -0.9754  0.6756  0.4800
30747SOL    HW2 4221   3.923  12.514   9.659  0.0843 -2.2411 -1.7205
30748SOL     OW 4222   7.650   9.513   7.526 -0.3506 -0.4576 -0.7075
30748SOL    HW1 4223   7.713   9.445   7.502  0.1245  0.2023 -1.3656
30748SOL    HW2 4224   7.564   9.472   7.513 -0.0659 -1.0715 -0.6627
30749SOL     OW 4225  12.572  12.590   2.115  0.2599 -0.6748  0.3471
30749SOL    HW1 4226  12.555  12.520   2.178 -0.8838 -0.7369 -0.0101
30749SOL    HW2 4227  12.608  12.545   2.038  0.2123 -0.7938  0.3935
30750SOL     OW 4228   3.483  13.736  11.123  0.1790  0.0667 -0.2568
30750SOL    HW1 4229   3.451  13.700  11.205 -0.8067 -0.8588 -1.0128
30750SOL    HW2 4230   3.493  13.830  11.140  0.7180 -0.2148  1.1200
30751SOL     OW 4231   8.687   7.933   6.522 -0.6537  0.1334 -0.5990
30751SOL    HW1 4232   8.611   7.875   6.517 -1.7372  1.1812  1.7954
30751SOL    HW2 4233   8.761   7.875   6.539 -1.3001 -0.7394 -0.7387
30752SOL     OW 4234   1.085   0.682   0.521  0.1161 -0.4039 -0.2157
30752SOL    HW1 4235   1.131   0.765   0.509  0.4818 -0.4605  0.7101
30752SOL    HW2 4236   1.137   0.619   0.472 -0.8596  0.1082 -1.9847
30753SOL     OW 4237  10.160  10.839  12.275 -0.0486  0.0997  0.5822
30753SOL    HW1 4238  10.237  10.833  12.332 -1.2170  1.5158  2.4269
30753SOL    HW2 4239  10.148  10.933  12.261 -0.3690 -0.1675 -1.2979
30754SOL     OW 4240   5.116   0.175   2.851 -0.1924 -0.1536  0.5537
30754SOL    HW1 4241   5.156   0.118   2.917  0.8816 -1.3705 -1.0513
30754SOL    HW2 4242   5.026   0.143   2.843 -0.4525  0.2640  1.6824
30755SOL     OW 4243  13.733  11.585  12.900  0.4683  0.1288 -0.3646
30755SOL    HW1 4244  13.763  11.667  12.938  0.7987 -0.0341 -0.2670
30755SOL    HW2 4245  13.790  11.572  12.824 -0.6727  0.8390 -1.3881
30756SOL     OW 4246   5.138   3.516  10.224  0.2034  0.0139  0.1535
30756SOL    HW1 4247   5.189   3.595  10.241  0.6286 -0.4053  0.9304
30756SOL    HW2 4248   5.179   3.449  10.280 -0.6567 -0.5487  0.1357
30757SOL     OW 4249  11.650   9.081   0.933  0.3139  0.4438 -0.7340
30757SOL    HW1 4250  11.731   9.097   0.885  0.6913 -0.4481 -0.4210
30757SOL    HW2 4251  11.589   9.045   0.868 -0.3777  2.5408 -1.3273
30758SOL     OW 4252   1.999   6.193   7.815  0.0523 -0.9777 -0.2327
30758SOL    HW1 4253   1.960   6.280   7.825  1.0184 -0.6484  0.8895
30758SOL    HW2 4254   1.994   6.175   7.721 -0.0016  0.3591 -0.5046
30759SOL     OW 4255  12.059  12.315   1.292  0.1724 -0.0816  0.3566
30759SOL    HW1 4256  12.112  12.247   1.251 -0.0556 -1.3126  1.9992
30759SOL    HW2 4257  12.041  12.282   1.380  0.6877  2.4383  1.5009
30760SOL     OW 4258   6.472   1.291   2.680  0.3714 -0.6277 -0.5383
30760SOL    HW1 4259   6.461   1.379   2.714  1.6058 -0.2217 -1.1362
30760SOL    HW2 4260   6.393   1.276   2.627  0.2706  0.1993 -0.6362
30761SOL     OW 4261   1.941   5.415  12.311 -0.6940 -0.1192 -0.1098
30761SOL    HW1 4262   1.986   5.334  12.334 -1.0955 -0.3799 -0.2332
30761SOL    HW2 4263   2.010   5.472  12.277 -0.3377 -0.2507  0.3890
30762SOL     OW 4264   1.979   2.961   8.853 -0.2794  0.0145  0.5486
30762SOL    HW1 4265   2.019   2.875   8.853  0.2110  0.0622 -3.1907
30762SOL    HW2 4266   1.890   2.946   8.819 -0.3806  0.9158  0.3839
30763SOL     OW 4267  10.706   7.595   7.010 -0.2513 -0.1680 -0.1871
30763SOL    HW1 4268  10.622   7.595   6.964 -1.0051 -0.5918  1.1269
30763SOL    HW2 4269  10.742   7.682   6.994 -0.1875 -0.4868 -2.0381
30764SOL     OW 4270   8.626   9.355  12.512 -0.0828  0.0186 -0.8010
30764SOL    HW1 4271   8.544   9.348  12.463  1.6162 -2.2228 -3.5973
30764SOL    HW2 4272   8.683   9.409  12.458  0.8224  0.2652  0.3524
30765SOL     OW 4273   2.639   5.184  12.970 -0.1701 -0.2462  0.1694
30765SOL    HW1 4274   2.569   5.165  12.908  0.0622 -0.2252 -0.0984
30765SOL    HW2 4275   2.696   5.247  12.925 -0.0423 -0.1722  0.4292
30766SOL     OW 4276   2.651  13.356  11.987 -0.2846  0.4082 -0.6406
30766SOL    HW1 4277   2.721  13.295  12.008  0.1297  0.0316 -2.8695
30766SOL    HW2 4278   2.686  13.442  12.010 -0.1183  0.0022  0.6921
30767SOL     OW 4279  13.658   0.456   8.272  1.2028  0.3335 -0.3798
30767SOL    HW1 4280  13.610   0.413   8.201 -0.0604  1.2764 -0.1422
30767SOL    HW2 4281  13.674   0.387   8.336 -0.4957  0.1059 -0.1445
30768SOL     OW 4282  11.241  10.928  12.555 -0.7595 -0.1952 -0.4560
30768SOL    HW1 4283  11.302  10.858  12.577 -1.6179 -1.8057 -2.8122
30768SOL    HW2 4284  11.168  10.916  12.616 -0.9109 -1.4229 -0.8429
30769SOL     OW 4285   7.924   7.823  11.972 -0.2474 -0.2323 -0.4203
30769SOL    HW1 4286   8.007   7.778  11.963 -0.1485 -0.1708  0.1158
30769SOL    HW2 4287   7.876   7.804  11.891  0.1862 -0.4721 -0.6194
30770SOL     OW 4288  12.896   9.500   5.696  0.5227 -0.0533 -0.3067
30770SOL    HW1 4289  12.975   9.504   5.751 -0.2125  0.8014  0.7388
30770SOL    HW2 4290  12.928   9.484   5.608  1.9011  0.6426  0.0444
30771SOL     OW 4291   2.660   7.346   3.511  0.8824  0.6478  0.3240
30771SOL    HW1 4292   2.719   7.408   3.555  2.2344 -0.7358  0.5620
30771SOL    HW2 4293   2.594   7.325   3.578  1.7592  0.1010  1.0513
30772SOL     OW 4294   0.751  10.690   5.771 -0.5060 -0.1563  0.5731
30772SOL    HW1 4295   0.840  10.663   5.747 -0.1512  0.7029  0.8921
30772SOL    HW2 4296   0.763  10.774   5.816 -1.4945  0.0227  0.5073
30773SOL     OW 4297   6.642  12.318  11.632  0.1333  0.0667 -0.0575
30773SOL    HW1 4298   6.595  12.301  11.551 -0.3918  0.3587  0.1804
30773SOL    HW2 4299   6.732  12.292  11.614  0.2716  1.2104 -1.0895
30774SOL     OW 4300  13.496   0.646  12.337 -0.2573  0.3304  0.7163
30774SOL    HW1 4301  13.545   0.563  12.339 -0.2485  0.2551 -1.1396
30774SOL    HW2 4302  13.560   0.712  12.363  1.1051  0.3009 -2.1049
30775SOL     OW 4303   9.035   0.181   8.310 -0.1599  0.2402  0.2373
30775SOL    HW1 4304   8.947   0.219   8.315 -0.1403  0.3752 -0.3355
30775SOL    HW2 4305   9.050   0.169   8.216  0.2304 -0.2608  0.3618
30776SOL     OW 4306   8.089  11.323   6.161 -0.2969  0.2457  0.0753
30776SOL    HW1 4307   7.996  11.329   6.141 -0.6456 -1.7715  0.8852
30776SOL    HW2 4308   8.100  11.237   6.201  2.0576  0.1077 -0.7006
30777SOL     OW 4309   2.259   2.640  10.415  0.0783  0.0624 -0.0528
30777SOL    HW1 4310   2.317   2.669  10.345  1.9447 -1.1719  0.9006
30777SOL    HW2 4311   2.236   2.550  10.392 -2.7564  0.9687 -1.1665
30778SOL     OW 4312   7.186   4.292   9.040  0.1602  0.5503  0.4882
30778SOL    HW1 4313   7.130   4.261   8.969  0.4184 -0.6346  0.7731
30778SOL    HW2 4314   7.249   4.351   8.998 -0.4740  0.8606 -0.0426
30779SOL     OW 4315   6.494   2.260   5.313 -0.0447 -0.2735  0.3471
30779SOL    HW1 4316   6.461   2.338   5.269  0.5282  0.6962  1.5638
30779SOL    HW2 4317   6.506   2.196   5.243  0.5546  1.0997 -0.8674
30780SOL     OW 4318   0.121   1.390  13.034 -0.5500 -0.7492  0.3052
30780SOL    HW1 4319   0.113   1.344  12.951 -0.0452 -0.6946  0.2265
30780SOL    HW2 4320   0.032   1.419  13.054 -0.6816 -0.8060 -0.1884
30781SOL     OW 4321   8.033   0.364  11.110  0.1611  0.0239 -0.1630
30781SOL    HW1 4322   8.097   0.358  11.040 -0.7116 -1.0299 -0.9170
30781SOL    HW2 4323   8.047   0.285  11.162  0.0128  0.2023  0.1527
30782SOL     OW 4324   0.963   4.810   3.142 -0.1982 -0.0084 -0.3557
30782SOL    HW1 4325   0.868   4.816   3.135 -0.2069 -0.7339 -1.0227
30782SOL    HW2 4326   0.989   4.755   3.068  0.5375 -1.5424  0.9787
30783SOL     OW 4327  12.150   3.606  10.530  0.0416 -0.0282  0.6280
30783SOL    HW1 4328  12.148   3.686  10.582 -2.4887  0.4656 -0.0589
30783SOL    HW2 4329  12.135   3.536  10.593  0.5897  0.2028  1.0173
30784SOL     OW 4330   9.725   8.775  11.588  0.1206 -0.0618 -0.1937
30784SOL    HW1 4331   9.740   8.846  11.525 -0.5965 -0.0808 -0.3885
30784SOL    HW2 4332   9.669   8.713  11.542  1.3379 -1.1364 -0.2911
30785SOL     OW 4333  13.872   2.322   5.389  0.1372 -0.2126  0.2154
30785SOL    HW1 4334  13.822   2.392   5.430  0.5472  0.6128 -0.6536
30785SOL    HW2 4335  13.944   2.367   5.345  0.6366 -1.2224 -0.0329
30786SOL     OW 4336  10.530  12.392  10.234  0.3153  0.0316 -0.6278
30786SOL    HW1 4337  10.606  12.406  10.291 -0.0683 -2.2230  0.5402
30786SOL    HW2 4338  10.542  12.304  10.199 -0.7066  0.4598 -2.1538
30787SOL     OW 4339   2.441   3.587   2.228  0.1663  0.1975  0.0744
30787SOL    HW1 4340   2.391   3.513   2.262  0.0134  0.0900 -0.3786
30787SOL    HW2 4341   2.529   3.574   2.262 -0.1160  0.4103  0.9152
30788SOL     OW 4342   5.141   4.880  10.023 -0.1125 -0.8381  0.0301
30788SOL    HW1 4343   5.065   4.847   9.975 -1.4969  1.4916  0.4415
30788SOL    HW2 4344   5.117   4.867  10.116 -0.4386  0.6780  0.1788
30789SOL     OW 4345   7.025   1.927   4.069  0.2080  0.4031  0.1834
30789SOL    HW1 4346   6.984   1.929   3.982  0.5449  1.1492  0.0335
30789SOL    HW2 4347   7.096   1.863   4.059 -0.2518 -0.1176  0.1499
30790SOL     OW 4348   9.247  11.740  12.914 -0.1571 -0.2685 -0.0532
30790SOL    HW1 4349   9.332  11.708  12.885  0.2002  0.3833  0.2670
30790SOL    HW2 4350   9.209  11.665  12.961  0.6819 -0.2309  0.7109
30791SOL     OW 4351   5.183  11.302   9.919 -0.7686  0.5593  0.0113
30791SOL    HW1 4352   5.153  11.251   9.994 -0.7931  0.7054  0.1002
30791SOL    HW2 4353   5.117  11.371   9.909 -0.3452  1.0107  0.3386
30792SOL     OW 4354  13.823  12.791   8.916  0.3573 -0.2391  0.0512
30792SOL    HW1 4355  13.869  12.731   8.975  0.5901  1.1164  1.2903
30792SOL    HW2 4356  13.737  12.750   8.905  0.7311 -1.1388  0.3345
30793SOL     OW 4357   0.022   4.212  13.268  0.1461 -0.4303 -0.3677
30793SOL    HW1 4358  -0.020   4.213  13.354  0.1581  1.0064 -0.3504
30793SOL    HW2 4359  -0.015   4.135  13.224  0.0180 -1.0896  0.8518
30794SOL     OW 4360   2.787   2.261  11.656  0.0196  0.4933 -0.2538
30794SOL    HW1 4361   2.697   2.232  11.670  0.3001 -0.9209 -1.0979
30794SOL    HW2 4362   2.780   2.353  11.632 -1.4199 -0.0946 -2.3897
30795SOL     OW 4363   6.560   8.119  13.796  0.3263 -0.9199  0.1118
30795SOL    HW1 4364   6.643   8.120  13.749 -0.0605 -0.2173 -0.5922
30795SOL    HW2 4365   6.549   8.208  13.829  0.8379 -1.5267  2.0339
30796SOL     OW 4366   7.103   4.525   9.435  0.7577  0.1479 -0.6557
30796SOL    HW1 4367   7.157   4.476   9.498  0.3787 -1.3529 -1.4371
30796SOL    HW2 4368   7.014   4.496   9.453  0.6205 -0.1161 -1.6997
30797SOL     OW 4369   8.086   6.496   3.154  0.6659 -0.2352 -0.1005
30797SOL    HW1 4370   8.128   6.582   3.145 -0.4101  0.4373  0.9591
30797SOL    HW2 4371   8.139   6.438   3.099  1.2880  1.1418 -1.0293
30798SOL     OW 4372  10.843  12.015   2.067 -0.6009 -0.0203  0.3177
30798SOL    HW1 4373  10.843  11.938   2.125 -1.5980  0.4291  0.9571
30798SOL    HW2 4374  10.921  12.005   2.013  1.0513  0.0995  2.5052
30799SOL     OW 4375  10.593   2.301  13.343 -0.9225  0.4802 -0.3898
30799SOL    HW1 4376  10.601   2.239  13.270 -0.6245  0.1435 -0.0756
30799SOL    HW2 4377  10.499   2.319  13.349 -1.0254 -0.0335 -0.4098
30800SOL     OW 4378  12.361   6.830  13.329  0.8859 -1.0265 -0.2952
30800SOL    HW1 4379  12.395   6.752  13.373  1.1545 -0.1006  1.2330
30800SOL    HW2 4380  12.412   6.902  13.367  0.2462 -0.0522 -1.2444
30801SOL     OW 4381  10.044  12.293   8.914 -0.6654 -0.4111 -0.4189
30801SOL    HW1 4382  10.092  12.211   8.903  1.5510  0.8119 -0.4951
30801SOL    HW2 4383  10.053  12.338   8.830  0.4718  1.0235  0.4178
30802SOL     OW 4384  12.334   6.054   9.066  0.0520  1.0979  0.2688
30802SOL    HW1 4385  12.324   6.147   9.047 -1.6005  0.6415 -1.3566
30802SOL    HW2 4386  12.245   6.020   9.072  0.4406 -1.0064 -2.8387
30803SOL     OW 4387  10.464   3.161   0.652 -0.2695 -0.4764 -0.2548
30803SOL    HW1 4388  10.533   3.096   0.660  0.1137  0.0061  0.5726
30803SOL    HW2 4389  10.442   3.162   0.559 -0.5210 -2.0127 -0.2388
30804SOL     OW 4390   8.980   4.834   3.286  0.2471 -0.2789 -0.7759
30804SOL    HW1 4391   9.030   4.773   3.340  1.7741  1.9637  0.5247
30804SOL    HW2 4392   9.033   4.844   3.207  0.1844 -0.3551 -0.8277
30805SOL     OW 4393   8.303  12.018   9.398 -0.2239  0.0912  0.0091
30805SOL    HW1 4394   8.340  12.101   9.367 -0.8618  0.5610  0.4871
30805SOL    HW2 4395   8.376  11.956   9.392  0.5267  0.8989  0.5292
30806SOL     OW 4396   6.784   5.247   4.959  0.4526 -0.2832 -0.1104
30806SOL    HW1 4397   6.793   5.342   4.965  0.0267 -0.2515  0.1228
30806SOL    HW2 4398   6.792   5.228   4.866 -0.0350  0.0483 -0.2238
30807SOL     OW 4399   5.046   2.437  11.316  0.1285  0.0414 -0.2342
30807SOL    HW1 4400   5.059   2.368  11.251  0.4983 -0.1770  0.0693
30807SOL    HW2 4401   4.951   2.439  11.330  0.2406 -1.5848  1.0092
30808SOL     OW 4402   1.096   2.418  11.280 -0.4832 -0.0016 -0.4206
30808SOL    HW1 4403   1.159   2.422  11.352  0.3333 -2.5883 -0.8666
30808SOL    HW2 4404   1.082   2.509  11.255 -0.1019  0.9175  2.3826
30809SOL     OW 4405  11.747   1.230   4.972  0.2011  0.5635 -0.5388
30809SOL    HW1 4406  11.798   1.193   5.044  0.0669  0.1468 -0.6533
30809SOL    HW2 4407  11.750   1.324   4.987 -0.3552  0.4504  0.3755
30810SOL     OW 4408   7.349  12.812  10.302  0.0508  0.4603 -0.0101
30810SOL    HW1 4409   7.292  12.863  10.360 -0.4623  0.0226 -0.1216
30810SOL    HW2 4410   7.320  12.835  10.214  0.4055  0.6408 -0.0820
30811SOL     OW 4411   4.976   1.880   8.828 -0.0863  0.0638  0.4079
30811SOL    HW1 4412   4.925   1.948   8.784  0.9682  0.2242 -0.6180
30811SOL    HW2 4413   4.941   1.877   8.917  1.7236  3.9590  1.4456
30812SOL     OW 4414   0.189  13.848  13.969  0.7949  0.0652 -0.2701
30812SOL    HW1 4415   0.098  13.827  13.991  0.2214  2.2657 -0.3512
30812SOL    HW2 4416   0.221  13.770  13.922 -1.2892 -0.4225 -0.9814
30813SOL     OW 4417  12.764  11.494  10.774 -0.2001  0.2456 -0.0442
30813SOL    HW1 4418  12.694  11.430  10.765  0.3433 -0.5591  1.1491
30813SOL    HW2 4419  12.769  11.537  10.689 -0.3523 -1.5400 -0.9996
30814SOL     OW 4420   3.097   1.175   6.819  0.4767 -0.0970  0.1871
30814SOL    HW1 4421   3.021   1.171   6.877  1.0444 -2.3790  0.8866
30814SOL    HW2 4422   3.161   1.228   6.867 -0.2031  0.7744  0.1554
30815SOL     OW 4423  11.498   8.062   5.514 -0.1475  0.2736 -0.4511
30815SOL    HW1 4424  11.429   7.999   5.494 -0.4248 -0.5097  2.4448
30815SOL    HW2 4425  11.471   8.143   5.470 -0.7829 -1.0533 -2.6642
30816SOL     OW 4426   9.192   5.976   1.003  0.5074  0.3662 -0.0207
30816SOL    HW1 4427   9.149   5.907   0.953 -1.7601  1.8391 -0.2545
30816SOL    HW2 4428   9.255   5.930   1.058  0.0801 -1.7184 -1.1696
30817SOL     OW 4429   4.885  11.154   1.227 -0.2561  0.1957  0.3493
30817SOL    HW1 4430   4.953  11.214   1.196 -0.4687  1.2767  1.8610
30817SOL    HW2 4431   4.928  11.100   1.293 -0.0168 -1.5087 -1.1333
30818SOL     OW 4432   8.203   9.473   5.283 -0.3975  0.2356 -0.7748
30818SOL    HW1 4433   8.121   9.519   5.301 -0.5653 -0.5207  0.5219
30818SOL    HW2 4434   8.269   9.522   5.332 -0.5049 -0.6192  0.2471
30819SOL     OW 4435   6.563   4.907  12.348  0.1961 -0.3967 -0.2504
30819SOL    HW1 4436   6.619   4.829  12.359 -0.3132 -0.4437  2.7469
30819SOL    HW2 4437   6.612   4.977  12.391 -0.2653  0.5260 -1.1896
30820SOL     OW 4438   9.936  11.813  10.354  0.4059 -0.0473  0.0316
30820SOL    HW1 4439  10.000  11.746  10.374 -0.3101 -0.2532  1.7794
30820SOL    HW2 4440   9.860  11.792  10.409 -0.9127  0.5800 -1.4642
30821SOL     OW 4441   9.299   0.020   2.026 -0.0976  0.6875  0.5159
30821SOL    HW1 4442   9.285  -0.071   1.999 -2.3202  1.2692 -0.5225
30821SOL    HW2 4443   9.360   0.055   1.961 -0.8679  0.4816 -0.3455
30822SOL     OW 4444  12.902  12.464   1.029 -0.5362 -0.3289  0.0925
30822SOL    HW1 4445  12.840  12.506   1.088 -1.6488 -0.7010 -0.7736
30822SOL    HW2 4446  12.903  12.520   0.952 -0.4074 -0.7435 -0.2132
30823SOL     OW 4447  13.954   4.500   5.752  0.5181 -0.3698  0.4188
30823SOL    HW1 4448  14.000   4.422   5.721  1.0075  0.8616 -2.2039
30823SOL    HW2 4449  14.004   4.574   5.717 -2.4860  1.0677 -1.2375
30824SOL     OW 4450   3.947   0.507   8.384 -0.3899  0.2939 -0.4665
30824SOL    HW1 4451   3.928   0.417   8.413 -4.5444  1.3039  0.6019
30824SOL    HW2 4452   3.968   0.499   8.291 -0.5393 -1.8036 -0.3643
30825SOL     OW 4453   1.415   9.924  11.860 -0.3800  0.3082  0.3308
30825SOL    HW1 4454   1.425   9.859  11.929  1.6634 -0.6591 -0.8103
30825SOL    HW2 4455   1.353   9.885  11.798  2.5832 -1.8101 -1.5782
30826SOL     OW 4456   4.926   4.724   1.177  0.7178  0.0183 -0.1611
30826SOL    HW1 4457   4.927   4.637   1.137  3.0886 -0.2830  0.4258
30826SOL    HW2 4458   4.929   4.784   1.103 -0.7194 -0.3630 -0.5653
30827SOL     OW 4459   7.077   1.400  12.436 -0.2508 -0.0621  0.7467
30827SOL    HW1 4460   7.052   1.325  12.491  0.5864  0.4251  1.8090
30827SOL    HW2 4461   7.143   1.446  12.486 -0.2514  1.0193 -0.2099
30828SOL     OW 4462  13.652   4.706  13.110  0.0398 -0.0234  0.2457
30828SOL    HW1 4463  13.579   4.695  13.049  0.4431  0.4899 -0.3317
30828SOL    HW2 4464  13.646   4.797  13.139  0.7837  0.1867 -0.2400
30829SOL     OW 4465   7.990  10.180   8.530 -0.6517 -0.3196  0.1611
30829SOL    HW1 4466   7.956  10.144   8.448  2.3226 -1.2706 -0.7824
30829SOL    HW2 4467   7.981  10.108   8.593  4.4139 -2.8748 -1.4911
30830SOL     OW 4468  10.692   1.729  12.045 -0.1936  0.3239  0.4423
30830SOL    HW1 4469  10.701   1.738  11.950  0.3042  1.4476  0.5741
30830SOL    HW2 4470  10.695   1.819  12.077 -0.9407 -0.0026  1.4848
30831SOL     OW 4471  12.290   3.085   5.697 -0.6819 -0.4557 -0.7266
30831SOL    HW1 4472  12.324   3.142   5.628  0.7011 -1.4454 -0.9090
30831SOL    HW2 4473  12.336   3.002   5.684  1.3789 -0.0277  2.7511
30832SOL     OW 4474   2.497   1.847   5.738  0.5891 -0.4857  0.2278
30832SOL    HW1 4475   2.476   1.931   5.698  0.5650 -0.5528  0.0972
30832SOL    HW2 4476   2.549   1.801   5.671  0.7552 -0.5034  0.3670
30833SOL     OW 4477  10.852  13.086   3.406 -0.1991  0.2159 -0.1678
30833SOL    HW1 4478  10.834  13.174   3.371  0.2695 -0.4022 -2.0939
30833SOL    HW2 4479  10.886  13.037   3.331 -1.0755 -1.8224  0.6958
30834SOL     OW 4480  12.881   1.675  10.635  0.5469 -0.0823  0.1283
30834SOL    HW1 4481  12.871   1.675  10.730 -0.5548 -0.4357  0.0190
30834SOL    HW2 4482  12.917   1.761  10.614  1.9680 -0.4303  0.9689
30835SOL     OW 4483   8.355  12.077   4.226  0.3944 -0.2890 -0.1620
30835SOL    HW1 4484   8.360  12.047   4.317 -1.9325 -0.3868  0.0084
30835SOL    HW2 4485   8.445  12.099   4.203  1.0671 -0.3461  2.1311
30836SOL     OW 4486   8.299   8.969  11.439 -0.2737  0.0746  0.2237
30836SOL    HW1 4487   8.213   8.939  11.409 -0.3184  1.8998 -1.7005
30836SOL    HW2 4488   8.301   8.945  11.532 -2.1340 -1.5529 -0.0828
30837SOL     OW 4489  12.702   8.649   7.353  0.5005 -0.1488 -0.2738
30837SOL    HW1 4490  12.766   8.616   7.289 -1.2829  0.4618 -2.4974
30837SOL    HW2 4491  12.747   8.722   7.395  2.6108 -2.0636  1.0319
30838SOL     OW 4492   4.744   0.247   6.158 -0.0742 -0.3400  0.3181
30838SOL    HW1 4493   4.807   0.214   6.094  0.5606 -0.8446  1.1663
30838SOL    HW2 4494   4.675   0.180   6.160 -0.1507 -0.2686  0.0870
30839SOL     OW 4495   0.121   4.036   7.897 -0.4356 -0.2298  0.4599
30839SOL    HW1 4496   0.036   4.079   7.906 -0.0851  0.5049  0.3622
30839SOL    HW2 4497   0.184   4.108   7.888  0.1800 -0.7635  0.3630
30840SOL     OW 4498  12.009   8.638   1.899  0.0749 -0.1111  0.0333
30840SOL    HW1 4499  11.961   8.600   1.825 -1.0855 -0.1892  0.7936
30840SOL    HW2 4500  11.998   8.733   1.888  3.6240  0.1928 -2.2986
30841SOL     OW 4501   8.657   4.416   7.583  0.4739  0.6226 -0.6668
30841SOL    HW1 4502   8.583   4.364   7.614  1.9052 -1.3958 -0.3606
30841SOL    HW2 4503   8.635   4.506   7.605 -1.4959 -0.0123  0.1770
30842SOL     OW 4504   9.532  11.036   8.529 -0.3238 -1.1832 -0.3715
30842SOL    HW1 4505   9.499  11.079   8.450  2.2962 -1.2026 -1.6062
30842SOL    HW2 4506   9.487  10.951   8.530 -3.2834  0.2754  0.4118
30843SOL     OW 4507  12.706   4.410  13.203  0.0177  0.7068 -0.1673
30843SOL    HW1 4508  12.733   4.368  13.121 -1.4472  1.8671 -1.2975
30843SOL    HW2 4509  12.776   4.472  13.222  0.2348  0.6262 -0.6927
30844SOL     OW 4510   2.765   7.774  12.459  0.3752  0.2270  0.2121
30844SOL    HW1 4511   2.705   7.776  12.385  0.8531 -1.6770 -0.2881
30844SOL    HW2 4512   2.848   7.805  12.423  0.8123 -1.4403 -0.3123
30845SOL     OW 4513   2.627   2.093   5.970 -0.1139 -0.3425  0.2936
30845SOL    HW1 4514   2.694   2.094   5.902 -0.0493 -1.6297  0.2970
30845SOL    HW2 4515   2.656   2.158   6.034  0.2267  0.3264 -0.5302
30846SOL     OW 4516   4.350   8.774  10.483 -0.0264  0.3229 -0.4887
30846SOL    HW1 4517   4.379   8.745  10.396 -0.1345  1.9192 -1.0915
30846SOL    HW2 4518   4.408   8.729  10.544  0.6458 -0.1287 -1.4360
30847SOL     OW 4519   1.525   6.962  12.531  0.0341 -0.1213  0.3598
30847SOL    HW1 4520   1.527   6.873  12.497  2.3014 -0.3885  0.9656
30847SOL    HW2 4521   1.500   7.016  12.457 -0.6974 -1.1947 -0.1993
30848SOL     OW 4522  11.913   1.684   7.404  0.1252  0.3530  0.1196
30848SOL    HW1 4523  11.957   1.604   7.434 -0.2953  0.6666  1.6059
30848SOL    HW2 4524  11.975   1.754   7.422  0.8683  0.3199 -2.0026
30849SOL     OW 4525   2.456   9.921   6.857  0.1085 -0.4178  0.1087
30849SOL    HW1 4526   2.532   9.949   6.907  0.8198 -1.3147 -0.4454
30849SOL    HW2 4527   2.382   9.964   6.900  1.0013  1.2163  0.0792
30850SOL     OW 4528  10.746  11.687   5.062 -0.2354  0.5259  0.2014
30850SOL    HW1 4529  10.774  11.727   5.145  0.2902  3.9990 -1.4810
30850SOL    HW2 4530  10.812  11.715   4.999 -2.8117  1.5692 -2.2119
30851SOL     OW 4531   6.901   2.111   1.479 -0.3351 -0.6163 -0.1061
30851SOL    HW1 4532   6.871   2.060   1.404 -1.9139 -0.1257  0.1377
30851SOL    HW2 4533   6.884   2.202   1.455  0.8511 -0.3172  0.1350
30852SOL     OW 4534   3.609   0.649  13.197  0.2118 -0.3766 -0.8402
30852SOL    HW1 4535   3.622   0.557  13.221  0.4072  0.1731  1.3831
30852SOL    HW2 4536   3.604   0.648  13.102  1.3900 -2.5389 -0.9560
30853SOL     OW 4537   1.254   1.341   8.859  0.1101  0.5307  0.5413
30853SOL    HW1 4538   1.164   1.310   8.859  0.2036  0.0050 -2.2391
30853SOL    HW2 4539   1.306   1.263   8.879  0.0386  0.1460 -0.6551
30854SOL     OW 4540   5.107  11.767   9.161  0.3488 -0.0004  0.9381
30854SOL    HW1 4541   5.201  11.771   9.179  0.1813  1.1307  1.6361
30854SOL    HW2 4542   5.065  11.781   9.246 -0.4500  0.7324  0.4455
30855SOL     OW 4543   2.576   8.561   4.399 -0.2005  0.5284 -0.1782
30855SOL    HW1 4544   2.553   8.556   4.307  1.7546 -0.7186 -0.6661
30855SOL    HW2 4545   2.658   8.611   4.401  0.0728  0.0710  0.7905
30856SOL     OW 4546  11.010   2.374   3.666  0.0770 -0.4110  0.6056
30856SOL    HW1 4547  11.022   2.434   3.592  0.7761 -0.8164  0.3846
30856SOL    HW2 4548  11.090   2.383   3.717 -0.6789  0.3772  1.7019
30857SOL     OW 4549  10.365   6.902   2.073 -0.4854  0.2791 -0.0591
30857SOL    HW1 4550  10.322   6.870   1.993  0.6743 -1.2260 -0.1288
30857SOL    HW2 4551  10.448   6.854   2.076  0.4729  1.9248  0.9187
30858SOL     OW 4552   9.799   3.284   1.272  0.4129  0.2774 -0.1880
30858SOL    HW1 4553   9.877   3.238   1.306  0.1484  0.1756  0.2971
30858SOL    HW2 4554   9.762   3.223   1.208 -0.4909 -0.6470  1.1551
30859SOL     OW 4555   3.929   7.905   5.099  0.1324  0.0332  0.0485
30859SOL    HW1 4556   3.897   7.858   5.176 -1.0449  2.2182  0.9906
30859SOL    HW2 4557   3.859   7.894   5.034 -0.4318  0.8953  0.4794
30860SOL     OW 4558   8.119   3.216  12.011  0.2447 -0.6798  0.1350
30860SOL    HW1 4559   8.163   3.265  12.081 -1.5205  0.8105  0.3022
30860SOL    HW2 4560   8.126   3.125  12.038 -1.1668 -0.1142  2.8409
30861SOL     OW 4561  11.034  13.370   6.224 -0.0372 -0.3317  0.3561
30861SOL    HW1 4562  10.972  13.393   6.155  0.6932 -0.5605 -0.3960
30861SOL    HW2 4563  11.077  13.453   6.247  0.4339 -0.4225 -0.1861
30862SOL     OW 4564   5.499   8.291   0.359  0.0412 -0.0863 -0.1130
30862SOL    HW1 4565   5.507   8.350   0.285 -1.2098  0.3226  0.0574
30862SOL    HW2 4566   5.429   8.230   0.335 -0.9484  0.5469  1.0239
30863SOL     OW 4567   7.237   6.101   8.343  0.3506  0.3945 -0.1614
30863SOL    HW1 4568   7.144   6.083   8.349  0.3988  0.3017  0.3078
30863SOL    HW2 4569   7.279   6.018   8.364  0.5580  0.7847  1.0169
30864SOL     OW 4570   8.931  12.485   7.643  0.1417  0.5788 -0.7643
30864SOL    HW1 4571   8.983  12.421   7.692  0.2466 -1.5943 -3.4430
30864SOL    HW2 4572   8.991  12.559   7.631  1.4846 -0.4760 -0.9090
30865SOL     OW 4573   0.803   8.040  12.757  0.8402 -0.0071  0.4118
30865SOL    HW1 4574   0.711   8.046  12.729  0.9062 -2.1161 -0.4213
30865SOL    HW2 4575   0.798   8.036  12.852  0.1645  0.9708  0.4396
30866SOL     OW 4576   0.206   9.633   1.451 -0.4835 -0.0247  0.5209
30866SOL    HW1 4577   0.177   9.695   1.384 -1.2508 -0.8541  0.0654
30866SOL    HW2 4578   0.259   9.569   1.403 -1.3803 -0.8554  0.6319
30867SOL     OW 4579   2.059  12.627   7.195  0.0374 -0.5079 -0.4666
30867SOL    HW1 4580   2.085  12.651   7.284 -1.1670  0.5074 -0.3638
30867SOL    HW2 4581   2.113  12.551   7.174 -0.2889 -1.3360  1.4883
30868SOL     OW 4582   5.738   4.019  12.140  0.0106 -0.2433 -0.8311
30868SOL    HW1 4583   5.780   3.980  12.064  1.6170 -1.0466  0.3967
30868SOL    HW2 4584   5.803   4.011  12.210 -1.3811  0.5001  0.6198
30869SOL     OW 4585   9.191  11.068   8.373  0.0676 -0.0004  0.7385
30869SOL    HW1 4586   9.275  11.057   8.329  0.0635  0.3113  0.6497
30869SOL    HW2 4587   9.196  11.010   8.449 -0.1327 -0.9315  0.0483
30870SOL     OW 4588  11.432   4.271   8.806 -0.6772  0.0411 -0.0560
30870SOL    HW1 4589  11.442   4.297   8.898 -1.5717  0.9774 -0.2086
30870SOL    HW2 4590  11.516   4.231   8.784  0.1617  1.3268  0.6871
30871SOL     OW 4591  10.006   0.905  10.628 -0.1590 -0.1541  0.0982
30871SOL    HW1 4592  10.041   0.818  10.608 -0.9435 -0.0463 -2.0117
30871SOL    HW2 4593   9.918   0.888  10.660 -0.3276 -0.1500 -0.3540
30872SOL     OW 4594  10.531  14.021   3.034  0.2054  0.2632 -0.0615
30872SOL    HW1 4595  10.538  13.984   2.946 -1.1950  1.2088 -0.5907
30872SOL    HW2 4596  10.542  14.115   3.022  0.8040  0.3326  0.8922
30873SOL     OW 4597   3.790   5.845  13.227 -0.1416  0.8206 -0.0505
30873SOL    HW1 4598   3.716   5.831  13.168 -0.8634 -1.3559  1.2542
30873SOL    HW2 4599   3.842   5.765  13.221 -1.2361 -0.3572  3.4973
30874SOL     OW 4600  12.533   7.363   9.505 -0.2248 -0.1961  0.6318
30874SOL    HW1 4601  12.561   7.372   9.414 -1.4499  0.2228  0.2771
30874SOL    HW2 4602  12.484   7.281   9.507  0.1604 -0.4188  1.0103
30875SOL     OW 4603   1.199   8.373   1.980  0.3157 -0.1133  0.3493
30875SOL    HW1 4604   1.274   8.417   2.019  1.0696 -1.0422 -0.0192
30875SOL    HW2 4605   1.165   8.317   2.049 -0.0179  0.2802  0.5051
30876SOL     OW 4606   2.853   9.768   7.638 -0.0746 -0.8887 -0.0855
30876SOL    HW1 4607   2.807   9.852   7.626  0.6904 -0.7440 -2.7629
30876SOL    HW2 4608   2.907   9.781   7.716  0.6752  1.4801 -0.8944
30877SOL     OW 4609   9.872   0.473   2.618 -0.2616  0.4408 -0.1009
30877SOL    HW1 4610   9.949   0.432   2.579 -0.2928 -0.4640  0.7456
30877SOL    HW2 4611   9.822   0.400   2.655 -1.9697  0.9024 -1.3640
30878SOL     OW 4612  11.681   6.904   1.184 -0.0305  0.6175 -0.2111
30878SOL    HW1 4613  11.762   6.949   1.210  1.6295  0.2009 -3.9600
30878SOL    HW2 4614  11.666   6.931   1.093 -0.6724 -3.7899 -1.7004
30879SOL     OW 4615   0.961   6.385   8.745 -0.0025  0.5036 -0.2224
30879SOL    HW1 4616   0.915   6.308   8.779  0.2195  0.5828  0.2768
30879SOL    HW2 4617   1.051   6.373   8.774 -0.2340  1.6165  1.0495
30880SOL     OW 4618  12.613  12.475   7.800  0.1263  0.2491  0.8580
30880SOL    HW1 4619  12.548  12.410   7.827  0.0893 -0.0130  0.1499
30880SOL    HW2 4620  12.644  12.512   7.883 -0.5626  0.0319  1.2289
30881SOL     OW 4621   6.599   1.172   2.884 -0.0434 -0.3747 -0.7203
30881SOL    HW1 4622   6.532   1.157   2.950  1.5454  0.5069  1.2232
30881SOL    HW2 4623   6.555   1.222   2.815 -0.9902  2.0439  1.4475
30882SOL     OW 4624   8.139  12.453  10.359  0.3032  0.2333  0.2680
30882SOL    HW1 4625   8.136  12.435  10.265  0.8520  1.7003 -0.0621
30882SOL    HW2 4626   8.066  12.514  10.374  2.1846  2.6740  0.1117
30883SOL     OW 4627   2.227  11.773   2.486  0.3646 -0.0054  0.3121
30883SOL    HW1 4628   2.222  11.736   2.398 -0.7022  0.4443  0.1599
30883SOL    HW2 4629   2.203  11.865   2.475  1.3717  0.3502  0.9133
30884SOL     OW 4630   8.958   6.639   6.260 -0.0592  0.5178  0.1298
30884SOL    HW1 4631   8.967   6.609   6.350  0.4629 -0.0096 -0.0887
30884SOL    HW2 4632   8.897   6.578   6.219  1.0299 -0.3056 -0.3238
30885SOL     OW 4633  13.350   3.815   9.600 -0.1246 -0.4785  0.2602
30885SOL    HW1 4634  13.269   3.829   9.550  0.7625  0.3399 -1.0039
30885SOL    HW2 4635  13.418   3.853   9.546  0.8913  0.6096  2.1938
30886SOL     OW 4636   0.727   8.500   8.672 -0.2712 -0.3334  0.0399
30886SOL    HW1 4637   0.815   8.532   8.691 -0.5576 -0.4825  1.7082
30886SOL    HW2 4638   0.677   8.578   8.648 -0.2785  0.1103  1.4390
30887SOL     OW 4639   2.131   4.849  10.830 -0.6194  0.0100  0.4588
30887SOL    HW1 4640   2.184   4.796  10.889  0.6565  0.2228 -0.4593
30887SOL    HW2 4641   2.083   4.784  10.777  1.4473 -0.3262 -1.1303
30888SOL     OW 4642   9.225  13.775   8.506  0.4630 -0.2049 -0.9558
30888SOL    HW1 4643   9.192  13.779   8.596  3.0148 -1.9634  0.1821
30888SOL    HW2 4644   9.169  13.709   8.464  0.3523 -0.6897 -0.0931
30889SOL     OW 4645   3.171   7.837   2.609  0.0292  0.0117 -0.1203
30889SOL    HW1 4646   3.158   7.759   2.664  0.2256 -1.2992 -1.8396
30889SOL    HW2 4647   3.082   7.866   2.588 -0.0803 -0.8384 -0.8996
30890SOL     OW 4648  10.008   7.435   9.261  0.5487  0.3122  0.0168
30890SOL    HW1 4649  10.002   7.362   9.200  1.3613 -0.1582  0.4821
30890SOL    HW2 4650  10.098   7.467   9.252  0.9498 -0.2799  1.5037
30891SOL     OW 4651   6.266   1.898  13.609  0.5423  0.3717  0.5321
30891SOL    HW1 4652   6.351   1.853  13.615 -0.1702 -0.8366  2.3459
30891SOL    HW2 4653   6.211   1.837  13.559  0.5086  0.7979  0.0436
30892SOL     OW 4654   7.109   8.232  11.139 -0.0252  0.6516 -0.3243
30892SOL    HW1 4655   7.020   8.230  11.175  0.1792 -3.4886  0.5338
30892SOL    HW2 4656   7.111   8.158  11.078  2.3116  1.9235 -1.9263
30893SOL     OW 4657   1.573   0.149   4.188  0.5016  0.1198  0.0522
30893SOL    HW1 4658   1.494   0.150   4.243  0.7954 -1.2054  0.5374
30893SOL    HW2 4659   1.541   0.127   4.101  0.3905 -1.0593  0.3788
30894SOL     OW 4660   4.551   2.923  12.127 -0.2812  0.2476  0.6594
30894SOL    HW1 4661   4.516   3.007  12.098  1.3348  1.2063  1.3155
30894SOL    HW2 4662   4.627   2.909  12.071  0.0512 -0.2697  1.2338
30895SOL     OW 4663   8.338  10.291   4.231  0.5887 -0.3129  0.1687
30895SOL    HW1 4664   8.266  10.335   4.277 -0.8021 -2.3606  0.0610
30895SOL    HW2 4665   8.343  10.337   4.147  0.0554  0.4835  0.5566
30896SOL     OW 4666   8.512  12.693  12.667 -0.1427 -0.1011 -0.4351
30896SOL    HW1 4667   8.487  12.698  12.575  0.3562  0.2415 -0.5555
30896SOL    HW2 4668   8.606  12.706  12.667 -0.0867 -0.4848  0.0930
30897SOL     OW 4669   3.642   9.584  13.830 -0.1960  0.0625 -0.3724
30897SOL    HW1 4670   3.602   9.618  13.910  3.6193  1.7280  1.0459
30897SOL    HW2 4671   3.635   9.655  13.767 -0.5228 -0.0997 -0.5200
30898SOL     OW 4672  13.814   0.999  12.021 -0.5138 -0.0731  0.1300
30898SOL    HW1 4673  13.742   0.941  12.048 -0.1355 -0.3947  0.4613
30898SOL    HW2 4674  13.881   0.986  12.088 -0.1265  0.1883 -0.2086
30899SOL     OW 4675   7.015   7.299  12.780  0.0628 -0.2091 -0.7419
30899SOL    HW1 4676   7.022   7.214  12.822 -0.1957 -0.0328 -0.3421
30899SOL    HW2 4677   7.052   7.360  12.843 -0.3763  0.0626 -0.7431
30900SOL     OW 4678  11.994   6.817   5.380  0.1460  0.2234 -0.8402
30900SOL    HW1 4679  11.951   6.891   5.424  1.3696  0.9435 -0.8220
30900SOL    HW2 4680  11.952   6.740   5.418 -1.4703  0.8815 -1.1711
30901SOL     OW 4681   7.600   5.188   5.429 -0.1425  0.3867 -0.0972
30901SOL    HW1 4682   7.661   5.114   5.420  0.0936  0.5753 -0.0664
30901SOL    HW2 4683   7.657   5.265   5.433 -0.2496  0.4179  2.1453
30902SOL     OW 4684   1.704   0.357  11.909 -0.7250  0.2677  0.1085
30902SOL    HW1 4685   1.667   0.277  11.874  1.1132  0.5583 -2.8536
30902SOL    HW2 4686   1.784   0.329  11.953 -1.6203  0.2096  1.7589
30903SOL     OW 4687  12.695   5.227   9.633  0.7800  0.7373  0.5225
30903SOL    HW1 4688  12.734   5.312   9.614  1.7704  0.1479 -0.2174
30903SOL    HW2 4689  12.762   5.181   9.684 -0.4052  0.9750  2.3990
30904SOL     OW 4690  10.240   1.794  13.206  1.0700  0.1841 -0.5494
30904SOL    HW1 4691  10.300   1.859  13.170  1.0652  0.4980  0.0042
30904SOL    HW2 4692  10.175   1.845  13.254  0.5220 -0.1739 -0.9065
30905SOL     OW 4693  11.657  10.689   8.090 -0.6929 -0.1834  0.4847
30905SOL    HW1 4694  11.679  10.668   8.180 -2.3301  1.3788  1.3180
30905SOL    HW2 4695  11.736  10.729   8.054 -0.0192 -0.8334  1.2213
30906SOL     OW 4696   2.405   4.745   4.840 -0.2714 -0.6022  0.3856
30906SOL    HW1 4697   2.427   4.687   4.914 -0.8065 -0.9931  0.2377
30906SOL    HW2 4698   2.419   4.692   4.762 -0.6607 -0.4985  0.2429
30907SOL     OW 4699   4.586   6.951   2.140 -0.4632 -0.2840  0.0105
30907SOL    HW1 4700   4.676   6.983   2.135 -0.3835  0.0434  2.2988
30907SOL    HW2 4701   4.577   6.892   2.065  0.6737  1.9195 -2.0040
30908SOL     OW 4702   1.838  10.789  10.805 -0.0676 -0.0012 -0.2231
30908SOL    HW1 4703   1.837  10.699  10.839  0.9439  0.6383  1.6362
30908SOL    HW2 4704   1.798  10.841  10.875  0.7698  1.1995 -0.6156
30909SOL     OW 4705  13.055  10.861   5.122 -0.1281  0.4618  0.1983
30909SOL    HW1 4706  13.132  10.855   5.066 -0.3253 -2.4675  0.1025
30909SOL    HW2 4707  13.090  10.859   5.212 -0.0354 -3.2139  0.2126
30910SOL     OW 4708   5.186   6.894   7.962  0.0761 -0.7196  0.0486
30910SOL    HW1 4709   5.164   6.986   7.950  0.2370 -0.4593  1.5155
30910SOL    HW2 4710   5.262   6.895   8.020  0.0382 -1.7749  0.1452
30911SOL     OW 4711   9.544   1.193   0.882 -0.0817  0.4523  0.3571
30911SOL    HW1 4712   9.557   1.287   0.868  0.1044  0.3749  0.0199
30911SOL    HW2 4713   9.621   1.152   0.844 -0.8286  0.0653 -0.7890
30912SOL     OW 4714  10.685   2.555  10.181 -0.1573  0.5764 -0.4189
30912SOL    HW1 4715  10.757   2.509  10.138  0.6840 -0.9172  2.3397
30912SOL    HW2 4716  10.707   2.648  10.171  0.3958  0.2879 -2.3727
30913SOL     OW 4717   7.121   9.306   4.793 -0.0790 -0.5884 -0.6366
30913SOL    HW1 4718   7.049   9.256   4.831 -0.0305 -0.6198 -0.5853
30913SOL    HW2 4719   7.156   9.249   4.724  0.5203 -0.9779 -0.0162
30914SOL     OW 4720  11.751   6.985  11.344  0.2585 -0.0772  0.0668
30914SOL    HW1 4721  11.705   6.962  11.425  1.7465 -3.0348  0.1902
30914SOL    HW2 4722  11.821   7.044  11.373 -0.0627  0.0135  0.6910
30915SOL     OW 4723   8.455   1.089  10.949 -0.1167 -0.0415 -0.4126
30915SOL    HW1 4724   8.415   1.003  10.940  0.2019 -0.0956 -1.5309
30915SOL    HW2 4725   8.547   1.071  10.970 -0.6313  0.0826  2.2866
30916SOL     OW 4726  11.608  13.392   6.117  0.4253  0.4681 -0.2045
30916SOL    HW1 4727  11.661  13.461   6.156  0.3058  0.2931  0.2657
30916SOL    HW2 4728  11.629  13.314   6.168  0.0036  0.3162 -0.2680
30917SOL     OW 4729   0.088  13.257   9.946 -1.2940 -0.7722  0.0910
30917SOL    HW1 4730   0.080  13.335  10.001 -0.4966 -0.8644  0.3492
30917SOL    HW2 4731   0.102  13.292   9.858  0.2050 -0.5920  0.3699
30918SOL     OW 4732   4.164  11.759  10.796 -0.1943  0.5992 -0.0357
30918SOL    HW1 4733   4.152  11.679  10.847 -1.1068  0.2043 -0.8256
30918SOL    HW2 4734   4.142  11.830  10.856 -1.1523  0.1512  0.1572
30919SOL     OW 4735  13.285   6.048   5.089  0.3088 -0.0000  0.2582
30919SOL    HW1 4736  13.246   6.062   5.175  0.7105  0.2150  0.4106
30919SOL    HW2 4737  13.218   6.003   5.039 -0.1811  0.4908  0.4688
30920SOL     OW 4738   6.759  10.328  12.242 -0.1587  0.2181  0.1125
30920SOL    HW1 4739   6.838  10.287  12.277  0.2523  0.3022 -0.6960
30920SOL    HW2 4740   6.787  10.416  12.215 -0.2973 -0.0705 -1.0173
30921SOL     OW 4741   0.648  12.381   3.600 -0.2641  0.3328  0.3010
30921SOL    HW1 4742   0.575  12.401   3.542 -1.5896 -0.9553  1.4362
30921SOL    HW2 4743   0.653  12.455   3.660 -1.6185 -0.2061  1.1194
30922SOL     OW 4744   7.263   5.585   0.979 -0.0670  0.1524 -0.7382
30922SOL    HW1 4745   7.343   5.537   0.960  1.2950  1.2513  1.7174
30922SOL    HW2 4746   7.284   5.676   0.958  0.2067  0.8023  2.0182
30923SOL     OW 4747  11.688  11.500   8.604 -0.3573  0.4987  0.0556
30923SOL    HW1 4748  11.593  11.489   8.612 -0.3444 -0.2333 -0.7056
30923SOL    HW2 4749  11.714  11.537   8.689 -1.1708 -0.3684  0.7143
30924SOL     OW 4750   2.718  10.295   4.979 -0.0959  0.6043 -0.1301
30924SOL    HW1 4751   2.667  10.217   5.002 -0.6816  0.7118 -1.0154
30924SOL    HW2 4752   2.678  10.366   5.029  0.0772  0.4381  0.2464
30925SOL     OW 4753   4.276  10.177   4.658  0.2421 -1.0315 -0.0527
30925SOL    HW1 4754   4.368  10.200   4.667  0.5560 -1.6663 -1.3187
30925SOL    HW2 4755   4.276  10.098   4.604 -1.0872 -0.3958 -1.0612
30926SOL     OW 4756   3.476   4.872   6.708  0.5052  0.0839  0.5524
30926SOL    HW1 4757   3.439   4.896   6.793  0.9054 -0.3299  0.8509
30926SOL    HW2 4758   3.499   4.779   6.717 -1.0753 -0.4791 -0.5977
30927SOL     OW 4759  13.499   0.344   8.080  0.0882 -0.2696 -0.3426
30927SOL    HW1 4760  13.430   0.304   8.134 -1.0172  0.5165 -1.1229
30927SOL    HW2 4761  13.520   0.277   8.015  0.5221 -0.7445  0.2726
30928SOL     OW 4762   9.853  12.725  11.238  0.1768  0.4192 -0.2384
30928SOL    HW1 4763   9.947  12.742  11.235  0.0451  1.2381  0.1566
30928SOL    HW2 4764   9.823  12.741  11.148  0.3656  0.4751 -0.2906
30929SOL     OW 4765   0.552  10.828  11.424  0.2525 -0.1132 -0.1736
30929SOL    HW1 4766   0.566  10.922  11.409  0.5562 -0.5309 -3.2824
30929SOL    HW2 4767   0.638  10.794  11.448 -0.2764  0.6349  3.2636
30930SOL     OW 4768   0.582   6.868  13.686 -0.0526  0.4979 -0.2711
30930SOL    HW1 4769   0.546   6.785  13.716  2.0170 -0.6801 -0.9034
30930SOL    HW2 4770   0.554   6.931  13.753 -0.7541 -0.8849  0.8002
30931SOL     OW 4771  12.652  13.184   7.923  0.2425  0.0235 -0.2133
30931SOL    HW1 4772  12.647  13.133   8.004  1.1580  0.5262  0.1714
30931SOL    HW2 4773  12.598  13.135   7.861 -0.9335 -0.0641  0.8505
30932SOL     OW 4774  12.567   7.646  10.622 -0.0281 -0.4995  0.0372
30932SOL    HW1 4775  12.631   7.663  10.554  1.0205  1.6208  1.4517
30932SOL    HW2 4776  12.617   7.647  10.704 -1.6073 -0.3794  1.0635
30933SOL     OW 4777   6.623   2.063   7.293 -0.2867 -0.1291 -0.1227
30933SOL    HW1 4778   6.678   1.992   7.324 -0.1492  0.3277  0.6915
30933SOL    HW2 4779   6.539   2.021   7.274  0.2222 -0.7698 -1.0730
30934SOL     OW 4780   7.348   4.683   3.112 -0.3157  0.1357 -0.1300
30934SOL    HW1 4781   7.317   4.617   3.173  0.5829  0.1219  0.3128
30934SOL    HW2 4782   7.268   4.716   3.070 -0.7472 -1.5078 -0.6682
30935SOL     OW 4783   9.941   2.883  13.555  0.4628  0.0811 -0.4210
30935SOL    HW1 4784   9.882   2.813  13.525  0.7467 -0.4502  0.2241
30935SOL    HW2 4785  10.028   2.854  13.529  0.6029  0.0928  0.0298
30936SOL     OW 4786  10.352   5.306   2.936 -0.3161  0.4311 -0.0895
30936SOL    HW1 4787  10.406   5.232   2.907  1.4635  1.0691  1.4111
30936SOL    HW2 4788  10.356   5.368   2.863  0.9658  0.4333 -0.0450
30937SOL     OW 4789   2.612  10.104   8.648 -0.2765 -0.0312  0.1150
30937SOL    HW1 4790   2.638  10.020   8.687  2.1305 -0.4760 -2.1026
30937SOL    HW2 4791   2.565  10.079   8.568  1.7681  0.5766 -1.3767
30938SOL     OW 4792   3.972  12.340   6.743  0.1290  0.1812 -0.1447
30938SOL    HW1 4793   4.009  12.252   6.748 -0.4349 -0.1973 -1.9915
30938SOL    HW2 4794   3.939  12.348   6.654 -0.9827  1.8122  0.3549
30939SOL     OW 4795  13.836   9.581   6.410  0.3808 -0.2103  0.4040
30939SOL    HW1 4796  13.812   9.511   6.348 -1.5863  0.8298 -0.0909
30939SOL    HW2 4797  13.826   9.541   6.496 -0.1577 -0.7172  0.1174
30940SOL     OW 4798   4.839   3.406   5.052  0.0854 -0.0524 -0.7100
30940SOL    HW1 4799   4.931   3.432   5.047 -0.3530  1.4430 -1.6455
30940SOL    HW2 4800   4.795   3.480   5.094 -0.7070 -0.7456 -0.2842
30941SOL     OW 4801   0.153  11.727   3.044 -0.9602  0.2609 -0.2149
30941SOL    HW1 4802   0.067  11.718   3.085 -1.5124  0.2256 -1.3451
30941SOL    HW2 4803   0.150  11.668   2.968 -0.2291  0.8597 -0.7251
30942SOL     OW 4804  13.974  11.151   3.810  0.2761  0.1567 -0.4435
30942SOL    HW1 4805  13.884  11.119   3.820  0.0440  0.2085 -2.1068
30942SOL    HW2 4806  13.965  11.238   3.772  1.0059  0.7825  0.7806
30943SOL     OW 4807   6.376   9.182  11.223  0.1066 -0.5861  0.0236
30943SOL    HW1 4808   6.362   9.247  11.291  1.3996 -0.5872  0.3181
30943SOL    HW2 4809   6.300   9.124  11.229 -0.2075 -0.0981  0.8990
30944SOL     OW 4810   1.524  10.729   3.307  0.5553  0.1511  0.6988
30944SOL    HW1 4811   1.564  10.816   3.304  0.1951  0.3265  1.0056
30944SOL    HW2 4812   1.469  10.725   3.229  0.6357  0.1609  0.6405
30945SOL     OW 4813   8.320   8.576   1.523  0.0846  0.0160  0.2791
30945SOL    HW1 4814   8.397   8.521   1.508 -0.4686 -0.9721  0.9560
30945SOL    HW2 4815   8.345   8.662   1.490  1.8270 -0.0422  1.3190
30946SOL     OW 4816   9.192   1.631   9.432 -0.1141 -0.3811  0.2024
30946SOL    HW1 4817   9.284   1.638   9.407 -0.2895  2.9431  0.0579
30946SOL    HW2 4818   9.163   1.549   9.393  2.3566 -0.7020 -1.1938
30947SOL     OW 4819  13.306   5.951   3.898  0.0621  0.1598  0.1110
30947SOL    HW1 4820  13.259   5.892   3.839  1.7599  0.0661 -1.2238
30947SOL    HW2 4821  13.380   5.983   3.846  0.8954  1.0958  1.7904
30948SOL     OW 4822   2.374   9.766   0.773 -0.6090  0.2823  0.0990
30948SOL    HW1 4823   2.341   9.762   0.683 -1.8715 -0.4760  0.5696
30948SOL    HW2 4824   2.466   9.790   0.764 -1.1426  2.0704 -1.3088
30949SOL     OW 4825   7.490   1.197  11.358 -0.6548 -0.0120  0.1392
30949SOL    HW1 4826   7.498   1.107  11.325  0.3944 -0.2783  1.0573
30949SOL    HW2 4827   7.468   1.186  11.450 -1.6742  0.7033 -0.0095
30950SOL     OW 4828   6.297   3.467   1.714 -0.3635  0.5603 -1.1054
30950SOL    HW1 4829   6.353   3.519   1.772 -1.0719  1.1430 -0.9237
30950SOL    HW2 4830   6.289   3.520   1.635 -0.7972  0.5682 -1.0600
30951SOL     OW 4831  13.790   2.707   6.337  0.1913 -0.0437 -0.3233
30951SOL    HW1 4832  13.841   2.628   6.321  0.2577  0.3014 -1.9649
30951SOL    HW2 4833  13.701   2.684   6.313 -0.0117  0.0417  0.3273
30952SOL     OW 4834  11.612   6.830  11.067  0.2914  0.1319 -0.1100
30952SOL    HW1 4835  11.645   6.878  10.990 -0.1469 -1.5339 -1.3981
30952SOL    HW2 4836  11.576   6.898  11.124 -0.3171  1.3582 -1.8682
30953SOL     OW 4837   9.262  10.948  12.764 -0.4317 -0.1483 -0.1146
30953SOL    HW1 4838   9.176  10.949  12.805 -0.6938  0.9851 -0.6557
30953SOL    HW2 4839   9.312  11.015  12.810 -0.5939  0.8396 -1.3401
30954SOL     OW 4840   6.946  10.224  12.386  0.1301  0.0266  0.1247
30954SOL    HW1 4841   6.943  10.230  12.482  0.1488 -1.7283  0.2755
30954SOL    HW2 4842   7.015  10.160  12.368  1.0406  1.3106 -1.1465
30955SOL     OW 4843  12.808  10.821   1.375  0.2484 -0.1966  0.1885
30955SOL    HW1 4844  12.841  10.878   1.444  1.6035 -1.4336  0.6156
30955SOL    HW2 4845  12.860  10.844   1.298 -1.1026  1.0207 -0.4075
30956SOL     OW 4846   3.619  10.270  10.042 -0.4282  0.1246 -0.4440
30956SOL    HW1 4847   3.675  10.272  10.119 -1.5675  0.9754  0.4008
30956SOL    HW2 4848   3.674  10.235   9.973  0.6573 -0.5477  0.7292
30957SOL     OW 4849   9.315   9.518   5.526  0.3441 -0.0071 -0.3813
30957SOL    HW1 4850   9.410   9.521   5.515  0.4162  2.7121  0.3326
30957SOL    HW2 4851   9.284   9.600   5.489 -1.5765 -0.2180  0.6528
30958SOL     OW 4852   8.412   2.554   4.618  0.0525 -0.3163 -0.2893
30958SOL    HW1 4853   8.440   2.612   4.547 -0.0774 -0.6226 -0.5888
30958SOL    HW2 4854   8.487   2.555   4.679  0.1319  0.0076 -0.3861
30959SOL     OW 4855   7.289   2.413   0.270 -0.2254 -0.3518  0.0895
30959SOL    HW1 4856   7.361   2.435   0.211 -0.7712  0.0407 -0.4446
30959SOL    HW2 4857   7.220   2.476   0.247 -2.5287 -3.5195 -2.7002
30960SOL     OW 4858   7.776   0.201   4.030 -0.6804 -0.6442 -0.0270
30960SOL    HW1 4859   7.727   0.213   4.111 -1.0572  1.1782 -0.4989
30960SOL    HW2 4860   7.715   0.224   3.961 -0.1987 -1.6759 -0.8246
30961SOL     OW 4861   9.741   4.211  13.507 -0.0781 -0.8129 -0.1954
30961SOL    HW1 4862   9.730   4.139  13.569 -1.7570 -1.1788 -0.8662
30961SOL    HW2 4863   9.774   4.169  13.427 -2.1412 -1.0630 -0.9605
30962SOL     OW 4864   3.198  10.353  10.167 -0.3763 -0.3544 -0.3068
30962SOL    HW1 4865   3.157  10.417  10.225 -1.7342 -2.5710  1.3071
30962SOL    HW2 4866   3.227  10.405  10.092 -0.3646  2.3168  1.3994
30963SOL     OW 4867   1.867  10.574   5.731  0.0575  0.7093 -0.2776
30963SOL    HW1 4868   1.956  10.543   5.747 -0.1295  0.1794 -0.2549
30963SOL    HW2 4869   1.811  10.517   5.784 -0.4558 -0.1954 -1.7251
30964SOL     OW 4870   9.900   3.801   9.686  0.0306  0.4945 -0.2468
30964SOL    HW1 4871   9.968   3.736   9.668 -1.4213 -1.2727  0.3756
30964SOL    HW2 4872   9.900   3.809   9.781 -0.6597  0.4211 -0.2371
30965SOL     OW 4873   4.846   7.055   5.429 -0.0590 -0.5130  0.3610
30965SOL    HW1 4874   4.868   7.136   5.384 -0.4271  0.4030  1.7578
30965SOL    HW2 4875   4.929   7.024   5.464 -0.0285 -0.3274  0.4568
30966SOL     OW 4876  12.875   0.643   1.610 -0.3272 -0.4217 -0.5058
30966SOL    HW1 4877  12.858   0.584   1.537 -2.1631  0.7450 -1.0974
30966SOL    HW2 4878  12.831   0.724   1.586  1.8726  1.1460  0.3940
30967SOL     OW 4879   0.459  10.963   5.886  0.0018  0.3913  0.2100
30967SOL    HW1 4880   0.433  10.871   5.875  4.4593 -1.0444 -0.3192
30967SOL    HW2 4881   0.408  11.010   5.820  0.0840 -2.3266 -1.9829
30968SOL     OW 4882  12.507  10.994   7.613 -0.1653  0.0369 -0.0819
30968SOL    HW1 4883  12.452  10.975   7.537 -0.3303  1.3995 -0.3295
30968SOL    HW2 4884  12.452  10.973   7.688 -0.0590 -1.1568 -0.3071
30969SOL     OW 4885   4.849   3.456   4.784 -0.4624  0.4543 -0.0724
30969SOL    HW1 4886   4.843   3.402   4.863  0.9215  0.0471 -0.2227
30969SOL    HW2 4887   4.860   3.545   4.816 -0.4823  0.3635  0.1906
30970SOL     OW 4888   8.775   8.979   7.956  0.1805 -0.0722 -1.0534
30970SOL    HW1 4889   8.733   8.993   7.870  2.0174  0.6967 -1.8742
30970SOL    HW2 4890   8.837   8.908   7.940 -0.5752 -1.0222  0.0826
30971SOL     OW 4891   9.185   3.104   0.309  0.0810  0.3192  0.0441
30971SOL    HW1 4892   9.235   3.080   0.231  0.6458 -0.9904  0.7748
30971SOL    HW2 4893   9.238   3.172   0.351 -0.2413  1.0512 -0.7059
30972SOL     OW 4894   3.508   6.518   9.367 -0.3620  0.2159 -0.2771
30972SOL    HW1 4895   3.542   6.492   9.453  0.5921  1.0333 -0.3892
30972SOL    HW2 4896   3.531   6.445   9.310  1.1616  0.6930 -0.3237
30973SOL     OW 4897  11.367   7.287  11.809  0.2575  0.2728 -0.2814
30973SOL    HW1 4898  11.342   7.267  11.899 -0.7798  0.3187 -0.5448
30973SOL    HW2 4899  11.462   7.275  11.807  0.5362  1.8751  1.2256
30974SOL     OW 4900   1.048   6.892   2.561  0.4363  0.1264 -0.0459
30974SOL    HW1 4901   1.058   6.988   2.560  1.0869  0.0832  0.7565
30974SOL    HW2 4902   1.043   6.870   2.654  1.1774 -0.6958 -0.1873
30975SOL     OW 4903   8.381   9.129   4.605  0.0551 -0.3139  0.1371
30975SOL    HW1 4904   8.342   9.216   4.597 -0.1966 -0.3169  1.1961
30975SOL    HW2 4905   8.474   9.143   4.593  0.2093  0.3681  1.7989
30976SOL     OW 4906   3.684   1.284   5.091  0.7906  0.3207 -0.1721
30976SOL    HW1 4907   3.635   1.328   5.160 -0.9415  0.6932 -1.5369
30976SOL    HW2 4908   3.635   1.203   5.075  1.1427  0.2479 -0.9455
30977SOL     OW 4909  13.526   4.593   5.408 -0.2411  0.2318 -0.1737
30977SOL    HW1 4910  13.582   4.610   5.332  0.0248 -0.5806 -0.1733
30977SOL    HW2 4911  13.543   4.666   5.467  0.6808  0.0999 -0.2565
30978SOL     OW 4912  13.890   0.640   4.347 -0.6299  0.5746 -0.0959
30978SOL    HW1 4913  13.834   0.709   4.382 -0.5538  1.0919 -0.9611
30978SOL    HW2 4914  13.978   0.663   4.376 -0.6950  0.4693  0.1850
30979SOL     OW 4915   1.870   3.431  13.396  0.0062 -0.9700 -0.4609
30979SOL    HW1 4916   1.919   3.369  13.341 -1.0307 -0.4889 -1.9942
30979SOL    HW2 4917   1.841   3.499  13.335 -0.1463  0.2620  0.9254
30980SOL     OW 4918   7.733   2.008   1.980  0.1258  0.5593  0.0560
30980SOL    HW1 4919   7.700   1.921   2.005  3.4481 -1.3584 -1.6027
30980SOL    HW2 4920   7.763   2.046   2.063 -1.6153  0.3399  0.8516
30981SOL     OW 4921  12.771  10.596   0.273  0.0581 -0.0380  0.3397
30981SOL    HW1 4922  12.763  10.594   0.368  0.3192  0.8048  0.3864
30981SOL    HW2 4923  12.829  10.522   0.252  1.1944  0.6488  0.9638
30982SOL     OW 4924   5.519   7.866   7.782  0.0014 -0.2741  0.3440
30982SOL    HW1 4925   5.527   7.790   7.839  0.7784 -0.6787 -0.2767
30982SOL    HW2 4926   5.607   7.878   7.747  0.6614  2.6918  2.6426
30983SOL     OW 4927   5.836  13.545  13.334  1.0588 -0.3792 -0.2679
30983SOL    HW1 4928   5.930  13.543  13.350  1.1065 -0.6581 -0.5660
30983SOL    HW2 4929   5.812  13.637  13.341  1.1013 -0.4467  1.2212
30984SOL     OW 4930   3.656   2.804   4.627 -0.1816  0.5961  0.1283
30984SOL    HW1 4931   3.708   2.783   4.550 -0.5419 -0.5053  0.1593
30984SOL    HW2 4932   3.714   2.783   4.701 -0.7688 -1.0274  0.1681
30985SOL     OW 4933  11.731   3.967  10.110  0.1561 -0.1305 -0.0147
30985SOL    HW1 4934  11.727   3.872  10.122 -1.1297 -0.1262 -0.2293
30985SOL    HW2 4935  11.725   4.003  10.199  0.6815 -0.2487  0.0693
30986SOL     OW 4936   9.845   8.003   2.188  1.4570 -0.1713  0.2020
30986SOL    HW1 4937   9.869   7.976   2.100 -3.1985 -3.5422 -0.4301
30986SOL    HW2 4938   9.803   8.088   2.177  2.5781  0.3228 -0.4347
30987SOL     OW 4939  13.380   4.694   4.088  0.6272 -0.1888 -0.3028
30987SOL    HW1 4940  13.319   4.699   4.014 -2.2341 -1.1703  1.7798
30987SOL    HW2 4941  13.397   4.600   4.098  0.6378 -0.1032  0.5301
30988SOL     OW 4942  11.256   8.602  11.467  0.3282  0.4067  0.0126
30988SOL    HW1 4943  11.337   8.591  11.418  0.2357 -0.7772  0.0758
30988SOL    HW2 4944  11.206   8.667  11.418  0.9923  0.5716 -0.4539
30989SOL     OW 4945  12.136   3.267  14.017  0.4812 -0.0837  0.0345
30989SOL    HW1 4946  12.204   3.207  14.046 -1.7204 -2.4701  0.7053
30989SOL    HW2 4947  12.065   3.255  14.080 -1.3576  0.6747 -1.7671
30990SOL     OW 4948   9.505   7.063  11.486  0.0502  0.7768  0.3830
30990SOL    HW1 4949   9.524   7.080  11.578  3.0718  0.8857 -0.1576
30990SOL    HW2 4950   9.497   7.150  11.446  0.7922  0.7572  0.1889
30991SOL     OW 4951   5.352   7.347   6.552 -0.5512  0.1470 -0.3800
30991SOL    HW1 4952   5.429   7.325   6.605 -0.3660  0.9096 -0.3196
30991SOL    HW2 4953   5.382   7.417   6.494 -1.4840  1.2284  0.3932
30992SOL     OW 4954  10.506   5.182   4.014 -0.3614 -0.8476  0.1805
30992SOL    HW1 4955  10.458   5.102   3.995 -0.6266 -0.7477  0.4226
30992SOL    HW2 4956  10.439   5.250   4.022 -0.1888 -0.7184  0.5828
30993SOL     OW 4957   1.360   1.761  10.363 -0.2343 -0.8342 -0.1315
30993SOL    HW1 4958   1.412   1.841  10.361  0.4150 -1.1852  1.1849
30993SOL    HW2 4959   1.402   1.707  10.431 -0.7866 -2.1935 -0.8275
30994SOL     OW 4960   4.171   7.469   0.849 -0.1190  0.5068 -0.3683
30994SOL    HW1 4961   4.153   7.376   0.838  1.5315  0.3933 -3.0736
30994SOL    HW2 4962   4.119   7.512   0.781 -0.7271  1.5908  0.7298
30995SOL     OW 4963  12.057   6.318   1.975 -0.0026  0.8087 -0.3459
30995SOL    HW1 4964  12.134   6.359   2.015  0.4277  0.5478 -0.8823
30995SOL    HW2 4965  11.988   6.328   2.040  0.7893 -0.0400  0.6656
30996SOL     OW 4966  11.906   5.146  10.300  0.0039 -0.2841  0.6003
30996SOL    HW1 4967  11.948   5.184  10.377 -0.7861 -0.1224  0.9539
30996SOL    HW2 4968  11.830   5.202  10.284 -0.4064 -0.9161  0.3094
30997SOL     OW 4969   0.656   4.299  11.918 -0.7047  0.0970 -0.4726
30997SOL    HW1 4970   0.587   4.366  11.919 -0.4456  0.4177 -1.8393
30997SOL    HW2 4971   0.675   4.286  11.825  0.4558 -0.6427 -0.1520
30998SOL     OW 4972  11.229   9.539  13.495  0.5895  0.1950 -0.5493
30998SOL    HW1 4973  11.163   9.603  13.523 -1.2269 -1.6536 -0.3710
30998SOL    HW2 4974  11.304   9.555  13.553 -0.5356  0.9241  0.7545
30999SOL     OW 4975   5.258   5.854   2.838 -0.0932  0.1415  0.1205
30999SOL    HW1 4976   5.246   5.940   2.797 -0.9767 -0.2965 -0.5606
30999SOL    HW2 4977   5.201   5.856   2.915 -2.4162 -0.8482 -1.4756
31000SOL     OW 4978  12.107   8.143  12.639 -0.1245  0.2066  0.4752
31000SOL    HW1 4979  12.167   8.200  12.686  0.9433 -0.1161 -0.4648
31000SOL    HW2 4980  12.025   8.148  12.689  0.4932  1.1210  1.4288
31001SOL     OW 4981  13.274   5.682   3.296  0.3064 -0.1377 -0.1717
31001SOL    HW1 4982  13.197   5.718   3.253 -0.5953  3.1220  3.5278
31001SOL    HW2 4983  13.248   5.594   3.323 -1.1200 -0.0831 -1.2881
31002SOL     OW 4984   5.620   2.030   4.037 -0.4260 -0.0320  0.5973
31002SOL    HW1 4985   5.605   2.122   4.056 -0.1305  0.1521 -0.0342
31002SOL    HW2 4986   5.689   2.030   3.971 -2.2994 -0.5586 -1.5059
31003SOL     OW 4987   0.639   5.565   6.339 -0.2764  0.0457  0.8186
31003SOL    HW1 4988   0.594   5.493   6.294 -0.4925  0.4597  0.3546
31003SOL    HW2 4989   0.652   5.630   6.270  0.5004  0.1815  1.0889
31004SOL     OW 4990   3.294   8.298   8.364 -0.0920 -0.1356  0.1686
31004SOL    HW1 4991   3.340   8.231   8.312 -0.6065  0.5090 -1.1589
31004SOL    HW2 4992   3.202   8.273   8.358 -0.2651  0.5791 -0.1742
31005SOL     OW 4993   3.052   5.038   3.099  0.4787 -0.4405 -0.3884
31005SOL    HW1 4994   2.999   5.036   3.019 -0.6288 -0.8194  0.3287
31005SOL    HW2 4995   3.016   5.110   3.149  1.4132  0.0283 -0.3770
31006SOL     OW 4996  12.418   8.145   4.475  0.0635  0.6118 -0.4823
31006SOL    HW1 4997  12.324   8.132   4.468  0.1966 -0.0872 -1.1134
31006SOL    HW2 4998  12.447   8.082   4.541  0.2704 -0.1552 -1.2837
31007SOL     OW 4999  13.752  11.592  13.216 -0.0170  0.3804 -0.5497
31007SOL    HW1 5000  13.790  11.603  13.128 -1.6535 -0.4242 -1.4147
31007SOL    HW2 5001  13.752  11.497  13.230  0.5874  0.5269  0.5140
31008SOL     OW 5002  11.137   1.826   6.552  0.5595  0.4431  0.1966
31008SOL    HW1 5003  11.212   1.869   6.510  1.0788 -1.1497 -0.5850
31008SOL    HW2 5004  11.165   1.735   6.563 -0.4628  0.3074  1.9110
31009SOL     OW 5005   6.386   2.214   7.843  0.4080  0.1878  0.1682
31009SOL    HW1 5006   6.307   2.268   7.849  1.6298  1.9858  0.8596
31009SOL    HW2 5007   6.405   2.189   7.933  0.5586 -0.3395 -0.0061
31010SOL     OW 5008   9.059   3.254   6.578  0.7622 -0.3280  0.1355
31010SOL    HW1 5009   9.030   3.331   6.528  0.5797 -0.3957  0.1361
31010SOL    HW2 5010   9.086   3.192   6.511 -0.0223 -0.6360  0.0911
31011SOL     OW 5011   0.360   3.559   0.642 -0.5080 -0.1505 -0.0088
31011SOL    HW1 5012   0.431   3.534   0.583 -0.1946  0.1096  0.2581
31011SOL    HW2 5013   0.379   3.512   0.723  1.8176  3.2356  1.6030
31012SOL     OW 5014  12.207   0.011  11.680 -0.0012  0.4800 -0.8386
31012SOL    HW1 5015  12.275  -0.041  11.722  2.7918  4.7291  0.4795
31012SOL    HW2 5016  12.251   0.053  11.606 -1.7838  1.7776 -1.2413
31013SOL     OW 5017   0.551  13.053   6.808 -0.6318 -0.0814 -0.0297
31013SOL    HW1 5018   0.540  12.969   6.851 -0.3826 -0.5822 -0.9270
31013SOL    HW2 5019   0.464  13.092   6.809 -0.2325  1.0586  3.1427
31014SOL     OW 5020  11.045  13.583   4.353 -0.1125  0.1124 -0.1402
31014SOL    HW1 5021  10.973  13.578   4.416 -0.2513 -0.1198 -0.3134
31014SOL    HW2 5022  11.122  13.605   4.406  0.1667 -2.0047  0.4396
31015SOL     OW 5023  12.568  11.090   5.065 -0.6436 -0.4773 -0.0255
31015SOL    HW1 5024  12.560  11.004   5.025  2.6971 -0.4176 -1.1012
31015SOL    HW2 5025  12.518  11.148   5.007 -0.2153 -1.2151 -1.1762
31016SOL     OW 5026   3.943   7.190   8.277 -0.5817 -0.1117  0.2951
31016SOL    HW1 5027   3.854   7.188   8.243  0.2890 -2.6360 -2.2386
31016SOL    HW2 5028   3.972   7.098   8.275  2.4758  0.7493 -0.1807
31017SOL     OW 5029   6.004   7.655   8.225 -0.0090  0.0893 -0.2285
31017SOL    HW1 5030   5.990   7.726   8.289 -1.1516 -1.1352  0.9380
31017SOL    HW2 5031   5.961   7.686   8.146 -0.8110  0.5758  0.3732
31018SOL     OW 5032  10.319   8.187  10.713 -0.7196 -0.3426 -0.2215
31018SOL    HW1 5033  10.414   8.175  10.713 -0.3101  1.7719  2.3455
31018SOL    HW2 5034  10.299   8.216  10.624  1.0218 -0.8779 -0.8406
31019SOL     OW 5035   6.746   5.985  13.845 -0.1669  0.2326  0.3559
31019SOL    HW1 5036   6.738   5.977  13.941 -0.0093 -0.4305  0.3196
31019SOL    HW2 5037   6.711   6.072  13.825 -2.5263 -0.5552  0.7485
31020SOL     OW 5038   5.458  10.377  11.998 -0.3295  0.1017  0.2783
31020SOL    HW1 5039   5.391  10.417  11.943 -0.9225 -0.8964  0.2405
31020SOL    HW2 5040   5.539  10.388  11.949 -1.0275 -1.8677 -1.4467
31021SOL     OW 5041  12.990   2.087   6.837 -0.2328 -0.6544 -0.1829
31021SOL    HW1 5042  12.950   2.160   6.884  0.4254  0.2204 -0.9382
31021SOL    HW2 5043  12.930   2.014   6.851  0.4590 -0.7763  2.9021
31022SOL     OW 5044  13.240   7.199  13.750 -0.1340  0.5048  0.1045
31022SOL    HW1 5045  13.222   7.272  13.809 -0.5229 -0.5466  1.3174
31022SOL    HW2 5046  13.321   7.161  13.784 -1.3619 -1.2741  1.1763
31023SOL     OW 5047   0.128  13.511   4.437 -0.5003  0.4303  0.0274
31023SOL    HW1 5048   0.172  13.434   4.474 -4.1401 -2.6405 -1.3363
31023SOL    HW2 5049   0.156  13.513   4.346 -0.6696  0.5280 -0.0229
31024SOL     OW 5050  13.746   3.921  12.522 -0.1049 -0.2112 -0.7153
31024SOL    HW1 5051  13.716   3.967  12.600 -0.1173  0.2394 -0.9799
31024SOL    HW2 5052  13.709   3.833  12.530  1.2268 -0.6859  0.5696
31025SOL     OW 5053   5.090   9.522   1.664  0.0384 -0.2870  0.5359
31025SOL    HW1 5054   5.025   9.581   1.702 -1.3782 -2.4347  1.7021
31025SOL    HW2 5055   5.104   9.555   1.575  0.3635  2.5105  1.5167
31026SOL     OW 5056  13.380   3.598   2.525  0.3786 -0.4376  0.3134
31026SOL    HW1 5057  13.460   3.648   2.539 -0.4245  1.0085 -0.1096
31026SOL    HW2 5058  13.407   3.526   2.467  1.0725  0.9188 -1.1127
31027SOL     OW 5059   1.104   2.753   3.900 -0.4308 -0.1170  0.6264
31027SOL    HW1 5060   1.175   2.817   3.908  0.4746 -1.1002  0.6923
31027SOL    HW2 5061   1.024   2.805   3.910  0.2452  1.1133 -0.1152
31028SOL     OW 5062   9.130   1.136  13.650  0.3246 -0.4632  0.2038
31028SOL    HW1 5063   9.189   1.071  13.611 -0.1391 -1.7293  1.4892
31028SOL    HW2 5064   9.054   1.085  13.677 -0.2406  0.7074  0.8869
31029SOL     OW 5065   1.983   9.288   9.498 -0.0378 -0.2541  0.5698
31029SOL    HW1 5066   1.985   9.219   9.433  0.6469  1.9681 -1.9669
31029SOL    HW2 5067   2.048   9.262   9.563  1.9195 -0.9623 -1.5454
31030SOL     OW 5068   6.928  11.649  11.223  0.2197  0.6813 -0.3181
31030SOL    HW1 5069   6.944  11.559  11.251 -0.2837  0.9573  0.9323
31030SOL    HW2 5070   6.862  11.682  11.284 -0.0508  1.7117 -1.1292
31031SOL     OW 5071  13.301   5.274   9.886  0.3723  0.7145 -0.1824
31031SOL    HW1 5072  13.394   5.296   9.891  0.7439 -0.5399 -1.0937
31031SOL    HW2 5073  13.257   5.358   9.867  1.3692  1.2234 -0.2897
31032SOL     OW 5074   0.569   6.469   2.683  0.4200 -0.0729 -0.3919
31032SOL    HW1 5075   0.499   6.486   2.747 -0.4034  0.3829 -1.3739
31032SOL    HW2 5076   0.611   6.554   2.672  1.4212 -0.4372  0.5057
31033SOL     OW 5077   4.823   0.963  13.324 -0.1940 -1.0035 -0.0891
31033SOL    HW1 5078   4.883   0.985  13.395 -0.0872  0.3870 -0.5813
31033SOL    HW2 5079   4.747   1.020  13.338 -1.0470 -2.1442  0.0411
31034SOL     OW 5080   4.622   3.535   0.670  0.1175  0.6472 -0.0166
31034SOL    HW1 5081   4.700   3.577   0.706  2.1640 -0.2431 -2.9528
31034SOL    HW2 5082   4.627   3.445   0.702  0.0301  0.7118  0.1792
31035SOL     OW 5083   8.729  13.391   2.142 -0.2760  0.0653  0.1020
31035SOL    HW1 5084   8.751  13.452   2.072 -0.7312  0.9858  0.7562
31035SOL    HW2 5085   8.661  13.435   2.192 -2.2339 -1.8687 -0.6813
31036SOL     OW 5086  11.055   4.044   1.377  0.1223 -0.2358 -0.0710
31036SOL    HW1 5087  11.051   4.083   1.289 -1.9126  0.0529  0.0944
31036SOL    HW2 5088  11.044   4.119   1.436 -3.1187 -0.8302  0.2703
31037SOL     OW 5089   4.286   3.407  11.997  0.3243  0.3237  0.2131
31037SOL    HW1 5090   4.192   3.427  12.003  0.8874  2.8066  1.6011
31037SOL    HW2 5091   4.311   3.438  11.910 -0.1326 -0.5555 -0.2574
31038SOL     OW 5092  13.941   8.435  12.570  0.1421  0.7414 -0.3402
31038SOL    HW1 5093  13.944   8.402  12.659  2.5100  2.4480  0.3164
31038SOL    HW2 5094  13.979   8.365  12.517 -2.4176 -0.8008 -0.2985
31039SOL     OW 5095   1.441  13.025  10.053 -0.2726  0.5798  0.4155
31039SOL    HW1 5096   1.380  13.073  10.109 -0.6829  0.1184  0.3794
31039SOL    HW2 5097   1.523  13.023  10.103 -0.8375 -0.4619  1.3700
31040SOL     OW 5098  11.982   6.076  11.524 -0.5933 -0.3539  0.0137
31040SOL    HW1 5099  12.024   5.991  11.519  0.2340  0.0200  0.3632
31040SOL    HW2 5100  11.994   6.104  11.615  0.8565  0.9672 -0.5349
31041SOL     OW 5101   3.088   2.108   4.609  0.3897 -0.0682  0.0234
31041SOL    HW1 5102   3.080   2.143   4.698  0.4890  1.7675 -0.6413
31041SOL    HW2 5103   3.163   2.155   4.572  0.6642 -1.1811 -0.8684
31042SOL     OW 5104   3.032   5.939   0.036 -0.2771 -0.8399 -0.2266
31042SOL    HW1 5105   2.996   5.876  -0.026 -0.3156 -1.5253  0.4737
31042SOL    HW2 5106   3.020   5.897   0.121 -0.5950  0.2555  0.2815
31043SOL     OW 5107  13.169  10.507  12.447 -0.4000 -0.6977 -0.1649
31043SOL    HW1 5108  13.254  10.482  12.411  0.2254 -0.4881  1.1243
31043SOL    HW2 5109  13.121  10.424  12.455 -1.1657 -0.6016 -2.8814
31044SOL     OW 5110   1.557   2.601   0.885 -0.8101  0.3804 -0.3959
31044SOL    HW1 5111   1.610   2.558   0.952  1.2404 -0.2683 -2.2856
31044SOL    HW2 5112   1.495   2.534   0.857  0.7718 -0.6484 -1.6357
31045SOL     OW 5113   0.159   1.520   9.229  0.2131 -0.3361  0.5268
31045SOL    HW1 5114   0.206   1.530   9.146  0.6131 -0.6782  0.7072
31045SOL    HW2 5115   0.124   1.607   9.247 -0.6698 -0.4599 -0.4638
31046SOL     OW 5116   7.288  13.049  13.553 -0.4515 -0.0891  0.0813
31046SOL    HW1 5117   7.206  13.004  13.531 -0.8641 -0.1758  1.7128
31046SOL    HW2 5118   7.319  13.006  13.632  0.9552  0.2433 -0.2657
31047SOL     OW 5119  13.019   0.794   7.406  0.1428  0.3486 -0.4001
31047SOL    HW1 5120  13.087   0.747   7.455  0.9051  0.0443 -1.7044
31047SOL    HW2 5121  13.052   0.883   7.398 -0.2589  0.5524  0.1274
31048SOL     OW 5122   6.073  10.401  12.552  0.0318  0.4335 -0.3252
31048SOL    HW1 5123   6.002  10.450  12.510 -0.4461  0.2059  0.2086
31048SOL    HW2 5124   6.135  10.469  12.579 -0.7829  0.7967  0.6997
31049SOL     OW 5125   9.160   3.092   6.159  0.4344  0.4298 -0.3044
31049SOL    HW1 5126   9.154   3.057   6.070 -2.3947 -0.2012  0.0314
31049SOL    HW2 5127   9.179   3.185   6.148 -1.4999  0.7162 -1.6976
31050SOL     OW 5128   8.505   3.562   4.200 -0.5197 -0.2223  0.5064
31050SOL    HW1 5129   8.574   3.568   4.134  0.4082  2.4230  1.5408
31050SOL    HW2 5130   8.423   3.568   4.151 -0.0903 -2.9753 -0.7077
31051SOL     OW 5131  13.600   2.086   2.619 -0.0509  0.4259 -0.2206
31051SOL    HW1 5132  13.512   2.088   2.582 -0.7878  2.2235  1.4845
31051SOL    HW2 5133  13.596   2.145   2.693  3.1058  2.0113 -1.1631
31052SOL     OW 5134  12.205  12.476  13.783 -0.6823  0.0404 -0.0842
31052SOL    HW1 5135  12.150  12.530  13.725 -0.0687 -0.2576 -0.9585
31052SOL    HW2 5136  12.265  12.538  13.824  0.8221 -0.0544 -1.9832
31053SOL     OW 5137   0.206  10.799   7.512  0.5665  0.8598  0.1125
31053SOL    HW1 5138   0.229  10.827   7.601  1.0936  0.6625  0.0419
31053SOL    HW2 5139   0.123  10.843   7.494 -1.2640 -1.5709  1.9136
31054SOL     OW 5140  13.022  11.188   7.696 -0.3374  0.1475  0.4447
31054SOL    HW1 5141  13.075  11.133   7.638 -0.4553 -0.4740  0.9196
31054SOL    HW2 5142  12.988  11.128   7.763 -1.1826  0.6320  0.4748
31055SOL     OW 5143  12.214   7.740  13.401 -0.3989 -0.3489 -0.3532
31055SOL    HW1 5144  12.123   7.724  13.423 -0.9007 -1.3933 -2.8349
31055SOL    HW2 5145  12.228   7.693  13.318  2.2935  0.0600 -0.2465
31056SOL     OW 5146  10.082  13.499   4.443  1.0790 -0.0074  0.6209
31056SOL    HW1 5147  10.113  13.471   4.357  0.7507  0.5350  0.3236
31056SOL    HW2 5148  10.139  13.572   4.466 -0.5160  1.6207 -0.3460
31057SOL     OW 5149   1.538   9.792   7.303  0.0672 -0.3203  0.2111
31057SOL    HW1 5150   1.580   9.856   7.245  0.9208 -1.7527 -0.8095
31057SOL    HW2 5151   1.561   9.821   7.391  2.7765 -0.6853 -0.2787
31058SOL     OW 5152   9.968  12.943   1.466  0.0681 -0.1173 -0.2420
31058SOL    HW1 5153   9.888  12.904   1.431  0.1119  0.4505 -1.0203
31058SOL    HW2 5154   9.989  12.891   1.543 -0.1290 -1.3249 -0.9747
31059SOL     OW 5155  10.679   6.711   6.746  0.0875 -0.0744  0.9189
31059SOL    HW1 5156  10.651   6.631   6.701 -0.1306 -0.4556  1.7068
31059SOL    HW2 5157  10.742   6.751   6.687  0.0166 -0.7103  0.4019
31060SOL     OW 5158   8.581   3.194  13.598 -0.1893 -0.3704  0.0168
31060SOL    HW1 5159   8.533   3.245  13.532  3.7948  1.3412 -1.8952
31060SOL    HW2 5160   8.577   3.104  13.565 -2.4865 -0.4411  0.3128
31061SOL     OW 5161   8.563  13.478   5.465 -0.3560 -0.1159 -0.4164
31061SOL    HW1 5162   8.479  13.466   5.508  0.1527 -0.8875  0.3904
31061SOL    HW2 5163   8.625  13.428   5.518  0.6496  0.5987 -0.8812
31062SOL     OW 5164  10.418  13.529  10.230 -0.3181  0.2172 -0.4149
31062SOL    HW1 5165  10.420  13.573  10.315  1.1146  0.2810 -0.4620
31062SOL    HW2 5166  10.353  13.460  10.241  0.5385 -0.4144  1.0833
31063SOL     OW 5167   1.743   2.621  11.467 -0.7569 -0.3435 -0.5175
31063SOL    HW1 5168   1.834   2.614  11.498 -0.5694 -2.8062 -1.3582
31063SOL    HW2 5169   1.692   2.637  11.546  0.1897 -1.5243  0.3836
31064SOL     OW 5170   0.463   6.929  12.827  0.1801  0.0694  0.2920
31064SOL    HW1 5171   0.481   6.975  12.909 -3.9821  1.4688  0.6489
31064SOL    HW2 5172   0.418   6.849  12.853  2.3006 -1.5436 -0.6115
31065SOL     OW 5173   3.163   0.198  11.954 -0.2617  0.6173 -0.4368
31065SOL    HW1 5174   3.254   0.218  11.935 -0.2600 -0.1797 -1.4190
31065SOL    HW2 5175   3.157   0.197  12.049  0.9127  0.0095 -0.3514
31066SOL     OW 5176   7.765   9.122   4.097 -0.2410  0.4268 -0.6444
31066SOL    HW1 5177   7.674   9.101   4.116 -0.2250  1.1550  0.3113
31066SOL    HW2 5178   7.815   9.049   4.133 -0.4916 -0.6693 -2.3855
31067SOL     OW 5179   3.605   4.945   5.320 -0.0683 -0.0911 -0.2097
31067SOL    HW1 5180   3.641   5.012   5.262  2.1502 -1.4347 -0.4767
31067SOL    HW2 5181   3.514   4.972   5.333  0.3516  2.1805 -1.4289
31068SOL     OW 5182   0.045   9.093   5.826 -0.0397  0.2854 -0.8417
31068SOL    HW1 5183   0.104   9.018   5.821 -0.1799  0.1789 -0.8717
31068SOL    HW2 5184   0.012   9.105   5.737  0.4179  0.7300 -0.9587
31069SOL     OW 5185   0.998   6.510  10.549  0.3073 -0.7172  0.3260
31069SOL    HW1 5186   0.931   6.442  10.549 -0.0546 -0.4044 -1.2466
31069SOL    HW2 5187   1.076   6.466  10.582  0.1838 -2.0430 -1.0264
31070SOL     OW 5188   2.086  11.599   4.792  0.2149 -0.0051  0.1179
31070SOL    HW1 5189   2.027  11.643   4.731 -0.7173  0.1128  1.0804
31070SOL    HW2 5190   2.038  11.597   4.875  0.9409 -1.2682  0.5427
31071SOL     OW 5191   7.389   2.323  12.928 -0.3102 -0.4103 -0.0952
31071SOL    HW1 5192   7.356   2.371  13.004  2.3609  1.8053 -0.1625
31071SOL    HW2 5193   7.468   2.279  12.960 -1.4103 -2.9671 -0.6479
31072SOL     OW 5194   4.652  12.118   4.149  0.0031 -0.3237 -0.2346
31072SOL    HW1 5195   4.573  12.068   4.130 -1.2960  2.1612 -1.8517
31072SOL    HW2 5196   4.692  12.072   4.223 -2.3297 -2.3209 -0.0941
31073SOL     OW 5197   6.798   9.737  10.273  0.4799  0.3268  0.4514
31073SOL    HW1 5198   6.787   9.720  10.366  0.4727  0.1373  0.4147
31073SOL    HW2 5199   6.824   9.653  10.235  0.5360  0.4151  0.2915
31074SOL     OW 5200   3.290  10.049   2.595  0.5872  0.3122  0.2632
31074SOL    HW1 5201   3.322   9.996   2.522 -0.5171 -0.5850  0.4012
31074SOL    HW2 5202   3.238  10.118   2.554  1.0024  0.5661  0.1518
31075SOL     OW 5203   0.173  11.385   9.740  0.4204  0.0573 -0.8497
31075SOL    HW1 5204   0.201  11.427   9.822  0.7249 -1.7368  0.0332
31075SOL    HW2 5205   0.224  11.429   9.672 -0.2806  2.0112 -0.1969
31076SOL     OW 5206   2.339   0.682   9.353 -0.2652  0.2251  0.5555
31076SOL    HW1 5207   2.309   0.724   9.272 -0.9936  0.1905  0.8040
31076SOL    HW2 5208   2.286   0.722   9.422  0.6644  0.5829  1.0813
31077SOL     OW 5209   5.762   8.350  11.547 -0.1562  0.9260  0.3144
31077SOL    HW1 5210   5.822   8.329  11.475 -1.4636  2.4720 -1.3344
31077SOL    HW2 5211   5.675   8.346  11.507 -1.0502  0.4508  2.2067
31078SOL     OW 5212   5.521   5.252   8.528  0.1619 -0.1699 -0.4089
31078SOL    HW1 5213   5.502   5.334   8.482 -1.0916  0.2751  0.8376
31078SOL    HW2 5214   5.469   5.186   8.481 -1.6837  0.4056  0.7472
31079SOL     OW 5215   9.063   5.626   2.510 -0.1350  0.1972  0.7643
31079SOL    HW1 5216   9.120   5.572   2.564 -0.2213 -0.9924 -0.2770
31079SOL    HW2 5217   8.993   5.654   2.569  1.6287  1.9547  2.1503
31080SOL     OW 5218  12.282   4.365  13.516 -0.0683  0.4676  0.5314
31080SOL    HW1 5219  12.189   4.348  13.530 -0.0351  0.5566  0.8576
31080SOL    HW2 5220  12.315   4.393  13.601  0.0531  1.3835  0.2009
31081SOL     OW 5221   6.450   2.942   7.959 -0.1873 -0.2008  0.0127
31081SOL    HW1 5222   6.480   3.019   8.006 -0.9091  0.9368 -1.3283
31081SOL    HW2 5223   6.427   2.974   7.872 -3.0879 -1.3898  0.2334
31082SOL     OW 5224   9.798   7.016   8.739 -0.0762 -0.1634  0.2334
31082SOL    HW1 5225   9.784   6.948   8.674  0.3448  1.0738 -1.2029
31082SOL    HW2 5226   9.882   6.994   8.779 -0.1928 -0.7681  0.1536
31083SOL     OW 5227   2.090   2.657   6.196 -0.5263 -0.1100  0.2822
31083SOL    HW1 5228   2.165   2.710   6.168 -1.1883 -0.3208 -2.0996
31083SOL    HW2 5229   2.070   2.689   6.284  1.8108  0.5175  0.6648
31084SOL     OW 5230   7.253  13.737   7.473  0.4545  0.2071 -0.3300
31084SOL    HW1 5231   7.176  13.685   7.498  0.1974  0.6535 -0.1785
31084SOL    HW2 5232   7.227  13.828   7.491  1.9430  0.2196  2.3353
31085SOL     OW 5233  12.453  10.873   1.347  0.0123 -0.2157 -0.5826
31085SOL    HW1 5234  12.429  10.788   1.386  0.5169 -1.0314 -1.9663
31085SOL    HW2 5235  12.466  10.931   1.422 -1.1918 -1.1195  0.3801
31086SOL     OW 5236  13.916  12.046   2.840 -1.1841  0.4698  0.2834
31086SOL    HW1 5237  13.957  11.960   2.845  1.7471  1.7116 -0.6757
31086SOL    HW2 5238  13.826  12.028   2.812 -0.5654 -2.2329 -0.1928
31087SOL     OW 5239   0.648   8.585   2.271  0.1543  0.3088 -0.6891
31087SOL    HW1 5240   0.617   8.501   2.236 -1.8749  0.3877  0.7474
31087SOL    HW2 5241   0.689   8.562   2.355 -2.1984  0.8575  0.7066
31088SOL     OW 5242   4.693  11.737  10.768  0.7274 -0.3058 -0.0582
31088SOL    HW1 5243   4.755  11.744  10.841 -1.4176  3.1396  1.7078
31088SOL    HW2 5244   4.613  11.703  10.808 -0.6980  2.2729 -0.4880
31089SOL     OW 5245   2.811  13.739   5.187  0.5929  0.2087 -0.4681
31089SOL    HW1 5246   2.824  13.829   5.219 -1.0869 -0.0455  1.1082
31089SOL    HW2 5247   2.883  13.690   5.227  0.8896  0.6565 -0.4394
31090SOL     OW 5248  11.675   6.134   7.325 -0.0454  0.4962  0.3638
31090SOL    HW1 5249  11.609   6.076   7.362 -1.3869  1.3887 -0.5812
31090SOL    HW2 5250  11.657   6.219   7.365  0.7143  0.6899  0.3086
31091SOL     OW 5251   7.152  11.361  10.993 -0.0327 -0.6988 -0.4209
31091SOL    HW1 5252   7.222  11.318  10.944  0.1369 -1.8247  0.7427
31091SOL    HW2 5253   7.196  11.430  11.043 -0.1008 -0.0078 -1.3008
31092SOL     OW 5254   1.654   9.923  11.466  0.1782 -0.2493 -0.4157
31092SOL    HW1 5255   1.667   9.970  11.384  0.5135 -0.0738 -0.2648
31092SOL    HW2 5256   1.726   9.860  11.470  1.7411  1.4936  0.9648
31093SOL     OW 5257  11.422  11.717   2.434  0.1667 -0.1190  0.0222
31093SOL    HW1 5258  11.504  11.757   2.464  0.3207 -1.6642  1.8163
31093SOL    HW2 5259  11.432  11.713   2.339  1.2900  1.5579  0.0194
31094SOL     OW 5260   2.184   2.014  10.478 -0.1870  0.1474  0.0820
31094SOL    HW1 5261   2.185   1.979  10.389  1.0193 -1.4737  0.6933
31094SOL    HW2 5262   2.268   2.059  10.488 -0.4562  0.6152  0.3036
31095SOL     OW 5263  12.109  14.040   0.916  0.0177  0.3851 -0.4531
31095SOL    HW1 5264  12.160  13.978   0.863  0.4837  0.9788 -0.7031
31095SOL    HW2 5265  12.129  14.126   0.879 -0.2346  0.7385  0.2116
31096SOL     OW 5266   7.241   9.192   3.158  0.3735 -0.2881  0.0532
31096SOL    HW1 5267   7.311   9.258   3.163  0.3793 -0.0142 -2.3279
31096SOL    HW2 5268   7.191   9.204   3.239  1.5355  1.3070  0.5903
31097SOL     OW 5269  12.801   6.451   3.022 -0.2495  0.2517  0.5804
31097SOL    HW1 5270  12.789   6.379   3.084  0.6429 -0.7626 -0.3892
31097SOL    HW2 5271  12.713   6.467   2.988 -0.5987  0.2088  1.4361
31098SOL     OW 5272  13.118   5.698   6.944 -0.1996  0.0677  0.4010
31098SOL    HW1 5273  13.077   5.784   6.948  1.3600  0.8447  0.5172
31098SOL    HW2 5274  13.067   5.649   6.879 -1.3656  0.9104  0.6474
31099SOL     OW 5275   0.165   8.633   7.356 -0.4113 -0.0498  0.3748
31099SOL    HW1 5276   0.083   8.586   7.375 -1.8635  1.4343 -1.7011
31099SOL    HW2 5277   0.230   8.564   7.345 -1.7406 -1.3946  0.5736
31100SOL     OW 5278   2.631   6.324  10.060 -0.1310  0.2405 -0.0444
31100SOL    HW1 5279   2.633   6.418  10.080 -1.5796 -0.0423  1.7067
31100SOL    HW2 5280   2.542   6.297  10.083  0.0117 -1.4131 -1.3101
31101SOL     OW 5281   2.422   6.157   2.327  0.0475  0.1293 -0.1437
31101SOL    HW1 5282   2.342   6.162   2.381 -0.7198  0.3408 -1.2682
31101SOL    HW2 5283   2.390   6.147   2.238  1.2847 -2.9994 -0.3636
31102SOL     OW 5284  13.867   5.509   2.526 -0.8492  0.2974 -0.0893
31102SOL    HW1 5285  13.856   5.508   2.621  1.1732 -0.8993  0.1763
31102SOL    HW2 5286  13.947   5.558   2.511  1.5434 -3.3825 -0.7228
31103SOL     OW 5287  13.543  13.082   4.374 -0.3784 -0.0396  0.3293
31103SOL    HW1 5288  13.574  13.172   4.381 -1.6799  0.3120  2.1672
31103SOL    HW2 5289  13.474  13.085   4.308  0.0434  0.1602 -0.1065
31104SOL     OW 5290   8.257  11.082   2.525  0.0753 -0.3496  0.2319
31104SOL    HW1 5291   8.177  11.029   2.519 -0.0108 -0.0890 -1.7496
31104SOL    HW2 5292   8.239  11.145   2.595 -1.8064  0.2301 -0.6915
31105SOL     OW 5293   9.869   0.740   1.582  0.2431  0.1811 -0.0654
31105SOL    HW1 5294   9.873   0.795   1.504  1.5566 -0.9911 -0.8952
31105SOL    HW2 5295   9.792   0.685   1.569  0.9663 -0.6495 -1.0434
31106SOL     OW 5296   2.904   7.300   7.298  0.6647  0.0574 -0.1916
31106SOL    HW1 5297   2.827   7.356   7.294  0.1316 -0.7228 -1.3306
31106SOL    HW2 5298   2.925   7.280   7.207  0.9048 -1.4741  0.1581
31107SOL     OW 5299   2.444  12.962   0.189 -0.4383  0.0137  0.2086
31107SOL    HW1 5300   2.534  12.937   0.166 -0.3234 -0.6488  1.3148
31107SOL    HW2 5301   2.448  13.056   0.202  0.0707  0.0114  0.1021
31108SOL     OW 5302  12.345   5.306   7.537  0.2300 -0.2834  0.0867
31108SOL    HW1 5303  12.400   5.322   7.614 -0.4793 -1.5213  0.8799
31108SOL    HW2 5304  12.399   5.335   7.463  0.8431  1.1497  1.0346
31109SOL     OW 5305   2.781   7.494  13.750  0.0532 -0.8101 -0.2427
31109SOL    HW1 5306   2.830   7.484  13.669  1.0401  3.1808 -0.3755
31109SOL    HW2 5307   2.699   7.536  13.724 -0.7579 -1.7888  0.6287
31110SOL     OW 5308  11.742  13.660  12.190 -0.0402  0.0182  0.0861
31110SOL    HW1 5309  11.825  13.708  12.188  0.9072 -1.3792  2.4827
31110SOL    HW2 5310  11.703  13.677  12.104  1.9669  1.9912 -0.5340
31111SOL     OW 5311  12.592   8.058   9.655  0.5609 -0.5733  0.1444
31111SOL    HW1 5312  12.600   7.965   9.676  1.5718 -0.8679 -1.3566
31111SOL    HW2 5313  12.662   8.099   9.706  1.1093 -0.8717 -0.3438
31112SOL     OW 5314   4.160   7.660  13.198  0.1860 -0.5030 -0.4974
31112SOL    HW1 5315   4.091   7.655  13.264  0.0268 -0.5457 -0.6673
31112SOL    HW2 5316   4.218   7.587  13.217  0.1234 -0.5322 -0.4214
31113SOL     OW 5317   9.888   2.075   9.391  0.5668  0.0594 -0.3189
31113SOL    HW1 5318   9.907   1.994   9.342 -0.4800 -1.2071  1.2424
31113SOL    HW2 5319   9.958   2.080   9.456  1.6834  1.4736 -1.5725
31114SOL     OW 5320   1.460   1.203   8.365 -0.0818  0.2750 -0.1251
31114SOL    HW1 5321   1.543   1.155   8.365 -1.0438 -1.4964 -1.1472
31114SOL    HW2 5322   1.485   1.293   8.345  1.9798  0.7002  3.4100
31115SOL     OW 5323   2.972   8.256   2.167  0.0450  0.0062 -0.1059
31115SOL    HW1 5324   2.935   8.206   2.239 -1.0533 -0.2841 -0.8389
31115SOL    HW2 5325   2.900   8.311   2.136  1.3304  2.4345  0.9640
31116SOL     OW 5326   7.007   6.153  10.607 -0.2952 -0.1886 -0.1056
31116SOL    HW1 5327   6.928   6.111  10.574 -0.8560  2.2175 -2.0634
31116SOL    HW2 5328   6.985   6.246  10.614  2.2211  0.5027 -0.2948
31117SOL     OW 5329   8.096   7.309   6.630  0.9395 -0.0209 -0.3802
31117SOL    HW1 5330   8.025   7.301   6.566  0.3584 -1.2811  0.3794
31117SOL    HW2 5331   8.099   7.223   6.673  2.7365  0.1142 -0.1833
31118SOL     OW 5332  10.562   8.464   0.020 -0.0461 -0.3689  0.4718
31118SOL    HW1 5333  10.579   8.389  -0.038  0.5223 -0.2179  0.4350
31118SOL    HW2 5334  10.539   8.535  -0.040  2.1574  0.2461  0.2651
31119SOL     OW 5335   3.523   4.681   3.031 -0.2387  0.2485  0.2227
31119SOL    HW1 5336   3.464   4.755   3.042 -0.7302 -0.2063  0.7214
31119SOL    HW2 5337   3.471   4.614   2.986  0.3123  0.3331 -0.5669
31120SOL     OW 5338  13.489   7.644  10.696 -0.2166  0.2972  0.7995
31120SOL    HW1 5339  13.457   7.722  10.742 -1.3217  0.0477  0.4823
31120SOL    HW2 5340  13.411   7.591  10.680  0.0518  0.4925 -1.6092
31121SOL     OW 5341  12.004  12.363   1.682 -0.3104 -0.2411  0.2439
31121SOL    HW1 5342  11.944  12.298   1.719 -1.5172  0.5961 -0.1691
31121SOL    HW2 5343  12.090  12.322   1.688 -0.9816 -1.7298  0.3241
31122SOL     OW 5344  10.056   2.834   0.255 -0.1674 -0.0912 -0.2284
31122SOL    HW1 5345  10.073   2.747   0.291  1.0487 -0.7320 -2.1815
31122SOL    HW2 5346  10.135   2.855   0.205 -0.2811  2.3129  0.4633
31123SOL     OW 5347   8.324  11.377  11.235 -0.3926  0.2489  0.0379
31123SOL    HW1 5348   8.342  11.469  11.254  0.3931  0.2530 -0.6820
31123SOL    HW2 5349   8.400  11.330  11.270 -0.3403 -0.0328 -0.4573
31124SOL     OW 5350  10.999   8.549   2.468  0.0658  0.0311 -0.0886
31124SOL    HW1 5351  11.056   8.490   2.419 -0.4269 -0.7727  0.2712
31124SOL    HW2 5352  11.039   8.554   2.555  0.8539  1.3309 -0.5140
31125SOL     OW 5353   2.914  13.757   1.871  0.0574 -0.4672 -0.4318
31125SOL    HW1 5354   2.836  13.781   1.920  1.8011  2.2786  1.3204
31125SOL    HW2 5355   2.920  13.822   1.801  0.9076 -0.4213 -0.3355
31126SOL     OW 5356   3.749   5.075  13.319  0.0845  0.0801 -0.0874
31126SOL    HW1 5357   3.825   5.073  13.378 -0.5337  0.7666  0.7599
31126SOL    HW2 5358   3.685   5.017  13.361 -0.2251  0.2831 -0.2811
31127SOL     OW 5359   1.977  11.359   0.780 -0.0179 -0.3175  0.1038
31127SOL    HW1 5360   1.891  11.317   0.770 -0.6171  1.0268 -0.6565
31127SOL    HW2 5361   1.981  11.381   0.873 -0.0080 -1.3547  0.3688
31128SOL     OW 5362   9.794   4.624   3.637 -0.6246  0.2942  0.3860
31128SOL    HW1 5363   9.799   4.696   3.574  1.3753  0.2956  0.4784
31128SOL    HW2 5364   9.711   4.638   3.683  0.0706  3.0371  0.9730
31129SOL     OW 5365   5.251  12.184   0.057 -0.0724 -0.5145 -0.2942
31129SOL    HW1 5366   5.196  12.124   0.006 -1.5795 -0.3525  1.0642
31129SOL    HW2 5367   5.194  12.213   0.129  0.5540  2.6019 -0.9068
31130SOL     OW 5368   1.727  13.480   8.861  0.0743  0.0594 -0.0576
31130SOL    HW1 5369   1.808  13.492   8.810 -0.0440  0.4762 -0.1496
31130SOL    HW2 5370   1.660  13.464   8.795 -0.4498  2.4483 -0.2153
31131SOL     OW 5371   5.297   2.165   8.332  0.5743  0.1577 -0.2179
31131SOL    HW1 5372   5.349   2.191   8.256 -0.4939  0.3629 -0.9032
31131SOL    HW2 5373   5.244   2.243   8.352  2.7020  1.0912  2.4250
31132SOL     OW 5374   7.600   9.854  10.609 -0.1065  0.3032  0.3753
31132SOL    HW1 5375   7.555   9.780  10.570  1.1848 -0.1577 -0.3058
31132SOL    HW2 5376   7.615   9.829  10.700  0.9453 -0.6079 -0.0236
31133SOL     OW 5377   7.690   4.674   8.839 -0.3130  0.5633  0.2413
31133SOL    HW1 5378   7.676   4.609   8.908 -0.4979  2.2012  1.8420
31133SOL    HW2 5379   7.622   4.655   8.774 -0.1441 -1.0191  0.4951
31134SOL     OW 5380   4.687  13.023   9.151  0.1857 -0.0320  0.2176
31134SOL    HW1 5381   4.719  12.955   9.092 -0.2060 -0.9828  1.0924
31134SOL    HW2 5382   4.602  12.992   9.181  0.4654  0.3336  1.4520
31135SOL     OW 5383   1.715   5.140  13.134 -0.1633  0.0055 -0.2520
31135SOL    HW1 5384   1.775   5.183  13.193  0.6791 -3.0119  1.3226
31135SOL    HW2 5385   1.758   5.057  13.112 -2.3352 -0.8372 -1.6990
31136SOL     OW 5386   5.486   2.390  11.111  0.2382  0.1337  0.3232
31136SOL    HW1 5387   5.510   2.346  11.192 -0.2118  0.6005  0.7176
31136SOL    HW2 5388   5.568   2.398  11.063  0.1886 -2.0274 -0.2261
31137SOL     OW 5389  10.730   4.135   1.619  0.3196  0.3724 -0.4616
31137SOL    HW1 5390  10.742   4.116   1.713 -0.8463 -1.1009 -0.5756
31137SOL    HW2 5391  10.678   4.062   1.586  1.4712  0.3916 -2.4822
31138SOL     OW 5392  12.532   3.556   1.949 -0.2312 -0.3223 -0.3485
31138SOL    HW1 5393  12.566   3.609   2.021 -2.1586 -1.1280  1.2684
31138SOL    HW2 5394  12.536   3.613   1.873  2.8957  0.2181  0.0783
31139SOL     OW 5395   1.122   7.568   1.389  0.3839 -0.5285 -0.0230
31139SOL    HW1 5396   1.147   7.658   1.367  0.7691 -0.2876  1.3420
31139SOL    HW2 5397   1.205   7.523   1.407  0.1745 -1.1021 -0.4352
31140SOL     OW 5398   1.763  10.575   7.866  0.0842 -0.1758  0.4655
31140SOL    HW1 5399   1.788  10.528   7.787 -0.0153  1.6937 -0.7385
31140SOL    HW2 5400   1.668  10.564   7.872 -0.0757  0.6701 -0.3719
31141SOL     OW 5401   1.124  10.825  13.488  0.1135 -0.4202 -0.5240
31141SOL    HW1 5402   1.063  10.892  13.520 -0.2512 -1.9880  2.4480
31141SOL    HW2 5403   1.174  10.869  13.420 -1.5216  2.2192 -0.1732
31142SOL     OW 5404   2.347   8.434   7.781 -0.1848  0.0481  0.0698
31142SOL    HW1 5405   2.299   8.455   7.701 -1.5753  0.3320  0.9529
31142SOL    HW2 5406   2.419   8.497   7.784  0.1091 -0.2000 -1.1208
31143SOL     OW 5407   3.173  12.831  13.337 -0.1282 -0.1703 -0.6104
31143SOL    HW1 5408   3.260  12.794  13.324  0.1519  0.5285 -0.8109
31143SOL    HW2 5409   3.186  12.897  13.406 -0.5198 -0.1554 -0.5513
31144SOL     OW 5410  11.833  11.687   8.868  0.8640  0.4430  0.2011
31144SOL    HW1 5411  11.774  11.623   8.908 -1.4665  1.9783 -0.5816
31144SOL    HW2 5412  11.848  11.752   8.937  2.2990 -0.2929  0.6262
31145SOL     OW 5413  11.884   8.687  13.898 -0.3963  0.3961  0.1000
31145SOL    HW1 5414  11.845   8.716  13.815  2.5147  1.6641 -0.9443
31145SOL    HW2 5415  11.958   8.747  13.912  0.7908 -1.4400  2.2598
31146SOL     OW 5416  13.849   9.199   7.977 -0.9201 -0.9508  0.3540
31146SOL    HW1 5417  13.765   9.224   7.937 -0.8429 -0.5098  0.4584
31146SOL    HW2 5418  13.850   9.104   7.972 -1.6377 -0.9892  0.7644
31147SOL     OW 5419  13.736  13.690   6.990 -0.0959 -0.1795  0.3766
31147SOL    HW1 5420  13.674  13.620   7.012 -0.1455 -0.0710  0.5908
31147SOL    HW2 5421  13.715  13.760   7.052 -1.4421  0.8621 -1.1813
31148SOL     OW 5422  13.922   2.550   1.528 -0.3706 -0.6008  0.0345
31148SOL    HW1 5423  13.993   2.603   1.494  0.7449 -1.6620  0.6251
31148SOL    HW2 5424  13.843   2.603   1.516  0.4480  0.3880 -1.0862
31149SOL     OW 5425   4.287   8.411  10.710 -0.3030  0.3274  0.3081
31149SOL    HW1 5426   4.279   8.322  10.676  0.8254  0.6306 -0.8153
31149SOL    HW2 5427   4.263   8.467  10.636 -3.3952  0.9985  1.6683
31150SOL     OW 5428  11.205   4.546   8.135  0.1520 -0.0408 -0.1358
31150SOL    HW1 5429  11.267   4.612   8.106 -1.3905  1.2302 -0.6884
31150SOL    HW2 5430  11.253   4.495   8.201  1.0390  2.3939  1.2246
31151SOL     OW 5431   5.125  13.756  13.947  0.0886 -0.4049  0.3206
31151SOL    HW1 5432   5.040  13.782  13.913  1.3718 -0.3206 -3.2755
31151SOL    HW2 5433   5.113  13.664  13.972 -1.5563  0.2222  2.0091
31152SOL     OW 5434  13.886  11.450   9.927  0.2125 -0.5334 -0.4500
31152SOL    HW1 5435  13.849  11.538   9.931 -1.5948 -1.2085 -1.1275
31152SOL    HW2 5436  13.902  11.435   9.833 -0.6430 -1.3446 -0.4834
31153SOL     OW 5437   6.480   6.508   3.004 -0.4628  0.2133  0.4841
31153SOL    HW1 5438   6.519   6.510   2.917 -1.0272  2.4224  0.2287
31153SOL    HW2 5439   6.395   6.466   2.993 -1.0286  1.5171 -0.2813
31154SOL     OW 5440   9.584   8.004   3.645  0.0608  0.0764 -0.3241
31154SOL    HW1 5441   9.671   7.996   3.685  0.2214 -0.8165 -0.8004
31154SOL    HW2 5442   9.536   7.927   3.677 -0.4170  0.3478 -0.3812
31155SOL     OW 5443   0.586   0.953   1.224  0.1008  0.2042  0.6858
31155SOL    HW1 5444   0.516   0.977   1.164  0.5848  0.7441  0.3200
31155SOL    HW2 5445   0.560   0.990   1.309 -1.1270 -1.5217  1.0994
31156SOL     OW 5446   6.647  10.167   5.897 -0.0350  0.4265 -0.3927
31156SOL    HW1 5447   6.634  10.253   5.939  0.1401 -0.3159  1.2648
31156SOL    HW2 5448   6.561  10.124   5.904  0.9186 -1.2795  3.0643
31157SOL     OW 5449  12.180   0.261  12.385  0.1790 -0.0190  0.6309
31157SOL    HW1 5450  12.189   0.308  12.468 -1.1959 -1.0561  1.4055
31157SOL    HW2 5451  12.132   0.182  12.407  0.9107 -0.9592 -0.9494
31158SOL     OW 5452   3.164  12.045   8.741  0.6599  0.0496  0.2058
31158SOL    HW1 5453   3.255  12.057   8.767  0.9937 -1.9851  0.1644
31158SOL    HW2 5454   3.166  12.042   8.645  0.8298 -1.5878  0.2319
31159SOL     OW 5455  13.432  11.681  11.589 -0.8898  0.2773  0.1919
31159SOL    HW1 5456  13.435  11.681  11.684  0.5389 -0.7953  0.1771
31159SOL    HW2 5457  13.522  11.663  11.562 -0.9392  2.0632 -1.3946
31160SOL     OW 5458  12.133  13.629   0.385  0.2733  0.1306 -0.1875
31160SOL    HW1 5459  12.059  13.670   0.340  0.0377  1.5374  1.3832
31160SOL    HW2 5460  12.195  13.610   0.315 -0.6186  1.0158 -1.2716
31161SOL     OW 5461  11.493  12.183   3.100  0.2680  0.5671  0.3148
31161SOL    HW1 5462  11.474  12.258   3.043 -0.0765 -0.7966 -1.4575
31161SOL    HW2 5463  11.581  12.155   3.075 -0.4654 -0.9713 -0.6804
31162SOL     OW 5464   2.914   5.057   5.739 -0.0963  0.4134 -0.1644
31162SOL    HW1 5465   2.848   5.122   5.764  1.0960  0.9605  1.7602
31162SOL    HW2 5466   2.980   5.107   5.691 -0.1910  0.2095 -0.5114
31163SOL     OW 5467  11.688  13.946   3.906  0.5210  0.4629  0.6714
31163SOL    HW1 5468  11.712  13.880   3.841  1.5872 -0.9937  2.4311
31163SOL    HW2 5469  11.689  14.029   3.858 -1.2589 -0.7573 -1.7345
31164SOL     OW 5470  12.169  11.912   2.552 -0.1917  0.6162 -0.4888
31164SOL    HW1 5471  12.075  11.926   2.567  0.2308  2.2213  1.0012
31164SOL    HW2 5472  12.206  11.908   2.640  1.1157 -0.3315 -1.0585
31165SOL     OW 5473   4.014   7.032   9.197 -0.4634  0.1917  0.2629
31165SOL    HW1 5474   3.976   6.982   9.125  2.1978 -0.8619 -0.4900
31165SOL    HW2 5475   4.014   6.971   9.271  1.1227 -0.3390 -0.1595
31166SOL     OW 5476  13.211   3.328   4.999  0.2673 -0.2719 -0.1011
31166SOL    HW1 5477  13.123   3.304   4.971  0.2328 -0.1825 -0.0688
31166SOL    HW2 5478  13.236   3.257   5.058 -0.4859  0.5848  1.3156
31167SOL     OW 5479   7.323  13.365   5.457  0.4740  0.2316  0.3032
31167SOL    HW1 5480   7.258  13.367   5.527  2.2231  0.7175  2.0168
31167SOL    HW2 5481   7.359  13.276   5.460  0.0022  0.0088 -0.5302
31168SOL     OW 5482   8.643   0.339   3.388 -0.6394  0.2668 -0.3484
31168SOL    HW1 5483   8.644   0.423   3.344 -0.3636  0.5377  0.1656
31168SOL    HW2 5484   8.603   0.357   3.473 -0.7827 -0.1660 -0.3212
31169SOL     OW 5485  12.051   3.351   7.761  0.4476  0.6391 -0.1922
31169SOL    HW1 5486  12.118   3.299   7.716  0.2832 -0.2944  0.6129
31169SOL    HW2 5487  12.004   3.288   7.815 -0.8996  1.3327 -0.5148
31170SOL     OW 5488   2.265  12.301  10.182  0.7442 -0.4680  1.3074
31170SOL    HW1 5489   2.290  12.209  10.186 -1.5062 -1.2214 -0.0251
31170SOL    HW2 5490   2.303  12.333  10.100  1.0279 -0.3772  1.4742
31171SOL     OW 5491   6.405   8.371   2.905 -0.1919 -0.1568 -0.3504
31171SOL    HW1 5492   6.480   8.430   2.909 -1.6700  1.9811 -1.8866
31171SOL    HW2 5493   6.404   8.338   2.815 -1.7618  0.8738 -0.7556
31172SOL     OW 5494   1.341   0.653   8.774 -0.1037  0.6944 -0.2426
31172SOL    HW1 5495   1.399   0.720   8.737 -0.3928  1.6498  1.0002
31172SOL    HW2 5496   1.257   0.696   8.785  0.2457  0.8317  2.5638
31173SOL     OW 5497   7.587  12.080  11.252 -0.3753  0.5951 -0.0668
31173SOL    HW1 5498   7.642  12.083  11.174 -0.8414  0.0442 -0.4315
31173SOL    HW2 5499   7.626  12.144  11.312 -0.5849  1.7476 -1.1183
31174SOL     OW 5500  11.314  10.053   1.813  0.3152 -0.0128  0.0924
31174SOL    HW1 5501  11.406  10.041   1.837  0.3165 -0.6275 -0.2033
31174SOL    HW2 5502  11.270   9.976   1.849 -0.0215  0.0876 -0.1049
31175SOL     OW 5503   0.117   7.523   8.860  0.0456  0.2494 -0.4071
31175SOL    HW1 5504   0.120   7.617   8.876  0.7882  0.1363  0.1494
31175SOL    HW2 5505   0.163   7.511   8.777 -2.1890  0.6294 -1.7738
31176SOL     OW 5506   4.692   9.483   6.602  0.4063  0.5840 -0.5440
31176SOL    HW1 5507   4.738   9.415   6.551 -0.0624  1.1462 -1.7704
31176SOL    HW2 5508   4.602   9.452   6.607 -0.1277  1.6775 -2.2694
31177SOL     OW 5509   8.979   8.655  11.415 -0.0815 -0.3057  0.4403
31177SOL    HW1 5510   8.935   8.594  11.474 -0.9446  2.0669  2.4158
31177SOL    HW2 5511   8.942   8.741  11.437 -0.4113  0.7697 -3.5680
31178SOL     OW 5512   2.391   6.848   5.552 -0.0061 -0.1465 -0.0392
31178SOL    HW1 5513   2.396   6.930   5.600  0.3298 -0.0624 -0.2083
31178SOL    HW2 5514   2.333   6.866   5.478 -1.0492 -0.4595  0.6769
31179SOL     OW 5515   0.768   5.484   4.851  0.3600  0.4868 -0.6913
31179SOL    HW1 5516   0.863   5.480   4.841  0.2852  2.3365 -3.0113
31179SOL    HW2 5517   0.734   5.475   4.762 -1.5893  0.9470 -0.0474
31180SOL     OW 5518  12.893   5.045   0.419  0.0119  0.0796 -0.2681
31180SOL    HW1 5519  12.946   4.972   0.387  1.6060  0.5998  1.0819
31180SOL    HW2 5520  12.897   5.110   0.349  0.3609 -0.2682 -0.5745
31181SOL     OW 5521  12.967   2.682   4.501 -0.3897  0.0364  0.5891
31181SOL    HW1 5522  13.040   2.682   4.440 -0.5021 -1.5655  0.4028
31181SOL    HW2 5523  12.894   2.645   4.451 -0.9061  0.2002  1.2135
31182SOL     OW 5524   8.522   2.763   3.338 -0.7275  0.0091 -0.1524
31182SOL    HW1 5525   8.612   2.797   3.337 -0.9201  0.5514 -1.8167
31182SOL    HW2 5526   8.509   2.733   3.428  1.3236 -0.6182 -0.0022
31183SOL     OW 5527  12.779   7.165   7.082 -0.5786 -0.4643  0.1048
31183SOL    HW1 5528  12.720   7.228   7.122 -0.6285 -0.2027 -0.3748
31183SOL    HW2 5529  12.860   7.172   7.133 -0.7935 -0.4732  0.4517
31184SOL     OW 5530   0.023   7.924   1.474 -0.2715 -1.0713 -0.4572
31184SOL    HW1 5531   0.074   7.863   1.420  0.2581 -0.4252 -0.6962
31184SOL    HW2 5532  -0.057   7.876   1.494  0.2497 -1.9487 -0.4177
31185SOL     OW 5533  13.206  13.753   2.837  0.2135  0.6119  0.0664
31185SOL    HW1 5534  13.182  13.707   2.756  0.3665  0.3452  0.1723
31185SOL    HW2 5535  13.268  13.819   2.809  0.6770  0.1709  0.0376
31186SOL     OW 5536   2.619  12.186   0.699 -0.3103  0.8963  0.4780
31186SOL    HW1 5537   2.598  12.192   0.606  1.1464  1.2302  0.1545
31186SOL    HW2 5538   2.669  12.105   0.708 -0.2444  0.9821  0.9416
31187SOL     OW 5539   0.071   0.045   2.558 -0.4360 -0.1175 -0.3226
31187SOL    HW1 5540   0.109  -0.032   2.600 -1.0884  0.0304  0.5682
31187SOL    HW2 5541   0.089   0.116   2.619  1.2325  0.6977 -1.6823
31188SOL     OW 5542  13.138   9.116   6.210  0.3707  0.1944 -0.3146
31188SOL    HW1 5543  13.157   9.065   6.131 -4.4398 -1.6310 -0.6248
31188SOL    HW2 5544  13.102   9.198   6.176 -1.7820 -0.6269 -0.1348
31189SOL     OW 5545   5.786   7.845  13.538  0.1900 -0.1539  0.2413
31189SOL    HW1 5546   5.798   7.853  13.632 -2.4733 -0.2060  0.6764
31189SOL    HW2 5547   5.759   7.932  13.509 -1.8176 -0.7621  0.1017
31190SOL     OW 5548   9.641  13.974   3.697  0.2476 -0.1158 -0.9276
31190SOL    HW1 5549   9.565  13.917   3.705 -0.1650  0.2579 -2.1424
31190SOL    HW2 5550   9.672  13.984   3.788 -2.2492  1.2505 -0.1348
31191SOL     OW 5551  13.328   0.874  12.266 -0.1364 -0.0777 -0.2796
31191SOL    HW1 5552  13.333   0.938  12.336 -2.4259  0.9503 -0.9849
31191SOL    HW2 5553  13.303   0.792  12.310 -1.6418  0.5765  0.1199
31192SOL     OW 5554   9.073   1.014   4.075  0.0879  0.1222  0.5046
31192SOL    HW1 5555   9.004   0.964   4.120  0.9357 -0.9242  0.7007
31192SOL    HW2 5556   9.146   0.952   4.069  1.4923  1.6019  1.5019
31193SOL     OW 5557   2.022   8.458   6.466 -0.2499  0.1021  0.1513
31193SOL    HW1 5558   1.982   8.539   6.434 -0.6785 -0.6137 -1.1881
31193SOL    HW2 5559   1.964   8.389   6.436  0.4923 -0.7605  0.6591
31194SOL     OW 5560   0.369  12.531   4.763 -0.4788  0.2878 -0.4619
31194SOL    HW1 5561   0.462  12.517   4.750 -0.7445 -1.8198 -0.5215
31194SOL    HW2 5562   0.357  12.534   4.858 -0.5498 -1.4790 -0.3821
31195SOL     OW 5563   9.968   1.598  13.242  0.1464  0.1969 -0.0940
31195SOL    HW1 5564  10.055   1.566  13.267 -0.1523 -1.1177 -0.6541
31195SOL    HW2 5565   9.959   1.573  13.150 -0.8943  0.1681  0.0056
31196SOL     OW 5566   4.773  12.055   9.290 -0.2761  0.6970  0.4957
31196SOL    HW1 5567   4.857  12.098   9.273  1.4262 -2.0287  1.3991
31196SOL    HW2 5568   4.743  12.025   9.205 -0.4169  1.7596  0.1561
31197SOL     OW 5569   5.829  11.582   4.331 -0.4291 -0.4903 -0.7507
31197SOL    HW1 5570   5.794  11.668   4.306  0.8412 -0.0978 -1.2487
31197SOL    HW2 5571   5.785  11.563   4.414 -0.2179  0.9815 -0.2563
31198SOL     OW 5572   4.385   0.492   9.506  0.1170 -0.6249 -0.5817
31198SOL    HW1 5573   4.320   0.545   9.461 -1.6360 -0.5167  1.8935
31198SOL    HW2 5574   4.353   0.486   9.596  3.5525 -0.5608  0.7844
31199SOL     OW 5575   0.730   3.428   5.849 -0.7958  0.2375 -0.2507
31199SOL    HW1 5576   0.676   3.392   5.778 -1.7060  1.0143  0.0260
31199SOL    HW2 5577   0.667   3.454   5.916 -0.0501  0.8946  0.2118
31200SOL     OW 5578   5.108   3.393   6.127 -0.2393  0.1380 -0.1033
31200SOL    HW1 5579   5.170   3.321   6.134 -0.1181 -0.1847 -3.1538
31200SOL    HW2 5580   5.090   3.419   6.218  0.7407 -2.8002  1.0266
31201SOL     OW 5581   7.149   6.647  12.311  0.1180  0.5564 -0.7366
31201SOL    HW1 5582   7.195   6.718  12.266 -1.6967  1.7691 -0.7658
31201SOL    HW2 5583   7.119   6.589  12.241 -0.6030  1.1399 -0.9161
31202SOL     OW 5584   9.547   4.232   7.269  0.7249 -0.5519 -0.3165
31202SOL    HW1 5585   9.626   4.252   7.218  0.8281 -2.0012 -0.7775
31202SOL    HW2 5586   9.478   4.283   7.228  1.3586  0.5094 -0.0914
31203SOL     OW 5587  12.755   7.857   6.713  0.3596 -0.4315  0.6149
31203SOL    HW1 5588  12.846   7.883   6.720 -0.0064  1.1368 -0.0946
31203SOL    HW2 5589  12.709   7.936   6.687 -0.8884 -1.6913 -1.2690
31204SOL     OW 5590  12.123   6.207   8.046  0.3690  0.0275  0.3375
31204SOL    HW1 5591  12.097   6.270   8.113  0.5997  0.5916 -0.0922
31204SOL    HW2 5592  12.123   6.122   8.091  0.4429  0.3876  1.0285
31205SOL     OW 5593  11.347   3.460   8.030  0.3226  0.3981 -0.1267
31205SOL    HW1 5594  11.268   3.477   7.978 -0.4281 -1.5255  0.2941
31205SOL    HW2 5595  11.417   3.505   7.983 -0.6782  0.4823 -1.6226
31206SOL     OW 5596   2.263  12.003   5.658  0.6541  0.3063  0.2337
31206SOL    HW1 5597   2.238  11.941   5.727  0.8974  0.6537  0.6414
31206SOL    HW2 5598   2.219  11.971   5.580  0.6341 -0.2797  0.4822
31207SOL     OW 5599   8.737  11.488  10.255 -0.1841  0.4221  0.1903
31207SOL    HW1 5600   8.740  11.443  10.340 -0.8056 -0.8012 -0.4077
31207SOL    HW2 5601   8.659  11.544  10.262 -1.1414 -0.8174 -0.0840
31208SOL     OW 5602   4.307   3.785   4.943 -0.1360  0.7849 -0.0229
31208SOL    HW1 5603   4.222   3.826   4.925 -1.0640 -0.8236  0.4903
31208SOL    HW2 5604   4.322   3.800   5.036 -0.5695 -0.1265  0.2111
31209SOL     OW 5605   2.275   5.550   0.171 -0.3725  0.3997  0.0500
31209SOL    HW1 5606   2.303   5.642   0.175  0.4905  0.2333 -1.4928
31209SOL    HW2 5607   2.323   5.513   0.097  2.7944 -2.5343  3.2128
31210SOL     OW 5608   3.795   1.425   8.288  0.0868 -0.0023  0.5202
31210SOL    HW1 5609   3.810   1.515   8.316  0.1841 -0.1327  0.8959
31210SOL    HW2 5610   3.834   1.420   8.201 -0.5420  0.5048  0.2122
31211SOL     OW 5611  10.251  13.811  10.741  1.4149 -0.0530 -0.1175
31211SOL    HW1 5612  10.249  13.796  10.646  0.7144  2.2669 -0.5345
31211SOL    HW2 5613  10.267  13.905  10.750  1.2576 -0.1881  2.0802
31212SOL     OW 5614  12.675   1.018   6.138 -0.2591  0.2867 -0.2690
31212SOL    HW1 5615  12.602   1.055   6.089  0.3753  0.8526 -0.8227
31212SOL    HW2 5616  12.729   0.975   6.071  0.0815  0.1608  0.0841
31213SOL     OW 5617   4.001  10.353  12.887 -0.1006  0.3662 -0.2008
31213SOL    HW1 5618   4.086  10.326  12.922 -0.3369 -0.6531 -0.3861
31213SOL    HW2 5619   3.963  10.273  12.850 -1.3205  0.7128  0.2409
31214SOL     OW 5620   5.579   7.815  13.166 -0.0242  0.0436  0.0541
31214SOL    HW1 5621   5.637   7.889  13.151  1.6461 -1.0588  0.8749
31214SOL    HW2 5622   5.597   7.755  13.093 -1.4247  0.4202 -0.6510
31215SOL     OW 5623   9.406   9.148   2.761  0.3276  0.1701  0.0373
31215SOL    HW1 5624   9.377   9.164   2.671 -0.4475 -0.0937  0.2284
31215SOL    HW2 5625   9.474   9.214   2.776  0.5237  0.1638 -0.7668
31216SOL     OW 5626  13.498   4.827  11.864 -0.5766 -0.6932  0.0613
31216SOL    HW1 5627  13.403   4.830  11.872 -0.6676 -0.9975 -0.8107
31216SOL    HW2 5628  13.526   4.918  11.874 -1.1609 -0.2539 -1.8278
31217SOL     OW 5629   1.173   3.599  13.010 -0.3628 -0.4413  0.5390
31217SOL    HW1 5630   1.136   3.612  12.923 -3.0709 -0.0412  1.6333
31217SOL    HW2 5631   1.158   3.506  13.029 -2.2439 -0.0117  1.4961
31218SOL     OW 5632   2.692  10.446   9.091 -0.1206  0.1596  0.2169
31218SOL    HW1 5633   2.634  10.488   9.154  0.8852  1.2653  0.4255
31218SOL    HW2 5634   2.725  10.517   9.036  1.5246 -0.3322  0.5054
31219SOL     OW 5635   3.394   0.346   8.903 -0.2872  0.1061 -0.4508
31219SOL    HW1 5636   3.410   0.439   8.884  0.7849 -0.0045 -0.1001
31219SOL    HW2 5637   3.478   0.303   8.888 -0.2197 -0.4872  1.4347
31220SOL     OW 5638   3.662  12.717   0.646  0.2281  0.0595 -0.1334
31220SOL    HW1 5639   3.679  12.807   0.619  0.0507  0.1763  0.1337
31220SOL    HW2 5640   3.651  12.722   0.741  2.7210 -0.6083  0.2620
31221SOL     OW 5641  12.171   5.745   1.596 -0.2797  0.5175  0.3214
31221SOL    HW1 5642  12.077   5.740   1.580 -0.7089  1.0248  2.3816
31221SOL    HW2 5643  12.208   5.675   1.542 -1.8303  0.2747 -0.4967
31222SOL     OW 5644   0.781   0.891  14.042  0.0543 -0.2889 -0.0713
31222SOL    HW1 5645   0.755   0.955  14.108  2.1174 -0.3997  0.9170
31222SOL    HW2 5646   0.830   0.942  13.977 -0.0339 -0.5549 -0.3539
31223SOL     OW 5647   9.181   0.591   4.711 -0.1471  0.0275 -0.0490
31223SOL    HW1 5648   9.116   0.617   4.775 -0.8078 -0.3893 -0.5394
31223SOL    HW2 5649   9.184   0.664   4.649 -1.1697 -0.5380 -0.7921
31224SOL     OW 5650   3.606  10.123   4.254 -0.1101  0.3593  0.1995
31224SOL    HW1 5651   3.515  10.095   4.266 -0.3007  1.3768  1.3250
31224SOL    HW2 5652   3.658  10.053   4.292 -0.4959  0.5656  1.1227
31225SOL     OW 5653   0.569  13.493   7.168  0.2463 -0.3072 -0.0947
31225SOL    HW1 5654   0.614  13.576   7.156  0.7936 -0.8167 -1.7750
31225SOL    HW2 5655   0.635  13.426   7.149 -0.2455 -1.1375  1.0019
31226SOL     OW 5656  12.016  11.389   4.013  0.1444  0.2558  0.1436
31226SOL    HW1 5657  12.026  11.447   3.938 -2.3901 -1.4624 -1.7012
31226SOL    HW2 5658  11.966  11.439   4.077 -0.0754  0.8465 -0.4880
31227SOL     OW 5659  11.799   2.212   2.902  0.6062  0.3643  0.0176
31227SOL    HW1 5660  11.733   2.225   2.971  3.4157 -0.6664  3.2125
31227SOL    HW2 5661  11.826   2.300   2.878 -1.1633  0.7695 -0.6480
31228SOL     OW 5662   1.827   9.640  10.352  0.2207  0.0518  0.0126
31228SOL    HW1 5663   1.831   9.713  10.413 -0.7204  0.6661 -0.6396
31228SOL    HW2 5664   1.863   9.674  10.270 -1.9151  0.4024 -0.8434
31229SOL     OW 5665   9.499  10.736   1.437 -0.5389 -0.3180 -0.0448
31229SOL    HW1 5666   9.420  10.737   1.490 -1.1827 -1.5524 -0.9281
31229SOL    HW2 5667   9.538  10.823   1.450 -0.7421 -0.5156  2.2791
31230SOL     OW 5668  13.720   2.505   4.626  0.4906  0.3084  0.3644
31230SOL    HW1 5669  13.707   2.561   4.550 -0.5883 -1.2067 -0.6124
31230SOL    HW2 5670  13.781   2.438   4.597  0.5824  0.0769  1.0605
31231SOL     OW 5671   4.095  13.313   1.592  0.1924  1.1192 -0.5660
31231SOL    HW1 5672   4.041  13.326   1.669 -1.2251 -0.5039 -1.2258
31231SOL    HW2 5673   4.168  13.259   1.622 -0.2427  0.6669 -0.3245
31232SOL     OW 5674   6.332   6.940   1.647 -0.2201 -0.3472 -1.0252
31232SOL    HW1 5675   6.242   6.916   1.628 -0.8865  0.0633  1.2926
31232SOL    HW2 5676   6.360   6.879   1.715  0.5265  0.8345 -0.2356
31233SOL     OW 5677  11.832  12.694   5.658 -0.0920 -0.0285  0.2312
31233SOL    HW1 5678  11.823  12.675   5.564 -0.2615  0.9243  0.0519
31233SOL    HW2 5679  11.857  12.786   5.662  0.6913 -0.2655  1.1013
31234SOL     OW 5680   0.971   2.071   8.865 -0.0556  0.3523  0.1887
31234SOL    HW1 5681   1.011   2.156   8.850  2.1441 -0.4117  1.1983
31234SOL    HW2 5682   0.885   2.076   8.824  0.0439  3.0168  0.1851
31235SOL     OW 5683  13.109   4.983   2.086 -0.1048  0.5617  0.5117
31235SOL    HW1 5684  13.015   4.982   2.101 -0.0458 -0.7529  0.9814
31235SOL    HW2 5685  13.119   4.952   1.996 -0.1188  0.6113  0.4932
31236SOL     OW 5686  13.618   3.066   6.459 -0.0070 -0.0606 -0.1810
31236SOL    HW1 5687  13.573   3.012   6.394 -1.0283  0.0094  0.4464
31236SOL    HW2 5688  13.625   3.152   6.418 -1.7175  0.3131  0.2062
31237SOL     OW 5689  12.747  13.807   0.858 -0.2481  0.1019 -0.0067
31237SOL    HW1 5690  12.803  13.735   0.887 -1.7955 -2.2002 -2.2005
31237SOL    HW2 5691  12.662  13.787   0.896 -0.6395  0.9214 -0.4317
31238SOL     OW 5692  11.443   3.275   6.113  0.3213 -0.8423  1.2577
31238SOL    HW1 5693  11.509   3.312   6.055 -0.6532  1.9016  1.7739
31238SOL    HW2 5694  11.427   3.187   6.078  0.3359  0.3802 -2.1564
31239SOL     OW 5695   1.721  12.926   1.716 -0.0945 -0.2743  0.0282
31239SOL    HW1 5696   1.747  12.835   1.705 -0.7198 -0.6234  1.2748
31239SOL    HW2 5697   1.769  12.955   1.794 -0.4149  0.2581  0.0330
31240SOL     OW 5698   5.397   1.191  13.255  0.3325 -0.5342  0.1891
31240SOL    HW1 5699   5.398   1.283  13.279 -0.8480 -0.7338  1.1167
31240SOL    HW2 5700   5.311   1.177  13.216 -0.0972 -1.5453  1.4198
31241SOL     OW 5701   0.763   7.000   2.410 -0.0730  0.4523  0.2635
31241SOL    HW1 5702   0.844   7.052   2.403 -0.5697  1.2134 -0.0123
31241SOL    HW2 5703   0.726   7.027   2.494 -0.7781  1.2243 -0.2773
31242SOL     OW 5704  12.131   3.782   9.999 -0.4651 -0.1626  0.3266
31242SOL    HW1 5705  12.176   3.723  10.060 -1.2839  0.0178  1.1219
31242SOL    HW2 5706  12.074   3.725   9.948  0.2782 -0.3245 -0.3425
31243SOL     OW 5707  12.050   7.378   5.359  0.6070 -0.5859 -0.5402
31243SOL    HW1 5708  11.968   7.329   5.359  0.4181 -0.3117  0.6125
31243SOL    HW2 5709  12.029   7.461   5.316 -0.4239  0.5147  1.8967
31244SOL     OW 5710   3.928  13.131   7.208  0.2935 -0.0788  0.3636
31244SOL    HW1 5711   3.857  13.171   7.259 -1.7887  0.3108 -2.6243
31244SOL    HW2 5712   3.992  13.202   7.197  0.4878  0.0068  1.7844
31245SOL     OW 5713  13.392  13.174   7.330 -0.2091 -0.0031  0.2642
31245SOL    HW1 5714  13.451  13.111   7.288 -0.3055  0.1002 -0.0312
31245SOL    HW2 5715  13.441  13.206   7.406  0.3747  0.5419 -0.3178
31246SOL     OW 5716   5.550   4.544   2.176  0.2482  0.2032  0.2033
31246SOL    HW1 5717   5.484   4.613   2.168  0.0714  0.1225  0.9722
31246SOL    HW2 5718   5.547   4.517   2.267  0.6337 -0.5167  0.0116
31247SOL     OW 5719   4.497   9.685   2.975  0.2238  0.3356 -0.2575
31247SOL    HW1 5720   4.547   9.611   3.009  0.4293  0.7627  0.3901
31247SOL    HW2 5721   4.417   9.646   2.941  0.4078 -0.2058 -0.0776
31248SOL     OW 5722   0.579   7.876   1.364 -0.0340 -0.1703  0.3563
31248SOL    HW1 5723   0.609   7.834   1.283 -0.0771  1.8779 -0.7769
31248SOL    HW2 5724   0.581   7.969   1.345 -0.0450  0.3797  2.7533
31249SOL     OW 5725   3.673   6.048   9.816  0.0743 -0.4798  0.2057
31249SOL    HW1 5726   3.608   6.041   9.747 -0.2620 -1.7000  0.6258
31249SOL    HW2 5727   3.645   5.986   9.883  0.8899  0.0131  1.0401
31250SOL     OW 5728   6.350   4.918   2.222 -0.0102  0.5050  0.2733
31250SOL    HW1 5729   6.363   4.878   2.308  1.2272  0.1731 -0.0491
31250SOL    HW2 5730   6.310   5.003   2.241 -0.7299  0.0097  1.0954
31251SOL     OW 5731  13.507   6.759  12.814  0.2941  0.9598  0.6896
31251SOL    HW1 5732  13.494   6.664  12.818 -0.2718  1.0280  0.4757
31251SOL    HW2 5733  13.431   6.795  12.860 -0.0244  1.3459 -0.1392
31252SOL     OW 5734  13.538   8.323   2.870  0.1148 -0.3390  0.1529
31252SOL    HW1 5735  13.523   8.404   2.918 -0.1939 -0.0502 -0.4141
31252SOL    HW2 5736  13.565   8.260   2.936 -0.1925  0.0789  0.6813
31253SOL     OW 5737  10.643   3.858  11.426  0.2101  0.3046 -0.4521
31253SOL    HW1 5738  10.553   3.839  11.399  0.2194  1.7857 -1.6498
31253SOL    HW2 5739  10.651   3.953  11.418  1.8974  0.2001 -0.4101
31254SOL     OW 5740   6.823  13.762  12.347 -0.1949  0.2639  0.3275
31254SOL    HW1 5741   6.774  13.682  12.330  0.4720  0.2767 -2.0458
31254SOL    HW2 5742   6.779  13.803  12.421 -0.6713 -2.1690  1.4627
31255SOL     OW 5743   3.077   0.982   4.964  0.6848 -0.4217 -0.0899
31255SOL    HW1 5744   3.050   0.975   4.873  1.3494 -0.6232 -0.2769
31255SOL    HW2 5745   3.157   0.929   4.970  0.3484 -0.8651  0.7350
31256SOL     OW 5746  10.236   7.237   9.130 -0.4752  0.2387  0.5990
31256SOL    HW1 5747  10.158   7.236   9.076  0.4678 -0.7660 -0.7981
31256SOL    HW2 5748  10.304   7.196   9.077  0.8047  0.2919  2.0927
31257SOL     OW 5749   6.052   1.192  11.227  0.2324 -0.6452  0.3021
31257SOL    HW1 5750   6.031   1.196  11.134  0.5055  0.8515  0.2738
31257SOL    HW2 5751   6.141   1.158  11.230  0.6213  0.3001 -0.0729
31258SOL     OW 5752  12.400   2.179   5.764  1.1059 -0.0484 -0.2746
31258SOL    HW1 5753  12.376   2.264   5.801 -1.4586 -1.1189  0.6980
31258SOL    HW2 5754  12.496   2.182   5.761  1.1613  2.4251  0.7775
31259SOL     OW 5755  12.364   2.348   2.175 -0.1893 -0.7945 -0.0813
31259SOL    HW1 5756  12.343   2.332   2.267 -0.4816 -1.2794 -0.2259
31259SOL    HW2 5757  12.351   2.263   2.133 -0.2557 -0.5279 -0.6070
31260SOL     OW 5758  11.346   9.781   3.679 -0.1489 -0.2952 -0.2738
31260SOL    HW1 5759  11.307   9.861   3.714 -2.4356 -1.4576  0.0409
31260SOL    HW2 5760  11.367   9.803   3.588  0.2543  0.9507  0.0980
31261SOL     OW 5761  11.409   8.391   7.271 -0.3477 -0.0029  0.4771
31261SOL    HW1 5762  11.433   8.328   7.339  2.6522 -0.0618 -0.4919
31261SOL    HW2 5763  11.448   8.473   7.298  0.2217  0.1623 -0.7579
31262SOL     OW 5764   6.341   9.422   1.032 -0.6694  0.3609  0.0506
31262SOL    HW1 5765   6.381   9.337   1.017 -1.0651 -0.3216  2.4420
31262SOL    HW2 5766   6.255   9.417   0.989  0.3629  0.6157 -2.1736
31263SOL     OW 5767   2.102   2.423   2.010 -0.1329 -0.1261  0.2681
31263SOL    HW1 5768   2.066   2.380   2.087 -1.2350 -0.6683 -0.5096
31263SOL    HW2 5769   2.029   2.426   1.948  0.8974 -0.3273 -1.0094
31264SOL     OW 5770   9.688   2.774  11.706 -0.0882  0.3217 -0.6320
31264SOL    HW1 5771   9.632   2.737  11.638  0.9826 -2.1780 -0.2771
31264SOL    HW2 5772   9.685   2.709  11.777  0.3054  1.9491  0.9374
31265SOL     OW 5773   9.003  12.759   5.687 -0.3342 -0.1291  0.2171
31265SOL    HW1 5774   8.941  12.796   5.625 -1.1327  1.1103  1.6934
31265SOL    HW2 5775   8.959  12.681   5.722 -1.3987  1.0616  1.6857
31266SOL     OW 5776  11.017   9.901  12.813  0.0717  0.4492 -0.1168
31266SOL    HW1 5777  10.990   9.814  12.783  0.0799  0.2179  0.5279
31266SOL    HW2 5778  10.955   9.922  12.883 -0.1101  1.0905 -0.4588
31267SOL     OW 5779  10.333   8.413  10.100 -0.0591 -0.0394  0.5071
31267SOL    HW1 5780  10.352   8.334  10.151  0.8210  0.1669  0.5052
31267SOL    HW2 5781  10.273   8.463  10.156 -1.4361 -1.1560  0.0845
31268SOL     OW 5782   4.267  13.504   2.155 -0.4150 -0.2119  0.1870
31268SOL    HW1 5783   4.222  13.561   2.093 -0.3166  2.2365  2.2040
31268SOL    HW2 5784   4.329  13.561   2.199  1.8508 -2.5789  0.3367
31269SOL     OW 5785  10.660   5.041   2.130 -0.1884  0.6158  0.6014
31269SOL    HW1 5786  10.669   5.135   2.112 -1.4983  0.2992 -2.1909
31269SOL    HW2 5787  10.713   4.999   2.063  0.6208 -0.6973  1.9988
31270SOL     OW 5788   8.483  11.938   0.104  0.6387 -0.1109 -0.1038
31270SOL    HW1 5789   8.538  12.016   0.094  1.2090 -0.2545  1.6130
31270SOL    HW2 5790   8.523  11.889   0.177 -0.9140 -0.9487  0.2276
31271SOL     OW 5791  11.369   4.861   2.187  0.1584  0.4702  0.2373
31271SOL    HW1 5792  11.344   4.807   2.262 -0.7053 -0.5359 -0.7423
31271SOL    HW2 5793  11.304   4.930   2.184 -1.3998 -0.9621 -1.0714
31272SOL     OW 5794   6.871   1.966   3.845  0.5021  0.3626 -0.1196
31272SOL    HW1 5795   6.890   1.997   3.756  0.7601  2.2174  0.5272
31272SOL    HW2 5796   6.775   1.960   3.848  0.5479 -1.1522 -0.9439
31273SOL     OW 5797   0.291   7.094   2.669 -0.2807 -0.6865  0.3538
31273SOL    HW1 5798   0.376   7.113   2.630 -0.0721 -1.2697  0.5177
31273SOL    HW2 5799   0.293   7.138   2.754 -0.2223 -0.5311  0.2732
31274SOL     OW 5800  12.344   7.629  12.216 -0.1488 -0.0142  0.4474
31274SOL    HW1 5801  12.417   7.588  12.262  0.2793 -3.3053 -2.6646
31274SOL    HW2 5802  12.266   7.594  12.259  0.2438 -2.1109 -0.3825
31275SOL     OW 5803  10.099   1.515  10.937  0.2526 -0.5022  0.0769
31275SOL    HW1 5804  10.117   1.594  10.887  0.8832  0.4410  1.7232
31275SOL    HW2 5805  10.159   1.450  10.901  0.2243 -0.0520 -0.8127
31276SOL     OW 5806   1.139   3.954   1.351  0.5886 -0.1483  0.8594
31276SOL    HW1 5807   1.207   4.005   1.308 -1.8905  2.3777 -0.4375
31276SOL    HW2 5808   1.092   4.018   1.404 -3.0279 -0.7609 -1.2431
31277SOL     OW 5809  12.177   0.245   9.792 -0.2872  0.1904  0.1282
31277SOL    HW1 5810  12.261   0.279   9.824  0.6461 -1.8912  0.0519
31277SOL    HW2 5811  12.190   0.236   9.697 -0.4546 -0.5036  0.1709
31278SOL     OW 5812  11.393   2.592   5.263 -0.2530 -0.4888 -0.0195
31278SOL    HW1 5813  11.436   2.678   5.264 -1.0952 -0.0590  0.5529
31278SOL    HW2 5814  11.432   2.545   5.336 -1.6675  0.3947  1.3766
31279SOL     OW 5815   6.581  13.016   7.760  0.1666 -0.1227 -0.1204
31279SOL    HW1 5816   6.670  12.997   7.730  1.1337  1.7261  1.3686
31279SOL    HW2 5817   6.591  13.089   7.821 -2.3030 -0.3555  0.6801
31280SOL     OW 5818   0.202   2.104   6.961  0.2481  0.3403  0.6433
31280SOL    HW1 5819   0.202   2.199   6.951  0.9776  0.2471 -0.3173
31280SOL    HW2 5820   0.203   2.090   7.056 -0.2262  1.2802  0.7971
31281SOL     OW 5821   3.555  11.164  10.796  0.2043  0.5474 -0.0223
31281SOL    HW1 5822   3.465  11.174  10.764  0.5648  1.7514 -0.7163
31281SOL    HW2 5823   3.606  11.146  10.717  0.7834  1.3347  0.1677
31282SOL     OW 5824  10.938   7.067  10.139  0.1656  0.0279  0.2931
31282SOL    HW1 5825  11.033   7.077  10.130  0.1232 -0.2086 -0.5609
31282SOL    HW2 5826  10.901   7.134  10.080 -0.2255  0.9097  1.4955
31283SOL     OW 5827   4.940   8.484  10.535 -0.5829 -0.4157  0.1263
31283SOL    HW1 5828   5.022   8.448  10.569 -1.4808 -1.1110  1.6762
31283SOL    HW2 5829   4.939   8.574  10.568  0.0832 -0.0215 -0.8897
31284SOL     OW 5830   3.388   3.538   9.938  0.3382 -0.0446  0.4889
31284SOL    HW1 5831   3.481   3.557   9.927  0.2102 -0.7694 -2.9520
31284SOL    HW2 5832   3.385   3.443   9.952  0.1193 -0.0024  0.7278
31285SOL     OW 5833   7.260  10.076   6.032 -0.0091  0.4887 -0.3929
31285SOL    HW1 5834   7.291   9.991   6.065 -0.5884  0.1699 -0.6672
31285SOL    HW2 5835   7.215  10.116   6.106  1.1289  1.0044  0.0458
31286SOL     OW 5836  10.858   6.551   1.558 -0.9876 -0.1315 -0.2806
31286SOL    HW1 5837  10.831   6.619   1.619 -0.7978  0.2310 -0.5932
31286SOL    HW2 5838  10.865   6.596   1.474 -0.8963 -0.5453 -0.4976
31287SOL     OW 5839  11.945   2.527   5.403 -0.2524  0.0985  0.0312
31287SOL    HW1 5840  11.940   2.525   5.307  1.0356 -1.0593 -0.0302
31287SOL    HW2 5841  12.033   2.497   5.424 -0.9741 -1.0485  1.6409
31288SOL     OW 5842  10.791   4.025  14.020 -0.0929  0.4267 -0.1203
31288SOL    HW1 5843  10.801   4.051  13.929  0.0083 -0.6764 -0.4267
31288SOL    HW2 5844  10.709   4.067  14.048  0.4196  1.6400 -0.3877
31289SOL     OW 5845   7.957   0.413   9.072  0.2109 -0.3934 -0.4099
31289SOL    HW1 5846   7.960   0.490   9.129  1.9703  0.7002 -1.8441
31289SOL    HW2 5847   7.892   0.356   9.111  0.0094  1.1246  1.6151
31290SOL     OW 5848  11.150   3.861   1.182  0.1905 -0.5130  0.6944
31290SOL    HW1 5849  11.184   3.775   1.157  2.1533  0.2151  0.7537
31290SOL    HW2 5850  11.218   3.923   1.157 -0.1102  0.8082  2.8350
31291SOL     OW 5851  12.543  11.877   7.463 -0.0929  0.1893 -0.3613
31291SOL    HW1 5852  12.601  11.952   7.453 -1.7509  1.4276 -1.2351
31291SOL    HW2 5853  12.514  11.880   7.554 -0.9744  1.2994 -0.6502
31292SOL     OW 5854  12.293   9.141   3.613  0.3964  0.3465  0.6229
31292SOL    HW1 5855  12.370   9.193   3.589  1.0867 -0.2887  1.4163
31292SOL    HW2 5856  12.229   9.206   3.641  0.3021  0.9534 -0.8701
31293SOL     OW 5857  10.839   0.250  11.951 -0.0741 -0.1302 -0.3153
31293SOL    HW1 5858  10.841   0.275  12.043  1.6952 -0.6353 -0.1908
31293SOL    HW2 5859  10.831   0.332  11.904 -0.5984  0.1615  0.2690
31294SOL     OW 5860   2.944   3.502   2.082  0.7512  0.5364  0.4994
31294SOL    HW1 5861   2.874   3.439   2.097 -0.6654  1.7115 -0.9104
31294SOL    HW2 5862   2.992   3.467   2.007  0.2135  0.9123 -0.0264
31295SOL     OW 5863   8.573  11.803  13.301 -0.0768 -0.6925  0.2689
31295SOL    HW1 5864   8.544  11.769  13.216  1.8625  0.8106 -1.1109
31295SOL    HW2 5865   8.518  11.880  13.316  0.2437 -0.3772 -0.1482
31296SOL     OW 5866   9.775  13.046   6.619  0.2074 -0.3636  0.0379
31296SOL    HW1 5867   9.822  13.085   6.693 -1.3247  0.0551  0.8358
31296SOL    HW2 5868   9.786  13.108   6.547 -1.6133  1.2636  1.0874
31297SOL     OW 5869   8.541   5.810   1.477  0.2003  0.0265 -0.5651
31297SOL    HW1 5870   8.527   5.720   1.446 -0.6555 -0.6218  1.4991
31297SOL    HW2 5871   8.616   5.804   1.535  1.2835  1.0613 -1.7808
31298SOL     OW 5872  12.792   1.467   2.778 -0.3381  0.4073 -0.5472
31298SOL    HW1 5873  12.777   1.373   2.767  0.2669  0.3958 -1.3584
31298SOL    HW2 5874  12.837   1.494   2.698  1.0502  1.0408  0.3951
31299SOL     OW 5875   0.141  10.384  10.174  0.1700 -0.2584 -0.5208
31299SOL    HW1 5876   0.191  10.413  10.098  0.1075  1.1471 -0.0609
31299SOL    HW2 5877   0.049  10.391  10.147  0.1678 -0.5855 -0.5982
31300SOL     OW 5878  13.264  10.760   5.943  0.5161  0.5644  0.2873
31300SOL    HW1 5879  13.213  10.682   5.963  1.8670  0.0257  1.8285
31300SOL    HW2 5880  13.268  10.763   5.848 -0.3987 -0.6697  0.1898
31301SOL     OW 5881   2.232  11.999  10.800  0.3488 -0.2969 -0.2186
31301SOL    HW1 5882   2.204  12.077  10.848  1.1204 -0.4032  0.4354
31301SOL    HW2 5883   2.227  12.024  10.708  0.4925  0.4961 -0.0176
31302SOL     OW 5884   2.432   1.918   3.093 -0.8611 -0.5443 -0.7234
31302SOL    HW1 5885   2.475   1.833   3.088  2.1716  0.8215 -0.1583
31302SOL    HW2 5886   2.433   1.950   3.003  0.8514  0.1274 -0.4959
31303SOL     OW 5887  11.841   5.444   7.832  0.0329 -0.5621 -0.2462
31303SOL    HW1 5888  11.931   5.435   7.800 -0.1380  1.2720 -1.3929
31303SOL    HW2 5889  11.847   5.500   7.909 -0.1514 -0.2018 -0.4916
31304SOL     OW 5890   4.567   6.448   6.764  0.2286  0.3702  0.1434
31304SOL    HW1 5891   4.538   6.369   6.719  1.0594 -0.2293  0.6453
31304SOL    HW2 5892   4.662   6.444   6.762  0.2777  1.0033  0.7901
31305SOL     OW 5893   9.791   5.459  12.841 -0.1772 -0.4182  0.2398
31305SOL    HW1 5894   9.699   5.474  12.818  0.1383 -0.8727 -1.4532
31305SOL    HW2 5895   9.814   5.533  12.898 -1.3670  0.1187  0.0531
31306SOL     OW 5896   9.900  12.025   7.138  0.3068 -0.2506 -0.0112
31306SOL    HW1 5897   9.809  12.004   7.158  0.4285  0.3119  1.2674
31306SOL    HW2 5898   9.950  11.950   7.171  0.3342 -0.3775 -0.3411
31307SOL     OW 5899   8.067   0.178   8.747  0.1549  0.8593  0.0672
31307SOL    HW1 5900   8.044   0.268   8.771 -1.5746  0.4661  0.0298
31307SOL    HW2 5901   8.105   0.186   8.659 -1.0140  1.4599 -0.4130
31308SOL     OW 5902  10.790   4.516   3.867  0.4764 -0.3334 -0.2226
31308SOL    HW1 5903  10.868   4.535   3.920  0.0742  0.5309  0.0659
31308SOL    HW2 5904  10.763   4.601   3.832 -1.0381 -0.4225  0.6570
31309SOL     OW 5905  12.791   7.991  10.501 -0.1536 -0.7233 -0.1420
31309SOL    HW1 5906  12.871   8.005  10.552  0.4787 -1.6010 -0.8581
31309SOL    HW2 5907  12.794   7.899  10.477 -0.9642 -0.5671 -0.8746
31310SOL     OW 5908   7.231   6.627  13.075 -0.6950 -0.1514  0.8928
31310SOL    HW1 5909   7.322   6.625  13.104 -0.8140  0.2551  1.3119
31310SOL    HW2 5910   7.220   6.713  13.034 -0.7680 -0.3753  0.4433
31311SOL     OW 5911   0.589   3.750   9.697  0.5606  0.2053  0.0527
31311SOL    HW1 5912   0.684   3.736   9.694  0.9628  2.5449  0.1825
31311SOL    HW2 5913   0.573   3.783   9.785 -0.6766 -1.7879  0.6216
31312SOL     OW 5914   1.274   0.751  10.055  0.3420  0.3826  0.4507
31312SOL    HW1 5915   1.293   0.663  10.025 -0.4056 -0.1947  1.6159
31312SOL    HW2 5916   1.183   0.748  10.084  0.7757  1.1123  1.9772
31313SOL     OW 5917  11.114   2.637  11.438  1.0264  0.7212  0.0114
31313SOL    HW1 5918  11.109   2.732  11.436  0.0024  0.6680 -1.4770
31313SOL    HW2 5919  11.088   2.610  11.350  2.2064 -0.9042  0.1218
31314SOL     OW 5920   5.232  11.664  11.356 -0.1143  0.3602  0.5471
31314SOL    HW1 5921   5.201  11.603  11.289  0.3807  0.7858 -0.0920
31314SOL    HW2 5922   5.314  11.626  11.388 -1.3265 -0.8414  2.3431
31315SOL     OW 5923   2.564   7.425   0.889  0.3396  0.7160 -0.1665
31315SOL    HW1 5924   2.598   7.386   0.970 -0.4799 -0.1836 -0.2347
31315SOL    HW2 5925   2.621   7.500   0.873  2.4815 -0.8732 -0.4156
31316SOL     OW 5926  11.367   9.636   7.362 -0.3044 -0.0926  0.5594
31316SOL    HW1 5927  11.281   9.658   7.399 -0.1906  0.3254  0.5888
31316SOL    HW2 5928  11.348   9.595   7.278 -0.5084  2.6669 -0.8836
31317SOL     OW 5929   9.113   1.997  10.027 -0.1782 -0.3066 -0.5539
31317SOL    HW1 5930   9.075   1.909  10.029 -1.3927  0.2232  0.6726
31317SOL    HW2 5931   9.065   2.043   9.959 -0.5826 -0.1534 -0.1708
31318SOL     OW 5932  10.431   8.310   9.466  0.2949  0.7983 -0.2430
31318SOL    HW1 5933  10.343   8.328   9.434 -0.2076 -0.2781  0.4468
31318SOL    HW2 5934  10.482   8.289   9.388  0.2409  2.4821 -0.7630
31319SOL     OW 5935  12.504  11.339   1.112 -0.4540 -0.2109 -0.1751
31319SOL    HW1 5936  12.550  11.268   1.158 -0.0940 -0.6055 -1.1219
31319SOL    HW2 5937  12.411  11.319   1.124 -0.3851  0.1781  1.1213
31320SOL     OW 5938  13.428   3.163   3.326  0.0250  0.4047 -0.1502
31320SOL    HW1 5939  13.438   3.081   3.375  0.9448  1.0866  0.8538
31320SOL    HW2 5940  13.511   3.173   3.279 -0.0716  0.7634 -0.2485
31321SOL     OW 5941  11.996  10.490   0.105 -0.4033 -0.4689  0.1483
31321SOL    HW1 5942  12.044  10.461   0.028 -1.0156 -0.8272 -0.1055
31321SOL    HW2 5943  11.948  10.413   0.134 -1.2590  0.0176  0.0683
31322SOL     OW 5944   8.280   5.975   8.745 -0.1223  0.4270  0.0703
31322SOL    HW1 5945   8.316   5.895   8.785  0.8009  1.9011  2.3861
31322SOL    HW2 5946   8.232   5.943   8.668  0.4102 -2.3228  0.7490
31323SOL     OW 5947   0.817  13.843  10.697 -0.1914  0.0448  0.3093
31323SOL    HW1 5948   0.825  13.804  10.784 -0.2413  0.1761  0.3734
31323SOL    HW2 5949   0.901  13.887  10.683  0.6407 -1.7159 -0.5812
31324SOL     OW 5950   7.543   8.787  10.072  0.1854 -0.0702  0.2820
31324SOL    HW1 5951   7.478   8.789  10.142 -2.3293  2.2088 -1.9303
31324SOL    HW2 5952   7.538   8.698  10.037 -2.3434  0.2016 -0.2503
31325SOL     OW 5953  12.124   1.330   1.659  0.0595 -0.3555  0.1748
31325SOL    HW1 5954  12.057   1.367   1.716 -0.6035  0.5694 -1.1477
31325SOL    HW2 5955  12.075   1.297   1.584  1.0347 -0.1239 -0.5806
31326SOL     OW 5956  11.546   9.945  12.837 -0.1897  0.0616  0.2419
31326SOL    HW1 5957  11.545   9.992  12.754 -1.7170 -1.4630 -0.6667
31326SOL    HW2 5958  11.473   9.982  12.887  1.9472  2.4305  1.8731
31327SOL     OW 5959   3.374   1.924   5.902 -0.2201  0.0277  0.1795
31327SOL    HW1 5960   3.451   1.884   5.862 -1.1906 -1.8638  0.0688
31327SOL    HW2 5961   3.355   2.001   5.848 -1.0125 -1.9774 -2.6150
31328SOL     OW 5962  10.092   0.851   6.036 -0.7024  0.0819 -0.0415
31328SOL    HW1 5963  10.037   0.894   6.102 -1.6365 -2.5919  1.0633
31328SOL    HW2 5964  10.159   0.805   6.087 -1.0517 -1.5160 -0.9547
31329SOL     OW 5965  11.872   8.053   4.599 -0.2598  0.0613  0.2363
31329SOL    HW1 5966  11.869   7.958   4.613  1.2753  0.0019  0.4297
31329SOL    HW2 5967  11.799   8.088   4.650 -2.1585 -1.1528 -1.4897
31330SOL     OW 5968  10.839  13.152   7.697 -0.3171  0.1071  0.4332
31330SOL    HW1 5969  10.838  13.233   7.647  0.7540  0.6846  1.3072
31330SOL    HW2 5970  10.848  13.083   7.630 -2.5514  0.5597 -0.4243
31331SOL     OW 5971   3.804  12.074  13.948  0.5009  0.1127  0.0170
31331SOL    HW1 5972   3.737  12.037  13.891 -0.1460  1.5996 -0.2098
31331SOL    HW2 5973   3.823  12.004  14.011 -1.8742 -0.0599  0.6181
31332SOL     OW 5974   8.618  12.823   3.654  0.6930  0.1623 -0.1937
31332SOL    HW1 5975   8.674  12.877   3.709  0.5166  0.3951 -0.2374
31332SOL    HW2 5976   8.592  12.750   3.710 -0.1652  0.8332  0.3066
31333SOL     OW 5977   5.862   7.554   2.741 -0.4821 -0.2424 -0.1467
31333SOL    HW1 5978   5.928   7.492   2.709 -1.6898 -0.7845 -1.7687
31333SOL    HW2 5979   5.846   7.612   2.667  0.5296  2.0124  1.3061
31334SOL     OW 5980   8.212  13.159   1.291 -0.0854  0.0480  0.4606
31334SOL    HW1 5981   8.275  13.227   1.313 -1.3228  2.2592 -2.2815
31334SOL    HW2 5982   8.141  13.171   1.355  0.0566  0.8197  0.4823
31335SOL     OW 5983   9.438  10.460   9.288 -0.0413 -0.5187  0.3754
31335SOL    HW1 5984   9.470  10.383   9.335  1.1571 -1.7497 -2.2004
31335SOL    HW2 5985   9.507  10.477   9.223 -1.2514  1.4678 -0.4563
31336SOL     OW 5986   7.417   8.406   2.072  0.3189  0.1264 -0.0554
31336SOL    HW1 5987   7.352   8.341   2.046 -0.7946  0.0581  2.5742
31336SOL    HW2 5988   7.495   8.383   2.023 -0.6565 -1.9213 -0.7555
31337SOL     OW 5989  11.391  10.284   0.931 -0.0197  0.5940 -0.4514
31337SOL    HW1 5990  11.378  10.190   0.940  0.4773  0.7190  2.4514
31337SOL    HW2 5991  11.483  10.298   0.953 -1.0066  2.0735  3.6246
31338SOL     OW 5992   3.718   2.229  13.596  0.0628  0.0495  0.1009
31338SOL    HW1 5993   3.653   2.170  13.635 -0.2828 -0.1681 -0.7607
31338SOL    HW2 5994   3.792   2.228  13.657 -0.0472 -1.0748  0.2346
31339SOL     OW 5995  13.692   0.884   7.041 -0.3752  0.2356  0.5128
31339SOL    HW1 5996  13.786   0.902   7.036 -0.7280  2.0891 -0.4332
31339SOL    HW2 5997  13.686   0.789   7.048  1.5832  0.1400  1.4982
31340SOL     OW 5998   8.593   5.852   9.049 -0.6080 -0.2610  0.0731
31340SOL    HW1 5999   8.574   5.805   9.130  1.9485  0.4248  1.1557
31340SOL    HW2 6000   8.675   5.815   9.018 -0.9678  0.2635 -1.6251
31341SOL     OW 6001  12.101   7.434   9.747 -0.2266  0.8418  0.3078
31341SOL    HW1 6002  12.135   7.510   9.700  1.1714 -0.6212 -1.1886
31341SOL    HW2 6003  12.114   7.454   9.839  1.0155  2.0161 -0.0971
31342SOL     OW 6004   8.867  12.997   0.691 -0.4258  0.1020 -0.3747
31342SOL    HW1 6005   8.799  12.973   0.753 -0.8631  2.7016  0.2830
31342SOL    HW2 6006   8.823  13.004   0.607 -0.7323  0.6203 -0.1733
31343SOL     OW 6007   9.972  11.340   1.080  0.1405  0.0878 -0.3214
31343SOL    HW1 6008   9.904  11.399   1.113  0.1723 -0.6143  1.0335
31343SOL    HW2 6009  10.034  11.331   1.152  1.9924  1.1025 -1.6699
31344SOL     OW 6010   5.329  11.388   2.879 -0.8755  0.4712  0.5191
31344SOL    HW1 6011   5.268  11.386   2.806  0.1324  1.1990 -0.3810
31344SOL    HW2 6012   5.392  11.457   2.856  0.6594 -0.6817  1.0686
31345SOL     OW 6013   8.041   6.856  10.464  0.6831  0.0589 -0.7260
31345SOL    HW1 6014   8.058   6.915  10.538  2.1200 -0.4845 -0.5796
31345SOL    HW2 6015   8.040   6.913  10.387  1.6504  0.3585 -0.5359
31346SOL     OW 6016   5.362   6.358   8.594 -0.1465 -0.1701  0.1912
31346SOL    HW1 6017   5.436   6.359   8.653  0.5977 -2.0589 -0.6190
31346SOL    HW2 6018   5.288   6.390   8.646  0.7945 -0.3166  1.6476
31347SOL     OW 6019   1.390   5.549   7.592  0.0868  0.0217  0.1605
31347SOL    HW1 6020   1.313   5.528   7.540 -1.3855 -2.4507  3.0150
31347SOL    HW2 6021   1.462   5.503   7.547 -0.1109  1.8355 -2.1779
31348SOL     OW 6022   6.129   0.343   4.948 -0.2370 -0.0373  0.1547
31348SOL    HW1 6023   6.034   0.339   4.941 -0.2010 -1.8321  0.1797
31348SOL    HW2 6024   6.148   0.435   4.968 -2.0709  0.0824  1.6149
31349SOL     OW 6025  11.782   3.315  12.102 -0.6057 -0.0531  0.2392
31349SOL    HW1 6026  11.758   3.250  12.167  0.6073 -0.7192  0.0387
31349SOL    HW2 6027  11.704   3.371  12.095 -1.0390 -0.4198  1.6801
31350SOL     OW 6028   0.152   6.390  11.965  0.1243  0.3460 -0.1880
31350SOL    HW1 6029   0.219   6.432  11.912  0.7759 -1.1846 -0.6344
31350SOL    HW2 6030   0.199   6.328  12.019 -0.6906  0.9318  1.2517
31351SOL     OW 6031  10.679  12.745   3.256  0.1662  0.2692  0.4260
31351SOL    HW1 6032  10.671  12.772   3.348  0.6942  0.4475  0.4202
31351SOL    HW2 6033  10.708  12.824   3.210  0.7857 -0.0563  0.2544
31352SOL     OW 6034   0.559  11.317  13.305  0.2293  0.4909 -0.1324
31352SOL    HW1 6035   0.601  11.236  13.335 -0.1496  0.1590 -0.4887
31352SOL    HW2 6036   0.467  11.294  13.297  0.3442  0.4895 -1.7803
31353SOL     OW 6037   9.531   8.768  10.136 -0.4154 -0.2016  0.3039
31353SOL    HW1 6038   9.438   8.763  10.157 -0.6259  1.2764 -0.1641
31353SOL    HW2 6039   9.569   8.821  10.206 -0.5679  2.0874 -1.2493
31354SOL     OW 6040  12.917   4.352   5.247 -0.2800  0.1770  0.4211
31354SOL    HW1 6041  12.943   4.339   5.156  0.3388 -0.3373  0.6643
31354SOL    HW2 6042  12.833   4.306   5.255 -0.2522  0.0818  0.1537
31355SOL     OW 6043   9.042  12.676   6.693 -0.2630 -0.0926  0.1678
31355SOL    HW1 6044   8.973  12.629   6.740 -1.2013  1.2975  0.2224
31355SOL    HW2 6045   9.120  12.621   6.704 -1.6966 -2.6939 -1.4720
31356SOL     OW 6046   3.836  13.603   3.229 -0.0737 -0.6940 -0.2054
31356SOL    HW1 6047   3.827  13.679   3.286  2.0246 -0.6153  0.1277
31356SOL    HW2 6048   3.887  13.635   3.154  0.9365 -1.7551 -0.0130
31357SOL     OW 6049   8.679  13.671   0.851 -0.2046  0.0249  0.1532
31357SOL    HW1 6050   8.639  13.691   0.766 -1.2611  0.8837  0.8164
31357SOL    HW2 6051   8.613  13.617   0.896 -1.6057  2.9529  1.9777
31358SOL     OW 6052  12.898  11.238   8.806  0.0746  0.3057 -0.4113
31358SOL    HW1 6053  12.865  11.303   8.868 -2.8961 -1.5150  0.0632
31358SOL    HW2 6054  12.873  11.153   8.843  2.4515 -1.1300 -1.7773
31359SOL     OW 6055   1.277   2.870   5.755 -0.1669  0.2709 -0.2393
31359SOL    HW1 6056   1.322   2.950   5.782 -0.0197  0.1673 -0.1785
31359SOL    HW2 6057   1.341   2.800   5.767  0.0571  0.2752 -1.2931
31360SOL     OW 6058   6.581  10.831   0.114  0.1491 -0.1379 -0.0929
31360SOL    HW1 6059   6.592  10.790   0.200  1.8723 -1.8469 -1.0332
31360SOL    HW2 6060   6.670  10.834   0.078 -0.2323  2.4377 -1.0366
31361SOL     OW 6061   0.356   2.300   8.618  0.2410  0.0623 -0.4843
31361SOL    HW1 6062   0.443   2.267   8.594  0.3940 -0.2214  0.4515
31361SOL    HW2 6063   0.296   2.233   8.585  0.4744 -0.5043  0.2065
31362SOL     OW 6064   8.447   1.998  13.076 -0.1500 -0.0077 -0.1716
31362SOL    HW1 6065   8.533   1.990  13.034 -0.6057 -1.5625 -0.8991
31362SOL    HW2 6066   8.385   1.999  13.004 -0.8285 -0.4980  0.3929
31363SOL     OW 6067  10.094  11.673   2.114 -0.7828  0.1643  0.4084
31363SOL    HW1 6068  10.056  11.645   2.031  0.6059  1.5338 -0.7498
31363SOL    HW2 6069  10.113  11.766   2.101 -1.9610  0.8176  2.8247
31364SOL     OW 6070  13.687   5.712   2.419 -0.0391 -0.0314  0.9443
31364SOL    HW1 6071  13.732   5.757   2.491 -1.8681  1.3130  1.3192
31364SOL    HW2 6072  13.623   5.776   2.388 -2.0639 -2.0065  0.8066
31365SOL     OW 6073   7.976   4.735  11.040  0.3778 -0.2690  0.3339
31365SOL    HW1 6074   7.954   4.646  11.069  0.6102  0.7290  4.0657
31365SOL    HW2 6075   7.896   4.785  11.055  0.3252  0.2542 -1.5125
31366SOL     OW 6076   5.167   2.439   8.404  0.2005 -0.1861 -0.3252
31366SOL    HW1 6077   5.080   2.411   8.376 -0.3010  0.4526  0.5471
31366SOL    HW2 6078   5.164   2.534   8.401 -0.8345  0.1501  4.3200
31367SOL     OW 6079  13.061   2.649  12.934 -0.3399 -0.9463  0.1222
31367SOL    HW1 6080  12.973   2.616  12.956 -0.8356  0.0466 -0.3183
31367SOL    HW2 6081  13.095   2.683  13.017 -1.1178  0.3168 -0.0509
31368SOL     OW 6082   8.942   6.707  13.393  0.2876  0.1637 -0.2574
31368SOL    HW1 6083   8.949   6.758  13.312  1.0141  0.7764  0.1792
31368SOL    HW2 6084   8.848   6.691  13.402  0.3700 -1.9468 -2.4252
31369SOL     OW 6085   0.027   4.587   4.079 -0.5387  0.0617 -0.1199
31369SOL    HW1 6086  -0.026   4.508   4.064 -1.6994  0.5796  1.0537
31369SOL    HW2 6087   0.010   4.610   4.170 -0.1994  1.6446 -0.4315
31370SOL     OW 6088   1.356   2.352  12.410  0.0101  0.5377 -0.5713
31370SOL    HW1 6089   1.334   2.260  12.415 -1.0496  0.8400  0.6906
31370SOL    HW2 6090   1.428   2.356  12.346 -0.6756 -0.9980 -1.4820
31371SOL     OW 6091   5.600   0.157  12.902  0.3777  0.2462  0.0113
31371SOL    HW1 6092   5.583   0.064  12.885 -0.7783  0.4276  0.0617
31371SOL    HW2 6093   5.693   0.168  12.884  0.7250 -1.0960  0.8411
31372SOL     OW 6094   0.377   7.205   4.653  0.2127 -0.6213  0.2976
31372SOL    HW1 6095   0.445   7.230   4.590 -0.2834 -0.8693 -0.3469
31372SOL    HW2 6096   0.298   7.248   4.622  0.2084  0.2731  1.4627
31373SOL     OW 6097   2.867   7.631   8.044 -0.0884 -0.2288 -0.4249
31373SOL    HW1 6098   2.917   7.692   7.989  1.7485 -1.9964 -0.8167
31373SOL    HW2 6099   2.896   7.544   8.016 -0.4889 -1.2296  2.0475
31374SOL     OW 6100   1.949   8.726   7.481  0.3156 -0.3375 -0.4462
31374SOL    HW1 6101   1.880   8.752   7.543 -0.0906  0.5415 -1.2255
31374SOL    HW2 6102   1.934   8.633   7.467 -0.0517 -0.3873  0.2071
31375SOL     OW 6103   7.123   9.007   3.430 -0.0742 -1.1531  0.0400
31375SOL    HW1 6104   7.073   8.942   3.381  0.1163  0.3276 -2.2719
31375SOL    HW2 6105   7.207   8.966   3.447  0.3902 -1.2503 -2.2191
31376SOL     OW 6106  11.484  12.903  11.921  0.4470  0.5488  0.1281
31376SOL    HW1 6107  11.526  12.840  11.862  0.9308 -0.9352  1.9561
31376SOL    HW2 6108  11.391  12.881  11.919  0.7022 -0.7535  1.2931
31377SOL     OW 6109   3.983   8.925   9.541 -0.1287  0.1662 -0.0363
31377SOL    HW1 6110   3.964   8.832   9.535 -1.4668  0.4482 -0.4560
31377SOL    HW2 6111   4.016   8.937   9.631 -0.1081 -0.6738  0.0748
31378SOL     OW 6112   9.333   1.574   5.104 -0.1158 -0.7008 -0.3657
31378SOL    HW1 6113   9.308   1.494   5.057  0.8538 -0.8440 -0.6627
31378SOL    HW2 6114   9.310   1.556   5.196 -2.1694 -0.3568 -0.7739
31379SOL     OW 6115  11.051   6.009  11.039 -0.1837 -0.3704 -0.1437
31379SOL    HW1 6116  11.128   6.066  11.045 -0.0156 -0.6866  0.8944
31379SOL    HW2 6117  11.083   5.930  10.995  1.0512 -1.9870  3.2991
31380SOL     OW 6118   6.749   2.707   3.690 -0.0696  0.1961 -0.3128
31380SOL    HW1 6119   6.690   2.631   3.691 -1.4911  1.2426 -0.7390
31380SOL    HW2 6120   6.828   2.677   3.735  0.0307 -2.0068 -1.7927
31381SOL     OW 6121   6.976   8.026  13.264 -0.0776  0.1966 -0.2732
31381SOL    HW1 6122   7.009   7.955  13.209 -0.8908  1.0509 -1.9645
31381SOL    HW2 6123   7.033   8.100  13.244  1.0250 -0.0469  1.7862
31382SOL     OW 6124  11.550   9.934  12.263  0.0869  0.5107  0.0544
31382SOL    HW1 6125  11.587   9.847  12.278 -1.1082 -0.0724 -0.2137
31382SOL    HW2 6126  11.593   9.965  12.183  1.4922  0.7564  0.8708
31383SOL     OW 6127   3.135   0.425   7.371 -0.0017  0.6127 -0.6441
31383SOL    HW1 6128   3.142   0.337   7.336 -1.7403  1.0428 -2.2027
31383SOL    HW2 6129   3.126   0.481   7.294 -0.8443  1.9380  0.3796
31384SOL     OW 6130   2.630   9.907   0.185 -0.0037 -0.1873  0.4257
31384SOL    HW1 6131   2.622   9.951   0.100  2.3168 -1.3008 -0.4797
31384SOL    HW2 6132   2.628   9.814   0.164  4.1260 -0.6151  0.9200
31385SOL     OW 6133   2.115   8.450  11.618  0.6100 -0.5805 -0.0829
31385SOL    HW1 6134   2.099   8.397  11.697 -0.8169  0.8062  0.6149
31385SOL    HW2 6135   2.031   8.449  11.572  0.6429  0.8073 -0.2009
31386SOL     OW 6136   7.445   7.127   6.406 -0.1581  0.1163 -0.2392
31386SOL    HW1 6137   7.375   7.063   6.421 -0.8901  0.5353 -1.6956
31386SOL    HW2 6138   7.478   7.106   6.319  2.7941 -1.1851  1.0334
31387SOL     OW 6139   6.664   0.458   3.265 -0.2724 -0.0937  0.3083
31387SOL    HW1 6140   6.759   0.468   3.277 -0.1678  0.7510 -0.9925
31387SOL    HW2 6141   6.631   0.547   3.258 -0.5907 -0.3433 -2.9946
31388SOL     OW 6142  11.578   4.592  13.920  0.0458 -0.3829  0.5416
31388SOL    HW1 6143  11.562   4.499  13.931 -0.3886 -0.2963  0.6579
31388SOL    HW2 6144  11.647   4.598  13.853 -0.0384 -0.7766  0.4224
31389SOL     OW 6145   8.102   1.531   6.728  0.2337 -0.6115  0.1808
31389SOL    HW1 6146   8.047   1.598   6.769 -0.0979  0.6755 -2.1321
31389SOL    HW2 6147   8.045   1.490   6.663  1.2457 -1.1812 -0.3683
31390SOL     OW 6148  11.406   9.665  10.646 -0.0993  0.0506 -0.5353
31390SOL    HW1 6149  11.360   9.625  10.720 -1.6726  0.6378 -1.1478
31390SOL    HW2 6150  11.380   9.757  10.648  2.0889  0.7031 -0.1716
31391SOL     OW 6151  10.738  10.947   6.189  0.0764  0.1952 -0.5965
31391SOL    HW1 6152  10.695  11.016   6.139 -0.6100 -1.2201 -2.0601
31391SOL    HW2 6153  10.683  10.935   6.266 -0.4934  0.4443 -0.9576
31392SOL     OW 6154   3.109   8.838  11.965 -0.5502  0.2472  0.2310
31392SOL    HW1 6155   3.041   8.871  11.906  0.5771  1.1777 -0.6124
31392SOL    HW2 6156   3.115   8.745  11.945 -0.7092  0.4041 -0.5973
31393SOL     OW 6157   3.899   6.632   5.728  0.2352  0.4217  0.8542
31393SOL    HW1 6158   3.947   6.563   5.682 -0.9635  0.4554 -0.5020
31393SOL    HW2 6159   3.836   6.584   5.783 -1.4154  0.3544 -0.9679
31394SOL     OW 6160  10.183   4.450  13.690  0.2023  0.4703  0.0342
31394SOL    HW1 6161  10.146   4.418  13.608 -0.2871  2.5890 -0.6306
31394SOL    HW2 6162  10.108   4.461  13.748  0.6525 -2.0277  1.2042
31395SOL     OW 6163   1.142   7.806   2.920 -0.0359 -0.1926 -0.3026
31395SOL    HW1 6164   1.234   7.829   2.906 -0.1234  0.3435 -0.0100
31395SOL    HW2 6165   1.131   7.722   2.874  0.7047 -0.4732  0.0190
31396SOL     OW 6166   0.710   9.287  12.108 -0.5210 -0.4581 -0.5500
31396SOL    HW1 6167   0.686   9.327  12.192 -0.9231 -1.4685 -0.1653
31396SOL    HW2 6168   0.632   9.297  12.054 -0.7048 -0.9019 -0.3758
31397SOL     OW 6169  10.027   2.854   4.005 -0.1138  0.6791  0.7801
31397SOL    HW1 6170  10.016   2.909   3.927  1.2607  1.6205  1.2198
31397SOL    HW2 6171  10.049   2.915   4.075 -0.6000 -0.2334  1.7567
31398SOL     OW 6172  12.203   2.354   6.328 -0.0205  0.0363 -0.2848
31398SOL    HW1 6173  12.110   2.362   6.350  0.3960 -0.6575  1.9585
31398SOL    HW2 6174  12.229   2.443   6.304 -1.1913  0.2861 -0.7065
31399SOL     OW 6175   5.707   0.750   0.785  0.1577  0.1584  0.2204
31399SOL    HW1 6176   5.801   0.737   0.775  0.3767  0.5036  1.6713
31399SOL    HW2 6177   5.698   0.825   0.844 -0.9743 -1.2515  1.9522
31400SOL     OW 6178   6.531   1.420   9.630 -0.2004 -0.0660  0.0418
31400SOL    HW1 6179   6.547   1.334   9.590  0.7265  0.0356  0.1625
31400SOL    HW2 6180   6.436   1.429   9.631 -0.2840 -0.1208 -2.0448
31401SOL     OW 6181  10.885  12.168   7.990  0.2094 -0.0036  0.2842
31401SOL    HW1 6182  10.890  12.245   7.933 -2.1158 -0.1812 -0.2435
31401SOL    HW2 6183  10.852  12.201   8.073  0.7653 -0.1966  0.5860
31402SOL     OW 6184   6.812   9.588   4.949 -0.4583 -0.0627 -0.4073
31402SOL    HW1 6185   6.798   9.682   4.937 -1.6768 -0.3205 -1.1798
31402SOL    HW2 6186   6.852   9.559   4.868  1.6419  0.0561  0.5028
31403SOL     OW 6187   8.962   9.522   8.837  0.2968  0.2869 -0.5077
31403SOL    HW1 6188   8.882   9.482   8.871  0.1550  0.6914 -0.3625
31403SOL    HW2 6189   9.033   9.478   8.885  0.0790  1.2567  0.7724
31404SOL     OW 6190   0.038   0.326   5.896  0.3882  0.3111 -0.2599
31404SOL    HW1 6191  -0.032   0.285   5.846  1.1455 -1.1287 -0.2126
31404SOL    HW2 6192  -0.005   0.360   5.975 -0.4259  0.4990 -0.7757
31405SOL     OW 6193   3.118   4.918   2.209 -0.0879 -0.2151 -0.1430
31405SOL    HW1 6194   3.183   4.850   2.225  0.7474  0.8964  1.4620
31405SOL    HW2 6195   3.154   4.969   2.137  0.4197 -0.1143  0.1762
31406SOL     OW 6196   9.891   5.673  12.955  0.3909  0.1944  0.2927
31406SOL    HW1 6197   9.881   5.692  13.049  0.4047 -1.2110  0.6038
31406SOL    HW2 6198   9.900   5.759  12.914  1.9805  0.7776  1.7572
31407SOL     OW 6199  10.048   2.839   6.682 -0.5297  0.0478 -0.1325
31407SOL    HW1 6200   9.980   2.798   6.629 -1.7576  1.0683  0.5859
31407SOL    HW2 6201  10.061   2.778   6.755 -2.2280  0.7782  0.8476
31408SOL     OW 6202   7.326  12.575  10.479 -0.2397 -0.1657  0.3791
31408SOL    HW1 6203   7.293  12.659  10.448  2.9125  0.7468 -0.8628
31408SOL    HW2 6204   7.279  12.510  10.427 -0.5722  0.9907 -0.8150
31409SOL     OW 6205   5.210  10.978  11.535  0.0500 -0.0282 -0.1495
31409SOL    HW1 6206   5.115  10.965  11.542 -0.0521 -0.2991 -1.6542
31409SOL    HW2 6207   5.248  10.903  11.581 -0.4534  0.1391  0.5553
31410SOL     OW 6208   6.799   4.266   4.935 -0.0014  0.7743  0.1406
31410SOL    HW1 6209   6.715   4.224   4.953 -0.3812  0.7296 -1.5441
31410SOL    HW2 6210   6.776   4.353   4.904  0.6064  0.9957  0.3020
31411SOL     OW 6211   4.588   3.844   6.613 -0.1367 -0.6517  0.5303
31411SOL    HW1 6212   4.622   3.822   6.527  1.0035  1.2406  0.4486
31411SOL    HW2 6213   4.571   3.938   6.609 -1.2114 -0.7522  1.9928
31412SOL     OW 6214  10.624  12.635   9.573  0.0365  0.0525  0.8594
31412SOL    HW1 6215  10.652  12.605   9.487  2.1494 -1.7518  2.0623
31412SOL    HW2 6216  10.701  12.681   9.607 -0.5574  0.2173  2.0144
31413SOL     OW 6217   5.609  13.319   1.077 -0.3155  0.1185  0.0881
31413SOL    HW1 6218   5.652  13.281   1.154 -2.1600 -1.0935  0.5922
31413SOL    HW2 6219   5.572  13.401   1.108 -0.7789 -0.2120  0.4215
31414SOL     OW 6220   5.261   7.976  12.042 -0.2774 -0.2250  0.6498
31414SOL    HW1 6221   5.273   7.908  12.108 -2.0463 -1.1900  0.0283
31414SOL    HW2 6222   5.214   8.046  12.087 -2.5642 -1.3893  0.1707
31415SOL     OW 6223  13.325  11.823  13.896  0.1611 -0.8682 -0.1876
31415SOL    HW1 6224  13.305  11.777  13.814 -0.6665 -0.4128 -0.2537
31415SOL    HW2 6225  13.414  11.797  13.917 -0.1723 -2.2413 -0.3856
31416SOL     OW 6226   1.131   9.902   0.762 -0.0435 -0.1167  0.1579
31416SOL    HW1 6227   1.215   9.856   0.758  1.0551  1.8464 -0.6857
31416SOL    HW2 6228   1.075   9.854   0.702  1.7198  0.7497 -2.3877
31417SOL     OW 6229   4.492   2.265   5.015 -0.2366 -0.2093  0.1181
31417SOL    HW1 6230   4.425   2.242   5.079  0.3623  1.9219  1.6042
31417SOL    HW2 6231   4.533   2.182   4.992 -0.2748 -1.0367  2.7472
31418SOL     OW 6232   5.386   7.254  11.526 -0.2625  0.4584 -0.0804
31418SOL    HW1 6233   5.473   7.273  11.490  0.6615 -2.2042  0.5524
31418SOL    HW2 6234   5.392   7.280  11.618 -0.7281  1.8471 -0.4212
31419SOL     OW 6235   5.659   2.588   2.725  0.1348  0.0892 -0.6214
31419SOL    HW1 6236   5.726   2.590   2.794  1.6325 -0.7216 -1.9925
31419SOL    HW2 6237   5.588   2.534   2.763  0.2294  0.9323  0.8438
31420SOL     OW 6238   2.394   5.083   7.164 -0.6655  0.1479 -0.5778
31420SOL    HW1 6239   2.349   5.052   7.085 -2.9658  2.3980 -0.2871
31420SOL    HW2 6240   2.387   5.010   7.225  0.1335 -1.2082 -2.0177
31421SOL     OW 6241  11.808   5.347   2.487  0.5605  0.0294  0.2639
31421SOL    HW1 6242  11.770   5.268   2.525 -1.4713  0.4105 -0.8455
31421SOL    HW2 6243  11.884   5.366   2.543  0.8235 -2.3899  0.8562
31422SOL     OW 6244   1.346   8.211   8.142 -0.0954  0.3893  0.4429
31422SOL    HW1 6245   1.366   8.283   8.202  0.3275  1.0712 -0.4973
31422SOL    HW2 6246   1.431   8.176   8.116 -0.2987 -1.3545  1.9081
31423SOL     OW 6247   8.039   7.054  12.955 -0.1960  0.0368  0.1249
31423SOL    HW1 6248   8.072   7.104  13.030 -0.2902  2.0808 -1.1257
31423SOL    HW2 6249   8.112   7.053  12.893 -0.3114 -1.1366 -0.0256
31424SOL     OW 6250   3.122  10.930  12.146  0.2715 -0.2500 -0.4051
31424SOL    HW1 6251   3.136  10.999  12.211 -0.3186  1.8193 -2.3518
31424SOL    HW2 6252   3.120  10.849  12.197 -0.1563  1.2525  2.1323
31425SOL     OW 6253   0.875   7.597   5.011 -0.0217 -0.2473  0.9292
31425SOL    HW1 6254   0.805   7.662   5.018  1.6572  1.7468  0.0311
31425SOL    HW2 6255   0.863   7.559   4.924 -0.9108 -1.0735  1.3935
31426SOL     OW 6256  11.892   1.858   9.033 -0.5856  0.2991  0.1602
31426SOL    HW1 6257  11.858   1.781   9.078 -0.5112  0.3711  0.3395
31426SOL    HW2 6258  11.940   1.907   9.100 -1.3442  0.9389  0.2572
31427SOL     OW 6259   3.628   3.312  13.061  0.2704  0.2832 -0.2119
31427SOL    HW1 6260   3.589   3.334  13.146  0.2017  0.4213 -0.2797
31427SOL    HW2 6261   3.558   3.328  12.998 -0.7383 -2.7308 -0.0183
31428SOL     OW 6262   6.881   9.208   5.184 -0.0037 -0.4387 -0.5460
31428SOL    HW1 6263   6.956   9.169   5.228 -1.7255 -3.4330  0.0489
31428SOL    HW2 6264   6.900   9.200   5.091  0.7283 -0.5281 -0.3902
31429SOL     OW 6265   2.733  13.308   4.617  0.0285 -0.3728 -0.3135
31429SOL    HW1 6266   2.698  13.282   4.702  2.0540  0.5084  0.8766
31429SOL    HW2 6267   2.693  13.393   4.599  2.1926  1.1991  1.6054
31430SOL     OW 6268   6.741   9.799   0.854 -0.4059 -0.0688  0.2249
31430SOL    HW1 6269   6.735   9.742   0.777 -1.2636  0.0149  0.2144
31430SOL    HW2 6270   6.765   9.884   0.818 -2.3941  0.3798 -0.1879
31431SOL     OW 6271   5.134   4.672   8.200  0.5296 -0.1850 -0.9960
31431SOL    HW1 6272   5.135   4.579   8.220  2.2351  0.1347  0.7874
31431SOL    HW2 6273   5.093   4.712   8.277  1.9670  0.6815 -0.6369
31432SOL     OW 6274  12.685   5.857   8.676 -0.1027  0.1578 -0.4532
31432SOL    HW1 6275  12.610   5.896   8.721 -0.9896 -0.0175 -1.7282
31432SOL    HW2 6276  12.760   5.881   8.730 -1.1898 -0.8483  1.6549
31433SOL     OW 6277   8.183   3.178   6.844  0.6000  0.6683  0.3383
31433SOL    HW1 6278   8.150   3.090   6.859  1.2188  0.7197  2.1851
31433SOL    HW2 6279   8.163   3.196   6.751 -1.3682 -0.6069  0.4624
31434SOL     OW 6280  13.859  10.524  12.777  0.5111  0.1653  0.2700
31434SOL    HW1 6281  13.785  10.541  12.835  0.5647  1.4421 -0.0045
31434SOL    HW2 6282  13.832  10.448  12.725  1.3375 -2.4486  3.3707
31435SOL     OW 6283  12.664   1.058   0.184  0.5196 -0.1435  0.3770
31435SOL    HW1 6284  12.663   1.057   0.088 -0.2360  0.6053  0.3666
31435SOL    HW2 6285  12.670   1.151   0.206  0.2106 -0.2860  1.0608
31436SOL     OW 6286  12.345  11.783   4.726 -0.0794  0.0651 -0.2795
31436SOL    HW1 6287  12.430  11.824   4.743 -0.6585  1.5792 -0.8975
31436SOL    HW2 6288  12.321  11.812   4.638 -0.5601 -1.5796 -0.7266
31437SOL     OW 6289  13.612   9.476  10.918 -0.1088  0.5292 -0.2042
31437SOL    HW1 6290  13.666   9.544  10.959 -1.3150  1.3299  0.0899
31437SOL    HW2 6291  13.635   9.396  10.966  1.2583  0.7232 -0.4906
31438SOL     OW 6292   6.180  11.092   8.789  0.6930 -0.0457  0.0207
31438SOL    HW1 6293   6.274  11.087   8.807  0.7025 -1.5945 -0.3473
31438SOL    HW2 6294   6.175  11.103   8.694  0.4908 -0.2187  0.0126
31439SOL     OW 6295   4.234  11.431  12.116  0.2765 -0.1902  0.0941
31439SOL    HW1 6296   4.151  11.434  12.164  0.8258 -0.8148  1.1128
31439SOL    HW2 6297   4.208  11.424  12.024 -0.7935  1.3932  0.2480
31440SOL     OW 6298   8.492   0.439   2.699 -0.4906 -0.1147 -0.1398
31440SOL    HW1 6299   8.429   0.490   2.649  1.2174  0.0731 -2.2760
31440SOL    HW2 6300   8.553   0.405   2.633 -0.5602 -3.5358  1.3522
31441SOL     OW 6301   7.274   0.742   6.173 -0.1613 -0.2892 -0.2442
31441SOL    HW1 6302   7.244   0.668   6.225  0.2307 -1.1308 -1.1754
31441SOL    HW2 6303   7.248   0.720   6.083  2.9680 -1.0106 -1.1047
31442SOL     OW 6304  12.963   9.186   4.233 -0.0943 -0.3561  0.2077
31442SOL    HW1 6305  13.019   9.252   4.274  0.7265 -0.9580  0.0871
31442SOL    HW2 6306  12.891   9.173   4.295 -0.3223  0.7051  0.1850
31443SOL     OW 6307   3.600  11.507  12.245  0.4329 -0.6937 -0.1393
31443SOL    HW1 6308   3.618  11.499  12.338  1.0227 -0.7365 -0.2487
31443SOL    HW2 6309   3.598  11.417  12.213 -1.1640 -0.7488  0.0727
31444SOL     OW 6310  10.798   9.912   9.075  0.0976  0.1128 -0.3608
31444SOL    HW1 6311  10.756   9.858   9.008 -1.5023  0.0450  0.6218
31444SOL    HW2 6312  10.840   9.983   9.027  0.7084 -1.0216 -1.5491
31445SOL     OW 6313   3.551   1.602   6.424  0.2774 -0.1127  0.1624
31445SOL    HW1 6314   3.643   1.625   6.411  0.1342 -0.1860 -1.0803
31445SOL    HW2 6315   3.554   1.518   6.470  0.9108 -1.6632 -2.4999
31446SOL     OW 6316   9.371  13.547  10.170  0.6310  0.0364  0.1951
31446SOL    HW1 6317   9.453  13.590  10.194 -0.5381  2.9404 -0.5383
31446SOL    HW2 6318   9.304  13.593  10.221 -1.0387  1.2312 -2.8127
31447SOL     OW 6319  12.017   9.972   1.364  0.0945 -0.0885  0.9080
31447SOL    HW1 6320  12.046  10.011   1.281 -1.8110  0.1894  0.3157
31447SOL    HW2 6321  12.068  10.018   1.431 -0.1634  1.5576  0.0367
31448SOL     OW 6322  11.611   0.343   2.992 -0.1921 -0.1658 -0.2279
31448SOL    HW1 6323  11.623   0.438   2.993  1.3445 -0.3382 -0.4844
31448SOL    HW2 6324  11.522   0.330   3.025 -0.5454  1.3709 -0.5091
31449SOL     OW 6325   1.730   1.120   7.130  0.0387 -0.3399 -0.1707
31449SOL    HW1 6326   1.649   1.104   7.179 -0.3516  0.2005 -0.6261
31449SOL    HW2 6327   1.766   1.200   7.169  1.1731 -1.3952  1.0607
31450SOL     OW 6328   4.996   1.759  11.916  0.1210 -0.1643 -0.0354
31450SOL    HW1 6329   4.971   1.843  11.955 -2.0361 -1.4123  1.5430
31450SOL    HW2 6330   5.044   1.713  11.985  1.1257 -0.3096 -0.8146
31451SOL     OW 6331  12.913  11.000   5.410  0.2983 -0.0717  0.3937
31451SOL    HW1 6332  12.858  10.928   5.443  0.7870 -0.6496 -0.0281
31451SOL    HW2 6333  12.856  11.049   5.352  0.2701 -0.7837 -0.1963
31452SOL     OW 6334   1.276   8.578   6.715 -0.1043  0.4807 -0.0219
31452SOL    HW1 6335   1.256   8.497   6.761  1.2860 -0.0349 -0.3075
31452SOL    HW2 6336   1.331   8.628   6.776  0.8982  0.2334 -0.7072
31453SOL     OW 6337   9.965   8.691   8.330  0.3008 -0.4421  0.3914
31453SOL    HW1 6338   9.964   8.700   8.426  0.7708 -0.6561  0.4194
31453SOL    HW2 6339   9.988   8.600   8.315  1.8660 -0.0188  0.0643
31454SOL     OW 6340   8.175   7.077  11.966  0.2232  0.1437 -0.0539
31454SOL    HW1 6341   8.102   7.120  12.010 -0.8722 -3.2910  1.8639
31454SOL    HW2 6342   8.167   7.103  11.874 -2.5457  0.9703  0.3381
31455SOL     OW 6343  10.722  11.519   1.098 -0.5506  0.0145 -0.2890
31455SOL    HW1 6344  10.719  11.585   1.166 -0.4764 -1.6512  1.4158
31455SOL    HW2 6345  10.630  11.507   1.072 -1.0109 -1.4347  1.7372
31456SOL     OW 6346  11.808   0.956  10.614 -0.1058 -0.0763  0.3879
31456SOL    HW1 6347  11.732   0.948  10.672 -0.7017 -0.0893 -0.3676
31456SOL    HW2 6348  11.770   0.952  10.526  0.7599  0.1208  0.0024
31457SOL     OW 6349  11.789   0.411  13.416  0.7566  0.3217  0.1794
31457SOL    HW1 6350  11.874   0.445  13.389  0.1861  1.4375 -0.3164
31457SOL    HW2 6351  11.774   0.335  13.360  0.4827  1.4196 -1.2923
31458SOL     OW 6352   0.553  12.895   8.665 -0.0248  0.2988  0.5321
31458SOL    HW1 6353   0.495  12.867   8.736 -0.2781  0.2487  0.3074
31458SOL    HW2 6354   0.595  12.974   8.699 -0.5719  0.5988  0.5267
31459SOL     OW 6355   5.658   4.850   7.398 -0.8057  0.0494 -0.6594
31459SOL    HW1 6356   5.658   4.833   7.304 -0.8721  2.6993 -1.2234
31459SOL    HW2 6357   5.567   4.841   7.424 -1.1342  1.2384 -1.3066
31460SOL     OW 6358   4.200   7.857   4.093 -0.5087 -0.2383  0.1757
31460SOL    HW1 6359   4.229   7.946   4.072  0.0459  0.1054  2.2135
31460SOL    HW2 6360   4.163   7.864   4.181 -1.0277 -1.9224  0.1202
31461SOL     OW 6361   0.394   0.309   7.217  0.6078  0.1124 -0.7546
31461SOL    HW1 6362   0.425   0.301   7.127  0.5501  1.3804 -0.9076
31461SOL    HW2 6363   0.452   0.375   7.256  0.5715 -0.3556  0.1135
31462SOL     OW 6364   6.083   2.281   3.515  0.3111  0.6355  0.6181
31462SOL    HW1 6365   6.096   2.323   3.600 -0.1716 -1.6746  1.9226
31462SOL    HW2 6366   6.149   2.321   3.459 -0.8242  3.8900  1.3627
31463SOL     OW 6367   3.730  11.884   5.946 -0.4697 -0.5563  0.1112
31463SOL    HW1 6368   3.662  11.817   5.937 -0.5497 -0.3358 -1.1306
31463SOL    HW2 6369   3.696  11.945   6.012 -1.6646 -0.2478 -0.7540
31464SOL     OW 6370   9.555   2.317   6.052 -0.1315 -0.3103  0.2296
31464SOL    HW1 6371   9.632   2.280   6.094 -0.0408  0.9283  1.1926
31464SOL    HW2 6372   9.515   2.243   6.006  1.3995 -1.0546  0.0382
31465SOL     OW 6373   1.037   7.238  13.869  0.6213 -0.2640  0.2515
31465SOL    HW1 6374   1.088   7.237  13.950  1.3397  0.3015 -0.1729
31465SOL    HW2 6375   1.099   7.209  13.802 -0.0343 -0.9674 -0.0629
31466SOL     OW 6376  13.706   5.261   2.371  0.3319  0.0290 -0.1935
31466SOL    HW1 6377  13.775   5.234   2.432 -0.6998 -1.3732  0.3919
31466SOL    HW2 6378  13.643   5.190   2.373 -2.2184  2.1639  0.9025
31467SOL     OW 6379   6.117   0.574  13.686 -0.1196  0.6256 -0.2143
31467SOL    HW1 6380   6.134   0.593  13.779 -0.9153 -1.4297  0.3956
31467SOL    HW2 6381   6.027   0.602  13.672  0.1433  1.3487 -0.5069
31468SOL     OW 6382   9.362   1.339  14.016  0.5719  0.2175 -0.6572
31468SOL    HW1 6383   9.403   1.422  13.990  2.0914 -0.3591 -0.1989
31468SOL    HW2 6384   9.383   1.331  14.109  0.7450 -0.8503 -0.7787
31469SOL     OW 6385   0.823  13.390   9.845  0.5806  0.3414 -0.2443
31469SOL    HW1 6386   0.805  13.296   9.851 -0.3297  0.4992 -0.4581
31469SOL    HW2 6387   0.826  13.420   9.936 -1.6155  0.5602 -0.2082
31470SOL     OW 6388   1.726  10.804  13.938  0.0902  0.2227 -0.4596
31470SOL    HW1 6389   1.793  10.858  13.897  0.1289  0.7962  0.3396
31470SOL    HW2 6390   1.664  10.867  13.975  1.1476 -0.1749  2.2220
31471SOL     OW 6391  11.466  11.341   8.829  0.4968 -0.3605  0.4383
31471SOL    HW1 6392  11.544  11.304   8.788  0.1993  0.2092 -0.6753
31471SOL    HW2 6393  11.428  11.269   8.879  1.5556 -0.7252  0.7494
31472SOL     OW 6394   9.842  10.388   2.653 -0.0282  0.2325  0.0252
31472SOL    HW1 6395   9.765  10.340   2.623 -0.3094 -0.0333  1.0948
31472SOL    HW2 6396   9.815  10.425   2.737  1.1312 -0.2154  0.6191
31473SOL     OW 6397   0.984   2.599  13.882 -0.0295 -0.3529 -0.1057
31473SOL    HW1 6398   0.981   2.515  13.928 -0.0837  0.2516  1.0143
31473SOL    HW2 6399   1.026   2.659  13.944  0.5773  0.3053 -1.1251
31474SOL     OW 6400   9.495   3.145   7.253  0.3091  0.1257 -0.0152
31474SOL    HW1 6401   9.467   3.099   7.332 -2.5996 -0.1697 -1.0599
31474SOL    HW2 6402   9.585   3.116   7.239  0.1027 -1.7076  1.8680
31475SOL     OW 6403   9.028   1.082   2.277 -0.0823 -0.3151 -0.0880
31475SOL    HW1 6404   8.997   1.173   2.273 -1.7678 -0.8950 -2.0309
31475SOL    HW2 6405   9.012   1.048   2.189  2.6402 -1.8644 -0.0934
31476SOL     OW 6406   0.715   3.660  12.055  0.2251 -0.4951 -0.1435
31476SOL    HW1 6407   0.759   3.715  12.120 -0.9738 -2.0706  2.1408
31476SOL    HW2 6408   0.756   3.684  11.972  0.8006  2.7122  0.9017
31477SOL     OW 6409   2.360   3.751   4.713  0.0515 -0.0883 -0.5542
31477SOL    HW1 6410   2.313   3.709   4.784  0.1545 -0.3925 -0.6615
31477SOL    HW2 6411   2.408   3.823   4.754 -0.6953  0.3737 -0.4878
31478SOL     OW 6412   9.227   3.187   2.188  0.2325 -0.3404 -0.1270
31478SOL    HW1 6413   9.294   3.217   2.126 -1.6821  0.2695 -2.0294
31478SOL    HW2 6414   9.192   3.267   2.226  0.4682 -0.6467  0.7472
31479SOL     OW 6415  10.195   1.716   3.719 -0.3826 -0.0044  0.2867
31479SOL    HW1 6416  10.247   1.756   3.789 -0.7188 -1.3572  1.3668
31479SOL    HW2 6417  10.224   1.760   3.639  0.5035  1.1210  1.1890
31480SOL     OW 6418  13.585   6.088   2.062 -0.1216 -0.1437  0.0480
31480SOL    HW1 6419  13.614   5.997   2.058 -1.3122 -0.5059 -1.3772
31480SOL    HW2 6420  13.633   6.132   1.991  0.9283  0.5253  1.1282
31481SOL     OW 6421   2.631   0.564   2.537 -0.5604 -0.3426  0.4745
31481SOL    HW1 6422   2.549   0.518   2.521 -0.1194 -0.6247 -1.2840
31481SOL    HW2 6423   2.630   0.585   2.630 -2.2940 -0.9542  0.6281
31482SOL     OW 6424  12.453   9.365   3.567  0.0284  0.2211 -0.1294
31482SOL    HW1 6425  12.398   9.420   3.622  0.1699  0.4033 -0.1687
31482SOL    HW2 6426  12.528   9.421   3.544 -0.9793  0.8370 -2.1297
31483SOL     OW 6427  10.081   6.279  10.342  0.0253 -0.8173 -0.7771
31483SOL    HW1 6428  10.090   6.262  10.248  1.9603  0.0128 -0.7874
31483SOL    HW2 6429  10.163   6.322  10.367 -0.2313 -1.4423  1.3942
31484SOL     OW 6430   1.747   2.345   5.895 -0.4196  0.0301  0.1826
31484SOL    HW1 6431   1.804   2.289   5.843 -0.5936 -0.1150  0.1472
31484SOL    HW2 6432   1.781   2.336   5.984 -0.2870  0.0700  0.1365
31485SOL     OW 6433   7.628   2.926  13.841  0.1394  0.2404 -0.4914
31485SOL    HW1 6434   7.627   3.013  13.802 -0.6249  0.3571 -0.2267
31485SOL    HW2 6435   7.584   2.937  13.925  1.6122 -0.0417  0.3594
31486SOL     OW 6436  10.000   5.952   9.073 -0.1454 -0.1396  0.0023
31486SOL    HW1 6437  10.084   5.997   9.063 -0.5799  0.9320  1.0044
31486SOL    HW2 6438  10.021   5.859   9.058  0.9554  0.2474 -1.0777
31487SOL     OW 6439   5.280  10.707   1.012  0.0112 -0.0061 -0.1098
31487SOL    HW1 6440   5.275  10.668   1.099 -1.1330 -0.1058 -0.2024
31487SOL    HW2 6441   5.241  10.794   1.022  0.4103  0.2061 -0.3943
31488SOL     OW 6442   5.194   6.463  13.549  0.4322  0.2087 -0.2278
31488SOL    HW1 6443   5.268   6.420  13.590  1.7573  1.6466 -1.0111
31488SOL    HW2 6444   5.227   6.549  13.523 -0.4249 -0.3995 -3.8450
31489SOL     OW 6445   7.451   4.842   8.980 -0.3616  0.2159  0.3397
31489SOL    HW1 6446   7.546   4.852   8.982 -0.5663  3.3204 -0.1272
31489SOL    HW2 6447   7.432   4.773   9.043  2.3017 -2.1248 -1.2061
31490SOL     OW 6448   3.946   9.194   3.099  0.3354  0.0889 -0.5285
31490SOL    HW1 6449   3.887   9.189   3.024 -0.6276  0.6225  0.1604
31490SOL    HW2 6450   4.013   9.128   3.083 -2.3079 -3.0488  0.2557
31491SOL     OW 6451   2.630   7.571   7.853 -0.3679  0.4023 -0.0424
31491SOL    HW1 6452   2.696   7.610   7.909 -0.1261 -0.2872  0.1646
31491SOL    HW2 6453   2.598   7.495   7.902 -1.2770  0.6973 -0.1620
31492SOL     OW 6454  11.104   5.489   8.599  0.4235  0.3535  0.1056
31492SOL    HW1 6455  11.018   5.503   8.558  0.3605 -0.2229  0.0213
31492SOL    HW2 6456  11.161   5.553   8.558  0.1138  0.4946 -0.1125
31493SOL     OW 6457   5.957   1.429   7.799 -0.6202 -0.2601  0.6849
31493SOL    HW1 6458   5.996   1.388   7.876  1.1774 -0.2362 -0.1459
31493SOL    HW2 6459   6.004   1.390   7.725  0.1585  2.1815 -0.2157
31494SOL     OW 6460   7.991   7.544   3.127  0.0099 -0.1489  0.4970
31494SOL    HW1 6461   7.915   7.601   3.133  1.0365  1.4945 -1.1367
31494SOL    HW2 6462   8.058   7.588   3.178 -0.1415 -1.7475  2.2020
31495SOL     OW 6463   9.045   1.316   1.701  0.0153 -0.3973  0.3033
31495SOL    HW1 6464   9.132   1.356   1.702 -0.7232  1.3525 -0.4449
31495SOL    HW2 6465   9.007   1.340   1.786 -1.5054  3.2798 -1.1849
31496SOL     OW 6466   9.274  10.962   4.242 -0.1900  0.2029 -0.2453
31496SOL    HW1 6467   9.250  11.026   4.308 -0.0893 -1.7796  1.8309
31496SOL    HW2 6468   9.367  10.979   4.224 -0.2753  0.8959 -0.0556
31497SOL     OW 6469   9.272  10.146   3.166  0.1798  0.3854 -0.2526
31497SOL    HW1 6470   9.287  10.154   3.071  1.0476 -1.6261 -0.3357
31497SOL    HW2 6471   9.234  10.231   3.191  1.9981  1.8085 -1.9803
31498SOL     OW 6472   5.113  11.649   7.953  0.1047  0.3096  0.0608
31498SOL    HW1 6473   5.092  11.685   8.040 -2.7942  0.9477 -0.7860
31498SOL    HW2 6474   5.106  11.554   7.964  1.8118  0.2397  0.9296
31499SOL     OW 6475  13.581   3.897   4.886  0.2124 -0.5188 -0.0197
31499SOL    HW1 6476  13.620   3.941   4.961 -1.0731  1.5884 -0.4956
31499SOL    HW2 6477  13.494   3.871   4.917 -0.2313  0.1454 -0.6823
31500SOL     OW 6478   2.278   8.068   6.741  0.4972  0.3094  0.1669
31500SOL    HW1 6479   2.188   8.099   6.738  0.3488 -0.0538  0.6899
31500SOL    HW2 6480   2.271   7.973   6.740  0.7703  0.2316  1.9769
31501SOL     OW 6481   7.804   8.132  13.158 -0.9559  0.3084 -0.6939
31501SOL    HW1 6482   7.814   8.070  13.086  0.9569  1.7090 -1.7224
31501SOL    HW2 6483   7.760   8.207  13.119  0.3909  1.2147 -0.5361
31502SOL     OW 6484   1.533   9.200  10.178 -0.2353  0.1351  0.1785
31502SOL    HW1 6485   1.448   9.242  10.190  0.6997  2.1725  0.1250
31502SOL    HW2 6486   1.592   9.249  10.236  1.2915  0.1186 -1.2948
31503SOL     OW 6487   2.526   4.421  12.369  0.3228  0.2295 -0.2672
31503SOL    HW1 6488   2.564   4.428  12.457 -0.7899 -1.2550  0.3758
31503SOL    HW2 6489   2.600   4.397  12.313  0.7966 -0.1163  0.4915
31504SOL     OW 6490   0.731   5.842  10.352 -0.0086  0.1401  0.4780
31504SOL    HW1 6491   0.802   5.872  10.295 -0.2088  0.6113  0.4713
31504SOL    HW2 6492   0.661   5.817  10.293  0.2780 -0.6613  0.4728
31505SOL     OW 6493   6.874   9.802   1.106  0.8068  0.2992  0.5641
31505SOL    HW1 6494   6.815   9.786   1.032  2.5934  0.9158 -1.0851
31505SOL    HW2 6495   6.949   9.846   1.067  1.2245  1.9209  3.0014
31506SOL     OW 6496   1.696   3.682   1.917  0.4465  0.2062  0.0368
31506SOL    HW1 6497   1.677   3.711   2.007 -1.4301  2.5109 -0.9777
31506SOL    HW2 6498   1.791   3.676   1.914  0.5686  0.2654  2.1247
31507SOL     OW 6499  13.636  12.511   5.656  0.2351 -0.2376  0.6342
31507SOL    HW1 6500  13.581  12.504   5.735 -2.0381  2.3849 -0.5416
31507SOL    HW2 6501  13.603  12.443   5.598  0.0504 -0.4151  0.9429
31508SOL     OW 6502   8.954   1.560   1.624 -0.3263 -0.5979  0.1929
31508SOL    HW1 6503   8.981   1.473   1.653  0.8293 -0.0960  0.6769
31508SOL    HW2 6504   9.025   1.618   1.651 -1.0959  0.5121 -0.0789
31509SOL     OW 6505   9.773  10.558  13.885 -0.2955 -0.3146 -0.1292
31509SOL    HW1 6506   9.823  10.477  13.872 -0.4625 -0.3056 -0.8937
31509SOL    HW2 6507   9.776  10.601  13.799 -1.9434 -0.5019 -0.2974
31510SOL     OW 6508   6.473   4.136   0.025  0.2546  0.2256  0.2796
31510SOL    HW1 6509   6.433   4.078  -0.040 -0.1584  0.3845  0.3935
31510SOL    HW2 6510   6.559   4.096   0.042  0.5802  0.4678 -0.7458
31511SOL     OW 6511   4.482   8.574   7.789 -0.2618 -0.1803  0.1060
31511SOL    HW1 6512   4.455   8.589   7.698 -2.3930  0.5160  0.7812
31511SOL    HW2 6513   4.457   8.484   7.807 -0.6132 -0.0616  0.2283
31512SOL     OW 6514  12.723  13.835   2.358  1.0784  0.0273  0.2704
31512SOL    HW1 6515  12.725  13.926   2.387 -0.6561  0.2208 -0.1098
31512SOL    HW2 6516  12.725  13.840   2.262  0.4202 -0.2894  0.2327
31513SOL     OW 6517   8.962   3.235   2.448 -0.2775  0.0025  0.4463
31513SOL    HW1 6518   8.948   3.329   2.437  2.4853  0.7139  1.9040
31513SOL    HW2 6519   8.934   3.217   2.538 -2.6097 -1.0758 -0.4159
31514SOL     OW 6520   3.042   1.653   7.273 -0.3552 -0.1024 -1.1638
31514SOL    HW1 6521   3.029   1.635   7.180  1.2200  0.4299 -1.5099
31514SOL    HW2 6522   2.992   1.585   7.318 -1.8971  0.1801 -2.3729
31515SOL     OW 6523   2.295  10.487  10.358  0.1091 -0.6370 -0.0185
31515SOL    HW1 6524   2.231  10.418  10.338 -2.2150  1.1013  1.0232
31515SOL    HW2 6525   2.273  10.516  10.446  0.5383  1.9213 -0.6774
31516SOL     OW 6526   9.044   7.964   2.953 -0.5041  0.3399 -0.2190
31516SOL    HW1 6527   9.059   7.909   3.031  0.1556  1.7152  0.6663
31516SOL    HW2 6528   9.094   7.921   2.884  0.2298 -0.0469  0.5241
31517SOL     OW 6529   6.949  12.171   1.548  0.3144 -0.2621  0.2054
31517SOL    HW1 6530   6.942  12.218   1.465  0.4628  0.6050  0.6691
31517SOL    HW2 6531   6.878  12.207   1.602 -0.0256 -1.0912  0.3356
31518SOL     OW 6532   9.575   6.658   0.009  0.2461 -0.0229  0.1073
31518SOL    HW1 6533   9.511   6.697   0.069 -0.2361  1.4678 -1.2999
31518SOL    HW2 6534   9.629   6.732  -0.020  1.0081 -0.8496 -0.6599
31519SOL     OW 6535   1.100   0.396  10.792  0.3461 -0.3227 -0.0837
31519SOL    HW1 6536   1.192   0.389  10.819  0.7132 -1.3729 -1.5019
31519SOL    HW2 6537   1.056   0.435  10.868  2.2617  2.0026 -0.0433
31520SOL     OW 6538   3.470   3.785   2.487  0.1939 -0.2517 -0.4671
31520SOL    HW1 6539   3.402   3.723   2.461  0.0252 -0.5167  0.5621
31520SOL    HW2 6540   3.423   3.867   2.505 -0.0525 -0.7500  1.3810
31521SOL     OW 6541   1.029   0.002   2.864  0.1287 -0.0399  0.2865
31521SOL    HW1 6542   1.052  -0.078   2.912  1.3863 -0.2086 -0.5636
31521SOL    HW2 6543   1.091   0.006   2.792  0.2909  1.8749  0.4772
31522SOL     OW 6544   2.348  11.714   3.605  0.4781 -0.4716  0.2713
31522SOL    HW1 6545   2.411  11.762   3.657 -0.4710 -0.1384  1.1550
31522SOL    HW2 6546   2.335  11.767   3.526 -1.3433  1.3678  1.6919
31523SOL     OW 6547   8.771   8.806   1.278 -0.0993  0.4684 -0.2425
31523SOL    HW1 6548   8.763   8.821   1.372 -0.4301  0.8789 -0.3334
31523SOL    HW2 6549   8.757   8.712   1.267 -1.3074  0.6111 -0.0152
31524SOL     OW 6550   2.880   2.425   1.809  0.3002 -0.2009  0.2391
31524SOL    HW1 6551   2.790   2.436   1.840  0.8378 -0.1303  1.9045
31524SOL    HW2 6552   2.874   2.437   1.714 -1.4611 -0.3834  0.2823
31525SOL     OW 6553  10.045   2.611   5.579  0.2642  0.6145 -0.0149
31525SOL    HW1 6554   9.977   2.676   5.596  0.4885  0.8538 -0.0344
31525SOL    HW2 6555  10.056   2.567   5.663 -0.1522  0.3453 -0.0969
31526SOL     OW 6556   1.469   1.544   7.962 -0.4585  0.0792  0.3558
31526SOL    HW1 6557   1.526   1.467   7.958  0.3344  0.5976  1.3230
31526SOL    HW2 6558   1.476   1.584   7.876 -0.4913 -0.6599  0.0056
31527SOL     OW 6559   3.355  11.800  13.747 -0.1952 -0.0470 -0.2726
31527SOL    HW1 6560   3.287  11.857  13.712  0.4564  0.0967 -1.3740
31527SOL    HW2 6561   3.313  11.714  13.754 -0.2333 -0.2154 -1.9732
31528SOL     OW 6562   4.741   8.144  13.921  0.0004 -0.2659 -1.1036
31528SOL    HW1 6563   4.695   8.222  13.954  2.4773  0.7001  0.3118
31528SOL    HW2 6564   4.763   8.167  13.830  0.0334  0.3497 -0.9460
31529SOL     OW 6565   9.534  13.615   7.847  0.3873 -0.2250 -0.4273
31529SOL    HW1 6566   9.596  13.647   7.913 -0.4402 -1.1034  0.8235
31529SOL    HW2 6567   9.585  13.612   7.766  1.4031  1.0020  0.1180
31530SOL     OW 6568  13.204  12.117  10.193 -0.0803 -0.4763  0.4262
31530SOL    HW1 6569  13.148  12.103  10.269  0.7925 -0.5108  1.0743
31530SOL    HW2 6570  13.200  12.035  10.144  1.6566 -1.5299  1.9731
31531SOL     OW 6571  10.290   2.298   8.641 -0.6395 -0.1979 -0.0328
31531SOL    HW1 6572  10.379   2.262   8.649  0.0469  1.4699  0.1704
31531SOL    HW2 6573  10.284   2.328   8.551 -1.4684 -1.4056 -0.4087
31532SOL     OW 6574   5.695   6.941   0.601  0.2496  0.6003  0.2358
31532SOL    HW1 6575   5.698   6.911   0.511  0.2446  0.0337  0.4213
31532SOL    HW2 6576   5.786   6.955   0.625  0.2608  0.5985  0.1943
31533SOL     OW 6577   3.527   6.912   2.817 -0.3053 -0.6627  0.2464
31533SOL    HW1 6578   3.434   6.928   2.835 -0.8318 -0.2464 -2.4310
31533SOL    HW2 6579   3.555   6.987   2.765  1.4666 -0.9341  0.7520
31534SOL     OW 6580   9.280   9.227   0.606 -0.0025 -0.2570 -0.1594
31534SOL    HW1 6581   9.312   9.302   0.657 -2.1857 -1.9387  4.2580
31534SOL    HW2 6582   9.186   9.226   0.623 -0.7066 -1.7890 -3.4391
31535SOL     OW 6583   0.693   9.376   0.081  0.1008 -0.7873  0.2826
31535SOL    HW1 6584   0.675   9.405  -0.008 -0.3671 -3.3920 -0.5535
31535SOL    HW2 6585   0.769   9.318   0.072  0.8917 -0.0195  1.7993
31536SOL     OW 6586  12.213   7.790   8.180 -0.2401  0.0962  0.2913
31536SOL    HW1 6587  12.217   7.694   8.188 -0.4105 -0.0506 -1.1545
31536SOL    HW2 6588  12.304   7.816   8.169 -0.2650  0.0155 -0.1191
31537SOL     OW 6589  10.423   1.737   5.036 -0.0640 -0.7908  0.2972
31537SOL    HW1 6590  10.388   1.805   5.094 -1.0625 -0.5732 -0.5500
31537SOL    HW2 6591  10.487   1.691   5.091 -0.1208  0.1639  1.2035
31538SOL     OW 6592  10.317   5.819   3.732 -0.1272 -0.5141  0.0163
31538SOL    HW1 6593  10.233   5.833   3.688  0.2450  3.0733  0.1902
31538SOL    HW2 6594  10.302   5.852   3.821  0.9093 -1.8102  0.6966
31539SOL     OW 6595   8.950   1.762   8.922  0.3779  0.0163 -0.5208
31539SOL    HW1 6596   8.923   1.832   8.864 -1.5383 -0.8310 -0.7318
31539SOL    HW2 6597   8.875   1.703   8.925  1.9106 -2.0541 -0.3744
31540SOL     OW 6598   0.734  12.333   9.080  0.0312 -0.5005  0.3107
31540SOL    HW1 6599   0.733  12.237   9.080 -0.6212 -0.5084  1.3947
31540SOL    HW2 6600   0.642  12.358   9.083  0.2232  0.1316  1.3631
31541SOL     OW 6601  10.242   5.159  13.720 -0.1354  0.2478 -0.3141
31541SOL    HW1 6602  10.197   5.136  13.638 -0.3049  0.2832 -0.2320
31541SOL    HW2 6603  10.215   5.091  13.782  1.4213 -0.8171 -0.7580
31542SOL     OW 6604   6.100   9.283   0.393 -0.5880 -0.1921 -0.0815
31542SOL    HW1 6605   6.169   9.341   0.359  1.1171 -0.6405  2.3414
31542SOL    HW2 6606   6.122   9.197   0.359 -0.0717 -0.2814  0.4506
31543SOL     OW 6607   8.947   4.344   6.106  0.3441 -0.5158 -0.5389
31543SOL    HW1 6608   8.958   4.268   6.163  0.1370 -0.8687 -0.9667
31543SOL    HW2 6609   8.977   4.418   6.159  0.2457 -0.8515 -0.0063
31544SOL     OW 6610  13.022  11.018   3.509  0.8199  0.1010  0.0395
31544SOL    HW1 6611  13.044  11.108   3.532  1.9104 -0.1182 -0.0712
31544SOL    HW2 6612  13.107  10.974   3.502  0.6066 -0.0880 -3.4865
31545SOL     OW 6613   0.939   9.913   9.866 -0.2223  0.0758  0.6319
31545SOL    HW1 6614   0.930  10.007   9.885 -0.5464  0.1925 -0.0631
31545SOL    HW2 6615   1.033   9.900   9.857 -0.1480  0.2535  1.1372
31546SOL     OW 6616   2.406   6.059   9.062 -0.0188  0.5187  0.0767
31546SOL    HW1 6617   2.486   6.081   9.014 -0.0113  1.0143  0.3039
31546SOL    HW2 6618   2.437   6.036   9.150  0.3409 -3.6959 -0.9441
31547SOL     OW 6619   8.429   8.160  10.101 -0.3296 -0.5503  0.5012
31547SOL    HW1 6620   8.508   8.200  10.063  0.2222 -1.4469  0.6758
31547SOL    HW2 6621   8.368   8.234  10.113  0.1832  0.0307 -0.3702
31548SOL     OW 6622   3.481   0.458   3.396 -0.1992  0.2343 -0.2474
31548SOL    HW1 6623   3.566   0.418   3.379  0.1078 -0.4613  2.4258
31548SOL    HW2 6624   3.432   0.391   3.445 -0.8832  1.9109  1.4834
31549SOL     OW 6625   1.832   6.461   4.646  0.3793 -0.0970  0.1974
31549SOL    HW1 6626   1.907   6.406   4.624  0.3131  0.4496 -1.5128
31549SOL    HW2 6627   1.853   6.546   4.608 -0.3950  0.5287  1.1213
31550SOL     OW 6628  12.590   1.252   7.849 -0.3095  0.2048 -0.0481
31550SOL    HW1 6629  12.674   1.256   7.803  0.0691 -1.1128  0.4794
31550SOL    HW2 6630  12.559   1.162   7.835 -1.9802  0.8572 -0.8117
31551SOL     OW 6631   5.358   3.749   4.451  0.3370  0.1421  0.3012
31551SOL    HW1 6632   5.294   3.769   4.382 -0.1685 -1.1010  0.3740
31551SOL    HW2 6633   5.420   3.690   4.408  0.8858  0.5651  0.5072
31552SOL     OW 6634   2.933   2.069  14.011  0.6762  0.9247  0.0588
31552SOL    HW1 6635   3.022   2.064  14.046  1.0324 -0.8041 -1.0203
31552SOL    HW2 6636   2.887   2.129  14.071  2.2850  1.0723  1.1890
31553SOL     OW 6637   1.426   5.479   2.804 -0.2055  0.7869  0.2610
31553SOL    HW1 6638   1.509   5.459   2.762 -1.3210  1.5546 -2.5300
31553SOL    HW2 6639   1.446   5.550   2.866  1.1769  1.0409 -0.4435
31554SOL     OW 6640   9.962   6.130   4.510 -0.2560 -0.4169  0.3062
31554SOL    HW1 6641   9.988   6.182   4.586 -1.2339 -0.8759  0.9754
31554SOL    HW2 6642   9.912   6.191   4.456 -0.7504 -0.4470  0.7202
31555SOL     OW 6643  11.525  12.651   9.421 -0.2192 -0.3692  0.6076
31555SOL    HW1 6644  11.579  12.722   9.456 -0.2937  0.0684 -0.1617
31555SOL    HW2 6645  11.588  12.581   9.402  0.2782  0.5206 -1.3047
31556SOL     OW 6646   9.877  13.399   8.923 -0.2645  0.5843 -0.1369
31556SOL    HW1 6647   9.861  13.321   8.977  1.4916 -0.3479 -0.8609
31556SOL    HW2 6648   9.867  13.473   8.983  0.2557 -0.3361  1.1183
31557SOL     OW 6649   1.796   9.261   1.047 -0.2288  0.0724  0.5245
31557SOL    HW1 6650   1.784   9.336   0.990 -0.2225 -0.8097 -0.6832
31557SOL    HW2 6651   1.854   9.203   0.998  0.6048 -0.2766  1.8688
31558SOL     OW 6652   9.704   1.307  10.023  0.2609 -0.5269 -0.3038
31558SOL    HW1 6653   9.725   1.397   9.996  2.7006 -0.8664  0.1975
31558SOL    HW2 6654   9.753   1.252   9.962 -1.4336 -1.5626 -0.7771
31559SOL     OW 6655  11.831   7.185   3.780 -0.1902 -0.0932 -0.2763
31559SOL    HW1 6656  11.878   7.134   3.714 -0.4571 -0.4099 -0.2258
31559SOL    HW2 6657  11.796   7.119   3.840 -1.1862  0.1039 -0.6325
31560SOL     OW 6658  12.411   7.280  12.140  0.6570 -0.4187  0.1477
31560SOL    HW1 6659  12.368   7.296  12.224  2.4769 -1.0385  1.2395
31560SOL    HW2 6660  12.486   7.226  12.161 -0.1059 -2.5885 -2.1904
31561SOL     OW 6661   3.903   5.609   9.341  0.7682  0.5027 -0.4895
31561SOL    HW1 6662   3.840   5.571   9.280  1.2022  1.8588 -1.8622
31561SOL    HW2 6663   3.953   5.535   9.374 -0.1576 -0.3719 -1.0015
31562SOL     OW 6664  12.042   1.329   3.522 -0.2124  0.9071 -0.3432
31562SOL    HW1 6665  12.133   1.299   3.532 -0.0275  2.1899  2.8041
31562SOL    HW2 6666  12.019   1.365   3.607 -3.4880  1.2955 -1.2706
31563SOL     OW 6667   6.446   9.086   0.132  0.5260  0.0010  0.1258
31563SOL    HW1 6668   6.409   9.168   0.100 -2.6088 -0.6724  1.6120
31563SOL    HW2 6669   6.477   9.041   0.053 -0.9392  1.1281 -1.1609
31564SOL     OW 6670  13.299   3.527  13.497  0.0172  0.1290 -0.2922
31564SOL    HW1 6671  13.307   3.574  13.414  2.5477 -1.3107 -0.9575
31564SOL    HW2 6672  13.233   3.459  13.481  1.2439 -0.8195 -1.5233
31565SOL     OW 6673   0.753   0.815  10.111 -0.1950 -0.1849 -0.1087
31565SOL    HW1 6674   0.684   0.880  10.094  0.3907  0.1828 -1.1090
31565SOL    HW2 6675   0.734   0.743  10.051  1.4295  0.7844 -1.8746
31566SOL     OW 6676  10.241   3.296   7.992  0.5727  0.1343  0.0112
31566SOL    HW1 6677  10.156   3.308   7.950  1.7058  2.3576 -1.8287
31566SOL    HW2 6678  10.228   3.330   8.081 -0.7488 -0.7358  0.1860
31567SOL     OW 6679   8.702   7.900   9.652  0.3394 -0.8982  0.3988
31567SOL    HW1 6680   8.670   7.826   9.599  1.6281 -1.3062  0.1556
31567SOL    HW2 6681   8.689   7.977   9.597 -1.0563 -0.9162  0.6703
31568SOL     OW 6682   4.598   0.941   2.304  0.7667 -0.0693  0.2904
31568SOL    HW1 6683   4.569   0.887   2.378 -2.0006  1.0994  0.2125
31568SOL    HW2 6684   4.644   1.015   2.344 -0.3847  0.3620  0.8765
31569SOL     OW 6685   8.143   6.136  12.289 -0.2987  0.0503  0.0830
31569SOL    HW1 6686   8.221   6.147  12.344 -0.0905  1.2825 -0.4388
31569SOL    HW2 6687   8.084   6.206  12.316 -0.2548  0.5852 -1.1606
31570SOL     OW 6688  12.549   0.222   6.961  0.0579 -0.2649  0.0536
31570SOL    HW1 6689  12.614   0.152   6.967 -0.0024 -0.3790 -0.5691
31570SOL    HW2 6690  12.562   0.273   7.041  0.7911 -0.3941  0.0293
31571SOL     OW 6691   6.322   1.484  10.486  0.4596 -0.1326  0.0209
31571SOL    HW1 6692   6.249   1.503  10.544 -0.1396 -4.3949  1.0315
31571SOL    HW2 6693   6.401   1.503  10.538  0.0830  1.8574 -0.0788
31572SOL     OW 6694   0.604   6.685   9.734  0.2703  0.2269 -0.1138
31572SOL    HW1 6695   0.541   6.613   9.739 -0.4661  0.9050  0.8818
31572SOL    HW2 6696   0.656   6.666   9.657 -1.0549 -0.4540 -0.8777
31573SOL     OW 6697   9.899  12.624  12.760 -0.0355 -0.0332 -0.3076
31573SOL    HW1 6698   9.960  12.694  12.738 -0.5332  0.3210 -0.5797
31573SOL    HW2 6699   9.920  12.554  12.698 -1.4876  0.9961 -2.0313
31574SOL     OW 6700   6.081   9.007  12.972 -0.5865 -0.1089 -0.2311
31574SOL    HW1 6701   6.020   8.965  13.032  0.3718 -2.7567 -0.9592
31574SOL    HW2 6702   6.119   9.079  13.022 -1.5433 -0.7533  1.5027
31575SOL     OW 6703   1.350   1.506  10.215  0.9906 -0.1010  0.6203
31575SOL    HW1 6704   1.375   1.414  10.216  0.1001 -0.4529 -2.0452
31575SOL    HW2 6705   1.270   1.509  10.268  2.5833 -0.2299  3.2134
31576SOL     OW 6706   0.787   8.428   0.807 -0.9638 -0.2453 -0.1801
31576SOL    HW1 6707   0.781   8.397   0.897 -0.7666  1.7506  0.5688
31576SOL    HW2 6708   0.697   8.445   0.781 -0.9316  0.3369  0.0812
31577SOL     OW 6709   9.277  12.531   5.402 -0.3234 -0.1146 -0.2171
31577SOL    HW1 6710   9.214  12.507   5.470 -0.0230 -0.2108  0.0260
31577SOL    HW2 6711   9.333  12.454   5.392 -0.6519 -0.2743 -0.9031
31578SOL     OW 6712   6.820   2.604   5.923 -0.1185  0.1526 -0.3852
31578SOL    HW1 6713   6.745   2.547   5.905  0.8374 -1.1972 -0.1920
31578SOL    HW2 6714   6.841   2.588   6.015  1.0245 -0.2526 -0.7074
31579SOL     OW 6715  13.983  11.666   3.173  0.3137  0.1989 -0.4547
31579SOL    HW1 6716  13.907  11.696   3.124  0.9006 -1.1400 -2.3145
31579SOL    HW2 6717  13.947  11.623   3.250 -0.6235  2.8726  0.7190
31580SOL     OW 6718   9.754  10.273  12.348 -0.3956 -0.0555 -0.4685
31580SOL    HW1 6719   9.717  10.186  12.364 -1.9419  0.7193  0.4149
31580SOL    HW2 6720   9.703  10.307  12.274 -1.9857  1.2496  1.1239
31581SOL     OW 6721  13.061  11.584   1.653  0.6443 -1.3516 -0.2534
31581SOL    HW1 6722  12.980  11.537   1.671 -1.1429  1.8430  0.7972
31581SOL    HW2 6723  13.071  11.644   1.726  2.3696  0.3677 -1.7882
31582SOL     OW 6724  10.584   1.428   6.081  0.0506  0.0494 -0.2551
31582SOL    HW1 6725  10.573   1.346   6.127  1.4444 -1.5929 -2.6047
31582SOL    HW2 6726  10.652   1.475   6.130 -0.1349 -0.5863  0.6121
31583SOL     OW 6727   8.550   1.411   7.053  0.5684 -0.8183 -0.0661
31583SOL    HW1 6728   8.562   1.505   7.049 -2.2930 -0.3312  0.8628
31583SOL    HW2 6729   8.559   1.389   7.146 -0.5272 -1.1458 -0.0242
31584SOL     OW 6730  12.706  11.008  10.193  0.5233 -0.2562 -0.0617
31584SOL    HW1 6731  12.744  10.923  10.213  1.1196  0.2284  0.9410
31584SOL    HW2 6732  12.778  11.070  10.203  0.0419  0.4027 -0.5487
31585SOL     OW 6733   6.499  13.808   3.250  0.0434 -0.6103 -0.5616
31585SOL    HW1 6734   6.465  13.720   3.269  1.9713 -1.3768 -0.4514
31585SOL    HW2 6735   6.472  13.825   3.159 -2.8646 -0.0149  0.2988
31586SOL     OW 6736   3.561   4.895  13.478 -0.5268 -0.3075 -0.0544
31586SOL    HW1 6737   3.604   4.822  13.432 -0.5402 -0.7315  0.5933
31586SOL    HW2 6738   3.530   4.856  13.560  0.2761  0.6464  0.7237
31587SOL     OW 6739   8.928   1.611   4.088 -0.1981 -0.0520 -0.1126
31587SOL    HW1 6740   8.932   1.686   4.029  0.5780  0.1843  0.2219
31587SOL    HW2 6741   8.937   1.649   4.176 -0.3010 -0.4907  0.0922
31588SOL     OW 6742   8.007  13.002   0.743  0.1524  0.1524  0.1038
31588SOL    HW1 6743   7.945  12.950   0.693 -0.1240  1.5845 -1.1224
31588SOL    HW2 6744   8.062  13.044   0.677  0.8166  0.8502  1.0650
31589SOL     OW 6745   4.644   4.879  12.118  0.4501  0.6359 -0.2568
31589SOL    HW1 6746   4.580   4.836  12.175  2.3243 -1.4578  0.3892
31589SOL    HW2 6747   4.626   4.843  12.031  0.8508 -0.1034 -0.0406
31590SOL     OW 6748  11.844   7.101   6.649 -0.3316 -0.3186 -0.0673
31590SOL    HW1 6749  11.897   7.027   6.620 -1.6378 -1.4131  0.2212
31590SOL    HW2 6750  11.871   7.117   6.739  0.8969  0.4454 -0.5596
31591SOL     OW 6751  12.449   1.385   6.822 -0.1052 -0.1555 -0.3235
31591SOL    HW1 6752  12.506   1.381   6.745 -0.5957 -0.9704 -0.6508
31591SOL    HW2 6753  12.390   1.310   6.813  0.1878 -0.5939  1.1255
31592SOL     OW 6754   0.051   0.226   4.796 -0.3301 -0.1748  0.2644
31592SOL    HW1 6755  -0.015   0.285   4.834  0.6595  2.1471 -1.3856
31592SOL    HW2 6756   0.011   0.193   4.716  0.2031  0.6715 -0.3664
31593SOL     OW 6757   2.916   0.966   9.338 -0.3457 -0.1902  0.2455
31593SOL    HW1 6758   2.886   0.884   9.299 -0.6829 -0.6396  1.3979
31593SOL    HW2 6759   2.934   0.944   9.430  0.7263  0.7472  0.2810
31594SOL     OW 6760  13.009  12.851   5.611 -0.1642  0.6551 -0.9402
31594SOL    HW1 6761  13.056  12.921   5.566  1.0731  2.3333  2.5407
31594SOL    HW2 6762  12.923  12.888   5.630 -0.2466  0.4485 -0.9172
31595SOL     OW 6763  12.038   1.605   5.921  0.4659 -0.2306  0.0014
31595SOL    HW1 6764  12.115   1.615   5.865  2.1422  2.5080  2.4712
31595SOL    HW2 6765  12.073   1.572   6.004 -1.3486 -0.8952  0.5462
31596SOL     OW 6766   2.985   5.593   2.164  0.2523 -0.2193 -0.1479
31596SOL    HW1 6767   2.919   5.524   2.171  0.0368 -0.0419 -0.3864
31596SOL    HW2 6768   3.068   5.549   2.181 -0.0356 -0.2073  1.3864
31597SOL     OW 6769  10.474  11.705   7.024 -0.2029  0.0721 -0.3530
31597SOL    HW1 6770  10.535  11.726   6.953 -0.0360  0.5744 -0.0705
31597SOL    HW2 6771  10.531  11.697   7.101 -0.2898 -1.2073 -0.4019
31598SOL     OW 6772   6.291   3.852   7.356 -0.0136 -0.2869 -0.4136
31598SOL    HW1 6773   6.341   3.809   7.426 -0.4521 -0.8948 -0.4688
31598SOL    HW2 6774   6.206   3.807   7.356 -0.4607  0.5311 -0.5191
31599SOL     OW 6775  14.010  10.623  12.296  0.3542  0.4507  0.2379
31599SOL    HW1 6776  14.000  10.649  12.387 -0.5409  0.1170  0.2453
31599SOL    HW2 6777  13.953  10.684  12.248 -0.0178 -0.0619  0.0216
31600SOL     OW 6778   0.458   8.445   5.732 -0.0932  0.5240  0.1376
31600SOL    HW1 6779   0.547   8.421   5.757  0.1096  1.3523  0.2353
31600SOL    HW2 6780   0.440   8.392   5.654  0.0931 -0.4100  0.7078
31601SOL     OW 6781   3.989  10.645  13.814  0.2142 -0.1148  0.1275
31601SOL    HW1 6782   4.052  10.662  13.744  0.8424  0.9181  0.9041
31601SOL    HW2 6783   4.000  10.719  13.874  0.6550 -1.6543  2.0127
31602SOL     OW 6784   9.884   0.079  13.339  0.2549  0.1966  0.2961
31602SOL    HW1 6785   9.961   0.131  13.363  0.0453  0.2121  0.9555
31602SOL    HW2 6786   9.899  -0.007  13.379 -0.5337  0.5100  1.3075
31603SOL     OW 6787   5.697  13.847   8.886  0.0268  0.8908 -0.3172
31603SOL    HW1 6788   5.779  13.801   8.869 -0.0687  0.2061  0.9830
31603SOL    HW2 6789   5.634  13.807   8.826  0.2681  0.2725 -0.1597
31604SOL     OW 6790   7.045   3.626  13.336  0.4707  0.7288 -0.5919
31604SOL    HW1 6791   7.037   3.567  13.412  0.9519 -0.0229 -1.1106
31604SOL    HW2 6792   7.084   3.705  13.372 -0.6215  0.9424  0.2114
31605SOL     OW 6793  11.476   4.678   6.541 -0.0369  0.1941  0.1238
31605SOL    HW1 6794  11.432   4.594   6.539  0.5428 -0.1190 -1.4212
31605SOL    HW2 6795  11.490   4.697   6.634 -2.6684 -0.0478  0.6217
31606SOL     OW 6796   4.563   3.507   0.387  0.3486  0.0773 -0.0433
31606SOL    HW1 6797   4.563   3.412   0.381  1.5755  0.0190  0.6136
31606SOL    HW2 6798   4.619   3.527   0.461  0.8501  1.3366 -0.7216
31607SOL     OW 6799  10.657   8.693  11.642 -0.7110 -0.3309  0.6574
31607SOL    HW1 6800  10.749   8.666  11.643 -0.3052  0.9513  0.4161
31607SOL    HW2 6801  10.633   8.693  11.549 -0.3417  1.2059  0.5360
31608SOL     OW 6802   0.756   5.799   2.998  0.0611 -0.0328  0.2238
31608SOL    HW1 6803   0.729   5.861   3.067 -1.0013  2.0881 -1.9564
31608SOL    HW2 6804   0.811   5.851   2.940 -2.0318 -0.6680 -2.4929
31609SOL     OW 6805   8.122   2.530   5.623  0.5409  0.4730 -0.6769
31609SOL    HW1 6806   8.066   2.608   5.620 -0.0194  0.1022 -0.1078
31609SOL    HW2 6807   8.193   2.553   5.682 -0.7593 -0.1410  1.2529
31610SOL     OW 6808  13.082  13.706  11.982  0.3026  0.0609 -0.0288
31610SOL    HW1 6809  13.042  13.620  11.990 -1.6480  0.8461 -0.6772
31610SOL    HW2 6810  13.164  13.700  12.031 -0.8481 -1.4981  1.8094
31611SOL     OW 6811   9.809   1.261  11.986  0.2811  0.1667 -0.2469
31611SOL    HW1 6812   9.793   1.267  12.080  1.5389  0.8282 -0.0485
31611SOL    HW2 6813   9.760   1.334  11.948 -1.2385 -0.8243 -0.2818
31612SOL     OW 6814  12.398   1.084   0.990  0.4367  0.3234  0.1600
31612SOL    HW1 6815  12.327   1.131   1.033 -0.7671 -0.8123 -0.5237
31612SOL    HW2 6816  12.388   1.102   0.897  0.1064 -1.0318 -0.0938
31613SOL     OW 6817   9.853   5.053   9.417 -0.5763 -0.3181  0.3426
31613SOL    HW1 6818   9.852   4.974   9.362  0.5603 -0.3924  0.4145
31613SOL    HW2 6819   9.860   5.020   9.507  1.6031 -0.1470  0.2909
31614SOL     OW 6820   6.290   4.640   9.256  0.2266  0.3654 -0.3736
31614SOL    HW1 6821   6.366   4.584   9.239 -2.3651 -2.7611 -3.2309
31614SOL    HW2 6822   6.298   4.710   9.191  0.1866 -0.5699 -1.4226
31615SOL     OW 6823   3.132   3.713   8.074 -0.0905 -0.4391  0.3462
31615SOL    HW1 6824   3.155   3.646   8.010 -1.0911 -1.2586  0.8105
31615SOL    HW2 6825   3.210   3.724   8.127  0.8524  0.4481 -1.1456
31616SOL     OW 6826  11.648  10.782   8.974  0.4618  0.2377 -0.1485
31616SOL    HW1 6827  11.594  10.718   9.019  1.6955 -0.3079  0.6024
31616SOL    HW2 6828  11.617  10.780   8.883 -1.5620  0.8294  0.4871
31617SOL     OW 6829   0.947  12.837   8.775  1.0167  0.3276  0.5557
31617SOL    HW1 6830   1.018  12.892   8.742 -0.8179  2.2118 -0.4403
31617SOL    HW2 6831   0.950  12.758   8.721  2.1306  0.5210  0.3172
31618SOL     OW 6832   0.632   7.322  12.559 -1.3378 -0.0071  0.2347
31618SOL    HW1 6833   0.669   7.254  12.615 -0.2915  0.6301  0.3380
31618SOL    HW2 6834   0.612   7.394  12.618 -1.7295  0.0591  0.0201
31619SOL     OW 6835   2.560   1.240   1.373  0.4630 -0.1396  0.2640
31619SOL    HW1 6836   2.571   1.145   1.365  0.4933 -0.1453  0.3809
31619SOL    HW2 6837   2.628   1.276   1.316 -0.2166 -0.1978 -0.6132
31620SOL     OW 6838   2.931   9.935   6.919  0.1208  0.1785 -0.1213
31620SOL    HW1 6839   2.868   9.988   6.969 -2.0645  0.2210 -2.7105
31620SOL    HW2 6840   2.929   9.972   6.831  1.2455 -1.9628 -1.1178
31621SOL     OW 6841   1.138  11.813   5.534  0.0459  0.7002 -0.2030
31621SOL    HW1 6842   1.195  11.875   5.487  1.3092 -0.6207 -0.4968
31621SOL    HW2 6843   1.198  11.750   5.573 -1.1671  0.0430  0.6772
31622SOL     OW 6844   8.292   0.349   9.024 -0.1269  0.2664  0.7676
31622SOL    HW1 6845   8.301   0.308   9.110 -0.5647  1.5179  1.4479
31622SOL    HW2 6846   8.216   0.307   8.985 -0.0959 -0.1267  1.1245
31623SOL     OW 6847  13.230   0.319   0.121 -0.1538  0.6600 -1.1036
31623SOL    HW1 6848  13.245   0.251   0.186  1.2358  0.3989 -1.6646
31623SOL    HW2 6849  13.309   0.319   0.066 -0.9372  1.4136 -2.2984
31624SOL     OW 6850   1.528   5.775   0.971  0.7192  0.5717 -0.0661
31624SOL    HW1 6851   1.589   5.702   0.980  0.2492  0.2016  0.2064
31624SOL    HW2 6852   1.527   5.795   0.878  0.4493 -0.1232 -0.2134
31625SOL     OW 6853   5.647   5.453   9.848 -0.0437 -0.7762  0.0016
31625SOL    HW1 6854   5.665   5.420   9.760 -1.4272 -2.2381  0.2226
31625SOL    HW2 6855   5.732   5.450   9.892  0.8349  0.7311 -1.4772
31626SOL     OW 6856  12.725   2.822  10.686  0.6779 -0.4315 -0.6241
31626SOL    HW1 6857  12.713   2.915  10.702  1.2440 -0.3646 -0.5689
31626SOL    HW2 6858  12.698   2.779  10.767  0.5523 -0.3057 -0.5999
31627SOL     OW 6859  12.952  11.192   8.152 -0.0777  0.3180  0.1773
31627SOL    HW1 6860  12.892  11.242   8.095  0.9693  0.9445 -0.4163
31627SOL    HW2 6861  12.971  11.112   8.102  0.3223  0.5654 -0.0768
31628SOL     OW 6862  10.675   9.245  12.901 -0.8170  0.1274 -0.2457
31628SOL    HW1 6863  10.746   9.199  12.946 -1.0910 -2.2825 -2.0296
31628SOL    HW2 6864  10.601   9.241  12.962  0.3176  2.1082  1.3721
31629SOL     OW 6865   0.417   5.200   3.561  0.2000  0.4338 -0.1399
31629SOL    HW1 6866   0.441   5.199   3.468 -1.1936 -2.0065 -0.5509
31629SOL    HW2 6867   0.322   5.193   3.562  0.3076 -2.0143  1.4142
31630SOL     OW 6868  11.482   5.842   1.109  0.7318  0.2378  0.0153
31630SOL    HW1 6869  11.441   5.887   1.183 -0.9263 -0.9402 -0.1280
31630SOL    HW2 6870  11.418   5.848   1.039  1.8708  0.4742 -1.0314
31631SOL     OW 6871  11.098   8.294  10.943 -0.5606  0.1014  0.4548
31631SOL    HW1 6872  11.138   8.213  10.976  0.0591  0.6035  0.9529
31631SOL    HW2 6873  11.124   8.361  11.006  1.1510  1.2201 -1.3192
31632SOL     OW 6874  11.304  12.979  12.789  0.8590 -0.3964  0.2797
31632SOL    HW1 6875  11.319  12.888  12.764  2.0620 -0.0099 -0.5264
31632SOL    HW2 6876  11.211  12.994  12.773  0.7679 -1.3253 -0.1185
31633SOL     OW 6877   7.794  10.159   6.698  0.2574 -0.3579  0.2095
31633SOL    HW1 6878   7.854  10.115   6.637 -0.9047 -2.0646  0.2419
31633SOL    HW2 6879   7.794  10.104   6.776 -0.0382  0.5807  0.8981
31634SOL     OW 6880  13.299  10.569   8.290 -0.5736 -0.2816  0.4434
31634SOL    HW1 6881  13.267  10.563   8.379 -1.5148 -0.2929  0.1154
31634SOL    HW2 6882  13.261  10.650   8.255  0.5764  0.2436  0.3505
31635SOL     OW 6883   3.900   6.993   0.703 -0.3067 -0.7266  0.2669
31635SOL    HW1 6884   3.849   6.976   0.782 -0.2622  1.0870  0.7277
31635SOL    HW2 6885   3.848   6.956   0.632 -0.2390 -2.5803  1.1447
31636SOL     OW 6886   2.082   6.252   5.758  0.5720  0.3133 -0.0893
31636SOL    HW1 6887   2.060   6.327   5.814 -0.4068 -0.9495  1.2992
31636SOL    HW2 6888   1.998   6.228   5.718  0.4900 -1.1362  0.9015
31637SOL     OW 6889   1.901   3.564   0.134 -0.4691  0.4752  0.0025
31637SOL    HW1 6890   1.962   3.593   0.202 -1.2939  0.4585  0.7698
31637SOL    HW2 6891   1.955   3.554   0.055  0.6341 -0.1932  0.8237
31638SOL     OW 6892  13.241   0.604   1.569 -0.4418  0.2774  0.9973
31638SOL    HW1 6893  13.303   0.547   1.522  1.2400  1.4649  1.6920
31638SOL    HW2 6894  13.217   0.671   1.505 -0.1577  0.4275  1.0455
31639SOL     OW 6895  13.841  12.108   0.299 -0.3039  0.1154 -0.4708
31639SOL    HW1 6896  13.768  12.125   0.359  1.2037 -0.3464  1.5698
31639SOL    HW2 6897  13.875  12.023   0.325  0.2524 -0.2259 -2.1856
31640SOL     OW 6898  10.849  11.602   6.087  0.6527  0.1796 -0.1796
31640SOL    HW1 6899  10.809  11.547   6.155  1.5872 -1.6903 -1.0428
31640SOL    HW2 6900  10.880  11.679   6.134 -2.4574  1.0012  0.7755
31641SOL     OW 6901   1.446   4.419  11.323  0.2087  0.4117  0.4378
31641SOL    HW1 6902   1.459   4.488  11.389  2.1161  0.3312  0.2058
31641SOL    HW2 6903   1.422   4.467  11.243 -1.7058  0.5355  1.0335
31642SOL     OW 6904  11.291  10.698   0.815 -0.0613 -0.4644 -0.2734
31642SOL    HW1 6905  11.285  10.658   0.901  0.4354 -2.0463 -0.9424
31642SOL    HW2 6906  11.373  10.748   0.817 -0.4547  0.1725  0.4182
31643SOL     OW 6907   3.578   5.934  11.718  0.2908 -0.5713  0.5205
31643SOL    HW1 6908   3.602   6.021  11.687  1.6645 -0.1408  2.6425
31643SOL    HW2 6909   3.488   5.943  11.748  0.3618  0.0647  0.5536
31644SOL     OW 6910   8.205   2.405   1.628 -0.5322  0.2670  0.1344
31644SOL    HW1 6911   8.295   2.405   1.662 -0.5860  1.2291  0.3122
31644SOL    HW2 6912   8.205   2.339   1.559 -0.3374 -1.5944  1.7947
31645SOL     OW 6913  13.204  10.709   0.426 -0.3077 -0.3406  0.0586
31645SOL    HW1 6914  13.119  10.711   0.470 -0.1250  0.1427  0.3883
31645SOL    HW2 6915  13.193  10.768   0.351 -0.0537  0.2370  0.4773
31646SOL     OW 6916  11.321   3.348   5.741 -0.0174 -0.5731 -0.0228
31646SOL    HW1 6917  11.237   3.384   5.769 -0.6155 -1.3638 -0.7369
31646SOL    HW2 6918  11.372   3.341   5.822 -1.2278 -1.5876  0.6958
31647SOL     OW 6919  11.084   4.556   4.255 -0.2853 -0.0219  0.1325
31647SOL    HW1 6920  11.082   4.606   4.336  0.1204 -1.0420  0.7944
31647SOL    HW2 6921  11.084   4.465   4.283  0.2123 -0.3912 -1.0012
31648SOL     OW 6922   5.125  11.665  10.367  0.4801  0.0658 -0.3446
31648SOL    HW1 6923   5.087  11.577  10.376  1.4736 -0.3323  0.0844
31648SOL    HW2 6924   5.072  11.720  10.424 -0.6554 -0.0731 -1.2087
31649SOL     OW 6925   8.130   1.055   8.896  0.5127 -0.2059  0.4069
31649SOL    HW1 6926   8.051   1.074   8.844  0.9631 -0.0423 -0.2272
31649SOL    HW2 6927   8.149   1.138   8.941  0.3920 -0.2120  0.4703
31650SOL     OW 6928  11.038   5.312   5.539  0.3219 -0.1689 -0.4684
31650SOL    HW1 6929  10.944   5.301   5.555  0.1194 -0.5070 -1.8386
31650SOL    HW2 6930  11.080   5.269   5.614 -0.5939  1.5876  1.1522
31651SOL     OW 6931   8.730  12.932   0.064 -0.0736  0.2187 -0.2209
31651SOL    HW1 6932   8.776  12.929   0.147  1.9997 -1.7085 -1.3186
31651SOL    HW2 6933   8.784  12.989   0.008 -0.7541  0.4740 -0.6398
31652SOL     OW 6934  11.429  13.263   2.366  0.4358 -0.1989 -0.8799
31652SOL    HW1 6935  11.333  13.263   2.371  0.4395 -1.3367 -0.7372
31652SOL    HW2 6936  11.456  13.186   2.415  1.4889  0.7240  0.0341
31653SOL     OW 6937   5.225   5.954   2.410  0.4371  0.1396 -0.4065
31653SOL    HW1 6938   5.183   6.032   2.374  1.0874  1.4873  1.5686
31653SOL    HW2 6939   5.314   5.982   2.430  0.5774 -1.0095  0.7119
31654SOL     OW 6940   6.187   4.727   6.765  0.4218  0.1368 -0.6140
31654SOL    HW1 6941   6.202   4.822   6.773 -0.1969  0.2696 -0.9233
31654SOL    HW2 6942   6.092   4.719   6.763  0.4686 -0.5215 -0.3363
31655SOL     OW 6943   3.226   6.437  10.395  0.2948 -0.0293  0.7084
31655SOL    HW1 6944   3.214   6.502  10.326 -1.5949 -1.1544 -0.0949
31655SOL    HW2 6945   3.221   6.488  10.476 -0.9392  0.9031  0.0860
31656SOL     OW 6946   5.200  12.798   4.950 -0.0724 -0.3978  0.0716
31656SOL    HW1 6947   5.167  12.794   5.040 -0.3957  0.7379  0.0256
31656SOL    HW2 6948   5.122  12.814   4.897  0.0199 -1.7333 -0.5081
31657SOL     OW 6949   1.417   4.614   0.240  0.3488 -0.2150 -0.1961
31657SOL    HW1 6950   1.391   4.680   0.176  3.3781 -0.0050 -1.3988
31657SOL    HW2 6951   1.442   4.664   0.317 -1.8535 -0.3734  0.6975
31658SOL     OW 6952   8.370  12.810   0.550  0.2233 -0.0735  0.2926
31658SOL    HW1 6953   8.379  12.740   0.485  1.3099  0.2313  0.1004
31658SOL    HW2 6954   8.346  12.765   0.631  1.2135 -0.7133  0.2473
31659SOL     OW 6955  10.726   7.979   0.902  0.6837  0.0991  0.0873
31659SOL    HW1 6956  10.697   7.954   0.814  0.1994 -1.2708  0.6191
31659SOL    HW2 6957  10.752   8.071   0.893  0.1618  0.1297 -1.3658
31660SOL     OW 6958   0.070   0.498  13.880 -0.2735 -0.5940  0.1107
31660SOL    HW1 6959   0.116   0.420  13.909  1.1800  0.0458 -0.3577
31660SOL    HW2 6960   0.130   0.570  13.900 -1.7332  0.4491  0.8718
31661SOL     OW 6961   0.478   3.925   9.221 -0.4254 -0.1585 -0.4718
31661SOL    HW1 6962   0.467   3.886   9.308  3.2917  1.7494  1.0665
31661SOL    HW2 6963   0.521   3.857   9.170  1.4855  0.0928  0.6778
31662SOL     OW 6964   8.434  10.447  11.698 -0.2500  0.5493 -0.6106
31662SOL    HW1 6965   8.446  10.537  11.725  1.0780  1.1080 -2.7828
31662SOL    HW2 6966   8.507  10.430  11.639 -0.7768 -1.7794 -0.6881
31663SOL     OW 6967   2.990   0.381   6.511  0.2602  0.2013 -0.1249
31663SOL    HW1 6968   3.076   0.338   6.516  0.1420 -0.0672 -0.3443
31663SOL    HW2 6969   2.941   0.347   6.586  0.7795  1.3483  0.7666
31664SOL     OW 6970   2.461  13.058   2.076 -0.2967  0.6174  0.2845
31664SOL    HW1 6971   2.480  12.995   2.145 -1.1111 -0.4900 -0.4850
31664SOL    HW2 6972   2.534  13.048   2.014 -2.9200 -3.5305 -2.5941
31665SOL     OW 6973   9.962  13.894  12.901 -0.3839 -0.2180 -0.5231
31665SOL    HW1 6974   9.894  13.952  12.934 -0.4473 -0.6818  0.1714
31665SOL    HW2 6975   9.996  13.939  12.823 -0.4667  0.7190 -0.0302
31666SOL     OW 6976  10.720   7.371   5.277 -0.2291  0.6764 -0.1150
31666SOL    HW1 6977  10.716   7.285   5.235 -0.7143  0.7333 -0.1883
31666SOL    HW2 6978  10.794   7.364   5.338 -0.4800  0.0907  0.1327
31667SOL     OW 6979   1.655   6.115   9.525 -0.1759  0.9195  0.7334
31667SOL    HW1 6980   1.607   6.032   9.529  1.0736  0.0093 -1.2536
31667SOL    HW2 6981   1.587   6.182   9.533 -1.4081 -0.2970  0.8721
31668SOL     OW 6982   0.050   4.117   9.968  0.0901 -0.1297 -0.2647
31668SOL    HW1 6983   0.061   4.061  10.045 -0.6424 -0.1205 -0.1460
31668SOL    HW2 6984   0.067   4.059   9.894  0.7975 -0.1385 -0.1040
31669SOL     OW 6985   1.304  12.835   8.827  0.7501 -0.1182 -0.1535
31669SOL    HW1 6986   1.375  12.778   8.856 -0.2343 -0.6117  1.3947
31669SOL    HW2 6987   1.292  12.813   8.734  2.1688 -0.4775 -0.2755
31670SOL     OW 6988   3.550  13.054   9.298  0.0522 -0.0789 -0.4403
31670SOL    HW1 6989   3.594  12.976   9.266  1.7637  0.8747 -0.5339
31670SOL    HW2 6990   3.615  13.124   9.289 -0.2822  0.7825  2.5222
31671SOL     OW 6991  12.051   3.445  10.713  0.5640 -0.2754 -0.2994
31671SOL    HW1 6992  12.111   3.421  10.783  0.8005  0.6022 -0.1949
31671SOL    HW2 6993  11.964   3.431  10.749  0.6864  0.1332  0.1519
31672SOL     OW 6994   5.198   0.934  13.905 -0.3426  0.3342 -0.0745
31672SOL    HW1 6995   5.275   0.876  13.910 -1.5655 -1.3036  0.5149
31672SOL    HW2 6996   5.178   0.955  13.996 -0.4795  0.9335 -0.2384
31673SOL     OW 6997  13.568  13.958   1.124  0.2551  0.3394 -0.1776
31673SOL    HW1 6998  13.577  14.046   1.086  0.9406  0.1958 -0.3487
31673SOL    HW2 6999  13.494  13.966   1.184 -0.6764  0.6500 -1.3260
31674SOL     OW 7000   3.584   9.098   2.101 -0.4873 -0.3947  0.3378
31674SOL    HW1 7001   3.656   9.147   2.060  0.7952 -0.7270  2.0695
31674SOL    HW2 7002   3.509   9.157   2.097  0.1480  0.3916 -0.5340
31675SOL     OW 7003   3.688   7.206   8.167 -0.5245  0.2044  0.0209
31675SOL    HW1 7004   3.717   7.151   8.094 -1.3971 -0.6337  0.2885
31675SOL    HW2 7005   3.626   7.267   8.127 -0.0761  0.5577 -0.1488
31676SOL     OW 7006   5.996   7.476   0.371 -0.1156  0.0772  0.1006
31676SOL    HW1 7007   5.939   7.418   0.423 -1.6442  1.8706  0.5249
31676SOL    HW2 7008   6.028   7.421   0.300 -0.2703 -1.6812  1.3179
31677SOL     OW 7009  10.339   1.814   9.827  0.8174 -0.5480  0.0495
31677SOL    HW1 7010  10.279   1.752   9.868 -0.1498 -0.3178 -0.9747
31677SOL    HW2 7011  10.319   1.898   9.868 -0.0390 -0.3484 -0.7436
31678SOL     OW 7012  10.711  11.309  11.293  0.0390 -0.0917 -0.1615
31678SOL    HW1 7013  10.646  11.376  11.276  1.0963  0.5847 -1.7879
31678SOL    HW2 7014  10.794  11.357  11.298  0.6662 -1.1410 -0.1566
31679SOL     OW 7015   8.862  11.265   9.814  0.4059 -0.4654  0.1631
31679SOL    HW1 7016   8.854  11.337   9.751  1.5996 -0.0350  0.4763
31679SOL    HW2 7017   8.861  11.308   9.900  2.1656 -0.6847  0.3297
31680SOL     OW 7018  10.919   9.587   7.164 -0.1861  0.2892 -0.4378
31680SOL    HW1 7019  10.847   9.643   7.138 -0.3209  1.9047  2.9180
31680SOL    HW2 7020  10.880   9.524   7.224  1.0154  0.7016  0.8250
31681SOL     OW 7021   7.382   1.616   0.674  0.3870  0.2771 -0.0162
31681SOL    HW1 7022   7.296   1.639   0.639  0.4361 -1.3378 -1.3016
31681SOL    HW2 7023   7.367   1.533   0.720  1.5717 -1.0052 -1.8495
31682SOL     OW 7024   0.592  13.731   1.873  0.2228 -0.3494 -0.1174
31682SOL    HW1 7025   0.593  13.663   1.806 -0.0684  0.3961 -0.8967
31682SOL    HW2 7026   0.682  13.736   1.903  0.4708 -0.3135 -0.8493
31683SOL     OW 7027  12.378  13.076   5.581 -0.3103  0.1977  0.0009
31683SOL    HW1 7028  12.381  12.994   5.629  0.8162 -0.4901 -1.1887
31683SOL    HW2 7029  12.284  13.097   5.575 -0.6199 -1.0729  0.1716
31684SOL     OW 7030   3.975  13.712  12.860  0.1612  0.0510 -0.0220
31684SOL    HW1 7031   4.031  13.729  12.784 -0.4698  0.7252 -0.3460
31684SOL    HW2 7032   3.905  13.777  12.853 -0.2611 -0.3080  0.7820
31685SOL     OW 7033   2.065  12.038  12.877 -0.0561 -0.1033  0.0666
31685SOL    HW1 7034   1.993  11.988  12.915 -0.2758 -0.1928 -0.4670
31685SOL    HW2 7035   2.099  12.089  12.950 -1.2078  0.5882  0.1591
31686SOL     OW 7036   5.822   2.256   9.599  0.0260  0.1283 -0.3789
31686SOL    HW1 7037   5.781   2.182   9.643  0.9613  0.0357  0.3760
31686SOL    HW2 7038   5.751   2.319   9.586 -0.3962 -0.0967  0.7279
31687SOL     OW 7039  13.898   8.126   1.431 -0.8698 -0.1441  0.3348
31687SOL    HW1 7040  13.979   8.076   1.448  0.5603  1.4905 -1.2880
31687SOL    HW2 7041  13.903   8.149   1.339 -1.9898  2.0948  0.7736
31688SOL     OW 7042  13.246   9.907   7.601  0.1887 -0.5805  0.1879
31688SOL    HW1 7043  13.212   9.935   7.686 -0.0057 -1.5492  0.4380
31688SOL    HW2 7044  13.216   9.974   7.540  0.7615  0.4037  0.9505
31689SOL     OW 7045   7.618   4.060  12.417  0.1448 -0.0809 -0.3308
31689SOL    HW1 7046   7.592   4.048  12.325 -3.2661 -1.1581  0.6026
31689SOL    HW2 7047   7.650   3.973  12.443 -0.7765 -0.3554 -0.0520
31690SOL     OW 7048   6.738   1.511   8.905 -0.0522 -0.2549 -0.1601
31690SOL    HW1 7049   6.810   1.573   8.919 -0.5692  0.0602  1.1936
31690SOL    HW2 7050   6.776   1.425   8.923 -0.3184  0.0163  1.8385
31691SOL     OW 7051  12.832   1.542   3.965 -0.5053  0.5488  0.2787
31691SOL    HW1 7052  12.858   1.569   3.877 -1.5208  1.9576  0.3650
31691SOL    HW2 7053  12.888   1.468   3.985  0.5687  0.9417 -1.0911
31692SOL     OW 7054   3.204   4.848   7.836 -0.2244 -0.0632  0.5192
31692SOL    HW1 7055   3.232   4.795   7.761 -0.4547  0.8361 -0.2106
31692SOL    HW2 7056   3.111   4.866   7.819  0.4788  2.8844 -0.6806
31693SOL     OW 7057   8.102   2.914   9.735 -0.5251 -0.5685  0.1553
31693SOL    HW1 7058   8.163   2.870   9.795 -0.8794 -1.0231  0.1945
31693SOL    HW2 7059   8.158   2.964   9.676 -0.0667 -1.5835 -0.2938
31694SOL     OW 7060   2.683   8.810   9.268  0.4606  0.2723 -0.2375
31694SOL    HW1 7061   2.658   8.722   9.297 -1.7753  0.9270 -0.0218
31694SOL    HW2 7062   2.776   8.817   9.291  0.4093 -1.6336  0.7224
31695SOL     OW 7063   4.720   7.402   9.388 -0.0992  0.0201  0.2470
31695SOL    HW1 7064   4.678   7.339   9.330  0.7128 -1.0583  0.8028
31695SOL    HW2 7065   4.732   7.480   9.334 -0.6765 -0.4561 -0.5892
31696SOL     OW 7066  10.221  11.604  13.318 -0.0624  0.7256  0.0341
31696SOL    HW1 7067  10.170  11.534  13.360 -0.7126  0.0667 -1.7638
31696SOL    HW2 7068  10.186  11.609  13.229  3.1704  0.0730 -1.4061
31697SOL     OW 7069  13.023   1.798   8.908 -0.3980 -0.2089 -0.7743
31697SOL    HW1 7070  12.970   1.798   8.988 -1.8371 -0.4133 -1.6916
31697SOL    HW2 7071  13.112   1.817   8.938 -1.0178  0.3516  0.7952
31698SOL     OW 7072  12.193   2.951   3.104  0.5567  0.6213 -0.3099
31698SOL    HW1 7073  12.263   2.892   3.079  1.5849  1.1759  1.1512
31698SOL    HW2 7074  12.183   2.939   3.198 -2.6185 -0.8046 -0.6793
31699SOL     OW 7075   3.324   2.256   4.932  0.1644 -0.0537 -0.7226
31699SOL    HW1 7076   3.397   2.201   4.903 -1.5741 -1.7450 -2.2074
31699SOL    HW2 7077   3.293   2.298   4.851 -0.3861  0.8132 -0.0780
31700SOL     OW 7078   8.266   4.476  12.760  0.6479  0.2380 -0.0879
31700SOL    HW1 7079   8.310   4.455  12.842 -2.5417 -1.4008  1.4117
31700SOL    HW2 7080   8.211   4.552  12.781 -0.5567 -0.4856 -0.5043
31701SOL     OW 7081  11.558   6.137   8.107  0.2608  0.1412  0.3711
31701SOL    HW1 7082  11.623   6.067   8.109 -0.5636 -0.6343  0.5451
31701SOL    HW2 7083  11.609   6.216   8.088  0.9759 -0.7385 -1.6031
31702SOL     OW 7084   5.080   1.027   6.942 -0.0274  0.3673  0.5505
31702SOL    HW1 7085   5.049   1.118   6.946 -0.5347  0.1616  2.1245
31702SOL    HW2 7086   5.004   0.975   6.965 -0.0079 -0.5592 -1.3383
31703SOL     OW 7087  11.069   5.267  12.918  0.2512 -0.2805  0.0435
31703SOL    HW1 7088  11.002   5.334  12.905  0.7808  0.3574  0.5227
31703SOL    HW2 7089  11.124   5.273  12.840 -0.2123 -0.7683 -0.3254
31704SOL     OW 7090   1.626  10.227   4.008 -0.3317 -0.3682  0.0201
31704SOL    HW1 7091   1.633  10.144   4.055 -0.1102 -1.3212 -1.6157
31704SOL    HW2 7092   1.568  10.209   3.934  0.8497  0.5209 -1.1801
31705SOL     OW 7093   7.574   4.053  11.842 -0.9077  0.1085 -0.3619
31705SOL    HW1 7094   7.630   4.115  11.888  1.6856 -1.6735 -0.8994
31705SOL    HW2 7095   7.506   4.107  11.803  0.4687  2.4486  0.2682
31706SOL     OW 7096   7.670   9.769  13.386 -0.7359 -0.0503 -0.4866
31706SOL    HW1 7097   7.577   9.789  13.392 -1.1784 -2.1047  0.5712
31706SOL    HW2 7098   7.709   9.845  13.343 -2.9379  0.6916 -1.2891
31707SOL     OW 7099  10.240  11.673   0.100 -0.2026 -0.6227 -0.3827
31707SOL    HW1 7100  10.212  11.704   0.014 -1.7781  1.2430  0.7122
31707SOL    HW2 7101  10.216  11.580   0.102 -1.4901 -0.3403 -1.4454
31708SOL     OW 7102   0.796  12.454   7.825 -0.0245  0.1500 -0.1940
31708SOL    HW1 7103   0.868  12.517   7.827  0.4840 -0.4216 -0.0869
31708SOL    HW2 7104   0.783  12.429   7.917 -0.2206  0.0965 -0.2354
31709SOL     OW 7105  11.976   5.732   2.069  0.0584 -0.6204  0.0328
31709SOL    HW1 7106  12.020   5.809   2.106 -0.9354 -0.2707  0.5456
31709SOL    HW2 7107  12.046   5.671   2.049  0.7854  0.0086  0.6068
31710SOL     OW 7108   9.039  10.414   4.383 -0.0276 -0.1945  0.1858
31710SOL    HW1 7109   9.118  10.468   4.372  0.0863 -0.7305 -2.2099
31710SOL    HW2 7110   8.971  10.476   4.408  0.8199  0.5069  0.8540
31711SOL     OW 7111   0.238  11.791   7.074  0.3938 -0.0408 -0.4915
31711SOL    HW1 7112   0.252  11.701   7.106  0.0864  1.2611  4.0376
31711SOL    HW2 7113   0.145  11.807   7.088  0.5509  1.1350 -0.7431
31712SOL     OW 7114   3.934   0.957   7.236  0.1497  0.3954 -0.1716
31712SOL    HW1 7115   4.025   0.953   7.264 -0.3683  0.1014  1.6185
31712SOL    HW2 7116   3.914   0.868   7.206  1.1598  1.0770 -3.2242
31713SOL     OW 7117   6.177   7.119   2.211 -0.2919 -0.4414  0.0217
31713SOL    HW1 7118   6.097   7.171   2.210  0.8817  1.4583 -0.6891
31713SOL    HW2 7119   6.185   7.085   2.122 -1.1471 -2.0778  0.5269
31714SOL     OW 7120   0.128   0.140   3.863  0.2295  0.8961  0.0835
31714SOL    HW1 7121   0.129   0.206   3.794 -1.1500  0.3418 -0.5116
31714SOL    HW2 7122   0.037   0.110   3.865 -0.0876  1.7603  2.9932
31715SOL     OW 7123   2.519   8.308   6.185 -0.2809 -0.6486 -0.0223
31715SOL    HW1 7124   2.544   8.263   6.105 -0.8676  0.4478 -0.8458
31715SOL    HW2 7125   2.441   8.262   6.216  0.3180 -1.4766  0.2935
31716SOL     OW 7126  10.139  11.298  13.697 -0.6285 -0.7536 -0.0503
31716SOL    HW1 7127  10.112  11.210  13.723 -1.3049  0.4257  3.9500
31716SOL    HW2 7128  10.225  11.310  13.737 -0.2273  0.2377 -1.1317
31717SOL     OW 7129   7.089  11.969  11.886  0.0209  0.3403  0.0120
31717SOL    HW1 7130   7.111  11.973  11.793  0.1138  1.1935  0.0599
31717SOL    HW2 7131   7.165  11.927  11.926 -0.4620 -1.0000 -0.4135
31718SOL     OW 7132  12.295   9.956   7.922 -0.1910 -0.0950  0.5319
31718SOL    HW1 7133  12.272  10.048   7.916 -0.7369 -0.1403  1.6935
31718SOL    HW2 7134  12.307   9.940   8.016 -1.8239 -1.6125  0.5305
31719SOL     OW 7135   3.590   1.392   5.425 -0.4937 -0.4864  0.3849
31719SOL    HW1 7136   3.618   1.453   5.356 -1.7256 -0.5859 -0.2302
31719SOL    HW2 7137   3.645   1.315   5.413 -0.6741 -0.4873 -0.4796
31720SOL     OW 7138   2.898   4.569   8.402 -0.0433  0.1036  0.1058
31720SOL    HW1 7139   2.875   4.660   8.384 -0.0748  0.0077 -0.3662
31720SOL    HW2 7140   2.974   4.574   8.459 -0.4522  0.4254  0.6238
31721SOL     OW 7141   8.067   2.082  13.069 -0.3070 -0.0128 -0.0783
31721SOL    HW1 7142   8.000   2.014  13.078  0.8349 -1.5476 -2.2810
31721SOL    HW2 7143   8.134   2.042  13.013  1.3519  2.2801  0.1423
31722SOL     OW 7144   3.021   4.809  11.352 -0.0856 -0.1666  0.5539
31722SOL    HW1 7145   2.936   4.838  11.383 -0.7904 -0.1703 -1.2154
31722SOL    HW2 7146   3.011   4.715  11.338  0.3062 -0.2227  0.6332
31723SOL     OW 7147   1.993  13.615   5.234  0.1678  0.4025  0.0519
31723SOL    HW1 7148   1.928  13.605   5.304 -0.3656 -2.6217 -0.7207
31723SOL    HW2 7149   1.942  13.636   5.156  0.2823 -0.2309 -0.2032
31724SOL     OW 7150  13.539   1.697  13.798  0.2933 -0.5847 -0.3117
31724SOL    HW1 7151  13.542   1.792  13.798 -1.6464 -0.4850  0.6267
31724SOL    HW2 7152  13.583   1.671  13.717  2.1243  1.0163  0.0947
31725SOL     OW 7153   0.398   9.813   8.200 -0.0258 -0.0665 -0.7041
31725SOL    HW1 7154   0.438   9.785   8.282 -0.7494 -0.8006 -0.5895
31725SOL    HW2 7155   0.461   9.874   8.162  1.2124 -1.2060 -0.5499
31726SOL     OW 7156  12.530  11.863  11.517 -1.0662 -0.3957 -0.5588
31726SOL    HW1 7157  12.462  11.883  11.453 -1.8174 -1.0527  0.0149
31726SOL    HW2 7158  12.546  11.769  11.506 -1.3398 -0.5546  0.3422
31727SOL     OW 7159  12.656   1.875   4.519 -0.1802 -0.3220 -0.1621
31727SOL    HW1 7160  12.728   1.886   4.581 -0.5864 -0.0852  0.2654
31727SOL    HW2 7161  12.625   1.785   4.533  0.9862 -0.9494 -1.3743
31728SOL     OW 7162  12.096   9.261   3.752  0.0606 -0.2296  0.0188
31728SOL    HW1 7163  12.119   9.242   3.843  1.4462  1.5932  0.1301
31728SOL    HW2 7164  12.123   9.352   3.740 -2.8662  0.5595 -1.3709
31729SOL     OW 7165   5.674  13.772   9.342 -0.2442 -0.0882 -0.1036
31729SOL    HW1 7166   5.750  13.778   9.284 -0.1550 -1.2374 -0.1392
31729SOL    HW2 7167   5.605  13.819   9.296  0.3143  0.5620 -0.2938
31730SOL     OW 7168   5.905   0.731  11.791  0.9479  0.5199  0.2252
31730SOL    HW1 7169   5.832   0.776  11.835  1.9279  1.0664  1.3383
31730SOL    HW2 7170   5.867   0.699  11.709 -0.4473  1.1201  0.6039
31731SOL     OW 7171   7.398   6.144   7.663 -0.2535 -0.0490 -0.0741
31731SOL    HW1 7172   7.362   6.232   7.664  0.3454  0.1923  1.1987
31731SOL    HW2 7173   7.342   6.097   7.600 -1.5199  0.8266  0.3440
31732SOL     OW 7174  10.349   9.187   3.242  0.0453  0.2252  0.1309
31732SOL    HW1 7175  10.365   9.277   3.216 -0.2093  0.3834  0.5037
31732SOL    HW2 7176  10.434   9.153   3.269  0.0038  0.6114  0.7590
31733SOL     OW 7177  12.476   4.106   1.052 -0.3417  0.0262  0.4882
31733SOL    HW1 7178  12.498   4.184   1.102 -1.1016  0.7917 -0.3572
31733SOL    HW2 7179  12.427   4.138   0.977 -0.2678 -1.2216 -0.1169
31734SOL     OW 7180   5.783  10.909   3.592 -0.0589  0.4030  0.2315
31734SOL    HW1 7181   5.841  10.958   3.532  0.0900 -1.6002 -1.3729
31734SOL    HW2 7182   5.842  10.873   3.658  0.1828  0.3231 -0.0276
31735SOL     OW 7183   8.583   2.159   8.285 -0.8309  0.2189 -0.2746
31735SOL    HW1 7184   8.532   2.168   8.204  0.5690  1.2281 -1.0754
31735SOL    HW2 7185   8.671   2.189   8.262 -0.9486  2.9354  2.2064
31736SOL     OW 7186   5.730  11.408  10.594 -0.4723  0.4947 -0.3010
31736SOL    HW1 7187   5.643  11.446  10.601 -0.3441  1.1617 -1.9509
31736SOL    HW2 7188   5.788  11.470  10.638 -0.8623 -0.2648  1.3815
31737SOL     OW 7189   9.174  13.837  12.175  0.0978  0.0939 -0.4334
31737SOL    HW1 7190   9.130  13.796  12.249  0.5692 -0.1544 -0.2849
31737SOL    HW2 7191   9.116  13.909  12.150 -0.2414 -0.0399 -0.0531
31738SOL     OW 7192  11.931   0.288   8.692  0.2738  0.0066  0.1495
31738SOL    HW1 7193  11.889   0.366   8.655  0.6882 -0.0150 -0.3673
31738SOL    HW2 7194  11.885   0.215   8.652  1.4793 -0.0302 -1.2380
31739SOL     OW 7195   8.000  12.259   2.847 -0.3708  0.2066  0.7816
31739SOL    HW1 7196   7.917  12.280   2.890 -1.0402  1.3936 -0.9914
31739SOL    HW2 7197   8.034  12.343   2.817  0.6358 -0.4519  0.0151
31740SOL     OW 7198   3.728   6.780   0.295 -0.6760  0.3651  0.2054
31740SOL    HW1 7199   3.794   6.737   0.240 -0.3601  0.1187  0.7679
31740SOL    HW2 7200   3.653   6.720   0.295 -0.6137  0.2878  0.1790
31741SOL     OW 7201   8.236  12.492   1.926 -0.6772  0.1141 -0.4483
31741SOL    HW1 7202   8.298  12.478   1.998 -1.3574  0.3773  0.1952
31741SOL    HW2 7203   8.172  12.554   1.961 -1.9974 -1.0724 -0.6842
31742SOL     OW 7204   4.933   7.159   8.797 -0.3438  0.3525  0.2242
31742SOL    HW1 7205   4.914   7.083   8.853 -0.2648  1.9537  2.5466
31742SOL    HW2 7206   4.910   7.235   8.851  1.3339  2.0554 -1.3323
31743SOL     OW 7207   6.636  10.052   0.998  0.7749 -0.1269  0.2419
31743SOL    HW1 7208   6.588   9.972   1.018  0.6882  0.0836  0.9064
31743SOL    HW2 7209   6.695  10.027   0.927 -2.2738  0.3068 -2.6993
31744SOL     OW 7210   5.235   3.759   6.425 -0.0306  0.9424  0.2802
31744SOL    HW1 7211   5.214   3.811   6.502 -1.2472  0.8675  0.0213
31744SOL    HW2 7212   5.317   3.795   6.393 -1.0272  2.9950 -0.1278
31745SOL     OW 7213  11.207   8.420  11.172 -0.2508 -0.1963  0.6169
31745SOL    HW1 7214  11.144   8.379  11.232 -0.7886 -0.5219 -0.1466
31745SOL    HW2 7215  11.288   8.369  11.183 -0.7807 -1.2207  0.0025
31746SOL     OW 7216   2.266  11.368   0.828  0.1388  0.1288  0.2521
31746SOL    HW1 7217   2.182  11.353   0.786  0.9307 -0.7291 -1.1006
31746SOL    HW2 7218   2.292  11.282   0.861  0.4239  0.4209  0.8161
31747SOL     OW 7219  13.859   1.807   3.419  0.2286 -0.4333  0.1586
31747SOL    HW1 7220  13.844   1.712   3.419  0.2768 -0.4447  1.0941
31747SOL    HW2 7221  13.801   1.840   3.350  0.8718 -1.2368 -0.8000
31748SOL     OW 7222   1.836  11.061   5.701 -0.1709  0.2113  0.3206
31748SOL    HW1 7223   1.914  11.013   5.674 -0.7809 -0.8065  0.3001
31748SOL    HW2 7224   1.792  11.084   5.619 -0.0130  0.5814  0.3381
31749SOL     OW 7225   8.192  12.972   9.614  0.6064 -0.4462  0.3351
31749SOL    HW1 7226   8.157  12.885   9.632  0.0442 -0.3490 -0.2700
31749SOL    HW2 7227   8.120  13.032   9.631  1.3539  0.0316  1.9720
31750SOL     OW 7228   1.807   6.366  12.770 -0.4871  0.0139  0.2263
31750SOL    HW1 7229   1.760   6.449  12.777 -1.2837 -0.4414  0.4094
31750SOL    HW2 7230   1.810   6.348  12.676 -1.8875 -0.6092  0.2722
31751SOL     OW 7231   8.279   9.781   6.598 -0.0618 -0.5590 -0.2427
31751SOL    HW1 7232   8.185   9.765   6.592 -0.3129  0.9112 -0.5491
31751SOL    HW2 7233   8.290   9.873   6.574  1.3340 -0.3964  0.8926
31752SOL     OW 7234  10.834  12.564   2.325  0.0875  0.3312 -0.7083
31752SOL    HW1 7235  10.829  12.482   2.375  1.1656 -0.5861 -2.0425
31752SOL    HW2 7236  10.924  12.567   2.293 -0.0040  1.9447 -0.8644
31753SOL     OW 7237   7.209   1.930   9.631 -0.1751 -0.9405  0.0723
31753SOL    HW1 7238   7.215   1.836   9.647  1.4949 -0.6373  1.4797
31753SOL    HW2 7239   7.279   1.968   9.683 -0.3479  1.0372 -1.0419
31754SOL     OW 7240   7.453   9.780   7.110  0.0089 -0.5625 -0.3367
31754SOL    HW1 7241   7.410   9.711   7.160 -1.4875  1.2701  1.0246
31754SOL    HW2 7242   7.382   9.836   7.080  1.1631  0.2184 -1.7505
31755SOL     OW 7243  11.890   1.758  10.392 -0.6115 -0.3332  0.1538
31755SOL    HW1 7244  11.920   1.732  10.305 -2.2812 -1.2001 -0.1967
31755SOL    HW2 7245  11.931   1.695  10.451  0.9870  0.6013  0.1062
31756SOL     OW 7246   6.620   8.046   4.710 -0.0882 -0.0616  0.1468
31756SOL    HW1 7247   6.597   8.116   4.649 -0.2725 -0.2924 -0.0520
31756SOL    HW2 7248   6.583   8.074   4.794  2.3910  1.5238  0.8154
31757SOL     OW 7249   6.166   1.329  10.778  0.9410 -0.4107  0.5473
31757SOL    HW1 7250   6.106   1.283  10.837  0.3317  0.2094  0.4219
31757SOL    HW2 7251   6.239   1.269  10.767  0.2635 -1.2571  0.5709
31758SOL     OW 7252   0.002   6.729   9.507 -0.0025  0.0638  0.7710
31758SOL    HW1 7253  -0.020   6.636   9.504 -1.3947  0.3681 -2.0207
31758SOL    HW2 7254  -0.075   6.770   9.549  0.5405  0.0024  1.8538
31759SOL     OW 7255   3.751   7.594   1.136  0.2706  0.3882  0.2548
31759SOL    HW1 7256   3.772   7.680   1.097 -1.4698  1.0390  0.6553
31759SOL    HW2 7257   3.732   7.614   1.228 -2.0432 -0.0782 -0.0712
31760SOL     OW 7258   2.312   6.446   2.778 -0.4226 -0.2196 -0.0460
31760SOL    HW1 7259   2.267   6.481   2.701 -1.7676  0.2310  0.9099
31760SOL    HW2 7260   2.310   6.517   2.842 -0.0166 -0.8330  0.6693
31761SOL     OW 7261   8.152   5.361   6.055  0.4074  0.3225 -0.2756
31761SOL    HW1 7262   8.073   5.312   6.035 -0.6138  0.5782  2.6542
31761SOL    HW2 7263   8.223   5.297   6.045 -0.5105 -0.7680  0.0274
31762SOL     OW 7264   6.084   7.639   9.041  0.1463 -0.2044  0.1681
31762SOL    HW1 7265   6.062   7.698   9.113  1.5999  0.1422  0.3465
31762SOL    HW2 7266   6.045   7.680   8.964 -0.3913  0.0474  0.5645
31763SOL     OW 7267  10.734   6.323   1.515  0.2888  0.0010 -0.8092
31763SOL    HW1 7268  10.665   6.378   1.477  0.4169  0.2082 -0.7355
31763SOL    HW2 7269  10.799   6.384   1.548  0.1743 -0.1788 -0.2351
31764SOL     OW 7270  10.892   0.738   8.106  0.0581  0.2035 -0.0098
31764SOL    HW1 7271  10.886   0.826   8.071 -3.1832 -0.1693 -0.7087
31764SOL    HW2 7272  10.983   0.712   8.092  0.5213  2.5615 -1.9047
31765SOL     OW 7273   0.310   3.211   2.290  0.0043  0.0539 -0.0779
31765SOL    HW1 7274   0.300   3.306   2.302 -0.9738 -0.0523  0.0141
31765SOL    HW2 7275   0.337   3.178   2.375 -2.7877 -0.1434  0.8368
31766SOL     OW 7276   5.558   2.184   5.306  0.0300  0.4559 -0.6868
31766SOL    HW1 7277   5.547   2.269   5.350 -0.5930  0.1442 -0.2146
31766SOL    HW2 7278   5.622   2.138   5.360 -0.0647  0.4142 -0.6078
31767SOL     OW 7279   1.400   2.581   4.117  0.1797 -0.1795 -0.1258
31767SOL    HW1 7280   1.336   2.548   4.055 -1.2479 -0.7947  1.6060
31767SOL    HW2 7281   1.451   2.503   4.143  0.3685 -0.0441 -0.0882
31768SOL     OW 7282  11.053   2.674   8.492  0.1861 -0.0170  0.1097
31768SOL    HW1 7283  11.016   2.687   8.579 -2.6435 -1.4446 -0.7517
31768SOL    HW2 7284  10.982   2.636   8.441  1.3757  1.6532 -3.1334
31769SOL     OW 7285   5.454  13.737   9.807 -0.3795 -0.3984  0.0551
31769SOL    HW1 7286   5.512  13.766   9.736 -0.5084 -1.2211 -0.3999
31769SOL    HW2 7287   5.405  13.815   9.832 -1.4249 -0.4083 -1.7945
31770SOL     OW 7288   2.575   1.681   3.611  0.2850  0.4717 -0.2861
31770SOL    HW1 7289   2.620   1.766   3.606  1.1712 -0.0244 -0.9261
31770SOL    HW2 7290   2.561   1.656   3.520  0.2692 -0.1978 -0.1047
31771SOL     OW 7291   9.701   3.031  11.204 -0.6418 -0.2651  0.2558
31771SOL    HW1 7292   9.726   3.121  11.186  1.1957 -0.7391  0.1448
31771SOL    HW2 7293   9.706   3.023  11.299 -0.9523 -0.2036  0.2764
31772SOL     OW 7294   0.986  13.443   1.285  0.2694 -0.4681 -0.2367
31772SOL    HW1 7295   1.001  13.383   1.358  1.1842 -0.3679 -0.3418
31772SOL    HW2 7296   0.939  13.390   1.220  2.0562 -1.4195 -0.8082
31773SOL     OW 7297  11.431   4.223   9.275 -0.7800 -0.2441 -0.2284
31773SOL    HW1 7298  11.378   4.197   9.351 -0.8179  2.1990  0.6606
31773SOL    HW2 7299  11.517   4.241   9.310 -1.0249  1.7871 -0.5504
31774SOL     OW 7300   1.966  13.278  13.833 -0.5495 -0.0179  0.1776
31774SOL    HW1 7301   1.883  13.256  13.789 -0.6065  0.0039  0.2727
31774SOL    HW2 7302   2.016  13.197  13.832 -1.2036 -0.4706  1.5053
31775SOL     OW 7303   0.463   4.123  10.526 -0.1102 -0.2371  0.6807
31775SOL    HW1 7304   0.373   4.127  10.558 -0.5506 -0.4855 -0.4801
31775SOL    HW2 7305   0.508   4.192  10.574 -1.1251  0.4471  0.6817
31776SOL     OW 7306  12.328   5.567   0.625  0.9233  0.6052  0.1513
31776SOL    HW1 7307  12.330   5.490   0.568  0.9502 -0.0233  0.9891
31776SOL    HW2 7308  12.337   5.641   0.565  1.0856 -0.0492 -0.6497
31777SOL     OW 7309  11.287  10.048   2.910  0.0420 -0.1795 -0.1827
31777SOL    HW1 7310  11.364  10.076   2.860 -0.8764  0.4211 -1.3060
31777SOL    HW2 7311  11.246  10.130   2.938 -0.3112 -0.4926  0.2330
31778SOL     OW 7312   5.703  11.846   4.343 -0.4622  0.3784 -0.5802
31778SOL    HW1 7313   5.649  11.830   4.421  0.4353 -0.7512 -0.1770
31778SOL    HW2 7314   5.641  11.881   4.278 -1.2245  1.3185  0.6170
31779SOL     OW 7315   2.819   5.317   5.793 -0.1841  0.8319  0.3007
31779SOL    HW1 7316   2.746   5.337   5.734  0.6736 -0.6989 -1.3879
31779SOL    HW2 7317   2.884   5.386   5.775  0.7654 -0.5144 -1.9044
31780SOL     OW 7318   9.344   7.621   6.597 -0.3794 -0.6628  0.0337
31780SOL    HW1 7319   9.321   7.713   6.613 -0.3539 -0.7836  0.7942
31780SOL    HW2 7320   9.280   7.592   6.532 -0.1755 -0.0143 -0.4735
31781SOL     OW 7321   2.744   2.162   3.278 -0.1433  0.4493 -0.3809
31781SOL    HW1 7322   2.653   2.147   3.302 -0.1982  0.4385 -0.5885
31781SOL    HW2 7323   2.746   2.253   3.248 -0.4858 -0.0794 -2.1383
31782SOL     OW 7324   4.583   5.184  13.961 -0.0732 -0.2430  0.1721
31782SOL    HW1 7325   4.632   5.260  13.993 -0.9049  0.1939  0.4307
31782SOL    HW2 7326   4.635   5.153  13.886  0.1514  0.7302 -0.0999
31783SOL     OW 7327   4.994   4.652   0.861  0.2170  0.3643  0.3369
31783SOL    HW1 7328   4.900   4.658   0.874  0.0668  0.7127 -0.7592
31783SOL    HW2 7329   5.029   4.732   0.900 -0.1059  0.9121 -0.4634
31784SOL     OW 7330   6.422   2.303   8.169  0.1194 -0.3735  0.2129
31784SOL    HW1 7331   6.416   2.396   8.190 -1.1722  0.0804 -1.9079
31784SOL    HW2 7332   6.512   2.280   8.192 -0.2719  0.6445  3.3618
31785SOL     OW 7333  13.361   7.964   3.607  0.5899 -0.9325  0.4245
31785SOL    HW1 7334  13.344   7.962   3.512 -2.2427 -0.6270  0.8318
31785SOL    HW2 7335  13.322   7.884   3.640  2.5539 -1.5981  1.2672
31786SOL     OW 7336   0.866  12.694  12.908 -0.2488 -0.3383  0.3803
31786SOL    HW1 7337   0.840  12.698  13.000 -0.0283 -0.3253  0.4426
31786SOL    HW2 7338   0.961  12.681  12.910 -0.0813  0.7205  0.1553
31787SOL     OW 7339   0.960   4.718   0.539  0.1299 -0.3183  0.1844
31787SOL    HW1 7340   0.867   4.698   0.534  0.3893 -1.3087 -1.3786
31787SOL    HW2 7341   0.969   4.771   0.618 -1.8702  0.4983 -0.0766
31788SOL     OW 7342  13.699   7.659   0.464  0.3112  0.3931 -0.1402
31788SOL    HW1 7343  13.719   7.700   0.548 -0.8961  0.0911  0.3237
31788SOL    HW2 7344  13.782   7.658   0.417  0.9947  0.6273  1.0241
31789SOL     OW 7345  10.343   2.340   7.969  0.4914  0.0093 -0.2726
31789SOL    HW1 7346  10.332   2.260   7.919 -0.1794 -0.0007 -0.1156
31789SOL    HW2 7347  10.263   2.391   7.953  0.4271  0.1668  0.4772
31790SOL     OW 7348   5.704   5.296   6.937 -0.1355  0.6257  0.0469
31790SOL    HW1 7349   5.650   5.238   6.989  0.7664  0.3326  0.6753
31790SOL    HW2 7350   5.793   5.283   6.970  0.4010  0.7278 -1.2954
31791SOL     OW 7351   1.677   8.308   8.848 -0.1520 -0.1452 -0.2700
31791SOL    HW1 7352   1.649   8.369   8.780 -0.9234 -1.1107 -0.8264
31791SOL    HW2 7353   1.733   8.245   8.802 -0.9206 -0.9783 -0.0877
31792SOL     OW 7354  12.951  13.408   8.580  0.2641  0.0307  0.6128
31792SOL    HW1 7355  12.952  13.344   8.510  1.6296 -0.4902  1.0618
31792SOL    HW2 7356  13.009  13.371   8.647  2.4858  2.4274  0.1887
31793SOL     OW 7357   7.218   2.992   9.472 -0.6848  0.3710  0.0015
31793SOL    HW1 7358   7.219   3.040   9.389 -0.5035  1.2915  0.5186
31793SOL    HW2 7359   7.305   3.008   9.509 -0.7190 -0.1413  0.3021
31794SOL     OW 7360  12.625   1.655  11.688 -0.0398  0.2248  0.0018
31794SOL    HW1 7361  12.611   1.637  11.594 -0.5995 -1.4726  0.3634
31794SOL    HW2 7362  12.650   1.570  11.724  0.6275  0.9632  1.3216
31795SOL     OW 7363   7.213   8.842   2.820 -0.5576 -0.6372 -0.0074
31795SOL    HW1 7364   7.227   8.875   2.731  3.7038  3.1412  1.6810
31795SOL    HW2 7365   7.144   8.898   2.856  0.4901  0.5419  0.1996
31796SOL     OW 7366   8.441   0.286   5.887 -0.1471  0.0725 -0.2142
31796SOL    HW1 7367   8.449   0.334   5.969  0.1641 -1.3078  0.6001
31796SOL    HW2 7368   8.359   0.317   5.849  0.1077  1.3247  0.2034
31797SOL     OW 7369  10.005   0.697   3.359  0.4152  0.2263 -1.0894
31797SOL    HW1 7370   9.918   0.722   3.389  0.7810  0.2565 -0.0221
31797SOL    HW2 7371   9.995   0.605   3.334  0.3234 -0.0965  0.0841
31798SOL     OW 7372   2.599  13.777   5.441  0.2529 -0.1530 -0.2630
31798SOL    HW1 7373   2.644  13.814   5.365  0.7429 -1.2129 -0.5071
31798SOL    HW2 7374   2.617  13.683   5.436 -0.7595 -0.3999  0.4711
31799SOL     OW 7375   5.349   9.439   1.741 -0.1859  0.1044  0.1894
31799SOL    HW1 7376   5.258   9.466   1.730 -0.1516  0.7342  1.2464
31799SOL    HW2 7377   5.344   9.364   1.801 -0.1212 -0.9204 -1.0622
31800SOL     OW 7378   7.000   3.931  12.943  0.6438  0.4656  0.0382
31800SOL    HW1 7379   6.983   3.857  12.884  0.0155 -0.3112  1.1471
31800SOL    HW2 7380   7.073   3.903  12.997 -1.1296 -0.4411  2.1313
31801SOL     OW 7381   3.683   8.528  11.480 -0.0372  0.2792  0.0008
31801SOL    HW1 7382   3.730   8.604  11.512 -0.0229 -0.5565  2.1018
31801SOL    HW2 7383   3.741   8.490  11.414  1.5685  0.1461  1.4263
31802SOL     OW 7384  10.133  11.355   6.115 -0.4954 -0.0355 -0.2968
31802SOL    HW1 7385  10.122  11.445   6.148  0.2853  0.1302 -0.4764
31802SOL    HW2 7386  10.162  11.366   6.025  0.1555 -0.4623 -0.1457
31803SOL     OW 7387   5.991   5.795  13.315  0.1417  0.1205  0.4877
31803SOL    HW1 7388   5.956   5.868  13.263  1.5675  0.2195 -0.3600
31803SOL    HW2 7389   5.914   5.758  13.358 -0.8200  1.1652 -0.2732
31804SOL     OW 7390   5.563  13.534   0.651  0.8840 -0.4452 -0.5342
31804SOL    HW1 7391   5.579  13.581   0.733 -0.4825  0.5074 -0.7954
31804SOL    HW2 7392   5.630  13.466   0.650  2.3280  0.8948  0.3103
31805SOL     OW 7393  11.246   9.161   8.097  0.3469  0.1210  0.1932
31805SOL    HW1 7394  11.186   9.178   8.024 -1.3424 -1.9492  1.0053
31805SOL    HW2 7395  11.203   9.201   8.173  2.0437  2.1730  0.1758
31806SOL     OW 7396   3.292   8.849   8.249 -0.1450  0.1354  0.0188
31806SOL    HW1 7397   3.241   8.871   8.326  0.1334  0.3286  0.1509
31806SOL    HW2 7398   3.293   8.929   8.197 -0.4602 -0.0389 -0.2618
31807SOL     OW 7399  11.251   3.605   4.780 -0.3000 -0.3747  0.1973
31807SOL    HW1 7400  11.257   3.632   4.871  0.1616  0.0782  0.0353
31807SOL    HW2 7401  11.235   3.510   4.784  1.0464 -0.5919  0.7320
31808SOL     OW 7402   2.088   1.390  11.359  0.3480 -0.1227 -0.3766
31808SOL    HW1 7403   2.174   1.431  11.364 -0.1237  0.8762 -0.3132
31808SOL    HW2 7404   2.104   1.304  11.321  1.8436 -1.2914  2.5448
31809SOL     OW 7405   7.149   0.818   4.506  0.6878 -0.4536  0.4052
31809SOL    HW1 7406   7.078   0.847   4.449 -0.2470  0.1596  1.8241
31809SOL    HW2 7407   7.203   0.895   4.519  1.3526 -0.7921 -0.2591
31810SOL     OW 7408  11.232   7.456   7.666  0.8300 -0.2690  0.7484
31810SOL    HW1 7409  11.192   7.429   7.748 -1.6618 -0.2554 -0.3771
31810SOL    HW2 7410  11.210   7.386   7.605  1.8496  0.1546 -0.1405
31811SOL     OW 7411   7.473   1.677  12.424  0.2866  0.3064  0.0641
31811SOL    HW1 7412   7.409   1.728  12.374  0.5629  1.0715  0.4798
31811SOL    HW2 7413   7.489   1.729  12.503  1.8190  0.4047 -0.2791
31812SOL     OW 7414   0.874   0.875   1.798 -0.0299  0.2224 -0.0606
31812SOL    HW1 7415   0.803   0.916   1.847  0.4492  1.6976 -0.5388
31812SOL    HW2 7416   0.928   0.948   1.768  0.7960 -0.7639 -1.0856
31813SOL     OW 7417   7.781  11.281   9.554  0.0058  0.0874 -0.5791
31813SOL    HW1 7418   7.795  11.366   9.512  0.1501 -0.3168 -1.3672
31813SOL    HW2 7419   7.821  11.218   9.494  0.6618 -0.4611  0.4117
31814SOL     OW 7420   9.180   4.220   7.171  0.7021  0.5266 -0.3532
31814SOL    HW1 7421   9.225   4.285   7.117 -0.1713 -0.1655 -1.9951
31814SOL    HW2 7422   9.161   4.148   7.111  0.7341 -0.8090  1.1845
31815SOL     OW 7423   2.145   5.183  10.290 -0.2697  0.2400  0.0713
31815SOL    HW1 7424   2.101   5.253  10.337  2.0120  0.7987  1.5338
31815SOL    HW2 7425   2.096   5.104  10.314 -1.6593  1.0517  0.0043
31816SOL     OW 7426   4.477   8.687   9.744 -0.2713 -0.2281  0.5692
31816SOL    HW1 7427   4.484   8.628   9.668  0.7029  0.2136  0.3043
31816SOL    HW2 7428   4.387   8.720   9.740 -1.1844 -2.4437  1.2891
31817SOL     OW 7429   0.415   1.495  12.617 -0.1604 -0.0430  0.4483
31817SOL    HW1 7430   0.447   1.545  12.692 -0.1638  0.5636  0.0565
31817SOL    HW2 7431   0.320   1.497  12.626 -0.2615  1.5377 -0.4854
31818SOL     OW 7432  11.675   3.755  11.850 -0.3195 -0.0005  0.1661
31818SOL    HW1 7433  11.640   3.818  11.913  0.5891  2.3639 -1.5635
31818SOL    HW2 7434  11.600   3.703  11.823 -0.9216 -0.3630  2.3288
31819SOL     OW 7435   8.801   2.394  12.528 -0.1195 -0.7037 -0.0114
31819SOL    HW1 7436   8.835   2.406  12.617  0.6349 -1.2979 -0.2071
31819SOL    HW2 7437   8.706   2.406  12.537  0.0546  0.2862  0.6763
31820SOL     OW 7438  10.334   1.234   1.843  0.3137 -0.0880  0.6255
31820SOL    HW1 7439  10.276   1.311   1.842  0.5200  0.0694 -0.9198
31820SOL    HW2 7440  10.346   1.215   1.936 -1.1081  0.7167  1.0141
31821SOL     OW 7441  10.888  13.941   9.846 -0.0555  0.5061 -0.3277
31821SOL    HW1 7442  10.956  13.917   9.783  1.2745  0.6990  0.9708
31821SOL    HW2 7443  10.896  14.035   9.855  0.0954  0.4236  0.4697
31822SOL     OW 7444  11.674   6.378   1.064  0.1832 -0.6556  0.4132
31822SOL    HW1 7445  11.634   6.389   0.979 -3.0105 -1.1009  1.7268
31822SOL    HW2 7446  11.733   6.453   1.074 -2.3672  1.6168 -0.6146
31823SOL     OW 7447  12.021   9.686   5.022 -0.4176  0.5184  0.0139
31823SOL    HW1 7448  12.014   9.780   5.041  0.8816  1.2209 -2.4896
31823SOL    HW2 7449  11.990   9.678   4.932 -0.4073 -1.4612  0.1456
31824SOL     OW 7450   7.233   4.425   1.860  0.3421  0.1649 -0.1466
31824SOL    HW1 7451   7.142   4.402   1.875  0.3713  0.5618  0.7029
31824SOL    HW2 7452   7.238   4.444   1.766 -0.3103 -0.4330 -0.3072
31825SOL     OW 7453   1.641  12.948   8.805 -0.6835 -0.6158 -1.2269
31825SOL    HW1 7454   1.620  12.875   8.863 -0.8746 -0.1205 -0.6638
31825SOL    HW2 7455   1.616  12.917   8.718  2.0458 -2.3628 -1.4830
31826SOL     OW 7456   3.407   1.627   3.067 -0.0145  0.2944  0.2093
31826SOL    HW1 7457   3.469   1.564   3.104  0.2265  0.6439  0.4065
31826SOL    HW2 7458   3.438   1.641   2.977  0.1885  0.4549  0.3013
31827SOL     OW 7459   3.480  10.966   7.151 -0.1319 -0.4016 -0.1563
31827SOL    HW1 7460   3.525  11.040   7.109 -0.1492 -0.1704  0.2235
31827SOL    HW2 7461   3.434  11.006   7.225  0.3651 -0.8935  0.4206
31828SOL     OW 7462   8.293  12.789   7.458  0.0547 -0.3638  0.2360
31828SOL    HW1 7463   8.201  12.763   7.447 -0.2782 -0.2777  2.4297
31828SOL    HW2 7464   8.290  12.884   7.468  0.7317  0.0159 -2.4990
31829SOL     OW 7465   4.892   0.412  10.192  0.7299  0.1140 -0.3583
31829SOL    HW1 7466   4.879   0.506  10.177 -1.2902 -0.2791 -1.3330
31829SOL    HW2 7467   4.931   0.380  10.111  1.4575  0.0959 -0.0109
31830SOL     OW 7468   7.963   5.783   5.881  0.2828 -0.0951 -0.5706
31830SOL    HW1 7469   7.870   5.782   5.862 -0.1092  1.2610  1.0632
31830SOL    HW2 7470   8.001   5.840   5.814  0.0741 -1.1482 -1.6212
31831SOL     OW 7471   2.858   7.630   4.432  0.8399 -0.4807  0.4863
31831SOL    HW1 7472   2.807   7.711   4.443  1.6502 -0.0491  1.1992
31831SOL    HW2 7473   2.817   7.587   4.357 -0.6150 -0.1891  1.0672
31832SOL     OW 7474   5.082   5.982   1.639  0.2041  0.2595  0.2875
31832SOL    HW1 7475   5.082   5.910   1.701 -1.5587  0.6412  0.7846
31832SOL    HW2 7476   5.086   5.941   1.553 -0.6298 -0.4284  0.5713
31833SOL     OW 7477   5.289  12.739   7.066 -0.2632  0.0024  0.1056
31833SOL    HW1 7478   5.331  12.712   7.147 -0.1794 -0.2512 -0.0215
31833SOL    HW2 7479   5.327  12.825   7.047  2.2184 -1.3022 -1.3914
31834SOL     OW 7480   6.464   5.816   4.444 -0.3596 -0.7126 -0.2990
31834SOL    HW1 7481   6.552   5.799   4.411  0.5197  0.2787  1.3909
31834SOL    HW2 7482   6.439   5.900   4.404  0.2602 -0.0524  0.6591
31835SOL     OW 7483   9.972   4.200  12.187  0.1078 -0.5215  0.6778
31835SOL    HW1 7484   9.898   4.233  12.136  0.9983  0.8402  0.1965
31835SOL    HW2 7485   9.981   4.264  12.258  2.1384  0.6138 -0.5036
31836SOL     OW 7486  12.534  13.499   9.470 -0.2928  0.6036  0.4612
31836SOL    HW1 7487  12.537  13.469   9.561  2.6922  0.3527  0.3781
31836SOL    HW2 7488  12.626  13.506   9.444 -1.0494  0.0442 -2.7697
31837SOL     OW 7489  10.774   1.684  12.712 -0.0282 -0.5212 -0.0018
31837SOL    HW1 7490  10.813   1.769  12.693  0.5942 -0.5712  1.0091
31837SOL    HW2 7491  10.708   1.702  12.779 -0.8034 -0.6523 -0.7050
31838SOL     OW 7492   5.009   6.042  12.495 -0.7659 -0.1408 -0.4980
31838SOL    HW1 7493   4.963   6.090  12.564  1.7314  0.2065  1.0655
31838SOL    HW2 7494   5.079   6.101  12.467  2.3465 -2.6026  1.4049
31839SOL     OW 7495  13.468  10.173   8.347  0.4850 -0.8504  0.2457
31839SOL    HW1 7496  13.391  10.212   8.388  0.8251  0.2965 -0.1352
31839SOL    HW2 7497  13.433  10.108   8.286 -0.0781 -1.5946  1.3503
31840SOL     OW 7498   4.165   4.052  11.717 -0.0777 -0.6829  0.0395
31840SOL    HW1 7499   4.141   4.071  11.807 -1.0194 -0.1287 -0.3191
31840SOL    HW2 7500   4.240   4.109  11.700  0.2486 -0.9574  0.5391
31841SOL     OW 7501  12.813   5.555   8.595 -0.3535 -0.1225  0.1782
31841SOL    HW1 7502  12.741   5.518   8.646 -0.0262 -0.0600  0.6975
31841SOL    HW2 7503  12.785   5.547   8.504 -0.0885 -2.0848  0.2260
31842SOL     OW 7504   0.740   4.330   3.957  0.0505 -0.8882  0.5454
31842SOL    HW1 7505   0.825   4.372   3.943  0.9754 -2.6430  0.6659
31842SOL    HW2 7506   0.721   4.344   4.050 -0.1345  0.0703  0.3782
31843SOL     OW 7507   1.010   6.563  12.448 -0.1869  0.4069  0.3606
31843SOL    HW1 7508   0.920   6.590  12.466 -1.1325 -3.2073  1.8755
31843SOL    HW2 7509   1.004   6.509  12.370  0.5151 -0.4791  0.9020
31844SOL     OW 7510  13.291  13.906   4.460  0.1805 -0.5717  0.5619
31844SOL    HW1 7511  13.215  13.848   4.448 -0.5844  0.7408 -1.5280
31844SOL    HW2 7512  13.253  13.988   4.492  0.8398 -0.1820  0.3636
31845SOL     OW 7513   0.799  11.739  10.389 -0.0930 -0.5137 -0.1915
31845SOL    HW1 7514   0.756  11.817  10.355  0.2911 -0.4450 -0.5263
31845SOL    HW2 7515   0.823  11.762  10.479  0.0610 -0.2350 -0.3065
31846SOL     OW 7516  12.934  11.961   3.190 -0.5358  0.0601 -0.4429
31846SOL    HW1 7517  12.900  12.011   3.115  0.0210 -1.0016 -1.4410
31846SOL    HW2 7518  12.891  11.876   3.182  0.4119 -0.4460 -0.2341
31847SOL     OW 7519  10.850   6.439   9.003 -0.2679  0.2777  0.6401
31847SOL    HW1 7520  10.819   6.361   8.957 -1.2087 -0.1652  1.9739
31847SOL    HW2 7521  10.935   6.459   8.963 -0.3859 -0.9465 -0.2573
31848SOL     OW 7522   6.120  12.187  12.427 -0.0694 -0.2582  0.3989
31848SOL    HW1 7523   6.147  12.264  12.379  0.1039 -0.4854  0.1301
31848SOL    HW2 7524   6.061  12.220  12.495  0.7542  0.2198  0.8946
31849SOL     OW 7525   3.280  12.359   7.292 -0.3076  0.3184  0.1059
31849SOL    HW1 7526   3.215  12.411   7.246 -0.5374 -0.2613 -0.2396
31849SOL    HW2 7527   3.363  12.405   7.278 -0.5605  0.7688  0.0908
31850SOL     OW 7528   1.453   3.526   2.235  0.3901 -0.5752 -0.3332
31850SOL    HW1 7529   1.432   3.440   2.271  0.6433 -0.4882  0.0274
31850SOL    HW2 7530   1.371   3.556   2.196  0.3299 -1.0290 -0.5679
31851SOL     OW 7531   0.233   0.215   9.362 -0.5509  0.0985  0.1128
31851SOL    HW1 7532   0.322   0.230   9.396 -0.1690 -0.7671 -0.4601
31851SOL    HW2 7533   0.221   0.121   9.369 -1.2270  0.1488 -0.3033
31852SOL     OW 7534  10.874   3.188   3.036  0.5942  0.0682 -0.0979
31852SOL    HW1 7535  10.792   3.234   3.017  0.1343 -1.0168 -0.8130
31852SOL    HW2 7536  10.935   3.257   3.062 -0.7473  0.8275  1.1740
31853SOL     OW 7537  10.500   3.069   3.518  0.6408  0.3149 -0.1971
31853SOL    HW1 7538  10.548   3.140   3.476 -0.2158  1.2730  0.4065
31853SOL    HW2 7539  10.568   3.016   3.560  1.3921  0.0734 -1.6674
31854SOL     OW 7540  11.506   1.318  10.296  0.2057  0.1664  0.3220
31854SOL    HW1 7541  11.506   1.302  10.202  1.4931  0.3049  0.2864
31854SOL    HW2 7542  11.428   1.273  10.327  0.4322 -0.9548 -0.6402
31855SOL     OW 7543   7.352  10.510   5.589  0.2459 -0.6099  0.0315
31855SOL    HW1 7544   7.302  10.464   5.522  1.7339 -0.8946 -0.9127
31855SOL    HW2 7545   7.338  10.603   5.569 -0.5437 -0.6663  0.2758
31856SOL     OW 7546   4.232   8.009   3.335  0.3734 -0.8182 -0.1575
31856SOL    HW1 7547   4.214   7.958   3.414  0.8309  1.6515  1.6857
31856SOL    HW2 7548   4.184   7.964   3.266 -0.8919 -2.5460  1.7102
31857SOL     OW 7549   7.772   4.028   8.951 -0.2899  0.1049  0.3215
31857SOL    HW1 7550   7.747   4.074   8.871  1.5225 -0.1462 -0.4409
31857SOL    HW2 7551   7.736   3.940   8.941  2.1581 -0.7763 -1.5371
31858SOL     OW 7552   0.625   0.510  10.907 -1.2660  0.2530 -0.2251
31858SOL    HW1 7553   0.638   0.523  10.813  0.4584  0.3205 -0.0114
31858SOL    HW2 7554   0.535   0.480  10.915 -1.4177  0.1681 -1.9080
31859SOL     OW 7555  10.469   1.493  12.875  0.0784  0.7952 -0.5429
31859SOL    HW1 7556  10.512   1.496  12.790  0.8325 -1.5840 -0.3301
31859SOL    HW2 7557  10.519   1.555  12.929  1.4101  0.2346 -1.0898
31860SOL     OW 7558   5.507   1.284   0.281  0.5607  0.0844  0.2219
31860SOL    HW1 7559   5.436   1.288   0.217 -0.0665  0.0759  0.8989
31860SOL    HW2 7560   5.586   1.267   0.229 -0.2305 -2.1116 -0.3730
31861SOL     OW 7561   4.418   0.277   8.680  0.3494 -0.0722  0.0187
31861SOL    HW1 7562   4.493   0.330   8.706  0.5792  0.0348 -0.8207
31861SOL    HW2 7563   4.428   0.195   8.729  0.1185  0.5565  1.1361
31862SOL     OW 7564   8.902  12.294   3.439  0.6740 -0.2697 -0.1112
31862SOL    HW1 7565   8.933  12.373   3.394  1.1426 -1.1354 -1.3951
31862SOL    HW2 7566   8.982  12.251   3.469  0.4486 -0.4295  0.2556
31863SOL     OW 7567  13.057   8.668  10.806 -0.4168 -0.2647 -0.1087
31863SOL    HW1 7568  13.116   8.687  10.733 -0.8550  0.9143 -0.1828
31863SOL    HW2 7569  12.979   8.630  10.766 -0.3635 -0.2943 -0.1843
31864SOL     OW 7570  10.247  10.335   2.420 -0.1859  0.6407  0.2572
31864SOL    HW1 7571  10.251  10.427   2.447 -0.2405  0.3440  1.3178
31864SOL    HW2 7572  10.154  10.317   2.409 -0.1196  1.1124 -1.4877
31865SOL     OW 7573  11.133  10.620   5.516 -0.1231  0.0295 -0.3610
31865SOL    HW1 7574  11.105  10.670   5.440 -0.1182 -2.7834 -2.3385
31865SOL    HW2 7575  11.223  10.596   5.498  0.0531 -0.2517  0.7948
31866SOL     OW 7576   5.847   3.289  13.368 -0.1273 -0.7844 -0.5788
31866SOL    HW1 7577   5.923   3.300  13.309  0.9587 -2.0639  0.5160
31866SOL    HW2 7578   5.857   3.359  13.433 -1.3847  0.6954 -1.8947
31867SOL     OW 7579   7.710   7.556  13.650  0.5486  0.5653 -0.2221
31867SOL    HW1 7580   7.662   7.633  13.680  2.0687  1.3627  0.2501
31867SOL    HW2 7581   7.667   7.531  13.568 -0.9159  0.9781  0.3889
31868SOL     OW 7582  12.901   5.905   3.337  0.2676  0.1490  0.1187
31868SOL    HW1 7583  12.824   5.879   3.286  0.3846  0.9865 -0.4947
31868SOL    HW2 7584  12.867   5.920   3.425  0.0791 -1.3925  0.3463
31869SOL     OW 7585   1.033   7.679   0.323 -0.3419 -0.7981 -0.0080
31869SOL    HW1 7586   1.069   7.594   0.348  0.3559 -0.6771 -0.5914
31869SOL    HW2 7587   1.023   7.726   0.406  0.0473 -1.1438  0.2377
31870SOL     OW 7588  13.388   4.583   6.822  0.3306 -0.2648 -0.2574
31870SOL    HW1 7589  13.433   4.667   6.833  0.4659 -0.3415 -0.2301
31870SOL    HW2 7590  13.355   4.562   6.909  1.2207 -0.7677 -0.0320
31871SOL     OW 7591   1.489   8.752   5.195 -0.0971 -0.0695  0.0833
31871SOL    HW1 7592   1.517   8.812   5.126  1.3782 -1.5007 -0.6394
31871SOL    HW2 7593   1.539   8.671   5.178  0.0562 -0.5835  2.6074
31872SOL     OW 7594  13.955   6.657   2.884  0.0664  0.5251 -0.4759
31872SOL    HW1 7595  13.962   6.630   2.975  1.0635  0.1914 -0.6432
31872SOL    HW2 7596  13.876   6.710   2.881 -1.7385 -1.9830 -0.0522
31873SOL     OW 7597   5.092   8.136  12.212 -0.0749 -0.1710  0.5228
31873SOL    HW1 7598   5.103   8.206  12.148  0.8522 -1.4389 -0.7569
31873SOL    HW2 7599   5.007   8.153  12.253 -0.8541  0.4750 -1.2921
31874SOL     OW 7600   8.412  10.087   3.166 -0.0746  0.0289 -0.6402
31874SOL    HW1 7601   8.469  10.041   3.228  0.4842  3.3786  1.6123
31874SOL    HW2 7602   8.472  10.124   3.101 -0.3250 -0.8944 -1.4113
31875SOL     OW 7603   1.479   6.681  12.390  0.1094  0.2276  0.6929
31875SOL    HW1 7604   1.494   6.683  12.296  1.5026 -0.3753  0.8863
31875SOL    HW2 7605   1.383   6.681  12.399 -0.0398 -0.6182 -0.7306
31876SOL     OW 7606   6.445  12.489   0.004 -0.2407  0.3599 -0.5978
31876SOL    HW1 7607   6.479  12.418   0.057 -0.0936  0.7787 -0.1271
31876SOL    HW2 7608   6.482  12.568   0.043 -1.1523  0.7656 -0.5258
31877SOL     OW 7609   5.747  10.874  10.971  0.6539 -0.0843 -0.1325
31877SOL    HW1 7610   5.798  10.955  10.983 -0.3323  0.4353  0.7343
31877SOL    HW2 7611   5.812  10.804  10.979  1.4414  0.5956 -0.3348
31878SOL     OW 7612  13.298   3.572   8.973 -0.0343 -0.1233  0.0709
31878SOL    HW1 7613  13.214   3.548   9.012  0.7375  0.5394  2.2803
31878SOL    HW2 7614  13.276   3.643   8.912 -0.9287  1.2312  1.8677
31879SOL     OW 7615  10.600  11.212   1.993  0.0471 -0.3411 -0.2462
31879SOL    HW1 7616  10.625  11.129   1.952  2.7446 -0.1693  0.8730
31879SOL    HW2 7617  10.627  11.279   1.930  0.1705 -0.2235 -0.0697
31880SOL     OW 7618   1.840   5.473   5.176  0.5980  0.6661 -0.1727
31880SOL    HW1 7619   1.748   5.479   5.202  0.3722 -0.6272 -0.6306
31880SOL    HW2 7620   1.844   5.398   5.117  2.0480  0.3618  0.2696
31881SOL     OW 7621   3.905   8.347   1.368 -0.8120 -0.4068  0.2006
31881SOL    HW1 7622   3.836   8.282   1.376 -1.0096 -0.4071 -1.2475
31881SOL    HW2 7623   3.871   8.424   1.413 -0.1104 -1.5952  2.9585
31882SOL     OW 7624   4.896   1.389   5.365  0.3231  0.2701  0.1756
31882SOL    HW1 7625   4.814   1.341   5.356 -0.4827  1.8169 -1.3248
31882SOL    HW2 7626   4.921   1.412   5.275  3.2446 -1.4347  0.4244
31883SOL     OW 7627  11.011  10.566   8.036  0.3809  0.1572 -0.1582
31883SOL    HW1 7628  11.106  10.567   8.052  0.2923  0.9993  0.4115
31883SOL    HW2 7629  10.973  10.565   8.124 -0.1309  1.7260 -0.3336
31884SOL     OW 7630  11.732  10.845   1.596 -0.6098  0.4672 -0.8275
31884SOL    HW1 7631  11.781  10.912   1.642  1.1172 -0.0107 -1.8735
31884SOL    HW2 7632  11.756  10.763   1.639 -0.8167  0.2639 -1.0906
31885SOL     OW 7633  10.715   4.214  10.182  0.4128  0.5664 -0.5444
31885SOL    HW1 7634  10.650   4.143  10.181 -2.3922  2.8877 -2.7834
31885SOL    HW2 7635  10.761   4.205  10.099  1.5718  0.1583  0.1250
31886SOL     OW 7636   8.513   5.262  13.686  0.3969 -0.0182  0.0732
31886SOL    HW1 7637   8.452   5.191  13.709 -0.7944  1.2860  1.1165
31886SOL    HW2 7638   8.532   5.304  13.770  0.3554  1.4565 -0.6391
31887SOL     OW 7639   3.808  11.607  12.981 -0.2308  0.3005  0.4651
31887SOL    HW1 7640   3.784  11.545  13.050  0.3252  1.6540  1.9511
31887SOL    HW2 7641   3.903  11.600  12.974 -0.2490  0.4240  0.0843
31888SOL     OW 7642  12.799   9.616  12.421  0.0361  0.0334 -0.2714
31888SOL    HW1 7643  12.795   9.568  12.504 -1.4088  2.8684  1.4780
31888SOL    HW2 7644  12.724   9.583  12.371 -0.3339 -0.2521  0.4517
31889SOL     OW 7645  13.055   6.263   2.143 -0.3318 -0.1243  0.0946
31889SOL    HW1 7646  13.039   6.325   2.214 -1.4942 -0.6705  0.3369
31889SOL    HW2 7647  13.016   6.181   2.173  0.3455 -0.7212 -0.6143
31890SOL     OW 7648   3.984   4.557   3.720 -0.1242  0.3983  0.1840
31890SOL    HW1 7649   4.018   4.580   3.806  0.2613  1.3863 -0.2195
31890SOL    HW2 7650   4.002   4.634   3.666 -2.5015  0.7769 -0.1975
31891SOL     OW 7651   6.062   4.546  11.363  0.4608  0.5883 -0.0698
31891SOL    HW1 7652   5.992   4.492  11.327  1.2909 -1.1879  0.8786
31891SOL    HW2 7653   6.141   4.514  11.320  0.8532  1.8211 -0.3065
31892SOL     OW 7654   1.176   2.811  12.991  0.2601  0.1825  0.0007
31892SOL    HW1 7655   1.098   2.765  12.960 -0.1864  0.3025  0.9178
31892SOL    HW2 7656   1.160   2.903  12.971  0.4832  0.1266 -0.4504
31893SOL     OW 7657  12.079   6.882   3.316  0.1585  0.0110 -0.6025
31893SOL    HW1 7658  12.120   6.968   3.323  1.9767 -0.7776 -0.8970
31893SOL    HW2 7659  12.046   6.878   3.227 -1.4161  0.9816 -0.1056
31894SOL     OW 7660   8.913  10.184   7.189 -0.9612  0.1166 -0.3439
31894SOL    HW1 7661   8.932  10.277   7.202  0.3618 -0.2432  0.4615
31894SOL    HW2 7662   8.837  10.183   7.130  1.1317  1.6820 -3.3086
31895SOL     OW 7663   2.435   9.603   7.024  0.1775 -0.4409  0.1104
31895SOL    HW1 7664   2.463   9.693   7.038 -0.5890 -0.1582 -0.1674
31895SOL    HW2 7665   2.511   9.561   6.981 -0.1855  0.6095 -1.6826
31896SOL     OW 7666   1.637   4.820  13.406  0.6264  0.1267  0.1339
31896SOL    HW1 7667   1.605   4.786  13.490  1.4854  1.6888  1.1438
31896SOL    HW2 7668   1.559   4.826  13.351 -0.3522  1.1059  1.5628
31897SOL     OW 7669   0.611   5.680   3.971 -0.3015  0.5578 -0.4460
31897SOL    HW1 7670   0.658   5.622   4.032 -1.7501  1.0991  1.2426
31897SOL    HW2 7671   0.544   5.624   3.932 -0.0924  0.4965 -0.7255
31898SOL     OW 7672   0.057   1.584   8.510 -0.0401  0.2449  0.1076
31898SOL    HW1 7673   0.143   1.599   8.547 -0.6413  1.5646  1.0652
31898SOL    HW2 7674   0.048   1.489   8.506  2.0686  0.0448 -1.5383
31899SOL     OW 7675   2.416  12.571   6.227  0.6949  0.1015  0.1430
31899SOL    HW1 7676   2.464  12.542   6.304  0.7240 -0.7393 -0.1725
31899SOL    HW2 7677   2.370  12.493   6.197  1.4329  0.1559 -1.2320
31900SOL     OW 7678   8.200  10.055   1.192  0.2617 -0.3150  0.0126
31900SOL    HW1 7679   8.114  10.058   1.235 -0.3149  2.1528 -1.1264
31900SOL    HW2 7680   8.251   9.993   1.245 -1.6250 -0.4116  1.8569
31901SOL     OW 7681  11.213  11.178   0.555  0.2019 -0.2231 -0.2133
31901SOL    HW1 7682  11.200  11.272   0.547  0.8745 -0.1909 -1.0724
31901SOL    HW2 7683  11.188  11.143   0.469 -2.3171 -1.1215  0.7731
31902SOL     OW 7684   6.773  12.908  12.300 -0.1061  0.3024  0.3311
31902SOL    HW1 7685   6.737  12.826  12.333  1.3097 -0.2282  0.6091
31902SOL    HW2 7686   6.790  12.891  12.207 -1.3343  0.8311 -0.0047
31903SOL     OW 7687   7.157  13.777  10.764  0.3415  0.2772 -0.5434
31903SOL    HW1 7688   7.072  13.757  10.725 -0.3407 -1.7687  1.7342
31903SOL    HW2 7689   7.214  13.706  10.735  0.1393 -0.5889  1.0199
31904SOL     OW 7690  13.044   1.044   3.137 -0.0363  0.0073 -0.6699
31904SOL    HW1 7691  13.089   0.960   3.143 -1.1010 -0.5787  4.6878
31904SOL    HW2 7692  12.953   1.022   3.120 -0.2213  0.0667  0.1902
31905SOL     OW 7693   9.606   5.725   3.508  0.4833  0.1117  0.3932
31905SOL    HW1 7694   9.607   5.810   3.551 -1.8326 -0.5809  2.0244
31905SOL    HW2 7695   9.654   5.667   3.568  0.6235 -0.0672  0.1098
31906SOL     OW 7696  13.003  10.071   6.643  0.0888  0.1065 -0.1079
31906SOL    HW1 7697  13.032  10.063   6.734 -1.8177  2.2639  0.7873
31906SOL    HW2 7698  12.973  10.161   6.635  1.3999  0.3680 -3.3119
31907SOL     OW 7699   2.226   3.445   0.479  0.2702 -0.0380  0.4160
31907SOL    HW1 7700   2.312   3.487   0.486  0.7954 -1.2649  1.7182
31907SOL    HW2 7701   2.246   3.354   0.459 -0.8417  0.1432 -1.8823
31908SOL     OW 7702   5.224   2.899   4.856 -0.1511  0.0247 -0.0640
31908SOL    HW1 7703   5.245   2.843   4.930 -0.3165  1.9044  1.4779
31908SOL    HW2 7704   5.170   2.968   4.892 -1.8135  0.0278 -2.3213
31909SOL     OW 7705   2.770  11.901   0.009 -0.1930  0.5671 -0.0711
31909SOL    HW1 7706   2.806  11.989   0.010  0.2288  0.3996 -0.2288
31909SOL    HW2 7707   2.700  11.903   0.074  0.8481  0.5970  1.0828
31910SOL     OW 7708   5.197   8.955  13.583  0.4950 -0.6439  0.2603
31910SOL    HW1 7709   5.238   8.970  13.668  1.3505 -2.3110  0.2038
31910SOL    HW2 7710   5.271   8.952  13.522  0.0377 -0.9592 -0.2864
31911SOL     OW 7711   9.868  10.432   0.364 -0.4768 -0.0447 -0.6729
31911SOL    HW1 7712   9.914  10.493   0.306  2.3760  1.1015  2.4494
31911SOL    HW2 7713   9.818  10.488   0.423 -0.3418 -0.9148  0.2892
31912SOL     OW 7714   1.797   7.920   0.321 -0.2091  0.2115  0.1818
31912SOL    HW1 7715   1.789   7.836   0.276  1.9798 -0.2218  0.4847
31912SOL    HW2 7716   1.815   7.898   0.412 -1.4848  1.0593  0.6684
31913SOL     OW 7717   5.292   8.772   8.867 -0.4475  0.1949  1.0878
31913SOL    HW1 7718   5.348   8.722   8.927 -1.4092 -0.5838  1.3682
31913SOL    HW2 7719   5.204   8.736   8.881 -0.9939  1.2715  0.5353
31914SOL     OW 7720   2.740   8.772   8.304 -0.3404 -0.6521 -0.3369
31914SOL    HW1 7721   2.751   8.730   8.219 -1.5231  0.2516 -0.9566
31914SOL    HW2 7722   2.782   8.858   8.295  1.1860 -1.2529  0.6098
31915SOL     OW 7723   8.694   0.237   1.090  0.1862 -0.2005  0.1366
31915SOL    HW1 7724   8.722   0.252   0.999 -1.0972 -0.4432 -0.3168
31915SOL    HW2 7725   8.721   0.317   1.136  0.9442 -0.1177 -0.4260
31916SOL     OW 7726   3.602  10.758   3.079  0.1678 -0.2890  0.3114
31916SOL    HW1 7727   3.665  10.826   3.056 -1.3725  1.3221  0.7423
31916SOL    HW2 7728   3.541  10.799   3.139 -1.3214 -1.8022 -0.0798
31917SOL     OW 7729   3.934   5.601   5.598 -0.9330  0.0869 -0.0915
31917SOL    HW1 7730   3.862   5.660   5.621 -0.8851 -0.4645  1.5913
31917SOL    HW2 7731   3.909   5.516   5.636  0.2003 -0.3290 -0.2306
31918SOL     OW 7732   2.845   7.095  10.719  0.7252 -0.5459  0.1934
31918SOL    HW1 7733   2.922   7.065  10.671 -0.0805 -1.8026 -0.3691
31918SOL    HW2 7734   2.788   7.018  10.724 -1.4717  0.8555 -1.3374
31919SOL     OW 7735   0.708  11.164  13.696  0.3427  0.6278 -0.6680
31919SOL    HW1 7736   0.764  11.178  13.620 -0.0683 -0.8448 -1.2781
31919SOL    HW2 7737   0.628  11.124  13.660 -0.3940  1.1096  0.3813
31920SOL     OW 7738  10.236  13.845  12.203  0.3214 -1.1657  0.1367
31920SOL    HW1 7739  10.160  13.794  12.230 -0.6040  1.2034  2.4989
31920SOL    HW2 7740  10.204  13.901  12.132 -0.5689  0.6209  1.8649
31921SOL     OW 7741  11.618  10.015   1.831 -0.6401 -0.0564 -0.3563
31921SOL    HW1 7742  11.623  10.107   1.805 -2.9572 -0.0866 -1.0560
31921SOL    HW2 7743  11.650   9.967   1.755  1.1089  0.1256  0.2062
31922SOL     OW 7744   0.865   0.927   3.220 -0.7838 -0.1686 -0.3523
31922SOL    HW1 7745   0.770   0.930   3.223 -0.8183 -1.0938  0.3317
31922SOL    HW2 7746   0.891   0.911   3.311  0.2027  3.0677  0.0513
31923SOL     OW 7747  11.168   4.699   4.820  0.2245 -0.3679  0.3285
31923SOL    HW1 7748  11.117   4.623   4.791 -0.7011  0.8078 -1.3441
31923SOL    HW2 7749  11.258   4.680   4.792 -0.1179 -0.5829 -0.6537
31924SOL     OW 7750  11.669  11.287   8.046  0.6457  0.2427 -0.1360
31924SOL    HW1 7751  11.579  11.280   8.078  0.4425  1.8854 -0.2636
31924SOL    HW2 7752  11.659  11.297   7.951  0.9769  0.1739 -0.1770
31925SOL     OW 7753   3.151   5.804   1.750 -0.3929  0.0588  0.2947
31925SOL    HW1 7754   3.058   5.803   1.727 -0.2027 -0.2828 -0.5057
31925SOL    HW2 7755   3.182   5.717   1.727  0.0170  0.0025  1.0439
31926SOL     OW 7756   0.292   6.291   5.550 -0.1629  0.5126  0.1498
31926SOL    HW1 7757   0.253   6.378   5.560 -1.6962 -0.1094 -0.1551
31926SOL    HW2 7758   0.271   6.246   5.632 -1.1401 -0.2235 -0.4914
31927SOL     OW 7759   6.396   5.352  12.797 -0.0550 -0.5857 -0.2828
31927SOL    HW1 7760   6.308   5.345  12.760 -0.0364 -1.8886 -0.1416
31927SOL    HW2 7761   6.392   5.427  12.856 -1.5084 -1.5078  0.8380
31928SOL     OW 7762   8.655   9.393   3.768  0.3374 -0.7453  0.1542
31928SOL    HW1 7763   8.650   9.378   3.674  0.2109  1.8050 -0.3162
31928SOL    HW2 7764   8.748   9.389   3.788  0.5418  0.4196 -0.4540
31929SOL     OW 7765   5.690   8.758  11.566 -0.1827  0.0223 -0.5009
31929SOL    HW1 7766   5.613   8.705  11.583  0.5442 -0.8229  0.3003
31929SOL    HW2 7767   5.709   8.801  11.649  0.5581 -0.2754 -0.5010
31930SOL     OW 7768  12.765  13.534   7.999  0.6301  0.0990  0.4920
31930SOL    HW1 7769  12.768  13.550   7.905  0.6110  0.6513  0.5854
31930SOL    HW2 7770  12.795  13.615   8.039  0.8619 -0.2130  0.9592
31931SOL     OW 7771   7.453   0.206   6.046  0.1064 -0.7026  0.3304
31931SOL    HW1 7772   7.543   0.220   6.017  0.6009  0.3026  2.2242
31931SOL    HW2 7773   7.428   0.289   6.088 -1.8831 -0.7847 -0.5657
31932SOL     OW 7774  13.899   8.840   1.020 -0.2380 -0.0246 -0.0311
31932SOL    HW1 7775  13.943   8.879   1.096 -1.6768  0.6242  0.4922
31932SOL    HW2 7776  13.837   8.778   1.057 -0.9402  0.2798 -0.6786
31933SOL     OW 7777   5.075   6.429   6.196 -0.3634 -0.1463 -0.0815
31933SOL    HW1 7778   5.084   6.374   6.274 -0.6536 -0.1204 -0.0249
31933SOL    HW2 7779   5.000   6.486   6.217  0.9668  1.4343  0.5711
31934SOL     OW 7780  10.858  11.341   1.261 -0.1709  0.5305  0.5618
31934SOL    HW1 7781  10.801  11.406   1.219 -2.0681 -1.2862  0.1783
31934SOL    HW2 7782  10.939  11.345   1.211 -2.8958 -3.0526 -5.3510
31935SOL     OW 7783   1.252   8.077  13.610  0.3382  0.0425  0.6489
31935SOL    HW1 7784   1.317   8.096  13.542 -0.1363  1.9324  0.6774
31935SOL    HW2 7785   1.169   8.107  13.573 -0.3389 -1.1604  1.1338
31936SOL     OW 7786  12.985   3.129   3.170  0.4566 -0.4949 -0.1878
31936SOL    HW1 7787  12.969   3.127   3.075  0.0931 -1.1195 -0.1168
31936SOL    HW2 7788  12.903   3.101   3.209  0.2411  0.8366  0.3672
31937SOL     OW 7789   3.077   0.477  10.763  0.5543  0.0588  0.2080
31937SOL    HW1 7790   3.000   0.421  10.769 -0.4716  1.6103  2.4454
31937SOL    HW2 7791   3.151   0.418  10.782 -0.0831 -1.2553 -1.1230
31938SOL     OW 7792  11.960   5.953   9.950 -0.8645 -0.6841  0.7318
31938SOL    HW1 7793  12.048   5.945   9.986 -0.0667  0.0281 -0.9148
31938SOL    HW2 7794  11.914   5.874   9.977  0.6717 -1.6421  0.6175
31939SOL     OW 7795   3.186  13.917   6.687 -0.0893 -0.6910 -0.4450
31939SOL    HW1 7796   3.273  13.923   6.649  1.7280 -3.3340  2.7503
31939SOL    HW2 7797   3.178  13.826   6.716 -2.7353  0.1215  1.9109
31940SOL     OW 7798   2.396   7.850   8.614  0.5370 -0.1766 -0.1068
31940SOL    HW1 7799   2.413   7.936   8.651  1.2784 -0.4393  0.1976
31940SOL    HW2 7800   2.481   7.821   8.579 -0.2918  0.4018 -2.8183
31941SOL     OW 7801   1.892   6.072  10.782 -0.7408 -0.0460  1.0708
31941SOL    HW1 7802   1.873   6.166  10.786 -1.4164 -0.0825 -0.4977
31941SOL    HW2 7803   1.969   6.065  10.726 -1.5537 -0.5069 -0.0175
31942SOL     OW 7804  13.163   5.143  11.909  0.3677 -0.6197  0.1924
31942SOL    HW1 7805  13.161   5.145  12.005  1.3158  0.8090  0.2194
31942SOL    HW2 7806  13.230   5.207  11.886 -1.6400  1.0338 -1.4832
31943SOL     OW 7807  13.466  11.700  10.487  0.4615 -0.4389  0.1472
31943SOL    HW1 7808  13.478  11.611  10.452  1.5570  0.3604 -1.6219
31943SOL    HW2 7809  13.509  11.757  10.423 -0.3064  1.3909  1.1959
31944SOL     OW 7810  13.060   7.678   1.861  0.1921  0.2654 -0.3563
31944SOL    HW1 7811  13.139   7.679   1.915  1.1047  0.0789 -1.6311
31944SOL    HW2 7812  13.079   7.614   1.792 -1.2067 -0.0222 -0.5082
31945SOL     OW 7813  11.908   2.689   6.850  0.0662  0.5170  0.3520
31945SOL    HW1 7814  11.914   2.637   6.930 -2.2538 -1.8995 -0.9033
31945SOL    HW2 7815  11.823   2.732   6.855 -0.4127 -0.1859 -1.0334
31946SOL     OW 7816   2.396   8.625   2.594  0.1435  0.0160  0.3961
31946SOL    HW1 7817   2.387   8.531   2.606  2.0963 -0.4113 -0.9852
31946SOL    HW2 7818   2.307   8.659   2.605 -0.8637 -2.1446 -0.3996
31947SOL     OW 7819   3.729  10.960   0.690 -0.2723 -0.7973  0.1701
31947SOL    HW1 7820   3.768  11.045   0.668 -0.8669 -0.5793 -0.0501
31947SOL    HW2 7821   3.732  10.957   0.786 -1.6108  0.1363  0.2625
31948SOL     OW 7822   4.741  10.553   0.864  0.2089 -0.4227  0.3266
31948SOL    HW1 7823   4.675  10.506   0.813 -0.7599 -0.3581  1.4869
31948SOL    HW2 7824   4.756  10.634   0.815 -0.7409 -0.3359  0.1640
31949SOL     OW 7825   5.764  11.650   8.858  0.4361  0.0102 -0.6140
31949SOL    HW1 7826   5.711  11.599   8.919  1.7619 -0.8411 -0.1222
31949SOL    HW2 7827   5.721  11.640   8.774  2.3279 -4.7448 -1.3002
31950SOL     OW 7828   2.230  11.165  10.511 -0.1322 -0.6244 -0.2770
31950SOL    HW1 7829   2.259  11.078  10.537 -0.3787 -1.1096 -1.5558
31950SOL    HW2 7830   2.210  11.210  10.594  0.4565 -1.6066  0.4176
31951SOL     OW 7831   7.963   7.552   9.664  0.3667  0.0049  0.2918
31951SOL    HW1 7832   7.949   7.587   9.752  0.4309  2.1179 -0.4964
31951SOL    HW2 7833   8.043   7.499   9.672 -0.2451 -0.7743  1.7211
31952SOL     OW 7834  11.854   4.019   8.107  0.3412 -0.0900 -0.1139
31952SOL    HW1 7835  11.887   4.044   8.194 -2.2638  0.7221  0.7385
31952SOL    HW2 7836  11.850   4.102   8.059  3.7802 -0.7860 -1.8909
31953SOL     OW 7837  13.983   2.031   7.464  0.1228 -0.7505  0.1455
31953SOL    HW1 7838  13.925   2.081   7.407  1.5999 -1.6176 -2.2944
31953SOL    HW2 7839  13.926   1.993   7.530 -1.4969  1.3449  0.0334
31954SOL     OW 7840   4.455  10.169  11.920 -0.1907 -0.7567  0.5485
31954SOL    HW1 7841   4.549  10.164  11.935 -0.4088 -0.7302  1.9772
31954SOL    HW2 7842   4.420  10.216  11.996 -1.3936 -0.9630  0.1534
31955SOL     OW 7843   7.717   0.941   7.471  0.0696  0.2317  0.1842
31955SOL    HW1 7844   7.634   0.910   7.508  0.9444  0.6976  2.6710
31955SOL    HW2 7845   7.772   0.862   7.467  0.6871  0.5436  1.9713
31956SOL     OW 7846  12.961   2.430  12.420  0.1659 -0.2352 -0.5754
31956SOL    HW1 7847  12.979   2.521  12.447  1.4562 -0.7973  0.5590
31956SOL    HW2 7848  12.992   2.377  12.494 -0.5693 -1.6044 -1.2313
31957SOL     OW 7849  13.406   6.348   8.656  0.0150  0.3709 -0.6470
31957SOL    HW1 7850  13.420   6.295   8.734 -0.1914 -0.0219 -0.8753
31957SOL    HW2 7851  13.348   6.419   8.685  0.1008  0.3388 -0.3991
31958SOL     OW 7852   8.510  13.131  12.321  0.0421 -0.0566 -0.6791
31958SOL    HW1 7853   8.473  13.153  12.406  0.3179 -0.0142 -0.5694
31958SOL    HW2 7854   8.474  13.045  12.300  1.5682 -0.9950  0.4155
31959SOL     OW 7855   9.085   3.960  11.834  0.0822  0.2432 -0.3417
31959SOL    HW1 7856   9.118   4.030  11.890  0.8138 -0.8916  0.6946
31959SOL    HW2 7857   8.995   3.985  11.815  0.1816  1.2247  0.3982
31960SOL     OW 7858   9.761   6.767   5.460  0.3183  0.0115  0.2320
31960SOL    HW1 7859   9.800   6.812   5.535 -1.6799  1.1499  0.6935
31960SOL    HW2 7860   9.722   6.688   5.497 -0.5911  0.5297  0.4400
31961SOL     OW 7861   1.737   2.666   0.153 -0.3420  0.3500 -0.3119
31961SOL    HW1 7862   1.780   2.636   0.233  1.9926  0.7480 -1.3204
31961SOL    HW2 7863   1.644   2.661   0.172  0.0506 -2.3916  1.3748
31962SOL     OW 7864   6.494  11.105  12.250  0.3724 -0.0305  0.0235
31962SOL    HW1 7865   6.564  11.080  12.311  1.2447  0.4039 -0.7589
31962SOL    HW2 7866   6.449  11.023  12.230 -1.9800  0.1629  3.5923
31963SOL     OW 7867   4.781   3.935  10.456  0.1732  0.4551 -0.1566
31963SOL    HW1 7868   4.790   4.026  10.483 -1.4341  0.7853 -0.6742
31963SOL    HW2 7869   4.726   3.895  10.524  0.4376 -0.0118 -0.2075
31964SOL     OW 7870  12.907   4.072   3.142 -0.2026  0.7535  0.6108
31964SOL    HW1 7871  12.950   4.153   3.169 -0.6785  2.0202 -2.0826
31964SOL    HW2 7872  12.967   4.033   3.078 -0.3557 -0.6272  1.2836
31965SOL     OW 7873   5.217   4.504   9.128  0.1538 -0.6085  0.2329
31965SOL    HW1 7874   5.309   4.503   9.155 -0.1958 -3.3961  1.7073
31965SOL    HW2 7875   5.167   4.503   9.210 -1.2162  0.6825 -0.5400
31966SOL     OW 7876   2.121   3.767   6.080 -0.3539  0.9091 -0.0676
31966SOL    HW1 7877   2.175   3.723   6.146  0.4119 -0.5144 -1.5640
31966SOL    HW2 7878   2.031   3.742   6.103 -0.0006 -0.6984 -0.3207
31967SOL     OW 7879   2.863   6.265   1.595 -0.1789 -0.1509  0.3742
31967SOL    HW1 7880   2.925   6.244   1.526  0.2732  2.3674 -0.0792
31967SOL    HW2 7881   2.782   6.289   1.549  0.0387  1.2664  0.6854
31968SOL     OW 7882  13.983   8.519   7.696  0.4272 -0.0130 -0.1945
31968SOL    HW1 7883  13.980   8.500   7.790 -1.9060  1.0628  0.0287
31968SOL    HW2 7884  14.010   8.610   7.691 -2.8918  1.1340 -0.2062
31969SOL     OW 7885   4.586  13.472   2.828  0.1462 -0.3722 -0.5115
31969SOL    HW1 7886   4.655  13.533   2.801  0.9885 -1.3100 -0.5442
31969SOL    HW2 7887   4.553  13.508   2.910  0.8143  0.0017 -0.3987
31970SOL     OW 7888   1.431  12.431   4.691  0.0149  0.4279  0.1809
31970SOL    HW1 7889   1.519  12.448   4.656  0.3189  1.9810  1.5619
31970SOL    HW2 7890   1.406  12.513   4.733 -2.0898 -0.0175 -0.1028
31971SOL     OW 7891   2.068   6.497   9.628  0.3464  0.4164 -0.4950
31971SOL    HW1 7892   2.138   6.552   9.663  0.3699  0.4579 -0.6061
31971SOL    HW2 7893   2.062   6.424   9.689 -0.8196  1.3903  0.6112
31972SOL     OW 7894   4.889  13.909   6.815 -0.2738  0.1686  0.0866
31972SOL    HW1 7895   4.874  13.929   6.908  2.2874  0.3303  0.5407
31972SOL    HW2 7896   4.911  13.994   6.776  0.8945 -0.2220 -0.1453
31973SOL     OW 7897   1.239   2.033   8.989 -0.3360 -0.5181  0.6559
31973SOL    HW1 7898   1.271   2.054   9.077  0.1002  0.9836  0.1781
31973SOL    HW2 7899   1.152   2.073   8.986  0.3003  0.8527 -0.1106
31974SOL     OW 7900   2.462  13.126   2.751  0.0571  0.1749 -0.0283
31974SOL    HW1 7901   2.499  13.113   2.664 -0.5055 -0.1970 -0.2147
31974SOL    HW2 7902   2.375  13.087   2.747 -0.0620  0.3506  0.6358
31975SOL     OW 7903   1.518   1.017  12.059  0.3089  0.4096 -0.4582
31975SOL    HW1 7904   1.512   0.921  12.051  1.1714 -0.0576  3.0205
31975SOL    HW2 7905   1.581   1.031  12.130 -1.2961  3.5200  0.5222
31976SOL     OW 7906   7.953   3.582   7.463  0.0614  0.2196 -0.2791
31976SOL    HW1 7907   8.010   3.574   7.539 -0.5744 -0.6231  0.1228
31976SOL    HW2 7908   7.880   3.523   7.481 -0.2997  0.3111 -1.3627
31977SOL     OW 7909   5.836   7.418  12.609  0.1668  0.1829  0.6855
31977SOL    HW1 7910   5.806   7.333  12.575  0.3691  0.7848 -1.0842
31977SOL    HW2 7911   5.920   7.432  12.567  0.3030  1.1066  1.2534
31978SOL     OW 7912   4.732   5.239  13.043  0.0093  0.0964 -0.8107
31978SOL    HW1 7913   4.763   5.186  12.969  1.1451  1.8576 -1.6825
31978SOL    HW2 7914   4.806   5.295  13.064 -0.5892  0.1999  1.1646
31979SOL     OW 7915   2.133  12.316   6.579  0.5517 -0.5417  0.2373
31979SOL    HW1 7916   2.177  12.281   6.656  1.5950 -0.4601 -0.2956
31979SOL    HW2 7917   2.040  12.300   6.594  0.7774 -0.9020  1.3113
31980SOL     OW 7918   4.661  12.705   7.454  0.7384  0.5629  0.2989
31980SOL    HW1 7919   4.676  12.668   7.542  0.5554 -1.9508 -0.6352
31980SOL    HW2 7920   4.738  12.678   7.404 -1.0966 -2.0342 -1.4050
31981SOL     OW 7921   5.830   7.696   5.790  0.5494 -0.6128  0.0081
31981SOL    HW1 7922   5.919   7.669   5.815  1.6125  2.0161 -0.5900
31981SOL    HW2 7923   5.837   7.716   5.697  0.4923  3.3470  0.6636
31982SOL     OW 7924   3.824   7.921   1.753 -0.2266 -0.4450 -0.5773
31982SOL    HW1 7925   3.898   7.962   1.799 -1.5370  2.2611 -0.7243
31982SOL    HW2 7926   3.838   7.943   1.661 -0.3605 -1.4061 -0.8417
31983SOL     OW 7927   1.489   7.335  12.448 -0.1894 -0.0960 -0.3526
31983SOL    HW1 7928   1.476   7.428  12.467 -0.5678 -0.4288  1.1672
31983SOL    HW2 7929   1.584   7.323  12.451  0.0126  0.5744 -2.4370
31984SOL     OW 7930  13.870   2.331  12.588  0.1549 -0.0373 -0.7947
31984SOL    HW1 7931  13.782   2.366  12.602  0.9076  2.1772 -1.1553
31984SOL    HW2 7932  13.870   2.302  12.497  0.4905  2.3813 -1.6274
31985SOL     OW 7933  12.754   1.280   7.252 -0.3599  0.2639  0.0225
31985SOL    HW1 7934  12.694   1.298   7.179 -0.0260  0.4836 -0.2045
31985SOL    HW2 7935  12.721   1.200   7.291 -2.1117  1.5387  1.2921
31986SOL     OW 7936   0.989   7.573   2.499 -0.6095  0.0066 -0.0207
31986SOL    HW1 7937   0.910   7.534   2.462  0.1592 -1.5844 -0.0719
31986SOL    HW2 7938   1.035   7.610   2.423 -0.4512 -0.6637 -0.2625
31987SOL     OW 7939   2.517  10.086   0.742  0.7615  0.3799  0.3635
31987SOL    HW1 7940   2.467  10.133   0.675  2.1520  0.4216 -0.7069
31987SOL    HW2 7941   2.466  10.095   0.822 -0.7038  0.7732 -0.5832
31988SOL     OW 7942   5.029  10.973   9.086 -0.0936 -0.2140  0.2261
31988SOL    HW1 7943   5.068  10.907   9.143  0.3027  0.4952  0.7939
31988SOL    HW2 7944   5.078  10.967   9.004  1.6096  1.0136  1.0964
31989SOL     OW 7945   8.336   8.271   0.048 -0.1496 -1.1288  0.0063
31989SOL    HW1 7946   8.403   8.337   0.067 -1.2109 -0.2310  0.7371
31989SOL    HW2 7947   8.287   8.307  -0.026 -1.1758 -0.7331  0.8561
31990SOL     OW 7948   0.434   0.300   3.962 -0.6095  0.3091 -0.5715
31990SOL    HW1 7949   0.352   0.276   4.006 -1.5223  2.0260 -1.2616
31990SOL    HW2 7950   0.407   0.327   3.874  0.8863 -0.4542 -1.3136
31991SOL     OW 7951   9.178  12.621  11.140 -0.0400 -0.5050  0.1010
31991SOL    HW1 7952   9.194  12.672  11.061  1.5166  0.3854  0.9519
31991SOL    HW2 7953   9.222  12.669  11.210 -2.3967 -0.5869  1.7845
31992SOL     OW 7954   2.559   3.662  11.650  0.6965  0.7512 -0.1714
31992SOL    HW1 7955   2.645   3.683  11.614 -0.1020  1.0826 -1.9734
31992SOL    HW2 7956   2.540   3.733  11.712  0.3394  2.5192 -2.2027
31993SOL     OW 7957   7.679  10.642   7.735 -0.6779  0.0415 -0.8536
31993SOL    HW1 7958   7.676  10.659   7.829  1.2964 -1.8586 -0.3937
31993SOL    HW2 7959   7.702  10.727   7.696  0.4991  0.4027  0.5720
31994SOL     OW 7960  10.033   0.842   4.082 -0.9995  0.2316  0.3350
31994SOL    HW1 7961  10.004   0.895   4.156  2.0703  1.2060  0.9774
31994SOL    HW2 7962  10.114   0.801   4.112 -0.3128 -0.3397 -2.0784
31995SOL     OW 7963   8.491   6.644   6.412  0.3507 -0.0102  0.1700
31995SOL    HW1 7964   8.538   6.708   6.465  1.1412 -0.4071 -0.0365
31995SOL    HW2 7965   8.488   6.565   6.467  1.1731 -0.4243 -0.3484
31996SOL     OW 7966   7.323  12.443  11.296  0.5720 -0.3009  0.4182
31996SOL    HW1 7967   7.324  12.450  11.201  1.0195 -0.9871  0.3690
31996SOL    HW2 7968   7.282  12.359  11.314  0.3615 -0.1120  0.8386
31997SOL     OW 7969   8.793   5.857   2.111 -0.3705  0.1693 -0.1452
31997SOL    HW1 7970   8.736   5.783   2.090 -0.0896 -0.2024  0.3957
31997SOL    HW2 7971   8.850   5.865   2.034  1.6294 -2.1066  0.9684
31998SOL     OW 7972   6.146   7.192  11.019  0.1121 -0.5771 -0.2018
31998SOL    HW1 7973   6.069   7.217  10.969 -0.1138 -1.9493 -0.5981
31998SOL    HW2 7974   6.220   7.211  10.960  0.0980  0.8061  0.2079
31999SOL     OW 7975   1.565   9.006   8.688 -0.0927  0.4494 -0.5655
31999SOL    HW1 7976   1.604   9.013   8.775 -0.7103  1.3305 -0.3400
31999SOL    HW2 7977   1.473   8.987   8.705  0.1071 -1.0771 -1.0761
32000SOL     OW 7978   5.919  12.108   1.364  0.6135  0.1244 -0.0924
32000SOL    HW1 7979   6.002  12.132   1.324  1.5957 -0.4370  1.5095
32000SOL    HW2 7980   5.865  12.078   1.291  1.8180  0.4502 -1.1558
32001SOL     OW 7981   2.018   6.121  12.181 -0.0595 -0.3457 -0.4548
32001SOL    HW1 7982   2.083   6.134  12.250 -1.1603 -0.4249  0.6205
32001SOL    HW2 7983   2.054   6.051  12.126  2.1121  1.5255 -1.5843
32002SOL     OW 7984  13.104   9.362   6.886  0.6016  0.0380  0.3184
32002SOL    HW1 7985  13.046   9.400   6.952  0.0803  0.4471 -0.3591
32002SOL    HW2 7986  13.155   9.296   6.933 -1.4792 -1.4360  0.6408
32003SOL     OW 7987   1.056   5.634   3.417  0.6941 -0.7201  0.0288
32003SOL    HW1 7988   1.119   5.583   3.469  0.4331 -0.8662  0.2049
32003SOL    HW2 7989   1.046   5.716   3.465  0.7843 -0.6787 -0.0227
32004SOL     OW 7990   1.322   1.500   8.225  0.1138 -0.0696  0.1379
32004SOL    HW1 7991   1.262   1.575   8.220  0.5591  0.3449  0.9269
32004SOL    HW2 7992   1.381   1.513   8.150 -1.1529 -0.8317 -1.0373
32005SOL     OW 7993   9.606  12.717  11.948 -0.5248  0.3208  0.3678
32005SOL    HW1 7994   9.628  12.783  11.883 -0.4497 -0.1155 -0.0571
32005SOL    HW2 7995   9.550  12.762  12.011  0.3962  1.0696  0.6701
32006SOL     OW 7996  13.280   1.062   6.764 -0.4162  0.3921 -0.0688
32006SOL    HW1 7997  13.267   1.035   6.855 -0.1034 -0.3270 -0.2304
32006SOL    HW2 7998  13.370   1.094   6.762 -1.1043  2.5598  0.3713
32007SOL     OW 7999   0.307   9.297   8.589 -0.5845  0.1178  0.0298
32007SOL    HW1 8000   0.248   9.265   8.521  0.0216  0.8299 -0.8455
32007SOL    HW2 8001   0.329   9.386   8.563  0.9732 -0.1648  0.2517
32008SOL     OW 8002   9.813  11.302   6.063  0.1226  0.2436 -0.3104
32008SOL    HW1 8003   9.901  11.270   6.083 -0.6105  0.2084  3.6302
32008SOL    HW2 8004   9.821  11.398   6.067 -0.2848  0.2302  1.9716
32009SOL     OW 8005  10.126  10.197   1.120 -0.4514  0.1516 -0.1782
32009SOL    HW1 8006  10.185  10.194   1.196  0.5706 -1.3553 -0.9927
32009SOL    HW2 8007  10.169  10.259   1.060 -0.9008  0.8052  0.1597
32010SOL     OW 8008  11.259   9.967  12.891 -0.1553  0.2002 -0.1327
32010SOL    HW1 8009  11.285   9.877  12.873 -1.4469  0.1537 -1.9300
32010SOL    HW2 8010  11.164   9.963  12.900 -0.0867  1.1551  1.4530
32011SOL     OW 8011   7.486  10.275  11.813 -0.3049  0.3265  0.0567
32011SOL    HW1 8012   7.452  10.334  11.745 -0.0166  0.2055 -0.1920
32011SOL    HW2 8013   7.437  10.194  11.801 -0.7934  0.5503  0.4807
32012SOL     OW 8014  13.372   8.277   8.612  0.5154 -0.5201  0.5565
32012SOL    HW1 8015  13.314   8.209   8.645 -1.1113  0.6332  0.2229
32012SOL    HW2 8016  13.373   8.264   8.518  0.4041 -0.2506  0.5165
32013SOL     OW 8017   2.635  10.226   0.189  0.4365 -0.3578  0.1719
32013SOL    HW1 8018   2.589  10.307   0.208 -3.4742 -2.0510 -1.1051
32013SOL    HW2 8019   2.639  10.223   0.093  0.0571 -1.8578  0.1805
32014SOL     OW 8020  13.644   3.011  10.040 -0.5358  0.5976 -0.2064
32014SOL    HW1 8021  13.565   2.967  10.010  0.0235  0.1549 -1.0746
32014SOL    HW2 8022  13.716   2.959  10.002  0.1594  1.1775  0.2980
32015SOL     OW 8023   0.122  10.658   1.082 -0.2138  0.6727  0.5230
32015SOL    HW1 8024   0.117  10.666   1.177  0.3404  0.6176  0.5575
32015SOL    HW2 8025   0.196  10.599   1.067 -1.7346 -1.2643  0.1470
32016SOL     OW 8026  10.758   0.326   9.013  0.1964 -0.7301  0.2695
32016SOL    HW1 8027  10.767   0.417   8.984  1.9622 -0.4635  1.4830
32016SOL    HW2 8028  10.813   0.276   8.952  3.7299 -0.1968  2.7182
32017SOL     OW 8029   3.267   4.387  11.459  0.2040  0.0603  0.4422
32017SOL    HW1 8030   3.329   4.343  11.517 -0.0496 -0.2438  0.4873
32017SOL    HW2 8031   3.321   4.429  11.392  0.4258 -0.8099  0.0585
32018SOL     OW 8032   9.524   5.257  11.425  0.6180  0.2518 -0.3997
32018SOL    HW1 8033   9.447   5.237  11.371  1.4325 -0.7049 -1.2583
32018SOL    HW2 8034   9.588   5.294  11.364  2.0410 -2.0456 -0.4544
32019SOL     OW 8035   3.598   5.653   2.275  0.6055  0.5979 -0.1116
32019SOL    HW1 8036   3.661   5.599   2.226  0.2965 -2.5389  2.6028
32019SOL    HW2 8037   3.619   5.638   2.367 -2.9032  0.8728  0.8887
32020SOL     OW 8038   1.471   5.544   0.290  0.4502 -0.2140 -0.0118
32020SOL    HW1 8039   1.443   5.463   0.248 -0.7128 -0.2197  0.7518
32020SOL    HW2 8040   1.403   5.607   0.269  0.1478 -0.0613  1.3321
32021SOL     OW 8041   6.733   4.521  13.891  0.3360 -0.4769 -0.1109
32021SOL    HW1 8042   6.717   4.437  13.847  1.2699 -0.8541  0.2444
32021SOL    HW2 8043   6.648   4.565  13.889 -0.1004 -1.3000 -0.5707
32022SOL     OW 8044   9.536   1.612   5.523 -0.0779 -0.2520  0.3721
32022SOL    HW1 8045   9.619   1.570   5.546  0.0429  0.3698  1.1366
32022SOL    HW2 8046   9.538   1.620   5.428  1.1994  0.6657  0.4521
32023SOL     OW 8047   8.318   8.565   5.578 -0.4816  0.1531  0.3835
32023SOL    HW1 8048   8.256   8.617   5.526 -1.6836 -0.8295  0.7779
32023SOL    HW2 8049   8.264   8.527   5.647  0.1394 -2.3471 -0.4174
32024SOL     OW 8050   1.898  13.057   4.177 -0.2799 -0.3494 -0.3088
32024SOL    HW1 8051   1.803  13.063   4.181 -0.2331 -0.1003  0.8111
32024SOL    HW2 8052   1.921  12.987   4.239  0.2147 -1.0629 -1.2728
32025SOL     OW 8053   3.124  12.777   7.341 -0.3917 -0.1756  0.4965
32025SOL    HW1 8054   3.165  12.748   7.259 -0.3169  2.5259 -0.5550
32025SOL    HW2 8055   3.076  12.701   7.373 -2.1306 -0.8504 -3.1870
32026SOL     OW 8056   1.828   9.771   8.042  0.2044 -0.3640  0.0737
32026SOL    HW1 8057   1.818   9.831   8.116 -1.5299 -1.3211  0.6567
32026SOL    HW2 8058   1.742   9.732   8.030  1.0413 -2.0117 -0.9336
32027SOL     OW 8059  12.307  13.637   0.155  0.0319 -0.2826  0.2217
32027SOL    HW1 8060  12.239  13.678   0.102 -0.9687 -0.0199  1.6515
32027SOL    HW2 8061  12.347  13.709   0.204  0.6893 -0.5644  0.1114
32028SOL     OW 8062   5.156   0.487   9.298  0.2156 -0.4350  0.6800
32028SOL    HW1 8063   5.207   0.550   9.349  1.3801 -1.3355  0.6603
32028SOL    HW2 8064   5.121   0.538   9.226  0.0345  0.4732  1.3888
32029SOL     OW 8065  13.879   9.956  12.644  0.1203 -0.6769  0.1348
32029SOL    HW1 8066  13.934  10.034  12.640 -1.1295  0.1892 -0.6511
32029SOL    HW2 8067  13.941   9.885  12.663  0.9920  0.7765  3.4086
32030SOL     OW 8068   6.002   7.157  12.337 -0.1208  0.5169  0.4555
32030SOL    HW1 8069   5.926   7.101  12.353  1.6347 -2.8545 -1.7897
32030SOL    HW2 8070   5.984   7.200  12.254  0.3960 -0.3722 -0.1352
32031SOL     OW 8071   0.507   3.833  14.036  0.7885  0.4849 -0.2983
32031SOL    HW1 8072   0.484   3.821  14.128  2.8116  0.7490  0.2845
32031SOL    HW2 8073   0.493   3.926  14.019 -1.1851  0.1383 -0.7662
32032SOL     OW 8074   6.871   4.892   3.466  0.0005 -0.0615 -0.1882
32032SOL    HW1 8075   6.905   4.831   3.401 -0.3030 -1.0442  0.5529
32032SOL    HW2 8076   6.933   4.889   3.538 -0.5669 -0.3196  0.3045
32033SOL     OW 8077   2.771  10.795   2.546 -0.2684  0.0571 -0.0901
32033SOL    HW1 8078   2.817  10.718   2.580 -1.1423 -0.6541 -0.4879
32033SOL    HW2 8079   2.782  10.788   2.451 -1.0194 -0.0100 -0.1749
32034SOL     OW 8080  12.551   3.304   5.941  0.1947 -0.4551  0.1168
32034SOL    HW1 8081  12.465   3.335   5.912  0.0633 -2.0278 -1.3169
32034SOL    HW2 8082  12.533   3.220   5.982  0.8188  0.1937  1.7900
32035SOL     OW 8083   3.577  13.877   4.849 -0.6962  0.9740  0.2994
32035SOL    HW1 8084   3.485  13.871   4.873 -1.1726  0.1917 -1.5330
32035SOL    HW2 8085   3.601  13.788   4.822  0.6711  1.1122  0.9426
32036SOL     OW 8086   0.479   3.725   0.248 -0.1939  0.2571 -0.1341
32036SOL    HW1 8087   0.558   3.670   0.248 -0.0930  0.3917 -0.8261
32036SOL    HW2 8088   0.407   3.664   0.232 -0.1178  0.2678 -0.5425
32037SOL     OW 8089   6.223   4.123  12.645 -0.1470  0.9459  0.2656
32037SOL    HW1 8090   6.140   4.086  12.675  0.0357  0.0324 -0.3142
32037SOL    HW2 8091   6.199   4.180  12.572 -0.4343  2.0334  1.1872
32038SOL     OW 8092  11.187  10.887   3.679  0.0110 -0.1889 -0.0524
32038SOL    HW1 8093  11.189  10.811   3.620 -0.6179 -0.7382  0.6181
32038SOL    HW2 8094  11.273  10.886   3.722 -0.5597 -1.4700  1.1138
32039SOL     OW 8095   1.901  13.740  11.980 -0.2713 -0.0969  0.1220
32039SOL    HW1 8096   1.922  13.692  12.060 -0.7838 -0.9477 -0.2325
32039SOL    HW2 8097   1.980  13.732  11.926 -0.1808 -0.1411  0.2614
32040SOL     OW 8098   5.071   5.138  11.100  0.9709 -0.9241 -0.0811
32040SOL    HW1 8099   4.989   5.138  11.148  0.8077 -0.3312 -0.3534
32040SOL    HW2 8100   5.123   5.207  11.142  1.6420 -1.8150  0.6016
32041SOL     OW 8101  10.215   0.928  11.126 -0.5064  0.1000 -0.2020
32041SOL    HW1 8102  10.277   0.978  11.073 -0.5008  0.3512  0.0431
32041SOL    HW2 8103  10.254   0.840  11.131 -0.5328  0.0613 -0.6526
32042SOL     OW 8104   1.277   5.338   3.151  0.1790 -0.0738 -0.1732
32042SOL    HW1 8105   1.333   5.302   3.219  0.8397  1.3756  0.0771
32042SOL    HW2 8106   1.255   5.263   3.096  0.8335 -0.9947  0.7887
32043SOL     OW 8107   6.274  12.936   0.851 -0.2229 -0.5377 -0.2453
32043SOL    HW1 8108   6.271  13.015   0.797 -1.4490 -2.0553 -2.5586
32043SOL    HW2 8109   6.337  12.879   0.807  0.5672 -0.9606  1.3376
32044SOL     OW 8110   4.777  10.312   1.563  0.6441  0.1429  0.6196
32044SOL    HW1 8111   4.780  10.246   1.632  1.4940 -0.1246  0.3335
32044SOL    HW2 8112   4.683  10.323   1.545  0.4352 -0.0841  1.5194
32045SOL     OW 8113   2.571   0.860  11.374 -0.3212 -0.3968 -0.3537
32045SOL    HW1 8114   2.578   0.766  11.361 -0.2980 -0.6330  1.2309
32045SOL    HW2 8115   2.609   0.876  11.460 -0.6371  1.0113 -0.4503
32046SOL     OW 8116   1.175   5.133  13.138  0.2797 -0.5484 -0.4653
32046SOL    HW1 8117   1.201   5.195  13.206  1.2952 -0.4049 -0.9620
32046SOL    HW2 8118   1.097   5.091  13.173  0.8007 -0.5125  0.8151
32047SOL     OW 8119   4.504   9.096  13.816 -0.2617 -0.0384  0.4888
32047SOL    HW1 8120   4.412   9.121  13.808  0.3897  2.0950 -1.2371
32047SOL    HW2 8121   4.516   9.029  13.749 -0.2846  0.6196 -0.1869
32048SOL     OW 8122  12.309  12.256  11.617  0.6322 -0.0251 -0.2401
32048SOL    HW1 8123  12.321  12.167  11.650  2.4125  1.0892  2.4885
32048SOL    HW2 8124  12.264  12.302  11.689  1.5937  1.7464 -0.7101
32049SOL     OW 8125   8.323   6.107   3.379  0.3433 -0.4003 -0.0163
32049SOL    HW1 8126   8.403   6.102   3.326  1.9098 -2.3968  2.3108
32049SOL    HW2 8127   8.327   6.194   3.420  0.1017  0.3945 -1.5881
32050SOL     OW 8128   4.080   0.683  11.470 -0.5399 -0.2206  0.5611
32050SOL    HW1 8129   4.101   0.727  11.388  0.3179 -0.7794  0.4788
32050SOL    HW2 8130   4.072   0.754  11.534 -1.1376  0.2098  0.0193
32051SOL     OW 8131  12.457   2.752   1.024  0.5783 -0.6256 -0.4667
32051SOL    HW1 8132  12.505   2.669   1.026  0.7325 -0.5322 -0.3084
32051SOL    HW2 8133  12.404   2.747   0.944  0.0749 -1.1652 -0.1126
32052SOL     OW 8134   5.983   4.699   5.507 -0.1048 -0.3421  0.2130
32052SOL    HW1 8135   5.913   4.634   5.521  0.4542 -1.9174 -3.2579
32052SOL    HW2 8136   6.062   4.646   5.495  0.9598  1.1862  0.2848
32053SOL     OW 8137   2.216   3.393   1.717  0.3158  0.2353  0.0213
32053SOL    HW1 8138   2.263   3.474   1.697  1.8375 -0.5065  0.4316
32053SOL    HW2 8139   2.250   3.329   1.654 -0.5743 -0.1923 -0.0403
32054SOL     OW 8140   4.389  12.581   7.394 -0.3008 -0.0853  0.0317
32054SOL    HW1 8141   4.474  12.624   7.382 -1.0512  2.2327  2.2870
32054SOL    HW2 8142   4.329  12.652   7.419 -2.4236 -1.9714  0.5981
32055SOL     OW 8143   4.872   0.511   9.340 -0.6082 -0.2261 -0.3653
32055SOL    HW1 8144   4.964   0.484   9.336 -0.0805  1.5595 -1.1825
32055SOL    HW2 8145   4.863   0.554   9.424 -0.4246  0.4867 -0.7060
32056SOL     OW 8146  10.052  10.944   9.661  0.4707 -0.3694 -0.3677
32056SOL    HW1 8147  10.129  10.910   9.706  1.0016  0.6136 -0.4996
32056SOL    HW2 8148  10.087  10.998   9.590 -0.2161  2.4815  1.3131
32057SOL     OW 8149  13.316  13.023  10.350  0.2034  0.4204 -0.4013
32057SOL    HW1 8150  13.247  12.959  10.367 -1.0143  1.5338 -0.9591
32057SOL    HW2 8151  13.273  13.108  10.362  1.4818  1.1398 -0.7684
32058SOL     OW 8152  12.764   1.724   9.063  0.1364  0.4770 -0.2148
32058SOL    HW1 8153  12.734   1.750   9.150  0.6076  0.9226 -0.1792
32058SOL    HW2 8154  12.698   1.758   9.003 -0.0534  0.4009 -0.0458
32059SOL     OW 8155  10.817   7.629  11.732 -0.2726  0.1801 -0.4866
32059SOL    HW1 8156  10.900   7.644  11.687  1.5222 -1.2422  2.0897
32059SOL    HW2 8157  10.784   7.717  11.753  0.4730  0.7607 -1.6745
32060SOL     OW 8158  12.711  11.537   0.070 -0.5953 -0.0838 -0.3546
32060SOL    HW1 8159  12.698  11.514  -0.022 -0.2036  0.2190 -0.4866
32060SOL    HW2 8160  12.748  11.459   0.109 -0.2351 -0.0243 -0.5768
32061SOL     OW 8161   8.075   9.135   3.513  0.3476 -0.0141 -0.2619
32061SOL    HW1 8162   8.035   9.088   3.586 -0.1032  0.9200  0.1051
32061SOL    HW2 8163   8.108   9.216   3.552  2.1631 -0.5123 -0.6476
32062SOL     OW 8164   9.128   1.208   0.773 -0.1852 -0.2859  0.5603
32062SOL    HW1 8165   9.083   1.176   0.694 -0.3417 -0.3312  0.6679
32062SOL    HW2 8166   9.065   1.193   0.844  0.2490 -0.9523  0.8109
32063SOL     OW 8167   4.302  11.143   6.380 -0.2468  0.1199  0.5006
32063SOL    HW1 8168   4.320  11.147   6.474 -1.7643  0.4833  0.8109
32063SOL    HW2 8169   4.259  11.058   6.367  0.7619 -0.3248 -0.0386
32064SOL     OW 8170   2.191   3.915   8.115 -0.1512 -0.4859 -0.5004
32064SOL    HW1 8171   2.279   3.915   8.078 -0.5593 -0.5902 -1.4952
32064SOL    HW2 8172   2.169   3.822   8.125  0.4048 -0.4691  1.1382
32065SOL     OW 8173   2.063   5.176  12.330  0.0971  0.0500 -0.3957
32065SOL    HW1 8174   2.055   5.098  12.275 -0.1410 -1.6019  1.8397
32065SOL    HW2 8175   2.149   5.166  12.372 -1.5745 -1.2899  3.0410
32066SOL     OW 8176   5.720  13.341   1.334  0.6297 -0.3527 -0.0720
32066SOL    HW1 8177   5.628  13.367   1.347  0.7174 -0.6659  1.3968
32066SOL    HW2 8178   5.766  13.424   1.319  0.1504 -0.1697 -0.5956
32067SOL     OW 8179   8.833   3.449   2.317 -0.0773 -0.7327  0.3102
32067SOL    HW1 8180   8.916   3.467   2.274 -1.1660 -0.7094 -1.9405
32067SOL    HW2 8181   8.816   3.526   2.371  0.4808  0.0953 -0.6703
32068SOL     OW 8182   4.301   9.341  11.560  0.7346  0.3652  0.7531
32068SOL    HW1 8183   4.347   9.319  11.641  1.6852  1.1750  0.4527
32068SOL    HW2 8184   4.262   9.427  11.577  0.3062  0.2042  0.6017
32069SOL     OW 8185   4.133   7.519   3.444  0.2266  0.2162  0.2643
32069SOL    HW1 8186   4.149   7.540   3.536  0.0170  0.1998  0.3031
32069SOL    HW2 8187   4.194   7.448   3.426  0.9389  0.8424  0.1334
32070SOL     OW 8188   3.674   7.105  11.346  0.0849 -0.0509  0.4891
32070SOL    HW1 8189   3.579   7.091  11.342 -0.0081  0.4891  0.7422
32070SOL    HW2 8190   3.708   7.026  11.389  0.0209 -1.3358 -1.6982
32071SOL     OW 8191  12.670   3.733   5.292 -0.3334  0.1219  1.0739
32071SOL    HW1 8192  12.708   3.675   5.357 -0.0810  0.4973  1.2683
32071SOL    HW2 8193  12.739   3.797   5.274 -0.0379 -0.5161 -0.2593
32072SOL     OW 8194   6.184   1.036   7.747  0.2031  0.2204 -0.6766
32072SOL    HW1 8195   6.274   1.031   7.777 -0.0292 -2.9125 -0.1873
32072SOL    HW2 8196   6.171   1.129   7.726  3.1709  0.9467  0.2038
32073SOL     OW 8197   8.477  13.922   1.199 -0.2585 -0.1951 -0.3109
32073SOL    HW1 8198   8.458  14.012   1.169 -1.5307 -0.7194 -1.1705
32073SOL    HW2 8199   8.393  13.889   1.229  0.4866 -0.6333  1.3776
32074SOL     OW 8200  13.951   1.976   4.134  0.1010  0.0541 -1.1577
32074SOL    HW1 8201  13.859   1.985   4.113 -0.0314 -2.3002 -1.8941
32074SOL    HW2 8202  13.953   1.957   4.228 -0.8529 -5.4878 -1.8962
32075SOL     OW 8203  11.890   1.729  13.640 -0.0009  0.4606 -0.4525
32075SOL    HW1 8204  11.905   1.656  13.699 -1.1228  0.1442 -0.5322
32075SOL    HW2 8205  11.938   1.705  13.560 -0.7041 -0.3959 -0.6318
32076SOL     OW 8206   2.581   9.939   4.825  0.4132 -0.2774  0.0756
32076SOL    HW1 8207   2.502   9.952   4.771 -0.2339  1.1531  1.2990
32076SOL    HW2 8208   2.588   9.844   4.833 -1.9016 -0.4532  0.9057
32077SOL     OW 8209   5.039   6.222  11.139 -0.0846 -0.2692  0.2530
32077SOL    HW1 8210   4.993   6.273  11.205  0.8458  1.6451 -0.5187
32077SOL    HW2 8211   4.970   6.199  11.076 -0.4124  0.6415  0.2572
32078SOL     OW 8212   9.774   2.759   4.072 -0.2548 -0.4408  0.0110
32078SOL    HW1 8213   9.855   2.804   4.052  0.2529 -1.0789  0.5762
32078SOL    HW2 8214   9.787   2.723   4.160 -0.9425 -0.9990 -0.1023
32079SOL     OW 8215   0.014   3.360   5.003 -0.5636  0.5867 -0.2094
32079SOL    HW1 8216  -0.016   3.317   4.923  2.3081  0.5752 -1.4209
32079SOL    HW2 8217   0.023   3.290   5.067 -0.3660  0.1341 -0.7263
32080SOL     OW 8218  13.081   6.560   1.994 -0.2709  0.4104 -0.5312
32080SOL    HW1 8219  13.044   6.481   1.956 -0.8693  0.0041  0.8115
32080SOL    HW2 8220  13.010   6.624   1.990 -0.4452  0.2702  0.1467
32081SOL     OW 8221   4.678   0.540   7.422 -0.2003  0.1970 -0.6129
32081SOL    HW1 8222   4.749   0.580   7.373 -0.8518  1.5284 -0.5075
32081SOL    HW2 8223   4.613   0.517   7.354 -0.4064  0.5628 -0.5415
32082SOL     OW 8224  13.277  11.208   3.437 -0.7283  0.1847  0.1016
32082SOL    HW1 8225  13.292  11.226   3.345 -0.8304 -0.9371 -0.1562
32082SOL    HW2 8226  13.189  11.242   3.454 -1.0930 -0.4412 -0.4693
32083SOL     OW 8227   7.684   5.343   0.628 -0.6795  0.3773  0.0908
32083SOL    HW1 8228   7.669   5.354   0.534  0.4557  2.5783  0.1024
32083SOL    HW2 8229   7.778   5.360   0.639  0.1124 -3.5618  1.2095
32084SOL     OW 8230   5.754  13.752   3.768  0.1827 -0.2879  0.1016
32084SOL    HW1 8231   5.673  13.707   3.792  0.1329 -0.5028 -0.4659
32084SOL    HW2 8232   5.746  13.838   3.809 -0.3282 -0.3114  0.0605
32085SOL     OW 8233  13.562   4.275   1.374 -0.1932  0.3220 -0.1357
32085SOL    HW1 8234  13.624   4.243   1.440  3.3464  0.9889 -2.8236
32085SOL    HW2 8235  13.560   4.205   1.308  0.1464  1.6078 -1.5518
32086SOL     OW 8236   4.800   3.635  13.027 -0.4568  0.1209  0.1684
32086SOL    HW1 8237   4.861   3.561  13.025 -1.4767 -0.7496  0.8223
32086SOL    HW2 8238   4.857   3.712  13.024  0.6234 -0.6707 -0.5035
32087SOL     OW 8239  11.788   7.239  12.338  0.1050  0.3200  0.1942
32087SOL    HW1 8240  11.872   7.238  12.384 -0.1384  1.3942  0.6939
32087SOL    HW2 8241  11.733   7.298  12.389 -0.0798  1.8024 -1.6209
32088SOL     OW 8242   2.235   6.732  11.530 -0.0554 -0.1385 -0.2216
32088SOL    HW1 8243   2.301   6.777  11.583  0.3612  0.2426 -1.0529
32088SOL    HW2 8244   2.169   6.799  11.512  1.2104  0.5885 -2.5795
32089SOL     OW 8245   0.046   4.047   2.728  0.2883  0.2779  0.2851
32089SOL    HW1 8246  -0.023   4.109   2.751 -1.4228 -1.0596 -1.0138
32089SOL    HW2 8247   0.080   4.079   2.644 -1.8841 -1.4037 -1.3707
32090SOL     OW 8248  10.975   3.617   8.777  0.4603  0.1968 -0.7582
32090SOL    HW1 8249  10.988   3.626   8.871  0.1742 -0.3668 -0.6630
32090SOL    HW2 8250  11.062   3.630   8.739  0.6040  0.2674 -0.4079
32091SOL     OW 8251   2.584   1.642   2.743 -0.0800 -0.0810  0.1544
32091SOL    HW1 8252   2.522   1.582   2.700 -0.0105 -0.3615  0.4418
32091SOL    HW2 8253   2.670   1.609   2.718 -0.0348  0.8789 -1.0375
32092SOL     OW 8254  12.965  13.803   4.231 -0.7982 -0.0258  0.3046
32092SOL    HW1 8255  13.029  13.857   4.186  0.7299 -0.8287  1.4111
32092SOL    HW2 8256  12.884  13.815   4.182  0.7876 -1.0925 -2.8225
32093SOL     OW 8257   3.739   0.883   5.346 -0.0713  0.1295  0.3806
32093SOL    HW1 8258   3.658   0.836   5.366  0.5947  0.0011  3.1430
32093SOL    HW2 8259   3.804   0.814   5.337  0.3028  0.3427  1.3165
32094SOL     OW 8260  13.971   9.565  11.314 -0.7988  0.0433  0.4305
32094SOL    HW1 8261  14.064   9.542  11.304 -1.2843 -2.0469  0.3487
32094SOL    HW2 8262  13.972   9.640  11.374  1.1668  2.7719 -2.6391
32095SOL     OW 8263   6.963   4.335  12.826 -0.0768  0.0007  0.1944
32095SOL    HW1 8264   6.946   4.281  12.749 -1.5351 -0.2218  0.6406
32095SOL    HW2 8265   6.952   4.276  12.901  2.6170 -0.1121  0.5939
32096SOL     OW 8266   0.776   0.833   8.102  0.0315  0.4397  0.1878
32096SOL    HW1 8267   0.774   0.924   8.073 -1.1762  0.8112  1.3097
32096SOL    HW2 8268   0.863   0.822   8.140  0.7013  0.6862 -1.1829
32097SOL     OW 8269   2.953   3.713   5.811  0.1332  0.0920 -0.0357
32097SOL    HW1 8270   2.948   3.796   5.764 -0.0346 -0.2785 -0.6915
32097SOL    HW2 8271   3.029   3.669   5.773  0.1136 -0.1315  0.1805
32098SOL     OW 8272  12.299  13.724   4.926 -0.6142 -0.1420 -1.1602
32098SOL    HW1 8273  12.251  13.806   4.912  0.5662  0.6078 -0.9946
32098SOL    HW2 8274  12.331  13.730   5.016 -0.1148 -0.5581 -1.3052
32099SOL     OW 8275   9.751   3.563   1.893 -0.4060  0.1710  0.2941
32099SOL    HW1 8276   9.659   3.547   1.875 -0.3105  0.5189 -0.5244
32099SOL    HW2 8277   9.751   3.612   1.976 -0.9447  0.0985  0.3377
32100SOL     OW 8278   3.485  12.357  12.478  0.9213 -0.3207  0.2752
32100SOL    HW1 8279   3.484  12.405  12.561 -0.5568 -1.5896  1.0345
32100SOL    HW2 8280   3.414  12.395  12.427 -1.3063 -2.5951  1.4913
32101SOL     OW 8281  11.111   5.828  12.685 -0.5847  0.3382  0.2418
32101SOL    HW1 8282  11.023   5.863  12.672 -0.1025  1.9029  1.0037
32101SOL    HW2 8283  11.101   5.760  12.751 -1.2742  0.2098  0.0135
32102SOL     OW 8284   5.380   5.370   4.733 -0.2697  0.6800  0.1928
32102SOL    HW1 8285   5.404   5.463   4.735  0.7864  0.4260  0.0338
32102SOL    HW2 8286   5.320   5.363   4.659 -0.2197  1.2115  0.0968
32103SOL     OW 8287   5.092   5.212  12.411  0.4197 -0.1426  0.0104
32103SOL    HW1 8288   5.091   5.304  12.384 -3.1133 -0.3885 -1.2709
32103SOL    HW2 8289   5.183   5.185  12.399  1.9996  3.5198  1.9946
32104SOL     OW 8290   5.176   8.638   9.251 -0.1320  0.1080 -0.7273
32104SOL    HW1 8291   5.148   8.697   9.320  1.4485 -1.4171  1.3257
32104SOL    HW2 8292   5.098   8.587   9.230  0.0930 -1.8457  2.5727
32105SOL     OW 8293   7.230   6.129  13.242  0.3040  0.0065  0.0593
32105SOL    HW1 8294   7.293   6.183  13.194  1.4526 -0.5269  0.9282
32105SOL    HW2 8295   7.280   6.094  13.316 -1.5458  1.2899  2.0520
32106SOL     OW 8296   7.981   7.686   2.726  0.1333 -0.5406 -0.0287
32106SOL    HW1 8297   7.973   7.742   2.803  1.6448 -0.1868 -0.0957
32106SOL    HW2 8298   8.004   7.600   2.761  0.6748 -0.4156 -0.0752
32107SOL     OW 8299   8.948  13.395   6.966  0.2714  0.2868  0.0856
32107SOL    HW1 8300   8.956  13.307   6.928  0.1707 -0.1475  1.0308
32107SOL    HW2 8301   8.967  13.454   6.893 -0.1633 -0.5017 -0.6964
32108SOL     OW 8302   7.282   2.678   5.595 -0.5891 -0.2671  0.4138
32108SOL    HW1 8303   7.318   2.607   5.647 -0.6006 -0.2281  0.4745
32108SOL    HW2 8304   7.189   2.659   5.588 -0.5959 -0.2474  0.4477
32109SOL     OW 8305   7.704  11.912   0.033  0.0828  0.2202  0.1228
32109SOL    HW1 8306   7.626  11.889   0.083 -0.8076  1.1916 -0.7603
32109SOL    HW2 8307   7.671  11.928  -0.056  1.6941 -2.0692 -0.9781
32110SOL     OW 8308   8.268   3.002  11.048  0.1852  0.1415  0.2270
32110SOL    HW1 8309   8.269   3.098  11.047 -1.1946  0.2058  1.6858
32110SOL    HW2 8310   8.360   2.977  11.038  0.3963  1.5429 -1.9792
32111SOL     OW 8311   8.601  10.444   4.272  0.1694  0.1703 -0.7302
32111SOL    HW1 8312   8.640  10.463   4.357 -1.0874 -0.0143 -0.0760
32111SOL    HW2 8313   8.516  10.404   4.293 -0.3404  0.4839 -2.0710
32112SOL     OW 8314   7.380   4.412   6.620 -0.2088  0.1144 -0.4050
32112SOL    HW1 8315   7.461   4.439   6.662 -0.3415 -0.1520  0.0295
32112SOL    HW2 8316   7.327   4.376   6.691 -0.1920 -0.9123 -0.8899
32113SOL     OW 8317   4.920   8.815   6.441  0.1885 -0.0505  0.5340
32113SOL    HW1 8318   4.878   8.867   6.373 -0.8538 -1.7462 -0.1958
32113SOL    HW2 8319   5.014   8.832   6.430 -0.1032  1.4720  0.1987
32114SOL     OW 8320  12.694   4.199  10.037  0.0955  0.5687 -0.0285
32114SOL    HW1 8321  12.750   4.268  10.074  1.7187  0.3474 -1.9461
32114SOL    HW2 8322  12.608   4.217  10.074  0.8906  2.4377  1.0736
32115SOL     OW 8323   0.636  11.121   0.253 -0.1017 -0.0453 -0.5953
32115SOL    HW1 8324   0.710  11.060   0.258  0.0793  0.1952 -0.3009
32115SOL    HW2 8325   0.673  11.205   0.281 -0.0920  0.4252 -1.9355
32116SOL     OW 8326   4.518  13.943   1.045  0.4839  0.1317  1.0456
32116SOL    HW1 8327   4.543  13.905   0.960  0.9489 -1.3916  1.8331
32116SOL    HW2 8328   4.576  14.018   1.055  1.4076 -0.5082  0.6406
32117SOL     OW 8329   9.925  13.673   1.994 -0.0749  0.0952 -0.3433
32117SOL    HW1 8330   9.837  13.686   1.958 -0.3639 -1.0660 -0.1034
32117SOL    HW2 8331   9.974  13.634   1.921  0.3586  1.0689 -0.5907
32118SOL     OW 8332   2.510   8.986  10.073  0.0293  0.3115  0.5868
32118SOL    HW1 8333   2.574   9.054  10.095  2.6931 -1.6791 -0.4447
32118SOL    HW2 8334   2.531   8.963   9.982 -0.0789 -2.4963  1.1807
32119SOL     OW 8335  10.673   5.587   5.367  0.4723 -0.5334 -0.1044
32119SOL    HW1 8336  10.760   5.628   5.374  1.3733 -2.4992  0.8398
32119SOL    HW2 8337  10.636   5.625   5.287  1.2120  2.0850  0.6802
32120SOL     OW 8338   5.398   9.240  12.568 -0.5620  0.4175  0.0548
32120SOL    HW1 8339   5.466   9.218  12.505 -1.1768  0.7002 -0.7297
32120SOL    HW2 8340   5.443   9.289  12.637  0.1903 -0.2630  0.0565
32121SOL     OW 8341   4.939   9.111   3.320 -0.7318 -0.6307  0.0125
32121SOL    HW1 8342   5.033   9.091   3.325 -0.3443  1.0518  0.1055
32121SOL    HW2 8343   4.912   9.119   3.412 -0.4324  1.0223 -0.0063
32122SOL     OW 8344  12.992   3.083   0.138 -0.3261 -0.0037 -0.4474
32122SOL    HW1 8345  12.941   3.041   0.069 -0.7975 -0.8288  0.3823
32122SOL    HW2 8346  12.933   3.085   0.214 -0.0922  1.5723 -0.2599
32123SOL     OW 8347   0.619  11.535  12.172  0.0240  0.4194  0.8483
32123SOL    HW1 8348   0.597  11.540  12.265  0.0009 -0.0708  0.8740
32123SOL    HW2 8349   0.709  11.503  12.171  1.1113  3.2250  0.7698
32124SOL     OW 8350   3.755  13.860   2.350  0.4374  0.5041 -0.3089
32124SOL    HW1 8351   3.774  13.911   2.271 -0.5343  1.5759  0.1261
32124SOL    HW2 8352   3.664  13.882   2.371 -0.4668 -2.3245 -0.7751
32125SOL     OW 8353   1.300   5.368   8.989 -0.7196 -0.3642 -0.4062
32125SOL    HW1 8354   1.338   5.455   8.999 -2.3737  0.3603 -0.2602
32125SOL    HW2 8355   1.227   5.379   8.928  0.2490 -2.0462 -2.0113
32126SOL     OW 8356   9.491   4.599   4.557  0.5105 -0.9017 -0.1833
32126SOL    HW1 8357   9.423   4.604   4.490 -0.6819 -0.4539  1.0052
32126SOL    HW2 8358   9.474   4.516   4.603 -0.7845  0.2612  1.6143
32127SOL     OW 8359  10.819   7.574   5.030  0.0946 -0.5858  0.4415
32127SOL    HW1 8360  10.835   7.668   5.030 -2.2998 -0.1205  1.4006
32127SOL    HW2 8361  10.765   7.558   5.107 -1.7043 -2.3185 -1.0636
32128SOL     OW 8362   8.501  13.067  11.225 -0.1055 -0.3096  0.2649
32128SOL    HW1 8363   8.538  13.144  11.181 -0.4098  0.2431  0.9519
32128SOL    HW2 8364   8.546  12.993  11.186  0.7721  0.2733  0.1520
32129SOL     OW 8365   2.131   2.324  10.754  0.3404 -0.6106  0.0148
32129SOL    HW1 8366   2.131   2.407  10.802 -0.0352 -0.5315 -0.1187
32129SOL    HW2 8367   2.105   2.259  10.818  1.7540 -0.8164  0.4263
32130SOL     OW 8368   7.961   1.159   1.666 -0.7098  0.5155  0.1811
32130SOL    HW1 8369   7.932   1.242   1.629  0.2385  0.3121 -1.0946
32130SOL    HW2 8370   8.056   1.159   1.654 -0.2637  0.5857  2.9892
32131SOL     OW 8371   7.011  11.437   4.225  0.0610  0.6461 -0.3700
32131SOL    HW1 8372   6.952  11.477   4.161 -1.1003 -1.7641 -0.9241
32131SOL    HW2 8373   7.071  11.384   4.172  2.2411  2.3147  0.2525
32132SOL     OW 8374   5.662   3.153   0.932  0.5606  0.2688 -0.2002
32132SOL    HW1 8375   5.615   3.070   0.921  0.7670  0.2523 -1.0401
32132SOL    HW2 8376   5.668   3.189   0.844 -2.2736  2.7419  0.4487
32133SOL     OW 8377   4.006   3.901   0.442 -0.0204  0.4080  0.1657
32133SOL    HW1 8378   4.065   3.941   0.506 -1.0232  2.0299  0.1218
32133SOL    HW2 8379   4.062   3.840   0.394  1.2518  0.7490  1.1477
32134SOL     OW 8380  11.368  12.070   8.891  0.4115 -0.0971  0.3676
32134SOL    HW1 8381  11.407  12.113   8.967  0.4343  0.1590  0.2119
32134SOL    HW2 8382  11.274  12.072   8.908  0.4841 -1.2538  1.0294
32135SOL     OW 8383  11.318  13.521  11.853  0.5688  0.5364 -0.0598
32135SOL    HW1 8384  11.285  13.587  11.792 -2.3778  0.5846  1.4089
32135SOL    HW2 8385  11.284  13.438  11.820 -0.7570  0.5235  1.1832
32136SOL     OW 8386   7.820   2.127   3.631 -0.3216  0.1613  0.0337
32136SOL    HW1 8387   7.892   2.184   3.658 -0.8879  0.7131  0.4095
32136SOL    HW2 8388   7.779   2.099   3.713 -1.9980  1.7827 -0.1787
32137SOL     OW 8389   5.131   5.996   5.680  0.3091  1.1571  0.1896
32137SOL    HW1 8390   5.214   6.006   5.726  0.4469 -0.1358  0.2587
32137SOL    HW2 8391   5.064   6.004   5.748  0.4619  0.3731  0.4343
32138SOL     OW 8392   8.671  11.609   6.022 -0.2508 -0.9013 -0.1232
32138SOL    HW1 8393   8.607  11.670   5.985  0.2760 -0.3153 -0.0759
32138SOL    HW2 8394   8.694  11.647   6.107 -0.9483 -1.8877  0.5222
32139SOL     OW 8395   5.533   7.256   3.351  0.0495 -0.2695 -0.1558
32139SOL    HW1 8396   5.599   7.294   3.408 -0.1875  1.0637 -0.7248
32139SOL    HW2 8397   5.469   7.326   3.337 -0.0723 -0.6436 -1.7713
32140SOL     OW 8398   7.174   0.835   8.801  0.2123  0.1724  0.0690
32140SOL    HW1 8399   7.094   0.792   8.774  0.1315  0.8276 -0.7850
32140SOL    HW2 8400   7.197   0.892   8.728  1.1973  0.3526  0.4935
32141SOL     OW 8401   6.089   2.257  10.389  0.3367 -0.4479 -0.1213
32141SOL    HW1 8402   6.008   2.256  10.338  0.9433 -1.3000 -1.1223
32141SOL    HW2 8403   6.095   2.345  10.424 -1.2034 -0.4798  0.2725
32142SOL     OW 8404   9.334   7.545   7.407 -0.2161 -0.4919 -0.1426
32142SOL    HW1 8405   9.242   7.521   7.405  0.1515 -2.2596  0.9282
32142SOL    HW2 8406   9.379   7.467   7.374  0.8981  0.3224 -0.6034
32143SOL     OW 8407   6.160   4.256   5.534  0.1654 -0.0613 -0.2967
32143SOL    HW1 8408   6.252   4.275   5.551  0.2151 -0.5132 -0.0594
32143SOL    HW2 8409   6.129   4.332   5.486  0.5085  0.3746  0.1560
32144SOL     OW 8410   5.904   0.254   9.002 -0.4547  0.3153 -0.0050
32144SOL    HW1 8411   5.838   0.190   9.027 -0.4404 -0.0180 -0.8220
32144SOL    HW2 8412   5.903   0.256   8.907 -0.2102  1.2785 -0.0065
32145SOL     OW 8413   3.177   2.005  11.850 -0.0293  0.7722  0.2975
32145SOL    HW1 8414   3.167   1.960  11.766  1.6862 -0.6609  0.7752
32145SOL    HW2 8415   3.128   2.086  11.841 -3.1839 -1.0920 -0.6808
32146SOL     OW 8416  12.527   3.408   4.150  0.3607  0.1231  0.5277
32146SOL    HW1 8417  12.487   3.450   4.074 -0.3043 -0.4090  0.5749
32146SOL    HW2 8418  12.517   3.314   4.133  1.9185 -0.0291  0.3752
32147SOL     OW 8419   2.485   6.524  10.839  0.2216  0.0941  0.0497
32147SOL    HW1 8420   2.470   6.433  10.814  1.3357  0.2722 -1.3823
32147SOL    HW2 8421   2.543   6.518  10.915  0.0086 -0.3926  0.1787
32148SOL     OW 8422  13.540   0.991  12.735 -0.1572 -0.3201 -0.4257
32148SOL    HW1 8423  13.497   0.994  12.820  1.8060  1.6793  0.5898
32148SOL    HW2 8424  13.557   0.898  12.720  1.5271 -0.6122  2.5388
32149SOL     OW 8425   3.772   2.160   3.631 -0.6939 -0.6309 -0.4028
32149SOL    HW1 8426   3.713   2.202   3.569  1.3194 -0.2533 -2.1837
32149SOL    HW2 8427   3.759   2.066   3.617  0.0863 -0.5564 -1.8224
32150SOL     OW 8428   7.440   0.115  11.238  0.6507  0.0970  0.0524
32150SOL    HW1 8429   7.445   0.021  11.250  0.4471  0.1337  0.4299
32150SOL    HW2 8430   7.397   0.126  11.153  0.8430 -0.1500 -0.0765
32151SOL     OW 8431  12.697   8.546  13.199  0.2307 -0.5889  0.7192
32151SOL    HW1 8432  12.738   8.627  13.229  0.9614 -0.3949 -0.7237
32151SOL    HW2 8433  12.639   8.573  13.129  0.0001 -1.2439  0.6555
32152SOL     OW 8434   7.985  12.519  11.824 -0.5014  0.1612 -0.3223
32152SOL    HW1 8435   8.052  12.551  11.764 -2.6944  0.3115 -2.8754
32152SOL    HW2 8436   7.930  12.461  11.771 -1.9934 -0.5190  1.8130
32153SOL     OW 8437  12.397   8.445   2.226  0.5822 -0.3543  0.1992
32153SOL    HW1 8438  12.467   8.478   2.170 -0.9907 -2.0207 -3.0353
32153SOL    HW2 8439  12.318   8.489   2.195 -0.2706 -0.7349  1.7098
32154SOL     OW 8440  12.417  13.829   7.540 -0.2223  0.0111 -0.5276
32154SOL    HW1 8441  12.397  13.812   7.632 -0.2206 -1.5949 -0.7878
32154SOL    HW2 8442  12.403  13.923   7.529  1.3664  0.5484  1.4913
32155SOL     OW 8443  13.832   5.535  12.032  0.5499  0.3981 -0.3026
32155SOL    HW1 8444  13.895   5.544  11.961  1.0965 -0.8886  0.0031
32155SOL    HW2 8445  13.882   5.498  12.104 -0.0329  1.5595  0.7206
32156SOL     OW 8446   2.671   3.077   7.471 -0.1921  0.0551  0.3545
32156SOL    HW1 8447   2.615   3.030   7.409 -0.9197  0.3137  0.8098
32156SOL    HW2 8448   2.626   3.070   7.555  0.9828 -0.6385  0.9623
32157SOL     OW 8449  11.599  12.944  10.071  0.3187 -0.2120  0.6605
32157SOL    HW1 8450  11.665  13.013  10.080  0.9772 -0.7744  0.2702
32157SOL    HW2 8451  11.518  12.985  10.101  0.4710  1.0590 -0.5601
32158SOL     OW 8452   3.001   4.261  13.999  0.1521 -0.5650  0.4114
32158SOL    HW1 8453   2.991   4.208  14.078 -2.3993  1.9892  1.9859
32158SOL    HW2 8454   3.070   4.324  14.020  0.1369 -0.4899  0.2394
32159SOL     OW 8455  12.168   0.026   2.270 -0.2134 -0.1121 -0.1778
32159SOL    HW1 8456  12.086   0.036   2.318 -0.1957  0.5878 -0.2829
32159SOL    HW2 8457  12.228   0.088   2.313  0.3499 -0.8395  0.0940
32160SOL     OW 8458   4.626   6.999   2.426 -0.4110  0.2387 -0.3110
32160SOL    HW1 8459   4.696   7.063   2.439 -1.1577  1.0582 -0.2280
32160SOL    HW2 8460   4.626   6.981   2.333 -1.6153  2.0739 -0.7325
32161SOL     OW 8461  13.050  12.121   8.158 -0.0477 -0.5091  0.0617
32161SOL    HW1 8462  13.051  12.058   8.230 -0.9636 -1.5405 -0.7821
32161SOL    HW2 8463  13.128  12.100   8.106 -0.7253 -1.4513 -0.6059
32162SOL     OW 8464  11.423   2.960   5.460 -0.4457  0.4027  0.0888
32162SOL    HW1 8465  11.445   2.885   5.405 -0.8278  0.1054  0.3397
32162SOL    HW2 8466  11.501   2.974   5.514 -0.8507 -0.6647  0.9913
32163SOL     OW 8467   1.942   2.223  11.968 -0.6041  0.2230  0.0152
32163SOL    HW1 8468   1.869   2.276  11.936 -0.8437 -1.3634 -2.3462
32163SOL    HW2 8469   2.010   2.235  11.901  0.3177 -0.3548  0.8345
32164SOL     OW 8470  10.364  10.392  12.049 -0.4796 -0.2208  0.0714
32164SOL    HW1 8471  10.332  10.435  12.128 -1.8562 -0.4514 -0.3275
32164SOL    HW2 8472  10.348  10.299  12.065  0.7385 -0.4314  0.1622
32165SOL     OW 8473   3.377   5.984  10.155  0.4803 -0.1404 -0.3244
32165SOL    HW1 8474   3.465   6.004  10.184  0.0031  1.0025  0.3890
32165SOL    HW2 8475   3.354   5.904  10.202  0.7540  0.1364  0.2872
32166SOL     OW 8476   8.613   1.667   2.414  0.0972  0.0514  0.3727
32166SOL    HW1 8477   8.649   1.599   2.357  0.8483  0.8567 -0.1307
32166SOL    HW2 8478   8.535   1.698   2.368 -0.3991 -0.6369  0.7306
32167SOL     OW 8479   1.821   7.096  13.776 -0.1168 -0.3390 -0.7535
32167SOL    HW1 8480   1.782   7.070  13.692  0.6713  1.0868 -1.5930
32167SOL    HW2 8481   1.786   7.033  13.839 -1.9859 -0.4881 -1.8650
32168SOL     OW 8482   1.806   7.747  11.465  0.1670  0.2022  0.3411
32168SOL    HW1 8483   1.740   7.683  11.494  0.9694 -0.9549 -0.2975
32168SOL    HW2 8484   1.755   7.824  11.441 -0.9950 -0.7188 -0.3010
32169SOL     OW 8485  10.064  11.782  10.084 -0.0883  0.0466 -0.4461
32169SOL    HW1 8486  10.007  11.799  10.009 -1.0067 -1.5578 -0.1617
32169SOL    HW2 8487  10.013  11.810  10.160 -0.6271 -1.5419 -0.1794
32170SOL     OW 8488   4.296   3.744   5.753  0.4505 -0.3217  0.2202
32170SOL    HW1 8489   4.231   3.675   5.764  0.3879 -0.1446  1.0457
32170SOL    HW2 8490   4.380   3.701   5.769  0.2890  0.2330  3.3288
32171SOL     OW 8491   0.187  13.486   3.164 -0.0891 -0.1800  0.2682
32171SOL    HW1 8492   0.223  13.490   3.253 -0.9649 -0.7258  0.6585
32171SOL    HW2 8493   0.228  13.559   3.118  1.7575 -0.9488  0.5976
32172SOL     OW 8494  10.113  11.630   6.471 -0.3246 -0.3137  0.2962
32172SOL    HW1 8495  10.127  11.548   6.519  1.5325 -0.0531  0.2760
32172SOL    HW2 8496  10.085  11.692   6.539  0.8334 -0.3253  0.8123
32173SOL     OW 8497  11.164   5.186   3.083  0.1308  0.2615 -0.1402
32173SOL    HW1 8498  11.197   5.112   3.133  0.7335 -0.7148 -1.8976
32173SOL    HW2 8499  11.240   5.244   3.073 -0.2561  0.9926  0.9410
32174SOL     OW 8500   6.112   3.865   2.839 -0.1267 -0.0775 -0.2622
32174SOL    HW1 8501   6.140   3.952   2.812 -0.6538 -0.1533 -1.0714
32174SOL    HW2 8502   6.161   3.848   2.920  0.6176  0.6163 -0.5572
32175SOL     OW 8503   4.236   0.922  12.539 -0.5235 -0.2397 -0.0029
32175SOL    HW1 8504   4.270   0.952  12.454 -0.8182  0.3179  0.0669
32175SOL    HW2 8505   4.140   0.926  12.529 -0.5594 -0.4070  0.2700
32176SOL     OW 8506   7.747   6.520   5.210  0.7104  0.0430 -0.2035
32176SOL    HW1 8507   7.763   6.569   5.290  1.2551 -0.9522  0.3200
32176SOL    HW2 8508   7.833   6.513   5.169  0.9187 -1.6694  0.4565
32177SOL     OW 8509   2.308   2.108   6.720 -0.7243 -0.3469  0.3149
32177SOL    HW1 8510   2.264   2.078   6.640 -0.4496  0.1086 -0.0124
32177SOL    HW2 8511   2.398   2.124   6.693 -0.4408 -0.9249  0.8981
32178SOL     OW 8512   6.749   7.997  12.619 -1.0971  0.3279 -0.1643
32178SOL    HW1 8513   6.830   8.040  12.646  0.0839 -1.3689 -0.8457
32178SOL    HW2 8514   6.760   7.906  12.647 -2.3119 -0.1657 -1.2223
32179SOL     OW 8515   3.215  13.528   9.035  0.0637  0.3369  0.1853
32179SOL    HW1 8516   3.142  13.586   9.059 -1.4883 -1.1576 -0.6760
32179SOL    HW2 8517   3.220  13.465   9.108  0.7025  0.6018  0.3757
32180SOL     OW 8518   2.254   8.370   9.590  0.2316 -0.2451  0.4116
32180SOL    HW1 8519   2.236   8.448   9.643 -0.0397 -0.2369  0.3082
32180SOL    HW2 8520   2.227   8.297   9.645  1.0105 -0.3075  0.7361
32181SOL     OW 8521   4.235   8.740   1.709  0.0181 -0.1086  0.4008
32181SOL    HW1 8522   4.206   8.759   1.620 -2.2872 -0.4257  1.0327
32181SOL    HW2 8523   4.284   8.658   1.701  1.0287  0.5573 -0.7296
32182SOL     OW 8524  11.322   8.409   6.689  0.1849  0.3322 -0.5855
32182SOL    HW1 8525  11.338   8.419   6.595 -0.6017 -0.2110 -0.7897
32182SOL    HW2 8526  11.293   8.495   6.718 -0.3872  0.2901 -1.0219
32183SOL     OW 8527   0.846   7.376   5.215 -0.1007  0.0681  0.5976
32183SOL    HW1 8528   0.831   7.445   5.150  0.6611 -0.1370  0.1881
32183SOL    HW2 8529   0.896   7.419   5.284  3.4189 -0.7579 -1.2034
32184SOL     OW 8530  12.475   7.892   8.314 -0.4106 -0.3282 -0.0362
32184SOL    HW1 8531  12.561   7.900   8.355 -0.2953 -0.2171 -0.2997
32184SOL    HW2 8532  12.413   7.920   8.382 -0.2238 -0.1868  0.0759
32185SOL     OW 8533   8.804   5.372  13.486  0.7906 -0.2225  0.1203
32185SOL    HW1 8534   8.775   5.285  13.456 -1.5600  0.1395  1.0844
32185SOL    HW2 8535   8.861   5.353  13.561  1.0036 -0.9502 -0.2111
32186SOL     OW 8536   5.768   1.245   4.048 -0.0872  0.1792  0.1473
32186SOL    HW1 8537   5.858   1.217   4.064 -0.1116 -0.3572 -0.6267
32186SOL    HW2 8538   5.714   1.175   4.086 -0.1972  0.6363  0.8679
32187SOL     OW 8539   9.624   0.567   1.583 -0.6654 -0.1430  0.4079
32187SOL    HW1 8540   9.644   0.502   1.651  0.7057  0.4100  0.5652
32187SOL    HW2 8541   9.594   0.514   1.509  0.5657 -1.0038  0.4806
32188SOL     OW 8542   9.505   8.127   4.822 -0.3313 -0.2997  0.0462
32188SOL    HW1 8543   9.423   8.085   4.848  0.0560 -0.7214  0.5974
32188SOL    HW2 8544   9.574   8.075   4.864  0.2222  0.0589 -0.3956
32189SOL     OW 8545   5.723  10.105   1.467  0.0970  0.0132  0.0995
32189SOL    HW1 8546   5.692  10.014   1.463 -1.4384  0.5121  0.0573
32189SOL    HW2 8547   5.707  10.132   1.557  1.5566 -0.0740  0.4055
32190SOL     OW 8548   4.289   2.273   2.802 -0.5947 -0.0134  0.2281
32190SOL    HW1 8549   4.326   2.361   2.803  1.7346 -0.9241  0.7642
32190SOL    HW2 8550   4.337   2.226   2.869 -1.0584 -1.9703 -0.7354
32191SOL     OW 8551   4.617  12.658   7.052 -0.0922 -0.0446  0.2490
32191SOL    HW1 8552   4.523  12.638   7.055 -0.6742  2.2117 -0.6713
32191SOL    HW2 8553   4.639  12.656   6.959  0.7903 -0.5590  0.4631
32192SOL     OW 8554  11.368   7.217  12.076 -0.1228 -0.0177 -0.1001
32192SOL    HW1 8555  11.364   7.122  12.063 -0.0061 -0.1220  0.5757
32192SOL    HW2 8556  11.279   7.241  12.102 -0.4490  0.2445 -1.3633
32193SOL     OW 8557   3.774   9.819  12.650  0.0110 -0.0153  0.0231
32193SOL    HW1 8558   3.696   9.850  12.605 -0.8936 -2.7270 -0.4389
32193SOL    HW2 8559   3.741   9.771  12.726  1.1771 -1.2538 -0.2025
32194SOL     OW 8560   1.959  13.016   5.889 -0.2438  0.3371  0.2563
32194SOL    HW1 8561   1.882  12.967   5.859 -0.0722  0.5598 -0.5680
32194SOL    HW2 8562   2.030  12.988   5.832 -0.4890  2.7204 -1.3662
32195SOL     OW 8563   3.027   2.222  11.835 -0.2268  0.5930  0.3664
32195SOL    HW1 8564   2.975   2.220  11.915  0.0697  1.0387  0.5767
32195SOL    HW2 8565   2.972   2.269  11.772 -0.9203 -0.7128 -0.0404
32196SOL     OW 8566   0.936   8.057   4.800  0.1064  0.2421  0.2937
32196SOL    HW1 8567   0.914   7.989   4.737  1.3619  0.2597 -0.1833
32196SOL    HW2 8568   0.913   8.019   4.885  2.0056 -1.3286  0.1642
32197SOL     OW 8569   2.885   1.387   9.693  0.1452  0.0369  0.3712
32197SOL    HW1 8570   2.797   1.420   9.712  0.4944  0.4131  1.4403
32197SOL    HW2 8571   2.925   1.376   9.779  0.4429 -2.1100  0.0098
32198SOL     OW 8572   5.855   8.877  10.820  0.0308  0.1708 -0.1867
32198SOL    HW1 8573   5.764   8.907  10.821  0.2882  0.9759  0.1386
32198SOL    HW2 8574   5.901   8.937  10.879  1.3546  1.7096 -2.5658
32199SOL     OW 8575   2.520   4.002   4.521  0.2301 -0.6035  0.1524
32199SOL    HW1 8576   2.445   4.028   4.573  0.5890  0.2696  0.2540
32199SOL    HW2 8577   2.589   4.064   4.545  0.5244 -0.4335 -1.0607
32200SOL     OW 8578   3.678   2.373   7.562  0.3909 -0.1359 -0.1445
32200SOL    HW1 8579   3.624   2.295   7.549  0.4589 -0.0448 -1.0320
32200SOL    HW2 8580   3.671   2.391   7.656 -0.6906 -0.4306 -0.1515
32201SOL     OW 8581  11.970   0.533  13.879 -0.3231 -0.5421  0.7136
32201SOL    HW1 8582  12.040   0.549  13.943  1.1164 -2.9530 -0.1268
32201SOL    HW2 8583  12.008   0.558  13.795 -0.2651 -2.2069  0.2020
32202SOL     OW 8584   2.047   5.795   9.953  0.7796  0.7484  0.7326
32202SOL    HW1 8585   2.057   5.743  10.033 -2.2530  0.3419  0.9340
32202SOL    HW2 8586   1.964   5.840   9.963  1.1640  2.1065 -1.4638
32203SOL     OW 8587   2.020  10.685   6.867  0.3811 -0.3791 -0.5301
32203SOL    HW1 8588   2.090  10.750   6.857 -0.8113  0.8358 -1.2874
32203SOL    HW2 8589   1.961  10.702   6.794 -1.3545 -0.5253  0.7719
32204SOL     OW 8590   3.648   9.985   8.672  0.0712 -0.5393  0.4139
32204SOL    HW1 8591   3.613   9.964   8.585  1.7081 -0.0822 -0.3922
32204SOL    HW2 8592   3.702   9.910   8.695 -0.8224 -0.9246  1.3372
32205SOL     OW 8593   1.287   2.633   7.288  0.4433 -0.1479 -0.3705
32205SOL    HW1 8594   1.204   2.616   7.334  0.8011 -0.8048  0.0503
32205SOL    HW2 8595   1.307   2.724   7.310  1.2983 -0.8121  1.9797
32206SOL     OW 8596   9.004   4.732   6.429 -0.5087  0.3677 -0.1006
32206SOL    HW1 8597   9.060   4.667   6.387 -0.8005 -0.4732  0.7799
32206SOL    HW2 8598   9.059   4.810   6.435 -0.0060  0.0740 -0.7762
32207SOL     OW 8599   5.106   5.144   8.238 -0.6160 -0.5314 -0.1281
32207SOL    HW1 8600   5.129   5.054   8.259  0.3041 -0.2763 -0.0124
32207SOL    HW2 8601   5.014   5.152   8.264 -1.5240 -2.1650 -2.4729
32208SOL     OW 8602   2.012  12.598   4.321 -0.1746 -0.1094  0.3687
32208SOL    HW1 8603   2.103  12.583   4.347  0.2148 -1.7776 -1.7111
32208SOL    HW2 8604   1.977  12.510   4.306 -2.3853  0.4540  1.7462
32209SOL     OW 8605  13.271   8.858   1.560 -0.0487 -0.5634  0.5696
32209SOL    HW1 8606  13.183   8.828   1.585 -0.0048 -0.9799  0.2342
32209SOL    HW2 8607  13.291   8.810   1.480  0.2906 -0.1050  0.3780
32210SOL     OW 8608  10.484   8.100  11.692  0.1641  0.5823  0.1249
32210SOL    HW1 8609  10.389   8.093  11.682 -0.0986  0.4865  2.2836
32210SOL    HW2 8610  10.496   8.170  11.756  1.5133  0.2772  0.2244
32211SOL     OW 8611  10.015   3.890   7.774 -0.6431 -0.0502  0.3390
32211SOL    HW1 8612  10.090   3.914   7.828 -0.0187 -1.6595  0.2427
32211SOL    HW2 8613   9.948   3.864   7.837 -1.1287  1.3223  0.4225
32212SOL     OW 8614   2.221  12.484   9.327  0.2129  0.2769 -0.6000
32212SOL    HW1 8615   2.233  12.469   9.233  1.7275 -0.9402 -0.2456
32212SOL    HW2 8616   2.227  12.579   9.337  2.4493  0.2827 -1.4737
32213SOL     OW 8617   8.761   6.726   0.735  0.4225  0.1449  0.1227
32213SOL    HW1 8618   8.718   6.804   0.771  0.3355 -0.3697  1.1476
32213SOL    HW2 8619   8.689   6.670   0.707  0.4204 -0.5460  1.4769
32214SOL     OW 8620  12.405   1.802   4.044 -0.1228 -0.2663 -0.6645
32214SOL    HW1 8621  12.445   1.728   3.998 -0.6809 -1.4019  0.6001
32214SOL    HW2 8622  12.388   1.769   4.132 -0.9814  1.1706 -0.2561
32215SOL     OW 8623   6.280   2.590  10.987  0.1303 -0.1056 -0.1364
32215SOL    HW1 8624   6.200   2.543  11.013 -0.5427  1.6185  1.1178
32215SOL    HW2 8625   6.266   2.611  10.895 -0.4722 -0.5667 -0.1617
32216SOL     OW 8626  10.958   7.188  11.826  0.5412  0.0765  0.3435
32216SOL    HW1 8627  11.040   7.182  11.874 -0.2038  0.8966  1.7905
32216SOL    HW2 8628  10.921   7.272  11.852 -1.4963 -0.9433  0.9881
32217SOL     OW 8629   1.675   8.605   3.122  1.4419  0.1237  0.1171
32217SOL    HW1 8630   1.706   8.644   3.040  1.0436  1.6547  0.6608
32217SOL    HW2 8631   1.754   8.570   3.163  1.7022 -0.3137 -0.7140
32218SOL     OW 8632   1.681   6.144   6.181  0.1578 -0.0349  0.3806
32218SOL    HW1 8633   1.642   6.232   6.179 -2.6873 -1.1886  0.5833
32218SOL    HW2 8634   1.624   6.092   6.124  1.0500 -2.0448  1.2552
32219SOL     OW 8635   4.534   7.153  13.824 -0.2480 -0.0560  0.4656
32219SOL    HW1 8636   4.574   7.074  13.789 -2.2658 -1.1123  0.4036
32219SOL    HW2 8637   4.608   7.209  13.849  1.2277 -2.0414  0.7464
32220SOL     OW 8638   4.122  13.958   1.825 -0.7387  0.1612  0.2047
32220SOL    HW1 8639   4.155  14.009   1.751 -0.4422  0.9708  0.8791
32220SOL    HW2 8640   4.031  13.987   1.835 -0.5049  0.7369  0.7259
32221SOL     OW 8641   0.149  12.014   3.036  0.7029  0.4758  0.1656
32221SOL    HW1 8642   0.102  12.059   3.106  0.0776 -0.8850  0.6709
32221SOL    HW2 8643   0.160  11.924   3.069  0.2014 -0.2670 -1.5531
32222SOL     OW 8644   7.289   8.487  13.915  0.0204 -0.5776  0.2943
32222SOL    HW1 8645   7.268   8.443  13.998 -0.2203 -1.0863 -0.0271
32222SOL    HW2 8646   7.219   8.459  13.855  0.6837 -0.9386 -0.3269
32223SOL     OW 8647   9.969   1.547   7.131 -0.3083 -0.0389  0.4978
32223SOL    HW1 8648   9.874   1.549   7.132 -0.3542  2.1550  3.5049
32223SOL    HW2 8649   9.995   1.557   7.222  2.8747 -2.6374  0.1111
32224SOL     OW 8650   0.688   1.428  11.375  0.0370  0.0330  0.2017
32224SOL    HW1 8651   0.642   1.357  11.331  0.5494 -0.0169 -0.2605
32224SOL    HW2 8652   0.772   1.435  11.329  0.7955 -0.3353  1.4799
32225SOL     OW 8653  13.648   4.602   7.071 -0.2480  0.2543  0.3111
32225SOL    HW1 8654  13.612   4.624   7.157 -0.2435 -0.3927  0.4830
32225SOL    HW2 8655  13.664   4.687   7.030 -1.2671  0.5625  0.5153
32226SOL     OW 8656   7.625   0.873  13.880  0.0500  0.5006 -0.0332
32226SOL    HW1 8657   7.561   0.880  13.951  0.4472 -0.5295  0.4437
32226SOL    HW2 8658   7.707   0.906  13.918 -0.2031  1.9569 -0.6859
32227SOL     OW 8659   2.725   0.991  10.638 -0.8846  0.4561  0.3739
32227SOL    HW1 8660   2.632   1.005  10.654 -0.7847 -0.6106  2.2340
32227SOL    HW2 8661   2.742   0.904  10.673  0.5563  0.0703 -1.1856
32228SOL     OW 8662   0.572   7.351   0.004 -0.1539  0.2059  0.1230
32228SOL    HW1 8663   0.639   7.379  -0.059 -1.3607  1.6797 -0.5647
32228SOL    HW2 8664   0.618   7.348   0.088  1.2461 -0.8010 -0.6303
32229SOL     OW 8665   1.521   0.523  11.340  0.5755  0.1771 -0.5369
32229SOL    HW1 8666   1.591   0.509  11.404  0.7861  2.6064 -0.1454
32229SOL    HW2 8667   1.444   0.483  11.380  1.0116  0.4307  0.6203
32230SOL     OW 8668   5.594   1.500   5.302  0.3884 -0.1935 -0.0337
32230SOL    HW1 8669   5.602   1.414   5.345  0.1501 -0.4040 -0.4104
32230SOL    HW2 8670   5.593   1.562   5.375 -0.9299 -0.6068  0.3347
32231SOL     OW 8671  12.286   5.038   2.434  0.5941 -0.3222 -0.3725
32231SOL    HW1 8672  12.262   4.974   2.366  1.3185 -0.3050 -0.6572
32231SOL    HW2 8673  12.348   5.097   2.390  1.3382 -0.5152  0.3975
32232SOL     OW 8674   3.434   4.307   5.722  0.5919  0.2190  0.3703
32232SOL    HW1 8675   3.381   4.325   5.799  0.5916  0.2293  0.3677
32232SOL    HW2 8676   3.371   4.293   5.652  0.4188 -3.2462  1.0539
32233SOL     OW 8677   6.017   4.626  11.734 -0.4232  0.3988  0.7167
32233SOL    HW1 8678   6.017   4.685  11.659 -0.4467  1.0672  1.2346
32233SOL    HW2 8679   5.998   4.540  11.697  0.2286  0.6085 -0.1300
32234SOL     OW 8680   4.193   6.756   8.976  0.0071 -0.5163  0.7302
32234SOL    HW1 8681   4.107   6.794   8.994  0.1951 -0.3998  1.4043
32234SOL    HW2 8682   4.206   6.770   8.882 -0.9510 -1.0525  0.5171
32235SOL     OW 8683   3.255  11.411   2.831  0.4644 -0.3555 -0.2489
32235SOL    HW1 8684   3.263  11.495   2.876  0.6240  0.1837 -1.2784
32235SOL    HW2 8685   3.211  11.431   2.749 -1.2202 -1.5635  0.2963
32236SOL     OW 8686   8.938   9.536  12.669  0.0072  0.0981 -0.5282
32236SOL    HW1 8687   8.880   9.604  12.702  1.1882  1.0804 -0.3891
32236SOL    HW2 8688   8.906   9.455  12.708  1.3177  1.1484  3.1702
32237SOL     OW 8689   2.155   8.117   8.106 -0.0866 -0.5032  0.2147
32237SOL    HW1 8690   2.149   8.213   8.112  0.5230 -0.5314  1.3354
32237SOL    HW2 8691   2.073   8.086   8.143 -1.2978 -0.3896 -2.1941
32238SOL     OW 8692  11.875   4.083   2.294 -0.2833  0.0857  0.4894
32238SOL    HW1 8693  11.793   4.040   2.318 -0.3312 -0.0479  0.0951
32238SOL    HW2 8694  11.883   4.070   2.199  0.9081 -1.1427  0.7328
32239SOL     OW 8695   2.665  12.933  13.673  0.2072  0.8930  0.5069
32239SOL    HW1 8696   2.628  13.007  13.623 -0.4212 -0.7667 -1.6680
32239SOL    HW2 8697   2.759  12.953  13.679  0.5415  0.7404 -2.3962
32240SOL     OW 8698  13.745   2.565   0.765  0.1560 -0.4205 -0.0208
32240SOL    HW1 8699  13.706   2.479   0.781  1.6076 -0.7969  1.7088
32240SOL    HW2 8700  13.823   2.547   0.713 -0.4775  0.0716 -1.1953
32241SOL     OW 8701   5.090   4.549   7.688 -0.5200  0.1199  0.6709
32241SOL    HW1 8702   5.054   4.611   7.625  1.3552  1.6482  1.0064
32241SOL    HW2 8703   5.081   4.592   7.773  0.5250 -0.1665  0.9477
32242SOL     OW 8704  12.072  12.016   5.422 -0.6543  1.2868 -0.0492
32242SOL    HW1 8705  12.094  12.096   5.374 -1.4426  0.8697 -1.1255
32242SOL    HW2 8706  12.059  11.950   5.355 -0.9351  0.4727  0.7844
32243SOL     OW 8707   6.086   4.827   9.622 -0.8654  0.4132 -0.3101
32243SOL    HW1 8708   6.127   4.844   9.707 -1.3542 -0.7076  0.1808
32243SOL    HW2 8709   6.144   4.764   9.580 -1.0735  0.3003 -0.4309
32244SOL     OW 8710  11.113  11.705   9.635  0.0394 -0.2773 -0.2035
32244SOL    HW1 8711  11.128  11.652   9.713  2.4286  1.7257  0.8479
32244SOL    HW2 8712  11.170  11.667   9.568  1.1859  0.4549  0.3277
32245SOL     OW 8713  10.530   8.701   1.684 -0.3349  0.0509 -0.0483
32245SOL    HW1 8714  10.501   8.653   1.607 -0.8966 -1.0144  0.7926
32245SOL    HW2 8715  10.484   8.785   1.679 -0.9180 -0.2897 -0.4970
32246SOL     OW 8716  11.798   8.473   3.742  0.1285 -0.1828  0.4807
32246SOL    HW1 8717  11.877   8.453   3.792 -0.3373 -2.6370  0.3504
32246SOL    HW2 8718  11.774   8.390   3.699 -1.7737  0.8094 -0.5439
32247SOL     OW 8719   9.609   3.051   2.944 -0.0764  0.1178 -0.1636
32247SOL    HW1 8720   9.523   3.044   2.902 -0.5785 -1.2845  1.0111
32247SOL    HW2 8721   9.592   3.030   3.036  1.5537 -0.3427  0.0587
32248SOL     OW 8722   2.302   2.618   2.954 -0.0666 -0.6471 -0.4278
32248SOL    HW1 8723   2.230   2.556   2.941  0.5792 -1.5819  0.3424
32248SOL    HW2 8724   2.258   2.699   2.980 -0.8264 -1.3927  0.7157
32249SOL     OW 8725  10.859   0.317   5.262 -0.0610  0.3379  0.0148
32249SOL    HW1 8726  10.785   0.369   5.295  0.5787  0.5800  1.1066
32249SOL    HW2 8727  10.935   0.349   5.311  1.2357  1.7121 -2.6726
32250SOL     OW 8728   1.318   7.635   8.866  0.1333 -0.5045 -0.4198
32250SOL    HW1 8729   1.366   7.592   8.795  0.7886 -0.9028  0.2466
32250SOL    HW2 8730   1.261   7.568   8.901 -0.4327 -0.2155 -0.7737
32251SOL     OW 8731   4.891   6.480   8.240  0.4113 -0.1256  0.2495
32251SOL    HW1 8732   4.902   6.575   8.245 -3.2288  0.4814 -0.4563
32251SOL    HW2 8733   4.799   6.465   8.264  0.0740 -3.1583 -2.2399
32252SOL     OW 8734   2.148   5.038  13.993  0.7197 -0.4205 -0.4316
32252SOL    HW1 8735   2.065   5.078  13.965  0.5425 -1.2648 -1.1466
32252SOL    HW2 8736   2.200   5.033  13.912  1.9345  1.1209  0.1822
32253SOL     OW 8737   0.690   9.079   4.498 -0.0228 -0.3867  0.3017
32253SOL    HW1 8738   0.735   9.160   4.474 -0.7890  0.0413  0.3058
32253SOL    HW2 8739   0.674   9.087   4.592 -1.0691 -0.0505  0.1055
32254SOL     OW 8740   8.367  11.205  12.786 -1.0206  0.0525  0.7261
32254SOL    HW1 8741   8.300  11.140  12.805  0.2826 -0.8115  2.8307
32254SOL    HW2 8742   8.449  11.164  12.816  0.4216  1.1898 -1.3873
32255SOL     OW 8743   6.818   6.367   2.505  0.0854 -0.5856  0.1314
32255SOL    HW1 8744   6.824   6.349   2.412 -0.9401  0.7438 -0.2179
32255SOL    HW2 8745   6.730   6.341   2.530 -0.9350  2.2415 -0.0849
32256SOL     OW 8746  10.974  14.034   3.186  0.4536 -0.0624 -0.3082
32256SOL    HW1 8747  10.968  13.966   3.119 -2.6760  1.0777 -1.3335
32256SOL    HW2 8748  10.996  14.114   3.137  1.8669  0.1261  0.5798
32257SOL     OW 8749   8.584  10.467  12.110 -0.2456  0.6000 -0.3362
32257SOL    HW1 8750   8.636  10.542  12.138 -0.1285  0.4297 -0.1032
32257SOL    HW2 8751   8.555  10.490  12.021  1.7082 -0.0803 -1.1880
32258SOL     OW 8752   8.464   7.848   8.764 -0.2327 -0.0372  0.2412
32258SOL    HW1 8753   8.437   7.865   8.855 -0.0259 -1.4074  0.5963
32258SOL    HW2 8754   8.426   7.762   8.745  0.9230 -0.4011 -0.4737
32259SOL     OW 8755  13.867  11.644   5.174 -0.5289 -0.2306  0.2094
32259SOL    HW1 8756  13.865  11.707   5.103  0.1493  0.0980  0.4775
32259SOL    HW2 8757  13.841  11.694   5.252  0.2241 -0.2178  0.4615
32260SOL     OW 8758  12.627  12.786   1.307 -0.5499 -0.0800  0.1663
32260SOL    HW1 8759  12.569  12.714   1.285 -1.4874  0.8070 -0.3434
32260SOL    HW2 8760  12.593  12.821   1.389  0.7653 -1.0833  1.1954
32261SOL     OW 8761   0.889   5.126   8.752 -0.0173  0.5607 -0.6049
32261SOL    HW1 8762   0.844   5.200   8.712 -1.6357 -1.0432 -1.9371
32261SOL    HW2 8763   0.877   5.138   8.846  0.1587  2.2029 -0.7716
32262SOL     OW 8764  10.608  10.364   4.630  0.3597  0.0735 -0.3818
32262SOL    HW1 8765  10.651  10.280   4.645  1.2953  0.4828 -0.7012
32262SOL    HW2 8766  10.552  10.350   4.554 -0.6186 -0.6452  0.4347
32263SOL     OW 8767   3.602   5.196  13.637  0.3633 -0.4286 -0.4226
32263SOL    HW1 8768   3.547   5.154  13.570 -1.2296  0.2656  0.4022
32263SOL    HW2 8769   3.622   5.282  13.601  0.1798 -0.3552 -0.3487
32264SOL     OW 8770   4.365   8.471  12.887 -0.8154  0.0045 -0.2406
32264SOL    HW1 8771   4.363   8.435  12.976 -1.0350  0.7411  0.0660
32264SOL    HW2 8772   4.277   8.506  12.874 -0.4810  0.8224 -0.3497
32265SOL     OW 8773   2.346  13.919   8.643 -0.3587  0.1056 -0.3238
32265SOL    HW1 8774   2.416  13.985   8.646  0.7318 -1.0219  1.4892
32265SOL    HW2 8775   2.356  13.878   8.558  3.4696 -2.1874  0.9681
32266SOL     OW 8776   3.540  11.045   9.594 -0.2333  0.5565  0.0781
32266SOL    HW1 8777   3.614  11.089   9.637  0.0595 -1.5361  1.9065
32266SOL    HW2 8778   3.475  11.114   9.582  0.1823  1.5599  2.8333
32267SOL     OW 8779  12.947  13.508  10.715  0.0002 -0.2565 -0.0823
32267SOL    HW1 8780  12.901  13.591  10.732 -0.7793 -0.9688  1.5133
32267SOL    HW2 8781  12.880  13.441  10.726  1.3221 -1.3151  2.0564
32268SOL     OW 8782   6.588  11.298  10.143 -0.2480  0.9307  0.5522
32268SOL    HW1 8783   6.531  11.366  10.180 -1.5592  1.5161 -2.2490
32268SOL    HW2 8784   6.540  11.265  10.067  1.0821 -2.0417  0.8416
32269SOL     OW 8785   8.631   7.965  13.302  0.6467  0.4734 -0.0224
32269SOL    HW1 8786   8.600   7.879  13.276  0.7015  0.3578  0.2866
32269SOL    HW2 8787   8.677   7.999  13.225  0.8649  0.1103 -0.0548
32270SOL     OW 8788  12.012   8.939  11.827 -0.1319 -0.3566 -0.3546
32270SOL    HW1 8789  12.011   8.924  11.733  1.7199 -1.4216 -0.2567
32270SOL    HW2 8790  11.928   8.904  11.857 -0.9509  0.4328 -1.6348
32271SOL     OW 8791   4.062  12.486  12.908 -0.1359 -0.2533 -0.1670
32271SOL    HW1 8792   4.053  12.400  12.869 -1.2726  0.0784 -0.6541
32271SOL    HW2 8793   4.154  12.490  12.936 -0.1042 -1.6512 -0.0252
32272SOL     OW 8794   6.819   1.798  11.356 -0.0770 -0.2336 -0.2399
32272SOL    HW1 8795   6.807   1.889  11.382 -0.5487 -0.4202  0.2027
32272SOL    HW2 8796   6.741   1.776  11.306  1.0764  0.2957 -2.3812
32273SOL     OW 8797   3.051   7.977   8.019  0.0464 -0.0791 -0.0363
32273SOL    HW1 8798   3.042   7.895   7.970  0.3454 -1.4015  1.9734
32273SOL    HW2 8799   3.137   7.969   8.061  0.2551  1.4801 -0.1261
32274SOL     OW 8800   5.882   2.291  12.974  0.2743  0.0783 -0.3926
32274SOL    HW1 8801   5.917   2.356  13.034 -1.2020  0.1766  0.4166
32274SOL    HW2 8802   5.814   2.246  13.025  0.3231 -1.1628 -1.3721
32275SOL     OW 8803   3.381  13.361  12.279 -0.0190  0.1050 -0.1867
32275SOL    HW1 8804   3.424  13.309  12.347 -0.0456 -0.0859 -0.3162
32275SOL    HW2 8805   3.441  13.434  12.264 -0.0787  0.2267  0.1437
32276SOL     OW 8806   6.222   4.201   0.742 -0.2264  0.1661  0.0085
32276SOL    HW1 8807   6.167   4.256   0.685  1.0503  0.4878 -0.9453
32276SOL    HW2 8808   6.201   4.111   0.717 -0.0596  0.2953 -0.6044
32277SOL     OW 8809  12.878   8.792   0.766 -0.2918  0.2628 -0.1051
32277SOL    HW1 8810  12.958   8.840   0.789 -0.5350  0.4162  0.4474
32277SOL    HW2 8811  12.837   8.845   0.698 -0.2541  0.5326  0.0788
32278SOL     OW 8812  12.010  13.890  13.304  0.2087  0.0967  0.2709
32278SOL    HW1 8813  11.941  13.827  13.281  1.1875 -0.8649 -0.0956
32278SOL    HW2 8814  12.092  13.841  13.294  0.9092  0.8826  1.8060
32279SOL     OW 8815   5.762   2.460   6.023 -0.2147  0.0692  0.1853
32279SOL    HW1 8816   5.765   2.366   6.043  2.9364 -0.0382 -0.4013
32279SOL    HW2 8817   5.700   2.467   5.950  0.3215 -1.7068 -0.4834
32280SOL     OW 8818   4.739   5.364   5.196  0.3530  0.2837 -0.9187
32280SOL    HW1 8819   4.753   5.274   5.168  0.4260  0.1942 -0.5924
32280SOL    HW2 8820   4.661   5.361   5.251 -0.4608  0.6382 -2.0071
32281SOL     OW 8821  13.413   6.243   1.656  0.1452  0.2781 -0.2502
32281SOL    HW1 8822  13.504   6.254   1.630  0.1038  0.0713 -0.4893
32281SOL    HW2 8823  13.407   6.152   1.686  0.0659  0.3542 -0.0346
32282SOL     OW 8824   3.930  12.037   3.392 -0.3411  0.5860  0.2273
32282SOL    HW1 8825   3.919  12.105   3.325  1.7194  0.9702  0.1955
32282SOL    HW2 8826   3.910  11.955   3.346 -2.6788  1.1001  0.2170
32283SOL     OW 8827   3.332   4.985   5.333  0.0444 -0.6383  0.2955
32283SOL    HW1 8828   3.274   4.913   5.359 -1.8606  1.0710  1.0421
32283SOL    HW2 8829   3.335   5.042   5.410  3.8968 -1.2637  0.8200
32284SOL     OW 8830   1.550   1.945   2.060  0.0710 -0.0578 -0.5689
32284SOL    HW1 8831   1.538   2.010   2.129 -0.9976  0.9768 -1.6705
32284SOL    HW2 8832   1.500   1.869   2.090 -2.1099  1.0838 -1.0321
32285SOL     OW 8833  13.591   6.944  10.052  0.6479  0.0755  0.4799
32285SOL    HW1 8834  13.541   6.960   9.973  0.7357  2.6019  0.8540
32285SOL    HW2 8835  13.544   6.873  10.097  0.4115 -1.1614 -1.6088
32286SOL     OW 8836   7.583   2.689  10.445  0.1332 -0.0076 -0.2025
32286SOL    HW1 8837   7.606   2.597  10.431 -0.1734  0.2627 -2.8992
32286SOL    HW2 8838   7.666   2.731  10.468  1.3414 -0.1473 -3.7694
32287SOL     OW 8839  11.708   1.202   0.072 -0.0740  0.0954  0.2855
32287SOL    HW1 8840  11.660   1.151   0.006 -0.5109 -0.7999  1.2615
32287SOL    HW2 8841  11.781   1.146   0.097 -0.5553 -0.0789  1.3673
32288SOL     OW 8842   1.595   6.746  11.585 -0.2210  0.0345 -0.2347
32288SOL    HW1 8843   1.680   6.791  11.588  0.0501 -0.4347 -0.6758
32288SOL    HW2 8844   1.605   6.681  11.516 -1.0321  0.1433 -0.4634
32289SOL     OW 8845   8.360  10.479   3.316 -0.2119  0.3601 -0.3083
32289SOL    HW1 8846   8.337  10.396   3.357 -1.2059  1.4394  1.4698
32289SOL    HW2 8847   8.428  10.515   3.373 -1.0044  1.5100 -0.0558
32290SOL     OW 8848  13.821  13.625   2.430  0.3333 -0.0508  0.0303
32290SOL    HW1 8849  13.777  13.704   2.461  1.5323  0.4880  0.4018
32290SOL    HW2 8850  13.908  13.629   2.469  0.6056 -1.2729 -0.4067
32291SOL     OW 8851   1.889  11.087  12.587 -0.5061  0.2690 -0.2324
32291SOL    HW1 8852   1.925  11.126  12.507 -1.4690  1.0180 -0.3177
32291SOL    HW2 8853   1.830  11.154  12.622 -1.4214 -0.7269  0.1704
32292SOL     OW 8854   1.778   6.665   6.726  0.4751 -0.4732  0.0692
32292SOL    HW1 8855   1.716   6.725   6.685 -0.2587 -2.1178 -1.3735
32292SOL    HW2 8856   1.858   6.716   6.734  0.8941 -0.0980 -4.0628
32293SOL     OW 8857  11.912   9.711   8.555  0.6294  0.1123 -0.2653
32293SOL    HW1 8858  11.877   9.761   8.481 -0.1839  0.8928  0.6336
32293SOL    HW2 8859  12.004   9.696   8.531  0.3116  0.1101 -1.5593
32294SOL     OW 8860   4.628   1.054   2.613  0.2328  0.4960 -0.0632
32294SOL    HW1 8861   4.554   0.993   2.621 -1.3634  2.2685 -0.4162
32294SOL    HW2 8862   4.697   1.014   2.665 -1.0122 -1.1816  0.4261
32295SOL     OW 8863   9.330  10.859  12.296  0.3232  0.4838 -0.1104
32295SOL    HW1 8864   9.406  10.908  12.326 -0.4671  1.1715  0.8071
32295SOL    HW2 8865   9.335  10.865  12.200  1.5829  0.2413 -0.0865
32296SOL     OW 8866   1.609   1.009   7.425 -0.1839  0.3120  0.2929
32296SOL    HW1 8867   1.556   1.050   7.357 -1.3102  0.2204  1.0869
32296SOL    HW2 8868   1.693   1.056   7.423 -0.1714  0.2769 -1.1672
32297SOL     OW 8869   7.394   8.292   5.629  0.1010 -0.3088 -0.3152
32297SOL    HW1 8870   7.400   8.234   5.553 -0.9085 -0.0535 -0.6035
32297SOL    HW2 8871   7.349   8.369   5.596 -0.7442 -0.3756  0.6453
32298SOL     OW 8872  10.823   7.374  13.397 -0.1562  0.1988  0.2765
32298SOL    HW1 8873  10.766   7.311  13.353 -1.7179  2.1324 -0.6678
32298SOL    HW2 8874  10.900   7.324  13.422 -1.0304 -1.9116 -0.9928
32299SOL     OW 8875   8.255   0.894  11.196 -0.1640  0.3838 -0.3130
32299SOL    HW1 8876   8.256   0.984  11.164 -0.9496  0.8531  0.9052
32299SOL    HW2 8877   8.215   0.844  11.125  0.5292  0.9312 -1.1094
32300SOL     OW 8878   4.688  12.371   9.128 -0.4847 -0.2292 -0.9083
32300SOL    HW1 8879   4.633  12.294   9.114 -1.0603  0.2470 -1.3166
32300SOL    HW2 8880   4.778  12.337   9.124 -0.7336 -1.1959  0.8617
32301SOL     OW 8881   6.564  13.376   7.539  0.6193 -1.0518 -0.0449
32301SOL    HW1 8882   6.485  13.362   7.590  1.1425 -3.8529  0.1345
32301SOL    HW2 8883   6.533  13.416   7.458 -0.4790  1.3412  1.4227
32302SOL     OW 8884   5.642   7.050  12.203 -0.0596 -0.0309 -0.3121
32302SOL    HW1 8885   5.718   7.018  12.251  0.4575  0.0958 -1.0213
32302SOL    HW2 8886   5.677   7.077  12.118 -0.8076  0.5661 -0.4449
32303SOL     OW 8887   1.016  11.463   7.082  0.2574  0.4538 -0.1029
32303SOL    HW1 8888   1.008  11.526   7.154  1.1732  0.3151  0.1301
32303SOL    HW2 8889   1.086  11.497   7.027  1.9842 -1.2017  0.9456
32304SOL     OW 8890  10.127   1.052   4.996 -0.2597 -0.4814 -0.1764
32304SOL    HW1 8891  10.215   1.055   4.959  0.1666  0.2510  0.8560
32304SOL    HW2 8892  10.105   0.959   4.999  0.3867 -0.6518 -0.6593
32305SOL     OW 8893   3.134   6.388   2.226  0.0410 -0.3252  0.0336
32305SOL    HW1 8894   3.060   6.433   2.267 -0.9963 -1.4742 -0.5109
32305SOL    HW2 8895   3.180   6.456   2.178 -1.5512  0.1845 -0.8542
32306SOL     OW 8896  10.913   4.571   1.860 -0.5878 -0.1230  0.6405
32306SOL    HW1 8897  10.826   4.580   1.899 -0.7050 -1.6337  0.7670
32306SOL    HW2 8898  10.898   4.585   1.766 -1.6139 -3.5918  0.1649
32307SOL     OW 8899  13.774   8.118   6.717 -0.3916  0.0060 -0.0210
32307SOL    HW1 8900  13.777   8.025   6.697  1.1621 -0.1669  0.8376
32307SOL    HW2 8901  13.781   8.123   6.812 -0.3079  1.0022 -0.0663
32308SOL     OW 8902   2.897   3.033   4.773  0.3944 -0.2358  0.4211
32308SOL    HW1 8903   2.859   3.008   4.857  0.6817  1.6973  1.1697
32308SOL    HW2 8904   2.826   3.021   4.710 -1.2566  2.3183  1.6256
32309SOL     OW 8905   1.834   7.629  13.075 -0.6174 -0.2481  0.0378
32309SOL    HW1 8906   1.851   7.579  13.155 -0.0392  2.0867  1.4899
32309SOL    HW2 8907   1.764   7.690  13.100 -1.8523 -0.7842 -1.8815
32310SOL     OW 8908   0.204  11.087  12.330  0.2719  0.4769 -0.6424
32310SOL    HW1 8909   0.160  11.169  12.308 -2.4219 -0.8056 -0.5876
32310SOL    HW2 8910   0.152  11.051  12.402  0.0073 -2.2386 -2.0695
32311SOL     OW 8911  10.967   3.392   9.181  0.2399 -0.3554  0.0226
32311SOL    HW1 8912  10.900   3.328   9.156 -1.0975  0.8057  0.5249
32311SOL    HW2 8913  10.919   3.473   9.195  1.9638  0.9553 -1.1890
32312SOL     OW 8914  14.002   2.320   1.196  0.3555  0.3024 -0.0908
32312SOL    HW1 8915  14.091   2.288   1.208  0.0339 -0.0401  1.6491
32312SOL    HW2 8916  13.996   2.342   1.103  1.9011 -0.7049 -0.4511
32313SOL     OW 8917   7.549   4.519  11.864  0.1502  0.3181 -0.1089
32313SOL    HW1 8918   7.590   4.594  11.908 -1.4368  1.1831 -0.0178
32313SOL    HW2 8919   7.488   4.558  11.802 -0.0846 -0.9146 -0.6863
32314SOL     OW 8920   9.860   0.673   7.983  0.8901  0.1710 -0.1303
32314SOL    HW1 8921   9.844   0.721   7.901  1.3942 -0.5886 -0.6819
32314SOL    HW2 8922   9.861   0.581   7.957  0.4170 -0.1190  0.8418
32315SOL     OW 8923   4.929   0.192   5.920 -0.5015  0.1949 -0.3647
32315SOL    HW1 8924   4.938   0.097   5.928 -0.2759  0.1195 -1.3365
32315SOL    HW2 8925   4.842   0.204   5.881 -1.9182  0.5785  2.6034
32316SOL     OW 8926  12.701   1.475  11.872  0.0017 -0.0297 -0.2699
32316SOL    HW1 8927  12.616   1.434  11.891 -0.9852  2.2001  0.3964
32316SOL    HW2 8928  12.765   1.405  11.888 -1.5605 -1.2385  1.0387
32317SOL     OW 8929   4.457   5.570   5.485 -0.0069  0.3594 -0.0997
32317SOL    HW1 8930   4.399   5.548   5.558  0.3246  1.3293  0.4793
32317SOL    HW2 8931   4.495   5.487   5.458 -0.2032 -0.0234  0.7726
32318SOL     OW 8932  10.208   5.149  12.258 -0.9068 -0.0524 -0.3788
32318SOL    HW1 8933  10.298   5.183  12.255 -0.8198 -0.3295 -2.9087
32318SOL    HW2 8934  10.153   5.226  12.245 -0.9304 -0.1466 -0.8597
32319SOL     OW 8935   7.194   6.613   8.277 -0.0784 -0.5444 -0.1030
32319SOL    HW1 8936   7.135   6.624   8.202 -0.9744 -3.2612  0.1027
32319SOL    HW2 8937   7.280   6.600   8.237  0.0853  1.4188 -0.4813
32320SOL     OW 8938  12.642   2.353   5.490 -0.4464 -0.2168 -0.4732
32320SOL    HW1 8939  12.670   2.419   5.427  1.2903 -1.3924 -1.0056
32320SOL    HW2 8940  12.575   2.303   5.444 -0.8038  0.3132 -0.5457
32321SOL     OW 8941  11.483   9.386  12.512 -0.1902 -0.4554  0.7958
32321SOL    HW1 8942  11.435   9.306  12.490 -0.1430 -0.7460  1.6849
32321SOL    HW2 8943  11.472   9.394  12.607  1.2605 -0.3757  0.9778
32322SOL     OW 8944  13.877   6.524   9.255  0.4983  0.2425  0.2492
32322SOL    HW1 8945  13.821   6.449   9.236  1.7117 -0.3722 -1.1421
32322SOL    HW2 8946  13.818   6.600   9.255 -0.2988 -0.3290 -1.6094
32323SOL     OW 8947   7.606   9.716   4.594  0.2577  0.7030 -0.2629
32323SOL    HW1 8948   7.565   9.802   4.583 -0.7084  0.3056  0.0882
32323SOL    HW2 8949   7.533   9.654   4.587  0.9476 -0.0996 -0.5844
32324SOL     OW 8950   3.354  11.775   2.350 -0.4422  0.0982 -0.2608
32324SOL    HW1 8951   3.263  11.775   2.378 -0.3902 -0.0731 -0.0885
32324SOL    HW2 8952   3.353  11.733   2.264 -0.7175  1.3774 -0.9061
32325SOL     OW 8953  10.822   0.375   8.207 -0.4348 -0.1827  0.6072
32325SOL    HW1 8954  10.773   0.424   8.141 -1.4321 -1.8774  0.0300
32325SOL    HW2 8955  10.913   0.379   8.177 -0.6909  0.2022 -0.1492
32326SOL     OW 8956   6.125  10.841  11.636  0.5406  0.1780 -0.0092
32326SOL    HW1 8957   6.071  10.794  11.700  3.3732  0.6784  3.0423
32326SOL    HW2 8958   6.118  10.933  11.663  0.4975  0.6256 -1.5058
32327SOL     OW 8959   4.627   3.200   7.705  0.0881  0.3044 -0.2076
32327SOL    HW1 8960   4.716   3.164   7.711 -0.8984 -2.2349  1.0065
32327SOL    HW2 8961   4.571   3.122   7.701 -2.1308  1.8156  0.0183
32328SOL     OW 8962   2.557  13.461  10.462  0.1756  0.0692 -0.4287
32328SOL    HW1 8963   2.537  13.369  10.445  1.2066 -0.1525 -0.5100
32328SOL    HW2 8964   2.481  13.509  10.429  0.0129 -0.6918 -1.1811
32329SOL     OW 8965  13.431   9.019   5.000  0.1013 -0.1384 -0.5719
32329SOL    HW1 8966  13.371   8.951   4.971 -0.6675 -0.0555  0.7436
32329SOL    HW2 8967  13.471   9.052   4.920  0.2838 -1.9330 -1.2588
32330SOL     OW 8968   2.674   3.073   1.645  0.1347  0.5392  0.2567
32330SOL    HW1 8969   2.608   3.025   1.695  0.2795 -0.0088 -0.0619
32330SOL    HW2 8970   2.690   3.153   1.695 -0.7979  0.6963  0.3078
32331SOL     OW 8971   9.458  13.361   2.922 -0.3944  0.4114 -0.6353
32331SOL    HW1 8972   9.433  13.269   2.929 -1.7519  0.5388 -3.0411
32331SOL    HW2 8973   9.422  13.402   3.002  0.7322 -1.1740  0.7536
32332SOL     OW 8974   2.334   2.134  11.886  0.2514 -0.0688 -0.2382
32332SOL    HW1 8975   2.366   2.081  11.813  0.9431  0.7593 -0.5551
32332SOL    HW2 8976   2.243   2.153  11.864  0.9316  1.6374 -1.7882
32333SOL     OW 8977  10.769  10.253  10.183  0.0319  0.0167  0.2879
32333SOL    HW1 8978  10.678  10.246  10.156 -0.0443 -2.1547  0.9057
32333SOL    HW2 8979  10.808  10.168  10.160  1.3916  0.1916  1.7445
32334SOL     OW 8980  11.230  11.679   3.610 -0.5879 -0.0469 -0.3607
32334SOL    HW1 8981  11.282  11.612   3.655 -0.7465 -0.8479 -1.3146
32334SOL    HW2 8982  11.252  11.668   3.518 -0.4376  1.4059 -0.5191
32335SOL     OW 8983   6.166   5.332   3.175  0.0356  0.7734  0.1687
32335SOL    HW1 8984   6.105   5.276   3.127 -0.2738  1.2465  0.0025
32335SOL    HW2 8985   6.185   5.284   3.255 -1.9266  1.3634  1.0649
32336SOL     OW 8986   1.313   7.475   0.593  0.9342  0.0750  0.0626
32336SOL    HW1 8987   1.315   7.422   0.673  0.3028 -0.8453 -0.5191
32336SOL    HW2 8988   1.405   7.481   0.567  1.0790 -0.1751  0.4969
32337SOL     OW 8989   4.142   0.954   4.693 -0.2430 -0.3032  0.9687
32337SOL    HW1 8990   4.233   0.982   4.705 -0.4228  1.3724 -0.9498
32337SOL    HW2 8991   4.149   0.880   4.632 -0.1765  0.5577 -0.1133
32338SOL     OW 8992  11.853   9.376   4.409  0.1545 -0.3614  0.5452
32338SOL    HW1 8993  11.786   9.310   4.423  2.0689 -2.7060 -0.6287
32338SOL    HW2 8994  11.935   9.333   4.434  1.3804  2.0149  0.9303
32339SOL     OW 8995   9.461  10.007   7.668  0.0887  0.4450  0.3067
32339SOL    HW1 8996   9.511  10.068   7.614 -0.5487  0.5734 -0.1615
32339SOL    HW2 8997   9.524   9.972   7.730  1.2815 -1.0660 -1.6598
32340SOL     OW 8998   7.286   7.124   4.618 -0.6197 -0.0076 -0.0264
32340SOL    HW1 8999   7.373   7.157   4.593 -0.7956  1.8806  1.5637
32340SOL    HW2 9000   7.304   7.048   4.673  0.4367  2.8266  3.9940
32341SOL     OW 9001   4.253   5.621   5.703  0.1314 -0.5424 -0.1846
32341SOL    HW1 9002   4.185   5.660   5.648  2.0529 -0.7158 -2.8214
32341SOL    HW2 9003   4.204   5.572   5.770 -2.3499 -0.7284 -1.9977
32342SOL     OW 9004   6.556   3.931  10.216  0.6068  0.1460  0.0029
32342SOL    HW1 9005   6.555   4.016  10.260 -1.3268 -0.2887  0.9490
32342SOL    HW2 9006   6.553   3.952  10.123 -1.1603  1.1907  0.2383
32343SOL     OW 9007  11.857   8.726   0.418 -0.0363 -0.5549 -0.5845
32343SOL    HW1 9008  11.890   8.774   0.342  0.4102  1.4358  0.7872
32343SOL    HW2 9009  11.935   8.699   0.465 -0.2993  0.1543  0.2870
32344SOL     OW 9010  12.610   4.825   4.288 -0.1955 -0.4261 -0.2720
32344SOL    HW1 9011  12.559   4.773   4.350  1.0050 -0.7266  0.4893
32344SOL    HW2 9012  12.617   4.768   4.210  0.2658 -1.0179  0.1895
32345SOL     OW 9013   6.757  13.843   1.635  0.4863 -0.2121 -0.0554
32345SOL    HW1 9014   6.774  13.750   1.625  1.2027 -0.1904  0.8038
32345SOL    HW2 9015   6.818  13.886   1.576  0.0046 -0.2884 -0.6148
32346SOL     OW 9016   1.625   0.278  11.665 -0.2208  0.1038  0.5147
32346SOL    HW1 9017   1.658   0.278  11.575  0.0306 -1.6808  0.5704
32346SOL    HW2 9018   1.651   0.363  11.700 -0.7357  1.0293 -1.2205
32347SOL     OW 9019   6.200   5.579   9.808 -0.0169 -0.3453 -0.0290
32347SOL    HW1 9020   6.173   5.575   9.716 -0.7304  0.5520  0.1241
32347SOL    HW2 9021   6.166   5.497   9.846  1.1087 -1.1757 -0.7533
32348SOL     OW 9022   1.906  11.122   2.825 -0.6426 -0.4791 -0.0823
32348SOL    HW1 9023   1.914  11.103   2.918 -0.7779 -0.8184 -0.1399
32348SOL    HW2 9024   1.994  11.150   2.799 -0.7212  0.0936  0.2509
32349SOL     OW 9025   0.633   8.066   7.069 -0.2173 -0.4619  0.0352
32349SOL    HW1 9026   0.594   8.082   7.155  0.2741 -0.8710  0.3376
32349SOL    HW2 9027   0.727   8.081   7.082 -0.2029  0.0027 -0.5605
32350SOL     OW 9028  10.075   7.544   1.251 -0.4913  0.2211  0.0861
32350SOL    HW1 9029  10.048   7.505   1.168 -2.2650  1.2503  0.1408
32350SOL    HW2 9030   9.996   7.542   1.305 -0.0127  1.7602  0.8891
32351SOL     OW 9031  12.916  13.471  10.382 -0.0286 -0.2971 -0.0054
32351SOL    HW1 9032  12.880  13.384  10.403 -0.1432 -0.0844  0.7093
32351SOL    HW2 9033  12.935  13.510  10.467 -2.0623  1.2655 -0.1878
32352SOL     OW 9034   6.336  12.085  12.905  0.1910  0.3270  0.2527
32352SOL    HW1 9035   6.323  12.179  12.919  1.5822  0.3718  1.4382
32352SOL    HW2 9036   6.392  12.080  12.827 -1.0202  0.3850 -0.6647
32353SOL     OW 9037   9.793  10.771   9.354 -0.6289  0.2009  0.6753
32353SOL    HW1 9038   9.873  10.817   9.380 -2.2477  3.2611  0.6167
32353SOL    HW2 9039   9.740  10.838   9.311 -3.4578 -1.6071  1.1482
32354SOL     OW 9040  10.464  13.005   5.963 -0.7051 -0.3661 -0.6294
32354SOL    HW1 9041  10.500  12.956   6.037  0.8162  1.2576 -0.2455
32354SOL    HW2 9042  10.536  13.010   5.900 -1.1162  0.6116 -1.0377
32355SOL     OW 9043  12.406  10.281  10.529  0.3793  0.0960 -0.1792
32355SOL    HW1 9044  12.476  10.322  10.580  0.7090 -0.2029 -0.3914
32355SOL    HW2 9045  12.445  10.200  10.495 -0.0811 -0.0947 -0.2588
32356SOL     OW 9046   1.827  12.232   6.954  0.0726 -0.5717  0.0293
32356SOL    HW1 9047   1.851  12.323   6.936  1.5527 -0.8222  0.6323
32356SOL    HW2 9048   1.908  12.191   6.984 -0.5472 -2.1262 -0.3251
32357SOL     OW 9049   2.639   7.639   1.083  0.0360 -0.4449  0.1460
32357SOL    HW1 9050   2.553   7.615   1.117  0.7550 -3.0147  0.3593
32357SOL    HW2 9051   2.685   7.678   1.158 -0.3949 -0.5207  0.4502
32358SOL     OW 9052   3.017   6.566   0.575  0.2039 -0.4700  0.0295
32358SOL    HW1 9053   3.110   6.550   0.560  0.3685  0.5749 -0.1764
32358SOL    HW2 9054   2.987   6.608   0.494  0.1735  1.5721  1.0357
32359SOL     OW 9055   3.130  11.788   6.863 -0.0166  0.7343 -0.1716
32359SOL    HW1 9056   3.054  11.828   6.822 -0.5963  0.3565  0.5100
32359SOL    HW2 9057   3.197  11.787   6.795 -0.7299  0.7540 -0.8826
32360SOL     OW 9058   1.910   9.152   9.964  0.5374 -0.0294 -0.4163
32360SOL    HW1 9059   1.836   9.205   9.993  1.4001  0.6323  0.6281
32360SOL    HW2 9060   1.897   9.143   9.869 -1.1996 -0.4514 -0.1796
32361SOL     OW 9061   0.510  12.066   3.231  0.3460  0.4668  1.1431
32361SOL    HW1 9062   0.452  11.991   3.243  0.0818  0.1843 -1.3443
32361SOL    HW2 9063   0.578  12.055   3.298 -0.8127 -0.8242  2.1707
32362SOL     OW 9064  10.923   2.826   9.060  0.1512  0.3729 -0.2867
32362SOL    HW1 9065  10.972   2.840   8.979  1.0165  0.2752  0.2046
32362SOL    HW2 9066  10.832   2.820   9.032  0.1593  2.5533 -1.0228
32363SOL     OW 9067   0.901  11.701   4.704  0.4143 -0.1925  0.4126
32363SOL    HW1 9068   0.908  11.794   4.724 -0.0848  0.0976 -0.6353
32363SOL    HW2 9069   0.905  11.698   4.608  0.4135 -1.2496  0.4390
32364SOL     OW 9070  11.349  10.141  10.565  0.3410 -0.1531 -0.1693
32364SOL    HW1 9071  11.316  10.055  10.542  2.2620 -1.4117  1.4393
32364SOL    HW2 9072  11.310  10.159  10.651  1.0545 -0.0678  0.1410
32365SOL     OW 9073   8.342   9.601   6.800 -0.9080  0.6427  1.0296
32365SOL    HW1 9074   8.432   9.571   6.801 -1.5294 -1.5559 -0.9257
32365SOL    HW2 9075   8.345   9.683   6.751 -0.2467 -0.8091 -1.5328
32366SOL     OW 9076   6.316   2.745   8.082  0.3091 -0.2345  0.2346
32366SOL    HW1 9077   6.372   2.819   8.057  1.9205 -1.9824 -1.8320
32366SOL    HW2 9078   6.245   2.747   8.018 -0.5469  0.4242  1.1858
32367SOL     OW 9079  13.735   7.193  11.778 -0.3120  0.0790  0.9977
32367SOL    HW1 9080  13.782   7.189  11.694  1.1605  2.2132  1.6207
32367SOL    HW2 9081  13.789   7.142  11.838 -0.5199 -0.1264  1.0110
32368SOL     OW 9082   4.976  13.702  10.877 -0.1233 -0.1450  0.0186
32368SOL    HW1 9083   4.958  13.791  10.847  1.3794  0.1365 -0.0896
32368SOL    HW2 9084   5.021  13.713  10.961  0.0531 -0.8111  0.0205
32369SOL     OW 9085   1.321   5.459  13.042  0.0778  0.3467 -0.0846
32369SOL    HW1 9086   1.325   5.482  12.949  3.0911  1.0614  0.1316
32369SOL    HW2 9087   1.258   5.521  13.079  0.6799  1.7070 -1.2437
32370SOL     OW 9088  12.429   4.057   4.735 -0.0328  0.3071 -0.4399
32370SOL    HW1 9089  12.366   4.055   4.663 -0.5545  0.4160  0.0005
32370SOL    HW2 9090  12.375   4.044   4.814 -0.1156  4.0563  0.3284
32371SOL     OW 9091   2.051   3.533  12.813 -0.1820 -0.0337 -0.1920
32371SOL    HW1 9092   2.009   3.507  12.731 -0.2061  0.1540 -0.2413
32371SOL    HW2 9093   1.990   3.596  12.852  0.2089  0.5146 -0.4386
32372SOL     OW 9094   1.652   4.123   3.493  0.5233  0.3549  0.1615
32372SOL    HW1 9095   1.670   4.212   3.462  0.4664  0.0719 -0.6931
32372SOL    HW2 9096   1.729   4.101   3.545  1.7045 -0.0077 -1.6535
32373SOL     OW 9097  13.097   8.669  11.076 -0.1713 -0.0563 -1.0079
32373SOL    HW1 9098  13.087   8.581  11.112  0.4642  0.7326  1.2370
32373SOL    HW2 9099  13.084   8.658  10.982  0.8029 -2.6938 -0.9051
32374SOL     OW 9100   0.174   7.306   5.635  0.7611 -0.3954  0.2629
32374SOL    HW1 9101   0.096   7.257   5.610  0.3919 -0.4555  1.4692
32374SOL    HW2 9102   0.243   7.271   5.579  0.3084 -1.6495  0.4565
32375SOL     OW 9103   1.498  10.842  10.029 -0.0072  0.3708  0.3729
32375SOL    HW1 9104   1.449  10.912  10.073  0.2270 -0.1234  1.4440
32375SOL    HW2 9105   1.442  10.764  10.038 -0.7782  0.6014 -1.7491
32376SOL     OW 9106   7.844   3.021   1.762 -0.0748  0.1313  0.7929
32376SOL    HW1 9107   7.856   3.079   1.687 -1.5836  1.0740  1.2480
32376SOL    HW2 9108   7.776   3.063   1.815 -0.0693 -1.2448  1.9558
32377SOL     OW 9109  12.030  12.591   1.985 -0.3963 -0.0921 -0.2305
32377SOL    HW1 9110  11.987  12.658   1.932 -1.0921  0.5472  1.1123
32377SOL    HW2 9111  12.117  12.627   2.003 -0.6923  0.3640  0.3053
32378SOL     OW 9112   0.952   0.444  11.008  0.1032 -0.1501 -0.1989
32378SOL    HW1 9113   1.015   0.440  11.080 -0.5053  3.4795  0.7550
32378SOL    HW2 9114   0.899   0.365  11.018  0.4740 -0.1327  2.9705
32379SOL     OW 9115   2.401   7.316   0.587 -0.2413  0.6768 -0.0329
32379SOL    HW1 9116   2.489   7.303   0.554 -0.2000  0.8023  0.0258
32379SOL    HW2 9117   2.406   7.397   0.638 -0.1039  0.0319  1.0078
32380SOL     OW 9118   6.339   1.132  10.796 -0.2064  0.0331 -0.6236
32380SOL    HW1 9119   6.315   1.044  10.825 -1.2156  0.2187 -0.8804
32380SOL    HW2 9120   6.408   1.117  10.731  2.0460 -0.3943  1.6925
32381SOL     OW 9121   6.834   0.702   9.455 -0.4373 -0.0987 -0.2184
32381SOL    HW1 9122   6.929   0.715   9.452 -0.1794 -1.9575 -2.3398
32381SOL    HW2 9123   6.822   0.625   9.510 -0.6618 -0.3120 -0.5681
32382SOL     OW 9124   3.752   8.610   6.761  0.0655  0.3744  0.5110
32382SOL    HW1 9125   3.717   8.678   6.704  1.8997  0.7472 -0.2463
32382SOL    HW2 9126   3.833   8.647   6.795 -0.3331 -0.3559  2.3688
32383SOL     OW 9127  13.234  12.853   6.077 -0.3277 -0.4178 -0.6445
32383SOL    HW1 9128  13.327  12.840   6.057 -0.1012  3.2717 -3.2379
32383SOL    HW2 9129  13.199  12.765   6.090  3.3527 -2.0049 -0.1987
32384SOL     OW 9130   8.703   2.909  10.712 -0.1588  0.3340  0.1893
32384SOL    HW1 9131   8.712   3.004  10.702 -0.3074  0.3929  0.6233
32384SOL    HW2 9132   8.786   2.874  10.678 -0.7591  0.5066 -1.5379
32385SOL     OW 9133   8.733  11.157   8.761 -0.0945  0.2589  0.2126
32385SOL    HW1 9134   8.756  11.065   8.777  1.2032  0.5835  0.3562
32385SOL    HW2 9135   8.661  11.153   8.698  0.3047 -0.8573 -0.2109
32386SOL     OW 9136  12.404   9.602   2.348 -0.1819  0.3519 -0.2009
32386SOL    HW1 9137  12.371   9.681   2.305 -0.7528  0.0816 -0.2769
32386SOL    HW2 9138  12.344   9.533   2.319 -0.9065  0.2554  1.4401
32387SOL     OW 9139   9.410   5.137   3.659  0.3569 -0.3761  0.1133
32387SOL    HW1 9140   9.376   5.163   3.574 -0.0400 -1.3358 -0.0290
32387SOL    HW2 9141   9.487   5.083   3.640 -1.6352 -3.4730  0.1738
32388SOL     OW 9142   7.298   9.947  10.406  0.1985  0.3006 -0.2684
32388SOL    HW1 9143   7.283   9.924  10.498  3.2733 -0.0291  0.2380
32388SOL    HW2 9144   7.380   9.995  10.406  0.4154  0.0677 -2.8908
32389SOL     OW 9145   0.373   9.127   4.167  0.1473  0.4852  0.4767
32389SOL    HW1 9146   0.425   9.140   4.088 -0.1316  1.6995  0.4864
32389SOL    HW2 9147   0.296   9.182   4.155 -0.8966 -0.8742  0.7058
32390SOL     OW 9148   6.541  13.127   9.797 -0.2178 -0.3783 -0.1434
32390SOL    HW1 9149   6.449  13.147   9.814 -0.6688 -1.7833 -0.7384
32390SOL    HW2 9150   6.539  13.066   9.723  1.1014 -1.2985  0.5315
32391SOL     OW 9151   8.429   5.627   9.865 -0.1037  0.1944 -0.3968
32391SOL    HW1 9152   8.507   5.661   9.823  0.8037 -1.0411  0.1928
32391SOL    HW2 9153   8.424   5.536   9.836  0.7855 -0.8297  2.3410
32392SOL     OW 9154   0.951  13.576   3.327  0.0206 -0.1290 -0.1535
32392SOL    HW1 9155   0.897  13.574   3.248  0.8754 -0.2198 -0.7490
32392SOL    HW2 9156   0.931  13.494   3.371 -1.0171  0.2481  0.1241
32393SOL     OW 9157  12.324   7.437   3.255  0.0957  0.0618 -0.1292
32393SOL    HW1 9158  12.415   7.414   3.275  0.4496  1.2297 -0.3100
32393SOL    HW2 9159  12.318   7.530   3.276 -1.1975 -0.1053  0.3275
32394SOL     OW 9160  10.878   5.462  12.896 -0.1360 -0.3576  0.5410
32394SOL    HW1 9161  10.834   5.502  12.971 -1.6094 -0.7658 -0.0708
32394SOL    HW2 9162  10.819   5.478  12.823  1.2042 -0.0981 -0.5212
32395SOL     OW 9163   1.541   1.025  11.219 -0.2773  0.3297  0.0230
32395SOL    HW1 9164   1.573   1.089  11.156  0.8003 -1.2278 -1.0934
32395SOL    HW2 9165   1.563   0.940  11.181  1.3980 -0.7069  2.9437
32396SOL     OW 9166   6.348   2.107   3.567 -0.0686  0.6328  0.0318
32396SOL    HW1 9167   6.409   2.052   3.517  0.1836  0.8926  0.0516
32396SOL    HW2 9168   6.263   2.064   3.556  0.0699  0.4180 -0.2194
32397SOL     OW 9169  11.350  13.173  11.924  0.2989 -0.1809  0.1388
32397SOL    HW1 9170  11.303  13.126  11.994 -0.0840 -0.6328 -0.4109
32397SOL    HW2 9171  11.433  13.126  11.916 -0.1957 -0.9642 -0.5977
32398SOL     OW 9172  12.220   0.754   3.178 -0.7425  0.0538  0.2012
32398SOL    HW1 9173  12.202   0.808   3.254 -0.3824  0.0077  0.3213
32398SOL    HW2 9174  12.284   0.804   3.127 -2.0037  0.7210 -0.7798
32399SOL     OW 9175  12.674   0.661  13.147 -0.5572  0.6846  0.0249
32399SOL    HW1 9176  12.751   0.619  13.108 -0.3709  1.3625 -0.3486
32399SOL    HW2 9177  12.710   0.725  13.208 -0.8161  1.2387 -0.3993
32400SOL     OW 9178  12.415   3.138   6.200  0.3811 -0.1421 -0.0714
32400SOL    HW1 9179  12.490   3.190   6.228  0.1483  0.9331 -1.3434
32400SOL    HW2 9180  12.348   3.155   6.267  0.8810 -0.1914  0.4482
32401SOL     OW 9181   3.157   2.385   6.490 -0.2099  0.2474 -0.3913
32401SOL    HW1 9182   3.064   2.378   6.511  0.2054 -0.4260  1.4005
32401SOL    HW2 9183   3.160   2.397   6.395 -2.2360  2.8739 -0.2400
32402SOL     OW 9184   7.609   7.767  10.166 -0.4499  0.1369 -0.2507
32402SOL    HW1 9185   7.603   7.747  10.073 -0.0432 -1.9936  0.1428
32402SOL    HW2 9186   7.681   7.712  10.198 -0.4289  1.0016  1.2833
32403SOL     OW 9187   8.049   6.834   4.594  0.1108  0.4508 -0.0101
32403SOL    HW1 9188   8.134   6.852   4.554 -0.0570 -1.0693 -1.1587
32403SOL    HW2 9189   7.986   6.878   4.536  0.0771  1.4390  0.7500
32404SOL     OW 9190   5.511  13.914   1.456 -0.1509 -0.2787  0.1744
32404SOL    HW1 9191   5.503  13.868   1.373  1.4469 -0.4068  0.0720
32404SOL    HW2 9192   5.456  13.992   1.445  0.8512  0.2634 -1.4242
32405SOL     OW 9193   2.688   3.425   5.436  0.0815  0.0569 -0.2829
32405SOL    HW1 9194   2.762   3.485   5.423  0.8034 -0.7211  0.1486
32405SOL    HW2 9195   2.712   3.373   5.512 -1.3331  0.3970  0.4339
32406SOL     OW 9196   7.149   9.461   8.014  0.0320  0.1480  0.0321
32406SOL    HW1 9197   7.202   9.444   8.092  0.7088 -2.3835 -0.8831
32406SOL    HW2 9198   7.201   9.523   7.963  0.8950 -0.3124  0.3379
32407SOL     OW 9199  12.970   7.071   1.141 -0.6155 -0.3372 -0.3545
32407SOL    HW1 9200  12.947   7.033   1.056 -3.0304 -0.6117  0.3541
32407SOL    HW2 9201  12.934   7.160   1.138 -0.6620 -0.3239  0.3720
32408SOL     OW 9202   1.715   5.589   0.936 -0.5984  0.0763  0.0782
32408SOL    HW1 9203   1.754   5.588   1.024  0.9963  0.9787 -0.5666
32408SOL    HW2 9204   1.790   5.587   0.877 -1.6016  0.6297 -1.2646
32409SOL     OW 9205  10.383   0.979   4.621  0.0732  0.7845  0.3367
32409SOL    HW1 9206  10.294   0.965   4.655 -0.0770  2.2558  0.6218
32409SOL    HW2 9207  10.440   0.970   4.697  0.2716 -0.7849  0.0452
32410SOL     OW 9208   1.758   3.619  12.036  0.0528  0.2980  0.1467
32410SOL    HW1 9209   1.826   3.552  12.045 -1.3062 -0.8835  3.6109
32410SOL    HW2 9210   1.693   3.581  11.978  0.7836  0.0236 -0.5017
32411SOL     OW 9211   4.780   3.571  12.202  0.0179  0.1208  0.2227
32411SOL    HW1 9212   4.794   3.640  12.138  0.6313  0.5753  0.8286
32411SOL    HW2 9213   4.687   3.550  12.195  0.0372  0.2953 -0.6708
32412SOL     OW 9214   3.030  11.611   3.707  0.0491  0.0510  0.1557
32412SOL    HW1 9215   2.959  11.550   3.726  0.0845 -0.3371 -0.8511
32412SOL    HW2 9216   3.039  11.664   3.785 -0.1638 -1.0702  0.9704
32413SOL     OW 9217  10.874   4.747  10.911  0.1909  0.0680  0.0367
32413SOL    HW1 9218  10.783   4.738  10.884  0.5738  1.4592 -2.0025
32413SOL    HW2 9219  10.886   4.842  10.921  1.4702 -0.0757  0.0263
32414SOL     OW 9220   7.224  11.476   7.795 -0.1291 -0.0608  1.0530
32414SOL    HW1 9221   7.218  11.482   7.699  1.8117 -0.9126  0.8109
32414SOL    HW2 9222   7.146  11.427   7.821 -0.4580 -0.2194 -0.1476
32415SOL     OW 9223   6.820   4.692   6.670 -0.3439 -0.3463 -0.1596
32415SOL    HW1 9224   6.771   4.613   6.694  1.4984 -1.3233  0.6609
32415SOL    HW2 9225   6.879   4.706   6.744 -2.0889  3.1404  0.7403
32416SOL     OW 9226  13.601  12.816   5.129  0.4724  0.0334  0.1392
32416SOL    HW1 9227  13.559  12.889   5.174  0.5298  0.6065 -0.7046
32416SOL    HW2 9228  13.690  12.847   5.110  1.6979 -1.5062  2.7523
32417SOL     OW 9229  13.711  12.265   0.093  0.3509  0.2124 -0.5942
32417SOL    HW1 9230  13.761  12.204   0.147 -1.2385 -1.4745 -0.9474
32417SOL    HW2 9231  13.733  12.241   0.003  1.3865  1.6515 -0.7630
32418SOL     OW 9232   5.556  13.551  13.829  0.1248  0.8400  0.4936
32418SOL    HW1 9233   5.641  13.580  13.797  0.3963  1.7582  1.9587
32418SOL    HW2 9234   5.576  13.493  13.902 -0.5056  0.0881  0.0877
32419SOL     OW 9235   7.656   6.610  12.187  0.4240 -0.2929  0.4632
32419SOL    HW1 9236   7.604   6.579  12.262  0.7815 -1.2955  0.3126
32419SOL    HW2 9237   7.736   6.558  12.191  0.5621 -0.1534 -0.4550
32420SOL     OW 9238  10.555   8.595   3.833  1.0400  0.2690  0.0831
32420SOL    HW1 9239  10.530   8.656   3.902  0.8677 -0.5641  0.7776
32420SOL    HW2 9240  10.496   8.520   3.844  2.1437 -0.6261  0.1365
32421SOL     OW 9241   7.112   5.959   1.757  0.2367  0.1176 -0.2263
32421SOL    HW1 9242   7.023   5.942   1.787  0.0620  1.3123 -0.0344
32421SOL    HW2 9243   7.150   5.872   1.744 -1.0412 -0.4107 -0.5723
32422SOL     OW 9244  10.653  12.548   7.026 -0.6960 -0.1230  0.4693
32422SOL    HW1 9245  10.652  12.610   7.098 -2.3901  1.1610 -0.5740
32422SOL    HW2 9246  10.739  12.558   6.985 -1.1128  1.9882  0.0030
32423SOL     OW 9247   4.064   4.965   5.826  0.1005  0.1061  0.1620
32423SOL    HW1 9248   3.987   4.957   5.769 -0.9656 -0.8523  1.6653
32423SOL    HW2 9249   4.096   4.875   5.835  0.5739  0.3191  0.6649
32424SOL     OW 9250   6.292   2.987   2.295  0.9672 -0.0296 -0.1751
32424SOL    HW1 9251   6.214   2.932   2.290 -0.3316  1.4158  2.0335
32424SOL    HW2 9252   6.262   3.067   2.340  2.4381  3.0221 -4.0420
32425SOL     OW 9253   0.119   4.710   3.657  0.8613  0.0805  0.1868
32425SOL    HW1 9254   0.058   4.659   3.709 -0.4572  1.3215 -0.0715
32425SOL    HW2 9255   0.147   4.650   3.587 -0.1967 -0.4685  0.2139
32426SOL     OW 9256   7.090   9.947   6.664  0.0812  0.5357 -0.0247
32426SOL    HW1 9257   7.023   9.948   6.595  0.7331 -1.5629 -0.7591
32426SOL    HW2 9258   7.073   9.867   6.713  0.2806  1.4744  1.6688
32427SOL     OW 9259   8.828   2.306   2.221  0.4440  0.4052  0.3321
32427SOL    HW1 9260   8.806   2.317   2.128  0.2378  1.8401  0.5273
32427SOL    HW2 9261   8.773   2.370   2.267  1.6027  0.7645  1.2836
32428SOL     OW 9262   0.609   9.203  11.710 -0.0905  0.4447 -0.3452
32428SOL    HW1 9263   0.524   9.243  11.696 -0.2797  0.1132 -0.1672
32428SOL    HW2 9264   0.656   9.217  11.628 -0.2708  0.7440 -0.3971
32429SOL     OW 9265   7.717  12.705   4.356  0.4613  0.1878  0.0839
32429SOL    HW1 9266   7.679  12.622   4.327  0.9557 -0.1587  0.4283
32429SOL    HW2 9267   7.797  12.681   4.402  0.5027  0.8405  0.3709
32430SOL     OW 9268  10.786  12.326   8.217  0.4402 -0.0444 -0.3354
32430SOL    HW1 9269  10.823  12.413   8.203  0.6596 -0.5223 -3.5292
32430SOL    HW2 9270  10.853  12.279   8.267 -0.6437  2.1143  3.6053
32431SOL     OW 9271   7.783  11.541  13.060 -0.2034  0.1791 -0.5555
32431SOL    HW1 9272   7.795  11.628  13.096 -0.1033  0.7356 -1.8910
32431SOL    HW2 9273   7.688  11.529  13.058 -0.2450 -1.2239  2.9613
32432SOL     OW 9274   5.323   2.019  12.302 -0.1088 -0.1128  0.2980
32432SOL    HW1 9275   5.239   1.974  12.298  0.0141 -0.2575 -1.5643
32432SOL    HW2 9276   5.388   1.951  12.282  0.2740  0.3797 -0.1768
32433SOL     OW 9277   2.260   0.422  12.673  0.2475  0.1219 -0.1298
32433SOL    HW1 9278   2.261   0.441  12.767  0.9171 -1.3391  0.1698
32433SOL    HW2 9279   2.192   0.356  12.663  0.0796  0.3764 -0.7108
32434SOL     OW 9280   6.319   9.443   4.795  0.1653 -0.2537  0.2569
32434SOL    HW1 9281   6.282   9.358   4.771  0.9325 -0.2584 -0.9952
32434SOL    HW2 9282   6.333   9.487   4.711 -0.5868  1.2782  0.9037
32435SOL     OW 9283   8.274   6.707   1.505 -0.2652  0.5470 -0.2466
32435SOL    HW1 9284   8.351   6.764   1.496 -0.8075  1.5136  0.8274
32435SOL    HW2 9285   8.200   6.766   1.497 -0.8464  0.1180  1.4136
32436SOL     OW 9286   4.219  13.709   7.539 -0.0438 -0.2590  0.5531
32436SOL    HW1 9287   4.170  13.632   7.569 -0.3086 -0.0730  0.6063
32436SOL    HW2 9288   4.159  13.782   7.553 -0.7541 -0.3096 -1.7418
32437SOL     OW 9289   2.528   1.008  10.870 -0.0642 -0.0713 -0.8485
32437SOL    HW1 9290   2.475   1.063  10.929  1.4440  1.8020 -1.1228
32437SOL    HW2 9291   2.464   0.957  10.821 -1.5093  0.5874  0.2663
32438SOL     OW 9292  12.253   9.499   3.737 -0.3465 -0.3958 -0.3612
32438SOL    HW1 9293  12.192   9.569   3.716 -0.4044 -0.7717 -1.4898
32438SOL    HW2 9294  12.324   9.542   3.785 -1.2631  0.1171  0.5739
32439SOL     OW 9295   0.750   4.447  11.055 -0.3523  0.4954  0.1757
32439SOL    HW1 9296   0.842   4.437  11.081 -0.2351  0.0603 -0.3775
32439SOL    HW2 9297   0.705   4.473  11.135  0.0873 -0.2412  0.6737
32440SOL     OW 9298   5.610   0.874   3.542  0.7587 -0.2365  0.5303
32440SOL    HW1 9299   5.523   0.839   3.522  0.6777  0.5839 -0.6904
32440SOL    HW2 9300   5.599   0.919   3.625 -0.3510  1.0149 -0.2509
32441SOL     OW 9301   2.275  11.479   3.943 -0.0250  0.1476 -0.1583
32441SOL    HW1 9302   2.230  11.456   3.862  1.5813 -0.9363 -0.7862
32441SOL    HW2 9303   2.267  11.400   3.998  1.4784 -0.2661 -0.4815
32442SOL     OW 9304   9.729   6.409   6.381 -0.7876 -0.1674  0.2316
32442SOL    HW1 9305   9.796   6.451   6.327 -1.2912  1.2637  0.6731
32442SOL    HW2 9306   9.762   6.320   6.395 -0.3982 -0.4420 -1.9979
32443SOL     OW 9307   2.321   0.085  12.878 -0.3415 -0.1871 -0.2418
32443SOL    HW1 9308   2.393   0.147  12.874 -0.0223 -0.5303  0.1074
32443SOL    HW2 9309   2.356   0.010  12.926 -1.2698  0.1206  0.9839
32444SOL     OW 9310   8.244  12.783   6.547  0.3720 -0.0745  0.1556
32444SOL    HW1 9311   8.210  12.809   6.461 -0.0584  0.6691  0.5404
32444SOL    HW2 9312   8.194  12.835   6.609  2.4472  1.3285  0.7415
32445SOL     OW 9313   9.655   8.676   2.610 -0.4477 -0.1763  0.2330
32445SOL    HW1 9314   9.661   8.729   2.531  1.2435  2.7980  2.1811
32445SOL    HW2 9315   9.576   8.708   2.654 -0.3631 -0.5260  0.6450
32446SOL     OW 9316   5.631   6.948  12.987  0.6599 -0.3794 -0.1930
32446SOL    HW1 9317   5.600   6.927  12.899  0.2478  0.8685 -0.3665
32446SOL    HW2 9318   5.714   6.994  12.973  0.4961 -0.0020  0.0462
32447SOL     OW 9319   4.018   0.510   8.834 -0.1083  0.4539  0.3231
32447SOL    HW1 9320   4.029   0.551   8.748 -0.0137 -0.6839 -0.2327
32447SOL    HW2 9321   4.107   0.507   8.870 -0.1402  0.8811  0.4451
32448SOL     OW 9322  13.192  12.372   6.453 -0.0906 -0.2855  0.8902
32448SOL    HW1 9323  13.255  12.407   6.516 -1.1333 -0.0575  1.8271
32448SOL    HW2 9324  13.201  12.277   6.461 -0.3119 -0.2601  1.4880
32449SOL     OW 9325   9.847   2.604   3.820 -0.2524 -0.4286  0.0150
32449SOL    HW1 9326   9.829   2.667   3.890  1.5382 -3.1363  3.2237
32449SOL    HW2 9327   9.789   2.530   3.839  1.2963 -1.8222 -0.4404
32450SOL     OW 9328   8.319  12.191  12.339  0.4520 -0.6112  0.3562
32450SOL    HW1 9329   8.307  12.136  12.262 -0.6881 -2.7627  1.9420
32450SOL    HW2 9330   8.272  12.272  12.319 -0.5293 -1.4571 -0.8706
32451SOL     OW 9331  13.811   6.167  13.772  0.3410  0.1213 -0.4546
32451SOL    HW1 9332  13.810   6.228  13.699  1.2591  1.5998  0.7239
32451SOL    HW2 9333  13.844   6.085  13.734  2.4762  1.3307 -1.3640
32452SOL     OW 9334   2.085   9.302  10.682 -0.4597  0.1675  0.2867
32452SOL    HW1 9335   2.070   9.355  10.604  1.8607  0.4599 -0.0149
32452SOL    HW2 9336   2.032   9.223  10.667 -0.8822  0.6798 -1.0713
32453SOL     OW 9337   3.133   7.704   2.110  0.3042 -0.2679 -0.2415
32453SOL    HW1 9338   3.155   7.726   2.019 -1.1560 -2.0292 -1.0748
32453SOL    HW2 9339   3.041   7.729   2.120  0.4725 -0.0037  0.8145
32454SOL     OW 9340  13.084   0.302   8.901  0.0206 -0.2529 -0.1519
32454SOL    HW1 9341  13.094   0.284   8.808 -3.2889  1.9894 -1.1403
32454SOL    HW2 9342  13.168   0.338   8.928  0.4925  0.9203 -2.8418
32455SOL     OW 9343   6.476   0.695   6.827  0.2472 -0.0720  0.1173
32455SOL    HW1 9344   6.423   0.653   6.759  0.1965 -0.2877  0.2905
32455SOL    HW2 9345   6.426   0.683   6.908 -0.2047  1.0972  0.0331
32456SOL     OW 9346   5.500   1.273  11.097  0.0524 -0.1172  0.0141
32456SOL    HW1 9347   5.473   1.286  11.006  2.8635  0.4743 -0.8427
32456SOL    HW2 9348   5.523   1.360  11.128  0.0684 -0.4508  0.9756
32457SOL     OW 9349   0.997   4.834   0.110 -0.1051 -0.0302  0.1179
32457SOL    HW1 9350   0.941   4.794   0.043  0.0707  0.6298 -0.4309
32457SOL    HW2 9351   0.935   4.865   0.177 -0.5438  1.7931 -1.0565
32458SOL     OW 9352   6.645   2.923   5.844 -0.6273  0.2596  0.1352
32458SOL    HW1 9353   6.614   2.844   5.799 -0.9961  0.8530 -0.6837
32458SOL    HW2 9354   6.608   2.917   5.932  0.7280 -1.3105  0.6625
32459SOL     OW 9355   9.730  11.688  12.371 -0.0212  0.3706 -0.1363
32459SOL    HW1 9356   9.766  11.715  12.287 -0.5988 -1.2817 -0.9673
32459SOL    HW2 9357   9.770  11.602  12.387  0.9457  1.1268  1.8533
32460SOL     OW 9358   6.744   0.270   8.411 -0.0999 -0.0890 -0.3362
32460SOL    HW1 9359   6.797   0.247   8.335  0.4018 -1.2098  0.3162
32460SOL    HW2 9360   6.683   0.197   8.420 -2.6572  1.7397 -1.8010
32461SOL     OW 9361  11.034  13.386  12.899 -0.3240 -0.6380  0.0464
32461SOL    HW1 9362  10.988  13.462  12.934 -1.6578 -0.5028 -1.8380
32461SOL    HW2 9363  11.123  13.394  12.933 -0.6538  1.3165  0.5666
32462SOL     OW 9364   2.655   2.487   8.783 -0.2006 -0.5428 -0.5581
32462SOL    HW1 9365   2.656   2.528   8.697  2.6850 -1.2877 -0.9754
32462SOL    HW2 9366   2.562   2.476   8.803 -0.9779  0.9143 -2.9262
32463SOL     OW 9367   3.544  11.769   6.424 -0.5982 -0.0341  0.6742
32463SOL    HW1 9368   3.520  11.737   6.337 -0.3008 -2.2058  1.3399
32463SOL    HW2 9369   3.636  11.795   6.415 -0.8654  0.7742  0.1047
32464SOL     OW 9370   2.015   2.275   4.559 -0.2740 -0.0893 -0.5679
32464SOL    HW1 9371   2.090   2.334   4.554  0.2931 -0.8577 -1.3281
32464SOL    HW2 9372   1.948   2.326   4.606  1.1776  0.1084  1.4465
32465SOL     OW 9373   1.361   7.461   6.854 -0.1761  0.3942  0.1545
32465SOL    HW1 9374   1.326   7.387   6.805 -1.3152  0.5830  0.6419
32465SOL    HW2 9375   1.393   7.423   6.936  0.2821  0.2976 -0.0639
32466SOL     OW 9376   9.445   6.759   9.323 -0.1250  0.1850  0.0089
32466SOL    HW1 9377   9.376   6.808   9.367  0.9788 -0.7338  2.9806
32466SOL    HW2 9378   9.398   6.694   9.270 -1.5309  0.4444  0.8913
32467SOL     OW 9379   9.600   4.733   9.159 -0.1885  0.3756  0.3232
32467SOL    HW1 9380   9.591   4.640   9.139  0.7297 -0.0037  1.5536
32467SOL    HW2 9381   9.515   4.757   9.198  0.3824 -0.5796  2.2633
32468SOL     OW 9382  12.357  10.301   2.070 -0.0111 -0.1046  0.5001
32468SOL    HW1 9383  12.364  10.254   1.987  0.9727  0.3260  0.3192
32468SOL    HW2 9384  12.302  10.377   2.050 -2.1313 -1.4422  0.9427
32469SOL     OW 9385   5.806   1.383   4.595  0.2407  0.4854  0.1600
32469SOL    HW1 9386   5.852   1.455   4.638  2.8478 -1.1303  0.2732
32469SOL    HW2 9387   5.819   1.399   4.501 -3.0451  2.4693 -0.1271
32470SOL     OW 9388   1.199  13.781  11.277 -0.2276 -0.0814  0.1472
32470SOL    HW1 9389   1.179  13.862  11.325 -0.3111  0.2707 -0.4792
32470SOL    HW2 9390   1.113  13.746  11.254 -0.1770  0.2881 -0.6330
32471SOL     OW 9391   1.282   1.511   8.500  0.2301  0.1741 -0.6621
32471SOL    HW1 9392   1.349   1.451   8.533  0.6336  0.5529 -0.7809
32471SOL    HW2 9393   1.271   1.486   8.408  0.6841  0.5279 -0.8196
32472SOL     OW 9394   3.610   2.752   7.371 -0.1671 -0.1024 -0.1535
32472SOL    HW1 9395   3.602   2.833   7.321 -1.1849  0.5096  0.9459
32472SOL    HW2 9396   3.556   2.689   7.323 -3.4023  1.1898  1.4885
32473SOL     OW 9397  10.795  12.236  10.508  0.1950 -0.8754  0.6869
32473SOL    HW1 9398  10.728  12.169  10.497 -0.5443 -0.2567  1.2582
32473SOL    HW2 9399  10.838  12.213  10.591  1.4714 -1.9070 -0.2159
32474SOL     OW 9400   2.204  12.469  13.873  0.9712 -0.1244 -0.1345
32474SOL    HW1 9401   2.220  12.378  13.897 -2.2438 -0.8039 -0.0554
32474SOL    HW2 9402   2.143  12.464  13.799  0.6567  1.9498 -0.0887
32475SOL     OW 9403  12.819   9.516   8.197 -0.3279 -0.1251 -0.2397
32475SOL    HW1 9404  12.792   9.483   8.112 -1.1009 -1.7822  0.6016
32475SOL    HW2 9405  12.855   9.439   8.242  1.5501  1.0544  0.3637
32476SOL     OW 9406   9.110   4.769   3.919 -0.0377 -0.0882 -0.0383
32476SOL    HW1 9407   9.160   4.774   4.000  0.8292 -0.3285 -0.5386
32476SOL    HW2 9408   9.126   4.681   3.886  0.0571  0.1754 -0.7252
32477SOL     OW 9409   2.795   4.186   7.919 -0.8667 -0.1027  0.2918
32477SOL    HW1 9410   2.817   4.122   7.987  0.7531 -0.6485 -0.7002
32477SOL    HW2 9411   2.750   4.256   7.967  1.7527  0.3754  2.2901
32478SOL     OW 9412   7.024   2.321   6.480 -0.3739  0.1517  0.0712
32478SOL    HW1 9413   7.052   2.264   6.551 -2.7623 -0.8231  0.3183
32478SOL    HW2 9414   7.009   2.406   6.521 -1.2250 -0.2678  0.6544
32479SOL     OW 9415  13.759   8.572  12.233  0.1864  0.0496 -0.0582
32479SOL    HW1 9416  13.766   8.642  12.167  3.1046  1.3632  1.4447
32479SOL    HW2 9417  13.696   8.605  12.297  0.8059  0.8890  0.1326
32480SOL     OW 9418   1.808   0.487   3.704  0.6714  0.4701  0.4407
32480SOL    HW1 9419   1.878   0.552   3.707  1.7445 -0.5774 -0.5723
32480SOL    HW2 9420   1.853   0.404   3.692 -0.7451 -0.2562 -0.1506
32481SOL     OW 9421   1.257   7.657   9.970  0.2649  0.1969  0.5217
32481SOL    HW1 9422   1.193   7.586   9.976  0.2367  0.2752  1.3223
32481SOL    HW2 9423   1.297   7.646   9.884 -1.3958  0.6564 -0.3350
32482SOL     OW 9424   1.182   2.764  12.640 -0.7164  0.2001  0.0093
32482SOL    HW1 9425   1.133   2.705  12.698 -0.5468  1.4314  1.4642
32482SOL    HW2 9426   1.193   2.714  12.559 -1.4703 -1.3627  0.8246
32483SOL     OW 9427   5.463   2.777   5.952 -0.2418  0.0309 -0.0427
32483SOL    HW1 9428   5.521   2.737   5.887  0.5803  1.2727 -0.1219
32483SOL    HW2 9429   5.518   2.843   5.995 -1.1328  0.0809  1.0546
32484SOL     OW 9430   1.254  13.947  11.989 -0.3906 -0.2016 -0.0947
32484SOL    HW1 9431   1.336  13.994  12.003  0.5402 -1.2972 -1.5655
32484SOL    HW2 9432   1.208  13.998  11.922  0.6255 -1.3039 -1.7011
32485SOL     OW 9433   4.890   4.919  13.093  0.2341 -0.9335 -0.1500
32485SOL    HW1 9434   4.977   4.915  13.133 -0.1520 -1.0764  0.7029
32485SOL    HW2 9435   4.864   4.828  13.083 -0.2719 -0.8869  0.6419
32486SOL     OW 9436   0.760  12.174   5.423 -0.0004 -0.6527  0.1295
32486SOL    HW1 9437   0.764  12.095   5.368 -0.5228 -0.5546 -0.0567
32486SOL    HW2 9438   0.689  12.156   5.485  0.5916 -0.7669  0.7858
32487SOL     OW 9439   8.374  10.933  10.496 -0.1379  0.3111  0.1337
32487SOL    HW1 9440   8.440  10.998  10.521 -0.9464  1.1897  0.0366
32487SOL    HW2 9441   8.418  10.848  10.509  0.9180  0.8624  0.3049
32488SOL     OW 9442   5.319  12.723   9.933  0.3198  0.4737 -0.9737
32488SOL    HW1 9443   5.278  12.693   9.852  0.6720 -4.2153  0.2636
32488SOL    HW2 9444   5.407  12.686   9.930  0.5854  0.8090  1.2133
32489SOL     OW 9445   7.804   1.184  10.226  0.0515 -0.0366 -0.0480
32489SOL    HW1 9446   7.712   1.161  10.222  0.2098 -0.7382  0.3079
32489SOL    HW2 9447   7.827   1.204  10.135 -0.4061 -0.0315 -0.1642
32490SOL     OW 9448  11.003   2.427   2.028  0.2686  0.7770 -0.1413
32490SOL    HW1 9449  11.020   2.492   2.095  1.3640  1.0648 -0.6733
32490SOL    HW2 9450  10.909   2.408   2.036  0.0339  2.0365  0.3457
32491SOL     OW 9451  12.757  12.307   4.703  0.5193 -0.0670 -0.4871
32491SOL    HW1 9452  12.707  12.354   4.637 -1.7474  2.0747  2.4525
32491SOL    HW2 9453  12.808  12.375   4.747  1.1812 -1.2204  0.5821
32492SOL     OW 9454   8.309   3.817   7.538 -0.1673 -0.5832  0.2078
32492SOL    HW1 9455   8.367   3.741   7.535 -0.7641 -1.0382  0.0595
32492SOL    HW2 9456   8.271   3.821   7.450  0.7543  0.6029 -0.1591
32493SOL     OW 9457   9.741   9.545   4.242 -0.2587  0.5527 -0.0357
32493SOL    HW1 9458   9.678   9.480   4.208  0.5749  0.2041 -0.9923
32493SOL    HW2 9459   9.717   9.556   4.334  0.9947 -2.9369  0.8702
32494SOL     OW 9460   6.654  11.739  12.823  0.3014  0.2947 -0.8364
32494SOL    HW1 9461   6.720  11.771  12.762  0.8935  2.2592  0.7333
32494SOL    HW2 9462   6.697  11.669  12.871 -0.0445 -0.9995 -2.3390
32495SOL     OW 9463   3.452   8.935  11.217 -0.2430 -0.0600  0.3206
32495SOL    HW1 9464   3.372   8.981  11.194 -1.4129 -2.5192 -0.7868
32495SOL    HW2 9465   3.447   8.924  11.312 -2.0640 -1.5999  0.0841
32496SOL     OW 9466   8.250   2.068   3.221  0.6145 -0.2741 -0.4181
32496SOL    HW1 9467   8.254   2.083   3.126 -0.2323  1.3500 -0.2317
32496SOL    HW2 9468   8.341   2.060   3.248  0.8280 -1.7137 -1.4969
32497SOL     OW 9469   8.041   2.324   5.176 -0.1709  0.8428  0.5679
32497SOL    HW1 9470   8.031   2.392   5.243  0.3912  2.4704 -0.9174
32497SOL    HW2 9471   7.958   2.325   5.128 -0.3869  0.0349  0.9114
32498SOL     OW 9472   3.715   5.984   0.079  0.1899  0.1231 -0.5383
32498SOL    HW1 9473   3.645   5.938   0.126 -0.8146  3.1067  1.2068
32498SOL    HW2 9474   3.786   5.991   0.143 -0.0614  1.7017 -0.3853
32499SOL     OW 9475   2.385   9.681   9.630 -0.2366  0.3638 -0.4563
32499SOL    HW1 9476   2.367   9.741   9.557 -0.3573  1.3949  0.3865
32499SOL    HW2 9477   2.309   9.691   9.687  0.6931  0.9888  0.7104
32500SOL     OW 9478   9.482   1.375  13.194  0.2754 -0.4318 -0.1276
32500SOL    HW1 9479   9.509   1.440  13.129  0.4637 -1.8444 -1.5144
32500SOL    HW2 9480   9.553   1.311  13.196 -1.1089 -2.0757 -0.8891
32501SOL     OW 9481  10.073  12.159  12.257 -0.3473  0.1053 -0.2946
32501SOL    HW1 9482  10.090  12.233  12.199  0.3635  1.3690  1.4495
32501SOL    HW2 9483  10.148  12.156  12.316  0.1990 -2.7264 -0.9672
32502SOL     OW 9484  12.223   1.659   1.726  0.4761 -0.3802 -0.1816
32502SOL    HW1 9485  12.188   1.586   1.675 -0.0136 -0.0159 -0.3650
32502SOL    HW2 9486  12.192   1.738   1.681  0.7382 -0.0563  0.1967
32503SOL     OW 9487   1.421   7.653   4.211  0.5967 -0.7583  0.4748
32503SOL    HW1 9488   1.397   7.691   4.295  1.3821 -3.5581  2.1053
32503SOL    HW2 9489   1.495   7.705   4.181 -0.6087  1.2000  0.7324
32504SOL     OW 9490   0.062  11.800   4.321  0.0513  0.3844  0.1682
32504SOL    HW1 9491  -0.022  11.754   4.312  0.6584 -0.4432 -1.9124
32504SOL    HW2 9492   0.050  11.881   4.272  0.4018  0.3241 -0.0252
32505SOL     OW 9493   2.057   7.041  10.336  0.3864  0.0637 -0.3075
32505SOL    HW1 9494   2.026   7.132  10.338 -0.1327 -0.1023 -0.6542
32505SOL    HW2 9495   2.093   7.026  10.423  1.1776  0.8420 -0.4843
32506SOL     OW 9496   9.261   6.623   0.675  0.2303 -0.0206  0.5851
32506SOL    HW1 9497   9.239   6.558   0.741 -0.7274  0.2067  0.5012
32506SOL    HW2 9498   9.290   6.700   0.725 -0.2451  0.0618  0.7402
32507SOL     OW 9499  13.093  10.233   4.743  0.2896  0.8191  0.6590
32507SOL    HW1 9500  13.071  10.177   4.817 -2.0643  1.4274  0.5040
32507SOL    HW2 9501  13.186  10.250   4.753  0.2255  0.1718  2.9760
32508SOL     OW 9502  13.028   1.684  11.410 -0.0948  0.1005  0.3545
32508SOL    HW1 9503  13.013   1.649  11.322  0.9133  0.7267 -0.0868
32508SOL    HW2 9504  13.123   1.692  11.417 -0.2008  0.7296  1.2342
32509SOL     OW 9505   8.998   2.499   6.519  0.1933  0.5598 -0.1587
32509SOL    HW1 9506   8.965   2.586   6.543 -1.9305 -0.0945 -0.4442
32509SOL    HW2 9507   9.027   2.461   6.602  0.8607  1.4292  0.0131
32510SOL     OW 9508   2.461   6.495  13.623  0.2386 -0.1674 -0.7214
32510SOL    HW1 9509   2.485   6.528  13.709  1.4701 -1.1549 -0.6569
32510SOL    HW2 9510   2.408   6.417  13.641 -0.1909  0.0908 -0.8605
32511SOL     OW 9511  12.922  11.700   7.147  0.1752 -0.0603  0.4628
32511SOL    HW1 9512  12.874  11.655   7.078  0.4400 -0.9278  0.8337
32511SOL    HW2 9513  12.855  11.750   7.194  0.0594  0.8794 -0.6686
32512SOL     OW 9514  13.382   1.016  12.984  0.2008 -0.0480 -0.4008
32512SOL    HW1 9515  13.293   0.981  12.978 -0.2982  0.6824  1.7959
32512SOL    HW2 9516  13.371   1.100  13.029  2.0551 -0.3544  0.7212
32513SOL     OW 9517   0.451  11.462  12.799  0.1430 -0.3771 -0.0982
32513SOL    HW1 9518   0.388  11.409  12.750 -0.2330 -0.2465  0.2342
32513SOL    HW2 9519   0.513  11.399  12.834 -0.4562 -0.6426  0.5195
32514SOL     OW 9520  12.102   9.906  10.655 -0.8513 -0.8257 -0.0063
32514SOL    HW1 9521  12.020   9.864  10.680 -1.6417  0.6654  0.0118
32514SOL    HW2 9522  12.119   9.969  10.725 -0.0676 -0.6067 -0.3813
32515SOL     OW 9523  10.278   4.311   5.677 -0.6175 -0.0388 -0.3841
32515SOL    HW1 9524  10.227   4.316   5.596 -1.3488  1.0816  0.1174
32515SOL    HW2 9525  10.364   4.348   5.654 -0.8240  0.2817 -0.6495
32516SOL     OW 9526   1.430   1.324  13.408 -0.4265 -0.4598  0.4115
32516SOL    HW1 9527   1.387   1.409  13.397 -0.6147 -0.5442  0.4884
32516SOL    HW2 9528   1.488   1.336  13.483  0.8485  0.1139 -0.6270
32517SOL     OW 9529   0.056   3.299   1.234 -0.4872 -0.7945 -0.0754
32517SOL    HW1 9530   0.100   3.250   1.305  1.3451  1.8267  0.7330
32517SOL    HW2 9531  -0.025   3.330   1.274  0.1537 -0.0165  0.6642
32518SOL     OW 9532   7.229   5.108   7.000 -0.4174 -0.4611  0.8209
32518SOL    HW1 9533   7.151   5.115   7.056 -1.1115 -1.1074 -0.0310
32518SOL    HW2 9534   7.199   5.059   6.924  0.1033  1.6060 -0.8169
32519SOL     OW 9535   3.149  11.946  13.639  0.4237  0.2474  0.1094
32519SOL    HW1 9536   3.078  11.931  13.702  1.4548  1.1191  1.5479
32519SOL    HW2 9537   3.115  11.914  13.556 -1.3827 -0.0054  0.9042
32520SOL     OW 9538   3.991   6.370   0.795 -0.4178  0.5709 -0.4358
32520SOL    HW1 9539   4.056   6.395   0.729  2.1118  0.5564  1.8681
32520SOL    HW2 9540   3.912   6.419   0.770  0.2227  0.1990 -3.6636
32521SOL     OW 9541   3.455   2.259   8.362  0.0232 -0.1272  0.1051
32521SOL    HW1 9542   3.525   2.199   8.336 -1.2848 -2.5303  1.7568
32521SOL    HW2 9543   3.431   2.305   8.282  2.3263 -0.4603 -0.8371
32522SOL     OW 9544   3.848   9.170   4.604  0.1688 -0.4981  0.3779
32522SOL    HW1 9545   3.776   9.231   4.623  0.4091  0.2308 -0.9319
32522SOL    HW2 9546   3.897   9.166   4.687 -0.1411  0.7070  0.6547
32523SOL     OW 9547   0.714   2.521   4.365  0.3542  0.1189 -0.1540
32523SOL    HW1 9548   0.677   2.468   4.294  0.9202 -0.6738  0.1220
32523SOL    HW2 9549   0.639   2.561   4.408 -0.1326 -0.8627 -0.0702
32524SOL     OW 9550  10.988   4.723   7.361  0.6240 -0.6333  0.5743
32524SOL    HW1 9551  10.972   4.744   7.452  1.4902 -1.1093  0.8418
32524SOL    HW2 9552  11.069   4.673   7.361  0.5179 -0.8368 -0.4294
32525SOL     OW 9553   4.775   7.524   1.763 -0.5340  0.5645 -0.4232
32525SOL    HW1 9554   4.748   7.599   1.709 -2.0582 -0.5312 -1.2498
32525SOL    HW2 9555   4.869   7.518   1.749 -0.4942  1.8767 -0.9168
32526SOL     OW 9556   6.227  13.962   4.270 -0.3675 -1.0187 -0.7988
32526SOL    HW1 9557   6.187  13.879   4.297 -1.6776  0.0465  0.6993
32526SOL    HW2 9558   6.277  13.991   4.346 -0.6314 -0.0149 -0.9929
32527SOL     OW 9559   3.536  10.211  10.521 -0.2354 -0.1698 -0.5325
32527SOL    HW1 9560   3.620  10.186  10.482 -0.2774 -1.0138 -0.1149
32527SOL    HW2 9561   3.487  10.249  10.448  0.3467 -0.0820 -0.8870
32528SOL     OW 9562   4.101   7.891   9.908 -0.0364 -0.0670 -0.2223
32528SOL    HW1 9563   4.053   7.969   9.881 -1.9742 -1.7272 -2.0322
32528SOL    HW2 9564   4.190   7.904   9.875 -0.9127  0.4377 -2.5545
32529SOL     OW 9565   7.138  10.077   9.204  0.1442  0.2289  0.3593
32529SOL    HW1 9566   7.054  10.063   9.247 -0.3729  0.2696 -0.6095
32529SOL    HW2 9567   7.144  10.171   9.192  0.0608  0.1800 -0.0865
32530SOL     OW 9568   9.279   8.409  10.975 -0.0662  0.0190  0.4108
32530SOL    HW1 9569   9.285   8.483  10.915  2.3721 -1.0989 -0.8904
32530SOL    HW2 9570   9.219   8.348  10.933  1.2740 -0.5536 -0.7723
32531SOL     OW 9571  10.977   7.504   7.924  0.4774 -0.0944 -0.0573
32531SOL    HW1 9572  11.040   7.575   7.913 -0.1265  0.5919  0.7796
32531SOL    HW2 9573  11.032   7.426   7.935  1.1783  0.3908  0.0263
32532SOL     OW 9574   0.563   7.962   1.041 -0.0672 -0.7485 -0.1616
32532SOL    HW1 9575   0.541   7.967   0.947 -0.8657 -0.3982  0.0362
32532SOL    HW2 9576   0.621   7.886   1.048  1.8384  0.4934 -1.2827
32533SOL     OW 9577  11.611   1.384   4.613 -0.1512  0.3546  0.1683
32533SOL    HW1 9578  11.567   1.316   4.663  0.1336 -0.3802 -0.5653
32533SOL    HW2 9579  11.575   1.377   4.524  0.1002  0.9569  0.0101
32534SOL     OW 9580   5.938  12.425   4.879 -0.1541  0.0256  0.1363
32534SOL    HW1 9581   5.989  12.444   4.801 -0.3655  0.6186  0.1365
32534SOL    HW2 9582   5.869  12.366   4.849 -0.2365  0.2546 -0.1245
32535SOL     OW 9583   2.103   8.411   8.152 -0.1023  0.0672  0.0949
32535SOL    HW1 9584   2.113   8.419   8.057 -1.7392 -1.2282 -0.2245
32535SOL    HW2 9585   2.025   8.464   8.172 -0.4945 -0.6476  0.5127
32536SOL     OW 9586   1.230   8.777  13.827  0.1721  0.6998  0.1918
32536SOL    HW1 9587   1.213   8.766  13.920 -1.1626  2.2033  0.1573
32536SOL    HW2 9588   1.309   8.830  13.823  0.1854  0.7007  0.4613
32537SOL     OW 9589  13.961   1.737   3.037 -0.0620 -0.4327  0.0837
32537SOL    HW1 9590  13.898   1.805   3.061  0.5011  0.8699 -1.8856
32537SOL    HW2 9591  13.913   1.655   3.044 -1.3418  0.3369  0.6126
32538SOL     OW 9592   7.191   0.566   2.458  0.3994  0.1648  0.0188
32538SOL    HW1 9593   7.258   0.622   2.498 -0.3875  1.3538 -0.2625
32538SOL    HW2 9594   7.180   0.495   2.520  1.0840  0.5775  0.6394
32539SOL     OW 9595   0.335  14.037   4.351  0.0829 -0.1690  0.1391
32539SOL    HW1 9596   0.428  14.054   4.335  0.1596 -0.3313  0.4086
32539SOL    HW2 9597   0.295  14.043   4.264  0.5097 -1.1197 -0.1429
32540SOL     OW 9598   5.026   6.666  12.203  0.4471 -0.3395  0.4408
32540SOL    HW1 9599   5.030   6.727  12.277 -0.9160  0.5984 -0.2336
32540SOL    HW2 9600   5.106   6.613  12.212  0.5356  0.0458  2.3152
32541SOL     OW 9601   3.125   8.595   8.772  0.5525 -0.4514  0.1575
32541SOL    HW1 9602   3.061   8.665   8.783  0.3201 -0.4784 -0.9828
32541SOL    HW2 9603   3.180   8.623   8.699  1.1994 -0.9172  0.4483
32542SOL     OW 9604   7.433   8.563  10.573 -0.0866  0.6323 -0.0173
32542SOL    HW1 9605   7.522   8.579  10.605 -0.3009  2.4671 -0.2502
32542SOL    HW2 9606   7.445   8.509  10.495  0.7751  0.4124  0.2540
32543SOL     OW 9607   4.401  11.406   1.858 -0.0047  0.3173 -0.0793
32543SOL    HW1 9608   4.456  11.357   1.796  1.3367  1.0570  0.4906
32543SOL    HW2 9609   4.338  11.452   1.803 -0.7602 -1.3640 -0.6824
32544SOL     OW 9610   4.899   1.227  13.999  0.4004 -0.0307 -0.8754
32544SOL    HW1 9611   4.926   1.275  13.921  0.7115  1.6010  0.1973
32544SOL    HW2 9612   4.826   1.278  14.035 -0.2416 -1.1762 -0.4924
32545SOL     OW 9613   9.021   5.772  13.676  0.1217  0.0155  0.1252
32545SOL    HW1 9614   8.955   5.703  13.674  1.3415 -1.3046  2.1463
32545SOL    HW2 9615   8.973   5.852  13.656 -1.1887 -1.4194 -3.2467
32546SOL     OW 9616  13.008   4.631  10.219  0.1143 -0.5966  0.4975
32546SOL    HW1 9617  13.060   4.660  10.144  0.2334 -0.1687  0.7459
32546SOL    HW2 9618  13.004   4.707  10.276  0.2502 -1.0040  1.0536
32547SOL     OW 9619   4.112   5.722   9.193  0.2337 -0.2665  0.1878
32547SOL    HW1 9620   4.040   5.688   9.247  0.7968  0.2398  1.2849
32547SOL    HW2 9621   4.168   5.769   9.254  0.6387  0.7656 -0.9274
32548SOL     OW 9622   2.058   8.350   0.040  0.2596 -0.7473  0.2283
32548SOL    HW1 9623   2.122   8.375   0.106  0.3643 -0.1470 -0.0957
32548SOL    HW2 9624   2.074   8.257   0.025  1.8386 -0.3587 -0.6853
32549SOL     OW 9625   6.221   0.614  13.429 -0.4898 -0.5727 -0.0273
32549SOL    HW1 9626   6.159   0.614  13.502  1.0144  1.2109  1.3460
32549SOL    HW2 9627   6.224   0.705  13.400  0.8320 -0.7758 -0.6141
32550SOL     OW 9628   2.777  10.789   2.277  0.2524 -0.0754 -0.4050
32550SOL    HW1 9629   2.828  10.778   2.197  1.6239  0.1709  0.4069
32550SOL    HW2 9630   2.709  10.852   2.253  0.0949 -0.6738 -1.6061
32551SOL     OW 9631  10.779   6.092  10.499  0.2321  0.1969  0.7258
32551SOL    HW1 9632  10.785   6.081  10.594  1.1350 -1.3469  0.5163
32551SOL    HW2 9633  10.843   6.031  10.463 -0.9455 -0.1324 -0.9322
32552SOL     OW 9634   6.688  13.007   8.468  0.2143 -0.2373  0.4359
32552SOL    HW1 9635   6.630  12.931   8.471 -1.7158  1.1716  2.2786
32552SOL    HW2 9636   6.630  13.082   8.487  2.3985  1.4430  0.8863
32553SOL     OW 9637  10.752   1.262  11.282 -0.3695  0.0224  0.7127
32553SOL    HW1 9638  10.751   1.192  11.217 -1.4465 -0.4280  1.1826
32553SOL    HW2 9639  10.835   1.306  11.269 -0.0498 -0.8095 -0.1711
32554SOL     OW 9640  11.452   8.880  12.032 -0.1407 -0.1098 -0.7121
32554SOL    HW1 9641  11.358   8.872  12.019 -0.0591 -1.5507 -0.5399
32554SOL    HW2 9642  11.489   8.887  11.944 -0.4030  0.4842 -0.7774
32555SOL     OW 9643   3.886  12.776  11.221 -0.0268 -0.1650 -0.7185
32555SOL    HW1 9644   3.843  12.691  11.234  0.5325 -0.3965 -0.3472
32555SOL    HW2 9645   3.979  12.755  11.217  0.0211  0.2685 -2.1514
32556SOL     OW 9646   4.142   3.880   0.710 -0.3594  0.4834 -0.1573
32556SOL    HW1 9647   4.077   3.854   0.776  0.3618 -0.3351  0.2520
32556SOL    HW2 9648   4.184   3.957   0.748 -0.1478  0.1891  0.2146
32557SOL     OW 9649   7.719  12.758  11.619  0.1507  0.1518  0.2009
32557SOL    HW1 9650   7.697  12.729  11.707 -0.9371  1.0408  0.2466
32557SOL    HW2 9651   7.814  12.765  11.619  0.1625  0.1575  1.3112
32558SOL     OW 9652   6.478  11.592   5.637 -0.3245 -0.4333  0.7945
32558SOL    HW1 9653   6.531  11.658   5.682  1.0005 -0.4076 -0.7217
32558SOL    HW2 9654   6.388  11.622   5.649  0.0702  0.2309  2.3251
32559SOL     OW 9655   4.710   8.275   2.206 -0.4202  0.0854  0.4303
32559SOL    HW1 9656   4.786   8.267   2.263 -0.7587 -2.2121  0.6349
32559SOL    HW2 9657   4.642   8.315   2.261 -0.1092 -0.1532  0.9838
32560SOL     OW 9658   6.438   6.042   6.630  0.1504  0.5612  0.1492
32560SOL    HW1 9659   6.511   6.035   6.569  0.5493 -0.4578  0.7209
32560SOL    HW2 9660   6.463   5.988   6.704 -0.3728  1.6909  1.1851
32561SOL     OW 9661  10.317   0.165  11.773 -0.1220 -0.6908 -0.3637
32561SOL    HW1 9662  10.400   0.135  11.809 -0.5534 -2.8067 -1.0015
32561SOL    HW2 9663  10.340   0.210  11.692  0.4968  0.0451  0.2110
32562SOL     OW 9664   1.670   4.805  10.409 -0.4066 -0.2035  0.7418
32562SOL    HW1 9665   1.638   4.841  10.326 -1.7153  2.2206  2.1947
32562SOL    HW2 9666   1.743   4.861  10.433  1.1978 -2.0512  0.3859
32563SOL     OW 9667   6.381   4.742   8.544 -0.5704 -0.1746 -0.0396
32563SOL    HW1 9668   6.367   4.825   8.498  1.2326 -0.6715 -1.6404
32563SOL    HW2 9669   6.397   4.766   8.635 -0.0487  1.2261 -0.4907
32564SOL     OW 9670   3.523   4.362   1.416 -0.1319  0.1279  0.4705
32564SOL    HW1 9671   3.583   4.288   1.418  1.0334  1.0579  1.3066
32564SOL    HW2 9672   3.518   4.387   1.324 -0.5113 -0.9475  0.1852
32565SOL     OW 9673   9.408   4.012   4.620 -0.6055 -0.3921 -0.6816
32565SOL    HW1 9674   9.324   4.045   4.652  0.3586  0.8873  0.6795
32565SOL    HW2 9675   9.423   4.061   4.539 -1.0659 -0.4851 -0.8283
32566SOL     OW 9676   0.836   2.502   5.208  0.2698 -0.1530  0.1551
32566SOL    HW1 9677   0.831   2.504   5.303 -0.5617 -1.5800  0.1736
32566SOL    HW2 9678   0.929   2.499   5.188  0.4327 -0.2594  0.9347
32567SOL     OW 9679   1.238  10.412   4.651  0.9421 -0.4007 -0.4683
32567SOL    HW1 9680   1.161  10.466   4.666  1.2001 -0.5176  1.6908
32567SOL    HW2 9681   1.277  10.401   4.738  2.8709 -1.1242 -1.3507
32568SOL     OW 9682   5.375   3.188   8.633 -0.5239  0.1428  0.1093
32568SOL    HW1 9683   5.430   3.265   8.622 -0.4445  0.2035  0.9133
32568SOL    HW2 9684   5.397   3.132   8.558  0.2378  0.4060  0.1316
32569SOL     OW 9685   9.629   6.805  13.103 -0.0933 -0.5611  0.4153
32569SOL    HW1 9686   9.613   6.863  13.177 -0.8685  0.5263 -0.5783
32569SOL    HW2 9687   9.552   6.814  13.048  1.6486  0.9367 -2.0033
32570SOL     OW 9688  11.615  11.066   2.137 -0.0957  0.6818 -0.2475
32570SOL    HW1 9689  11.680  11.019   2.086 -1.2802 -2.7951  1.1655
32570SOL    HW2 9690  11.662  11.093   2.216  0.1306  0.0609 -0.1673
32571SOL     OW 9691   1.573   5.476   5.665 -0.0369 -0.1314  0.0619
32571SOL    HW1 9692   1.555   5.497   5.757  1.7037  0.4504  0.3043
32571SOL    HW2 9693   1.651   5.527   5.643 -0.8543  0.3304 -1.9917
32572SOL     OW 9694   7.505   8.341   4.786 -0.3035 -0.1322 -0.5640
32572SOL    HW1 9695   7.551   8.291   4.854  0.4732 -0.2253 -1.1438
32572SOL    HW2 9696   7.552   8.424   4.780 -1.6012  0.7133  0.4065
32573SOL     OW 9697   7.536  11.788  12.376  0.3082  0.6257 -0.5418
32573SOL    HW1 9698   7.470  11.802  12.444 -1.0444 -0.7743 -1.4951
32573SOL    HW2 9699   7.600  11.858  12.389  0.5452 -0.0259  2.6540
32574SOL     OW 9700   2.565   1.172   4.534  0.1562 -0.3475 -0.2248
32574SOL    HW1 9701   2.625   1.237   4.571 -0.3485  0.3964 -0.6697
32574SOL    HW2 9702   2.481   1.219   4.527 -0.2471 -1.0854 -0.4524
32575SOL     OW 9703   7.483   6.495  10.121 -0.0880  0.8513  1.1496
32575SOL    HW1 9704   7.559   6.541  10.156 -0.0839 -0.0147  2.3114
32575SOL    HW2 9705   7.437   6.461  10.197 -1.0464  0.4196  0.4072
32576SOL     OW 9706  11.262  13.895   5.413 -0.4737 -0.2711 -0.4749
32576SOL    HW1 9707  11.201  13.956   5.455  2.0136  1.9594  0.1217
32576SOL    HW2 9708  11.256  13.816   5.466 -1.2841  0.6431  0.8672
32577SOL     OW 9709   6.360   7.870   5.925 -0.1010  0.4860 -0.4743
32577SOL    HW1 9710   6.336   7.874   6.017 -1.9340  0.8961 -0.9252
32577SOL    HW2 9711   6.352   7.778   5.901 -0.6440  0.5281 -0.4641
32578SOL     OW 9712   3.456   5.628   5.652  0.6499 -0.7124  0.1192
32578SOL    HW1 9713   3.410   5.593   5.728  0.1819 -0.9256 -0.2505
32578SOL    HW2 9714   3.513   5.556   5.623 -0.9088 -1.5270 -1.1281
32579SOL     OW 9715   8.613  10.976  13.055 -0.1956 -0.1542 -0.2920
32579SOL    HW1 9716   8.534  11.022  13.086  0.0955  0.4143 -0.3752
32579SOL    HW2 9717   8.592  10.883  13.065 -0.3437  0.0090  1.0228
32580SOL     OW 9718   9.512  12.544  10.891 -0.2325 -0.4256  0.0838
32580SOL    HW1 9719   9.555  12.460  10.904  1.8808  0.4906 -0.5735
32580SOL    HW2 9720   9.530  12.593  10.971 -0.6030 -0.2460  0.0605
32581SOL     OW 9721   3.206   9.881   6.550  0.2257 -0.3192  0.2086
32581SOL    HW1 9722   3.244   9.966   6.528 -2.2892  0.7178 -0.5520
32581SOL    HW2 9723   3.213   9.830   6.469 -1.1527  0.3714 -0.3823
32582SOL     OW 9724   9.044  12.497   3.338 -0.3317 -0.3214 -0.4039
32582SOL    HW1 9725   9.076  12.568   3.283  0.6429 -0.3991  0.0418
32582SOL    HW2 9726   9.095  12.421   3.311  0.0101 -0.4040  0.4536
32583SOL     OW 9727   3.288   6.265   3.433  0.1230 -0.1132  0.2339
32583SOL    HW1 9728   3.198   6.271   3.464  0.4238  0.7816  0.9911
32583SOL    HW2 9729   3.280   6.245   3.340 -0.8941  1.4494 -0.0470
32584SOL     OW 9730   4.912   7.263   6.378  0.4309 -0.5128  0.1312
32584SOL    HW1 9731   4.968   7.238   6.451  0.6402  1.5576  0.7538
32584SOL    HW2 9732   4.970   7.308   6.317 -0.1153 -0.4925 -0.3863
32585SOL     OW 9733   0.971   8.434  13.205 -0.2971  0.3633  0.3136
32585SOL    HW1 9734   0.914   8.361  13.181  0.7637 -0.4398  0.1708
32585SOL    HW2 9735   0.992   8.418  13.297 -0.9484  1.1108  0.6022
32586SOL     OW 9736   5.734  11.540   0.968 -0.1747 -0.2156  0.5215
32586SOL    HW1 9737   5.799  11.485   0.924  1.6135  1.7205  0.5882
32586SOL    HW2 9738   5.687  11.583   0.897  0.6308  0.5835  0.4537
32587SOL     OW 9739   6.527   7.864   8.943 -0.9955  0.6027  0.0909
32587SOL    HW1 9740   6.608   7.890   8.987 -1.5044  0.7507  0.9635
32587SOL    HW2 9741   6.495   7.789   8.992 -1.2475  0.3664 -0.4201
32588SOL     OW 9742   9.087   7.373   7.129  0.5729  0.0308 -0.1646
32588SOL    HW1 9743   9.019   7.395   7.064 -0.4083 -0.2249  0.7435
32588SOL    HW2 9744   9.169   7.373   7.079 -0.4049 -2.7041 -2.0287
32589SOL     OW 9745   3.262   3.648   3.724 -0.3769 -0.4257 -0.4309
32589SOL    HW1 9746   3.202   3.587   3.681 -1.8920  1.6041 -1.3846
32589SOL    HW2 9747   3.311   3.689   3.653  1.5907 -1.4126  0.2887
32590SOL     OW 9748  11.725  11.498  12.754  0.2049 -0.1283  0.1614
32590SOL    HW1 9749  11.776  11.472  12.831 -0.4696  0.0335  0.6777
32590SOL    HW2 9750  11.782  11.481  12.680  1.2182  0.5779  0.7594
32591SOL     OW 9751   9.442   2.521  13.564 -0.4184 -0.1162  0.5057
32591SOL    HW1 9752   9.389   2.521  13.484 -0.9619  2.0269  0.7935
32591SOL    HW2 9753   9.516   2.579  13.544  0.7456 -1.4412  0.8065
32592SOL     OW 9754   0.716  13.936   1.017  0.2802  0.2080 -0.4462
32592SOL    HW1 9755   0.735  13.853   0.973 -0.0664 -0.7231  1.0906
32592SOL    HW2 9756   0.802  13.973   1.038  0.5555 -1.6670  2.2311
32593SOL     OW 9757  13.330  10.530   2.546  0.3914 -0.6514 -0.2686
32593SOL    HW1 9758  13.264  10.556   2.610  2.3818  2.6311  0.6917
32593SOL    HW2 9759  13.390  10.473   2.594  0.9104  0.3760  0.3349
32594SOL     OW 9760   3.177   4.389  13.412  0.0663 -0.3303 -0.0415
32594SOL    HW1 9761   3.157   4.459  13.475 -0.3791 -2.3088  2.1529
32594SOL    HW2 9762   3.106   4.326  13.424  1.3569 -1.9658 -0.6828
32595SOL     OW 9763   6.265  12.948  13.589  0.4424  0.1291  0.0639
32595SOL    HW1 9764   6.259  12.865  13.541  0.8777 -0.0035  0.2377
32595SOL    HW2 9765   6.229  13.013  13.528 -0.0511 -0.2102 -0.0110
32596SOL     OW 9766   4.353  12.143   6.889  0.1010 -0.8888  0.6671
32596SOL    HW1 9767   4.393  12.229   6.882 -0.1048 -0.8428 -0.0896
32596SOL    HW2 9768   4.335  12.132   6.982  0.4178 -0.2537  0.8113
32597SOL     OW 9769   8.741   0.728   6.491  0.2457  0.3033  0.0219
32597SOL    HW1 9770   8.793   0.806   6.511  1.7550 -0.4911 -0.5800
32597SOL    HW2 9771   8.766   0.665   6.558  1.5295 -0.6991 -1.3100
32598SOL     OW 9772  11.023   4.772   2.121  0.2004  0.6838  0.1609
32598SOL    HW1 9773  10.929   4.784   2.106  0.2181  1.2023  0.4330
32598SOL    HW2 9774  11.061   4.767   2.033 -0.3578 -2.1008 -0.0180
32599SOL     OW 9775   5.728  10.954  11.644  0.1620  0.2018  0.1560
32599SOL    HW1 9776   5.741  10.916  11.557 -1.2774  2.6832 -1.2777
32599SOL    HW2 9777   5.697  10.881  11.698 -1.1523 -0.9917 -2.0480
32600SOL     OW 9778   6.357  12.039   3.693 -0.2972 -0.1449 -0.6218
32600SOL    HW1 9779   6.349  12.109   3.628 -4.4735  0.2939  0.1082
32600SOL    HW2 9780   6.361  11.959   3.641  2.4316  0.3829 -1.4073
32601SOL     OW 9781   6.654   3.140   6.274 -0.7424  0.0323 -0.0951
32601SOL    HW1 9782   6.664   3.046   6.290 -0.8425  0.0301 -0.0482
32601SOL    HW2 9783   6.743   3.170   6.255 -0.4279  0.2484  1.5476
32602SOL     OW 9784   7.019  13.906   2.583  0.4575 -0.0420 -0.2448
32602SOL    HW1 9785   6.924  13.913   2.594  0.7089  2.8628  0.8210
32602SOL    HW2 9786   7.036  13.938   2.495  0.5303  0.4290 -0.0606
32603SOL     OW 9787   0.089   1.207  13.681  0.0391  0.3273 -0.0430
32603SOL    HW1 9788   0.008   1.195  13.731  0.6897  0.6979  1.1502
32603SOL    HW2 9789   0.074   1.159  13.600 -1.3302  0.2943  0.1986
32604SOL     OW 9790   6.775   1.145   8.332 -0.4527 -0.3560  0.0715
32604SOL    HW1 9791   6.802   1.062   8.372 -1.5014 -0.1930  1.1486
32604SOL    HW2 9792   6.704   1.120   8.273  0.4559 -0.4570 -1.0250
32605SOL     OW 9793   9.652   1.040   1.581 -0.8256 -0.8672  0.4248
32605SOL    HW1 9794   9.599   1.059   1.658 -1.6951  0.8591 -0.5412
32605SOL    HW2 9795   9.603   1.077   1.508  1.8097  1.1800 -0.4916
32606SOL     OW 9796   6.510  12.844  13.233 -0.3208 -0.1670 -0.2062
32606SOL    HW1 9797   6.530  12.937  13.219 -2.6369  0.1463 -2.0742
32606SOL    HW2 9798   6.573  12.797  13.177  0.9799  0.2114  0.8836
32607SOL     OW 9799   2.872   6.277  10.457  0.0662  0.2608  0.1265
32607SOL    HW1 9800   2.865   6.182  10.444 -1.3711  0.4679 -0.9064
32607SOL    HW2 9801   2.959   6.290  10.494  1.0906 -1.3044 -1.5451
32608SOL     OW 9802   5.998   0.821   0.826 -0.2180 -0.6510  0.3639
32608SOL    HW1 9803   6.025   0.912   0.840  1.9730 -1.0805 -0.6889
32608SOL    HW2 9804   6.039   0.772   0.897  0.2244 -1.0769 -0.1774
32609SOL     OW 9805  13.703   9.689   5.081 -0.2176  0.2397 -0.2646
32609SOL    HW1 9806  13.710   9.625   5.151  1.5149  0.2956 -0.3335
32609SOL    HW2 9807  13.619   9.733   5.096 -0.2413 -0.2849  1.2983
32610SOL     OW 9808   1.070  11.502  10.553 -0.1535  0.6176 -0.3949
32610SOL    HW1 9809   1.163  11.506  10.574 -0.1991  1.3158 -0.2888
32610SOL    HW2 9810   1.059  11.562  10.479 -0.3858 -0.0734 -0.9329
32611SOL     OW 9811   5.200   8.725   8.532 -0.0090 -0.2386 -0.4989
32611SOL    HW1 9812   5.157   8.648   8.570 -0.1651 -0.7842 -1.7593
32611SOL    HW2 9813   5.131   8.791   8.529 -0.5542 -0.8327 -1.6896
32612SOL     OW 9814   5.094   6.826  12.758  0.3503 -0.0092 -0.0083
32612SOL    HW1 9815   5.071   6.743  12.801  2.5427 -1.2480 -1.0546
32612SOL    HW2 9816   5.030   6.834  12.687 -0.6279 -0.1417  0.8253
32613SOL     OW 9817   5.366   9.016   3.684 -0.4909  0.2520 -0.2181
32613SOL    HW1 9818   5.446   8.964   3.679 -0.1087  0.8631 -0.6041
32613SOL    HW2 9819   5.295   8.952   3.679 -0.0321 -0.2280 -0.7048
32614SOL     OW 9820   5.316  13.123   1.890  0.1758 -0.2212 -1.0640
32614SOL    HW1 9821   5.322  13.097   1.798  0.4396  1.1038 -1.4334
32614SOL    HW2 9822   5.279  13.211   1.888 -0.5408 -0.4664  0.1526
32615SOL     OW 9823   3.247   4.416  12.203 -0.6117 -0.4026  0.1373
32615SOL    HW1 9824   3.206   4.497  12.234  0.8759  0.9125 -1.1661
32615SOL    HW2 9825   3.173   4.355  12.191 -1.5672 -0.0021  3.0869
32616SOL     OW 9826   4.836   5.738  12.659  0.4007 -1.1574 -0.4014
32616SOL    HW1 9827   4.930   5.753  12.669  0.6315 -1.8614 -1.3792
32616SOL    HW2 9828   4.807   5.810  12.603  0.1827 -0.4444  0.6128
32617SOL     OW 9829   5.562  12.901   7.864 -0.5379  0.0531  0.2231
32617SOL    HW1 9830   5.544  12.994   7.848 -0.6926 -0.1998 -1.2825
32617SOL    HW2 9831   5.478  12.865   7.893 -0.5518  0.3265  0.5259
32618SOL     OW 9832   7.837   3.785   2.863 -0.1177 -0.0132  0.2073
32618SOL    HW1 9833   7.914   3.736   2.836 -0.1052 -0.5414  1.1688
32618SOL    HW2 9834   7.860   3.822   2.948 -0.1177  1.7028 -0.5003
32619SOL     OW 9835  11.268  12.188  12.857 -0.5455  0.0899  0.1851
32619SOL    HW1 9836  11.278  12.144  12.772 -1.7727  0.8559 -0.3806
32619SOL    HW2 9837  11.189  12.148  12.895 -1.6591  1.7233 -0.3198
32620SOL     OW 9838   1.746   8.682   7.672 -0.3199 -0.4867 -0.8326
32620SOL    HW1 9839   1.733   8.648   7.761 -0.0722 -0.4197 -0.7711
32620SOL    HW2 9840   1.663   8.663   7.627 -0.5745 -0.2162 -0.4897
32621SOL     OW 9841   8.306  11.147   5.333  0.4725 -0.1103 -0.1476
32621SOL    HW1 9842   8.289  11.087   5.405  0.2477 -0.1009 -0.1941
32621SOL    HW2 9843   8.401  11.144   5.322  0.7660  1.4651  1.5120
32622SOL     OW 9844   1.169   8.911   0.541  1.2567 -0.4125 -0.5671
32622SOL    HW1 9845   1.255   8.953   0.546  0.8359  0.6844 -1.8393
32622SOL    HW2 9846   1.107   8.984   0.535  0.1463 -1.1603  1.1125
32623SOL     OW 9847   0.321  13.526   1.234 -0.2319  0.5376  0.2400
32623SOL    HW1 9848   0.275  13.448   1.202  0.7547  0.0675 -0.0854
32623SOL    HW2 9849   0.315  13.588   1.162 -3.4793  1.9085  1.5036
32624SOL     OW 9850  13.236   2.323   7.327  0.2987  0.4943 -0.1771
32624SOL    HW1 9851  13.236   2.254   7.260  0.2408 -1.1697  1.4638
32624SOL    HW2 9852  13.327   2.330   7.355  0.0444 -0.1575  0.8632
32625SOL     OW 9853   5.891  12.042  11.202 -0.0136 -0.0635  0.0232
32625SOL    HW1 9854   5.801  12.038  11.234 -0.1243 -0.5107 -0.3295
32625SOL    HW2 9855   5.882  12.045  11.106  0.3485 -0.2358 -0.0192
32626SOL     OW 9856   6.829   5.248   3.172 -0.0989  0.5454 -0.4419
32626SOL    HW1 9857   6.793   5.169   3.214  0.6853  1.0207  1.1777
32626SOL    HW2 9858   6.924   5.239   3.181  0.1587  0.4386 -2.6142
32627SOL     OW 9859   3.126  10.984   1.534  0.0631 -0.3718  0.1592
32627SOL    HW1 9860   3.049  11.041   1.536  1.1581  1.1777  0.5654
32627SOL    HW2 9861   3.178  11.017   1.461  1.1884 -0.1692  1.0188
32628SOL     OW 9862   2.049  12.744  12.435  0.6537 -0.2238 -0.2805
32628SOL    HW1 9863   2.015  12.709  12.353 -0.8064 -1.7759  0.9175
32628SOL    HW2 9864   1.987  12.813  12.459  0.6117 -0.3257 -0.0912
32629SOL     OW 9865   1.281   6.748  13.769  0.3136 -0.2487  0.1054
32629SOL    HW1 9866   1.336   6.798  13.830 -3.2768  3.1656  0.9290
32629SOL    HW2 9867   1.240   6.681  13.824  0.4872 -0.0783  0.4473
32630SOL     OW 9868   0.268   4.599   1.887 -0.4803 -0.5332 -0.1993
32630SOL    HW1 9869   0.314   4.645   1.817  1.5287 -1.3468  0.5301
32630SOL    HW2 9870   0.287   4.651   1.965 -2.1885  0.0169 -0.1040
32631SOL     OW 9871   4.966   6.616   7.884 -0.3811 -0.2012 -0.0641
32631SOL    HW1 9872   5.003   6.678   7.821 -2.1272 -1.4844 -2.5141
32631SOL    HW2 9873   4.889   6.660   7.919  0.6495  0.5572  1.4013
32632SOL     OW 9874   7.327   0.263   2.213 -0.2392  0.1676 -0.0055
32632SOL    HW1 9875   7.288   0.272   2.299  0.1820  1.0325  0.1025
32632SOL    HW2 9876   7.414   0.227   2.229 -0.0384  0.6288 -0.0329
32633SOL     OW 9877   1.980   0.785   6.380  0.4388  0.0382  0.2021
32633SOL    HW1 9878   1.992   0.880   6.386  0.3700  0.0147  0.7420
32633SOL    HW2 9879   1.888   0.771   6.403  0.1237 -0.0587 -1.0247
32634SOL     OW 9880   9.949   0.813  11.422 -0.5288  0.1957 -0.1202
32634SOL    HW1 9881   9.940   0.817  11.517  0.1245 -0.1960 -0.0324
32634SOL    HW2 9882  10.034   0.770  11.408 -0.4796  0.5255 -0.8790
32635SOL     OW 9883   4.043   5.092   1.550  0.3932  0.9970 -0.1455
32635SOL    HW1 9884   3.963   5.046   1.526  0.9153  0.1354 -0.2624
32635SOL    HW2 9885   4.022   5.136   1.632 -0.1191  0.5674 -0.0426
32636SOL     OW 9886   3.116   4.812   5.480 -0.3065 -0.0116  0.3566
32636SOL    HW1 9887   3.043   4.837   5.423  0.6976 -1.0909 -1.5300
32636SOL    HW2 9888   3.077   4.804   5.567 -2.1811  0.5540 -0.3669
32637SOL     OW 9889   4.697   5.642   3.643  0.4883  0.0368  0.4619
32637SOL    HW1 9890   4.668   5.726   3.609 -0.6201 -0.0325  1.2083
32637SOL    HW2 9891   4.636   5.622   3.714  1.4820 -0.8133  1.1022
32638SOL     OW 9892  10.580   1.075   7.480  0.1951  0.0765 -0.0460
32638SOL    HW1 9893  10.542   1.028   7.407 -0.1807  2.3566 -1.4284
32638SOL    HW2 9894  10.670   1.095   7.452  0.1863  0.5946  0.2728
32639SOL     OW 9895   5.138   5.386   7.712  0.3681  0.0037 -0.0966
32639SOL    HW1 9896   5.050   5.364   7.741  0.2582 -0.9292 -1.0682
32639SOL    HW2 9897   5.129   5.402   7.618  1.2518 -0.2538 -0.2356
32640SOL     OW 9898   8.907   0.395   7.901  0.3677 -0.0721  0.6762
32640SOL    HW1 9899   8.848   0.408   7.975 -0.2184  0.9671  0.0440
32640SOL    HW2 9900   8.906   0.478   7.853  2.2503 -0.0628  0.5598
32641SOL     OW 9901   5.279  13.397   1.929 -0.2606  0.6406  0.2696
32641SOL    HW1 9902   5.236  13.462   1.984  0.4311 -0.3667  2.1034
32641SOL    HW2 9903   5.372  13.409   1.946  0.1835  1.8638 -2.5770
32642SOL     OW 9904   9.097  10.088   1.390 -0.0349 -0.2424 -0.5437
32642SOL    HW1 9905   9.019  10.143   1.392  0.1775  0.0536 -0.1260
32642SOL    HW2 9906   9.129  10.088   1.481  2.4725  2.5831 -1.2590
32643SOL     OW 9907   0.084  10.085  13.660 -0.6295  0.3532 -0.2044
32643SOL    HW1 9908   0.119  10.156  13.714  0.4829 -0.7786  0.6059
32643SOL    HW2 9909   0.036  10.030  13.721  2.6140 -2.2558  0.2599
32644SOL     OW 9910   7.906   9.709   2.902 -0.5273 -0.1721  0.2965
32644SOL    HW1 9911   7.832   9.715   2.962 -0.6596  0.0256  0.1156
32644SOL    HW2 9912   7.967   9.776   2.932  0.8326 -2.0920  2.1316
32645SOL     OW 9913  13.320  12.126   7.153  0.0209  0.3275 -0.3923
32645SOL    HW1 9914  13.266  12.135   7.232 -1.8995 -3.6305 -1.0177
32645SOL    HW2 9915  13.398  12.079   7.181 -0.3779 -0.5408 -0.7089
32646SOL     OW 9916   8.665  10.491  11.537 -0.4442 -0.1817  0.1438
32646SOL    HW1 9917   8.746  10.444  11.560 -0.2251  0.2198  0.2093
32646SOL    HW2 9918   8.692  10.550  11.466 -0.3895  0.8368  0.9884
32647SOL     OW 9919   9.711   4.173   4.552 -0.6279 -0.0112  1.1461
32647SOL    HW1 9920   9.637   4.182   4.492  0.4642  0.7695 -0.1477
32647SOL    HW2 9921   9.743   4.263   4.565  0.7914 -0.4228  0.7417
32648SOL     OW 9922   2.555   8.779  10.712  0.0721 -0.1905 -0.0677
32648SOL    HW1 9923   2.511   8.698  10.736 -0.7825  0.5687  1.0601
32648SOL    HW2 9924   2.484   8.839  10.688  0.7337  0.0012 -1.6321
32649SOL     OW 9925   8.410   0.179  11.762  0.5063  0.0832 -0.0724
32649SOL    HW1 9926   8.482   0.158  11.702 -0.1113  1.0290 -1.2022
32649SOL    HW2 9927   8.382   0.267  11.736 -1.6328 -0.5925 -0.2829
32650SOL     OW 9928  13.491  13.494   0.146 -0.6724 -0.1902 -0.3705
32650SOL    HW1 9929  13.502  13.400   0.137 -0.6096 -0.8495  4.2822
32650SOL    HW2 9930  13.571  13.524   0.189 -1.2583  1.7483 -0.5200
32651SOL     OW 9931  12.578   5.306   8.176 -0.3372  0.6999  0.3962
32651SOL    HW1 9932  12.500   5.252   8.165 -0.1315  0.5647 -0.5939
32651SOL    HW2 9933  12.618   5.306   8.089  0.0978  1.7958  0.5850
32652SOL     OW 9934  12.152  13.734   5.984  0.5773  0.2332 -0.0556
32652SOL    HW1 9935  12.157  13.639   5.997  0.5951 -0.4324 -3.8826
32652SOL    HW2 9936  12.062  13.757   6.007  0.5497 -0.6907  0.8479
32653SOL     OW 9937   5.050   4.326   1.669 -0.0960 -0.2118  0.1223
32653SOL    HW1 9938   4.956   4.342   1.668  0.1818  1.5441 -0.9080
32653SOL    HW2 9939   5.070   4.308   1.761 -1.0780  1.8309  0.7980
32654SOL     OW 9940   2.714  11.457  10.445 -0.3169 -0.0566 -0.1398
32654SOL    HW1 9941   2.642  11.407  10.483 -0.0408 -0.5040 -0.2029
32654SOL    HW2 9942   2.731  11.416  10.361 -1.1482  1.1442 -0.9301
32655SOL     OW 9943   5.610   3.278   4.547 -0.4192  0.5606  0.1097
32655SOL    HW1 9944   5.517   3.257   4.550 -0.4442  0.6879  0.2182
32655SOL    HW2 9945   5.635   3.259   4.456 -0.0964 -1.3617  0.5726
32656SOL     OW 9946  12.332   1.478  12.071  0.6538  0.3855  0.1657
32656SOL    HW1 9947  12.329   1.502  12.164  1.4452  0.5369  0.1583
32656SOL    HW2 9948  12.353   1.559  12.026 -1.7779  0.7964 -0.3749
32657SOL     OW 9949   3.719   4.368  11.965  0.3152 -0.1116 -0.1254
32657SOL    HW1 9950   3.678   4.373  11.879 -0.4707  0.5741  0.2736
32657SOL    HW2 9951   3.668   4.428  12.020  0.4718 -0.9164  0.9470
32658SOL     OW 9952   5.808   9.349   9.887 -0.3001 -0.0689 -0.0071
32658SOL    HW1 9953   5.842   9.281   9.945 -0.8830 -0.2167  0.1733
32658SOL    HW2 9954   5.718   9.363   9.917 -0.4464  0.2109 -0.5550
32659SOL     OW 9955   8.479  13.526   1.257  0.3730  0.1822  0.0749
32659SOL    HW1 9956   8.552  13.579   1.290 -0.0564  0.9594 -0.1947
32659SOL    HW2 9957   8.403  13.559   1.305 -0.1797  0.9713 -1.2794
32660SOL     OW 9958   9.384   3.980   1.872  0.1789  0.6818 -0.2229
32660SOL    HW1 9959   9.460   4.023   1.832 -0.2431  2.0644  0.3921
32660SOL    HW2 9960   9.344   4.048   1.926  0.9234 -1.1717  2.8727
32661SOL     OW 9961  13.814   5.633  12.940  0.4794 -0.2173  0.0495
32661SOL    HW1 9962  13.870   5.588  12.876  0.3566  3.1529 -2.7498
32661SOL    HW2 9963  13.873   5.697  12.981 -0.5570  1.1581 -0.5492
32662SOL     OW 9964  12.651  10.972  12.954  0.0084  0.0580 -0.1936
32662SOL    HW1 9965  12.673  11.062  12.931 -0.8397  0.7206  1.3816
32662SOL    HW2 9966  12.676  10.920  12.878  2.0270  1.3986 -0.5218
32663SOL     OW 9967  11.564   3.395   1.225 -0.0101  0.1621 -0.2460
32663SOL    HW1 9968  11.635   3.350   1.181 -0.2336 -1.8647  1.3036
32663SOL    HW2 9969  11.486   3.372   1.176  0.0383 -0.0605 -0.2178
32664SOL     OW 9970  13.111   6.020   4.639  0.5776 -0.4018  0.2773
32664SOL    HW1 9971  13.016   6.013   4.645  0.5596  0.1287  0.6296
32664SOL    HW2 9972  13.127   6.110   4.611  1.0139 -0.2013  1.1528
32665SOL     OW 9973   7.546   3.735   9.818  0.2030  0.3762 -0.4840
32665SOL    HW1 9974   7.462   3.774   9.840  0.2196  0.1704 -0.0397
32665SOL    HW2 9975   7.584   3.709   9.902 -0.1185 -1.2119 -0.7948
32666SOL     OW 9976   3.240   0.411   6.789 -0.2045  0.1568 -0.0594
32666SOL    HW1 9977   3.233   0.495   6.743 -0.0968  0.7940  1.0509
32666SOL    HW2 9978   3.308   0.425   6.855 -0.3276 -0.7500  0.2759
32667SOL     OW 9979   2.347   3.035   1.102  0.3950 -0.3091 -0.4063
32667SOL    HW1 9980   2.421   3.088   1.132 -0.1930  0.9298 -1.0634
32667SOL    HW2 9981   2.320   3.076   1.019 -2.9418  1.2572  1.2517
32668SOL     OW 9982   7.598   8.109   3.868  0.6491  0.6206 -0.2538
32668SOL    HW1 9983   7.603   8.195   3.825  0.2401  0.0437 -1.4800
32668SOL    HW2 9984   7.510   8.107   3.907  1.0987  1.2320  0.8527
32669SOL     OW 9985   1.097  13.712   2.587  0.2408 -0.5475 -0.0055
32669SOL    HW1 9986   1.093  13.807   2.573  0.4655 -0.4336  0.6746
32669SOL    HW2 9987   1.009  13.689   2.617 -0.3073 -0.8258 -1.7193
32670SOL     OW 9988  13.482   7.695   6.071  0.5879  0.5415  0.5379
32670SOL    HW1 9989  13.388   7.703   6.055  0.6306 -2.8553 -3.0956
32670SOL    HW2 9990  13.519   7.778   6.040 -1.0909  1.4773  0.9216
32671SOL     OW 9991  13.379  13.828  12.376 -0.2411 -0.1749 -0.3653
32671SOL    HW1 9992  13.395  13.798  12.465  0.0649  1.5049  0.1938
32671SOL    HW2 9993  13.297  13.877  12.381 -1.1816 -1.5845 -1.4162
32672SOL     OW 9994   2.738  13.961   1.274  0.0507 -0.3602  0.0777
32672SOL    HW1 9995   2.791  13.882   1.281 -0.5581 -0.6946  1.2533
32672SOL    HW2 9996   2.746  13.988   1.183  4.1208  0.9329  0.6260
32673SOL     OW 9997   5.789   8.796   2.791 -0.1085  0.1567 -0.5483
32673SOL    HW1 9998   5.842   8.818   2.867 -0.0495  1.6279 -0.9842
32673SOL    HW2 9999   5.741   8.717   2.816  1.9155 -0.9474  0.0306
32674SOL     OW10000  12.321   7.753  12.893 -0.1574  0.0655  0.4417
32674SOL    HW110001  12.338   7.839  12.854 -1.3626 -0.4301 -1.2419
32674SOL    HW210002  12.405   7.707  12.886  0.2423  0.7577  0.5058
32675SOL     OW10003   1.407   8.885   6.497 -0.0689 -0.0769  0.0547
32675SOL    HW110004   1.340   8.847   6.439  1.8311 -2.4185 -0.7589
32675SOL    HW210005   1.411   8.825   6.571  0.1072  0.8825  0.8394
32676SOL     OW10006   3.917  11.880  10.601 -0.1077 -0.3311  0.0649
32676SOL    HW110007   3.983  11.813  10.583  3.6628  3.1161 -0.5092
32676SOL    HW210008   3.945  11.920  10.684 -2.3339  0.4477  0.5174
32677SOL     OW10009   3.067   3.885  12.872 -0.3133 -0.3023  0.2263
32677SOL    HW110010   3.125   3.851  12.803  0.5213 -0.1583  0.8463
32677SOL    HW210011   3.058   3.978  12.851  0.3774 -0.1438  0.6055
32678SOL     OW10012   0.856   3.062   8.447  0.3990  0.5041  0.2022
32678SOL    HW110013   0.852   3.089   8.355 -1.4631 -0.3864 -0.0281
32678SOL    HW210014   0.932   3.005   8.452 -0.2118 -0.4773 -1.1207
32679SOL     OW10015   3.774  10.666   5.824 -0.6388 -0.3465 -0.9315
32679SOL    HW110016   3.783  10.701   5.735 -0.5577  0.2110 -0.7069
32679SOL    HW210017   3.717  10.729   5.869  1.9050  1.1588  0.3634
32680SOL     OW10018  10.592  13.299   4.426 -0.3323 -0.5177  0.3859
32680SOL    HW110019  10.545  13.216   4.418 -0.1376 -0.4983 -1.4269
32680SOL    HW210020  10.680  13.275   4.455 -0.5143 -0.8532  0.6646
32681SOL     OW10021   9.729   5.912   1.726 -0.1797  0.4211  0.4360
32681SOL    HW110022   9.746   5.856   1.801 -1.2101 -1.1057 -0.4056
32681SOL    HW210023   9.815   5.927   1.686  0.0853 -0.8571  0.4988
32682SOL     OW10024   1.447   5.471   6.623 -0.1425 -0.0468 -0.4547
32682SOL    HW110025   1.469   5.548   6.675 -0.8930 -0.1404  0.0158
32682SOL    HW210026   1.379   5.426   6.673 -0.4212 -0.4899 -1.2012
32683SOL     OW10027   4.737   4.700   6.575 -0.4380  0.4207 -0.3543
32683SOL    HW110028   4.668   4.669   6.634 -0.7049  1.7312  0.0544
32683SOL    HW210029   4.808   4.727   6.634 -0.8810  2.1661 -0.5723
32684SOL     OW10030   9.415   2.373   8.586  0.3432 -0.2620  0.0817
32684SOL    HW110031   9.498   2.408   8.554 -0.3326  0.6015 -0.7617
32684SOL    HW210032   9.441   2.307   8.651  1.6908 -0.6118 -0.7768
32685SOL     OW10033  13.718   5.412  10.624 -0.9130  0.4485  0.1982
32685SOL    HW110034  13.760   5.456  10.698  0.6554 -0.2062 -0.2740
32685SOL    HW210035  13.771   5.333  10.609 -2.2728 -0.3736 -0.4783
32686SOL     OW10036   1.653  10.044  10.241 -0.2794 -0.0922  0.0419
32686SOL    HW110037   1.594  10.106  10.197  0.5596  1.3786  0.8768
32686SOL    HW210038   1.634  10.057  10.334  1.9415  1.1023  0.3973
32687SOL     OW10039   2.095   4.504   1.392 -0.5787 -0.6251 -0.5062
32687SOL    HW110040   2.002   4.524   1.404 -0.8503 -2.7486  1.6410
32687SOL    HW210041   2.097   4.412   1.368  1.0142 -1.1249  1.3039
32688SOL     OW10042   6.564  11.515   6.915  0.1173  0.6480 -0.0655
32688SOL    HW110043   6.644  11.533   6.965  0.8111  0.0835 -0.9348
32688SOL    HW210044   6.595  11.502   6.825 -0.5808 -2.3674  0.0284
32689SOL     OW10045  10.753   8.039  11.139  0.0908 -0.6025 -0.5411
32689SOL    HW110046  10.707   7.972  11.089 -1.3557  0.9401 -1.3785
32689SOL    HW210047  10.725   8.122  11.100 -0.1082  0.6326  1.9914
32690SOL     OW10048  11.646  11.480  13.148  0.2913 -0.7611 -0.4576
32690SOL    HW110049  11.686  11.559  13.185 -0.3938 -0.6504  0.0625
32690SOL    HW210050  11.561  11.473  13.192 -0.4702 -0.7386 -1.8443
32691SOL     OW10051   7.264   1.853   2.214  0.3423  0.2268  0.1663
32691SOL    HW110052   7.246   1.760   2.201  1.2543  0.3139 -2.4767
32691SOL    HW210053   7.178   1.893   2.227 -0.2665 -0.7723 -0.6401
32692SOL     OW10054   8.892   1.172  11.112  0.1809 -0.6824  0.0435
32692SOL    HW110055   8.892   1.268  11.122 -0.7876 -0.6623 -0.0324
32692SOL    HW210056   8.927   1.140  11.196 -0.3994 -0.2811  0.4518
32693SOL     OW10057   9.779   3.963   4.745  0.5683 -1.0558 -0.5836
32693SOL    HW110058   9.851   4.009   4.786 -0.0219 -0.6606  0.0235
32693SOL    HW210059   9.743   4.025   4.682  0.3850 -1.0367 -0.4605
32694SOL     OW10060   2.997  12.822   2.061  0.1382  0.5664  0.3900
32694SOL    HW110061   2.991  12.772   1.979 -0.2136  0.6223  0.3779
32694SOL    HW210062   3.079  12.794   2.101 -0.3437 -0.4946  0.6769
32695SOL     OW10063  13.183   8.025  14.040 -0.1659  0.2071 -0.6340
32695SOL    HW110064  13.275   8.051  14.042 -0.7796  2.5534 -0.1000
32695SOL    HW210065  13.142   8.084  13.976 -1.3858 -0.5239 -0.5721
32696SOL     OW10066   7.232   8.065   9.176 -0.3223  0.2590 -0.2198
32696SOL    HW110067   7.233   8.099   9.087 -2.3806 -0.4995 -0.5931
32696SOL    HW210068   7.322   8.037   9.193  0.5560  2.3157 -1.2670
32697SOL     OW10069   0.886  11.489  12.160  0.2659  0.0278  0.2469
32697SOL    HW110070   0.934  11.569  12.181  0.9535 -0.1280 -0.6595
32697SOL    HW210071   0.937  11.448  12.090  0.6033 -1.8153  1.4798
32698SOL     OW10072   6.814   0.069   3.995  0.3562  0.3073 -0.2327
32698SOL    HW110073   6.876   0.142   3.993  2.7359 -1.5742  0.7391
32698SOL    HW210074   6.848   0.006   3.931 -0.9840 -0.4816 -0.2155
32699SOL     OW10075  13.949   0.930   1.825  0.1441 -0.1348 -0.6851
32699SOL    HW110076  13.860   0.911   1.797 -0.3887  0.9244  0.2315
32699SOL    HW210077  14.004   0.880   1.765 -1.0809 -2.0032 -0.3426
32700SOL     OW10078  12.528  13.982   1.613  0.0027 -0.0377  0.0792
32700SOL    HW110079  12.590  13.938   1.671  0.5958  1.6587  0.7980
32700SOL    HW210080  12.567  13.974   1.526  0.2713 -0.6278  0.2478
32701SOL     OW10081   0.571  11.999   2.558  0.2175  0.3172 -0.0726
32701SOL    HW110082   0.484  12.018   2.523  0.8164  0.1682 -1.6957
32701SOL    HW210083   0.559  11.921   2.612 -0.5766  0.0022 -0.6851
32702SOL     OW10084  10.465  12.922   7.359  0.2249 -0.2250  0.1268
32702SOL    HW110085  10.392  12.915   7.420 -0.2849  0.7784 -0.3508
32702SOL    HW210086  10.475  13.016   7.343  0.8171 -0.4215 -0.7655
32703SOL     OW10087  11.484  11.619   9.330 -0.5897 -0.0005  0.4880
32703SOL    HW110088  11.514  11.698   9.284  1.0532  0.4307  2.1524
32703SOL    HW210089  11.558  11.559   9.324 -1.0680 -0.6424  0.9433
32704SOL     OW10090   8.499   3.939   5.339 -0.1184  0.1249 -0.0874
32704SOL    HW110091   8.440   4.006   5.307  0.6002  0.0315 -1.7085
32704SOL    HW210092   8.521   3.887   5.262 -0.3851 -1.7803  1.0509
32705SOL     OW10093   7.373  10.396   5.873 -0.6937 -0.0452 -0.3972
32705SOL    HW110094   7.284  10.383   5.904 -0.3897 -1.7061 -0.0974
32705SOL    HW210095   7.363  10.438   5.788 -1.7295  0.2238 -0.1608
32706SOL     OW10096   2.721   5.675   4.832 -0.1392  0.5503 -0.6980
32706SOL    HW110097   2.752   5.705   4.747 -0.0001  1.8508 -0.2177
32706SOL    HW210098   2.642   5.727   4.848  0.0804  0.6401  0.1478
32707SOL     OW10099  13.044   8.071   7.267  0.7949  0.0564 -0.7455
32707SOL    HW110100  13.063   7.989   7.223  1.6013  0.3122 -0.8959
32707SOL    HW210101  13.089   8.138   7.215  0.4035  0.5603 -0.4549
32708SOL     OW10102  13.514   8.573   2.476  0.1472  0.0927  0.6250
32708SOL    HW110103  13.520   8.662   2.511  1.7644 -0.3047  1.4404
32708SOL    HW210104  13.461   8.582   2.396  1.3983  2.0204 -0.0647
32709SOL     OW10105   1.689   6.714  13.524 -0.1944  0.2951 -0.1070
32709SOL    HW110106   1.721   6.732  13.435  0.0854  1.5164  0.2213
32709SOL    HW210107   1.606   6.668  13.511  0.3124 -0.4023 -0.9915
32710SOL     OW10108  13.636   3.095   1.471  0.1512  0.2684 -0.3168
32710SOL    HW110109  13.604   3.094   1.561 -0.9359 -1.0451 -0.6772
32710SOL    HW210110  13.629   3.004   1.443 -0.6898  0.8426 -2.1199
32711SOL     OW10111   6.486   6.060   7.034  0.2521 -0.7604 -0.1815
32711SOL    HW110112   6.418   6.029   7.093 -1.1613  0.0911 -1.2857
32711SOL    HW210113   6.565   6.067   7.088 -1.3269  1.5720  2.0654
32712SOL     OW10114   9.962  10.453  11.299  0.0582 -0.1274 -0.5974
32712SOL    HW110115  10.056  10.473  11.298  0.1740 -0.6133 -0.2150
32712SOL    HW210116   9.933  10.481  11.386 -0.0659 -0.3300 -0.5735
32713SOL     OW10117  11.307   2.628   1.455  0.1662  0.3466  0.8587
32713SOL    HW110118  11.322   2.677   1.537 -1.1714  1.4387  0.4872
32713SOL    HW210119  11.263   2.548   1.482  1.4280 -0.2036  1.3735
32714SOL     OW10120   5.059  10.782   1.545  0.0956  0.3071  0.7534
32714SOL    HW110121   5.043  10.694   1.579  0.5912  0.4911  1.4821
32714SOL    HW210122   5.152  10.783   1.523  0.8198  1.5070  3.4486
32715SOL     OW10123   0.281   3.650   1.052  0.4192  0.4375  0.1011
32715SOL    HW110124   0.245   3.646   1.141  0.4161  0.0590  0.0852
32715SOL    HW210125   0.366   3.607   1.059  0.3481  0.2634 -0.1155
32716SOL     OW10126   2.882   3.380  10.828  0.1136  0.0697 -0.0943
32716SOL    HW110127   2.815   3.363  10.894  0.9890  0.4714  0.9121
32716SOL    HW210128   2.945   3.309  10.839  0.7183  0.6286  0.1186
32717SOL     OW10129   4.917   3.006   4.207 -0.3991 -0.1251 -0.6165
32717SOL    HW110130   4.957   2.979   4.290  0.6020 -1.0884 -1.3863
32717SOL    HW210131   4.905   2.925   4.158 -1.7448  0.3340 -1.1061
32718SOL     OW10132   8.486  13.847  12.038 -0.3006  0.1533  0.0123
32718SOL    HW110133   8.445  13.908  12.099  0.3928  1.3245 -0.6594
32718SOL    HW210134   8.450  13.870  11.952  1.1214  0.6901 -0.4753
32719SOL     OW10135   0.589   8.875   3.099 -0.3339 -0.3752 -0.4025
32719SOL    HW110136   0.609   8.879   3.005  0.9604  1.4101 -0.1088
32719SOL    HW210137   0.674   8.863   3.141 -0.5014  1.6019  0.6376
32720SOL     OW10138   5.665   0.903  10.984  0.7710  0.8176  0.0916
32720SOL    HW110139   5.570   0.896  10.992  0.8252 -2.1238 -0.6106
32720SOL    HW210140   5.698   0.858  11.062  1.4896 -1.3844 -1.3939
32721SOL     OW10141   6.062   3.817   2.494 -0.0247 -0.1601  0.3104
32721SOL    HW110142   6.095   3.729   2.472  0.7613  0.0192  0.7383
32721SOL    HW210143   6.141   3.871   2.500 -0.6189  1.2858 -2.8006
32722SOL     OW10144  10.231   4.230   7.304 -0.0541 -0.1650  0.5836
32722SOL    HW110145  10.255   4.198   7.217  1.7361  0.6545  0.7251
32722SOL    HW210146  10.191   4.155   7.348 -0.9900 -0.5944 -0.9147
32723SOL     OW10147   0.393   3.060   1.805  0.2247 -0.0099  0.4188
32723SOL    HW110148   0.352   3.115   1.872  1.8215 -0.7387  2.0911
32723SOL    HW210149   0.443   3.121   1.751  0.9581  0.3568  1.4807
32724SOL     OW10150   3.509  13.452   2.720 -0.1737  0.3991  0.2496
32724SOL    HW110151   3.484  13.404   2.641  1.1974 -1.5330  0.9056
32724SOL    HW210152   3.516  13.543   2.692 -2.7698  0.2616 -1.0975
32725SOL     OW10153  12.674   2.244  10.081  0.6306  0.2138  0.2218
32725SOL    HW110154  12.601   2.280  10.131  1.1693 -1.4501  2.3448
32725SOL    HW210155  12.748   2.301  10.102  0.6396  0.0801  0.5552
32726SOL     OW10156  13.545  11.498   8.958  0.3797  1.0726 -0.6682
32726SOL    HW110157  13.562  11.591   8.967  0.4444  1.0759 -0.8087
32726SOL    HW210158  13.450  11.492   8.942  0.0097  0.9577  1.4025
32727SOL     OW10159  11.478   2.213  11.246 -0.0557 -0.5398 -0.1865
32727SOL    HW110160  11.528   2.281  11.201 -0.6016 -0.8613 -1.3141
32727SOL    HW210161  11.541   2.144  11.264  0.7785  0.6856  2.0132
32728SOL     OW10162   9.390  12.297   1.679  0.7051 -0.1375 -0.2403
32728SOL    HW110163   9.303  12.336   1.682  0.7898  0.0375 -0.0237
32728SOL    HW210164   9.445  12.363   1.637  0.0510 -1.5759 -3.7206
32729SOL     OW10165   5.182   8.366  13.174  0.2415 -0.0002  0.0415
32729SOL    HW110166   5.109   8.336  13.228 -1.2470  1.8246 -0.8509
32729SOL    HW210167   5.177   8.312  13.095 -0.1306  0.0817  0.0064
32730SOL     OW10168   5.102   9.889   1.465  0.1333  0.5173  0.5484
32730SOL    HW110169   5.019   9.936   1.465  0.4230  1.0565 -0.4943
32730SOL    HW210170   5.121   9.874   1.373  0.7797 -0.3571  0.8095
32731SOL     OW10171   4.692   5.161  10.484 -0.6020 -0.3493  0.5982
32731SOL    HW110172   4.679   5.236  10.541  1.1528  1.3488 -1.1061
32731SOL    HW210173   4.604   5.139  10.452 -1.4038 -0.4135  2.7095
32732SOL     OW10174   5.529  12.529   1.742  0.0961  0.1012  0.6057
32732SOL    HW110175   5.618  12.561   1.732  0.8490 -2.1248 -0.5637
32732SOL    HW210176   5.537  12.453   1.799 -0.5534 -1.7182 -1.5692
32733SOL     OW10177  13.776   0.708   8.094 -0.0791 -0.0556  0.3734
32733SOL    HW110178  13.852   0.649   8.087 -0.7304 -0.9335  0.4797
32733SOL    HW210179  13.803   0.788   8.049  0.7150 -0.5510 -0.0578
32734SOL     OW10180   2.351  10.071   9.239 -0.4443 -0.0313 -0.3522
32734SOL    HW110181   2.437  10.077   9.280 -1.3494 -0.2745  1.7245
32734SOL    HW210182   2.330  10.161   9.214  0.0800  0.1488 -0.1471
32735SOL     OW10183   5.708   2.609   6.693 -0.6820 -0.4809 -0.5526
32735SOL    HW110184   5.695   2.675   6.762 -1.2553 -0.6870 -0.4551
32735SOL    HW210185   5.717   2.526   6.741  0.3748 -0.4382 -0.6562
32736SOL     OW10186   1.892   3.884  12.654 -0.0430 -0.4588 -0.4660
32736SOL    HW110187   1.919   3.894  12.745 -0.1937 -1.4597 -0.3007
32736SOL    HW210188   1.968   3.911  12.603 -0.2722  1.0264 -0.0716
32737SOL     OW10189  11.783   1.485   5.068 -0.3320  0.0757  0.0150
32737SOL    HW110190  11.832   1.549   5.016 -1.3569  0.4262 -0.5494
32737SOL    HW210191  11.785   1.520   5.157  1.0560 -0.2964  0.1430
32738SOL     OW10192   7.021  10.749   0.245 -0.1204 -0.1310  0.1847
32738SOL    HW110193   7.061  10.826   0.285 -1.2819  0.3288  0.5173
32738SOL    HW210194   6.982  10.701   0.318  0.1029 -0.7383 -0.0863
32739SOL     OW10195  13.257   4.383   7.688 -0.2619  0.1496  0.8891
32739SOL    HW110196  13.239   4.465   7.642  1.0666 -0.2694 -0.4302
32739SOL    HW210197  13.342   4.396   7.730 -0.8522  0.0517  2.1859
32740SOL     OW10198   0.247   6.304   2.711  0.3504  0.1733 -0.3798
32740SOL    HW110199   0.225   6.353   2.790  0.6224 -1.0869  0.5062
32740SOL    HW210200   0.255   6.213   2.741  1.0238 -0.2366 -1.7508
32741SOL     OW10201   1.193   7.625   2.258  0.5858 -0.0278  0.0413
32741SOL    HW110202   1.139   7.638   2.180 -0.2232 -0.4715  0.5135
32741SOL    HW210203   1.283   7.635   2.227  0.2370  3.8087 -0.1955
32742SOL     OW10204   0.650   5.654  11.579  0.1754 -0.1418  0.1783
32742SOL    HW110205   0.676   5.582  11.521 -0.0885  0.9211 -1.2981
32742SOL    HW210206   0.705   5.728  11.552 -0.8816  0.7364  0.3769
32743SOL     OW10207  13.412   2.807   1.950  0.4839  0.3052 -0.1048
32743SOL    HW110208  13.467   2.752   2.006  1.1699  0.6288 -0.4533
32743SOL    HW210209  13.385   2.879   2.007 -0.1214 -0.1889  0.2504
32744SOL     OW10210  10.452   4.136   0.875  0.0501  0.4115 -0.2794
32744SOL    HW110211  10.517   4.093   0.930 -2.2189 -1.1637  1.4126
32744SOL    HW210212  10.461   4.095   0.789  2.7871  1.9678 -0.8406
32745SOL     OW10213   2.336  10.234   0.551  0.1807 -0.4019  0.1626
32745SOL    HW110214   2.285  10.279   0.483 -2.1791 -1.2307  1.2800
32745SOL    HW210215   2.420  10.216   0.509 -0.7468  0.1583 -2.1299
32746SOL     OW10216   2.374  10.828   8.441 -0.1595 -0.0329  0.7326
32746SOL    HW110217   2.419  10.746   8.424 -2.4821 -0.8996 -2.1807
32746SOL    HW210218   2.308  10.807   8.507  0.0418 -0.1637  0.8932
32747SOL     OW10219   2.949   6.148  12.776 -0.5961  0.4826  0.1026
32747SOL    HW110220   2.991   6.220  12.823 -1.9869  0.9985  0.6011
32747SOL    HW210221   3.022   6.098  12.739  0.4329  1.5500  0.6159
32748SOL     OW10222  10.864   8.454   0.258  0.4773  0.6890  0.4155
32748SOL    HW110223  10.900   8.411   0.181 -1.0177  0.3201 -0.1123
32748SOL    HW210224  10.819   8.531   0.224  0.2226  0.7959  0.9754
32749SOL     OW10225   1.896   3.417   3.313 -0.4659  0.2331  0.4771
32749SOL    HW110226   1.894   3.348   3.246 -1.7228  0.1430  0.5787
32749SOL    HW210227   1.805   3.447   3.319 -0.2251  0.8064  1.5621
32750SOL     OW10228   7.984   4.888  12.466  0.4221  0.4378  0.4880
32750SOL    HW110229   7.937   4.866  12.386  0.2834 -0.6839  0.8464
32750SOL    HW210230   7.966   4.980  12.481  0.2435  0.5965 -0.6335
32751SOL     OW10231  13.706   5.295  13.052  0.1103  0.0423 -0.3102
32751SOL    HW110232  13.685   5.321  12.962 -3.3871 -1.8735 -0.2279
32751SOL    HW210233  13.650   5.351  13.107  2.0008  1.0085  0.7360
32752SOL     OW10234   4.224   5.262   2.835 -0.1801 -0.1057  0.5441
32752SOL    HW110235   4.261   5.261   2.747 -0.7602 -1.0516  0.3063
32752SOL    HW210236   4.200   5.354   2.849 -1.0568 -0.1180 -0.6984
32753SOL     OW10237   8.562   8.839  11.168  0.1592  0.3556 -0.0629
32753SOL    HW110238   8.543   8.784  11.244 -0.6471 -0.2661 -0.6947
32753SOL    HW210239   8.483   8.834  11.115  0.6613  0.9028 -0.8780
32754SOL     OW10240  12.134   5.845  11.524 -0.2009  0.0183  0.3288
32754SOL    HW110241  12.152   5.806  11.610  1.7097 -0.6480 -0.3213
32754SOL    HW210242  12.059   5.796  11.491 -0.4150 -0.3039  1.2461
32755SOL     OW10243  10.051   6.111  13.498  0.5379  0.4032  0.1311
32755SOL    HW110244  10.044   6.203  13.521 -0.1178  0.2401  0.6332
32755SOL    HW210245  10.038   6.108  13.404  0.1824  0.7855  0.1684
32756SOL     OW10246   3.892   7.215   1.854 -0.0780  0.0582  0.2391
32756SOL    HW110247   3.935   7.131   1.869  1.0397  0.5829  0.0531
32756SOL    HW210248   3.963   7.277   1.843 -0.8232  0.5905 -2.2169
32757SOL     OW10249   5.508   0.952   6.237 -0.1670 -0.4402  0.2627
32757SOL    HW110250   5.564   0.966   6.161  0.1875  0.3159  0.6616
32757SOL    HW210251   5.561   0.898   6.297 -0.9013 -2.1267 -0.5359
32758SOL     OW10252   4.961   8.558  11.695 -0.3842  0.5440  0.4489
32758SOL    HW110253   4.997   8.507  11.622  0.5218  1.5820  0.1465
32758SOL    HW210254   5.036   8.568  11.755 -1.4183 -1.4193  2.2074
32759SOL     OW10255  14.020  13.844  10.452 -0.0950  0.2469 -0.1085
32759SOL    HW110256  14.009  13.770  10.512 -0.9270  0.6686  0.2846
32759SOL    HW210257  14.061  13.912  10.505  0.1215  0.2721 -0.3077
32760SOL     OW10258   3.996   3.007   8.410  0.4087 -0.3684 -0.6819
32760SOL    HW110259   3.904   3.012   8.382  0.0625 -0.5315  0.3412
32760SOL    HW210260   4.007   2.916   8.437  0.3779  0.0103  0.7098
32761SOL     OW10261   7.811   1.121   2.316  0.2003  0.4668 -0.2658
32761SOL    HW110262   7.892   1.151   2.277 -0.2814  0.1978 -1.5378
32761SOL    HW210263   7.837   1.085   2.400  0.9460  3.3250  0.8435
32762SOL     OW10264   8.714   7.589   3.413 -0.0625 -0.2856  0.3754
32762SOL    HW110265   8.668   7.673   3.416 -0.9003 -0.6745 -0.6687
32762SOL    HW210266   8.647   7.525   3.438  0.3973 -0.7102  0.5293
32763SOL     OW10267  11.741   8.201   3.683  0.0834  1.2644  0.2445
32763SOL    HW110268  11.655   8.199   3.724  0.7326  2.2929  1.7542
32763SOL    HW210269  11.775   8.112   3.694 -0.4844  1.0539  0.3190
32764SOL     OW10270   7.720   5.239   1.490 -0.0641 -0.5980 -0.2044
32764SOL    HW110271   7.776   5.245   1.567  0.5344  0.5323 -0.6969
32764SOL    HW210272   7.632   5.226   1.524 -0.1653  2.2462  0.7942
32765SOL     OW10273   4.416   5.251  11.262 -0.1634  0.4572  0.1486
32765SOL    HW110274   4.472   5.209  11.196  0.1756  2.1048 -0.6526
32765SOL    HW210275   4.439   5.343  11.258 -1.7029  0.9143  1.0676
32766SOL     OW10276  12.252   9.949  10.141  0.2813  0.0633  0.7943
32766SOL    HW110277  12.158   9.955  10.120  0.0776 -0.7599  1.4275
32766SOL    HW210278  12.258   9.975  10.233  0.7201  0.4016  0.6718
32767SOL     OW10279   8.371   5.879   4.975  0.6211 -0.0388 -0.0466
32767SOL    HW110280   8.283   5.850   4.996  0.1463  1.2283 -0.1742
32767SOL    HW210281   8.381   5.861   4.881  1.1200 -1.6650  0.2884
32768SOL     OW10282  12.954   7.518   7.602  0.4545 -0.4012 -0.0731
32768SOL    HW110283  12.904   7.564   7.670 -1.6539 -1.7499 -0.6378
32768SOL    HW210284  13.041   7.557   7.607 -0.7588  2.4721  0.5862
32769SOL     OW10285   0.972   9.676  11.966 -0.0101 -0.3128  0.3058
32769SOL    HW110286   1.061   9.646  11.945  0.2770  0.3742  0.5175
32769SOL    HW210287   0.924   9.665  11.883  0.6617  0.7090 -0.2430
32770SOL     OW10288   7.882   4.137   4.082  0.3152  0.0236  0.0993
32770SOL    HW110289   7.841   4.204   4.027 -0.2201  1.1560  1.8101
32770SOL    HW210290   7.856   4.054   4.041 -2.5463  0.7167  0.2678
32771SOL     OW10291   2.972  13.584   6.548 -0.5430 -0.0209  0.6871
32771SOL    HW110292   2.882  13.588   6.518 -0.2634 -0.2845 -0.2024
32771SOL    HW210293   2.993  13.674   6.575 -1.0380  0.0548  0.8160
32772SOL     OW10294   4.702  12.907   1.519 -0.3342 -0.0866  0.4909
32772SOL    HW110295   4.710  13.001   1.535 -1.7765 -0.1610  1.9038
32772SOL    HW210296   4.637  12.900   1.450 -1.4401 -0.0812  1.5131
32773SOL     OW10297   1.268   3.094  11.496  0.1525  0.6336  0.2052
32773SOL    HW110298   1.354   3.115  11.531  0.6373 -2.1252  0.8759
32773SOL    HW210299   1.284   3.029  11.427 -1.2958  1.1612 -0.6891
32774SOL     OW10300   9.702   3.036   6.099  0.8641 -0.0506 -0.2259
32774SOL    HW110301   9.782   2.993   6.068  1.0337  1.1095 -1.5228
32774SOL    HW210302   9.669   3.083   6.022 -2.6588 -2.7006 -0.5737
32775SOL     OW10303  10.977   9.167  12.002  0.3775 -0.3251 -0.3557
32775SOL    HW110304  10.980   9.155  12.097 -1.6738  1.2996 -0.0144
32775SOL    HW210305  11.061   9.208  11.980  0.4154  0.3568  0.9527
32776SOL     OW10306   5.221   0.915  13.362  0.3623  1.4213  0.4072
32776SOL    HW110307   5.143   0.866  13.336  1.3022 -0.6976  1.3194
32776SOL    HW210308   5.227   0.986  13.298 -1.1444  0.4058 -0.9362
32777SOL     OW10309  10.539   8.283  13.819 -0.4311 -0.1939  0.9321
32777SOL    HW110310  10.591   8.203  13.810  0.5130  0.4832  0.1777
32777SOL    HW210311  10.471   8.276  13.752  1.8481  1.2431 -1.7275
32778SOL     OW10312   2.450   3.618   5.446  0.1305 -0.2572 -0.0894
32778SOL    HW110313   2.522   3.555   5.454  0.4774  0.1348 -0.0899
32778SOL    HW210314   2.380   3.569   5.404  0.3866 -0.6535 -0.0587
32779SOL     OW10315  12.563   4.407   0.818 -0.8047 -0.0878  0.8718
32779SOL    HW110316  12.633   4.450   0.769  0.3395 -0.4443  2.1404
32779SOL    HW210317  12.574   4.314   0.798 -0.2300 -0.2528  1.8885
32780SOL     OW10318  12.893   0.503   5.760  0.1790  0.0558 -0.9559
32780SOL    HW110319  12.827   0.452   5.713 -1.5161 -0.7244  2.0319
32780SOL    HW210320  12.934   0.441   5.820 -1.1527  1.7626  1.9770
32781SOL     OW10321   9.846  13.673  13.616  0.2176  0.2679  0.0147
32781SOL    HW110322   9.911  13.641  13.679  0.7052 -1.0808 -1.1340
32781SOL    HW210323   9.764  13.674  13.666  0.4714 -1.3762  0.5250
32782SOL     OW10324   6.879  12.072   0.065  0.0683  0.6592 -0.3879
32782SOL    HW110325   6.890  11.991   0.015 -0.6905  0.4843 -0.2805
32782SOL    HW210326   6.893  12.047   0.156  3.0762  1.2774 -0.5639
32783SOL     OW10327   5.598   1.909  13.025 -0.2097 -0.1642  0.2455
32783SOL    HW110328   5.613   1.991  13.071 -1.5981  0.9436 -1.1740
32783SOL    HW210329   5.636   1.922  12.938 -0.8696 -0.8263 -0.1614
32784SOL     OW10330   3.812   1.843  10.890  0.3008 -0.3446 -0.1107
32784SOL    HW110331   3.903   1.827  10.915  0.4046  1.0468  0.5619
32784SOL    HW210332   3.803   1.938  10.897 -1.7229 -0.6026  1.7723
32785SOL     OW10333   1.544   4.117  12.117  0.0546  0.5626 -0.1358
32785SOL    HW110334   1.521   4.025  12.105 -0.3093  0.6202  0.1099
32785SOL    HW210335   1.631   4.115  12.157 -0.2404  0.3123  0.4985
32786SOL     OW10336   1.185   3.519   3.930  0.1075  0.5257 -0.1965
32786SOL    HW110337   1.144   3.471   4.002  0.0069 -1.1290 -1.2945
32786SOL    HW210338   1.257   3.566   3.972 -0.0141 -0.2965  1.0149
32787SOL     OW10339   5.292  13.110   6.735  0.2166  0.3113 -0.3799
32787SOL    HW110340   5.203  13.143   6.723  0.9526  2.9367  0.5310
32787SOL    HW210341   5.321  13.152   6.816  1.8672 -1.4952  0.0197
32788SOL     OW10342  13.887  11.387   0.861 -0.2625 -0.1704 -0.2224
32788SOL    HW110343  13.967  11.436   0.880  0.6257 -1.3991 -0.6194
32788SOL    HW210344  13.839  11.442   0.799  1.0388 -0.0826 -1.2028
32789SOL     OW10345   6.153   5.539  11.642  0.3053 -0.0146 -0.1761
32789SOL    HW110346   6.128   5.536  11.734 -0.6892  1.2999 -0.3768
32789SOL    HW210347   6.117   5.459  11.605 -1.1175  0.4420  0.1660
32790SOL     OW10348  10.293  10.328   0.966 -0.2948 -0.2834  0.4706
32790SOL    HW110349  10.259  10.403   0.918 -0.9288 -0.3958  0.7259
32790SOL    HW210350  10.383  10.351   0.986 -0.5931  0.5770  0.8681
32791SOL     OW10351  13.021  12.816   2.383 -0.1635  0.2850  0.1176
32791SOL    HW110352  13.037  12.827   2.477  0.0809 -0.5317  0.1847
32791SOL    HW210353  12.997  12.903   2.352  0.8164  0.7834  0.7274
32792SOL     OW10354   9.134   4.685   9.047  0.0332 -0.2125  0.8540
32792SOL    HW110355   9.063   4.643   9.095 -1.1248  0.9136  0.1670
32792SOL    HW210356   9.116   4.666   8.955  1.5502 -1.2975  0.7350
32793SOL     OW10357   3.987   7.382   0.410 -0.2365 -0.3512  0.0134
32793SOL    HW110358   3.921   7.330   0.363  1.6920 -2.5186 -0.4954
32793SOL    HW210359   4.021   7.442   0.344 -0.5722 -0.3685 -0.1789
32794SOL     OW10360   8.590   0.920   4.348  0.0795  0.0719 -0.6015
32794SOL    HW110361   8.668   0.929   4.403  0.0601 -1.3840 -0.3038
32794SOL    HW210362   8.518   0.947   4.406  0.3232  1.4105 -0.8739
32795SOL     OW10363   2.998   3.383  13.546  0.2525  0.0943 -0.0094
32795SOL    HW110364   2.945   3.461  13.557  1.4196  0.5979  2.7326
32795SOL    HW210365   2.997   3.340  13.631  0.6741 -2.2407 -1.1009
32796SOL     OW10366   0.816   0.436   9.495 -0.3167  0.0408  0.0914
32796SOL    HW110367   0.805   0.486   9.414 -3.4660  0.4441  0.6380
32796SOL    HW210368   0.882   0.370   9.474  1.0453  1.9008 -1.8761
32797SOL     OW10369   1.516  10.177   2.409  0.5011 -0.0329 -0.4304
32797SOL    HW110370   1.449  10.127   2.456  1.5069  0.1437  1.2694
32797SOL    HW210371   1.488  10.268   2.415 -0.4413 -0.1872 -2.0324
32798SOL     OW10372   7.983  10.423  11.564  0.5924  0.3686 -0.0389
32798SOL    HW110373   7.943  10.337  11.550 -0.1432  0.8935 -1.4273
32798SOL    HW210374   7.996  10.429  11.658 -0.1290 -0.9263  0.1681
32799SOL     OW10375   6.440  13.108   4.173 -1.0207 -0.2027  0.9150
32799SOL    HW110376   6.405  13.039   4.230 -1.3135 -0.4827  0.4136
32799SOL    HW210377   6.464  13.062   4.092  1.1781 -0.1271  1.4843
32800SOL     OW10378  12.013  13.261  13.844  0.2195 -0.8113 -0.0003
32800SOL    HW110379  11.957  13.259  13.766  0.5114 -0.7915 -0.2105
32800SOL    HW210380  12.102  13.249  13.811  0.4368  0.0428  0.2521
32801SOL     OW10381  13.205   5.909  13.517  0.2216 -0.4471  0.7332
32801SOL    HW110382  13.289   5.890  13.476  0.6809  0.3043  1.2910
32801SOL    HW210383  13.188   6.001  13.495 -0.7940 -0.7863  0.0491
32802SOL     OW10384   1.210   3.078   0.013 -0.9764 -0.0849 -0.2213
32802SOL    HW110385   1.222   3.112   0.101  1.0915  0.5016 -0.6681
32802SOL    HW210386   1.206   3.155  -0.043  1.0341 -0.4406 -0.9523
32803SOL     OW10387   0.497   3.908   4.581 -0.1263 -0.2471 -0.3538
32803SOL    HW110388   0.571   3.866   4.536  0.1597  1.2799 -1.3924
32803SOL    HW210389   0.432   3.838   4.589  0.3320 -0.9205 -2.0018
32804SOL     OW10390  13.961   9.752  11.516  0.0645  0.1433 -0.0481
32804SOL    HW110391  13.904   9.825  11.539 -0.1895  0.2056 -0.8291
32804SOL    HW210392  13.956   9.693  11.591 -0.1573  0.6719  0.3542
32805SOL     OW10393   5.585   8.403   9.119  0.6317  0.0977  0.0954
32805SOL    HW110394   5.526   8.430   9.189  1.6996  0.6965  0.8000
32805SOL    HW210395   5.529   8.394   9.042 -0.4888 -0.1220  0.9152
32806SOL     OW10396   7.064   4.948   0.755 -0.2400 -0.2779  0.0492
32806SOL    HW110397   7.127   5.020   0.758 -1.0268  0.4541 -0.2225
32806SOL    HW210398   7.086   4.899   0.676  2.0473 -2.0294  1.6651
32807SOL     OW10399   9.019   1.297   4.917  0.3550  0.3838  0.0697
32807SOL    HW110400   8.949   1.362   4.930 -0.4795 -0.1932 -1.2321
32807SOL    HW210401   9.045   1.271   5.005 -0.7797  0.9384  0.5918
32808SOL     OW10402  13.938   2.844   8.230 -0.5815  0.4286  0.0395
32808SOL    HW110403  13.980   2.875   8.310  0.5565 -1.0593  0.0673
32808SOL    HW210404  13.941   2.748   8.237 -2.2303  0.2715 -0.8916
32809SOL     OW10405   3.928  11.786   4.826  0.6285 -0.5655 -0.0490
32809SOL    HW110406   3.927  11.738   4.744 -3.1518 -0.6134 -0.1559
32809SOL    HW210407   3.856  11.748   4.877 -0.9906  3.1894  0.8523
32810SOL     OW10408   8.328   8.064   3.515  0.1416  0.3026  0.0235
32810SOL    HW110409   8.393   8.007   3.475  1.3669  0.6559  1.4019
32810SOL    HW210410   8.313   8.026   3.602  1.2146  2.1573  1.0912
32811SOL     OW10411  13.827  12.734   0.934  0.8659  0.1994 -0.2292
32811SOL    HW110412  13.896  12.750   0.998  0.4601  0.0424  0.2478
32811SOL    HW210413  13.768  12.808   0.944  0.1335 -0.4685  0.4618
32812SOL     OW10414   8.914   0.446  11.673 -0.0344  0.7805 -0.1339
32812SOL    HW110415   8.944   0.356  11.669 -0.5236  0.6101 -0.0358
32812SOL    HW210416   8.889   0.460  11.764 -0.2317  0.9207 -0.2066
32813SOL     OW10417   5.336   8.600  11.261  0.0862 -0.9241 -0.3128
32813SOL    HW110418   5.273   8.572  11.194  0.4833  0.9323 -1.5352
32813SOL    HW210419   5.412   8.629  11.210  0.5363  0.2115  0.9652
32814SOL     OW10420   5.268  13.376   4.516 -0.0923 -0.0477  0.1223
32814SOL    HW110421   5.317  13.354   4.595  0.5464  0.1250 -0.2206
32814SOL    HW210422   5.176  13.366   4.541 -0.0545  2.5668  1.6817
32815SOL     OW10423  12.089   8.023   0.752  0.4574  0.2479  0.1954
32815SOL    HW110424  12.170   8.033   0.803  1.3188  1.1260 -1.2987
32815SOL    HW210425  12.068   8.112   0.723 -2.0158  0.3446  1.9113
32816SOL     OW10426   3.536   7.237   6.099 -0.2404  0.2567 -0.0412
32816SOL    HW110427   3.533   7.330   6.120  0.7698  0.5459 -1.0520
32816SOL    HW210428   3.611   7.204   6.149 -0.5875 -0.0128  0.3043
32817SOL     OW10429  10.789  13.782   1.493  0.0613  0.3421  0.8428
32817SOL    HW110430  10.723  13.812   1.555 -0.3222  3.0003 -0.6699
32817SOL    HW210431  10.740  13.733   1.427 -0.2561  1.2482  0.3831
32818SOL     OW10432  11.827   7.839  11.626 -0.3087 -0.1013  0.5153
32818SOL    HW110433  11.869   7.923  11.646 -0.9467  0.3163  0.1552
32818SOL    HW210434  11.754   7.863  11.568 -1.5459 -0.7003  1.7656
32819SOL     OW10435   3.012  11.251   5.469 -0.6443  0.3043  0.5563
32819SOL    HW110436   2.935  11.293   5.431 -0.1854 -0.5219 -1.3588
32819SOL    HW210437   3.047  11.317   5.530 -1.2480  1.7865 -0.6403
32820SOL     OW10438  11.766   1.332   2.841  0.2362  0.2065  0.1401
32820SOL    HW110439  11.850   1.376   2.831 -0.8769  2.6237  0.6033
32820SOL    HW210440  11.712   1.367   2.770 -0.7927 -0.1840  0.7105
32821SOL     OW10441   3.306  12.686   2.912 -0.1976  0.0904 -0.1585
32821SOL    HW110442   3.228  12.712   2.962  0.2948  0.7587  0.2659
32821SOL    HW210443   3.314  12.752   2.844  0.1252  0.1375 -0.0736
32822SOL     OW10444  12.747   6.896   1.717 -0.4299  0.5643  0.2231
32822SOL    HW110445  12.839   6.887   1.740 -0.3186  1.4294  0.1638
32822SOL    HW210446  12.726   6.816   1.668  0.0188 -0.0913  1.0694
32823SOL     OW10447   8.911   9.356  11.488 -0.6093  0.0888  0.4365
32823SOL    HW110448   8.911   9.369  11.393 -0.3830  2.0170  0.6514
32823SOL    HW210449   8.999   9.327  11.509 -0.7656 -0.7102  0.0369
32824SOL     OW10450  12.359   9.245  12.022 -0.0539 -0.2188  0.3875
32824SOL    HW110451  12.321   9.270  12.107  0.7958  0.4848  0.5652
32824SOL    HW210452  12.412   9.168  12.042  1.0573  0.6125  0.7277
32825SOL     OW10453   8.914   4.996  12.127 -0.5954 -0.6206 -0.5307
32825SOL    HW110454   8.953   4.940  12.195  0.0215  2.2377  1.6739
32825SOL    HW210455   8.827   5.017  12.160 -0.3294  0.7196 -0.6364
32826SOL     OW10456   1.512   7.187  14.045  0.0005 -0.1494  0.2176
32826SOL    HW110457   1.580   7.251  14.025 -0.4386  0.3375  0.2520
32826SOL    HW210458   1.430   7.234  14.029 -0.3275 -0.6847  0.3089
32827SOL     OW10459   4.693   2.209   3.464  0.0667  0.5215 -0.3024
32827SOL    HW110460   4.652   2.230   3.381  1.1121  0.8816 -0.7470
32827SOL    HW210461   4.630   2.236   3.530 -0.7554  0.2758 -0.9702
32828SOL     OW10462  10.219   4.339  12.065  0.2756 -0.0069 -0.1048
32828SOL    HW110463  10.184   4.289  12.140 -0.4329 -0.5052 -0.7464
32828SOL    HW210464  10.162   4.314  11.992  0.9097  0.5364 -0.7918
32829SOL     OW10465   0.728   5.809   8.141  0.3983  0.3637 -0.4799
32829SOL    HW110466   0.773   5.814   8.057  0.3588  1.2198 -0.4621
32829SOL    HW210467   0.759   5.728   8.180  1.1034  0.3987 -0.9375
32830SOL     OW10468   0.618   6.246   3.273 -0.0098  0.0812  0.4312
32830SOL    HW110469   0.572   6.263   3.355 -0.9263  0.7501 -0.1950
32830SOL    HW210470   0.633   6.333   3.235  1.2458 -0.1694  0.3324
32831SOL     OW10471  11.706   9.337   9.464  0.6921  0.0307  0.4288
32831SOL    HW110472  11.644   9.388   9.412  0.5008  0.1308  0.7509
32831SOL    HW210473  11.730   9.395   9.536 -0.6880 -0.8650  1.6604
32832SOL     OW10474  11.654  12.593  13.946  0.1951  0.3801  0.0166
32832SOL    HW110475  11.615  12.653  14.011 -2.0347 -1.5337  0.5772
32832SOL    HW210476  11.589  12.523  13.937  2.0257 -1.1821 -1.7396
32833SOL     OW10477   3.350   1.377   7.669 -0.1408  0.0741 -0.3505
32833SOL    HW110478   3.277   1.422   7.711 -0.4085 -1.0094  0.3942
32833SOL    HW210479   3.311   1.298   7.632  0.7714 -0.8933  0.7108
32834SOL     OW10480   0.561   4.247   3.056 -0.0835 -0.7860 -0.4830
32834SOL    HW110481   0.478   4.224   3.096 -0.1499  0.1486 -0.0585
32834SOL    HW210482   0.623   4.182   3.090 -0.3265 -0.5601  0.4229
32835SOL     OW10483  12.863   0.152   4.219 -0.2501  0.3861  0.2627
32835SOL    HW110484  12.777   0.137   4.180 -0.4453 -0.4605  0.9842
32835SOL    HW210485  12.847   0.149   4.314  0.5383  0.4433  0.4029
32836SOL     OW10486  13.836   1.594   5.616 -0.0373 -0.1306 -0.2378
32836SOL    HW110487  13.854   1.658   5.547  0.2637 -0.1040 -0.1338
32836SOL    HW210488  13.872   1.512   5.582  0.7578  0.0314  0.1929
32837SOL     OW10489   2.355   1.831   2.447  0.7875 -0.4358 -0.0852
32837SOL    HW110490   2.296   1.900   2.477 -0.2091 -1.1370 -0.3911
32837SOL    HW210491   2.428   1.834   2.509  0.8760  1.0200 -0.2180
32838SOL     OW10492   0.747   2.892   1.448  0.3503  0.3132  0.1946
32838SOL    HW110493   0.747   2.799   1.424  3.0520 -0.5499  2.8061
32838SOL    HW210494   0.722   2.892   1.540  0.3671  2.2175  0.2269
32839SOL     OW10495   4.989   3.879  11.242 -0.0503 -0.7660  0.2993
32839SOL    HW110496   5.084   3.863  11.245 -0.0873 -0.8894  1.0832
32839SOL    HW210497   4.981   3.971  11.219  0.3320 -0.1508  2.4047
32840SOL     OW10498  12.920  13.248   3.509  0.1184  0.0503  0.3507
32840SOL    HW110499  12.989  13.300   3.550 -0.1288  0.4140  0.3013
32840SOL    HW210500  12.963  13.206   3.435  1.0320 -1.9518  1.8876
32841SOL     OW10501   3.332   6.527   6.916  0.2061  0.8360  0.4249
32841SOL    HW110502   3.257   6.473   6.942 -1.1531  2.7218  0.6129
32841SOL    HW210503   3.350   6.501   6.826 -1.5595  1.2297 -0.0874
32842SOL     OW10504   1.151   9.274   5.533  0.7582  0.2283 -0.6179
32842SOL    HW110505   1.243   9.298   5.525  1.0519 -0.9617 -1.0933
32842SOL    HW210506   1.135   9.216   5.459 -0.4929  0.7568 -0.7768
32843SOL     OW10507  10.074   2.534  13.505  0.3333 -0.2989 -0.5531
32843SOL    HW110508  10.137   2.480  13.457  0.4599 -1.5303  0.9130
32843SOL    HW210509  10.112   2.621  13.505  0.6341 -0.4102 -2.1055
32844SOL     OW10510   0.957   1.660  11.654  0.1219 -0.2281 -0.9529
32844SOL    HW110511   0.917   1.658  11.741  0.7049  1.4071 -0.6093
32844SOL    HW210512   0.938   1.574  11.617 -1.1302 -0.5458  0.3386
32845SOL     OW10513  10.085   1.793  12.939 -0.6411 -0.5039 -0.5601
32845SOL    HW110514  10.155   1.849  12.973 -0.5600 -0.9852  0.0869
32845SOL    HW210515  10.109   1.704  12.966 -1.1282 -0.7684 -0.9626
32846SOL     OW10516   2.125  12.848   2.442 -0.2925  0.6987 -0.6207
32846SOL    HW110517   2.034  12.834   2.469 -0.3344 -0.1450 -1.1720
32846SOL    HW210518   2.124  12.933   2.398 -0.5630  1.2756  0.4711
32847SOL     OW10519   0.242   0.228  12.328 -0.3994  0.5533  0.9742
32847SOL    HW110520   0.244   0.163  12.258 -0.3370  2.2042 -0.6328
32847SOL    HW210521   0.294   0.189  12.399  0.9423 -0.4920 -0.5187
32848SOL     OW10522   8.055  11.474   2.828  0.4297 -0.0037 -0.4125
32848SOL    HW110523   8.064  11.548   2.768  1.3520 -0.5474 -0.9729
32848SOL    HW210524   8.098  11.502   2.909 -0.0359  0.4064 -0.3057
32849SOL     OW10525  13.290   8.238  10.298 -0.2358  0.4833  0.3044
32849SOL    HW110526  13.230   8.294  10.348  0.1719 -0.2212  1.6217
32849SOL    HW210527  13.370   8.291  10.290 -0.4183  0.7297  0.1189
32850SOL     OW10528  11.220  10.119   2.542 -0.4018 -0.3313 -0.0088
32850SOL    HW110529  11.146  10.180   2.540 -1.0199 -1.0794 -0.0114
32850SOL    HW210530  11.293  10.170   2.509 -0.4361  1.0690  1.8631
32851SOL     OW10531   6.760   2.510  13.357  0.4181 -0.1792 -0.3196
32851SOL    HW110532   6.816   2.447  13.403 -1.4420 -1.7276 -0.0420
32851SOL    HW210533   6.783   2.500  13.265 -0.3984 -1.9185 -0.3703
32852SOL     OW10534   4.272   3.332   4.539  0.2004  0.3514 -0.5169
32852SOL    HW110535   4.281   3.270   4.467  2.6892 -0.7755  0.6433
32852SOL    HW210536   4.361   3.361   4.557 -0.3928  0.9075  1.8270
32853SOL     OW10537   6.023   0.716  11.210 -0.6296  0.3499 -0.2808
32853SOL    HW110538   5.965   0.642  11.194  2.4809 -2.3981 -0.0053
32853SOL    HW210539   6.074   0.691  11.287 -0.3040  3.4517  0.6777
32854SOL     OW10540   9.716   0.896   0.062 -0.5079 -0.1713  0.1202
32854SOL    HW110541   9.696   0.985   0.032 -0.5052 -0.1744  0.1091
32854SOL    HW210542   9.786   0.908   0.127 -0.6552 -0.1447  0.2752
32855SOL     OW10543  13.909   5.104   5.285 -0.0527  0.0755 -0.3229
32855SOL    HW110544  13.905   5.053   5.366 -0.1785  0.2984 -0.1860
32855SOL    HW210545  13.965   5.178   5.306  0.3117 -0.1227 -0.5892
32856SOL     OW10546   0.802  11.715  12.439 -0.1375 -0.7369  0.3083
32856SOL    HW110547   0.759  11.776  12.379  1.2557 -0.5210 -0.5103
32856SOL    HW210548   0.738  11.645  12.452 -0.6830 -0.5082 -0.9980
32857SOL     OW10549  13.452   9.512  12.275  0.8053 -1.0665 -0.3043
32857SOL    HW110550  13.411   9.548  12.354  2.2790 -0.2464  0.1271
32857SOL    HW210551  13.396   9.439  12.250 -0.3562 -0.5954  0.8092
32858SOL     OW10552  11.962   4.190   4.123 -1.1131  0.0288  0.0940
32858SOL    HW110553  11.890   4.182   4.185 -2.0019 -0.8418 -1.0072
32858SOL    HW210554  11.948   4.118   4.061 -1.3281  1.9389 -2.1987
32859SOL     OW10555  12.169   3.250   1.077  0.1298  0.4939  0.1514
32859SOL    HW110556  12.150   3.297   1.158 -1.0362 -0.1738  0.2916
32859SOL    HW210557  12.182   3.319   1.012  1.2320  1.0370  0.9188
32860SOL     OW10558   1.004   0.114  13.346 -0.5848 -0.5148  0.1174
32860SOL    HW110559   1.018   0.027  13.309 -0.6634 -2.0616  3.3837
32860SOL    HW210560   0.914   0.137  13.321 -0.1714 -0.7500 -1.7755
32861SOL     OW10561   4.051   2.271   0.090 -0.4164 -0.1026  0.2968
32861SOL    HW110562   4.076   2.332   0.160 -1.4679 -0.6282  1.1559
32861SOL    HW210563   4.133   2.254   0.042  0.1650  0.8633  0.9133
32862SOL     OW10564  10.854   1.957   1.655 -0.4394 -0.5844 -0.8485
32862SOL    HW110565  10.871   1.864   1.668  0.5701 -0.1715  1.1240
32862SOL    HW210566  10.940   1.998   1.657 -1.0124  0.7855  2.3294
32863SOL     OW10567  11.499   7.645  12.097  0.0002  0.4482 -0.0178
32863SOL    HW110568  11.514   7.551  12.101 -0.4411  0.4078  1.3332
32863SOL    HW210569  11.524   7.670  12.009 -0.9567 -1.1175 -0.7805
32864SOL     OW10570   8.831  12.790   9.581 -0.8106  0.3584  0.6388
32864SOL    HW110571   8.895  12.802   9.651 -1.6172  1.1076  1.2586
32864SOL    HW210572   8.801  12.878   9.559 -1.0764  0.0773 -0.1820
32865SOL     OW10573   5.989   2.621   2.034  0.1323  0.0492 -0.1006
32865SOL    HW110574   6.044   2.679   2.087 -1.9216  1.2334  0.8639
32865SOL    HW210575   5.949   2.678   1.969  0.8064 -0.9875 -1.4876
32866SOL     OW10576   2.061   5.377   5.622 -0.5283 -0.1678 -0.5586
32866SOL    HW110577   1.972   5.364   5.591 -1.2348  1.9635  0.3874
32866SOL    HW210578   2.116   5.338   5.554 -2.1325  0.2594 -2.1896
32867SOL     OW10579  12.336   8.712   2.798  0.1222  0.5167 -0.0536
32867SOL    HW110580  12.293   8.697   2.882  1.5792  1.0404  0.8236
32867SOL    HW210581  12.294   8.790   2.763  1.5838  2.2017  1.7087
32868SOL     OW10582   3.413   3.131   3.926  0.8949  0.9053 -0.2235
32868SOL    HW110583   3.388   3.198   3.862  1.4801  0.9146 -0.4482
32868SOL    HW210584   3.480   3.172   3.980  2.2488  0.1077 -1.2036
32869SOL     OW10585   2.632   7.627   2.208 -0.2673 -0.1090 -0.6567
32869SOL    HW110586   2.579   7.579   2.272  0.3259 -0.4565 -0.4087
32869SOL    HW210587   2.569   7.673   2.153 -0.7724  1.0218  0.8020
32870SOL     OW10588   4.326   3.108   5.012  0.3962  0.0408 -0.3885
32870SOL    HW110589   4.378   3.184   5.040  0.7683  0.3137 -1.7506
32870SOL    HW210590   4.255   3.102   5.076  0.6614  1.2233  0.0337
32871SOL     OW10591   7.064   8.514   8.810  0.1844 -0.1083 -0.7573
32871SOL    HW110592   7.002   8.507   8.883  1.0521  0.1968  0.0297
32871SOL    HW210593   7.074   8.424   8.780 -0.4183 -0.1987 -0.7075
32872SOL     OW10594   7.932  11.591   8.048  0.1423 -0.2355 -0.0355
32872SOL    HW110595   7.906  11.599   8.140 -2.4924 -1.7644 -0.5413
32872SOL    HW210596   7.934  11.496   8.032 -0.7792 -0.0010 -1.8383
32873SOL     OW10597   5.924   4.559   1.873  0.0636 -0.1405  0.0493
32873SOL    HW110598   5.851   4.522   1.822  0.3037  0.1141 -0.4835
32873SOL    HW210599   5.919   4.514   1.957 -0.2060 -0.7291 -0.2746
32874SOL     OW10600   9.045   2.840   2.461  0.4981  0.4999 -0.0089
32874SOL    HW110601   9.037   2.764   2.404 -0.0011  0.5553 -0.0180
32874SOL    HW210602   8.977   2.900   2.431 -0.0418  0.3701  0.8814
32875SOL     OW10603  11.816   0.359   3.386 -0.2889  0.0134  0.3595
32875SOL    HW110604  11.758   0.284   3.395 -0.9665  0.4029 -0.6965
32875SOL    HW210605  11.878   0.334   3.318 -0.2686  0.2560  0.2876
32876SOL     OW10606   6.644  10.945   6.636 -0.0394 -0.1978 -0.6844
32876SOL    HW110607   6.574  10.962   6.699 -0.1185 -0.7364 -0.6185
32876SOL    HW210608   6.614  10.986   6.555  0.1757  0.7146 -0.3102
32877SOL     OW10609   7.966   4.978  13.792  0.2803 -0.2525  0.4829
32877SOL    HW110610   8.002   5.027  13.718  2.4410 -2.7270 -0.2770
32877SOL    HW210611   7.916   4.906  13.752  0.6638 -1.0611  1.4040
32878SOL     OW10612   1.470   0.006   6.719  0.2538  1.1328 -0.2940
32878SOL    HW110613   1.528  -0.019   6.647 -0.4440  1.5009 -1.0009
32878SOL    HW210614   1.441  -0.076   6.757  1.3530  0.9460  0.1677
32879SOL     OW10615  11.927   1.810   2.851 -0.6582  0.4481  0.1344
32879SOL    HW110616  11.920   1.827   2.945 -2.6980  1.3106 -0.1084
32879SOL    HW210617  11.961   1.891   2.814 -1.6781  0.8147 -0.0438
32880SOL     OW10618  11.787  10.732   3.276  0.1732 -0.0328 -0.3948
32880SOL    HW110619  11.828  10.685   3.204  1.2728  0.4216 -0.0825
32880SOL    HW210620  11.860  10.770   3.325 -0.6348  1.1959 -0.0883
32881SOL     OW10621   7.055   0.160   0.184 -0.0950  0.2551  0.4280
32881SOL    HW110622   7.053   0.107   0.105 -0.0407  0.9629 -0.0561
32881SOL    HW210623   7.076   0.098   0.254 -2.1016 -0.7395  0.2181
32882SOL     OW10624   8.047  10.910   2.588 -0.5030  0.2143 -0.6470
32882SOL    HW110625   8.021  10.915   2.680 -1.0398 -0.9473 -0.7197
32882SOL    HW210626   7.977  10.861   2.546  0.4773 -0.5964 -1.3849
32883SOL     OW10627   9.145   6.839   9.961  0.1137  0.2746  0.2101
32883SOL    HW110628   9.073   6.842  10.024  0.4292  0.7450  0.5497
32883SOL    HW210629   9.153   6.746   9.939  0.0756  0.0919  0.9431
32884SOL     OW10630   5.977   2.951   9.635 -0.3295 -0.5981 -0.3427
32884SOL    HW110631   6.027   2.958   9.717 -0.4367  0.6978 -0.3618
32884SOL    HW210632   5.889   2.925   9.663 -0.5593  0.5375  0.0481
32885SOL     OW10633   6.961   0.123   0.926  0.5539 -0.1209 -0.2128
32885SOL    HW110634   6.877   0.108   0.968  0.4999 -0.2686 -0.3739
32885SOL    HW210635   6.962   0.216   0.905 -0.1794 -0.3888 -1.5302
32886SOL     OW10636   7.413   6.169   4.095 -0.3445  0.0871 -0.0958
32886SOL    HW110637   7.406   6.218   4.177 -1.0662 -1.3571  0.7372
32886SOL    HW210638   7.497   6.199   4.058  1.2255 -0.9254  2.3373
32887SOL     OW10639   3.213  10.937  10.943 -0.3822  0.0258 -0.0862
32887SOL    HW110640   3.170  10.870  10.889 -0.4408 -0.2187  0.2621
32887SOL    HW210641   3.277  10.889  10.995  0.7278  0.4591 -1.0038
32888SOL     OW10642   4.069   3.512   1.678  0.2178 -0.0536 -0.1821
32888SOL    HW110643   4.042   3.464   1.600  1.5105 -0.6234 -0.3025
32888SOL    HW210644   4.165   3.514   1.673  0.2236  2.7389 -0.2957
32889SOL     OW10645   8.195   9.764   4.667  0.4181  0.0975 -0.4074
32889SOL    HW110646   8.178   9.692   4.728  1.1291  1.1456  1.0954
32889SOL    HW210647   8.110   9.806   4.656  0.2759 -0.1090 -0.1243
32890SOL     OW10648   6.258   6.378  11.938  0.2564 -0.5008 -0.0427
32890SOL    HW110649   6.233   6.324  11.863 -0.4048 -0.3257  0.0535
32890SOL    HW210650   6.305   6.452  11.900 -1.3741  0.3667 -0.4142
32891SOL     OW10651   2.185   7.840  11.184  0.1411 -0.1171  0.4556
32891SOL    HW110652   2.244   7.903  11.225 -1.0385  1.7747 -0.6729
32891SOL    HW210653   2.221   7.827  11.097 -0.0822 -0.3914  0.4035
32892SOL     OW10654  12.208   0.794  10.967  0.6018 -0.0290  0.3783
32892SOL    HW110655  12.129   0.751  10.932  0.9807 -1.3825  1.1289
32892SOL    HW210656  12.280   0.754  10.919  0.9118  0.5153  0.3798
32893SOL     OW10657   5.985   6.158   7.055 -0.4542  0.0249  0.0304
32893SOL    HW110658   5.982   6.099   7.130 -1.9154 -0.5720 -0.4748
32893SOL    HW210659   6.038   6.111   6.990 -1.8840 -0.9286 -0.4945
32894SOL     OW10660  10.358   2.812   3.758 -0.4944 -0.5724  0.4927
32894SOL    HW110661  10.357   2.907   3.765  1.0491 -0.2799 -1.8621
32894SOL    HW210662  10.394   2.782   3.842 -0.7031  0.9305  1.1484
32895SOL     OW10663  10.888   5.656  11.077  0.4610  0.1409 -0.7489
32895SOL    HW110664  10.901   5.737  11.125  1.3566  0.2617 -1.1843
32895SOL    HW210665  10.952   5.595  11.115  0.0150 -0.2687 -0.6417
32896SOL     OW10666   7.754  11.983   0.664  0.4853  0.5509  0.4687
32896SOL    HW110667   7.775  11.889   0.664  0.3257  0.5139  0.0862
32896SOL    HW210668   7.726  12.001   0.575  2.0287  1.2972  0.1065
32897SOL     OW10669   3.419   8.649  13.570 -0.0428  0.3611  0.0510
32897SOL    HW110670   3.361   8.711  13.615 -0.4768 -0.1353  0.1789
32897SOL    HW210671   3.477   8.705  13.518 -1.0257  0.8394 -0.5603
32898SOL     OW10672  13.032   0.409   6.224  0.2816 -0.0634 -0.1761
32898SOL    HW110673  12.975   0.486   6.233 -0.2205 -0.6275  2.2826
32898SOL    HW210674  12.977   0.342   6.186  0.1426  0.2183 -0.4763
32899SOL     OW10675   2.707   6.461   8.620 -0.0987 -0.1882  0.2171
32899SOL    HW110676   2.802   6.456   8.630 -0.2110 -1.8514  0.8361
32899SOL    HW210677   2.688   6.407   8.542 -0.4696  0.9393 -0.4984
32900SOL     OW10678   1.873   0.718   8.282  0.0333 -0.0662 -0.5359
32900SOL    HW110679   1.867   0.772   8.360  0.5079 -0.3987 -0.2642
32900SOL    HW210680   1.818   0.763   8.217  2.1453  1.9919 -1.0279
32901SOL     OW10681   8.596  13.420   3.260 -0.3567 -0.4807  0.1443
32901SOL    HW110682   8.609  13.511   3.233 -0.1830 -0.1749  1.2291
32901SOL    HW210683   8.507  13.399   3.230 -0.3330 -0.0199 -0.2671
32902SOL     OW10684   8.316  13.656   1.437 -0.0240  0.6485  0.0774
32902SOL    HW110685   8.346  13.711   1.509 -1.1874  1.1839  0.1769
32902SOL    HW210686   8.268  13.716   1.380  0.5939  0.1644 -0.9673
32903SOL     OW10687   0.320  12.392   7.227 -0.2846  0.8362  0.2214
32903SOL    HW110688   0.359  12.478   7.238  3.2723 -0.4845 -0.7824
32903SOL    HW210689   0.297  12.365   7.316 -2.2134  3.0086  0.4846
32904SOL     OW10690   1.168   4.201  10.374 -0.0592 -0.4144 -0.3642
32904SOL    HW110691   1.136   4.123  10.420 -0.7440  0.4675  0.7184
32904SOL    HW210692   1.092   4.232  10.325  0.1332 -0.2771 -0.5738
32905SOL     OW10693   5.453   4.664  11.333  0.0977  0.5631 -0.2047
32905SOL    HW110694   5.464   4.753  11.301 -0.4289  1.0282  0.8932
32905SOL    HW210695   5.533   4.646  11.382 -0.0715  0.6585  0.1050
32906SOL     OW10696   7.592   9.987   2.024 -0.2104 -0.3081 -0.3924
32906SOL    HW110697   7.655   9.917   2.010 -0.9555 -1.2425  0.7509
32906SOL    HW210698   7.632  10.064   1.983  2.6521 -0.3523  1.9611
32907SOL     OW10699  13.045   9.000   6.500 -0.1566 -0.9435  0.3410
32907SOL    HW110700  13.090   8.915   6.494 -0.2310 -0.8993 -1.0484
32907SOL    HW210701  13.030   9.026   6.409 -0.7931  0.2203  0.7613
32908SOL     OW10702   4.774   7.413  13.650 -0.2365 -0.0568 -0.0937
32908SOL    HW110703   4.754   7.422  13.743 -1.2584  1.1470 -0.4048
32908SOL    HW210704   4.821   7.494  13.628 -0.9339  0.1579 -0.8467
32909SOL     OW10705   2.484   8.498  10.247  0.6682  0.4375  0.1987
32909SOL    HW110706   2.403   8.447  10.239  1.2880 -0.5224 -0.1590
32909SOL    HW210707   2.455   8.586  10.270 -0.4670  0.0625  0.2550
32910SOL     OW10708  13.921  12.720   0.361  0.6048 -0.9796 -0.0381
32910SOL    HW110709  14.008  12.720   0.401  0.9131 -1.0595 -0.7075
32910SOL    HW210710  13.910  12.632   0.326 -1.8962 -2.8479  4.6067
32911SOL     OW10711   3.296  12.399   9.367  0.1374  0.4041 -0.0461
32911SOL    HW110712   3.345  12.478   9.391 -0.3420 -0.0611  2.9142
32911SOL    HW210713   3.217  12.432   9.324 -0.0554  1.5980  1.1324
32912SOL     OW10714   3.066   0.819   1.209  0.2536 -0.1254  0.5534
32912SOL    HW110715   3.104   0.774   1.134 -0.6923 -1.1537  0.6733
32912SOL    HW210716   3.135   0.879   1.238  1.0625 -0.5610 -0.4014
32913SOL     OW10717  10.950   0.154   4.442  0.0309 -0.0486  0.2929
32913SOL    HW110718  10.953   0.190   4.531  0.1483 -0.2202  0.3589
32913SOL    HW210719  10.975   0.227   4.386  0.9755 -0.2112  0.4778
32914SOL     OW10720   7.143   5.335   0.403 -0.1386 -0.8772 -0.1130
32914SOL    HW110721   7.195   5.390   0.344 -2.8845 -0.4262 -2.3194
32914SOL    HW210722   7.105   5.397   0.466  3.0712 -1.3974  2.6093
32915SOL     OW10723   4.246   6.547   8.239  0.2138  0.0929 -0.0780
32915SOL    HW110724   4.248   6.572   8.146 -1.2865  1.2576  0.1623
32915SOL    HW210725   4.170   6.488   8.246  0.1341  0.2547  0.4530
32916SOL     OW10726   4.745   5.677   7.277 -0.2566  0.0177 -0.2234
32916SOL    HW110727   4.701   5.729   7.344 -0.3311 -0.8048  0.3839
32916SOL    HW210728   4.716   5.587   7.294  0.8944 -0.4049 -0.4166
32917SOL     OW10729   8.816   3.303  13.110 -0.6620  0.2618 -0.0649
32917SOL    HW110730   8.723   3.322  13.127 -1.5513 -2.5508 -1.1279
32917SOL    HW210731   8.818   3.276  13.018  0.9366 -1.1335  0.3319
32918SOL     OW10732  12.288   9.807   5.108 -0.1248  0.2473 -0.1210
32918SOL    HW110733  12.356   9.752   5.068  0.8284  1.4502 -0.2162
32918SOL    HW210734  12.235   9.747   5.159  2.0640 -0.5153  1.3963
32919SOL     OW10735   7.553   5.791   2.021 -0.0437 -0.3077  0.8480
32919SOL    HW110736   7.590   5.728   2.083  1.9573  1.2520  1.3388
32919SOL    HW210737   7.490   5.740   1.970  0.1565 -2.2526  2.4166
32920SOL     OW10738   3.253  13.577   6.454 -0.0153 -0.9431 -0.1023
32920SOL    HW110739   3.164  13.547   6.469 -0.3901  0.4252  0.6390
32920SOL    HW210740   3.279  13.614   6.539  1.4049 -1.6737 -0.1930
32921SOL     OW10741   1.408   4.976   0.279  0.2919  0.6650  0.0603
32921SOL    HW110742   1.347   4.916   0.238 -0.4459  0.3548  1.5243
32921SOL    HW210743   1.444   5.028   0.207  0.1983 -0.8334 -1.1179
32922SOL     OW10744   7.248   2.044   5.583 -0.1408 -0.2613 -0.2625
32922SOL    HW110745   7.237   2.060   5.489 -0.0398 -2.3432 -0.6698
32922SOL    HW210746   7.243   1.949   5.592  2.2210 -0.3043  1.5421
32923SOL     OW10747   1.492  11.096   5.941  0.3432 -0.6331  0.4402
32923SOL    HW110748   1.492  11.078   5.847  1.5960 -1.1125  0.5026
32923SOL    HW210749   1.563  11.159   5.954  2.3377 -2.8848  1.3946
32924SOL     OW10750   9.899   5.121  13.805  0.2719 -0.0587 -0.3475
32924SOL    HW110751   9.858   5.145  13.722 -0.0069 -0.6134 -0.3751
32924SOL    HW210752   9.940   5.202  13.836  0.3556  0.1563 -1.0093
32925SOL     OW10753   8.447   7.198  11.111  0.3524 -0.1628 -0.1660
32925SOL    HW110754   8.471   7.251  11.035 -0.8628  1.1554  0.3231
32925SOL    HW210755   8.352   7.195  11.109  0.3057 -0.1558  1.2730
32926SOL     OW10756   1.990   0.976   6.799 -0.1271  0.3075 -0.0323
32926SOL    HW110757   1.917   1.030   6.830 -1.6139 -1.3947 -0.3578
32926SOL    HW210758   2.049   0.970   6.874 -1.9233 -0.8356  1.3731
32927SOL     OW10759  12.187   6.787  12.212  0.9889  0.2514 -0.1514
32927SOL    HW110760  12.178   6.806  12.118 -1.9165  0.4780  0.0973
32927SOL    HW210761  12.237   6.861  12.246  0.0390  1.4133 -1.1629
32928SOL     OW10762   6.840   4.239   7.525 -0.0282  0.8152  0.5819
32928SOL    HW110763   6.801   4.192   7.599  0.9817  0.2025  0.7422
32928SOL    HW210764   6.773   4.235   7.457 -0.7373  0.8654  1.2596
32929SOL     OW10765  11.120   1.588   9.319 -0.2770  0.1286  0.0329
32929SOL    HW110766  11.049   1.526   9.305 -0.4110 -0.0014  1.2218
32929SOL    HW210767  11.076   1.672   9.332 -0.0818  0.6069 -2.0184
32930SOL     OW10768   1.654   5.711  10.603  0.4075 -0.3857 -0.3727
32930SOL    HW110769   1.696   5.733  10.687  0.0196 -0.9569 -0.0269
32930SOL    HW210770   1.677   5.619  10.589 -0.6145 -0.6688 -0.2444
32931SOL     OW10771   6.267   9.637  11.676 -0.4814 -0.2820  0.7092
32931SOL    HW110772   6.264   9.543  11.657 -0.2964 -0.0188 -0.8104
32931SOL    HW210773   6.200   9.651  11.742 -1.0725 -1.3582  0.3597
32932SOL     OW10774   4.311   9.306   1.696  0.2708 -0.3376 -0.2337
32932SOL    HW110775   4.227   9.353   1.692  0.3472  0.0982  2.0884
32932SOL    HW210776   4.297   9.237   1.760  1.6058 -0.4390 -0.0259
32933SOL     OW10777   8.741   3.489  11.017  0.5237 -0.3869 -0.3664
32933SOL    HW110778   8.817   3.521  11.065 -0.3846  2.5208 -0.6239
32933SOL    HW210779   8.717   3.408  11.060  2.5599 -0.3267  1.0025
32934SOL     OW10780  12.953   9.673   1.438  0.0726  0.1343  0.3881
32934SOL    HW110781  12.932   9.579   1.436 -0.2236  0.2088 -0.7774
32934SOL    HW210782  13.015   9.685   1.366 -3.2804  1.5665 -2.5625
32935SOL     OW10783   7.010   1.536  11.918 -0.2524  0.5357  0.3018
32935SOL    HW110784   6.917   1.521  11.939  0.6090 -2.3714  2.7347
32935SOL    HW210785   7.039   1.453  11.881  1.3156  1.5925 -0.9500
32936SOL     OW10786   2.549   5.761  10.485 -0.7872 -0.4251 -0.2670
32936SOL    HW110787   2.547   5.671  10.452 -0.5602 -0.9144  1.0244
32936SOL    HW210788   2.575   5.813  10.409 -2.0987 -1.2746 -1.3630
32937SOL     OW10789   9.826   7.455   3.860 -0.1999  0.5332 -0.2034
32937SOL    HW110790   9.870   7.487   3.782  0.7793  0.8267  0.4507
32937SOL    HW210791   9.886   7.390   3.897  0.0389  1.4406  1.0762
32938SOL     OW10792   0.155   6.489   4.978  0.6605  0.6653  0.0537
32938SOL    HW110793   0.200   6.532   5.051  0.5638 -1.5498  1.5183
32938SOL    HW210794   0.226   6.458   4.922  0.7349  2.4218 -0.9165
32939SOL     OW10795   0.182  13.149   2.080  0.1686  1.2394 -0.1168
32939SOL    HW110796   0.168  13.212   2.151  2.1336  0.5946  0.9414
32939SOL    HW210797   0.252  13.188   2.027 -0.3395  1.0876 -0.9018
32940SOL     OW10798   1.027  13.669   5.907  0.2958  0.2094 -0.1828
32940SOL    HW110799   1.072  13.593   5.944 -0.6941  0.1215  0.9133
32940SOL    HW210800   1.090  13.741   5.917  0.3820 -0.0015  0.9008
32941SOL     OW10801   8.080  11.399  12.002 -0.2495 -0.0782 -0.2799
32941SOL    HW110802   8.078  11.353  12.085 -0.7954 -0.1430 -0.3252
32941SOL    HW210803   8.111  11.333  11.939 -1.8160 -0.6413 -0.4933
32942SOL     OW10804   5.987   1.947   6.624 -0.0760  0.5765 -0.1914
32942SOL    HW110805   5.975   2.034   6.662 -1.5608  0.3941 -0.1828
32942SOL    HW210806   5.943   1.953   6.538 -1.4218 -0.5360  0.3798
32943SOL     OW10807   7.526   4.182   2.504 -0.1564 -0.2103 -0.2671
32943SOL    HW110808   7.575   4.174   2.586 -3.8037  1.3050  2.3481
32943SOL    HW210809   7.514   4.092   2.474  1.5394 -0.7839  0.6571
32944SOL     OW10810   5.762   8.479   6.723  0.1691  0.2737  0.3553
32944SOL    HW110811   5.818   8.424   6.778  0.5432  0.8081  0.5189
32944SOL    HW210812   5.821   8.517   6.658  0.2659  1.8748  1.3258
32945SOL     OW10813   0.069  11.547   9.457  0.3215 -0.1356  0.5540
32945SOL    HW110814   0.158  11.548   9.491 -0.1407  0.3959  1.7933
32945SOL    HW210815   0.022  11.612   9.509 -0.5705  0.2966 -0.7251
32946SOL     OW10816   0.884   6.017   9.651 -0.1760 -0.2885 -0.1624
32946SOL    HW110817   0.837   6.011   9.734 -0.9143  1.8180 -0.3622
32946SOL    HW210818   0.977   6.010   9.675 -0.4348 -1.2238  0.6206
32947SOL     OW10819   9.051   8.994  11.370 -0.1233 -0.0949  0.5622
32947SOL    HW110820   9.076   9.066  11.428 -0.5138  0.1759  0.4003
32947SOL    HW210821   9.123   8.932  11.376 -0.1410 -0.0517  1.3101
32948SOL     OW10822   4.782  11.783  12.556  0.4591  0.7279  0.1457
32948SOL    HW110823   4.789  11.814  12.466 -1.3276  0.6305 -0.0650
32948SOL    HW210824   4.718  11.711  12.552 -0.8964  1.7594  1.6837
32949SOL     OW10825   8.624  12.309  12.844  0.1610  0.6285 -0.4771
32949SOL    HW110826   8.673  12.359  12.909  0.5187 -1.2962  0.8226
32949SOL    HW210827   8.602  12.227  12.889 -1.4322  0.0959 -2.1088
32950SOL     OW10828   3.785   5.793   4.285  0.3760 -0.7658  0.0530
32950SOL    HW110829   3.870   5.800   4.329  0.0445 -1.1456  0.7725
32950SOL    HW210830   3.801   5.732   4.213  0.8589 -0.3552 -0.1962
32951SOL     OW10831  12.280   9.864   1.146 -0.3651  0.4540  0.2269
32951SOL    HW110832  12.344   9.847   1.076 -0.9755 -0.3185 -0.1607
32951SOL    HW210833  12.231   9.941   1.116 -1.1693 -0.3569 -0.6095
32952SOL     OW10834   8.669  11.840   1.253  0.4832  0.6172  0.6608
32952SOL    HW110835   8.607  11.909   1.229 -0.7186 -0.4630  0.5700
32952SOL    HW210836   8.745  11.856   1.196  0.3264  1.9674  0.7812
32953SOL     OW10837   2.333  13.799  11.091  0.0275 -0.7328 -0.2293
32953SOL    HW110838   2.319  13.709  11.062 -2.9448 -0.5803  0.3862
32953SOL    HW210839   2.245  13.831  11.115  0.7782  2.7140 -1.4557
32954SOL     OW10840   2.988  10.308  12.128  0.1656 -0.1789 -0.3037
32954SOL    HW110841   2.993  10.222  12.170 -0.9543 -0.4938 -0.7704
32954SOL    HW210842   3.047  10.363  12.180 -1.5244 -0.4035  2.0544
32955SOL     OW10843  13.426   0.116   4.687  0.3767 -0.2200 -0.1907
32955SOL    HW110844  13.379   0.157   4.614  1.6856  0.1341 -0.8604
32955SOL    HW210845  13.402   0.169   4.763 -0.8508 -0.4773 -0.3742
32956SOL     OW10846   3.835   1.860   0.836  0.5558 -0.1364 -0.0884
32956SOL    HW110847   3.791   1.779   0.808  1.6800 -1.0136  0.5883
32956SOL    HW210848   3.837   1.914   0.757 -1.1482 -0.3136 -0.3028
32957SOL     OW10849  12.668   4.546   0.610  0.5033  0.3447 -0.5883
32957SOL    HW110850  12.717   4.625   0.587 -0.0563  0.3141 -1.9909
32957SOL    HW210851  12.586   4.553   0.560 -0.0393 -0.5879  0.1276
32958SOL     OW10852   4.981   0.906   9.484  0.2437 -0.1291 -0.0470
32958SOL    HW110853   4.940   0.988   9.457 -0.9357 -0.1583  1.4966
32958SOL    HW210854   5.068   0.930   9.515  0.2167  0.4076 -0.3802
32959SOL     OW10855   5.625   0.365   0.924 -0.0109  0.3085  0.3281
32959SOL    HW110856   5.546   0.313   0.906  0.6147 -0.8623  0.8782
32959SOL    HW210857   5.677   0.310   0.982  1.6979  0.6075 -0.8523
32960SOL     OW10858  13.986   9.238   5.274 -0.1482 -0.5753 -0.1136
32960SOL    HW110859  13.918   9.237   5.207  0.7670 -1.7981 -1.0640
32960SOL    HW210860  13.970   9.159   5.325 -1.1316  0.5828  1.4819
32961SOL     OW10861   6.586   7.288  12.576  0.0488 -0.1729 -0.0096
32961SOL    HW110862   6.553   7.198  12.570  0.7044 -0.4573  0.5579
32961SOL    HW210863   6.521   7.334  12.629  0.0149 -0.4570  0.1975
32962SOL     OW10864   2.321   9.314   9.866 -0.0006 -0.1669 -0.0109
32962SOL    HW110865   2.254   9.377   9.892  0.0543  0.2934 -0.9337
32962SOL    HW210866   2.388   9.366   9.822  0.7881 -0.6745  0.5579
32963SOL     OW10867   9.838   0.583   3.152  0.1524  0.1648 -0.4969
32963SOL    HW110868   9.890   0.659   3.126 -0.3392 -0.1337 -2.5171
32963SOL    HW210869   9.822   0.536   3.071 -2.7514 -0.0866  0.1002
32964SOL     OW10870   4.599  10.941   3.158  0.3106 -0.2508  0.3498
32964SOL    HW110871   4.595  10.853   3.121  1.6352  0.3109 -1.2506
32964SOL    HW210872   4.679  10.941   3.211 -0.8288 -0.6107  2.1954
32965SOL     OW10873  11.782  12.791  10.822 -0.2889 -0.6925 -0.5282
32965SOL    HW110874  11.698  12.756  10.792 -0.7575 -0.1124  0.0650
32965SOL    HW210875  11.776  12.885  10.804  0.3815 -0.7018 -0.8121
32966SOL     OW10876   1.636  12.312   4.125  0.6572  0.3482  0.7103
32966SOL    HW110877   1.577  12.237   4.132  0.0701  0.9062  2.2113
32966SOL    HW210878   1.588  12.385   4.163  1.4216  1.3837 -0.2421
32967SOL     OW10879   5.569  11.605  11.830 -0.0123 -0.0254 -0.5222
32967SOL    HW110880   5.638  11.542  11.810  1.6215  1.2688  0.7007
32967SOL    HW210881   5.598  11.647  11.911 -2.1743  0.7042 -0.0511
32968SOL     OW10882   1.592  10.190  11.550  0.0297  0.2168  0.5634
32968SOL    HW110883   1.605  10.106  11.506  1.2152  1.0274 -0.7058
32968SOL    HW210884   1.571  10.251  11.480  2.9368  1.7526  0.8756
32969SOL     OW10885  12.231   2.497   3.579  0.3984  0.0434 -0.4228
32969SOL    HW110886  12.307   2.460   3.624  0.3227 -0.1952 -0.4907
32969SOL    HW210887  12.170   2.519   3.650  1.2036  1.8236 -0.2199
32970SOL     OW10888   5.827   4.848  12.255  0.0165  0.0860 -0.3036
32970SOL    HW110889   5.757   4.873  12.194  0.7081 -2.2059 -2.1780
32970SOL    HW210890   5.884   4.925  12.259 -0.9704  0.8890 -1.2006
32971SOL     OW10891   1.037  12.886  12.650 -0.2124 -0.4527 -0.6090
32971SOL    HW110892   0.957  12.835  12.645 -0.1556 -0.4794 -1.2610
32971SOL    HW210893   1.107  12.823  12.631 -0.0479 -0.3896 -0.2256
32972SOL     OW10894  12.563   5.890   8.414 -0.0881  0.4140 -0.0646
32972SOL    HW110895  12.590   5.865   8.503  0.7781  2.4890  0.3062
32972SOL    HW210896  12.643   5.885   8.362 -0.9957 -3.1024 -1.4099
32973SOL     OW10897  10.480  11.560   1.934 -0.1117 -0.3181 -0.0148
32973SOL    HW110898  10.415  11.511   1.984  0.3272  0.1422  1.0312
32973SOL    HW210899  10.550  11.497   1.917  0.0761 -0.2784  0.6077
32974SOL     OW10900   6.528   3.525   0.187  0.2272 -0.0831  0.4089
32974SOL    HW110901   6.525   3.619   0.172  0.7290 -0.3408 -1.6332
32974SOL    HW210902   6.436   3.497   0.184  0.1588  0.1931 -0.1388
32975SOL     OW10903   8.649   2.735  13.749 -0.3327 -0.0568 -0.2398
32975SOL    HW110904   8.628   2.828  13.748 -1.2861 -0.1938  2.0920
32975SOL    HW210905   8.716   2.726  13.816  0.1568 -1.0025 -0.8266
32976SOL     OW10906  13.580  10.833   6.304  0.2788  0.3904 -1.2314
32976SOL    HW110907  13.665  10.816   6.345  0.0151 -0.6071 -1.0544
32976SOL    HW210908  13.573  10.766   6.236 -0.2940  0.5731 -1.3532
32977SOL     OW10909   1.609   7.141   4.402 -0.0217  0.4003  0.2722
32977SOL    HW110910   1.578   7.231   4.412  0.7470  0.6034  0.9410
32977SOL    HW210911   1.673   7.145   4.331 -1.1986  0.0450 -0.8645
32978SOL     OW10912   3.523   1.013   1.319 -0.2026  0.3623 -0.6556
32978SOL    HW110913   3.437   0.992   1.284 -0.3947 -0.6500  0.3623
32978SOL    HW210914   3.529   0.962   1.400  0.6860  1.7126  0.1625
32979SOL     OW10915   5.707  12.362  10.318 -0.1445  0.0415  0.0725
32979SOL    HW110916   5.642  12.292  10.308 -2.5545  1.9091  1.6563
32979SOL    HW210917   5.748  12.344  10.403 -2.0741  1.4572  1.3732
32980SOL     OW10918   9.952   1.369  11.735 -0.4114  0.2303  0.3950
32980SOL    HW110919   9.867   1.404  11.758 -0.2075  0.5300  0.6999
32980SOL    HW210920   9.942   1.339  11.644 -0.2409  2.2443 -0.3293
32981SOL     OW10921   7.485   9.343  13.314 -0.3474  0.3654 -0.7819
32981SOL    HW110922   7.572   9.383  13.320  0.3114 -1.1111  0.0609
32981SOL    HW210923   7.503   9.249  13.314 -2.0168 -0.0039  0.9288
32982SOL     OW10924   4.574   3.812   6.341 -0.2580  0.3486 -0.4791
32982SOL    HW110925   4.640   3.773   6.284 -1.0287 -0.8468 -0.5811
32982SOL    HW210926   4.512   3.742   6.357 -0.5238  0.9171  1.1394
32983SOL     OW10927  13.017  13.705  12.496 -0.4574  0.3616 -0.1596
32983SOL    HW110928  13.101  13.664  12.518  1.7059  4.0345 -0.7429
32983SOL    HW210929  12.969  13.707  12.579  0.9894  0.1746  0.7167
32984SOL     OW10930   1.127  12.246   3.342 -0.4265  0.1128  0.6963
32984SOL    HW110931   1.138  12.309   3.271  1.0567 -0.1363  0.6741
32984SOL    HW210932   1.038  12.259   3.373 -0.3788  1.7187  0.2091
32985SOL     OW10933   7.958  13.659  12.470  0.5646 -0.0807  0.0124
32985SOL    HW110934   7.959  13.594  12.540  0.5680  0.5310  0.5881
32985SOL    HW210935   7.921  13.738  12.511  0.9546  0.4088 -0.5617
32986SOL     OW10936   8.644   3.095  12.171  0.1786 -0.6757  0.0416
32986SOL    HW110937   8.670   3.057  12.087 -1.6593 -0.8361 -0.4888
32986SOL    HW210938   8.720   3.147  12.197  0.3912  0.3199 -2.2833
32987SOL     OW10939   0.142   8.941   6.970  0.4711  0.2493  0.6241
32987SOL    HW110940   0.111   8.912   6.884 -0.4481  0.4651  0.8674
32987SOL    HW210941   0.236   8.955   6.959  0.5226 -0.6052 -0.0972
32988SOL     OW10942   1.908   4.504   3.548  0.2113 -0.6457 -0.4303
32988SOL    HW110943   1.917   4.592   3.512  0.8530 -0.7099 -0.4396
32988SOL    HW210944   1.981   4.455   3.510 -0.9571 -1.5811 -1.5758
32989SOL     OW10945   3.707   8.069  12.396 -0.3617  0.0462 -0.0304
32989SOL    HW110946   3.772   8.123  12.442  0.2356 -0.2750 -0.4781
32989SOL    HW210947   3.623   8.102  12.427  0.0104  0.5503  0.4788
32990SOL     OW10948   0.206   7.229   7.097 -0.5688  0.3626 -0.2165
32990SOL    HW110949   0.158   7.156   7.136 -0.4395 -0.1466 -0.9836
32990SOL    HW210950   0.141   7.298   7.087 -1.3891 -0.6122 -2.0354
32991SOL     OW10951   6.326   1.473   3.402 -0.6716 -0.1478  0.4393
32991SOL    HW110952   6.362   1.394   3.360  0.6303  1.6840 -2.2245
32991SOL    HW210953   6.390   1.542   3.382 -3.6304  2.4622 -0.9774
32992SOL     OW10954  13.774   0.072   6.341 -0.0170  0.0011  0.0202
32992SOL    HW110955  13.679   0.088   6.347  0.4240  2.7886  2.4576
32992SOL    HW210956  13.790   0.002   6.404 -0.4685 -0.4146 -0.3261
32993SOL     OW10957   6.503   4.308  11.632  0.1446 -0.3200 -0.1375
32993SOL    HW110958   6.509   4.285  11.539 -1.0064 -1.9445  0.1386
32993SOL    HW210959   6.592   4.300  11.664  0.8351  1.6596 -1.3503
32994SOL     OW10960  10.116  13.555  10.162  0.0738 -0.2756  0.2138
32994SOL    HW110961  10.133  13.533  10.254  3.8484 -0.0514 -0.2649
32994SOL    HW210962  10.104  13.650  10.163 -1.8506 -0.4821  0.6227
32995SOL     OW10963  11.962   3.662   7.645  0.7951 -0.2587 -0.2772
32995SOL    HW110964  12.032   3.646   7.707  0.0013  1.2270  1.0625
32995SOL    HW210965  11.960   3.757   7.634  1.4943 -0.5033 -3.3194
32996SOL     OW10966   7.206  11.313   0.679 -0.2620 -0.2107 -0.4611
32996SOL    HW110967   7.261  11.391   0.676 -0.0450 -0.3816 -1.6509
32996SOL    HW210968   7.214  11.281   0.769  0.0928  0.8174 -0.1158
32997SOL     OW10969   8.943   0.510  10.217  0.0639  0.2737  0.1677
32997SOL    HW110970   8.944   0.444  10.287  0.1003 -0.3217 -0.3879
32997SOL    HW210971   8.967   0.591  10.261 -0.7158  0.0668  1.0126
32998SOL     OW10972   0.883  11.524   0.508  0.0396 -0.1576  0.4329
32998SOL    HW110973   0.891  11.464   0.582  0.9796  1.9373  2.1436
32998SOL    HW210974   0.794  11.558   0.514  0.3012  0.4470  0.9842
32999SOL     OW10975   7.550   3.425   5.935 -0.0496 -0.6809  0.1642
32999SOL    HW110976   7.500   3.361   5.885  1.7329 -0.6316 -1.8726
32999SOL    HW210977   7.540   3.507   5.886  0.1962 -0.1432  0.9841
33000SOL     OW10978   0.974  13.343  10.564 -0.8412  0.0152  0.1254
33000SOL    HW110979   0.979  13.300  10.649 -1.4233 -1.4557 -0.5400
33000SOL    HW210980   0.881  13.337  10.540 -1.0924  2.3164  0.2940
33001SOL     OW10981   3.479   6.380   9.879 -0.5843  0.0037  0.2204
33001SOL    HW110982   3.397   6.335   9.858 -0.3079 -0.5170  0.2268
33001SOL    HW210983   3.510   6.336   9.958  0.1778 -0.4407 -0.3187
33002SOL     OW10984   5.433   0.642   6.455  0.3552  0.5734  0.4222
33002SOL    HW110985   5.359   0.676   6.405 -0.6100 -0.4390  1.1164
33002SOL    HW210986   5.501   0.708   6.444 -0.4301  1.2358 -0.7373
33003SOL     OW10987  12.190   2.500   4.106 -0.8186 -0.0693  0.3720
33003SOL    HW110988  12.256   2.455   4.055  0.5186  2.0753  0.1004
33003SOL    HW210989  12.209   2.475   4.197 -0.7421 -0.8007  0.1643
33004SOL     OW10990  12.174   6.322   9.372  0.4437 -0.8968  0.0664
33004SOL    HW110991  12.098   6.264   9.366 -0.6177  0.4629 -0.1674
33004SOL    HW210992  12.158   6.373   9.451 -0.0383  0.9314 -1.1652
33005SOL     OW10993  12.145   0.189   0.164  0.0208 -0.0399  0.5906
33005SOL    HW110994  12.056   0.196   0.129 -0.7158  0.1925  2.3752
33005SOL    HW210995  12.201   0.184   0.087 -1.3878  1.6148 -0.6304
33006SOL     OW10996   8.799   0.706   7.570 -0.2653  0.4133 -0.2960
33006SOL    HW110997   8.859   0.707   7.645 -0.1527 -0.1921 -0.3724
33006SOL    HW210998   8.779   0.613   7.558 -0.4982  0.5369 -0.8448
33007SOL     OW10999   9.064   4.870   6.048  0.1443  0.8731 -0.1654
33007SOL    HW111000   9.041   4.954   6.009  1.5068  1.8558  1.0190
33007SOL    HW211001   9.156   4.880   6.073 -0.6850  0.5668  3.6420
33008SOL     OW11002   9.956   0.219   7.423  0.2552  0.0956 -0.2498
33008SOL    HW111003   9.867   0.202   7.455  0.1881 -0.8196 -0.8738
33008SOL    HW211004   9.958   0.177   7.336  1.4174 -0.2720 -0.0591
33009SOL     OW11005   9.675   0.621  13.291  0.0329  0.0139 -0.0709
33009SOL    HW111006   9.686   0.701  13.238 -0.5067  0.9843  1.2223
33009SOL    HW211007   9.630   0.560  13.233  0.0378  0.8144 -0.9467
33010SOL     OW11008   6.252   5.029   9.496  0.4125 -0.0820 -0.1788
33010SOL    HW111009   6.193   4.963   9.534  0.7691 -0.3357 -0.0533
33010SOL    HW211010   6.244   5.104   9.554 -0.1306  0.0503 -0.4211
33011SOL     OW11011   7.363   7.309   0.276  0.3295 -0.0399 -0.0955
33011SOL    HW111012   7.455   7.283   0.282  0.2599 -0.0831  1.1499
33011SOL    HW211013   7.317   7.246   0.332 -0.7929 -1.3875 -2.3912
33012SOL     OW11014   8.900  13.096   9.619 -0.1034 -0.4754 -0.1621
33012SOL    HW111015   8.946  13.180   9.625  0.5730 -0.8515  0.0756
33012SOL    HW211016   8.961  13.033   9.658 -0.4647 -1.1302 -0.6413
33013SOL     OW11017  10.754   9.920   4.252 -0.0999  0.2535  0.0945
33013SOL    HW111018  10.815   9.877   4.313 -0.9399 -1.2225 -0.0537
33013SOL    HW211019  10.682   9.951   4.307 -1.2738 -1.8233 -0.1529
33014SOL     OW11020   4.576   3.948   5.493 -0.3974  0.0528  0.4126
33014SOL    HW111021   4.624   3.873   5.526  1.1132  0.1073 -1.4844
33014SOL    HW211022   4.592   4.018   5.557  0.4694 -0.4728  0.7807
33015SOL     OW11023  12.150   6.011  13.169  0.2796 -0.7234 -0.3377
33015SOL    HW111024  12.104   5.945  13.221  0.9593 -2.5216 -1.9032
33015SOL    HW211025  12.241   6.005  13.198 -0.0065  1.1858  1.1116
33016SOL     OW11026   1.811   1.252   2.490 -0.4114  0.3176 -0.5704
33016SOL    HW111027   1.840   1.161   2.478 -1.3084  0.1807 -1.9409
33016SOL    HW211028   1.729   1.257   2.442 -0.8593  1.6218  0.2914
33017SOL     OW11029   8.975  12.886   9.822  0.3426 -0.0208  0.5701
33017SOL    HW111030   8.959  12.924   9.908  2.4191  2.0488  0.1407
33017SOL    HW211031   9.033  12.812   9.838  2.8208  1.8484  0.8697
33018SOL     OW11032   3.764  11.802  11.031 -0.1250  0.7877  0.1986
33018SOL    HW111033   3.826  11.729  11.035 -0.2854  0.5095 -1.7243
33018SOL    HW211034   3.678  11.762  11.039 -0.1625  1.1493  2.5648
33019SOL     OW11035   8.756  13.112   7.627 -0.4817 -0.2681  0.4377
33019SOL    HW111036   8.847  13.131   7.649 -0.3043 -0.8520  0.2232
33019SOL    HW211037   8.752  13.017   7.624 -1.0966 -0.2419  0.4264
33020SOL     OW11038   0.618   4.738   6.926 -0.1509  0.1453  0.1263
33020SOL    HW111039   0.704   4.748   6.968 -0.5002  0.9082  0.6735
33020SOL    HW211040   0.593   4.826   6.902 -1.8791  0.2887  2.1818
33021SOL     OW11041   2.348   4.697  12.188 -0.3852 -0.4556 -0.6681
33021SOL    HW111042   2.444   4.695  12.192 -0.3956 -0.4309 -0.3243
33021SOL    HW211043   2.320   4.655  12.270 -0.6440  2.3279  0.8263
33022SOL     OW11044   2.567   5.537   7.051 -0.4674  0.2858 -0.0427
33022SOL    HW111045   2.520   5.616   7.078  0.6402  1.4211 -1.2706
33022SOL    HW211046   2.519   5.465   7.092 -3.0147  1.3954 -0.8631
33023SOL     OW11047   9.731   8.486   4.011 -0.1853  0.3697 -0.6127
33023SOL    HW111048   9.675   8.408   3.999  1.1912 -0.9326  0.9072
33023SOL    HW211049   9.775   8.471   4.094  2.0852  1.5548 -1.5083
33024SOL     OW11050   7.202   0.828   9.273  0.1856 -0.3357  0.1798
33024SOL    HW111051   7.236   0.917   9.269 -2.1850  0.6687  0.6957
33024SOL    HW211052   7.141   0.829   9.347  1.1982 -2.8311  1.1615
33025SOL     OW11053  13.935   7.471   7.519 -0.1664  0.3015  0.7630
33025SOL    HW111054  13.912   7.398   7.462 -0.4216 -0.7529  2.1852
33025SOL    HW211055  13.851   7.501   7.555  0.0119  0.8336  0.7439
33026SOL     OW11056   4.281  10.004   8.770 -0.6359 -0.3680 -0.1268
33026SOL    HW111057   4.191  10.029   8.750 -0.1427  0.8578 -0.9748
33026SOL    HW211058   4.320  10.084   8.805 -0.1862 -1.2181  1.4009
33027SOL     OW11059   3.490   3.050   7.397  0.3382  0.5888 -0.1144
33027SOL    HW111060   3.540   3.021   7.320  0.1083 -0.3608  0.0784
33027SOL    HW211061   3.414   2.992   7.398  0.9930 -0.3078  1.5772
33028SOL     OW11062   0.493   5.389  11.451  0.3862 -0.4561  0.0453
33028SOL    HW111063   0.463   5.462  11.505  2.9011 -0.1833  1.1926
33028SOL    HW211064   0.588   5.389  11.460  0.7453 -1.7704 -2.6956
33029SOL     OW11065   3.045   9.517   1.806  0.2520  0.2844  0.0568
33029SOL    HW111066   3.131   9.508   1.765  0.3038  0.0680  0.2129
33029SOL    HW211067   3.007   9.430   1.802  0.5342  0.1026  1.0804
33030SOL     OW11068   1.404   0.228   2.593  0.1449  0.3383  0.1922
33030SOL    HW111069   1.473   0.166   2.617 -0.9235 -1.0587 -0.2286
33030SOL    HW211070   1.398   0.222   2.498  0.9727  2.1753 -0.0289
33031SOL     OW11071   2.880   7.505   6.512  0.5405 -0.3538  0.4754
33031SOL    HW111072   2.889   7.423   6.561 -1.1153 -1.1319 -0.4340
33031SOL    HW211073   2.791   7.534   6.531  0.4467  0.2025 -0.7214
33032SOL     OW11074   3.940  10.843   7.573  0.0658 -0.1221 -0.1833
33032SOL    HW111075   3.977  10.917   7.525 -1.6114  0.1056 -1.1993
33032SOL    HW211076   3.963  10.766   7.521  0.8446 -0.2152  0.2812
33033SOL     OW11077  10.245   7.615   8.527 -0.3609 -0.1307 -0.3647
33033SOL    HW111078  10.338   7.618   8.503 -0.3098  4.0562 -0.3040
33033SOL    HW211079  10.245   7.598   8.621  0.7549  3.7354  0.4958
33034SOL     OW11080   9.494  13.588   0.084  0.1489  0.8064  0.4661
33034SOL    HW111081   9.497  13.551  -0.004 -1.0894  2.1050 -0.1641
33034SOL    HW211082   9.580  13.630   0.095 -0.1533  1.7678 -0.6676
33035SOL     OW11083   4.679   2.006   0.037  0.2381 -0.1289 -0.1618
33035SOL    HW111084   4.587   2.023   0.059  0.4221 -0.3042  0.8120
33035SOL    HW211085   4.677   1.923  -0.011 -0.0757 -0.3893  0.2829
33036SOL     OW11086   5.314   0.827   8.000  0.3284 -0.4351  0.1180
33036SOL    HW111087   5.270   0.795   8.079  2.4870  0.9373  1.9963
33036SOL    HW211088   5.321   0.921   8.013  3.9841 -0.5829  0.1098
33037SOL     OW11089   7.975   4.166   2.958  0.5800  0.4439 -0.3777
33037SOL    HW111090   7.958   4.212   2.876  1.0931  1.6204  0.1549
33037SOL    HW211091   8.057   4.118   2.943  1.9528  2.5183  0.1626
33038SOL     OW11092  10.283   7.504   9.156  0.1415  0.3672 -0.7131
33038SOL    HW111093  10.316   7.531   9.241  0.3676  0.0676 -0.7041
33038SOL    HW211094  10.291   7.409   9.156  0.0557  0.3571 -1.0312
33039SOL     OW11095  13.650   1.133   4.903 -0.2592 -0.3430  0.1649
33039SOL    HW111096  13.745   1.143   4.891 -0.4183  2.1725  0.3966
33039SOL    HW211097  13.626   1.061   4.845  1.5239  0.2276 -1.3773
33040SOL     OW11098   7.427   0.372   8.473  0.2128  0.4057  0.3889
33040SOL    HW111099   7.356   0.430   8.448 -0.2007  0.7549  2.2161
33040SOL    HW211100   7.395   0.284   8.453 -0.6110  0.5883  0.8512
33041SOL     OW11101   1.765  10.256   0.636  0.3592  0.3601 -0.5893
33041SOL    HW111102   1.827  10.216   0.575 -1.2851 -0.3205 -1.9086
33041SOL    HW211103   1.695  10.290   0.580 -0.1543  1.6964  0.7941
33042SOL     OW11104   5.548  13.898  11.504 -0.0008  0.2548 -0.4796
33042SOL    HW111105   5.453  13.911  11.497  0.0366  0.8633  0.0625
33042SOL    HW211106   5.562  13.875  11.595  0.5071  1.4097 -0.2589
33043SOL     OW11107   0.660  13.559   4.344  0.1335  0.2504 -0.0778
33043SOL    HW111108   0.707  13.615   4.405 -2.6024  2.8007 -0.0793
33043SOL    HW211109   0.604  13.505   4.400  0.9358 -0.7109 -0.1864
33044SOL     OW11110  13.786  13.297   4.658  0.1442  0.1850  0.1349
33044SOL    HW111111  13.730  13.224   4.684  0.3753 -0.2156 -0.4608
33044SOL    HW211112  13.751  13.325   4.573 -0.0267  0.8604  0.4202
33045SOL     OW11113   9.169   7.383   8.367  0.0458 -0.1157 -0.1154
33045SOL    HW111114   9.228   7.412   8.298  1.7191 -2.5627  0.1360
33045SOL    HW211115   9.149   7.292   8.344 -1.2598 -0.2461  1.3873
33046SOL     OW11116  12.432   6.798   6.072  0.1616  0.3212  0.1243
33046SOL    HW111117  12.481   6.863   6.123 -0.0932  1.1504 -0.6647
33046SOL    HW211118  12.493   6.771   6.003  1.0246 -1.8502  1.6261
33047SOL     OW11119   5.898   5.498  13.549  0.4224  0.2846 -0.2202
33047SOL    HW111120   5.875   5.590  13.555 -0.7515 -0.0869  1.6572
33047SOL    HW211121   5.993   5.498  13.534  0.1140  1.7614 -2.8091
33048SOL     OW11122   2.266  13.567  10.994  0.5349 -0.1531 -0.2065
33048SOL    HW111123   2.181  13.522  10.990 -0.2658  1.3789 -3.1676
33048SOL    HW211124   2.310  13.542  10.913  1.5759  1.5358 -0.2019
33049SOL     OW11125  13.344   2.615   9.336  0.1060 -0.3674 -0.4288
33049SOL    HW111126  13.369   2.549   9.400  0.2132 -0.1610 -0.2545
33049SOL    HW211127  13.324   2.693   9.389  1.1312  0.1007 -0.6963
33050SOL     OW11128  13.185   8.822  13.601  0.3421 -0.0212  0.4347
33050SOL    HW111129  13.203   8.813  13.695  1.1760 -0.6898  0.2131
33050SOL    HW211130  13.266   8.797  13.558 -0.4354 -0.9628 -0.5213
33051SOL     OW11131   6.793   0.386  12.351 -0.0017  0.1691 -0.2946
33051SOL    HW111132   6.845   0.315  12.389 -1.0679  0.5046  1.8919
33051SOL    HW211133   6.831   0.466  12.386 -0.1550  0.5706 -1.0290
33052SOL     OW11134   0.818   8.926  10.360 -0.6642 -0.0594  0.6762
33052SOL    HW111135   0.734   8.972  10.355 -0.5021  0.3807  1.6457
33052SOL    HW211136   0.803   8.855  10.422 -1.0464 -1.6823 -1.1745
33053SOL     OW11137  13.190   1.744  11.693  0.0934 -0.0666 -0.3371
33053SOL    HW111138  13.179   1.760  11.786  1.2076 -1.0658  0.0047
33053SOL    HW211139  13.109   1.774  11.653  0.7779  3.4182  0.5184
33054SOL     OW11140  12.259   1.923   0.599 -0.4236  0.0599  0.0635
33054SOL    HW111141  12.204   2.001   0.593 -0.1228  0.2552 -0.1870
33054SOL    HW211142  12.204   1.858   0.643 -0.6984  0.3921  0.2147
33055SOL     OW11143   5.532   6.284  13.411  0.2481  0.2910 -0.1529
33055SOL    HW111144   5.480   6.364  13.407  1.4921  1.0756 -1.6248
33055SOL    HW211145   5.554   6.265  13.320  1.4328 -0.7574  0.3237
33056SOL     OW11146   6.424  10.627  11.875 -0.5823  0.3618 -0.2495
33056SOL    HW111147   6.495  10.580  11.830  0.0861  0.3746  0.7505
33056SOL    HW211148   6.393  10.565  11.941 -1.0190  0.6252 -0.2079
33057SOL     OW11149  10.174   6.494  11.971 -0.2390 -0.0660 -0.2874
33057SOL    HW111150  10.118   6.420  11.947  0.0739  0.0731 -1.4701
33057SOL    HW211151  10.115   6.570  11.969 -0.2752 -0.0952 -0.3345
33058SOL     OW11152   1.868  11.984   8.659 -0.2199  0.5974  0.5233
33058SOL    HW111153   1.823  11.973   8.575  0.5983 -2.8382  0.3746
33058SOL    HW211154   1.798  11.978   8.724 -0.4410 -0.9448  0.1801
33059SOL     OW11155   7.908   8.176   2.542  0.1638 -0.2199 -0.0781
33059SOL    HW111156   7.917   8.112   2.613  1.1672  0.4168  0.3853
33059SOL    HW211157   7.850   8.133   2.479  0.5910 -1.4720  0.3497
33060SOL     OW11158   1.211   9.752   2.296  0.0774  0.5052  0.7464
33060SOL    HW111159   1.163   9.784   2.372  0.2842  2.9005 -0.0330
33060SOL    HW211160   1.223   9.830   2.241  3.4039 -0.2949  0.1242
33061SOL     OW11161   3.164   5.229   5.254 -0.0423 -0.1671 -0.8825
33061SOL    HW111162   3.085   5.175   5.249 -0.5301  0.2456  1.3682
33061SOL    HW211163   3.229   5.171   5.292 -0.2221  0.4389  0.3887
33062SOL     OW11164  12.045  12.290  13.908 -0.5405  0.2430  0.9754
33062SOL    HW111165  12.112  12.222  13.898 -0.1560  0.5570  1.3703
33062SOL    HW211166  12.075  12.363  13.855 -0.4106  0.5002  1.3980
33063SOL     OW11167   6.040   2.474   3.699  0.2573  0.5368 -0.8505
33063SOL    HW111168   6.020   2.524   3.620 -1.9787  1.8052  0.4246
33063SOL    HW211169   5.958   2.431   3.723  1.4530 -1.6894 -0.4055
33064SOL     OW11170   4.706   7.763   8.026  0.3586  0.4954 -0.1515
33064SOL    HW111171   4.637   7.698   8.013  1.1120 -0.2616 -0.4795
33064SOL    HW211172   4.675   7.817   8.098 -0.3535 -0.1391  0.0279
33065SOL     OW11173   6.093  11.610  11.412 -0.1125  0.0559 -0.9981
33065SOL    HW111174   6.010  11.610  11.460 -0.8486  0.0974 -2.2558
33065SOL    HW211175   6.107  11.702  11.388  1.2242  0.3664  0.7095
33066SOL     OW11176   3.819   0.924   0.486 -0.4368  0.3921 -0.0237
33066SOL    HW111177   3.909   0.917   0.518 -1.3033 -0.2515  2.5393
33066SOL    HW211178   3.826   0.971   0.403  2.2483  0.2861  0.0624
33067SOL     OW11179   9.023   0.014  10.107  0.2014 -0.1940 -0.3451
33067SOL    HW111180   9.050   0.020  10.198 -2.0798 -2.2216  0.5772
33067SOL    HW211181   8.994   0.103  10.085  1.0551  0.3827  0.8073
33068SOL     OW11182   2.553   0.974   7.174  0.1309  0.2376 -0.1590
33068SOL    HW111183   2.505   0.892   7.187  0.3694 -0.0887 -1.2269
33068SOL    HW211184   2.602   0.960   7.093  1.2658  0.9247  0.3812
33069SOL     OW11185   7.289   1.720  13.828  0.4134 -0.0910 -0.3769
33069SOL    HW111186   7.199   1.731  13.860 -0.2616 -1.4463 -1.6499
33069SOL    HW211187   7.332   1.667  13.895  0.3925  0.8905  0.4272
33070SOL     OW11188  10.265  13.298   6.990  0.4562 -0.3974  0.3353
33070SOL    HW111189  10.206  13.234   6.949 -0.1660  0.6779 -0.4935
33070SOL    HW211190  10.285  13.360   6.920  1.8214 -0.2022  0.8715
33071SOL     OW11191   5.351   8.736   0.011 -0.3377 -0.0446 -0.1398
33071SOL    HW111192   5.399   8.715  -0.069 -1.1721  2.0406 -1.2777
33071SOL    HW211193   5.259   8.730  -0.014 -0.6276 -0.4634  0.9862
33072SOL     OW11194  11.538   7.953   0.898  0.2964 -0.6797  0.1858
33072SOL    HW111195  11.604   8.016   0.871 -0.0410 -0.1128  0.6442
33072SOL    HW211196  11.480   8.002   0.957 -0.2199 -1.3027  0.2200
33073SOL     OW11197   8.147  11.178   8.601 -0.2373  0.4015 -0.0674
33073SOL    HW111198   8.129  11.241   8.532 -0.3686  1.2379  0.7005
33073SOL    HW211199   8.243  11.175   8.607 -0.2240  1.3443  0.5774
33074SOL     OW11200  13.137   5.997   0.486  0.1828 -0.2271 -0.5360
33074SOL    HW111201  13.045   6.004   0.461  0.4517 -0.8889 -1.8547
33074SOL    HW211202  13.137   5.936   0.560 -0.2974 -1.8380 -1.7955
33075SOL     OW11203   4.475  10.575   2.520 -0.5948  0.0127 -0.0372
33075SOL    HW111204   4.508  10.653   2.476 -0.1818  0.2143  0.6198
33075SOL    HW211205   4.541  10.508   2.503 -1.6247 -0.6206 -1.8089
33076SOL     OW11206  10.335   7.104   9.361  0.3113  0.2458 -0.2559
33076SOL    HW111207  10.290   7.158   9.296  1.3628 -0.2419 -1.4223
33076SOL    HW211208  10.379   7.167   9.419 -1.9924  0.7558  1.0899
33077SOL     OW11209   0.680   1.810   1.034 -0.2790  0.0474  0.3065
33077SOL    HW111210   0.650   1.725   1.065  0.5361 -0.3676 -0.0063
33077SOL    HW211211   0.686   1.801   0.939 -0.6765  0.6196  0.2203
33078SOL     OW11212  12.636   2.706   5.434 -0.3306  0.4205  0.2518
33078SOL    HW111213  12.662   2.661   5.515 -0.9407  0.7082  0.6153
33078SOL    HW211214  12.704   2.772   5.421  0.1375 -0.0777  0.1522
33079SOL     OW11215   6.595  10.807  10.147  0.8448 -0.0913 -0.8099
33079SOL    HW111216   6.557  10.840  10.228 -2.0129  0.3354 -2.2168
33079SOL    HW211217   6.678  10.768  10.174  0.0422  0.1004  2.2862
33080SOL     OW11218   4.649   4.862   7.830 -0.4408  0.1253  0.3069
33080SOL    HW111219   4.667   4.804   7.903  0.2238 -0.4068 -0.2641
33080SOL    HW211220   4.689   4.819   7.755 -2.0503  0.1276 -0.5853
33081SOL     OW11221  11.228   1.282   4.494  0.8371 -0.1740  0.4507
33081SOL    HW111222  11.266   1.247   4.414 -2.7578 -0.4903 -1.3125
33081SOL    HW211223  11.219   1.206   4.552  1.6737 -0.3260  0.3847
33082SOL     OW11224   7.405  12.152   3.663  0.9737 -0.6230 -0.1852
33082SOL    HW111225   7.432  12.061   3.654  1.8293 -0.4431  0.4197
33082SOL    HW211226   7.378  12.160   3.754  2.6236  0.1415  0.2778
33083SOL     OW11227   4.036   5.664   2.017 -0.6156  0.1128  0.3060
33083SOL    HW111228   4.081   5.715   2.084  0.6386 -1.0351  0.3877
33083SOL    HW211229   3.946   5.696   2.018 -0.4407  0.6311  2.0189
33084SOL     OW11230   6.251   1.931   8.973 -0.0973 -0.4327 -0.0342
33084SOL    HW111231   6.216   1.846   8.999 -2.3243  0.0702 -1.1093
33084SOL    HW211232   6.306   1.913   8.897 -0.9729 -0.8799 -0.5735
33085SOL     OW11233   4.137   9.816   0.372  0.0116  0.5691  0.0782
33085SOL    HW111234   4.228   9.807   0.399  0.0485 -1.7065 -0.6227
33085SOL    HW211235   4.141   9.869   0.292  0.7374  0.4003 -0.0062
33086SOL     OW11236  11.814   7.717   4.410  0.1900  0.2990  0.3470
33086SOL    HW111237  11.865   7.690   4.486 -0.4827  1.7267  1.3507
33086SOL    HW211238  11.844   7.660   4.339 -0.2796 -2.2150  2.0128
33087SOL     OW11239  11.517   0.918  11.345 -0.0186 -0.4058 -0.1347
33087SOL    HW111240  11.473   0.858  11.405 -1.5032  1.3438  0.6472
33087SOL    HW211241  11.596   0.945  11.392 -1.0056  0.6992  0.9846
33088SOL     OW11242  12.812   2.020  10.412  0.1892  0.1010 -0.1613
33088SOL    HW111243  12.876   1.995  10.479  0.4021 -0.4417 -0.5650
33088SOL    HW211244  12.831   2.112  10.395  0.4067  0.1302  0.2247
33089SOL     OW11245   8.454   6.892   2.374 -0.2436  0.1486 -0.0454
33089SOL    HW111246   8.367   6.931   2.385 -1.1502 -1.9525  0.8393
33089SOL    HW211247   8.502   6.955   2.320 -2.1921  1.5243 -0.2889
33090SOL     OW11248   9.372   8.864  13.805  0.8095  0.5228 -0.0174
33090SOL    HW111249   9.418   8.780  13.806  0.4974  0.3311 -0.9473
33090SOL    HW211250   9.381   8.895  13.715 -0.9424  0.4491 -0.2376
33091SOL     OW11251   2.208  10.440   9.842 -0.0353  0.0688  0.3697
33091SOL    HW111252   2.160  10.375   9.790  0.0240  0.1755  0.1841
33091SOL    HW211253   2.163  10.523   9.825 -0.8678 -0.1194  1.5425
33092SOL     OW11254   5.201   7.799   7.298 -0.0517  0.1866  0.5190
33092SOL    HW111255   5.142   7.811   7.223  0.3516  1.3938  0.3837
33092SOL    HW211256   5.248   7.881   7.305  0.2065 -0.0581  1.8682
33093SOL     OW11257   1.335  11.458   2.158  0.3514 -0.0747 -0.3866
33093SOL    HW111258   1.333  11.553   2.173 -0.3799  0.3048 -2.4956
33093SOL    HW211259   1.305  11.420   2.240  1.7274  1.4365  0.8990
33094SOL     OW11260   3.359  11.603   6.594 -0.4004 -0.3512  0.1417
33094SOL    HW111261   3.441  11.614   6.546 -0.5757 -2.1779 -0.6638
33094SOL    HW211262   3.319  11.690   6.594  1.8329  0.7593  1.1811
33095SOL     OW11263   0.494   8.017  13.216  0.4631  0.5997 -0.7529
33095SOL    HW111264   0.434   8.053  13.282 -0.1728  0.7476 -1.4079
33095SOL    HW211265   0.572   7.993  13.266 -0.1925  0.2715  0.1385
33096SOL     OW11266   5.144   8.812   5.639  0.4538 -0.0486 -0.2406
33096SOL    HW111267   5.237   8.838   5.642  0.1417  1.0394  0.8961
33096SOL    HW211268   5.104   8.859   5.712 -0.6432 -1.9945  0.4888
33097SOL     OW11269   4.435   6.430  11.887  0.0551  0.6522  0.2095
33097SOL    HW111270   4.343   6.405  11.899 -0.5549  1.5360 -2.1068
33097SOL    HW211271   4.440   6.520  11.919 -0.0491  0.8117 -0.2137
33098SOL     OW11272   4.084   1.977   3.689 -0.3296  0.1068 -0.1630
33098SOL    HW111273   4.169   1.942   3.717  1.1579  2.0076 -1.9929
33098SOL    HW211274   4.045   1.906   3.638  0.0317 -0.8727  0.8704
33099SOL     OW11275   1.792   9.722   7.042  0.1360 -0.0800  0.5197
33099SOL    HW111276   1.848   9.798   7.055 -0.7048  1.0415 -1.8921
33099SOL    HW211277   1.720   9.754   6.987 -1.6814 -1.9980  1.6135
33100SOL     OW11278   7.332   2.387   0.572 -0.7785 -0.0366 -0.0303
33100SOL    HW111279   7.419   2.350   0.585 -0.9515 -1.1118 -1.6352
33100SOL    HW211280   7.288   2.325   0.514 -1.5190  2.0508 -1.8126
33101SOL     OW11281   6.575   4.615   0.349  0.5508  0.0414  0.1036
33101SOL    HW111282   6.534   4.660   0.275 -0.8663 -0.4556  0.5727
33101SOL    HW211283   6.567   4.677   0.422 -0.5742 -0.5695  0.5196
33102SOL     OW11284   2.676  12.243   5.004  0.5176  0.4494 -0.1205
33102SOL    HW111285   2.587  12.260   5.036  0.4357  1.3734 -0.8035
33102SOL    HW211286   2.729  12.239   5.084 -0.1389 -0.1927  0.3000
33103SOL     OW11287   0.843   8.818   3.743  0.0142  0.4421  0.5721
33103SOL    HW111288   0.766   8.831   3.687  1.3066  1.4031 -1.0783
33103SOL    HW211289   0.807   8.791   3.827 -2.0299 -0.8739 -0.6434
33104SOL     OW11290   2.284   9.596   0.260  0.3445  0.7575 -0.0289
33104SOL    HW111291   2.280   9.642   0.175  1.4719  1.0918  0.0803
33104SOL    HW211292   2.243   9.511   0.243  0.8803  0.6749 -1.0139
33105SOL     OW11293   4.952   9.199   5.566 -0.3751 -1.1422 -0.2524
33105SOL    HW111294   4.989   9.280   5.603 -2.1221 -0.0061 -0.9097
33105SOL    HW211295   4.945   9.141   5.642  0.3890 -0.5027  0.3409
33106SOL     OW11296  14.010   2.606   4.991  0.5653  0.5454 -0.2021
33106SOL    HW111297  13.940   2.554   4.951  1.7002 -1.6568  0.4887
33106SOL    HW211298  13.971   2.642   5.070  0.8463 -3.3277  1.9918
33107SOL     OW11299   1.314   9.406   5.196 -0.2623  0.1471  0.1958
33107SOL    HW111300   1.340   9.430   5.107 -1.8979 -0.8988 -0.6177
33107SOL    HW211301   1.273   9.485   5.232  0.9045  0.7432  0.2437
33108SOL     OW11302   4.234   8.606   5.655  0.2251 -0.5068 -0.2734
33108SOL    HW111303   4.175   8.614   5.579  0.0249  1.9040  0.0446
33108SOL    HW211304   4.191   8.657   5.724  3.1536  2.4782 -0.3935
33109SOL     OW11305   7.446  12.584  12.862 -0.9138 -0.0355  0.4973
33109SOL    HW111306   7.513  12.525  12.828 -1.4860 -0.8718  0.7886
33109SOL    HW211307   7.495  12.660  12.894  0.1178 -1.4369  2.4711
33110SOL     OW11308   3.024   0.006   3.286 -0.1249 -0.2316  0.5448
33110SOL    HW111309   2.974  -0.037   3.355 -0.3252 -0.5982  0.1777
33110SOL    HW211310   3.031  -0.060   3.217  0.3225  0.0283  0.3345
33111SOL     OW11311   6.657   9.417  11.401  0.3682 -0.3557 -0.6508
33111SOL    HW111312   6.710   9.377  11.332  0.6002  1.1698 -1.4213
33111SOL    HW211313   6.707   9.495  11.427  0.2774 -0.9039  1.2651
33112SOL     OW11314   8.597   3.501   9.581  0.2532  0.0324  0.9870
33112SOL    HW111315   8.603   3.436   9.511  2.9061 -0.0868  1.2212
33112SOL    HW211316   8.516   3.549   9.562  1.0446  0.2908 -2.4466
33113SOL     OW11317  12.886   8.875   6.186  0.0496  0.9421  0.4357
33113SOL    HW111318  12.979   8.890   6.166  0.3133 -1.4527 -0.4203
33113SOL    HW211319  12.854   8.821   6.114 -1.6747  0.5987  1.3970
33114SOL     OW11320   1.361  13.045  11.934 -0.0006  0.1938  0.1888
33114SOL    HW111321   1.321  13.076  11.852  0.0431 -0.8370 -0.2474
33114SOL    HW211322   1.449  13.081  11.932 -0.5187  1.5227  0.5874
33115SOL     OW11323   3.195  11.840   6.549 -0.3679 -0.1392  0.2072
33115SOL    HW111324   3.242  11.923   6.548 -1.7406  0.6725  0.7161
33115SOL    HW211325   3.114  11.858   6.598 -0.4276 -1.9167  0.8537
33116SOL     OW11326  10.068   4.815  13.526 -0.0165 -0.1709  0.1176
33116SOL    HW111327  10.093   4.905  13.505 -0.6640 -0.1967 -0.8307
33116SOL    HW211328  10.121   4.792  13.602  1.1688  0.5398 -0.4662
33117SOL     OW11329   1.884  13.580   0.654 -0.4560  0.3509 -0.4270
33117SOL    HW111330   1.828  13.506   0.678  0.2130  0.2343  0.9175
33117SOL    HW211331   1.919  13.557   0.568 -1.6705 -0.0446 -0.8243
33118SOL     OW11332  12.498   6.274   7.828 -0.4281 -0.3411  0.6482
33118SOL    HW111333  12.535   6.351   7.784  0.8192 -1.8657 -1.1029
33118SOL    HW211334  12.406   6.297   7.844 -0.2376  1.2764 -0.3886
33119SOL     OW11335   6.382   1.836   9.478  0.1568 -0.1513  0.0215
33119SOL    HW111336   6.342   1.750   9.487 -0.1017 -0.2378 -1.5780
33119SOL    HW211337   6.336   1.876   9.404  0.7422  1.0853  0.2967
33120SOL     OW11338   2.512   3.531   8.778 -0.0531  0.4004 -0.0001
33120SOL    HW111339   2.522   3.524   8.684  0.4271 -1.1243  0.1373
33120SOL    HW211340   2.601   3.544   8.811 -0.0964 -0.0704  0.3111
33121SOL     OW11341  13.580  10.768   5.912 -0.0708 -0.4690 -0.4625
33121SOL    HW111342  13.642  10.763   5.984 -0.5058 -1.8551 -0.1585
33121SOL    HW211343  13.535  10.852   5.925  2.4277  1.1126 -1.3138
33122SOL     OW11344   7.632   5.193   4.036  0.1482 -0.0791  0.4601
33122SOL    HW111345   7.630   5.259   4.105  0.3158 -0.2301  0.6138
33122SOL    HW211346   7.587   5.233   3.962  1.0311  0.5467  0.2432
33123SOL     OW11347   9.936   6.316  11.979  0.1784  0.6787 -0.1884
33123SOL    HW111348   9.889   6.290  12.058  1.8142 -0.7264  0.3903
33123SOL    HW211349   9.903   6.258  11.911  0.4801  0.2512  0.0273
33124SOL     OW11350   3.553   5.184  12.746  0.1252  0.5784  0.2771
33124SOL    HW111351   3.634   5.203  12.698  1.2902 -0.1176  1.8828
33124SOL    HW211352   3.569   5.218  12.834 -0.9632 -0.4250  0.8892
33125SOL     OW11353   4.819   2.603   5.915  0.5094 -0.2867 -0.6227
33125SOL    HW111354   4.763   2.656   5.972  0.3708  0.1696 -1.1788
33125SOL    HW211355   4.765   2.587   5.837  0.2295 -1.9629 -0.1249
33126SOL     OW11356   4.576  11.399  12.340 -0.0259 -0.5631  0.5850
33126SOL    HW111357   4.482  11.389  12.351 -0.1620  0.4108  0.3835
33126SOL    HW211358   4.604  11.317  12.298 -0.9232 -0.4593 -0.2465
33127SOL     OW11359  11.418   5.201   4.974 -0.1141  0.7795 -0.0117
33127SOL    HW111360  11.426   5.179   4.881 -0.8283 -0.8098  0.2825
33127SOL    HW211361  11.343   5.150   5.005  0.6984  0.5383  1.6605
33128SOL     OW11362   3.178  14.024   9.450 -0.1905  0.4004  0.3225
33128SOL    HW111363   3.211  14.003   9.362 -3.9616  1.8758 -1.6781
33128SOL    HW211364   3.142  13.942   9.482 -0.0384  0.1600 -0.1109
33129SOL     OW11365  12.646  12.773   4.493  0.3035 -0.2460 -0.3631
33129SOL    HW111366  12.573  12.751   4.436 -0.2691 -1.2053  0.7002
33129SOL    HW211367  12.611  12.763   4.581  0.5062  3.2621  0.2664
33130SOL     OW11368   0.141  12.627  10.355 -0.7722 -0.4932 -0.3646
33130SOL    HW111369   0.224  12.651  10.397 -0.7368  0.5010 -0.9478
33130SOL    HW211370   0.163  12.624  10.261 -0.9823 -2.0648 -0.3902
33131SOL     OW11371   2.217   9.652   6.804  0.0580  0.0197  0.0267
33131SOL    HW111372   2.299   9.635   6.851  0.8143  0.0247 -1.2327
33131SOL    HW211373   2.165   9.574   6.816  0.9119 -0.6444 -0.4445
33132SOL     OW11374  13.456   7.027  13.871 -0.4810 -0.0397  0.1062
33132SOL    HW111375  13.455   6.975  13.951  1.0400 -0.4479 -0.1102
33132SOL    HW211376  13.478   6.965  13.802 -0.3027  0.5803 -0.4058
33133SOL     OW11377   9.593   6.055   6.109 -0.1712  0.4340  0.1760
33133SOL    HW111378   9.577   6.148   6.094  1.2574  0.5386 -0.9092
33133SOL    HW211379   9.579   6.014   6.023  2.2184  0.1403 -0.1604
33134SOL     OW11380   9.494   6.884   2.776 -0.2756  0.5035 -0.3804
33134SOL    HW111381   9.585   6.858   2.762 -0.7126 -0.8055 -0.9411
33134SOL    HW211382   9.465   6.832   2.851 -1.3526 -1.2438 -1.9130
33135SOL     OW11383  11.035   2.852   2.909 -0.4356 -0.6491 -0.4568
33135SOL    HW111384  11.083   2.851   2.826 -1.5026 -0.9364 -1.0941
33135SOL    HW211385  11.065   2.775   2.955  0.6854 -0.1099 -0.2582
33136SOL     OW11386   6.487  10.829   9.223  0.5111 -0.2862 -0.6240
33136SOL    HW111387   6.472  10.807   9.315  0.5668  2.2021  0.0628
33136SOL    HW211388   6.579  10.855   9.219  0.5527 -0.5051 -1.4409
33137SOL     OW11389   7.650  11.146   4.025  0.5875 -0.1807  0.1603
33137SOL    HW111390   7.615  11.174   3.940 -0.3892 -2.8323 -0.4155
33137SOL    HW211391   7.648  11.226   4.079 -1.4340  0.9877 -1.4566
33138SOL     OW11392  12.427  11.356   2.672  0.1665 -0.3926 -0.1735
33138SOL    HW111393  12.502  11.330   2.725 -1.5159 -1.8983  1.6880
33138SOL    HW211394  12.409  11.446   2.698 -0.0545 -0.8039  1.2057
33139SOL     OW11395   8.439  13.370   8.869  0.2718 -0.0043 -0.1139
33139SOL    HW111396   8.468  13.300   8.927 -1.2855 -0.3590  0.2743
33139SOL    HW211397   8.401  13.436   8.927 -0.3041  0.1416 -0.6478
33140SOL     OW11398   8.007  12.607   8.937 -0.6385 -0.4569 -0.8761
33140SOL    HW111399   7.954  12.662   8.879  0.9687  1.1420 -0.8991
33140SOL    HW211400   7.975  12.628   9.025  0.2312  0.8532 -0.8555
33141SOL     OW11401   5.662   4.658  13.752  0.3382  0.0034 -0.0232
33141SOL    HW111402   5.632   4.613  13.673  1.2527 -0.3602 -0.1743
33141SOL    HW211403   5.685   4.746  13.722  0.0206  0.0900 -0.0215
33142SOL     OW11404   6.644   3.286   0.219  0.0009 -0.2983 -0.4131
33142SOL    HW111405   6.629   3.379   0.200  0.9423  0.0814  0.6151
33142SOL    HW211406   6.592   3.240   0.153 -1.5505  0.9468 -0.1055
33143SOL     OW11407   6.662   0.652   9.248 -0.5574 -0.9029 -0.2131
33143SOL    HW111408   6.597   0.591   9.285 -0.7447 -0.4631  0.1959
33143SOL    HW211409   6.734   0.650   9.311 -0.4488 -0.9086 -0.3394
33144SOL     OW11410  11.009   0.323  10.174 -0.0577  0.1222 -0.2861
33144SOL    HW111411  11.092   0.363  10.199 -0.1673  0.4923 -0.5163
33144SOL    HW211412  11.003   0.245  10.229  0.2634  0.2959 -0.0009
33145SOL     OW11413   7.802   4.026   6.028 -0.4040  0.0795 -0.1858
33145SOL    HW111414   7.758   4.045   6.111 -0.9061 -0.6050 -0.2862
33145SOL    HW211415   7.886   4.073   6.034  0.6171 -1.8143  1.7164
33146SOL     OW11416   2.717  12.529   3.580 -0.1171  0.1432  0.0011
33146SOL    HW111417   2.780  12.528   3.508 -1.3581  1.3008 -1.1702
33146SOL    HW211418   2.643  12.580   3.546 -1.8544 -1.4778  1.1774
33147SOL     OW11419   2.299   8.860   7.818  0.1500 -0.3101  0.1795
33147SOL    HW111420   2.261   8.948   7.816 -0.5742 -0.6194  0.0564
33147SOL    HW211421   2.239   8.810   7.874 -0.4523 -1.1838 -1.2059
33148SOL     OW11422   1.144   4.267   6.499 -1.0599  0.0260  0.1903
33148SOL    HW111423   1.138   4.179   6.535  3.5466 -0.5596  0.1982
33148SOL    HW211424   1.156   4.324   6.575  2.1160 -0.3456  0.1220
33149SOL     OW11425  10.572  13.265  13.069 -0.3422 -0.0779 -0.4776
33149SOL    HW111426  10.527  13.329  13.126  1.0221 -0.6275  1.3166
33149SOL    HW211427  10.505  13.238  13.006 -2.0039  0.4644  0.9596
33150SOL     OW11428  10.439   9.412   7.664  0.1592 -0.5339  0.1106
33150SOL    HW111429  10.394   9.433   7.582  1.6984 -0.7812 -0.8273
33150SOL    HW211430  10.444   9.317   7.665  2.3713 -0.4770 -0.7996
33151SOL     OW11431   6.245  13.582   2.957 -0.1767 -1.1759  0.6106
33151SOL    HW111432   6.265  13.619   3.043 -1.9743  1.3719  0.0502
33151SOL    HW211433   6.151  13.560   2.962 -0.8464  0.9157 -1.2398
33152SOL     OW11434  12.478   8.575   6.430 -0.3914  0.7578  0.1791
33152SOL    HW111435  12.505   8.604   6.517  0.2309  1.4977 -0.2529
33152SOL    HW211436  12.489   8.652   6.374 -1.9058  0.6385 -0.3336
33153SOL     OW11437   1.188   6.282   4.852 -0.0461  0.1547 -0.9792
33153SOL    HW111438   1.268   6.239   4.883 -0.8913 -0.8715 -0.1478
33153SOL    HW211439   1.167   6.236   4.770 -0.9922 -1.1431 -0.0520
33154SOL     OW11440   0.353  10.686   3.675  0.1768 -0.2378  0.2533
33154SOL    HW111441   0.381  10.596   3.691  2.4928  0.2978 -0.4189
33154SOL    HW211442   0.279  10.679   3.614  1.4859 -1.6312 -1.2360
33155SOL     OW11443   1.709   8.183   4.864  0.0852  0.5925 -0.2202
33155SOL    HW111444   1.663   8.155   4.785  1.4740 -0.3835 -0.7255
33155SOL    HW211445   1.719   8.278   4.853  0.0077  0.5132 -1.0799
33156SOL     OW11446  13.947  13.326  12.056  0.2556 -0.4887  0.8806
33156SOL    HW111447  13.908  13.346  12.141 -0.7911 -0.8254  0.4963
33156SOL    HW211448  13.898  13.250  12.025  0.4922 -0.2468 -0.1176
33157SOL     OW11449   6.820  14.040   9.838  0.1779  0.0013 -0.4361
33157SOL    HW111450   6.777  14.079   9.914  0.7694 -0.6854  0.2646
33157SOL    HW211451   6.904  14.086   9.831  0.2829 -0.1910 -0.4478
33158SOL     OW11452  10.742   6.477   3.398  0.3239 -0.6142 -0.1703
33158SOL    HW111453  10.734   6.444   3.488  1.0644 -1.4064 -0.3873
33158SOL    HW211454  10.735   6.572   3.407 -3.7831 -0.7717  0.2677
33159SOL     OW11455  10.431   1.356  10.596 -0.1759  0.1934 -0.4557
33159SOL    HW111456  10.507   1.341  10.652  0.0437 -2.0980 -1.2500
33159SOL    HW211457  10.468   1.387  10.514 -0.3448  1.5728 -0.0393
33160SOL     OW11458   9.842  12.624   4.381  0.1250 -0.2497  0.1356
33160SOL    HW111459   9.883  12.677   4.449  0.4494 -0.9082  0.4664
33160SOL    HW211460   9.906  12.624   4.310  0.5071 -0.8956  0.4714
33161SOL     OW11461   4.704  12.954   7.376 -0.4321 -0.2053  0.5294
33161SOL    HW111462   4.675  12.870   7.411 -1.0369 -0.8709 -1.4583
33161SOL    HW211463   4.689  12.947   7.282  1.2708  1.4328  0.0895
33162SOL     OW11464   1.742   0.257   4.615 -0.6924 -1.1057  0.6467
33162SOL    HW111465   1.744   0.173   4.569  0.4758 -0.7961  0.1043
33162SOL    HW211466   1.691   0.314   4.558 -1.1469 -1.3226  0.8257
33163SOL     OW11467   2.266   7.682   4.680  0.3993  0.2917  0.6005
33163SOL    HW111468   2.339   7.623   4.695  0.9822  0.9066  0.1955
33163SOL    HW211469   2.300   7.751   4.623 -0.8786 -0.1757 -0.7957
33164SOL     OW11470   0.992   4.319  12.983  0.6624  0.2111 -0.2355
33164SOL    HW111471   0.924   4.376  12.945  1.8638 -0.1715 -3.2117
33164SOL    HW211472   1.033   4.374  13.051 -0.5659  1.5603 -0.5210
33165SOL     OW11473   0.834   3.382   8.454  0.5306 -0.0875 -0.0759
33165SOL    HW111474   0.887   3.306   8.475 -0.4940 -0.6248  0.6229
33165SOL    HW211475   0.756   3.346   8.411  0.7503  0.6923 -1.1851
33166SOL     OW11476   7.510   5.576  11.292  0.2879 -0.0490 -0.3573
33166SOL    HW111477   7.423   5.567  11.330  0.0239 -1.4297 -1.1969
33166SOL    HW211478   7.503   5.652  11.234 -0.3738 -0.1554 -0.4274
33167SOL     OW11479  11.577   5.450   7.134 -0.1964  0.3319  0.6516
33167SOL    HW111480  11.583   5.496   7.217 -0.3295  0.9713  0.3086
33167SOL    HW211481  11.664   5.412   7.122  0.3954  1.7757  0.2027
33168SOL     OW11482   7.119   8.912  11.172  0.0994 -0.9225 -0.7142
33168SOL    HW111483   7.181   8.947  11.237 -0.2650 -1.1455 -0.2393
33168SOL    HW211484   7.034   8.915  11.216 -0.2322 -0.6234 -1.3589
33169SOL     OW11485   8.805   5.541  13.266 -0.3226 -0.2702 -0.2116
33169SOL    HW111486   8.738   5.527  13.199 -0.4936  0.1722 -0.1358
33169SOL    HW211487   8.791   5.470  13.329  0.7415 -1.5334 -1.3513
33170SOL     OW11488   3.036  10.918  10.273 -0.1851 -0.1627 -0.0278
33170SOL    HW111489   3.052  10.870  10.354  0.7393 -0.7734 -0.5503
33170SOL    HW211490   3.001  11.002  10.301  0.3341 -0.2863  1.0218
33171SOL     OW11491   3.188  10.425  10.934 -0.3698  0.4347 -0.1819
33171SOL    HW111492   3.259  10.360  10.930 -0.4675  0.3433 -0.5405
33171SOL    HW211493   3.203  10.472  11.016 -0.1359  0.1418 -0.0523
33172SOL     OW11494   4.197   5.862  13.868  0.2947  0.1529  0.3057
33172SOL    HW111495   4.142   5.868  13.947  0.2983 -1.2527  0.4429
33172SOL    HW211496   4.209   5.768  13.855  0.0120  0.3538 -1.5823
33173SOL     OW11497   9.782   7.890   1.902 -0.5613  0.3972  0.3117
33173SOL    HW111498   9.777   7.981   1.872  0.6624  0.5658  0.5664
33173SOL    HW211499   9.817   7.842   1.828 -1.4458  0.0754  0.0918
33174SOL     OW11500   4.340   4.951   3.426  0.2734  0.1887  0.2103
33174SOL    HW111501   4.419   4.932   3.377 -0.1522 -0.2708 -0.3099
33174SOL    HW211502   4.351   4.905   3.510  0.5636  0.1561  0.1542
33175SOL     OW11503  12.533   2.668   1.772  0.4595 -0.6162  0.6686
33175SOL    HW111504  12.511   2.669   1.865 -1.7361  0.0975  0.1912
33175SOL    HW211505  12.589   2.745   1.760 -0.2913  0.0292  1.1893
33176SOL     OW11506   4.802   7.660   3.964  0.3450 -0.6073  0.3543
33176SOL    HW111507   4.733   7.596   3.982  0.1550 -0.2673  0.8678
33176SOL    HW211508   4.831   7.640   3.876 -0.2372 -0.9234  0.2291
33177SOL     OW11509  10.576   7.624   6.122 -0.4068  0.6038 -0.0068
33177SOL    HW111510  10.485   7.605   6.146 -0.5564 -0.5881 -1.3589
33177SOL    HW211511  10.571   7.654   6.031  0.5626  0.3255 -0.1653
33178SOL     OW11512  10.343  13.855   3.186 -0.0081 -0.0483  0.1417
33178SOL    HW111513  10.388  13.933   3.154 -1.4756  1.2716  1.1438
33178SOL    HW211514  10.401  13.817   3.251  0.0723  1.0772  0.7339
33179SOL     OW11515  10.232   2.112   2.235  0.1003  0.5659  0.1575
33179SOL    HW111516  10.251   2.187   2.179  1.0148  2.1134  2.3989
33179SOL    HW211517  10.157   2.139   2.287 -0.3791 -0.6063  0.1087
33180SOL     OW11518  12.656  10.015   8.465 -0.4705  0.2139 -0.1652
33180SOL    HW111519  12.727   9.992   8.405  0.5027  0.4846  0.8593
33180SOL    HW211520  12.652  10.111   8.462 -0.9450  0.1934 -0.3708
33181SOL     OW11521  12.113   0.772  12.412 -0.5100  0.3694  0.2219
33181SOL    HW111522  12.085   0.759  12.321 -0.6037 -0.6498  0.3833
33181SOL    HW211523  12.052   0.719  12.463 -0.9960  1.6113  0.9686
33182SOL     OW11524   7.662   4.284   8.207  0.1264 -0.2535  0.1197
33182SOL    HW111525   7.731   4.351   8.202  1.7070 -1.7041  1.1688
33182SOL    HW211526   7.612   4.296   8.127  1.3539  1.1393 -0.4976
33183SOL     OW11527  11.267   2.262   7.640  0.2751  0.3799  0.2903
33183SOL    HW111528  11.309   2.319   7.575 -0.7615  0.5556 -0.2458
33183SOL    HW211529  11.176   2.292   7.643 -0.6135 -1.9227 -0.8481
33184SOL     OW11530  12.514   5.517   0.261 -0.4682  0.0391  0.4494
33184SOL    HW111531  12.554   5.430   0.263  1.1036  0.7269  0.0077
33184SOL    HW211532  12.486   5.528   0.170 -1.3947 -0.3089  0.6842
33185SOL     OW11533   0.113   8.188  12.766  1.2849 -0.2359  0.0551
33185SOL    HW111534   0.090   8.219  12.853  1.4911  1.3044 -0.3980
33185SOL    HW211535   0.034   8.202  12.714  1.4473 -0.2630 -0.2021
33186SOL     OW11536   2.851   4.863   6.883  0.0228 -0.1046 -0.1294
33186SOL    HW111537   2.831   4.770   6.897 -1.5470  0.5304  2.6388
33186SOL    HW211538   2.944   4.870   6.905  0.1525 -1.0131 -0.3223
33187SOL     OW11539   9.516  13.528   8.590  0.4985  0.3446  0.2468
33187SOL    HW111540   9.596  13.518   8.640  1.7581  2.8890 -1.0198
33187SOL    HW211541   9.477  13.609   8.623 -3.1744 -2.0824  2.7089
33188SOL     OW11542   7.398   1.665   9.998  0.1254 -0.2326 -0.6124
33188SOL    HW111543   7.476   1.706   9.961  0.5457 -1.8547 -1.6154
33188SOL    HW211544   7.386   1.585   9.946 -1.5880 -0.5583  0.2196
33189SOL     OW11545   9.073   2.914   2.139 -0.5242 -1.1449  0.6075
33189SOL    HW111546   8.994   2.910   2.192 -1.3007 -0.1264 -0.4292
33189SOL    HW211547   9.104   3.004   2.149 -0.7379 -0.9064 -0.7189
33190SOL     OW11548   2.349   1.513  12.743 -0.6119  0.3823 -0.1508
33190SOL    HW111549   2.375   1.578  12.677 -2.3643  0.6390 -0.6442
33190SOL    HW211550   2.361   1.558  12.827  1.9598 -0.0633 -0.2141
33191SOL     OW11551   5.226   5.238   4.049  0.3859  0.5093  0.0910
33191SOL    HW111552   5.256   5.210   4.135  1.7800  3.0301  0.5315
33191SOL    HW211553   5.274   5.181   3.988  0.6449 -0.2146  0.9467
33192SOL     OW11554   1.317  11.878   6.646  0.1462  1.1179 -0.9711
33192SOL    HW111555   1.230  11.856   6.681 -0.1939  2.7119 -0.7529
33192SOL    HW211556   1.368  11.797   6.656 -0.7921  0.6759  0.5017
33193SOL     OW11557   0.176  10.474   7.620 -0.5200  0.0850 -0.7002
33193SOL    HW111558   0.250  10.453   7.677 -0.0723  0.7933 -1.0006
33193SOL    HW211559   0.149  10.561   7.647 -0.1050  0.5636 -1.7559
33194SOL     OW11560   6.388   9.340   1.619  0.1441  0.8678 -0.3446
33194SOL    HW111561   6.370   9.320   1.711  1.5144  2.7854  0.4127
33194SOL    HW211562   6.316   9.396   1.592 -0.4808 -0.0350 -0.5966
33195SOL     OW11563  11.752  13.038   2.398 -0.0783 -0.0382  0.6047
33195SOL    HW111564  11.759  13.120   2.350  0.0086 -0.5765 -0.3268
33195SOL    HW211565  11.728  13.064   2.487 -1.0358  0.9364  0.0787
33196SOL     OW11566  10.548   2.368   7.425  0.1762  0.7058 -0.4395
33196SOL    HW111567  10.469   2.373   7.371 -0.1609 -0.7057 -0.1161
33196SOL    HW211568  10.521   2.399   7.511  0.4684  2.0285 -0.8081
33197SOL     OW11569   1.985  13.130  10.012  0.7471  0.1455  0.4986
33197SOL    HW111570   2.028  13.047   9.990  1.7511  0.4513  1.2448
33197SOL    HW211571   1.940  13.113  10.094  1.2198  0.4179  0.8204
33198SOL     OW11572   7.930  10.534   4.789  0.0614  0.5479 -0.8489
33198SOL    HW111573   7.843  10.544   4.829  0.4686 -1.9882  0.8994
33198SOL    HW211574   7.981  10.606   4.826 -0.5564  0.3756  0.3866
33199SOL     OW11575  10.026   1.510   1.638  0.3251 -0.1153 -0.1623
33199SOL    HW111576  10.058   1.547   1.720  0.5713  0.4827 -0.5304
33199SOL    HW211577  10.002   1.585   1.585 -2.7795 -0.4672  0.4911
33200SOL     OW11578   0.871  13.656   6.769  0.2297 -0.3409  0.2698
33200SOL    HW111579   0.950  13.703   6.796  0.5702 -0.8285  0.1597
33200SOL    HW211580   0.799  13.713   6.793  0.4811 -0.8574  2.4395
33201SOL     OW11581   5.635   3.268  11.934  0.4278  0.1204  0.4945
33201SOL    HW111582   5.656   3.326  12.007 -0.1767  0.8050  0.1309
33201SOL    HW211583   5.556   3.305  11.896  1.7007  0.8431 -1.6246
33202SOL     OW11584   8.119   4.328   1.109  0.3380 -0.5700 -0.1410
33202SOL    HW111585   8.127   4.237   1.140 -0.9078 -0.4851  0.5229
33202SOL    HW211586   8.024   4.342   1.104  0.4315  1.4781  2.1607
33203SOL     OW11587   2.674  12.789   9.740 -0.1829 -0.3184 -0.8413
33203SOL    HW111588   2.716  12.763   9.822 -2.1200  0.1628  0.3701
33203SOL    HW211589   2.726  12.747   9.672  0.9709 -1.4448  0.6729
33204SOL     OW11590   7.122  11.342   2.980  0.2458 -0.0084 -0.9494
33204SOL    HW111591   7.139  11.310   3.069 -0.0402  0.5263 -0.6960
33204SOL    HW211592   7.029  11.365   2.982  0.8897  2.8614 -0.4661
33205SOL     OW11593   9.791   2.748  10.084  0.0056 -0.0877 -0.8313
33205SOL    HW111594   9.709   2.773  10.128  0.3908  0.8263 -0.5909
33205SOL    HW211595   9.825   2.675  10.136 -0.2728  0.0415 -0.4616
33206SOL     OW11596   0.847   6.205   6.055 -0.1825 -0.2468 -0.1800
33206SOL    HW111597   0.842   6.217   5.961 -0.9764  0.4265 -0.0655
33206SOL    HW211598   0.878   6.289   6.088  1.0951 -0.8092  0.0800
33207SOL     OW11599   3.308   3.435  11.953  0.1563 -0.4338 -0.6678
33207SOL    HW111600   3.224   3.478  11.970  0.8782  0.9096 -0.3269
33207SOL    HW211601   3.305   3.356  12.006 -0.6353 -0.0698 -0.1420
33208SOL     OW11602   3.848   1.555   2.779  0.3332  0.4463  0.2871
33208SOL    HW111603   3.835   1.548   2.684 -0.7635 -1.6844  0.5304
33208SOL    HW211604   3.898   1.476   2.802 -0.1684  0.4843  1.5988
33209SOL     OW11605   8.504  11.066   1.698 -0.5403 -0.1960 -0.2680
33209SOL    HW111606   8.598  11.054   1.689 -0.4256  0.9177 -0.7522
33209SOL    HW211607   8.481  11.021   1.779  0.4378 -0.3101 -0.0461
33210SOL     OW11608  11.896   8.089  11.839 -0.1305 -0.3298 -1.0283
33210SOL    HW111609  11.969   8.057  11.786  0.7797  0.7468 -0.4736
33210SOL    HW211610  11.855   8.155  11.783 -0.4564 -0.6706 -1.1948
33211SOL     OW11611   1.877   4.947  12.869  0.4305 -0.0128 -0.0838
33211SOL    HW111612   1.915   4.972  12.785 -0.3841  1.2007 -0.1146
33211SOL    HW211613   1.805   4.888  12.847  0.6339 -0.2199 -0.1926
33212SOL     OW11614  13.238   3.165   0.015 -0.4142  0.5363 -0.3637
33212SOL    HW111615  13.282   3.082   0.030 -1.4540 -0.4062 -2.2038
33212SOL    HW211616  13.149   3.151   0.048 -0.9838  0.4278 -1.8685
33213SOL     OW11617   3.809  13.718  12.121 -0.3599 -0.7537  0.0002
33213SOL    HW111618   3.888  13.692  12.073  0.9190  0.4704  1.3822
33213SOL    HW211619   3.738  13.696  12.061  1.0965 -0.4212 -1.9577
33214SOL     OW11620   5.548  12.688  11.920  0.2686  0.1248 -0.5350
33214SOL    HW111621   5.541  12.756  11.853 -1.1599  0.3714 -0.1661
33214SOL    HW211622   5.591  12.615  11.875  1.0237  0.9414 -1.1829
33215SOL     OW11623  10.409  11.294  11.407  0.4609  0.3336 -0.0979
33215SOL    HW111624  10.374  11.383  11.416 -0.5494  0.5732 -4.2916
33215SOL    HW211625  10.501  11.307  11.382  0.2655  0.2754 -0.8903
33216SOL     OW11626  13.231   3.710  10.597  0.2821  0.0843 -0.7343
33216SOL    HW111627  13.260   3.733  10.686 -0.8680 -0.4180 -0.2041
33216SOL    HW211628  13.220   3.795  10.553  1.8351  0.3059 -0.7466
33217SOL     OW11629   2.650  11.097  10.040  0.0853  0.4737 -0.2050
33217SOL    HW111630   2.708  11.168  10.065  0.2089  0.0356  0.8122
33217SOL    HW211631   2.703  11.018  10.050 -0.7791  0.0276  1.1592
33218SOL     OW11632  12.412  13.635   8.235 -0.1727  0.3716 -0.0379
33218SOL    HW111633  12.455  13.577   8.172  1.3070  0.7424  0.6010
33218SOL    HW211634  12.483  13.683   8.277 -1.0385 -0.2528  2.3165
33219SOL     OW11635   2.147  10.249  12.919  0.6167  0.1551  0.3147
33219SOL    HW111636   2.106  10.323  12.965 -0.7101 -0.9594  1.0154
33219SOL    HW211637   2.150  10.277  12.828 -0.3826  0.8826  0.4818
33220SOL     OW11638   4.507   2.014   2.117  0.2915  0.2917 -0.1171
33220SOL    HW111639   4.476   2.036   2.205  0.8975 -0.1392  0.2149
33220SOL    HW211640   4.429   1.985   2.071  0.4886 -3.5431  1.5592
33221SOL     OW11641  12.886  11.140   5.931 -0.0724 -0.5970  0.3801
33221SOL    HW111642  12.952  11.117   5.997 -0.1889 -2.1967 -0.0210
33221SOL    HW211643  12.929  11.121   5.847 -1.3601 -2.6860  0.1364
33222SOL     OW11644   5.886  11.758   6.681 -0.0845 -0.2275 -0.2414
33222SOL    HW111645   5.815  11.703   6.647 -0.6046  1.4117 -1.9143
33222SOL    HW211646   5.920  11.708   6.755  0.4830 -3.5693 -2.5235
33223SOL     OW11647   2.263   8.930   3.136 -0.0735 -0.6545 -0.4306
33223SOL    HW111648   2.338   8.969   3.180  0.4777 -0.3384 -1.6102
33223SOL    HW211649   2.190   8.943   3.196  0.9847 -1.8503  1.1825
33224SOL     OW11650  13.567  12.798  13.030  0.6417 -0.1209 -0.3486
33224SOL    HW111651  13.528  12.822  13.115 -0.7151  0.7436 -1.1835
33224SOL    HW211652  13.568  12.702  13.031  0.6304 -0.1206  0.6453
33225SOL     OW11653   6.447  11.968  10.423  0.0905 -0.1961 -0.6186
33225SOL    HW111654   6.354  11.945  10.414  0.3039 -0.7530 -1.4563
33225SOL    HW211655   6.474  11.925  10.504 -0.8835  1.6865  0.8004
33226SOL     OW11656   5.943   3.475   5.733 -0.2156  0.1476  0.2104
33226SOL    HW111657   5.854   3.443   5.744 -0.6042  0.4767 -1.6854
33226SOL    HW211658   5.990   3.402   5.693 -0.2142  0.6981 -0.8287
33227SOL     OW11659   1.675  11.500   9.773 -0.2483 -0.0683 -0.7377
33227SOL    HW111660   1.706  11.588   9.794  0.3067 -0.3528 -0.3236
33227SOL    HW211661   1.629  11.510   9.690  1.2355  0.3231 -1.5554
33228SOL     OW11662   9.943   0.221   8.716 -0.2125 -0.1570 -0.2592
33228SOL    HW111663   9.988   0.199   8.797  1.5324  1.9882 -0.5510
33228SOL    HW211664   9.862   0.264   8.743 -0.1092 -0.3310  0.3283
33229SOL     OW11665   2.655   2.773   6.327 -0.0137 -0.3262 -0.0037
33229SOL    HW111666   2.735   2.740   6.367  0.1714 -1.5615 -1.3226
33229SOL    HW211667   2.584   2.729   6.375  0.0283  1.0910  1.4497
33230SOL     OW11668   2.175  13.433   0.839 -0.3234 -0.2599  0.2439
33230SOL    HW111669   2.160  13.394   0.752 -1.0041 -2.3415  1.2206
33230SOL    HW211670   2.106  13.396   0.894  1.2846 -0.6216  2.1290
33231SOL     OW11671   9.849   3.424   8.963 -0.1377 -0.0129 -0.2456
33231SOL    HW111672   9.867   3.399   9.054 -1.4828 -0.8896 -0.1922
33231SOL    HW211673   9.870   3.517   8.959 -0.4850  0.1394  1.0896
33232SOL     OW11674   0.420  10.569   7.740 -0.8169 -0.2936  0.5421
33232SOL    HW111675   0.474  10.561   7.661 -0.7513 -0.3659  0.5945
33232SOL    HW211676   0.354  10.633   7.717 -0.8791 -0.4139  0.3806
33233SOL     OW11677   7.207   3.184   0.278  0.3787 -0.4325 -0.0871
33233SOL    HW111678   7.231   3.196   0.186 -2.4560  0.3289 -0.8366
33233SOL    HW211679   7.144   3.112   0.277  0.0023 -0.1473  1.2077
33234SOL     OW11680   8.992   0.213   8.599 -0.2560 -0.0510 -0.5589
33234SOL    HW111681   9.048   0.184   8.527  0.6440  0.5277 -0.1139
33234SOL    HW211682   8.914   0.157   8.594  0.7518 -1.5036 -0.6429
33235SOL     OW11683   1.774   5.226   7.248 -0.1503 -0.1263  0.4638
33235SOL    HW111684   1.859   5.259   7.219 -1.1553  0.7972 -1.6374
33235SOL    HW211685   1.763   5.261   7.336  1.9115 -0.8170  1.0430
33236SOL     OW11686   8.037   7.388  11.158  0.3306  0.1767  0.3172
33236SOL    HW111687   8.116   7.374  11.211  1.4956  2.2192 -0.7691
33236SOL    HW211688   8.026   7.307  11.110  2.1830  0.0601  0.0041
33237SOL     OW11689   0.152   9.154   4.435  0.1718 -0.4779  0.6727
33237SOL    HW111690   0.125   9.218   4.368  1.3282 -0.5449  0.1204
33237SOL    HW211691   0.212   9.203   4.492  0.9388 -1.0175  0.3429
33238SOL     OW11692   0.468   3.818   7.183 -0.0648  0.6484 -0.2915
33238SOL    HW111693   0.502   3.840   7.270  1.7050 -1.4135 -0.3723
33238SOL    HW211694   0.516   3.875   7.123  1.9071 -0.7905 -0.2080
33239SOL     OW11695   4.661  11.317  10.508 -0.1701  0.0083 -0.0705
33239SOL    HW111696   4.594  11.353  10.450  0.6628 -0.2249 -1.2145
33239SOL    HW211697   4.708  11.393  10.542 -0.5975  0.1426  0.2240
33240SOL     OW11698   0.822   8.174   2.768 -0.5449 -0.0984 -0.0431
33240SOL    HW111699   0.901   8.150   2.816 -1.1421 -0.2557  0.8677
33240SOL    HW211700   0.813   8.268   2.784 -0.8950 -0.2034  0.3781
33241SOL     OW11701  10.260   2.037   0.938 -0.0800 -0.2294  0.2296
33241SOL    HW111702  10.226   2.125   0.920  0.7251 -0.0134 -0.2857
33241SOL    HW211703  10.330   2.051   1.002  1.6202 -0.1916 -1.5507
33242SOL     OW11704   5.569   6.274   0.293  0.4393  0.2878  0.2662
33242SOL    HW111705   5.515   6.198   0.311  0.5809  0.2268  0.4378
33242SOL    HW211706   5.509   6.339   0.257  0.2675  0.1965  0.3920
33243SOL     OW11707  12.593   5.741  11.851 -0.6761 -0.1218  0.2451
33243SOL    HW111708  12.685   5.769  11.848 -0.7290  0.1070  0.6214
33243SOL    HW211709  12.547   5.805  11.796 -0.7390  0.3122  0.7915
33244SOL     OW11710   1.932  12.389   2.100  0.2155 -0.2380  0.1943
33244SOL    HW111711   1.927  12.475   2.142  1.8835 -0.6946  1.4565
33244SOL    HW211712   1.841  12.361   2.092 -0.4137  1.8334 -0.7257
33245SOL     OW11713  12.925  13.340   1.086 -0.3200 -0.1364 -0.0652
33245SOL    HW111714  12.924  13.432   1.062  1.6820 -0.7175 -2.8846
33245SOL    HW211715  12.834  13.320   1.110 -0.8618  2.4323  0.2674
33246SOL     OW11716   7.950   7.982  11.173 -0.2533 -0.3953 -0.0498
33246SOL    HW111717   7.871   8.026  11.208 -0.2066  1.6876 -2.2794
33246SOL    HW211718   8.017   7.998  11.240 -0.3283  2.8641 -0.5825
33247SOL     OW11719   0.041   2.943  13.717  0.3606  0.2111 -0.3727
33247SOL    HW111720   0.058   2.937  13.811 -1.3118 -0.4094 -0.0815
33247SOL    HW211721   0.079   2.863  13.681  2.8974  1.4069 -0.5991
33248SOL     OW11722   4.418   0.990   1.601  0.7946 -0.0941  0.0327
33248SOL    HW111723   4.410   0.943   1.518 -0.2953  0.5172 -0.2410
33248SOL    HW211724   4.442   1.079   1.575  0.2307  0.1546  0.3388
33249SOL     OW11725  11.893  13.179   7.184 -0.2431  0.4476  0.0898
33249SOL    HW111726  11.923  13.207   7.097  0.9972 -0.5009  0.1911
33249SOL    HW211727  11.936  13.095   7.198 -0.5919  0.4951  1.5437
33250SOL     OW11728   1.638   2.675  12.815 -0.3560  0.4562  0.3540
33250SOL    HW111729   1.554   2.682  12.861 -0.8438 -2.3030  0.0234
33250SOL    HW211730   1.615   2.654  12.725  0.6862  0.8646 -0.0221
33251SOL     OW11731   1.636   0.419   9.326 -0.3436  0.3570 -0.3980
33251SOL    HW111732   1.604   0.380   9.407  0.7912 -0.6509 -0.4015
33251SOL    HW211733   1.699   0.356   9.292 -1.1681  0.5109 -2.3591
33252SOL     OW11734   7.268   7.722   0.875  0.0839  0.7608  0.0514
33252SOL    HW111735   7.338   7.657   0.885 -0.7157  0.1024  1.5859
33252SOL    HW211736   7.200   7.676   0.826  0.1152  0.9404 -0.1657
33253SOL     OW11737  12.824   9.276   8.995 -0.5237  0.5877 -0.0533
33253SOL    HW111738  12.918   9.284   8.982 -0.2679 -1.4552  0.3387
33253SOL    HW211739  12.786   9.327   8.922  0.8855 -0.3098 -1.4768
33254SOL     OW11740   3.538  13.359   2.065 -0.0984  0.3927  0.1042
33254SOL    HW111741   3.520  13.412   1.987 -0.9679  0.8933  0.6279
33254SOL    HW211742   3.454  13.354   2.110  0.3437 -0.0875  0.8950
33255SOL     OW11743   8.394   8.830   9.526  0.2782  0.5234 -0.1624
33255SOL    HW111744   8.366   8.863   9.612  0.3217  0.6771 -0.2050
33255SOL    HW211745   8.458   8.762   9.546 -2.4437 -2.1942  0.0517
33256SOL     OW11746   2.997  10.858   0.779 -0.0811 -0.1919 -0.0323
33256SOL    HW111747   2.928  10.814   0.829 -0.5767 -0.7710 -1.1865
33256SOL    HW211748   2.967  10.949   0.772 -0.6615 -0.3992 -0.3700
33257SOL     OW11749   1.552   5.746  13.196 -0.1826  0.3110 -0.0369
33257SOL    HW111750   1.640   5.770  13.167 -0.6077  1.4119 -0.4813
33257SOL    HW211751   1.564   5.668  13.249  0.8443 -0.7187 -1.7103
33258SOL     OW11752   6.130  13.149  13.424  0.1431  0.2343  0.2227
33258SOL    HW111753   6.146  13.148  13.330 -0.7431 -0.6946  0.0513
33258SOL    HW211754   6.034  13.145  13.431  0.2332 -0.6614  1.1510
33259SOL     OW11755   7.264   3.438   3.267 -0.1829 -0.1693  0.0259
33259SOL    HW111756   7.192   3.434   3.204  1.2106 -2.1311 -1.5824
33259SOL    HW211757   7.313   3.516   3.242 -1.2451  0.6947  0.5786
33260SOL     OW11758   3.368   7.696  13.248  0.5098  0.2809 -0.3780
33260SOL    HW111759   3.412   7.681  13.164  0.1528  0.4435 -0.5980
33260SOL    HW211760   3.439   7.717  13.309  0.5983  2.4246 -1.1468
33261SOL     OW11761  10.931  12.454   9.000 -0.4008 -0.5337  0.7819
33261SOL    HW111762  10.874  12.519   9.040 -2.1425 -1.7414  0.4162
33261SOL    HW211763  10.954  12.491   8.915 -2.5489 -0.9217 -0.0322
33262SOL     OW11764   5.890   1.231  12.731  0.2881 -0.4134  0.1209
33262SOL    HW111765   5.854   1.286  12.800  0.1732  0.8735 -0.9179
33262SOL    HW211766   5.876   1.141  12.761  1.5763  0.0947  2.4382
33263SOL     OW11767   9.234   2.160   1.149  0.0309  0.0413  0.2125
33263SOL    HW111768   9.242   2.207   1.232  0.5809 -2.3671  1.6069
33263SOL    HW211769   9.323   2.156   1.114 -0.3781  2.2939 -1.3266
33264SOL     OW11770   0.029   3.694   4.128 -0.0273  0.1756  0.8164
33264SOL    HW111771  -0.050   3.692   4.075 -0.1773 -0.5259  1.0577
33264SOL    HW211772   0.098   3.721   4.068 -0.5071  1.1805  0.6955
33265SOL     OW11773  10.453   9.146  13.022  0.0859  0.0252 -0.2912
33265SOL    HW111774  10.485   9.057  13.032  1.6344  0.5840 -0.0959
33265SOL    HW211775  10.380   9.138  12.960  0.1131 -1.3845 -0.1779
33266SOL     OW11776   1.050  11.674  12.331 -0.3352  0.2827  0.4010
33266SOL    HW111777   1.109  11.600  12.346 -0.9046 -0.1253  0.6363
33266SOL    HW211778   0.970  11.652  12.379 -1.3455  0.0185 -1.3197
33267SOL     OW11779  11.976   3.298   1.577  0.0678  0.2255 -0.8063
33267SOL    HW111780  11.891   3.329   1.545  0.2708 -0.1254 -1.7284
33267SOL    HW211781  11.956   3.253   1.659 -0.9509 -1.6539 -2.0326
33268SOL     OW11782   2.256   1.327   7.258  0.1743 -0.7240 -0.1946
33268SOL    HW111783   2.280   1.305   7.348  1.8928  0.0779 -0.4156
33268SOL    HW211784   2.286   1.252   7.206  0.0206 -0.7811 -0.2004
33269SOL     OW11785   9.093  13.174  13.678 -0.2721  0.2728 -0.1109
33269SOL    HW111786   9.182  13.185  13.711  0.1977  0.3868 -1.3353
33269SOL    HW211787   9.043  13.242  13.721  0.5092  0.9874 -0.3024
33270SOL     OW11788  10.710   2.259  11.444  0.1360  0.1064 -0.8011
33270SOL    HW111789  10.653   2.230  11.515  0.0300 -0.2014 -1.0138
33270SOL    HW211790  10.778   2.312  11.488 -0.5119  0.7795 -0.5899
33271SOL     OW11791  12.838   1.811   1.783 -0.4146 -0.0928 -0.3559
33271SOL    HW111792  12.885   1.767   1.713  0.7022 -1.2620  1.0787
33271SOL    HW211793  12.823   1.900   1.749  0.3056 -0.5463 -1.9585
33272SOL     OW11794   8.146   1.694   8.687 -0.1697  0.2245 -0.2058
33272SOL    HW111795   8.080   1.750   8.726 -0.1673  1.2002 -1.5083
33272SOL    HW211796   8.223   1.705   8.742 -0.4484  0.8057  0.0741
33273SOL     OW11797  11.902   4.953   4.722 -0.0821 -0.3780 -0.0044
33273SOL    HW111798  11.832   4.904   4.678 -0.3922 -0.3088  0.4059
33273SOL    HW211799  11.899   5.040   4.681 -0.1031 -0.4367 -0.1283
33274SOL     OW11800  10.684  12.538   1.698 -0.1652 -0.4096 -0.5580
33274SOL    HW111801  10.621  12.592   1.746 -1.3524 -2.5866  0.5121
33274SOL    HW211802  10.646  12.528   1.611  1.0568  2.0015 -1.4540
33275SOL     OW11803   1.081  14.038   7.890  0.2942  0.7420  0.4852
33275SOL    HW111804   1.039  14.001   7.812  0.4002 -0.9500  1.2023
33275SOL    HW211805   1.175  14.031   7.872  0.3404 -0.5216  1.1229
33276SOL     OW11806   9.625   2.180  11.253 -0.2337 -0.4869 -0.1093
33276SOL    HW111807   9.713   2.148  11.274 -0.5148 -1.2788 -0.0793
33276SOL    HW211808   9.638   2.248  11.187  0.6052  1.3622  1.8432
33277SOL     OW11809  13.794   8.623  11.812  0.3305  0.0380 -0.7065
33277SOL    HW111810  13.801   8.699  11.870 -1.7040 -0.3614  0.1490
33277SOL    HW211811  13.819   8.548  11.867  0.0173 -0.1642 -0.8368
33278SOL     OW11812   4.089   8.509  12.567  0.1231 -0.2425  0.2639
33278SOL    HW111813   4.037   8.569  12.514  0.4485 -0.2673 -0.0875
33278SOL    HW211814   4.126   8.446  12.505 -0.1918 -0.7952  0.6225
33279SOL     OW11815   9.613   2.819   5.130 -0.5014  0.1271 -0.3769
33279SOL    HW111816   9.552   2.774   5.072  1.4839 -2.5127 -0.5966
33279SOL    HW211817   9.671   2.866   5.071 -1.1896  1.1798 -0.2462
33280SOL     OW11818  11.491   9.453  14.016  0.6400  0.4488 -0.0953
33280SOL    HW111819  11.406   9.489  13.991  0.8240  1.1797  0.2685
33280SOL    HW211820  11.551   9.484  13.948  0.5079 -0.6392 -0.7256
33281SOL     OW11821   8.957   3.165   5.966 -0.2929 -0.0817 -0.1643
33281SOL    HW111822   8.891   3.127   5.908  0.5390 -1.1749 -0.4154
33281SOL    HW211823   8.928   3.140   6.054 -0.9096  0.5653 -0.1704
33282SOL     OW11824  10.963  13.742  13.581 -0.1814  0.2998 -0.0169
33282SOL    HW111825  10.871  13.716  13.585  0.0347 -0.2919  1.6588
33282SOL    HW211826  10.965  13.807  13.510 -2.0171  0.8520  0.3641
33283SOL     OW11827  10.488   7.810  10.915 -0.2300 -0.3109  0.3089
33283SOL    HW111828  10.521   7.847  10.833 -0.1317 -1.6801 -0.2926
33283SOL    HW211829  10.432   7.737  10.888  0.3044 -1.1803  1.4674
33284SOL     OW11830   9.847  10.718   8.583 -0.1061  0.1288 -0.1086
33284SOL    HW111831   9.783  10.693   8.650 -1.2035 -1.7511 -1.7487
33284SOL    HW211832   9.895  10.637   8.566  0.5619  0.7276 -1.1648
33285SOL     OW11833  12.775   4.293  10.454 -0.1178  0.1654 -0.4208
33285SOL    HW111834  12.696   4.347  10.459  1.5462  2.7016  0.7729
33285SOL    HW211835  12.743   4.203  10.449 -3.0871  0.9543  1.6137
33286SOL     OW11836   8.190   1.319   8.987 -0.6436 -0.6601  0.5186
33286SOL    HW111837   8.161   1.355   8.903  1.7206 -0.1342 -0.1315
33286SOL    HW211838   8.151   1.376   9.053  0.0324  0.8452 -0.3523
33287SOL     OW11839   0.298   3.480   2.390 -0.6189 -0.6951  0.1515
33287SOL    HW111840   0.262   3.492   2.478 -1.6981 -0.7187 -0.2703
33287SOL    HW211841   0.254   3.546   2.337  1.5581  0.7373  0.0150
33288SOL     OW11842   3.801   0.948  10.652  0.2556 -0.6028 -0.3387
33288SOL    HW111843   3.839   0.872  10.608 -0.6232 -1.0097 -0.4112
33288SOL    HW211844   3.784   1.010  10.582 -1.7492 -1.5043 -0.7092
33289SOL     OW11845  10.350  12.977   9.646  0.4027 -0.0310  0.6044
33289SOL    HW111846  10.408  12.922   9.697  0.1359 -0.8432  0.0498
33289SOL    HW211847  10.325  12.923   9.571  1.2916  1.3173 -0.7512
33290SOL     OW11848   9.212  11.463   4.297  0.3325 -0.3463 -0.2582
33290SOL    HW111849   9.217  11.434   4.388 -0.7732  0.0229 -0.0560
33290SOL    HW211850   9.171  11.391   4.251  0.0070 -0.1594 -0.2671
33291SOL     OW11851  13.007   8.189   6.969  0.3424  0.0084  0.0722
33291SOL    HW111852  12.920   8.225   6.982 -0.5118 -2.2605  1.1968
33291SOL    HW211853  13.058   8.261   6.932 -1.5364  1.9005  0.9784
33292SOL     OW11854   3.882  11.332   7.027 -0.0931  0.5512  0.0792
33292SOL    HW111855   3.836  11.408   6.991  2.5796  3.4006  2.0924
33292SOL    HW211856   3.972  11.341   6.994  0.6396 -0.9048  1.5118
33293SOL     OW11857   7.499   2.345  11.690 -0.3260 -0.3605  0.2451
33293SOL    HW111858   7.509   2.263  11.642  0.1459 -0.4808  0.5430
33293SOL    HW211859   7.438   2.323  11.761 -0.7807 -0.2611 -0.1103
33294SOL     OW11860   8.546   8.256  11.677 -0.1403 -0.0993 -0.7978
33294SOL    HW111861   8.561   8.313  11.753  0.0008  0.0083 -0.9077
33294SOL    HW211862   8.582   8.304  11.603 -0.6721 -0.0149 -1.0020
33295SOL     OW11863   8.931   0.683  11.226  0.1436 -0.3225 -0.1713
33295SOL    HW111864   8.928   0.644  11.314 -0.3923 -1.0367 -0.4950
33295SOL    HW211865   8.955   0.774  11.241  0.4230 -0.5250  0.6902
33296SOL     OW11866  11.235   8.471   6.404  0.4743  0.2713  0.3964
33296SOL    HW111867  11.252   8.425   6.322  0.5026  3.0360 -1.2980
33296SOL    HW211868  11.142   8.492   6.400  0.5020  0.5133  1.0313
33297SOL     OW11869  13.799   6.536  11.812 -0.0880 -0.0127 -0.5476
33297SOL    HW111870  13.742   6.592  11.759 -2.1838 -1.6685 -0.1919
33297SOL    HW211871  13.885   6.543  11.770 -0.4818  2.6742 -1.0495
33298SOL     OW11872  13.702  13.803   4.844 -0.3096 -0.6259  0.2201
33298SOL    HW111873  13.649  13.791   4.923 -2.8341  2.0102 -0.8710
33298SOL    HW211874  13.638  13.818   4.774  1.8453  0.5024 -1.6487
33299SOL     OW11875  10.978   7.501   7.094 -0.3908 -0.0850  0.3589
33299SOL    HW111876  10.902   7.550   7.125 -0.2063  0.5548 -0.1675
33299SOL    HW211877  11.032   7.567   7.050  1.6277 -0.0252  2.6975
33300SOL     OW11878   5.784   5.680  12.570  0.1375 -0.8192  0.0532
33300SOL    HW111879   5.700   5.678  12.618 -0.2319 -0.3969 -0.5573
33300SOL    HW211880   5.831   5.754  12.610  0.0884 -0.8569  0.1835
33301SOL     OW11881  10.211   4.880   5.471  0.2241  0.0713 -0.2559
33301SOL    HW111882  10.230   4.970   5.446 -0.3979 -0.3527 -2.4765
33301SOL    HW211883  10.115   4.873   5.465  0.0185 -0.1832  2.1140
33302SOL     OW11884   0.671   0.004  13.878 -0.2666  0.1124 -0.2908
33302SOL    HW111885   0.605   0.063  13.841  0.3269  0.1765 -1.2550
33302SOL    HW211886   0.675  -0.069  13.817  0.2542 -0.1030 -0.0014
33303SOL     OW11887   8.071   5.248   5.032  0.0858  0.1990  0.2913
33303SOL    HW111888   8.129   5.272   4.960  0.9425  1.4196  1.3437
33303SOL    HW211889   8.129   5.239   5.108 -0.8027 -0.9893  0.8619
33304SOL     OW11890   5.294   6.861   8.732 -0.0948 -0.1470 -0.7088
33304SOL    HW111891   5.373   6.909   8.754 -0.7304  1.8674 -2.4661
33304SOL    HW211892   5.234   6.877   8.805  1.0651 -1.7598  0.6724
33305SOL     OW11893   7.506   4.955   4.634 -0.1087 -0.6651  0.1871
33305SOL    HW111894   7.455   4.941   4.714 -1.6246 -0.1744 -0.6502
33305SOL    HW211895   7.596   4.965   4.664 -0.9310  2.0035  2.0971
33306SOL     OW11896  11.584   6.406   7.385  0.2029  0.3257 -0.3251
33306SOL    HW111897  11.556   6.350   7.458  2.9064 -0.8346 -0.0574
33306SOL    HW211898  11.508   6.408   7.327 -0.6540 -2.1953  0.5395
33307SOL     OW11899   4.722   7.011  11.674 -0.1396  0.3289 -0.6718
33307SOL    HW111900   4.702   7.104  11.687  0.0263  0.6317 -2.4088
33307SOL    HW211901   4.787   7.010  11.604  0.1368 -1.0842 -0.4190
33308SOL     OW11902   9.383   8.319   7.546 -0.3727 -0.1222 -0.4024
33308SOL    HW111903   9.457   8.291   7.492  0.3430 -0.2124  0.6021
33308SOL    HW211904   9.388   8.265   7.624  0.4122  2.0075  1.1243
33309SOL     OW11905   8.077   9.682  11.904 -0.2439  0.3337  0.1175
33309SOL    HW111906   8.137   9.738  11.952  1.1904 -0.8540 -0.2149
33309SOL    HW211907   8.036   9.739  11.839  0.6049  1.1475  0.2889
33310SOL     OW11908   1.651   3.167   8.707  0.2722 -0.4647 -0.0587
33310SOL    HW111909   1.702   3.086   8.708  1.1118  0.0346 -0.9553
33310SOL    HW211910   1.619   3.173   8.617 -0.8492 -0.4328  0.3222
33311SOL     OW11911   1.016   1.836   6.880 -0.7135  0.3142  0.1923
33311SOL    HW111912   1.066   1.916   6.862 -2.2214  1.2723 -0.0280
33311SOL    HW211913   0.982   1.809   6.795  0.5823 -1.1674  0.1103
33312SOL     OW11914   6.211   4.488   3.398 -0.3745 -0.0558  0.2547
33312SOL    HW111915   6.228   4.582   3.390  1.2328 -0.2343  1.1160
33312SOL    HW211916   6.187   4.460   3.310  1.5337  0.7414 -0.5749
33313SOL     OW11917   5.923  13.267   3.907 -0.3900 -0.5463 -0.2439
33313SOL    HW111918   5.921  13.197   3.972 -0.4378 -0.1290  0.2069
33313SOL    HW211919   5.920  13.348   3.958  3.5129 -0.0628 -0.4965
33314SOL     OW11920   2.931   9.762   3.501  0.8773 -0.5255 -0.4232
33314SOL    HW111921   2.923   9.686   3.444 -3.1816 -0.5230 -0.1782
33314SOL    HW211922   2.887   9.833   3.452 -0.3785  0.1383  1.5580
33315SOL     OW11923   0.019  10.887  12.130  0.4911  0.2588  0.1985
33315SOL    HW111924   0.044  10.875  12.038 -0.3787  1.1616 -0.1775
33315SOL    HW211925   0.091  10.849  12.180  0.2378 -1.7300 -0.8524
33316SOL     OW11926   1.256  12.917   5.269  0.1493  0.3989 -0.1309
33316SOL    HW111927   1.336  12.941   5.221  0.0732 -0.8043 -0.9010
33316SOL    HW211928   1.186  12.925   5.205 -0.4501  1.8791  0.6598
33317SOL     OW11929   9.572   3.693   6.145 -0.7261  0.0493 -0.1182
33317SOL    HW111930   9.606   3.606   6.125 -0.0973  0.3796 -0.5200
33317SOL    HW211931   9.514   3.714   6.071  0.2790  0.5754 -0.7671
33318SOL     OW11932   6.842   5.182   3.472 -0.3196 -0.8624  0.4268
33318SOL    HW111933   6.840   5.206   3.565  0.1044  0.1795  0.1801
33318SOL    HW211934   6.872   5.091   3.472 -0.4537 -0.9206  1.3173
33319SOL     OW11935   2.183   3.121  14.024 -0.0657  0.2416 -0.1436
33319SOL    HW111936   2.151   3.117  13.934 -0.7963 -0.4310  0.1359
33319SOL    HW211937   2.236   3.042  14.035 -2.7712 -1.5609  1.0181
33320SOL     OW11938   7.217  13.731   3.613  0.2869  0.2871 -0.1062
33320SOL    HW111939   7.237  13.804   3.553  0.8734 -0.5624 -0.9828
33320SOL    HW211940   7.169  13.668   3.559 -1.9573  0.8456  1.1488
33321SOL     OW11941   4.273  12.098  14.044 -0.2630 -0.2841  0.1040
33321SOL    HW111942   4.200  12.114  13.984 -0.4149 -0.0513  0.3478
33321SOL    HW211943   4.351  12.116  13.992 -0.3913 -0.1679 -0.0495
33322SOL     OW11944   7.443   9.003   3.811 -0.3692 -0.0454 -0.4216
33322SOL    HW111945   7.467   8.996   3.903 -1.2623  0.8109 -0.1113
33322SOL    HW211946   7.348   9.010   3.811 -0.4514 -0.8690 -1.4730
33323SOL     OW11947   9.869  10.717   9.682  0.1917 -0.0486  0.1629
33323SOL    HW111948   9.785  10.754   9.655  0.0568  0.5342  1.3320
33323SOL    HW211949   9.934  10.781   9.652  0.0057  0.8460  1.6066
33324SOL     OW11950   6.915   0.211   3.531  0.8737 -0.2369  0.5679
33324SOL    HW111951   6.951   0.122   3.539 -0.2276 -0.7085  0.4526
33324SOL    HW211952   6.842   0.213   3.592  1.3683  0.8604  1.1420
33325SOL     OW11953   7.768   1.685   4.859  0.3432 -0.1578  0.1401
33325SOL    HW111954   7.802   1.717   4.775 -0.0707 -0.6210 -0.2074
33325SOL    HW211955   7.676   1.711   4.860  0.4275  0.1429  0.6049
33326SOL     OW11956   0.281   5.857   0.418  0.0118  0.3677  1.1065
33326SOL    HW111957   0.332   5.787   0.377  0.6686  1.2720  0.3066
33326SOL    HW211958   0.345   5.905   0.471 -0.7661 -0.5945  2.9850
33327SOL     OW11959   3.963   6.300  12.359 -0.2945  0.1489  0.3764
33327SOL    HW111960   3.886   6.304  12.416  0.0300  0.0585  0.8178
33327SOL    HW211961   4.009   6.220  12.385  0.7896  1.0146  1.1889
33328SOL     OW11962   7.712   3.618  11.290  0.2236 -0.2521  0.6357
33328SOL    HW111963   7.755   3.690  11.337 -1.6440  0.4299  1.4095
33328SOL    HW211964   7.719   3.543  11.349 -0.3283  0.0610  1.1027
33329SOL     OW11965   5.619   4.580   4.937 -0.1312  0.0675 -0.4127
33329SOL    HW111966   5.708   4.544   4.943 -0.2981 -0.4390 -0.8608
33329SOL    HW211967   5.563   4.512   4.973 -0.1822  1.2194  1.8490
33330SOL     OW11968   3.391   5.189   4.786 -0.2118 -0.0202  1.1391
33330SOL    HW111969   3.317   5.179   4.727  0.1561 -0.4050  0.7386
33330SOL    HW211970   3.430   5.102   4.792 -0.2317  0.0155  1.9335
33331SOL     OW11971   7.399   9.996   0.262 -0.2048 -0.1750  0.2799
33331SOL    HW111972   7.401   9.925   0.325  3.1798 -0.3760  0.1000
33331SOL    HW211973   7.388  10.075   0.315  0.2408 -0.5220  0.9037
33332SOL     OW11974   0.076   1.453  11.327  0.1021 -0.0771  0.5915
33332SOL    HW111975   0.100   1.405  11.406  0.4100  2.1228  1.9190
33332SOL    HW211976  -0.020   1.457  11.329 -0.0895 -2.3032 -0.6481
33333SOL     OW11977   1.719  11.982   1.786 -0.1056 -0.0901  0.1459
33333SOL    HW111978   1.749  11.924   1.716 -0.5370  1.5475 -1.4735
33333SOL    HW211979   1.680  11.923   1.850 -0.2475 -1.6276 -1.2760
33334SOL     OW11980   5.340   2.495   4.893 -0.5609 -0.4459 -0.3185
33334SOL    HW111981   5.416   2.554   4.886 -0.4754 -0.4484  0.5290
33334SOL    HW211982   5.276   2.533   4.832 -0.7697  0.9535  0.7094
33335SOL     OW11983   3.605   5.018   8.637  0.9640  0.1437 -0.1001
33335SOL    HW111984   3.601   5.030   8.542  2.2243 -1.1811 -0.3514
33335SOL    HW211985   3.599   5.107   8.672 -1.5586  0.5152 -1.2895
33336SOL     OW11986  13.778   0.442   9.401 -0.3198  0.6171  0.1410
33336SOL    HW111987  13.696   0.401   9.429 -0.1394  0.1943  0.0630
33336SOL    HW211988  13.820   0.470   9.482  0.5179 -1.2030  0.3677
33337SOL     OW11989   4.142  12.098  13.801 -0.1576  0.5770 -0.4648
33337SOL    HW111990   4.201  12.126  13.730  0.1835  1.4048  0.1255
33337SOL    HW211991   4.071  12.163  13.799 -0.7515 -0.0710 -0.7841
33338SOL     OW11992  12.098   0.264   4.358 -0.6928  0.3376 -0.6649
33338SOL    HW111993  12.009   0.296   4.375 -1.2672 -1.5911  0.2437
33338SOL    HW211994  12.089   0.208   4.281 -0.5760 -0.9316  0.2054
33339SOL     OW11995   2.514  12.241   3.902 -0.4034 -0.3233 -0.1691
33339SOL    HW111996   2.453  12.280   3.965 -0.4212 -0.4967 -0.0806
33339SOL    HW211997   2.572  12.314   3.878 -2.2527  0.5846 -2.2794
33340SOL     OW11998  10.111   4.066   1.992  0.5442  0.7845 -0.0674
33340SOL    HW111999  10.143   4.051   1.903 -1.2383  1.2051 -0.8278
33340SOL    HW212000  10.040   4.003   2.003  0.0308  1.4610  0.6381
33341SOL     OW12001   2.269  12.361   2.607  0.2552 -0.0857 -0.1093
33341SOL    HW112002   2.313  12.324   2.683  0.1221 -1.7362 -0.7775
33341SOL    HW212003   2.339  12.402   2.556  0.2271  1.8054  1.2550
33342SOL     OW12004   5.582   5.500   6.775 -0.4109 -0.0424  0.2096
33342SOL    HW112005   5.622   5.427   6.823  1.7320  1.4821  0.8940
33342SOL    HW212006   5.506   5.525   6.828 -0.7393 -1.2666  0.3508
33343SOL     OW12007   6.130   7.599  11.626  0.6833 -0.8773 -0.0098
33343SOL    HW112008   6.191   7.662  11.664 -0.2067  0.9404 -1.4147
33343SOL    HW212009   6.170   7.573  11.543 -0.8442  1.2179 -1.5093
33344SOL     OW12010   0.319   6.556   4.149 -0.1003 -0.2826  0.5729
33344SOL    HW112011   0.336   6.610   4.071 -1.0909 -0.5303  0.1713
33344SOL    HW212012   0.406   6.523   4.174  0.4646  1.1480  0.5884
33345SOL     OW12013   3.022   6.010   3.465 -0.3041  0.1343 -0.4030
33345SOL    HW112014   2.984   6.020   3.378  0.2532  1.0242 -0.5580
33345SOL    HW212015   3.027   6.099   3.499  1.5991  0.0483 -0.3720
33346SOL     OW12016   6.165   4.265   7.005  0.1516 -0.2182 -0.0809
33346SOL    HW112017   6.194   4.310   6.926 -1.0413 -0.6451 -0.7912
33346SOL    HW212018   6.246   4.240   7.050  0.8396  0.1854 -1.0685
33347SOL     OW12019   4.452   4.508   7.122  0.6429 -0.3338 -0.5054
33347SOL    HW112020   4.400   4.588   7.113  1.6742  0.4617  0.2541
33347SOL    HW212021   4.392   4.437   7.102 -0.5143  0.5939 -0.4059
33348SOL     OW12022  10.454  10.801  12.266 -0.5183  0.5214 -0.1140
33348SOL    HW112023  10.450  10.744  12.343  0.0217 -0.0168 -0.4770
33348SOL    HW212024  10.517  10.870  12.292 -1.4872  1.2083  0.4772
33349SOL     OW12025   2.783   5.778  11.830 -0.0471 -0.0845 -0.2241
33349SOL    HW112026   2.844   5.806  11.761 -2.0091 -1.1670 -2.5376
33349SOL    HW212027   2.696   5.793  11.793 -1.2420  0.0778  2.4021
33350SOL     OW12028   8.661   6.096   2.589  0.3503  0.1052 -0.0786
33350SOL    HW112029   8.612   6.064   2.513  0.4316  0.1936 -0.1684
33350SOL    HW212030   8.734   6.145   2.551  1.3411 -1.2462  0.0268
33351SOL     OW12031   3.686   4.557   3.617 -0.7195 -0.1564 -0.4308
33351SOL    HW112032   3.633   4.502   3.674 -0.8847 -0.1111 -0.5415
33351SOL    HW212033   3.775   4.549   3.652 -0.8257 -0.1068 -0.1522
33352SOL     OW12034  12.897   0.777  12.537  0.2683  0.1831  0.4725
33352SOL    HW112035  12.930   0.766  12.626  0.6260  1.6145  0.5551
33352SOL    HW212036  12.804   0.757  12.542  0.4310 -0.4279  1.0168
33353SOL     OW12037   2.283   5.612   8.545  0.2198 -0.2166 -0.0037
33353SOL    HW112038   2.303   5.582   8.457 -0.3307  1.3396 -0.6906
33353SOL    HW212039   2.195   5.578   8.563  1.1187 -2.3045  0.8220
33354SOL     OW12040  13.591   1.662  13.218  0.2966  0.5140  0.1933
33354SOL    HW112041  13.561   1.708  13.140  2.3318  0.6208 -0.5767
33354SOL    HW212042  13.686   1.668  13.215  0.5709 -1.9295  1.1656
33355SOL     OW12043   3.645   0.896   8.767 -0.7638 -0.3653 -0.4050
33355SOL    HW112044   3.670   0.988   8.770 -1.2834 -0.2400  0.9239
33355SOL    HW212045   3.550   0.897   8.777 -0.7755 -1.0479 -0.4090
33356SOL     OW12046  11.327  12.725  12.700 -0.2090  0.0850 -0.1920
33356SOL    HW112047  11.359  12.634  12.703 -0.1398  0.0929 -0.6318
33356SOL    HW212048  11.324  12.746  12.607  0.9903  0.9710 -0.0465
33357SOL     OW12049   9.980   4.744   3.907  0.1767  0.3582  0.3430
33357SOL    HW112050  10.035   4.815   3.938 -0.7284  0.9974  0.5284
33357SOL    HW212051   9.890   4.771   3.929 -0.1779 -0.9030  0.5623
33358SOL     OW12052  11.655   1.720   0.686  0.1189  0.2864  0.2818
33358SOL    HW112053  11.703   1.733   0.768 -1.1109 -0.4987  1.1543
33358SOL    HW212054  11.688   1.636   0.653 -2.6259 -1.8405  2.4254
33359SOL     OW12055   8.782   4.272   1.650  0.1165 -1.1391 -0.5662
33359SOL    HW112056   8.839   4.345   1.625 -0.4437 -0.4931 -0.0254
33359SOL    HW212057   8.734   4.251   1.570  0.7696 -1.3769 -0.9016
33360SOL     OW12058  10.494   6.545   0.151 -0.2290 -0.0760 -0.2809
33360SOL    HW112059  10.510   6.504   0.236  1.9657  3.6110  1.3007
33360SOL    HW212060  10.402   6.526   0.132 -0.2500 -2.7278  1.8351
33361SOL     OW12061   0.619   6.838   6.458 -0.0349 -0.3058 -0.3893
33361SOL    HW112062   0.709   6.865   6.444 -0.0104 -0.0486  0.2081
33361SOL    HW212063   0.623   6.742   6.463  0.0002 -0.3847 -1.6865
33362SOL     OW12064   9.453   1.034   1.090  0.2577 -0.1104  0.6646
33362SOL    HW112065   9.373   0.987   1.067  1.2019 -0.8993 -1.1745
33362SOL    HW212066   9.469   1.092   1.016  0.5916  1.1572  1.6946
33363SOL     OW12067   3.241   0.851   7.032 -0.5513  0.4933 -0.4323
33363SOL    HW112068   3.336   0.846   7.028 -0.1522  4.6058 -0.6085
33363SOL    HW212069   3.211   0.795   6.960  1.8316  0.5643 -1.5925
33364SOL     OW12070   3.342  11.808  12.654 -0.0584  0.1480 -0.2475
33364SOL    HW112071   3.261  11.844  12.690 -0.0341 -2.2314  2.5521
33364SOL    HW212072   3.405  11.881  12.659 -1.3103  1.2477  0.0664
33365SOL     OW12073   0.217   9.655  10.815 -0.3241  0.2381 -0.4640
33365SOL    HW112074   0.212   9.599  10.738  0.2948 -0.4803 -0.0042
33365SOL    HW212075   0.262   9.734  10.785  1.6390 -0.8071 -0.4537
33366SOL     OW12076   3.170   9.612   9.797 -0.1790 -0.1928 -0.3681
33366SOL    HW112077   3.184   9.597   9.703  0.8949  0.4248 -0.3241
33366SOL    HW212078   3.078   9.592   9.811 -0.2917 -0.5381 -1.5117
33367SOL     OW12079   0.415   4.287   7.463  0.2314  0.1141 -0.2546
33367SOL    HW112080   0.490   4.236   7.434  1.1253  0.7876  0.8289
33367SOL    HW212081   0.394   4.344   7.389  0.6572 -0.2066 -0.6234
33368SOL     OW12082   0.947   0.698   8.288  0.2685 -0.2614  0.0886
33368SOL    HW112083   1.035   0.661   8.285  0.8382  1.1208 -1.7513
33368SOL    HW212084   0.943   0.744   8.372  1.8648  0.9135 -0.4288
33369SOL     OW12085   2.142   7.249   1.380  0.3243 -0.1348  0.1589
33369SOL    HW112086   2.048   7.259   1.395  0.3080  1.2634 -0.7048
33369SOL    HW212087   2.183   7.303   1.448  0.4414  0.3727 -0.3013
33370SOL     OW12088   6.806   0.706  12.235 -0.0452 -0.0817 -0.2423
33370SOL    HW112089   6.768   0.754  12.308 -3.0272 -0.6080 -1.3120
33370SOL    HW212090   6.890   0.676  12.267 -0.8799  0.4032  2.6631
33371SOL     OW12091  12.109   7.489   1.763 -0.1883  0.9100  0.0133
33371SOL    HW112092  12.030   7.534   1.793 -1.7900 -0.1353 -2.3386
33371SOL    HW212093  12.121   7.519   1.673  1.9974  0.8414  0.2237
33372SOL     OW12094   7.350  10.181   3.061  0.1951  0.6463 -0.4874
33372SOL    HW112095   7.431  10.232   3.057 -0.1816  1.7041  2.6767
33372SOL    HW212096   7.281  10.245   3.040  0.0069  0.3446 -0.7944
33373SOL     OW12097   9.327   6.114  12.207  0.4247 -0.0928  0.1033
33373SOL    HW112098   9.399   6.152  12.155 -0.1646 -1.7815 -2.1069
33373SOL    HW212099   9.340   6.150  12.295  3.0824  0.8314 -0.5551
33374SOL     OW12100   9.867   2.228   3.045  0.0322  0.1241  0.4395
33374SOL    HW112101   9.902   2.308   3.084  0.5733  0.3999 -0.5972
33374SOL    HW212102   9.944   2.183   3.010 -0.4602 -0.0353 -0.4577
33375SOL     OW12103   8.468  13.779   0.292  0.2517 -0.0828  0.9439
33375SOL    HW112104   8.439  13.709   0.234 -0.7266  0.1336  1.1568
33375SOL    HW212105   8.553  13.804   0.257 -0.7294  0.7423 -1.0700
33376SOL     OW12106   0.858   1.820   2.145 -0.0688 -0.3085  0.6984
33376SOL    HW112107   0.922   1.764   2.100 -1.2005 -0.6792 -0.4994
33376SOL    HW212108   0.908   1.860   2.217  1.7178  0.0159 -0.6467
33377SOL     OW12109  10.180  13.483  10.419 -0.1948 -0.8386 -0.7944
33377SOL    HW112110  10.192  13.395  10.383  0.5687 -0.6607 -0.9836
33377SOL    HW212111  10.263  13.503  10.462 -0.0721  0.1209 -1.4528
33378SOL     OW12112   9.537   9.495  12.624 -0.1952 -0.2872  0.1282
33378SOL    HW112113   9.503   9.412  12.589  1.5946 -0.9770 -0.0567
33378SOL    HW212114   9.511   9.494  12.716  0.1046 -1.2356  0.2173
33379SOL     OW12115  11.956   2.497  10.160  0.4611  0.4986 -0.2123
33379SOL    HW112116  11.950   2.436  10.087 -0.8669  0.1774  0.1332
33379SOL    HW212117  11.966   2.583  10.119  2.9031  0.0485 -0.6943
33380SOL     OW12118   1.514   4.138  13.133 -0.2229 -0.0668 -0.4523
33380SOL    HW112119   1.604   4.150  13.103  0.2762 -1.0125  0.5803
33380SOL    HW212120   1.521   4.072  13.202 -1.2639  1.9801  1.7421
33381SOL     OW12121   2.806   9.123   0.915 -0.3128  0.1172  0.1088
33381SOL    HW112122   2.742   9.112   0.846  0.5030 -1.3423 -0.4626
33381SOL    HW212123   2.791   9.049   0.974  1.0988 -0.5289 -0.2812
33382SOL     OW12124  13.937   9.280   3.996  0.0452 -0.2817 -0.1054
33382SOL    HW112125  13.864   9.280   4.058 -0.4715 -0.3787 -0.7082
33382SOL    HW212126  13.946   9.372   3.971  1.2397  0.0071  1.2363
33383SOL     OW12127   0.405   6.358   3.572 -0.0369 -0.0484 -0.3535
33383SOL    HW112128   0.474   6.316   3.623  0.3538 -1.0181 -1.6220
33383SOL    HW212129   0.385   6.438   3.620  3.0992  1.1185 -0.7373
33384SOL     OW12130   2.483   1.646   7.560  0.5029 -0.0291 -0.0686
33384SOL    HW112131   2.540   1.622   7.487 -0.6838  1.3824 -1.5244
33384SOL    HW212132   2.499   1.739   7.575 -1.2041  0.3561 -0.3737
33385SOL     OW12133  12.833  12.491   8.110 -0.1316  0.0663  0.3808
33385SOL    HW112134  12.921  12.529   8.118 -0.8103  1.5824  1.0782
33385SOL    HW212135  12.848  12.404   8.073  1.9028 -0.7597  2.8218
33386SOL     OW12136  10.776   4.646   1.632  0.2920 -0.6737 -0.2029
33386SOL    HW112137  10.797   4.650   1.539 -0.5108 -0.1383 -0.3687
33386SOL    HW212138  10.717   4.720   1.646 -0.0024 -1.0590  0.6277
33387SOL     OW12139   0.358   8.085   5.529 -0.2833  0.2214  0.3964
33387SOL    HW112140   0.405   8.168   5.536 -3.0197  1.7661  2.6278
33387SOL    HW212141   0.281   8.105   5.475 -0.5194 -1.1406  0.1819
33388SOL     OW12142   6.540  13.696   2.037 -0.0705  0.5487 -0.0096
33388SOL    HW112143   6.456  13.698   1.992 -1.2757 -0.2100  2.0680
33388SOL    HW212144   6.521  13.657   2.123  2.3510  0.5929  0.6373
33389SOL     OW12145  11.857  12.128   3.619  0.2792  0.2724  0.0768
33389SOL    HW112146  11.951  12.128   3.637 -0.0393  0.4215  1.9167
33389SOL    HW212147  11.838  12.218   3.591  0.4723  0.6051  0.9931
33390SOL     OW12148   4.791   5.583   0.629 -0.3827 -0.0795  0.7218
33390SOL    HW112149   4.740   5.600   0.708 -0.6669  1.7403  0.1958
33390SOL    HW212150   4.726   5.564   0.561 -0.1430 -1.5743  0.8835
33391SOL     OW12151   4.468   0.513   1.299 -0.4677 -0.1029  0.5878
33391SOL    HW112152   4.455   0.421   1.277 -1.0304  0.1541 -0.1847
33391SOL    HW212153   4.563   0.522   1.309 -0.4481 -0.8706  1.1707
33392SOL     OW12154   8.005   2.982   0.784 -0.0996 -0.0582  0.1690
33392SOL    HW112155   8.063   2.981   0.707  1.8892 -2.3684  1.5374
33392SOL    HW212156   7.934   2.922   0.761 -0.5762  0.7580 -0.5441
33393SOL     OW12157   0.737  12.679   1.683 -0.1456  0.3851 -0.0883
33393SOL    HW112158   0.730  12.736   1.759 -1.1318 -0.1540  0.2449
33393SOL    HW212159   0.767  12.736   1.612  0.9772  0.8462  0.7437
33394SOL     OW12160   3.529  11.686  12.520 -0.0054  0.2762 -0.2136
33394SOL    HW112161   3.468  11.723  12.583 -1.3934 -0.2321 -1.2072
33394SOL    HW212162   3.511  11.592  12.521  0.3100  0.1931 -0.9766
33395SOL     OW12163  10.861   4.820  12.422 -0.1187 -0.3700  0.1614
33395SOL    HW112164  10.830   4.751  12.480  1.4868 -1.2535  0.0318
33395SOL    HW212165  10.946   4.846  12.459  0.1200  0.2811 -0.8073
33396SOL     OW12166   8.031   2.626  12.963 -0.0552 -0.7050  0.3767
33396SOL    HW112167   7.946   2.671  12.960  0.4550  0.2499 -1.0154
33396SOL    HW212168   8.090   2.689  13.004  0.4434 -0.5099 -0.6287
33397SOL     OW12169  13.263  12.184  11.709  0.4127 -0.0436 -0.0320
33397SOL    HW112170  13.244  12.167  11.801 -0.8591  0.5637 -0.1606
33397SOL    HW212171  13.177  12.194  11.668  0.9827  0.6094 -1.1102
33398SOL     OW12172   0.495   1.015  11.093  0.0471 -0.1757  0.5872
33398SOL    HW112173   0.428   0.948  11.104 -1.0786  0.3661 -2.2277
33398SOL    HW212174   0.469   1.063  11.015  1.6817  2.5627  1.5891
33399SOL     OW12175   0.541   0.926  12.354  0.4632  0.2085  0.6106
33399SOL    HW112176   0.544   0.830  12.356 -0.4365  0.1822  2.0250
33399SOL    HW212177   0.456   0.948  12.391 -0.2023  1.5386 -1.5677
33400SOL     OW12178  12.658  10.193   1.999  0.3482  0.7152  0.0994
33400SOL    HW112179  12.675  10.286   2.019  0.1119  0.9267 -0.6533
33400SOL    HW212180  12.653  10.190   1.904 -0.0332 -0.0106  0.1398
33401SOL     OW12181  10.006   9.225   1.939 -0.4452  0.3159  0.0681
33401SOL    HW112182   9.987   9.192   2.027 -0.0956 -0.0183  0.0188
33401SOL    HW212183   9.922   9.217   1.893 -0.1839 -1.3397 -0.2000
33402SOL     OW12184   6.588  12.924   5.520  0.0738 -0.2426 -0.1765
33402SOL    HW112185   6.629  12.993   5.468  1.2014 -0.5402  0.2737
33402SOL    HW212186   6.500  12.915   5.484  0.4263  0.3743 -1.2308
33403SOL     OW12187   8.615   2.240   9.738 -0.2241  0.1908  0.0251
33403SOL    HW112188   8.635   2.312   9.797  3.2593 -1.8270  1.6530
33403SOL    HW212189   8.661   2.261   9.657  2.5269 -0.8939  1.1670
33404SOL     OW12190   4.161   0.736   4.525  0.2606 -0.0091 -0.1384
33404SOL    HW112191   4.131   0.761   4.438  1.1277  1.4427 -0.0547
33404SOL    HW212192   4.247   0.696   4.510  1.1364  1.6564  0.1261
33405SOL     OW12193  13.558   4.971   8.004  0.0398  0.3094 -0.6099
33405SOL    HW112194  13.651   4.982   8.024 -0.1526  1.7646 -0.4171
33405SOL    HW212195  13.557   4.954   7.909  0.5760 -1.2357 -0.3746
33406SOL     OW12196   6.183  12.323  13.204 -0.7465 -0.4549  0.2981
33406SOL    HW112197   6.138  12.354  13.125  0.3170 -2.2035 -1.0688
33406SOL    HW212198   6.265  12.372  13.206  0.2786 -2.0110 -1.0509
33407SOL     OW12199   6.463  12.501   1.204  0.2199 -0.4374  0.7342
33407SOL    HW112200   6.378  12.489   1.162  0.5286  0.4648 -0.1809
33407SOL    HW212201   6.527  12.477   1.138  0.6965 -0.6334  1.2554
33408SOL     OW12202   9.963   6.339   8.668  0.1004 -0.2438  0.0078
33408SOL    HW112203   9.875   6.306   8.649  0.0163  0.3421 -0.6612
33408SOL    HW212204   9.991   6.288   8.743 -1.5534  0.8266  1.4406
33409SOL     OW12205   1.511   3.841   8.737  0.0991  0.4806  0.4869
33409SOL    HW112206   1.478   3.889   8.813  0.6796 -0.0107  1.0486
33409SOL    HW212207   1.439   3.847   8.673 -0.6800  0.2961  1.3165
33410SOL     OW12208   1.089   5.202   0.633  0.6158  0.0143 -0.4156
33410SOL    HW112209   1.157   5.198   0.700 -1.2404 -1.3433  1.5245
33410SOL    HW212210   1.014   5.156   0.671 -0.7164 -0.4461 -3.2750
33411SOL     OW12211  12.213  10.834   3.304 -0.0269  0.3355  0.2321
33411SOL    HW112212  12.126  10.868   3.326 -0.0758 -0.2994  1.0323
33411SOL    HW212213  12.268  10.912   3.300 -0.7661  0.8328 -1.0273
33412SOL     OW12214   3.794  10.132   8.995  0.0153 -0.3820  0.1618
33412SOL    HW112215   3.883  10.116   9.028  0.2609  2.5711  1.2673
33412SOL    HW212216   3.747  10.051   9.014  1.3535 -0.5505  3.7126
33413SOL     OW12217  11.640   3.173  12.309 -0.3948 -0.3638 -0.0099
33413SOL    HW112218  11.548   3.170  12.333 -0.1720  1.3762  1.2229
33413SOL    HW212219  11.674   3.251  12.353  1.5768 -0.7426 -0.7619
33414SOL     OW12220   7.517   7.085   2.337 -0.0683 -0.5170  0.1390
33414SOL    HW112221   7.520   7.170   2.381 -1.2348  0.6056 -1.7937
33414SOL    HW212222   7.425   7.075   2.311  0.4838 -1.2965 -1.6238
33415SOL     OW12223  13.342   8.723   8.515 -0.6555  0.2075 -0.1880
33415SOL    HW112224  13.376   8.759   8.597 -0.8832 -0.0936  0.0440
33415SOL    HW212225  13.299   8.642   8.541  1.1286 -1.0264 -0.8940
33416SOL     OW12226  13.937   4.934   3.956 -0.3115 -0.0046 -0.0301
33416SOL    HW112227  13.943   4.992   4.032 -0.0591 -0.7240  0.5223
33416SOL    HW212228  14.029   4.917   3.932 -0.3973  0.8134 -0.9736
33417SOL     OW12229  11.129  12.196   7.511 -0.3346 -0.4251 -0.0034
33417SOL    HW112230  11.076  12.272   7.536 -0.3432  0.2543 -1.8887
33417SOL    HW212231  11.144  12.208   7.417  1.6641 -1.5351  0.1261
33418SOL     OW12232  12.260   6.810   7.052  0.0713  0.5049 -0.1171
33418SOL    HW112233  12.322   6.772   6.990  0.6205 -0.0225  0.7313
33418SOL    HW212234  12.297   6.790   7.138 -1.0381  0.5929  0.3977
33419SOL     OW12235   6.609   2.800   2.547  0.2470 -0.1825  0.4926
33419SOL    HW112236   6.574   2.856   2.478  0.3012  1.9591  2.0747
33419SOL    HW212237   6.532   2.772   2.597  0.3303 -0.2351  0.5932
33420SOL     OW12238   4.801  11.130  10.321  0.2849 -0.3499 -0.0248
33420SOL    HW112239   4.717  11.087  10.308  0.6450 -1.5246  1.2652
33420SOL    HW212240   4.782  11.204  10.379 -0.2417  0.9478 -1.7878
33421SOL     OW12241  13.913   9.733   9.903 -0.7661  0.6160  0.6316
33421SOL    HW112242  13.897   9.643   9.930 -2.3746  0.5118 -0.5068
33421SOL    HW212243  13.925   9.728   9.808  0.5983  1.4433  0.7262
33422SOL     OW12244   6.676   8.965   7.881 -0.2457  0.2272  0.1402
33422SOL    HW112245   6.615   9.038   7.890  0.3160  0.6824  0.3534
33422SOL    HW212246   6.763   9.007   7.880  0.0624 -0.4096 -0.0993
33423SOL     OW12247   2.145  12.198   3.193  0.1529 -0.3649  0.3391
33423SOL    HW112248   2.127  12.105   3.180  1.5782 -0.3220 -2.7191
33423SOL    HW212249   2.221  12.216   3.138  1.4936  2.1424  2.7281
33424SOL     OW12250   0.390  13.896  10.580  0.2075 -0.4447  0.5210
33424SOL    HW112251   0.441  13.952  10.639  0.9711  0.1793 -0.6951
33424SOL    HW212252   0.442  13.892  10.500 -2.6925  2.3318 -1.7865
33425SOL     OW12253  12.103   0.287  13.762  0.2199 -0.0452 -0.2177
33425SOL    HW112254  12.074   0.359  13.818 -0.1673 -0.7038  0.4404
33425SOL    HW212255  12.196   0.306  13.745 -0.5447  2.1918 -2.5224
33426SOL     OW12256  12.531   6.546  13.309 -0.3420 -0.0034  0.5541
33426SOL    HW112257  12.493   6.487  13.245  0.4118 -0.9222  0.9414
33426SOL    HW212258  12.576   6.613  13.257  0.7721 -1.0737  0.1135
33427SOL     OW12259   1.225   3.273   5.303  0.2593  0.2333 -0.0687
33427SOL    HW112260   1.198   3.317   5.223  0.5772  0.5818  0.0125
33427SOL    HW212261   1.252   3.344   5.362  0.0876 -0.0204  0.3264
33428SOL     OW12262   3.689   1.756   1.681  0.2375 -0.1386 -0.4954
33428SOL    HW112263   3.716   1.848   1.691  1.7342 -0.7987  3.4293
33428SOL    HW212264   3.772   1.709   1.671 -0.4865 -1.1639 -1.8731
33429SOL     OW12265  11.787   0.636   5.238  0.5791  0.1703 -0.0029
33429SOL    HW112266  11.808   0.546   5.261  1.9696  0.3930 -0.3038
33429SOL    HW212267  11.692   0.636   5.224  0.3302 -0.8993  1.4380
33430SOL     OW12268   5.621  11.046   1.102  0.4870  0.2012  0.1538
33430SOL    HW112269   5.592  11.135   1.083 -1.2083 -0.5917 -1.1769
33430SOL    HW212270   5.571  10.991   1.042 -1.0457 -1.9876  3.1808
33431SOL     OW12271   8.463  12.144  11.503 -0.3033 -0.0560  0.1151
33431SOL    HW112272   8.432  12.200  11.573  0.4015  0.0455  0.3586
33431SOL    HW212273   8.514  12.202  11.446 -1.7756  0.1008 -1.1037
33432SOL     OW12274   7.172   2.595   5.283 -0.1633 -0.3020  0.3702
33432SOL    HW112275   7.191   2.557   5.368 -2.1693  2.8049  2.4263
33432SOL    HW212276   7.091   2.552   5.255 -1.0764  0.5975  1.4991
33433SOL     OW12277   3.929   9.778  10.538  0.7842  0.2753 -0.2687
33433SOL    HW112278   3.865   9.813  10.600 -0.2474 -0.2576 -0.9917
33433SOL    HW212279   4.001   9.840  10.540  1.2278 -0.2286  2.1717
33434SOL     OW12280  11.527   1.785   7.229 -0.0842  0.6724 -0.1112
33434SOL    HW112281  11.499   1.875   7.215 -0.2510  0.7530  0.6794
33434SOL    HW212282  11.453   1.744   7.274 -0.2036  0.0066 -0.9010
33435SOL     OW12283   6.446   8.788   2.901 -0.1524  0.6045  0.6801
33435SOL    HW112284   6.535   8.822   2.904  0.3646 -0.3233 -1.4878
33435SOL    HW212285   6.437   8.754   2.812 -2.2842 -0.3883  1.2039
33436SOL     OW12286  12.771   2.811   0.688  0.2563 -0.1301 -0.4774
33436SOL    HW112287  12.864   2.800   0.668  0.2455 -2.3827  0.3661
33436SOL    HW212288  12.761   2.773   0.776 -1.3595  0.6579 -0.2842
33437SOL     OW12289   8.206   1.712   8.994  0.1198  0.2319 -0.1895
33437SOL    HW112290   8.137   1.671   9.046  0.3717  0.0455 -0.0019
33437SOL    HW212291   8.195   1.806   9.009 -1.9427  0.4596 -2.4353
33438SOL     OW12292   8.263   4.257  11.193  0.1754  0.1810  0.3414
33438SOL    HW112293   8.354   4.286  11.183  0.9607 -2.5688 -1.8787
33438SOL    HW212294   8.258   4.226  11.284  2.4209 -2.1445 -0.1910
33439SOL     OW12295   2.804   0.192   8.719  0.0326 -0.0639 -0.4046
33439SOL    HW112296   2.802   0.101   8.690  2.5716  0.4533 -2.5160
33439SOL    HW212297   2.761   0.241   8.649  0.1236  0.5337 -0.0489
33440SOL     OW12298  11.269  11.384   1.710  0.2865  0.7700  0.0461
33440SOL    HW112299  11.319  11.346   1.782 -0.9525 -0.6756  0.1821
33440SOL    HW212300  11.323  11.457   1.680  2.6716 -0.9191 -0.0750
33441SOL     OW12301   1.191   8.872   9.583  0.3474  0.3004 -0.0742
33441SOL    HW112302   1.143   8.855   9.502 -2.2026  0.6192  1.2562
33441SOL    HW212303   1.136   8.933   9.631  1.2070 -0.7080  2.3782
33442SOL     OW12304   6.727   8.639  12.593  0.1834 -0.1979 -0.3006
33442SOL    HW112305   6.759   8.694  12.521 -0.4769  0.1405 -0.3415
33442SOL    HW212306   6.780   8.559  12.587  0.0094 -0.2518 -1.2795
33443SOL     OW12307   5.370   3.040  13.343 -0.2063  0.8322  0.1442
33443SOL    HW112308   5.401   3.017  13.430 -0.1651  1.0162  0.1789
33443SOL    HW212309   5.337   3.130  13.352 -2.0717  0.1578  0.4452
33444SOL     OW12310   2.050   4.149   4.287  0.1054 -0.0954  0.8170
33444SOL    HW112311   1.986   4.208   4.328  0.2653 -0.0724  1.0424
33444SOL    HW212312   2.097   4.204   4.225 -0.1484 -0.1323  0.5928
33445SOL     OW12313   2.406  13.888   6.555 -0.3464 -0.0733  0.2403
33445SOL    HW112314   2.413  13.981   6.575 -0.6782 -0.0748  0.3648
33445SOL    HW212315   2.340  13.884   6.485  0.5194 -0.1015 -0.6056
33446SOL     OW12316  10.235   8.934   7.971  0.0732  1.2903 -0.0394
33446SOL    HW112317  10.202   8.907   8.057  0.7684 -1.7570 -0.6222
33446SOL    HW212318  10.315   8.982   7.990 -0.1650  1.2827  1.0414
33447SOL     OW12319  11.498   2.246   1.340  0.3364  0.3401  0.1268
33447SOL    HW112320  11.513   2.339   1.323  2.0071 -0.2103 -1.8279
33447SOL    HW212321  11.499   2.205   1.253 -1.3039 -1.4056  0.8639
33448SOL     OW12322   9.964   6.288   4.761  0.2719 -0.0625 -0.2351
33448SOL    HW112323   9.896   6.325   4.705 -1.2590  1.3503  2.3128
33448SOL    HW212324  10.007   6.365   4.799  1.1538 -0.9494  0.6198
33449SOL     OW12325   1.274   5.134   2.011 -0.7890  0.0550 -0.5661
33449SOL    HW112326   1.210   5.081   1.964  0.3340 -2.1677  0.2456
33449SOL    HW212327   1.347   5.143   1.950 -0.6802  0.0202 -0.4424
33450SOL     OW12328   2.351  14.010  11.345  0.2655  0.3718 -0.2894
33450SOL    HW112329   2.321  14.062  11.420  1.3333  0.1611  0.3165
33450SOL    HW212330   2.347  13.920  11.376  1.4978  0.3373 -0.1566
33451SOL     OW12331   2.401   9.100   5.999 -0.3194 -0.3917  0.3931
33451SOL    HW112332   2.494   9.091   5.977 -0.3569  0.6536 -0.2322
33451SOL    HW212333   2.359   9.028   5.950 -0.1054  0.4997 -1.1701
33452SOL     OW12334   2.927  11.480  10.635  0.3845 -0.2923 -0.1175
33452SOL    HW112335   2.882  11.461  10.553 -0.9415  2.1622 -0.0487
33452SOL    HW212336   2.857  11.488  10.699  1.0944  1.2622  0.5037
33453SOL     OW12337   1.413   1.992   0.882  0.1280  0.7100  0.0279
33453SOL    HW112338   1.410   1.944   0.965  1.4011  0.5707  0.0183
33453SOL    HW212339   1.327   2.033   0.875 -0.7113 -0.8839  0.4442
33454SOL     OW12340   3.867   0.541   4.955  0.1832 -0.1575 -0.2328
33454SOL    HW112341   3.894   0.618   5.005  2.3840 -1.4562  0.7251
33454SOL    HW212342   3.837   0.479   5.022  0.4231 -0.8738 -0.7826
33455SOL     OW12343   3.633   9.983   1.641  0.4966 -0.5195  0.7467
33455SOL    HW112344   3.670  10.012   1.558  1.3597  0.1910  1.3624
33455SOL    HW212345   3.683  10.030   1.707 -1.6508  0.6633  1.6274
33456SOL     OW12346   5.077   1.659   0.748  0.4009 -0.2870  0.6979
33456SOL    HW112347   5.043   1.685   0.662 -1.2455  2.8231  2.1282
33456SOL    HW212348   5.048   1.568   0.759  0.9035 -0.8619 -2.0793
33457SOL     OW12349   4.334   4.699   9.995  0.0511  0.2539 -0.1444
33457SOL    HW112350   4.416   4.746  10.010 -0.3638  0.9454 -0.0277
33457SOL    HW212351   4.345   4.617  10.043  0.3993  0.6380  0.4434
33458SOL     OW12352   2.050  10.949   5.003  0.7228  0.3532  0.3960
33458SOL    HW112353   2.027  10.876   4.946  2.8959 -0.3273  0.3141
33458SOL    HW212354   2.078  11.019   4.943 -0.8875  1.1479  0.4978
33459SOL     OW12355  12.798  13.908   6.479  0.5094 -0.3932 -0.3850
33459SOL    HW112356  12.851  13.988   6.481  2.7834 -1.8078  0.3492
33459SOL    HW212357  12.862  13.837   6.470 -1.3110 -2.2118  0.1571
33460SOL     OW12358   6.832   1.003  13.019  0.6122  0.2379  0.0533
33460SOL    HW112359   6.809   0.911  13.005 -0.4710  0.3578  0.9136
33460SOL    HW212360   6.770   1.051  12.963 -0.1875  0.5065  1.1423
33461SOL     OW12361   7.802   9.472  11.216 -0.4673 -0.4262 -0.5933
33461SOL    HW112362   7.791   9.565  11.236 -1.4848 -0.0864 -2.4471
33461SOL    HW212363   7.845   9.471  11.131  1.2849 -1.7176  0.2446
33462SOL     OW12364  11.702   8.590   9.680 -0.1017 -0.0036  0.6647
33462SOL    HW112365  11.626   8.636   9.716 -0.7195 -2.8871  3.4585
33462SOL    HW212366  11.664   8.528   9.617  0.2559  0.2856  0.1542
33463SOL     OW12367   4.482  13.047  11.243  0.3850 -0.1737  0.1940
33463SOL    HW112368   4.431  13.074  11.166  0.5412  2.7494  0.9978
33463SOL    HW212369   4.560  13.006  11.206 -1.3022 -2.4221 -1.0922
33464SOL     OW12370   5.588   1.488  10.058 -0.0782  0.4677 -0.1013
33464SOL    HW112371   5.504   1.531  10.041 -0.1960  0.2995  0.0534
33464SOL    HW212372   5.639   1.504   9.979 -0.6022 -0.2604 -0.6084
33465SOL     OW12373  10.670  12.494  11.869 -0.2876  0.2230 -0.4239
33465SOL    HW112374  10.649  12.401  11.871 -0.1822  0.2093  0.8398
33465SOL    HW212375  10.586  12.538  11.881 -0.1603  0.2407  0.5288
33466SOL     OW12376   9.049   9.243  10.945  0.0360 -0.4072 -0.2539
33466SOL    HW112377   8.968   9.295  10.947 -0.7638 -1.6487  0.6333
33466SOL    HW212378   9.105   9.284  11.012 -0.9030 -1.1439  1.0209
33467SOL     OW12379   5.513   8.687   2.792 -0.1281  0.0021 -0.3729
33467SOL    HW112380   5.448   8.755   2.774 -1.4041 -1.1586 -0.3686
33467SOL    HW212381   5.478   8.609   2.748  0.1153 -1.1990  1.4685
33468SOL     OW12382   3.950  10.428   8.564  0.5792  0.4924 -0.1569
33468SOL    HW112383   3.890  10.489   8.522  1.4923  1.2634 -0.3704
33468SOL    HW212384   3.899  10.389   8.635  0.0670  1.7396  0.1723
33469SOL     OW12385   7.815  13.430   0.919  0.0986 -0.1976 -0.0878
33469SOL    HW112386   7.831  13.420   1.013  0.1982 -0.8903 -0.1691
33469SOL    HW212387   7.724  13.460   0.913  1.0619  3.2569  0.3562
33470SOL     OW12388   7.508   2.942   8.820  0.0695  0.8360  0.6691
33470SOL    HW112389   7.453   2.884   8.768  3.0611 -1.3453 -0.3606
33470SOL    HW212390   7.467   2.941   8.907 -1.6936 -0.3325 -0.1020
33471SOL     OW12391   4.454  13.480   8.032  0.5136 -0.0664  0.0685
33471SOL    HW112392   4.514  13.437   7.971 -0.4002 -0.3506 -0.6588
33471SOL    HW212393   4.424  13.411   8.091 -1.2478 -0.5996 -1.3341
33472SOL     OW12394  11.002   0.867  12.789 -0.3085 -0.1201  0.2699
33472SOL    HW112395  10.941   0.816  12.736  0.4751 -0.9773  0.1796
33472SOL    HW212396  10.991   0.957  12.758 -1.5041 -0.2506  0.2429
33473SOL     OW12397   6.010  11.207   9.844  0.2770  0.0821  0.2019
33473SOL    HW112398   5.962  11.270   9.897  1.4537  0.0310  1.3978
33473SOL    HW212399   6.061  11.261   9.783 -0.8556  0.1529 -0.7042
33474SOL     OW12400  12.379   4.544   2.691 -0.5448 -0.3923 -0.2169
33474SOL    HW112401  12.379   4.634   2.659  2.4469  0.4475  1.7627
33474SOL    HW212402  12.338   4.549   2.777 -2.1338 -1.3562 -0.8693
33475SOL     OW12403  10.395   6.222   8.072  0.1799  0.8280  0.1283
33475SOL    HW112404  10.346   6.156   8.023  0.4702 -0.2645  1.2447
33475SOL    HW212405  10.328   6.278   8.111 -0.0569  1.4657 -1.1662
33476SOL     OW12406   6.145   5.951   7.510  0.1040  0.4721  0.0918
33476SOL    HW112407   6.053   5.957   7.536  0.4885  1.5114  1.3717
33476SOL    HW212408   6.156   5.862   7.479 -1.6240  0.6808 -1.3089
33477SOL     OW12409   5.951   4.612  12.283  0.2223 -0.8483  0.5749
33477SOL    HW112410   5.908   4.691  12.252 -0.1618 -1.1997  0.2158
33477SOL    HW212411   6.025   4.645  12.336  1.9151 -0.1988 -2.0226
33478SOL     OW12412   6.386   7.712  13.513 -0.1721 -0.3530 -0.0216
33478SOL    HW112413   6.303   7.663  13.510  0.2302 -1.4322  3.1498
33478SOL    HW212414   6.364   7.794  13.556  0.1853 -0.0171 -0.4666
33479SOL     OW12415  11.842   4.397   5.646  0.1108  0.0386  0.7530
33479SOL    HW112416  11.756   4.414   5.684 -0.6571 -1.3014 -0.3114
33479SOL    HW212417  11.841   4.446   5.563 -0.4682 -1.5841 -0.2550
33480SOL     OW12418   7.763   7.564   1.796  0.1958  0.6858  0.5725
33480SOL    HW112419   7.753   7.628   1.726 -1.4397 -1.1447 -0.9994
33480SOL    HW212420   7.675   7.550   1.829  0.8214  0.8061  2.3793
33481SOL     OW12421  13.659   9.389   0.753 -0.3835  0.0556 -0.1424
33481SOL    HW112422  13.623   9.300   0.764  0.9669 -0.7433 -1.7344
33481SOL    HW212423  13.719   9.381   0.680  1.0798  1.9304  0.7783
33482SOL     OW12424  13.029  10.469   1.531  0.4859 -0.4153 -0.4193
33482SOL    HW112425  13.034  10.556   1.492 -0.4993  0.2850  0.9366
33482SOL    HW212426  13.101  10.466   1.593 -1.2258  0.6430  1.7489
33483SOL     OW12427  10.302   1.163   6.805  0.7431 -0.1764  0.4279
33483SOL    HW112428  10.219   1.117   6.790  0.2849  0.5056  0.8164
33483SOL    HW212429  10.282   1.226   6.874  1.9839 -1.0405  1.6130
33484SOL     OW12430   1.229   7.923   8.055  0.1188 -0.3023  0.6966
33484SOL    HW112431   1.186   7.993   8.105 -0.8732 -0.1242 -0.3610
33484SOL    HW212432   1.162   7.855   8.047  0.7449 -0.9396  0.8420
33485SOL     OW12433   2.821   7.067   5.162  0.2559  0.1792  0.2462
33485SOL    HW112434   2.799   7.138   5.222 -0.7260  0.3746 -0.3281
33485SOL    HW212435   2.741   7.015   5.157  0.8555 -0.7818  0.3929
33486SOL     OW12436   3.752   2.564  10.129 -0.0643  0.2659 -0.3652
33486SOL    HW112437   3.799   2.533  10.207  0.8145 -0.9102 -1.3311
33486SOL    HW212438   3.820   2.580  10.064 -0.7798  1.2865 -0.8926
33487SOL     OW12439  11.972   4.067  10.028  0.4046 -0.1263  0.2258
33487SOL    HW112440  12.026   4.073  10.107 -1.0852 -1.8425  1.4630
33487SOL    HW212441  11.888   4.034  10.058 -0.6070  0.2459 -1.9542
33488SOL     OW12442   0.353   7.588   2.881 -0.1854 -0.4680 -0.1529
33488SOL    HW112443   0.343   7.553   2.969  0.0337 -1.8980 -0.6588
33488SOL    HW212444   0.409   7.665   2.891 -1.5498  0.3887  1.1428
33489SOL     OW12445   1.680   1.561   4.602 -0.5561  1.0674 -0.0029
33489SOL    HW112446   1.764   1.521   4.580 -1.7387 -0.3447 -2.2994
33489SOL    HW212447   1.674   1.639   4.547 -1.0743  0.7153 -0.4574
33490SOL     OW12448   7.445   3.968   1.345  0.4211 -0.6897 -0.2893
33490SOL    HW112449   7.472   3.879   1.367 -0.2941 -1.1110 -1.0766
33490SOL    HW212450   7.501   3.993   1.272  0.9566 -0.3003  0.2461
33491SOL     OW12451   3.723   6.823   7.746 -0.4675  0.2854 -0.6822
33491SOL    HW112452   3.697   6.765   7.817  0.1016  0.0308 -0.6784
33491SOL    HW212453   3.650   6.817   7.683 -0.6485 -0.0362 -0.4483
33492SOL     OW12454   1.987   3.243   8.944 -0.2448 -0.2476 -0.1694
33492SOL    HW112455   1.958   3.155   8.918 -1.8507 -0.1875  1.2089
33492SOL    HW212456   1.936   3.262   9.022  1.1145  1.3646  0.3817
33493SOL     OW12457   7.013   3.002  12.400  0.2806  0.4432 -0.0102
33493SOL    HW112458   7.015   2.908  12.382  2.6880  0.1632  1.2932
33493SOL    HW212459   6.995   3.042  12.315  1.5384 -1.1254 -1.0703
33494SOL     OW12460   0.369   9.443  12.756  0.1295 -0.1929 -0.0073
33494SOL    HW112461   0.279   9.413  12.770  0.4251 -1.0884  0.0904
33494SOL    HW212462   0.362   9.537  12.740 -0.9804 -0.5033 -1.5242
33495SOL     OW12463   2.687   9.913   3.334  0.4382  0.2071 -0.7038
33495SOL    HW112464   2.616   9.954   3.383 -0.1741 -1.4175 -0.1644
33495SOL    HW212465   2.704   9.973   3.262 -0.0967  1.6055  0.2883
33496SOL     OW12466  13.324  10.695   1.154 -0.0008 -0.1466 -0.6857
33496SOL    HW112467  13.374  10.659   1.228 -0.8553  2.5212  1.3719
33496SOL    HW212468  13.235  10.665   1.169 -0.2760  0.8256 -0.2696
33497SOL     OW12469   7.052  12.722  11.306  0.3393 -0.6064 -0.0233
33497SOL    HW112470   7.021  12.805  11.270  0.1315  0.1181  1.7003
33497SOL    HW212471   7.051  12.661  11.233 -1.1609  0.4760 -0.9502
33498SOL     OW12472   6.537   6.035  12.887 -0.0025  0.4429 -0.0856
33498SOL    HW112473   6.567   6.111  12.837  0.8073  0.3943  0.3050
33498SOL    HW212474   6.466   5.998  12.835  1.2581 -0.0055 -1.5646
33499SOL     OW12475   0.273   1.318   8.133  0.0301 -0.2702 -0.0205
33499SOL    HW112476   0.329   1.384   8.094  0.2709 -0.4019  0.0988
33499SOL    HW212477   0.282   1.332   8.228 -1.4991  0.8452 -0.0039
33500SOL     OW12478   5.943   1.943   9.315  0.2735 -0.2827 -0.3423
33500SOL    HW112479   5.971   1.860   9.353  2.1453  0.3387 -0.2297
33500SOL    HW212480   5.976   2.009   9.376 -0.9290  0.5696 -0.5789
33501SOL     OW12481   1.096   7.706   9.254 -0.1963  0.2797 -0.2855
33501SOL    HW112482   1.021   7.655   9.286 -0.4027  2.0838  2.4419
33501SOL    HW212483   1.056   7.781   9.209 -0.1232  1.3419  1.3312
33502SOL     OW12484   4.858   4.928   8.128 -0.1652 -0.3837  0.0328
33502SOL    HW112485   4.781   4.880   8.158 -1.9051  1.9028 -0.4530
33502SOL    HW212486   4.919   4.925   8.202 -1.0036 -1.5982  0.7140
33503SOL     OW12487   7.021   7.048  12.941  0.1357  0.3103  0.3623
33503SOL    HW112488   6.993   7.110  13.008 -1.0890  0.1296  0.0428
33503SOL    HW212489   6.969   6.969  12.958  0.5762 -0.1004 -0.1514
33504SOL     OW12490   7.033   5.748  13.242 -0.5296 -0.1016 -0.1893
33504SOL    HW112491   6.996   5.769  13.328 -1.0886 -0.3022 -0.3730
33504SOL    HW212492   6.966   5.693  13.200  0.8688 -2.3310  0.2967
33505SOL     OW12493  12.098   1.103   8.279  0.7539  0.0571 -0.0820
33505SOL    HW112494  12.113   1.107   8.374 -0.7940 -0.3228  0.2030
33505SOL    HW212495  12.160   1.036   8.248  1.8077  0.7216  0.5256
33506SOL     OW12496  13.187   6.857  11.873 -0.5813 -0.0770 -0.9370
33506SOL    HW112497  13.097   6.827  11.882 -1.1804  1.8884  0.3161
33506SOL    HW212498  13.232   6.824  11.951 -0.7829  0.6676 -0.4892
33507SOL     OW12499  11.625   9.477  10.095 -0.0906  0.1960 -0.2296
33507SOL    HW112500  11.703   9.455  10.145  0.2732 -1.0589 -1.2850
33507SOL    HW212501  11.623   9.412  10.024 -2.0280  0.2675 -0.2894
33508SOL     OW12502   2.471   9.161   4.171 -0.0497  0.3662  0.2160
33508SOL    HW112503   2.438   9.072   4.184 -1.8608  0.7831 -1.1821
33508SOL    HW212504   2.514   9.158   4.085  0.1193  0.7884  0.2843
33509SOL     OW12505   7.977   1.778   6.792  0.2494 -0.2586 -0.4418
33509SOL    HW112506   7.882   1.781   6.805  0.2593  0.2352 -0.4846
33509SOL    HW212507   7.992   1.830   6.714  0.7389  1.1880  0.5784
33510SOL     OW12508   0.847   4.928   2.700 -0.2182  0.0761 -0.8903
33510SOL    HW112509   0.832   4.969   2.615 -0.3601 -0.6125 -1.2014
33510SOL    HW212510   0.769   4.876   2.716  0.8856 -1.9030 -1.5718
33511SOL     OW12511   2.614  10.840   3.713  0.2682  0.4005  0.2131
33511SOL    HW112512   2.639  10.862   3.803  0.2643  2.0224 -0.1562
33511SOL    HW212513   2.520  10.825   3.717  0.1350  1.2401  0.3454
33512SOL     OW12514   2.570   6.310   2.111  0.3792  0.2874  0.2277
33512SOL    HW112515   2.557   6.326   2.018  0.6676 -0.2818  0.0836
33512SOL    HW212516   2.490   6.341   2.153  0.0764  0.1614 -0.2555
33513SOL     OW12517   6.399   6.795  12.913 -0.0641 -0.1233 -0.1568
33513SOL    HW112518   6.444   6.711  12.921  1.2215  0.5834  0.3982
33513SOL    HW212519   6.465   6.854  12.877 -0.6377  0.8815  0.3956
33514SOL     OW12520   2.326   9.635  12.971  0.4017  0.5401  0.1909
33514SOL    HW112521   2.254   9.607  13.027 -0.9100  2.2893 -0.5035
33514SOL    HW212522   2.290   9.709  12.922  1.9304 -0.0253 -1.9335
33515SOL     OW12523   0.465   0.363   1.779 -0.0923 -0.1676 -0.1143
33515SOL    HW112524   0.383   0.408   1.797  0.9846  1.7274  0.2535
33515SOL    HW212525   0.439   0.288   1.724 -2.0290  0.4087 -0.0694
33516SOL     OW12526   6.131   7.496   8.517  0.0328 -0.1586  0.1050
33516SOL    HW112527   6.062   7.448   8.563  0.3044 -1.6785 -0.9631
33516SOL    HW212528   6.092   7.518   8.432  0.0755  1.1420  0.4102
33517SOL     OW12529   5.342  13.479   0.304 -0.0598  0.0982  0.2507
33517SOL    HW112530   5.267  13.482   0.363 -1.0341 -1.2181 -0.8602
33517SOL    HW212531   5.414  13.517   0.355 -0.9308 -0.6744  2.1585
33518SOL     OW12532   5.244   2.510   1.988 -0.1357 -0.3195 -0.1578
33518SOL    HW112533   5.212   2.598   1.968  1.1843  0.3746  0.6389
33518SOL    HW212534   5.169   2.464   2.025 -0.6104  0.7750  0.2667
33519SOL     OW12535   9.490   8.819   8.617 -0.5427  0.1324 -0.0861
33519SOL    HW112536   9.403   8.857   8.629 -1.4157 -2.1408  1.5296
33519SOL    HW212537   9.474   8.724   8.613  1.6369 -0.2334 -2.3796
33520SOL     OW12538   6.007   6.969  12.090  0.0343  0.1974  0.4023
33520SOL    HW112539   6.101   6.985  12.101  0.1792 -0.7653  0.7026
33520SOL    HW212540   5.981   7.029  12.020  0.6521  1.1842  0.9923
33521SOL     OW12541   9.686   7.323   0.019 -0.1709 -1.2512 -0.1549
33521SOL    HW112542   9.671   7.324   0.113  0.2606  0.9126 -0.0481
33521SOL    HW212543   9.741   7.247   0.003  0.5348 -1.1109  1.4947
33522SOL     OW12544  11.149  13.002  14.000 -0.0037 -0.0824 -0.5262
33522SOL    HW112545  11.143  12.921  13.950 -1.1225 -0.7180  0.6046
33522SOL    HW212546  11.113  12.981  14.085  0.1382  1.4865 -0.0474
33523SOL     OW12547   0.420   4.509  11.019 -0.0983  0.2898 -0.2360
33523SOL    HW112548   0.449   4.437  11.074  1.5106  0.5788 -0.6287
33523SOL    HW212549   0.410   4.583  11.079  2.4681  0.8290 -0.3372
33524SOL     OW12550   9.665   2.459   4.519  0.4321  0.2842 -0.3830
33524SOL    HW112551   9.728   2.423   4.582 -1.8362  0.3382  2.1076
33524SOL    HW212552   9.581   2.419   4.544 -0.8061  1.3267 -2.6066
33525SOL     OW12553   3.818   7.487  13.688  0.2215  0.5663  0.3001
33525SOL    HW112554   3.904   7.519  13.716  0.3156 -0.8969  1.8573
33525SOL    HW212555   3.767   7.482  13.769 -0.9769  0.3271 -0.4386
33526SOL     OW12556   8.169   4.774  11.638  0.8692  0.1069  0.5790
33526SOL    HW112557   8.122   4.745  11.716 -0.4590  0.8778  0.1033
33526SOL    HW212558   8.237   4.833  11.670  0.6011  0.0926  1.1828
33527SOL     OW12559   0.078  12.913   7.812  0.0657  0.2740 -0.2393
33527SOL    HW112560   0.122  12.932   7.894 -0.3204  0.6003 -0.1058
33527SOL    HW212561   0.043  12.997   7.783 -0.3864  0.0371 -0.3887
33528SOL     OW12562   2.548   4.377   9.190  0.5925 -0.2212  0.0102
33528SOL    HW112563   2.495   4.323   9.133  1.9482 -0.5397 -0.9784
33528SOL    HW212564   2.504   4.372   9.275 -0.2611 -1.4564 -0.4804
33529SOL     OW12565   8.266   0.553   0.367 -0.6494  0.4324  0.3058
33529SOL    HW112566   8.317   0.484   0.326 -2.0227 -1.1829  1.1835
33529SOL    HW212567   8.295   0.553   0.459 -2.4484 -0.8434  0.9364
33530SOL     OW12568   2.253   0.542   0.546  0.4104  0.0882 -0.0725
33530SOL    HW112569   2.298   0.482   0.486 -1.3170 -3.2309  1.6490
33530SOL    HW212570   2.160   0.520   0.536 -0.4533  3.2332  0.0559
33531SOL     OW12571  12.935   9.963   8.655 -0.9561 -0.0269  0.3310
33531SOL    HW112572  12.912  10.053   8.633  0.8295  0.6618  1.0766
33531SOL    HW212573  12.984   9.932   8.579 -1.5193 -0.3735  0.0996
33532SOL     OW12574   8.616   8.598  12.019 -0.0171  0.5169 -0.9918
33532SOL    HW112575   8.670   8.519  12.012 -0.6110  0.0347 -0.3163
33532SOL    HW212576   8.678   8.668  12.037  0.4538  0.0711 -0.8592
33533SOL     OW12577  13.672   8.340  10.968 -0.2898 -0.1673 -0.1807
33533SOL    HW112578  13.692   8.302  11.054  0.6237  0.1983 -0.2207
33533SOL    HW212579  13.581   8.317  10.952 -0.0591 -1.4408  0.2619
33534SOL     OW12580  13.744   5.064  12.365 -0.1360  0.7015  0.3825
33534SOL    HW112581  13.768   5.156  12.375  0.5814  0.3951  1.6378
33534SOL    HW212582  13.649   5.063  12.379 -0.1026  1.1988  0.6785
33535SOL     OW12583  10.285   5.036  10.193 -0.1078  0.4879 -0.2150
33535SOL    HW112584  10.268   4.944  10.170  1.0725  0.4419 -1.0115
33535SOL    HW212585  10.238   5.050  10.274  1.1539 -1.3818  0.9135
33536SOL     OW12586   1.808   9.641   4.738  0.0743  0.4769 -0.6830
33536SOL    HW112587   1.747   9.708   4.709 -1.8708  0.3010  2.4867
33536SOL    HW212588   1.758   9.559   4.735  0.5346  0.1122  0.7132
33537SOL     OW12589   3.297  11.910   2.044  0.6299  0.9254 -0.3560
33537SOL    HW112590   3.276  11.982   2.104  1.3803 -0.5933  1.8607
33537SOL    HW212591   3.387  11.927   2.016  0.1545  1.8351 -1.4193
33538SOL     OW12592  10.559   9.408   2.037 -0.0038 -0.0044  0.2709
33538SOL    HW112593  10.479   9.356   2.036  0.1890 -0.3636  1.5408
33538SOL    HW212594  10.547   9.473   1.969 -0.3214 -1.6089 -1.2622
33539SOL     OW12595   5.349  13.734   3.706 -0.1446 -0.3456  0.3930
33539SOL    HW112596   5.374  13.794   3.777  0.5644 -0.4826  0.2554
33539SOL    HW212597   5.428  13.684   3.688  0.2869  1.0269 -1.8510
33540SOL     OW12598   3.584   1.502   0.084 -0.7727 -0.3171  1.0777
33540SOL    HW112599   3.510   1.542   0.038 -1.8261 -1.7004  1.4886
33540SOL    HW212600   3.595   1.417   0.041  0.3011 -0.3136  1.3224
33541SOL     OW12601   2.244   2.025   6.164  0.0922  0.7823 -0.2410
33541SOL    HW112602   2.318   2.007   6.106 -0.4205  2.9059 -1.6715
33541SOL    HW212603   2.282   2.077   6.235  0.0485  1.6479 -0.8370
33542SOL     OW12604   4.959  10.471  11.018 -0.4820 -0.0727  0.3199
33542SOL    HW112605   4.981  10.437  10.931 -1.8689  1.1098 -0.5370
33542SOL    HW212606   4.983  10.563  11.014 -0.0507 -0.1246  1.4028
33543SOL     OW12607   5.630   0.028   8.715  0.2666 -0.3412  0.4635
33543SOL    HW112608   5.628   0.068   8.802 -1.3827 -0.8429  0.7078
33543SOL    HW212609   5.575  -0.050   8.724 -0.6728  0.0729 -1.2492
33544SOL     OW12610   7.186   0.533   1.196  0.3467  0.0833  0.3499
33544SOL    HW112611   7.121   0.488   1.250 -1.7649  3.6869  1.1664
33544SOL    HW212612   7.247   0.570   1.260  0.2904  0.8253 -0.0159
33545SOL     OW12613   7.639   4.626   4.983  0.7297  0.1085  0.4946
33545SOL    HW112614   7.605   4.537   4.984 -1.9519  1.0119 -1.1502
33545SOL    HW212615   7.617   4.661   5.069  2.6746 -1.0050  1.5346
33546SOL     OW12616   8.038  12.099   9.501 -0.1809 -0.2358 -0.6637
33546SOL    HW112617   8.055  12.187   9.536  0.2371 -0.5399 -0.0826
33546SOL    HW212618   8.124  12.070   9.469 -0.2635 -0.5406 -0.6036
33547SOL     OW12619   7.904  11.755  13.175 -0.1424  0.4402  0.4548
33547SOL    HW112620   7.873  11.844  13.194 -0.9304 -0.0095  1.3344
33547SOL    HW212621   7.955  11.730  13.252 -2.7224 -1.1079  1.7902
33548SOL     OW12622   7.470   5.639   8.625 -0.4021 -0.1109  0.1985
33548SOL    HW112623   7.534   5.572   8.651  0.1608  0.4787  0.3395
33548SOL    HW212624   7.497   5.717   8.672 -1.2216  0.1537  0.2442
33549SOL     OW12625   1.621   7.959   4.225  0.3351  0.0896  0.0567
33549SOL    HW112626   1.677   7.989   4.296 -0.7893  0.1249  0.9702
33549SOL    HW212627   1.674   7.895   4.178  1.3849  0.6565  0.4293
33550SOL     OW12628   9.269   2.184   3.166  0.4636 -0.1143  0.2097
33550SOL    HW112629   9.265   2.140   3.081 -0.3740 -0.9135  0.6507
33550SOL    HW212630   9.330   2.257   3.152  1.1402 -0.8474 -0.7860
33551SOL     OW12631  11.665   8.770   6.176  0.2006  0.3106 -0.3733
33551SOL    HW112632  11.577   8.763   6.214  0.2373 -0.0823 -0.3539
33551SOL    HW212633  11.696   8.679   6.171  0.0044  0.2923 -1.7685
33552SOL     OW12634   3.053   3.849   7.730  0.6351  0.0142  0.0893
33552SOL    HW112635   2.990   3.904   7.684  0.8326 -1.5123 -2.1601
33552SOL    HW212636   3.106   3.910   7.782  0.4916  1.8821 -1.8464
33553SOL     OW12637  12.910  10.270   8.124  0.0415 -0.3133 -0.1976
33553SOL    HW112638  12.912  10.350   8.176  0.1567 -0.1781 -0.4099
33553SOL    HW212639  12.859  10.293   8.047 -0.9023 -0.7681  0.2742
33554SOL     OW12640   4.366  10.325  12.107 -0.0680 -0.1829  0.0378
33554SOL    HW112641   4.344  10.302  12.198 -1.5765 -0.7450 -0.4398
33554SOL    HW212642   4.358  10.420  12.103  0.6263 -0.0905  0.6370
33555SOL     OW12643   8.779   3.128   7.161  0.3697  0.1879  0.2619
33555SOL    HW112644   8.820   3.160   7.081 -0.8017  1.0237 -0.0456
33555SOL    HW212645   8.718   3.198   7.186  0.2237 -0.3533  1.5073
33556SOL     OW12646  11.420   4.791  12.009  0.0776  0.4698  0.1550
33556SOL    HW112647  11.339   4.771  11.962  0.6859  0.5412 -0.9516
33556SOL    HW212648  11.480   4.719  11.986 -0.3312 -0.8441  2.7453
33557SOL     OW12649   3.386  13.512   8.801 -0.6878  0.3277 -0.7786
33557SOL    HW112650   3.404  13.585   8.741 -0.0357  1.7688  1.0474
33557SOL    HW212651   3.327  13.550   8.867  0.4137 -0.4815  0.7333
33558SOL     OW12652   7.936   5.004  10.800 -0.2998  0.6785 -0.1892
33558SOL    HW112653   8.004   4.937  10.810  0.0467  1.1562  0.8482
33558SOL    HW212654   7.928   5.042  10.888 -0.9536  1.5474 -0.6156
33559SOL     OW12655   3.305  12.418   6.979 -0.0579  0.2578  0.0192
33559SOL    HW112656   3.340  12.423   6.890  0.1115 -0.5926  0.0246
33559SOL    HW212657   3.323  12.328   7.006 -1.0738  0.1917  0.5162
33560SOL     OW12658   2.588   9.934  10.938 -0.2827 -0.6127 -0.1180
33560SOL    HW112659   2.594   9.924  11.033 -0.9617 -1.0683 -0.1184
33560SOL    HW212660   2.636  10.015  10.920  0.6294 -0.9999  0.5064
33561SOL     OW12661   4.175   7.552   1.634  0.9371  0.5968 -0.1707
33561SOL    HW112662   4.245   7.487   1.632  0.6079  0.2397 -0.3753
33561SOL    HW212663   4.110   7.519   1.572  1.0082  1.4041 -0.6889
33562SOL     OW12664   6.116   5.506   9.239 -0.1430 -0.6623  0.0108
33562SOL    HW112665   6.101   5.515   9.333  0.1626  0.6465 -0.0456
33562SOL    HW212666   6.166   5.424   9.231  1.8065  0.3266  1.2482
33563SOL     OW12667   9.132   0.080   9.839  0.1631  0.7340 -0.4231
33563SOL    HW112668   9.080   0.009   9.802  1.7803 -0.9062  0.3325
33563SOL    HW212669   9.119   0.073   9.933 -0.8679  2.4591 -0.3876
33564SOL     OW12670   9.146   0.004   3.597  0.0385 -0.1920 -0.0187
33564SOL    HW112671   9.112   0.088   3.626 -0.3765 -0.6137  0.7502
33564SOL    HW212672   9.194  -0.030   3.673 -0.1845 -0.8467 -0.1646
33565SOL     OW12673   1.734   4.309   4.679  0.5558  1.1381 -0.5353
33565SOL    HW112674   1.648   4.293   4.640  0.4916 -0.2754  0.1263
33565SOL    HW212675   1.769   4.222   4.697  0.4683  1.6306  2.7294
33566SOL     OW12676   0.039   3.049   4.833 -0.0707  0.4906 -0.0033
33566SOL    HW112677  -0.043   3.008   4.804 -0.8624  1.2991  0.9746
33566SOL    HW212678   0.082   2.982   4.886 -1.0619  0.6768  1.0889
33567SOL     OW12679   2.082   7.177  13.046  0.2526  0.3445 -0.5779
33567SOL    HW112680   2.005   7.218  13.008  0.3078  0.6066 -0.4109
33567SOL    HW212681   2.062   7.170  13.139  1.0781  1.9161 -0.2562
33568SOL     OW12682   8.432   7.221   1.645 -0.1459 -0.0410  0.0328
33568SOL    HW112683   8.524   7.240   1.626 -0.1810  0.2079  0.1035
33568SOL    HW212684   8.394   7.201   1.560 -0.4970  1.8846 -0.3246
33569SOL     OW12685  11.459   7.484   3.028 -0.8704  0.0326  0.0093
33569SOL    HW112686  11.436   7.410   2.972 -0.8776 -0.9178  1.2234
33569SOL    HW212687  11.419   7.560   2.986  0.9719 -0.2312 -2.5037
33570SOL     OW12688   3.921   6.129  13.186 -0.5983  0.1886 -0.0463
33570SOL    HW112689   3.879   6.204  13.228 -0.8119 -0.3964  0.8076
33570SOL    HW212690   3.899   6.055  13.242 -0.3200 -0.5029 -0.8313
33571SOL     OW12691  12.038  12.648   2.825 -0.4487  0.5056 -0.4473
33571SOL    HW112692  12.059  12.652   2.732  1.3381 -1.6772 -0.2319
33571SOL    HW212693  12.100  12.708   2.867 -0.9030  1.0948 -0.6212
33572SOL     OW12694  10.269   2.345   2.808 -0.4601  0.2061  0.3134
33572SOL    HW112695  10.199   2.394   2.852  0.5752  2.2990 -0.2560
33572SOL    HW212696  10.350   2.379   2.847  0.2971 -1.3330  0.1393
33573SOL     OW12697   6.319   3.629   2.923  0.2967  0.0407  0.0579
33573SOL    HW112698   6.283   3.629   3.012  1.4995 -0.9698  0.5635
33573SOL    HW212699   6.253   3.583   2.871  1.1310 -2.5598  1.1319
33574SOL     OW12700  10.592  12.488   6.162 -0.1257 -0.6347 -0.0388
33574SOL    HW112701  10.527  12.420   6.177 -0.4928 -0.0745  1.0006
33574SOL    HW212702  10.545  12.570   6.173 -0.3915 -0.0286 -3.9871
33575SOL     OW12703   8.683  12.140   3.333 -0.2011  0.0844 -0.5537
33575SOL    HW112704   8.723  12.069   3.282 -0.2295 -1.3871  1.3545
33575SOL    HW212705   8.758  12.191   3.365 -0.1198  0.2357 -0.9777
33576SOL     OW12706   7.747  10.322  10.089  0.1689 -0.0793  0.0325
33576SOL    HW112707   7.715  10.361  10.007 -1.7888 -1.4945  0.0485
33576SOL    HW212708   7.761  10.397  10.147 -1.1954  0.7641 -0.6797
33577SOL     OW12709   4.371   1.067   9.916  0.3851 -0.3059  0.2685
33577SOL    HW112710   4.453   1.115   9.922  0.3274 -0.1481 -0.2087
33577SOL    HW212711   4.356   1.055   9.822  0.9239 -2.1508  0.3704
33578SOL     OW12712   0.384   5.168  10.723  0.1696  0.3439 -0.2377
33578SOL    HW112713   0.468   5.164  10.678 -1.1054  1.7358 -3.0258
33578SOL    HW212714   0.379   5.257  10.757 -0.3359  0.4092 -0.4747
33579SOL     OW12715   5.228   2.336   1.597  0.0159 -0.3750 -0.4841
33579SOL    HW112716   5.148   2.378   1.567  0.2371 -0.4488 -1.1856
33579SOL    HW212717   5.278   2.407   1.638  0.4752  0.1141 -1.8380
33580SOL     OW12718   2.677   6.651  12.983 -0.1002  0.1040  0.4137
33580SOL    HW112719   2.611   6.583  12.997 -0.5618  0.7060  1.2575
33580SOL    HW212720   2.629   6.725  12.947  0.3278  0.1485 -0.0899
33581SOL     OW12721  12.099   5.983   4.067  0.3152 -0.2229  0.3459
33581SOL    HW112722  12.108   6.006   3.974  0.1515 -1.6728 -0.0501
33581SOL    HW212723  12.163   5.914   4.082 -0.0629 -0.4110  1.1722
33582SOL     OW12724  13.052  11.388   5.401  0.2398  0.3709  0.0752
33582SOL    HW112725  13.142  11.383   5.371  0.2355  2.3989 -0.4451
33582SOL    HW212726  13.058  11.404   5.495  0.3648 -1.0467  0.3229
33583SOL     OW12727   8.701  10.186  12.498  0.3012  0.5793 -0.2479
33583SOL    HW112728   8.734  10.229  12.419 -2.7988  1.5901 -1.1321
33583SOL    HW212729   8.680  10.097  12.470  0.7763  0.4112 -0.0858
33584SOL     OW12730   0.099  11.949  13.686 -0.0182 -0.2514 -0.5342
33584SOL    HW112731   0.015  11.916  13.717 -0.8900  0.5851 -1.8951
33584SOL    HW212732   0.087  11.961  13.592  1.0251  1.5833 -0.4838
33585SOL     OW12733   4.755   8.655   8.864 -0.0903  0.7052  0.2217
33585SOL    HW112734   4.767   8.720   8.794  1.2809 -0.1750 -0.4079
33585SOL    HW212735   4.725   8.576   8.819 -2.1075  0.9564  1.0252
33586SOL     OW12736  13.004   0.916   6.760 -0.8145 -0.5656  0.8589
33586SOL    HW112737  13.053   0.864   6.824  0.1024 -1.3960 -0.4555
33586SOL    HW212738  13.063   0.989   6.739  0.0923 -1.7440 -0.9725
33587SOL     OW12739   2.576  11.294   3.912 -0.1829  0.0291  0.0710
33587SOL    HW112740   2.553  11.382   3.885  1.0144 -0.0286 -1.2466
33587SOL    HW212741   2.576  11.243   3.831 -1.9756 -1.4861  0.9274
33588SOL     OW12742   4.443  13.327   4.203  0.0991 -0.3668  0.7140
33588SOL    HW112743   4.367  13.365   4.247 -0.5086 -0.6710 -0.0611
33588SOL    HW212744   4.433  13.351   4.111  1.1615 -0.0594  0.6670
33589SOL     OW12745   9.788   2.344   4.734 -0.0360  0.7573  0.2777
33589SOL    HW112746   9.840   2.277   4.779 -0.7396  0.7776  1.1629
33589SOL    HW212747   9.757   2.401   4.805 -0.2706  1.4414 -0.3623
33590SOL     OW12748   4.589   0.716   2.475  0.0537 -0.1085 -0.6325
33590SOL    HW112749   4.657   0.703   2.409  1.8264 -1.0559  1.2553
33590SOL    HW212750   4.585   0.633   2.522 -1.0099  0.5854  0.5724
33591SOL     OW12751  13.413   6.707   5.748  0.2151 -0.4197 -0.0977
33591SOL    HW112752  13.419   6.705   5.843 -0.7574  0.2722 -0.0037
33591SOL    HW212753  13.328   6.667   5.728  0.4307 -0.6020 -0.6728
33592SOL     OW12754   5.388   9.129   0.122 -0.5243 -0.2645  0.4175
33592SOL    HW112755   5.473   9.161   0.153  0.0417 -1.5909  0.2758
33592SOL    HW212756   5.368   9.055   0.179  0.4631 -2.6764 -2.1440
33593SOL     OW12757  12.530   0.427   0.827 -0.6568  0.3189  0.1253
33593SOL    HW112758  12.524   0.405   0.734  1.5229 -1.1090  0.2501
33593SOL    HW212759  12.624   0.443   0.842 -0.6179 -1.5687  2.4772
33594SOL     OW12760  10.081  11.653  12.074  0.0163 -0.0431  0.3422
33594SOL    HW112761  10.096  11.727  12.132  0.1329 -1.2626  1.9287
33594SOL    HW212762  10.014  11.684  12.012  1.2418  1.9027 -0.0919
33595SOL     OW12763   5.914   8.499  12.789 -0.4992  0.4479  0.7722
33595SOL    HW112764   5.985   8.503  12.852 -1.0771 -1.3371  1.5881
33595SOL    HW212765   5.891   8.591  12.773  0.6378  0.9796  2.0202
33596SOL     OW12766  10.690   8.944   0.989  0.1507  0.1412  0.3588
33596SOL    HW112767  10.644   9.028   0.998  0.5500  0.5107 -0.7945
33596SOL    HW212768  10.642   8.900   0.918 -0.3019 -0.7875  1.2246
33597SOL     OW12769   7.866   1.731   0.578 -0.4766 -0.0917 -0.0432
33597SOL    HW112770   7.901   1.820   0.578 -0.1038 -0.2090 -1.5471
33597SOL    HW212771   7.933   1.680   0.533 -0.9957 -1.0103  0.2116
33598SOL     OW12772  13.097   4.158   2.217  0.1912  0.5402  0.1964
33598SOL    HW112773  13.026   4.153   2.280  0.4201  0.7955  0.4808
33598SOL    HW212774  13.154   4.227   2.251 -0.3100  1.5477 -0.9294
33599SOL     OW12775  13.143  13.529   7.093  0.2150 -0.1652  0.6669
33599SOL    HW112776  13.202  13.605   7.097 -0.4456  0.3189  1.6532
33599SOL    HW212777  13.201  13.453   7.091  0.8736  0.3240  0.8662
33600SOL     OW12778   5.868   8.754   6.167  1.1661  0.1659 -0.0219
33600SOL    HW112779   5.794   8.810   6.143  0.6608 -0.1642  0.7318
33600SOL    HW212780   5.895   8.713   6.085  0.3180  0.0532 -0.2456
33601SOL     OW12781   2.692  12.164   7.529  0.3621 -0.5353  0.3999
33601SOL    HW112782   2.678  12.186   7.437  0.2919  0.8815  0.7143
33601SOL    HW212783   2.743  12.083   7.527  1.5693  0.1917 -0.9237
33602SOL     OW12784   1.035  12.837   4.643 -0.2324 -0.0072  0.3891
33602SOL    HW112785   1.034  12.926   4.678 -2.5046 -0.1328  0.8032
33602SOL    HW212786   1.091  12.789   4.704 -1.6109  0.4696  2.1336
33603SOL     OW12787  13.239   5.815   6.493  0.2820  0.0552 -0.3991
33603SOL    HW112788  13.203   5.851   6.574 -0.2115 -3.0130  0.8806
33603SOL    HW212789  13.331   5.842   6.494  0.5308 -0.6892  1.7292
33604SOL     OW12790  11.751   0.969  12.429 -0.4377 -0.2703  0.0666
33604SOL    HW112791  11.758   0.915  12.350 -0.4475  0.0284 -0.1383
33604SOL    HW212792  11.832   1.020  12.430  0.0541 -1.0349  0.8201
33605SOL     OW12793   9.185   7.981   2.462 -0.0825  0.1715  0.4354
33605SOL    HW112794   9.228   7.899   2.439  0.4502  0.6561 -0.3675
33605SOL    HW212795   9.122   7.996   2.391  1.3817  1.5444 -0.6584
33606SOL     OW12796  11.222   0.880   7.366  0.3049 -0.0379  0.2056
33606SOL    HW112797  11.271   0.799   7.347 -0.2288 -0.0764 -1.1478
33606SOL    HW212798  11.166   0.857   7.440 -0.5081 -1.2343 -0.7203
33607SOL     OW12799  10.299  11.683   9.382  0.4003  0.0273  0.2975
33607SOL    HW112800  10.241  11.649   9.450 -0.1481  1.1202  0.4025
33607SOL    HW212801  10.345  11.756   9.425  0.2750  0.5267 -0.4034
33608SOL     OW12802   3.675   4.245   2.746 -0.1077 -0.2431  0.3187
33608SOL    HW112803   3.744   4.187   2.779 -0.8166 -2.3626 -1.6703
33608SOL    HW212804   3.722   4.318   2.706  0.9648 -1.1062 -0.0361
33609SOL     OW12805   8.048  10.693   2.164 -0.0355 -0.0424  0.3964
33609SOL    HW112806   8.134  10.732   2.147  0.5424 -1.3879  0.0303
33609SOL    HW212807   8.068  10.604   2.194 -1.3092 -0.6482 -0.4388
33610SOL     OW12808   6.841   8.162  11.873 -1.0612  0.3806 -0.2151
33610SOL    HW112809   6.745   8.155  11.870 -0.9451 -1.4156 -0.5618
33610SOL    HW212810   6.869   8.090  11.928  0.1252  0.6394 -0.4602
33611SOL     OW12811   1.028   5.637  12.519 -0.1330  0.4421 -0.0040
33611SOL    HW112812   1.023   5.703  12.450  0.8403 -0.2951 -0.8128
33611SOL    HW212813   1.108   5.588  12.500 -0.5913 -0.6927  0.8303
33612SOL     OW12814  13.929  13.231  11.238  0.5355  0.0370  0.3553
33612SOL    HW112815  14.003  13.181  11.203  1.8208  0.5176  2.1991
33612SOL    HW212816  13.860  13.166  11.251  0.8851 -0.5658 -0.6918
33613SOL     OW12817   6.429   1.136  13.142  0.4212 -0.0671  0.2684
33613SOL    HW112818   6.467   1.145  13.229 -1.4499  1.4355  0.9962
33613SOL    HW212819   6.492   1.180  13.084  1.6326 -1.0025  0.8213
33614SOL     OW12820   3.530   1.888   9.638 -0.0704 -0.1929  0.1676
33614SOL    HW112821   3.580   1.963   9.671 -1.6651  0.1895  1.9074
33614SOL    HW212822   3.589   1.845   9.576  2.0657  0.7273  1.4346
33615SOL     OW12823   9.389   8.971   0.653  0.2807  0.5294  0.4732
33615SOL    HW112824   9.474   9.007   0.678  0.8519 -0.6701  0.3312
33615SOL    HW212825   9.340   9.047   0.620  1.2743  1.2484  0.5948
33616SOL     OW12826   0.743  10.805   0.715  0.1416 -0.4725  0.1261
33616SOL    HW112827   0.825  10.775   0.677  0.1155 -1.2768  0.6816
33616SOL    HW212828   0.690  10.725   0.724 -1.1812  0.1837 -1.3367
33617SOL     OW12829  11.165   3.281   5.420 -0.7107 -0.1933  0.0904
33617SOL    HW112830  11.260   3.292   5.414 -0.7522 -0.5755 -2.0033
33617SOL    HW212831  11.130   3.341   5.354 -1.8986 -0.4705  0.4427
33618SOL     OW12832   6.666   4.990   2.410  0.1068 -0.1192  0.2124
33618SOL    HW112833   6.675   4.895   2.408  3.2312  0.0313  1.3912
33618SOL    HW212834   6.660   5.012   2.503 -2.7188  0.7788 -0.1150
33619SOL     OW12835   8.741   3.214   4.939  0.0768 -0.3369 -0.0549
33619SOL    HW112836   8.678   3.156   4.897  0.3989 -1.4243  0.8933
33619SOL    HW212837   8.697   3.244   5.019  0.9633 -1.6728  0.9908
33620SOL     OW12838   3.371   9.190   0.624  0.3885  0.3491  0.1211
33620SOL    HW112839   3.356   9.155   0.536  1.2773 -0.5684  0.3209
33620SOL    HW212840   3.358   9.285   0.615 -1.1151  0.1085 -0.6406
33621SOL     OW12841  13.309   4.939   3.540 -0.2569  0.2630  0.7101
33621SOL    HW112842  13.236   4.879   3.524  0.2550  0.2975 -2.4394
33621SOL    HW212843  13.385   4.883   3.553 -0.4303  0.2465  1.7316
33622SOL     OW12844   4.147   1.906   6.316 -0.4695  0.2896 -0.0457
33622SOL    HW112845   4.168   1.899   6.409  2.6760 -2.4762 -0.7493
33622SOL    HW212846   4.158   1.998   6.295  0.5682  0.6741  1.9825
33623SOL     OW12847   8.387   2.368   2.283 -0.5146  0.6120  0.4472
33623SOL    HW112848   8.431   2.408   2.208  1.3179  0.4043  1.3618
33623SOL    HW212849   8.387   2.436   2.350 -0.7160  0.2712  0.7992
33624SOL     OW12850   9.186   3.544   5.716 -0.4409  1.0330  0.0596
33624SOL    HW112851   9.271   3.573   5.750 -0.2837  0.8911 -0.2104
33624SOL    HW212852   9.172   3.459   5.758 -0.3894  0.9964  0.0022
33625SOL     OW12853  10.436   5.052  13.492  0.3140  0.6048  0.1967
33625SOL    HW112854  10.382   5.103  13.431  1.4095  1.7282  0.1226
33625SOL    HW212855  10.391   5.061  13.577 -1.9496 -2.0451 -0.5642
33626SOL     OW12856   4.671   6.357   3.072 -0.4773 -0.7836 -0.2349
33626SOL    HW112857   4.669   6.366   3.168  0.6459 -0.0826 -0.2662
33626SOL    HW212858   4.750   6.403   3.045  0.3501 -2.7505 -1.3378
33627SOL     OW12859  10.331   4.116   4.155 -1.1259  1.1943 -0.1150
33627SOL    HW112860  10.324   4.198   4.105  0.1422  2.1838  1.2426
33627SOL    HW212861  10.357   4.144   4.243 -0.4969 -0.6895  0.3352
33628SOL     OW12862   9.553  12.812   7.902 -0.1560  0.1132  0.1921
33628SOL    HW112863   9.566  12.877   7.833  0.8001 -0.0354  0.2194
33628SOL    HW212864   9.539  12.864   7.982  1.1556  0.3078  0.3167
33629SOL     OW12865  11.447   4.080  12.197 -0.1171 -0.1117  0.8182
33629SOL    HW112866  11.405   4.051  12.278 -0.4739  1.7730  1.3440
33629SOL    HW212867  11.378   4.126  12.149  0.8778  1.5794  0.9356
33630SOL     OW12868   0.921   0.257   2.234  0.2446  0.3052 -0.2753
33630SOL    HW112869   0.978   0.204   2.290  0.7936  0.0227 -1.0838
33630SOL    HW212870   0.886   0.325   2.292 -1.0036 -1.3109  0.9580
33631SOL     OW12871  11.931   0.562  10.080 -0.0656 -0.0343 -0.1479
33631SOL    HW112872  11.991   0.493  10.052 -0.2840  0.2720 -1.3866
33631SOL    HW212873  11.844   0.531  10.054 -0.4217 -0.2696  1.2315
33632SOL     OW12874  12.572   3.324   7.750 -0.2336  0.0604 -0.0368
33632SOL    HW112875  12.606   3.411   7.728  1.2626 -0.4020  0.3398
33632SOL    HW212876  12.529   3.294   7.670  0.0469  0.7725 -0.4618
33633SOL     OW12877   0.703   7.908  13.353 -0.0841  0.0585  0.3964
33633SOL    HW112878   0.756   7.856  13.292  1.3886  1.9621 -0.0791
33633SOL    HW212879   0.754   7.910  13.434 -1.0492 -0.7822  1.0363
33634SOL     OW12880   2.895  11.989   9.902 -0.4312  0.3211 -0.0898
33634SOL    HW112881   2.805  11.975   9.874 -0.5159  0.2178  0.2369
33634SOL    HW212882   2.888  12.042   9.981 -0.1879  0.6637 -0.2944
33635SOL     OW12883  11.462   8.133   0.033 -0.3234  0.1862 -0.7391
33635SOL    HW112884  11.512   8.211   0.060 -0.1589  0.6476 -2.2778
33635SOL    HW212885  11.487   8.066   0.097  2.0848  0.4836 -1.2703
33636SOL     OW12886  11.624  12.594   8.254  0.1510 -0.1617 -0.2120
33636SOL    HW112887  11.672  12.524   8.300  0.3566  0.2492  0.2073
33636SOL    HW212888  11.610  12.661   8.321  1.2905  0.8762 -0.9591
33637SOL     OW12889   4.717   9.908  13.016 -0.2698  0.2870  0.0636
33637SOL    HW112890   4.799   9.859  13.023 -0.9519 -0.9284 -0.1452
33637SOL    HW212891   4.677   9.874  12.935 -3.2507 -2.7934  2.5243
33638SOL     OW12892   4.118   5.372  13.999  0.1398 -0.5724 -0.0196
33638SOL    HW112893   4.178   5.326  14.058  2.0744  1.4332 -0.3038
33638SOL    HW212894   4.149   5.351  13.911  0.6990  0.7508 -0.1642
33639SOL     OW12895   0.839   5.933  13.396  0.2129  0.3883 -0.1363
33639SOL    HW112896   0.853   5.859  13.455  0.4804  0.8486  0.3978
33639SOL    HW212897   0.865   6.010  13.448  0.1891  0.8306 -0.7640
33640SOL     OW12898  12.146  13.673  11.892 -0.0176 -0.2846  0.1974
33640SOL    HW112899  12.128  13.624  11.972  1.4738  1.4299  1.6485
33640SOL    HW212900  12.229  13.638  11.860  0.7516  0.8759  0.9109
33641SOL     OW12901  12.757  11.662  10.016  0.2817  0.3126 -0.2887
33641SOL    HW112902  12.676  11.650   9.967  0.3881  1.4896 -0.7843
33641SOL    HW212903  12.772  11.578  10.059 -0.2975 -0.4705 -1.5586
33642SOL     OW12904  12.774   0.560   8.151 -0.6337  0.5274  0.6537
33642SOL    HW112905  12.702   0.624   8.150 -0.5689  0.5952 -0.5369
33642SOL    HW212906  12.850   0.609   8.120 -0.3549  0.1227  0.6970
33643SOL     OW12907   8.667   1.404   5.431 -0.0422  0.1736 -0.0366
33643SOL    HW112908   8.600   1.403   5.499 -0.3463 -0.8953 -0.3406
33643SOL    HW212909   8.750   1.406   5.479 -0.2340 -1.2558  0.3906
33644SOL     OW12910   4.757   6.864   2.943 -0.0604 -0.2675  0.2273
33644SOL    HW112911   4.836   6.917   2.934 -0.8792  0.9869  0.2391
33644SOL    HW212912   4.738   6.865   3.037  0.4865 -1.4588  0.3675
33645SOL     OW12913  13.651   1.514   9.003  0.1017  0.1565 -0.2287
33645SOL    HW112914  13.619   1.571   8.933  0.7656  0.2472 -0.4658
33645SOL    HW212915  13.745   1.506   8.986 -0.0417 -1.3317 -0.4320
33646SOL     OW12916   0.317   0.533   1.972 -0.1674  0.1215 -0.3085
33646SOL    HW112917   0.271   0.616   1.982  0.5260  0.4959 -0.1063
33646SOL    HW212918   0.398   0.544   2.023 -0.5443 -1.0654  0.5987
33647SOL     OW12919   3.743  13.355  13.120  0.1091  0.3537 -0.3520
33647SOL    HW112920   3.650  13.341  13.138  0.2125  0.6652  0.4510
33647SOL    HW212921   3.748  13.446  13.090 -0.1151 -0.2671 -2.4170
33648SOL     OW12922   1.999   8.141   2.608 -0.6706  0.2467 -0.0925
33648SOL    HW112923   2.023   8.139   2.515  0.7774  3.8122  0.0676
33648SOL    HW212924   1.907   8.169   2.608 -0.6762  0.2307 -0.4470
33649SOL     OW12925  11.959   8.129  10.704  0.4637  0.1494 -0.3224
33649SOL    HW112926  11.879   8.102  10.748 -1.0751  1.6233 -2.0345
33649SOL    HW212927  11.984   8.211  10.746 -0.5250  1.1122 -1.5327
33650SOL     OW12928   4.494   3.546  12.148  0.0434 -0.0080  0.4782
33650SOL    HW112929   4.414   3.522  12.102  0.5893  1.0565 -1.1164
33650SOL    HW212930   4.489   3.641  12.159  0.6280 -0.0534  1.2873
33651SOL     OW12931   2.967   6.368   7.236  0.0233 -0.2595 -0.5571
33651SOL    HW112932   2.927   6.447   7.273 -1.4676 -1.7686  1.1820
33651SOL    HW212933   2.920   6.354   7.154 -1.0852 -0.4166  0.0889
33652SOL     OW12934   6.973   5.496  13.450  0.0335  0.2602  0.1004
33652SOL    HW112935   7.058   5.463  13.480 -0.5131  0.3261  1.8587
33652SOL    HW212936   6.943   5.431  13.387  1.8629  0.8045 -1.4052
33653SOL     OW12937   7.850   4.120  10.530  0.5394 -0.2956  0.2973
33653SOL    HW112938   7.889   4.179  10.594 -1.6339  0.1806  1.2666
33653SOL    HW212939   7.798   4.176  10.473 -1.2955 -1.1747  1.0280
33654SOL     OW12940   7.427   8.992   8.467 -0.4212  0.4184 -0.1111
33654SOL    HW112941   7.472   9.003   8.383 -1.0210  0.7020 -0.4052
33654SOL    HW212942   7.417   8.898   8.477 -1.4503  0.4085 -0.9780
33655SOL     OW12943   8.976   9.195   7.648 -0.4652 -0.0681  0.0832
33655SOL    HW112944   9.044   9.244   7.602  1.7615 -2.4454  0.6323
33655SOL    HW212945   8.931   9.145   7.579  1.2698 -1.7824  0.1324
33656SOL     OW12946  12.050   2.602   7.336  0.2490 -0.2946 -0.1721
33656SOL    HW112947  12.023   2.660   7.407  0.9499  1.6686 -1.4046
33656SOL    HW212948  11.983   2.534   7.332  0.4733 -0.8054  2.6647
33657SOL     OW12949   1.899   5.042   1.076  0.4559  0.2136 -0.4355
33657SOL    HW112950   1.912   4.950   1.055  0.0361 -0.3178  1.4758
33657SOL    HW212951   1.981   5.084   1.051  0.8134 -0.7495 -0.9369
33658SOL     OW12952   9.680   7.655   1.117  0.2239 -1.2099  0.0715
33658SOL    HW112953   9.598   7.688   1.079  0.3107 -0.8277  0.2117
33658SOL    HW212954   9.655   7.627   1.205  0.1646 -1.4485 -0.0224
33659SOL     OW12955   1.151   5.042   8.780 -0.2767 -0.1298  0.2401
33659SOL    HW112956   1.209   5.087   8.717 -0.3286  0.3540  0.5289
33659SOL    HW212957   1.065   5.080   8.763 -0.0772  0.9102  1.4200
33660SOL     OW12958  12.912   4.687   3.940  0.5769  0.7981  0.0488
33660SOL    HW112959  12.881   4.600   3.916 -0.9518  1.7951 -1.8614
33660SOL    HW212960  12.850   4.747   3.898  1.4232  2.8166  1.5306
33661SOL     OW12961   6.831   4.410   8.339 -0.1427 -0.1232 -0.1044
33661SOL    HW112962   6.920   4.409   8.373 -0.2999 -2.4842  0.3823
33661SOL    HW212963   6.834   4.472   8.266  2.3881 -1.6040 -1.3636
33662SOL     OW12964   8.724  10.723   7.550 -0.7169  0.1319  0.0680
33662SOL    HW112965   8.804  10.700   7.503 -1.2905  0.3531 -1.0310
33662SOL    HW212966   8.743  10.808   7.591 -0.5703  0.4481 -0.6471
33663SOL     OW12967   9.754   6.183   0.411  0.2069  0.1404  0.6080
33663SOL    HW112968   9.736   6.092   0.390  0.1284  0.3474 -0.2471
33663SOL    HW212969   9.679   6.211   0.464 -0.2810 -0.0008  0.0018
33664SOL     OW12970   2.278   0.181  10.864 -0.4458  0.0626  0.6903
33664SOL    HW112971   2.205   0.136  10.823  0.4520 -0.6323 -0.1790
33664SOL    HW212972   2.354   0.124  10.848  0.6188  1.6076  0.0257
33665SOL     OW12973  11.753  10.255  11.839  0.1791 -0.2151  0.1623
33665SOL    HW112974  11.674  10.305  11.818 -0.3095 -1.4390 -1.0931
33665SOL    HW212975  11.820  10.320  11.854 -0.9394  0.8509  0.7329
33666SOL     OW12976   6.540   0.297  11.192 -0.6254  0.7840  0.0953
33666SOL    HW112977   6.635   0.305  11.193 -0.5438 -0.1992  0.6065
33666SOL    HW212978   6.509   0.381  11.157  0.4388  0.9575 -0.4522
33667SOL     OW12979  11.001   0.702   4.884  0.1837  0.5282  0.6481
33667SOL    HW112980  11.074   0.640   4.888 -0.5948 -0.4385  0.3249
33667SOL    HW212981  10.974   0.701   4.792 -0.9607 -0.0056  0.9764
33668SOL     OW12982  10.910   8.705   9.010  0.5925  0.2893  0.2749
33668SOL    HW112983  10.844   8.636   9.022  2.9230 -2.1811 -0.1814
33668SOL    HW212984  10.981   8.662   8.963  1.8858  3.2826 -0.7262
33669SOL     OW12985   4.708   4.552   0.563 -0.2912  0.1408 -0.0566
33669SOL    HW112986   4.636   4.489   0.560 -2.4006  2.4153 -1.2474
33669SOL    HW212987   4.689   4.607   0.639  0.9727 -0.0249  0.4082
33670SOL     OW12988   0.103   8.035   3.473  0.1159 -0.7110 -1.0867
33670SOL    HW112989   0.098   7.961   3.533 -0.1025 -0.6283 -1.0046
33670SOL    HW212990   0.083   8.111   3.527 -0.6409 -0.6963 -1.3853
33671SOL     OW12991   2.847   1.793   2.498 -0.0252 -0.4000 -0.6343
33671SOL    HW112992   2.773   1.766   2.442 -1.2658  0.0421  0.7330
33671SOL    HW212993   2.842   1.735   2.574  0.3048  0.4073  0.0153
33672SOL     OW12994   3.117  11.297   9.306 -0.8670 -0.2363 -1.0676
33672SOL    HW112995   3.032  11.266   9.273 -2.1138  0.5723  1.1816
33672SOL    HW212996   3.140  11.370   9.247 -1.1073 -1.2154 -2.4215
33673SOL     OW12997  11.797   4.167   7.811 -0.7142  0.3655  0.2766
33673SOL    HW112998  11.745   4.191   7.888  1.5438  1.4416  1.5640
33673SOL    HW212999  11.805   4.247   7.761  0.6420  0.5446  0.7255
33674SOL     OW13000   8.905  14.005   5.800 -0.6873 -0.7319 -0.8767
33674SOL    HW113001   8.964  14.003   5.725  0.1597  1.5161 -0.3544
33674SOL    HW213002   8.963  14.009   5.876 -1.4020  2.4626 -0.3865
33675SOL     OW13003   9.720   5.375   0.800  0.0342  0.8181 -0.2028
33675SOL    HW113004   9.633   5.394   0.834 -0.3977 -0.5345 -0.5124
33675SOL    HW213005   9.710   5.376   0.705 -0.5582 -2.9707 -0.3130
33676SOL     OW13006   0.018   6.432   3.255  0.0205 -0.5982  0.6821
33676SOL    HW113007   0.060   6.355   3.293  0.2663 -0.8400 -0.0579
33676SOL    HW213008   0.024   6.418   3.161 -0.6362 -0.0441  0.5526
33677SOL     OW13009   7.215   1.647  11.541  0.2575 -0.3979 -0.0632
33677SOL    HW113010   7.173   1.570  11.503 -0.1612 -0.2712  0.1432
33677SOL    HW213011   7.307   1.621  11.552 -0.0223 -1.1373  0.6982
33678SOL     OW13012   3.052  10.124  10.194 -0.3343 -0.1507  0.1648
33678SOL    HW113013   3.120  10.077  10.242 -0.9014 -0.8381  0.3036
33678SOL    HW213014   3.098  10.197  10.152  0.1647  0.5506  1.8422
33679SOL     OW13015   4.808   4.654   0.333  0.5591  0.5093  0.2766
33679SOL    HW113016   4.804   4.746   0.359 -2.9642  0.7933 -0.6565
33679SOL    HW213017   4.773   4.607   0.409  2.4068 -0.1467  0.7763
33680SOL     OW13018  13.989   1.231   3.725  0.0009  0.4409  0.0725
33680SOL    HW113019  14.035   1.152   3.696 -0.2734 -0.2423  1.4312
33680SOL    HW213020  14.049   1.271   3.788  0.1186  1.3211 -0.5691
33681SOL     OW13021  10.734  13.900  12.071 -0.5765 -0.1333 -0.0687
33681SOL    HW113022  10.783  13.818  12.070  1.5931  1.0693  1.1392
33681SOL    HW213023  10.650  13.878  12.110  0.1177 -1.6939  0.5989
33682SOL     OW13024   7.390  10.379  14.015 -0.4298  0.0014  0.8944
33682SOL    HW113025   7.467  10.337  13.977 -1.3259 -0.7535 -0.1639
33682SOL    HW213026   7.371  10.452  13.957 -1.6761 -1.0247 -0.0528
33683SOL     OW13027  12.083   3.139   2.092 -0.0010 -0.0501 -0.1749
33683SOL    HW113028  12.013   3.164   2.153  0.8998 -1.2969  1.4323
33683SOL    HW213029  12.108   3.222   2.051 -2.5563  0.4031 -1.0157
33684SOL     OW13030  13.798   0.899   4.140  0.4675  0.2061  0.6058
33684SOL    HW113031  13.802   0.942   4.055 -1.9333 -0.5900  0.0287
33684SOL    HW213032  13.736   0.950   4.191 -1.1289 -1.4898  0.4856
33685SOL     OW13033   0.740  12.670   3.395  0.1525 -0.3983 -0.0135
33685SOL    HW113034   0.789  12.629   3.467  0.1770  0.0176  0.2093
33685SOL    HW213035   0.677  12.727   3.439  1.0323  0.8662 -0.3382
33686SOL     OW13036  11.394   2.666   9.442 -0.4380  0.2880 -0.1357
33686SOL    HW113037  11.390   2.574   9.418 -0.3447  0.1632  0.3166
33686SOL    HW213038  11.484   2.680   9.470 -0.7685  0.1835  1.0666
33687SOL     OW13039  13.384   8.309  10.762  0.3675  0.1408 -0.1047
33687SOL    HW113040  13.290   8.303  10.746  0.3868 -1.4187  0.1748
33687SOL    HW213041  13.402   8.403  10.768 -0.9034  0.5251 -1.6532
33688SOL     OW13042   9.537   1.567   4.143 -0.0125  0.1373 -0.0901
33688SOL    HW113043   9.465   1.603   4.195 -1.7975 -1.4391 -1.3275
33688SOL    HW213044   9.582   1.644   4.108  0.4145  1.2041  2.5910
33689SOL     OW13045   2.405   5.406   6.347  0.3135  0.3738 -0.0065
33689SOL    HW113046   2.447   5.463   6.412  0.9367  0.4141 -0.4289
33689SOL    HW213047   2.376   5.466   6.278 -1.3167  0.4603  0.7057
33690SOL     OW13048   7.678  13.856  11.102  0.2666  0.2679 -0.4092
33690SOL    HW113049   7.729  13.830  11.178  0.5095  1.6558 -0.0676
33690SOL    HW213050   7.713  13.803  11.030  0.4534 -0.6114  0.3153
33691SOL     OW13051   1.051   4.890   2.137  0.4523 -0.1974 -0.1726
33691SOL    HW113052   1.079   4.890   2.046  0.6729  1.9795 -0.1452
33691SOL    HW213053   1.114   4.945   2.183 -0.1682 -0.5142  1.1318
33692SOL     OW13054   1.106  13.147   1.334  0.5006 -0.3309 -0.3030
33692SOL    HW113055   1.040  13.138   1.265  0.6879 -1.4679 -0.3663
33692SOL    HW213056   1.160  13.069   1.324 -0.0871 -1.0623  1.8005
33693SOL     OW13057   3.853   3.574   6.523  0.0589  0.1616 -0.1965
33693SOL    HW113058   3.857   3.666   6.493  0.0682  0.3119  0.2646
33693SOL    HW213059   3.823   3.526   6.446 -1.0855  0.7069 -0.1064
33694SOL     OW13060   1.299   1.621   3.598  0.0295 -0.1780  0.2365
33694SOL    HW113061   1.386   1.612   3.559  0.2212 -0.5993  0.7397
33694SOL    HW213062   1.303   1.566   3.676 -0.3099  0.7325  0.9087
33695SOL     OW13063  11.685   2.629  10.583 -0.5600  0.1964 -0.1661
33695SOL    HW113064  11.740   2.552  10.595  0.8660  0.8767 -1.8353
33695SOL    HW213065  11.638   2.613  10.501  1.6047  2.0191 -1.9143
33696SOL     OW13066   3.505  13.832   7.612 -0.3381 -0.3540 -0.5919
33696SOL    HW113067   3.572  13.772   7.644 -0.4963 -0.8437 -1.1484
33696SOL    HW213068   3.463  13.785   7.540 -1.2253 -0.0232 -0.3098
33697SOL     OW13069  12.391  10.543   7.128 -0.6644 -0.2654  0.1448
33697SOL    HW113070  12.448  10.470   7.102 -0.0042  0.6009 -0.9076
33697SOL    HW213071  12.426  10.619   7.082 -2.4442  0.3878 -0.2259
33698SOL     OW13072   1.145   7.621   5.020 -0.2521 -0.2381 -0.1131
33698SOL    HW113073   1.052   7.600   5.031 -0.3825  1.2901  2.7539
33698SOL    HW213074   1.182   7.543   4.978 -2.5243 -1.5968  0.2176
33699SOL     OW13075   9.285  10.893   7.942 -0.0437  0.2733 -0.3993
33699SOL    HW113076   9.216  10.917   8.004 -1.5215 -0.4384 -1.7038
33699SOL    HW213077   9.366  10.907   7.991 -1.1175  0.3006  1.4886
33700SOL     OW13078   3.114   1.555  11.787  0.0051 -0.1091  0.0352
33700SOL    HW113079   3.175   1.629  11.794 -0.3650  0.0639  1.7594
33700SOL    HW213080   3.162   1.490  11.735  2.3885 -0.6256  2.6507
33701SOL     OW13081   8.303   3.674   4.521  0.2033  0.1875 -0.2196
33701SOL    HW113082   8.392   3.707   4.531 -0.1063  0.8243  0.5463
33701SOL    HW213083   8.313   3.579   4.520  0.8348  0.2294  0.5810
33702SOL     OW13084  10.315   1.004  13.917  0.3376 -0.4977 -0.7446
33702SOL    HW113085  10.260   0.926  13.915 -0.3123 -0.0586 -0.1853
33702SOL    HW213086  10.253   1.077  13.919  0.9269 -0.0075  0.5948
33703SOL     OW13087  11.877   6.695   5.764 -0.4497 -0.8577 -0.0664
33703SOL    HW113088  11.910   6.776   5.803 -0.1564 -0.8639 -0.2978
33703SOL    HW213089  11.783   6.707   5.759 -0.2868 -0.0036 -1.3028
33704SOL     OW13090   9.859  11.361  14.023  0.1721 -0.3427  0.1277
33704SOL    HW113091   9.871  11.272  14.057 -1.9960 -0.7896 -0.1048
33704SOL    HW213092   9.855  11.416  14.101 -0.4659 -0.7530  0.3960
33705SOL     OW13093  13.806   4.915   3.192 -0.2266 -0.8258  0.3552
33705SOL    HW113094  13.772   4.980   3.253  1.2585 -0.7112  1.0982
33705SOL    HW213095  13.736   4.903   3.128 -1.7462 -0.7843  1.9309
33706SOL     OW13096   5.066  12.389  12.713  0.1366  0.4170 -0.1462
33706SOL    HW113097   4.973  12.394  12.734  0.0500 -0.9324 -0.1464
33706SOL    HW213098   5.074  12.438  12.630 -1.5255 -3.4979 -2.9149
33707SOL     OW13099   8.730   7.895   8.882  0.7901  0.0194  0.1768
33707SOL    HW113100   8.675   7.818   8.864 -2.2984  2.2143 -0.6541
33707SOL    HW213101   8.791   7.865   8.949 -0.5573 -3.0148  0.2392
33708SOL     OW13102   7.688   3.315   2.185 -0.1900 -0.1947 -0.5707
33708SOL    HW113103   7.669   3.338   2.094 -0.4731 -2.2833 -1.0991
33708SOL    HW213104   7.620   3.252   2.208  1.8187 -2.3166 -0.0956
33709SOL     OW13105   1.414   9.489   8.659 -0.9031  0.3019 -0.0122
33709SOL    HW113106   1.484   9.425   8.658 -1.3867 -0.3569  2.3913
33709SOL    HW213107   1.336   9.440   8.633 -0.9505  0.3773 -0.0140
33710SOL     OW13108   5.764   9.997   0.943  0.1152 -0.0428  0.3990
33710SOL    HW113109   5.799  10.011   1.031  0.3885 -0.1151  0.3023
33710SOL    HW213110   5.813  10.058   0.887 -0.2670  0.2192  0.3433
33711SOL     OW13111   3.009   1.087   0.862 -0.3137 -0.2767 -0.2624
33711SOL    HW113112   2.977   1.174   0.839 -0.1353  0.1967  1.1847
33711SOL    HW213113   2.966   1.067   0.946  2.3286 -0.0611  1.2356
33712SOL     OW13114  13.822   2.148   9.077  0.2016 -0.5843 -0.0293
33712SOL    HW113115  13.892   2.213   9.078 -0.8453  0.6271 -0.6995
33712SOL    HW213116  13.765   2.173   9.150 -0.6939 -0.1508 -0.8463
33713SOL     OW13117   2.612   7.147   7.806  0.2507  0.0137 -0.0229
33713SOL    HW113118   2.698   7.112   7.828 -0.2562 -1.1122  0.2651
33713SOL    HW213119   2.575   7.083   7.745 -0.6897  0.0711  0.4720
33714SOL     OW13120   8.527  10.532   3.530  0.4409  0.2857  0.4142
33714SOL    HW113121   8.478  10.528   3.612  1.8536 -1.0675  1.2509
33714SOL    HW213122   8.602  10.475   3.545  0.3656 -0.5744 -2.0765
33715SOL     OW13123  10.667  10.182   4.874 -0.3397  0.4812 -0.1750
33715SOL    HW113124  10.720  10.259   4.852 -1.2765  1.4204  0.7584
33715SOL    HW213125  10.683  10.167   4.967 -2.4239  1.4103  0.3948
33716SOL     OW13126   3.162   4.922   3.483 -0.0844 -0.1119 -0.0453
33716SOL    HW113127   3.224   4.934   3.411  0.6329 -1.0186  0.4005
33716SOL    HW213128   3.151   4.827   3.490  0.3607 -0.0827  1.4449
33717SOL     OW13129   3.890   8.857  13.646  0.5659  0.4161 -0.3763
33717SOL    HW113130   3.810   8.805  13.656  0.7426  0.5034  2.0023
33717SOL    HW213131   3.869   8.942  13.685  1.5077  0.7986 -0.6635
33718SOL     OW13132   4.980   2.417   3.009 -0.0959  0.4899  0.3448
33718SOL    HW113133   4.906   2.475   2.989 -1.1733 -0.3245  1.7903
33718SOL    HW213134   5.057   2.473   3.004 -1.1471  2.2434  2.2776
33719SOL     OW13135  10.165   7.649   1.496 -0.2030  0.0419  0.2959
33719SOL    HW113136  10.151   7.604   1.413  0.5052 -0.8892  0.6657
33719SOL    HW213137  10.260   7.658   1.503 -0.3054  1.1210  0.4896
33720SOL     OW13138   9.581  12.744   6.950  0.3121 -0.0592  0.5787
33720SOL    HW113139   9.647  12.733   6.881  0.0640 -0.1836  0.3604
33720SOL    HW213140   9.535  12.661   6.952 -0.8513  0.5424 -0.3215
33721SOL     OW13141   3.099   2.711   3.827 -0.0168  0.1197 -0.1576
33721SOL    HW113142   3.033   2.670   3.771  1.0257  2.1851 -3.1760
33721SOL    HW213143   3.050   2.743   3.903 -2.1217 -0.1869 -1.3080
33722SOL     OW13144   0.916   4.168   8.198  0.3996  0.2983 -0.2028
33722SOL    HW113145   0.858   4.233   8.160 -0.3532  1.3531  2.5263
33722SOL    HW213146   0.932   4.199   8.287  1.8565 -2.0952  0.4625
33723SOL     OW13147   0.372   3.206   9.240 -0.1186  0.1684  0.1552
33723SOL    HW113148   0.314   3.129   9.245 -1.4745  0.8879 -2.6123
33723SOL    HW213149   0.313   3.280   9.227  1.2838  1.3686  0.3758
33724SOL     OW13150  10.011   2.614   4.737 -0.0143  0.1058  0.0875
33724SOL    HW113151  10.037   2.526   4.708 -0.3825  0.1003 -0.2377
33724SOL    HW213152   9.954   2.598   4.813  0.9052  0.1177  0.8002
33725SOL     OW13153  11.849  11.852   5.111  0.1471  0.2301 -0.4648
33725SOL    HW113154  11.793  11.852   5.189  0.2505  2.2585 -0.3348
33725SOL    HW213155  11.932  11.815   5.141 -0.1396  0.0730  0.1417
33726SOL     OW13156   0.934  11.943   0.506 -0.9482  0.5585 -0.1577
33726SOL    HW113157   0.980  11.879   0.560 -2.6795 -2.8338 -2.3230
33726SOL    HW213158   0.850  11.955   0.550 -1.3883 -0.2753 -0.7348
33727SOL     OW13159   1.641   2.139   1.418  0.1040  0.1043 -0.2687
33727SOL    HW113160   1.551   2.171   1.410  0.2122  0.5907  0.3732
33727SOL    HW213161   1.635   2.046   1.395 -0.5528  0.1341 -0.2575
33728SOL     OW13162  11.813   4.381  13.308  0.8942 -0.4115 -0.0211
33728SOL    HW113163  11.734   4.365  13.360  0.1599  1.1549 -0.5826
33728SOL    HW213164  11.867   4.438  13.363  0.1927  1.1075 -0.8678
33729SOL     OW13165   9.430  11.520   7.493  0.4843  0.0541 -0.0960
33729SOL    HW113166   9.388  11.603   7.513 -0.8152 -0.1795 -1.5974
33729SOL    HW213167   9.431  11.517   7.397 -0.2524 -1.9893 -0.0903
33730SOL     OW13168  12.851   0.979  11.594  0.9895  0.0519  0.2558
33730SOL    HW113169  12.756   0.984  11.600  0.9954 -0.6001  1.2143
33730SOL    HW213170  12.880   1.069  11.579  0.1677  0.0944 -1.3278
33731SOL     OW13171  11.227  10.560   6.610  0.5871 -0.0529 -0.1612
33731SOL    HW113172  11.192  10.544   6.523  2.0068  0.9251 -0.9510
33731SOL    HW213173  11.150  10.576   6.665 -0.3374 -0.9003 -1.1705
33732SOL     OW13174  11.833   6.679   2.904 -0.4978  1.2333  0.0478
33732SOL    HW113175  11.743   6.693   2.933 -0.9356  0.5942 -0.9843
33732SOL    HW213176  11.832   6.696   2.810 -0.0387 -0.9158 -0.4030
33733SOL     OW13177  10.184   0.674   7.098  0.2211 -0.2093  0.0729
33733SOL    HW113178  10.241   0.748   7.077  0.3007  0.8309  3.3315
33733SOL    HW213179  10.099   0.699   7.063  1.1817 -0.8600 -3.0506
33734SOL     OW13180   8.143  10.243   4.907 -0.7300 -0.3952  0.8082
33734SOL    HW113181   8.071  10.247   4.845  0.3823  0.1948 -0.5075
33734SOL    HW213182   8.153  10.332   4.940  0.7824  0.0669 -0.7369
33735SOL     OW13183   1.637   0.004   4.413 -0.5064  1.2033 -0.0024
33735SOL    HW113184   1.556  -0.035   4.446  0.0907 -0.3517 -0.2836
33735SOL    HW213185   1.610   0.048   4.332 -0.8093 -0.7865 -1.0406
33736SOL     OW13186   7.050   9.256  11.920  0.2348 -0.2614  0.2387
33736SOL    HW113187   6.964   9.223  11.891 -0.3476  1.6852 -0.3851
33736SOL    HW213188   7.108   9.240  11.846 -0.1489  0.4906 -0.2318
33737SOL     OW13189   5.304   2.124   3.016  0.3657  0.2986 -0.5671
33737SOL    HW113190   5.335   2.046   3.062 -1.4980 -0.0547  0.1529
33737SOL    HW213191   5.231   2.156   3.068  0.4367  1.9525 -1.4112
33738SOL     OW13192   7.202   8.043  10.076  0.5350  0.2909  0.8012
33738SOL    HW113193   7.256   7.996  10.139  0.4711 -0.0744  0.5889
33738SOL    HW213194   7.157   8.109  10.128 -1.1939 -1.3948  1.5819
33739SOL     OW13195   0.696   1.400   3.311 -0.0509  0.2365  0.6835
33739SOL    HW113196   0.780   1.372   3.348  0.1108 -1.4479 -0.8167
33739SOL    HW213197   0.657   1.455   3.379  0.0514 -2.9309  3.5827
33740SOL     OW13198   8.551  12.576  13.784  0.0472 -0.4905  0.1468
33740SOL    HW113199   8.554  12.619  13.699 -1.6751 -0.1191  0.2471
33740SOL    HW213200   8.573  12.484  13.764 -2.4266 -0.9078 -1.1046
33741SOL     OW13201   9.153   4.745   0.182  0.0127  0.2286  0.3237
33741SOL    HW113202   9.212   4.817   0.157 -0.4077 -0.3711 -2.7428
33741SOL    HW213203   9.211   4.674   0.209  0.7005  0.1029 -1.3773
33742SOL     OW13204   0.897   4.544   0.298  0.9528 -0.4506  0.4374
33742SOL    HW113205   0.895   4.607   0.370 -0.1543  1.4334 -1.1684
33742SOL    HW213206   0.990   4.531   0.280  1.1956  0.6470  0.8660
33743SOL     OW13207   0.607   4.573   5.005  0.1273 -0.3136 -0.4954
33743SOL    HW113208   0.523   4.539   4.976 -0.7919  1.3071  0.1389
33743SOL    HW213209   0.672   4.527   4.952 -0.9862 -3.1606  0.4647
33744SOL     OW13210  11.994  13.640   5.352 -0.0993 -0.0429 -0.0360
33744SOL    HW113211  11.964  13.677   5.269  3.1823  0.5315 -1.1237
33744SOL    HW213212  11.945  13.558   5.361 -1.2798  0.3866 -2.0221
33745SOL     OW13213   8.341   0.737   2.850  0.2328  0.5707 -0.0735
33745SOL    HW113214   8.414   0.734   2.912  1.5074  1.6864 -1.4442
33745SOL    HW213215   8.334   0.829   2.826  0.8273  0.0015 -2.7290
33746SOL     OW13216   4.186   8.466  12.265 -0.7333  0.0010  0.0465
33746SOL    HW113217   4.228   8.549  12.243 -0.0280 -0.5708 -0.8415
33746SOL    HW213218   4.100   8.471  12.222  0.3231 -0.7775 -2.3559
33747SOL     OW13219   7.529   3.275   3.538  0.2194  0.4152  0.5014
33747SOL    HW113220   7.575   3.193   3.555 -2.5445 -0.7954  3.2473
33747SOL    HW213221   7.478   3.259   3.458  0.4565 -0.1999  0.4725
33748SOL     OW13222   9.009   9.106  12.567 -0.1748  0.0177  0.1284
33748SOL    HW113223   8.972   9.046  12.502 -0.2648  1.0891 -0.8288
33748SOL    HW213224   9.070   9.052  12.617  2.2682 -0.1809 -2.8146
33749SOL     OW13225   7.240   6.545   6.174  0.2905  0.1775 -0.2728
33749SOL    HW113226   7.183   6.543   6.251 -1.4835  0.8036 -1.5149
33749SOL    HW213227   7.255   6.638   6.158 -0.0031  0.0822 -1.1366
33750SOL     OW13228   2.412  10.907   4.977 -0.8958 -0.1429  0.2836
33750SOL    HW113229   2.360  10.957   4.915 -2.1176 -0.8864  0.6633
33750SOL    HW213230   2.413  10.961   5.057  3.1364  2.2467 -1.0805
33751SOL     OW13231   4.024   7.280   9.059 -0.4130  0.5788 -0.0856
33751SOL    HW113232   4.119   7.280   9.043 -0.2321  0.5338  0.9472
33751SOL    HW213233   4.009   7.203   9.114 -0.6466  1.9406  1.8752
33752SOL     OW13234   9.292  11.168   6.137  0.0439 -0.1887  0.2978
33752SOL    HW113235   9.257  11.210   6.216  0.4730 -0.7333  0.7894
33752SOL    HW213236   9.381  11.204   6.129  0.0625 -0.2654  0.1662
33753SOL     OW13237   6.370   8.549   1.400  0.0188 -0.2589 -0.4073
33753SOL    HW113238   6.372   8.598   1.317 -0.1146  0.8037  0.2049
33753SOL    HW213239   6.310   8.476   1.383 -2.6378  1.7417 -0.2912
33754SOL     OW13240  10.424   4.122   6.473  0.0216  0.3896 -0.0980
33754SOL    HW113241  10.329   4.130   6.486 -0.0642 -0.9513  0.2213
33754SOL    HW213242  10.454   4.212   6.463 -1.0418  0.9714  1.5527
33755SOL     OW13243   3.337   9.125   1.444 -0.1236  0.0891 -0.2589
33755SOL    HW113244   3.247   9.095   1.456  0.1964 -0.4124  1.1455
33755SOL    HW213245   3.379   9.057   1.392 -0.8191  0.8682 -1.8922
33756SOL     OW13246  12.774  12.391  13.121  0.1020 -0.4859 -0.6339
33756SOL    HW113247  12.868  12.404  13.104 -0.1347  1.7082 -0.5152
33756SOL    HW213248  12.763  12.296  13.119  1.8040 -0.7568 -3.4375
33757SOL     OW13249  10.197   6.916  13.457  0.5337  0.9976  0.1662
33757SOL    HW113250  10.256   6.953  13.391  0.1910  1.7939  0.2991
33757SOL    HW213251  10.197   6.822  13.438  3.9090  0.5017  1.7629
33758SOL     OW13252  12.402   9.278  12.876 -0.0643  0.0882 -0.3622
33758SOL    HW113253  12.353   9.213  12.826  0.1001 -0.7652  0.5659
33758SOL    HW213254  12.402   9.246  12.966  1.7757  0.3012 -0.2302
33759SOL     OW13255   3.710   3.175   8.919  0.2320  0.4607  0.7177
33759SOL    HW113256   3.777   3.225   8.965  0.8944 -2.0749  2.7588
33759SOL    HW213257   3.748   3.157   8.833  1.2728  0.8687  1.0741
33760SOL     OW13258   5.329   1.282  12.830  0.5497  0.2711 -0.0773
33760SOL    HW113259   5.389   1.228  12.882  0.0314  0.8626  1.1980
33760SOL    HW213260   5.375   1.365  12.818 -0.1920  0.9593  1.4524
33761SOL     OW13261   2.293   6.616   4.364  0.3897  0.1984  0.4136
33761SOL    HW113262   2.342   6.550   4.412  1.2401 -0.8701 -1.8047
33761SOL    HW213263   2.316   6.699   4.407 -0.2553 -0.8244  2.8810
33762SOL     OW13264   4.326   7.622   5.235  0.4191  0.3597  0.1765
33762SOL    HW113265   4.380   7.624   5.156  1.0181  0.2676  0.5727
33762SOL    HW213266   4.363   7.551   5.287 -0.4945 -0.1285  0.1824
33763SOL     OW13267   0.086  12.347   7.915  0.0822 -0.1696 -0.4639
33763SOL    HW113268   0.036  12.399   7.979  0.6261 -0.9472  0.6342
33763SOL    HW213269   0.177  12.359   7.941  0.2237 -1.5737 -0.2283
33764SOL     OW13270  13.529   7.773   3.834 -0.4380  0.1415 -0.6133
33764SOL    HW113271  13.492   7.760   3.922  0.6630  0.7482 -0.0376
33764SOL    HW213272  13.483   7.849   3.800  2.0712  2.6837  1.2149
33765SOL     OW13273   3.371   2.155   5.759 -0.7237  0.2662  0.4404
33765SOL    HW113274   3.435   2.197   5.700 -1.1079  0.0482 -0.1388
33765SOL    HW213275   3.332   2.228   5.806  0.7212  0.3334  1.6142
33766SOL     OW13276  13.517  12.121  13.048  0.4990  0.0354  0.7175
33766SOL    HW113277  13.547  12.117  12.957 -0.7745 -0.4433  0.3054
33766SOL    HW213278  13.540  12.035  13.085 -2.1769 -1.2149 -0.2303
33767SOL     OW13279  12.335  10.209   8.514  0.0664 -0.0163  0.2856
33767SOL    HW113280  12.243  10.199   8.489 -0.0952  0.2333  0.7588
33767SOL    HW213281  12.336  10.285   8.572  0.4413 -0.5026  0.9357
33768SOL     OW13282   9.151   3.064  11.680  0.2673 -0.6203  0.5811
33768SOL    HW113283   9.188   2.976  11.670  0.8826 -0.1234 -2.9034
33768SOL    HW213284   9.063   3.058  11.643  0.2975  0.2220  0.3539
33769SOL     OW13285   9.135   5.844   6.406  0.3389 -0.5763 -0.4234
33769SOL    HW113286   9.147   5.781   6.477  1.9560 -1.1013 -1.1139
33769SOL    HW213287   9.216   5.894   6.404  1.0001 -1.5945 -2.8501
33770SOL     OW13288   0.324   9.208   9.399  1.0739 -0.4535 -0.0298
33770SOL    HW113289   0.334   9.129   9.452 -1.2319 -2.3573 -2.1252
33770SOL    HW213290   0.231   9.210   9.377  1.4868  1.5622 -1.9462
33771SOL     OW13291   9.248  13.319  10.322 -0.0150 -0.3549 -0.3495
33771SOL    HW113292   9.317  13.255  10.342  0.4378  0.1554 -0.2624
33771SOL    HW213293   9.287  13.376  10.255 -0.4556 -0.2351 -0.5092
33772SOL     OW13294   9.474   7.946   7.851 -0.9001  0.2040 -0.0544
33772SOL    HW113295   9.432   7.863   7.831 -0.6612  0.1732 -0.4409
33772SOL    HW213296   9.556   7.944   7.803 -1.0503  0.8086 -0.3507
33773SOL     OW13297   5.023   2.283   4.039 -0.2086  0.6519  0.8037
33773SOL    HW113298   5.019   2.188   4.046 -1.0616  0.6515  0.4326
33773SOL    HW213299   4.934   2.310   4.018  0.4098  1.3353 -1.2427
33774SOL     OW13300   1.139  10.828   2.441 -0.1126  0.9291  0.2626
33774SOL    HW113301   1.147  10.894   2.509 -1.0996  0.7974  0.5244
33774SOL    HW213302   1.158  10.874   2.360  1.6738  0.9588  0.6462
33775SOL     OW13303   7.588   2.518  11.878 -0.0893 -0.4885  0.5203
33775SOL    HW113304   7.565   2.450  11.941 -0.5068 -0.0388  0.8583
33775SOL    HW213305   7.577   2.476  11.793  0.9558 -1.2507  0.7383
33776SOL     OW13306   1.297  11.012   1.469 -0.1835  0.1873  0.3967
33776SOL    HW113307   1.238  10.940   1.492 -0.1298  0.1563  0.4401
33776SOL    HW213308   1.291  11.019   1.374 -2.1393  1.7964  0.5659
33777SOL     OW13309   0.122   4.618  11.512  0.4235 -0.4792 -0.0529
33777SOL    HW113310   0.123   4.681  11.584 -0.0367  0.0061 -0.4654
33777SOL    HW213311   0.183   4.549  11.540  1.5102  0.4983  0.0852
33778SOL     OW13312   2.586  13.312   9.360  0.1696 -0.5432  0.1507
33778SOL    HW113313   2.639  13.254   9.414  1.1424 -0.5888 -0.8214
33778SOL    HW213314   2.550  13.376   9.422 -0.6539 -1.9442  1.1907
33779SOL     OW13315  12.031   1.649   9.722  0.1527  0.0265  0.5251
33779SOL    HW113316  12.022   1.709   9.795 -0.8558 -0.3771  0.7528
33779SOL    HW213317  11.958   1.588   9.732  1.2479 -1.3589  0.4148
33780SOL     OW13318  13.181  11.714   0.223  0.4139 -0.8379 -0.0658
33780SOL    HW113319  13.172  11.800   0.182  0.9893 -0.2840  0.9255
33780SOL    HW213320  13.148  11.652   0.158  0.3250  0.1028 -0.9294
33781SOL     OW13321  13.943   2.834   3.805 -0.0642  0.0517  0.0771
33781SOL    HW113322  13.905   2.805   3.722  0.1531  0.6154 -0.2343
33781SOL    HW213323  13.983   2.919   3.783 -0.1498  0.2808  0.7999
33782SOL     OW13324   1.383   3.903   2.636  0.0468  0.2838  0.2459
33782SOL    HW113325   1.405   3.813   2.659 -0.1018  0.2026  0.0771
33782SOL    HW213326   1.289   3.900   2.617 -0.1765  0.6794  1.2331
33783SOL     OW13327   7.098   6.538   0.968 -0.2206  0.1434  0.2815
33783SOL    HW113328   7.009   6.539   0.934  0.7018 -0.1610 -2.3317
33783SOL    HW213329   7.131   6.451   0.945  0.9444  0.4531  0.7141
33784SOL     OW13330   7.157  11.371   5.423 -0.3159  0.1521  0.0494
33784SOL    HW113331   7.157  11.279   5.398  0.1480  0.4193 -0.9480
33784SOL    HW213332   7.243  11.384   5.464 -0.0097  0.3624 -0.6531
33785SOL     OW13333   3.838   2.795   4.848 -0.0807  0.0876  0.1967
33785SOL    HW113334   3.923   2.808   4.892 -0.1161  0.0353  0.2814
33785SOL    HW213335   3.776   2.782   4.920 -0.2204  0.4651  0.1491
33786SOL     OW13336  11.138  12.460   4.580 -0.0769  0.5629  0.0549
33786SOL    HW113337  11.124  12.515   4.657 -2.0036 -0.2229  0.3298
33786SOL    HW213338  11.074  12.390   4.589 -0.4319  0.5033 -2.3210
33787SOL     OW13339   4.140  11.423   2.486  0.0047 -0.2392 -0.0054
33787SOL    HW113340   4.110  11.379   2.406 -0.5668  0.4388 -0.1763
33787SOL    HW213341   4.109  11.367   2.557 -1.3064  0.2045 -0.1975
33788SOL     OW13342   8.514   9.918   3.809 -0.2171 -0.2017  0.0173
33788SOL    HW113343   8.542   9.954   3.893 -1.0083 -0.9908  0.6362
33788SOL    HW213344   8.522   9.991   3.748 -1.7713  1.0534  1.2143
33789SOL     OW13345   8.734   0.472  11.440 -0.1437  0.1859 -0.1608
33789SOL    HW113346   8.700   0.548  11.487  1.5129 -0.4209  2.2121
33789SOL    HW213347   8.804   0.439  11.495 -0.1060 -2.4818 -1.6156
33790SOL     OW13348  14.040  11.517  11.817  0.3886  0.6524  0.6553
33790SOL    HW113349  14.102  11.553  11.754  1.3855  0.8317  1.6935
33790SOL    HW213350  13.976  11.587  11.830 -0.2097  0.3731 -0.6089
33791SOL     OW13351   1.382   7.956   1.520  0.2074 -0.3254  0.4820
33791SOL    HW113352   1.449   8.009   1.563 -1.3067  0.4888  2.0029
33791SOL    HW213353   1.380   7.875   1.572  0.3694 -0.5683  0.1115
33792SOL     OW13354  12.614  13.720   7.045 -0.0827  0.5412  0.3778
33792SOL    HW113355  12.627  13.776   7.121 -1.2678  1.2260  0.1098
33792SOL    HW213356  12.621  13.631   7.078  0.8187  0.8270  1.0042
33793SOL     OW13357  12.249  10.249   4.043 -0.2882 -0.0529  0.2693
33793SOL    HW113358  12.218  10.286   4.126  0.2233 -0.3537  0.6007
33793SOL    HW213359  12.344  10.255   4.048 -0.2189 -0.9310  0.1061
33794SOL     OW13360   3.474   0.536  13.481  0.8452 -0.1272  0.5396
33794SOL    HW113361   3.396   0.573  13.439  0.9333 -1.7425 -1.1843
33794SOL    HW213362   3.440   0.490  13.558  0.0111 -0.9979 -0.3098
33795SOL     OW13363   3.697  10.739  12.461 -0.3134 -0.4370 -0.5586
33795SOL    HW113364   3.767  10.787  12.504 -0.8544 -1.0658  1.0940
33795SOL    HW213365   3.624  10.801  12.457 -0.6690 -0.7526  0.6179
33796SOL     OW13366   1.739  12.426   6.294 -0.0385  0.0703  0.5065
33796SOL    HW113367   1.782  12.375   6.225 -1.2292 -0.5977  0.2302
33796SOL    HW213368   1.811  12.471   6.339  0.9131 -0.8159 -0.0878
33797SOL     OW13369   2.702  10.391   1.377 -0.2213 -0.4255  0.6525
33797SOL    HW113370   2.664  10.308   1.406 -0.5503 -0.2075  0.8557
33797SOL    HW213371   2.628  10.438   1.338  0.1149 -0.5108 -0.0944
33798SOL     OW13372   0.435   4.574   6.717 -0.5529  0.6534  0.1286
33798SOL    HW113373   0.361   4.514   6.721 -1.1904  1.3041 -1.4279
33798SOL    HW213374   0.432   4.621   6.800 -1.1358 -0.1718  0.5894
33799SOL     OW13375   5.561   5.108   7.550  0.4462  0.2610  0.5212
33799SOL    HW113376   5.626   5.053   7.592  1.6273  1.4715  0.3600
33799SOL    HW213377   5.588   5.112   7.458 -0.3876  0.0515  0.2550
33800SOL     OW13378   5.156   3.649   7.363 -0.1136 -0.3645 -0.4728
33800SOL    HW113379   5.191   3.585   7.425 -1.4902  1.0887  1.9732
33800SOL    HW213380   5.228   3.711   7.350  0.3122 -0.8840 -0.5930
33801SOL     OW13381   3.344   1.693   5.275 -0.1617 -0.2201 -0.2126
33801SOL    HW113382   3.272   1.756   5.271 -0.0662 -0.1001 -0.0501
33801SOL    HW213383   3.349   1.658   5.187  0.7279  1.0550 -0.7002
33802SOL     OW13384  12.977   9.247   2.409 -0.4020 -0.1288 -0.5683
33802SOL    HW113385  13.015   9.334   2.423  1.2980 -0.9580  0.2536
33802SOL    HW213386  12.982   9.205   2.494 -2.9821 -0.4082 -0.4890
33803SOL     OW13387   4.724  11.704   6.678 -0.2634 -0.0852  0.3679
33803SOL    HW113388   4.714  11.653   6.598  1.8128 -1.1389  0.7057
33803SOL    HW213389   4.724  11.795   6.649 -1.0991 -0.3694 -0.5996
33804SOL     OW13390   9.230   9.664   4.775 -0.0809 -0.0574  0.3885
33804SOL    HW113391   9.236   9.759   4.782 -1.1210  0.1394 -0.9236
33804SOL    HW213392   9.265   9.644   4.687 -1.4646 -0.6931 -0.0396
33805SOL     OW13393  13.024   0.922  11.096 -0.5315  0.2419  0.2424
33805SOL    HW113394  13.105   0.899  11.141 -0.1644 -0.4182 -0.7200
33805SOL    HW213395  13.032   1.015  11.077 -0.5093  0.4322  1.1559
33806SOL     OW13396  13.500   5.430   0.142  0.4135 -0.4249 -0.3108
33806SOL    HW113397  13.458   5.465   0.221  1.6312 -0.4494  0.3735
33806SOL    HW213398  13.505   5.505   0.083  0.9440  0.0027  0.2623
33807SOL     OW13399   4.489   6.046  13.266  0.7392 -0.2531  0.3276
33807SOL    HW113400   4.546   5.976  13.299  3.2153  0.6209 -1.7699
33807SOL    HW213401   4.503   6.119  13.326 -0.6448 -0.9976  1.6129
33808SOL     OW13402   1.203   1.577   2.451 -0.1966 -0.4656 -0.1781
33808SOL    HW113403   1.176   1.583   2.359 -1.1442 -0.8630  0.0636
33808SOL    HW213404   1.129   1.537   2.495 -0.3276  1.0267  1.0287
33809SOL     OW13405   9.176   9.992   5.156 -0.1608 -0.1732  0.1639
33809SOL    HW113406   9.261   9.957   5.131 -0.3947 -0.6843  0.0667
33809SOL    HW213407   9.195  10.079   5.191  0.7269 -1.2176  2.5459
33810SOL     OW13408   6.530   6.367  13.519 -0.3281  0.4877  0.1257
33810SOL    HW113409   6.557   6.281  13.486  1.5784  0.3723  1.8114
33810SOL    HW213410   6.443   6.352  13.556  0.1644 -0.8677  0.8298
33811SOL     OW13411   3.244   1.770   6.074  0.3470 -0.2629 -0.1551
33811SOL    HW113412   3.301   1.804   6.005  1.0285  0.9544  0.9769
33811SOL    HW213413   3.301   1.756   6.149 -0.6308 -0.2278  0.6179
33812SOL     OW13414  13.634   5.858   8.001 -0.1676 -0.1293  0.4894
33812SOL    HW113415  13.579   5.791   7.960 -0.6548  0.3490  0.3348
33812SOL    HW213416  13.703   5.875   7.937 -0.4112 -0.0327  0.2464
33813SOL     OW13417   3.913   5.025   4.200  0.4629  0.7993 -0.4357
33813SOL    HW113418   3.905   5.078   4.120 -0.1351  0.6638 -0.4745
33813SOL    HW213419   3.927   4.936   4.168  1.0862  0.8710 -0.3741
33814SOL     OW13420  11.430   4.331   0.811  0.9953 -0.0712 -0.4836
33814SOL    HW113421  11.404   4.418   0.842  2.7382  0.8720 -1.5266
33814SOL    HW213422  11.349   4.291   0.780 -0.2836  0.1671  2.2606
33815SOL     OW13423   1.504   8.970   4.934 -0.9214  0.1262  0.4280
33815SOL    HW113424   1.492   9.022   4.855  0.9527  0.1923  0.1260
33815SOL    HW213425   1.426   8.987   4.987 -2.4518 -0.2999 -1.5746
33816SOL     OW13426   0.603  11.265  12.899 -0.1149  0.2667  0.2074
33816SOL    HW113427   0.691  11.239  12.928  0.5298  0.0940 -1.7198
33816SOL    HW213428   0.553  11.184  12.900  0.7107 -0.3262 -1.7817
33817SOL     OW13429   0.258   4.950  10.636  1.3237 -0.4871 -0.5479
33817SOL    HW113430   0.254   4.918  10.725 -1.2570  1.9196  0.3691
33817SOL    HW213431   0.298   5.037  10.643  0.5581 -0.0172 -1.6260
33818SOL     OW13432   3.787   6.178   1.078  0.4927 -0.5986 -0.1223
33818SOL    HW113433   3.774   6.247   1.143 -1.3639  0.6847 -1.7322
33818SOL    HW213434   3.828   6.221   1.004  1.7049 -1.8295 -0.2035
33819SOL     OW13435   8.867  12.133   1.243 -0.6436  0.2082  0.0239
33819SOL    HW113436   8.903  12.063   1.188  1.2731  0.5683  0.7153
33819SOL    HW213437   8.927  12.207   1.229 -1.3870  1.0051  0.9179
33820SOL     OW13438   1.716   8.740  13.742 -0.3308  0.3173  0.0256
33820SOL    HW113439   1.631   8.701  13.763 -0.0660  0.4212  1.4171
33820SOL    HW213440   1.769   8.667  13.711 -1.2470  0.4481 -2.0656
33821SOL     OW13441   0.282   8.770  13.557  0.3921  0.0749  0.3727
33821SOL    HW113442   0.293   8.845  13.499  1.2811  0.1202  0.5880
33821SOL    HW213443   0.245   8.701  13.502 -0.1473  0.5777  0.1037
33822SOL     OW13444   2.965   5.747   6.529 -0.3606  0.0116 -0.7965
33822SOL    HW113445   2.937   5.821   6.582  0.6679  0.1033 -0.3537
33822SOL    HW213446   3.011   5.689   6.590  0.4595 -0.0965 -1.4790
33823SOL     OW13447   6.197   8.303   3.744  0.2051  0.1332 -0.3072
33823SOL    HW113448   6.253   8.308   3.667  0.1468  2.3936 -0.2821
33823SOL    HW213449   6.255   8.271   3.813  0.7111 -0.2490 -0.8960
33824SOL     OW13450   7.556   3.302   6.898 -0.4453  0.4437  0.3853
33824SOL    HW113451   7.494   3.235   6.869 -0.5385  0.9281 -0.6035
33824SOL    HW213452   7.502   3.368   6.942 -0.5670  0.5787  0.0435
33825SOL     OW13453  12.773  13.605   9.445  0.0373 -0.1145  0.1440
33825SOL    HW113454  12.745  13.689   9.410  2.8590  0.1470 -1.7735
33825SOL    HW213455  12.797  13.623   9.536 -1.9431  0.4937  0.5797
33826SOL     OW13456   5.028   1.893   0.924  0.1696 -0.3046  0.4696
33826SOL    HW113457   5.090   1.966   0.915 -0.6357  0.2079 -1.4236
33826SOL    HW213458   5.065   1.823   0.870 -0.6452 -0.1321 -0.3513
33827SOL     OW13459   7.307   0.109  10.972  0.3301 -0.8330 -0.3431
33827SOL    HW113460   7.350   0.035  10.930  0.5496 -0.1805 -1.2946
33827SOL    HW213461   7.262   0.154  10.901  0.0155 -0.1733  0.2611
33828SOL     OW13462  12.605   4.976   6.921  0.4778 -0.1393 -0.6304
33828SOL    HW113463  12.535   5.001   6.982  0.5685 -0.2643 -0.4755
33828SOL    HW213464  12.598   4.881   6.914  0.9436 -0.2053 -0.2363
33829SOL     OW13465   9.277   6.530   6.435 -0.1948 -0.2003 -0.5785
33829SOL    HW113466   9.314   6.613   6.467 -0.3663 -0.6679  0.9064
33829SOL    HW213467   9.258   6.547   6.343 -0.5498  1.5333 -0.2283
33830SOL     OW13468   2.386   1.698   0.567  0.3459  0.4702 -0.5845
33830SOL    HW113469   2.450   1.627   0.561 -0.5866 -0.5980  1.3157
33830SOL    HW213470   2.377   1.715   0.660 -1.8418  0.8717 -0.8234
33831SOL     OW13471   7.387   2.433   5.657  0.3290  0.2225 -0.0584
33831SOL    HW113472   7.319   2.430   5.724 -0.7348 -0.7222 -1.1482
33831SOL    HW213473   7.364   2.363   5.596  0.7458  1.6341 -1.9128
33832SOL     OW13474   6.344   8.077  11.689 -0.1566  0.0229 -0.4537
33832SOL    HW113475   6.421   8.088  11.634  0.3329  0.8869  0.3760
33832SOL    HW213476   6.282   8.030  11.634  0.1645  1.1989 -1.8823
33833SOL     OW13477  12.573   3.899  10.576 -0.1820 -0.2524 -0.3508
33833SOL    HW113478  12.593   3.932  10.664  1.5283 -2.3940  0.1481
33833SOL    HW213479  12.549   3.808  10.589  0.2617 -0.6617 -2.1109
33834SOL     OW13480   6.672  11.889   4.011  0.3194  0.4485 -0.6703
33834SOL    HW113481   6.592  11.936   3.989  1.6920  3.1775 -0.3738
33834SOL    HW213482   6.685  11.906   4.104  1.3525  0.2584 -0.7681
33835SOL     OW13483  11.685   0.101  11.202 -0.4699 -0.0772  0.0654
33835SOL    HW113484  11.663   0.019  11.158  1.9622 -1.1845  0.7453
33835SOL    HW213485  11.780   0.109  11.192 -0.2869  1.2929  2.2804
33836SOL     OW13486   9.223  10.608  11.399  0.7285  0.7756 -0.7617
33836SOL    HW113487   9.254  10.517  11.403  0.8867  0.6712 -2.8995
33836SOL    HW213488   9.251  10.647  11.482  0.6246 -1.1227  0.2200
33837SOL     OW13489  10.056   4.193   8.030 -0.4857  0.5832  0.5339
33837SOL    HW113490   9.977   4.163   8.076 -0.0861  1.0058  1.5075
33837SOL    HW213491  10.060   4.287   8.047  0.9246  0.3682  1.6174
33838SOL     OW13492  11.685   9.857   1.613  0.1135 -0.1579  0.2679
33838SOL    HW113493  11.602   9.812   1.606  0.1159  0.0921 -2.3837
33838SOL    HW213494  11.712   9.872   1.522  3.2657 -0.6167  1.0207
33839SOL     OW13495  10.465   3.794   2.823 -0.0891  0.3048  0.6055
33839SOL    HW113496  10.484   3.768   2.733 -0.3510 -0.8632  0.8690
33839SOL    HW213497  10.502   3.882   2.831  1.0692 -0.0805 -0.2614
33840SOL     OW13498  11.197   3.247   3.690  0.0095 -0.2050  0.8142
33840SOL    HW113499  11.230   3.214   3.774  0.1351 -0.2852  0.7347
33840SOL    HW213500  11.246   3.197   3.625  0.6648  0.5793  0.6915
33841SOL     OW13501   9.064   8.935   8.959  0.1361 -0.0463  0.3669
33841SOL    HW113502   9.088   8.894   8.877  1.5032  0.0328  0.7050
33841SOL    HW213503   9.004   8.874   9.001  1.5346 -1.3729  0.5173
33842SOL     OW13504  12.053  12.648   2.343 -0.1356  0.5069 -0.3245
33842SOL    HW113505  12.015  12.560   2.348  0.7756  0.0788 -0.7659
33842SOL    HW213506  12.124  12.640   2.280 -0.9386  1.8919 -1.4831
33843SOL     OW13507   3.221   3.922  13.511 -0.1196  0.1701  0.2084
33843SOL    HW113508   3.279   3.996  13.494  1.1569 -0.8221  0.0892
33843SOL    HW213509   3.270   3.845  13.481 -1.0929 -0.8023  1.0126
33844SOL     OW13510   3.911   3.805  10.306 -0.1606 -0.1007 -0.3824
33844SOL    HW113511   3.854   3.881  10.304  1.0707  1.0079  2.3272
33844SOL    HW213512   3.855   3.732  10.279 -2.1377  1.3218 -0.3081
33845SOL     OW13513   9.311   2.747   7.383 -0.5430  0.5778  0.2310
33845SOL    HW113514   9.256   2.719   7.457 -1.9281 -0.0089 -0.9705
33845SOL    HW213515   9.253   2.742   7.307  1.1882 -0.1046 -1.1137
33846SOL     OW13516  10.558  10.067  11.369 -0.0795 -0.1515 -0.2369
33846SOL    HW113517  10.645  10.105  11.368  0.6768 -1.6888  1.4477
33846SOL    HW213518  10.521  10.088  11.283  2.3089 -0.2609 -1.3590
33847SOL     OW13519   9.746   4.780  13.208 -0.1239  0.3119 -0.2108
33847SOL    HW113520   9.707   4.868  13.205  0.8129  0.7918  0.9379
33847SOL    HW213521   9.674   4.721  13.188 -1.0251  1.2833  0.0739
33848SOL     OW13522   8.684   5.770  10.379  0.1200  0.6475  0.0487
33848SOL    HW113523   8.711   5.813  10.460 -1.3653 -1.2482  1.6566
33848SOL    HW213524   8.597   5.806  10.361 -0.0556  0.2085 -0.0034
33849SOL     OW13525  12.595   7.282   4.780 -0.0726 -0.5788  0.1849
33849SOL    HW113526  12.670   7.338   4.758 -0.3953  0.4701  1.5995
33849SOL    HW213527  12.529   7.303   4.714  0.7478 -1.2945 -0.8947
33850SOL     OW13528  13.493   7.006   7.844  0.0385  0.1856 -0.1404
33850SOL    HW113529  13.468   6.964   7.762  0.6711  0.7447 -0.6350
33850SOL    HW213530  13.589   6.998   7.846 -0.1152 -2.6572  2.0859
33851SOL     OW13531   0.588  10.577   9.985 -0.1362 -0.2449  0.0330
33851SOL    HW113532   0.571  10.498   9.934 -1.4034 -0.1731  0.3292
33851SOL    HW213533   0.591  10.648   9.921 -0.8202 -0.2820 -0.0433
33852SOL     OW13534  10.750   9.539  13.143 -0.3821  0.1838 -0.2612
33852SOL    HW113535  10.756   9.606  13.211  0.4884  0.4089 -0.5415
33852SOL    HW213536  10.821   9.478  13.163 -1.7111 -1.1626  0.5090
33853SOL     OW13537   6.457   0.595   1.055  0.1984  0.5857 -0.6015
33853SOL    HW113538   6.475   0.556   0.970 -1.1319 -1.6146  0.0511
33853SOL    HW213539   6.411   0.526   1.104  1.8230  1.3633  2.2664
33854SOL     OW13540   3.492   9.716   1.426  0.1294  0.1067 -0.5282
33854SOL    HW113541   3.508   9.777   1.354 -1.0186 -1.8150 -2.5290
33854SOL    HW213542   3.578   9.701   1.465  1.1857 -0.4292 -2.9202
33855SOL     OW13543  11.577   6.320  11.208  0.3914 -0.1782 -0.5802
33855SOL    HW113544  11.607   6.232  11.184  1.9430  0.7551 -2.3741
33855SOL    HW213545  11.516   6.344  11.138 -0.5877 -0.0718  0.2897
33856SOL     OW13546   9.632   9.750  13.345 -0.3019 -0.3316  0.2274
33856SOL    HW113547   9.619   9.656  13.336  0.4523 -0.6345  1.9119
33856SOL    HW213548   9.705   9.758  13.406  0.2748  1.3483 -0.6254
33857SOL     OW13549   8.657   6.436   2.424 -0.6607  0.2397  0.0681
33857SOL    HW113550   8.675   6.343   2.408 -0.9672 -0.1060  1.6361
33857SOL    HW213551   8.621   6.467   2.341 -1.3087 -1.2401 -0.2383
33858SOL     OW13552   7.774   4.766   0.804 -0.0488 -0.3953  0.6756
33858SOL    HW113553   7.749   4.806   0.720  0.4418  2.0714  1.6193
33858SOL    HW213554   7.832   4.694   0.779 -0.5885 -0.2673 -1.1285
33859SOL     OW13555  13.645   3.751  13.812  0.0951 -0.1496  0.1143
33859SOL    HW113556  13.659   3.777  13.903 -0.1089  2.1119 -0.4339
33859SOL    HW213557  13.588   3.674  13.817 -0.9789  0.6954  1.8783
33860SOL     OW13558  11.604  12.776   6.321  0.0961  0.5929  0.2152
33860SOL    HW113559  11.510  12.763   6.336 -0.0811  2.5210  1.0622
33860SOL    HW213560  11.625  12.719   6.247 -1.3745 -1.1220  1.0563
33861SOL     OW13561   7.813   3.028   8.833  0.1332  0.2693  0.5499
33861SOL    HW113562   7.825   3.018   8.738  0.9783  1.3119  0.5246
33861SOL    HW213563   7.729   2.985   8.851  0.9106 -1.7234 -0.3236
33862SOL     OW13564  13.210   4.491   1.493  0.0465 -0.2811 -0.1606
33862SOL    HW113565  13.267   4.568   1.485  0.8217 -0.7485  0.6753
33862SOL    HW213566  13.175   4.478   1.405  2.7891 -1.1416 -1.2344
33863SOL     OW13567   8.853   9.932  12.584  0.5406 -0.3065 -0.2542
33863SOL    HW113568   8.882   9.907  12.672 -1.9750  1.4637  1.2351
33863SOL    HW213569   8.915   9.999  12.556 -0.0304  0.9558  1.3475
33864SOL     OW13570  10.059   2.339   1.607  0.9875  0.0930 -0.8177
33864SOL    HW113571  10.116   2.416   1.605 -0.8380  1.5259 -0.4615
33864SOL    HW213572   9.974   2.371   1.577  0.1089 -1.7421 -0.4277
33865SOL     OW13573  13.836  11.647   1.562 -0.3080  0.0067  0.3278
33865SOL    HW113574  13.766  11.627   1.624 -0.7914 -0.7464 -0.4387
33865SOL    HW213575  13.861  11.562   1.526 -0.8386  0.5431 -1.3676
33866SOL     OW13576  10.326   6.012   5.366 -0.4922 -0.2151 -0.2861
33866SOL    HW113577  10.375   5.942   5.410  0.6730 -0.5097 -1.9432
33866SOL    HW213578  10.334   6.088   5.424  1.4266 -0.4428 -0.2018
33867SOL     OW13579  10.673   9.930   3.360 -0.1446  0.5802 -0.4211
33867SOL    HW113580  10.744   9.962   3.417 -0.4985 -0.8308  0.9006
33867SOL    HW213581  10.701   9.953   3.272  1.5818  0.8034  0.1354
33868SOL     OW13582  12.536   8.707   4.541 -0.1200  0.0494  0.2245
33868SOL    HW113583  12.554   8.745   4.455  3.5337 -0.2664  0.6668
33868SOL    HW213584  12.530   8.613   4.524  1.8221 -0.1415  0.3683
33869SOL     OW13585   5.436   3.709  12.412  0.5716  0.1009  0.4700
33869SOL    HW113586   5.394   3.698  12.327 -1.2988  3.4896  0.8067
33869SOL    HW213587   5.528   3.687  12.396 -0.1017 -1.4221 -1.8361
33870SOL     OW13588   4.357   6.227   9.933  0.4695 -0.0050  0.5342
33870SOL    HW113589   4.432   6.200   9.986 -0.3312 -2.2196  0.6429
33870SOL    HW213590   4.291   6.254   9.996  0.9352  1.4353  0.4540
33871SOL     OW13591   6.206   6.838   5.468  0.0243  0.0594 -0.1009
33871SOL    HW113592   6.258   6.759   5.455 -1.1339 -0.6471 -0.5580
33871SOL    HW213593   6.197   6.876   5.381 -0.4843  0.0027 -0.0766
33872SOL     OW13594   9.049   2.614  11.212  0.0084 -0.2445  0.1415
33872SOL    HW113595   9.130   2.622  11.262  0.3234 -1.5145 -0.1320
33872SOL    HW213596   9.011   2.702  11.214  0.5071 -0.0364  1.7566
33873SOL     OW13597  12.418  11.887   2.992  0.2609  0.1884 -0.3268
33873SOL    HW113598  12.456  11.800   3.004 -0.3317  0.0081  0.3092
33873SOL    HW213599  12.394  11.915   3.080  0.1845  0.8787 -0.5613
33874SOL     OW13600   7.126   9.085  13.988  0.2164  0.2844 -0.2780
33874SOL    HW113601   7.045   9.039  14.011 -1.4468  3.5773  1.1125
33874SOL    HW213602   7.162   9.035  13.915 -2.3467 -2.1010 -0.0521
33875SOL     OW13603  10.644  10.425   8.601  0.0972  0.5308 -0.3083
33875SOL    HW113604  10.587  10.348   8.607 -0.3399  0.8815  0.1845
33875SOL    HW213605  10.726  10.392   8.565 -0.1590 -0.1284 -0.2983
33876SOL     OW13606   3.555   3.446   3.491 -0.5183 -0.2079 -0.5886
33876SOL    HW113607   3.465   3.415   3.486 -0.6064 -0.0276 -0.1173
33876SOL    HW213608   3.606   3.367   3.508 -0.7841 -0.0665  1.0059
33877SOL     OW13609  13.044   0.112   9.078 -0.5389 -0.2758 -0.0436
33877SOL    HW113610  13.069   0.166   9.003  0.0353 -1.8931 -1.0551
33877SOL    HW213611  12.954   0.138   9.097 -0.2587  1.0832 -0.4378
33878SOL     OW13612   2.039   7.710   4.545  0.1148  0.1761 -0.5604
33878SOL    HW113613   2.010   7.625   4.512 -0.5135 -0.0356  0.5150
33878SOL    HW213614   2.122   7.691   4.589 -0.1922  0.0490 -0.0259
33879SOL     OW13615  13.255  11.718  11.043 -0.3745  0.1127 -0.3853
33879SOL    HW113616  13.341  11.705  11.002  1.0121  2.6768  1.3983
33879SOL    HW213617  13.253  11.655  11.114  0.0712  0.0607 -0.4120
33880SOL     OW13618   5.171   6.256   1.263  0.1657  0.0736 -0.5358
33880SOL    HW113619   5.160   6.260   1.168 -0.0663  0.1862 -0.5031
33880SOL    HW213620   5.085   6.276   1.298 -0.0223 -1.0832 -0.3177
33881SOL     OW13621   9.793   9.705   1.487  0.1812 -0.0040 -0.5229
33881SOL    HW113622   9.854   9.644   1.446  0.3386  1.6141 -2.9788
33881SOL    HW213623   9.712   9.695   1.437  0.5073  2.3613 -1.6687
33882SOL     OW13624  13.485   3.595  12.447 -0.2187 -0.4262  0.3457
33882SOL    HW113625  13.498   3.505  12.417  0.1334  0.0480 -1.0204
33882SOL    HW213626  13.530   3.648  12.381 -3.5520  0.9682 -1.0149
33883SOL     OW13627   7.535   8.380   6.099  0.3247 -0.3896  0.1224
33883SOL    HW113628   7.601   8.388   6.030 -0.2682 -0.1480 -0.4332
33883SOL    HW213629   7.496   8.293   6.084  0.8916 -0.7716  0.7988
33884SOL     OW13630   6.409   5.400   8.170 -0.1317 -0.2673  0.1837
33884SOL    HW113631   6.437   5.354   8.250  0.0085 -0.5549 -0.0311
33884SOL    HW213632   6.490   5.416   8.122 -0.0412  1.1893  0.7676
33885SOL     OW13633   3.423  13.200   2.501  0.8511  0.0237 -0.0296
33885SOL    HW113634   3.434  13.112   2.466  0.2714  0.1821 -0.6310
33885SOL    HW213635   3.346  13.235   2.456  0.4725  0.4745  0.9324
33886SOL     OW13636   5.893   6.146   1.351 -0.4741  0.2569 -0.5299
33886SOL    HW113637   5.966   6.200   1.323 -0.3865 -0.3762 -1.5835
33886SOL    HW213638   5.903   6.139   1.446  0.0814  1.2339 -0.5031
33887SOL     OW13639   1.990  13.411   3.630 -0.1927 -0.0598 -0.4389
33887SOL    HW113640   1.966  13.318   3.625  3.7724 -1.1803 -1.9784
33887SOL    HW213641   1.952  13.450   3.551 -0.3992 -0.7690 -0.6969
33888SOL     OW13642  12.479   7.456   1.485  0.5097 -0.2389 -0.0386
33888SOL    HW113643  12.455   7.414   1.568 -0.7342 -0.2137 -0.3736
33888SOL    HW213644  12.426   7.535   1.481  1.7762  0.6471 -0.1073
33889SOL     OW13645   5.727   0.248  10.253 -0.0586 -0.1211  0.4398
33889SOL    HW113646   5.725   0.189  10.327  3.0984  2.9063  3.2891
33889SOL    HW213647   5.806   0.224  10.205 -0.5317 -0.2349 -0.3001
33890SOL     OW13648   3.017   7.934   4.419  0.0561 -0.0596 -0.1979
33890SOL    HW113649   2.979   8.020   4.401  0.4315 -0.0603 -1.0450
33890SOL    HW213650   2.957   7.894   4.482 -0.4366  0.5866 -0.2439
33891SOL     OW13651   9.186   9.774   5.498 -0.1658 -0.6384 -0.4251
33891SOL    HW113652   9.137   9.743   5.421 -0.5542  0.7511 -0.7593
33891SOL    HW213653   9.121   9.775   5.568 -0.5005  0.6560 -0.7329
33892SOL     OW13654   2.409   8.665   9.731  0.7826  0.3830 -0.3436
33892SOL    HW113655   2.345   8.607   9.689  0.0638 -0.2286  1.5141
33892SOL    HW213656   2.381   8.753   9.707 -0.8223  0.1282  0.5116
33893SOL     OW13657   9.241   6.272   5.881  0.5495 -0.5244  0.5338
33893SOL    HW113658   9.256   6.192   5.830  1.1518  0.4279 -0.8323
33893SOL    HW213659   9.168   6.316   5.837  0.0207 -0.4474  1.4550
33894SOL     OW13660   1.897   5.645   4.591 -0.4861  0.1149  0.1397
33894SOL    HW113661   1.864   5.731   4.564  0.9007  0.8574  0.7078
33894SOL    HW213662   1.965   5.625   4.526  1.1133  0.7495  1.5517
33895SOL     OW13663  11.017   2.980   1.736 -0.9251 -0.9543 -0.1024
33895SOL    HW113664  10.960   3.054   1.757  0.5007  0.3688 -0.7231
33895SOL    HW213665  11.082   2.979   1.806  0.5294 -0.0202 -1.3721
33896SOL     OW13666  13.107  12.025  10.660 -0.1018 -0.2811 -0.3193
33896SOL    HW113667  13.080  11.952  10.715 -0.8245  0.4498  0.3350
33896SOL    HW213668  13.203  12.028  10.669 -0.1440 -0.6305  0.3046
33897SOL     OW13669  12.007   6.258  10.337 -0.3797  0.4570 -0.4196
33897SOL    HW113670  12.069   6.314  10.290  0.1350 -0.1137 -0.4396
33897SOL    HW213671  12.063   6.196  10.385 -0.9365 -0.4666 -0.9292
33898SOL     OW13672   9.795   0.167   3.379 -1.2569  0.1715 -0.2174
33898SOL    HW113673   9.856   0.164   3.305 -2.2597 -0.5343 -1.0455
33898SOL    HW213674   9.772   0.075   3.395  0.7929 -0.0088  2.5980
33899SOL     OW13675  10.640   7.613   0.606  0.0081 -0.1849 -0.5464
33899SOL    HW113676  10.691   7.535   0.586  0.5613  0.8604 -3.9722
33899SOL    HW213677  10.698   7.686   0.584 -1.4171  1.1275 -0.1478
33900SOL     OW13678   3.440   0.780   0.499 -0.0936 -0.1072  0.0131
33900SOL    HW113679   3.378   0.783   0.572  0.0593 -0.8407  0.1829
33900SOL    HW213680   3.408   0.710   0.442 -0.1051  0.3354 -0.5350
33901SOL     OW13681  11.911  13.498  11.674  0.2667  0.5358  0.0951
33901SOL    HW113682  11.935  13.426  11.732  1.4258 -0.2878 -1.3498
33901SOL    HW213683  11.994  13.541  11.653  0.0501  0.1548 -1.7584
33902SOL     OW13684  13.893   3.276   6.485  0.3456 -0.4466 -0.2438
33902SOL    HW113685  13.978   3.236   6.501 -0.1398 -1.5444 -0.3066
33902SOL    HW213686  13.859   3.295   6.573  0.3590 -0.6459 -0.1956
33903SOL     OW13687   8.047   3.755   9.967 -0.3975  0.3086 -0.3656
33903SOL    HW113688   7.982   3.825   9.958  1.0952  1.8671  0.4457
33903SOL    HW213689   7.995   3.675   9.964 -2.5893  1.5063  1.6151
33904SOL     OW13690  11.469   0.684   0.266 -0.0092  0.2239 -0.4664
33904SOL    HW113691  11.432   0.723   0.346  0.7616  1.5620 -0.7262
33904SOL    HW213692  11.443   0.744   0.196 -0.0664 -0.5564 -1.1217
33905SOL     OW13693   1.926   2.252   7.754 -0.2788 -0.2232 -0.4017
33905SOL    HW113694   1.837   2.286   7.740 -1.0059 -2.0068 -0.3613
33905SOL    HW213695   1.950   2.215   7.669  0.0048 -0.6757 -0.1207
33906SOL     OW13696  11.629   9.735   9.950 -0.7990 -0.5508 -0.0642
33906SOL    HW113697  11.646   9.796  10.023  1.8337 -1.1637 -0.0433
33906SOL    HW213698  11.616   9.650   9.993 -1.0729 -0.5963 -0.2370
33907SOL     OW13699   7.398   2.293   2.568 -0.0433  0.8293  0.5222
33907SOL    HW113700   7.446   2.315   2.648 -1.1066  0.4798  1.2747
33907SOL    HW213701   7.396   2.197   2.567 -0.2815  0.8347  0.2214
33908SOL     OW13702   8.850   2.873   4.757  0.4539 -0.0128 -0.2541
33908SOL    HW113703   8.941   2.887   4.782  0.7336  1.2670 -1.8631
33908SOL    HW213704   8.853   2.851   4.664 -0.7675 -1.7619  0.0588
33909SOL     OW13705   6.635   2.519   1.040  0.2831  0.4241  0.1051
33909SOL    HW113706   6.602   2.475   0.961 -0.7535  2.2507 -0.5496
33909SOL    HW213707   6.724   2.546   1.017  0.1766  0.4745 -0.2659
33910SOL     OW13708   6.374  12.381  12.314  0.1378  0.2337  0.3908
33910SOL    HW113709   6.355  12.323  12.240  0.9739  0.7204 -0.2138
33910SOL    HW213710   6.313  12.454  12.303 -1.2716 -0.7205  1.4327
33911SOL     OW13711   3.515  13.999   5.636 -0.8318 -0.3588  0.1708
33911SOL    HW113712   3.471  14.072   5.679 -1.8622 -0.9650  0.1716
33911SOL    HW213713   3.563  14.039   5.563 -0.0874  0.5145  1.1074
33912SOL     OW13714   8.008   3.624   3.127 -0.1481  0.0435 -0.8785
33912SOL    HW113715   8.003   3.718   3.140  1.8774  0.1560 -0.6929
33912SOL    HW213716   8.052   3.613   3.042  1.6381 -0.6965  0.0870
33913SOL     OW13717  10.253   2.785   2.635  0.0569 -0.2055  0.5306
33913SOL    HW113718  10.248   2.696   2.671 -2.4455 -1.2316 -1.9521
33913SOL    HW213719  10.162   2.813   2.627  0.5508  0.9784 -2.2309
33914SOL     OW13720   3.906   3.028  12.383  0.0376 -0.6608 -0.2791
33914SOL    HW113721   3.918   3.036  12.477  0.6555  0.7518 -0.4601
33914SOL    HW213722   3.993   3.045  12.346 -0.4393 -0.0132 -1.1487
33915SOL     OW13723   3.927  10.542   0.344 -0.3454 -0.2724 -0.3755
33915SOL    HW113724   3.887  10.549   0.431 -1.8699 -0.2184 -1.0509
33915SOL    HW213725   3.996  10.608   0.344 -0.1155 -0.4849  0.8911
33916SOL     OW13726   8.937   0.002  11.420  0.2448  0.0411 -0.2065
33916SOL    HW113727   8.913  -0.051  11.344  0.5737 -0.8088  0.2695
33916SOL    HW213728   8.911  -0.051  11.495 -1.0864  1.3340  0.2904
33917SOL     OW13729   7.041  11.665  10.257 -0.4983  0.4576  0.0558
33917SOL    HW113730   7.040  11.569  10.267  0.1882  0.2488 -1.5203
33917SOL    HW213731   6.987  11.681  10.180  1.8220  1.0276 -1.5595
33918SOL     OW13732   3.238   6.559   5.166  0.4710  0.8327  0.3165
33918SOL    HW113733   3.271   6.611   5.094 -0.5926  0.9705 -0.0843
33918SOL    HW213734   3.143   6.565   5.160 -0.1659 -4.9261 -2.7374
33919SOL     OW13735   0.652   1.429   2.071 -0.3058 -0.0433  0.0296
33919SOL    HW113736   0.744   1.407   2.055 -0.5203 -0.5924 -0.5376
33919SOL    HW213737   0.610   1.344   2.089 -0.8461  0.1017 -0.5046
33920SOL     OW13738   4.602   6.501   9.937  0.1343  0.0505 -0.3509
33920SOL    HW113739   4.538   6.440   9.899  1.2295 -2.2272  1.1925
33920SOL    HW213740   4.556   6.585   9.940 -2.8943 -1.4583  0.7835
33921SOL     OW13741   9.261   3.620   3.558 -0.3709  0.5552  0.5532
33921SOL    HW113742   9.274   3.533   3.596 -0.4740 -0.0713 -0.7683
33921SOL    HW213743   9.294   3.681   3.624  2.5308 -0.6075  0.3403
33922SOL     OW13744   2.690   5.865   6.461 -0.0513  0.2053 -0.2597
33922SOL    HW113745   2.773   5.818   6.448  0.4585  0.9426  0.2052
33922SOL    HW213746   2.649   5.819   6.534 -0.5231 -0.7654 -1.1108
33923SOL     OW13747  10.918  10.111   8.955  0.6577  0.3002  0.1671
33923SOL    HW113748  10.897  10.191   9.005 -1.6646  0.2748 -0.6272
33923SOL    HW213749  10.863  10.117   8.877  1.3912 -1.4872 -0.5375
33924SOL     OW13750   1.610   3.936   0.516 -0.9144  0.0659 -0.1444
33924SOL    HW113751   1.636   3.873   0.583 -0.5951 -0.5281 -0.8093
33924SOL    HW213752   1.514   3.941   0.524 -0.8861 -0.0848  0.2825
33925SOL     OW13753   4.982   8.538   3.617 -0.1050 -0.7147 -0.1542
33925SOL    HW113754   5.047   8.543   3.687  0.4443 -0.3004 -0.6848
33925SOL    HW213755   4.904   8.580   3.654  0.0790 -0.7702  0.3132
33926SOL     OW13756   5.074   1.273   8.995 -0.1436 -0.1585  0.1438
33926SOL    HW113757   5.029   1.193   8.968  0.5802 -0.6894  0.4620
33926SOL    HW213758   5.092   1.260   9.088  0.0479  0.3481  0.1840
33927SOL     OW13759   3.503   5.312  13.897 -0.1002  0.3031 -0.4278
33927SOL    HW113760   3.596   5.330  13.884  0.4082 -2.0267 -0.4491
33927SOL    HW213761   3.482   5.246  13.831 -0.8993 -1.5860  1.5969
33928SOL     OW13762   9.175   7.071   3.497  0.1452  0.0802  0.6203
33928SOL    HW113763   9.239   7.070   3.426 -1.4564  0.5393 -0.8779
33928SOL    HW213764   9.126   6.989   3.486 -0.0367  0.0893  1.3005
33929SOL     OW13765   7.123  11.011   8.659  0.1601  0.3129  0.0992
33929SOL    HW113766   7.144  11.012   8.752 -0.6572 -0.8985  0.3088
33929SOL    HW213767   7.160  11.094   8.626 -0.6880  1.3920  1.7228
33930SOL     OW13768   1.478  11.732  13.875 -0.3302 -0.4170 -0.2570
33930SOL    HW113769   1.433  11.649  13.858 -0.9460 -0.0553 -0.4050
33930SOL    HW213770   1.568  11.717  13.844 -0.2017 -1.2965  0.4769
33931SOL     OW13771   6.025   3.119  11.685  0.4094  0.2967 -0.1361
33931SOL    HW113772   6.088   3.071  11.631  0.1235 -0.4660  0.2009
33931SOL    HW213773   6.028   3.075  11.770  0.3422  1.0526  0.2659
33932SOL     OW13774  12.113   7.015  12.957  0.3209  0.7503 -0.3058
33932SOL    HW113775  12.113   6.992  13.050  1.6088 -1.5678 -0.8097
33932SOL    HW213776  12.134   7.109  12.956 -1.2610  1.2069  1.7474
33933SOL     OW13777   3.173   6.131   9.198 -0.3493 -0.2645  0.0823
33933SOL    HW113778   3.242   6.191   9.170 -1.5366  0.5499 -1.1914
33933SOL    HW213779   3.152   6.079   9.120  0.3629 -2.0898  1.0515
33934SOL     OW13780   3.311   6.469   0.558 -0.3625 -0.0656  0.6322
33934SOL    HW113781   3.404   6.455   0.572 -0.2672  1.6388  1.9396
33934SOL    HW213782   3.279   6.385   0.524  1.7349 -0.4904 -0.4610
33935SOL     OW13783   9.360   3.476   5.482  0.2564 -0.2012  0.6305
33935SOL    HW113784   9.403   3.558   5.506  1.2253 -0.6374  0.4254
33935SOL    HW213785   9.282   3.472   5.538  0.4693  0.6058  0.9956
33936SOL     OW13786   4.287  11.869  10.550  0.7271 -0.3961  0.3947
33936SOL    HW113787   4.319  11.787  10.513 -1.0098 -0.8251 -0.2273
33936SOL    HW213788   4.272  11.849  10.643 -1.8368 -1.5066 -0.1949
33937SOL     OW13789   3.227   4.734   1.578 -0.8232  0.1324 -0.2086
33937SOL    HW113790   3.225   4.745   1.673  1.8380 -0.4020 -0.0381
33937SOL    HW213791   3.259   4.645   1.565  0.6917  0.8468 -1.5987
33938SOL     OW13792   6.135   8.017  11.882 -0.0519  0.5919 -0.6416
33938SOL    HW113793   6.093   8.029  11.796 -0.7904  0.5312 -0.3011
33938SOL    HW213794   6.228   8.026  11.865 -0.0636 -0.8670 -1.7204
33939SOL     OW13795   1.383  11.858   2.516 -0.9879  0.5057  0.0552
33939SOL    HW113796   1.444  11.931   2.503 -0.2122 -0.4086 -1.7816
33939SOL    HW213797   1.301  11.888   2.478 -0.5568  0.3034 -1.0759
33940SOL     OW13798   3.279   7.316   3.668 -0.0725  0.5339 -0.2325
33940SOL    HW113799   3.360   7.328   3.617  2.4938 -0.4660  3.2450
33940SOL    HW213800   3.306   7.267   3.745 -4.3233 -0.9653  0.5832
33941SOL     OW13801   3.098   1.649  12.435 -0.5504 -0.4165  0.3650
33941SOL    HW113802   3.099   1.562  12.395  0.1663 -0.2266 -0.0467
33941SOL    HW213803   3.155   1.702  12.379  0.5184 -0.1503  1.6559
33942SOL     OW13804   2.188   9.886   4.359 -0.1230 -0.0954  0.0245
33942SOL    HW113805   2.150   9.821   4.300  2.4212 -0.4766 -1.3492
33942SOL    HW213806   2.275   9.903   4.323  0.0483  2.6691  1.4420
33943SOL     OW13807   4.531   9.612  10.857 -0.0267  0.0074  0.0665
33943SOL    HW113808   4.444   9.646  10.837  0.0126  0.4247  0.5961
33943SOL    HW213809   4.549   9.641  10.946 -0.1831 -1.7910  0.7301
33944SOL     OW13810   5.853   3.565   6.443  0.3972 -0.0872  0.4244
33944SOL    HW113811   5.894   3.615   6.513  1.1116  0.5288 -0.4013
33944SOL    HW213812   5.920   3.502   6.416 -0.1029 -0.7509  0.7258
33945SOL     OW13813   3.669   8.406  10.014 -0.1677  0.2958 -0.0171
33945SOL    HW113814   3.741   8.351   9.982 -0.1847 -0.8656  1.7517
33945SOL    HW213815   3.590   8.359   9.988 -0.3007  1.2569 -1.4255
33946SOL     OW13816   0.762   8.915   4.967 -0.1683 -0.2233  0.0186
33946SOL    HW113817   0.788   8.850   5.033 -1.1155  1.0841  1.7366
33946SOL    HW213818   0.838   8.921   4.909  0.7447 -1.3425  1.0316
33947SOL     OW13819   2.384  10.006   0.014 -0.1072 -0.3921  0.2533
33947SOL    HW113820   2.329  10.032  -0.059 -1.3061 -1.0081  0.9047
33947SOL    HW213821   2.389  10.083   0.071  1.7761  0.4733 -0.9771
33948SOL     OW13822   2.448  11.040   5.227 -0.0913  0.1661 -0.2064
33948SOL    HW113823   2.521  11.086   5.269 -0.0031 -0.6999  0.6227
33948SOL    HW213824   2.435  10.963   5.280 -1.7980  0.4281 -0.2004
33949SOL     OW13825   1.269   1.073  13.403  0.7369  0.2431  0.0776
33949SOL    HW113826   1.331   1.006  13.431  0.9383  0.6561  0.6343
33949SOL    HW213827   1.316   1.156  13.413 -0.8580  0.9461  3.7357
33950SOL     OW13828  12.189   6.489   8.368  0.3626  0.7433 -0.2482
33950SOL    HW113829  12.273   6.445   8.353  0.0648  0.3349 -0.7657
33950SOL    HW213830  12.213   6.576   8.401  1.0523  1.2931 -2.0747
33951SOL     OW13831  12.493   2.588   3.274  0.2528  0.1817 -0.0216
33951SOL    HW113832  12.443   2.509   3.293 -1.3618  0.8895 -1.1246
33951SOL    HW213833  12.583   2.565   3.296 -0.3644 -1.5279  0.9050
33952SOL     OW13834   8.040   3.389  11.760  0.1691  0.3641 -0.3054
33952SOL    HW113835   8.080   3.459  11.812 -0.2273  0.7730 -0.5465
33952SOL    HW213836   7.950   3.384  11.793  0.3472 -0.4111  0.0939
33953SOL     OW13837   2.634   1.078   8.563 -0.1600 -0.2632  0.2800
33953SOL    HW113838   2.561   1.140   8.567 -0.5502 -0.5123 -1.6111
33953SOL    HW213839   2.609   1.008   8.622 -3.0782 -1.8629 -2.4859
33954SOL     OW13840  10.479  11.293   1.417  0.0015 -0.2414 -0.0220
33954SOL    HW113841  10.476  11.198   1.421  1.1094 -0.3608 -1.3621
33954SOL    HW213842  10.560  11.317   1.463 -0.9056  0.1675  1.4296
33955SOL     OW13843   4.825   0.328   3.728  0.3306 -0.3302  0.2166
33955SOL    HW113844   4.760   0.295   3.790 -0.1044 -0.5281 -0.3341
33955SOL    HW213845   4.778   0.396   3.678  1.0675  0.7974  1.0045
33956SOL     OW13846  13.263   0.651  12.466 -0.2702 -0.0007  0.7768
33956SOL    HW113847  13.242   0.563  12.497 -2.2342 -0.2887 -1.1164
33956SOL    HW213848  13.349   0.642  12.425 -1.6810 -1.8764 -2.0929
33957SOL     OW13849   7.298   9.012  11.917  0.4964  0.1258 -0.4394
33957SOL    HW113850   7.388   8.980  11.911  0.7239  0.4054  1.1665
33957SOL    HW213851   7.296   9.088  11.860  0.8415 -0.7664 -1.6979
33958SOL     OW13852   2.527  11.852   8.843  0.4166 -0.1106  0.1640
33958SOL    HW113853   2.508  11.815   8.929 -0.2472 -0.5471 -0.1623
33958SOL    HW213854   2.526  11.776   8.784 -1.2148  0.4230 -0.5547
33959SOL     OW13855  10.005  12.769   9.176  0.3587 -0.4984 -0.3419
33959SOL    HW113856   9.934  12.822   9.212  0.4679 -0.2648 -0.4666
33959SOL    HW213857  10.053  12.829   9.119  0.6566 -0.6549 -0.2557
33960SOL     OW13858   9.566   1.557  10.116  0.1883 -0.9567  0.0699
33960SOL    HW113859   9.553   1.614  10.040 -2.1114 -3.1002 -1.3093
33960SOL    HW213860   9.517   1.599  10.187  0.4147 -0.0979 -0.2788
33961SOL     OW13861  12.238  10.974  10.287 -0.7234  0.3440  0.6798
33961SOL    HW113862  12.316  10.945  10.240 -1.6012 -2.0266  0.5810
33961SOL    HW213863  12.193  11.033  10.226 -0.6191 -0.8135 -0.5506
33962SOL     OW13864   5.403   0.272   3.946 -0.5155  0.3404  0.2151
33962SOL    HW113865   5.492   0.275   3.911 -0.0488  0.1125  1.3441
33962SOL    HW213866   5.352   0.228   3.879  0.2013  0.5592 -0.4838
33963SOL     OW13867   2.102   6.268   6.093 -0.0286  0.1704 -0.6470
33963SOL    HW113868   2.100   6.172   6.088  1.1538 -0.0852  1.9430
33963SOL    HW213869   2.067   6.287   6.180  2.9007  1.8260  0.2870
33964SOL     OW13870   2.327   0.389  11.215  0.6473  0.2480 -0.1630
33964SOL    HW113871   2.391   0.398  11.144 -0.2605 -1.3084 -1.2481
33964SOL    HW213872   2.294   0.300  11.207 -1.7473  1.0059  0.2587
33965SOL     OW13873   3.256  11.558  12.629  0.2719  0.4602  0.1541
33965SOL    HW113874   3.296  11.645  12.627  0.8271  0.2186 -2.1469
33965SOL    HW213875   3.238  11.538  12.537 -2.3992 -0.7263  0.8298
33966SOL     OW13876  10.520  10.858  11.500 -1.0043 -0.3165 -0.3936
33966SOL    HW113877  10.511  10.920  11.572 -0.8264 -0.8867  0.1307
33966SOL    HW213878  10.554  10.910  11.428 -1.0270  0.2296 -0.0189
33967SOL     OW13879   7.569   4.308   9.434  0.2911 -0.1021  0.4866
33967SOL    HW113880   7.496   4.288   9.375  0.7618 -0.8302  0.1432
33967SOL    HW213881   7.625   4.231   9.429  0.9258  0.3252  0.9966
33968SOL     OW13882   6.555   8.167   4.472 -0.7403 -0.4731  0.2519
33968SOL    HW113883   6.606   8.229   4.421 -1.1761 -0.9007 -0.7263
33968SOL    HW213884   6.543   8.091   4.415 -2.1056 -0.5552  0.5925
33969SOL     OW13885  11.005   3.706   9.481 -0.6966  0.1521  0.4302
33969SOL    HW113886  10.917   3.742   9.481 -0.4071  0.9650 -1.2358
33969SOL    HW213887  10.994   3.616   9.510 -2.0270  0.3247  0.5257
33970SOL     OW13888  11.568   5.579   7.403  0.1265  0.3081  0.2191
33970SOL    HW113889  11.521   5.520   7.462  1.3632 -0.1938  0.7305
33970SOL    HW213890  11.657   5.546   7.402  0.7663  1.9575  0.2035
33971SOL     OW13891   7.992   1.654   3.275  0.1113 -0.0932 -0.5594
33971SOL    HW113892   7.919   1.703   3.237 -0.3602  0.4182  0.9567
33971SOL    HW213893   8.066   1.673   3.217 -0.4404  1.1588 -0.8903
33972SOL     OW13894  11.143   2.025   1.908  0.4834  0.3027 -0.7240
33972SOL    HW113895  11.198   2.088   1.861  0.4540  1.1475  0.3471
33972SOL    HW213896  11.066   2.076   1.934 -0.2994 -0.5936 -1.2358
33973SOL     OW13897   1.535  10.821   8.566 -0.5895 -0.0838 -0.2341
33973SOL    HW113898   1.505  10.847   8.653  0.8973 -0.4436  0.4187
33973SOL    HW213899   1.559  10.904   8.524  2.1180 -0.0922  1.0697
33974SOL     OW13900   0.419  10.947  13.881 -0.5667 -0.1528 -0.0680
33974SOL    HW113901   0.440  10.950  13.975 -1.4238 -2.5271  0.2841
33974SOL    HW213902   0.356  11.018  13.868  1.6399  2.0074  0.5068
33975SOL     OW13903   7.345  13.701  12.748  0.4223 -0.2289 -0.0319
33975SOL    HW113904   7.373  13.773  12.804  0.0638 -0.0914 -0.0216
33975SOL    HW213905   7.380  13.724  12.661  0.9065 -0.4020  0.1169
33976SOL     OW13906   9.828   0.627  11.222  0.1740 -0.5903  0.3519
33976SOL    HW113907   9.905   0.664  11.267  0.1069 -1.6626  1.3800
33976SOL    HW213908   9.755   0.642  11.282 -0.6219  1.0993 -0.9341
33977SOL     OW13909  11.680  11.834   7.016 -0.5505  0.5085  0.0498
33977SOL    HW113910  11.757  11.878   6.980  0.0828 -1.1184 -0.6786
33977SOL    HW213911  11.655  11.888   7.091  1.2747  1.0966  0.2952
33978SOL     OW13912   4.211  12.648  12.498 -0.2334  0.2959  0.3308
33978SOL    HW113913   4.116  12.637  12.487 -0.1407 -1.1263  0.7354
33978SOL    HW213914   4.237  12.573  12.553  1.0569  0.9106  0.5840
33979SOL     OW13915   1.382   7.500   4.743 -0.0701 -0.1267  0.5805
33979SOL    HW113916   1.433   7.440   4.797  0.0888  0.3635  0.9852
33979SOL    HW213917   1.354   7.447   4.668 -2.5868 -1.5769  2.4280
33980SOL     OW13918   3.430  11.286  11.205 -0.0129  0.2232  1.1102
33980SOL    HW113919   3.512  11.312  11.247 -0.3205  0.5799  1.5015
33980SOL    HW213920   3.377  11.366  11.204 -0.8697 -0.3077  2.0797
33981SOL     OW13921   1.979   9.368  12.027 -0.4311  0.1219  0.3449
33981SOL    HW113922   1.965   9.293  12.085 -0.2304 -0.0555  0.1629
33981SOL    HW213923   2.065   9.401  12.052  0.5489 -1.1335 -1.1601
33982SOL     OW13924   8.159   2.473  11.679 -0.6448 -0.7383 -0.2245
33982SOL    HW113925   8.226   2.538  11.703 -1.0508 -1.1772  2.3726
33982SOL    HW213926   8.181   2.396  11.730 -2.9375 -1.0000  0.4750
33983SOL     OW13927  12.299  13.107   1.842  0.3144 -0.0870  0.5112
33983SOL    HW113928  12.374  13.066   1.884  1.1227 -1.1231 -1.7781
33983SOL    HW213929  12.227  13.045   1.856  0.0798  0.4696  1.9124
33984SOL     OW13930   4.534  10.821   8.023  0.3188 -0.1228 -0.0696
33984SOL    HW113931   4.528  10.802   7.930  0.4684 -2.3323  0.3186
33984SOL    HW213932   4.498  10.743   8.066  0.4406  0.7501  1.7292
33985SOL     OW13933   7.503   5.445   5.487  0.0881 -0.0772  0.0419
33985SOL    HW113934   7.471   5.358   5.464 -0.1381  0.4154 -1.6940
33985SOL    HW213935   7.597   5.442   5.466  0.6073 -0.5769  2.2007
33986SOL     OW13936   8.270   3.262   3.573  0.0027  0.3370  0.1758
33986SOL    HW113937   8.326   3.308   3.635  0.0307  0.2261  0.2323
33986SOL    HW213938   8.264   3.321   3.498  1.6391 -0.4019 -0.5891
33987SOL     OW13939   6.628   3.071   4.496 -0.8662  0.1913 -0.3848
33987SOL    HW113940   6.704   3.128   4.487  0.0614 -0.9920 -0.1882
33987SOL    HW213941   6.554   3.127   4.473  0.1554  1.0509 -1.7484
33988SOL     OW13942   9.623   3.473   0.919 -0.3353 -0.1033  0.0150
33988SOL    HW113943   9.695   3.530   0.947 -0.9901 -0.6577  3.2252
33988SOL    HW213944   9.667   3.398   0.879  0.8604 -0.0502  1.1596
33989SOL     OW13945   3.545   7.073   3.916 -0.8546  0.0685  0.2673
33989SOL    HW113946   3.503   6.991   3.943 -1.8860  0.6489  0.4973
33989SOL    HW213947   3.474   7.125   3.879 -0.2029  0.8440  0.0717
33990SOL     OW13948   1.397  10.463  11.430  0.1256  0.2446 -0.2197
33990SOL    HW113949   1.435  10.400  11.368 -0.1299  0.9930 -1.1622
33990SOL    HW213950   1.330  10.413  11.477  0.7842 -0.5156 -0.0528
33991SOL     OW13951   4.333  13.187   0.053 -0.2804  0.3944 -0.4405
33991SOL    HW113952   4.321  13.278   0.027  1.5888  0.8661  0.1735
33991SOL    HW213953   4.383  13.148  -0.019 -0.1496  0.1447 -0.2182
33992SOL     OW13954   2.626   7.975   2.155  0.7018  0.4044  0.1563
33992SOL    HW113955   2.604   8.067   2.140  0.9146  0.2563 -1.0989
33992SOL    HW213956   2.684   7.977   2.232 -1.4602  1.0400  1.8754
33993SOL     OW13957  12.118  13.501   6.124 -0.1105 -0.2982 -0.5981
33993SOL    HW113958  12.103  13.517   6.217  2.3993 -0.4132 -0.1149
33993SOL    HW213959  12.035  13.465   6.092 -1.6932  1.5555  1.1131
33994SOL     OW13960  10.502  13.584   3.715 -0.0366  0.5953  0.1773
33994SOL    HW113961  10.451  13.620   3.788 -0.1054  0.5850  0.1341
33994SOL    HW213962  10.591  13.574   3.750 -0.4772 -1.2942  0.9071
33995SOL     OW13963  13.642   9.817  10.888  0.0320  0.0035 -0.2115
33995SOL    HW113964  13.718   9.834  10.831  0.0083  0.0411 -0.2319
33995SOL    HW213965  13.678   9.770  10.963  0.1758  0.5634  0.0781
33996SOL     OW13966   9.402   4.087  13.182 -0.0711  0.1895  0.2502
33996SOL    HW113967   9.425   4.000  13.215  0.9891  0.1535 -0.5409
33996SOL    HW213968   9.454   4.097  13.103 -1.3840  0.9100 -0.5529
33997SOL     OW13969   5.040  12.676  11.656 -0.3805  0.0368 -0.0917
33997SOL    HW113970   5.114  12.729  11.628 -0.3380 -0.9825 -2.0189
33997SOL    HW213971   4.972  12.692  11.591 -1.4826  0.1043  1.0357
33998SOL     OW13972  10.758   8.274   9.062  0.4026 -0.0125  0.3131
33998SOL    HW113973  10.735   8.252   8.972 -0.0323 -1.1247  0.6878
33998SOL    HW213974  10.812   8.201   9.092  1.7033  0.9969  0.5262
33999SOL     OW13975  12.488   9.194   6.937 -0.3345 -0.0430 -0.0393
33999SOL    HW113976  12.529   9.217   7.021 -0.7800  0.2001  0.1129
33999SOL    HW213977  12.481   9.277   6.891 -1.9156  0.1566  0.4967
34000SOL     OW13978  11.549  11.898  10.419 -0.3101 -0.0176  0.2666
34000SOL    HW113979  11.564  11.900  10.513  0.5109 -1.2703  0.1832
34000SOL    HW213980  11.636  11.898  10.380 -0.6381  1.0920 -0.5284
34001SOL     OW13981   1.173   6.444   7.128  0.4135  0.1108  0.3000
34001SOL    HW113982   1.225   6.500   7.187 -0.3134  1.1978 -0.0510
34001SOL    HW213983   1.205   6.356   7.145  2.5742  0.7568 -0.1034
34002SOL     OW13984   2.931   4.566   0.310  0.1836 -0.2311 -0.5849
34002SOL    HW113985   2.838   4.544   0.310  0.6158 -2.3532 -1.7155
34002SOL    HW213986   2.968   4.516   0.383  0.3939  1.0098  0.1927
34003SOL     OW13987   2.007   8.332  10.952 -0.1181 -0.5868 -0.6717
34003SOL    HW113988   2.025   8.241  10.974 -1.4486 -0.8842 -0.6977
34003SOL    HW213989   1.936   8.327  10.887  0.6203  0.4289 -1.5789
34004SOL     OW13990  13.825   3.118   9.266  0.3311 -0.2430 -0.3301
34004SOL    HW113991  13.811   3.067   9.346  1.0445 -2.0505 -1.2844
34004SOL    HW213992  13.890   3.184   9.291  0.2204 -0.4968  0.6930
34005SOL     OW13993  12.055   2.999   5.794  0.4492 -0.1452  0.1804
34005SOL    HW113994  12.126   3.035   5.741 -0.8846  0.8990 -0.9521
34005SOL    HW213995  12.049   3.057   5.869  1.1570 -0.5787  0.5842
34006SOL     OW13996   2.034   7.683   9.352  0.3327 -0.1264  0.8125
34006SOL    HW113997   2.129   7.676   9.363  0.3773 -2.1457 -0.4022
34006SOL    HW213998   2.021   7.770   9.315  1.6011  0.5542  1.8752
34007SOL     OW13999  10.817   8.019   4.460 -0.0409  0.2869  0.3218
34007SOL    HW114000  10.848   8.109   4.453  0.0426  0.3703  1.6317
34007SOL    HW214001  10.880   7.977   4.519  0.0814 -0.7165 -0.4818
34008SOL     OW14002  13.795   1.338   0.032  0.0383  0.4989 -0.0778
34008SOL    HW114003  13.739   1.363  -0.041 -0.7412  1.3262  0.7698
34008SOL    HW214004  13.874   1.302  -0.008 -2.0023 -2.9652 -1.3465
34009SOL     OW14005   8.216   4.120   5.715 -0.1371 -0.3909  0.2262
34009SOL    HW114006   8.309   4.113   5.695  0.1887  0.3729  1.4018
34009SOL    HW214007   8.208   4.199   5.769 -1.6369  0.2395 -0.8317
34010SOL     OW14008   6.847  10.833   3.425 -0.0019  0.1436 -0.0503
34010SOL    HW114009   6.885  10.757   3.469 -3.1412 -0.8061  1.2693
34010SOL    HW214010   6.920  10.872   3.377  2.2942 -2.1678  1.3356
34011SOL     OW14011  13.752   4.064  11.244  0.2296  0.1174  0.2455
34011SOL    HW114012  13.793   4.075  11.158  0.9774 -0.5452  0.5084
34011SOL    HW214013  13.682   4.130  11.245  1.4981  1.5387 -0.0783
34012SOL     OW14014   2.625   1.551   5.813  0.3848  0.4328 -0.3437
34012SOL    HW114015   2.675   1.497   5.752  0.4563 -0.3039  0.3529
34012SOL    HW214016   2.551   1.584   5.761  1.1718  0.9412 -1.1851
34013SOL     OW14017   1.409   8.240   6.083  0.2868  0.1384  0.0167
34013SOL    HW114018   1.318   8.271   6.084  0.3966  0.4498  1.1824
34013SOL    HW214019   1.447   8.274   6.164  1.9513  1.4603 -1.2474
34014SOL     OW14020  12.176   7.439  11.808  0.3913 -0.1025 -0.0989
34014SOL    HW114021  12.134   7.489  11.878 -0.1415  0.0434 -0.5125
34014SOL    HW214022  12.156   7.348  11.828  2.2390 -0.2659  1.2281
34015SOL     OW14023   7.403   7.764   6.067 -0.0141 -0.6316  0.4036
34015SOL    HW114024   7.474   7.762   6.004  0.0555 -2.1756  0.4997
34015SOL    HW214025   7.398   7.856   6.095 -1.4061  0.5888 -3.3095
34016SOL     OW14026   1.238   8.838  13.321 -0.3077  0.2813  0.4492
34016SOL    HW114027   1.200   8.923  13.344  1.4062  0.6173  2.3406
34016SOL    HW214028   1.181   8.773  13.361 -0.5410  0.6282  0.6761
34017SOL     OW14029   0.537  13.264  10.829 -0.9201  0.2426  0.1519
34017SOL    HW114030   0.528  13.203  10.903  1.1376 -0.0322  0.2390
34017SOL    HW214031   0.505  13.215  10.754 -1.1282 -0.2182  0.5310
34018SOL     OW14032   0.086   4.801   2.474  0.1184  0.2842 -0.1251
34018SOL    HW114033   0.150   4.732   2.455 -1.4485 -1.0119 -0.8825
34018SOL    HW214034   0.109   4.830   2.563  0.7290 -1.3204  0.2933
34019SOL     OW14035   0.735   6.192   7.085  0.0436 -0.1285 -0.2622
34019SOL    HW114036   0.715   6.286   7.084  0.5312 -0.0307 -1.2583
34019SOL    HW214037   0.665   6.154   7.137 -1.0903  0.5791 -1.2257
34020SOL     OW14038   0.991   9.052  10.674 -0.1929  0.1663 -0.2981
34020SOL    HW114039   1.042   9.129  10.696  2.1764 -1.3184 -0.1987
34020SOL    HW214040   1.051   8.979  10.688 -2.0279 -1.6408 -1.2835
34021SOL     OW14041   4.473  12.114   8.337  0.2659 -0.4958  0.3392
34021SOL    HW114042   4.463  12.119   8.242 -0.4023  0.0850  0.4334
34021SOL    HW214043   4.384  12.111   8.371  0.4317  1.1841  1.0269
34022SOL     OW14044   8.842   0.025   4.733 -0.9796  0.3979  0.0927
34022SOL    HW114045   8.931   0.053   4.755 -0.6580 -1.0926  0.8027
34022SOL    HW214046   8.796   0.023   4.817 -1.0953 -0.7668  0.0194
34023SOL     OW14047  10.864   1.607   3.078  0.3744  0.3892  0.6172
34023SOL    HW114048  10.780   1.579   3.114 -0.5826  1.8712 -0.3853
34023SOL    HW214049  10.916   1.633   3.154 -0.6946  1.0603  1.1346
34024SOL     OW14050   8.613   4.668   1.164  0.2779 -0.1585  0.3862
34024SOL    HW114051   8.611   4.588   1.112  1.3339 -0.8931  1.4021
34024SOL    HW214052   8.543   4.656   1.228 -0.0967  0.0945  0.0195
34025SOL     OW14053   7.076   9.524   6.505  0.0707  0.3485  0.1277
34025SOL    HW114054   7.069   9.575   6.586 -1.2682  1.3722 -0.5955
34025SOL    HW214055   7.017   9.451   6.518 -0.2980  0.6218  0.0098
34026SOL     OW14056   9.040  10.698  10.718 -0.6354 -0.3658 -0.7242
34026SOL    HW114057   9.061  10.660  10.633  0.7327  2.0264 -1.5609
34026SOL    HW214058   8.946  10.712  10.716 -0.7045 -0.9059 -1.6220
34027SOL     OW14059  13.478   0.749   9.879  0.9625 -0.0520  0.1948
34027SOL    HW114060  13.426   0.706   9.811  1.1446 -1.1185  0.7021
34027SOL    HW214061  13.500   0.835   9.842 -0.6771  0.2161 -0.2510
34028SOL     OW14062   6.195   8.185   5.040 -0.3903 -0.5081  0.3383
34028SOL    HW114063   6.167   8.265   5.086  1.0078  0.3666 -0.2806
34028SOL    HW214064   6.119   8.160   4.987  0.4845  3.0649 -3.0424
34029SOL     OW14065   4.664   0.978   3.405 -0.1280 -0.4927 -0.2068
34029SOL    HW114066   4.727   1.049   3.413 -2.1907  1.4318 -0.2037
34029SOL    HW214067   4.593   1.001   3.464 -1.1216 -2.2837 -0.6245
34030SOL     OW14068   0.394   6.994  13.317  0.4222 -0.1361 -0.0665
34030SOL    HW114069   0.473   7.028  13.359  0.7070 -0.6487 -0.1826
34030SOL    HW214070   0.404   7.019  13.225 -0.1257  0.8468  0.1261
34031SOL     OW14071   5.565   2.974   0.138 -0.6012  0.4517  0.5607
34031SOL    HW114072   5.566   2.945   0.047 -0.5863  1.6118  0.1772
34031SOL    HW214073   5.657   2.988   0.160 -0.5343 -0.5800  1.0276
34032SOL     OW14074  12.119   9.257   7.561 -0.2369  0.3733  0.2783
34032SOL    HW114075  12.113   9.169   7.523 -1.9722  0.5497  0.0880
34032SOL    HW214076  12.210   9.283   7.547 -0.0321 -0.8581 -0.8505
34033SOL     OW14077   5.628   9.357   4.314  0.2200 -0.6130  0.0957
34033SOL    HW114078   5.578   9.415   4.256 -0.3854 -0.4973  0.7302
34033SOL    HW214079   5.717   9.393   4.312 -0.3054  0.8205  1.0844
34034SOL     OW14080   1.086   9.342   6.416  0.0362 -0.0069  0.6600
34034SOL    HW114081   1.150   9.337   6.345  0.4761  1.8032  0.8679
34034SOL    HW214082   1.077   9.252   6.447 -0.8802 -1.0113 -2.2688
34035SOL     OW14083  11.023   4.531   0.258  0.2485 -0.2370 -0.0565
34035SOL    HW114084  11.017   4.484   0.342  0.1902 -1.4035 -0.6893
34035SOL    HW214085  11.117   4.533   0.239  0.4011  1.2644  0.6831
34036SOL     OW14086   3.330   9.458   0.527  0.1162  0.0915 -0.3890
34036SOL    HW114087   3.263   9.480   0.462 -0.0909  1.2482  0.1924
34036SOL    HW214088   3.343   9.539   0.577 -1.1324 -1.2606  2.2954
34037SOL     OW14089   5.385  10.795  13.477 -0.4810  0.1922 -0.2175
34037SOL    HW114090   5.388  10.890  13.461 -0.8564  0.2237 -0.1166
34037SOL    HW214091   5.318  10.763  13.417  0.2921 -0.1525 -0.9158
34038SOL     OW14092   6.011  12.521   1.851  0.3225 -0.6116  0.1559
34038SOL    HW114093   6.016  12.429   1.875 -1.5799 -0.9885 -0.7145
34038SOL    HW214094   5.925  12.531   1.810  1.6384  0.9062 -2.5008
34039SOL     OW14095   7.687   0.414  11.630 -0.0925  0.2370  0.0845
34039SOL    HW114096   7.621   0.374  11.574  0.5628 -1.6592  0.5699
34039SOL    HW214097   7.770   0.383  11.595  0.4629  1.1539  0.5393
34040SOL     OW14098   8.113   0.551   6.776 -0.1931  0.1817  0.0849
34040SOL    HW114099   8.064   0.493   6.719 -0.9971 -0.0956  1.0234
34040SOL    HW214100   8.192   0.502   6.799 -1.6013 -1.2664  2.1511
34041SOL     OW14101  11.578   3.310   9.778  0.6020 -0.1339  0.3438
34041SOL    HW114102  11.583   3.234   9.836  0.5371  1.0375  1.9385
34041SOL    HW214103  11.567   3.385   9.837  1.1738  1.1779 -1.1444
34042SOL     OW14104   4.362   8.953   6.864  0.1578  0.2482 -0.2409
34042SOL    HW114105   4.336   9.025   6.806  0.6545  0.3191 -0.3761
34042SOL    HW214106   4.407   8.996   6.936 -1.0507  0.2223  0.5605
34043SOL     OW14107  13.000  11.439   4.051  0.3434 -0.2605 -0.1396
34043SOL    HW114108  13.028  11.347   4.042  1.8718  0.0575  0.8563
34043SOL    HW214109  12.909  11.433   4.079  0.6613 -1.5238  0.7659
34044SOL     OW14110  13.119   5.128   4.299  0.4413 -0.3304  0.4126
34044SOL    HW114111  13.178   5.195   4.262  3.0484 -1.2823  2.4997
34044SOL    HW214112  13.073   5.173   4.369  0.0761 -0.0393 -0.0100
34045SOL     OW14113   2.650   7.975  10.111 -0.5127  0.3353 -0.2223
34045SOL    HW114114   2.659   8.061  10.151 -1.5128  0.5697 -0.4843
34045SOL    HW214115   2.632   7.915  10.184 -0.8370  0.5159 -0.1547
34046SOL     OW14116   2.254   0.712   3.184  0.6360  0.1479  0.2573
34046SOL    HW114117   2.209   0.732   3.266  2.3931  1.3142  0.9740
34046SOL    HW214118   2.343   0.745   3.196  0.9684  0.2477 -2.0843
34047SOL     OW14119   2.706   8.091   7.702 -0.0940  0.1003 -0.1829
34047SOL    HW114120   2.726   8.039   7.780  0.3832  0.1388 -0.2794
34047SOL    HW214121   2.617   8.124   7.718 -0.7434 -1.4008 -0.4681
34048SOL     OW14122   5.471  12.735  14.030  0.0614 -0.7038 -0.0790
34048SOL    HW114123   5.485  12.824  14.064 -2.1169 -0.8955  1.5285
34048SOL    HW214124   5.560  12.699  14.021  0.9716  1.4464 -0.3246
34049SOL     OW14125   6.663   8.653  12.852 -0.1828 -0.3684  0.4568
34049SOL    HW114126   6.688   8.630  12.763  1.7385 -0.6766  1.0235
34049SOL    HW214127   6.650   8.569  12.896  1.6858 -0.3206  1.1720
34050SOL     OW14128   8.702  11.668   0.219  0.1415 -0.3384  0.7182
34050SOL    HW114129   8.688  11.746   0.272 -0.8825  0.8533 -1.2081
34050SOL    HW214130   8.615  11.629   0.208  0.6131 -1.6671  1.4981
34051SOL     OW14131   1.287   4.851   2.922  0.1558  0.3457  0.8178
34051SOL    HW114132   1.196   4.836   2.950  0.0856  1.6563  1.3721
34051SOL    HW214133   1.282   4.858   2.827  0.0093 -1.6488  0.6469
34052SOL     OW14134  10.971  10.110   6.085  0.1866 -0.1955 -0.1104
34052SOL    HW114135  10.897  10.121   6.025  1.2565 -1.7205 -1.7959
34052SOL    HW214136  11.029  10.184   6.065 -0.2375  0.2513  0.2739
34053SOL     OW14137  10.612   9.792   8.814  0.1505  0.3488 -0.1937
34053SOL    HW114138  10.695   9.813   8.771  0.2084  1.3243  0.3785
34053SOL    HW214139  10.590   9.705   8.781  1.6819 -0.1754  0.0640
34054SOL     OW14140  12.704  11.155   0.728 -0.0598 -0.3373 -0.9734
34054SOL    HW114141  12.786  11.196   0.758 -1.1226  1.3350 -0.2147
34054SOL    HW214142  12.635  11.208   0.768 -1.5409 -2.5766 -0.4038
34055SOL     OW14143  11.290   4.033  12.415 -0.1934  0.0571 -0.2698
34055SOL    HW114144  11.199   4.064  12.410 -0.2733 -0.0862  0.1695
34055SOL    HW214145  11.330   4.090  12.481  0.9117  2.1817 -2.6312
34056SOL     OW14146   3.743   3.612  12.345  0.2355  0.3091 -0.5736
34056SOL    HW114147   3.818   3.618  12.286  0.1704 -0.2098 -0.7121
34056SOL    HW214148   3.764   3.538  12.403 -0.6148 -0.4913 -1.2566
34057SOL     OW14149  12.808  10.832   3.415  0.3288  0.3371 -0.0814
34057SOL    HW114150  12.875  10.895   3.441 -0.7334  1.3161  0.3813
34057SOL    HW214151  12.725  10.877   3.430 -0.4372 -0.4965 -1.4961
34058SOL     OW14152   0.463   1.491   2.471  0.4661 -0.3451  0.4444
34058SOL    HW114153   0.423   1.571   2.438  0.4829 -1.1804 -1.7261
34058SOL    HW214154   0.481   1.510   2.564 -1.7987  1.2621  0.6418
34059SOL     OW14155  11.453   6.765  11.326 -0.4371  0.6693 -0.0468
34059SOL    HW114156  11.442   6.853  11.292  0.0490  1.0036  0.6309
34059SOL    HW214157  11.473   6.712  11.249 -0.3426  1.2242 -0.4089
34060SOL     OW14158   0.353   7.600   0.858 -1.0247 -0.4513  0.1135
34060SOL    HW114159   0.284   7.577   0.920 -1.8362 -3.1915 -1.6353
34060SOL    HW214160   0.316   7.581   0.772  1.9547 -2.4540 -0.8937
34061SOL     OW14161   8.261   3.396   4.455 -0.4745  0.4329  0.0943
34061SOL    HW114162   8.194   3.341   4.497 -0.3273  0.9821  1.0761
34061SOL    HW214163   8.245   3.385   4.361 -0.2722 -1.4970  0.2506
34062SOL     OW14164   9.867   5.459  11.852  0.3061 -0.9274  0.0090
34062SOL    HW114165   9.899   5.480  11.940 -0.8684 -1.4396  0.5830
34062SOL    HW214166   9.776   5.434  11.865  0.2655 -1.5450 -1.2964
34063SOL     OW14167   3.944   1.992   3.953 -0.0287 -0.0478 -0.3530
34063SOL    HW114168   4.002   1.986   3.878  0.7947 -0.2427  0.2827
34063SOL    HW214169   3.893   2.072   3.938 -0.3770 -0.4678 -1.4513
34064SOL     OW14170   7.432   9.341   5.147 -0.1660 -0.5845 -0.5416
34064SOL    HW114171   7.411   9.365   5.057 -0.2607  0.2925 -0.2946
34064SOL    HW214172   7.422   9.422   5.197 -0.0626 -1.0461  0.2525
34065SOL     OW14173  11.056   7.129   3.586  0.3485  0.7639  0.1324
34065SOL    HW114174  11.087   7.121   3.676  0.4250  0.4771  0.0809
34065SOL    HW214175  10.962   7.109   3.592 -0.0064  2.3800  0.4102
34066SOL     OW14176  13.094  12.297   1.805 -0.8866  0.2210  0.1933
34066SOL    HW114177  13.102  12.315   1.898 -1.6210  1.5131  0.0230
34066SOL    HW214178  13.108  12.382   1.762 -1.3583 -0.1960 -0.8310
34067SOL     OW14179   0.715  12.016   1.164  0.3729  0.3781  0.0943
34067SOL    HW114180   0.776  12.063   1.221  0.8180 -0.6613  0.4917
34067SOL    HW214181   0.662  11.963   1.224  0.5866 -0.4381 -0.4267
34068SOL     OW14182   5.089   3.946  13.182  0.5653  0.2911 -0.1302
34068SOL    HW114183   5.030   3.928  13.108 -0.1224  1.4052  0.1282
34068SOL    HW214184   5.171   3.903  13.158  0.8077  1.7340 -2.1823
34069SOL     OW14185  10.081  13.508  12.329 -0.4356  0.7756  0.3601
34069SOL    HW114186  10.008  13.564  12.301 -1.8676 -1.4633 -0.7245
34069SOL    HW214187  10.060  13.486  12.420  0.2935  2.1624  0.8923
34070SOL     OW14188   9.056   5.153  11.523 -0.2166  0.2429  0.2249
34070SOL    HW114189   9.112   5.191  11.592 -0.0836  0.5283 -0.0376
34070SOL    HW214190   9.106   5.078  11.491 -0.0281  0.4393  0.0577
34071SOL     OW14191   7.790  12.980   6.957  0.1250 -0.3431 -0.0568
34071SOL    HW114192   7.819  13.070   6.969 -1.4611  0.2632 -0.5513
34071SOL    HW214193   7.695  12.986   6.945  0.2515 -1.8231 -2.5406
34072SOL     OW14194   2.932   3.220   6.603 -0.1671  0.0149  0.0490
34072SOL    HW114195   2.946   3.294   6.662  0.0932  1.5867 -1.8828
34072SOL    HW214196   2.852   3.242   6.555  0.4694 -0.4352 -1.2751
34073SOL     OW14197  10.606   3.405   7.570 -0.4216  0.6137  0.5422
34073SOL    HW114198  10.610   3.319   7.528  1.2205  0.7438  0.3440
34073SOL    HW214199  10.531   3.400   7.629 -3.4123  0.6731 -2.8977
34074SOL     OW14200  11.468   4.800   3.299 -0.2502  0.2799 -0.0795
34074SOL    HW114201  11.550   4.832   3.336 -0.9946  0.0295  1.9184
34074SOL    HW214202  11.493   4.723   3.247  0.6509 -0.5367  1.5125
34075SOL     OW14203   6.269   1.526  12.235  0.0483 -0.2143 -1.0253
34075SOL    HW114204   6.276   1.530  12.331  2.1750 -3.3270 -0.9130
34075SOL    HW214205   6.192   1.473  12.219 -0.2355  0.2011 -1.0394
34076SOL     OW14206  10.791   8.526   9.878  0.0242 -0.0039 -0.2859
34076SOL    HW114207  10.818   8.444   9.836 -1.0160 -0.1192 -0.7580
34076SOL    HW214208  10.705   8.506   9.916 -0.4963  1.0223 -0.8944
34077SOL     OW14209   7.407  13.074   9.361 -0.2460  0.5251  0.4248
34077SOL    HW114210   7.413  13.160   9.319  0.9173  0.4921  0.4682
34077SOL    HW214211   7.457  13.016   9.303 -1.5881 -0.2782  0.0409
34078SOL     OW14212  10.602   4.614   6.347 -0.4502  0.1021  0.9499
34078SOL    HW114213  10.515   4.602   6.384  0.0557  0.5390  2.3733
34078SOL    HW214214  10.631   4.526   6.325  0.1811 -0.5697  3.9845
34079SOL     OW14215   9.357   7.038   6.997  0.4250  0.6227 -0.3137
34079SOL    HW114216   9.428   7.042   6.933 -1.0981  0.4054 -2.1150
34079SOL    HW214217   9.285   6.995   6.951 -0.1367 -1.4360  2.2131
34080SOL     OW14218   1.900   7.405  11.634 -0.2059 -0.6188  0.2284
34080SOL    HW114219   1.815   7.439  11.603  0.7065  1.1862 -0.4459
34080SOL    HW214220   1.879   7.319  11.670 -2.3050 -0.2918 -0.0498
34081SOL     OW14221   4.530   5.410   4.572  0.4249  0.0385 -0.6469
34081SOL    HW114222   4.555   5.420   4.663  1.0599 -1.5200 -0.6231
34081SOL    HW214223   4.489   5.324   4.567 -0.3128  0.4336 -1.6801
34082SOL     OW14224   7.863   3.354   8.122  0.6332 -0.0188  0.4282
34082SOL    HW114225   7.934   3.411   8.094  0.2730  0.3655  0.2887
34082SOL    HW214226   7.784   3.409   8.118  0.2339 -0.6072 -0.0360
34083SOL     OW14227   4.149  13.885   9.759  0.2007 -0.1617  0.4508
34083SOL    HW114228   4.068  13.930   9.782  0.4608  0.2251  0.6320
34083SOL    HW214229   4.148  13.879   9.664  1.0838  2.0212  0.2620
34084SOL     OW14230   6.120  13.473   2.563  0.1181  0.4234 -0.5540
34084SOL    HW114231   6.057  13.530   2.519  1.0163  0.8772 -1.2853
34084SOL    HW214232   6.198  13.527   2.572  0.3919 -0.1186  0.3766
34085SOL     OW14233   4.123   5.903   4.081  0.0156 -0.0837 -0.5011
34085SOL    HW114234   4.059   5.905   4.152 -0.1469  0.2497 -0.6527
34085SOL    HW214235   4.161   5.991   4.081 -1.1496  0.4629 -1.8601
34086SOL     OW14236   1.177   9.609   4.340 -0.0623  0.0123  0.0538
34086SOL    HW114237   1.123   9.541   4.301 -0.2213  0.1368  0.0584
34086SOL    HW214238   1.259   9.564   4.362  0.3695  0.1388 -1.2287
34087SOL     OW14239   2.483   5.222   1.360  0.2390 -0.0336  0.2738
34087SOL    HW114240   2.430   5.174   1.297  0.4268  0.0480  0.0505
34087SOL    HW214241   2.489   5.311   1.324  0.0915  0.0932  0.5620
34088SOL     OW14242   5.362   5.563   6.913  0.6280  0.1634 -0.2927
34088SOL    HW114243   5.320   5.622   6.975  0.5758 -0.4461  0.2649
34088SOL    HW214244   5.323   5.478   6.931  1.3206 -0.2053 -0.4944
34089SOL     OW14245   1.478  13.171  11.399 -0.2809  0.1718  0.1939
34089SOL    HW114246   1.560  13.169  11.449  0.4087  1.5470 -0.8027
34089SOL    HW214247   1.439  13.085  11.413  2.3060 -1.2776 -0.8519
34090SOL     OW14248   5.793  13.679   6.256  0.0044  0.1219  0.2680
34090SOL    HW114249   5.730  13.611   6.279  0.7522 -0.3138  1.0995
34090SOL    HW214250   5.776  13.749   6.319  0.1568  0.1229  0.3084
34091SOL     OW14251   8.130   9.385  13.416  0.1057  0.1919  0.0305
34091SOL    HW114252   8.176   9.341  13.487  0.2305  0.2018 -0.0445
34091SOL    HW214253   8.192   9.451  13.385  0.6046 -0.7554 -1.0366
34092SOL     OW14254   8.157   3.884   9.586 -0.7349 -0.1454 -0.6437
34092SOL    HW114255   8.228   3.932   9.543 -0.0915 -0.1164  0.4272
34092SOL    HW214256   8.085   3.947   9.590 -0.6914 -0.0410 -1.3647
34093SOL     OW14257  10.587   3.672  10.722  0.0792 -0.0992 -0.1891
34093SOL    HW114258  10.542   3.721  10.654  0.3016 -0.4757 -0.6109
34093SOL    HW214259  10.569   3.580  10.701  2.0257 -0.3245 -1.0787
34094SOL     OW14260   9.468  13.141   2.488 -0.2408  0.2258  0.0082
34094SOL    HW114261   9.519  13.099   2.419 -0.4492 -2.2336  1.2563
34094SOL    HW214262   9.530  13.196   2.534  0.7615 -0.8957  0.0397
34095SOL     OW14263   5.881  13.983   7.391  0.0259  0.3387 -0.2648
34095SOL    HW114264   5.946  13.916   7.374  0.5229  1.0047 -1.0467
34095SOL    HW214265   5.807  13.936   7.430  0.1369 -0.7428 -1.3060
34096SOL     OW14266   6.152  12.762   3.911 -0.1094 -0.5383 -0.2332
34096SOL    HW114267   6.131  12.819   3.985  1.8803 -1.5509  1.2042
34096SOL    HW214268   6.088  12.691   3.916  0.1433 -0.7113  0.6867
34097SOL     OW14269   1.845  10.430   4.086 -0.0971  0.0466  0.1213
34097SOL    HW114270   1.760  10.396   4.057  0.4061 -0.2715 -1.0195
34097SOL    HW214271   1.904  10.355   4.081  0.2004  0.1807  1.2406
34098SOL     OW14272   3.714   0.069   7.405  0.2485 -0.3092  0.3314
34098SOL    HW114273   3.800   0.107   7.419 -0.2228  0.3637  1.6035
34098SOL    HW214274   3.725  -0.024   7.426  0.5661 -0.1276  0.9973
34099SOL     OW14275  13.114   6.401  11.128  0.2747  0.1111  0.1190
34099SOL    HW114276  13.142   6.395  11.037 -0.2400 -0.7205  0.0049
34099SOL    HW214277  13.141   6.488  11.156  0.1273  0.5045 -0.9310
34100SOL     OW14278  13.833   0.041   2.717 -0.2471  0.0671  0.2225
34100SOL    HW114279  13.831   0.107   2.787  1.7628  1.3319 -0.8243
34100SOL    HW214280  13.926   0.023   2.704 -0.5568 -0.1190 -2.1321
34101SOL     OW14281  12.049   1.012  13.801 -0.2211  0.3950  0.6906
34101SOL    HW114282  12.047   1.107  13.811  1.3937  0.5077  0.2429
34101SOL    HW214283  12.089   0.980  13.882  0.8898  0.2642  0.1082
34102SOL     OW14284   5.932   2.969  10.523 -0.2636 -0.5347  0.2012
34102SOL    HW114285   5.868   2.977  10.594 -0.7082 -1.2906 -0.0971
34102SOL    HW214286   5.966   3.057  10.511  0.2698 -0.4979  1.7727
34103SOL     OW14287   9.608   7.744   0.355 -0.2623  0.2226 -0.5757
34103SOL    HW114288   9.588   7.838   0.354 -0.2618  0.2485  0.5090
34103SOL    HW214289   9.595   7.716   0.264 -1.1901  1.0829 -0.7342
34104SOL     OW14290   5.407   9.120   1.641  0.1716 -0.5830  0.1846
34104SOL    HW114291   5.395   9.055   1.572 -3.5593  0.8062 -0.7351
34104SOL    HW214292   5.348   9.192   1.617  0.2605  0.8991  3.7501
34105SOL     OW14293   3.081   0.743  10.325  0.4474 -0.1679 -0.1857
34105SOL    HW114294   3.082   0.760  10.419  0.9790  0.3203 -0.2715
34105SOL    HW214295   3.091   0.830  10.285 -0.2424 -0.3171 -0.7032
34106SOL     OW14296  12.304   5.391   4.243  0.2688  0.0157  0.2225
34106SOL    HW114297  12.382   5.354   4.202  0.0482  0.0132 -0.1986
34106SOL    HW214298  12.249   5.421   4.170 -0.3613 -0.4648  0.4831
34107SOL     OW14299  11.757  10.932   8.665 -0.2740  0.0789  0.0970
34107SOL    HW114300  11.844  10.954   8.633 -0.3143  0.6056  0.3426
34107SOL    HW214301  11.739  10.845   8.628 -0.4802  0.8218 -1.6710
34108SOL     OW14302  10.115   7.822  11.242 -0.1293 -0.7410  0.0440
34108SOL    HW114303  10.173   7.751  11.271  1.0325 -0.2762 -1.0714
34108SOL    HW214304  10.100   7.873  11.322  2.3918  0.0824  0.0851
34109SOL     OW14305   4.969  10.806   1.247 -0.1406 -0.2051  0.6415
34109SOL    HW114306   4.898  10.854   1.204  0.4076 -0.3815 -0.4826
34109SOL    HW214307   4.931  10.720   1.267 -0.0639 -0.5372 -0.5628
34110SOL     OW14308   9.082   1.699  13.821 -0.1312 -0.5214 -0.0711
34110SOL    HW114309   9.173   1.701  13.790  0.5532 -0.4329  1.8407
34110SOL    HW214310   9.033   1.659  13.749  1.0884  1.0884 -1.9054
34111SOL     OW14311  10.966   8.366  13.566  0.8732 -0.6474  0.4370
34111SOL    HW114312  11.026   8.397  13.498  0.5432 -2.1835 -0.6080
34111SOL    HW214313  11.023   8.341  13.639  1.1663  2.0139  1.2302
34112SOL     OW14314  13.856  11.293  13.939 -0.2779  0.1330  0.1592
34112SOL    HW114315  13.775  11.291  13.989  0.4407 -0.0298  1.3832
34112SOL    HW214316  13.925  11.290  14.006  0.7373  0.9606 -0.8126
34113SOL     OW14317   2.757  11.154   7.469  0.2490  0.0296  0.3760
34113SOL    HW114318   2.745  11.071   7.423  0.0554  0.0057  0.4636
34113SOL    HW214319   2.812  11.132   7.544  0.6974  0.1028  0.0668
34114SOL     OW14320   8.985  13.512   0.341 -0.5873  0.0710  0.3918
34114SOL    HW114321   8.899  13.525   0.302  0.7093  2.0337 -2.1086
34114SOL    HW214322   8.993  13.584   0.404 -0.0887  1.1009 -0.8033
34115SOL     OW14323  11.072  12.172  14.043 -0.8868  0.0812 -0.1806
34115SOL    HW114324  11.027  12.251  14.013 -0.4017  1.8154  3.1589
34115SOL    HW214325  11.016  12.138  14.113  1.0094  0.0410  1.3970
34116SOL     OW14326  13.613   4.082  13.097  0.2571 -0.1745  0.0364
34116SOL    HW114327  13.574   4.104  13.182 -0.4834 -0.2748 -0.2664
34116SOL    HW214328  13.548   4.112  13.034  0.3641 -0.9735 -0.4646
34117SOL     OW14329   7.107   0.705  11.600  0.1086  0.1708 -0.3547
34117SOL    HW114330   7.023   0.664  11.581  0.1304 -0.0364 -0.0139
34117SOL    HW214331   7.150   0.644  11.660  0.4611  0.3226 -0.4498
34118SOL     OW14332   8.348   7.633   9.442 -0.1315  0.0111 -0.2842
34118SOL    HW114333   8.256   7.657   9.430 -0.0195  2.2141  2.4155
34118SOL    HW214334   8.390   7.657   9.360 -1.5746  1.0610 -0.7547
34119SOL     OW14335   8.196   5.331   5.502  0.3066 -0.2786  0.1884
34119SOL    HW114336   8.275   5.385   5.501 -0.3682  0.7381 -1.6878
34119SOL    HW214337   8.147   5.362   5.578  1.3094 -0.3585  0.8924
34120SOL     OW14338  10.729   8.793  10.418 -0.0927 -0.5510 -0.1375
34120SOL    HW114339  10.752   8.753  10.334  0.3451  1.4567 -1.0496
34120SOL    HW214340  10.813   8.805  10.463 -0.4782 -3.5505  1.6171
34121SOL     OW14341  10.033   1.392   9.552  0.3879 -0.0395  0.1179
34121SOL    HW114342  10.087   1.325   9.511 -0.0805 -0.6878  0.5528
34121SOL    HW214343  10.078   1.413   9.634  0.6425  0.3303 -0.1140
34122SOL     OW14344  12.640  10.015   8.149 -0.4801 -0.7470  0.2330
34122SOL    HW114345  12.586  10.084   8.111 -0.6168 -0.0804  1.5836
34122SOL    HW214346  12.718  10.060   8.180 -0.1209 -1.3648  0.2414
34123SOL     OW14347  13.260   5.992   1.200  0.2174  0.3767  0.4165
34123SOL    HW114348  13.262   5.898   1.214 -0.9311 -0.0023 -1.6520
34123SOL    HW214349  13.280   6.004   1.108 -1.8451  1.9464  0.0881
34124SOL     OW14350   7.563   9.168  10.116  0.5832 -0.1444  0.5423
34124SOL    HW114351   7.559   9.236  10.182 -1.2252  1.4801 -1.1152
34124SOL    HW214352   7.567   9.086  10.165 -0.0328  1.0161  2.6268
34125SOL     OW14353   1.196  10.492   4.285  0.7862 -0.3066  0.3469
34125SOL    HW114354   1.282  10.450   4.279  0.2554 -1.4094  0.2301
34125SOL    HW214355   1.154  10.472   4.201  0.9699  1.5349 -0.2372
34126SOL     OW14356  12.911   5.549   6.804  0.1808 -1.3061  0.2605
34126SOL    HW114357  12.930   5.486   6.735  1.1709 -0.5920 -0.1301
34126SOL    HW214358  12.889   5.630   6.758 -1.0289 -1.3194  0.7600
34127SOL     OW14359   6.925   2.207   2.753  0.0991  0.1022 -0.5549
34127SOL    HW114360   6.831   2.219   2.759  0.0468 -0.7216  0.7919
34127SOL    HW214361   6.961   2.270   2.816  0.4906  0.7871 -1.4500
34128SOL     OW14362  11.498  10.261   1.598 -0.4232 -0.4545 -0.1302
34128SOL    HW114363  11.541  10.312   1.529 -1.0645  0.4973  0.1431
34128SOL    HW214364  11.549  10.278   1.676 -1.1005  0.4723  0.1394
34129SOL     OW14365   0.212   0.705   5.506  0.2684 -0.2409 -0.2994
34129SOL    HW114366   0.286   0.660   5.547 -0.4096 -1.2277 -0.1311
34129SOL    HW214367   0.135   0.671   5.552 -0.3878 -0.1958 -1.3431
34130SOL     OW14368  12.683  13.830  10.479 -0.0354  0.2183  0.0194
34130SOL    HW114369  12.710  13.903  10.424 -0.4966  0.1111 -0.3519
34130SOL    HW214370  12.599  13.857  10.515 -1.1658 -0.8984 -1.6335
34131SOL     OW14371   1.716  10.907  11.031  0.2222 -0.0533  0.1916
34131SOL    HW114372   1.669  10.989  11.045  0.0255 -0.0675 -0.3346
34131SOL    HW214373   1.779  10.902  11.102  0.0143  0.3969  0.4085
34132SOL     OW14374  12.760   3.959  13.395 -0.3727  0.2189  0.0843
34132SOL    HW114375  12.691   3.901  13.361  1.3610 -1.1097 -1.3750
34132SOL    HW214376  12.732   4.047  13.370 -2.3212 -0.0845  0.9952
34133SOL     OW14377   0.059   0.909  11.850  0.1964  0.2858 -0.2383
34133SOL    HW114378   0.147   0.916  11.815  0.3287  0.5005  0.1275
34133SOL    HW214379   0.052   0.982  11.912 -0.6011  0.9067 -1.0359
34134SOL     OW14380   5.410   1.923   3.837 -0.1830  0.2534  0.3944
34134SOL    HW114381   5.505   1.920   3.843 -0.2053  1.4737  2.2675
34134SOL    HW214382   5.389   2.017   3.836 -1.3691  0.0072 -0.1638
34135SOL     OW14383  11.384   6.955  10.305  0.2487 -0.0564  0.1267
34135SOL    HW114384  11.335   6.872  10.298 -0.6703  0.4351  0.5177
34135SOL    HW214385  11.325   7.021  10.269  1.4344  0.2881 -1.2719
34136SOL     OW14386   0.699  12.009   0.644 -0.5626  0.0882 -0.4881
34136SOL    HW114387   0.693  12.057   0.726 -1.8228 -2.6945  1.1938
34136SOL    HW214388   0.610  11.979   0.627  0.4124 -3.6016 -0.0428
34137SOL     OW14389  11.650  11.595   3.271 -0.3501  0.7209 -0.1961
34137SOL    HW114390  11.587  11.598   3.200  0.2324  0.3507 -0.7354
34137SOL    HW214391  11.652  11.504   3.299 -1.6123  1.1045  1.2568
34138SOL     OW14392  13.535   5.389   1.454 -0.1433 -0.0879  0.0975
34138SOL    HW114393  13.537   5.456   1.523  2.0405 -0.0650  0.0667
34138SOL    HW214394  13.595   5.423   1.387 -0.0054 -1.4680 -0.4965
34139SOL     OW14395   2.557   5.751   6.696  0.0589  0.0121 -0.2331
34139SOL    HW114396   2.595   5.676   6.741 -1.8742 -0.7242  0.2939
34139SOL    HW214397   2.511   5.799   6.765 -0.0496  0.7883 -0.8415
34140SOL     OW14398  11.590  11.370   3.909 -0.4040  0.4243 -0.8572
34140SOL    HW114399  11.656  11.328   3.965  0.1823  1.2227 -0.9420
34140SOL    HW214400  11.566  11.450   3.956 -1.9746 -0.2661 -0.3920
34141SOL     OW14401   1.329   1.055   8.827 -0.0502  0.1593 -0.1336
34141SOL    HW114402   1.335   1.087   8.737  1.9574 -1.1880 -0.5480
34141SOL    HW214403   1.403   0.995   8.836 -0.6683 -0.3547  2.1836
34142SOL     OW14404   4.653  13.939  13.617  0.2754 -0.5759 -0.7016
34142SOL    HW114405   4.703  13.917  13.539  1.1711  0.2161 -0.3633
34142SOL    HW214406   4.709  13.998  13.667 -0.0263 -1.5060  0.8359
34143SOL     OW14407  10.911   1.699   0.916 -0.1041  0.1923  0.0432
34143SOL    HW114408  10.860   1.755   0.975  0.2181  1.4763 -0.8533
34143SOL    HW214409  10.849   1.672   0.849 -0.3734 -0.9449  0.7279
34144SOL     OW14410   9.298   8.202   9.649 -0.2749  0.1802  0.3687
34144SOL    HW114411   9.352   8.267   9.603 -0.1801 -0.7775 -0.9240
34144SOL    HW214412   9.209   8.222   9.621 -0.0802 -1.3126 -1.4572
34145SOL     OW14413   2.408   7.192   5.732 -0.1175  0.0433 -0.3170
34145SOL    HW114414   2.406   7.247   5.810 -2.0357 -0.6427  0.1744
34145SOL    HW214415   2.342   7.230   5.675  3.6951  2.8749 -3.4285
34146SOL     OW14416   8.604   5.370   8.486 -0.1112  0.4659 -0.2077
34146SOL    HW114417   8.691   5.367   8.447  0.4841  2.2738  0.8593
34146SOL    HW214418   8.555   5.301   8.441  1.3918  0.4619 -1.9642
34147SOL     OW14419  13.228   7.112   0.062  0.1608 -0.2245 -0.3162
34147SOL    HW114420  13.299   7.054   0.037  1.4983  1.7235 -1.3328
34147SOL    HW214421  13.210   7.164  -0.017 -0.2505  1.3988  0.7798
34148SOL     OW14422   4.502  10.654   7.295  0.2132  0.1112  0.1926
34148SOL    HW114423   4.468  10.655   7.206 -2.5685 -0.9429  1.1178
34148SOL    HW214424   4.432  10.692   7.348  1.0181 -0.9537  2.1350
34149SOL     OW14425   9.015   8.266   0.964  0.2528  0.4214 -0.3423
34149SOL    HW114426   8.954   8.331   0.930  1.0608  1.4728  0.1374
34149SOL    HW214427   9.019   8.199   0.896  1.0371  1.9360 -1.8694
34150SOL     OW14428   8.344   2.891   0.855 -0.2303 -0.2139  0.2331
34150SOL    HW114429   8.261   2.882   0.808 -0.1226  0.1838 -0.0407
34150SOL    HW214430   8.320   2.935   0.937 -0.0245  1.7686 -0.7197
34151SOL     OW14431   0.640   1.755   0.399 -0.3075 -0.6336 -0.0254
34151SOL    HW114432   0.650   1.763   0.304  0.0970 -0.5179  0.0235
34151SOL    HW214433   0.705   1.690   0.425  0.9811  0.7821  0.4189
34152SOL     OW14434  10.518   2.948   0.152 -0.4885 -0.2191  0.3324
34152SOL    HW114435  10.595   2.978   0.199 -0.8774  0.2922  0.6538
34152SOL    HW214436  10.467   3.028   0.135 -0.7165 -0.4899 -0.2912
34153SOL     OW14437  12.362  12.434  13.526 -0.3887 -0.0064 -0.2862
34153SOL    HW114438  12.346  12.458  13.617  0.2721 -0.8887  0.0737
34153SOL    HW214439  12.434  12.371  13.530  0.4327  0.8046 -1.5083
34154SOL     OW14440   9.563  10.124   1.304  0.3464  0.2184 -0.1945
34154SOL    HW114441   9.473  10.133   1.273  0.1509  0.0938  0.3267
34154SOL    HW214442   9.609  10.080   1.231 -0.5679 -1.9577  0.4428
34155SOL     OW14443   3.935  11.251   6.579  0.2496 -0.1420 -0.3288
34155SOL    HW114444   4.017  11.206   6.555 -0.3216 -1.2567 -0.2582
34155SOL    HW214445   3.883  11.248   6.499 -0.5761 -1.4094  0.2240
34156SOL     OW14446   2.776  12.172  12.174  0.3226  0.0672 -0.4323
34156SOL    HW114447   2.819  12.086  12.172  0.6581  0.2367 -0.6780
34156SOL    HW214448   2.756  12.187  12.266 -1.2609 -1.0177 -0.5417
34157SOL     OW14449   1.671  11.670  11.998 -0.2142  0.1423 -0.4831
34157SOL    HW114450   1.754  11.649  11.954  0.3963  0.8805  0.2898
34157SOL    HW214451   1.619  11.591  11.989  0.5873 -0.3522 -0.9517
34158SOL     OW14452  13.187   7.641   7.759  0.6628  0.2890 -0.3055
34158SOL    HW114453  13.258   7.593   7.801 -1.3604 -2.6331  0.0840
34158SOL    HW214454  13.207   7.637   7.666  0.2637 -2.0222 -0.3511
34159SOL     OW14455   2.681   0.850   6.938  0.3395 -0.1845  0.2012
34159SOL    HW114456   2.625   0.784   6.897 -3.1673  1.7669  1.4059
34159SOL    HW214457   2.687   0.920   6.874  0.7998 -0.0581  0.3756
34160SOL     OW14458  10.354   2.348   3.473 -0.5304  0.4068 -0.2555
34160SOL    HW114459  10.417   2.288   3.511  0.4968  0.0559 -2.3448
34160SOL    HW214460  10.269   2.321   3.509 -0.1626 -2.6197 -1.4333
34161SOL     OW14461   9.639   8.388   9.794  0.2086 -0.8435 -0.1603
34161SOL    HW114462   9.622   8.480   9.814  1.7420 -0.4094 -0.6646
34161SOL    HW214463   9.632   8.343   9.878  2.3033  0.2505  0.6824
34162SOL     OW14464  13.967   3.057  11.915  0.5164 -0.8403  0.3927
34162SOL    HW114465  13.895   3.082  11.973  0.1646 -1.3089  0.1575
34162SOL    HW214466  14.006   2.980  11.956  2.1944  0.5535  1.6196
34163SOL     OW14467   6.793   6.553   0.800 -0.3604  0.2737  0.0404
34163SOL    HW114468   6.781   6.620   0.733 -0.4745  1.1796  0.9354
34163SOL    HW214469   6.712   6.557   0.852  0.9982  1.9372  2.2347
34164SOL     OW14470   4.386   0.619  12.327 -0.0965 -0.4769 -0.4465
34164SOL    HW114471   4.316   0.561  12.296 -1.1682  1.2488 -1.4615
34164SOL    HW214472   4.463   0.563  12.334 -1.8272 -2.7889  2.0534
34165SOL     OW14473   2.421   7.844   8.110 -0.4546  0.2958  0.4108
34165SOL    HW114474   2.372   7.790   8.049 -0.3239 -1.3025  1.6665
34165SOL    HW214475   2.406   7.804   8.196  0.2752  1.8009  1.2856
34166SOL     OW14476  10.023   2.454  11.313 -0.1984  0.1885  0.2101
34166SOL    HW114477   9.971   2.385  11.354  1.2822 -0.7262  0.6204
34166SOL    HW214478   9.960   2.503  11.259 -1.3498 -1.2536  0.1853
34167SOL     OW14479   6.046   0.169  12.376 -0.3082  0.4530 -0.1745
34167SOL    HW114480   6.078   0.259  12.381 -0.0919  0.3647  0.0768
34167SOL    HW214481   6.062   0.143  12.286  2.1094 -0.2316  0.3776
34168SOL     OW14482   2.263   2.288   0.008  0.8420  0.0251 -0.0965
34168SOL    HW114483   2.232   2.203  -0.024  0.0966 -0.2772  1.3840
34168SOL    HW214484   2.345   2.302  -0.039  0.2533 -0.8242 -1.4391
34169SOL     OW14485   1.936   9.342  12.866  0.6462  0.5462 -0.2934
34169SOL    HW114486   2.028   9.334  12.892 -0.0823  1.6994  3.1414
34169SOL    HW214487   1.917   9.435  12.872 -0.6030  0.4063 -1.6291
34170SOL     OW14488   1.176  10.098   6.847  0.1955 -0.4639 -0.2197
34170SOL    HW114489   1.235  10.069   6.916 -1.0704 -1.4097  0.4971
34170SOL    HW214490   1.091  10.060   6.870 -0.5413  0.2700 -1.6051
34171SOL     OW14491   4.503   7.389  12.882  1.1716 -0.5740 -0.1027
34171SOL    HW114492   4.598   7.396  12.873  1.2477  0.7260  1.2877
34171SOL    HW214493   4.473   7.358  12.797  2.9160 -1.8574 -0.2941
34172SOL     OW14494   2.069  13.876   8.416  0.1071  0.3281 -0.2621
34172SOL    HW114495   2.127  13.801   8.430 -0.2716 -0.0537 -0.7365
34172SOL    HW214496   1.989  13.855   8.464 -0.6617 -0.3605 -1.7896
34173SOL     OW14497  12.422   2.797   4.904  0.0634 -0.1427  0.1103
34173SOL    HW114498  12.448   2.871   4.849 -1.0245  0.8703  0.8923
34173SOL    HW214499  12.447   2.822   4.993 -0.2592 -0.7440  0.3802
34174SOL     OW14500   0.959   0.365   2.829  0.0223 -0.2263 -0.2872
34174SOL    HW114501   0.978   0.456   2.806  0.9365 -0.0902  0.9382
34174SOL    HW214502   1.014   0.313   2.770  0.0760  0.0291 -0.4614
34175SOL     OW14503   5.458   7.972   8.493 -0.4083  0.2726  0.0895
34175SOL    HW114504   5.371   7.957   8.456 -1.9077 -2.3877  3.9263
34175SOL    HW214505   5.446   8.043   8.556  0.3325  0.2425  0.2808
34176SOL     OW14506   1.220  11.785  12.744 -0.7793  0.5695 -0.1068
34176SOL    HW114507   1.244  11.869  12.783  0.0719  0.3699 -0.1871
34176SOL    HW214508   1.144  11.805  12.690 -1.2349  1.0813  0.7067
34177SOL     OW14509   1.400  10.404   2.065  0.0168  0.7521 -0.5042
34177SOL    HW114510   1.355  10.345   2.125 -1.9204  1.2931 -1.3240
34177SOL    HW214511   1.466  10.350   2.022  0.9025  0.1647  1.4764
34178SOL     OW14512  12.791   1.600   7.509  0.4663  0.0060  0.0954
34178SOL    HW114513  12.739   1.607   7.429 -0.2291  0.4140  0.5753
34178SOL    HW214514  12.856   1.533   7.489 -0.5045 -0.8327 -0.3776
34179SOL     OW14515   4.537   3.716  13.165  0.2710  0.3546  0.1975
34179SOL    HW114516   4.567   3.807  13.154 -0.9419  0.8132  0.4759
34179SOL    HW214517   4.442   3.722  13.162  0.1293 -0.7455  1.5078
34180SOL     OW14518  13.159   2.936   0.888  0.5168  0.4021 -0.3643
34180SOL    HW114519  13.252   2.959   0.890  0.8536 -0.8620 -0.6558
34180SOL    HW214520  13.150   2.865   0.952 -0.3660  0.8849  0.0725
34181SOL     OW14521   6.626  13.374   0.045 -0.3236 -0.7626  0.2854
34181SOL    HW114522   6.574  13.397  -0.032  0.4355  1.5670  0.3680
34181SOL    HW214523   6.683  13.303   0.016  0.4348  0.5286 -1.5803
34182SOL     OW14524   6.606   5.536   8.864 -0.4678  0.3183  0.0514
34182SOL    HW114525   6.661   5.461   8.885 -0.6433  0.1063 -0.2363
34182SOL    HW214526   6.659   5.589   8.805 -1.2269 -0.8153 -1.7482
34183SOL     OW14527   3.885   0.718   8.035  0.5397  0.1387  0.3800
34183SOL    HW114528   3.823   0.770   7.984  1.0187 -0.3511 -0.7511
34183SOL    HW214529   3.831   0.674   8.101 -0.0370  1.1150  0.5780
34184SOL     OW14530   8.896   7.024   6.530  0.0052 -0.1457  0.0197
34184SOL    HW114531   8.806   6.994   6.519 -0.5667  1.7607 -0.9796
34184SOL    HW214532   8.894   7.079   6.609  0.3825 -0.3649  0.1875
34185SOL     OW14533   4.577   8.124   0.658  0.1568 -0.9781 -0.1590
34185SOL    HW114534   4.608   8.096   0.572  2.8477  0.5336  0.2039
34185SOL    HW214535   4.649   8.105   0.717  0.1304  1.9188  0.9710
34186SOL     OW14536   3.532   4.467   1.132  0.3631  0.6811 -0.0173
34186SOL    HW114537   3.625   4.447   1.131  0.3276  0.5141 -0.7777
34186SOL    HW214538   3.522   4.537   1.067 -0.1677  0.0969 -0.5724
34187SOL     OW14539   4.423   1.017   0.060  0.3571  0.3011  0.2267
34187SOL    HW114540   4.451   1.014   0.151  0.1657  0.5074  0.2916
34187SOL    HW214541   4.503   0.998   0.010  0.8869  1.9765  0.3689
34188SOL     OW14542   1.406   3.886  13.060  0.7473  0.0314  0.1049
34188SOL    HW114543   1.478   3.947  13.043  1.4025 -0.9104 -0.5301
34188SOL    HW214544   1.421   3.813  13.000 -0.1245 -0.6811  0.7317
34189SOL     OW14545   5.110   1.890   0.161 -0.1648  0.7706 -0.4169
34189SOL    HW114546   5.016   1.886   0.174  0.2218 -0.3404  4.0966
34189SOL    HW214547   5.129   1.821   0.099 -2.2582  0.4871 -0.8057
34190SOL     OW14548   4.853  12.171  10.945 -0.0782  0.2781 -0.3526
34190SOL    HW114549   4.928  12.198  10.998  0.1883 -2.5610  0.8944
34190SOL    HW214550   4.890  12.120  10.874 -0.6765  1.3298 -1.4504
34191SOL     OW14551  11.743   9.098   9.355  0.4496  0.6460 -0.2654
34191SOL    HW114552  11.749   9.172   9.416  1.4778 -0.5778  1.2068
34191SOL    HW214553  11.678   9.125   9.290  0.6267  2.7364  0.3506
34192SOL     OW14554  10.875   0.872   8.702 -0.2301  0.0990 -0.1891
34192SOL    HW114555  10.892   0.780   8.678  2.4395  0.4102  0.1473
34192SOL    HW214556  10.802   0.868   8.763 -0.5684 -1.7546 -0.6598
34193SOL     OW14557  12.205   6.277   5.962 -0.6045  0.7489 -0.6963
34193SOL    HW114558  12.298   6.262   5.943 -0.3276 -0.6042  1.3729
34193SOL    HW214559  12.159   6.237   5.888  0.4420 -1.0088 -0.4775
34194SOL     OW14560   6.918   2.436   3.537  0.6531  0.2400 -0.5353
34194SOL    HW114561   6.843   2.492   3.516  0.1824  0.4730  1.5723
34194SOL    HW214562   6.960   2.478   3.611  1.4089 -1.2128 -0.0953
34195SOL     OW14563   6.673   3.140  10.873  0.8047  0.0243 -0.0302
34195SOL    HW114564   6.709   3.067  10.823  0.4770  0.3350 -0.7345
34195SOL    HW214565   6.733   3.151  10.947  1.8443  0.1705 -0.8766
34196SOL     OW14566   4.713  10.056   8.633 -0.2768  0.3016  0.0674
34196SOL    HW114567   4.731   9.963   8.616 -0.6899  0.2138  0.0994
34196SOL    HW214568   4.760  10.102   8.563  1.2669  0.1696  0.9758
34197SOL     OW14569   8.977   8.667  13.676  0.0527  0.0233  0.6461
34197SOL    HW114570   8.936   8.752  13.662 -0.1158  0.0303  1.1758
34197SOL    HW214571   9.034   8.655  13.600 -0.9123  0.0170 -0.1046
34198SOL     OW14572   9.688   4.287  13.161  0.0297  0.4713 -0.2355
34198SOL    HW114573   9.654   4.280  13.072 -0.9701 -0.5560  0.1863
34198SOL    HW214574   9.647   4.366  13.197  0.6853  1.0606 -0.7868
34199SOL     OW14575  13.719   5.101   3.362  0.0338  0.2250  0.0661
34199SOL    HW114576  13.630   5.091   3.395 -0.0836  1.6340  0.2150
34199SOL    HW214577  13.766   5.147   3.431  1.2322 -1.5528  0.5069
34200SOL     OW14578   1.624  10.138   7.862  0.0947 -0.3343 -0.2501
34200SOL    HW114579   1.712  10.101   7.853  1.3267  1.6291  2.2843
34200SOL    HW214580   1.600  10.119   7.953 -2.3104 -1.0955 -0.9746
34201SOL     OW14581   0.401   2.464  13.040 -0.5380 -0.2618  0.2616
34201SOL    HW114582   0.348   2.432  13.113 -0.3450  0.8292  0.9047
34201SOL    HW214583   0.371   2.554  13.026 -2.1865 -1.0842 -2.5311
34202SOL     OW14584  11.315  10.247   6.494 -0.2647 -0.0159 -0.3242
34202SOL    HW114585  11.236  10.206   6.460  1.2682 -1.1239 -2.8896
34202SOL    HW214586  11.371  10.174   6.520  0.6499  0.6268 -0.4240
34203SOL     OW14587  13.947   7.327   7.119 -0.0078 -0.3457 -0.1342
34203SOL    HW114588  13.959   7.402   7.177 -0.6302  0.3926 -0.9237
34203SOL    HW214589  13.852   7.315   7.114  0.1116 -1.9005  0.8452
34204SOL     OW14590   4.526   7.261   0.719 -0.0887 -0.0336  0.1047
34204SOL    HW114591   4.471   7.225   0.650 -0.9387 -0.8594  1.1857
34204SOL    HW214592   4.548   7.349   0.688 -1.2475 -0.0292 -0.7749
34205SOL     OW14593   7.235  11.636  13.341  0.4831 -0.2293 -0.0967
34205SOL    HW114594   7.169  11.658  13.274 -0.0833 -2.6199 -0.3911
34205SOL    HW214595   7.319  11.643  13.295  0.3212  0.7785 -0.2830
34206SOL     OW14596   8.067  11.790  10.336 -0.3814  0.4535 -0.5744
34206SOL    HW114597   8.127  11.804  10.263  0.1073  0.1450 -0.2368
34206SOL    HW214598   8.088  11.860  10.398  0.5967 -0.4583  0.1607
34207SOL     OW14599   4.127  13.034   5.183  0.1200  0.0385  0.2686
34207SOL    HW114600   4.141  13.097   5.254 -2.7920  0.4593  0.6148
34207SOL    HW214601   4.122  12.949   5.228  1.9835 -0.2199  0.0528
34208SOL     OW14602  12.402   1.477   5.963 -0.4286  0.3314 -0.1609
34208SOL    HW114603  12.461   1.548   5.938  0.3097 -0.0009  0.5879
34208SOL    HW214604  12.362   1.507   6.045 -0.8709  0.3005 -0.3586
34209SOL     OW14605  10.227   8.579   0.751 -0.4138 -0.2368 -0.4662
34209SOL    HW114606  10.222   8.656   0.695  0.4101  0.3561  0.2660
34209SOL    HW214607  10.320   8.563   0.762 -0.5686 -0.5770  0.4224
34210SOL     OW14608   3.225   8.925   1.081  0.3194  0.0259  0.5055
34210SOL    HW114609   3.280   9.002   1.094 -0.7040  1.4178 -2.5407
34210SOL    HW214610   3.136   8.959   1.075 -0.1529 -1.3589 -1.0168
34211SOL     OW14611   4.193  13.821  10.512  0.0876  0.0480 -0.0121
34211SOL    HW114612   4.129  13.872  10.464  1.4665  2.1867  0.2951
34211SOL    HW214613   4.168  13.831  10.604  1.2250  1.5486  0.1765
34212SOL     OW14614   2.679   9.655  11.540 -0.2411 -0.1090  0.3357
34212SOL    HW114615   2.704   9.593  11.472  1.2011  0.1511  0.5795
34212SOL    HW214616   2.641   9.729  11.493 -1.4502 -0.9183  0.0058
34213SOL     OW14617   1.113  11.488   5.468 -0.2455 -0.1600 -0.8342
34213SOL    HW114618   1.167  11.489   5.390 -2.1382 -1.0116 -2.2386
34213SOL    HW214619   1.024  11.475   5.436 -1.1732  0.0256  1.4336
34214SOL     OW14620   0.074   8.818   6.026 -0.6448  0.5335  0.0376
34214SOL    HW114621   0.013   8.843   5.957 -3.4082 -0.1598  2.0658
34214SOL    HW214622   0.040   8.859   6.105  0.9848 -0.6759  1.4524
34215SOL     OW14623   5.066   7.218   8.351 -0.4671 -0.0536  0.3705
34215SOL    HW114624   5.129   7.237   8.281 -1.6872 -1.5271 -1.2332
34215SOL    HW214625   5.119   7.203   8.429  1.0532  0.1664 -0.5915
34216SOL     OW14626  11.292   1.611   1.824  0.0905 -0.5535 -0.1302
34216SOL    HW114627  11.263   1.565   1.903 -1.8939 -0.8592 -0.9689
34216SOL    HW214628  11.385   1.589   1.817 -0.5955 -4.0757 -0.1865
34217SOL     OW14629  12.302  13.769   1.699  0.0602 -0.1653  0.1571
34217SOL    HW114630  12.237  13.756   1.630 -0.3127 -0.0714  0.4898
34217SOL    HW214631  12.354  13.843   1.668  0.0905 -0.3191 -0.1679
34218SOL     OW14632   2.199   3.140   2.471 -0.3902  0.0503 -0.2315
34218SOL    HW114633   2.267   3.138   2.538  0.5376 -0.9250 -1.1531
34218SOL    HW214634   2.212   3.059   2.422 -3.2006 -0.9406  0.4953
34219SOL     OW14635   4.026   1.352   2.875  0.1411  0.2729  0.7532
34219SOL    HW114636   4.104   1.407   2.885  0.4575 -0.4572  2.7820
34219SOL    HW214637   4.044   1.275   2.929 -1.5234 -0.4444  0.3433
34220SOL     OW14638   1.206  12.628  11.478  0.2648 -0.1782 -0.0371
34220SOL    HW114639   1.262  12.551  11.489  0.2969 -0.1411  0.0569
34220SOL    HW214640   1.168  12.617  11.391 -0.0091 -0.4822  0.1198
34221SOL     OW14641   4.039   0.798   9.646 -0.1503 -0.0626 -0.2263
34221SOL    HW114642   4.056   0.858   9.574 -1.8093 -1.1998 -1.6307
34221SOL    HW214643   3.944   0.795   9.654 -0.0897 -1.9252  0.2694
34222SOL     OW14644   1.513  10.643   4.060  0.6054 -0.2620 -0.1645
34222SOL    HW114645   1.441  10.704   4.078 -0.3483 -1.2970 -0.3508
34222SOL    HW214646   1.546  10.669   3.974 -1.8506 -1.8682 -1.7124
34223SOL     OW14647   5.220  10.159   3.375 -0.2468 -0.3800 -0.0243
34223SOL    HW114648   5.155  10.224   3.346 -0.8695 -0.6306  0.7843
34223SOL    HW214649   5.222  10.168   3.470 -0.7904 -1.9623  0.1535
34224SOL     OW14650   9.545  11.182   9.042 -0.3721  0.5087  0.0082
34224SOL    HW114651   9.520  11.244   9.112  0.8868  0.7809  0.2414
34224SOL    HW214652   9.577  11.238   8.971  0.7758  0.1567  0.2215
34225SOL     OW14653   5.312   6.277   0.781 -0.0452 -0.5169 -0.4587
34225SOL    HW114654   5.292   6.309   0.869  2.7448  0.9031 -0.2353
34225SOL    HW214655   5.350   6.352   0.736 -0.1631 -1.5873 -2.4458
34226SOL     OW14656   1.974   3.948   4.445 -0.0239 -0.5632  0.3858
34226SOL    HW114657   1.992   3.872   4.390  0.3431 -0.7132  0.7097
34226SOL    HW214658   2.021   4.020   4.403  0.7113 -0.7933  0.8021
34227SOL     OW14659   5.983  12.855   4.859 -0.0538  0.4257  0.9277
34227SOL    HW114660   6.038  12.932   4.876 -0.7919  1.3461 -0.6019
34227SOL    HW214661   6.043  12.781   4.867  1.1200  1.2956  0.5892
34228SOL     OW14662   0.855   8.629   8.997 -0.0837 -0.6791  0.1354
34228SOL    HW114663   0.883   8.612   9.086 -0.2194 -0.4764  0.2171
34228SOL    HW214664   0.917   8.581   8.942  1.0237  0.5422  0.2733
34229SOL     OW14665  13.472  12.596   3.659  0.3453 -0.0674 -0.1450
34229SOL    HW114666  13.447  12.646   3.737  0.2741  0.5828 -0.5740
34229SOL    HW214667  13.464  12.659   3.587 -0.0136 -0.7768 -0.7398
34230SOL     OW14668   1.471   9.806   8.230  0.1286 -0.4867  0.1404
34230SOL    HW114669   1.403   9.755   8.273 -0.2142 -0.4033 -0.2968
34230SOL    HW214670   1.506   9.747   8.162  0.1588 -0.3593  0.0438
34231SOL     OW14671  13.055   4.295   3.234  0.6853 -0.5322  0.1768
34231SOL    HW114672  13.063   4.236   3.309  0.6780 -0.9599 -0.1566
34231SOL    HW214673  13.094   4.377   3.264 -0.4807 -0.2862  1.0911
34232SOL     OW14674   8.902   4.664   4.890  0.0785 -0.2386 -0.5332
34232SOL    HW114675   8.909   4.583   4.840  1.1663  0.2215 -1.1774
34232SOL    HW214676   8.966   4.655   4.961  1.7684  0.8492 -1.8266
34233SOL     OW14677  10.755  10.458   7.926  0.1956 -0.2643 -0.4659
34233SOL    HW114678  10.781  10.402   7.853  2.2600  2.8301 -2.3194
34233SOL    HW214679  10.838  10.482   7.968 -0.7470  0.3156  1.1576
34234SOL     OW14680   6.152   2.026  10.586 -0.1923 -0.6042 -0.5174
34234SOL    HW114681   6.075   1.970  10.596 -0.4214 -0.3501 -0.8709
34234SOL    HW214682   6.222   1.978  10.631 -0.6640 -0.6081  0.2250
34235SOL     OW14683  11.094   3.519   7.925 -0.0159 -0.9817 -0.0065
34235SOL    HW114684  11.067   3.602   7.965  1.7565  0.0369 -0.7768
34235SOL    HW214685  11.069   3.528   7.833 -2.1091 -2.4081  0.3585
34236SOL     OW14686   2.172  10.403  13.767  0.0065 -0.1150 -0.0990
34236SOL    HW114687   2.178  10.353  13.848  0.0276  0.9489  0.5686
34236SOL    HW214688   2.095  10.367  13.723 -0.8459  0.2386  1.0571
34237SOL     OW14689   0.593  10.726   1.434 -0.4979  0.1231  0.1755
34237SOL    HW114690   0.596  10.635   1.404 -0.2459  0.4277 -0.7707
34237SOL    HW214691   0.541  10.724   1.514  2.8179 -1.5191  2.5433
34238SOL     OW14692  13.611   7.597   2.376  0.7749  0.4986  0.1412
34238SOL    HW114693  13.575   7.622   2.461 -1.1351 -0.1790 -0.4306
34238SOL    HW214694  13.605   7.502   2.374 -1.5528  0.6056 -1.6845
34239SOL     OW14695   2.523  14.030  10.085 -0.4672 -0.1001  0.0175
34239SOL    HW114696   2.467  14.079  10.145  2.5268  1.0904  2.1130
34239SOL    HW214697   2.507  13.938  10.107 -0.8722  0.2536  1.3044
34240SOL     OW14698  10.211   3.162   4.068  0.0439 -0.4700  0.2856
34240SOL    HW114699  10.159   3.121   4.138 -0.4748  0.8438  0.6942
34240SOL    HW214700  10.153   3.227   4.029  0.8456 -0.1217 -0.3563
34241SOL     OW14701   6.654  13.636   7.846 -0.3157 -0.5091  0.2571
34241SOL    HW114702   6.732  13.686   7.822 -0.6193 -0.6685 -1.1402
34241SOL    HW214703   6.687  13.563   7.898  0.1037  1.3438  2.8340
34242SOL     OW14704   7.945   7.772   8.386  0.2985  0.6139  0.3979
34242SOL    HW114705   7.958   7.728   8.470  0.6665 -0.3234 -0.1312
34242SOL    HW214706   8.010   7.842   8.385  2.2615 -1.1240 -0.2615
34243SOL     OW14707   1.803   7.279   2.152 -0.1045  0.0666 -0.4209
34243SOL    HW114708   1.848   7.316   2.228  1.9915 -1.6450 -0.7364
34243SOL    HW214709   1.870   7.270   2.085 -1.2851 -1.0757 -1.5209
34244SOL     OW14710  10.725   1.453   2.384  0.0442 -0.0205 -0.3905
34244SOL    HW114711  10.737   1.546   2.404  0.4298  0.2112 -1.5976
34244SOL    HW214712  10.631   1.441   2.378 -0.0931 -0.1072  1.4773
34245SOL     OW14713   2.527   4.810  11.150 -0.9623 -0.3065 -0.2485
34245SOL    HW114714   2.572   4.775  11.073 -1.3146 -1.8954  0.2468
34245SOL    HW214715   2.585   4.880  11.181  1.1188 -2.1491  0.2565
34246SOL     OW14716  14.003   6.063  12.643 -0.2658 -0.5821  0.1468
34246SOL    HW114717  14.037   5.982  12.606 -0.9801 -0.1592 -1.5225
34246SOL    HW214718  14.001   6.124  12.570 -0.9480  0.5564  1.0796
34247SOL     OW14719   0.799   0.662   7.288 -0.7703 -0.1435  0.5518
34247SOL    HW114720   0.821   0.637   7.378  2.0937  0.4805  0.1206
34247SOL    HW214721   0.850   0.603   7.233 -1.8138  0.0458 -0.6865
34248SOL     OW14722   6.037  10.412   0.579 -0.2333 -0.0403 -0.2753
34248SOL    HW114723   6.078  10.380   0.498 -0.9454 -0.2096 -0.5734
34248SOL    HW214724   6.045  10.508   0.573 -2.2313  0.0975 -1.6221
34249SOL     OW14725  13.920   6.374   3.998 -0.3170  0.4595 -0.2674
34249SOL    HW114726  14.010   6.384   4.028 -0.6081 -0.6948  1.0967
34249SOL    HW214727  13.895   6.462   3.967  1.6079  0.5540 -1.7748
34250SOL     OW14728  12.467   4.781   1.783 -0.6297  0.1873 -0.1601
34250SOL    HW114729  12.502   4.820   1.863 -2.0132 -0.3114  0.7428
34250SOL    HW214730  12.440   4.855   1.730 -0.9252  0.5175  0.4361
34251SOL     OW14731   5.612  13.767  12.068  0.1480 -0.2246 -0.3017
34251SOL    HW114732   5.670  13.692  12.073 -0.1626 -0.3977  1.3732
34251SOL    HW214733   5.549  13.754  12.139 -0.6491  1.0111 -0.7398
34252SOL     OW14734   4.005  10.855   7.839 -0.3520 -0.0829  0.5042
34252SOL    HW114735   3.944  10.918   7.878 -0.5908 -0.1682  0.2752
34252SOL    HW214736   3.978  10.849   7.747  1.0390  1.1172 -0.0106
34253SOL     OW14737  12.233   9.063  11.546  0.6582 -0.0837 -0.5977
34253SOL    HW114738  12.162   9.001  11.532  0.3060  0.2988 -0.5223
34253SOL    HW214739  12.312   9.016  11.518  0.6050 -1.1121  0.8181
34254SOL     OW14740   6.907   6.177   2.692 -0.2094 -0.4770 -0.1859
34254SOL    HW114741   6.891   6.085   2.668  0.5500 -0.3128 -1.4000
34254SOL    HW214742   6.882   6.226   2.614 -0.1695  0.3158  0.2958
34255SOL     OW14743   1.157  13.877  12.536  0.1990 -0.6189 -0.2011
34255SOL    HW114744   1.139  13.971  12.530  1.3889 -0.2703  1.2085
34255SOL    HW214745   1.073  13.839  12.561 -0.3652  0.0207 -1.0664
34256SOL     OW14746   6.761  12.787   6.103 -0.2047 -0.5104 -0.0651
34256SOL    HW114747   6.734  12.779   6.012  2.1107  1.9822 -1.0825
34256SOL    HW214748   6.708  12.860   6.137 -1.2658 -1.6093  0.7445
34257SOL     OW14749   6.474   6.994  10.265  0.1081  0.3031  0.1304
34257SOL    HW114750   6.438   7.001  10.177 -0.3208  1.2263  0.3771
34257SOL    HW214751   6.452   6.905  10.293  0.4571 -0.0777 -0.7765
34258SOL     OW14752  10.557  12.922   9.853 -0.3187  0.3766 -0.1310
34258SOL    HW114753  10.608  12.975   9.792 -2.3321  1.0791 -1.2935
34258SOL    HW214754  10.620  12.894   9.919  1.9075 -0.1132 -2.3061
34259SOL     OW14755  12.182   1.711  10.833  0.5976  0.4452 -0.2573
34259SOL    HW114756  12.198   1.778  10.899  0.6835  1.2582 -1.0803
34259SOL    HW214757  12.183   1.629  10.881  0.3532  1.0423  0.7986
34260SOL     OW14758   1.776  10.135  12.324 -0.1270  0.1135  0.3712
34260SOL    HW114759   1.723  10.068  12.366 -1.6629  1.3346  0.4868
34260SOL    HW214760   1.713  10.186  12.273  1.3095  0.2123 -1.3783
34261SOL     OW14761  12.367   0.133   8.705  0.4557 -0.4208 -0.1082
34261SOL    HW114762  12.346   0.053   8.657  0.5820 -1.0797  0.9266
34261SOL    HW214763  12.421   0.184   8.644 -1.3160 -0.1733 -1.5611
34262SOL     OW14764  12.869  12.377   3.495 -0.1450  0.1960 -0.1088
34262SOL    HW114765  12.884  12.466   3.528  1.0093  0.1666 -0.4920
34262SOL    HW214766  12.856  12.388   3.401 -1.0196  0.0480 -0.0122
34263SOL     OW14767  13.186   0.598   5.704 -0.4543 -0.4371  0.7531
34263SOL    HW114768  13.158   0.641   5.623 -0.2911 -0.0529  0.8967
34263SOL    HW214769  13.105   0.563   5.742 -0.7057  0.3649  0.9895
34264SOL     OW14770   5.963   0.736   6.041 -0.0039  0.1759 -0.4186
34264SOL    HW114771   5.918   0.688   5.971  1.7647 -1.2248 -0.6701
34264SOL    HW214772   6.014   0.802   5.996  0.7977 -0.4444 -0.4418
34265SOL     OW14773   3.608   6.415   2.161  0.8569 -0.1711  0.2375
34265SOL    HW114774   3.581   6.328   2.133  0.5140  0.1195 -0.3717
34265SOL    HW214775   3.625   6.462   2.079 -1.2943  1.0637  0.4169
34266SOL     OW14776   2.653   3.505  10.532  0.3225 -0.0031  0.4313
34266SOL    HW114777   2.622   3.592  10.505  3.9631  1.3944  0.1944
34266SOL    HW214778   2.609   3.489  10.616 -0.6337  1.9307  0.3677
34267SOL     OW14779  10.856  13.941  12.480  0.1433  0.0598  0.0483
34267SOL    HW114780  10.764  13.956  12.458  0.5353  1.8102 -0.5697
34267SOL    HW214781  10.904  13.961  12.400  1.0227 -2.0415 -0.0171
34268SOL     OW14782   2.976   3.423   9.508 -0.5154 -0.7451  0.0831
34268SOL    HW114783   3.054   3.396   9.557 -0.7880 -1.1652  0.2900
34268SOL    HW214784   2.924   3.472   9.571 -1.3257 -2.1135  0.5146
34269SOL     OW14785   9.707  10.829   0.307  0.1263  0.3162 -0.1414
34269SOL    HW114786   9.710  10.839   0.212  1.5155  2.3869  0.0366
34269SOL    HW214787   9.617  10.851   0.331  0.1231  1.1830 -0.8910
34270SOL     OW14788  10.665   3.495   1.294 -0.2912  0.1062  0.2590
34270SOL    HW114789  10.736   3.474   1.355 -0.6610 -0.9867  0.3320
34270SOL    HW214790  10.599   3.538   1.348 -0.7819 -1.1990  0.7277
34271SOL     OW14791   5.612   5.845   2.238  0.4752 -0.2299  0.2056
34271SOL    HW114792   5.697   5.877   2.208  0.3286 -1.2434 -1.4517
34271SOL    HW214793   5.618   5.750   2.229 -0.7829 -0.3274  0.1714
34272SOL     OW14794   8.930   6.960   7.935 -0.0034  0.5021  0.2491
34272SOL    HW114795   8.859   6.896   7.938  0.8987 -0.5447  0.1020
34272SOL    HW214796   8.911   7.013   7.858  0.5821 -1.2582 -1.1786
34273SOL     OW14797   0.661   8.573  11.247 -0.0894 -0.0845 -0.3070
34273SOL    HW114798   0.629   8.622  11.171 -0.9917  0.0656  0.1552
34273SOL    HW214799   0.648   8.481  11.223 -1.4408 -0.0158  0.0956
34274SOL     OW14800   9.692   5.302   8.992  0.3497 -0.1176 -0.1771
34274SOL    HW114801   9.702   5.278   9.084  1.6565 -2.6543 -0.8808
34274SOL    HW214802   9.779   5.330   8.965  0.2080 -0.3329 -0.8735
34275SOL     OW14803   5.221  10.287  11.227 -0.0010  0.4296 -0.0570
34275SOL    HW114804   5.145  10.234  11.253 -0.6451  1.6671  0.7274
34275SOL    HW214805   5.244  10.255  11.140 -0.0206 -1.4645  0.5891
34276SOL     OW14806  10.883   2.380  12.256 -0.3412  0.2207 -0.3952
34276SOL    HW114807  10.977   2.394  12.244 -0.0539 -1.7944 -0.7970
34276SOL    HW214808  10.842   2.450  12.206  0.9554 -0.3359 -2.3705
34277SOL     OW14809   0.735  13.727  11.486  0.3316 -0.2998 -0.6160
34277SOL    HW114810   0.797  13.705  11.416 -0.6902 -0.0215 -1.6283
34277SOL    HW214811   0.790  13.735  11.565  1.4101 -1.2627 -1.2420
34278SOL     OW14812   7.469  12.635   2.365 -0.3085  0.5484 -0.7126
34278SOL    HW114813   7.510  12.597   2.288 -2.5097  0.7020 -2.0333
34278SOL    HW214814   7.497  12.727   2.365  1.6980  0.0097  0.1697
34279SOL     OW14815   5.399   4.044  12.247 -0.3447 -0.1124  0.3105
34279SOL    HW114816   5.411   3.971  12.309  2.3875  0.6512  0.8015
34279SOL    HW214817   5.392   4.121  12.302 -2.6212  0.1253 -0.2374
34280SOL     OW14818  11.826   4.796  10.050 -0.3450  0.0556  0.0879
34280SOL    HW114819  11.884   4.730  10.088 -0.6524 -0.3285 -0.0941
34280SOL    HW214820  11.739   4.772  10.082 -0.4706  0.3161 -0.0586
34281SOL     OW14821  12.384  10.751   0.274  0.2101 -0.0237  0.1738
34281SOL    HW114822  12.421  10.728   0.360  0.7489  0.6902  0.1480
34281SOL    HW214823  12.458  10.744   0.214 -0.4257 -1.6954 -0.4693
34282SOL     OW14824   5.506   0.393   7.548  0.1693 -0.4220  0.3206
34282SOL    HW114825   5.541   0.307   7.524  0.0893 -0.6476  0.9817
34282SOL    HW214826   5.582   0.451   7.549  0.1593 -0.3861 -0.5464
34283SOL     OW14827   9.077   4.022  14.012 -0.1109  0.1629 -0.0441
34283SOL    HW114828   9.071   4.054  14.102  0.6167  0.0657  0.0421
34283SOL    HW214829   9.140   3.950  14.017  0.3784  0.5420 -0.7394
34284SOL     OW14830   4.323   1.657   8.930  0.1072  0.1021  0.3702
34284SOL    HW114831   4.292   1.593   8.994 -0.5047 -0.7658 -0.7634
34284SOL    HW214832   4.367   1.724   8.983  0.2802 -0.9632  1.6299
34285SOL     OW14833  12.340   9.651   8.569  0.4615 -0.7746  0.3616
34285SOL    HW114834  12.321   9.570   8.616 -0.2997 -0.3126  0.8777
34285SOL    HW214835  12.254   9.685   8.543  0.8029 -0.4140 -0.3245
34286SOL     OW14836   2.509   2.187   7.162  0.5538 -0.1595  0.8949
34286SOL    HW114837   2.550   2.173   7.076  1.7015  0.1231  1.3826
34286SOL    HW214838   2.430   2.238   7.142  1.3081  0.7439  0.0901
34287SOL     OW14839   0.616  11.624   4.168  0.7914  0.4694 -0.1084
34287SOL    HW114840   0.578  11.709   4.147  3.1636  1.2186 -1.8497
34287SOL    HW214841   0.636  11.630   4.262 -1.7659  0.6179  0.4866
34288SOL     OW14842   3.699   8.509  11.869  0.0208  0.5100 -0.0399
34288SOL    HW114843   3.651   8.427  11.881  1.1607 -0.0262  1.0701
34288SOL    HW214844   3.680   8.560  11.948  0.1384  0.9002 -0.2580
34289SOL     OW14845   8.189   0.468   7.268  0.2098 -0.0912 -0.2521
34289SOL    HW114846   8.148   0.553   7.250  1.0040  0.3540 -0.0044
34289SOL    HW214847   8.280   0.489   7.290  0.0961 -0.8778  1.1049
34290SOL     OW14848   8.796  12.882   5.086  0.3435 -0.6347  0.5200
34290SOL    HW114849   8.762  12.971   5.075  0.2343 -0.5155  1.7213
34290SOL    HW214850   8.722  12.834   5.124  0.4766 -1.1974  0.0835
34291SOL     OW14851   0.098   8.459   5.155 -0.6796 -0.3391  0.2148
34291SOL    HW114852   0.125   8.426   5.070  0.0690  0.9112 -0.0625
34291SOL    HW214853   0.146   8.541   5.165 -0.3699 -0.6980  2.0546
34292SOL     OW14854   4.855   3.583   9.543  0.2382  0.2568  0.0360
34292SOL    HW114855   4.875   3.542   9.627 -0.7462  1.3049  0.8230
34292SOL    HW214856   4.763   3.562   9.527  0.6850 -0.8231 -1.3401
34293SOL     OW14857   9.085   9.980   4.725  0.1586 -0.0583 -0.0045
34293SOL    HW114858   9.008   9.984   4.782  1.5177  0.5075  1.8830
34293SOL    HW214859   9.078  10.059   4.671 -0.5347  0.0206  0.1843
34294SOL     OW14860   0.014   8.519   9.862  0.1601 -0.1772  0.2374
34294SOL    HW114861   0.048   8.476   9.784 -0.2636  0.1925 -0.1598
34294SOL    HW214862   0.071   8.490   9.932 -0.2449 -1.5636  0.0282
34295SOL     OW14863   0.278   2.495   1.355  0.1315 -0.5548  0.2124
34295SOL    HW114864   0.195   2.543   1.347  1.2652  1.2749 -1.3573
34295SOL    HW214865   0.271   2.424   1.291  0.5649  0.9251 -1.5733
34296SOL     OW14866  11.035  11.145  12.982 -0.6016  0.1007  0.1317
34296SOL    HW114867  11.057  11.059  13.017  0.6911  0.5801  0.5311
34296SOL    HW214868  11.008  11.197  13.058  3.0261  1.4021  0.7045
34297SOL     OW14869  10.990   4.480  10.450  0.6707 -0.1042  0.2256
34297SOL    HW114870  10.913   4.422  10.447 -0.6232  1.6096 -1.4027
34297SOL    HW214871  10.987   4.519  10.538 -0.3079 -0.0777  0.1889
34298SOL     OW14872  13.306   8.962   9.055 -0.0294 -0.1697 -0.2882
34298SOL    HW114873  13.300   8.931   8.965  0.4474 -0.3538 -0.2550
34298SOL    HW214874  13.275   9.053   9.051 -0.3043 -0.2761 -0.5816
34299SOL     OW14875   8.231   8.337  10.025  0.1882  0.2286 -0.2525
34299SOL    HW114876   8.151   8.314  10.072  1.0718  0.6505  1.5521
34299SOL    HW214877   8.233   8.433  10.027  0.1234  0.2756 -1.4213
34300SOL     OW14878   0.769   8.114   3.486  0.1483  0.3005 -0.1756
34300SOL    HW114879   0.844   8.163   3.520 -0.2212  1.3979 -0.9067
34300SOL    HW214880   0.694   8.172   3.499 -0.6807 -0.9244  0.8955
34301SOL     OW14881  11.063  10.165   7.221  0.4644  0.0984  0.2333
34301SOL    HW114882  11.152  10.196   7.204  0.0074  0.6661 -1.2940
34301SOL    HW214883  11.007  10.239   7.197 -0.6582 -1.6756 -3.4099
34302SOL     OW14884  13.402  11.725   0.980 -0.0892  0.2132  0.3684
34302SOL    HW114885  13.447  11.723   0.895 -0.2745 -2.2303  0.2759
34302SOL    HW214886  13.310  11.713   0.958 -0.0918 -0.8639  0.9190
34303SOL     OW14887   7.651  10.554  13.061  0.1630 -0.2268 -0.3620
34303SOL    HW114888   7.592  10.480  13.062 -0.1254 -0.0603 -2.2175
34303SOL    HW214889   7.597  10.628  13.033  0.1217  1.0363  2.7159
34304SOL     OW14890   5.791  10.058  10.823 -0.0158  0.4010  0.0464
34304SOL    HW114891   5.736  10.029  10.896  0.9630 -2.1722 -0.1475
34304SOL    HW214892   5.742  10.033  10.744  0.4322  0.0951 -0.1407
34305SOL     OW14893  13.107   3.584   8.466  0.4978  0.5674  0.4267
34305SOL    HW114894  13.040   3.525   8.432  1.7888 -1.1003  0.6401
34305SOL    HW214895  13.073   3.672   8.449 -0.9785 -0.2224 -0.9510
34306SOL     OW14896   1.145   3.749   0.226 -0.3079  0.1777 -0.4880
34306SOL    HW114897   1.226   3.719   0.186  0.0229 -0.6128  0.7283
34306SOL    HW214898   1.144   3.844   0.210 -0.0859 -0.0615 -2.1055
34307SOL     OW14899   5.825   1.821   2.817 -0.6737  0.1335  0.2307
34307SOL    HW114900   5.857   1.858   2.899 -1.0891  0.8117  0.0905
34307SOL    HW214901   5.758   1.882   2.787 -0.0329  0.2774 -0.9816
34308SOL     OW14902  10.427  11.403   8.505  0.3949 -0.5148 -0.3909
34308SOL    HW114903  10.386  11.406   8.418 -0.0814  0.4636 -0.1522
34308SOL    HW214904  10.509  11.451   8.494 -0.2965  0.7904 -0.0007
34309SOL     OW14905   0.010   9.326   7.806  0.3802  0.2603 -0.0931
34309SOL    HW114906  -0.037   9.264   7.861  2.0195 -1.3975 -0.4615
34309SOL    HW214907   0.024   9.279   7.724  0.7217  1.5244 -0.7798
34310SOL     OW14908   8.424   7.134  12.368  0.3815  0.0236 -0.3780
34310SOL    HW114909   8.350   7.074  12.368 -0.0589  0.5547  0.0799
34310SOL    HW214910   8.477   7.107  12.443  0.7401 -0.4584 -0.8011
34311SOL     OW14911  12.177   6.925  10.087 -0.2240 -0.1543 -0.0376
34311SOL    HW114912  12.092   6.880  10.089  0.0792 -0.7272  2.2328
34311SOL    HW214913  12.230   6.872  10.027 -1.4982  0.3607 -1.6929
34312SOL     OW14914   4.241   2.168   7.221  0.3195 -0.1700 -0.4472
34312SOL    HW114915   4.149   2.187   7.203 -0.3444 -2.9587 -0.4432
34312SOL    HW214916   4.257   2.205   7.308 -1.1302 -0.6347  0.0455
34313SOL     OW14917   2.660   9.952   9.886 -0.4925  0.2261 -0.0761
34313SOL    HW114918   2.591   9.959   9.952 -0.9924  1.0573 -0.6760
34313SOL    HW214919   2.740   9.939   9.937 -1.0469 -0.5319  0.6327
34314SOL     OW14920  14.027  13.189   2.903  0.1318  0.7842 -0.0310
34314SOL    HW114921  14.071  13.112   2.939 -0.2663  0.0838 -0.9760
34314SOL    HW214922  13.988  13.233   2.978 -0.7244 -0.6542  0.3991
34315SOL     OW14923   2.820   4.448   4.239  0.3193  0.2422 -0.3915
34315SOL    HW114924   2.887   4.500   4.195  1.4196  0.1425  1.0993
34315SOL    HW214925   2.860   4.361   4.251  0.4392  0.5280  1.5978
34316SOL     OW14926  12.919  11.438   4.334 -0.2801 -0.5924 -0.0452
34316SOL    HW114927  12.957  11.355   4.362  0.8101  0.0972  0.5950
34316SOL    HW214928  12.894  11.482   4.416 -2.5529 -1.0391 -0.4415
34317SOL     OW14929   5.837   5.309  11.814  0.2536 -0.4977  0.4147
34317SOL    HW114930   5.927   5.338  11.829  1.1568 -1.8713 -1.6813
34317SOL    HW214931   5.816   5.343  11.727 -1.7038  0.6941  1.2963
34318SOL     OW14932   1.650   7.652  11.940 -0.6732 -0.2652 -0.5046
34318SOL    HW114933   1.664   7.572  11.888 -0.1727 -0.1929 -0.4925
34318SOL    HW214934   1.657   7.622  12.031 -1.7307 -0.4231 -0.4694
34319SOL     OW14935   1.507   1.536   6.827  0.8880  0.4787 -0.3089
34319SOL    HW114936   1.454   1.456   6.833  1.7071  0.0196  1.4889
34319SOL    HW214937   1.556   1.526   6.745 -0.1679 -0.1116 -0.8854
34320SOL     OW14938  12.510   5.074   4.163  0.2562  0.2352  0.0703
34320SOL    HW114939  12.529   5.137   4.233 -0.3957 -1.4587  1.8455
34320SOL    HW214940  12.538   4.990   4.199  1.7568 -0.4789 -2.5059
34321SOL     OW14941   4.065  12.480  11.659 -0.2543 -0.7365  0.3465
34321SOL    HW114942   4.091  12.522  11.577 -0.7872 -0.3193  0.3901
34321SOL    HW214943   3.983  12.436  11.638  0.1279 -1.4857  0.3885
34322SOL     OW14944   2.383   9.691   5.915 -0.2502 -0.4519 -0.2949
34322SOL    HW114945   2.452   9.633   5.946  0.7645  1.1542  0.5971
34322SOL    HW214946   2.426   9.748   5.852 -0.7914  0.4413  0.1251
34323SOL     OW14947  10.037  11.854  11.585 -0.1158 -0.4532  0.5161
34323SOL    HW114948  10.090  11.926  11.551 -1.2450  0.7372  1.1876
34323SOL    HW214949  10.083  11.775  11.557  1.0489  0.5183 -0.4157
34324SOL     OW14950  10.721   6.544   6.027 -0.4391 -0.3520 -0.4268
34324SOL    HW114951  10.720   6.633   6.061  0.9788 -0.8247  0.9512
34324SOL    HW214952  10.629   6.525   6.006 -0.9500  0.9414  0.5654
34325SOL     OW14953  10.873   9.159   6.204  0.6461 -0.2148 -0.1088
34325SOL    HW114954  10.948   9.135   6.151  0.9056  1.7114 -0.7083
34325SOL    HW214955  10.854   9.250   6.179 -1.1814 -0.2828  0.8334
34326SOL     OW14956  12.273  12.471   2.601 -0.1973 -0.4919 -0.1480
34326SOL    HW114957  12.281  12.378   2.580  2.1890 -0.2132 -0.7135
34326SOL    HW214958  12.312  12.479   2.688  1.5314  0.2434 -0.9440
34327SOL     OW14959   6.317   0.692   2.778 -0.3986 -0.2238  0.1668
34327SOL    HW114960   6.235   0.704   2.729  0.5579  1.8210 -1.0889
34327SOL    HW214961   6.384   0.732   2.722  1.0658  0.5011  2.3116
34328SOL     OW14962   3.879   9.692   7.591  0.1637  0.0555  0.4541
34328SOL    HW114963   3.908   9.778   7.619 -0.9369  0.2434  1.0683
34328SOL    HW214964   3.785   9.691   7.609 -0.1618 -0.6638 -1.1082
34329SOL     OW14965   4.438   1.538  12.525 -0.6567  0.7507  0.4246
34329SOL    HW114966   4.382   1.615  12.517 -1.1664  0.4227  0.7595
34329SOL    HW214967   4.503   1.548  12.454  0.2994  2.2982  1.4501
34330SOL     OW14968   6.384  14.034  13.710  0.3907  0.6286  0.2259
34330SOL    HW114969   6.335  13.998  13.784 -1.4630  1.8688 -0.3442
34330SOL    HW214970   6.443  14.098  13.750 -1.0154  1.7198  0.6165
34331SOL     OW14971   5.641   4.853   5.179 -0.1043 -0.5345  0.3197
34331SOL    HW114972   5.590   4.851   5.098  1.1754 -2.1184 -0.5115
34331SOL    HW214973   5.600   4.922   5.232 -0.2921  1.3417 -2.1089
34332SOL     OW14974   0.809   2.467   7.797 -0.0392 -0.4790 -0.6331
34332SOL    HW114975   0.724   2.474   7.754  0.3204  0.4395 -1.2121
34332SOL    HW214976   0.850   2.552   7.785  0.9365 -0.8776 -0.2787
34333SOL     OW14977  10.562  13.708   3.274  0.6438 -0.0711 -0.2026
34333SOL    HW114978  10.521  13.670   3.196 -0.3238  0.6298 -0.0484
34333SOL    HW214979  10.651  13.731   3.245  0.3402  0.0666 -1.0692
34334SOL     OW14980   3.214   7.061   2.456  0.4074  0.3129 -0.2581
34334SOL    HW114981   3.165   6.989   2.495  0.3809 -1.3925 -3.1047
34334SOL    HW214982   3.305   7.042   2.478  0.3015  0.0070 -0.0769
34335SOL     OW14983   7.413   0.580   4.228  0.3229 -0.3759 -0.0911
34335SOL    HW114984   7.390   0.664   4.188 -0.1615  0.2416  1.4152
34335SOL    HW214985   7.332   0.550   4.269  0.8811 -0.8075  0.7172
34336SOL     OW14986  11.618   9.129  10.691 -0.5249 -0.1624  0.4340
34336SOL    HW114987  11.683   9.147  10.758 -0.3210 -0.5242  0.3370
34336SOL    HW214988  11.562   9.061  10.729 -0.2041 -0.6143  0.1143
34337SOL     OW14989   5.898   8.807  12.309 -0.3398  0.1641  0.2945
34337SOL    HW114990   5.853   8.724  12.324  0.3544 -0.2881 -0.0699
34337SOL    HW214991   5.957   8.817  12.384 -0.4858  0.3714  0.3823
34338SOL     OW14992   6.763   9.424   2.841 -0.7294  0.3454  0.0374
34338SOL    HW114993   6.715   9.352   2.882 -2.4982  0.1456 -2.1948
34338SOL    HW214994   6.818   9.382   2.775 -0.7684  0.9252 -0.3686
34339SOL     OW14995  12.795   7.545   9.302  0.4232  0.3648  0.6860
34339SOL    HW114996  12.780   7.455   9.272 -0.6574  0.8738 -0.3381
34339SOL    HW214997  12.890   7.549   9.318  0.6821 -0.5955 -0.4662
34340SOL     OW14998  12.019   1.403   1.977  0.0188 -0.1032 -0.2755
34340SOL    HW114999  11.962   1.410   1.900 -1.0936 -0.8085  0.4470
34340SOL    HW215000  11.985   1.470   2.037 -0.9030 -1.3507  0.6554
34341SOL     OW15001   5.121   9.104  10.190  0.3894  0.2585  0.4777
34341SOL    HW115002   5.106   9.012  10.172  1.2166  0.2387 -0.1833
34341SOL    HW215003   5.034   9.139  10.211 -0.1338 -0.4045 -0.4955
34342SOL     OW15004   3.547   8.773   8.130 -0.2476 -0.1810  0.2161
34342SOL    HW115005   3.565   8.806   8.218 -0.0671  0.7151 -0.1529
34342SOL    HW215006   3.591   8.834   8.071  1.8075 -2.1610 -0.4416
34343SOL     OW15007  13.719  13.267  12.803  0.3039 -0.1548  0.3038
34343SOL    HW115008  13.766  13.221  12.873  3.1722 -1.1772 -2.0722
34343SOL    HW215009  13.709  13.201  12.734 -2.2046  0.8729 -0.3938
34344SOL     OW15010   3.731  10.854  11.524  0.0834 -0.0031  0.6808
34344SOL    HW115011   3.757  10.826  11.436 -0.3874  0.6156  0.3372
34344SOL    HW215012   3.806  10.903  11.557 -0.4779  1.4947 -0.1766
34345SOL     OW15013   0.922   4.944  10.845  0.3011  0.2130  0.0613
34345SOL    HW115014   0.899   4.917  10.756 -1.3174 -1.0895  0.8162
34345SOL    HW215015   0.842   4.981  10.881  0.7962  0.2765  1.1410
34346SOL     OW15016  11.231  11.178  10.321  0.0727  0.0252  0.2283
34346SOL    HW115017  11.170  11.126  10.269  0.2386  0.9049 -0.8879
34346SOL    HW215018  11.317  11.140  10.301  0.5002  2.0649 -2.4584
34347SOL     OW15019   6.893   5.260   0.643 -0.2006 -0.4001  0.2519
34347SOL    HW115020   6.829   5.189   0.630 -0.2484 -0.0943 -1.4677
34347SOL    HW215021   6.972   5.216   0.673 -1.1924 -0.7852  2.4808
34348SOL     OW15022  12.171   2.320  13.695  0.2969 -0.0032  0.1439
34348SOL    HW115023  12.147   2.314  13.787  0.4888 -0.8594  0.1420
34348SOL    HW215024  12.220   2.402  13.688  1.9448 -0.8536  1.1858
34349SOL     OW15025   1.477  13.179   9.329  0.2152  0.3437 -0.4394
34349SOL    HW115026   1.561  13.216   9.356  0.5689  0.3087 -1.4380
34349SOL    HW215027   1.458  13.110   9.393  1.5823 -0.5081 -0.9071
34350SOL     OW15028   0.180  13.726  12.744 -0.3787 -0.0440  0.3951
34350SOL    HW115029   0.147  13.808  12.780  0.4077  0.7488 -0.6220
34350SOL    HW215030   0.109  13.664  12.757 -1.7216  1.2435 -0.4295
34351SOL     OW15031  13.788   5.462   0.887 -0.6813  0.1991 -0.1194
34351SOL    HW115032  13.745   5.379   0.867  1.1964 -1.1806  1.2276
34351SOL    HW215033  13.746   5.493   0.967 -1.0192  0.2967 -0.3301
34352SOL     OW15034  10.950   5.715   0.614 -0.3320 -0.7018 -0.3116
34352SOL    HW115035  10.917   5.639   0.567  1.3937 -1.2789 -0.6707
34352SOL    HW215036  10.892   5.725   0.689 -0.4254 -2.5552 -0.1142
34353SOL     OW15037  12.772  11.299   6.578  0.2303 -0.0985 -0.0491
34353SOL    HW115038  12.864  11.324   6.577  0.4395 -0.7361  1.2466
34353SOL    HW215039  12.742  11.321   6.667 -0.0518 -2.6976  0.5616
34354SOL     OW15040  10.846  13.395  10.154  0.3032  0.2404  0.2839
34354SOL    HW115041  10.903  13.463  10.119  0.3889 -0.2279 -0.5127
34354SOL    HW215042  10.907  13.327  10.185  0.1829 -0.2689 -0.5845
34355SOL     OW15043   9.059  12.325   0.920 -0.6322  0.0679 -0.2694
34355SOL    HW115044   9.075  12.237   0.957 -0.1258  0.3355  0.1679
34355SOL    HW215045   9.145  12.366   0.919 -1.0051  0.9044  0.4277
34356SOL     OW15046   8.831   7.630   7.432  0.2099 -0.4924 -0.3362
34356SOL    HW115047   8.859   7.641   7.341 -1.5700  0.2720 -0.8358
34356SOL    HW215048   8.888   7.689   7.481  1.1603 -0.8715 -0.9518
34357SOL     OW15049  13.586  10.143   5.081 -0.3678 -0.0270  1.0193
34357SOL    HW115050  13.651  10.157   5.012 -0.6442 -1.3911  0.4417
34357SOL    HW215051  13.511  10.103   5.036 -1.4260  1.0555  1.7543
34358SOL     OW15052   4.217  13.555  10.400  0.0204  0.1200  0.2221
34358SOL    HW115053   4.153  13.484  10.386 -2.1809  2.1636 -0.7711
34358SOL    HW215054   4.182  13.603  10.475  1.7926 -0.0788  1.2324
34359SOL     OW15055   1.599   5.286  13.994 -0.2453  0.3955 -0.3734
34359SOL    HW115056   1.518   5.277  14.045 -0.2203  0.5823 -0.2976
34359SOL    HW215057   1.653   5.345  14.047 -0.8073  1.8133 -1.3243
34360SOL     OW15058   7.613   7.414  12.651  0.4420  0.4318  0.2118
34360SOL    HW115059   7.527   7.399  12.614  1.1087 -0.1565 -1.1754
34360SOL    HW215060   7.606   7.384  12.742 -0.9699  1.0002  0.3111
34361SOL     OW15061   8.219   5.675  13.509 -0.1870  0.2515 -0.3390
34361SOL    HW115062   8.304   5.657  13.468 -0.1080  0.2164 -0.1576
34361SOL    HW215063   8.156   5.668  13.437 -0.0334  0.3061 -0.4788
34362SOL     OW15064   2.245   3.805   4.485  0.2899  0.4606 -0.2699
34362SOL    HW115065   2.284   3.766   4.563  0.6315  0.2421 -0.5472
34362SOL    HW215066   2.255   3.739   4.417 -0.0484  0.6319 -0.4899
34363SOL     OW15067  10.694  11.414  11.903 -0.6569 -0.2559  0.2816
34363SOL    HW115068  10.645  11.460  11.971  0.0828  1.3795 -0.2421
34363SOL    HW215069  10.782  11.450  11.908 -0.4630 -0.4398 -1.2339
34364SOL     OW15070  11.437   4.352   7.184 -0.0023 -0.0808  0.2461
34364SOL    HW115071  11.453   4.265   7.149  1.0165  0.7602 -1.5518
34364SOL    HW215072  11.432   4.340   7.278  0.5325 -2.0142  0.0714
34365SOL     OW15073   6.978   5.331   3.842  0.1692  0.2350 -0.1429
34365SOL    HW115074   6.887   5.354   3.821  0.4005  1.3963  0.1086
34365SOL    HW215075   6.971   5.244   3.882 -0.8058  0.2102 -0.3292
34366SOL     OW15076   4.382   2.214   5.270  0.1401 -0.2967 -0.1595
34366SOL    HW115077   4.462   2.223   5.322  1.0056 -1.0272 -1.3281
34366SOL    HW215078   4.337   2.138   5.306 -0.9444  1.1129  1.6297
34367SOL     OW15079   3.860  11.597   4.319 -0.0121  0.1104  0.1043
34367SOL    HW115080   3.769  11.596   4.289  0.2166 -0.0019 -0.6043
34367SOL    HW215081   3.908  11.642   4.250  0.4070  0.5901  0.6869
34368SOL     OW15082   4.876   1.742   5.325 -1.3045  0.2250  0.5483
34368SOL    HW115083   4.888   1.679   5.397  0.9355 -0.6849 -0.5411
34368SOL    HW215084   4.955   1.795   5.327 -0.4387 -0.8255 -2.1585
34369SOL     OW15085  11.914   2.894   1.972  0.2283  0.0481 -0.1391
34369SOL    HW115086  11.957   2.848   1.900  0.9676  0.5077  0.0005
34369SOL    HW215087  11.976   2.890   2.044 -0.4743 -0.3410  0.4648
34370SOL     OW15088   5.417   2.980   9.114  0.2076  0.0315  0.4318
34370SOL    HW115089   5.403   2.968   9.020 -0.9809 -0.3851  0.6444
34370SOL    HW215090   5.371   3.062   9.135  1.5540  0.8157  0.4355
34371SOL     OW15091  10.076  11.808   5.521  0.1714  0.0642 -0.2652
34371SOL    HW115092  10.124  11.741   5.474 -0.7158  0.3127 -1.5684
34371SOL    HW215093   9.984  11.789   5.503 -0.1939  0.3181  1.1749
34372SOL     OW15094   1.171   1.950  11.437 -0.1588 -0.6188 -0.0119
34372SOL    HW115095   1.093   1.959  11.492 -1.0227  0.1929 -1.3046
34372SOL    HW215096   1.159   2.014  11.367  2.4733  0.6826  0.6061
34373SOL     OW15097   3.963   8.029   0.673 -0.5290  0.1290 -0.0532
34373SOL    HW115098   3.993   8.120   0.681 -1.8401  0.5557  0.2676
34373SOL    HW215099   4.031   7.978   0.716  1.1724  0.7481 -1.8593
34374SOL     OW15100   8.860  13.998  14.006  0.4468 -0.0676  0.1506
34374SOL    HW115101   8.841  14.086  13.975  2.9521  1.4485  2.4100
34374SOL    HW215102   8.783  13.973  14.057 -0.3681  0.7268 -0.6652
34375SOL     OW15103  10.758   7.821   6.200 -0.5453  0.3041  0.0865
34375SOL    HW115104  10.693   7.752   6.193  1.1931 -1.5602  1.1359
34375SOL    HW215105  10.799   7.825   6.113  0.8512 -1.6463  0.5916
34376SOL     OW15106   0.539   1.672   2.098 -0.3142 -0.0917 -0.1767
34376SOL    HW115107   0.553   1.582   2.071  3.3083 -0.9749  3.6259
34376SOL    HW215108   0.476   1.666   2.170 -2.1224  0.8944 -1.5810
34377SOL     OW15109   3.665   1.914   3.611 -0.3310  0.4009  0.5539
34377SOL    HW115110   3.747   1.884   3.572  0.4177  0.7424  1.8203
34377SOL    HW215111   3.601   1.907   3.540  1.0040  1.1774 -0.7910
34378SOL     OW15112   9.989   6.107   9.827 -0.4873  0.1109 -0.3265
34378SOL    HW115113   9.980   6.127   9.734  1.1649  1.9066 -0.1384
34378SOL    HW215114  10.049   6.032   9.830 -0.3550  0.2025 -0.6923
34379SOL     OW15115   4.532   3.045  13.945  0.2917 -0.0650  0.1696
34379SOL    HW115116   4.448   3.065  13.905 -0.5347 -1.0012  1.3363
34379SOL    HW215117   4.550   2.955  13.919  0.7754  0.0256  0.1863
34380SOL     OW15118  13.660   5.746   2.998 -0.0243  0.5357  0.1970
34380SOL    HW115119  13.752   5.720   2.999 -0.3177 -0.5818  1.2740
34380SOL    HW215120  13.644   5.780   3.086 -1.2247 -1.6224  0.8974
34381SOL     OW15121  13.490   4.271   8.220 -0.5350 -0.2914 -0.9849
34381SOL    HW115122  13.583   4.259   8.199 -0.1608  1.0057 -0.2010
34381SOL    HW215123  13.465   4.348   8.169 -1.1529 -0.5640 -1.0953
34382SOL     OW15124  13.427   0.492   2.835 -0.4226  0.3723 -0.0615
34382SOL    HW115125  13.356   0.438   2.870  0.2347 -0.5609 -0.1327
34382SOL    HW215126  13.492   0.494   2.904 -0.8945  2.0277  0.3847
34383SOL     OW15127   7.470   4.305   1.949 -0.0103  0.2930  0.0487
34383SOL    HW115128   7.532   4.370   1.915 -0.7873 -0.0751 -2.2054
34383SOL    HW215129   7.387   4.354   1.958 -0.1679  0.0370  0.0020
34384SOL     OW15130   8.815  13.598   8.558  0.0303 -0.8877  0.4801
34384SOL    HW115131   8.765  13.652   8.496  1.2451 -2.2995 -1.8748
34384SOL    HW215132   8.758  13.592   8.635 -1.8842  0.3912 -0.7327
34385SOL     OW15133   8.305  11.568  10.151 -0.0068  0.5772  0.0001
34385SOL    HW115134   8.252  11.598  10.077  2.4506  0.8516 -1.7609
34385SOL    HW215135   8.275  11.478  10.166 -0.0834  0.2539 -1.8321
34386SOL     OW15136  10.158  12.067   6.876 -0.2121 -0.9505 -0.3020
34386SOL    HW115137  10.188  11.980   6.904  1.3657 -0.5370 -0.6072
34386SOL    HW215138  10.165  12.065   6.781  0.8071 -0.1798 -0.2607
34387SOL     OW15139  11.163   0.060   9.406  0.0553  0.5512  0.0922
34387SOL    HW115140  11.221  -0.015   9.391 -1.4053 -0.4584 -0.7993
34387SOL    HW215141  11.212   0.117   9.465  1.1319 -1.2186  0.9921
34388SOL     OW15142   2.284   6.018   4.239 -0.8113 -0.1357  0.1282
34388SOL    HW115143   2.310   6.021   4.331 -1.7736  0.9072  0.3949
34388SOL    HW215144   2.320   6.099   4.201 -0.6481 -0.4261 -0.3509
34389SOL     OW15145   8.668  12.486  11.136  0.1292 -0.0912  0.5119
34389SOL    HW115146   8.645  12.410  11.082 -0.2434 -0.2099  0.8281
34389SOL    HW215147   8.592  12.544  11.129 -0.8161 -0.9828  2.4524
34390SOL     OW15148   8.079   7.373   6.895  0.4473  0.3696  0.3260
34390SOL    HW115149   8.085   7.360   6.800 -0.9371 -3.6010  0.6080
34390SOL    HW215150   8.007   7.437   6.905  0.1813  0.3694 -1.2785
34391SOL     OW15151   1.927   4.258   0.944 -0.3962 -0.2992 -0.1447
34391SOL    HW115152   1.889   4.202   1.012 -0.3754 -0.6900 -0.4460
34391SOL    HW215153   1.988   4.200   0.898  0.2741  0.2129  0.0849
34392SOL     OW15154   7.090   0.627  12.172  0.1985 -0.7079 -0.3666
34392SOL    HW115155   7.044   0.684  12.110  0.6693 -0.8225 -0.8248
34392SOL    HW215156   7.141   0.567  12.116  1.3188 -0.2417  0.1352
34393SOL     OW15157   2.591   5.730   9.463  0.3392  0.2380  0.5521
34393SOL    HW115158   2.579   5.794   9.533  1.5311 -0.7861  1.7520
34393SOL    HW215159   2.592   5.782   9.383 -2.2073  1.3458  1.1233
34394SOL     OW15160  11.056   8.037   7.826  0.5682  0.3355  0.1974
34394SOL    HW115161  11.012   8.122   7.838  1.1659  0.7109 -0.1827
34394SOL    HW215162  11.091   8.041   7.737  1.3232  0.0299  0.4693
34395SOL     OW15163   6.863   2.042   3.249 -0.4605  0.9964 -0.5678
34395SOL    HW115164   6.856   2.011   3.339 -0.2981 -0.4338 -1.0175
34395SOL    HW215165   6.879   2.136   3.257 -1.0624  0.9988  0.8693
34396SOL     OW15166   5.602   2.621   4.691  0.0406 -0.1976 -0.8242
34396SOL    HW115167   5.688   2.581   4.701 -0.1038 -0.3426 -0.1078
34396SOL    HW215168   5.615   2.690   4.626  0.5439 -0.6625 -1.2251
34397SOL     OW15169  13.173   0.836  10.553 -0.1675  0.3468  0.0470
34397SOL    HW115170  13.105   0.773  10.528  0.0125  0.1993 -0.0823
34397SOL    HW215171  13.136   0.922  10.533 -0.6496  0.3162  0.7925
34398SOL     OW15172   4.312  10.030   9.672  0.3072 -0.1825  0.2195
34398SOL    HW115173   4.349   9.942   9.659 -1.3865 -1.0103  0.7438
34398SOL    HW215174   4.226  10.014   9.709 -1.3335  1.5680 -2.5418
34399SOL     OW15175   4.673  10.193  13.029  0.1103  0.2053  0.1713
34399SOL    HW115176   4.579  10.210  13.043  0.6837  1.5802  3.0311
34399SOL    HW215177   4.678  10.099  13.017 -1.5610 -0.0619  1.1117
34400SOL     OW15178  11.034  13.673   8.544  0.0362  0.0957 -0.0774
34400SOL    HW115179  10.971  13.741   8.520 -1.1251 -1.9461 -3.5231
34400SOL    HW215180  11.110  13.689   8.487 -0.0312 -1.1404 -0.5432
34401SOL     OW15181   3.611   2.697  10.514  0.0406 -0.0986 -0.7758
34401SOL    HW115182   3.690   2.738  10.480  0.7968 -0.2958  0.6767
34401SOL    HW215183   3.540   2.732  10.459  0.9825  0.9827 -1.3415
34402SOL     OW15184   2.828   6.773   6.075  0.4217 -0.3480  0.1424
34402SOL    HW115185   2.818   6.678   6.081 -1.0859 -0.1106  3.5171
34402SOL    HW215186   2.884   6.796   6.150  0.4795  1.4557 -0.4137
34403SOL     OW15187   7.368   4.038   7.343  0.6699 -0.4821  0.3773
34403SOL    HW115188   7.369   3.943   7.331 -1.3242 -0.3161 -1.5421
34403SOL    HW215189   7.311   4.053   7.419 -0.0684 -0.7651 -0.1182
34404SOL     OW15190  10.027   5.897   4.812  0.3451  0.2816 -0.0531
34404SOL    HW115191  10.067   5.811   4.820  0.5301  0.2725 -0.9983
34404SOL    HW215192   9.972   5.891   4.734  0.2571  0.9826 -0.0531
34405SOL     OW15193   5.332   9.183  12.143  0.1816 -0.6066 -0.6612
34405SOL    HW115194   5.291   9.228  12.217  0.6343 -0.8918 -0.2357
34405SOL    HW215195   5.405   9.240  12.118 -0.5881  0.0160 -1.5652
34406SOL     OW15196   9.907   5.662   3.663  0.2928 -0.0294 -0.1759
34406SOL    HW115197   9.938   5.624   3.581 -1.1229 -0.8639 -0.3592
34406SOL    HW215198   9.886   5.586   3.717 -0.8759  0.4987  0.1291
34407SOL     OW15199   0.661   1.289   6.559 -0.5035  0.5914  0.0170
34407SOL    HW115200   0.655   1.351   6.487 -0.7090  1.1109  0.4664
34407SOL    HW215201   0.672   1.204   6.518  0.2359  0.9779 -0.6034
34408SOL     OW15202   6.271   7.039  12.091  0.1404  0.0263  0.2014
34408SOL    HW115203   6.272   7.059  12.185  0.2151  1.6449 -0.1147
34408SOL    HW215204   6.357   7.067  12.060 -0.4076  0.8944 -0.5977
34409SOL     OW15205   6.697   6.973   8.795 -0.1096 -0.3711 -0.0776
34409SOL    HW115206   6.664   6.935   8.876 -0.5162  1.4518  0.6574
34409SOL    HW215207   6.696   6.901   8.732 -0.3654 -1.6694  1.3612
34410SOL     OW15208   7.870   1.737   2.222 -0.3450  0.3478 -0.1701
34410SOL    HW115209   7.809   1.695   2.161 -0.9426  0.0212  0.6224
34410SOL    HW215210   7.835   1.825   2.235  0.8083  1.0581 -1.6930
34411SOL     OW15211   1.247   7.694   6.012  0.3378 -0.4030  0.2157
34411SOL    HW115212   1.339   7.720   6.016  0.1182  0.2994  1.2354
34411SOL    HW215213   1.208   7.734   6.090 -1.1829  0.6941 -1.0513
34412SOL     OW15214  13.105   9.854   9.438 -0.2353 -0.2653  0.0370
34412SOL    HW115215  13.171   9.819   9.498 -0.5937 -1.6058 -0.3166
34412SOL    HW215216  13.027   9.802   9.456 -0.5455 -0.2091 -1.0983
34413SOL     OW15217   3.515   3.647   2.869  0.2595  0.1400  0.1927
34413SOL    HW115218   3.430   3.656   2.826  0.3139  1.9293  0.3636
34413SOL    HW215219   3.547   3.562   2.841 -0.0692  0.8356 -2.6725
34414SOL     OW15220   7.778   4.260   5.203  0.4797 -0.3483  0.5640
34414SOL    HW115221   7.841   4.189   5.217 -0.2132 -1.1512 -0.3232
34414SOL    HW215222   7.832   4.339   5.206  2.0663 -1.1227 -2.6884
34415SOL     OW15223   6.833   9.832   4.264  0.4869  0.3475 -0.6374
34415SOL    HW115224   6.819   9.778   4.187  0.6452 -0.4086 -0.1523
34415SOL    HW215225   6.880   9.775   4.325 -2.7874 -0.3970  1.4768
34416SOL     OW15226   3.807   7.322  13.454  0.3088 -0.6539 -0.1761
34416SOL    HW115227   3.899   7.310  13.432  0.4039 -0.3906  0.0718
34416SOL    HW215228   3.808   7.372  13.536 -0.0696  0.6460 -0.9414
34417SOL     OW15229   9.815  10.819   0.889  1.0442 -0.3153  0.1169
34417SOL    HW115230   9.885  10.816   0.954  0.9601  1.4616  0.3196
34417SOL    HW215231   9.853  10.779   0.811  2.0763  0.0941  0.4002
34418SOL     OW15232  12.667  11.967   6.078 -0.8216  0.0103 -0.6896
34418SOL    HW115233  12.761  11.965   6.097 -1.2911  0.2129  2.2414
34418SOL    HW215234  12.642  12.058   6.094 -1.4965  0.0035 -1.6387
34419SOL     OW15235   1.410  11.409   0.327  0.3166 -0.4235 -0.7492
34419SOL    HW115236   1.327  11.362   0.313  0.2407 -0.2521 -0.8858
34419SOL    HW215237   1.390  11.473   0.395  0.3605 -0.4430 -0.7181
34420SOL     OW15238  10.592  12.004   1.947  0.4633 -0.3887 -0.1747
34420SOL    HW115239  10.656  12.015   2.016  0.6912 -0.2790 -0.4045
34420SOL    HW215240  10.576  12.092   1.914  0.5224 -0.4657 -0.4119
34421SOL     OW15241   6.262  10.755  13.160  0.3076  0.1645  0.5557
34421SOL    HW115242   6.176  10.720  13.182 -0.5179  0.7994 -1.4073
34421SOL    HW215243   6.278  10.822  13.226 -1.2504  0.8259  0.3127
34422SOL     OW15244   7.886   5.334   9.070  0.4417  0.1556  0.3807
34422SOL    HW115245   7.841   5.393   9.130 -0.0691  0.4660 -0.2982
34422SOL    HW215246   7.821   5.313   9.003  0.1787 -2.2454  1.2936
34423SOL     OW15247   2.268   7.200   8.596 -0.0027 -0.0586  0.0808
34423SOL    HW115248   2.180   7.198   8.560 -0.0347 -0.0303  0.1562
34423SOL    HW215249   2.257   7.169   8.686  0.0268  0.1718  0.1653
34424SOL     OW15250   9.535   1.530   8.092  0.0721 -0.2676  0.1697
34424SOL    HW115251   9.612   1.576   8.126 -0.3448  1.0839 -0.6116
34424SOL    HW215252   9.563   1.494   8.008 -0.1831  0.3802 -0.2002
34425SOL     OW15253   5.981   1.682   9.381  0.6338  0.4528 -0.8548
34425SOL    HW115254   5.936   1.604   9.349 -0.2432  0.4464  0.3478
34425SOL    HW215255   6.005   1.661   9.471 -0.6241  1.9555 -0.1199
34426SOL     OW15256  12.535   0.652   5.334  0.6163 -0.6530 -0.0191
34426SOL    HW115257  12.462   0.692   5.287  0.0668 -2.2797 -0.6088
34426SOL    HW215258  12.609   0.659   5.274  0.1328 -1.9110 -0.8076
34427SOL     OW15259   6.846   4.742   0.437 -0.1878 -0.9321  0.2736
34427SOL    HW115260   6.813   4.680   0.372  0.5697  0.5848 -1.6607
34427SOL    HW215261   6.941   4.733   0.433 -0.1162 -0.5095  0.8762
34428SOL     OW15262   0.521   1.676  12.184 -0.1323  0.5501  0.1727
34428SOL    HW115263   0.506   1.764  12.150  2.2577 -0.1076 -3.1008
34428SOL    HW215264   0.455   1.622  12.142  0.3226  0.3463 -0.2962
34429SOL     OW15265   5.514   2.198   6.509  0.1886  0.6538  0.0805
34429SOL    HW115266   5.432   2.216   6.554  0.0795  1.4025 -0.3993
34429SOL    HW215267   5.490   2.190   6.417  0.5647  0.2042  0.0138
34430SOL     OW15268   2.344   3.913   7.770  0.4606  0.1818 -0.2939
34430SOL    HW115269   2.335   3.883   7.680  0.5004  0.5799 -0.4323
34430SOL    HW215270   2.426   3.875   7.800  0.5124  0.1551 -0.4701
34431SOL     OW15271   0.352   8.843   6.096  0.4163 -0.2760  0.0759
34431SOL    HW115272   0.282   8.862   6.035 -0.4148  0.3934  1.2031
34431SOL    HW215273   0.325   8.762   6.139 -0.2097  0.5409  1.2595
34432SOL     OW15274  10.927   3.759   9.096 -0.1922 -0.2671  0.4430
34432SOL    HW115275  10.968   3.825   9.151 -1.7058  0.5886  0.5982
34432SOL    HW215276  10.971   3.677   9.120  3.2357  0.8717 -1.2700
34433SOL     OW15277  14.030   8.905   6.271  0.6419  0.3444  0.2532
34433SOL    HW115278  14.044   8.999   6.283  0.6415  0.3131  0.5147
34433SOL    HW215279  14.070   8.865   6.348  1.2560  0.0759 -0.1987
34434SOL     OW15280   6.198   9.877  13.568 -0.2299  0.3991  0.0268
34434SOL    HW115281   6.263   9.927  13.518  0.3956 -0.0387  0.3741
34434SOL    HW215282   6.127   9.861  13.507  0.8438 -0.7775 -0.9752
34435SOL     OW15283   9.964   4.738   4.612  0.5120  0.1363 -0.5047
34435SOL    HW115284   9.915   4.801   4.665  1.4769 -0.2757  0.9410
34435SOL    HW215285   9.905   4.715   4.541 -0.4745  1.4268 -0.1488
34436SOL     OW15286   4.329   4.180   4.640  0.4055  0.1651 -0.4361
34436SOL    HW115287   4.404   4.144   4.592  2.0633  1.0421  1.3221
34436SOL    HW215288   4.258   4.119   4.624  1.5578 -0.8576 -1.9737
34437SOL     OW15289   2.304  11.357   8.859 -0.4808  0.3003  0.4153
34437SOL    HW115290   2.237  11.422   8.881  1.2159  1.7871  1.5562
34437SOL    HW215291   2.365  11.404   8.802 -1.0001 -1.3873 -1.6053
34438SOL     OW15292   7.526   2.608   4.327  0.3768 -0.2907  0.2686
34438SOL    HW115293   7.523   2.602   4.422  0.1573 -1.4029  0.2024
34438SOL    HW215294   7.458   2.548   4.297 -0.2964  0.8481 -0.5811
34439SOL     OW15295  12.775   4.985  10.172 -0.3487 -0.2444  0.0500
34439SOL    HW115296  12.683   4.980  10.199 -0.2728  0.2605  0.4051
34439SOL    HW215297  12.798   5.078  10.180  0.7245 -0.6108  1.7551
34440SOL     OW15298   7.338  12.510  11.905 -0.3946  0.2808 -0.0871
34440SOL    HW115299   7.406  12.545  11.847 -0.1884  0.9383  0.5442
34440SOL    HW215300   7.264  12.571  11.896 -0.4900  0.1912  0.0796
34441SOL     OW15301   6.844  11.139  10.073 -0.5767 -0.4539  0.1256
34441SOL    HW115302   6.788  11.111  10.000 -0.6592  0.2771 -0.0975
34441SOL    HW215303   6.796  11.210  10.114 -0.1332 -0.2926  0.3674
34442SOL     OW15304  11.230   0.055   8.327  0.2011 -0.5985  0.0873
34442SOL    HW115305  11.172   0.029   8.256  0.8161 -0.0740 -0.6243
34442SOL    HW215306  11.218   0.150   8.335  0.4676 -0.5866  0.3716
34443SOL     OW15307   2.453   5.060   0.719  0.5554 -0.1292 -0.0025
34443SOL    HW115308   2.417   5.005   0.788  1.0909  0.2923  0.6254
34443SOL    HW215309   2.379   5.078   0.662  0.2368 -0.9819  0.1188
34444SOL     OW15310  11.492   6.013   0.377  0.3135  0.1531  0.5257
34444SOL    HW115311  11.576   6.040   0.341  0.0268  0.5356  0.1312
34444SOL    HW215312  11.430   6.080   0.347 -0.4075 -0.9089 -0.4995
34445SOL     OW15313  13.946   8.068  12.077 -0.8298  0.0265  0.4336
34445SOL    HW115314  13.891   8.110  12.010  0.4465 -0.1052 -0.7293
34445SOL    HW215315  13.884   8.017  12.129 -1.6903 -1.1791 -1.6357
34446SOL     OW15316   0.087   4.284   4.815  0.4787  0.0884  0.1365
34446SOL    HW115317   0.058   4.250   4.731 -0.0223 -1.7455  1.0189
34446SOL    HW215318   0.041   4.367   4.824 -1.1174 -0.6947 -0.4530
34447SOL     OW15319   4.174   1.257   6.150  0.2323  0.1056 -0.0948
34447SOL    HW115320   4.107   1.305   6.101  0.2612 -0.8491 -1.0996
34447SOL    HW215321   4.257   1.298   6.123  0.2770 -0.6173 -1.1302
34448SOL     OW15322   3.905  10.057  12.508 -0.3937 -0.2438 -0.1362
34448SOL    HW115323   3.954  10.004  12.445 -1.5149  0.8981 -2.0836
34448SOL    HW215324   3.814  10.030  12.497 -0.5238 -0.6796  1.7248
34449SOL     OW15325  11.963  13.438   9.221 -0.4007  0.0111 -0.2201
34449SOL    HW115326  11.993  13.357   9.262 -1.0699 -1.2565 -2.0803
34449SOL    HW215327  11.870  13.424   9.205 -0.7725  1.5941  0.3652
34450SOL     OW15328   6.176   2.578   7.428  0.1728  0.0265 -0.1086
34450SOL    HW115329   6.219   2.495   7.444 -1.1059 -0.5450  0.5421
34450SOL    HW215330   6.131   2.567   7.344 -0.4069 -0.1384  0.2137
34451SOL     OW15331   7.330  11.007   6.418 -0.2867  0.1270  0.7795
34451SOL    HW115332   7.333  10.923   6.463 -0.1159  0.4955  1.4771
34451SOL    HW215333   7.394  11.061   6.464  0.1073  0.4316 -0.0967
34452SOL     OW15334   6.738   0.993   0.096  0.2816 -0.1829 -0.3966
34452SOL    HW115335   6.754   0.909   0.137 -2.1647 -0.5098  0.0142
34452SOL    HW215336   6.679   0.974   0.023 -0.6056  1.1983 -0.0814
34453SOL     OW15337   2.163   2.081  12.386 -0.3132  0.2297 -0.2274
34453SOL    HW115338   2.128   2.117  12.304  0.8637  0.2600 -0.7364
34453SOL    HW215339   2.126   1.993  12.390  0.6186 -0.2456 -1.4659
34454SOL     OW15340  13.899  14.027   9.290 -0.2831  0.1317  0.4043
34454SOL    HW115341  13.839  14.095   9.321 -2.8488 -2.2122  1.0041
34454SOL    HW215342  13.933  13.986   9.370  1.2617  0.6641  0.0565
34455SOL     OW15343   3.369   4.813   2.715 -0.1127  0.0199  0.0187
34455SOL    HW115344   3.279   4.835   2.739 -0.3700  1.0980 -1.8112
34455SOL    HW215345   3.385   4.861   2.634  2.4892  0.7262  0.8533
34456SOL     OW15346   4.091  11.731  13.474  0.5083  0.2380 -0.6771
34456SOL    HW115347   4.065  11.810  13.521 -2.7373 -1.3643  0.5079
34456SOL    HW215348   4.117  11.670  13.542 -0.7613 -0.9367 -1.2026
34457SOL     OW15349  12.667   9.277   9.239  0.7694  0.4222  0.7113
34457SOL    HW115350  12.642   9.271   9.147 -0.8023 -0.5984  1.1744
34457SOL    HW215351  12.755   9.316   9.237  1.2140 -0.5552 -1.2636
34458SOL     OW15352   5.934   5.100   6.528 -0.0140 -0.3850  0.1140
34458SOL    HW115353   5.997   5.168   6.551 -0.1106 -0.1887 -0.2063
34458SOL    HW215354   5.893   5.076   6.611 -0.4282  0.3862  0.1399
34459SOL     OW15355   0.647   3.822   8.826 -0.0804  0.0329 -0.0999
34459SOL    HW115356   0.639   3.863   8.740  1.7545 -0.8594 -0.7432
34459SOL    HW215357   0.695   3.886   8.878  2.0921 -0.8643 -0.8785
34460SOL     OW15358   3.442  13.135  12.506 -0.6512  0.9953 -0.3236
34460SOL    HW115359   3.514  13.073  12.520 -2.4535 -1.1487  0.0350
34460SOL    HW215360   3.419  13.166  12.593 -1.4185  0.1338 -0.2064
34461SOL     OW15361   4.319   9.737   5.495  0.2305 -0.3075 -0.2395
34461SOL    HW115362   4.313   9.741   5.399 -0.5883 -0.9848 -0.2284
34461SOL    HW215363   4.231   9.714   5.524  0.7007 -1.1255  0.6124
34462SOL     OW15364  10.854   9.270  11.418  0.0893  0.2787  0.1898
34462SOL    HW115365  10.885   9.338  11.478 -1.2554 -0.3558  1.6625
34462SOL    HW215366  10.923   9.263  11.352  1.1598  1.6885  1.1057
34463SOL     OW15367   5.380   3.125   0.289  0.2303 -0.0990 -0.0321
34463SOL    HW115368   5.430   3.116   0.208 -0.2117 -0.3240 -0.2860
34463SOL    HW215369   5.408   3.208   0.326  0.5115 -0.0439 -0.3656
34464SOL     OW15370  11.563   1.049   6.535  0.3856 -0.1701 -0.6578
34464SOL    HW115371  11.545   1.009   6.450  0.9370 -1.2690 -0.2743
34464SOL    HW215372  11.614   1.127   6.514  0.2954 -0.2904 -1.3539
34465SOL     OW15373   8.446   6.788   9.093  0.6583 -0.0282  0.8526
34465SOL    HW115374   8.399   6.717   9.138  1.9771 -1.3134  0.2811
34465SOL    HW215375   8.414   6.784   9.003  0.9515 -0.1001  0.7502
34466SOL     OW15376   6.009  13.835   8.200 -0.2302 -0.1867  0.3899
34466SOL    HW115377   6.061  13.864   8.125 -1.2351 -0.0682 -0.2768
34466SOL    HW215378   6.048  13.752   8.225  0.4746  0.0443  0.0987
34467SOL     OW15379   4.665   8.473   5.435  0.2514 -0.4709 -0.3509
34467SOL    HW115380   4.725   8.547   5.427  0.3115 -0.6444 -1.8329
34467SOL    HW215381   4.578   8.513   5.439  0.3703 -0.2732  0.5216
34468SOL     OW15382   6.723   0.531   6.806  0.1669 -0.2362 -0.5502
34468SOL    HW115383   6.645   0.578   6.833  0.1193  0.0734 -1.2160
34468SOL    HW215384   6.794   0.595   6.813  0.1748 -0.1876 -1.0313
34469SOL     OW15385   0.170  11.322   2.113  0.2708 -0.0387  0.0319
34469SOL    HW115386   0.100  11.362   2.166 -0.4240 -1.4775  0.2387
34469SOL    HW215387   0.158  11.228   2.125  0.8331 -0.3640 -1.7654
34470SOL     OW15388   9.095   2.878  12.928 -0.2068  0.1619  0.4244
34470SOL    HW115389   9.082   2.813  12.859 -2.6465  1.2626 -0.2717
34470SOL    HW215390   9.030   2.855  12.995  1.7307 -0.5344  2.1686
34471SOL     OW15391   0.778   1.529   1.641 -0.9593  0.6909 -0.2136
34471SOL    HW115392   0.730   1.501   1.718 -0.4073 -0.1601 -0.1684
34471SOL    HW215393   0.818   1.612   1.666  0.3241 -0.2181  0.9118
34472SOL     OW15394  12.042  10.077   6.801 -0.5425 -0.4007  0.4892
34472SOL    HW115395  12.058  10.053   6.892  0.3527 -0.2817  0.3720
34472SOL    HW215396  12.002   9.999   6.762 -0.2241 -0.7187  0.7954
34473SOL     OW15397   6.952  11.720   3.126 -0.4324  0.1959 -0.1480
34473SOL    HW115398   6.988  11.658   3.062  0.2853  0.1670  0.2744
34473SOL    HW215399   6.993  11.695   3.209 -0.4269  1.0024  0.0966
34474SOL     OW15400  10.200   5.393   0.873 -0.2049 -0.0595 -0.6565
34474SOL    HW115401  10.241   5.416   0.957 -1.3717 -4.3464  1.3289
34474SOL    HW215402  10.110   5.425   0.881 -0.6878 -1.5953  0.3658
34475SOL     OW15403   7.593   5.606   7.548  0.0571 -0.3700  0.1090
34475SOL    HW115404   7.521   5.618   7.487 -0.7364 -0.0839  1.0654
34475SOL    HW215405   7.651   5.680   7.533 -0.6223  0.2247  0.3485
34476SOL     OW15406   8.695   2.067   5.885  0.0406  0.0711  0.1166
34476SOL    HW115407   8.629   2.004   5.858 -1.3042  1.9012 -1.1080
34476SOL    HW215408   8.668   2.096   5.972 -1.0240  1.0593 -0.5150
34477SOL     OW15409  12.321   0.131   5.119 -0.5224  0.4293 -0.6123
34477SOL    HW115410  12.325   0.198   5.187 -0.7486 -0.0935 -0.0818
34477SOL    HW215411  12.235   0.091   5.130  0.0081 -0.6412 -0.2643
34478SOL     OW15412  13.555  13.879   5.485 -0.1339  0.5664 -0.0812
34478SOL    HW115413  13.561  13.956   5.542 -1.1603  0.5992  0.0099
34478SOL    HW215414  13.579  13.911   5.398 -0.5306  0.9951 -0.0396
34479SOL     OW15415  10.493   7.259  12.331  0.5231 -0.1267 -0.4384
34479SOL    HW115416  10.411   7.277  12.285 -0.3317 -1.7313  0.3645
34479SOL    HW215417  10.466   7.213  12.411  2.2357 -1.4541 -0.5635
34480SOL     OW15418  10.736  10.478  10.468  0.0674  0.1740 -0.1699
34480SOL    HW115419  10.746  10.470  10.373 -1.3902 -0.4248 -0.2910
34480SOL    HW215420  10.649  10.444  10.486 -0.2232  1.5825  1.2358
34481SOL     OW15421   0.214   5.167   1.625  0.4534  0.2676  0.0838
34481SOL    HW115422   0.138   5.146   1.679 -0.4714 -0.5166 -1.4651
34481SOL    HW215423   0.242   5.082   1.590  0.8336  0.7919 -0.9188
34482SOL     OW15424   8.200   4.368  11.898 -0.1813 -0.6056  0.0155
34482SOL    HW115425   8.218   4.410  11.982  0.2623 -1.8402  0.5544
34482SOL    HW215426   8.177   4.278  11.920  1.0933 -1.2835 -1.2562
34483SOL     OW15427  13.407  12.072   8.017 -0.3900 -0.2677 -0.2529
34483SOL    HW115428  13.383  11.981   7.996  0.9962 -0.7732  0.2098
34483SOL    HW215429  13.480  12.091   7.958  1.0174 -0.3662  1.3806
34484SOL     OW15430   0.363   7.819   3.330  0.2426  0.0299 -0.5869
34484SOL    HW115431   0.451   7.786   3.309  0.4253  1.0229 -1.4707
34484SOL    HW215432   0.339   7.872   3.254 -2.1647 -2.1971 -1.4921
34485SOL     OW15433   1.166   7.475   7.844 -0.0104 -0.1754 -0.7507
34485SOL    HW115434   1.120   7.465   7.761 -0.7545 -1.1769 -0.2456
34485SOL    HW215435   1.204   7.563   7.841  0.1245 -0.2693 -2.2076
34486SOL     OW15436  13.508  10.568   6.946  0.3618 -0.3311  0.6008
34486SOL    HW115437  13.577  10.538   6.887  0.1921 -0.2845  0.3776
34486SOL    HW215438  13.516  10.511   7.023  0.2613 -0.7250  0.3226
34487SOL     OW15439   2.472  11.769   7.700 -0.0515  0.5302 -0.0423
34487SOL    HW115440   2.555  11.730   7.728  0.4790  1.4014 -0.3350
34487SOL    HW215441   2.410  11.745   7.768  0.4993  0.0553  0.3033
34488SOL     OW15442   2.308  10.594   4.434  0.3730 -0.3006  0.4145
34488SOL    HW115443   2.218  10.577   4.462 -0.2266  2.3961  0.3851
34488SOL    HW215444   2.301  10.612   4.340  1.0091 -0.3999  0.3432
34489SOL     OW15445  10.429   5.738   6.608 -0.1356  0.4671  0.0558
34489SOL    HW115446  10.494   5.669   6.596  0.7428  1.1819  0.5084
34489SOL    HW215447  10.423   5.748   6.703 -2.0721 -0.6291  0.1047
34490SOL     OW15448  13.273  10.548  13.802 -0.4518  0.3739  0.8066
34490SOL    HW115449  13.222  10.550  13.721 -1.0296  0.4656  1.1596
34490SOL    HW215450  13.354  10.594  13.782 -0.4745  0.1556  0.2080
34491SOL     OW15451   5.665   5.306   4.715 -0.2876  0.0073  0.2485
34491SOL    HW115452   5.587   5.287   4.663 -0.1964 -2.7477  0.9745
34491SOL    HW215453   5.631   5.349   4.794 -0.9520 -0.2492  0.1124
34492SOL     OW15454   2.286   9.802  10.906  0.7807  0.0435  0.1179
34492SOL    HW115455   2.303   9.889  10.869  0.2040 -0.0253 -0.3298
34492SOL    HW215456   2.270   9.747  10.829  0.8303 -0.3904  0.4165
34493SOL     OW15457  10.814  10.704   1.707  0.3109  0.2010 -0.3388
34493SOL    HW115458  10.810  10.682   1.800 -2.4158  0.4709 -0.3106
34493SOL    HW215459  10.880  10.773   1.702  0.2631  0.4326  1.4583
34494SOL     OW15460  10.459   5.770   0.673 -0.6078 -0.3591  0.1794
34494SOL    HW115461  10.510   5.689   0.676  1.8213  1.0930  2.8603
34494SOL    HW215462  10.492   5.817   0.597 -0.3335 -0.8566 -0.0143
34495SOL     OW15463   7.388   8.934   4.659 -0.0472  0.0040  0.2928
34495SOL    HW115464   7.370   8.840   4.656 -0.4511  0.0687  0.6533
34495SOL    HW215465   7.394   8.955   4.752  3.0265 -0.2186  0.2404
34496SOL     OW15466   0.067   9.944   3.597  0.5477  0.3768 -0.0643
34496SOL    HW115467   0.091   9.866   3.647 -1.0193 -1.0733 -1.4714
34496SOL    HW215468  -0.013   9.920   3.550  0.7704  2.3699 -1.6248
34497SOL     OW15469   6.272   9.500   5.056 -0.1260 -0.1169 -0.0792
34497SOL    HW115470   6.318   9.577   5.088  0.7210 -1.5674  2.5255
34497SOL    HW215471   6.310   9.483   4.970  2.5128  0.1669  0.9368
34498SOL     OW15472   2.827  12.352   1.549  0.0427  0.2428  0.4264
34498SOL    HW115473   2.790  12.340   1.462  0.0258 -2.2043  0.7043
34498SOL    HW215474   2.751  12.344   1.608  0.3656 -0.3757  0.7667
34499SOL     OW15475   0.206   4.116  10.631  0.1695 -0.6853  0.0670
34499SOL    HW115476   0.204   4.048  10.699 -1.2123 -0.7317  0.0135
34499SOL    HW215477   0.132   4.094  10.574 -1.3309  1.7055  0.9387
34500SOL     OW15478   6.034   6.116   8.775 -0.2558 -0.2994  0.0859
34500SOL    HW115479   6.106   6.102   8.714 -1.3092 -0.6988 -1.1119
34500SOL    HW215480   6.055   6.060   8.850  1.9954  1.5841  1.0139
34501SOL     OW15481   2.305  12.693   1.777  0.0246  0.1301  0.6010
34501SOL    HW115482   2.386  12.643   1.787  0.0497  0.3226  1.3946
34501SOL    HW215483   2.247  12.635   1.727 -0.3967 -1.2252  2.5540
34502SOL     OW15484  11.119  10.119   6.385 -0.5617  0.3828 -0.1239
34502SOL    HW115485  11.121  10.027   6.411  1.1996  0.1487 -0.9328
34502SOL    HW215486  11.080  10.119   6.298 -1.4211  0.5181  0.2586
34503SOL     OW15487   9.055   1.638   9.668 -0.5442 -0.3043 -0.4586
34503SOL    HW115488   9.086   1.642   9.578  0.0982  0.6415 -0.2034
34503SOL    HW215489   8.998   1.714   9.678 -1.0162 -0.6813 -0.1998
34504SOL     OW15490   5.522   7.995  12.490 -0.4121  0.4597  0.1146
34504SOL    HW115491   5.599   8.019  12.438 -1.1908  0.0566 -1.2916
34504SOL    HW215492   5.449   8.042  12.449 -0.8870  1.1173  1.6368
34505SOL     OW15493   3.512  13.733   2.655 -0.1792 -0.2058 -0.3077
34505SOL    HW115494   3.523  13.735   2.560  0.8424  2.1584 -0.2028
34505SOL    HW215495   3.434  13.785   2.672 -0.7577 -1.1897  0.1389
34506SOL     OW15496  11.421   5.714  12.069  0.2346  0.3475  0.0765
34506SOL    HW115497  11.426   5.621  12.049  1.8311  0.4948 -0.3535
34506SOL    HW215498  11.408   5.756  11.984 -1.1836  0.5055  0.3436
34507SOL     OW15499  11.534   0.329   4.076  0.1187 -0.4650 -0.4235
34507SOL    HW115500  11.450   0.364   4.046  0.0985 -0.9091 -0.8856
34507SOL    HW215501  11.528   0.331   4.171 -0.4434 -0.5597 -0.4528
34508SOL     OW15502   9.345   7.934   9.716 -0.6128 -0.0209  0.8152
34508SOL    HW115503   9.308   8.021   9.704  1.3466  0.7217 -0.2321
34508SOL    HW215504   9.382   7.911   9.631  1.1862 -0.7207  1.7261
34509SOL     OW15505  13.706  12.974   2.408  0.2696  0.4354  0.4466
34509SOL    HW115506  13.693  12.910   2.478 -0.3270 -0.3842 -0.3907
34509SOL    HW215507  13.801  12.971   2.391  0.2285 -0.3052  0.3370
34510SOL     OW15508   1.131   2.208   5.791  0.2007 -0.1858 -0.0261
34510SOL    HW115509   1.193   2.275   5.820  0.9355  0.0237 -1.9296
34510SOL    HW215510   1.085   2.182   5.871  2.6480 -0.2691  1.4710
34511SOL     OW15511   9.560   1.216  12.448 -0.1389  0.5542 -0.5457
34511SOL    HW115512   9.615   1.248  12.520  0.4949  0.1748 -0.8625
34511SOL    HW215513   9.550   1.123  12.465  0.5918  0.3263 -1.3273
34512SOL     OW15514   8.046   2.086   6.134 -0.2473  0.2983 -0.4217
34512SOL    HW115515   8.108   2.017   6.160 -1.0205  0.7307  3.1195
34512SOL    HW215516   8.101   2.155   6.098  1.0404 -0.3987  0.1196
34513SOL     OW15517   3.939   4.491  11.561  0.0424  0.0887 -0.9513
34513SOL    HW115518   3.938   4.435  11.638 -0.9150 -0.2710 -1.2036
34513SOL    HW215519   3.980   4.438  11.493  0.8047  0.3740 -0.7307
34514SOL     OW15520   4.321   9.118   1.003 -0.1604  0.1301  0.1042
34514SOL    HW115521   4.313   9.177   1.077  1.4130  0.4044  0.0910
34514SOL    HW215522   4.414   9.119   0.981 -0.1093 -2.1131 -0.0797
34515SOL     OW15523   7.127   3.810   6.117  0.0875 -0.0706  0.6088
34515SOL    HW115524   7.112   3.778   6.206 -1.2907 -1.1407  0.0266
34515SOL    HW215525   7.117   3.733   6.061  0.0826  0.7399 -0.5543
34516SOL     OW15526   3.868   2.922  13.446 -0.4848  0.1255  0.1043
34516SOL    HW115527   3.889   2.873  13.526  0.7572  0.6250  0.1142
34516SOL    HW215528   3.948   2.919  13.395 -1.4145 -0.5757 -1.3646
34517SOL     OW15529   4.294   3.620  11.250 -0.0614 -0.2446  0.5539
34517SOL    HW115530   4.353   3.669  11.193  0.1930  0.7149  1.6149
34517SOL    HW215531   4.231   3.580  11.190  0.7424 -0.0198 -0.4703
34518SOL     OW15532   8.840   4.455   0.709  0.0159 -0.2271  0.8358
34518SOL    HW115533   8.860   4.395   0.781 -3.2794 -0.9322  1.3647
34518SOL    HW215534   8.812   4.397   0.638 -1.2775  0.5481  0.6724
34519SOL     OW15535   3.285   4.215   6.968 -0.2388 -0.2548  0.2945
34519SOL    HW115536   3.193   4.212   6.995 -0.3679 -0.9445 -0.2023
34519SOL    HW215537   3.290   4.287   6.905 -0.9196 -1.6209 -1.3766
34520SOL     OW15538   8.044   8.171   5.727 -0.2805  0.6175 -0.4937
34520SOL    HW115539   8.106   8.120   5.779 -1.2615 -0.6220 -0.5059
34520SOL    HW215540   7.971   8.189   5.787 -1.9404 -1.7713 -1.6289
34521SOL     OW15541   0.437   9.781  13.073  0.3598  0.2141 -0.0917
34521SOL    HW115542   0.499   9.710  13.057 -1.3062 -0.9558 -1.8044
34521SOL    HW215543   0.366   9.740  13.123 -0.4456  0.7450 -0.7728
34522SOL     OW15544  12.468   6.332   2.750 -0.2688 -0.1176  0.1187
34522SOL    HW115545  12.394   6.282   2.716  0.0855 -0.6733  0.1470
34522SOL    HW215546  12.502   6.278   2.822  0.2988  0.0264 -0.0386
34523SOL     OW15547   4.841  12.530  14.025  0.2882 -0.3532 -0.0762
34523SOL    HW115548   4.847  12.580  13.944  0.5607  1.0880  0.7923
34523SOL    HW215549   4.918  12.558  14.075 -0.9332  0.3619  1.5002
34524SOL     OW15550   9.463   8.327  10.117  0.1223  0.6044 -0.5905
34524SOL    HW115551   9.404   8.379  10.172 -0.1155  0.3353 -0.5852
34524SOL    HW215552   9.404   8.281  10.057  0.3385  0.4271 -0.6648
34525SOL     OW15553   0.319   4.924  11.537 -0.2684  0.8346 -0.0398
34525SOL    HW115554   0.239   4.913  11.486  0.5425  2.0086 -1.6915
34525SOL    HW215555   0.299   4.887  11.623 -1.9917 -0.4666 -0.9425
34526SOL     OW15556   5.387  12.542   7.704  0.8578 -0.3870 -0.3392
34526SOL    HW115557   5.298  12.531   7.738 -0.3294  2.5641 -2.0850
34526SOL    HW215558   5.406  12.460   7.659  0.0032 -1.9582  1.9664
34527SOL     OW15559  11.226   0.256   5.611  0.3244  0.0516 -0.0900
34527SOL    HW115560  11.272   0.309   5.675 -0.8241 -0.6694  1.3889
34527SOL    HW215561  11.267   0.169   5.617  0.0804 -0.0714 -0.1782
34528SOL     OW15562   3.117   0.178   3.865  0.5184  0.2897  0.0079
34528SOL    HW115563   3.177   0.238   3.819  0.3605 -0.3403 -1.0484
34528SOL    HW215564   3.135   0.194   3.958  3.5063 -1.0223 -0.2321
34529SOL     OW15565  12.282   4.603   1.683 -0.1936 -0.1903  0.4515
34529SOL    HW115566  12.366   4.649   1.679 -1.1572  1.5905 -3.2496
34529SOL    HW215567  12.293   4.527   1.627 -0.7307 -0.6149  0.9109
34530SOL     OW15568   6.464   0.986   6.759 -0.5264 -0.3334 -0.3077
34530SOL    HW115569   6.460   0.891   6.764 -1.5551 -0.2512  1.8595
34530SOL    HW215570   6.377   1.012   6.729 -0.2273 -0.0688 -0.9555
34531SOL     OW15571   4.819   5.709   7.608 -0.2510  0.0992 -0.6040
34531SOL    HW115572   4.894   5.698   7.550  0.4640  0.8145  0.1626
34531SOL    HW215573   4.759   5.765   7.558 -0.2290 -0.3579 -1.1599
34532SOL     OW15574  11.245   8.098  13.559  0.1367  0.1813 -0.3189
34532SOL    HW115575  11.153   8.094  13.584 -0.1715  1.9284 -1.0447
34532SOL    HW215576  11.287   8.144  13.632 -0.2010  2.4247 -1.4763
34533SOL     OW15577   2.676   2.638   0.297  0.2850  0.0901  0.7434
34533SOL    HW115578   2.640   2.592   0.373  0.3671 -0.8797  0.2114
34533SOL    HW215579   2.601   2.686   0.261 -0.2618 -1.0449  0.2899
34534SOL     OW15580   7.209  10.687   5.192 -0.1664 -0.0946 -0.0727
34534SOL    HW115581   7.196  10.699   5.098  1.1413 -0.9589 -0.3882
34534SOL    HW215582   7.261  10.762   5.219 -2.5950  1.5177  0.5187
34535SOL     OW15583   3.685   7.227   1.463 -0.3210  0.2223 -0.2990
34535SOL    HW115584   3.756   7.179   1.505 -1.5852 -1.4714 -0.0081
34535SOL    HW215585   3.668   7.178   1.382 -0.1199  1.5403 -1.1771
34536SOL     OW15586   4.325  12.558  13.982 -0.0246 -0.5773  0.4623
34536SOL    HW115587   4.245  12.544  13.932  0.0841 -0.0715  0.1312
34536SOL    HW215588   4.392  12.508  13.935  0.0480 -0.2189  0.1788
34537SOL     OW15589  12.592   8.507  12.573  0.0688 -0.0603 -0.3617
34537SOL    HW115590  12.655   8.546  12.513 -0.3779 -0.3683 -1.0436
34537SOL    HW215591  12.552   8.436  12.523 -0.5285 -0.1324  0.2029
34538SOL     OW15592  13.360  13.024  11.777 -0.3851  0.0069 -0.2480
34538SOL    HW115593  13.393  13.102  11.732 -0.7307 -0.4342 -1.2982
34538SOL    HW215594  13.435  12.991  11.826 -0.6856  2.0151  1.7297
34539SOL     OW15595  12.918   5.378   4.683  0.2641  0.3564  0.2870
34539SOL    HW115596  12.842   5.333   4.645 -0.0327  1.6207 -0.7100
34539SOL    HW215597  12.884   5.464   4.708  1.2731  0.7898  0.1964
34540SOL     OW15598   4.066   9.993   5.317 -0.3352  0.0997  0.3722
34540SOL    HW115599   4.152   9.991   5.359 -0.9169  0.6403  1.6658
34540SOL    HW215600   4.053  10.084   5.293  0.9126 -0.5105 -3.1373
34541SOL     OW15601   1.934   9.915  10.025 -0.0444  0.0345 -0.0475
34541SOL    HW115602   1.955   9.986   9.965  1.3016 -1.3631 -1.3040
34541SOL    HW215603   1.858   9.872   9.986 -0.1844  0.1139  0.1345
34542SOL     OW15604   5.507   0.147  11.078 -0.1740 -0.7330 -0.1823
34542SOL    HW115605   5.580   0.120  11.134 -0.7028 -1.8313  0.0194
34542SOL    HW215606   5.532   0.117  10.990 -0.6088 -1.6033 -0.0191
34543SOL     OW15607   7.395   4.017  13.444  0.0811 -0.1141 -0.3025
34543SOL    HW115608   7.336   4.075  13.492 -1.7808  0.0061 -2.5720
34543SOL    HW215609   7.433   3.961  13.512 -1.0013  1.2118  1.4987
34544SOL     OW15610   8.405   1.522   7.922 -0.7347 -0.1384 -0.0500
34544SOL    HW115611   8.450   1.481   7.995 -0.5765  0.1140 -0.0054
34544SOL    HW215612   8.467   1.519   7.850 -0.3741  0.8448  0.2059
34545SOL     OW15613   9.411  11.766   6.830 -0.1475  0.0107 -0.3542
34545SOL    HW115614   9.433  11.673   6.830 -0.0945  0.0213  0.1406
34545SOL    HW215615   9.316  11.768   6.841 -0.3870 -0.0272 -2.1106
34546SOL     OW15616   7.701  13.277   1.169  0.0689  0.0984  0.2628
34546SOL    HW115617   7.753  13.197   1.156 -0.5419 -0.4900  1.3161
34546SOL    HW215618   7.614  13.245   1.194  0.4558  1.0790  3.1104
34547SOL     OW15619   6.074  11.722   4.200 -0.3097 -0.1688  0.4151
34547SOL    HW115620   6.086  11.627   4.205 -0.8129 -0.1856  2.1957
34547SOL    HW215621   6.030  11.744   4.282  1.3984  1.8410  0.8733
34548SOL     OW15622   8.731   3.782  10.015 -0.4687 -0.1977  0.2075
34548SOL    HW115623   8.705   3.693  10.038  0.0272 -0.0774  1.3019
34548SOL    HW215624   8.649   3.826   9.993 -1.5283  0.4493  4.4690
34549SOL     OW15625   8.598   0.064   8.280  0.2810 -0.7997  0.1687
34549SOL    HW115626   8.580   0.053   8.374  1.2054 -0.6453  0.3692
34549SOL    HW215627   8.635  -0.020   8.253  0.5026 -0.6624  0.0521
34550SOL     OW15628   5.071   0.872  11.735 -0.0364 -0.0972  0.2392
34550SOL    HW115629   5.006   0.922  11.685  1.1015 -0.6661 -1.9119
34550SOL    HW215630   5.024   0.794  11.764 -1.1661  1.0054  1.5760
34551SOL     OW15631  11.002  11.690  13.887 -0.2705  0.4443 -0.3381
34551SOL    HW115632  10.918  11.677  13.843 -0.8795 -0.1376  0.9552
34551SOL    HW215633  11.042  11.603  13.890 -0.2644  0.4685  0.3252
34552SOL     OW15634   3.158   5.347   6.512  0.1513  0.2343 -0.6796
34552SOL    HW115635   3.086   5.285   6.521 -0.4878  0.9746 -0.5251
34552SOL    HW215636   3.222   5.321   6.578  1.0438 -1.7464 -2.2084
34553SOL     OW15637   9.989   8.330  10.531  0.2944 -0.5996  0.1109
34553SOL    HW115638  10.077   8.292  10.537  0.5031 -0.3574 -1.0847
34553SOL    HW215639   9.981   8.385  10.609  1.8496  0.6584 -0.5503
34554SOL     OW15640  11.047   0.661  13.842 -0.1316 -0.4466 -0.0909
34554SOL    HW115641  11.011   0.745  13.812  0.3249 -0.0488  0.4251
34554SOL    HW215642  11.134   0.657  13.803  0.3680 -0.0419  0.9218
34555SOL     OW15643   0.606   0.946   7.023 -0.6106  0.4264 -0.7999
34555SOL    HW115644   0.700   0.965   7.029 -0.4757  0.0681 -1.6770
34555SOL    HW215645   0.596   0.863   7.069 -0.3639  0.0793 -1.3591
34556SOL     OW15646  12.189  12.148   1.118  0.0230  0.0463 -0.1347
34556SOL    HW115647  12.185  12.089   1.042  0.4074  1.4520 -1.2767
34556SOL    HW215648  12.269  12.122   1.164  0.2090 -0.2976 -0.6406
34557SOL     OW15649  10.542   9.640  11.994  0.3129  0.0616  0.2360
34557SOL    HW115650  10.577   9.655  11.906 -1.9003 -1.1788 -0.9230
34557SOL    HW215651  10.550   9.546  12.008  0.0386  0.1557  1.1039
34558SOL     OW15652  12.083  10.348   5.561  0.5691 -0.4672 -0.2281
34558SOL    HW115653  12.024  10.317   5.493 -0.3369  0.5951  0.0596
34558SOL    HW215654  12.031  10.409   5.613  2.4540  2.1397 -1.2062
34559SOL     OW15655   0.674   2.939   1.723  0.5260  0.6202 -0.2393
34559SOL    HW115656   0.616   3.012   1.706 -0.1623 -0.1043 -1.0820
34559SOL    HW215657   0.762   2.977   1.720  0.1358  1.8426  1.6521
34560SOL     OW15658   5.491  13.183   0.418  0.3719  0.5508  0.9293
34560SOL    HW115659   5.429  13.218   0.483  0.3593 -0.8879  1.7425
34560SOL    HW215660   5.473  13.089   0.417 -1.3522  0.7003 -2.9803
34561SOL     OW15661  10.188   9.514   1.121  0.3596 -0.3751  0.6150
34561SOL    HW115662  10.194   9.430   1.166 -1.7529 -1.3595 -0.8209
34561SOL    HW215663  10.150   9.573   1.187  0.9153 -0.7914  1.3198
34562SOL     OW15664  12.325   7.658   5.826  0.5684  0.0268  0.3325
34562SOL    HW115665  12.409   7.619   5.851 -0.7769 -2.3000  1.5942
34562SOL    HW215666  12.260   7.605   5.872 -1.6383  1.3590 -1.0921
34563SOL     OW15667  10.096  13.475  14.021  0.0763  0.1816  0.4403
34563SOL    HW115668  10.155  13.485  14.095 -0.8282 -1.8116  1.4956
34563SOL    HW215669  10.083  13.381  14.012 -2.3774  0.5054 -0.1742
34564SOL     OW15670   0.899  11.731   5.448  0.0360  0.1832 -0.3937
34564SOL    HW115671   0.982  11.765   5.481  0.3527 -1.7783  1.1026
34564SOL    HW215672   0.857  11.693   5.526 -1.3704 -0.5647 -1.4736
34565SOL     OW15673  11.627   2.671  12.432  0.3498 -0.1503 -0.1705
34565SOL    HW115674  11.549   2.712  12.469  1.0551 -0.6436  2.0238
34565SOL    HW215675  11.676   2.743  12.392 -0.8344  0.2842 -0.8676
34566SOL     OW15676   9.606   8.125  13.520  0.1931  0.1281  0.2669
34566SOL    HW115677   9.623   8.067  13.594  1.1853  0.5570  0.3866
34566SOL    HW215678   9.521   8.096  13.486  0.8800 -1.7343  0.0127
34567SOL     OW15679   3.551   8.743  11.777 -0.3166 -0.0922 -0.1535
34567SOL    HW115680   3.614   8.695  11.723 -1.6521 -1.4162 -0.6051
34567SOL    HW215681   3.603   8.811  11.820  1.2384 -0.5690 -1.1961
34568SOL     OW15682   2.920  11.275   9.882  0.6300  0.9505  0.2566
34568SOL    HW115683   2.879  11.201   9.838  2.1362  0.8430 -1.1043
34568SOL    HW215684   2.850  11.339   9.892 -0.3647 -0.0947  0.1228
34569SOL     OW15685   0.147  12.359   0.579  0.3833 -0.2928  0.2571
34569SOL    HW115686   0.224  12.410   0.603  0.1417 -0.2580  1.0095
34569SOL    HW215687   0.074  12.421   0.589  0.3027 -0.1789 -0.9434
34570SOL     OW15688   2.155   7.303  12.067  0.4889 -0.4880  0.0933
34570SOL    HW115689   2.163   7.209  12.079 -0.4728 -0.8601 -1.8174
34570SOL    HW215690   2.244   7.337  12.075  1.0642 -1.7655 -0.6706
34571SOL     OW15691   8.840   8.654  10.430 -0.2856 -0.6710 -0.1792
34571SOL    HW115692   8.771   8.665  10.496 -0.8607 -0.0672 -0.8591
34571SOL    HW215693   8.793   8.633  10.349  0.3160 -0.1228 -0.6857
34572SOL     OW15694   8.236   5.743  11.038 -0.8928  0.2321 -0.1553
34572SOL    HW115695   8.258   5.816  10.980  0.1226  0.9475  1.0711
34572SOL    HW215696   8.289   5.758  11.117 -2.4118 -0.5521  1.0770
34573SOL     OW15697   7.926   1.087   7.865  0.0758  0.5318  0.1321
34573SOL    HW115698   7.850   1.100   7.808  0.1686 -0.5708 -0.2582
34573SOL    HW215699   7.943   1.174   7.902 -0.6079  1.0517 -0.7362
34574SOL     OW15700  10.118   4.879   0.548 -0.5062 -0.1501  0.5202
34574SOL    HW115701  10.078   4.951   0.499  1.2794 -1.1330 -2.6799
34574SOL    HW215702  10.056   4.807   0.538 -0.8912  0.1011  1.0946
34575SOL     OW15703   7.165   8.363   6.873  0.6351 -0.2330  0.2664
34575SOL    HW115704   7.182   8.305   6.948 -1.0241 -1.6730 -0.4054
34575SOL    HW215705   7.074   8.389   6.884  0.9368  1.1095 -0.2487
34576SOL     OW15706  12.640   8.308   0.019 -0.1722  0.0786 -0.6416
34576SOL    HW115707  12.723   8.273  -0.014 -0.5659 -1.6071  0.0504
34576SOL    HW215708  12.598   8.347  -0.057  0.3242 -0.9342 -1.4555
34577SOL     OW15709   4.269  12.373  13.580 -0.1613  0.1654  0.1533
34577SOL    HW115710   4.315  12.291  13.592 -1.6801 -0.8285 -0.5453
34577SOL    HW215711   4.220  12.362  13.499  0.4841  2.1961 -0.5692
34578SOL     OW15712   4.927  10.427   1.350  0.5798 -0.2014 -0.3028
34578SOL    HW115713   4.857  10.492   1.352 -0.5943 -1.4115 -0.7119
34578SOL    HW215714   4.887  10.347   1.386  1.6450 -1.0131 -0.8472
34579SOL     OW15715  13.118   5.935   6.001 -0.5815 -0.3650  0.2634
34579SOL    HW115716  13.025   5.928   6.021 -1.2149 -2.2351 -2.6648
34579SOL    HW215717  13.122   5.939   5.906  2.3374  0.1541  0.3089
34580SOL     OW15718  11.972   8.452   7.226  0.3881  0.4972 -0.2600
34580SOL    HW115719  12.063   8.483   7.219  0.1395  1.0057 -1.4281
34580SOL    HW215720  11.951   8.418   7.140  0.2015 -1.8131  0.6346
34581SOL     OW15721   9.332   7.095   2.735 -0.0546 -0.0201  0.4327
34581SOL    HW115722   9.393   7.022   2.724  0.0833  0.3077 -1.2019
34581SOL    HW215723   9.273   7.066   2.805 -0.6347 -2.1768 -0.8322
34582SOL     OW15724   3.207   9.040  12.932 -0.9982 -0.3938 -0.3022
34582SOL    HW115725   3.237   8.953  12.904 -2.7692 -0.5379 -1.9433
34582SOL    HW215726   3.114   9.041  12.911 -0.9183  2.0902 -0.7996
34583SOL     OW15727   1.953   5.829  12.251  0.4576  0.1642  0.2666
34583SOL    HW115728   1.866   5.864  12.235 -0.0364 -0.5566  1.2660
34583SOL    HW215729   2.007   5.864  12.179 -1.1897 -1.4941 -1.9066
34584SOL     OW15730   5.832   0.388   0.305 -1.1147  0.3339 -0.2449
34584SOL    HW115731   5.895   0.460   0.297 -1.0946  0.0957 -3.1050
34584SOL    HW215732   5.843   0.357   0.395  2.7764  0.3779 -0.5552
34585SOL     OW15733   6.978   1.994   5.877 -0.7244 -0.4658  0.3066
34585SOL    HW115734   7.072   1.984   5.892 -0.9111 -0.3362  1.7346
34585SOL    HW215735   6.947   1.907   5.853  0.0558 -0.1228 -2.1804
34586SOL     OW15736   8.277  11.347  13.937  0.2083 -0.7613  0.0934
34586SOL    HW115737   8.358  11.318  13.980  0.0799  0.4575  1.2301
34586SOL    HW215738   8.235  11.404  14.002 -0.9658 -0.4121 -0.9405
34587SOL     OW15739   6.234  10.338   0.933  0.0205 -0.4256 -0.1466
34587SOL    HW115740   6.270  10.252   0.912  0.1059 -0.0533 -1.6116
34587SOL    HW215741   6.226  10.337   1.029  1.9440 -1.2986  0.0645
34588SOL     OW15742  11.525   2.802  11.868 -0.1891  0.0353 -0.8571
34588SOL    HW115743  11.511   2.766  11.781 -0.6919 -0.1587 -0.6958
34588SOL    HW215744  11.574   2.883  11.852 -1.8377  0.9718 -1.4892
34589SOL     OW15745   5.282   8.793   3.044  0.2458  0.4031 -0.0880
34589SOL    HW115746   5.205   8.847   3.061  0.8124  1.5367 -0.9716
34589SOL    HW215747   5.267   8.757   2.956  1.4414  1.9975 -1.0049
34590SOL     OW15748   4.688   0.714   0.142  0.0269 -0.0678 -0.0550
34590SOL    HW115749   4.687   0.641   0.203 -1.4374 -0.2808 -0.3130
34590SOL    HW215750   4.663   0.790   0.194 -1.6040 -0.3145 -0.4353
34591SOL     OW15751  11.394   0.748   8.144 -0.0618 -0.8480 -0.0503
34591SOL    HW115752  11.420   0.804   8.071 -0.5274  0.4791  0.7757
34591SOL    HW215753  11.472   0.698   8.166  0.6388  0.1643 -0.1979
34592SOL     OW15754   9.956   3.496   3.701  0.1591 -0.2833 -0.3080
34592SOL    HW115755   9.960   3.581   3.745  0.9843 -1.1041  1.3130
34592SOL    HW215756   9.864   3.484   3.681  0.1734  1.5170 -1.7191
34593SOL     OW15757  11.770   8.400   7.448 -0.0371 -0.0550 -0.1864
34593SOL    HW115758  11.683   8.428   7.474 -0.1349 -0.7023  0.2055
34593SOL    HW215759  11.788   8.449   7.368  0.0645  1.5908  0.7925
34594SOL     OW15760   9.323   8.155  12.420  0.0443  0.0852 -0.0799
34594SOL    HW115761   9.238   8.200  12.416 -0.8070 -1.4149  0.3487
34594SOL    HW215762   9.384   8.217  12.379 -1.3520  0.9601 -0.9591
34595SOL     OW15763   5.221  11.081  13.741  0.3848  0.8961  0.4893
34595SOL    HW115764   5.223  11.155  13.801  1.0948  0.5355  0.9214
34595SOL    HW215765   5.214  11.120  13.654 -1.7911  1.4115  0.8387
34596SOL     OW15766   1.528   2.386   8.851 -0.6021 -0.0943 -0.2206
34596SOL    HW115767   1.491   2.298   8.841 -3.5955  0.9414  0.5768
34596SOL    HW215768   1.478   2.425   8.923  2.1116  1.5847  0.9174
34597SOL     OW15769   4.552  13.683   0.043 -0.4377 -0.1988 -0.2718
34597SOL    HW115770   4.571  13.754  -0.019 -0.9308  1.0459  0.9565
34597SOL    HW215771   4.544  13.727   0.128  0.1851 -1.8517  0.6896
34598SOL     OW15772   2.015  10.447   9.301  0.3480  0.1015  0.5561
34598SOL    HW115773   1.999  10.523   9.244  1.6710 -0.3956 -0.5140
34598SOL    HW215774   2.076  10.479   9.367 -0.1521  0.3181  0.9218
34599SOL     OW15775   5.941   3.148   7.556  0.1993  0.0897  0.6364
34599SOL    HW115776   5.941   3.191   7.471  1.9666 -1.4670 -0.2349
34599SOL    HW215777   5.978   3.212   7.616 -1.2565  1.2777  0.3052
34600SOL     OW15778   9.224   7.599  11.144  0.5697 -0.3134  0.8710
34600SOL    HW115779   9.304   7.603  11.196  0.4676 -0.7266  1.0612
34600SOL    HW215780   9.176   7.678  11.168  0.2369 -0.8124  1.8706
34601SOL     OW15781   9.253   6.827   7.561 -0.5986 -0.0173  0.0036
34601SOL    HW115782   9.298   6.872   7.490 -0.1489 -0.3300  0.0871
34601SOL    HW215783   9.323   6.799   7.620 -1.0354  1.2697  1.1828
34602SOL     OW15784   6.760  13.220   9.354 -0.0302  0.7790  0.4453
34602SOL    HW115785   6.665  13.211   9.346 -0.1099  2.2472 -0.5693
34602SOL    HW215786   6.795  13.152   9.296 -0.4248 -0.1181  1.2224
34603SOL     OW15787   9.913   5.806   6.372 -0.4885  0.5878 -0.2665
34603SOL    HW115788   9.964   5.735   6.332 -0.8525 -0.9851  1.9115
34603SOL    HW215789   9.953   5.820   6.458 -0.7384  2.7353 -0.4347
34604SOL     OW15790  12.391   7.586   1.119 -0.5238  0.3197  0.5944
34604SOL    HW115791  12.465   7.626   1.165  0.8469 -0.9167 -0.4837
34604SOL    HW215792  12.315   7.636   1.150  0.6924  1.4183  1.9672
34605SOL     OW15793   1.836   6.075   4.020 -0.0437  0.1154 -0.0691
34605SOL    HW115794   1.865   6.092   4.110  0.7540  2.4960 -0.7096
34605SOL    HW215795   1.826   6.161   3.981 -3.0704 -0.7625 -1.4958
34606SOL     OW15796   4.760   4.701   7.653  0.2742 -0.1464 -0.1911
34606SOL    HW115797   4.745   4.616   7.693 -0.7881 -1.0780 -2.4193
34606SOL    HW215798   4.811   4.683   7.574 -0.6002  1.1602 -1.1104
34607SOL     OW15799   3.459   8.434   4.055 -0.0347 -0.6566 -0.4777
34607SOL    HW115800   3.535   8.476   4.014 -1.2300  2.4596  0.2347
34607SOL    HW215801   3.408   8.398   3.982  2.0430 -2.9347 -0.9680
34608SOL     OW15802   8.006   5.052   2.710 -0.2147  0.3062 -0.1435
34608SOL    HW115803   8.015   4.960   2.685 -0.8248  0.2745 -0.2686
34608SOL    HW215804   7.993   5.098   2.627  0.2503  0.5278 -0.0945
34609SOL     OW15805   6.343  10.119  12.079  0.7047  0.0857  0.3801
34609SOL    HW115806   6.248  10.133  12.084  0.6917  0.0756  0.1923
34609SOL    HW215807   6.352  10.029  12.049  0.7420  0.5343 -1.0801
34610SOL     OW15808   3.016  12.088   4.657 -0.2246  0.1298 -0.0136
34610SOL    HW115809   2.928  12.123   4.646 -0.2918  0.9913  2.5045
34610SOL    HW215810   3.072  12.165   4.657 -0.0092  0.0556  2.5022
34611SOL     OW15811   7.842   5.107   0.100 -0.0540 -0.1252 -0.4665
34611SOL    HW115812   7.834   5.033   0.160 -0.8917 -0.9288 -1.5332
34611SOL    HW215813   7.762   5.158   0.112 -0.1043 -0.1434 -0.7106
34612SOL     OW15814   2.978  11.924  11.046  0.3256  0.3203 -0.4274
34612SOL    HW115815   2.910  11.866  11.082  1.4845 -2.1439 -1.9685
34612SOL    HW215816   2.934  11.971  10.976  0.1730 -1.3787 -1.5287
34613SOL     OW15817  12.636  10.164  11.102  0.2392  0.0997  0.1033
34613SOL    HW115818  12.692  10.240  11.087 -1.2497  1.4353  0.9791
34613SOL    HW215819  12.594  10.182  11.186 -1.5184 -0.8071 -0.5387
34614SOL     OW15820   6.409   4.416   2.095 -0.6310  0.2878 -0.3215
34614SOL    HW115821   6.392   4.509   2.080  0.1476  0.3779 -0.6845
34614SOL    HW215822   6.439   4.383   2.010 -0.3683 -0.1721 -0.0549
34615SOL     OW15823   1.317   4.964  10.399  0.1777 -0.0182  0.6890
34615SOL    HW115824   1.386   4.927  10.344 -0.4636  0.1263 -0.2465
34615SOL    HW215825   1.326   5.059  10.388  1.1343  0.0957  2.2233
34616SOL     OW15826  12.445   5.935   5.243 -0.2735 -0.1243 -0.1479
34616SOL    HW115827  12.410   5.870   5.303 -1.7921  0.1142 -0.7358
34616SOL    HW215828  12.374   5.999   5.231  0.0422 -0.0421 -2.0037
34617SOL     OW15829   1.592  11.369   7.317 -0.6707 -0.5120 -0.2707
34617SOL    HW115830   1.528  11.311   7.358 -0.1116 -0.7522  0.2682
34617SOL    HW215831   1.569  11.456   7.350  0.4046 -0.8187  1.4250
34618SOL     OW15832  11.184   3.636   3.909 -0.4857  0.3328 -0.4299
34618SOL    HW115833  11.271   3.599   3.893 -0.9454 -0.6800 -0.6828
34618SOL    HW215834  11.185   3.660   4.002 -0.0049  0.1404 -0.3793
34619SOL     OW15835  11.330  12.068  13.363 -0.4611 -0.2039 -0.3469
34619SOL    HW115836  11.316  12.083  13.457 -4.1312  1.9188 -1.0543
34619SOL    HW215837  11.411  12.115  13.344 -0.3626  0.5033  1.5331
34620SOL     OW15838  12.899   2.421   0.828  0.4039 -0.0982  0.2641
34620SOL    HW115839  12.983   2.449   0.792  0.5020 -0.0812  0.5072
34620SOL    HW215840  12.872   2.493   0.884 -0.0516  0.1465 -0.2574
34621SOL     OW15841   2.939  11.220   2.675  0.4428  0.0796 -0.1855
34621SOL    HW115842   2.897  11.140   2.706  1.4213 -0.9803 -1.4887
34621SOL    HW215843   2.873  11.264   2.623  0.1725 -0.3293 -0.1895
34622SOL     OW15844  11.180   7.304   6.053 -0.0263 -0.3399 -0.3282
34622SOL    HW115845  11.203   7.392   6.081 -2.1723  0.7229 -1.6610
34622SOL    HW215846  11.124   7.270   6.123  1.6554 -1.1203  0.6962
34623SOL     OW15847   0.115   6.613   2.689  0.7979  0.6250  0.0263
34623SOL    HW115848   0.059   6.645   2.760  0.4598  1.2446 -0.5107
34623SOL    HW215849   0.198   6.659   2.701  0.6198  1.0016 -0.1999
34624SOL     OW15850   0.193   3.713   5.885 -0.1891 -0.3321  0.3346
34624SOL    HW115851   0.102   3.723   5.860  0.0554  2.8289  0.3184
34624SOL    HW215852   0.243   3.742   5.808  0.6742  1.8932  1.6252
34625SOL     OW15853   7.286   3.339   9.041  0.8417  0.9625 -0.2086
34625SOL    HW115854   7.341   3.388   8.981  0.3713  0.7005 -0.8716
34625SOL    HW215855   7.197   3.368   9.021  0.5654 -0.0833 -0.5543
34626SOL     OW15856   9.380  10.370   6.051 -0.1559 -0.2174  0.3433
34626SOL    HW115857   9.440  10.295   6.049  0.0771 -0.0275 -0.0934
34626SOL    HW215858   9.344  10.371   6.139  0.3762 -0.4280  0.5632
34627SOL     OW15859  13.205   0.268  10.122  0.5201 -0.1787  0.6945
34627SOL    HW115860  13.173   0.283  10.033 -0.9264  1.1942  1.4048
34627SOL    HW215861  13.300   0.258  10.111  0.4405  0.4897 -0.9312
34628SOL     OW15862  11.974  13.632   6.855  0.2224 -0.8106 -0.6238
34628SOL    HW115863  12.012  13.715   6.885  0.8042 -1.2680 -0.0437
34628SOL    HW215864  11.880  13.643   6.866  0.1368  0.4076 -2.2332
34629SOL     OW15865  11.722  13.934  12.621 -0.1221  0.3165 -0.3681
34629SOL    HW115866  11.699  13.884  12.543  2.1685 -0.6829 -0.4845
34629SOL    HW215867  11.694  14.024  12.602 -0.6829 -0.1457 -1.8219
34630SOL     OW15868   2.404   8.390   8.166  0.2697 -0.7444  0.2401
34630SOL    HW115869   2.334   8.452   8.150  1.2933  0.2926 -0.3963
34630SOL    HW215870   2.408   8.383   8.262  1.1107  1.3981  0.4278
34631SOL     OW15871   2.755   3.583   1.470 -0.2857  0.6997 -0.1477
34631SOL    HW115872   2.822   3.604   1.405  1.5638 -2.6906  0.4236
34631SOL    HW215873   2.782   3.632   1.549  0.0867  1.2530 -0.6068
34632SOL     OW15874  10.972   3.971   1.749  0.1446 -0.4370 -0.5846
34632SOL    HW115875  10.903   3.971   1.815  1.6923 -3.2258  1.2824
34632SOL    HW215876  11.000   4.062   1.743 -1.6288  0.2613  0.8956
34633SOL     OW15877   0.670   9.039   0.027 -0.2219  0.2929 -0.3564
34633SOL    HW115878   0.747   9.072   0.073 -0.2299  0.1769 -0.2604
34633SOL    HW215879   0.704   8.967  -0.027 -0.4964 -0.6900  0.7426
34634SOL     OW15880   3.580  10.740   0.651  0.3867  0.4604 -0.2570
34634SOL    HW115881   3.547  10.731   0.561  0.3586  0.0807 -0.2103
34634SOL    HW215882   3.602  10.833   0.659 -3.4213  1.4848  0.6700
34635SOL     OW15883  11.205  11.437   0.240  0.0518 -0.0405  0.2519
34635SOL    HW115884  11.154  11.517   0.252  0.6338 -0.0530  4.0573
34635SOL    HW215885  11.139  11.367   0.243 -0.1226  0.1404  1.3704
34636SOL     OW15886  11.188  13.966  11.259 -0.4871 -0.1046  0.5457
34636SOL    HW115887  11.283  13.961  11.271 -0.4670 -2.4854 -0.0510
34636SOL    HW215888  11.165  13.882  11.220 -2.3952  1.7179 -2.6664
34637SOL     OW15889  13.475   6.782   4.261 -0.2740 -0.2867 -0.0199
34637SOL    HW115890  13.562   6.747   4.279 -0.8919 -1.6287  0.5018
34637SOL    HW215891  13.455   6.838   4.336 -0.5442 -1.3590  0.7272
34638SOL     OW15892   0.293   4.777  10.871 -0.1650 -0.2931  0.3998
34638SOL    HW115893   0.203   4.793  10.897  0.0028  0.4582  0.5335
34638SOL    HW215894   0.318   4.699  10.921 -0.0055  0.8419  2.1765
34639SOL     OW15895   6.878  10.765   3.842 -0.6115 -0.0237 -0.3936
34639SOL    HW115896   6.924  10.703   3.787 -1.4931 -0.8253 -0.2605
34639SOL    HW215897   6.788  10.765   3.808 -0.7066  0.9133 -0.1663
34640SOL     OW15898   4.981   6.287  12.194 -0.0399  0.0394 -0.6373
34640SOL    HW115899   5.055   6.314  12.247 -0.2593 -1.0411  0.2466
34640SOL    HW215900   4.979   6.350  12.121  0.9291  0.8644  0.0315
34641SOL     OW15901   4.976   4.644   7.463  0.2483  0.3009 -0.3722
34641SOL    HW115902   5.034   4.712   7.429  0.1692 -0.4117 -2.0549
34641SOL    HW215903   4.943   4.600   7.384 -0.4965 -1.0083  0.6391
34642SOL     OW15904   5.841   3.007  12.576 -0.2010  0.2408 -0.3633
34642SOL    HW115905   5.759   2.979  12.617  0.0293 -0.2694 -0.2444
34642SOL    HW215906   5.830   3.101  12.562 -0.9763  0.0948 -0.7397
34643SOL     OW15907   2.195  11.513   7.044 -0.4042  0.4783  0.1511
34643SOL    HW115908   2.159  11.492   6.958 -2.0817  0.5925  0.7951
34643SOL    HW215909   2.173  11.438   7.099 -0.8782  1.1497  0.8984
34644SOL     OW15910   9.484   0.371   2.034 -0.2442  0.0718 -0.1286
34644SOL    HW115911   9.538   0.446   2.058  2.2409 -0.6250 -2.9779
34644SOL    HW215912   9.533   0.295   2.066 -1.8974 -0.5088  1.2330
34645SOL     OW15913  11.723   7.724   7.849 -0.1785  0.3839 -0.0390
34645SOL    HW115914  11.749   7.804   7.894 -0.5868 -0.6709  2.2229
34645SOL    HW215915  11.800   7.698   7.798 -0.3458  2.6420 -1.6091
34646SOL     OW15916  12.394   9.370   7.514 -0.4869  0.5240  0.4049
34646SOL    HW115917  12.451   9.428   7.565  1.2994 -1.5846  0.9442
34646SOL    HW215918  12.381   9.416   7.431  2.1713  1.0767  0.1997
34647SOL     OW15919  11.263   0.940  12.869 -0.5079  0.5824 -0.2591
34647SOL    HW115920  11.297   0.851  12.878  1.5822  1.4306  0.7291
34647SOL    HW215921  11.168   0.928  12.859 -0.3821 -1.6979  0.7114
34648SOL     OW15922   3.864   0.904   1.193  0.0744 -0.3108 -0.4863
34648SOL    HW115923   3.876   0.847   1.269 -0.8735  0.9432  0.6618
34648SOL    HW215924   3.783   0.874   1.153  0.5391 -0.9291 -0.9849
34649SOL     OW15925  11.961  10.018   0.245  0.2182  0.6106  0.0352
34649SOL    HW115926  12.051   9.984   0.244 -0.4193 -1.1422 -0.6825
34649SOL    HW215927  11.906   9.941   0.233 -1.3988  1.6706  0.3831
34650SOL     OW15928   5.527   3.999   2.706  0.0396  0.0197  0.2355
34650SOL    HW115929   5.585   3.951   2.766  0.7718 -1.3239 -1.4395
34650SOL    HW215930   5.439   3.971   2.730  0.3112 -0.3980  0.7826
34651SOL     OW15931  10.484  10.193   0.485  0.1150 -0.5699 -0.6551
34651SOL    HW115932  10.568  10.213   0.527 -1.7760  2.2738  2.2438
34651SOL    HW215933  10.493  10.225   0.396  1.5936  1.3446  0.1095
34652SOL     OW15934  12.614   2.560   5.018 -0.1372 -0.1519  0.6034
34652SOL    HW115935  12.560   2.594   5.089 -1.3927  0.9755 -0.8275
34652SOL    HW215936  12.551   2.538   4.949  1.1783  1.1271 -1.0922
34653SOL     OW15937   7.782   3.055   0.532  0.3249  0.5349  0.0888
34653SOL    HW115938   7.786   2.969   0.573 -2.0397 -0.8089 -2.1623
34653SOL    HW215939   7.809   3.040   0.441 -2.3636  1.5708 -0.9914
34654SOL     OW15940  10.685   4.932   7.354  0.4864 -0.6021 -0.4848
34654SOL    HW115941  10.754   4.951   7.418  0.6721 -0.2825 -0.7840
34654SOL    HW215942  10.618   4.888   7.406 -0.5824  2.0229  0.5307
34655SOL     OW15943   1.884   9.686   7.550  0.4443 -0.2043 -0.1668
34655SOL    HW115944   1.916   9.655   7.465  0.2705  0.0675 -0.3312
34655SOL    HW215945   1.825   9.758   7.529 -3.5832 -3.1763 -0.1828
34656SOL     OW15946   9.559   4.516   6.312  0.3764 -0.2275  0.2196
34656SOL    HW115947   9.505   4.592   6.290 -1.5570 -1.8316 -0.9469
34656SOL    HW215948   9.634   4.522   6.252  1.1426  1.6143  1.3095
34657SOL     OW15949   3.399   1.660   7.502 -0.0503  0.5837  0.2932
34657SOL    HW115950   3.473   1.615   7.542 -0.3826  0.7123  1.0628
34657SOL    HW215951   3.416   1.654   7.408  2.2405  2.7588  0.4402
34658SOL     OW15952  10.842   8.050  11.998 -0.4603 -0.2026 -0.3233
34658SOL    HW115953  10.799   7.966  11.981 -1.9609  0.6060 -0.7033
34658SOL    HW215954  10.924   8.045  11.949 -0.4767 -1.4866 -0.2495
34659SOL     OW15955  13.885   4.432   2.509  0.0440  0.3395 -0.7159
34659SOL    HW115956  13.915   4.436   2.600 -1.0053  1.5613 -0.3957
34659SOL    HW215957  13.962   4.459   2.458  0.6533 -0.3896 -0.2172
34660SOL     OW15958   5.611   2.537   3.169 -0.7762 -0.1767 -0.2726
34660SOL    HW115959   5.659   2.528   3.087 -2.9926  0.1105 -1.6876
34660SOL    HW215960   5.560   2.617   3.158 -2.1633 -0.8679  0.8010
34661SOL     OW15961  11.201   6.453   2.371  0.1793  0.0367  0.4982
34661SOL    HW115962  11.204   6.542   2.336 -0.1708  0.2807  1.0804
34661SOL    HW215963  11.192   6.464   2.466  0.8168 -0.6203  0.6462
34662SOL     OW15964   6.768  11.195   7.290 -0.6338 -0.2302 -0.2094
34662SOL    HW115965   6.745  11.131   7.222  1.2408  2.0397 -3.1894
34662SOL    HW215966   6.706  11.267   7.276 -1.3952 -0.4532  1.7627
34663SOL     OW15967  11.685   2.996   5.572 -0.3070 -0.3151  0.4998
34663SOL    HW115968  11.671   2.975   5.664 -0.8515  0.3141  0.5709
34663SOL    HW215969  11.758   2.940   5.545 -0.9975 -1.4517  0.9493
34664SOL     OW15970   4.329   4.363   9.232  0.0474  0.1826 -0.4421
34664SOL    HW115971   4.256   4.349   9.293 -0.1352  1.3683 -0.3660
34664SOL    HW215972   4.382   4.283   9.240 -0.6617 -0.2319  0.3092
34665SOL     OW15973   4.784   6.142   5.127  0.2229 -0.2141  0.7541
34665SOL    HW115974   4.744   6.150   5.040 -0.8527 -0.5498  1.2039
34665SOL    HW215975   4.818   6.053   5.130 -0.2141 -0.3780  0.8704
34666SOL     OW15976   6.807   1.885   2.623 -0.7664 -0.1660 -0.1291
34666SOL    HW115977   6.840   1.795   2.627  1.8753  0.7595  0.4384
34666SOL    HW215978   6.713   1.876   2.643 -0.0376 -2.5071  3.1873
34667SOL     OW15979  10.458   9.526  12.391 -0.1059 -0.4133 -0.0449
34667SOL    HW115980  10.380   9.502  12.342 -0.7746 -1.8705  1.6110
34667SOL    HW215981  10.426   9.549  12.478  1.1792  0.4965  0.2276
34668SOL     OW15982  10.383   0.232   1.650  0.1536  0.5548  0.1285
34668SOL    HW115983  10.436   0.267   1.722 -0.7973  0.4365  0.9012
34668SOL    HW215984  10.335   0.159   1.689 -0.8115  0.8536 -0.4695
34669SOL     OW15985   1.447   5.346   1.090  0.6412  0.1227 -0.6650
34669SOL    HW115986   1.430   5.258   1.124  3.0757 -0.0728  0.2740
34669SOL    HW215987   1.481   5.332   1.002  0.9692  0.1229 -0.5392
34670SOL     OW15988  12.132  11.055  11.175  0.1900  0.2725 -0.4292
34670SOL    HW115989  12.106  10.972  11.136  1.2409  0.0179 -0.6292
34670SOL    HW215990  12.053  11.109  11.172 -0.7651 -1.0047  0.5211
34671SOL     OW15991  10.544   4.488   9.496  0.2075 -0.0607 -0.1101
34671SOL    HW115992  10.453   4.466   9.474  1.2338 -2.7093 -2.2642
34671SOL    HW215993  10.560   4.439   9.577 -0.1860  0.2102  0.1386
34672SOL     OW15994   9.269   9.059   5.135  0.4594  0.7029  0.0188
34672SOL    HW115995   9.177   9.065   5.111 -0.1103  3.5042  2.2849
34672SOL    HW215996   9.274   9.102   5.221  3.6914 -0.4564  0.5583
34673SOL     OW15997  12.874   4.468   9.852 -0.3041  0.4060 -0.2807
34673SOL    HW115998  12.880   4.511   9.938 -1.0086  0.1450 -0.0993
34673SOL    HW215999  12.940   4.399   9.855 -1.7159 -0.9573  0.8484
34674SOL     OW16000   4.526   5.081   6.329 -0.3812 -0.0373  0.4519
34674SOL    HW116001   4.527   5.013   6.261  0.3107  0.5441 -0.1415
34674SOL    HW216002   4.474   5.044   6.400 -2.2027 -0.1873 -0.8955
34675SOL     OW16003   8.728   3.905   3.134  0.1790 -0.0254 -0.1989
34675SOL    HW116004   8.777   3.825   3.117  0.9052  0.2010  0.7563
34675SOL    HW216005   8.702   3.898   3.226 -2.0443 -0.3781 -0.7971
34676SOL     OW16006   9.996  11.003  11.313 -0.1597 -0.0857  0.2837
34676SOL    HW116007  10.090  11.009  11.296 -0.1455 -1.0634 -0.0579
34676SOL    HW216008   9.958  11.080  11.271  0.3384 -0.4015 -0.7747
34677SOL     OW16009  13.725  12.747   2.600  0.0611 -0.5799 -0.0048
34677SOL    HW116010  13.804  12.714   2.557  0.7104  2.2785 -1.2420
34677SOL    HW216011  13.653  12.714   2.547  0.3710 -2.9228  0.9291
34678SOL     OW16012  13.784  10.436  10.587  0.3758 -0.1884 -0.5237
34678SOL    HW116013  13.768  10.530  10.577  0.5400 -0.2161 -1.0595
34678SOL    HW216014  13.879  10.429  10.591  0.3564 -0.3136 -0.2670
34679SOL     OW16015  11.549   2.182   8.580 -0.2582 -0.2030  0.4356
34679SOL    HW116016  11.462   2.145   8.566  0.4051 -1.2427 -1.2987
34679SOL    HW216017  11.544   2.224   8.666 -1.8259 -2.0899  1.3342
34680SOL     OW16018  13.405  12.385   2.709 -0.4927  0.1179 -0.1755
34680SOL    HW116019  13.379  12.340   2.629  0.2128 -0.0980 -0.2917
34680SOL    HW216020  13.494  12.354   2.726 -1.0161 -0.6971  1.3050
34681SOL     OW16021  12.125   0.956   5.503 -0.3848  0.1659  0.8405
34681SOL    HW116022  12.105   1.049   5.491 -3.1866 -0.5580 -1.3440
34681SOL    HW216023  12.067   0.928   5.575 -0.8153 -0.1980  0.3620
34682SOL     OW16024   1.563   7.197  10.830 -0.2810  0.3393  0.2130
34682SOL    HW116025   1.582   7.280  10.874 -0.8713 -0.1874  1.5191
34682SOL    HW216026   1.507   7.222  10.756  1.9897  1.4109 -1.2319
34683SOL     OW16027   0.300   6.911  10.099  0.2706  0.2598 -0.4156
34683SOL    HW116028   0.353   6.924  10.020  1.4581 -0.3477  0.2423
34683SOL    HW216029   0.249   6.832  10.080 -0.0626  0.5836 -0.8843
34684SOL     OW16030   6.959  13.637  11.898 -0.6352  0.4118 -0.2792
34684SOL    HW116031   6.919  13.722  11.918  2.5567  1.8738  0.5998
34684SOL    HW216032   6.974  13.639  11.803 -1.0535  0.5836 -0.3435
34685SOL     OW16033  11.405   4.416   0.463  0.1819  0.5315 -0.3308
34685SOL    HW116034  11.325   4.363   0.461  0.7133 -0.4243  1.4590
34685SOL    HW216035  11.373   4.506   0.459 -0.8956  0.1430 -1.0291
34686SOL     OW16036   4.979   7.809   3.170  0.4881  0.4008  0.2678
34686SOL    HW116037   4.970   7.845   3.258  0.7139  0.1383  0.4005
34686SOL    HW216038   4.911   7.853   3.119 -1.9996 -1.9473  1.3508
34687SOL     OW16039   0.160   5.966  11.957 -0.0311  0.3805  0.0624
34687SOL    HW116040   0.214   5.925  11.890  0.5015  0.7436  0.2560
34687SOL    HW216041   0.073   5.929  11.945 -0.0758  0.8559 -1.1785
34688SOL     OW16042   6.705   0.438   4.053 -0.0857 -0.1462 -0.1415
34688SOL    HW116043   6.667   0.381   4.120 -2.7575  0.7639 -0.7761
34688SOL    HW216044   6.651   0.517   4.055 -0.4938 -0.1971 -3.5959
34689SOL     OW16045   5.421   4.084   0.394 -0.5343  0.1078 -0.2026
34689SOL    HW116046   5.448   4.061   0.483 -0.6401 -0.0799 -0.2183
34689SOL    HW216047   5.334   4.123   0.405 -1.8864 -2.5953 -0.4958
34690SOL     OW16048   1.077   1.179  13.227 -0.0272 -0.6034 -0.7086
34690SOL    HW116049   1.141   1.162  13.297  1.0519  0.1892 -1.4644
34690SOL    HW216050   0.995   1.195  13.273  0.5274 -0.6904  0.3503
34691SOL     OW16051   9.956   5.280   4.760 -0.2311 -0.0368  0.0156
34691SOL    HW116052   9.921   5.310   4.676  0.0117 -1.7067 -0.7208
34691SOL    HW216053   9.999   5.198   4.740  0.3120 -0.1987  1.7011
34692SOL     OW16054   9.445   8.527   9.089  0.1657 -0.6154  0.1465
34692SOL    HW116055   9.509   8.594   9.113  0.3780 -0.9664  0.5596
34692SOL    HW216056   9.424   8.483   9.172  0.0524 -1.0848 -0.1305
34693SOL     OW16057  11.566   0.198   1.646  0.5348 -0.2419 -0.2403
34693SOL    HW116058  11.532   0.218   1.734  0.2174 -1.6365 -0.0284
34693SOL    HW216059  11.645   0.251   1.639  1.3667 -1.1618  1.4726
34694SOL     OW16060   7.413  11.895   8.006 -0.2543 -0.5683 -0.0229
34694SOL    HW116061   7.372  11.951   8.072  0.1932  0.1489 -0.3356
34694SOL    HW216062   7.376  11.808   8.021  0.8693 -0.7351  2.0764
34695SOL     OW16063   0.872   3.551   6.488 -0.1821  0.1156 -0.6186
34695SOL    HW116064   0.870   3.617   6.557  0.7486  1.4443 -1.8251
34695SOL    HW216065   0.896   3.598   6.409 -2.1637 -1.1810 -2.1107
34696SOL     OW16066   8.060  11.156   0.777  0.9168 -0.2730  0.1253
34696SOL    HW116067   8.117  11.208   0.833  0.8753  0.6811 -0.6909
34696SOL    HW216068   8.033  11.216   0.707 -0.2725 -0.9893 -0.0642
34697SOL     OW16069   9.236   3.392  12.803  0.1405  0.6688  0.1140
34697SOL    HW116070   9.197   3.309  12.830  1.6920 -0.0833  0.1885
34697SOL    HW216071   9.260   3.435  12.885 -1.2199  1.5045  0.0970
34698SOL     OW16072   0.469   3.424   3.580 -0.1206  0.2325 -0.4743
34698SOL    HW116073   0.450   3.515   3.604  0.0914  0.0847  0.2670
34698SOL    HW216074   0.505   3.430   3.491 -2.2024  0.6583 -1.3551
34699SOL     OW16075  10.007   6.268   8.358  0.2839 -0.1093  0.7484
34699SOL    HW116076   9.958   6.265   8.441 -1.2157 -1.7481 -0.1420
34699SOL    HW216077  10.077   6.204   8.369 -0.6942 -1.2913  0.3309
34700SOL     OW16078   7.405   9.915   3.483 -0.5092  0.5084 -0.1616
34700SOL    HW116079   7.425   9.904   3.390 -0.7365  0.6007 -0.2225
34700SOL    HW216080   7.341   9.986   3.485 -1.9389 -0.7268 -0.1023
34701SOL     OW16081  10.260   8.992   5.840  0.1729  0.1066  0.0940
34701SOL    HW116082  10.355   8.988   5.834  0.1347 -0.5032 -0.1936
34701SOL    HW216083  10.241   8.971   5.932  0.3045  0.1143  0.1238
34702SOL     OW16084   2.829  13.147   8.029  0.0502  0.3717 -0.2609
34702SOL    HW116085   2.816  13.237   8.060 -0.9812 -0.2941  1.4125
34702SOL    HW216086   2.914  13.121   8.065 -0.4240  0.1300  0.7062
34703SOL     OW16087   6.003   4.078   1.227 -0.7314  0.1703 -0.6739
34703SOL    HW116088   5.940   4.115   1.289 -0.6376  0.9587 -1.0441
34703SOL    HW216089   6.002   4.138   1.153  0.7434  0.4122 -0.5221
34704SOL     OW16090   3.763  12.666   5.778  0.1028 -0.0458  0.6612
34704SOL    HW116091   3.729  12.754   5.761 -0.1040 -0.2543 -0.0113
34704SOL    HW216092   3.844  12.661   5.728  1.0096  0.3420  2.0298
34705SOL     OW16093   4.473   1.498  12.795  0.4853 -0.8722  0.2567
34705SOL    HW116094   4.550   1.547  12.823 -0.3875  0.1306  1.0210
34705SOL    HW216095   4.460   1.524  12.704  0.5475 -0.3513  0.3910
34706SOL     OW16096  12.018   7.607   5.227 -0.4330  0.3471  0.0286
34706SOL    HW116097  11.969   7.653   5.294 -1.2853  2.7658 -2.1205
34706SOL    HW216098  12.105   7.647   5.229 -0.0560 -0.4431  0.4413
34707SOL     OW16099  10.323   2.897  10.785 -0.5139  0.3217 -0.3919
34707SOL    HW116100  10.392   2.931  10.729  0.1419  0.2558  0.3645
34707SOL    HW216101  10.350   2.808  10.807 -0.4150  0.5734  0.5635
34708SOL     OW16102   5.189   9.320   6.718  0.0297  0.3418  0.2226
34708SOL    HW116103   5.253   9.250   6.712 -1.0309 -0.7378  1.0021
34708SOL    HW216104   5.115   9.281   6.764 -0.6450  1.9454  0.5633
34709SOL     OW16105   9.975   1.456   9.184  0.2853 -0.1404  0.4357
34709SOL    HW116106  10.060   1.450   9.227  0.7464  0.4467 -0.3771
34709SOL    HW216107   9.965   1.371   9.140  0.7081 -0.0173  0.0869
34710SOL     OW16108  12.995   1.642   5.559  0.6604 -0.4457  0.1409
34710SOL    HW116109  12.982   1.556   5.600  0.7168 -0.6430 -0.2531
34710SOL    HW216110  13.063   1.627   5.494  0.1998 -0.2446 -0.3868
34711SOL     OW16111   4.388  13.047  13.425 -0.2471  0.0053 -0.1881
34711SOL    HW116112   4.398  13.097  13.506  0.8133  1.1545 -0.9975
34711SOL    HW216113   4.478  13.030  13.395 -0.6099 -1.0067 -0.7715
34712SOL     OW16114   4.204   7.932   8.051 -0.4090  0.1974 -0.7898
34712SOL    HW116115   4.166   7.849   8.081  1.1162 -0.1704  0.2192
34712SOL    HW216116   4.189   7.931   7.956  0.4860 -1.7456 -0.9686
34713SOL     OW16117  10.750   4.252  10.854  0.2725 -0.4542  0.3654
34713SOL    HW116118  10.724   4.278  10.766  0.2829 -0.5989  0.3177
34713SOL    HW216119  10.711   4.164  10.865  0.4402 -0.5205  0.4275
34714SOL     OW16120   4.704   1.447   4.050 -0.1862 -0.2556 -0.3358
34714SOL    HW116121   4.695   1.472   4.142 -2.6613 -0.5361 -0.4472
34714SOL    HW216122   4.641   1.376   4.038  0.6482 -0.7452 -2.0906
34715SOL     OW16123   3.103   2.866  10.025  0.2241 -0.2565  0.3295
34715SOL    HW116124   3.030   2.922  10.050  0.0058 -0.6920  0.6648
34715SOL    HW216125   3.176   2.927  10.012  0.1845  0.0411  1.4130
34716SOL     OW16126   3.303   7.228   8.631  0.0991 -0.2108  0.1446
34716SOL    HW116127   3.242   7.239   8.704  0.6320 -2.0033  0.9341
34716SOL    HW216128   3.257   7.171   8.570 -0.0454  0.6665 -0.5911
34717SOL     OW16129  13.776   8.621   7.503  0.3123  0.0321  0.2159
34717SOL    HW116130  13.726   8.685   7.554  0.4108 -0.1620  0.5586
34717SOL    HW216131  13.849   8.597   7.560 -0.0429 -0.8253  0.3278
34718SOL     OW16132  11.957   3.914  10.541 -0.0189  0.0660  0.1060
34718SOL    HW116133  12.004   3.911  10.458  0.1458  0.7842  0.1636
34718SOL    HW216134  11.926   3.825  10.555 -0.1019 -0.0482 -0.7568
34719SOL     OW16135   4.466   8.948  10.970  0.3566  0.2130  0.1345
34719SOL    HW116136   4.412   9.000  10.912 -0.4017  0.0048  0.6410
34719SOL    HW216137   4.556   8.967  10.943  0.0088 -0.9207 -1.9931
34720SOL     OW16138   4.349  10.875   2.861  0.2859 -0.4235 -0.6776
34720SOL    HW116139   4.395  10.822   2.927 -0.4504  1.1219  1.1448
34720SOL    HW216140   4.265  10.831   2.850  0.1311 -0.2952 -0.0428
34721SOL     OW16141   1.136   2.516   5.149 -0.0408 -0.0159 -0.0205
34721SOL    HW116142   1.217   2.464   5.146 -0.4922 -0.7769  0.6446
34721SOL    HW216143   1.163   2.604   5.123  1.3507  0.1723  1.8648
34722SOL     OW16144   7.539  13.285  12.998  0.3396 -0.4661  0.7926
34722SOL    HW116145   7.463  13.270  13.054 -0.8234 -1.0202 -0.8365
34722SOL    HW216146   7.530  13.377  12.971 -0.9947 -1.0509 -1.0153
34723SOL     OW16147   5.550   6.528   7.387  0.0071 -0.0853  0.0806
34723SOL    HW116148   5.462   6.522   7.349 -0.4736 -0.4860  1.2068
34723SOL    HW216149   5.537   6.577   7.468  1.0153  0.7833 -0.2668
34724SOL     OW16150  11.170   3.908   4.623 -0.2320  0.3025 -0.1896
34724SOL    HW116151  11.089   3.958   4.619 -0.2518  0.3290  0.5069
34724SOL    HW216152  11.217   3.944   4.698  0.2596  0.0382 -0.3652
34725SOL     OW16153   8.795   6.924   9.332 -0.4593 -0.4409  0.2608
34725SOL    HW116154   8.881   6.893   9.305 -0.9793 -1.8919  0.2101
34725SOL    HW216155   8.799   6.928   9.427 -0.6815 -1.6067  0.3280
34726SOL     OW16156   9.518   2.242   3.425  0.1230 -0.4484  0.0998
34726SOL    HW116157   9.605   2.222   3.391  0.3742  1.7054 -0.6883
34726SOL    HW216158   9.464   2.168   3.398  1.4150 -1.1680 -0.6013
34727SOL     OW16159   1.237  10.609  10.411 -0.1375 -0.1918  0.1761
34727SOL    HW116160   1.311  10.558  10.378 -0.5019 -0.5727 -0.0685
34727SOL    HW216161   1.268  10.700  10.412 -0.3944 -0.0187 -2.1334
34728SOL     OW16162   3.025   9.270  13.874 -0.4657  0.5930  0.0020
34728SOL    HW116163   3.113   9.307  13.882  1.3229 -2.8225 -2.0940
34728SOL    HW216164   3.008   9.229  13.959  1.0863 -0.8301 -0.3343
34729SOL     OW16165  13.555   1.190   2.005  0.9774  0.2706 -0.3689
34729SOL    HW116166  13.491   1.235   1.950  0.4418  0.9969  0.7933
34729SOL    HW216167  13.590   1.120   1.950 -1.9086 -1.1389 -0.5992
34730SOL     OW16168   7.365   2.867   6.481  0.1192  0.3381 -0.0639
34730SOL    HW116169   7.435   2.931   6.467 -1.8126  2.1232 -2.7702
34730SOL    HW216170   7.321   2.862   6.396 -3.2521 -0.3603  1.5443
34731SOL     OW16171   6.436   9.703   6.794  0.3188  0.3266 -0.0267
34731SOL    HW116172   6.447   9.665   6.706  0.0889 -1.0408  0.5028
34731SOL    HW216173   6.345   9.734   6.796  0.5743  1.1358 -0.5428
34732SOL     OW16174   0.013   3.302   1.808 -0.0597 -0.2609 -0.2688
34732SOL    HW116175   0.012   3.268   1.897  3.0905  0.5907  0.2308
34732SOL    HW216176   0.081   3.370   1.809 -2.4538  2.4154 -2.4432
34733SOL     OW16177  12.128   3.323   3.339  0.1465  0.3858 -0.2860
34733SOL    HW116178  12.078   3.383   3.283  1.3017  0.5824 -1.1677
34733SOL    HW216179  12.191   3.283   3.279  2.0219  1.2375  1.0188
34734SOL     OW16180  10.845   5.518   8.502  0.2635  0.4519 -0.2913
34734SOL    HW116181  10.764   5.469   8.516  0.3068  0.9951  2.5385
34734SOL    HW216182  10.816   5.603   8.467 -0.4323  0.5909  0.5624
34735SOL     OW16183   0.710   8.368  13.408 -0.6076  0.1352 -0.6871
34735SOL    HW116184   0.730   8.324  13.491  2.0650  1.8766 -0.3131
34735SOL    HW216185   0.732   8.303  13.341 -1.1097 -0.6656 -0.1030
34736SOL     OW16186   7.600   1.357  11.585  0.1300  0.1452 -0.4394
34736SOL    HW116187   7.508   1.331  11.591  0.0220 -0.1999 -2.8052
34736SOL    HW216188   7.647   1.277  11.560  0.7487  0.7726 -1.3555
34737SOL     OW16189   4.003  10.079   4.268  0.4598 -0.5321  0.4920
34737SOL    HW116190   4.083  10.122   4.298  0.5262 -0.0714 -0.3221
34737SOL    HW216191   3.939  10.097   4.336  0.5865  0.5642  0.3293
34738SOL     OW16192  12.950   0.179  10.149 -0.2364  0.1005 -0.3168
34738SOL    HW116193  13.018   0.246  10.141  0.6727 -0.7923 -0.2715
34738SOL    HW216194  12.999   0.097  10.164 -1.3597 -0.4044  0.7094
34739SOL     OW16195   9.372   7.173   0.729 -0.2512 -0.3765  0.5714
34739SOL    HW116196   9.295   7.145   0.681  0.5335 -0.6685 -0.5443
34739SOL    HW216197   9.427   7.216   0.664  0.0388  0.8668  1.5819
34740SOL     OW16198   7.084  11.430   7.169  0.0903 -0.0434 -0.0537
34740SOL    HW116199   7.175  11.460   7.170  0.7925 -2.0038  0.3503
34740SOL    HW216200   7.091  11.336   7.150 -2.0386  0.3323 -3.6880
34741SOL     OW16201   6.328  10.572   5.989  0.0847 -0.4352 -0.0838
34741SOL    HW116202   6.318  10.643   6.052 -1.7666 -0.4000 -0.3598
34741SOL    HW216203   6.400  10.520   6.022 -0.7523 -0.3483  2.0118
34742SOL     OW16204   5.584   9.859   1.529 -0.2650 -0.1921  0.7071
34742SOL    HW116205   5.656   9.817   1.576  0.9460  0.7279 -0.2419
34742SOL    HW216206   5.550   9.791   1.471  0.8111 -0.2562  0.1236
34743SOL     OW16207   2.578   0.439   1.287  0.4867  0.2867 -0.2685
34743SOL    HW116208   2.531   0.367   1.330  1.8153  0.0573  0.8897
34743SOL    HW216209   2.509   0.500   1.261 -0.5603 -0.7272  0.0355
34744SOL     OW16210   6.405   8.673   2.649 -0.7299 -0.0368 -0.7980
34744SOL    HW116211   6.434   8.749   2.598  1.2199 -0.8490 -1.0095
34744SOL    HW216212   6.325   8.644   2.606  0.5422 -0.3448 -3.0798
34745SOL     OW16213   7.003   7.586   2.784 -0.0044  0.4479 -0.0506
34745SOL    HW116214   7.024   7.542   2.702  0.1569 -0.2219  0.3444
34745SOL    HW216215   6.912   7.563   2.801  0.2986 -0.3453  0.5309
34746SOL     OW16216  10.816   8.846  13.953  0.6704 -0.2745 -0.1268
34746SOL    HW116217  10.729   8.885  13.965  0.0798 -1.2295 -1.1023
34746SOL    HW216218  10.871   8.891  14.016  0.1241  2.4086 -1.3887
34747SOL     OW16219   4.732   5.060  11.621 -0.1188 -0.0924 -0.1915
34747SOL    HW116220   4.797   5.018  11.678  0.6627  2.3357  0.8220
34747SOL    HW216221   4.785   5.104  11.555 -0.7031  1.7289  0.5151
34748SOL     OW16222   5.931   9.729   7.392 -0.4197  0.3078 -0.0241
34748SOL    HW116223   5.984   9.768   7.322  0.9871  0.9192  1.3304
34748SOL    HW216224   5.868   9.798   7.415 -0.6063  0.2599 -0.3780
34749SOL     OW16225   3.963   6.976  13.515 -0.5261 -0.2487  0.4629
34749SOL    HW116226   4.052   6.993  13.482 -1.6671  1.6028 -1.9690
34749SOL    HW216227   3.947   7.048  13.577 -1.1656  0.9403 -1.0166
34750SOL     OW16228  10.862   1.790  10.878  0.3213  0.6167 -0.2610
34750SOL    HW116229  10.812   1.733  10.820  0.2128  0.1989  0.2286
34750SOL    HW216230  10.805   1.801  10.955  0.6004  0.8804 -0.0870
34751SOL     OW16231   9.725   8.719   0.748 -0.3554 -0.2230  0.2777
34751SOL    HW116232   9.789   8.653   0.776 -0.1829 -0.5245 -0.7622
34751SOL    HW216233   9.710   8.700   0.656 -0.3211  1.1760 -0.0477
34752SOL     OW16234   7.618   4.083   3.035 -0.4666 -0.2971  0.3734
34752SOL    HW116235   7.614   4.161   2.980 -2.0519  0.2645  1.2338
34752SOL    HW216236   7.699   4.093   3.084  0.5695 -0.4108 -1.2272
34753SOL     OW16237   0.968  10.472   4.738 -0.3113 -0.1015 -0.4651
34753SOL    HW116238   0.936  10.558   4.765 -0.1108 -0.1661 -0.0151
34753SOL    HW216239   0.895  10.413   4.752 -0.5318  0.0321 -1.0089
34754SOL     OW16240  14.027   4.052   5.833  0.6339 -0.1493 -0.1460
34754SOL    HW116241  13.976   3.972   5.821  2.2191 -1.6558  2.3270
34754SOL    HW216242  14.118   4.023   5.833  1.4665  2.1509 -2.2415
34755SOL     OW16243   8.981  10.466   3.016 -0.2338  0.5979 -0.0066
34755SOL    HW116244   9.038  10.467   2.939 -0.3376  0.9124 -0.0830
34755SOL    HW216245   9.030  10.417   3.081  0.6696  1.8993  0.3387
34756SOL     OW16246  11.871   1.383   1.743  0.4156 -0.3580 -0.0875
34756SOL    HW116247  11.807   1.312   1.743  0.8508 -0.7679  0.6356
34756SOL    HW216248  11.824   1.459   1.709 -0.3365 -0.7444  0.0770
34757SOL     OW16249   7.218   7.922   2.820 -0.1146 -0.2914  0.4122
34757SOL    HW116250   7.192   7.925   2.728  0.9906 -0.2151  0.0838
34757SOL    HW216251   7.304   7.964   2.822 -0.2105 -0.1014  1.5191
34758SOL     OW16252  12.616   5.154  13.237  0.2044 -0.6163 -0.6480
34758SOL    HW116253  12.521   5.147  13.239  0.0250  1.4255  0.8788
34758SOL    HW216254  12.634   5.248  13.235  2.2021 -0.9329 -0.2539
34759SOL     OW16255   2.362   2.127   1.607  0.1884 -0.3388  0.4741
34759SOL    HW116256   2.310   2.163   1.680 -0.7568 -0.4697 -0.1131
34759SOL    HW216257   2.363   2.033   1.623  0.6735 -0.2888  0.7508
34760SOL     OW16258  13.001   9.286   3.621  0.5018 -0.2846  0.4741
34760SOL    HW116259  13.074   9.225   3.611 -0.1439 -1.5411  2.7865
34760SOL    HW216260  12.939   9.262   3.552  1.0037 -1.1283  0.3092
34761SOL     OW16261   4.766   6.157  13.072  0.1571 -0.4105  0.7064
34761SOL    HW116262   4.691   6.135  13.017  0.3672  0.2326  0.1451
34761SOL    HW216263   4.830   6.088  13.052  0.4122  0.0744 -0.2370
34762SOL     OW16264   2.533   6.187   3.168  0.2044  0.1760  0.2378
34762SOL    HW116265   2.455   6.236   3.193  0.2795  0.0701  0.6842
34762SOL    HW216266   2.603   6.224   3.221  0.7878  1.3275 -1.2459
34763SOL     OW16267   7.378   9.628   6.711 -0.0065 -0.4142 -0.1484
34763SOL    HW116268   7.288   9.658   6.723 -1.5567 -3.6222 -2.2042
34763SOL    HW216269   7.402   9.660   6.624 -0.5913 -2.4418 -1.1143
34764SOL     OW16270   1.759   0.395   7.409  0.2377 -0.4856  0.6100
34764SOL    HW116271   1.707   0.363   7.336  0.3125 -0.3525  0.4980
34764SOL    HW216272   1.712   0.473   7.440  0.9097  0.2384 -0.1456
34765SOL     OW16273   8.727  12.472  10.799 -0.2432  0.3598 -0.3596
34765SOL    HW116274   8.676  12.552  10.786  0.6392  0.9913 -0.0508
34765SOL    HW216275   8.817  12.496  10.775  0.1883 -0.3001  0.5155
34766SOL     OW16276   2.120   8.784   6.516 -1.0896 -0.0767  0.0570
34766SOL    HW116277   2.146   8.876   6.517 -0.4226 -0.2569 -0.4440
34766SOL    HW216278   2.062   8.776   6.440 -2.6853  0.3259  1.1710
34767SOL     OW16279   9.770   2.394   4.042  0.0627 -0.0192  0.2891
34767SOL    HW116280   9.728   2.308   4.038  1.1791 -0.5732  0.0252
34767SOL    HW216281   9.733   2.442   3.967  1.0723 -1.0676 -0.9390
34768SOL     OW16282   0.296   1.760   6.555  0.2971 -0.9383  0.2959
34768SOL    HW116283   0.314   1.737   6.464 -0.9245  1.5524 -0.6793
34768SOL    HW216284   0.262   1.679   6.594 -0.3157 -1.7635 -1.8175
34769SOL     OW16285  12.012   8.806   0.200  0.4313  0.2532 -0.0030
34769SOL    HW116286  11.971   8.881   0.157  0.8163  1.9114  2.3484
34769SOL    HW216287  12.055   8.758   0.129 -1.8048  0.8839 -1.9192
34770SOL     OW16288   4.984   0.836   4.450 -0.4274  0.2289 -0.0695
34770SOL    HW116289   4.988   0.870   4.360  2.2953 -0.9000 -0.4449
34770SOL    HW216290   4.944   0.749   4.441  0.0501  0.0247 -0.2178
34771SOL     OW16291   9.866   5.015  12.894  0.0118  0.0867  0.3640
34771SOL    HW116292   9.809   4.994  12.820 -0.1756 -1.5642  0.9267
34771SOL    HW216293   9.834   5.099  12.926 -0.1515  0.6486 -1.1684
34772SOL     OW16294   2.849   6.598   5.261  0.3641  0.3497  0.7705
34772SOL    HW116295   2.879   6.580   5.172 -1.5561  1.6322 -0.2011
34772SOL    HW216296   2.838   6.511   5.300 -1.0697 -0.3652 -1.0729
34773SOL     OW16297  10.741   5.613  13.685 -0.2527  0.4149  0.7491
34773SOL    HW116298  10.803   5.587  13.617  0.9597  1.3914  1.4418
34773SOL    HW216299  10.700   5.693  13.652 -0.3241  0.3885  0.7738
34774SOL     OW16300  12.575   0.451   5.112 -0.1181  0.2880 -0.4073
34774SOL    HW116301  12.647   0.390   5.097 -0.1688  0.5099 -1.6234
34774SOL    HW216302  12.582   0.514   5.041 -1.4172  0.3993 -0.4605
34775SOL     OW16303   0.530  13.663  10.265 -0.0111 -0.0376  0.1395
34775SOL    HW116304   0.576  13.606  10.204  0.7195  1.8977 -1.2272
34775SOL    HW216305   0.588  13.670  10.340  0.2924 -0.4034 -0.0565
34776SOL     OW16306   5.861   1.757   0.811 -0.4709  0.1046  0.9477
34776SOL    HW116307   5.840   1.851   0.811 -1.8951 -0.1902  1.0351
34776SOL    HW216308   5.851   1.730   0.902 -0.4682 -0.2228  0.8516
34777SOL     OW16309   8.638  11.316   1.956  0.1435  0.2846 -0.5452
34777SOL    HW116310   8.720  11.280   1.922  0.1471  0.4235 -0.6886
34777SOL    HW216311   8.656  11.410   1.967 -0.1164  0.3865 -0.9520
34778SOL     OW16312   6.036   2.399   8.514  0.0429 -0.5093 -0.0452
34778SOL    HW116313   6.079   2.478   8.480 -0.5441 -0.3921 -0.5309
34778SOL    HW216314   6.098   2.365   8.579 -1.0683  2.1767  2.6750
34779SOL     OW16315  13.615  11.497   1.664 -0.4778  0.0660 -0.3304
34779SOL    HW116316  13.528  11.536   1.655 -0.1343  0.6395 -1.3258
34779SOL    HW216317  13.636  11.465   1.576 -0.0572 -0.9011  0.1048
34780SOL     OW16318   8.190  11.960   0.808  0.3917  0.2276 -0.1700
34780SOL    HW116319   8.114  11.969   0.866  0.4443 -1.0167  0.1133
34780SOL    HW216320   8.160  11.996   0.724 -1.1277 -1.7789 -0.5669
34781SOL     OW16321   2.781   3.079   8.630 -0.7057  0.3730 -0.1614
34781SOL    HW116322   2.808   3.017   8.697 -1.8716 -0.8969 -0.7899
34781SOL    HW216323   2.707   3.126   8.669 -0.6144  0.4919 -0.1306
34782SOL     OW16324  13.827   0.302   4.896  0.0707  0.3759  0.3774
34782SOL    HW116325  13.808   0.209   4.888  0.4457  0.3846 -0.7625
34782SOL    HW216326  13.747   0.345   4.864 -0.0538  0.4558  0.7830
34783SOL     OW16327   6.018  10.963   3.168 -0.1774  0.0308 -0.2741
34783SOL    HW116328   6.032  11.058   3.174 -0.8451  0.1734 -0.7631
34783SOL    HW216329   6.087  10.925   3.221  0.1716  0.7923 -0.1675
34784SOL     OW16330   3.527  11.869   4.810 -0.7911  0.3111 -0.1813
34784SOL    HW116331   3.585  11.822   4.751 -0.3244 -0.5516  0.9270
34784SOL    HW216332   3.507  11.951   4.764  0.0406 -0.0669 -1.2516
34785SOL     OW16333   3.745   0.188   0.107  0.1809 -0.4121 -0.1519
34785SOL    HW116334   3.659   0.223   0.128  0.5137 -0.5589  1.5341
34785SOL    HW216335   3.779   0.248   0.040 -1.0418 -0.1209 -0.5488
34786SOL     OW16336   3.869  10.273   8.193  0.5916 -0.2279  0.4502
34786SOL    HW116337   3.843  10.312   8.109  0.9414 -0.4662  0.2260
34786SOL    HW216338   3.793  10.283   8.249  0.5225  0.3773  0.2558
34787SOL     OW16339   7.413   0.919   1.414 -0.0685  0.5510  0.3053
34787SOL    HW116340   7.455   1.002   1.389 -0.8690  0.9294  0.1695
34787SOL    HW216341   7.477   0.852   1.392 -0.5288  0.8794 -2.4637
34788SOL     OW16342  12.228   0.642   0.424  0.3434  0.7281 -0.4333
34788SOL    HW116343  12.154   0.581   0.416 -0.1550  1.2205  0.3512
34788SOL    HW216344  12.252   0.661   0.333 -0.7781  0.8987 -0.7145
34789SOL     OW16345   5.518   5.767  12.671 -0.2660  0.4415 -0.5697
34789SOL    HW116346   5.486   5.787  12.760 -1.8430 -2.4857 -0.3587
34789SOL    HW216347   5.491   5.843  12.619  0.2155  1.9977  1.2937
34790SOL     OW16348   3.415  10.193   6.983  0.5242  0.3819  0.3153
34790SOL    HW116349   3.388  10.281   7.009  0.7914  0.2075  1.1992
34790SOL    HW216350   3.505  10.184   7.013  0.0544 -0.6801  1.4820
34791SOL     OW16351   0.865  13.731   1.893  0.1519  0.5485 -0.0350
34791SOL    HW116352   0.954  13.766   1.895 -0.2184  1.6404 -1.1928
34791SOL    HW216353   0.863  13.667   1.964  2.3939 -0.8656 -1.1371
34792SOL     OW16354  12.539  12.891   1.945 -0.3836  1.0113 -0.1258
34792SOL    HW116355  12.536  12.884   2.041  0.1751 -0.5921 -0.1941
34792SOL    HW216356  12.633  12.889   1.925 -0.5226 -0.3016 -0.7700
34793SOL     OW16357   2.333  10.080   1.971 -0.6054  0.9087 -0.1805
34793SOL    HW116358   2.299   9.991   1.965  0.7063  0.2773  1.0573
34793SOL    HW216359   2.402  10.084   1.905 -0.9541  1.1698 -0.5370
34794SOL     OW16360   9.833   3.531  10.779 -0.1535 -0.3431  0.0896
34794SOL    HW116361   9.899   3.462  10.773 -1.8256 -2.2224  1.5637
34794SOL    HW216362   9.762   3.501  10.721 -0.2257  1.0108 -0.5486
34795SOL     OW16363  13.805   3.755   1.392 -0.1466 -0.3574  0.1608
34795SOL    HW116364  13.769   3.674   1.429 -0.1006 -0.4037  0.1043
34795SOL    HW216365  13.756   3.768   1.311 -0.2454 -0.2578  0.2371
34796SOL     OW16366  13.901  12.471   5.395 -0.5191 -0.1387 -0.1953
34796SOL    HW116367  13.837  12.420   5.445 -1.7349  0.7653 -0.7533
34796SOL    HW216368  13.964  12.502   5.461 -0.5498 -1.1971  0.3473
34797SOL     OW16369   0.112   2.839  13.440 -0.5556 -0.1674  0.2885
34797SOL    HW116370   0.116   2.840  13.344 -1.6309 -0.0384  0.2391
34797SOL    HW216371   0.116   2.931  13.465  2.3561 -0.2590  0.5251
34798SOL     OW16372   8.995  13.238  12.644  0.4970  0.4366 -0.4493
34798SOL    HW116373   9.058  13.308  12.660  1.5996 -0.1650 -1.8608
34798SOL    HW216374   8.996  13.186  12.724  1.2702  0.8418 -0.1837
34799SOL     OW16375   9.021  10.038   2.759  0.0983 -0.6102 -0.1800
34799SOL    HW116376   8.965  10.054   2.683  0.0199  1.8634  0.3269
34799SOL    HW216377   9.108  10.065   2.731 -0.5628  4.6933  1.6707
34800SOL     OW16378   9.437  13.288  13.474 -0.2220  0.6394 -0.1136
34800SOL    HW116379   9.521  13.251  13.501  0.1977  0.8228 -1.1032
34800SOL    HW216380   9.379  13.213  13.468  0.2652  0.3029 -0.8083
34801SOL     OW16381   4.865   2.923  10.586 -0.0670  0.0150  0.0180
34801SOL    HW116382   4.813   2.913  10.666  0.4386  1.7386  0.6239
34801SOL    HW216383   4.801   2.922  10.516 -0.6229 -0.6386  0.5256
34802SOL     OW16384   5.615  13.858   9.628 -0.3337  0.6770  0.0176
34802SOL    HW116385   5.598  13.862   9.533 -1.0567  4.2835  0.1693
34802SOL    HW216386   5.707  13.831   9.634 -0.2113  0.5438 -1.6928
34803SOL     OW16387   6.962   7.880   5.011  0.3353 -0.6013 -0.6715
34803SOL    HW116388   6.898   7.811   4.993  0.1498 -0.5699 -0.1663
34803SOL    HW216389   6.917   7.961   4.988 -0.5732 -0.4049  1.5399
34804SOL     OW16390   5.524   3.214   5.490 -0.1018 -0.1589 -0.5313
34804SOL    HW116391   5.485   3.263   5.563 -1.3663 -0.7966 -0.7537
34804SOL    HW216392   5.580   3.278   5.446 -0.1466  0.5262  0.3678
34805SOL     OW16393  13.205   7.110   3.414 -0.4252  0.2967  0.4028
34805SOL    HW116394  13.179   7.143   3.500 -2.6970  0.3735 -0.2541
34805SOL    HW216395  13.274   7.170   3.385  0.1106  0.4889  1.9883
34806SOL     OW16396   7.394   2.732   6.002 -0.1178  0.0213 -0.2194
34806SOL    HW116397   7.419   2.657   5.949  0.7416  1.2551 -1.6225
34806SOL    HW216398   7.345   2.789   5.943 -0.1412  0.8917  0.6081
34807SOL     OW16399   2.114  12.909   3.404  0.3386  0.2032  0.1386
34807SOL    HW116400   2.115  12.999   3.438  2.4378  0.1502  0.3086
34807SOL    HW216401   2.100  12.855   3.482  1.0481  0.2965  0.3392
34808SOL     OW16402  12.108   7.687  13.768 -0.5339  0.4225 -0.5302
34808SOL    HW116403  12.201   7.705  13.778 -0.2965 -0.4189 -1.1340
34808SOL    HW216404  12.065   7.753  13.822  0.3503  1.6395 -1.2742
34809SOL     OW16405   2.240  12.145   1.554  0.1984  0.2981 -0.2360
34809SOL    HW116406   2.203  12.234   1.552 -0.0850  0.1785 -0.3029
34809SOL    HW216407   2.224  12.115   1.644 -1.2966 -0.3520 -0.6826
34810SOL     OW16408   3.846   1.395  10.831 -0.1670  0.0345 -0.4359
34810SOL    HW116409   3.789   1.329  10.871 -1.3779  1.1328 -0.2619
34810SOL    HW216410   3.866   1.455  10.902  2.1259 -0.8788 -0.2399
34811SOL     OW16411  12.174  10.798  11.287 -0.3275  0.1270  0.3578
34811SOL    HW116412  12.206  10.806  11.197 -0.0585 -0.1003  0.4332
34811SOL    HW216413  12.230  10.857  11.338  0.1606 -0.4885  0.5374
34812SOL     OW16414   3.486   7.717   2.151  0.2481 -0.1539  0.2164
34812SOL    HW116415   3.575   7.717   2.186  0.1474 -2.3335  0.6358
34812SOL    HW216416   3.449   7.634   2.181 -1.2326 -0.2446 -1.6803
34813SOL     OW16417   0.287   8.028  11.594 -0.1477 -0.3561 -0.6646
34813SOL    HW116418   0.380   8.012  11.608  0.0458  0.2395 -1.2451
34813SOL    HW216419   0.246   7.941  11.601  0.2109 -0.4200  1.2849
34814SOL     OW16420  13.834   7.970   0.603 -0.1108 -0.0168  0.1504
34814SOL    HW116421  13.860   8.022   0.680  0.7143  0.2423 -0.2939
34814SOL    HW216422  13.884   8.008   0.531 -0.3947 -0.6766 -0.3970
34815SOL     OW16423   7.163   1.546   1.616 -0.2387 -0.3592 -0.1837
34815SOL    HW116424   7.188   1.503   1.535 -0.0404 -3.1702  1.2236
34815SOL    HW216425   7.211   1.499   1.684 -1.8254  0.6092  1.7345
34816SOL     OW16426   3.789  11.571   1.104  0.0622 -0.4666 -0.3764
34816SOL    HW116427   3.799  11.554   1.198  0.5200  0.8416 -0.1642
34816SOL    HW216428   3.745  11.656   1.100 -0.0956 -0.5819 -1.3511
34817SOL     OW16429   7.915   6.550   6.847  0.4567  0.0614 -0.1298
34817SOL    HW116430   7.833   6.597   6.859  1.1126  0.8090  1.8231
34817SOL    HW216431   7.916   6.485   6.918  1.0365 -0.7199 -0.8366
34818SOL     OW16432   4.080   4.717   8.676 -0.2424  0.2045 -0.1408
34818SOL    HW116433   4.113   4.766   8.751 -0.4422 -0.2328  0.2405
34818SOL    HW216434   3.992   4.689   8.702  0.4108 -1.5962  0.2524
34819SOL     OW16435   2.588   9.576   5.449 -0.0776  0.8563  0.2209
34819SOL    HW116436   2.533   9.513   5.403  0.8206  1.1067 -1.2359
34819SOL    HW216437   2.578   9.658   5.400  1.3003  1.0005  0.1293
34820SOL     OW16438  13.818  11.389   7.938 -0.1864 -0.3027  0.3683
34820SOL    HW116439  13.753  11.454   7.911  0.6262  0.1121 -0.6473
34820SOL    HW216440  13.775  11.305   7.924 -0.3642 -0.0459 -0.6963
34821SOL     OW16441   3.581  13.766   4.539  0.4289  0.3153 -0.3843
34821SOL    HW116442   3.487  13.776   4.529  0.4447  1.4406  0.3637
34821SOL    HW216443   3.618  13.837   4.487  0.9474 -1.0343 -1.9350
34822SOL     OW16444   7.156  10.336   2.352 -0.3602  0.6498 -0.4368
34822SOL    HW116445   7.162  10.254   2.304 -0.7619  0.8245 -0.7966
34822SOL    HW216446   7.199  10.400   2.295  0.3916  0.5953  0.0670
34823SOL     OW16447   9.568   2.930  10.146  0.3552  0.7710  0.1234
34823SOL    HW116448   9.493   2.955  10.201 -0.7979 -0.5078 -0.7966
34823SOL    HW216449   9.538   2.948  10.057 -0.7463 -3.9135 -0.6937
34824SOL     OW16450   1.655   6.463   7.510 -0.1395 -0.0587  0.2727
34824SOL    HW116451   1.620   6.465   7.421  1.6633  0.6676 -0.4671
34824SOL    HW216452   1.590   6.510   7.563 -1.1841 -0.4167 -0.6597
34825SOL     OW16453   9.320  10.694   3.619  0.4489 -0.0555 -0.1660
34825SOL    HW116454   9.365  10.620   3.660 -0.2427 -0.7064 -0.5367
34825SOL    HW216455   9.323  10.764   3.684  1.0118 -0.4503  0.2415
34826SOL     OW16456   5.459   4.004   7.480 -0.2422  0.4367 -0.3027
34826SOL    HW116457   5.478   4.080   7.535 -0.9039  0.1694  0.3032
34826SOL    HW216458   5.449   3.931   7.542 -1.3324  0.1978 -0.7342
34827SOL     OW16459   3.742  13.400  13.418  0.0422 -0.1845 -0.1576
34827SOL    HW116460   3.825  13.407  13.370 -0.0766 -1.9194 -0.6817
34827SOL    HW216461   3.766  13.364  13.503 -0.0319  0.6790  0.2451
34828SOL     OW16462   0.394   2.048  10.461 -0.0981 -0.0624 -0.4925
34828SOL    HW116463   0.445   2.073  10.384 -0.4238 -0.1095 -0.7238
34828SOL    HW216464   0.311   2.015  10.426 -0.0860 -0.4750 -0.1419
34829SOL     OW16465   0.171   0.357   7.781 -0.5120 -0.3107  0.3710
34829SOL    HW116466   0.087   0.341   7.737  0.2438 -0.3228 -1.1353
34829SOL    HW216467   0.195   0.446   7.756 -0.0087 -0.3572  0.6792
34830SOL     OW16468  13.497   7.014  11.530  0.2222 -0.1731  0.0735
34830SOL    HW116469  13.505   7.104  11.561 -0.6210 -0.0687  0.0037
34830SOL    HW216470  13.579   6.973  11.557  0.6161  0.6096  0.1085
34831SOL     OW16471  13.603   8.046  11.655  0.0953  0.3696  0.0097
34831SOL    HW116472  13.645   7.974  11.609 -1.1156 -0.5795  0.3266
34831SOL    HW216473  13.513   8.045  11.623 -0.6270  0.0738  1.8919
34832SOL     OW16474  14.018   0.492   4.932 -0.2925 -0.3799  0.6950
34832SOL    HW116475  14.028   0.471   5.025 -0.8389 -0.5064  0.7270
34832SOL    HW216476  13.959   0.425   4.899 -1.2290  0.4944  0.5632
34833SOL     OW16477   3.522  13.625   9.736  0.1082 -0.1025  0.1088
34833SOL    HW116478   3.605  13.579   9.726 -1.4116 -2.8544 -0.9326
34833SOL    HW216479   3.480  13.583   9.811 -0.6618  0.7312  0.1658
34834SOL     OW16480  12.290   6.906  13.620  0.3953 -0.6877 -0.0876
34834SOL    HW116481  12.308   6.976  13.683  0.6883  0.1270 -1.0412
34834SOL    HW216482  12.364   6.846  13.629  0.3926 -0.6212  0.3984
34835SOL     OW16483  10.134   5.429   4.982  0.2065  0.0137 -0.2956
34835SOL    HW116484  10.197   5.358   4.966 -0.6499 -0.6399 -0.8712
34835SOL    HW216485  10.070   5.420   4.911  0.4367  1.7843 -0.7862
34836SOL     OW16486   4.595   1.357   3.608  0.6704 -0.1525  0.1971
34836SOL    HW116487   4.546   1.329   3.531  0.3964  0.3284  0.1915
34836SOL    HW216488   4.573   1.450   3.618 -1.1497 -0.7328  2.2393
34837SOL     OW16489   3.870  10.136  11.867  0.1953 -0.0366 -0.3708
34837SOL    HW116490   3.890  10.088  11.948  1.3445  0.7517 -0.1647
34837SOL    HW216491   3.823  10.214  11.896 -0.7006 -0.4671 -0.6135
34838SOL     OW16492   5.963  13.100   6.085 -0.0050 -0.1673  0.4597
34838SOL    HW116493   6.038  13.159   6.092 -0.7004  0.8193 -0.0719
34838SOL    HW216494   5.887  13.158   6.080 -0.6956 -1.0931 -0.3427
34839SOL     OW16495   5.074   1.269   9.869  0.4131  0.5671  0.0769
34839SOL    HW116496   5.138   1.284   9.938 -0.7786  0.6953  1.2076
34839SOL    HW216497   5.079   1.175   9.852  0.0278  0.3517  1.0771
34840SOL     OW16498   1.699   9.607  13.667 -0.1540  0.2421 -0.2515
34840SOL    HW116499   1.608   9.604  13.638 -0.0540  0.5275 -0.5904
34840SOL    HW216500   1.697   9.661  13.746  0.1332  2.7135 -1.8236
34841SOL     OW16501  11.210   0.936   7.786 -1.0079  0.3415 -0.6299
34841SOL    HW116502  11.268   0.984   7.726 -1.4572 -0.5512 -1.8357
34841SOL    HW216503  11.176   1.003   7.845  1.2025  0.9066  0.1196
34842SOL     OW16504   0.965   2.576   4.625 -0.2127  0.0212  0.3672
34842SOL    HW116505   1.015   2.507   4.581 -2.2989 -1.8728  0.7917
34842SOL    HW216506   0.978   2.559   4.718  0.1150  0.8829  0.4816
34843SOL     OW16507   5.912   4.529   5.770 -0.2979 -0.1680 -0.5179
34843SOL    HW116508   5.877   4.522   5.858  1.6937  0.7393  0.3926
34843SOL    HW216509   6.002   4.497   5.777 -0.3055 -0.7158 -2.3698
34844SOL     OW16510  12.892   4.493   0.337  0.1401 -0.7196  0.3150
34844SOL    HW116511  12.962   4.457   0.392  0.1081 -0.4843  0.5099
34844SOL    HW216512  12.828   4.422   0.332  0.7629 -1.2434 -0.5461
34845SOL     OW16513   7.311   1.460   8.569 -0.2025  0.5053  0.4010
34845SOL    HW116514   7.354   1.376   8.586 -1.7893 -0.4578 -0.0576
34845SOL    HW216515   7.339   1.517   8.641 -0.0445 -0.8151  1.4274
34846SOL     OW16516   8.118   7.420   1.023  0.4233  0.0889 -0.1372
34846SOL    HW116517   8.032   7.404   1.060  0.7155 -1.3144  0.0063
34846SOL    HW216518   8.177   7.422   1.099  0.3592  2.6409 -0.0732
34847SOL     OW16519   9.246   3.254  12.560  0.8113  0.0440  0.3838
34847SOL    HW116520   9.308   3.299  12.617 -0.1143  0.8913  0.7512
34847SOL    HW216521   9.166   3.248  12.612  0.2036  0.1003 -0.5217
34848SOL     OW16522   0.057  10.976  12.534  0.3619 -0.2532 -0.6681
34848SOL    HW116523   0.107  10.897  12.553 -0.6512 -0.6991  0.2826
34848SOL    HW216524  -0.034  10.952  12.552  0.0260  1.0993 -0.4205
34849SOL     OW16525   1.781   9.389  10.044 -0.4074 -0.0699 -0.1349
34849SOL    HW116526   1.698   9.421  10.009 -0.4819 -0.9118 -0.7761
34849SOL    HW216527   1.765   9.379  10.138 -0.9501  0.0444 -0.2108
34850SOL     OW16528  12.577  12.558   0.027  0.2284 -0.3142 -0.3025
34850SOL    HW116529  12.632  12.636   0.040 -1.3842  1.4392 -3.0778
34850SOL    HW216530  12.505  12.569   0.088  0.4433 -0.0999 -0.0836
34851SOL     OW16531   1.682   6.036   4.242 -0.7670  0.0609 -0.2596
34851SOL    HW116532   1.631   6.115   4.227 -1.6544 -0.3383  0.5574
34851SOL    HW216533   1.723   6.017   4.158  0.5943  2.1558 -0.1678
34852SOL     OW16534  10.424   7.931   8.622  0.5282  0.0271 -0.3384
34852SOL    HW116535  10.394   7.862   8.681 -0.9467 -0.0114 -1.1140
34852SOL    HW216536  10.344   7.969   8.586  1.3547  1.2615 -0.9476
34853SOL     OW16537  10.829   3.246  12.574 -0.1531  0.1258 -0.5057
34853SOL    HW116538  10.824   3.218  12.483  0.1145 -2.2626  0.1644
34853SOL    HW216539  10.739   3.242  12.606 -0.2528  0.9994 -0.6465
34854SOL     OW16540  11.342   2.206   1.800  0.0639 -0.5641 -0.0290
34854SOL    HW116541  11.398   2.147   1.851  1.1907  1.3388  1.0216
34854SOL    HW216542  11.402   2.250   1.740 -0.6018  0.2395 -0.1162
34855SOL     OW16543   3.098   5.536  12.676  0.0050 -0.1636 -0.0408
34855SOL    HW116544   3.180   5.516  12.722 -1.2337 -0.6553  2.0851
34855SOL    HW216545   3.081   5.628  12.697  0.1086  0.0002 -0.6608
34856SOL     OW16546   9.368   5.147   1.375  0.1007 -0.0495  0.4281
34856SOL    HW116547   9.366   5.097   1.293 -0.3078  0.3264  0.2081
34856SOL    HW216548   9.361   5.239   1.348 -0.3974  0.0589  0.9045
34857SOL     OW16549   6.105  13.845  11.773 -0.3342 -0.0943 -0.1667
34857SOL    HW116550   6.094  13.781  11.843 -0.4459 -1.1481 -1.1134
34857SOL    HW216551   6.192  13.881  11.787 -0.3702 -0.2591  0.5328
34858SOL     OW16552   7.856   8.192   1.657  0.1945 -0.3320 -0.4737
34858SOL    HW116553   7.940   8.208   1.699 -0.0760  0.6890 -0.2936
34858SOL    HW216554   7.876   8.190   1.563  0.2287  1.3412 -0.5269
34859SOL     OW16555   1.998   2.804   6.419 -0.3984 -0.5858 -0.2018
34859SOL    HW116556   1.909   2.821   6.388 -0.2448 -0.7986 -0.7799
34859SOL    HW216557   2.022   2.883   6.468 -0.2936  0.1988 -1.4706
34860SOL     OW16558  10.504   7.943   0.679 -0.3400  0.0768 -0.7227
34860SOL    HW116559  10.584   7.936   0.626  0.1130  0.2070 -0.0627
34860SOL    HW216560  10.510   8.030   0.719 -1.4845  0.6524 -1.7318
34861SOL     OW16561  10.775   3.760   3.188  0.4093 -0.0387 -0.3031
34861SOL    HW116562  10.865   3.777   3.159  0.9992 -1.6711  0.4337
34861SOL    HW216563  10.785   3.715   3.272 -1.0806 -0.6685 -0.4317
34862SOL     OW16564  13.096   0.644   6.036  0.3201 -0.2236 -0.4365
34862SOL    HW116565  13.086   0.551   6.015  0.3772 -0.6678  1.3018
34862SOL    HW216566  13.184   0.650   6.073 -0.7277 -0.1162  2.2683
34863SOL     OW16567  11.745   0.753  11.929 -0.0313 -0.5863  0.2051
34863SOL    HW116568  11.669   0.723  11.978  0.4412 -0.5517  0.9655
34863SOL    HW216569  11.819   0.738  11.987  0.2965  1.4986  0.4002
34864SOL     OW16570  11.304  10.711   9.766  0.2165 -0.3432 -0.0863
34864SOL    HW116571  11.243  10.782   9.748  1.8261  1.6709  1.7927
34864SOL    HW216572  11.377  10.725   9.706  0.2949 -0.7427 -0.0883
34865SOL     OW16573   5.056   9.056  11.553 -0.4885  0.5143 -0.6420
34865SOL    HW116574   4.991   9.050  11.623 -0.3883  1.1002 -0.4918
34865SOL    HW216575   5.140   9.062  11.599 -0.2243 -1.1395 -0.8407
34866SOL     OW16576   4.156   6.805   2.995 -0.7496  0.6451 -0.7008
34866SOL    HW116577   4.131   6.719   3.028  0.1166  0.6461 -0.0167
34866SOL    HW216578   4.073   6.850   2.982 -1.1655  0.1734  0.2268
34867SOL     OW16579   7.403  13.988  13.272 -0.0894 -0.0588 -0.4903
34867SOL    HW116580   7.319  13.964  13.231 -0.5671  0.8648 -0.0894
34867SOL    HW216581   7.408  13.932  13.350 -1.0109  0.8494  0.2392
34868SOL     OW16582   7.695  12.623  11.852  0.5281  0.9936  0.1527
34868SOL    HW116583   7.750  12.683  11.903  0.1553  0.0760  1.6972
34868SOL    HW216584   7.708  12.538  11.892  2.7978 -0.5599 -3.3784
34869SOL     OW16585  10.536   2.078   3.540  0.1595  0.2292  0.2949
34869SOL    HW116586  10.617   2.110   3.502  1.1885 -0.2159  1.9968
34869SOL    HW216587  10.557   2.062   3.632 -1.9425  0.3970  0.8651
34870SOL     OW16588  10.587   5.987   8.343 -0.0054  0.7794 -0.6650
34870SOL    HW116589  10.591   6.083   8.341  1.7271  0.7336 -1.5814
34870SOL    HW216590  10.548   5.963   8.259  0.1488  0.6714 -0.7061
34871SOL     OW16591   1.070   2.669  11.193 -0.2082 -0.4855 -0.4418
34871SOL    HW116592   1.127   2.722  11.248  0.0223 -0.3007 -0.8580
34871SOL    HW216593   0.990   2.720  11.185  0.3910  0.2877 -1.6949
34872SOL     OW16594  13.779  11.658   5.467 -0.1499 -0.7099 -0.2109
34872SOL    HW116595  13.817  11.604   5.536 -1.7832 -0.9794  0.5166
34872SOL    HW216596  13.687  11.667   5.491 -0.2334  1.2738 -1.0426
34873SOL     OW16597  12.791  13.306  11.246 -0.2220 -0.3990  0.4464
34873SOL    HW116598  12.868  13.335  11.196 -0.0368  0.7011  1.3064
34873SOL    HW216599  12.796  13.211  11.244  0.0231 -0.3868 -1.2231
34874SOL     OW16600  13.391  12.816   0.997 -0.2651  0.0591 -0.2239
34874SOL    HW116601  13.356  12.840   0.911  0.1138  1.0636 -0.1114
34874SOL    HW216602  13.483  12.843   0.994 -0.4998  1.0506  0.8430
34875SOL     OW16603   2.833   1.951   7.254 -0.0110 -0.0959  0.0420
34875SOL    HW116604   2.906   1.946   7.315  0.4806 -2.5368 -0.6495
34875SOL    HW216605   2.869   1.995   7.177  0.6375 -0.9478 -0.1514
34876SOL     OW16606   6.025  13.052   4.255  0.0136 -0.2942 -0.2567
34876SOL    HW116607   6.037  13.138   4.295 -0.7772 -0.4254  0.2894
34876SOL    HW216608   5.950  13.062   4.196 -0.4249 -0.7388  0.2158
34877SOL     OW16609   5.730   5.669   7.978 -0.3185 -0.4294 -0.0369
34877SOL    HW116610   5.725   5.750   8.028  0.6783 -0.9899  1.0293
34877SOL    HW216611   5.792   5.688   7.908  0.5562 -0.4765  0.6923
34878SOL     OW16612   7.885   7.677   0.159  0.0593  0.0113 -0.0275
34878SOL    HW116613   7.931   7.724   0.089 -2.5066  1.1854 -1.0446
34878SOL    HW216614   7.814   7.631   0.115  1.2505 -3.3272  1.2308
34879SOL     OW16615   6.064  12.773   8.797 -0.2325 -0.3107 -0.2613
34879SOL    HW116616   5.982  12.780   8.748 -0.7100  2.3413  0.7136
34879SOL    HW216617   6.036  12.771   8.889  0.7383 -1.8356  0.0221
34880SOL     OW16618   1.811   7.979   7.965  0.7406 -0.5569  0.3371
34880SOL    HW116619   1.739   7.917   7.966  0.0262  0.2620  0.7827
34880SOL    HW216620   1.803   8.023   7.880  0.4645 -0.1815  0.5561
34881SOL     OW16621   8.953   7.351  12.700 -0.1109 -0.2435 -0.0775
34881SOL    HW116622   8.906   7.389  12.775 -0.0404  1.6666 -0.9242
34881SOL    HW216623   8.994   7.272  12.735 -0.4643  0.3281  1.7793
34882SOL     OW16624   3.016   3.646  10.189  0.4089  0.2318  0.4428
34882SOL    HW116625   3.053   3.635  10.101  1.3138 -0.6010  0.9040
34882SOL    HW216626   3.084   3.613  10.248 -0.2999  0.5080  1.4404
34883SOL     OW16627   7.161   8.672   3.029  0.1284 -0.3599  0.1005
34883SOL    HW116628   7.082   8.622   3.009  0.2560 -0.1601 -1.0012
34883SOL    HW216629   7.169   8.734   2.956  1.7136 -0.8960 -0.2246
34884SOL     OW16630  12.173   0.554   0.008 -0.0334 -0.5962  0.2208
34884SOL    HW116631  12.192   0.636   0.054  0.2093 -0.0295 -0.8460
34884SOL    HW216632  12.255   0.505   0.011  0.0670 -0.4329  0.1288
34885SOL     OW16633  13.537  11.717   7.719  0.3981  0.2353  0.1337
34885SOL    HW116634  13.478  11.646   7.746  1.3828 -1.2397 -1.3980
34885SOL    HW216635  13.613  11.707   7.777  0.0151  0.8743  0.7660
34886SOL     OW16636  13.571   4.167   9.369  0.0860 -0.0756 -0.3854
34886SOL    HW116637  13.486   4.159   9.326 -0.9226  0.6795  1.3532
34886SOL    HW216638  13.608   4.248   9.335 -0.8959  0.7496  0.4741
34887SOL     OW16639   0.514   2.659  10.712  0.5431 -0.0836  0.1806
34887SOL    HW116640   0.494   2.628  10.623  0.1327  0.0929  0.2054
34887SOL    HW216641   0.541   2.750  10.699 -2.2895  0.8969  0.4743
34888SOL     OW16642  12.229   2.348   3.151 -0.1011  0.2991 -0.5239
34888SOL    HW116643  12.279   2.293   3.211  1.3627 -0.3826 -2.2529
34888SOL    HW216644  12.154   2.294   3.126  0.6639 -0.4565 -1.2523
34889SOL     OW16645   4.933   3.457   7.349 -0.6837  0.3613  0.2053
34889SOL    HW116646   4.847   3.483   7.384 -0.5299  0.8289  0.2426
34889SOL    HW216647   4.981   3.539   7.341  0.0268  0.0234  0.8791
34890SOL     OW16648  11.298   7.304   0.308  0.4976  0.2567 -0.0368
34890SOL    HW116649  11.284   7.213   0.333  1.1453 -0.0764 -0.8690
34890SOL    HW216650  11.213   7.334   0.275  0.2533  0.0013  0.3489
34891SOL     OW16651   6.361  13.299   6.005 -0.1683 -0.1463 -0.3595
34891SOL    HW116652   6.384  13.209   5.981 -0.8538 -0.8555  1.4547
34891SOL    HW216653   6.284  13.289   6.061  0.1635  1.5244  0.4413
34892SOL     OW16654  11.008  13.658   0.168  0.1063  0.3478  0.1533
34892SOL    HW116655  11.063  13.595   0.215 -1.0239 -0.4179  0.4943
34892SOL    HW216656  11.014  13.739   0.219  0.0316 -0.0601  0.8148
34893SOL     OW16657   0.030  13.273   2.377  0.5470  0.4210  0.2572
34893SOL    HW116658   0.083  13.210   2.425  0.6478 -0.7569 -1.2985
34893SOL    HW216659  -0.048  13.285   2.431  0.1449 -1.7064  0.2262
34894SOL     OW16660  12.331   8.108   9.668  0.5888  0.0494 -0.2162
34894SOL    HW116661  12.316   8.118   9.762  0.6814 -0.8436 -0.0935
34894SOL    HW216662  12.426   8.107   9.659  0.5904  1.0728 -0.4428
34895SOL     OW16663   7.863   1.012   1.911 -0.6610  0.3755 -0.0660
34895SOL    HW116664   7.896   1.068   1.841  0.6579 -0.9081 -0.5326
34895SOL    HW216665   7.783   1.055   1.940 -1.6906  0.5796 -2.8568
34896SOL     OW16666   5.574   3.384   8.570  0.2365 -0.6292  1.0618
34896SOL    HW116667   5.551   3.416   8.657 -0.9946 -0.8806  0.8402
34896SOL    HW216668   5.647   3.323   8.586  0.6989  0.0915  1.7863
34897SOL     OW16669  12.374  11.709   8.132  0.2276 -0.6800  0.2093
34897SOL    HW116670  12.422  11.637   8.091  1.3331 -0.4620  1.0447
34897SOL    HW216671  12.363  11.774   8.062  1.3205 -0.6731  0.0249
34898SOL     OW16672  11.327  12.465   0.443 -0.5944  0.4424  0.0275
34898SOL    HW116673  11.248  12.496   0.399 -1.2060 -0.2632  0.6154
34898SOL    HW216674  11.398  12.493   0.385 -1.3134  0.4181 -0.9018
34899SOL     OW16675   8.360  12.472   3.146  0.5254  0.4673 -0.2687
34899SOL    HW116676   8.399  12.558   3.161  2.7545 -0.5617  0.2294
34899SOL    HW216677   8.384  12.421   3.224 -1.3700 -0.4339 -0.2204
34900SOL     OW16678   0.635   9.822  11.916  0.0860  0.0252 -0.3134
34900SOL    HW116679   0.693   9.764  11.866 -0.4503  1.0600 -2.2451
34900SOL    HW216680   0.663   9.812  12.007  0.4309 -2.7432 -0.6335
34901SOL     OW16681   0.988   6.761  11.609  0.1928  0.4837 -0.2323
34901SOL    HW116682   1.064   6.741  11.664  0.7056 -1.1240 -1.4626
34901SOL    HW216683   1.018   6.743  11.520 -1.2105  1.2131 -0.8701
34902SOL     OW16684  10.449   4.500  10.451 -0.1422  0.5614 -0.0056
34902SOL    HW116685  10.523   4.511  10.391  1.1922 -1.1249  1.2365
34902SOL    HW216686  10.379   4.464  10.397  1.1060 -1.1502 -0.5370
34903SOL     OW16687   8.065  11.006   4.745  0.0595 -0.1412  0.0676
34903SOL    HW116688   8.055  11.062   4.668 -1.8689 -0.3540  0.1144
34903SOL    HW216689   8.115  10.931   4.713  3.2599  1.7834  0.1538
34904SOL     OW16690  13.174   5.833   3.678 -0.3117  0.4729 -0.3305
34904SOL    HW116691  13.101   5.823   3.618 -0.6209 -0.2600  0.1493
34904SOL    HW216692  13.252   5.817   3.624 -0.5254  0.8854 -0.7628
34905SOL     OW16693  12.782   8.605  12.391 -0.1220  0.0858  0.1936
34905SOL    HW116694  12.847   8.674  12.379 -2.3156  2.1369 -0.8845
34905SOL    HW216695  12.775   8.564  12.304 -0.8629  0.5243  0.0278
34906SOL     OW16696  13.644   6.389   1.591 -0.3683  0.0312 -0.8823
34906SOL    HW116697  13.739   6.385   1.580 -0.4200  0.0063 -1.3433
34906SOL    HW216698  13.620   6.477   1.563 -0.3414  0.4732  0.4076
34907SOL     OW16699   8.093  13.476   0.195 -0.0056  0.2624 -0.2191
34907SOL    HW116700   8.023  13.459   0.257  1.3486 -0.2810  1.2208
34907SOL    HW216701   8.114  13.569   0.206  1.0456 -0.0960  1.0779
34908SOL     OW16702   9.671  13.516   8.258  0.0408  0.6111 -0.2045
34908SOL    HW116703   9.643  13.608   8.248 -0.7233  0.5179  0.8985
34908SOL    HW216704   9.605  13.478   8.315  1.4916 -0.1010  1.0380
34909SOL     OW16705   5.516   8.157   6.617  0.1099  0.0206  0.1530
34909SOL    HW116706   5.596   8.189   6.575  1.0113 -0.5834  1.3339
34909SOL    HW216707   5.526   8.183   6.709 -0.1886 -1.6098  0.6846
34910SOL     OW16708   4.356   0.291   1.869  0.1014  0.0438 -0.6296
34910SOL    HW116709   4.347   0.354   1.941  0.6422 -0.2242 -0.3162
34910SOL    HW216710   4.440   0.248   1.885  0.1332 -0.1678 -1.3101
34911SOL     OW16711   6.268   6.072   8.015 -0.3165  0.2408 -0.1348
34911SOL    HW116712   6.271   5.988   8.060  1.2693  0.1150 -0.4324
34911SOL    HW216713   6.282   6.137   8.083  0.1704  0.1618 -0.1587
34912SOL     OW16714   6.738   1.337  13.433  0.3106  0.0989  0.0561
34912SOL    HW116715   6.785   1.305  13.356 -0.6814 -1.3273  0.0013
34912SOL    HW216716   6.805   1.346  13.500  0.6978 -1.9208 -0.0078
34913SOL     OW16717   5.781   4.892   9.713 -0.0242  0.2773 -0.4581
34913SOL    HW116718   5.703   4.836   9.705  0.4544 -0.5535  0.5415
34913SOL    HW216719   5.829   4.856   9.787 -0.9243  3.5355  1.9277
34914SOL     OW16720   3.262  12.059   4.832  0.5552 -0.0605 -0.4080
34914SOL    HW116721   3.188  12.047   4.773  0.6874  0.6844 -0.7454
34914SOL    HW216722   3.323  12.113   4.782  0.1789  1.5577  0.8064
34915SOL     OW16723  11.368   7.861   8.448  0.2359 -0.3796 -0.3441
34915SOL    HW116724  11.446   7.911   8.426 -0.0091 -0.4684 -1.4491
34915SOL    HW216725  11.349   7.884   8.539  1.3127 -0.0555 -0.1935
34916SOL     OW16726  12.481  12.819   8.215  0.0869  0.7612  0.0884
34916SOL    HW116727  12.524  12.742   8.179  1.4487  1.1190  0.8540
34916SOL    HW216728  12.403  12.831   8.161  0.6422 -0.2690 -0.9856
34917SOL     OW16729   6.379  11.041   1.071 -0.1895 -0.1311 -0.1826
34917SOL    HW116730   6.426  10.979   1.127 -0.1209 -0.0515 -0.1519
34917SOL    HW216731   6.424  11.036   0.986  0.1640  0.2809 -0.0236
34918SOL     OW16732  11.653   8.957   4.854  0.0405  0.3985 -0.5257
34918SOL    HW116733  11.647   8.866   4.884  0.6365  0.2878 -0.7359
34918SOL    HW216734  11.596   8.961   4.778  0.6143 -0.0051 -0.9898
34919SOL     OW16735   9.725   6.505   9.538  0.6856  0.2817  0.1381
34919SOL    HW116736   9.702   6.598   9.534  0.8959  0.2943 -1.4805
34919SOL    HW216737   9.820   6.503   9.525  1.1526 -0.0184  2.9631
34920SOL     OW16738   4.057   8.641   5.445  0.3181  0.4879 -0.0337
34920SOL    HW116739   4.049   8.555   5.402  3.0152 -0.1887  0.6660
34920SOL    HW216740   4.007   8.700   5.389 -3.6065 -1.8154  0.6244
34921SOL     OW16741   4.923  13.010   6.433 -0.0871 -0.1062  0.0138
34921SOL    HW116742   4.870  12.967   6.366 -0.7773 -1.2570  1.2584
34921SOL    HW216743   4.986  12.943   6.461  1.0468  0.7671 -0.3662
34922SOL     OW16744  10.961   3.237   8.350 -0.0822  0.1577  0.2574
34922SOL    HW116745  11.005   3.308   8.301 -0.4291 -1.0165 -1.8949
34922SOL    HW216746  10.987   3.157   8.303 -3.5045 -0.7127 -0.4064
34923SOL     OW16747   9.231   6.223   9.716 -0.0134 -0.3109  0.0115
34923SOL    HW116748   9.192   6.293   9.663 -1.4547 -0.2212  1.1444
34923SOL    HW216749   9.280   6.170   9.652  2.0356  2.2664 -0.7314
34924SOL     OW16750   2.072   6.326   8.189  0.0790 -0.3259 -0.9529
34924SOL    HW116751   2.131   6.270   8.139 -1.5170 -1.4577 -1.6391
34924SOL    HW216752   2.066   6.407   8.138  1.0838 -0.1603 -0.8234
34925SOL     OW16753   4.379   6.281   9.676  0.2201  0.0004 -0.5202
34925SOL    HW116754   4.374   6.264   9.770  0.1950 -1.4607 -0.7749
34925SOL    HW216755   4.392   6.376   9.670  0.2269  0.1127  0.9497
34926SOL     OW16756  13.124   5.694   5.741 -0.1742  0.4503 -0.4095
34926SOL    HW116757  13.102   5.606   5.774  0.1715  0.0468 -1.2386
34926SOL    HW216758  13.204   5.682   5.691 -1.0441  0.9103 -1.9873
34927SOL     OW16759  11.290   8.405   9.792 -0.5384 -0.2742  0.3616
34927SOL    HW116760  11.356   8.352   9.746 -0.4195  0.9979 -1.0159
34927SOL    HW216761  11.215   8.346   9.802  0.6457 -1.6251  1.6173
34928SOL     OW16762   0.369   7.195   6.472 -0.7802 -0.2649  0.2704
34928SOL    HW116763   0.363   7.101   6.488 -2.4071 -0.1749  0.3993
34928SOL    HW216764   0.393   7.202   6.380 -0.3177 -0.8036  0.3431
34929SOL     OW16765  10.937  10.246  13.819 -0.1631  0.2856 -0.1564
34929SOL    HW116766  11.024  10.244  13.780 -0.0807 -1.0230  0.0518
34929SOL    HW216767  10.951  10.270  13.910 -0.2756  2.4805 -0.6565
34930SOL     OW16768   6.325  11.797   8.253  0.5247  0.3051 -0.0517
34930SOL    HW116769   6.378  11.769   8.178 -0.7222  0.3956 -1.0033
34930SOL    HW216770   6.257  11.852   8.215  0.8897  1.8269  1.3819
34931SOL     OW16771  13.981   2.151   8.520 -0.0668  0.3835  0.3734
34931SOL    HW116772  13.905   2.112   8.563 -0.6780  0.7895 -0.3248
34931SOL    HW216773  14.045   2.080   8.513  0.2421  0.4023  2.3607
34932SOL     OW16774  10.570   2.574   2.016  0.2091 -0.0748 -0.8457
34932SOL    HW116775  10.542   2.651   1.967 -2.1272  0.4213  1.0877
34932SOL    HW216776  10.559   2.598   2.108 -1.8909 -3.0743 -0.1558
34933SOL     OW16777   8.025   1.725   4.925  0.6568  0.6549 -0.9169
34933SOL    HW116778   7.932   1.707   4.908  0.4107  0.7319  0.2869
34933SOL    HW216779   8.025   1.779   5.004  1.7557  0.2470 -0.6196
34934SOL     OW16780  14.025   0.866   0.449 -0.8892 -0.5490  0.4104
34934SOL    HW116781  14.002   0.922   0.523 -1.7013 -0.5102  0.1348
34934SOL    HW216782  14.100   0.815   0.481  1.0255  1.8791  0.0772
34935SOL     OW16783   6.357   4.727   3.556 -0.4306  0.0106 -0.0960
34935SOL    HW116784   6.440   4.692   3.523  0.5302  0.7230  1.4677
34935SOL    HW216785   6.375   4.819   3.576 -0.8781 -0.3623  2.4183
34936SOL     OW16786  13.193   3.560  12.777 -0.2020  0.1090  0.1000
34936SOL    HW116787  13.105   3.524  12.763 -1.0041  1.9666  0.0733
34936SOL    HW216788  13.244   3.486  12.810 -0.9632 -1.8084 -2.6605
34937SOL     OW16789   2.740   4.440   7.626  0.0119 -0.1782  0.3338
34937SOL    HW116790   2.727   4.525   7.668 -1.2501 -0.0235 -0.3320
34937SOL    HW216791   2.727   4.457   7.533 -2.5206 -1.4564  0.3573
34938SOL     OW16792   0.763  13.954   5.138  0.1526 -0.3126 -0.6692
34938SOL    HW116793   0.747  13.919   5.051  0.6708  1.6137 -1.6091
34938SOL    HW216794   0.858  13.952   5.148  0.1267 -0.0793 -0.3536
34939SOL     OW16795  13.642   5.863   0.374 -0.2002  0.0706 -0.1931
34939SOL    HW116796  13.717   5.922   0.367 -1.0670  1.0805 -1.2895
34939SOL    HW216797  13.634   5.825   0.287 -0.7683 -0.2800  0.0114
34940SOL     OW16798  13.572   8.901  10.475  0.6510  0.1473 -0.9347
34940SOL    HW116799  13.666   8.905  10.458  0.7599  1.6588 -0.1557
34940SOL    HW216800  13.561   8.946  10.559 -0.7118 -0.4481 -0.7726
34941SOL     OW16801  10.225  12.396  13.315 -0.3815 -0.6300  0.0201
34941SOL    HW116802  10.201  12.451  13.390 -0.9163  0.5376 -0.9598
34941SOL    HW216803  10.259  12.458  13.251 -1.0648 -1.4335 -1.1599
34942SOL     OW16804  10.518   4.476   5.622 -0.2684  0.3787  0.0807
34942SOL    HW116805  10.590   4.527   5.658  0.4722 -0.4472 -0.2082
34942SOL    HW216806  10.444   4.537   5.622  0.1343  0.9102  1.4016
34943SOL     OW16807  11.588   7.530  13.764 -0.2125 -0.9662  0.2308
34943SOL    HW116808  11.605   7.472  13.691 -0.1748 -3.1640  1.8822
34943SOL    HW216809  11.674   7.559  13.793 -0.2732  0.9359 -1.2785
34944SOL     OW16810   7.631   5.271   7.300  0.2322 -0.3479 -0.3401
34944SOL    HW116811   7.581   5.215   7.240 -0.4383 -0.0548 -0.0709
34944SOL    HW216812   7.719   5.233   7.301  0.3545 -0.1479 -1.7762
34945SOL     OW16813   6.549  12.919  11.875  0.3606 -0.0089  0.0852
34945SOL    HW116814   6.461  12.881  11.879  0.7515 -0.9841 -0.2825
34945SOL    HW216815   6.591  12.874  11.801  1.8060 -0.9577  1.4261
34946SOL     OW16816   9.041   6.010   9.300  0.1403 -0.1205 -0.7791
34946SOL    HW116817   8.989   5.937   9.335  0.4788  0.2555  0.5788
34946SOL    HW216818   9.054   5.988   9.208 -1.7016 -0.6284 -0.9497
34947SOL     OW16819   9.846   4.777  13.661  0.5461 -0.3218  0.0315
34947SOL    HW116820   9.926   4.796  13.612  0.5310  1.3960  0.6113
34947SOL    HW216821   9.789   4.732  13.599  1.6392 -0.8391 -0.6266
34948SOL     OW16822   3.587  10.818   9.437  0.2544 -0.0265 -0.2740
34948SOL    HW116823   3.570  10.842   9.346 -0.3493  1.3673  0.1717
34948SOL    HW216824   3.550  10.890   9.488  0.2759 -0.9451  1.0985
34949SOL     OW16825   7.943  11.530   1.839  0.6382 -0.1752  0.2494
34949SOL    HW116826   8.034  11.502   1.845  1.4372  2.3584  0.9587
34949SOL    HW216827   7.944  11.605   1.780 -0.9079  0.2071  0.6619
34950SOL     OW16828   9.418   7.356   8.556 -0.2278 -0.9244  0.0854
34950SOL    HW116829   9.342   7.340   8.499 -1.5951  0.1113  1.5372
34950SOL    HW216830   9.404   7.298   8.631 -1.3543  1.5283  1.8840
34951SOL     OW16831   9.702   8.079   1.037  0.6451 -0.3558  0.0217
34951SOL    HW116832   9.610   8.101   1.024  1.2081  1.5525 -1.1199
34951SOL    HW216833   9.715   8.087   1.131 -0.0360  0.7883  0.0345
34952SOL     OW16834   5.716   6.494   0.430  0.5429  0.2637 -0.1525
34952SOL    HW116835   5.716   6.553   0.354  1.8432 -1.0429 -1.2214
34952SOL    HW216836   5.671   6.415   0.398 -1.8462  0.8522  1.4823
34953SOL     OW16837   1.091   7.689   4.282  0.1519  0.2185 -0.0649
34953SOL    HW116838   1.005   7.656   4.310  0.0910  0.3050 -0.1497
34953SOL    HW216839   1.109   7.644   4.199 -0.2940  0.9842 -0.5932
34954SOL     OW16840   7.320   7.277   1.418  0.6748  0.0967  0.7600
34954SOL    HW116841   7.393   7.239   1.466  0.7140 -2.4425 -1.1241
34954SOL    HW216842   7.274   7.202   1.380 -0.9759  1.7988 -0.8250
34955SOL     OW16843  12.546   4.191   1.659 -0.5872 -0.1178 -0.0466
34955SOL    HW116844  12.589   4.160   1.739 -0.6930  1.8004  0.7915
34955SOL    HW216845  12.609   4.171   1.589  1.2630  1.6612  1.0166
34956SOL     OW16846   9.398   4.750   6.267 -0.1705 -0.0338 -0.2698
34956SOL    HW116847   9.359   4.764   6.353  1.3648 -0.9291  0.6294
34956SOL    HW216848   9.382   4.831   6.220 -0.6026  0.6782  1.0490
34957SOL     OW16849   3.880  12.918  10.984  0.5961 -1.0448 -0.4999
34957SOL    HW116850   3.859  12.863  11.059 -1.3148  1.9681  1.3870
34957SOL    HW216851   3.799  12.923  10.933  1.1551 -1.0747 -1.4232
34958SOL     OW16852  12.906  11.767   4.743  0.0222 -0.1745  0.4728
34958SOL    HW116853  12.882  11.759   4.835 -0.0170 -1.0634  0.3906
34958SOL    HW216854  12.998  11.740   4.740 -0.0296 -0.3258  0.2230
34959SOL     OW16855  13.745  12.849  14.044  0.3082  0.3556 -0.7461
34959SOL    HW116856  13.808  12.823  14.111  0.5380  0.4164 -0.9396
34959SOL    HW216857  13.757  12.944  14.035 -0.0205  0.4144 -0.5647
34960SOL     OW16858   6.181   0.723   8.856  0.4224  0.3697  0.5353
34960SOL    HW116859   6.224   0.808   8.859 -0.1375  0.7916 -1.6273
34960SOL    HW216860   6.128   0.725   8.776 -0.5274 -1.5820  1.0344
34961SOL     OW16861   6.107   3.589   6.993 -0.0869 -0.2514  0.0275
34961SOL    HW116862   6.060   3.514   6.958  1.3105 -1.1596 -0.0006
34961SOL    HW216863   6.054   3.619   7.066  0.4410 -2.7706  1.5635
34962SOL     OW16864   2.566   0.974  11.702 -0.4312 -0.3378 -0.4997
34962SOL    HW116865   2.558   0.932  11.788 -1.7289 -0.8923 -0.8685
34962SOL    HW216866   2.658   0.963  11.679 -0.6102 -2.7070 -0.4031
34963SOL     OW16867   0.932  12.551   5.218 -0.3874 -0.7451 -0.2965
34963SOL    HW116868   0.857  12.497   5.243 -0.6092 -0.2071  0.1987
34963SOL    HW216869   0.936  12.620   5.283  0.4093 -0.6360 -0.4470
34964SOL     OW16870  13.324   1.511   8.696 -0.3039  0.2238 -0.3641
34964SOL    HW116871  13.369   1.590   8.725 -2.1926  0.8385  1.0455
34964SOL    HW216872  13.231   1.533   8.700 -0.8116 -1.4722 -1.7706
34965SOL     OW16873   9.858   3.752   0.879 -0.0998  0.0137  0.8463
34965SOL    HW116874   9.870   3.669   0.925 -3.2247 -1.0832 -0.0057
34965SOL    HW216875   9.821   3.811   0.944  0.1280  0.0498  0.9426
34966SOL     OW16876   2.621   4.549   3.236 -0.6234  0.2711  0.2520
34966SOL    HW116877   2.700   4.571   3.285 -1.2725  1.1261  0.9492
34966SOL    HW216878   2.641   4.573   3.146 -0.3429  1.2021  0.5516
34967SOL     OW16879   7.274   3.312  11.351 -0.1675  0.1359 -0.1420
34967SOL    HW116880   7.263   3.402  11.322 -1.9919  0.3609  1.1156
34967SOL    HW216881   7.189   3.287  11.387 -0.0449 -2.4753 -1.4266
34968SOL     OW16882  12.743  11.138   9.287 -0.0299  0.4653 -0.4326
34968SOL    HW116883  12.733  11.163   9.379  0.9298 -1.7410  0.3241
34968SOL    HW216884  12.653  11.133   9.255 -0.4202  0.4892  0.6011
34969SOL     OW16885   7.067  12.329   9.861  0.0718 -0.0829 -0.2998
34969SOL    HW116886   7.088  12.328   9.954  1.1530  0.1568 -0.5374
34969SOL    HW216887   7.067  12.422   9.837  0.6726 -0.1951 -0.7345
34970SOL     OW16888   8.560  12.296   0.515  0.4252 -0.3752  0.4462
34970SOL    HW116889   8.509  12.370   0.483  1.0141 -0.4987 -0.8548
34970SOL    HW216890   8.650  12.330   0.523  0.4499 -0.5928  1.1337
34971SOL     OW16891   2.463   5.753  10.928  0.1629 -0.0109 -0.2675
34971SOL    HW116892   2.526   5.792  10.989  0.9650 -0.9431 -0.4658
34971SOL    HW216893   2.377   5.775  10.964  0.6129 -0.4152  1.1215
34972SOL     OW16894   6.474   0.149  10.834 -0.2833 -0.1734 -0.2640
34972SOL    HW116895   6.396   0.099  10.811  0.6731 -0.7327 -2.5915
34972SOL    HW216896   6.526   0.089  10.888 -0.0745 -0.9723 -1.3240
34973SOL     OW16897  11.943   9.506   6.213  0.2377  0.5960  0.4943
34973SOL    HW116898  12.008   9.503   6.142  0.2582  1.1891  0.4780
34973SOL    HW216899  11.860   9.484   6.171  0.4823 -0.5228  0.5877
34974SOL     OW16900   4.002   6.398   5.646 -0.3280  0.3751 -0.5584
34974SOL    HW116901   3.975   6.332   5.709  2.0299  0.7245  0.9863
34974SOL    HW216902   4.056   6.351   5.583 -0.3721  0.4760 -0.6717
34975SOL     OW16903   0.521   8.815   0.849  0.0900 -0.4206  0.1826
34975SOL    HW116904   0.498   8.779   0.935  0.8188  0.3406  0.7188
34975SOL    HW216905   0.616   8.804   0.843  0.1865  0.4497 -0.0705
34976SOL     OW16906   0.720  11.450   8.787  0.0593  0.0570 -0.3001
34976SOL    HW116907   0.800  11.416   8.747  0.2359  1.3540 -1.1006
34976SOL    HW216908   0.745  11.475   8.876  0.2632 -0.5801 -0.1764
34977SOL     OW16909   3.174   7.363  10.346 -0.0652  0.4372  0.3123
34977SOL    HW116910   3.262   7.327  10.356 -0.6734 -0.9492  0.7962
34977SOL    HW216911   3.189   7.456  10.326  1.4876  0.3627  0.9789
34978SOL     OW16912   2.539   0.674   6.805  0.4917 -0.1620 -0.1721
34978SOL    HW116913   2.475   0.732   6.764  0.0830  0.1287  0.8486
34978SOL    HW216914   2.541   0.596   6.748 -1.2286 -0.4443  0.1065
34979SOL     OW16915  10.888   5.294   3.435  0.0330  0.3551  0.2481
34979SOL    HW116916  10.931   5.221   3.478  0.4486 -0.5422 -1.5974
34979SOL    HW216917  10.797   5.289   3.465  0.1007 -0.8064  0.3089
34980SOL     OW16918   8.236   3.885   9.862 -0.0570 -0.1897  0.3785
34980SOL    HW116919   8.185   3.815   9.903  1.3347 -1.5324 -0.0917
34980SOL    HW216920   8.205   3.886   9.771  0.8169 -1.1183  0.0502
34981SOL     OW16921  12.259  12.078   7.053 -0.1949  0.0580 -0.1210
34981SOL    HW116922  12.199  12.148   7.079  1.6946  2.0934 -0.9804
34981SOL    HW216923  12.293  12.043   7.136  1.0295  2.1941  0.3482
34982SOL     OW16924   4.378   3.191   7.942  0.7871  0.0673  0.1913
34982SOL    HW116925   4.434   3.232   8.007  1.5371 -0.3024 -0.2072
34982SOL    HW216926   4.406   3.228   7.858  0.3174  0.0091 -0.0017
34983SOL     OW16927   2.059   7.087  10.771 -0.4034  0.0441 -0.3364
34983SOL    HW116928   1.974   7.046  10.750 -0.1294  0.3148 -2.1438
34983SOL    HW216929   2.039   7.147  10.842 -1.5771 -0.4741 -0.1937
34984SOL     OW16930   5.141   3.287   8.113 -0.2201 -0.2866 -0.1597
34984SOL    HW116931   5.210   3.279   8.047 -1.1988 -0.6541 -1.1704
34984SOL    HW216932   5.095   3.368   8.089 -0.7055 -0.5306 -0.0617
34985SOL     OW16933  12.395   8.751   0.220 -0.2774 -0.0758 -0.0334
34985SOL    HW116934  12.302   8.761   0.200 -0.6545 -2.3121  0.3146
34985SOL    HW216935  12.438   8.742   0.135 -0.2620  1.5179 -0.2219
34986SOL     OW16936   4.931  10.070   4.943 -0.6303 -0.4118  0.3333
34986SOL    HW116937   4.951   9.998   5.003  0.9360  0.2801  0.6871
34986SOL    HW216938   4.855  10.114   4.982  0.4175  0.0942  1.9016
34987SOL     OW16939  10.920   9.056  10.511 -0.2530 -0.5342 -0.2475
34987SOL    HW116940  10.913   9.105  10.593 -1.5240 -0.4916 -0.3601
34987SOL    HW216941  10.953   8.970  10.537  1.3547  0.1203  0.0306
34988SOL     OW16942   2.154  10.088   0.755  0.2693  0.0884  0.4885
34988SOL    HW116943   2.184  10.178   0.744 -0.1929  0.2399  0.4652
34988SOL    HW216944   2.165  10.070   0.848  0.7840  0.0152  0.4182
34989SOL     OW16945  10.524   4.810  12.055 -0.1992  0.1040 -0.0125
34989SOL    HW116946  10.434   4.840  12.070  0.3479  1.9293 -0.1458
34989SOL    HW216947  10.578   4.872  12.105  1.0179 -0.6784 -0.3211
34990SOL     OW16948  13.073  13.740   3.400 -0.0667  0.3340 -0.8537
34990SOL    HW116949  13.051  13.654   3.365  0.9015 -0.8879  1.3147
34990SOL    HW216950  13.164  13.730   3.431 -0.1110  1.9732 -0.1243
34991SOL     OW16951   6.705   5.193   7.364 -0.0538 -0.2657  0.1450
34991SOL    HW116952   6.657   5.136   7.305 -0.1985  0.3670 -0.3662
34991SOL    HW216953   6.755   5.134   7.420 -0.2537 -0.8856 -0.3228
34992SOL     OW16954   8.560   1.602   5.044  0.1195  0.3937 -0.1152
34992SOL    HW116955   8.472   1.640   5.049  0.8381  1.9432  1.3379
34992SOL    HW216956   8.579   1.599   4.950 -1.0294  1.1133 -0.3886
34993SOL     OW16957   5.697  12.095   3.807 -0.0312 -0.2881 -0.3646
34993SOL    HW116958   5.673  12.131   3.893 -0.6406  0.5883 -0.8840
34993SOL    HW216959   5.787  12.127   3.792 -1.3377  3.2151 -1.8583
34994SOL     OW16960  12.590   4.194   8.489 -0.1091 -0.4353  0.1935
34994SOL    HW116961  12.565   4.274   8.536  2.5011  1.9800 -2.1309
34994SOL    HW216962  12.521   4.183   8.423  0.3983  1.0632 -0.6405
34995SOL     OW16963  11.233  10.934   7.170 -0.2401 -0.0603 -0.0393
34995SOL    HW116964  11.207  10.850   7.133  0.6303  0.2552 -1.4430
34995SOL    HW216965  11.248  10.991   7.094 -2.0619  1.7875  0.8673
34996SOL     OW16966  13.040   1.601   6.567  0.5701  0.7796  0.8285
34996SOL    HW116967  13.100   1.533   6.597  2.8224  3.3591  2.7541
34996SOL    HW216968  13.097   1.667   6.526 -1.3940  1.8401 -0.3707
34997SOL     OW16969   0.207   7.977   2.679 -0.3939  0.6947  0.4865
34997SOL    HW116970   0.292   7.939   2.701 -0.2355  1.7336  1.8182
34997SOL    HW216971   0.221   8.072   2.687 -1.4041  0.9343 -0.3586
34998SOL     OW16972   0.880   2.379   8.070 -0.3656 -0.0551  0.1531
34998SOL    HW116973   0.818   2.371   7.998  0.2035  1.0983 -0.5121
34998SOL    HW216974   0.833   2.427   8.137 -1.0812 -1.6153  0.8068
34999SOL     OW16975  11.260   6.839  10.888  0.4909 -0.2889 -0.6277
34999SOL    HW116976  11.205   6.773  10.844  0.3955  0.5351 -1.7930
34999SOL    HW216977  11.307   6.881  10.817 -1.0832  2.4271 -0.1916
35000SOL     OW16978   5.090  13.223   7.028 -0.0869 -0.0571 -0.3619
35000SOL    HW116979   5.037  13.303   7.025 -0.9252 -0.5546  0.4895
35000SOL    HW216980   5.042  13.161   6.974 -0.0702 -0.3300 -0.0670
35001SOL     OW16981  12.759   8.765   1.686 -0.0679 -0.4291 -0.0510
35001SOL    HW116982  12.798   8.789   1.770  0.4094 -1.9164  0.1754
35001SOL    HW216983  12.670   8.802   1.690  0.2710  0.3345  0.7005
35002SOL     OW16984   8.553   1.012  10.037 -0.3021  0.1619 -0.0007
35002SOL    HW116985   8.603   1.093  10.032 -0.7335  0.4238 -0.1041
35002SOL    HW216986   8.616   0.947  10.070 -0.0389  0.5997  0.3701
35003SOL     OW16987   8.858   0.006   1.173 -0.6266 -0.0760 -0.8290
35003SOL    HW116988   8.801   0.082   1.162 -0.6788 -0.1681 -1.2186
35003SOL    HW216989   8.803  -0.068   1.149 -1.1364 -0.4320  1.2713
35004SOL     OW16990   9.970  10.233  10.903 -0.3473 -0.1726  0.7783
35004SOL    HW116991   9.944  10.297  10.969 -0.2241  0.5554  0.1361
35004SOL    HW216992   9.900  10.235  10.839  0.8187  1.1805 -0.5277
35005SOL     OW16993  10.391   0.891  11.653 -0.5664 -0.2277 -0.6432
35005SOL    HW116994  10.329   0.957  11.683 -0.6410  0.3307 -1.9319
35005SOL    HW216995  10.432   0.930  11.575  2.2560 -0.0825  0.7636
35006SOL     OW16996   5.627   4.668   2.758  0.0672  0.1133  0.3128
35006SOL    HW116997   5.687   4.668   2.833  3.4509 -0.0442 -2.1854
35006SOL    HW216998   5.630   4.578   2.724  0.6035  0.7713 -1.4616
35007SOL     OW16999  10.437   9.383  13.412  0.6359 -0.3025  0.0734
35007SOL    HW117000  10.450   9.407  13.320 -2.4021 -2.2729 -1.0344
35007SOL    HW217001  10.396   9.460  13.451 -0.4433 -0.3075 -0.9699
35008SOL     OW17002   2.303  11.836   7.483  0.0682  0.9007 -0.4666
35008SOL    HW117003   2.348  11.806   7.562 -0.2849 -1.7678 -1.1933
35008SOL    HW217004   2.370  11.832   7.414 -0.4732 -0.1320 -0.9518
35009SOL     OW17005   6.430   3.937  13.063  0.3274  0.4687  0.1341
35009SOL    HW117006   6.398   3.943  13.154 -2.3553 -2.3690 -0.4421
35009SOL    HW217007   6.371   3.994  13.014 -0.2723 -0.4299 -0.2061
35010SOL     OW17008   7.046  10.279   1.095  0.1422 -0.0644  0.3564
35010SOL    HW117009   6.973  10.332   1.065  0.5868  0.1114 -0.4268
35010SOL    HW217010   7.118  10.340   1.105 -0.1298 -0.0060  2.3738
35011SOL     OW17011   4.159   8.489   1.996 -0.3139  0.7836 -0.0438
35011SOL    HW117012   4.135   8.430   1.925  1.4958 -0.7595  0.5251
35011SOL    HW217013   4.086   8.483   2.058 -0.2438 -0.7842 -0.0729
35012SOL     OW17014   5.120   0.435   8.391  0.2673  0.0706 -0.0536
35012SOL    HW117015   5.061   0.445   8.466 -1.2733  0.5223 -1.2764
35012SOL    HW217016   5.081   0.365   8.339  0.7700  0.4351 -0.9359
35013SOL     OW17017  12.698   3.121   2.591 -0.6470  0.3611 -0.1072
35013SOL    HW117018  12.757   3.196   2.580 -1.6277  0.8833 -2.6373
35013SOL    HW217019  12.756   3.045   2.597  0.3210  1.0643 -0.3476
35014SOL     OW17020   5.209   1.473   9.277 -0.2363 -0.3386  0.5504
35014SOL    HW117021   5.259   1.401   9.239  0.7733  0.2860  0.6348
35014SOL    HW217022   5.216   1.460   9.371 -0.0939 -0.1726  0.5645
35015SOL     OW17023  10.787   6.023   1.950 -0.1188 -0.2015 -0.4679
35015SOL    HW117024  10.779   5.959   2.020 -1.4920  0.7647  0.2928
35015SOL    HW217025  10.732   5.988   1.879 -0.3658 -0.1801 -0.2882
35016SOL     OW17026  10.791   1.832   1.143  0.0957  0.4838  0.0554
35016SOL    HW117027  10.768   1.869   1.228 -0.5639 -1.9361  1.0106
35016SOL    HW217028  10.851   1.896   1.104  0.9211  1.3634  2.5813
35017SOL     OW17029  13.042   1.366   8.924  0.0895 -0.0139  0.5146
35017SOL    HW117030  13.082   1.410   8.849  0.9039 -0.3426  0.7362
35017SOL    HW217031  13.041   1.432   8.993  1.1750 -0.2671  0.8026
35018SOL     OW17032   4.937   0.484  11.132 -0.1998 -0.3238 -0.0940
35018SOL    HW117033   4.953   0.390  11.133 -1.3245 -0.5249  1.2116
35018SOL    HW217034   4.947   0.511  11.223 -2.1637  0.4013 -0.0619
35019SOL     OW17035   2.363   2.498   8.703  0.0413  0.2404  0.6045
35019SOL    HW117036   2.299   2.506   8.632  0.1038 -1.0057  0.3888
35019SOL    HW217037   2.334   2.423   8.754  0.4804  0.6018  1.4114
35020SOL     OW17038   9.729   3.742   6.897 -0.2936  0.4764  0.1792
35020SOL    HW117039   9.799   3.679   6.880 -1.6857 -1.2198  0.4388
35020SOL    HW217040   9.701   3.723   6.987  1.5059  3.8238  1.6548
35021SOL     OW17041  10.702   6.071   0.739 -0.1527  0.0765 -0.6086
35021SOL    HW117042  10.778   6.050   0.685 -0.9579  0.2182 -1.8350
35021SOL    HW217043  10.737   6.122   0.811  0.9525 -0.0832 -1.0208
35022SOL     OW17044  11.525   3.113   0.278  0.5044  0.0565 -0.3519
35022SOL    HW117045  11.473   3.149   0.350  2.1375  0.4082  0.7173
35022SOL    HW217046  11.509   3.172   0.205 -0.8193 -0.0292 -0.1450
35023SOL     OW17047   4.254   2.196   3.187  0.0135 -0.5246  0.4591
35023SOL    HW117048   4.224   2.116   3.144  1.1426 -2.0093  2.2446
35023SOL    HW217049   4.263   2.171   3.279  1.9676  1.2103  0.8037
35024SOL     OW17050   4.487   7.201   6.098 -0.5166 -0.2004 -0.1229
35024SOL    HW117051   4.555   7.184   6.164  1.6090  0.5049 -2.0199
35024SOL    HW217052   4.464   7.114   6.065 -0.0652 -0.3932  0.0649
35025SOL     OW17053   5.961  10.134   4.315 -0.2160 -0.2805 -0.1028
35025SOL    HW117054   6.029  10.089   4.265 -0.9291 -2.3179  0.6653
35025SOL    HW217055   5.930  10.203   4.256  2.1106  0.3757 -0.6586
35026SOL     OW17056   8.431   1.915   2.077  0.6216  0.3587 -0.2030
35026SOL    HW117057   8.436   1.934   2.170  0.7600 -1.9869  0.3309
35026SOL    HW217058   8.517   1.879   2.055 -0.2533 -1.6454 -0.5543
35027SOL     OW17059   1.796   4.807   3.903  0.6208 -0.2339 -0.0914
35027SOL    HW117060   1.700   4.800   3.901  0.6015  0.1246 -0.3663
35027SOL    HW217061   1.821   4.823   3.812  0.8565  0.7450  0.1332
35028SOL     OW17062   1.802   8.765  10.888 -0.2509 -0.2168 -0.2203
35028SOL    HW117063   1.894   8.778  10.912 -0.7550  0.9423  1.2025
35028SOL    HW217064   1.802   8.682  10.840  1.1655 -1.6234  2.0098
35029SOL     OW17065   0.130  12.687   8.995  0.3659 -0.4653 -0.1028
35029SOL    HW117066   0.153  12.663   8.906 -1.5580  0.8100 -1.0117
35029SOL    HW217067   0.039  12.662   9.004  0.4824 -0.4192  1.4769
35030SOL     OW17068  12.412   5.853   9.623 -0.2251 -0.3565 -0.0942
35030SOL    HW117069  12.322   5.854   9.591 -0.6426 -0.8687  1.0207
35030SOL    HW217070  12.408   5.898   9.708  0.7570  0.5124 -0.4802
35031SOL     OW17071   6.102  12.188   8.933 -0.1963 -0.1371  0.0561
35031SOL    HW117072   6.101  12.275   8.895 -0.2685 -0.4902 -0.7800
35031SOL    HW217073   6.030  12.142   8.891 -0.5065 -0.4345  0.8988
35032SOL     OW17074   4.443   7.445   1.929 -0.1687 -0.2201  0.0434
35032SOL    HW117075   4.355   7.472   1.905 -0.0453 -1.6183 -2.3026
35032SOL    HW217076   4.472   7.390   1.856  2.2106 -0.7544  1.2850
35033SOL     OW17077   4.558   2.232   2.608  0.2612  0.3993  0.0551
35033SOL    HW117078   4.482   2.289   2.620  0.6149  0.4914  2.2368
35033SOL    HW217079   4.633   2.287   2.630  0.9175  0.0489 -1.2006
35034SOL     OW17080  10.968   6.405   9.771  0.5854  0.6067  0.0344
35034SOL    HW117081  10.998   6.332   9.826  3.2083 -0.0556 -2.0738
35034SOL    HW217082  11.027   6.477   9.794  1.5432  0.3992 -1.6393
35035SOL     OW17083   6.400   3.618   7.169 -0.0275 -0.1486 -0.2844
35035SOL    HW117084   6.492   3.640   7.185 -0.0484 -0.5117  0.3400
35035SOL    HW217085   6.389   3.631   7.075  0.7580 -0.4574 -0.4260
35036SOL     OW17086   1.889   6.784  11.597 -0.3396 -0.1158  0.1664
35036SOL    HW117087   1.938   6.705  11.578 -0.3490 -0.0401 -0.1730
35036SOL    HW217088   1.904   6.841  11.522 -0.8092 -0.0282  0.1312
35037SOL     OW17089   2.559   8.089  10.470 -0.2681 -0.1915  0.1725
35037SOL    HW117090   2.503   8.063  10.544 -0.8740  3.4391  1.1691
35037SOL    HW217091   2.498   8.123  10.405  0.5495  0.4591 -0.2640
35038SOL     OW17092   3.237   6.181  13.146  0.1779  0.0318 -0.1162
35038SOL    HW117093   3.207   6.264  13.185 -2.0937  0.2898 -2.1811
35038SOL    HW217094   3.304   6.207  13.083  0.0949  0.1998 -0.1352
35039SOL     OW17095   3.393   9.179   9.731  0.5508 -0.1741  0.3229
35039SOL    HW117096   3.300   9.159   9.720 -0.0172  1.3534  1.7941
35039SOL    HW217097   3.420   9.217   9.648 -0.7857  1.4761  0.5849
35040SOL     OW17098   2.226  12.492   8.201  0.3435  0.4654  0.4925
35040SOL    HW117099   2.288  12.430   8.163 -0.7932  0.1977 -1.0205
35040SOL    HW217100   2.226  12.566   8.140 -0.1533  0.8718  0.9745
35041SOL     OW17101   2.167   3.892  13.477 -0.0761  0.4549  0.2322
35041SOL    HW117102   2.101   3.838  13.521  0.1656  0.1817  0.2594
35041SOL    HW217103   2.175   3.855  13.390 -0.4621  0.9202 -0.0066
35042SOL     OW17104   1.742   8.849  11.414 -0.4142  0.3034 -0.1206
35042SOL    HW117105   1.759   8.770  11.465  2.9847 -0.2318 -1.7956
35042SOL    HW217106   1.689   8.819  11.340 -0.4608 -0.1009  0.0757
35043SOL     OW17107   9.605  12.490   8.454 -0.7467 -0.5855 -0.1501
35043SOL    HW117108   9.516  12.457   8.465 -1.3781  1.2926  0.8092
35043SOL    HW217109   9.647  12.473   8.539 -0.1698 -1.4271 -0.5868
35044SOL     OW17110  12.813  10.486   6.980 -0.2875 -0.1638  0.6639
35044SOL    HW117111  12.883  10.463   6.919 -1.3413 -2.0784  0.1280
35044SOL    HW217112  12.807  10.582   6.973 -0.2204 -0.2708 -2.0775
35045SOL     OW17113   0.173  12.212   6.814 -0.5904 -0.3517  0.2480
35045SOL    HW117114   0.192  12.249   6.728  3.0852  0.9649  1.4283
35045SOL    HW217115   0.224  12.131   6.817 -0.0623 -0.0037  1.3967
35046SOL     OW17116   6.301   2.671   9.698 -0.1679  0.2861 -0.5464
35046SOL    HW117117   6.214   2.655   9.735 -0.4181 -0.0890 -1.2800
35046SOL    HW217118   6.286   2.737   9.630  0.3449  1.2389  0.2398
35047SOL     OW17119   1.582  11.113  11.155  0.2641 -0.3664  0.3087
35047SOL    HW117120   1.618  11.122  11.243  0.4187  0.6988  0.1518
35047SOL    HW217121   1.490  11.088  11.168  0.0169  0.7437  0.8054
35048SOL     OW17122   4.793   1.247  13.513 -0.2539  0.1457 -0.1058
35048SOL    HW117123   4.761   1.166  13.552  2.6910 -0.6798  0.7951
35048SOL    HW217124   4.882   1.227  13.484 -0.4573  2.2597 -2.5461
35049SOL     OW17125  11.449  12.700   5.157 -0.0425  0.0594 -0.1727
35049SOL    HW117126  11.466  12.609   5.181  0.5680  0.3415  0.4899
35049SOL    HW217127  11.363  12.719   5.194 -0.5801 -0.5085 -1.0864
35050SOL     OW17128  10.663   5.797  13.920 -0.6020 -0.0447  0.3574
35050SOL    HW117129  10.568   5.791  13.930 -0.5893 -1.7148 -0.2418
35050SOL    HW217130  10.683   5.738  13.848  0.5066  3.0573 -2.1010
35051SOL     OW17131   6.454  13.191  13.264  0.6448 -0.2906 -0.1516
35051SOL    HW117132   6.393  13.136  13.214  0.7340 -1.8851  1.4021
35051SOL    HW217133   6.539  13.176  13.223  0.8363 -2.1205  0.8160
35052SOL     OW17134  12.956   7.379   0.468  0.0901 -0.1509 -0.1684
35052SOL    HW117135  12.989   7.358   0.381 -1.7072 -0.2110 -0.8609
35052SOL    HW217136  12.935   7.294   0.507  0.0640 -0.0676  0.0009
35053SOL     OW17137  12.142  11.760   8.486  0.8311 -0.1711  0.1766
35053SOL    HW117138  12.101  11.719   8.562 -0.6814  0.8434 -0.0418
35053SOL    HW217139  12.124  11.701   8.413 -1.3457  0.7891 -0.1423
35054SOL     OW17140  11.053  12.859   6.431  0.3148  0.0459 -0.1967
35054SOL    HW117141  11.014  12.946   6.442 -0.0681 -0.2628  1.0929
35054SOL    HW217142  10.988  12.809   6.382 -0.2233 -0.0029  0.5556
35055SOL     OW17143  12.653  13.012  10.378 -0.1219  0.6093 -0.5413
35055SOL    HW117144  12.590  13.007  10.450 -0.4058 -0.0919 -0.8269
35055SOL    HW217145  12.694  13.097  10.388 -0.6177  0.7838  0.0717
35056SOL     OW17146   5.159   9.663   3.340 -0.1538 -0.1591  0.3417
35056SOL    HW117147   5.114   9.670   3.424  1.3652  0.1110  1.1589
35056SOL    HW217148   5.180   9.570   3.331  0.3642 -0.0738  0.6389
35057SOL     OW17149  13.438  11.263   1.670 -0.4001  0.8277 -0.0513
35057SOL    HW117150  13.519  11.272   1.720  1.0254 -0.3313 -2.0152
35057SOL    HW217151  13.409  11.353   1.654 -1.1779  1.2559  3.1086
35058SOL     OW17152   8.279   0.109   3.788  0.9155 -0.3050 -0.4770
35058SOL    HW117153   8.250   0.180   3.731 -0.2870 -1.3178 -1.1694
35058SOL    HW217154   8.360   0.142   3.827 -0.4686  2.1346  0.5632
35059SOL     OW17155  11.880   7.614   1.860  0.1775 -0.5347 -0.2494
35059SOL    HW117156  11.814   7.670   1.819 -0.8073 -0.7663  0.9320
35059SOL    HW217157  11.926   7.672   1.921  1.2657 -0.3172 -1.2403
35060SOL     OW17158   8.418   5.964   7.762 -0.3289 -0.4614  0.4479
35060SOL    HW117159   8.410   6.009   7.846 -0.3222 -1.0848  0.7849
35060SOL    HW217160   8.329   5.937   7.741  0.0382 -3.0757  1.8089
35061SOL     OW17161   7.147   6.466  12.536  0.2427 -0.1189 -0.4421
35061SOL    HW117162   7.141   6.516  12.455 -0.1485 -0.7420 -0.8034
35061SOL    HW217163   7.060   6.428  12.547 -0.2754  1.4135  1.2234
35062SOL     OW17164   0.486   1.719   9.500  0.5951 -0.5092 -0.4059
35062SOL    HW117165   0.500   1.771   9.421 -1.8117  0.8242 -0.0589
35062SOL    HW217166   0.537   1.764   9.568  0.2779  0.1256 -0.5809
35063SOL     OW17167   8.918   4.974   4.838  1.3320  0.2845  0.5487
35063SOL    HW117168   8.889   5.049   4.889  1.2716  0.6182  0.0364
35063SOL    HW217169   8.896   4.897   4.892  0.1892  0.5650  0.5044
35064SOL     OW17170   3.487   6.875   3.539 -0.1773  0.4614  0.2490
35064SOL    HW117171   3.574   6.900   3.569  0.0398  0.9386 -0.7253
35064SOL    HW217172   3.502   6.801   3.481 -0.5726 -0.3467  1.1489
35065SOL     OW17173   9.470   7.616   9.196 -0.2249 -0.6236  0.2106
35065SOL    HW117174   9.478   7.711   9.202  0.4915 -0.3924 -2.6338
35065SOL    HW217175   9.401   7.592   9.258  0.7267  1.5153  2.1887
35066SOL     OW17176   6.682   1.266   8.577 -0.0748  0.2706  0.2032
35066SOL    HW117177   6.730   1.233   8.501 -2.4629 -1.3618 -0.7055
35066SOL    HW217178   6.618   1.327   8.540 -1.5680 -0.8804  0.8015
35067SOL     OW17179  12.106  12.114   9.369 -0.2719  0.4665 -0.0842
35067SOL    HW117180  12.152  12.193   9.343  0.2066 -0.4764 -2.3053
35067SOL    HW217181  12.147  12.044   9.318 -1.0400 -1.1477  1.4006
35068SOL     OW17182   6.576  10.891   4.262 -0.1763 -0.2139 -0.0747
35068SOL    HW117183   6.668  10.894   4.235  0.0890  2.1443  0.9323
35068SOL    HW217184   6.579  10.880   4.357 -1.0251 -2.4417 -0.2403
35069SOL     OW17185  12.013   6.613   8.153 -0.7491  0.3456  0.1132
35069SOL    HW117186  12.067   6.541   8.186 -2.0256 -0.2634  0.9695
35069SOL    HW217187  12.000   6.593   8.061  0.6156  0.6115 -0.1643
35070SOL     OW17188   4.550  13.564   8.282 -0.0448 -0.5539 -0.2662
35070SOL    HW117189   4.534  13.578   8.188  0.4440 -1.8884 -0.5743
35070SOL    HW217190   4.483  13.617   8.326  0.7264  1.3730 -1.3180
35071SOL     OW17191   2.395  10.653   6.669  0.3559  0.7277  0.5083
35071SOL    HW117192   2.464  10.674   6.605 -0.4577  0.9905 -0.3119
35071SOL    HW217193   2.418  10.566   6.701  0.7456  0.5588 -0.2058
35072SOL     OW17194   0.497   1.426  10.203  0.0596 -0.0265 -0.0490
35072SOL    HW117195   0.572   1.450  10.148 -0.6908 -0.2991 -1.2486
35072SOL    HW217196   0.488   1.331  10.191 -0.6807  0.0519 -0.2341
35073SOL     OW17197   2.152   6.422   2.180 -0.4458  0.1862  0.3656
35073SOL    HW117198   2.178   6.373   2.102 -1.9970 -0.6597  0.3348
35073SOL    HW217199   2.181   6.367   2.253 -2.6716 -1.1618  0.3321
35074SOL     OW17200   4.338   3.734  10.826 -0.2290  0.8232  0.3881
35074SOL    HW117201   4.271   3.682  10.782 -1.1153  1.4692  0.9614
35074SOL    HW217202   4.409   3.740  10.762 -1.1630  1.0511 -0.6577
35075SOL     OW17203   2.210   9.251   2.471 -0.0857 -0.1361  0.2255
35075SOL    HW117204   2.183   9.229   2.560  0.9045 -0.6103  0.4156
35075SOL    HW217205   2.201   9.170   2.422 -0.2355  0.0227 -0.0143
35076SOL     OW17206   9.758   1.209   0.274  0.3582 -0.1582 -0.0012
35076SOL    HW117207   9.841   1.163   0.282 -0.0046 -0.8129  0.1253
35076SOL    HW217208   9.696   1.155   0.325  0.4049  1.7348  2.2098
35077SOL     OW17209   0.920   5.150   2.126  0.4180  0.2527 -0.0236
35077SOL    HW117210   0.898   5.079   2.187  0.1981 -0.6657 -1.1488
35077SOL    HW217211   0.927   5.227   2.182  0.5847 -0.6276  1.2248
35078SOL     OW17212   3.211   6.214   3.164 -0.0747  0.4625 -0.7015
35078SOL    HW117213   3.256   6.177   3.088  1.3821 -0.5260  0.5803
35078SOL    HW217214   3.180   6.299   3.135  0.1291 -0.0424 -2.5055
35079SOL     OW17215   6.528  11.394   7.237  0.3625  0.0186 -0.0993
35079SOL    HW117216   6.463  11.405   7.306  0.2100 -0.8216 -0.0991
35079SOL    HW217217   6.578  11.476   7.237 -1.0472  0.8951 -0.4767
35080SOL     OW17218  10.707   0.299   6.585 -0.2239 -0.7557 -0.1182
35080SOL    HW117219  10.676   0.301   6.675 -0.0721 -0.3881 -0.0727
35080SOL    HW217220  10.798   0.271   6.591 -0.1709 -0.5908 -0.1443
35081SOL     OW17221   4.943   8.832  10.128 -0.1127 -0.4041  0.1470
35081SOL    HW117222   4.940   8.847  10.222  1.5153 -0.4516  0.2356
35081SOL    HW217223   4.852   8.827  10.102 -0.7050  2.4859  1.2459
35082SOL     OW17224   3.256  10.028   6.184 -0.1538 -0.1849 -0.5761
35082SOL    HW117225   3.330  10.042   6.124  1.3606 -1.8251  0.8050
35082SOL    HW217226   3.285  10.064   6.267 -1.4224  0.2314 -0.2900
35083SOL     OW17227   2.040  10.267   2.225 -0.1345  0.1330 -0.0932
35083SOL    HW117228   1.959  10.270   2.174 -1.0078 -1.7097  1.0808
35083SOL    HW217229   2.024  10.329   2.297 -0.2684  0.1846 -0.1655
35084SOL     OW17230   4.572   4.815   3.289  0.0314  0.5857  0.3825
35084SOL    HW117231   4.536   4.726   3.281 -0.0341  0.4675  1.8097
35084SOL    HW217232   4.657   4.810   3.246 -0.6434  0.2713 -0.9937
35085SOL     OW17233   0.500  10.007   8.688  0.4811  0.2108 -0.7367
35085SOL    HW117234   0.574  10.068   8.691  2.0428 -1.5271  3.3181
35085SOL    HW217235   0.427  10.056   8.726  1.8060 -0.2542  2.8105
35086SOL     OW17236  13.684   6.770  10.496 -0.1857  0.0464  0.2183
35086SOL    HW117237  13.719   6.847  10.451 -0.6787  0.8556  1.1857
35086SOL    HW217238  13.635   6.723  10.428 -0.8618  1.2051 -0.1236
35087SOL     OW17239  10.978   8.871   1.793  0.3717  0.3164 -0.6625
35087SOL    HW117240  10.952   8.875   1.885 -3.0589 -0.0770 -1.4938
35087SOL    HW217241  11.073   8.884   1.795  0.2786  1.5482  2.7953
35088SOL     OW17242   5.848  10.805  13.926 -0.4565 -0.4201 -0.1111
35088SOL    HW117243   5.895  10.875  13.972  3.0142 -1.8949 -1.0868
35088SOL    HW217244   5.756  10.817  13.952  0.3439  2.7991  1.8509
35089SOL     OW17245   9.317   8.646   1.307 -0.0183 -0.2644 -0.1317
35089SOL    HW117246   9.309   8.706   1.381  0.8002  1.4540 -1.3724
35089SOL    HW217247   9.366   8.571   1.342  0.3663  0.5072  1.0431
35090SOL     OW17248  12.208   3.970   7.396 -0.1652 -0.3512 -0.0759
35090SOL    HW117249  12.272   4.034   7.366 -0.6471  0.4882  0.6349
35090SOL    HW217250  12.238   3.887   7.359 -0.2231  0.4616 -2.0821
35091SOL     OW17251  11.803  11.147   2.326 -0.0999 -0.5942 -0.5984
35091SOL    HW117252  11.785  11.058   2.356 -0.8522 -0.1508  0.3329
35091SOL    HW217253  11.852  11.186   2.398 -0.0515 -0.1606 -0.8652
35092SOL     OW17254   8.089   3.225   7.365  0.2528  0.9130  0.7705
35092SOL    HW117255   8.101   3.196   7.456  2.9127 -0.0442  0.2214
35092SOL    HW217256   8.046   3.152   7.322 -2.8359  2.1119  1.5600
35093SOL     OW17257   6.819  13.621  10.479 -0.3926 -0.1664 -0.0847
35093SOL    HW117258   6.867  13.609  10.397  0.6090  2.2757  0.0312
35093SOL    HW217259   6.738  13.665  10.453 -0.1095  0.5396  0.1871
35094SOL     OW17260   8.613   1.189   3.667  0.2105 -0.2353 -0.9812
35094SOL    HW117261   8.664   1.264   3.635  1.8145 -1.0713 -0.4984
35094SOL    HW217262   8.589   1.214   3.756  0.3103 -0.0894 -0.9935
35095SOL     OW17263  13.816   2.207  12.998 -0.7469  0.3716 -0.5301
35095SOL    HW117264  13.910   2.209  12.981 -0.3639  0.7025  1.3815
35095SOL    HW217265  13.795   2.296  13.025 -0.8136 -0.4875  2.6063
35096SOL     OW17266   2.250   6.036   2.942 -0.1485 -0.7501 -0.0345
35096SOL    HW117267   2.330   6.038   2.890 -0.1993  1.3134 -0.1164
35096SOL    HW217268   2.193   6.102   2.901 -0.9109 -0.4051  1.5045
35097SOL     OW17269  10.031  12.003  13.912 -0.5032  0.6587 -0.1982
35097SOL    HW117270   9.984  12.024  13.831  0.3277  3.4058 -0.0795
35097SOL    HW217271  10.017  12.079  13.968  1.5139  0.2127  1.0163
35098SOL     OW17272  14.038   4.164  14.028  0.3813 -0.0601  0.6186
35098SOL    HW117273  14.030   4.095  14.094 -2.7567  0.1870  0.6403
35098SOL    HW217274  14.102   4.225  14.065  0.0118 -0.8250  2.6336
35099SOL     OW17275   5.640   6.042  10.177 -0.3396 -0.5084  0.3386
35099SOL    HW117276   5.571   5.986  10.211 -0.3293 -0.0679  1.1157
35099SOL    HW217277   5.641   6.117  10.236  0.6189 -0.3834  0.1845
35100SOL     OW17278   8.356  11.216  10.611 -0.3415 -0.1649  0.5958
35100SOL    HW117279   8.441  11.205  10.652 -0.2947  2.8381  1.5105
35100SOL    HW217280   8.368  11.287  10.548 -1.7937 -0.8262 -0.4985
35101SOL     OW17281   1.354   0.318  11.038 -0.0006  0.1750  0.4376
35101SOL    HW117282   1.284   0.254  11.046 -0.1245  0.4488  1.8243
35101SOL    HW217283   1.432   0.273  11.070  0.2811  0.1597 -0.2548
35102SOL     OW17284   6.277   0.855  10.725  0.3256 -0.8023  0.2272
35102SOL    HW117285   6.335   0.779  10.717 -0.2618 -1.1679 -0.6556
35102SOL    HW217286   6.193   0.819  10.754  0.0871 -0.4772 -0.0543
35103SOL     OW17287   1.665   2.488  13.501 -0.2781 -0.4638  0.1867
35103SOL    HW117288   1.757   2.500  13.525 -0.2136 -0.4386 -0.0669
35103SOL    HW217289   1.619   2.558  13.548 -0.0379  0.1393 -0.4576
35104SOL     OW17290   5.899   3.202  11.445  1.0298  0.2009  0.0989
35104SOL    HW117291   5.978   3.202  11.392  0.9969 -0.1591  0.0519
35104SOL    HW217292   5.929   3.183  11.534  1.0110  0.2152  0.1086
35105SOL     OW17293   9.481   3.954   0.347 -0.1389  0.1401  0.1449
35105SOL    HW117294   9.454   4.038   0.308 -1.7923 -0.2605  0.3230
35105SOL    HW217295   9.560   3.975   0.396 -0.1777  1.4772 -0.3067
35106SOL     OW17296   8.084   0.055  12.306 -0.6611 -0.4155 -0.2444
35106SOL    HW117297   8.079   0.145  12.338  1.4874 -0.4740  0.4530
35106SOL    HW217298   8.092   0.002  12.385  2.3797 -0.7750 -0.6722
35107SOL     OW17299   5.909   4.208   1.017 -0.4145 -0.1591  0.6223
35107SOL    HW117300   5.890   4.152   0.942  0.1383 -1.3378  1.3235
35107SOL    HW217301   5.823   4.234   1.051 -0.6941  1.6185 -1.2424
35108SOL     OW17302   7.764  12.591  11.388  0.7065  0.0273 -0.4102
35108SOL    HW117303   7.766  12.603  11.483 -1.0830  0.3611 -0.3820
35108SOL    HW217304   7.676  12.618  11.362  0.6285 -1.5336 -1.9663
35109SOL     OW17305   3.636   1.617   6.080 -1.1296  0.4297 -0.0072
35109SOL    HW117306   3.601   1.706   6.087 -0.1397  1.0927 -2.2189
35109SOL    HW217307   3.606   1.587   5.994 -2.5952 -1.9629  1.2716
35110SOL     OW17308   8.541  11.681  12.382  1.0059 -0.3651 -0.2480
35110SOL    HW117309   8.584  11.758  12.420  0.4831 -0.3484  0.3142
35110SOL    HW217310   8.461  11.670  12.432  0.5708 -0.6760 -0.9960
35111SOL     OW17311   1.877   0.521   8.912  0.4574 -0.6467 -0.0461
35111SOL    HW117312   1.782   0.516   8.897  0.0300  0.8146  1.8009
35111SOL    HW217313   1.915   0.503   8.826 -1.5255 -0.2100 -1.0891
35112SOL     OW17314   4.418   4.183   7.312  0.1558 -0.1471 -0.6680
35112SOL    HW117315   4.470   4.140   7.244 -1.5457  0.3641 -2.3589
35112SOL    HW217316   4.367   4.249   7.266 -1.0652  0.2314  1.1197
35113SOL     OW17317   0.276   7.227  12.740 -0.2676 -0.2719 -0.1478
35113SOL    HW117318   0.183   7.250  12.751 -0.8159 -2.2718 -0.1566
35113SOL    HW217319   0.291   7.157  12.803  0.9684 -0.6583 -0.8321
35114SOL     OW17320   8.039  10.689  10.742 -0.3531  0.2187 -0.6157
35114SOL    HW117321   8.057  10.648  10.657  2.0290 -0.2706  0.0515
35114SOL    HW217322   8.073  10.778  10.734  0.1767  0.0707 -0.0836
35115SOL     OW17323   4.299   0.798   5.010 -0.0525 -0.0031  0.3211
35115SOL    HW117324   4.343   0.881   5.030  1.5804 -0.7780  0.0878
35115SOL    HW217325   4.343   0.766   4.931 -2.8535  0.4523 -1.6049
35116SOL     OW17326   7.879   0.587  10.377  0.4769 -0.0094 -0.2823
35116SOL    HW117327   7.949   0.609  10.316 -1.6589  0.0067 -2.8781
35116SOL    HW217328   7.849   0.672  10.411  2.2507 -0.0611  1.6500
35117SOL     OW17329   4.016   2.529  11.140 -0.1627 -0.3540  0.2329
35117SOL    HW117330   3.966   2.610  11.152  0.6203  0.4569 -1.5109
35117SOL    HW217331   4.044   2.504  11.228 -1.2360  0.7311  0.9094
35118SOL     OW17332   5.383   1.385  13.912  0.7460 -0.0852 -0.8886
35118SOL    HW117333   5.463   1.437  13.910  0.5592  0.1991 -1.2613
35118SOL    HW217334   5.407   1.305  13.957  1.4846 -0.4006 -1.8043
35119SOL     OW17335   9.267  11.600  10.553  0.6078  0.5452 -0.1205
35119SOL    HW117336   9.360  11.618  10.565  0.3140  1.8352  0.3855
35119SOL    HW217337   9.249  11.527  10.612  1.3265  0.1983 -0.3244
35120SOL     OW17338   6.451   3.762   9.794  0.3071  0.3818 -0.6671
35120SOL    HW117339   6.368   3.759   9.746  0.2821 -3.4888 -0.6898
35120SOL    HW217340   6.517   3.772   9.725 -0.0121  0.2341 -1.0012
35121SOL     OW17341   8.028  11.462   8.501 -0.3196 -0.5647 -0.0979
35121SOL    HW117342   7.934  11.474   8.517 -0.3574  0.1595 -0.7823
35121SOL    HW217343   8.070  11.486   8.583 -0.6490  0.6059 -0.2560
35122SOL     OW17344   6.378   6.824   4.212  0.5253 -0.9443 -0.1331
35122SOL    HW117345   6.402   6.909   4.250  0.2218 -1.3086  0.9128
35122SOL    HW217346   6.304   6.845   4.154  2.1914 -0.0850 -2.1029
35123SOL     OW17347   4.637  10.529   8.772  0.2693  0.0307  0.3636
35123SOL    HW117348   4.668  10.577   8.848  2.5875  0.6075 -0.8376
35123SOL    HW217349   4.651  10.437   8.795  0.5643  0.1819  0.8064
35124SOL     OW17350  11.968   3.415   3.641 -0.5897 -0.0985 -0.0216
35124SOL    HW117351  11.949   3.474   3.567  0.5284  1.0675  0.5792
35124SOL    HW217352  12.063   3.407   3.640 -0.6695 -1.1851  0.4783
35125SOL     OW17353   5.448   5.236   0.147 -0.2038 -0.1196  0.1823
35125SOL    HW117354   5.374   5.206   0.094  0.9991  1.0520 -2.3345
35125SOL    HW217355   5.425   5.326   0.171 -0.7306 -0.6368  1.7050
35126SOL     OW17356   9.985   6.071   2.174 -0.0886 -0.2331  0.1809
35126SOL    HW117357  10.068   6.027   2.193  0.2590  0.0147 -0.7107
35126SOL    HW217358   9.972   6.130   2.249 -0.7945 -2.1363  1.6257
35127SOL     OW17359  13.538   5.720  13.619  0.0792 -0.0499 -0.1821
35127SOL    HW117360  13.542   5.667  13.539  1.4642 -0.1730 -0.0565
35127SOL    HW217361  13.557   5.657  13.690 -1.0972  0.0642  0.2568
35128SOL     OW17362   2.559   9.912  10.133  0.2888 -0.3541  0.6190
35128SOL    HW117363   2.614   9.952  10.200  0.9522 -1.7338  0.9272
35128SOL    HW217364   2.567   9.818  10.148  0.9577 -0.7426 -1.7735
35129SOL     OW17365   9.116   4.935   4.644 -0.6031 -0.1033  0.1028
35129SOL    HW117366   9.147   5.017   4.606  0.7020 -0.7632 -0.3381
35129SOL    HW217367   9.038   4.959   4.694 -1.0238  1.1690 -1.1019
35130SOL     OW17368  10.784   6.668   1.040 -0.4061  0.3045  0.1253
35130SOL    HW117369  10.827   6.732   0.983  0.0886 -0.1669 -0.0407
35130SOL    HW217370  10.843   6.593   1.039 -1.6392 -0.6808 -0.7719
35131SOL     OW17371  11.167   6.392  10.526  0.0015  0.5690  0.8298
35131SOL    HW117372  11.163   6.415  10.433 -1.6381  0.2945  0.8032
35131SOL    HW217373  11.077   6.401  10.557  0.4412  0.2300  2.2998
35132SOL     OW17374   3.357  11.464  10.562  0.0370 -0.1276 -0.4430
35132SOL    HW117375   3.447  11.441  10.540 -0.5093 -1.2434 -1.6611
35132SOL    HW217376   3.342  11.548  10.519  0.5480  0.1925 -0.0204
35133SOL     OW17377   1.760   1.552   8.800  0.4092  0.5470  0.2844
35133SOL    HW117378   1.670   1.520   8.789 -0.0492  1.7024  0.4491
35133SOL    HW217379   1.749   1.643   8.828  1.6404  1.1779 -1.1363
35134SOL     OW17380   4.299   0.026   8.298  0.4530 -0.2024 -0.3068
35134SOL    HW117381   4.296   0.122   8.307 -0.6626 -0.1927 -0.6043
35134SOL    HW217382   4.390   0.003   8.319  0.1862  0.6804  2.2212
35135SOL     OW17383  11.872   6.317  11.401 -0.2688  0.0062  0.7220
35135SOL    HW117384  11.905   6.327  11.312  0.3622 -0.4442  0.8977
35135SOL    HW217385  11.908   6.233  11.431 -0.7866 -0.0295  1.2639
35136SOL     OW17386   7.438  10.430   6.882  0.5338  0.1459 -0.3145
35136SOL    HW117387   7.516  10.440   6.827  0.7320 -0.4492 -0.1560
35136SOL    HW217388   7.365  10.430   6.820  0.5710  1.6278 -0.3915
35137SOL     OW17389   3.172   9.416   6.439  0.2454 -0.6623 -0.4747
35137SOL    HW117390   3.155   9.337   6.387  0.1051 -0.7685 -0.2663
35137SOL    HW217391   3.133   9.397   6.525 -0.9756  0.1487 -0.8239
35138SOL     OW17392   8.540   0.915   7.596  0.3511 -0.0297 -0.5308
35138SOL    HW117393   8.523   0.905   7.690 -2.1009 -1.3124 -1.0409
35138SOL    HW217394   8.624   0.870   7.582  0.2457 -0.7153  0.8745
35139SOL     OW17395  11.421   3.907  10.126 -0.1849 -0.1389 -0.0931
35139SOL    HW117396  11.333   3.869  10.117 -0.8370  1.5710 -1.3412
35139SOL    HW217397  11.453   3.916  10.037  0.1928  1.5994  0.1762
35140SOL     OW17398   5.410   6.479   0.209 -0.2600  0.3042  0.5299
35140SOL    HW117399   5.345   6.536   0.167  0.3028  0.5458 -0.0165
35140SOL    HW217400   5.413   6.510   0.300 -0.0033  1.1153  0.2538
35141SOL     OW17401  10.938   2.581   2.246 -0.0526 -0.0867 -0.4771
35141SOL    HW117402  10.932   2.675   2.263  2.1897  0.1011 -0.4312
35141SOL    HW217403  10.853   2.546   2.273 -0.9799  1.9351 -0.6376
35142SOL     OW17404   7.770  12.341   7.698  0.1068  0.3121 -0.2891
35142SOL    HW117405   7.860  12.315   7.721 -0.8085 -1.6865  1.4132
35142SOL    HW217406   7.718  12.316   7.775 -2.0459  0.5483 -1.6005
35143SOL     OW17407  10.913   2.442   3.019  0.6096 -0.2509 -0.6479
35143SOL    HW117408  10.957   2.486   2.946  1.2318  0.0307 -0.1165
35143SOL    HW217409  10.966   2.364   3.036  0.9918  0.1524  0.0764
35144SOL     OW17410   1.920   6.886  12.987 -0.4719  0.1801 -0.7908
35144SOL    HW117411   2.010   6.897  13.017 -1.0354  2.9730  0.2055
35144SOL    HW217412   1.899   6.795  13.009  0.5720  0.7584  3.6174
35145SOL     OW17413   6.250  13.839  13.925 -0.6785 -0.3038 -0.3798
35145SOL    HW117414   6.335  13.797  13.942 -0.6263 -2.0051 -4.0596
35145SOL    HW217415   6.259  13.927  13.963  2.2452 -0.8549  0.4580
35146SOL     OW17416  10.848   8.280  11.499  0.2964 -0.7939  0.1438
35146SOL    HW117417  10.837   8.283  11.593  0.1664 -0.6145  0.1222
35146SOL    HW217418  10.761   8.297  11.463  0.0928 -1.9956 -0.0043
35147SOL     OW17419   6.577   6.774   4.414 -0.2600  0.0286 -0.5658
35147SOL    HW117420   6.565   6.851   4.469 -2.4675 -0.9754  0.4959
35147SOL    HW217421   6.516   6.787   4.341 -1.2521 -0.9884  0.0290
35148SOL     OW17422   7.403   4.694  13.285  0.2128 -0.3050  0.4719
35148SOL    HW117423   7.352   4.732  13.357 -1.4573  0.3905 -1.0037
35148SOL    HW217424   7.338   4.653  13.228  1.3250  0.2586 -1.2854
35149SOL     OW17425   6.706   8.327   0.777 -0.0479 -0.1255  0.3113
35149SOL    HW117426   6.747   8.291   0.856 -0.7309  0.7847  1.0906
35149SOL    HW217427   6.634   8.267   0.758  0.7212 -0.9136 -0.2274
35150SOL     OW17428   0.945   8.367   8.156 -0.7101  0.5496 -0.6711
35150SOL    HW117429   0.882   8.395   8.223 -0.0160 -0.2027  0.3353
35150SOL    HW217430   0.892   8.320   8.092 -1.2027 -0.0090  0.1214
35151SOL     OW17431   2.457  11.616  12.697 -0.3718 -0.1740  0.6063
35151SOL    HW117432   2.459  11.595  12.604 -2.2088  0.5037  0.3709
35151SOL    HW217433   2.376  11.667  12.709  0.3776  0.7012  2.3771
35152SOL     OW17434  11.637   8.877   0.345  0.1586 -0.4077  0.1513
35152SOL    HW117435  11.706   8.842   0.401 -1.0900  0.4607  2.3728
35152SOL    HW217436  11.644   8.972   0.353 -0.0983 -0.2591 -1.1480
35153SOL     OW17437   9.722  12.360  13.828 -0.3782  0.2896 -0.1440
35153SOL    HW117438   9.763  12.293  13.775 -0.3847  1.4625 -1.6948
35153SOL    HW217439   9.628  12.345  13.817 -0.3786  0.4094 -0.3102
35154SOL     OW17440   6.320   8.147   2.389  0.2904 -0.0257  0.0375
35154SOL    HW117441   6.354   8.059   2.401 -1.1374 -0.3915  1.8974
35154SOL    HW217442   6.309   8.156   2.294  0.7530 -1.7159 -0.2051
35155SOL     OW17443   0.029   3.860   1.116  0.5617 -0.4351 -0.2460
35155SOL    HW117444   0.069   3.904   1.191 -0.8892 -1.3532  1.1508
35155SOL    HW217445   0.070   3.774   1.113  0.2393 -0.5952 -0.1539
35156SOL     OW17446   3.618  13.148   7.152 -0.2000  0.0336 -0.3873
35156SOL    HW117447   3.540  13.117   7.106 -0.4247  1.0436 -0.7039
35156SOL    HW217448   3.677  13.073   7.151 -1.2546 -0.8333  0.0855
35157SOL     OW17449  12.325  12.249   6.758 -0.1322  0.1278  0.1494
35157SOL    HW117450  12.415  12.264   6.788 -0.1718  0.4849  0.0956
35157SOL    HW217451  12.286  12.195   6.827  0.4611 -1.0163 -0.3875
35158SOL     OW17452   5.187  13.239   9.094  0.2522  0.1274 -0.0108
35158SOL    HW117453   5.235  13.168   9.137  0.1864  0.6766  1.0094
35158SOL    HW217454   5.198  13.314   9.153  0.1114  0.8974 -0.9496
35159SOL     OW17455   3.617   8.417   8.479  0.0349  0.3071 -0.4316
35159SOL    HW117456   3.628   8.323   8.492 -0.1059  0.0415 -2.0210
35159SOL    HW217457   3.696   8.456   8.516  1.1419 -0.6283 -1.7285
35160SOL     OW17458   4.379   5.452   9.285 -0.7205 -0.3842 -0.0205
35160SOL    HW117459   4.406   5.426   9.373  0.3038  1.4805  0.2635
35160SOL    HW217460   4.431   5.530   9.266 -1.4938 -0.2961 -1.9760
35161SOL     OW17461   5.664  11.653   9.829 -0.1665 -0.0852 -0.3472
35161SOL    HW117462   5.716  11.597   9.771 -3.1424 -3.0487 -0.4646
35161SOL    HW217463   5.698  11.634   9.916  2.4404  2.2583 -0.7028
35162SOL     OW17464   1.844   0.210   6.300  0.3561 -0.0506  0.0185
35162SOL    HW117465   1.759   0.235   6.336 -0.3137 -1.8959 -0.1365
35162SOL    HW217466   1.896   0.185   6.377 -1.3518 -4.8125 -0.0158
35163SOL     OW17467   0.268   2.011   9.314 -0.2116 -0.0643 -0.1169
35163SOL    HW117468   0.311   2.038   9.234  1.4807  0.9001  1.0717
35163SOL    HW217469   0.306   1.926   9.335  1.9893  1.2222  1.4597
35164SOL     OW17470   6.515  11.339   5.530  0.0701 -0.3081 -0.1241
35164SOL    HW117471   6.521  11.249   5.562  0.6139 -0.2505 -0.0556
35164SOL    HW217472   6.510  11.392   5.609 -0.5753 -0.2958 -0.1693
35165SOL     OW17473   8.469   9.388   7.830  0.1288 -0.9060 -0.3524
35165SOL    HW117474   8.396   9.432   7.875  1.5230  1.1837  0.0206
35165SOL    HW217475   8.506   9.329   7.896  0.5364  0.2020  0.4449
35166SOL     OW17476   3.658   1.667   8.865 -0.1025 -0.2712  0.1304
35166SOL    HW117477   3.570   1.651   8.832  0.4076 -0.7928 -1.0418
35166SOL    HW217478   3.652   1.752   8.909 -0.8707  0.4013 -1.2010
35167SOL     OW17479   0.522   7.816   2.899 -0.4015  0.0807 -0.3033
35167SOL    HW117480   0.605   7.845   2.936 -0.2421  0.7650 -1.1648
35167SOL    HW217481   0.457   7.837   2.966  0.3131 -2.3556  1.2852
35168SOL     OW17482   7.854   8.127  12.713  0.2096 -0.4586  0.0790
35168SOL    HW117483   7.862   8.118  12.618  0.6149 -1.6407  0.2056
35168SOL    HW217484   7.874   8.219  12.731  0.9495 -0.4192 -0.8968
35169SOL     OW17485   0.584  10.415   1.310  0.2803 -0.5381  0.4713
35169SOL    HW117486   0.620  10.342   1.259  1.6796  0.7165 -0.4102
35169SOL    HW217487   0.582  10.383   1.400  0.7912 -1.6896  0.0868
35170SOL     OW17488   0.428   3.718   4.333 -0.1601 -0.0700 -0.4330
35170SOL    HW117489   0.347   3.701   4.381  0.8072  0.4192  1.4673
35170SOL    HW217490   0.485   3.645   4.357  0.7890  0.8710  0.2461
35171SOL     OW17491   5.390  10.692  13.069 -0.1416 -0.3302 -0.5805
35171SOL    HW117492   5.441  10.615  13.044  0.5331 -0.5046  1.1769
35171SOL    HW217493   5.332  10.708  12.994  0.6060 -1.7543 -1.5106
35172SOL     OW17494   1.738   7.188   3.762 -0.4139 -0.1783 -0.2193
35172SOL    HW117495   1.705   7.272   3.794 -1.2374  0.7729 -3.2493
35172SOL    HW217496   1.715   7.125   3.831 -1.6040  1.7370  1.2289
35173SOL     OW17497   9.169   1.262   2.006 -0.1409  0.1818 -0.4669
35173SOL    HW117498   9.227   1.211   1.950 -0.6133 -1.6337  0.6047
35173SOL    HW217499   9.081   1.236   1.980 -0.4146  0.7764 -0.1708
35174SOL     OW17500   5.368  12.748   1.806 -0.4409 -0.1926 -0.9130
35174SOL    HW117501   5.363  12.810   1.733  2.3445  0.8366 -0.3685
35174SOL    HW217502   5.410  12.671   1.769  0.9433  0.3170 -0.4719
35175SOL     OW17503   2.335   5.033   3.050  0.5422 -0.3981  0.1859
35175SOL    HW117504   2.406   4.992   3.100 -0.3008 -2.4661 -0.1879
35175SOL    HW217505   2.273   4.961   3.035 -2.5196  1.6517  1.9640
35176SOL     OW17506   2.177   5.363  10.562  0.4634 -0.4135  0.9254
35176SOL    HW117507   2.244   5.370  10.494  0.6113 -1.2033  0.9810
35176SOL    HW217508   2.200   5.430  10.626  1.5426 -1.0697  1.2429
35177SOL     OW17509   5.029  12.861  13.416  0.2428  0.0311  0.1566
35177SOL    HW117510   5.037  12.795  13.485  1.0640  0.2769  0.3085
35177SOL    HW217511   5.119  12.891  13.401 -0.0363  0.6159 -0.4010
35178SOL     OW17512   1.833   3.506   2.574 -0.1462  0.4200 -0.6857
35178SOL    HW117513   1.830   3.495   2.669  1.3474 -0.1643 -0.6680
35178SOL    HW217514   1.746   3.536   2.550 -0.6925  0.1135  0.8121
35179SOL     OW17515   1.512   9.542   9.677 -0.5727  0.1994  0.2118
35179SOL    HW117516   1.587   9.503   9.631 -1.4969 -0.0636 -1.1260
35179SOL    HW217517   1.436   9.501   9.637 -1.4564  0.6902  1.3437
35180SOL     OW17518   3.858  11.869   3.033 -0.5994 -0.2236  0.5769
35180SOL    HW117519   3.772  11.907   3.019 -1.4202 -2.0918  0.1472
35180SOL    HW217520   3.859  11.791   2.977  1.9118  0.4743 -0.5294
35181SOL     OW17521   0.857   6.549   3.905  0.6521 -0.1716  0.4093
35181SOL    HW117522   0.812   6.585   3.981 -1.3482  0.1655 -0.8628
35181SOL    HW217523   0.909   6.622   3.871 -1.4119  0.8692 -0.6907
35182SOL     OW17524  11.693   1.124   2.067  0.2185  0.6130  0.5682
35182SOL    HW117525  11.663   1.178   1.994  0.6259 -0.1640 -0.1835
35182SOL    HW217526  11.620   1.066   2.086  1.4735 -1.9905 -1.9386
35183SOL     OW17527   0.945   8.345   8.816 -0.5190 -0.2997  0.2969
35183SOL    HW117528   1.000   8.420   8.791 -1.1888  0.5098  1.1898
35183SOL    HW217529   0.964   8.331   8.909 -0.2494 -1.3933  0.0976
35184SOL     OW17530  12.336   7.954  10.419  0.4672  0.1089 -0.2970
35184SOL    HW117531  12.406   7.968  10.483 -0.1849  0.5011  0.3630
35184SOL    HW217532  12.281   8.033  10.427 -0.6937 -0.7118  0.0706
35185SOL     OW17533   8.009   9.860   7.659  0.2522  0.3154  0.1257
35185SOL    HW117534   8.003   9.814   7.743 -2.7596  1.4388  0.6418
35185SOL    HW217535   7.971   9.801   7.595  1.5721 -0.1025 -0.3184
35186SOL     OW17536   4.231   4.462  13.354 -0.1202 -0.2942 -0.0466
35186SOL    HW117537   4.186   4.400  13.296  0.0218 -0.5053  0.0666
35186SOL    HW217538   4.201   4.548  13.325  2.0492 -0.1894 -2.3146
35187SOL     OW17539   3.468   2.931   9.251  0.3096  0.4006 -0.5030
35187SOL    HW117540   3.426   2.946   9.166  0.7213  0.8601 -0.6287
35187SOL    HW217541   3.401   2.889   9.304  0.2328 -0.4537 -1.2452
35188SOL     OW17542   8.230  10.668   0.596  0.3464  0.3525  0.0172
35188SOL    HW117543   8.309  10.623   0.628  0.6084 -0.2654 -1.4291
35188SOL    HW217544   8.256  10.760   0.588  0.9190  0.1637 -0.3893
35189SOL     OW17545   7.299   5.861   8.465 -0.2512 -0.2079  0.5202
35189SOL    HW117546   7.309   5.766   8.465 -0.4632 -0.2804 -1.4158
35189SOL    HW217547   7.334   5.890   8.549  0.7347 -1.9125  0.7296
35190SOL     OW17548   3.514   4.389   2.912  0.0230 -0.3007 -0.1373
35190SOL    HW117549   3.573   4.335   2.860  1.0828  0.1234  0.5806
35190SOL    HW217550   3.559   4.399   2.996  0.2794  2.3417 -0.5091
35191SOL     OW17551  10.516   6.451   1.404  0.0925  0.5157 -0.2469
35191SOL    HW117552  10.454   6.378   1.406  0.5774  0.0670 -1.1021
35191SOL    HW217553  10.474   6.520   1.455 -0.3628 -0.3685  0.6042
35192SOL     OW17554   9.542  11.735  10.712 -0.2151  0.0351  0.5470
35192SOL    HW117555   9.510  11.826  10.707  0.6918  0.3047 -1.1593
35192SOL    HW217556   9.549  11.717  10.806 -1.7144  1.2502  0.9360
35193SOL     OW17557   8.559   0.352   9.427 -0.4396 -0.1395  0.1458
35193SOL    HW117558   8.478   0.315   9.462  0.2689 -1.0572  0.8678
35193SOL    HW217559   8.600   0.280   9.380  0.3952  0.0456  0.5696
35194SOL     OW17560  10.781   0.139   8.588  0.7865 -0.1457 -0.4039
35194SOL    HW117561  10.792   0.222   8.542  0.1515 -0.1213 -0.5145
35194SOL    HW217562  10.696   0.106   8.559  1.2258 -1.0542 -0.7045
35195SOL     OW17563  10.827   5.326   9.836  0.6177 -0.3495 -0.4950
35195SOL    HW117564  10.783   5.404   9.868  0.0615 -0.7757 -0.2077
35195SOL    HW217565  10.770   5.253   9.861  0.3127 -0.7306 -2.1964
35196SOL     OW17566   3.561   6.179  11.023 -0.0451  0.3206  0.4658
35196SOL    HW117567   3.516   6.252  10.980  1.0729  0.2702 -0.8880
35196SOL    HW217568   3.634   6.158  10.964  0.2639 -1.2229  1.3319
35197SOL     OW17569  12.502   6.713   4.432  0.1799  0.4378  0.1391
35197SOL    HW117570  12.426   6.656   4.425 -0.2050  0.8969  0.5080
35197SOL    HW217571  12.473   6.797   4.396  0.4648  0.6559  0.4088
35198SOL     OW17572   1.502   8.003  12.501 -0.0977  0.5007  0.7354
35198SOL    HW117573   1.508   8.074  12.437  0.6993  0.1115  0.3639
35198SOL    HW217574   1.413   8.010  12.536 -0.0653  1.6148  0.6345
35199SOL     OW17575   1.170   4.279   7.698 -0.3726  0.5162  0.1359
35199SOL    HW117576   1.121   4.254   7.776  0.9494 -2.6022  0.1446
35199SOL    HW217577   1.133   4.224   7.628 -1.9926  3.7022 -1.7200
35200SOL     OW17578  12.408   2.809  10.791 -0.0300 -0.7251  0.2158
35200SOL    HW117579  12.375   2.813  10.880 -0.5882 -0.7744  0.0186
35200SOL    HW217580  12.343   2.756  10.744  1.1062 -2.1146  0.1494
35201SOL     OW17581   5.969   1.267  13.838  0.1887  0.3391 -0.3217
35201SOL    HW117582   5.902   1.277  13.907  0.4359 -0.2972  0.0146
35201SOL    HW217583   6.040   1.325  13.866  0.7282 -0.6934  0.5230
35202SOL     OW17584  12.113  10.883   0.490 -0.4267  0.2361  0.0840
35202SOL    HW117585  12.051  10.918   0.426  0.8188  0.1528 -1.2034
35202SOL    HW217586  12.186  10.945   0.489 -0.6267  0.5769  1.9061
35203SOL     OW17587   2.240   1.431   9.774 -0.2931  0.6639 -0.7201
35203SOL    HW117588   2.234   1.527   9.774 -1.7023  0.6002 -0.0183
35203SOL    HW217589   2.203   1.405   9.858  2.0120 -0.4269  0.0384
35204SOL     OW17590   8.537   9.116  10.822  0.2083 -0.3636  0.1179
35204SOL    HW117591   8.571   9.192  10.774  1.6709 -0.4099  0.9967
35204SOL    HW217592   8.464   9.084  10.769  0.5188  0.7565 -1.0343
35205SOL     OW17593  13.652   9.697   1.638  0.4511  0.3067 -0.0270
35205SOL    HW117594  13.711   9.705   1.563  0.5354  0.3611  0.0448
35205SOL    HW217595  13.588   9.767   1.626  1.0515  0.9631  0.4790
35206SOL     OW17596   7.645   0.038  13.958  0.6745  0.2425 -0.4205
35206SOL    HW117597   7.569  -0.005  13.920  0.7293  0.0175 -0.2765
35206SOL    HW217598   7.672   0.102  13.892 -0.6263  1.4916  0.2201
35207SOL     OW17599   8.375   0.415   7.861 -0.1512 -0.2274  0.2143
35207SOL    HW117600   8.357   0.411   7.955  0.2946 -2.1622  0.2554
35207SOL    HW217601   8.460   0.460   7.855  0.1120 -0.6317  0.8014
35208SOL     OW17602  13.320   7.635   4.058  0.4752  0.0915 -0.2345
35208SOL    HW117603  13.411   7.605   4.063 -0.1142 -1.7023  0.9424
35208SOL    HW217604  13.272   7.559   4.024 -0.9292  0.0478  1.6776
35209SOL     OW17605   7.288   4.127  10.379  0.3890  0.1006 -0.6626
35209SOL    HW117606   7.265   4.193  10.445 -1.0512  0.4262 -1.4528
35209SOL    HW217607   7.288   4.044  10.427  1.5639  0.5573  0.1989
35210SOL     OW17608   0.356   9.800   1.636  0.0550 -0.3702  0.1767
35210SOL    HW117609   0.291   9.776   1.571  1.7904 -0.1948 -1.7219
35210SOL    HW217610   0.329   9.754   1.715 -2.1885 -0.4966 -0.6053
35211SOL     OW17611  13.235   9.331  10.439 -0.1129  0.0117  0.2668
35211SOL    HW117612  13.185   9.256  10.470  1.7606 -0.9158  1.2128
35211SOL    HW217613  13.310   9.336  10.499  1.1885  1.0247 -1.3680
35212SOL     OW17614  13.269   8.272   1.429 -0.3615  0.2101  0.0503
35212SOL    HW117615  13.204   8.337   1.400  0.0460  0.7672  0.3657
35212SOL    HW217616  13.293   8.225   1.349 -2.1892 -0.9815  0.1356
35213SOL     OW17617  12.114  12.418   8.247 -0.2335 -0.1703 -0.0443
35213SOL    HW117618  12.145  12.505   8.221  0.1786 -0.6895 -1.4048
35213SOL    HW217619  12.193  12.364   8.248 -0.4354 -0.4626  1.1293
35214SOL     OW17620   5.046   0.964  10.607  0.5136  0.6217 -0.6904
35214SOL    HW117621   5.007   0.933  10.688  2.6153  1.5567  0.7472
35214SOL    HW217622   5.124   0.911  10.595  0.1332  0.3437 -2.2642
35215SOL     OW17623   0.944   6.693  13.743 -0.0259  0.2838 -0.5114
35215SOL    HW117624   1.012   6.625  13.748 -0.8539 -0.5117  0.4764
35215SOL    HW217625   0.867   6.647  13.707  0.0401  1.2648 -2.0003
35216SOL     OW17626   3.354  10.828   5.745 -0.2206  0.3644  0.3503
35216SOL    HW117627   3.401  10.910   5.734  2.3598 -1.0122  0.4072
35216SOL    HW217628   3.279  10.836   5.686  0.5746  2.3055 -0.4924
35217SOL     OW17629   3.700  10.415  11.632 -0.0063  0.5862  0.0454
35217SOL    HW117630   3.657  10.498  11.610  0.5116  0.7559 -0.3226
35217SOL    HW217631   3.789  10.424  11.598 -0.3894 -0.7287 -1.3818
35218SOL     OW17632   1.006   7.850   2.338 -0.2547 -0.5979 -0.0001
35218SOL    HW117633   0.990   7.944   2.335 -0.0760 -0.4715  1.8083
35218SOL    HW217634   0.989   7.826   2.429  1.7935 -1.9158  0.0976
35219SOL     OW17635   9.209   6.060   7.061 -0.8272 -0.0465  0.4756
35219SOL    HW117636   9.132   6.061   7.117 -1.0442  0.2918  0.1798
35219SOL    HW217637   9.221   6.151   7.035 -1.0686 -0.2688 -0.4756
35220SOL     OW17638   2.047   2.059   9.001 -0.1330  0.1561 -0.2110
35220SOL    HW117639   2.140   2.041   9.013 -0.6249 -2.0487  0.8820
35220SOL    HW217640   2.030   2.037   8.909 -0.3842 -4.2316  0.6771
35221SOL     OW17641   4.006   9.683   2.077 -0.0042 -0.6911  0.0823
35221SOL    HW117642   4.065   9.609   2.093 -0.8096 -1.4193 -0.2246
35221SOL    HW217643   4.064   9.759   2.073  0.7450 -1.1677  1.3210
35222SOL     OW17644  11.955  11.411  12.602 -0.1063  0.0165  0.8138
35222SOL    HW117645  11.993  11.472  12.665  1.3680  0.8921 -0.8465
35222SOL    HW217646  11.929  11.465  12.528 -0.6270 -1.1275  0.1276
35223SOL     OW17647   9.439   8.377   8.576 -0.6345 -0.3965 -0.4389
35223SOL    HW117648   9.421   8.368   8.669  2.0134 -0.1759  0.1589
35223SOL    HW217649   9.515   8.320   8.561  1.8666  2.9042 -1.4427
35224SOL     OW17650   4.240   1.153   9.143 -0.4940  0.5183  0.2066
35224SOL    HW117651   4.223   1.116   9.056 -1.4340  1.2274  0.0729
35224SOL    HW217652   4.163   1.131   9.194 -0.5743  1.3181  0.4456
35225SOL     OW17653   5.687  11.441  12.939 -0.0287  0.1450 -0.0351
35225SOL    HW117654   5.693  11.446  12.844  1.5762  3.5834  0.1024
35225SOL    HW217655   5.613  11.497  12.962  0.3091  0.2608  0.8009
35226SOL     OW17656  13.129   9.621   0.134  0.1548  0.3613 -0.0273
35226SOL    HW117657  13.125   9.674   0.214 -0.2489  1.7986 -0.9530
35226SOL    HW217658  13.222   9.606   0.120  0.2651  0.6671  0.3487
35227SOL     OW17659   8.602  13.726   3.298  0.0421  0.2917  0.3503
35227SOL    HW117660   8.664  13.728   3.224 -0.3300 -2.6350 -0.1575
35227SOL    HW217661   8.517  13.744   3.259 -0.0255 -0.2944  0.2218
35228SOL     OW17662  10.831  11.322  12.319 -0.4355  0.3717  0.1729
35228SOL    HW117663  10.754  11.365  12.355 -1.1358  1.1645 -2.1609
35228SOL    HW217664  10.887  11.393  12.288  0.4176 -0.2622  0.2215
35229SOL     OW17665   1.085   2.337   0.489  0.3618  0.2117 -0.6416
35229SOL    HW117666   1.054   2.369   0.573 -0.9527 -0.8531 -0.6923
35229SOL    HW217667   1.138   2.409   0.453  1.5522  0.4073  1.3866
35230SOL     OW17668   2.073  12.939   7.085  0.1464 -0.9565 -0.7215
35230SOL    HW117669   2.154  12.988   7.071 -0.8766  0.8440 -0.6444
35230SOL    HW217670   2.060  12.942   7.180 -1.3248  1.1022 -0.9201
35231SOL     OW17671   5.581  10.784  10.566 -0.3825  0.4264  0.8356
35231SOL    HW117672   5.498  10.826  10.539  0.3543  0.7724 -1.1115
35231SOL    HW217673   5.628  10.853  10.613 -0.8306  0.5198  1.1499
35232SOL     OW17674   6.245   6.751  13.271  0.5385 -0.3481  0.0724
35232SOL    HW117675   6.290   6.829  13.238 -0.8723  0.1979 -0.6820
35232SOL    HW217676   6.270   6.745  13.363  1.7670  0.1709 -0.2065
35233SOL     OW17677   0.558   0.377   4.865 -0.2014  1.4190  0.4691
35233SOL    HW117678   0.637   0.333   4.834 -0.1890  1.8021 -0.0547
35233SOL    HW217679   0.586   0.420   4.946 -0.5182 -0.4916  1.6458
35234SOL     OW17680   9.787  13.466   0.151  0.0256  0.5419 -0.1356
35234SOL    HW117681   9.864  13.415   0.175 -1.5372 -1.7458  0.2538
35234SOL    HW217682   9.768  13.519   0.228  0.0778 -0.3351  0.4882
35235SOL     OW17683  11.935   0.622   3.149  0.4297 -0.0049  0.2293
35235SOL    HW117684  11.995   0.697   3.150 -0.0882  0.4894 -1.5278
35235SOL    HW217685  11.850   0.659   3.175  0.2037  0.0080 -0.5041
35236SOL     OW17686   6.584  13.926  10.827 -0.0338  0.5711 -0.5534
35236SOL    HW117687   6.662  13.938  10.882 -0.6339  1.6000  0.1091
35236SOL    HW217688   6.524  13.875  10.881 -0.3491  0.9714 -0.5245
35237SOL     OW17689   7.680   0.153   7.883  0.1223  0.2436  0.5822
35237SOL    HW117690   7.726   0.196   7.811  1.1516 -1.2920  0.2666
35237SOL    HW217691   7.741   0.158   7.957 -0.1398  0.1667  0.8055
35238SOL     OW17692   7.793   0.567   4.084  0.1095  0.4382  0.1407
35238SOL    HW117693   7.862   0.624   4.050 -1.4578  2.2230 -0.2215
35238SOL    HW217694   7.765   0.609   4.166 -0.3019 -0.4515  0.4733
35239SOL     OW17695  10.271   3.188   6.727 -0.1264 -0.0861 -0.2832
35239SOL    HW117696  10.333   3.228   6.788 -0.2479 -1.6856  0.9432
35239SOL    HW217697  10.191   3.240   6.737  0.5361  1.0634 -0.7761
35240SOL     OW17698   3.131  10.804  10.524  0.1548 -0.1564 -0.4558
35240SOL    HW117699   3.085  10.811  10.608  0.2177  1.7190 -0.5477
35240SOL    HW217700   3.224  10.808  10.546  0.2780 -2.1792 -0.4306
35241SOL     OW17701   1.088   2.474   7.426  1.0817 -0.2832 -0.3193
35241SOL    HW117702   1.134   2.392   7.446  0.9273 -0.0378  1.1270
35241SOL    HW217703   1.000   2.446   7.400  1.4172 -0.6415 -1.0896
35242SOL     OW17704   5.753   0.844  11.255  0.1717 -0.2104  0.3390
35242SOL    HW117705   5.764   0.853  11.350  2.0619  0.3770  0.0868
35242SOL    HW217706   5.836   0.809  11.224 -0.4761 -0.5434 -1.0996
35243SOL     OW17707   2.742   5.752   3.384 -0.2346  0.6799 -0.7122
35243SOL    HW117708   2.726   5.845   3.373 -0.1209  0.9815  1.3463
35243SOL    HW217709   2.659   5.717   3.417 -0.8750 -0.3456 -3.1143
35244SOL     OW17710   5.338   4.438   9.876 -0.0278 -0.2318 -0.3535
35244SOL    HW117711   5.321   4.505   9.809  0.0842  1.1302  0.9378
35244SOL    HW217712   5.277   4.458   9.946  1.9383  0.3314  1.2939
35245SOL     OW17713  13.667   1.763   0.320  0.1554 -0.2948  0.1076
35245SOL    HW117714  13.613   1.702   0.370  0.7307  0.5810  1.8644
35245SOL    HW217715  13.702   1.710   0.248 -1.8395 -1.2357 -0.2501
35246SOL     OW17716  10.157   7.068   9.906 -0.3155 -0.2872  0.4118
35246SOL    HW117717  10.087   7.116   9.861  0.9667  0.6441 -0.6886
35246SOL    HW217718  10.213   7.036   9.835  1.4943  0.7844  1.2635
35247SOL     OW17719   9.363   9.193   8.800  0.3901 -0.2127 -0.4485
35247SOL    HW117720   9.383   9.265   8.860  0.0054 -0.9661  0.6311
35247SOL    HW217721   9.369   9.114   8.855 -0.3542 -0.8971 -1.3162
35248SOL     OW17722   1.538   7.403   0.356 -0.0059  0.0533  0.4473
35248SOL    HW117723   1.468   7.430   0.296 -0.3013 -0.4372  0.5623
35248SOL    HW217724   1.553   7.311   0.334  0.2217  0.0050  0.8019
35249SOL     OW17725  11.994   0.084  13.146  0.3402  0.1293  0.0150
35249SOL    HW117726  12.085   0.087  13.117  0.9571  0.2094  1.8739
35249SOL    HW217727  11.981  -0.007  13.173  0.1228  0.3207  0.5475
35250SOL     OW17728   5.785  12.248   1.553  0.7667  0.3264  0.1964
35250SOL    HW117729   5.748  12.305   1.485 -0.6305 -0.5643  0.1681
35250SOL    HW217730   5.850  12.195   1.507  0.7761  0.6537 -0.1683
35251SOL     OW17731   3.445   8.096  12.424  0.2945 -0.1008 -0.2323
35251SOL    HW117732   3.400   8.179  12.440 -0.1082 -0.0439 -1.5284
35251SOL    HW217733   3.390   8.030  12.466  0.2351  0.2002  0.1728
35252SOL     OW17734  12.780  11.385   3.438  0.7504 -0.6803 -0.2284
35252SOL    HW117735  12.826  11.407   3.356  0.5158  0.3863 -0.0920
35252SOL    HW217736  12.688  11.377   3.412  0.4821  0.9312  0.1209
35253SOL     OW17737   6.659   4.727   7.459  0.1989 -0.1424 -0.0853
35253SOL    HW117738   6.599   4.694   7.526  0.2713  1.5218  0.8582
35253SOL    HW217739   6.617   4.705   7.376 -2.0958  1.5188  0.5438
35254SOL     OW17740  12.163   3.173   8.388  0.0356 -0.1631  0.4410
35254SOL    HW117741  12.116   3.091   8.401 -0.3106 -0.3147 -1.4751
35254SOL    HW217742  12.106   3.224   8.330  0.7788  0.9656  0.6666
35255SOL     OW17743   7.153   5.807   0.056 -0.2127 -0.3979  0.3255
35255SOL    HW117744   7.215   5.872   0.023 -0.3159 -1.2788 -1.7892
35255SOL    HW217745   7.091   5.857   0.109 -0.2752  1.2408 -1.2115
35256SOL     OW17746   1.082  10.986   1.079 -0.2911 -0.1540  0.3367
35256SOL    HW117747   1.152  11.032   1.124 -0.0011 -0.9695  0.7369
35256SOL    HW217748   1.114  10.973   0.990 -0.2841  0.2178  0.2854
35257SOL     OW17749   9.804   2.260   2.758 -0.7023 -0.3106  0.1328
35257SOL    HW117750   9.779   2.259   2.850  0.6997 -0.2206  0.5426
35257SOL    HW217751   9.857   2.181   2.746  0.2342  0.3493 -0.2485
35258SOL     OW17752  10.482   6.254  11.049 -0.6860 -0.0053 -0.0863
35258SOL    HW117753  10.476   6.168  11.092 -0.6003 -0.0719 -0.2059
35258SOL    HW217754  10.570   6.285  11.070 -1.6875  1.4256  2.5084
35259SOL     OW17755  12.289  11.639  13.990 -0.1728  0.7150  0.8521
35259SOL    HW117756  12.338  11.657  13.910 -0.8227  0.5693  0.4088
35259SOL    HW217757  12.355  11.631  14.059  0.5027 -0.5720  0.0772
35260SOL     OW17758  13.426   5.940   4.143 -0.0097  0.5968 -0.3580
35260SOL    HW117759  13.394   5.935   4.053  0.5932  3.2615 -0.8199
35260SOL    HW217760  13.351   5.917   4.196 -1.0476  1.1634 -1.5243
35261SOL     OW17761   7.165   0.821   4.199  0.3789 -0.1306  0.0013
35261SOL    HW117762   7.136   0.866   4.121 -0.5627 -0.0645  0.3724
35261SOL    HW217763   7.260   0.832   4.201  0.6564 -1.6355 -2.0672
35262SOL     OW17764   3.597   7.316   7.091 -0.3141  0.7415 -0.6101
35262SOL    HW117765   3.591   7.411   7.087 -0.4145  0.7111 -1.4858
35262SOL    HW217766   3.507   7.286   7.077 -0.3812  0.5254  0.2520
35263SOL     OW17767   0.672   6.670   5.793  0.2444  0.2373 -0.2195
35263SOL    HW117768   0.728   6.629   5.727  1.1735 -0.5045  0.9846
35263SOL    HW217769   0.705   6.759   5.801  0.3284  0.2353 -0.5232
35264SOL     OW17770   8.220   5.339  10.114  0.1679  0.3812 -0.5945
35264SOL    HW117771   8.131   5.315  10.141  0.1458  0.5523 -0.5149
35264SOL    HW217772   8.262   5.368  10.195 -0.1306  1.6020 -0.8606
35265SOL     OW17773   8.257  10.498  11.468  0.1046  0.0282  0.3071
35265SOL    HW117774   8.165  10.484  11.492  0.0117  1.4897  0.9105
35265SOL    HW217775   8.307  10.471  11.545  0.2938 -1.9001 -0.4463
35266SOL     OW17776   6.934  10.827   8.635  0.2571  0.1249  0.1361
35266SOL    HW117777   6.903  10.845   8.724  1.5978  0.0941  0.6326
35266SOL    HW217778   7.006  10.888   8.621  0.7566 -0.5960 -0.5280
35267SOL     OW17779   6.334   8.984   3.675  0.3442 -0.2600 -0.0860
35267SOL    HW117780   6.340   9.067   3.628  1.4541  0.8206  1.7984
35267SOL    HW217781   6.390   8.924   3.626  0.2219  0.3616 -0.9998
35268SOL     OW17782  12.052  13.394   3.781 -0.1941 -0.0144  0.3960
35268SOL    HW117783  12.141  13.376   3.811 -0.4154 -2.9277 -0.3903
35268SOL    HW217784  12.055  13.377   3.687 -1.3216  1.1045  0.1403
35269SOL     OW17785  13.068  12.175  12.419 -0.0136  0.2832  0.4151
35269SOL    HW117786  13.144  12.171  12.477 -0.1423  0.4286  0.5929
35269SOL    HW217787  12.996  12.203  12.475 -0.3658 -0.5922  0.4176
35270SOL     OW17788  10.060  13.167   2.279 -0.3947 -0.0692  0.4974
35270SOL    HW117789  10.029  13.159   2.189  0.7640 -1.1741  0.1628
35270SOL    HW217790  10.107  13.250   2.282  0.5152 -0.5451 -0.2403
35271SOL     OW17791  12.817  13.239   9.108 -0.0603  0.2340  0.4781
35271SOL    HW117792  12.796  13.309   9.045  0.1949 -1.6268 -1.7828
35271SOL    HW217793  12.732  13.201   9.130  0.0571 -0.9703 -1.0394
35272SOL     OW17794  10.459   7.057   3.504 -0.1079 -0.1911 -0.2754
35272SOL    HW117795  10.450   6.965   3.480 -1.2213 -0.4913  1.2021
35272SOL    HW217796  10.526   7.090   3.445 -0.1723 -1.7755 -1.2952
35273SOL     OW17797  12.773  11.407  10.152  0.0595 -0.5948 -0.2902
35273SOL    HW117798  12.789  11.312  10.153 -1.3472 -0.9167 -2.2266
35273SOL    HW217799  12.679  11.415  10.168  0.2065  0.5049  0.0770
35274SOL     OW17800  12.904   6.161   5.385  0.1589  0.4780  0.1952
35274SOL    HW117801  12.951   6.209   5.452  0.8837 -1.1872  0.9269
35274SOL    HW217802  12.956   6.174   5.305 -0.5207  2.1728 -0.0185
35275SOL     OW17803   1.434   4.107   5.583 -0.0193  0.4207 -0.7497
35275SOL    HW117804   1.508   4.067   5.629 -0.2919  0.5183 -0.2115
35275SOL    HW217805   1.474   4.157   5.512  0.4757  0.9379 -0.1225
35276SOL     OW17806   2.011  13.573  11.190  0.2800 -0.5664  0.2469
35276SOL    HW117807   2.002  13.494  11.243 -1.7019 -1.0033 -0.6399
35276SOL    HW217808   1.973  13.550  11.106 -0.4347  1.3566 -0.0121
35277SOL     OW17809   2.359   3.716   2.661 -0.6947 -0.2011 -0.1481
35277SOL    HW117810   2.337   3.788   2.602 -0.5903 -1.4539 -1.7825
35277SOL    HW217811   2.455   3.715   2.662 -0.5671 -2.3434 -2.8764
35278SOL     OW17812   8.809   0.528   1.654 -0.1109 -0.3691 -0.2600
35278SOL    HW117813   8.817   0.598   1.719 -0.7411 -1.3708  0.9231
35278SOL    HW217814   8.719   0.536   1.622  0.2549  0.2437 -1.1831
35279SOL     OW17815   5.997   3.703  10.576 -0.1659  0.4474 -0.1887
35279SOL    HW117816   5.972   3.792  10.551 -0.9970 -0.2586 -2.0547
35279SOL    HW217817   6.084   3.713  10.615 -0.1764  2.0654 -0.4985
35280SOL     OW17818   9.368  12.193   9.248  0.0405 -0.4542 -0.9396
35280SOL    HW117819   9.323  12.247   9.184  1.9743  2.6808  0.1259
35280SOL    HW217820   9.450  12.239   9.266  0.0012 -1.5197  3.1317
35281SOL     OW17821  13.579   3.088   0.269  0.2284  0.3309  0.3714
35281SOL    HW117822  13.538   3.003   0.288  0.9375 -0.4041 -1.2063
35281SOL    HW217823  13.506   3.147   0.254 -0.2692 -0.4033 -0.1563
35282SOL     OW17824   4.046  13.798  10.764  0.4576  0.0542 -0.7566
35282SOL    HW117825   4.092  13.774  10.844 -1.5720 -0.9223  0.1924
35282SOL    HW217826   3.988  13.870  10.790  1.1518  1.0182 -1.8240
35283SOL     OW17827   2.284  10.742   8.113 -0.0347 -0.9656  0.5365
35283SOL    HW117828   2.315  10.730   8.203 -1.3096 -1.7932  0.8878
35283SOL    HW217829   2.232  10.663   8.094 -2.5256  0.6325  0.2532
35284SOL     OW17830   1.899   0.613   1.503  0.2027  0.1801 -0.0998
35284SOL    HW117831   1.963   0.644   1.438  1.4276 -2.3748 -0.2220
35284SOL    HW217832   1.814   0.638   1.466  1.0110  2.4469 -0.6054
35285SOL     OW17833  11.921   1.163   9.936 -0.3823  0.4873 -0.1586
35285SOL    HW117834  11.870   1.124  10.007 -0.5456  0.5247 -0.2537
35285SOL    HW217835  12.004   1.187   9.976 -0.0028 -0.6142 -0.2754
35286SOL     OW17836   2.058   4.223   8.330 -0.7435  0.8291  0.5448
35286SOL    HW117837   2.063   4.250   8.422 -0.3372 -0.5000  0.9351
35286SOL    HW217838   2.085   4.131   8.331  1.8474  1.4474 -1.2435
35287SOL     OW17839   8.053  12.643   2.024  0.2320  0.0951  0.6287
35287SOL    HW117840   8.013  12.685   2.100  1.6068 -0.8677  1.9425
35287SOL    HW217841   7.982  12.596   1.982 -0.5846  0.7567  1.2273
35288SOL     OW17842   5.331  11.247   0.922  0.1632  0.0901  0.2226
35288SOL    HW117843   5.406  11.282   0.874 -0.6314  1.8778  0.2025
35288SOL    HW217844   5.296  11.322   0.969 -0.5224 -1.1157  1.7083
35289SOL     OW17845   9.021   4.225   2.831  0.1961 -0.1664 -0.4090
35289SOL    HW117846   8.999   4.281   2.757 -0.4600  0.7404  0.4372
35289SOL    HW217847   8.978   4.142   2.813 -1.2301  0.5380 -0.3259
35290SOL     OW17848   6.923   2.090   2.451 -0.9568  0.6780 -0.0345
35290SOL    HW117849   6.830   2.107   2.442 -0.8276  1.1398 -0.5388
35290SOL    HW217850   6.946   2.039   2.374 -0.8964  0.1029  0.3592
35291SOL     OW17851  12.658   9.586   1.255 -0.4742  0.4469 -0.1630
35291SOL    HW117852  12.728   9.526   1.281 -1.0176 -0.4770 -0.7859
35291SOL    HW217853  12.601   9.534   1.198 -0.9591  1.5607 -0.7246
35292SOL     OW17854   7.249   0.156   7.637 -0.1920  0.1350 -0.1114
35292SOL    HW117855   7.233   0.221   7.705 -1.3604 -0.8390  0.5948
35292SOL    HW217856   7.217   0.197   7.557  0.1374  0.8571  0.1209
35293SOL     OW17857   2.201   9.218   6.217 -0.3923 -0.8303  0.4002
35293SOL    HW117858   2.108   9.240   6.225  0.1460  1.4037  1.2527
35293SOL    HW217859   2.226   9.255   6.132  0.1317  0.2947  1.0342
35294SOL     OW17860   0.447   5.062   3.331 -0.0926 -0.2565 -0.0653
35294SOL    HW117861   0.406   4.994   3.385 -0.4561  0.6284  0.8070
35294SOL    HW217862   0.374   5.108   3.290  0.1048  0.1801  0.0672
35295SOL     OW17863   6.698   9.670  12.178  0.2260 -0.0913 -0.3964
35295SOL    HW117864   6.636   9.740  12.200  0.0689 -0.6508  1.0279
35295SOL    HW217865   6.653   9.618  12.112 -0.5744 -0.1103  0.1457
35296SOL     OW17866   7.631   2.657  13.937 -0.1282 -0.2559  0.3611
35296SOL    HW117867   7.573   2.698  13.873  0.7880  0.4758 -0.0299
35296SOL    HW217868   7.682   2.593  13.886  0.0963 -0.1857  0.4941
35297SOL     OW17869   9.795  11.247   7.507  0.1337 -0.3879  0.7114
35297SOL    HW117870   9.793  11.237   7.412  1.3435  0.0420  0.6304
35297SOL    HW217871   9.765  11.337   7.522 -0.4234 -0.5783  0.7714
35298SOL     OW17872  11.267   8.480   3.883  0.5576  0.1863 -0.0186
35298SOL    HW117873  11.276   8.487   3.978  1.3610 -3.5487  0.3145
35298SOL    HW217874  11.172   8.471   3.869  0.5161 -0.4265  0.5859
35299SOL     OW17875   9.724   0.398   1.812  0.2196  0.3577 -0.5588
35299SOL    HW117876   9.791   0.341   1.848  0.2906  0.0806 -1.1274
35299SOL    HW217877   9.644   0.345   1.813  0.2064  0.3727 -0.7368
35300SOL     OW17878   0.292   8.353   1.841 -0.2427 -0.0259 -0.2769
35300SOL    HW117879   0.305   8.272   1.791  0.2426 -0.2074  0.1332
35300SOL    HW217880   0.228   8.403   1.790 -1.8762 -1.4146  0.3148
35301SOL     OW17881   5.213   2.973   5.637  0.0449 -0.1478  0.1098
35301SOL    HW117882   5.172   2.987   5.722 -1.8778 -1.7561 -0.4730
35301SOL    HW217883   5.252   2.886   5.643 -1.4588 -0.9588 -1.0806
35302SOL     OW17884  11.479   4.452   7.450  0.1972 -0.3179  0.1116
35302SOL    HW117885  11.425   4.453   7.529  1.2582 -0.3186  0.8536
35302SOL    HW217886  11.562   4.413   7.478  1.1543  1.1294 -0.6006
35303SOL     OW17887   0.716   3.593  10.657 -0.2013 -0.1263 -0.1346
35303SOL    HW117888   0.634   3.638  10.679 -0.3433  0.5980 -1.9579
35303SOL    HW217889   0.689   3.520  10.602  0.3786  0.1074 -0.7369
35304SOL     OW17890  11.909   4.296   2.822  0.3369 -0.0607  0.1299
35304SOL    HW117891  11.884   4.374   2.772 -0.4294 -0.3551  0.0404
35304SOL    HW217892  11.876   4.223   2.770  0.3038 -0.4088  0.6327
35305SOL     OW17893   5.821   5.874  10.081 -0.1666  0.3796  0.0052
35305SOL    HW117894   5.759   5.937  10.116 -2.3079 -0.5968 -1.7901
35305SOL    HW217895   5.810   5.796  10.136 -2.0663 -0.4614 -1.4465
35306SOL     OW17896   8.090   5.606   4.532  0.0313 -0.2192  0.1265
35306SOL    HW117897   8.006   5.566   4.554 -1.3509  1.3133 -1.9485
35306SOL    HW217898   8.110   5.662   4.607  0.1881 -1.9601  1.4478
35307SOL     OW17899   3.384  10.335   1.639  0.0886  0.0534 -0.0896
35307SOL    HW117900   3.433  10.344   1.557 -0.5541 -0.4311 -0.5289
35307SOL    HW217901   3.393  10.243   1.662 -0.9463 -0.1287 -0.3873
35308SOL     OW17902  10.198   1.593   2.963  0.1543 -0.1580  0.6037
35308SOL    HW117903  10.278   1.552   2.997  1.3138 -0.9720 -2.6868
35308SOL    HW217904  10.230   1.670   2.916 -1.1171  0.0255  0.0138
35309SOL     OW17905   2.639   9.526   8.615 -0.0023  0.0381 -0.2176
35309SOL    HW117906   2.559   9.506   8.665  0.1631  2.5010  1.2081
35309SOL    HW217907   2.688   9.444   8.615 -1.2103 -0.7569  1.4813
35310SOL     OW17908   6.212   0.371  13.938  0.5883 -0.6162  0.2587
35310SOL    HW117909   6.203   0.368  13.843  0.3842  0.3634  0.2404
35310SOL    HW217910   6.122   0.382  13.970  0.5732 -1.6579  0.6047
35311SOL     OW17911   6.117   4.455   2.416 -0.0053  0.0542  0.3965
35311SOL    HW117912   6.079   4.542   2.408  0.7942  0.3314 -0.5830
35311SOL    HW217913   6.211   4.469   2.405 -0.0076 -1.1145 -1.4637
35312SOL     OW17914   4.710  12.018   7.141 -0.2153  0.2625 -0.8584
35312SOL    HW117915   4.642  11.980   7.086 -1.9993  2.3927 -0.2494
35312SOL    HW217916   4.789  12.015   7.087 -1.7987  1.8844 -3.4114
35313SOL     OW17917   1.754  12.511  13.691 -0.5870 -0.8994 -0.0417
35313SOL    HW117918   1.741  12.559  13.609  0.1118  0.0616  0.3931
35313SOL    HW217919   1.744  12.577  13.760  2.8578 -0.7343  0.4875
35314SOL     OW17920   3.889   2.786  12.733 -0.2505 -0.6198  0.3682
35314SOL    HW117921   3.879   2.704  12.782 -1.5158 -1.9111 -1.8832
35314SOL    HW217922   3.980   2.785  12.702 -0.0744 -0.8411  0.8869
35315SOL     OW17923   2.838   7.904   2.433  0.3579 -0.5297  0.2676
35315SOL    HW117924   2.747   7.876   2.443 -0.0843  1.1417  1.2865
35315SOL    HW217925   2.860   7.945   2.516  0.7986  2.4638 -1.1927
35316SOL     OW17926  12.267   3.631   9.633  0.1883  0.2737 -0.2032
35316SOL    HW117927  12.187   3.580   9.618  0.3208 -0.0993  0.3200
35316SOL    HW217928  12.236   3.719   9.653 -0.1744 -0.1549  1.2530
35317SOL     OW17929   4.671  11.082  11.972  0.3379  0.7476 -0.0831
35317SOL    HW117930   4.611  11.057  12.042  0.5941 -1.6812 -0.6430
35317SOL    HW217931   4.627  11.154  11.927 -1.0121  0.6480  1.0222
35318SOL     OW17932   9.574   8.410   1.953  0.1745 -0.4366  0.4138
35318SOL    HW117933   9.503   8.432   1.893  0.1714  0.6547  0.8052
35318SOL    HW217934   9.531   8.358   2.022 -0.0750 -0.5246  0.1965
35319SOL     OW17935   8.467   8.377  10.387  0.2692  0.1917  0.0159
35319SOL    HW117936   8.537   8.421  10.338 -0.2625  0.2380 -0.7227
35319SOL    HW217937   8.407   8.447  10.410  0.2592  0.0911  0.2928
35320SOL     OW17938   4.703  11.713  10.041  0.1551  0.1455 -0.5077
35320SOL    HW117939   4.768  11.658  10.084  0.8927  0.5936 -1.0122
35320SOL    HW217940   4.673  11.661   9.967  0.3827  0.1687 -0.6169
35321SOL     OW17941   6.287   5.780   7.944  0.4152  0.1208 -0.3427
35321SOL    HW117942   6.376   5.745   7.956  0.1785 -0.6699 -0.8260
35321SOL    HW217943   6.293   5.832   7.864  0.1639 -0.9680 -1.0974
35322SOL     OW17944   5.614  11.605  13.759 -0.2535 -0.8521 -0.3992
35322SOL    HW117945   5.709  11.619  13.757 -0.3585 -0.1872 -2.0940
35322SOL    HW217946   5.605  11.510  13.771  0.5848 -0.8162  0.7811
35323SOL     OW17947   2.261   6.050   4.519  0.5300  0.1567  0.1103
35323SOL    HW117948   2.195   6.009   4.575  1.3143 -0.4429  0.6060
35323SOL    HW217949   2.252   6.144   4.535 -0.0937  0.0704  0.2857
35324SOL     OW17950  13.679   7.187  10.635 -0.1132  0.2712 -0.4280
35324SOL    HW117951  13.707   7.241  10.561 -1.0588  1.4159  0.0053
35324SOL    HW217952  13.595   7.150  10.607 -0.6745  1.0331  0.1902
35325SOL     OW17953  12.101   3.303  10.436  0.7426  0.2193  0.2663
35325SOL    HW117954  12.095   3.328  10.529  0.1544 -1.2336  0.6404
35325SOL    HW217955  12.063   3.215  10.432  0.3676  0.4267 -1.4342
35326SOL     OW17956   3.729   0.651   0.481  0.2374  0.6785  0.1304
35326SOL    HW117957   3.731   0.745   0.463  1.1405  0.6513  0.0287
35326SOL    HW217958   3.766   0.611   0.402 -1.1968  0.1530 -0.2951
35327SOL     OW17959   3.453  10.623   8.212 -0.1845 -0.2559 -0.4772
35327SOL    HW117960   3.400  10.701   8.229 -1.8187 -1.5576  0.7490
35327SOL    HW217961   3.528  10.656   8.163 -0.0757  2.3038  1.1932
35328SOL     OW17962   8.311   9.517  11.502 -0.4266  0.4232  0.1227
35328SOL    HW117963   8.222   9.502  11.469 -0.8886  0.6375  1.2249
35328SOL    HW217964   8.303   9.506  11.597  1.1361 -1.6527  0.0982
35329SOL     OW17965  11.286   2.182   6.725 -0.1629  0.2712 -0.5793
35329SOL    HW117966  11.199   2.195   6.688 -0.0504  0.7479 -0.6841
35329SOL    HW217967  11.322   2.271   6.734  0.1735  0.1021 -0.2071
35330SOL     OW17968   5.970   1.983  12.625 -0.5968  0.2342  0.5316
35330SOL    HW117969   5.914   1.930  12.681 -1.0767  0.5426  0.3459
35330SOL    HW217970   6.031   1.920  12.587 -1.5448 -0.2868 -0.1611
35331SOL     OW17971   7.642   4.300  10.876 -0.3492  0.1943  0.8567
35331SOL    HW117972   7.610   4.357  10.946 -1.7101 -0.0784  0.4777
35331SOL    HW217973   7.728   4.271  10.907 -0.6296  0.6090  2.1047
35332SOL     OW17974  10.622   9.735  11.759  0.5609 -0.1594 -0.3306
35332SOL    HW117975  10.693   9.799  11.751  0.6545 -0.0390  1.0692
35332SOL    HW217976  10.543   9.789  11.767  0.6787 -0.1570  1.2215
35333SOL     OW17977  10.719   5.197  11.320 -0.6122  0.4145  0.2171
35333SOL    HW117978  10.687   5.170  11.406  0.0566 -1.6827 -0.1277
35333SOL    HW217979  10.650   5.171  11.259 -0.3843  0.3958 -0.0352
35334SOL     OW17980   3.330  12.733  10.246 -0.1358  0.9068  0.2137
35334SOL    HW117981   3.350  12.748  10.338  2.6662 -0.7285 -0.0120
35334SOL    HW217982   3.414  12.748  10.201 -1.1990  0.7306 -1.9525
35335SOL     OW17983   5.837  12.585   8.644  0.2691  0.2929 -0.3553
35335SOL    HW117984   5.818  12.678   8.636 -0.8008  0.1502  0.2841
35335SOL    HW217985   5.921  12.573   8.599  1.0979  1.7902  0.6998
35336SOL     OW17986   4.568  10.859  10.015 -0.2004  0.2288 -0.2150
35336SOL    HW117987   4.499  10.815   9.965  0.3884 -0.2334 -0.6401
35336SOL    HW217988   4.635  10.878   9.949 -0.5441  2.0065 -0.0936
35337SOL     OW17989   4.067   7.726  10.452  0.4498  0.4807 -0.4166
35337SOL    HW117990   4.075   7.753  10.360 -0.3786 -0.2588 -0.7307
35337SOL    HW217991   4.150   7.683  10.472  1.3409  2.2060 -0.2462
35338SOL     OW17992   3.257   5.301   4.165 -0.0631  0.0098 -0.0172
35338SOL    HW117993   3.176   5.279   4.119 -1.3625  2.0040  1.1306
35338SOL    HW217994   3.284   5.385   4.128  1.0169 -0.2178  0.2189
35339SOL     OW17995  13.927   6.224   6.401  0.3308 -0.1557  0.3539
35339SOL    HW117996  13.998   6.277   6.364 -0.7479  1.8352  0.9380
35339SOL    HW217997  13.911   6.155   6.337  1.4019  0.6135 -0.7698
35340SOL     OW17998   0.242   2.781   2.018  0.4380 -0.1055  0.2661
35340SOL    HW117999   0.157   2.825   2.013  0.8845  0.5820 -1.7542
35340SOL    HW218000   0.304   2.849   2.043  0.5297 -0.4702  1.0895
35341SOL     OW18001   0.657   3.123  10.103 -0.1649  0.2921 -0.3303
35341SOL    HW118002   0.729   3.097  10.046 -0.9602  0.1570 -1.3037
35341SOL    HW218003   0.635   3.044  10.152  0.8346  0.5320  0.5432
35342SOL     OW18004  12.384  13.378   9.016 -0.0876 -0.0192 -0.1278
35342SOL    HW118005  12.417  13.346   8.932  0.6280 -0.0778  0.1635
35342SOL    HW218006  12.290  13.363   9.013  0.2872 -3.1931  0.4047
35343SOL     OW18007   8.290   0.491   6.332 -0.6256 -0.0068  0.0744
35343SOL    HW118008   8.304   0.443   6.250 -1.4820 -0.3197  0.0961
35343SOL    HW218009   8.326   0.578   6.315  1.2174 -0.7134  0.1368
35344SOL     OW18010   4.381   4.783   5.681  0.2657 -0.8177  0.5366
35344SOL    HW118011   4.435   4.832   5.619 -0.5616 -0.7399 -0.1562
35344SOL    HW218012   4.297   4.829   5.681 -0.1229 -1.5053  0.8278
35345SOL     OW18013  11.812   2.350  10.611  0.0552  0.4261 -0.4511
35345SOL    HW118014  11.839   2.269  10.567 -0.2300 -0.3361  0.7058
35345SOL    HW218015  11.766   2.319  10.690  0.5735  1.7333  0.3832
35346SOL     OW18016   6.147  10.710   1.073  0.4211 -0.2639  0.0833
35346SOL    HW118017   6.110  10.778   1.129  2.1478 -0.2422  1.2509
35346SOL    HW218018   6.090  10.634   1.087 -0.1492  0.2447  0.5730
35347SOL     OW18019   2.534   5.216  11.258 -0.4864 -0.1580  0.2392
35347SOL    HW118020   2.514   5.268  11.181 -0.4792 -1.4060 -0.6280
35347SOL    HW218021   2.579   5.277  11.317  0.4618  0.5578 -1.1662
35348SOL     OW18022   6.067   9.788   6.818  0.0443 -0.4533 -0.1761
35348SOL    HW118023   6.074   9.831   6.732 -0.0558 -0.3417 -0.1280
35348SOL    HW218024   6.053   9.696   6.797  0.2130 -0.4568 -0.2799
35349SOL     OW18025   3.587   5.595   7.994  0.4360  0.2062  0.1155
35349SOL    HW118026   3.500   5.557   8.002  0.8259 -1.4998 -2.6729
35349SOL    HW218027   3.576   5.672   7.938  0.8041 -0.3973 -0.7978
35350SOL     OW18028  12.981   9.221   1.106 -0.0666 -0.7863 -0.0988
35350SOL    HW118029  12.889   9.207   1.084 -0.0061 -2.5149  0.5904
35350SOL    HW218030  12.998   9.158   1.177  1.5366 -0.2039  0.0601
35351SOL     OW18031   3.836   4.093  11.148  0.3392 -0.7966  0.0442
35351SOL    HW118032   3.918   4.096  11.197  0.0455 -0.4706  0.5238
35351SOL    HW218033   3.792   4.176  11.168  0.6506 -0.2179 -1.5527
35352SOL     OW18034   2.553   0.062   1.912 -0.5797  0.1745 -0.2731
35352SOL    HW118035   2.571   0.076   2.005 -0.0505  0.2432 -0.3788
35352SOL    HW218036   2.459   0.076   1.903 -0.2727  2.6960 -0.1894
35353SOL     OW18037  11.501   0.806   5.932 -0.1256 -0.2095  0.5965
35353SOL    HW118038  11.583   0.856   5.936 -0.5225  0.8112 -1.8112
35353SOL    HW218039  11.529   0.715   5.926  0.9345  0.1730 -1.0833
35354SOL     OW18040   8.401   0.011   7.339 -0.3007 -0.0480  0.1708
35354SOL    HW118041   8.434   0.014   7.249 -0.9538  2.2513 -0.0498
35354SOL    HW218042   8.480   0.007   7.393  0.0864 -1.9975 -0.4767
35355SOL     OW18043   9.904   9.839   9.937 -0.3005  0.6013 -0.1586
35355SOL    HW118044   9.959   9.813  10.011  0.1643 -1.6649 -1.1930
35355SOL    HW218045   9.946   9.918   9.903  1.0645  0.1486  0.3907
35356SOL     OW18046   8.605   1.427   8.607  0.7031  0.0608  0.1746
35356SOL    HW118047   8.636   1.505   8.561  2.1934 -0.5777  0.0447
35356SOL    HW218048   8.680   1.398   8.658  0.0339 -1.0438  0.5655
35357SOL     OW18049   2.442  13.231  10.411 -1.0758 -0.6494  0.2021
35357SOL    HW118050   2.416  13.142  10.386 -0.5453 -0.2997 -1.7374
35357SOL    HW218051   2.361  13.272  10.441 -1.8847 -1.0004 -1.3723
35358SOL     OW18052   5.858  13.910  13.256 -0.2491  0.1578  0.0266
35358SOL    HW118053   5.882  13.917  13.349 -1.7729 -1.2844  0.5710
35358SOL    HW218054   5.769  13.943  13.252 -0.4809 -0.5297 -0.7787
35359SOL     OW18055   4.636   8.441  12.867 -0.4055  0.5867 -0.4384
35359SOL    HW118056   4.542   8.429  12.856 -0.3375 -1.3991  0.7251
35359SOL    HW218057   4.650   8.439  12.962  0.9565 -0.7407 -0.6300
35360SOL     OW18058   0.407   9.141   0.031  0.3799 -0.0068  0.5342
35360SOL    HW118059   0.498   9.165   0.017  0.6737 -1.0664  0.5436
35360SOL    HW218060   0.358   9.191  -0.034  1.0471 -0.0234  0.0121
35361SOL     OW18061  12.633  13.463   7.179 -0.2821  0.1457  0.8791
35361SOL    HW118062  12.564  13.452   7.245 -0.1385 -0.1000  0.9879
35361SOL    HW218063  12.654  13.374   7.152  1.4645  0.0486  2.3523
35362SOL     OW18064   8.554   3.389   2.103 -0.1241  0.0432 -0.2523
35362SOL    HW118065   8.467   3.352   2.116 -0.2122  0.1114 -0.6417
35362SOL    HW218066   8.553   3.423   2.014  0.6577 -0.9205 -0.6459
35363SOL     OW18067   3.165  10.481   9.542 -0.0486  0.4636 -0.4589
35363SOL    HW118068   3.094  10.533   9.578  0.8769  1.3574  0.1233
35363SOL    HW218069   3.241  10.540   9.542  0.4101 -0.0654 -2.2201
35364SOL     OW18070   1.371  13.872   6.878 -0.0324 -0.0286 -0.5320
35364SOL    HW118071   1.295  13.827   6.841 -0.0523  0.6634 -1.3685
35364SOL    HW218072   1.397  13.818   6.952  1.6133 -2.9897 -3.0248
35365SOL     OW18073  13.457   7.070   6.095  0.1324  0.3870 -0.5243
35365SOL    HW118074  13.397   7.109   6.032 -2.2828  1.2857  2.1075
35365SOL    HW218075  13.523   7.137   6.110  1.1806 -0.1199 -2.5236
35366SOL     OW18076   0.500   5.120   4.684 -0.1663 -0.1922  0.2173
35366SOL    HW118077   0.450   5.087   4.759 -2.1113 -1.6582 -1.5925
35366SOL    HW218078   0.439   5.175   4.636  1.1350  0.9703 -0.1901
35367SOL     OW18079   7.675  10.276   8.953  0.4230 -0.2321  0.2155
35367SOL    HW118080   7.588  10.316   8.950  0.3446 -0.4198 -0.0713
35367SOL    HW218081   7.674  10.212   8.882  1.7996  1.7894 -1.7685
35368SOL     OW18082  10.645   8.167  10.637 -0.1026 -0.1611 -0.3423
35368SOL    HW118083  10.739   8.159  10.650 -0.1025  0.4079  0.0429
35368SOL    HW218084  10.624   8.256  10.665 -0.4816  0.3197 -2.0554
35369SOL     OW18085   7.755   7.594   3.286 -0.8161 -0.1990  0.1889
35369SOL    HW118086   7.796   7.604   3.372  0.5715 -1.0586 -0.3309
35369SOL    HW218087   7.708   7.511   3.291  0.2680 -0.8672 -0.2224
35370SOL     OW18088   8.111   8.920   6.446  0.1353 -0.1112  0.1549
35370SOL    HW118089   8.079   8.942   6.359 -0.5448 -0.7682  0.2334
35370SOL    HW218090   8.043   8.953   6.506  1.2025  1.5225  0.5386
35371SOL     OW18091   0.570   3.425   8.081 -0.0563 -0.0947 -0.0635
35371SOL    HW118092   0.620   3.477   8.018 -0.3502  0.1224 -0.1240
35371SOL    HW218093   0.523   3.490   8.134  1.5265 -0.1919  1.5436
35372SOL     OW18094   7.384   9.608   2.505  0.3864 -0.0993 -0.1425
35372SOL    HW118095   7.341   9.523   2.508  0.9220 -0.5759 -3.1376
35372SOL    HW218096   7.443   9.609   2.580 -2.3808 -0.7238  2.2115
35373SOL     OW18097  10.418   8.722   6.858 -0.3400  0.0020  0.1907
35373SOL    HW118098  10.407   8.668   6.780  1.7476  1.0721 -0.9359
35373SOL    HW218099  10.390   8.810   6.830  0.1264  0.3282  0.7319
35374SOL     OW18100  10.523  12.687   2.337  0.2753  0.6703  0.4457
35374SOL    HW118101  10.609  12.726   2.322  0.2377  0.5074 -0.2114
35374SOL    HW218102  10.508  12.631   2.260  0.2899 -0.5793  1.3117
35375SOL     OW18103  11.446  10.869   2.161 -0.4552 -0.1492 -0.0708
35375SOL    HW118104  11.502  10.793   2.146 -0.1384  0.1650 -0.4950
35375SOL    HW218105  11.504  10.944   2.151 -0.9567  0.1814 -0.5636
35376SOL     OW18106   1.612   5.057   9.259  0.5976  0.3938  0.4089
35376SOL    HW118107   1.566   5.086   9.179 -0.7581 -0.3745  0.8861
35376SOL    HW218108   1.633   5.139   9.304 -0.0971  0.7887  0.0515
35377SOL     OW18109   6.397   0.762   0.593 -0.3975 -0.2415 -0.0366
35377SOL    HW118110   6.333   0.779   0.525 -1.3800  0.0404  0.9372
35377SOL    HW218111   6.444   0.845   0.604 -1.2402  0.1599  0.6403
35378SOL     OW18112   6.633   1.935  13.958  0.2997  0.0083 -0.0622
35378SOL    HW118113   6.688   1.889  14.021  0.1422 -1.0237 -0.6381
35378SOL    HW218114   6.666   2.024  13.956  2.6951 -0.7996 -1.1786
35379SOL     OW18115   4.671   7.246   2.869 -0.5645  0.3537 -0.1367
35379SOL    HW118116   4.702   7.335   2.851 -0.0088  0.1041 -0.4130
35379SOL    HW218117   4.722   7.219   2.945 -0.7697  0.2856 -0.0228
35380SOL     OW18118   3.905   2.538   6.948  0.0209 -0.4017  0.4685
35380SOL    HW118119   3.820   2.527   6.906  0.3343  2.7491 -1.3049
35380SOL    HW218120   3.884   2.572   7.035 -0.5455  0.7255 -0.0961
35381SOL     OW18121   5.373   7.265  10.978 -0.0417  0.2338 -0.0317
35381SOL    HW118122   5.312   7.263  11.052 -0.3411  0.6530 -0.2679
35381SOL    HW218123   5.397   7.173  10.966  0.6453  0.2399  1.0991
35382SOL     OW18124   8.146  11.479   6.624 -0.0236 -0.0142  0.1738
35382SOL    HW118125   8.107  11.473   6.537 -0.3019  0.2961  0.2757
35382SOL    HW218126   8.109  11.559   6.662  1.1277  0.5897  0.0711
35383SOL     OW18127   8.039   7.723  10.587  0.6285 -0.5265  0.1649
35383SOL    HW118128   7.982   7.743  10.661 -1.1620  2.7562 -1.8115
35383SOL    HW218129   8.009   7.637  10.556 -1.7407  0.0795  0.5995
35384SOL     OW18130   2.675   5.256   0.838 -0.3192  0.0360  0.5196
35384SOL    HW118131   2.659   5.166   0.810 -0.0130  0.9043 -2.9882
35384SOL    HW218132   2.771   5.265   0.834 -0.4383  0.9824 -1.1568
35385SOL     OW18133  11.794   8.054  13.867  0.1458 -0.1660 -0.4392
35385SOL    HW118134  11.703   8.035  13.888  0.0605 -0.5849 -1.1738
35385SOL    HW218135  11.790   8.130  13.809  0.1841 -0.8023 -1.3013
35386SOL     OW18136   6.523   2.268   0.011  0.1589 -0.1846  0.2791
35386SOL    HW118137   6.590   2.227  -0.043 -0.9221 -2.4574  0.5409
35386SOL    HW218138   6.449   2.280  -0.049  0.0924  0.4143  0.4772
35387SOL     OW18139  12.638   4.477   1.412  0.1597 -0.4181 -0.4159
35387SOL    HW118140  12.705   4.412   1.436 -1.1918 -1.4646  0.6736
35387SOL    HW218141  12.610   4.514   1.496  0.0985  0.7698 -0.9486
35388SOL     OW18142  10.868   7.660   0.344 -0.2024 -0.4182 -0.4336
35388SOL    HW118143  10.945   7.653   0.401  1.4488 -0.3311 -2.5443
35388SOL    HW218144  10.855   7.755   0.334  0.0564 -0.4344 -0.9119
35389SOL     OW18145  13.731   8.664   9.177 -0.0278 -0.1611  0.1740
35389SOL    HW118146  13.643   8.630   9.192 -2.0543  3.6270 -1.6612
35389SOL    HW218147  13.764   8.612   9.103 -0.9882 -1.2006  0.4461
35390SOL     OW18148  13.559   3.673  10.916 -0.9426  0.1072 -0.0718
35390SOL    HW118149  13.599   3.590  10.940  0.3797  0.4664 -0.8845
35390SOL    HW218150  13.606   3.738  10.967 -0.7928  0.5035 -0.7009
35391SOL     OW18151   4.056  11.861  11.814  0.4014 -0.5673  0.2283
35391SOL    HW118152   3.994  11.870  11.742 -0.5282 -0.3721  1.0230
35391SOL    HW218153   4.107  11.783  11.792  2.0242  1.0133 -1.9823
35392SOL     OW18154   1.956   4.118   0.211  0.3373 -0.4286  0.0315
35392SOL    HW118155   1.875   4.168   0.217  0.7896  0.6605 -1.8929
35392SOL    HW218156   1.952   4.056   0.283 -1.1267  1.1300  1.3823
35393SOL     OW18157  10.241  13.960   0.620 -0.0647  0.0165 -0.1126
35393SOL    HW118158  10.302  13.968   0.693 -0.3798 -0.0925  0.1698
35393SOL    HW218159  10.267  14.028   0.558  2.5257 -2.1676 -1.6316
35394SOL     OW18160  12.352   5.879  13.312 -0.5631  0.2636 -0.0305
35394SOL    HW118161  12.425   5.856  13.255 -0.4830 -1.3577  0.6729
35394SOL    HW218162  12.389   5.941  13.375  0.3482 -0.8615  0.5786
35395SOL     OW18163   2.263   2.748   8.445  0.1090 -0.0451 -0.6692
35395SOL    HW118164   2.323   2.694   8.394  0.7932 -0.8098  0.8918
35395SOL    HW218165   2.319   2.798   8.504 -0.5496  2.0853 -1.7478
35396SOL     OW18166   8.096   6.137  12.791  0.8832 -0.1592 -0.3703
35396SOL    HW118167   8.062   6.074  12.727  0.3748 -1.0910  0.7626
35396SOL    HW218168   8.021   6.194  12.811  1.2759  0.6708 -1.2136
35397SOL     OW18169   7.586   9.069  13.344 -0.2491  0.0260 -0.1647
35397SOL    HW118170   7.519   9.024  13.292 -0.5896  1.4603 -1.0257
35397SOL    HW218171   7.566   9.044  13.435 -0.3813 -1.5629 -0.5966
35398SOL     OW18172  13.788   1.084   9.250 -0.8199  0.0402  0.5074
35398SOL    HW118173  13.713   1.143   9.237 -2.3254 -2.1140 -1.4224
35398SOL    HW218174  13.864   1.137   9.229 -2.0055  1.5844 -0.1162
35399SOL     OW18175   1.419   3.814  10.424 -0.2489 -0.0713  0.2638
35399SOL    HW118176   1.476   3.843  10.495 -0.7059 -1.6196  1.3377
35399SOL    HW218177   1.330   3.824  10.459 -0.4413 -3.0079  0.9462
35400SOL     OW18178   1.485   6.876   0.817 -0.5780  0.5975 -0.0127
35400SOL    HW118179   1.478   6.795   0.767  1.1874 -0.3518  1.2003
35400SOL    HW218180   1.434   6.940   0.766 -0.9212 -0.9254 -1.6663
35401SOL     OW18181   9.904   1.734   0.808 -0.1328  0.6215 -0.0932
35401SOL    HW118182   9.837   1.699   0.866 -1.2659  0.6121 -1.3539
35401SOL    HW218183   9.926   1.819   0.845  0.9497 -0.3647  1.6832
35402SOL     OW18184  10.535   7.177   2.751 -0.9341  0.4755  0.3596
35402SOL    HW118185  10.596   7.244   2.784 -1.2483  0.7818  0.3236
35402SOL    HW218186  10.497   7.217   2.673 -0.1161 -0.2806 -0.4450
35403SOL     OW18187  12.825   5.448   8.926 -0.5294 -0.6945  0.5517
35403SOL    HW118188  12.802   5.383   8.993  0.0623 -1.2781  0.2003
35403SOL    HW218189  12.754   5.442   8.862 -0.9143 -0.3851  0.9374
35404SOL     OW18190   0.264   7.957   3.115  0.2720 -0.0186 -0.5109
35404SOL    HW118191   0.188   7.990   3.067  0.6687  1.3467 -0.2300
35404SOL    HW218192   0.301   8.034   3.158  1.0755 -0.8822  0.3944
35405SOL     OW18193  13.095   3.069   6.856 -0.1169 -1.2524  0.5378
35405SOL    HW118194  13.012   3.024   6.838 -0.8461  0.4083 -0.5554
35405SOL    HW218195  13.081   3.114   6.939 -0.6457 -0.2933 -0.0546
35406SOL     OW18196   6.442   5.005   9.919  0.0644  0.0631  0.2793
35406SOL    HW118197   6.354   4.995   9.958 -0.2851  1.8320  0.0200
35406SOL    HW218198   6.474   5.088   9.954  1.6158 -0.5054  0.2784
35407SOL     OW18199   6.910  10.574   5.614 -0.1444  0.0022  0.5366
35407SOL    HW118200   6.920  10.489   5.657 -0.0223 -0.7492 -0.9158
35407SOL    HW218201   6.967  10.569   5.537 -1.4048  0.7547 -0.4867
35408SOL     OW18202   9.905   3.322   6.178  0.4708 -0.2137 -0.3843
35408SOL    HW118203   9.961   3.392   6.144  0.2395 -0.2151 -0.7807
35408SOL    HW218204   9.943   3.242   6.143 -1.2401 -0.0578 -2.8446
35409SOL     OW18205   3.725   6.935   5.178  0.3797  0.3293 -0.0717
35409SOL    HW118206   3.643   6.982   5.166 -0.7273 -1.7511 -1.3437
35409SOL    HW218207   3.754   6.915   5.089 -0.2495 -2.9613  0.3259
35410SOL     OW18208  13.424   3.669   3.312 -0.1039  0.3289 -0.1708
35410SOL    HW118209  13.413   3.583   3.354 -2.3426  1.1213  1.0437
35410SOL    HW218210  13.444   3.649   3.221  1.5458 -1.4637  0.5277
35411SOL     OW18211   4.180   1.446   1.969  0.2926  0.3044 -0.1913
35411SOL    HW118212   4.250   1.415   2.027  0.8707  0.4772 -0.7989
35411SOL    HW218213   4.158   1.533   2.002  0.6655  0.4286 -0.2641
35412SOL     OW18214  11.475   3.342   8.230  0.7144  0.7168 -0.3509
35412SOL    HW118215  11.495   3.258   8.189 -0.2378 -0.4332  1.4001
35412SOL    HW218216  11.432   3.393   8.161 -0.1851 -0.8582 -1.0080
35413SOL     OW18217   4.248  10.501   7.665  0.3119 -0.4016  0.0723
35413SOL    HW118218   4.266  10.442   7.592 -0.5565  1.3414 -1.6401
35413SOL    HW218219   4.160  10.476   7.694 -1.0737  1.4024 -2.1921
35414SOL     OW18220   0.408   1.553   2.829 -0.1659 -0.4714 -0.1047
35414SOL    HW118221   0.412   1.568   2.923  0.8927 -0.8147 -0.0798
35414SOL    HW218222   0.325   1.508   2.815 -0.5574  0.0174  0.5987
35415SOL     OW18223   5.720  10.843   9.163  0.0677 -0.0829  0.4080
35415SOL    HW118224   5.688  10.753   9.160  0.6771 -0.2898 -0.1030
35415SOL    HW218225   5.712  10.868   9.255 -0.2022 -0.6281  0.5377
35416SOL     OW18226   6.858  12.487   1.810  0.4046 -0.2949  0.0218
35416SOL    HW118227   6.883  12.482   1.718  1.1184 -0.0772  0.1955
35416SOL    HW218228   6.822  12.575   1.820  1.3159  0.0721  0.1780
35417SOL     OW18229   5.613   0.076   9.313  0.4863  0.1902 -0.1166
35417SOL    HW118230   5.661   0.059   9.232  0.0062  1.3586 -0.6555
35417SOL    HW218231   5.523   0.048   9.295  0.9122 -2.1743  0.9545
35418SOL     OW18232  11.942   3.203  12.861 -0.3273 -0.6667  0.6195
35418SOL    HW118233  11.847   3.199  12.844 -0.0202 -0.9925 -1.2392
35418SOL    HW218234  11.959   3.296  12.877 -0.7647 -0.3839 -0.4603
35419SOL     OW18235  10.397   6.697   1.226  0.3134  0.5829 -0.4125
35419SOL    HW118236  10.402   6.731   1.316  2.2014 -1.0326  0.1745
35419SOL    HW218237  10.321   6.639   1.227 -1.5997  2.9396 -0.8185
35420SOL     OW18238   3.030   8.157  11.207  0.1155  0.5215  0.0562
35420SOL    HW118239   3.116   8.166  11.248  0.3290  1.4382 -0.5583
35420SOL    HW218240   2.968   8.162  11.280  0.5921 -1.0190  0.6070
35421SOL     OW18241  10.715  12.452   3.650  0.0689  0.1693 -0.5802
35421SOL    HW118242  10.765  12.519   3.603 -0.4096  1.6914  0.9692
35421SOL    HW218243  10.630  12.450   3.605 -0.9553  2.7348  0.9655
35422SOL     OW18244   3.982  13.557   1.104  0.1966 -0.2863  0.4113
35422SOL    HW118245   3.917  13.594   1.043  1.4906 -0.0014 -0.8474
35422SOL    HW218246   3.933  13.492   1.155 -0.3201 -3.1080 -3.2604
35423SOL     OW18247   3.551   2.105   3.854 -0.1506 -0.0887 -0.5631
35423SOL    HW118248   3.592   2.121   3.770  0.4156 -0.7178 -0.4136
35423SOL    HW218249   3.521   2.014   3.850  0.9927 -0.5320  0.3543
35424SOL     OW18250   4.751   1.773   4.470  0.3685  0.2324  0.2593
35424SOL    HW118251   4.733   1.717   4.546  0.2635 -0.2159 -0.0895
35424SOL    HW218252   4.685   1.746   4.405  1.3787 -0.4277 -0.5199
35425SOL     OW18253  12.257  13.278  10.935  0.1589 -0.1200  0.1792
35425SOL    HW118254  12.331  13.219  10.948  0.7402  0.6298  0.3228
35425SOL    HW218255  12.279  13.327  10.856  0.3059  0.8216  0.7903
35426SOL     OW18256   9.050   7.047  12.460 -0.4384 -0.0502 -0.0207
35426SOL    HW118257   9.005   7.017  12.381 -2.2912 -0.3488  1.1002
35426SOL    HW218258   9.018   6.991  12.530  1.5208 -0.1025  0.9085
35427SOL     OW18259   4.482   9.125   5.450 -0.1405  0.0798 -0.3392
35427SOL    HW118260   4.391   9.151   5.435 -0.7753 -0.0499  2.6960
35427SOL    HW218261   4.482   9.030   5.443 -0.1630  0.0965 -0.5798
35428SOL     OW18262  12.379   6.394  10.945 -0.2491  0.1391 -0.7218
35428SOL    HW118263  12.419   6.322  10.896 -0.2178 -0.8549  0.7221
35428SOL    HW218264  12.434   6.470  10.925  1.0338 -0.7155 -0.5357
35429SOL     OW18265   8.190   7.002   7.735 -0.4976  0.4410 -0.1414
35429SOL    HW118266   8.278   6.972   7.713  0.1213  0.9776  1.4621
35429SOL    HW218267   8.137   6.923   7.734  0.1981 -0.0354 -0.1895
35430SOL     OW18268  12.591   8.533   3.319 -0.0423  0.0497 -0.3660
35430SOL    HW118269  12.519   8.595   3.324 -0.2777 -0.2216 -0.3515
35430SOL    HW218270  12.660   8.573   3.371 -1.0090 -0.7644  1.6613
35431SOL     OW18271  12.264   5.979   6.682 -0.1119 -0.2878 -0.0289
35431SOL    HW118272  12.233   6.042   6.747 -1.1167 -0.2348 -0.5379
35431SOL    HW218273  12.223   5.896   6.707 -0.0450 -0.3939 -0.2612
35432SOL     OW18274   6.435   1.749  13.878  0.4909  0.0535  0.7656
35432SOL    HW118275   6.459   1.708  13.794 -0.4828  1.0361 -0.0176
35432SOL    HW218276   6.509   1.807  13.897 -0.4632  1.9254 -0.8676
35433SOL     OW18277   3.528   6.794   7.498 -0.0560  0.3660 -0.1606
35433SOL    HW118278   3.466   6.771   7.429 -0.0123  2.0115 -0.7997
35433SOL    HW218279   3.477   6.849   7.558  0.6122  1.2868 -0.4085
35434SOL     OW18280   4.050   0.967   3.884  0.8308 -0.2000  0.5492
35434SOL    HW118281   4.019   0.998   3.799  1.2566  0.4185  0.6096
35434SOL    HW218282   3.976   0.978   3.942  0.8236  0.2497  0.4568
35435SOL     OW18283   7.875   9.381  12.731  0.3807  0.4099 -0.3698
35435SOL    HW118284   7.802   9.362  12.673 -0.8102  1.0448  0.8701
35435SOL    HW218285   7.844   9.356  12.818  1.1260  1.9033  0.3719
35436SOL     OW18286  12.529  10.371   9.711  0.0829  0.0407 -0.5649
35436SOL    HW118287  12.452  10.380   9.654  0.2788  0.6923 -0.7383
35436SOL    HW218288  12.509  10.298   9.768 -0.8394  0.4611 -0.3401
35437SOL     OW18289  10.166  12.437   0.363  0.4209 -0.3001 -1.0997
35437SOL    HW118290  10.109  12.361   0.371 -1.7915  1.4098  1.0591
35437SOL    HW218291  10.137  12.481   0.283  1.3925 -1.4133 -2.0958
35438SOL     OW18292   0.672   5.899  12.762  0.4602  0.6206 -0.5417
35438SOL    HW118293   0.666   5.884  12.856 -0.3923 -0.5646 -0.7549
35438SOL    HW218294   0.655   5.993  12.751  0.3387  0.7258  0.4613
35439SOL     OW18295   1.035  13.095   6.344  0.0090 -0.0935 -0.2107
35439SOL    HW118296   0.981  13.065   6.270  0.1607 -0.8945 -0.0039
35439SOL    HW218297   1.033  13.023   6.406  0.5367  0.2568  0.2219
35440SOL     OW18298   7.232  10.076  13.815 -0.4922 -0.3064  0.0387
35440SOL    HW118299   7.163  10.038  13.870  0.5842 -0.2980  1.4356
35440SOL    HW218300   7.198  10.163  13.791 -1.8589 -1.0982 -1.0597
35441SOL     OW18301  13.293   6.625   6.364  0.3865  0.3435  0.6839
35441SOL    HW118302  13.292   6.554   6.300 -0.3729  1.1237 -0.2118
35441SOL    HW218303  13.335   6.588   6.441  0.1291 -1.0257  0.1902
35442SOL     OW18304   7.336   0.033   3.592  0.0491  0.0759  0.4175
35442SOL    HW118305   7.278   0.020   3.517  0.4030 -0.9992  0.3102
35442SOL    HW218306   7.282   0.009   3.668  0.4769 -1.4444  0.2771
35443SOL     OW18307   5.705   1.755  12.427 -0.2445  0.0107 -0.7193
35443SOL    HW118308   5.771   1.710  12.479 -0.5242  0.2994 -0.0989
35443SOL    HW218309   5.623   1.738  12.473 -0.4440  0.5948 -0.8474
35444SOL     OW18310  11.796   5.547  10.411  0.1060 -0.0715  0.3161
35444SOL    HW118311  11.873   5.561  10.357 -0.4820 -0.1145 -0.5547
35444SOL    HW218312  11.763   5.635  10.431  0.6482 -0.0362  1.1035
35445SOL     OW18313  11.084   8.746   7.041  0.1274 -0.2085  0.1760
35445SOL    HW118314  11.039   8.676   7.089  1.9786 -1.0351  0.8115
35445SOL    HW218315  11.106   8.810   7.108  1.6740 -0.8069  0.2937
35446SOL     OW18316  11.961   4.101  12.713 -0.2237  0.2379  0.0049
35446SOL    HW118317  11.929   4.011  12.710 -0.6315  0.2597  2.2453
35446SOL    HW218318  12.030   4.100  12.779 -2.4892  2.1321  2.6344
35447SOL     OW18319   2.265   3.686   1.711 -0.5007 -0.0171 -0.4808
35447SOL    HW118320   2.273   3.659   1.802 -1.8629  1.4891  0.1463
35447SOL    HW218321   2.187   3.742   1.710 -0.1792  0.4584 -2.4601
35448SOL     OW18322  12.531   4.415   8.671  0.0747  0.0213 -0.5445
35448SOL    HW118323  12.522   4.491   8.614  1.1401  0.5378 -0.0471
35448SOL    HW218324  12.446   4.408   8.715  0.1673  1.3352 -0.1140
35449SOL     OW18325   8.917   0.306   3.125 -0.3645 -0.0684  0.2302
35449SOL    HW118326   8.875   0.382   3.086  0.0698  0.3032  0.4693
35449SOL    HW218327   9.004   0.337   3.152 -0.2528 -0.5943  0.5079
35450SOL     OW18328  13.550  13.765   8.023 -0.2352  0.4837 -0.0509
35450SOL    HW118329  13.589  13.817   7.954 -0.5615  1.8663  0.7657
35450SOL    HW218330  13.511  13.690   7.978 -2.1034  2.3071 -1.6332
35451SOL     OW18331   7.021   5.529   6.352  0.1336  0.0203 -0.1533
35451SOL    HW118332   7.068   5.469   6.410  0.2415  0.6978  0.4621
35451SOL    HW218333   6.952   5.475   6.313 -0.7042 -0.1486  1.5219
35452SOL     OW18334   3.897   5.615  13.118  0.0944  0.6034  0.0910
35452SOL    HW118335   3.889   5.625  13.023 -0.2430  0.0072  0.0509
35452SOL    HW218336   3.992   5.618  13.134  0.1746  0.3250 -0.3077
35453SOL     OW18337  11.906   3.107   0.540 -0.0093  0.0418  0.7518
35453SOL    HW118338  11.939   3.156   0.465 -0.2587 -0.0628  0.5708
35453SOL    HW218339  11.961   3.134   0.613  0.2445  0.1342  0.5279
35454SOL     OW18340   7.050  13.174   9.180 -0.0316  0.7388 -0.1478
35454SOL    HW118341   7.065  13.225   9.260  0.8248 -0.1904  0.2964
35454SOL    HW218342   7.088  13.228   9.110 -1.8137  2.1107 -0.1392
35455SOL     OW18343   1.686  11.181   4.186 -0.3090 -0.5579  0.0587
35455SOL    HW118344   1.757  11.211   4.242 -1.0182 -0.1732  0.7701
35455SOL    HW218345   1.658  11.098   4.226  0.2163 -1.0880 -0.6483
35456SOL     OW18346   3.710   9.043   7.689 -0.4020 -0.1788  0.3218
35456SOL    HW118347   3.680   9.103   7.621  1.0687  1.3570  0.9520
35456SOL    HW218348   3.699   9.092   7.771  1.0565 -0.6380  0.8236
35457SOL     OW18349   8.930   4.037   7.431 -0.4008 -0.3678  0.1999
35457SOL    HW118350   8.875   4.115   7.444  1.3184  0.7730  1.0563
35457SOL    HW218351   8.929   4.022   7.337 -2.0781 -0.3313  0.1808
35458SOL     OW18352  11.264  12.979   0.710  0.2629  0.2075  0.1826
35458SOL    HW118353  11.181  13.027   0.714  1.4612  2.7538 -1.9471
35458SOL    HW218354  11.323  13.027   0.767  1.2432  0.7866 -1.2529
35459SOL     OW18355  10.640   7.007  11.685  0.3418  0.1452 -0.0022
35459SOL    HW118356  10.669   7.082  11.737  0.9324  0.5375 -0.8752
35459SOL    HW218357  10.652   6.932  11.743  0.3673  0.6454  0.6545
35460SOL     OW18358   8.263   9.958   5.542 -0.6695  0.0612 -0.0620
35460SOL    HW118359   8.207  10.011   5.599  0.0690  0.9751 -0.1497
35460SOL    HW218360   8.337   9.934   5.598  0.3034  1.3770 -0.7367
35461SOL     OW18361   5.404  10.382   8.018  0.1044  0.0550  0.2010
35461SOL    HW118362   5.450  10.298   8.021  2.3139  1.1744  0.0031
35461SOL    HW218363   5.449  10.432   7.949 -1.2495  1.3692  0.2029
35462SOL     OW18364   7.870   5.529  11.913 -0.6659  0.2778  0.1886
35462SOL    HW118365   7.785   5.543  11.954 -0.1528  1.7826  0.8099
35462SOL    HW218366   7.872   5.589  11.838 -0.1908  0.1794  0.1141
35463SOL     OW18367   3.633   4.128   1.459 -0.0808 -0.4635 -0.0948
35463SOL    HW118368   3.620   4.139   1.553  0.1522  0.4858 -0.1687
35463SOL    HW218369   3.581   4.051   1.437 -0.7764 -0.2259  0.6691
35464SOL     OW18370   0.056  12.396   3.198 -0.1438 -0.1092  0.0632
35464SOL    HW118371   0.139  12.359   3.230  0.9726  1.4033 -0.9484
35464SOL    HW218372   0.018  12.326   3.145 -0.4022 -1.4423  1.8980
35465SOL     OW18373   8.575   1.409   8.143 -0.1347  0.2325  0.2507
35465SOL    HW118374   8.615   1.354   8.210  0.3024 -1.5286 -1.3555
35465SOL    HW218375   8.644   1.470   8.118 -0.4927  1.3229  1.7698
35466SOL     OW18376   2.036   4.623   4.267  0.5317 -0.0592  0.0794
35466SOL    HW118377   2.033   4.547   4.208  1.4347  1.2101 -1.6995
35466SOL    HW218378   2.057   4.696   4.210 -1.2889  1.7435  1.5762
35467SOL     OW18379  13.709  10.435  11.332 -0.6785 -0.8906 -0.5029
35467SOL    HW118380  13.788  10.445  11.279  0.3589 -1.0896  0.9313
35467SOL    HW218381  13.685  10.525  11.356  0.5848 -0.9193  1.0566
35468SOL     OW18382   6.078  13.499  14.042 -0.0119  0.4307  0.7739
35468SOL    HW118383   6.021  13.436  14.088 -0.0197  0.2321  0.4928
35468SOL    HW218384   6.073  13.473  13.950  0.0021  0.8302  0.6586
35469SOL     OW18385  13.073  11.731  12.344 -0.5007 -0.3101  0.4302
35469SOL    HW118386  13.063  11.826  12.345  0.4532 -0.1890  2.4396
35469SOL    HW218387  13.167  11.716  12.358 -0.6945 -1.5565  0.5300
35470SOL     OW18388   3.041   3.911   3.328 -0.2816  0.0169 -0.1218
35470SOL    HW118389   3.009   3.821   3.340 -0.6353 -0.3950 -3.2408
35470SOL    HW218390   2.988   3.945   3.256  0.2586  2.5472  0.6088
35471SOL     OW18391   9.565   1.195   6.827 -0.4419 -0.5360 -0.1590
35471SOL    HW118392   9.595   1.119   6.876 -0.1765 -0.9302 -0.9194
35471SOL    HW218393   9.570   1.169   6.735 -1.5928 -0.0587 -0.3876
35472SOL     OW18394   0.478  10.279   6.543  0.7760 -0.3772  0.0522
35472SOL    HW118395   0.499  10.300   6.452 -0.9961  0.8191 -0.1403
35472SOL    HW218396   0.383  10.291   6.549  0.8336 -0.5765  2.0268
35473SOL     OW18397   3.475   1.653  11.659 -0.1727  0.4669 -0.2266
35473SOL    HW118398   3.414   1.706  11.609  0.0023  1.3441  0.4606
35473SOL    HW218399   3.558   1.661  11.612 -0.0080  1.2890  0.1907
35474SOL     OW18400  11.922   0.983   7.260 -0.1771  0.5130  0.0027
35474SOL    HW118401  11.996   0.935   7.222  0.2620  0.7633  0.5403
35474SOL    HW218402  11.857   0.915   7.279 -0.1426  0.3068 -0.5803
35475SOL     OW18403   2.608   6.934   6.345 -0.3670 -0.3231 -0.2324
35475SOL    HW118404   2.564   6.849   6.352 -1.9073  0.4020 -0.6161
35475SOL    HW218405   2.557   6.981   6.279  0.2557  1.0205  0.2206
35476SOL     OW18406  13.980   1.962   4.417  0.1184  0.1640 -0.1477
35476SOL    HW118407  14.062   1.914   4.431  0.0356 -0.1908 -0.8275
35476SOL    HW218408  13.992   2.044   4.465  0.0562 -0.7510  1.4749
35477SOL     OW18409   0.503  14.006   3.060  0.3762 -0.3559  0.0956
35477SOL    HW118410   0.422  14.013   3.010  0.8098 -0.9005 -0.7023
35477SOL    HW218411   0.572  14.029   2.997  0.8124  0.5404  0.8825
35478SOL     OW18412  11.268   4.929  13.953  0.0259  0.2892  0.1108
35478SOL    HW118413  11.353   4.954  13.991  0.6587 -1.2596 -0.2126
35478SOL    HW218414  11.272   4.834  13.948 -0.4884  0.3476 -2.8098
35479SOL     OW18415   7.232   8.217   0.861 -0.0692  0.3609 -0.5106
35479SOL    HW118416   7.150   8.195   0.819  0.9930 -1.8803 -1.5595
35479SOL    HW218417   7.234   8.163   0.940 -1.3444  3.4006  1.8325
35480SOL     OW18418  12.505   1.113  10.986 -0.0223 -0.4082 -0.0693
35480SOL    HW118419  12.458   1.129  10.905 -0.1359 -0.9921 -0.1255
35480SOL    HW218420  12.440   1.124  11.055 -0.4018 -1.8022 -0.1840
35481SOL     OW18421   0.129  11.852  10.016 -0.3104 -0.3934  0.2005
35481SOL    HW118422   0.187  11.847  10.091 -1.8509  0.1526  1.4796
35481SOL    HW218423   0.187  11.874   9.943  1.1480 -0.4031  1.3056
35482SOL     OW18424   5.029   0.250   6.260  0.3367 -0.5634 -0.3073
35482SOL    HW118425   5.050   0.267   6.168 -0.9581  3.3385 -0.0803
35482SOL    HW218426   4.933   0.254   6.264  0.3778 -0.4759  1.1898
35483SOL     OW18427   7.053  13.828  11.460  0.0768 -0.2225  0.1701
35483SOL    HW118428   7.133  13.866  11.422 -0.5397  0.8426 -0.0907
35483SOL    HW218429   7.025  13.892  11.525 -1.0551 -0.1683 -0.3577
35484SOL     OW18430  10.949  13.346   2.492  0.0221  0.0166 -0.3240
35484SOL    HW118431  10.899  13.289   2.551 -0.6775  0.2397 -0.6806
35484SOL    HW218432  10.884  13.375   2.427  0.4799  0.8192 -0.4380
35485SOL     OW18433  11.936   6.215   8.678 -0.1045 -0.2024  0.3966
35485SOL    HW118434  11.935   6.175   8.591 -1.3330 -1.6533  1.0430
35485SOL    HW218435  12.011   6.275   8.676 -0.4649  0.2540 -1.8515
35486SOL     OW18436   9.136   3.289  13.711 -0.4033  0.1523 -0.9288
35486SOL    HW118437   9.151   3.282  13.617 -0.5708  0.5787 -0.9896
35486SOL    HW218438   9.181   3.370  13.737 -1.3394  0.6647 -0.8535
35487SOL     OW18439   9.967   9.979   8.724 -0.2025 -0.4221  0.0839
35487SOL    HW118440   9.988  10.002   8.633 -0.4501 -2.9176 -0.6729
35487SOL    HW218441  10.040  10.014   8.775  1.0061 -0.7632 -1.3329
35488SOL     OW18442   0.066   7.691   2.804 -0.1863  0.4722  0.5826
35488SOL    HW118443   0.160   7.675   2.806 -0.0279  1.2538 -0.1304
35488SOL    HW218444   0.029   7.620   2.856  0.6683 -0.6583 -0.3155
35489SOL     OW18445   2.490   1.891  11.778 -0.2870  0.5180 -0.1130
35489SOL    HW118446   2.464   1.892  11.870 -0.4720  0.5032 -0.1655
35489SOL    HW218447   2.578   1.853  11.779 -0.1941  0.7345  0.0812
35490SOL     OW18448   0.979   0.085   2.555  0.0385 -0.4327  0.1551
35490SOL    HW118449   0.919   0.034   2.611 -2.2874  1.1668 -0.7435
35490SOL    HW218450   0.998   0.164   2.606  0.1174 -0.2173 -0.2059
35491SOL     OW18451   1.328   4.604   6.845 -0.1308 -0.2232 -0.0445
35491SOL    HW118452   1.391   4.570   6.909 -0.7600 -1.1967  0.0746
35491SOL    HW218453   1.363   4.578   6.760  0.2382  0.2795 -0.0493
35492SOL     OW18454   3.798  12.391   5.313 -0.0445 -0.0988 -0.1573
35492SOL    HW118455   3.706  12.401   5.335  0.0192 -0.2683  0.1912
35492SOL    HW218456   3.801  12.401   5.218 -0.0565  2.5795  0.0597
35493SOL     OW18457  13.548  11.354   6.025 -0.0940 -0.4159  0.2978
35493SOL    HW118458  13.583  11.443   6.032  1.8538 -1.0560 -0.6677
35493SOL    HW218459  13.460  11.366   5.988  0.1447  1.0903  0.1530
35494SOL     OW18460  10.942  12.134  11.272 -0.1209  0.1755 -0.1031
35494SOL    HW118461  10.908  12.221  11.292  1.4744  0.8816 -0.2992
35494SOL    HW218462  10.985  12.105  11.353  0.1253 -0.0353 -0.3034
35495SOL     OW18463   7.507   3.445   4.839 -0.1036  0.4869  0.0255
35495SOL    HW118464   7.484   3.353   4.853  1.2440  0.1281 -0.0520
35495SOL    HW218465   7.460   3.492   4.908 -0.1098 -0.3522  0.6058
35496SOL     OW18466   0.971   9.507   6.112 -0.3241  0.1642  0.0115
35496SOL    HW118467   1.050   9.542   6.152 -0.5281  1.0918 -0.3781
35496SOL    HW218468   0.933   9.581   6.064 -0.4467 -0.7340 -1.3320
35497SOL     OW18469   8.670   1.629   0.084  0.1129  0.0235 -0.4458
35497SOL    HW118470   8.687   1.537   0.104 -0.4460  0.3591  2.0116
35497SOL    HW218471   8.754   1.673   0.094 -0.0505  0.0932  0.8776
35498SOL     OW18472   5.493   3.970   0.631 -0.3625 -0.0126  0.0299
35498SOL    HW118473   5.492   3.982   0.725  1.2006 -2.0896  0.3975
35498SOL    HW218474   5.586   3.977   0.607 -0.5228 -1.2006 -1.0593
35499SOL     OW18475  11.764   1.649   9.162 -0.4406 -0.6933  0.0640
35499SOL    HW118476  11.715   1.727   9.188  1.2590  0.4519 -0.0269
35499SOL    HW218477  11.790   1.608   9.244  1.0311  0.4127  0.1921
35500SOL     OW18478   8.949   4.804   6.744 -0.2302 -0.1320 -0.2891
35500SOL    HW118479   9.005   4.879   6.762 -1.4705  0.4634  1.3232
35500SOL    HW218480   8.963   4.786   6.651  0.0193  2.1804 -0.7643
35501SOL     OW18481  13.554   1.100   5.553 -0.4892 -0.0908  0.0369
35501SOL    HW118482  13.574   1.191   5.575 -1.0098  0.1703 -0.5320
35501SOL    HW218483  13.509   1.105   5.469 -0.9695 -0.8342  0.2356
35502SOL     OW18484   3.860  11.612   9.459  0.4205  0.4394  0.7764
35502SOL    HW118485   3.832  11.642   9.545 -1.9830  1.0700 -0.1470
35502SOL    HW218486   3.826  11.523   9.451  0.5903  0.3985  0.4665
35503SOL     OW18487  10.214   5.269   1.658 -0.2388  0.6587 -0.0046
35503SOL    HW118488  10.148   5.239   1.721  0.7495  1.1775  1.3400
35503SOL    HW218489  10.290   5.212   1.674 -0.4482 -0.1781 -1.7827
35504SOL     OW18490   0.491   8.928   5.033 -0.4350 -0.1846  0.6774
35504SOL    HW118491   0.482   8.890   5.121 -1.7851 -0.2197  0.5420
35504SOL    HW218492   0.586   8.927   5.017 -0.1097  0.2634  2.3191
35505SOL     OW18493  10.078   0.230   6.651 -0.4443  0.3208  0.1075
35505SOL    HW118494  10.017   0.225   6.578 -1.3173  0.6014  0.8079
35505SOL    HW218495  10.139   0.300   6.627 -1.5536  1.3557  0.2529
35506SOL     OW18496  11.110   7.364   2.986 -0.6988  0.0871  0.2613
35506SOL    HW118497  11.129   7.391   3.076  3.0014 -1.3850  0.0729
35506SOL    HW218498  11.112   7.445   2.936 -3.7517  1.0660  1.4904
35507SOL     OW18499   1.364   1.070   5.496  0.0472 -0.7832 -0.5535
35507SOL    HW118500   1.286   1.106   5.538  0.3579  0.2610 -0.8471
35507SOL    HW218501   1.349   0.976   5.494  0.3910 -1.0156  2.7243
35508SOL     OW18502   5.227  11.399   9.663  0.0044 -0.0731  0.2395
35508SOL    HW118503   5.151  11.355   9.626 -0.4748 -0.6299  1.7828
35508SOL    HW218504   5.235  11.362   9.751  0.8361  1.4594  0.8487
35509SOL     OW18505  13.917   9.866   8.675  1.0958  0.3416  0.2377
35509SOL    HW118506  13.856   9.793   8.678 -0.9958  1.9469 -0.5972
35509SOL    HW218507  13.998   9.828   8.639  0.1557 -1.5698  0.0175
35510SOL     OW18508   9.548  11.512   6.352 -0.1043 -0.4166 -0.4772
35510SOL    HW118509   9.583  11.442   6.297  0.8630 -0.8049  0.5780
35510SOL    HW218510   9.465  11.478   6.385  0.4586 -1.2013  0.2059
35511SOL     OW18511  11.992   7.446   4.010 -0.3470  0.3866 -0.0377
35511SOL    HW118512  11.990   7.387   4.085 -0.8437  0.4250 -0.0155
35511SOL    HW218513  12.085   7.464   3.996 -0.0289 -1.7249 -1.0929
35512SOL     OW18514   8.385   2.257   4.282 -0.1133 -0.2800 -0.2722
35512SOL    HW118515   8.293   2.270   4.258 -0.2410 -0.6847 -0.0069
35512SOL    HW218516   8.433   2.319   4.227 -0.4443 -0.8637 -1.2496
35513SOL     OW18517  13.995   7.453   0.796  0.4810 -0.3662  0.0688
35513SOL    HW118518  13.966   7.362   0.788  0.2894 -0.2406 -0.7891
35513SOL    HW218519  13.918   7.505   0.772  0.9176 -0.0055 -0.5825
35514SOL     OW18520  12.865   4.716   3.452  0.4036  0.1787 -0.3488
35514SOL    HW118521  12.836   4.669   3.530  2.7948 -1.9567 -0.5885
35514SOL    HW218522  12.823   4.670   3.379  0.2602  0.4506 -0.4361
35515SOL     OW18523   8.808   3.221   4.618 -0.5948  0.1501 -0.4713
35515SOL    HW118524   8.741   3.226   4.549  0.0192  0.1299 -1.0805
35515SOL    HW218525   8.791   3.137   4.661 -0.1754 -0.4778 -1.4686
35516SOL     OW18526   9.422   7.612   5.904 -0.8413  0.2941  0.0584
35516SOL    HW118527   9.390   7.606   5.994  0.8681  1.4905  0.8074
35516SOL    HW218528   9.358   7.668   5.860 -0.8721  1.0107  0.9721
35517SOL     OW18529   7.724  10.762  11.565 -0.3138 -0.3846  0.0112
35517SOL    HW118530   7.642  10.789  11.525 -0.6038 -1.6269 -0.2874
35517SOL    HW218531   7.788  10.763  11.494 -0.1182  0.3600  0.1934
35518SOL     OW18532   3.970  13.772   0.072  0.3117 -0.0367  0.8195
35518SOL    HW118533   3.999  13.864   0.076  1.1565 -0.2010 -0.7460
35518SOL    HW218534   3.884  13.776   0.030  0.7608 -0.0146 -0.1239
35519SOL     OW18535  10.740  13.606   7.789 -0.8553  0.5437 -0.4266
35519SOL    HW118536  10.682  13.577   7.861 -0.9305  0.5895 -0.4689
35519SOL    HW218537  10.683  13.606   7.712 -0.7579  0.4326 -0.4992
35520SOL     OW18538   2.440   9.429   8.750  0.4284 -0.2378 -0.8268
35520SOL    HW118539   2.392   9.463   8.826  0.0206 -1.1126 -0.6774
35520SOL    HW218540   2.372   9.400   8.689  0.7587  0.1693 -1.3915
35521SOL     OW18541  12.924   9.776   4.533 -0.0503  0.5533 -0.0658
35521SOL    HW118542  12.970   9.694   4.514 -2.8579 -1.3025  0.5546
35521SOL    HW218543  12.967   9.810   4.612  0.9575 -0.4576 -0.1542
35522SOL     OW18544   2.194   0.230   0.284 -0.9750 -0.0501  0.2219
35522SOL    HW118545   2.174   0.289   0.211 -0.2243 -1.2260 -0.9823
35522SOL    HW218546   2.204   0.287   0.360 -2.3891  1.1572 -0.4500
35523SOL     OW18547   6.114   5.797   8.599  0.0436  0.0410  0.2668
35523SOL    HW118548   6.176   5.726   8.585  0.9359  1.1024 -1.6005
35523SOL    HW218549   6.168   5.872   8.624 -0.6142  0.6596 -0.1119
35524SOL     OW18550  11.240  13.368   9.341  0.3016 -0.2405 -0.6121
35524SOL    HW118551  11.327  13.337   9.316  1.2476  0.7128  1.2754
35524SOL    HW218552  11.254  13.414   9.424 -1.7638  1.2175 -0.9938
35525SOL     OW18553  10.230   6.589  11.370  0.9502  0.1070 -0.4723
35525SOL    HW118554  10.256   6.514  11.317  0.1065  0.5605 -1.5555
35525SOL    HW218555  10.309   6.612  11.419  0.9311 -2.1764  0.7777
35526SOL     OW18556  13.921   7.433  13.605  0.1406  0.4998 -0.7922
35526SOL    HW118557  13.964   7.506  13.650  1.5112  0.7418 -2.3726
35526SOL    HW218558  13.985   7.405  13.539 -2.0562  0.7954 -3.2032
35527SOL     OW18559   5.305  12.479   3.326  0.0898 -0.6237 -0.2492
35527SOL    HW118560   5.382  12.465   3.271  0.2518 -0.8142  0.0208
35527SOL    HW218561   5.283  12.572   3.314  0.8352 -0.3668  0.2663
35528SOL     OW18562   4.080   2.739   1.292 -0.3104 -0.6796 -0.1741
35528SOL    HW118563   4.046   2.814   1.242 -0.7856 -1.1791 -0.6186
35528SOL    HW218564   4.099   2.673   1.226  1.9217 -0.3055  0.0231
35529SOL     OW18565   4.682   5.456  11.933 -0.4555  0.0527 -0.7303
35529SOL    HW118566   4.675   5.389  12.001 -0.1109  0.6517 -0.0921
35529SOL    HW218567   4.619   5.430  11.867 -3.9689  1.6547  1.7041
35530SOL     OW18568   1.166   2.453   6.926  0.1820  0.1363 -0.0450
35530SOL    HW118569   1.124   2.375   6.962  1.0061 -0.6164 -0.6672
35530SOL    HW218570   1.251   2.457   6.970  0.3057  0.4480 -0.3092
35531SOL     OW18571   5.820   2.378   2.615 -0.5010 -0.1624  0.1171
35531SOL    HW118572   5.740   2.333   2.589 -0.6326  0.8941 -1.4304
35531SOL    HW218573   5.799   2.471   2.609  0.2941  0.1309  1.5116
35532SOL     OW18574   4.944  11.544  13.124 -0.0606 -0.2982 -0.2580
35532SOL    HW118575   5.017  11.566  13.181 -0.0638  1.4098 -0.8441
35532SOL    HW218576   4.901  11.470  13.166  1.5058 -0.8019  0.5245
35533SOL     OW18577   2.433   8.926   6.527  0.2806  0.4927 -0.5978
35533SOL    HW118578   2.464   8.884   6.447  0.6051 -0.0750 -0.1841
35533SOL    HW218579   2.378   8.998   6.497 -0.0671 -0.0683 -1.3271
35534SOL     OW18580   9.268   7.574   8.555  0.2194  0.0832  0.4893
35534SOL    HW118581   9.218   7.526   8.489  1.2264  1.2605 -1.1910
35534SOL    HW218582   9.333   7.511   8.586  0.8994  0.0183 -0.9835
35535SOL     OW18583   1.263   4.059   7.508  0.3090 -0.3342 -0.5080
35535SOL    HW118584   1.249   3.964   7.510  2.1702 -0.6487 -0.7100
35535SOL    HW218585   1.358   4.069   7.506  0.1752  1.5702  0.5066
35536SOL     OW18586   6.759   4.182   8.182  0.1322 -0.2489 -0.1653
35536SOL    HW118587   6.687   4.244   8.168  1.4865  0.8344 -2.9296
35536SOL    HW218588   6.811   4.221   8.252 -0.4367  0.3805 -0.0759
35537SOL     OW18589   3.266   7.216   6.884 -0.2805  0.1477 -0.2824
35537SOL    HW118590   3.273   7.294   6.939 -1.1141  0.2952 -0.3755
35537SOL    HW218591   3.337   7.160   6.914  2.7729  2.4040 -2.6359
35538SOL     OW18592   0.701   4.284   7.921  0.8496  0.8669  0.3081
35538SOL    HW118593   0.714   4.289   7.826  1.9546  0.2797  0.4098
35538SOL    HW218594   0.657   4.200   7.935 -0.1347  1.3587  0.2522
35539SOL     OW18595  13.625   0.286   3.610  0.5314  0.2290  0.1367
35539SOL    HW118596  13.640   0.331   3.693  2.2255 -0.5043  0.2706
35539SOL    HW218597  13.550   0.230   3.626 -1.0063  2.2005  0.2635
35540SOL     OW18598   0.609   0.777   8.364 -0.2381 -0.3295 -0.1531
35540SOL    HW118599   0.690   0.787   8.314  2.1213  0.5708  3.4660
35540SOL    HW218600   0.598   0.682   8.373  0.2410 -0.4633 -0.9189
35541SOL     OW18601   2.650   9.753   1.924  0.0114  0.0074  0.4909
35541SOL    HW118602   2.745   9.756   1.915 -0.2245  1.9064 -4.2276
35541SOL    HW218603   2.630   9.816   1.993  2.0955 -1.8326  2.9657
35542SOL     OW18604   2.949  12.498  11.382 -0.6747 -0.0551 -0.4272
35542SOL    HW118605   3.024  12.521  11.437  1.5742 -1.6018 -2.6193
35542SOL    HW218606   2.875  12.495  11.443  0.9668  1.6865  1.8366
35543SOL     OW18607  12.868   1.168   8.847 -0.6340  1.0265  0.3482
35543SOL    HW118608  12.922   1.247   8.850  2.5202 -1.0004  0.7027
35543SOL    HW218609  12.868   1.134   8.936 -0.2573 -0.4234 -0.1775
35544SOL     OW18610  10.378   9.095   3.572  0.5397 -0.1472 -0.2908
35544SOL    HW118611  10.423   9.089   3.487 -0.7457 -1.1589 -0.9338
35544SOL    HW218612  10.285   9.089   3.550  0.0960  1.1768  1.0754
35545SOL     OW18613  12.470   9.097   0.914 -0.1407  0.6399 -0.5396
35545SOL    HW118614  12.479   9.084   0.819 -1.9164  0.4704 -0.7239
35545SOL    HW218615  12.529   9.032   0.953  0.8969  0.9664 -1.5169
35546SOL     OW18616   5.576   6.138   9.907  0.2050 -0.0508  0.1352
35546SOL    HW118617   5.518   6.209   9.938 -0.8377 -0.6656 -0.3414
35546SOL    HW218618   5.570   6.072   9.976  1.2248  0.3400  0.6081
35547SOL     OW18619   1.315   7.562   2.495 -0.5464 -0.8803  0.1468
35547SOL    HW118620   1.256   7.619   2.446 -0.0817 -0.9958 -0.5490
35547SOL    HW218621   1.298   7.474   2.461  1.0906 -0.7293 -1.1477
35548SOL     OW18622   8.394   3.420  13.872  0.1992  0.4389  0.2610
35548SOL    HW118623   8.409   3.509  13.904 -1.3457  0.5862  0.6429
35548SOL    HW218624   8.325   3.429  13.806 -0.2092 -0.5054  0.5464
35549SOL     OW18625   3.897   3.769   2.873  0.2486 -0.0058 -0.0610
35549SOL    HW118626   3.913   3.841   2.934  0.1443  0.5538 -0.6835
35549SOL    HW218627   3.808   3.784   2.841  1.4272  1.6659 -2.8809
35550SOL     OW18628   4.901   4.799   5.236 -0.7167 -0.1298 -0.1583
35550SOL    HW118629   4.989   4.767   5.257 -0.6861 -1.2083 -1.7702
35550SOL    HW218630   4.911   4.847   5.154 -1.5702  0.1018 -0.1391
35551SOL     OW18631   0.133   1.812   7.164  0.0615  0.6134 -0.1271
35551SOL    HW118632   0.188   1.795   7.087  0.5398  0.3138  0.2747
35551SOL    HW218633   0.055   1.855   7.129  0.4458  0.8291 -0.7353
35552SOL     OW18634  11.765   7.957   5.475 -0.6019 -0.3620  0.3659
35552SOL    HW118635  11.683   8.006   5.480 -0.4961 -0.1317 -0.2043
35552SOL    HW218636  11.758   7.893   5.547 -0.8303  0.3257  0.9672
35553SOL     OW18637   8.522   0.336  13.574  0.2372 -0.0921 -0.1128
35553SOL    HW118638   8.499   0.265  13.635  0.9462 -0.6403 -0.4724
35553SOL    HW218639   8.576   0.396  13.626  0.0421 -0.0634  0.0585
35554SOL     OW18640  12.282   4.275   8.401 -0.0181 -0.5370  0.3996
35554SOL    HW118641  12.240   4.317   8.476  1.1158 -0.6038  1.1090
35554SOL    HW218642  12.264   4.333   8.327 -2.3284 -1.1710  0.3945
35555SOL     OW18643   9.228   9.636  10.469  0.8994  0.1921  0.1879
35555SOL    HW118644   9.278   9.695  10.413  2.0464  0.5855  1.5513
35555SOL    HW218645   9.294   9.596  10.526 -0.1877 -0.2818  1.1595
35556SOL     OW18646   7.286   4.714  11.321  0.5637  0.4198  0.4022
35556SOL    HW118647   7.378   4.693  11.335  0.4749  0.1009  0.5070
35556SOL    HW218648   7.281   4.739  11.228  0.5214 -0.8511  0.0458
35557SOL     OW18649   9.866  10.609  10.248  0.0027  0.6935  1.0598
35557SOL    HW118650   9.950  10.655  10.246 -0.5189  1.7026 -1.2905
35557SOL    HW218651   9.883  10.530  10.301  2.6642  0.4288 -0.0087
35558SOL     OW18652   7.406   1.591   5.107  0.1319 -0.3230  0.7179
35558SOL    HW118653   7.490   1.548   5.122 -0.0731 -1.1965 -0.5043
35558SOL    HW218654   7.426   1.659   5.043  0.3013  0.9524  2.0609
35559SOL     OW18655  12.104  11.233  13.595 -0.0367  0.2158  0.0540
35559SOL    HW118656  12.186  11.265  13.559  0.0474  1.8591  1.5524
35559SOL    HW218657  12.065  11.181  13.525  2.1878 -0.4901 -0.7445
35560SOL     OW18658  10.874   2.750  13.840 -0.3821  0.3625 -0.6068
35560SOL    HW118659  10.922   2.673  13.810 -0.3577  0.0338  0.2501
35560SOL    HW218660  10.941   2.816  13.858 -0.0260 -0.6801  2.3241
35561SOL     OW18661  11.032  12.566   0.907 -0.4692 -0.2645 -0.0924
35561SOL    HW118662  11.090  12.580   0.832 -1.4893 -0.6920 -0.9762
35561SOL    HW218663  10.954  12.525   0.871 -0.8692 -0.7566  1.2482
35562SOL     OW18664  11.100  10.480   9.790  0.2110  0.1768  0.9001
35562SOL    HW118665  11.141  10.519   9.868  1.2751  0.8343  0.0458
35562SOL    HW218666  11.075  10.555   9.736 -0.8472 -0.2638  0.7491
35563SOL     OW18667   6.361   8.637  13.536 -0.6292  0.0448  0.2625
35563SOL    HW118668   6.420   8.701  13.496 -0.6404 -0.1071  0.0003
35563SOL    HW218669   6.404   8.611  13.617 -0.2796 -0.1515  0.0167
35564SOL     OW18670   7.580   4.876  12.229 -0.0463  0.2454 -0.0794
35564SOL    HW118671   7.578   4.942  12.298  0.1293  1.0963 -0.8521
35564SOL    HW218672   7.509   4.815  12.251  0.3606  0.1986  1.1162
35565SOL     OW18673   1.451   6.170   5.313  0.0207  0.0065  0.5740
35565SOL    HW118674   1.462   6.154   5.219 -2.0368  0.0521  0.2797
35565SOL    HW218675   1.424   6.261   5.318 -0.3872 -0.1445  1.1562
35566SOL     OW18676  10.132   8.863   3.307 -0.4003 -0.3141 -0.1820
35566SOL    HW118677  10.118   8.949   3.266 -1.4022 -1.3655 -2.1931
35566SOL    HW218678  10.197   8.820   3.251 -0.2093 -1.0398  0.5741
35567SOL     OW18679   6.165  12.163   9.757  0.5457  0.3983 -0.1219
35567SOL    HW118680   6.225  12.178   9.830 -1.1921  1.7927  1.0937
35567SOL    HW218681   6.132  12.250   9.734 -2.4804 -0.4239  0.5934
35568SOL     OW18682   4.513   6.723   1.445  0.1895  0.6980 -0.0587
35568SOL    HW118683   4.448   6.653   1.437 -0.1103  0.3945  3.3562
35568SOL    HW218684   4.473   6.799   1.402 -1.8699  0.1428  0.7561
35569SOL     OW18685   3.216   8.823  13.643 -0.3669  0.4206 -0.2529
35569SOL    HW118686   3.132   8.857  13.612 -1.1728 -0.8408  0.4736
35569SOL    HW218687   3.244   8.886  13.709 -1.7517 -0.1835  0.9593
35570SOL     OW18688  10.396   5.856  13.902 -0.1718  0.0960  0.0732
35570SOL    HW118689  10.392   5.786  13.836 -0.6374 -1.8929  2.0995
35570SOL    HW218690  10.304   5.882  13.914  0.0562  1.6590 -1.1850
35571SOL     OW18691   1.400   3.054  11.100  0.0307 -0.9060 -0.4358
35571SOL    HW118692   1.342   3.127  11.119 -1.0947 -0.1537 -5.4327
35571SOL    HW218693   1.478   3.070  11.154 -0.0223  4.2496 -1.4340
35572SOL     OW18694   6.935   6.309  11.148  0.2028  0.0297  0.3756
35572SOL    HW118695   6.854   6.258  11.160 -0.3330  0.5008 -1.0034
35572SOL    HW218696   6.912   6.397  11.177 -0.2496  0.4976 -1.2510
35573SOL     OW18697  11.186  12.798  11.393 -0.4680 -0.2631  0.7876
35573SOL    HW118698  11.125  12.867  11.417 -2.3681 -2.2545  2.1130
35573SOL    HW218699  11.181  12.795  11.297 -1.9543  0.0975  0.8180
35574SOL     OW18700   1.820   2.891  12.492  0.4013 -0.2132 -0.3002
35574SOL    HW118701   1.845   2.826  12.557 -0.0784  1.3241  1.5065
35574SOL    HW218702   1.892   2.954  12.492 -0.7024  1.1023  0.6053
35575SOL     OW18703   6.751  10.357  10.473 -0.0553 -0.0011  0.8842
35575SOL    HW118704   6.742  10.452  10.464  3.0011  0.3960  0.8582
35575SOL    HW218705   6.748  10.324  10.383  0.3690  0.2664  0.7702
35576SOL     OW18706   6.759   8.825  13.826 -0.0269  0.5113 -0.2263
35576SOL    HW118707   6.852   8.803  13.819 -0.2198  0.0793 -1.9475
35576SOL    HW218708   6.714   8.745  13.797 -0.8840  1.1842 -0.8052
35577SOL     OW18709  12.255  13.274  10.127  0.0082  0.1993  0.1035
35577SOL    HW118710  12.294  13.191  10.154  3.1625  0.6814 -2.3280
35577SOL    HW218711  12.242  13.264  10.032  0.4868  2.4341 -0.2542
35578SOL     OW18712   9.017  13.156   8.415 -0.0334  0.4769 -0.2240
35578SOL    HW118713   9.066  13.237   8.400  0.5795  0.3712  1.0275
35578SOL    HW218714   8.976  13.168   8.500 -1.6576  0.2774 -0.9489
35579SOL     OW18715   6.643  13.898   3.794  0.1236 -0.2900  0.2952
35579SOL    HW118716   6.580  13.854   3.737  0.4156  1.4478 -1.4810
35579SOL    HW218717   6.589  13.941   3.861 -0.6684  1.2204 -1.2244
35580SOL     OW18718   7.526   9.609   2.763  0.3031  0.2754 -0.1727
35580SOL    HW118719   7.444   9.565   2.784  1.7974 -2.5453  0.1054
35580SOL    HW218720   7.547   9.659   2.842 -0.2754 -0.3400  0.3787
35581SOL     OW18721   8.647  13.136   2.127  0.2556 -0.0593  0.7957
35581SOL    HW118722   8.671  13.228   2.124 -1.1404  0.3358  1.0838
35581SOL    HW218723   8.659  13.111   2.219  2.0066 -0.5787  0.4603
35582SOL     OW18724   4.155   6.409  11.900  0.0355 -0.0865  0.1939
35582SOL    HW118725   4.117   6.432  11.985  2.6581  0.1014  1.4218
35582SOL    HW218726   4.114   6.326  11.877  0.2296 -0.8436  2.3431
35583SOL     OW18727   6.819   5.646  13.070 -0.1596  0.6501  0.2179
35583SOL    HW118728   6.795   5.571  13.016 -0.9942 -0.2872  1.8354
35583SOL    HW218729   6.737   5.693  13.084  0.1885  1.3290  0.0346
35584SOL     OW18730   5.004  13.539   0.185 -0.2070  0.3224 -0.5220
35584SOL    HW118731   5.070  13.513   0.248 -0.1296 -0.0135 -0.7386
35584SOL    HW218732   4.973  13.624   0.216  0.0955  0.3321 -0.2434
35585SOL     OW18733  12.356  10.503  10.396 -0.6015  0.1166  0.1545
35585SOL    HW118734  12.355  10.426  10.453  2.4327 -0.8014 -0.8464
35585SOL    HW218735  12.373  10.576  10.454  3.0471 -0.8748  0.5642
35586SOL     OW18736   7.318  12.328   1.887  0.7448 -0.1358  0.3659
35586SOL    HW118737   7.251  12.279   1.839  0.0540  0.3082  0.8618
35586SOL    HW218738   7.380  12.261   1.916  2.2956 -0.2318 -2.8076
35587SOL     OW18739   1.641  12.312  13.487 -0.0771 -0.5708  0.4496
35587SOL    HW118740   1.588  12.360  13.424  1.0219 -0.7506 -0.6620
35587SOL    HW218741   1.673  12.378  13.547  0.6610 -0.0118 -0.5172
35588SOL     OW18742  12.833  12.474  11.380  0.2914 -0.0660  0.0789
35588SOL    HW118743  12.778  12.514  11.312  1.5799 -0.9483 -1.5691
35588SOL    HW218744  12.870  12.396  11.338  2.4353  0.2453  1.2471
35589SOL     OW18745   8.300   3.830   2.755  0.3527  0.0145  0.0634
35589SOL    HW118746   8.316   3.791   2.669  0.3078  0.0627  0.0334
35589SOL    HW218747   8.385   3.864   2.783  0.3019  0.2758 -0.0982
35590SOL     OW18748   2.787  11.575   2.366  0.3392  0.1333 -0.1090
35590SOL    HW118749   2.795  11.554   2.272  0.3199  0.3400 -0.1559
35590SOL    HW218750   2.704  11.621   2.374 -1.9195 -3.6136  0.6649
35591SOL     OW18751   0.614  11.097   5.234 -0.0368  0.1508 -0.1030
35591SOL    HW118752   0.687  11.041   5.206  0.6725  0.0803  1.7442
35591SOL    HW218753   0.537  11.040   5.226 -0.0637  0.4199 -2.6769
35592SOL     OW18754   1.886  11.884   2.281 -0.0235 -0.4401 -0.7959
35592SOL    HW118755   1.848  11.959   2.235  0.7402  0.3122 -0.2438
35592SOL    HW218756   1.971  11.871   2.238  0.2628 -0.3622 -0.2645
35593SOL     OW18757   5.724   8.332  10.369 -0.4918  0.1664  0.1621
35593SOL    HW118758   5.791   8.297  10.310 -1.1515 -0.4725 -0.2269
35593SOL    HW218759   5.724   8.272  10.444 -0.9759 -0.1495 -0.0793
35594SOL     OW18760   9.847   5.694   5.399  0.1233  0.3410 -0.5458
35594SOL    HW118761   9.883   5.659   5.317  2.5786 -1.0350  0.9608
35594SOL    HW218762   9.859   5.789   5.393  1.6930  0.1343 -1.2294
35595SOL     OW18763   5.183   5.721   0.936  0.1855 -0.1074 -0.1682
35595SOL    HW118764   5.191   5.816   0.928 -0.4041 -0.1544 -1.7687
35595SOL    HW218765   5.131   5.695   0.859  1.8302 -1.9133 -0.7419
35596SOL     OW18766   0.467   7.750  12.340 -0.3702  0.2908  0.5546
35596SOL    HW118767   0.545   7.705  12.372 -0.4902 -0.1801  0.1894
35596SOL    HW218768   0.427   7.787  12.418 -0.0290  0.1454  0.8008
35597SOL     OW18769   1.060   7.083   9.654  0.0438  0.2444 -0.3218
35597SOL    HW118770   0.979   7.036   9.634  0.6772 -1.3390  0.6691
35597SOL    HW218771   1.042   7.129   9.736  0.2780 -0.4676  0.1339
35598SOL     OW18772   6.680   3.723   3.363 -0.3545 -0.0076  0.1027
35598SOL    HW118773   6.705   3.763   3.280 -1.7700  0.1307 -0.2814
35598SOL    HW218774   6.758   3.731   3.418  1.4598 -2.1990 -1.9125
35599SOL     OW18775  11.739   3.894   5.452 -0.0109  0.5933 -0.0853
35599SOL    HW118776  11.643   3.885   5.456 -0.0130  0.9547  0.7861
35599SOL    HW218777  11.760   3.873   5.361 -0.7321 -1.1600  0.0959
35600SOL     OW18778   8.152   3.838   6.229  0.2260  0.6296  0.5499
35600SOL    HW118779   8.165   3.822   6.136 -1.5719  1.6841  0.0642
35600SOL    HW218780   8.212   3.910   6.250 -1.1515  2.1447 -0.4592
35601SOL     OW18781   5.853  13.970   0.898  0.7345 -0.2387  0.2287
35601SOL    HW118782   5.866  14.021   0.978 -3.1844 -0.7807  1.4040
35601SOL    HW218783   5.787  14.017   0.849 -0.0940 -2.1316 -0.5782
35602SOL     OW18784  12.912   2.288   4.161  0.2046  0.3199  0.6331
35602SOL    HW118785  12.874   2.350   4.222  1.3434 -0.9125  2.7105
35602SOL    HW218786  12.854   2.212   4.164 -0.7659  0.8974 -1.3222
35603SOL     OW18787   3.404   0.139   0.754 -0.0638  0.1926  0.2466
35603SOL    HW118788   3.401   0.157   0.660 -0.1183 -0.5489  0.1016
35603SOL    HW218789   3.320   0.170   0.787 -0.3157 -0.1548 -0.0608
35604SOL     OW18790   1.578  13.320  10.074 -0.0030 -0.2054  0.3655
35604SOL    HW118791   1.647  13.277  10.022 -1.4696 -2.4555  0.1168
35604SOL    HW218792   1.587  13.281  10.161 -0.4198  0.1342  0.5621
35605SOL     OW18793   8.483   7.638   2.193 -0.2078 -0.0184  0.2663
35605SOL    HW118794   8.458   7.643   2.100 -0.2073  0.7001  0.3061
35605SOL    HW218795   8.553   7.701   2.203  0.3214 -0.6464  0.5972
35606SOL     OW18796   9.300   6.203  10.790 -0.6068 -0.2429 -0.2968
35606SOL    HW118797   9.319   6.148  10.714  1.1483  1.9465 -1.5945
35606SOL    HW218798   9.216   6.244  10.769 -0.1052  0.3946 -1.1546
35607SOL     OW18799  12.349  10.420   9.505  0.1465 -0.1553 -0.6864
35607SOL    HW118800  12.375  10.374   9.424 -1.4691 -1.0858 -0.7266
35607SOL    HW218801  12.254  10.426   9.499  0.1876  1.8924  0.0693
35608SOL     OW18802   3.940   5.266   6.590  0.1063  0.3197 -0.1855
35608SOL    HW118803   4.030   5.286   6.568  0.1742 -0.2484 -0.4272
35608SOL    HW218804   3.888   5.324   6.535  0.3257  1.1002  0.4070
35609SOL     OW18805   3.502   4.009  12.952  0.2515 -0.0286  0.2265
35609SOL    HW118806   3.559   3.999  13.029  0.6415  1.8748  0.2396
35609SOL    HW218807   3.562   4.033  12.881 -0.4461  1.7207  0.1741
35610SOL     OW18808   0.890   5.946   6.133  0.2579  0.1279  0.2760
35610SOL    HW118809   0.895   6.030   6.086 -0.0238 -0.5546 -1.0152
35610SOL    HW218810   0.863   5.970   6.221  1.1087  1.4867  0.2057
35611SOL     OW18811  11.543   7.693  10.777 -0.1494  0.0724  0.6232
35611SOL    HW118812  11.545   7.689  10.682 -0.2412  2.0046  0.5026
35611SOL    HW218813  11.611   7.757  10.800 -0.5502  0.1073  1.8160
35612SOL     OW18814   9.095   0.800   3.050  0.2512  0.2047  0.1960
35612SOL    HW118815   9.186   0.768   3.046  0.4061  0.5845  0.5931
35612SOL    HW218816   9.074   0.801   3.143  0.6603  2.3421  0.3339
35613SOL     OW18817   3.981   0.671   2.031 -0.3160 -0.7404 -0.1672
35613SOL    HW118818   3.997   0.591   2.081 -1.2179 -1.2950 -0.7286
35613SOL    HW218819   3.886   0.682   2.034 -0.1118  0.9062  0.7818
35614SOL     OW18820   9.442  13.984   5.761  0.0464 -0.5277  0.2197
35614SOL    HW118821   9.500  13.943   5.697  0.7042  0.9756 -0.1760
35614SOL    HW218822   9.436  13.920   5.832  1.4522 -1.0989 -0.1423
35615SOL     OW18823  11.036  12.765  12.141  0.2982 -0.4343  0.1254
35615SOL    HW118824  11.027  12.806  12.227  0.1568  0.0515 -0.1173
35615SOL    HW218825  10.964  12.703  12.137  0.7156 -0.9669  0.6331
35616SOL     OW18826   3.929   2.482   3.850 -0.0973  0.2250  0.5801
35616SOL    HW118827   4.018   2.482   3.815 -0.1865 -1.5593  0.2591
35616SOL    HW218828   3.876   2.517   3.778  0.1700 -0.0627  0.2365
35617SOL     OW18829   9.167  10.035   7.161 -0.1055 -0.1947  0.3208
35617SOL    HW118830   9.096  10.099   7.153  1.7349  1.8193 -1.3742
35617SOL    HW218831   9.167   9.990   7.076  1.1147  0.4541 -0.0561
35618SOL     OW18832  10.523  11.564  12.720  0.3074  0.1917 -0.0833
35618SOL    HW118833  10.534  11.550  12.814 -2.5222  0.8677  0.4633
35618SOL    HW218834  10.574  11.644  12.702  0.6310  0.2355  0.9461
35619SOL     OW18835   7.266   6.718   4.222  0.4418 -0.2857 -0.1776
35619SOL    HW118836   7.214   6.763   4.156 -1.9530 -1.7327  0.5517
35619SOL    HW218837   7.287   6.785   4.287 -1.1932  0.2665 -0.1633
35620SOL     OW18838   5.251  10.301  10.417  0.0345  0.2616  0.5537
35620SOL    HW118839   5.288  10.345  10.494 -0.3626 -0.1989  1.0225
35620SOL    HW218840   5.243  10.209  10.445  0.1805  0.0348 -0.1508
35621SOL     OW18841   9.484  12.365   1.134 -0.1258 -0.4817  0.8611
35621SOL    HW118842   9.414  12.403   1.081  1.5122  0.2761 -0.9009
35621SOL    HW218843   9.448  12.282   1.166 -1.2478 -0.9607 -1.4077
35622SOL     OW18844  11.616   0.203   1.272  0.1904  0.0129  0.0682
35622SOL    HW118845  11.614   0.277   1.211  3.8975 -0.1118 -0.4533
35622SOL    HW218846  11.615   0.243   1.359 -0.3763  0.4894 -0.1528
35623SOL     OW18847   0.009   0.740  13.037  0.3446 -0.7848  0.2048
35623SOL    HW118848  -0.041   0.784  12.969 -0.4103  0.9310  1.7627
35623SOL    HW218849  -0.045   0.664  13.060  0.4550 -1.1991 -0.8640
35624SOL     OW18850   7.965   1.033   4.753 -0.3873  0.5366  0.0127
35624SOL    HW118851   8.058   1.024   4.732  0.2856  1.7951  2.1722
35624SOL    HW218852   7.924   0.957   4.712  1.4158  0.4477 -1.7925
35625SOL     OW18853   1.866   4.409   9.138  0.0633  0.4484  0.1038
35625SOL    HW118854   1.810   4.482   9.113 -1.2315 -0.7619 -0.6617
35625SOL    HW218855   1.805   4.342   9.168  1.2635 -0.1033  1.4087
35626SOL     OW18856   0.027   2.781   6.924 -0.2502  0.0228 -0.6253
35626SOL    HW118857  -0.021   2.700   6.904 -1.6592  0.4047  0.9465
35626SOL    HW218858  -0.014   2.848   6.871 -2.5138  0.6166  1.7028
35627SOL     OW18859   2.887  11.465   2.828 -0.2489 -0.4472 -0.9578
35627SOL    HW118860   2.843  11.458   2.744 -0.7384  0.4815 -0.7972
35627SOL    HW218861   2.902  11.375   2.855  0.0680 -0.7556 -2.1118
35628SOL     OW18862  12.804   2.260   2.404  0.3272  0.2357 -0.1878
35628SOL    HW118863  12.886   2.259   2.454  0.3843  0.5636 -0.2733
35628SOL    HW218864  12.783   2.352   2.394  0.4377  0.1830 -0.9753
35629SOL     OW18865   2.731   6.925   1.698  0.2946 -0.2190 -0.1748
35629SOL    HW118866   2.661   6.866   1.729 -0.1998 -0.2035 -1.2224
35629SOL    HW218867   2.807   6.902   1.751  0.5970 -2.9874 -1.6420
35630SOL     OW18868   2.400   8.852  11.941  0.0661 -0.0839  0.2264
35630SOL    HW118869   2.427   8.760  11.945  1.9471  0.4609  1.4504
35630SOL    HW218870   2.305   8.848  11.937  0.0827 -2.0822  0.4956
35631SOL     OW18871   5.384   4.582  12.529  0.0177  0.6472  0.1051
35631SOL    HW118872   5.343   4.618  12.608 -1.2406 -1.3252  0.4433
35631SOL    HW218873   5.478   4.584  12.548 -0.2690 -0.2089  1.9101
35632SOL     OW18874   7.207   3.823   5.800  0.2539  0.5810  0.0823
35632SOL    HW118875   7.256   3.851   5.722 -0.5378 -0.6741 -0.9222
35632SOL    HW218876   7.147   3.756   5.767 -2.5402  2.4090  1.1450
35633SOL     OW18877  12.409   0.119  11.341  0.3913  0.2806  0.0453
35633SOL    HW118878  12.500   0.146  11.323  0.0274  1.4705 -0.1123
35633SOL    HW218879  12.357   0.196  11.320 -0.7778 -0.7232 -0.8982
35634SOL     OW18880   1.990  10.814   1.496  0.0644  0.3825  0.3292
35634SOL    HW118881   2.029  10.865   1.567  0.5313  0.4318  0.0426
35634SOL    HW218882   1.909  10.779   1.533 -0.3313  1.4297  0.4925
35635SOL     OW18883   6.016  12.145   4.884  0.6662 -0.5659  0.0307
35635SOL    HW118884   6.072  12.090   4.829  0.7946  0.0273 -0.4453
35635SOL    HW218885   6.043  12.234   4.864 -0.7108 -0.2360 -0.5315
35636SOL     OW18886  12.422  10.719   4.686  0.6642  0.7689  0.0824
35636SOL    HW118887  12.452  10.639   4.727  0.8227  0.5609 -0.4352
35636SOL    HW218888  12.386  10.691   4.602 -0.1156  1.1254  0.2806
35637SOL     OW18889   0.734  11.977   7.922  0.4590  0.4650  0.1144
35637SOL    HW118890   0.641  11.961   7.933  0.4777 -0.7009 -1.1165
35637SOL    HW218891   0.747  11.982   7.827  1.7020  0.2436  0.2443
35638SOL     OW18892  13.294  12.951  11.228  0.2213  0.3425 -0.0897
35638SOL    HW118893  13.373  12.941  11.282  0.7812 -2.3837 -1.2693
35638SOL    HW218894  13.226  12.973  11.291  1.5428  0.9342  1.2137
35639SOL     OW18895  11.495   8.903  10.341 -0.7978 -0.2669  0.6641
35639SOL    HW118896  11.559   8.842  10.377 -0.1690 -1.7272 -2.5703
35639SOL    HW218897  11.540   8.988  10.342 -0.1088 -0.6183  1.4517
35640SOL     OW18898  12.838  12.019   8.595  0.1478  0.0906 -0.3736
35640SOL    HW118899  12.857  12.109   8.624 -0.6110  0.3315 -0.6092
35640SOL    HW218900  12.744  12.018   8.578  0.2185 -0.6387 -0.7763
35641SOL     OW18901   7.804  10.683   5.291 -0.1768  0.4001 -0.4294
35641SOL    HW118902   7.794  10.718   5.380 -1.3718 -0.9040 -0.0232
35641SOL    HW218903   7.750  10.741   5.237 -0.2826  0.5835 -0.1307
35642SOL     OW18904  12.741   9.869   7.871  0.3324  0.0690 -0.0272
35642SOL    HW118905  12.724   9.873   7.965  0.6750 -1.9017  0.1531
35642SOL    HW218906  12.746   9.961   7.844 -0.8108  0.6768  1.6646
35643SOL     OW18907   7.131  13.324   8.948 -0.2565  0.2372  0.1351
35643SOL    HW118908   7.157  13.411   8.919 -0.0100  0.9439  2.3445
35643SOL    HW218909   7.210  13.271   8.939  0.2778  0.8585  1.0456
35644SOL     OW18910   3.819   7.998   9.478  0.4323 -0.3268 -0.6373
35644SOL    HW118911   3.740   7.948   9.461 -0.2980  0.4336  0.4207
35644SOL    HW218912   3.886   7.932   9.495  0.2882 -1.0014 -2.4772
35645SOL     OW18913  13.793   3.839   8.862  0.3017 -0.0149  0.0657
35645SOL    HW118914  13.742   3.879   8.933  0.1397 -0.5459  0.2495
35645SOL    HW218915  13.730   3.782   8.817  0.4477  0.1835 -0.4033
35646SOL     OW18916   6.071   3.563   1.324  0.6295  0.4887  0.4592
35646SOL    HW118917   6.010   3.536   1.393 -0.7418 -1.1749 -1.2713
35646SOL    HW218918   6.062   3.658   1.320 -1.7018  0.3383  0.4820
35647SOL     OW18919   8.551   9.536   4.748  0.9263 -0.2822 -0.1296
35647SOL    HW118920   8.546   9.631   4.735 -0.0792 -0.4242 -0.9182
35647SOL    HW218921   8.602   9.525   4.829  2.4880  0.8517 -0.9165
35648SOL     OW18922   0.922  13.668   8.395 -0.4363  0.6218  0.3022
35648SOL    HW118923   0.834  13.670   8.358 -0.2737 -0.1580 -0.1382
35648SOL    HW218924   0.979  13.647   8.321  0.1288  1.1450  0.5758
35649SOL     OW18925  13.814   8.582   3.817  0.1765 -0.0869 -0.4861
35649SOL    HW118926  13.751   8.598   3.887  2.4067 -0.3752  1.7205
35649SOL    HW218927  13.811   8.661   3.763 -0.8267  0.6157  0.5695
35650SOL     OW18928  10.073   3.056  10.770 -0.2942  0.5718 -0.1517
35650SOL    HW118929  10.144   2.992  10.764 -0.4649  0.0564  2.4079
35650SOL    HW218930  10.031   3.038  10.854 -0.3922  4.0545  0.6777
35651SOL     OW18931   3.470  12.124   4.691 -0.4740 -0.0020 -0.1019
35651SOL    HW118932   3.463  12.092   4.601 -0.3268  0.7233 -0.3753
35651SOL    HW218933   3.519  12.206   4.684 -0.6036  0.1461  0.6205
35652SOL     OW18934   1.399   6.008   7.935 -0.0201 -0.4421  0.6617
35652SOL    HW118935   1.377   5.919   7.908  0.4186 -0.4701  0.3851
35652SOL    HW218936   1.397   6.058   7.854  3.8089 -1.0099  0.0410
35653SOL     OW18937   5.300   2.580   6.673 -0.4516  0.2972 -0.1735
35653SOL    HW118938   5.208   2.606   6.673 -0.1011  1.7091  1.0520
35653SOL    HW218939   5.324   2.577   6.581 -1.9261 -0.9351 -0.5541
35654SOL     OW18940   5.988   8.974   0.564 -0.3652  0.2968  0.1230
35654SOL    HW118941   5.982   8.968   0.469  1.2372  1.3055 -0.0752
35654SOL    HW218942   6.074   8.936   0.585 -0.1968  1.1455  1.0344
35655SOL     OW18943  13.314   9.021  10.820  0.0274 -0.0578 -0.0775
35655SOL    HW118944  13.394   9.046  10.774  0.3048 -0.9859 -0.1237
35655SOL    HW218945  13.331   8.932  10.851 -0.2240  0.4478  1.6438
35656SOL     OW18946   4.050   2.006   6.952 -0.2032  0.0313 -0.3633
35656SOL    HW118947   3.963   1.979   6.921  0.3432 -2.0702 -0.2133
35656SOL    HW218948   4.036   2.039   7.040 -0.9345  0.3592 -0.5982
35657SOL     OW18949  11.956  12.930  11.219  0.5510  0.6707  0.0383
35657SOL    HW118950  11.879  12.971  11.179 -0.6981 -1.3325  0.2886
35657SOL    HW218951  11.960  12.970  11.307 -1.0973 -0.2190  0.5632
35658SOL     OW18952   7.109   6.262   0.953  0.4639 -0.0870  0.1916
35658SOL    HW118953   7.174   6.195   0.933  1.3798  1.4081 -2.3189
35658SOL    HW218954   7.028   6.212   0.970  1.8100 -1.9040  1.7296
35659SOL     OW18955  10.913   4.227   9.977  0.0566  0.0311  0.2026
35659SOL    HW118956  10.977   4.293   9.948 -1.8300  2.0644  0.4331
35659SOL    HW218957  10.960   4.144   9.970  2.7828  1.4296  0.5374
35660SOL     OW18958  11.657   2.531   5.946  0.2297  0.7642  0.1788
35660SOL    HW118959  11.593   2.600   5.931  1.0182  1.1262 -1.8311
35660SOL    HW218960  11.667   2.528   6.041 -0.7735  2.5245  0.3780
35661SOL     OW18961   9.667   8.275  10.472  0.0827 -0.3614  0.6097
35661SOL    HW118962   9.606   8.225  10.418 -2.1957  1.1983  1.5775
35661SOL    HW218963   9.649   8.248  10.562  0.8135  0.1349  0.9211
35662SOL     OW18964   1.317  11.844  13.134 -0.0204 -0.1921  0.0674
35662SOL    HW118965   1.250  11.854  13.202 -0.4831  2.8745 -0.7167
35662SOL    HW218966   1.398  11.875  13.176  0.2272 -0.7295 -0.0067
35663SOL     OW18967  11.660   6.263   2.640  0.0095 -0.0791 -0.2769
35663SOL    HW118968  11.678   6.282   2.733 -0.2424  0.7495 -0.3916
35663SOL    HW218969  11.602   6.187   2.643  0.1371 -0.1660  0.2406
35664SOL     OW18970   5.403   4.471  12.000  0.2510  0.2805 -0.0049
35664SOL    HW118971   5.445   4.388  11.977  0.8324  0.6309 -0.1987
35664SOL    HW218972   5.374   4.458  12.091  0.7534  0.0329  0.1243
35665SOL     OW18973   3.023   4.884  13.235  0.3388  0.2981 -0.4689
35665SOL    HW118974   3.033   4.975  13.206 -0.6944  1.1800  1.7104
35665SOL    HW218975   2.928   4.871  13.241  0.4813 -0.3501  0.8229
35666SOL     OW18976  10.822  11.693  10.086 -0.3119  0.1317 -0.3985
35666SOL    HW118977  10.875  11.773  10.086  1.0061 -0.6478  1.7895
35666SOL    HW218978  10.885  11.622  10.081 -0.8244 -0.8873  3.5896
35667SOL     OW18979   1.605   1.672   2.781 -0.0393  0.2069 -0.3861
35667SOL    HW118980   1.571   1.632   2.861 -0.4835 -0.2856 -0.8161
35667SOL    HW218981   1.543   1.647   2.713  0.6291  0.1562 -0.9899
35668SOL     OW18982   8.762   4.769   3.447  0.2112 -0.3421  0.6175
35668SOL    HW118983   8.825   4.775   3.376 -0.2114 -1.5472  0.1143
35668SOL    HW218984   8.727   4.680   3.441 -1.0578  0.0822  1.2969
35669SOL     OW18985   3.148   2.103   5.618  0.0864 -0.1671  0.5877
35669SOL    HW118986   3.213   2.156   5.664 -1.1742  0.3585  1.8526
35669SOL    HW218987   3.199   2.044   5.563  1.6279  0.0804  1.6930
35670SOL     OW18988   0.082   3.950   0.751 -0.0422 -0.4278 -0.4229
35670SOL    HW118989   0.149   3.997   0.800 -0.4777 -1.3630  1.1381
35670SOL    HW218990   0.127   3.922   0.671  0.1940  2.6394 -1.4785
35671SOL     OW18991   6.068   3.822   1.333  0.1612 -0.4277 -0.0971
35671SOL    HW118992   6.147   3.872   1.313 -0.2379  2.1640  3.6272
35671SOL    HW218993   5.997   3.871   1.291  0.0428  0.7762  1.4099
35672SOL     OW18994   5.524   3.026   7.954 -0.3349 -0.1637 -0.3372
35672SOL    HW118995   5.456   2.967   7.924 -1.4530  0.5650  0.6959
35672SOL    HW218996   5.560   2.984   8.032 -0.9365  0.3540  0.2328
35673SOL     OW18997  11.337  10.751   2.586  0.1138  0.1111  0.1302
35673SOL    HW118998  11.304  10.821   2.530 -0.1646  1.5789  2.0003
35673SOL    HW218999  11.431  10.749   2.570 -0.0310  0.1562 -0.7509
35674SOL     OW19000   8.272   7.467  13.164  0.6565 -0.0222  0.3301
35674SOL    HW119001   8.229   7.477  13.249 -0.7661 -1.2335 -0.2176
35674SOL    HW219002   8.227   7.527  13.106  0.2591 -0.6650 -0.0400
35675SOL     OW19003   5.829   7.986  12.746  0.1292 -0.0835  0.2581
35675SOL    HW119004   5.817   8.079  12.766  0.3392 -0.1533  0.7181
35675SOL    HW219005   5.740   7.950  12.747 -0.2073  0.5101 -2.0213
35676SOL     OW19006   2.748   9.362   8.037 -0.1520  0.0625  0.9175
35676SOL    HW119007   2.708   9.421   7.973  1.7901  2.1713  1.5043
35676SOL    HW219008   2.783   9.290   7.985 -1.8669 -0.2276  0.0836
35677SOL     OW19009  10.103   2.477   1.168  0.0822  0.2878  0.7918
35677SOL    HW119010  10.145   2.506   1.087  2.7393 -0.4966  1.7720
35677SOL    HW219011  10.079   2.557   1.214  0.4075  0.7741  0.1208
35678SOL     OW19012   5.390   0.489   1.667  0.4146 -0.0336  0.3052
35678SOL    HW119013   5.302   0.465   1.697 -0.1743 -0.8123 -1.8346
35678SOL    HW219014   5.414   0.563   1.722 -2.2120  1.1607  0.0311
35679SOL     OW19015   2.165   8.109   0.043 -0.0218 -0.0023 -0.1371
35679SOL    HW119016   2.208   8.096  -0.042  2.6547 -0.4652  1.2085
35679SOL    HW219017   2.235   8.102   0.107 -2.0106  0.0920  2.1747
35680SOL     OW19018   7.286  13.851   5.742 -0.3200 -0.3344 -0.2793
35680SOL    HW119019   7.236  13.874   5.821 -0.9537 -0.4727 -0.6328
35680SOL    HW219020   7.341  13.778   5.769 -0.7914 -0.6096 -0.0549
35681SOL     OW19021  12.113   3.227   4.229  0.1667  0.5508  0.0458
35681SOL    HW119022  12.036   3.269   4.268 -0.5642 -0.2403 -0.4938
35681SOL    HW219023  12.186   3.255   4.284 -0.7371  0.0095  1.5877
35682SOL     OW19024   9.745  12.840  12.272 -0.1723  0.6558 -0.1409
35682SOL    HW119025   9.652  12.821  12.258 -0.4896  2.0281  0.0237
35682SOL    HW219026   9.785  12.833  12.185 -0.1151 -1.3948 -0.0081
35683SOL     OW19027  13.901   8.116   2.160 -0.7250  0.5373 -0.3993
35683SOL    HW119028  13.951   8.037   2.178 -0.8977  0.6350  0.5687
35683SOL    HW219029  13.875   8.108   2.068  0.1986  0.0082 -0.6269
35684SOL     OW19030   6.808   1.747   2.202 -0.4847  0.3580 -0.3595
35684SOL    HW119031   6.720   1.716   2.179 -1.1320  0.9128  1.2224
35684SOL    HW219032   6.863   1.668   2.198 -1.4755 -0.4196  0.6034
35685SOL     OW19033  12.457  12.068   2.336 -0.3965  0.1353  0.3215
35685SOL    HW119034  12.432  12.005   2.269 -0.2067  0.6552 -0.2438
35685SOL    HW219035  12.488  12.145   2.287 -0.2098  0.5003  0.9988
35686SOL     OW19036  13.169   9.673   1.210  0.1740  0.4516 -0.1939
35686SOL    HW119037  13.216   9.591   1.195 -0.0321  0.1682  0.6602
35686SOL    HW219038  13.129   9.693   1.125 -1.5856 -1.5017  0.0760
35687SOL     OW19039   7.273   0.801   1.676 -0.0084 -0.1741  0.5308
35687SOL    HW119040   7.181   0.781   1.657 -0.2928  1.0285  0.6217
35687SOL    HW219041   7.319   0.783   1.593 -0.4028 -0.2556  0.3293
35688SOL     OW19042  13.680  12.576   7.545 -0.0768  0.4429 -0.2751
35688SOL    HW119043  13.588  12.595   7.527 -0.0880  1.1113  0.4054
35688SOL    HW219044  13.692  12.605   7.636  0.2946 -1.5279  0.3371
35689SOL     OW19045   5.321  13.712   2.290  0.3286  0.3632  0.2554
35689SOL    HW119046   5.285  13.644   2.348  0.3943 -0.3891 -0.5619
35689SOL    HW219047   5.347  13.783   2.349 -1.2729  0.3850  0.9896
35690SOL     OW19048   8.753   7.896   4.993  0.0392 -0.0770 -0.4132
35690SOL    HW119049   8.724   7.984   5.019  0.6398  0.1932 -0.6494
35690SOL    HW219050   8.694   7.837   5.040 -0.8165  0.4598 -0.7882
35691SOL     OW19051  11.496   7.014   5.117  0.0883  0.3036 -0.0864
35691SOL    HW119052  11.492   6.956   5.041  0.1936  0.0152  0.1261
35691SOL    HW219053  11.416   7.065   5.112 -0.6556 -0.7592  0.4332
35692SOL     OW19054  10.848  10.115   6.733 -0.4714 -0.7306 -0.3894
35692SOL    HW119055  10.753  10.101   6.733 -0.7374  0.8135  0.4538
35692SOL    HW219056  10.858  10.209   6.750  1.2093 -0.8045 -0.8392
35693SOL     OW19057   4.488   8.971  11.244 -0.7765 -0.2175  0.4900
35693SOL    HW119058   4.485   8.876  11.258  0.2533 -0.5077 -1.0899
35693SOL    HW219059   4.485   8.982  11.149  0.8627  1.2454  0.5703
35694SOL     OW19060   9.303   3.022  10.699  0.3674  0.0608 -0.4589
35694SOL    HW119061   9.250   3.095  10.669  0.8827  0.4150 -0.5190
35694SOL    HW219062   9.270   2.946  10.650  0.2966  0.3843 -0.9137
35695SOL     OW19063   7.027   2.817   7.509  0.2418  0.0080 -0.0320
35695SOL    HW119064   7.117   2.783   7.503 -0.3642 -1.5523 -1.0123
35695SOL    HW219065   7.008   2.816   7.603  0.2476 -2.6162  0.0192
35696SOL     OW19066  12.481   1.467   3.741  0.3333 -0.7356 -0.0914
35696SOL    HW119067  12.532   1.428   3.670  2.8592  1.4971  0.3340
35696SOL    HW219068  12.399   1.494   3.699  1.0747 -0.9527 -1.7921
35697SOL     OW19069   9.611  14.038   6.230  0.2687 -0.3545  0.2669
35697SOL    HW119070   9.675  13.994   6.174  2.2637  1.4827  0.9807
35697SOL    HW219071   9.528  13.996   6.208  1.0063 -0.1942 -3.6417
35698SOL     OW19072   5.749   7.431   1.983 -0.0525  0.0720 -0.2406
35698SOL    HW119073   5.691   7.360   1.955  0.2711 -0.6417  0.8334
35698SOL    HW219074   5.811   7.389   2.042  0.3757  1.1901  0.1216
35699SOL     OW19075   5.985   8.706   7.347  0.2134 -0.2172 -0.0384
35699SOL    HW119076   6.015   8.762   7.275 -1.1779  0.1562 -0.3437
35699SOL    HW219077   5.930   8.640   7.305  0.5466 -0.8776  0.5228
35700SOL     OW19078  12.058   4.168   6.345 -0.4144  0.1854 -0.3397
35700SOL    HW119079  12.132   4.152   6.286  1.0389  0.1214  1.4267
35700SOL    HW219080  12.039   4.261   6.336  0.3985  0.3637 -0.2350
35701SOL     OW19081   2.377   3.834   0.116 -0.0750  0.1225 -0.8869
35701SOL    HW119082   2.289   3.867   0.100 -0.0531  0.6783  0.0628
35701SOL    HW219083   2.434   3.891   0.065 -0.2666 -0.3919 -1.7039
35702SOL     OW19084   5.891   3.103   5.520 -0.0159  0.3524 -0.3051
35702SOL    HW119085   5.964   3.165   5.512 -0.8129  1.2086 -1.4025
35702SOL    HW219086   5.896   3.051   5.440 -0.3080  0.0796 -0.1464
35703SOL     OW19087   2.934   2.811   9.110  0.2476 -0.3600  0.3512
35703SOL    HW119088   3.000   2.742   9.115  0.8655  0.1552 -0.5525
35703SOL    HW219089   2.868   2.776   9.049  1.6449  0.6959 -1.8739
35704SOL     OW19090   2.254   3.468   9.361 -0.4266 -0.4267 -0.0416
35704SOL    HW119091   2.194   3.478   9.435  0.4026  0.2517  0.5593
35704SOL    HW219092   2.273   3.558   9.335  0.5409 -0.6288 -0.0459
35705SOL     OW19093   9.405   5.273   4.185  0.6760  0.6280 -0.5241
35705SOL    HW119094   9.466   5.218   4.233 -0.9957  0.7020  1.8381
35705SOL    HW219095   9.384   5.345   4.245 -1.9219  0.4609 -1.1020
35706SOL     OW19096   9.969   1.497   4.105 -0.4181 -0.0843 -0.0370
35706SOL    HW119097  10.044   1.475   4.049 -0.9071 -1.6203 -0.1255
35706SOL    HW219098   9.930   1.575   4.064  0.4620  0.0637 -0.6137
35707SOL     OW19099  13.511  10.858   1.006 -0.9417  0.2034  0.1827
35707SOL    HW119100  13.519  10.814   0.921  1.5662 -0.1178  0.5331
35707SOL    HW219101  13.434  10.817   1.046 -1.7282 -0.1745 -1.5758
35708SOL     OW19102  12.863  11.894   2.899  0.5342 -0.3636  0.1673
35708SOL    HW119103  12.884  11.929   2.813  1.4629  1.1234  0.9599
35708SOL    HW219104  12.777  11.853   2.888 -0.8567  2.5170 -0.7719
35709SOL     OW19105   0.679   0.281   6.645 -0.2393  0.1910 -0.0488
35709SOL    HW119106   0.743   0.245   6.584  0.7150  0.3972  0.8004
35709SOL    HW219107   0.606   0.310   6.589  0.6403  0.4610 -1.0991
35710SOL     OW19108   4.971   4.794  13.631 -0.3481  0.2501  0.3380
35710SOL    HW119109   4.885   4.764  13.659  0.5950 -0.8918  2.2217
35710SOL    HW219110   5.022   4.714  13.620  0.2294  0.8345 -1.8473
35711SOL     OW19111  13.465  10.808  10.701 -0.4607  0.3672 -0.4704
35711SOL    HW119112  13.456  10.793  10.607  0.0800 -0.8306 -0.3426
35711SOL    HW219113  13.557  10.831  10.713  0.5599 -3.4022  0.1968
35712SOL     OW19114  12.965   7.106  12.705 -0.3491  0.0561 -0.0213
35712SOL    HW119115  13.049   7.066  12.725 -1.3956 -1.7809  0.9616
35712SOL    HW219116  12.933   7.140  12.788 -0.6018  0.7270 -0.3784
35713SOL     OW19117   7.502   5.226  13.419 -0.0697 -0.4525  0.1553
35713SOL    HW119118   7.565   5.160  13.447 -0.4172 -0.9592 -0.2455
35713SOL    HW219119   7.427   5.214  13.476 -0.6083 -1.2061 -0.6826
35714SOL     OW19120   3.220   2.249  11.295 -0.5855 -0.3532  0.0824
35714SOL    HW119121   3.129   2.254  11.322 -0.8646 -0.0171 -0.8677
35714SOL    HW219122   3.218   2.204  11.211  0.1137 -0.2438 -0.0006
35715SOL     OW19123  12.029   6.492   5.993  0.1841 -0.7488 -0.2791
35715SOL    HW119124  12.088   6.421   5.971  1.9173  0.6929 -0.4448
35715SOL    HW219125  12.063   6.568   5.947 -1.6853  0.1937 -0.2027
35716SOL     OW19126  11.587  11.313  12.945 -0.6678 -0.6968 -0.0171
35716SOL    HW119127  11.557  11.376  13.010 -1.5256 -1.4769  0.3709
35716SOL    HW219128  11.568  11.354  12.861  0.9361  0.5557  0.1785
35717SOL     OW19129   4.622   7.525  12.557  0.5338  0.0023  0.7087
35717SOL    HW119130   4.584   7.456  12.503  2.0689 -0.4453  0.1540
35717SOL    HW219131   4.673   7.479  12.623 -1.7450  0.5283  2.9660
35718SOL     OW19132   7.469  11.298   7.003 -0.3446 -0.7028  0.2753
35718SOL    HW119133   7.403  11.230   6.988 -0.2207 -0.8262  0.2909
35718SOL    HW219134   7.424  11.365   7.054 -0.2093 -1.1941  1.0555
35719SOL     OW19135   2.577   0.874  11.944 -0.0007 -0.5250  0.2307
35719SOL    HW119136   2.667   0.905  11.956  1.3386 -1.7347 -4.4768
35719SOL    HW219137   2.577   0.785  11.979 -0.1304  0.2122  2.2477
35720SOL     OW19138  10.726   6.831   9.770 -0.1153  0.8784 -0.3216
35720SOL    HW119139  10.799   6.824   9.830 -0.1854  1.2896 -0.1910
35720SOL    HW219140  10.761   6.800   9.686 -0.2869 -0.6602  0.1321
35721SOL     OW19141  12.601  10.687  12.350 -0.5461 -0.0594 -0.4042
35721SOL    HW119142  12.655  10.763  12.372 -1.5969  0.1078  1.8610
35721SOL    HW219143  12.613  10.627  12.424 -3.6401  0.1246  0.3709
35722SOL     OW19144   4.145   6.379   9.386 -0.6618  0.5846 -0.1680
35722SOL    HW119145   4.183   6.311   9.442  1.7582  0.1582 -2.1653
35722SOL    HW219146   4.128   6.335   9.303  0.4156  2.2165 -1.3205
35723SOL     OW19147  10.121   9.541   7.148  0.0689 -0.0723 -0.3477
35723SOL    HW119148  10.129   9.453   7.112  1.9667 -1.1569  2.4069
35723SOL    HW219149  10.205   9.583   7.126 -0.1017  0.4092 -0.0899
35724SOL     OW19150  12.126  13.640  11.576  0.1074 -0.0820 -0.2043
35724SOL    HW119151  12.175  13.617  11.655  0.7691  0.8480 -0.3199
35724SOL    HW219152  12.168  13.720  11.545 -0.0643 -0.4997 -1.5715
35725SOL     OW19153  10.507   8.609   9.354  0.0683 -0.1600 -0.0560
35725SOL    HW119154  10.505   8.611   9.450 -0.0099  0.9847 -0.0769
35725SOL    HW219155  10.588   8.653   9.330 -0.4440  0.5510 -0.5312
35726SOL     OW19156  12.688  10.823  13.908 -0.0518 -0.6533 -0.1413
35726SOL    HW119157  12.757  10.810  13.843  0.2714 -0.8014  0.2263
35726SOL    HW219158  12.629  10.748  13.895  0.1621 -0.8338 -0.0783
35727SOL     OW19159  13.615   6.749   9.607  0.0938 -0.2604 -0.3296
35727SOL    HW119160  13.604   6.761   9.513 -1.2360  2.8643  0.1116
35727SOL    HW219161  13.701   6.787   9.627 -0.3748  0.6874 -0.0757
35728SOL     OW19162   5.337  13.267  12.529 -0.0992  0.7476 -0.2044
35728SOL    HW119163   5.278  13.294  12.600  0.7528 -0.9800  1.2579
35728SOL    HW219164   5.278  13.232  12.462 -0.8380 -0.2177  0.8850
35729SOL     OW19165  11.551   4.414   1.684  0.1066 -0.2994  0.6497
35729SOL    HW119166  11.523   4.333   1.725 -0.4235  0.5712  2.0468
35729SOL    HW219167  11.489   4.480   1.714 -0.8790  0.2555 -2.2793
35730SOL     OW19168   2.753   1.191  10.016 -0.1892  0.0194 -0.7261
35730SOL    HW119169   2.841   1.220   9.992  0.2375 -0.3054  0.3498
35730SOL    HW219170   2.731   1.244  10.093 -1.3144  0.7252 -1.5014
35731SOL     OW19171   8.224   1.231   0.907 -0.5761  0.0165 -0.3425
35731SOL    HW119172   8.154   1.296   0.903  0.1988  0.8697 -0.4671
35731SOL    HW219173   8.291   1.264   0.846  0.1975 -0.4362  0.2399
35732SOL     OW19174  12.110   6.589   2.465  0.4154 -0.5315 -0.3448
35732SOL    HW119175  12.073   6.659   2.412  2.9498  0.0016 -1.5438
35732SOL    HW219176  12.088   6.613   2.555  0.8579  1.6172 -0.7590
35733SOL     OW19177   3.615   6.109  12.528 -0.0980  0.5893 -0.2926
35733SOL    HW119178   3.702   6.071  12.538 -0.1728  0.4121 -0.3155
35733SOL    HW219179   3.618   6.191  12.577  0.6249  1.4414 -1.6845
35734SOL     OW19180   1.438   6.650  11.787 -0.1915  0.1654  0.0539
35734SOL    HW119181   1.502   6.670  11.719 -1.7161 -1.4513 -1.9648
35734SOL    HW219182   1.489   6.606  11.855  1.1221  0.5241 -0.6666
35735SOL     OW19183   8.024  11.713   2.672 -0.0816 -0.1485 -0.0072
35735SOL    HW119184   7.947  11.769   2.675 -0.2598 -0.4182  0.8368
35735SOL    HW219185   8.093  11.769   2.636 -0.2746  0.6038  0.7496
35736SOL     OW19186  10.768  10.918   0.966  0.4282  0.0001 -0.1022
35736SOL    HW119187  10.766  10.916   1.062 -0.1009 -0.1691 -0.1104
35736SOL    HW219188  10.827  10.990   0.945 -0.7647  1.1603  0.3638
35737SOL     OW19189   3.828   1.378  11.545  0.1389 -0.4581 -0.6593
35737SOL    HW119190   3.814   1.304  11.605 -1.2797 -0.5062 -1.0196
35737SOL    HW219191   3.787   1.351  11.464  1.1219  0.0483 -1.3493
35738SOL     OW19192  12.827   9.465   9.558  0.0727  0.2070 -0.2395
35738SOL    HW119193  12.858   9.374   9.551 -2.8017 -0.7549 -3.0564
35738SOL    HW219194  12.741   9.458   9.598  0.0695  1.7810  0.0823
35739SOL     OW19195   9.897   4.602   1.926 -0.1316 -0.4191  0.0359
35739SOL    HW119196   9.852   4.535   1.978 -0.0856 -0.4960 -0.0231
35739SOL    HW219197   9.920   4.557   1.845  3.0309 -1.3923  1.3372
35740SOL     OW19198   7.335  12.298   9.578  0.3856 -0.0227  0.3445
35740SOL    HW119199   7.349  12.393   9.569 -0.1475  0.0610  0.3323
35740SOL    HW219200   7.240  12.287   9.567  0.6084 -0.7192 -1.0343
35741SOL     OW19201   9.373   3.499   0.110  0.5231 -0.7129 -0.0928
35741SOL    HW119202   9.459   3.514   0.149  0.4724  1.5227 -0.6639
35741SOL    HW219203   9.312   3.540   0.171 -0.0909 -1.7302 -0.0069
35742SOL     OW19204   7.180  12.858   7.394  0.1896 -0.0160  0.1193
35742SOL    HW119205   7.120  12.921   7.433  1.6746  1.0557  0.8130
35742SOL    HW219206   7.216  12.902   7.317  0.0928 -0.6384 -0.2927
35743SOL     OW19207  12.453   2.073   6.753  0.1922 -0.4552  0.1833
35743SOL    HW119208  12.517   2.128   6.798  0.4382 -1.7817  1.5245
35743SOL    HW219209  12.476   2.080   6.661 -0.0840  2.0419  0.2325
35744SOL     OW19210   6.483   1.689   3.431 -0.1015 -0.1344  0.0891
35744SOL    HW119211   6.515   1.689   3.521  1.9932 -0.2192 -0.5890
35744SOL    HW219212   6.492   1.780   3.402  0.4061 -0.3339 -0.3989
35745SOL     OW19213   8.863   9.664   1.702  0.6715  0.2405 -0.1925
35745SOL    HW119214   8.897   9.609   1.632  0.1656  0.2779 -0.4733
35745SOL    HW219215   8.795   9.716   1.660  0.3325  0.2298  0.3430
35746SOL     OW19216   6.196   2.422   1.711  0.2994 -0.3320  0.3688
35746SOL    HW119217   6.226   2.421   1.802  1.9390 -1.8238 -0.1294
35746SOL    HW219218   6.209   2.512   1.682 -0.7037  0.2851  1.7228
35747SOL     OW19219   1.712   9.618  14.022  0.0660 -0.2296 -0.4265
35747SOL    HW119220   1.776   9.617  13.951 -1.2823  0.8322 -1.7153
35747SOL    HW219221   1.643   9.678  13.992 -1.5945 -1.4011  0.8438
35748SOL     OW19222   5.139   4.815  10.752  0.1236  0.3331 -0.6240
35748SOL    HW119223   5.123   4.759  10.828  1.1730  0.4180 -0.3200
35748SOL    HW219224   5.166   4.899  10.789  2.4577 -0.1642 -1.0416
35749SOL     OW19225   7.794   9.799   1.995  0.2957 -0.1303  0.3360
35749SOL    HW119226   7.785   9.711   1.958 -1.4020  0.9333 -1.9981
35749SOL    HW219227   7.856   9.843   1.937  0.4446  0.4833  0.9487
35750SOL     OW19228  10.348   9.682  13.824 -0.1086  0.0598 -0.8031
35750SOL    HW119229  10.400   9.711  13.899  0.4058 -1.1128 -0.6945
35750SOL    HW219230  10.274   9.636  13.863 -0.3077  0.2212 -0.9935
35751SOL     OW19231  13.486  12.014   9.926 -0.3485  0.5988 -0.6695
35751SOL    HW119232  13.574  12.049   9.935 -0.2337  0.2250 -0.3008
35751SOL    HW219233  13.465  12.025   9.833  0.5222 -0.3156 -0.9928
35752SOL     OW19234   7.459   1.874  10.686 -0.5685 -0.2851  0.3126
35752SOL    HW119235   7.507   1.872  10.769  0.1659  0.4307 -0.0873
35752SOL    HW219236   7.393   1.805  10.695  0.0447 -0.7765  1.1630
35753SOL     OW19237  11.818   1.665   1.278 -0.1010  0.5492  0.0242
35753SOL    HW119238  11.816   1.758   1.300 -2.1441  0.5014  0.2328
35753SOL    HW219239  11.726   1.642   1.263  0.5037 -1.1094 -1.4470
35754SOL     OW19240   4.221  13.098   5.908 -0.2303 -0.4943 -0.4550
35754SOL    HW119241   4.132  13.079   5.939 -0.1140 -0.6962 -0.2338
35754SOL    HW219242   4.242  13.025   5.851 -0.3547 -0.2421 -0.8248
35755SOL     OW19243  10.398   9.017   7.088 -0.4246  0.4468 -0.1390
35755SOL    HW119244  10.468   8.996   7.150 -0.0778  0.6359 -0.4638
35755SOL    HW219245  10.443   9.034   7.006 -1.0153 -1.7964 -0.9915
35756SOL     OW19246   2.319   3.105   9.632 -0.6739  0.5295  0.2257
35756SOL    HW119247   2.359   3.190   9.620  0.4893  0.0341  0.4566
35756SOL    HW219248   2.301   3.100   9.726  1.6123 -0.4431  0.6808
35757SOL     OW19249   8.532  11.549  10.787  0.4378 -0.4553  0.3508
35757SOL    HW119250   8.624  11.559  10.764  0.6785  0.0388  1.4739
35757SOL    HW219251   8.528  11.569  10.880 -0.3209 -3.4127  1.0701
35758SOL     OW19252   5.930  12.368  10.558  0.5659  0.0049  0.2014
35758SOL    HW119253   5.940  12.278  10.589  1.1539  0.6046  1.8919
35758SOL    HW219254   6.008  12.384  10.505 -0.2486 -0.9125 -1.3273
35759SOL     OW19255   3.988  12.972   5.845  0.0584  0.4291  0.3193
35759SOL    HW119256   3.992  12.936   5.757 -1.4638 -0.2975  0.5133
35759SOL    HW219257   3.907  13.023   5.847  1.4371  2.7969  0.4979
35760SOL     OW19258   6.294   5.176   1.917 -0.0299 -0.4027 -0.1330
35760SOL    HW119259   6.272   5.083   1.922 -1.1143 -0.2996 -2.1563
35760SOL    HW219260   6.213   5.222   1.937  0.3408  0.1257  0.2184
35761SOL     OW19261  10.643   5.547   2.420 -0.1165 -0.0070 -0.3595
35761SOL    HW119262  10.595   5.568   2.500 -0.1344  0.5985 -0.5233
35761SOL    HW219263  10.576   5.514   2.360 -0.0821 -0.5840 -0.0884
35762SOL     OW19264   6.940  13.978  10.240 -0.4579 -0.2850  0.0884
35762SOL    HW119265   6.960  14.059  10.192 -2.2004  0.3951  0.4445
35762SOL    HW219266   6.890  14.007  10.316 -1.1685 -1.6993  0.1875
35763SOL     OW19267   0.268   2.994   5.503  0.2833 -0.0972  0.0120
35763SOL    HW119268   0.225   3.069   5.462 -0.8259 -0.7097  0.0041
35763SOL    HW219269   0.340   3.032   5.554 -0.2799  0.9701  0.0427
35764SOL     OW19270  10.799   2.354   4.889  0.1146 -0.2187 -0.5887
35764SOL    HW119271  10.836   2.334   4.802  0.9812 -0.0595 -0.2663
35764SOL    HW219272  10.716   2.398   4.870 -1.1295 -2.7244 -1.3293
35765SOL     OW19273   1.574  11.403  10.788 -0.1073 -0.1145  0.7620
35765SOL    HW119274   1.603  11.408  10.697 -1.2678 -1.2373  0.3001
35765SOL    HW219275   1.651  11.374  10.837  0.0808 -1.1283 -0.1208
35766SOL     OW19276   8.257   3.362   7.788  0.1911  0.1706  0.0137
35766SOL    HW119277   8.343   3.349   7.748  0.0517  2.2900 -1.1399
35766SOL    HW219278   8.219   3.435   7.738 -1.6180  0.3308  1.5406
35767SOL     OW19279   4.394   1.835   5.515 -0.2896 -0.3374 -0.6816
35767SOL    HW119280   4.467   1.775   5.533  0.3611  0.6054 -0.0521
35767SOL    HW219281   4.361   1.860   5.602  2.5175  3.8265 -0.5199
35768SOL     OW19282  12.205   6.557   9.745  0.2609  0.4761 -0.1499
35768SOL    HW119283  12.278   6.558   9.682  0.3588  0.8488 -0.0286
35768SOL    HW219284  12.181   6.464   9.752 -1.9699  0.6437 -3.3147
35769SOL     OW19285   2.766   6.537   0.991 -0.0605 -0.0127  0.2719
35769SOL    HW119286   2.695   6.510   0.932 -0.8227  1.0020  0.6881
35769SOL    HW219287   2.832   6.576   0.934  0.5988 -1.7771 -0.2209
35770SOL     OW19288   3.068  13.603   3.835 -0.1831  0.7920 -0.0272
35770SOL    HW119289   3.050  13.692   3.804 -0.6359  0.8599  0.4053
35770SOL    HW219290   3.089  13.553   3.756 -1.5812  0.8893 -0.4922
35771SOL     OW19291   6.445   1.441   3.118  1.1319  0.1580  0.5267
35771SOL    HW119292   6.424   1.528   3.083  2.6255  0.0544 -0.7050
35771SOL    HW219293   6.533   1.449   3.153  1.2423 -0.8238  0.5108
35772SOL     OW19294   1.368   3.295   2.501  0.2274 -0.3118 -0.0212
35772SOL    HW119295   1.372   3.298   2.597 -1.6515 -0.5439  0.0897
35772SOL    HW219296   1.286   3.339   2.479  0.6250 -0.2856 -1.5391
35773SOL     OW19297   8.456   1.915   8.992 -0.3926 -0.3234 -0.3777
35773SOL    HW119298   8.374   1.920   9.041 -0.3290 -0.0840 -0.2939
35773SOL    HW219299   8.520   1.960   9.047 -0.1693 -0.6363 -0.3742
35774SOL     OW19300  11.395  13.747  12.285 -0.2211 -1.1244 -0.4007
35774SOL    HW119301  11.393  13.729  12.379 -1.5521  0.0614 -0.1700
35774SOL    HW219302  11.450  13.825  12.277  0.5833 -1.7079 -0.7252
35775SOL     OW19303   0.365  10.214   7.961  0.3054 -0.0010  0.1574
35775SOL    HW119304   0.414  10.137   7.989  0.4803  1.5591  4.9210
35775SOL    HW219305   0.277  10.200   7.998  0.7153  2.5239  2.3617
35776SOL     OW19306   0.418   1.763   7.234  0.0012 -0.0170 -0.0764
35776SOL    HW119307   0.386   1.789   7.320 -0.2882  2.0663 -0.7583
35776SOL    HW219308   0.461   1.679   7.249 -1.3622 -0.4507  1.7964
35777SOL     OW19309  11.294  13.340   6.981 -0.2256 -0.2063  0.0523
35777SOL    HW119310  11.359  13.375   6.920 -0.6734 -0.8570 -0.8238
35777SOL    HW219311  11.337  13.265   7.021  0.0346  0.1627  0.4661
35778SOL     OW19312  14.032  10.762   3.077 -0.2980 -0.7071  0.3034
35778SOL    HW119313  14.015  10.856   3.071 -0.0487 -0.7031 -0.4501
35778SOL    HW219314  13.999  10.737   3.164  2.0106  0.5690  1.6661
35779SOL     OW19315   0.866   6.306   3.356 -0.4607 -0.3128  0.0188
35779SOL    HW119316   0.917   6.328   3.278 -1.2120  1.2034 -0.0858
35779SOL    HW219317   0.787   6.264   3.323 -0.3325 -0.5737  0.0384
35780SOL     OW19318   8.977  11.202   5.045  0.3595 -0.4065 -0.2091
35780SOL    HW119319   9.035  11.211   5.121 -0.7135  0.1208  0.5758
35780SOL    HW219320   9.035  11.176   4.973  1.3512 -1.2340  0.8571
35781SOL     OW19321  10.197  12.422   0.919 -0.0867 -0.8155 -0.1291
35781SOL    HW119322  10.246  12.388   0.844 -0.4934 -1.5947 -0.0554
35781SOL    HW219323  10.105  12.411   0.894 -0.3693  3.0969 -1.4071
35782SOL     OW19324  10.487  10.688  11.155  0.1502 -0.0690  0.1838
35782SOL    HW119325  10.465  10.620  11.219  1.4259  0.1074  0.8237
35782SOL    HW219326  10.578  10.710  11.173 -0.8686  3.5842  1.6509
35783SOL     OW19327  10.979  12.871   4.723 -0.6549 -0.3316 -0.1262
35783SOL    HW119328  10.930  12.910   4.796 -0.7930 -0.9298  0.1069
35783SOL    HW219329  11.005  12.945   4.669 -0.9735  0.0761  0.2761
35784SOL     OW19330   0.760  12.472   8.118  0.1610  0.0267 -0.1424
35784SOL    HW119331   0.836  12.527   8.134 -0.3071  1.0191 -1.1744
35784SOL    HW219332   0.705  12.484   8.195  0.6565 -0.0239  0.2198
35785SOL     OW19333   9.583   8.728  13.575 -0.1520 -0.1205 -0.1023
35785SOL    HW119334   9.587   8.824  13.570  0.0757  0.0058  1.7267
35785SOL    HW219335   9.661   8.699  13.528  0.1412  0.6244 -0.0951
35786SOL     OW19336  12.310  12.413   1.943 -0.2478 -0.0810  0.2495
35786SOL    HW119337  12.371  12.480   1.910 -1.0264 -0.0486 -1.2120
35786SOL    HW219338  12.242  12.462   1.987 -0.5889  0.0729 -0.4389
35787SOL     OW19339   0.010   4.639   1.407 -0.0935 -0.1187 -0.3814
35787SOL    HW119340   0.031   4.569   1.344  2.2837  0.4498 -0.3037
35787SOL    HW219341   0.014   4.596   1.492 -0.8329 -0.3362 -0.4450
35788SOL     OW19342   4.755   4.895  10.466  0.3080 -0.1395  0.3150
35788SOL    HW119343   4.753   4.979  10.513 -0.3032 -1.0634  2.0395
35788SOL    HW219344   4.832   4.850  10.503 -0.7920 -1.3109  1.2505
35789SOL     OW19345   0.238   5.491   3.359  0.1173 -0.1538 -0.0009
35789SOL    HW119346   0.196   5.557   3.303  1.2611 -0.8725 -1.7719
35789SOL    HW219347   0.330   5.517   3.361  0.4601 -1.3324 -0.1849
35790SOL     OW19348   2.932   3.198   7.024  0.0369  0.2259 -0.1687
35790SOL    HW119349   2.872   3.246   7.081 -1.3388 -1.0896 -0.4362
35790SOL    HW219350   2.985   3.265   6.983 -1.5963  1.4970 -0.2934
35791SOL     OW19351   7.773   2.366   2.193  0.3375 -0.2961 -0.4487
35791SOL    HW119352   7.846   2.306   2.207  0.6246  0.0222 -0.5674
35791SOL    HW219353   7.719   2.357   2.272  1.1354  0.3453  0.1890
35792SOL     OW19354   8.449   8.184   0.740  0.0271  0.2601  0.5680
35792SOL    HW119355   8.524   8.244   0.736  0.4199 -0.3046 -1.6529
35792SOL    HW219356   8.480   8.111   0.794  0.2309  1.0849  1.6143
35793SOL     OW19357  11.394   4.542  10.594  0.0328 -0.5756 -0.4153
35793SOL    HW119358  11.431   4.556  10.681  0.5161  1.0601 -0.8463
35793SOL    HW219359  11.328   4.474  10.606  0.0277 -0.3063  1.2523
35794SOL     OW19360   5.038   5.501   5.089 -0.4512  0.2375  0.1083
35794SOL    HW119361   4.952   5.535   5.114 -0.4986 -0.1267  0.4596
35794SOL    HW219362   5.023   5.459   5.004 -0.6985 -0.1132  0.3214
35795SOL     OW19363   9.528  13.796   4.557 -0.0372  0.4959  0.3674
35795SOL    HW119364   9.483  13.878   4.539 -1.7244 -0.3288  0.5956
35795SOL    HW219365   9.501  13.738   4.486 -1.2992 -0.7287  1.7528
35796SOL     OW19366  13.048   6.255  10.243 -0.2852 -0.2091  0.3406
35796SOL    HW119367  13.025   6.337  10.285 -2.5735 -1.1898  1.1760
35796SOL    HW219368  12.974   6.237  10.185 -0.4604 -2.2737  1.1338
35797SOL     OW19369   7.278   9.839   9.119 -0.3011  0.1677  0.6928
35797SOL    HW119370   7.315   9.825   9.206  0.7159  0.9015  0.4057
35797SOL    HW219371   7.201   9.893   9.134  0.2451  0.8638  1.1043
35798SOL     OW19372   1.964   2.066  12.615 -0.0029 -0.1855  0.0588
35798SOL    HW119373   1.902   2.016  12.562 -1.2013  0.7381  0.5262
35798SOL    HW219374   2.004   2.127  12.553 -1.4743  0.9639  0.1842
35799SOL     OW19375   8.654   3.553   6.441 -0.2560  0.0814 -0.6919
35799SOL    HW119376   8.583   3.519   6.495 -0.6356 -0.4184 -1.4832
35799SOL    HW219377   8.623   3.541   6.351  0.1415  1.3668 -1.0190
35800SOL     OW19378   7.051   8.287   1.448 -0.1023  0.5100  0.4226
35800SOL    HW119379   6.958   8.267   1.438 -0.1088  0.5598  0.3804
35800SOL    HW219380   7.054   8.383   1.450  0.3024  0.7204 -3.3225
35801SOL     OW19381   3.849   6.254  10.386  0.3394  0.3138  0.2803
35801SOL    HW119382   3.777   6.198  10.414 -0.3835  1.2720  0.4035
35801SOL    HW219383   3.902   6.198  10.329 -0.4925 -0.4220  0.2037
35802SOL     OW19384  10.887  10.466   6.010  0.1673 -0.3265 -0.0088
35802SOL    HW119385  10.926  10.486   5.926  0.5433 -3.1200 -0.6021
35802SOL    HW219386  10.801  10.430   5.988 -1.0795  1.8082  1.0442
35803SOL     OW19387   0.291   0.706  13.831  0.3774 -0.4017 -0.4379
35803SOL    HW119388   0.328   0.701  13.743 -1.7887  0.5156 -1.4869
35803SOL    HW219389   0.302   0.797  13.858  0.7587 -0.6090  0.1262
35804SOL     OW19390  12.344  10.793   1.626 -0.0244  0.2080 -0.1705
35804SOL    HW119391  12.261  10.746   1.631  0.4175 -0.9353 -2.2290
35804SOL    HW219392  12.398  10.754   1.695 -1.3678  1.4944  1.7119
35805SOL     OW19393   4.699   8.844   6.573 -0.2698 -0.3844  0.4988
35805SOL    HW119394   4.780   8.832   6.524  0.8865  2.8275  1.3629
35805SOL    HW219395   4.659   8.922   6.534 -0.1964  1.2320  3.3631
35806SOL     OW19396   1.916   9.990   4.687  0.0398  0.1945 -0.5742
35806SOL    HW119397   1.939  10.076   4.653  0.8492 -1.0133 -3.3062
35806SOL    HW219398   1.841   9.961   4.634 -1.8835  0.1559  1.9510
35807SOL     OW19399   0.286   9.872   9.973  0.1105 -0.8942  0.0063
35807SOL    HW119400   0.307   9.822   9.894  2.6399  1.4855 -0.9700
35807SOL    HW219401   0.356   9.850  10.035  1.7586  1.8147 -0.7240
35808SOL     OW19402   5.256   8.386   9.939  0.4328 -0.1283 -0.4981
35808SOL    HW119403   5.344   8.397   9.975  0.1515  0.3306  0.0650
35808SOL    HW219404   5.252   8.447   9.866 -0.0479  1.2963  0.6614
35809SOL     OW19405   4.049   7.896  13.102 -0.0542  0.3657  0.0641
35809SOL    HW119406   4.102   7.818  13.123 -0.4398 -0.0532 -0.4919
35809SOL    HW219407   4.112   7.959  13.068  0.4318  0.6911  1.4932
35810SOL     OW19408   2.120  10.313  11.253  0.1277 -0.1077  0.1529
35810SOL    HW119409   2.042  10.322  11.308  1.2261  1.7334  1.5337
35810SOL    HW219410   2.171  10.243  11.293 -0.2819 -0.5467 -0.0886
35811SOL     OW19411   2.692   0.575   0.988  0.3197  0.3436 -0.8712
35811SOL    HW119412   2.752   0.645   0.962  1.8918 -1.1946 -1.6175
35811SOL    HW219413   2.619   0.583   0.927 -0.1805  2.1213 -0.0946
35812SOL     OW19414   3.975  10.640  12.161  0.3021 -0.1097  0.2317
35812SOL    HW119415   3.884  10.643  12.191  1.0548 -0.1143  2.7070
35812SOL    HW219416   3.970  10.595  12.076 -1.9488 -0.5049  0.4972
35813SOL     OW19417   2.187  13.229   4.862 -0.3715  0.3417  0.0299
35813SOL    HW119418   2.198  13.323   4.848  1.6344 -0.1468 -2.2229
35813SOL    HW219419   2.245  13.209   4.935  1.6506  0.4115 -1.4962
35814SOL     OW19420   8.164   6.479   4.668 -0.3075 -0.0559 -0.0192
35814SOL    HW119421   8.110   6.542   4.622 -1.1577 -0.9581 -0.2809
35814SOL    HW219422   8.124   6.472   4.755  0.0591  0.0953  0.1675
35815SOL     OW19423  10.984  10.650   7.017  0.2592 -0.2628  0.0988
35815SOL    HW119424  10.948  10.703   7.089 -0.0871  0.7604 -0.7954
35815SOL    HW219425  11.079  10.657   7.027  0.2411  1.2330 -0.4597
35816SOL     OW19426  12.838   3.493   3.659 -0.3184  0.3051  0.3971
35816SOL    HW119427  12.835   3.494   3.755 -0.7319  0.1985  0.3864
35816SOL    HW219428  12.783   3.419   3.633 -1.6347  1.3381  0.0428
35817SOL     OW19429   6.297   6.113  12.023  0.3565 -0.2533 -0.0973
35817SOL    HW119430   6.345   6.102  11.941  0.8602 -0.8904  0.2714
35817SOL    HW219431   6.205   6.108  11.999  0.4153  1.7199 -0.9337
35818SOL     OW19432  13.743  11.782   6.200  0.3712 -0.0274 -0.5213
35818SOL    HW119433  13.757  11.856   6.140  0.3332  0.1901 -0.2644
35818SOL    HW219434  13.829  11.739   6.206  0.9291  1.1984  0.9096
35819SOL     OW19435   6.192  10.100   8.950 -0.8575  0.0847 -0.0727
35819SOL    HW119436   6.194  10.195   8.939  2.9056  0.3194  1.1532
35819SOL    HW219437   6.231  10.086   9.036 -2.3090 -2.5890  0.2470
35820SOL     OW19438   7.177   3.961   8.613 -0.4567  0.0704 -0.6674
35820SOL    HW119439   7.094   3.934   8.652 -0.2819  0.8246  0.2667
35820SOL    HW219440   7.154   3.991   8.525 -1.3530  1.2757 -0.0482
35821SOL     OW19441   5.464  11.017  10.807 -0.2969  0.2573 -0.2481
35821SOL    HW119442   5.397  10.961  10.846 -0.8403  0.3656 -1.0000
35821SOL    HW219443   5.546  10.968  10.817 -0.6894 -0.4470 -0.4381
35822SOL     OW19444   2.446   3.253   3.083 -0.4476  0.7700  0.4535
35822SOL    HW119445   2.387   3.282   3.152 -2.6378 -0.2924 -0.8507
35822SOL    HW219446   2.441   3.321   3.016  1.8467  1.9123  1.3248
35823SOL     OW19447  13.334   0.667   6.119  0.1345 -0.1670 -0.2264
35823SOL    HW119448  13.363   0.591   6.169 -0.6576 -0.1745  0.2404
35823SOL    HW219449  13.347   0.741   6.178 -2.7908 -0.4059  0.8977
35824SOL     OW19450   8.490   7.909   4.729  0.8694 -0.3360  1.1650
35824SOL    HW119451   8.552   7.835   4.724 -0.0716 -1.0389 -1.9269
35824SOL    HW219452   8.524   7.973   4.667 -0.3850  0.1768  0.9931
35825SOL     OW19453   2.178  12.810   1.973  0.3457 -0.2311 -0.3779
35825SOL    HW119454   2.235  12.757   1.917  2.2182  1.3627 -0.1103
35825SOL    HW219455   2.176  12.896   1.931 -0.2573  0.2981  0.6882
35826SOL     OW19456   8.304   0.001  13.313 -0.1483  0.4322  0.4700
35826SOL    HW119457   8.290   0.057  13.236  0.8378 -0.4389 -0.3713
35826SOL    HW219458   8.249  -0.076  13.296 -0.2830  0.4392  0.8633
35827SOL     OW19459   1.285   9.341   9.870 -0.2119 -0.2350 -0.0761
35827SOL    HW119460   1.259   9.433   9.876  2.7171  0.6462  0.8751
35827SOL    HW219461   1.285   9.311   9.961 -0.2738 -0.9243 -0.3013
35828SOL     OW19462  13.284   1.898   8.696 -0.4730 -0.1411 -0.0060
35828SOL    HW119463  13.346   1.844   8.647 -2.0860 -0.8181 -1.4065
35828SOL    HW219464  13.199   1.860   8.676 -1.3822  0.8343  1.7487
35829SOL     OW19465   3.165   7.784   0.915 -0.5050 -0.2957 -0.2322
35829SOL    HW119466   3.235   7.843   0.889 -1.6951  1.1177 -0.3673
35829SOL    HW219467   3.197   7.696   0.894  1.2978  0.2898 -0.0514
35830SOL     OW19468   2.583   0.831   0.027  0.1051 -0.4589  0.0057
35830SOL    HW119469   2.551   0.741   0.020  4.0902 -1.9554 -1.9868
35830SOL    HW219470   2.618   0.837   0.116  0.2214 -1.0465  0.0043
35831SOL     OW19471   3.419   0.845   4.249 -0.6193 -0.2881 -0.0738
35831SOL    HW119472   3.352   0.900   4.291 -0.6776 -1.6932  1.8171
35831SOL    HW219473   3.372   0.802   4.178 -1.0602  0.6590 -0.3773
35832SOL     OW19474   1.389   1.957   3.126 -0.2210 -0.1373  0.4103
35832SOL    HW119475   1.325   1.958   3.198 -0.8278 -1.2802 -0.0816
35832SOL    HW219476   1.451   1.888   3.151 -0.0939 -0.1266  0.1280
35833SOL     OW19477   2.567   0.734  11.042 -0.4317  0.2049  0.0893
35833SOL    HW119478   2.476   0.763  11.040 -0.5824 -0.2757 -0.2869
35833SOL    HW219479   2.618   0.814  11.030 -0.8406  0.3032 -1.0726
35834SOL     OW19480   6.232   4.301  12.865  0.5365  0.0971  0.0948
35834SOL    HW119481   6.143   4.336  12.875  0.5654  0.2962 -0.3550
35834SOL    HW219482   6.222   4.229  12.803  0.5410 -0.4680  0.7360
35835SOL     OW19483   9.158  12.339   2.582  0.4241 -0.4458 -0.5982
35835SOL    HW119484   9.153  12.381   2.667 -1.5020 -2.8829  0.6325
35835SOL    HW219485   9.126  12.405   2.520  1.5068  1.2420  0.5814
35836SOL     OW19486   2.754  11.214   4.814 -0.7248 -0.7244 -0.0754
35836SOL    HW119487   2.763  11.161   4.893  1.3016  1.3623  1.2009
35836SOL    HW219488   2.700  11.288   4.841 -0.0879 -0.0336 -0.6478
35837SOL     OW19489  11.095   7.296   7.477  0.2767  0.0503 -0.1337
35837SOL    HW119490  11.091   7.215   7.426 -0.6256 -2.1216  3.0868
35837SOL    HW219491  11.005   7.328   7.476  0.7170  1.3730 -1.7801
35838SOL     OW19492   8.203  12.588  11.680  0.0209 -0.0110 -0.0157
35838SOL    HW119493   8.296  12.589  11.704 -0.2703 -0.1743  1.1827
35838SOL    HW219494   8.203  12.575  11.586  1.2306  0.5020 -0.1064
35839SOL     OW19495   3.077   3.174   0.275  0.5359  0.2131 -0.3044
35839SOL    HW119496   2.996   3.224   0.273 -0.3233 -1.0651  0.6791
35839SOL    HW219497   3.132   3.215   0.209 -0.8696  1.1898 -0.9231
35840SOL     OW19498   2.964   2.218   9.927 -0.2551  0.0369 -0.4815
35840SOL    HW119499   2.995   2.130   9.908 -2.3646 -0.7168 -0.5890
35840SOL    HW219500   2.889   2.206   9.985  0.3941  1.8629  0.8653
35841SOL     OW19501   9.297   5.313  10.472  0.1281  0.0257  0.2347
35841SOL    HW119502   9.285   5.385  10.534  2.7444  0.0875  0.7795
35841SOL    HW219503   9.310   5.236  10.527  1.1166 -0.1724 -0.2662
35842SOL     OW19504   5.179   1.915   2.689  0.0767 -0.0007  0.3555
35842SOL    HW119505   5.266   1.881   2.710 -0.0143 -0.2533  0.3260
35842SOL    HW219506   5.119   1.848   2.722 -0.0674 -0.5012 -0.8926
35843SOL     OW19507  12.128  10.061  10.868  0.2320 -0.0742  0.3275
35843SOL    HW119508  12.049  10.051  10.922 -0.5329 -0.0727 -0.7661
35843SOL    HW219509  12.188  10.112  10.922 -1.0783  1.2137  0.6128
35844SOL     OW19510   7.495   1.795  12.659 -0.1738 -0.2271 -0.4109
35844SOL    HW119511   7.567   1.747  12.700 -1.2515 -1.3331  0.2443
35844SOL    HW219512   7.486   1.874  12.713  0.2582 -0.2955 -0.2330
35845SOL     OW19513  12.207   9.306  10.446  0.3396  0.0063  0.3355
35845SOL    HW119514  12.265   9.234  10.421 -0.2583 -0.4230  0.1568
35845SOL    HW219515  12.212   9.309  10.541  1.3228  0.5462  0.2842
35846SOL     OW19516   9.816   6.430   9.161  0.0333  0.5124 -0.5556
35846SOL    HW119517   9.848   6.373   9.232 -1.5796 -0.8791 -0.8921
35846SOL    HW219518   9.892   6.440   9.103  0.6290 -0.5378 -0.0015
35847SOL     OW19519   8.495  12.688   6.484 -0.3573 -0.6772 -0.3939
35847SOL    HW119520   8.465  12.598   6.467 -2.3446  0.0311 -0.8696
35847SOL    HW219521   8.419  12.732   6.522 -0.2275  1.4690 -2.4226
35848SOL     OW19522  11.910   0.142   9.768  0.4504  0.3510  0.1542
35848SOL    HW119523  11.929   0.209   9.834  1.3384 -0.7185  1.0246
35848SOL    HW219524  11.996   0.123   9.729  0.8610 -2.5509  2.1723
35849SOL     OW19525   9.590  10.295   8.947  0.3239  0.7374  0.2112
35849SOL    HW119526   9.626  10.230   9.008  0.2474 -0.1312 -0.6516
35849SOL    HW219527   9.598  10.378   8.994  1.2530  0.2356  0.9840
35850SOL     OW19528   3.878  13.892   0.437 -0.4333 -0.0279  0.1030
35850SOL    HW119529   3.952  13.953   0.438 -0.4794  0.0299  1.2394
35850SOL    HW219530   3.802  13.947   0.414 -0.1737 -0.0459 -0.8389
35851SOL     OW19531   7.772   1.321   7.193  0.1222 -0.1908  0.0068
35851SOL    HW119532   7.783   1.416   7.185  2.0421 -0.2155  1.5765
35851SOL    HW219533   7.860   1.286   7.181 -0.7317 -1.9147 -1.6855
35852SOL     OW19534   5.148   4.845   7.388  0.2253  0.1270 -0.3686
35852SOL    HW119535   5.157   4.939   7.376  0.1526  0.1735 -0.0779
35852SOL    HW219536   5.237   4.813   7.400  0.1250  0.5085  1.9632
35853SOL     OW19537   4.742   3.589  12.642  0.0368  0.1555 -0.5823
35853SOL    HW119538   4.670   3.528  12.625 -0.3319  0.5843 -0.5795
35853SOL    HW219539   4.809   3.536  12.684  0.2545 -0.5365 -1.7883
35854SOL     OW19540   9.532   3.903   2.631  0.0634 -0.2197 -0.1598
35854SOL    HW119541   9.606   3.963   2.623 -0.8503  1.0123  0.3407
35854SOL    HW219542   9.479   3.920   2.554 -0.2033 -0.3796 -0.0138
35855SOL     OW19543   6.522  11.019   4.807 -0.1690 -0.2720  0.4170
35855SOL    HW119544   6.464  10.966   4.863  0.6464 -1.4158  0.2004
35855SOL    HW219545   6.480  11.105   4.806 -1.0507 -0.6496  1.5098
35856SOL     OW19546   0.144  13.901  12.200  0.1125 -0.8901 -0.0805
35856SOL    HW119547   0.195  13.861  12.129  0.0952  0.3683 -0.8182
35856SOL    HW219548   0.053  13.890  12.174  0.1019 -0.5262 -0.1918
35857SOL     OW19549  10.061  11.128   6.633  0.2889 -0.2902 -0.4413
35857SOL    HW119550  10.147  11.118   6.673  0.3580  2.3232  0.2473
35857SOL    HW219551  10.078  11.169   6.549 -0.2633  0.1800 -0.3342
35858SOL     OW19552   9.456   5.586   0.600 -0.3564 -0.4617 -0.0200
35858SOL    HW119553   9.430   5.609   0.511  1.8777 -1.1563 -0.9428
35858SOL    HW219554   9.426   5.496   0.611 -0.9837 -0.2410  0.0824
35859SOL     OW19555  13.469   7.791   7.684 -0.0113  0.3095  0.4615
35859SOL    HW119556  13.421   7.732   7.626  0.3731  1.1590 -0.7584
35859SOL    HW219557  13.539   7.827   7.630  0.5536  0.9050  1.5398
35860SOL     OW19558  11.141   9.867   2.511 -0.1492 -0.0109  0.2964
35860SOL    HW119559  11.155   9.841   2.420 -0.0503  1.0568 -0.0075
35860SOL    HW219560  11.166   9.959   2.513  1.3577 -0.4072  1.7571
35861SOL     OW19561  11.077  10.947  12.755  0.2051  0.1409  0.5010
35861SOL    HW119562  11.056  11.037  12.777  2.6347  0.8149  0.3272
35861SOL    HW219563  11.035  10.895  12.824  0.4718  1.5480  1.7784
35862SOL     OW19564   0.831  13.901   9.450  0.3275  0.4477  0.0121
35862SOL    HW119565   0.839  13.955   9.371  2.4586  0.2189  0.0108
35862SOL    HW219566   0.921  13.880   9.474 -0.3749 -1.9686  0.8338
35863SOL     OW19567   2.278   9.965  12.691 -0.3329  0.4335  0.1345
35863SOL    HW119568   2.252   9.956  12.600 -0.7073  0.6354  0.2201
35863SOL    HW219569   2.350  10.027  12.689  2.3793 -2.4655 -0.4844
35864SOL     OW19570   3.031   2.478   4.115  0.1056  0.1445 -0.6871
35864SOL    HW119571   2.950   2.430   4.133  0.5426  0.2206  1.9659
35864SOL    HW219572   3.003   2.569   4.105 -0.0570  0.5165  2.2932
35865SOL     OW19573   5.531   1.598   2.641  0.5616  0.1873  0.4874
35865SOL    HW119574   5.482   1.680   2.649  0.3181  0.0729  0.1447
35865SOL    HW219575   5.464   1.530   2.644  0.7647 -0.0005  0.7747
35866SOL     OW19576   7.659  12.430  13.135 -0.0715 -0.0744  0.7956
35866SOL    HW119577   7.639  12.338  13.117 -0.6775  0.5109 -1.9957
35866SOL    HW219578   7.712  12.459  13.061  2.7279  1.1210  3.0724
35867SOL     OW19579  13.370   3.297  13.842  0.8484  0.5497  0.4732
35867SOL    HW119580  13.302   3.269  13.903  1.2636 -0.8203  0.3407
35867SOL    HW219581  13.423   3.218  13.827  1.0180  0.9602 -1.3138
35868SOL     OW19582  12.957   9.407   8.610 -0.0312  0.3371 -0.3984
35868SOL    HW119583  13.023   9.350   8.572  0.2482 -0.5474  1.2843
35868SOL    HW219584  13.006   9.480   8.647 -0.1100  0.2764 -0.1710
35869SOL     OW19585  12.059   4.852   3.683 -0.3385 -0.0374 -0.0590
35869SOL    HW119586  12.055   4.757   3.695  0.8392 -0.3672 -1.8507
35869SOL    HW219587  12.140   4.877   3.727 -0.2015 -0.0156 -0.3181
35870SOL     OW19588   9.889  10.586   4.949 -0.1158 -0.0089 -0.4716
35870SOL    HW119589   9.950  10.654   4.977  0.6172 -0.5427 -0.7469
35870SOL    HW219590   9.944  10.510   4.930 -0.7714 -0.2202 -1.6295
35871SOL     OW19591  12.154   0.391   3.865  0.1568  0.5029  0.1106
35871SOL    HW119592  12.129   0.325   3.801 -0.1308  1.0905 -0.3878
35871SOL    HW219593  12.237   0.360   3.900  0.5961  0.4421 -0.9460
35872SOL     OW19594   3.502   0.779   1.187  0.6855  0.6939 -0.4837
35872SOL    HW119595   3.464   0.735   1.111 -0.4743  0.4149  0.2386
35872SOL    HW219596   3.506   0.872   1.162 -0.0588  0.6597 -0.7318
35873SOL     OW19597   6.629  11.160   7.033 -0.3272 -0.4143  0.8070
35873SOL    HW119598   6.620  11.255   7.035 -0.8808 -0.3947 -0.9283
35873SOL    HW219599   6.543  11.128   7.005 -0.1610 -1.4469  1.4107
35874SOL     OW19600   0.374   7.847   4.202 -0.3742 -0.2212 -0.1156
35874SOL    HW119601   0.287   7.865   4.239 -0.0905  2.0269 -0.4121
35874SOL    HW219602   0.394   7.924   4.148  1.3372 -1.2002 -0.9739
35875SOL     OW19603   1.453   5.542   1.270 -0.0071  0.5197  0.2529
35875SOL    HW119604   1.430   5.477   1.204 -1.7227  1.4136 -0.0927
35875SOL    HW219605   1.548   5.533   1.281 -0.0386 -1.2611 -0.5715
35876SOL     OW19606   4.932  13.445   4.480 -0.4469 -0.0838 -0.8958
35876SOL    HW119607   4.924  13.541   4.477 -2.5059 -0.1489  0.5162
35876SOL    HW219608   4.993  13.428   4.551  0.1927  0.1612 -1.3725
35877SOL     OW19609   9.519   6.351   7.680 -0.6318 -0.3171  0.1235
35877SOL    HW119610   9.501   6.344   7.774  0.9434 -2.2077  0.3384
35877SOL    HW219611   9.576   6.277   7.660  1.4212  1.5965 -1.7589
35878SOL     OW19612   7.276  11.436   4.674  0.7936 -0.2420  0.1061
35878SOL    HW119613   7.258  11.529   4.684 -0.8862 -0.4168 -0.9098
35878SOL    HW219614   7.234  11.412   4.592  1.0400 -1.9397  0.4339
35879SOL     OW19615   8.129   3.674   2.897 -0.0535  0.3690 -0.0647
35879SOL    HW119616   8.084   3.614   2.838  0.9605 -0.6237  0.1461
35879SOL    HW219617   8.175   3.735   2.838  1.9484 -1.3488 -0.3860
35880SOL     OW19618   1.602   7.194   0.591 -0.4788  0.5865  0.1348
35880SOL    HW119619   1.647   7.185   0.507 -0.5549 -2.0131  0.2752
35880SOL    HW219620   1.655   7.143   0.652 -1.9469  0.0343  1.0004
35881SOL     OW19621  11.256  13.629   6.440 -0.3215  0.7521  0.0480
35881SOL    HW119622  11.297  13.553   6.399 -1.5213 -0.0673  0.2971
35881SOL    HW219623  11.178  13.593   6.483 -1.0132  2.1604  0.0177
35882SOL     OW19624  10.262  13.325   1.503 -0.9224  0.3339  0.1633
35882SOL    HW119625  10.217  13.358   1.426  0.8970 -2.3754 -2.2813
35882SOL    HW219626  10.195  13.280   1.554 -2.0323  1.6305 -0.0972
35883SOL     OW19627   1.295   4.227  12.977 -0.3271 -0.3376 -0.0249
35883SOL    HW119628   1.237   4.255  13.048 -1.8218 -0.1902 -1.2507
35883SOL    HW219629   1.367   4.181  13.021 -1.6065 -0.9363  1.5269
35884SOL     OW19630  12.738  11.620   6.401 -0.2181 -0.2862  0.2521
35884SOL    HW119631  12.815  11.593   6.350  0.1531 -0.5877  0.9485
35884SOL    HW219632  12.668  11.563   6.371 -0.1873  0.0449 -0.4495
35885SOL     OW19633  11.934  12.108  10.402 -0.2300 -0.2715 -0.0650
35885SOL    HW119634  11.856  12.099  10.347 -0.3115  0.9127 -0.1832
35885SOL    HW219635  11.977  12.187  10.369 -0.4106  0.6288  1.6960
35886SOL     OW19636   3.792   9.276  13.114 -0.2258  0.2171  0.2069
35886SOL    HW119637   3.728   9.207  13.100 -3.6073  2.4035  3.0804
35886SOL    HW219638   3.776   9.339  13.043  0.9418 -0.5980 -0.8159
35887SOL     OW19639   2.933   9.263  11.228  0.0287 -0.3757 -0.5036
35887SOL    HW119640   2.940   9.300  11.140  0.8087  0.4831 -0.1046
35887SOL    HW219641   2.916   9.170  11.214 -0.4426 -0.1460 -1.5512
35888SOL     OW19642   7.287   4.923   4.171  0.2778  0.4974 -0.1323
35888SOL    HW119643   7.304   4.833   4.145 -0.8876 -0.8329  3.1561
35888SOL    HW219644   7.202   4.920   4.215  0.0311  3.2945 -0.2176
35889SOL     OW19645   6.637   7.518   6.604  0.0481  0.3124 -0.5261
35889SOL    HW119646   6.690   7.553   6.676 -0.3094  1.3450 -0.7377
35889SOL    HW219647   6.547   7.524   6.635 -0.0107 -0.7297 -0.4581
35890SOL     OW19648   6.836   1.992  10.150  0.6843  0.2247 -0.7752
35890SOL    HW119649   6.864   2.080  10.124 -0.0391  0.2547 -1.4928
35890SOL    HW219650   6.889   1.933  10.098  0.7854  0.2460 -0.6970
35891SOL     OW19651   5.074   0.085   8.924  0.0031 -0.1154 -0.5950
35891SOL    HW119652   5.040   0.164   8.881  1.8154 -0.6437 -3.2630
35891SOL    HW219653   4.996   0.033   8.944 -1.1361  1.7310 -0.0277
35892SOL     OW19654   6.281   9.015   5.972 -0.1871 -0.4069  0.2660
35892SOL    HW119655   6.268   9.104   6.003  0.9109  0.2085 -0.9283
35892SOL    HW219656   6.364   8.987   6.011  1.5186  0.5886 -2.3267
35893SOL     OW19657   2.810   2.003  12.495 -0.0219  0.1538  0.3945
35893SOL    HW119658   2.722   2.039  12.484 -0.9962 -2.3431 -0.6200
35893SOL    HW219659   2.860   2.042  12.423 -0.4468  1.0822  0.5827
35894SOL     OW19660   1.450   9.145   6.745  0.3007  0.3747  0.8510
35894SOL    HW119661   1.439   9.201   6.668  1.8027  0.1864  0.4648
35894SOL    HW219662   1.367   9.153   6.792 -0.1325  1.6018 -0.0496
35895SOL     OW19663   7.876   1.100   3.443  0.4699 -0.0361 -0.1311
35895SOL    HW119664   7.898   1.125   3.354  0.9675  0.7485  0.1941
35895SOL    HW219665   7.957   1.114   3.493  0.9558 -2.8528  0.0073
35896SOL     OW19666   1.244   0.988  10.725  0.7435 -0.2122  0.2459
35896SOL    HW119667   1.283   1.024  10.804 -0.4501  0.6520  0.4676
35896SOL    HW219668   1.242   1.062  10.664 -2.4605  0.4390  0.9645
35897SOL     OW19669   7.846   4.499   7.905  0.0202  0.3203 -0.4161
35897SOL    HW119670   7.824   4.575   7.958  0.9303  0.3830 -0.1060
35897SOL    HW219671   7.942   4.500   7.900  0.0990 -1.1690  0.1363
35898SOL     OW19672  10.285   8.292   1.722  0.2192  0.3061  0.1807
35898SOL    HW119673  10.275   8.339   1.805  1.8181 -1.6614  1.5894
35898SOL    HW219674  10.368   8.324   1.686 -0.1453  0.6724 -0.3411
35899SOL     OW19675   4.032   2.279   6.574 -0.1486 -0.2806  0.2365
35899SOL    HW119676   4.070   2.346   6.518 -0.2721 -0.2019  0.2485
35899SOL    HW219677   4.083   2.284   6.655  1.7938 -2.1328 -0.7618
35900SOL     OW19678   1.164  13.489   5.024  0.0273  0.3913  0.7847
35900SOL    HW119679   1.124  13.433   5.091  0.3684 -1.1725 -0.2663
35900SOL    HW219680   1.247  13.448   5.004  0.5870  1.6531  0.4180
35901SOL     OW19681   7.444   7.572   3.837  0.4118 -0.3244  0.2704
35901SOL    HW119682   7.516   7.596   3.779 -0.4760  0.1904 -0.6697
35901SOL    HW219683   7.450   7.634   3.910  0.8986 -0.2639  0.1835
35902SOL     OW19684  11.312   0.019   8.764  0.1369  0.1448  0.0481
35902SOL    HW119685  11.301   0.060   8.850  0.3174 -0.0820  0.1796
35902SOL    HW219686  11.366   0.081   8.715 -0.6142  0.6507 -0.1676
35903SOL     OW19687  13.482   2.587   4.786 -0.4557  0.2337  0.1861
35903SOL    HW119688  13.554   2.542   4.743  0.5835  0.0150  2.0560
35903SOL    HW219689  13.404   2.538   4.761  0.1641 -0.1694 -1.0196
35904SOL     OW19690  12.982  12.191   7.300 -1.2292  0.2082  0.2701
35904SOL    HW119691  13.058  12.183   7.357 -1.1873 -0.6498  0.1176
35904SOL    HW219692  12.951  12.281   7.312 -0.8575  0.2248  1.1754
35905SOL     OW19693  10.667   7.566   3.727  0.4054  0.4551 -0.4751
35905SOL    HW119694  10.744   7.612   3.761  1.1598 -0.9132 -0.2741
35905SOL    HW219695  10.703   7.490   3.681 -0.7452  0.6843 -1.8149
35906SOL     OW19696   4.328   3.149  13.793 -0.5274 -0.2431  0.0861
35906SOL    HW119697   4.371   3.133  13.709  0.1773 -0.2489  0.4494
35906SOL    HW219698   4.329   3.244  13.802 -1.2237 -0.1968 -0.2297
35907SOL     OW19699   9.480   5.450  11.595  0.1983 -0.1228 -0.5867
35907SOL    HW119700   9.389   5.466  11.619  0.3255  1.3566 -0.9682
35907SOL    HW219701   9.476   5.386  11.524 -0.4632 -0.9623  0.2025
35908SOL     OW19702   5.770   7.556   4.445  0.5709 -0.2814 -0.3357
35908SOL    HW119703   5.704   7.490   4.423 -0.8131  0.5450  1.0785
35908SOL    HW219704   5.850   7.506   4.463 -0.2867 -1.5357  0.1284
35909SOL     OW19705   8.529   4.460   2.104  0.2242 -0.0714  0.1025
35909SOL    HW119706   8.572   4.412   2.034 -0.3534 -0.4314 -0.0097
35909SOL    HW219707   8.453   4.407   2.128  0.3500  0.0972  0.9275
35910SOL     OW19708  11.949  12.060  12.425  0.3544  0.4306 -0.5898
35910SOL    HW119709  12.029  12.087  12.380  1.1085 -1.4735 -0.4709
35910SOL    HW219710  11.967  11.972  12.458 -1.9083 -0.2150 -0.8517
35911SOL     OW19711   2.177   2.822   9.825 -0.0268  0.0938 -0.0649
35911SOL    HW119712   2.193   2.905   9.869 -2.0893 -0.5477  2.1685
35911SOL    HW219713   2.137   2.767   9.892 -0.7062 -1.9930 -2.0348
35912SOL     OW19714   4.381   0.169  11.238 -0.3163 -0.4454  0.1633
35912SOL    HW119715   4.383   0.082  11.279 -2.0167 -0.9343 -0.7105
35912SOL    HW219716   4.471   0.202  11.248 -0.2436 -1.1977  2.7989
35913SOL     OW19717   2.225   9.146  10.471  0.2770  0.1754 -0.6254
35913SOL    HW119718   2.137   9.108  10.474  0.7901 -1.0405 -0.1384
35913SOL    HW219719   2.228   9.191  10.386 -0.1651 -1.4460 -1.5497
35914SOL     OW19720  10.341  11.687   6.370  0.3851  0.4285  0.0688
35914SOL    HW119721  10.317  11.777   6.350  0.5702  0.4154 -0.2214
35914SOL    HW219722  10.267  11.652   6.419 -0.4050  0.2518 -1.2130
35915SOL     OW19723   2.920   8.760  11.576  0.1942 -0.1928  0.5913
35915SOL    HW119724   2.998   8.809  11.550 -0.0149 -0.6283 -0.9668
35915SOL    HW219725   2.952   8.671  11.592 -0.1096 -0.6600 -1.1719
35916SOL     OW19726   0.868   8.095   0.200 -0.2086 -0.5154  0.2111
35916SOL    HW119727   0.809   8.129   0.133 -0.2817  1.7886  1.3421
35916SOL    HW219728   0.826   8.014   0.230 -1.6942 -0.0342 -0.4869
35917SOL     OW19729   1.100   9.242   0.247 -0.0967  0.6435  0.1025
35917SOL    HW119730   1.092   9.337   0.236  0.3232  1.0541  2.5990
35917SOL    HW219731   1.190   9.229   0.276 -0.1210 -0.5321 -0.3247
35918SOL     OW19732   6.859  10.173   4.599  0.1522  0.6111  0.1322
35918SOL    HW119733   6.891  10.086   4.574  1.5013  0.8816  0.8217
35918SOL    HW219734   6.905  10.194   4.680 -1.3354  1.3254  0.8361
35919SOL     OW19735  11.116  10.716   1.529 -0.2016  0.0539  0.1282
35919SOL    HW119736  11.106  10.740   1.437 -1.6778 -0.3358  0.1582
35919SOL    HW219737  11.210  10.722   1.545  0.2949 -1.4130 -1.8313
35920SOL     OW19738  12.103   3.419   4.716  0.5167  0.2140 -0.2449
35920SOL    HW119739  12.086   3.362   4.641 -0.2421  0.4964 -0.2971
35920SOL    HW219740  12.028   3.405   4.774  0.7463  0.5274  0.1342
35921SOL     OW19741   2.039   1.309  11.638 -0.6555 -0.0494  0.1590
35921SOL    HW119742   2.029   1.346  11.550  0.4428 -0.0760 -0.0017
35921SOL    HW219743   2.079   1.380  11.689  1.8485 -1.0612 -0.2555
35922SOL     OW19744   6.046   5.566   2.592 -0.1427  0.8437  0.4056
35922SOL    HW119745   5.978   5.503   2.569  0.7320 -0.2450  0.6842
35922SOL    HW219746   5.999   5.648   2.609 -1.5179 -0.1469  1.6514
35923SOL     OW19747   1.969  11.149   0.432  0.9259  0.6759 -0.6234
35923SOL    HW119748   2.044  11.191   0.389 -0.6067  3.3721 -0.9118
35923SOL    HW219749   1.991  11.152   0.525  1.1136  1.6293 -0.6891
35924SOL     OW19750   0.048   4.659  13.190  0.1979  0.4718  0.2804
35924SOL    HW119751   0.105   4.727  13.155 -0.1857  1.5461  1.6809
35924SOL    HW219752   0.003   4.624  13.113 -0.2597  2.4153 -0.3823
35925SOL     OW19753   7.342   2.447  10.340  0.0089 -0.0219 -0.3949
35925SOL    HW119754   7.334   2.540  10.362 -1.1456 -0.5946  1.9618
35925SOL    HW219755   7.363   2.446  10.247  1.1334  2.6103 -0.2604
35926SOL     OW19756   1.227   6.902   3.518 -0.1148  0.5681  0.3641
35926SOL    HW119757   1.258   6.839   3.583  0.3914  0.7735  0.3307
35926SOL    HW219758   1.160   6.855   3.468 -0.1424  0.2431  0.7034
35927SOL     OW19759   9.047   8.755   1.035 -0.7074 -0.0128 -0.5012
35927SOL    HW119760   9.128   8.765   0.985 -1.0027 -1.4536 -1.3039
35927SOL    HW219761   9.058   8.673   1.082 -1.0393  0.6102  0.7002
35928SOL     OW19762   1.521  12.520   6.635 -0.3023  0.1235 -0.6020
35928SOL    HW119763   1.434  12.549   6.661 -0.0851 -0.4941  0.9485
35928SOL    HW219764   1.520  12.425   6.649  0.7297  0.1569 -0.1995
35929SOL     OW19765   3.383  13.103   6.014 -0.2203  0.3902 -0.4223
35929SOL    HW119766   3.401  13.011   6.030  0.3108  0.2800 -1.6050
35929SOL    HW219767   3.288  13.110   6.014 -0.2617  0.0351  0.6295
35930SOL     OW19768   1.221   6.375  10.199 -0.0382  0.7003 -0.0883
35930SOL    HW119769   1.299   6.398  10.249  0.1212  0.5429 -0.2619
35930SOL    HW219770   1.193   6.458  10.159  0.7269  0.5449 -0.9866
35931SOL     OW19771   3.122   1.441   3.101 -0.2461  0.6194 -0.7886
35931SOL    HW119772   3.175   1.437   3.021  1.6266 -1.8707  0.4374
35931SOL    HW219773   3.171   1.498   3.160 -0.9640  1.3930 -0.9058
35932SOL     OW19774   7.096  13.943   6.885  0.3383 -0.1021 -0.0810
35932SOL    HW119775   7.066  13.882   6.818  0.4810 -0.4511  0.1723
35932SOL    HW219776   7.086  13.896   6.968 -0.4345  0.5468  0.2158
35933SOL     OW19777   5.552   6.415   0.648 -0.0609 -0.2117 -0.1618
35933SOL    HW119778   5.584   6.420   0.738  0.6819  2.1284 -0.4872
35933SOL    HW219779   5.632   6.417   0.595 -0.5429  0.9170 -0.8902
35934SOL     OW19780   4.452   3.659   6.807  0.4357 -0.4072  0.1688
35934SOL    HW119781   4.487   3.721   6.743  0.1141  0.2891  0.6559
35934SOL    HW219782   4.528   3.605   6.832  1.3115  1.3640  1.5375
35935SOL     OW19783   9.849   9.162   6.299 -0.1374 -0.2749 -0.2671
35935SOL    HW119784   9.868   9.069   6.283  1.0861  0.0676 -0.8939
35935SOL    HW219785   9.786   9.185   6.231 -0.3435 -0.6121 -0.1930
35936SOL     OW19786   3.924  13.146   4.089 -0.2886  0.0358 -0.2620
35936SOL    HW119787   3.948  13.167   3.999 -1.1688 -1.3609 -0.8584
35936SOL    HW219788   3.873  13.221   4.119  1.3477  1.2226 -0.3508
35937SOL     OW19789  10.936   8.192   5.336 -0.0531  0.3126  0.1027
35937SOL    HW119790  10.989   8.270   5.322 -0.6448  0.3137 -2.7682
35937SOL    HW219791  10.998   8.126   5.367  0.9647  1.1961 -0.0130
35938SOL     OW19792   1.997   4.427  10.134  0.1719  0.2625  0.4852
35938SOL    HW119793   2.067   4.374  10.096  1.2444  0.4061  2.1478
35938SOL    HW219794   1.929   4.365  10.158  0.9289 -0.2345  1.3801
35939SOL     OW19795   0.693   9.842   1.995  0.4412 -0.3199 -0.7429
35939SOL    HW119796   0.601   9.818   1.981  0.6110 -2.0109  0.6924
35939SOL    HW219797   0.722   9.875   1.910 -1.9808  2.1450 -0.7700
35940SOL     OW19798   0.159  12.688  12.761 -0.0329 -0.2472 -0.0979
35940SOL    HW119799   0.236  12.732  12.725  0.9018 -1.3427  0.4568
35940SOL    HW219800   0.170  12.596  12.735 -1.3017 -0.3839 -0.2292
35941SOL     OW19801   2.698  10.973   3.133 -0.2074 -0.1987  0.1330
35941SOL    HW119802   2.789  10.999   3.138 -0.2030  0.3849 -2.0339
35941SOL    HW219803   2.701  10.880   3.111 -0.1561 -0.3530  0.7763
35942SOL     OW19804   7.554  10.141   1.589  0.0042  0.7666 -0.3075
35942SOL    HW119805   7.587  10.172   1.504 -0.8060  1.9803 -0.2099
35942SOL    HW219806   7.459  10.149   1.582 -0.0262  2.8037  1.3648
35943SOL     OW19807   9.102  13.581  10.270  0.4333  0.4591 -0.5845
35943SOL    HW119808   9.084  13.625  10.186  3.0296  0.8943 -0.9895
35943SOL    HW219809   9.083  13.648  10.336  1.1830  1.1266 -1.0199
35944SOL     OW19810  10.600   1.606   4.376  0.3030  0.3680  0.0860
35944SOL    HW119811  10.628   1.605   4.285  0.7070 -0.1164  0.2122
35944SOL    HW219812  10.677   1.635   4.425  1.4483 -3.2294  0.6877
35945SOL     OW19813   2.785   0.027   9.390  0.7086 -0.1062  0.0811
35945SOL    HW119814   2.834  -0.012   9.463  1.1591 -0.7902 -0.5654
35945SOL    HW219815   2.698  -0.012   9.396  0.5105  0.4181  0.6951
35946SOL     OW19816   0.562   2.849   1.061  0.3296  0.3062 -0.2720
35946SOL    HW119817   0.500   2.812   1.124  0.6312 -0.8488 -0.6316
35946SOL    HW219818   0.645   2.854   1.108  0.5701 -0.6159 -0.5721
35947SOL     OW19819  13.791   0.552   7.810  0.7426  0.2723 -0.0241
35947SOL    HW119820  13.703   0.590   7.809  0.5532 -0.1458 -1.2262
35947SOL    HW219821  13.850   0.626   7.799  0.4208  0.3499 -1.4653
35948SOL     OW19822   2.610   7.328   8.024  0.3982  0.1403 -0.6023
35948SOL    HW119823   2.590   7.271   7.949 -0.7399 -1.9437  1.1787
35948SOL    HW219824   2.657   7.272   8.085  2.1420  2.0531 -0.0660
35949SOL     OW19825  10.307   7.449  12.810 -0.2447 -0.2776 -0.4140
35949SOL    HW119826  10.339   7.535  12.837 -1.7441 -0.2405  1.3981
35949SOL    HW219827  10.217   7.465  12.781 -0.6644 -1.2776  0.2891
35950SOL     OW19828   1.304  12.831  12.125 -0.3523 -0.8488 -0.1634
35950SOL    HW119829   1.371  12.762  12.129  3.2457  2.3403  1.3185
35950SOL    HW219830   1.332  12.887  12.052 -0.7596  1.1216  1.1035
35951SOL     OW19831   9.546   6.537  11.777 -0.3224 -0.3143  0.2425
35951SOL    HW119832   9.538   6.632  11.783  0.0878 -0.3758  2.1808
35951SOL    HW219833   9.531   6.506  11.866  0.2825 -2.0110 -0.2170
35952SOL     OW19834   2.338   3.726  11.505  0.2178 -0.2115 -0.3965
35952SOL    HW119835   2.382   3.658  11.556 -0.8648 -1.0452 -0.5171
35952SOL    HW219836   2.393   3.803  11.515  0.2399 -0.4211  1.7702
35953SOL     OW19837   0.290   0.142  10.441 -0.3417  0.7024  0.4315
35953SOL    HW119838   0.383   0.117  10.445 -0.1689  1.3111  0.3536
35953SOL    HW219839   0.267   0.133  10.349 -1.4834 -3.3126  0.9283
35954SOL     OW19840   6.116   7.009   6.375  0.4768 -0.3662  0.0796
35954SOL    HW119841   6.056   6.951   6.422 -1.7714  0.4404 -1.6089
35954SOL    HW219842   6.179   6.950   6.335 -1.6535 -1.7311 -1.4859
35955SOL     OW19843   0.795   5.358   0.519  0.4127 -0.1956 -0.5415
35955SOL    HW119844   0.796   5.264   0.499  1.8460 -0.3653  0.1753
35955SOL    HW219845   0.888   5.381   0.527  0.0731  1.2624 -0.5572
35956SOL     OW19846   9.638  10.116   0.318 -0.1570  0.3521 -0.1677
35956SOL    HW119847   9.565  10.139   0.377  0.1163 -0.4586  0.5089
35956SOL    HW219848   9.607  10.038   0.272  0.2022  0.1246 -0.0251
35957SOL     OW19849   3.672   1.149   7.718  0.3017  0.1882 -0.6568
35957SOL    HW119850   3.583   1.118   7.700 -0.1307 -0.4394  2.1056
35957SOL    HW219851   3.660   1.230   7.767  1.1458 -0.6993  1.1129
35958SOL     OW19852   0.974   5.681   8.844  0.5178  0.0812 -0.1089
35958SOL    HW119853   0.897   5.625   8.856 -0.0611  1.1667  1.8518
35958SOL    HW219854   1.016   5.683   8.930  2.5187 -0.1027 -1.0242
35959SOL     OW19855   3.050  13.705   0.595  0.4428  0.9576  0.5011
35959SOL    HW119856   3.033  13.664   0.680  0.5382  0.7924  0.4411
35959SOL    HW219857   3.129  13.662   0.563 -1.7610 -1.9182 -1.5265
35960SOL     OW19858   8.245   6.813   0.826 -0.1605  0.3280 -0.6093
35960SOL    HW119859   8.282   6.895   0.860  1.1125  0.3073 -1.8520
35960SOL    HW219860   8.157   6.838   0.796 -0.2956  0.9242  0.2358
35961SOL     OW19861   2.696  11.552   3.115 -0.1519  0.6183  0.1628
35961SOL    HW119862   2.607  11.564   3.082  0.1478 -1.3449 -1.5742
35961SOL    HW219863   2.687  11.489   3.187 -0.1712  0.3011 -0.1137
35962SOL     OW19864   4.824  13.583  10.496 -0.4288  0.0299  0.5029
35962SOL    HW119865   4.877  13.522  10.546  0.7650 -0.1570 -0.9349
35962SOL    HW219866   4.774  13.631  10.562  2.0062  0.6777  2.0153
35963SOL     OW19867  10.468   4.059   3.678  0.3551  0.1542  0.3050
35963SOL    HW119868  10.543   4.035   3.732  0.7128  0.4529 -0.0518
35963SOL    HW219869  10.397   4.002   3.708  1.0757 -1.0628 -0.2740
35964SOL     OW19870   3.608   8.171   8.037  0.6252  0.1834  0.6109
35964SOL    HW119871   3.704   8.179   8.039  0.7859 -1.2020 -0.1471
35964SOL    HW219872   3.589   8.140   7.949 -0.6177  1.2606  0.4758
35965SOL     OW19873   7.893   0.063  13.333 -0.2049  0.4822  0.3177
35965SOL    HW119874   7.949   0.013  13.274  0.3382  0.3033  0.9793
35965SOL    HW219875   7.807   0.062  13.291  0.4224  1.3430 -1.0547
35966SOL     OW19876  10.828   0.526   9.743 -0.3343 -0.0534  0.1281
35966SOL    HW119877  10.738   0.556   9.730 -0.6398 -0.5378  1.0344
35966SOL    HW219878  10.833   0.508   9.836  0.3413 -1.1981 -0.1151
35967SOL     OW19879   6.161   6.922   9.976  0.7114  0.8411  0.3783
35967SOL    HW119880   6.242   6.886   9.939  0.8510  0.7771  0.7362
35967SOL    HW219881   6.112   6.845  10.005  0.0021  0.8063 -0.8709
35968SOL     OW19882  10.206   9.025   2.292 -0.1413  0.4284 -0.5062
35968SOL    HW119883  10.222   8.941   2.249  0.0017  0.3072 -0.2196
35968SOL    HW219884  10.131   9.062   2.245  0.4371  0.6075 -1.2923
35969SOL     OW19885  13.864  10.106  14.046 -0.0716  0.1213 -0.0744
35969SOL    HW119886  13.887  10.183  14.098 -1.8133  0.5571  0.1084
35969SOL    HW219887  13.803  10.057  14.101 -0.4150 -0.4350 -0.9346
35970SOL     OW19888   7.431   6.740   8.102 -0.3686 -0.0874 -0.1595
35970SOL    HW119889   7.344   6.780   8.092  0.1810  1.0262 -0.6762
35970SOL    HW219890   7.437   6.678   8.030 -1.0317 -0.7505  0.3410
35971SOL     OW19891  12.598  13.207   3.455 -0.2607  0.0623 -0.3537
35971SOL    HW119892  12.533  13.271   3.427  0.1099 -0.1115 -1.6644
35971SOL    HW219893  12.546  13.131   3.484 -0.7713  1.3341  2.4666
35972SOL     OW19894   4.121   3.490   7.590 -0.5040  0.0484  0.2884
35972SOL    HW119895   4.109   3.579   7.557  1.1306  0.1910 -0.0239
35972SOL    HW219896   4.126   3.500   7.686 -0.7880  0.2302  0.2840
35973SOL     OW19897   1.184  12.382  10.182 -0.4607  0.3583 -0.8508
35973SOL    HW119898   1.203  12.303  10.131 -0.8098 -1.0391  1.0589
35973SOL    HW219899   1.231  12.369  10.264 -1.8646  1.3346  0.1566
35974SOL     OW19900   5.248  11.326   4.622 -0.1982  0.4176 -0.6043
35974SOL    HW119901   5.161  11.297   4.648  0.2188 -1.3037 -1.0247
35974SOL    HW219902   5.308  11.274   4.676  0.5878  0.3360 -1.5317
35975SOL     OW19903  13.753   9.865   6.028  0.1262  0.2803 -0.7582
35975SOL    HW119904  13.841   9.866   5.991 -0.2812  1.1928 -1.7660
35975SOL    HW219905  13.729   9.773   6.032  0.4499  0.1070 -2.1830
35976SOL     OW19906   1.977   8.021   8.881  0.4017  0.5247  0.4441
35976SOL    HW119907   2.068   8.021   8.910 -0.2304  0.9468  2.7057
35976SOL    HW219908   1.944   7.934   8.903 -0.4890  1.3235  2.5660
35977SOL     OW19909   0.652  13.273  11.580  0.5322  0.4980  0.1021
35977SOL    HW119910   0.688  13.325  11.651 -1.2169  0.9497  0.6920
35977SOL    HW219911   0.620  13.337  11.517  0.7848  0.1009 -0.4421
35978SOL     OW19912   0.111   2.740   7.573 -0.0431 -0.2473  0.2832
35978SOL    HW119913   0.038   2.692   7.610  0.9703 -2.5334 -0.5040
35978SOL    HW219914   0.071   2.810   7.521 -1.6126 -0.8367  0.6656
35979SOL     OW19915   0.841   9.575   6.745  0.1510  0.3828  0.2625
35979SOL    HW119916   0.814   9.646   6.803  1.1911  0.6866  0.3915
35979SOL    HW219917   0.760   9.529   6.724 -0.0599 -1.0137  3.5934
35980SOL     OW19918   1.731   6.762  13.225  0.3425 -0.3176  0.2701
35980SOL    HW119919   1.796   6.734  13.160 -0.7983  0.3937 -1.2227
35980SOL    HW219920   1.647   6.748  13.183 -0.3838  1.8728  0.8528
35981SOL     OW19921  12.157  11.278   5.646  0.4677  0.1156  0.5537
35981SOL    HW119922  12.156  11.194   5.691 -3.0642 -0.0353  0.5360
35981SOL    HW219923  12.108  11.262   5.565 -0.9531  2.2714  0.8914
35982SOL     OW19924   9.042  13.247   7.564 -0.2468 -0.1730  0.1812
35982SOL    HW119925   9.049  13.211   7.653 -0.7060 -3.6354 -1.0213
35982SOL    HW219926   9.115  13.208   7.517 -1.0497  0.1489 -1.3908
35983SOL     OW19927  10.851   6.132  13.077  0.4549  0.2221  0.2079
35983SOL    HW119928  10.827   6.168  13.162 -0.0173  0.3199  0.0322
35983SOL    HW219929  10.769   6.124  13.029  0.5150 -1.3766  0.3465
35984SOL     OW19930   2.392   7.036  12.158  0.0736 -0.6585  0.3014
35984SOL    HW119931   2.439   6.956  12.183 -1.4528 -1.9545 -0.7908
35984SOL    HW219932   2.302   7.021  12.188 -0.0088  1.1601  1.0837
35985SOL     OW19933  12.380   4.007   5.479 -0.0332  0.0050  0.5420
35985SOL    HW119934  12.389   3.946   5.405 -0.3575  1.1292 -0.4659
35985SOL    HW219935  12.302   4.057   5.458  1.0877  1.8279  0.5352
35986SOL     OW19936  11.878   1.048  12.741  0.2961 -0.4137  0.0856
35986SOL    HW119937  11.855   1.095  12.821  1.0412 -0.6507  0.4496
35986SOL    HW219938  11.967   1.016  12.757  0.9387  0.5975 -1.3154
35987SOL     OW19939   3.227   3.258   8.115 -0.3125  0.1481 -0.5185
35987SOL    HW119940   3.204   3.318   8.045 -1.2817 -1.7586 -1.9007
35987SOL    HW219941   3.264   3.315   8.184 -3.5332  2.6495 -0.6379
35988SOL     OW19942   9.909  10.135   2.476  0.1612 -0.1183  0.3949
35988SOL    HW119943   9.923  10.229   2.466  2.0055 -0.3337  0.5033
35988SOL    HW219944   9.970  10.095   2.413 -0.3984 -1.2383  0.5407
35989SOL     OW19945   9.449   3.546   7.558  0.5598 -0.0410 -0.1889
35989SOL    HW119946   9.387   3.619   7.553  0.5016 -0.1382 -1.0173
35989SOL    HW219947   9.404   3.474   7.515  3.1167  1.2486 -6.0504
35990SOL     OW19948   2.990   4.570  11.824  1.2352  0.2326 -0.5363
35990SOL    HW119949   2.945   4.609  11.750 -0.1182  1.2855  0.7707
35990SOL    HW219950   2.990   4.476  11.806  0.1139  0.3874 -1.4426
35991SOL     OW19951   0.292   9.562   5.478 -0.5754 -0.1389 -0.4603
35991SOL    HW119952   0.236   9.519   5.412 -2.6645 -0.3021  1.2970
35991SOL    HW219953   0.265   9.522   5.561  1.4366  0.6076  0.5999
35992SOL     OW19954   9.750   4.957   6.065  0.5114  0.3515  0.0104
35992SOL    HW119955   9.797   5.039   6.046 -0.8110  1.0133 -0.5491
35992SOL    HW219956   9.672   4.985   6.113 -1.2480 -0.2383 -2.2780
35993SOL     OW19957   6.581   8.993   6.031 -0.2092  0.2435 -0.4201
35993SOL    HW119958   6.537   8.907   6.026 -1.0279  0.6071  0.2865
35993SOL    HW219959   6.670   8.973   6.059 -0.3473 -0.3856 -0.4165
35994SOL     OW19960   6.426   7.117  13.334 -0.1455 -0.8129 -0.3215
35994SOL    HW119961   6.401   7.059  13.262 -2.3282 -0.8245  0.3647
35994SOL    HW219962   6.442   7.058  13.407 -1.3230 -0.6349  0.0948
35995SOL     OW19963  11.751   2.339  13.653 -0.1817  0.0754  0.1543
35995SOL    HW119964  11.717   2.272  13.712  0.7253 -0.3832  0.1849
35995SOL    HW219965  11.735   2.422  13.699 -1.8028 -0.0613 -0.1342
35996SOL     OW19966  12.814   8.663   0.116 -0.3297  0.2925 -0.0741
35996SOL    HW119967  12.904   8.656   0.086 -0.0607  0.7532  0.5934
35996SOL    HW219968  12.793   8.756   0.108 -0.4392  0.3345  0.5976
35997SOL     OW19969   8.306   6.810   6.305  0.5221 -0.2178 -0.1377
35997SOL    HW119970   8.319   6.822   6.210 -1.2784  0.7128 -0.3023
35997SOL    HW219971   8.374   6.748   6.330  0.7222 -0.8935 -2.1487
35998SOL     OW19972   5.486   5.541  10.663 -0.4798  0.0836 -0.0380
35998SOL    HW119973   5.494   5.445  10.661  0.7943  0.1541  0.7289
35998SOL    HW219974   5.438   5.562  10.583  0.8397 -1.0754 -1.1913
35999SOL     OW19975   0.431  10.725  13.031 -0.3031  0.2682  0.1033
35999SOL    HW119976   0.450  10.665  13.104  0.6618  1.1847  0.6263
35999SOL    HW219977   0.445  10.672  12.953  2.0536  0.1684  0.5178
36000SOL     OW19978   9.184   2.425  12.242 -0.6890  0.2596  0.5212
36000SOL    HW119979   9.162   2.422  12.149 -1.2304 -0.3196  0.6618
36000SOL    HW219980   9.274   2.391  12.247  0.1649  2.2608 -0.0099
36001SOL     OW19981  12.692  13.931   7.925 -0.0798 -1.0348 -0.1462
36001SOL    HW119982  12.610  13.882   7.936  0.3939 -1.4683  2.0157
36001SOL    HW219983  12.664  14.020   7.903 -1.1379 -1.2639  0.1972
36002SOL     OW19984   8.180  10.857   4.036  0.9980 -0.1230 -0.5231
36002SOL    HW119985   8.112  10.851   4.103 -0.3562 -0.5892 -1.8806
36002SOL    HW219986   8.242  10.787   4.058  0.8450  0.0458  0.5023
36003SOL     OW19987  11.751  12.172   6.779  0.3565  0.3937  0.1216
36003SOL    HW119988  11.739  12.153   6.686  0.1017 -0.3418  0.2938
36003SOL    HW219989  11.812  12.104   6.809  0.1128  0.3768  0.5765
36004SOL     OW19990   9.076  12.304   9.387  0.9095  0.0726 -0.0384
36004SOL    HW119991   9.152  12.297   9.446  0.9077  0.5647  0.0216
36004SOL    HW219992   9.011  12.354   9.436  1.2075  1.1957 -0.7507
36005SOL     OW19993   9.004   7.699  12.747  0.0571  0.0813  0.0180
36005SOL    HW119994   9.024   7.649  12.826  0.1424 -0.1648 -0.1603
36005SOL    HW219995   9.073   7.765  12.742 -0.8157  1.1040  1.0070
36006SOL     OW19996   3.642   6.640  10.832  0.0467 -0.3789 -0.3092
36006SOL    HW119997   3.618   6.697  10.906 -3.3102 -0.7583 -0.9389
36006SOL    HW219998   3.577   6.659  10.765  0.9061 -2.5328 -1.8674
36007SOL     OW19999   2.524  11.037   8.421  0.5585  0.2179  0.1813
36007SOL    HW120000   2.472  10.957   8.425 -0.5370  0.4837 -3.9666
36007SOL    HW220001   2.475  11.099   8.475 -1.6228 -0.5149 -0.8116
36008SOL     OW20002   1.303   2.634  10.666 -0.2858  0.0619  0.2333
36008SOL    HW120003   1.322   2.588  10.748 -0.7300 -1.1568 -0.3240
36008SOL    HW220004   1.209   2.623  10.654 -0.2170  0.1768 -0.4571
36009SOL     OW20005  12.640   4.349   3.501 -0.4937  0.3318 -0.1707
36009SOL    HW120006  12.687   4.267   3.516 -1.2274 -0.2085 -0.7400
36009SOL    HW220007  12.686   4.413   3.555 -1.0546 -0.8292  1.7719
36010SOL     OW20008   8.870  11.576   3.002 -0.8672  0.3839 -0.2294
36010SOL    HW120009   8.855  11.540   3.090  0.7375  1.3609  0.4980
36010SOL    HW220010   8.918  11.507   2.956  3.0531  1.7050  1.4646
36011SOL     OW20011   9.588   5.403   2.971  0.0126 -0.3411 -0.3981
36011SOL    HW120012   9.512   5.449   2.936 -0.4532 -2.4731 -2.4384
36011SOL    HW220013   9.657   5.418   2.906 -0.2922 -2.7607 -1.3835
36012SOL     OW20014  11.756   9.423  12.521  0.3021 -0.6244  0.3397
36012SOL    HW120015  11.661   9.414  12.521  0.3116 -0.7796 -0.4219
36012SOL    HW220016  11.788   9.342  12.560  0.1571 -1.1405 -0.5807
36013SOL     OW20017   5.653  10.490   4.456  0.3278  0.1588 -0.5524
36013SOL    HW120018   5.615  10.578   4.449  0.2044  0.1175 -0.3730
36013SOL    HW220019   5.741  10.505   4.490 -0.0349  0.1331  0.4192
36014SOL     OW20020  12.157  11.123  13.294  0.4004  0.1775 -0.2202
36014SOL    HW120021  12.249  11.148  13.296  0.4678 -0.0995  0.7477
36014SOL    HW220022  12.158  11.028  13.284  0.2004  0.2478 -0.9313
36015SOL     OW20023  13.211   9.531  11.536 -0.3904  0.8070 -0.1531
36015SOL    HW120024  13.192   9.625  11.541 -1.8845  0.4745  1.8210
36015SOL    HW220025  13.256   9.512  11.619 -0.9665 -0.3626 -0.0957
36016SOL     OW20026   4.920  11.106   7.577 -0.3813 -0.0036 -0.1901
36016SOL    HW120027   5.006  11.102   7.534 -0.7229  4.3659 -1.7295
36016SOL    HW220028   4.862  11.057   7.519  0.2932  0.8261 -1.6216
36017SOL     OW20029  11.153   6.905  11.230  0.0080 -0.1827  0.0485
36017SOL    HW120030  11.245   6.906  11.255 -0.1918 -0.3155  0.7951
36017SOL    HW220031  11.146   6.974  11.164  0.4121  0.6057  0.8093
36018SOL     OW20032   7.627   4.293  11.237 -0.5183 -0.2022  0.0933
36018SOL    HW120033   7.597   4.219  11.184 -1.2636  0.4417 -0.4035
36018SOL    HW220034   7.615   4.265  11.327 -2.7298  0.0330 -0.0738
36019SOL     OW20035   0.031   7.610  10.750  0.1490  0.3085  0.8818
36019SOL    HW120036  -0.038   7.676  10.748 -0.0561  0.0765 -0.0625
36019SOL    HW220037   0.097   7.643  10.689  0.2487 -0.1484  0.7444
36020SOL     OW20038  10.212  13.076  12.727  0.2863 -0.4497 -0.0393
36020SOL    HW120039  10.237  13.138  12.658 -0.9923 -1.4637 -1.4921
36020SOL    HW220040  10.143  13.122  12.776 -2.2083 -1.3684 -2.4291
36021SOL     OW20041  13.884   1.654  13.252 -0.5880  0.6030 -0.0333
36021SOL    HW120042  13.853   1.731  13.300 -1.0957 -0.3384  1.1788
36021SOL    HW220043  13.974   1.642  13.282 -0.2329  1.1723 -0.8238
36022SOL     OW20044  10.913   2.443  10.057  0.2863 -0.2871  0.3497
36022SOL    HW120045  11.008   2.451  10.046  0.1037  4.2593  0.0271
36022SOL    HW220046  10.880   2.424   9.969  0.8319 -0.7840  0.2481
36023SOL     OW20047   2.815   3.807  12.198 -0.3538  0.4272 -0.6492
36023SOL    HW120048   2.801   3.825  12.105 -2.2518  1.3088 -0.2461
36023SOL    HW220049   2.878   3.874  12.226  1.3460 -0.7193 -1.5451
36024SOL     OW20050   6.175   2.876  10.845 -0.1557 -0.4269  0.3007
36024SOL    HW120051   6.256   2.919  10.871  0.4628 -0.7524 -1.0408
36024SOL    HW220052   6.202   2.795  10.802 -1.1677 -0.3786 -0.4709
36025SOL     OW20053  12.777   2.709   3.110 -0.4217 -0.7144  0.6551
36025SOL    HW120054  12.705   2.764   3.077  1.0500  0.4696 -0.7573
36025SOL    HW220055  12.812   2.757   3.185 -0.0602 -0.4327  0.3115
36026SOL     OW20056   6.244   2.123   4.246 -0.0453 -0.3124 -0.1886
36026SOL    HW120057   6.228   2.174   4.167  0.4625  2.3504  1.3308
36026SOL    HW220058   6.159   2.121   4.291 -0.0719 -0.8880 -0.2531
36027SOL     OW20059   1.577   4.078   6.472  0.2338  0.2153 -0.3867
36027SOL    HW120060   1.570   4.043   6.384  0.2113 -0.8484  0.0246
36027SOL    HW220061   1.665   4.114   6.477  0.6777 -0.8126 -0.4709
36028SOL     OW20062   2.901   7.289  10.972  0.3649 -0.5481  0.3120
36028SOL    HW120063   2.903   7.217  10.909 -1.4274  1.1608 -1.8496
36028SOL    HW220064   2.813   7.286  11.009 -0.1270  1.1473 -0.6311
36029SOL     OW20065   7.079   8.520   3.362  0.3458  0.0820  0.1586
36029SOL    HW120066   7.000   8.502   3.412 -0.4576  1.3837 -0.5859
36029SOL    HW220067   7.081   8.452   3.294 -0.0112 -0.0891  0.3174
36030SOL     OW20068   5.301   6.574  11.683 -0.3051 -0.0040 -0.1529
36030SOL    HW120069   5.359   6.626  11.627  2.8063 -2.0353  0.9328
36030SOL    HW220070   5.277   6.633  11.754  0.1926  0.9724 -0.7752
36031SOL     OW20071   4.837   0.040  13.769 -0.1688  0.1320 -0.1794
36031SOL    HW120072   4.917   0.076  13.732 -1.7131  0.9045 -3.1074
36031SOL    HW220073   4.774   0.112  13.764 -1.2640 -0.6562  1.3840
36032SOL     OW20074   0.200   2.475  10.087 -0.2665  0.4971 -0.2246
36032SOL    HW120075   0.286   2.498  10.052  0.5852 -1.6221  0.2702
36032SOL    HW220076   0.139   2.490  10.015  0.7380  0.6586 -1.0616
36033SOL     OW20077   3.872   5.307   5.341 -0.1253  0.1911  0.1731
36033SOL    HW120078   3.870   5.292   5.435 -1.8894 -1.0282 -0.0125
36033SOL    HW220079   3.945   5.367   5.328 -0.3568  1.0384  2.3868
36034SOL     OW20080   3.122  11.156  12.303  0.2188 -0.6412  0.5350
36034SOL    HW120081   3.040  11.205  12.305  0.2013 -0.5453  3.9148
36034SOL    HW220082   3.184  11.214  12.261 -0.8856  0.3183  0.1761
36035SOL     OW20083  11.510   8.775   9.789  0.6149 -0.1114  0.0137
36035SOL    HW120084  11.470   8.828   9.720  0.1494  1.4555  1.4338
36035SOL    HW220085  11.442   8.770   9.857  1.9871  0.6575  1.4987
36036SOL     OW20086  11.577   7.114   5.699 -0.3841  0.7086 -0.0720
36036SOL    HW120087  11.649   7.163   5.659  1.0358 -1.9658 -1.0410
36036SOL    HW220088  11.592   7.122   5.793  0.3035  1.4509 -0.2335
36037SOL     OW20089   1.015   8.530  10.624  0.0325  0.4573  0.1989
36037SOL    HW120090   1.068   8.478  10.563 -0.9874  0.0923 -0.4113
36037SOL    HW220091   1.035   8.493  10.710 -0.8981 -1.2246 -0.2444
36038SOL     OW20092   1.099   9.899   4.427 -0.1084  0.1513 -0.8614
36038SOL    HW120093   1.128   9.809   4.410  0.8523  0.5255 -1.2895
36038SOL    HW220094   1.180   9.948   4.440 -0.6546  0.7447  0.5570
36039SOL     OW20095  12.614   9.748   6.888  0.2181 -0.1972 -0.0357
36039SOL    HW120096  12.703   9.737   6.856  0.1021  0.8648 -0.7896
36039SOL    HW220097  12.572   9.663   6.873  1.1494 -0.7702  0.5330
36040SOL     OW20098   1.512   8.479  11.679  0.4799 -0.7365 -0.5643
36040SOL    HW120099   1.551   8.403  11.724  0.1057 -0.0636  0.9683
36040SOL    HW220100   1.431   8.445  11.641  0.1639 -1.0628  0.3647
36041SOL     OW20101   1.735  10.673   8.714  0.0809 -0.9952 -0.4585
36041SOL    HW120102   1.702  10.624   8.790 -0.2770 -2.9049 -1.7544
36041SOL    HW220103   1.659  10.721   8.682 -0.3827 -1.9665 -0.8830
36042SOL     OW20104   0.406   4.134   9.907  0.5666  0.4054  1.0664
36042SOL    HW120105   0.427   4.226   9.894  1.9482  0.2656  2.0869
36042SOL    HW220106   0.356   4.132   9.989  0.1947  0.2878  0.8377
36043SOL     OW20107   0.585   3.201  14.000 -0.0241  0.0191 -0.1600
36043SOL    HW120108   0.516   3.199  13.933  0.9518 -0.2662 -1.1896
36043SOL    HW220109   0.538   3.194  14.083 -1.2221 -0.3100 -0.8394
36044SOL     OW20110  10.085   2.274  12.842  0.1763 -0.2337 -0.0324
36044SOL    HW120111  10.028   2.349  12.861 -0.5036 -0.8324  0.3455
36044SOL    HW220112  10.174   2.307  12.855 -0.1158  0.5198  0.0791
36045SOL     OW20113   0.733   4.841   4.990 -0.1000  0.4634  0.4334
36045SOL    HW120114   0.715   4.860   4.898 -0.8272 -0.4068  0.3770
36045SOL    HW220115   0.660   4.785   5.018 -0.6942  1.9127  1.9593
36046SOL     OW20116  10.452   5.601  10.191 -0.2557  0.3287  0.5684
36046SOL    HW120117  10.426   5.575  10.102 -2.4912  0.9714  0.9831
36046SOL    HW220118  10.399   5.546  10.248  0.2636  0.7889  1.5116
36047SOL     OW20119   5.288   1.988  10.171 -0.7858 -0.1070 -0.0183
36047SOL    HW120120   5.290   1.984  10.075  0.7145 -1.0082  0.0222
36047SOL    HW220121   5.287   2.082  10.191 -0.2010  0.1048 -0.9155
36048SOL     OW20122   0.432  10.530  12.835 -0.0498 -1.0201 -0.2684
36048SOL    HW120123   0.378  10.573  12.768  0.4004 -0.7016 -0.4249
36048SOL    HW220124   0.385  10.448  12.854 -2.7313  0.8908  2.3761
36049SOL     OW20125   2.312   4.963   5.829  0.0568 -0.1689  0.0012
36049SOL    HW120126   2.300   4.869   5.818 -0.1172 -0.0907 -0.5048
36049SOL    HW220127   2.277   5.002   5.749 -2.0085  0.5139  1.1636
36050SOL     OW20128  11.190  10.627   4.762 -0.2959  0.3731 -0.2176
36050SOL    HW120129  11.281  10.641   4.789 -0.5041  1.0505  0.1440
36050SOL    HW220130  11.150  10.582   4.836 -0.0281 -0.7633 -0.7470
36051SOL     OW20131   9.239   6.567   0.396  0.4030  0.1339 -0.0380
36051SOL    HW120132   9.293   6.624   0.342  0.8539 -0.7594 -0.5612
36051SOL    HW220133   9.274   6.576   0.485 -1.2278  2.6842  0.4363
36052SOL     OW20134   4.047   3.260   1.366 -0.6351  0.4465  0.4924
36052SOL    HW120135   3.967   3.268   1.418 -1.0504 -2.0066  0.3730
36052SOL    HW220136   4.037   3.176   1.320  1.0740  1.0833 -1.1772
36053SOL     OW20137   4.240   5.590   3.151  0.1702  1.1220 -0.5768
36053SOL    HW120138   4.193   5.654   3.097 -1.5270  3.0730  2.8588
36053SOL    HW220139   4.170   5.537   3.190  1.3989 -0.8558 -0.9384
36054SOL     OW20140   8.807   3.403   7.014  0.2282  0.0578 -0.1989
36054SOL    HW120141   8.874   3.386   7.080 -2.0576 -1.1634  2.0146
36054SOL    HW220142   8.727   3.417   7.065 -1.7288 -1.1896 -2.7087
36055SOL     OW20143   1.021   5.463   9.229  0.1279 -0.1122 -0.4815
36055SOL    HW120144   1.034   5.374   9.197  3.1536  0.1778 -0.2838
36055SOL    HW220145   1.034   5.457   9.324 -1.2202  0.3056 -0.2500
36056SOL     OW20146  10.203   3.083   5.713 -0.4195  0.5192  0.2030
36056SOL    HW120147  10.270   3.086   5.781 -1.6507 -0.3302  1.5137
36056SOL    HW220148  10.236   3.020   5.649  0.8920  1.5504 -0.1648
36057SOL     OW20149  10.602   2.095   6.576 -0.5198 -0.0844  0.2582
36057SOL    HW120150  10.603   2.150   6.497  1.8462 -0.9801 -0.4313
36057SOL    HW220151  10.511   2.096   6.604 -1.0179  2.1846 -1.1163
36058SOL     OW20152   3.954   6.877   4.815 -0.1199 -0.3421  0.6362
36058SOL    HW120153   3.927   6.969   4.819  0.2861 -0.1644 -0.4534
36058SOL    HW220154   3.877   6.829   4.845 -0.3723  0.3387  1.1234
36059SOL     OW20155   0.979  13.639  12.640 -0.1985 -0.0063  0.3037
36059SOL    HW120156   0.954  13.587  12.716  3.1056 -0.4450  1.2566
36059SOL    HW220157   0.951  13.728  12.661 -2.0480 -0.6041  0.5760
36060SOL     OW20158   3.706   1.490  12.079  0.3394 -0.3614 -0.2199
36060SOL    HW120159   3.693   1.480  11.985  0.1954 -0.6803 -0.1674
36060SOL    HW220160   3.731   1.582  12.090 -1.8048  0.2771 -0.3316
36061SOL     OW20161   1.719   3.726   0.974 -0.1591  0.2261 -0.5142
36061SOL    HW120162   1.630   3.698   0.994 -0.6767  1.6766 -0.6484
36061SOL    HW220163   1.768   3.645   0.960 -1.6354 -0.5793 -1.1750
36062SOL     OW20164  13.132   8.066   8.910 -1.0264 -0.0627 -0.3874
36062SOL    HW120165  13.189   8.045   8.835  0.9714 -0.6388  1.2077
36062SOL    HW220166  13.076   7.988   8.920  0.9007 -1.3896  0.6205
36063SOL     OW20167   8.276   1.509   5.488  0.5091  0.3544  0.6235
36063SOL    HW120168   8.347   1.472   5.541  0.2962 -0.8949  0.0908
36063SOL    HW220169   8.257   1.440   5.424 -1.5520  0.4157  1.0955
36064SOL     OW20170   8.881   6.320  11.388 -0.5988  0.6405 -0.0718
36064SOL    HW120171   8.824   6.303  11.313  1.5449  1.6350 -2.0079
36064SOL    HW220172   8.850   6.258  11.455 -0.4817 -2.7555 -2.8541
36065SOL     OW20173   0.788  12.326   0.278  0.4931 -0.0901 -0.4119
36065SOL    HW120174   0.714  12.383   0.299  0.7708  0.5875 -1.2402
36065SOL    HW220175   0.780  12.310   0.184  1.1460 -0.3889 -0.4210
36066SOL     OW20176   4.112   2.451   6.383  0.8198 -0.9188  0.1913
36066SOL    HW120177   4.205   2.445   6.360  0.7627 -1.2394  0.0327
36066SOL    HW220178   4.100   2.541   6.413  1.4619 -1.2301  1.4483
36067SOL     OW20179   4.309   2.275  12.328 -0.3815 -0.1093  0.3223
36067SOL    HW120180   4.214   2.280  12.321 -0.4528  0.1260  1.3022
36067SOL    HW220181   4.339   2.364  12.311 -0.4127  0.0161  0.8846
36068SOL     OW20182   9.758  13.100  12.473  0.2353  0.2095 -0.0916
36068SOL    HW120183   9.756  13.159  12.398 -1.0465 -0.2645 -0.4521
36068SOL    HW220184   9.713  13.021  12.443 -0.2539 -0.0034  1.1489
36069SOL     OW20185   8.530   2.749   1.546  0.4087  0.3673 -0.5190
36069SOL    HW120186   8.510   2.757   1.453  0.4153 -1.3686 -0.6892
36069SOL    HW220187   8.448   2.772   1.590 -0.5836 -1.9016 -1.0699
36070SOL     OW20188   6.653   3.436   2.885 -0.1696 -0.5332  0.1726
36070SOL    HW120189   6.691   3.518   2.852 -0.9641 -0.4875 -0.6711
36070SOL    HW220190   6.703   3.367   2.841 -1.9591 -0.4744 -2.1021
36071SOL     OW20191  10.212  11.667   7.895  0.3234 -0.1749 -0.3848
36071SOL    HW120192  10.306  11.684   7.890  0.0267  1.8574  0.0209
36071SOL    HW220193  10.199  11.586   7.847  2.5322 -1.5735  1.2255
36072SOL     OW20194   4.060   9.957  13.093  0.2891 -0.4964  0.0174
36072SOL    HW120195   4.038   9.909  13.013 -0.9521 -0.0310  0.0571
36072SOL    HW220196   4.150   9.986  13.080 -0.8110  2.2627 -2.6138
36073SOL     OW20197   6.045   4.890   7.954 -0.5153  0.0244 -0.3700
36073SOL    HW120198   6.082   4.936   8.029 -0.1006  0.8941 -1.0819
36073SOL    HW220199   5.969   4.942   7.929  1.3317  1.8454 -2.6915
36074SOL     OW20200  11.018   9.523  10.947  0.2264  0.5449 -0.4501
36074SOL    HW120201  10.989   9.521  10.856  1.1006  1.9008 -0.7853
36074SOL    HW220202  10.942   9.556  10.995 -0.1233  0.1613 -0.7334
36075SOL     OW20203   9.833   8.997  10.884  0.4135 -0.2844  0.0744
36075SOL    HW120204   9.862   8.950  10.806  0.0111 -1.7394  0.7734
36075SOL    HW220205   9.781   8.933  10.934 -2.2537  1.5692 -0.0962
36076SOL     OW20206   8.314   5.236   7.994 -0.6415  0.2681 -0.1139
36076SOL    HW120207   8.381   5.208   7.931 -1.0784  2.1448 -1.4622
36076SOL    HW220208   8.304   5.160   8.052  2.1922 -0.3087 -0.2297
36077SOL     OW20209   9.332   3.995   3.446 -0.4925 -0.7027 -0.4001
36077SOL    HW120210   9.334   4.032   3.358  0.2714  1.7966  0.5930
36077SOL    HW220211   9.239   3.982   3.464 -0.7049 -0.4507 -1.2672
36078SOL     OW20212   2.833  13.984   8.602  0.6638 -0.1008 -0.3378
36078SOL    HW120213   2.924  13.990   8.572  0.4222 -0.0292 -1.0919
36078SOL    HW220214   2.823  13.894   8.632  1.7424  0.5982  2.3758
36079SOL     OW20215   1.023   9.155   4.332 -0.0119  0.6614 -0.8195
36079SOL    HW120216   0.942   9.203   4.345  0.0396  0.2434  1.4899
36079SOL    HW220217   1.015   9.118   4.244 -2.0527  1.1338 -0.8879
36080SOL     OW20218  13.893   0.510   9.627 -0.0884 -0.2006  0.1640
36080SOL    HW120219  13.984   0.540   9.635 -0.5708  0.8932  2.0275
36080SOL    HW220220  13.849   0.546   9.704 -2.1287 -0.6692 -0.7315
36081SOL     OW20221   7.643  11.450   1.821 -0.0563  0.0989 -0.2461
36081SOL    HW120222   7.734  11.462   1.846 -0.3244 -1.4470  1.6892
36081SOL    HW220223   7.594  11.461   1.902 -1.6065  0.6688 -1.2043
36082SOL     OW20224   5.359   7.569  11.525  0.4829  0.2660 -0.3690
36082SOL    HW120225   5.415   7.600  11.454  0.8172 -0.0672 -0.2491
36082SOL    HW220226   5.300   7.506  11.484 -0.4897  1.3437 -0.7086
36083SOL     OW20227   5.411   6.045   6.437  0.5165 -0.0242 -0.3166
36083SOL    HW120228   5.486   5.988   6.425  1.0931  0.5597  0.4182
36083SOL    HW220229   5.399   6.088   6.353 -0.1114 -1.4174 -0.9773
36084SOL     OW20230   1.132   9.033   1.879 -0.3599 -0.1770  0.3582
36084SOL    HW120231   1.076   9.106   1.852 -1.6204 -1.1600  0.2649
36084SOL    HW220232   1.144   9.047   1.973 -1.4593 -0.3975  0.5488
36085SOL     OW20233   4.587   0.760   5.890  0.5367 -0.4469  0.1339
36085SOL    HW120234   4.538   0.780   5.970  1.9549 -0.0915  0.9614
36085SOL    HW220235   4.523   0.720   5.831 -1.0314  1.1439  0.6732
36086SOL     OW20236   9.473   4.604   8.801 -0.3468 -0.1769  0.3140
36086SOL    HW120237   9.537   4.563   8.860  0.6127  0.2121 -0.4191
36086SOL    HW220238   9.514   4.598   8.715 -2.1534 -1.6082 -0.4876
36087SOL     OW20239   4.145   3.045   7.998  0.8744 -0.3906  0.2007
36087SOL    HW120240   4.239   3.064   7.991  1.0450 -1.4765 -0.6819
36087SOL    HW220241   4.104   3.109   7.939  0.8087  1.6550  2.3454
36088SOL     OW20242  10.655   7.774  11.409 -0.3670  0.1800 -0.3887
36088SOL    HW120243  10.644   7.765  11.315 -1.3546 -0.3150 -0.2424
36088SOL    HW220244  10.620   7.693  11.445 -0.4038  0.5436  0.4248
36089SOL     OW20245   0.300   0.341   8.939  0.2091  0.4278  0.1019
36089SOL    HW120246   0.268   0.253   8.957  0.3592 -0.0552 -1.7464
36089SOL    HW220247   0.284   0.354   8.845  0.2152  2.3654  0.3210
36090SOL     OW20248   3.587   3.961   2.992 -0.1554  0.0169  0.2869
36090SOL    HW120249   3.583   3.950   2.897 -1.9575  1.6997  0.1233
36090SOL    HW220250   3.523   4.029   3.012 -0.4474 -0.8863  2.8211
36091SOL     OW20251   1.051  12.091   7.151 -0.0359  0.0827 -0.4360
36091SOL    HW120252   1.095  12.134   7.078  2.3554 -1.5693 -0.0798
36091SOL    HW220253   1.076  11.999   7.143 -1.2931 -0.4701  1.3959
36092SOL     OW20254   4.206   2.531   1.135 -0.2653  0.2534  0.1220
36092SOL    HW120255   4.154   2.477   1.075  0.7425 -0.3323 -0.2491
36092SOL    HW220256   4.262   2.469   1.181 -0.9509  0.7168  1.6150
36093SOL     OW20257  13.737   9.592   3.200  0.0425 -0.0280 -0.1550
36093SOL    HW120258  13.647   9.572   3.226  0.3144 -1.1499 -0.0385
36093SOL    HW220259  13.727   9.658   3.132 -0.7888  1.0877  0.9902
36094SOL     OW20260   0.592   2.015   7.224  0.0683  0.0049  0.4574
36094SOL    HW120261   0.551   2.000   7.309  0.4754  0.5506  0.7526
36094SOL    HW220262   0.529   1.979   7.161 -0.0943 -0.6905  0.9996
36095SOL     OW20263  11.828   7.153   6.198 -0.4567 -0.4122  0.1725
36095SOL    HW120264  11.862   7.101   6.271 -0.8954  0.6534  1.1895
36095SOL    HW220265  11.906   7.182   6.150 -0.0635 -0.0632  1.0005
36096SOL     OW20266  10.130   4.914   0.845  0.0615 -0.0968  0.8868
36096SOL    HW120267  10.223   4.911   0.820  0.2724  1.3228  1.4070
36096SOL    HW220268  10.085   4.869   0.774  1.2335 -1.7504  1.1323
36097SOL     OW20269   3.199   2.013   0.031 -0.0092  0.1353  0.2755
36097SOL    HW120270   3.289   2.044   0.033  0.0953 -0.1805  0.8432
36097SOL    HW220271   3.206   1.918   0.036 -0.3584  0.0743 -0.3012
36098SOL     OW20272   0.647   5.567   0.676 -0.8130 -0.2713 -0.0264
36098SOL    HW120273   0.700   5.495   0.639  0.4849  0.3544  0.5348
36098SOL    HW220274   0.619   5.533   0.761  1.5885  0.5777  1.2103
36099SOL     OW20275   0.031   2.450  12.986  0.5422  0.0551  0.1282
36099SOL    HW120276   0.041   2.369  13.037 -0.6715 -1.0066 -1.2346
36099SOL    HW220277   0.041   2.422  12.895  0.3038  1.4895 -0.3559
36100SOL     OW20278   1.642   6.300  10.373 -0.2706 -0.1676  0.0105
36100SOL    HW120279   1.696   6.239  10.322  0.8675 -0.4944  1.5292
36100SOL    HW220280   1.613   6.365  10.310  2.4075  0.3619 -0.8159
36101SOL     OW20281   5.774   5.505  13.259 -0.3971  0.1270 -0.2327
36101SOL    HW120282   5.758   5.497  13.353 -4.0013  0.9687 -0.6635
36101SOL    HW220283   5.718   5.439  13.219 -0.9443  1.5194 -1.8896
36102SOL     OW20284   5.642   1.682   0.666 -0.3826 -0.1270  0.0314
36102SOL    HW120285   5.653   1.613   0.600 -1.3241  1.3128 -1.7367
36102SOL    HW220286   5.731   1.707   0.690 -0.0176 -0.9015 -0.4686
36103SOL     OW20287   5.931  11.062   3.439 -0.6573  0.4235 -0.3007
36103SOL    HW120288   5.883  11.074   3.357 -0.6139 -1.0824 -0.5613
36103SOL    HW220289   6.001  11.128   3.435 -1.8527  1.7255 -0.5236
36104SOL     OW20290   0.327   2.877   8.289 -0.1055 -0.2942  0.4105
36104SOL    HW120291   0.417   2.886   8.258  0.0102  0.3445  0.9285
36104SOL    HW220292   0.334   2.824   8.369 -0.1502  0.0683  0.6556
36105SOL     OW20293  13.033   4.263   8.429 -0.4685  0.3689 -0.1807
36105SOL    HW120294  13.094   4.300   8.364 -0.5137  0.5746 -0.1081
36105SOL    HW220295  13.068   4.291   8.514 -0.1089 -0.3472 -0.0827
36106SOL     OW20296   2.635  11.272   6.943 -0.0163  0.2893  0.2122
36106SOL    HW120297   2.632  11.177   6.944 -0.4144  0.2267 -2.2356
36106SOL    HW220298   2.648  11.295   6.851  0.5759  2.5987  0.8110
36107SOL     OW20299   0.485   8.390   7.742 -0.3452 -0.0144 -0.2315
36107SOL    HW120300   0.528   8.359   7.822  0.0228 -1.9127 -1.1093
36107SOL    HW220301   0.401   8.424   7.772  0.0456 -0.0816  1.0290
36108SOL     OW20302  12.565  12.802   6.164 -0.5388  0.2470  0.4075
36108SOL    HW120303  12.608  12.721   6.192 -1.6161 -0.2918  0.5727
36108SOL    HW220304  12.637  12.860   6.140  0.3048 -0.4038  1.2401
36109SOL     OW20305  11.055   7.256   0.504  0.2252  0.2096  0.1458
36109SOL    HW120306  11.150   7.245   0.515 -0.0731 -0.8561  2.2915
36109SOL    HW220307  11.019   7.169   0.523 -1.2087  0.7070 -0.1801
36110SOL     OW20308  10.169   9.742   7.732  0.1822 -0.0676 -0.0590
36110SOL    HW120309  10.260   9.714   7.723 -0.1208 -1.7431  1.5032
36110SOL    HW220310  10.119   9.661   7.735 -1.2980  0.8024 -0.1365
36111SOL     OW20311   7.575  10.995  12.198 -0.2093  0.2521 -0.1418
36111SOL    HW120312   7.646  10.979  12.260  0.2890 -2.2092 -1.2534
36111SOL    HW220313   7.535  11.077  12.229  0.8310 -0.1729  2.6194
36112SOL     OW20314   7.907   7.056   0.313  0.4353 -0.7638 -0.5109
36112SOL    HW120315   7.974   7.007   0.264  1.0493  0.0186 -0.4794
36112SOL    HW220316   7.933   7.148   0.304 -1.1555 -0.3578 -1.2546
36113SOL     OW20317   5.626   2.522   7.589 -0.2337 -0.1094 -0.4952
36113SOL    HW120318   5.577   2.489   7.664  1.2743 -2.1124 -0.3078
36113SOL    HW220319   5.715   2.489   7.602  0.5349  1.1422 -2.1814
36114SOL     OW20320   4.670   5.229   9.531 -0.4515  0.2302 -0.6486
36114SOL    HW120321   4.601   5.230   9.598 -0.1766  1.5091 -0.3574
36114SOL    HW220322   4.643   5.160   9.471 -1.2112 -0.2957  0.2602
36115SOL     OW20323   0.577   6.466   4.229 -0.4350  0.2262  0.2474
36115SOL    HW120324   0.662   6.460   4.184  0.2093  0.0108  1.4632
36115SOL    HW220325   0.568   6.382   4.274 -0.3045  1.0430  1.8319
36116SOL     OW20326   3.783   8.999  12.924 -0.4371 -0.4968 -0.0629
36116SOL    HW120327   3.815   9.019  12.836 -0.8996  0.9118  0.0626
36116SOL    HW220328   3.687   9.003  12.915 -0.5574 -2.3077  0.0853
36117SOL     OW20329  12.542  11.571   0.407 -0.2155  0.2595  0.0242
36117SOL    HW120330  12.621  11.620   0.426 -1.0731  1.4277  0.7026
36117SOL    HW220331  12.540  11.501   0.472  1.4227 -1.2244 -1.4407
36118SOL     OW20332  11.771  11.229   2.735  0.0480 -0.3774  0.1304
36118SOL    HW120333  11.832  11.183   2.793 -1.0531 -0.8888  0.9130
36118SOL    HW220334  11.703  11.262   2.793 -1.5357 -1.6132 -0.9278
36119SOL     OW20335   8.887   4.790  10.762  0.3462  0.0790  0.4411
36119SOL    HW120336   8.827   4.864  10.765 -0.3480 -0.3523 -1.4436
36119SOL    HW220337   8.910   4.781  10.669 -0.2926 -2.5883  0.4467
36120SOL     OW20338   1.221   6.879   5.797  0.0433 -0.5306 -0.0765
36120SOL    HW120339   1.207   6.923   5.881  0.2169 -0.2477 -0.1925
36120SOL    HW220340   1.253   6.948   5.739  0.8243 -0.9200 -0.1224
36121SOL     OW20341   2.594   4.178  11.400 -0.0669  0.2284 -0.3228
36121SOL    HW120342   2.665   4.225  11.356 -0.8027  1.1665 -0.5367
36121SOL    HW220343   2.584   4.223  11.484 -1.8531  1.5579 -1.1813
36122SOL     OW20344  11.826   1.111   0.624 -0.3525 -0.5460  1.0155
36122SOL    HW120345  11.879   1.079   0.551 -2.0109 -0.4074 -0.3211
36122SOL    HW220346  11.753   1.048   0.630 -0.5945 -0.1864  2.1304
36123SOL     OW20347   0.606  11.234   8.063  0.4899  0.2722  0.1576
36123SOL    HW120348   0.530  11.233   8.006  0.8832  0.9046 -0.4023
36123SOL    HW220349   0.644  11.322   8.051  1.3009 -0.0279  0.4214
36124SOL     OW20350  10.253  12.462   6.668  0.1652 -0.2762 -0.1874
36124SOL    HW120351  10.223  12.378   6.633  0.2032 -0.0065 -0.8770
36124SOL    HW220352  10.337  12.442   6.709 -0.6600 -0.9308  1.2756
36125SOL     OW20353  13.173  13.106   3.664  0.2451  1.0709 -0.4970
36125SOL    HW120354  13.268  13.109   3.651  0.4890  0.9211  1.0896
36125SOL    HW220355  13.143  13.195   3.644  1.0550  1.7646  1.1997
36126SOL     OW20356  11.466   7.052   6.738 -0.4196  0.2511  0.2996
36126SOL    HW120357  11.433   7.140   6.723 -1.7557  0.0613  1.8258
36126SOL    HW220358  11.533   7.063   6.805  1.8385  0.4598 -1.8409
36127SOL     OW20359  12.507  11.508  12.946  0.9142 -0.1360 -0.6553
36127SOL    HW120360  12.484  11.590  12.989  1.6747  0.2610 -0.9949
36127SOL    HW220361  12.453  11.508  12.866  0.5609 -0.1962 -0.4188
36128SOL     OW20362   7.299  13.551   0.499  0.3162  0.3473  0.1977
36128SOL    HW120363   7.300  13.468   0.453 -0.3499  0.8366 -0.7255
36128SOL    HW220364   7.369  13.602   0.458  1.2097  0.0103  1.2471
36129SOL     OW20365   2.681   2.730   7.178 -0.4441  0.3795  0.3176
36129SOL    HW120366   2.744   2.802   7.182 -1.1897  1.1199 -0.7426
36129SOL    HW220367   2.728   2.660   7.131 -1.3347  2.0478 -3.4258
36130SOL     OW20368   8.728   0.248  10.670  0.2475 -0.0508 -0.0109
36130SOL    HW120369   8.648   0.217  10.711 -1.4352  0.9586 -2.3373
36130SOL    HW220370   8.734   0.340  10.696  0.6290 -0.0994  0.0876
36131SOL     OW20371   3.490   0.116   7.597  0.2051 -0.9026  0.3361
36131SOL    HW120372   3.501   0.044   7.535 -0.9685 -0.8256  0.0181
36131SOL    HW220373   3.568   0.170   7.585 -0.5212 -0.2797 -1.9000
36132SOL     OW20374   8.590   4.956   1.714  0.4577  0.3606  0.4124
36132SOL    HW120375   8.610   4.912   1.797 -0.6400 -0.3607  0.3218
36132SOL    HW220376   8.653   5.027   1.709  1.8768 -0.7966  0.9015
36133SOL     OW20377   3.582  11.015   1.340  0.0934  0.6790  0.4668
36133SOL    HW120378   3.566  11.047   1.429 -1.2899 -1.6189  1.1392
36133SOL    HW220379   3.670  10.979   1.342  0.2677  1.1173  0.7473
36134SOL     OW20380  12.437   3.671   2.863 -0.3000 -0.4579  0.2800
36134SOL    HW120381  12.373   3.602   2.877 -0.0136 -0.6400  0.7075
36134SOL    HW220382  12.475   3.687   2.949  1.9119 -1.9994 -0.3322
36135SOL     OW20383  12.153   1.114   9.385  0.2542  0.3309 -0.0727
36135SOL    HW120384  12.154   1.210   9.391 -0.2131  0.4479 -1.5462
36135SOL    HW220385  12.235   1.087   9.425 -0.5414  1.1949  2.3408
36136SOL     OW20386  13.158  13.682   1.681  0.2501 -0.2571  0.8519
36136SOL    HW120387  13.113  13.598   1.691 -0.6403 -0.1145 -1.3114
36136SOL    HW220388  13.247  13.659   1.653 -0.1165 -0.5074 -0.1527
36137SOL     OW20389   6.993   5.843   3.153 -0.0467 -0.6515 -0.2313
36137SOL    HW120390   6.898   5.844   3.140 -0.5150  1.7530  2.4596
36137SOL    HW220391   7.015   5.932   3.179  2.4458 -1.7881  2.1224
36138SOL     OW20392   7.729   3.951   7.957 -0.1360 -0.4342  0.2185
36138SOL    HW120393   7.777   4.033   7.968 -0.0580 -0.5280  0.5996
36138SOL    HW220394   7.664   3.952   8.027 -0.9667 -0.1199 -0.5408
36139SOL     OW20395   9.762   5.339   4.932  0.2866  0.1385 -0.6560
36139SOL    HW120396   9.847   5.322   4.891  0.5975 -0.9872  0.3764
36139SOL    HW220397   9.767   5.292   5.016 -1.6959 -0.7300 -0.9823
36140SOL     OW20398   4.450  12.744  10.084 -0.0538 -0.0699  0.5099
36140SOL    HW120399   4.391  12.672  10.105 -0.3854 -0.0651 -0.3263
36140SOL    HW220400   4.482  12.724   9.996  1.5511 -0.2824  1.1097
36141SOL     OW20401   1.114   3.492  10.551 -0.3874  0.4220 -0.2578
36141SOL    HW120402   1.174   3.565  10.546 -1.9804  1.7081 -1.9796
36141SOL    HW220403   1.053   3.516  10.621 -1.0309  0.8676 -0.9587
36142SOL     OW20404   9.150  10.618   7.340 -0.1945 -0.1549 -0.0766
36142SOL    HW120405   9.245  10.601   7.340 -0.1793 -0.0741 -0.1911
36142SOL    HW220406   9.123  10.600   7.430 -0.2200 -0.9853 -0.2418
36143SOL     OW20407   4.213   2.076   5.482 -0.5702 -0.6120 -0.1985
36143SOL    HW120408   4.210   1.981   5.481 -4.3034 -0.6786 -1.2851
36143SOL    HW220409   4.133   2.103   5.436 -0.4359  3.0400  1.3032
36144SOL     OW20410   5.826   6.588  11.719  0.6471  0.1199 -0.2248
36144SOL    HW120411   5.734   6.611  11.712  0.4099 -0.8607 -0.5588
36144SOL    HW220412   5.843   6.585  11.813  0.4826  0.8147 -0.1695
36145SOL     OW20413   5.326   1.536   4.575  0.1745  0.2385  0.3632
36145SOL    HW120414   5.402   1.568   4.624  0.5374  0.2830 -0.2213
36145SOL    HW220415   5.271   1.613   4.562 -0.2683  0.1014  1.2883
36146SOL     OW20416   9.632   2.635   9.271  0.1805  0.3485  0.0228
36146SOL    HW120417   9.624   2.551   9.315 -1.1828  0.0791 -0.6956
36146SOL    HW220418   9.698   2.683   9.322  0.7405 -1.0172  0.6232
36147SOL     OW20419   6.045   2.080   4.427  0.4277  0.3024  0.5102
36147SOL    HW120420   6.098   2.000   4.427  0.8610  0.5496 -1.2125
36147SOL    HW220421   5.955   2.050   4.438  0.2816 -0.7396 -2.4987
36148SOL     OW20422   1.946  12.481   0.749  0.0543  0.3122 -0.5482
36148SOL    HW120423   1.940  12.385   0.748  0.3390  0.2795  0.4507
36148SOL    HW220424   1.942  12.505   0.656  2.6958 -0.8302 -1.0515
36149SOL     OW20425   2.210  12.026   3.501  0.1013  0.4277 -0.2571
36149SOL    HW120426   2.199  11.956   3.437  0.4964 -0.8512  1.0264
36149SOL    HW220427   2.303  12.046   3.499  0.2938 -0.3191  0.6007
36150SOL     OW20428   5.490   9.090   5.716  0.2547 -0.3091  0.3275
36150SOL    HW120429   5.567   9.143   5.697  0.0472 -0.0777  0.1098
36150SOL    HW220430   5.418   9.153   5.717 -0.1761 -0.7392 -1.1275
36151SOL     OW20431   0.652  12.718  10.603  0.7565  0.1774 -0.7572
36151SOL    HW120432   0.642  12.730  10.508 -1.0764  0.8609 -0.5175
36151SOL    HW220433   0.609  12.794  10.641  0.7174 -0.5206  0.6451
36152SOL     OW20434  10.234   1.588   9.660  0.2597 -0.0854 -0.0760
36152SOL    HW120435  10.188   1.576   9.743 -2.2394 -0.2910 -1.3960
36152SOL    HW220436  10.194   1.664   9.620  0.7761 -0.5180 -1.4985
36153SOL     OW20437  11.379  12.330  13.477  0.9571 -0.2699  0.1005
36153SOL    HW120438  11.316  12.396  13.447 -1.0660 -2.8967 -1.9240
36153SOL    HW220439  11.375  12.335  13.572  0.1328  1.8154  0.0145
36154SOL     OW20440  13.934   8.336   3.777 -0.3237  0.1332  0.0737
36154SOL    HW120441  13.880   8.415   3.767 -0.6524 -0.0731  0.2156
36154SOL    HW220442  13.930   8.316   3.870  1.0020  0.8222  0.3034
36155SOL     OW20443   7.842  11.623  10.751 -0.3286  0.2905 -0.2679
36155SOL    HW120444   7.786  11.658  10.683  2.3782  1.5256 -2.0096
36155SOL    HW220445   7.892  11.554  10.708  0.5618  0.2249  0.8161
36156SOL     OW20446   2.552   4.273  11.656  0.4718 -0.1105 -0.0662
36156SOL    HW120447   2.475   4.303  11.705 -0.2487  0.8428 -1.6800
36156SOL    HW220448   2.622   4.331  11.683  0.0614  0.4720 -0.2413
36157SOL     OW20449  10.767  11.269   2.213 -0.1185 -0.4073  0.3307
36157SOL    HW120450  10.861  11.256   2.199 -0.1807 -0.4853 -0.0397
36157SOL    HW220451  10.729  11.261   2.125 -0.4823 -0.4835  0.4943
36158SOL     OW20452   0.331  11.663  11.363 -0.2244  0.1935  0.6022
36158SOL    HW120453   0.285  11.581  11.382 -0.5022  0.1065 -0.4025
36158SOL    HW220454   0.266  11.718  11.320 -0.3552  1.3648  2.2046
36159SOL     OW20455  13.404   7.438  11.396  0.3044 -0.8323 -0.0252
36159SOL    HW120456  13.451   7.436  11.313 -1.0277 -0.1163 -0.8229
36159SOL    HW220457  13.312   7.431  11.372 -0.1886  0.5245  1.3033
36160SOL     OW20458   6.257   2.553   9.039  0.0764  0.0191 -0.2789
36160SOL    HW120459   6.277   2.548   8.946 -1.9818  0.2051 -0.7765
36160SOL    HW220460   6.265   2.463   9.070  0.1154 -0.1493 -0.7686
36161SOL     OW20461   8.977   3.656  11.787 -0.1556 -0.1332  0.3028
36161SOL    HW120462   8.938   3.677  11.702  0.3474  0.7904  0.2760
36161SOL    HW220463   8.944   3.725  11.846 -0.4336 -0.7153  0.8380
36162SOL     OW20464   4.431   7.072   1.902 -0.1089  0.2716 -0.0741
36162SOL    HW120465   4.388   6.993   1.934 -0.5726  0.5472 -0.0104
36162SOL    HW220466   4.421   7.136   1.973 -1.4176  0.9892 -0.8571
36163SOL     OW20467   1.978  13.468   3.228  0.1981  0.7996  0.2322
36163SOL    HW120468   2.056  13.413   3.219 -0.1697  0.4873 -1.5012
36163SOL    HW220469   2.010  13.557   3.217  0.2928  0.6517 -0.7831
36164SOL     OW20470  12.428   9.086   2.204 -0.3823 -0.0473  0.3249
36164SOL    HW120471  12.502   9.132   2.165 -0.8454  1.5364  1.2436
36164SOL    HW220472  12.458   9.062   2.292 -0.9080  0.5292  0.6709
36165SOL     OW20473  10.140   7.806   5.443  0.3732 -0.0189  0.1003
36165SOL    HW120474  10.226   7.768   5.428  1.1908  1.6581  0.2992
36165SOL    HW220475  10.078   7.738   5.417  1.6436 -2.7751  3.5170
36166SOL     OW20476   7.948   5.530   1.229 -0.1063 -0.7764 -0.2858
36166SOL    HW120477   8.043   5.532   1.218  0.1298 -1.3182  1.2895
36166SOL    HW220478   7.927   5.437   1.234 -0.7747 -0.6657 -0.9552
36167SOL     OW20479  10.753   7.267  13.039 -0.4740  0.2282 -0.7938
36167SOL    HW120480  10.725   7.188  13.087  2.0690  1.3264  2.9420
36167SOL    HW220481  10.693   7.335  13.069  0.6492  0.7603  0.3312
36168SOL     OW20482  11.935  10.758  12.666  0.3682  0.7144  0.4445
36168SOL    HW120483  11.943  10.705  12.587  1.1384 -0.9376  1.5926
36168SOL    HW220484  11.852  10.730  12.705  0.7822  0.3360  1.0613
36169SOL     OW20485  13.454  12.813   1.864 -0.0484  0.3331  0.1971
36169SOL    HW120486  13.397  12.756   1.812 -2.5212  2.4091  0.4590
36169SOL    HW220487  13.411  12.819   1.949  0.5780  1.9526  0.4276
36170SOL     OW20488   8.626   9.596   5.970  0.2546  0.1336  0.4640
36170SOL    HW120489   8.703   9.580   6.025 -0.8481 -1.1197  1.6874
36170SOL    HW220490   8.612   9.514   5.923  1.3042  1.2337 -1.9582
36171SOL     OW20491  10.089   4.447   3.130 -0.1834  0.6878 -0.7521
36171SOL    HW120492  10.069   4.419   3.219  0.4614  3.4753  0.3806
36171SOL    HW220493  10.184   4.443   3.124 -0.2315  0.3660 -1.3884
36172SOL     OW20494   6.709   3.399   7.198  0.3515 -0.2566  0.0438
36172SOL    HW120495   6.677   3.442   7.119  0.8790 -1.4742 -0.8780
36172SOL    HW220496   6.794   3.440   7.215  0.9540 -1.0202 -0.9585
36173SOL     OW20497  13.946   5.990   3.406 -0.3966 -0.2869 -0.4917
36173SOL    HW120498  14.035   6.026   3.414  0.6599 -2.2800 -2.2483
36173SOL    HW220499  13.955   5.899   3.432 -1.7534 -0.7146 -1.4313
36174SOL     OW20500   0.536   7.772   5.250  0.0976 -0.3958 -0.1519
36174SOL    HW120501   0.589   7.804   5.323  0.9727 -1.2044 -0.4115
36174SOL    HW220502   0.503   7.687   5.280 -0.0942 -0.4233 -0.4398
36175SOL     OW20503  12.943  10.664   8.469 -0.3711  0.4199  0.3387
36175SOL    HW120504  12.875  10.714   8.424 -1.0976 -0.0274  0.9121
36175SOL    HW220505  12.938  10.693   8.560 -0.8009 -0.6680  0.6803
36176SOL     OW20506  10.859   6.468   7.732  0.2920 -0.2655 -0.1285
36176SOL    HW120507  10.793   6.412   7.771  1.2490 -1.2486  0.1267
36176SOL    HW220508  10.917   6.408   7.685  0.7046  0.6257 -0.7916
36177SOL     OW20509   1.830   4.588   1.413 -0.1127  0.5808 -0.0416
36177SOL    HW120510   1.849   4.680   1.398  0.7337  0.3810 -0.2499
36177SOL    HW220511   1.772   4.564   1.341 -0.6865  1.0549  0.2587
36178SOL     OW20512   8.425  11.133   4.502  0.1269  0.0850 -0.1180
36178SOL    HW120513   8.356  11.138   4.436  0.1677  0.1661 -0.1549
36178SOL    HW220514   8.431  11.222   4.537 -0.0960 -0.0235  0.1993
36179SOL     OW20515   6.977   0.824   2.312  0.1739 -0.0071 -0.5479
36179SOL    HW120516   7.037   0.870   2.371  0.7240 -1.8149  0.3993
36179SOL    HW220517   7.030   0.807   2.234  0.7234 -1.0161  0.0219
36180SOL     OW20518   4.383   9.959  13.826 -0.4446  0.0765 -0.2137
36180SOL    HW120519   4.298   9.967  13.870 -0.6322 -0.4102 -0.4774
36180SOL    HW220520   4.366   9.988  13.736  0.0599  1.5925  0.1377
36181SOL     OW20521   6.631   1.793   4.306 -0.1023 -0.4948 -0.5292
36181SOL    HW120522   6.682   1.870   4.329 -2.6789  1.1549  0.1038
36181SOL    HW220523   6.544   1.827   4.283 -0.6382 -2.9909 -2.8348
36182SOL     OW20524   0.187  10.264  12.158  0.0932 -0.4655  0.1194
36182SOL    HW120525   0.195  10.359  12.163 -3.1315 -0.0345 -0.7834
36182SOL    HW220526   0.257  10.237  12.098  0.6006  1.4376 -0.1892
36183SOL     OW20527  10.732   4.763   9.463  0.1280  0.5848  0.4659
36183SOL    HW120528  10.652   4.754   9.410  1.1109 -0.8389 -0.8869
36183SOL    HW220529  10.722   4.697   9.532 -1.0038  2.2126  1.9285
36184SOL     OW20530  11.764   7.973   6.841  0.3537  0.6773 -0.2625
36184SOL    HW120531  11.809   7.946   6.761  2.1927  1.9525  0.2871
36184SOL    HW220532  11.812   8.050   6.872 -0.2108  0.1649  2.1317
36185SOL     OW20533  11.534   2.757  13.895 -0.5304 -0.0686 -0.1816
36185SOL    HW120534  11.530   2.743  13.800 -1.4775 -2.4053  0.1522
36185SOL    HW220535  11.442   2.761  13.922 -0.3015 -1.3875  0.8733
36186SOL     OW20536  10.101   6.612   0.186 -0.0140 -0.1275  0.4598
36186SOL    HW120537  10.169   6.662   0.231 -0.7844  1.2162  0.2050
36186SOL    HW220538  10.112   6.522   0.217  1.0559  0.3041  1.3900
36187SOL     OW20539   9.218   2.312   3.854 -0.4269  0.2956 -0.0325
36187SOL    HW120540   9.161   2.352   3.920  1.8746  4.4241 -0.2471
36187SOL    HW220541   9.202   2.363   3.775 -0.2932 -2.0661 -1.6845
36188SOL     OW20542   2.344  13.300   7.325  0.0757 -0.1008  0.3148
36188SOL    HW120543   2.304  13.310   7.411 -0.4020  0.0232  0.0803
36188SOL    HW220544   2.291  13.234   7.281  0.7888 -0.7445  0.3937
36189SOL     OW20545   1.681   5.427   7.801 -0.1000  0.8793 -0.9956
36189SOL    HW120546   1.709   5.444   7.891 -0.9698  2.0508 -0.9142
36189SOL    HW220547   1.723   5.496   7.749 -2.0447  2.1502 -0.9869
36190SOL     OW20548   1.665   3.084  11.189 -0.3522 -0.5108  0.0764
36190SOL    HW120549   1.731   3.067  11.256  0.2074 -0.8573 -0.5562
36190SOL    HW220550   1.692   3.165  11.147  1.8398 -2.4606 -2.6896
36191SOL     OW20551  12.830   3.567   5.487 -0.2336  0.3014 -0.1972
36191SOL    HW120552  12.785   3.598   5.566 -3.3012 -4.6815  0.4344
36191SOL    HW220553  12.922   3.560   5.513 -0.8071  0.8220  2.2036
36192SOL     OW20554   4.839   0.597   0.986 -0.4498 -0.9760  0.1883
36192SOL    HW120555   4.786   0.517   0.988 -1.4646 -0.3182  0.4623
36192SOL    HW220556   4.913   0.575   0.929 -0.6977 -2.1109  0.2725
36193SOL     OW20557   9.087  13.325   1.082 -0.1243  0.3243  0.1521
36193SOL    HW120558   9.082  13.235   1.052 -2.0922  0.1490  0.8797
36193SOL    HW220559   9.025  13.330   1.155  1.5402  1.7160  1.5932
36194SOL     OW20560   8.167   2.195  12.491  0.3285  0.3610 -0.4844
36194SOL    HW120561   8.098   2.129  12.484 -0.2625  0.6429  1.7217
36194SOL    HW220562   8.122   2.274  12.521  1.4464  0.8285  0.0170
36195SOL     OW20563   8.139  11.411  12.437  0.0855  0.1434 -0.4261
36195SOL    HW120564   8.048  11.428  12.462  0.4242  2.5265 -0.6307
36195SOL    HW220565   8.135  11.387  12.345 -0.4902 -1.8758  0.0742
36196SOL     OW20566   7.985  13.460   6.483 -0.1166  0.2099 -0.5478
36196SOL    HW120567   7.932  13.526   6.437 -0.7274  0.1610  0.0679
36196SOL    HW220568   8.026  13.508   6.554  1.5424  0.4794 -1.6351
36197SOL     OW20569   0.911  12.108   5.137 -0.5129 -0.0314 -0.2525
36197SOL    HW120570   0.849  12.034   5.137  0.3536 -0.8733  2.7608
36197SOL    HW220571   0.992  12.072   5.172  0.3808  2.0386 -0.0401
36198SOL     OW20572   2.580   8.525   1.756  0.3977 -0.6655 -0.2358
36198SOL    HW120573   2.512   8.536   1.690  0.5373  1.4530 -0.0905
36198SOL    HW220574   2.539   8.554   1.838  1.6351  1.4113 -0.2765
36199SOL     OW20575   7.589  12.482  13.723 -0.3130 -0.0183  0.2889
36199SOL    HW120576   7.619  12.566  13.760  0.6446 -0.2391  0.0394
36199SOL    HW220577   7.565  12.430  13.799 -0.7626  0.4186  0.4566
36200SOL     OW20578   4.000   1.433   5.085  0.2118 -0.4214 -0.2994
36200SOL    HW120579   4.014   1.380   5.007 -0.4340 -0.9910 -0.0348
36200SOL    HW220580   4.027   1.521   5.059 -0.1577 -0.5654 -1.2262
36201SOL     OW20581   0.546  13.682   3.376  0.0850  0.5014  0.1823
36201SOL    HW120582   0.528  13.776   3.382 -0.6127  0.4823 -1.2824
36201SOL    HW220583   0.593  13.672   3.293 -0.2197 -0.4962  0.1259
36202SOL     OW20584   5.241   4.152   8.682  0.0012  0.1687  0.0203
36202SOL    HW120585   5.212   4.187   8.766 -0.0387 -1.2237  0.6192
36202SOL    HW220586   5.294   4.221   8.643  0.7380  0.5055  1.5845
36203SOL     OW20587   4.483  12.875   7.681 -0.0622 -0.2052 -0.2445
36203SOL    HW120588   4.495  12.923   7.599 -0.0849 -1.6148 -1.1044
36203SOL    HW220589   4.565  12.888   7.729 -0.5419  1.7346  0.1543
36204SOL     OW20590  11.846   2.066   2.122  0.1625 -0.0398  0.4152
36204SOL    HW120591  11.764   2.113   2.106 -0.5437 -1.0833  0.8396
36204SOL    HW220592  11.913   2.121   2.082 -0.8794  0.2199 -1.0699
36205SOL     OW20593   6.906   2.795   6.897 -0.0557  0.4992 -0.2493
36205SOL    HW120594   6.858   2.792   6.980  0.5443 -3.3782  0.1667
36205SOL    HW220595   6.839   2.787   6.830 -0.3577 -2.3951  0.2393
36206SOL     OW20596  13.137   3.837   9.428  0.2806  0.0633 -0.1855
36206SOL    HW120597  13.118   3.891   9.352 -0.8967  0.4835  0.3790
36206SOL    HW220598  13.173   3.756   9.392 -1.6675 -0.3586 -1.3047
36207SOL     OW20599  11.134   6.670   2.772 -0.3431 -0.0051  1.0890
36207SOL    HW120600  11.174   6.586   2.794 -0.9034 -0.5339  0.1487
36207SOL    HW220601  11.061   6.678   2.833 -0.0974 -0.0502  1.3906
36208SOL     OW20602  11.491  10.080  10.001  0.0789 -0.1881  0.2906
36208SOL    HW120603  11.528  10.023  10.068 -1.0857 -0.8971  0.3460
36208SOL    HW220604  11.416  10.122  10.044 -0.8128 -0.8108 -0.6028
36209SOL     OW20605   2.893  10.691   8.270  0.7365 -0.1231 -0.0344
36209SOL    HW120606   2.825  10.631   8.240 -1.9920  1.3862  2.5232
36209SOL    HW220607   2.850  10.777   8.272  3.8837  1.6730 -1.6761
36210SOL     OW20608   8.548   6.043  11.105 -0.2609 -0.1535 -0.4373
36210SOL    HW120609   8.491   6.045  11.182  0.0742  1.4866 -0.1967
36210SOL    HW220610   8.574   5.951  11.096 -0.9301 -0.4949  0.9323
36211SOL     OW20611   1.407   0.953   1.482  0.1757 -0.3074 -0.4243
36211SOL    HW120612   1.463   0.895   1.431  0.0340 -0.8464  0.0243
36211SOL    HW220613   1.346   0.895   1.527  0.3332  0.1401  0.3961
36212SOL     OW20614   7.319   7.209  13.364  0.7575 -0.3154  0.3244
36212SOL    HW120615   7.351   7.289  13.322  3.0234 -1.3621 -0.0910
36212SOL    HW220616   7.392   7.180  13.419 -0.3986 -1.5508  1.2848
36213SOL     OW20617   0.505   0.054   9.562  0.4114 -0.0608 -0.6012
36213SOL    HW120618   0.511   0.149   9.563  0.9555 -0.0660  1.4257
36213SOL    HW220619   0.495   0.031   9.470 -0.1330  1.9724 -1.0870
36214SOL     OW20620   8.380   4.287   8.551 -0.0084  0.3765 -0.1927
36214SOL    HW120621   8.364   4.339   8.472 -0.3830  1.3705  0.5230
36214SOL    HW220622   8.476   4.287   8.561 -0.0307  1.4381  0.1229
36215SOL     OW20623  11.802   7.669   7.320 -0.1662 -0.4678 -0.3207
36215SOL    HW120624  11.813   7.713   7.404 -4.7414 -1.5839  1.1663
36215SOL    HW220625  11.783   7.739   7.258  2.4838  0.3008 -0.3652
36216SOL     OW20626   1.414   5.226   8.124  0.0156 -0.2478  0.2799
36216SOL    HW120627   1.351   5.174   8.075 -1.0990  2.8609 -1.9600
36216SOL    HW220628   1.493   5.226   8.071 -0.3537  1.0767 -0.3328
36217SOL     OW20629   6.751  11.507   3.235  0.9547  0.1442  0.2923
36217SOL    HW120630   6.694  11.491   3.310 -0.5167 -3.1805 -1.3128
36217SOL    HW220631   6.697  11.556   3.174 -1.2311 -4.3334 -1.8988
36218SOL     OW20632  12.599  12.127  11.925  0.2109 -0.3548  0.2146
36218SOL    HW120633  12.665  12.180  11.882 -0.2623 -0.7386 -1.0383
36218SOL    HW220634  12.530  12.116  11.859 -0.4169 -1.2003  0.9780
36219SOL     OW20635   6.685   5.644   5.895  0.6457  0.0827  0.2362
36219SOL    HW120636   6.624   5.644   5.821  0.1398  0.5686  0.6412
36219SOL    HW220637   6.629   5.660   5.971  0.8897 -2.2823  0.9792
36220SOL     OW20638   2.990  13.550   7.969  0.4245 -0.4318 -0.2231
36220SOL    HW120639   2.914  13.599   8.003 -0.1154 -1.1122 -0.4200
36220SOL    HW220640   2.976  13.548   7.874 -0.2394 -2.0494 -0.1153
36221SOL     OW20641   7.207   2.283  11.665 -0.0639 -0.2705  0.7817
36221SOL    HW120642   7.168   2.294  11.752 -1.0023  0.2853  0.3070
36221SOL    HW220643   7.200   2.369  11.625  1.2578 -0.2777  0.4996
36222SOL     OW20644   1.602   8.211  12.321 -0.1768  0.7149  0.5090
36222SOL    HW120645   1.609   8.306  12.331 -0.3563  0.8137 -0.2445
36222SOL    HW220646   1.692   8.179  12.323 -0.1516  0.8299  1.3924
36223SOL     OW20647   3.951  12.556   7.876 -0.0242 -0.2719  0.1406
36223SOL    HW120648   3.988  12.504   7.805 -1.2366 -1.1577  0.1188
36223SOL    HW220649   3.970  12.647   7.852  0.5490 -0.6160 -0.7439
36224SOL     OW20650   2.818   5.376   2.218 -0.5184 -0.4424  0.0106
36224SOL    HW120651   2.736   5.393   2.264 -1.1250  0.1222 -1.2214
36224SOL    HW220652   2.819   5.282   2.204 -1.3331 -0.3766 -0.5868
36225SOL     OW20653   2.110   8.789  13.392 -0.6265  0.3897 -0.5823
36225SOL    HW120654   2.018   8.765  13.389 -0.7128  0.6221  0.0303
36225SOL    HW220655   2.112   8.872  13.441  0.1780 -1.0392  1.9769
36226SOL     OW20656  11.022   8.866   0.500  0.2450 -0.2213 -0.0792
36226SOL    HW120657  10.979   8.869   0.586  1.0928  2.0413  0.3134
36226SOL    HW220658  10.949   8.864   0.438 -0.3834 -0.4207  0.6390
36227SOL     OW20659  13.148   3.041  11.510 -0.0770 -0.0539 -0.2643
36227SOL    HW120660  13.054   3.027  11.521  0.0239 -1.1342 -0.7240
36227SOL    HW220661  13.179   2.965  11.460  1.2904 -0.4273  1.0674
36228SOL     OW20662   2.593   6.077   8.018  0.3703  0.4633 -0.6534
36228SOL    HW120663   2.582   6.169   7.993 -0.0667  0.8393  0.8246
36228SOL    HW220664   2.673   6.049   7.973  0.6017  1.6077 -0.9818
36229SOL     OW20665   2.078  11.295  13.144 -0.2600 -0.1480 -0.1315
36229SOL    HW120666   2.108  11.381  13.174 -2.8644  0.6740  0.3345
36229SOL    HW220667   1.993  11.311  13.103 -0.4304 -2.3905 -0.8210
36230SOL     OW20668   3.586  11.295   8.065 -0.0968  0.2982 -0.0813
36230SOL    HW120669   3.622  11.263   8.148  0.6468  1.8459  0.2219
36230SOL    HW220670   3.519  11.358   8.090  2.7035  3.7432 -0.4769
36231SOL     OW20671  10.102  10.388   3.341  0.3941  0.1594  0.4469
36231SOL    HW120672  10.102  10.467   3.394  1.6860  1.1051 -0.8664
36231SOL    HW220673  10.016  10.387   3.299 -1.0715 -1.1675  3.2139
36232SOL     OW20674   4.187   2.635  12.744  0.1427  0.0723 -0.9442
36232SOL    HW120675   4.280   2.622  12.763 -0.0896 -2.9996 -1.3415
36232SOL    HW220676   4.185   2.705  12.679  2.2235 -0.1395 -1.2948
36233SOL     OW20677   6.613   6.603   8.955  0.4595 -0.4884  1.1108
36233SOL    HW120678   6.525   6.601   8.915  0.7828 -0.3064  0.3713
36233SOL    HW220679   6.646   6.690   8.933  0.7508 -0.4861  1.5612
36234SOL     OW20680   6.482  11.648   7.487  0.0016  0.1742 -0.7231
36234SOL    HW120681   6.557  11.622   7.434  1.1679 -1.4026  1.5553
36234SOL    HW220682   6.421  11.574   7.481  0.0760  0.0519 -0.0056
36235SOL     OW20683  12.702  12.155   2.537 -0.0274 -0.2972 -0.1322
36235SOL    HW120684  12.711  12.222   2.468  1.4946  0.3122  0.6260
36235SOL    HW220685  12.683  12.205   2.616 -1.1829 -0.9624  0.0415
36236SOL     OW20686   8.114  11.690  13.349 -0.2300 -0.6087 -0.7882
36236SOL    HW120687   8.061  11.666  13.425 -0.1979  1.6955  0.0302
36236SOL    HW220688   8.162  11.610  13.327 -2.1954 -2.0740 -0.0494
36237SOL     OW20689   6.263   0.627  12.644 -0.5856  0.2414 -0.0002
36237SOL    HW120690   6.193   0.572  12.679 -0.4867 -0.1187 -0.3612
36237SOL    HW220691   6.322   0.640  12.718 -1.6341  1.5539  0.6529
36238SOL     OW20692   1.673   5.726   8.006  0.0525 -0.3250  0.1250
36238SOL    HW120693   1.677   5.790   8.077 -0.9734 -0.9445  0.7450
36238SOL    HW220694   1.764   5.696   7.996  0.1511 -0.4983  1.4115
36239SOL     OW20695  11.312   0.767   9.771 -0.1114 -0.1542  1.0680
36239SOL    HW120696  11.299   0.681   9.730  0.9752 -0.1162  0.6048
36239SOL    HW220697  11.237   0.778   9.829 -1.7938 -0.1716 -0.9979
36240SOL     OW20698   2.297   0.172   4.117 -0.0366  0.0679 -0.7114
36240SOL    HW120699   2.389   0.148   4.126 -0.0470  0.5496  1.1944
36240SOL    HW220700   2.264   0.117   4.047  0.8348 -2.7169  0.9269
36241SOL     OW20701  13.019   6.997  13.746  0.3290  0.2323  0.4691
36241SOL    HW120702  13.106   7.037  13.756 -0.0567  1.5442 -1.2247
36241SOL    HW220703  12.987   6.988  13.836  1.9137  0.3847  1.0816
36242SOL     OW20704   1.705  12.988   0.771 -0.2314  0.5573  0.6014
36242SOL    HW120705   1.761  13.018   0.843  2.2426  1.4396 -1.5364
36242SOL    HW220706   1.724  12.894   0.764  0.1859  0.6458  0.5510
36243SOL     OW20707   5.801  13.453   1.834  0.4327 -0.0093  1.0878
36243SOL    HW120708   5.826  13.497   1.752  1.1072 -1.8479  0.2433
36243SOL    HW220709   5.840  13.366   1.827 -1.6141 -1.0921  2.2592
36244SOL     OW20710   7.045   4.386   4.154 -0.2719 -0.1143  0.2629
36244SOL    HW120711   6.958   4.365   4.121  0.5823 -2.9446 -0.4572
36244SOL    HW220712   7.083   4.443   4.088 -0.9775 -0.2801 -0.2970
36245SOL     OW20713   8.361  13.058   2.684 -0.2129  0.0156  0.2395
36245SOL    HW120714   8.404  13.117   2.746 -1.0516 -0.4639  1.3142
36245SOL    HW220715   8.268  13.077   2.693 -0.7517 -2.8073  2.1724
36246SOL     OW20716   1.973   2.217   9.699  0.3988 -0.8558  0.4441
36246SOL    HW120717   1.959   2.284   9.631  1.9944 -2.5828 -1.7550
36246SOL    HW220718   2.060   2.236   9.733  0.7056 -1.5585  0.0704
36247SOL     OW20719   1.094  10.728  11.970 -0.6964  0.6772 -0.0041
36247SOL    HW120720   1.075  10.819  11.949 -0.2877  1.5964  2.9967
36247SOL    HW220721   1.175  10.732  12.022 -1.2462 -1.2300  1.1227
36248SOL     OW20722  13.239   3.765  11.421  0.4305 -0.4457 -0.2742
36248SOL    HW120723  13.273   3.747  11.509  0.4299  1.1408  0.0982
36248SOL    HW220724  13.241   3.861  11.415 -1.9899 -0.3887 -1.0310
36249SOL     OW20725   4.610  13.501   5.764 -0.0989  0.3058  0.0473
36249SOL    HW120726   4.700  13.475   5.785 -0.2828 -0.2753  0.1260
36249SOL    HW220727   4.592  13.573   5.825 -0.0180 -0.2185  0.7033
36250SOL     OW20728   9.530   7.056  10.615 -0.0471  0.0587 -0.1356
36250SOL    HW120729   9.487   6.992  10.559 -0.8851  0.5919 -0.1288
36250SOL    HW220730   9.459   7.116  10.642  1.1895  3.1642 -3.0503
36251SOL     OW20731   0.313   8.169   1.396 -0.2494  0.4987  0.3628
36251SOL    HW120732   0.291   8.184   1.304 -0.5562  0.7890  0.4820
36251SOL    HW220733   0.405   8.195   1.403 -0.8631  2.8351  0.6587
36252SOL     OW20734   6.369   2.884  10.043 -0.5760 -0.7322  0.0889
36252SOL    HW120735   6.418   2.804  10.063 -0.4270 -0.5995  0.2522
36252SOL    HW220736   6.437   2.950  10.025 -0.6638 -0.2713  1.3576
36253SOL     OW20737   8.164   0.030   9.820  0.0661  0.4054 -0.4561
36253SOL    HW120738   8.140   0.068   9.736  2.3007  2.4210 -0.3148
36253SOL    HW220739   8.160   0.103   9.882  1.3363 -0.3026  0.5450
36254SOL     OW20740  10.461  11.070   9.069 -0.2177 -0.5805 -0.1898
36254SOL    HW120741  10.366  11.080   9.082 -0.2683 -0.8027 -0.3894
36254SOL    HW220742  10.474  10.977   9.054  0.2363 -0.7854  1.3999
36255SOL     OW20743   3.268   5.520   8.723  0.8043  0.0310  0.4806
36255SOL    HW120744   3.291   5.444   8.670 -1.6619 -0.3810 -0.1097
36255SOL    HW220745   3.210   5.485   8.791 -1.8774  1.5543 -0.8719
36256SOL     OW20746   4.290  10.762   6.012 -0.0811 -0.1791  0.3614
36256SOL    HW120747   4.305  10.856   5.999  2.2962 -0.6928 -1.0752
36256SOL    HW220748   4.203  10.747   5.974 -0.6223  1.4552  0.8384
36257SOL     OW20749   2.886   3.269   4.229 -0.4986  0.3931 -0.1495
36257SOL    HW120750   2.856   3.245   4.317  0.1969  0.1094  0.0235
36257SOL    HW220751   2.939   3.194   4.201  0.8800  1.2792 -0.0199
36258SOL     OW20752   1.063   2.792   5.586 -0.0368 -0.1562 -0.6435
36258SOL    HW120753   1.148   2.814   5.623 -0.4222 -0.4349  0.4358
36258SOL    HW220754   1.011   2.872   5.596 -0.0432 -0.1244 -0.9100
36259SOL     OW20755  12.854   1.303   7.769 -0.3306  0.1378  0.6501
36259SOL    HW120756  12.888   1.350   7.693  1.1181  0.9058  1.7369
36259SOL    HW220757  12.928   1.253   7.802 -0.5447  0.8683  2.3426
36260SOL     OW20758   9.860   5.840  11.299  0.1914 -0.5800  0.5473
36260SOL    HW120759   9.888   5.753  11.273 -1.8650 -0.7822 -1.2673
36260SOL    HW220760   9.868   5.893  11.219 -0.3248  0.4131  1.1307
36261SOL     OW20761   1.282   9.669   7.403  0.0629  0.5381  0.4347
36261SOL    HW120762   1.209   9.713   7.360 -2.1255 -1.7989  1.5190
36261SOL    HW220763   1.360   9.712   7.367 -1.7131  1.4727 -2.6793
36262SOL     OW20764   1.311  11.282   6.586 -0.1891 -0.4417 -0.8298
36262SOL    HW120765   1.245  11.335   6.632 -0.0791 -1.2534  0.3054
36262SOL    HW220766   1.274  11.194   6.585 -0.2889 -0.4109 -2.5452
36263SOL     OW20767  10.816   9.547   8.518 -0.0298  0.2269  0.0372
36263SOL    HW120768  10.827   9.452   8.525 -0.1652  0.2294  0.3001
36263SOL    HW220769  10.835   9.566   8.426  0.0787 -0.0443 -0.0003
36264SOL     OW20770  10.199   5.029   2.638 -0.2622 -0.1369 -0.3823
36264SOL    HW120771  10.110   5.053   2.612 -0.6901 -2.0496 -0.8257
36264SOL    HW220772  10.192   5.006   2.730 -0.4038 -1.0061 -0.6008
36265SOL     OW20773  13.939   5.961  11.871 -0.2837 -0.0805  0.1427
36265SOL    HW120774  13.879   5.974  11.944 -1.3187  1.5044 -0.9072
36265SOL    HW220775  13.976   6.048  11.855  0.4749 -0.5534 -0.7412
36266SOL     OW20776  12.139   4.502   5.632  0.4247 -0.1931 -0.3666
36266SOL    HW120777  12.059   4.459   5.665  1.2392 -3.2763 -2.0380
36266SOL    HW220778  12.189   4.522   5.711 -2.2401  2.7125  0.8206
36267SOL     OW20779  11.012  11.998   4.659  0.6226  0.1276 -0.4096
36267SOL    HW120780  10.994  12.085   4.696  0.4690 -0.0988  0.0468
36267SOL    HW220781  11.107  11.997   4.645  0.4445  0.9641 -1.9186
36268SOL     OW20782   1.166   0.723   2.174  0.0737  0.5038 -0.6154
36268SOL    HW120783   1.138   0.762   2.257 -0.5998  0.9545 -1.0362
36268SOL    HW220784   1.105   0.651   2.159  2.1766 -1.7501  0.8651
36269SOL     OW20785   8.922   1.350   3.223  0.0205  1.0724  0.2036
36269SOL    HW120786   8.998   1.318   3.174  0.8473 -0.6068  2.3925
36269SOL    HW220787   8.847   1.326   3.170  0.8592 -0.8939 -0.1739
36270SOL     OW20788   6.163  11.210   3.145  0.3409 -0.3096 -0.6602
36270SOL    HW120789   6.097  11.245   3.086  0.1539 -1.2229 -1.0148
36270SOL    HW220790   6.246  11.235   3.105  0.2288  0.9450 -0.1502
36271SOL     OW20791   6.389  11.818   0.088 -0.0648  0.2356 -0.1528
36271SOL    HW120792   6.417  11.893   0.141  1.3602  0.6330 -1.4047
36271SOL    HW220793   6.352  11.857   0.009  0.9977 -0.3561 -0.9677
36272SOL     OW20794   6.178  11.521   5.230 -0.3229  0.4092  0.3537
36272SOL    HW120795   6.245  11.541   5.164 -1.0018 -0.3531 -0.5984
36272SOL    HW220796   6.196  11.430   5.254 -0.6309  0.4006  0.5519
36273SOL     OW20797  13.739   6.388   2.813  0.1552 -0.3903  0.1498
36273SOL    HW120798  13.775   6.409   2.899 -0.7172  1.1898  0.1625
36273SOL    HW220799  13.813   6.395   2.753  0.4384  0.0678  0.5500
36274SOL     OW20800   4.163   2.688   6.178 -0.4850 -0.3311 -0.5177
36274SOL    HW120801   4.112   2.688   6.259 -0.7851 -3.2716 -0.6094
36274SOL    HW220802   4.110   2.738   6.116 -0.7426  1.0543  0.7542
36275SOL     OW20803   7.131   3.429   0.774 -0.2160  0.2749 -0.3205
36275SOL    HW120804   7.193   3.357   0.773  1.1057  1.3713 -1.3794
36275SOL    HW220805   7.053   3.394   0.817  0.1324 -1.9696 -1.3959
36276SOL     OW20806   5.213  13.469  10.202 -0.0200 -1.3028 -0.5731
36276SOL    HW120807   5.125  13.476  10.165 -0.2305  0.1680  0.1372
36276SOL    HW220808   5.264  13.538  10.160  0.8095 -2.1206 -0.9564
36277SOL     OW20809  12.036  10.152  13.656 -0.0203  0.0165  0.1393
36277SOL    HW120810  12.056  10.078  13.598  0.0163  0.2288 -0.1187
36277SOL    HW220811  12.026  10.112  13.742  0.3498 -0.2444  0.0618
36278SOL     OW20812   8.660   0.717   4.152 -0.4456 -0.5827  0.0808
36278SOL    HW120813   8.683   0.781   4.085 -0.1576 -2.3142 -1.5919
36278SOL    HW220814   8.635   0.769   4.228  0.0386  1.4749 -1.0834
36279SOL     OW20815   9.100  13.641   7.592 -0.2236  1.2270 -0.2566
36279SOL    HW120816   9.184  13.596   7.582 -0.2392  1.0776  0.2452
36279SOL    HW220817   9.041  13.593   7.535  0.0489  1.3809 -0.6737
36280SOL     OW20818   8.129   9.634  13.777  0.2799  0.3708 -0.5134
36280SOL    HW120819   8.069   9.688  13.828  0.8754  0.9485 -0.4159
36280SOL    HW220820   8.094   9.545  13.786  0.3926  0.4468  0.9246
36281SOL     OW20821   2.360   1.657   7.798 -0.4626  0.1742  0.4168
36281SOL    HW120822   2.415   1.656   7.719  2.3284  1.2609  2.2024
36281SOL    HW220823   2.365   1.748   7.829  0.0313 -0.5861  2.7781
36282SOL     OW20824  11.760  12.991  13.286 -0.2209 -0.3948 -0.4992
36282SOL    HW120825  11.713  13.010  13.367  2.2850  0.4141  0.8710
36282SOL    HW220826  11.707  12.924  13.243 -1.9175 -0.4596  1.5382
36283SOL     OW20827   9.649   2.472   8.451 -0.0808 -0.1001  0.1603
36283SOL    HW120828   9.683   2.467   8.361  0.3047  2.6235  0.0477
36283SOL    HW220829   9.722   2.443   8.506  0.1411 -0.5569 -0.3692
36284SOL     OW20830  13.291  12.033   2.394  0.2292  0.3318 -0.4079
36284SOL    HW120831  13.226  12.040   2.464  2.6290  3.2167  1.7807
36284SOL    HW220832  13.326  11.944   2.402 -1.2444 -0.2109  0.3631
36285SOL     OW20833   1.816   0.435   5.965  0.0665 -0.4922 -0.3353
36285SOL    HW120834   1.751   0.412   6.031  1.6591 -1.4354  0.9833
36285SOL    HW220835   1.815   0.531   5.964 -1.1207 -0.4815 -0.1399
36286SOL     OW20836   2.970   2.950  11.024  0.1934 -0.6012  0.6039
36286SOL    HW120837   2.888   2.903  11.043 -1.9629  0.8588 -3.7659
36286SOL    HW220838   3.014   2.895  10.959 -1.2335  1.8780 -2.7972
36287SOL     OW20839   3.074   7.259   1.307  0.0429 -0.8049 -0.2621
36287SOL    HW120840   3.131   7.185   1.331  2.0066  1.1282  1.4678
36287SOL    HW220841   2.990   7.239   1.348  0.8464 -1.6284  1.0419
36288SOL     OW20842  12.079   1.245  12.906 -0.1700 -0.1699  0.3511
36288SOL    HW120843  12.101   1.338  12.910 -1.4253  0.1224  0.8101
36288SOL    HW220844  11.984   1.243  12.908 -0.3198 -1.3209 -2.6914
36289SOL     OW20845   6.559   0.614   5.968 -0.1328 -0.3145 -0.3198
36289SOL    HW120846   6.482   0.656   6.007 -1.0245 -1.1195 -1.1596
36289SOL    HW220847   6.529   0.527   5.945  1.4992 -1.2350  0.8090
36290SOL     OW20848  14.007   9.368  12.286  0.5375 -0.0424  0.4343
36290SOL    HW120849  14.007   9.305  12.358  0.9399 -0.4703  0.0617
36290SOL    HW220850  13.914   9.386  12.270  0.4333 -0.2758  0.7685
36291SOL     OW20851   0.933   9.914   7.947 -0.0847 -0.6883 -0.2787
36291SOL    HW120852   0.955   9.926   8.039  2.8763  2.4594 -1.2159
36291SOL    HW220853   0.982   9.836   7.920 -1.1144 -1.7382  0.7279
36292SOL     OW20854  10.347  11.850   0.315  0.2055 -0.0058 -0.1980
36292SOL    HW120855  10.337  11.822   0.225  1.0432 -1.2159  0.0747
36292SOL    HW220856  10.257  11.862   0.346 -0.1004  2.2981 -1.7087
36293SOL     OW20857   5.033   7.136   0.262 -0.2949 -0.4039  0.4897
36293SOL    HW120858   4.975   7.174   0.196 -1.5659 -0.2067  1.6630
36293SOL    HW220859   5.089   7.209   0.289 -0.4907 -0.2068  0.3750
36294SOL     OW20860   2.833   9.511  10.966 -0.2638 -0.3401  0.5797
36294SOL    HW120861   2.805   9.596  11.001  0.5424  1.1946 -2.1948
36294SOL    HW220862   2.759   9.482  10.913  0.5412  0.0790 -0.8006
36295SOL     OW20863   2.186  11.485   3.682  0.6415  0.2064  0.1260
36295SOL    HW120864   2.227  11.405   3.650  0.0554 -0.4454  0.9515
36295SOL    HW220865   2.251  11.553   3.667  0.8132 -0.2507 -1.4231
36296SOL     OW20866  13.142   7.754   6.617  0.1553 -0.2241  0.0739
36296SOL    HW120867  13.110   7.838   6.651  1.0465 -0.3899  1.3927
36296SOL    HW220868  13.213   7.778   6.557 -0.1870 -0.0021 -0.2444
36297SOL     OW20869   9.063   5.060   6.809  0.1503  0.2840  0.3790
36297SOL    HW120870   8.990   5.055   6.871  0.3721 -0.3655  0.5907
36297SOL    HW220871   9.093   5.150   6.815 -0.4081  0.4650  0.5517
36298SOL     OW20872   0.247  11.940  11.702  0.5850 -0.0110 -0.5577
36298SOL    HW120873   0.240  12.022  11.751 -1.2155  0.2683 -1.2075
36298SOL    HW220874   0.290  11.965  11.620  3.3670 -0.4341  0.6525
36299SOL     OW20875  12.521   7.211   1.335 -0.2280  0.5182  0.0174
36299SOL    HW120876  12.570   7.181   1.411 -1.7274 -1.1020  0.3973
36299SOL    HW220877  12.496   7.301   1.356  0.7691  0.6448  0.7130
36300SOL     OW20878   2.600   7.298  12.407  0.0824  0.2615  0.5103
36300SOL    HW120879   2.573   7.389  12.392  1.1370  0.5337  0.1823
36300SOL    HW220880   2.598   7.257  12.321 -1.9526 -0.5106  0.8607
36301SOL     OW20881   4.198   5.570   2.787  0.2100  1.0427  0.1534
36301SOL    HW120882   4.176   5.628   2.860 -0.4409  0.3540  0.5146
36301SOL    HW220883   4.274   5.611   2.746 -2.0990  3.9978 -1.5939
36302SOL     OW20884   2.048   7.105   6.773 -0.0509 -0.2011 -0.4522
36302SOL    HW120885   2.142   7.093   6.768 -0.0952 -0.3507 -0.9192
36302SOL    HW220886   2.024   7.068   6.858  0.4498  0.7682  0.1179
36303SOL     OW20887   4.062   5.457   5.241 -0.1351 -0.1147 -0.0777
36303SOL    HW120888   4.107   5.538   5.266  0.8546 -0.1340 -1.6780
36303SOL    HW220889   4.025   5.476   5.155 -0.9930 -0.9605  0.0926
36304SOL     OW20890   9.271   9.525   1.494 -0.3497  0.1223 -0.8635
36304SOL    HW120891   9.322   9.583   1.438 -1.1485  1.5045 -0.2144
36304SOL    HW220892   9.331   9.502   1.565  0.3324 -0.7977 -1.7070
36305SOL     OW20893  12.576   8.013   3.541  0.5702  0.2314  0.3646
36305SOL    HW120894  12.591   8.104   3.518 -0.0927 -0.0018 -1.1661
36305SOL    HW220895  12.525   7.978   3.467  0.5548 -1.2920  1.0523
36306SOL     OW20896  12.746   1.157   6.949 -0.1069  0.3525 -0.3713
36306SOL    HW120897  12.773   1.153   6.857  2.5682  0.4069  0.3330
36306SOL    HW220898  12.698   1.240   6.956  0.0565  0.5768 -1.5981
36307SOL     OW20899   7.515   4.430   0.671  0.3378  0.1988 -0.2101
36307SOL    HW120900   7.472   4.404   0.752 -0.1991 -1.1465 -0.9076
36307SOL    HW220901   7.596   4.380   0.669 -0.8076 -1.7182 -1.6682
36308SOL     OW20902  13.553   9.106   0.794  0.1877 -0.3563  0.2475
36308SOL    HW120903  13.545   9.064   0.880  1.5414  0.3891  0.7755
36308SOL    HW220904  13.583   9.036   0.736 -1.1964 -0.9782  0.2431
36309SOL     OW20905   2.063   6.410  11.058 -0.1462 -0.0507 -0.4967
36309SOL    HW120906   2.029   6.487  11.013  1.1864  0.7076 -0.2585
36309SOL    HW220907   2.084   6.441  11.146  0.2732 -0.7130 -0.3560
36310SOL     OW20908   1.462  10.289   9.257  0.5180 -0.7735 -0.4677
36310SOL    HW120909   1.434  10.380   9.268  0.6707 -0.5603 -1.7353
36310SOL    HW220910   1.381  10.238   9.261  0.4588 -0.6256  0.5278
36311SOL     OW20911   3.740  12.676   2.608  0.0122 -0.4004  0.2027
36311SOL    HW120912   3.821  12.724   2.590  1.0898 -1.7787  1.1629
36311SOL    HW220913   3.704  12.718   2.686 -0.0112 -0.0252 -0.0065
36312SOL     OW20914   4.603   3.272  11.236  0.1348 -0.7385 -0.3259
36312SOL    HW120915   4.609   3.365  11.212 -0.5185 -0.4755  0.5108
36312SOL    HW220916   4.684   3.234  11.202  1.4446  0.5709  1.1808
36313SOL     OW20917   8.222   8.474  10.661  0.3483  0.6707  0.9092
36313SOL    HW120918   8.182   8.472  10.575  0.2882  1.0776  0.9253
36313SOL    HW220919   8.244   8.382  10.680  0.8986  0.6546  0.2188
36314SOL     OW20920   6.429   4.544   4.909 -0.2285 -0.1823 -0.0428
36314SOL    HW120921   6.407   4.491   4.985 -0.1848 -3.0168 -1.8265
36314SOL    HW220922   6.382   4.626   4.921  0.5382 -0.0910  3.4201
36315SOL     OW20923   9.722   3.118   9.708 -0.2909 -0.3849 -0.1933
36315SOL    HW120924   9.638   3.163   9.697 -0.3450 -0.4594 -0.0838
36315SOL    HW220925   9.741   3.126   9.802  0.6050  1.0521 -0.4605
36316SOL     OW20926   8.953  10.185   1.058 -0.1875 -0.4422  0.0470
36316SOL    HW120927   9.039  10.144   1.075 -0.8655 -1.2319  1.8583
36316SOL    HW220928   8.966  10.277   1.077  0.1734 -0.6300  0.7520
36317SOL     OW20929   4.562   3.817  14.034 -0.3113  0.2789  0.5052
36317SOL    HW120930   4.492   3.876  14.060 -0.9343 -0.9262  1.6709
36317SOL    HW220931   4.556   3.813  13.938 -0.2785  2.0274  0.4013
36318SOL     OW20932   6.723   6.227   8.209  0.4683  0.2302  0.1206
36318SOL    HW120933   6.675   6.259   8.286  2.0386  0.1674  1.1542
36318SOL    HW220934   6.691   6.138   8.196 -0.4480  0.5442  0.1438
36319SOL     OW20935   9.677   4.245  12.238  0.3916  0.7038 -0.1956
36319SOL    HW120936   9.617   4.244  12.164 -2.6379  0.8362  2.0553
36319SOL    HW220937   9.668   4.158  12.277 -1.2767  1.8574  2.2389
36320SOL     OW20938  11.833   3.790   1.090 -0.2676 -0.1752  0.7307
36320SOL    HW120939  11.840   3.704   1.048  1.0706  0.7143 -1.0463
36320SOL    HW220940  11.922   3.826   1.084 -0.9553  1.6144  0.7276
36321SOL     OW20941   1.281   8.679   5.358 -0.3056  0.7398 -0.0395
36321SOL    HW120942   1.313   8.684   5.448 -0.8028  0.3348  0.1664
36321SOL    HW220943   1.356   8.702   5.304  0.7348 -1.5353  0.3470
36322SOL     OW20944   9.432  12.913   5.524 -0.7659 -0.0609 -0.0502
36322SOL    HW120945   9.367  12.866   5.471  0.6589 -0.3891 -1.5824
36322SOL    HW220946   9.488  12.956   5.460  0.8254 -0.1718  1.2030
36323SOL     OW20947   4.303   3.316  10.004 -0.1315  0.1064  0.5055
36323SOL    HW120948   4.266   3.399  10.034 -0.6054 -0.3692  1.2830
36323SOL    HW220949   4.367   3.293  10.071 -1.3784 -1.0900  1.3545
36324SOL     OW20950   5.246   9.143   0.419 -0.2185 -0.1430  0.1886
36324SOL    HW120951   5.268   9.066   0.367 -0.2980  0.7401 -1.1993
36324SOL    HW220952   5.251   9.113   0.510 -1.4855 -2.1179 -0.3346
36325SOL     OW20953   4.450   9.530   4.920  1.1527 -0.0920 -0.2720
36325SOL    HW120954   4.434   9.619   4.951  2.1458  0.1354 -0.3637
36325SOL    HW220955   4.452   9.538   4.824  2.5197  0.0529 -0.2612
36326SOL     OW20956   6.471   8.650   7.302 -0.2652  0.2126  0.2495
36326SOL    HW120957   6.400   8.691   7.352  0.7298  1.8299  0.4025
36326SOL    HW220958   6.520   8.599   7.367 -0.4075  0.3228  0.4452
36327SOL     OW20959  13.038   5.566  12.723  0.0591  0.4530  0.5061
36327SOL    HW120960  13.060   5.515  12.645 -0.2380 -1.0348  1.3438
36327SOL    HW220961  13.021   5.654  12.691  1.1883  0.1816 -0.9300
36328SOL     OW20962   4.592   1.219  10.039 -0.5957 -0.3426 -0.1014
36328SOL    HW120963   4.582   1.258   9.952 -2.0316 -2.0102 -0.7448
36328SOL    HW220964   4.557   1.284  10.099  1.1237  1.1673 -0.6245
36329SOL     OW20965  13.592  10.495   1.032  0.3643 -0.1133  0.1930
36329SOL    HW120966  13.669  10.549   1.053 -0.4077  1.8901 -1.6696
36329SOL    HW220967  13.526  10.522   1.096 -0.2201  1.8027 -1.0957
36330SOL     OW20968  11.693   6.991  10.839 -0.5002 -0.5167 -0.6127
36330SOL    HW120969  11.766   6.932  10.818 -0.3023 -0.2463 -0.6879
36330SOL    HW220970  11.718   7.074  10.799 -1.6745 -0.8835 -2.2325
36331SOL     OW20971   9.472   4.225   3.572 -0.4357  0.9667 -0.2008
36331SOL    HW120972   9.409   4.171   3.524 -0.8337  2.4262 -1.3628
36331SOL    HW220973   9.556   4.179   3.562 -1.0864 -0.4331  0.4702
36332SOL     OW20974   4.312  11.026   9.989  0.2235 -0.5355 -0.1111
36332SOL    HW120975   4.289  10.937   9.964 -0.5998 -0.4689  0.3776
36332SOL    HW220976   4.378  11.053   9.925 -1.4915 -0.4964 -1.9615
36333SOL     OW20977   1.924   8.579   5.119 -0.1568 -0.0401 -0.0599
36333SOL    HW120978   2.015   8.577   5.087 -0.3230 -1.0417 -0.5268
36333SOL    HW220979   1.884   8.652   5.073  0.3595  0.2814 -0.0101
36334SOL     OW20980   6.557   9.142   0.382 -0.2901 -0.8355 -0.1736
36334SOL    HW120981   6.633   9.091   0.408 -0.4233 -0.2269  1.5378
36334SOL    HW220982   6.547   9.124   0.289  0.9188 -2.2504 -0.0692
36335SOL     OW20983   3.105  10.846   5.218  0.3923  0.0506  0.4188
36335SOL    HW120984   3.014  10.828   5.242 -0.0740  0.5327 -0.8941
36335SOL    HW220985   3.119  10.795   5.138  0.5515  1.6999 -0.6423
36336SOL     OW20986  13.283   1.814   2.051 -0.0210  0.2604  0.3076
36336SOL    HW120987  13.321   1.730   2.024 -1.0255 -0.8422  2.1271
36336SOL    HW220988  13.192   1.809   2.021  0.2751  1.4002 -0.9177
36337SOL     OW20989   4.935   0.463   2.474  0.7226 -0.3508  0.2779
36337SOL    HW120990   4.906   0.552   2.494  0.5002 -0.3092 -0.2192
36337SOL    HW220991   4.900   0.410   2.545  1.4303  0.0549  0.9486
36338SOL     OW20992   4.334  12.641   1.481 -0.3289  0.0208  0.0485
36338SOL    HW120993   4.327  12.630   1.386  0.5818  1.0203 -0.1526
36338SOL    HW220994   4.313  12.733   1.496 -0.4158 -0.1206  0.8186
36339SOL     OW20995  13.297  11.532  12.417  0.1282  0.4556  0.7986
36339SOL    HW120996  13.305  11.437  12.407  0.2266  0.3377  1.9152
36339SOL    HW220997  13.357  11.554  12.488  0.0780  1.3540  0.5748
36340SOL     OW20998   7.626   7.621   3.632 -0.2867 -0.2485 -0.0898
36340SOL    HW120999   7.659   7.707   3.655 -0.9142  0.5810 -2.0390
36340SOL    HW221000   7.694   7.584   3.575 -0.5061 -0.5842 -0.1359
36341SOL     OW21001   7.831   2.083  12.846 -0.8315 -0.5054  0.2806
36341SOL    HW121002   7.881   2.002  12.859 -0.8482 -0.2451  2.3237
36341SOL    HW221003   7.877   2.128  12.775  1.1598 -0.8286  1.2902
36342SOL     OW21004   9.913   9.693   0.954 -0.2903 -0.0744  0.9284
36342SOL    HW121005   9.962   9.720   1.031 -1.9658 -0.1348  2.0679
36342SOL    HW221006   9.955   9.740   0.881  1.3164 -0.0134  1.8391
36343SOL     OW21007   5.446   6.909  14.002  0.1911 -0.1100  0.0626
36343SOL    HW121008   5.361   6.931  14.038  0.0956 -0.0298 -0.2098
36343SOL    HW221009   5.451   6.958  13.920  0.1712 -0.7191 -0.3107
36344SOL     OW21010  11.366   7.487   2.616  0.7750  0.1635  0.4134
36344SOL    HW121011  11.364   7.519   2.706  1.3015 -0.4920  0.6703
36344SOL    HW221012  11.396   7.562   2.564  1.0515  0.3676  0.8627
36345SOL     OW21013   5.174   5.738  10.194 -0.6360  0.2134 -0.1197
36345SOL    HW121014   5.154   5.714  10.284 -0.0784  1.4743  0.3646
36345SOL    HW221015   5.133   5.670  10.141  0.6546 -1.6476  1.1424
36346SOL     OW21016   4.716  12.091   1.590  0.6716 -0.1116 -0.1441
36346SOL    HW121017   4.801  12.103   1.632  0.7848 -0.1019 -0.3718
36346SOL    HW221018   4.656  12.072   1.662  0.8300  0.0703  0.0394
36347SOL     OW21019  12.040   5.189  12.963  0.4179 -0.2954  0.9012
36347SOL    HW121020  11.985   5.116  12.933  0.8171  0.5241 -2.1425
36347SOL    HW221021  12.087   5.154  13.039 -1.5207 -2.2232  1.3049
36348SOL     OW21022   7.131   0.053   7.964  0.1701  0.7677  0.1493
36348SOL    HW121023   7.167  -0.036   7.971 -0.4060  0.5094 -0.0674
36348SOL    HW221024   7.049   0.041   7.917  0.3660  1.4997 -0.3897
36349SOL     OW21025   6.784   3.752   6.627  0.4274  0.0342  0.3869
36349SOL    HW121026   6.864   3.705   6.652  1.1617  1.3365  0.5793
36349SOL    HW221027   6.813   3.819   6.566 -0.2625  1.5051  1.6104
36350SOL     OW21028   9.463   7.584   2.236  0.1814  0.6762 -0.1351
36350SOL    HW121029   9.509   7.528   2.174 -0.8318  0.8517 -1.0862
36350SOL    HW221030   9.444   7.664   2.187 -2.2608  0.1077 -0.2605
36351SOL     OW21031   2.261  13.961   5.592  0.2570 -0.1995 -0.4435
36351SOL    HW121032   2.226  14.035   5.641  0.7674 -0.7056  0.7234
36351SOL    HW221033   2.184  13.920   5.552 -0.3992 -0.6848  1.2205
36352SOL     OW21034   1.943  11.809  11.260  0.5199  0.4624 -0.8638
36352SOL    HW121035   1.984  11.727  11.291 -1.1561 -1.7357 -3.9900
36352SOL    HW221036   1.941  11.864  11.338  2.1801 -2.2466  1.3266
36353SOL     OW21037  10.817  10.669  10.830  0.3268  0.1336  0.0740
36353SOL    HW121038  10.891  10.651  10.889  0.9111  1.0735 -0.3379
36353SOL    HW221039  10.748  10.609  10.859  1.6151 -1.5805 -0.2542
36354SOL     OW21040   8.814   8.408  11.222  0.4511  0.2726  0.4322
36354SOL    HW121041   8.879   8.472  11.193  0.2850  0.3251  0.1790
36354SOL    HW221042   8.821   8.335  11.160 -1.6792  1.4648 -1.3584
36355SOL     OW21043  12.889   9.457  11.997  0.8000 -0.7644 -0.1094
36355SOL    HW121044  12.817   9.408  11.958 -0.4172 -1.4885  2.7673
36355SOL    HW221045  12.878   9.546  11.964  1.1697 -1.6803 -2.9519
36356SOL     OW21046   6.896   8.888   1.336 -0.2624  0.0726 -0.1624
36356SOL    HW121047   6.957   8.890   1.410  1.1962  0.2785 -1.3335
36356SOL    HW221048   6.867   8.979   1.327 -3.5992 -0.4898  2.5720
36357SOL     OW21049  11.943  13.269  10.331  0.3654 -0.2101 -0.1844
36357SOL    HW121050  11.963  13.268  10.237  1.8856  1.0812  0.1037
36357SOL    HW221051  11.975  13.353  10.362 -1.8936  0.2309  1.1549
36358SOL     OW21052   3.487  13.699   3.198 -0.1566  0.2811  0.1940
36358SOL    HW121053   3.526  13.762   3.136 -0.1747  1.3738  1.2534
36358SOL    HW221054   3.491  13.615   3.152  1.5952  0.7026 -0.5373
36359SOL     OW21055  10.483  12.145   9.452  0.7931 -1.0261 -0.3829
36359SOL    HW121056  10.399  12.182   9.478  0.9215  0.3406 -1.7585
36359SOL    HW221057  10.546  12.184   9.512  0.4360 -2.3517  0.9007
36360SOL     OW21058   4.577  13.651   4.540  0.2247 -0.5421 -0.1107
36360SOL    HW121059   4.634  13.726   4.522  0.0239 -0.9384 -2.6894
36360SOL    HW221060   4.518  13.647   4.465 -2.6479 -0.7282  1.9765
36361SOL     OW21061  11.892  13.013   3.388  0.4195  0.4424 -0.1175
36361SOL    HW121062  11.829  12.962   3.336 -0.4767 -2.4817  3.3810
36361SOL    HW221063  11.843  13.091   3.414 -0.7582 -0.3081  0.0380
36362SOL     OW21064   0.935   6.325   8.466 -0.0537 -0.3199 -0.4010
36362SOL    HW121065   0.910   6.236   8.492 -0.4266 -0.2245 -0.4297
36362SOL    HW221066   0.973   6.363   8.545  0.1700 -0.5290 -0.4087
36363SOL     OW21067   5.412  12.917   2.271 -0.3016 -0.5320 -0.3233
36363SOL    HW121068   5.446  12.999   2.236 -2.8378  1.7162  2.0329
36363SOL    HW221069   5.398  12.862   2.194  1.2699  1.2873 -2.0208
36364SOL     OW21070   0.019   8.916   3.019  0.1680 -0.2813 -0.6090
36364SOL    HW121071  -0.071   8.885   3.028 -0.0025  0.2407 -0.4606
36364SOL    HW221072   0.069   8.863   3.081 -0.0665 -0.4550 -0.5653
36365SOL     OW21073  12.034   3.484   9.622  0.0461  0.4895 -0.5799
36365SOL    HW121074  12.017   3.519   9.710 -2.1455 -0.7391 -0.4520
36365SOL    HW221075  11.972   3.412   9.613  1.7359 -0.8196 -2.3235
36366SOL     OW21076   7.972   6.149   4.241  0.1492  0.1363 -0.4980
36366SOL    HW121077   8.010   6.085   4.302 -1.3679 -1.0970 -0.7905
36366SOL    HW221078   8.031   6.146   4.165  0.4695 -0.4332 -0.2419
36367SOL     OW21079   8.627   0.095   3.690 -0.0882 -0.2867 -0.1458
36367SOL    HW121080   8.715   0.094   3.651  0.1756  0.2086  0.4136
36367SOL    HW221081   8.624   0.177   3.739 -0.8605 -0.3144 -0.1369
36368SOL     OW21082   7.318  13.281   3.065  0.1143  0.0522  0.3050
36368SOL    HW121083   7.356  13.344   3.003 -0.5851 -0.4347 -0.6461
36368SOL    HW221084   7.381  13.209   3.067  0.8912  0.7352  1.3557
36369SOL     OW21085   0.121  10.331  13.358  0.1420 -0.0867  0.1256
36369SOL    HW121086   0.188  10.279  13.403  1.2990 -0.1436 -1.5466
36369SOL    HW221087   0.039  10.307  13.400  1.0498 -0.8129  1.5526
36370SOL     OW21088  13.107   3.915   2.571 -0.4589 -0.5542 -0.1201
36370SOL    HW121089  13.075   3.863   2.497 -0.9463 -0.2226 -0.1485
36370SOL    HW221090  13.028   3.951   2.611 -0.3055 -1.6995  1.3028
36371SOL     OW21091  13.576   6.631   8.556  0.0926  0.1944  0.1993
36371SOL    HW121092  13.638   6.579   8.606 -1.2726 -1.7675 -0.0344
36371SOL    HW221093  13.551   6.575   8.482 -2.1380  0.7861  0.4312
36372SOL     OW21094   8.788   8.090  11.891  0.2064  0.0327  0.3625
36372SOL    HW121095   8.728   8.086  11.816 -0.2014  3.1771  0.3716
36372SOL    HW221096   8.875   8.090  11.851  0.0039  1.2006 -0.1292
36373SOL     OW21097  13.601   8.213  10.613  0.2649  0.1102  0.6667
36373SOL    HW121098  13.607   8.222  10.518  0.3334  0.8197  0.7289
36373SOL    HW221099  13.518   8.256  10.636 -0.1138 -0.7051  0.8570
36374SOL     OW21100   6.825   6.023   1.927  0.4839  0.1787  0.1744
36374SOL    HW121101   6.823   6.052   1.836  1.0594 -0.0387  0.0889
36374SOL    HW221102   6.783   6.094   1.976 -0.4026  0.0164 -0.3306
36375SOL     OW21103   6.622   7.434   4.546  0.3728 -0.1816 -0.2066
36375SOL    HW121104   6.709   7.473   4.540  0.4399 -0.1538  0.7709
36375SOL    HW221105   6.638   7.341   4.561  0.2647 -0.0185  1.0415
36376SOL     OW21106  10.303   5.136  13.259  0.1907 -0.2373  0.0681
36376SOL    HW121107  10.340   5.057  13.218  1.5006  1.6383 -2.6722
36376SOL    HW221108  10.218   5.147  13.216  0.3591  0.2340 -0.1545
36377SOL     OW21109  11.034   1.972  11.345  0.2571  0.3118 -0.1753
36377SOL    HW121110  11.010   2.064  11.338 -0.2244  0.1676 -0.4732
36377SOL    HW221111  11.074   1.964  11.431 -0.1105  0.7089  0.0365
36378SOL     OW21112  11.234   1.596   8.071  0.1315 -0.7349  0.9749
36378SOL    HW121113  11.139   1.598   8.082  0.0319 -2.9003  0.9344
36378SOL    HW221114  11.248   1.617   7.978 -0.2821 -0.3137  1.0050
36379SOL     OW21115   4.218   4.869   7.546 -0.0331  0.2230  0.1774
36379SOL    HW121116   4.288   4.839   7.489 -0.5620  0.5264 -0.6508
36379SOL    HW221117   4.258   4.873   7.633  0.5461 -1.0692 -0.0084
36380SOL     OW21118   3.641   0.666  11.547  0.6598  0.7011  0.2225
36380SOL    HW121119   3.724   0.630  11.579  0.9359 -0.3041 -1.5187
36380SOL    HW221120   3.644   0.653  11.452 -1.8978 -0.2039  0.1940
36381SOL     OW21121   5.797   7.447   1.425 -0.3266  0.1521 -0.4465
36381SOL    HW121122   5.840   7.531   1.408 -0.5099  0.4853  0.6523
36381SOL    HW221123   5.781   7.447   1.519 -0.5111 -1.0357 -0.4616
36382SOL     OW21124   5.494   4.302   8.808  0.3561  0.2008  0.2919
36382SOL    HW121125   5.570   4.333   8.858  0.4196 -0.7060  0.7805
36382SOL    HW221126   5.421   4.305   8.870  0.0339  0.8063 -0.0977
36383SOL     OW21127   6.791  14.007   7.245 -0.5563  0.2214 -0.6120
36383SOL    HW121128   6.790  13.933   7.306  0.3739  1.1327  0.5590
36383SOL    HW221129   6.704  14.046   7.253 -0.5347  0.1632 -0.0745
36384SOL     OW21130   1.055   4.952   0.464  0.2251  0.2087 -0.4210
36384SOL    HW121131   1.139   4.945   0.508 -0.1875  0.6049  0.4344
36384SOL    HW221132   1.022   4.862   0.462 -0.1529  0.2966  0.8908
36385SOL     OW21133   7.126   8.039   5.561  0.1675 -0.2680 -0.0764
36385SOL    HW121134   7.160   8.094   5.490  0.7627  3.1991  2.6031
36385SOL    HW221135   7.204   8.004   5.604 -0.0409  0.0810  0.5936
36386SOL     OW21136   8.702   5.386  11.711 -0.1442 -0.3983  0.0589
36386SOL    HW121137   8.618   5.392  11.665 -0.0812 -0.1170 -0.0202
36386SOL    HW221138   8.677   5.367  11.802 -0.3622  1.1378  0.3360
36387SOL     OW21139  12.323   6.209  11.357 -0.7416 -0.3894 -0.5981
36387SOL    HW121140  12.292   6.252  11.278 -0.0027  0.3639 -0.4855
36387SOL    HW221141  12.268   6.244  11.427  1.1896  2.0149 -0.1800
36388SOL     OW21142  13.604   8.729   6.219  0.0664 -0.1411 -0.1804
36388SOL    HW121143  13.621   8.677   6.140 -0.7225 -1.8997  0.7511
36388SOL    HW221144  13.678   8.711   6.276 -0.3129 -0.4398  0.2289
36389SOL     OW21145   7.528   1.010  12.617  0.5729 -0.2921  0.2482
36389SOL    HW121146   7.581   0.952  12.563  2.3160  0.5442  0.9826
36389SOL    HW221147   7.575   1.016  12.701  0.0101  1.4721  0.4979
36390SOL     OW21148  10.560   2.464  10.425 -0.5893 -0.0511  0.3762
36390SOL    HW121149  10.532   2.373  10.435 -1.0004  0.1960  1.6689
36390SOL    HW221150  10.589   2.470  10.334 -1.4363 -1.2207  0.0031
36391SOL     OW21151   5.615   0.501  10.229 -0.0310  0.4979 -0.1594
36391SOL    HW121152   5.668   0.423  10.243  1.2703  0.7925 -2.8085
36391SOL    HW221153   5.526   0.474  10.250  0.5736 -1.2735  0.3086
36392SOL     OW21154   3.856   1.758  11.751 -0.7197 -0.3314  0.1379
36392SOL    HW121155   3.765   1.777  11.775 -0.2489  1.2265  0.7774
36392SOL    HW221156   3.907   1.829  11.789  0.4514  0.4890 -2.6654
36393SOL     OW21157   8.652   5.278   3.941  0.1345 -0.3853 -0.0448
36393SOL    HW121158   8.593   5.233   3.881  0.8430 -1.1466 -0.1865
36393SOL    HW221159   8.675   5.212   4.007  2.3731 -0.7379 -1.0966
36394SOL     OW21160   1.773   1.834  12.516 -0.3415 -0.0301  0.2784
36394SOL    HW121161   1.702   1.774  12.494 -1.1867  0.1268  2.3600
36394SOL    HW221162   1.772   1.839  12.611  0.8016  1.9904  0.2462
36395SOL     OW21163   1.930   1.338   9.381  0.2705 -0.0501 -0.0050
36395SOL    HW121164   2.019   1.337   9.418 -0.3370  0.0646  1.5489
36395SOL    HW221165   1.929   1.264   9.321  1.3743 -0.1522  0.0673
36396SOL     OW21166  13.240   9.530   0.446 -0.1449  0.1672 -0.5597
36396SOL    HW121167  13.236   9.463   0.377 -0.6630 -1.2075  0.7548
36396SOL    HW221168  13.211   9.611   0.402 -1.7638 -0.9274 -1.6482
36397SOL     OW21169   5.665   8.063   5.607  0.7489 -0.6583  0.0634
36397SOL    HW121170   5.606   7.999   5.647  1.6806 -0.7112  1.4347
36397SOL    HW221171   5.721   8.092   5.679  1.8554 -0.0082 -1.0162
36398SOL     OW21172   7.262   2.663  10.094 -0.1274 -0.6846 -0.1535
36398SOL    HW121173   7.329   2.709  10.145 -0.1286  0.2591 -0.9732
36398SOL    HW221174   7.185   2.663  10.151 -0.2747  0.7880 -0.3122
36399SOL     OW21175   2.497   2.398   0.688  0.0816  0.1845  0.0033
36399SOL    HW121176   2.467   2.318   0.645 -0.7111  1.4644 -1.9831
36399SOL    HW221177   2.478   2.384   0.781  0.5618 -2.1487 -0.1864
36400SOL     OW21178   5.185   8.843   6.371 -0.4518 -0.6756  0.2061
36400SOL    HW121179   5.212   8.801   6.289 -2.4086 -0.7029 -0.4663
36400SOL    HW221180   5.267   8.874   6.410  0.4541 -0.0089 -2.1068
36401SOL     OW21181   9.930   0.967   4.284  0.2924 -0.4815 -0.1466
36401SOL    HW121182   9.901   0.923   4.364 -1.1284 -0.8626 -0.8179
36401SOL    HW221183   9.980   1.042   4.314  0.4096 -1.0215  1.0813
36402SOL     OW21184   8.750  12.360   9.228  0.2178 -0.2499 -0.2994
36402SOL    HW121185   8.762  12.375   9.134 -0.2138 -0.1622 -0.3441
36402SOL    HW221186   8.683  12.423   9.254 -1.2258 -1.6872 -0.3712
36403SOL     OW21187  12.950   6.977   9.207 -0.1503 -0.2384  0.1889
36403SOL    HW121188  12.921   6.907   9.149 -1.3018  0.4387 -0.0853
36403SOL    HW221189  12.929   6.946   9.295 -0.9333 -0.1385  0.0500
36404SOL     OW21190   6.870   1.262  11.022 -0.1949  0.3769 -0.4361
36404SOL    HW121191   6.839   1.216  10.943  1.0774  0.0449 -0.7645
36404SOL    HW221192   6.874   1.194  11.089  1.0909  0.1104 -0.7580
36405SOL     OW21193  10.219   4.021   9.957  0.1749  0.2845 -0.0663
36405SOL    HW121194  10.252   3.940   9.995  1.2262  1.4615  1.6952
36405SOL    HW221195  10.159   4.056  10.024  0.1473  1.2076 -0.5524
36406SOL     OW21196  10.401   3.235   3.110 -0.9463 -0.5084 -0.0830
36406SOL    HW121197  10.471   3.180   3.144 -1.0372 -0.5783 -0.0085
36406SOL    HW221198  10.398   3.311   3.169 -2.2831 -1.4661  1.1468
36407SOL     OW21199  11.713   5.548   6.441  0.1135  0.1440 -0.2091
36407SOL    HW121200  11.695   5.490   6.367  2.0528 -0.5437 -0.2058
36407SOL    HW221201  11.778   5.501   6.493 -1.3688  0.5048  2.1078
36408SOL     OW21202  12.418   0.307   2.543  0.6334 -0.1770  0.7509
36408SOL    HW121203  12.491   0.350   2.499 -0.4713  1.9778  0.9082
36408SOL    HW221204  12.434   0.321   2.636  0.1227  0.1481  0.7939
36409SOL     OW21205   4.185  13.534   1.428 -0.3387 -0.3856  0.5135
36409SOL    HW121206   4.123  13.473   1.469  1.7296 -2.0699  1.3214
36409SOL    HW221207   4.207  13.596   1.497 -0.9935  0.1368  0.2638
36410SOL     OW21208  11.203   2.483   1.818 -0.0476 -0.1574 -0.4945
36410SOL    HW121209  11.218   2.405   1.765 -1.0287 -0.9155  0.2968
36410SOL    HW221210  11.149   2.452   1.892 -2.6186  1.6964 -1.4418
36411SOL     OW21211   2.026   2.306  11.514 -0.0985  0.0641  0.6378
36411SOL    HW121212   1.937   2.307  11.549 -0.2799  1.1160  0.1785
36411SOL    HW221213   2.025   2.234  11.450 -0.3413 -0.5364  1.3024
36412SOL     OW21214  11.392  13.164   6.259 -0.2392 -0.3404  0.5652
36412SOL    HW121215  11.397  13.118   6.175 -0.5488 -1.2723  1.0350
36412SOL    HW221216  11.469  13.134   6.307 -0.4187 -0.3367  0.8589
36413SOL     OW21217  11.917   9.002   1.642  0.6578 -0.5486 -0.0326
36413SOL    HW121218  12.006   9.034   1.652  0.6526 -0.5272 -0.0545
36413SOL    HW221219  11.880   9.053   1.570  1.2202 -1.8003 -1.2538
36414SOL     OW21220   0.229  12.539   4.303 -0.2988  0.2394  1.1155
36414SOL    HW121221   0.187  12.547   4.389  1.2479  1.4934  1.8233
36414SOL    HW221222   0.274  12.623   4.291  0.4011 -0.3253 -0.4260
36415SOL     OW21223  10.885   1.655   2.608  0.0625 -0.2000 -0.0563
36415SOL    HW121224  10.939   1.603   2.548  0.2312  0.1069 -0.1707
36415SOL    HW221225  10.902   1.617   2.694 -0.0139 -0.5024 -0.1711
36416SOL     OW21226   1.570  12.947   6.888  0.0463  0.3832 -0.3903
36416SOL    HW121227   1.610  12.920   6.971 -0.1145 -0.1266 -0.4745
36416SOL    HW221228   1.482  12.974   6.912 -0.4430 -0.9782 -0.5566
36417SOL     OW21229   5.783  10.845  13.600 -0.4670  0.2305 -0.3798
36417SOL    HW121230   5.877  10.848  13.619 -0.3264  0.4740 -1.0622
36417SOL    HW221231   5.779  10.845  13.504 -1.1937  1.6000 -0.3771
36418SOL     OW21232   3.136  12.897  10.616  0.0971  0.1920  0.2073
36418SOL    HW121233   3.132  12.925  10.524  1.9695  2.2800  0.6562
36418SOL    HW221234   3.103  12.973  10.665  0.9046 -0.1522  1.3148
36419SOL     OW21235  12.372   0.711   4.823 -0.2539 -0.1825 -0.0774
36419SOL    HW121236  12.342   0.635   4.874 -0.8069  0.3227  0.3529
36419SOL    HW221237  12.466   0.695   4.810 -0.3284 -0.8529  0.1605
36420SOL     OW21238   0.378   0.986  13.806 -0.3484  0.1531 -0.8264
36420SOL    HW121239   0.349   1.074  13.831 -0.0494 -0.2791  1.2497
36420SOL    HW221240   0.335   0.969  13.723 -0.2569  2.3297 -1.3873
36421SOL     OW21241   5.441  11.159   4.772  0.3060 -0.1966  0.0800
36421SOL    HW121242   5.446  11.065   4.786  0.0504 -0.4148 -1.1945
36421SOL    HW221243   5.529  11.184   4.745  0.0706 -0.3065 -0.8375
36422SOL     OW21244   9.102   8.019   8.827 -0.4568 -0.8783 -0.3091
36422SOL    HW121245   9.161   8.047   8.757  1.1282 -1.9051  0.5333
36422SOL    HW221246   9.073   8.100   8.868 -0.0690 -0.3243 -1.0994
36423SOL     OW21247   2.752   2.043   9.772 -0.2307 -0.6621  0.4428
36423SOL    HW121248   2.842   2.025   9.799  0.2823  2.3000  1.0995
36423SOL    HW221249   2.720   2.107   9.836 -0.7571  2.7752 -2.8729
36424SOL     OW21250  12.564   4.356   5.554  0.4566 -0.2456 -0.1815
36424SOL    HW121251  12.563   4.315   5.640  0.6263 -0.5485 -0.3235
36424SOL    HW221252  12.566   4.450   5.572  0.6774 -0.3121  0.1439
36425SOL     OW21253   0.565   7.984   2.409 -0.0746  0.2979 -0.7090
36425SOL    HW121254   0.661   7.982   2.416  0.0340  1.1368 -1.7528
36425SOL    HW221255   0.535   7.943   2.489  1.1605  0.6296 -0.0448
36426SOL     OW21256   4.449   8.621  13.358 -0.0336  0.2752  0.5550
36426SOL    HW121257   4.362   8.618  13.397 -1.6006  0.0237 -2.6698
36426SOL    HW221258   4.457   8.710  13.322  1.5183  0.6370  1.6687
36427SOL     OW21259   3.005   6.625   8.157  0.1446  0.3513  0.1460
36427SOL    HW121260   2.936   6.560   8.171  0.4113 -0.2353 -1.1223
36427SOL    HW221261   2.997   6.649   8.064  3.2618 -1.7107 -0.8015
36428SOL     OW21262   4.849  10.784   4.947  0.3433 -0.0235 -0.4149
36428SOL    HW121263   4.785  10.852   4.966  1.9835  1.3396  0.4369
36428SOL    HW221264   4.803  10.702   4.967 -1.1730  0.8782 -0.0090
36429SOL     OW21265   6.720   9.606  12.604 -0.2871 -0.2154  0.2876
36429SOL    HW121266   6.626   9.622  12.592  0.0727  1.7227 -0.3822
36429SOL    HW221267   6.753   9.585  12.516  0.2338  1.2586  0.1057
36430SOL     OW21268  10.439   5.477   7.795 -0.5687 -0.6115  0.4507
36430SOL    HW121269  10.471   5.405   7.849 -1.3408 -0.1043  1.6022
36430SOL    HW221270  10.482   5.555   7.829 -1.0233 -0.2896  0.3010
36431SOL     OW21271  14.025   2.641  12.302 -0.0169 -0.5975  0.2719
36431SOL    HW121272  14.111   2.599  12.312 -0.0134 -0.3331  1.4051
36431SOL    HW221273  13.997   2.616  12.214  1.2890 -0.5697 -0.1768
36432SOL     OW21274   8.388   5.638   5.185 -0.0427  0.1946  0.4552
36432SOL    HW121275   8.296   5.662   5.168  0.3572  0.6555 -1.2826
36432SOL    HW221276   8.435   5.667   5.107  1.6267  0.0924  1.3778
36433SOL     OW21277   1.431   0.778   0.262 -0.0862  0.0162 -0.2143
36433SOL    HW121278   1.486   0.722   0.206  0.7775 -0.0233  0.6469
36433SOL    HW221279   1.468   0.866   0.252 -0.6370  0.2168 -0.5617
36434SOL     OW21280   5.555   9.506   8.654 -0.1973 -0.5501 -0.6182
36434SOL    HW121281   5.620   9.466   8.597  2.1164  0.9407  0.8199
36434SOL    HW221282   5.548   9.596   8.623  1.4622  0.4350  1.5806
36435SOL     OW21283  11.299   0.311  10.171 -0.3413  0.2038  0.8859
36435SOL    HW121284  11.360   0.295  10.244  0.4563  0.8527  0.3757
36435SOL    HW221285  11.268   0.223  10.148  0.3801 -0.1470  1.1803
36436SOL     OW21286  10.410   2.171   5.027  0.0103 -0.3237  0.9616
36436SOL    HW121287  10.398   2.250   5.080  0.2118 -0.6441  1.4960
36436SOL    HW221288  10.452   2.202   4.947 -0.1398  0.1469  1.0619
36437SOL     OW21289   1.395  10.057   6.163 -0.4427 -0.3455  0.2281
36437SOL    HW121290   1.484  10.091   6.151  0.2480 -2.0753  0.2710
36437SOL    HW221291   1.341  10.136   6.174  0.8266  0.8107 -1.2955
36438SOL     OW21292  13.276   8.650  12.435 -0.0100 -0.4647  0.8462
36438SOL    HW121293  13.271   8.556  12.449 -0.4012 -0.1904  2.9960
36438SOL    HW221294  13.355   8.663  12.382 -0.7203 -2.0614 -0.7045
36439SOL     OW21295   7.595   3.918  10.130  0.0155 -0.1133 -0.0152
36439SOL    HW121296   7.553   3.902  10.215  0.9487  0.1094  0.5023
36439SOL    HW221297   7.685   3.889  10.143 -0.2660 -1.7797 -1.4964
36440SOL     OW21298   0.279   0.986   5.114  0.1134 -0.3868  0.1744
36440SOL    HW121299   0.333   1.025   5.182 -0.8192 -0.2467  0.8547
36440SOL    HW221300   0.217   0.930   5.161 -2.0345  1.4486 -0.3209
36441SOL     OW21301   1.363   0.106   0.075  0.2841 -0.3916  0.3990
36441SOL    HW121302   1.268   0.120   0.070  0.0473 -1.9151  0.0581
36441SOL    HW221303   1.378   0.080   0.166  0.5143  0.6914  0.6786
36442SOL     OW21304   4.304  11.038  12.270 -0.3115 -0.7351 -0.2386
36442SOL    HW121305   4.209  11.041  12.258 -0.1472 -0.6007 -1.6675
36442SOL    HW221306   4.316  10.996  12.355 -1.6509 -0.5050  0.0840
36443SOL     OW21307   8.429   9.980   9.327 -0.2300  0.2422  0.1201
36443SOL    HW121308   8.405  10.002   9.417 -0.4396  0.5088 -0.0004
36443SOL    HW221309   8.522  10.001   9.322  0.0431 -0.7794  0.5816
36444SOL     OW21310  12.600   2.456   2.083 -0.0209  0.1735  0.5596
36444SOL    HW121311  12.588   2.550   2.075  1.0029  0.2446 -0.3103
36444SOL    HW221312  12.513   2.422   2.105 -0.9354  1.0537 -1.5024
36445SOL     OW21313   3.527  10.470   6.743  0.1284  0.1694  0.2425
36445SOL    HW121314   3.434  10.493   6.753 -0.1527 -1.3238  1.5073
36445SOL    HW221315   3.574  10.542   6.783 -0.5550  0.3260  0.7815
36446SOL     OW21316   3.044   9.283   0.460 -0.5242  0.2283 -0.2374
36446SOL    HW121317   3.132   9.247   0.443 -0.0388  1.5014 -0.5354
36446SOL    HW221318   3.045   9.369   0.418 -2.2246 -0.0776 -0.9874
36447SOL     OW21319   6.711   4.764   9.496 -0.6890 -0.1778  0.2034
36447SOL    HW121320   6.680   4.688   9.544 -2.2902  2.4358  3.7518
36447SOL    HW221321   6.633   4.797   9.451 -0.6072  0.6578  0.6583
36448SOL     OW21322   4.349  13.423   0.790  0.0065  0.4908 -0.1981
36448SOL    HW121323   4.421  13.416   0.727 -0.0336  1.4320 -0.3700
36448SOL    HW221324   4.275  13.454   0.737 -0.2985  0.3301  0.1329
36449SOL     OW21325   9.700   4.970   4.488 -0.1271 -0.2855  0.5407
36449SOL    HW121326   9.730   4.882   4.467 -1.5158 -0.4775 -0.8305
36449SOL    HW221327   9.616   4.957   4.533 -1.6482  0.2990 -1.9248
36450SOL     OW21328  13.666   4.144   1.138  0.2030 -0.4391  0.9223
36450SOL    HW121329  13.609   4.162   1.064  1.4880  2.5419  0.4961
36450SOL    HW221330  13.741   4.097   1.101 -0.0769 -0.7178  0.7100
36451SOL     OW21331  13.078   8.385   1.270  0.2008 -0.1464 -0.2428
36451SOL    HW121332  13.082   8.392   1.175  1.8797 -2.0422 -0.3982
36451SOL    HW221333  12.989   8.354   1.288 -0.1561  0.2988 -1.1808
36452SOL     OW21334  13.469   8.756  13.570 -0.4145  0.6400 -0.1130
36452SOL    HW121335  13.459   8.675  13.619  0.2000  0.5092 -0.2079
36452SOL    HW221336  13.505   8.730  13.486  0.5592  1.0908  0.1493
36453SOL     OW21337   0.051   3.080   3.708  0.4596 -0.1016  0.8407
36453SOL    HW121338   0.079   3.169   3.732  1.0376 -0.2112  0.6016
36453SOL    HW221339   0.057   3.079   3.613 -2.7087  0.6222  0.5439
36454SOL     OW21340   2.512   1.410  13.752  0.0700 -0.0548  0.5328
36454SOL    HW121341   2.540   1.490  13.797  1.0919  0.8600 -1.5969
36454SOL    HW221342   2.420   1.426  13.733 -0.1032 -0.0115  1.3391
36455SOL     OW21343   3.089   1.006   7.358  0.1513 -0.2025  0.0491
36455SOL    HW121344   3.087   0.990   7.264  1.3376 -1.1552  0.1702
36455SOL    HW221345   3.145   0.938   7.393  0.9310  1.0260  1.2765
36456SOL     OW21346   3.415  11.661  10.211 -0.0997  0.1274  0.0963
36456SOL    HW121347   3.391  11.593  10.147 -0.5802  2.0861 -1.9173
36456SOL    HW221348   3.355  11.733  10.193  1.8897  2.0005  0.5461
36457SOL     OW21349   8.663   5.108   4.390  0.3201 -0.3290  0.4776
36457SOL    HW121350   8.583   5.117   4.338  1.6442  2.2811 -1.3176
36457SOL    HW221351   8.659   5.180   4.453  1.8489  0.7281 -0.5759
36458SOL     OW21352   3.959  10.845   3.784  0.2130  0.3353 -0.4595
36458SOL    HW121353   3.986  10.882   3.700 -2.5662  0.9982 -1.1596
36458SOL    HW221354   3.952  10.921   3.843  0.4815  0.0896 -0.1024
36459SOL     OW21355  13.858  10.896   2.795  0.2174  0.0432  0.0759
36459SOL    HW121356  13.861  10.905   2.890 -1.3899  0.4263  0.1237
36459SOL    HW221357  13.946  10.920   2.765  0.3616  1.2015  1.3630
36460SOL     OW21358   1.761  11.547   0.914 -0.3110 -0.1997 -0.1622
36460SOL    HW121359   1.690  11.612   0.913  0.3097  0.5001 -1.6019
36460SOL    HW221360   1.716  11.464   0.898 -0.7594  0.3368 -1.9234
36461SOL     OW21361   3.974   7.252   0.659  0.3505 -0.4788  0.2521
36461SOL    HW121362   3.974   7.261   0.564  1.0479 -0.0241  0.2933
36461SOL    HW221363   3.930   7.168   0.675  0.4472 -0.6717 -0.4755
36462SOL     OW21364   8.256  10.283   8.837 -0.1062 -0.6334 -0.0287
36462SOL    HW121365   8.256  10.187   8.841 -0.5733 -0.5819  1.7577
36462SOL    HW221366   8.164  10.308   8.839  0.0492 -0.1082  1.1182
36463SOL     OW21367   9.939   3.914   3.181 -0.1151  0.5242 -0.0889
36463SOL    HW121368  10.005   3.981   3.202 -0.4067  1.2633 -1.4289
36463SOL    HW221369   9.955   3.893   3.089 -2.9927  2.2381 -1.1081
36464SOL     OW21370  11.441   8.777   6.933 -0.3038  0.0975 -0.0290
36464SOL    HW121371  11.400   8.836   6.870  1.2939  1.1037 -0.1850
36464SOL    HW221372  11.501   8.724   6.881  2.1601  1.9535  0.7254
36465SOL     OW21373  11.010   2.703   3.238 -0.5269 -0.1133  0.5062
36465SOL    HW121374  11.012   2.615   3.201 -1.7907 -0.1869  0.5758
36465SOL    HW221375  11.094   2.742   3.211 -1.3317 -0.1757 -2.4138
36466SOL     OW21376   9.080   8.071  12.753 -0.7961 -0.0077  0.3929
36466SOL    HW121377   9.116   8.159  12.748 -2.4039  0.7389  1.0448
36466SOL    HW221378   9.060   8.059  12.846 -2.7251 -0.1193  0.0024
36467SOL     OW21379   6.088  11.352   6.024 -0.4046 -0.1936  0.2811
36467SOL    HW121380   5.993  11.349   6.036 -0.4925 -0.1342 -0.3645
36467SOL    HW221381   6.111  11.444   6.036 -1.0045  0.5962 -3.5254
36468SOL     OW21382   4.718   7.605   9.697 -0.0483 -0.2190 -0.3145
36468SOL    HW121383   4.642   7.630   9.749  0.4278 -1.2095  0.9079
36468SOL    HW221384   4.719   7.509   9.701  2.0872 -0.1997  0.9587
36469SOL     OW21385  13.471   3.091   3.805 -0.3039  1.0782 -0.1399
36469SOL    HW121386  13.529   3.026   3.844  0.7709  0.6978 -2.2691
36469SOL    HW221387  13.392   3.042   3.782  0.3309  0.5925 -1.3403
36470SOL     OW21388  11.317   9.404   3.112  0.5805 -0.4054  0.3669
36470SOL    HW121389  11.246   9.341   3.129  0.2744 -0.7560 -1.9119
36470SOL    HW221390  11.289   9.484   3.157 -1.2472 -0.5618 -0.4033
36471SOL     OW21391   8.146   1.685  12.075  0.5027  0.0042  0.3296
36471SOL    HW121392   8.067   1.732  12.048  0.2811 -0.0185  0.9181
36471SOL    HW221393   8.218   1.731  12.031  0.2072  0.3544  0.2069
36472SOL     OW21394  13.396   0.162   4.005 -0.1923  0.1435 -0.3395
36472SOL    HW121395  13.350   0.188   3.925  0.7185  0.5364 -0.7509
36472SOL    HW221396  13.370   0.071   4.018 -2.9728  0.9790  0.8101
36473SOL     OW21397   2.579   3.081   6.731  0.0638  0.2170  0.2526
36473SOL    HW121398   2.537   3.086   6.645  1.4875  0.7258 -0.4468
36473SOL    HW221399   2.530   3.143   6.785 -1.6068 -0.9653  0.1878
36474SOL     OW21400   1.725   7.777   3.215 -0.5600  0.0681 -0.3373
36474SOL    HW121401   1.669   7.791   3.138  1.6337 -0.2691 -2.0776
36474SOL    HW221402   1.769   7.861   3.228  0.6857 -0.4955 -0.8162
36475SOL     OW21403   5.658   3.649   3.371 -0.0397  0.0067  0.1776
36475SOL    HW121404   5.593   3.579   3.372  0.2736 -0.2809  0.4389
36475SOL    HW221405   5.739   3.608   3.400  0.4355  0.1997 -0.8491
36476SOL     OW21406   1.359  12.031   0.434 -0.1383  0.0252  0.4898
36476SOL    HW121407   1.420  11.977   0.384 -0.2156 -1.3147  1.7611
36476SOL    HW221408   1.273  12.011   0.397 -0.0622 -0.0221  0.3399
36477SOL     OW21409   0.803  12.834   8.026 -0.2582  0.4335 -0.0642
36477SOL    HW121410   0.845  12.915   8.054 -1.4420  1.3915 -0.9180
36477SOL    HW221411   0.779  12.789   8.107  0.7039  0.7588  0.4158
36478SOL     OW21412  13.788   9.336   7.386 -0.3669  0.1836 -0.1350
36478SOL    HW121413  13.709   9.375   7.424 -0.3778 -1.2000  1.3823
36478SOL    HW221414  13.853   9.341   7.456  0.7300  0.7236 -1.1522
36479SOL     OW21415  11.506   5.186   4.038  0.0788 -0.3268 -0.5693
36479SOL    HW121416  11.509   5.252   4.107  0.6588  1.1225 -1.9386
36479SOL    HW221417  11.569   5.119   4.066 -0.1226 -0.0655  0.5618
36480SOL     OW21418   9.286   0.150   9.162 -0.2389  0.6606  0.0204
36480SOL    HW121419   9.296   0.189   9.075 -1.9474  0.2050 -0.4122
36480SOL    HW221420   9.200   0.181   9.192 -0.2140 -0.1960  1.0156
36481SOL     OW21421   7.121  10.709   1.435 -0.3249 -0.0148 -0.2166
36481SOL    HW121422   7.029  10.698   1.460 -0.3587  0.5598 -0.0732
36481SOL    HW221423   7.157  10.621   1.438 -0.9082 -0.2638 -0.4064
36482SOL     OW21424  13.765   9.906  11.866  0.1196 -0.3538 -0.9480
36482SOL    HW121425  13.761   9.948  11.780  2.3265  3.0235  0.3976
36482SOL    HW221426  13.714   9.963  11.923  0.2679 -1.4956  0.3935
36483SOL     OW21427   5.466   4.909   0.564 -0.3591 -0.5129 -0.3131
36483SOL    HW121428   5.445   4.984   0.508 -1.8641 -0.1587  0.6363
36483SOL    HW221429   5.561   4.909   0.570 -0.3328  2.0717  0.5920
36484SOL     OW21430   0.984  13.493  11.924  0.1624  0.1968 -0.7296
36484SOL    HW121431   0.987  13.471  11.831 -1.9525  1.2667 -1.0980
36484SOL    HW221432   1.056  13.556  11.936  1.1472 -0.7744 -1.3688
36485SOL     OW21433   0.955   8.609   8.432  0.2806  0.3400  0.0336
36485SOL    HW121434   0.901   8.679   8.469 -0.6607 -0.4770  0.2617
36485SOL    HW221435   0.892   8.540   8.409  1.3204 -1.1613  1.4511
36486SOL     OW21436  13.050   5.754   3.147 -0.5058 -0.7936  0.0161
36486SOL    HW121437  12.978   5.718   3.095 -0.0773 -1.0525 -0.4053
36486SOL    HW221438  13.011   5.828   3.194 -1.7317 -2.5105  1.8346
36487SOL     OW21439   3.127   4.785   3.212  0.1669  0.0247  0.1856
36487SOL    HW121440   3.100   4.873   3.183 -0.3874  0.0284  0.6871
36487SOL    HW221441   3.222   4.791   3.222  0.2198  0.3618 -0.4772
36488SOL     OW21442   5.578   7.049   1.396 -0.6736  0.4387  0.2288
36488SOL    HW121443   5.671   7.063   1.377 -0.6356  1.2062  0.9028
36488SOL    HW221444   5.560   7.106   1.471 -1.9490  1.1375 -0.5613
36489SOL     OW21445  10.616   1.833   7.899 -0.8979  0.4237 -0.0632
36489SOL    HW121446  10.565   1.781   7.836  0.8812  0.1724 -1.3648
36489SOL    HW221447  10.703   1.838   7.861  0.3116  0.1558  2.4776
36490SOL     OW21448   5.583   3.540   5.597 -1.0798 -0.1631 -0.0318
36490SOL    HW121449   5.499   3.520   5.638 -0.4675 -0.3242  1.1873
36490SOL    HW221450   5.639   3.568   5.669  0.5838 -2.1601 -0.4369
36491SOL     OW21451   7.497   3.614   2.766  0.4210  0.6715 -0.0898
36491SOL    HW121452   7.575   3.572   2.729  0.8965  1.2515  0.2559
36491SOL    HW221453   7.426   3.553   2.744  0.7099  0.8884 -1.7882
36492SOL     OW21454  11.907   8.725   4.046  0.1981  0.4642 -0.3648
36492SOL    HW121455  11.987   8.778   4.051  0.4648 -0.0065  0.7020
36492SOL    HW221456  11.841   8.785   4.011  1.0487  0.8127 -1.4276
36493SOL     OW21457   5.736   4.908   6.479  0.2337  0.1063 -0.7380
36493SOL    HW121458   5.801   4.979   6.482 -0.2166  0.4952  1.1022
36493SOL    HW221459   5.787   4.830   6.456  1.1472  0.6160 -0.4965
36494SOL     OW21460   7.069  12.426   1.011 -0.1226  0.6143 -0.2920
36494SOL    HW121461   6.989  12.373   1.014  0.9135 -1.0208  0.0414
36494SOL    HW221462   7.087  12.436   0.917 -0.7240  1.0201 -0.3704
36495SOL     OW21463   8.087  11.486   9.503 -0.3032  0.5495  0.3744
36495SOL    HW121464   8.014  11.487   9.442 -0.8576  0.1402  1.0202
36495SOL    HW221465   8.161  11.456   9.451 -0.5244  1.2124 -0.3456
36496SOL     OW21466   9.849   0.516   0.843  0.3236  0.2212  0.2605
36496SOL    HW121467   9.803   0.566   0.776  0.6975  0.5944  0.2817
36496SOL    HW221468   9.795   0.525   0.921  0.5664  0.8785  0.3554
36497SOL     OW21469   1.079   6.692   7.100  0.5869 -0.2377 -0.0634
36497SOL    HW121470   1.104   6.674   7.009 -1.3931 -1.0058 -0.5097
36497SOL    HW221471   1.086   6.608   7.144 -1.6442 -0.6579 -0.3730
36498SOL     OW21472  12.591  11.649   7.714  0.7816  0.6689  0.2236
36498SOL    HW121473  12.620  11.611   7.632  0.9549  0.7887  0.2298
36498SOL    HW221474  12.668  11.693   7.750  0.2953  2.0454 -0.3564
36499SOL     OW21475   2.221   5.001  13.725  0.0381  0.3398 -0.4260
36499SOL    HW121476   2.201   4.936  13.658 -1.6828 -0.0022  0.3706
36499SOL    HW221477   2.169   5.078  13.700 -0.0924  0.4399  0.1449
36500SOL     OW21478  13.917   6.240   4.262 -0.2666 -0.5047  0.2497
36500SOL    HW121479  13.978   6.182   4.215  1.0612  0.7264  0.3869
36500SOL    HW221480  13.892   6.306   4.198  1.9873  1.5162  1.2778
36501SOL     OW21481   1.399   6.207   0.452  0.4151  0.0969 -0.2803
36501SOL    HW121482   1.310   6.243   0.454  0.5513  0.4267  1.4263
36501SOL    HW221483   1.388   6.119   0.416 -0.8432 -0.4030  1.2290
36502SOL     OW21484  12.461   8.433   1.826 -0.7128  0.0536 -0.5177
36502SOL    HW121485  12.550   8.418   1.793 -1.1058 -0.7667 -1.2362
36502SOL    HW221486  12.474   8.484   1.906  0.4235 -0.3520 -0.4204
36503SOL     OW21487  10.044  10.072   4.470 -0.6970 -0.2868  0.0963
36503SOL    HW121488  10.108  10.045   4.404 -0.6467 -0.8967  0.3888
36503SOL    HW221489   9.995  10.142   4.428  0.0225  0.0484 -0.2175
36504SOL     OW21490   8.062   7.429   2.893  0.0609  0.1822  0.3931
36504SOL    HW121491   8.155   7.408   2.905  0.0283  0.5709  1.3806
36504SOL    HW221492   8.035   7.469   2.975 -1.0312 -0.0741  0.1799
36505SOL     OW21493   1.442   9.519   4.200 -0.2461  0.1970 -0.3109
36505SOL    HW121494   1.419   9.575   4.126  1.3178  0.5529 -0.5670
36505SOL    HW221495   1.389   9.441   4.189  0.0498  0.1864 -1.9021
36506SOL     OW21496   9.689  12.025   5.150  0.3801 -0.2296  0.0065
36506SOL    HW121497   9.745  12.091   5.110  0.5014 -0.4279 -0.1574
36506SOL    HW221498   9.601  12.047   5.120  0.0864  1.2062  1.7835
36507SOL     OW21499   5.181   4.941   8.663 -0.1222 -0.4698  0.4217
36507SOL    HW121500   5.174   5.032   8.633  0.3854  0.3331  2.5561
36507SOL    HW221501   5.129   4.939   8.744 -1.4394 -2.5127 -0.4098
36508SOL     OW21502   0.456   3.765  13.207 -0.2290  0.0258 -0.2547
36508SOL    HW121503   0.414   3.679  13.207 -0.6402  0.2199  0.1330
36508SOL    HW221504   0.549   3.747  13.193  0.0812 -0.6853  2.2187
36509SOL     OW21505   3.525  11.871  10.357 -0.2620  0.0654 -0.0246
36509SOL    HW121506   3.491  11.788  10.323  0.7206  0.1084 -1.1833
36509SOL    HW221507   3.537  11.925  10.279 -1.1590  1.4125  0.7456
36510SOL     OW21508  10.603  13.770   9.788 -0.5605  0.8235  0.7616
36510SOL    HW121509  10.600  13.700   9.853 -0.0014  0.8146  0.7798
36510SOL    HW221510  10.689  13.761   9.747 -0.9645  0.7278 -0.0919
36511SOL     OW21511  12.169   5.049  11.512  0.1542 -0.5880  0.0882
36511SOL    HW121512  12.123   5.126  11.546 -1.7578 -1.1957 -0.9276
36511SOL    HW221513  12.248   5.084  11.471 -0.1326  0.6921  0.5784
36512SOL     OW21514   2.267   5.235   9.206 -0.0936 -0.5449 -0.2197
36512SOL    HW121515   2.235   5.308   9.258 -0.7884 -0.8542 -0.2059
36512SOL    HW221516   2.220   5.158   9.240 -2.0522 -0.4883 -2.5318
36513SOL     OW21517  10.895   9.867   8.125 -0.2657 -0.1383  0.4091
36513SOL    HW121518  10.834   9.806   8.166  0.0502 -1.5238 -1.0775
36513SOL    HW221519  10.977   9.819   8.119  1.0426  1.6811  2.3511
36514SOL     OW21520   0.392   2.851   4.320 -0.4494  0.8470 -0.3207
36514SOL    HW121521   0.356   2.818   4.237 -3.4453  1.8773  0.4451
36514SOL    HW221522   0.413   2.942   4.303 -0.0949  0.7841 -0.2223
36515SOL     OW21523   7.649  13.667   1.117  0.6066 -0.2943 -0.1060
36515SOL    HW121524   7.599  13.691   1.195  1.5810 -0.7594  0.6884
36515SOL    HW221525   7.606  13.588   1.084  0.8931 -0.7929  0.6751
36516SOL     OW21526   6.932   7.481  13.407 -0.2040 -0.1950 -0.1474
36516SOL    HW121527   6.839   7.494  13.427 -0.1319  0.3389 -0.1390
36516SOL    HW221528   6.944   7.386  13.412 -0.9316 -0.3503 -0.9637
36517SOL     OW21529   5.667   0.730  13.775 -0.2896  0.5507 -0.0901
36517SOL    HW121530   5.751   0.776  13.775  0.6357 -0.9621 -2.0012
36517SOL    HW221531   5.619   0.767  13.701 -1.0246  0.8895  0.5385
36518SOL     OW21532   6.499   3.483   3.459  0.0272 -0.5135  0.1730
36518SOL    HW121533   6.557   3.544   3.413  1.0467 -2.0916 -0.7555
36518SOL    HW221534   6.550   3.456   3.535 -0.1455 -0.7013  0.2206
36519SOL     OW21535  11.244  11.857  10.846 -0.7600 -0.1460  0.0163
36519SOL    HW121536  11.179  11.850  10.916 -0.4281  1.2525  0.5057
36519SOL    HW221537  11.292  11.774  10.849 -1.9286 -0.8396  0.2250
36520SOL     OW21538   7.415   3.743   8.387  0.1066  0.1788  0.3930
36520SOL    HW121539   7.338   3.702   8.348 -2.0266  2.1685  2.2367
36520SOL    HW221540   7.416   3.831   8.351  1.3628  0.2941  0.6587
36521SOL     OW21541  13.006   8.423  13.057 -0.3172  0.9717 -0.1836
36521SOL    HW121542  12.926   8.430  13.110  0.0576 -0.0325  0.5470
36521SOL    HW221543  12.998   8.493  12.992 -1.0020  1.9616  0.9256
36522SOL     OW21544   2.227  13.319   9.331  0.0148 -0.0821 -0.2940
36522SOL    HW121545   2.230  13.384   9.261  0.7978  0.7851  0.5224
36522SOL    HW221546   2.305  13.337   9.384 -0.1382 -1.2311  0.3490
36523SOL     OW21547   2.944  13.201  12.374  0.4465  0.3952 -0.5311
36523SOL    HW121548   2.857  13.165  12.393  1.3831 -1.3569  0.6827
36523SOL    HW221549   2.956  13.269  12.441  0.2793  0.1726 -0.2725
36524SOL     OW21550   5.715   1.101  11.678 -0.0011 -0.3747 -0.4285
36524SOL    HW121551   5.698   1.157  11.754 -1.6437 -0.1741 -0.9169
36524SOL    HW221552   5.779   1.150  11.626 -0.2234  0.3212 -0.0623
36525SOL     OW21553   5.269   9.509  13.778 -0.0827 -0.3745 -0.1858
36525SOL    HW121554   5.237   9.532  13.690 -2.5399 -0.7540  0.5350
36525SOL    HW221555   5.211   9.439  13.807  0.0773  0.3689  2.1053
36526SOL     OW21556  11.290  11.275   8.571 -0.1535  0.2630 -0.2613
36526SOL    HW121557  11.336  11.194   8.550 -2.8113 -1.3682 -0.1910
36526SOL    HW221558  11.298  11.284   8.666  1.2592  0.8554 -0.4113
36527SOL     OW21559  12.425   8.025   0.208  0.1765  0.0249  0.0516
36527SOL    HW121560  12.517   8.023   0.182  0.3460  0.5401  0.5771
36527SOL    HW221561  12.386   8.095   0.155  0.2696  0.3349  0.3890
36528SOL     OW21562   9.395   4.362  13.156  0.4535 -0.3581 -0.5477
36528SOL    HW121563   9.311   4.348  13.111  0.6541  0.9700 -1.3709
36528SOL    HW221564   9.424   4.274  13.179 -0.8087 -0.8965 -0.9206
36529SOL     OW21565   5.318   9.720   0.640 -0.4831  0.0566 -0.0160
36529SOL    HW121566   5.399   9.673   0.621 -0.8362 -0.3764 -0.4672
36529SOL    HW221567   5.347   9.805   0.674  0.1589  0.0994 -0.6560
36530SOL     OW21568   1.545   4.237   0.502  0.1318  0.1603  0.3358
36530SOL    HW121569   1.450   4.251   0.493 -0.0867 -0.8223  1.0379
36530SOL    HW221570   1.553   4.164   0.563  1.3494  0.1291  0.1543
36531SOL     OW21571   8.738  11.304  12.941  0.4367 -0.0275  0.3534
36531SOL    HW121572   8.788  11.376  12.905  0.5390  0.8237  2.1061
36531SOL    HW221573   8.790  11.272  13.015 -1.1098  0.2689  1.6315
36532SOL     OW21574   1.858  12.301   6.636  0.4748  0.2666 -0.2046
36532SOL    HW121575   1.766  12.275   6.635  0.5095  0.1243 -1.5100
36532SOL    HW221576   1.859  12.385   6.683 -0.3903  0.4900 -0.5698
36533SOL     OW21577  11.583   4.912   8.445  0.0907  0.1725  0.6829
36533SOL    HW121578  11.627   4.835   8.410 -0.8677 -1.0903  2.1383
36533SOL    HW221579  11.490   4.897   8.426 -0.3654 -0.1493  2.8877
36534SOL     OW21580   7.222   1.388  11.039  0.2163 -0.3838  0.3000
36534SOL    HW121581   7.198   1.341  10.959  1.9033 -0.5384 -0.1369
36534SOL    HW221582   7.203   1.325  11.109 -0.6831 -0.4726 -0.0070
36535SOL     OW21583  13.538   2.717  12.890 -0.3293 -0.1816 -0.2241
36535SOL    HW121584  13.570   2.626  12.892  1.2086  0.2992 -1.0078
36535SOL    HW221585  13.609   2.766  12.848 -0.3479  1.7072  1.7861
36536SOL     OW21586   0.872   4.775  13.543  0.0122  0.5083 -0.1937
36536SOL    HW121587   0.868   4.831  13.620  1.7032  0.3294  0.0632
36536SOL    HW221588   0.933   4.706  13.566 -1.3764 -0.9828 -0.8271
36537SOL     OW21589  13.263  10.095  10.731  0.4463  0.5317  0.1094
36537SOL    HW121590  13.241  10.007  10.762  1.4319 -0.3028 -1.4280
36537SOL    HW221591  13.186  10.148  10.752 -0.5071 -0.8854  0.3051
36538SOL     OW21592   9.025   6.819   6.776 -0.6011  0.0855 -0.7291
36538SOL    HW121593   9.009   6.913   6.763 -1.8418 -0.2792 -2.1983
36538SOL    HW221594   9.000   6.779   6.693 -0.5907 -1.6131  0.0447
36539SOL     OW21595   1.363  12.606   2.388 -0.0863 -0.0321 -0.3263
36539SOL    HW121596   1.455  12.577   2.387  0.2092  0.8413  0.5016
36539SOL    HW221597   1.333  12.587   2.477 -0.3795  0.6804 -0.2720
36540SOL     OW21598   9.299  12.348   6.666 -0.1659  0.2146 -0.1418
36540SOL    HW121599   9.357  12.282   6.703  0.1876  0.4008 -0.3714
36540SOL    HW221600   9.345  12.430   6.677  0.8935  0.0863 -2.8398
36541SOL     OW21601   8.436   6.418   9.654 -0.2316  0.0404  0.1099
36541SOL    HW121602   8.524   6.430   9.617 -0.7529 -0.7074 -1.4903
36541SOL    HW221603   8.444   6.342   9.710  0.2612  0.2974  0.3939
36542SOL     OW21604  11.407  10.226   3.692 -0.6164 -0.3750  0.0706
36542SOL    HW121605  11.484  10.252   3.742 -0.6509 -0.2159  0.0421
36542SOL    HW221606  11.355  10.173   3.752 -0.4319 -0.5720  0.0547
36543SOL     OW21607   6.377   3.302   5.031  0.0617 -0.1405 -0.5241
36543SOL    HW121608   6.425   3.234   4.983 -0.5322 -1.4494  0.6530
36543SOL    HW221609   6.442   3.340   5.089  0.5324  0.7180 -1.5834
36544SOL     OW21610   8.540  11.376   0.703  0.1737  0.0874 -0.0104
36544SOL    HW121611   8.593  11.431   0.761  1.7622 -0.8614 -0.4901
36544SOL    HW221612   8.531  11.426   0.622  1.1260 -0.0982 -0.2420
36545SOL     OW21613   2.842  12.064   7.043 -0.0639 -0.0504 -0.2536
36545SOL    HW121614   2.780  11.993   7.025 -0.3928  0.6399 -1.9919
36545SOL    HW221615   2.923  12.019   7.068 -0.4308 -1.0337 -0.7630
36546SOL     OW21616   3.608   6.047  10.307 -0.3577 -0.6467  0.9234
36546SOL    HW121617   3.664   5.984  10.353  1.1555  1.6976  2.4585
36546SOL    HW221618   3.570   6.100  10.376 -1.0892  0.5509 -0.3507
36547SOL     OW21619   0.393  10.930   6.574  0.3241  0.3734 -0.2358
36547SOL    HW121620   0.415  10.848   6.619 -0.0369  0.7362  0.6222
36547SOL    HW221621   0.323  10.969   6.627  0.1813  1.0210 -0.8821
36548SOL     OW21622  12.842   5.679   6.207 -0.0345 -0.4647 -0.5262
36548SOL    HW121623  12.876   5.612   6.267  0.1564  0.7265  0.7615
36548SOL    HW221624  12.913   5.692   6.144  0.8651  0.0661  0.5360
36549SOL     OW21625   5.505  12.127   6.080  0.0417  0.1115 -0.4473
36549SOL    HW121626   5.548  12.179   6.012  0.6868  1.6369  1.0693
36549SOL    HW221627   5.420  12.168   6.092 -0.4032 -0.6614 -0.8893
36550SOL     OW21628   2.761  12.174   4.519  0.0047  0.5227 -0.0703
36550SOL    HW121629   2.728  12.130   4.441 -0.0789  0.6530 -0.1070
36550SOL    HW221630   2.730  12.119   4.592  1.1331 -0.3009 -0.1794
36551SOL     OW21631   6.731   7.051   2.605  0.4098  0.9032  0.0382
36551SOL    HW121632   6.649   7.007   2.585  0.2022  1.7502 -1.1632
36551SOL    HW221633   6.775   7.058   2.520  0.6468  2.5279  0.2648
36552SOL     OW21634   9.417   5.733   4.204 -0.3430  0.0341  0.0751
36552SOL    HW121635   9.321   5.738   4.198 -0.3401  2.2205  0.9047
36552SOL    HW221636   9.433   5.680   4.283 -0.9250  1.1674  0.9780
36553SOL     OW21637   0.549  11.756   6.387  1.0453  0.4252  0.5448
36553SOL    HW121638   0.601  11.811   6.328  1.2685  2.8580  2.8257
36553SOL    HW221639   0.613  11.711   6.441  0.8262  0.3148  0.7146
36554SOL     OW21640   5.411   0.468   8.498  0.2320  0.9099 -0.1060
36554SOL    HW121641   5.367   0.390   8.466  2.2785 -0.4792  0.2710
36554SOL    HW221642   5.453   0.505   8.421  1.5681  0.0114  0.1539
36555SOL     OW21643  10.591   4.235   5.262  0.5354  0.1602 -0.0124
36555SOL    HW121644  10.540   4.265   5.186 -0.0744 -0.5834  0.0941
36555SOL    HW221645  10.657   4.176   5.225 -0.7981 -1.5212  0.1681
36556SOL     OW21646  11.436   9.846   0.851 -0.4466  0.0415 -0.2492
36556SOL    HW121647  11.420   9.754   0.873  0.1423 -0.3447 -1.3506
36556SOL    HW221648  11.364   9.868   0.791  0.0749 -0.0794 -0.9375
36557SOL     OW21649   4.533   7.183   6.607  0.1635  0.6436  0.3087
36557SOL    HW121650   4.485   7.142   6.534  1.0274  0.7926 -0.3604
36557SOL    HW221651   4.467   7.236   6.651 -0.4360  0.3664 -0.2315
36558SOL     OW21652  10.562   3.474  12.376  0.1349  0.0291 -0.2621
36558SOL    HW121653  10.627   3.410  12.406 -1.9867 -1.4763  1.3575
36558SOL    HW221654  10.554   3.535  12.449 -1.1051 -0.4938  0.0533
36559SOL     OW21655   7.897   7.568  10.213 -0.5721 -0.3489 -0.5506
36559SOL    HW121656   7.834   7.497  10.214 -0.5566 -0.3773 -1.0262
36559SOL    HW221657   7.874   7.622  10.289 -1.0280 -0.4775 -0.5920
36560SOL     OW21658   8.953   1.246   9.907  0.2436 -0.4033  0.2503
36560SOL    HW121659   8.974   1.281   9.820 -0.6810  3.3923  1.3280
36560SOL    HW221660   8.858   1.236   9.906 -0.0567  1.6843  1.3216
36561SOL     OW21661   3.891  13.940   9.906 -0.2861 -0.2695  0.1708
36561SOL    HW121662   3.864  14.002   9.973 -0.0853 -1.2535  1.1780
36561SOL    HW221663   3.876  13.853   9.945 -0.7345 -0.8743 -1.2636
36562SOL     OW21664   3.241   2.602   8.341  0.4693 -0.0344 -0.1145
36562SOL    HW121665   3.168   2.576   8.283  0.8820  1.3494 -1.3177
36562SOL    HW221666   3.210   2.682   8.383  1.0363  0.1955 -0.1323
36563SOL     OW21667   8.991  10.787   9.092 -0.6079  0.2285 -0.0456
36563SOL    HW121668   9.082  10.815   9.085 -0.8249  0.8482 -0.5027
36563SOL    HW221669   8.987  10.738   9.174  0.4598 -1.1142 -0.7504
36564SOL     OW21670   5.937   4.721   3.349  0.6138 -0.0858 -0.1792
36564SOL    HW121671   5.842   4.719   3.333  0.7380  2.2439 -1.6112
36564SOL    HW221672   5.976   4.728   3.262  2.0101  0.8588  0.4817
36565SOL     OW21673   1.251   3.489   7.168  0.8120 -0.1751 -0.1123
36565SOL    HW121674   1.259   3.393   7.168 -0.8222 -0.3431  0.3183
36565SOL    HW221675   1.239   3.511   7.076  1.0910 -0.3868 -0.2034
36566SOL     OW21676   9.286   1.276   7.305 -0.0710 -0.5448 -0.1523
36566SOL    HW121677   9.219   1.275   7.373 -1.6648  0.8882 -1.5993
36566SOL    HW221678   9.237   1.278   7.223  1.7695 -0.2597 -1.3052
36567SOL     OW21679   7.022   6.749  10.857 -0.0683 -0.2189 -0.4707
36567SOL    HW121680   6.972   6.820  10.897 -0.7886 -0.1424 -1.4776
36567SOL    HW221681   7.103   6.791  10.827  0.8266 -0.4076  1.4518
36568SOL     OW21682   8.844  13.634   9.867 -0.0620 -0.6253 -0.0214
36568SOL    HW121683   8.905  13.671   9.930  0.0153 -2.7058  1.2286
36568SOL    HW221684   8.777  13.702   9.855 -0.5959 -0.4609  3.0633
36569SOL     OW21685   3.533   8.993   3.738 -0.0496 -0.4449 -0.4698
36569SOL    HW121686   3.595   8.926   3.708  0.1383 -1.0021  1.0629
36569SOL    HW221687   3.571   9.075   3.707  2.9476 -0.4669  2.5715
36570SOL     OW21688  11.812  13.262   2.240  0.4753 -0.1614  0.7737
36570SOL    HW121689  11.873  13.241   2.170  1.8812 -0.4375  2.0264
36570SOL    HW221690  11.852  13.336   2.285 -0.2760 -0.1481  1.4527
36571SOL     OW21691   4.911  13.781  12.635 -0.0859 -0.4588 -0.3289
36571SOL    HW121692   4.919  13.745  12.723  1.0018  0.9629  0.1949
36571SOL    HW221693   4.883  13.871  12.648  0.4850 -0.1033 -1.4085
36572SOL     OW21694  11.179   5.412   9.582  0.0059  0.2169  0.3636
36572SOL    HW121695  11.089   5.381   9.593  0.6686 -0.9852  3.2576
36572SOL    HW221696  11.191   5.476   9.653  2.4855 -2.4895  2.6390
36573SOL     OW21697   8.984   8.630   1.464 -0.6360  0.1656 -0.5179
36573SOL    HW121698   9.015   8.720   1.477 -0.7915 -0.1120  2.3550
36573SOL    HW221699   8.889   8.636   1.475 -0.4281 -0.6684  2.5428
36574SOL     OW21700   8.284  12.018   2.636 -0.0285 -0.0339 -0.6340
36574SOL    HW121701   8.189  12.014   2.644 -0.1000  0.5267 -1.1882
36574SOL    HW221702   8.307  12.108   2.659  0.5431 -0.5930  1.1381
36575SOL     OW21703   5.597   4.468  13.579  0.3979 -0.5658  0.4533
36575SOL    HW121704   5.654   4.392  13.569  0.4912 -0.2637 -1.6250
36575SOL    HW221705   5.607   4.517  13.497 -1.9769  0.1046  0.5056
36576SOL     OW21706   0.714   7.618   3.611  0.4191 -0.2703 -0.0836
36576SOL    HW121707   0.794   7.578   3.577  0.4424 -0.6362  0.3870
36576SOL    HW221708   0.732   7.712   3.614  0.3447 -0.2102 -1.2584
36577SOL     OW21709  13.891   9.832  10.774  0.2924 -0.0753  0.6459
36577SOL    HW121710  13.932   9.871  10.851 -1.4934  1.4431  0.8943
36577SOL    HW221711  13.955   9.845  10.704  0.4306  1.9303  1.0794
36578SOL     OW21712   5.529   1.087  12.845  0.2093  0.3406 -0.6158
36578SOL    HW121713   5.581   1.109  12.922  0.0484 -0.0726 -0.3908
36578SOL    HW221714   5.503   0.996  12.858  0.8948  0.0028 -1.5719
36579SOL     OW21715   5.302  10.338  12.432 -0.1310 -0.7447 -0.1794
36579SOL    HW121716   5.265  10.425  12.444  0.8353 -0.2401 -0.7681
36579SOL    HW221717   5.301  10.323  12.338  0.7557 -0.8889 -0.1773
36580SOL     OW21718  11.235   2.818   1.202 -0.3348 -0.1556 -0.5054
36580SOL    HW121719  11.326   2.846   1.197 -0.2055 -0.0367  1.5764
36580SOL    HW221720  11.239   2.723   1.209 -0.2554 -0.0608  1.0120
36581SOL     OW21721  13.873   8.645   4.396  0.5801 -0.4585 -0.5857
36581SOL    HW121722  13.834   8.609   4.475 -0.2092 -0.2251 -0.8544
36581SOL    HW221723  13.828   8.601   4.324  1.1800 -0.5601 -0.9128
36582SOL     OW21724   9.159   0.720   0.456  0.6564 -0.0650  0.2219
36582SOL    HW121725   9.206   0.637   0.448 -2.1771 -1.6877 -1.5399
36582SOL    HW221726   9.096   0.718   0.384 -3.0141  1.2370  3.0998
36583SOL     OW21727   5.911   4.039   7.560  0.1127 -0.7593 -0.4369
36583SOL    HW121728   5.934   4.045   7.653 -1.0498  2.6329 -0.2133
36583SOL    HW221729   5.856   3.961   7.554 -0.9771 -0.2946  2.0547
36584SOL     OW21730   4.150   0.184   2.687 -0.4975  0.4589  0.3052
36584SOL    HW121731   4.229   0.173   2.635  0.2768  0.6251  1.4032
36584SOL    HW221732   4.081   0.143   2.636  0.3624  0.0200 -0.5231
36585SOL     OW21733   5.644  12.717   2.285  0.8743 -0.0724 -0.2899
36585SOL    HW121734   5.706  12.737   2.214  1.1153 -0.7994 -0.2941
36585SOL    HW221735   5.559  12.709   2.241  1.0095 -0.4396 -0.4947
36586SOL     OW21736   9.652   8.848   6.926  0.8891 -0.0397 -0.5805
36586SOL    HW121737   9.579   8.798   6.888 -0.3996  2.7110 -1.9862
36586SOL    HW221738   9.728   8.820   6.876  0.2002 -0.5954 -1.3600
36587SOL     OW21739   9.296   0.659   5.328  0.2040  0.0700  0.0207
36587SOL    HW121740   9.389   0.673   5.310 -0.0753  1.8005 -0.2493
36587SOL    HW221741   9.280   0.707   5.410 -0.0319 -1.9910  1.2556
36588SOL     OW21742   5.838   1.989   8.947 -0.3378  0.9016 -0.2012
36588SOL    HW121743   5.854   1.938   8.868  0.0831 -1.3019  1.1959
36588SOL    HW221744   5.743   1.986   8.959 -0.2709 -0.1630  0.1986
36589SOL     OW21745   1.545   5.322   7.106 -0.4165 -0.5352 -0.1205
36589SOL    HW121746   1.631   5.323   7.148 -0.9361  0.8605  1.0067
36589SOL    HW221747   1.538   5.235   7.068  1.3138 -0.8282  0.1434
36590SOL     OW21748  10.527   5.974  11.115 -0.7533 -0.2642 -0.3077
36590SOL    HW121749  10.521   5.886  11.078 -1.9549 -0.0638 -0.6429
36590SOL    HW221750  10.601   6.014  11.069 -0.9627 -0.6958 -1.0358
36591SOL     OW21751   0.013   8.110  10.504  0.0036  0.1996 -0.6488
36591SOL    HW121752   0.080   8.105  10.573 -2.1726  0.4966  1.6070
36591SOL    HW221753  -0.006   8.204  10.496  0.1494  0.1605 -1.6347
36592SOL     OW21754   9.602   7.599   4.487  0.5532 -0.2575  0.0527
36592SOL    HW121755   9.583   7.599   4.580 -0.4190 -0.7402 -0.1333
36592SOL    HW221756   9.662   7.673   4.475 -0.2505  0.5533  0.8710
36593SOL     OW21757   7.153   2.558  11.558 -0.1157  0.6329 -0.4441
36593SOL    HW121758   7.085   2.569  11.491 -0.1538  0.1271 -0.4923
36593SOL    HW221759   7.122   2.610  11.633  0.2602  1.7712 -1.0498
36594SOL     OW21760   7.321   4.200  13.084 -0.6030  0.0050 -0.3040
36594SOL    HW121761   7.339   4.136  13.015  0.1249 -0.1818  0.0497
36594SOL    HW221762   7.295   4.148  13.160 -1.1918  0.1991 -0.3662
36595SOL     OW21763   4.136   9.805   4.592 -0.0522  0.3571  0.1829
36595SOL    HW121764   4.225   9.832   4.566  1.0309 -1.7484  1.3937
36595SOL    HW221765   4.150   9.741   4.662 -2.5707  0.1765  0.6155
36596SOL     OW21766  11.635   2.060   5.039 -0.5276 -0.3152 -0.4033
36596SOL    HW121767  11.628   2.137   5.095 -1.5788 -0.1204 -0.7841
36596SOL    HW221768  11.545   2.030   5.028 -0.1851 -1.2418 -0.7607
36597SOL     OW21769   9.915   9.562   4.781 -0.2497 -0.1845  0.4113
36597SOL    HW121770  10.008   9.586   4.775 -0.5894  1.5205  1.1304
36597SOL    HW221771   9.906   9.524   4.868 -0.2274 -0.3223  0.3533
36598SOL     OW21772   0.555   6.563   4.494  0.1860 -0.3605  0.0510
36598SOL    HW121773   0.608   6.564   4.414  0.9109  0.2429  0.5180
36598SOL    HW221774   0.613   6.602   4.560 -0.3093 -1.0928  0.9237
36599SOL     OW21775  13.592   7.344   9.735 -0.1731 -0.3044  0.6673
36599SOL    HW121776  13.550   7.350   9.649 -0.5934  0.6738  0.9189
36599SOL    HW221777  13.674   7.391   9.725 -0.7922  0.9343  1.1046
36600SOL     OW21778  11.959  10.868   5.402  0.3911  0.0785  0.2581
36600SOL    HW121779  12.021  10.881   5.474 -1.2495 -0.3355  1.8247
36600SOL    HW221780  11.874  10.894   5.439 -0.6094 -0.8065 -1.3168
36601SOL     OW21781   5.118  10.556   4.930 -0.0629 -0.0581 -0.1972
36601SOL    HW121782   5.143  10.644   4.900 -0.2237  0.5065  1.2351
36601SOL    HW221783   5.023  10.558   4.934 -0.0157  0.3860  1.6771
36602SOL     OW21784   2.669  11.471   7.140  0.1125 -0.0779 -0.6326
36602SOL    HW121785   2.735  11.444   7.204 -0.6980 -0.6661 -0.0176
36602SOL    HW221786   2.671  11.402   7.073  0.3305  0.0688 -0.7801
36603SOL     OW21787  10.953   1.838   9.237  0.0862  0.2743 -0.0104
36603SOL    HW121788  10.885   1.885   9.284  0.0964  0.9516 -0.6485
36603SOL    HW221789  10.968   1.890   9.158  0.3506 -0.6141 -0.5672
36604SOL     OW21790   7.467   7.028  13.922  0.3104 -0.6066  0.1799
36604SOL    HW121791   7.552   7.068  13.939  0.1858 -0.4985  0.5508
36604SOL    HW221792   7.405   7.076  13.977 -0.2204  0.2173 -1.0818
36605SOL     OW21793  12.679  11.886   1.228 -0.7140 -0.2314 -0.0555
36605SOL    HW121794  12.718  11.874   1.314  2.4742 -2.0285 -1.5862
36605SOL    HW221795  12.645  11.800   1.204  0.6733 -0.4175 -1.5283
36606SOL     OW21796   1.092   4.622   6.986  0.0275 -0.0991  0.4129
36606SOL    HW121797   1.062   4.535   7.011  1.4058 -0.0751  2.3567
36606SOL    HW221798   1.177   4.607   6.944  0.2045  0.2970  0.6254
36607SOL     OW21799  13.931  14.040   6.686 -0.0208  0.1002 -0.1748
36607SOL    HW121800  14.009  13.996   6.718  2.2849  2.4087 -2.2010
36607SOL    HW221801  13.918  14.005   6.598  0.3944  1.6225 -0.8709
36608SOL     OW21802  10.372   1.416   1.183 -0.2870  0.0572 -0.3896
36608SOL    HW121803  10.350   1.464   1.263  3.2086 -0.0317  0.8112
36608SOL    HW221804  10.372   1.483   1.114  0.3269  0.9486  0.4440
36609SOL     OW21805  13.504  13.762  10.693  0.0610  0.5000  0.2774
36609SOL    HW121806  13.522  13.732  10.604 -0.1324 -2.7354  1.2056
36609SOL    HW221807  13.517  13.857  10.690  2.2578  0.2311 -2.6444
36610SOL     OW21808   9.725   4.421  12.422  0.1655  0.3216  0.1612
36610SOL    HW121809   9.734   4.367  12.500  0.7040  0.2674  0.0658
36610SOL    HW221810   9.689   4.363  12.356  1.2316 -0.0795 -0.0933
36611SOL     OW21811   8.931   6.545   3.530 -0.2641  0.0291  0.5598
36611SOL    HW121812   8.916   6.468   3.475 -1.4366  0.4652  0.2464
36611SOL    HW221813   8.854   6.600   3.517  1.6855  2.5681 -1.3937
36612SOL     OW21814  10.705  12.187   0.403 -0.2029  0.0415  0.4025
36612SOL    HW121815  10.636  12.133   0.364 -1.1741  1.3004  0.3152
36612SOL    HW221816  10.757  12.126   0.454 -1.1302 -1.0221  0.1148
36613SOL     OW21817   9.940   3.574   8.000  0.0077 -0.1036  0.4653
36613SOL    HW121818   9.903   3.645   7.948  2.3803 -0.4533 -1.9333
36613SOL    HW221819   9.999   3.618   8.062 -0.4987  0.1433  0.7769
36614SOL     OW21820  10.290   4.496   5.197 -0.1679 -0.1649  0.4730
36614SOL    HW121821  10.367   4.453   5.162  0.5539 -1.8951  3.8008
36614SOL    HW221822  10.322   4.578   5.234 -0.4387  0.3326 -0.3535
36615SOL     OW21823   4.788   6.812  12.451  0.2327 -0.3996  0.2723
36615SOL    HW121824   4.877   6.842  12.436  0.1894 -0.0279  0.7421
36615SOL    HW221825   4.782   6.800  12.546 -1.4073  3.4938  0.8656
36616SOL     OW21826  13.260  12.593   3.328 -0.7105  0.1174 -0.5474
36616SOL    HW121827  13.231  12.543   3.405 -0.7255 -2.2402 -1.9977
36616SOL    HW221828  13.235  12.539   3.253 -0.1794  2.0703 -2.2274
36617SOL     OW21829  11.974   3.841   0.799  0.1755 -0.0359 -0.4036
36617SOL    HW121830  12.056   3.860   0.753  0.8587 -0.6715  0.5109
36617SOL    HW221831  11.952   3.922   0.844  0.4258  0.0677 -0.4650
36618SOL     OW21832   3.174   7.569   3.464  0.1236 -0.5584 -0.1229
36618SOL    HW121833   3.136   7.618   3.537 -0.9957  0.9859 -1.6348
36618SOL    HW221834   3.099   7.550   3.407  1.0423 -1.1223 -1.1921
36619SOL     OW21835   6.213  13.097  10.169 -0.2410  0.5667 -0.1062
36619SOL    HW121836   6.141  13.153  10.139 -0.2732 -0.4679 -2.1207
36619SOL    HW221837   6.291  13.152  10.160 -0.2916  0.3761 -1.9078
36620SOL     OW21838  12.817   9.700  13.893  0.7536  0.5652 -0.2401
36620SOL    HW121839  12.859   9.765  13.836  2.2295 -1.3410 -1.4163
36620SOL    HW221840  12.751   9.659  13.838  1.2700 -0.3697 -0.1714
36621SOL     OW21841   5.875  12.597  12.253 -0.4701  0.2753  0.4654
36621SOL    HW121842   5.829  12.660  12.197 -1.0497 -0.9894 -0.5494
36621SOL    HW221843   5.809  12.570  12.317 -0.9307 -0.9096 -0.4690
36622SOL     OW21844   1.720   4.367   7.344 -0.1564 -0.9374  0.0718
36622SOL    HW121845   1.719   4.324   7.430  2.0272 -0.1964  0.5434
36622SOL    HW221846   1.776   4.311   7.290  0.0420 -0.4122 -0.2769
36623SOL     OW21847   0.665   9.382   3.193 -0.6069  0.4598 -0.4128
36623SOL    HW121848   0.667   9.419   3.104 -0.4556  1.1902 -0.1113
36623SOL    HW221849   0.738   9.321   3.195 -1.2506 -0.3748 -1.1279
36624SOL     OW21850   3.055   8.391   7.648 -0.1196  0.4509 -0.6423
36624SOL    HW121851   3.117   8.335   7.600  0.7894  0.6698  0.2468
36624SOL    HW221852   2.969   8.359   7.621  0.3747 -0.3639 -1.3309
36625SOL     OW21853   5.784   2.487   2.953  0.2917 -0.1807  0.3067
36625SOL    HW121854   5.799   2.405   2.905 -1.1364 -0.9232  1.0760
36625SOL    HW221855   5.871   2.514   2.981  0.9617 -0.6318 -1.2252
36626SOL     OW21856   7.547   1.791   4.540 -0.1867 -0.6383  0.2560
36626SOL    HW121857   7.581   1.729   4.475 -1.5723 -1.3944  0.2109
36626SOL    HW221858   7.623   1.814   4.593  0.9558 -0.1063 -1.5289
36627SOL     OW21859  13.864   9.757  14.001  0.4638 -0.7228  0.0813
36627SOL    HW121860  13.865   9.701  14.078 -1.2861 -1.2213 -0.2226
36627SOL    HW221861  13.797   9.823  14.020  2.8424  1.7181  0.6738
36628SOL     OW21862   0.761   1.792   3.085  0.6906  0.0380 -0.4776
36628SOL    HW121863   0.809   1.714   3.113 -1.8284 -1.0647  1.1094
36628SOL    HW221864   0.686   1.797   3.144 -1.3318  1.4520 -2.9258
36629SOL     OW21865   5.572   6.990   3.336  0.7070 -0.2040 -0.0569
36629SOL    HW121866   5.542   7.081   3.331 -1.6979 -0.9434 -0.3152
36629SOL    HW221867   5.622   6.977   3.255  2.3944  1.2452  0.6707
36630SOL     OW21868  10.896   6.888  13.606 -0.1216 -0.4331  0.3368
36630SOL    HW121869  10.826   6.866  13.544 -1.1674 -1.9444  1.9495
36630SOL    HW221870  10.849   6.909  13.687  1.0318  3.8863  0.1467
36631SOL     OW21871   4.193   6.640   2.704  0.4878 -0.6219  0.3350
36631SOL    HW121872   4.170   6.555   2.741 -0.0470 -0.6657 -0.0828
36631SOL    HW221873   4.266   6.671   2.758  0.9567 -1.5280  0.2409
36632SOL     OW21874   2.319   2.810   0.709  0.1656  0.2293 -0.3125
36632SOL    HW121875   2.384   2.825   0.641  0.0011 -1.0931 -0.7998
36632SOL    HW221876   2.277   2.895   0.722  0.3418  0.5591 -1.7208
36633SOL     OW21877  11.684   9.829   2.288  1.0678 -0.3124  0.1121
36633SOL    HW121878  11.699   9.839   2.194 -0.6382  0.6541 -0.1073
36633SOL    HW221879  11.736   9.899   2.328  1.6182 -0.5817 -0.1176
36634SOL     OW21880   9.925  12.323  13.541 -0.2032  0.0396  0.2751
36634SOL    HW121881   9.970  12.357  13.618  0.2944  1.7295 -0.7342
36634SOL    HW221882   9.993  12.277  13.492 -0.0101  0.9005 -0.2700
36635SOL     OW21883   0.700   1.930   6.248  0.4200  0.0940 -0.1292
36635SOL    HW121884   0.787   1.896   6.270  0.8448  0.9718 -0.4331
36635SOL    HW221885   0.698   1.929   6.152 -0.9399 -2.4811 -0.1628
36636SOL     OW21886   6.668   0.099   6.386 -0.4823  0.5959  0.3885
36636SOL    HW121887   6.756   0.068   6.408 -1.2081 -1.1611  1.0269
36636SOL    HW221888   6.670   0.193   6.407  0.7978  0.2914  1.8440
36637SOL     OW21889   7.466   9.622  12.521 -0.5485 -0.4786 -0.4249
36637SOL    HW121890   7.375   9.609  12.493 -1.2224  0.2051  1.3314
36637SOL    HW221891   7.466   9.707  12.564  1.4908  0.6998 -2.4979
36638SOL     OW21892   6.867   1.624   8.168 -0.2421  0.7304  0.6450
36638SOL    HW121893   6.778   1.628   8.132  0.4022  0.2501 -1.0962
36638SOL    HW221894   6.868   1.544   8.221 -0.2402 -0.5053 -1.1478
36639SOL     OW21895  11.058   7.480   1.551 -0.5322  0.3956  0.0928
36639SOL    HW121896  11.032   7.487   1.459 -1.4620 -2.0504  0.0992
36639SOL    HW221897  10.984   7.436   1.593  1.2709 -1.6848  1.2803
36640SOL     OW21898   5.341   3.039   6.318 -0.2396 -0.1767  0.0310
36640SOL    HW121899   5.275   2.984   6.360  0.2299 -0.6255  0.1934
36640SOL    HW221900   5.401   3.063   6.388  0.5064 -0.8651 -0.3399
36641SOL     OW21901   2.758   1.596   9.228  0.3982  0.0234  0.5129
36641SOL    HW121902   2.689   1.661   9.242 -0.2747 -0.9185  1.7473
36641SOL    HW221903   2.715   1.512   9.245  1.0607 -0.8353 -1.7558
36642SOL     OW21904   7.047  10.618  11.027 -0.3451  0.1497 -0.3426
36642SOL    HW121905   7.090  10.701  11.007  0.8303 -0.5319 -0.6995
36642SOL    HW221906   7.082  10.593  11.113 -0.5659 -0.0720 -0.3143
36643SOL     OW21907  11.950   9.090  10.250 -0.0640  0.2623 -0.0350
36643SOL    HW121908  11.996   9.130  10.324  1.1838 -2.0280  0.5146
36643SOL    HW221909  11.930   9.001  10.279 -4.7645  0.9614 -0.3240
36644SOL     OW21910   3.297   0.756   9.515 -0.0791 -0.0431 -0.1581
36644SOL    HW121911   3.219   0.702   9.499 -0.1794 -0.3043  1.1039
36644SOL    HW221912   3.308   0.754   9.610  1.0742  0.5571 -0.2654
36645SOL     OW21913   3.234   9.900   0.688 -0.4138 -0.2082  0.2447
36645SOL    HW121914   3.153   9.878   0.734 -0.8289  1.1507  0.1961
36645SOL    HW221915   3.220   9.988   0.654  1.0542  0.0251  0.1633
36646SOL     OW21916  12.330  10.733  10.776 -0.2890  0.4311 -0.2042
36646SOL    HW121917  12.424  10.716  10.768 -0.2694  0.6308 -0.4191
36646SOL    HW221918  12.289  10.647  10.773 -0.3515  0.4696 -3.3725
36647SOL     OW21919   9.106   4.305   0.716 -0.1662 -0.3667 -0.1792
36647SOL    HW121920   9.083   4.309   0.808 -1.0683  1.3311 -0.4286
36647SOL    HW221921   9.128   4.396   0.693  3.6449 -1.2863 -0.7943
36648SOL     OW21922   7.121   6.382  10.071  0.3833 -0.4985 -0.2812
36648SOL    HW121923   7.094   6.396  10.161  0.6546  0.2885 -0.3180
36648SOL    HW221924   7.065   6.441  10.020 -0.8169 -2.0107 -0.7926
36649SOL     OW21925   2.077   1.843   6.052  0.5007 -0.6553 -0.1031
36649SOL    HW121926   2.119   1.927   6.069 -0.9103  0.1535 -0.5388
36649SOL    HW221927   2.114   1.785   6.119  0.7072  0.5568  0.8743
36650SOL     OW21928   1.691  13.744   8.963 -0.1207  0.2127  0.1531
36650SOL    HW121929   1.728  13.791   8.889  1.5381  1.3711  1.6313
36650SOL    HW221930   1.721  13.654   8.953 -0.0691  0.3202 -0.6742
36651SOL     OW21931   4.244   7.145   8.934 -0.5856 -0.1574 -0.5196
36651SOL    HW121932   4.308   7.216   8.928  0.5253 -0.9223  1.3929
36651SOL    HW221933   4.280   7.075   8.880 -0.2436 -0.2691 -0.1506
36652SOL     OW21934  11.451   8.220   9.604  0.1666  0.3936 -0.0728
36652SOL    HW121935  11.532   8.266   9.579 -0.1506  0.5905 -0.7568
36652SOL    HW221936  11.477   8.128   9.611  0.7632  0.6301  1.1058
36653SOL     OW21937   7.661  12.857  12.470 -0.4433  0.9181 -0.1047
36653SOL    HW121938   7.704  12.914  12.534  2.7445 -2.1116  0.8191
36653SOL    HW221939   7.707  12.874  12.388 -1.1584  1.3339 -0.4298
36654SOL     OW21940   1.644   3.551   9.623  0.5426  0.8155  0.0103
36654SOL    HW121941   1.672   3.597   9.702  0.3102  0.9396  0.0194
36654SOL    HW221942   1.661   3.459   9.642  2.3488  0.9852 -0.5304
36655SOL     OW21943   5.234   4.688   9.745  0.4484  0.0506 -0.4945
36655SOL    HW121944   5.162   4.672   9.806  0.0052  2.1514 -0.4055
36655SOL    HW221945   5.237   4.783   9.735  3.0399  0.0068 -0.7354
36656SOL     OW21946  10.259   5.057   1.197  0.2911  0.0295 -0.4935
36656SOL    HW121947  10.170   5.074   1.165  0.3055 -0.8690 -1.0685
36656SOL    HW221948  10.315   5.110   1.141  0.0446  1.8733  0.9108
36657SOL     OW21949   3.040   2.386   6.830  0.0115  0.4766 -0.2698
36657SOL    HW121950   3.011   2.477   6.831 -2.0312 -0.1325  0.0309
36657SOL    HW221951   2.973   2.338   6.878 -0.4421 -1.6065 -2.7184
36658SOL     OW21952  10.935   7.005   1.246 -0.0444  0.1123  0.8978
36658SOL    HW121953  10.938   7.057   1.326  2.4151 -0.9650  1.6075
36658SOL    HW221954  10.984   6.926   1.267  0.2946 -0.4000 -1.5303
36659SOL     OW21955  13.930   5.614   9.370  0.5329  0.4699  0.7956
36659SOL    HW121956  14.012   5.573   9.398  0.1508 -0.6669  0.3025
36659SOL    HW221957  13.957   5.685   9.312  1.1524 -0.8562 -0.5956
36660SOL     OW21958   1.105  10.145   1.786  0.5125 -0.0006  0.1511
36660SOL    HW121959   1.066  10.071   1.739  2.2870  0.4482 -2.2346
36660SOL    HW221960   1.107  10.117   1.878 -0.6285 -2.0787 -0.3965
36661SOL     OW21961   2.892  13.052   6.665 -0.2223  0.7373  0.5118
36661SOL    HW121962   2.812  13.055   6.612 -0.1447  0.6330  0.3845
36661SOL    HW221963   2.902  13.140   6.700 -0.0248  0.9408 -0.0320
36662SOL     OW21964  12.165  13.269   1.269 -0.0870 -0.0576 -0.2291
36662SOL    HW121965  12.120  13.248   1.352  1.0342  0.2867  0.4843
36662SOL    HW221966  12.223  13.194   1.255 -0.7728 -0.4432 -1.0875
36663SOL     OW21967   9.660   1.377  11.745 -0.2734 -0.2118  0.2989
36663SOL    HW121968   9.644   1.430  11.824  0.1624  0.0429  0.2229
36663SOL    HW221969   9.585   1.318  11.740  0.2897 -1.1051  1.6261
36664SOL     OW21970   5.833   6.626  10.576  0.3322 -0.1938  0.3903
36664SOL    HW121971   5.842   6.657  10.486  0.3315 -2.5737 -0.4779
36664SOL    HW221972   5.906   6.565  10.588 -0.5435 -1.0486  1.4961
36665SOL     OW21973   1.814   1.909   4.745  0.2455 -0.7238  0.1966
36665SOL    HW121974   1.863   1.985   4.776 -1.8533  0.6990  0.2200
36665SOL    HW221975   1.757   1.943   4.676 -1.4608 -2.0117  0.8797
36666SOL     OW21976   8.376   0.010  11.112 -0.2386  0.1972  0.0079
36666SOL    HW121977   8.456  -0.029  11.078  1.0777  1.1215  1.8647
36666SOL    HW221978   8.336  -0.061  11.164  0.5216  0.3540  0.8317
36667SOL     OW21979   6.170  10.267   3.204 -0.4958 -0.1905  0.2449
36667SOL    HW121980   6.213  10.195   3.250  0.0219  0.1328  0.2655
36667SOL    HW221981   6.161  10.336   3.270  2.2608  1.1511 -0.6215
36668SOL     OW21982   8.456   4.573   2.961  0.0516 -0.0017  0.6180
36668SOL    HW121983   8.491   4.623   3.034 -0.5779  1.8188 -0.2853
36668SOL    HW221984   8.532   4.525   2.927  0.4542 -0.4825  2.1113
36669SOL     OW21985   0.407   1.480   9.606 -0.3998  0.0528 -0.0646
36669SOL    HW121986   0.413   1.563   9.560 -1.9961 -0.2550 -0.9150
36669SOL    HW221987   0.341   1.495   9.674 -4.5278 -1.6253 -3.2030
36670SOL     OW21988   2.990  12.164  13.861  0.6939  0.2512  0.0063
36670SOL    HW121989   2.968  12.155  13.953  0.2098  0.9578 -0.0376
36670SOL    HW221990   3.062  12.228  13.860 -0.2546  1.3332 -0.2151
36671SOL     OW21991   0.803  13.016   5.844  0.1553  0.4916  0.0664
36671SOL    HW121992   0.760  12.984   5.766 -1.4417 -0.1771  1.1856
36671SOL    HW221993   0.802  13.111   5.835 -2.3639  0.5516  0.4260
36672SOL     OW21994   5.049   1.393   8.118 -0.4022  0.2381  0.3737
36672SOL    HW121995   4.995   1.316   8.102  1.0932 -0.3153 -2.7500
36672SOL    HW221996   5.002   1.465   8.074 -0.0812  0.3768  0.2549
36673SOL     OW21997   0.298   5.405  12.267  0.1561  0.5399  0.5283
36673SOL    HW121998   0.378   5.432  12.221 -0.9862  2.1426 -0.6333
36673SOL    HW221999   0.325   5.330  12.320  2.0105 -0.1554 -1.2446
36674SOL     OW22000   7.983   4.893   8.317  0.0167 -0.0106  0.0787
36674SOL    HW122001   7.964   4.805   8.351 -0.7250 -0.6192 -1.7701
36674SOL    HW222002   8.002   4.945   8.395 -3.6690 -0.7729  1.7140
36675SOL     OW22003   0.865   5.929   2.795  0.2979  0.0873  0.1574
36675SOL    HW122004   0.777   5.964   2.781  0.4132  0.7433  0.9923
36675SOL    HW222005   0.923   6.005   2.785  0.6860 -0.1650  0.4756
36676SOL     OW22006  13.329   1.221  13.390 -0.3123 -0.4215 -0.8438
36676SOL    HW122007  13.260   1.257  13.447  0.4670 -0.9951  0.4975
36676SOL    HW222008  13.309   1.257  13.303 -0.9767  1.2562 -0.0364
36677SOL     OW22009  10.680   4.594   6.973 -0.7888 -0.2327 -0.1581
36677SOL    HW122010  10.725   4.640   7.044 -3.0762 -0.1529  1.3494
36677SOL    HW222011  10.633   4.663   6.926  0.4602 -0.3274 -1.6126
36678SOL     OW22012   7.746  11.751   9.304  0.4218 -0.6854 -0.1854
36678SOL    HW122013   7.713  11.827   9.352  0.5886  0.0430 -1.1681
36678SOL    HW222014   7.787  11.789   9.226  2.3584 -1.6411  0.3115
36679SOL     OW22015  13.476  10.721  13.791 -0.4325  0.0938 -0.0039
36679SOL    HW122016  13.434  10.793  13.838 -0.3672  0.2279 -0.1472
36679SOL    HW222017  13.561  10.756  13.765 -0.2950 -0.1215  0.1489
36680SOL     OW22018   0.293   2.687  11.555 -0.2090  0.0969 -0.4049
36680SOL    HW122019   0.206   2.681  11.515 -0.3292 -2.7275  0.0777
36680SOL    HW222020   0.344   2.619  11.510  1.8389  1.8056 -0.7922
36681SOL     OW22021   3.409   2.658   8.701  0.1067  0.1981 -0.2989
36681SOL    HW122022   3.426   2.581   8.647 -2.4194  1.0378 -2.5226
36681SOL    HW222023   3.448   2.731   8.653 -0.1368  0.6921  0.2300
36682SOL     OW22024  11.286   2.479   3.133  0.0128  0.1155  0.1971
36682SOL    HW122025  11.373   2.497   3.097 -0.2987  0.9874 -0.1279
36682SOL    HW222026  11.303   2.440   3.219  0.7682 -1.9349 -0.8049
36683SOL     OW22027   6.082   3.944   2.092  0.0942 -0.5151  0.2321
36683SOL    HW122028   6.053   3.853   2.094  1.1834 -0.8819  2.1454
36683SOL    HW222029   6.007   3.993   2.057 -0.6067 -2.0910 -0.5612
36684SOL     OW22030   4.105   8.076  11.980  0.1521 -0.2752  0.2283
36684SOL    HW122031   4.199   8.070  11.963 -0.1842 -0.3817 -1.7717
36684SOL    HW222032   4.086   8.001  12.036  0.9422 -1.3735 -0.9303
36685SOL     OW22033   6.767   0.986   5.893 -0.2969 -0.4826  0.2942
36685SOL    HW122034   6.682   1.026   5.908  0.4609  1.5133 -0.4466
36685SOL    HW222035   6.828   1.059   5.891  1.1087 -1.6177 -1.6804
36686SOL     OW22036   0.027  13.281   1.869  0.1803  0.0339 -0.2701
36686SOL    HW122037   0.005  13.333   1.947  0.8665 -0.5756  0.3468
36686SOL    HW222038  -0.041  13.214   1.865  0.5508 -0.3779  0.2326
36687SOL     OW22039   4.246   7.739  11.056  0.1809  0.8674  0.2299
36687SOL    HW122040   4.174   7.790  11.094 -1.1633  0.0855 -1.1358
36687SOL    HW222041   4.235   7.651  11.091  0.1801  0.6327 -0.3482
36688SOL     OW22042   0.977   8.891   5.383  0.0906 -0.4981  0.1614
36688SOL    HW122043   0.918   8.948   5.432  1.4833 -1.4118  3.1564
36688SOL    HW222044   0.922   8.853   5.314 -1.7420  1.6631  0.3122
36689SOL     OW22045   9.385   3.213   5.316 -0.0740  0.0919  0.1954
36689SOL    HW122046   9.342   3.148   5.373 -0.0606 -0.1427 -0.0611
36689SOL    HW222047   9.382   3.294   5.366  0.0521 -0.1430  0.5892
36690SOL     OW22048   5.852  13.566   1.312  0.1947  0.5187 -0.7451
36690SOL    HW122049   5.842  13.621   1.234 -0.1293  2.8889  0.8558
36690SOL    HW222050   5.943  13.579   1.339  0.0535  0.4717 -0.2373
36691SOL     OW22051   2.657   0.657   1.463  0.6255 -0.9668  0.1775
36691SOL    HW122052   2.620   0.730   1.415 -1.9162  0.0079  3.2593
36691SOL    HW222053   2.624   0.579   1.419 -0.6415 -0.1510 -0.3541
36692SOL     OW22054  13.640   8.341   4.315  0.7779  0.2521 -0.2864
36692SOL    HW122055  13.570   8.277   4.326  0.0875  1.3703  2.3527
36692SOL    HW222056  13.710   8.291   4.272 -0.7919 -1.4466 -1.0359
36693SOL     OW22057   5.391   8.497  10.720  0.4028 -0.3471 -0.1178
36693SOL    HW122058   5.420   8.520  10.632 -2.0918 -0.3262 -1.0248
36693SOL    HW222059   5.354   8.409  10.711  1.0258 -0.7712  1.1648
36694SOL     OW22060  12.986   1.803   0.222  0.4740 -0.6643  0.0574
36694SOL    HW122061  13.031   1.869   0.274 -0.0812  0.4682 -0.8356
36694SOL    HW222062  13.047   1.782   0.151  0.8069 -1.4218  0.5560
36695SOL     OW22063   3.922   1.520   1.094  0.1349  0.8054  0.0160
36695SOL    HW122064   3.920   1.507   0.999 -2.1624 -0.9102  0.2123
36695SOL    HW222065   3.987   1.458   1.126  0.8053  1.2797 -0.4005
36696SOL     OW22066   3.535   3.995   8.177 -0.1444 -0.7581 -0.1116
36696SOL    HW122067   3.574   4.002   8.090  1.6533 -0.7418  0.6599
36696SOL    HW222068   3.520   3.901   8.189  0.5925 -0.8696 -0.0338
36697SOL     OW22069   5.106   9.896  12.502 -0.0808 -0.6520  0.4292
36697SOL    HW122070   5.158   9.928  12.429 -1.3181  0.0106 -0.1943
36697SOL    HW222071   5.154   9.923  12.580  0.7114 -0.4334 -0.1282
36698SOL     OW22072   1.178   3.836  10.539  0.1033  0.4145  0.4480
36698SOL    HW122073   1.166   3.816  10.632  0.9177 -0.1844  0.4331
36698SOL    HW222074   1.098   3.883  10.515 -0.0249  0.7699  1.4985
36699SOL     OW22075  13.578  12.315   1.661 -0.1380 -0.6387 -0.6092
36699SOL    HW122076  13.513  12.255   1.697  2.6381 -2.8242  1.1494
36699SOL    HW222077  13.552  12.401   1.696 -2.1218 -1.3731 -0.1232
36700SOL     OW22078   7.109   5.421   1.625  0.4663  0.3683 -0.2640
36700SOL    HW122079   7.036   5.360   1.632 -0.4360  1.4702  0.2966
36700SOL    HW222080   7.125   5.429   1.531  1.4671 -1.6747 -0.3310
36701SOL     OW22081   8.409   4.973  13.005 -0.0915 -0.2739  0.1061
36701SOL    HW122082   8.423   4.909  12.935 -0.9833 -0.2411 -0.1111
36701SOL    HW222083   8.388   4.920  13.082  3.1509 -0.4532  0.9910
36702SOL     OW22084   9.094   8.849   9.826 -0.2711 -0.1592  0.1672
36702SOL    HW122085   9.042   8.852   9.906 -1.1415  0.5559 -0.4026
36702SOL    HW222086   9.179   8.885   9.851 -1.0002  1.4723  0.4639
36703SOL     OW22087   1.739   7.307  13.936 -0.8544  0.2444  0.1265
36703SOL    HW122088   1.793   7.247  13.884  0.3626  0.9857  0.4809
36703SOL    HW222089   1.740   7.389  13.886  1.5825  1.4438  1.9169
36704SOL     OW22090   5.580  10.283   1.317 -0.7106 -0.2992 -0.1784
36704SOL    HW122091   5.562  10.369   1.355 -1.6298 -0.4584 -0.2183
36704SOL    HW222092   5.609  10.230   1.390 -1.0654 -0.2080  0.0326
36705SOL     OW22093  12.473   5.602   1.366 -0.1806 -0.0083  0.4569
36705SOL    HW122094  12.384   5.578   1.393  0.2467 -0.7501  1.2735
36705SOL    HW222095  12.466   5.619   1.272 -1.2337  0.2065  0.5544
36706SOL     OW22096   8.512   4.247   8.026  0.0395  0.0481  0.6964
36706SOL    HW122097   8.575   4.315   8.047  0.5147 -0.5750  1.3071
36706SOL    HW222098   8.532   4.175   8.085  1.8411 -2.0374 -2.1583
36707SOL     OW22099  10.584   8.421   7.020 -0.2012  0.4582 -0.4899
36707SOL    HW122100  10.584   8.381   7.107 -1.3464 -1.8881 -1.4689
36707SOL    HW222101  10.676   8.427   6.995  0.0417 -0.8356  0.0558
36708SOL     OW22102  13.002   4.407   4.984 -0.0592 -0.2666  0.2650
36708SOL    HW122103  12.923   4.427   4.934  0.3961  0.4505 -0.1940
36708SOL    HW222104  13.045   4.337   4.935  0.3244  0.3517 -0.2961
36709SOL     OW22105   2.484   5.448  11.744  0.2580  0.0745 -0.8437
36709SOL    HW122106   2.439   5.390  11.805  2.7604 -1.4661 -0.3071
36709SOL    HW222107   2.420   5.467  11.676 -0.8997 -2.7371 -0.6467
36710SOL     OW22108   1.057  13.021   6.893  0.0754  0.2940  0.1165
36710SOL    HW122109   1.049  13.069   6.976  1.1923  0.2893  0.2348
36710SOL    HW222110   0.982  13.051   6.842  0.1861  1.4188  0.5742
36711SOL     OW22111   2.093   0.108   6.944 -0.4310  0.4864  0.1496
36711SOL    HW122112   2.169   0.113   7.001  0.0231  0.9823 -0.4835
36711SOL    HW222113   2.019   0.095   7.003  0.1182  0.2202  0.7874
36712SOL     OW22114  12.478  10.964  12.271  0.5541  0.8550  0.9174
36712SOL    HW122115  12.417  10.943  12.342 -1.0416  0.9220 -0.3600
36712SOL    HW222116  12.461  11.056  12.252  0.3570  0.6251 -0.0813
36713SOL     OW22117  12.801  12.354   3.034  0.2527 -0.2060 -0.2444
36713SOL    HW122118  12.763  12.346   2.946  1.0130  0.8963 -0.6975
36713SOL    HW222119  12.789  12.268   3.073 -0.5247 -0.5803 -1.2604
36714SOL     OW22120   8.342  10.558   3.763  0.0884  0.7948  0.7029
36714SOL    HW122121   8.266  10.613   3.783 -0.7793  0.3567 -1.1400
36714SOL    HW222122   8.319  10.472   3.797 -0.9761  0.2755 -1.2205
36715SOL     OW22123   1.888   8.702   9.742  0.0014  0.1900 -0.8557
36715SOL    HW122124   1.862   8.788   9.708 -2.7445 -1.6742 -4.0898
36715SOL    HW222125   1.825   8.684   9.812  0.5252  0.7300 -0.2345
36716SOL     OW22126  13.378   9.860  12.947  0.1988 -0.0529 -0.2618
36716SOL    HW122127  13.316   9.813  13.003 -1.9417  1.1462 -1.4946
36716SOL    HW222128  13.436   9.905  13.008 -2.4080  1.6776  1.1240
36717SOL     OW22129  11.668  12.106  12.022  0.5551  0.0433  0.3247
36717SOL    HW122130  11.757  12.090  12.054  1.0656  0.8844 -0.6080
36717SOL    HW222131  11.653  12.037  11.957  0.6482  0.0733  0.2700
36718SOL     OW22132  10.664   1.540   9.765 -0.1680 -0.0268 -0.6482
36718SOL    HW122133  10.605   1.594   9.712  1.3530 -0.2901 -2.7753
36718SOL    HW222134  10.740   1.527   9.708  1.1258 -1.2419  1.2742
36719SOL     OW22135   6.751  10.479   6.470  0.4171 -0.1030 -0.0548
36719SOL    HW122136   6.771  10.524   6.553  0.3022  0.2839 -0.2347
36719SOL    HW222137   6.655  10.478   6.466  0.4249  0.1395 -0.3239
36720SOL     OW22138   9.943   3.252  12.938 -0.2175 -0.4114  0.1118
36720SOL    HW122139   9.952   3.156  12.939  0.2668 -0.4014 -1.1545
36720SOL    HW222140   9.958   3.278  13.029 -0.4617 -1.5423  0.4991
36721SOL     OW22141   1.494   4.853   9.371 -0.1678 -0.0864 -0.1012
36721SOL    HW122142   1.515   4.943   9.345 -0.0693 -0.4227 -1.2254
36721SOL    HW222143   1.579   4.813   9.391 -0.3106  0.4273  1.6614
36722SOL     OW22144   7.124   9.756  12.674  0.3951 -0.0546 -0.6263
36722SOL    HW122145   7.082   9.833  12.636  0.6370 -0.5919 -2.0438
36722SOL    HW222146   7.082   9.682  12.631  2.2628 -0.6213 -1.5787
36723SOL     OW22147   4.580   8.356   2.893 -0.0619 -0.3194 -0.1380
36723SOL    HW122148   4.548   8.380   2.806  1.0263 -1.9938 -1.0449
36723SOL    HW222149   4.503   8.320   2.937 -0.7746  1.1353 -0.1412
36724SOL     OW22150   5.304   6.992  12.474 -0.3592 -0.1230  0.5737
36724SOL    HW122151   5.323   6.997  12.568  0.2064 -0.7936  0.5006
36724SOL    HW222152   5.338   6.907  12.447 -1.3350 -0.3252 -0.0599
36725SOL     OW22153   3.289   0.636  10.192  0.0422  0.2357  0.2179
36725SOL    HW122154   3.253   0.576  10.127 -0.6830 -1.3255  1.9332
36725SOL    HW222155   3.212   0.677  10.231  0.3634  0.1994  0.9145
36726SOL     OW22156   3.928   5.270   6.878  0.3978  0.0673  0.0784
36726SOL    HW122157   3.835   5.273   6.902  0.4926 -0.6736  0.5738
36726SOL    HW222158   3.928   5.279   6.782 -0.2365 -0.5713  0.0055
36727SOL     OW22159   1.432   6.951   9.803  0.0155  0.2975 -0.2037
36727SOL    HW122160   1.351   6.918   9.843 -1.4216  1.2175 -2.1631
36727SOL    HW222161   1.497   6.883   9.820 -1.2539 -0.6505  1.1222
36728SOL     OW22162  12.737   1.150   0.572 -1.0299  0.0758 -0.4274
36728SOL    HW122163  12.712   1.184   0.658 -1.8369  1.6751 -1.2454
36728SOL    HW222164  12.827   1.180   0.559  0.2349 -2.6992  1.0385
36729SOL     OW22165   4.769   0.336   2.688 -0.2241  0.4453 -0.0952
36729SOL    HW122166   4.723   0.416   2.712  0.1195  0.1471  1.6703
36729SOL    HW222167   4.764   0.281   2.766  2.2765  0.0089 -0.1794
36730SOL     OW22168   3.090   4.950   2.786  0.7154  0.4283 -0.1692
36730SOL    HW122169   3.113   4.922   2.698  3.1623 -1.2503  0.9103
36730SOL    HW222170   3.054   5.038   2.774  0.3506  0.0078 -2.8584
36731SOL     OW22171   4.455   0.842   6.872 -0.2780  0.6783 -0.3528
36731SOL    HW122172   4.394   0.814   6.804  1.0478 -2.0624 -0.5250
36731SOL    HW222173   4.407   0.910   6.920 -2.7729 -0.1268 -1.5470
36732SOL     OW22174   2.810   5.679  12.309  0.1153  0.0017  0.3265
36732SOL    HW122175   2.795   5.601  12.255 -1.6600  0.0120  0.7586
36732SOL    HW222176   2.807   5.647  12.399  2.5910  0.0680  0.4909
36733SOL     OW22177  12.017  10.696   1.852  0.1858  0.1499 -0.1101
36733SOL    HW122178  11.923  10.702   1.835  0.0450  1.3270  0.9474
36733SOL    HW222179  12.055  10.668   1.768 -1.3946 -3.8595  0.3054
36734SOL     OW22180   8.594   2.719   2.618 -0.1652  0.1388 -0.5341
36734SOL    HW122181   8.638   2.767   2.548  1.3517  0.4388  0.5695
36734SOL    HW222182   8.611   2.771   2.697  0.2995 -1.4492  0.4523
36735SOL     OW22183   2.413   4.245   2.116  0.1948 -0.1620  0.5888
36735SOL    HW122184   2.490   4.196   2.088  0.1067  0.3485 -0.6228
36735SOL    HW222185   2.348   4.228   2.047 -0.1430  0.9056  0.6271
36736SOL     OW22186   8.965   7.545  12.226  0.2443 -0.0522  0.1867
36736SOL    HW122187   8.929   7.579  12.308 -1.3865 -0.7397 -0.2012
36736SOL    HW222188   9.060   7.555  12.235 -0.0153  1.8595  1.2644
36737SOL     OW22189   9.012   0.686   3.965  0.3251 -0.1540  0.0006
36737SOL    HW122190   8.926   0.654   3.937  1.0479 -1.1680 -1.1654
36737SOL    HW222191   9.017   0.661   4.057 -0.1042 -1.3126 -0.2668
36738SOL     OW22192   6.820   9.467  12.392 -0.1076  0.1865  0.0632
36738SOL    HW122193   6.810   9.375  12.414 -0.2379 -0.2039 -1.5094
36738SOL    HW222194   6.768   9.478  12.312  1.5973  1.1167 -0.9653
36739SOL     OW22195  11.810   9.135  10.919 -0.2110 -0.2978  0.5702
36739SOL    HW122196  11.774   9.054  10.955 -0.1882 -0.1875  0.8448
36739SOL    HW222197  11.899   9.139  10.953  0.0964 -0.6095 -0.1714
36740SOL     OW22198   7.511   1.695   0.985 -0.0509 -0.2055 -0.2390
36740SOL    HW122199   7.475   1.640   0.916  0.7978  0.1070 -0.9429
36740SOL    HW222200   7.603   1.706   0.962 -0.1600  1.3747 -0.0346
36741SOL     OW22201  13.331   6.830   0.636  0.2686  0.1563 -0.1614
36741SOL    HW122202  13.391   6.858   0.705  0.9440  1.7302 -1.3334
36741SOL    HW222203  13.264   6.899   0.632  1.0634  0.8869 -2.0290
36742SOL     OW22204   0.936   5.036   9.839  0.4502  0.1784  0.1535
36742SOL    HW122205   0.853   5.056   9.794  0.8431 -0.2232 -0.7684
36742SOL    HW222206   0.984   5.119   9.839  0.3400  0.2421  0.0701
36743SOL     OW22207  12.270   6.460   7.265  0.3142  0.4609  0.1880
36743SOL    HW122208  12.267   6.495   7.176  0.7212  1.1845  0.4530
36743SOL    HW222209  12.329   6.385   7.259  2.9190  2.3429  0.4316
36744SOL     OW22210   4.291   1.333   3.149  0.1031  0.2693  0.3238
36744SOL    HW122211   4.303   1.291   3.063  2.4162  1.2582  0.0790
36744SOL    HW222212   4.314   1.425   3.134 -0.1930  0.6220  1.8567
36745SOL     OW22213   9.577   5.820   4.683 -0.3290 -0.5742 -0.1961
36745SOL    HW122214   9.651   5.860   4.638  0.1683  1.1676  1.9917
36745SOL    HW222215   9.611   5.735   4.712  1.1381  0.4846  1.3864
36746SOL     OW22216   8.979  13.750   0.474  0.1543 -0.3063 -0.4610
36746SOL    HW122217   9.071  13.751   0.502 -0.7238 -0.6882  2.8263
36746SOL    HW222218   8.961  13.841   0.449  1.2486 -0.1009 -0.5468
36747SOL     OW22219  12.655  10.307   7.942 -0.1526  0.2422  0.5157
36747SOL    HW122220  12.684  10.397   7.958 -0.8009  0.0952  3.0824
36747SOL    HW222221  12.571  10.301   7.988 -1.4537 -0.9639 -1.8305
36748SOL     OW22222   7.786   2.901   6.800  0.5924  0.1049  0.2322
36748SOL    HW122223   7.824   2.877   6.884 -1.1933 -0.1822  1.0186
36748SOL    HW222224   7.858   2.940   6.751  1.8797 -0.4901  1.5719
36749SOL     OW22225   6.847   1.699   3.868 -0.0795 -0.0733 -0.1041
36749SOL    HW122226   6.915   1.662   3.811  0.8678  0.1684  0.8388
36749SOL    HW222227   6.870   1.792   3.874 -2.3153  0.7352 -2.2894
36750SOL     OW22228  10.947  12.701   0.566  0.4110 -0.1652 -0.2345
36750SOL    HW122229  10.917  12.612   0.550  1.5353 -0.8256  1.1186
36750SOL    HW222230  10.904  12.727   0.647 -1.7709  1.4799 -1.7721
36751SOL     OW22231   3.576  10.592  12.670 -0.2403  0.2571 -1.0400
36751SOL    HW122232   3.608  10.657  12.606  0.1550  0.2981 -0.8050
36751SOL    HW222233   3.655  10.544  12.697 -0.3877  0.3115 -0.4997
36752SOL     OW22234   2.922  12.715   6.508  0.0472 -0.5088 -0.0146
36752SOL    HW122235   2.869  12.794   6.510  1.3614  0.4392 -1.0719
36752SOL    HW222236   2.894  12.666   6.585 -0.4234  1.2168  0.9644
36753SOL     OW22237   7.438  13.617   9.472  0.5426  0.0491  0.9502
36753SOL    HW122238   7.429  13.667   9.554  1.6142  2.2350 -0.1713
36753SOL    HW222239   7.376  13.657   9.412  1.6270  0.2560 -0.0726
36754SOL     OW22240   0.062  11.222   8.356 -0.0788 -1.0061 -0.6757
36754SOL    HW122241   0.090  11.137   8.322 -1.6124 -2.7214  1.9412
36754SOL    HW222242   0.142  11.259   8.394  0.5444 -1.4025 -1.5481
36755SOL     OW22243   7.712   5.024  13.886 -0.8474  0.1417  0.4305
36755SOL    HW122244   7.807   5.018  13.879 -0.9586 -0.0278 -1.3555
36755SOL    HW222245   7.685   4.938  13.921 -0.7200 -2.3712 -4.6953
36756SOL     OW22246   2.176   2.346  10.468  0.5468 -0.5769  0.2355
36756SOL    HW122247   2.160   2.349  10.562 -0.8672  0.1962  0.0009
36756SOL    HW222248   2.090   2.327  10.430  1.4034 -2.6696 -0.8320
36757SOL     OW22249   0.233   0.240  12.723  0.2191  0.3877 -0.0033
36757SOL    HW122250   0.250   0.173  12.656 -0.4828 -0.2222  0.4075
36757SOL    HW222251   0.298   0.223  12.790 -0.6601 -0.6569  0.6365
36758SOL     OW22252   0.883   0.105   5.852  0.4749  0.1690 -0.1500
36758SOL    HW122253   0.825   0.151   5.912 -1.3291 -1.4534 -0.5237
36758SOL    HW222254   0.960   0.161   5.845 -0.3784  1.6821  1.5795
36759SOL     OW22255   2.248  12.595   8.433 -0.4060  0.6912  0.1469
36759SOL    HW122256   2.241  12.688   8.409 -1.3417  0.6595  0.2685
36759SOL    HW222257   2.249  12.549   8.349  1.2830  0.8642  0.0370
36760SOL     OW22258  12.689  10.614  12.093  0.2433  0.1287 -0.2216
36760SOL    HW122259  12.758  10.659  12.045  0.8715  0.3399  0.8530
36760SOL    HW222260  12.726  10.529  12.115  0.0147  0.0834 -0.0053
36761SOL     OW22261   2.373   6.652   9.662 -0.2526 -0.0060 -0.1209
36761SOL    HW122262   2.438   6.592   9.626 -0.0214  0.5820 -0.7180
36761SOL    HW222263   2.415   6.738   9.656 -0.6850  0.2479  0.4580
36762SOL     OW22264  13.731   0.195  13.345 -0.7549  0.2277  0.8023
36762SOL    HW122265  13.697   0.275  13.385 -2.1958  0.5312 -0.9026
36762SOL    HW222266  13.724   0.210  13.251  1.7026 -0.7996  0.3876
36763SOL     OW22267   3.513  12.930  12.241  0.1510 -0.4745 -0.7924
36763SOL    HW122268   3.497  13.022  12.263  0.6470 -0.1935 -1.5579
36763SOL    HW222269   3.544  12.891  12.323 -1.0188 -0.2085 -0.2052
36764SOL     OW22270  10.408   6.093   8.884  0.5390  0.3305 -0.6239
36764SOL    HW122271  10.389   6.030   8.814 -1.6033  0.4088 -0.1795
36764SOL    HW222272  10.393   6.179   8.843 -1.1682  0.3651 -0.0136
36765SOL     OW22273  10.967  13.421   7.664  0.0866 -0.0966  0.0554
36765SOL    HW122274  11.046  13.471   7.643  0.9878 -0.6950  1.8053
36765SOL    HW222275  10.900  13.488   7.678  0.6687  0.5024  0.0323
36766SOL     OW22276   5.668  10.754   1.563  0.1409  0.0844 -0.6933
36766SOL    HW122277   5.640  10.805   1.488 -1.5184  2.2397  1.2435
36766SOL    HW222278   5.612  10.676   1.562 -0.2240  0.3481 -1.3735
36767SOL     OW22279  12.582  11.984  13.666  0.2590 -0.5380  0.0013
36767SOL    HW122280  12.534  12.053  13.711  2.9421  0.5261  1.4916
36767SOL    HW222281  12.585  12.012  13.574  0.0039  0.5585  0.3099
36768SOL     OW22282  13.991   6.656   8.504 -0.4411 -0.3042 -0.0479
36768SOL    HW122283  14.010   6.740   8.547  1.3293 -1.0111  0.6121
36768SOL    HW222284  14.015   6.590   8.568 -1.6263 -1.3492 -0.6431
36769SOL     OW22285   8.184  13.510   9.334 -0.2900  0.0505 -0.3103
36769SOL    HW122286   8.179  13.504   9.430  0.1438  2.6253 -0.0601
36769SOL    HW222287   8.105  13.556   9.308  0.7732  1.6498 -0.8790
36770SOL     OW22288  14.002   5.149   1.429  0.2156  0.1678  0.0098
36770SOL    HW122289  14.072   5.207   1.459 -0.0093 -0.6845  2.3892
36770SOL    HW222290  14.012   5.070   1.483 -0.5599 -1.3204 -1.9242
36771SOL     OW22291   3.859   3.797   9.450 -0.1759 -0.4376 -0.2178
36771SOL    HW122292   3.891   3.709   9.468 -2.6907 -1.6482 -1.3100
36771SOL    HW222293   3.805   3.819   9.527  2.1846  1.1772  1.1324
36772SOL     OW22294   0.478  12.646   1.564  0.2956 -0.2808 -0.6815
36772SOL    HW122295   0.558  12.615   1.607 -1.3392 -2.1759  1.1975
36772SOL    HW222296   0.449  12.720   1.617  0.6084  0.1943 -1.1659
36773SOL     OW22297  13.785   4.285   7.760 -0.4089  0.0900 -0.4009
36773SOL    HW122298  13.864   4.322   7.719 -1.1302  1.9434 -0.2029
36773SOL    HW222299  13.817   4.248   7.842 -0.0700  3.5015  1.1843
36774SOL     OW22300   9.634   6.755   9.550 -0.0782  0.0944 -0.0509
36774SOL    HW122301   9.639   6.848   9.570  0.1852  0.0979 -0.1268
36774SOL    HW222302   9.576   6.749   9.475 -0.0460  0.2016 -0.0834
36775SOL     OW22303   5.198  10.536   7.032 -0.3028  0.3230  0.6464
36775SOL    HW122304   5.264  10.530   7.101 -0.0187  0.1973  0.3726
36775SOL    HW222305   5.142  10.608   7.058  2.2241  3.1191 -1.0143
36776SOL     OW22306   7.557   3.765   1.983 -0.2490  0.1890  0.2352
36776SOL    HW122307   7.643   3.773   1.942 -0.7863 -1.6469 -1.3807
36776SOL    HW222308   7.509   3.842   1.953  0.1578  0.1228 -0.6132
36777SOL     OW22309   3.967   7.353   0.030 -0.0252  0.3180 -0.2025
36777SOL    HW122310   4.045   7.300   0.011  0.7284  0.8567  1.2442
36777SOL    HW222311   3.957   7.410  -0.047  0.7223 -0.0850 -0.6111
36778SOL     OW22312  12.455  10.425  11.876 -0.5121 -0.0025 -0.0724
36778SOL    HW122313  12.425  10.397  11.962  0.8938  1.7043  1.0440
36778SOL    HW222314  12.378  10.466  11.836 -0.9526 -0.0054  0.7433
36779SOL     OW22315   6.557   1.799  12.521  0.0056 -0.6486  0.3502
36779SOL    HW122316   6.605   1.817  12.602 -2.2912 -1.0320  1.8892
36779SOL    HW222317   6.595   1.859  12.457  0.9201  0.7168  2.0781
36780SOL     OW22318   1.382  12.316   2.633  0.7268 -0.3705 -0.4242
36780SOL    HW122319   1.473  12.287   2.631  0.6238 -0.9516  1.2513
36780SOL    HW222320   1.332  12.237   2.654 -0.0790  0.1024 -0.4910
36781SOL     OW22321   1.952   1.099  12.378 -0.4278 -0.0482  0.0036
36781SOL    HW122322   2.035   1.056  12.357 -0.5924 -0.1695 -0.4169
36781SOL    HW222323   1.970   1.148  12.458  0.2408  0.4786 -0.4557
36782SOL     OW22324   0.200  13.888  10.787  0.3761 -0.1488 -0.0524
36782SOL    HW122325   0.234  13.833  10.715  2.0765 -0.4854  0.9517
36782SOL    HW222326   0.250  13.860  10.864 -1.1290  0.4830  1.1960
36783SOL     OW22327   4.290   6.956   8.739 -0.7995  0.1278 -0.6050
36783SOL    HW122328   4.231   6.995   8.675 -0.2347  1.2688 -0.4460
36783SOL    HW222329   4.377   6.969   8.703 -0.5564 -0.3538 -0.2006
36784SOL     OW22330  12.013   6.467   2.958 -0.5286  0.0420  0.0636
36784SOL    HW122331  11.959   6.540   2.928 -0.6365  0.6111  1.5449
36784SOL    HW222332  12.101   6.487   2.926 -0.8052  0.1432 -0.6455
36785SOL     OW22333   5.880  13.264   1.620  0.4137  0.2724  0.3804
36785SOL    HW122334   5.907  13.288   1.532  0.1681  0.1614  0.2727
36785SOL    HW222335   5.787  13.243   1.611  0.6434 -0.8287  0.4447
36786SOL     OW22336   3.571  10.791  13.674 -0.4926 -0.7567 -0.4014
36786SOL    HW122337   3.522  10.786  13.591  0.7402 -2.0261 -1.1052
36786SOL    HW222338   3.617  10.707  13.679  0.4844 -0.1748  0.9330
36787SOL     OW22339  12.997   8.985  13.886  0.1534  0.4754  0.2028
36787SOL    HW122340  13.069   9.011  13.830  1.4445 -0.0173  1.5557
36787SOL    HW222341  12.934   9.057  13.880  1.0060  1.1746 -0.5725
36788SOL     OW22342  11.257   0.923   6.810 -0.0456  0.3217 -0.3006
36788SOL    HW122343  11.350   0.944   6.806  0.0111  0.1855  0.2812
36788SOL    HW222344  11.231   0.914   6.718  0.3905  0.8905 -0.4899
36789SOL     OW22345   4.152   7.848   0.767 -0.4438 -0.1905  0.2361
36789SOL    HW122346   4.234   7.807   0.796 -0.4807 -0.6214 -0.2428
36789SOL    HW222347   4.166   7.865   0.674 -1.0376 -0.6208  0.0619
36790SOL     OW22348   6.094   2.029  13.866  0.2879  0.2331  0.8450
36790SOL    HW122349   6.005   2.037  13.830  0.5482 -0.2641  0.0650
36790SOL    HW222350   6.151   2.035  13.789  0.8528 -1.1177  1.1414
36791SOL     OW22351   3.778   1.473   0.293 -0.3920  0.6531 -0.4036
36791SOL    HW122352   3.697   1.462   0.244  0.3003 -1.3205 -1.2050
36791SOL    HW222353   3.777   1.401   0.357  1.5501 -0.6535 -1.7093
36792SOL     OW22354   7.407   4.982   6.334  0.1256  0.0471 -0.5460
36792SOL    HW122355   7.494   4.944   6.341 -0.6679 -1.9748 -1.0641
36792SOL    HW222356   7.408   5.030   6.251  1.5363  2.3918  0.7113
36793SOL     OW22357  10.649   5.577   6.532 -0.5644 -0.1246  0.2680
36793SOL    HW122358  10.596   5.527   6.470  0.4163 -0.2285 -0.5277
36793SOL    HW222359  10.734   5.532   6.532  0.0537  0.9963  0.2344
36794SOL     OW22360   6.715   6.165  11.189 -0.2135  0.5384  0.1169
36794SOL    HW122361   6.644   6.130  11.137 -1.3823  1.2059  1.2139
36794SOL    HW222362   6.693   6.142  11.280  1.0784  0.5625  0.4595
36795SOL     OW22363   0.727   6.533  10.273  0.3634  0.1062  1.1402
36795SOL    HW122364   0.713   6.463  10.336  0.6998 -0.6154  0.4291
36795SOL    HW222365   0.744   6.611  10.327 -2.6441  0.2952  2.0029
36796SOL     OW22366   3.051   1.956  10.607  0.2332  0.2911 -0.0321
36796SOL    HW122367   3.141   1.944  10.576  0.1639 -0.4959  0.0514
36796SOL    HW222368   3.006   1.875  10.581  0.3762 -0.8014  2.8163
36797SOL     OW22369   4.742   3.823  12.795 -0.1388  0.3942  0.1033
36797SOL    HW122370   4.738   3.889  12.725  0.8671  0.7391  0.3591
36797SOL    HW222371   4.746   3.739  12.748 -0.8991  0.5339 -0.2307
36798SOL     OW22372   2.697  10.596   8.783 -0.2034 -0.4155 -0.1987
36798SOL    HW122373   2.624  10.626   8.837 -0.6540 -3.2740  0.9625
36798SOL    HW222374   2.663  10.518   8.740  1.3415 -0.2321 -1.8209
36799SOL     OW22375   4.433  11.858  13.608  0.5776 -0.1688  0.1241
36799SOL    HW122376   4.388  11.892  13.531  0.1377  0.8232  0.7907
36799SOL    HW222377   4.365  11.855  13.675  1.4441  1.2148  1.1149
36800SOL     OW22378  13.719  11.711   0.881 -0.1115  0.1999 -0.1108
36800SOL    HW122379  13.696  11.774   0.950 -0.7210 -0.8361  0.6591
36800SOL    HW222380  13.805  11.740   0.850 -0.1009  1.0410  0.6594
36801SOL     OW22381  10.006   3.182  13.840 -1.0790 -0.2467  0.7992
36801SOL    HW122382  10.070   3.233  13.889 -1.2221  0.8079 -0.0701
36801SOL    HW222383   9.963   3.128  13.906 -2.7692  2.6610  2.3140
36802SOL     OW22384   6.103   5.524   6.296  0.5142  0.0761 -0.1199
36802SOL    HW122385   6.157   5.446   6.289  1.2560  0.6303 -0.7198
36802SOL    HW222386   6.158   5.588   6.342  0.4092  0.6667 -0.7863
36803SOL     OW22387   3.391   5.050   1.542 -0.1637  0.0781 -0.1441
36803SOL    HW122388   3.426   5.060   1.630  1.6095  0.2034 -0.8198
36803SOL    HW222389   3.297   5.036   1.555 -0.1124  1.1416  1.6840
36804SOL     OW22390  11.471  10.939   0.380 -0.0283 -0.1533 -0.6300
36804SOL    HW122391  11.504  11.002   0.315 -1.6357  2.1691  0.6247
36804SOL    HW222392  11.422  10.875   0.328 -1.2694  1.6443 -1.7932
36805SOL     OW22393   8.792   1.458  10.262  0.3909 -0.5197 -0.1218
36805SOL    HW122394   8.701   1.480  10.282  0.5882 -0.6106  0.8999
36805SOL    HW222395   8.822   1.532  10.208 -0.2712 -0.4792 -0.4550
36806SOL     OW22396   0.405  11.303   0.776  0.1019 -0.5456  0.3978
36806SOL    HW122397   0.392  11.209   0.763  1.4773 -0.5144 -1.5209
36806SOL    HW222398   0.490  11.322   0.736  0.2789  1.3800  1.5476
36807SOL     OW22399  13.686   1.687   9.685 -0.2329  0.0614  0.0796
36807SOL    HW122400  13.622   1.648   9.625  2.2593 -0.9997 -2.0837
36807SOL    HW222401  13.679   1.635   9.765 -2.4548  0.4092  0.1751
36808SOL     OW22402   0.466   1.311  13.469 -0.1143 -0.3998  0.0415
36808SOL    HW122403   0.415   1.290  13.391 -1.5298 -0.7879  1.0262
36808SOL    HW222404   0.553   1.330  13.436 -0.4084 -1.5507 -1.5296
36809SOL     OW22405   4.411   6.324   2.547  0.2388  0.0419 -0.0455
36809SOL    HW122406   4.410   6.235   2.513  0.6811 -0.6136  1.5383
36809SOL    HW222407   4.339   6.368   2.502  1.3647 -0.4437 -2.4450
36810SOL     OW22408  12.782  11.723  11.630 -0.1417  0.0159  0.4430
36810SOL    HW122409  12.730  11.803  11.622 -1.3022 -0.7701 -0.1797
36810SOL    HW222410  12.834  11.720  11.550 -0.6816 -0.2368  0.0935
36811SOL     OW22411   1.938   1.510  10.844  0.0389 -0.3090 -0.0192
36811SOL    HW122412   1.900   1.436  10.891  0.0463 -0.5878 -0.4457
36811SOL    HW222413   1.924   1.490  10.752  1.8317 -0.7727 -0.2304
36812SOL     OW22414   2.415   9.910  11.150 -0.6841 -0.1431 -0.4286
36812SOL    HW122415   2.359   9.986  11.164  0.7221  0.8774 -0.1048
36812SOL    HW222416   2.376   9.866  11.074 -0.9411  1.4917 -1.3047
36813SOL     OW22417   8.207   4.089   1.213  0.1999 -0.7205  0.2220
36813SOL    HW122418   8.279   4.101   1.275 -0.8734 -0.5358  1.4761
36813SOL    HW222419   8.227   4.007   1.168  2.8485  0.8926 -1.8177
36814SOL     OW22420   7.096   2.099   6.633  0.0040 -0.9131  0.3628
36814SOL    HW122421   7.082   2.011   6.598  0.4968 -0.9422  0.2356
36814SOL    HW222422   7.190   2.105   6.647 -0.0678 -0.5348  0.7228
36815SOL     OW22423   5.399   4.587   3.502  0.3566  0.2981 -0.4612
36815SOL    HW122424   5.368   4.623   3.585 -1.2216 -1.2387 -0.3247
36815SOL    HW222425   5.493   4.579   3.513  0.3903  1.6982  0.5345
36816SOL     OW22426  12.985   4.253  13.137  0.5844  0.5693 -0.2602
36816SOL    HW122427  12.977   4.251  13.232 -0.0450 -0.2380 -0.3313
36816SOL    HW222428  13.043   4.180  13.116  0.0811  0.2599 -0.5667
36817SOL     OW22429  13.236  12.136  11.971 -0.6574  0.7048 -0.1958
36817SOL    HW122430  13.258  12.216  12.018 -0.9187  1.1242 -0.7836
36817SOL    HW222431  13.321  12.097  11.951 -0.5417 -0.3364  2.0363
36818SOL     OW22432   4.050   6.079  10.347  0.2369 -0.3338 -0.1185
36818SOL    HW122433   4.027   6.111  10.434 -0.5533  0.2156 -0.5117
36818SOL    HW222434   4.141   6.107  10.334 -0.2346  1.2583 -0.2072
36819SOL     OW22435   1.098   5.357   2.497  0.0776  0.8446 -0.1315
36819SOL    HW122436   1.014   5.402   2.494 -0.9661 -1.0668 -0.5286
36819SOL    HW222437   1.160   5.425   2.524 -1.5297  2.3436 -0.0489
36820SOL     OW22438  13.131   4.962   5.399 -0.2423  0.0104  0.0273
36820SOL    HW122439  13.214   5.005   5.380 -0.3115  0.3033  0.3917
36820SOL    HW222440  13.148   4.909   5.477 -0.4258  0.1558  0.1671
36821SOL     OW22441   6.624  10.520   2.050  0.0524 -0.1348 -0.2923
36821SOL    HW122442   6.549  10.502   2.106 -0.3586 -0.1923 -0.8571
36821SOL    HW222443   6.664  10.434   2.034  0.0555 -0.1413 -0.2514
36822SOL     OW22444   8.622   6.908  13.128 -0.0053  0.2008 -0.3643
36822SOL    HW122445   8.564   6.984  13.134 -0.7718 -0.3359 -0.8862
36822SOL    HW222446   8.583   6.853  13.061  1.7819  0.4031 -1.6430
36823SOL     OW22447  10.369  13.752  12.930 -0.3188 -0.9941 -0.1336
36823SOL    HW122448  10.344  13.661  12.946 -1.5325 -0.6717 -0.1460
36823SOL    HW222449  10.410  13.780  13.012  0.5179 -1.6785 -0.2916
36824SOL     OW22450  12.476   0.857   1.725 -0.3505  0.5727 -0.2416
36824SOL    HW122451  12.436   0.940   1.699  0.6238  0.9144 -0.6919
36824SOL    HW222452  12.507   0.873   1.814  0.8549  1.0930 -0.7292
36825SOL     OW22453   1.430  11.048   7.138  0.6720  0.2476 -0.6587
36825SOL    HW122454   1.361  11.087   7.083  0.4237  0.7518 -0.0157
36825SOL    HW222455   1.403  11.070   7.228  0.9954 -0.6725 -0.3286
36826SOL     OW22456   3.587   9.827  10.451  0.1724  0.6082  0.6563
36826SOL    HW122457   3.548   9.740  10.438 -0.8826  0.8757  1.8048
36826SOL    HW222458   3.607   9.858  10.363 -2.8409  0.6923 -0.1101
36827SOL     OW22459   3.025  13.228   3.059  0.1687  0.4355  0.0402
36827SOL    HW122460   3.086  13.272   3.000 -0.7651  1.0241 -0.5029
36827SOL    HW222461   2.949  13.207   3.004 -0.3705  0.2514  0.8401
36828SOL     OW22462   6.048   0.729   2.629 -0.2557  0.1028  0.4326
36828SOL    HW122463   5.995   0.691   2.699  0.1364 -1.5040 -0.1081
36828SOL    HW222464   6.017   0.688   2.549 -0.0228  1.1766 -0.2391
36829SOL     OW22465   5.450   6.733  12.437  0.0051  0.4647 -0.4396
36829SOL    HW122466   5.454   6.639  12.454 -0.7922  0.3933 -0.6353
36829SOL    HW222467   5.418   6.740  12.347  0.8762  0.9117 -0.7225
36830SOL     OW22468   9.859   0.571  12.708 -0.1601  0.2573  0.1517
36830SOL    HW122469   9.926   0.568  12.776  0.7742 -1.1442 -0.7811
36830SOL    HW222470   9.909   0.578  12.626 -1.0677 -1.6359 -0.6215
36831SOL     OW22471   2.677   9.432  11.396 -0.2147 -0.0035 -0.7386
36831SOL    HW122472   2.617   9.363  11.425  1.4085 -1.6818 -1.1364
36831SOL    HW222473   2.757   9.385  11.371  0.6283  1.9556 -1.9796
36832SOL     OW22474   5.135   1.320   4.611  0.0166  0.5010  0.5659
36832SOL    HW122475   5.211   1.377   4.606  0.6422 -0.3105  0.6985
36832SOL    HW222476   5.167   1.233   4.586 -0.5903 -0.1093  1.7991
36833SOL     OW22477   2.841   6.981   7.846  0.2596 -0.5056  0.0356
36833SOL    HW122478   2.790   6.914   7.891 -2.1912  0.7535 -0.6680
36833SOL    HW222479   2.851   6.947   7.757  1.6421 -1.2140  0.4304
36834SOL     OW22480  12.009   7.705   0.092  0.2205 -0.8323 -0.5621
36834SOL    HW122481  12.097   7.669   0.078  1.6005  2.2863 -0.9968
36834SOL    HW222482  12.002   7.774   0.025 -2.3790 -0.6435 -0.1803
36835SOL     OW22483   5.053  11.438   7.339  0.6380 -0.0205 -0.4351
36835SOL    HW122484   5.099  11.367   7.294  1.7675 -1.8000  3.1466
36835SOL    HW222485   5.115  11.511   7.340  0.7626 -0.1068 -1.3218
36836SOL     OW22486   5.398   3.563  10.972  0.0020  0.0695  0.1108
36836SOL    HW122487   5.438   3.507  10.906  0.2640 -0.1061  0.4144
36836SOL    HW222488   5.314   3.521  10.991 -0.0412  0.0798 -0.0592
36837SOL     OW22489  10.287   1.129   9.381 -0.0969  0.4337 -0.0627
36837SOL    HW122490  10.211   1.150   9.437  1.0345 -0.2322  1.8328
36837SOL    HW222491  10.260   1.051   9.333 -1.0240  0.8754 -0.2757
36838SOL     OW22492   9.732   6.124  11.528  0.8320  0.8722  0.0013
36838SOL    HW122493   9.827   6.111  11.527  0.8726  0.5070  2.5903
36838SOL    HW222494   9.699   6.058  11.467  2.2181  1.0185 -0.9601
36839SOL     OW22495  11.395   8.460   0.961 -0.1288  0.3499  0.9896
36839SOL    HW122496  11.483   8.452   0.924  0.0912  0.3365  1.5009
36839SOL    HW222497  11.397   8.405   1.039 -0.3345  0.9967  1.4627
36840SOL     OW22498   7.598   2.359  13.853 -0.2769  0.0293 -0.1629
36840SOL    HW122499   7.656   2.298  13.898 -0.4745  0.6048  0.9148
36840SOL    HW222500   7.510   2.333  13.880 -0.4421 -0.0159 -0.7337
36841SOL     OW22501   8.123   0.800  10.973 -0.1216  0.3100 -0.4414
36841SOL    HW122502   8.092   0.711  10.956  1.4584 -0.5532  0.8687
36841SOL    HW222503   8.046   0.855  10.961 -1.0979 -1.2021 -1.4739
36842SOL     OW22504   7.040   1.822  13.312  0.0298  0.2030 -0.1375
36842SOL    HW122505   6.975   1.817  13.242  0.9360  2.6755 -1.2635
36842SOL    HW222506   7.002   1.882  13.376  0.0945 -0.4181  0.4940
36843SOL     OW22507  13.150   1.884   3.229 -0.0003  0.8419 -0.3514
36843SOL    HW122508  13.136   1.864   3.321  1.3937  0.9441 -0.0961
36843SOL    HW222509  13.194   1.969   3.230  0.0651  0.8211 -1.1091
36844SOL     OW22510   6.270   3.417   6.534  0.0840  0.3947  0.4273
36844SOL    HW122511   6.285   3.479   6.462  0.4041 -0.1889 -0.0149
36844SOL    HW222512   6.320   3.340   6.510 -0.9400 -0.3394  0.5770
36845SOL     OW22513   2.324   5.735   5.663 -0.0081 -0.4205  0.3603
36845SOL    HW122514   2.306   5.648   5.698  0.7352 -0.7688 -0.0851
36845SOL    HW222515   2.271   5.794   5.717 -0.5001 -1.1399  0.6847
36846SOL     OW22516   0.034  13.142  11.796 -0.2091 -1.1516  0.2803
36846SOL    HW122517  -0.049  13.103  11.771 -0.7819 -0.7288  1.4460
36846SOL    HW222518   0.020  13.237  11.788 -0.9062 -0.8841  3.3491
36847SOL     OW22519   9.844   4.555   7.641 -0.1192  0.5290 -0.1962
36847SOL    HW122520   9.766   4.516   7.601 -0.9487  2.3733 -0.4713
36847SOL    HW222521   9.888   4.481   7.684 -1.7174 -0.6544 -0.4910
36848SOL     OW22522  13.475  10.331  12.503  0.2918 -0.4802 -0.3704
36848SOL    HW122523  13.418  10.365  12.571  1.0394 -0.0199  0.0425
36848SOL    HW222524  13.469  10.396  12.432 -0.9558 -1.2625 -1.0245
36849SOL     OW22525  10.253   8.506  13.344 -0.0900  0.3318  0.1653
36849SOL    HW122526  10.344   8.529  13.361 -0.4323 -0.0989  3.0365
36849SOL    HW222527  10.238   8.426  13.395 -1.3471 -1.3041 -2.4955
36850SOL     OW22528   1.521   8.988   0.040 -0.5512 -0.2847 -0.2408
36850SOL    HW122529   1.597   9.033   0.077 -2.0131  1.6502  0.6358
36850SOL    HW222530   1.459   8.983   0.113 -1.6442 -0.8839 -1.1778
36851SOL     OW22531   6.765   8.748   4.768  0.4466 -0.3944  0.0870
36851SOL    HW122532   6.810   8.797   4.700 -0.8825 -0.2875 -0.7411
36851SOL    HW222533   6.804   8.661   4.764  1.3449 -0.0152  0.1550
36852SOL     OW22534   8.363   4.042  13.300  0.4688  0.2941  0.1946
36852SOL    HW122535   8.443   4.054  13.249 -0.5155  1.3159 -1.1869
36852SOL    HW222536   8.360   3.948  13.319  1.5747  0.1219 -0.4258
36853SOL     OW22537   3.030   3.457   0.510 -0.2515 -0.0058  0.4656
36853SOL    HW122538   3.120   3.485   0.525 -0.0652 -0.7137  0.6676
36853SOL    HW222539   2.994   3.522   0.450  1.2015 -1.1982 -1.7869
36854SOL     OW22540  10.524   9.581  10.599  0.2982 -0.1107 -0.0267
36854SOL    HW122541  10.532   9.674  10.577 -0.8119  0.1480  0.5322
36854SOL    HW222542  10.587   9.537  10.543  1.6084  1.0813  0.4407
36855SOL     OW22543  13.774   8.063   3.794  0.5119 -0.1896  0.4261
36855SOL    HW122544  13.762   7.991   3.732 -1.1952  0.3407  0.0811
36855SOL    HW222545  13.786   8.141   3.740  3.9197 -0.3304  0.7753
36856SOL     OW22546   7.702   1.978   6.241 -0.1275  0.3895  0.8140
36856SOL    HW122547   7.734   1.888   6.243  2.2906  1.1577  0.2021
36856SOL    HW222548   7.749   2.021   6.313  0.1150  1.5388 -0.0043
36857SOL     OW22549  11.254   5.464  13.335 -0.1820  0.0523 -0.1566
36857SOL    HW122550  11.171   5.427  13.367  0.6517 -1.6342  0.1591
36857SOL    HW222551  11.269   5.540  13.392 -0.7193 -0.5517  0.8187
36858SOL     OW22552   7.579   7.065   0.608 -0.4521  0.1145  0.0759
36858SOL    HW122553   7.524   7.011   0.551  0.1276 -0.0269 -0.3472
36858SOL    HW222554   7.668   7.040   0.587 -0.1633  1.3851 -0.2813
36859SOL     OW22555  13.900   7.135   1.068  0.4924 -0.5344 -0.0397
36859SOL    HW122556  13.837   7.196   1.108  0.1885 -1.6012  1.2035
36859SOL    HW222557  13.938   7.089   1.143  0.7636 -1.8138 -0.9400
36860SOL     OW22558  13.702   0.121   3.918 -0.0960 -0.2651 -0.0221
36860SOL    HW122559  13.768   0.069   3.873  0.3598  0.2508  0.0323
36860SOL    HW222560  13.648   0.057   3.965 -0.3116 -0.7768 -0.9360
36861SOL     OW22561   8.927   2.856  11.267 -0.0155  0.4008 -0.4102
36861SOL    HW122562   8.910   2.923  11.201  1.4837  0.2999 -0.9394
36861SOL    HW222563   8.914   2.901  11.351  0.0329  1.0852 -0.7665
36862SOL     OW22564   2.317   5.988   6.118 -0.0596  0.4046  0.5163
36862SOL    HW122565   2.344   5.906   6.158  1.2648 -0.3211 -1.7123
36862SOL    HW222566   2.222   5.981   6.108  0.1097 -1.1176 -0.1691
36863SOL     OW22567  12.997   3.719   1.582  0.0718  0.0628 -0.1154
36863SOL    HW122568  12.959   3.686   1.501  0.3570 -0.2962 -0.1082
36863SOL    HW222569  13.039   3.801   1.557 -1.3011  0.8322  0.0244
36864SOL     OW22570   1.613   9.284  11.797 -0.1692  0.4818  0.0972
36864SOL    HW122571   1.692   9.233  11.816 -0.1430  1.4493  3.1199
36864SOL    HW222572   1.542   9.220  11.800  0.1254  0.1914  1.2968
36865SOL     OW22573   0.818   8.334   3.075 -0.4158  0.2736 -0.6240
36865SOL    HW122574   0.910   8.329   3.099 -0.1399 -0.1498 -1.7121
36865SOL    HW222575   0.810   8.418   3.029 -0.5312  0.2250 -0.6938
36866SOL     OW22576   2.305  12.042  10.517  0.1889  0.6166  0.6254
36866SOL    HW122577   2.333  12.062  10.427  0.2547  0.5892  0.6405
36866SOL    HW222578   2.289  11.948  10.517  1.0651  0.4640  0.8909
36867SOL     OW22579   7.467  10.144   5.880  0.4866 -0.1839 -0.9130
36867SOL    HW122580   7.469  10.237   5.860 -0.2523 -0.0186 -0.2356
36867SOL    HW222581   7.386  10.131   5.928  1.0572 -1.0056 -0.1405
36868SOL     OW22582  12.463   4.801   5.164  0.0037  0.4071  0.0873
36868SOL    HW122583  12.444   4.811   5.257 -0.1106  2.2970 -0.1079
36868SOL    HW222584  12.529   4.731   5.161 -1.6802 -1.3285  1.3462
36869SOL     OW22585   6.384   2.026   9.680  0.1674  0.3278  0.2182
36869SOL    HW122586   6.393   1.962   9.610 -0.6837 -0.2521  0.6175
36869SOL    HW222587   6.333   2.097   9.642  1.2477  0.8617 -0.2729
36870SOL     OW22588  10.012   5.731   7.742  0.0475 -0.4958  0.3501
36870SOL    HW122589  10.065   5.707   7.818  0.4879  1.1308  0.5929
36870SOL    HW222590  10.068   5.716   7.666 -0.1337 -1.4137  0.3890
36871SOL     OW22591  12.853   2.598   8.999 -0.4108 -0.2398  0.0061
36871SOL    HW122592  12.835   2.532   8.933  0.5001 -1.6312  1.0876
36871SOL    HW222593  12.813   2.564   9.079  1.9893 -0.6493  1.1188
36872SOL     OW22594  13.777   6.073   0.298  0.2622  0.1524  0.8238
36872SOL    HW122595  13.825   6.149   0.265 -0.8399 -0.3694 -2.3150
36872SOL    HW222596  13.693   6.109   0.328 -0.4378  0.2286 -1.0707
36873SOL     OW22597  10.007   5.120  13.182  0.4912 -0.6648  0.2203
36873SOL    HW122598   9.968   5.033  13.184 -0.6019 -0.2027 -0.2382
36873SOL    HW222599   9.948   5.172  13.128  0.8864  0.4740  0.8406
36874SOL     OW22600   0.784   7.280   7.470  0.1267 -0.0979 -0.0781
36874SOL    HW122601   0.758   7.190   7.452 -0.0456 -0.4495  1.6767
36874SOL    HW222602   0.706   7.321   7.507  0.4190  0.5447 -0.1513
36875SOL     OW22603   2.154   5.616  11.655 -0.8275 -0.1327  0.0936
36875SOL    HW122604   2.126   5.633  11.566 -0.3471 -0.3601 -0.1041
36875SOL    HW222605   2.202   5.533  11.650  0.8575  0.7748  0.2077
36876SOL     OW22606   8.061   8.086  13.563  0.6649  0.3406  0.0323
36876SOL    HW122607   8.131   8.025  13.586  0.8740  0.0526 -1.2895
36876SOL    HW222608   8.067   8.094  13.468 -1.3276  0.0293 -0.1482
36877SOL     OW22609   2.504   6.610   5.417  0.2798 -0.0185 -0.1759
36877SOL    HW122610   2.526   6.637   5.328 -1.9396  0.2389 -0.7063
36877SOL    HW222611   2.491   6.692   5.464  0.7800 -0.1617  0.2260
36878SOL     OW22612   7.294   3.197   1.928  0.7209 -0.4173  0.4703
36878SOL    HW122613   7.210   3.224   1.965  2.0646 -1.2025  4.6828
36878SOL    HW222614   7.336   3.279   1.901 -1.0958  0.0230 -1.2067
36879SOL     OW22615   8.563   6.675   7.512  0.1018  0.1108 -0.6475
36879SOL    HW122616   8.653   6.641   7.507 -0.0493 -0.3167 -0.5396
36879SOL    HW222617   8.509   6.596   7.523 -0.1675  0.4780  0.7701
36880SOL     OW22618   4.106   2.693   4.070  0.8685 -0.6151  0.0579
36880SOL    HW122619   4.026   2.642   4.077  0.1533  0.2910 -1.1425
36880SOL    HW222620   4.121   2.725   4.159 -0.7325  0.1108  0.1026
36881SOL     OW22621  11.536  12.654  11.751 -0.4350 -0.0076 -0.2377
36881SOL    HW122622  11.585  12.723  11.705 -1.1734  1.3176  0.9119
36881SOL    HW222623  11.445  12.668  11.724 -0.7834  0.3752  1.0906
36882SOL     OW22624   4.150  12.868  12.063 -0.1798  0.1368  0.0026
36882SOL    HW122625   4.107  12.951  12.041 -3.4805 -1.1820  0.8017
36882SOL    HW222626   4.126  12.809  11.992  1.3527 -0.4015 -0.0930
36883SOL     OW22627   3.911   3.071   0.476 -0.0751  0.0203  0.8816
36883SOL    HW122628   3.981   3.008   0.459  1.4394  1.5698  1.0805
36883SOL    HW222629   3.923   3.140   0.410 -2.2380 -0.2565  0.0904
36884SOL     OW22630   9.949   7.465  12.457 -0.3361 -0.0161  0.1162
36884SOL    HW122631  10.031   7.499  12.493  0.1687  0.4127 -1.3666
36884SOL    HW222632   9.891   7.541  12.451 -0.8057 -0.2913  1.0270
36885SOL     OW22633   5.968   4.370  12.926  0.1208 -0.1502  0.0215
36885SOL    HW122634   5.909   4.338  12.994  1.2836 -1.2055  0.5824
36885SOL    HW222635   5.983   4.462  12.948 -1.4731  0.2018 -0.2737
36886SOL     OW22636   4.376   3.106   1.847 -0.6727  0.4926  0.1210
36886SOL    HW122637   4.412   3.025   1.811  0.8831  2.0481 -2.2135
36886SOL    HW222638   4.281   3.095   1.843 -0.5277 -1.7619  1.4185
36887SOL     OW22639   0.489   0.275  13.232  0.2458  0.3801 -0.3801
36887SOL    HW122640   0.510   0.293  13.141 -2.3598  1.0497 -0.9093
36887SOL    HW222641   0.396   0.254  13.233  0.0924  0.7748  2.1831
36888SOL     OW22642   9.880   1.281   8.143  0.4777 -0.1535  0.0243
36888SOL    HW122643   9.930   1.200   8.147  1.0596  0.2204  0.4633
36888SOL    HW222644   9.799   1.262   8.191  0.3440 -0.6519 -0.3913
36889SOL     OW22645  10.539  12.836  10.966 -0.1014  0.0027 -0.4169
36889SOL    HW122646  10.616  12.891  10.976  0.0001 -0.4214  1.7459
36889SOL    HW222647  10.491  12.874  10.893  0.8954  1.7974 -0.1876
36890SOL     OW22648   3.382   6.725   4.233 -0.7839  0.1300 -0.0203
36890SOL    HW122649   3.305   6.737   4.178 -0.8366 -1.8060 -0.4159
36890SOL    HW222650   3.448   6.687   4.174  0.6711  2.1589  0.1851
36891SOL     OW22651  11.464   3.767   6.327  0.6345  0.5400 -0.5066
36891SOL    HW122652  11.546   3.775   6.279 -0.0506  1.3079 -1.5927
36891SOL    HW222653  11.431   3.680   6.305  0.2105  0.9725 -1.6597
36892SOL     OW22654   7.891   1.879  13.513  0.4183 -0.1696  0.2662
36892SOL    HW122655   7.834   1.941  13.468  1.5280  0.0928 -0.8447
36892SOL    HW222656   7.847   1.794  13.503  0.1308  0.0536 -0.4130
36893SOL     OW22657   2.636   1.929   3.542  0.3994 -0.1902 -0.1242
36893SOL    HW122658   2.564   1.960   3.487  0.2040  0.7397  0.6374
36893SOL    HW222659   2.707   1.912   3.480 -0.3556 -0.7858 -0.8427
36894SOL     OW22660   4.396   6.904   0.496 -0.0660 -0.3854  0.4527
36894SOL    HW122661   4.397   6.863   0.409  2.6537 -0.6934  0.5384
36894SOL    HW222662   4.332   6.853   0.546 -0.5329 -1.1957 -0.9103
36895SOL     OW22663   1.509   4.842   7.134  0.0550 -0.5590  0.4617
36895SOL    HW122664   1.556   4.791   7.200  1.0456  1.5597  1.5116
36895SOL    HW222665   1.556   4.825   7.053  2.7131  1.3083  1.4380
36896SOL     OW22666   0.303   8.056   0.463 -0.3066 -0.0798  0.6389
36896SOL    HW122667   0.385   8.007   0.459 -0.0279  0.3667  0.9496
36896SOL    HW222668   0.300   8.106   0.381 -1.7206 -2.3827 -0.8730
36897SOL     OW22669   8.246   3.246   8.029  0.5674  0.1567 -0.2927
36897SOL    HW122670   8.191   3.287   8.096 -1.4134 -2.4892 -0.1593
36897SOL    HW222671   8.241   3.305   7.954 -0.9831  0.8674  0.3385
36898SOL     OW22672  13.758   6.313  10.886 -0.4149  0.0894 -0.0942
36898SOL    HW122673  13.784   6.381  10.824 -1.0992  1.2561  0.8506
36898SOL    HW222674  13.665   6.329  10.901 -0.4841 -0.7880  0.4816
36899SOL     OW22675   3.013   2.882   0.758 -0.0691  0.2644 -0.1278
36899SOL    HW122676   2.939   2.894   0.698  0.5893  2.1979 -0.6234
36899SOL    HW222677   3.067   2.815   0.716  0.4217  1.6408 -1.7745
36900SOL     OW22678  11.737   4.862  11.835 -0.0245  0.3607  0.3094
36900SOL    HW122679  11.802   4.839  11.768 -0.3867 -1.7716  0.6070
36900SOL    HW222680  11.657   4.879  11.786 -0.0556 -0.2959  0.1183
36901SOL     OW22681   9.177  11.699   0.728 -0.0956  0.4601  0.2890
36901SOL    HW122682   9.186  11.619   0.676 -0.7590  0.6534 -0.1349
36901SOL    HW222683   9.267  11.727   0.745  0.1356 -0.1434  0.0813
36902SOL     OW22684   3.721   3.238  12.777  0.1345  0.5632 -0.2302
36902SOL    HW122685   3.779   3.300  12.823  1.7690 -1.7208  1.0243
36902SOL    HW222686   3.663   3.205  12.846  0.1055 -0.1908 -0.6188
36903SOL     OW22687   2.056   9.483   8.856 -0.4013 -0.1734  0.1710
36903SOL    HW122688   2.087   9.392   8.852  0.8847  0.1885  1.3086
36903SOL    HW222689   2.132   9.535   8.832 -1.6535  0.5961 -2.5063
36904SOL     OW22690   5.122   3.754  11.674  0.3609 -0.5383 -0.3196
36904SOL    HW122691   5.161   3.725  11.591  1.1748  0.2497 -0.2241
36904SOL    HW222692   5.187   3.813  11.711  0.9595 -2.4597  1.8851
36905SOL     OW22693   2.786  13.578   0.458  0.5101  0.2836  0.6120
36905SOL    HW122694   2.712  13.568   0.399  0.6636  0.7575  0.3386
36905SOL    HW222695   2.840  13.647   0.419  0.7435  0.4242  1.1627
36906SOL     OW22696  10.047   4.228  12.659 -0.2030 -0.4030  0.1731
36906SOL    HW122697  10.095   4.311  12.654 -1.0520  0.0702 -0.3897
36906SOL    HW222698  10.110   4.166  12.694  0.7412  0.2700 -0.2842
36907SOL     OW22699   1.023   3.985  10.147  0.1890 -0.3288  0.3403
36907SOL    HW122700   1.023   4.081  10.157  3.2246 -0.1508 -0.3984
36907SOL    HW222701   0.965   3.970  10.072 -1.8755  0.6717  1.6213
36908SOL     OW22702   6.010   6.284  13.090  0.3591  0.1855  0.3132
36908SOL    HW122703   6.072   6.332  13.036  0.0966 -0.6291 -0.7293
36908SOL    HW222704   5.950   6.352  13.123 -0.2081  0.5702 -1.4015
36909SOL     OW22705   7.477  10.142  13.074 -0.0550  0.6446 -0.1605
36909SOL    HW122706   7.564  10.102  13.061 -0.3802 -0.4379  0.7757
36909SOL    HW222707   7.419  10.067  13.089 -1.0730  1.3840 -0.3593
36910SOL     OW22708   5.945   0.211  13.111  0.2684 -0.0614  0.1646
36910SOL    HW122709   6.020   0.256  13.151  0.2457  0.4926 -0.3871
36910SOL    HW222710   5.938   0.251  13.024 -0.3388 -0.4908  0.0132
36911SOL     OW22711   0.911   8.425  11.359  0.3091 -0.4438  0.2583
36911SOL    HW122712   0.847   8.427  11.430  0.1639  1.2237  0.1324
36911SOL    HW222713   0.932   8.517  11.344  0.6638 -0.7809 -1.5639
36912SOL     OW22714  13.540   9.711   1.952 -0.5943  0.5504 -0.1719
36912SOL    HW122715  13.514   9.803   1.954  0.3804  0.9076 -1.7535
36912SOL    HW222716  13.469   9.666   1.907 -0.4512  0.7728 -0.6227
36913SOL     OW22717   3.479  10.104  11.497 -0.1486  0.4192 -0.1761
36913SOL    HW122718   3.533  10.026  11.508 -0.0591  0.4782 -0.1924
36913SOL    HW222719   3.435  10.092  11.414 -2.0575 -0.7647  0.9442
36914SOL     OW22720   7.348   1.756   4.713  0.0561  0.3316  0.4512
36914SOL    HW122721   7.261   1.788   4.690  0.1884  1.2407  1.1687
36914SOL    HW222722   7.399   1.765   4.633 -0.2404  0.7783  0.3069
36915SOL     OW22723   5.930   1.610   3.577  0.3250  0.0251 -0.0225
36915SOL    HW122724   5.932   1.514   3.571 -0.9534 -0.1498  1.6996
36915SOL    HW222725   5.874   1.636   3.504 -3.1045 -0.9563  2.0239
36916SOL     OW22726   7.194   3.050  13.905 -0.0962  0.9762  0.6064
36916SOL    HW122727   7.273   3.034  13.956  1.1285  0.7809 -1.2286
36916SOL    HW222728   7.224   3.050  13.814 -2.2803  0.5400 -0.1815
36917SOL     OW22729   6.386   2.151  10.201  0.6835 -0.8626  0.1985
36917SOL    HW122730   6.326   2.143  10.127 -0.0179  0.9822  0.5220
36917SOL    HW222731   6.446   2.076  10.192  0.3732 -0.9043 -1.9820
36918SOL     OW22732   8.459   4.212  10.400  0.7098  0.0229  0.2128
36918SOL    HW122733   8.478   4.277  10.468  2.1692  0.5982 -0.6854
36918SOL    HW222734   8.364   4.211  10.393  0.6393  1.7531  0.5797
36919SOL     OW22735   0.898  13.051  10.088  0.4267  0.4413  0.4406
36919SOL    HW122736   0.900  13.060   9.993 -0.1254 -0.4664  0.3274
36919SOL    HW222737   0.990  13.049  10.114  0.6065 -0.3583 -0.1987
36920SOL     OW22738   0.430   0.916  13.345  0.0037  0.5246 -0.1168
36920SOL    HW122739   0.412   0.830  13.308  5.4034 -0.3713 -1.5371
36920SOL    HW222740   0.391   0.978  13.283 -1.3740 -0.8406 -0.6839
36921SOL     OW22741   9.844   9.675   8.366  0.2776  0.4581  0.0477
36921SOL    HW122742   9.807   9.692   8.453  0.7883 -0.0832  0.3789
36921SOL    HW222743   9.771   9.639   8.316  0.3645 -0.7204  0.7357
36922SOL     OW22744   9.109   7.271   9.576  0.6237  0.0461  0.0560
36922SOL    HW122745   9.139   7.354   9.613 -0.9648  0.4004  0.6678
36922SOL    HW222746   9.188   7.222   9.556  1.5930  0.3795  2.7148
36923SOL     OW22747   4.715   4.649  13.978 -0.0119 -0.3456 -0.2147
36923SOL    HW122748   4.717   4.589  14.052 -0.8597  0.8307  0.8168
36923SOL    HW222749   4.790   4.707  13.993  0.5389 -0.8493 -0.9614
36924SOL     OW22750   3.856   6.651  12.902 -0.0182 -0.0208  0.0981
36924SOL    HW122751   3.855   6.646  12.998 -2.2189  1.2887  0.2075
36924SOL    HW222752   3.913   6.726  12.883  0.5607 -0.3875  0.3653
36925SOL     OW22753   6.495   8.387  13.550  0.3425  0.7464  0.0164
36925SOL    HW122754   6.440   8.454  13.509 -1.2178 -0.2788  0.3749
36925SOL    HW222755   6.547   8.352  13.477 -1.2608  0.0318 -0.8306
36926SOL     OW22756   3.124  12.876   1.135 -0.0864 -0.5793  0.4878
36926SOL    HW122757   3.119  12.925   1.217  1.5684 -1.7842  1.3587
36926SOL    HW222758   3.166  12.937   1.074  0.5784 -0.3866  1.1301
36927SOL     OW22759   1.687   5.787   4.326  0.0166 -0.1055  0.0374
36927SOL    HW122760   1.690   5.874   4.287  1.3400  0.1932  0.7473
36927SOL    HW222761   1.607   5.787   4.379 -0.4100  0.3919 -0.5961
36928SOL     OW22762   2.568   9.663   3.813  0.3704 -0.2019 -0.2578
36928SOL    HW122763   2.521   9.596   3.862 -0.1874 -0.6342 -1.3279
36928SOL    HW222764   2.583   9.623   3.727  1.2167  0.5583 -0.4771
36929SOL     OW22765   7.540   3.473  11.936  0.5635 -0.5400  0.3639
36929SOL    HW122766   7.588   3.548  11.900  0.2824 -0.4750  0.1200
36929SOL    HW222767   7.507   3.504  12.020 -0.0622 -0.1833 -0.0039
36930SOL     OW22768   3.971   5.416   4.306 -0.2389 -0.2660  0.0577
36930SOL    HW122769   3.946   5.346   4.367 -1.3945  0.2350  0.1867
36930SOL    HW222770   4.057   5.443   4.335 -0.7738 -0.0141  1.5076
36931SOL     OW22771   1.346   8.301   9.535  0.1063 -0.2945 -0.4493
36931SOL    HW122772   1.412   8.345   9.588  1.1065 -0.2108 -1.6988
36931SOL    HW222773   1.393   8.273   9.457 -1.1984 -0.8512 -1.0736
36932SOL     OW22774  12.983  11.238   0.747 -0.0520  0.2967  0.5804
36932SOL    HW122775  13.042  11.311   0.766  0.2161  0.1174  0.4442
36932SOL    HW222776  13.014  11.167   0.804 -1.4554  0.8450  2.0848
36933SOL     OW22777   1.257   6.807  11.080 -0.5807  0.5158  0.0373
36933SOL    HW122778   1.197   6.847  11.017  0.4264  0.3401 -1.0467
36933SOL    HW222779   1.320   6.876  11.100 -1.4673  0.9157  1.6818
36934SOL     OW22780   6.014   6.164   5.868 -0.4678  0.1400  0.1214
36934SOL    HW122781   5.997   6.166   5.962  0.6534 -1.4260  0.4086
36934SOL    HW222782   5.999   6.073   5.843 -0.7575  0.5353 -1.2310
36935SOL     OW22783   3.677   0.367  13.086 -0.0596 -0.1984  0.2102
36935SOL    HW122784   3.636   0.383  13.001  0.5983 -0.5955 -0.1916
36935SOL    HW222785   3.759   0.322  13.065  0.0077 -0.4956  1.0669
36936SOL     OW22786  12.371   5.108   7.941  0.0791 -0.3430 -0.5519
36936SOL    HW122787  12.446   5.049   7.940  0.5497  0.2421 -1.1753
36936SOL    HW222788  12.354   5.127   7.849 -0.7955 -0.4027 -0.4197
36937SOL     OW22789   1.168  13.136  10.189 -0.3849 -0.2323 -0.2144
36937SOL    HW122790   1.202  13.205  10.247 -1.8564  0.3972 -0.0542
36937SOL    HW222791   1.194  13.054  10.231 -0.1134  0.2258  0.5309
36938SOL     OW22792  13.690   0.993  13.710 -0.7341  0.3244 -0.4169
36938SOL    HW122793  13.667   1.081  13.739 -1.3302  0.0213  0.0458
36938SOL    HW222794  13.611   0.941  13.727 -0.0825 -0.4960  0.1713
36939SOL     OW22795  12.685  11.336   4.215  0.3210  0.1204  0.0146
36939SOL    HW122796  12.754  11.377   4.267  0.1880  1.0703 -0.5268
36939SOL    HW222797  12.720  11.250   4.191  1.3492  0.6152 -0.3062
36940SOL     OW22798  13.325   0.638   9.601  0.3577 -0.0185 -0.2167
36940SOL    HW122799  13.393   0.686   9.554 -0.1921  1.0039  0.0252
36940SOL    HW222800  13.254   0.627   9.537 -1.1088  2.8567  0.7728
36941SOL     OW22801   7.670   3.982  10.891 -0.1645 -0.5144 -0.2994
36941SOL    HW122802   7.620   4.033  10.955  0.5108  0.9697 -0.9179
36941SOL    HW222803   7.607   3.965  10.821 -0.2772 -0.1170 -0.3007
36942SOL     OW22804   0.576   1.897  13.836 -0.6938 -0.1411 -0.3307
36942SOL    HW122805   0.597   1.980  13.878 -3.0285  0.3787 -0.1029
36942SOL    HW222806   0.661   1.852  13.829  0.7626  2.5622 -1.2440
36943SOL     OW22807   9.931   1.477  10.116  0.0927 -0.2660 -0.6893
36943SOL    HW122808   9.877   1.462  10.194 -0.8062  4.0859 -0.2193
36943SOL    HW222809   9.868   1.497  10.047  0.9705  1.0114 -1.1513
36944SOL     OW22810   8.067   6.920   0.147 -0.4145 -0.7617 -0.4504
36944SOL    HW122811   8.072   6.899   0.054 -0.1380 -0.2896 -0.5473
36944SOL    HW222812   8.113   6.849   0.191  2.5790  0.7094 -0.9185
36945SOL     OW22813   9.772   8.717   1.050 -0.6242 -0.2578  0.1864
36945SOL    HW122814   9.785   8.643   0.991  3.7070 -0.0792  0.5945
36945SOL    HW222815   9.735   8.679   1.129 -0.9044 -1.5109 -0.5309
36946SOL     OW22816   3.860   6.875  11.130 -0.1945  0.1533 -1.0778
36946SOL    HW122817   3.818   6.918  11.056  1.0557 -1.4121 -2.7946
36946SOL    HW222818   3.880   6.787  11.098 -0.2428 -0.8220  1.3864
36947SOL     OW22819   0.462   5.258   7.337  0.4124  0.3535 -0.1660
36947SOL    HW122820   0.377   5.217   7.352 -0.1743  1.6789  0.3427
36947SOL    HW222821   0.453   5.301   7.252  0.3657  0.9471  0.1302
36948SOL     OW22822   4.766   2.160   9.512  0.7514  0.3884  0.0789
36948SOL    HW122823   4.847   2.120   9.544 -0.2511  0.2164  2.6423
36948SOL    HW222824   4.789   2.251   9.496  2.1586 -0.3118 -2.2567
36949SOL     OW22825   7.237  13.546  13.721 -0.4217 -0.1610  0.4144
36949SOL    HW122826   7.294  13.469  13.715 -2.0970 -1.5234  1.0248
36949SOL    HW222827   7.260  13.586  13.805 -0.7251 -1.0278  0.9263
36950SOL     OW22828   4.247   3.346   4.088 -0.3710 -0.3703 -0.0651
36950SOL    HW122829   4.324   3.334   4.143  0.5074  1.0331 -0.9206
36950SOL    HW222830   4.179   3.376   4.148  0.1664 -0.2155  0.4705
36951SOL     OW22831  11.297   7.084   0.508  0.5744 -0.2187 -0.2405
36951SOL    HW122832  11.228   7.021   0.526 -0.3524  0.6459 -0.6815
36951SOL    HW222833  11.343   7.094   0.592 -0.9237  0.4710  0.5512
36952SOL     OW22834   3.761   8.335  10.993 -0.8675 -0.0057 -0.2884
36952SOL    HW122835   3.687   8.298  10.943 -1.2293 -1.3378  1.1435
36952SOL    HW222836   3.827   8.354  10.926 -2.1894  0.4457 -1.5176
36953SOL     OW22837   5.974  13.775   8.782 -0.3249  0.0209 -0.1084
36953SOL    HW122838   6.007  13.685   8.793  1.0384  0.4593 -0.3698
36953SOL    HW222839   5.931  13.774   8.696 -2.4633 -0.9580  0.9010
36954SOL     OW22840   2.000   3.154  12.510  0.1152  0.1427 -0.4140
36954SOL    HW122841   2.039   3.238  12.534 -0.8251  0.5978 -0.4247
36954SOL    HW222842   1.965   3.169  12.422 -1.5865  0.2914  0.2585
36955SOL     OW22843  11.987  10.242  13.084  0.0925 -0.0964  0.4474
36955SOL    HW122844  11.951  10.190  13.012  0.1096  1.0472 -0.4165
36955SOL    HW222845  12.075  10.205  13.098 -0.5228 -1.4152  1.0416
36956SOL     OW22846   7.709   6.248  11.226 -0.4789 -0.3178  0.0878
36956SOL    HW122847   7.669   6.174  11.180  0.4706 -1.4064  0.9552
36956SOL    HW222848   7.783   6.273  11.170  0.0274 -0.9402  0.4635
36957SOL     OW22849  12.347   6.382   0.504  0.3241 -0.3894 -0.3693
36957SOL    HW122850  12.428   6.431   0.488 -0.3168  0.3626 -1.4719
36957SOL    HW222851  12.361   6.340   0.589  2.0432 -0.6402 -0.7291
36958SOL     OW22852  13.190   4.312   8.641  0.5871 -0.1942 -0.3393
36958SOL    HW122853  13.269   4.304   8.588  0.9368  2.0465 -0.2443
36958SOL    HW222854  13.222   4.316   8.731  0.3378  0.3361 -0.2731
36959SOL     OW22855   0.895  13.883   1.363  0.3525 -0.6134  0.4166
36959SOL    HW122856   0.906  13.905   1.455  1.0858  0.3327  0.1163
36959SOL    HW222857   0.839  13.952   1.328  2.0775  0.4496 -0.3716
36960SOL     OW22858   0.341   3.164   9.939  0.0492  0.2005  0.1851
36960SOL    HW122859   0.356   3.247   9.984 -1.9989  1.5882 -1.4761
36960SOL    HW222860   0.365   3.182   9.848  1.3912 -1.6610  0.1306
36961SOL     OW22861   5.019   9.339  13.894 -0.2083  0.3085 -0.6822
36961SOL    HW122862   5.065   9.313  13.974 -1.5249 -0.3666 -0.1159
36961SOL    HW222863   4.965   9.414  13.920  0.4458  1.0165 -1.3085
36962SOL     OW22864   8.852   0.202   2.397 -0.0466  0.3928 -0.2998
36962SOL    HW122865   8.889   0.180   2.482 -1.2993 -2.3389 -0.3432
36962SOL    HW222866   8.847   0.118   2.351 -0.2221  1.6597 -2.7458
36963SOL     OW22867   0.116   9.920   8.231  0.8048 -0.5361  0.2680
36963SOL    HW122868   0.091   9.906   8.322  0.2582  2.0894  0.5957
36963SOL    HW222869   0.210   9.904   8.229  1.2926  1.6100  1.8907
36964SOL     OW22870   5.571   6.057  13.711 -0.1368  0.4314  0.6766
36964SOL    HW122871   5.607   5.989  13.769 -2.2279 -0.6785  0.7691
36964SOL    HW222872   5.479   6.033  13.701  0.1742  0.3496 -3.4215
36965SOL     OW22873  11.599   0.303   5.168 -0.6623  0.4392  0.0750
36965SOL    HW122874  11.557   0.315   5.253 -0.6786  1.4024 -0.0624
36965SOL    HW222875  11.582   0.384   5.121  0.5444  0.4737 -0.3343
36966SOL     OW22876  12.333   7.600   9.502 -0.1659  0.0790  1.0962
36966SOL    HW122877  12.332   7.626   9.594 -0.7041  0.9640  0.8519
36966SOL    HW222878  12.412   7.547   9.492  1.4534  2.2943  1.4354
36967SOL     OW22879  10.788   4.992   4.292  0.0207 -0.2355  0.3311
36967SOL    HW122880  10.795   4.972   4.198 -1.2671 -0.9628  0.3722
36967SOL    HW222881  10.727   5.066   4.296  0.0041 -0.2630  0.6025
36968SOL     OW22882  12.868   2.582   4.906  0.5047  0.3857 -0.2699
36968SOL    HW122883  12.787   2.563   4.953  1.3607 -0.6291  0.8669
36968SOL    HW222884  12.849   2.663   4.858 -0.5589  1.3150  1.5686
36969SOL     OW22885   4.562   3.184  10.935 -0.1229 -0.0530  1.0732
36969SOL    HW122886   4.549   3.192  10.841  1.1415 -0.1910  0.8698
36969SOL    HW222887   4.521   3.262  10.972  1.9443  1.5585  0.1362
36970SOL     OW22888  13.798  12.917   9.156  0.1203 -0.3902  0.1667
36970SOL    HW122889  13.760  12.845   9.207 -1.1694 -0.1265 -0.3803
36970SOL    HW222890  13.823  12.875   9.073  0.5330 -0.4626  0.3300
36971SOL     OW22891   8.537   7.853   8.469 -0.1653 -0.5302 -0.2152
36971SOL    HW122892   8.513   7.845   8.561  0.0347 -1.6685 -0.2424
36971SOL    HW222893   8.516   7.943   8.446  1.1897  0.2421  1.3410
36972SOL     OW22894   1.431   5.940   9.576  0.4148  0.4669 -0.3820
36972SOL    HW122895   1.371   5.888   9.629 -0.7536  0.4900 -1.6440
36972SOL    HW222896   1.375   6.002   9.530  1.3908  0.4351 -1.6668
36973SOL     OW22897   6.468   3.542  11.427  0.8205 -0.0372 -0.2045
36973SOL    HW122898   6.414   3.531  11.349  0.8541 -0.0430 -0.2276
36973SOL    HW222899   6.548   3.492  11.407  1.0972  0.4870 -0.4253
36974SOL     OW22900   5.095   4.779  11.788  0.1928 -0.4213 -0.1011
36974SOL    HW122901   5.069   4.705  11.733 -1.1582 -0.2904  0.3089
36974SOL    HW222902   5.035   4.775  11.863  0.0947  1.0711 -0.0696
36975SOL     OW22903   9.565   4.438   7.573  0.1081  0.5594 -0.4008
36975SOL    HW122904   9.564   4.513   7.514  2.9160  2.3363  1.5847
36975SOL    HW222905   9.618   4.372   7.527  0.3472  1.0326 -0.8079
36976SOL     OW22906   4.676   6.587   8.038 -0.5515  0.4024 -0.4119
36976SOL    HW122907   4.674   6.507   7.986  0.2486 -0.0809  0.2711
36976SOL    HW222908   4.613   6.572   8.108 -2.0475  1.2777 -1.5133
36977SOL     OW22909   3.864   3.297   1.543  0.1070  0.0567 -0.2028
36977SOL    HW122910   3.780   3.330   1.510 -0.2433  0.5207  1.0834
36977SOL    HW222911   3.856   3.302   1.638  0.4431 -2.7955  0.0605
36978SOL     OW22912  10.537  11.042  12.309 -0.6075 -0.3531  0.7643
36978SOL    HW122913  10.461  11.095  12.286 -0.1651 -0.3961 -0.9179
36978SOL    HW222914  10.593  11.046  12.232  0.1793 -1.9407  1.2146
36979SOL     OW22915   2.778   1.207  11.742 -0.0053  0.0883  0.2727
36979SOL    HW122916   2.689   1.172  11.748 -0.0865  0.2594  0.0728
36979SOL    HW222917   2.822   1.150  11.679 -0.1932  0.4553 -0.2001
36980SOL     OW22918   2.439  14.038   9.298  0.4126  0.4854  0.2832
36980SOL    HW122919   2.409  13.951   9.325  0.6338  0.7109  1.3071
36980SOL    HW222920   2.372  14.098   9.331  0.3387  0.7237 -0.2842
36981SOL     OW22921   3.396   7.073   1.910  0.2990 -0.3240 -0.0027
36981SOL    HW122922   3.342   7.136   1.957 -0.1644  1.5770 -2.8179
36981SOL    HW222923   3.480   7.117   1.899  1.2718 -1.7840  1.1812
36982SOL     OW22924   8.336  10.512  13.340  0.3387 -0.3220  0.2706
36982SOL    HW122925   8.372  10.424  13.331  1.8195  0.3704 -0.8133
36982SOL    HW222926   8.275  10.522  13.267  0.6945 -0.1993 -0.0081
36983SOL     OW22927   1.890  11.400   8.308  0.0539  0.4128 -0.1528
36983SOL    HW122928   1.985  11.400   8.301  0.1489  2.8120  0.4565
36983SOL    HW222929   1.871  11.457   8.382 -1.8702 -0.0950 -0.1978
36984SOL     OW22930  13.868   5.248   2.133  0.3427 -0.1243 -0.7777
36984SOL    HW122931  13.956   5.210   2.124  0.6546  0.6886 -1.2658
36984SOL    HW222932  13.840   5.224   2.221  0.1831 -2.1993 -1.3370
36985SOL     OW22933   4.314   1.528   8.645 -0.1160 -0.1877  0.2982
36985SOL    HW122934   4.248   1.544   8.712 -1.0496  0.4808 -0.7469
36985SOL    HW222935   4.285   1.449   8.600  0.4373 -0.5598  0.5795
36986SOL     OW22936  10.673   2.511   2.291 -0.1247  0.0804  0.6619
36986SOL    HW122937  10.686   2.417   2.298  0.0915  0.1651  1.4831
36986SOL    HW222938  10.682   2.544   2.381 -0.3475  0.8629  0.4102
36987SOL     OW22939   1.781   2.591  12.274 -0.6417 -0.4058 -0.3079
36987SOL    HW122940   1.859   2.639  12.247 -0.9892 -0.3732 -1.2927
36987SOL    HW222941   1.804   2.554  12.360 -0.4563  1.7318  0.6396
36988SOL     OW22942  10.181   5.119   4.467 -0.1650 -0.5298 -0.3263
36988SOL    HW122943  10.141   5.194   4.424 -1.5847 -1.1023 -0.0681
36988SOL    HW222944  10.138   5.114   4.553  0.9466 -0.7809  0.2288
36989SOL     OW22945  10.547   7.722   3.509  0.3449 -0.2453  0.7716
36989SOL    HW122946  10.617   7.699   3.448  0.4073  0.6722  0.4847
36989SOL    HW222947  10.549   7.653   3.575  0.9518 -0.6938  0.2998
36990SOL     OW22948  10.999  13.545   6.525  0.1163  0.0953 -0.3685
36990SOL    HW122949  10.975  13.545   6.432 -0.8229 -0.1861 -0.1404
36990SOL    HW222950  10.988  13.636   6.552  1.9025  0.5042 -0.8788
36991SOL     OW22951  10.231  12.934   5.881 -0.5167  0.2146 -0.3995
36991SOL    HW122952  10.252  12.972   5.796  0.5595 -1.5068 -0.9433
36991SOL    HW222953  10.304  12.958   5.938 -0.6177  0.2935 -0.3013
36992SOL     OW22954   0.148  10.322   9.422  0.2212 -0.0812  0.2372
36992SOL    HW122955   0.067  10.363   9.391  0.1534  0.3728  0.9930
36992SOL    HW222956   0.195  10.298   9.342 -0.0754  0.8126 -0.2212
36993SOL     OW22957   9.352   5.298   4.799  0.2746 -0.9246 -0.0668
36993SOL    HW122958   9.287   5.253   4.853 -1.3896  1.2106 -0.1604
36993SOL    HW222959   9.410   5.341   4.862  0.5912 -1.4434  0.0048
36994SOL     OW22960  11.066   9.824   3.230  0.2921 -0.0317 -0.1834
36994SOL    HW122961  11.060   9.740   3.276  0.1186 -0.2482 -0.5910
36994SOL    HW222962  11.126   9.806   3.157  2.7213  0.9979  1.4383
36995SOL     OW22963   9.989   9.430   1.418 -0.4656  0.1377 -0.1165
36995SOL    HW122964  10.050   9.395   1.353 -1.2279  1.1883 -1.4561
36995SOL    HW222965   9.956   9.353   1.465  1.6971 -0.4571  0.5032
36996SOL     OW22966   7.949   9.633   8.581 -0.0607  0.1726  0.6155
36996SOL    HW122967   7.913   9.660   8.496 -1.6689 -1.2929  0.7775
36996SOL    HW222968   7.896   9.679   8.645 -2.5714 -2.7719  0.8858
36997SOL     OW22969   0.984   8.927  13.760 -0.2300 -0.1035 -0.0373
36997SOL    HW122970   1.052   8.867  13.729  0.1595  0.1367  0.3417
36997SOL    HW222971   0.943   8.961  13.680  1.0747  0.8662 -0.3322
36998SOL     OW22972   7.883   2.414   7.827  0.1369 -0.1441  0.0852
36998SOL    HW122973   7.868   2.321   7.839  0.7429  0.0178  2.5057
36998SOL    HW222974   7.945   2.438   7.895  0.3605  1.9609 -0.7647
36999SOL     OW22975  13.737   7.644  13.245  0.1132  0.1978  0.0785
36999SOL    HW122976  13.697   7.639  13.331 -2.8960  1.6126 -1.0944
36999SOL    HW222977  13.769   7.556  13.227 -2.2907 -1.0035  1.2847
37000SOL     OW22978   5.173  12.883   8.977  0.1617 -0.7921  0.3794
37000SOL    HW122979   5.132  12.905   8.894 -1.0712 -1.5445  0.7558
37000SOL    HW222980   5.237  12.953   8.992  1.4778 -1.4046 -1.8777
37001SOL     OW22981   2.525   2.307   8.027  0.3668 -0.3836 -0.3588
37001SOL    HW122982   2.452   2.278   7.972  0.3883 -1.9877  0.4156
37001SOL    HW222983   2.567   2.376   7.975 -1.7425  0.6849 -0.7804
37002SOL     OW22984   9.223   2.806   7.860 -0.5012 -0.2719 -0.3168
37002SOL    HW122985   9.304   2.784   7.907 -1.9585  0.6728  2.9180
37002SOL    HW222986   9.160   2.741   7.890 -1.6108  0.5881 -0.7326
37003SOL     OW22987   3.821   3.021   5.860 -0.3440 -0.1278  0.1562
37003SOL    HW122988   3.758   2.959   5.895 -1.7407  0.4925 -1.1725
37003SOL    HW222989   3.792   3.038   5.770  1.6714  0.2439 -0.4793
37004SOL     OW22990  11.584  10.274  10.771 -0.8294  0.0013  0.0266
37004SOL    HW122991  11.577  10.235  10.858  0.2488  1.0232  0.6015
37004SOL    HW222992  11.499  10.316  10.757 -1.8126 -1.9931 -0.3765
37005SOL     OW22993   0.095   3.814   2.538 -0.5414  0.1386  0.4501
37005SOL    HW122994   0.081   3.908   2.524  0.0446  0.0895 -0.6061
37005SOL    HW222995   0.105   3.778   2.450 -1.0813 -0.9814  0.8167
37006SOL     OW22996   6.739   4.715   0.050 -0.2765  0.4096  0.0235
37006SOL    HW122997   6.650   4.746   0.065  0.4246  3.0037 -0.6274
37006SOL    HW222998   6.729   4.644  -0.014 -1.9386 -0.2005  0.9068
37007SOL     OW22999   5.858  12.646  10.637 -0.2315 -0.0347  0.1382
37007SOL    HW123000   5.935  12.644  10.694 -0.6013  2.7934  0.8830
37007SOL    HW223001   5.855  12.558  10.599  2.0311 -0.9612  1.8067
37008SOL     OW23002  10.825   4.385   6.794  0.2494  0.3090  0.6720
37008SOL    HW123003  10.803   4.419   6.880 -0.4880 -0.5547  0.8329
37008SOL    HW223004  10.754   4.417   6.737  1.0364  1.3704  0.2428
37009SOL     OW23005  10.020  12.697   3.761  0.2180  0.8715  0.3388
37009SOL    HW123006  10.072  12.663   3.833  0.0574  1.0170  0.5239
37009SOL    HW223007  10.032  12.792   3.765  0.1763  0.8830  0.2000
37010SOL     OW23008   6.149   1.079  11.944  0.3441 -0.1087  0.1836
37010SOL    HW123009   6.194   1.009  11.897  0.0819  0.2661 -0.6586
37010SOL    HW223010   6.119   1.039  12.025  1.1633 -0.6694  0.2228
37011SOL     OW23011   0.180  10.446   5.272 -0.0854  0.4736 -0.0175
37011SOL    HW123012   0.111  10.420   5.333 -0.0303 -0.8970 -0.5126
37011SOL    HW223013   0.133  10.485   5.197 -0.1811  1.5999  0.5993
37012SOL     OW23014   2.891   8.041   9.553 -0.5717 -0.2678  0.0158
37012SOL    HW123015   2.847   8.059   9.636  1.3736 -2.0758  1.5288
37012SOL    HW223016   2.968   8.098   9.554 -0.8300  0.1209 -0.8633
37013SOL     OW23017  11.366   3.991  10.423  0.3292 -0.4235 -0.1870
37013SOL    HW123018  11.372   3.970  10.330 -0.3229 -1.2908 -0.0572
37013SOL    HW223019  11.448   4.036  10.443  0.7180 -0.7098 -1.0595
37014SOL     OW23020  10.686   0.431  11.341 -0.2111  0.1995 -0.2362
37014SOL    HW123021  10.774   0.424  11.305  0.2721 -0.6372  1.0416
37014SOL    HW223022  10.682   0.363  11.408 -1.6856  0.5118  0.0243
37015SOL     OW23023   5.461   9.945   0.710 -0.2034 -0.0847 -0.0990
37015SOL    HW123024   5.540   9.925   0.761 -0.1275 -0.2252 -0.2729
37015SOL    HW223025   5.489  10.011   0.647  0.2322 -1.4689 -1.3940
37016SOL     OW23026   0.298  13.862  11.295 -0.3489 -0.9635  0.2934
37016SOL    HW123027   0.237  13.883  11.366 -0.0112  1.4706 -0.0634
37016SOL    HW223028   0.380  13.905  11.319 -0.5919  1.0575 -2.1209
37017SOL     OW23029  12.029  10.351  10.709 -0.1295 -0.0039 -0.1973
37017SOL    HW123030  12.007  10.345  10.616  0.3230 -2.0420 -0.2148
37017SOL    HW223031  11.961  10.299  10.752  1.1989 -1.3885  0.3073
37018SOL     OW23032  10.396  12.526   5.481 -0.2493  0.3222 -0.2549
37018SOL    HW123033  10.390  12.456   5.546  1.3931 -0.3445 -0.7850
37018SOL    HW223034  10.487  12.553   5.482 -0.8125  2.3815 -0.1908
37019SOL     OW23035  11.473  12.447   3.319  0.4715 -0.5304 -0.3529
37019SOL    HW123036  11.379  12.459   3.315  0.0321 -3.1491  0.0627
37019SOL    HW223037  11.501  12.445   3.227 -0.0735 -0.8953 -0.5138
37020SOL     OW23038  13.912   8.399   2.978  0.1738  0.1168  0.1433
37020SOL    HW123039  14.004   8.394   3.004 -0.1831 -1.2283  1.2467
37020SOL    HW223040  13.911   8.361   2.890  1.0365  2.6058 -1.0418
37021SOL     OW23041  10.566   1.876   3.060 -0.3377  0.0559 -0.1446
37021SOL    HW123042  10.488   1.837   3.020 -0.1138  0.3786 -0.9282
37021SOL    HW223043  10.630   1.878   2.988  0.3560 -0.1221  0.4643
37022SOL     OW23044   5.591   7.200  12.419  0.3878 -0.3512 -0.1280
37022SOL    HW123045   5.636   7.151  12.488 -2.6564 -0.8141  1.7552
37022SOL    HW223046   5.618   7.158  12.338  0.0356 -3.4698  1.2140
37023SOL     OW23047  12.811   1.235   9.141  0.0140  0.2287  0.3748
37023SOL    HW123048  12.769   1.249   9.226  0.4149  1.1457  0.4325
37023SOL    HW223049  12.794   1.315   9.092 -0.7246 -0.5355 -0.6421
37024SOL     OW23050   4.087  12.525   6.331  0.0486  0.5789  0.2762
37024SOL    HW123051   4.141  12.599   6.359  0.4087 -0.1139  1.4739
37024SOL    HW223052   3.997  12.558   6.336 -0.0371  0.2114  3.4405
37025SOL     OW23053   8.013  10.310   9.711  0.3811 -0.0673  0.4135
37025SOL    HW123054   7.978  10.278   9.794 -0.3592 -0.5187 -0.0590
37025SOL    HW223055   7.935  10.327   9.657  0.8684 -1.1387 -0.6853
37026SOL     OW23056   7.762   4.169   0.062  0.0904 -0.2069  0.2418
37026SOL    HW123057   7.847   4.212   0.058  0.9448 -1.8938 -1.7730
37026SOL    HW223058   7.703   4.226   0.013  0.4694  0.1353  0.1845
37027SOL     OW23059   5.316   5.194   4.298 -0.1750  0.0703  0.0049
37027SOL    HW123060   5.403   5.210   4.334 -0.4121  0.3289  0.4747
37027SOL    HW223061   5.274   5.134   4.360 -1.1616  1.7632  1.0621
37028SOL     OW23062   6.688   9.011  13.020  0.1703 -0.0697 -0.5084
37028SOL    HW123063   6.705   9.104  13.033 -0.4658  0.0852 -0.7495
37028SOL    HW223064   6.594   9.002  13.033  0.4341 -0.9281  0.9729
37029SOL     OW23065   1.713   1.866   7.079  0.2702 -0.1218  0.0120
37029SOL    HW123066   1.670   1.793   7.123  0.2009 -0.1120 -0.0391
37029SOL    HW223067   1.686   1.858   6.987  0.4121 -0.1410 -0.0281
37030SOL     OW23068   2.874  12.333  13.666 -0.2890  1.4384 -0.0724
37030SOL    HW123069   2.829  12.399  13.719 -0.6492  1.4068 -0.3373
37030SOL    HW223070   2.897  12.265  13.728  2.1022  2.8006  0.6685
37031SOL     OW23071   7.597   7.989  13.284  0.8440 -0.5135  0.7223
37031SOL    HW123072   7.676   8.042  13.271 -1.2011  2.5358 -0.4090
37031SOL    HW223073   7.568   8.010  13.372  0.4664 -0.4115  0.5757
37032SOL     OW23074  10.332   0.009  10.952  0.6734  0.2081  0.0111
37032SOL    HW123075  10.377   0.087  10.985  0.5926  0.0266  0.5524
37032SOL    HW223076  10.255   0.000  11.008  0.9183 -0.5191  0.2443
37033SOL     OW23077   6.313  12.556   2.264  0.1777 -0.0787 -0.3363
37033SOL    HW123078   6.261  12.636   2.270 -0.6454 -0.6531  0.5954
37033SOL    HW223079   6.401  12.585   2.243 -0.6990  0.8710 -3.1033
37034SOL     OW23080   3.919  11.272  11.043 -0.1427 -0.0651 -0.0037
37034SOL    HW123081   3.823  11.275  11.041 -0.2353  2.1333  2.5128
37034SOL    HW223082   3.939  11.200  11.102 -0.5221  2.2897  3.2591
37035SOL     OW23083  13.796   4.707   4.036  0.3429 -1.0493 -0.1858
37035SOL    HW123084  13.824   4.680   4.124 -0.3109 -1.5314 -0.1170
37035SOL    HW223085  13.872   4.750   3.998  0.5964 -0.7299  0.6660
37036SOL     OW23086  12.301   4.076   0.818  0.3094  0.2287 -0.3869
37036SOL    HW123087  12.264   4.017   0.753  0.2724 -0.0488 -0.1172
37036SOL    HW223088  12.391   4.090   0.790  1.6642 -3.1149  1.6049
37037SOL     OW23089   1.851   8.076   3.345 -0.7528 -0.2326  0.2600
37037SOL    HW123090   1.809   8.078   3.431 -0.6608  0.5941  0.2958
37037SOL    HW223091   1.937   8.116   3.360 -0.6924 -0.1884 -0.1953
37038SOL     OW23092   3.442   2.876   8.546 -0.8113 -0.6393  0.0483
37038SOL    HW123093   3.367   2.868   8.486 -2.1376 -1.6554  1.7545
37038SOL    HW223094   3.420   2.948   8.604 -0.6125 -1.1420  0.7607
37039SOL     OW23095   9.257  12.447   0.550 -0.1019  0.3984 -0.5247
37039SOL    HW123096   9.165  12.474   0.558  0.4087  2.2404 -0.2904
37039SOL    HW223097   9.287  12.487   0.469  1.0992  1.8731  0.5836
37040SOL     OW23098  10.601  13.335   9.334  0.3671 -0.4487 -0.1186
37040SOL    HW123099  10.525  13.277   9.321  0.3342 -0.1810 -1.2803
37040SOL    HW223100  10.630  13.356   9.245  0.5612  1.0891  0.2776
37041SOL     OW23101   5.038   6.924  10.973 -0.4070 -0.5283  0.1955
37041SOL    HW123102   4.974   6.858  10.998 -1.3933  0.2225 -0.2979
37041SOL    HW223103   5.123   6.883  10.992 -0.9891 -1.8894  0.0037
37042SOL     OW23104  10.769  11.770  12.802 -0.1448  0.0447  0.2598
37042SOL    HW123105  10.851  11.729  12.829  0.2384 -0.1279 -1.1039
37042SOL    HW223106  10.756  11.842  12.864  1.8851  1.1132 -0.4789
37043SOL     OW23107   4.083  12.333   0.107 -0.4573 -0.5419 -0.1697
37043SOL    HW123108   4.066  12.246   0.143  0.5818 -0.9367 -0.5890
37043SOL    HW223109   4.101  12.318   0.014  2.1419 -0.2484  0.1991
37044SOL     OW23110   4.400  11.055   3.915 -0.0847  0.5305 -0.5432
37044SOL    HW123111   4.362  11.089   3.833 -0.7045  0.3291 -0.3475
37044SOL    HW223112   4.349  11.098   3.984  1.6304  2.1275 -0.1881
37045SOL     OW23113   1.271   4.770  10.996 -0.0404  0.2428 -0.5015
37045SOL    HW123114   1.183   4.734  10.981 -0.6725  1.9584 -1.2253
37045SOL    HW223115   1.255   4.854  11.038  1.2487  0.6381 -0.7704
37046SOL     OW23116   3.604   8.929   9.196 -0.0266  0.1495  0.5173
37046SOL    HW123117   3.592   8.954   9.287  0.1400  0.0193  0.5764
37046SOL    HW223118   3.518   8.894   9.169 -0.1698  0.4926  0.5254
37047SOL     OW23119   1.253   9.194   9.078  0.4700  0.2635 -0.3116
37047SOL    HW123120   1.177   9.140   9.057  2.1087 -1.8717 -1.1780
37047SOL    HW223121   1.263   9.184   9.173  0.2365 -0.2723 -0.3368
37048SOL     OW23122   0.246   5.296  10.372  0.2292 -0.0445 -0.0284
37048SOL    HW123123   0.335   5.270  10.352  0.3198  0.0080  0.3019
37048SOL    HW223124   0.255   5.366  10.438 -0.0017  0.7998 -0.8666
37049SOL     OW23125   2.843   0.277   4.854 -0.0745  0.2476 -0.1104
37049SOL    HW123126   2.847   0.189   4.891  3.1066  0.3050 -0.0872
37049SOL    HW223127   2.890   0.270   4.771 -0.9084  1.6862 -0.7473
37050SOL     OW23128  10.878   6.737  13.341 -0.1567 -0.2336 -0.2442
37050SOL    HW123129  10.953   6.792  13.319 -0.0928  0.6486  1.9029
37050SOL    HW223130  10.846   6.705  13.257  3.1787 -1.4238 -1.1983
37051SOL     OW23131   3.208   1.095   1.546  0.0801  0.3046  0.0635
37051SOL    HW123132   3.151   1.161   1.586  1.2316  0.7564  0.9919
37051SOL    HW223133   3.297   1.121   1.571  0.6049 -1.2366 -0.1004
37052SOL     OW23134  11.830  10.820   0.600 -0.3744 -0.2457 -0.5626
37052SOL    HW123135  11.914  10.781   0.578 -0.5046 -0.2535 -1.0703
37052SOL    HW223136  11.848  10.877   0.675  0.1145 -0.1188 -0.7746
37053SOL     OW23137   4.060   8.255   4.228 -0.2871 -0.7034  0.1220
37053SOL    HW123138   4.101   8.179   4.271 -1.6038 -2.1460 -1.0687
37053SOL    HW223139   3.979   8.269   4.277 -0.4942 -0.6514 -0.2360
37054SOL     OW23140   4.676   6.254   1.087 -0.5522  0.0657  0.2405
37054SOL    HW123141   4.583   6.234   1.090 -1.1440  2.3089 -0.6875
37054SOL    HW223142   4.680   6.348   1.068  1.9040 -0.1398 -0.6913
37055SOL     OW23143  12.403   0.332   0.300  0.0409 -0.6129 -0.1791
37055SOL    HW123144  12.379   0.351   0.210 -0.0261 -1.4052 -0.3408
37055SOL    HW223145  12.346   0.259   0.325  0.9698 -1.2845  0.0507
37056SOL     OW23146   8.322   6.335   6.359  0.2740  0.0546 -0.0232
37056SOL    HW123147   8.346   6.310   6.270 -2.3742  2.0471 -1.4249
37056SOL    HW223148   8.406   6.344   6.405  1.6986 -1.3774 -2.1600
37057SOL     OW23149  12.053   6.612  10.477  0.2113 -0.6962  0.2515
37057SOL    HW123150  11.963   6.644  10.465  0.3441 -0.7121 -0.8790
37057SOL    HW223151  12.046   6.550  10.550 -0.2298  1.1444  1.8750
37058SOL     OW23152   1.138   0.299   0.501  0.1718 -0.1309  0.0295
37058SOL    HW123153   1.066   0.245   0.533  0.6827  0.0597  1.5692
37058SOL    HW223154   1.209   0.284   0.563  1.4762 -0.2927 -1.4371
37059SOL     OW23155   0.019   6.308  12.483  1.1065 -0.1735 -0.2880
37059SOL    HW123156   0.002   6.364  12.559  1.4110 -1.6435  0.9137
37059SOL    HW223157  -0.057   6.320  12.427  1.4234  1.8563 -0.3494
37060SOL     OW23158   8.604   6.858  11.662  0.2783 -0.1014  0.2387
37060SOL    HW123159   8.639   6.814  11.739 -0.2751 -0.1275  0.4783
37060SOL    HW223160   8.603   6.790  11.595  1.6815  0.1678 -0.0882
37061SOL     OW23161   5.023   9.045   3.891  0.5335  0.1613  0.1919
37061SOL    HW123162   5.058   8.999   3.815 -0.5209  0.5958 -0.5857
37061SOL    HW223163   4.994   9.130   3.857  0.5398  0.5808  1.1888
37062SOL     OW23164   7.800   6.434   6.593 -0.1646  0.1708  0.0225
37062SOL    HW123165   7.844   6.502   6.643  0.8762  0.3419 -1.0813
37062SOL    HW223166   7.837   6.352   6.625  0.8762  0.3042 -0.7811
37063SOL     OW23167   0.736   6.690  12.456  0.3312  0.3118  1.1449
37063SOL    HW123168   0.672   6.678  12.526  0.4379 -0.4181  1.1194
37063SOL    HW223169   0.728   6.783  12.432 -1.6800 -0.0527  0.2221
37064SOL     OW23170   7.425   7.189  10.489 -0.1075 -0.2585  0.3603
37064SOL    HW123171   7.331   7.169  10.496  0.0995 -0.8543  1.6398
37064SOL    HW223172   7.444   7.179  10.395 -1.3092 -0.1723  0.0917
37065SOL     OW23173   1.238   9.822  10.116 -0.0274  0.3733  0.0382
37065SOL    HW123174   1.247   9.730  10.140 -0.6039  0.7103  1.6703
37065SOL    HW223175   1.170   9.855  10.175  1.0158  2.1318  0.3196
37066SOL     OW23176  13.885  11.053   0.183 -0.1763  0.0912  0.3877
37066SOL    HW123177  13.854  10.962   0.188 -1.3406  0.3218 -1.6029
37066SOL    HW223178  13.844  11.088   0.104  1.2769  1.9808  0.4020
37067SOL     OW23179  10.119   9.357   1.753  0.3306 -0.3789 -0.0284
37067SOL    HW123180  10.105   9.298   1.827  0.8622 -2.0643 -1.1958
37067SOL    HW223181  10.074   9.315   1.680  1.8600 -0.0602 -1.2183
37068SOL     OW23182   2.726   0.211   5.819 -0.4134  0.1004  0.4745
37068SOL    HW123183   2.807   0.216   5.768 -0.7229  1.3732  0.0741
37068SOL    HW223184   2.745   0.146   5.887  0.6466 -0.2398 -0.1173
37069SOL     OW23185   0.204   7.030   1.480 -0.6547 -0.1335 -0.2071
37069SOL    HW123186   0.278   6.982   1.515 -0.7911 -0.0729  0.1695
37069SOL    HW223187   0.180   7.091   1.550 -0.7445  0.1906 -0.5173
37070SOL     OW23188   0.456   9.661  12.242 -0.0869 -0.2372  0.1071
37070SOL    HW123189   0.431   9.587  12.297 -1.0467  1.2319  1.7833
37070SOL    HW223190   0.544   9.684  12.271  0.0386 -0.4485 -0.1052
37071SOL     OW23191   7.420   5.342   2.171 -0.0150 -0.0786  0.2001
37071SOL    HW123192   7.475   5.268   2.197  0.4153 -0.0775 -0.6794
37071SOL    HW223193   7.421   5.341   2.075 -0.8080  0.4751  0.1714
37072SOL     OW23194  11.339  13.977  10.550 -0.2296 -0.3058 -0.1274
37072SOL    HW123195  11.254  13.975  10.593 -1.5430 -0.1451 -2.4989
37072SOL    HW223196  11.402  13.964  10.620 -2.2824 -2.6343  1.4578
37073SOL     OW23197  13.860   4.290   4.662 -0.2459 -0.2977 -0.4431
37073SOL    HW123198  13.878   4.383   4.647  1.9366 -0.2058  1.9500
37073SOL    HW223199  13.793   4.290   4.731 -0.4688 -0.5202 -0.6573
37074SOL     OW23200   6.103   2.610  12.652 -0.0537  0.4543  0.0008
37074SOL    HW123201   6.191   2.573  12.643  0.1684  1.0862 -0.5980
37074SOL    HW223202   6.048   2.537  12.678  0.5383 -0.0865 -0.2449
37075SOL     OW23203   5.533   2.228   2.921  0.0128 -0.1515  0.2251
37075SOL    HW123204   5.484   2.186   2.992  0.6972 -2.1913 -0.4226
37075SOL    HW223205   5.489   2.312   2.908  0.7071  1.0022  3.9726
37076SOL     OW23206   2.476   0.988   1.626 -0.3145 -0.1627  0.0965
37076SOL    HW123207   2.443   0.901   1.644  0.5416 -0.6956 -0.7806
37076SOL    HW223208   2.512   0.982   1.537  0.1274  0.9655  0.1774
37077SOL     OW23209   6.639  12.439   2.754 -0.8518 -0.1059 -0.7311
37077SOL    HW123210   6.565  12.381   2.736 -1.9159  0.9734  0.0176
37077SOL    HW223211   6.670  12.465   2.668  0.4891 -2.7386 -1.1534
37078SOL     OW23212   6.558   5.837  13.078  0.1964  0.5299  0.9269
37078SOL    HW123213   6.546   5.894  13.002  0.5517 -1.2883 -0.5525
37078SOL    HW223214   6.528   5.751  13.049  0.9241 -0.3597  2.6548
37079SOL     OW23215   2.024   1.335   8.398 -0.3499 -0.8555 -0.0287
37079SOL    HW123216   2.119   1.341   8.403 -0.3134 -1.6406  0.3927
37079SOL    HW223217   1.999   1.394   8.327  0.3550  0.2249  0.6036
37080SOL     OW23218  12.224   0.762   1.899 -0.0051 -0.2222  0.4078
37080SOL    HW123219  12.233   0.727   1.810  0.8605 -2.0563  1.1440
37080SOL    HW223220  12.225   0.857   1.888  4.4763 -0.1904 -1.2824
37081SOL     OW23221   1.950   8.349   9.546  0.8108  0.6409  0.1065
37081SOL    HW123222   2.012   8.323   9.615  2.7372  0.6404 -1.5263
37081SOL    HW223223   1.971   8.291   9.473 -2.4472 -0.6607  0.0363
37082SOL     OW23224  11.605   4.607   2.280 -0.7398 -0.4765  0.4964
37082SOL    HW123225  11.640   4.637   2.364 -0.4270 -0.5279  0.3830
37082SOL    HW223226  11.511   4.623   2.287 -0.6964 -0.3481  0.8032
37083SOL     OW23227   1.512   5.541  10.050  0.1807 -0.2956 -0.3223
37083SOL    HW123228   1.594   5.569  10.010  0.5481 -1.1812 -0.2028
37083SOL    HW223229   1.466   5.623  10.070  2.2062  0.4042  2.0994
37084SOL     OW23230  10.595   0.708  11.979 -0.3670 -0.3492 -0.1876
37084SOL    HW123231  10.648   0.786  11.963 -1.2928 -0.0456 -2.0975
37084SOL    HW223232  10.554   0.724  12.064 -1.8458  2.1106 -1.2433
37085SOL     OW23233  10.282   4.511   7.330 -0.0694  0.2786  0.1622
37085SOL    HW123234  10.238   4.433   7.364  0.4867  0.4442  1.2657
37085SOL    HW223235  10.250   4.583   7.385 -0.7629  0.8880 -0.9939
37086SOL     OW23236   2.496   9.853   5.754  0.6423 -0.2120  0.3681
37086SOL    HW123237   2.569   9.915   5.753  0.1538  0.4114 -1.6659
37086SOL    HW223238   2.462   9.855   5.665 -2.2073 -0.0840  1.3671
37087SOL     OW23239   8.238   1.138  10.732 -0.7126  0.1929  0.0199
37087SOL    HW123240   8.233   1.063  10.672  0.6800  0.3553 -0.3442
37087SOL    HW223241   8.148   1.153  10.759 -1.5699  0.6953 -2.7488
37088SOL     OW23242   0.963   6.002   3.223 -0.1488  0.5202  0.0617
37088SOL    HW123243   1.047   6.043   3.245  1.1138 -0.3718 -2.6641
37088SOL    HW223244   0.930   6.052   3.149 -0.5813 -0.8476 -0.7136
37089SOL     OW23245   3.984  11.261  10.780  0.1973  0.3551  0.1960
37089SOL    HW123246   3.970  11.169  10.757  2.8098 -0.1099  0.1435
37089SOL    HW223247   3.979  11.262  10.876 -0.7221  0.3648  0.1608
37090SOL     OW23248   7.779  13.425   6.817 -0.0817  0.0545 -0.2210
37090SOL    HW123249   7.740  13.378   6.743  2.0693 -1.5257 -0.4770
37090SOL    HW223250   7.723  13.501   6.830 -1.4045 -0.4424 -2.4752
37091SOL     OW23251   5.901   0.336   6.788 -0.1872  0.4282 -0.4208
37091SOL    HW123252   5.962   0.265   6.769  0.3941  0.7972  0.0532
37091SOL    HW223253   5.836   0.295   6.846  0.8377  0.5800  0.8733
37092SOL     OW23254   5.209   1.148  12.318 -0.0932 -0.0677  0.3991
37092SOL    HW123255   5.166   1.066  12.291  0.5046 -0.8389  1.6888
37092SOL    HW223256   5.202   1.148  12.413  0.7002  0.9612  0.4725
37093SOL     OW23257   3.418   9.821   9.703 -0.1621 -0.0574 -0.4642
37093SOL    HW123258   3.403   9.757   9.634 -0.9763 -1.2773  0.7797
37093SOL    HW223259   3.488   9.783   9.757 -0.9278 -0.1244  0.5132
37094SOL     OW23260   6.366   6.513   8.259 -0.2444 -0.4193 -0.3297
37094SOL    HW123261   6.349   6.606   8.277  1.0243  0.7192 -4.0490
37094SOL    HW223262   6.279   6.472   8.263 -0.9023  0.9963  0.9044
37095SOL     OW23263   4.615   6.000  11.112  0.0184  0.1553  0.3914
37095SOL    HW123264   4.627   5.912  11.148  1.7320  0.5601  0.9043
37095SOL    HW223265   4.568   6.048  11.179  2.8504  0.7956  2.1083
37096SOL     OW23266   2.912   7.994   5.259 -0.2370 -0.1645  0.0879
37096SOL    HW123267   2.877   7.906   5.269 -1.0634  0.1723  0.1716
37096SOL    HW223268   3.004   7.981   5.235  0.2366 -1.0520  2.1429
37097SOL     OW23269   5.457  12.079  11.764  0.4232 -0.4232 -0.4894
37097SOL    HW123270   5.432  12.018  11.694 -0.0450  1.2694 -1.8771
37097SOL    HW223271   5.405  12.157  11.747  1.7392  0.7486  0.6167
37098SOL     OW23272   4.588   9.203   0.891  0.3502  0.1506 -0.4959
37098SOL    HW123273   4.674   9.204   0.933  1.4659  2.9264 -2.5612
37098SOL    HW223274   4.606   9.189   0.799 -1.8962 -3.7899 -0.5226
37099SOL     OW23275   7.061   2.232   2.214  0.4403  0.7396  0.2082
37099SOL    HW123276   7.058   2.137   2.222 -2.3773  0.6831 -0.3786
37099SOL    HW223277   7.067   2.264   2.304 -2.3422 -0.0357  0.7654
37100SOL     OW23278  11.848  11.668   8.134  0.1258  0.2049  0.2627
37100SOL    HW123279  11.863  11.648   8.041 -0.2347 -0.7715  0.4113
37100SOL    HW223280  11.924  11.631   8.179 -0.1990 -0.2164  0.4652
37101SOL     OW23281  13.483   1.468   8.039  0.0652  0.4778 -0.8730
37101SOL    HW123282  13.456   1.537   8.100  0.7018 -0.2885  0.3230
37101SOL    HW223283  13.577   1.461   8.051  0.0186 -0.5659 -1.0213
37102SOL     OW23284   9.972   5.785   4.358 -1.0914  0.2442 -0.1524
37102SOL    HW123285   9.988   5.870   4.318  0.6666  0.4342  0.8740
37102SOL    HW223286  10.058   5.744   4.365 -1.7588 -1.1543  0.4158
37103SOL     OW23287   7.082   9.536   9.246 -0.2970  0.1041  0.0285
37103SOL    HW123288   7.150   9.476   9.215 -0.8214 -0.2689 -0.3992
37103SOL    HW223289   7.128   9.592   9.310  1.3702  2.2551 -2.7935
37104SOL     OW23290   2.219   8.274   2.728 -0.3948  0.2142  0.6255
37104SOL    HW123291   2.177   8.210   2.669  0.9248 -1.9340  1.8822
37104SOL    HW223292   2.176   8.357   2.707  0.0238 -0.3866 -3.3986
37105SOL     OW23293   1.363  11.305   9.670  0.7008 -0.6064  0.4327
37105SOL    HW123294   1.267  11.310   9.674  0.4675 -2.3772 -1.5688
37105SOL    HW223295   1.384  11.221   9.710  1.3314 -0.6817 -0.0446
37106SOL     OW23296  11.877   2.339   8.734  0.4901  0.1787 -0.0716
37106SOL    HW123297  11.787   2.361   8.759  0.5651  0.4585 -0.0505
37106SOL    HW223298  11.886   2.247   8.756 -1.0078 -0.9327 -3.4265
37107SOL     OW23299   7.488   5.745   0.749 -0.1899 -0.9948 -0.9324
37107SOL    HW123300   7.499   5.666   0.802 -1.2909  0.2208  1.2424
37107SOL    HW223301   7.395   5.748   0.730 -0.6613  0.9844  1.1846
37108SOL     OW23302   4.888   4.055   0.604  0.5947 -0.3027  1.2344
37108SOL    HW123303   4.862   3.965   0.622  1.2395 -0.2681  2.4405
37108SOL    HW223304   4.974   4.047   0.561  0.7927 -0.2566  1.6192
37109SOL     OW23305  13.029   9.180   1.743 -0.3178 -0.0848  0.0060
37109SOL    HW123306  12.973   9.157   1.669 -0.1724 -0.3907 -0.0103
37109SOL    HW223307  12.980   9.151   1.820 -1.3158  1.8735  0.1786
37110SOL     OW23308   8.897  10.510   2.486 -0.0311 -0.6833 -0.0771
37110SOL    HW123309   8.872  10.602   2.487  0.9572 -0.3983 -0.2171
37110SOL    HW223310   8.855  10.475   2.407  2.4832  0.5361 -2.0970
37111SOL     OW23311   1.829  13.573   1.503  0.1520  0.0652 -0.2634
37111SOL    HW123312   1.758  13.609   1.450  1.4864 -1.3868 -3.2725
37111SOL    HW223313   1.883  13.523   1.441  2.2641 -1.2152  2.3774
37112SOL     OW23314  11.148   6.440   1.439  0.0315  0.1184 -0.7766
37112SOL    HW123315  11.140   6.511   1.502 -0.1581  0.0371 -0.7099
37112SOL    HW223316  11.192   6.479   1.364 -0.1217  0.3184 -0.7607
37113SOL     OW23317   3.186   3.471   7.925 -1.3553 -0.1904  0.2720
37113SOL    HW123318   3.256   3.457   7.862 -0.1800 -0.3972  1.5667
37113SOL    HW223319   3.112   3.501   7.873 -0.1237  0.6348 -1.0630
37114SOL     OW23320   3.063   4.211  12.141  0.4582  0.5606  0.2594
37114SOL    HW123321   3.149   4.179  12.113  0.2418  0.7253 -0.6443
37114SOL    HW223322   3.036   4.150  12.209  1.5067  0.8092  0.9146
37115SOL     OW23323   7.829  13.623  10.773 -0.4207  0.7112 -0.2011
37115SOL    HW123324   7.737  13.625  10.798  0.0593 -0.8033  1.8831
37115SOL    HW223325   7.871  13.691  10.826 -0.4931  2.4662 -2.2307
37116SOL     OW23326   7.781  13.041   1.267  0.0181  0.1046 -0.1260
37116SOL    HW123327   7.783  13.022   1.361  0.5159  2.5783  0.4449
37116SOL    HW223328   7.735  12.967   1.228 -1.9830 -0.0588  2.3098
37117SOL     OW23329   0.608  12.213   1.849 -0.1463 -0.5018 -0.0216
37117SOL    HW123330   0.570  12.130   1.819 -0.1535 -0.5268  0.0564
37117SOL    HW223331   0.655  12.247   1.773  0.2004 -0.7775  0.0652
37118SOL     OW23332   2.064  12.640   7.914  0.0686  0.1774 -0.2781
37118SOL    HW123333   2.082  12.725   7.953  0.4978  0.2183 -0.5470
37118SOL    HW223334   2.151  12.603   7.898 -0.1080 -0.8198  0.9274
37119SOL     OW23335   5.410  11.171  12.981  0.0670 -0.3080 -0.2080
37119SOL    HW123336   5.385  11.214  12.899  0.5747  0.3795 -0.0146
37119SOL    HW223337   5.344  11.199  13.044 -0.0076 -0.3876 -0.2507
37120SOL     OW23338  10.678   3.517   4.392  0.1924 -0.4936 -0.1018
37120SOL    HW123339  10.688   3.559   4.307 -1.0445 -1.9653 -1.0309
37120SOL    HW223340  10.692   3.424   4.375 -0.6903 -0.8976  1.1644
37121SOL     OW23341   4.823   7.393   3.280  0.2486 -0.2305 -0.1480
37121SOL    HW123342   4.853   7.463   3.223 -0.1809 -1.4619 -1.9505
37121SOL    HW223343   4.903   7.348   3.307  0.4219  0.1460 -0.0143
37122SOL     OW23344   3.793   2.877   8.908  0.5198  0.7327  0.4351
37122SOL    HW123345   3.767   2.938   8.839 -1.8098  0.8219  1.2971
37122SOL    HW223346   3.843   2.810   8.863  0.0888  1.4153 -1.1432
37123SOL     OW23347  12.146   6.121  12.075  0.6570  0.2503 -0.1365
37123SOL    HW123348  12.136   6.198  12.131  0.6054 -1.1318  1.8624
37123SOL    HW223349  12.204   6.063  12.123 -0.8360 -1.7812 -0.6360
37124SOL     OW23350   5.290  13.854   8.854 -0.3351 -0.4032  0.4923
37124SOL    HW123351   5.239  13.909   8.794 -0.2108 -0.8005  0.0154
37124SOL    HW223352   5.227  13.829   8.922 -0.3067  0.6023  0.9052
37125SOL     OW23353   2.112  13.228   4.229  0.0648 -0.1354 -0.2244
37125SOL    HW123354   2.152  13.193   4.149  0.6169  0.2145 -0.1125
37125SOL    HW223355   2.032  13.176   4.241  0.4463 -0.8069 -0.4998
37126SOL     OW23356  10.391   9.937   8.715 -0.3590  0.3441 -0.3482
37126SOL    HW123357  10.480   9.905   8.723 -0.2385  0.4562 -1.1414
37126SOL    HW223358  10.364   9.956   8.805 -0.5147 -2.1295  0.2153
37127SOL     OW23359  12.711   9.736   5.565  0.2733 -0.2963 -0.2711
37127SOL    HW123360  12.759   9.734   5.482 -1.0613  1.2966 -1.1474
37127SOL    HW223361  12.771   9.778   5.627  1.0337 -0.8915 -0.5886
37128SOL     OW23362  13.953   3.992   1.408 -0.0730  0.1209 -0.0979
37128SOL    HW123363  14.039   3.950   1.406  0.1748  0.5889 -2.4805
37128SOL    HW223364  13.891   3.921   1.388  0.1205  0.3581 -1.6943
37129SOL     OW23365  11.711   5.489   2.239  0.2430  0.4562 -0.1270
37129SOL    HW123366  11.783   5.446   2.192 -0.5071 -1.1204  0.1009
37129SOL    HW223367  11.739   5.490   2.330 -0.3418 -0.9248  0.0921
37130SOL     OW23368   5.114   1.131   2.732  0.2593 -0.0432  0.1469
37130SOL    HW123369   5.150   1.175   2.655 -1.3958  0.9787 -0.1002
37130SOL    HW223370   5.150   1.178   2.806  1.0886 -0.4016 -0.0212
37131SOL     OW23371   5.543   4.709   1.395  0.7084 -0.0553 -0.2943
37131SOL    HW123372   5.585   4.636   1.350 -0.1077 -1.1589  0.6420
37131SOL    HW223373   5.553   4.783   1.336  0.8933 -1.1031 -1.6418
37132SOL     OW23374   4.644  13.639  10.297 -0.0036 -0.2023  0.2776
37132SOL    HW123375   4.690  13.671  10.219  0.1161  1.6777  1.0757
37132SOL    HW223376   4.714  13.612  10.356 -0.0079  0.3899  0.5569
37133SOL     OW23377   2.221   6.670  13.016  0.1005  0.3100 -0.0761
37133SOL    HW123378   2.228   6.727  12.939  1.1277 -1.5341 -1.4473
37133SOL    HW223379   2.265   6.717  13.086 -1.2362  2.2363 -0.4642
37134SOL     OW23380   4.292   3.839   5.210  0.1279  0.3906  0.3884
37134SOL    HW123381   4.200   3.822   5.232  0.2163  0.1760  0.6033
37134SOL    HW223382   4.305   3.931   5.231  0.0836  0.3047  0.8084
37135SOL     OW23383   9.768   7.418   7.504  0.5125  0.5281  0.2086
37135SOL    HW123384   9.776   7.482   7.575 -1.9538  2.4108 -1.0303
37135SOL    HW223385   9.694   7.363   7.529 -0.8283  1.6411 -1.0925
37136SOL     OW23386   6.600   0.604  13.343 -0.2181 -0.0554 -0.2676
37136SOL    HW123387   6.599   0.511  13.366  0.0479 -0.3253 -1.2931
37136SOL    HW223388   6.510   0.623  13.315 -0.0461 -0.2553 -0.9776
37137SOL     OW23389   8.148  13.195   9.336  0.2117  0.2298 -0.9113
37137SOL    HW123390   8.153  13.202   9.431 -0.8946  1.8053 -0.9349
37137SOL    HW223391   8.122  13.282   9.306 -0.2996 -0.4497 -2.5965
37138SOL     OW23392   2.250   7.114   7.032 -0.0064  0.0585 -0.1139
37138SOL    HW123393   2.159   7.141   7.047  0.0300  0.1067  0.0187
37138SOL    HW223394   2.292   7.191   6.995 -0.0938 -0.0573 -0.4596
37139SOL     OW23395   1.307   9.654   0.966  0.3056  0.1952  0.5868
37139SOL    HW123396   1.331   9.572   0.923  0.9313  0.7586 -0.1862
37139SOL    HW223397   1.364   9.720   0.925 -1.4220  1.3300 -0.1325
37140SOL     OW23398  12.544  11.333   3.894 -0.3435  1.2134  0.0379
37140SOL    HW123399  12.466  11.380   3.862 -1.5257  1.1993  2.6361
37140SOL    HW223400  12.599  11.324   3.816 -2.3063  2.4462 -1.6364
37141SOL     OW23401   0.717  12.228   6.016  0.2141 -0.9072 -0.2656
37141SOL    HW123402   0.714  12.199   6.107 -1.4078  0.6369  0.2262
37141SOL    HW223403   0.633  12.199   5.979  0.2166 -0.2232 -0.8293
37142SOL     OW23404  11.942   6.411   5.253  0.5387 -0.2209 -0.3467
37142SOL    HW123405  11.918   6.483   5.311 -2.1986 -0.6428 -0.8150
37142SOL    HW223406  11.980   6.454   5.176 -0.5614  0.6984 -0.3929
37143SOL     OW23407   4.975   9.544   1.102 -0.3372 -0.1145 -0.2045
37143SOL    HW123408   4.980   9.587   1.016  3.9084  1.5249  0.6574
37143SOL    HW223409   5.048   9.482   1.102 -2.3988 -2.7482  1.0661
37144SOL     OW23410   3.562   1.065   5.009 -0.0974  0.5206  0.3933
37144SOL    HW123411   3.487   1.028   5.056  0.3324 -0.1733  0.5456
37144SOL    HW223412   3.574   1.006   4.934 -0.0377  0.9367  0.0763
37145SOL     OW23413   3.434  12.739   8.505 -0.1984 -0.2999  0.0909
37145SOL    HW123414   3.527  12.740   8.483 -0.1920  0.6269  0.1517
37145SOL    HW223415   3.391  12.783   8.431 -0.5947 -0.7365  0.0552
37146SOL     OW23416   9.156   7.477   0.721 -0.0701 -0.0497  0.4676
37146SOL    HW123417   9.110   7.430   0.651 -1.7064  1.4879  0.4335
37146SOL    HW223418   9.149   7.419   0.797  0.3948 -1.0657 -0.2461
37147SOL     OW23419   3.256  11.209   6.856 -0.3913  0.1012 -0.7826
37147SOL    HW123420   3.212  11.229   6.773 -0.8671 -0.2141 -0.6083
37147SOL    HW223421   3.319  11.141   6.834  1.2893  1.7597 -1.3996
37148SOL     OW23422   3.983   2.531   4.665 -0.2386 -0.0542  0.4364
37148SOL    HW123423   3.904   2.536   4.719  0.3679 -0.9108  1.4575
37148SOL    HW223424   3.983   2.612   4.615 -2.3840 -0.5653 -0.4998
37149SOL     OW23425   4.108   3.853  11.143  0.3553 -0.0044 -0.2716
37149SOL    HW123426   4.150   3.878  11.060  1.8288  0.9072  0.7072
37149SOL    HW223427   4.178   3.812  11.194 -0.0157  1.2221  1.2728
37150SOL     OW23428   4.916   0.877   9.207  0.3450  0.5028  0.4534
37150SOL    HW123429   4.961   0.800   9.171 -1.3590 -1.0294  1.4612
37150SOL    HW223430   4.939   0.876   9.300  0.2778  1.2221  0.4822
37151SOL     OW23431   9.203  11.713   7.804 -0.3251  0.4720  0.9041
37151SOL    HW123432   9.211  11.731   7.710  0.6765 -0.6230  0.7470
37151SOL    HW223433   9.169  11.624   7.808  0.3721  0.2225  1.5578
37152SOL     OW23434   9.854   1.148  10.190 -0.1491  0.5112  0.2129
37152SOL    HW123435   9.796   1.218  10.159 -0.6562  0.6189  1.3522
37152SOL    HW223436   9.867   1.167  10.283  0.0360 -0.6782  0.4489
37153SOL     OW23437   7.265   5.803   1.959 -0.2269 -0.4598 -0.5687
37153SOL    HW123438   7.198   5.741   1.929 -1.9036  1.5276 -1.1899
37153SOL    HW223439   7.218   5.887   1.966  1.0580  0.1323  3.5691
37154SOL     OW23440  12.497   0.130   4.487 -0.1220  0.4330  0.5778
37154SOL    HW123441  12.567   0.161   4.544 -0.4179 -0.5476  1.4904
37154SOL    HW223442  12.504   0.035   4.490  1.0347  0.3050 -2.4770
37155SOL     OW23443   8.532   7.541  11.077 -0.4622 -0.2293  0.2507
37155SOL    HW123444   8.550   7.468  11.135 -0.9606  0.2319  0.9973
37155SOL    HW223445   8.545   7.619  11.130 -3.4096  0.1833  0.5651
37156SOL     OW23446   4.759   5.340   0.049 -0.9660 -0.0570 -0.4405
37156SOL    HW123447   4.772   5.360   0.142  0.0551  1.4934 -0.8722
37156SOL    HW223448   4.822   5.270   0.031  0.5439  1.2171 -0.4368
37157SOL     OW23449   1.703  13.806   2.305  0.4579 -0.2059  0.3426
37157SOL    HW123450   1.673  13.891   2.274 -1.6878 -0.9044  0.3251
37157SOL    HW223451   1.708  13.814   2.400 -0.4254 -0.2465  0.3972
37158SOL     OW23452  12.669   7.069  13.228  0.1012  0.2814 -0.3393
37158SOL    HW123453  12.752   7.107  13.200 -0.7981  1.7109 -1.1680
37158SOL    HW223454  12.630   7.033  13.148  0.4143 -1.4441  0.2359
37159SOL     OW23455  10.885   0.302  10.577 -0.1360  0.3787 -0.2612
37159SOL    HW123456  10.960   0.272  10.630  1.3704 -0.3259 -2.6519
37159SOL    HW223457  10.868   0.231  10.516  0.1685  2.2438 -2.6764
37160SOL     OW23458   0.860   5.677   9.834 -0.0049 -0.1007 -0.0813
37160SOL    HW123459   0.790   5.632   9.788  0.3176 -1.1278  0.3976
37160SOL    HW223460   0.920   5.706   9.766 -0.7730  0.6012 -0.4765
37161SOL     OW23461   3.131   6.592  10.175 -0.2728  0.5290 -0.2408
37161SOL    HW123462   3.040   6.600  10.202 -0.4026 -1.2203 -0.0417
37161SOL    HW223463   3.147   6.669  10.121 -1.7636  1.0285 -0.0120
37162SOL     OW23464   2.059   7.235  13.708  0.3198  0.5142  0.3697
37162SOL    HW123465   1.992   7.190  13.758  0.5065 -0.1945 -0.0084
37162SOL    HW223466   2.020   7.321  13.688 -0.3539  0.2268  0.4100
37163SOL     OW23467   7.860   5.091   4.452 -0.0614  0.0438  0.8564
37163SOL    HW123468   7.851   5.163   4.514  1.8055 -0.0120  1.2642
37163SOL    HW223469   7.822   5.124   4.371 -0.2142  1.0833  1.3340
37164SOL     OW23470  13.599  11.497   7.477  0.0651  0.5061 -0.0072
37164SOL    HW123471  13.562  11.545   7.551  0.3658 -1.4972  1.5489
37164SOL    HW223472  13.693  11.519   7.480  0.3859 -0.8537  1.3381
37165SOL     OW23473  12.349   7.211  11.871 -0.3824  0.3550 -0.0495
37165SOL    HW123474  12.324   7.227  11.961 -0.3900  1.9471 -0.3056
37165SOL    HW223475  12.432   7.257  11.861  0.3333 -0.9966 -0.4734
37166SOL     OW23476  11.763  11.949   7.821  0.3387 -0.0671 -0.5113
37166SOL    HW123477  11.830  12.017   7.830  0.1112  0.0487  0.5395
37166SOL    HW223478  11.742  11.948   7.728  0.3407  1.3211 -0.5584
37167SOL     OW23479   9.937   7.484  11.635  0.6457 -0.0814 -0.7724
37167SOL    HW123480   9.899   7.534  11.562 -2.5322 -2.8699 -1.2690
37167SOL    HW223481  10.011   7.438  11.597  0.4373  0.2753 -1.6346
37168SOL     OW23482   2.170   4.081   6.262 -0.2610  0.3396  0.0193
37168SOL    HW123483   2.138   4.169   6.281  0.9767  0.7552  0.2679
37168SOL    HW223484   2.116   4.023   6.316  0.6650  1.1802  1.9247
37169SOL     OW23485   9.911   1.649   9.513 -0.4900  0.2787  0.7485
37169SOL    HW123486   9.954   1.564   9.509 -1.3158 -0.1333  0.2285
37169SOL    HW223487   9.976   1.708   9.549  0.1543 -0.5416  0.9452
37170SOL     OW23488   2.097  10.450   8.673 -0.1092 -0.7492 -0.0169
37170SOL    HW123489   2.180  10.422   8.711 -0.3388  1.2480  2.2199
37170SOL    HW223490   2.070  10.378   8.617  3.0350 -1.5181 -0.7169
37171SOL     OW23491  10.226  10.623   3.796  0.0396  0.0917  0.2098
37171SOL    HW123492  10.163  10.664   3.856 -0.8919  0.2433 -0.8543
37171SOL    HW223493  10.263  10.551   3.848 -1.3300 -0.2823  0.7331
37172SOL     OW23494   0.097   2.155   7.875  0.2281  0.2411  0.7638
37172SOL    HW123495   0.044   2.113   7.942  1.1820 -0.9649  0.8047
37172SOL    HW223496   0.177   2.182   7.921  0.1697  0.9608  0.4602
37173SOL     OW23497  13.025   4.860   0.022  0.0226 -0.6023 -0.3424
37173SOL    HW123498  13.086   4.869  -0.052 -1.6772 -2.2469 -2.0741
37173SOL    HW223499  12.975   4.941   0.022  0.9983  0.0097 -0.0485
37174SOL     OW23500   9.083   2.144   1.708 -0.2903 -0.0905 -0.4421
37174SOL    HW123501   9.094   2.058   1.749 -0.2599  0.7733  1.4576
37174SOL    HW223502   9.171   2.181   1.706 -0.5693  0.6512  0.5162
37175SOL     OW23503   5.230   7.353  12.733  0.3078 -0.3090 -1.1642
37175SOL    HW123504   5.315   7.391  12.711  0.2696  0.6761  0.2596
37175SOL    HW223505   5.195   7.410  12.802  0.4943 -3.1927  1.5275
37176SOL     OW23506   2.237  10.090   7.011  0.4462 -0.2413  0.3115
37176SOL    HW123507   2.211  10.082   7.103  1.1420 -2.5521  0.3738
37176SOL    HW223508   2.167  10.142   6.971 -0.9381 -0.8950  1.7544
37177SOL     OW23509   7.378   1.377   1.753 -0.0414  0.3551 -0.9117
37177SOL    HW123510   7.460   1.426   1.754  0.9464 -0.8303  3.9018
37177SOL    HW223511   7.405   1.287   1.731 -0.2728  0.2531 -0.7806
37178SOL     OW23512  11.636  12.348   2.875 -0.6056  0.5017  0.4514
37178SOL    HW123513  11.670  12.290   2.806  0.9906  1.3970  0.4259
37178SOL    HW223514  11.619  12.431   2.830 -2.7503  0.1531  0.5109
37179SOL     OW23515   8.060  10.583  13.759 -0.2787  0.3796  0.0077
37179SOL    HW123516   7.998  10.601  13.688  0.8650  0.8090 -0.9210
37179SOL    HW223517   8.143  10.621  13.728  0.6006 -0.7319  0.9266
37180SOL     OW23518   8.980   0.740   4.434 -0.0260  0.5982  0.3306
37180SOL    HW123519   8.922   0.740   4.511  0.6704  0.2056  0.8697
37180SOL    HW223520   9.062   0.776   4.467  0.6429 -0.6382  0.0426
37181SOL     OW23521   2.530  10.306   6.723 -0.2433 -0.3534  0.0963
37181SOL    HW123522   2.539  10.303   6.628 -0.2800  1.5849 -0.0057
37181SOL    HW223523   2.435  10.301   6.738 -0.1649 -2.5953  0.1826
37182SOL     OW23524  10.444   4.564  13.880 -0.4502  0.3211  1.1489
37182SOL    HW123525  10.470   4.625  13.949  0.4029  0.8835  0.3640
37182SOL    HW223526  10.395   4.618  13.817  2.3758  0.8693 -0.7923
37183SOL     OW23527   8.881   9.266  12.972  0.2651  0.2605  0.4267
37183SOL    HW123528   8.857   9.267  12.879 -0.1136 -0.8152  0.4981
37183SOL    HW223529   8.976   9.257  12.972  0.2207 -0.2725  0.1315
37184SOL     OW23530   4.164   3.088  13.515 -0.2157 -0.1802  0.3357
37184SOL    HW123531   4.192   3.000  13.543 -1.4976 -0.8365 -0.3539
37184SOL    HW223532   4.093   3.110  13.575 -0.3658  0.0886  0.0573
37185SOL     OW23533  11.777  11.013   9.884  0.1906 -0.0970 -0.0732
37185SOL    HW123534  11.814  11.084   9.831 -0.0120 -0.3239 -0.5288
37185SOL    HW223535  11.852  10.956   9.902  0.3155  0.1264  0.1256
37186SOL     OW23536  13.004   1.938   8.326 -0.2024 -0.2269  0.3573
37186SOL    HW123537  13.053   2.020   8.322  0.9394 -0.8715  0.6346
37186SOL    HW223538  12.986   1.916   8.234  0.1661 -0.0553  0.2421
37187SOL     OW23539   3.781   2.637  13.322 -0.2117 -0.3121  0.3591
37187SOL    HW123540   3.817   2.666  13.239 -1.1422  1.2937  0.4541
37187SOL    HW223541   3.842   2.670  13.388  1.4377 -3.0202  0.3290
37188SOL     OW23542  11.952   0.758  10.854  0.5717 -0.1402 -0.0037
37188SOL    HW123543  11.866   0.774  10.815  0.0610  0.8557  1.4623
37188SOL    HW223544  12.014   0.783  10.786 -0.2847  2.2046  0.0116
37189SOL     OW23545  13.653  12.919  10.597 -0.5121 -0.1783 -0.2821
37189SOL    HW123546  13.748  12.919  10.588 -0.2538  0.4470  1.9429
37189SOL    HW223547  13.621  12.958  10.515  1.1004 -0.7755 -1.2303
37190SOL     OW23548   8.427   1.591  12.907  0.2357 -0.7328  0.5892
37190SOL    HW123549   8.438   1.496  12.902  1.9292 -0.5640  0.6010
37190SOL    HW223550   8.491   1.619  12.972  0.6149  0.5516 -0.3016
37191SOL     OW23551   9.843  10.265  11.643  0.4990  0.0499 -0.0782
37191SOL    HW123552   9.923  10.217  11.623 -0.1899 -0.9872 -0.3893
37191SOL    HW223553   9.774  10.218  11.598 -0.4697  0.2556  1.1199
37192SOL     OW23554   6.721   7.991   1.568 -0.3095 -0.1893  0.1405
37192SOL    HW123555   6.658   7.942   1.515  0.8072 -1.0554 -0.4345
37192SOL    HW223556   6.736   8.072   1.520 -0.0411 -0.5432 -0.3891
37193SOL     OW23557  11.409   8.762   0.402  0.4223 -0.1312  0.8391
37193SOL    HW123558  11.373   8.822   0.467  1.0940 -0.4534  1.5194
37193SOL    HW223559  11.483   8.809   0.363  0.1738 -0.0349  0.4739
37194SOL     OW23560   3.598   3.780  11.229  0.2409  0.0571 -0.1395
37194SOL    HW123561   3.666   3.747  11.288  0.0134 -1.6634 -0.7599
37194SOL    HW223562   3.523   3.798  11.287  1.1351  1.8574  0.5282
37195SOL     OW23563   8.938   3.584   8.819  0.1988 -0.0061 -0.7171
37195SOL    HW123564   8.932   3.531   8.739 -0.6648 -0.5785 -0.2863
37195SOL    HW223565   8.891   3.665   8.798  3.1680  1.5592 -2.0597
37196SOL     OW23566   3.904   7.529   7.982 -0.1902  0.2377  0.3086
37196SOL    HW123567   3.855   7.447   7.978 -2.2174  1.3565  0.3970
37196SOL    HW223568   3.887   7.563   8.070 -0.3555  1.2701 -0.0973
37197SOL     OW23569  12.279   6.212   1.148 -0.1564  0.3661  0.4736
37197SOL    HW123570  12.292   6.190   1.241 -0.6778 -0.1390  0.4370
37197SOL    HW223571  12.302   6.132   1.101 -1.2308  0.1584  0.2691
37198SOL     OW23572   7.475   0.571  13.781  0.0103  0.4798 -0.3529
37198SOL    HW123573   7.469   0.487  13.827 -1.3372  0.9864  0.4193
37198SOL    HW223574   7.561   0.605  13.806  0.6123 -0.6933 -0.7442
37199SOL     OW23575  13.733   5.901   1.386 -0.0185 -0.1419 -0.2975
37199SOL    HW123576  13.810   5.957   1.386 -0.8686  1.0726 -0.8014
37199SOL    HW223577  13.706   5.896   1.478  0.0609  0.2840 -0.2520
37200SOL     OW23578   9.422   9.099   7.516  0.2731 -0.4513 -0.5777
37200SOL    HW123579   9.387   9.036   7.453 -0.0660 -0.5528 -0.2961
37200SOL    HW223580   9.347   9.119   7.573  1.0078 -1.7882  0.9462
37201SOL     OW23581  10.516   3.695   6.231 -0.5601 -0.2287 -0.6760
37201SOL    HW123582  10.449   3.759   6.256  1.0741  1.0213  0.7340
37201SOL    HW223583  10.563   3.676   6.312 -0.4536 -2.6660 -1.2030
37202SOL     OW23584  12.478   2.322   7.621 -0.3440 -0.2278  0.1214
37202SOL    HW123585  12.515   2.325   7.710  1.6074 -0.1930 -0.6312
37202SOL    HW223586  12.535   2.261   7.574 -0.9986  0.1926 -1.2699
37203SOL     OW23587   3.608   9.048   0.762  0.1464 -0.2484  0.3146
37203SOL    HW123588   3.524   9.070   0.722  0.0753  0.3037  0.7527
37203SOL    HW223589   3.648   8.986   0.701 -0.8723 -1.0465  0.4390
37204SOL     OW23590   1.474   0.938   9.430  0.1945 -0.4799 -0.3206
37204SOL    HW123591   1.535   0.872   9.396  0.3745 -0.9824  0.9405
37204SOL    HW223592   1.433   0.975   9.352  1.5746 -0.6524 -1.1592
37205SOL     OW23593   6.050   6.265  10.882  1.0259  0.3886  0.4449
37205SOL    HW123594   6.010   6.345  10.917  0.4691  0.3263 -0.0411
37205SOL    HW223595   6.131   6.255  10.932  0.1018  0.1299  1.9538
37206SOL     OW23596  10.666   1.115   1.567 -0.0760  0.2316 -0.0685
37206SOL    HW123597  10.636   1.195   1.523 -0.6926 -1.2672 -2.5823
37206SOL    HW223598  10.676   1.051   1.496  1.6431 -1.5844  1.6785
37207SOL     OW23599   0.541   7.664   6.720  0.2207 -0.3033 -0.2407
37207SOL    HW123600   0.598   7.639   6.792  0.1672  1.5963  0.4990
37207SOL    HW223601   0.469   7.601   6.724  0.9970 -1.1827  0.3557
37208SOL     OW23602  11.310   2.360   3.418 -0.1982 -0.4953  0.1455
37208SOL    HW123603  11.360   2.295   3.468 -0.2478 -0.1959  0.5925
37208SOL    HW223604  11.230   2.314   3.393  1.2553 -1.7839 -2.6439
37209SOL     OW23605   8.411   3.823   8.083  0.4383 -0.0499 -0.6002
37209SOL    HW123606   8.393   3.729   8.089  0.5986  0.0032  2.0346
37209SOL    HW223607   8.324   3.863   8.075  0.0820 -0.3283  1.3281
37210SOL     OW23608   3.065   9.776   1.020 -0.1531  0.1160 -0.6219
37210SOL    HW123609   3.040   9.695   0.976 -0.4547  0.2767 -0.7502
37210SOL    HW223610   3.032   9.845   0.963 -1.5470  0.3350  0.3827
37211SOL     OW23611  13.430   5.129   4.792  0.5816  0.3281  0.1196
37211SOL    HW123612  13.396   5.144   4.881  0.7940 -0.2985  0.3101
37211SOL    HW223613  13.434   5.034   4.784 -1.9446  0.2621 -1.5193
37212SOL     OW23614   3.451  13.326   0.222  0.8475 -0.3210  0.3270
37212SOL    HW123615   3.429  13.281   0.141  1.5699 -0.3536  0.1358
37212SOL    HW223616   3.400  13.407   0.219 -0.4412 -1.0940  0.6631
37213SOL     OW23617  14.008   3.510   6.477  0.6459  0.2230  0.7216
37213SOL    HW123618  13.991   3.419   6.455 -2.5314  0.4490  1.7400
37213SOL    HW223619  14.084   3.508   6.535 -0.6067 -2.0399  2.4034
37214SOL     OW23620  11.094   9.472   2.952 -0.1215  0.3005 -0.1667
37214SOL    HW123621  11.148   9.437   2.882 -0.4916 -0.7350  0.0461
37214SOL    HW223622  11.154   9.525   3.005  0.7005 -0.8793  0.1034
37215SOL     OW23623   8.120  13.439  13.970  0.1915 -0.0416 -0.4336
37215SOL    HW123624   8.111  13.344  13.962  0.7548 -0.2278  0.8549
37215SOL    HW223625   8.092  13.458  14.060 -0.8930  1.1537 -0.9875
37216SOL     OW23626   4.749  11.777   8.184 -0.3085 -0.2423 -0.0424
37216SOL    HW123627   4.726  11.828   8.262  0.3735  1.6887 -1.0382
37216SOL    HW223628   4.833  11.736   8.206 -1.4725 -2.0897  1.2414
37217SOL     OW23629   0.541   9.327   2.563  0.2434  0.3632  0.0658
37217SOL    HW123630   0.501   9.401   2.517  0.0978 -0.4827 -1.2449
37217SOL    HW223631   0.629   9.358   2.587  0.6851  0.5651 -1.6383
37218SOL     OW23632  11.394  13.069   5.222 -0.2859 -0.2368  0.0671
37218SOL    HW123633  11.354  13.032   5.143 -2.4658  1.6532  0.1842
37218SOL    HW223634  11.484  13.088   5.197 -0.3957 -1.4178 -1.3489
37219SOL     OW23635   3.060   0.122   9.663  0.5248  0.0792  0.6114
37219SOL    HW123636   3.116   0.069   9.605 -1.5871 -1.9461  0.2870
37219SOL    HW223637   3.054   0.071   9.743 -1.6458 -0.2971  0.2593
37220SOL     OW23638  11.743  12.682  13.334  0.0228 -0.2870  1.0268
37220SOL    HW123639  11.811  12.662  13.399 -0.7967  2.1711  2.8085
37220SOL    HW223640  11.664  12.643  13.370  0.1038 -1.7160 -0.2222
37221SOL     OW23641   9.784   7.655  13.749  0.1388 -0.2993  0.3448
37221SOL    HW123642   9.744   7.704  13.821  0.1365  1.6380 -0.8830
37221SOL    HW223643   9.878   7.666  13.762  0.1536 -0.5019  0.4122
37222SOL     OW23644  10.945   1.618  13.437 -0.0839  0.7623  0.3001
37222SOL    HW123645  10.978   1.618  13.526  0.1692  0.9575  0.2065
37222SOL    HW223646  10.877   1.686  13.436 -2.8048 -1.7347  1.3339
37223SOL     OW23647   9.565   8.732   3.298  0.2017  0.7359  0.1184
37223SOL    HW123648   9.515   8.784   3.361 -2.4310 -1.7516  0.2512
37223SOL    HW223649   9.594   8.655   3.348  0.2945 -0.0376 -1.0829
37224SOL     OW23650   3.538   3.002   1.223  0.0782 -0.1356  0.2339
37224SOL    HW123651   3.473   2.958   1.167 -0.2818 -1.7582  1.8277
37224SOL    HW223652   3.488   3.032   1.299  0.5668  1.9827 -0.2303
37225SOL     OW23653   5.565   1.230   4.546 -0.2697 -0.0620  0.1431
37225SOL    HW123654   5.507   1.274   4.484 -0.0156 -0.5182 -0.4331
37225SOL    HW223655   5.637   1.292   4.559  0.7748 -0.7988 -1.7141
37226SOL     OW23656   0.608   0.456   2.637  0.1646  0.3416  0.4785
37226SOL    HW123657   0.588   0.437   2.729  0.2829  0.5743  0.5533
37226SOL    HW223658   0.642   0.545   2.638  1.6175 -0.1765  0.4238
37227SOL     OW23659  10.590   0.735   3.597 -0.1144 -0.0541 -0.2922
37227SOL    HW123660  10.523   0.668   3.606  0.0594 -0.0256  1.5725
37227SOL    HW223661  10.663   0.705   3.651  0.0618  1.4873  0.4039
37228SOL     OW23662   0.652   8.187   4.178 -0.0316 -0.0267  0.0190
37228SOL    HW123663   0.735   8.182   4.225 -0.1960  1.0306  0.4336
37228SOL    HW223664   0.605   8.260   4.218  0.3017  1.7050 -2.5240
37229SOL     OW23665  11.978   4.110  13.793  0.2671 -0.4997 -0.2545
37229SOL    HW123666  11.969   4.015  13.797  1.1064 -0.5371  1.5286
37229SOL    HW223667  12.072   4.125  13.794  0.1448  0.3543 -0.6830
37230SOL     OW23668  10.727   6.035   3.762 -0.1611  0.1857 -0.8238
37230SOL    HW123669  10.777   5.967   3.808 -0.9155 -0.1361 -0.4680
37230SOL    HW223670  10.776   6.050   3.681  0.1226 -0.6332 -0.8145
37231SOL     OW23671  12.874   5.834   9.669 -0.1274  0.3452  0.2993
37231SOL    HW123672  12.944   5.857   9.607 -0.8157 -0.7550 -0.9364
37231SOL    HW223673  12.853   5.743   9.648 -2.6727  0.9562 -0.1456
37232SOL     OW23674  13.032   3.063   7.335 -0.3098 -0.2359 -0.2906
37232SOL    HW123675  13.018   3.119   7.411 -1.4609  1.9444 -1.9766
37232SOL    HW223676  13.124   3.036   7.341  0.2137  1.6134  0.7752
37233SOL     OW23677   1.114   8.048   9.368 -0.0554  0.2243  0.0568
37233SOL    HW123678   1.081   8.137   9.379 -1.2970  0.0376 -1.8041
37233SOL    HW223679   1.104   8.029   9.275  0.0110 -1.9301  0.4303
37234SOL     OW23680   7.222   7.951   9.807  0.2016  0.2223 -0.5306
37234SOL    HW123681   7.236   8.035   9.764 -1.8962  1.1996  0.5372
37234SOL    HW223682   7.212   7.972   9.900  0.2570 -1.2865 -0.1460
37235SOL     OW23683  13.238  12.415  11.013  0.2181 -0.0612 -0.2024
37235SOL    HW123684  13.313  12.466  10.982  1.0930 -1.3184 -0.1988
37235SOL    HW223685  13.197  12.382  10.933 -0.9571  1.4247 -0.2651
37236SOL     OW23686   3.949   2.344   7.528 -0.3940  0.5269 -0.3222
37236SOL    HW123687   3.965   2.264   7.579 -0.9358 -0.1174 -1.1360
37236SOL    HW223688   3.858   2.366   7.545 -0.0951  1.2951  0.3280
37237SOL     OW23689   4.749  13.343  10.010  0.0450  0.0075 -0.6499
37237SOL    HW123690   4.681  13.369   9.948  0.2057 -0.3729 -0.9899
37237SOL    HW223691   4.702  13.297  10.080 -0.1027  0.1648 -0.6469
37238SOL     OW23692  11.227   4.478   5.104 -0.3092  0.3430  0.1060
37238SOL    HW123693  11.181   4.553   5.144 -2.9529 -1.4892  0.8027
37238SOL    HW223694  11.156   4.422   5.072  1.5156 -2.2218  0.2942
37239SOL     OW23695   4.221   9.107   0.137 -0.2345  0.1721 -0.2355
37239SOL    HW123696   4.147   9.058   0.100  0.4265  0.1177 -1.5642
37239SOL    HW223697   4.213   9.095   0.231 -2.3922  0.8580 -0.2689
37240SOL     OW23698   7.602   2.663  13.066 -0.4054 -0.3649  0.0220
37240SOL    HW123699   7.515   2.695  13.043 -0.1201  0.1264 -0.4092
37240SOL    HW223700   7.609   2.676  13.160 -1.1090 -1.1937  0.2032
37241SOL     OW23701   2.776   4.544   3.661 -0.3828  0.0244  0.5747
37241SOL    HW123702   2.832   4.584   3.594  0.9751  0.6040  2.0108
37241SOL    HW223703   2.713   4.612   3.684  0.8552  0.8070  1.7910
37242SOL     OW23704  10.950   6.510  13.104  0.1839  0.4529  0.2956
37242SOL    HW123705  10.973   6.602  13.090  0.8964  0.2973  0.4181
37242SOL    HW223706  11.017   6.477  13.164 -0.5520  0.0710  0.9161
37243SOL     OW23707   5.384   5.484   5.149  0.4058 -0.1222  0.1083
37243SOL    HW123708   5.332   5.447   5.078 -0.8200  0.0705  0.8805
37243SOL    HW223709   5.327   5.480   5.225  1.3373  0.5982  0.8683
37244SOL     OW23710   9.777  13.377  10.564 -0.3625  0.3085  0.4578
37244SOL    HW123711   9.763  13.456  10.512  0.2460  0.4293  0.4705
37244SOL    HW223712   9.758  13.403  10.654  0.8648  0.7351  0.6081
37245SOL     OW23713  12.643   6.703   7.887 -0.0847 -0.3916 -0.4721
37245SOL    HW123714  12.643   6.647   7.965  0.3870 -1.9643 -1.5579
37245SOL    HW223715  12.728   6.688   7.846  0.2303  1.4727 -0.5972
37246SOL     OW23716  13.135   2.087   5.067 -0.0198 -0.0351 -0.0416
37246SOL    HW123717  13.218   2.082   5.114  0.3219 -2.4999 -0.7592
37246SOL    HW223718  13.125   2.179   5.045  0.8809  0.8895  2.8836
37247SOL     OW23719   0.468   3.273   2.856  0.8793 -0.2441  0.0800
37247SOL    HW123720   0.427   3.186   2.852 -0.9585  0.5437  0.4921
37247SOL    HW223721   0.397   3.331   2.883  1.8449  1.5377 -1.0172
37248SOL     OW23722   0.140  13.075   8.986 -0.3276  0.2172  0.1215
37248SOL    HW123723   0.138  13.131   8.909  0.6195  0.2010  0.0670
37248SOL    HW223724   0.067  13.104   9.040 -0.5309  0.7395 -0.4288
37249SOL     OW23725   2.610   4.374   1.743  0.4004 -0.0844  1.3807
37249SOL    HW123726   2.612   4.427   1.823  0.2177  2.3766 -0.1372
37249SOL    HW223727   2.634   4.435   1.673 -1.2086 -1.6646 -0.6922
37250SOL     OW23728   7.980  13.254  13.744  0.1566 -0.0411 -0.0669
37250SOL    HW123729   8.031  13.214  13.815 -0.2003  1.6901  1.2122
37250SOL    HW223730   7.889  13.228  13.762  0.1414 -0.1301 -0.2678
37251SOL     OW23731   5.718  11.322   7.336 -0.3738 -0.2397  0.2545
37251SOL    HW123732   5.789  11.386   7.329 -1.6358  1.0253 -1.4785
37251SOL    HW223733   5.655  11.363   7.395  0.3670 -1.4952  2.0371
37252SOL     OW23734   4.682   5.156   4.386  0.0080  0.1643  0.3277
37252SOL    HW123735   4.671   5.068   4.350 -0.0552  0.2316  0.1825
37252SOL    HW223736   4.654   5.148   4.477  0.7375 -0.1505  0.5350
37253SOL     OW23737  11.908   6.531   4.643  0.5686 -0.3302  0.0496
37253SOL    HW123738  11.881   6.499   4.729  2.1002 -2.9110 -0.3368
37253SOL    HW223739  11.850   6.487   4.581 -1.7697  2.8755 -0.3329
37254SOL     OW23740  10.323  10.634  10.632  0.3380 -0.1742  0.2783
37254SOL    HW123741  10.394  10.698  10.634  0.6578 -0.4604  3.4129
37254SOL    HW223742  10.288  10.634  10.721 -0.6290 -3.2888  0.0195
37255SOL     OW23743  12.221   8.808   6.053 -0.1025 -0.1008  0.4003
37255SOL    HW123744  12.177   8.733   6.013  0.4050 -0.9708  1.4177
37255SOL    HW223745  12.163   8.834   6.124 -1.9904  2.6781 -1.9323
37256SOL     OW23746   3.771   8.797   7.825 -0.2780  0.5308  0.1524
37256SOL    HW123747   3.737   8.879   7.789  2.1127  1.1850 -0.8541
37256SOL    HW223748   3.786   8.816   7.918  1.7706  1.9018 -0.3695
37257SOL     OW23749   3.179   6.030  12.253 -0.1010 -0.3625  0.4894
37257SOL    HW123750   3.155   6.092  12.322  0.5032 -1.1071  1.3904
37257SOL    HW223751   3.274   6.018  12.264 -0.2098 -1.4333  0.3210
37258SOL     OW23752   0.677   0.512   5.076 -0.4688 -0.5042  0.0827
37258SOL    HW123753   0.636   0.476   5.154 -0.7593  2.4733  1.4616
37258SOL    HW223754   0.770   0.490   5.084 -0.2335  0.8944  2.0958
37259SOL     OW23755  10.684  12.420   2.557 -0.0828  0.7193  0.0198
37259SOL    HW123756  10.639  12.389   2.478  1.2192  1.8021 -1.2070
37259SOL    HW223757  10.753  12.355   2.572  0.1453  0.9106 -0.1918
37260SOL     OW23758  13.201  12.340   5.459 -0.3708 -0.4183  0.3816
37260SOL    HW123759  13.144  12.266   5.474 -1.8812  0.0266 -2.4736
37260SOL    HW223760  13.143  12.416   5.460 -0.1050  0.0011 -3.0890
37261SOL     OW23761   3.073   2.484  10.457 -0.0465  0.0525  0.0941
37261SOL    HW123762   2.999   2.479  10.518  1.1880  0.2018  1.6829
37261SOL    HW223763   3.052   2.556  10.398 -1.5199 -0.4353 -0.0078
37262SOL     OW23764   7.042   9.933  10.949 -0.7996 -0.3106  0.1102
37262SOL    HW123765   6.974   9.959  11.012 -1.3895 -0.4839 -0.4434
37262SOL    HW223766   7.124   9.952  10.993 -1.1945  1.7580  0.0462
37263SOL     OW23767  10.331  10.859  10.374  0.1403 -0.6538 -0.2019
37263SOL    HW123768  10.388  10.847  10.451 -0.2743 -4.4085 -0.2596
37263SOL    HW223769  10.386  10.833  10.300 -0.8013 -1.7473 -0.5560
37264SOL     OW23770   3.043   0.883   6.470 -0.1161  0.3881 -0.1531
37264SOL    HW123771   3.008   0.798   6.442  1.6442 -0.3600 -0.1705
37264SOL    HW223772   3.084   0.865   6.555 -0.6402  1.4622  0.3407
37265SOL     OW23773   3.065  10.999  11.300  0.0927  0.1022 -0.5579
37265SOL    HW123774   3.117  10.938  11.351  0.3238 -0.2619 -1.2149
37265SOL    HW223775   3.057  11.076  11.356 -1.5612 -1.0925  0.9416
37266SOL     OW23776  11.206   2.289  12.700  0.5007  0.2318 -0.5039
37266SOL    HW123777  11.136   2.326  12.646 -1.5810  0.7197  2.2896
37266SOL    HW223778  11.190   2.195  12.698 -0.1319  0.3282 -0.0037
37267SOL     OW23779   0.277   7.565   6.778 -0.5861 -0.3527 -0.6197
37267SOL    HW123780   0.213   7.493   6.771 -1.9262  0.8631 -1.3918
37267SOL    HW223781   0.227   7.644   6.757  0.7077  0.9026  0.7635
37268SOL     OW23782  13.819  11.697   3.603 -0.1897  0.3832  0.1306
37268SOL    HW123783  13.727  11.690   3.629 -0.1794 -1.7570 -0.2415
37268SOL    HW223784  13.868  11.694   3.685 -0.4230  0.5429  0.2743
37269SOL     OW23785   6.359   1.903   5.736  0.3181  0.2316 -0.0791
37269SOL    HW123786   6.270   1.887   5.703  0.3752 -1.4297  0.4556
37269SOL    HW223787   6.379   1.992   5.708 -0.1796 -0.5296 -3.2409
37270SOL     OW23788   7.651   0.647   8.823 -0.2693 -0.6107 -0.1318
37270SOL    HW123789   7.691   0.562   8.840  0.4697 -0.2517 -0.0710
37270SOL    HW223790   7.619   0.642   8.733  2.2630 -0.0030 -1.1483
37271SOL     OW23791   3.523   5.170  13.171  0.3310 -0.1532 -0.2254
37271SOL    HW123792   3.521   5.222  13.091 -0.2809  1.0923  0.5522
37271SOL    HW223793   3.610   5.185  13.208  0.4368 -0.3265 -0.4034
37272SOL     OW23794   8.553   1.246  13.683 -0.3804 -0.4378 -0.0584
37272SOL    HW123795   8.509   1.218  13.763 -0.0775 -0.0831  0.2310
37272SOL    HW223796   8.491   1.223  13.613 -0.7822 -0.4586  0.3007
37273SOL     OW23797  13.281   2.991   3.041 -0.7065  0.2054 -0.2803
37273SOL    HW123798  13.329   2.924   2.992  0.0188 -0.9931  1.9649
37273SOL    HW223799  13.348   3.055   3.065 -0.7888  0.0904  0.2656
37274SOL     OW23800   2.598   8.977   4.522 -0.1614 -0.4857 -0.5425
37274SOL    HW123801   2.511   8.943   4.501 -0.5888 -0.0537  0.4229
37274SOL    HW223802   2.605   8.968   4.617  1.8004 -2.6546 -0.8151
37275SOL     OW23803  13.795   5.846   4.405 -0.3083  0.1336  0.8590
37275SOL    HW123804  13.734   5.899   4.354 -1.4227 -0.6315  1.3410
37275SOL    HW223805  13.761   5.757   4.398  1.1783 -0.4477  0.5625
37276SOL     OW23806   6.529  13.649  10.710  0.3823  0.3344 -0.4769
37276SOL    HW123807   6.532  13.738  10.746 -1.6897  1.0332 -1.8543
37276SOL    HW223808   6.544  13.592  10.785  0.7530  1.8061  0.6183
37277SOL     OW23809   4.998   6.333   5.473 -0.3545  0.4372 -0.5164
37277SOL    HW123810   5.023   6.259   5.418 -2.4073 -0.5570 -0.1924
37277SOL    HW223811   4.909   6.355   5.445 -1.2773  0.2238  2.0097
37278SOL     OW23812   1.707   4.026   6.924 -0.1491  0.6007  0.2512
37278SOL    HW123813   1.761   3.948   6.908  1.0053  1.8427 -2.3760
37278SOL    HW223814   1.620   3.990   6.944  0.6541 -1.3664  0.5226
37279SOL     OW23815   4.586  11.131  13.170  0.4823 -0.0507  0.1849
37279SOL    HW123816   4.530  11.056  13.188  0.5596  0.2669  1.9321
37279SOL    HW223817   4.524  11.203  13.155  0.4134 -0.3227 -0.8711
37280SOL     OW23818  10.329   3.092   3.831  0.3899 -0.2465 -0.2437
37280SOL    HW123819  10.287   3.149   3.767  0.2783 -0.9639 -0.8253
37280SOL    HW223820  10.280   3.106   3.912 -0.2434 -0.2215 -0.6239
37281SOL     OW23821  13.627   2.421  11.180 -0.0799 -0.5265 -0.2842
37281SOL    HW123822  13.699   2.473  11.145 -0.2438 -0.2257 -0.1770
37281SOL    HW223823  13.654   2.330  11.164  0.1253 -0.4079 -0.6342
37282SOL     OW23824   0.693  13.060   2.603  0.7369  0.2349  0.0675
37282SOL    HW123825   0.785  13.040   2.588  0.5059 -0.7721 -0.0662
37282SOL    HW223826   0.668  13.006   2.678  0.1959  0.3429 -0.0301
37283SOL     OW23827   3.126   3.028  11.285  0.2663  0.1455 -0.6315
37283SOL    HW123828   3.084   2.996  11.205 -1.3013 -0.2665  0.2987
37283SOL    HW223829   3.131   3.123  11.273 -1.6572  0.3174 -0.5269
37284SOL     OW23830  13.161  12.668  11.835  0.3480  0.6034 -0.4577
37284SOL    HW123831  13.096  12.732  11.865  1.3301  1.1270  0.6743
37284SOL    HW223832  13.199  12.707  11.757 -0.7108  0.2752 -1.1491
37285SOL     OW23833  12.626   2.483  13.273  0.2663 -0.0372 -0.2705
37285SOL    HW123834  12.692   2.544  13.306  1.1231 -0.6664 -0.7727
37285SOL    HW223835  12.551   2.538  13.252  0.4726  0.6365  0.7234
37286SOL     OW23836   8.619   9.311   1.671 -0.3377  0.1618  0.0820
37286SOL    HW123837   8.543   9.256   1.652  0.5284 -0.5288 -1.5629
37286SOL    HW223838   8.617   9.378   1.604  0.5698  0.0722 -0.0436
37287SOL     OW23839  13.893   0.494   3.700  0.4334  0.8403 -0.1797
37287SOL    HW123840  13.886   0.571   3.757  0.2597  0.6621  0.0414
37287SOL    HW223841  13.828   0.432   3.735  0.1302  0.8346 -0.7327
37288SOL     OW23842   4.605   2.155   2.340 -0.0396  0.7523 -0.0996
37288SOL    HW123843   4.630   2.064   2.359 -0.1733 -0.3741 -4.3881
37288SOL    HW223844   4.598   2.196   2.427 -1.3748 -3.6155  2.1764
37289SOL     OW23845   0.464   5.912   3.988 -0.2749  0.5845 -0.5255
37289SOL    HW123846   0.375   5.899   3.955 -1.2283 -0.2877  2.1709
37289SOL    HW223847   0.509   5.830   3.969 -0.0217  0.9850 -1.7846
37290SOL     OW23848   3.756   4.793   0.449  0.4383 -0.8496  0.0977
37290SOL    HW123849   3.757   4.880   0.410  1.9817 -0.3008  1.2760
37290SOL    HW223850   3.807   4.739   0.389  0.2382 -0.7331 -0.1776
37291SOL     OW23851   0.141  12.583  11.484 -0.5400  0.5024  0.2181
37291SOL    HW123852   0.101  12.667  11.503  0.0830  0.7504  0.4511
37291SOL    HW223853   0.067  12.521  11.483 -0.7429  0.6292  2.5111
37292SOL     OW23854   2.148   7.589   9.942  0.2747 -0.4261  0.2763
37292SOL    HW123855   2.102   7.638   9.873  1.0073 -0.5517 -0.3089
37292SOL    HW223856   2.097   7.508   9.951 -1.9856  1.1059  2.4715
37293SOL     OW23857  13.040   3.249  12.229  0.6596 -0.6433 -0.1566
37293SOL    HW123858  13.033   3.316  12.298 -0.4781 -0.8796 -0.0238
37293SOL    HW223859  13.078   3.174  12.274 -1.3928 -1.2898  0.6217
37294SOL     OW23860  12.000   5.115   7.445 -0.0134  0.3123 -0.5859
37294SOL    HW123861  11.961   5.037   7.404  0.8713 -0.8895  0.7772
37294SOL    HW223862  11.931   5.149   7.502  0.0584 -0.3089 -0.1197
37295SOL     OW23863  12.037  13.797   2.959  0.1729  0.0997 -0.1540
37295SOL    HW123864  12.099  13.870   2.960 -1.0312  1.1452  0.0211
37295SOL    HW223865  11.958  13.833   2.919 -0.4738 -1.0886  0.0126
37296SOL     OW23866   5.206   4.127   0.022  0.1809 -0.3977  0.0324
37296SOL    HW123867   5.190   4.035   0.042 -0.0061  0.1280  2.6699
37296SOL    HW223868   5.118   4.164   0.008  0.1386 -0.3229  0.4891
37297SOL     OW23869   0.159  12.242  10.249 -0.1183 -0.5720  0.4695
37297SOL    HW123870   0.149  12.163  10.302 -2.5125 -1.0642 -0.5823
37297SOL    HW223871   0.148  12.315  10.310 -0.0375 -1.0893  1.1032
37298SOL     OW23872   1.760   4.453   0.151 -1.0286  0.5701 -0.3431
37298SOL    HW123873   1.761   4.442   0.246 -1.4325  3.5331  0.1235
37298SOL    HW223874   1.829   4.518   0.134 -0.9523  0.0712 -2.0826
37299SOL     OW23875  13.741   6.307   7.644  0.0997  0.7821 -0.1072
37299SOL    HW123876  13.659   6.258   7.643  1.1239 -1.0323 -1.4725
37299SOL    HW223877  13.756   6.331   7.553  2.1180 -0.8463 -0.2791
37300SOL     OW23878  11.391  11.276  14.018  0.3317  0.3537  0.0790
37300SOL    HW123879  11.344  11.320  14.088 -2.1970  0.5210 -1.5860
37300SOL    HW223880  11.444  11.344  13.977 -0.7994  1.0572 -0.2484
37301SOL     OW23881   9.490   9.467   1.051 -0.4473 -0.4201 -0.1497
37301SOL    HW123882   9.540   9.421   0.984 -0.3816 -0.5532 -0.0097
37301SOL    HW223883   9.543   9.545   1.070 -0.5861 -0.2579 -0.4248
37302SOL     OW23884   5.629   3.338  10.345 -0.9742 -0.2898  0.0737
37302SOL    HW123885   5.675   3.279  10.286 -1.5234 -1.1337  0.4798
37302SOL    HW223886   5.641   3.300  10.432 -0.5381  0.7064  0.4635
37303SOL     OW23887   8.966   8.116   6.811  0.0776 -0.3114  0.6922
37303SOL    HW123888   9.056   8.149   6.805  0.0245 -0.0615  1.2415
37303SOL    HW223889   8.975   8.021   6.809  0.2463 -0.2876 -0.6816
37304SOL     OW23890   1.416  10.866   6.202  0.0867  0.6457  0.0084
37304SOL    HW123891   1.488  10.803   6.208 -0.4009  0.2390  2.6914
37304SOL    HW223892   1.459  10.949   6.183  1.1487  0.1773  0.2687
37305SOL     OW23893  11.689  11.007   4.936  0.0678  1.0325 -0.3662
37305SOL    HW123894  11.663  11.095   4.906 -0.2489  1.1423  0.2136
37305SOL    HW223895  11.714  11.020   5.027 -0.9297  0.3550  0.0207
37306SOL     OW23896   6.257   6.665   2.868  0.0470 -0.3641  0.0985
37306SOL    HW123897   6.333   6.654   2.812 -0.4904 -0.6207 -0.5994
37306SOL    HW223898   6.195   6.599   2.838  0.5090 -1.9477  2.3806
37307SOL     OW23899   8.181  13.024   5.016 -0.4711  0.0261 -0.0531
37307SOL    HW123900   8.156  13.090   5.081 -0.7303 -0.4132  0.3025
37307SOL    HW223901   8.099  12.980   4.994 -0.0964 -1.1624  0.8195
37308SOL     OW23902   4.068   4.429  11.001 -0.9679 -0.6178 -0.3750
37308SOL    HW123903   4.039   4.338  11.002 -2.7797 -0.0789 -0.6633
37308SOL    HW223904   4.143   4.430  10.942 -1.3860 -1.7770 -0.9505
37309SOL     OW23905  11.173   2.443   9.743 -0.3111 -0.2437 -0.1404
37309SOL    HW123906  11.188   2.429   9.650 -0.7552 -1.3786 -0.0508
37309SOL    HW223907  11.088   2.402   9.761  0.2241 -0.9213  0.9514
37310SOL     OW23908  12.837  11.964   8.309  0.1197 -0.2125 -0.0633
37310SOL    HW123909  12.916  11.909   8.310 -0.3777 -0.9515 -0.4401
37310SOL    HW223910  12.816  11.977   8.401 -0.9896 -2.5017  0.0759
37311SOL     OW23911   3.433   3.764  11.922 -0.3400  0.1129 -0.2633
37311SOL    HW123912   3.491   3.749  11.997 -0.8493  0.1139  0.1402
37311SOL    HW223913   3.475   3.718  11.849 -0.2148 -0.5191  0.1982
37312SOL     OW23914   4.779   8.703   3.698 -0.2805  0.4079  0.4990
37312SOL    HW123915   4.821   8.769   3.642  0.7458 -0.6311  0.0121
37312SOL    HW223916   4.777   8.743   3.785  0.7752  0.8966  0.3073
37313SOL     OW23917  12.492   7.980   4.697 -0.7970 -0.0908 -0.1815
37313SOL    HW123918  12.538   8.002   4.778  0.0372  0.5956 -0.8280
37313SOL    HW223919  12.442   7.901   4.719 -0.4938  0.0181  0.9634
37314SOL     OW23920   4.362  13.531  11.861 -0.1720 -0.0098  0.1905
37314SOL    HW123921   4.361  13.471  11.786 -0.0715  0.3175 -0.0736
37314SOL    HW223922   4.318  13.610  11.829  1.1332  0.6717  0.0283
37315SOL     OW23923   8.618  13.501   4.403 -0.2062 -0.1004 -0.1506
37315SOL    HW123924   8.598  13.582   4.357 -0.4979 -1.1108 -1.8770
37315SOL    HW223925   8.667  13.529   4.480 -1.5861  1.8210  0.1065
37316SOL     OW23926  12.673   0.295   3.235  0.3412  0.2027 -0.1922
37316SOL    HW123927  12.667   0.369   3.296  0.2902  1.2746 -1.4430
37316SOL    HW223928  12.664   0.217   3.290 -1.1690  1.1521  0.9895
37317SOL     OW23929   1.097  11.006   9.829  0.0771  0.0394  0.2861
37317SOL    HW123930   1.023  11.056   9.865  0.1697 -0.1302  0.7152
37317SOL    HW223931   1.090  10.920   9.871  0.7315  0.1399  0.6051
37318SOL     OW23932   7.721   6.617   3.355  0.1974 -0.2632 -0.5929
37318SOL    HW123933   7.694   6.666   3.277  2.3251  2.0036 -0.0321
37318SOL    HW223934   7.672   6.656   3.427 -0.1986 -0.9240 -0.4923
37319SOL     OW23935   2.042   1.556   5.190 -0.6370 -0.0191 -0.4355
37319SOL    HW123936   1.948   1.537   5.188 -0.2620 -2.5246  1.5999
37319SOL    HW223937   2.080   1.492   5.130 -0.1575  0.8968 -1.1412
37320SOL     OW23938   8.587   4.622   7.895  0.6272  0.0172 -0.3767
37320SOL    HW123939   8.643   4.669   7.834 -0.6290 -0.4275 -1.9601
37320SOL    HW223940   8.527   4.573   7.839 -0.4412 -0.6042  1.2323
37321SOL     OW23941   6.788   9.159   9.556  0.0481  0.2164 -0.2293
37321SOL    HW123942   6.721   9.209   9.602 -0.8375 -0.8570 -0.3392
37321SOL    HW223943   6.849   9.226   9.524  1.6491  1.0151  3.8251
37322SOL     OW23944  11.659  13.833   6.291  0.2487  0.3292  0.1134
37322SOL    HW123945  11.700  13.916   6.316 -1.8766  1.8720 -1.1313
37322SOL    HW223946  11.582  13.827   6.348 -1.0713  0.6213 -1.5568
37323SOL     OW23947   9.773   0.791   3.454 -0.0733  0.6436  0.6489
37323SOL    HW123948   9.761   0.791   3.549 -0.5594  0.5884  0.5899
37323SOL    HW223949   9.688   0.816   3.420  0.2574  1.2530  0.2462
37324SOL     OW23950   3.749   3.426  11.611  0.2878 -0.0341  0.0558
37324SOL    HW123951   3.683   3.452  11.547  0.0159  0.2390  0.4423
37324SOL    HW223952   3.744   3.331  11.613 -0.6101  0.0191  0.6257
37325SOL     OW23953   1.030   3.202   7.313 -0.1037 -0.2081 -0.2495
37325SOL    HW123954   1.030   3.107   7.300  0.2034 -0.1513 -0.6947
37325SOL    HW223955   1.037   3.238   7.224 -3.0445  0.2894 -0.3873
37326SOL     OW23956   3.782   2.426  13.783 -0.4316  0.1095 -0.5021
37326SOL    HW123957   3.825   2.509  13.805  0.1078 -0.4712  0.7427
37326SOL    HW223958   3.703   2.451  13.736 -0.3048  1.3259 -0.0943
37327SOL     OW23959  10.304  13.773   5.895  0.1047  0.0092  0.0997
37327SOL    HW123960  10.381  13.718   5.914  0.3602 -0.2358 -1.4679
37327SOL    HW223961  10.232  13.710   5.889 -0.5917  0.3767  3.0496
37328SOL     OW23962  13.460   5.060   0.801 -0.4034  0.0025 -0.1195
37328SOL    HW123963  13.432   5.027   0.887  1.2374 -2.2829 -0.3564
37328SOL    HW223964  13.529   5.123   0.820 -0.4112 -0.1034  0.2668
37329SOL     OW23965  13.756   4.865  10.221  0.6739  0.0072  0.5269
37329SOL    HW123966  13.822   4.798  10.239 -0.4093 -1.2553 -0.0222
37329SOL    HW223967  13.672   4.819  10.227 -0.1778  1.5454  1.1204
37330SOL     OW23968   1.901   4.718   4.485  0.2758 -0.2982 -0.2633
37330SOL    HW123969   1.926   4.685   4.399 -0.9812 -0.9208 -0.4104
37330SOL    HW223970   1.982   4.756   4.520  0.8077 -0.0218 -1.7076
37331SOL     OW23971  10.942   5.162   1.718 -0.3983 -0.1341 -0.5322
37331SOL    HW123972  10.914   5.240   1.669  0.5777  0.7791  0.2911
37331SOL    HW223973  10.925   5.184   1.810  0.2564 -0.7294 -0.2598
37332SOL     OW23974  11.394   9.920  11.655  0.1579 -0.1490  0.4635
37332SOL    HW123975  11.443   9.843  11.627 -0.1375  0.0695 -0.7096
37332SOL    HW223976  11.460   9.978  11.693  0.6316 -0.3249 -0.0833
37333SOL     OW23977   0.691   6.910   7.004 -0.0728  0.4367 -0.5725
37333SOL    HW123978   0.718   6.824   7.037 -3.2474 -0.3611  0.3084
37333SOL    HW223979   0.616   6.934   7.059 -0.9172  2.5645 -2.4923
37334SOL     OW23980   1.024   2.848   6.129  0.0601 -0.0394 -0.0368
37334SOL    HW123981   0.967   2.872   6.202  2.0611  0.8238  1.3352
37334SOL    HW223982   1.037   2.754   6.138 -0.8425 -0.1858 -0.1668
37335SOL     OW23983  11.185   1.890  11.140  0.1545 -0.5120 -0.0301
37335SOL    HW123984  11.265   1.870  11.188 -0.3661 -0.5686  0.8325
37335SOL    HW223985  11.121   1.911  11.208 -0.2333  0.7789 -0.7618
37336SOL     OW23986   7.854  13.940   6.100 -0.5356  0.1081  0.1212
37336SOL    HW123987   7.916  13.867   6.097 -0.8564 -0.1726  0.1207
37336SOL    HW223988   7.908  14.018   6.110 -0.0346  0.0783 -1.8402
37337SOL     OW23989   8.015  13.928   4.547 -0.3938 -0.7822  0.2782
37337SOL    HW123990   7.976  13.855   4.595  0.3260 -2.4879 -1.5725
37337SOL    HW223991   8.064  13.886   4.476 -1.0134  1.5493 -1.6631
37338SOL     OW23992  13.213   4.696  10.036  0.1057  0.0862 -0.0419
37338SOL    HW123993  13.249   4.689   9.947  0.0125  0.6926 -0.1335
37338SOL    HW223994  13.164   4.779  10.035 -0.7027 -0.3780  0.2898
37339SOL     OW23995   5.868  10.286   4.110 -0.1713 -0.0969 -0.1423
37339SOL    HW123996   5.818  10.213   4.074  0.9526 -0.1366 -1.7439
37339SOL    HW223997   5.835  10.363   4.063 -0.1486  0.1757  0.2828
37340SOL     OW23998   5.240  12.538  10.671 -0.0091 -0.1384  0.3383
37340SOL    HW123999   5.176  12.491  10.618  0.7198 -0.2455 -0.4723
37340SOL    HW224000   5.202  12.540  10.759 -2.1037  1.6222 -0.5240
37341SOL     OW24001   0.424   0.594   0.598 -0.0680  0.2975  0.4831
37341SOL    HW124002   0.486   0.657   0.633  0.9883 -0.3193 -0.2007
37341SOL    HW224003   0.479   0.530   0.552 -1.1888 -0.4726  0.1770
37342SOL     OW24004  10.325   9.241   9.836  0.4574 -0.6461  0.6562
37342SOL    HW124005  10.404   9.251   9.889  0.5657 -3.0994  1.0935
37342SOL    HW224006  10.349   9.276   9.750  0.8147  1.8892  1.7024
37343SOL     OW24007   8.565  11.468  14.031  0.0706  0.2365  0.0287
37343SOL    HW124008   8.597  11.387  14.070  0.5984 -0.3614 -1.5657
37343SOL    HW224009   8.512  11.509  14.100  2.1154 -0.0236  1.8537
37344SOL     OW24010  13.464   3.045   4.892  0.2009  0.0093 -0.0744
37344SOL    HW124011  13.412   2.990   4.834  0.9972 -1.6036  0.6871
37344SOL    HW224012  13.406   3.065   4.965  0.6213 -1.8546  0.8163
37345SOL     OW24013  11.666  13.706  13.496  0.2936 -0.4263 -0.2284
37345SOL    HW124014  11.755  13.692  13.530  0.4698 -0.1768 -0.5780
37345SOL    HW224015  11.679  13.731  13.405 -0.1288 -0.2058 -0.2296
37346SOL     OW24016  11.341   2.446   7.404 -0.2393 -0.9271 -0.3310
37346SOL    HW124017  11.249   2.469   7.421  0.3359 -0.0613  2.0127
37346SOL    HW224018  11.372   2.514   7.345 -0.8512 -0.6457 -0.3377
37347SOL     OW24019   3.543   9.769  12.232 -0.6011 -0.1575  0.0230
37347SOL    HW124020   3.451   9.786  12.212 -0.8416 -0.1826  1.0795
37347SOL    HW224021   3.571   9.706  12.165 -0.5539  1.9316 -2.0609
37348SOL     OW24022   6.011  13.642   3.265 -0.0343 -0.3248 -0.2510
37348SOL    HW124023   6.045  13.729   3.283 -1.8527  0.5438 -0.7881
37348SOL    HW224024   5.944  13.628   3.332  0.8613 -1.7135  0.3967
37349SOL     OW24025  10.406   3.733  13.341 -0.1031  0.0242 -0.1743
37349SOL    HW124026  10.380   3.675  13.269  1.7401 -0.7594 -0.2861
37349SOL    HW224027  10.456   3.803  13.299  3.2973 -1.8086  0.3825
37350SOL     OW24028  12.966   0.078  10.722  0.2508 -0.4338 -0.3118
37350SOL    HW124029  12.978   0.080  10.627  3.4434  2.0563 -0.0417
37350SOL    HW224030  13.041   0.029  10.755 -0.8436 -1.3232  0.9803
37351SOL     OW24031   7.864   9.784   1.724  0.4606  0.3271  0.5094
37351SOL    HW124032   7.861   9.689   1.735  0.9260  0.2703  0.1978
37351SOL    HW224033   7.834   9.798   1.633 -1.7423  0.6546  1.2158
37352SOL     OW24034   4.109   0.487   1.224  0.2295 -0.0659  0.3476
37352SOL    HW124035   4.195   0.447   1.209 -0.1539 -0.2208 -1.6358
37352SOL    HW224036   4.105   0.498   1.319  2.1323 -0.7345  0.5587
37353SOL     OW24037   3.220   4.965  12.444  0.4986 -0.3955  0.0046
37353SOL    HW124038   3.251   4.879  12.472  0.5733 -0.8350 -1.3356
37353SOL    HW224039   3.132   4.949  12.409  0.4379  0.1074 -0.0827
37354SOL     OW24040  12.971   4.277  11.199  0.3891  0.1959 -0.0514
37354SOL    HW124041  12.949   4.351  11.256  0.9136  0.8507 -0.6748
37354SOL    HW224042  12.956   4.199  11.253  0.9018  0.7988  0.9932
37355SOL     OW24043   7.542   5.903   3.227  0.2023 -0.1105  0.3740
37355SOL    HW124044   7.477   5.938   3.167  2.2444  1.4458 -1.0867
37355SOL    HW224045   7.601   5.852   3.171 -0.0922 -2.1131  1.7612
37356SOL     OW24046   2.059   5.787  13.338 -0.7556  0.5168 -0.7674
37356SOL    HW124047   2.114   5.710  13.351  0.5971  1.5781  0.1429
37356SOL    HW224048   2.118   5.853  13.303 -1.4508  1.6741  0.1465
37357SOL     OW24049  12.208   5.710  11.793 -0.0212 -0.4924  0.0931
37357SOL    HW124050  12.117   5.738  11.795  0.0724 -0.1327 -0.4958
37357SOL    HW224051  12.232   5.700  11.885 -0.4579  0.0551  0.2717
37358SOL     OW24052  10.655   9.854   7.752 -0.1980  0.3903 -0.4128
37358SOL    HW124053  10.687   9.891   7.670  0.3773 -1.9630 -1.3209
37358SOL    HW224054  10.640   9.931   7.808 -1.8856  2.1865 -3.1001
37359SOL     OW24055  13.510   0.383  12.804  0.0013 -0.4678  0.2603
37359SOL    HW124056  13.583   0.340  12.759  1.1178 -0.4961  2.0010
37359SOL    HW224057  13.526   0.477  12.791 -1.2410 -0.4698 -1.7010
37360SOL     OW24058   9.329   6.800   6.496  0.1619  0.5298 -0.1866
37360SOL    HW124059   9.411   6.832   6.458 -0.6819 -0.4496 -3.0446
37360SOL    HW224060   9.262   6.857   6.459 -0.5788  0.8914  1.5952
37361SOL     OW24061   1.492   8.331   3.038  0.8214  0.1362  0.0141
37361SOL    HW124062   1.509   8.264   3.104  0.7322  0.0088 -0.0890
37361SOL    HW224063   1.579   8.357   3.007  0.9628  1.5250  1.4643
37362SOL     OW24064  13.168   3.344   1.501 -0.9025  0.4519 -0.1551
37362SOL    HW124065  13.210   3.373   1.582 -1.8905 -0.5769  0.7527
37362SOL    HW224066  13.200   3.255   1.488 -0.7084  0.6326 -0.9244
37363SOL     OW24067   7.150   2.034   3.718  0.0944  0.2353  0.0391
37363SOL    HW124068   7.136   2.128   3.708  0.5125  0.3170  0.2113
37363SOL    HW224069   7.134   1.999   3.631 -0.5962  0.3981  0.0985
37364SOL     OW24070  10.843   3.859  10.644  0.1238  0.1560 -0.0573
37364SOL    HW124071  10.789   3.790  10.605  1.0033 -0.6780  0.1635
37364SOL    HW224072  10.805   3.873  10.731 -1.5745  1.7131 -0.9871
37365SOL     OW24073   0.541   1.655   8.753  0.2046 -0.2134 -0.2140
37365SOL    HW124074   0.602   1.726   8.731 -0.1295 -0.0516 -0.6429
37365SOL    HW224075   0.549   1.645   8.848  0.0539  0.5955 -0.1076
37366SOL     OW24076   0.201   6.960   6.000  0.2183  0.3470 -0.4731
37366SOL    HW124077   0.136   7.010   5.951 -0.5553 -0.4956 -0.3189
37366SOL    HW224078   0.168   6.870   6.000  0.3946  0.2497  1.2587
37367SOL     OW24079   8.634   8.716   0.776 -0.0404 -0.4437 -0.0050
37367SOL    HW124080   8.575   8.707   0.851  1.6749 -0.0184  1.4781
37367SOL    HW224081   8.719   8.685   0.808  1.0787  1.0375 -1.3229
37368SOL     OW24082   5.080  13.546   2.896  0.0605  0.2042  0.3104
37368SOL    HW124083   5.038  13.460   2.889 -0.1031  0.1605  1.5110
37368SOL    HW224084   5.029  13.592   2.963 -1.1998  2.0737 -1.8141
37369SOL     OW24085   0.495   9.664   6.810 -0.0674 -0.2259  0.1066
37369SOL    HW124086   0.514   9.583   6.763 -2.8220 -1.1560  0.4316
37369SOL    HW224087   0.580   9.708   6.817  0.9864 -1.5450 -2.8464
37370SOL     OW24088   0.324   5.411   0.739  0.4640  0.6895 -0.4617
37370SOL    HW124089   0.405   5.458   0.718  0.4236  1.6334  1.2947
37370SOL    HW224090   0.269   5.424   0.662  0.9803  2.4006 -0.6039
37371SOL     OW24091   5.707  10.010  10.561  0.0771  0.7211 -0.1793
37371SOL    HW124092   5.672  10.065  10.492 -0.3515  1.8939  0.9290
37371SOL    HW224093   5.797   9.992  10.535 -0.8102 -1.1399 -2.3652
37372SOL     OW24094  12.178  12.912   5.807 -0.2595 -0.2567 -0.3944
37372SOL    HW124095  12.228  12.982   5.849  0.9331 -1.7800  0.8504
37372SOL    HW224096  12.092  12.916   5.848 -0.7205  1.3887 -1.4229
37373SOL     OW24097  13.195   4.873  13.056 -0.5389  0.4423  0.1618
37373SOL    HW124098  13.143   4.833  13.126  1.4610  0.4796  1.7682
37373SOL    HW224099  13.216   4.960  13.089  3.3136 -0.6690  1.2719
37374SOL     OW24100   2.877   6.203   2.471 -0.3779  0.0192 -0.3108
37374SOL    HW124101   2.888   6.240   2.383  2.6661  0.5601  0.2008
37374SOL    HW224102   2.807   6.255   2.510 -1.6372 -0.0767 -2.2984
37375SOL     OW24103  10.966   8.385   0.895  0.2757  0.8797  0.3022
37375SOL    HW124104  10.960   8.413   0.986 -1.1220  0.6062  0.3254
37375SOL    HW224105  10.975   8.466   0.845  2.1350  0.9742  0.7225
37376SOL     OW24106   1.241   8.993   9.902 -0.1557  0.0362 -0.5429
37376SOL    HW124107   1.234   8.999   9.997  1.3595  0.4487 -0.4317
37376SOL    HW224108   1.325   9.034   9.882 -0.8725  0.7962 -2.1497
37377SOL     OW24109   8.973  12.061   3.696 -0.1176  0.3650 -0.4749
37377SOL    HW124110   8.933  12.093   3.777  0.2823  2.5386 -1.0658
37377SOL    HW224111   9.025  12.135   3.665 -1.1762  0.0409 -3.3112
37378SOL     OW24112   7.908   6.007   2.187 -0.7192 -0.1868 -0.4000
37378SOL    HW124113   7.877   5.920   2.162  0.0116 -0.3862 -0.6307
37378SOL    HW224114   7.854   6.068   2.137  1.4840 -0.5573 -3.5614
37379SOL     OW24115   1.924   8.960  10.178  0.3984  0.4151 -0.2718
37379SOL    HW124116   1.920   9.018  10.103  0.6238  0.2524 -0.4104
37379SOL    HW224117   1.833   8.947  10.204  0.3467  0.8148 -0.2504
37380SOL     OW24118   8.605  10.971   4.614  0.4796  0.1327  0.1558
37380SOL    HW124119   8.528  11.006   4.570 -0.8033 -1.2947  1.1661
37380SOL    HW224120   8.599  11.006   4.703  0.8721 -0.1604  0.3001
37381SOL     OW24121  11.670   3.703   1.698 -0.6352 -0.4444 -0.1070
37381SOL    HW124122  11.763   3.694   1.717 -0.4776 -3.4454 -1.6791
37381SOL    HW224123  11.663   3.785   1.649  1.8928 -1.8909 -3.2726
37382SOL     OW24124   5.233   7.201   2.077 -0.2652 -0.1729  0.1307
37382SOL    HW124125   5.222   7.289   2.112 -0.1780  1.1134 -2.8191
37382SOL    HW224126   5.146   7.162   2.084 -0.8656  0.9875 -0.6044
37383SOL     OW24127   4.696  11.798   1.816  0.3757 -0.0117 -0.4666
37383SOL    HW124128   4.675  11.720   1.765 -0.9386  0.0756 -0.0861
37383SOL    HW224129   4.611  11.834   1.841  0.9794  0.6467  0.7128
37384SOL     OW24130  13.034   7.882   7.049 -0.3803  0.0399  0.4001
37384SOL    HW124131  12.989   7.888   6.965  0.2541  0.9649  0.1123
37384SOL    HW224132  13.127   7.887   7.028 -0.2376  1.1401  1.2030
37385SOL     OW24133   8.589   0.913   2.765  1.1665  0.0060 -0.2759
37385SOL    HW124134   8.560   0.978   2.701 -0.6243 -0.0732  0.3911
37385SOL    HW224135   8.546   0.939   2.847  0.1757 -2.1318 -0.0473
37386SOL     OW24136  11.491   2.840   7.254  0.1893 -0.2276  0.2828
37386SOL    HW124137  11.460   2.772   7.194 -1.3867 -0.1961  1.0236
37386SOL    HW224138  11.508   2.915   7.198  0.7472 -0.8202 -0.3770
37387SOL     OW24139   1.018   9.672   5.789 -0.3267  0.0357 -0.2000
37387SOL    HW124140   0.980   9.611   5.726  0.6137  2.4792 -3.3950
37387SOL    HW224141   1.112   9.671   5.769 -0.1499  1.6801  0.3731
37388SOL     OW24142   1.522  13.886   9.521 -0.1459 -0.0223  0.1523
37388SOL    HW124143   1.432  13.915   9.505 -0.0888  0.2713  0.3600
37388SOL    HW224144   1.543  13.833   9.444 -0.7486 -0.7044  0.4487
37389SOL     OW24145   9.599  12.556   2.552  0.1438  0.0142  0.0928
37389SOL    HW124146   9.520  12.609   2.549 -0.5935 -1.0450  0.2267
37389SOL    HW224147   9.577  12.483   2.610  0.7545 -1.0098 -0.9179
37390SOL     OW24148   9.131   1.948   1.943 -0.4289  0.0565  0.4789
37390SOL    HW124149   9.211   1.956   1.995 -0.5241 -0.3275  0.6868
37390SOL    HW224150   9.072   1.896   1.997 -0.2044 -1.1477 -0.3807
37391SOL     OW24151   7.853   3.898   7.069  0.2904  0.7184  0.1869
37391SOL    HW124152   7.927   3.863   7.020 -1.3954 -1.4797 -0.9974
37391SOL    HW224153   7.834   3.982   7.027  0.9044  0.3944 -0.7730
37392SOL     OW24154   2.540   7.994   2.767 -0.4436 -0.2734 -0.4306
37392SOL    HW124155   2.479   8.053   2.810 -0.5609 -0.4340 -0.3736
37392SOL    HW224156   2.626   8.024   2.794 -0.5057 -0.1731 -0.3445
37393SOL     OW24157   8.251  11.178   8.967 -0.1177  0.1593  0.7343
37393SOL    HW124158   8.301  11.256   8.942 -1.1415  0.7820  0.5900
37393SOL    HW224159   8.277  11.161   9.057  0.8126  0.1087  0.4639
37394SOL     OW24160   3.999   8.239   0.192 -0.3679  0.2406  0.2980
37394SOL    HW124161   3.988   8.268   0.283  1.4945 -1.9456  1.3122
37394SOL    HW224162   3.969   8.148   0.192 -0.4443  0.2385 -1.3273
37395SOL     OW24163  14.045   5.284   9.432  0.1845 -0.1501  0.1760
37395SOL    HW124164  13.960   5.315   9.404  0.0518  0.6727  1.3934
37395SOL    HW224165  14.098   5.363   9.443  0.6871 -0.5406  0.6979
37396SOL     OW24166   0.880   2.119   9.827  0.2192  0.2694 -0.0384
37396SOL    HW124167   0.883   2.213   9.811 -0.4771  0.1449 -0.9679
37396SOL    HW224168   0.832   2.083   9.752  0.5850 -0.8388  0.2391
37397SOL     OW24169   1.224   0.848   8.515  0.0942  0.2562  0.3492
37397SOL    HW124170   1.137   0.812   8.496 -0.3554  0.2565  2.2212
37397SOL    HW224171   1.268   0.851   8.430 -1.2546 -1.0063 -0.4335
37398SOL     OW24172   6.996   1.844  13.994  0.2687 -0.6208 -0.2362
37398SOL    HW124173   6.911   1.847  14.037 -0.7729  1.9321 -2.1534
37398SOL    HW224174   7.051   1.791  14.051 -2.1622 -1.0235  1.8906
37399SOL     OW24175   0.241   3.614   0.162  0.3142 -0.1111  0.0381
37399SOL    HW124176   0.148   3.637   0.159 -0.1618 -1.9326 -1.0986
37399SOL    HW224177   0.266   3.604   0.070  1.1060 -1.4787  0.3702
37400SOL     OW24178   2.684   1.833   9.620  0.1286  0.1606 -0.0164
37400SOL    HW124179   2.698   1.912   9.672 -0.7692 -1.4848  2.9813
37400SOL    HW224180   2.757   1.776   9.643 -0.8914 -1.0346  0.3603
37401SOL     OW24181  10.453   0.940   8.907 -0.2542  0.1209  0.5957
37401SOL    HW124182  10.429   0.863   8.854  0.0994  0.6204 -0.3093
37401SOL    HW224183  10.408   1.013   8.865  0.5837  0.6291  0.5541
37402SOL     OW24184   8.495   1.511   5.650  0.0195  0.5203 -0.9983
37402SOL    HW124185   8.437   1.552   5.715  0.0508 -1.4529  0.3924
37402SOL    HW224186   8.541   1.443   5.700 -0.5668 -1.6703 -3.2417
37403SOL     OW24187  11.845   1.716   0.890  0.7752 -0.4163 -0.1127
37403SOL    HW124188  11.896   1.640   0.919  1.6450  0.4684  0.7462
37403SOL    HW224189  11.910   1.781   0.866  0.0367  0.0630 -0.8814
37404SOL     OW24190   2.128  11.874   4.381  0.1000  0.3979  0.4632
37404SOL    HW124191   2.137  11.809   4.310  1.5929  0.9896  0.0789
37404SOL    HW224192   2.038  11.906   4.372 -1.2578 -2.6642  1.6178
37405SOL     OW24193  13.167   3.509  11.097  0.9069  0.1490  0.7147
37405SOL    HW124194  13.090   3.503  11.153 -0.6596  0.2870 -1.3093
37405SOL    HW224195  13.213   3.586  11.128 -0.9785  1.3839  0.5937
37406SOL     OW24196  13.834   1.301   2.491  0.3219  0.1511 -0.0206
37406SOL    HW124197  13.900   1.320   2.424  0.8941  0.3475  0.5912
37406SOL    HW224198  13.791   1.385   2.507  1.1007  0.4003  0.8215
37407SOL     OW24199   4.819   1.272   7.205  0.8282 -0.2797 -0.1484
37407SOL    HW124200   4.824   1.224   7.287  2.6013 -0.3163 -0.2224
37407SOL    HW224201   4.786   1.359   7.229  1.1616 -0.3504  0.5924
37408SOL     OW24202   1.516   1.539  13.899  0.0581  0.1098 -0.4522
37408SOL    HW124203   1.543   1.603  13.833  2.9716  0.5544  1.0041
37408SOL    HW224204   1.540   1.454  13.861 -0.2171  0.1848 -0.8007
37409SOL     OW24205   7.792   3.968   0.582  0.0299 -0.1003 -0.1487
37409SOL    HW124206   7.786   4.050   0.532 -0.9247 -0.6078 -0.8991
37409SOL    HW224207   7.885   3.945   0.579  0.1643  0.4866 -0.7026
37410SOL     OW24208  12.578   5.687   6.299  0.7190  0.4016 -0.5070
37410SOL    HW124209  12.658   5.695   6.248 -0.3016  0.3217 -2.2126
37410SOL    HW224210  12.558   5.593   6.298 -0.3969  0.6146 -1.7963
37411SOL     OW24211   9.682   3.189   8.331  0.3596 -0.1534  0.4699
37411SOL    HW124212   9.749   3.124   8.351  1.1885  0.2781 -0.7950
37411SOL    HW224213   9.731   3.263   8.295 -0.6548  0.8027  1.0050
37412SOL     OW24214   6.022   9.530   1.344 -0.3778 -0.3217  0.4053
37412SOL    HW124215   6.103   9.483   1.324 -0.2963 -1.7043  3.4291
37412SOL    HW224216   5.953   9.468   1.320 -0.3682 -0.8003  1.5602
37413SOL     OW24217  13.901   7.936  12.568 -0.0712 -0.1109  0.3404
37413SOL    HW124218  13.822   7.969  12.611  0.6906  0.7933  1.1081
37413SOL    HW224219  13.872   7.860  12.518 -1.4603  0.3508  0.4160
37414SOL     OW24220   0.830   6.027  10.525 -0.2441 -0.2976  0.5726
37414SOL    HW124221   0.923   6.019  10.506 -0.2357 -1.3034  0.9245
37414SOL    HW224222   0.788   5.965  10.465 -0.4021 -1.9508  2.2933
37415SOL     OW24223  12.797   2.552   2.402  1.2235 -0.0787  0.2004
37415SOL    HW124224  12.758   2.619   2.346  2.1818 -1.3682 -2.1454
37415SOL    HW224225  12.839   2.601   2.473  1.2414  1.7335 -1.0041
37416SOL     OW24226   5.070   7.055  11.870 -0.5765 -0.0968  0.0340
37416SOL    HW124227   5.154   7.017  11.843 -0.7627 -0.6487  0.2294
37416SOL    HW224228   5.066   7.139  11.823  1.1233  1.0115  1.7030
37417SOL     OW24229   7.307   1.078   7.761 -0.1870  0.1238 -1.1387
37417SOL    HW124230   7.303   1.113   7.850 -2.8894  0.8855 -1.4797
37417SOL    HW224231   7.324   0.984   7.773 -1.8432 -0.0396  0.3056
37418SOL     OW24232   6.975   4.147   8.045  0.0157 -0.4865 -0.0440
37418SOL    HW124233   6.952   4.169   7.955  2.0407 -3.0333 -1.3185
37418SOL    HW224234   6.898   4.172   8.096 -1.7974 -0.2830 -2.6673
37419SOL     OW24235   5.239   9.423   5.995 -0.1464  0.6418  0.0574
37419SOL    HW124236   5.328   9.459   5.993  0.1789 -0.0961  0.7018
37419SOL    HW224237   5.190   9.484   6.051  0.1857  0.5554  0.4473
37420SOL     OW24238  12.393   4.378   5.054 -0.0226  0.0692  0.2025
37420SOL    HW124239  12.376   4.453   4.997 -0.7660 -1.3438 -1.5096
37420SOL    HW224240  12.323   4.316   5.035  2.2718 -2.4211 -0.8405
37421SOL     OW24241  10.612   0.942  10.757  0.4516  0.2562 -0.2063
37421SOL    HW124242  10.573   0.917  10.673 -0.1066  0.4279 -0.0020
37421SOL    HW224243  10.700   0.973  10.734  1.3180 -2.1569 -0.4476
37422SOL     OW24244   1.155   9.160   1.203  0.5697 -0.2218 -0.1737
37422SOL    HW124245   1.123   9.211   1.129 -1.2336 -0.2279  0.5510
37422SOL    HW224246   1.216   9.097   1.165 -0.3990 -0.2961 -1.6613
37423SOL     OW24247   0.179   2.202   6.390 -0.3630 -0.6497 -0.4682
37423SOL    HW124248   0.161   2.152   6.310 -0.8549 -2.0194  0.4721
37423SOL    HW224249   0.093   2.215   6.430 -0.4521  2.2311 -1.3675
37424SOL     OW24250   3.028   8.884   3.473 -0.3406  0.0665  0.1797
37424SOL    HW124251   3.078   8.920   3.547 -0.6173 -0.1827  0.4908
37424SOL    HW224252   2.982   8.959   3.436  0.4286  0.3398 -0.2438
37425SOL     OW24253   7.823   6.215  12.844  0.2386 -0.4744  0.3039
37425SOL    HW124254   7.727   6.223  12.839  0.2162 -1.0389 -0.5642
37425SOL    HW224255   7.841   6.188  12.934 -0.2935  1.0794  0.8954
37426SOL     OW24256   3.975   3.563   9.495  0.1169 -0.1285 -0.7978
37426SOL    HW124257   4.059   3.590   9.531  0.1996 -0.3499 -0.8217
37426SOL    HW224258   3.996   3.528   9.408  0.2400 -1.7633 -0.1464
37427SOL     OW24259   7.898   0.428   2.524 -0.3463  0.0662  0.4641
37427SOL    HW124260   7.821   0.485   2.521  0.6815  1.4791  0.2723
37427SOL    HW224261   7.950   0.462   2.597  2.3655  2.2074 -2.2219
37428SOL     OW24262  10.754   7.043   8.389 -0.2405  0.0697 -0.1351
37428SOL    HW124263  10.748   7.090   8.306  1.2105  0.6922  0.0721
37428SOL    HW224264  10.785   6.956   8.365 -0.0639  0.1707 -0.2786
37429SOL     OW24265   7.580   7.315   9.969 -0.6294  0.4288  0.6582
37429SOL    HW124266   7.609   7.227   9.993 -0.8643 -0.7602 -2.8153
37429SOL    HW224267   7.635   7.339   9.894 -1.0170  3.0021  1.1038
37430SOL     OW24268   5.878  11.824   2.426  1.0839 -0.8786 -0.9626
37430SOL    HW124269   5.952  11.822   2.365  0.2432 -0.2554 -2.0325
37430SOL    HW224270   5.828  11.902   2.401 -1.2910 -2.6027 -1.8969
37431SOL     OW24271  12.200   1.318   0.891 -0.6574  0.7853 -0.5800
37431SOL    HW124272  12.191   1.411   0.910  0.4600  1.0649 -1.2907
37431SOL    HW224273  12.145   1.304   0.814 -0.8887  0.8400 -0.4244
37432SOL     OW24274  13.158   8.644   6.748  0.0534 -0.0329 -0.4056
37432SOL    HW124275  13.252   8.630   6.760 -0.1084 -1.7635 -0.8141
37432SOL    HW224276  13.150   8.680   6.659  0.3109 -0.3673 -0.5665
37433SOL     OW24277   2.591   9.143   1.903 -0.3137  0.1985  0.4003
37433SOL    HW124278   2.630   9.213   1.850  0.5960 -0.5656  0.0351
37433SOL    HW224279   2.536   9.189   1.966  0.0869  1.2338  0.0230
37434SOL     OW24280   6.660   0.429   7.405 -0.1518 -0.0387  0.5428
37434SOL    HW124281   6.751   0.401   7.413 -0.0427  0.0113 -0.3387
37434SOL    HW224282   6.640   0.473   7.487  0.4885 -0.4254  0.9078
37435SOL     OW24283   7.406   6.962   1.727 -0.0854  0.1193  0.2825
37435SOL    HW124284   7.396   6.944   1.821  2.7976 -2.3923  0.2660
37435SOL    HW224285   7.475   7.028   1.723  1.1339 -1.1231 -0.0323
37436SOL     OW24286   6.744   4.464  12.691 -0.3752 -0.0609  0.5774
37436SOL    HW124287   6.829   4.451  12.734 -0.0917  1.6026  0.5976
37436SOL    HW224288   6.745   4.405  12.616  1.3716  0.8510 -0.1846
37437SOL     OW24289   9.381  11.014   0.660 -0.3950 -0.0067  0.3266
37437SOL    HW124290   9.412  11.105   0.659  0.4119 -0.2743 -0.0639
37437SOL    HW224291   9.291  11.019   0.630 -0.7976  0.8107  1.5703
37438SOL     OW24292   0.170   6.018   4.830  0.1656  0.4955 -0.6767
37438SOL    HW124293   0.107   6.033   4.901  1.9910  0.0133  1.1322
37438SOL    HW224294   0.153   5.928   4.801  1.2797 -0.3909  1.2227
37439SOL     OW24295   9.217   2.559   9.140  0.0051 -0.0419  0.2641
37439SOL    HW124296   9.264   2.631   9.183 -2.6074  0.2567  2.9829
37439SOL    HW224297   9.148   2.603   9.090 -0.6696 -0.5555  0.7219
37440SOL     OW24298   6.480   7.757   2.161  0.3093 -0.0407  0.0727
37440SOL    HW124299   6.409   7.704   2.199  0.8332  0.2677  1.5708
37440SOL    HW224300   6.549   7.694   2.141 -0.1229 -0.2574 -0.7573
37441SOL     OW24301  10.388   0.750   4.408 -0.5495 -0.0423 -0.6474
37441SOL    HW124302  10.362   0.831   4.452 -1.0248 -0.3998 -0.2656
37441SOL    HW224303  10.311   0.694   4.412 -0.1018 -0.6633 -0.5675
37442SOL     OW24304   8.632  10.296   6.889 -0.1338 -0.0420 -0.3858
37442SOL    HW124305   8.709  10.349   6.870  0.3228 -0.7773 -0.6253
37442SOL    HW224306   8.609  10.255   6.805 -0.5404 -0.1449 -0.2289
37443SOL     OW24307  12.370   8.202   3.160 -0.4189  0.1876  0.0956
37443SOL    HW124308  12.285   8.241   3.140 -0.4326 -0.3442 -0.9861
37443SOL    HW224309  12.434   8.268   3.135 -0.4824  0.0822 -0.3493
37444SOL     OW24310  10.226   4.869   8.164 -0.6608 -0.0019 -0.1964
37444SOL    HW124311  10.164   4.801   8.191  0.8346 -1.9003 -1.2714
37444SOL    HW224312  10.253   4.911   8.246 -2.0661 -0.2824  0.4396
37445SOL     OW24313   4.114  10.899   8.408 -0.0393 -0.2226 -0.2387
37445SOL    HW124314   4.156  10.900   8.494 -1.2737 -0.6181  0.3866
37445SOL    HW224315   4.135  10.813   8.373 -0.9263 -0.6983  0.3819
37446SOL     OW24316  11.159   8.864   7.314 -0.1310  0.1965  0.4541
37446SOL    HW124317  11.151   8.959   7.317  0.4124  0.3132 -0.9882
37446SOL    HW224318  11.133   8.835   7.401 -1.0550  1.6063  0.6827
37447SOL     OW24319   3.562   3.376  12.221 -0.1113  0.5344  0.3655
37447SOL    HW124320   3.505   3.423  12.281  1.1159  1.2584  0.9998
37447SOL    HW224321   3.584   3.295  12.266 -1.3593 -0.1979 -0.2782
37448SOL     OW24322   9.325   1.796   1.411 -0.0146  0.3288  0.2975
37448SOL    HW124323   9.288   1.884   1.405 -0.7298  0.0005 -0.4332
37448SOL    HW224324   9.258   1.740   1.371  1.2102 -0.3237 -0.8852
37449SOL     OW24325  12.520  13.207   1.687  0.6160  0.8187 -0.6308
37449SOL    HW124326  12.541  13.184   1.597  0.1058  0.3049 -0.6261
37449SOL    HW224327  12.563  13.139   1.739  0.9413  1.1356 -0.4775
37450SOL     OW24328  11.144   5.304   8.213 -0.4489  0.0956  0.1391
37450SOL    HW124329  11.220   5.312   8.271 -0.5416 -1.4716  0.5431
37450SOL    HW224330  11.156   5.372   8.147  2.1217 -1.0325 -0.6890
37451SOL     OW24331  13.554   3.399  10.183 -0.0475  0.1601  0.1211
37451SOL    HW124332  13.527   3.398  10.274 -3.7605 -0.9726 -0.8114
37451SOL    HW224333  13.645   3.427  10.185 -0.0265  0.3411  4.1111
37452SOL     OW24334  11.298   1.021   5.317 -0.3385 -0.2929  0.7369
37452SOL    HW124335  11.282   1.110   5.349  0.4306 -0.3829  1.3843
37452SOL    HW224336  11.214   0.977   5.327 -0.5773  0.1946  0.9434
37453SOL     OW24337  12.832  11.512   9.627  0.2803  0.2842 -0.5573
37453SOL    HW124338  12.841  11.490   9.720 -0.6839 -1.8462 -0.9127
37453SOL    HW224339  12.921  11.505   9.593  0.3924 -0.6011 -0.1163
37454SOL     OW24340   5.395   3.900   9.683  0.2230  0.7643 -0.3165
37454SOL    HW124341   5.438   3.899   9.769 -1.7219 -0.8695  0.7276
37454SOL    HW224342   5.463   3.930   9.623  2.3928 -0.3395  1.4223
37455SOL     OW24343  12.958  12.617   4.146 -0.1419 -0.2850  0.0279
37455SOL    HW124344  13.023  12.589   4.082  0.9440  1.7564  0.1617
37455SOL    HW224345  12.874  12.610   4.100  0.3720 -0.9395 -0.8454
37456SOL     OW24346  13.061  12.129   2.972  0.2435 -0.0913  0.4129
37456SOL    HW124347  13.095  12.049   3.011  0.9892 -0.7740 -1.5252
37456SOL    HW224348  13.138  12.181   2.952  0.1434 -0.7964 -2.2158
37457SOL     OW24349   0.481   6.464  12.758 -0.0492 -0.0104  0.6209
37457SOL    HW124350   0.477   6.445  12.664  0.3143  0.2823  0.5432
37457SOL    HW224351   0.390   6.481  12.784  0.0366  1.5853 -0.0251
37458SOL     OW24352  11.984   1.062   2.542  0.0076  0.6625 -0.2092
37458SOL    HW124353  11.921   0.995   2.515  1.0914 -0.7189  0.5178
37458SOL    HW224354  11.998   1.116   2.464 -0.0460 -0.6677 -1.1685
37459SOL     OW24355   7.122   1.697  13.550 -0.3015  0.7353  0.0343
37459SOL    HW124356   7.093   1.753  13.478 -1.2882  1.0498  0.6545
37459SOL    HW224357   7.177   1.631  13.509 -1.0402  0.7715 -1.0460
37460SOL     OW24358   2.690   7.326  12.900 -0.0907 -0.2684  0.6671
37460SOL    HW124359   2.710   7.264  12.830  1.3046 -0.0024  0.8125
37460SOL    HW224360   2.684   7.273  12.979 -0.9834 -0.4790  0.4644
37461SOL     OW24361   5.627   5.886   6.424 -0.0919  0.7063 -0.1066
37461SOL    HW124362   5.625   5.834   6.505  2.0328  1.6598  0.6367
37461SOL    HW224363   5.637   5.822   6.354 -0.4523 -0.0448  0.5187
37462SOL     OW24364   1.187   8.476   7.653  0.2857 -0.2592  0.3986
37462SOL    HW124365   1.108   8.427   7.631 -0.1699  0.8834 -0.6578
37462SOL    HW224366   1.172   8.509   7.741 -0.4169 -0.0711  0.2133
37463SOL     OW24367   8.909  13.786  12.007  0.6096  0.5034 -0.6617
37463SOL    HW124368   8.832  13.734  11.983 -0.2857  0.6579  1.5997
37463SOL    HW224369   8.875  13.876  12.016  0.5819  0.3151  1.9529
37464SOL     OW24370   4.535   7.231   8.888 -0.1663 -0.1634 -0.3412
37464SOL    HW124371   4.497   7.302   8.836  2.2058  0.7909 -0.8599
37464SOL    HW224372   4.625   7.257   8.903  0.7840 -3.0285 -0.4795
37465SOL     OW24373   8.461   8.343   4.634 -0.5743 -0.0819 -0.0049
37465SOL    HW124374   8.497   8.264   4.593  0.5329  1.2003 -1.6258
37465SOL    HW224375   8.454   8.406   4.563  1.1070  2.1635  1.6581
37466SOL     OW24376   5.698   7.215   9.578 -0.3720 -0.1269  0.0264
37466SOL    HW124377   5.649   7.253   9.650  0.3988  0.3384  0.3172
37466SOL    HW224378   5.633   7.201   9.509 -0.9189  0.4125  0.4254
37467SOL     OW24379   7.381   7.733   1.579 -0.3984 -0.0280  0.1556
37467SOL    HW124380   7.475   7.712   1.578 -0.4297 -0.1862 -1.3885
37467SOL    HW224381   7.346   7.678   1.649  0.7789  0.6629  1.3515
37468SOL     OW24382   8.206   7.959   5.828  0.7972  0.8167  0.4253
37468SOL    HW124383   8.190   7.868   5.853  0.0560  1.0401  0.7991
37468SOL    HW224384   8.301   7.965   5.819  0.9081  0.1705  1.0230
37469SOL     OW24385  13.514  10.010   1.973 -0.1606  0.2523 -0.4438
37469SOL    HW124386  13.445  10.010   1.906 -0.9493  1.9246  0.3280
37469SOL    HW224387  13.595  10.017   1.923 -0.5677 -0.8924 -1.3238
37470SOL     OW24388  10.783   7.322   9.717 -0.1723  0.3318 -0.1511
37470SOL    HW124389  10.831   7.380   9.657 -0.4045 -0.3100 -0.9818
37470SOL    HW224390  10.767   7.243   9.666 -2.1893  0.5368  0.0620
37471SOL     OW24391  10.636  10.035   5.331  0.0528  0.1994 -0.1279
37471SOL    HW124392  10.590   9.979   5.268  0.8657 -0.0122 -0.5521
37471SOL    HW224393  10.643  10.120   5.286 -0.0773  0.2771  0.0006
37472SOL     OW24394   8.271   2.330  13.500  0.0381  0.1146 -0.3139
37472SOL    HW124395   8.348   2.274  13.510 -1.1322 -1.1336  2.9489
37472SOL    HW224396   8.261   2.340  13.405  3.0615 -1.2221 -0.9017
37473SOL     OW24397   8.017   9.894   7.316 -0.3208  0.5917 -0.5157
37473SOL    HW124398   7.927   9.905   7.345 -0.4057 -0.9368 -0.1649
37473SOL    HW224399   8.034   9.800   7.320  1.6206  0.9219  0.4387
37474SOL     OW24400   7.092   6.016  11.700  0.1100  0.4814 -0.4993
37474SOL    HW124401   7.062   6.107  11.699  0.1923  0.5038 -0.9416
37474SOL    HW224402   7.095   5.994  11.793 -0.4742  0.7430 -0.4118
37475SOL     OW24403  12.333  10.475   8.675 -0.0364  0.5082 -0.8369
37475SOL    HW124404  12.261  10.536   8.690 -1.7356 -0.9919 -2.3220
37475SOL    HW224405  12.383  10.513   8.603 -0.1040  0.9537 -0.6483
37476SOL     OW24406   9.328   5.973   2.083 -0.2754  0.0534  0.2923
37476SOL    HW124407   9.359   6.063   2.092 -2.4152  0.9161 -0.2677
37476SOL    HW224408   9.305   5.946   2.172  0.4809 -0.0070  0.4774
37477SOL     OW24409  13.228   5.303   5.252 -0.2019 -0.4084  0.2043
37477SOL    HW124410  13.136   5.299   5.277  0.2517  1.2946  2.3536
37477SOL    HW224411  13.252   5.395   5.261  1.8852 -0.9114  0.2769
37478SOL     OW24412   4.275  13.015   4.537  0.9345 -0.0779 -0.0112
37478SOL    HW124413   4.220  12.984   4.466  0.0225  0.8485  0.2597
37478SOL    HW224414   4.362  13.023   4.498  1.0168 -1.9960 -0.3233
37479SOL     OW24415  12.271   1.225  10.295 -0.4661 -0.0338 -0.0725
37479SOL    HW124416  12.247   1.215  10.387  2.1475 -0.2839  0.6704
37479SOL    HW224417  12.275   1.319  10.281 -0.2524  0.0098  0.2710
37480SOL     OW24418   4.890   3.168   7.610  0.3642 -0.1932  0.0853
37480SOL    HW124419   4.929   3.081   7.610 -1.2987 -1.0918 -2.8958
37480SOL    HW224420   4.909   3.203   7.523  1.4204  2.7112  1.3775
37481SOL     OW24421   1.264   6.154  10.052 -0.0304 -0.0044  0.2888
37481SOL    HW124422   1.197   6.091  10.077  0.1972  0.2067  1.4918
37481SOL    HW224423   1.245   6.231  10.105  0.8828  0.2190  0.3060
37482SOL     OW24424  10.680   0.526   5.354  0.3010  0.4029  0.0103
37482SOL    HW124425  10.608   0.554   5.296  0.1131 -0.4052 -0.1606
37482SOL    HW224426  10.754   0.581   5.328  0.4387 -0.4560 -1.5482
37483SOL     OW24427   9.754   2.246   1.432  0.1691 -0.2877  0.5616
37483SOL    HW124428   9.779   2.338   1.439  0.6722 -0.3668 -0.1244
37483SOL    HW224429   9.752   2.229   1.338 -0.0314 -0.9524  0.6818
37484SOL     OW24430  11.676  11.487  13.466 -0.0201  0.4207 -0.0127
37484SOL    HW124431  11.691  11.555  13.400 -1.5000  0.5304 -0.2722
37484SOL    HW224432  11.748  11.499  13.528  0.1432  1.7759 -0.4137
37485SOL     OW24433   7.390  10.094   8.500 -0.3492  1.0350 -0.0084
37485SOL    HW124434   7.402  10.073   8.408 -0.5466  0.4561  0.0908
37485SOL    HW224435   7.321  10.034   8.530 -0.6028  1.5188  0.4074
37486SOL     OW24436  13.534   1.553  14.042 -0.0690 -0.4680  0.2153
37486SOL    HW124437  13.617   1.558  14.090 -0.1676 -0.9459  0.4345
37486SOL    HW224438  13.545   1.615  13.970  0.7643 -1.0779 -0.1906
37487SOL     OW24439   8.100  10.539  12.340 -0.6212  0.2349  0.1394
37487SOL    HW124440   8.022  10.541  12.286  1.0889  0.8243 -2.5192
37487SOL    HW224441   8.132  10.449  12.333 -0.2268  0.3900 -0.1441
37488SOL     OW24442  10.460   1.011   4.065 -0.4981 -0.2137  0.2209
37488SOL    HW124443  10.532   1.048   4.117  0.1411  0.0759 -0.8412
37488SOL    HW224444  10.383   1.061   4.092 -0.2883 -0.4306  1.2692
37489SOL     OW24445  13.906   6.176  13.157 -0.2799 -0.1721 -0.5900
37489SOL    HW124446  13.958   6.184  13.237 -0.6444 -1.3643 -0.2072
37489SOL    HW224447  13.855   6.096  13.170 -0.3614 -0.3684 -2.0132
37490SOL     OW24448   4.242   0.715   8.341  0.3149  0.4382 -0.3550
37490SOL    HW124449   4.192   0.742   8.264  0.8870  1.2834 -0.4436
37490SOL    HW224450   4.266   0.797   8.384 -0.8227 -0.0231  1.2741
37491SOL     OW24451  12.151   0.237   5.759  0.2264  0.7817  0.0412
37491SOL    HW124452  12.100   0.165   5.796 -0.0091  0.9262  0.0007
37491SOL    HW224453  12.087   0.290   5.712  0.9012 -1.0041 -3.2102
37492SOL     OW24454   2.407   8.181   2.922  0.1022  0.3325 -0.7549
37492SOL    HW124455   2.346   8.227   2.865 -0.7682  0.3858  0.1781
37492SOL    HW224456   2.464   8.249   2.957 -1.1281  0.7501  0.5535
37493SOL     OW24457   4.665   5.077   4.683  0.2294 -0.2887  0.0795
37493SOL    HW124458   4.608   5.067   4.760  0.4655 -0.3508  0.2479
37493SOL    HW224459   4.719   4.998   4.683  0.1880 -0.3180 -0.1860
37494SOL     OW24460  11.345   0.666   8.917 -0.1948 -0.4482 -0.1642
37494SOL    HW124461  11.313   0.582   8.885 -0.2067 -0.1796 -0.8873
37494SOL    HW224462  11.336   0.661   9.012  3.0678 -2.6564  0.2132
37495SOL     OW24463   2.681   1.415   4.625 -0.3539  0.1697 -0.2750
37495SOL    HW124464   2.766   1.407   4.582 -0.3468  1.1176 -0.4538
37495SOL    HW224465   2.647   1.499   4.595 -2.2262 -1.0398 -1.7537
37496SOL     OW24466   6.840  13.756   6.909  0.1112 -0.1882  0.5295
37496SOL    HW124467   6.803  13.668   6.912 -0.6824  0.0438 -1.0119
37496SOL    HW224468   6.883  13.761   6.823 -1.3636  1.4451 -0.1778
37497SOL     OW24469   8.635  12.465   2.207 -0.0292 -0.0606 -0.2895
37497SOL    HW124470   8.730  12.464   2.216 -0.1554 -0.7381  1.2542
37497SOL    HW224471   8.617  12.409   2.131  0.8172  0.6180 -1.0046
37498SOL     OW24472  11.786  11.066   1.758  0.3406  0.2162 -0.1061
37498SOL    HW124473  11.732  11.134   1.799 -1.7212 -0.3096 -1.7776
37498SOL    HW224474  11.869  11.109   1.740  0.1579  1.3849  1.6068
37499SOL     OW24475   1.093   0.742   3.868 -0.4806 -0.2982  0.4217
37499SOL    HW124476   1.060   0.694   3.793  1.9270  0.9828 -1.6146
37499SOL    HW224477   1.159   0.685   3.907  2.2119  1.0112 -1.8583
37500SOL     OW24478   5.819   1.536   5.083 -0.5507  0.0375  0.1094
37500SOL    HW124479   5.760   1.529   5.158  1.0341  2.4944  1.7114
37500SOL    HW224480   5.761   1.542   5.008 -2.2616 -0.1565  1.3522
37501SOL     OW24481   3.104  10.216   2.494  0.0292 -0.4348  0.2085
37501SOL    HW124482   3.076  10.301   2.527  2.3313 -0.0882  1.4597
37501SOL    HW224483   3.096  10.223   2.398 -1.9297  0.3487  0.3985
37502SOL     OW24484   0.387   5.341   9.440  0.4913  0.8063 -0.3598
37502SOL    HW124485   0.479   5.357   9.417  1.7908 -0.3753  3.3218
37502SOL    HW224486   0.376   5.247   9.427 -0.1365  0.8943 -0.4847
37503SOL     OW24487  11.874   9.872   6.659 -0.1725  0.4072 -0.1109
37503SOL    HW124488  11.833   9.817   6.726 -1.5276 -0.3842 -1.5194
37503SOL    HW224489  11.959   9.832   6.644  1.1685  1.9329  2.6911
37504SOL     OW24490   5.929   5.469   6.544  0.4118 -0.1558 -0.1012
37504SOL    HW124491   5.961   5.481   6.454 -1.4960  0.1425 -0.7826
37504SOL    HW224492   5.834   5.457   6.534  0.1978 -0.3390  1.8649
37505SOL     OW24493   0.791  12.287  11.848  0.0645  0.3086 -0.5628
37505SOL    HW124494   0.884  12.271  11.831  0.2412 -0.4784  1.0050
37505SOL    HW224495   0.745  12.231  11.785  0.6655 -0.1895 -0.5653
37506SOL     OW24496  10.405   7.853   9.132 -0.5264  0.2045  0.1251
37506SOL    HW124497  10.318   7.819   9.153 -0.6452 -0.4985 -1.4220
37506SOL    HW224498  10.389   7.930   9.077 -0.1650  0.6047  0.5608
37507SOL     OW24499   3.639   0.170   3.676 -0.7304  0.1908 -0.3852
37507SOL    HW124500   3.633   0.233   3.605 -0.1413  2.1158  1.1663
37507SOL    HW224501   3.610   0.087   3.638 -0.3961  1.1188 -2.8323
37508SOL     OW24502  12.561   6.975  13.459 -0.2654 -0.4288 -0.4864
37508SOL    HW124503  12.594   7.014  13.378  1.0426 -0.4627 -0.0052
37508SOL    HW224504  12.553   7.049  13.519 -0.2713 -0.5352 -0.3559
37509SOL     OW24505  13.887   9.176   5.634 -0.0809  0.1800 -0.0152
37509SOL    HW124506  13.909   9.177   5.540  1.5654 -2.5190  0.2303
37509SOL    HW224507  13.791   9.168   5.636  0.0231 -2.8401 -1.6412
37510SOL     OW24508   2.817   7.809   1.680  0.4819 -0.5727  0.5526
37510SOL    HW124509   2.831   7.831   1.772  0.3808  2.3817 -0.0195
37510SOL    HW224510   2.766   7.883   1.646  0.8662 -1.3745 -1.9643
37511SOL     OW24511   9.331   5.041   8.293 -0.5621  0.2146 -0.6282
37511SOL    HW124512   9.416   5.025   8.333 -0.0435  2.1886 -0.8839
37511SOL    HW224513   9.269   5.034   8.366  0.1083  1.3416  0.0764
37512SOL     OW24514   0.967   7.169   1.314 -0.4934  0.3819 -0.2703
37512SOL    HW124515   1.052   7.201   1.343 -0.8762  1.7003 -0.5117
37512SOL    HW224516   0.940   7.107   1.382  1.3610 -1.3484 -1.0337
37513SOL     OW24517   2.589   0.738  12.680 -0.3336 -0.0789  0.8206
37513SOL    HW124518   2.531   0.702  12.747 -2.4204 -1.8889 -1.7816
37513SOL    HW224519   2.534   0.745  12.602  1.3736  3.9980 -0.2630
37514SOL     OW24520  13.233   4.736   7.764  0.2786 -0.7456  0.0262
37514SOL    HW124521  13.156   4.699   7.720  0.0287 -1.4290  1.0067
37514SOL    HW224522  13.291   4.762   7.692 -2.0926  2.6905 -0.8955
37515SOL     OW24523   2.991   0.533  11.634 -0.3313  0.2264  0.3775
37515SOL    HW124524   3.055   0.503  11.570 -0.8533  0.3998 -0.2327
37515SOL    HW224525   3.000   0.628  11.635  0.4594  0.1652  1.4073
37516SOL     OW24526   3.183  13.567   4.395  0.7683  0.4248  0.3279
37516SOL    HW124527   3.221  13.540   4.310 -0.2611  1.9895 -0.6708
37516SOL    HW224528   3.110  13.506   4.408  0.7199  0.3886 -0.0784
37517SOL     OW24529  13.297   1.072  11.707 -0.5049 -0.3015  0.4232
37517SOL    HW124530  13.261   1.069  11.619  0.7887  1.4914 -0.2241
37517SOL    HW224531  13.387   1.041  11.697 -0.8144 -1.6286  1.4364
37518SOL     OW24532   8.909   5.674   0.097  0.8273 -0.3947 -0.2959
37518SOL    HW124533   8.924   5.768   0.105 -1.5472 -0.0072  0.2936
37518SOL    HW224534   8.835   5.656   0.155  1.0225 -2.5896 -0.6265
37519SOL     OW24535   7.712   7.719   1.270  0.3449  0.3449  0.4504
37519SOL    HW124536   7.695   7.700   1.178  2.2650  1.9973 -0.3341
37519SOL    HW224537   7.714   7.814   1.275  2.9700  0.3179  1.5971
37520SOL     OW24538   6.342   3.710   4.880 -0.3471 -0.1855  0.7622
37520SOL    HW124539   6.340   3.781   4.944  1.0153  0.2029  0.4180
37520SOL    HW224540   6.360   3.754   4.796 -0.3950 -0.8400  0.3978
37521SOL     OW24541  11.975   4.976   0.305 -0.2482  0.0846  0.6235
37521SOL    HW124542  11.922   5.015   0.236  1.5524 -0.0337 -0.8956
37521SOL    HW224543  12.003   5.051   0.359  1.4557  0.7129 -1.0450
37522SOL     OW24544   0.299   2.250  12.159 -0.2277 -0.1620 -0.0670
37522SOL    HW124545   0.335   2.339  12.151 -1.2730  0.2904  0.1413
37522SOL    HW224546   0.341   2.215  12.238 -2.3938  1.4618  1.9801
37523SOL     OW24547   3.767   2.285   6.684  0.5447 -0.1815  0.1864
37523SOL    HW124548   3.724   2.211   6.641 -0.7071  1.6164 -1.8449
37523SOL    HW224549   3.829   2.318   6.620  0.9814  0.6243  1.0012
37524SOL     OW24550   9.269   2.631   5.958 -0.0825 -0.1087 -0.1710
37524SOL    HW124551   9.262   2.576   6.035  2.0046 -0.4343 -0.1479
37524SOL    HW224552   9.209   2.593   5.895 -0.6021 -0.8174  0.7345
37525SOL     OW24553   1.166   6.907   5.105  0.6711  0.1423 -0.2466
37525SOL    HW124554   1.133   6.991   5.138 -2.0918 -0.7897 -0.4488
37525SOL    HW224555   1.195   6.861   5.184 -0.3773  0.2263  0.2036
37526SOL     OW24556   5.596  12.402  11.160 -0.3456 -0.4263 -0.0138
37526SOL    HW124557   5.586  12.317  11.116 -1.2786 -0.3739  0.0733
37526SOL    HW224558   5.553  12.464  11.101 -2.0718 -0.4291  1.1811
37527SOL     OW24559   9.959   4.285   4.976  0.8229 -0.0534  0.1469
37527SOL    HW124560  10.038   4.332   5.002  0.2171  0.0446  1.9177
37527SOL    HW224561   9.947   4.219   5.044  1.1128 -2.2110 -1.7654
37528SOL     OW24562   9.982   2.489   4.177 -0.2965 -0.2046 -0.0478
37528SOL    HW124563   9.984   2.448   4.264  0.5977 -0.9069 -0.3876
37528SOL    HW224564   9.906   2.450   4.134 -0.2902 -0.4302  0.1451
37529SOL     OW24565   1.200  10.955   3.303 -0.9563 -0.3204 -0.1173
37529SOL    HW124566   1.132  10.938   3.237 -1.1666 -0.3471  0.1039
37529SOL    HW224567   1.278  10.975   3.252 -1.3254  0.5012 -0.3855
37530SOL     OW24568   0.029   4.389   6.192  0.1531  0.2346  0.2311
37530SOL    HW124569   0.118   4.386   6.155  0.4365  1.2550  0.7953
37530SOL    HW224570   0.043   4.403   6.286 -0.6085  0.0843  0.3721
37531SOL     OW24571   9.357  12.413   3.554 -0.2565  0.1853 -0.1023
37531SOL    HW124572   9.365  12.502   3.590 -0.2906  0.1024  0.1130
37531SOL    HW224573   9.401  12.357   3.619  1.9056  0.3025 -1.3565
37532SOL     OW24574   2.405   7.653  11.897 -0.4419 -0.0660 -0.5332
37532SOL    HW124575   2.428   7.711  11.970  0.3577 -1.2467  0.1733
37532SOL    HW224576   2.442   7.697  11.820 -0.6045  0.7880 -0.1454
37533SOL     OW24577  11.616  10.763   5.701 -0.6284  0.3569  0.1647
37533SOL    HW124578  11.571  10.747   5.784  0.0433 -2.0488  0.1496
37533SOL    HW224579  11.705  10.729   5.715 -0.5940 -0.4102 -1.5989
37534SOL     OW24580   1.295   8.326  13.971  0.9001 -0.2560 -0.0624
37534SOL    HW124581   1.349   8.360  14.043 -1.2447  1.1845  0.9735
37534SOL    HW224582   1.231   8.269  14.014  0.4634 -0.4956 -1.0055
37535SOL     OW24583   1.267   7.745   3.945 -0.5063  0.1353 -0.2122
37535SOL    HW124584   1.275   7.828   3.992  1.6607  0.3538 -0.8834
37535SOL    HW224585   1.246   7.771   3.855 -0.4391 -0.0852 -0.2897
37536SOL     OW24586   0.001   2.974  12.314 -0.2665  0.5619  0.1108
37536SOL    HW124587  -0.005   3.067  12.339 -2.0993  0.4227  0.3539
37536SOL    HW224588   0.069   2.938  12.370  0.5192  1.7679 -0.0278
37537SOL     OW24589   3.916  12.437  11.941  0.6173  0.5052 -0.1741
37537SOL    HW124590   3.830  12.457  11.905  0.9907  0.2195 -1.2703
37537SOL    HW224591   3.922  12.342  11.938  0.9027  0.5137  0.0727
37538SOL     OW24592   6.866  11.720  12.638 -0.3798 -0.9599 -0.4062
37538SOL    HW124593   6.961  11.732  12.633 -0.5576  1.2793  0.5223
37538SOL    HW224594   6.833  11.757  12.556 -0.5600 -0.1538  0.0253
37539SOL     OW24595   3.880  12.320  13.091  0.2675  0.5686 -1.0033
37539SOL    HW124596   3.892  12.298  12.999 -0.4311 -1.2367 -0.6885
37539SOL    HW224597   3.946  12.269  13.137 -1.9007 -1.7165 -0.1895
37540SOL     OW24598   6.555   1.172   1.322  0.0064  0.3506  0.2483
37540SOL    HW124599   6.516   1.120   1.252 -1.0966  0.5498  0.6881
37540SOL    HW224600   6.617   1.113   1.365  0.9510  0.3356 -1.0925
37541SOL     OW24601   8.837  10.929   7.724 -0.1198 -0.3919  0.7115
37541SOL    HW124602   8.874  10.983   7.794  0.2580  1.6288 -0.9106
37541SOL    HW224603   8.912  10.909   7.668 -0.7751  0.2362 -0.4352
37542SOL     OW24604  13.035  11.083   6.798  0.3555 -0.0854 -0.6314
37542SOL    HW124605  12.951  11.106   6.838  0.5696  0.2310 -0.3718
37542SOL    HW224606  13.015  11.077   6.704 -0.7805 -3.4083 -0.3285
37543SOL     OW24607  13.818  12.916   8.674 -0.1872 -0.5279  0.1928
37543SOL    HW124608  13.902  12.895   8.633  0.0184  0.4583  0.0842
37543SOL    HW224609  13.803  12.844   8.736  0.4461 -1.0133 -0.2026
37544SOL     OW24610  13.853   8.372  13.912 -0.4318 -0.0559  0.4567
37544SOL    HW124611  13.789   8.347  13.979 -1.4115 -0.0812 -0.4634
37544SOL    HW224612  13.803   8.424  13.849  0.8300  1.4151  0.5888
37545SOL     OW24613   9.580  12.634  12.826 -0.0163 -0.1581  0.4804
37545SOL    HW124614   9.606  12.709  12.880  0.4672 -0.6399  0.9327
37545SOL    HW224615   9.486  12.626  12.841 -0.7060  2.1958 -1.9305
37546SOL     OW24616   7.122  13.905   8.197 -0.1216 -0.0391 -0.4662
37546SOL    HW124617   7.044  13.850   8.205  0.5938 -1.3269 -1.7347
37546SOL    HW224618   7.115  13.968   8.268 -1.9167 -0.6209 -0.0768
37547SOL     OW24619   3.493  13.757   6.822  0.7967  0.1480  0.3348
37547SOL    HW124620   3.565  13.694   6.813 -1.7711 -3.0577  0.2567
37547SOL    HW224621   3.477  13.787   6.732  0.0637 -1.6486 -0.1869
37548SOL     OW24622   8.755  13.066  11.682 -0.3310 -0.0642 -0.2849
37548SOL    HW124623   8.726  12.981  11.648  0.0394  0.0425 -0.8664
37548SOL    HW224624   8.785  13.114  11.605  0.6348  0.1325  0.2024
37549SOL     OW24625   0.521   7.135   9.382 -0.1186 -0.6629  0.2763
37549SOL    HW124626   0.481   7.139   9.295  0.4351 -0.5597  0.0200
37549SOL    HW224627   0.584   7.207   9.383  1.9385 -2.3492 -0.2973
37550SOL     OW24628   9.986  10.148  13.472  0.0340  0.1402  0.2456
37550SOL    HW124629  10.060  10.175  13.418 -0.4907  1.5201  0.1546
37550SOL    HW224630   9.911  10.195  13.435 -0.4841  0.5100  1.6738
37551SOL     OW24631   2.880  11.387  13.735 -0.1848  0.3001 -0.3613
37551SOL    HW124632   2.963  11.341  13.725 -0.5065 -0.5783  0.6883
37551SOL    HW224633   2.837  11.379  13.650  0.0826 -0.7585 -0.4088
37552SOL     OW24634  11.992  10.640  10.902  0.0303 -0.1517 -0.3791
37552SOL    HW124635  12.071  10.594  10.871 -0.5898 -1.5379  0.0529
37552SOL    HW224636  11.920  10.581  10.881 -0.6159 -0.2484  1.8828
37553SOL     OW24637   6.734   2.574   5.357 -0.1923 -0.2505  0.1980
37553SOL    HW124638   6.683   2.504   5.397  0.2823 -0.2156  0.8897
37553SOL    HW224639   6.776   2.618   5.431  1.3792 -0.7087 -0.3643
37554SOL     OW24640   9.794   4.497   4.321  0.2857 -0.7248 -0.7351
37554SOL    HW124641   9.863   4.476   4.257 -0.5104 -0.0376 -1.8610
37554SOL    HW224642   9.712   4.482   4.274 -0.3444  2.2907 -0.8154
37555SOL     OW24643   6.477   4.510  12.530  0.4126 -0.1889 -0.3561
37555SOL    HW124644   6.525   4.427  12.537 -0.5621 -0.8372 -1.0120
37555SOL    HW224645   6.523   4.570  12.589  0.7148 -1.4108  0.7028
37556SOL     OW24646  10.157  11.839  12.906  0.1673  0.1350 -0.3855
37556SOL    HW124647  10.120  11.767  12.957 -0.8039  0.5011 -0.5550
37556SOL    HW224648  10.146  11.812  12.815  1.1692 -0.1576 -0.4345
37557SOL     OW24649   9.831  13.247   6.894 -0.0119 -0.0412 -0.3107
37557SOL    HW124650   9.843  13.293   6.977 -1.0334 -0.4454  0.0706
37557SOL    HW224651   9.835  13.316   6.828  2.3954  0.1136 -0.1019
37558SOL     OW24652  10.118   7.883  12.894  0.0802 -0.4350  0.3078
37558SOL    HW124653  10.135   7.969  12.854  1.2643 -0.6722  0.2745
37558SOL    HW224654  10.039   7.852  12.850 -0.0343  0.3901 -0.0939
37559SOL     OW24655   2.631  10.489  12.756 -0.4335  0.1242  0.3195
37559SOL    HW124656   2.584  10.516  12.677 -0.0796  0.5092  0.2338
37559SOL    HW224657   2.647  10.396  12.744 -0.6139  0.1273  0.0525
37560SOL     OW24658   0.691  13.190  11.926  0.1435  0.3929 -0.3336
37560SOL    HW124659   0.761  13.126  11.939 -1.1127 -0.6291  2.0192
37560SOL    HW224660   0.626  13.144  11.873 -0.4838 -0.1196  0.8415
37561SOL     OW24661   8.453   2.216   2.732  0.2938  0.2039 -0.2544
37561SOL    HW124662   8.450   2.311   2.716  0.0307  0.0767 -0.9751
37561SOL    HW224663   8.393   2.203   2.806 -0.0321  0.5395 -0.4566
37562SOL     OW24664  10.850   8.977  11.075 -0.7442  0.3969 -0.3889
37562SOL    HW124665  10.901   9.054  11.049 -0.7460  0.4535 -0.2259
37562SOL    HW224666  10.858   8.917  11.001 -0.3297  0.3530 -0.3084
37563SOL     OW24667   8.917  11.742   4.668 -0.0026 -0.1650 -0.2690
37563SOL    HW124668   8.920  11.676   4.599  1.1781 -0.1331 -0.2717
37563SOL    HW224669   9.007  11.744   4.702 -0.3596  0.4661  0.6480
37564SOL     OW24670  11.655   6.378   6.537 -0.2649  0.0960  0.7455
37564SOL    HW124671  11.605   6.389   6.456  1.6629 -1.5969 -0.7998
37564SOL    HW224672  11.730   6.438   6.526 -0.4791  0.5577  1.7379
37565SOL     OW24673   2.136   2.227   7.164 -0.3601 -0.1078 -0.3942
37565SOL    HW124674   2.054   2.237   7.114 -0.3145  0.2447 -0.3994
37565SOL    HW224675   2.174   2.146   7.131 -0.3001  0.1501 -0.9823
37566SOL     OW24676  12.880  10.865   0.235  0.4493 -0.0420 -0.0865
37566SOL    HW124677  12.845  10.787   0.278 -1.4200  0.3899 -0.6968
37566SOL    HW224678  12.807  10.928   0.237  1.7687  1.5485  0.0198
37567SOL     OW24679   2.325   0.516   1.037 -0.3759  0.0400  0.0687
37567SOL    HW124680   2.342   0.422   1.030  1.1140  0.0626  2.3572
37567SOL    HW224681   2.236   0.521   1.071 -0.8542 -0.4721 -1.0429
37568SOL     OW24682  10.575  10.993   7.071  0.0928 -0.5019 -0.0345
37568SOL    HW124683  10.642  10.965   7.009  0.0993  0.4376 -0.4771
37568SOL    HW224684  10.609  11.074   7.109 -1.2085  0.5895 -1.0475
37569SOL     OW24685  12.551   3.786   3.982 -0.2401 -0.0951 -0.0108
37569SOL    HW124686  12.632   3.779   4.032 -0.4040  0.0432  0.2812
37569SOL    HW224687  12.497   3.847   4.033 -0.6505 -0.4343 -0.0341
37570SOL     OW24688  12.723   0.052   8.232 -0.1753  0.1919 -0.0527
37570SOL    HW124689  12.768   0.123   8.187 -1.1084 -0.5314 -2.2197
37570SOL    HW224690  12.638   0.044   8.189 -1.7873  0.3801  2.7939
37571SOL     OW24691   8.273   0.876   7.506 -0.1655  0.1961  0.1850
37571SOL    HW124692   8.217   0.914   7.573 -1.5256 -1.9968  0.4052
37571SOL    HW224693   8.362   0.883   7.541 -0.6016  1.1978  1.1278
37572SOL     OW24694   8.960   5.775   4.478  0.5207 -0.8097 -0.3733
37572SOL    HW124695   9.049   5.809   4.474 -1.2005  5.0770  1.4770
37572SOL    HW224696   8.914   5.819   4.407 -1.3428 -2.5871 -0.3657
37573SOL     OW24697  11.814   9.701  11.548 -0.0143  0.4584 -0.4551
37573SOL    HW124698  11.893   9.751  11.569 -0.9993  1.9605 -0.1689
37573SOL    HW224699  11.823   9.620  11.599  0.4173  1.4794  1.1746
37574SOL     OW24700   9.481   5.046   9.143 -0.2618  0.0380 -0.2400
37574SOL    HW124701   9.399   5.006   9.171 -0.5447  0.2914 -0.7045
37574SOL    HW224702   9.530   4.974   9.103 -0.4461 -0.0148 -0.3717
37575SOL     OW24703   5.740  13.218   8.866  0.1079 -0.1742  0.0361
37575SOL    HW124704   5.796  13.277   8.917 -1.3889  1.1473  0.2249
37575SOL    HW224705   5.673  13.275   8.829 -0.7388 -1.6145 -0.7095
37576SOL     OW24706  11.689  13.328   9.180 -0.0230 -0.4651 -0.2008
37576SOL    HW124707  11.616  13.389   9.165  0.9561  0.4459 -1.4750
37576SOL    HW224708  11.699  13.283   9.096  0.8376 -0.6299 -0.0107
37577SOL     OW24709   4.831  10.752   9.085 -0.2280 -0.1382  0.5115
37577SOL    HW124710   4.849  10.785   8.997 -1.7591  0.8797  0.5301
37577SOL    HW224711   4.891  10.678   9.097 -0.1770 -0.4510 -1.4756
37578SOL     OW24712   4.037  11.402   9.849 -0.2866 -0.1481 -0.4545
37578SOL    HW124713   3.959  11.397   9.904  1.6497 -2.6303  2.3646
37578SOL    HW224714   4.038  11.319   9.801  0.1827  0.2199 -1.0998
37579SOL     OW24715   9.799   4.295   7.520  0.1244  0.5521 -0.2131
37579SOL    HW124716   9.858   4.350   7.469  0.5298  0.1738 -0.1670
37579SOL    HW224717   9.837   4.207   7.514 -0.8987  0.1357 -0.8716
37580SOL     OW24718  10.996  10.847   3.300  0.1968 -0.1338  0.1942
37580SOL    HW124719  10.987  10.895   3.383  0.4207 -0.4778  0.4230
37580SOL    HW224720  11.079  10.800   3.310  0.8379  0.7540 -0.7078
37581SOL     OW24721   0.431  10.970   0.106 -0.8719  0.6341  0.5645
37581SOL    HW124722   0.508  11.006   0.149 -0.2283  0.6293 -0.5549
37581SOL    HW224723   0.383  10.927   0.177  1.5498 -1.8339  0.8950
37582SOL     OW24724   7.584   1.032   0.619 -0.1493 -0.4313 -0.1603
37582SOL    HW124725   7.670   1.040   0.579  0.5168 -0.7216  1.1765
37582SOL    HW224726   7.533   0.982   0.556  0.1890  0.9804 -1.6452
37583SOL     OW24727   6.872  12.779   2.853  0.0948 -0.0946  0.4854
37583SOL    HW124728   6.880  12.730   2.771 -0.9565  0.7922 -0.1740
37583SOL    HW224729   6.960  12.778   2.890  0.4230 -1.1541 -0.2666
37584SOL     OW24730   4.127   1.383   6.764  0.3790  0.1994 -0.5134
37584SOL    HW124731   4.076   1.409   6.687 -2.0927 -0.0437  0.9279
37584SOL    HW224732   4.163   1.465   6.798  1.1810  0.3524 -1.6877
37585SOL     OW24733  11.197  11.732   0.065  0.1197 -0.3575  0.0787
37585SOL    HW124734  11.138  11.657   0.059 -0.2021 -0.1270  0.3434
37585SOL    HW224735  11.169  11.790  -0.005 -0.8793  0.3859  1.0531
37586SOL     OW24736   2.009   2.018   4.486 -0.3848 -0.1225  0.3748
37586SOL    HW124737   2.102   2.005   4.505 -0.4595 -0.6670  0.3856
37586SOL    HW224738   1.988   2.103   4.524  0.5032  0.7695 -1.0421
37587SOL     OW24739   2.703   1.801   5.164 -0.4579 -0.4076  0.1844
37587SOL    HW124740   2.743   1.888   5.162  0.0374 -0.6412 -0.5559
37587SOL    HW224741   2.767   1.746   5.209 -0.1290 -0.6853 -0.6069
37588SOL     OW24742   7.863   5.860  13.084 -0.3375 -0.1404  0.2391
37588SOL    HW124743   7.859   5.889  12.992 -1.3133 -0.4605  0.1630
37588SOL    HW224744   7.952   5.829  13.095  0.0455  0.6979 -0.3537
37589SOL     OW24745   1.893   8.055   7.701 -0.1772 -0.0383  0.5095
37589SOL    HW124746   1.974   8.059   7.752 -0.2276 -0.0579  0.5911
37589SOL    HW224747   1.893   8.136   7.650 -0.7181  0.5564  1.4316
37590SOL     OW24748   5.734   6.560  11.160  0.1045 -0.2182 -0.3211
37590SOL    HW124749   5.728   6.476  11.205 -0.0885 -0.1836 -0.2794
37590SOL    HW224750   5.757   6.623  11.228  0.6855 -0.3095 -0.4314
37591SOL     OW24751   5.399   6.311  13.998 -0.4771  0.1399  0.4884
37591SOL    HW124752   5.358   6.249  14.058  1.5127 -2.7869 -0.9853
37591SOL    HW224753   5.442   6.375  14.055 -0.3514 -1.3685  2.1550
37592SOL     OW24754   9.383  10.021  12.425  0.0705 -0.0595  0.3052
37592SOL    HW124755   9.362  10.039  12.334  0.3445 -0.4338  0.1679
37592SOL    HW224756   9.297  10.013  12.468 -0.1176 -1.8684 -0.3036
37593SOL     OW24757   9.366   5.937   1.239 -0.1819 -0.2764 -0.6730
37593SOL    HW124758   9.373   5.844   1.257  2.9194  0.3445  2.4820
37593SOL    HW224759   9.323   5.974   1.316 -0.6133  1.0128 -1.4893
37594SOL     OW24760   4.100  13.971   4.094  0.3651  0.5661  0.9577
37594SOL    HW124761   4.172  13.971   4.157  0.9556  1.9110  0.3225
37594SOL    HW224762   4.036  14.033   4.130 -0.3393 -0.3345  1.3234
37595SOL     OW24763  11.121   2.776  12.232  0.3726 -0.5214 -0.0740
37595SOL    HW124764  11.192   2.831  12.199  0.2486 -1.4563 -2.0553
37595SOL    HW224765  11.114   2.706  12.167  0.1879 -2.5943  2.0661
37596SOL     OW24766  12.384   9.676   0.488 -0.4716 -0.4507  0.3991
37596SOL    HW124767  12.453   9.611   0.500 -2.0511 -2.5375 -1.1467
37596SOL    HW224768  12.307   9.637   0.529 -2.2775 -1.2086 -3.2793
37597SOL     OW24769   4.564   0.287   0.429 -0.3532  0.0421 -0.1957
37597SOL    HW124770   4.593   0.197   0.446  0.9605  0.4502 -0.1493
37597SOL    HW224771   4.472   0.287   0.452  0.0896 -0.7971  1.8045
37598SOL     OW24772  10.351  13.082   9.931  0.0884  0.1859 -0.2221
37598SOL    HW124773  10.409  13.015   9.897  0.3724 -0.7749  2.0258
37598SOL    HW224774  10.409  13.154   9.957  0.5739 -1.2497  3.1606
37599SOL     OW24775  10.598   0.432  13.992  0.5557 -0.4624 -0.5007
37599SOL    HW124776  10.634   0.510  13.950  1.0034 -0.3137  0.1407
37599SOL    HW224777  10.533   0.466  14.054  0.9202 -0.5754 -0.0510
37600SOL     OW24778   3.095  12.782   3.078  0.2274 -0.2240 -0.0948
37600SOL    HW124779   3.032  12.713   3.100 -0.5694  0.2183 -0.9515
37600SOL    HW224780   3.089  12.843   3.152  0.0745 -0.4782  0.1058
37601SOL     OW24781   2.347   7.837   2.665  0.6161  0.2202  0.0728
37601SOL    HW124782   2.365   7.758   2.717  1.3742 -0.0256 -0.5381
37601SOL    HW224783   2.424   7.892   2.679 -0.6357  1.6357  1.8554
37602SOL     OW24784  10.598   3.969   9.876  0.1088  0.3182 -0.1205
37602SOL    HW124785  10.653   4.003   9.805  0.7161 -1.1690 -0.3813
37602SOL    HW224786  10.562   3.887   9.842 -1.6871  0.8765  0.3390
37603SOL     OW24787  11.459   6.163   4.026 -0.1889 -0.0854  0.0083
37603SOL    HW124788  11.386   6.183   4.086 -0.8946  1.0523 -1.1621
37603SOL    HW224789  11.535   6.205   4.066 -0.9928  2.2084 -0.6906
37604SOL     OW24790   8.368   3.297  10.528  0.4554  0.1427  0.2597
37604SOL    HW124791   8.458   3.280  10.499  0.6613  1.4266  0.0705
37604SOL    HW224792   8.373   3.382  10.572 -0.2879 -0.7020  2.0737
37605SOL     OW24793  11.760  13.894  13.992 -0.3945 -0.2882  0.3236
37605SOL    HW124794  11.777  13.830  14.061  1.5224  0.7953  0.9398
37605SOL    HW224795  11.782  13.848  13.911 -1.4162 -1.1654  0.5383
37606SOL     OW24796   8.399  10.734  10.776 -0.0471  0.3539  0.2257
37606SOL    HW124797   8.329  10.799  10.780 -0.2184  0.1436  0.6229
37606SOL    HW224798   8.428  10.724  10.866 -0.0404 -0.1489  0.1710
37607SOL     OW24799  13.611   2.090   7.026  0.4411 -0.1122  0.3364
37607SOL    HW124800  13.518   2.070   7.039 -0.0199  2.2663  1.2378
37607SOL    HW224801  13.656   2.010   7.052 -1.2913 -0.7527  1.5964
37608SOL     OW24802  10.323  11.991   3.758  0.1179  0.0767 -0.5457
37608SOL    HW124803  10.379  11.970   3.833 -0.3345 -0.5515 -0.3695
37608SOL    HW224804  10.360  12.071   3.722  0.0387  0.6700  0.6497
37609SOL     OW24805  13.728  11.386   3.297  0.5721 -0.5033  0.1963
37609SOL    HW124806  13.652  11.440   3.277  0.5343 -0.7440 -0.3151
37609SOL    HW224807  13.796  11.449   3.322 -0.1551 -0.3440  1.9568
37610SOL     OW24808   1.300   2.707   9.409  0.5343 -0.1277 -0.2777
37610SOL    HW124809   1.368   2.736   9.348  1.6515  1.3496  1.5279
37610SOL    HW224810   1.282   2.785   9.462 -1.0648 -1.0909  0.6563
37611SOL     OW24811   2.685   1.151  10.395  0.3714  0.2304  0.3635
37611SOL    HW124812   2.659   1.066  10.430 -1.3598  1.3322  1.9254
37611SOL    HW224813   2.646   1.215  10.455 -0.1439  2.1777 -1.9117
37612SOL     OW24814  12.787   5.056   4.062 -0.0043 -0.0183 -0.1994
37612SOL    HW124815  12.709   5.067   4.117 -0.0299  0.9786 -0.4141
37612SOL    HW224816  12.859   5.049   4.125 -0.0674  0.8247 -0.0153
37613SOL     OW24817   3.927   8.515  11.679 -0.2182 -0.4859 -0.1404
37613SOL    HW124818   3.984   8.439  11.668 -0.8180 -1.1878  1.3328
37613SOL    HW224819   3.849   8.481  11.723 -1.4153  0.6119 -1.3314
37614SOL     OW24820  12.988   5.765   2.178  0.2576 -0.2757  0.7113
37614SOL    HW124821  12.912   5.722   2.216 -0.3474 -0.3567 -0.5311
37614SOL    HW224822  13.021   5.703   2.113 -0.6216  1.0714 -1.1080
37615SOL     OW24823   9.480   9.563   4.890  0.6540  0.3463 -0.4837
37615SOL    HW124824   9.456   9.476   4.922  0.5003  0.8898  0.9651
37615SOL    HW224825   9.400   9.596   4.848  0.6822 -0.1615 -0.9453
37616SOL     OW24826   4.588   0.400  11.965 -0.1910 -0.1443  0.1062
37616SOL    HW124827   4.593   0.406  12.061  1.1874 -2.5823  0.2607
37616SOL    HW224828   4.665   0.448  11.934  0.3452 -0.8254  0.3435
37617SOL     OW24829   5.251   4.132   9.401  0.1380 -0.2814 -0.1771
37617SOL    HW124830   5.311   4.175   9.339 -0.1058  0.2677 -0.0372
37617SOL    HW224831   5.291   4.147   9.487  0.0661 -0.3641 -0.1293
37618SOL     OW24832   3.167   2.363   7.173  0.1014 -0.9354  0.5155
37618SOL    HW124833   3.255   2.392   7.194 -0.3657  0.9379  0.0925
37618SOL    HW224834   3.161   2.369   7.078 -0.9589  0.5714  0.6408
37619SOL     OW24835  13.480   0.923   2.581  0.1737 -0.0378 -0.1505
37619SOL    HW124836  13.501   1.007   2.539 -1.1675  0.4461  0.1092
37619SOL    HW224837  13.551   0.911   2.644  0.2755  1.0256 -0.0281
37620SOL     OW24838   7.448  11.280  13.010 -0.0459 -0.4111  0.2489
37620SOL    HW124839   7.512  11.214  13.036 -0.1042 -1.0005 -1.0275
37620SOL    HW224840   7.498  11.343  12.958  0.4883  1.8215  3.2022
37621SOL     OW24841   9.936  10.901   2.540 -0.1754  0.0993  0.5612
37621SOL    HW124842   9.887  10.895   2.458  0.8805  0.4369 -0.1229
37621SOL    HW224843   9.869  10.909   2.608 -1.0658 -0.0105 -0.2825
37622SOL     OW24844   8.084   7.777   7.715  0.8795  0.2452  0.9989
37622SOL    HW124845   8.117   7.688   7.699  3.1364  1.2070 -0.1446
37622SOL    HW224846   8.068   7.780   7.809  2.0711 -0.9851  1.2676
37623SOL     OW24847   6.242   4.565  10.891  0.6802 -0.2897 -0.1493
37623SOL    HW124848   6.180   4.635  10.908 -0.3337 -0.7896 -1.6184
37623SOL    HW224849   6.253   4.521  10.976  1.3027  1.5617  0.7823
37624SOL     OW24850   0.075   5.553  13.573 -0.1265 -0.0145  0.6226
37624SOL    HW124851  -0.010   5.594  13.561 -0.8874 -1.7564 -0.3446
37624SOL    HW224852   0.136   5.608  13.522 -0.9950  0.2482 -0.1627
37625SOL     OW24853   3.195  12.486  12.628  0.5265 -0.4817 -0.4673
37625SOL    HW124854   3.207  12.411  12.686  0.2127  0.0770  0.3312
37625SOL    HW224855   3.283  12.511  12.602  0.7737  0.0980  0.8580
37626SOL     OW24856   4.298   9.873   7.548 -0.5221 -0.4467  0.1376
37626SOL    HW124857   4.386   9.908   7.536 -0.2305 -0.8552  0.9871
37626SOL    HW224858   4.268   9.851   7.460  0.8428 -1.7454 -0.0490
37627SOL     OW24859   1.170   5.519   7.050 -0.0138 -0.0103  0.1987
37627SOL    HW124860   1.135   5.449   7.106 -2.9189  0.6522 -0.6199
37627SOL    HW224861   1.162   5.598   7.103 -2.9377  0.6491 -1.0585
37628SOL     OW24862   5.612   2.035  11.220 -0.1395 -0.2758 -0.0912
37628SOL    HW124863   5.679   2.081  11.169 -1.2305 -1.7374 -3.0783
37628SOL    HW224864   5.647   1.947  11.231 -0.7694 -0.5208 -0.0172
37629SOL     OW24865   1.716   2.606  11.886  0.4950  0.1747 -0.1574
37629SOL    HW124866   1.688   2.663  11.957 -1.2310  0.5393 -1.0934
37629SOL    HW224867   1.644   2.607  11.823  1.5624 -0.9033 -1.4745
37630SOL     OW24868   0.112   2.311   1.737 -0.2622  0.1046  0.4468
37630SOL    HW124869   0.071   2.311   1.824 -0.2779  0.9567  0.4488
37630SOL    HW224870   0.184   2.374   1.746  0.5830 -0.8167  0.2305
37631SOL     OW24871   6.591   5.018   2.120 -0.0471  0.1258  0.3783
37631SOL    HW124872   6.569   5.101   2.163 -1.7753 -0.0394 -0.0862
37631SOL    HW224873   6.514   4.963   2.136 -0.4653 -0.1750 -2.2919
37632SOL     OW24874   2.903   2.504   8.036  0.0682  0.5231  0.4698
37632SOL    HW124875   2.902   2.599   8.039 -1.7863  0.5738 -0.3756
37632SOL    HW224876   2.938   2.477   8.121  1.1929  1.9432  0.4779
37633SOL     OW24877   5.109   5.700  13.296  0.6683 -0.0927 -0.3662
37633SOL    HW124878   5.047   5.758  13.342  0.3757  0.7810 -1.8213
37633SOL    HW224879   5.192   5.747  13.299  0.4823  0.3243 -1.3468
37634SOL     OW24880   2.737  11.565   9.395  0.4142 -0.1174  0.2162
37634SOL    HW124881   2.672  11.525   9.338  0.4585  2.8157 -2.1798
37634SOL    HW224882   2.803  11.600   9.335  1.1680  2.0382  2.1431
37635SOL     OW24883  13.779   7.273   1.265 -0.0649  0.2978  0.4787
37635SOL    HW124884  13.849   7.241   1.322  0.9404  0.7884 -0.4493
37635SOL    HW224885  13.713   7.307   1.325  0.4204 -0.3054  1.3757
37636SOL     OW24886   1.444  11.320   0.631  0.7310  0.0201  0.0902
37636SOL    HW124887   1.508  11.318   0.560 -1.6807  0.0199 -2.2407
37636SOL    HW224888   1.415  11.411   0.635 -0.3269 -0.2958 -0.0745
37637SOL     OW24889   1.454   9.565   4.682  0.7968 -0.2183  0.5713
37637SOL    HW124890   1.497   9.483   4.707  0.4594 -0.8518 -0.8449
37637SOL    HW224891   1.442   9.558   4.588  0.2169  1.2188  0.5124
37638SOL     OW24892   2.586   3.859   7.894 -0.0874  0.1280 -0.7530
37638SOL    HW124893   2.665   3.822   7.933 -1.1202 -1.3034  0.0683
37638SOL    HW224894   2.540   3.900   7.967 -0.6740 -0.0933 -0.9906
37639SOL     OW24895   9.335   0.485   8.727  0.4284  0.1952  0.3915
37639SOL    HW124896   9.255   0.521   8.689 -0.5123 -0.9145  1.1937
37639SOL    HW224897   9.384   0.450   8.653 -1.4267 -2.0627  0.1096
37640SOL     OW24898  11.278   4.457   2.767 -0.5313 -0.1065 -0.5001
37640SOL    HW124899  11.283   4.411   2.684  1.8897  0.5590 -0.8017
37640SOL    HW224900  11.221   4.532   2.750 -0.0908  0.0004 -1.5817
37641SOL     OW24901   9.397   7.728   8.765 -0.0499  0.0455  0.2241
37641SOL    HW124902   9.355   7.704   8.848 -1.2473  0.6641 -0.1715
37641SOL    HW224903   9.331   7.710   8.698  1.0366 -0.8109 -0.6619
37642SOL     OW24904   2.540  13.407  11.029  0.7635 -0.6678 -0.6520
37642SOL    HW124905   2.579  13.494  11.027  0.6297 -0.5807  0.1962
37642SOL    HW224906   2.463  13.414  10.972  1.5108 -0.6302 -1.7014
37643SOL     OW24907   7.239  13.568   2.658 -0.7172  0.2766 -0.3556
37643SOL    HW124908   7.308  13.586   2.594 -1.2485  1.7752 -0.5303
37643SOL    HW224909   7.203  13.483   2.630  1.2403 -0.7079 -0.0622
37644SOL     OW24910  12.178   5.446   1.143  0.1759  0.0008  0.4500
37644SOL    HW124911  12.262   5.484   1.117 -0.1499  0.5698  0.2064
37644SOL    HW224912  12.112   5.498   1.097 -0.2763 -1.0887 -0.1787
37645SOL     OW24913   0.236   6.789  10.998  0.2055  0.2862 -0.0167
37645SOL    HW124914   0.180   6.780  10.921 -0.1593  1.6302  0.0599
37645SOL    HW224915   0.195   6.859  11.049  1.1545  0.2967  0.7532
37646SOL     OW24916  12.442  12.354  13.268 -0.1837 -0.0614 -0.2252
37646SOL    HW124917  12.451  12.431  13.323  0.6406 -0.7707  0.6678
37646SOL    HW224918  12.446  12.387  13.178 -0.6962  1.0156  0.1350
37647SOL     OW24919   3.248  13.004  10.219 -0.1322  0.1280 -0.0452
37647SOL    HW124920   3.303  13.076  10.186  0.0920  0.4873  1.0589
37647SOL    HW224921   3.286  12.925  10.181  1.1185  0.3782  0.6110
37648SOL     OW24922   6.643   8.510   2.945  0.3266  0.5289 -0.3910
37648SOL    HW124923   6.694   8.429   2.936  0.3125  0.5282 -0.4631
37648SOL    HW224924   6.636   8.544   2.856  0.2575  0.5644 -0.3719
37649SOL     OW24925   7.932   7.822   7.998  0.1612 -0.4019  0.4006
37649SOL    HW124926   7.996   7.869   8.051  0.9569 -0.0080 -0.8573
37649SOL    HW224927   7.868   7.888   7.972 -2.0034 -1.1356  3.2707
37650SOL     OW24928  12.126   0.313   0.892  0.4075 -0.3131  0.0778
37650SOL    HW124929  12.210   0.293   0.934 -0.3075 -1.1126  1.2097
37650SOL    HW224930  12.061   0.296   0.960 -0.6874  0.2183 -0.7977
37651SOL     OW24931   7.511   2.372   2.795 -0.2692  0.5805 -0.4181
37651SOL    HW124932   7.514   2.341   2.885  1.9452  1.1984 -0.2153
37651SOL    HW224933   7.499   2.467   2.802 -1.9418  0.4410 -0.8755
37652SOL     OW24934   1.013   1.691   6.641  0.6213  0.6148 -0.1749
37652SOL    HW124935   0.949   1.620   6.640  0.0007  1.1637 -1.2731
37652SOL    HW224936   1.092   1.652   6.678  0.4528 -0.7872 -1.2038
37653SOL     OW24937   1.712  11.064  11.414  0.3347  0.4496  0.2857
37653SOL    HW124938   1.722  11.063  11.509 -0.0124  1.4195  0.3407
37653SOL    HW224939   1.791  11.107  11.381  0.0827  0.8348  0.1854
37654SOL     OW24940   9.454   3.259  11.095 -0.4660  0.1556  0.4917
37654SOL    HW124941   9.508   3.277  11.172  1.1314 -2.4058  0.1008
37654SOL    HW224942   9.378   3.213  11.130 -0.6406  0.5995  0.7019
37655SOL     OW24943   1.835   8.319   5.133 -0.6426 -0.0787  0.1714
37655SOL    HW124944   1.859   8.408   5.108 -0.5143 -0.2515 -0.3413
37655SOL    HW224945   1.858   8.266   5.056 -2.2567 -0.3157 -0.1848
37656SOL     OW24946  10.430   6.510   9.255 -0.2202  0.2933  0.2173
37656SOL    HW124947  10.418   6.470   9.341  0.9013 -0.8251 -0.1290
37656SOL    HW224948  10.430   6.437   9.194  1.7983  0.7858 -0.4423
37657SOL     OW24949   0.010  11.700  10.841  0.0404 -0.7396  0.8237
37657SOL    HW124950   0.049  11.764  10.782  0.6426 -1.6815  0.1684
37657SOL    HW224951   0.000  11.746  10.924 -2.0280  1.0430 -0.3031
37658SOL     OW24952  11.600  13.170   1.210 -0.6761  0.3608  0.5348
37658SOL    HW124953  11.592  13.249   1.156  0.0298  1.1645  1.5668
37658SOL    HW224954  11.695  13.158   1.221 -0.8045  0.6863  2.2472
37659SOL     OW24955   1.927   4.704  13.759 -0.5806 -0.1292  0.0624
37659SOL    HW124956   2.019   4.679  13.759 -0.4455  0.3554  0.0566
37659SOL    HW224957   1.898   4.689  13.669  0.2239  2.2836 -0.6904
37660SOL     OW24958  12.739  11.900   3.989  0.7857 -0.0150  0.0446
37660SOL    HW124959  12.798  11.929   4.059  2.4057 -0.7884 -0.9292
37660SOL    HW224960  12.699  11.820   4.022  0.9793  0.0265  0.3798
37661SOL     OW24961  11.523   3.111   8.110  0.4104  0.0676 -0.0612
37661SOL    HW124962  11.608   3.087   8.074  0.5622  0.4498  0.0388
37661SOL    HW224963  11.478   3.027   8.125  0.7087 -0.1258 -0.2565
37662SOL     OW24964   1.939  12.852   9.885  0.1983 -0.7570  0.4693
37662SOL    HW124965   1.879  12.780   9.871 -0.7322  0.0921 -0.0297
37662SOL    HW224966   1.992  12.826   9.960 -1.2239 -1.2450  1.3219
37663SOL     OW24967   2.248   6.503   6.221 -0.3713 -0.5119  0.1346
37663SOL    HW124968   2.240   6.414   6.255 -0.5826 -0.3606  0.4931
37663SOL    HW224969   2.184   6.508   6.150  0.0823 -0.8345 -0.3028
37664SOL     OW24970   2.563  13.288   2.398  0.2630  0.5418  0.1054
37664SOL    HW124971   2.538  13.378   2.420 -0.0085  0.8229 -1.2452
37664SOL    HW224972   2.648  13.297   2.353  1.2108 -0.0853  1.6834
37665SOL     OW24973   4.267  13.774   5.018  0.2599  0.0220  0.4253
37665SOL    HW124974   4.333  13.704   5.021 -0.0176 -0.2160  2.5597
37665SOL    HW224975   4.272  13.815   5.104 -1.5730  0.7643  0.2165
37666SOL     OW24976   6.645   2.158   3.663  0.4322 -0.2933  0.3226
37666SOL    HW124977   6.587   2.214   3.714  0.5498  1.3135 -1.2106
37666SOL    HW224978   6.592   2.082   3.642 -0.5286  0.3157  0.4784
37667SOL     OW24979   8.914   3.700   7.143  0.2285 -0.1257  0.1832
37667SOL    HW124980   8.988   3.654   7.181 -0.1863 -0.4872  0.5592
37667SOL    HW224981   8.840   3.678   7.199 -0.0703  0.6287  0.1022
37668SOL     OW24982   4.738  10.454   4.159 -0.2787  0.1596 -0.0361
37668SOL    HW124983   4.709  10.545   4.157  0.2451  0.3222 -0.3356
37668SOL    HW224984   4.822  10.454   4.115 -0.4400 -0.5390 -0.3635
37669SOL     OW24985   9.573   7.696   6.448 -0.3167 -0.2511 -0.5478
37669SOL    HW124986   9.489   7.692   6.494 -0.1872 -0.9776 -0.3578
37669SOL    HW224987   9.636   7.662   6.512  0.7956  3.6007  0.7257
37670SOL     OW24988   2.917   6.353   9.964 -0.0611 -0.3410  0.5915
37670SOL    HW124989   2.838   6.340  10.017  0.3969  1.2272  1.7297
37670SOL    HW224990   2.965   6.422  10.009  2.0026 -1.2637 -0.0586
37671SOL     OW24991   2.132   7.326   9.433 -0.3977 -0.2918  0.0168
37671SOL    HW124992   2.120   7.236   9.464  0.2969 -0.2164  0.5068
37671SOL    HW224993   2.176   7.371   9.505 -0.2476  0.3051 -0.4430
37672SOL     OW24994  10.489   4.820   3.031 -0.5515  0.1391 -0.4878
37672SOL    HW124995  10.540   4.789   2.956  2.0225  0.9592  0.8235
37672SOL    HW224996  10.490   4.915   3.023  1.6803  0.4084  1.6331
37673SOL     OW24997   1.063  11.674  10.020 -0.0314 -0.0495 -0.3546
37673SOL    HW124998   1.129  11.704  10.082 -1.2144  1.0323  0.4274
37673SOL    HW224999   1.111  11.661   9.938  1.2245  0.2399  0.3115
37674SOL     OW25000   5.481  12.184   9.551 -0.1052  0.1362 -0.0419
37674SOL    HW125001   5.406  12.127   9.568 -0.0029  0.0390  0.0829
37674SOL    HW225002   5.452  12.271   9.581  0.9230 -0.4647  3.1063
37675SOL     OW25003  10.135   0.860   9.632  0.3207  0.2930 -0.3524
37675SOL    HW125004  10.167   0.801   9.564  1.0247 -0.4114  0.5575
37675SOL    HW225005  10.055   0.817   9.665  0.8867 -0.2341  0.3776
37676SOL     OW25006   4.292   1.166   4.000 -0.2776  0.0461  0.3902
37676SOL    HW125007   4.249   1.148   4.084 -1.1770  2.8454  0.6466
37676SOL    HW225008   4.275   1.088   3.947 -3.9808  0.0980  1.1994
37677SOL     OW25009   6.691   7.087  13.910 -0.1505 -0.1438  0.3715
37677SOL    HW125010   6.735   7.003  13.923  1.0280  0.5732  1.1837
37677SOL    HW225011   6.632   7.095  13.985  0.6675  0.3157  0.9730
37678SOL     OW25012   3.004   0.725  12.571 -0.1426 -0.2409 -0.0603
37678SOL    HW125013   2.933   0.702  12.511  0.4683 -1.1677 -0.4467
37678SOL    HW225014   3.079   0.675  12.540  0.2129 -0.6582  1.4089
37679SOL     OW25015   6.827   9.280   0.479 -0.0158 -0.2270  0.2264
37679SOL    HW125016   6.804   9.245   0.564  0.5573 -2.0666 -0.3277
37679SOL    HW225017   6.812   9.374   0.486 -1.1035 -0.5038  1.9624
37680SOL     OW25018  12.290  10.728   3.530 -0.1048 -0.0118 -0.4368
37680SOL    HW125019  12.267  10.637   3.514 -0.8571  0.2047 -0.6616
37680SOL    HW225020  12.279  10.771   3.445  0.9200  0.1598 -0.4917
37681SOL     OW25021  12.069   8.239   6.760 -0.0018  0.0023  0.0858
37681SOL    HW125022  12.046   8.181   6.833 -0.8590 -0.2085 -0.3444
37681SOL    HW225023  12.098   8.320   6.802 -1.5259  0.2784  0.6681
37682SOL     OW25024   2.650  13.771   2.258 -0.6079 -0.0238 -0.0253
37682SOL    HW125025   2.623  13.696   2.205 -2.4567  1.2130 -0.9517
37682SOL    HW225026   2.634  13.743   2.348 -0.1176 -1.1600 -0.2770
37683SOL     OW25027   7.391   9.068   1.198 -0.3455  0.3808 -0.2464
37683SOL    HW125028   7.477   9.057   1.156  0.0949 -0.2035  0.7581
37683SOL    HW225029   7.384   9.163   1.213  0.4848  0.3699  0.3397
37684SOL     OW25030  10.898  13.273  12.391 -0.2181 -0.3381  0.1169
37684SOL    HW125031  10.902  13.256  12.485  1.2997 -0.7720  0.0040
37684SOL    HW225032  10.808  13.252  12.366 -0.1797 -1.9237  1.1670
37685SOL     OW25033   4.937   9.498   7.216 -0.3764 -0.2050  0.3086
37685SOL    HW125034   4.901   9.559   7.151 -2.3338 -1.0848  0.4874
37685SOL    HW225035   5.004   9.548   7.262  1.1385  0.4401 -2.3810
37686SOL     OW25036  13.106   4.706  12.435 -0.8810 -0.2655 -0.7004
37686SOL    HW125037  13.097   4.797  12.407 -0.6969 -0.6895 -2.2006
37686SOL    HW225038  13.151   4.712  12.520 -1.2150  1.0517 -0.5923
37687SOL     OW25039  10.992  10.684   0.527  0.0532 -0.2893  0.0905
37687SOL    HW125040  11.000  10.729   0.443 -2.2841  2.1391  1.0030
37687SOL    HW225041  10.910  10.637   0.521 -0.7431  0.8529  1.3276
37688SOL     OW25042   0.808  10.729  11.079 -0.5242 -0.0425  0.7045
37688SOL    HW125043   0.852  10.667  11.020  0.4206  0.8557  0.4373
37688SOL    HW225044   0.727  10.752  11.034 -0.2989 -0.1476  0.2446
37689SOL     OW25045   1.633   6.416   5.107  0.1557 -0.0574 -0.0080
37689SOL    HW125046   1.646   6.462   5.024 -0.8605 -1.1175 -0.8032
37689SOL    HW225047   1.563   6.353   5.088  0.4113 -0.8258  1.4657
37690SOL     OW25048   4.323   5.682   7.791  0.2292 -0.2350 -0.4696
37690SOL    HW125049   4.313   5.659   7.884  1.8138  0.7855 -0.0078
37690SOL    HW225050   4.409   5.649   7.767 -0.2514 -0.6699 -1.6575
37691SOL     OW25051   6.211  13.804   0.983  0.0433 -0.0514 -0.0750
37691SOL    HW125052   6.184  13.856   0.908 -2.1927  0.1642  0.7913
37691SOL    HW225053   6.134  13.804   1.041  0.8887 -2.1120  1.1577
37692SOL     OW25054  11.057  11.963   5.984  0.2199 -0.6211  0.2296
37692SOL    HW125055  11.004  12.042   5.972 -0.5220 -1.3003 -1.3098
37692SOL    HW225056  11.031  11.928   6.069  1.0482  1.1281  1.2351
37693SOL     OW25057   5.669  11.123   8.476  0.1335  0.0510 -0.3770
37693SOL    HW125058   5.604  11.176   8.522  0.2990  0.1994 -0.3110
37693SOL    HW225059   5.618  11.059   8.428 -0.1386  0.9751 -1.3595
37694SOL     OW25060   0.628  12.458   4.738  0.3419 -0.2441 -0.2646
37694SOL    HW125061   0.629  12.366   4.711 -0.1033 -0.2446 -0.2928
37694SOL    HW225062   0.681  12.461   4.817  1.2389 -0.3326 -0.8550
37695SOL     OW25063   5.817  10.630   0.624  1.0490  0.1524  0.0793
37695SOL    HW125064   5.899  10.679   0.615  1.0496  0.1115 -0.1324
37695SOL    HW225065   5.777  10.666   0.704 -0.2963  2.5032 -1.5423
37696SOL     OW25066   0.244   3.331   3.729  0.0947  0.3928 -0.1936
37696SOL    HW125067   0.324   3.384   3.727  0.3413  0.0496  0.3805
37696SOL    HW225068   0.275   3.241   3.725 -0.1637  0.1968  1.4722
37697SOL     OW25069   9.961   0.523   5.858 -0.2236  0.0320 -0.1331
37697SOL    HW125070  10.046   0.480   5.856 -0.3564 -0.2332 -0.1739
37697SOL    HW225071   9.965   0.590   5.791 -0.1224 -0.1278 -0.2865
37698SOL     OW25072   6.318   6.317   6.300  0.1872 -0.5027  0.3986
37698SOL    HW125073   6.339   6.399   6.344  1.7152  0.3546 -1.8143
37698SOL    HW225074   6.262   6.271   6.363  0.9695  1.2996  2.5621
37699SOL     OW25075   2.005   1.230   7.987  0.2267 -0.5468  0.3664
37699SOL    HW125076   2.088   1.184   7.998  0.1578 -0.8626 -0.3930
37699SOL    HW225077   1.946   1.189   8.051  0.8236  0.1388  1.4000
37700SOL     OW25078   1.611  11.813   2.011 -0.2311  0.4300 -0.2118
37700SOL    HW125079   1.654  11.744   1.960  1.1238 -1.0748  2.7529
37700SOL    HW225080   1.522  11.780   2.024  0.5222 -1.1018  1.5444
37701SOL     OW25081   9.158   3.179   3.403 -0.0995  0.2729  0.3343
37701SOL    HW125082   9.210   3.161   3.325  1.1161 -0.4757  1.2600
37701SOL    HW225083   9.178   3.106   3.462 -1.9295  0.1784  0.8796
37702SOL     OW25084   1.158   8.020   6.125 -0.2055 -0.0195 -0.1770
37702SOL    HW125085   1.120   7.932   6.124 -0.1805 -0.0422  0.6965
37702SOL    HW225086   1.171   8.040   6.217  1.0592  0.3504 -0.4157
37703SOL     OW25087   2.377   9.593  11.025 -0.5297 -0.4777 -0.4200
37703SOL    HW125088   2.336   9.671  10.988 -0.9625 -1.7432 -2.8283
37703SOL    HW225089   2.331   9.520  10.983  0.7669 -2.0207  0.7314
37704SOL     OW25090  12.436   4.042   6.715 -0.1001  0.2272 -0.4501
37704SOL    HW125091  12.514   4.026   6.661  0.8501 -0.1522  0.9949
37704SOL    HW225092  12.455   3.998   6.798 -2.1448 -0.4530 -0.2922
37705SOL     OW25093   0.145   4.914   9.939  0.5105  0.3289  0.3530
37705SOL    HW125094   0.211   4.948   9.879  0.1162 -0.0368 -0.2986
37705SOL    HW225095   0.070   4.972   9.928  0.0228 -0.4218 -0.3762
37706SOL     OW25096   5.668   3.061   6.056  0.4284 -0.6113 -0.1364
37706SOL    HW125097   5.652   3.152   6.079  0.2426 -0.5156 -0.6189
37706SOL    HW225098   5.658   3.012   6.138 -1.3574 -0.4350 -0.2040
37707SOL     OW25099   3.564   2.254   7.856 -0.2081 -0.4380 -0.4343
37707SOL    HW125100   3.499   2.241   7.787 -1.2705  1.5326  0.1045
37707SOL    HW225101   3.626   2.182   7.845 -1.9406 -1.8350 -1.5895
37708SOL     OW25102   9.230   3.622   0.762 -0.2502  0.3708 -0.3735
37708SOL    HW125103   9.278   3.632   0.844 -0.0228 -1.9650 -0.1760
37708SOL    HW225104   9.154   3.679   0.773 -0.1531  0.2327  1.4155
37709SOL     OW25105  10.970  10.293   2.196 -0.2549  0.3510 -0.3393
37709SOL    HW125106  10.997  10.302   2.287  0.3956  0.9575 -0.5837
37709SOL    HW225107  11.051  10.294   2.146 -0.5649 -0.6485 -0.8891
37710SOL     OW25108   1.026   4.593   5.510  0.0665 -0.5171 -0.1409
37710SOL    HW125109   0.952   4.572   5.454  0.7131  0.4104 -1.3885
37710SOL    HW225110   1.095   4.532   5.483  0.9418  1.0515 -1.6228
37711SOL     OW25111   4.337  12.402   1.669  0.1764  0.1003  0.0888
37711SOL    HW125112   4.399  12.446   1.727  0.0807  0.1061  0.1884
37711SOL    HW225113   4.338  12.454   1.588  1.1972 -0.5932 -0.3611
37712SOL     OW25114   6.752   8.648   0.085  0.4305 -0.1995 -0.1744
37712SOL    HW125115   6.736   8.611  -0.002  0.7925 -0.1814 -0.2529
37712SOL    HW225116   6.830   8.602   0.117  0.0478 -0.5096  0.3226
37713SOL     OW25117   3.374  11.417   8.150 -0.0405  0.3345  0.2959
37713SOL    HW125118   3.280  11.398   8.153 -0.1717  1.0345  0.7256
37713SOL    HW225119   3.382  11.505   8.185  0.5159  1.3291 -2.1470
37714SOL     OW25120   9.051  10.730   9.789 -0.0327 -0.3221  0.0144
37714SOL    HW125121   9.003  10.664   9.738  1.7259 -1.8212  0.1944
37714SOL    HW225122   8.983  10.783   9.829 -1.5082 -1.2087 -1.1981
37715SOL     OW25123   3.049   8.998   3.065  0.4066 -0.2132 -0.0252
37715SOL    HW125124   2.967   8.994   3.016 -0.8847  1.5584  1.8509
37715SOL    HW225125   3.047   8.921   3.122  0.4246 -0.5598 -0.4821
37716SOL     OW25126   8.494   0.826  11.347  0.4417  0.3454 -0.4674
37716SOL    HW125127   8.513   0.746  11.299  0.4777 -0.0816  0.2471
37716SOL    HW225128   8.402   0.845  11.327  0.2351 -0.2504 -0.1041
37717SOL     OW25129  13.973  11.763   0.790 -0.3132  0.0804  0.0197
37717SOL    HW125130  14.021  11.693   0.835  0.6510  1.2587  0.9204
37717SOL    HW225131  13.992  11.751   0.698  1.4362  0.2619  0.3250
37718SOL     OW25132   5.059   9.699   0.515  0.5331  0.5462 -0.2058
37718SOL    HW125133   5.135   9.729   0.564  1.6782  1.0735 -2.1963
37718SOL    HW225134   5.036   9.772   0.458  0.7553 -0.7907 -2.1391
37719SOL     OW25135   4.687   3.154  13.286  0.1748  0.1196  0.0742
37719SOL    HW125136   4.689   3.249  13.273  2.5406  0.2812  1.2190
37719SOL    HW225137   4.607   3.126  13.240  0.0467  2.4779 -1.3203
37720SOL     OW25138   8.836   7.158  12.248 -0.3411 -0.3119  0.2360
37720SOL    HW125139   8.800   7.214  12.316 -0.6004  0.1809 -0.3047
37720SOL    HW225140   8.868   7.218  12.181 -0.9444 -0.8066 -0.5194
37721SOL     OW25141   2.919   9.746   6.543  0.7376 -0.5948 -0.1735
37721SOL    HW125142   2.893   9.823   6.594  0.7165 -1.1798  0.7281
37721SOL    HW225143   3.012   9.736   6.560  0.8194 -0.5590 -0.5840
37722SOL     OW25144   7.981   2.934  13.800  0.2339  0.2067 -0.6183
37722SOL    HW125145   7.893   2.950  13.835 -0.3803  0.3465 -2.1694
37722SOL    HW225146   8.028   2.893  13.873 -0.3829  2.2348  1.0201
37723SOL     OW25147  10.725   2.351   3.648 -0.1329  0.4125 -0.3811
37723SOL    HW125148  10.678   2.307   3.719 -0.3890 -2.0442 -1.9342
37723SOL    HW225149  10.817   2.348   3.675 -0.3446  0.5625  0.3722
37724SOL     OW25150  12.836   5.369   2.037  0.2612 -0.0482  0.3735
37724SOL    HW125151  12.893   5.340   1.966 -1.0696 -0.8403 -0.4085
37724SOL    HW225152  12.777   5.433   1.997 -1.0663 -1.1307  0.5106
37725SOL     OW25153   6.313   6.948  11.298  0.5149 -0.0200 -0.0888
37725SOL    HW125154   6.273   7.005  11.363  1.7126  2.3165 -1.2802
37725SOL    HW225155   6.240   6.920  11.242  0.0198  1.1110 -0.0288
37726SOL     OW25156   3.003  12.386  10.042  0.4195 -0.2624  0.6910
37726SOL    HW125157   3.080  12.440  10.061  1.0592 -0.3660 -1.3925
37726SOL    HW225158   2.979  12.350  10.127  2.1351  0.4776  1.5572
37727SOL     OW25159   4.033   2.230   8.564 -0.4674 -0.5073 -0.4264
37727SOL    HW125160   4.107   2.288   8.546  0.2704 -0.1694  2.9697
37727SOL    HW225161   4.061   2.145   8.532  1.2600 -0.2953  0.3904
37728SOL     OW25162   2.093  10.070   9.073 -0.3880 -0.2349 -0.4837
37728SOL    HW125163   2.064  10.153   9.110 -0.4289 -0.2818 -0.4081
37728SOL    HW225164   2.139  10.026   9.146 -1.0463 -0.6118 -0.2821
37729SOL     OW25165   7.855   5.259   1.253  0.0432 -0.4846 -0.5960
37729SOL    HW125166   7.813   5.234   1.336 -1.5208 -0.8655 -1.4546
37729SOL    HW225167   7.941   5.218   1.257 -1.1667 -3.2785 -0.4823
37730SOL     OW25168  12.734   7.548  13.177 -0.1675 -0.0073  0.0215
37730SOL    HW125169  12.745   7.638  13.144  0.4734 -0.1007 -0.0426
37730SOL    HW225170  12.807   7.500  13.137  0.7247 -0.0984  1.6895
37731SOL     OW25171   7.734   3.637   4.579 -0.0628  0.0129  0.3218
37731SOL    HW125172   7.721   3.667   4.669  0.7845 -1.2280  0.8813
37731SOL    HW225173   7.647   3.611   4.549 -0.1239 -0.9100  1.2868
37732SOL     OW25174   0.978  10.341   4.477  0.0960 -0.2664 -0.2108
37732SOL    HW125175   1.037  10.395   4.425 -0.4565  0.5323 -0.0358
37732SOL    HW225176   0.946  10.400   4.545  0.3894 -1.1495  0.7088
37733SOL     OW25177   4.505   7.070   3.794 -0.0882  0.5191  0.4795
37733SOL    HW125178   4.433   7.068   3.731  0.0361 -1.7710  0.3093
37733SOL    HW225179   4.493   7.152   3.842 -1.8316  0.9755 -0.6310
37734SOL     OW25180   3.113   9.383   2.375  0.0318  0.1881  0.0824
37734SOL    HW125181   3.101   9.425   2.289  0.6437 -1.7736 -1.0111
37734SOL    HW225182   3.196   9.418   2.407  1.1792 -1.0432 -1.3978
37735SOL     OW25183  10.372   9.651  13.246  0.2293 -0.3442 -0.4954
37735SOL    HW125184  10.312   9.675  13.176  0.6926 -0.4070 -0.9176
37735SOL    HW225185  10.437   9.595  13.205 -0.0185 -1.1508  0.1829
37736SOL     OW25186   6.203   9.854  12.266 -0.4309  0.4800  0.6217
37736SOL    HW125187   6.172   9.770  12.232  1.0231 -0.2574  1.0145
37736SOL    HW225188   6.126   9.892  12.309 -0.6769 -1.6357  2.2694
37737SOL     OW25189  11.849   1.293   9.435  0.1882 -0.0386  0.3210
37737SOL    HW125190  11.757   1.269   9.424 -0.2803  1.5506  0.4650
37737SOL    HW225191  11.872   1.261   9.522 -0.7255  0.9341  0.9448
37738SOL     OW25192   6.227   6.498   3.410 -0.2012  0.0206 -0.0069
37738SOL    HW125193   6.312   6.488   3.452  0.2293 -2.1626 -1.2402
37738SOL    HW225194   6.225   6.589   3.380  1.4821  0.2540  0.4778
37739SOL     OW25195  13.540  10.327   5.275  0.1180 -0.1293 -0.2979
37739SOL    HW125196  13.527  10.301   5.367  2.1142 -0.1712  0.0121
37739SOL    HW225197  13.538  10.245   5.227  1.9130 -0.4591  0.1115
37740SOL     OW25198   2.890   2.838   5.839 -0.6407  0.1950 -0.0132
37740SOL    HW125199   2.923   2.751   5.819  2.2390  0.8057  1.6586
37740SOL    HW225200   2.839   2.827   5.919 -1.0117 -0.0730 -0.2821
37741SOL     OW25201  10.491  13.700   2.412  0.3077  0.0804  0.1461
37741SOL    HW125202  10.426  13.676   2.345  0.8660 -0.8247 -0.0931
37741SOL    HW225203  10.560  13.745   2.363  0.4497 -0.0811  0.1965
37742SOL     OW25204  12.431   5.067  13.583  0.1878  0.0469  0.1269
37742SOL    HW125205  12.514   5.019  13.593 -1.4507 -3.0204  0.2137
37742SOL    HW225206  12.432   5.096  13.491  0.7590 -1.2190 -0.2905
37743SOL     OW25207  12.801   9.693  11.349 -0.1987 -0.0320 -0.3897
37743SOL    HW125208  12.858   9.740  11.288 -0.0265  0.0206 -0.1895
37743SOL    HW225209  12.714   9.699  11.310 -0.0209 -0.3706 -0.8480
37744SOL     OW25210   2.071   7.405   3.953 -0.4040  0.2293  0.0422
37744SOL    HW125211   2.005   7.342   3.983 -1.0629  0.1861 -1.4157
37744SOL    HW225212   2.109   7.364   3.875 -0.3316  1.3186 -0.5104
37745SOL     OW25213   9.019  10.995   1.606 -0.2860  0.0611 -0.1981
37745SOL    HW125214   9.068  11.010   1.686 -1.6213  0.3612  0.5991
37745SOL    HW225215   9.035  10.903   1.584  1.2861  0.3707 -0.4547
37746SOL     OW25216   0.720  10.394   7.352  0.4674  0.1131 -0.1679
37746SOL    HW125217   0.810  10.424   7.337  1.1893 -1.0885  1.5272
37746SOL    HW225218   0.689  10.367   7.266  1.6085  0.8413 -0.8293
37747SOL     OW25219  12.000   0.672   2.059 -0.1197  0.4157 -0.1088
37747SOL    HW125220  12.071   0.679   1.995 -1.9512  0.8716 -2.2258
37747SOL    HW225221  11.990   0.579   2.074  1.7823  0.3840  1.3195
37748SOL     OW25222   9.533   3.598   3.943  0.6662 -0.4629  0.0857
37748SOL    HW125223   9.571   3.539   3.877  1.0580  0.8317 -0.8858
37748SOL    HW225224   9.438   3.586   3.934  0.7393 -0.8996 -0.1400
37749SOL     OW25225  13.547  12.853  13.345  0.3732  0.3557 -0.4511
37749SOL    HW125226  13.531  12.839  13.438  0.1692 -0.0209 -0.5439
37749SOL    HW225227  13.586  12.771  13.315  0.0838  0.3373 -0.7788
37750SOL     OW25228   1.263   7.712   6.928 -0.1783  0.3697 -0.1095
37750SOL    HW125229   1.313   7.632   6.914  1.2198  1.2475 -0.2539
37750SOL    HW225230   1.180   7.682   6.966 -0.2159 -1.2426 -1.3868
37751SOL     OW25231   5.213   5.711   5.013 -0.0633 -0.0638 -0.0051
37751SOL    HW125232   5.151   5.639   5.010  1.5937 -1.6223  1.0341
37751SOL    HW225233   5.203   5.755   4.928 -1.9856 -0.7054 -0.1536
37752SOL     OW25234  12.897   4.050   0.512  0.4449  1.0086 -0.0216
37752SOL    HW125235  12.856   4.135   0.497 -1.0333  0.2727 -0.4261
37752SOL    HW225236  12.990   4.064   0.496  0.3976  2.7866  0.9947
37753SOL     OW25237   0.601   4.035   7.850  0.1465  0.1559  0.3774
37753SOL    HW125238   0.558   3.981   7.917  2.5475 -1.2968  0.9126
37753SOL    HW225239   0.561   4.008   7.768 -1.0634  0.0518  0.9830
37754SOL     OW25240   8.198  11.528   9.761  0.1753 -0.1125  0.1560
37754SOL    HW125241   8.164  11.530   9.671  2.4010  0.5601 -0.7382
37754SOL    HW225242   8.145  11.462   9.805 -2.0730  0.6999 -1.1526
37755SOL     OW25243  12.824   3.764   9.050  0.0771 -0.5215 -0.1190
37755SOL    HW125244  12.866   3.820   8.985 -0.0705 -1.5718 -1.1545
37755SOL    HW225245  12.746   3.730   9.006 -1.5795  0.8906  1.5449
37756SOL     OW25246   1.179   4.863  12.729  0.1310  0.0713 -0.3422
37756SOL    HW125247   1.264   4.890  12.764 -0.2842 -0.5190  1.1803
37756SOL    HW225248   1.121   4.937  12.746 -0.1400 -0.3258  0.5401
37757SOL     OW25249   3.917   4.676  12.001  0.1629 -0.1232  0.3381
37757SOL    HW125250   3.859   4.626  12.057 -0.5805  0.5942  0.2282
37757SOL    HW225251   3.927   4.623  11.922 -0.0170 -0.4327  0.5231
37758SOL     OW25252  10.094   3.592  11.141  0.2428 -0.1054 -0.0814
37758SOL    HW125253  10.118   3.575  11.050 -0.1196 -0.2206 -0.1583
37758SOL    HW225254  10.053   3.679  11.139  0.6656  0.0947  0.0491
37759SOL     OW25255   8.940   2.436  10.221  0.3860 -0.1476 -0.1323
37759SOL    HW125256   9.001   2.402  10.156 -0.1388  1.7648 -1.7136
37759SOL    HW225257   8.911   2.358  10.269  4.7633 -1.1051  1.4604
37760SOL     OW25258   3.072  11.435   4.913 -0.1898 -0.1692  0.0991
37760SOL    HW125259   3.008  11.488   4.960  0.6730  2.4811 -1.5022
37760SOL    HW225260   3.108  11.494   4.847  2.2561 -2.2306 -0.5604
37761SOL     OW25261  10.153   0.618   4.515  0.2244 -0.1832  0.1920
37761SOL    HW125262  10.072   0.655   4.480  0.6153 -1.0069 -1.6683
37761SOL    HW225263  10.151   0.526   4.489  0.2590 -1.0640  2.9271
37762SOL     OW25264   9.821   0.145  13.716  0.3631 -0.2628  0.5667
37762SOL    HW125265   9.886   0.206  13.750 -0.3708 -0.1011  1.7626
37762SOL    HW225266   9.808   0.171  13.625  1.8366 -0.2045  0.3484
37763SOL     OW25267  13.372   6.861   7.267  0.0021  0.9300 -0.3929
37763SOL    HW125268  13.344   6.900   7.349 -2.3898 -2.8069  0.8623
37763SOL    HW225269  13.299   6.879   7.206 -0.9184 -0.9240  0.0749
37764SOL     OW25270   8.602   8.625   7.515 -0.4185 -0.1976  0.3285
37764SOL    HW125271   8.694   8.598   7.524 -0.6317 -0.9999  0.1815
37764SOL    HW225272   8.598   8.666   7.428  0.0024  0.7144  0.7302
37765SOL     OW25273  10.816   6.490   0.680 -0.1120 -0.1504  0.0851
37765SOL    HW125274  10.721   6.476   0.672 -0.2043 -1.2742  2.4542
37765SOL    HW225275  10.854   6.404   0.666  0.4381 -0.0025  0.6208
37766SOL     OW25276   7.224  10.578   9.935 -0.2674 -0.0564 -0.1144
37766SOL    HW125277   7.268  10.493   9.945  0.3629  0.3707  1.0458
37766SOL    HW225278   7.226  10.616  10.023  0.1014  1.4662 -0.7356
37767SOL     OW25279   0.684   0.759  12.743  0.1406  0.0413 -0.0970
37767SOL    HW125280   0.663   0.851  12.728 -0.6576 -0.2179 -0.6603
37767SOL    HW225281   0.779   0.758  12.756  0.0927  0.9977  0.4327
37768SOL     OW25282   1.010   5.010   3.749  0.2728 -0.2199  0.5732
37768SOL    HW125283   0.973   5.069   3.814  0.4279  0.3011  0.1947
37768SOL    HW225284   1.015   5.062   3.669 -2.3036 -1.5245 -0.5988
37769SOL     OW25285  13.088   5.713  13.657 -0.1278 -0.3487 -0.5135
37769SOL    HW125286  13.121   5.793  13.616 -0.2315  0.4907  0.9644
37769SOL    HW225287  13.054   5.742  13.742  0.9763 -2.1285  0.6078
37770SOL     OW25288  10.839   5.959   5.561  0.1206  0.7201  0.6116
37770SOL    HW125289  10.916   6.013   5.549  0.2847  0.6605  1.3746
37770SOL    HW225290  10.849   5.889   5.496  0.0613  1.4121 -0.1657
37771SOL     OW25291  12.526  12.953   9.788 -0.7628 -0.1414  0.3219
37771SOL    HW125292  12.470  13.030   9.784 -0.6197 -0.0436  0.1450
37771SOL    HW225293  12.579  12.966   9.867  0.2035  0.6041 -0.4247
37772SOL     OW25294   5.033   6.576  12.852  0.4997  0.2677 -0.1637
37772SOL    HW125295   4.983   6.523  12.914  0.3235  1.3829  0.6917
37772SOL    HW225296   5.106   6.520  12.824  0.5987 -0.2436  1.0793
37773SOL     OW25297   7.223   6.153   0.265  0.0416  0.5954  0.3756
37773SOL    HW125298   7.259   6.214   0.329  1.4722  0.6682 -0.4433
37773SOL    HW225299   7.256   6.067   0.291 -0.2290  0.4747  0.3258
37774SOL     OW25300   1.107  12.348   4.368  0.2113 -0.0717  0.3592
37774SOL    HW125301   1.037  12.289   4.341 -1.2611  0.6235  2.4523
37774SOL    HW225302   1.112  12.339   4.463  1.5607  1.4198  0.4797
37775SOL     OW25303   6.081  11.826   7.462  0.4013  0.1480  0.0469
37775SOL    HW125304   6.110  11.808   7.372 -0.2611 -5.5089  0.6103
37775SOL    HW225305   6.006  11.884   7.452  1.5453  1.3558 -2.7585
37776SOL     OW25306   5.415   3.558  10.519 -0.1124  0.2954  0.4771
37776SOL    HW125307   5.492   3.611  10.536 -1.0195  1.8458 -0.0107
37776SOL    HW225308   5.347   3.621  10.497 -0.8461 -1.1410 -1.7874
37777SOL     OW25309   9.432  13.253   8.539  0.0052  0.2194 -0.2524
37777SOL    HW125310   9.485  13.325   8.573  0.0646  0.1363 -0.1704
37777SOL    HW225311   9.346  13.293   8.522 -0.3282  0.0461  0.9263
37778SOL     OW25312   9.798   2.700  13.189  0.0551  0.6277 -0.1436
37778SOL    HW125313   9.882   2.655  13.179 -0.0463  0.2391  0.6754
37778SOL    HW225314   9.748   2.644  13.249 -0.8724  0.7420 -0.7971
37779SOL     OW25315   3.893   4.900  10.779  0.0512 -0.0777  0.0893
37779SOL    HW125316   3.801   4.883  10.798 -0.0959  1.2553  0.7239
37779SOL    HW225317   3.914   4.977  10.832  1.0917  0.6237 -1.2727
37780SOL     OW25318   9.425   4.051   5.717 -0.8231 -0.2761 -0.1201
37780SOL    HW125319   9.475   3.995   5.659  0.8817  0.3926  0.6476
37780SOL    HW225320   9.333   4.031   5.697 -0.2674 -1.4592 -1.6264
37781SOL     OW25321   5.014  10.601   8.601 -0.1396 -0.2135 -0.2520
37781SOL    HW125322   5.096  10.592   8.552 -0.8644 -2.2341 -1.2262
37781SOL    HW225323   4.997  10.695   8.603  1.0510  0.0847 -1.9688
37782SOL     OW25324  12.417  10.599   4.445  0.6233  0.2176 -0.2009
37782SOL    HW125325  12.499  10.570   4.406  0.6803  1.8165 -1.4163
37782SOL    HW225326  12.402  10.686   4.406 -1.2158  0.3142  0.6150
37783SOL     OW25327   7.725  12.526   5.300 -0.5923  0.1289  0.2787
37783SOL    HW125328   7.748  12.540   5.392 -0.2278  1.0221  0.0593
37783SOL    HW225329   7.807  12.535   5.253 -0.6638 -0.9526 -0.0884
37784SOL     OW25330   3.715   2.998  13.004  0.0928 -0.2184 -0.4182
37784SOL    HW125331   3.654   2.945  12.953 -1.0425  0.2731  0.3712
37784SOL    HW225332   3.660   3.067  13.042  1.2402  0.5406 -0.0917
37785SOL     OW25333  12.942  12.901   9.284 -0.0516 -0.0343 -0.1740
37785SOL    HW125334  12.934  12.819   9.333  1.9529 -0.0308  0.2370
37785SOL    HW225335  13.024  12.940   9.315  0.4450  0.7770 -2.3246
37786SOL     OW25336  13.113  11.310   6.926 -0.2331 -0.2259 -0.2667
37786SOL    HW125337  13.201  11.300   6.890 -0.1577  0.2240 -0.2191
37786SOL    HW225338  13.057  11.258   6.869  0.2075 -1.3449  0.2936
37787SOL     OW25339  12.483  10.042   3.733  0.1592 -0.1525 -0.1366
37787SOL    HW125340  12.399  10.076   3.703 -0.5592 -2.3526 -0.7974
37787SOL    HW225341  12.546  10.071   3.667 -0.8431 -2.0582 -2.0458
37788SOL     OW25342   0.507   7.727   1.850  0.3484 -0.8529 -0.3103
37788SOL    HW125343   0.464   7.699   1.769 -0.2143 -0.2401 -0.2332
37788SOL    HW225344   0.592   7.762   1.822 -0.3786  0.6147 -0.8229
37789SOL     OW25345  10.840   3.021  11.813 -0.2673  0.6135  0.0613
37789SOL    HW125346  10.879   2.937  11.837  0.2205 -0.1620 -2.9888
37789SOL    HW225347  10.747   3.010  11.829 -0.1145 -0.2461  0.4295
37790SOL     OW25348  10.294   0.321  10.549 -0.2295  0.4884  0.9121
37790SOL    HW125349  10.312   0.228  10.536  1.3966  0.9589 -0.5504
37790SOL    HW225350  10.347   0.346  10.625  1.4307  0.7505 -0.2866
37791SOL     OW25351  13.151  11.945   0.053 -0.4468  0.9859  0.1628
37791SOL    HW125352  13.217  11.998   0.099  0.7868 -1.0593  0.8648
37791SOL    HW225353  13.200  11.898  -0.013 -1.2658 -0.2579  0.4133
37792SOL     OW25354   1.277   4.148   3.633  0.4412  0.0656 -0.3743
37792SOL    HW125355   1.362   4.135   3.674 -0.5139 -0.2167  1.6560
37792SOL    HW225356   1.214   4.137   3.704 -1.3853 -1.0189 -2.0467
37793SOL     OW25357  12.018   8.825  12.736 -0.2123 -0.2371 -0.0844
37793SOL    HW125358  11.993   8.800  12.825 -0.7444 -0.6136 -0.3330
37793SOL    HW225359  12.070   8.752  12.704  0.8169  0.3269  0.2548
37794SOL     OW25360   7.105   0.702   9.063 -0.3648 -0.0563  0.0623
37794SOL    HW125361   7.043   0.772   9.041  0.2424 -0.0286 -1.7809
37794SOL    HW225362   7.151   0.734   9.141 -0.0721  1.6456 -0.7595
37795SOL     OW25363   3.392   0.983   1.013  0.0269  0.2399  0.0009
37795SOL    HW125364   3.399   1.034   0.933 -2.1170  0.9355  0.1827
37795SOL    HW225365   3.310   1.012   1.053  0.1375 -1.3637  1.5477
37796SOL     OW25366   1.190   3.514   1.736  0.1136 -0.0775  0.4680
37796SOL    HW125367   1.096   3.497   1.735  0.0548  0.2411 -0.3392
37796SOL    HW225368   1.202   3.586   1.675  0.9499 -0.5069  0.1056
37797SOL     OW25369  10.393   0.029   4.878 -0.1760 -0.2344 -0.2615
37797SOL    HW125370  10.475   0.074   4.898 -0.2984 -0.4594  0.7599
37797SOL    HW225371  10.371  -0.018   4.958 -0.9628 -0.7082 -0.7466
37798SOL     OW25372   2.818   6.641  10.915  0.6891 -0.2986  0.1351
37798SOL    HW125373   2.757   6.648  10.988  2.2672  0.7070  1.3932
37798SOL    HW225374   2.827   6.546  10.900 -1.6469 -0.4785 -0.5511
37799SOL     OW25375  10.304  11.406   2.100  0.5878  0.0435  0.8556
37799SOL    HW125376  10.314  11.311   2.111  0.0049  0.0206  1.2642
37799SOL    HW225377  10.338  11.443   2.181  0.8137  0.1847  0.6959
37800SOL     OW25378  10.025   0.443  12.502 -0.0944 -0.6921 -0.1902
37800SOL    HW125379  10.120   0.429  12.494  0.1077 -0.5668  1.5727
37800SOL    HW225380  10.000   0.391  12.579 -1.2814  0.0701 -0.0430
37801SOL     OW25381   4.583   4.708  11.894 -0.7546  0.7995  0.6509
37801SOL    HW125382   4.569   4.634  11.952 -1.2902  1.0741  0.8794
37801SOL    HW225383   4.618   4.670  11.814 -3.7212 -0.0841 -0.3572
37802SOL     OW25384  11.787   7.369  13.134 -0.7225 -1.3869 -0.3192
37802SOL    HW125385  11.715   7.362  13.197  0.5765  0.4638  1.5166
37802SOL    HW225386  11.864   7.342  13.183  0.3679  0.3400 -0.9766
37803SOL     OW25387  11.695   2.809   7.763 -0.2559  0.0900 -0.0361
37803SOL    HW125388  11.771   2.760   7.734 -0.4246  0.2690 -0.8223
37803SOL    HW225389  11.699   2.891   7.713 -0.1587  0.7322  1.0050
37804SOL     OW25390   2.187   9.703  10.471  0.5525 -0.3696  0.0820
37804SOL    HW125391   2.225   9.783  10.509 -0.3775 -0.0766  0.4065
37804SOL    HW225392   2.163   9.730  10.382 -0.3528 -0.0983  0.4035
37805SOL     OW25393   1.533   8.013   2.400 -0.6999  0.2031 -0.1524
37805SOL    HW125394   1.445   8.014   2.439 -0.2500  0.8562  0.8962
37805SOL    HW225395   1.550   7.921   2.384 -1.5547  0.0587 -0.3228
37806SOL     OW25396   3.897  13.087   6.791  0.1128  0.3597 -0.0418
37806SOL    HW125397   3.903  13.070   6.697  0.5323  2.0222 -0.3624
37806SOL    HW225398   3.833  13.158   6.798 -1.3888 -1.0383  1.1457
37807SOL     OW25399  13.476  10.357   2.764 -0.0400  0.4312 -0.2538
37807SOL    HW125400  13.491  10.273   2.808  0.8504  0.0281 -1.2803
37807SOL    HW225401  13.546  10.413   2.795  0.0368  0.4334 -0.4274
37808SOL     OW25402   5.034  11.543   0.079  0.0065 -0.1147 -0.6633
37808SOL    HW125403   5.119  11.586   0.096 -0.1074  0.0304 -0.4574
37808SOL    HW225404   5.006  11.579  -0.005 -0.8746  1.4863  0.2786
37809SOL     OW25405   9.048  13.542   1.975 -0.2785 -0.0966  0.9648
37809SOL    HW125406   8.953  13.552   1.961  0.1533  1.5339 -1.6525
37809SOL    HW225407   9.072  13.467   1.920 -0.1333 -1.1683  2.4257
37810SOL     OW25408  12.451  12.644   1.763 -0.4198  0.1695  0.9300
37810SOL    HW125409  12.530  12.598   1.792 -0.0695  0.9896  1.2882
37810SOL    HW225410  12.480  12.733   1.745 -0.3078 -0.4923 -3.1804
37811SOL     OW25411   7.159   2.284   7.761 -0.2930  0.2524 -0.1042
37811SOL    HW125412   7.079   2.237   7.737  0.1676 -0.5196 -0.1593
37811SOL    HW225413   7.137   2.376   7.749 -1.6085  0.1463  1.1538
37812SOL     OW25414   8.739   9.387   8.025  0.4057 -0.3320  0.3702
37812SOL    HW125415   8.670   9.321   8.031  0.3592 -0.1752  1.8238
37812SOL    HW225416   8.751   9.400   7.931 -2.3024  0.3944  0.0102
37813SOL     OW25417   8.603   8.140   8.992  0.2607  0.1973 -0.3665
37813SOL    HW125418   8.512   8.120   9.014  1.0899 -2.0440  1.5084
37813SOL    HW225419   8.639   8.056   8.962  2.4943  0.1529  2.0711
37814SOL     OW25420   7.358   5.713   6.553  0.2256 -0.3134  0.0958
37814SOL    HW125421   7.352   5.660   6.473  1.5753 -0.3890  0.0054
37814SOL    HW225422   7.268   5.734   6.576 -0.2477 -1.3679 -0.7320
37815SOL     OW25423  12.267  12.366   0.064 -0.0173 -0.5002 -0.0954
37815SOL    HW125424  12.267  12.459   0.044 -0.1613 -0.3664  0.5002
37815SOL    HW225425  12.178  12.337   0.045  0.3166 -0.7564 -1.3284
37816SOL     OW25426   9.003   6.856  10.651 -0.3235 -0.1921  0.3036
37816SOL    HW125427   8.950   6.899  10.584  0.4269 -0.3216 -0.3919
37816SOL    HW225428   8.941   6.805  10.702 -0.9577  0.1908 -0.0785
37817SOL     OW25429   9.607  10.194  13.895 -0.4812  0.4475  0.2514
37817SOL    HW125430   9.534  10.148  13.936 -0.2583  1.7959  2.3503
37817SOL    HW225431   9.685  10.158  13.937 -0.0509  0.2574 -0.6851
37818SOL     OW25432   6.642   2.276  12.696  0.4760  0.3240 -0.1771
37818SOL    HW125433   6.552   2.276  12.664  0.5387 -0.5397 -0.3825
37818SOL    HW225434   6.694   2.307  12.621  0.3115  1.2836  0.0925
37819SOL     OW25435   3.186   1.213   1.114  0.2691 -0.0451  0.7628
37819SOL    HW125436   3.240   1.266   1.173  0.6216  0.3034  0.1447
37819SOL    HW225437   3.138   1.278   1.062 -0.4315 -0.3520  1.0204
37820SOL     OW25438   2.274  10.490   5.673 -0.4095 -0.0451  0.6790
37820SOL    HW125439   2.251  10.516   5.584  1.1051  1.0873  0.5751
37820SOL    HW225440   2.273  10.395   5.672 -0.4471 -0.0413 -0.5431
37821SOL     OW25441  12.155   4.671   9.553  0.0490 -0.1196 -0.7706
37821SOL    HW125442  12.208   4.666   9.632  0.1540 -0.0582 -0.8352
37821SOL    HW225443  12.137   4.580   9.529 -0.1765 -0.1360 -0.5485
37822SOL     OW25444  13.491  12.523   0.799  0.0404  0.3310  0.0960
37822SOL    HW125445  13.531  12.542   0.884 -1.0495  0.3619  0.6087
37822SOL    HW225446  13.566  12.500   0.743  0.9089  1.5485  0.6998
37823SOL     OW25447  12.613  12.128   6.787 -0.8482 -0.4592 -0.1361
37823SOL    HW125448  12.679  12.064   6.814 -2.1820 -1.0899  1.8648
37823SOL    HW225449  12.562  12.083   6.721  0.2727 -0.2046 -1.2087
37824SOL     OW25450   9.517   2.680  11.534 -0.6369 -1.1015  0.0481
37824SOL    HW125451   9.532   2.663  11.441  2.6580 -2.7023  0.7018
37824SOL    HW225452   9.486   2.596  11.569 -2.5730 -0.3080  0.3180
37825SOL     OW25453   0.293   3.925  11.707 -0.5661 -0.1297 -0.3173
37825SOL    HW125454   0.225   3.978  11.750 -0.6108 -2.2090  2.4683
37825SOL    HW225455   0.244   3.857  11.661 -0.4098 -0.7184  0.3840
37826SOL     OW25456   2.735   8.940   0.503  0.2386 -0.2525  0.0100
37826SOL    HW125457   2.826   8.957   0.526  0.8558  0.3536 -2.5790
37826SOL    HW225458   2.721   8.848   0.527  0.7347  0.2753  2.6223
37827SOL     OW25459   5.886   5.086   5.041  0.3573 -0.9076  0.2495
37827SOL    HW125460   5.937   5.005   5.046  1.0371 -0.4431  1.2038
37827SOL    HW225461   5.808   5.063   4.991  1.3882 -1.6953 -1.0438
37828SOL     OW25462   3.897  12.247  10.372 -0.4638 -0.4657 -0.1183
37828SOL    HW125463   3.861  12.272  10.286  0.6065  1.1236 -0.1520
37828SOL    HW225464   3.949  12.168  10.354  1.1422  0.7865 -1.3392
37829SOL     OW25465  13.785  10.098   9.985 -0.1358 -0.0364  0.2308
37829SOL    HW125466  13.706  10.104   9.931 -1.2097  1.0141  1.8404
37829SOL    HW225467  13.776  10.014  10.031 -0.4546  0.1933  0.5956
37830SOL     OW25468   0.555   6.570  10.993  0.0446  0.1826  0.2849
37830SOL    HW125469   0.507   6.650  11.015 -0.9153 -0.7485  1.7030
37830SOL    HW225470   0.528   6.550  10.903  0.9211  1.8595 -0.3865
37831SOL     OW25471  10.159   6.878  12.424 -0.1778 -0.7128 -0.2135
37831SOL    HW125472  10.073   6.914  12.445 -0.8621 -1.1691 -2.0415
37831SOL    HW225473  10.150   6.784  12.436  0.3903 -0.6729  0.6001
37832SOL     OW25474   4.797   2.759   0.832 -0.3402  0.0443 -0.0868
37832SOL    HW125475   4.739   2.835   0.832 -0.3291  0.0530 -0.0631
37832SOL    HW225476   4.829   2.752   0.742  2.0812  1.9193  0.5201
37833SOL     OW25477  13.120   2.274  10.534  0.0581  0.2633  0.0592
37833SOL    HW125478  13.070   2.300  10.456  1.3575  0.7502 -0.6355
37833SOL    HW225479  13.086   2.187  10.556 -1.1019  0.5937 -0.3785
37834SOL     OW25480   6.109  12.475   8.850 -0.5235  0.4840  0.0268
37834SOL    HW125481   6.146  12.443   8.768 -0.8839  0.8801 -0.2963
37834SOL    HW225482   6.066  12.557   8.827  1.2490  1.7505  1.0458
37835SOL     OW25483  11.387   8.933   8.572 -0.0810 -0.0706 -0.3166
37835SOL    HW125484  11.454   8.864   8.570 -0.2177 -0.1982 -0.6392
37835SOL    HW225485  11.437   9.014   8.565  0.2406  0.0032  2.0438
37836SOL     OW25486   2.007  12.443  10.769  0.6714  0.2331  0.1550
37836SOL    HW125487   1.929  12.449  10.823 -0.1223 -1.0422 -0.7796
37836SOL    HW225488   2.041  12.532  10.764 -0.4106  0.7043  1.0320
37837SOL     OW25489  13.508   3.935   1.300 -0.4054 -0.4578  0.0051
37837SOL    HW125490  13.542   3.859   1.251  1.3260  0.5186 -0.3830
37837SOL    HW225491  13.560   4.009   1.269 -2.0150  0.9148  0.4165
37838SOL     OW25492   8.425   0.470   9.941 -0.1002 -0.0676 -0.1973
37838SOL    HW125493   8.513   0.484   9.907 -0.8501  0.0899 -2.1720
37838SOL    HW225494   8.418   0.375   9.952  0.5269 -0.0350  0.6933
37839SOL     OW25495   6.484   8.279   2.659 -0.0788 -0.1547 -0.1657
37839SOL    HW125496   6.438   8.329   2.592 -0.5023  0.2071  0.3779
37839SOL    HW225497   6.575   8.275   2.629 -0.0229  0.9769 -0.2055
37840SOL     OW25498  11.854   9.101   9.877  0.6635  0.0731 -0.5637
37840SOL    HW125499  11.941   9.063   9.863  0.0476 -1.3457 -0.7062
37840SOL    HW225500  11.808   9.037   9.931  0.4887  1.9452  1.6658
37841SOL     OW25501   1.818   2.686   5.825 -0.2354  0.2744 -0.2261
37841SOL    HW125502   1.803   2.622   5.894 -1.1147  1.2066  0.4765
37841SOL    HW225503   1.909   2.714   5.837  0.0661 -0.6264 -0.3689
37842SOL     OW25504   3.399   3.974   6.475 -0.4447  0.2200 -0.1724
37842SOL    HW125505   3.347   3.936   6.404 -0.3423  1.3206 -0.8744
37842SOL    HW225506   3.466   3.908   6.493 -0.2102  0.0829 -1.4063
37843SOL     OW25507   6.767   2.549   9.461 -0.0670  0.0470  0.3200
37843SOL    HW125508   6.717   2.630   9.467  0.6948  0.5138  0.5420
37843SOL    HW225509   6.713   2.483   9.505 -0.2622  0.6513  0.9920
37844SOL     OW25510   0.568   1.012   5.020 -0.5763  0.8389  0.7717
37844SOL    HW125511   0.492   0.955   5.031  1.1569 -1.9529 -0.3711
37844SOL    HW225512   0.639   0.966   5.065  1.7177  0.0866 -3.1379
37845SOL     OW25513  12.528   5.737   9.419 -0.0132 -0.2406  0.2901
37845SOL    HW125514  12.498   5.791   9.492  1.6786  1.3340 -0.1062
37845SOL    HW225515  12.510   5.647   9.447 -1.4421  0.4209  1.6617
37846SOL     OW25516  11.467   0.292  10.986  0.5374  0.2493  0.0968
37846SOL    HW125517  11.394   0.345  11.018  0.3249 -0.0985  0.1925
37846SOL    HW225518  11.522   0.279  11.063  0.0713 -0.5138  0.3121
37847SOL     OW25519  10.699   0.444  11.687 -0.2319  0.2992  0.9364
37847SOL    HW125520  10.625   0.504  11.695 -1.0726 -0.5695  0.0118
37847SOL    HW225521  10.659   0.361  11.660  1.1076 -0.1504  0.2696
37848SOL     OW25522   2.236   2.289   1.792 -0.3805 -0.3245  0.0136
37848SOL    HW125523   2.224   2.350   1.719  0.6297  1.4421  1.2475
37848SOL    HW225524   2.206   2.337   1.869  1.8335 -0.7369  1.2309
37849SOL     OW25525   0.015   6.763   2.118  0.7785 -0.2594  0.3859
37849SOL    HW125526  -0.060   6.705   2.122  0.5630 -0.0362 -0.3049
37849SOL    HW225527  -0.010   6.831   2.055  0.5340  1.2877  2.0475
37850SOL     OW25528   9.160   0.455  10.592 -0.3561  0.7343 -0.1559
37850SOL    HW125529   9.221   0.467  10.665  0.7232 -0.7689 -0.7604
37850SOL    HW225530   9.095   0.392  10.624  0.4206 -0.3378 -0.6253
37851SOL     OW25531   7.126   6.293   5.141 -0.5067 -0.3734 -0.2112
37851SOL    HW125532   7.175   6.369   5.109 -0.7432 -0.4697 -0.8217
37851SOL    HW225533   7.193   6.226   5.156 -0.4197 -0.4200 -0.7921
37852SOL     OW25534   6.349   6.523  11.116  0.4113 -0.2555  0.1547
37852SOL    HW125535   6.276   6.518  11.178  0.2261 -2.0415 -0.1445
37852SOL    HW225536   6.333   6.603  11.066 -1.5854 -0.8102 -0.1801
37853SOL     OW25537   2.203   3.570   9.751 -0.2900 -0.1388  0.0264
37853SOL    HW125538   2.288   3.565   9.709 -0.1456 -0.2731  0.3325
37853SOL    HW225539   2.150   3.504   9.706 -0.3682  0.2493 -0.4625
37854SOL     OW25540   8.393  13.103   5.351  0.2671  0.1477 -0.2569
37854SOL    HW125541   8.365  13.189   5.318 -1.2495 -0.3350 -0.2980
37854SOL    HW225542   8.367  13.041   5.282  3.4293 -0.1846 -1.3245
37855SOL     OW25543   9.789   5.786  13.215  0.1334 -0.0393 -0.2704
37855SOL    HW125544   9.755   5.830  13.293  0.0526  1.0660 -0.9093
37855SOL    HW225545   9.729   5.811  13.145  0.2740 -0.9261 -0.7244
37856SOL     OW25546   9.664   1.460   4.465  0.3163  0.1833 -0.2346
37856SOL    HW125547   9.613   1.389   4.504  0.8242 -0.2659 -0.3689
37856SOL    HW225548   9.612   1.489   4.390 -0.4550  0.7543  0.5034
37857SOL     OW25549   7.110   4.807  12.882  0.6374  0.8489  0.0044
37857SOL    HW125550   7.067   4.728  12.916 -0.2170  1.1740 -0.2863
37857SOL    HW225551   7.147   4.781  12.798 -0.7821  1.0712 -0.7191
37858SOL     OW25552   1.011   0.989   5.909 -0.0211  0.3051  0.3052
37858SOL    HW125553   0.973   0.905   5.935  0.8644 -0.3329 -0.3990
37858SOL    HW225554   1.097   0.990   5.951 -0.1466  1.0062  0.5625
37859SOL     OW25555  11.261   2.818  14.022  0.5408  0.5069  0.8091
37859SOL    HW125556  11.202   2.744  14.038 -0.1536  1.0094  0.6258
37859SOL    HW225557  11.203   2.895  14.020  1.3780  1.2085  2.1542
37860SOL     OW25558  12.851   5.351  12.211 -0.4247  0.9580  0.0479
37860SOL    HW125559  12.934   5.350  12.163 -0.7915  0.6404 -0.5919
37860SOL    HW225560  12.785   5.327  12.146 -0.9385  0.5502  0.7038
37861SOL     OW25561  12.687  13.291  10.485  0.1335 -0.0500 -0.1181
37861SOL    HW125562  12.661  13.382  10.502  2.1721  0.6775 -0.6579
37861SOL    HW225563  12.658  13.243  10.563 -0.0079  1.2585  0.6611
37862SOL     OW25564   0.994   9.908   6.982 -0.4273  0.4167 -0.1064
37862SOL    HW125565   1.077   9.863   6.966  0.7038  2.2934  0.2304
37862SOL    HW225566   0.975   9.890   7.075  0.0185  0.6391  0.0292
37863SOL     OW25567   2.066   3.118  10.163 -0.5340  0.3085 -0.3138
37863SOL    HW125568   1.984   3.075  10.138 -0.7676  0.1870  0.6492
37863SOL    HW225569   2.061   3.128  10.258  1.3628 -1.3831  0.0474
37864SOL     OW25570   6.096   6.206  12.264 -0.6457 -0.2511 -0.0033
37864SOL    HW125571   6.083   6.298  12.241  1.5174  0.1115  0.0202
37864SOL    HW225572   6.094   6.159  12.181 -0.4368  0.0064 -0.1539
37865SOL     OW25573   4.112  10.657  10.054  0.0494 -0.5273 -0.4461
37865SOL    HW125574   4.049  10.629   9.988 -0.2252 -1.0645  0.0275
37865SOL    HW225575   4.062  10.716  10.111  0.6460  1.0306 -1.4819
37866SOL     OW25576   5.960  13.619   0.843  0.0351  0.4017  0.4307
37866SOL    HW125577   5.923  13.682   0.905 -2.5566 -0.4253 -0.1176
37866SOL    HW225578   5.956  13.663   0.758  0.0451  0.2059  0.3272
37867SOL     OW25579   7.558   8.996   8.228  0.3679  0.0291  0.7906
37867SOL    HW125580   7.598   9.083   8.219  0.9340 -0.4102 -1.7117
37867SOL    HW225581   7.633   8.937   8.237  0.6974 -0.8524 -4.3132
37868SOL     OW25582   1.390   9.076   9.642 -0.0090  0.5131 -0.1133
37868SOL    HW125583   1.345   8.991   9.646 -0.6974  0.7573 -1.7370
37868SOL    HW225584   1.420   9.092   9.732 -1.3581 -0.6404  0.5799
37869SOL     OW25585  11.033   1.094   8.611 -0.6291 -0.1214 -0.3562
37869SOL    HW125586  10.992   1.021   8.658  0.0016  0.6081  1.4202
37869SOL    HW225587  11.032   1.067   8.519 -0.7562 -2.1966  0.1960
37870SOL     OW25588  11.093   5.241   8.683 -0.4136  0.3854 -0.3799
37870SOL    HW125589  11.071   5.326   8.645  0.2796  0.5965 -0.3194
37870SOL    HW225590  11.189   5.238   8.683 -0.4251 -0.2483 -0.0568
37871SOL     OW25591   8.722   5.203  11.263 -0.1529  0.1195 -0.2382
37871SOL    HW125592   8.713   5.167  11.351 -0.9390  3.6414  1.2948
37871SOL    HW225593   8.815   5.227  11.256 -0.6509  2.8247  1.0807
37872SOL     OW25594  10.645   3.274   5.091 -0.2000 -0.0471 -0.0851
37872SOL    HW125595  10.601   3.354   5.063 -0.3880  0.1632  0.7982
37872SOL    HW225596  10.706   3.302   5.159 -0.9046 -0.7574  0.8777
37873SOL     OW25597   5.403  10.784   7.297 -0.7594  0.3475  0.3505
37873SOL    HW125598   5.424  10.705   7.345  1.2562  0.9680  0.5704
37873SOL    HW225599   5.313  10.805   7.323 -0.7342 -0.9285  1.5605
37874SOL     OW25600   7.578  13.215  12.478 -0.0116 -0.3997 -0.1124
37874SOL    HW125601   7.573  13.181  12.568  0.9038 -0.9460 -0.2620
37874SOL    HW225602   7.660  13.181  12.444 -0.3156 -0.1280 -1.1402
37875SOL     OW25603   1.443   3.724   2.827  0.6992  0.8972 -0.0951
37875SOL    HW125604   1.531   3.735   2.862  0.9207 -1.6513  0.3901
37875SOL    HW225605   1.388   3.779   2.883  1.7153  0.8121  1.0431
37876SOL     OW25606   1.342   3.173   0.630  0.3729 -0.2578 -0.5042
37876SOL    HW125607   1.311   3.264   0.632 -0.3949 -0.4996 -0.9988
37876SOL    HW225608   1.270   3.124   0.591  0.4635 -1.2095  0.4774
37877SOL     OW25609   8.463   1.153  13.185  0.3368  0.4469 -0.1469
37877SOL    HW125610   8.395   1.188  13.243  1.5052  0.8699  1.0306
37877SOL    HW225611   8.461   1.059  13.200 -0.2885  0.4050 -0.4673
37878SOL     OW25612   6.289   2.787   5.619  0.0789 -0.2901 -0.2074
37878SOL    HW125613   6.237   2.757   5.694  1.5455  0.0018  0.9959
37878SOL    HW225614   6.297   2.881   5.632  1.8987 -0.4736  0.3708
37879SOL     OW25615   5.922   4.829   6.831 -0.0304  0.5240 -0.1317
37879SOL    HW125616   5.894   4.918   6.810 -0.0629  0.4906 -0.2311
37879SOL    HW225617   5.908   4.821   6.925  1.0864  1.0237  0.0978
37880SOL     OW25618   4.350   3.387   7.472  0.2841 -0.6209 -0.1287
37880SOL    HW125619   4.267   3.394   7.520 -0.6528 -0.2924 -1.7182
37880SOL    HW225620   4.340   3.448   7.399  1.2272 -1.8407 -1.3279
37881SOL     OW25621  13.903   8.139   7.283  0.1311  0.6592  0.1957
37881SOL    HW125622  13.904   8.230   7.253 -1.7341  0.3271 -1.0656
37881SOL    HW225623  13.843   8.139   7.357  0.1553  0.4455  0.2160
37882SOL     OW25624  11.435  11.804   4.245 -0.5466 -0.2132 -0.0179
37882SOL    HW125625  11.415  11.896   4.261 -4.0301 -0.6122 -1.2710
37882SOL    HW225626  11.350  11.760   4.248  0.8014 -3.1490 -1.0719
37883SOL     OW25627   4.109  10.183  13.898  0.1382 -0.4313  0.3985
37883SOL    HW125628   4.081  10.137  13.978  0.8936 -1.2248  0.2171
37883SOL    HW225629   4.165  10.254  13.930 -2.9830  2.0344  0.8817
37884SOL     OW25630  11.762   4.893   0.623 -0.1636 -0.1914  0.1919
37884SOL    HW125631  11.774   4.988   0.625 -3.4335  0.3053  1.5648
37884SOL    HW225632  11.738   4.874   0.532  0.2602  0.2975 -0.0333
37885SOL     OW25633   6.185   7.275  13.389  0.1710  0.3722  0.8119
37885SOL    HW125634   6.262   7.230  13.354 -0.4722 -0.9007  0.9678
37885SOL    HW225635   6.176   7.353  13.335 -0.4592 -1.2110 -1.5488
37886SOL     OW25636   1.078   7.274   5.676  0.1003  0.1822 -0.2830
37886SOL    HW125637   1.053   7.189   5.713  0.6602  0.1803  0.1090
37886SOL    HW225638   0.998   7.326   5.679 -0.1726 -0.2421 -0.2511
37887SOL     OW25639   6.979   9.920   0.439  0.1764  0.4831 -0.1249
37887SOL    HW125640   6.992  10.015   0.449 -2.6383  1.1346 -1.6874
37887SOL    HW225641   6.990   9.904   0.346 -1.8495 -0.2435 -0.2750
37888SOL     OW25642   4.348   1.598   4.251 -0.4610  0.1149 -1.0797
37888SOL    HW125643   4.395   1.681   4.250 -0.7579  0.2846 -1.3032
37888SOL    HW225644   4.373   1.555   4.170  1.9022 -1.2937  0.2926
37889SOL     OW25645   3.135   6.866  13.277 -0.0201  0.6351 -0.5544
37889SOL    HW125646   3.108   6.775  13.264 -0.5725  0.8971 -1.3702
37889SOL    HW225647   3.210   6.877  13.219  0.6653  0.4375  0.2809
37890SOL     OW25648   1.002   5.353   7.200 -0.2377 -0.6689  0.5881
37890SOL    HW125649   0.947   5.422   7.237 -1.0654 -1.1317  0.2315
37890SOL    HW225650   0.973   5.273   7.244 -0.5977 -1.0828 -0.3721
37891SOL     OW25651   9.396   0.571  12.584 -0.1617 -0.4553 -0.1402
37891SOL    HW125652   9.351   0.608  12.507 -0.1741 -1.0763 -0.4424
37891SOL    HW225653   9.456   0.506  12.547  1.5023  0.8253  0.2046
37892SOL     OW25654  13.445   5.424   0.841  0.3636  0.0846  0.0318
37892SOL    HW125655  13.386   5.464   0.777 -0.4034 -1.1133 -0.0497
37892SOL    HW225656  13.494   5.358   0.791 -0.4226 -1.0382  0.6920
37893SOL     OW25657   6.956   0.662   3.396  0.2319 -0.0024  0.4966
37893SOL    HW125658   6.943   0.572   3.367  1.6177 -0.2824  0.6674
37893SOL    HW225659   6.912   0.666   3.481  0.1157 -0.4997  0.4625
37894SOL     OW25660   9.862   4.100   1.765 -0.0726 -0.0292  0.1319
37894SOL    HW125661   9.920   4.161   1.810 -0.8237  0.2561  0.7269
37894SOL    HW225662   9.907   4.081   1.682  0.8867  0.1461  0.5948
37895SOL     OW25663  10.814   7.947   7.980 -0.2971 -0.1725 -0.2366
37895SOL    HW125664  10.877   7.963   7.910 -1.1114 -0.5052 -1.0556
37895SOL    HW225665  10.731   7.980   7.946 -0.8325 -0.9077  0.3255
37896SOL     OW25666  13.398   6.677   9.049 -0.1571 -0.0743  0.3883
37896SOL    HW125667  13.333   6.609   9.064 -0.2254 -0.7202 -2.3528
37896SOL    HW225668  13.351   6.759   9.066 -0.8488 -0.6046  1.1035
37897SOL     OW25669  11.847   3.930   7.698  0.4227  0.1137  0.2931
37897SOL    HW125670  11.840   4.008   7.752 -0.9012  0.6470 -0.6117
37897SOL    HW225671  11.896   3.959   7.620  1.2640 -0.3544  0.6307
37898SOL     OW25672   4.844  14.030   3.933  0.0801 -0.3977 -0.2479
37898SOL    HW125673   4.900  13.963   3.972 -1.8200 -1.0698  1.4276
37898SOL    HW225674   4.780  13.982   3.882  0.2111  0.3105 -1.1147
37899SOL     OW25675   4.142   7.338  10.626 -0.7046  0.6439  0.2105
37899SOL    HW125676   4.187   7.399  10.683 -0.7262  1.2411 -0.4057
37899SOL    HW225677   4.052   7.338  10.658 -0.6335  0.6793  0.4161
37900SOL     OW25678   7.491   6.305   4.335 -0.2934 -0.3497  0.5161
37900SOL    HW125679   7.462   6.393   4.309 -0.2201  0.5602  3.1990
37900SOL    HW225680   7.586   6.307   4.324 -0.3362 -0.2384  0.1657
37901SOL     OW25681   3.020   0.453   1.046 -0.5318  0.2642  0.0789
37901SOL    HW125682   3.086   0.502   0.997  0.7415 -1.9882 -0.5900
37901SOL    HW225683   2.963   0.416   0.978 -0.9935  0.1671  0.5131
37902SOL     OW25684  12.921   1.754  12.279  0.2885 -0.3580 -0.0611
37902SOL    HW125685  12.832   1.780  12.254  0.5537  1.2530  0.5497
37902SOL    HW225686  12.960   1.722  12.197 -0.9419 -1.4379 -0.2638
37903SOL     OW25687   2.893  12.402   4.903  0.3442  0.2507  0.3313
37903SOL    HW125688   2.939  12.436   4.980  3.6867 -1.8917 -0.4863
37903SOL    HW225689   2.813  12.363   4.937 -0.3731  2.9548  2.0729
37904SOL     OW25690   5.212   6.776   0.925 -0.3349 -0.4054 -0.1884
37904SOL    HW125691   5.227   6.793   1.018  0.3944 -0.9886 -0.1852
37904SOL    HW225692   5.197   6.682   0.920  0.6619 -0.5467 -0.7720
37905SOL     OW25693   0.993   3.842   8.911 -0.2304  0.2094 -0.3188
37905SOL    HW125694   0.959   3.754   8.899  1.0561 -0.1656 -1.4059
37905SOL    HW225695   0.978   3.886   8.827 -1.6529  1.3578  0.4667
37906SOL     OW25696   8.313  13.437   3.191  0.1912  0.2584 -0.0732
37906SOL    HW125697   8.316  13.457   3.284 -0.3607  0.4102 -0.0873
37906SOL    HW225698   8.221  13.419   3.173  0.2308  0.6212 -0.6718
37907SOL     OW25699  12.139  13.283   6.326 -0.4690  0.3004 -0.4713
37907SOL    HW125700  12.057  13.248   6.361  0.1571  1.2787  2.2601
37907SOL    HW225701  12.137  13.376   6.346  1.1168  0.4234 -0.6872
37908SOL     OW25702   2.599   9.984   1.598  0.0231 -0.6269 -0.3711
37908SOL    HW125703   2.595  10.054   1.663  2.7063 -0.3940 -0.3472
37908SOL    HW225704   2.549   9.913   1.636 -1.0921  0.5770  0.5085
37909SOL     OW25705  13.881   4.807   8.705 -0.0454  1.1127 -0.3635
37909SOL    HW125706  13.900   4.860   8.782 -1.9143  0.2764  0.7228
37909SOL    HW225707  13.798   4.765   8.724  1.0360 -1.7616 -1.4406
37910SOL     OW25708  11.333   1.684   3.223  0.0644 -0.1865  0.5178
37910SOL    HW125709  11.264   1.751   3.221  0.8059  0.5874  0.2755
37910SOL    HW225710  11.319   1.637   3.306 -0.6505  0.0719  0.5466
37911SOL     OW25711  11.249   7.552   6.251 -0.2712 -0.3637  0.0305
37911SOL    HW125712  11.289   7.639   6.244 -0.5980  0.0101  2.0769
37911SOL    HW225713  11.282   7.518   6.335 -0.7346 -1.9102 -0.3964
37912SOL     OW25714  13.533   9.019   4.528  0.2795 -0.1709  0.0070
37912SOL    HW125715  13.557   8.936   4.569  1.5533 -0.2483 -0.8517
37912SOL    HW225716  13.438   9.024   4.539  0.4060 -0.8352  1.7272
37913SOL     OW25717   3.061   8.083   1.356  0.1614  0.3802 -0.3262
37913SOL    HW125718   3.068   7.988   1.344  0.1603  0.4647 -1.0271
37913SOL    HW225719   3.058   8.095   1.451 -1.4543 -0.4520 -0.2318
37914SOL     OW25720  13.079   1.198  12.726 -0.2257 -0.0716 -0.4847
37914SOL    HW125721  13.142   1.126  12.726 -1.4421 -1.1769  0.0741
37914SOL    HW225722  13.012   1.171  12.663  0.1134  1.3432 -1.4944
37915SOL     OW25723   2.326  10.674   9.213  0.1775  0.2202  0.4553
37915SOL    HW125724   2.278  10.638   9.287  0.0498 -0.2537  0.1447
37915SOL    HW225725   2.262  10.731   9.169  0.5554  1.3178  1.2863
37916SOL     OW25726   3.093   7.156   9.856 -0.2883 -0.4173 -0.3084
37916SOL    HW125727   3.027   7.104   9.811 -1.1293  0.5242 -0.1803
37916SOL    HW225728   3.143   7.197   9.785 -0.7997  0.0508 -0.4052
37917SOL     OW25729  12.661   4.878   9.495  0.0230 -0.2761  0.5779
37917SOL    HW125730  12.630   4.877   9.585  0.9340  0.3922  0.9181
37917SOL    HW225731  12.756   4.890   9.502 -0.0202  1.0110 -0.4720
37918SOL     OW25732   1.583   0.387   4.404  0.4109 -0.2695  0.5250
37918SOL    HW125733   1.598   0.468   4.356  0.0228  0.1812  1.1607
37918SOL    HW225734   1.531   0.333   4.345  1.3760 -0.4027 -0.2383
37919SOL     OW25735   6.198   5.786   1.034 -0.5619 -0.1890  0.4858
37919SOL    HW125736   6.104   5.806   1.035 -0.4766  0.3500 -0.6023
37919SOL    HW225737   6.234   5.843   0.966  0.4830 -0.7351  0.5603
37920SOL     OW25738   7.616   5.509  10.492 -0.3574 -0.7475  0.3748
37920SOL    HW125739   7.595   5.489  10.401 -1.1493  1.1095  0.1038
37920SOL    HW225740   7.710   5.490  10.500  0.5251  1.9884 -1.7725
37921SOL     OW25741  12.955   4.797   1.730 -0.7296  0.5752  0.1979
37921SOL    HW125742  12.911   4.772   1.811 -1.2445 -0.1907 -0.2968
37921SOL    HW225743  12.900   4.759   1.661 -0.5755  1.6319 -0.5256
37922SOL     OW25744   5.017   5.686   4.684  0.2766  0.3147 -0.2136
37922SOL    HW125745   4.984   5.743   4.753 -0.6040 -1.0191  0.5029
37922SOL    HW225746   4.942   5.675   4.625  0.9995  1.3929 -1.3864
37923SOL     OW25747  12.267  10.473  10.796 -0.1851  0.0923  0.3870
37923SOL    HW125748  12.342  10.415  10.782 -0.8705 -0.5165 -0.9634
37923SOL    HW225749  12.191  10.416  10.789 -0.8588  1.0711 -0.5620
37924SOL     OW25750   4.766   2.470  12.751 -0.0607 -0.2855 -0.5046
37924SOL    HW125751   4.751   2.385  12.792 -0.7292 -0.0999 -0.3408
37924SOL    HW225752   4.792   2.450  12.661  1.3359 -0.6895 -0.0242
37925SOL     OW25753   5.805  11.917   8.945  0.3192 -0.3236 -0.0031
37925SOL    HW125754   5.794  11.822   8.952 -1.0807 -0.3203 -1.5264
37925SOL    HW225755   5.774  11.938   8.857  1.5574  1.4289 -0.0591
37926SOL     OW25756   4.254   5.853   1.858 -0.5350  0.2090 -0.4198
37926SOL    HW125757   4.327   5.827   1.914 -1.2588  0.7481  0.8215
37926SOL    HW225758   4.193   5.778   1.861 -1.0984  0.6842  0.4716
37927SOL     OW25759   6.591   3.024   3.528 -0.7863  0.3267 -0.4248
37927SOL    HW125760   6.550   3.067   3.452 -0.2561  1.2252 -0.2149
37927SOL    HW225761   6.519   3.012   3.590 -1.0154  0.5752 -0.6393
37928SOL     OW25762   2.987   6.981   2.914 -0.6154  0.0312 -0.4136
37928SOL    HW125763   3.081   6.995   2.907 -0.1553 -1.5285  1.6103
37928SOL    HW225764   2.973   6.894   2.876 -1.3193  0.4342 -1.0910
37929SOL     OW25765   3.099   0.828   5.556  0.2404 -0.0812  0.1822
37929SOL    HW125766   3.107   0.906   5.500 -0.4387  0.1470  0.3992
37929SOL    HW225767   3.155   0.763   5.514 -1.1697 -0.3125 -1.4470
37930SOL     OW25768   3.321   5.360   9.847 -0.4256 -0.1212  0.1582
37930SOL    HW125769   3.264   5.376   9.772 -0.0697  0.1441 -0.0568
37930SOL    HW225770   3.348   5.269   9.838 -0.7250 -0.2173  0.2028
37931SOL     OW25771   1.605   6.403   6.222  0.0093  0.4132  0.2755
37931SOL    HW125772   1.524   6.454   6.219 -0.4014 -0.2740 -1.4234
37931SOL    HW225773   1.669   6.458   6.177  0.0362  0.2166  0.0725
37932SOL     OW25774   0.876   8.463   2.775 -0.5988 -0.2990  0.0399
37932SOL    HW125775   0.958   8.466   2.824 -0.3827 -2.2709 -0.1150
37932SOL    HW225776   0.822   8.532   2.815  1.0436  0.9221  0.2469
37933SOL     OW25777  10.422   9.320   0.143  0.3997  0.4052  0.3032
37933SOL    HW125778  10.469   9.281   0.070  2.8140  0.0025  1.9445
37933SOL    HW225779  10.490   9.362   0.196 -1.6508  3.6720  0.5865
37934SOL     OW25780  12.039   9.284   1.018  0.3572  0.3721 -0.5276
37934SOL    HW125781  12.011   9.217   0.956  2.6603 -0.4132 -0.8088
37934SOL    HW225782  12.038   9.366   0.968 -3.1409  0.7925  0.0076
37935SOL     OW25783   1.397   1.431   1.533  0.4425 -0.1094  0.5668
37935SOL    HW125784   1.475   1.447   1.479  1.2317 -1.8693  1.1012
37935SOL    HW225785   1.404   1.339   1.558 -2.8677 -0.9347 -1.0319
37936SOL     OW25786   5.656  12.216  12.397  0.9047  0.1894  0.5144
37936SOL    HW125787   5.608  12.214  12.314  1.4197  0.8875  0.1930
37936SOL    HW225788   5.702  12.132  12.400  1.6702  0.5545 -0.3831
37937SOL     OW25789  13.421   1.944  13.488  0.3816 -0.0934  0.0357
37937SOL    HW125790  13.356   2.004  13.453  0.6091  1.5664  2.1879
37937SOL    HW225791  13.401   1.859  13.449 -2.3379  0.6008 -0.2227
37938SOL     OW25792   5.915  10.498   2.104  0.8151 -0.0279  0.4863
37938SOL    HW125793   5.846  10.434   2.123  0.3370  0.6021  0.9115
37938SOL    HW225794   5.876  10.559   2.043  1.6855 -0.8478 -0.9492
37939SOL     OW25795  11.839   2.140  11.200  0.2412 -0.5874  0.0132
37939SOL    HW125796  11.769   2.204  11.189  0.1106 -0.5913  0.8060
37939SOL    HW225797  11.917   2.192  11.216  0.5064 -0.5696 -1.2581
37940SOL     OW25798  11.206   8.809   9.852  0.0168  0.0455  0.2541
37940SOL    HW125799  11.229   8.837   9.941 -0.2321  2.6746 -0.4250
37940SOL    HW225800  11.113   8.787   9.856 -0.9651  3.6093  0.0152
37941SOL     OW25801   0.103   8.535   5.871  0.5623 -0.4153  0.3129
37941SOL    HW125802   0.099   8.509   5.963 -1.6258  2.0289  1.0368
37941SOL    HW225803   0.181   8.590   5.864  0.3123  0.0222  0.9233
37942SOL     OW25804   6.335   2.952   0.996 -0.3447  0.2974 -0.6684
37942SOL    HW125805   6.278   2.903   1.055 -0.8341 -1.4367 -2.4710
37942SOL    HW225806   6.413   2.898   0.987  1.0519  1.9808  0.6666
37943SOL     OW25807  11.616   3.689  13.488  0.4691  0.2368 -0.2920
37943SOL    HW125808  11.571   3.684  13.573  0.2571  3.0614 -0.1516
37943SOL    HW225809  11.693   3.634  13.499  1.1912  1.5998  2.2552
37944SOL     OW25810  13.560   7.224   2.846  0.2133 -0.4970 -0.4547
37944SOL    HW125811  13.651   7.245   2.865 -0.2835  1.9474 -0.5287
37944SOL    HW225812  13.564   7.166   2.770  1.6642  1.5595 -2.0459
37945SOL     OW25813   0.155   4.839  13.003 -0.3496 -0.2795  0.1390
37945SOL    HW125814   0.239   4.884  13.003 -0.0956 -0.7107  1.2910
37945SOL    HW225815   0.171   4.758  12.955 -0.0462 -0.4598  0.5395
37946SOL     OW25816  12.756   8.310   6.623  0.0048  0.4024  0.1522
37946SOL    HW125817  12.849   8.324   6.635  0.0481  0.9617 -0.7377
37946SOL    HW225818  12.715   8.393   6.648 -0.4645 -0.4499  2.4822
37947SOL     OW25819   0.260   9.225   3.388  0.3326 -0.6504 -0.9793
37947SOL    HW125820   0.282   9.254   3.476  0.3222 -0.4193 -1.0518
37947SOL    HW225821   0.345   9.215   3.344  0.3370 -0.7492 -0.9487
37948SOL     OW25822   6.957  13.180   6.443 -0.1276  0.5051 -0.4718
37948SOL    HW125823   7.040  13.170   6.396  1.2069 -0.8653  1.9949
37948SOL    HW225824   6.937  13.273   6.436  1.0651  0.6945 -1.9672
37949SOL     OW25825   1.527   5.438   0.818 -0.6347  0.6378 -0.2499
37949SOL    HW125826   1.599   5.482   0.865 -0.4878  1.3740 -1.1367
37949SOL    HW225827   1.565   5.355   0.789 -0.4044  0.6452  0.0254
37950SOL     OW25828   6.999   5.494   8.535  0.0829 -0.3753 -0.1450
37950SOL    HW125829   6.918   5.462   8.495 -0.8894  0.5150  1.0322
37950SOL    HW225830   7.055   5.517   8.461 -0.9839 -0.4030 -0.9907
37951SOL     OW25831   7.411  12.941   1.468 -0.0526 -0.3290 -0.0639
37951SOL    HW125832   7.416  13.015   1.407  0.2154  0.6747  1.1216
37951SOL    HW225833   7.449  12.868   1.421 -1.6294 -0.0935 -1.8112
37952SOL     OW25834   6.385   7.247   3.370  0.5380 -0.2032 -0.2575
37952SOL    HW125835   6.469   7.276   3.336 -0.4365  2.2764 -0.7624
37952SOL    HW225836   6.345   7.199   3.297  0.3258  1.1972 -1.0961
37953SOL     OW25837   1.560   1.190   3.715 -0.3257 -0.2509  0.4853
37953SOL    HW125838   1.504   1.119   3.684  1.8122 -1.5881 -0.6273
37953SOL    HW225839   1.607   1.152   3.790  0.5389  0.0941  0.1343
37954SOL     OW25840   1.992   2.343   2.285  0.3246 -0.6051 -0.5391
37954SOL    HW125841   1.974   2.250   2.270  0.6420 -1.0825  1.7066
37954SOL    HW225842   2.072   2.344   2.338 -0.0010  0.9253 -0.0218
37955SOL     OW25843  12.337  12.370   9.630 -0.0830  0.1193  0.0554
37955SOL    HW125844  12.377  12.406   9.550 -0.7186 -0.6508 -0.6285
37955SOL    HW225845  12.411  12.356   9.689  0.2498  1.9377  0.1197
37956SOL     OW25846   1.851   2.249  13.586  0.3135  0.0533  0.2666
37956SOL    HW125847   1.876   2.340  13.604  2.0022 -0.4536  0.6900
37956SOL    HW225848   1.832   2.248  13.493  3.0643  0.3137 -0.3871
37957SOL     OW25849   5.199  11.209   4.995  0.3217  0.2050  0.0516
37957SOL    HW125850   5.120  11.251   5.028  0.7652  1.8979 -0.9157
37957SOL    HW225851   5.167  11.147   4.929 -0.3406 -1.0105  1.4631
37958SOL     OW25852   4.604   7.947  12.272 -0.1996  0.6395 -0.2774
37958SOL    HW125853   4.549   8.026  12.271 -0.8064  0.2701  1.0794
37958SOL    HW225854   4.547   7.879  12.308  0.8612  0.0233  0.2935
37959SOL     OW25855  12.656   0.375   7.933 -0.3891  0.0081  0.2737
37959SOL    HW125856  12.683   0.428   8.008 -1.8843  1.4745 -0.1509
37959SOL    HW225857  12.612   0.437   7.875  1.0660 -0.9888 -2.0263
37960SOL     OW25858  10.286  11.899   7.531  0.2731 -0.5387 -0.3132
37960SOL    HW125859  10.228  11.833   7.493 -0.1880 -0.3861  0.1183
37960SOL    HW225860  10.361  11.848   7.562 -1.2733 -1.3208  2.5181
37961SOL     OW25861   4.538   8.103  13.369 -0.1542 -0.2851 -0.5583
37961SOL    HW125862   4.510   8.073  13.455  0.2576  0.2131 -0.2449
37961SOL    HW225863   4.456   8.115  13.320 -0.3983 -0.4083 -0.1845
37962SOL     OW25864  12.182   2.096   2.823 -0.1328 -0.3865  0.2091
37962SOL    HW125865  12.109   2.076   2.764 -0.2946  0.9830 -0.0734
37962SOL    HW225866  12.140   2.129   2.903  0.1667 -0.1341  0.2615
37963SOL     OW25867  10.906   8.586  13.893  0.5953  0.6686  0.0391
37963SOL    HW125868  10.839   8.550  13.835  0.1911 -0.7836  1.3412
37963SOL    HW225869  10.876   8.675  13.911 -1.7723 -0.3319  1.6280
37964SOL     OW25870   9.338   9.573  13.658  0.0541  0.5705 -0.1752
37964SOL    HW125871   9.316   9.584  13.750 -1.2803  1.1880 -0.5341
37964SOL    HW225872   9.268   9.519  13.622  1.4311 -1.0843 -0.5170
37965SOL     OW25873   8.252   2.944   7.145  0.0348 -0.1793  0.2128
37965SOL    HW125874   8.341   2.960   7.115 -1.0080  1.1782 -2.4598
37965SOL    HW225875   8.246   2.848   7.152  2.3581 -0.2558  3.0013
37966SOL     OW25876  10.880  11.266   6.114  0.3846 -0.0872  0.2079
37966SOL    HW125877  10.811  11.216   6.071  1.5021 -0.2489 -1.5093
37966SOL    HW225878  10.903  11.334   6.051  1.9490 -0.1996  0.6084
37967SOL     OW25879   8.845  13.680   0.155 -0.1096 -0.3386 -0.2255
37967SOL    HW125880   8.901  13.742   0.202 -1.2841  1.3285 -0.9081
37967SOL    HW225881   8.768  13.732   0.131 -0.0476 -1.3915 -3.0176
37968SOL     OW25882   9.377   2.459   0.180  0.0184  0.0251 -0.4167
37968SOL    HW125883   9.437   2.525   0.214  0.2604 -0.2382 -0.3315
37968SOL    HW225884   9.294   2.477   0.224  0.6975 -1.2723  1.5487
37969SOL     OW25885   2.988   7.978   9.032 -0.0281  0.5896 -0.0488
37969SOL    HW125886   3.051   8.051   9.031 -0.8745  1.3438  0.3574
37969SOL    HW225887   2.964   7.968   9.124  0.8228 -0.8910  0.0530
37970SOL     OW25888  13.418   5.222   2.634  0.0210 -0.8984 -0.1280
37970SOL    HW125889  13.343   5.222   2.694  0.0817 -0.3437 -0.0468
37970SOL    HW225890  13.405   5.145   2.579 -0.1675 -1.2732  0.4344
37971SOL     OW25891  10.695   9.617  13.738  0.3043  0.7927  0.3261
37971SOL    HW125892  10.674   9.695  13.687  0.4862  0.2915 -0.5339
37971SOL    HW225893  10.712   9.550  13.673  3.7280  0.8986  0.9192
37972SOL     OW25894   0.547   8.664  12.267  0.1861 -0.1189 -0.1201
37972SOL    HW125895   0.638   8.688  12.250 -0.3272  2.2992  0.1656
37972SOL    HW225896   0.523   8.607  12.194  2.0201 -1.1349  0.0152
37973SOL     OW25897  12.406   1.515   8.007  0.5421 -0.1208  0.3044
37973SOL    HW125898  12.452   1.576   8.063 -0.2843 -0.0376  0.9141
37973SOL    HW225899  12.354   1.570   7.948  2.0697 -0.1769 -1.1855
37974SOL     OW25900  11.694   5.101  12.045 -0.4493  0.6692  0.5335
37974SOL    HW125901  11.687   5.029  11.983  0.3252  0.0017  1.1890
37974SOL    HW225902  11.620   5.158  12.025  0.1535  0.8172 -1.4074
37975SOL     OW25903   0.473  11.162   6.439  0.2024  0.1285 -0.1334
37975SOL    HW125904   0.407  11.195   6.379  0.2891 -0.6560 -0.6676
37975SOL    HW225905   0.437  11.081   6.474  0.5303  0.1232  0.2101
37976SOL     OW25906  11.596   5.151   9.036  0.1550  0.2268  0.3339
37976SOL    HW125907  11.548   5.088   9.089  2.1112  0.0072  1.9321
37976SOL    HW225908  11.599   5.111   8.949 -1.2912 -0.3922  0.5389
37977SOL     OW25909   2.885   7.820   3.556  0.5312  0.0712  0.6638
37977SOL    HW125910   2.851   7.889   3.613  0.4254  0.8196 -0.2941
37977SOL    HW225911   2.890   7.860   3.470 -1.0132 -1.5557 -0.2610
37978SOL     OW25912   2.289   6.050   3.368  0.6080  0.3489  0.0505
37978SOL    HW125913   2.317   5.976   3.314 -0.5153 -0.2134  0.2052
37978SOL    HW225914   2.222   6.014   3.426  1.2219  1.1229  1.2844
37979SOL     OW25915   9.874  12.838   6.481 -0.2785  0.5251 -0.5933
37979SOL    HW125916   9.905  12.756   6.522  1.3769  0.5484 -1.6827
37979SOL    HW225917   9.854  12.895   6.555  0.8106 -0.0815  0.2086
37980SOL     OW25918   7.265   4.794   4.623 -0.6026 -0.2244  0.4487
37980SOL    HW125919   7.293   4.813   4.713 -0.4107 -2.2544  0.8590
37980SOL    HW225920   7.335   4.829   4.568 -0.2836  0.2264  1.1200
37981SOL     OW25921   3.067   4.913  10.241 -0.3802  0.5168  0.0231
37981SOL    HW125922   3.015   4.864  10.177 -0.1117  1.0627 -0.6331
37981SOL    HW225923   3.071   5.002  10.204 -1.0935  1.1170  1.3131
37982SOL     OW25924   2.915  11.811   7.129  0.2315  0.1924  0.2483
37982SOL    HW125925   2.827  11.776   7.113 -0.0477  1.7314 -2.0624
37982SOL    HW225926   2.971  11.764   7.068  0.9073 -0.2457  1.1835
37983SOL     OW25927   2.247   9.289   6.837 -0.3935  0.0293  0.5745
37983SOL    HW125928   2.189   9.259   6.907  0.5903  1.3613  2.0404
37983SOL    HW225929   2.190   9.302   6.761 -1.6775 -0.4407  1.4358
37984SOL     OW25930   1.385   4.445   2.975 -0.2290 -0.6157  0.3265
37984SOL    HW125931   1.393   4.536   3.002  0.3876 -0.6640  0.3400
37984SOL    HW225932   1.432   4.440   2.891  1.3065 -1.2602  1.1669
37985SOL     OW25933   6.567   5.349   9.105 -0.6626  0.7824  0.4382
37985SOL    HW125934   6.625   5.417   9.072  0.5745  1.3304  3.4496
37985SOL    HW225935   6.622   5.297   9.165 -2.3483 -1.0148  0.5396
37986SOL     OW25936   2.645  13.810   1.935  0.5637  0.3561  0.4807
37986SOL    HW125937   2.559  13.787   1.969  0.7864  0.1111  0.8834
37986SOL    HW225938   2.644  13.906   1.932 -0.1327  0.3364 -0.6035
37987SOL     OW25939   8.110   4.208  12.942 -0.0731  0.2806  0.4358
37987SOL    HW125940   8.192   4.230  12.987 -0.5532  0.4989  1.2339
37987SOL    HW225941   8.074   4.293  12.915  0.8723  0.0881 -1.6301
37988SOL     OW25942  11.843  12.912   5.950  0.2036  0.6164 -0.3649
37988SOL    HW125943  11.919  12.963   5.980 -0.8769  1.5218  1.0013
37988SOL    HW225944  11.854  12.827   5.992  1.0301  0.3421 -1.1011
37989SOL     OW25945  13.255  13.341  11.113  0.7092 -0.1187  0.0150
37989SOL    HW125946  13.335  13.372  11.071  0.4830  1.1768  0.4921
37989SOL    HW225947  13.235  13.259  11.069  0.7768  0.9096 -2.0365
37990SOL     OW25948   8.436   9.755   8.411 -0.1704  0.1320 -0.1066
37990SOL    HW125949   8.383   9.764   8.490  0.4306 -1.4712  0.5201
37990SOL    HW225950   8.372   9.743   8.340 -0.6892 -0.0512  0.3859
37991SOL     OW25951  13.300   7.620   8.107 -0.5269  0.3884  0.2580
37991SOL    HW125952  13.219   7.573   8.127 -0.2267 -0.1434  0.2338
37991SOL    HW225953  13.343   7.567   8.040  0.0030  0.4943  0.5091
37992SOL     OW25954  11.886   0.856   1.075 -0.7417 -0.9937 -0.4331
37992SOL    HW125955  11.813   0.910   1.106 -1.6375 -1.3146 -1.8709
37992SOL    HW225956  11.956   0.870   1.139 -1.8610 -0.2124  0.6594
37993SOL     OW25957   2.799   0.020   6.037  0.1793  0.0173 -0.3872
37993SOL    HW125958   2.736  -0.006   6.105  0.7665  0.1043  0.1935
37993SOL    HW225959   2.884   0.016   6.080  0.4520  1.2135 -0.7788
37994SOL     OW25960   1.152  12.667   3.628  0.0250 -0.5247 -0.1630
37994SOL    HW125961   1.129  12.676   3.721  0.8610 -0.9934  0.0951
37994SOL    HW225962   1.213  12.594   3.625 -0.0334 -0.5472 -1.0971
37995SOL     OW25963   4.449   1.555  13.284 -0.0887 -0.0924 -0.0652
37995SOL    HW125964   4.420   1.538  13.194  1.7106  3.6079 -1.5103
37995SOL    HW225965   4.503   1.479  13.306 -1.8899 -1.8749 -1.3736
37996SOL     OW25966   1.854  11.206   6.259 -0.2658 -0.2980  0.1229
37996SOL    HW125967   1.900  11.290   6.263 -1.6996  0.4746  0.9187
37996SOL    HW225968   1.924  11.141   6.253  0.9353  0.8342  1.3107
37997SOL     OW25969  11.787   9.845  13.450  0.4468 -0.7005  0.0458
37997SOL    HW125970  11.829   9.807  13.372  0.1634  1.2603 -1.1301
37997SOL    HW225971  11.820   9.934  13.453 -3.6832  1.1000 -1.1097
37998SOL     OW25972   0.317  11.690   7.804  0.0763 -0.0859 -0.4106
37998SOL    HW125973   0.361  11.773   7.820 -0.7983 -0.0386  2.2735
37998SOL    HW225974   0.346  11.633   7.875 -1.6364 -1.0888 -0.4504
37999SOL     OW25975   1.654   5.663   6.498  0.5234  0.5206  0.2305
37999SOL    HW125976   1.589   5.626   6.438  2.7105  0.1569 -2.0893
37999SOL    HW225977   1.602   5.700   6.570 -2.1165 -1.0971 -0.6902
38000SOL     OW25978   2.308  13.662  13.666  0.0903 -0.1228  0.1035
38000SOL    HW125979   2.357  13.723  13.721  0.4625 -0.9544  0.7131
38000SOL    HW225980   2.293  13.586  13.722 -1.0017 -0.3058 -0.4085
38001SOL     OW25981   7.078   9.144   8.134 -0.2420  0.0998 -0.5554
38001SOL    HW125982   7.159   9.097   8.112 -0.6522 -0.6651 -0.4654
38001SOL    HW225983   7.041   9.168   8.049 -0.2899 -0.1887 -0.6174
38002SOL     OW25984   5.864  11.969   7.871 -0.6391  0.2587 -0.2794
38002SOL    HW125985   5.815  11.951   7.952  0.7719 -0.4193  0.4586
38002SOL    HW225986   5.824  11.910   7.806 -1.7775  0.8039 -0.0952
38003SOL     OW25987   3.957   2.252   4.654 -0.3790  0.0960 -0.4256
38003SOL    HW125988   4.004   2.202   4.587  1.0895  0.3956  0.3273
38003SOL    HW225989   3.956   2.342   4.620 -0.2446  0.1231 -0.3574
38004SOL     OW25990   0.641  11.461   6.539 -0.0160 -0.2797 -0.2749
38004SOL    HW125991   0.550  11.471   6.568  0.5152 -0.8314  1.7201
38004SOL    HW225992   0.682  11.544   6.563  0.4823 -0.8241  0.8238
38005SOL     OW25993   6.183  11.883  10.439 -0.5173  0.3395 -0.1284
38005SOL    HW125994   6.154  11.897  10.529 -0.1326  0.5078 -0.0298
38005SOL    HW225995   6.122  11.817  10.404  0.3986 -1.0575  0.8154
38006SOL     OW25996   9.630   9.762   0.447 -0.1566  0.0221  0.3023
38006SOL    HW125997   9.673   9.756   0.361 -0.4918  0.0637  0.1297
38006SOL    HW225998   9.541   9.730   0.431 -0.3318  0.3807  0.5533
38007SOL     OW25999   0.261  12.321  13.739 -0.0262 -0.1733  0.1450
38007SOL    HW126000   0.239  12.267  13.663 -2.1429 -1.3214  1.4783
38007SOL    HW226001   0.332  12.378  13.708 -0.7805 -0.6056 -2.6570
38008SOL     OW26002   4.296   3.927  12.683  0.2706  0.3576  0.2371
38008SOL    HW126003   4.224   3.886  12.636 -0.7389  1.0801  1.1237
38008SOL    HW226004   4.306   3.873  12.762  0.9797  0.0267 -0.0661
38009SOL     OW26005   8.701   6.676  10.059 -0.2469  0.0234  0.4608
38009SOL    HW126006   8.643   6.739  10.101 -0.7555 -0.1390  0.0099
38009SOL    HW226007   8.643   6.606  10.028 -0.1378  0.9313 -2.0015
38010SOL     OW26008   7.442   2.026  12.833  0.2071 -0.2053  0.0541
38010SOL    HW126009   7.409   2.086  12.766 -2.1089 -1.4586 -0.0476
38010SOL    HW226010   7.491   2.081  12.894  2.4194  0.9744 -2.6085
38011SOL     OW26011   4.435  12.746   1.950 -0.0039  0.1546 -0.0565
38011SOL    HW126012   4.355  12.749   1.898 -1.9995 -2.7304  2.4721
38011SOL    HW226013   4.441  12.833   1.991 -2.2457  0.2673  0.1463
38012SOL     OW26014   1.343   8.660   9.643 -0.4012 -0.0458  0.5639
38012SOL    HW126015   1.297   8.744   9.640  1.6796  1.1330 -0.0882
38012SOL    HW226016   1.289   8.605   9.701 -2.2510  1.4318  0.3267
38013SOL     OW26017   4.050   3.742   8.833  0.3539 -0.0263  0.7184
38013SOL    HW126018   4.042   3.653   8.798 -0.9113  0.5444 -0.5396
38013SOL    HW226019   4.140   3.768   8.811  0.2384 -0.4327 -0.2777
38014SOL     OW26020   7.980   2.431   9.691 -0.0344  0.0817  0.0094
38014SOL    HW126021   7.895   2.429   9.648  0.3595 -0.0646 -0.7875
38014SOL    HW226022   8.041   2.461   9.623  0.7091 -0.7783  0.2723
38015SOL     OW26023   4.197   5.684  11.925  0.2722  0.3991  0.4797
38015SOL    HW126024   4.285   5.645  11.921 -0.3470 -0.9810 -0.6565
38015SOL    HW226025   4.197   5.751  11.856  0.3463  0.2065  0.2918
38016SOL     OW26026   7.469   9.988   5.018 -0.1800 -0.0204 -0.0045
38016SOL    HW126027   7.501   9.898   5.015 -0.5188 -0.1169 -0.8206
38016SOL    HW226028   7.512  10.025   5.096  0.0984 -0.8245  0.2412
38017SOL     OW26029   7.393   8.649  11.565 -0.4515  0.1400 -0.4837
38017SOL    HW126030   7.415   8.563  11.529 -2.3290 -0.4373 -0.3325
38017SOL    HW226031   7.463   8.706  11.534 -0.2391 -1.0131 -2.2940
38018SOL     OW26032   7.939   2.575   5.313 -0.3704 -0.2003 -0.3388
38018SOL    HW126033   7.923   2.618   5.229 -1.4863  0.4084  0.1584
38018SOL    HW226034   7.960   2.647   5.373 -1.2511 -0.4309  0.2692
38019SOL     OW26035   6.747   1.878   5.186 -0.4700  0.3776 -0.2880
38019SOL    HW126036   6.826   1.831   5.159 -0.3655  1.1961 -1.4370
38019SOL    HW226037   6.702   1.816   5.243  0.0885 -0.8113 -1.0890
38020SOL     OW26038  13.528  12.524   0.157  0.1660  0.0361 -0.1996
38020SOL    HW126039  13.612  12.488   0.185 -0.2482 -2.9529 -2.3139
38020SOL    HW226040  13.543  12.555   0.068 -0.8315 -0.0476 -0.4160
38021SOL     OW26041   0.604   6.124  12.539  0.2509  0.4181  0.0797
38021SOL    HW126042   0.538   6.089  12.478  0.3290  0.6375 -0.1310
38021SOL    HW226043   0.623   6.211  12.505 -0.6263  1.0403  1.1256
38022SOL     OW26044   8.305   1.600   9.878  0.2647 -0.5163 -0.3020
38022SOL    HW126045   8.359   1.552   9.816  2.0326  0.7309  0.2033
38022SOL    HW226046   8.268   1.673   9.828  0.8245 -0.1242 -0.1496
38023SOL     OW26047   6.958   4.905  13.321  0.5237  0.1358 -0.0610
38023SOL    HW126048   7.008   4.828  13.350 -0.0672 -0.8726 -1.6094
38023SOL    HW226049   6.962   4.902  13.226 -1.3702  0.7680 -0.2014
38024SOL     OW26050  10.104   4.782   1.636  0.7289 -0.3342 -0.5568
38024SOL    HW126051  10.041   4.854   1.637 -0.1391 -1.0089 -2.5688
38024SOL    HW226052  10.153   4.794   1.555  1.9751 -0.8604  0.0926
38025SOL     OW26053  12.785   9.757   5.995  0.0361  0.1532 -0.0790
38025SOL    HW126054  12.836   9.762   6.075 -1.7674  2.7474  1.0917
38025SOL    HW226055  12.843   9.792   5.927  1.4662 -1.7483  0.0967
38026SOL     OW26056   2.821   6.955  11.214 -0.5543  0.4683 -0.6331
38026SOL    HW126057   2.787   6.988  11.131 -0.5203 -0.9327 -1.2241
38026SOL    HW226058   2.775   6.872  11.227 -1.2034  1.0669  1.1926
38027SOL     OW26059   3.082   5.715  10.361 -0.5639 -0.5674 -0.0526
38027SOL    HW126060   3.008   5.677  10.410 -1.1056  0.2130 -0.2530
38027SOL    HW226061   3.050   5.723  10.271  0.5393 -2.3021 -0.6587
38028SOL     OW26062   0.507   0.462   6.504  0.7047  0.2464  0.1112
38028SOL    HW126063   0.431   0.516   6.524  0.0682 -0.4870 -0.2947
38028SOL    HW226064   0.471   0.381   6.468  1.5895 -0.8662  1.6133
38029SOL     OW26065   4.957   5.513   2.189  0.4592 -0.0366 -0.2002
38029SOL    HW126066   4.916   5.598   2.202 -1.9398 -1.4151  2.0916
38029SOL    HW226067   5.021   5.506   2.259  0.7800 -0.0778 -0.4926
38030SOL     OW26068  11.707   5.701   4.504  0.3258 -0.2516 -0.1288
38030SOL    HW126069  11.623   5.658   4.487  0.3231  0.2952 -1.6373
38030SOL    HW226070  11.742   5.657   4.582 -1.9044  0.3260  1.2954
38031SOL     OW26071   3.211   6.981   9.489 -0.4066 -0.0574 -0.3523
38031SOL    HW126072   3.284   6.961   9.548 -0.0139  1.0927 -0.4188
38031SOL    HW226073   3.251   6.987   9.402 -0.9649 -1.6348 -0.7603
38032SOL     OW26074   7.032   1.525   6.018  0.7253 -0.0807  0.0710
38032SOL    HW126075   7.078   1.555   6.096 -0.1862  0.9558  0.2238
38032SOL    HW226076   6.965   1.465   6.051 -1.3278  2.2353  0.4313
38033SOL     OW26077   0.155   0.005   1.071  0.1030  0.2565 -0.0913
38033SOL    HW126078   0.186   0.036   0.986  0.1997  1.2535  0.2930
38033SOL    HW226079   0.214  -0.067   1.094  2.4258  2.3032  0.7689
38034SOL     OW26080  11.403   1.125   3.389 -0.1913  0.0706 -0.9397
38034SOL    HW126081  11.364   1.063   3.451  2.2831 -0.1095  0.5726
38034SOL    HW226082  11.448   1.070   3.325  3.5859  0.0732  1.4385
38035SOL     OW26083   8.516   5.159   1.372  0.6418 -0.3190 -0.9289
38035SOL    HW126084   8.500   5.081   1.426 -1.4348  0.4670 -0.2944
38035SOL    HW226085   8.530   5.123   1.284 -0.8134 -1.4493 -0.7599
38036SOL     OW26086   2.237   4.959  11.561  0.4703  0.1406  0.5683
38036SOL    HW126087   2.252   4.867  11.584  2.7073  0.8273  2.1621
38036SOL    HW226088   2.325   4.995  11.548 -0.4094  1.7759 -1.3469
38037SOL     OW26089   0.503   2.822   7.277  0.2649  0.2583  0.0737
38037SOL    HW126090   0.428   2.860   7.323 -0.0906 -1.3688  0.9135
38037SOL    HW226091   0.578   2.842   7.333 -0.2573 -2.3146  1.8522
38038SOL     OW26092   4.404   2.783   3.125 -0.0722  0.3291  0.1208
38038SOL    HW126093   4.317   2.801   3.158 -0.8046 -0.5923 -1.2194
38038SOL    HW226094   4.395   2.784   3.030  1.1510 -0.7725 -0.0478
38039SOL     OW26095   4.481   7.297   5.641 -0.7174  0.3791 -0.3268
38039SOL    HW126096   4.543   7.369   5.632 -0.2287  0.6196  3.3968
38039SOL    HW226097   4.533   7.218   5.624 -0.3008  0.7314 -0.7044
38040SOL     OW26098   1.887   0.566  12.999 -0.1882  0.8243  0.7503
38040SOL    HW126099   1.860   0.575  13.091 -0.6283 -0.2495  0.7394
38040SOL    HW226100   1.982   0.555  13.004 -0.3956 -1.0492  1.2424
38041SOL     OW26101   3.392   8.698   1.241 -0.3591  0.3129 -0.3518
38041SOL    HW126102   3.422   8.616   1.202  1.7344  0.2967  1.1275
38041SOL    HW226103   3.371   8.754   1.166  2.7881  0.0385 -1.5726
38042SOL     OW26104   3.831   8.931   5.688 -0.0379 -0.3209 -0.1299
38042SOL    HW126105   3.834   8.991   5.613 -0.8460 -0.0075  0.0733
38042SOL    HW226106   3.746   8.949   5.730 -0.4253 -1.7881 -0.2182
38043SOL     OW26107  10.433  12.284   4.503 -0.4730  0.5007 -0.0764
38043SOL    HW126108  10.478  12.260   4.584  0.6716  0.4667 -0.6999
38043SOL    HW226109  10.377  12.358   4.527 -0.6373  0.0684  0.8825
38044SOL     OW26110  12.739   3.269   9.104 -0.0702  0.1865 -0.4715
38044SOL    HW126111  12.777   3.351   9.135 -0.7858 -0.5168  2.6624
38044SOL    HW226112  12.746   3.210   9.179 -1.2104 -2.0594 -2.0291
38045SOL     OW26113   4.218   0.616   9.704 -0.1324 -0.4813  0.4009
38045SOL    HW126114   4.291   0.668   9.735 -0.5500  0.4759 -0.1578
38045SOL    HW226115   4.154   0.680   9.673 -1.5788 -1.2593  1.6585
38046SOL     OW26116   1.965   1.735   8.549 -0.1403  0.0041  0.0163
38046SOL    HW126117   2.026   1.726   8.476 -0.4015  0.5223 -0.2715
38046SOL    HW226118   1.878   1.729   8.508 -0.2872  0.2437  0.2882
38047SOL     OW26119  13.178  12.645   2.017 -0.4029  0.3643 -0.2423
38047SOL    HW126120  13.212  12.556   2.027 -1.8029  0.0001  2.3713
38047SOL    HW226121  13.109  12.651   2.083 -0.4072  3.3742 -0.3903
38048SOL     OW26122   5.843   1.427   4.315 -0.3507  0.4073 -0.3644
38048SOL    HW126123   5.754   1.433   4.279 -0.7553  0.1014  0.5604
38048SOL    HW226124   5.887   1.362   4.260 -1.8318 -2.2341  1.4108
38049SOL     OW26125   0.407   0.465  13.397  0.8265 -0.2377 -0.1509
38049SOL    HW126126   0.408   0.537  13.334  0.8335  0.2914  0.4352
38049SOL    HW226127   0.439   0.389  13.349 -0.5422 -0.1980 -1.1974
38050SOL     OW26128  11.999   3.883   1.832 -0.0257  0.1985 -0.3170
38050SOL    HW126129  11.948   3.895   1.912  0.6741 -0.0330  0.1756
38050SOL    HW226130  12.029   3.971   1.809 -0.3598  0.2866 -0.4144
38051SOL     OW26131   5.631   4.925   8.333  0.0960 -0.4674  0.4372
38051SOL    HW126132   5.675   4.908   8.416 -0.1113 -1.2905  0.3867
38051SOL    HW226133   5.610   4.838   8.299 -2.2604 -0.1273  0.8408
38052SOL     OW26134   2.353   1.822   3.717 -0.4753  0.1459 -0.2601
38052SOL    HW126135   2.431   1.773   3.691 -0.6088 -1.2361  1.7378
38052SOL    HW226136   2.386   1.893   3.771 -0.5408  0.0044 -0.0328
38053SOL     OW26137   8.958  13.845  10.943  0.4864  0.5879 -0.4390
38053SOL    HW126138   8.954  13.876  10.853 -0.2498  1.8061 -0.0110
38053SOL    HW226139   9.045  13.805  10.951  0.1335 -0.5936 -1.9826
38054SOL     OW26140   0.581  11.925   6.939 -0.1373 -0.1056 -0.3751
38054SOL    HW126141   0.530  12.002   6.964  1.1386  1.0849 -1.2707
38054SOL    HW226142   0.548  11.855   6.996 -0.7681  1.2775  1.0458
38055SOL     OW26143   5.039   1.485   4.428  0.2216 -0.2709  0.0349
38055SOL    HW126144   5.065   1.541   4.501 -1.0214  0.2904  0.0721
38055SOL    HW226145   5.068   1.397   4.453  0.4823  0.0433  0.8504
38056SOL     OW26146   7.879   2.868  13.011 -0.0862  0.1970  0.7387
38056SOL    HW126147   7.811   2.856  13.077  0.8624 -1.1278  1.5129
38056SOL    HW226148   7.911   2.957  13.026 -0.0290 -0.0161  1.9282
38057SOL     OW26149   3.793  10.354   7.951 -0.1896 -0.7919  0.3989
38057SOL    HW126150   3.726  10.418   7.928  1.5681  1.0445  0.1116
38057SOL    HW226151   3.760  10.271   7.917 -1.6116  0.3357 -1.1157
38058SOL     OW26152   6.156   1.225   2.636 -0.2140 -0.0059 -0.2739
38058SOL    HW126153   6.124   1.143   2.597 -0.4257  1.3088 -3.1319
38058SOL    HW226154   6.078   1.281   2.640  0.3104  0.7417 -0.3479
38059SOL     OW26155   5.057   3.775   0.500 -0.1776  0.1949  0.6380
38059SOL    HW126156   5.120   3.831   0.546  0.4986  0.0830 -0.1195
38059SOL    HW226157   5.097   3.688   0.500 -0.0804  0.2208 -0.2659
38060SOL     OW26158  11.398   5.573   8.771  0.0790  0.4024  0.0596
38060SOL    HW126159  11.305   5.592   8.759 -0.1012 -0.5526 -0.1631
38060SOL    HW226160  11.412   5.581   8.865 -0.5980 -0.9468  0.3035
38061SOL     OW26161  11.786   4.462   9.582  0.4449  0.3566 -0.1828
38061SOL    HW126162  11.696   4.495   9.590  1.2293  2.7896 -0.4662
38061SOL    HW226163  11.840   4.534   9.614  2.3482 -0.7228 -0.8304
38062SOL     OW26164   2.789   1.078   5.168 -0.1572 -0.1161  0.7243
38062SOL    HW126165   2.827   1.160   5.136 -1.8977  0.2578 -0.5645
38062SOL    HW226166   2.826   1.010   5.112  0.3313 -0.0532  0.9696
38063SOL     OW26167  12.523  12.001  13.044 -0.5683 -0.2029  0.4255
38063SOL    HW126168  12.463  11.927  13.056  0.7287 -1.5012 -0.6526
38063SOL    HW226169  12.551  11.993  12.952 -1.3475  2.3966 -0.1090
38064SOL     OW26170   0.964   4.019  12.281 -0.3565  0.1783  0.5183
38064SOL    HW126171   0.989   4.105  12.248  1.5532 -0.3009  0.6110
38064SOL    HW226172   1.020   3.957  12.235 -3.3088 -1.3493 -1.3440
38065SOL     OW26173   0.633   8.597   4.640  0.1431  0.5243  0.1442
38065SOL    HW126174   0.713   8.651   4.648  0.7185 -0.1190 -1.0502
38065SOL    HW226175   0.635   8.540   4.718 -0.0716  1.6682  1.0184
38066SOL     OW26176   6.137   3.144   7.144  0.3718 -0.0553 -0.6800
38066SOL    HW126177   6.175   3.229   7.124  0.5548  0.1780  0.5761
38066SOL    HW226178   6.070   3.162   7.209  0.9142 -0.9424  0.1447
38067SOL     OW26179   7.441   4.528   8.419 -0.2346  0.0062  0.0366
38067SOL    HW126180   7.396   4.581   8.353  0.0192  1.2460  0.8222
38067SOL    HW226181   7.424   4.437   8.393  0.0344  0.4600 -1.8376
38068SOL     OW26182   7.288  11.560   2.971 -0.2184 -0.5017  0.2546
38068SOL    HW126183   7.252  11.597   2.890  0.9755 -0.7373 -0.4174
38068SOL    HW226184   7.264  11.467   2.967 -3.3328  0.1289  2.0079
38069SOL     OW26185   8.644   7.698   1.401 -0.8330  0.3675 -0.1333
38069SOL    HW126186   8.657   7.749   1.481 -0.1895  0.1894 -0.1133
38069SOL    HW226187   8.703   7.623   1.411 -2.1908 -0.6984  0.1006
38070SOL     OW26188   4.304  11.479   0.966  0.0191  0.0499  0.0946
38070SOL    HW126189   4.355  11.419   0.912 -0.8301 -0.2645 -0.3843
38070SOL    HW226190   4.221  11.488   0.920 -1.2361 -1.2059  1.9433
38071SOL     OW26191   9.468   7.488   4.838  0.0590  0.3353  0.0676
38071SOL    HW126192   9.442   7.565   4.890  0.9469  1.6252 -1.3069
38071SOL    HW226193   9.400   7.423   4.856 -0.6730  1.3962  1.3542
38072SOL     OW26194   2.506   7.636   5.051  0.9323  0.4890 -0.6264
38072SOL    HW126195   2.436   7.701   5.045  1.1753  0.7201 -1.0296
38072SOL    HW226196   2.573   7.667   4.989  1.6053  0.5326  0.1087
38073SOL     OW26197  12.369  13.346   9.294  0.1755 -0.2057 -0.0736
38073SOL    HW126198  12.379  13.345   9.199  0.5555  0.0054 -0.0366
38073SOL    HW226199  12.434  13.409   9.325 -0.4442  0.2887  0.2638
38074SOL     OW26200  12.165   5.875   5.134 -0.6238  0.8247 -0.2968
38074SOL    HW126201  12.203   5.823   5.204  0.6159 -0.4797 -1.8779
38074SOL    HW226202  12.071   5.856   5.139 -0.6007  0.9543  1.1295
38075SOL     OW26203   6.362  11.389  12.954  0.1074 -0.2052 -0.1231
38075SOL    HW126204   6.281  11.342  12.939  0.5646 -1.3239  0.7672
38075SOL    HW226205   6.342  11.450  13.025 -0.5884  1.2905 -1.5257
38076SOL     OW26206   5.287   6.690  13.143  0.3307  0.2740  0.5143
38076SOL    HW126207   5.265   6.676  13.235  3.3827 -0.5883  1.2127
38076SOL    HW226208   5.292   6.785  13.133  0.4451  0.3620  1.3670
38077SOL     OW26209  13.083   8.479   4.358  0.4442 -0.5713  0.2256
38077SOL    HW126210  13.114   8.447   4.273  0.1025 -0.1219 -0.0732
38077SOL    HW226211  13.004   8.428   4.375 -1.7019  1.8644 -1.5465
38078SOL     OW26212   2.872   0.869  13.704  0.5624  0.2902  0.8413
38078SOL    HW126213   2.863   0.855  13.799 -0.6137  0.8134  0.8217
38078SOL    HW226214   2.788   0.905  13.677  1.1223  0.7872 -0.2966
38079SOL     OW26215   4.961  10.134   9.868 -0.0459 -0.2992  0.3449
38079SOL    HW126216   4.934  10.155   9.779  0.4929 -2.2824 -0.3332
38079SOL    HW226217   5.053  10.162   9.873 -0.6773  1.9190  1.0856
38080SOL     OW26218  10.842   2.753   1.303  0.2149  0.1304  0.9861
38080SOL    HW126219  10.910   2.686   1.292 -0.4015 -0.5795  1.4454
38080SOL    HW226220  10.891   2.836   1.304  0.8769 -0.1587 -1.0383
38081SOL     OW26221   6.264   1.006  11.575  0.5856  0.3630  0.1381
38081SOL    HW126222   6.234   1.087  11.535 -1.8702  1.2679  3.3352
38081SOL    HW226223   6.195   0.942  11.555  2.1552 -0.8452 -1.7612
38082SOL     OW26224   3.217  11.146   2.618  0.0435  0.1045  0.2594
38082SOL    HW126225   3.127  11.132   2.646  0.0418 -0.3843  0.0152
38082SOL    HW226226   3.216  11.231   2.574 -0.4095 -0.1521 -0.2256
38083SOL     OW26227   3.124  10.917   7.782 -0.1008  0.1384 -0.3217
38083SOL    HW126228   3.199  10.973   7.799 -0.3422  0.9441 -1.7485
38083SOL    HW226229   3.097  10.886   7.869  0.5827  1.5213  0.4179
38084SOL     OW26230  10.807   1.365   0.053 -0.1020  0.2493  0.0040
38084SOL    HW126231  10.794   1.425  -0.020 -0.7927  1.5117  1.1145
38084SOL    HW226232  10.729   1.378   0.108  0.2417 -0.9115  0.7930
38085SOL     OW26233  12.437   5.187  12.580  0.1535 -0.0269  0.0674
38085SOL    HW126234  12.383   5.249  12.629 -0.6880 -1.1942  0.6548
38085SOL    HW226235  12.527   5.213  12.599 -0.1482  2.1603 -1.1945
38086SOL     OW26236  11.776   4.170   4.344 -0.1193  0.8998 -0.4387
38086SOL    HW126237  11.692   4.129   4.364 -0.2285  0.2331 -2.0959
38086SOL    HW226238  11.818   4.182   4.429 -0.8028 -1.1291  0.2327
38087SOL     OW26239  10.503   4.838  13.350 -0.4964 -0.1318  0.3070
38087SOL    HW126240  10.478   4.913  13.403  1.4292  1.1577 -0.4959
38087SOL    HW226241  10.458   4.850  13.267 -0.3485  0.0223  0.2491
38088SOL     OW26242  14.023  13.584   6.625 -0.1832  0.2391 -0.5683
38088SOL    HW126243  14.054  13.674   6.614  1.2600  0.0769  1.5216
38088SOL    HW226244  14.088  13.530   6.580  1.4569  0.0473  1.8426
38089SOL     OW26245   2.658   0.371   8.548  0.2020  0.2830 -0.0508
38089SOL    HW126246   2.692   0.417   8.471  1.8945  0.4852  0.7660
38089SOL    HW226247   2.563   0.382   8.542  0.2103 -0.2112 -2.4108
38090SOL     OW26248  11.140   6.469   7.806  0.5881  0.5375  0.0153
38090SOL    HW126249  11.084   6.493   7.880  1.3903  1.1621  0.4323
38090SOL    HW226250  11.177   6.552   7.776  0.8948  0.1952 -0.5821
38091SOL     OW26251   9.937   2.991  12.977  0.1507 -0.1835 -0.1345
38091SOL    HW126252  10.005   3.004  13.042 -0.4331  0.9896  0.2697
38091SOL    HW226253   9.857   2.974  13.028 -0.6118  2.1691 -0.4497
38092SOL     OW26254   0.013  12.932  12.320  0.0579 -0.6968  0.0073
38092SOL    HW126255   0.052  12.849  12.346 -0.1481 -0.5420  0.8371
38092SOL    HW226256  -0.068  12.938  12.371  1.0300  0.9107  1.4882
38093SOL     OW26257   9.136   2.514   0.292  0.2443  0.3433  0.3151
38093SOL    HW126258   9.122   2.490   0.384 -1.2992  0.4288  0.1197
38093SOL    HW226259   9.119   2.608   0.290 -4.5913 -0.3062 -0.8441
38094SOL     OW26260   8.266   0.002   3.321  0.3060 -0.3713  0.1697
38094SOL    HW126261   8.293   0.016   3.412 -1.3166  0.2887  0.5986
38094SOL    HW226262   8.187  -0.051   3.328  0.3476 -0.5912 -0.8829
38095SOL     OW26263   5.630   9.343   1.954  0.1128 -0.1704  0.1009
38095SOL    HW126264   5.596   9.276   1.896 -0.0588 -0.2659  0.3090
38095SOL    HW226265   5.725   9.337   1.945  0.0767  0.3195 -0.7382
38096SOL     OW26266  13.944   6.471  13.420 -0.3337  0.5602  0.6290
38096SOL    HW126267  13.988   6.437  13.342 -2.8105  1.4362 -1.2738
38096SOL    HW226268  14.015   6.495  13.479  1.8447  2.5063 -2.4717
38097SOL     OW26269   1.408   0.634   1.580  0.0988 -0.8145  0.3919
38097SOL    HW126270   1.432   0.544   1.558 -0.5693 -0.8185 -0.3655
38097SOL    HW226271   1.336   0.655   1.521  1.4566  0.8701 -0.8039
38098SOL     OW26272  10.673   8.274  11.018 -0.2188  0.2332  0.1988
38098SOL    HW126273  10.714   8.356  10.991  0.6165  0.0526  0.8941
38098SOL    HW226274  10.582   8.283  10.989 -0.2854  1.6289  0.7561
38099SOL     OW26275  12.931   4.107   9.014  0.2146 -0.3202  0.3470
38099SOL    HW126276  12.897   4.030   8.968 -0.0143 -0.2952  0.4711
38099SOL    HW226277  12.860   4.171   9.009  0.1179 -0.3812  0.8832
38100SOL     OW26278  10.532   2.716  12.097 -0.3190 -0.1612  0.3640
38100SOL    HW126279  10.499   2.686  12.012  0.6832 -2.6284  0.7442
38100SOL    HW226280  10.520   2.811  12.096 -1.4381 -0.2640 -2.0373
38101SOL     OW26281   4.825   6.751   9.595 -1.1015 -0.3018 -0.4930
38101SOL    HW126282   4.733   6.773   9.609 -0.5541  1.1212  1.2516
38101SOL    HW226283   4.840   6.673   9.648 -1.1116  0.0206 -0.0006
38102SOL     OW26284   6.098   0.676  10.498 -0.3698  0.0058 -0.2363
38102SOL    HW126285   6.035   0.632  10.555 -0.3346 -0.0840 -0.2663
38102SOL    HW226286   6.044   0.722  10.433 -0.3848 -2.1208 -1.8204
38103SOL     OW26287  12.661   6.309   5.442 -0.2296  0.2807  0.1898
38103SOL    HW126288  12.686   6.254   5.367 -1.5598 -0.4839  0.2675
38103SOL    HW226289  12.739   6.310   5.498 -0.2695 -1.9520  0.4001
38104SOL     OW26290   9.792   8.780   1.495 -0.0821  0.0368  0.0278
38104SOL    HW126291   9.823   8.708   1.440 -0.3442 -0.0651  0.0130
38104SOL    HW226292   9.750   8.737   1.569  0.2000  0.1742  0.2684
38105SOL     OW26293  13.411   9.928  11.995 -0.0541 -0.1845 -0.1322
38105SOL    HW126294  13.495   9.955  12.032 -1.0108  0.7555  1.4180
38105SOL    HW226295  13.384   9.853  12.048  0.8211 -2.0022 -2.0808
38106SOL     OW26296   2.610   0.735   3.858 -0.1703 -0.1325  0.2445
38106SOL    HW126297   2.691   0.763   3.902  1.3133 -1.2904 -1.5807
38106SOL    HW226298   2.588   0.652   3.901 -0.0132 -0.1490  0.2958
38107SOL     OW26299   2.219   8.672   5.462 -0.2654 -0.0311  0.0742
38107SOL    HW126300   2.268   8.703   5.386 -0.3220  0.0225  0.0602
38107SOL    HW226301   2.228   8.742   5.527 -0.5090  0.0752 -0.0062
38108SOL     OW26302  13.922   4.596   9.304  0.2900  0.4288 -0.0946
38108SOL    HW126303  14.016   4.595   9.287  0.3285  1.3640  0.0185
38108SOL    HW226304  13.915   4.574   9.397  0.4524  0.9982  0.0618
38109SOL     OW26305  10.165   3.570   6.653  0.3013  0.4786 -0.0059
38109SOL    HW126306  10.115   3.494   6.683 -1.9220  1.7613 -0.2217
38109SOL    HW226307  10.105   3.617   6.595  1.4038  2.6790  0.5211
38110SOL     OW26308   9.826   1.329   1.595  0.1734 -0.2178 -0.3705
38110SOL    HW126309   9.889   1.400   1.578  0.9472 -0.7590  0.1836
38110SOL    HW226310   9.836   1.270   1.521  0.0279 -0.1016 -0.4831
38111SOL     OW26311   4.037   3.556   3.972  0.0377  0.5410  0.2140
38111SOL    HW126312   4.050   3.466   4.000  0.3912  0.9024  1.2700
38111SOL    HW226313   3.987   3.597   4.042 -2.9649  0.3938 -1.6954
38112SOL     OW26314   7.401   6.740   8.591  0.5844 -0.2077 -0.3016
38112SOL    HW126315   7.449   6.689   8.525 -0.0336  0.7698 -1.5713
38112SOL    HW226316   7.311   6.711   8.583  0.7076 -1.0367  1.0895
38113SOL     OW26317  10.486  10.065  13.002 -0.2127 -0.2985 -0.0601
38113SOL    HW126318  10.428  10.083  13.075 -0.8227 -0.0694 -0.5970
38113SOL    HW226319  10.429  10.062  12.925  0.5650  0.6324 -0.6983
38114SOL     OW26320   7.152   7.681   9.898  0.0080 -0.3900  0.6070
38114SOL    HW126321   7.145   7.683   9.993  0.5371  1.4870  0.6545
38114SOL    HW226322   7.183   7.768   9.875 -0.5380 -0.6620 -1.3267
38115SOL     OW26323   9.033   8.179   5.442 -0.3199 -0.1007  0.2270
38115SOL    HW126324   8.978   8.220   5.376  0.3477 -1.9922 -1.6166
38115SOL    HW226325   8.972   8.137   5.502 -0.9118  0.7734  0.2622
38116SOL     OW26326  13.603   1.986   3.730  0.4878  0.3247  0.3474
38116SOL    HW126327  13.582   2.056   3.791 -1.3660  1.8023 -1.7870
38116SOL    HW226328  13.590   2.025   3.643  0.9602 -2.2065 -0.9742
38117SOL     OW26329   5.760   7.018   9.226  0.5690 -0.3001  0.0840
38117SOL    HW126330   5.742   6.924   9.215 -0.9661 -0.1686  1.1035
38117SOL    HW226331   5.771   7.029   9.320 -0.9946  0.7959  0.1691
38118SOL     OW26332   7.798  13.723  12.202  0.2551  0.2359  0.2931
38118SOL    HW126333   7.860  13.781  12.158 -1.0852  1.8499  0.4080
38118SOL    HW226334   7.842  13.697  12.283  1.4108 -0.0213 -0.3922
38119SOL     OW26335   9.338   4.676   1.314  0.3462 -0.0120  0.0972
38119SOL    HW126336   9.338   4.603   1.252  0.7735 -0.4835  0.6420
38119SOL    HW226337   9.430   4.704   1.317  0.2209  0.4232  0.0506
38120SOL     OW26338  10.700   7.571   1.154  0.0047 -0.1961  0.2524
38120SOL    HW126339  10.625   7.624   1.183  0.6383  0.3008  1.0339
38120SOL    HW226340  10.681   7.551   1.063 -1.3546 -0.5602  0.5844
38121SOL     OW26341   2.460   2.903   8.588  0.0619 -0.7133  0.1670
38121SOL    HW126342   2.497   2.909   8.676 -1.0731 -1.1467  0.6827
38121SOL    HW226343   2.453   2.994   8.558 -0.9530 -0.4669  1.1194
38122SOL     OW26344   5.164  12.120   6.814 -0.3465  0.6751  0.3277
38122SOL    HW126345   5.171  12.212   6.789 -1.0129  0.6463  0.0238
38122SOL    HW226346   5.088  12.088   6.766 -0.5038  0.1266  0.9348
38123SOL     OW26347   2.920   2.445   4.779 -0.1516 -0.3906  0.1845
38123SOL    HW126348   2.896   2.470   4.690  0.4992 -0.9713 -0.1591
38123SOL    HW226349   2.957   2.524   4.818  1.6307 -0.7038 -0.7978
38124SOL     OW26350   6.340   6.329   1.488 -0.2104  0.0343 -0.0763
38124SOL    HW126351   6.354   6.265   1.418  0.5292  0.0888  0.0159
38124SOL    HW226352   6.347   6.277   1.568  1.6110  0.3979  0.0578
38125SOL     OW26353   1.877  11.909  10.897 -0.7340  0.1517 -0.1313
38125SOL    HW126354   1.855  11.998  10.871 -3.0408 -0.3379 -0.0519
38125SOL    HW226355   1.902  11.866  10.815  0.2502  0.7942 -0.1893
38126SOL     OW26356  11.230  12.763  11.129  0.5501  0.4473  0.4193
38126SOL    HW126357  11.324  12.749  11.139  0.4836 -1.7210 -1.1727
38126SOL    HW226358  11.222  12.829  11.061  0.9104  0.9851  0.8930
38127SOL     OW26359   1.505  12.370   7.996  0.4518 -0.3733  0.5961
38127SOL    HW126360   1.424  12.348   7.951  1.3741 -0.6125 -1.0149
38127SOL    HW226361   1.477  12.427   8.068 -1.2375 -1.2881  0.7219
38128SOL     OW26362   8.680   1.955   6.830  0.5424 -0.8495 -0.7807
38128SOL    HW126363   8.774   1.938   6.836  0.4218 -1.5076 -0.6863
38128SOL    HW226364   8.639   1.868   6.830 -0.2445 -0.5995  2.1846
38129SOL     OW26365   6.032   5.234   2.044  0.0874 -0.4394 -0.2040
38129SOL    HW126366   6.048   5.326   2.025 -1.1912 -0.0830  0.3946
38129SOL    HW226367   6.000   5.232   2.134 -1.1514 -1.3102 -0.6267
38130SOL     OW26368   1.135   7.512   9.589 -0.3225 -0.3026  0.9952
38130SOL    HW126369   1.225   7.489   9.567 -0.1983 -0.2821  1.4534
38130SOL    HW226370   1.129   7.606   9.571 -0.7588 -0.6237 -0.6397
38131SOL     OW26371   8.778   3.503   6.747  0.1698 -0.8546  0.3808
38131SOL    HW126372   8.868   3.491   6.715  0.5025 -2.9265  1.8501
38131SOL    HW226373   8.776   3.455   6.830 -2.5583 -1.7652 -0.1157
38132SOL     OW26374   1.038   3.598   5.001  0.4441 -0.0236 -0.4311
38132SOL    HW126375   1.095   3.571   4.929  0.7541  0.3232 -0.3164
38132SOL    HW226376   1.082   3.674   5.039  0.9997 -1.0156  0.9994
38133SOL     OW26377  13.265   9.112   0.793  0.6782  0.5513 -0.2196
38133SOL    HW126378  13.217   9.186   0.830 -0.1350  1.3985 -2.7627
38133SOL    HW226379  13.357   9.133   0.808  0.4070  0.4757  1.8657
38134SOL     OW26380   8.899   3.183  12.175 -0.6621  0.7199  0.3275
38134SOL    HW126381   8.901   3.223  12.262 -1.1784  1.5054 -0.0115
38134SOL    HW226382   8.988   3.193  12.141  0.1148 -1.3551  1.5126
38135SOL     OW26383  10.271   4.245  10.981 -0.0832 -0.3362  0.0756
38135SOL    HW126384  10.351   4.296  10.993  0.1543 -0.3742 -1.2405
38135SOL    HW226385  10.206   4.288  11.037  0.7755 -0.1592  0.9646
38136SOL     OW26386   4.302  10.701   6.576 -0.3899  0.2075  0.2785
38136SOL    HW126387   4.294  10.684   6.670  0.1264 -0.4542  0.2116
38136SOL    HW226388   4.393  10.680   6.556 -0.7127 -0.4795 -0.5257
38137SOL     OW26389   5.217   5.473   9.213 -0.4091 -0.0524  0.0128
38137SOL    HW126390   5.175   5.550   9.174 -1.2882 -0.6834 -0.3095
38137SOL    HW226391   5.179   5.467   9.301 -2.9898 -2.0480 -1.0972
38138SOL     OW26392   1.456   6.086   7.676  0.6608 -0.1709 -0.1158
38138SOL    HW126393   1.543   6.119   7.655  0.3342  0.7945  0.0243
38138SOL    HW226394   1.447   6.008   7.621  2.3142 -1.3773  1.2081
38139SOL     OW26395   5.861   8.895  11.385 -0.2925 -0.2129  0.0875
38139SOL    HW126396   5.801   8.859  11.451  1.2851 -1.2769  0.9883
38139SOL    HW226397   5.882   8.821  11.329  1.9930 -0.4743  1.1965
38140SOL     OW26398   2.374   2.486   0.205  0.4752 -0.4736 -0.2750
38140SOL    HW126399   2.341   2.433   0.132  1.5817 -1.6821  0.0408
38140SOL    HW226400   2.446   2.433   0.241  0.8555  0.7385  0.8125
38141SOL     OW26401   2.858   6.882   1.465 -0.4540  0.3251 -0.1005
38141SOL    HW126402   2.848   6.790   1.441  0.7502  0.5279 -1.5250
38141SOL    HW226403   2.839   6.885   1.559  1.4963 -1.7350  0.4438
38142SOL     OW26404   1.079   5.738   0.410 -0.1585  0.2553 -0.0097
38142SOL    HW126405   1.156   5.796   0.413  0.1848 -0.1401 -1.0476
38142SOL    HW226406   1.115   5.650   0.410 -0.6166  0.0646 -0.4037
38143SOL     OW26407   6.984   8.133  12.738 -0.1995  0.3763 -0.5021
38143SOL    HW126408   7.030   8.172  12.812 -0.4684 -0.4875  0.1249
38143SOL    HW226409   7.051   8.084  12.690 -0.2073  0.1896 -0.3215
38144SOL     OW26410   7.007   2.633   9.592 -0.0529 -0.3882  0.5286
38144SOL    HW126411   7.088   2.582   9.598  0.5891  0.3258 -1.2349
38144SOL    HW226412   6.945   2.575   9.549 -0.5098 -0.9277  1.8606
38145SOL     OW26413   5.264   9.515   2.942 -0.3304 -0.1172  0.0286
38145SOL    HW126414   5.225   9.571   3.010 -0.1197  1.4833 -1.1043
38145SOL    HW226415   5.342   9.562   2.914  0.3593 -1.4497 -0.3599
38146SOL     OW26416   9.314   2.770   2.209 -0.1192 -0.1167 -0.0970
38146SOL    HW126417   9.335   2.739   2.120  0.2972  3.8567 -1.5924
38146SOL    HW226418   9.239   2.829   2.196  0.6651  1.4307  1.9866
38147SOL     OW26419   4.904   1.422   1.308  0.1157 -0.1013  0.0235
38147SOL    HW126420   4.822   1.392   1.347 -0.3562  2.3877  1.1960
38147SOL    HW226421   4.877   1.477   1.235  0.8929 -1.6732 -1.4918
38148SOL     OW26422   4.045   2.408   7.284 -0.3118  0.0465 -0.6098
38148SOL    HW126423   4.013   2.393   7.373  0.6543 -0.3697 -0.3090
38148SOL    HW226424   3.984   2.360   7.228 -0.3217 -0.5826 -0.0776
38149SOL     OW26425   3.910  13.634   2.307  0.0166  0.2153 -0.0318
38149SOL    HW126426   3.887  13.565   2.244  0.6309 -0.6212  0.6254
38149SOL    HW226427   3.845  13.702   2.293  0.2541  0.1427 -1.7034
38150SOL     OW26428  10.223  12.794  13.347  0.3306  0.5523  1.1615
38150SOL    HW126429  10.198  12.870  13.295 -0.3472 -0.7558 -0.5245
38150SOL    HW226430  10.169  12.799  13.425 -0.6776  1.0980  0.4479
38151SOL     OW26431  10.816   8.599   7.802  0.1289  0.0910 -0.4017
38151SOL    HW126432  10.765   8.553   7.869  1.8619 -0.6860  0.4625
38151SOL    HW226433  10.905   8.566   7.814  0.7828  1.1455 -2.0620
38152SOL     OW26434   4.196   7.200   7.184  0.1167 -0.1765  0.4829
38152SOL    HW126435   4.162   7.276   7.137  0.3204  0.4500  1.3463
38152SOL    HW226436   4.132   7.183   7.253 -1.2829 -2.3631 -1.2037
38153SOL     OW26437   9.038   7.022   7.568 -0.1381  0.2310 -0.6259
38153SOL    HW126438   9.103   6.952   7.580  0.6825  0.7607 -1.7919
38153SOL    HW226439   8.982   6.990   7.497 -0.2139  0.4461 -0.6621
38154SOL     OW26440  10.606   6.834  11.031  0.3404 -0.5822  0.5564
38154SOL    HW126441  10.552   6.908  11.059  0.4787 -0.1222 -0.3391
38154SOL    HW226442  10.682   6.837  11.089  1.6768  1.6582 -1.1218
38155SOL     OW26443  10.304   3.547  13.183  0.2534  0.2228 -0.0627
38155SOL    HW126444  10.254   3.518  13.106  1.6393 -0.3603 -0.7949
38155SOL    HW226445  10.276   3.487  13.253 -1.1510  0.8684 -0.0338
38156SOL     OW26446   3.270   4.337  10.051 -0.3054  0.2068  0.2875
38156SOL    HW126447   3.312   4.276   9.990  0.0382  0.2305  0.4957
38156SOL    HW226448   3.314   4.321  10.134  1.7205  2.5815 -0.2107
38157SOL     OW26449   8.949  12.702   1.920  0.4975 -0.7110  0.0925
38157SOL    HW126450   8.982  12.788   1.948 -1.1291  0.2630 -0.7686
38157SOL    HW226451   8.986  12.690   1.832  1.3962 -1.3132  0.5368
38158SOL     OW26452   1.280   9.622   2.661  0.2645  0.3368  0.5461
38158SOL    HW126453   1.353   9.575   2.620 -2.4461 -1.3339 -2.8735
38158SOL    HW226454   1.253   9.567   2.734 -0.6652 -1.8126 -1.3074
38159SOL     OW26455   7.809   2.814   0.681  0.4526 -0.1485 -0.2294
38159SOL    HW126456   7.727   2.764   0.685 -0.6396  1.5283 -0.4339
38159SOL    HW226457   7.868   2.759   0.630  0.2227 -2.3693  1.7338
38160SOL     OW26458   8.334   0.064   6.562  0.3769 -0.2613  0.0229
38160SOL    HW126459   8.246   0.084   6.528  0.2155 -0.8934  0.0544
38160SOL    HW226460   8.361   0.145   6.606 -0.5452 -0.3272  0.7493
38161SOL     OW26461   8.692   9.577   2.249 -0.0054  0.8447 -0.6672
38161SOL    HW126462   8.599   9.592   2.229 -0.0192  1.1329 -0.4000
38161SOL    HW226463   8.711   9.492   2.211 -1.1464 -0.5932  1.7095
38162SOL     OW26464   8.659   0.954   1.200 -0.9010 -0.0865 -0.9667
38162SOL    HW126465   8.623   0.983   1.283 -1.4862 -0.9678 -0.9023
38162SOL    HW226466   8.621   1.014   1.135 -2.0157 -0.6106 -0.8237
38163SOL     OW26467   6.546   3.005   5.320 -0.6478  0.0080  0.4831
38163SOL    HW126468   6.596   3.067   5.374 -2.1484  1.7991 -0.0542
38163SOL    HW226469   6.610   2.964   5.263  0.4512  0.7877  1.1292
38164SOL     OW26470  10.046   5.960   8.685  0.4552 -0.1637 -0.4227
38164SOL    HW126471  10.062   5.878   8.731 -0.7433 -0.1916 -0.0148
38164SOL    HW226472   9.981   5.939   8.619 -0.7175  0.6620  0.4252
38165SOL     OW26473  10.222   0.722  13.085 -0.0415 -0.2106  0.4910
38165SOL    HW126474  10.188   0.752  13.169 -0.9612  0.5200 -0.1197
38165SOL    HW226475  10.317   0.730  13.093 -0.1417  0.2119  1.3216
38166SOL     OW26476   9.626   2.582  10.418  0.9076 -0.0510 -0.0264
38166SOL    HW126477   9.658   2.549  10.334 -0.4857 -1.5826  0.0011
38166SOL    HW226478   9.541   2.620  10.398  0.9365  0.3375  0.5632
38167SOL     OW26479   8.154   1.258   1.931  0.2619 -0.2524  0.1049
38167SOL    HW126480   8.163   1.165   1.953  0.9916  0.0120  1.0030
38167SOL    HW226481   8.137   1.301   2.014 -1.9328  0.2443 -0.5341
38168SOL     OW26482   6.673   6.056   1.307 -0.5532 -0.6186 -0.1296
38168SOL    HW126483   6.632   6.040   1.223 -1.5918 -0.8680  0.4080
38168SOL    HW226484   6.640   5.987   1.364  0.0188 -0.3673  0.5235
38169SOL     OW26485   5.962   3.535   5.385 -0.0480  0.2060  0.7092
38169SOL    HW126486   5.892   3.478   5.417 -1.8101  1.5267 -0.5652
38169SOL    HW226487   5.960   3.610   5.445  0.7180 -0.0367  1.0430
38170SOL     OW26488  10.369   3.263   1.297  0.5284  0.3634  0.1731
38170SOL    HW126489  10.463   3.251   1.312  0.3207  0.0605  1.3577
38170SOL    HW226490  10.334   3.284   1.384 -0.9108 -2.2216  0.3292
38171SOL     OW26491   1.032  13.117   9.834 -0.4275  0.6524 -0.2816
38171SOL    HW126492   0.945  13.102   9.796 -0.2890  0.2946 -0.4699
38171SOL    HW226493   1.082  13.040   9.807 -0.5509 -0.0305  1.3159
38172SOL     OW26494   2.120   6.556   0.870 -0.4009  0.6493  0.3940
38172SOL    HW126495   2.200   6.603   0.894 -1.2845  1.4246  1.9761
38172SOL    HW226496   2.100   6.587   0.781 -0.5132  2.7000  1.0771
38173SOL     OW26497  12.505  10.207   3.188 -0.2212 -0.4987 -0.3149
38173SOL    HW126498  12.565  10.160   3.131  0.7064 -1.3795  1.3217
38173SOL    HW226499  12.452  10.139   3.229 -0.5427  0.0631  0.2337
38174SOL     OW26500  13.298  11.971  12.299 -0.1522 -0.2429 -0.0469
38174SOL    HW126501  13.229  12.037  12.287 -0.3227 -0.4771 -0.3500
38174SOL    HW226502  13.380  12.020  12.291 -0.2663 -0.1814 -0.9948
38175SOL     OW26503   6.776   0.363   0.769  0.0315  0.8299  0.7457
38175SOL    HW126504   6.746   0.382   0.680 -1.4015  1.5502  1.3393
38175SOL    HW226505   6.745   0.275   0.786  0.2980  0.6949  0.5493
38176SOL     OW26506   3.946   8.050   7.819  0.6820  0.4246  0.1981
38176SOL    HW126507   4.011   7.982   7.800 -0.0383 -0.4517  0.7974
38176SOL    HW226508   3.892   8.013   7.890  1.8411  2.6348  2.3845
38177SOL     OW26509  13.388  10.253   1.230  0.0897 -0.2349 -0.1126
38177SOL    HW126510  13.363  10.167   1.264  0.5362 -0.5058 -0.4553
38177SOL    HW226511  13.306  10.290   1.195 -0.3030 -0.0971  0.9253
38178SOL     OW26512   5.403   9.886  11.144 -0.0972  0.3160 -0.2882
38178SOL    HW126513   5.408   9.790  11.149  2.0764  0.3797 -0.4795
38178SOL    HW226514   5.341   9.910  11.213  1.1345 -1.1124  1.4100
38179SOL     OW26515  11.437   9.287   4.621 -0.0959  0.8439 -0.0921
38179SOL    HW126516  11.356   9.305   4.572 -0.4430  0.9402  0.5142
38179SOL    HW226517  11.417   9.313   4.711  1.1951  2.6046 -0.2494
38180SOL     OW26518  10.129   4.749   6.708  0.1075 -0.7474  0.1083
38180SOL    HW126519  10.038   4.728   6.689  0.6994 -0.8207 -3.3924
38180SOL    HW226520  10.134   4.844   6.698  0.6598 -0.9043 -1.3705
38181SOL     OW26521  12.133   1.456   0.096 -0.1424 -0.1262 -0.4381
38181SOL    HW126522  12.076   1.533   0.101  0.3795  0.2665 -0.4180
38181SOL    HW226523  12.178   1.465   0.012 -0.1848 -0.4833 -0.4997
38182SOL     OW26524   8.557  10.075  12.234 -0.3725  0.4047 -0.1808
38182SOL    HW126525   8.507  10.155  12.217 -0.4481  0.3100 -0.4042
38182SOL    HW226526   8.557  10.028  12.151  2.2402  1.5713 -0.9405
38183SOL     OW26527   0.206   2.244   0.560 -0.3827  0.1392  0.3003
38183SOL    HW126528   0.268   2.222   0.630 -1.4382  2.7071  2.2007
38183SOL    HW226529   0.123   2.259   0.606 -1.6306 -0.0423 -1.7898
38184SOL     OW26530   1.139  12.679   0.010 -0.3142 -0.2306 -0.3559
38184SOL    HW126531   1.092  12.624   0.072 -0.3246 -0.9170 -0.9550
38184SOL    HW226532   1.225  12.692   0.050 -1.1365  1.4551  0.9811
38185SOL     OW26533  11.733  12.929  10.385  0.4832 -0.7703 -0.3477
38185SOL    HW126534  11.823  12.897  10.384  0.7084 -0.1364 -0.7100
38185SOL    HW226535  11.736  13.011  10.337  0.3618  1.0191  2.5008
38186SOL     OW26536   7.951   9.737  13.282  0.1520  0.6538  0.0451
38186SOL    HW126537   7.963   9.823  13.242 -1.6372  0.8523 -0.1803
38186SOL    HW226538   7.860   9.738  13.312  0.2868 -0.9351  0.5901
38187SOL     OW26539   9.458   3.610  11.597  0.1249 -0.5842 -0.1751
38187SOL    HW126540   9.536   3.614  11.541  1.6197  0.6956  1.8255
38187SOL    HW226541   9.462   3.691  11.648 -2.0510 -0.9322  0.6507
38188SOL     OW26542   5.757   7.976   2.407  0.3547  0.1980 -0.4603
38188SOL    HW126543   5.732   7.956   2.317 -3.0048  1.1964  0.0991
38188SOL    HW226544   5.756   8.071   2.412 -1.5158  0.1606  1.0270
38189SOL     OW26545   2.240   4.460  12.388  0.2650  0.4478  0.5818
38189SOL    HW126546   2.324   4.422  12.361  0.2811  0.6067  0.4149
38189SOL    HW226547   2.232   4.434  12.480 -0.7178 -1.7983 -0.0526
38190SOL     OW26548  10.203   3.997  10.845 -0.2464 -0.3505 -0.1864
38190SOL    HW126549  10.211   3.965  10.935  0.8637 -1.7089 -0.7097
38190SOL    HW226550  10.184   4.090  10.853  1.7501 -0.0028  1.4917
38191SOL     OW26551   5.683   8.631  10.691  0.2235  0.0175 -0.3324
38191SOL    HW126552   5.626   8.577  10.637  0.2390 -0.4119  0.0751
38191SOL    HW226553   5.640   8.717  10.693  0.0558 -0.0550 -0.7523
38192SOL     OW26554   0.879   2.721   7.697  0.6342 -0.8342 -0.5185
38192SOL    HW126555   0.919   2.706   7.611  0.8830  0.0480 -0.5701
38192SOL    HW226556   0.925   2.798   7.731  0.7709 -1.3789  0.5553
38193SOL     OW26557   2.746   4.824   7.216 -0.1027  0.3760  0.5678
38193SOL    HW126558   2.668   4.778   7.184  0.1720  1.5029 -1.9557
38193SOL    HW226559   2.819   4.781   7.172  0.2273  2.4883 -1.1107
38194SOL     OW26560   7.619   0.507  12.046  0.0499  0.3490  0.1087
38194SOL    HW126561   7.665   0.544  11.970 -0.5856  2.0968  0.5383
38194SOL    HW226562   7.679   0.521  12.119  1.7866 -3.5326 -0.2979
38195SOL     OW26563  12.727   4.600   3.249 -0.2206  0.6770 -0.0118
38195SOL    HW126564  12.675   4.522   3.228  2.5874 -1.0479 -1.0326
38195SOL    HW226565  12.712   4.659   3.175  0.0198 -0.2081 -0.7879
38196SOL     OW26566  11.150   6.810  12.661  0.1093 -0.3298 -0.0041
38196SOL    HW126567  11.180   6.784  12.574 -1.8643 -0.9580 -0.5465
38196SOL    HW226568  11.097   6.736  12.691 -0.7580  0.6394  0.9350
38197SOL     OW26569   7.891   5.770   2.001  0.4319 -0.3804 -0.5644
38197SOL    HW126570   7.867   5.782   1.910  0.3245  0.4941 -0.4252
38197SOL    HW226571   7.821   5.716   2.038  1.9707 -3.4415 -1.7021
38198SOL     OW26572   2.360   8.930  10.566 -0.1307  0.1982  0.1293
38198SOL    HW126573   2.305   8.994  10.521 -0.1585 -0.2529 -0.4878
38198SOL    HW226574   2.301   8.886  10.627  0.1418  1.5749  1.4469
38199SOL     OW26575   9.881  11.675  13.851  0.0585 -0.7444  0.6641
38199SOL    HW126576   9.884  11.579  13.844 -0.3940 -0.8248  1.4446
38199SOL    HW226577   9.796  11.694  13.890  0.4419 -0.0722  1.2053
38200SOL     OW26578  12.140   4.055   5.986 -0.2385  0.3412  1.0353
38200SOL    HW126579  12.116   4.138   5.945  0.2946  0.4758  0.9817
38200SOL    HW226580  12.203   4.079   6.054  1.0052 -0.1393  0.0983
38201SOL     OW26581  10.370   0.072  12.208  0.5936 -0.0485 -0.6610
38201SOL    HW126582  10.364  -0.020  12.184 -0.5480 -0.5123  1.2327
38201SOL    HW226583  10.320   0.118  12.140  0.1627 -0.9416 -0.9583
38202SOL     OW26584  13.964   4.454  12.388 -0.1999  0.2106 -0.0096
38202SOL    HW126585  13.886   4.506  12.370 -0.6051  0.0431  1.2019
38202SOL    HW226586  13.957   4.379  12.329 -0.4485  0.6844 -0.5910
38203SOL     OW26587  13.423  11.957  11.838  0.1373 -0.5395 -0.0030
38203SOL    HW126588  13.394  11.994  11.755 -0.2451  1.1364  0.8335
38203SOL    HW226589  13.413  11.863  11.827  0.6377 -0.4131 -2.0515
38204SOL     OW26590  12.114   4.000  13.103  0.0133 -0.5462 -0.0464
38204SOL    HW126591  12.128   4.074  13.162  0.7822 -0.8027  0.1111
38204SOL    HW226592  12.019   3.987  13.102 -0.1114  0.3269  0.0525
38205SOL     OW26593  11.007   1.352   8.636  0.4346  0.2636  0.7030
38205SOL    HW126594  11.030   1.262   8.616 -1.3384 -0.2854  0.9607
38205SOL    HW226595  10.920   1.347   8.676  0.3055  2.0775  0.7660
38206SOL     OW26596   2.272   3.231   3.620  0.6612 -0.1501  0.3180
38206SOL    HW126597   2.198   3.288   3.638  1.5505  0.9462  0.6149
38206SOL    HW226598   2.233   3.145   3.601 -0.7227  0.6374 -0.5383
38207SOL     OW26599   3.235   0.342   1.502 -0.2052  0.2702  0.5285
38207SOL    HW126600   3.193   0.363   1.418  0.0859 -1.5356 -0.1020
38207SOL    HW226601   3.319   0.387   1.498 -0.8446  1.5061  0.5529
38208SOL     OW26602   7.819   3.454   5.606  0.3616  0.0739  1.2679
38208SOL    HW126603   7.863   3.440   5.690  2.1592  2.7912  0.8832
38208SOL    HW226604   7.842   3.543   5.581 -0.8477 -0.3430 -1.7190
38209SOL     OW26605   0.537   5.897   7.857 -0.2812 -0.0221  0.3666
38209SOL    HW126606   0.468   5.930   7.914 -1.1117  1.7727 -1.5289
38209SOL    HW226607   0.602   5.968   7.855 -0.2452 -0.0665 -0.8191
38210SOL     OW26608   1.466   9.653  12.702  0.1930  0.2691 -0.2042
38210SOL    HW126609   1.548   9.655  12.652 -0.9308 -0.7895 -2.2185
38210SOL    HW226610   1.427   9.568  12.681 -2.2953  1.4663 -0.7937
38211SOL     OW26611  13.201   1.194   4.784  0.2867 -0.2917 -0.1621
38211SOL    HW126612  13.276   1.195   4.724 -0.5654 -0.2912 -1.2367
38211SOL    HW226613  13.151   1.271   4.762 -0.4452 -0.7060  0.0287
38212SOL     OW26614   8.354   9.810   5.312  0.5378  0.0087 -0.3771
38212SOL    HW126615   8.341   9.841   5.401 -0.6307 -1.4528 -0.0084
38212SOL    HW226616   8.449   9.807   5.301  0.6876  0.3969  0.7328
38213SOL     OW26617   2.391   6.586   3.023 -0.2479 -0.4037 -0.5380
38213SOL    HW126618   2.369   6.661   3.079 -2.3628 -1.6362  0.3750
38213SOL    HW226619   2.395   6.512   3.083 -0.1789 -1.3618 -1.6977
38214SOL     OW26620   7.038  10.456   7.803  0.0296  0.5265  0.2407
38214SOL    HW126621   7.025  10.411   7.886  1.3718  0.6957  0.5595
38214SOL    HW226622   6.951  10.490   7.780 -1.2409 -2.7230 -0.3388
38215SOL     OW26623   7.069   0.646   7.380 -0.0905  0.1034 -0.3085
38215SOL    HW126624   7.025   0.666   7.464  0.7122  1.6429 -0.2174
38215SOL    HW226625   7.067   0.729   7.333  1.7599 -0.0781 -0.7491
38216SOL     OW26626   7.125   6.893  13.613  0.1153  0.0870 -0.3561
38216SOL    HW126627   7.139   6.887  13.519  1.4455  2.4230 -0.3649
38216SOL    HW226628   7.049   6.950  13.622 -0.5806 -0.8666  0.0065
38217SOL     OW26629  13.124   5.543  11.877  0.1063  0.4851 -0.3009
38217SOL    HW126630  13.196   5.488  11.846  0.2540  0.2876  0.4004
38217SOL    HW226631  13.161   5.631  11.879 -0.3231  0.7573 -2.0778
38218SOL     OW26632   5.558   4.767   6.747 -0.2503 -0.0677  0.2111
38218SOL    HW126633   5.566   4.672   6.736 -1.0540 -0.3185  1.5735
38218SOL    HW226634   5.544   4.800   6.658  1.7101 -1.0227 -0.5109
38219SOL     OW26635   9.827   7.239   3.485 -0.0614  0.1736 -0.0017
38219SOL    HW126636   9.867   7.154   3.504  0.5851  0.5818  0.5633
38219SOL    HW226637   9.899   7.301   3.496 -0.6231  0.8332  0.0106
38220SOL     OW26638   7.896   7.218  12.792  0.2277 -0.3106  0.1109
38220SOL    HW126639   7.965   7.183  12.849 -0.0677 -2.0953 -0.5842
38220SOL    HW226640   7.859   7.142  12.748 -1.7390  0.6788 -0.0768
38221SOL     OW26641  13.691   9.129  11.405  0.2331  0.4872 -0.0855
38221SOL    HW126642  13.619   9.168  11.454  0.7785  1.2644  0.1062
38221SOL    HW226643  13.764   9.190  11.416  0.8861 -0.2271 -0.3848
38222SOL     OW26644   3.439   0.513  13.844 -0.5022  0.0261  0.4180
38222SOL    HW126645   3.522   0.558  13.858 -0.5977  1.8276 -3.4772
38222SOL    HW226646   3.458   0.420  13.860  1.8302  0.5812  1.1006
38223SOL     OW26647   2.443  12.299   8.556 -0.2418 -0.2528  0.0810
38223SOL    HW126648   2.400  12.347   8.627  1.0797 -1.8525  2.1025
38223SOL    HW226649   2.372  12.264   8.504 -1.2543  1.6413  0.0859
38224SOL     OW26650   3.350   5.532  13.928  0.2046 -0.4457  0.1127
38224SOL    HW126651   3.264   5.504  13.897  0.5278  0.1673 -1.4786
38224SOL    HW226652   3.398   5.450  13.942 -0.6958 -0.8003  1.2893
38225SOL     OW26653  12.338  13.847   0.409 -0.0671  0.7889  0.6954
38225SOL    HW126654  12.307  13.774   0.461  1.7397  0.0882  0.8620
38225SOL    HW226655  12.266  13.910   0.410 -2.4567 -1.6968 -1.0124
38226SOL     OW26656   1.738   0.909   6.193  0.1568 -0.2671  0.5053
38226SOL    HW126657   1.815   0.940   6.242  0.5274 -1.5472  0.7511
38226SOL    HW226658   1.695   0.990   6.164  1.4593  0.4838  0.5629
38227SOL     OW26659   6.272   2.235   0.350 -0.3177 -0.4758  0.1256
38227SOL    HW126660   6.355   2.211   0.309  0.3251  0.7148  0.6670
38227SOL    HW226661   6.221   2.276   0.280  1.1672  2.4661  0.6368
38228SOL     OW26662   1.023   6.243   5.093  0.3478  0.7862 -1.2048
38228SOL    HW126663   1.048   6.307   5.159 -0.7761  0.3014 -0.2542
38228SOL    HW226664   1.077   6.263   5.016  0.3206  2.5725 -0.7846
38229SOL     OW26665   0.482   8.075   8.946 -0.3225  0.5315 -0.0381
38229SOL    HW126666   0.520   8.021   9.015 -1.0528  1.6912  1.3289
38229SOL    HW226667   0.445   8.012   8.884  0.2302 -0.5487  0.6866
38230SOL     OW26668  12.916  10.299  14.007 -0.1585 -0.4291 -0.3634
38230SOL    HW126669  12.950  10.218  13.968 -0.7072 -0.1311 -1.4754
38230SOL    HW226670  12.840  10.322  13.953 -2.0102 -0.9133  1.8696
38231SOL     OW26671  13.474   7.814   5.679 -0.5991 -0.1495  0.2506
38231SOL    HW126672  13.486   7.724   5.711  1.2884  0.1602  0.5106
38231SOL    HW226673  13.562   7.851   5.678 -1.2779  1.5293 -0.4091
38232SOL     OW26674   5.413  11.321   8.914 -0.0727 -0.0756 -0.4575
38232SOL    HW126675   5.342  11.348   8.857  1.3358  1.4225 -1.5958
38232SOL    HW226676   5.379  11.332   9.003 -1.3027  0.4075 -0.9762
38233SOL     OW26677   2.058   2.375   3.408  0.1407 -0.0170  0.4512
38233SOL    HW126678   2.054   2.283   3.435 -1.0824  0.9017  3.9653
38233SOL    HW226679   1.995   2.381   3.336  0.6786 -2.0096 -0.2644
38234SOL     OW26680   4.407   5.665   8.669  0.1713  0.1181 -0.2851
38234SOL    HW126681   4.485   5.617   8.697 -0.4947 -0.1025  1.2993
38234SOL    HW226682   4.428   5.757   8.685  0.0504  0.0451  0.3057
38235SOL     OW26683   7.116  12.502   0.753 -0.6246  0.0397  0.5458
38235SOL    HW126684   7.196  12.539   0.716 -0.7401  1.5313  1.6840
38235SOL    HW226685   7.070  12.463   0.678  0.0412  1.2624 -0.5345
38236SOL     OW26686   8.043   0.312   7.761 -0.5506  0.0532  0.6928
38236SOL    HW126687   8.105   0.242   7.741  0.3957  1.5919 -2.2740
38236SOL    HW226688   7.958   0.277   7.734 -0.0004  0.1576 -1.3804
38237SOL     OW26689   1.983  10.612   3.904 -0.0024  0.1102  0.9058
38237SOL    HW126690   1.929  10.585   3.979  0.0957 -0.5094  0.7581
38237SOL    HW226691   1.945  10.566   3.830  1.0889 -0.8060  0.8950
38238SOL     OW26692   1.064   6.778   3.079 -0.0697 -0.1418  0.1452
38238SOL    HW126693   1.034   6.698   3.124 -0.2681  0.2339  0.6986
38238SOL    HW226694   1.160   6.775   3.087  0.0007 -0.9181 -0.8788
38239SOL     OW26695  13.225  11.664  12.813 -0.1798  0.9331 -0.1776
38239SOL    HW126696  13.186  11.745  12.844 -0.4276  1.2904 -1.3460
38239SOL    HW226697  13.313  11.688  12.786  0.6563  0.2668  1.8189
38240SOL     OW26698   9.188  12.359   9.111  0.2053 -0.0191  0.0486
38240SOL    HW126699   9.131  12.409   9.053 -0.3381 -1.2091 -0.4566
38240SOL    HW226700   9.160  12.384   9.199  0.0518  0.6762 -0.1910
38241SOL     OW26701   6.719   4.106   8.663  0.0834  0.0032 -0.5367
38241SOL    HW126702   6.662   4.028   8.657 -1.8041  1.2531  0.1890
38241SOL    HW226703   6.660   4.179   8.645  1.6667  1.3358 -0.4802
38242SOL     OW26704  12.437   3.277   2.650  0.0509  0.0436 -0.7574
38242SOL    HW126705  12.485   3.356   2.676  1.0112 -0.9027  0.5160
38242SOL    HW226706  12.504   3.221   2.610  0.2607 -1.5965  1.6879
38243SOL     OW26707   1.279   6.227   8.574  0.1886  0.2740 -0.1845
38243SOL    HW126708   1.260   6.168   8.501  3.1284 -1.0637  0.0108
38243SOL    HW226709   1.347   6.286   8.541  2.5046 -1.1575  1.7166
38244SOL     OW26710   2.666   7.141   0.501  0.0593 -0.3148 -0.0332
38244SOL    HW126711   2.687   7.176   0.414  1.5683 -0.6504  0.1734
38244SOL    HW226712   2.631   7.054   0.483 -0.7064  0.0481 -0.3574
38245SOL     OW26713   6.829   3.786   2.530 -0.1480 -0.1485 -0.3703
38245SOL    HW126714   6.818   3.735   2.449  0.3153 -0.7676 -0.0451
38245SOL    HW226715   6.923   3.794   2.541 -0.1875 -0.7654  0.5354
38246SOL     OW26716   2.621   8.643  14.041 -0.0926 -0.3226  0.6343
38246SOL    HW126717   2.631   8.683  14.128  1.5614  0.1808  0.2534
38246SOL    HW226718   2.696   8.676  13.991 -1.7840  0.5390 -1.4577
38247SOL     OW26719  13.067  11.556  13.999 -0.0384  0.0901 -0.5890
38247SOL    HW126720  13.011  11.479  14.004  0.8212 -0.4384  1.9169
38247SOL    HW226721  13.127  11.538  13.927 -0.5979 -1.0136 -0.7947
38248SOL     OW26722   5.168  13.550  11.928 -0.0478  0.1463  0.3681
38248SOL    HW126723   5.090  13.556  11.984 -1.0501  1.2297 -1.0520
38248SOL    HW226724   5.167  13.459  11.896  0.1699 -0.2928  1.5504
38249SOL     OW26725   7.093   1.798   4.666  0.5116  0.3256 -0.0207
38249SOL    HW126726   7.055   1.710   4.661  1.5880 -0.1262 -3.8268
38249SOL    HW226727   7.020   1.854   4.692 -0.5440 -1.4969  1.1349
38250SOL     OW26728   5.308   8.714   4.872 -0.7323  0.4764 -0.1178
38250SOL    HW126729   5.237   8.673   4.921 -0.8960  1.3986  0.4493
38250SOL    HW226730   5.268   8.742   4.790 -1.2061  1.5793  0.4716
38251SOL     OW26731  12.932   8.484   1.921 -0.8182  0.2303  0.4491
38251SOL    HW126732  12.878   8.562   1.930 -0.6477  0.3955  0.0761
38251SOL    HW226733  13.022   8.517   1.922 -0.7652  0.1650 -0.8418
38252SOL     OW26734  11.920   7.245   2.820  0.1690  0.1477  0.3033
38252SOL    HW126735  11.949   7.336   2.817  0.8768 -0.0880 -0.5468
38252SOL    HW226736  11.826   7.250   2.839  0.0391  1.0806 -0.5183
38253SOL     OW26737   7.974   2.418   7.560  0.6839 -0.3600 -0.4583
38253SOL    HW126738   7.949   2.502   7.521 -1.7396 -1.3248 -1.1766
38253SOL    HW226739   7.923   2.412   7.641  2.8542 -0.0284  1.0028
38254SOL     OW26740  11.081   4.856   1.863 -0.6092  0.3185 -0.0253
38254SOL    HW126741  11.126   4.928   1.817  1.0723 -0.5463  0.1896
38254SOL    HW226742  11.104   4.778   1.812 -2.4081 -0.0977 -0.2434
38255SOL     OW26743   7.684   0.283  13.103  0.1116  0.3351 -0.5201
38255SOL    HW126744   7.596   0.305  13.133 -0.6139 -1.2937 -1.3532
38255SOL    HW226745   7.688   0.187  13.109  1.4099  0.2942 -1.6167
38256SOL     OW26746   1.116  11.001   8.617  0.4174  0.4358  0.1553
38256SOL    HW126747   1.024  10.978   8.631  0.4100  0.6859  0.5234
38256SOL    HW226748   1.144  10.944   8.544  0.5605 -1.1500  1.3935
38257SOL     OW26749   7.443   5.930  10.311  0.6047 -0.4520  0.5614
38257SOL    HW126750   7.446   5.881  10.394 -0.8530 -0.3362  0.7062
38257SOL    HW226751   7.422   5.865  10.245  1.8250 -0.5530  0.2626
38258SOL     OW26752   9.576   5.968   0.675  0.1661 -0.1561 -0.5468
38258SOL    HW126753   9.594   5.881   0.710 -1.4130 -0.7290 -1.1007
38258SOL    HW226754   9.595   5.961   0.581 -0.0892  0.0573 -0.6170
38259SOL     OW26755   8.394   4.816   6.787  0.2935  0.3123 -0.0012
38259SOL    HW126756   8.361   4.739   6.834  0.0195  0.4712  0.0689
38259SOL    HW226757   8.473   4.785   6.743  0.1562 -0.0229 -0.0152
38260SOL     OW26758   3.455   1.838   7.682  0.5356 -0.1379 -0.5981
38260SOL    HW126759   3.522   1.790   7.730  0.4110 -0.2627 -0.5504
38260SOL    HW226760   3.431   1.780   7.609  0.5735 -0.0376 -0.6920
38261SOL     OW26761   9.855   2.608   0.456  0.1749 -0.2535  0.1137
38261SOL    HW126762   9.807   2.600   0.374 -1.0272  2.5856  0.4035
38261SOL    HW226763   9.946   2.621   0.429 -0.1710  0.4290 -0.7715
38262SOL     OW26764   0.667   8.395   4.842 -0.5702 -0.1474 -0.3942
38262SOL    HW126765   0.623   8.311   4.856 -0.6295 -0.3942 -1.8345
38262SOL    HW226766   0.758   8.379   4.868 -0.8656 -0.2530  0.6090
38263SOL     OW26767  11.463  13.497  13.628  0.4158  0.5849  0.0112
38263SOL    HW126768  11.463  13.402  13.620  0.9410  0.5915 -0.0449
38263SOL    HW226769  11.400  13.515  13.699  0.8001  0.1616  0.4618
38264SOL     OW26770   5.039   2.594   0.375  0.1108  1.0377  0.2094
38264SOL    HW126771   5.027   2.687   0.353 -0.5207  0.7160 -0.8785
38264SOL    HW226772   5.054   2.551   0.291  0.6883  0.1867  0.7327
38265SOL     OW26773   6.682  14.003   7.564 -0.5392  0.0015 -0.2632
38265SOL    HW126774   6.742  14.073   7.590 -2.0933  2.4459 -2.7608
38265SOL    HW226775   6.739  13.934   7.529  0.9588  0.6471  0.7982
38266SOL     OW26776   7.922   9.930   0.435 -0.2150  0.1732 -0.2721
38266SOL    HW126777   7.974   9.859   0.396  0.6049  1.2340 -1.1770
38266SOL    HW226778   7.963  10.010   0.403 -2.4257  1.0850 -1.0642
38267SOL     OW26779   9.654  12.258  13.370  0.5153 -0.3084 -0.0981
38267SOL    HW126780   9.728  12.230  13.423  0.3679  0.1559  0.3663
38267SOL    HW226781   9.577  12.222  13.415  0.2970  1.0658  0.6965
38268SOL     OW26782  10.788  13.305   9.779  0.4161  0.2290  0.0282
38268SOL    HW126783  10.731  13.369   9.736  2.2114  0.3955 -2.3245
38268SOL    HW226784  10.764  13.221   9.740  1.0406  0.1524 -0.2075
38269SOL     OW26785   1.285   5.252  13.623  0.8753  0.3427  0.8278
38269SOL    HW126786   1.307   5.299  13.542  0.2063  1.2819  1.1815
38269SOL    HW226787   1.198   5.216  13.608  1.2204 -0.4642  0.7104
38270SOL     OW26788   6.833  13.778   7.441 -0.3998  0.0709  0.3620
38270SOL    HW126789   6.923  13.745   7.437 -0.1146  0.8925 -0.3703
38270SOL    HW226790   6.785  13.724   7.379 -0.0457  0.6658 -0.4525
38271SOL     OW26791   3.998  12.901   7.379 -0.3312 -0.1699  0.8559
38271SOL    HW126792   4.008  12.987   7.338  2.4692 -0.5468  0.5407
38271SOL    HW226793   3.929  12.858   7.329 -0.3656  1.1491 -0.2860
38272SOL     OW26794  10.561   6.383   6.393 -0.4746  0.3335 -0.5896
38272SOL    HW126795  10.646   6.373   6.349 -0.0766 -0.9820  0.3855
38272SOL    HW226796  10.522   6.295   6.388 -0.5870  0.2448  1.2754
38273SOL     OW26797   2.078   6.436   1.747  0.4057  0.0208  0.4178
38273SOL    HW126798   2.114   6.501   1.686 -0.0634  1.1731  1.3282
38273SOL    HW226799   2.068   6.357   1.694 -2.0476  1.5436 -1.6704
38274SOL     OW26800   9.247   6.248   5.006 -0.2946  0.1164 -0.4401
38274SOL    HW126801   9.305   6.199   4.948  0.0236  0.5775 -0.5196
38274SOL    HW226802   9.305   6.281   5.075 -0.7586 -0.9028  0.4635
38275SOL     OW26803   2.524   7.145  12.640  0.5641  0.4547  0.6791
38275SOL    HW126804   2.533   7.180  12.551  1.3476 -0.0150  0.5693
38275SOL    HW226805   2.441   7.181  12.671 -0.7473 -0.9483 -0.9755
38276SOL     OW26806   1.860   0.207  13.334 -0.4767 -0.3305  0.7362
38276SOL    HW126807   1.831   0.209  13.425  0.2311  0.9134  0.9605
38276SOL    HW226808   1.783   0.233  13.284 -0.7305 -0.5394  1.0114
38277SOL     OW26809  12.073  11.180   1.783  0.2713  0.0794  0.1057
38277SOL    HW126810  12.153  11.148   1.741  0.2816 -0.5472  0.5894
38277SOL    HW226811  12.061  11.122   1.859  0.7359  1.7320  1.4870
38278SOL     OW26812  13.482   1.810  12.687 -0.1667 -0.4859  0.1745
38278SOL    HW126813  13.540   1.861  12.630  0.4068  0.2266  1.3466
38278SOL    HW226814  13.477   1.724  12.645  0.0714  0.0661 -1.0402
38279SOL     OW26815   3.291  12.394  11.013  0.5529  0.4343  0.4078
38279SOL    HW126816   3.290  12.328  11.082  0.6879  0.1119  0.1049
38279SOL    HW226817   3.203  12.388  10.974  0.7525  0.0283  0.0057
38280SOL     OW26818   5.516   4.774   1.081 -0.5830 -0.1796  0.5551
38280SOL    HW126819   5.422   4.789   1.083 -0.6086 -0.1865 -0.3821
38280SOL    HW226820   5.538   4.766   0.989  0.0243 -2.1351  0.8209
38281SOL     OW26821   8.206   8.489  13.537  0.0534  0.5148 -0.1978
38281SOL    HW126822   8.246   8.568  13.502 -1.3829  1.7186  0.7297
38281SOL    HW226823   8.224   8.493  13.631  0.9885 -0.8997 -0.3002
38282SOL     OW26824   3.909   4.853  12.286  0.1141 -0.6003  0.1027
38282SOL    HW126825   3.821   4.887  12.271  0.1437 -1.0865 -1.2959
38282SOL    HW226826   3.967   4.917  12.245  0.4760 -0.0262  1.4409
38283SOL     OW26827   8.121   4.353   6.703  0.0337  0.4163  0.0853
38283SOL    HW126828   8.094   4.269   6.665 -0.0970  1.6354 -2.7571
38283SOL    HW226829   8.067   4.361   6.782 -1.6792 -1.1092 -0.8407
38284SOL     OW26830   0.993   5.715  12.786  0.0935 -0.7707  0.5441
38284SOL    HW126831   0.900   5.738  12.784  0.6778  1.9541  1.0521
38284SOL    HW226832   1.014   5.691  12.696 -1.2026 -1.9717  0.5421
38285SOL     OW26833   9.934  13.094   5.898  0.0613 -0.0162  0.2299
38285SOL    HW126834   9.904  13.032   5.831 -1.6791  1.2754 -0.2614
38285SOL    HW226835  10.030  13.092   5.890  0.0677 -2.3982  0.0675
38286SOL     OW26836  13.969   8.237   7.971 -0.2130 -0.2997 -0.4414
38286SOL    HW126837  14.063   8.221   7.981 -0.2402 -0.0473  0.3062
38286SOL    HW226838  13.960   8.331   7.984 -0.6905 -0.4742  0.5975
38287SOL     OW26839  12.262   1.151  10.028 -0.2569  0.0565 -0.4245
38287SOL    HW126840  12.305   1.221   9.979 -1.2377  1.3234  0.4611
38287SOL    HW226841  12.258   1.184  10.118 -2.5914 -0.1980 -0.3707
38288SOL     OW26842   2.779   1.583   5.001 -0.4538 -0.5302  0.2509
38288SOL    HW126843   2.734   1.667   4.991 -0.4635 -0.6054 -0.3847
38288SOL    HW226844   2.708   1.520   5.019 -0.5259 -0.5222  0.0003
38289SOL     OW26845  10.117   5.580   9.709  0.5791 -0.7423 -0.2340
38289SOL    HW126846  10.088   5.490   9.728 -0.2499 -0.6751 -1.1394
38289SOL    HW226847  10.039   5.633   9.726  0.9961 -0.2148  0.0369
38290SOL     OW26848   9.205  10.973   2.821 -0.1070 -0.9918 -0.8633
38290SOL    HW126849   9.274  11.039   2.811 -0.0085 -0.4419  2.2702
38290SOL    HW226850   9.245  10.892   2.791  1.2049 -0.3154 -1.0203
38291SOL     OW26851  10.076   4.970  11.919  0.6357  0.0169  0.6053
38291SOL    HW126852   9.983   4.989  11.932  0.8975  0.4007  2.1134
38291SOL    HW226853  10.098   4.908  11.988  1.3151 -0.7591 -0.2810
38292SOL     OW26854  12.072   5.364   9.284  0.2858  0.1381 -0.7969
38292SOL    HW126855  11.996   5.422   9.281  0.3157  0.2185 -0.0352
38292SOL    HW226856  12.087   5.348   9.377 -0.1739 -1.6813 -0.9913
38293SOL     OW26857   0.881   2.532   1.125  0.6574  0.2172  0.2005
38293SOL    HW126858   0.874   2.537   1.030 -0.5334 -0.6952  0.2132
38293SOL    HW226859   0.818   2.465   1.150  0.6065  0.7802  1.6844
38294SOL     OW26860   3.382   5.799   3.724  0.9193 -0.2956 -0.0479
38294SOL    HW126861   3.434   5.849   3.661 -0.9851 -1.3627 -2.6092
38294SOL    HW226862   3.368   5.860   3.796 -0.9202  2.8862 -2.7972
38295SOL     OW26863  10.957   4.615  13.637 -0.0007 -0.3944  0.5212
38295SOL    HW126864  11.011   4.624  13.558 -1.2388 -0.5471 -0.3700
38295SOL    HW226865  10.983   4.530  13.673 -0.2962 -0.9078 -0.4323
38296SOL     OW26866  10.375   2.491   0.276  0.2497 -0.0902  0.0417
38296SOL    HW126867  10.322   2.555   0.229  0.1938  0.0535  0.2999
38296SOL    HW226868  10.433   2.454   0.209 -0.1289 -0.2018 -0.2266
38297SOL     OW26869  10.575   3.512   6.930  0.1831  0.7159 -0.1957
38297SOL    HW126870  10.577   3.493   7.024 -1.4572 -1.0294 -0.4501
38297SOL    HW226871  10.553   3.605   6.925  1.7851  1.2167  1.1166
38298SOL     OW26872   7.797   2.662   8.820 -0.3337  0.2365  0.2839
38298SOL    HW126873   7.860   2.591   8.807  1.2007  1.4398  0.9775
38298SOL    HW226874   7.800   2.711   8.738 -0.7354  0.0449  0.1473
38299SOL     OW26875   6.566   8.864   1.137  0.1671 -0.7430 -0.2256
38299SOL    HW126876   6.653   8.826   1.148  0.3650 -0.4407 -0.7004
38299SOL    HW226877   6.577   8.955   1.165  0.2110 -0.4835 -1.0610
38300SOL     OW26878   7.850   2.330  13.150  0.1113 -0.3353 -0.2243
38300SOL    HW126879   7.916   2.265  13.125  0.9824  0.2528  0.4847
38300SOL    HW226880   7.791   2.283  13.210  2.1997  0.1300  2.3631
38301SOL     OW26881   3.772  13.329  10.237 -0.0995 -0.0673 -0.4799
38301SOL    HW126882   3.724  13.256  10.199  1.1600 -1.2132  0.0326
38301SOL    HW226883   3.720  13.357  10.312 -0.5386 -0.5020 -0.6215
38302SOL     OW26884   1.606  13.400   8.056 -0.1449  0.6230 -0.1585
38302SOL    HW126885   1.592  13.372   7.965 -0.3734 -1.1944  0.4037
38302SOL    HW226886   1.603  13.496   8.051 -2.4176  0.5743 -1.7390
38303SOL     OW26887  11.201   3.703   7.605 -0.1186  0.0968 -0.4493
38303SOL    HW126888  11.265   3.773   7.616 -0.9144  0.7452  0.2523
38303SOL    HW226889  11.248   3.624   7.631  0.5830  0.4714 -0.5465
38304SOL     OW26890   3.876   3.225   0.249  0.1790 -0.5718  0.1221
38304SOL    HW126891   3.783   3.200   0.249 -0.2832  1.0186  1.0409
38304SOL    HW226892   3.883   3.289   0.178  1.0934 -2.3099 -1.4258
38305SOL     OW26893   8.307   9.600   0.285  0.6886  0.1587 -0.2879
38305SOL    HW126894   8.244   9.607   0.214  0.1783 -0.2325  0.1201
38305SOL    HW226895   8.392   9.594   0.242  0.5225  1.4865 -0.8205
38306SOL     OW26896   4.793  10.458   8.559 -0.2147  0.2340 -0.4709
38306SOL    HW126897   4.864  10.522   8.564  0.4335 -0.5546  1.2439
38306SOL    HW226898   4.749  10.464   8.644  0.1315 -1.8678 -0.0888
38307SOL     OW26899   7.864   1.350   7.907  0.3707  0.2428 -0.1699
38307SOL    HW126900   7.825   1.357   7.994  1.4424 -1.0490  0.4460
38307SOL    HW226901   7.801   1.393   7.849 -0.1370  1.5393  1.2888
38308SOL     OW26902   2.503  10.668   4.135  0.1915  0.3498 -0.5601
38308SOL    HW126903   2.571  10.608   4.165 -1.2257 -1.4782 -0.8644
38308SOL    HW226904   2.436  10.612   4.096 -0.3285  2.2585 -2.6610
38309SOL     OW26905   8.611   0.865   5.010  0.1858  0.3111  0.4622
38309SOL    HW126906   8.564   0.940   4.974  1.7973  0.7623 -0.7783
38309SOL    HW226907   8.570   0.789   4.969 -0.3914  0.5915  0.5074
38310SOL     OW26908   1.706   7.135  13.537  0.2920  0.2345  0.2667
38310SOL    HW126909   1.726   7.229  13.543  2.1873 -0.1522  0.6190
38310SOL    HW226910   1.718   7.114  13.444  0.1526  0.2767  0.2384
38311SOL     OW26911   4.166  13.145   0.394 -0.3338 -0.5105  0.0492
38311SOL    HW126912   4.222  13.089   0.449 -1.4618 -0.9462  0.7797
38311SOL    HW226913   4.163  13.099   0.310  0.8743 -0.1747 -0.1981
38312SOL     OW26914   9.228  12.833   5.369  0.0406  0.0532 -0.3557
38312SOL    HW126915   9.235  12.742   5.400 -0.7271  1.1559  3.5917
38312SOL    HW226916   9.138  12.858   5.387  0.4986  1.9085 -0.4483
38313SOL     OW26917  12.603   6.309   1.244  0.0221 -0.0160 -0.6631
38313SOL    HW126918  12.677   6.265   1.284 -0.0154  1.2366  0.8646
38313SOL    HW226919  12.528   6.284   1.299 -0.1320  1.2406 -0.2817
38314SOL     OW26920   7.216  13.185   2.832 -0.8795  0.0406 -0.1096
38314SOL    HW126921   7.268  13.243   2.887 -0.3131  1.7250 -2.2966
38314SOL    HW226922   7.190  13.114   2.891  0.0407  1.4846  2.1816
38315SOL     OW26923   1.747   8.411   5.950 -0.0856 -0.5838  0.5942
38315SOL    HW126924   1.708   8.413   5.863 -0.5588  3.3456  0.7359
38315SOL    HW226925   1.690   8.352   6.000 -1.2913 -0.9428 -1.1244
38316SOL     OW26926   0.139   3.233  10.247 -0.0790 -0.1299  0.3921
38316SOL    HW126927   0.133   3.183  10.166 -1.0955  1.6203 -0.6718
38316SOL    HW226928   0.218   3.286  10.238  0.0164 -0.2127  0.7204
38317SOL     OW26929  10.919   5.583   2.451  0.0945 -1.0458 -0.1276
38317SOL    HW126930  10.825   5.573   2.439  0.1702 -1.4357 -0.4250
38317SOL    HW226931  10.955   5.497   2.430  0.7962 -0.1688 -2.9814
38318SOL     OW26932   4.268   0.773  12.767 -0.3565 -0.4868  0.1557
38318SOL    HW126933   4.249   0.816  12.684 -0.2137  0.1051  0.4214
38318SOL    HW226934   4.210   0.815  12.830  0.2250 -0.2374  0.5387
38319SOL     OW26935  12.932   5.451   2.735  0.2956  0.1121 -0.0372
38319SOL    HW126936  13.023   5.460   2.764 -0.4186  1.3888  1.9744
38319SOL    HW226937  12.924   5.513   2.663  1.0051 -0.0040 -0.2300
38320SOL     OW26938   8.019   8.455  11.434  0.3777  0.1989  0.3828
38320SOL    HW126939   8.029   8.468  11.340  1.0053  0.5498  0.4881
38320SOL    HW226940   8.108   8.462  11.469 -0.0025  1.3776  1.1640
38321SOL     OW26941   1.395   0.834  13.821 -0.3652  0.4655 -0.0901
38321SOL    HW126942   1.301   0.818  13.830 -0.2871 -1.4267 -1.8632
38321SOL    HW226943   1.435   0.781  13.890 -0.5539 -0.0610 -0.3749
38322SOL     OW26944  12.742   4.546   3.662  0.4666 -0.3407  0.9871
38322SOL    HW126945  12.796   4.510   3.733  3.3644  0.0974 -0.8114
38322SOL    HW226946  12.699   4.622   3.701 -1.0372 -2.2070  3.2117
38323SOL     OW26947   9.523   4.342  11.799  0.4858 -0.2832  0.3501
38323SOL    HW126948   9.545   4.435  11.786 -1.5894  0.2572  0.2910
38323SOL    HW226949   9.551   4.300  11.717 -0.1940  0.6375 -0.3816
38324SOL     OW26950   7.924  11.130   3.019  0.1427 -0.1780 -0.3721
38324SOL    HW126951   7.907  11.205   2.963 -2.2056 -0.6872 -0.4111
38324SOL    HW226952   7.928  11.166   3.108 -1.0494 -0.0083 -0.3844
38325SOL     OW26953   5.530   8.241   2.606  0.5662 -0.0596 -0.0752
38325SOL    HW126954   5.534   8.232   2.511  1.7749 -0.3960 -0.0031
38325SOL    HW226955   5.451   8.294   2.622  0.5962  0.3646 -1.2829
38326SOL     OW26956   4.620  11.458   1.098  0.1218 -0.1297 -0.1261
38326SOL    HW126957   4.577  11.543   1.098  0.3492 -0.0118  0.3863
38326SOL    HW226958   4.701  11.472   1.147 -0.3209 -0.8809  0.8506
38327SOL     OW26959  13.420   2.154   3.890 -0.3153  0.6472  0.5027
38327SOL    HW126960  13.420   2.249   3.884 -1.9900  0.7988  2.0263
38327SOL    HW226961  13.337   2.127   3.851  0.8942 -0.3751 -1.5161
38328SOL     OW26962  10.533   1.437  11.199 -0.8019 -0.1909 -0.0904
38328SOL    HW126963  10.612   1.408  11.244 -0.1923  0.1355 -0.9020
38328SOL    HW226964  10.461   1.406  11.252 -0.1216 -0.6707  0.5632
38329SOL     OW26965  11.817  11.421   6.111 -0.1122 -0.0945  0.2508
38329SOL    HW126966  11.801  11.338   6.067  1.0172 -0.1317 -0.1167
38329SOL    HW226967  11.876  11.400   6.183 -0.2966  0.2959  0.5231
38330SOL     OW26968   2.369  10.726   9.691 -0.1355  0.1865  0.1586
38330SOL    HW126969   2.413  10.787   9.632  1.6220 -1.6187 -0.4831
38330SOL    HW226970   2.423  10.726   9.770  0.1238 -0.8440 -0.0100
38331SOL     OW26971  10.113   8.981   6.083 -0.0474  0.7061  0.4027
38331SOL    HW126972  10.191   8.993   6.137 -1.0221  0.6076  1.8638
38331SOL    HW226973  10.052   8.933   6.139 -1.4710  1.4882 -0.4313
38332SOL     OW26974   6.905  12.772   0.286 -0.5235  0.0097  0.2888
38332SOL    HW126975   6.930  12.782   0.378  1.2476 -1.3519  0.0348
38332SOL    HW226976   6.944  12.688   0.260  0.7124  1.2325 -2.2092
38333SOL     OW26977   1.027   5.089  13.980 -0.4448  0.6771  0.0204
38333SOL    HW126978   1.106   5.142  13.965 -1.5356  2.6050  0.6937
38333SOL    HW226979   1.037   5.057  14.070 -0.2793  0.6822  0.0038
38334SOL     OW26980  13.083   6.655   9.756  0.2242 -0.4827 -0.4715
38334SOL    HW126981  13.060   6.748   9.755 -1.4084 -0.8573 -1.1909
38334SOL    HW226982  13.091   6.632   9.663 -1.7704 -1.5724 -0.4262
38335SOL     OW26983  10.164   8.058  11.392  0.0488 -0.1448 -0.2639
38335SOL    HW126984  10.255   8.040  11.368 -0.0731  0.9739 -1.6616
38335SOL    HW226985  10.169   8.138  11.445 -0.2021  0.5474 -1.2614
38336SOL     OW26986  12.988   4.254   7.643 -0.2874 -0.5119 -0.0946
38336SOL    HW126987  13.070   4.297   7.666 -0.3691 -0.7912  0.7594
38336SOL    HW226988  12.991   4.244   7.548  0.6335 -0.4595 -0.0727
38337SOL     OW26989   3.786   1.355   3.645  0.2321 -0.2895 -0.4191
38337SOL    HW126990   3.694   1.332   3.659  0.1056 -0.0810 -0.8745
38337SOL    HW226991   3.803   1.426   3.708  1.2130 -2.8912  2.4964
38338SOL     OW26992   8.114   6.280  13.992 -0.1332  0.6168  0.2741
38338SOL    HW126993   8.102   6.367  13.953  0.4556 -0.0485 -1.4982
38338SOL    HW226994   8.040   6.229  13.960  0.0326  0.2131  0.5317
38339SOL     OW26995   0.036   6.054  12.923  0.0908  0.3869 -0.1212
38339SOL    HW126996  -0.058   6.068  12.940  0.0049  1.5659 -1.4301
38339SOL    HW226997   0.042   6.044  12.828  1.4686  1.9949 -0.2436
38340SOL     OW26998   5.514   7.935  11.941  0.5797 -0.4433 -0.4197
38340SOL    HW126999   5.535   8.002  12.006  0.2640  0.8241 -1.5643
38340SOL    HW227000   5.422   7.915  11.956  0.3847  0.1762 -0.7340
38341SOL     OW27001   0.736  10.226  11.538  0.2544  0.1038  0.0735
38341SOL    HW127002   0.725  10.157  11.603  0.1103 -0.0083 -0.0685
38341SOL    HW227003   0.791  10.187  11.470 -0.7689 -0.2746 -0.5796
38342SOL     OW27004   8.080   1.971   2.623  0.1015  0.6412  0.1777
38342SOL    HW127005   8.059   2.035   2.555 -0.5188  1.7941  1.4254
38342SOL    HW227006   8.039   1.890   2.592 -1.6949  1.5662 -0.0229
38343SOL     OW27007   4.674   2.116   7.776 -0.3272 -0.0330 -0.3767
38343SOL    HW127008   4.712   2.035   7.741 -0.6559  0.2429 -1.3949
38343SOL    HW227009   4.750   2.167   7.805 -0.2067 -1.4402  1.9914
38344SOL     OW27010   9.417   1.526   7.215 -0.4735 -0.0061  0.6105
38344SOL    HW127011   9.398   1.455   7.276  2.1714 -1.3229  0.0256
38344SOL    HW227012   9.430   1.483   7.131 -2.1513  1.5801 -0.5372
38345SOL     OW27013   8.845  13.981   3.961  0.4282  0.0425  0.0090
38345SOL    HW127014   8.814  13.928   3.888 -0.1799  1.0321 -0.4836
38345SOL    HW227015   8.766  14.018   3.999  0.8772  1.3604 -0.2754
38346SOL     OW27016   6.828   4.524   2.241 -0.1076  0.3019  0.0090
38346SOL    HW127017   6.780   4.606   2.229 -0.5944  0.0760  0.3671
38346SOL    HW227018   6.895   4.545   2.306  0.0631  0.5328 -0.2398
38347SOL     OW27019   7.143   7.482  12.938 -0.3100 -0.0166 -0.1868
38347SOL    HW127020   7.194   7.561  12.923 -1.0642  0.5907  0.3876
38347SOL    HW227021   7.108   7.491  13.026 -0.2349 -1.0983 -0.0237
38348SOL     OW27022   7.390  11.937  12.567  0.0046 -0.0922 -0.2671
38348SOL    HW127023   7.484  11.920  12.575 -0.4215 -2.1627  1.0385
38348SOL    HW227024   7.377  12.023  12.606  1.2267 -0.2087  0.4232
38349SOL     OW27025   5.081  11.579   7.013  0.2376  0.2782 -0.3817
38349SOL    HW127026   5.157  11.559   6.958  1.8794 -0.1088  1.8455
38349SOL    HW227027   5.050  11.494   7.043 -0.0491  0.5079 -0.0156
38350SOL     OW27028  11.593   7.121   4.561 -0.1908 -0.8724 -0.1772
38350SOL    HW127029  11.683   7.153   4.557 -0.8895  1.3110  0.0601
38350SOL    HW227030  11.596   7.050   4.625  1.3470 -0.8521 -0.1785
38351SOL     OW27031  11.248  12.211   0.217 -0.6103  0.3053 -0.2132
38351SOL    HW127032  11.237  12.163   0.135 -0.2583  1.8127 -1.1895
38351SOL    HW227033  11.340  12.238   0.217 -0.0514 -1.3780  1.6906
38352SOL     OW27034   3.161  11.404   6.131 -0.0716  0.1317  0.4518
38352SOL    HW127035   3.082  11.432   6.177 -0.6183 -0.0717 -0.3525
38352SOL    HW227036   3.131  11.377   6.044  1.0161  1.1011 -0.2580
38353SOL     OW27037  13.282   8.597   4.757 -0.3413  0.1018 -0.0193
38353SOL    HW127038  13.278   8.513   4.803 -0.0579 -0.3164 -0.7279
38353SOL    HW227039  13.192   8.629   4.756 -0.2079  0.6442  1.7292
38354SOL     OW27040  13.474   9.403   3.234  0.4769 -0.2549 -0.0060
38354SOL    HW127041  13.444   9.403   3.143  0.6414  0.6299 -0.0765
38354SOL    HW227042  13.421   9.472   3.275 -0.0808 -1.1089  0.7389
38355SOL     OW27043   4.036  11.694   0.632  0.4124 -0.4602  0.1726
38355SOL    HW127044   4.107  11.666   0.575  0.7077  1.1142 -0.2716
38355SOL    HW227045   3.956  11.674   0.583  0.5984 -0.8540  0.0266
38356SOL     OW27046  12.369   2.148   2.637  0.2053  0.1688 -1.0893
38356SOL    HW127047  12.456   2.140   2.677  0.6245  2.3268 -1.4357
38356SOL    HW227048  12.311   2.162   2.712 -0.0505 -2.2450 -0.7707
38357SOL     OW27049   9.573  12.206   5.625 -0.4241  0.0415 -0.2588
38357SOL    HW127050   9.602  12.136   5.567 -0.6634 -0.6436  0.4291
38357SOL    HW227051   9.654  12.251   5.650 -0.3532  0.6204 -1.4353
38358SOL     OW27052   5.772   8.744  12.024  0.4064 -0.4196 -0.4502
38358SOL    HW127053   5.703   8.807  12.003  0.7555 -0.3465 -1.4435
38358SOL    HW227054   5.854   8.793  12.012  0.6433 -0.5933  0.4152
38359SOL     OW27055   5.279  13.660   7.327  0.3036 -0.9399 -0.3413
38359SOL    HW127056   5.329  13.671   7.408  1.3528  0.3250 -1.1047
38359SOL    HW227057   5.346  13.648   7.259 -0.3086  1.5366 -1.5072
38360SOL     OW27058   8.274  13.345   5.243  0.4610 -0.2765  0.2570
38360SOL    HW127059   8.233  13.280   5.186  0.7961 -0.8828  0.6832
38360SOL    HW227060   8.309  13.411   5.184 -1.9057  0.7647 -0.0849
38361SOL     OW27061   6.513   2.284   7.179 -0.3562 -0.4850  0.1251
38361SOL    HW127062   6.579   2.223   7.212 -1.6890 -1.2550  1.5044
38361SOL    HW227063   6.554   2.324   7.102  0.4385 -3.4711 -1.1849
38362SOL     OW27064   2.938   3.965   9.423  0.6911  0.2549 -0.4293
38362SOL    HW127065   2.983   4.027   9.480 -0.4981  1.9878 -1.2728
38362SOL    HW227066   2.929   4.012   9.340 -1.2197 -0.6374 -0.7727
38363SOL     OW27067  11.848   9.278   7.334  0.6503  0.5445 -0.2664
38363SOL    HW127068  11.870   9.190   7.303 -0.0547 -0.3997  1.7364
38363SOL    HW227069  11.768   9.302   7.287  0.2658 -0.3296 -0.0654
38364SOL     OW27070   9.557   6.996  13.299  0.0084 -0.0407  0.2798
38364SOL    HW127071   9.480   7.009  13.354 -0.9963  1.4399 -1.3742
38364SOL    HW227072   9.628   7.037  13.348 -0.7428  0.7780  0.7125
38365SOL     OW27073  11.006   3.069  10.011 -0.1667 -0.3646 -0.3815
38365SOL    HW127074  11.088   3.064  10.060 -0.3926 -2.3515 -0.1063
38365SOL    HW227075  11.021   3.014   9.934 -1.3273 -1.0676 -0.1366
38366SOL     OW27076   7.182   3.694  11.468 -0.6182  0.1877 -0.3686
38366SOL    HW127077   7.142   3.759  11.410 -0.6295 -0.9032 -1.6412
38366SOL    HW227078   7.257   3.661  11.419  0.8575  0.9778  1.2780
38367SOL     OW27079   9.437   4.110   5.974 -0.1307 -0.2145  0.4225
38367SOL    HW127080   9.518   4.149   6.008  0.1150 -0.9319  0.7021
38367SOL    HW227081   9.444   4.118   5.879 -1.4753  3.0925  0.4920
38368SOL     OW27082   2.541   6.507   9.513  1.0863  0.4427 -0.0601
38368SOL    HW127083   2.548   6.514   9.418  0.6401  1.3543 -0.0353
38368SOL    HW227084   2.632   6.496   9.543  1.2577  0.4829 -0.5576
38369SOL     OW27085   6.877  11.877  13.872 -0.2623  0.3469 -0.1192
38369SOL    HW127086   6.795  11.910  13.835 -0.8286 -0.9118 -0.0348
38369SOL    HW227087   6.946  11.916  13.818 -0.9604  0.6765 -0.7748
38370SOL     OW27088  12.897   1.300  14.005 -0.1062  0.5837 -0.1745
38370SOL    HW127089  12.989   1.274  14.004  0.3533  2.1007 -0.4723
38370SOL    HW227090  12.885   1.349  13.924 -1.1199  0.5988 -0.0260
38371SOL     OW27091   6.374   0.946  11.809 -0.0333 -0.1618 -0.0967
38371SOL    HW127092   6.395   0.853  11.798 -2.3086 -0.6583 -0.7258
38371SOL    HW227093   6.349   0.975  11.721  0.3584  0.9931  0.1530
38372SOL     OW27094   2.845   1.071   7.796  0.5169 -0.3588  0.7459
38372SOL    HW127095   2.853   1.134   7.724  0.5915 -0.5009  0.6283
38372SOL    HW227096   2.776   1.107   7.852  3.1163  1.8362  2.7576
38373SOL     OW27097   2.801   9.453   9.661  0.0699 -0.5940 -0.3488
38373SOL    HW127098   2.895   9.443   9.673  0.1895  0.1574 -0.6009
38373SOL    HW227099   2.777   9.385   9.597  0.0593 -2.1790  1.2519
38374SOL     OW27100  13.696   0.236   8.457  0.0122  0.2373  0.2296
38374SOL    HW127101  13.749   0.225   8.536 -1.0842 -0.5853  0.8764
38374SOL    HW227102  13.701   0.151   8.412 -0.6855  0.1673  0.2645
38375SOL     OW27103  11.158   5.105  10.702 -0.1593  0.0156  0.0755
38375SOL    HW127104  11.097   5.098  10.776 -1.2041  0.0125 -0.7542
38375SOL    HW227105  11.104   5.141  10.631  0.8081 -0.0480 -0.7059
38376SOL     OW27106   1.155  12.170  13.196  0.2192  0.4941  0.8228
38376SOL    HW127107   1.235  12.221  13.193 -0.4692  1.5649 -1.9823
38376SOL    HW227108   1.127  12.163  13.105 -3.1426  0.6040  1.7229
38377SOL     OW27109   5.603   5.395   3.959  0.7333 -0.1107 -0.5546
38377SOL    HW127110   5.628   5.385   4.050  0.9758  1.1971 -0.4563
38377SOL    HW227111   5.677   5.360   3.909 -0.2926 -2.9268 -0.3247
38378SOL     OW27112  10.111   2.219  13.566 -0.2261  0.6516  0.7817
38378SOL    HW127113  10.146   2.222  13.477 -0.4893 -1.5410  0.5467
38378SOL    HW227114  10.178   2.263  13.619  1.5041 -0.8020 -0.0718
38379SOL     OW27115   9.758   2.026   8.929  0.2724 -0.4622  0.0878
38379SOL    HW127116   9.713   1.969   8.867  0.1189 -0.5326  0.2618
38379SOL    HW227117   9.845   2.038   8.892 -0.2431  0.5824 -0.8094
38380SOL     OW27118   6.084   4.195  13.353  0.0676  0.0507 -0.1592
38380SOL    HW127119   6.100   4.227  13.442 -1.5894  0.7226 -0.0640
38380SOL    HW227120   6.037   4.112  13.365 -0.0629  0.0867 -0.4030
38381SOL     OW27121   7.397   4.874   7.642 -0.1269  0.5280  0.1972
38381SOL    HW127122   7.339   4.818   7.590  0.2871  0.3593 -0.0843
38381SOL    HW227123   7.425   4.942   7.580  0.2176  0.4336  0.2527
38382SOL     OW27124   3.420  12.015   6.259  0.2925 -0.5292  1.0353
38382SOL    HW127125   3.354  11.948   6.239  1.0302 -1.4381  1.5523
38382SOL    HW227126   3.423  12.018   6.355  1.1551 -0.6716  1.0255
38383SOL     OW27127  11.859   5.168   0.590 -0.1357  0.1813 -0.1244
38383SOL    HW127128  11.947   5.182   0.554 -0.7852  2.1829 -1.1030
38383SOL    HW227129  11.851   5.235   0.658  0.6924 -2.8810  3.2770
38384SOL     OW27130   5.841   0.915   2.280 -0.4241  0.5560  0.0733
38384SOL    HW127131   5.775   0.972   2.319 -0.7123  0.5957 -0.4726
38384SOL    HW227132   5.793   0.864   2.215 -0.3575 -0.9234  1.1353
38385SOL     OW27133   9.137   4.707   3.467 -0.1958  0.2959  0.4740
38385SOL    HW127134   9.172   4.668   3.547  1.0573  0.3678 -0.0206
38385SOL    HW227135   9.189   4.670   3.397 -2.3310 -1.0186 -0.5283
38386SOL     OW27136   3.124   8.095  12.929 -0.0127 -0.3977  0.4139
38386SOL    HW127137   3.082   8.009  12.928  0.0760 -0.4420  0.4790
38386SOL    HW227138   3.139   8.115  12.837  0.4749 -0.7009  0.4262
38387SOL     OW27139   9.337  11.446  11.274  0.0192 -0.2149  0.1205
38387SOL    HW127140   9.245  11.429  11.291 -0.1873  0.2372 -0.4828
38387SOL    HW227141   9.363  11.378  11.212 -0.6811  1.2568 -1.9224
38388SOL     OW27142  13.795  13.834  10.300  0.5166 -0.9003  0.4962
38388SOL    HW127143  13.875  13.831  10.352 -0.0535 -0.0568  1.4632
38388SOL    HW227144  13.802  13.917  10.252  0.4395 -1.0618  0.2020
38389SOL     OW27145   0.440   1.942   4.902  0.3060  0.0261  0.2490
38389SOL    HW127146   0.421   1.907   4.815  1.2189  0.3715 -0.0947
38389SOL    HW227147   0.518   1.995   4.890 -0.3130  1.1398  1.0293
38390SOL     OW27148   1.530  10.404   8.355 -0.3051  0.1370  0.0793
38390SOL    HW127149   1.488  10.487   8.332  0.2969  0.5222  0.3379
38390SOL    HW227150   1.623  10.426   8.362 -0.0802 -0.6581 -0.2960
38391SOL     OW27151   6.234  13.958  13.284 -0.0911 -0.5261 -0.5183
38391SOL    HW127152   6.253  13.909  13.204 -3.0938 -1.3553 -0.8525
38391SOL    HW227153   6.144  13.989  13.273  0.5277  2.2693  1.1490
38392SOL     OW27154   1.855  10.464  10.400 -0.6491  0.3204 -0.2241
38392SOL    HW127155   1.765  10.431  10.408 -0.4412 -0.1734  0.1267
38392SOL    HW227156   1.891  10.455  10.488 -0.6800  1.8011 -0.0286
38393SOL     OW27157   9.335  10.859   4.540  0.1572 -0.0840  0.4434
38393SOL    HW127158   9.320  10.938   4.489 -0.6113  0.1427  1.0047
38393SOL    HW227159   9.397  10.808   4.488  0.9161  1.0198  0.2301
38394SOL     OW27160   2.472   9.119   7.299  0.4209  0.2986  0.1846
38394SOL    HW127161   2.398   9.067   7.269  1.4716 -0.2419 -1.5885
38394SOL    HW227162   2.441   9.160   7.380 -1.8572  0.2173 -0.5807
38395SOL     OW27163   6.048  13.710   1.779 -0.1612  0.0138 -0.4796
38395SOL    HW127164   6.074  13.649   1.710  3.0280  1.6957 -0.9239
38395SOL    HW227165   6.077  13.668   1.860 -1.3485 -0.6551 -0.3635
38396SOL     OW27166  11.447  10.720   8.766 -0.2643  0.7691  0.3333
38396SOL    HW127167  11.360  10.759   8.776 -1.0386 -0.0351 -2.4128
38396SOL    HW227168  11.441  10.634   8.807 -0.6009  0.9247  0.6090
38397SOL     OW27169  11.767  12.139  13.864 -0.1071  0.3920  0.4891
38397SOL    HW127170  11.719  12.131  13.782  1.0752  2.3546 -0.4877
38397SOL    HW227171  11.859  12.146  13.837  0.4977 -0.7322  2.1203
38398SOL     OW27172  12.926  11.783  10.313 -0.1462 -0.5989 -0.4431
38398SOL    HW127173  12.890  11.838  10.243  2.5346  1.2209 -0.5753
38398SOL    HW227174  12.982  11.720  10.267  1.4320  0.4453 -0.0444
38399SOL     OW27175   1.677   5.818   1.548 -0.2558 -0.9651 -0.0002
38399SOL    HW127176   1.586   5.798   1.570 -0.3858 -0.1180  0.2893
38399SOL    HW227177   1.678   5.824   1.452 -0.0943 -2.7811 -0.1553
38400SOL     OW27178   6.730   6.117   7.136 -0.2167 -0.6430 -0.1055
38400SOL    HW127179   6.783   6.044   7.103 -0.8474 -0.7501 -0.9295
38400SOL    HW227180   6.791   6.192   7.138 -0.1990 -0.5697 -1.8137
38401SOL     OW27181   0.876  12.259  10.845 -0.1201 -0.5707 -0.9828
38401SOL    HW127182   0.786  12.284  10.868 -0.0595 -0.5839 -0.7283
38401SOL    HW227183   0.868  12.218  10.758 -0.2960 -0.1660 -1.1622
38402SOL     OW27184   1.561  11.586   8.479 -0.1826 -0.2353 -0.7013
38402SOL    HW127185   1.539  11.584   8.386 -1.8392 -0.8178 -0.3360
38402SOL    HW227186   1.657  11.585   8.482 -0.0855 -2.4607 -2.3677
38403SOL     OW27187  13.652   1.378  12.275 -0.4694 -0.5018 -0.3999
38403SOL    HW127188  13.646   1.472  12.289  2.9549 -0.4867  2.4366
38403SOL    HW227189  13.715   1.368  12.205 -0.6436 -0.6999 -0.5300
38404SOL     OW27190   4.951   1.095   1.485 -0.3010  0.8606 -0.3225
38404SOL    HW127191   5.014   1.024   1.492 -2.3739 -1.1852 -1.2237
38404SOL    HW227192   4.925   1.095   1.392 -0.9289  2.2730 -0.1752
38405SOL     OW27193   7.471  11.966  10.549 -0.0733  0.1464 -0.6304
38405SOL    HW127194   7.408  11.950  10.619  0.6628  0.2788  0.0762
38405SOL    HW227195   7.424  12.021  10.486 -0.9482 -0.5057 -0.5680
38406SOL     OW27196   5.459   7.523   3.333  0.3157 -0.6794  0.2495
38406SOL    HW127197   5.372   7.553   3.307 -0.7753 -2.5523  1.5186
38406SOL    HW227198   5.475   7.567   3.417  0.5580 -0.4294  0.0751
38407SOL     OW27199   8.794   3.719   4.400  1.1108 -0.0267 -0.0096
38407SOL    HW127200   8.744   3.795   4.373  0.9295 -0.5766 -1.2720
38407SOL    HW227201   8.729   3.661   4.441  1.1056  0.1684  0.2567
38408SOL     OW27202   6.912   8.006  11.500  0.1704  0.2134 -0.1579
38408SOL    HW127203   6.963   8.076  11.539 -0.5009  0.3365  0.5154
38408SOL    HW227204   6.955   7.926  11.530  1.1479  0.3158 -1.2110
38409SOL     OW27205  11.427  12.433   8.556  0.2629  0.0139 -0.6310
38409SOL    HW127206  11.423  12.338   8.565 -2.2528  0.0348 -0.9982
38409SOL    HW227207  11.509  12.457   8.599  0.2731 -2.1803  0.7330
38410SOL     OW27208  10.435   0.802   3.890 -0.0276  1.0630 -0.1146
38410SOL    HW127209  10.462   0.879   3.941 -0.2049  1.2031 -0.2289
38410SOL    HW227210  10.509   0.785   3.832 -0.7976  2.4666 -1.6030
38411SOL     OW27211   2.413   5.515   4.205 -0.3880 -0.2655 -0.5347
38411SOL    HW127212   2.398   5.547   4.294 -0.4668  1.0050 -0.9810
38411SOL    HW227213   2.325   5.506   4.168 -0.4307  4.6282 -2.2756
38412SOL     OW27214  13.497   8.560  10.812 -0.2700 -0.0201  0.4388
38412SOL    HW127215  13.442   8.634  10.835  0.1471 -0.3939  2.8211
38412SOL    HW227216  13.581   8.599  10.787  0.1743  0.3345  2.3632
38413SOL     OW27217  11.130  10.503   3.285 -0.5324 -0.4706 -0.3348
38413SOL    HW127218  11.072  10.492   3.210 -0.8377  0.2670 -0.2116
38413SOL    HW227219  11.098  10.439   3.350  0.0757 -1.5009 -1.0132
38414SOL     OW27220   7.325  11.992  14.005 -0.0338 -0.1283  0.1389
38414SOL    HW127221   7.352  11.959  14.091 -1.1489  2.2691  1.5211
38414SOL    HW227222   7.407  11.995  13.955  0.8302 -0.6660  1.4463
38415SOL     OW27223   7.335   7.413   7.758  0.0193 -0.4872 -0.6977
38415SOL    HW127224   7.429   7.417   7.775 -0.4665 -0.9221  2.6130
38415SOL    HW227225   7.307   7.328   7.792 -1.9423  0.6881  0.8326
38416SOL     OW27226   9.709   9.389   5.620  0.7994 -0.3309 -0.0637
38416SOL    HW127227   9.655   9.468   5.622  2.3205  0.7464 -0.4009
38416SOL    HW227228   9.651   9.320   5.652 -0.9124  0.6931 -0.8205
38417SOL     OW27229   0.453  13.232  10.091  0.2855  0.4491  0.1853
38417SOL    HW127230   0.543  13.208  10.112 -0.5747 -1.7748  1.6730
38417SOL    HW227231   0.416  13.261  10.175 -0.4774  1.0507 -0.3481
38418SOL     OW27232   7.162   4.942   1.208  0.1107 -0.1582  0.0192
38418SOL    HW127233   7.233   4.949   1.144 -0.6028  1.3537 -0.6445
38418SOL    HW227234   7.086   4.978   1.164 -0.4920  0.6083  1.6033
38419SOL     OW27235   8.688   7.442   1.991  0.6310 -0.4453 -0.1698
38419SOL    HW127236   8.772   7.397   1.983  0.9081 -0.5268  2.4358
38419SOL    HW227237   8.706   7.518   2.047 -0.3460  1.5980 -2.4164
38420SOL     OW27238   6.730   1.877  11.638  0.2733  0.4919 -0.1562
38420SOL    HW127239   6.757   1.960  11.678 -0.6721  0.0758  1.4546
38420SOL    HW227240   6.698   1.825  11.711  2.6090 -2.0722 -0.8124
38421SOL     OW27241   1.823   3.652  12.941 -0.6947 -0.0594  0.2804
38421SOL    HW127242   1.799   3.636  13.033 -0.5760  1.7899  0.6711
38421SOL    HW227243   1.749   3.619  12.891 -1.2567 -0.0777  1.1014
38422SOL     OW27244  12.677   1.085  12.225  0.4907  0.5360 -0.0020
38422SOL    HW127245  12.604   1.023  12.226  0.1083  0.9407 -1.0205
38422SOL    HW227246  12.754   1.032  12.247  0.2000 -0.3523 -0.9957
38423SOL     OW27247  10.014   8.747   2.465  0.2474 -0.1296 -0.2301
38423SOL    HW127248   9.968   8.831   2.462  1.9396  0.8229 -1.5188
38423SOL    HW227249   9.947   8.682   2.442 -0.6724  1.0842 -1.1504
38424SOL     OW27250  12.975   5.786   8.596  0.5747  0.2092  0.3628
38424SOL    HW127251  12.993   5.808   8.687 -2.0474 -1.7794  1.4557
38424SOL    HW227252  12.917   5.710   8.599  0.0511  0.2983 -2.9650
38425SOL     OW27253   1.984   2.707   7.949  0.7103  0.0856  0.1712
38425SOL    HW127254   2.007   2.718   8.041  0.7015 -1.4615  0.3842
38425SOL    HW227255   2.069   2.699   7.904  0.7494 -2.3582  0.5211
38426SOL     OW27256   8.972  11.307   3.914 -0.0610  0.3059  0.0386
38426SOL    HW127257   8.905  11.266   3.859 -1.9749  0.7372  1.9256
38426SOL    HW227258   9.018  11.233   3.954  1.3117 -0.0113 -1.9820
38427SOL     OW27259  12.273   6.881   2.936  0.3168  0.1506 -0.2868
38427SOL    HW127260  12.359   6.907   2.969  1.5295 -0.3867 -2.8093
38427SOL    HW227261  12.255   6.941   2.864 -0.8724 -0.4946 -0.5655
38428SOL     OW27262  13.827   1.712   9.222 -0.1411  0.4538 -0.2364
38428SOL    HW127263  13.861   1.771   9.289 -1.3839 -0.2201  1.0579
38428SOL    HW227264  13.773   1.767   9.166 -2.7900  0.4198  2.0088
38429SOL     OW27265   6.150   4.982   8.175  0.0462 -0.1712  0.1817
38429SOL    HW127266   6.212   5.045   8.137  1.4397 -0.2579  2.1435
38429SOL    HW227267   6.070   5.033   8.190  0.2294  0.4186 -0.7491
38430SOL     OW27268   2.806   7.950   6.534  0.1594  0.3242  0.1825
38430SOL    HW127269   2.844   7.908   6.611 -1.6331  0.6122  1.2835
38430SOL    HW227270   2.736   7.891   6.506  1.1826 -0.0956 -1.6634
38431SOL     OW27271   1.949   1.909   2.250  0.3575 -0.1068 -0.4398
38431SOL    HW127272   1.923   2.001   2.250  0.4862 -0.0011 -2.6096
38431SOL    HW227273   1.901   1.870   2.322  0.9097  1.7994  1.0495
38432SOL     OW27274   5.346   8.790   1.145 -0.2299 -0.0825  0.4061
38432SOL    HW127275   5.312   8.851   1.079  0.0658  0.4351  0.7185
38432SOL    HW227276   5.277   8.785   1.211  0.7296  1.9845  1.6985
38433SOL     OW27277   9.226   7.351   4.781  0.2786 -0.4833  0.3697
38433SOL    HW127278   9.212   7.387   4.694  0.9238  0.1737  0.5305
38433SOL    HW227279   9.155   7.287   4.792 -0.9046  0.7162  0.0601
38434SOL     OW27280   2.117   9.133   5.443 -0.1670  0.5412  0.6296
38434SOL    HW127281   2.093   9.054   5.492 -1.6470 -0.6027 -1.7654
38434SOL    HW227282   2.196   9.109   5.395 -2.2878 -0.7635 -2.5489
38435SOL     OW27283   3.998  13.811   4.990  0.1354  0.7130  0.3882
38435SOL    HW127284   3.984  13.780   4.901 -0.6721  0.1269  0.7012
38435SOL    HW227285   4.093  13.805   5.003  0.1490 -0.2816 -0.0566
38436SOL     OW27286   2.312   2.157   3.632  0.4520 -0.3602 -0.4033
38436SOL    HW127287   2.263   2.097   3.577 -0.6821  0.6244 -0.5134
38436SOL    HW227288   2.311   2.240   3.584 -1.1660  0.7200  1.3576
38437SOL     OW27289  10.785   4.446   9.369 -0.4459  0.3315  0.2675
38437SOL    HW127290  10.820   4.388   9.437 -0.0305  0.3946  0.1122
38437SOL    HW227291  10.706   4.484   9.408 -1.9576 -1.9236 -0.3509
38438SOL     OW27292   1.572   2.306  12.782 -0.1142 -0.3138 -0.2330
38438SOL    HW127293   1.583   2.346  12.869 -2.2759 -0.4265  0.1602
38438SOL    HW227294   1.569   2.380  12.722 -1.0829 -0.0413  0.1246
38439SOL     OW27295   3.829   5.253   9.668 -0.4038  0.1689  0.0919
38439SOL    HW127296   3.858   5.190   9.602  0.0691 -0.7186  1.1304
38439SOL    HW227297   3.755   5.298   9.626 -0.4919 -0.7864 -0.8181
38440SOL     OW27298  11.094   8.419  12.321  0.0304  0.4288  0.1442
38440SOL    HW127299  11.008   8.438  12.283 -0.9083  0.7753  2.2878
38440SOL    HW227300  11.156   8.462  12.262 -1.3742  1.3470 -0.7275
38441SOL     OW27301   8.059   6.813   9.471  0.1814 -0.0166  0.6079
38441SOL    HW127302   8.107   6.739   9.433  0.7776 -0.6763  2.4915
38441SOL    HW227303   8.124   6.857   9.525 -0.1172  2.0658 -0.6409
38442SOL     OW27304   6.490  12.162   1.361 -0.9242  0.4123 -0.2796
38442SOL    HW127305   6.417  12.100   1.361 -0.8695  0.3362 -1.2419
38442SOL    HW227306   6.448  12.248   1.369 -1.2197  0.4478 -1.8999
38443SOL     OW27307  13.889  10.504   8.826 -0.0462  0.1891  0.3517
38443SOL    HW127308  13.871  10.577   8.766  1.3507 -0.2079 -0.5982
38443SOL    HW227309  13.881  10.543   8.913  0.5189  1.4552 -0.1340
38444SOL     OW27310  12.414  13.521  10.318 -0.5488 -0.0026 -0.1843
38444SOL    HW127311  12.467  13.552  10.392  2.3954 -1.0551 -1.6916
38444SOL    HW227312  12.335  13.485  10.358  0.8079 -0.2890  2.4335
38445SOL     OW27313  11.163   8.715   4.585 -0.3291 -0.0989 -0.2327
38445SOL    HW127314  11.224   8.746   4.518  0.2925  2.2926  1.3251
38445SOL    HW227315  11.212   8.719   4.667 -1.1755 -2.6537  0.4749
38446SOL     OW27316   2.023   5.879   7.647  0.3533 -0.0139  0.1651
38446SOL    HW127317   1.930   5.896   7.631  0.7162  1.5632 -0.3978
38446SOL    HW227318   2.024   5.798   7.698 -1.2757 -0.5678 -0.6222
38447SOL     OW27319  12.242   2.768   6.690  0.0533  0.0625 -0.7411
38447SOL    HW127320  12.291   2.791   6.770  0.2342  0.7447 -1.0380
38447SOL    HW227321  12.228   2.674   6.697  0.5315  0.0231 -0.1566
38448SOL     OW27322   9.275  13.327   3.136  0.0412 -0.5151 -0.6341
38448SOL    HW127323   9.206  13.261   3.122  0.0314 -0.9621  1.2412
38448SOL    HW227324   9.227  13.407   3.157  0.0551 -0.8389  0.7243
38449SOL     OW27325  10.880   4.972  11.202 -0.0345 -0.2818  0.0006
38449SOL    HW127326  10.834   5.045  11.244  1.4243  0.0738  1.0681
38449SOL    HW227327  10.896   5.002  11.112 -1.4741 -0.2600 -0.2757
38450SOL     OW27328   2.708  13.071   4.370 -0.1153  0.4911 -0.0933
38450SOL    HW127329   2.776  13.107   4.427  1.3262  0.0086 -1.4110
38450SOL    HW227330   2.757  13.017   4.307 -1.9214 -1.7214  0.2677
38451SOL     OW27331   0.908  11.173   9.028 -0.5234 -0.2946  0.6139
38451SOL    HW127332   0.939  11.092   8.987  0.2063  0.0398  0.4921
38451SOL    HW227333   0.870  11.223   8.957  1.9981  0.9079 -0.0279
38452SOL     OW27334  13.141   0.659   2.217  0.1313  0.5487 -0.6881
38452SOL    HW127335  13.216   0.688   2.164 -1.2399  1.5431 -2.1809
38452SOL    HW227336  13.075   0.633   2.153  0.0536 -2.8827  0.5740
38453SOL     OW27337   2.502   1.121  12.464  0.1269  0.1090 -0.7745
38453SOL    HW127338   2.554   1.134  12.385  0.1896  1.4345 -0.5288
38453SOL    HW227339   2.565   1.122  12.536 -0.1308  0.8136 -0.5523
38454SOL     OW27340   2.152   8.349  10.447 -0.1659  0.1831 -0.0416
38454SOL    HW127341   2.177   8.269  10.494  1.3927 -0.2185 -1.4380
38454SOL    HW227342   2.144   8.320  10.356  1.4504  1.7984 -0.7432
38455SOL     OW27343   8.642   4.666  12.037  0.3127  0.3438 -0.1306
38455SOL    HW127344   8.681   4.694  12.119 -0.1097 -0.7519  0.4676
38455SOL    HW227345   8.561   4.717  12.030 -0.2546 -0.3914  0.7493
38456SOL     OW27346  13.495   3.949   7.882 -0.1216 -0.2099  0.2049
38456SOL    HW127347  13.489   3.987   7.795  1.5355  1.1170  0.6294
38456SOL    HW227348  13.441   3.870   7.877 -0.6796  0.2435 -1.7777
38457SOL     OW27349   9.988  12.622  10.873 -0.0118 -0.4092 -0.5891
38457SOL    HW127350   9.900  12.628  10.836 -1.4171 -1.6946  2.1777
38457SOL    HW227351  10.014  12.531  10.859  1.3847  0.1858 -2.2454
38458SOL     OW27352  12.062   2.226   8.027 -0.8766  0.0060 -0.3079
38458SOL    HW127353  11.985   2.256   8.076 -0.3123  0.1543  0.5026
38458SOL    HW227354  12.120   2.189   8.094  0.0454  0.5037 -0.8147
38459SOL     OW27355  11.491   6.357   5.834 -0.1875 -0.3070  0.1104
38459SOL    HW127356  11.551   6.291   5.797  1.2433  0.6769  0.6065
38459SOL    HW227357  11.527   6.376   5.920 -0.3683  1.3843 -0.1676
38460SOL     OW27358   5.072   8.408   7.065 -0.0577 -0.1225  0.1714
38460SOL    HW127359   5.132   8.336   7.043 -0.2600  0.0424 -1.0107
38460SOL    HW227360   5.076   8.466   6.989 -1.4225  0.0805  0.2207
38461SOL     OW27361  13.294  11.545  12.140 -0.0593 -0.3687  0.5503
38461SOL    HW127362  13.287  11.450  12.138 -3.5883 -0.3292  2.7326
38461SOL    HW227363  13.274  11.569  12.231 -1.5111  2.5024 -0.3931
38462SOL     OW27364   4.738   5.361   2.116 -0.4976  0.6010  0.1946
38462SOL    HW127365   4.829   5.388   2.129  0.1121 -1.1959 -0.0583
38462SOL    HW227366   4.728   5.285   2.174 -1.2345 -0.4346 -1.2558
38463SOL     OW27367   5.002  11.357   5.109 -0.4438  0.1934  0.4100
38463SOL    HW127368   4.941  11.422   5.144 -0.4655  0.1543  0.4457
38463SOL    HW227369   4.947  11.281   5.092 -0.3968  0.1413  0.4877
38464SOL     OW27370  12.319   1.165   6.561  0.8127 -0.1531  0.3066
38464SOL    HW127371  12.380   1.238   6.548  1.5007 -0.5960  1.0028
38464SOL    HW227372  12.294   1.171   6.653 -0.1904  0.0091  0.0360
38465SOL     OW27373   8.143   3.344   2.229  0.0941  0.0451 -0.3919
38465SOL    HW127374   8.194   3.413   2.271 -2.2376  2.9637 -2.0350
38465SOL    HW227375   8.076   3.322   2.294  1.6904 -1.9602  0.7347
38466SOL     OW27376   3.505  10.205   3.207 -0.6664 -0.4693 -0.2059
38466SOL    HW127377   3.581  10.168   3.250 -0.4135  0.8219  0.4962
38466SOL    HW227378   3.437  10.138   3.217 -1.1541  0.3849  3.7316
38467SOL     OW27379  11.970   1.567  13.126 -0.4355 -0.5191  0.1081
38467SOL    HW127380  12.032   1.623  13.080  0.4596 -1.3157  0.2882
38467SOL    HW227381  11.931   1.623  13.193  0.9142 -0.2607  0.7136
38468SOL     OW27382   2.076   6.244  11.831  0.7445  0.0605 -0.2699
38468SOL    HW127383   2.160   6.205  11.855 -0.9985 -2.5378  2.3100
38468SOL    HW227384   2.048   6.196  11.754  1.0655  0.0784 -0.4000
38469SOL     OW27385   7.925   4.060   1.005 -0.2184 -0.3438 -0.0260
38469SOL    HW127386   7.863   4.107   0.949  1.4454  1.6328 -0.3058
38469SOL    HW227387   7.888   4.069   1.093 -0.3525  0.8337 -0.1850
38470SOL     OW27388   4.978   8.690   1.672  0.3706 -0.1641  0.2092
38470SOL    HW127389   4.934   8.677   1.756  2.2662 -0.4789  1.2300
38470SOL    HW227390   5.065   8.723   1.696  0.8246  0.1001 -1.6592
38471SOL     OW27391  10.099   8.931  11.585  0.3256  0.8742 -0.0861
38471SOL    HW127392  10.193   8.942  11.603 -0.0926  2.5497  1.3517
38471SOL    HW227393  10.071   9.014  11.548 -0.3598 -0.0789 -1.7996
38472SOL     OW27394   1.427   9.766   3.685 -0.2303 -0.0428 -0.4718
38472SOL    HW127395   1.496   9.713   3.645 -0.0676 -0.6466  0.5712
38472SOL    HW227396   1.364   9.781   3.614 -0.3784 -1.7933 -0.7616
38473SOL     OW27397   6.299   6.195   1.139 -0.6704 -0.0673  0.2000
38473SOL    HW127398   6.389   6.214   1.112 -0.3024 -2.0160 -0.0792
38473SOL    HW227399   6.246   6.218   1.064 -0.0921 -1.3744 -0.6513
38474SOL     OW27400   9.621   9.306   7.810  0.3701 -0.0620  0.0748
38474SOL    HW127401   9.608   9.233   7.870  4.1749  0.6060  2.0585
38474SOL    HW227402   9.577   9.380   7.853 -1.0808 -0.5791 -0.4969
38475SOL     OW27403   8.407   1.384   9.688  0.4171 -0.3521 -0.8860
38475SOL    HW127404   8.342   1.398   9.619  0.7811  0.9815 -0.9934
38475SOL    HW227405   8.445   1.299   9.668 -0.3779 -0.5616 -1.5881
38476SOL     OW27406  13.513  10.570   9.438  0.4997  0.1309  0.1172
38476SOL    HW127407  13.580  10.507   9.464  1.1079  0.2663 -1.0398
38476SOL    HW227408  13.446  10.564   9.506  0.7808 -1.3978  0.2948
38477SOL     OW27409   3.972  10.687   2.285  0.1806  0.2318 -0.6032
38477SOL    HW127410   4.033  10.615   2.270  0.3875  0.7416 -2.5149
38477SOL    HW227411   4.025  10.755   2.326  0.4733  0.0324 -0.6474
38478SOL     OW27412   9.727  13.210   4.266  0.2648  0.0700 -0.0704
38478SOL    HW127413   9.703  13.273   4.199  0.6447  1.5655  1.1384
38478SOL    HW227414   9.770  13.139   4.219  1.6236  1.6349 -1.3021
38479SOL     OW27415   1.021   2.736   0.364 -0.5952  0.6886 -0.5967
38479SOL    HW127416   0.951   2.686   0.405 -1.3162  2.0888 -0.0209
38479SOL    HW227417   0.992   2.748   0.273  0.1726 -0.9331 -1.0912
38480SOL     OW27418   2.000   2.213  12.212  0.2756  0.3188 -0.2142
38480SOL    HW127419   2.054   2.290  12.232  0.1905 -0.0762  1.7951
38480SOL    HW227420   1.979   2.222  12.120  0.4107  2.6215 -0.0872
38481SOL     OW27421   4.165   6.328   6.980  0.3772 -0.2120 -0.0463
38481SOL    HW127422   4.175   6.347   7.074 -0.2485  0.4832 -0.1103
38481SOL    HW227423   4.122   6.243   6.977  1.1632 -0.6318  0.2818
38482SOL     OW27424   6.037  11.253  10.738  0.0626  0.2304 -0.0772
38482SOL    HW127425   5.962  11.283  10.790  0.8435  0.8487  0.7278
38482SOL    HW227426   5.999  11.196  10.672 -0.9278 -1.0573  1.5305
38483SOL     OW27427  11.689   3.156   3.645  0.1066 -0.3062  0.4527
38483SOL    HW127428  11.717   3.065   3.637 -2.2922 -1.0768 -0.0182
38483SOL    HW227429  11.607   3.152   3.695  0.1446  1.6405  0.7630
38484SOL     OW27430   6.946  11.857   3.928 -0.9392  0.2038 -0.1053
38484SOL    HW127431   6.982  11.910   3.999 -2.1985  0.2503  0.5190
38484SOL    HW227432   6.859  11.894   3.912 -0.7317  0.0938 -1.5718
38485SOL     OW27433   8.629  10.216   8.939 -0.0357 -0.1227  0.0190
38485SOL    HW127434   8.620  10.128   8.901  1.4213  0.2467 -1.2951
38485SOL    HW227435   8.540  10.250   8.939 -0.1786 -0.0563 -3.5135
38486SOL     OW27436  11.291   1.521  12.446  0.1943  0.1128  0.2291
38486SOL    HW127437  11.275   1.598  12.500  1.0004  0.5354 -0.1159
38486SOL    HW227438  11.351   1.467  12.497  0.1905  0.0524  0.1711
38487SOL     OW27439   7.271  10.761   2.023  0.3890  0.2240 -0.2459
38487SOL    HW127440   7.181  10.757   1.992  0.7398 -0.6629 -1.2065
38487SOL    HW227441   7.283  10.852   2.052 -0.4679  0.6393 -1.1498
38488SOL     OW27442   6.569   1.682   9.667  0.6313  0.1462  0.0004
38488SOL    HW127443   6.524   1.601   9.690  1.7733 -0.4780  0.1479
38488SOL    HW227444   6.515   1.722   9.599  0.6460 -1.3505 -0.9404
38489SOL     OW27445   4.383  13.154   1.232 -0.5138  0.0508  0.0096
38489SOL    HW127446   4.377  13.244   1.200 -1.4501 -0.3529 -1.0012
38489SOL    HW227447   4.474  13.129   1.217  0.2806  1.4268  2.0548
38490SOL     OW27448   1.066  11.463  11.669  0.2071 -0.3436 -0.1383
38490SOL    HW127449   1.087  11.375  11.637 -2.8312 -1.3172  0.2364
38490SOL    HW227450   1.037  11.510  11.591 -0.8693 -0.5966  0.1019
38491SOL     OW27451   5.315   7.527   0.570 -0.4765  0.0218 -0.5126
38491SOL    HW127452   5.296   7.451   0.624  0.9420 -1.3169 -1.7897
38491SOL    HW227453   5.249   7.526   0.501  0.0222 -0.5545 -0.9921
38492SOL     OW27454  11.334   1.073   2.318 -0.6061  0.0130  0.1899
38492SOL    HW127455  11.394   1.056   2.246 -2.4328 -0.6071 -1.2429
38492SOL    HW227456  11.251   1.035   2.291 -1.3728 -0.2381  2.6365
38493SOL     OW27457  11.404   2.206  11.517 -0.1181 -0.0334  0.2290
38493SOL    HW127458  11.448   2.234  11.437  0.4710 -0.1612  0.5066
38493SOL    HW227459  11.406   2.111  11.514  0.0494 -0.0381  0.4766
38494SOL     OW27460  13.573   2.602  12.400  0.2182  0.3599 -0.3143
38494SOL    HW127461  13.499   2.655  12.370 -0.0423  1.1493  1.5749
38494SOL    HW227462  13.645   2.665  12.408  0.3995  0.0817  0.2403
38495SOL     OW27463   3.856   7.399   0.874  0.2464  0.2369  0.1031
38495SOL    HW127464   3.891   7.488   0.882 -1.9736  1.0587  1.2411
38495SOL    HW227465   3.915   7.357   0.811  2.2318  2.0220  0.6416
38496SOL     OW27466   0.179  11.290   1.046 -0.0919 -0.3672  0.7624
38496SOL    HW127467   0.130  11.222   1.000 -0.6347  0.6023 -0.1422
38496SOL    HW227468   0.209  11.349   0.977  0.2325  0.3966  1.5375
38497SOL     OW27469  13.694  12.753   0.526  0.3164 -0.2146 -0.5850
38497SOL    HW127470  13.772  12.757   0.471  0.8646  0.6870  0.2250
38497SOL    HW227471  13.708  12.821   0.592 -0.8843 -0.4448 -0.0699
38498SOL     OW27472   6.686   0.156  12.019 -0.1290 -0.1718  0.0786
38498SOL    HW127473   6.648   0.102  12.088  0.2012 -1.0963 -0.4483
38498SOL    HW227474   6.611   0.188  11.969 -0.2560 -2.1359 -1.0734
38499SOL     OW27475  13.111  13.544  13.560 -0.2776  0.0253 -0.0399
38499SOL    HW127476  13.117  13.579  13.471 -2.9070 -0.3772 -0.4674
38499SOL    HW227477  13.124  13.620  13.616  2.6671  0.0748 -0.6605
38500SOL     OW27478   4.282   6.935   7.971 -0.0053  0.3142  0.2546
38500SOL    HW127479   4.346   6.864   7.972  0.0663  0.3603 -0.4645
38500SOL    HW227480   4.329   7.011   7.937  0.2553  1.0661  2.1768
38501SOL     OW27481  10.587   5.291   6.961  0.3811 -0.6904 -0.3206
38501SOL    HW127482  10.570   5.354   6.891  0.6390  0.6517  0.7943
38501SOL    HW227483  10.560   5.335   7.041 -1.0491 -2.6592  0.3600
38502SOL     OW27484   1.731   9.773   9.907  0.2726 -0.2815  0.0664
38502SOL    HW127485   1.652   9.788   9.960  0.5085  0.6487  0.1720
38502SOL    HW227486   1.750   9.680   9.919 -0.8996 -0.5614 -0.0888
38503SOL     OW27487  12.217  11.362   1.177  0.1937 -0.1146  0.5128
38503SOL    HW127488  12.179  11.289   1.226 -1.5020  0.7791  0.6038
38503SOL    HW227489  12.241  11.426   1.244  0.7834 -0.1798  0.3684
38504SOL     OW27490   4.594   2.395   8.818 -0.2211 -0.1680 -0.1548
38504SOL    HW127491   4.506   2.423   8.846 -0.8068 -2.4658  0.4966
38504SOL    HW227492   4.589   2.300   8.815  2.3853 -0.3962  0.3006
38505SOL     OW27493  13.099   9.505   5.870 -0.0093 -0.1823 -0.7049
38505SOL    HW127494  13.175   9.470   5.918  0.1523 -0.6961 -1.3226
38505SOL    HW227495  13.114   9.600   5.868  1.3648 -0.3708 -2.0124
38506SOL     OW27496   3.591   3.772  13.267  0.4148 -0.1642  0.2259
38506SOL    HW127497   3.634   3.807  13.188  1.1430  0.1795  0.7533
38506SOL    HW227498   3.504   3.746  13.238 -0.1230  1.9606 -0.2526
38507SOL     OW27499   5.859   0.350   1.591  0.0421 -0.0429  0.5746
38507SOL    HW127500   5.763   0.353   1.586  0.0820  0.2686 -0.0341
38507SOL    HW227501   5.881   0.257   1.585 -0.2519 -0.1844  1.4402
38508SOL     OW27502   9.148   4.034   0.704 -0.0829  0.1076  0.2764
38508SOL    HW127503   9.131   4.127   0.720  2.0594  0.3205  1.6310
38508SOL    HW227504   9.137   4.024   0.609 -1.0105  1.5688  0.1903
38509SOL     OW27505   9.513   3.358  11.723  0.0305 -0.1484 -0.1318
38509SOL    HW127506   9.457   3.281  11.712  1.9041 -1.4317 -1.3115
38509SOL    HW227507   9.480   3.421  11.659 -0.0922 -0.8756 -0.7956
38510SOL     OW27508  12.152   7.251   8.814 -0.8428  0.1819 -0.0106
38510SOL    HW127509  12.059   7.253   8.834 -0.5822  0.3672  1.3004
38510SOL    HW227510  12.189   7.192   8.880 -0.0895 -0.2214 -0.7804
38511SOL     OW27511   4.843   7.107   4.858 -0.2230 -0.3070  0.4041
38511SOL    HW127512   4.934   7.099   4.887  0.8932  2.4374 -1.9073
38511SOL    HW227513   4.826   7.026   4.809  1.1261 -0.6443  0.4481
38512SOL     OW27514  13.671   9.213   9.339  0.0320 -0.1145 -0.0610
38512SOL    HW127515  13.677   9.129   9.292 -0.9724  0.1177 -0.6468
38512SOL    HW227516  13.602   9.261   9.292 -0.6107  0.3508  1.3243
38513SOL     OW27517  13.781   6.268   1.911  0.3247 -0.3706 -0.0714
38513SOL    HW127518  13.824   6.268   1.996 -2.8839 -1.8156  1.7545
38513SOL    HW227519  13.763   6.360   1.892  0.0817 -0.0825  1.4394
38514SOL     OW27520   7.765   1.068  12.265 -0.4781  0.2054 -0.2988
38514SOL    HW127521   7.819   1.096  12.191 -0.0888  2.0261  0.6065
38514SOL    HW227522   7.825   1.070  12.340 -0.9498 -1.2797  0.1451
38515SOL     OW27523   3.202  12.275   7.547  0.8667 -0.1909  0.1437
38515SOL    HW127524   3.263  12.335   7.590  0.0793  0.5420  0.2458
38515SOL    HW227525   3.208  12.296   7.454 -0.7512  1.3564  0.3297
38516SOL     OW27526   1.465   7.652  11.093  0.2676  0.3187 -0.2984
38516SOL    HW127527   1.425   7.689  11.014  1.4504 -0.7100 -1.4272
38516SOL    HW227528   1.486   7.728  11.147 -0.4504  1.0563 -1.0229
38517SOL     OW27529   2.665   9.552   9.330  0.2559 -0.0874  0.3616
38517SOL    HW127530   2.614   9.471   9.328 -0.8483  0.4873  2.5017
38517SOL    HW227531   2.669   9.575   9.423  1.9263  1.4802 -0.0415
38518SOL     OW27532   6.240  11.469   5.497  0.1673 -0.1207  0.4888
38518SOL    HW127533   6.314  11.408   5.505 -0.6215 -1.0022  1.3559
38518SOL    HW227534   6.257  11.516   5.415  0.9657 -1.3007 -0.0558
38519SOL     OW27535   9.759   0.571  12.178  0.3569  0.1453  0.2082
38519SOL    HW127536   9.798   0.634  12.118 -2.6669 -0.5484 -2.7646
38519SOL    HW227537   9.817   0.494  12.173  0.2363  0.1325 -1.8517
38520SOL     OW27538  12.199   2.651   2.677 -0.3233 -0.2367 -0.3863
38520SOL    HW127539  12.208   2.601   2.758  2.5885  0.1123 -0.3982
38520SOL    HW227540  12.106   2.674   2.674 -0.6239 -0.6071  2.6301
38521SOL     OW27541   5.307  10.364   3.232 -0.3332 -0.2273 -0.5019
38521SOL    HW127542   5.346  10.448   3.256  0.1697 -0.2665 -1.1738
38521SOL    HW227543   5.337  10.304   3.299 -0.2184  0.0023 -0.3446
38522SOL     OW27544   5.984   2.541  12.159 -0.2165  0.3383  0.0090
38522SOL    HW127545   5.929   2.610  12.122  1.1138  1.9307  0.8478
38522SOL    HW227546   6.006   2.572  12.247 -0.6383 -1.8098  0.9265
38523SOL     OW27547   6.098  12.547   8.565 -0.4140 -0.1653  0.0720
38523SOL    HW127548   6.161  12.477   8.545  0.9968  1.0056  0.2141
38523SOL    HW227549   6.093  12.599   8.485 -0.6360  0.1650  0.2949
38524SOL     OW27550   6.052   5.799   6.516  0.1185  0.3678 -0.1481
38524SOL    HW127551   6.108   5.722   6.526  0.4210  0.8732  2.6563
38524SOL    HW227552   6.106   5.872   6.545 -0.5267  1.5502 -1.7491
38525SOL     OW27553   9.574   7.457  11.635 -0.3068 -0.0558  0.1672
38525SOL    HW127554   9.591   7.525  11.701 -1.2728 -0.0877  0.4559
38525SOL    HW227555   9.658   7.449  11.589 -0.5265  2.3746 -0.8381
38526SOL     OW27556   5.244   4.569   0.712  0.1280  0.4748 -0.1936
38526SOL    HW127557   5.157   4.585   0.748  1.1192  1.7627  1.7849
38526SOL    HW227558   5.245   4.617   0.630 -2.0526 -2.1910 -1.9984
38527SOL     OW27559  12.717   8.439   5.371  0.5243  0.3524 -0.0458
38527SOL    HW127560  12.754   8.522   5.341  0.0526  0.3754 -0.5853
38527SOL    HW227561  12.731   8.379   5.298  1.5573 -0.2708  0.6308
38528SOL     OW27562  11.358  13.080   6.697  0.0049 -0.3339 -0.1537
38528SOL    HW127563  11.429  13.132   6.733 -0.8759 -0.1526  1.4472
38528SOL    HW227564  11.300  13.144   6.654 -1.9816  0.4476  3.2922
38529SOL     OW27565  12.611   2.483  14.043 -0.1695 -0.3999  0.5660
38529SOL    HW127566  12.548   2.435  14.096  0.3502 -1.5305  0.1903
38529SOL    HW227567  12.684   2.421  14.030  0.4019  0.3994 -0.1491
38530SOL     OW27568   0.126   8.729   3.197 -0.1582  0.3708 -0.2109
38530SOL    HW127569   0.127   8.642   3.237  2.0987 -0.2315 -1.4199
38530SOL    HW227570   0.215   8.763   3.212 -1.0451  2.5863  0.4054
38531SOL     OW27571  10.354  10.522   9.155  0.7642  0.5303 -0.1455
38531SOL    HW127572  10.307  10.490   9.232 -0.2837  1.3945 -0.4045
38531SOL    HW227573  10.447  10.517   9.180  0.4794  0.1001  0.8871
38532SOL     OW27574   1.201  11.986  13.397  0.1825 -0.2465  0.3279
38532SOL    HW127575   1.155  12.039  13.332 -1.3689 -1.5855  0.2634
38532SOL    HW227576   1.227  12.048  13.465 -4.5198  0.3316  1.9695
38533SOL     OW27577  13.003  10.054   6.360  0.0423  0.1852 -0.0987
38533SOL    HW127578  13.012  10.049   6.455 -1.2977  1.2945  0.1218
38533SOL    HW227579  12.911  10.036   6.344  0.1270  0.6052 -1.1352
38534SOL     OW27580  10.836   1.264  10.913 -0.2198 -0.2349  0.0542
38534SOL    HW127581  10.911   1.203  10.915 -0.3872 -0.4249  0.6985
38534SOL    HW227582  10.876   1.351  10.914  0.0225 -0.3195 -0.8091
38535SOL     OW27583   0.809   1.069  11.391  0.2477  0.1250 -0.1577
38535SOL    HW127584   0.723   1.109  11.377 -0.2236 -1.0794 -0.8856
38535SOL    HW227585   0.865   1.107  11.324  0.2184  0.7021  0.1384
38536SOL     OW27586   2.546   6.515   0.821  0.2847  0.1716 -0.0132
38536SOL    HW127587   2.459   6.547   0.844  0.1820 -1.0533  1.4847
38536SOL    HW227588   2.589   6.589   0.779 -1.0697  1.1754  0.3015
38537SOL     OW27589   3.200   2.407   2.654  0.7045 -0.6882 -0.1856
38537SOL    HW127590   3.219   2.484   2.708 -1.3462 -1.3997  1.6869
38537SOL    HW227591   3.264   2.342   2.682  0.2748 -0.7357  0.7211
38538SOL     OW27592  13.051   6.621  11.622  0.3741  0.4964  0.1281
38538SOL    HW127593  13.088   6.551  11.568 -0.2424 -0.6689  1.1573
38538SOL    HW227594  13.048   6.584  11.710 -0.1580  1.7557  0.6576
38539SOL     OW27595   7.202   5.166  13.232  0.1379 -0.0577  0.6006
38539SOL    HW127596   7.282   5.181  13.182  0.4621  0.5762  1.2883
38539SOL    HW227597   7.156   5.097  13.184 -0.0938  1.2615 -1.1965
38540SOL     OW27598   7.908   7.116  11.439  0.0358  0.0113 -0.2169
38540SOL    HW127599   7.951   7.072  11.365  1.6784  1.6720 -0.3368
38540SOL    HW227600   7.819   7.133  11.408  0.2904 -0.4922 -1.3035
38541SOL     OW27601  12.522  10.270  11.391 -0.0657  0.3748 -0.3294
38541SOL    HW127602  12.605  10.292  11.432 -0.0687  1.5536 -0.9119
38541SOL    HW227603  12.475  10.354  11.386 -1.2570 -0.2554 -0.0874
38542SOL     OW27604   5.717   0.433   8.487  0.1301  0.5649  0.0364
38542SOL    HW127605   5.626   0.429   8.514 -0.0920  0.3150 -0.7357
38542SOL    HW227606   5.763   0.470   8.563 -0.5306  0.2355  0.6068
38543SOL     OW27607   0.827  12.394   9.950  0.3894  0.1979  0.3871
38543SOL    HW127608   0.857  12.382   9.860 -1.5638  0.5435 -0.3561
38543SOL    HW227609   0.805  12.305   9.979 -1.5554  0.3608 -0.4701
38544SOL     OW27610   6.563  12.242   5.539  0.6174  0.2930 -0.5928
38544SOL    HW127611   6.536  12.199   5.620  0.5852  0.6689 -0.4032
38544SOL    HW227612   6.537  12.180   5.470  0.5739  0.0075 -0.3248
38545SOL     OW27613   7.859   4.992   9.396 -0.4235  0.0422 -0.2702
38545SOL    HW127614   7.925   4.978   9.328 -0.8183 -0.0766 -0.6312
38545SOL    HW227615   7.810   4.910   9.401 -0.3369  0.0129  0.2305
38546SOL     OW27616   0.637  13.190  13.253  0.4018  0.3410  0.1623
38546SOL    HW127617   0.706  13.180  13.187 -0.3471 -0.8283 -0.4572
38546SOL    HW227618   0.681  13.234  13.326  1.4301  0.9700 -0.8024
38547SOL     OW27619   0.888   7.432   9.911  0.1412 -0.3988  0.2350
38547SOL    HW127620   0.980   7.431   9.939  1.0570  1.4733 -2.3104
38547SOL    HW227621   0.844   7.484   9.978  2.0623  3.1886 -1.0098
38548SOL     OW27622  10.431  13.582   6.563 -0.3060 -0.5775 -0.3667
38548SOL    HW127623  10.421  13.637   6.485 -0.3730  0.6238  0.4490
38548SOL    HW227624  10.359  13.609   6.621 -0.6185 -1.8776 -0.1335
38549SOL     OW27625   6.461   9.712  12.551 -0.5260 -0.5430 -0.2155
38549SOL    HW127626   6.386   9.717  12.610 -0.8943  0.1105 -0.7198
38549SOL    HW227627   6.455   9.792  12.499  0.7575 -0.2787  0.0111
38550SOL     OW27628   8.339  10.483  10.147  0.2300  0.7992 -0.5965
38550SOL    HW127629   8.363  10.406  10.095 -0.4372  1.4525 -1.9276
38550SOL    HW227630   8.394  10.554  10.111  0.2803  1.1164  0.0860
38551SOL     OW27631   8.740  11.343   8.139  0.5203  0.3679  0.2218
38551SOL    HW127632   8.772  11.384   8.219 -0.0657 -0.3134  0.8192
38551SOL    HW227633   8.683  11.409   8.099  2.9245  1.8158 -1.1321
38552SOL     OW27634  12.485  13.580   6.236 -0.7019 -0.4723 -0.4596
38552SOL    HW127635  12.578  13.590   6.256 -0.1110  0.6477 -3.2023
38552SOL    HW227636  12.440  13.635   6.300  0.6506  0.0472  0.0739
38553SOL     OW27637  11.922   3.455   2.621  0.2938 -0.1411  0.0564
38553SOL    HW127638  11.956   3.441   2.709 -0.9615 -1.1682  0.4132
38553SOL    HW227639  11.940   3.374   2.575  1.6708  0.6778 -0.9195
38554SOL     OW27640   6.793  10.840  11.103  0.0257 -0.0940  0.2293
38554SOL    HW127641   6.818  10.882  11.185  1.2776 -0.6017  0.1217
38554SOL    HW227642   6.833  10.893  11.035  1.9527 -1.5989  0.1072
38555SOL     OW27643   9.502   5.293  10.987  0.1502  0.1362 -0.3042
38555SOL    HW127644   9.507   5.234  10.912  0.1773 -0.2962  0.0372
38555SOL    HW227645   9.420   5.270  11.031  1.0301 -0.8832  0.8509
38556SOL     OW27646   3.463   7.652  12.973  0.0323 -0.3772 -0.1196
38556SOL    HW127647   3.377   7.608  12.973 -1.3893  2.1605 -1.3914
38556SOL    HW227648   3.455   7.719  12.905  2.4414  1.1333  0.9731
38557SOL     OW27649   1.120   0.101  12.484  0.5398  0.2117 -0.4711
38557SOL    HW127650   1.149   0.174  12.431  2.5378 -0.6192 -0.6347
38557SOL    HW227651   1.025   0.101  12.476  0.6536  1.2725 -2.4694
38558SOL     OW27652   0.930   3.856   3.208 -0.1217  1.0126  0.0685
38558SOL    HW127653   0.965   3.855   3.297 -0.2795  1.9463  0.1527
38558SOL    HW227654   1.007   3.869   3.152 -0.0115  0.3350  0.0564
38559SOL     OW27655   9.797  13.065   2.857  0.3502 -0.3610  0.0293
38559SOL    HW127656   9.767  13.090   2.945  0.7792  0.9077 -0.1675
38559SOL    HW227657   9.726  13.094   2.800  1.0922  0.9944 -0.2555
38560SOL     OW27658   0.542   6.356   7.603  0.0392  0.8506  0.1079
38560SOL    HW127659   0.566   6.431   7.547  0.1610  0.7540  0.0284
38560SOL    HW227660   0.496   6.296   7.544  0.2792  0.6914  0.0799
38561SOL     OW27661   7.295   9.982   7.022 -0.6006  0.4356 -0.3996
38561SOL    HW127662   7.323  10.016   6.937  1.0193 -0.4368 -0.2496
38561SOL    HW227663   7.205   9.953   7.008  0.1563 -1.1991 -2.2852
38562SOL     OW27664   3.764   9.441   0.097  0.2140 -0.8580  0.0803
38562SOL    HW127665   3.855   9.410   0.096  0.1359 -1.1547  1.0470
38562SOL    HW227666   3.772   9.537   0.104  0.4698 -0.9349  1.0470
38563SOL     OW27667  11.669  10.433  12.496 -0.3880 -0.3698 -0.6837
38563SOL    HW127668  11.590  10.396  12.535  0.3688 -3.1176 -1.5044
38563SOL    HW227669  11.739  10.408  12.556  0.0989  0.3651 -0.9295
38564SOL     OW27670   2.357  11.555  11.970  0.2809  0.5987  0.0784
38564SOL    HW127671   2.340  11.504  12.049  0.1723  0.7222  0.1349
38564SOL    HW227672   2.433  11.608  11.992  0.6459  0.1625 -0.1207
38565SOL     OW27673   6.551   3.725   6.484  0.5290  0.7714 -0.2171
38565SOL    HW127674   6.567   3.640   6.441 -1.5014 -0.1177  0.6246
38565SOL    HW227675   6.617   3.730   6.552  0.1347 -0.6184  0.3219
38566SOL     OW27676  13.637   1.293   8.844  0.0144 -0.5051 -0.1226
38566SOL    HW127677  13.648   1.365   8.906 -1.7930  0.4568 -0.8189
38566SOL    HW227678  13.691   1.318   8.769 -0.4089  0.0381 -0.2594
38567SOL     OW27679  11.890  10.513   4.982  0.3127  0.2096 -0.6712
38567SOL    HW127680  11.814  10.514   4.924  0.1497  0.3497 -0.4563
38567SOL    HW227681  11.854  10.494   5.068  0.7253 -1.5592 -0.8533
38568SOL     OW27682   1.196   8.117  11.134  0.6164 -0.2627  0.2139
38568SOL    HW127683   1.116   8.122  11.186  1.8152  0.3110  2.0739
38568SOL    HW227684   1.259   8.073  11.190  1.8757  0.0606 -0.8934
38569SOL     OW27685  11.969  10.967   6.988  0.3484  0.0005  0.4102
38569SOL    HW127686  11.985  10.983   7.081  2.5712  0.0433  0.0869
38569SOL    HW227687  12.031  10.898   6.965 -0.0732  0.0939 -1.0812
38570SOL     OW27688   9.262   3.306   8.864 -0.4276 -0.1717 -0.0356
38570SOL    HW127689   9.232   3.383   8.911  0.5589  0.3149 -0.1781
38570SOL    HW227690   9.270   3.335   8.773  2.4801  0.3822  0.2953
38571SOL     OW27691   3.360   9.238   2.027  0.4457 -0.7930 -0.8698
38571SOL    HW127692   3.289   9.225   2.091  0.8334 -0.3548 -0.3440
38571SOL    HW227693   3.335   9.184   1.952 -0.9611  0.1112 -1.0965
38572SOL     OW27694   8.618   9.526   7.267  0.2190 -0.0678  0.1482
38572SOL    HW127695   8.657   9.470   7.334  3.1186  2.4968  0.8378
38572SOL    HW227696   8.525   9.525   7.286 -0.0363 -4.8634 -0.2046
38573SOL     OW27697   5.499   5.661   5.604  0.2322  0.1594 -0.7081
38573SOL    HW127698   5.417   5.619   5.579  0.5407 -0.1745 -1.1707
38573SOL    HW227699   5.481   5.754   5.600 -0.0796  0.0874 -0.9705
38574SOL     OW27700  11.757  12.471  11.627 -0.2031  0.2248 -0.0610
38574SOL    HW127701  11.707  12.533  11.680  0.5460 -0.0528  1.0138
38574SOL    HW227702  11.842  12.514  11.615  0.2949 -0.5315  0.6190
38575SOL     OW27703  12.453  12.136  10.575  0.1375 -0.3016  0.1303
38575SOL    HW127704  12.472  12.042  10.579 -0.0100 -0.3547 -0.4239
38575SOL    HW227705  12.408  12.154  10.658  0.9679 -0.5345  0.6417
38576SOL     OW27706   7.315   4.804  12.253 -0.6712  0.5929  0.3985
38576SOL    HW127707   7.275   4.867  12.314 -1.9776 -0.1553  0.3438
38576SOL    HW227708   7.297   4.841  12.166  0.3830  1.1859  0.4179
38577SOL     OW27709   4.325   1.962   8.017  0.2418  0.1753 -0.0646
38577SOL    HW127710   4.387   1.893   7.992  1.1386  0.9812 -0.1334
38577SOL    HW227711   4.375   2.043   8.010 -0.2479  0.6907  1.7454
38578SOL     OW27712   6.004   6.098   0.880 -0.3344  0.2418  0.3597
38578SOL    HW127713   6.036   6.038   0.812 -3.2031  0.8790 -1.7568
38578SOL    HW227714   6.075   6.161   0.891  0.4913 -0.2261 -1.6872
38579SOL     OW27715   7.241   3.481   2.753  0.1187  0.0690  0.2056
38579SOL    HW127716   7.192   3.480   2.671 -0.7697  1.1889  0.6899
38579SOL    HW227717   7.199   3.413   2.806 -0.7109  0.7767  0.4839
38580SOL     OW27718  10.091  13.431   9.258  0.1877 -0.6034 -0.1938
38580SOL    HW127719  10.107  13.467   9.170  0.8537 -1.5746 -0.4861
38580SOL    HW227720   9.996  13.430   9.265  0.1230 -0.5231 -0.9132
38581SOL     OW27721  10.871   7.211   4.102 -0.1865 -0.5880  0.0541
38581SOL    HW127722  10.803   7.213   4.169 -2.2249  0.2301 -1.9225
38581SOL    HW227723  10.923   7.290   4.118 -0.6175 -0.4297  0.7096
38582SOL     OW27724   6.325  12.207   9.988  0.6009  0.3652  0.0234
38582SOL    HW127725   6.375  12.285  10.011  1.2363  0.1426 -0.5921
38582SOL    HW227726   6.391  12.140   9.971  0.0542 -0.6198  1.5531
38583SOL     OW27727  13.507  13.753   0.789  0.2468  0.1636 -0.2316
38583SOL    HW127728  13.581  13.740   0.848 -0.1460  0.5753  0.3593
38583SOL    HW227729  13.534  13.825   0.731  0.8000 -0.5220 -0.8433
38584SOL     OW27730  12.177   4.216   4.979 -0.2594  0.5110 -0.3628
38584SOL    HW127731  12.110   4.177   5.035 -0.0256  1.3071  0.4976
38584SOL    HW227732  12.133   4.230   4.895 -1.4690  1.8445  0.4477
38585SOL     OW27733   2.880  12.058   0.817  0.3548  0.0901 -0.1453
38585SOL    HW127734   2.863  12.004   0.894 -1.2546  2.3880  1.2414
38585SOL    HW227735   2.964  12.101   0.836  0.0382  0.5294  0.2805
38586SOL     OW27736   1.526   3.761   0.269  0.5852 -0.5405 -0.0598
38586SOL    HW127737   1.469   3.693   0.306 -0.1090  0.1789  0.2168
38586SOL    HW227738   1.562   3.806   0.346 -0.7844  0.8975 -0.2361
38587SOL     OW27739   9.448   8.057   5.162  0.1162  0.2295 -0.6472
38587SOL    HW127740   9.533   8.031   5.199  0.0533 -0.3336 -0.8737
38587SOL    HW227741   9.435   7.996   5.089 -0.7732 -0.1001 -0.2283
38588SOL     OW27742  10.786   3.298   5.336  0.3500  0.1616  0.0763
38588SOL    HW127743  10.769   3.392   5.337 -2.5485 -0.1851 -2.4468
38588SOL    HW227744  10.710   3.259   5.378  1.4076 -1.1331  0.8982
38589SOL     OW27745  12.342   2.154   5.237 -0.6588 -0.1495  0.2433
38589SOL    HW127746  12.418   2.097   5.241 -0.1385  0.5309  0.3699
38589SOL    HW227747  12.350   2.209   5.315  0.1011  1.6147 -1.0001
38590SOL     OW27748   4.604  12.573   1.610 -0.0693 -0.2570 -0.1940
38590SOL    HW127749   4.619  12.545   1.700  2.6760  1.5764  0.0280
38590SOL    HW227750   4.523  12.624   1.614 -0.6406 -1.1909  0.9349
38591SOL     OW27751   8.224   2.660   5.227  0.1795 -0.4580 -0.2651
38591SOL    HW127752   8.208   2.754   5.226  3.0352  0.1146 -1.5526
38591SOL    HW227753   8.164   2.625   5.161  0.6154  0.8014 -1.3673
38592SOL     OW27754   8.730  13.660  11.665  0.0970  0.2329  0.1180
38592SOL    HW127755   8.697  13.575  11.693 -0.9483  0.4369 -0.4439
38592SOL    HW227756   8.824  13.656  11.682  0.3266 -1.5911 -1.2437
38593SOL     OW27757   0.846  10.553   0.355 -0.3928  0.1626 -0.0762
38593SOL    HW127758   0.843  10.461   0.328  1.4468  0.3314 -1.0063
38593SOL    HW227759   0.889  10.598   0.282  0.3679  1.4637  1.1246
38594SOL     OW27760   3.759   0.220   4.836 -0.2173 -0.5052 -0.2996
38594SOL    HW127761   3.672   0.233   4.872 -0.4518  0.6927 -1.2193
38594SOL    HW227762   3.791   0.139   4.876 -1.2214 -0.2572  1.0434
38595SOL     OW27763   2.458   8.677   1.286  0.1231 -0.0180  0.1858
38595SOL    HW127764   2.439   8.740   1.216 -0.4574  0.0449  0.3980
38595SOL    HW227765   2.467   8.593   1.241  0.9632  0.2130 -0.1087
38596SOL     OW27766  12.123  13.128   2.475  0.1430  0.2202  0.0244
38596SOL    HW127767  12.198  13.177   2.507 -0.0352 -0.1755  1.0861
38596SOL    HW227768  12.073  13.105   2.554 -1.7580  1.5400 -0.7126
38597SOL     OW27769   7.549   5.417   3.371 -0.1191 -0.0433 -0.0510
38597SOL    HW127770   7.493   5.472   3.425  0.8642 -0.2263  1.2070
38597SOL    HW227771   7.505   5.332   3.369 -1.6432  0.7012 -2.0040
38598SOL     OW27772   1.435   8.018   3.524  0.5565 -0.3021 -0.2407
38598SOL    HW127773   1.485   7.951   3.477  0.9576  0.7940 -1.4443
38598SOL    HW227774   1.500   8.084   3.547  0.2132 -0.4328  1.1894
38599SOL     OW27775   0.285   6.558   5.571  0.2154  0.0157  0.6374
38599SOL    HW127776   0.353   6.625   5.569 -0.8134  1.0651 -0.0274
38599SOL    HW227777   0.230   6.577   5.496  0.1001 -1.8215  0.2138
38600SOL     OW27778  10.878   4.844   5.086  0.3543 -0.0780 -0.1351
38600SOL    HW127779  10.805   4.821   5.028  0.1406 -0.2283  0.1879
38600SOL    HW227780  10.876   4.940   5.089  0.0107 -0.0892  0.0707
38601SOL     OW27781   8.129   2.692  12.031  0.1334 -0.2736  0.3299
38601SOL    HW127782   8.057   2.650  12.077 -0.4088 -1.2043 -1.2794
38601SOL    HW227783   8.090   2.725  11.950  1.3432 -0.0351 -0.1791
38602SOL     OW27784   4.650   4.212   3.057  0.2511 -0.9771 -0.4592
38602SOL    HW127785   4.713   4.283   3.070  0.4454 -1.2307 -0.0128
38602SOL    HW227786   4.640   4.173   3.143  0.6804 -1.9497 -0.8351
38603SOL     OW27787   8.773   2.348   3.962  0.4788 -0.2959  0.2961
38603SOL    HW127788   8.865   2.367   3.943  1.6692 -4.8638  0.3232
38603SOL    HW227789   8.744   2.293   3.889 -2.1584  0.7188  0.4901
38604SOL     OW27790   4.421  11.963   0.974 -0.1973 -0.4535  0.4672
38604SOL    HW127791   4.350  11.913   1.014 -1.6129 -0.3531 -1.7199
38604SOL    HW227792   4.400  12.054   0.993  0.4245 -0.5054  1.4423
38605SOL     OW27793   1.569   6.782   2.510  0.0017 -0.5882  0.0496
38605SOL    HW127794   1.632   6.734   2.563  0.2281 -1.1569 -0.7147
38605SOL    HW227795   1.484   6.744   2.533 -0.1151  0.3837  1.3020
38606SOL     OW27796   5.771  12.865   5.083  0.7606  0.4346  0.1764
38606SOL    HW127797   5.715  12.792   5.058  1.4248  0.0218 -0.1360
38606SOL    HW227798   5.851  12.852   5.032  1.4867  0.5075  1.2615
38607SOL     OW27799   9.391  10.982   8.230  0.0259 -0.4348 -0.6345
38607SOL    HW127800   9.374  10.887   8.226  2.0204 -0.8184 -1.2655
38607SOL    HW227801   9.483  10.990   8.207  0.3847  1.5422  1.2519
38608SOL     OW27802   2.367  12.611  10.668  0.7650 -0.2663 -0.1493
38608SOL    HW127803   2.372  12.539  10.606 -0.0946 -0.3504 -0.1342
38608SOL    HW227804   2.385  12.571  10.753 -0.2585 -0.5882 -0.0672
38609SOL     OW27805  10.843   8.806  10.860 -0.3003 -0.2418  0.0007
38609SOL    HW127806  10.758   8.808  10.815 -1.0209 -0.6965  1.3121
38609SOL    HW227807  10.880   8.720  10.836  0.4010  0.4582 -1.6029
38610SOL     OW27808  13.234   7.412  13.436 -0.0892 -0.0337 -0.2815
38610SOL    HW127809  13.286   7.412  13.356  0.2927 -0.8529 -0.0503
38610SOL    HW227810  13.235   7.503  13.466  1.8974 -0.1337  0.1417
38611SOL     OW27811   9.589   6.345   9.878 -0.1493 -0.1664  0.3428
38611SOL    HW127812   9.650   6.419   9.886  0.0400 -0.2064 -0.6365
38611SOL    HW227813   9.636   6.272   9.918 -0.5648  0.3414  1.8554
38612SOL     OW27814  10.431   4.539   1.098 -0.4749 -0.2317 -0.2610
38612SOL    HW127815  10.389   4.466   1.053 -0.6432 -0.6326  0.5340
38612SOL    HW227816  10.361   4.580   1.149  0.2062 -1.3504  1.6527
38613SOL     OW27817   1.163  13.510   9.354 -0.5820  0.2818  0.3134
38613SOL    HW127818   1.151  13.475   9.443  1.3666  1.3912  1.0792
38613SOL    HW227819   1.252  13.483   9.330 -0.6148  1.0811 -0.7719
38614SOL     OW27820   4.255  10.989   0.537 -0.2024  0.7372  0.0496
38614SOL    HW127821   4.206  10.991   0.455 -0.7569  1.2250  0.3869
38614SOL    HW227822   4.267  11.081   0.560 -0.4015  0.6028  0.7167
38615SOL     OW27823   9.775   9.382  12.537 -0.7525  1.0027 -0.4514
38615SOL    HW127824   9.700   9.393  12.596 -0.6002 -1.0122  0.1979
38615SOL    HW227825   9.739   9.335  12.462 -0.1153 -0.3920  0.0669
38616SOL     OW27826  10.289   6.053   8.622 -0.2233 -0.2160 -0.0829
38616SOL    HW127827  10.294   6.096   8.537  0.5507 -0.9635 -0.4361
38616SOL    HW227828  10.198   6.026   8.631  0.1421 -2.3582 -1.8427
38617SOL     OW27829  11.645   1.843   0.236  1.1110 -0.0656 -0.7509
38617SOL    HW127830  11.625   1.751   0.254  1.5609 -0.2470 -1.1417
38617SOL    HW227831  11.661   1.881   0.322 -1.7589  0.3322 -0.2920
38618SOL     OW27832   8.940  12.886  11.011 -0.1625 -0.8346 -0.7153
38618SOL    HW127833   8.993  12.808  11.020 -0.1662 -0.6778  1.0311
38618SOL    HW227834   9.003  12.957  10.999  0.0867 -0.6441  1.3781
38619SOL     OW27835   5.659   0.278  10.754  0.3047  0.0677  0.6804
38619SOL    HW127836   5.623   0.195  10.786 -1.5181  0.1889 -0.8802
38619SOL    HW227837   5.583   0.328  10.727  1.4084  2.0907  1.1233
38620SOL     OW27838  13.224   0.266  13.348  0.6586 -0.3657 -0.1280
38620SOL    HW127839  13.134   0.252  13.377  0.8448 -1.4124 -0.0171
38620SOL    HW227840  13.266   0.311  13.421  0.3947 -0.4754  0.0913
38621SOL     OW27841   8.942   1.140   8.432 -0.2607 -0.3535 -0.8989
38621SOL    HW127842   8.881   1.117   8.502  1.5402  1.7929  1.5866
38621SOL    HW227843   9.007   1.071   8.434  0.2324  0.1138  0.2007
38622SOL     OW27844   5.067  10.494   6.809  0.0116 -0.5790  0.3880
38622SOL    HW127845   4.993  10.453   6.855 -1.1076  2.8355  2.0244
38622SOL    HW227846   5.133  10.507   6.877 -0.6146  2.2234  0.5684
38623SOL     OW27847  13.902  14.017   3.816  0.1362 -0.0635 -0.4665
38623SOL    HW127848  13.884  14.065   3.735 -0.6051  0.0101 -0.2640
38623SOL    HW227849  13.938  13.934   3.787  0.1404  0.0726 -0.8662
38624SOL     OW27850   6.588   0.019  11.695 -0.6405  0.0564  0.7043
38624SOL    HW127851   6.557   0.056  11.613  2.7525  1.9932  0.0981
38624SOL    HW227852   6.584  -0.076  11.682 -1.7402  0.2960 -1.0098
38625SOL     OW27853   1.148   9.935   2.792  0.0067  0.2802 -0.0432
38625SOL    HW127854   1.116  10.022   2.816  1.4228  1.0369 -0.7684
38625SOL    HW227855   1.238   9.949   2.765 -0.2456 -1.1603 -1.8264
38626SOL     OW27856   6.984   7.458   5.837  0.0933 -0.0696 -0.0488
38626SOL    HW127857   6.955   7.549   5.833  1.4369  0.5325  2.1178
38626SOL    HW227858   7.052   7.451   5.769  2.2495  1.5184  1.8059
38627SOL     OW27859  10.996   6.806   6.198  0.2101  0.3632  0.0546
38627SOL    HW127860  11.007   6.873   6.266  0.3598  0.7618 -0.3624
38627SOL    HW227861  10.992   6.855   6.116  2.0537 -0.2246 -0.4403
38628SOL     OW27862   1.361  11.386   4.476 -0.1277  0.2249  0.3566
38628SOL    HW127863   1.275  11.373   4.437 -0.4817 -1.9443  1.7053
38628SOL    HW227864   1.343  11.418   4.564  0.5783  2.3353 -0.2095
38629SOL     OW27865   6.645   6.324   9.037  0.6155  0.2223  0.5969
38629SOL    HW127866   6.703   6.399   9.050 -0.4989  1.3864 -0.8418
38629SOL    HW227867   6.557   6.358   9.050  0.0408 -0.6479 -0.7755
38630SOL     OW27868   9.020   8.021   4.476 -0.5491  0.0315  0.1886
38630SOL    HW127869   8.951   8.079   4.444 -0.8981 -0.0331  0.8162
38630SOL    HW227870   8.986   7.987   4.558  0.2833  0.1011  0.5668
38631SOL     OW27871   2.907   4.193   4.323 -0.3008  0.1004  0.1131
38631SOL    HW127872   2.910   4.112   4.272 -1.1060 -0.3344  0.7370
38631SOL    HW227873   2.953   4.173   4.404 -2.3693 -0.4532  1.2178
38632SOL     OW27874   0.540   3.662  12.829 -0.1088 -0.1197 -0.2513
38632SOL    HW127875   0.525   3.625  12.916 -0.6832 -0.8214 -0.6374
38632SOL    HW227876   0.472   3.623  12.774 -0.1923  0.8632 -0.8649
38633SOL     OW27877   4.686  13.746  10.647 -0.0493 -0.0530  0.2100
38633SOL    HW127878   4.595  13.721  10.630 -0.0695  0.3336 -0.2574
38633SOL    HW227879   4.686  13.774  10.738  0.1000 -2.3129  0.9709
38634SOL     OW27880   3.397  12.782   6.927  0.0381 -0.0999 -0.0084
38634SOL    HW127881   3.444  12.736   6.857 -0.0365 -0.3637  0.1142
38634SOL    HW227882   3.311  12.801   6.889 -0.7981 -2.1743  0.7381
38635SOL     OW27883  12.889   9.349  12.291 -0.4542 -0.1482 -0.0741
38635SOL    HW127884  12.927   9.386  12.211  0.6688 -1.4851 -0.2040
38635SOL    HW227885  12.800   9.383  12.293 -0.3819  0.2346 -1.6897
38636SOL     OW27886  11.427  12.635  10.308 -0.5435 -0.3303 -0.2961
38636SOL    HW127887  11.434  12.643  10.212 -0.2719 -0.2098 -0.2679
38636SOL    HW227888  11.404  12.543  10.322 -1.1114 -0.2238 -0.4988
38637SOL     OW27889   6.180   8.523   8.740  0.0669  0.4113 -0.4002
38637SOL    HW127890   6.195   8.603   8.790  0.2342  0.9566 -1.3085
38637SOL    HW227891   6.233   8.457   8.784  0.6037  0.9985 -0.1573
38638SOL     OW27892  12.151   2.726   5.286 -0.0807  0.0487  0.1791
38638SOL    HW127893  12.238   2.687   5.280 -0.3179 -0.4369 -0.1954
38638SOL    HW227894  12.160   2.795   5.352  0.8635  0.7799 -0.6817
38639SOL     OW27895   9.818  12.402   7.908  0.0726 -0.1203 -0.0214
38639SOL    HW127896   9.750  12.458   7.944 -0.2525 -1.0728  0.9109
38639SOL    HW227897   9.787  12.313   7.926  1.4807 -0.5711  0.2642
38640SOL     OW27898  12.458  12.907   0.551 -0.0181 -0.4312 -0.7680
38640SOL    HW127899  12.445  12.972   0.619  0.6782 -1.3026  0.2346
38640SOL    HW227900  12.382  12.849   0.559  0.2721 -0.7699 -0.4551
38641SOL     OW27901   3.215   9.857   8.019  0.2321  0.3355  0.8251
38641SOL    HW127902   3.212   9.764   7.995  0.2036  0.4894  0.2265
38641SOL    HW227903   3.131   9.892   7.992  0.2954  0.5714  0.9271
38642SOL     OW27904  14.009  13.695   6.320  0.1074  0.6249 -0.1865
38642SOL    HW127905  14.071  13.624   6.304 -0.0136  0.6336 -0.6956
38642SOL    HW227906  14.044  13.769   6.269 -0.4876  0.5390 -0.7281
38643SOL     OW27907   8.566   0.270   4.898  0.4120 -0.4199  0.1746
38643SOL    HW127908   8.657   0.294   4.910  0.6672 -2.0426  1.8624
38643SOL    HW227909   8.550   0.201   4.962 -2.0736 -0.0097  0.1020
38644SOL     OW27910   6.705  11.364   1.467  0.3557 -0.1407  0.4587
38644SOL    HW127911   6.705  11.322   1.553 -1.5737 -1.1216  0.0418
38644SOL    HW227912   6.732  11.295   1.406 -0.4005 -0.0991  0.0564
38645SOL     OW27913  11.973   5.565  10.203  0.8926  0.0686 -0.1417
38645SOL    HW127914  11.993   5.495  10.141 -0.5257 -0.4347 -0.0554
38645SOL    HW227915  11.926   5.630  10.151 -0.8653 -0.6348  0.4777
38646SOL     OW27916   6.018   2.451  11.430 -0.5181  0.2146  0.2349
38646SOL    HW127917   5.985   2.516  11.367 -0.8127 -1.0488 -0.9655
38646SOL    HW227918   6.001   2.367  11.388  0.7843 -0.6128  1.2976
38647SOL     OW27919  11.379   1.879   4.218 -0.2109 -0.0506 -0.4013
38647SOL    HW127920  11.319   1.941   4.258 -0.5709 -0.4651 -0.2880
38647SOL    HW227921  11.440   1.933   4.169  0.0857  0.4466  0.5023
38648SOL     OW27922   9.317   0.530   1.362 -0.4255 -0.4076  0.4078
38648SOL    HW127923   9.340   0.620   1.342 -1.0425 -0.2813  0.2287
38648SOL    HW227924   9.232   0.537   1.407 -0.7562 -0.9354 -0.1281
38649SOL     OW27925  11.825   6.571   0.687  0.1751 -0.5652 -0.5185
38649SOL    HW127926  11.745   6.549   0.640  1.0844 -0.2753 -2.2816
38649SOL    HW227927  11.830   6.666   0.682  0.1932 -0.5066  0.3836
38650SOL     OW27928   4.969   4.355   6.743  0.3310  0.6450  0.6426
38650SOL    HW127929   4.894   4.344   6.685 -0.6133  1.9334  1.5708
38650SOL    HW227930   5.027   4.415   6.696  1.4299 -1.3124 -0.6297
38651SOL     OW27931  13.529   4.453  12.999 -0.2389 -0.4858  0.0675
38651SOL    HW127932  13.482   4.373  12.976  0.0536 -0.6970  0.2043
38651SOL    HW227933  13.460   4.518  13.012 -0.5372 -0.9383  0.8447
38652SOL     OW27934  13.465  11.795  10.091 -0.1772  0.2358  0.1535
38652SOL    HW127935  13.459  11.834  10.003 -0.3042 -0.5071 -0.1778
38652SOL    HW227936  13.529  11.849  10.136 -0.4470  0.9104 -0.2430
38653SOL     OW27937   4.615  10.590   1.149  0.2093  0.5706  0.0386
38653SOL    HW127938   4.544  10.527   1.139  1.0475 -0.4826  0.5306
38653SOL    HW227939   4.663  10.586   1.066  1.4651 -1.0046  0.7791
38654SOL     OW27940  12.720   5.499   8.310  0.0922  0.0088  0.4038
38654SOL    HW127941  12.672   5.423   8.279  0.9041 -0.4794  0.3128
38654SOL    HW227942  12.777   5.523   8.236 -0.2513  0.7865  0.3822
38655SOL     OW27943   1.298  13.961   1.310 -0.4513  0.1345 -0.4123
38655SOL    HW127944   1.241  14.002   1.246 -2.5090 -0.3207  1.0524
38655SOL    HW227945   1.312  14.028   1.377  1.9574  0.7245 -1.3871
38656SOL     OW27946   2.447  13.912   7.352  0.6658 -0.2457 -0.7129
38656SOL    HW127947   2.535  13.947   7.339  0.7382 -0.0363  0.2260
38656SOL    HW227948   2.457  13.849   7.425  0.1954 -0.8397 -1.1455
38657SOL     OW27949   1.568   0.509  10.775  0.1056 -0.5589  0.1518
38657SOL    HW127950   1.651   0.483  10.734 -1.1616 -2.1777 -1.5524
38657SOL    HW227951   1.504   0.448  10.739 -1.9883  1.1499  0.8107
38658SOL     OW27952   4.140   5.286  10.150 -0.0828 -0.1677  0.2719
38658SOL    HW127953   4.093   5.222  10.204 -0.5611  1.4915  1.8816
38658SOL    HW227954   4.203   5.233  10.101 -1.8405 -2.1255  0.0068
38659SOL     OW27955   4.141   7.212   2.688 -0.1242  0.2935  0.1987
38659SOL    HW127956   4.234   7.218   2.711 -0.1016  0.8208 -0.0277
38659SOL    HW227957   4.128   7.120   2.666  0.6537  0.4685 -1.0755
38660SOL     OW27958  11.353   5.364   3.069  0.3846  0.6190 -0.0138
38660SOL    HW127959  11.415   5.402   3.131  1.2522  1.9766 -1.6127
38660SOL    HW227960  11.380   5.399   2.984 -1.2689 -0.4837 -1.0561
38661SOL     OW27961  13.034   1.602  13.626 -0.3284  0.0550 -0.1706
38661SOL    HW127962  13.082   1.660  13.684  1.1414 -1.6794  0.4384
38661SOL    HW227963  13.053   1.635  13.538  0.6498  0.3993  0.1582
38662SOL     OW27964   2.688   0.679   4.377  0.0212  0.5298  0.4631
38662SOL    HW127965   2.720   0.715   4.459 -2.0134  3.0131  0.3165
38662SOL    HW227966   2.640   0.601   4.402  1.5375 -0.1788  1.2804
38663SOL     OW27967  11.798   7.792   0.238 -0.0707 -0.0809  0.0237
38663SOL    HW127968  11.834   7.825   0.321 -1.2372  1.7997 -0.1671
38663SOL    HW227969  11.871   7.745   0.198  2.1626  3.1967 -0.1615
38664SOL     OW27970   2.132   9.908   7.617  0.1121 -0.5010 -0.1107
38664SOL    HW127971   2.107  10.000   7.617 -0.8339 -0.7505 -0.2129
38664SOL    HW227972   2.065   9.865   7.670  0.8779 -1.0487  0.4390
38665SOL     OW27973   4.552   1.486   6.990  0.1817  0.2904  0.3560
38665SOL    HW127974   4.457   1.497   6.991  0.0115 -0.9508 -0.1042
38665SOL    HW227975   4.565   1.395   6.961  1.5209  0.5808 -0.0021
38666SOL     OW27976   7.773   9.643   5.888 -0.4095  0.5294  0.1095
38666SOL    HW127977   7.718   9.658   5.811 -0.9821 -0.9151  0.2106
38666SOL    HW227978   7.849   9.596   5.855  0.4854  1.9140  0.0867
38667SOL     OW27979  11.349  12.088   5.862 -0.2288 -0.1794 -0.2746
38667SOL    HW127980  11.423  12.066   5.919 -0.2911 -0.0293 -0.1361
38667SOL    HW227981  11.272  12.075   5.917 -0.2760  0.2225 -0.2467
38668SOL     OW27982   2.481   7.498   4.305 -0.3607 -0.4127  0.1810
38668SOL    HW127983   2.505   7.409   4.333  0.1796 -0.3906 -0.1969
38668SOL    HW227984   2.455   7.488   4.214 -2.3249 -0.5193  0.7142
38669SOL     OW27985  12.267   9.861   8.756 -0.3750 -0.0832  0.2390
38669SOL    HW127986  12.214   9.920   8.701  0.1819  1.0671  0.8910
38669SOL    HW227987  12.319   9.810   8.694 -0.0880  0.8729 -0.3338
38670SOL     OW27988   4.719  10.073   6.469  0.2255 -0.1885  0.3878
38670SOL    HW127989   4.640  10.124   6.487 -0.4904 -0.3087 -2.0080
38670SOL    HW227990   4.771  10.130   6.411  1.9005 -0.1442  1.8532
38671SOL     OW27991   7.259   2.412  13.172 -0.4913 -0.1389  0.4637
38671SOL    HW127992   7.305   2.383  13.251 -1.7623 -0.5441  1.0836
38671SOL    HW227993   7.202   2.338  13.149 -0.5531  0.1999 -0.5028
38672SOL     OW27994   9.157   7.380   4.003  0.3800 -0.3166  0.3608
38672SOL    HW127995   9.163   7.411   4.093 -0.4220 -0.3413  0.4296
38672SOL    HW227996   9.108   7.449   3.958 -1.5479 -1.4956  0.5377
38673SOL     OW27997  12.314   4.788  13.546 -0.3492  0.2389  0.4069
38673SOL    HW127998  12.307   4.706  13.498  2.8793  0.3456 -0.5040
38673SOL    HW227999  12.329   4.854  13.479  0.4515  1.0224  1.3227
38674SOL     OW28000   6.818  10.951   7.475 -0.5047  0.0670 -0.2744
38674SOL    HW128001   6.832  10.919   7.385  2.3105  0.3598 -0.0501
38674SOL    HW228002   6.887  11.017   7.487 -2.5232  2.0299  1.2312
38675SOL     OW28003   4.620   7.890  11.270 -0.1822 -0.2376  0.3502
38675SOL    HW128004   4.618   7.799  11.299 -0.9502 -0.4766 -0.3878
38675SOL    HW228005   4.528   7.914  11.258  0.0458  0.1333 -0.9229
38676SOL     OW28006   9.416  12.101   0.873 -0.2035  0.3153 -0.3318
38676SOL    HW128007   9.364  12.144   0.806 -0.8650  1.3507  0.7918
38676SOL    HW228008   9.355  12.043   0.918 -0.0459  0.4488  0.0617
38677SOL     OW28009   1.756   1.291   2.009  0.0018  0.0609 -0.0290
38677SOL    HW128010   1.741   1.261   1.920 -0.6392  1.0684 -0.2812
38677SOL    HW228011   1.718   1.223   2.064 -1.6352  0.4946 -0.5816
38678SOL     OW28012   0.751   7.266   2.963  0.6867 -0.0021  0.0177
38678SOL    HW128013   0.785   7.208   2.895  0.7268 -0.2052  0.2093
38678SOL    HW228014   0.776   7.354   2.935  2.0704 -0.2022  0.5474
38679SOL     OW28015   5.173   1.212   7.611 -0.1460 -0.3645 -0.5243
38679SOL    HW128016   5.171   1.306   7.589  1.4522 -0.2091 -0.0805
38679SOL    HW228017   5.088   1.196   7.652 -0.3607  0.9364 -0.4015
38680SOL     OW28018   9.674  10.935   7.007 -0.1717  0.1857  0.1841
38680SOL    HW128019   9.599  10.881   7.032 -0.6965  1.1144  0.7021
38680SOL    HW228020   9.717  10.887   6.937 -0.9330 -0.6301  0.2650
38681SOL     OW28021   0.525  13.407   2.802 -0.1331  0.1208 -0.0460
38681SOL    HW128022   0.460  13.440   2.740  0.3318 -0.7119 -1.0050
38681SOL    HW228023   0.596  13.373   2.747  0.0367 -1.1603  0.9128
38682SOL     OW28024   9.470  13.675   9.285 -0.4056  0.2527 -0.3361
38682SOL    HW128025   9.530  13.631   9.224 -1.7818  1.4004 -2.7016
38682SOL    HW228026   9.413  13.727   9.228 -1.6213  1.6682  2.0173
38683SOL     OW28027  11.675   5.297   0.893 -0.5473 -0.2641  0.2265
38683SOL    HW128028  11.763   5.326   0.872 -0.5529 -1.5610 -1.8114
38683SOL    HW228029  11.621   5.325   0.819 -1.5593 -0.8651  0.7045
38684SOL     OW28030   8.952  11.065   5.509  0.2446 -0.2088  0.3218
38684SOL    HW128031   8.963  11.153   5.473  0.2106 -0.3062  0.0634
38684SOL    HW228032   8.994  11.068   5.594  0.1558  0.0863  0.3577
38685SOL     OW28033   0.861  12.705  13.941 -0.2609 -0.2516 -0.3564
38685SOL    HW128034   0.826  12.794  13.947 -0.9713 -0.5845  0.8235
38685SOL    HW228035   0.953  12.713  13.965  0.2507  0.4667 -2.3662
38686SOL     OW28036   7.603   7.643   5.870 -0.0020  0.0235  0.1016
38686SOL    HW128037   7.658   7.613   5.942 -0.1766 -0.4421  0.0438
38686SOL    HW228038   7.582   7.564   5.821 -0.3991  0.2499 -0.1027
38687SOL     OW28039   6.552   9.089   6.906  0.2407  0.0897 -0.3063
38687SOL    HW128040   6.640   9.102   6.941  0.1493  1.6101 -0.5859
38687SOL    HW228041   6.532   9.170   6.859 -0.8518 -0.6927 -1.2513
38688SOL     OW28042   9.021  13.272  12.376 -0.3939 -0.6076  0.3753
38688SOL    HW128043   9.003  13.266  12.470  0.4392  2.2804  0.8247
38688SOL    HW228044   8.935  13.281  12.335 -0.7318 -1.4115  0.8940
38689SOL     OW28045   0.228   5.108   0.661  0.9408 -0.1999  0.3612
38689SOL    HW128046   0.284   5.121   0.737  0.0846  1.0082  0.8247
38689SOL    HW228047   0.142   5.087   0.698  0.3293  1.1505 -0.2173
38690SOL     OW28048   5.145  10.816   9.292  0.3551  0.1088 -0.2315
38690SOL    HW128049   5.147  10.729   9.332  1.0171  0.4412  0.4850
38690SOL    HW228050   5.101  10.871   9.357  0.2773  0.3876 -0.5185
38691SOL     OW28051  13.049   6.567  13.134  0.3391 -0.2601  0.0162
38691SOL    HW128052  12.975   6.544  13.189  0.6831  0.7435  0.9338
38691SOL    HW228053  13.113   6.604  13.194  1.1089 -0.0206 -0.9280
38692SOL     OW28054  13.893   2.521  11.110 -0.2591  0.1919 -0.2826
38692SOL    HW128055  13.972   2.490  11.067  0.5758 -1.6133  2.3015
38692SOL    HW228056  13.913   2.611  11.135  0.5100  0.1494 -0.7284
38693SOL     OW28057   9.394   8.173  11.488 -0.4173  0.2328 -0.2236
38693SOL    HW128058   9.453   8.122  11.543  2.6531  1.1101 -2.4236
38693SOL    HW228059   9.340   8.107  11.444  0.1003 -0.7453  0.5743
38694SOL     OW28060   3.340   2.071   8.513 -0.0838  0.3995 -0.1350
38694SOL    HW128061   3.381   2.136   8.457 -1.8441  1.3876 -0.3665
38694SOL    HW228062   3.341   2.110   8.600 -0.9244  0.6674 -0.2312
38695SOL     OW28063  10.162   9.992  13.072 -0.0799 -0.8309  0.7484
38695SOL    HW128064  10.157  10.084  13.095 -1.4759 -0.9557  1.0356
38695SOL    HW228065  10.095   9.980  13.004 -1.2034 -1.9580  1.9763
38696SOL     OW28066   5.374  10.671   6.867  0.0554 -0.0421  0.0213
38696SOL    HW128067   5.409  10.582   6.857 -0.8355 -0.4832  0.7579
38696SOL    HW228068   5.303  10.663   6.930  1.3849  1.5824  1.8284
38697SOL     OW28069  10.721   0.395   3.949 -0.4909  0.1959  0.4925
38697SOL    HW128070  10.773   0.314   3.949  0.0726  0.5369 -0.3666
38697SOL    HW228071  10.764   0.451   4.014  0.1243  0.4080 -0.0837
38698SOL     OW28072   9.624  10.919   9.202  0.7041 -0.2743 -0.4152
38698SOL    HW128073   9.558  10.869   9.154 -1.1549  0.5369  1.1447
38698SOL    HW228074   9.635  10.999   9.152  1.0211 -0.6911 -1.0267
38699SOL     OW28075   2.309   0.541   2.536 -0.0209  0.0852  0.1400
38699SOL    HW128076   2.241   0.590   2.488 -0.2417 -0.7204 -0.3839
38699SOL    HW228077   2.270   0.455   2.552  1.2352 -0.7641 -1.0963
38700SOL     OW28078   7.165  13.968   6.542  0.2498 -0.1671  0.1820
38700SOL    HW128079   7.186  14.057   6.515 -0.5457 -0.1999 -0.6179
38700SOL    HW228080   7.250  13.926   6.555  0.6442  0.4573 -0.3076
38701SOL     OW28081   3.083   6.389  12.863 -0.1557 -0.1872  0.1798
38701SOL    HW128082   3.123   6.452  12.804 -0.6392  0.1411  0.1939
38701SOL    HW228083   3.051   6.442  12.937  0.5788 -0.6064  0.8114
38702SOL     OW28084   2.635   8.313   7.076  0.1694 -1.1430  0.5479
38702SOL    HW128085   2.654   8.353   7.161  0.1187 -1.4443  0.7037
38702SOL    HW228086   2.602   8.385   7.022  2.4802 -0.3891  0.0137
38703SOL     OW28087   8.870   1.148   3.965 -0.1457  0.3024  0.2867
38703SOL    HW128088   8.940   1.127   4.027 -0.7681  3.2797  2.2662
38703SOL    HW228089   8.913   1.201   3.898  0.3805 -2.2853 -1.5479
38704SOL     OW28090   8.354   8.298  13.114  0.0109  0.6954 -0.6277
38704SOL    HW128091   8.428   8.358  13.118  1.2211 -0.7660  0.3685
38704SOL    HW228092   8.330   8.285  13.206 -0.1187 -0.4167 -0.8092
38705SOL     OW28093   6.453   1.242   3.291  0.1644  0.1169 -0.2543
38705SOL    HW128094   6.438   1.314   3.230 -0.5026  0.3036  0.1146
38705SOL    HW228095   6.525   1.192   3.252 -0.9607 -0.4128 -1.8013
38706SOL     OW28096   9.026   0.613  11.508  0.1448 -0.1945 -0.4918
38706SOL    HW128097   8.977   0.547  11.556 -1.0813 -1.9745 -3.8850
38706SOL    HW228098   9.109   0.621  11.556 -0.0207 -3.5131  0.5692
38707SOL     OW28099   2.486   2.696  10.264  0.3512 -0.9032 -0.0175
38707SOL    HW128100   2.557   2.752  10.298 -0.2126 -0.7733  0.9674
38707SOL    HW228101   2.531   2.620  10.227  1.0348 -0.5587  0.0878
38708SOL     OW28102   7.761   6.325   4.285 -0.3591 -0.0898 -0.2779
38708SOL    HW128103   7.781   6.374   4.365 -1.6392  0.2162 -0.1335
38708SOL    HW228104   7.841   6.275   4.268  0.5008  1.0182  0.3170
38709SOL     OW28105   5.300   1.639  11.745  0.6369 -0.3919 -0.4571
38709SOL    HW128106   5.219   1.597  11.716 -0.1286 -0.2872  1.3784
38709SOL    HW228107   5.273   1.725  11.776  1.6348  0.0630 -0.8030
38710SOL     OW28108  12.195   9.552  11.241 -0.4626 -0.0999 -0.4517
38710SOL    HW128109  12.142   9.503  11.305  0.2321 -0.3487 -0.0476
38710SOL    HW228110  12.145   9.548  11.160 -1.1145 -0.2318 -0.0510
38711SOL     OW28111   1.937  11.344  10.510  0.7832  0.4221  0.5726
38711SOL    HW128112   2.016  11.370  10.556 -0.2059  1.6566  1.6553
38711SOL    HW228113   1.952  11.253  10.485  2.6191  0.7046  0.5157
38712SOL     OW28114  11.421   2.442  13.739 -0.4320 -0.0712  0.0182
38712SOL    HW128115  11.435   2.489  13.657 -0.4308 -2.2116 -1.2877
38712SOL    HW228116  11.509   2.427  13.774 -0.4288  0.7531  0.3953
38713SOL     OW28117  12.679   7.149   2.629 -0.3489 -0.4414  0.2963
38713SOL    HW128118  12.763   7.164   2.673 -0.3404  0.3747  0.0077
38713SOL    HW228119  12.676   7.054   2.616  1.1926 -0.3554 -0.9702
38714SOL     OW28120   0.721   7.705   3.988  0.3634 -0.1217 -0.1881
38714SOL    HW128121   0.809   7.730   4.018  0.3498 -0.4855  0.1655
38714SOL    HW228122   0.735   7.670   3.900  0.3667  1.2310 -0.7433
38715SOL     OW28123   8.173   9.455  13.090  0.1094  0.4868 -0.3608
38715SOL    HW128124   8.180   9.453  12.994  1.3041  1.8253 -0.3212
38715SOL    HW228125   8.246   9.400  13.120 -0.9054 -0.8301 -0.1985
38716SOL     OW28126  12.454   1.146   8.640  0.7288 -0.3070  0.1466
38716SOL    HW128127  12.457   1.236   8.673  0.8279  0.1500 -1.0642
38716SOL    HW228128  12.543   1.112   8.653  0.8858  0.0226 -0.0627
38717SOL     OW28129  11.735  12.973   3.950 -0.1906 -0.2825  0.0117
38717SOL    HW128130  11.770  13.059   3.928  0.2152 -0.7496 -1.2573
38717SOL    HW228131  11.640  12.984   3.948 -0.1438  0.0779 -0.4733
38718SOL     OW28132   5.702  11.754   5.066  0.4456 -0.0067  0.0656
38718SOL    HW128133   5.697  11.720   5.155  0.3286  0.6800  0.3253
38718SOL    HW228134   5.617  11.734   5.027 -0.5070  2.0508  0.9747
38719SOL     OW28135  13.320   2.234   8.449 -0.2882 -0.2914 -0.2155
38719SOL    HW128136  13.257   2.216   8.379 -0.5269 -0.3049 -0.0004
38719SOL    HW228137  13.364   2.150   8.463 -1.5837 -0.8331  0.9667
38720SOL     OW28138   1.172   3.591   3.170 -0.1889 -0.0497  0.3296
38720SOL    HW128139   1.229   3.515   3.156 -0.9243 -0.5850  0.1296
38720SOL    HW228140   1.085   3.559   3.145 -0.4945  0.8879  0.1790
38721SOL     OW28141   6.172  10.357   7.125 -0.3800 -0.3771 -0.4089
38721SOL    HW128142   6.173  10.448   7.155 -0.6649 -0.6393  0.4320
38721SOL    HW228143   6.265  10.334   7.117 -0.2595 -0.4856  0.9331
38722SOL     OW28144  12.827  11.791   0.196  0.6147 -0.4600 -0.2325
38722SOL    HW128145  12.755  11.734   0.169  0.0349  0.3553 -0.4240
38722SOL    HW228146  12.818  11.869   0.142  0.3843  0.5321  1.1874
38723SOL     OW28147   6.253   2.173   6.879  0.1125 -0.4818  0.2944
38723SOL    HW128148   6.258   2.085   6.842 -0.7089 -0.1691 -0.6125
38723SOL    HW228149   6.182   2.215   6.830  0.6332  0.7496  0.5694
38724SOL     OW28150   1.937   4.674   7.868  0.2555  0.0798  0.1953
38724SOL    HW128151   1.844   4.651   7.865 -0.5725  2.4358  2.8903
38724SOL    HW228152   1.981   4.594   7.896 -1.2335 -0.6218  0.6426
38725SOL     OW28153   3.940   1.240  13.741  0.5939 -0.8796  0.4235
38725SOL    HW128154   4.026   1.206  13.715  1.8191  0.1730  2.8073
38725SOL    HW228155   3.893   1.253  13.658  2.2428 -2.6366 -0.8789
38726SOL     OW28156   4.509   6.472  13.306  0.6447  0.0956 -0.1201
38726SOL    HW128157   4.564   6.521  13.368 -0.5531  0.7623  0.4386
38726SOL    HW228158   4.549   6.488  13.221  2.6012 -1.2043  0.4922
38727SOL     OW28159   2.248   2.731   7.854 -0.1496  0.4098  0.1871
38727SOL    HW128160   2.242   2.739   7.950 -0.8520 -1.4371  0.3436
38727SOL    HW228161   2.308   2.801   7.828  0.6923  0.4607  2.0614
38728SOL     OW28162   8.552   0.665  11.133 -0.3563 -0.0635 -0.3118
38728SOL    HW128163   8.647   0.677  11.133 -0.3752  0.3932 -2.4275
38728SOL    HW228164   8.520   0.726  11.067 -1.9600 -1.3751 -0.8086
38729SOL     OW28165   8.250  12.221  11.759  0.4149 -0.1683  0.1783
38729SOL    HW128166   8.303  12.153  11.800  1.2851  0.6862  0.4987
38729SOL    HW228167   8.233  12.284  11.829  0.3429  0.3746 -0.3198
38730SOL     OW28168   4.639   6.857   0.137  1.1595 -0.1333 -0.3644
38730SOL    HW128169   4.693   6.908   0.076  1.7658  0.8207  0.9141
38730SOL    HW228170   4.673   6.880   0.224  0.9328 -2.1445  0.3120
38731SOL     OW28171  12.106   7.675   3.618 -0.0699 -0.5527 -0.2269
38731SOL    HW128172  12.073   7.591   3.586 -1.2948  0.5286 -1.9830
38731SOL    HW228173  12.175   7.699   3.556  0.5552 -0.4557  0.5017
38732SOL     OW28174  12.286   7.741   1.786 -0.1805  0.0477  0.1098
38732SOL    HW128175  12.243   7.674   1.839  0.0326  0.2220  0.5044
38732SOL    HW228176  12.328   7.799   1.850 -1.5714  1.3889 -0.1517
38733SOL     OW28177   1.923   0.802   4.709 -0.4614  0.3554 -0.3172
38733SOL    HW128178   1.935   0.708   4.695  0.8501  0.1445  1.7312
38733SOL    HW228179   1.940   0.842   4.624 -0.3512 -1.2039 -1.0605
38734SOL     OW28180   1.343   8.285   2.459 -0.0372  0.1685 -0.0616
38734SOL    HW128181   1.360   8.205   2.410  1.8930  0.2842  0.3408
38734SOL    HW228182   1.260   8.269   2.504 -0.7226 -0.7828 -1.5826
38735SOL     OW28183  12.733   5.905  12.155 -0.1273 -0.8166  0.6155
38735SOL    HW128184  12.656   5.960  12.144 -1.0030 -1.9053  1.1046
38735SOL    HW228185  12.698   5.820  12.181  1.1453 -1.7700 -0.6344
38736SOL     OW28186  11.087   1.538   7.406  0.2553  0.0771 -0.1201
38736SOL    HW128187  11.016   1.477   7.425 -0.7162  1.3044  0.2949
38736SOL    HW228188  11.080   1.606   7.473  1.2148  0.7359 -0.6575
38737SOL     OW28189   4.173  13.434   3.595  0.1701 -0.7523 -0.1075
38737SOL    HW128190   4.253  13.390   3.566  0.3444 -0.3189 -0.2979
38737SOL    HW228191   4.141  13.480   3.517  0.1795 -0.2663  0.1675
38738SOL     OW28192   3.046   0.128   8.499 -0.0327  0.1407 -0.0507
38738SOL    HW128193   2.995   0.149   8.420 -0.0683  2.4152  0.5076
38738SOL    HW228194   3.107   0.201   8.508 -0.5613  0.3574  2.4406
38739SOL     OW28195   7.079   6.394   2.527 -0.5659  0.0505 -0.6531
38739SOL    HW128196   7.113   6.400   2.438 -0.6550  1.7340 -0.6215
38739SOL    HW228197   6.984   6.391   2.517 -0.6016  0.7965 -0.6247
38740SOL     OW28198   4.335   6.974   2.543  0.4885 -0.0023 -0.1996
38740SOL    HW128199   4.397   6.998   2.474 -1.2939  0.9750 -1.5737
38740SOL    HW228200   4.389   6.957   2.620  2.4947 -0.2168 -1.5861
38741SOL     OW28201   3.321   4.190  11.676  0.4029  0.1709 -0.1215
38741SOL    HW128202   3.404   4.230  11.702  0.6508 -0.6927  0.4425
38741SOL    HW228203   3.316   4.109  11.726 -0.2129 -0.3852 -1.0433
38742SOL     OW28204   1.105   9.305   5.051  0.0701  0.2652  0.6298
38742SOL    HW128205   1.162   9.342   5.118  0.0925 -1.1998  1.4563
38742SOL    HW228206   1.017   9.331   5.078  0.0466 -0.6282  1.4512
38743SOL     OW28207  10.876   1.364   7.429  0.1763  0.0790 -0.2709
38743SOL    HW128208  10.900   1.279   7.393 -0.1065  0.8678 -2.4623
38743SOL    HW228209  10.809   1.344   7.495 -0.0816 -1.3889 -0.9287
38744SOL     OW28210   8.095   8.738  11.180  0.2655  0.3783 -0.3166
38744SOL    HW128211   8.122   8.757  11.090 -2.8157 -0.6283 -1.5921
38744SOL    HW228212   8.152   8.666  11.208  1.3262  0.7637 -1.4085
38745SOL     OW28213  13.979   5.913   1.857  0.0642 -0.4949 -0.5518
38745SOL    HW128214  13.905   5.964   1.890  2.3629  0.7253  3.4701
38745SOL    HW228215  14.026   5.973   1.800  0.6212  0.6276  1.0171
38746SOL     OW28216   6.529  13.959   1.785  0.7349  0.5484  0.5839
38746SOL    HW128217   6.586  13.992   1.854  3.3638 -0.8001 -0.7737
38746SOL    HW228218   6.589  13.919   1.722 -1.6369  0.4882 -1.8067
38747SOL     OW28219   7.385   6.393  10.344  0.4068  0.4958 -0.5001
38747SOL    HW128220   7.436   6.350  10.413 -0.8693  0.9379  0.7765
38747SOL    HW228221   7.296   6.357  10.354 -0.6124  2.9845  0.3338
38748SOL     OW28222   6.508   0.096   6.821 -0.0817  0.3745 -0.2265
38748SOL    HW128223   6.584   0.135   6.778 -0.0924  0.6537 -0.0015
38748SOL    HW228224   6.545   0.036   6.885 -0.0527 -2.4690 -2.6874
38749SOL     OW28225   3.951   6.144  13.894  0.7295  0.1849  0.4082
38749SOL    HW128226   3.977   6.088  13.820  2.3502 -1.8394  2.3665
38749SOL    HW228227   3.990   6.102  13.970 -0.2236  2.6167  2.3623
38750SOL     OW28228   9.751  13.593  12.344 -0.0093 -0.3211  0.3002
38750SOL    HW128229   9.737  13.594  12.439 -3.3220  1.4821 -0.0371
38750SOL    HW228230   9.704  13.515  12.315 -0.0731 -0.1835  0.0363
38751SOL     OW28231   3.733   2.126   1.469 -0.0452 -0.2672  0.3015
38751SOL    HW128232   3.746   2.108   1.562 -0.1173  0.2752  0.4178
38751SOL    HW228233   3.640   2.149   1.462  0.0650  0.1408  0.1681
38752SOL     OW28234  13.156  10.927   0.271  1.0753  0.5301  0.1263
38752SOL    HW128235  13.170  11.022   0.278  1.1808  0.6009 -0.8140
38752SOL    HW228236  13.061  10.917   0.269  1.0409  0.5081  1.3668
38753SOL     OW28237   3.906   4.826  13.487  0.2539 -0.9436 -0.3819
38753SOL    HW128238   3.916   4.764  13.559 -0.3172 -1.6614 -0.9046
38753SOL    HW228239   3.821   4.806  13.449  0.2072 -0.0550 -0.7763
38754SOL     OW28240  10.310   9.859   4.793 -0.4835  0.5303  0.2371
38754SOL    HW128241  10.341   9.949   4.803 -2.3345  1.1121  1.1046
38754SOL    HW228242  10.280   9.834   4.880 -0.8701 -0.5932 -0.2049
38755SOL     OW28243   4.475   0.722   2.120  0.1432  0.4873  0.0055
38755SOL    HW128244   4.473   0.805   2.167  0.0618  0.2295  0.4681
38755SOL    HW228245   4.397   0.723   2.065  0.1747  0.7418 -0.0358
38756SOL     OW28246   8.462   4.854  11.969  0.5301 -0.0590  0.6532
38756SOL    HW128247   8.370   4.854  11.995  0.5070 -1.2364  0.6390
38756SOL    HW228248   8.462   4.888  11.880 -0.4879 -4.0186 -1.0639
38757SOL     OW28249   0.524   2.574  13.960 -0.5769 -0.2079  0.1538
38757SOL    HW128250   0.512   2.668  13.950  0.9385 -0.0449 -0.4277
38757SOL    HW228251   0.597   2.553  13.902 -0.0936 -1.5237  1.1810
38758SOL     OW28252   9.309   3.683   9.682 -0.0453  0.5038 -0.2271
38758SOL    HW128253   9.223   3.691   9.722  0.1074  1.0263 -0.0028
38758SOL    HW228254   9.324   3.767   9.639  0.8181  0.8229  0.6633
38759SOL     OW28255  13.485   2.823   2.376 -0.1884 -0.2612  0.3645
38759SOL    HW128256  13.494   2.728   2.377 -1.5734 -0.4300 -0.8974
38759SOL    HW228257  13.534   2.851   2.299 -0.1263  0.0086  0.5010
38760SOL     OW28258  10.423  13.247   0.152  0.4091 -0.1771  0.1362
38760SOL    HW128259  10.418  13.280   0.242 -1.2031  0.4163 -0.1471
38760SOL    HW228260  10.415  13.152   0.161  0.6799 -0.1604  0.6340
38761SOL     OW28261  13.499  12.571   6.829  0.0334  0.0693 -0.6894
38761SOL    HW128262  13.557  12.502   6.861 -1.7699 -1.5847 -0.7946
38761SOL    HW228263  13.465  12.613   6.908  0.9646  0.7550 -0.6244
38762SOL     OW28264   4.247   7.872  12.454 -0.0577 -0.0071 -0.0761
38762SOL    HW128265   4.307   7.942  12.480 -0.7168 -0.4329  3.0247
38762SOL    HW228266   4.305   7.798  12.434  0.5947 -0.3961  2.8106
38763SOL     OW28267   0.863   4.311   4.472 -0.0486  0.2388 -0.5737
38763SOL    HW128268   0.886   4.218   4.478  0.3916  0.2883 -1.4275
38763SOL    HW228269   0.810   4.327   4.550  0.9637 -0.4186  0.2868
38764SOL     OW28270  12.982   9.916   7.231  0.1703  0.2925  0.4018
38764SOL    HW128271  13.038   9.965   7.291  2.0707 -4.1503  2.7147
38764SOL    HW228272  13.038   9.895   7.157  0.2359 -0.5164  0.6708
38765SOL     OW28273  11.104   6.971   9.269 -0.0679 -0.7623 -0.2907
38765SOL    HW128274  11.023   6.929   9.241 -0.8701  0.6788 -0.1960
38765SOL    HW228275  11.107   7.054   9.222  2.6777 -1.8512 -2.3095
38766SOL     OW28276   3.428  12.955   1.896  0.0098 -0.1085 -0.4861
38766SOL    HW128277   3.521  12.943   1.914 -0.1746 -2.5362 -0.7558
38766SOL    HW228278   3.391  12.867   1.902 -1.7775  0.3429 -3.0952
38767SOL     OW28279  11.630   3.066   9.964 -0.1036  0.3185 -0.1735
38767SOL    HW128280  11.554   3.026  10.005 -1.1023  1.6920 -0.6337
38767SOL    HW228281  11.651   3.008   9.890 -1.2237  0.3687 -0.5463
38768SOL     OW28282   4.727   0.202  10.271  0.2678  0.1407 -0.0845
38768SOL    HW128283   4.767   0.274  10.222  1.0146  0.9866  1.6907
38768SOL    HW228284   4.695   0.243  10.352 -0.7028 -1.2501  0.2755
38769SOL     OW28285   7.423   8.565   4.337  0.2300 -0.3450 -0.1121
38769SOL    HW128286   7.372   8.530   4.264 -0.4486 -0.9767  0.6336
38769SOL    HW228287   7.514   8.554   4.311  0.0537 -2.6235  0.0063
38770SOL     OW28288   9.078   2.401   2.226 -0.0261  0.4274 -0.7741
38770SOL    HW128289   9.108   2.329   2.170 -1.4913 -1.0404  0.2326
38770SOL    HW228290   8.983   2.402   2.215 -0.2067  0.9776  0.6485
38771SOL     OW28291   6.140   2.157   2.180 -0.4968  0.0264  0.2163
38771SOL    HW128292   6.123   2.215   2.254  0.0284 -0.0588  0.4059
38771SOL    HW228293   6.187   2.083   2.218 -1.7809 -0.8839  0.1119
38772SOL     OW28294  12.510   2.617   6.642  0.3962 -0.4293  0.4387
38772SOL    HW128295  12.523   2.618   6.736  0.5277 -1.5993  0.4520
38772SOL    HW228296  12.524   2.526   6.617 -2.6043 -0.8158 -0.2745
38773SOL     OW28297  11.369   3.454   0.345 -0.2496  0.8896  0.6411
38773SOL    HW128298  11.391   3.515   0.415  2.3195  0.2588  0.4768
38773SOL    HW228299  11.353   3.371   0.390 -1.1701  1.0644  0.6552
38774SOL     OW28300  11.572  12.036   6.036 -0.6390  0.6893 -0.0456
38774SOL    HW128301  11.572  12.034   6.132  0.9275  1.3272 -0.0036
38774SOL    HW228302  11.592  11.946   6.010 -0.8056  0.5727  0.2236
38775SOL     OW28303  13.812   1.427   8.374  0.3919  0.5872  0.4744
38775SOL    HW128304  13.889   1.480   8.352 -0.0026  1.0183  0.1140
38775SOL    HW228305  13.813   1.356   8.310  0.5138  0.5701  0.4955
38776SOL     OW28306   9.969   7.452   1.870 -0.2818 -0.4701  0.2660
38776SOL    HW128307   9.932   7.470   1.956  1.4777 -0.7256  1.1246
38776SOL    HW228308  10.061   7.434   1.887  0.4277  0.8174 -1.8191
38777SOL     OW28309   3.601  13.508   4.614 -0.6191 -0.3249  0.1125
38777SOL    HW128310   3.587  13.592   4.571 -1.2360 -0.0300  0.8704
38777SOL    HW228311   3.593  13.527   4.707  2.3420 -0.6255  0.5062
38778SOL     OW28312  12.665   3.504   1.401  0.3677  0.1581 -0.2955
38778SOL    HW128313  12.585   3.506   1.348 -0.2946 -0.4351  0.6517
38778SOL    HW228314  12.689   3.412   1.406  0.9994  0.3090 -0.3948
38779SOL     OW28315  13.229   5.491   2.466  0.3927  0.2644  0.5300
38779SOL    HW128316  13.195   5.575   2.437  0.4610 -0.1279 -0.7279
38779SOL    HW228317  13.174   5.426   2.423  1.4658 -0.3530  0.0475
38780SOL     OW28318   1.028  13.962   5.170 -0.2523 -0.4066  0.6690
38780SOL    HW128319   1.080  13.913   5.106 -2.0467  0.2972 -1.5016
38780SOL    HW228320   1.091  13.994   5.234  1.4930 -2.1705 -0.0663
38781SOL     OW28321  12.310   4.709   7.886  0.2246  0.6463  0.3709
38781SOL    HW128322  12.278   4.693   7.797  0.9525  0.8827  0.0581
38781SOL    HW228323  12.237   4.751   7.931 -0.2707  0.2035 -0.0106
38782SOL     OW28324  12.329   9.251   4.847 -0.6036  0.3906  0.3320
38782SOL    HW128325  12.345   9.181   4.784 -2.1002  0.0922  0.2491
38782SOL    HW228326  12.234   9.261   4.848 -0.4029  3.2999 -0.6010
38783SOL     OW28327  10.692   3.113   0.318  0.0559  0.0476 -0.0583
38783SOL    HW128328  10.690   3.068   0.402  1.7013 -0.2294 -0.1485
38783SOL    HW228329  10.674   3.205   0.340 -1.8875 -0.3736  0.2847
38784SOL     OW28330   1.721   6.568   4.903  0.1253 -0.6553  0.3831
38784SOL    HW128331   1.785   6.514   4.857 -1.0591 -0.6493 -1.3687
38784SOL    HW228332   1.684   6.625   4.836 -1.2851 -0.2343  1.4554
38785SOL     OW28333   0.761   5.659  12.051 -0.3136  0.5611  0.2726
38785SOL    HW128334   0.724   5.627  11.968  2.8135 -1.5706 -0.4752
38785SOL    HW228335   0.691   5.646  12.114 -2.1858  0.5008 -1.6781
38786SOL     OW28336   3.948  10.007   4.551 -0.0699 -0.5797  0.8355
38786SOL    HW128337   3.946  10.086   4.607  1.5481 -1.0114  1.5549
38786SOL    HW228338   4.023   9.957   4.583 -0.4420 -1.9217 -0.3099
38787SOL     OW28339  13.038   8.418   6.514 -0.8295 -0.4245  0.1613
38787SOL    HW128340  13.127   8.427   6.550 -0.1812 -2.8039 -0.6578
38787SOL    HW228341  13.020   8.503   6.474  1.6931 -0.2715 -0.8706
38788SOL     OW28342   7.518   7.480  12.918  0.1494  0.0915  0.0125
38788SOL    HW128343   7.604   7.520  12.913 -0.0213  0.4555 -0.0633
38788SOL    HW228344   7.457   7.549  12.892  0.0390 -1.0107 -3.0538
38789SOL     OW28345  13.420   8.290   6.844 -0.1746 -0.2161 -0.0247
38789SOL    HW128346  13.455   8.316   6.759  0.4415  0.5884  0.4543
38789SOL    HW228347  13.467   8.346   6.907  0.0005 -1.3730  0.9092
38790SOL     OW28348   4.128   2.317   0.959 -0.0939 -0.0629 -0.3717
38790SOL    HW128349   4.050   2.271   0.991 -1.3597  0.4925 -2.5000
38790SOL    HW228350   4.157   2.265   0.884 -0.9384  1.9578 -2.1734
38791SOL     OW28351   8.504  13.121   1.023 -0.5316  0.2920  0.3209
38791SOL    HW128352   8.579  13.063   1.007 -0.1587  0.9411 -0.3734
38791SOL    HW228353   8.500  13.176   0.944 -0.1036  2.0388  1.4582
38792SOL     OW28354   7.844   1.836  10.781 -0.3799  0.5496  0.2679
38792SOL    HW128355   7.924   1.878  10.748 -0.4740  0.0735 -0.5749
38792SOL    HW228356   7.787   1.829  10.705 -1.2519  0.9222  0.8721
38793SOL     OW28357   1.604  12.853   5.518  0.0318 -0.1695  0.0932
38793SOL    HW128358   1.583  12.939   5.554  1.4013  0.0504  0.4268
38793SOL    HW228359   1.541  12.793   5.559 -0.4597  0.5629  0.4179
38794SOL     OW28360   2.381   3.259  12.313  0.1070  0.3384  0.5323
38794SOL    HW128361   2.315   3.301  12.368  1.2897  1.7140  0.9668
38794SOL    HW228362   2.369   3.299  12.227  1.1500  1.5457  0.9154
38795SOL     OW28363  10.963  13.360   5.261 -0.1884 -0.1652  0.9152
38795SOL    HW128364  10.955  13.434   5.201  0.2052 -0.1212  0.9115
38795SOL    HW228365  11.053  13.329   5.248  0.0784  0.1853  1.8783
38796SOL     OW28366   0.510   4.551   9.281 -0.5116 -0.0543  1.0524
38796SOL    HW128367   0.460   4.470   9.293  0.6315 -0.9965 -0.2106
38796SOL    HW228368   0.549   4.569   9.367  2.7425 -3.3438  0.5399
38797SOL     OW28369   2.257   0.779   9.586 -0.0338  0.1461  0.2353
38797SOL    HW128370   2.184   0.840   9.594 -1.1338 -0.9339 -0.9641
38797SOL    HW228371   2.263   0.736   9.671 -0.3172  0.7508  0.5638
38798SOL     OW28372   2.220   6.732   3.708 -0.5122 -0.0403 -0.3029
38798SOL    HW128373   2.136   6.749   3.666 -0.4012  1.2006 -0.0406
38798SOL    HW228374   2.197   6.711   3.799 -0.6498 -1.4511 -0.6322
38799SOL     OW28375   0.931   9.436   5.243 -0.3664 -0.5091 -0.3580
38799SOL    HW128376   0.910   9.424   5.336  2.4230 -1.1728  0.2757
38799SOL    HW228377   0.850   9.412   5.197 -0.6448 -4.4433  1.7123
38800SOL     OW28378   7.557   6.056   1.922  0.0461 -0.0640  0.3139
38800SOL    HW128379   7.637   6.091   1.961  2.1161 -1.9585 -1.9119
38800SOL    HW228380   7.526   5.991   1.986  0.4514  0.4547  1.0576
38801SOL     OW28381   5.335  13.083  10.271 -0.1005  0.2960  0.3050
38801SOL    HW128382   5.378  13.152  10.323 -0.3938  0.3173  0.5211
38801SOL    HW228383   5.266  13.129  10.223 -1.2704 -0.0655  1.5678
38802SOL     OW28384  12.900  12.659   8.497  0.4986  0.0808 -0.1112
38802SOL    HW128385  12.892  12.674   8.591 -2.2335  0.1351 -0.2810
38802SOL    HW228386  12.933  12.742   8.462 -0.0838  0.6257  0.6241
38803SOL     OW28387   9.548   1.813  11.375  0.3730  0.2301 -0.7206
38803SOL    HW128388   9.622   1.781  11.323  0.8225 -0.5691  0.3939
38803SOL    HW228389   9.555   1.768  11.459 -1.5186 -0.0382 -0.6525
38804SOL     OW28390   6.485   1.735  13.564  0.3122 -0.0093 -0.3547
38804SOL    HW128391   6.579   1.740  13.550  0.3271  0.2943 -0.1583
38804SOL    HW228392   6.454   1.670  13.501  0.9086 -1.5009  0.8349
38805SOL     OW28393   6.510  10.685  11.082 -0.0259 -0.2616  0.0465
38805SOL    HW128394   6.493  10.714  10.993 -0.8542  1.3815  0.6986
38805SOL    HW228395   6.593  10.726  11.106 -0.0376 -0.3171  0.1884
38806SOL     OW28396  13.340   5.300   4.298  0.6559  0.0478  0.0249
38806SOL    HW128397  13.351   5.263   4.385  1.9074  1.6462  0.5916
38806SOL    HW228398  13.290   5.380   4.312  2.3621  1.2426 -0.4512
38807SOL     OW28399   5.088   1.379  10.297  0.2413 -0.4064  0.0817
38807SOL    HW128400   5.157   1.439  10.325 -0.9136  0.8946  0.2274
38807SOL    HW228401   5.123   1.337  10.218  0.6037  1.3667 -0.7358
38808SOL     OW28402   2.178   4.617  13.733 -0.6387  0.4119  0.4908
38808SOL    HW128403   2.186   4.635  13.639 -0.5718 -1.7629  0.0309
38808SOL    HW228404   2.220   4.532  13.745  0.9554  1.4076  2.8264
38809SOL     OW28405   5.077  10.460   3.144  0.4991 -0.3523 -0.3391
38809SOL    HW128406   5.163  10.425   3.166 -0.2581  0.0266  4.4640
38809SOL    HW228407   5.081  10.552   3.169 -1.0202 -0.1019 -0.9141
38810SOL     OW28408   2.164   7.072  14.040 -0.2182 -0.1529  0.1035
38810SOL    HW128409   2.194   6.998  14.092 -0.3759 -0.9275 -0.8748
38810SOL    HW228410   2.106   7.120  14.099 -1.0864 -1.4893  0.3907
38811SOL     OW28411   7.636   0.852   0.824  0.5920  0.1865  0.9682
38811SOL    HW128412   7.563   0.872   0.882  1.2267  0.8056  1.5836
38811SOL    HW228413   7.615   0.895   0.742 -1.3071 -2.3752 -0.0299
38812SOL     OW28414   4.080   2.043  12.121 -0.1102 -0.7168  0.3508
38812SOL    HW128415   4.169   2.077  12.124 -1.0707  1.8790  2.1922
38812SOL    HW228416   4.082   1.976  12.052  2.4934  1.4510 -1.8580
38813SOL     OW28417  13.131   9.421   5.111  0.0304  0.2066  0.5068
38813SOL    HW128418  13.209   9.373   5.081 -1.0342 -0.3942 -1.4598
38813SOL    HW228419  13.144   9.510   5.080  0.2913  0.2984  0.8754
38814SOL     OW28420   0.090  12.818   4.659 -0.3303 -0.1347 -0.8958
38814SOL    HW128421   0.115  12.822   4.751 -1.6247 -0.2007 -0.5270
38814SOL    HW228422   0.138  12.742   4.625  0.4651  0.1240 -0.3929
38815SOL     OW28423  12.062   1.914   1.353  0.2100  0.4972  0.1058
38815SOL    HW128424  12.046   1.948   1.265  0.9360  1.1405  0.2085
38815SOL    HW228425  12.045   1.989   1.411 -0.3915  0.0434  0.5343
38816SOL     OW28426  13.138  12.445  13.623 -0.0807 -0.2077 -0.2353
38816SOL    HW128427  13.106  12.523  13.668 -0.8567 -0.8673  0.3833
38816SOL    HW228428  13.231  12.441  13.644  0.8278  2.3822 -2.9871
38817SOL     OW28429  12.890   7.773  13.394 -0.5135 -0.1459 -0.2003
38817SOL    HW128430  12.825   7.765  13.325 -0.7839  1.2702 -0.1391
38817SOL    HW228431  12.884   7.864  13.423  0.4662 -0.3758  0.8284
38818SOL     OW28432   4.996  11.218  10.098  0.0347 -0.2732  0.2789
38818SOL    HW128433   4.915  11.231  10.048  0.7814  0.0441 -0.8644
38818SOL    HW228434   4.965  11.188  10.184 -1.3378  0.6052  0.1357
38819SOL     OW28435   9.957  12.653   8.182  0.4659 -0.4772 -0.0233
38819SOL    HW128436   9.978  12.712   8.255  0.2974 -0.7445  0.2452
38819SOL    HW228437  10.023  12.673   8.115 -0.0703  0.5711 -0.2523
38820SOL     OW28438   9.357  12.088   5.505 -0.2270  0.1366  0.7017
38820SOL    HW128439   9.425  12.116   5.566  0.5668 -1.2880  0.5124
38820SOL    HW228440   9.346  12.162   5.445  0.3101  0.8249  1.4264
38821SOL     OW28441  12.129   9.809   1.691  0.3410 -0.0775 -0.7330
38821SOL    HW128442  12.038   9.781   1.698  0.3554  0.0717  0.3415
38821SOL    HW228443  12.169   9.747   1.630 -0.1215 -1.1080 -0.0172
38822SOL     OW28444   8.113   6.593   6.656 -0.1256  0.3046 -0.0821
38822SOL    HW128445   8.148   6.504   6.661 -0.7233 -0.0125 -1.1258
38822SOL    HW228446   8.056   6.601   6.733 -1.9257 -1.0920 -1.1610
38823SOL     OW28447   2.160   9.398  10.924  0.2467 -0.3618  0.2426
38823SOL    HW128448   2.097   9.357  10.983  0.0003 -0.6079 -0.1890
38823SOL    HW228449   2.140   9.361  10.838  1.6069 -1.2067  0.2568
38824SOL     OW28450   9.983   1.829  11.666  0.0058  0.6486  0.1729
38824SOL    HW128451   9.895   1.795  11.650  0.8007 -1.8442  0.6359
38824SOL    HW228452   9.989   1.836  11.761  0.8075 -0.8378  0.2654
38825SOL     OW28453   5.341   2.887  12.256 -0.0530  0.0894 -0.7068
38825SOL    HW128454   5.429   2.908  12.226  0.6128  0.4995  1.3176
38825SOL    HW228455   5.288   2.963  12.233  0.3397  0.2526 -1.0830
38826SOL     OW28456   3.137   7.558  12.224  0.4915  0.2025 -0.5307
38826SOL    HW128457   3.180   7.548  12.309  0.7636 -1.1304 -0.7883
38826SOL    HW228458   3.044   7.567  12.244  0.6383  0.7762 -0.0665
38827SOL     OW28459   8.573   7.077   8.128 -0.1256 -0.7558 -0.0159
38827SOL    HW128460   8.591   7.077   8.034 -1.7914 -0.4532 -0.3662
38827SOL    HW228461   8.477   7.078   8.134 -0.0475 -0.9127  1.6890
38828SOL     OW28462   0.639   3.596   2.985 -0.3463 -0.6434 -0.0742
38828SOL    HW128463   0.599   3.653   3.051 -1.0567 -0.6339 -0.4989
38828SOL    HW228464   0.582   3.604   2.909  0.3969 -0.7448 -0.6584
38829SOL     OW28465   8.398   6.465   3.897 -0.0852 -0.0295 -0.0811
38829SOL    HW128466   8.375   6.445   3.806 -1.8719  0.3995  0.2242
38829SOL    HW228467   8.344   6.405   3.948  2.0057 -1.3157  0.7234
38830SOL     OW28468   8.965  12.820   4.213  0.3162  0.3334 -0.0668
38830SOL    HW128469   8.970  12.785   4.302  2.0329  0.4518 -0.0811
38830SOL    HW228470   8.892  12.882   4.216  1.2973  1.5025  1.7078
38831SOL     OW28471   0.179  12.265   2.291 -0.0114 -0.0841 -0.2551
38831SOL    HW128472   0.221  12.198   2.237  1.3763 -0.4400  1.2043
38831SOL    HW228473   0.209  12.248   2.380 -1.0892  1.3701  0.4390
38832SOL     OW28474   8.261   4.730   9.026  0.3133 -0.6531 -0.0985
38832SOL    HW128475   8.307   4.648   9.036  1.7844  0.0751 -0.6749
38832SOL    HW228476   8.321   4.786   8.977 -1.3011  0.2345 -1.1633
38833SOL     OW28477  11.940   2.151  11.788 -0.1926 -0.2089 -0.1594
38833SOL    HW128478  11.994   2.118  11.860  1.1215  1.7160 -0.2001
38833SOL    HW228479  11.928   2.244  11.807 -0.2104  0.2395 -2.1535
38834SOL     OW28480   9.196   4.047  12.103  0.4157  0.4737 -0.3543
38834SOL    HW128481   9.239   3.962  12.112 -0.6563 -0.0487 -0.0086
38834SOL    HW228482   9.138   4.052  12.179 -0.7121  0.8032 -1.2164
38835SOL     OW28483  12.354   6.824  13.013 -0.1042  0.1261 -0.1707
38835SOL    HW128484  12.316   6.737  13.004 -0.0885  0.2249 -1.3032
38835SOL    HW228485  12.295   6.871  13.072  0.3039 -0.8841  1.0680
38836SOL     OW28486   4.494  10.827  10.825  0.4899  0.1460 -0.1455
38836SOL    HW128487   4.428  10.791  10.766 -1.0258  2.7653 -0.2238
38836SOL    HW228488   4.549  10.881  10.769  0.3409  0.9675  0.4707
38837SOL     OW28489  10.591   9.943  13.235  0.0178 -0.0021  0.1174
38837SOL    HW128490  10.557   9.949  13.145 -1.7685 -0.4521  0.7218
38837SOL    HW228491  10.638  10.026  13.248  0.0536  0.1985 -1.1311
38838SOL     OW28492   5.842  12.691   9.677  0.2359  0.2824  0.7317
38838SOL    HW128493   5.886  12.656   9.754  0.0131 -0.8982  0.3447
38838SOL    HW228494   5.799  12.771   9.708  0.9134  0.3290  1.5954
38839SOL     OW28495   6.667   9.410   3.872  0.1750 -0.0200  0.0839
38839SOL    HW128496   6.684   9.457   3.791  0.5750  0.0958  0.2297
38839SOL    HW228497   6.621   9.472   3.928  0.9297  0.2937  0.3714
38840SOL     OW28498  10.257  12.357  14.028 -0.1598  0.0037 -0.3407
38840SOL    HW128499  10.311  12.327  14.102 -0.8390 -0.3545  0.0114
38840SOL    HW228500  10.321  12.390  13.965  0.5496 -1.2373 -0.3128
38841SOL     OW28501  13.182  13.406   8.148  0.1836 -0.0774 -0.1650
38841SOL    HW128502  13.203  13.326   8.197 -1.3453  0.1543  0.9340
38841SOL    HW228503  13.130  13.376   8.074  1.7869 -0.3354 -1.2478
38842SOL     OW28504  12.069   2.723   6.336 -1.1619 -0.1819  0.2752
38842SOL    HW128505  12.054   2.729   6.242  1.0070  1.3517 -0.0468
38842SOL    HW228506  11.990   2.681   6.370 -2.3622 -0.0386 -2.1065
38843SOL     OW28507   5.197   7.521   9.003  0.0356 -0.5342  0.1099
38843SOL    HW128508   5.105   7.543   9.023  0.4209  1.0217  0.3585
38843SOL    HW228509   5.236   7.502   9.089  0.2289  0.0744  0.1661
38844SOL     OW28510   2.374   7.911   2.072 -0.2884  0.0880  0.3804
38844SOL    HW128511   2.465   7.924   2.099  0.8856 -2.5855 -1.7477
38844SOL    HW228512   2.377   7.916   1.976 -1.9412 -2.0547  0.1365
38845SOL     OW28513   3.293   3.558   7.423  0.0951  0.0627  0.2260
38845SOL    HW128514   3.383   3.539   7.398 -1.3415 -1.9506 -4.3365
38845SOL    HW228515   3.257   3.473   7.450 -1.1269  0.2538 -0.7245
38846SOL     OW28516  12.404   9.911   8.160 -0.3526 -0.7166  0.4172
38846SOL    HW128517  12.390   9.905   8.254 -2.1169  2.0461  0.4151
38846SOL    HW228518  12.495   9.939   8.151 -1.3280  3.4584  1.6395
38847SOL     OW28519   1.507   7.801   8.215  0.8514  0.0836 -0.4542
38847SOL    HW128520   1.491   7.885   8.173 -1.3230 -0.0303  0.0323
38847SOL    HW228521   1.582   7.765   8.168  1.7961  2.2336 -0.7182
38848SOL     OW28522   5.454   5.269   3.776 -0.4302  0.0287  0.0538
38848SOL    HW128523   5.505   5.287   3.697 -0.2209 -2.4846 -0.4670
38848SOL    HW228524   5.503   5.313   3.846  1.0476 -0.1945 -0.7940
38849SOL     OW28525  10.670   7.847   8.419 -0.6194 -0.0350 -0.0725
38849SOL    HW128526  10.742   7.830   8.358 -1.0307  2.5986 -1.4830
38849SOL    HW228527  10.617   7.768   8.416  0.4196 -0.7335 -1.6954
38850SOL     OW28528  12.068   1.790   2.150  0.3002 -0.0289 -0.2588
38850SOL    HW128529  12.110   1.842   2.082  1.0225  0.4365  0.5267
38850SOL    HW228530  12.140   1.744   2.194 -0.2979 -1.5837 -0.8265
38851SOL     OW28531   1.239  11.111  10.638  0.0658  0.1261 -0.6817
38851SOL    HW128532   1.290  11.166  10.579 -0.3097  0.5919 -0.5752
38851SOL    HW228533   1.151  11.150  10.638 -0.1591 -0.3731 -0.4791
38852SOL     OW28534   4.054   4.386   0.095 -0.2186 -0.0181 -0.5720
38852SOL    HW128535   4.003   4.325   0.041  0.7163 -0.3300 -1.1375
38852SOL    HW228536   4.076   4.458   0.036  3.7992 -1.9680 -1.8208
38853SOL     OW28537  12.415   3.053  10.612  0.1414 -0.6248 -0.7314
38853SOL    HW128538  12.336   3.000  10.607 -0.5092  0.2125  0.2443
38853SOL    HW228539  12.460   3.023  10.690 -0.8634  1.0361  0.5516
38854SOL     OW28540   4.628   2.444   5.429 -0.0290 -0.0180  0.3849
38854SOL    HW128541   4.666   2.370   5.383 -0.2066  0.0695  0.0938
38854SOL    HW228542   4.581   2.493   5.362  2.4405  1.9679 -0.0818
38855SOL     OW28543   1.861  10.875   7.849  0.5227 -0.0515 -0.0410
38855SOL    HW128544   1.833  10.787   7.872 -0.2459  0.2062  0.0287
38855SOL    HW228545   1.895  10.866   7.760  0.1499 -0.3584 -0.1558
38856SOL     OW28546   0.074   7.363  13.432 -0.1033  0.7818  0.1390
38856SOL    HW128547   0.073   7.277  13.391 -0.4031  0.7098  0.2968
38856SOL    HW228548   0.156   7.365  13.482  1.8001  1.9552 -2.7394
38857SOL     OW28549   1.856   9.198   7.460 -0.3570 -0.5244 -0.6294
38857SOL    HW128550   1.827   9.121   7.509 -2.3663  0.3972 -0.2559
38857SOL    HW228551   1.829   9.272   7.515 -0.2690  0.4787 -1.8954
38858SOL     OW28552   4.504   0.101   2.844  0.1990  0.5029 -0.0012
38858SOL    HW128553   4.445   0.143   2.908 -0.3309  0.3581 -0.3840
38858SOL    HW228554   4.497   0.007   2.864  1.1279  0.5576  0.6393
38859SOL     OW28555   5.063   8.011  11.050  0.3074 -0.0139  0.2875
38859SOL    HW128556   5.124   8.085  11.048 -0.1354  0.3852  0.8401
38859SOL    HW228557   4.980   8.050  11.078  0.7070 -1.1326  3.5015
38860SOL     OW28558   6.958   9.511   4.739  0.6964  0.5075  0.0443
38860SOL    HW128559   6.927   9.483   4.653 -1.6817  0.8096  0.7347
38860SOL    HW228560   7.011   9.438   4.770 -1.6857 -1.4003 -0.0628
38861SOL     OW28561  11.410   7.459  13.194  0.2924 -0.0093 -0.2192
38861SOL    HW128562  11.325   7.449  13.236  0.5639 -0.4630  0.2278
38861SOL    HW228563  11.438   7.370  13.173  0.4028  0.1730 -0.8842
38862SOL     OW28564   7.303  11.983   2.783 -0.3801 -0.5785 -0.5004
38862SOL    HW128565   7.257  11.936   2.714  0.7154 -0.4210 -1.3655
38862SOL    HW228566   7.325  12.068   2.744  0.1989 -0.4638  0.0578
38863SOL     OW28567   1.913  12.360  13.967 -0.3569 -0.0666  0.6887
38863SOL    HW128568   1.940  12.450  13.985  3.5934  0.2381 -4.3110
38863SOL    HW228569   1.840  12.370  13.906  0.1835 -0.1708  0.0107
38864SOL     OW28570   9.374   8.383   4.451  0.2214  0.3830 -0.1163
38864SOL    HW128571   9.361   8.366   4.545 -0.3071  1.2269 -0.0230
38864SOL    HW228572   9.295   8.348   4.410  0.5022 -0.0845 -0.2697
38865SOL     OW28573  13.100   0.975  13.553 -0.4703  0.4913 -0.7816
38865SOL    HW128574  13.132   0.926  13.477  0.1508  0.6961 -0.6617
38865SOL    HW228575  13.177   1.026  13.582 -0.9028  0.9756 -0.4703
38866SOL     OW28576   4.709   4.151   7.663  0.0178  0.0568  0.1140
38866SOL    HW128577   4.653   4.075   7.677 -0.0712  0.2969  1.1205
38866SOL    HW228578   4.687   4.181   7.575 -2.7512  1.2138  1.1116
38867SOL     OW28579  13.579   7.838  13.689  0.1903  0.3294 -0.1013
38867SOL    HW128580  13.669   7.864  13.669  0.3157  0.8269  1.0178
38867SOL    HW228581  13.560   7.879  13.773 -1.2204  0.5474 -0.4873
38868SOL     OW28582  12.368   7.565  11.397 -0.5186 -0.2165 -0.1522
38868SOL    HW128583  12.283   7.579  11.438 -1.1731 -0.2955 -1.4235
38868SOL    HW228584  12.361   7.479  11.356  0.5570 -0.6940  0.5900
38869SOL     OW28585   4.271   2.787   7.925 -0.1112 -0.7447  0.1699
38869SOL    HW128586   4.286   2.786   7.831  2.5912  1.0056  0.4682
38869SOL    HW228587   4.218   2.865   7.940 -2.5314 -2.2550 -0.0337
38870SOL     OW28588   0.251   8.899   1.306  0.2031  0.1177  0.3167
38870SOL    HW128589   0.261   8.918   1.399  1.2522  0.4735  0.1561
38870SOL    HW228590   0.275   8.981   1.263 -0.2891 -0.0411 -0.2685
38871SOL     OW28591   4.289   4.368  10.864  0.1132 -0.5550  0.0889
38871SOL    HW128592   4.342   4.445  10.842  1.5068 -1.0568  1.4947
38871SOL    HW228593   4.231   4.357  10.789 -1.1483  2.7104  0.4115
38872SOL     OW28594  10.887   9.760   4.441  0.1040  0.1856  0.1751
38872SOL    HW128595  10.950   9.711   4.389  0.7639  1.3551 -0.1784
38872SOL    HW228596  10.928   9.768   4.527  0.4550  0.9614 -0.0597
38873SOL     OW28597   7.680   5.529   1.655  0.2614  0.0641 -0.0187
38873SOL    HW128598   7.615   5.520   1.726 -0.5840  0.3879 -0.7312
38873SOL    HW228599   7.732   5.448   1.660 -0.7100 -0.5790  0.0713
38874SOL     OW28600   3.422   3.821   5.167  0.3434 -0.0795 -0.3965
38874SOL    HW128601   3.503   3.806   5.215  0.4486  1.4620 -0.0304
38874SOL    HW228602   3.354   3.779   5.221  0.4427  1.7148  1.2249
38875SOL     OW28603   2.172  13.995   3.905  1.0503  0.0698  0.1538
38875SOL    HW128604   2.130  13.922   3.859  1.7637 -0.2714  0.0383
38875SOL    HW228605   2.175  13.966   3.996  1.8661 -0.3052  0.0157
38876SOL     OW28606   8.123  13.159  13.937 -0.4647  0.1649 -0.0865
38876SOL    HW128607   8.151  13.148  14.027 -0.9081  0.7166  0.1287
38876SOL    HW228608   8.107  13.070  13.905  0.6746 -0.0951  0.0512
38877SOL     OW28609   6.512   9.360  11.050 -0.1070  0.3506 -0.3998
38877SOL    HW128610   6.541   9.313  10.972  1.2741  2.8489 -1.5462
38877SOL    HW228611   6.465   9.295  11.102  1.1713 -2.0791 -2.0679
38878SOL     OW28612   6.340   0.290   4.226  0.5403  0.5097 -0.8934
38878SOL    HW128613   6.314   0.371   4.270 -0.8484  0.7427 -2.0939
38878SOL    HW228614   6.318   0.221   4.288 -0.9310  0.8630 -1.0014
38879SOL     OW28615   3.648   2.043  11.393 -0.2122  0.9616 -0.2575
38879SOL    HW128616   3.573   2.047  11.334 -0.5959  0.1727  0.1561
38879SOL    HW228617   3.699   1.969  11.362 -1.0351 -0.2298  1.0711
38880SOL     OW28618   9.117   0.442   4.452  0.4784 -0.2504  0.2646
38880SOL    HW128619   9.080   0.354   4.450  0.3619 -0.1890 -0.2523
38880SOL    HW228620   9.112   0.467   4.545 -1.0565 -0.1227  0.1745
38881SOL     OW28621  10.141   0.152   5.792 -0.4788 -0.2928  0.2599
38881SOL    HW128622  10.150   0.211   5.867 -0.6430  0.4347 -0.2830
38881SOL    HW228623  10.109   0.070   5.830  0.4806 -0.2997  1.1354
38882SOL     OW28624   4.279   3.526  12.405 -0.6396  0.2635 -0.0495
38882SOL    HW128625   4.315   3.541  12.493 -1.9439 -0.4662  0.6376
38882SOL    HW228626   4.355   3.508  12.351  0.1645  0.3859  1.0014
38883SOL     OW28627   5.647   3.669  10.606  0.3409 -0.4862  0.2796
38883SOL    HW128628   5.714   3.601  10.612  2.8640  1.8004 -0.0970
38883SOL    HW228629   5.669   3.731  10.675 -1.8244  0.0488  0.5680
38884SOL     OW28630   5.746   5.609   5.188 -0.0863  0.0616  0.3469
38884SOL    HW128631   5.732   5.680   5.251 -3.9507  0.4093 -0.6243
38884SOL    HW228632   5.800   5.648   5.120 -0.8944  1.6297  0.5589
38885SOL     OW28633   1.893   1.286  11.028 -0.2238  0.5364 -0.3129
38885SOL    HW128634   1.942   1.229  11.088  0.1845  2.2540  1.0853
38885SOL    HW228635   1.816   1.312  11.077 -0.6953  0.7442 -1.1450
38886SOL     OW28636  10.014   6.052  11.084  0.1456 -0.0043 -0.1630
38886SOL    HW128637  10.018   6.128  11.143 -1.0318 -0.7150  0.8582
38886SOL    HW228638  10.103   6.046  11.048  0.8859  0.5019  1.4698
38887SOL     OW28639   9.250   2.560   4.658  0.0655 -0.3941 -0.0242
38887SOL    HW128640   9.326   2.617   4.646 -1.1200  1.5013  0.8620
38887SOL    HW228641   9.176   2.621   4.663 -1.2658 -2.0273  1.2447
38888SOL     OW28642  12.098  13.938   6.596 -0.2284 -0.3404  0.5499
38888SOL    HW128643  12.004  13.946   6.578 -0.4095  0.7859  1.8689
38888SOL    HW228644  12.123  14.021   6.635  1.0042 -1.1629  1.6073
38889SOL     OW28645   8.835   5.919   6.217  0.3872  0.2855  0.1208
38889SOL    HW128646   8.914   5.970   6.200 -0.3644  1.5458  0.2708
38889SOL    HW228647   8.866   5.838   6.257  1.5147  1.2962  1.3753
38890SOL     OW28648   8.504  13.694   7.357  0.6359  0.0730  0.3268
38890SOL    HW128649   8.415  13.688   7.392 -0.0914 -0.3115 -1.4640
38890SOL    HW228650   8.552  13.623   7.400  0.1039  0.3351  1.3655
38891SOL     OW28651  11.874   4.062   3.300 -0.5771  1.0759 -0.1755
38891SOL    HW128652  11.869   4.120   3.376  0.6859 -0.0745  0.8177
38891SOL    HW228653  11.967   4.044   3.289 -0.9716 -1.4738  0.1092
38892SOL     OW28654   0.168  10.368  13.799 -0.2873  0.2345  0.1016
38892SOL    HW128655   0.085  10.413  13.813  0.2607  1.5598 -0.6363
38892SOL    HW228656   0.180  10.314  13.876 -0.8157  1.6821  1.2402
38893SOL     OW28657  13.064   6.505  11.859  0.0223  0.1172 -0.1223
38893SOL    HW128658  13.070   6.412  11.839 -0.2028  0.4024 -1.6411
38893SOL    HW228659  13.004   6.510  11.934 -1.4051 -0.8424 -1.1525
38894SOL     OW28660   8.373   2.127   1.901 -0.2115 -0.2515  0.6428
38894SOL    HW128661   8.397   2.064   1.969 -1.5660 -3.2898 -1.4725
38894SOL    HW228662   8.287   2.160   1.928  1.4175  2.7154  2.9164
38895SOL     OW28663   1.511   8.593  13.831  0.2099 -0.1166  0.4191
38895SOL    HW128664   1.552   8.606  13.917 -0.4776 -0.9799  0.9039
38895SOL    HW228665   1.419   8.572  13.852 -0.2654  0.8817 -0.5937
38896SOL     OW28666   4.995  12.754   9.509 -0.2968 -0.9456  0.3481
38896SOL    HW128667   5.063  12.801   9.459  0.1014 -1.6345  0.2277
38896SOL    HW228668   4.933  12.726   9.442  0.3184 -2.0057  0.2052
38897SOL     OW28669   0.684   4.787   5.673  0.2250  0.6338 -0.1666
38897SOL    HW128670   0.690   4.695   5.645 -0.2735  0.7347 -0.6167
38897SOL    HW228671   0.773   4.819   5.669  0.6999 -0.3063  1.6536
38898SOL     OW28672   0.169   4.221  11.267  0.0560 -0.5088  0.1617
38898SOL    HW128673   0.207   4.244  11.352 -0.7398 -0.2730  0.4665
38898SOL    HW228674   0.106   4.152  11.288 -0.0852 -0.5035 -0.2513
38899SOL     OW28675   2.872   3.163  12.828  0.4960 -0.3322 -0.1519
38899SOL    HW128676   2.886   3.243  12.776  1.5246 -2.2338 -3.0412
38899SOL    HW228677   2.788   3.129  12.797  1.0222 -1.3891 -0.4561
38900SOL     OW28678   6.435   0.235   2.567  0.0967  0.3683 -0.4598
38900SOL    HW128679   6.396   0.258   2.483 -2.5161 -0.4635  0.4166
38900SOL    HW228680   6.412   0.308   2.625  1.4494  0.7072 -0.3205
38901SOL     OW28681   7.280  10.657  10.191  0.3578  0.0334  0.7239
38901SOL    HW128682   7.300  10.676  10.283  0.1483  1.4512  0.4957
38901SOL    HW228683   7.313  10.733  10.143 -1.0205  0.0898 -0.1958
38902SOL     OW28684  11.222  12.367   1.113  0.7301 -0.6481 -0.1574
38902SOL    HW128685  11.226  12.401   1.023  0.5892 -0.3791 -0.0619
38902SOL    HW228686  11.223  12.445   1.168 -0.6700 -0.7332  0.0350
38903SOL     OW28687   2.236  10.693   7.688  1.0257  0.4762 -0.7315
38903SOL    HW128688   2.160  10.642   7.663  2.2688 -3.0250  1.8451
38903SOL    HW228689   2.202  10.756   7.752  0.3514 -2.0368  1.5481
38904SOL     OW28690   1.362   3.986   9.666 -0.1673 -0.6167  0.3322
38904SOL    HW128691   1.341   4.045   9.594  0.9562 -0.2132  0.3105
38904SOL    HW228692   1.457   3.994   9.676 -0.2159 -1.2070  1.3892
38905SOL     OW28693   4.936   3.099  13.201 -0.4258 -0.1044  0.3996
38905SOL    HW128694   4.852   3.128  13.237 -0.5544 -0.2437  0.2106
38905SOL    HW228695   4.995   3.100  13.277 -0.1311  1.7415  0.1891
38906SOL     OW28696   4.580  13.192   2.960 -0.2181 -0.0902 -0.4943
38906SOL    HW128697   4.555  13.267   2.906  0.1704  1.0627  0.8568
38906SOL    HW228698   4.595  13.229   3.047 -1.5200 -1.9859  0.6003
38907SOL     OW28699   7.399   3.623  12.879  0.4851 -0.2494 -0.0488
38907SOL    HW128700   7.471   3.686  12.870 -0.6907  1.0488 -0.8450
38907SOL    HW228701   7.346   3.658  12.951 -0.8524  0.4287 -1.3079
38908SOL     OW28702   4.231   9.138   2.431 -0.3571  0.2739 -0.4650
38908SOL    HW128703   4.248   9.085   2.353 -0.7607 -0.3457 -0.1407
38908SOL    HW228704   4.296   9.208   2.428  2.4419 -2.0589  0.8017
38909SOL     OW28705   2.871   0.294   0.821 -0.2783 -0.0475 -0.1445
38909SOL    HW128706   2.801   0.228   0.822 -0.9322  0.6252  1.2331
38909SOL    HW228707   2.840   0.360   0.759 -1.5040  0.8512  1.3498
38910SOL     OW28708   0.808   2.893   1.165 -1.0434  0.0733  0.2707
38910SOL    HW128709   0.784   2.931   1.250  1.3319 -0.3079  1.1834
38910SOL    HW228710   0.843   2.967   1.115 -0.3589 -0.1088  0.4720
38911SOL     OW28711  12.446   0.248   1.435  0.0283 -0.0671  0.0488
38911SOL    HW128712  12.403   0.166   1.410  0.4400  0.0830 -1.2368
38911SOL    HW228713  12.376   0.314   1.433 -0.1067 -0.2089  0.0987
38912SOL     OW28714   6.415   2.734   2.721  0.5249  0.8425  0.2629
38912SOL    HW128715   6.327   2.698   2.716 -0.2416  2.6798 -3.7546
38912SOL    HW228716   6.472   2.659   2.739 -1.5883 -0.8807  0.0569
38913SOL     OW28717  11.915  13.304   7.670 -0.4044 -0.4784  0.4552
38913SOL    HW128718  11.980  13.374   7.676 -0.5939 -0.2550 -0.0599
38913SOL    HW228719  11.863  13.312   7.749 -0.3987 -0.0653  0.4165
38914SOL     OW28720   0.440   3.974   7.603  0.5259 -0.4329 -0.7090
38914SOL    HW128721   0.387   3.896   7.618  1.6777 -0.9446  1.0157
38914SOL    HW228722   0.377   4.046   7.605 -0.3748 -1.1848 -0.9614
38915SOL     OW28723   6.070  10.173   8.089  0.1928  0.5604 -0.1011
38915SOL    HW128724   6.080  10.269   8.090 -1.1963  0.7253 -0.0328
38915SOL    HW228725   6.006  10.155   8.158 -0.0784 -0.3512 -0.5774
38916SOL     OW28726   6.281   3.080   7.375  0.3221  0.2880 -0.1244
38916SOL    HW128727   6.273   2.986   7.389 -0.5897  0.1607 -1.3076
38916SOL    HW228728   6.251   3.094   7.285  1.0086  1.6403 -0.1779
38917SOL     OW28729   1.118   0.828   3.091 -0.1777 -0.1380 -0.2397
38917SOL    HW128730   1.059   0.831   3.166  0.0234  1.3046 -0.0951
38917SOL    HW228731   1.203   0.808   3.129 -0.3881 -1.2582 -0.3295
38918SOL     OW28732   5.623  12.906  11.415  0.7076  0.0376 -0.3081
38918SOL    HW128733   5.537  12.866  11.405  1.2635 -1.3743  0.3508
38918SOL    HW228734   5.651  12.925  11.326 -0.4176  0.8467 -0.5130
38919SOL     OW28735   4.262   1.044  10.923  0.0184 -0.1984  0.0263
38919SOL    HW128736   4.214   1.126  10.911  0.2429  0.1042  1.1162
38919SOL    HW228737   4.268   1.033  11.017  1.5809 -0.5276 -0.0745
38920SOL     OW28738   5.601  11.895   9.891  0.0962 -0.5152  0.1464
38920SOL    HW128739   5.624  11.804   9.873  0.4721 -0.1009 -1.5933
38920SOL    HW228740   5.506  11.899   9.876  0.3390 -0.2685 -1.4237
38921SOL     OW28741   6.533   0.011  14.035  0.2969  0.0916  0.4276
38921SOL    HW128742   6.577  -0.048  13.974  0.7672 -0.3702  1.1925
38921SOL    HW228743   6.576  -0.005  14.119  0.5085  1.6045  0.6370
38922SOL     OW28744   2.878  10.331   4.772  0.5481  0.2076  0.6253
38922SOL    HW128745   2.952  10.378   4.809  1.2509 -1.4668  1.4250
38922SOL    HW228746   2.822  10.310   4.847  1.1227 -1.7051  0.5764
38923SOL     OW28747  11.318   5.964   7.792 -0.2597 -0.1621  0.1655
38923SOL    HW128748  11.281   6.026   7.729  1.8786 -0.3912 -1.4214
38923SOL    HW228749  11.405   5.944   7.758  0.7980 -0.7366  2.9381
38924SOL     OW28750   9.976   9.656   8.675  0.2600 -0.0881 -0.2058
38924SOL    HW128751  10.027   9.694   8.746  0.4751 -1.6550  0.5247
38924SOL    HW228752   9.904   9.717   8.661  1.4722  1.3881 -0.2162
38925SOL     OW28753   6.416  12.245   0.500  0.0284  0.0264  0.2402
38925SOL    HW128754   6.381  12.170   0.452 -0.1791 -0.7287  1.5072
38925SOL    HW228755   6.448  12.305   0.433 -2.3676  0.0971 -0.9414
38926SOL     OW28756   9.282   4.711   2.873 -0.2766  0.0060 -0.5033
38926SOL    HW128757   9.275   4.769   2.796 -0.1408  0.7491  0.0304
38926SOL    HW228758   9.233   4.633   2.848 -3.5550  1.7019 -0.0012
38927SOL     OW28759   6.141  13.649  12.854  0.1713 -0.2178  0.0679
38927SOL    HW128760   6.082  13.621  12.923 -0.2776 -1.2042 -0.6997
38927SOL    HW228761   6.084  13.685  12.786  0.3132 -2.0998 -1.1186
38928SOL     OW28762  12.800  11.294   1.620 -0.0548  0.1995 -0.1339
38928SOL    HW128763  12.723  11.291   1.677  0.3621 -0.5074  0.4092
38928SOL    HW228764  12.869  11.331   1.676  0.3979 -0.6504 -0.1250
38929SOL     OW28765   5.398   5.868  10.496  0.6305 -0.1369 -0.2187
38929SOL    HW128766   5.486   5.833  10.487  1.2952  1.6075 -0.9987
38929SOL    HW228767   5.372   5.891  10.407 -0.5188 -0.3824  0.0342
38930SOL     OW28768  13.057   8.776   0.002  0.7428  0.0365 -0.0692
38930SOL    HW128769  13.089   8.813   0.085 -0.2909 -0.4053  0.5420
38930SOL    HW228770  13.037   8.853  -0.051 -1.1959  0.4419  1.1223
38931SOL     OW28771  10.539   4.789   1.807 -0.2558 -0.2190 -0.0374
38931SOL    HW128772  10.546   4.719   1.872  0.0326  0.3675  0.5712
38931SOL    HW228773  10.446   4.811   1.805 -0.2090  0.0511  0.4979
38932SOL     OW28774  12.479   5.969   8.830 -0.4619  0.3621  0.8813
38932SOL    HW128775  12.390   5.945   8.804  0.2656 -1.2150 -0.3474
38932SOL    HW228776  12.478   5.965   8.926 -1.8484  0.9912  0.9185
38933SOL     OW28777   6.155   4.505   5.873 -0.7250  0.2771  0.1201
38933SOL    HW128778   6.148   4.468   5.961 -1.3177  1.8846  0.7836
38933SOL    HW228779   6.145   4.600   5.886  0.1233  0.6336 -1.5709
38934SOL     OW28780   3.054   2.753  12.154  0.3967 -0.3695  0.3924
38934SOL    HW128781   2.975   2.784  12.197  1.5739  2.4923  0.7342
38934SOL    HW228782   3.126   2.791  12.205  1.9916 -1.5994 -0.8025
38935SOL     OW28783   2.033   1.987  13.490  0.3400 -0.0339  0.0320
38935SOL    HW128784   1.951   1.963  13.533 -1.2335  0.7015 -2.3787
38935SOL    HW228785   2.058   1.910  13.439  1.9191 -0.7189  1.7166
38936SOL     OW28786   3.354   4.139   6.043 -0.5518 -0.1707  0.3220
38936SOL    HW128787   3.444   4.119   6.019 -0.2307 -1.4841  2.3854
38936SOL    HW228788   3.301   4.095   5.975  0.3443 -0.7807  0.0024
38937SOL     OW28789   9.124  12.602   5.941  0.2923  0.4411  0.3827
38937SOL    HW128790   9.053  12.562   5.890 -0.7133  1.1061  1.2113
38937SOL    HW228791   9.156  12.531   5.997  0.1547  0.1864  0.1418
38938SOL     OW28792  10.981  11.297   8.169 -0.6496 -0.2252  0.6066
38938SOL    HW128793  10.988  11.205   8.194  0.7762 -0.0643  0.9100
38938SOL    HW228794  11.007  11.299   8.077  0.6725  0.0260  0.9651
38939SOL     OW28795   2.952   5.772   5.026 -0.0402  0.1179  0.6704
38939SOL    HW128796   2.929   5.807   5.112  1.1817 -2.0756  1.9874
38939SOL    HW228797   2.880   5.712   5.005 -0.7915  1.3128 -0.3223
38940SOL     OW28798  10.211   4.262   5.937  0.1922  0.5257 -0.3123
38940SOL    HW128799  10.241   4.273   5.847  1.1489 -2.3059 -0.4408
38940SOL    HW228800  10.174   4.347   5.961  2.6554  2.3098 -2.3141
38941SOL     OW28801   2.324   9.574   5.194 -0.5762  0.0322 -0.1308
38941SOL    HW128802   2.317   9.625   5.113  0.9274  0.0848 -0.2565
38941SOL    HW228803   2.314   9.639   5.263 -1.7651  0.0023 -0.2505
38942SOL     OW28804   5.679   4.484  11.708  0.1465  0.4236  0.6133
38942SOL    HW128805   5.764   4.456  11.673 -0.7767 -0.7173 -0.7993
38942SOL    HW228806   5.686   4.467  11.802  1.2740 -0.2067  0.4374
38943SOL     OW28807  13.288  12.225  10.754  0.0576  0.0571  0.2896
38943SOL    HW128808  13.347  12.167  10.708  1.2812 -0.0621  1.9196
38943SOL    HW228809  13.238  12.168  10.813  0.5219  0.4964  1.1355
38944SOL     OW28810  12.867  10.304   3.265 -0.2527  0.7308 -0.2213
38944SOL    HW128811  12.939  10.241   3.265 -0.0837  0.9200 -0.1634
38944SOL    HW228812  12.845  10.317   3.173 -1.0053 -0.2214 -0.1806
38945SOL     OW28813   4.879   1.232   1.968 -0.1352 -0.2861 -0.7410
38945SOL    HW128814   4.796   1.223   2.015  0.6279  0.6853  0.8793
38945SOL    HW228815   4.901   1.325   1.974  2.0016 -0.7988  0.5917
38946SOL     OW28816   2.380   3.769   3.951  0.3911 -0.2386 -0.1415
38946SOL    HW128817   2.377   3.686   3.903 -0.2344  0.2689 -1.0093
38946SOL    HW228818   2.334   3.831   3.894 -2.4641 -0.0909  2.0786
38947SOL     OW28819  10.775  10.075   2.262  0.3619 -0.1956 -0.5590
38947SOL    HW128820  10.813  10.155   2.226  0.6952 -0.2842 -0.4037
38947SOL    HW228821  10.731  10.104   2.342  0.3360 -0.1398 -0.5929
38948SOL     OW28822  10.270  10.720   7.184 -0.2098  0.7300 -0.0293
38948SOL    HW128823  10.272  10.657   7.112 -1.5715  1.0251 -0.3590
38948SOL    HW228824  10.358  10.757   7.187  0.0321  0.2620 -1.1390
38949SOL     OW28825   2.378  12.757   0.373  0.0725 -0.0798  0.1320
38949SOL    HW128826   2.361  12.778   0.465  2.2774  0.8646  0.3796
38949SOL    HW228827   2.410  12.838   0.335  0.4034 -0.7856 -1.1595
38950SOL     OW28828   3.330   6.088   7.978  0.4991  0.2575 -0.4597
38950SOL    HW128829   3.249   6.057   8.019 -0.4541 -2.0209 -3.6817
38950SOL    HW228830   3.390   6.100   8.051 -2.2974  0.8409  1.9630
38951SOL     OW28831   1.041  12.473   6.763  0.3313  0.5550  0.3676
38951SOL    HW128832   1.100  12.492   6.689  1.2125 -0.1811  0.8608
38951SOL    HW228833   1.081  12.519   6.837  1.5589 -1.7225  1.1984
38952SOL     OW28834  11.805   0.837   2.468  0.2664 -0.1756 -0.0022
38952SOL    HW128835  11.822   0.755   2.423  0.3645 -0.4219  0.4763
38952SOL    HW228836  11.728   0.874   2.425  0.1433 -0.5814 -0.1266
38953SOL     OW28837   4.490   1.267   6.811 -0.1279 -0.2055  0.0569
38953SOL    HW128838   4.415   1.218   6.777 -0.8461 -0.2141  1.5400
38953SOL    HW228839   4.566   1.223   6.775 -0.8197  0.1918 -1.9984
38954SOL     OW28840   8.507  10.539   6.712 -0.3303  0.0697  0.6789
38954SOL    HW128841   8.590  10.490   6.715 -0.1215 -0.0612 -2.7236
38954SOL    HW228842   8.507  10.591   6.792  1.7946 -1.8109  2.0356
38955SOL     OW28843   8.652   3.875   3.407  0.4395  0.2471 -0.2820
38955SOL    HW128844   8.697   3.795   3.435  1.6405  1.4228  1.3165
38955SOL    HW228845   8.580   3.885   3.468  0.7692  0.7895  0.0279
38956SOL     OW28846  10.202   1.180   5.234 -0.1663 -0.3156  0.5593
38956SOL    HW128847  10.165   1.111   5.178 -0.6947 -0.0318  0.5537
38956SOL    HW228848  10.218   1.137   5.318 -1.9368 -0.0958  1.0500
38957SOL     OW28849   4.900   5.592   9.278  0.0368 -0.0970  0.4461
38957SOL    HW128850   4.969   5.596   9.345 -0.6752  3.3457  1.1686
38957SOL    HW228851   4.879   5.683   9.260 -0.3953 -0.8577 -3.9726
38958SOL     OW28852  11.402   4.276   7.732  0.0482 -0.0045  0.5663
38958SOL    HW128853  11.338   4.339   7.699  0.2892 -0.5817 -1.0761
38958SOL    HW228854  11.412   4.299   7.825 -1.4787  0.9803  0.5297
38959SOL     OW28855   0.949   9.230  10.435 -0.0558  0.4463  0.2421
38959SOL    HW128856   0.987   9.144  10.451  2.0984  1.1211 -0.8679
38959SOL    HW228857   0.879   9.213  10.371 -0.6248 -0.6114  1.0937
38960SOL     OW28858  11.372   2.523  12.888 -0.2948 -0.2470 -0.2662
38960SOL    HW128859  11.427   2.511  12.810 -0.4586 -0.1396 -0.4015
38960SOL    HW228860  11.388   2.613  12.915  2.2604 -1.1700  1.7795
38961SOL     OW28861   3.297   3.480   0.187 -0.6189 -0.1621  0.1157
38961SOL    HW128862   3.371   3.476   0.247  1.3066  0.2374 -2.1213
38961SOL    HW228863   3.256   3.565   0.206 -0.0659 -0.0536  0.8840
38962SOL     OW28864   9.751   1.111  13.700  0.6178 -0.7782  0.1192
38962SOL    HW128865   9.702   1.119  13.782  1.6897 -1.4208  0.8436
38962SOL    HW228866   9.684   1.116  13.632 -0.0970  1.7849  0.9102
38963SOL     OW28867  12.664   0.347  12.559  0.1005  0.0940  0.1209
38963SOL    HW128868  12.600   0.329  12.490  0.5062 -2.0842  0.2277
38963SOL    HW228869  12.622   0.315  12.639 -0.0685  1.9234  0.8146
38964SOL     OW28870   8.224   3.735   0.705 -0.2451  0.2386 -0.2451
38964SOL    HW128871   8.131   3.736   0.727 -0.1954  1.9063 -0.0147
38964SOL    HW228872   8.227   3.754   0.611 -0.1015  1.0213 -0.0839
38965SOL     OW28873   2.406   5.077  10.288  0.0996 -0.9285  0.6067
38965SOL    HW128874   2.318   5.116  10.289  0.0169 -1.1173  1.3928
38965SOL    HW228875   2.419   5.050  10.197 -1.0488 -1.7606  0.6611
38966SOL     OW28876  11.142   9.607   3.623  0.0528 -0.1018 -0.0683
38966SOL    HW128877  11.096   9.634   3.703 -0.4619  0.2672 -0.4823
38966SOL    HW228878  11.226   9.654   3.627 -0.7418  1.4439 -0.6727
38967SOL     OW28879   8.936   1.876   6.892 -0.6468  0.3965 -0.1438
38967SOL    HW128880   9.019   1.869   6.938 -1.0319 -0.5637  0.4153
38967SOL    HW228881   8.943   1.814   6.820 -0.0721  1.8399 -1.4053
38968SOL     OW28882   6.282   3.400  13.297 -0.2330  0.0575  0.0711
38968SOL    HW128883   6.316   3.312  13.282  1.7678  0.5527  1.2415
38968SOL    HW228884   6.326   3.429  13.377 -0.6838  2.1928 -0.3941
38969SOL     OW28885   9.877  12.026   6.665 -0.7247 -0.8968  0.6625
38969SOL    HW128886   9.900  12.118   6.658  1.1177 -1.2934  1.0986
38969SOL    HW228887   9.797  12.017   6.612 -1.0349  0.9516  0.7634
38970SOL     OW28888   0.845   0.377  10.275 -0.1387 -0.6575  0.2025
38970SOL    HW128889   0.864   0.383  10.368 -0.2847  1.2841  0.1378
38970SOL    HW228890   0.749   0.386  10.269 -0.0459  0.2107 -0.1739
38971SOL     OW28891   1.549   5.397   3.600  0.3063  0.4462  1.2258
38971SOL    HW128892   1.577   5.326   3.656 -1.8287 -0.0270  1.7733
38971SOL    HW228893   1.561   5.476   3.653 -1.6871  0.0067  2.4354
38972SOL     OW28894   6.038   2.364   9.715  0.1425  0.3408 -0.1067
38972SOL    HW128895   5.959   2.330   9.673 -0.5378 -0.0553  1.3957
38972SOL    HW228896   6.037   2.458   9.696 -0.7651  0.3575 -0.0403
38973SOL     OW28897   8.842   4.259   5.085 -0.3111 -0.4587  0.5880
38973SOL    HW128898   8.831   4.164   5.088  0.2642 -0.5181  0.8797
38973SOL    HW228899   8.893   4.275   5.005  0.3104 -0.4712  0.9777
38974SOL     OW28900   9.582   0.952   1.871 -0.0747  0.6098  0.2207
38974SOL    HW128901   9.655   0.945   1.810  0.3849  0.7034  0.7442
38974SOL    HW228902   9.519   0.886   1.842  0.3684  0.2996 -0.0403
38975SOL     OW28903  12.611   9.177   7.709 -0.6246  0.0173 -0.8213
38975SOL    HW128904  12.699   9.210   7.691 -0.0355 -0.7657  0.4812
38975SOL    HW228905  12.571   9.243   7.765  0.4588 -1.2186  1.5641
38976SOL     OW28906   7.800  10.260   0.428  0.1622  0.1904  0.2033
38976SOL    HW128907   7.843  10.222   0.352  1.1000  0.3365  0.6499
38976SOL    HW228908   7.806  10.193   0.496  1.5315  0.9690  0.8938
38977SOL     OW28909   2.394  10.486   1.499  0.0603 -0.1338 -0.4021
38977SOL    HW128910   2.425  10.533   1.421  0.4578  1.1418  0.4869
38977SOL    HW228911   2.423  10.396   1.486  0.1487  0.0605 -1.7083
38978SOL     OW28912   6.672   0.335   8.072  0.1301 -0.4097 -0.0712
38978SOL    HW128913   6.644   0.367   8.158  2.2301 -0.7888  0.8133
38978SOL    HW228914   6.590   0.307   8.029 -0.9819 -0.1223  1.7408
38979SOL     OW28915  11.515   3.639   6.844  0.0221  0.7054  0.3888
38979SOL    HW128916  11.425   3.657   6.868 -1.1508 -1.7491 -1.6016
38979SOL    HW228917  11.553   3.724   6.824 -1.3947  1.9255  2.5245
38980SOL     OW28918   2.352  11.894   6.855  0.0539 -0.2560  0.3449
38980SOL    HW128919   2.330  11.869   6.945 -2.2634  0.6404  0.1094
38980SOL    HW228920   2.272  11.876   6.806  1.0081  0.0597 -1.3854
38981SOL     OW28921   3.777   9.380   9.989 -0.0196  0.0139  0.1737
38981SOL    HW128922   3.802   9.382   9.897 -1.0103 -1.7038 -0.1550
38981SOL    HW228923   3.681   9.383   9.988 -0.0261  0.6214  1.1899
38982SOL     OW28924   8.258   8.787   3.168 -0.0461 -0.1114  0.1197
38982SOL    HW128925   8.245   8.695   3.190 -0.8451  0.1161  0.6394
38982SOL    HW228926   8.242   8.834   3.249 -0.5303  0.5491 -0.3436
38983SOL     OW28927  10.575  10.889  12.727 -0.0563  0.1472  0.1088
38983SOL    HW128928  10.578  10.795  12.746 -0.0013  0.0723 -0.2608
38983SOL    HW228929  10.637  10.928  12.788 -1.3589  0.1624  1.4739
38984SOL     OW28930   4.303  12.526   4.598  0.2933 -0.1551  0.0081
38984SOL    HW128931   4.290  12.502   4.690 -0.2422 -2.7740 -0.6548
38984SOL    HW228932   4.248  12.603   4.585  0.6135  0.4404  1.9371
38985SOL     OW28933   4.171   1.771   8.560  0.1005 -0.3853  0.4032
38985SOL    HW128934   4.222   1.691   8.568 -0.7069 -1.0731 -1.0024
38985SOL    HW228935   4.090   1.744   8.518 -0.7710  0.9569  1.1432
38986SOL     OW28936  11.679   4.625  11.958  0.1104  0.9866 -0.4008
38986SOL    HW128937  11.751   4.571  11.926  0.4901  1.8710 -1.0700
38986SOL    HW228938  11.700   4.714  11.929 -1.5993  1.1534 -1.2375
38987SOL     OW28939   8.247  11.029   9.743 -0.3947 -0.0454 -0.1800
38987SOL    HW128940   8.155  11.029   9.718 -0.6276  1.6415  0.5163
38987SOL    HW228941   8.293  11.061   9.665 -0.3942 -0.7564 -0.4804
38988SOL     OW28942   0.889   6.149  13.570  0.3694  0.5091 -0.7125
38988SOL    HW128943   0.862   6.071  13.618  1.1204 -0.0570 -1.1872
38988SOL    HW228944   0.893   6.218  13.637 -0.3315  0.1598 -0.2948
38989SOL     OW28945   4.375   0.177   3.937 -0.5902 -0.5174  0.0957
38989SOL    HW128946   4.314   0.111   3.905 -1.0282  0.1119 -0.3674
38989SOL    HW228947   4.456   0.161   3.887 -1.6114  1.2060 -2.2795
38990SOL     OW28948   6.123   9.180   3.369  0.2934 -0.1589  0.1504
38990SOL    HW128949   6.067   9.161   3.444 -0.8508  1.3879 -0.2624
38990SOL    HW228950   6.210   9.196   3.408 -0.6064  2.2118  1.4250
38991SOL     OW28951   2.218   8.543  10.601 -0.2555  0.0940  0.2303
38991SOL    HW128952   2.198   8.474  10.538 -2.1233 -1.8872  2.7632
38991SOL    HW228953   2.293   8.510  10.650  0.3275  0.9850 -0.0355
38992SOL     OW28954  11.125   5.049   6.799  0.0279 -0.4976  0.0211
38992SOL    HW128955  11.161   5.133   6.828  2.3457 -1.8979  1.5804
38992SOL    HW228956  11.192   5.014   6.739 -0.4756 -1.6059  0.0852
38993SOL     OW28957   4.124   5.939   8.126  0.7444  0.3750 -0.1805
38993SOL    HW128958   4.172   6.015   8.095  0.5176  0.3252 -0.6590
38993SOL    HW228959   4.068   5.913   8.053 -0.3618  0.7126  0.5125
38994SOL     OW28960  13.850   8.864   2.353 -0.0706  0.0110 -0.4397
38994SOL    HW128961  13.800   8.785   2.372  1.4928 -0.8561  0.2294
38994SOL    HW228962  13.940   8.833   2.338  1.3712  1.8650  3.0946
38995SOL     OW28963  11.271  11.397   9.728  0.4475 -1.0812  0.2511
38995SOL    HW128964  11.301  11.433   9.645 -1.5045 -1.6103 -0.7454
38995SOL    HW228965  11.351  11.367   9.772  1.8430  1.7015 -0.1615
38996SOL     OW28966   1.758   8.275  12.766  0.6339 -0.2689 -0.0442
38996SOL    HW128967   1.851   8.290  12.781  0.1220  1.6303  1.6873
38996SOL    HW228968   1.749   8.180  12.760  2.0753 -0.9464  4.6046
38997SOL     OW28969   4.210   8.511   1.465 -0.0724 -0.6052  0.2254
38997SOL    HW128970   4.159   8.448   1.414 -2.5509  0.7719  0.8160
38997SOL    HW228971   4.241   8.574   1.401  0.4066 -1.1300 -0.0690
38998SOL     OW28972   8.470  12.845  14.009  0.5676 -0.4754  0.2940
38998SOL    HW128973   8.566  12.847  14.017  0.5837 -2.4156  0.9509
38998SOL    HW228974   8.441  12.783  14.076 -1.1110 -0.3212 -0.2520
38999SOL     OW28975   0.264   5.845  13.890 -0.1069 -0.6695  0.9099
38999SOL    HW128976   0.184   5.838  13.838  0.4838 -0.9213 -0.0049
38999SOL    HW228977   0.257   5.775  13.955 -0.2026 -1.3090  0.2186
39000SOL     OW28978  13.862   8.775   5.740  0.0055  0.0256  0.6300
39000SOL    HW128979  13.841   8.822   5.821  0.6254  1.3112  0.0744
39000SOL    HW228980  13.922   8.834   5.693  1.8564 -1.8599  0.4691
39001SOL     OW28981   9.289   2.605   6.755  0.5101  0.2613  0.3495
39001SOL    HW128982   9.264   2.632   6.843 -2.2518 -0.9273  0.0409
39001SOL    HW228983   9.229   2.652   6.697  1.7574  0.4314 -0.8572
39002SOL     OW28984   4.360   4.528   4.370 -0.1047 -0.1615 -0.7499
39002SOL    HW128985   4.306   4.474   4.312 -0.4864  1.3652 -1.8525
39002SOL    HW228986   4.443   4.538   4.324  0.6643 -1.2896  0.2937
39003SOL     OW28987   0.220  12.641   8.698  0.3449 -0.2015 -0.1079
39003SOL    HW128988   0.285  12.701   8.733  0.1763  0.1215 -0.3466
39003SOL    HW228989   0.224  12.654   8.603  0.8857 -1.1563 -0.2292
39004SOL     OW28990   2.872  10.765   5.322 -0.3505  0.1338  0.1840
39004SOL    HW128991   2.833  10.753   5.235  2.2694  0.9350 -1.2039
39004SOL    HW228992   2.845  10.687   5.371  0.0573 -1.6090 -2.1652
39005SOL     OW28993   1.660   6.863  13.820 -0.3325 -0.0308 -0.2027
39005SOL    HW128994   1.592   6.898  13.764  0.6008  2.3868  0.0474
39005SOL    HW228995   1.723   6.822  13.760 -1.2061 -0.8968 -0.5494
39006SOL     OW28996   1.604   6.607   5.307  0.3681 -0.1463 -0.2246
39006SOL    HW128997   1.589   6.696   5.275  0.7279 -0.2602 -0.7210
39006SOL    HW228998   1.621   6.556   5.228  2.3389 -0.2197  0.1939
39007SOL     OW28999   3.221   0.630   0.389 -0.2822  0.1721  0.0643
39007SOL    HW129000   3.154   0.691   0.360 -0.1048 -0.4630 -1.8090
39007SOL    HW229001   3.226   0.564   0.320  1.4639 -0.4391  0.6961
39008SOL     OW29002  10.670   0.936   1.337 -0.2866 -0.1473  0.1126
39008SOL    HW129003  10.701   0.885   1.262  1.0599  1.3981 -0.4613
39008SOL    HW229004  10.575   0.936   1.328 -0.2033 -0.9305 -0.9596
39009SOL     OW29005  13.308  12.273  13.880  0.1902  0.0857 -0.1600
39009SOL    HW129006  13.327  12.238  13.967  0.0752  0.6946  0.1182
39009SOL    HW229007  13.223  12.316  13.889  1.3102  2.3813  0.1236
39010SOL     OW29008   0.724  12.358   5.161 -0.3853  0.3329  0.1536
39010SOL    HW129009   0.709  12.328   5.071 -2.0737  0.5734  0.3207
39010SOL    HW229010   0.769  12.285   5.203 -1.6348 -0.7277 -0.2872
39011SOL     OW29011  13.777   4.932   9.553  0.2207 -0.4413 -0.8348
39011SOL    HW129012  13.722   5.002   9.588  1.0888 -1.2179  2.3141
39011SOL    HW229013  13.833   4.977   9.489 -0.3039  1.4483 -0.0498
39012SOL     OW29014   1.890   7.133  10.141 -0.6022  0.0419  0.1054
39012SOL    HW129015   1.822   7.069  10.119 -0.7297  0.2055  0.0239
39012SOL    HW229016   1.954   7.083  10.193  0.2695 -0.6184 -1.5532
39013SOL     OW29017   2.512  13.710   7.529 -0.8429 -0.3160  0.1488
39013SOL    HW129018   2.525  13.622   7.493 -1.3369 -0.2988 -0.0756
39013SOL    HW229019   2.489  13.695   7.621  2.8264 -0.2792  1.2054
39014SOL     OW29020  12.257  12.224   6.480  0.1957  0.0072 -0.6593
39014SOL    HW129021  12.217  12.137   6.489  0.0452  0.0104 -1.2257
39014SOL    HW229022  12.244  12.266   6.565 -1.1087  0.0526 -0.8560
39015SOL     OW29023  12.578   6.339   9.944 -0.3640 -0.5200  0.2410
39015SOL    HW129024  12.620   6.425   9.932 -0.5584 -0.7660 -3.0728
39015SOL    HW229025  12.490   6.360   9.976 -1.0336  0.7530 -2.1759
39016SOL     OW29026   2.362   6.323   7.711  0.1758 -0.1535  0.0471
39016SOL    HW129027   2.322   6.408   7.726  1.3840  0.3939  0.2866
39016SOL    HW229028   2.412   6.333   7.630  0.9091 -0.3897  0.4545
39017SOL     OW29029   9.400   0.890   8.605 -0.3070  0.2654  0.4484
39017SOL    HW129030   9.446   0.833   8.544 -0.3984  0.8101 -0.1442
39017SOL    HW229031   9.392   0.839   8.685  0.8043 -0.0586  0.3701
39018SOL     OW29032   0.182   8.655  12.834 -0.5670  0.1887 -0.1235
39018SOL    HW129033   0.126   8.703  12.772  0.4744 -0.1208 -1.3596
39018SOL    HW229034   0.262   8.708  12.840 -0.8700  0.4986  1.4251
39019SOL     OW29035   7.940   0.898   8.091  0.0348  0.0027 -0.0408
39019SOL    HW129036   7.923   0.967   8.026 -0.1917  0.8120  0.8513
39019SOL    HW229037   8.025   0.920   8.127 -0.5506  0.5153  1.0796
39020SOL     OW29038   8.582  11.336   4.691 -0.2975  0.6760 -0.0140
39020SOL    HW129039   8.667  11.322   4.649 -0.5886 -2.3681  0.1565
39020SOL    HW229040   8.602  11.338   4.785 -0.2794  1.3551 -0.0305
39021SOL     OW29041  10.179   8.388   9.182  0.2320 -0.2862 -0.0173
39021SOL    HW129042  10.239   8.320   9.150 -1.1268 -0.5906 -2.1665
39021SOL    HW229043  10.152   8.358   9.268  3.2411 -0.0269  1.1424
39022SOL     OW29044   0.427   8.860   4.544 -0.8069  0.0661 -0.3750
39022SOL    HW129045   0.470   8.945   4.551 -0.1920 -0.3357  1.1512
39022SOL    HW229046   0.436   8.821   4.631  0.1905 -2.1529 -1.4020
39023SOL     OW29047   9.123   2.808   4.585 -0.4258  0.0886  0.1900
39023SOL    HW129048   9.054   2.873   4.593 -0.5517 -0.0628  0.3420
39023SOL    HW229049   9.131   2.792   4.491 -2.3835 -1.7914  0.2631
39024SOL     OW29050  12.872   9.380  10.873  0.1627  0.3105  0.0724
39024SOL    HW129051  12.861   9.463  10.919  1.9790  0.2395  0.6867
39024SOL    HW229052  12.929   9.328  10.929 -1.6614 -1.7636  0.1500
39025SOL     OW29053   9.795   5.104  13.536 -0.0218  0.3722 -0.0248
39025SOL    HW129054   9.723   5.040  13.528 -0.0111  0.4709 -1.1510
39025SOL    HW229055   9.784   5.161  13.460  1.4306  0.1995 -0.3988
39026SOL     OW29056   4.476  13.668   5.970  0.2087 -0.1844 -0.0754
39026SOL    HW129057   4.399  13.613   5.982  1.6043 -2.2634 -0.2746
39026SOL    HW229058   4.494  13.702   6.058 -0.3869 -0.4179  0.1473
39027SOL     OW29059   7.496  10.473  10.157 -0.0978  0.3171  0.3327
39027SOL    HW129060   7.562  10.540  10.141  0.5092 -0.2511  0.4112
39027SOL    HW229061   7.413  10.520  10.156  0.3194  1.0648  0.3776
39028SOL     OW29062  12.328   5.531  11.611  0.1320  0.2209  0.0326
39028SOL    HW129063  12.296   5.608  11.658 -0.6056 -0.2018  0.2388
39028SOL    HW229064  12.420   5.523  11.638  0.6502  1.8539 -1.0990
39029SOL     OW29065   7.339   4.452   2.879  0.1129  0.8132  0.3476
39029SOL    HW129066   7.384   4.368   2.874  2.1799  1.8147  1.3537
39029SOL    HW229067   7.328   4.468   2.973 -0.1057  1.7418  0.1720
39030SOL     OW29068   0.653  13.584  13.581  0.1425  0.7056 -0.3831
39030SOL    HW129069   0.702  13.609  13.502 -0.4184  1.9165 -0.3840
39030SOL    HW229070   0.561  13.586  13.553 -0.0723  1.3195  0.3369
39031SOL     OW29071   1.086   2.919  10.896 -0.5336 -0.4159 -0.4363
39031SOL    HW129072   1.040   2.835  10.888 -0.5079 -0.3377 -1.5802
39031SOL    HW229073   1.033   2.980  10.844  0.0549  0.0216 -0.5273
39032SOL     OW29074   1.694   2.697  11.065 -0.3367 -0.2159  0.1405
39032SOL    HW129075   1.664   2.621  11.016  0.8109 -0.4677 -0.1909
39032SOL    HW229076   1.619   2.720  11.121 -1.1421 -0.7978 -0.6673
39033SOL     OW29077   9.569   4.590   7.103 -0.5524  0.5115 -0.1042
39033SOL    HW129078   9.562   4.683   7.125  0.0427  1.2107 -2.5600
39033SOL    HW229079   9.646   4.584   7.047  0.6513 -1.8589  1.6433
39034SOL     OW29080   7.605   5.154   9.143 -0.4568 -0.0600  0.1237
39034SOL    HW129081   7.639   5.064   9.138  1.9982  0.8470 -1.3054
39034SOL    HW229082   7.672   5.202   9.190 -0.1601  1.6420 -1.8943
39035SOL     OW29083   7.301   3.001  12.443 -0.0360 -0.1378 -0.8916
39035SOL    HW129084   7.334   3.086  12.472  0.4093 -0.6996  0.3355
39035SOL    HW229085   7.206   3.005  12.458  0.2498 -0.6387  1.3926
39036SOL     OW29086   0.346  10.633   7.338  0.0009  0.2525 -0.2517
39036SOL    HW129087   0.311  10.683   7.412 -0.7374  0.4304 -0.7085
39036SOL    HW229088   0.441  10.639   7.348 -0.0804  1.0596  0.1621
39037SOL     OW29089  12.581   1.358  10.242  0.6255  0.0383  0.1335
39037SOL    HW129090  12.623   1.290  10.296 -1.5649 -0.2828  1.5648
39037SOL    HW229091  12.538   1.415  10.306 -0.7646  0.5594 -1.2112
39038SOL     OW29092   8.612  10.261   2.680 -0.0683  0.3028  0.0683
39038SOL    HW129093   8.625  10.281   2.588 -0.1519 -1.6519 -0.4000
39038SOL    HW229094   8.528  10.304   2.702 -0.3316  0.3098 -0.8997
39039SOL     OW29095   6.934  10.093  10.401  0.1515  0.1410  0.0552
39039SOL    HW129096   6.966  10.183  10.400  1.4893 -0.2846  1.0921
39039SOL    HW229097   6.945  10.064  10.492  1.1908 -1.5341 -0.5466
39040SOL     OW29098  11.569   7.825  10.257 -0.0308  0.0207 -0.0688
39040SOL    HW129099  11.506   7.789  10.320 -0.4054 -0.9655 -0.9764
39040SOL    HW229100  11.578   7.756  10.191  1.0643  0.6626 -0.6015
39041SOL     OW29101   3.477   0.495   8.531  0.3039 -0.3128 -0.2050
39041SOL    HW129102   3.515   0.421   8.483  0.5711  0.3424 -1.0158
39041SOL    HW229103   3.548   0.525   8.588 -0.2628 -1.6126  1.2638
39042SOL     OW29104   6.590   6.914   8.189 -0.3974  0.5858  0.5164
39042SOL    HW129105   6.616   6.822   8.192 -2.3989 -0.1091 -1.0689
39042SOL    HW229106   6.643   6.952   8.119  0.7347  0.7917  1.4518
39043SOL     OW29107   0.516  10.602   1.715 -0.0289 -0.1310  0.1806
39043SOL    HW129108   0.424  10.579   1.703 -0.0442 -0.1098  0.2537
39043SOL    HW229109   0.548  10.537   1.778 -0.3259  0.6427  1.1607
39044SOL     OW29110  11.320  13.714   7.390 -0.6774 -0.4066 -0.3266
39044SOL    HW129111  11.388  13.781   7.381 -1.6857  0.9952  1.6423
39044SOL    HW229112  11.368  13.631   7.394  0.5778 -0.0004 -3.4882
39045SOL     OW29113   9.636  11.160  10.895  0.3694  0.3763 -0.1283
39045SOL    HW129114   9.690  11.137  10.820 -1.1886 -0.8051 -0.9507
39045SOL    HW229115   9.547  11.162  10.860 -0.2476  1.1802  1.4062
39046SOL     OW29116   1.284   9.120   3.689 -0.1241 -0.0174  0.2509
39046SOL    HW129117   1.311   9.197   3.639 -0.0431  0.2939  0.7735
39046SOL    HW229118   1.233   9.154   3.762 -1.8099 -0.5810 -0.6045
39047SOL     OW29119   3.478  10.905  12.456  0.2593 -0.2092 -0.7421
39047SOL    HW129120   3.461  10.909  12.362 -0.9288  1.6409 -0.5039
39047SOL    HW229121   3.432  10.826  12.486  2.0263 -1.7787 -1.8947
39048SOL     OW29122   9.235   4.439   8.876 -0.3902  0.2792 -0.0720
39048SOL    HW129123   9.307   4.498   8.852 -1.5730  1.3083 -1.2155
39048SOL    HW229124   9.230   4.376   8.804 -1.1948  0.7600 -0.4471
39049SOL     OW29125   2.560   5.910   3.187  0.3129  0.0565 -0.1292
39049SOL    HW129126   2.535   5.991   3.142  2.1174 -0.6029 -2.5001
39049SOL    HW229127   2.600   5.940   3.269  1.1794  1.6275 -1.0684
39050SOL     OW29128   8.009   4.926   9.166 -0.6192 -0.5957 -0.4339
39050SOL    HW129129   8.092   4.923   9.214 -0.3800  0.6724 -0.7329
39050SOL    HW229130   8.032   4.958   9.079 -1.4889  0.4071 -0.3172
39051SOL     OW29131  13.906   8.127   9.910  0.3013 -0.2059  0.0006
39051SOL    HW129132  14.001   8.126   9.895  0.0522  0.5222 -2.0071
39051SOL    HW229133  13.896   8.169   9.995  1.7944 -0.8327  0.5238
39052SOL     OW29134   6.374   0.903  13.383  0.0393  0.0166  0.4205
39052SOL    HW129135   6.380   0.885  13.289  1.2183  1.0111  0.2964
39052SOL    HW229136   6.327   0.986  13.389  2.1045  1.2459  0.5471
39053SOL     OW29137   5.130  12.672   2.679 -0.0192  0.1660 -0.1526
39053SOL    HW129138   5.075  12.610   2.727 -0.3690  0.1701 -0.5315
39053SOL    HW229139   5.158  12.736   2.744 -1.3611  0.7819 -0.1437
39054SOL     OW29140   8.574   6.721  14.011  0.4979  0.5628 -0.0436
39054SOL    HW129141   8.507   6.679  14.064  1.1962 -2.8760 -1.5812
39054SOL    HW229142   8.655   6.710  14.061  0.8913 -1.2655 -0.9803
39055SOL     OW29143   8.786  12.293   1.893 -0.1265 -0.1180  0.5354
39055SOL    HW129144   8.736  12.215   1.868  0.8232 -1.0730  1.4670
39055SOL    HW229145   8.832  12.318   1.813 -0.6682 -0.3398  0.1501
39056SOL     OW29146   2.501  13.373  13.572  0.2871 -0.1690  0.8576
39056SOL    HW129147   2.514  13.407  13.661  0.0950 -1.6248  1.4719
39056SOL    HW229148   2.409  13.388  13.553  0.8660  2.6068 -0.2166
39057SOL     OW29149  10.707  10.861   8.461 -0.4415  0.0380 -0.5811
39057SOL    HW129150  10.787  10.884   8.508  0.1357 -1.6221 -0.7082
39057SOL    HW229151  10.653  10.940   8.466 -1.0424 -0.3982  4.0589
39058SOL     OW29152   7.818   2.198  13.619 -0.0459  0.6842  0.7584
39058SOL    HW129153   7.906   2.161  13.615  0.0286  0.9592 -1.7583
39058SOL    HW229154   7.831   2.290  13.640  0.1783  0.4829  1.5071
39059SOL     OW29155  10.480   4.328   5.036  0.2012  0.2095  0.0294
39059SOL    HW129156  10.422   4.323   4.960  0.4311 -0.7619 -0.1032
39059SOL    HW229157  10.512   4.418   5.037  1.3484 -0.1188 -1.9089
39060SOL     OW29158   4.170   8.119  11.222 -0.1862 -0.0275  0.5128
39060SOL    HW129159   4.144   8.027  11.221  1.2397 -0.4547  0.0757
39060SOL    HW229160   4.147   8.150  11.134 -0.5128 -0.0036  0.6040
39061SOL     OW29161   3.317   5.535   8.057 -0.2491  0.1086 -0.0353
39061SOL    HW129162   3.299   5.626   8.080  1.2602  0.2590  0.6923
39061SOL    HW229163   3.270   5.484   8.123 -2.0038  0.2804 -1.0846
39062SOL     OW29164   3.588  12.089   1.526 -0.0927  0.3021  0.4307
39062SOL    HW129165   3.617  12.167   1.574  0.4365  0.7599 -0.5974
39062SOL    HW229166   3.620  12.103   1.437 -1.9538 -0.0371 -0.3220
39063SOL     OW29167  12.056   0.809   9.751 -0.2611 -0.3115 -0.6774
39063SOL    HW129168  12.101   0.744   9.698 -0.4976  1.0581 -2.6776
39063SOL    HW229169  11.969   0.815   9.712 -0.4432  0.7243 -0.1412
39064SOL     OW29170  10.666   2.286   1.578 -0.3563  0.2303 -0.3199
39064SOL    HW129171  10.735   2.264   1.640  0.9034 -1.2529 -2.1316
39064SOL    HW229172  10.674   2.381   1.565  0.6907  0.2274  0.2501
39065SOL     OW29173   2.455   3.766   3.069  0.1081  0.3902  0.4083
39065SOL    HW129174   2.369   3.772   3.112  0.3834  0.0617  1.0186
39065SOL    HW229175   2.445   3.694   3.007 -0.4915  1.2837 -0.5685
39066SOL     OW29176   8.078   0.520   2.167  0.1889 -0.3105  0.0781
39066SOL    HW129177   8.090   0.614   2.176  0.3513 -0.3557  0.3434
39066SOL    HW229178   8.153   0.482   2.213 -0.3296 -0.5890  0.7098
39067SOL     OW29179   5.965  11.892   1.549 -0.2138  0.2910  0.1486
39067SOL    HW129180   5.884  11.841   1.550 -1.1666  1.7322 -0.1630
39067SOL    HW229181   5.949  11.960   1.483  0.8110  1.2735  0.8846
39068SOL     OW29182   4.863   5.120   9.743  0.1962 -0.3329  0.0741
39068SOL    HW129183   4.799   5.143   9.676 -0.4652 -0.3948  0.6709
39068SOL    HW229184   4.870   5.025   9.738  1.6388 -0.2065 -1.2250
39069SOL     OW29185   8.263  10.200  13.081 -0.1814  0.7344 -0.0819
39069SOL    HW129186   8.331  10.265  13.063  0.7310  0.0618  0.8255
39069SOL    HW229187   8.306  10.134  13.136 -1.4438  0.0461  0.1282
39070SOL     OW29188   3.240  11.700   4.267 -0.0601  0.2651 -0.3874
39070SOL    HW129189   3.224  11.661   4.181  1.4924  0.1431 -0.6356
39070SOL    HW229190   3.183  11.777   4.269 -0.5818 -0.0823 -1.2662
39071SOL     OW29191   5.241   2.575  13.407 -0.3813  0.1548 -0.2790
39071SOL    HW129192   5.250   2.497  13.353 -2.4009  0.4606 -1.1156
39071SOL    HW229193   5.179   2.550  13.476  1.3517  0.0969  1.3551
39072SOL     OW29194  11.526   0.657  12.038  0.0046 -0.3709 -0.1332
39072SOL    HW129195  11.505   0.566  12.017  0.2192  0.0981 -2.5646
39072SOL    HW229196  11.442   0.700  12.049 -0.1654 -0.3218 -1.5324
39073SOL     OW29197   0.090  13.824  10.172 -0.4775 -0.2035 -0.0672
39073SOL    HW129198   0.183  13.841  10.184 -0.4334  0.9110 -1.7331
39073SOL    HW229199   0.049  13.853  10.254  0.1958  3.3907 -0.8644
39074SOL     OW29200   1.797  12.700  13.891 -0.0895  0.0643  0.1738
39074SOL    HW129201   1.830  12.781  13.851 -1.2727  0.3762 -0.2305
39074SOL    HW229202   1.871  12.665  13.939  2.0905 -1.3130 -3.7344
39075SOL     OW29203   9.419   0.152   7.496  0.2740  0.1132  0.4364
39075SOL    HW129204   9.500   0.124   7.454  1.5949  0.3860  2.6422
39075SOL    HW229205   9.352   0.092   7.461  1.7534 -1.2913 -0.1194
39076SOL     OW29206  12.858  10.450  13.377 -0.3622 -0.5110 -0.5098
39076SOL    HW129207  12.898  10.452  13.290  0.1273 -1.8825 -0.3302
39076SOL    HW229208  12.764  10.441  13.359 -0.2185 -1.2961 -0.8977
39077SOL     OW29209   9.535  12.876   8.175  0.1350  0.0053 -0.8080
39077SOL    HW129210   9.602  12.869   8.243 -2.3716 -0.2583  1.7957
39077SOL    HW229211   9.520  12.970   8.166 -0.6665 -0.0135  0.2306
39078SOL     OW29212  10.581  13.565   8.941 -0.2759 -0.0413 -0.1566
39078SOL    HW129213  10.602  13.477   8.972  1.5568 -0.2309 -1.7226
39078SOL    HW229214  10.625  13.623   9.003 -0.1361 -0.2809 -0.0296
39079SOL     OW29215  10.349  10.310   6.530  0.0410 -0.4375 -0.4025
39079SOL    HW129216  10.355  10.377   6.462 -1.9826  0.3017  0.0657
39079SOL    HW229217  10.326  10.230   6.484 -0.4939 -0.1265 -0.6825
39080SOL     OW29218   6.201   5.681  10.565  0.4300  0.2725  0.0396
39080SOL    HW129219   6.279   5.627  10.571 -0.1668 -0.7936 -1.3659
39080SOL    HW229220   6.148   5.655  10.640  0.8484  0.0666  0.2659
39081SOL     OW29221   5.051   1.990   2.001  0.3944  0.5018 -0.1350
39081SOL    HW129222   5.042   1.905   1.958 -0.9652  0.9855 -0.8703
39081SOL    HW229223   5.089   2.047   1.934 -0.7477  0.9975 -0.3917
39082SOL     OW29224  11.871  13.250   1.315 -0.1271  0.0022 -0.2923
39082SOL    HW129225  11.906  13.227   1.401  2.4213  1.2878 -0.8987
39082SOL    HW229226  11.819  13.329   1.332  0.1934  0.1334  0.0938
39083SOL     OW29227   2.940   6.161   9.673  0.7037 -0.5859  0.0477
39083SOL    HW129228   2.939   6.106   9.751  1.3720  0.0035  0.4841
39083SOL    HW229229   2.873   6.227   9.690  0.8275 -0.4764  0.1141
39084SOL     OW29230   0.098   4.899   5.956 -0.2904  0.5082  0.2959
39084SOL    HW129231   0.065   4.810   5.939 -0.4339  1.0132 -2.4992
39084SOL    HW229232   0.191   4.886   5.977 -0.9264 -0.4735  2.9387
39085SOL     OW29233   9.215   4.385  10.130 -0.0645  0.1406  0.4942
39085SOL    HW129234   9.288   4.443  10.110  1.0586 -1.6179 -0.7604
39085SOL    HW229235   9.203   4.392  10.225  1.5164  0.6957  0.6690
39086SOL     OW29236  10.907   6.731   1.776 -0.4560  0.6037  0.1869
39086SOL    HW129237  10.982   6.690   1.819  1.2406  1.6169 -1.6110
39086SOL    HW229238  10.864   6.782   1.845  0.3152 -0.2591  1.3376
39087SOL     OW29239   0.121   7.314  13.993  0.1466  0.3365  0.7222
39087SOL    HW129240   0.206   7.357  13.980 -0.4446  0.8499 -2.0879
39087SOL    HW229241   0.075   7.372  14.053  0.9343  1.3514  0.3942
39088SOL     OW29242   8.289   4.163   9.528  0.6729  0.9618 -0.0462
39088SOL    HW129243   8.357   4.205   9.580 -0.1635  1.2986  0.8254
39088SOL    HW229244   8.222   4.230   9.518  0.7115  0.8259 -1.3930
39089SOL     OW29245  13.665   1.916   5.460 -0.4786  0.1076 -0.1319
39089SOL    HW129246  13.635   1.949   5.375  1.2249  1.3095 -0.3141
39089SOL    HW229247  13.757   1.893   5.446  0.5518  2.5041  1.8943
39090SOL     OW29248   0.848   8.753   5.167 -0.0559 -0.2132  0.6350
39090SOL    HW129249   0.919   8.698   5.132 -0.6613 -0.3841 -0.3483
39090SOL    HW229250   0.773   8.693   5.173 -0.2392  0.0736  1.2626
39091SOL     OW29251   7.715   3.926  13.181 -0.5879 -0.3344  0.0620
39091SOL    HW129252   7.731   4.016  13.154 -1.9549 -0.4416 -1.2540
39091SOL    HW229253   7.625   3.926  13.214 -1.0382 -1.4110 -1.0691
39092SOL     OW29254   3.495   2.241   7.350 -0.2862 -0.3830  0.0751
39092SOL    HW129255   3.577   2.233   7.301  0.0196 -1.8844  0.7612
39092SOL    HW229256   3.471   2.333   7.343  1.6398  0.1628  0.1117
39093SOL     OW29257   7.301   4.938   0.517  0.2880  0.0102 -0.1948
39093SOL    HW129258   7.376   4.905   0.568 -0.5700 -0.1396  1.0310
39093SOL    HW229259   7.329   5.022   0.483  1.3174 -0.4385 -0.4860
39094SOL     OW29260   8.133   5.233   0.525 -0.3767  0.0844 -0.1091
39094SOL    HW129261   8.219   5.270   0.543  0.2174  1.1075 -4.0007
39094SOL    HW229262   8.072   5.289   0.573  0.9223  2.0278 -0.5916
39095SOL     OW29263   4.578  13.996   8.169  0.5914 -0.4303  0.5434
39095SOL    HW129264   4.622  13.919   8.132 -1.7127 -1.6880  0.2351
39095SOL    HW229265   4.548  13.966   8.255 -1.0033 -0.1735  0.1031
39096SOL     OW29266  11.425   4.986  12.201 -0.0084 -0.4816  0.6536
39096SOL    HW129267  11.330   4.987  12.209 -0.1581  1.0049 -0.7822
39096SOL    HW229268  11.446   4.905  12.155 -0.6946 -0.2316 -0.1035
39097SOL     OW29269   8.717   7.362   0.914  0.0210 -0.6763  0.2641
39097SOL    HW129270   8.782   7.366   0.844  1.5917  2.4274  1.6909
39097SOL    HW229271   8.764   7.393   0.992 -2.2618 -1.7500  2.1992
39098SOL     OW29272  11.249   0.828   0.916  0.1473 -0.1695 -0.1164
39098SOL    HW129273  11.339   0.858   0.900 -0.3488  1.5428  0.0055
39098SOL    HW229274  11.224   0.874   0.997 -1.1697  0.2096 -0.7211
39099SOL     OW29275  11.308   4.748   7.724 -0.8451  0.5871 -0.2672
39099SOL    HW129276  11.297   4.769   7.631 -2.5028  1.8129  0.1706
39099SOL    HW229277  11.371   4.812   7.755 -0.1443  0.0588 -0.5542
39100SOL     OW29278   8.682  11.051   9.637 -0.0090 -0.1754 -0.0365
39100SOL    HW129279   8.734  11.039   9.716  1.3099  1.5616 -0.5764
39100SOL    HW229280   8.747  11.063   9.568 -1.1431 -0.7788 -1.2446
39101SOL     OW29281   5.267  10.791  11.711  0.3191 -0.1372 -0.2113
39101SOL    HW129282   5.234  10.704  11.686  3.5981 -1.1951 -1.4645
39101SOL    HW229283   5.322  10.775  11.787 -0.4948  1.2145  0.7037
39102SOL     OW29284  11.638   7.142  13.656 -0.3453  0.1444 -0.2597
39102SOL    HW129285  11.580   7.067  13.642 -2.3292  1.4434  0.5447
39102SOL    HW229286  11.641   7.186  13.571 -1.5291  0.6966 -0.0407
39103SOL     OW29287   0.733   8.964   5.915 -0.5430 -0.3368  0.1968
39103SOL    HW129288   0.751   9.054   5.886  2.7572 -0.1031  2.4809
39103SOL    HW229289   0.795   8.910   5.866  0.9048 -0.6786  2.3093
39104SOL     OW29290   2.648   8.129   0.907 -0.0512 -0.1487  0.7412
39104SOL    HW129291   2.622   8.104   0.818 -0.5958  3.6763 -0.3261
39104SOL    HW229292   2.731   8.084   0.921 -0.3792 -1.5407 -1.3277
39105SOL     OW29293   0.561   7.422   9.965  0.0513  0.4278  0.4618
39105SOL    HW129294   0.502   7.377   9.904  0.7699 -0.7819  0.6352
39105SOL    HW229295   0.648   7.390   9.941  0.4853  1.0815  1.1615
39106SOL     OW29296  12.159   5.249  11.260 -0.1626  0.1141 -0.4831
39106SOL    HW129297  12.176   5.316  11.325  0.9893 -1.2357  0.6539
39106SOL    HW229298  12.217   5.270  11.187  0.6481 -0.0020  0.1266
39107SOL     OW29299  13.457  11.285   2.453  0.0646 -0.3267 -0.6254
39107SOL    HW129300  13.400  11.348   2.498  0.8313  0.4518 -0.7129
39107SOL    HW229301  13.543  11.299   2.492  0.4422 -0.6535 -1.3188
39108SOL     OW29302  10.045  13.553  13.768 -0.1969 -0.3150 -0.5897
39108SOL    HW129303  10.102  13.584  13.698  1.6513 -0.3990  0.8091
39108SOL    HW229304  10.103  13.538  13.842 -1.9784 -0.9065  0.7736
39109SOL     OW29305   2.680  10.115  13.092  1.2649  0.2225 -0.2226
39109SOL    HW129306   2.761  10.149  13.054  0.9939  0.5166 -0.5408
39109SOL    HW229307   2.670  10.164  13.174  1.4678  0.1059 -0.1276
39110SOL     OW29308  10.203   0.730   3.718  0.1733  0.3258  0.4596
39110SOL    HW129309  10.257   0.787   3.773  1.0148  0.2701 -0.2866
39110SOL    HW229310  10.128   0.708   3.773  0.3485  1.3152  1.1237
39111SOL     OW29311   1.640   4.870   4.700  0.2309  0.3810 -0.5840
39111SOL    HW129312   1.734   4.862   4.690  0.0704 -1.7592 -0.8411
39111SOL    HW229313   1.624   4.861   4.794  0.2845  1.0738 -0.5010
39112SOL     OW29314  11.275   0.304   8.335  0.3787  0.5377  0.3711
39112SOL    HW129315  11.351   0.299   8.278  0.0562  1.6826 -0.1956
39112SOL    HW229316  11.306   0.350   8.413  0.2922  0.9808  0.1513
39113SOL     OW29317   0.467  10.670  11.967  0.3928 -0.3483 -0.0644
39113SOL    HW129318   0.561  10.663  11.986  0.2882 -1.1173  0.2207
39113SOL    HW229319   0.457  10.756  11.928  0.8670  0.7174  2.0093
39114SOL     OW29320   0.120   8.479   0.805  0.1498 -0.2337 -0.0640
39114SOL    HW129321   0.035   8.435   0.816 -0.6213  1.2969  0.2631
39114SOL    HW229322   0.098   8.571   0.794  1.8770  0.4949  1.9672
39115SOL     OW29323  13.879   8.652   6.392  0.3061 -0.1757 -0.0821
39115SOL    HW129324  13.968   8.674   6.419  0.0312  0.7145  0.1090
39115SOL    HW229325  13.886   8.639   6.297  0.4517  0.9085 -0.2311
39116SOL     OW29326  12.308   5.659  12.070 -0.0919  0.7038 -0.1926
39116SOL    HW129327  12.386   5.669  12.124 -0.1614 -1.2041  0.3354
39116SOL    HW229328  12.237   5.643  12.133 -0.4009 -0.2728 -0.7609
39117SOL     OW29329   8.438  10.528   9.683 -1.0508  0.0401 -0.1560
39117SOL    HW129330   8.395  10.607   9.717 -1.0333  0.8019 -1.7924
39117SOL    HW229331   8.377  10.457   9.704 -0.7433  0.3476  1.9683
39118SOL     OW29332   3.160   6.996   5.334 -0.6638 -0.0019  0.4413
39118SOL    HW129333   3.214   6.929   5.374  0.8858  1.6352  1.2460
39118SOL    HW229334   3.076   6.954   5.319  0.7113 -2.5830 -0.6149
39119SOL     OW29335  13.743   4.010   4.080  0.3052  0.8752  0.2445
39119SOL    HW129336  13.791   4.031   4.160 -0.2363  0.3609  0.7127
39119SOL    HW229337  13.655   3.987   4.109 -0.1203  1.4128 -0.5686
39120SOL     OW29338   7.399  12.240  11.752  0.2837  0.3170 -0.0971
39120SOL    HW129339   7.458  12.235  11.828 -1.0665  0.3972  1.0057
39120SOL    HW229340   7.451  12.281  11.683  1.5420  0.2805  0.7967
39121SOL     OW29341   2.048   7.986   9.506  0.1676 -0.4174  0.1057
39121SOL    HW129342   2.140   7.963   9.493  0.4247 -1.8843  3.5228
39121SOL    HW229343   2.047   8.036   9.587 -2.0523 -0.3498  0.0976
39122SOL     OW29344   0.696   9.165  10.251 -0.0726 -0.3070 -0.3519
39122SOL    HW129345   0.602   9.166  10.235  0.0110  0.9504 -0.8753
39122SOL    HW229346   0.731   9.106  10.184 -0.6370 -2.1952  0.9562
39123SOL     OW29347  10.832   6.882   4.455  0.2962 -0.5763 -0.2134
39123SOL    HW129348  10.813   6.904   4.364  1.2915 -1.8981 -0.7785
39123SOL    HW229349  10.886   6.954   4.486  0.3750 -0.3651 -0.8213
39124SOL     OW29350   1.675   9.358   5.012 -0.0277  0.1260  0.0456
39124SOL    HW129351   1.670   9.265   5.033  2.8265  0.0477  0.8294
39124SOL    HW229352   1.757   9.367   4.965 -0.2530  2.2580 -0.0307
39125SOL     OW29353   5.000   0.410  13.248 -0.7047 -0.0178 -0.3243
39125SOL    HW129354   4.946   0.395  13.325  0.7581 -0.4665  0.6512
39125SOL    HW229355   5.087   0.378  13.273  0.3477  1.8423 -1.3509
39126SOL     OW29356  12.502  10.818   3.065  0.0212 -0.2365  0.0517
39126SOL    HW129357  12.428  10.876   3.079  0.3757  0.2414 -0.0286
39126SOL    HW229358  12.573  10.876   3.036  0.6796 -0.5656  0.9650
39127SOL     OW29359   7.609   6.196  13.265  0.3529  0.4717  0.0442
39127SOL    HW129360   7.631   6.245  13.186  0.4187  0.2363 -0.0852
39127SOL    HW229361   7.574   6.113  13.233 -0.6601  0.8049  0.2495
39128SOL     OW29362   5.480   8.459   6.763 -0.5175  0.2824  0.0853
39128SOL    HW129363   5.464   8.374   6.803 -3.4578  0.3488 -0.7235
39128SOL    HW229364   5.575   8.467   6.760 -0.0100 -0.4918  5.3028
39129SOL     OW29365   8.236  13.577   0.640  0.0882  0.2105  0.0229
39129SOL    HW129366   8.242  13.659   0.591 -1.4999  0.3026 -0.0894
39129SOL    HW229367   8.202  13.603   0.725 -0.2483 -0.3038  0.0510
39130SOL     OW29368   1.575   7.705   7.782 -0.6922  0.7877 -0.4767
39130SOL    HW129369   1.559   7.783   7.729  0.8353 -0.4705 -2.9709
39130SOL    HW229370   1.627   7.648   7.726  1.2080 -0.6361  2.4658
39131SOL     OW29371   9.223  10.736  10.068  0.0706 -0.0583  0.3098
39131SOL    HW129372   9.225  10.646  10.035 -0.2042 -0.4579  1.3300
39131SOL    HW229373   9.315  10.761  10.075  0.2375  1.3627 -4.0497
39132SOL     OW29374   7.557  10.674   1.379 -0.5023 -0.7235  0.2837
39132SOL    HW129375   7.494  10.622   1.429 -0.6525 -0.3645  0.4702
39132SOL    HW229376   7.521  10.763   1.380 -0.7624 -0.7964 -0.8693
39133SOL     OW29377   9.219   8.147  13.633 -0.1009 -0.2449 -0.4012
39133SOL    HW129378   9.290   8.208  13.656 -0.2681  0.0977 -0.7782
39133SOL    HW229379   9.183   8.183  13.552 -0.6719 -0.4531 -0.2387
39134SOL     OW29380  13.486   2.353   3.567  0.2024 -0.2379  0.1583
39134SOL    HW129381  13.504   2.259   3.576 -1.0557 -0.6755 -1.5042
39134SOL    HW229382  13.481   2.384   3.658  0.4303 -1.8005  0.7556
39135SOL     OW29383   9.088   4.984  13.125 -0.3866  1.0754  0.1196
39135SOL    HW129384   9.084   4.966  13.031 -1.6121 -1.0776  0.5156
39135SOL    HW229385   9.161   5.044  13.134  1.2497 -0.4243 -1.9716
39136SOL     OW29386   7.048   8.704   5.911 -0.1282 -0.6310  0.1146
39136SOL    HW129387   6.954   8.708   5.892 -0.0812 -0.0335  0.0090
39136SOL    HW229388   7.066   8.610   5.921 -0.8191 -0.7251  0.5393
39137SOL     OW29389   5.424  13.125   3.760 -0.2901 -0.2971 -0.0082
39137SOL    HW129390   5.413  13.030   3.759  1.0093 -0.4659  0.0909
39137SOL    HW229391   5.365  13.157   3.691  2.6139 -1.5793 -3.3726
39138SOL     OW29392   0.945   5.664   5.302 -0.6816 -0.2061 -0.0747
39138SOL    HW129393   0.926   5.592   5.241  1.0232 -0.4906 -0.3196
39138SOL    HW229394   0.918   5.630   5.387 -2.1024 -0.2065 -0.4944
39139SOL     OW29395   4.147   1.337  10.194  0.6385  0.0756 -0.0276
39139SOL    HW129396   4.149   1.328  10.098 -1.0149 -0.3654 -0.0576
39139SOL    HW229397   4.179   1.426  10.210  0.6788  0.2590 -1.0212
39140SOL     OW29398  10.411   5.637  13.286 -0.1687 -0.2883 -0.2654
39140SOL    HW129399  10.349   5.699  13.324 -1.5542 -1.5157 -0.4688
39140SOL    HW229400  10.422   5.667  13.196  1.1906  1.1390  0.3073
39141SOL     OW29401   4.787  12.877   6.232 -0.3380  0.0754 -0.1777
39141SOL    HW129402   4.742  12.958   6.208 -2.3109 -1.0742 -0.5691
39141SOL    HW229403   4.815  12.840   6.148  2.3204  1.2364  0.1055
39142SOL     OW29404   6.616   9.838   5.274  0.0063  0.1612  0.3167
39142SOL    HW129405   6.616   9.915   5.332 -2.3847  0.3294  0.1887
39142SOL    HW229406   6.604   9.764   5.333 -0.6732  0.1768  0.2090
39143SOL     OW29407   2.243  10.717  11.553 -0.4465  0.6220 -0.1218
39143SOL    HW129408   2.330  10.746  11.578  0.0411 -1.8032  1.2978
39143SOL    HW229409   2.257  10.662  11.476 -0.4107 -1.3024  1.2034
39144SOL     OW29410   8.770   0.820  10.022 -0.0246 -0.1323 -0.3286
39144SOL    HW129411   8.857   0.804  10.060 -0.0436  0.3067 -0.0920
39144SOL    HW229412   8.770   0.770   9.941  1.1729  1.3685 -1.3123
39145SOL     OW29413  12.052  10.092  12.463  0.0552 -0.4389 -0.0084
39145SOL    HW129414  12.082  10.001  12.467 -0.6579 -0.8091 -2.0271
39145SOL    HW229415  11.958  10.085  12.444  0.0486  0.7159 -0.4664
39146SOL     OW29416   3.533   8.645   3.881  0.1199  0.0204 -0.8951
39146SOL    HW129417   3.463   8.639   3.817 -1.8164 -1.0430  1.1881
39146SOL    HW229418   3.509   8.720   3.936  1.2141  0.3253 -0.8070
39147SOL     OW29419  10.837  12.795   1.064 -0.1871 -0.3405 -0.2538
39147SOL    HW129420  10.799  12.818   1.149  1.3366 -1.1484  0.6821
39147SOL    HW229421  10.764  12.801   1.002 -0.6290  4.1167  0.3427
39148SOL     OW29422   0.939  13.292  11.721  0.0998 -0.3227 -0.0664
39148SOL    HW129423   0.897  13.236  11.656  0.3411 -0.5906  0.0054
39148SOL    HW229424   0.938  13.240  11.802  0.8350 -0.4555 -0.1357
39149SOL     OW29425  13.998   0.613   6.712  0.2123  0.5156  0.2250
39149SOL    HW129426  14.055   0.690   6.710 -1.3084  1.6616 -0.2770
39149SOL    HW229427  13.958   0.616   6.799  0.8178 -0.2509  0.5476
39150SOL     OW29428  12.372  12.820   6.372 -0.9509  1.0788 -0.1448
39150SOL    HW129429  12.421  12.789   6.296 -2.0031 -1.2671  0.0564
39150SOL    HW229430  12.440  12.849   6.433  0.0486  0.5917 -0.9946
39151SOL     OW29431   5.563   4.327  13.099  0.1953 -0.2592  0.5160
39151SOL    HW129432   5.475   4.292  13.083  0.6891 -1.2083 -0.2320
39151SOL    HW229433   5.595   4.352  13.012  0.1485  1.4318  0.9390
39152SOL     OW29434   3.223  12.532   8.067 -0.3075 -0.0289  0.1964
39152SOL    HW129435   3.314  12.557   8.083 -0.1352  0.6333 -1.5187
39152SOL    HW229436   3.221  12.437   8.077  0.5820 -0.0477  0.2380
39153SOL     OW29437   0.249   3.859   8.410 -0.4323 -0.2526  0.3085
39153SOL    HW129438   0.234   3.921   8.339  0.7864  0.3415  0.5401
39153SOL    HW229439   0.169   3.807   8.414 -1.2425  0.9004 -0.2936
39154SOL     OW29440  11.940  11.789   5.668  0.9237 -0.5134  0.4661
39154SOL    HW129441  11.908  11.746   5.589  0.3729 -0.8518  0.8634
39154SOL    HW229442  12.008  11.849   5.638 -0.7787  1.0309 -0.5723
39155SOL     OW29443   5.607  11.301  11.263 -0.4538  0.3656 -0.2778
39155SOL    HW129444   5.548  11.242  11.310  0.6928  2.3803  4.1297
39155SOL    HW229445   5.688  11.251  11.255 -0.7461 -0.1000 -0.4382
39156SOL     OW29446   1.266  13.525   2.506  0.0095  0.2685  0.2576
39156SOL    HW129447   1.255  13.449   2.564  2.4736 -1.0106 -0.7594
39156SOL    HW229448   1.210  13.592   2.543 -1.6857 -1.7870  1.6873
39157SOL     OW29449   2.446  10.912   1.906 -0.0793  0.3744  0.2507
39157SOL    HW129450   2.462  10.867   1.822  2.0796  0.3708  0.6112
39157SOL    HW229451   2.373  10.864   1.945 -0.3734 -0.3454 -1.1193
39158SOL     OW29452  11.270   8.083   5.105 -0.0104  0.1872 -0.1214
39158SOL    HW129453  11.210   8.138   5.056  1.0154  0.9689 -0.5324
39158SOL    HW229454  11.338   8.058   5.042  1.7174  1.7869  1.0044
39159SOL     OW29455   6.940   4.880   0.991 -0.3713 -0.3554  0.0720
39159SOL    HW129456   6.948   4.942   0.918 -1.3639 -1.6452 -1.1920
39159SOL    HW229457   6.970   4.797   0.955 -3.3947 -1.6435  0.2063
39160SOL     OW29458  11.365   6.766   5.442 -0.0930 -0.6398 -0.7584
39160SOL    HW129459  11.317   6.835   5.396  1.9301  2.5261  1.3898
39160SOL    HW229460  11.309   6.742   5.515 -1.2204 -2.0807 -2.0464
39161SOL     OW29461   7.877  12.222   0.792 -0.4023  0.1457  0.0779
39161SOL    HW129462   7.961  12.230   0.839  0.3305  0.8406 -1.2773
39161SOL    HW229463   7.897  12.253   0.704 -2.4755  1.8235  0.1436
39162SOL     OW29464   4.363  11.331  10.052 -0.7027  0.2500  0.4882
39162SOL    HW129465   4.348  11.355  10.143 -3.6301  0.0443  0.1284
39162SOL    HW229466   4.325  11.243  10.043  2.2261 -1.0872 -0.2913
39163SOL     OW29467   0.031   6.752   1.694  0.2602  0.3774 -0.1956
39163SOL    HW129468   0.062   6.814   1.760  2.1488 -1.0981  0.3923
39163SOL    HW229469  -0.063   6.770   1.686  0.6985  3.2977 -0.0902
39164SOL     OW29470   1.986   0.287   3.530 -0.2302 -0.2683 -0.0405
39164SOL    HW129471   2.074   0.250   3.523 -0.4564 -1.1182  1.1629
39164SOL    HW229472   1.928   0.210   3.535 -1.0387  0.2738 -0.7207
39165SOL     OW29473   9.607  13.173   1.819  0.0366  0.2077 -0.0739
39165SOL    HW129474   9.614  13.082   1.791  0.3537  0.4399 -0.7692
39165SOL    HW229475   9.694  13.210   1.804  0.2495  0.3325  1.2908
39166SOL     OW29476   9.214   2.965   3.546 -0.6710  0.7367 -0.3046
39166SOL    HW129477   9.181   2.944   3.633 -1.2011 -0.4605 -0.7857
39166SOL    HW229478   9.307   2.943   3.549 -1.0986 -1.2750 -0.6338
39167SOL     OW29479  13.346   2.097   5.254 -0.3974  0.0254 -0.3955
39167SOL    HW129480  13.400   2.144   5.190  1.6546 -1.4274  0.1444
39167SOL    HW229481  13.380   2.126   5.339 -2.4149  1.1816  0.0696
39168SOL     OW29482   3.808  13.751   6.587 -0.1606 -0.1389 -0.1359
39168SOL    HW129483   3.847  13.759   6.500  0.2258  0.6730  0.1078
39168SOL    HW229484   3.814  13.838   6.624  1.0974 -0.7886  1.3072
39169SOL     OW29485   1.399   6.671   6.662  0.8654 -0.2401  0.0666
39169SOL    HW129486   1.428   6.733   6.729  0.3576 -0.5015  0.5298
39169SOL    HW229487   1.445   6.700   6.582 -1.8561  2.8196 -0.6138
39170SOL     OW29488   9.397   0.402   7.421 -0.5803 -0.2728 -0.0004
39170SOL    HW129489   9.451   0.413   7.342 -0.9878  1.5755 -0.0502
39170SOL    HW229490   9.422   0.316   7.454  2.5143  0.5180  0.0380
39171SOL     OW29491  13.995   5.653   3.433 -0.0938 -0.2095 -0.7125
39171SOL    HW129492  13.993   5.570   3.386 -0.7198 -0.4381 -0.2943
39171SOL    HW229493  13.903   5.673   3.449  0.1306 -0.9151  1.7707
39172SOL     OW29494   0.810  10.359   6.886  0.7111 -0.1051  0.5426
39172SOL    HW129495   0.728  10.369   6.934 -0.0716 -1.6022 -0.3758
39172SOL    HW229496   0.786  10.374   6.794  1.9544  1.6631  0.4526
39173SOL     OW29497   7.328   5.581  10.954  0.4070  0.0898 -0.5903
39173SOL    HW129498   7.323   5.618  11.042  1.9911 -0.3122 -0.3045
39173SOL    HW229499   7.406   5.526  10.955  0.1457 -0.3654 -2.0888
39174SOL     OW29500   5.172   4.321   5.541  0.0876  0.1128 -0.0952
39174SOL    HW129501   5.150   4.410   5.570 -0.5106 -0.2842  0.7120
39174SOL    HW229502   5.268   4.318   5.544  0.0969  0.5916  0.3346
39175SOL     OW29503   3.511  13.753   0.268  0.0678 -0.1455 -0.4223
39175SOL    HW129504   3.539  13.762   0.176 -0.6950 -2.3123 -0.9273
39175SOL    HW229505   3.554  13.672   0.298  0.3952  0.5867  1.2023
39176SOL     OW29506   1.076   0.517   9.200  0.8225 -0.1055 -0.3102
39176SOL    HW129507   1.099   0.610   9.198 -2.0882  0.7318 -0.7650
39176SOL    HW229508   1.139   0.478   9.260  1.6187  2.3369  0.5865
39177SOL     OW29509   7.740  10.065   5.981 -0.2701  0.0158  0.4141
39177SOL    HW129510   7.766  10.014   5.904 -0.2883 -1.2677  1.2265
39177SOL    HW229511   7.645  10.062   5.981 -0.4222  2.2404 -0.9221
39178SOL     OW29512   3.974   7.665   3.304 -0.2715  0.3140 -0.6905
39178SOL    HW129513   3.891   7.619   3.302  0.6864 -1.5078 -0.3903
39178SOL    HW229514   4.031   7.610   3.358  1.2158  1.3614 -1.1231
39179SOL     OW29515   6.021   0.596   4.684  0.5622  0.3212  0.1692
39179SOL    HW129516   6.008   0.517   4.631  1.5140  0.6262 -0.5313
39179SOL    HW229517   5.969   0.580   4.763 -0.7801 -0.1904 -0.7859
39180SOL     OW29518  13.800   4.559   8.039  0.1464  0.1448 -0.0115
39180SOL    HW129519  13.852   4.530   7.964 -0.3373  0.7852 -0.6116
39180SOL    HW229520  13.737   4.622   8.002 -1.4649 -1.0452  0.5717
39181SOL     OW29521   7.745  11.246   4.847 -0.7167  0.2863 -0.2838
39181SOL    HW129522   7.670  11.305   4.837 -1.2357 -0.5323 -1.5591
39181SOL    HW229523   7.818  11.294   4.807 -1.3566 -0.2898 -2.2515
39182SOL     OW29524  13.376   1.715   7.029 -0.1927 -0.2259 -0.5071
39182SOL    HW129525  13.314   1.748   6.964 -1.0796 -0.4685  0.2019
39182SOL    HW229526  13.321   1.686   7.102  0.7304 -0.8404 -0.0413
39183SOL     OW29527   8.078   2.879   7.712 -1.0427 -0.7979  0.0481
39183SOL    HW129528   8.130   2.815   7.760  1.6372  1.1734 -0.0468
39183SOL    HW229529   8.075   2.845   7.622 -0.0721 -1.0813  0.1110
39184SOL     OW29530  10.872   0.731  10.736  0.0840 -0.1122  0.3093
39184SOL    HW129531  10.812   0.753  10.665  1.7248  1.1541 -0.7772
39184SOL    HW229532  10.844   0.786  10.809  0.2430  0.9172 -0.3773
39185SOL     OW29533  12.412   8.494   6.016  1.0278  0.3513 -0.1117
39185SOL    HW129534  12.422   8.582   5.979  0.9988  0.2177 -0.4421
39185SOL    HW229535  12.321   8.492   6.046 -0.1001 -0.7054 -3.2004
39186SOL     OW29536   0.013   8.393   5.654  0.3820 -0.1771  0.3693
39186SOL    HW129537   0.040   8.454   5.586  0.5232 -1.0306 -0.3529
39186SOL    HW229538   0.058   8.423   5.733 -0.0557  1.0264  0.1809
39187SOL     OW29539  12.380   9.826  13.519 -0.2830  0.5090  0.4005
39187SOL    HW129540  12.301   9.831  13.573 -0.2111 -0.0391  0.5656
39187SOL    HW229541  12.397   9.732  13.512  0.6103  0.6372  0.7477
39188SOL     OW29542   8.489   2.898  10.195 -0.3559 -0.3029  0.2490
39188SOL    HW129543   8.469   2.919  10.286 -0.7285 -0.1494  0.1361
39188SOL    HW229544   8.519   2.980  10.157  2.4244 -0.9196  0.8939
39189SOL     OW29545   8.116   3.975   2.588  0.2268 -0.3054  0.1591
39189SOL    HW129546   8.126   3.933   2.674 -2.2904  0.9765  1.1941
39189SOL    HW229547   8.102   3.903   2.527 -2.0201 -1.1777  1.5632
39190SOL     OW29548   5.147   0.450   7.119 -0.1034 -0.2739 -0.2738
39190SOL    HW129549   5.231   0.407   7.138 -0.5960 -1.5161 -0.8714
39190SOL    HW229550   5.172   0.527   7.066  0.7149 -0.1973  0.1957
39191SOL     OW29551   8.467   5.039   9.349 -0.0827  0.0458  0.4507
39191SOL    HW129552   8.486   4.957   9.304  2.9586  1.5070 -1.1977
39191SOL    HW229553   8.546   5.056   9.401 -1.9238  0.4336  3.3285
39192SOL     OW29554   8.268   6.572   2.491 -0.8678 -0.2205  0.1772
39192SOL    HW129555   8.242   6.480   2.481  0.1750 -0.6056  0.7835
39192SOL    HW229556   8.325   6.572   2.568  0.5050  0.6336 -0.7973
39193SOL     OW29557  14.042   8.931  12.249  0.5779  0.3026  0.1436
39193SOL    HW129558  14.115   8.984  12.283 -0.3706  1.3328  0.6319
39193SOL    HW229559  14.082   8.846  12.230  1.5026  0.1381  2.4205
39194SOL     OW29560   8.944   7.705  10.488 -0.3291 -0.2726  0.0647
39194SOL    HW129561   8.915   7.624  10.531 -1.4411 -0.5851 -1.2091
39194SOL    HW229562   8.945   7.684  10.395  0.6805  0.7987 -0.1923
39195SOL     OW29563   6.631   8.340  11.598  0.4048 -0.2750  0.5384
39195SOL    HW129564   6.631   8.378  11.510 -1.9558  1.5064  1.1911
39195SOL    HW229565   6.703   8.383  11.643  0.6893 -0.0745 -0.1005
39196SOL     OW29566  10.836   5.243   0.114  0.3574 -0.0695  0.4012
39196SOL    HW129567  10.780   5.200   0.049  0.8152 -1.7067  1.0130
39196SOL    HW229568  10.925   5.214   0.091  0.5829 -0.1776  1.3697
39197SOL     OW29569  11.229  13.994   3.278  0.0309  0.8725 -0.2681
39197SOL    HW129570  11.250  13.909   3.239 -0.3386  0.0639  1.2237
39197SOL    HW229571  11.134  14.001   3.269 -0.0391  0.7393  0.3505
39198SOL     OW29572  11.727   4.741   6.388  0.6508 -0.4430 -0.2814
39198SOL    HW129573  11.655   4.716   6.447  1.4831  1.1519  1.4932
39198SOL    HW229574  11.722   4.677   6.317 -0.9953 -1.8798  1.0298
39199SOL     OW29575   4.661   0.652   5.227  0.0676  0.6034  0.0370
39199SOL    HW129576   4.604   0.708   5.175 -0.2647 -0.0853 -0.3590
39199SOL    HW229577   4.691   0.708   5.298 -0.0270  1.3624 -0.5025
39200SOL     OW29578   0.075  13.915   2.767  0.3371  0.3425 -0.2290
39200SOL    HW129579   0.010  13.852   2.797 -0.8948  1.2204 -0.9779
39200SOL    HW229580   0.132  13.865   2.709  1.3828 -0.8257  1.7076
39201SOL     OW29581   5.155   9.564   2.701  0.3911 -0.1116  0.3654
39201SOL    HW129582   5.084   9.512   2.662  1.5597 -1.0059 -0.6866
39201SOL    HW229583   5.170   9.524   2.786 -0.4462  0.1713  0.6533
39202SOL     OW29584   8.991   0.664   6.904  0.2419 -0.6845  0.2335
39202SOL    HW129585   8.979   0.752   6.940  1.0001  1.0536 -3.2703
39202SOL    HW229586   8.933   0.608   6.956 -0.9384  2.0242  2.0509
39203SOL     OW29587   8.542   9.607   5.588  0.0573  0.2998  0.6674
39203SOL    HW129588   8.627   9.569   5.612 -0.2696 -2.0727 -1.5103
39203SOL    HW229589   8.534   9.591   5.494 -1.6748  2.9160  0.2570
39204SOL     OW29590   2.298   2.460  12.845  0.0599  0.2420 -0.1658
39204SOL    HW129591   2.383   2.496  12.869 -1.0070  1.1891  2.5110
39204SOL    HW229592   2.309   2.365  12.852  0.3108  0.3957  2.7943
39205SOL     OW29593   1.976  13.564   2.615  0.0805 -0.2270 -0.2080
39205SOL    HW129594   2.007  13.476   2.593  0.3552 -0.1642 -0.0861
39205SOL    HW229595   1.906  13.550   2.679 -1.0961 -0.4375 -1.4962
39206SOL     OW29596  11.862  13.394   1.723 -0.1700  0.0132  0.0563
39206SOL    HW129597  11.905  13.471   1.686  0.5528 -0.3791  0.0701
39206SOL    HW229598  11.822  13.426   1.804 -0.0240  0.4103 -0.0232
39207SOL     OW29599  11.692   6.808   0.004  0.0387 -0.2960 -0.6855
39207SOL    HW129600  11.709   6.827   0.096 -1.3698 -2.6009  0.1482
39207SOL    HW229601  11.743   6.873  -0.044  1.8600  0.1559  1.6824
39208SOL     OW29602   7.380  13.896  12.958 -0.5007  0.1400 -0.4502
39208SOL    HW129603   7.375  13.986  12.926 -0.1887 -0.3102 -1.8088
39208SOL    HW229604   7.300  13.885  13.009 -0.8034  1.0222 -0.7048
39209SOL     OW29605  11.933   8.078   8.677 -0.3455  0.1413 -0.5425
39209SOL    HW129606  11.985   8.096   8.756 -0.4895  1.5038 -0.7394
39209SOL    HW229607  11.861   8.023   8.707  0.7534 -1.1329 -0.1223
39210SOL     OW29608   6.560   1.953  10.132 -0.0068 -0.1327  0.7615
39210SOL    HW129609   6.655   1.950  10.141 -0.0068  0.7589  1.1839
39210SOL    HW229610   6.544   1.939  10.039  0.5876  0.4713  0.5596
39211SOL     OW29611  13.813   1.508  11.383  0.0049  0.5441  0.2835
39211SOL    HW129612  13.774   1.490  11.298 -1.0653  1.0764  0.6495
39211SOL    HW229613  13.742   1.499  11.445  0.8114 -0.0007  1.1596
39212SOL     OW29614  13.912   0.970   5.425 -0.2053 -0.4840  0.1365
39212SOL    HW129615  13.875   1.028   5.358 -2.4880 -2.4135 -0.4047
39212SOL    HW229616  13.859   0.987   5.503 -0.3892 -1.2723  0.1920
39213SOL     OW29617   3.552   8.370  12.136  0.9062 -0.2812  0.2466
39213SOL    HW129618   3.579   8.279  12.152 -1.4566 -0.8706  1.2921
39213SOL    HW229619   3.606   8.422  12.195  0.0864 -1.3666  2.0498
39214SOL     OW29620   7.616  11.530  11.027 -0.0657 -0.2026  0.2290
39214SOL    HW129621   7.701  11.569  11.048 -0.5088  0.8585  0.0942
39214SOL    HW229622   7.575  11.591  10.966 -0.5528 -1.1629 -0.4243
39215SOL     OW29623   1.565   5.377   1.544  0.0608  0.2991  0.1696
39215SOL    HW129624   1.616   5.431   1.605  1.3748  0.4207 -0.9839
39215SOL    HW229625   1.630   5.341   1.484 -1.1996  0.3137 -1.2610
39216SOL     OW29626   8.551  13.327  11.142 -0.4917  0.3545  0.2259
39216SOL    HW129627   8.607  13.347  11.067  0.2178  0.0197  0.6525
39216SOL    HW229628   8.496  13.404  11.153  0.2949  0.9368  0.1498
39217SOL     OW29629   2.315   3.663   6.238 -0.0610 -0.3049  0.8498
39217SOL    HW129630   2.301   3.604   6.312 -0.5940 -0.6298  0.5033
39217SOL    HW229631   2.384   3.621   6.186  1.1803  0.5379  1.7824
39218SOL     OW29632   1.505  12.876  10.382  0.1142 -0.7044 -0.0210
39218SOL    HW129633   1.562  12.927  10.324 -0.4907 -1.5112 -1.3802
39218SOL    HW229634   1.565  12.830  10.440  0.6792  1.8628  1.5971
39219SOL     OW29635  11.110   5.210  13.903  0.1150  0.4574 -0.2729
39219SOL    HW129636  11.131   5.201  13.996 -1.0056  0.4297 -0.0121
39219SOL    HW229637  11.042   5.145  13.887  0.4426  0.3140 -1.1785
39220SOL     OW29638  11.431   2.174  12.389 -0.1189 -1.0110 -0.1919
39220SOL    HW129639  11.379   2.143  12.463 -0.5444  0.7781  0.2814
39220SOL    HW229640  11.368   2.184  12.318  0.0689 -1.4409 -0.4275
39221SOL     OW29641  13.181   6.592   2.397  0.5801  0.1607 -0.0732
39221SOL    HW129642  13.141   6.640   2.325 -0.2546  0.2573  0.4330
39221SOL    HW229643  13.275   6.603   2.385  0.4747  3.7101  1.1134
39222SOL     OW29644   6.291   9.883   5.924  0.5524 -0.3715 -0.2183
39222SOL    HW129645   6.386   9.893   5.928  0.5002  0.6482 -1.3009
39222SOL    HW229646   6.272   9.858   5.834 -0.0859 -2.2648  0.3837
39223SOL     OW29647  13.684   9.872   0.812 -0.6566  0.1564 -0.1214
39223SOL    HW129648  13.658   9.953   0.857 -0.6360  0.9872 -1.5368
39223SOL    HW229649  13.641   9.803   0.862  0.2213  0.9064  1.7940
39224SOL     OW29650   1.147   2.497   9.334 -0.1392  0.3524 -0.1383
39224SOL    HW129651   1.195   2.576   9.356  0.3048 -0.2809  1.2761
39224SOL    HW229652   1.059   2.527   9.312  0.3138  1.3222 -0.7106
39225SOL     OW29653   4.558   1.648  11.869 -0.0391  0.3015  0.3638
39225SOL    HW129654   4.515   1.674  11.950  0.8642  1.5470  0.4705
39225SOL    HW229655   4.592   1.560  11.886 -2.1229 -0.5601  0.4102
39226SOL     OW29656   9.804   3.321   6.921  0.0048 -0.1497 -0.4923
39226SOL    HW129657   9.870   3.369   6.971 -1.7173  0.5740  1.1984
39226SOL    HW229658   9.780   3.379   6.849  1.3402 -0.5256 -1.2742
39227SOL     OW29659  11.079  13.067   0.349 -0.5017  0.6735  0.2088
39227SOL    HW129660  11.007  13.027   0.301  0.6673 -2.1407  0.6289
39227SOL    HW229661  11.111  12.998   0.407  1.6210  2.2875  1.1050
39228SOL     OW29662  10.116  10.786   6.862  0.2566  0.2699  0.3662
39228SOL    HW129663  10.147  10.705   6.903 -0.3085 -0.0099  0.2505
39228SOL    HW229664  10.195  10.828   6.829  0.5209 -0.4092  0.1214
39229SOL     OW29665   1.004   0.613   6.358 -0.7557 -0.7228 -0.3844
39229SOL    HW129666   0.913   0.595   6.381 -0.6598 -1.0587 -0.2626
39229SOL    HW229667   1.054   0.584   6.434 -0.5568 -0.4067 -0.3935
39230SOL     OW29668   1.773   4.774  11.593  0.4295 -0.0810 -0.3944
39230SOL    HW129669   1.723   4.725  11.528  1.6428 -0.3533 -1.1551
39230SOL    HW229670   1.722   4.765  11.674 -0.3609 -0.9738 -0.9642
39231SOL     OW29671   6.616   3.866   9.579 -0.3126  0.1396 -0.0570
39231SOL    HW129672   6.674   3.848   9.505  0.0613  2.5920 -0.4531
39231SOL    HW229673   6.674   3.903   9.646 -0.6821 -1.8704  1.4387
39232SOL     OW29674   2.610   2.459   4.129 -0.1996 -0.8080  0.2988
39232SOL    HW129675   2.600   2.549   4.160  1.9548 -0.4857  0.2036
39232SOL    HW229676   2.694   2.431   4.164  0.1088 -2.0913 -1.3390
39233SOL     OW29677   7.795   0.437   7.029  0.6614 -0.3556  0.0502
39233SOL    HW129678   7.889   0.424   7.034  0.6675  0.0355  1.4058
39233SOL    HW229679   7.774   0.429   6.936  1.9742 -0.7818 -0.2240
39234SOL     OW29680   0.076   6.033   7.875  0.2645  0.0497 -0.1936
39234SOL    HW129681   0.123   6.113   7.851 -1.3546  0.7079 -1.3286
39234SOL    HW229682  -0.014   6.061   7.888 -0.2877 -1.5549 -0.3436
39235SOL     OW29683   5.955  10.570   1.220 -0.0524 -0.0932  0.1046
39235SOL    HW129684   5.971  10.532   1.306 -0.2348 -1.1318 -0.3134
39235SOL    HW229685   5.923  10.497   1.167  4.8609 -0.8216 -2.3659
39236SOL     OW29686   7.528   4.690   1.319 -0.1161 -0.4243  0.4820
39236SOL    HW129687   7.552   4.614   1.372 -1.0828  0.7217  2.6874
39236SOL    HW229688   7.433   4.695   1.326 -0.2519 -0.0592 -1.1972
39237SOL     OW29689  12.619   3.815   9.216 -0.6341  0.6168  0.4145
39237SOL    HW129690  12.706   3.808   9.176 -2.6928 -5.4394 -4.5221
39237SOL    HW229691  12.627   3.768   9.299  0.6155 -1.5038 -0.8246
39238SOL     OW29692   7.616   8.257   0.857 -1.0525 -0.1942 -0.4921
39238SOL    HW129693   7.541   8.251   0.916 -0.7550 -1.0968 -0.1879
39238SOL    HW229694   7.606   8.341   0.814 -0.7175  1.0289  1.6459
39239SOL     OW29695   6.193   1.197   2.915  0.7628  0.4137 -0.4324
39239SOL    HW129696   6.210   1.202   2.821 -2.0553  1.0958 -0.9718
39239SOL    HW229697   6.124   1.131   2.924  1.0983  0.2278  1.2057
39240SOL     OW29698   8.258  13.968   2.517  0.0033 -0.2389  0.2753
39240SOL    HW129699   8.287  14.013   2.596 -0.4126 -0.4089  0.5239
39240SOL    HW229700   8.274  14.032   2.447 -1.1073  0.5338  0.6926
39241SOL     OW29701  12.246  13.735  13.338 -0.0750  0.2635  0.6095
39241SOL    HW129702  12.322  13.722  13.282 -1.4505 -0.0820 -1.2404
39241SOL    HW229703  12.241  13.655  13.391  1.4198  0.7296  1.5229
39242SOL     OW29704   7.693  11.592   6.346  0.1783 -0.0141 -0.4959
39242SOL    HW129705   7.605  11.620   6.373 -1.1006 -1.2026 -3.0279
39242SOL    HW229706   7.736  11.672   6.319 -0.0058  0.6153  0.9516
39243SOL     OW29707   6.681   0.051   2.157  0.2405 -0.2733  0.4073
39243SOL    HW129708   6.686   0.089   2.245  1.5533  0.1707  0.1618
39243SOL    HW229709   6.712  -0.039   2.167 -4.1741 -1.9564  1.2550
39244SOL     OW29710   1.989   0.441  10.113 -0.1060 -0.1845  0.1161
39244SOL    HW129711   2.024   0.526  10.088 -0.8134  0.2647  0.6228
39244SOL    HW229712   1.897   0.458  10.135 -0.5323 -1.2490 -0.7509
39245SOL     OW29713   5.576   6.124   9.618 -0.1863 -0.3889 -0.0625
39245SOL    HW129714   5.587   6.077   9.701  0.9186 -1.8368 -0.9757
39245SOL    HW229715   5.611   6.211   9.635 -0.5792 -0.4459  1.1621
39246SOL     OW29716   9.677   9.318   8.944 -0.1066  0.0088  0.1126
39246SOL    HW129717   9.761   9.351   8.978  1.1875 -1.0226 -1.9036
39246SOL    HW229718   9.673   9.351   8.855 -1.4714 -0.6641 -0.0990
39247SOL     OW29719   2.190  10.436  12.340  0.1009 -0.0910  0.2154
39247SOL    HW129720   2.137  10.500  12.293  2.3775  1.2236 -0.7819
39247SOL    HW229721   2.250  10.402  12.273  0.9823 -0.9460  1.3928
39248SOL     OW29722   6.058   4.504   3.648  0.0171 -0.4399  0.3547
39248SOL    HW129723   6.035   4.596   3.636  1.8770  0.2922  1.7729
39248SOL    HW229724   6.115   4.484   3.573 -0.4492 -0.4743  0.0045
39249SOL     OW29725   7.418   0.790   2.428  0.3262 -0.7916  0.1235
39249SOL    HW129726   7.394   0.754   2.514  0.5622  1.1659  1.0665
39249SOL    HW229727   7.471   0.867   2.448 -0.7567  0.5223 -1.7416
39250SOL     OW29728   0.467  12.467   5.277 -0.1618  0.2526  0.5838
39250SOL    HW129729   0.514  12.539   5.318 -1.0776  2.0978 -1.4086
39250SOL    HW229730   0.406  12.437   5.345 -0.9490  2.5218  0.9606
39251SOL     OW29731   2.714  12.198   3.561 -0.2114 -0.4724  0.3143
39251SOL    HW129732   2.750  12.256   3.493 -0.8779 -0.5641 -0.1246
39251SOL    HW229733   2.633  12.241   3.588 -0.5773 -1.0650  0.1737
39252SOL     OW29734   9.172   1.782  11.688 -0.3367  0.3755 -0.0941
39252SOL    HW129735   9.200   1.747  11.603  0.1689 -0.4172  0.3801
39252SOL    HW229736   9.083   1.751  11.699 -0.0760 -0.3394  0.0790
39253SOL     OW29737  13.423   6.662   3.894  0.2076 -0.6494  0.1521
39253SOL    HW129738  13.476   6.738   3.914 -0.6841  0.0628 -0.1237
39253SOL    HW229739  13.385   6.681   3.808 -1.8384 -0.3600  1.0735
39254SOL     OW29740   1.571  10.978   0.523 -0.1014 -0.4356 -0.3661
39254SOL    HW129741   1.628  10.976   0.446 -0.4077 -0.0538 -0.6054
39254SOL    HW229742   1.493  11.025   0.495 -0.5400 -0.9456 -0.0352
39255SOL     OW29743   0.482   5.905  11.383  0.1945 -0.3151 -0.0154
39255SOL    HW129744   0.462   5.869  11.470  0.2618 -0.6276 -0.1305
39255SOL    HW229745   0.545   5.975  11.401 -0.3360  0.1038  0.2605
39256SOL     OW29746   3.446   4.450  12.004  0.2324 -0.0339 -0.2912
39256SOL    HW129747   3.432   4.381  11.939  2.0153  0.1104 -0.8813
39256SOL    HW229748   3.403   4.417  12.083  1.4783 -2.1064 -0.3899
39257SOL     OW29749   3.224   7.478   0.903  0.2297  0.0328 -0.5766
39257SOL    HW129750   3.275   7.406   0.942  1.4421  1.3401  0.3524
39257SOL    HW229751   3.138   7.472   0.944  0.2913 -0.9116 -0.5617
39258SOL     OW29752   1.897   7.915   6.912  0.9220 -0.3016 -0.1928
39258SOL    HW129753   1.802   7.925   6.925  1.0184 -0.6015  0.8022
39258SOL    HW229754   1.905   7.861   6.833  0.2338 -1.5523  0.5689
39259SOL     OW29755   2.771   4.385  13.004  0.7657  0.1848 -0.1190
39259SOL    HW129756   2.720   4.462  12.979  1.0317  0.1887 -0.6612
39259SOL    HW229757   2.714   4.337  13.064 -0.7785 -0.8893 -2.3060
39260SOL     OW29758   5.045   5.400  12.986 -0.5543 -0.2762 -0.0465
39260SOL    HW129759   5.091   5.365  13.062 -1.8742  0.5096  1.1450
39260SOL    HW229760   5.068   5.340  12.915  2.1767  0.0021  0.5096
39261SOL     OW29761   0.879   0.217   7.253  0.2718 -0.4022  0.2595
39261SOL    HW129762   0.865   0.203   7.159  0.2195 -0.6148  0.2975
39261SOL    HW229763   0.948   0.283   7.257  1.2086 -1.3362  0.0670
39262SOL     OW29764   6.233   4.206  10.183 -0.2841 -0.4458 -1.0135
39262SOL    HW129765   6.142   4.233  10.197  0.3354  0.0969  4.0188
39262SOL    HW229766   6.236   4.115  10.213  1.1346  0.3571  1.6551
39263SOL     OW29767  12.424   9.195   1.888  0.3123 -0.3610 -0.0397
39263SOL    HW129768  12.358   9.141   1.843 -0.4173  0.6162 -0.1944
39263SOL    HW229769  12.506   9.150   1.874 -0.4530 -2.1916  1.0605
39264SOL     OW29770   5.244   7.274   9.386  0.1325 -0.2316  0.1111
39264SOL    HW129771   5.178   7.224   9.337  0.2626  1.7381 -2.3148
39264SOL    HW229772   5.196   7.313   9.458 -0.7161 -1.0791  0.0234
39265SOL     OW29773   6.749   5.762   9.438 -0.1758 -0.1515  0.4548
39265SOL    HW129774   6.682   5.825   9.412 -0.1840 -1.5293 -3.7111
39265SOL    HW229775   6.706   5.703   9.499 -1.5433  1.1984  0.8306
39266SOL     OW29776   9.909  12.837   4.889  0.2263 -0.1774 -0.0976
39266SOL    HW129777   9.951  12.765   4.842  0.1562 -0.2422 -0.0605
39266SOL    HW229778   9.826  12.850   4.844  0.2633 -0.0828 -0.1391
39267SOL     OW29779  10.624  14.041   6.985 -0.1926 -0.2327 -0.1472
39267SOL    HW129780  10.607  13.954   6.947  1.8282 -0.6019 -0.2976
39267SOL    HW229781  10.538  14.084   6.983 -1.1283 -1.9921 -0.6285
39268SOL     OW29782  13.766   2.092   6.783 -0.2442  0.1130 -0.2296
39268SOL    HW129783  13.726   2.086   6.870  0.0642  1.4748  0.0362
39268SOL    HW229784  13.860   2.081   6.799 -0.2694 -0.5714 -0.5256
39269SOL     OW29785  13.936   5.200   3.203 -0.1342 -0.2313 -0.4892
39269SOL    HW129786  14.002   5.158   3.148  0.5688  2.6650 -2.0715
39269SOL    HW229787  13.868   5.134   3.214  0.0546 -1.3012 -4.2470
39270SOL     OW29788   6.369   6.310  12.208  0.2586  0.0480  0.1633
39270SOL    HW129789   6.377   6.383  12.147 -1.8728  0.5697  0.4401
39270SOL    HW229790   6.319   6.244  12.161  0.7919 -0.5797  0.4699
39271SOL     OW29791   0.523   9.619   2.720 -0.1032  0.2327  0.8203
39271SOL    HW129792   0.500   9.643   2.810  0.6575 -3.2763  2.1375
39271SOL    HW229793   0.474   9.538   2.705  0.7516  0.0898 -1.4913
39272SOL     OW29794   5.114   2.727  11.204  0.2382 -0.3920 -0.1714
39272SOL    HW129795   5.056   2.796  11.171  0.4871  0.7786  1.7354
39272SOL    HW229796   5.068   2.646  11.182 -1.9800  0.4742  0.9514
39273SOL     OW29797   3.339   4.169   2.954 -0.2354 -0.8596  0.0856
39273SOL    HW129798   3.264   4.217   2.989  0.6849  0.1443  0.7729
39273SOL    HW229799   3.394   4.237   2.914 -0.6297 -1.8051 -2.2565
39274SOL     OW29800   4.094  11.588   7.198  0.4671 -0.1905 -0.5343
39274SOL    HW129801   4.068  11.582   7.290 -0.8029 -0.7738 -0.9065
39274SOL    HW229802   4.190  11.588   7.199  0.4702  0.4296  0.8161
39275SOL     OW29803   0.405  13.340   1.932 -0.2843 -0.2581  0.2146
39275SOL    HW129804   0.451  13.343   2.016  0.9942 -0.7882 -0.4377
39275SOL    HW229805   0.468  13.375   1.868 -1.5940  1.0812 -0.3966
39276SOL     OW29806   4.951   7.223   0.533 -0.1540 -0.1930 -0.7478
39276SOL    HW129807   4.960   7.174   0.452  0.5596 -0.1666 -0.6932
39276SOL    HW229808   5.040   7.250   0.555 -0.3608 -0.0372 -0.0589
39277SOL     OW29809   3.252   0.279   5.699 -0.0570 -0.1199 -0.2573
39277SOL    HW129810   3.213   0.191   5.706  0.6187 -0.5786 -1.8650
39277SOL    HW229811   3.194   0.326   5.640  0.0512  0.2578 -0.0675
39278SOL     OW29812   3.426   7.623   1.243 -0.0521 -0.4199 -0.2263
39278SOL    HW129813   3.372   7.548   1.267 -2.1993  0.4386 -2.0013
39278SOL    HW229814   3.504   7.615   1.298 -1.4332 -2.3840  1.6226
39279SOL     OW29815   1.403   0.759   3.112 -0.0009  0.6222  0.1776
39279SOL    HW129816   1.491   0.763   3.073 -0.3625 -0.7875 -0.8479
39279SOL    HW229817   1.419   0.761   3.207  1.1338  0.5084  0.0048
39280SOL     OW29818   2.519  13.139   9.649 -0.4269  0.3365 -0.3982
39280SOL    HW129819   2.464  13.215   9.631  0.5746  0.9431 -1.0707
39280SOL    HW229820   2.606  13.176   9.667  0.1562 -0.6398 -1.0523
39281SOL     OW29821   2.728   2.458   5.788  0.2561  0.1053  0.3625
39281SOL    HW129822   2.787   2.462   5.863  0.4349  1.2208  0.1697
39281SOL    HW229823   2.780   2.418   5.718 -0.6185 -3.3131  1.4368
39282SOL     OW29824  11.203   9.047   4.759 -0.2442 -0.3050  0.0271
39282SOL    HW129825  11.244   9.073   4.841  2.4371 -0.6887 -1.1168
39282SOL    HW229826  11.173   8.958   4.774 -1.7886  0.3478  1.2168
39283SOL     OW29827   5.086   7.515  10.705 -0.6450  0.0219 -0.1274
39283SOL    HW129828   5.027   7.589  10.694 -2.0626 -1.1554 -0.6854
39283SOL    HW229829   5.035   7.449  10.751  0.8793 -0.3137  1.2000
39284SOL     OW29830   4.275   1.271   0.674  0.3280 -0.0765 -0.5923
39284SOL    HW129831   4.320   1.263   0.758  0.4539  1.1285 -0.5240
39284SOL    HW229832   4.290   1.187   0.630  0.6205 -0.5604  0.4055
39285SOL     OW29833   0.033   5.430  10.606 -0.5894  0.8693  0.0457
39285SOL    HW129834   0.039   5.336  10.623  0.0349  1.1849  1.7963
39285SOL    HW229835   0.122   5.456  10.582  0.1550  1.5694  3.1223
39286SOL     OW29836  10.882   0.975  11.173 -0.3704 -0.4493 -0.3461
39286SOL    HW129837  10.939   1.052  11.171 -2.0341  0.8519 -0.3517
39286SOL    HW229838  10.916   0.922  11.245 -0.9189  1.7533  1.6978
39287SOL     OW29839   9.867   2.673   3.528  0.8003 -0.0901 -0.1549
39287SOL    HW129840   9.860   2.686   3.623 -0.6754  0.3736 -0.3039
39287SOL    HW229841   9.956   2.642   3.515  0.5330 -1.7656  1.5600
39288SOL     OW29842  13.875   7.110   2.890  0.6421 -0.3828 -0.2541
39288SOL    HW129843  13.842   7.032   2.935 -1.4801 -1.3843 -3.2337
39288SOL    HW229844  13.944   7.077   2.833  1.3264  0.3717  0.1126
39289SOL     OW29845   4.268  13.763   3.057  0.5264 -0.1753  0.0519
39289SOL    HW129846   4.231  13.678   3.035  1.0924 -0.2106 -0.8391
39289SOL    HW229847   4.340  13.743   3.116 -0.0068 -0.2211  0.6904
39290SOL     OW29848   6.749   9.911   8.242  0.4106  0.0679  0.4838
39290SOL    HW129849   6.720  10.002   8.245  0.8827  0.2142  0.8231
39290SOL    HW229850   6.831   9.910   8.292  1.8085 -0.0221 -1.6286
39291SOL     OW29851  11.412   3.599   0.592 -0.1685 -0.4569 -0.5919
39291SOL    HW129852  11.347   3.565   0.653  0.1223  0.0258  0.0023
39291SOL    HW229853  11.489   3.616   0.646 -0.0459  0.3826 -1.0106
39292SOL     OW29854  13.548   9.486   9.442  0.3686  0.2404 -0.5409
39292SOL    HW129855  13.491   9.551   9.401  0.6208  0.4812 -0.5107
39292SOL    HW229856  13.637   9.520   9.430  0.3709  1.3311  1.8973
39293SOL     OW29857   8.894   2.760   0.825  0.4677 -0.4389 -0.0461
39293SOL    HW129858   8.834   2.727   0.892 -1.3263  2.1748 -0.2046
39293SOL    HW229859   8.881   2.703   0.750 -1.0822 -0.5705  0.2943
39294SOL     OW29860   8.646   8.860   0.132 -0.4807  0.2637 -0.2251
39294SOL    HW129861   8.677   8.949   0.117 -0.2819  0.6944  2.3057
39294SOL    HW229862   8.719   8.816   0.175 -0.0563 -1.6102 -2.6440
39295SOL     OW29863   0.084  11.358   3.488  0.1060 -0.2507  0.3062
39295SOL    HW129864   0.074  11.272   3.448  1.8626  0.1320 -1.0557
39295SOL    HW229865   0.167  11.353   3.535  1.3837  1.3317 -1.6406
39296SOL     OW29866   3.730   6.966   8.483  0.0080 -0.7165 -0.2796
39296SOL    HW129867   3.664   6.969   8.414 -0.6412  0.8996  0.3732
39296SOL    HW229868   3.744   7.058   8.507  2.2429 -1.0310 -0.1524
39297SOL     OW29869   6.701   7.286   8.996 -0.2196 -0.3083 -0.1114
39297SOL    HW129870   6.760   7.273   8.922  0.4874  1.9254 -0.0326
39297SOL    HW229871   6.759   7.290   9.072 -0.7583 -0.7873  0.3292
39298SOL     OW29872   0.450   6.911   3.573 -0.2404  0.1456  0.0011
39298SOL    HW129873   0.432   6.926   3.480  1.2108  0.7622 -0.2026
39298SOL    HW229874   0.546   6.910   3.579 -0.3175  0.4911  1.5511
39299SOL     OW29875  10.041   3.340   4.508 -0.1537 -0.3175 -0.5545
39299SOL    HW129876  10.084   3.257   4.527  0.9652  0.5558  0.9631
39299SOL    HW229877  10.099   3.383   4.446  0.3204  0.1457  0.1929
39300SOL     OW29878   2.828   8.210   2.398  0.1140  0.1777  0.9644
39300SOL    HW129879   2.752   8.168   2.439  0.0715 -0.6581  0.0844
39300SOL    HW229880   2.804   8.303   2.393 -0.0486  0.2325  2.3996
39301SOL     OW29881  10.744  10.427  11.645 -0.1808 -0.5847 -0.1868
39301SOL    HW129882  10.775  10.423  11.735 -2.2590  0.1760  0.6056
39301SOL    HW229883  10.680  10.498  11.643  0.8691  0.4409 -2.6409
39302SOL     OW29884  13.638   5.034   6.645  0.1010  0.1692  0.0989
39302SOL    HW129885  13.543   5.036   6.635 -0.1289 -0.5885  1.7489
39302SOL    HW229886  13.666   4.958   6.594 -0.0621  0.8278 -1.0112
39303SOL     OW29887  10.906   5.721   1.657 -0.0933  0.0026  0.6696
39303SOL    HW129888  10.819   5.734   1.693 -0.3859 -1.4546  0.5410
39303SOL    HW229889  10.893   5.720   1.562  0.4678  2.3823  0.5076
39304SOL     OW29890   7.994   4.708   3.230 -0.1764  0.3181  0.0076
39304SOL    HW129891   7.984   4.756   3.148  1.3240  0.6099 -0.0198
39304SOL    HW229892   7.934   4.634   3.222  0.9864 -0.4849 -1.9847
39305SOL     OW29893   3.676   9.942   2.194 -0.6748  0.8656  0.1344
39305SOL    HW129894   3.631   9.889   2.128  0.3175  1.8018 -1.3472
39305SOL    HW229895   3.673  10.031   2.159  2.1852  0.9992 -0.0218
39306SOL     OW29896   6.020   8.757  13.770  0.0766  0.5028 -0.3696
39306SOL    HW129897   5.941   8.809  13.786  0.2427  0.8654 -0.7030
39306SOL    HW229898   6.033   8.761  13.676  1.5644  2.0698 -0.1622
39307SOL     OW29899   2.827  12.659   9.944 -0.2943  0.1509  0.3748
39307SOL    HW129900   2.841  12.570   9.977 -1.2699 -0.1712 -0.0432
39307SOL    HW229901   2.915  12.695   9.935  0.0688 -0.4206  1.4915
39308SOL     OW29902   3.736   6.101  10.599 -0.3311  0.4633  0.5766
39308SOL    HW129903   3.719   6.149  10.679 -1.8941  1.2990 -0.2092
39308SOL    HW229904   3.725   6.009  10.624 -2.1010  0.7694  1.0654
39309SOL     OW29905   4.168   5.543   2.397 -0.3420 -0.2692 -0.5283
39309SOL    HW129906   4.111   5.476   2.361 -1.1760 -0.2100  0.6044
39309SOL    HW229907   4.146   5.545   2.490  1.3556 -0.0666 -0.1012
39310SOL     OW29908  13.969   4.955   9.795  0.1424 -0.7292  0.0861
39310SOL    HW129909  13.914   4.938   9.872 -1.0101  0.2885 -0.4688
39310SOL    HW229910  13.908   4.951   9.721  1.1112 -1.0411 -0.7180
39311SOL     OW29911  12.122   2.514   8.725  0.3509 -0.0915  0.1629
39311SOL    HW129912  12.115   2.504   8.630  1.7347  0.8032 -0.0648
39311SOL    HW229913  12.073   2.439   8.761  0.5754 -0.9584 -1.2552
39312SOL     OW29914   7.080   1.564  12.849 -0.1303  0.3797  0.0609
39312SOL    HW129915   7.112   1.584  12.936 -1.1025  2.0441  0.0839
39312SOL    HW229916   7.053   1.649  12.813 -2.0302 -0.5515 -0.9118
39313SOL     OW29917  13.726   4.785   6.519 -0.1087 -0.0638 -0.2228
39313SOL    HW129918  13.663   4.745   6.459 -1.2281  0.1683  0.7577
39313SOL    HW229919  13.764   4.712   6.568  2.2685 -0.4685 -2.4810
39314SOL     OW29920  11.510   5.743  10.288  0.8460  0.1449  0.6082
39314SOL    HW129921  11.437   5.796  10.320  1.0773  0.7664  0.1295
39314SOL    HW229922  11.588   5.794  10.310  0.9676  1.3400 -2.1615
39315SOL     OW29923  12.810   8.788   9.364 -0.0605  0.4624  0.1171
39315SOL    HW129924  12.798   8.697   9.394 -0.1454  0.3719 -0.1856
39315SOL    HW229925  12.901   8.809   9.386  0.1250  0.1164 -0.2948
39316SOL     OW29926   3.387  10.916  10.591 -0.4582 -0.2886 -0.4030
39316SOL    HW129927   3.438  10.857  10.646 -1.1825 -0.9022 -0.3681
39316SOL    HW229928   3.399  10.883  10.502  3.9454  2.9746 -1.3524
39317SOL     OW29929   1.118   5.062  12.178 -0.4321 -0.5376  0.1030
39317SOL    HW129930   1.170   5.020  12.110 -3.1120 -0.1272 -2.3574
39317SOL    HW229931   1.113   5.154  12.151 -0.7110 -0.1386  1.4347
39318SOL     OW29932   5.919   5.889  12.716 -0.4558 -0.6798 -0.0485
39318SOL    HW129933   5.935   5.955  12.784  0.8742  0.2263 -1.1899
39318SOL    HW229934   5.982   5.819  12.735 -1.4905 -1.4119  0.8325
39319SOL     OW29935   9.052  13.743  10.036  0.1262  1.1825 -0.1751
39319SOL    HW129936   9.130  13.714   9.989  0.3478 -0.4295  1.1156
39319SOL    HW229937   9.082  13.817  10.089  0.0917  2.3822 -1.7524
39320SOL     OW29938   1.835  13.285   2.594 -0.4109 -0.1734  0.1444
39320SOL    HW129939   1.805  13.200   2.624  0.0682 -0.2738  0.3323
39320SOL    HW229940   1.870  13.328   2.672  0.2716 -0.1973 -0.1444
39321SOL     OW29941   6.391   9.330   2.411  0.5337  1.1326 -0.0315
39321SOL    HW129942   6.373   9.241   2.381  2.1125  0.3590  1.1687
39321SOL    HW229943   6.350   9.335   2.497  0.8758  1.3956  0.1199
39322SOL     OW29944   7.827   3.940   4.556 -0.2054 -0.1518 -0.0527
39322SOL    HW129945   7.882   3.870   4.588 -0.5088  0.4209  1.8314
39322SOL    HW229946   7.754   3.896   4.512 -1.7890 -1.2390  3.3181
39323SOL     OW29947  13.071   4.047   4.702 -0.7955  0.1130  0.2508
39323SOL    HW129948  13.080   4.140   4.721  2.8060 -0.1701  0.7014
39323SOL    HW229949  13.110   4.003   4.778 -2.5732 -1.8280  0.1446
39324SOL     OW29950   5.403   4.436   6.765  0.1201  0.0978  0.2232
39324SOL    HW129951   5.344   4.412   6.694 -0.3408  4.3176 -1.1320
39324SOL    HW229952   5.487   4.452   6.721  0.8494 -0.7964  1.2671
39325SOL     OW29953   9.375   4.836   5.322  0.1201 -0.1186  0.2409
39325SOL    HW129954   9.431   4.848   5.245  0.8016  0.7774  0.8659
39325SOL    HW229955   9.420   4.771   5.375  0.6837  0.7367  0.8320
39326SOL     OW29956   6.413   4.890  13.698  0.3931 -0.1183 -0.2365
39326SOL    HW129957   6.413   4.984  13.716  1.1513 -0.1029 -0.2891
39326SOL    HW229958   6.355   4.879  13.623 -1.5087  0.0259  1.1165
39327SOL     OW29959   3.361  13.839   0.883  0.6146 -0.0023 -0.4115
39327SOL    HW129960   3.391  13.817   0.795  1.1898  2.1446 -0.8158
39327SOL    HW229961   3.357  13.755   0.928  2.7200 -0.9207 -1.7374
39328SOL     OW29962   6.399   1.796  10.779  0.1697  0.2664 -0.2779
39328SOL    HW129963   6.314   1.758  10.756  1.0470 -1.2283 -1.2718
39328SOL    HW229964   6.440   1.730  10.835  1.4380  0.0370 -1.4192
39329SOL     OW29965   5.809  13.228  10.547 -0.0989 -0.5225 -0.4076
39329SOL    HW129966   5.735  13.280  10.576 -1.0914 -1.7781 -0.6118
39329SOL    HW229967   5.810  13.237  10.452  0.1449 -0.3348 -0.3882
39330SOL     OW29968   4.216   2.679   6.980 -0.2360  0.0137  0.1730
39330SOL    HW129969   4.173   2.740   6.920 -0.1762  0.6589  0.7704
39330SOL    HW229970   4.165   2.685   7.061  0.0096 -0.4260  0.3636
39331SOL     OW29971   8.806   7.349   0.639 -0.7099 -0.2329  0.5362
39331SOL    HW129972   8.864   7.400   0.582  0.1857 -0.2846  1.3881
39331SOL    HW229973   8.718   7.381   0.618 -0.4746 -0.6572 -1.2878
39332SOL     OW29974   5.062   6.178   5.199 -0.4074 -0.0115 -0.4021
39332SOL    HW129975   4.971   6.176   5.170 -0.6159 -1.0563  0.2639
39332SOL    HW229976   5.060   6.134   5.284  1.0140 -1.7479 -1.2158
39333SOL     OW29977   4.365   8.665   6.204 -0.1577 -0.8264  0.0037
39333SOL    HW129978   4.435   8.721   6.170 -1.6513 -0.0229 -1.9675
39333SOL    HW229979   4.378   8.581   6.161 -0.5548 -0.5768 -0.6252
39334SOL     OW29980  10.561  11.604   6.208  0.1215 -0.0789 -0.0652
39334SOL    HW129981  10.499  11.601   6.280  1.0113  3.6321  1.0488
39334SOL    HW229982  10.640  11.561   6.242 -0.2012 -0.3924  0.2937
39335SOL     OW29983  13.620   1.960   5.052  0.0663 -0.4914  0.0783
39335SOL    HW129984  13.656   2.045   5.076 -0.9931  0.0386 -0.1837
39335SOL    HW229985  13.599   1.968   4.959  1.4600 -1.5861 -0.3831
39336SOL     OW29986  11.643  13.255   4.218 -0.6471  0.7414 -0.3534
39336SOL    HW129987  11.557  13.226   4.249 -0.0803 -1.9437 -1.0335
39336SOL    HW229988  11.633  13.261   4.123 -0.0919  0.3741 -0.4393
39337SOL     OW29989   1.591   6.475   6.908  0.3385  0.1603 -0.3476
39337SOL    HW129990   1.591   6.518   6.823 -1.9515 -0.4434 -0.7267
39337SOL    HW229991   1.570   6.544   6.971  1.8442  0.5684 -0.2663
39338SOL     OW29992  10.255  13.727   6.704 -0.4195 -0.6484  0.5162
39338SOL    HW129993  10.205  13.741   6.624  1.4087  2.3973 -0.2811
39338SOL    HW229994  10.192  13.742   6.775 -1.0456  1.6226 -0.4305
39339SOL     OW29995  13.505  13.539   7.860 -0.0547  0.1299 -0.5910
39339SOL    HW129996  13.483  13.451   7.891 -0.2168  0.4556  0.2623
39339SOL    HW229997  13.490  13.536   7.766  0.7747 -0.9940 -0.6986
39340SOL     OW29998  10.419   4.607   7.906 -0.4784 -0.0228 -0.0533
39340SOL    HW129999  10.481   4.536   7.890  1.4273  1.5155  0.1577
39340SOL    HW230000  10.463   4.665   7.968 -2.5086  0.6971  0.8190
39341SOL     OW30001   6.672  11.948   4.951 -0.3894 -0.2165 -0.0083
39341SOL    HW130002   6.595  11.924   4.898 -0.3178  1.3876 -0.9081
39341SOL    HW230003   6.742  11.959   4.887 -0.0761  0.8978  0.4973
39342SOL     OW30004  13.721   5.348  12.327  0.4108  0.0310  0.0179
39342SOL    HW130005  13.677   5.412  12.271  0.6712  1.4995  1.4320
39342SOL    HW230006  13.813   5.355  12.302  0.4720  0.3939  0.3384
39343SOL     OW30007  13.969   1.307  13.289 -0.0119  0.5623 -0.0934
39343SOL    HW130008  13.920   1.313  13.207  1.9810  0.5169 -1.3676
39343SOL    HW230009  13.906   1.329  13.357 -2.2811 -1.3357 -1.4158
39344SOL     OW30010   6.171   1.313  11.767  0.1678 -0.6080 -0.0379
39344SOL    HW130011   6.202   1.236  11.813  0.0663 -0.4927  0.2236
39344SOL    HW230012   6.196   1.387  11.823 -0.0728 -0.4763 -0.1017
39345SOL     OW30013   0.544   5.056   2.465  0.6209 -0.4903  0.3511
39345SOL    HW130014   0.494   4.988   2.510  0.4322 -0.5802  0.0119
39345SOL    HW230015   0.533   5.134   2.519 -0.8866 -0.1906 -0.3265
39346SOL     OW30016   4.964   1.672  10.429  0.1558 -0.2981 -0.1691
39346SOL    HW130017   4.905   1.699  10.500  0.3637 -2.7891  1.0787
39346SOL    HW230018   5.036   1.735  10.432 -0.8634  0.8924  0.3965
39347SOL     OW30019  10.526  13.603   5.898 -0.2210  0.3437 -0.1512
39347SOL    HW130020  10.467  13.541   5.938 -0.9768 -0.2430 -2.0648
39347SOL    HW230021  10.573  13.553   5.831  1.3772  1.1404  0.3041
39348SOL     OW30022  12.403   4.230   3.537 -0.1790 -0.2450 -0.4144
39348SOL    HW130023  12.490   4.266   3.523 -0.0379 -0.2381  0.4171
39348SOL    HW230024  12.394   4.162   3.471  1.6747 -2.3770  1.3581
39349SOL     OW30025   1.321   1.803  11.231 -0.4745 -0.0777  0.4014
39349SOL    HW130026   1.241   1.752  11.219  0.2450 -1.2511  0.4899
39349SOL    HW230027   1.305   1.854  11.311 -0.8758 -0.7981  0.7923
39350SOL     OW30028   6.047  12.206   4.291  0.3912  0.3069  0.2279
39350SOL    HW130029   6.106  12.233   4.361  0.8125  0.1520 -0.0671
39350SOL    HW230030   6.045  12.111   4.296  0.0004  0.3206  0.3702
39351SOL     OW30031  10.528   2.397   7.710 -0.6668  0.0275 -0.0091
39351SOL    HW130032  10.439   2.412   7.742  0.0905  2.2783  1.3340
39351SOL    HW230033  10.566   2.335   7.772 -1.0374 -0.2516 -0.0621
39352SOL     OW30034  10.779  11.804   7.952 -0.1374 -0.5798  0.1013
39352SOL    HW130035  10.702  11.859   7.968  0.3159  0.4527 -1.0126
39352SOL    HW230036  10.815  11.787   8.039 -1.5898 -1.0646  0.6405
39353SOL     OW30037  13.919   0.715  11.843 -0.1111 -0.1310 -0.1554
39353SOL    HW130038  13.993   0.659  11.864  0.0712  0.1961  0.0859
39353SOL    HW230039  13.946   0.803  11.871 -0.5247  0.0181 -0.2100
39354SOL     OW30040   3.391  11.638   7.667  0.0892  0.0388 -0.1104
39354SOL    HW130041   3.457  11.646   7.599 -0.3698 -2.4962 -0.9921
39354SOL    HW230042   3.429  11.577   7.731 -1.5479 -2.1373 -1.0446
39355SOL     OW30043  10.440   1.495  12.366  0.1053  0.3173 -0.6153
39355SOL    HW130044  10.443   1.413  12.317 -1.6927  0.5630 -1.1976
39355SOL    HW230045  10.384   1.552  12.313 -2.6831  0.3071  2.0674
39356SOL     OW30046  11.543   2.594   0.102  0.6688  0.0871 -0.2028
39356SOL    HW130047  11.494   2.652   0.160  3.1993  0.9273  1.2594
39356SOL    HW230048  11.539   2.638   0.016  0.5373  1.1569  0.3330
39357SOL     OW30049   5.413  11.356   7.962  0.5036  0.2766  0.0516
39357SOL    HW130050   5.479  11.330   8.026  1.3223  0.7542 -0.5811
39357SOL    HW230051   5.449  11.329   7.878 -0.9321 -1.1059 -0.1710
39358SOL     OW30052   7.979   0.730  12.545  0.3723  0.0372 -0.3280
39358SOL    HW130053   7.937   0.717  12.630  0.8720 -0.8931 -0.2137
39358SOL    HW230054   8.039   0.656  12.536  1.1104  0.6997 -1.0184
39359SOL     OW30055  13.818   6.314  12.375 -0.0603  0.7218  0.0263
39359SOL    HW130056  13.834   6.277  12.288 -0.2563 -1.0150  0.6858
39359SOL    HW230057  13.723   6.308  12.385 -0.2827  2.8368 -0.4201
39360SOL     OW30058   5.509   5.747   4.951 -0.3883  0.3757 -0.0672
39360SOL    HW130059   5.517   5.835   4.917 -0.1131  0.3071 -0.1862
39360SOL    HW230060   5.428   5.747   5.001  0.5715  1.2615  1.5987
39361SOL     OW30061   8.430   1.831  13.274 -1.1067  0.3353 -0.2910
39361SOL    HW130062   8.425   1.886  13.196  1.1375 -0.0170 -0.7527
39361SOL    HW230063   8.392   1.748  13.247  1.4916 -0.4758 -1.7540
39362SOL     OW30064  12.140   2.583   3.336  0.5668 -0.6661  0.2515
39362SOL    HW130065  12.183   2.531   3.268  0.8839  1.0918 -0.9686
39362SOL    HW230066  12.147   2.530   3.415 -0.4133 -3.1100 -1.1785
39363SOL     OW30067   2.682   3.302   6.505 -0.0043  0.4302 -0.0565
39363SOL    HW130068   2.600   3.253   6.500 -0.4965  1.2195  0.1764
39363SOL    HW230069   2.657   3.388   6.540  1.0289  0.4193  0.7766
39364SOL     OW30070   2.594   2.303   9.071  0.0259 -0.5654 -0.5739
39364SOL    HW130071   2.645   2.295   9.151 -0.3769  1.9403  0.0082
39364SOL    HW230072   2.646   2.256   9.005  1.7579 -0.3005  0.5339
39365SOL     OW30073   9.333   4.190   8.356 -0.2199 -0.1741  0.3034
39365SOL    HW130074   9.377   4.249   8.295 -1.3728  0.3410 -0.0698
39365SOL    HW230075   9.281   4.132   8.300 -0.2688 -0.5557  0.7405
39366SOL     OW30076   6.302  10.339   6.801  0.2001 -1.0210  0.2559
39366SOL    HW130077   6.277  10.278   6.731  0.0433 -1.2312  0.4926
39366SOL    HW230078   6.382  10.381   6.769  0.4446 -1.5280  0.1861
39367SOL     OW30079   4.932   6.670   7.278 -0.5173 -0.0890 -0.2710
39367SOL    HW130080   5.013   6.708   7.313 -1.0883  0.0853  0.9171
39367SOL    HW230081   4.949   6.576   7.274 -0.1561 -0.0232 -0.3043
39368SOL     OW30082   8.050   2.053   0.047 -0.2405 -0.0810  0.5985
39368SOL    HW130083   7.971   2.020   0.004  0.2687  0.0083 -0.4505
39368SOL    HW230084   8.109   2.075  -0.025  0.6049  0.2053  1.3530
39369SOL     OW30085   4.851   2.292   4.865  0.4135 -0.1485  0.0439
39369SOL    HW130086   4.919   2.224   4.868  2.1595  1.4789 -0.7154
39369SOL    HW230087   4.835   2.313   4.957  1.0301 -0.4840  0.2356
39370SOL     OW30088   9.318   0.237   9.537  0.0362  0.7377  0.4712
39370SOL    HW130089   9.306   0.142   9.543 -0.0911  0.5840 -1.4189
39370SOL    HW230090   9.230   0.272   9.526  0.1543  0.9748  0.2531
39371SOL     OW30091   3.849   8.838  10.345  0.1504 -0.1942  0.4648
39371SOL    HW130092   3.796   8.760  10.361  0.4487 -0.5445 -0.1765
39371SOL    HW230093   3.930   8.822  10.394  0.4752 -0.5978 -0.1831
39372SOL     OW30094   5.875  12.648  11.003  0.0928 -0.1173  0.1225
39372SOL    HW130095   5.845  12.619  11.089  1.4362 -1.2838  0.2339
39372SOL    HW230096   5.829  12.591  10.941  2.2068 -2.1960  0.3101
39373SOL     OW30097   9.803   6.348  10.163 -0.5877 -0.3294  0.3334
39373SOL    HW130098   9.790   6.439  10.191 -0.5425 -0.3924  0.5648
39373SOL    HW230099   9.893   6.345  10.132 -0.7524 -0.1723 -0.1614
39374SOL     OW30100   3.537   3.506   7.385 -0.1851  0.1549  0.2301
39374SOL    HW130101   3.609   3.509   7.448  1.2275  0.3921 -1.3151
39374SOL    HW230102   3.568   3.559   7.311 -1.6627 -0.3249 -0.7854
39375SOL     OW30103  10.119  10.668   4.262 -0.2839  0.5581 -0.0830
39375SOL    HW130104  10.172  10.729   4.211  0.7773 -1.6381 -1.7800
39375SOL    HW230105  10.029  10.700   4.252  0.2167  1.7726 -1.0045
39376SOL     OW30106   9.159   0.820   8.952 -0.2810  0.1797 -0.1864
39376SOL    HW130107   9.093   0.803   8.884 -1.9482  0.4144  1.2906
39376SOL    HW230108   9.118   0.790   9.033  0.1766  3.0557  1.2501
39377SOL     OW30109   2.243   4.942   1.698  0.3965  0.1093  0.0424
39377SOL    HW130110   2.267   4.854   1.669 -1.9460 -0.2912 -0.9076
39377SOL    HW230111   2.148   4.939   1.707  0.2061  2.6609 -0.3944
39378SOL     OW30112   0.228   7.831   5.539 -0.0557 -0.0748  0.3948
39378SOL    HW130113   0.301   7.880   5.576  0.7946 -0.6495 -0.4835
39378SOL    HW230114   0.246   7.740   5.561 -1.6015 -0.0572  1.9652
39379SOL     OW30115  11.108   5.495  11.514  0.3658 -0.2828  0.1021
39379SOL    HW130116  11.079   5.426  11.453 -0.1596  1.6050 -1.9122
39379SOL    HW230117  11.197   5.515  11.485 -0.9200  2.7689 -2.2764
39380SOL     OW30118   5.423   1.296   3.573  0.3167  0.1593 -0.2070
39380SOL    HW130119   5.336   1.294   3.614  0.0455 -2.9485 -0.7061
39380SOL    HW230120   5.420   1.373   3.516 -1.8643  0.5492  0.3240
39381SOL     OW30121   3.858   6.271   1.497  0.6345 -0.1735  0.2640
39381SOL    HW130122   3.849   6.183   1.534 -2.0529 -0.7099 -1.3854
39381SOL    HW230123   3.803   6.270   1.418  2.4288  2.2839 -1.1737
39382SOL     OW30124   3.796   5.553   8.899  0.1242 -0.3911 -0.4206
39382SOL    HW130125   3.883   5.521   8.876 -0.3833 -0.9996 -1.5797
39382SOL    HW230126   3.791   5.641   8.862  0.3061 -0.2794 -0.1836
39383SOL     OW30127  13.378   7.145   0.329  0.4509  0.5551 -0.0913
39383SOL    HW130128  13.470   7.138   0.303  0.1154  1.3297 -1.5793
39383SOL    HW230129  13.357   7.238   0.320 -0.8544  0.1827 -1.1358
39384SOL     OW30130   9.658   0.769  11.880 -0.3805 -0.2111 -0.2820
39384SOL    HW130131   9.630   0.859  11.898  0.2859  0.2059 -1.2566
39384SOL    HW230132   9.594   0.736  11.817 -0.4430 -0.3070 -0.1686
39385SOL     OW30133   5.114   0.787   7.287 -0.0149 -0.1140 -0.3904
39385SOL    HW130134   5.038   0.810   7.341 -0.0964 -0.4698 -0.3462
39385SOL    HW230135   5.089   0.705   7.245  0.4980 -0.4444 -0.0665
39386SOL     OW30136   5.778   1.280   5.588  0.6662 -0.6556 -0.1504
39386SOL    HW130137   5.698   1.230   5.571  0.7439 -0.7292 -0.2994
39386SOL    HW230138   5.848   1.216   5.582  0.5914 -0.9658  1.8030
39387SOL     OW30139  10.838  11.356  11.023 -0.0846  0.0382  0.1055
39387SOL    HW130140  10.849  11.278  11.077 -0.4536 -2.5462 -3.2502
39387SOL    HW230141  10.926  11.379  10.995  0.0733  1.1909  1.4336
39388SOL     OW30142   7.348   7.803  11.208  0.5175  0.0376  0.3378
39388SOL    HW130143   7.384   7.819  11.295 -0.7148  1.7565  0.5811
39388SOL    HW230144   7.401   7.858  11.150  0.5637 -0.1771  0.1760
39389SOL     OW30145  12.607  12.988   4.910  0.1303  0.6318 -0.7064
39389SOL    HW130146  12.516  12.996   4.939  0.3216  0.8910 -0.1756
39389SOL    HW230147  12.603  13.006   4.816 -0.5616 -0.7057 -0.9633
39390SOL     OW30148   1.126  12.816   8.312  0.2878  0.2030  0.0498
39390SOL    HW130149   1.205  12.849   8.269 -1.0776  2.8772 -0.6632
39390SOL    HW230150   1.119  12.870   8.391  0.2034 -1.3917  1.1667
39391SOL     OW30151   9.974   2.640   8.536 -0.3139 -0.1897  0.1002
39391SOL    HW130152   9.908   2.618   8.601 -1.6864 -0.1404 -1.2089
39391SOL    HW230153  10.014   2.720   8.569 -0.6113 -0.4505  1.1321
39392SOL     OW30154   8.519  12.315   8.727  0.3311  0.4320  0.7509
39392SOL    HW130155   8.609  12.312   8.695  0.2642 -1.1720  0.5874
39392SOL    HW230156   8.477  12.384   8.675  1.3890  1.0037  0.6356
39393SOL     OW30157  13.833  13.872   5.748 -0.8396 -0.5051  1.0377
39393SOL    HW130158  13.869  13.789   5.716  0.8731  0.6435 -0.1471
39393SOL    HW230159  13.902  13.936   5.733 -2.2103  1.2139  1.7040
39394SOL     OW30160  12.795   5.147  10.542  0.3931  0.3526 -0.2524
39394SOL    HW130161  12.734   5.219  10.553 -0.3792  0.1698 -2.7660
39394SOL    HW230162  12.862   5.182  10.483  0.5903 -0.6476 -0.6326
39395SOL     OW30163   2.381  10.893   4.240  0.4735  0.6304  0.2228
39395SOL    HW130164   2.376  10.943   4.158 -0.2909  0.2378  0.0239
39395SOL    HW230165   2.427  10.813   4.216 -0.2547  0.2617  0.0451
39396SOL     OW30166   7.525   8.889  11.434 -0.1493 -0.1596  0.2020
39396SOL    HW130167   7.605   8.837  11.424 -1.0526 -2.1058  2.2383
39396SOL    HW230168   7.461   8.846  11.378 -0.6428 -0.6842  1.1482
39397SOL     OW30169   4.616   6.689   3.403 -0.1096  1.0430 -0.2120
39397SOL    HW130170   4.640   6.599   3.420 -0.3387  0.6106 -1.9501
39397SOL    HW230171   4.677   6.718   3.335  0.1176  2.2864  0.4838
39398SOL     OW30172   3.749   3.305  10.440  0.0430  0.0336 -0.2453
39398SOL    HW130173   3.813   3.328  10.507  0.3974  1.2380 -0.9650
39398SOL    HW230174   3.750   3.209  10.437  2.1069  0.0196 -0.4853
39399SOL     OW30175   9.386   5.335   1.607 -0.4240 -0.3242  0.2058
39399SOL    HW130176   9.370   5.279   1.532 -0.0979  1.0490 -0.9197
39399SOL    HW230177   9.397   5.274   1.680  1.1543 -1.8184 -1.1753
39400SOL     OW30178   3.726   3.899   0.490  0.7037 -0.9773 -0.4957
39400SOL    HW130179   3.814   3.931   0.510 -0.2621  0.4027  1.9082
39400SOL    HW230180   3.676   3.978   0.468 -0.5716 -1.3560  0.8716
39401SOL     OW30181   6.266   3.963   0.632  0.0377 -0.2818 -0.6664
39401SOL    HW130182   6.245   3.881   0.677  0.7630 -0.4377 -0.5912
39401SOL    HW230183   6.360   3.975   0.648  1.1308 -1.9337 -4.5989
39402SOL     OW30184   5.065  10.386   8.804  0.7438 -0.4894 -0.0257
39402SOL    HW130185   4.991  10.350   8.754  1.9322 -0.4190 -1.9408
39402SOL    HW230186   5.093  10.463   8.753  1.1591  0.4130  1.5117
39403SOL     OW30187   4.252   3.819   4.569  0.5408 -0.1389 -0.0535
39403SOL    HW130188   4.213   3.733   4.554  0.1132  0.0512 -0.0535
39403SOL    HW230189   4.183   3.881   4.545  0.9671  0.2086 -0.3797
39404SOL     OW30190   6.815   1.875  10.741 -0.2311  0.7441 -0.4814
39404SOL    HW130191   6.886   1.929  10.776 -0.6373  0.7296  0.3842
39404SOL    HW230192   6.855   1.789  10.725 -0.6237 -0.1192  2.5902
39405SOL     OW30193   7.525   9.635  10.954  0.1638 -0.3524  0.2921
39405SOL    HW130194   7.494   9.686  11.028 -0.5885 -0.6518  0.1975
39405SOL    HW230195   7.446   9.618  10.902  0.7763  0.4620 -0.9637
39406SOL     OW30196   3.664  12.958  11.282  0.2371 -0.2810  0.4729
39406SOL    HW130197   3.753  12.928  11.264  0.4536  0.9424 -0.6430
39406SOL    HW230198   3.646  12.928  11.371  2.4696  1.0445  1.4615
39407SOL     OW30199   9.720   4.187   6.115  0.2529  0.2382  0.0278
39407SOL    HW130200   9.746   4.096   6.130 -0.5166  0.1169  0.7060
39407SOL    HW230201   9.773   4.216   6.041  1.6581 -0.2685  0.8049
39408SOL     OW30202  13.997   3.504   3.530  0.0503 -0.0544 -0.1761
39408SOL    HW130203  13.998   3.483   3.624  2.5230  3.2480  0.7522
39408SOL    HW230204  14.052   3.437   3.490  1.1492 -0.0491  1.2385
39409SOL     OW30205  13.192  13.608   9.274  0.5360  1.1906 -0.4460
39409SOL    HW130206  13.260  13.635   9.212  0.6491  1.9690  0.0126
39409SOL    HW230207  13.239  13.561   9.343  0.3037 -0.6101 -1.4223
39410SOL     OW30208   0.304  11.821   5.264 -0.0460  0.8191 -0.0258
39410SOL    HW130209   0.374  11.775   5.218  0.3600 -0.9654  2.1585
39410SOL    HW230210   0.345  11.850   5.346 -1.8464 -0.4266  1.3804
39411SOL     OW30211  13.607   7.992   5.894 -0.4218  0.1885  0.0273
39411SOL    HW130212  13.646   8.079   5.904 -0.6117  0.1920  0.7501
39411SOL    HW230213  13.658   7.952   5.823  0.2194  0.5741  0.2548
39412SOL     OW30214   3.021  13.822  12.507 -0.1397  0.2884 -0.2285
39412SOL    HW130215   3.043  13.731  12.526 -0.2154  0.3881  0.3323
39412SOL    HW230216   3.063  13.873  12.576 -1.0743  0.5803  0.1399
39413SOL     OW30217   9.953   9.254  10.515 -0.0556  0.1852  0.0847
39413SOL    HW130218   9.944   9.326  10.578 -3.2559 -1.2358  1.4806
39413SOL    HW230219  10.034   9.210  10.541 -1.5533 -0.7570  3.8867
39414SOL     OW30220   2.555  10.902   9.851  0.3238  0.0697 -0.6314
39414SOL    HW130221   2.597  10.945   9.925 -0.3751  1.8005 -1.1830
39414SOL    HW230222   2.469  10.875   9.883  1.1766 -2.0517  0.0432
39415SOL     OW30223   9.251   8.614   8.040 -0.4504 -0.2406  0.1866
39415SOL    HW130224   9.241   8.537   8.095  1.2689  0.2044  1.1739
39415SOL    HW230225   9.262   8.579   7.951 -2.2524 -0.9904  0.2039
39416SOL     OW30226   5.065  10.575   7.466  0.0432 -0.0745  0.0903
39416SOL    HW130227   5.033  10.503   7.412 -1.4158  0.9654 -0.4954
39416SOL    HW230228   5.120  10.533   7.532  0.0693 -1.6032 -0.8546
39417SOL     OW30229   4.279   3.585   1.501 -0.3621  0.0159 -0.1203
39417SOL    HW130230   4.351   3.523   1.512 -0.4824 -0.5422 -2.1425
39417SOL    HW230231   4.237   3.560   1.419 -0.8373  2.3706 -0.6726
39418SOL     OW30232   0.236   6.828  10.611  0.0454  0.0415 -0.2748
39418SOL    HW130233   0.262   6.912  10.648  1.1839  0.0783 -1.1102
39418SOL    HW230234   0.156   6.848  10.562 -0.4867  0.3341  0.6907
39419SOL     OW30235  13.550   6.866   8.769  0.8141  0.3366  0.0081
39419SOL    HW130236  13.487   6.812   8.722  0.4008  0.3687  0.5239
39419SOL    HW230237  13.585   6.809   8.838  3.0135 -0.4167 -1.6180
39420SOL     OW30238   3.626  10.877   5.982 -0.2123 -0.4741  0.0947
39420SOL    HW130239   3.546  10.831   5.959 -0.4711  0.5167 -1.1515
39420SOL    HW230240   3.605  10.970   5.967  0.5144 -0.0075  1.7810
39421SOL     OW30241   5.297   4.575  10.474 -0.3130  0.3490  0.1852
39421SOL    HW130242   5.252   4.660  10.478 -0.2469  0.3572  0.7574
39421SOL    HW230243   5.226   4.511  10.482 -0.5433  0.3034 -1.6488
39422SOL     OW30244   0.464   9.245   3.640 -0.0310 -0.2498  0.1360
39422SOL    HW130245   0.451   9.328   3.685  0.4867 -0.7281  1.2306
39422SOL    HW230246   0.458   9.179   3.710  0.6523 -1.0373 -0.5174
39423SOL     OW30247  10.317   8.072  13.969  0.3566 -0.2589 -0.5013
39423SOL    HW130248  10.350   8.048  13.883  0.8109 -1.1084 -0.1054
39423SOL    HW230249  10.323   7.991  14.020 -2.7507 -0.5937 -0.5151
39424SOL     OW30250   8.635   0.185   7.517  0.0612 -0.4564 -0.1987
39424SOL    HW130251   8.725   0.155   7.509 -0.5182 -1.7083 -3.5411
39424SOL    HW230252   8.603   0.145   7.598  2.3953 -0.0369  1.0269
39425SOL     OW30253   7.556   6.047  11.965 -0.7284  0.3773  0.1997
39425SOL    HW130254   7.548   5.968  11.911 -1.9088 -0.0691  0.9791
39425SOL    HW230255   7.600   6.111  11.909  0.1087 -0.7818 -0.4973
39426SOL     OW30256  10.668   0.193   5.479 -0.0926  0.2479  0.0350
39426SOL    HW130257  10.693   0.169   5.390  1.3074  1.3577  0.0805
39426SOL    HW230258  10.748   0.182   5.530 -1.0181 -0.9119  1.3016
39427SOL     OW30259   4.078   4.950   2.637  0.7372 -0.0261  0.0821
39427SOL    HW130260   4.062   4.862   2.602  1.0813  0.3951 -1.1483
39427SOL    HW230261   4.076   4.937   2.732  2.4149 -1.6803 -0.0391
39428SOL     OW30262   3.031  13.394  11.269 -0.0810  0.5074  0.4579
39428SOL    HW130263   2.964  13.422  11.206  0.9364  3.5907  0.6138
39428SOL    HW230264   3.002  13.431  11.352  1.1045  0.7165  0.7959
39429SOL     OW30265   4.457   2.606   7.463 -0.0442 -0.3961  0.4673
39429SOL    HW130266   4.497   2.692   7.449 -1.2589 -0.0555 -1.2012
39429SOL    HW230267   4.427   2.579   7.376  1.4145 -3.1116  0.7095
39430SOL     OW30268   2.255   1.821   1.696 -0.1399  0.4485 -1.0116
39430SOL    HW130269   2.343   1.831   1.661 -0.3176  0.3018 -1.5115
39430SOL    HW230270   2.268   1.793   1.787  0.3356 -0.5462 -1.3654
39431SOL     OW30271   3.512  11.672  10.766 -0.2652  0.0731  0.1853
39431SOL    HW130272   3.563  11.720  10.701 -0.7840 -0.1577 -0.3956
39431SOL    HW230273   3.573  11.606  10.799 -0.7385 -1.5337 -1.9520
39432SOL     OW30274   6.280   9.834  11.471 -0.2474 -0.1339 -0.1987
39432SOL    HW130275   6.279   9.765  11.537  0.0232 -0.5294 -0.6030
39432SOL    HW230276   6.330   9.905  11.511 -0.7699 -0.0545  0.3294
39433SOL     OW30277   2.191   5.445  10.981  0.1711  0.3125  0.1532
39433SOL    HW130278   2.145   5.362  10.973  1.9796 -0.9195  1.7619
39433SOL    HW230279   2.153   5.487  11.058 -0.2488  0.6567 -0.2374
39434SOL     OW30280   9.282   1.730   2.943 -0.5589  0.1394 -0.3882
39434SOL    HW130281   9.252   1.723   2.852  1.5160 -0.8458 -1.0645
39434SOL    HW230282   9.357   1.670   2.947  1.6282  2.7827  1.0137
39435SOL     OW30283   3.866   7.892  11.675 -0.0268 -0.0859  0.0110
39435SOL    HW130284   3.902   7.946  11.605  0.3810  0.6480  0.7617
39435SOL    HW230285   3.925   7.907  11.749  0.0224 -1.4736  0.2783
39436SOL     OW30286   5.290   8.701   6.768  0.0329  0.7820  0.0537
39436SOL    HW130287   5.312   8.736   6.681 -1.7344 -1.5560 -1.4594
39436SOL    HW230288   5.352   8.630   6.782 -1.5994 -0.9350 -0.8545
39437SOL     OW30289   6.228   1.490   6.272 -0.3291 -0.7108  0.7811
39437SOL    HW130290   6.255   1.582   6.276  0.3893 -0.8092 -0.8729
39437SOL    HW230291   6.174   1.484   6.194  0.0879 -1.7943  0.5550
39438SOL     OW30292  10.296   7.655  11.336  0.0979  0.1951  0.0905
39438SOL    HW130293  10.331   7.610  11.259  0.8063  0.1266  0.4480
39438SOL    HW230294  10.343   7.617  11.410 -0.1921  0.6400  0.5096
39439SOL     OW30295  13.895   7.540   1.542 -0.0272 -0.4544 -0.1317
39439SOL    HW130296  13.894   7.635   1.552  0.6944 -0.3175 -1.2000
39439SOL    HW230297  13.907   7.526   1.448  0.0282 -1.5990  0.0317
39440SOL     OW30298   2.504   3.014   9.240  0.6437 -0.2833  0.4327
39440SOL    HW130299   2.422   2.997   9.285  1.1078 -0.9955  1.0352
39440SOL    HW230300   2.568   2.956   9.283  1.0611 -1.1887 -1.2903
39441SOL     OW30301   3.412   6.816   8.080 -0.0281 -0.3785 -0.3592
39441SOL    HW130302   3.450   6.899   8.051  2.6784 -1.4028 -0.0841
39441SOL    HW230303   3.372   6.780   8.001 -0.7133  0.8920 -0.6219
39442SOL     OW30304   5.506   1.735   6.310 -0.4280 -0.3438  0.1066
39442SOL    HW130305   5.522   1.802   6.244 -2.4171 -0.9716 -1.0931
39442SOL    HW230306   5.478   1.784   6.388  0.4517  0.3041  0.0406
39443SOL     OW30307   1.127  13.361   9.931 -0.0045  0.0711 -0.2548
39443SOL    HW130308   1.207  13.318   9.903  0.7105  0.9731  0.3476
39443SOL    HW230309   1.057  13.304   9.899  0.8501 -0.4792 -1.2200
39444SOL     OW30310   2.637   1.207   0.676  0.2042  0.3169  0.2894
39444SOL    HW130311   2.623   1.170   0.763  1.1372 -0.7955 -0.0110
39444SOL    HW230312   2.571   1.164   0.621  0.8279 -0.3841  0.0815
39445SOL     OW30313   2.055  14.029  12.799  0.1935  0.0306 -0.2559
39445SOL    HW130314   2.146  14.058  12.807 -0.0132  0.4570  0.7349
39445SOL    HW230315   2.055  13.943  12.841 -0.0082  0.3801  0.4862
39446SOL     OW30316   8.805  13.660   4.642 -0.7097 -0.4711 -0.1635
39446SOL    HW130317   8.883  13.675   4.589 -0.9050  0.1812 -0.2758
39446SOL    HW230318   8.837  13.617   4.721 -0.1653  0.2352  0.0089
39447SOL     OW30319   6.480   6.630   1.204  0.3163  0.2927 -0.0155
39447SOL    HW130320   6.474   6.567   1.276 -1.3277  2.8650  2.2932
39447SOL    HW230321   6.439   6.709   1.238 -0.3731  1.7457 -3.7798
39448SOL     OW30322  10.980  12.790   1.414 -0.2856 -0.0085 -0.5548
39448SOL    HW130323  10.965  12.721   1.350 -1.0475 -0.5073  0.1459
39448SOL    HW230324  11.057  12.762   1.463 -0.2987 -0.1181 -0.5970
39449SOL     OW30325  11.584   0.163   4.721 -0.0065  0.0692 -0.0837
39449SOL    HW130326  11.609   0.093   4.781 -0.0010  2.1368  2.5271
39449SOL    HW230327  11.490   0.153   4.710  0.1217 -0.8291 -0.4584
39450SOL     OW30328   9.698   0.102   7.520  0.3958 -0.5054 -0.1369
39450SOL    HW130329   9.675   0.025   7.573  0.8777 -0.4633  0.1352
39450SOL    HW230330   9.701   0.070   7.430  0.8761 -0.8659  0.0083
39451SOL     OW30331   3.658  12.528   2.406 -0.3869 -0.0648 -0.3020
39451SOL    HW130332   3.739  12.492   2.370 -0.5643 -3.6964  2.4019
39451SOL    HW230333   3.685  12.573   2.486 -0.9177 -0.0590 -0.1242
39452SOL     OW30334   1.649   5.063   8.000  0.2141 -0.6206  0.3198
39452SOL    HW130335   1.673   5.044   7.910 -1.3336  0.2085 -0.3010
39452SOL    HW230336   1.716   5.125   8.030  0.6576 -0.7987 -0.2850
39453SOL     OW30337   2.208  10.433   1.252 -0.0127  0.5192 -0.3219
39453SOL    HW130338   2.221  10.505   1.314 -0.0150  0.7271 -0.5612
39453SOL    HW230339   2.217  10.354   1.305  0.3815  0.6881 -0.1276
39454SOL     OW30340   8.074   8.344  13.113  0.4462 -0.2256  0.7084
39454SOL    HW130341   8.167   8.363  13.129  0.2744  0.3591  1.0496
39454SOL    HW230342   8.028   8.411  13.164 -0.1528  0.3665 -0.5829
39455SOL     OW30343   7.608   3.522   0.412 -0.4344  0.5175 -0.1453
39455SOL    HW130344   7.627   3.453   0.349 -0.2693  0.6946 -0.2879
39455SOL    HW230345   7.606   3.602   0.360 -0.0200  0.7005  0.1183
39456SOL     OW30346  13.411   8.114   2.726  0.8536  0.2419  0.3861
39456SOL    HW130347  13.479   8.086   2.787  1.6728  0.3734 -0.4529
39456SOL    HW230348  13.419   8.209   2.724  0.5298  0.2704  0.4065
39457SOL     OW30349  13.499   4.387  12.023  0.1002 -0.0440 -0.1287
39457SOL    HW130350  13.443   4.465  12.021 -0.2365 -0.2938 -1.5665
39457SOL    HW230351  13.452   4.323  11.969  0.9645 -0.8402  0.0461
39458SOL     OW30352   5.128   8.487   4.710  0.1593 -0.8690 -0.1193
39458SOL    HW130353   5.115   8.395   4.686 -0.5438 -0.7794 -0.0934
39458SOL    HW230354   5.129   8.487   4.805 -0.2443 -0.8030 -0.1117
39459SOL     OW30355   8.819   1.223   5.703 -0.4445 -0.3769 -0.2625
39459SOL    HW130356   8.833   1.310   5.666 -0.8284 -0.6694 -1.1119
39459SOL    HW230357   8.900   1.205   5.752  0.3350 -0.2176 -1.4523
39460SOL     OW30358  13.120  10.807   5.421  0.5059  0.5484 -0.1388
39460SOL    HW130359  13.052  10.872   5.437  0.7912  0.8549 -0.1513
39460SOL    HW230360  13.073  10.724   5.412  0.2445  0.5310  1.2048
39461SOL     OW30361  11.962   2.271   5.773 -0.0833  0.4422 -0.3320
39461SOL    HW130362  12.019   2.270   5.697  1.1816  1.3715  0.5530
39461SOL    HW230363  11.895   2.335   5.752 -0.2748  0.0265 -1.0132
39462SOL     OW30364   6.063   0.921   1.566  0.0526 -0.2171  0.1769
39462SOL    HW130365   6.014   0.858   1.514  1.8603 -1.1395 -0.4993
39462SOL    HW230366   6.095   0.985   1.503  0.4220 -0.1214  0.4548
39463SOL     OW30367  10.932  11.642   6.863 -0.2281  0.2146 -0.6320
39463SOL    HW130368  10.965  11.556   6.839  0.6327  0.5087 -0.5808
39463SOL    HW230369  11.001  11.702   6.834  0.5400  0.6572  1.7883
39464SOL     OW30370  10.988   7.208   8.948 -0.0605  0.4028 -0.2369
39464SOL    HW130371  10.939   7.288   8.930 -1.5082 -0.3429  0.2700
39464SOL    HW230372  11.030   7.225   9.033  4.0810  2.6342 -2.3988
39465SOL     OW30373   5.732   0.157  11.761  0.3048 -0.8079 -0.3143
39465SOL    HW130374   5.734   0.061  11.762  0.1454 -0.8216 -0.9406
39465SOL    HW230375   5.809   0.182  11.710 -0.5122 -0.6510 -1.5127
39466SOL     OW30376   8.254  12.914   4.075 -0.3456 -0.1212  0.1279
39466SOL    HW130377   8.304  12.978   4.023  0.7973  0.4365  1.8245
39466SOL    HW230378   8.292  12.829   4.051 -0.1257  0.0850 -0.2622
39467SOL     OW30379  12.793  10.734  13.555 -0.3481 -0.0473  0.1361
39467SOL    HW130380  12.854  10.709  13.486 -0.2223  0.2941  0.1187
39467SOL    HW230381  12.841  10.719  13.637  0.6314  2.3321  0.0829
39468SOL     OW30382   2.514   9.985   8.020  0.0720 -0.4225 -0.0438
39468SOL    HW130383   2.500   9.987   7.926 -0.6436 -0.9326  0.0505
39468SOL    HW230384   2.439  10.032   8.057  0.2993 -0.3059  0.2832
39469SOL     OW30385   1.530   7.673   7.471  0.0278  0.0117  0.4051
39469SOL    HW130386   1.550   7.590   7.429  0.1580 -0.3206  1.1078
39469SOL    HW230387   1.529   7.737   7.400  1.0658 -0.3994  0.0128
39470SOL     OW30388   3.648   6.944   0.061 -0.0828 -0.2727 -0.1278
39470SOL    HW130389   3.589   6.869   0.074  0.6902 -0.9517 -0.4149
39470SOL    HW230390   3.680   6.965   0.149 -0.2412 -0.3357 -0.0553
39471SOL     OW30391   8.962   1.222  12.238  0.0090  0.0381  0.2799
39471SOL    HW130392   9.010   1.213  12.156 -0.9051 -1.4553 -0.1172
39471SOL    HW230393   8.890   1.282  12.217 -0.1478 -0.2375  0.0209
39472SOL     OW30394   4.022   8.791   8.688 -0.5501  0.4354 -0.3375
39472SOL    HW130395   4.073   8.718   8.724  0.4745  0.5332 -1.5472
39472SOL    HW230396   4.023   8.857   8.757 -0.3025 -0.1346  0.2189
39473SOL     OW30397   1.876  12.851   7.760  0.1998 -0.1898 -0.0737
39473SOL    HW130398   1.957  12.854   7.811 -0.0344  1.5857  0.2639
39473SOL    HW230399   1.856  12.758   7.751  0.5414 -0.6069  2.6690
39474SOL     OW30400  12.638   1.737   9.331  0.7853 -0.3007  0.6170
39474SOL    HW130401  12.637   1.694   9.416  2.3209  0.1497  0.9013
39474SOL    HW230402  12.638   1.831   9.351 -1.5373 -0.1299  0.0352
39475SOL     OW30403   0.065   6.508   8.234  0.3386 -0.2828  0.5941
39475SOL    HW130404   0.033   6.527   8.146 -2.6811 -1.6726  1.2566
39475SOL    HW230405   0.044   6.586   8.285  2.5435  0.7255  0.0653
39476SOL     OW30406   7.889  11.702   8.584  0.3482  0.3668  0.7846
39476SOL    HW130407   7.949  11.650   8.638  0.5149 -0.6277 -0.3165
39476SOL    HW230408   7.815  11.720   8.642  1.0212  0.2991  1.6910
39477SOL     OW30409   4.157   6.110   2.656 -0.2246  0.2182 -0.1260
39477SOL    HW130410   4.231   6.165   2.679  0.0011 -0.6273  1.3089
39477SOL    HW230411   4.158   6.040   2.722 -1.6696 -0.3860 -0.7031
39478SOL     OW30412  10.026   6.159   8.858 -0.3593 -0.2552  0.4974
39478SOL    HW130413  10.041   6.081   8.803  0.1203  0.0200  0.2286
39478SOL    HW230414   9.954   6.134   8.916 -1.0294 -0.4804 -0.4076
39479SOL     OW30415   7.994   2.248  11.041  0.2681  0.1251 -0.4805
39479SOL    HW130416   8.075   2.266  10.993  0.3361 -0.5777 -0.6474
39479SOL    HW230417   8.004   2.157  11.070 -1.6464 -0.9881 -2.9656
39480SOL     OW30418  13.173   4.902   5.112  0.2660 -0.4125 -0.0378
39480SOL    HW130419  13.084   4.916   5.080  0.4275  0.1459 -0.2643
39480SOL    HW230420  13.164   4.901   5.208  0.3486  2.4993  0.1045
39481SOL     OW30421   7.104   4.941   1.943  0.0846  0.5688  0.5980
39481SOL    HW130422   7.101   4.933   1.847 -0.6302  1.0950  0.5674
39481SOL    HW230423   7.143   4.859   1.972  1.2224  0.7938 -0.1959
39482SOL     OW30424   3.860   3.160   9.764  0.0859  0.5046  0.5270
39482SOL    HW130425   3.769   3.184   9.743 -0.2486  1.0898  2.4435
39482SOL    HW230426   3.878   3.085   9.707 -1.7345  0.1371  0.3530
39483SOL     OW30427  12.500  11.632   0.823  0.2228 -0.8612  0.2949
39483SOL    HW130428  12.527  11.719   0.792 -1.0275 -0.8261 -0.7534
39483SOL    HW230429  12.407  11.640   0.840  0.3919 -1.5889  1.7342
39484SOL     OW30430   0.168   9.949   3.965 -0.6506 -0.1079 -0.1985
39484SOL    HW130431   0.192   9.999   3.887  0.7093 -0.2053  0.1340
39484SOL    HW230432   0.113  10.009   4.015  0.2199  0.7501 -0.2263
39485SOL     OW30433   2.712   4.337   1.001 -0.2584  0.2657 -0.4549
39485SOL    HW130434   2.717   4.243   0.984  2.5931  0.5351 -1.5766
39485SOL    HW230435   2.648   4.345   1.072 -1.0997 -2.4156 -0.7930
39486SOL     OW30436   9.864   7.296   1.670 -0.6308 -0.1527  0.0898
39486SOL    HW130437   9.935   7.232   1.674 -2.0993 -1.7499  1.7904
39486SOL    HW230438   9.887   7.361   1.737  0.5127  0.8428 -1.1856
39487SOL     OW30439  12.698   0.999   8.684 -0.3390  0.1434  0.3745
39487SOL    HW130440  12.770   1.062   8.693 -0.7925  0.9287 -1.0672
39487SOL    HW230441  12.718   0.930   8.747  1.0249  0.9528  0.8705
39488SOL     OW30442  13.100   2.141   8.924  0.1847 -0.4615  0.0044
39488SOL    HW130443  13.184   2.162   8.882 -0.1213  2.6080  0.6586
39488SOL    HW230444  13.062   2.073   8.868  1.5861  0.5481 -2.3677
39489SOL     OW30445   2.254   6.182   7.477  0.1560 -0.1517 -0.1791
39489SOL    HW130446   2.310   6.198   7.553 -2.0376  0.3378  1.4593
39489SOL    HW230447   2.309   6.201   7.401  1.9967  0.8898  1.3414
39490SOL     OW30448   7.394   0.676   1.886 -0.5239 -0.1767  0.0501
39490SOL    HW130449   7.349   0.727   1.819  0.3713 -1.2344 -1.4063
39490SOL    HW230450   7.487   0.683   1.863  0.1234  1.5545  2.6783
39491SOL     OW30451  12.730   3.485   3.297 -0.1366  0.2348  0.7401
39491SOL    HW130452  12.678   3.452   3.223  0.3714  0.2898  0.3523
39491SOL    HW230453  12.817   3.501   3.260 -0.0910  1.0311  1.1602
39492SOL     OW30454   8.744   4.289   6.569  0.0523 -0.5722  0.3956
39492SOL    HW130455   8.671   4.228   6.574 -0.4712  0.0172  0.0174
39492SOL    HW230456   8.712   4.369   6.610  0.9436 -0.7297  1.4730
39493SOL     OW30457   7.174   5.705   4.312  0.2376  0.0680 -0.0222
39493SOL    HW130458   7.171   5.678   4.220 -0.6035  1.2171 -0.3546
39493SOL    HW230459   7.259   5.674   4.344  0.2322 -0.9865 -0.9707
39494SOL     OW30460  12.117  11.936   5.936 -0.4766  0.7466  0.1445
39494SOL    HW130461  12.142  11.883   5.861  0.2562  1.2956 -0.0106
39494SOL    HW230462  12.024  11.955   5.922  0.2121  3.0334 -2.0357
39495SOL     OW30463  10.293   2.463  10.650 -0.0674 -0.1411 -0.4253
39495SOL    HW130464  10.316   2.554  10.632 -1.0866  0.2347  0.0867
39495SOL    HW230465  10.373   2.424  10.685  0.0409  0.8943  0.5285
39496SOL     OW30466  10.296  12.942   6.499  0.6711  0.2256 -0.0493
39496SOL    HW130467  10.254  12.864   6.461 -0.8225  0.3967  1.1341
39496SOL    HW230468  10.252  13.016   6.457  0.0422  0.4103  0.9042
39497SOL     OW30469  11.453   3.310  11.727 -0.2115  0.1391  0.1359
39497SOL    HW130470  11.501   3.262  11.660 -0.2517  0.8999 -0.4587
39497SOL    HW230471  11.448   3.250  11.802  1.5660  0.0144  0.1771
39498SOL     OW30472   5.162  12.727   5.199 -0.1181  0.0996 -0.2845
39498SOL    HW130473   5.162  12.779   5.280  0.2726 -0.2216 -0.0731
39498SOL    HW230474   5.086  12.670   5.208 -0.5822  0.6748 -0.5446
39499SOL     OW30475   1.621  14.018   6.070 -0.5564 -0.2470 -0.6552
39499SOL    HW130476   1.685  14.072   6.115 -0.3731 -1.2232  0.3053
39499SOL    HW230477   1.573  14.078   6.014  0.2181  0.7447 -0.2745
39500SOL     OW30478   9.392   2.990   7.972 -0.1185 -0.4512 -0.4052
39500SOL    HW130479   9.344   3.005   7.891  0.4992 -0.5808 -0.7994
39500SOL    HW230480   9.333   2.935   8.024 -1.0354  0.6461 -0.2500
39501SOL     OW30481  13.705   6.067   1.717 -0.1812 -0.5664  0.2319
39501SOL    HW130482  13.768   6.093   1.650 -0.8623  0.7338  0.0713
39501SOL    HW230483  13.717   6.130   1.788 -1.4801 -0.1364  0.0841
39502SOL     OW30484   0.736   3.700  13.887  0.0669  0.4002 -0.0011
39502SOL    HW130485   0.774   3.612  13.893 -1.0024 -0.0368  0.5612
39502SOL    HW230486   0.681   3.708  13.964 -3.4151 -0.2037 -2.1874
39503SOL     OW30487   3.964   7.247   5.522  0.2801  0.0209  0.1542
39503SOL    HW130488   3.922   7.185   5.582  0.5157  0.7358  1.0939
39503SOL    HW230489   4.054   7.254   5.554 -0.1204  1.9386  1.0012
39504SOL     OW30490   0.637   5.182   9.162  0.2467 -0.2275  0.1856
39504SOL    HW130491   0.663   5.225   9.244 -0.4647 -1.2139  0.9539
39504SOL    HW230492   0.541   5.192   9.160  0.2328 -0.4572 -0.3882
39505SOL     OW30493   9.531   1.922  13.152  0.0619  0.1434  0.8359
39505SOL    HW130494   9.607   1.892  13.202 -0.1609 -1.1660  0.4166
39505SOL    HW230495   9.565   1.997  13.101  1.3808 -1.0449 -0.1256
39506SOL     OW30496   5.315   1.532  10.367 -0.4531  0.2445 -0.6320
39506SOL    HW130497   5.357   1.617  10.350  0.2053  0.2963  0.9916
39506SOL    HW230498   5.370   1.468  10.323  1.4359  0.3144  1.4230
39507SOL     OW30499  10.028   3.652   6.084  0.9680  1.0448  0.0417
39507SOL    HW130500  10.115   3.640   6.045  1.0463  0.2185  0.4397
39507SOL    HW230501  10.046   3.669   6.176  0.6970  0.5007  0.1981
39508SOL     OW30502   1.613  12.675  10.186 -0.3200 -0.2515 -0.3157
39508SOL    HW130503   1.589  12.752  10.237 -3.6914 -1.2589 -0.1013
39508SOL    HW230504   1.708  12.671  10.191 -0.2207  2.2131  2.1238
39509SOL     OW30505   8.210   6.987  10.921  0.1073 -0.2600  0.0454
39509SOL    HW130506   8.189   6.898  10.949  0.3284 -1.1639 -2.4061
39509SOL    HW230507   8.304   6.995  10.938  0.0049 -0.3182  0.6748
39510SOL     OW30508   6.778  10.175   9.056  0.0561 -0.3047  0.1403
39510SOL    HW130509   6.828  10.175   8.974 -0.0542 -0.2732  0.0729
39510SOL    HW230510   6.744  10.264   9.063 -0.5080 -0.4959 -0.1297
39511SOL     OW30511  11.812   5.094   0.139  0.1506 -0.4173 -0.1381
39511SOL    HW130512  11.719   5.086   0.115  0.5189 -0.7065 -1.6012
39511SOL    HW230513  11.857   5.102   0.055  1.4343  0.0400  0.5664
39512SOL     OW30514  11.700   8.035   1.722  0.0380  0.0742 -0.3721
39512SOL    HW130515  11.705   8.094   1.797  1.0328 -1.3663  0.7407
39512SOL    HW230516  11.760   8.074   1.657  1.4425 -0.1962  0.7199
39513SOL     OW30517   0.076   6.070   0.123  0.1249  0.1267  0.0211
39513SOL    HW130518   0.158   6.054   0.076 -0.1564 -2.0993  0.1991
39513SOL    HW230519   0.029   6.133   0.068  0.4971 -1.1755 -1.8778
39514SOL     OW30520   7.193  12.505   8.015 -0.0383 -0.2979  0.5004
39514SOL    HW130521   7.239  12.428   7.981 -1.5804 -1.8570  1.7484
39514SOL    HW230522   7.178  12.485   8.108 -1.1359  1.1775  0.6801
39515SOL     OW30523   5.678  12.509   7.006  0.0161 -0.2958  0.0400
39515SOL    HW130524   5.615  12.456   6.957 -0.1558  0.0998 -0.1792
39515SOL    HW230525   5.636  12.595   7.013  1.3580  0.5971 -1.8767
39516SOL     OW30526   7.804   1.533  11.606  0.1578 -0.3681  0.1955
39516SOL    HW130527   7.775   1.444  11.625  0.5273 -0.8058 -1.1690
39516SOL    HW230528   7.802   1.539  11.510 -1.1271  1.5275  0.2847
39517SOL     OW30529   2.233  11.041  12.887  0.1530 -0.2500  0.2083
39517SOL    HW130530   2.169  11.065  12.954 -0.9895 -1.4437 -0.4132
39517SOL    HW230531   2.210  11.095  12.811  0.9067  0.4838  0.4982
39518SOL     OW30532   9.394  13.454   8.897  0.5024 -0.1537 -0.1363
39518SOL    HW130533   9.383  13.496   8.812  2.3285  1.0511  0.1838
39518SOL    HW230534   9.442  13.517   8.950  2.2104 -2.1131  0.7927
39519SOL     OW30535  12.860   4.728   0.497 -0.5512  0.5581 -0.2358
39519SOL    HW130536  12.876   4.795   0.431  0.1583  0.7406  0.1059
39519SOL    HW230537  12.871   4.645   0.450  0.0189  0.6852 -0.3323
39520SOL     OW30538   7.695   8.513   5.535 -0.4429  0.6313 -0.1306
39520SOL    HW130539   7.685   8.510   5.630  1.4027  1.7584  0.1590
39520SOL    HW230540   7.779   8.471   5.518 -0.5525  0.8065 -1.2290
39521SOL     OW30541   3.977   7.871   0.071  0.5427 -0.0779  0.1689
39521SOL    HW130542   3.912   7.875   0.141  0.3655  1.2260 -0.0403
39521SOL    HW230543   3.926   7.885  -0.009  0.8104 -1.0601 -0.1917
39522SOL     OW30544   7.761  10.637   4.402  0.5475 -0.6096  0.6485
39522SOL    HW130545   7.693  10.620   4.467  2.2687 -1.7485  2.2264
39522SOL    HW230546   7.808  10.714   4.436  0.3822 -0.1218 -0.1875
39523SOL     OW30547  12.410  10.839   6.598 -0.1490  0.2853 -0.1625
39523SOL    HW130548  12.368  10.754   6.586  0.1817  0.0389  0.4193
39523SOL    HW230549  12.398  10.860   6.690  1.2943  0.0500  0.1050
39524SOL     OW30550   7.037   8.644  12.735 -0.0060  0.0642 -0.1247
39524SOL    HW130551   7.012   8.661  12.826 -2.6546  0.8661 -0.9239
39524SOL    HW230552   6.976   8.577  12.705 -0.0621  0.7612 -1.6738
39525SOL     OW30553   5.130  13.897  10.199  0.0849  0.5581 -0.0701
39525SOL    HW130554   5.140  13.877  10.292  0.5276 -0.0469 -0.2417
39525SOL    HW230555   5.060  13.962  10.196  0.2424  0.7759  0.7056
39526SOL     OW30556   2.021   1.690  12.208  0.4466 -0.0921  0.2790
39526SOL    HW130557   2.100   1.681  12.154 -1.1446 -0.7610 -2.1233
39526SOL    HW230558   1.949   1.692  12.144 -1.5538 -0.3469  2.3986
39527SOL     OW30559   0.480  10.070   2.172 -0.1184  0.5116 -0.0547
39527SOL    HW130560   0.498  10.158   2.137  0.1279  0.1174 -0.9491
39527SOL    HW230561   0.441  10.086   2.258 -1.1194  1.5289 -0.6677
39528SOL     OW30562   9.802  12.206   6.103  0.1344  0.2214  0.2115
39528SOL    HW130563   9.818  12.120   6.065 -0.7113 -0.4503  1.2990
39528SOL    HW230564   9.709  12.203   6.128  0.4726  0.8813  1.6308
39529SOL     OW30565   0.105   4.935  11.284  0.0720  0.1672  0.3067
39529SOL    HW130566   0.053   4.940  11.204  0.2955 -0.9803  0.0754
39529SOL    HW230567   0.099   5.023  11.321 -1.6500  0.2080  0.0483
39530SOL     OW30568   2.704  14.024  10.435 -0.5399 -0.0347  0.3790
39530SOL    HW130569   2.698  13.935  10.402 -2.4688  0.6107 -1.2226
39530SOL    HW230570   2.666  14.078  10.366  0.7857  2.0745  1.1891
39531SOL     OW30571  13.074   1.049   7.653 -0.0349 -0.3866 -0.4065
39531SOL    HW130572  13.068   1.063   7.559  0.3865  0.5130 -0.3116
39531SOL    HW230573  13.162   1.078   7.676 -0.2221 -0.3499  0.3028
39532SOL     OW30574   5.408   6.132   2.994 -0.5317 -0.1303  0.0194
39532SOL    HW130575   5.504   6.136   2.998 -0.5689  0.5766  0.4607
39532SOL    HW230576   5.383   6.081   3.071 -0.5300  0.0704  0.1532
39533SOL     OW30577  11.671   0.606   3.838  0.2054 -0.5810 -0.4098
39533SOL    HW130578  11.672   0.684   3.894  1.2959 -0.3684 -0.6970
39533SOL    HW230579  11.744   0.553   3.869 -0.8724 -1.7911  0.1640
39534SOL     OW30580   3.158  12.785   4.516 -0.1599  0.0698 -1.0157
39534SOL    HW130581   3.065  12.809   4.525 -0.5021 -1.4110 -0.2413
39534SOL    HW230582   3.200  12.820   4.595 -0.2044  0.1230 -1.0159
39535SOL     OW30583  13.091  10.596   4.103 -0.7881  0.3036 -0.7152
39535SOL    HW130584  13.143  10.601   4.023  0.5084 -0.7218  0.0203
39535SOL    HW230585  13.135  10.530   4.156 -2.0052  0.4785  0.5793
39536SOL     OW30586   7.374  12.807  14.021  0.2084  0.3824  0.1769
39536SOL    HW130587   7.423  12.764  14.091  1.0006  1.2730  0.1938
39536SOL    HW230588   7.352  12.737  13.960 -0.1146 -0.3347  1.0997
39537SOL     OW30589   0.333   5.045   4.882 -0.1444  0.3551  0.0702
39537SOL    HW130590   0.288   4.978   4.934  0.1737  0.1651  0.1028
39537SOL    HW230591   0.264   5.107   4.858 -0.4876 -0.1070 -0.1549
39538SOL     OW30592   3.657   2.141  13.047  0.5311  0.1316  0.0716
39538SOL    HW130593   3.664   2.060  12.996 -0.3660 -0.5451  0.9818
39538SOL    HW230594   3.610   2.116  13.126  3.4696  0.7250  2.1776
39539SOL     OW30595  11.311   9.139   0.966 -0.0117 -0.0919 -0.1079
39539SOL    HW130596  11.394   9.140   0.918 -0.5888 -0.9270 -1.1673
39539SOL    HW230597  11.250   9.188   0.911 -0.9442 -1.9256 -0.7849
39540SOL     OW30598   4.232   0.664   9.340 -0.5656 -0.0839  0.0837
39540SOL    HW130599   4.183   0.587   9.311 -0.6313 -1.0793  2.5461
39540SOL    HW230600   4.169   0.736   9.332 -2.3147 -1.1909  2.3533
39541SOL     OW30601   7.273   2.544  12.241 -0.3035 -0.0894  0.0003
39541SOL    HW130602   7.216   2.469  12.224 -0.4422 -0.9488  3.4742
39541SOL    HW230603   7.353   2.505  12.278 -0.5638  1.4321  2.3194
39542SOL     OW30604  10.052   8.191   8.068  0.3552 -0.8742 -0.2075
39542SOL    HW130605  10.007   8.123   8.118  0.3940  0.7928  2.3110
39542SOL    HW230606  10.141   8.156   8.055 -0.1650 -2.0669 -0.6983
39543SOL     OW30607   4.371  11.454   3.373 -0.1137  0.0471 -0.0150
39543SOL    HW130608   4.425  11.379   3.397 -1.4683 -0.9901 -0.0795
39543SOL    HW230609   4.377  11.513   3.448  2.3913  0.7630 -0.6753
39544SOL     OW30610  13.689  10.218  11.121 -0.1488 -0.7744 -0.2213
39544SOL    HW130611  13.619  10.278  11.146  0.6230 -0.2629  0.8172
39544SOL    HW230612  13.699  10.159  11.195  1.8761  0.4771  0.6024
39545SOL     OW30613   3.187   6.871   0.385 -0.0055  0.0703  0.0398
39545SOL    HW130614   3.206   6.781   0.360 -1.2404 -0.2278  0.1217
39545SOL    HW230615   3.218   6.923   0.311 -0.3964 -0.5202 -0.5510
39546SOL     OW30616   6.613   9.497   0.961 -0.1928  0.0321 -0.3072
39546SOL    HW130617   6.611   9.522   0.869  0.5021  2.7402  0.2990
39546SOL    HW230618   6.524   9.511   0.992  0.1263  1.7401 -0.0421
39547SOL     OW30619   0.047   6.768   5.732 -0.1160  0.0666  0.4574
39547SOL    HW130620   0.023   6.725   5.650  1.7096 -0.0617 -0.0386
39547SOL    HW230621   0.037   6.700   5.798 -2.8793  0.5091  0.6372
39548SOL     OW30622   3.290   4.858   9.719 -0.2158  0.0130 -0.1766
39548SOL    HW130623   3.225   4.804   9.765 -0.8016 -0.2600 -1.2943
39548SOL    HW230624   3.268   4.848   9.626 -0.3548  2.1946 -0.4338
39549SOL     OW30625   2.342   6.892  10.778  0.3071  0.1648 -0.9613
39549SOL    HW130626   2.365   6.851  10.862  1.4211  0.1814 -1.2394
39549SOL    HW230627   2.372   6.983  10.787  1.1231 -0.0218 -1.6285
39550SOL     OW30628   8.290  13.278   0.302 -0.4255  0.2396  0.2725
39550SOL    HW130629   8.225  13.328   0.252 -0.9578  0.2573  0.9850
39550SOL    HW230630   8.314  13.205   0.244 -0.3037  0.8063 -0.4092
39551SOL     OW30631   0.768   4.421   9.231 -0.1482  0.2203  0.4252
39551SOL    HW130632   0.685   4.464   9.208 -1.0778 -0.5980  2.0444
39551SOL    HW230633   0.742   4.337   9.268  1.5637 -1.1577 -1.3025
39552SOL     OW30634   7.045   1.595   6.873  0.4788 -0.3870 -0.5604
39552SOL    HW130635   7.094   1.619   6.795  1.1465 -0.0639 -0.0560
39552SOL    HW230636   6.968   1.653   6.872  0.5127 -0.3472 -0.9409
39553SOL     OW30637  13.710   8.436  10.396  0.5481 -0.1446 -0.0121
39553SOL    HW130638  13.708   8.460  10.488  1.0242 -1.1989  0.2919
39553SOL    HW230639  13.654   8.501  10.353 -0.3963 -0.1637  1.1357
39554SOL     OW30640   2.912   4.821   2.041  0.4502 -0.2975  0.6117
39554SOL    HW130641   2.983   4.810   2.104  0.7200  3.7976  1.3452
39554SOL    HW230642   2.833   4.804   2.091  0.7735 -0.5680  1.0395
39555SOL     OW30643   0.833   4.807   4.125 -0.0043 -0.6393  0.1151
39555SOL    HW130644   0.748   4.843   4.152  0.7194  2.3659 -1.1624
39555SOL    HW230645   0.828   4.804   4.029  1.6791  0.6859 -0.0462
39556SOL     OW30646  10.570   2.538   4.240  0.2419  0.2853  0.5761
39556SOL    HW130647  10.610   2.480   4.175 -0.2076 -0.8836  1.3149
39556SOL    HW230648  10.476   2.517   4.236 -0.2108  2.2943 -0.4422
39557SOL     OW30649   3.991  12.560  13.154 -0.9314  0.2213  0.3929
39557SOL    HW130650   4.005  12.540  13.062  1.6712 -0.0738  0.7708
39557SOL    HW230651   3.924  12.498  13.182  0.0994 -1.5106 -0.7402
39558SOL     OW30652  11.854   4.691   5.980 -0.4064  0.1967  0.3976
39558SOL    HW130653  11.822   4.700   5.890  0.3009  0.3541  0.1574
39558SOL    HW230654  11.865   4.781   6.011  1.3413  0.1671 -0.0831
39559SOL     OW30655   4.416  10.781  10.406  0.2261  0.1299 -0.7405
39559SOL    HW130656   4.411  10.728  10.485 -3.0376 -0.6553 -1.3028
39559SOL    HW230657   4.413  10.717  10.334 -0.2850  0.9185 -1.4512
39560SOL     OW30658   4.623   2.905   3.625  0.2537  0.0051 -0.1997
39560SOL    HW130659   4.584   2.895   3.538  0.6502  1.5820 -0.6017
39560SOL    HW230660   4.579   2.840   3.679 -1.0758 -0.0067 -1.2387
39561SOL     OW30661   8.234   5.182   6.446 -0.4369  0.0482  0.1437
39561SOL    HW130662   8.140   5.191   6.432 -0.1071  0.5300 -2.0572
39561SOL    HW230663   8.257   5.097   6.406  0.0816 -0.0458  0.6216
39562SOL     OW30664   1.655   4.413   5.583  0.2312 -0.5143 -0.2919
39562SOL    HW130665   1.647   4.330   5.630 -1.5983  0.0070  0.3998
39562SOL    HW230666   1.712   4.466   5.638  0.7408 -1.0267 -0.3166
39563SOL     OW30667  11.438  10.542  11.612 -0.1722  0.4360  0.0817
39563SOL    HW130668  11.379  10.466  11.617 -1.1875  1.2469  2.3204
39563SOL    HW230669  11.488  10.538  11.694  0.2490  1.7673 -0.0889
39564SOL     OW30670   5.299  11.344   3.171 -0.6345 -0.1907 -0.1408
39564SOL    HW130671   5.348  11.294   3.237 -1.7584  0.4283  1.2056
39564SOL    HW230672   5.359  11.350   3.097  0.7931 -0.6449  0.9262
39565SOL     OW30673   5.492   6.141  12.480 -0.7213  0.0366 -0.2775
39565SOL    HW130674   5.572   6.116  12.526  0.1762  0.8445 -1.3846
39565SOL    HW230675   5.497   6.236  12.472 -1.7227  0.0792 -0.5061
39566SOL     OW30676   9.833  11.527  13.163 -0.1829  0.1009 -0.0879
39566SOL    HW130677   9.857  11.438  13.188  3.1598  1.1476  0.9587
39566SOL    HW230678   9.856  11.580  13.239  1.0415  2.2101 -1.8035
39567SOL     OW30679   0.941   1.263   8.231 -0.3852 -0.1423  0.3756
39567SOL    HW130680   0.931   1.354   8.204 -0.1972  0.0976  1.0945
39567SOL    HW230681   0.942   1.266   8.327  0.5016 -0.7991  0.4009
39568SOL     OW30682  13.249   0.728   7.968  0.1816  0.0697 -0.0429
39568SOL    HW130683  13.326   0.671   7.964  1.0275  1.0676  1.1527
39568SOL    HW230684  13.283   0.816   7.951 -0.5379  0.6363  1.2860
39569SOL     OW30685  12.888   5.502  11.706  0.1711  0.4222 -0.0700
39569SOL    HW130686  12.965   5.501  11.763 -0.0547  0.0389  0.2299
39569SOL    HW230687  12.923   5.485  11.619  0.1803 -2.2318  0.3815
39570SOL     OW30688   4.112   6.880  10.255  0.2278 -0.0898  0.0642
39570SOL    HW130689   4.073   6.862  10.169  0.2755  2.9312 -0.6944
39570SOL    HW230690   4.202   6.907  10.235 -0.0732  1.6664  0.9153
39571SOL     OW30691  11.211  10.143  10.795 -0.4047 -0.3848  0.1744
39571SOL    HW130692  11.134  10.085  10.802 -0.4726 -0.2079  0.9605
39571SOL    HW230693  11.235  10.162  10.885  1.0451 -1.0500 -0.0354
39572SOL     OW30694   9.556   3.964  12.082 -0.4199  0.5889  0.0714
39572SOL    HW130695   9.546   3.917  12.000 -0.3041 -0.0770  0.4331
39572SOL    HW230696   9.492   4.035  12.077 -0.1861  0.7504 -0.7276
39573SOL     OW30697   5.176   3.032   7.416  0.2658 -0.0044  0.2128
39573SOL    HW130698   5.141   2.955   7.371  2.0597 -0.6826 -0.0646
39573SOL    HW230699   5.200   3.092   7.345 -1.5620  1.0803  0.4298
39574SOL     OW30700   1.286  11.478   7.261  0.1005  0.5776 -0.2536
39574SOL    HW130701   1.232  11.413   7.306  2.0954  0.1881  1.7495
39574SOL    HW230702   1.250  11.562   7.289  0.1750  0.3278  0.6079
39575SOL     OW30703   0.119   0.538   9.648  0.1689 -0.3936  0.1717
39575SOL    HW130704   0.132   0.443   9.650 -0.5535 -0.4910  0.6666
39575SOL    HW230705   0.189   0.570   9.591  0.0700 -1.2767 -0.4782
39576SOL     OW30706  11.523   6.439   9.624  0.1659 -0.4255 -0.7575
39576SOL    HW130707  11.470   6.361   9.635  0.3690 -0.3012  1.5644
39576SOL    HW230708  11.467   6.511   9.655  0.8827 -0.0052 -0.4093
39577SOL     OW30709  13.913   0.202   2.910  0.3255 -0.1360  0.3386
39577SOL    HW130710  13.976   0.252   2.964  0.7135  0.1671 -0.3801
39577SOL    HW230711  13.829   0.218   2.952  0.7511 -0.8493  1.5494
39578SOL     OW30712   7.385   2.040  13.401 -0.2500 -0.2749 -0.1706
39578SOL    HW130713   7.443   2.001  13.335  2.2064  1.3779  0.8568
39578SOL    HW230714   7.438   2.045  13.480 -1.1435  2.9760  0.3596
39579SOL     OW30715  10.024   0.511   8.498  0.5757  0.2856  0.5277
39579SOL    HW130716  10.018   0.428   8.450  3.4541  0.2873  0.0162
39579SOL    HW230717  10.041   0.485   8.589 -1.4087  0.3342  0.9518
39580SOL     OW30718  10.152   5.130   2.012 -0.6080  0.8804  0.8631
39580SOL    HW130719  10.103   5.051   1.989  1.9527 -0.0085 -2.2286
39580SOL    HW230720  10.212   5.101   2.081 -0.9503  0.6225  1.0573
39581SOL     OW30721   1.275  13.800   8.223 -0.0494 -0.2244  0.0232
39581SOL    HW130722   1.319  13.743   8.286  0.5387 -1.7670 -1.6987
39581SOL    HW230723   1.188  13.763   8.212  0.0583 -0.3212 -0.5169
39582SOL     OW30724   6.028   6.014   2.548 -0.4634  0.4023 -0.6835
39582SOL    HW130725   5.963   5.959   2.592 -0.3673 -0.7570 -1.9078
39582SOL    HW230726   5.976   6.076   2.496 -0.5962  0.1062 -0.9068
39583SOL     OW30727  11.962   4.031   7.469  0.1759  0.1939  0.4044
39583SOL    HW130728  11.965   4.127   7.467  0.0231  0.1915 -0.1994
39583SOL    HW230729  12.040   4.004   7.420  0.2149  0.0124  0.5673
39584SOL     OW30730   0.890   2.867  10.636  0.1408 -0.1795  0.3647
39584SOL    HW130731   0.842   2.785  10.626  1.9253 -1.2894  0.5608
39584SOL    HW230732   0.886   2.909  10.550 -1.8226  0.1629  0.5842
39585SOL     OW30733   5.760   7.566   9.577 -0.0452 -0.3274  0.0684
39585SOL    HW130734   5.745   7.593   9.486  0.5668 -0.2727 -0.0183
39585SOL    HW230735   5.686   7.605   9.625  0.4590  0.9693 -0.1566
39586SOL     OW30736   5.447  11.588  12.949  0.2742 -0.3070  0.1141
39586SOL    HW130737   5.500  11.660  12.982  1.3587  0.0501 -2.2070
39586SOL    HW230738   5.388  11.629  12.885  0.7163 -1.4018 -1.0408
39587SOL     OW30739   0.929   9.192   0.787 -0.0875 -0.3103  0.1579
39587SOL    HW130740   0.863   9.123   0.800 -1.1348  0.4628 -0.8024
39587SOL    HW230741   0.917   9.218   0.695  1.8697 -0.4364 -0.1782
39588SOL     OW30742   6.165   1.640  10.688 -0.8854 -0.1085  0.0285
39588SOL    HW130743   6.110   1.713  10.657 -0.9268 -0.4027 -0.6109
39588SOL    HW230744   6.113   1.562  10.670 -0.7035 -0.3246  0.4148
39589SOL     OW30745   1.709  11.883   0.502  0.4635 -0.2116  0.1128
39589SOL    HW130746   1.784  11.840   0.543  0.6160  0.0736  0.1356
39589SOL    HW230747   1.652  11.907   0.575 -0.4004 -1.8001  0.0031
39590SOL     OW30748   1.258   8.657  11.074  0.0098  0.3990 -0.2412
39590SOL    HW130749   1.165   8.650  11.052 -0.5723 -0.2984  2.2270
39590SOL    HW230750   1.297   8.697  10.996 -1.8300 -1.8482 -2.4998
39591SOL     OW30751  12.018   9.793   0.668  0.2997  0.1293 -0.9585
39591SOL    HW130752  12.098   9.770   0.620  0.3720 -1.1949 -0.2657
39591SOL    HW230753  12.047   9.857   0.733  1.4437 -2.2855  1.0889
39592SOL     OW30754  13.069   6.259  13.250 -0.4394  0.3335  0.1352
39592SOL    HW130755  13.105   6.255  13.161  0.0137  0.2769  0.3171
39592SOL    HW230756  12.998   6.324  13.244  0.6099  1.5255  0.0715
39593SOL     OW30757  12.277   4.568   4.839  0.5088 -0.7105 -0.5021
39593SOL    HW130758  12.211   4.548   4.772  1.2455  1.5280 -2.0104
39593SOL    HW230759  12.252   4.654   4.872  1.3633 -0.8765  0.6486
39594SOL     OW30760   6.939   3.048   0.014  0.7115  0.0509  0.0290
39594SOL    HW130761   7.029   3.044  -0.018  0.8239  0.9492  0.2128
39594SOL    HW230762   6.908   2.957   0.008  1.1882 -0.0556 -1.2736
39595SOL     OW30763   4.947  14.009   8.257 -0.3475  0.1340  0.4239
39595SOL    HW130764   4.949  14.042   8.167  0.1772  1.7035  0.9619
39595SOL    HW230765   4.873  13.948   8.260 -1.0019  0.8364 -0.8201
39596SOL     OW30766  10.722  10.534   0.581 -0.4422  0.0075 -0.6169
39596SOL    HW130767  10.766  10.530   0.666 -1.3279 -1.9773 -0.2019
39596SOL    HW230768  10.688  10.624   0.576 -0.9942 -0.0302  1.4524
39597SOL     OW30769   4.988   9.114  12.253  0.5544  0.7564 -0.4581
39597SOL    HW130770   4.906   9.136  12.209  0.4104  0.5585 -0.2908
39597SOL    HW230771   5.051   9.102  12.181  0.5636  1.3902 -0.5669
39598SOL     OW30772   6.116   9.585   5.257 -0.5627  0.2654 -0.3425
39598SOL    HW130773   6.119   9.540   5.341 -1.9946  0.3213 -0.2418
39598SOL    HW230774   6.173   9.532   5.200 -1.1412 -0.8979  0.1313
39599SOL     OW30775   7.203   0.114   0.649  0.2157 -0.3020  0.2130
39599SOL    HW130776   7.191   0.050   0.719 -0.3280  0.1376  0.5322
39599SOL    HW230777   7.210   0.198   0.694 -1.2109  0.1156 -0.3094
39600SOL     OW30778  11.543  11.987   2.470 -0.4280  0.1156 -0.2211
39600SOL    HW130779  11.491  12.004   2.548 -0.2450  5.1638 -0.8480
39600SOL    HW230780  11.496  12.031   2.399  1.4201 -0.8177 -2.1525
39601SOL     OW30781   0.335   9.837   7.048 -0.1465  0.1428 -0.4253
39601SOL    HW130782   0.332   9.852   6.954  1.7194 -0.2157 -0.5721
39601SOL    HW230783   0.333   9.742   7.057 -0.5140  0.1801 -0.0875
39602SOL     OW30784   9.567   5.722   3.901  0.4459 -0.3945 -0.2911
39602SOL    HW130785   9.526   5.699   3.985 -0.6055  1.0100 -0.3713
39602SOL    HW230786   9.580   5.638   3.857 -0.5613 -1.0455  0.5862
39603SOL     OW30787  11.905   3.324   4.902 -0.2958 -0.7530  0.3310
39603SOL    HW130788  11.950   3.241   4.887  2.3658  0.7052 -0.3118
39603SOL    HW230789  11.917   3.341   4.995  0.7871 -0.2354  0.1088
39604SOL     OW30790  13.670  11.515   9.421 -0.0345  0.5113 -0.0348
39604SOL    HW130791  13.667  11.443   9.358 -0.5273 -0.1921  0.7795
39604SOL    HW230792  13.669  11.594   9.367 -1.1316 -0.0651 -0.8941
39605SOL     OW30793   0.791  13.969   3.581  0.5946  0.4517 -0.2093
39605SOL    HW130794   0.831  14.056   3.573  1.1433  0.3568  1.1518
39605SOL    HW230795   0.850  13.921   3.640 -0.1500 -0.5648 -0.2594
39606SOL     OW30796   4.495  10.281  10.288 -0.1910 -1.1480  0.7254
39606SOL    HW130797   4.569  10.221  10.287 -1.2591 -2.5071  0.7901
39606SOL    HW230798   4.501  10.326  10.372  1.1639 -0.4269  0.2679
39607SOL     OW30799  12.178   5.990  11.119  0.4577  0.2254  0.0948
39607SOL    HW130800  12.087   6.020  11.124 -0.2602 -1.4772 -1.6433
39607SOL    HW230801  12.217   6.021  11.201 -1.1383  2.6326  0.0549
39608SOL     OW30802  12.348   8.654  11.831  0.4271 -0.0686  0.5733
39608SOL    HW130803  12.371   8.567  11.800 -0.7896 -0.5200  0.8889
39608SOL    HW230804  12.350   8.647  11.926  0.2067  0.2240  0.6007
39609SOL     OW30805  10.812  10.800   9.049  0.3702 -0.5315  0.6584
39609SOL    HW130806  10.734  10.854   9.035  0.8261  0.0326  0.2585
39609SOL    HW230807  10.778  10.715   9.077 -0.4122 -0.4778 -0.0942
39610SOL     OW30808  10.113   3.819   0.145 -0.3675 -0.1898  0.1032
39610SOL    HW130809  10.066   3.806   0.228 -0.7146 -0.5372 -0.1458
39610SOL    HW230810  10.071   3.758   0.084 -1.1435  1.1353 -0.7434
39611SOL     OW30811   6.529   0.620   2.368  0.5541 -0.0560 -0.3524
39611SOL    HW130812   6.486   0.685   2.425  1.2158  0.7894 -0.7918
39611SOL    HW230813   6.497   0.641   2.280  0.0901 -0.9040 -0.3968
39612SOL     OW30814  13.487  11.662  12.990 -0.2649  0.2170 -0.3293
39612SOL    HW130815  13.571  11.616  12.991 -0.1061  0.4871  0.6970
39612SOL    HW230816  13.488  11.715  12.911  0.4288  0.0200 -0.4526
39613SOL     OW30817   5.527  13.337  12.710  0.1728 -0.2994 -0.2600
39613SOL    HW130818   5.465  13.358  12.780  0.7151 -0.7544  0.3751
39613SOL    HW230819   5.474  13.300  12.640 -0.1034 -2.3243  0.9525
39614SOL     OW30820   7.949   5.145   8.498 -0.2311 -0.0318 -0.2678
39614SOL    HW130821   7.922   5.090   8.571  0.5821 -0.3753 -0.2113
39614SOL    HW230822   7.927   5.234   8.525 -1.4997 -0.3099 -0.3288
39615SOL     OW30823   8.145  13.545   7.608  0.1284  0.9074  0.2832
39615SOL    HW130824   8.164  13.609   7.676  0.0286 -0.3721  1.5693
39615SOL    HW230825   8.172  13.461   7.646  2.4540  0.3858 -2.1773
39616SOL     OW30826   8.138   4.567   0.042 -0.1772 -0.0882 -0.4670
39616SOL    HW130827   8.175   4.483   0.017  0.6276  0.1019  0.0598
39616SOL    HW230828   8.116   4.609  -0.041  0.3599 -0.4069 -0.7758
39617SOL     OW30829   5.293   6.033   9.665 -0.0408 -0.1413  0.0251
39617SOL    HW130830   5.319   5.951   9.624 -0.4976 -0.5014  0.4474
39617SOL    HW230831   5.366   6.093   9.647 -0.6273 -0.0038 -2.0984
39618SOL     OW30832   8.236   5.610   7.855  0.1773 -0.1081 -0.4458
39618SOL    HW130833   8.162   5.634   7.911  0.4182 -0.8049  0.1892
39618SOL    HW230834   8.223   5.517   7.836  0.8753 -0.2360 -0.3432
39619SOL     OW30835  12.100   7.199  12.020  0.5144 -0.2664  0.3179
39619SOL    HW130836  12.107   7.108  12.051 -0.7398 -0.7368 -0.7073
39619SOL    HW230837  12.008   7.222  12.034  0.5691  0.4579 -0.4744
39620SOL     OW30838   4.028  12.999   8.027  0.4699 -0.3369  0.0438
39620SOL    HW130839   3.997  13.004   7.936 -0.8421  1.9721  0.5384
39620SOL    HW230840   4.124  12.999   8.019  0.3826 -0.6531 -1.3382
39621SOL     OW30841   8.451   8.327   1.462  0.1923  0.1581 -0.1637
39621SOL    HW130842   8.422   8.289   1.546  0.2634  1.7608  0.6181
39621SOL    HW230843   8.425   8.262   1.397 -0.1662 -0.9819  1.0643
39622SOL     OW30844  10.083  12.354   6.905  0.9581  0.1946 -0.3252
39622SOL    HW130845  10.132  12.410   6.845  1.2531  1.9793  1.5037
39622SOL    HW230846  10.122  12.267   6.893  1.9465  0.7852 -1.6624
39623SOL     OW30847   3.898   7.817  10.915  0.1365  0.4820 -0.4096
39623SOL    HW130848   3.868   7.889  10.970  0.8737  0.6879 -0.2636
39623SOL    HW230849   3.916   7.857  10.830  0.9617  0.5586 -0.2040
39624SOL     OW30850  13.974  12.094   8.812  0.0370  0.6633 -0.4931
39624SOL    HW130851  13.935  12.007   8.812 -0.0880  0.7171 -0.0985
39624SOL    HW230852  14.065  12.080   8.789  0.5770  0.1657  1.7310
39625SOL     OW30853   5.539  12.534   7.923 -0.1223  0.1193  0.0960
39625SOL    HW130854   5.475  12.550   7.992 -1.1986 -1.1472 -0.5630
39625SOL    HW230855   5.486  12.518   7.844  1.0360  0.0645 -0.6963
39626SOL     OW30856   9.999  13.989   1.578 -0.2321 -0.7267  0.8053
39626SOL    HW130857   9.941  13.918   1.606 -0.7165 -0.6955 -0.0908
39626SOL    HW230858  10.069  13.944   1.530 -1.0344 -0.5472 -0.5792
39627SOL     OW30859   1.787   2.730   5.385  0.2543 -0.4313 -0.2047
39627SOL    HW130860   1.709   2.707   5.334 -1.3638  1.8833  1.0326
39627SOL    HW230861   1.787   2.669   5.458  0.1058 -0.9943 -0.6664
39628SOL     OW30862   5.935   4.398  11.607 -0.1367  0.2755 -0.0149
39628SOL    HW130863   5.929   4.409  11.512 -1.7848  0.0873  0.0446
39628SOL    HW230864   5.951   4.304  11.620  0.7822  0.4083 -0.1089
39629SOL     OW30865  12.500   6.722  12.399 -0.6588 -0.1519 -0.2315
39629SOL    HW130866  12.592   6.711  12.374 -1.1622 -1.8510 -1.5138
39629SOL    HW230867  12.498   6.807  12.444  1.8387 -0.8415  1.4369
39630SOL     OW30868   9.342  10.884  13.224  0.1089  0.2993  0.3476
39630SOL    HW130869   9.319  10.810  13.168  1.2445 -0.0778  0.3481
39630SOL    HW230870   9.258  10.919  13.253 -0.4605 -1.0011  0.3678
39631SOL     OW30871  11.712   4.240   6.957  0.1409 -0.0036  0.1808
39631SOL    HW130872  11.736   4.265   7.046 -1.3983  2.7378 -0.0546
39631SOL    HW230873  11.782   4.181   6.928  2.6719  1.9501  1.9044
39632SOL     OW30874  13.461  13.940   2.747  0.3965  0.2047  0.5552
39632SOL    HW130875  13.473  13.976   2.835 -2.9566  0.3133  1.1066
39632SOL    HW230876  13.417  14.009   2.698 -2.3100 -1.4646  0.3815
39633SOL     OW30877   3.277   1.635  11.105 -0.2591  0.2322 -0.3351
39633SOL    HW130878   3.303   1.554  11.061 -1.3421 -0.8489  0.9291
39633SOL    HW230879   3.323   1.704  11.057 -1.8595 -0.7755 -3.5662
39634SOL     OW30880   9.388   2.723  10.333 -0.1924 -0.1103  0.0572
39634SOL    HW130881   9.426   2.806  10.361 -0.9095  0.5610 -0.8799
39634SOL    HW230882   9.293   2.737  10.341 -0.3826 -0.2270 -1.7296
39635SOL     OW30883  12.320   8.293   1.516  0.8310 -0.2721 -0.1485
39635SOL    HW130884  12.284   8.229   1.578  0.1098  0.5143  0.2737
39635SOL    HW230885  12.299   8.378   1.555  0.4029  0.2433 -1.4592
39636SOL     OW30886   9.472   2.567   7.748  0.0714  0.0073 -0.3607
39636SOL    HW130887   9.513   2.546   7.664 -0.8234 -0.7771 -0.6227
39636SOL    HW230888   9.479   2.662   7.756 -0.2846  0.1496 -1.5700
39637SOL     OW30889  10.801  10.874   3.753  0.4230  0.4132 -0.0228
39637SOL    HW130890  10.848  10.845   3.831 -3.2154 -1.6561  1.6396
39637SOL    HW230891  10.786  10.795   3.702 -1.9026  0.7720 -0.0141
39638SOL     OW30892  11.499   1.838   5.326  0.0186  0.3853  0.0380
39638SOL    HW130893  11.471   1.929   5.329 -2.1643 -0.2109 -0.3544
39638SOL    HW230894  11.427   1.793   5.281  0.8487 -1.5932  0.5968
39639SOL     OW30895  13.392   4.898  10.908  0.2436 -0.4552  0.1631
39639SOL    HW130896  13.371   4.909  11.001 -1.7267  0.5732 -0.3515
39639SOL    HW230897  13.427   4.983  10.881 -0.2181 -0.4011 -0.2741
39640SOL     OW30898   4.674   9.495  10.538  0.3325  0.0048  0.4702
39640SOL    HW130899   4.644   9.410  10.505  0.9016 -0.1746  0.3980
39640SOL    HW230900   4.648   9.558  10.471  2.9122 -0.5576 -1.1857
39641SOL     OW30901   9.864  10.538  11.555  0.5565  0.3818 -0.4337
39641SOL    HW130902   9.857  10.468  11.620 -0.7739  0.9844  0.1244
39641SOL    HW230903   9.948  10.579  11.572  0.6720 -0.1226  0.2393
39642SOL     OW30904  11.973   6.059   1.504  0.9036  0.5909  0.6786
39642SOL    HW130905  12.030   6.028   1.433 -1.5968  0.6426 -1.5261
39642SOL    HW230906  11.946   5.979   1.549 -1.2302 -0.1059 -1.5750
39643SOL     OW30907   4.965   6.765   8.253  1.0558 -0.2569 -0.0336
39643SOL    HW130908   4.891   6.774   8.312  0.2897 -1.0110 -0.8592
39643SOL    HW230909   4.950   6.830   8.185  1.5334  0.0729  0.1677
39644SOL     OW30910  12.922   0.166  12.364  0.1525 -0.3576 -0.2553
39644SOL    HW130911  13.015   0.189  12.372  0.3038 -0.9346 -0.2799
39644SOL    HW230912  12.879   0.247  12.338  0.4458  0.2602  1.0547
39645SOL     OW30913   9.508   6.820   9.918 -0.0599  0.0863  0.1023
39645SOL    HW130914   9.435   6.758   9.928 -0.0687 -0.1008 -1.0012
39645SOL    HW230915   9.582   6.765   9.892  0.7197  0.1658  2.0042
39646SOL     OW30916  13.260   6.046   2.714  0.0039  0.0984 -0.0561
39646SOL    HW130917  13.237   6.017   2.802  1.1990 -0.3672  0.1185
39646SOL    HW230918  13.322   5.981   2.682 -0.5942  0.1347 -1.3452
39647SOL     OW30919   4.162  12.348   5.985 -0.1830  0.1586  0.1184
39647SOL    HW130920   4.222  12.293   6.035  1.5681  0.1752 -1.8540
39647SOL    HW230921   4.167  12.434   6.027  1.4513  0.2461 -0.2127
39648SOL     OW30922   7.699   0.423   7.729  0.1410 -0.0604 -0.0955
39648SOL    HW130923   7.621   0.475   7.747  0.2010 -0.3591  1.0642
39648SOL    HW230924   7.667   0.352   7.673 -0.1138  0.6688 -0.9041
39649SOL     OW30925  13.718   2.137   6.501  0.0506 -0.4716  0.3175
39649SOL    HW130926  13.740   2.060   6.450 -0.9684 -0.0811 -0.7538
39649SOL    HW230927  13.743   2.114   6.591 -1.0249 -2.4065  0.1911
39650SOL     OW30928  10.812  12.190   9.466  0.2617  0.2925  0.2990
39650SOL    HW130929  10.752  12.209   9.538  0.6928 -0.3134  0.8303
39650SOL    HW230930  10.869  12.121   9.500 -0.5092 -1.1297 -1.1472
39651SOL     OW30931  13.520   8.050   8.174 -0.3484  0.1300  0.2527
39651SOL    HW130932  13.546   8.048   8.265  0.7401 -1.7359 -0.0520
39651SOL    HW230933  13.601   8.064   8.125 -0.1917 -2.9005 -0.5655
39652SOL     OW30934   4.865   5.361   7.766 -0.7202  0.0476 -0.0023
39652SOL    HW130935   4.857   5.289   7.829 -1.7725  0.1626  0.0200
39652SOL    HW230936   4.851   5.440   7.818 -1.6583  0.1418 -0.3754
39653SOL     OW30937  12.840   0.797   4.870  0.0112  0.0179  0.5632
39653SOL    HW130938  12.782   0.820   4.798  0.7432 -2.2508 -0.8437
39653SOL    HW230939  12.908   0.865   4.869 -0.9617  1.0321  0.3546
39654SOL     OW30940   4.007   1.430  11.739  0.4493  0.3885  0.4051
39654SOL    HW130941   3.915   1.425  11.713  0.5159  0.9923  0.0194
39654SOL    HW230942   4.010   1.500  11.805  0.3329 -0.9274  1.8402
39655SOL     OW30943   1.014   2.769   1.273  0.2842 -0.3436 -0.0850
39655SOL    HW130944   0.923   2.775   1.242  0.6864  0.3112 -1.1616
39655SOL    HW230945   1.055   2.849   1.243  1.3820 -0.8982 -0.0922
39656SOL     OW30946  12.904   7.456  12.089 -0.7960 -0.1055  0.0385
39656SOL    HW130947  12.887   7.547  12.112  1.1776  0.3227  0.0015
39656SOL    HW230948  12.990   7.457  12.048 -0.8453 -1.9582 -0.2171
39657SOL     OW30949   3.766   3.883   7.148 -0.0966  0.1085 -0.6588
39657SOL    HW130950   3.836   3.887   7.084  0.2035  2.9271 -0.2604
39657SOL    HW230951   3.693   3.930   7.107 -0.6066  0.1375  0.2543
39658SOL     OW30952   4.539   9.173   9.825  0.0500 -0.1697 -0.1743
39658SOL    HW130953   4.468   9.165   9.761  0.4471  0.6369 -0.7323
39658SOL    HW230954   4.593   9.095   9.812  0.8525  0.6149 -1.7440
39659SOL     OW30955   7.108   7.624  13.218 -0.1337  0.3519 -0.2434
39659SOL    HW130956   7.191   7.637  13.263  0.0430  2.1505 -1.0376
39659SOL    HW230957   7.056   7.570  13.278  1.5955 -0.8452  0.2401
39660SOL     OW30958   5.980  11.689   2.632  0.4592 -0.9259  0.5231
39660SOL    HW130959   5.906  11.686   2.692 -0.8656 -0.8483 -1.0077
39660SOL    HW230960   5.949  11.746   2.560  1.5937 -1.7503 -0.6568
39661SOL     OW30961   6.512  13.067   4.948 -0.5342  0.0976  0.7886
39661SOL    HW130962   6.604  13.094   4.955 -0.3672 -0.5808  1.4273
39661SOL    HW230963   6.516  12.971   4.956 -1.0380 -0.2083 -1.9039
39662SOL     OW30964  11.446  13.463  11.616 -0.3761  0.2956 -0.4082
39662SOL    HW130965  11.363  13.428  11.650 -0.8958  1.9855  0.1213
39662SOL    HW230966  11.508  13.391  11.628 -1.6461 -0.8627 -0.4183
39663SOL     OW30967   1.130  11.575   8.479  0.1711 -0.6808 -0.1053
39663SOL    HW130968   1.170  11.552   8.395  1.3283 -2.1852  0.8210
39663SOL    HW230969   1.197  11.557   8.544 -1.8244 -2.9763  1.4842
39664SOL     OW30970   5.774   2.012   5.734  0.1026  0.3955 -0.1747
39664SOL    HW130971   5.827   1.933   5.751  0.1058  0.3457 -0.4004
39664SOL    HW230972   5.689   1.978   5.706  0.0212  0.4736 -0.0168
39665SOL     OW30973   6.315  13.616   0.811 -0.1095  0.5114  0.7830
39665SOL    HW130974   6.238  13.561   0.793 -0.6878  2.2648 -3.3558
39665SOL    HW230975   6.285  13.679   0.876 -0.9231 -1.1030  2.0405
39666SOL     OW30976  12.674  10.508   2.029 -0.1556 -0.0249 -0.2640
39666SOL    HW130977  12.614  10.488   2.102  0.2518 -0.4399 -0.0363
39666SOL    HW230978  12.749  10.550   2.071 -0.8430  1.7329 -0.6973
39667SOL     OW30979   1.229   6.140  14.033 -0.0646 -0.0894  0.1912
39667SOL    HW130980   1.221   6.122  13.940 -0.8171 -0.9128  0.4043
39667SOL    HW230981   1.318   6.176  14.043  0.0754 -0.1392 -0.8104
39668SOL     OW30982   1.552   2.829   7.280 -0.1009  0.0189  0.4055
39668SOL    HW130983   1.594   2.746   7.257  1.9327  0.4412  2.2767
39668SOL    HW230984   1.520   2.863   7.196 -0.4484 -2.3208 -0.4926
39669SOL     OW30985   7.519   0.457   6.732 -0.1654 -0.3521 -0.3899
39669SOL    HW130986   7.551   0.371   6.760 -0.0315  0.1401  1.0352
39669SOL    HW230987   7.597   0.502   6.699 -0.0877 -0.4816 -0.3861
39670SOL     OW30988  10.641   1.654   4.727 -0.4920  0.1731 -0.4480
39670SOL    HW130989  10.693   1.668   4.648  0.0589  1.8920  0.1685
39670SOL    HW230990  10.597   1.570   4.713  0.6934 -0.2350 -1.9582
39671SOL     OW30991  12.718   7.250   5.424 -0.2700  0.0779 -0.1111
39671SOL    HW130992  12.639   7.197   5.434 -0.1068 -0.2065 -0.3102
39671SOL    HW230993  12.759   7.217   5.344  1.0352 -1.0627  0.9951
39672SOL     OW30994   9.506  11.107   1.134 -0.0873  0.5553 -0.1378
39672SOL    HW130995   9.453  11.073   1.062  0.5644  0.9397 -0.8201
39672SOL    HW230996   9.591  11.126   1.093  0.8794 -0.8949  1.0846
39673SOL     OW30997   3.983   6.779   1.011  0.1094  0.4813  0.2352
39673SOL    HW130998   4.012   6.864   0.977 -0.6067  0.6090 -0.0839
39673SOL    HW230999   3.960   6.728   0.933  0.7622 -0.0969  0.4139
39674SOL     OW31000   2.621   7.966   6.143 -0.0851 -0.2842 -0.0818
39674SOL    HW131001   2.582   8.006   6.065 -1.8029 -1.5622  0.0504
39674SOL    HW231002   2.548   7.961   6.205  1.3380  1.0789  1.7942
39675SOL     OW31003   9.456  12.254  11.649 -0.3087  0.4296 -0.0571
39675SOL    HW131004   9.381  12.217  11.603 -1.0044  2.3686 -0.5802
39675SOL    HW231005   9.422  12.276  11.736  0.1038 -0.1497  0.2567
39676SOL     OW31006   7.561  11.064  13.743  0.4926  0.0279 -0.0832
39676SOL    HW131007   7.644  11.086  13.785  0.8712 -1.3037 -0.0781
39676SOL    HW231008   7.581  11.059  13.650  0.5731 -0.8410 -0.0332
39677SOL     OW31009   9.159   5.835   9.955  0.0199 -0.0800  0.0402
39677SOL    HW131010   9.081   5.792   9.992  0.1254  1.0558  1.7032
39677SOL    HW231011   9.223   5.833  10.027  2.0917 -2.1990 -1.6899
39678SOL     OW31012   6.083   2.952   1.173  0.5601 -0.1709 -0.3129
39678SOL    HW131013   6.007   2.933   1.228 -0.2707 -0.4291 -1.5277
39678SOL    HW231014   6.059   2.921   1.086  1.3759  1.3469 -1.1237
39679SOL     OW31015   1.965   1.136   9.189 -0.1896 -0.1488  0.1431
39679SOL    HW131016   1.946   1.206   9.126 -1.5618 -1.7117 -1.2866
39679SOL    HW231017   2.059   1.121   9.179  0.4790  2.3778  1.5500
39680SOL     OW31018  10.192   5.967   0.183 -0.2046 -0.6110  0.1979
39680SOL    HW131019  10.129   6.033   0.211 -1.3111 -1.2418 -0.7035
39680SOL    HW231020  10.180   5.962   0.088  1.2620 -0.7074 -0.0070
39681SOL     OW31021   9.957   5.976  12.581  0.0970 -0.0818  0.1477
39681SOL    HW131022   9.954   5.992  12.675 -0.1659 -0.0917  0.1416
39681SOL    HW231023   9.977   5.882  12.574  0.0443 -0.0970  0.1945
39682SOL     OW31024   1.406   6.650  14.004  0.6169  0.3857  0.3838
39682SOL    HW131025   1.453   6.627  13.924 -0.6424  0.5566 -0.4379
39682SOL    HW231026   1.439   6.588  14.070  0.3064 -1.0557 -0.7498
39683SOL     OW31027  11.584   1.932  12.990 -0.2544 -0.2062  0.1008
39683SOL    HW131028  11.579   1.876  12.912 -1.7697 -0.9038  0.6655
39683SOL    HW231029  11.528   2.007  12.969 -0.8892 -0.5321  0.6127
39684SOL     OW31030   7.296   7.004  13.156  0.2179 -0.4551 -0.1093
39684SOL    HW131031   7.296   7.044  13.069 -1.4342 -1.9414 -0.8678
39684SOL    HW231032   7.290   7.077  13.217  0.9902  0.5962 -1.2483
39685SOL     OW31033  11.989   4.873   9.189  0.4473 -0.2181 -0.5970
39685SOL    HW131034  11.964   4.924   9.112  0.9798  0.6340 -0.2172
39685SOL    HW231035  11.918   4.889   9.252  1.4335  1.4810  0.1524
39686SOL     OW31036   1.411   6.534  10.840 -0.3697  0.3034  0.7248
39686SOL    HW131037   1.329   6.580  10.821 -1.1286 -1.6229 -1.0912
39686SOL    HW231038   1.395   6.489  10.923 -1.1859 -0.0411  0.3965
39687SOL     OW31039   4.804  10.662   3.007  0.0871 -0.0565  0.0134
39687SOL    HW131040   4.823  10.708   3.088 -1.1342  1.3643 -0.4699
39687SOL    HW231041   4.882  10.674   2.953  1.1103 -1.4365  1.1183
39688SOL     OW31042   7.108   6.010   2.061  0.1849 -0.0902  0.7898
39688SOL    HW131043   7.081   6.075   2.126 -1.3320 -0.8565  0.9722
39688SOL    HW231044   7.028   5.992   2.011  1.1147 -0.1733 -0.7236
39689SOL     OW31045  10.533   2.476   0.517 -0.6267  0.0805 -0.2931
39689SOL    HW131046  10.616   2.516   0.491 -0.1911 -1.0102 -0.6288
39689SOL    HW231047  10.478   2.484   0.439 -1.1831  1.6306  0.2181
39690SOL     OW31048  11.027   2.701   8.082 -0.4511  0.1458  0.2868
39690SOL    HW131049  11.015   2.790   8.114  0.6861  0.5242 -0.2874
39690SOL    HW231050  11.041   2.649   8.162  1.9752  1.0187  0.5242
39691SOL     OW31051   8.551   9.878  10.917  0.2487 -0.0869  0.1532
39691SOL    HW131052   8.561   9.946  10.984  1.7908 -1.8472  1.8228
39691SOL    HW231053   8.474   9.828  10.945 -0.9716  0.9992 -1.1519
39692SOL     OW31054   0.124   2.587   3.407 -0.0291  0.1218 -0.0873
39692SOL    HW131055   0.054   2.545   3.457 -2.1904  2.2930 -1.1070
39692SOL    HW231056   0.090   2.673   3.384  2.6660  0.9612 -1.4235
39693SOL     OW31057   7.913  12.869  10.509 -0.3543  0.6203  0.1468
39693SOL    HW131058   7.909  12.817  10.589  0.8358  1.4684  0.8030
39693SOL    HW231059   7.902  12.960  10.539  0.0021  0.9426 -0.6595
39694SOL     OW31060   5.247   5.559   3.770  0.4853 -0.1298  0.3008
39694SOL    HW131061   5.312   5.561   3.840  1.1468  0.1361 -0.3158
39694SOL    HW231062   5.174   5.510   3.808  0.7232  0.2275  1.2648
39695SOL     OW31063   9.336   8.603  13.588 -0.2769  0.5951  0.0368
39695SOL    HW131064   9.273   8.662  13.547 -0.6826  0.9076  1.0868
39695SOL    HW231065   9.422   8.635  13.559 -0.3058  3.2482  2.4474
39696SOL     OW31066   7.880  12.030   1.413  0.1349  0.0011 -0.0601
39696SOL    HW131067   7.943  12.073   1.471  0.5283 -1.6866  0.8078
39696SOL    HW231068   7.800  12.023   1.466  0.3876 -1.2318  0.1771
39697SOL     OW31069   6.874  11.335   6.744  0.1055 -0.2855 -0.2099
39697SOL    HW131070   6.939  11.345   6.675  0.2261  2.4115  0.1624
39697SOL    HW231071   6.799  11.388   6.715  0.3953  1.4414  1.9096
39698SOL     OW31072   6.206  13.599  12.240  0.4128  0.1777 -0.0531
39698SOL    HW131073   6.169  13.667  12.296  0.4170  0.2104 -0.0903
39698SOL    HW231074   6.193  13.518  12.289 -2.1636 -0.2100 -1.2199
39699SOL     OW31075   4.404   9.363  13.726 -0.0792 -0.0477  0.0923
39699SOL    HW131076   4.357   9.313  13.793 -0.4252 -0.9661 -0.8145
39699SOL    HW231077   4.373   9.453  13.738 -1.2199 -0.4420  0.2511
39700SOL     OW31078  12.802   6.057   1.082  0.3725  0.5856  0.0275
39700SOL    HW131079  12.885   6.053   1.034 -0.2309  0.9189 -1.0841
39700SOL    HW231080  12.739   6.089   1.017 -0.2593  2.1226  1.3426
39701SOL     OW31081   7.175  10.612   1.716  0.2121 -0.2001  0.0085
39701SOL    HW131082   7.127  10.681   1.669  1.7833  1.6219  0.9052
39701SOL    HW231083   7.174  10.641   1.808  2.3209 -0.4648  0.1705
39702SOL     OW31084  12.674   5.655   9.050  0.3226  0.0114  0.3672
39702SOL    HW131085  12.606   5.629   8.988 -0.9699 -1.4368  2.2409
39702SOL    HW231086  12.757   5.636   9.005 -0.3688  2.8846 -2.4191
39703SOL     OW31087   6.208  10.470  13.853 -0.1187  0.2772  0.0599
39703SOL    HW131088   6.134  10.412  13.834 -0.3976  1.1925 -1.8633
39703SOL    HW231089   6.203  10.485  13.947 -2.2912  0.1690  0.0197
39704SOL     OW31090   1.493  10.666   4.788 -0.1634  0.3799 -1.1404
39704SOL    HW131091   1.420  10.716   4.752 -0.7296 -1.2342 -2.3434
39704SOL    HW231092   1.562  10.731   4.800 -1.9071  2.0544  0.5286
39705SOL     OW31093   6.432   5.723   1.182  0.1000  0.6653 -0.2015
39705SOL    HW131094   6.340   5.721   1.155 -0.2559 -1.4476  0.9800
39705SOL    HW231095   6.466   5.637   1.158  1.3668  0.8706  0.7642
39706SOL     OW31096   2.742  12.309   9.442  0.2221  0.2130 -0.3552
39706SOL    HW131097   2.751  12.309   9.537  2.1598  1.3030 -0.5018
39706SOL    HW231098   2.693  12.388   9.422  1.1989  0.8331 -0.3468
39707SOL     OW31099  13.010   7.087   1.600  0.5427 -0.1698 -0.6072
39707SOL    HW131100  13.065   7.157   1.637 -1.1833  0.4276  0.9866
39707SOL    HW231101  13.038   7.008   1.648  0.3372  0.0448 -0.1242
39708SOL     OW31102   3.971   1.680   1.967  0.3761 -0.7494 -0.2884
39708SOL    HW131103   3.945   1.617   1.900  0.6593 -0.5094 -0.6277
39708SOL    HW231104   3.890   1.701   2.013  0.1662 -0.8682 -0.5978
39709SOL     OW31105  12.322   5.234  12.092  0.2435 -0.1710  0.8032
39709SOL    HW131106  12.277   5.300  12.040  0.0379 -0.3484  0.7529
39709SOL    HW231107  12.278   5.236  12.177  0.5857  0.1266  0.9755
39710SOL     OW31108   3.950   7.712  11.901 -0.0271  0.1092  0.2822
39710SOL    HW131109   3.943   7.618  11.885 -0.8905  0.0030  1.1383
39710SOL    HW231110   4.042   7.726  11.925  0.9497  0.0521 -3.0118
39711SOL     OW31111  11.953   8.672   0.912 -0.1687 -0.2382  0.0033
39711SOL    HW131112  11.869   8.714   0.929  0.4456  0.1202  2.5050
39711SOL    HW231113  11.933   8.602   0.850 -2.3656 -0.2849  0.6885
39712SOL     OW31114   3.682   6.504   3.876 -0.0860 -0.1150  0.1649
39712SOL    HW131115   3.722   6.417   3.871  3.0415  1.1727 -0.1442
39712SOL    HW231116   3.684   6.537   3.786  2.6457  1.6918  0.7486
39713SOL     OW31117   8.796   8.935  12.728  0.0541  0.3958 -0.0550
39713SOL    HW131118   8.765   9.000  12.664  0.5323  1.2233  0.5247
39713SOL    HW231119   8.735   8.862  12.719 -0.7449  1.0827 -0.4699
39714SOL     OW31120   1.905  12.737   4.108 -0.1647  0.5236 -0.3514
39714SOL    HW131121   1.966  12.714   4.037 -1.4473 -1.6784 -0.8256
39714SOL    HW231122   1.948  12.706   4.188  0.5108  1.4577 -0.3293
39715SOL     OW31123   6.778   4.434   9.896 -0.1066 -0.4366  0.4767
39715SOL    HW131124   6.807   4.393   9.815 -0.6127 -1.7551  0.9386
39715SOL    HW231125   6.713   4.374   9.932 -0.1302  0.2817  1.6990
39716SOL     OW31126   2.549  12.922  13.926 -0.7562 -0.4720 -0.3484
39716SOL    HW131127   2.580  12.941  13.837  0.2045  1.1553  0.2967
39716SOL    HW231128   2.604  12.848  13.954  1.4827  1.2593  0.1374
39717SOL     OW31129   3.419   1.602   5.501  0.6735 -0.2088  0.4924
39717SOL    HW131130   3.485   1.537   5.478  1.4497  0.4492  0.8102
39717SOL    HW231131   3.393   1.641   5.417 -1.5054 -2.4641 -0.0057
39718SOL     OW31132   4.699  10.701   4.174  0.2107 -0.3024 -0.3851
39718SOL    HW131133   4.747  10.762   4.230  1.4612 -0.7401 -0.9578
39718SOL    HW231134   4.660  10.756   4.106 -0.2120  0.0662  0.1440
39719SOL     OW31135   3.516   3.004   3.533  0.1193 -0.5846  0.5501
39719SOL    HW131136   3.430   2.971   3.559 -0.3368  0.6394  0.6500
39719SOL    HW231137   3.503   3.036   3.443  0.3399  0.0383  0.7340
39720SOL     OW31138   6.273   6.642   0.268  0.0263  0.2000 -0.1510
39720SOL    HW131139   6.314   6.709   0.321 -1.6133  1.7379 -0.7145
39720SOL    HW231140   6.263   6.567   0.326 -1.2747  1.6564  1.6292
39721SOL     OW31141   7.310   9.703   1.486 -0.5195 -0.1786  0.1319
39721SOL    HW131142   7.295   9.768   1.418 -1.4838  0.8439  1.2713
39721SOL    HW231143   7.382   9.649   1.453 -2.5175 -1.3088 -2.8057
39722SOL     OW31144  10.399  10.484   3.334  0.3765  0.5362  0.2403
39722SOL    HW131145  10.308  10.499   3.308  0.6705  0.1421 -1.0790
39722SOL    HW231146  10.401  10.392   3.359  0.5078  0.4134 -0.2075
39723SOL     OW31147  10.223  13.762   0.448  0.0570  0.1096 -0.1743
39723SOL    HW131148  10.303  13.708   0.448 -0.7063 -1.0619 -0.9443
39723SOL    HW231149  10.237  13.824   0.520 -0.1339 -2.8502  2.6909
39724SOL     OW31150   8.672   1.527   9.639  0.5996 -0.4774  0.3808
39724SOL    HW131151   8.700   1.507   9.550  0.4129 -1.6908  0.5757
39724SOL    HW231152   8.578   1.546   9.631  0.7567  0.2315  0.2061
39725SOL     OW31153  11.275  11.560   9.089  0.4619 -0.7082 -0.4521
39725SOL    HW131154  11.345  11.625   9.098 -0.4326  0.5044 -1.8442
39725SOL    HW231155  11.204  11.593   9.144  0.6981 -1.5734  0.4047
39726SOL     OW31156   8.754   3.835   8.829  0.0958 -0.3858 -0.6249
39726SOL    HW131157   8.767   3.788   8.746  0.0212 -1.0365 -0.2703
39726SOL    HW231158   8.665   3.813   8.856 -0.2344  0.6056 -0.8507
39727SOL     OW31159  10.720   6.175   2.447 -0.4218  0.2369 -0.2792
39727SOL    HW131160  10.801   6.156   2.399 -0.3974  1.5211 -0.7973
39727SOL    HW231161  10.743   6.248   2.505 -1.0452  0.2026  0.0195
39728SOL     OW31162   3.854   8.644   1.828 -0.0552 -0.2298 -0.9592
39728SOL    HW131163   3.931   8.699   1.845  0.7349 -0.9670 -2.0395
39728SOL    HW231164   3.844   8.645   1.733  0.1856 -2.1930 -1.0549
39729SOL     OW31165   6.886   3.541   3.705 -0.2151 -0.4502 -0.3826
39729SOL    HW131166   6.826   3.467   3.705  0.1238 -0.7309 -1.0871
39729SOL    HW231167   6.964   3.509   3.659  0.6606 -0.2422  0.8896
39730SOL     OW31168   6.671   3.347   1.100 -0.5214 -0.0292 -0.2275
39730SOL    HW131169   6.650   3.376   1.189 -1.0715 -0.4846 -0.1978
39730SOL    HW231170   6.723   3.418   1.063  1.2944 -0.6216  1.0710
39731SOL     OW31171   8.427  10.202   7.674 -0.1434 -0.1402 -0.6488
39731SOL    HW131172   8.470  10.276   7.630 -0.0359  0.3913  0.3213
39731SOL    HW231173   8.334  10.216   7.658 -0.1287  0.2380 -0.4181
39732SOL     OW31174   8.000   6.675   7.180 -0.3572  0.2942 -0.0597
39732SOL    HW131175   7.968   6.626   7.256 -0.3537  2.2101  1.2232
39732SOL    HW231176   7.921   6.709   7.139 -0.4114 -1.2677 -1.3599
39733SOL     OW31177   5.041   6.298  10.175 -0.6852 -0.0553 -0.0926
39733SOL    HW131178   5.073   6.229  10.233 -0.4319  1.0098  1.0947
39733SOL    HW231179   4.949   6.275  10.159 -0.3977 -1.0606 -0.3287
39734SOL     OW31180   7.051   5.490   2.463 -0.3048 -0.0550 -0.0334
39734SOL    HW131181   6.963   5.517   2.488 -0.6033 -0.7545 -0.2882
39734SOL    HW231182   7.048   5.394   2.465  0.7858 -0.0949  1.0979
39735SOL     OW31183  10.795   5.175   4.022  0.0755 -0.2759 -0.1376
39735SOL    HW131184  10.699   5.176   4.015  0.1428 -1.1713 -1.6212
39735SOL    HW231185  10.817   5.260   4.060 -1.4084 -0.8456  2.2555
39736SOL     OW31186   4.678   5.529  12.674  0.1870 -0.5369  0.0716
39736SOL    HW131187   4.751   5.590  12.664 -0.3148  0.1743  0.6026
39736SOL    HW231188   4.615   5.555  12.606  0.6286 -1.4742 -0.7197
39737SOL     OW31189   4.752   9.879   6.688  0.5225 -0.2049  0.3834
39737SOL    HW131190   4.755   9.920   6.774 -2.4127  0.2800  0.3469
39737SOL    HW231191   4.778   9.948   6.627 -1.4217  0.7970  0.5936
39738SOL     OW31192   1.926  10.076   6.568 -0.0454 -0.1673 -0.5171
39738SOL    HW131193   1.913  10.131   6.645 -0.0765 -0.6937 -0.1383
39738SOL    HW231194   1.975  10.001   6.601  1.2369  0.2995 -1.3077
39739SOL     OW31195   7.648   4.324   2.905 -0.8304  0.5000 -0.4594
39739SOL    HW131196   7.719   4.323   2.841 -1.0105  1.9955 -0.7094
39739SOL    HW231197   7.657   4.407   2.951 -2.2804  0.6468 -0.3690
39740SOL     OW31198  12.509   0.410   2.774 -0.5810 -0.0013  0.1952
39740SOL    HW131199  12.602   0.430   2.766 -0.4580 -0.8149 -0.5087
39740SOL    HW231200  12.503   0.354   2.852 -0.3257 -0.7886 -0.3335
39741SOL     OW31201   6.768   0.326   1.712 -0.1868 -0.3534 -0.1518
39741SOL    HW131202   6.689   0.376   1.735 -1.1875 -1.1806 -1.5906
39741SOL    HW231203   6.780   0.265   1.784 -0.6416  0.0320  0.2607
39742SOL     OW31204  10.983  12.015  12.306  0.1802 -0.0772  0.7732
39742SOL    HW131205  10.900  11.968  12.307 -1.3734  2.4029 -1.0287
39742SOL    HW231206  11.033  11.977  12.378 -1.4287 -3.4699  0.2881
39743SOL     OW31207   9.689   2.308   7.976 -0.1970 -0.5344 -0.3104
39743SOL    HW131208   9.687   2.314   7.880 -0.7698  1.4008 -0.2152
39743SOL    HW231209   9.707   2.215   7.993 -0.4690 -1.0060 -2.2743
39744SOL     OW31210   1.224   2.695   2.865  0.3569  0.3512 -0.5535
39744SOL    HW131211   1.306   2.694   2.816 -0.5574  0.8593 -2.1491
39744SOL    HW231212   1.245   2.649   2.947  1.9111 -0.5921 -1.4311
39745SOL     OW31213   3.154   9.058  13.384 -0.1647 -0.0947 -0.5384
39745SOL    HW131214   3.094   8.994  13.423 -0.1965 -0.0150 -0.4570
39745SOL    HW231215   3.143   9.137  13.436  0.6636 -0.3413  0.0233
39746SOL     OW31216  13.847  11.178  11.888  0.3979 -0.2602  0.0143
39746SOL    HW131217  13.820  11.100  11.841  0.4702 -0.4888  0.3469
39746SOL    HW231218  13.781  11.244  11.865 -0.2012 -0.6826  0.4566
39747SOL     OW31219   3.520   1.698   3.739 -0.2687 -0.1786 -0.3251
39747SOL    HW131220   3.594   1.745   3.702  0.3730 -1.1329 -0.2790
39747SOL    HW231221   3.488   1.756   3.809 -0.7411  1.0782 -1.5323
39748SOL     OW31222  11.395  13.708   6.167 -0.2606 -0.3476 -0.2762
39748SOL    HW131223  11.453  13.664   6.105 -0.3353 -1.7157  0.5805
39748SOL    HW231224  11.358  13.637   6.220  1.1092  0.8436  2.4795
39749SOL     OW31225   2.474   2.859   8.245  0.1910  0.1529 -0.1558
39749SOL    HW131226   2.522   2.940   8.258 -0.4056  0.5141 -0.1838
39749SOL    HW231227   2.385   2.886   8.224 -0.4357 -0.5200  1.4625
39750SOL     OW31228   2.116  11.770   9.522  0.6661  0.3645  0.0034
39750SOL    HW131229   2.084  11.833   9.458  0.8875  2.3956  1.7491
39750SOL    HW231230   2.210  11.765   9.506  0.7766  1.1390  0.3353
39751SOL     OW31231   3.013  10.997   9.474 -0.1474 -0.4280 -0.3195
39751SOL    HW131232   2.976  11.065   9.418  1.0462 -1.4395 -2.4607
39751SOL    HW231233   3.057  10.938   9.414  0.0318 -2.3663  1.6044
39752SOL     OW31234   9.049  11.257   0.807  0.1769 -0.2360  0.0115
39752SOL    HW131235   9.017  11.313   0.878  1.2565 -1.0650  1.2056
39752SOL    HW231236   9.144  11.253   0.821  0.2659 -1.3621 -0.7858
39753SOL     OW31237  11.975   4.223   0.542  0.1366  0.4314  0.6182
39753SOL    HW131238  11.950   4.157   0.478  0.5396  0.4172  0.4714
39753SOL    HW231239  11.906   4.220   0.608 -0.1018  0.2073  0.3606
39754SOL     OW31240   2.522   7.680   1.949  0.7360 -0.2342 -0.1159
39754SOL    HW131241   2.459   7.701   2.018  1.6938 -0.6337  0.9189
39754SOL    HW231242   2.551   7.764   1.916 -2.0938  0.0278 -2.3624
39755SOL     OW31243   5.207   5.807   1.464  0.1603  0.3011  0.4318
39755SOL    HW131244   5.148   5.790   1.390 -1.0155  1.2463  1.1115
39755SOL    HW231245   5.283   5.752   1.447 -0.5364 -0.2927 -0.9425
39756SOL     OW31246   4.414  11.039   8.311 -0.0069  0.4585  0.2386
39756SOL    HW131247   4.424  11.062   8.403  0.5486  1.3380 -0.0337
39756SOL    HW231248   4.462  10.956   8.302 -0.6728 -0.0099  0.8814
39757SOL     OW31249   5.507   7.540   6.439  0.5013  0.2826  0.2334
39757SOL    HW131250   5.533   7.617   6.490  0.7652  1.4422 -1.5326
39757SOL    HW231251   5.585   7.518   6.389  0.2436 -0.7920  0.2908
39758SOL     OW31252   7.525  13.468   4.616 -0.1413 -0.3079 -0.3887
39758SOL    HW131253   7.552  13.378   4.638  0.3381 -0.1113 -0.1461
39758SOL    HW231254   7.551  13.480   4.525  0.1495 -0.2883 -0.3050
39759SOL     OW31255   0.991   7.207   6.073 -0.4851  0.6575 -0.1240
39759SOL    HW131256   0.914   7.205   6.130 -0.2626  2.4276  0.3198
39759SOL    HW231257   1.029   7.294   6.089  1.3042  0.0215 -0.7302
39760SOL     OW31258  12.062   0.220   7.931 -0.2093 -0.2477  0.0588
39760SOL    HW131259  11.984   0.268   7.901  0.6208  0.1094 -1.6812
39760SOL    HW231260  12.116   0.287   7.973  0.0340 -0.0709 -0.5256
39761SOL     OW31261   9.409   1.301  10.636  0.4457 -0.2100  0.0176
39761SOL    HW131262   9.421   1.257  10.552  1.2929 -0.9063  0.4868
39761SOL    HW231263   9.460   1.381  10.630 -0.8432  0.5933 -0.7250
39762SOL     OW31264   6.298  11.165  13.224  0.1539 -0.3774  0.0205
39762SOL    HW131265   6.381  11.124  13.247  0.1834 -0.3403 -0.0217
39762SOL    HW231266   6.245  11.157  13.304  1.0170  1.7447  0.8706
39763SOL     OW31267  11.706   7.697  10.012 -0.3051 -0.1594 -0.1797
39763SOL    HW131268  11.734   7.788  10.022  0.0915 -0.0430 -2.0110
39763SOL    HW231269  11.741   7.653  10.088 -1.7636  1.4732  1.5467
39764SOL     OW31270  12.849  12.581   1.724  0.0988  0.4038  0.0675
39764SOL    HW131271  12.943  12.577   1.703  0.4755  0.2087  1.6001
39764SOL    HW231272  12.818  12.659   1.678  0.8103 -0.0009 -1.1532
39765SOL     OW31273   4.219  13.174   9.344  0.1902  0.2596  0.0675
39765SOL    HW131274   4.271  13.158   9.266  2.0418 -0.5022  1.3683
39765SOL    HW231275   4.259  13.119   9.411 -3.1692 -1.4890  0.8909
39766SOL     OW31276   6.798   2.804   8.891 -0.3885 -0.5552 -0.1458
39766SOL    HW131277   6.858   2.845   8.829  0.4266 -1.6435 -0.1205
39766SOL    HW231278   6.830   2.832   8.977 -0.4473 -0.4428 -0.1605
39767SOL     OW31279   6.858   3.608   4.250 -0.2902  0.0908 -0.5569
39767SOL    HW131280   6.822   3.521   4.231  1.0445 -0.6105 -0.0395
39767SOL    HW231281   6.872   3.648   4.164 -1.6277  0.1204 -0.7817
39768SOL     OW31282   1.391   1.097  13.872  0.1877 -0.2524  0.5602
39768SOL    HW131283   1.442   1.016  13.877  0.4338 -0.0468  1.5293
39768SOL    HW231284   1.342   1.099  13.954 -1.1829 -0.3088 -0.2306
39769SOL     OW31285   5.047   2.733  10.584  0.6988  0.3315 -0.0241
39769SOL    HW131286   4.984   2.675  10.541 -0.6700  0.2420  1.9506
39769SOL    HW231287   5.002   2.817  10.592  1.0690  0.4607  0.8220
39770SOL     OW31288  12.740   8.460  12.118 -0.2607 -0.2169 -0.0376
39770SOL    HW131289  12.818   8.417  12.082  0.2742  0.1627  0.6277
39770SOL    HW231290  12.744   8.549  12.084  0.9016  0.5030  1.8312
39771SOL     OW31291   8.469  12.617  11.371  0.4930  0.2615  0.4938
39771SOL    HW131292   8.456  12.708  11.400 -1.5114 -0.2103  1.2576
39771SOL    HW231293   8.523  12.625  11.292 -0.3947  2.1951  0.0122
39772SOL     OW31294   2.516   0.444   5.837 -0.4269 -0.7733 -0.2000
39772SOL    HW131295   2.437   0.401   5.803  0.0645 -1.8318 -0.0376
39772SOL    HW231296   2.583   0.375   5.837  0.5748  0.1672 -0.5794
39773SOL     OW31297   9.666   1.280   2.284 -0.0690  0.4871  0.1293
39773SOL    HW131298   9.737   1.341   2.266  0.6365  0.3248  2.1595
39773SOL    HW231299   9.684   1.204   2.228  0.7383  0.9089 -0.1869
39774SOL     OW31300  13.171  12.734  13.398 -0.1941 -0.3304 -0.5947
39774SOL    HW131301  13.213  12.786  13.467 -1.7991  0.4730 -0.1766
39774SOL    HW231302  13.241  12.678  13.364  0.7156 -0.5056  1.4407
39775SOL     OW31303   8.227   5.532  11.687  0.4339  0.3124 -0.3128
39775SOL    HW131304   8.279   5.452  11.680  1.6508  1.0379  0.0280
39775SOL    HW231305   8.214   5.560  11.596 -0.9605 -0.8458 -0.4935
39776SOL     OW31306   1.508  11.820  10.514  0.0039 -0.2779  0.4916
39776SOL    HW131307   1.539  11.897  10.561  3.6055 -0.6950 -0.9115
39776SOL    HW231308   1.567  11.813  10.439 -3.3768 -1.5114 -2.3244
39777SOL     OW31309  12.399   5.049  11.372 -0.5317  0.9112  0.2658
39777SOL    HW131310  12.445   5.128  11.345  0.9696  0.1386  0.5034
39777SOL    HW231311  12.468   4.985  11.391 -1.7051 -0.4488  0.1465
39778SOL     OW31312   4.660  13.849   2.856 -0.2316 -0.3328 -0.2151
39778SOL    HW131313   4.566  13.854   2.836  0.0492  1.4847 -1.3612
39778SOL    HW231314   4.696  13.791   2.789 -0.6097 -1.6501  0.6824
39779SOL     OW31315  13.768  11.501   5.861  0.5399  0.1165 -0.0600
39779SOL    HW131316  13.724  11.472   5.782  1.9677  1.2518 -1.3244
39779SOL    HW231317  13.715  11.574   5.892  0.5801  0.3714 -0.5862
39780SOL     OW31318   7.624   7.046   3.303  0.0881  0.3207 -0.2631
39780SOL    HW131319   7.635   6.952   3.291  0.2348  0.2082  0.7265
39780SOL    HW231320   7.674   7.085   3.231  0.7228 -0.3373 -0.1863
39781SOL     OW31321   4.410   0.563  12.627 -0.0064  0.2974 -0.3753
39781SOL    HW131322   4.398   0.628  12.697 -4.0740 -1.8327  1.2339
39781SOL    HW231323   4.410   0.615  12.546  2.2261  2.6328  0.9593
39782SOL     OW31324   0.886   3.937  11.634 -0.2169 -0.8194 -0.8836
39782SOL    HW131325   0.950   4.004  11.656 -0.7310 -0.3106 -0.9194
39782SOL    HW231326   0.848   3.966  11.551 -0.4965 -1.1126 -0.8601
39783SOL     OW31327   3.231   4.580   5.167 -0.1850 -0.3591  0.2600
39783SOL    HW131328   3.231   4.646   5.099 -0.8518 -0.7773 -0.1524
39783SOL    HW231329   3.308   4.601   5.221  0.6321 -0.3069 -0.8830
39784SOL     OW31330   0.768   3.680   7.082 -0.2491 -0.0557 -0.0535
39784SOL    HW131331   0.802   3.591   7.072  0.9400  0.2548  0.9340
39784SOL    HW231332   0.840   3.728   7.123 -1.2012  1.1343  0.2753
39785SOL     OW31333   6.312   7.528   0.756 -0.2435 -0.4810  0.0264
39785SOL    HW131334   6.219   7.505   0.764 -0.2239 -1.0709 -1.1962
39785SOL    HW231335   6.350   7.503   0.840 -0.9798 -1.3447  0.1212
39786SOL     OW31336   8.861  12.088  10.940 -0.1154  0.0320 -0.3995
39786SOL    HW131337   8.912  12.017  10.979  1.2983  1.7749  1.1795
39786SOL    HW231338   8.902  12.103  10.855 -1.2337 -1.8061 -1.2968
39787SOL     OW31339   0.066   8.990  11.447 -0.1064  0.0398  0.6906
39787SOL    HW131340   0.057   9.066  11.390  0.4198 -0.0196  0.5206
39787SOL    HW231341   0.156   8.960  11.432 -1.4561 -3.0863 -2.3159
39788SOL     OW31342   6.819  13.191  14.035  0.0545  0.1208  0.2890
39788SOL    HW131343   6.814  13.096  14.045 -0.5082  0.3342  2.6095
39788SOL    HW231344   6.905  13.215  14.070  0.3876  0.4575 -0.7109
39789SOL     OW31345   3.754   0.596   4.364 -0.1681  0.0891  0.3217
39789SOL    HW131346   3.679   0.565   4.414  0.3448 -2.0656 -0.1423
39789SOL    HW231347   3.796   0.517   4.331  2.5652  1.1682  0.8952
39790SOL     OW31348   0.161  12.594   9.318 -0.1902  0.4397 -0.0735
39790SOL    HW131349   0.176  12.613   9.226 -2.4519  0.0606 -0.5877
39790SOL    HW231350   0.214  12.659   9.365  0.2534  1.2631 -1.6518
39791SOL     OW31351   2.307   2.408   1.346  0.0378  0.2857 -0.2316
39791SOL    HW131352   2.239   2.447   1.291 -0.4497 -1.0538 -0.6242
39791SOL    HW231353   2.279   2.429   1.435 -1.7994 -1.5163 -0.2902
39792SOL     OW31354   1.121   0.051   2.324 -0.3567  0.1503  0.3255
39792SOL    HW131355   1.146  -0.040   2.311  3.2825  0.6847  2.3152
39792SOL    HW231356   1.090   0.055   2.415 -0.5005  0.9175  0.2540
39793SOL     OW31357  12.590   4.224  13.346  0.1067 -0.0449  0.1204
39793SOL    HW131358  12.560   4.293  13.406 -2.2124  0.1167 -1.1049
39793SOL    HW231359  12.638   4.271  13.278  0.2739  0.1217  0.3523
39794SOL     OW31360   6.055   7.451  10.023 -0.2634  0.4604 -0.3604
39794SOL    HW131361   5.965   7.471  10.000  0.0570  0.2511 -1.9125
39794SOL    HW231362   6.073   7.504  10.100 -2.2172 -0.7536  1.0127
39795SOL     OW31363   1.816   7.152   1.647 -0.1306  0.1936  0.1661
39795SOL    HW131364   1.781   7.063   1.659 -0.0201  0.3248  1.5198
39795SOL    HW231365   1.811   7.166   1.552 -0.7152 -1.0243 -0.0076
39796SOL     OW31366   7.882   2.641   7.438  0.4080  0.1364  0.4595
39796SOL    HW131367   7.805   2.655   7.494  0.2193 -1.8975  0.7931
39796SOL    HW231368   7.846   2.640   7.349 -0.1312 -1.5759  0.6594
39797SOL     OW31369   6.784  14.034  12.711 -1.0272 -0.0560  0.1967
39797SOL    HW131370   6.873  14.022  12.745 -0.3232  0.5634 -1.3152
39797SOL    HW231371   6.730  14.051  12.788 -0.1914 -2.2735  1.3535
39798SOL     OW31372   3.305  10.957   1.721 -0.4754 -0.1409 -0.1130
39798SOL    HW131373   3.325  10.864   1.707  2.9663  0.6336 -1.3118
39798SOL    HW231374   3.243  10.979   1.652  3.0862 -0.4025 -3.7652
39799SOL     OW31375   0.950  11.668   7.288  0.2160  0.5936 -0.1567
39799SOL    HW131376   1.010  11.721   7.341 -0.8666  1.7967 -0.1092
39799SOL    HW231377   0.889  11.731   7.251 -1.0892 -0.6268 -0.1312
39800SOL     OW31378   0.488   3.056   4.561 -0.4997 -0.1368 -0.4254
39800SOL    HW131379   0.554   3.117   4.595  1.1559 -1.7712 -0.5812
39800SOL    HW231380   0.509   2.973   4.603 -3.0826 -0.5163  0.2368
39801SOL     OW31381   3.827   2.559   4.069  0.1007 -0.3380 -0.1937
39801SOL    HW131382   3.786   2.645   4.059 -0.6834 -0.6452  0.2284
39801SOL    HW231383   3.852   2.534   3.980  1.0813  0.6687 -0.2200
39802SOL     OW31384   1.824   5.502   6.667  0.3638  0.3155 -0.3904
39802SOL    HW131385   1.805   5.564   6.597  0.2515  1.0943  0.3120
39802SOL    HW231386   1.836   5.556   6.745  1.4341 -0.4635  0.0130
39803SOL     OW31387   4.986  12.341   1.453 -0.2374  0.6830 -0.4937
39803SOL    HW131388   5.006  12.338   1.547 -0.6736  0.4629 -0.4068
39803SOL    HW231389   4.891  12.357   1.449 -0.7230 -1.8714 -0.8668
39804SOL     OW31390  11.260   7.252  13.021  0.1353 -0.4406 -0.7620
39804SOL    HW131391  11.329   7.192  13.050  1.5845  0.8617 -1.3782
39804SOL    HW231392  11.185   7.230  13.076  1.6962 -0.4363  1.5169
39805SOL     OW31393   4.435   3.776   8.209  0.0501  0.0776 -0.0815
39805SOL    HW131394   4.444   3.872   8.207  0.9478  0.0698  1.6052
39805SOL    HW231395   4.375   3.759   8.282  0.3665 -0.6552  0.0159
39806SOL     OW31396   7.655   2.835   0.105 -0.4135 -0.5920  0.8233
39806SOL    HW131397   7.642   2.767   0.040 -1.6254 -0.0028  0.4060
39806SOL    HW231398   7.591   2.903   0.082  0.2795  0.3751  1.6317
39807SOL     OW31399  10.455   1.824  13.752  0.2510 -0.9669 -0.0598
39807SOL    HW131400  10.450   1.853  13.843 -0.2446  0.8528 -0.6209
39807SOL    HW231401  10.537   1.862  13.720  0.9250 -2.4306 -0.1304
39808SOL     OW31402   9.450  13.337   5.223  0.2378  0.6895  0.3708
39808SOL    HW131403   9.478  13.388   5.299 -0.3189  2.8312 -0.7712
39808SOL    HW231404   9.404  13.401   5.168 -0.2154 -1.0165 -1.3098
39809SOL     OW31405   6.408   1.891   7.269  0.4470 -0.0053 -0.3117
39809SOL    HW131406   6.313   1.893   7.258  0.4479  0.5089 -0.2747
39809SOL    HW231407   6.423   1.833   7.343  0.0101  1.5684  1.0747
39810SOL     OW31408   2.276   0.429   3.792  0.1228 -0.1231  0.2107
39810SOL    HW131409   2.317   0.425   3.706 -1.2920 -0.3233 -0.4850
39810SOL    HW231410   2.208   0.362   3.790  1.2802 -1.4779  2.1915
39811SOL     OW31411   7.871   2.234   7.376 -0.3380  0.1461 -0.0019
39811SOL    HW131412   7.784   2.270   7.365  0.0398  0.8095 -0.9217
39811SOL    HW231413   7.916   2.296   7.434 -0.5821 -0.3891  0.7731
39812SOL     OW31414  10.392   5.255  10.933  0.6681  0.5448 -0.1314
39812SOL    HW131415  10.405   5.346  10.908 -0.0846  0.6100 -0.3261
39812SOL    HW231416  10.480   5.217  10.935  0.9152  1.0539 -0.9094
39813SOL     OW31417  13.559   3.752  11.407 -0.3229 -0.3731 -0.0330
39813SOL    HW131418  13.500   3.709  11.470  0.1214  0.7888  1.2266
39813SOL    HW231419  13.636   3.696  11.403  0.7858  0.8141  2.5458
39814SOL     OW31420  10.613   5.064   3.660  0.2934 -0.4702  0.1080
39814SOL    HW131421  10.566   5.139   3.697 -0.4283 -1.5277  1.4675
39814SOL    HW231422  10.580   5.056   3.571  1.0333  1.3392 -0.3546
39815SOL     OW31423   5.444  14.041   8.359 -0.4703 -0.4138  0.4819
39815SOL    HW131424   5.463  14.018   8.268 -0.0638  0.3039  0.3821
39815SOL    HW231425   5.527  14.028   8.405 -0.5113 -0.1557  0.6287
39816SOL     OW31426  12.017   9.437   8.433 -0.3197 -0.2956  0.4039
39816SOL    HW131427  11.936   9.393   8.460 -1.0536  0.5469 -0.3420
39816SOL    HW231428  11.987   9.509   8.377  0.8752  0.8426  1.1877
39817SOL     OW31429   9.130   0.538  11.059 -0.3790 -0.4495  0.1895
39817SOL    HW131430   9.046   0.575  11.032 -0.2500  0.7441  1.3310
39817SOL    HW231431   9.189   0.613  11.063  0.0695 -0.8530  1.9100
39818SOL     OW31432   3.926   7.591  13.337  0.3037  0.6756 -0.1287
39818SOL    HW131433   3.909   7.636  13.420  1.2570  0.0878  0.4150
39818SOL    HW231434   3.944   7.501  13.363  1.1308  0.5996 -0.9304
39819SOL     OW31435  13.014  13.809   8.817  0.3427 -0.1031  0.1017
39819SOL    HW131436  13.039  13.755   8.892 -0.6604 -0.4499  0.1985
39819SOL    HW231437  12.920  13.822   8.827  0.1552 -0.3221 -1.1992
39820SOL     OW31438   9.658  11.899   4.469 -0.2412 -0.2755  0.5063
39820SOL    HW131439   9.590  11.884   4.403  0.7473 -1.7604 -0.2261
39820SOL    HW231440   9.637  11.838   4.539 -0.3376  0.1212  0.8260
39821SOL     OW31441   5.658   8.638   0.666  0.2852  0.3843 -0.3581
39821SOL    HW131442   5.636   8.564   0.724  1.3901 -2.0589 -2.8331
39821SOL    HW231443   5.744   8.667   0.696 -0.7185  1.6286  1.4658
39822SOL     OW31444   4.261  10.690   1.444  0.4891 -0.0102 -0.1979
39822SOL    HW131445   4.229  10.762   1.390  0.8002 -0.8443 -1.5386
39822SOL    HW231446   4.241  10.717   1.534 -0.8027  1.0378 -0.7655
39823SOL     OW31447  12.401  12.303  12.036  0.0470 -0.6020 -0.2322
39823SOL    HW131448  12.324  12.246  12.026  0.9235 -1.5931 -1.6758
39823SOL    HW231449  12.476  12.243  12.033  1.0354  0.6253 -2.5828
39824SOL     OW31450  10.942   5.736   6.533  0.7952 -0.0681  0.5349
39824SOL    HW131451  10.853   5.771   6.522 -0.1237 -2.6043 -0.9200
39824SOL    HW231452  10.929   5.650   6.571  2.7657 -0.0295  1.3890
39825SOL     OW31453   0.789   4.663   8.945  0.2550 -0.5046 -0.5114
39825SOL    HW131454   0.819   4.682   8.856 -1.8723 -2.3111 -1.7044
39825SOL    HW231455   0.693   4.663   8.939  0.0140  0.0984  1.9976
39826SOL     OW31456  13.409   8.266   3.978  0.6944  0.3050  0.5049
39826SOL    HW131457  13.381   8.261   3.887  1.5581  1.0349  0.1807
39826SOL    HW231458  13.449   8.181   3.996  0.7460  0.2500  0.1210
39827SOL     OW31459   4.469   3.786  13.774  0.3599  0.1319  0.0015
39827SOL    HW131460   4.474   3.799  13.679  0.2525 -0.2568 -0.0609
39827SOL    HW231461   4.391   3.836  13.801  1.2483  1.5078  0.1271
39828SOL     OW31462   8.176   4.643   2.390  0.3072 -0.3695 -0.1788
39828SOL    HW131463   8.169   4.733   2.358 -0.9033 -0.1657  0.5946
39828SOL    HW231464   8.091   4.604   2.368  0.5303 -1.0792  0.2182
39829SOL     OW31465  12.606   3.244   1.345  0.0041 -0.1199  0.0790
39829SOL    HW131466  12.635   3.173   1.402 -1.4097 -0.2223  0.6911
39829SOL    HW231467  12.553   3.202   1.278  1.5117  0.0221 -1.2832
39830SOL     OW31468   0.420   1.330   5.466  0.1898 -0.6279  0.1017
39830SOL    HW131469   0.326   1.347   5.455  0.2112 -0.5048  0.1061
39830SOL    HW231470   0.461   1.416   5.454  0.0399  0.0886  3.5232
39831SOL     OW31471   2.167   9.310   4.176 -0.3375  0.1222 -0.0914
39831SOL    HW131472   2.169   9.343   4.086 -0.7433  0.6155  0.0749
39831SOL    HW231473   2.216   9.228   4.173 -2.2369 -1.0497 -1.2335
39832SOL     OW31474   9.381   1.978   2.526  0.6772  0.3674 -0.1914
39832SOL    HW131475   9.446   2.022   2.581  0.9744 -1.5361  1.0772
39832SOL    HW231476   9.412   1.888   2.520 -2.2885 -0.8886  1.2649
39833SOL     OW31477  10.760  10.337   2.031  0.1055 -0.2221 -0.2312
39833SOL    HW131478  10.804  10.330   1.946 -0.4157  1.2363 -0.6514
39833SOL    HW231479  10.832  10.334   2.095  0.5455 -0.8145 -0.7447
39834SOL     OW31480   2.624   9.058   3.067 -0.1341 -0.1974  0.5563
39834SOL    HW131481   2.542   9.039   3.021  0.8853 -0.7722 -1.1212
39834SOL    HW231482   2.691   9.052   2.999  1.3405 -0.0680  1.9508
39835SOL     OW31483   5.935   9.706   3.929 -0.0212 -0.3045 -0.0756
39835SOL    HW131484   5.846   9.677   3.947 -0.2614 -1.0614 -2.1872
39835SOL    HW231485   5.982   9.625   3.904  1.1569  0.1356  0.6068
39836SOL     OW31486   1.936   7.106  11.202  0.1511 -0.0592 -0.2294
39836SOL    HW131487   1.883   7.164  11.257 -3.3502 -5.1839  2.7221
39836SOL    HW231488   1.902   7.118  11.114 -0.0465  2.5493  0.1398
39837SOL     OW31489   4.573  12.688  11.256  0.5284 -0.0501 -0.0217
39837SOL    HW131490   4.602  12.756  11.195  2.1507 -0.2098  0.5313
39837SOL    HW231491   4.641  12.621  11.252  0.7582 -0.0058  2.0561
39838SOL     OW31492   9.143  13.843  13.954  0.0731 -0.1346 -0.2769
39838SOL    HW131493   9.068  13.903  13.951 -0.2577 -0.4272  1.2785
39838SOL    HW231494   9.153  13.813  13.864 -0.6669  1.1383 -0.8176
39839SOL     OW31495   5.502   9.072   5.233 -0.1717  0.3191  0.3549
39839SOL    HW131496   5.426   9.026   5.269 -0.5265  0.0629 -0.7061
39839SOL    HW231497   5.566   9.003   5.218 -0.5936  0.1815 -0.9488
39840SOL     OW31498  11.169   7.735   2.217  0.2237 -0.0630  0.4742
39840SOL    HW131499  11.135   7.747   2.129 -1.2361  1.0078  1.1448
39840SOL    HW231500  11.184   7.641   2.224  2.0441  0.0073 -1.4662
39841SOL     OW31501   3.851   3.075   8.731 -0.4264  0.5643  0.2350
39841SOL    HW131502   3.836   3.005   8.668 -0.4798  0.3682  0.4660
39841SOL    HW231503   3.939   3.108   8.710 -0.6039  0.7641 -0.1945
39842SOL     OW31504   9.668  10.894  11.633  0.8155 -0.0176 -0.3300
39842SOL    HW131505   9.761  10.894  11.608  1.0412  1.1603  0.4456
39842SOL    HW231506   9.623  10.934  11.559  0.9417 -0.4258 -0.6310
39843SOL     OW31507   8.097  13.622   8.248  0.0278 -0.3599 -0.1626
39843SOL    HW131508   8.071  13.673   8.171  0.0109 -1.0227 -0.6087
39843SOL    HW231509   8.181  13.584   8.224 -1.1847 -2.7752 -0.9867
39844SOL     OW31510  10.479  10.664  12.879  0.2926  0.8138 -0.1074
39844SOL    HW131511  10.427  10.744  12.883 -0.3899  0.4570 -1.2040
39844SOL    HW231512  10.423  10.602  12.831  0.5527 -0.5183  1.2120
39845SOL     OW31513  12.921   7.788  10.772  0.5593  0.0971 -0.0840
39845SOL    HW131514  12.889   7.699  10.782  1.4664 -0.0653  1.7206
39845SOL    HW231515  12.915   7.805  10.678  1.5235 -2.3039 -0.6623
39846SOL     OW31516   6.573   7.536  10.980 -0.0014  0.0896 -0.2589
39846SOL    HW131517   6.663   7.560  11.001  0.8292 -1.6713 -1.5521
39846SOL    HW231518   6.581   7.470  10.911 -2.2403 -1.1603  0.5646
39847SOL     OW31519  12.712  13.225  13.651 -0.1748 -0.6419 -0.3228
39847SOL    HW131520  12.799  13.262  13.657  1.5101 -4.3161  1.1509
39847SOL    HW231521  12.687  13.207  13.742 -1.0912 -2.3557 -0.8563
39848SOL     OW31522   6.643  10.965   1.682  0.3259 -0.0861  0.0218
39848SOL    HW131523   6.554  10.955   1.716  0.7284  0.0724  1.1693
39848SOL    HW231524   6.631  10.987   1.590 -0.8242  0.1422  0.2077
39849SOL     OW31525   8.400   3.540  10.638  0.4131 -0.0993 -0.3601
39849SOL    HW131526   8.486   3.545  10.680  0.1851  0.2009  0.0747
39849SOL    HW231527   8.355   3.620  10.666  0.0419 -0.1896 -0.6972
39850SOL     OW31528   9.228   7.425   2.187 -0.0859 -0.7523 -0.3284
39850SOL    HW131529   9.311   7.411   2.233 -0.5686 -1.0898  0.4509
39850SOL    HW231530   9.254   7.458   2.101  0.8771 -1.2995 -0.2618
39851SOL     OW31531  11.655   1.310   2.253 -0.1611 -0.5324  0.1864
39851SOL    HW131532  11.676   1.263   2.172  0.2796 -0.2697  0.1408
39851SOL    HW231533  11.717   1.275   2.318  1.4001  1.1822 -0.2704
39852SOL     OW31534   1.831  11.082  10.210  0.1317 -0.2982  0.0515
39852SOL    HW131535   1.907  11.093  10.152 -0.8627  1.0164 -1.0857
39852SOL    HW231536   1.760  11.057  10.151 -1.0346  1.5715  0.5769
39853SOL     OW31537   3.099   3.549  13.341 -0.6413  0.2225  0.2964
39853SOL    HW131538   3.070   3.472  13.389 -3.4661  0.8389 -0.2006
39853SOL    HW231539   3.042   3.619  13.373  0.9409  1.8295 -0.2317
39854SOL     OW31540   1.224  11.917   8.051  0.2174  1.0195  0.1788
39854SOL    HW131541   1.298  11.880   8.101  1.4359  0.1809 -2.0905
39854SOL    HW231542   1.158  11.848   8.052  0.7945  0.4379 -0.4822
39855SOL     OW31543   7.801   9.211   6.098  0.3140 -0.5876 -0.4012
39855SOL    HW131544   7.802   9.271   6.024  1.3132 -0.9235 -0.6742
39855SOL    HW231545   7.713   9.221   6.136  0.5833  1.3112 -0.1974
39856SOL     OW31546  13.741   7.939   0.968 -0.7707  0.0497  0.1836
39856SOL    HW131547  13.761   8.030   0.945  0.2986 -0.4858 -1.1599
39856SOL    HW231548  13.787   7.924   1.050  3.7304 -0.7756 -2.2015
39857SOL     OW31549  10.839   8.331   1.518 -0.0959  0.3143  0.0325
39857SOL    HW131550  10.857   8.237   1.528 -0.0383  0.3278  0.0537
39857SOL    HW231551  10.910   8.374   1.565 -1.1029  0.3484  1.5957
39858SOL     OW31552  13.822   7.472   8.241 -0.8696 -0.1111  0.2006
39858SOL    HW131553  13.734   7.507   8.232 -0.8048  0.2330  0.8678
39858SOL    HW231554  13.813   7.401   8.305 -0.3555  1.0988  1.6585
39859SOL     OW31555   2.403   1.835  13.900  0.4630  0.4245 -0.1558
39859SOL    HW131556   2.463   1.760  13.902 -1.4406 -1.2233 -0.8464
39859SOL    HW231557   2.440   1.893  13.834  2.1124  0.2203  0.5429
39860SOL     OW31558   4.485   7.728   2.927  0.7367 -0.0959 -0.0240
39860SOL    HW131559   4.442   7.681   2.856 -0.1690 -1.1413  1.1797
39860SOL    HW231560   4.532   7.660   2.976  0.5784  0.4629  0.9274
39861SOL     OW31561   6.446   5.329   5.890 -0.2190  0.0571  0.3489
39861SOL    HW131562   6.438   5.260   5.955 -1.0962 -0.2219 -0.0468
39861SOL    HW231563   6.356   5.347   5.862  0.1026  0.5278 -0.4152
39862SOL     OW31564  13.042   9.328   8.210 -0.0665 -0.1740 -0.1648
39862SOL    HW131565  13.065   9.338   8.303  0.7158 -0.2154 -0.3450
39862SOL    HW231566  13.021   9.235   8.200  0.1910 -0.2393 -0.1022
39863SOL     OW31567  11.859   4.922   8.228  0.2170  0.1419  0.3583
39863SOL    HW131568  11.785   4.978   8.208  1.1955  1.4012  0.1677
39863SOL    HW231569  11.837   4.838   8.187 -2.3598 -0.4558  2.6649
39864SOL     OW31570  12.586   7.126   7.555  0.4783 -0.0505 -0.4179
39864SOL    HW131571  12.671   7.170   7.556  0.1253  0.7095 -1.7143
39864SOL    HW231572  12.606   7.034   7.573  1.4172  0.3346  0.6166
39865SOL     OW31573   1.042   9.439   6.870 -0.1451 -0.4184 -0.6668
39865SOL    HW131574   0.994   9.495   6.810  0.1662 -1.0859 -1.5577
39865SOL    HW231575   0.986   9.433   6.947 -0.7762  0.0528 -1.0828
39866SOL     OW31576  12.925  13.691   1.210  0.1325 -0.2176  0.1023
39866SOL    HW131577  12.979  13.680   1.288 -0.7232  0.0817  0.7459
39866SOL    HW231578  12.843  13.647   1.231 -0.9009  1.6705  0.1982
39867SOL     OW31579   2.869   0.913   6.204  0.1975 -0.5143  0.5966
39867SOL    HW131580   2.822   0.829   6.209  0.0263 -0.6635 -1.8639
39867SOL    HW231581   2.811   0.976   6.246 -0.8867 -1.2093  0.1945
39868SOL     OW31582   2.122   2.724   6.894  0.3048  0.0888 -0.0100
39868SOL    HW131583   2.191   2.787   6.915  1.3632 -0.6133 -1.2800
39868SOL    HW231584   2.079   2.707   6.978 -0.3054  2.8011  0.3237
39869SOL     OW31585   1.912   4.676  10.873 -0.2706  0.2603 -0.6158
39869SOL    HW131586   1.837   4.624  10.902 -0.0860 -0.0458 -0.6798
39869SOL    HW231587   1.946   4.627  10.797 -0.1287  0.5045 -0.7095
39870SOL     OW31588   0.804  11.412   4.324 -0.2795 -0.6595  0.4386
39870SOL    HW131589   0.720  11.368   4.329 -1.3585  0.8799 -2.2125
39870SOL    HW231590   0.832  11.400   4.233  0.8819  1.3811  0.4736
39871SOL     OW31591   6.168   7.825   9.498  0.2801 -0.2012 -0.1592
39871SOL    HW131592   6.183   7.745   9.447 -0.0704 -0.2801 -0.1412
39871SOL    HW231593   6.083   7.857   9.469 -1.0724 -1.5258  1.9798
39872SOL     OW31594  11.773   3.957   9.250 -0.2494 -0.2195 -0.3005
39872SOL    HW131595  11.744   3.981   9.338 -1.5055  0.7294 -0.9418
39872SOL    HW231596  11.754   3.864   9.242  0.1866 -0.3896  0.5322
39873SOL     OW31597   0.604  10.665   5.229 -0.2327  0.2572 -0.0645
39873SOL    HW131598   0.575  10.716   5.305 -0.4707  0.1205 -0.0652
39873SOL    HW231599   0.534  10.603   5.213  0.5167 -0.7938  0.6055
39874SOL     OW31600   1.240   8.468   7.340 -0.2276  0.9757 -0.7735
39874SOL    HW131601   1.242   8.546   7.285 -0.3207  2.2739  1.0025
39874SOL    HW231602   1.231   8.501   7.429  0.3009 -1.0467  0.0855
39875SOL     OW31603   0.713  10.769  12.043 -0.2884  0.1629 -0.6149
39875SOL    HW131604   0.718  10.807  11.955  2.3862 -0.7494 -0.9468
39875SOL    HW231605   0.745  10.838  12.100 -0.1661  0.1109 -0.6198
39876SOL     OW31606  11.370   0.217  13.643  0.4979  0.3511 -0.3588
39876SOL    HW131607  11.342   0.187  13.557 -0.5344 -0.0284  0.0873
39876SOL    HW231608  11.330   0.303  13.653  1.4556  0.8407 -0.6596
39877SOL     OW31609  11.919   3.147   9.934 -0.9316 -0.6227  0.4775
39877SOL    HW131610  11.990   3.088   9.907 -0.6270 -0.3749  0.7347
39877SOL    HW231611  11.850   3.088   9.963  0.9519 -1.0043  5.0631
39878SOL     OW31612   5.991   3.232  12.437 -0.0868 -0.5830  0.5066
39878SOL    HW131613   6.042   3.164  12.393  0.1808  1.3968 -2.5188
39878SOL    HW231614   6.057   3.294  12.469 -0.3697 -1.2673  2.5696
39879SOL     OW31615   6.990  13.048  10.426  0.2925 -0.2678 -0.1054
39879SOL    HW131616   6.992  13.087  10.514 -0.3989  0.4375 -0.3927
39879SOL    HW231617   7.050  12.973  10.432  0.7406  0.1417  0.7899
39880SOL     OW31618  12.783  13.144   5.005  0.2058  0.3486  0.4859
39880SOL    HW131619  12.856  13.099   4.963  0.1894 -1.3679  2.1704
39880SOL    HW231620  12.706  13.093   4.981 -0.5911  2.2944 -1.4986
39881SOL     OW31621   6.539   3.849   6.222 -0.7205 -0.2194  0.1831
39881SOL    HW131622   6.504   3.921   6.274 -0.9461 -0.5677  0.5140
39881SOL    HW231623   6.543   3.775   6.282  0.4974 -0.2266  0.1276
39882SOL     OW31624  12.395  13.147   4.201  0.0531  0.2105 -0.3046
39882SOL    HW131625  12.368  13.115   4.288  1.3848  1.2902  0.5516
39882SOL    HW231626  12.441  13.228   4.219 -2.7069  2.4292 -2.3417
39883SOL     OW31627   1.441   6.797   0.471 -0.3358  0.0047 -0.0773
39883SOL    HW131628   1.404   6.721   0.427 -0.3781  0.3376 -0.6281
39883SOL    HW231629   1.366   6.848   0.500 -0.3829  1.1933 -2.0764
39884SOL     OW31630  11.952  11.237   6.364  0.1930 -0.2350 -0.7045
39884SOL    HW131631  12.027  11.238   6.305 -0.7289 -2.0460 -1.9768
39884SOL    HW231632  11.981  11.186   6.440  0.6932  0.3311 -0.5044
39885SOL     OW31633   6.402   0.195  12.002  0.0543  0.0115 -0.0473
39885SOL    HW131634   6.321   0.231  11.965 -1.2918 -0.5708  2.1553
39885SOL    HW231635   6.373   0.130  12.065  2.2684 -0.3119  0.7275
39886SOL     OW31636   7.198   6.866   4.923 -0.2128 -0.3572  0.2850
39886SOL    HW131637   7.271   6.862   4.861 -1.2454 -2.9444 -0.9315
39886SOL    HW231638   7.221   6.803   4.992 -0.0810  0.8695  1.3956
39887SOL     OW31639  10.284   1.513   3.287 -0.1278  0.1745 -0.6252
39887SOL    HW131640  10.210   1.483   3.339  0.6564  0.0301  0.4662
39887SOL    HW231641  10.294   1.606   3.310  0.9429 -0.1707  0.4456
39888SOL     OW31642  12.982   5.094   1.514 -0.2103  0.1043  0.1654
39888SOL    HW131643  13.005   5.166   1.456 -2.5963 -0.4277 -1.5880
39888SOL    HW231644  13.057   5.086   1.573  1.1500  2.4404 -1.0911
39889SOL     OW31645   7.134   4.008   1.854  0.5010 -0.3437 -0.3149
39889SOL    HW131646   7.123   3.975   1.944  4.0196  2.8949  1.6009
39889SOL    HW231647   7.074   4.082   1.848  0.4635 -0.3909 -0.5029
39890SOL     OW31648   1.552   6.957  11.815 -0.2434  0.3107  0.0403
39890SOL    HW131649   1.586   6.963  11.725  2.9377  3.6061  1.2413
39890SOL    HW231650   1.608   6.891  11.857  0.4406  1.1067  0.3938
39891SOL     OW31651  10.240   6.322  13.248  0.3441 -0.1910 -0.2360
39891SOL    HW131652  10.169   6.265  13.277 -1.5942  3.1006  2.1901
39891SOL    HW231653  10.318   6.266  13.251 -1.2238 -2.5337  2.7582
39892SOL     OW31654  11.057  13.337   7.387  0.7033 -0.5916  0.9790
39892SOL    HW131655  11.033  13.364   7.475  1.0745  1.0818  0.6084
39892SOL    HW231656  11.128  13.274   7.399  0.3695 -0.8134  1.8711
39893SOL     OW31657  13.268   2.817   5.982  0.0436  0.4099 -0.5594
39893SOL    HW131658  13.361   2.799   5.965  0.6649  1.8722  1.0066
39893SOL    HW231659  13.251   2.898   5.934 -0.7263 -0.3679 -1.6415
39894SOL     OW31660  13.846   6.847   9.658  0.3458 -0.3452  0.0092
39894SOL    HW131661  13.871   6.820   9.746  1.3941 -0.1141 -0.2100
39894SOL    HW231662  13.867   6.940   9.655  0.5897 -0.4162 -0.5795
39895SOL     OW31663  10.768   1.586   0.707  0.6366  0.2038  0.3688
39895SOL    HW131664  10.787   1.655   0.643  0.3092 -0.4683 -0.4822
39895SOL    HW231665  10.802   1.506   0.666  0.0047 -0.3087  0.8329
39896SOL     OW31666   6.413   3.308  12.309  0.2052 -0.3128 -0.9763
39896SOL    HW131667   6.488   3.260  12.276  0.4835 -0.4540 -0.1725
39896SOL    HW231668   6.411   3.287  12.403 -0.6596 -0.0818 -0.9321
39897SOL     OW31669   5.338   8.334  13.395 -0.1795 -0.4059  0.0075
39897SOL    HW131670   5.307   8.340  13.305  0.7581 -0.9724 -0.3696
39897SOL    HW231671   5.382   8.249  13.399 -1.5384 -1.1000  1.4216
39898SOL     OW31672  11.580   2.542   7.530  0.3784  0.3221 -0.1636
39898SOL    HW131673  11.546   2.467   7.482  0.1672  0.3522 -0.0635
39898SOL    HW231674  11.502   2.590   7.559  0.4397 -0.5194  1.5273
39899SOL     OW31675   9.939   6.371   2.768 -0.6735  0.1911 -0.3529
39899SOL    HW131676   9.979   6.419   2.840  1.1003 -0.2397 -0.9842
39899SOL    HW231677  10.002   6.301   2.749 -0.7455  0.6961 -2.7372
39900SOL     OW31678   1.313   8.986  13.099 -0.5445  0.3287  0.1491
39900SOL    HW131679   1.290   8.915  13.159 -2.0126  0.1211 -0.6146
39900SOL    HW231680   1.334   8.942  13.016  0.5395  0.6745  0.2233
39901SOL     OW31681  12.792   3.100  13.873  0.1055 -0.7492 -0.6664
39901SOL    HW131682  12.808   3.012  13.907  0.3592 -0.8260 -0.9769
39901SOL    HW231683  12.698   3.102  13.854 -0.0278 -0.7279 -0.0409
39902SOL     OW31684  12.642   4.319  12.134 -0.3138 -0.5186 -0.1042
39902SOL    HW131685  12.645   4.387  12.201 -0.4781 -1.9095  1.3954
39902SOL    HW231686  12.588   4.356  12.064  0.6957  1.3567  0.0606
39903SOL     OW31687   8.387   7.470   6.113 -0.4977 -0.4494  0.1739
39903SOL    HW131688   8.377   7.415   6.191  0.6861  0.3199  0.8937
39903SOL    HW231689   8.478   7.458   6.086 -0.4552  0.5086 -0.1580
39904SOL     OW31690   8.443   5.541  12.042 -0.0357  0.2362  0.3326
39904SOL    HW131691   8.404   5.483  11.977  1.4125 -0.0214 -0.3391
39904SOL    HW231692   8.384   5.536  12.117 -1.2034 -0.2363 -0.5888
39905SOL     OW31693  12.938  13.308   7.222  0.4519  0.0447  0.3165
39905SOL    HW131694  12.891  13.268   7.295  1.7684 -0.6696  0.8153
39905SOL    HW231695  13.020  13.338   7.260  0.2005  1.7764 -0.4110
39906SOL     OW31696   5.648   7.894  13.836  0.6359 -0.2593  0.1772
39906SOL    HW131697   5.599   7.842  13.901 -0.2304 -0.0894 -0.3189
39906SOL    HW231698   5.734   7.853  13.833  0.2561 -1.1113  0.4635
39907SOL     OW31699  11.361  10.529  10.607  0.4902  0.0641 -0.4704
39907SOL    HW131700  11.427  10.465  10.583  0.7496  0.2736 -0.3222
39907SOL    HW231701  11.356  10.524  10.703  0.6596  0.4054 -0.4401
39908SOL     OW31702   6.831  10.930   8.859  0.2951 -0.0703  0.0411
39908SOL    HW131703   6.788  10.864   8.913  0.3489  0.4814  0.7660
39908SOL    HW231704   6.809  11.014   8.900 -0.3666  0.4401 -1.2627
39909SOL     OW31705   0.663   4.718   2.778 -0.7822  0.0409  0.5065
39909SOL    HW131706   0.729   4.682   2.838  0.4438 -0.2305 -0.9383
39909SOL    HW231707   0.580   4.682   2.809 -0.4049  1.0569  2.8969
39910SOL     OW31708   2.678   6.537   9.810  1.2712  0.1697 -0.0938
39910SOL    HW131709   2.680   6.520   9.904  1.2661  0.3190 -0.0683
39910SOL    HW231710   2.665   6.631   9.802 -0.3682 -0.0427 -0.2503
39911SOL     OW31711   4.011  13.031   3.760  0.7279 -0.6376 -0.1498
39911SOL    HW131712   4.024  13.080   3.678  0.0357 -0.4963 -0.1795
39911SOL    HW231713   3.918  13.042   3.780  0.1438 -3.2589 -1.0228
39912SOL     OW31714   2.233   0.140  11.120 -0.2029  0.5122  0.1380
39912SOL    HW131715   2.258   0.155  11.029  1.9875 -0.7120  0.4452
39912SOL    HW231716   2.293   0.071  11.149 -2.5042 -0.9269  1.7997
39913SOL     OW31717   8.088  10.238   3.783  0.0838  0.1363  0.1304
39913SOL    HW131718   8.051  10.279   3.705 -0.8172 -0.8822 -0.0169
39913SOL    HW231719   8.074  10.302   3.853 -2.4280 -0.3458  0.1626
39914SOL     OW31720   3.547   1.853   2.361 -0.1564  0.7644  0.5075
39914SOL    HW131721   3.584   1.873   2.275 -2.4030  0.1697 -0.6537
39914SOL    HW231722   3.539   1.939   2.404 -1.2785  1.3878 -0.8629
39915SOL     OW31723   0.043   8.900   8.824  0.2697  0.4656  0.3462
39915SOL    HW131724   0.085   8.863   8.747 -0.9620  0.8077 -0.5301
39915SOL    HW231725   0.115   8.921   8.884  1.2248 -0.0517 -0.6003
39916SOL     OW31726   3.833   2.714   7.975 -0.9409 -0.0500 -0.2354
39916SOL    HW131727   3.879   2.727   7.892 -1.3485 -2.4020 -0.9071
39916SOL    HW231728   3.751   2.671   7.951 -0.3336 -2.3661  1.4305
39917SOL     OW31729   2.867  13.067  11.036 -0.0083  0.0698 -0.3292
39917SOL    HW131730   2.850  13.100  11.125  0.0677  1.5175 -0.8311
39917SOL    HW231731   2.791  13.096  10.985  0.2432 -0.2250 -0.8769
39918SOL     OW31732  13.841   0.640   9.901  0.0082  0.5686  0.6311
39918SOL    HW131733  13.819   0.729   9.929 -1.0114  0.2289  0.9431
39918SOL    HW231734  13.766   0.587   9.927 -0.2219 -0.0767 -1.1643
39919SOL     OW31735  11.250   1.447   7.660 -0.5322 -0.3199  0.2411
39919SOL    HW131736  11.265   1.433   7.754 -1.0229 -0.2902  0.3231
39919SOL    HW231737  11.338   1.449   7.623 -0.3346 -0.3737  0.6949
39920SOL     OW31738   7.203   9.350  12.423 -0.3253  0.0391 -0.0441
39920SOL    HW131739   7.222   9.328  12.515 -0.6632 -0.5374 -0.1056
39920SOL    HW231740   7.145   9.426  12.428 -1.1409 -0.5859  0.2584
39921SOL     OW31741   4.578   2.603   2.024 -0.5810 -0.7341 -0.0033
39921SOL    HW131742   4.645   2.535   2.012  1.1969  0.8364  0.3932
39921SOL    HW231743   4.591   2.634   2.114 -1.1027  0.3358 -0.2777
39922SOL     OW31744   4.059   7.720  13.618  0.4540 -0.4887  0.0119
39922SOL    HW131745   4.132   7.667  13.586  0.5436 -0.2859 -0.1174
39922SOL    HW231746   4.100   7.793  13.663  0.3314 -0.7469  0.5562
39923SOL     OW31747   3.300   0.878   0.776 -0.3253  0.5319 -0.3754
39923SOL    HW131748   3.290   0.973   0.784 -0.3185  0.5802 -0.9380
39923SOL    HW231749   3.365   0.855   0.843 -0.0701  0.9725 -0.4673
39924SOL     OW31750   0.618   6.513   0.268 -0.0118  0.1392 -0.5028
39924SOL    HW131751   0.655   6.600   0.281 -1.5541  0.5464  1.6358
39924SOL    HW231752   0.527   6.529   0.241 -0.5773 -0.7695  0.7664
39925SOL     OW31753   6.218   6.574   9.740  0.2667 -0.2909 -0.3396
39925SOL    HW131754   6.275   6.508   9.701 -0.3504 -1.6754  0.9638
39925SOL    HW231755   6.177   6.529   9.814 -0.5714  1.4253  0.3002
39926SOL     OW31756   1.808   9.708  11.212  0.1669 -0.1606  0.0547
39926SOL    HW131757   1.817   9.738  11.121  0.4832  1.2566  0.5339
39926SOL    HW231758   1.853   9.624  11.214  0.7623  0.1202 -0.9396
39927SOL     OW31759   0.154   9.714  13.476 -0.0370 -1.1090  0.4874
39927SOL    HW131760   0.161   9.809  13.483  0.8432 -0.9609 -1.5951
39927SOL    HW231761   0.126   9.698  13.386 -0.3788 -2.8263  0.8509
39928SOL     OW31762  10.745   6.535   0.366  0.2966 -0.4117  0.1176
39928SOL    HW131763  10.784   6.447   0.365  1.7430  0.1407  2.1425
39928SOL    HW231764  10.741   6.558   0.458 -3.0004  0.4562 -0.1207
39929SOL     OW31765  13.127  10.741   8.720  1.3684 -0.7096 -0.3911
39929SOL    HW131766  13.057  10.703   8.772  0.7591  0.8591 -0.0026
39929SOL    HW231767  13.204  10.736   8.777  0.2382  3.2184  1.9335
39930SOL     OW31768   3.473   9.458  12.649 -0.6445 -0.1010  0.0666
39930SOL    HW131769   3.459   9.520  12.578  0.0952 -0.1744 -0.1519
39930SOL    HW231770   3.519   9.508  12.716  0.4307 -0.5375 -0.3288
39931SOL     OW31771  12.389  10.432  13.522 -0.5210 -0.4224 -0.2186
39931SOL    HW131772  12.423  10.491  13.589  1.1175 -0.7299 -0.7354
39931SOL    HW231773  12.294  10.434  13.534 -0.3034 -0.0862  1.7631
39932SOL     OW31774   3.042  10.829  12.787  0.3949 -0.1844  0.6500
39932SOL    HW131775   3.127  10.784  12.795 -1.2490 -3.5072  0.9535
39932SOL    HW231776   2.985  10.766  12.744 -2.6424  0.8970  2.7359
39933SOL     OW31777  10.971   3.670   2.570  0.0036 -0.0343 -0.0344
39933SOL    HW131778  10.961   3.720   2.650  0.9866  1.7824 -0.9783
39933SOL    HW231779  10.884   3.670   2.529 -0.3284 -0.3493  0.6664
39934SOL     OW31780  13.931  11.636  13.860 -0.4822  0.0708  0.5493
39934SOL    HW131781  13.912  11.610  13.769  1.2004  0.9886 -0.1071
39934SOL    HW231782  13.924  11.731  13.859  2.0315  0.3196  0.7193
39935SOL     OW31783  10.889   7.676   2.861 -0.1203  0.7468 -0.1771
39935SOL    HW131784  10.944   7.721   2.925  0.1412  0.6283 -0.3170
39935SOL    HW231785  10.940   7.679   2.780  0.5983 -1.1479  0.1673
39936SOL     OW31786  12.770   0.821   8.890 -0.0059 -0.0810  0.2069
39936SOL    HW131787  12.691   0.785   8.931  1.7371 -3.9678  0.6315
39936SOL    HW231788  12.818   0.861   8.962 -0.7787  0.7586  0.2684
39937SOL     OW31789   0.355   1.299   8.468  0.2240 -0.0990 -0.3380
39937SOL    HW131790   0.399   1.264   8.545 -0.4746  1.8030  1.0169
39937SOL    HW231791   0.286   1.236   8.449 -1.4957  0.7545  2.4857
39938SOL     OW31792  11.746   7.410  10.870 -0.1586 -0.2209  0.3275
39938SOL    HW131793  11.673   7.378  10.922  0.8464 -0.2864  1.7321
39938SOL    HW231794  11.735   7.368  10.785 -0.7162 -1.6855  1.0961
39939SOL     OW31795   9.706  11.121   0.750  0.4690  0.1809 -0.5055
39939SOL    HW131796   9.702  11.068   0.670  1.6789  2.0093 -1.8530
39939SOL    HW231797   9.799  11.130   0.768  0.2125 -1.0867  1.8022
39940SOL     OW31798   2.700   6.620  12.395 -0.0138 -0.1773 -0.3158
39940SOL    HW131799   2.671   6.710  12.383 -0.6505 -0.4680 -1.0294
39940SOL    HW231800   2.795   6.624  12.383  0.1015  0.5708  0.7644
39941SOL     OW31801   3.225   2.797   9.332 -0.0883  0.6492 -0.2399
39941SOL    HW131802   3.140   2.786   9.376 -1.6593  1.7238 -2.7644
39941SOL    HW231803   3.250   2.708   9.307 -0.9168  0.3941 -0.2125
39942SOL     OW31804   9.022   4.066   7.705  0.1697  0.1403 -0.6454
39942SOL    HW131805   9.012   4.028   7.618  0.1269  0.1453 -0.6422
39942SOL    HW231806   9.032   3.991   7.764  0.1743  0.1364 -0.6512
39943SOL     OW31807  11.084   7.866   1.980  0.3462 -0.6587 -0.4021
39943SOL    HW131808  11.045   7.953   1.978 -0.6249 -1.0415  0.7720
39943SOL    HW231809  11.068   7.830   1.893 -0.6023 -0.2431 -0.4118
39944SOL     OW31810  12.797   2.359  13.706 -0.0841 -0.0601 -0.6454
39944SOL    HW131811  12.892   2.354  13.698  0.0494 -2.5026  1.3148
39944SOL    HW231812  12.763   2.320  13.626  0.5916 -0.6230 -0.6546
39945SOL     OW31813   0.205   7.777  11.975 -0.6751 -0.5817  0.1370
39945SOL    HW131814   0.215   7.768  12.070 -1.0463 -0.2463  0.2087
39945SOL    HW231815   0.270   7.717  11.939  2.1634  1.9669  0.5870
39946SOL     OW31816   7.926  13.449   5.737  0.2765 -0.5240 -0.3593
39946SOL    HW131817   7.925  13.501   5.817 -0.5922 -0.1209 -0.6287
39946SOL    HW231818   7.995  13.384   5.752 -0.9362 -1.4725  1.3678
39947SOL     OW31819   1.988   0.258  11.072  0.1490 -0.6680 -0.5410
39947SOL    HW131820   2.061   0.213  11.115 -0.8404 -1.5826  0.2482
39947SOL    HW231821   1.984   0.343  11.116 -0.1979 -1.1969  0.4900
39948SOL     OW31822   0.139  13.174  12.256 -0.4742  0.3924 -0.5628
39948SOL    HW131823   0.122  13.085  12.287 -0.3368  0.4877 -0.2098
39948SOL    HW231824   0.056  13.221  12.271  0.2937  1.0950  1.9872
39949SOL     OW31825   8.633   5.619   7.247 -0.2084  0.4378 -0.2587
39949SOL    HW131826   8.611   5.535   7.206  1.4767 -0.0708 -0.2042
39949SOL    HW231827   8.703   5.654   7.192 -0.0322  1.2115  0.4454
39950SOL     OW31828  13.125   2.334  11.943 -0.5497 -0.1982  0.2335
39950SOL    HW131829  13.139   2.354  11.850  0.5829 -2.0200 -0.0496
39950SOL    HW231830  13.107   2.419  11.984 -1.4456  0.6121 -1.6885
39951SOL     OW31831   7.704   8.633   9.732  0.6347 -0.3582 -0.4567
39951SOL    HW131832   7.776   8.575   9.756  1.0740  0.0731 -0.7184
39951SOL    HW231833   7.636   8.616   9.797  1.2636 -0.2297  0.2409
39952SOL     OW31834  13.565   2.737   5.038  0.1438 -0.3357  0.0613
39952SOL    HW131835  13.627   2.796   4.996  1.4978 -1.9317 -0.2737
39952SOL    HW231836  13.527   2.685   4.966  0.2503 -1.0355  0.4946
39953SOL     OW31837   3.757   2.789   9.787  0.2366 -0.4988 -0.8326
39953SOL    HW131838   3.714   2.837   9.858 -0.1335 -1.2540 -0.5395
39953SOL    HW231839   3.786   2.857   9.726  1.3581  0.2314  0.4652
39954SOL     OW31840   4.467   1.405   2.411  0.2909  1.0375 -0.0230
39954SOL    HW131841   4.482   1.372   2.500  1.5778  0.6457 -0.3670
39954SOL    HW231842   4.478   1.500   2.419 -1.2743  1.1959  0.5475
39955SOL     OW31843   6.662   5.249  13.438  0.3169 -0.1891  0.4584
39955SOL    HW131844   6.748   5.239  13.397  0.3675  1.1940  0.1857
39955SOL    HW231845   6.630   5.159  13.449  1.1670 -0.6709 -0.7701
39956SOL     OW31846   0.569   5.676  12.571  0.2304  0.7355 -0.3902
39956SOL    HW131847   0.609   5.734  12.636  2.1681  0.9559 -1.7217
39956SOL    HW231848   0.634   5.606  12.557 -0.5111  0.2283 -1.4693
39957SOL     OW31849  12.667   0.975  13.245 -0.4899  0.2314  0.2036
39957SOL    HW131850  12.597   0.938  13.191 -1.2422  0.8732  0.7167
39957SOL    HW231851  12.723   1.022  13.183 -0.9391  0.3593 -0.1110
39958SOL     OW31852   5.927  13.433  11.733 -0.6652  0.5747 -0.1370
39958SOL    HW131853   5.940  13.481  11.651 -2.2400 -0.1004 -0.8305
39958SOL    HW231854   6.005  13.378  11.740 -2.2287 -2.5246 -3.5309
39959SOL     OW31855   9.653   6.774   7.282  0.6197 -0.2929 -0.2854
39959SOL    HW131856   9.748   6.762   7.282  0.4214 -2.6781 -1.8382
39959SOL    HW231857   9.624   6.731   7.201 -1.7858  0.3406  0.1677
39960SOL     OW31858   3.769  11.981   9.004  0.4824 -0.0778 -0.4521
39960SOL    HW131859   3.687  11.994   9.051  0.2090  1.7466 -1.3504
39960SOL    HW231860   3.760  11.895   8.964 -1.1877  0.2432 -0.8560
39961SOL     OW31861  11.556   1.375   5.485  0.6092  0.1335  0.3666
39961SOL    HW131862  11.469   1.349   5.455  0.6033 -0.9546  1.2802
39961SOL    HW231863  11.612   1.302   5.461  1.0694  0.3615  0.7389
39962SOL     OW31864  11.324   6.235   7.313  0.1821 -0.1291  0.0787
39962SOL    HW131865  11.240   6.270   7.343  0.2314  1.4608 -1.3986
39962SOL    HW231866  11.303   6.186   7.234  0.3377 -2.1710  1.2463
39963SOL     OW31867  12.740   4.232  12.991  0.2504  0.1916 -0.4123
39963SOL    HW131868  12.827   4.198  13.014  0.6332 -0.0773 -2.1256
39963SOL    HW231869  12.681   4.159  13.007  0.5301 -0.0459 -0.4475
39964SOL     OW31870   5.001   0.258   9.982 -0.1835  0.2229 -0.2936
39964SOL    HW131871   5.080   0.279  10.031 -0.4202 -1.2658  0.8060
39964SOL    HW231872   5.032   0.207   9.907 -0.1536 -1.1955  0.6597
39965SOL     OW31873   5.388   2.276   5.630 -0.5907  0.3777  0.7211
39965SOL    HW131874   5.465   2.333   5.624 -0.4452  0.1242  0.0774
39965SOL    HW231875   5.393   2.239   5.718 -0.1145  0.5654  0.7783
39966SOL     OW31876   3.037   4.588   4.128 -0.0908  0.3056 -0.1819
39966SOL    HW131877   3.131   4.573   4.135 -0.1336 -0.3890 -0.8968
39966SOL    HW231878   3.022   4.669   4.175  0.7528  0.0292  0.5891
39967SOL     OW31879   4.245   0.103   9.873 -0.5833  0.1960 -0.7724
39967SOL    HW131880   4.247   0.009   9.856  0.3220  0.3043 -1.3264
39967SOL    HW231881   4.165   0.117   9.924  1.5344 -1.5718  3.5012
39968SOL     OW31882  11.195   8.710   8.026  0.7238 -0.2597 -0.2279
39968SOL    HW131883  11.278   8.738   7.988  0.4051  2.3971  0.7860
39968SOL    HW231884  11.197   8.744   8.115  0.0027 -3.3017  1.0819
39969SOL     OW31885   0.671   8.733   7.372  0.4588 -0.1561 -0.3133
39969SOL    HW131886   0.672   8.789   7.449  0.3208 -0.2952 -0.2100
39969SOL    HW231887   0.761   8.702   7.363  0.1912 -1.2150  0.5768
39970SOL     OW31888  12.388   8.057   5.946 -0.5857 -0.0223  0.2573
39970SOL    HW131889  12.361   8.005   5.870  3.6875 -1.2602 -0.7095
39970SOL    HW231890  12.422   8.138   5.909 -1.8349  0.9768  1.2371
39971SOL     OW31891   4.081  12.014   3.666 -0.3133  0.8565  0.0562
39971SOL    HW131892   4.027  12.064   3.604 -0.8392  0.4474  0.1769
39971SOL    HW231893   4.036  12.025   3.750 -1.5143 -1.3537 -0.2394
39972SOL     OW31894   3.069   8.448   1.647  0.4608 -0.2112  0.5313
39972SOL    HW131895   3.086   8.469   1.556  0.7905 -2.2859  0.0662
39972SOL    HW231896   3.145   8.398   1.675 -0.4764 -1.2319  1.3521
39973SOL     OW31897   8.004  12.721  10.315  0.5509 -0.5884  0.2389
39973SOL    HW131898   7.943  12.764  10.375  0.9047 -1.1408  1.0123
39973SOL    HW231899   8.060  12.792  10.283 -1.7430  0.3329 -2.1318
39974SOL     OW31900  11.644   9.176  12.891  0.5083  0.5884  0.7251
39974SOL    HW131901  11.656   9.127  12.972 -1.3898  0.0632  0.7244
39974SOL    HW231902  11.552   9.164  12.869  1.1433  0.0524 -1.9406
39975SOL     OW31903   1.843   6.137   5.318  0.2769  0.1907  0.0806
39975SOL    HW131904   1.748   6.125   5.321  0.4260 -0.9992  1.8842
39975SOL    HW231905   1.856   6.218   5.270 -1.5592 -0.4816 -1.7152
39976SOL     OW31906  10.248   1.384   3.987 -0.0173  0.3120 -0.2573
39976SOL    HW131907  10.239   1.314   4.052 -0.4176  0.3624 -0.2624
39976SOL    HW231908  10.315   1.442   4.024 -0.0558  0.2023 -0.0113
39977SOL     OW31909   6.110   7.061   2.488  0.1751  1.0495  0.3205
39977SOL    HW131910   6.149   7.080   2.402  0.6516  0.3895  0.3878
39977SOL    HW231911   6.075   7.145   2.517  2.3720  1.9116  0.6712
39978SOL     OW31912   7.093   3.858   0.525 -0.3192  0.3218 -0.3753
39978SOL    HW131913   7.078   3.777   0.575  1.2358  0.3748  0.2179
39978SOL    HW231914   7.091   3.927   0.591 -3.7882  1.1224 -1.1141
39979SOL     OW31915   4.020   7.414   4.312 -0.2335  0.3199 -0.1212
39979SOL    HW131916   4.047   7.378   4.227  0.9319 -1.4196  0.9277
39979SOL    HW231917   4.097   7.461   4.344  0.2609 -1.2264  1.0826
39980SOL     OW31918  12.984   6.997   5.765  0.2220  0.3513 -0.1993
39980SOL    HW131919  12.898   7.022   5.731  0.7202  2.7926  0.1801
39980SOL    HW231920  13.039   7.075   5.753  2.0205 -0.6791  0.8242
39981SOL     OW31921   3.862  13.464   7.451  0.5242  0.1364  0.1842
39981SOL    HW131922   3.834  13.373   7.437  1.0548  0.0258 -0.2179
39981SOL    HW231923   3.957  13.458   7.458  0.5821  0.6880 -0.1013
39982SOL     OW31924   0.148  13.287   7.946 -0.0606 -0.1880 -0.1134
39982SOL    HW131925   0.134  13.321   7.858  1.5864 -1.3664 -0.9040
39982SOL    HW231926   0.239  13.255   7.944  0.4542  0.8819  2.4024
39983SOL     OW31927   8.569   4.387  10.007 -0.2701 -0.0506  0.4242
39983SOL    HW131928   8.637   4.342   9.957  0.6200  0.4739  1.1424
39983SOL    HW231929   8.507   4.418   9.941 -0.3480 -1.3825 -0.1666
39984SOL     OW31930   1.764   4.016   5.489 -0.0202 -0.2086 -0.1104
39984SOL    HW131931   1.784   4.097   5.441  1.0248 -1.3010 -1.6278
39984SOL    HW231932   1.697   3.973   5.435 -1.1328 -0.0328  1.0899
39985SOL     OW31933   8.254  10.351   1.186 -0.0049 -0.2532 -0.1239
39985SOL    HW131934   8.344  10.352   1.152  0.2416 -0.7665  0.4956
39985SOL    HW231935   8.224  10.261   1.173  0.2381 -0.5633  1.3633
39986SOL     OW31936   7.117  12.090  13.333 -0.3064  0.1466  0.9546
39986SOL    HW131937   7.212  12.084  13.343 -0.1985 -0.0340 -0.0707
39986SOL    HW231938   7.082  12.051  13.412  0.4681  2.3359  2.4936
39987SOL     OW31939   9.306   4.758   0.862 -0.2812  0.2645 -0.0022
39987SOL    HW131940   9.234   4.797   0.912 -0.0600 -1.6480  1.9584
39987SOL    HW231941   9.264   4.699   0.800 -0.4936  1.7033 -1.2976
39988SOL     OW31942   6.641   1.420   1.853 -0.3586 -0.1118 -0.1450
39988SOL    HW131943   6.589   1.498   1.834 -0.5210 -0.0910  0.3945
39988SOL    HW231944   6.625   1.362   1.779 -2.2756 -0.7041  0.6870
39989SOL     OW31945   4.299   3.413   8.341  0.7868  0.0492 -0.8387
39989SOL    HW131946   4.333   3.383   8.425  0.6662  0.3392 -0.6847
39989SOL    HW231947   4.227   3.353   8.322  0.5953  0.1885 -0.5697
39990SOL     OW31948   3.606   5.346  12.992 -0.0427  0.2881 -0.0041
39990SOL    HW131949   3.616   5.426  12.940 -2.1530  0.5989 -0.0056
39990SOL    HW231950   3.666   5.358  13.066  0.0987  1.6129 -0.3069
39991SOL     OW31951   7.956   5.332   0.708  0.0784 -0.2168 -0.3719
39991SOL    HW131952   7.933   5.303   0.797 -0.5694 -0.2632 -0.5519
39991SOL    HW231953   7.962   5.427   0.715 -0.4821 -0.1773 -0.3915
39992SOL     OW31954   4.615   2.236  13.430 -0.3620 -0.2708 -0.2756
39992SOL    HW131955   4.587   2.173  13.364  0.2771 -1.2059  0.3203
39992SOL    HW231956   4.601   2.192  13.514  1.6124 -0.3040  0.1069
39993SOL     OW31957  11.445   5.124   2.453  0.4764 -0.5974  0.1932
39993SOL    HW131958  11.527   5.140   2.500  0.3807  0.1547  0.1024
39993SOL    HW231959  11.472   5.104   2.363  0.6133 -1.2995  0.3841
39994SOL     OW31960  12.121   8.250   3.718 -0.0128  0.2155  0.0537
39994SOL    HW131961  12.181   8.194   3.767  0.1310  1.0888  0.9073
39994SOL    HW231962  12.175   8.323   3.690 -0.5433  0.7193  0.3282
39995SOL     OW31963  13.400   4.033   2.304  0.1947 -0.2244 -0.2410
39995SOL    HW131964  13.493   4.049   2.293  0.1808  0.2548  0.3012
39995SOL    HW231965  13.394   3.976   2.381  0.0372 -0.1941 -0.2304
39996SOL     OW31966   5.148   9.122   8.336  0.3501 -0.2496 -0.2594
39996SOL    HW131967   5.169   9.120   8.430  2.1234  0.7561 -0.5841
39996SOL    HW231968   5.224   9.082   8.294  0.1912  0.5324 -1.3292
39997SOL     OW31969  13.207   7.414  10.905 -0.1371  0.0599 -0.1965
39997SOL    HW131970  13.228   7.453  10.820 -0.2085  0.0928 -0.1996
39997SOL    HW231971  13.113   7.397  10.900 -0.0210 -0.5708 -0.3875
39998SOL     OW31972  13.827  11.407   5.355 -0.3021 -0.0411 -0.2939
39998SOL    HW131973  13.813  11.500   5.370 -0.1510  0.2063 -1.5562
39998SOL    HW231974  13.883  11.403   5.277  1.0761 -1.1498  0.6904
39999SOL     OW31975   5.800  12.856   8.641  0.0929  0.8578  0.5591
39999SOL    HW131976   5.705  12.849   8.642  0.1460 -0.5889 -0.8961
39999SOL    HW231977   5.818  12.923   8.575  0.1016 -0.6524 -1.0412
40000SOL     OW31978  11.623   3.544  12.646 -0.1736 -0.5760  0.7898
40000SOL    HW131979  11.552   3.575  12.590 -0.3074 -1.4281  0.4574
40000SOL    HW231980  11.658   3.622  12.687  0.1182  0.1129 -0.7126
40001SOL     OW31981   2.160   1.693   3.883  0.2438  0.0122 -0.1335
40001SOL    HW131982   2.091   1.747   3.844 -0.7663 -2.0931 -1.4710
40001SOL    HW231983   2.237   1.708   3.828  0.3045  0.8589  0.1635
40002SOL     OW31984  12.794   3.723   2.629  0.7039 -0.7190  0.6063
40002SOL    HW131985  12.752   3.764   2.553  0.0927 -2.5431 -0.0912
40002SOL    HW231986  12.877   3.689   2.595  1.7350  0.8138  1.4418
40003SOL     OW31987   8.494   8.863   1.814  0.2709 -0.4874  0.6035
40003SOL    HW131988   8.458   8.937   1.765  0.9845 -0.6496 -0.1808
40003SOL    HW231989   8.588   8.869   1.801  0.3714 -1.2577  0.9262
40004SOL     OW31990  12.339   7.993   8.710 -0.3076  0.0347  0.3290
40004SOL    HW131991  12.259   8.043   8.693 -1.6522 -1.5745  1.5707
40004SOL    HW231992  12.338   7.923   8.646  0.3622  0.2428  0.0765
40005SOL     OW31993  13.307   1.478  10.333  0.0427 -0.4367 -0.9805
40005SOL    HW131994  13.228   1.526  10.356 -0.0728 -1.9087  2.1778
40005SOL    HW231995  13.276   1.393  10.302  0.3746 -0.4445 -1.3096
40006SOL     OW31996  10.735   2.950  12.472  0.2964  0.2292 -0.1841
40006SOL    HW131997  10.753   2.903  12.390  1.4600  0.0662  0.1562
40006SOL    HW231998  10.648   2.988  12.458  0.0512 -0.6113 -1.1155
40007SOL     OW31999   6.254   9.593   2.365  0.4848 -0.1550  0.2297
40007SOL    HW132000   6.297   9.625   2.286 -0.8293 -0.9299 -0.8366
40007SOL    HW232001   6.313   9.527   2.400  2.1005  1.6680  1.1432
40008SOL     OW32002   5.237  11.823   8.817  0.2079 -0.2608 -0.3154
40008SOL    HW132003   5.307  11.838   8.881 -0.3976 -0.9078  0.5305
40008SOL    HW232004   5.159  11.862   8.858  0.0778  0.5334 -1.2840
40009SOL     OW32005   2.841   8.572   6.614 -0.0776  1.1324 -0.1667
40009SOL    HW132006   2.752   8.537   6.606 -0.7970  2.8072 -0.0668
40009SOL    HW232007   2.874   8.538   6.697 -0.6173  0.4727 -0.2185
40010SOL     OW32008   0.347  12.952   5.277 -0.2665 -0.6106 -0.4214
40010SOL    HW132009   0.436  12.950   5.243 -0.2598 -0.9816 -0.3810
40010SOL    HW232010   0.356  12.929   5.370 -0.5356 -1.8232 -0.6876
40011SOL     OW32011   9.822   5.332  12.396 -0.2702  0.0985 -0.0017
40011SOL    HW132012   9.811   5.321  12.302 -2.1613  2.1940 -0.1113
40011SOL    HW232013   9.751   5.390  12.422  0.6500  0.1974  2.6123
40012SOL     OW32014   9.522   2.057   5.454 -0.0550  0.0272  0.0045
40012SOL    HW132015   9.542   2.131   5.511 -1.6836 -0.1036  0.8171
40012SOL    HW232016   9.486   2.096   5.374  0.1505  0.1426 -0.0322
40013SOL     OW32017   5.126   5.498   9.477 -0.2087 -0.4234  0.0992
40013SOL    HW132018   5.099   5.427   9.536 -1.2454 -0.7299 -0.7124
40013SOL    HW232019   5.166   5.563   9.535  0.1394 -1.3543  0.9489
40014SOL     OW32020   9.613   0.889   2.570 -0.6076 -0.0286  0.9670
40014SOL    HW132021   9.704   0.913   2.553 -0.1031 -0.9730  2.1325
40014SOL    HW232022   9.562   0.943   2.510  0.7098  0.6214  0.3867
40015SOL     OW32023   2.782   6.434  11.285  0.1994  0.4635  0.4493
40015SOL    HW132024   2.865   6.427  11.239 -0.4108 -1.3855 -0.4198
40015SOL    HW232025   2.807   6.459  11.374  1.4840  2.5390 -0.4044
40016SOL     OW32026   3.883   6.536   6.801 -0.0827  0.0859 -0.2456
40016SOL    HW132027   3.823   6.463   6.781 -0.6766  0.7094 -0.7625
40016SOL    HW232028   3.969   6.504   6.774 -0.4817 -0.0775 -1.3621
40017SOL     OW32029   9.110   6.539   9.936 -0.4773  0.4927 -0.1644
40017SOL    HW132030   9.182   6.476   9.946 -0.0894  1.1051  1.1676
40017SOL    HW232031   9.055   6.502   9.867  0.5956 -0.4858 -0.5277
40018SOL     OW32032  11.622   3.220   6.881  0.4447 -0.2024 -0.1091
40018SOL    HW132033  11.689   3.232   6.949  0.4492 -2.1768  0.3036
40018SOL    HW232034  11.632   3.129   6.854 -1.0738 -0.0950 -1.1338
40019SOL     OW32035   9.142   7.479  14.015 -0.2743 -0.8768 -0.0147
40019SOL    HW132036   9.080   7.529  13.962  0.3105  0.5285  0.5837
40019SOL    HW232037   9.227   7.497  13.974 -0.1085 -1.8345 -0.1152
40020SOL     OW32038   4.123   5.622  13.728 -0.3753 -0.3785  0.2397
40020SOL    HW132039   4.043   5.655  13.687  0.4693  0.6801 -0.6080
40020SOL    HW232040   4.097   5.539  13.768 -2.1344  0.4398  0.8725
40021SOL     OW32041   3.507   4.082  13.824  0.5159  0.8651  0.3852
40021SOL    HW132042   3.425   4.086  13.774  0.3067 -1.3796  0.4583
40021SOL    HW232043   3.576   4.074  13.758  0.2435 -2.0421  0.3136
40022SOL     OW32044   0.118   6.551  13.572 -0.2171 -0.0983 -0.0953
40022SOL    HW132045   0.177   6.627  13.579  0.2843 -0.4227 -0.6913
40022SOL    HW232046   0.153   6.488  13.635  0.2757 -0.4090 -0.6619
40023SOL     OW32047  10.594  10.907  13.751 -0.4892 -0.5131 -0.0610
40023SOL    HW132048  10.684  10.926  13.722 -0.5774  0.3866  0.2404
40023SOL    HW232049  10.576  10.972  13.818 -1.7331 -0.0362 -0.8371
40024SOL     OW32050   6.581   6.300   2.743 -0.4625  0.1567 -0.4402
40024SOL    HW132051   6.596   6.232   2.677  0.0924 -0.6900  0.5298
40024SOL    HW232052   6.499   6.341   2.716 -0.3317 -0.2710 -1.5654
40025SOL     OW32053  11.384   6.100  12.947  0.0585 -0.3055 -0.6950
40025SOL    HW132054  11.301   6.147  12.961 -1.0026 -1.9671 -1.0563
40025SOL    HW232055  11.374   6.058  12.862  2.5814  1.9404 -2.2521
40026SOL     OW32056   4.043   4.760  11.141 -0.3790  0.2564  0.0320
40026SOL    HW132057   4.026   4.819  11.068 -0.6067 -1.0866 -1.0401
40026SOL    HW232058   4.001   4.678  11.116 -0.1472 -0.3492  1.5138
40027SOL     OW32059   3.065   1.589   7.010  0.7527 -0.1817  0.1616
40027SOL    HW132060   3.139   1.616   6.955 -1.0961  0.7749 -2.0329
40027SOL    HW232061   3.067   1.493   7.006  0.1694 -0.1863 -2.5035
40028SOL     OW32062   6.665   9.237   2.468  0.7548  0.3413 -0.1407
40028SOL    HW132063   6.582   9.285   2.473  1.5573  1.7797  0.0124
40028SOL    HW232064   6.669   9.205   2.378  0.2019  0.5823 -0.2567
40029SOL     OW32065  11.053   4.935   7.882 -0.1496  0.1932 -0.1757
40029SOL    HW132066  11.011   4.952   7.966  0.3025  0.2710  0.0336
40029SOL    HW232067  11.026   4.846   7.859  0.5904 -0.2326  0.5643
40030SOL     OW32068  12.536   6.587  10.878 -0.0794 -0.6835  0.3188
40030SOL    HW132069  12.597   6.627  10.940 -1.1325 -0.7679  1.4458
40030SOL    HW232070  12.520   6.656  10.813  0.7284 -0.4514  0.3638
40031SOL     OW32071  13.225   2.390  13.921  0.3411 -0.0006 -0.2696
40031SOL    HW132072  13.300   2.344  13.961  0.7850  0.1163 -0.9504
40031SOL    HW232073  13.149   2.354  13.966  0.8090 -0.0511  0.5138
40032SOL     OW32074   2.255   7.611   5.984  0.1162 -0.5011  0.1681
40032SOL    HW132075   2.190   7.564   6.035  0.5374 -0.0043  1.2011
40032SOL    HW232076   2.220   7.613   5.895 -1.6053  0.3576  0.8349
40033SOL     OW32077  10.283   9.850   6.868  0.3911 -0.8764 -0.1630
40033SOL    HW132078  10.207   9.794   6.883  1.0765 -2.2316 -1.4510
40033SOL    HW232079  10.296   9.896   6.951 -1.6801 -0.7695  0.1465
40034SOL     OW32080  12.225   0.922  11.830 -0.0095 -0.4584  0.3517
40034SOL    HW132081  12.160   0.853  11.820 -1.4658  0.8287  0.6239
40034SOL    HW232082  12.193   0.994  11.775  1.7781 -0.1916 -0.4000
40035SOL     OW32083  12.550   9.360   9.621 -0.2028 -0.1721  0.5172
40035SOL    HW132084  12.520   9.278   9.658 -1.0605  0.0635  0.3675
40035SOL    HW232085  12.488   9.426   9.653  1.0233  0.5886  1.4343
40036SOL     OW32086  11.423   3.608   9.666  0.5374  0.1083 -0.3134
40036SOL    HW132087  11.329   3.591   9.665  0.5671 -0.0211 -1.1450
40036SOL    HW232088  11.450   3.586   9.755 -0.2991  0.6091  0.0814
40037SOL     OW32089   6.090   2.724  13.929 -0.1627  0.7829 -0.1147
40037SOL    HW132090   6.150   2.745  13.857  0.3517 -0.1417  0.0363
40037SOL    HW232091   6.123   2.775  14.003  1.1006 -0.5240  0.2560
40038SOL     OW32092  12.651   3.585   7.398 -0.4876 -0.2998  0.2253
40038SOL    HW132093  12.592   3.652   7.362 -1.3241 -0.4386  1.2888
40038SOL    HW232094  12.677   3.534   7.322 -0.3886  0.8009 -0.5106
40039SOL     OW32095  11.331   4.762  13.358 -0.5766  0.4245 -0.1402
40039SOL    HW132096  11.396   4.702  13.323  0.5707  0.6559  1.4728
40039SOL    HW232097  11.364   4.849  13.335  0.2253  0.5850  1.4098
40040SOL     OW32098  11.359   4.982  13.009 -0.1187 -0.3504 -0.3796
40040SOL    HW132099  11.428   5.030  12.963 -0.3219 -1.3500 -1.7858
40040SOL    HW232100  11.291   4.969  12.944  0.4583 -3.6554 -0.4901
40041SOL     OW32101   2.910   9.543   9.171  0.3506  0.3710 -0.2266
40041SOL    HW132102   2.832   9.512   9.215  0.2114  0.2225 -0.5740
40041SOL    HW232103   2.968   9.572   9.241  0.2231 -0.0748  0.0651
40042SOL     OW32104   8.290  13.854   6.803  0.4330  0.6327 -0.1560
40042SOL    HW132105   8.359  13.836   6.739  0.6787 -2.2927  0.7591
40042SOL    HW232106   8.281  13.772   6.852 -1.3843  1.9961  2.0010
40043SOL     OW32107   1.739   8.300  11.584 -0.3384 -0.1620  0.5423
40043SOL    HW132108   1.829   8.278  11.605 -0.5969 -1.1590  0.6678
40043SOL    HW232109   1.694   8.298  11.669 -0.8625 -1.6429  0.2627
40044SOL     OW32110   1.941  13.916   3.340  0.1635  0.0106 -1.0173
40044SOL    HW132111   1.934  13.949   3.251  1.0809  0.4576 -0.9474
40044SOL    HW232112   1.879  13.968   3.390  0.1844  0.2773 -1.2675
40045SOL     OW32113  11.286   7.686   0.268 -0.4839 -0.5806 -0.4389
40045SOL    HW132114  11.279   7.716   0.177 -1.7216  3.2231  0.7433
40045SOL    HW232115  11.381   7.676   0.282 -0.2805 -1.5215 -2.1641
40046SOL     OW32116   2.123   9.894   8.007 -0.4024  0.5562 -0.3931
40046SOL    HW132117   2.159   9.859   8.089 -0.1118 -0.6587 -1.0163
40046SOL    HW232118   2.101   9.817   7.955  1.8884  1.2367 -2.5619
40047SOL     OW32119   2.851  13.549   0.089  0.2489 -0.3965 -0.3734
40047SOL    HW132120   2.886  13.622   0.039  2.8223 -1.3341 -0.1333
40047SOL    HW232121   2.837  13.584   0.177 -0.0611  0.1750 -0.6486
40048SOL     OW32122   7.814   3.890   0.164 -0.2570  0.1879 -0.7371
40048SOL    HW132123   7.790   3.979   0.138 -1.0490 -0.0705 -0.9222
40048SOL    HW232124   7.825   3.842   0.082 -1.0443 -0.1900 -0.6270
40049SOL     OW32125  12.052   0.849   4.329 -0.2334 -0.0942 -0.1541
40049SOL    HW132126  12.113   0.902   4.277 -0.8343 -0.4441 -1.2463
40049SOL    HW232127  12.004   0.797   4.265 -1.9247  0.4117  0.6297
40050SOL     OW32128   0.636   3.071   5.155 -0.2424  0.0428  0.4542
40050SOL    HW132129   0.724   3.063   5.194 -0.2110 -0.8584  0.2323
40050SOL    HW232130   0.577   3.075   5.230 -0.0925 -0.5523  0.6124
40051SOL     OW32131   3.112   1.843   9.120  0.1778 -0.2027  0.3065
40051SOL    HW132132   3.161   1.894   9.185  0.9995 -0.8798  0.2331
40051SOL    HW232133   3.066   1.909   9.068 -0.2062  0.3685  1.3382
40052SOL     OW32134   7.265   7.928   6.474 -0.2069 -0.2189  0.0055
40052SOL    HW132135   7.211   7.925   6.395 -0.3821  1.7379  0.0108
40052SOL    HW232136   7.329   7.997   6.457  1.6466 -1.7474  0.4455
40053SOL     OW32137  13.459   4.154   6.637  0.0684  0.7726  0.3999
40053SOL    HW132138  13.541   4.120   6.671  0.6842  0.9863 -0.8220
40053SOL    HW232139  13.439   4.099   6.561  0.2837  2.1286 -0.6749
40054SOL     OW32140   1.068   3.339   7.549 -0.0168  0.1396  1.0111
40054SOL    HW132141   1.094   3.253   7.583 -1.9158 -1.6643 -1.6464
40054SOL    HW232142   1.058   3.325   7.455 -0.9847  3.1553  0.5736
40055SOL     OW32143   9.993   3.747   4.570  0.0130  0.0890  0.2949
40055SOL    HW132144  10.019   3.717   4.657  0.3150 -0.3191  0.0638
40055SOL    HW232145  10.052   3.702   4.510 -0.8288 -0.3751 -0.1931
40056SOL     OW32146   2.965   4.180   7.401 -0.4482  0.0861 -0.1555
40056SOL    HW132147   3.002   4.240   7.465 -1.3597  0.6171 -0.1091
40056SOL    HW232148   3.017   4.193   7.322  0.2504 -0.0879  0.2682
40057SOL     OW32149   4.129   2.325   9.481  0.1583  0.3009 -0.0766
40057SOL    HW132150   4.150   2.347   9.390  0.7496 -0.6760 -0.1978
40057SOL    HW232151   4.149   2.405   9.531  4.1949 -0.3919 -0.2041
40058SOL     OW32152   4.113   9.354   2.879 -0.5907 -0.3099  0.1002
40058SOL    HW132153   4.197   9.308   2.870 -0.4687 -0.2828  1.0289
40058SOL    HW232154   4.047   9.288   2.858 -0.4225 -0.9545  1.5455
40059SOL     OW32155   5.710   2.846   3.913 -0.3663  0.6639  0.4048
40059SOL    HW132156   5.678   2.776   3.970  1.1071 -0.2664  0.1503
40059SOL    HW232157   5.719   2.804   3.827 -1.6988  1.8053 -0.3272
40060SOL     OW32158   6.523   9.593   0.402 -1.1754  0.5898 -0.3298
40060SOL    HW132159   6.565   9.656   0.344 -0.9011  1.5935  0.9208
40060SOL    HW232160   6.538   9.508   0.360 -1.3965  1.3177 -1.9405
40061SOL     OW32161   0.095   5.239   5.441  0.2072  0.2228 -0.3783
40061SOL    HW132162   0.102   5.322   5.393  1.2628  0.3078 -0.1137
40061SOL    HW232163   0.174   5.191   5.417  0.2832 -0.1324  0.5238
40062SOL     OW32164   1.034  12.546   5.716  0.5160 -0.2969  0.2184
40062SOL    HW132165   1.026  12.623   5.772  1.4207 -0.1281  0.1387
40062SOL    HW232166   0.989  12.476   5.764 -0.7567  0.3859  0.0507
40063SOL     OW32167   3.651   5.879   9.154  0.2822 -0.0122 -0.6424
40063SOL    HW132168   3.743   5.885   9.179  0.2923  1.5364 -0.9608
40063SOL    HW232169   3.611   5.827   9.224  1.1903  0.2657  0.1007
40064SOL     OW32170   8.653   3.124   9.628 -0.2993 -0.1433 -0.6023
40064SOL    HW132171   8.672   3.178   9.705  1.8612 -2.0885  0.3535
40064SOL    HW232172   8.594   3.057   9.660  0.7794 -1.0887 -0.5143
40065SOL     OW32173   8.763   3.202   8.765  0.1791  0.5548  0.2489
40065SOL    HW132174   8.830   3.269   8.748  0.2612  0.7548  1.2938
40065SOL    HW232175   8.689   3.252   8.802  0.1284  0.1149  0.7545
40066SOL     OW32176  12.390   2.748   3.064  0.6125 -0.2640  0.6253
40066SOL    HW132177  12.473   2.796   3.065  1.4975 -1.7231  0.8158
40066SOL    HW232178  12.390   2.699   3.146 -0.8499  0.3543  1.0139
40067SOL     OW32179  13.076   0.548   0.144 -0.2567  0.8614  0.0239
40067SOL    HW132180  13.134   0.474   0.126  1.0995  2.1134 -0.9668
40067SOL    HW232181  13.016   0.515   0.211 -0.3323 -1.4361 -1.0588
40068SOL     OW32182  12.515  11.115   4.606  0.2703  0.1517  0.8687
40068SOL    HW132183  12.514  11.104   4.511  0.4081  2.1443  0.5957
40068SOL    HW232184  12.423  11.131   4.629  0.3133  0.1984  1.0074
40069SOL     OW32185   3.933   4.706   2.223  0.0424  0.1240 -0.0054
40069SOL    HW132186   3.915   4.799   2.235 -0.1822  0.2074 -0.8902
40069SOL    HW232187   3.986   4.681   2.299 -0.2341  0.8759  0.4391
40070SOL     OW32188   8.248  11.726  11.804  0.5686 -0.1534 -0.1554
40070SOL    HW132189   8.309  11.732  11.731 -0.8734 -4.0627 -1.9516
40070SOL    HW232190   8.304  11.728  11.882  2.5107  0.6655 -1.4841
40071SOL     OW32191   8.217   1.876   8.340  0.0387 -0.1986  0.2310
40071SOL    HW132192   8.215   1.786   8.374 -1.0098  0.3931  1.8639
40071SOL    HW232193   8.163   1.873   8.261 -0.9662 -0.7977  0.9101
40072SOL     OW32194  12.728   1.995  11.373 -0.7034  0.4895 -0.2383
40072SOL    HW132195  12.664   2.010  11.443 -2.8151 -1.4251 -1.6388
40072SOL    HW232196  12.810   1.978  11.419 -1.6164  1.0448  1.7043
40073SOL     OW32197  11.526  12.180   1.796 -0.3135  0.1914  0.5648
40073SOL    HW132198  11.555  12.092   1.821 -0.0806  0.0468 -0.1918
40073SOL    HW232199  11.479  12.167   1.713 -0.5036  0.7469  0.5839
40074SOL     OW32200   8.362   6.096  12.663 -0.5144 -0.4365 -0.3135
40074SOL    HW132201   8.444   6.114  12.707 -0.4857 -0.3196 -0.4122
40074SOL    HW232202   8.312   6.041  12.724 -0.4363 -0.3580 -0.1805
40075SOL     OW32203   8.362   1.176  10.333 -0.3127 -0.2109 -0.0310
40075SOL    HW132204   8.323   1.247  10.281  1.4427  0.1105 -0.9884
40075SOL    HW232205   8.361   1.100  10.274  2.8371  0.4658 -1.1528
40076SOL     OW32206   1.288   6.293   1.399 -0.4547 -0.6657 -0.2603
40076SOL    HW132207   1.293   6.205   1.361 -0.5964 -0.4132 -0.8615
40076SOL    HW232208   1.195   6.308   1.413 -0.4975 -0.2997 -0.8983
40077SOL     OW32209  13.106   7.764   0.366  0.0343 -0.1364  0.2220
40077SOL    HW132210  13.074   7.708   0.295 -1.9906 -1.3281  1.9648
40077SOL    HW232211  13.092   7.713   0.445  1.7096  1.3831  1.5718
40078SOL     OW32212  13.034  10.283  12.454  0.0237 -0.0215  0.3635
40078SOL    HW132213  13.060  10.209  12.510 -2.1093 -1.0180  0.1404
40078SOL    HW232214  12.940  10.290  12.467 -0.0669  1.6145 -0.9309
40079SOL     OW32215   0.002   7.903   7.333  0.0839  0.3446 -0.0421
40079SOL    HW132216  -0.032   7.985   7.299  0.6056  1.7243  2.4751
40079SOL    HW232217  -0.069   7.840   7.321 -0.9817  1.5947 -0.5130
40080SOL     OW32218   0.592   8.856   9.220  0.2969  1.0198 -0.5199
40080SOL    HW132219   0.547   8.840   9.303  1.0944  0.7486 -0.1261
40080SOL    HW232220   0.538   8.812   9.155  1.2112 -1.4342  0.2466
40081SOL     OW32221   7.996   0.905  11.867  0.1110 -0.4531  0.1379
40081SOL    HW132222   7.952   0.988  11.884 -0.4097 -0.0739 -2.6039
40081SOL    HW232223   8.010   0.904  11.772  0.6245 -3.2556  0.1568
40082SOL     OW32224   4.927  10.657  10.457 -0.1704 -0.2285 -0.2075
40082SOL    HW132225   4.882  10.677  10.374  0.6350 -0.1528 -0.6316
40082SOL    HW232226   4.965  10.571  10.443  2.2355  0.8758 -0.9182
40083SOL     OW32227   5.913   7.178  10.460 -0.4305 -0.7763  0.4833
40083SOL    HW132228   5.913   7.114  10.531  0.3088 -1.6448 -0.2735
40083SOL    HW232229   6.006   7.197  10.446 -0.6306  0.4092  0.6312
40084SOL     OW32230   5.480  11.351   4.431 -0.3830 -0.3967 -0.0469
40084SOL    HW132231   5.431  11.311   4.503 -1.0817 -0.2910 -0.4495
40084SOL    HW232232   5.551  11.399   4.473 -0.4632 -0.7789  0.5349
40085SOL     OW32233   2.525   3.186   0.443 -0.3578  0.2818  0.3040
40085SOL    HW132234   2.577   3.110   0.414  1.8889  1.3753  1.1718
40085SOL    HW232235   2.442   3.177   0.397 -0.1223 -2.5877  0.2168
40086SOL     OW32236  12.604   9.491   6.840  0.3888  0.5270  0.0285
40086SOL    HW132237  12.672   9.425   6.827  0.5102  0.6246  0.1620
40086SOL    HW232238  12.554   9.490   6.758  0.2552  0.1164  0.1111
40087SOL     OW32239   9.004   5.955   8.622  0.4297  0.0869  0.4544
40087SOL    HW132240   9.047   6.026   8.669  1.3905 -2.2204  3.3613
40087SOL    HW232241   9.075   5.907   8.580 -0.0702  0.0477 -0.3752
40088SOL     OW32242   4.657  12.941  13.342  0.0992  0.2415 -0.2166
40088SOL    HW132243   4.623  12.888  13.270  1.4546 -0.0699 -0.6548
40088SOL    HW232244   4.721  12.999  13.301 -0.6756  1.5834  0.4087
40089SOL     OW32245  10.341   1.520   7.955 -0.1562  0.1136 -0.2509
40089SOL    HW132246  10.344   1.477   8.041 -0.9696 -0.0444 -0.2887
40089SOL    HW232247  10.248   1.523   7.934 -0.3083  3.0727  0.3488
40090SOL     OW32248   6.751  13.479  10.034 -0.3107  0.0998  0.1693
40090SOL    HW132249   6.735  13.412   9.968 -1.1227 -1.1933  1.6192
40090SOL    HW232250   6.666  13.495  10.074  0.0729  1.2139  0.5703
40091SOL     OW32251   4.808  13.604   1.607  0.0038 -0.3335  0.7184
40091SOL    HW132252   4.838  13.523   1.566 -1.1690 -0.1608 -0.5683
40091SOL    HW232253   4.888  13.647   1.637  1.0920  0.0283 -2.3765
40092SOL     OW32254  12.285   6.755   3.912 -0.0850 -0.0444  0.1933
40092SOL    HW132255  12.276   6.777   4.004 -0.5311  0.0942  0.1186
40092SOL    HW232256  12.237   6.673   3.902 -0.4536  0.1912 -0.0092
40093SOL     OW32257   5.357   2.787   5.061 -0.0392 -0.2904 -0.1783
40093SOL    HW132258   5.385   2.712   5.113  0.4054 -0.6652 -0.9411
40093SOL    HW232259   5.362   2.861   5.121 -0.4650 -0.8593  0.5780
40094SOL     OW32260   6.921   4.968  12.365  0.1883  0.0280  0.7342
40094SOL    HW132261   6.912   4.947  12.458  0.7883 -1.7779  0.4218
40094SOL    HW232262   7.014   4.987  12.354  0.2927 -0.7235  0.3215
40095SOL     OW32263   1.068  11.026   7.844 -0.2839 -0.0223 -0.2681
40095SOL    HW132264   0.983  11.065   7.863 -0.8509 -0.5634 -1.5507
40095SOL    HW232265   1.126  11.059   7.913 -1.7360 -0.3721  1.1865
40096SOL     OW32266   5.456   2.387   7.824 -0.2431  0.1291  0.1415
40096SOL    HW132267   5.371   2.347   7.808 -0.3252  0.2908  0.1681
40096SOL    HW232268   5.440   2.452   7.892  0.1826 -0.8129  1.1594
40097SOL     OW32269  11.250   0.869   4.898  0.0783 -0.4922  0.3325
40097SOL    HW132270  11.184   0.933   4.926 -0.4117 -0.3142 -1.1263
40097SOL    HW232271  11.262   0.812   4.973 -1.2736 -0.1246  0.8568
40098SOL     OW32272  10.367   0.215  11.475  0.1640 -0.1250 -0.5599
40098SOL    HW132273  10.289   0.160  11.483 -0.9759  1.5540  0.4241
40098SOL    HW232274  10.341   0.299  11.512  2.7132  0.2363  0.6459
40099SOL     OW32275   4.648  10.602   4.701  0.0659  0.7744 -0.1055
40099SOL    HW132276   4.663  10.685   4.655 -0.3050  1.1071  0.3582
40099SOL    HW232277   4.716  10.544   4.668  0.8359  1.5068  0.1545
40100SOL     OW32278   0.357   0.045   0.816 -0.8821 -0.1597 -0.0976
40100SOL    HW132279   0.307   0.114   0.773 -0.2281  0.0348 -0.5682
40100SOL    HW232280   0.385  -0.012   0.745 -1.3326 -0.8643  0.2763
40101SOL     OW32281  10.017   3.666   4.824 -0.1400 -0.0454 -0.2284
40101SOL    HW132282  10.112   3.673   4.831  0.0723  2.0579 -3.3036
40101SOL    HW232283   9.984   3.694   4.909  1.9639  0.9943  0.2890
40102SOL     OW32284   1.113   3.972  11.049  0.0186  0.2852 -0.4066
40102SOL    HW132285   1.122   4.031  10.975  1.3265 -1.7984 -2.0254
40102SOL    HW232286   1.202   3.962  11.084 -0.1487 -0.8222 -0.2609
40103SOL     OW32287   4.918   1.310  10.543  0.1059 -0.3168 -0.1219
40103SOL    HW132288   4.960   1.344  10.621 -0.8342 -0.1766  0.3410
40103SOL    HW232289   4.851   1.249  10.576 -1.0161  0.5450 -0.7500
40104SOL     OW32290   7.866  12.577   8.232 -0.1521 -0.1640  0.2777
40104SOL    HW132291   7.959  12.583   8.212 -0.4087  3.0144 -0.4939
40104SOL    HW232292   7.858  12.613   8.321 -0.6490 -0.4152  0.3408
40105SOL     OW32293  11.829   3.196   7.064 -0.2285 -0.3139 -0.0272
40105SOL    HW132294  11.823   3.239   7.150 -0.0736 -1.5323  0.6124
40105SOL    HW232295  11.869   3.111   7.083  1.6719  0.1700 -1.5780
40106SOL     OW32296   8.772   3.223   6.204  0.3279  0.6186  0.7070
40106SOL    HW132297   8.765   3.298   6.144 -0.2240 -0.6215 -0.8547
40106SOL    HW232298   8.682   3.204   6.229  0.4477  0.3513  0.9354
40107SOL     OW32299   9.480   8.602  12.395 -0.1287 -0.5037 -0.2245
40107SOL    HW132300   9.420   8.528  12.382 -0.7928  0.0869 -0.5750
40107SOL    HW232301   9.566   8.566  12.374 -0.3353 -1.3998  0.3943
40108SOL     OW32302  13.448   0.153   1.286  0.2609 -0.0478  0.1659
40108SOL    HW132303  13.357   0.182   1.287  0.7355  1.5411  0.6321
40108SOL    HW232304  13.451   0.079   1.347 -0.2937  1.3796  2.0252
40109SOL     OW32305   6.942   3.929   7.730  0.2070  0.3090 -0.3847
40109SOL    HW132306   6.972   4.018   7.748  2.2494 -0.4153  0.1386
40109SOL    HW232307   6.976   3.877   7.803  0.4456 -1.1547 -1.4720
40110SOL     OW32308   0.347  11.528   8.023 -0.4720  0.0625 -0.2966
40110SOL    HW132309   0.400  11.494   8.095  1.0499  1.2767 -0.7960
40110SOL    HW232310   0.277  11.577   8.067 -1.4983 -1.8971  0.3745
40111SOL     OW32311  11.667   5.822   6.858 -0.4049 -0.1253  0.0884
40111SOL    HW132312  11.655   5.899   6.914  0.9604  0.0108  0.2233
40111SOL    HW232313  11.726   5.852   6.789 -0.1630 -0.9509 -0.0700
40112SOL     OW32314  11.487   5.947   7.449  0.2564 -0.3269 -0.3242
40112SOL    HW132315  11.420   5.899   7.401  0.4605 -0.7385 -0.2025
40112SOL    HW232316  11.449   6.034   7.462  0.3573 -0.0843 -1.5661
40113SOL     OW32317   4.548   8.130   8.768 -0.5788  0.4207 -0.1479
40113SOL    HW132318   4.525   8.195   8.701 -1.1664  1.3087  0.8815
40113SOL    HW232319   4.500   8.051   8.742 -0.2106  0.5207 -1.1734
40114SOL     OW32320   8.891   6.017  13.697 -0.7250  0.0812  0.5436
40114SOL    HW132321   8.969   6.072  13.691 -0.6960  0.2741  2.2179
40114SOL    HW232322   8.820   6.070  13.661 -0.0968 -0.1317 -1.0881
40115SOL     OW32323   7.757   8.087   0.714  0.5264 -0.6388  0.3704
40115SOL    HW132324   7.715   8.149   0.774  0.4174 -0.4341  0.0796
40115SOL    HW232325   7.823   8.138   0.668 -0.4909 -0.3880 -0.8740
40116SOL     OW32326   7.073  12.010   8.130  0.2011  0.5986  0.3737
40116SOL    HW132327   7.080  12.045   8.218  0.3076  2.4253 -0.3136
40116SOL    HW232328   7.015  11.934   8.138 -0.4503  1.2248  1.8803
40117SOL     OW32329  11.452  10.408  12.692  0.3864  0.0775 -0.2313
40117SOL    HW132330  11.380  10.471  12.688 -1.3583 -1.7788 -0.2681
40117SOL    HW232331  11.408  10.323  12.702  2.6352 -1.0055  1.4668
40118SOL     OW32332   3.650  12.980   1.379  0.3792 -0.6728  0.0677
40118SOL    HW132333   3.668  12.946   1.467 -0.7382 -1.7954 -0.0899
40118SOL    HW232334   3.608  13.065   1.394 -1.3595 -1.5840  0.7523
40119SOL     OW32335   1.698  13.831   0.045 -0.2220 -0.1496  0.3565
40119SOL    HW132336   1.739  13.793   0.122 -2.0777 -0.6823  1.1283
40119SOL    HW232337   1.745  13.913   0.031  2.6334 -1.7591 -0.2306
40120SOL     OW32338   1.970  10.843   7.602  0.2349  0.7250 -0.4209
40120SOL    HW132339   2.034  10.886   7.546 -0.1206  2.3942  0.3980
40120SOL    HW232340   1.981  10.750   7.583  3.1518  0.8946 -0.0370
40121SOL     OW32341   1.579   7.680   2.922 -0.7937 -0.5216  0.0582
40121SOL    HW132342   1.567   7.770   2.953  2.2597 -0.0794  0.2436
40121SOL    HW232343   1.570   7.686   2.827  0.3893  0.1957 -0.0188
40122SOL     OW32344  10.779  11.460   6.306 -0.6960 -0.2353 -0.3453
40122SOL    HW132345  10.851  11.498   6.356 -1.3111  0.0032  0.3750
40122SOL    HW232346  10.796  11.366   6.308  0.5673 -0.0803 -1.7220
40123SOL     OW32347   4.740   4.034   6.397 -0.3492 -0.0808  0.8703
40123SOL    HW132348   4.711   3.956   6.351  0.8441 -0.5933  0.9614
40123SOL    HW232349   4.668   4.053   6.458 -0.4624 -1.3870  1.1845
40124SOL     OW32350  10.012  11.240   1.725  0.6510  0.5951 -0.5891
40124SOL    HW132351  10.071  11.276   1.658  4.2557 -0.9718  1.4768
40124SOL    HW232352  10.026  11.295   1.802 -0.9452  0.3713 -0.1000
40125SOL     OW32353  12.683   1.454   3.266 -0.2478  0.2236  0.0983
40125SOL    HW132354  12.669   1.417   3.354 -0.1098  0.3149  0.1581
40125SOL    HW232355  12.723   1.383   3.217 -0.5000  0.1094  0.0550
40126SOL     OW32356   0.101  10.936   0.725 -0.6850 -0.6021 -0.0021
40126SOL    HW132357   0.075  10.988   0.649  1.8144 -0.2870 -0.7440
40126SOL    HW232358   0.197  10.945   0.728 -0.5575 -2.0069  2.1802
40127SOL     OW32359   9.982   4.507   1.666 -0.7794  0.2439  0.2491
40127SOL    HW132360   9.992   4.600   1.650 -1.3709 -0.0739 -2.3723
40127SOL    HW232361  10.062   4.467   1.631 -0.9241 -0.3093  0.5292
40128SOL     OW32362   1.068   9.042   6.272  0.3818  0.1343 -0.2634
40128SOL    HW132363   1.087   9.037   6.178 -2.9542 -1.8543 -0.9909
40128SOL    HW232364   1.005   9.113   6.280 -1.2388 -1.2598 -0.0149
40129SOL     OW32365  11.615  11.709   7.872  0.1503  0.1270  0.3824
40129SOL    HW132366  11.674  11.783   7.858 -0.1576  0.2772 -0.1033
40129SOL    HW232367  11.537  11.729   7.821 -0.4796  0.0981  1.2974
40130SOL     OW32368   0.280  12.027  12.049  0.2705  0.5392  0.1576
40130SOL    HW132369   0.340  12.100  12.065 -0.1944  1.0009 -0.1668
40130SOL    HW232370   0.334  11.960  12.008  0.7514  0.6125  0.6611
40131SOL     OW32371   2.600   1.871   1.010  0.1549 -0.0858  0.0682
40131SOL    HW132372   2.567   1.792   0.967 -1.0804  0.9838 -1.0419
40131SOL    HW232373   2.668   1.904   0.952 -2.0925  1.8315 -1.7022
40132SOL     OW32374  12.550   8.403   3.827  0.1023  0.0575 -0.5013
40132SOL    HW132375  12.503   8.326   3.857 -1.8222  1.3128 -0.0965
40132SOL    HW232376  12.526   8.472   3.889  1.8461  0.9843 -0.7794
40133SOL     OW32377   8.050   1.739  10.004  0.3176  0.3535  0.0259
40133SOL    HW132378   8.033   1.654   9.964  0.3404 -0.4409  1.6148
40133SOL    HW232379   8.106   1.785   9.941 -0.4866 -0.4189 -1.2871
40134SOL     OW32380   7.004   0.558   8.588 -0.6264  0.0411 -0.4495
40134SOL    HW132381   7.007   0.590   8.678 -2.0647  2.2903 -1.1250
40134SOL    HW232382   6.911   0.541   8.572 -0.4330  0.0009 -1.6255
40135SOL     OW32383  13.104  11.312  13.096 -0.5243  0.3686 -0.0742
40135SOL    HW132384  13.166  11.376  13.062  0.1523  0.4937  1.3193
40135SOL    HW232385  13.062  11.274  13.018 -0.0818  1.6450 -0.9557
40136SOL     OW32386   4.708   5.902   8.128  0.3372 -0.1274 -0.5014
40136SOL    HW132387   4.770   5.915   8.200 -1.2722  0.2977  0.8746
40136SOL    HW232388   4.763   5.900   8.049  2.1821 -0.7919  0.7218
40137SOL     OW32389   7.768   8.585   8.236  0.3127 -0.0065  0.0078
40137SOL    HW132390   7.768   8.499   8.195 -0.2773  0.3979 -0.8648
40137SOL    HW232391   7.772   8.567   8.330 -1.4712 -1.0643 -0.0634
40138SOL     OW32392   5.296   8.139  12.383  0.0037  0.2296  0.1041
40138SOL    HW132393   5.227   8.147  12.317 -0.1530  0.2596  0.2727
40138SOL    HW232394   5.292   8.221  12.432  0.5182  0.4614 -0.2373
40139SOL     OW32395  12.860   7.132   1.980 -0.2651  0.1314  0.2999
40139SOL    HW132396  12.918   7.174   1.917 -0.5184  1.5350  0.9680
40139SOL    HW232397  12.913   7.062   2.018  0.8030  0.9842  0.4468
40140SOL     OW32398  11.778   3.778  11.417 -0.0600  0.1801  0.4429
40140SOL    HW132399  11.774   3.798  11.510 -0.6804  0.3292  0.3914
40140SOL    HW232400  11.690   3.800  11.384 -0.2310 -0.9775  0.0558
40141SOL     OW32401  12.971   0.357   4.066 -0.3545 -0.0916 -0.2787
40141SOL    HW132402  12.970   0.420   4.138 -1.0222  1.2957 -1.4252
40141SOL    HW232403  12.946   0.274   4.105 -2.2846  0.9466  0.8382
40142SOL     OW32404   5.680  13.350   5.006  0.4814  0.0657  0.3004
40142SOL    HW132405   5.664  13.360   5.100  1.3251  0.5278  0.4007
40142SOL    HW232406   5.684  13.255   4.993 -0.1615 -0.0112  0.6360
40143SOL     OW32407   1.985  12.550   8.297  0.0835 -0.4225 -0.1901
40143SOL    HW132408   1.943  12.467   8.276 -0.4805 -0.3316  0.5360
40143SOL    HW232409   2.078  12.534   8.286 -0.0570 -0.9929 -0.5853
40144SOL     OW32410   9.076  13.111   8.790 -0.0070  0.4042  0.1114
40144SOL    HW132411   8.985  13.127   8.767 -0.2164 -0.7163  0.0981
40144SOL    HW232412   9.079  13.126   8.885 -0.5036 -0.7505  0.3303
40145SOL     OW32413   9.373   1.827  10.601  0.4760 -0.1135 -0.2432
40145SOL    HW132414   9.311   1.874  10.657  1.1951  0.7968 -0.1707
40145SOL    HW232415   9.439   1.794  10.661  0.4004 -0.5245 -0.3876
40146SOL     OW32416   0.515   3.710   2.691  0.6247  0.3887  0.1261
40146SOL    HW132417   0.471   3.727   2.608  1.0925 -0.0236 -0.2127
40146SOL    HW232418   0.449   3.729   2.758  0.2561  0.7510 -0.3354
40147SOL     OW32419   1.776   9.029   7.636 -0.5520  1.1497 -0.6940
40147SOL    HW132420   1.833   8.982   7.696  1.2515 -0.1019 -3.2436
40147SOL    HW232421   1.725   8.961   7.592 -2.6946  2.1219  0.0975
40148SOL     OW32422   6.543   9.279  13.841  0.3620  0.0202  0.1107
40148SOL    HW132423   6.459   9.275  13.887 -0.8606  0.5352 -1.9584
40148SOL    HW232424   6.586   9.358  13.875  0.6317 -0.8919  2.0704
40149SOL     OW32425   0.726   6.670  11.702  0.7706 -0.2749  0.1591
40149SOL    HW132426   0.677   6.656  11.621  1.9056  0.0154 -0.6140
40149SOL    HW232427   0.812   6.699  11.672  1.3957 -0.7091  1.4638
40150SOL     OW32428  13.175   8.585   3.149 -0.3682  0.0857  0.6470
40150SOL    HW132429  13.091   8.631   3.153  0.0232  0.8416  0.3721
40150SOL    HW232430  13.188   8.567   3.056  1.2924  2.9160  0.2023
40151SOL     OW32431   8.196   4.038   4.718 -0.5881  0.3125  0.2179
40151SOL    HW132432   8.107   4.021   4.686 -0.1248 -0.8878 -0.5087
40151SOL    HW232433   8.204   3.981   4.794 -0.0213 -0.6142 -0.5011
40152SOL     OW32434   1.721   1.224   0.634  0.3826 -0.0708 -0.4033
40152SOL    HW132435   1.723   1.303   0.580 -0.9862  0.1350 -0.2084
40152SOL    HW232436   1.739   1.255   0.723  0.3066 -0.0434 -0.3970
40153SOL     OW32437   9.303  12.113   1.383  0.3157  0.0440  0.2223
40153SOL    HW132438   9.371  12.115   1.450  0.9908 -1.7028 -0.3452
40153SOL    HW232439   9.351  12.093   1.302 -0.6083  1.0337 -0.5912
40154SOL     OW32440  10.660   6.148   9.750 -0.1743 -0.0624  0.8445
40154SOL    HW132441  10.747   6.172   9.782 -0.3264  4.2841 -1.1356
40154SOL    HW232442  10.599   6.183   9.815 -0.4175 -0.2785  0.7349
40155SOL     OW32443   0.619  12.099   0.896  0.3761  0.5014  0.0633
40155SOL    HW132444   0.654  12.077   0.982  1.1256 -1.4763 -0.7069
40155SOL    HW232445   0.526  12.077   0.901  0.1811  1.3813  0.6539
40156SOL     OW32446   4.144   1.124   4.441  0.3587 -0.5059 -0.3189
40156SOL    HW132447   4.201   1.181   4.390 -0.6672 -0.2771 -1.2307
40156SOL    HW232448   4.171   1.140   4.532  2.5973 -1.3485 -0.7617
40157SOL     OW32449  13.892   8.306   5.467 -0.3670 -0.4822 -0.3451
40157SOL    HW132450  13.818   8.365   5.457  0.3682  0.6467  0.5702
40157SOL    HW232451  13.935   8.336   5.547  1.1621 -1.0220 -0.9379
40158SOL     OW32452   0.212   5.787   4.416 -0.1662 -0.1927 -0.1990
40158SOL    HW132453   0.163   5.869   4.411  0.3046  0.1253  0.2423
40158SOL    HW232454   0.283   5.797   4.353  0.1074 -0.1031  0.1166
40159SOL     OW32455   7.530   8.172   1.355  0.1980  0.3293 -0.1284
40159SOL    HW132456   7.543   8.266   1.365  0.3005  0.4648 -1.3956
40159SOL    HW232457   7.435   8.160   1.367  0.3246  0.4236  1.1190
40160SOL     OW32458   4.331   8.994   2.614 -0.1503 -0.2283  0.0711
40160SOL    HW132459   4.302   8.904   2.626 -2.2864  0.4490  0.4504
40160SOL    HW232460   4.279   9.027   2.541  1.8916  0.2110 -1.2737
40161SOL     OW32461   0.765   8.516   2.519  0.0719  0.1762  0.2433
40161SOL    HW132462   0.806   8.472   2.594 -0.3094 -2.7519 -1.0928
40161SOL    HW232463   0.832   8.576   2.487  0.1355  1.7336  3.0214
40162SOL     OW32464  11.215   0.262   3.530  0.0343 -0.2481 -0.2194
40162SOL    HW132465  11.205   0.326   3.601 -0.7159 -1.9254  1.2566
40162SOL    HW232466  11.260   0.311   3.461  2.0083  1.1282  1.8612
40163SOL     OW32467  13.591   3.182   7.060 -1.1982 -0.3326 -0.4727
40163SOL    HW132468  13.551   3.197   6.974 -2.0769 -1.2383 -0.2387
40163SOL    HW232469  13.683   3.166   7.040 -0.7414  2.3586 -0.9639
40164SOL     OW32470  12.780   5.912   3.603 -0.5320  0.0874 -0.2474
40164SOL    HW132471  12.806   5.886   3.691  0.0494  0.9786 -0.1472
40164SOL    HW232472  12.687   5.890   3.598 -0.0744 -2.0714 -0.2056
40165SOL     OW32473   0.448   8.566   4.072 -0.1800  0.4334 -0.2401
40165SOL    HW132474   0.428   8.646   4.122  0.0182  0.2184  0.1879
40165SOL    HW232475   0.441   8.495   4.136 -3.0579 -0.2602 -1.1550
40166SOL     OW32476   2.660   3.007   0.293 -0.1666  0.2019  0.0796
40166SOL    HW132477   2.636   2.999   0.201 -1.0124 -0.4876  0.3436
40166SOL    HW232478   2.755   2.998   0.295 -0.0827  0.8285 -0.7823
40167SOL     OW32479  12.338   7.337  14.042 -1.0224 -0.1943 -0.5900
40167SOL    HW132480  12.423   7.294  14.042  0.0177  1.7156 -1.2509
40167SOL    HW232481  12.281   7.280  14.094  0.6510 -1.5158 -0.1370
40168SOL     OW32482   4.916  13.807   9.668 -0.2577 -0.4936  0.1391
40168SOL    HW132483   4.888  13.750   9.740  0.0388 -0.6119  0.1628
40168SOL    HW232484   4.927  13.748   9.594  2.1339 -0.8668  0.6837
40169SOL     OW32485   3.660   1.911   0.288 -0.3952 -0.1848  0.0130
40169SOL    HW132486   3.637   1.999   0.319  0.0468  0.2714 -0.9181
40169SOL    HW232487   3.708   1.926   0.207 -1.9113 -1.3800 -1.1384
40170SOL     OW32488   6.631   4.528   9.044 -0.3930  0.0955  0.3618
40170SOL    HW132489   6.706   4.540   9.102 -0.1241 -0.2798  0.0880
40170SOL    HW232490   6.667   4.535   8.956 -0.8504  0.9681  0.2297
40171SOL     OW32491   7.966   9.233   8.290  0.0420 -0.2827 -0.1451
40171SOL    HW132492   8.008   9.215   8.374  1.6475  0.4915 -0.7489
40171SOL    HW232493   8.025   9.195   8.225 -0.4584  0.3631 -0.9958
40172SOL     OW32494  12.469   0.802   0.487 -0.0444 -0.6369  0.2024
40172SOL    HW132495  12.551   0.836   0.525 -0.9063  0.3766  1.2539
40172SOL    HW232496  12.432   0.877   0.441 -0.2167 -1.1924 -0.5772
40173SOL     OW32497  13.145   9.133  10.603  0.4300 -0.0812 -0.3786
40173SOL    HW132498  13.218   9.088  10.646 -1.1999 -1.3101  1.2610
40173SOL    HW232499  13.110   9.068  10.542  0.1211  0.1699 -0.4671
40174SOL     OW32500   8.083   8.663   5.418  0.1704 -0.2317  0.3820
40174SOL    HW132501   8.047   8.674   5.506 -0.7774  1.3701 -0.1755
40174SOL    HW232502   8.078   8.750   5.379 -0.0110 -1.0407 -1.4799
40175SOL     OW32503   3.723  10.098  11.368 -0.5022 -0.3129 -0.3616
40175SOL    HW132504   3.684  10.122  11.453 -1.1160 -2.2183 -0.0656
40175SOL    HW232505   3.815  10.082  11.388 -0.2031  1.1091 -0.4611
40176SOL     OW32506   6.675   5.712  11.413  0.7760 -0.1647 -0.1501
40176SOL    HW132507   6.750   5.767  11.391 -0.2006  1.5546  0.5774
40176SOL    HW232508   6.639   5.686  11.328  2.0860 -0.8848 -0.5030
40177SOL     OW32509  12.636   0.013   4.852  0.1148  0.0209 -0.0926
40177SOL    HW132510  12.630  -0.082   4.851  0.9046 -0.0528  0.9071
40177SOL    HW232511  12.723   0.032   4.886  0.2039  1.1005 -0.8721
40178SOL     OW32512   9.123  11.170   6.944  0.0989 -0.8309  0.3517
40178SOL    HW132513   9.046  11.200   6.991  0.7411  0.4281  0.6255
40178SOL    HW232514   9.152  11.246   6.894  1.2579 -1.2368  0.3765
40179SOL     OW32515   1.107   0.894   8.804 -0.0848 -0.4076 -0.1505
40179SOL    HW132516   1.031   0.928   8.851  0.2346  0.2451 -0.0930
40179SOL    HW232517   1.182   0.938   8.844  0.1481  0.6322 -1.6692
40180SOL     OW32518   5.224  10.505   8.436  0.3903  0.5402 -0.4652
40180SOL    HW132519   5.320  10.505   8.433  0.4173 -0.3084  0.0923
40180SOL    HW232520   5.198  10.517   8.345  1.0400 -0.2728 -0.7732
40181SOL     OW32521   6.122   8.354   0.540 -0.3139 -0.2399 -0.5328
40181SOL    HW132522   6.174   8.381   0.616 -1.5368 -1.3002  0.7411
40181SOL    HW232523   6.107   8.261   0.553 -0.8862 -0.3630 -1.8958
40182SOL     OW32524   3.579   5.313   8.725  0.7838  0.3379  0.5017
40182SOL    HW132525   3.669   5.298   8.697  0.4525 -0.4201 -0.1881
40182SOL    HW232526   3.573   5.408   8.734  0.9556  0.6423 -1.9353
40183SOL     OW32527   4.196   1.911  11.891  0.0036 -0.4587 -0.3246
40183SOL    HW132528   4.206   1.975  11.821 -0.8333 -0.1117 -0.1271
40183SOL    HW232529   4.286   1.894  11.920  0.2585  0.3991 -0.5780
40184SOL     OW32530   4.789  10.348   5.319 -0.2087 -0.0848 -0.3831
40184SOL    HW132531   4.758  10.437   5.304  0.4531  0.2640  0.2875
40184SOL    HW232532   4.837  10.352   5.401 -1.0380 -1.2796  0.1904
40185SOL     OW32533   2.176   0.530   9.007 -0.0766 -0.2567  0.0055
40185SOL    HW132534   2.179   0.435   8.996  0.6233 -0.1672 -0.7069
40185SOL    HW232535   2.086   0.549   9.032 -0.4998 -1.0027 -0.9253
40186SOL     OW32536   2.832   2.742   1.809 -0.7432  0.5812 -0.1449
40186SOL    HW132537   2.741   2.763   1.792 -1.1057  0.5875  1.5903
40186SOL    HW232538   2.845   2.655   1.771 -1.2560  0.8696 -1.0012
40187SOL     OW32539  10.857   3.564   5.789 -0.0852  0.1202  0.1586
40187SOL    HW132540  10.880   3.521   5.706 -0.8559  0.6178 -0.3344
40187SOL    HW232541  10.772   3.526   5.811  0.7463 -1.0606  1.4861
40188SOL     OW32542   9.951   0.232   6.408 -0.5635  0.3229  0.4286
40188SOL    HW132543   9.867   0.276   6.415  0.2994  2.0613  0.2334
40188SOL    HW232544  10.007   0.292   6.360  1.1472 -0.2420  1.5959
40189SOL     OW32545   5.041  13.347   6.029  0.3012 -0.2475 -0.5294
40189SOL    HW132546   5.127  13.380   6.052  0.4907 -1.2471  0.3073
40189SOL    HW232547   5.007  13.311   6.111 -1.1837  0.6944 -0.6992
40190SOL     OW32548   0.256  12.814   6.142 -0.4209  0.6882  0.4853
40190SOL    HW132549   0.241  12.906   6.165 -1.0652  1.0469 -1.2411
40190SOL    HW232550   0.250  12.812   6.047 -1.0184 -1.2622  0.5323
40191SOL     OW32551   1.068   5.364   8.873 -0.0620 -0.2429 -0.2796
40191SOL    HW132552   1.003   5.308   8.915 -0.8483  1.2150  0.5298
40191SOL    HW232553   1.040   5.369   8.781 -0.8197 -0.0278 -0.0466
40192SOL     OW32554   2.047   3.388   9.584 -0.0126  0.6646  0.0806
40192SOL    HW132555   1.997   3.443   9.523 -2.3344 -1.1175  0.2403
40192SOL    HW232556   2.056   3.304   9.540 -0.6618 -0.2745  1.6459
40193SOL     OW32557   4.544   9.715  12.520  0.2553 -0.4454  0.1653
40193SOL    HW132558   4.459   9.691  12.483 -0.2289  1.4057 -0.0743
40193SOL    HW232559   4.554   9.661  12.598 -0.7407 -1.2875 -0.2707
40194SOL     OW32560   2.816   6.617   5.668 -0.0013 -0.3622  0.0358
40194SOL    HW132561   2.738   6.617   5.723 -0.6208 -0.0028 -0.8235
40194SOL    HW232562   2.796   6.558   5.597  0.4508 -0.1495 -0.2744
40195SOL     OW32563   3.348  11.349   6.467  0.2250 -0.1160  0.7529
40195SOL    HW132564   3.276  11.325   6.525 -1.6455  3.1566  0.0696
40195SOL    HW232565   3.363  11.442   6.485  0.5754  0.6837 -2.8660
40196SOL     OW32566   6.424   2.085  13.793 -0.4699 -0.8885  0.7992
40196SOL    HW132567   6.364   2.037  13.736 -3.0080  1.3663  1.3388
40196SOL    HW232568   6.472   2.017  13.840 -3.5099 -2.9400  1.2507
40197SOL     OW32569   5.977   7.406   9.593  0.1304 -0.0030  0.0726
40197SOL    HW132570   5.976   7.355   9.512  1.7535  1.5583 -0.9972
40197SOL    HW232571   5.905   7.468   9.583 -0.1353 -0.2927  0.1679
40198SOL     OW32572   1.668  11.300   3.392 -0.1232  0.0215  0.3897
40198SOL    HW132573   1.634  11.303   3.482 -1.0261 -0.3842  0.0729
40198SOL    HW232574   1.612  11.361   3.344 -0.5655 -0.8218 -0.1868
40199SOL     OW32575  12.792  11.132   4.396 -0.0194  0.3671 -0.2610
40199SOL    HW132576  12.802  11.070   4.467  0.2428  0.2064 -0.4395
40199SOL    HW232577  12.881  11.152   4.367 -0.0521  1.3863  0.2760
40200SOL     OW32578   6.576   4.846   3.087 -0.3177 -0.9341  0.0530
40200SOL    HW132579   6.563   4.904   3.012  1.3087  1.3843  1.3990
40200SOL    HW232580   6.672   4.838   3.094 -0.4693 -2.1977  1.1033
40201SOL     OW32581  11.752  12.498   3.404  0.0984 -0.0957  0.2643
40201SOL    HW132582  11.770  12.540   3.488 -1.8367 -1.7761  1.6356
40201SOL    HW232583  11.656  12.495   3.399  0.1610 -0.1239 -1.9915
40202SOL     OW32584   6.995   4.190  11.233 -0.6297  0.2561 -0.0224
40202SOL    HW132585   6.911   4.236  11.243 -0.7116 -0.0708  0.9033
40202SOL    HW232586   7.051   4.252  11.185 -1.3551  0.5222 -0.5452
40203SOL     OW32587  13.287   1.153  10.831  0.0460  0.0999  0.1305
40203SOL    HW132588  13.285   1.057  10.829  0.4167  0.0992 -1.3382
40203SOL    HW232589  13.343   1.177  10.757 -0.3775  1.4620  0.2265
40204SOL     OW32590   5.034   8.224   8.921  0.4695  0.0232 -0.2201
40204SOL    HW132591   5.051   8.206   9.013 -1.5948 -0.3746  0.1459
40204SOL    HW232592   4.943   8.255   8.919  0.6651  0.6059 -2.0537
40205SOL     OW32593  12.396  13.374  12.927 -0.3284  0.1386  0.0950
40205SOL    HW132594  12.386  13.287  12.890 -0.7204 -0.6749  1.9743
40205SOL    HW232595  12.329  13.379  12.995  0.9024  1.1775  1.3074
40206SOL     OW32596   0.948   0.265   4.363  0.4540 -0.3336  0.3319
40206SOL    HW132597   0.935   0.172   4.382  1.5636 -0.2609  1.5458
40206SOL    HW232598   0.900   0.279   4.281 -0.4942 -1.7612  0.5983
40207SOL     OW32599   4.495   4.544   2.819 -0.0803 -0.0048  0.4520
40207SOL    HW132600   4.575   4.596   2.821  0.1431 -0.3138 -0.0961
40207SOL    HW232601   4.427   4.605   2.790  0.0468  0.1485  0.4758
40208SOL     OW32602   9.523   8.927   5.434  0.4286  0.1691  0.2159
40208SOL    HW132603   9.489   8.875   5.507  3.0562 -1.6806  0.2577
40208SOL    HW232604   9.549   8.863   5.369  2.1745  1.5282 -0.4878
40209SOL     OW32605  13.348   9.257  10.108  0.0528  0.0048 -0.2334
40209SOL    HW132606  13.326   9.244  10.016  0.1594  1.4751 -0.4973
40209SOL    HW232607  13.303   9.186  10.155  0.5123 -1.1344 -1.4629
40210SOL     OW32608   2.002   4.313   4.959 -0.3670  0.7187  0.3590
40210SOL    HW132609   1.991   4.226   4.997 -0.9552  1.6510  2.4604
40210SOL    HW232610   2.078   4.304   4.901  0.5010 -0.8499  1.6551
40211SOL     OW32611   1.071   1.165   2.422  0.3647  0.4339 -0.1254
40211SOL    HW132612   1.011   1.217   2.475 -1.4877 -1.9559  0.2870
40211SOL    HW232613   1.158   1.199   2.444 -0.7213  3.6694 -0.3555
40212SOL     OW32614   9.604  13.685   6.628  0.2465  0.0732  0.6709
40212SOL    HW132615   9.697  13.683   6.651  0.2727  0.2968  0.5870
40212SOL    HW232616   9.575  13.773   6.652  0.0930  0.0526  0.5594
40213SOL     OW32617   4.788   5.606   5.119  0.2399 -0.1524  0.5815
40213SOL    HW132618   4.727   5.664   5.163 -1.1853 -0.4594 -0.9113
40213SOL    HW232619   4.761   5.518   5.145 -1.3478 -0.4111 -1.6562
40214SOL     OW32620  13.659  10.029   5.293 -0.2150 -0.1350 -0.2502
40214SOL    HW132621  13.623  10.062   5.211 -1.1875  0.6946  0.4868
40214SOL    HW232622  13.752  10.052   5.289 -0.5540  1.2694 -0.4574
40215SOL     OW32623   5.819   0.494  13.252 -0.3314 -0.5554 -0.2037
40215SOL    HW132624   5.903   0.462  13.284 -0.4556  0.4207  1.2121
40215SOL    HW232625   5.761   0.488  13.329 -0.5869  2.1093 -0.0941
40216SOL     OW32626   4.992   5.595   6.210 -0.5029 -0.4816  0.4232
40216SOL    HW132627   5.063   5.625   6.267 -0.3010 -0.6620  0.2658
40216SOL    HW232628   5.014   5.504   6.189 -0.0185 -0.0997 -0.8001
40217SOL     OW32629   1.819  13.555   5.507 -0.1739  0.0702 -0.2139
40217SOL    HW132630   1.742  13.612   5.515  1.1015  2.2054 -1.9727
40217SOL    HW232631   1.840  13.531   5.597 -1.4019  1.5515  0.5229
40218SOL     OW32632  13.426   1.325   7.110 -0.6423 -0.2418 -0.1155
40218SOL    HW132633  13.445   1.231   7.111 -4.1380 -1.0957 -0.9843
40218SOL    HW232634  13.356   1.336   7.174  2.1650  2.5664  2.8229
40219SOL     OW32635   0.096   0.072  10.935  0.3902 -0.1678 -0.0995
40219SOL    HW132636   0.174   0.017  10.925  1.1580  1.0287 -0.9206
40219SOL    HW232637   0.120   0.137  11.000 -0.0199  0.0648 -0.1760
40220SOL     OW32638   5.162  12.481  13.291 -0.1639 -0.0838 -0.1936
40220SOL    HW132639   5.164  12.490  13.196  0.0442  2.1945 -0.0373
40220SOL    HW232640   5.070  12.488  13.314 -0.0922  0.7645 -0.1448
40221SOL     OW32641   6.570   4.392   8.151 -0.1967 -0.2945 -0.3831
40221SOL    HW132642   6.507   4.432   8.091 -1.3248 -0.1640  0.8603
40221SOL    HW232643   6.579   4.454   8.223  2.6019  0.4505 -1.2377
40222SOL     OW32644   3.403   4.032  10.766  0.4600 -0.8653  0.0516
40222SOL    HW132645   3.495   4.058  10.756  0.7812 -1.2805  1.6552
40222SOL    HW232646   3.396   4.003  10.857 -1.8997  1.8208  0.8771
40223SOL     OW32647   7.839   9.293   7.518  0.6879 -0.2755 -0.4604
40223SOL    HW132648   7.904   9.257   7.458 -0.5697 -0.9736 -1.4315
40223SOL    HW232649   7.767   9.231   7.518  0.1992  0.2263  0.9950
40224SOL     OW32650   4.767   1.970   7.401  0.2043  0.4382  0.4851
40224SOL    HW132651   4.704   2.002   7.337 -0.5284  0.1407  1.0383
40224SOL    HW232652   4.852   2.004   7.372 -0.2037  0.7890 -0.3035
40225SOL     OW32653  13.702   6.706  11.137  0.0628 -0.6999  0.5021
40225SOL    HW132654  13.609   6.688  11.151  0.2912 -1.4076  1.1968
40225SOL    HW232655  13.747   6.653  11.203  1.0483 -1.6010 -0.8364
40226SOL     OW32656   1.718   7.412   6.494 -0.1838  0.0274  0.5368
40226SOL    HW132657   1.783   7.368   6.440  1.5740  1.6377  1.2206
40226SOL    HW232658   1.735   7.505   6.480 -1.5283  0.4810  1.7089
40227SOL     OW32659  11.742  13.091   8.783  0.0294 -0.5489  0.2243
40227SOL    HW132660  11.666  13.148   8.772  0.0744 -0.2604  1.2981
40227SOL    HW232661  11.803  13.142   8.835  1.4254 -0.3755 -1.4799
40228SOL     OW32662   2.015  13.210   0.258  0.1592  0.3989  0.3666
40228SOL    HW132663   1.919  13.212   0.257  0.1001 -1.1433 -0.5566
40228SOL    HW232664   2.041  13.301   0.239 -1.0676  1.1589  2.0340
40229SOL     OW32665   2.831   8.918   2.409  0.3574  0.1602  0.3166
40229SOL    HW132666   2.782   8.840   2.435 -0.8477  0.9413  0.4618
40229SOL    HW232667   2.862   8.898   2.320 -0.5878 -0.1981  0.0491
40230SOL     OW32668   1.860  12.932  12.526  0.3200 -0.0670  0.2539
40230SOL    HW132669   1.901  12.933  12.613 -0.4604  0.6311  0.6274
40230SOL    HW232670   1.836  13.024  12.510 -1.6555 -0.5249  0.3318
40231SOL     OW32671   6.975   8.400   2.132  0.2607 -0.2281 -0.1866
40231SOL    HW132672   7.033   8.365   2.200  0.4221  0.6508  0.1354
40231SOL    HW232673   7.005   8.358   2.052  0.4367 -0.8470  0.1969
40232SOL     OW32674   7.126  13.787  10.485 -0.2342 -0.3684  0.1945
40232SOL    HW132675   7.173  13.835  10.552 -1.3989 -1.2209  1.6900
40232SOL    HW232676   7.034  13.814  10.496 -0.7584 -2.1259  0.3906
40233SOL     OW32677  11.148  12.069   0.415 -0.0853  0.3857  0.2876
40233SOL    HW132678  11.163  12.002   0.348 -2.4365 -0.8580  0.9185
40233SOL    HW232679  11.175  12.151   0.373  0.2067 -0.5913 -1.5288
40234SOL     OW32680  10.638   8.513   1.335 -0.1782  0.0740  0.3095
40234SOL    HW132681  10.725   8.500   1.371 -0.3345  0.9416  1.0251
40234SOL    HW232682  10.634   8.453   1.260  1.2502  0.4660 -0.1169
40235SOL     OW32683   0.444  10.183   3.566 -0.5750  0.3266 -0.0624
40235SOL    HW132684   0.430  10.102   3.517  0.4765 -0.3849  0.7609
40235SOL    HW232685   0.423  10.253   3.504  0.2264 -0.5530 -1.3734
40236SOL     OW32686  13.320   1.994   6.237 -0.5176  0.6758  0.3776
40236SOL    HW132687  13.393   2.003   6.177 -1.3217  1.1107 -0.5649
40236SOL    HW232688  13.358   2.008   6.324  1.1112 -2.3471  0.2554
40237SOL     OW32689  11.937   2.051  10.954 -0.2898  0.2059 -0.0167
40237SOL    HW132690  11.879   2.099  10.895  1.2429  0.9300 -1.0130
40237SOL    HW232691  11.903   2.069  11.041 -0.2335  2.5283 -0.4124
40238SOL     OW32692  12.452   9.617  10.675  0.8610 -0.1943  1.0624
40238SOL    HW132693  12.423   9.575  10.756 -0.5299 -0.0756  0.6606
40238SOL    HW232694  12.371   9.637  10.629  1.4237  2.8201  1.1580
40239SOL     OW32695   9.044   7.939   6.403 -0.3408  0.4343 -0.1246
40239SOL    HW132696   9.003   7.955   6.318  0.2976  1.2215 -0.2934
40239SOL    HW232697   8.996   7.864   6.439 -0.1801 -0.3500 -1.4664
40240SOL     OW32698   2.843   9.514  10.319  0.0080  0.3307  0.3449
40240SOL    HW132699   2.802   9.446  10.373 -0.0786  0.9804  1.1157
40240SOL    HW232700   2.918   9.470  10.278 -1.1775 -0.7654 -0.7585
40241SOL     OW32701   8.534   1.742   0.286  0.3382 -0.8907  0.4036
40241SOL    HW132702   8.568   1.682   0.219 -1.2126 -0.9279 -0.3977
40241SOL    HW232703   8.455   1.779   0.247  0.0385 -0.0195  1.7721
40242SOL     OW32704   1.083  12.043   1.904 -0.2754 -0.2871  0.9201
40242SOL    HW132705   1.015  12.091   1.951 -0.7761 -0.1556  0.0682
40242SOL    HW232706   1.039  11.967   1.868  0.2165 -0.6549  1.0740
40243SOL     OW32707  11.848  10.157  13.307 -0.0997  0.1155  0.4663
40243SOL    HW132708  11.769  10.208  13.321 -0.6545 -0.8084  0.8360
40243SOL    HW232709  11.877  10.181  13.219  0.6649  2.3561  1.2583
40244SOL     OW32710   1.745   2.909   8.694  0.3805  0.1979  0.0705
40244SOL    HW132711   1.662   2.884   8.734  0.3167  0.9904  0.4656
40244SOL    HW232712   1.761   2.842   8.628 -1.5761  1.0591 -1.4053
40245SOL     OW32713   6.866   9.124   4.528  0.1243  0.0187 -0.7895
40245SOL    HW132714   6.787   9.106   4.579  0.5518  0.8266  0.1976
40245SOL    HW232715   6.933   9.068   4.566  0.5504  0.9305 -0.1544
40246SOL     OW32716  13.250   2.592   2.623  0.4390  0.1641 -0.8143
40246SOL    HW132717  13.342   2.607   2.645  0.1434  1.9212 -0.5955
40246SOL    HW232718  13.236   2.499   2.639  1.5371  0.3486  1.6641
40247SOL     OW32719  10.989   9.565   5.178 -0.0627  0.6256 -0.1510
40247SOL    HW132720  11.001   9.650   5.221  1.6186  0.6014 -0.4829
40247SOL    HW232721  10.915   9.579   5.119 -0.4425  1.5593  0.5101
40248SOL     OW32722  10.151   6.506  13.090 -0.2997 -0.1350 -0.2381
40248SOL    HW132723  10.220   6.569  13.069 -1.1112  0.8931  0.0697
40248SOL    HW232724  10.196   6.434  13.134  1.0502 -1.0508 -2.9200
40249SOL     OW32725   9.018   7.142   4.012  0.1233 -0.7175 -0.0899
40249SOL    HW132726   9.050   7.166   3.925 -0.4576  0.4742  0.0113
40249SOL    HW232727   9.050   7.212   4.069  2.8805 -2.8443  1.2179
40250SOL     OW32728   4.776   7.999   1.573  0.0232 -0.3455 -0.2250
40250SOL    HW132729   4.848   7.940   1.595  0.6547  1.5109  3.5716
40250SOL    HW232730   4.818   8.072   1.528  0.4608  0.3012  1.1662
40251SOL     OW32731   8.400   3.703  13.300 -0.0234 -0.0105  0.4647
40251SOL    HW132732   8.326   3.715  13.240  0.1024  0.9632  0.4884
40251SOL    HW232733   8.362   3.662  13.378 -0.2140 -1.1729 -0.2032
40252SOL     OW32734   6.745   4.042   3.476  0.1518  0.1192  0.1559
40252SOL    HW132735   6.782   3.954   3.484  0.5999  0.4703  3.2722
40252SOL    HW232736   6.652   4.031   3.494 -0.2677  0.0274 -1.8512
40253SOL     OW32737   6.763   5.402   1.003 -0.1565 -0.2058  0.2761
40253SOL    HW132738   6.737   5.317   0.969  2.0014 -1.4016  1.4316
40253SOL    HW232739   6.856   5.393   1.023  0.2467  2.5484  0.1086
40254SOL     OW32740   7.962   8.980  13.747 -0.4862  0.3718  0.6020
40254SOL    HW132741   7.889   8.919  13.735  0.9007 -1.3552  0.5202
40254SOL    HW232742   7.932   9.041  13.814 -3.3650  2.0190 -1.8843
40255SOL     OW32743   5.944   8.907   6.700 -0.1144  0.2226 -0.1364
40255SOL    HW132744   5.990   8.985   6.732 -0.4243  1.6006 -2.7270
40255SOL    HW232745   5.881   8.887   6.769 -0.3174  2.5730  0.4713
40256SOL     OW32746  10.372   9.207   2.006 -0.1461  0.2299  0.1814
40256SOL    HW132747  10.376   9.160   2.089 -1.2899 -1.8903 -0.8912
40256SOL    HW232748  10.391   9.142   1.939 -3.7793  0.6397 -1.5257
40257SOL     OW32749   3.886   6.692   3.238 -0.3895  0.1899 -0.3564
40257SOL    HW132750   3.951   6.635   3.197  0.5203  0.2201  1.0098
40257SOL    HW232751   3.831   6.721   3.165 -0.3869 -1.7638 -1.2098
40258SOL     OW32752  12.739   6.175  11.280 -0.1679  0.0795  0.4686
40258SOL    HW132753  12.756   6.267  11.264  0.7795 -0.2045 -0.2128
40258SOL    HW232754  12.767   6.161  11.371 -0.1853  0.4218  0.5279
40259SOL     OW32755   2.098  10.869  12.182  0.1687  0.3069 -0.0672
40259SOL    HW132756   2.091  10.775  12.169 -0.9040  0.3679 -0.0317
40259SOL    HW232757   2.187  10.882  12.215 -0.5250 -1.0184  2.6033
40260SOL     OW32758   4.018   0.319   0.951 -0.1737  0.1478  0.0526
40260SOL    HW132759   3.950   0.364   1.001  1.2452  1.0235  1.2931
40260SOL    HW232760   4.079   0.286   1.017 -0.4369 -2.4437 -0.9122
40261SOL     OW32761   8.832   1.927   8.718  0.2814  0.5500 -0.0370
40261SOL    HW132762   8.847   2.011   8.761 -0.4898 -0.2158  1.8726
40261SOL    HW232763   8.805   1.949   8.630 -0.5139  2.3430  0.6152
40262SOL     OW32764   0.822   0.905   6.289  0.1285  0.2839 -0.4979
40262SOL    HW132765   0.777   0.830   6.327  0.8021  1.1297  2.1773
40262SOL    HW232766   0.759   0.944   6.229 -1.2123 -0.8446  0.1333
40263SOL     OW32767   6.403  11.015   5.108 -0.6772 -0.0876 -0.2914
40263SOL    HW132768   6.427  10.969   5.189  1.4143  0.4414 -0.5650
40263SOL    HW232769   6.352  10.950   5.059 -1.1494 -0.7487  1.0040
40264SOL     OW32770   6.736   7.286   1.693 -0.1680 -0.2298 -0.7248
40264SOL    HW132771   6.654   7.238   1.704 -0.6402  0.6322 -0.3487
40264SOL    HW232772   6.796   7.223   1.653 -1.2803 -0.5938 -1.8782
40265SOL     OW32773  10.831   8.474   6.950  0.2711 -0.2894 -0.2113
40265SOL    HW132774  10.853   8.528   7.026  0.8034 -0.4236 -0.2653
40265SOL    HW232775  10.907   8.417   6.939 -0.0510 -0.6648 -0.4955
40266SOL     OW32776   5.425  13.572   4.368  0.5806 -0.0349  1.2046
40266SOL    HW132777   5.369  13.510   4.415 -0.1935 -0.8449 -0.6873
40266SOL    HW232778   5.370  13.649   4.354 -0.0799 -0.7708 -0.5163
40267SOL     OW32779   5.364   0.826  12.481  0.0670 -0.0820 -0.0128
40267SOL    HW132780   5.416   0.767  12.427  0.0729  1.4365 -1.7712
40267SOL    HW232781   5.412   0.909  12.479 -1.2806  0.7354  0.1459
40268SOL     OW32782   4.984  10.147   2.630  0.2843  0.3710 -0.1720
40268SOL    HW132783   5.004  10.068   2.579 -1.3574  0.7568 -1.5125
40268SOL    HW232784   4.889  10.153   2.627  0.2571  1.3345  1.6054
40269SOL     OW32785  10.026  10.763   6.270  0.0330 -0.4651  0.1987
40269SOL    HW132786  10.010  10.844   6.223 -0.1509 -1.6918 -1.9931
40269SOL    HW232787   9.992  10.778   6.358 -2.7576  0.8433 -0.9925
40270SOL     OW32788   2.427   5.344   7.199 -0.2821  0.3447  0.4201
40270SOL    HW132789   2.424   5.349   7.294  0.3826 -0.6807  0.5103
40270SOL    HW232790   2.429   5.251   7.180 -0.4370  0.5379 -0.6025
40271SOL     OW32791   3.393   9.152   0.017  0.3263  0.6691  0.4790
40271SOL    HW132792   3.475   9.201   0.012 -0.1655  1.4832  0.1592
40271SOL    HW232793   3.362   9.167   0.107 -0.4835  2.0866  0.0040
40272SOL     OW32794   4.984   2.522   1.131  0.7116 -0.0747  0.5912
40272SOL    HW132795   4.942   2.606   1.147 -1.1849 -1.0184  0.8840
40272SOL    HW232796   5.042   2.537   1.056 -1.1486  0.9990 -0.7026
40273SOL     OW32797   6.955   9.158   2.533  0.0092 -0.4824 -0.7240
40273SOL    HW132798   6.866   9.180   2.505 -0.3319 -2.0925 -0.9664
40273SOL    HW232799   6.998   9.127   2.453  1.0242  0.8865 -0.7576
40274SOL     OW32800   7.597   1.757   0.448 -0.3841  0.8027 -0.3023
40274SOL    HW132801   7.547   1.690   0.495 -0.8961  1.1481 -0.3379
40274SOL    HW232802   7.688   1.739   0.470 -0.4919 -0.0815 -0.5438
40275SOL     OW32803  12.410   2.466  11.263  0.5912  0.5276  0.2393
40275SOL    HW132804  12.390   2.508  11.346  1.2789  0.6036  0.3657
40275SOL    HW232805  12.392   2.373  11.279 -1.5356  0.8084 -0.2236
40276SOL     OW32806  13.537   1.538   9.520  0.4416 -0.1230 -0.1580
40276SOL    HW132807  13.447   1.520   9.548  0.2515  0.7006 -0.2069
40276SOL    HW232808  13.584   1.456   9.535 -0.3193 -0.5678 -0.1461
40277SOL     OW32809  13.325   3.330   4.146  0.2319  0.0381  0.0467
40277SOL    HW132810  13.245   3.325   4.198  0.0280 -1.6966 -0.3906
40277SOL    HW232811  13.333   3.423   4.124 -0.7439  0.5023  1.4782
40278SOL     OW32812   2.686  13.624  11.453  1.0166  0.3335 -0.5135
40278SOL    HW132813   2.645  13.658  11.373  2.1440  0.6440 -0.9769
40278SOL    HW232814   2.725  13.701  11.495 -0.0062  0.2606  0.6293
40279SOL     OW32815  10.298   6.164   7.641  0.1585  0.6465 -0.6526
40279SOL    HW132816  10.287   6.111   7.720  0.2156  0.7599 -0.5685
40279SOL    HW232817  10.335   6.103   7.577 -0.6276  0.3570 -0.8359
40280SOL     OW32818   4.146   4.535   6.509 -0.0431  0.1478  0.4696
40280SOL    HW132819   4.219   4.513   6.566  0.4305 -1.3983 -0.6538
40280SOL    HW232820   4.186   4.555   6.425 -0.8441  0.4271  0.1440
40281SOL     OW32821   1.450   1.480   1.111  0.1969 -0.1045 -0.8526
40281SOL    HW132822   1.409   1.531   1.181  0.0821 -3.0196  1.4003
40281SOL    HW232823   1.542   1.474   1.137  0.3691 -0.3381 -1.5109
40282SOL     OW32824   1.155  12.468  13.113 -0.3144 -0.2892  0.7847
40282SOL    HW132825   1.124  12.523  13.040  0.2276 -0.3130  0.5293
40282SOL    HW232826   1.247  12.451  13.092 -0.3398 -0.8656  1.1311
40283SOL     OW32827  12.615  10.547   1.245 -0.4197  0.4035 -0.1825
40283SOL    HW132828  12.619  10.642   1.247  0.8020  0.4400 -2.1569
40283SOL    HW232829  12.653  10.520   1.329  0.2959  1.6515 -0.0780
40284SOL     OW32830   9.753   6.166  13.253  0.2174 -0.1769  0.0776
40284SOL    HW132831   9.694   6.149  13.327 -0.4169  2.2797  0.2052
40284SOL    HW232832   9.697   6.202  13.185  1.0748 -0.8570 -1.0304
40285SOL     OW32833   4.320  10.667  12.680  0.2693 -0.4187  0.1642
40285SOL    HW132834   4.288  10.635  12.764  1.7217  0.4439  1.1032
40285SOL    HW232835   4.403  10.711  12.702  0.1333  0.7753 -1.5549
40286SOL     OW32836  12.005  12.943   7.290  0.3359 -0.1435 -0.3594
40286SOL    HW132837  11.978  13.009   7.354  0.3399 -0.0377 -0.4669
40286SOL    HW232838  11.991  12.859   7.334  0.9454 -0.0498  0.0090
40287SOL     OW32839  10.107   3.530   5.786  0.0212 -0.1527  0.2871
40287SOL    HW132840  10.176   3.592   5.763 -0.3993  0.7554  1.3796
40287SOL    HW232841  10.140   3.484   5.863 -0.2357 -0.3152  0.3020
40288SOL     OW32842  10.278  12.922   0.825  0.6735 -0.0605  0.0741
40288SOL    HW132843  10.324  12.840   0.808  1.7836  0.3267  1.1162
40288SOL    HW232844  10.197  12.915   0.774  0.6456 -1.8843  0.3056
40289SOL     OW32845   3.918   8.268   1.095 -0.1945  0.6403 -0.3878
40289SOL    HW132846   3.996   8.316   1.067 -0.0783  0.1432 -0.9335
40289SOL    HW232847   3.883   8.319   1.168  0.8974  0.6276  0.1627
40290SOL     OW32848   9.059   8.956   0.114  0.4437 -0.3485 -0.0049
40290SOL    HW132849   9.016   8.896   0.175  0.1776  0.5787  0.7474
40290SOL    HW232850   9.050   9.042   0.155 -1.2653  0.5954 -2.1125
40291SOL     OW32851   7.184  11.917  11.214  0.0855 -0.6974  0.0986
40291SOL    HW132852   7.115  11.928  11.149 -0.6544  2.0447  1.1943
40291SOL    HW232853   7.258  11.883  11.165 -0.5642  0.8530 -2.1169
40292SOL     OW32854  11.015   2.205   5.882  1.0423 -0.5217 -0.0210
40292SOL    HW132855  10.925   2.220   5.909  0.8838 -1.6612  0.1383
40292SOL    HW232856  11.046   2.290   5.851  0.3780  0.2233  1.2830
40293SOL     OW32857   0.468  13.803  12.779  0.4346  0.0354  0.4208
40293SOL    HW132858   0.373  13.797  12.774  0.5692 -1.3896 -1.8677
40293SOL    HW232859   0.485  13.893  12.806 -1.5477  1.1641 -1.7309
40294SOL     OW32860   7.713   2.846   9.428  0.3369 -0.6371 -0.0667
40294SOL    HW132861   7.794   2.884   9.462  0.2261  0.3592 -0.8508
40294SOL    HW232862   7.718   2.859   9.333 -0.3705 -1.3098 -0.2079
40295SOL     OW32863  12.014   2.968   7.252 -0.5214 -0.7685  0.2471
40295SOL    HW132864  12.042   2.917   7.176  0.4126 -0.2208  0.2091
40295SOL    HW232865  12.064   2.932   7.325 -0.2096 -0.2349  0.3043
40296SOL     OW32866   5.946   3.569   3.885  0.0991  0.0241 -0.3753
40296SOL    HW132867   5.997   3.597   3.809 -3.3865 -1.0271 -3.3994
40296SOL    HW232868   5.865   3.535   3.848 -2.3711  0.5208  3.9486
40297SOL     OW32869   0.284   2.401   9.661 -0.0925 -0.0851  0.2114
40297SOL    HW132870   0.252   2.389   9.571 -0.4261  1.2842  0.1255
40297SOL    HW232871   0.205   2.414   9.713  0.1026 -0.8497  0.7241
40298SOL     OW32872   4.485  13.532   9.249 -0.6301  0.4343  0.2654
40298SOL    HW132873   4.442  13.571   9.173 -1.8075 -0.7938  0.2738
40298SOL    HW232874   4.578  13.538   9.229 -0.9260 -0.2953 -1.5102
40299SOL     OW32875   4.805   0.459   5.660  0.2276 -0.1131 -0.1989
40299SOL    HW132876   4.897   0.480   5.677  0.8729 -2.3890 -0.5613
40299SOL    HW232877   4.792   0.374   5.703 -1.1202 -0.8084 -1.8764
40300SOL     OW32878  11.812  12.142   3.266  0.4971  0.3611  0.2524
40300SOL    HW132879  11.838  12.202   3.197 -0.6712  1.2025  0.5334
40300SOL    HW232880  11.759  12.076   3.222 -0.0834  0.7880  0.3098
40301SOL     OW32881  12.009   2.980   2.909 -0.1424  0.3448  0.4286
40301SOL    HW132882  12.064   3.029   2.849  0.6025 -2.4784 -1.3913
40301SOL    HW232883  12.062   2.969   2.988  0.7862  0.0965 -0.2210
40302SOL     OW32884   3.734   5.739  11.607 -0.1107  0.1740  0.0304
40302SOL    HW132885   3.824   5.745  11.639 -0.7895 -0.7247  2.2756
40302SOL    HW232886   3.691   5.817  11.641 -0.4722 -0.0106  0.0057
40303SOL     OW32887   0.775  13.484   6.588  0.9035  0.1528  0.4034
40303SOL    HW132888   0.809  13.555   6.642  0.4522 -0.0349  0.9497
40303SOL    HW232889   0.690  13.462   6.629  0.1514  0.5829 -0.8746
40304SOL     OW32890   8.477   7.130  13.167 -0.0459 -0.0846  0.8182
40304SOL    HW132891   8.445   7.191  13.101 -1.7725 -0.9446  0.8142
40304SOL    HW232892   8.501   7.186  13.241 -1.4801  0.6279  0.7720
40305SOL     OW32893   9.766   2.409  11.610 -0.0278 -0.4654 -0.1607
40305SOL    HW132894   9.799   2.483  11.660 -0.4701  1.0204 -1.9279
40305SOL    HW232895   9.671   2.422  11.608 -0.1878 -1.5070  0.1127
40306SOL     OW32896  12.821   6.461   9.722 -0.3708  0.1905 -0.0943
40306SOL    HW132897  12.906   6.467   9.679 -0.1718  0.3153  0.3174
40306SOL    HW232898  12.758   6.475   9.651 -0.0374  0.6747 -0.3006
40307SOL     OW32899   7.839   7.201  12.108  0.0158  0.2684  0.0113
40307SOL    HW132900   7.856   7.284  12.151 -0.4125 -0.2887  1.3134
40307SOL    HW232901   7.849   7.219  12.015  1.1770  1.4698  0.3446
40308SOL     OW32902   8.183  13.446   6.035  0.2113 -0.3014 -0.0534
40308SOL    HW132903   8.230  13.520   5.995 -0.7794  0.2599 -0.2088
40308SOL    HW232904   8.156  13.392   5.961 -0.3365 -0.0478 -0.0370
40309SOL     OW32905   6.393   7.453  12.690  0.6866 -0.3488  0.5033
40309SOL    HW132906   6.394   7.484  12.599  2.1126  0.2593  0.6903
40309SOL    HW232907   6.391   7.533  12.742 -1.7169 -0.7095  1.0470
40310SOL     OW32908  10.909  12.860   4.269 -0.6027 -0.5164  0.4634
40310SOL    HW132909  10.979  12.813   4.314 -0.8242 -2.0232 -0.6673
40310SOL    HW232910  10.892  12.807   4.191 -0.7081  1.6161 -1.0252
40311SOL     OW32911   1.592  10.239   1.959  0.3149  0.5020 -0.5739
40311SOL    HW132912   1.667  10.226   2.018 -1.5964  1.7252  2.3442
40311SOL    HW232913   1.538  10.162   1.972 -0.1575  0.8189 -0.6469
40312SOL     OW32914   2.626  10.736   5.760 -0.2318  0.0800  0.0704
40312SOL    HW132915   2.615  10.830   5.744  1.2811 -0.0199 -1.8725
40312SOL    HW232916   2.582  10.721   5.844 -0.7548  2.4570  0.2934
40313SOL     OW32917   2.374   6.980   9.807  0.2852  0.4453 -0.6172
40313SOL    HW132918   2.417   6.971   9.893 -1.5243 -1.9331  0.1537
40313SOL    HW232919   2.427   6.926   9.748  0.4297  0.4935 -0.5318
40314SOL     OW32920   4.311  12.643  12.873  0.0622 -0.1580 -0.0212
40314SOL    HW132921   4.401  12.669  12.854  0.4944 -0.2283  1.7906
40314SOL    HW232922   4.279  12.607  12.790  1.5479  0.2460 -0.8140
40315SOL     OW32923   9.013  13.992  13.556  0.0067 -0.0556 -0.3527
40315SOL    HW132924   8.996  13.929  13.486 -0.1653 -0.1475 -0.2285
40315SOL    HW232925   8.948  13.971  13.623 -0.4280  0.6241 -0.5521
40316SOL     OW32926   9.244   6.011   3.823  1.0826 -0.3116  0.0015
40316SOL    HW132927   9.321   6.040   3.774  0.2624  1.9918 -0.0276
40316SOL    HW232928   9.188   5.970   3.758  1.1700  0.3282 -0.4918
40317SOL     OW32929   0.716   2.889  10.941 -0.7945 -0.2546  0.3506
40317SOL    HW132930   0.789   2.858  10.887  0.2322 -1.4232  2.2954
40317SOL    HW232931   0.663   2.941  10.882  0.4098 -1.2416 -1.6996
40318SOL     OW32932   1.142  10.205   1.396 -0.3180  0.2860 -0.2536
40318SOL    HW132933   1.202  10.165   1.459 -0.4302  1.0012  0.3192
40318SOL    HW232934   1.198  10.234   1.324 -0.4349 -2.7769 -1.7615
40319SOL     OW32935   5.231   8.624   6.127 -0.2191  0.5168 -0.6613
40319SOL    HW132936   5.262   8.600   6.040  0.6460  1.9556 -0.7673
40319SOL    HW232937   5.175   8.700   6.113 -0.4523  0.4730 -0.0006
40320SOL     OW32938   1.877   6.004   8.695 -0.6231  0.0926 -0.0912
40320SOL    HW132939   1.847   5.953   8.770 -2.7684 -1.0316 -1.5887
40320SOL    HW232940   1.826   6.085   8.699  1.1589  1.2187  1.0429
40321SOL     OW32941   5.747  12.979  11.194 -0.0034 -0.1434  0.3415
40321SOL    HW132942   5.771  12.969  11.102  0.1832 -1.1133  0.4871
40321SOL    HW232943   5.813  13.038  11.230  0.0663  0.0423 -0.0814
40322SOL     OW32944   4.513   7.359  13.498 -0.6103  0.0777 -0.0166
40322SOL    HW132945   4.529   7.431  13.437  0.1180  0.6711  0.8594
40322SOL    HW232946   4.598   7.342  13.539 -0.8982 -0.9045  0.2098
40323SOL     OW32947   0.300   5.776   5.790 -0.2944 -0.1021  0.9467
40323SOL    HW132948   0.306   5.707   5.724  0.3648  1.8675 -1.2161
40323SOL    HW232949   0.390   5.808   5.799 -0.5419  0.3077  2.0893
40324SOL     OW32950   0.015   3.219  13.943  0.1085 -0.0418  0.2237
40324SOL    HW132951  -0.046   3.146  13.955  0.3328 -0.1375  0.8472
40324SOL    HW232952  -0.026   3.292  13.990 -0.7368  0.6162 -1.4603
40325SOL     OW32953   3.621  11.231   2.418 -0.0235  0.0368 -0.0190
40325SOL    HW132954   3.540  11.263   2.379  0.8453  2.5413  0.0801
40325SOL    HW232955   3.592  11.172   2.488 -1.7936  1.3927  0.4455
40326SOL     OW32956   6.360   8.328   3.517 -0.9034 -0.7573  0.0741
40326SOL    HW132957   6.356   8.421   3.496 -0.1031 -0.8214 -0.3995
40326SOL    HW232958   6.326   8.284   3.440 -0.5714 -0.8868  0.0009
40327SOL     OW32959   5.032   2.400  13.122 -0.1873  0.9448 -0.3493
40327SOL    HW132960   4.984   2.362  13.196  1.7727  1.1263  1.1048
40327SOL    HW232961   4.976   2.472  13.092 -2.2066 -0.6973 -0.7377
40328SOL     OW32962   9.467  12.921   7.436 -0.4276 -0.0529 -0.1473
40328SOL    HW132963   9.459  12.828   7.458  0.2386 -0.1811 -0.4095
40328SOL    HW232964   9.434  12.928   7.347  0.4699 -0.2334 -0.5094
40329SOL     OW32965   0.186   3.926  12.698 -0.6309  0.0299  0.2068
40329SOL    HW132966   0.092   3.916  12.687 -0.5568  0.3504 -0.7805
40329SOL    HW232967   0.217   3.959  12.614  0.6114 -1.6935 -0.0582
40330SOL     OW32968   2.822  12.414   4.403 -0.2848 -0.3477 -0.1172
40330SOL    HW132969   2.837  12.333   4.452 -0.9344 -0.7253 -0.5240
40330SOL    HW232970   2.739  12.448   4.438  0.2003  0.3956  0.3657
40331SOL     OW32971   0.035   5.874  10.260 -0.7850  0.2701  0.6150
40331SOL    HW132972   0.104   5.811  10.239 -0.1809  0.8957  0.6948
40331SOL    HW232973   0.048   5.893  10.353 -0.3101  1.2885  0.3550
40332SOL     OW32974  13.157  11.783   7.065 -0.0237  0.5459  0.6923
40332SOL    HW132975  13.143  11.876   7.048  0.4483  0.5070  0.0783
40332SOL    HW232976  13.074  11.753   7.102 -1.1316  0.6015 -1.6339
40333SOL     OW32977   0.288   8.249   2.721 -0.1434  0.0467  0.5165
40333SOL    HW132978   0.232   8.324   2.696  1.5045  1.4915  0.9469
40333SOL    HW232979   0.318   8.270   2.809  1.9210 -0.1032 -0.0874
40334SOL     OW32980  13.070   7.057   6.854  0.2963  0.0009  0.1587
40334SOL    HW132981  12.990   7.005   6.857  0.2443  0.1198  2.6449
40334SOL    HW232982  13.046   7.135   6.804 -0.7893 -0.5044 -0.1300
40335SOL     OW32983   6.592   2.532   2.721 -0.1603 -0.7595  0.6530
40335SOL    HW132984   6.681   2.515   2.754  0.8606  1.7534 -0.5584
40335SOL    HW232985   6.598   2.515   2.627 -0.5473  0.8409  0.3242
40336SOL     OW32986   6.020   2.754  11.529  0.2757 -0.6630  0.1213
40336SOL    HW132987   5.978   2.783  11.610 -0.7771  0.2879 -0.7214
40336SOL    HW232988   5.960   2.689  11.493 -0.2528  0.2964 -0.8103
40337SOL     OW32989   4.063   0.186   2.958 -0.6162 -0.1089 -0.4721
40337SOL    HW132990   4.099   0.186   2.869  1.0031  0.5796  0.1423
40337SOL    HW232991   4.091   0.270   2.995 -1.4833 -0.2725  0.6165
40338SOL     OW32992  10.977   1.181  12.718  0.1633  0.2499 -0.2131
40338SOL    HW132993  10.943   1.264  12.685  1.2807  0.2154 -1.5893
40338SOL    HW232994  11.032   1.206  12.792 -0.8866  0.5366  0.4918
40339SOL     OW32995  11.736  11.064   6.568 -0.2024  0.0355 -0.6670
40339SOL    HW132996  11.647  11.074   6.602 -0.2827  0.1831 -0.9133
40339SOL    HW232997  11.742  11.130   6.498  0.4254  0.7107  0.0017
40340SOL     OW32998   3.347   6.151   6.997 -0.6071 -0.4703 -0.1960
40340SOL    HW132999   3.306   6.171   6.913  0.0433  0.9693 -0.2056
40340SOL    HW233000   3.319   6.223   7.055  0.3174 -0.5118  0.3267
40341SOL     OW33001  11.894   8.721   1.591  0.1828  0.3605 -0.0329
40341SOL    HW133002  11.839   8.743   1.515  1.2317 -0.0816 -0.9432
40341SOL    HW233003  11.903   8.804   1.638 -1.2648  0.4425  0.1580
40342SOL     OW33004   1.965  13.242   0.675 -0.1897  1.0052  0.4363
40342SOL    HW133005   1.921  13.241   0.759 -0.0725 -0.3778  0.4954
40342SOL    HW233006   1.898  13.272   0.613  0.0799  3.3582  1.1570
40343SOL     OW33007   4.265   8.466  11.255  0.0456 -0.4940  0.4033
40343SOL    HW133008   4.241   8.475  11.162 -0.3124  0.5343  0.5822
40343SOL    HW233009   4.181   8.467  11.301  0.3094  1.3174  0.9017
40344SOL     OW33010   6.814   6.828   4.195  0.1724  0.3038  0.0239
40344SOL    HW133011   6.749   6.845   4.262  0.1584  0.9287 -0.1495
40344SOL    HW233012   6.888   6.884   4.218  1.6356 -2.0597  1.5710
40345SOL     OW33013   9.346   5.541   8.851 -0.0228  0.0650 -0.1602
40345SOL    HW133014   9.394   5.471   8.895  0.5688  1.3224  1.3028
40345SOL    HW233015   9.403   5.617   8.857 -0.6421  0.7038 -1.7239
40346SOL     OW33016   1.168   6.439   3.456  0.0314 -0.3402  0.1441
40346SOL    HW133017   1.146   6.347   3.471  0.2568 -0.4260 -0.0532
40346SOL    HW233018   1.121   6.462   3.376 -0.2718 -0.1961  0.3610
40347SOL     OW33019   5.652  12.319   1.964  0.4241  0.3365  0.0728
40347SOL    HW133020   5.701  12.242   1.994 -0.8948 -0.6445 -0.2002
40347SOL    HW233021   5.623  12.296   1.876  0.2424  1.2753 -0.1216
40348SOL     OW33022   6.814   7.306   9.579 -0.4204 -0.3117  0.0824
40348SOL    HW133023   6.868   7.366   9.528  1.1529 -1.6048  0.1336
40348SOL    HW233024   6.819   7.341   9.668  2.9249 -1.9504  0.7184
40349SOL     OW33025   1.339  11.976   3.146 -0.1703  0.2581 -0.2814
40349SOL    HW133026   1.345  11.883   3.123 -0.8880  0.2104 -0.2899
40349SOL    HW233027   1.334  11.977   3.241  0.5979  0.3341 -0.2373
40350SOL     OW33028   4.660  12.721  12.250 -0.1996  0.0321 -0.0948
40350SOL    HW133029   4.621  12.762  12.327 -0.2389  0.8457 -0.5359
40350SOL    HW233030   4.588  12.716  12.187 -0.0163 -0.0790 -0.2943
40351SOL     OW33031   2.571   0.210  13.475 -0.2412 -0.6726 -0.2347
40351SOL    HW133032   2.612   0.297  13.481 -0.3056 -0.5085 -1.8346
40351SOL    HW233033   2.597   0.178  13.389 -0.7565 -1.9822  0.0881
40352SOL     OW33034   2.799   2.821  12.205 -0.9189 -0.5040 -0.6707
40352SOL    HW133035   2.706   2.816  12.185 -0.9136 -1.7561 -0.4983
40352SOL    HW233036   2.804   2.806  12.299 -0.4075 -3.6320 -1.0530
40353SOL     OW33037   4.131   8.960  10.269 -0.8245  0.8606  0.3238
40353SOL    HW133038   4.126   8.959  10.364  0.4784  0.0110  0.4127
40353SOL    HW233039   4.120   8.868  10.243 -0.1104  0.9316 -0.2649
40354SOL     OW33040   1.411   9.586   6.209  0.5801  0.4341 -0.4693
40354SOL    HW133041   1.446   9.643   6.277 -1.2309 -0.1713  1.0469
40354SOL    HW233042   1.391   9.645   6.136  2.6811  1.0719 -0.5816
40355SOL     OW33043   7.373  12.948   4.613 -0.3901  0.6508  0.5167
40355SOL    HW133044   7.468  12.958   4.605 -0.6444  2.3293 -1.1701
40355SOL    HW233045   7.360  12.859   4.646  1.7100 -0.2759 -0.9726
40356SOL     OW33046   0.063   5.381   6.356  0.2886 -0.4054 -0.1490
40356SOL    HW133047  -0.014   5.326   6.369 -0.3636  0.8557  1.8274
40356SOL    HW233048   0.136   5.320   6.351 -0.1882 -1.5566  3.6099
40357SOL     OW33049   6.945   2.058   5.237 -0.3250 -0.0769  0.1724
40357SOL    HW133050   6.942   2.076   5.143 -0.8114 -0.0924  0.1847
40357SOL    HW233051   6.893   1.979   5.249  0.8083 -0.8284  0.2895
40358SOL     OW33052   3.137  10.498   5.974  0.0471  0.0708  0.3823
40358SOL    HW133053   3.093  10.580   5.955  0.1110 -0.0587 -0.3569
40358SOL    HW233054   3.190  10.480   5.896 -0.6191 -1.1033  0.1695
40359SOL     OW33055  13.311  12.815  13.881 -0.2251  0.2494  0.0605
40359SOL    HW133056  13.360  12.792  13.960  0.8135  0.8616 -0.3953
40359SOL    HW233057  13.330  12.907  13.865 -4.1038  1.5602  1.6886
40360SOL     OW33058   7.650   8.555   4.679 -0.1285  0.4671 -0.0957
40360SOL    HW133059   7.704   8.582   4.753  0.0299 -0.5350  0.1642
40360SOL    HW233060   7.712   8.536   4.609 -0.1793  0.0264 -0.0267
40361SOL     OW33061  12.234  12.422   5.045 -0.2969  0.1921 -0.2582
40361SOL    HW133062  12.318  12.415   5.091 -0.7077  0.3943  0.5561
40361SOL    HW233063  12.256  12.455   4.958  0.5046 -0.1674 -0.1982
40362SOL     OW33064   6.997   8.612   1.031 -0.0668 -0.0078  0.5001
40362SOL    HW133065   7.023   8.539   0.974 -0.6205  0.0787  0.1283
40362SOL    HW233066   7.070   8.622   1.092  0.0799 -0.7793  0.4614
40363SOL     OW33067   7.401  13.869   0.000  0.1095 -0.0790  0.0490
40363SOL    HW133068   7.312  13.870  -0.033  0.0589  0.4289  0.1977
40363SOL    HW233069   7.424  13.961   0.011  0.7634 -0.1962 -0.2891
40364SOL     OW33070   5.442   2.759   9.497  0.0870  0.5559  0.1784
40364SOL    HW133071   5.490   2.716   9.426 -2.4807 -0.7404 -0.8760
40364SOL    HW233072   5.412   2.841   9.458 -0.8908  0.0787 -0.0870
40365SOL     OW33073   7.767   3.493  11.722 -0.3538  0.3854  0.2564
40365SOL    HW133074   7.791   3.581  11.753  0.6390  0.1234  0.2504
40365SOL    HW233075   7.767   3.439  11.801 -0.1171  0.2043  0.1319
40366SOL     OW33076   1.422   1.320   3.469  0.0896  0.1803  0.3119
40366SOL    HW133077   1.476   1.266   3.527 -0.6496 -0.1767  0.6667
40366SOL    HW233078   1.341   1.272   3.458 -0.4128  1.0112  0.2843
40367SOL     OW33079   1.199   0.459   8.931 -0.2670  0.3284  0.0540
40367SOL    HW133080   1.213   0.372   8.968  0.2356  0.1354 -0.5716
40367SOL    HW233081   1.130   0.497   8.985 -0.7888 -0.6130  0.0619
40368SOL     OW33082   8.656  11.582   9.231 -0.3655  0.7196 -0.2551
40368SOL    HW133083   8.726  11.602   9.293 -0.1274  1.5818 -0.7734
40368SOL    HW233084   8.681  11.629   9.151 -0.0379 -1.3062 -1.4223
40369SOL     OW33085  10.181   7.677   9.647 -0.0126  0.0692 -0.2198
40369SOL    HW133086  10.154   7.595   9.605  0.1858  0.8110 -1.8486
40369SOL    HW233087  10.134   7.745   9.600  1.0250  1.0192  0.0776
40370SOL     OW33088   0.411   3.691   6.435 -0.0576 -0.0012 -0.1677
40370SOL    HW133089   0.481   3.729   6.382 -2.0949  1.6589 -1.8656
40370SOL    HW233090   0.403   3.601   6.402 -0.5787  0.6772 -2.0592
40371SOL     OW33091   0.842   3.607  13.064 -0.3527 -0.2979 -0.0542
40371SOL    HW133092   0.829   3.628  13.156  0.4447  0.0878 -0.0246
40371SOL    HW233093   0.844   3.693  13.021 -3.1045 -0.4884 -0.7914
40372SOL     OW33094  12.381   0.004   6.546  0.5789  0.4394  0.2010
40372SOL    HW133095  12.335   0.015   6.629 -0.8153 -1.5283 -0.2388
40372SOL    HW233096  12.458  -0.048   6.568  0.3569  0.1542  0.3093
40373SOL     OW33097   4.458   2.920   8.461  0.0850  0.1195 -0.0271
40373SOL    HW133098   4.407   2.939   8.382  1.5097  1.7531 -0.6512
40373SOL    HW233099   4.399   2.938   8.533 -0.1823  2.3301 -0.7185
40374SOL     OW33100   3.810   2.243   3.901  0.7260  0.1926 -0.2509
40374SOL    HW133101   3.857   2.325   3.885  1.2936 -0.3004 -1.2507
40374SOL    HW233102   3.778   2.217   3.814  0.5552 -0.6386  0.0538
40375SOL     OW33103   5.837  13.432  12.142 -0.4612 -0.1651  0.1874
40375SOL    HW133104   5.863  13.466  12.056 -0.4764 -1.1495 -0.2235
40375SOL    HW233105   5.757  13.479  12.164  0.1469  0.9008  0.1824
40376SOL     OW33106   7.368  12.179   1.257 -0.5386 -0.7917  0.0874
40376SOL    HW133107   7.422  12.236   1.202 -3.0800  0.6381 -1.0802
40376SOL    HW233108   7.285  12.170   1.210 -1.2616 -3.1985  1.6077
40377SOL     OW33109   3.257  10.935  10.128 -0.0694 -0.3037  0.4260
40377SOL    HW133110   3.219  10.925  10.041  0.8147 -0.5644  0.0576
40377SOL    HW233111   3.182  10.941  10.187 -0.6761 -0.0276 -0.3642
40378SOL     OW33112  11.130   7.352  12.662  0.2860  0.1085 -0.4231
40378SOL    HW133113  11.119   7.415  12.733  0.5835  0.5231 -0.7322
40378SOL    HW233114  11.090   7.395  12.586 -1.9402 -1.2015 -0.0789
40379SOL     OW33115   8.198   2.029   4.453 -0.2704  0.2795 -0.5547
40379SOL    HW133116   8.146   2.096   4.410  0.9974  1.0634 -0.9008
40379SOL    HW233117   8.252   2.077   4.516 -1.6886 -0.7643  1.6038
40380SOL     OW33118  10.869   0.855   7.409 -0.2520 -0.2839 -0.4298
40380SOL    HW133119  10.835   0.848   7.497  0.2588 -1.7074 -0.3264
40380SOL    HW233120  10.884   0.765   7.381  0.9409  0.1863 -1.4277
40381SOL     OW33121  10.690   1.649   6.525  0.2540  0.0235  0.1918
40381SOL    HW133122  10.769   1.644   6.472 -0.0862  2.6003 -0.7151
40381SOL    HW233123  10.624   1.689   6.467 -0.2905  2.4269  2.2708
40382SOL     OW33124   1.071   7.536   7.299  0.0574  0.0839 -0.2862
40382SOL    HW133125   1.076   7.626   7.268 -2.1587 -0.0492 -1.2251
40382SOL    HW233126   1.072   7.542   7.394  0.5792  1.0217 -0.3407
40383SOL     OW33127   9.991   5.298   9.488  0.0698  0.2492  0.2157
40383SOL    HW133128  10.081   5.266   9.492 -0.7661 -2.3682  0.3306
40383SOL    HW233129   9.952   5.270   9.571 -1.1996  0.0575 -0.4127
40384SOL     OW33130   3.399  12.388   8.415  0.2576  0.3803 -0.7576
40384SOL    HW133131   3.466  12.364   8.479 -0.3909  1.0523  0.2020
40384SOL    HW233132   3.335  12.438   8.465  1.1003  3.4017 -2.4179
40385SOL     OW33133  10.765   5.061   2.866  0.4585 -0.3697  0.0685
40385SOL    HW133134  10.815   4.995   2.914  0.9164  0.6109  0.9633
40385SOL    HW233135  10.823   5.137   2.861 -1.1455  1.0755  1.7830
40386SOL     OW33136  12.798   5.156   1.012  0.8882 -0.1247 -0.2071
40386SOL    HW133137  12.813   5.229   1.071 -1.6203 -0.4109  0.9218
40386SOL    HW233138  12.711   5.123   1.036  0.7052 -1.6554 -2.6048
40387SOL     OW33139  11.971   8.249   0.358 -0.3040  0.0489 -0.6151
40387SOL    HW133140  11.890   8.203   0.382 -1.0126  1.1130 -0.9075
40387SOL    HW233141  12.033   8.225   0.426 -0.9746 -0.4812 -0.1738
40388SOL     OW33142   1.550   0.315   3.280 -0.2091  0.5263  0.1589
40388SOL    HW133143   1.634   0.290   3.242 -1.4764 -2.4648 -1.0006
40388SOL    HW233144   1.495   0.339   3.205 -0.9079  0.7849  0.7365
40389SOL     OW33145   7.250   7.557   6.585  0.0554  0.3791  0.0788
40389SOL    HW133146   7.320   7.508   6.628  0.6916  0.5748 -0.7050
40389SOL    HW233147   7.194   7.490   6.545  1.6182  0.2299 -2.0829
40390SOL     OW33148   6.518   1.319  10.858  0.4566  0.0146  0.1501
40390SOL    HW133149   6.497   1.369  10.937 -0.6992 -0.0232 -0.1085
40390SOL    HW233150   6.442   1.261  10.846  0.9858 -0.5494 -0.5405
40391SOL     OW33151   0.337   8.238  13.082 -0.6580  0.6060 -0.2199
40391SOL    HW133152   0.346   8.192  12.998 -0.2423  2.1121 -1.0352
40391SOL    HW233153   0.384   8.183  13.144 -0.8039 -0.4434 -1.0012
40392SOL     OW33154   0.254   4.371   0.941  0.3757 -0.4013 -0.5111
40392SOL    HW133155   0.231   4.436   0.875  0.4480  0.6986  0.5006
40392SOL    HW233156   0.322   4.318   0.899  0.4614  0.3045 -1.3098
40393SOL     OW33157   6.818  13.383  13.279 -0.2939  0.2003  0.1673
40393SOL    HW133158   6.743  13.358  13.225  0.1436  0.1756 -0.4394
40393SOL    HW233159   6.875  13.306  13.280 -0.3702  0.1447  0.8001
40394SOL     OW33160   1.408   5.822   3.575 -0.1365  0.2210  0.5313
40394SOL    HW133161   1.374   5.803   3.488 -0.9024  1.5209  0.5161
40394SOL    HW233162   1.360   5.900   3.603  2.0344  1.4651  0.9817
40395SOL     OW33163   6.907   9.690  13.990 -0.2667  0.0491 -0.5415
40395SOL    HW133164   6.812   9.682  14.002 -0.1874 -0.0125  0.0514
40395SOL    HW233165   6.935   9.603  13.962 -0.5029  0.2898 -1.5760
40396SOL     OW33166  13.551  12.966   8.541 -0.6875 -0.6382 -0.2830
40396SOL    HW133167  13.626  12.954   8.599 -0.5060 -1.0614 -0.5999
40396SOL    HW233168  13.589  12.980   8.455 -0.9735 -2.1137 -0.6803
40397SOL     OW33169   8.180  11.502  11.642  0.2886 -0.6932  0.1186
40397SOL    HW133170   8.196  11.573  11.704 -1.5190  0.1417 -0.2904
40397SOL    HW233171   8.146  11.546  11.564  0.0978 -1.9215 -0.5032
40398SOL     OW33172   1.214   9.802  11.710  0.2667 -0.2970 -0.5637
40398SOL    HW133173   1.290   9.754  11.677  1.5593  0.2202  1.4710
40398SOL    HW233174   1.146   9.789  11.643  1.3222 -2.8808 -1.2586
40399SOL     OW33175   8.057   2.841   8.115  0.6195  0.1573  0.5692
40399SOL    HW133176   7.978   2.793   8.089  1.7061 -0.9555 -0.8127
40399SOL    HW233177   8.023   2.922   8.153 -1.2336 -1.0618  1.7067
40400SOL     OW33178   3.314   1.974   1.638 -0.2795  0.1592  0.3360
40400SOL    HW133179   3.360   1.931   1.711 -0.3551  2.2661  1.6990
40400SOL    HW233180   3.221   1.969   1.662 -0.3372  0.5321  0.1995
40401SOL     OW33181   0.749   9.929  10.373 -0.8472 -0.0450 -0.3213
40401SOL    HW133182   0.699   9.995  10.420  1.2977  1.1051  0.4859
40401SOL    HW233183   0.798   9.978  10.308  0.4572 -0.8612  0.0042
40402SOL     OW33184  13.635   7.365  12.956  0.6208  0.0184  0.0025
40402SOL    HW133185  13.720   7.353  12.999  1.2269  1.0924 -0.8443
40402SOL    HW233186  13.617   7.459  12.963  0.1638  0.0231 -1.0229
40403SOL     OW33187   8.276   2.442   6.024  0.3174 -0.2334 -0.3550
40403SOL    HW133188   8.224   2.482   5.954  0.1265 -0.1040 -0.1389
40403SOL    HW233189   8.344   2.392   5.978 -0.6415 -1.2909 -0.6718
40404SOL     OW33190   1.143   1.986  12.918 -0.0341  0.0691 -0.2434
40404SOL    HW133191   1.199   2.064  12.925 -1.9757  1.4814  0.2430
40404SOL    HW233192   1.109   1.973  13.006 -2.0500  0.4740 -0.9258
40405SOL     OW33193   5.225  13.701  13.655  0.1781  0.1835  0.3607
40405SOL    HW133194   5.132  13.679  13.644  0.0155 -0.3816  2.3448
40405SOL    HW233195   5.234  13.714  13.750  2.6290 -2.3175  0.5805
40406SOL     OW33196  11.746   6.568  11.158  0.0288 -0.4142  0.0606
40406SOL    HW133197  11.696   6.495  11.195 -1.3949  0.6235  0.2739
40406SOL    HW233198  11.785   6.612  11.234  1.3003 -1.2253 -0.1069
40407SOL     OW33199   3.900   8.523   0.538 -0.1132 -0.4337 -0.1513
40407SOL    HW133200   3.963   8.595   0.547  0.5219 -0.8570 -1.0802
40407SOL    HW233201   3.824   8.551   0.590  0.2479  0.7657 -0.2429
40408SOL     OW33202   7.951   4.877   5.941 -0.1412 -0.1488 -0.1652
40408SOL    HW133203   7.960   4.902   6.033 -0.6469 -2.1449  0.4743
40408SOL    HW233204   8.032   4.907   5.900  0.6328 -0.2912  1.1988
40409SOL     OW33205   9.694   6.776   1.204  0.2439 -0.3244  0.1190
40409SOL    HW133206   9.631   6.713   1.170  1.7200  0.1350 -3.9561
40409SOL    HW233207   9.659   6.861   1.178  1.5923  0.0370 -0.6040
40410SOL     OW33208  11.409   1.146   9.913  0.0584 -0.3150  0.5521
40410SOL    HW133209  11.484   1.114   9.864  1.1929 -1.0503  2.6292
40410SOL    HW233210  11.441   1.224   9.959 -1.4271  1.3202 -1.0336
40411SOL     OW33211  12.992   5.250  12.975  0.1366  0.0613 -0.1238
40411SOL    HW133212  12.919   5.201  13.012  0.5428 -1.2705 -1.0224
40411SOL    HW233213  13.034   5.292  13.050 -0.2120 -0.9942  0.6795
40412SOL     OW33214  12.406   0.952   6.249  0.1786  0.5440 -0.3335
40412SOL    HW133215  12.500   0.957   6.264  0.2991  1.0855 -1.2102
40412SOL    HW233216  12.397   0.896   6.172 -0.1263  1.4034 -0.9472
40413SOL     OW33217   5.507   9.660   2.932  0.5621 -0.7529 -0.1278
40413SOL    HW133218   5.512   9.736   2.874 -1.6354 -1.0270 -0.7649
40413SOL    HW233219   5.453   9.690   3.006 -1.0249 -1.8582 -0.7787
40414SOL     OW33220  11.423   4.762   8.025  0.0961 -0.3126 -0.2773
40414SOL    HW133221  11.472   4.691   7.984  2.0652 -0.5512  2.2672
40414SOL    HW233222  11.480   4.838   8.018 -1.3882  0.7346 -1.7025
40415SOL     OW33223   5.373   2.251  12.951  0.0190  0.1594  0.5394
40415SOL    HW133224   5.311   2.180  12.934  0.3354  0.2915 -1.3436
40415SOL    HW233225   5.340   2.292  13.031 -2.8974  0.8230 -0.8816
40416SOL     OW33226   3.938  10.955  12.261 -0.3167 -0.2436 -0.2051
40416SOL    HW133227   3.844  10.956  12.278 -0.0468 -0.2225  1.4486
40416SOL    HW233228   3.972  10.886  12.318  0.5261 -1.1571 -1.7323
40417SOL     OW33229   4.224   5.625  12.314  0.3609 -0.1883 -0.0678
40417SOL    HW133230   4.207   5.683  12.388 -0.9772  0.1320 -0.5908
40417SOL    HW233231   4.283   5.674  12.257 -0.7167  0.6593 -0.4820
40418SOL     OW33232   1.581  13.110   2.846  0.2949  0.2572  0.4424
40418SOL    HW133233   1.636  13.088   2.921  1.5133  0.2608 -0.4133
40418SOL    HW233234   1.572  13.027   2.798  0.2511  0.4338  0.1432
40419SOL     OW33235  10.955   5.469   1.838 -0.2872 -0.1569  0.0174
40419SOL    HW133236  10.956   5.460   1.743 -1.7497  2.8033 -0.3974
40419SOL    HW233237  11.045   5.451   1.865  0.9455  1.9565 -2.3237
40420SOL     OW33238   9.188   8.185   4.371  0.1536  0.2592  0.7885
40420SOL    HW133239   9.128   8.126   4.417  0.6040 -0.9634 -0.1316
40420SOL    HW233240   9.171   8.169   4.278  0.9008  0.9544  0.5200
40421SOL     OW33241  11.324  13.572   3.386 -0.2754 -0.1305 -0.5444
40421SOL    HW133242  11.301  13.573   3.293 -0.9986 -0.6842 -0.3834
40421SOL    HW233243  11.251  13.616   3.429 -0.7718 -1.3434 -0.0886
40422SOL     OW33244   0.507   9.089   6.480  0.2299 -0.4143 -0.2868
40422SOL    HW133245   0.596   9.053   6.482  0.2134 -0.4473 -0.0470
40422SOL    HW233246   0.514   9.168   6.427  0.8392  0.6860  1.3354
40423SOL     OW33247  13.029   9.732   2.475 -0.2116  0.1737 -0.1946
40423SOL    HW133248  12.965   9.801   2.457  0.3728  1.3103  1.7582
40423SOL    HW233249  13.009   9.704   2.564  0.3970 -1.2668 -0.4956
40424SOL     OW33250   8.893   0.662   6.268  0.1082  0.3253 -0.3259
40424SOL    HW133251   8.851   0.698   6.347  0.9573 -0.3754  0.4689
40424SOL    HW233252   8.980   0.703   6.267 -0.4778  1.6397 -1.8664
40425SOL     OW33253   5.197   0.592   2.666 -0.4923  0.3660  0.2574
40425SOL    HW133254   5.172   0.530   2.735 -2.5789 -0.6937 -1.3338
40425SOL    HW233255   5.136   0.665   2.677 -1.6905 -0.3647 -1.1302
40426SOL     OW33256  11.936   4.882  12.977 -0.3922  0.2202 -0.6497
40426SOL    HW133257  11.960   4.790  12.988  0.6351  0.3329 -1.6057
40426SOL    HW233258  11.842   4.885  12.990 -0.2957 -0.7940  0.3914
40427SOL     OW33259   8.019  13.743  12.776 -0.0754  0.4417 -0.2234
40427SOL    HW133260   7.952  13.789  12.826  1.4545  1.4233  1.0084
40427SOL    HW233261   8.003  13.650  12.794 -1.1381  0.6499 -0.0383
40428SOL     OW33262   4.192  10.679  11.966  0.4768 -0.3899 -0.1555
40428SOL    HW133263   4.134  10.614  11.926 -0.6130  0.8017 -0.6213
40428SOL    HW233264   4.277  10.636  11.973 -0.1126 -1.7099 -0.8093
40429SOL     OW33265   4.827   4.631  13.075  0.0299 -0.4620 -0.5067
40429SOL    HW133266   4.735   4.637  13.099  0.5760  1.4373  1.4640
40429SOL    HW233267   4.873   4.615  13.158  1.6927  2.2595 -0.7497
40430SOL     OW33268   5.642   0.823   6.472 -0.4161  0.1799  0.0562
40430SOL    HW133269   5.653   0.873   6.552 -0.0940 -0.0094  0.1342
40430SOL    HW233270   5.731   0.798   6.447 -0.6253 -1.0523  0.4733
40431SOL     OW33271   2.141   0.073   3.092 -0.4136  0.5361 -1.1726
40431SOL    HW133272   2.166   0.046   3.004 -1.7714  0.4328 -1.5539
40431SOL    HW233273   2.048   0.051   3.098 -0.1055 -0.4401  0.6725
40432SOL     OW33274   1.680   9.758   3.207 -0.3193  0.0489 -0.1592
40432SOL    HW133275   1.757   9.713   3.241  0.7459  2.5135  0.9211
40432SOL    HW233276   1.667   9.721   3.119  1.1442 -1.4786  0.2200
40433SOL     OW33277  11.303  12.038   9.608 -0.1789  0.0215  0.0913
40433SOL    HW133278  11.396  12.061   9.605 -0.3962  0.8256 -1.3489
40433SOL    HW233279  11.258  12.122   9.598 -1.0472 -0.5180 -0.5269
40434SOL     OW33280  13.867   7.689   4.949  0.1060 -0.2152 -0.5545
40434SOL    HW133281  13.797   7.695   4.884  0.6180  0.6167 -1.0528
40434SOL    HW233282  13.908   7.775   4.948  1.1344 -0.6849 -0.2709
40435SOL     OW33283  13.240   2.155   3.303  0.4208  0.0841 -0.2909
40435SOL    HW133284  13.178   2.185   3.237  1.7980 -1.8755 -2.6156
40435SOL    HW233285  13.296   2.231   3.320 -0.8110  1.0243 -0.2624
40436SOL     OW33286   9.132   1.636  12.256 -0.6257 -0.7569 -0.5102
40436SOL    HW133287   9.125   1.591  12.172 -0.4101  0.3648 -1.1460
40436SOL    HW233288   9.042   1.638  12.290 -0.6697 -1.4572 -0.5676
40437SOL     OW33289   5.704  11.776   6.973 -0.5611 -0.1865  0.3091
40437SOL    HW133290   5.620  11.746   7.009 -0.2045  0.9774  2.2192
40437SOL    HW233291   5.762  11.701   6.981 -1.6439 -1.4454 -2.1949
40438SOL     OW33292   0.740   7.374  13.606  0.2016  0.2105  0.1140
40438SOL    HW133293   0.761   7.330  13.689 -0.6546  0.8776  0.7123
40438SOL    HW233294   0.767   7.465  13.620  1.2663  0.0521 -0.8331
40439SOL     OW33295  13.315   7.276   5.977  0.4628 -0.5996 -0.2586
40439SOL    HW133296  13.220   7.284   5.979  0.1589 -2.9969 -1.2258
40439SOL    HW233297  13.341   7.310   5.891  0.3500 -0.9653 -0.4367
40440SOL     OW33298   8.067   9.611   5.765  0.2143 -0.0457  0.2955
40440SOL    HW133299   8.021   9.663   5.700  0.8647  0.7481  0.4451
40440SOL    HW233300   8.160   9.625   5.746  0.4163 -1.3655  0.1842
40441SOL     OW33301   0.641   2.182  13.843  0.1026 -0.2716  0.3736
40441SOL    HW133302   0.574   2.239  13.805 -0.3639 -0.1385  1.3706
40441SOL    HW233303   0.715   2.190  13.783  0.1439  1.5793  0.6160
40442SOL     OW33304   9.910   8.700  13.882  0.2179 -0.1653  0.3968
40442SOL    HW133305   9.951   8.675  13.965  0.5708  1.8450  0.8757
40442SOL    HW233306   9.916   8.795  13.880  0.3765 -0.1723 -2.0426
40443SOL     OW33307  12.785   4.862   4.666 -0.4860 -0.2219  0.4764
40443SOL    HW133308  12.833   4.855   4.583 -0.0725 -0.8353  0.7608
40443SOL    HW233309  12.827   4.798   4.723  0.3793  1.3992  1.7335
40444SOL     OW33310  11.861  10.854  12.189 -0.0469  0.6588  0.0642
40444SOL    HW133311  11.783  10.890  12.147  0.8185  0.8014 -1.4953
40444SOL    HW233312  11.827  10.806  12.265 -1.8697 -0.8547 -1.5965
40445SOL     OW33313   5.518   7.359   8.475  0.2494  0.1496  0.3556
40445SOL    HW133314   5.582   7.362   8.405 -0.7358 -1.0667 -0.6600
40445SOL    HW233315   5.446   7.414   8.445 -0.4368 -0.8517  0.0896
40446SOL     OW33316   4.768  10.880   7.327 -0.2091  0.1694  0.3652
40446SOL    HW133317   4.797  10.842   7.410  1.1946 -1.5861 -0.8561
40446SOL    HW233318   4.778  10.809   7.264 -1.0617  1.5192 -1.3563
40447SOL     OW33319  11.240   9.620   5.743  0.0096 -0.1176 -0.4834
40447SOL    HW133320  11.299   9.694   5.754  0.6124 -0.6238 -0.2585
40447SOL    HW233321  11.289   9.557   5.691  0.4496 -1.3537  1.3024
40448SOL     OW33322  13.789  11.293   6.167 -0.4145 -0.0950  0.6487
40448SOL    HW133323  13.844  11.220   6.137 -0.0014 -0.2450  1.7108
40448SOL    HW233324  13.704  11.277   6.127 -0.6861 -1.8701  1.7937
40449SOL     OW33325  12.746   7.581  10.839  0.0294  0.1688  0.0587
40449SOL    HW133326  12.776   7.520  10.772 -0.8631 -0.4459  0.2044
40449SOL    HW233327  12.775   7.542  10.922 -0.9038 -0.2992  0.1826
40450SOL     OW33328   6.041  10.480   8.759 -0.0593 -0.2921  0.0818
40450SOL    HW133329   6.040  10.572   8.732 -2.0093 -0.2346  0.1491
40450SOL    HW233330   6.019  10.431   8.679  1.9568 -0.8248 -0.1945
40451SOL     OW33331   5.698   3.432   9.567 -0.4014 -0.5345  0.2629
40451SOL    HW133332   5.672   3.521   9.592 -3.7853 -0.1519 -3.5010
40451SOL    HW233333   5.764   3.445   9.499  1.3275 -1.1517  1.7403
40452SOL     OW33334  13.928  12.289   9.034  0.2978  0.2338 -0.0536
40452SOL    HW133335  13.941  12.210   8.981  1.7251  0.9939 -0.8705
40452SOL    HW233336  14.015  12.310   9.067 -0.1410  1.2526  0.4880
40453SOL     OW33337   0.997   9.579   6.500  0.2024  0.4915 -0.0472
40453SOL    HW133338   0.943   9.559   6.576 -0.5015  1.1296 -0.3666
40453SOL    HW233339   1.030   9.494   6.471 -1.8500 -0.1274 -0.7355
40454SOL     OW33340   6.742   1.397   3.199  0.0414 -0.1367 -0.2632
40454SOL    HW133341   6.776   1.381   3.111 -0.8848 -1.5711 -0.3880
40454SOL    HW233342   6.790   1.336   3.255 -0.4895 -0.3446 -0.0287
40455SOL     OW33343   2.589   4.070   1.013 -0.8058  0.4903 -0.4727
40455SOL    HW133344   2.519   4.074   0.948 -2.5510 -2.0390  1.0602
40455SOL    HW233345   2.543   4.066   1.097  1.2765  0.8978  0.7502
40456SOL     OW33346   7.753   3.394  11.454  0.2355 -0.4286  0.0527
40456SOL    HW133347   7.677   3.336  11.460 -0.9282  0.9239 -0.8621
40456SOL    HW233348   7.755   3.439  11.538  0.1859 -0.6440  0.1720
40457SOL     OW33349   9.676   3.271   0.262  0.9118  0.5669  0.2228
40457SOL    HW133350   9.690   3.345   0.321 -1.2565  0.7964  0.5338
40457SOL    HW233351   9.618   3.212   0.312 -1.0178  0.7796 -1.6261
40458SOL     OW33352   0.051   3.122   8.651 -0.1856 -0.0331 -0.1348
40458SOL    HW133353   0.035   3.061   8.579  3.1791 -0.7936 -0.3887
40458SOL    HW233354   0.100   3.194   8.612  3.5406 -1.4183  1.5524
40459SOL     OW33355   0.711  13.533  10.093 -0.0053  0.3054 -0.1059
40459SOL    HW133356   0.784  13.495  10.141  1.0003  0.0061 -1.8092
40459SOL    HW233357   0.746  13.613  10.054 -1.5688  2.0524  1.8521
40460SOL     OW33358   8.373   1.009   2.236  0.4480  0.6294 -0.5426
40460SOL    HW133359   8.468   1.014   2.246  0.4196 -0.8488  0.8367
40460SOL    HW233360   8.360   0.943   2.168  0.4047 -0.5892  0.6183
40461SOL     OW33361   6.681   2.797  11.895  0.0583  0.1981 -0.6879
40461SOL    HW133362   6.754   2.757  11.943 -0.3411 -1.1505 -1.1689
40461SOL    HW233363   6.610   2.734  11.902 -0.4141  0.5478 -1.9821
40462SOL     OW33364   1.486   2.355   5.773 -0.5018 -0.0282  0.0428
40462SOL    HW133365   1.430   2.307   5.834 -2.1514  1.8255  0.0696
40462SOL    HW233366   1.573   2.351   5.813 -1.2312 -0.2353  1.6918
40463SOL     OW33367  12.657   2.917   6.992 -0.2024  0.0667  0.4943
40463SOL    HW133368  12.598   2.991   7.002  0.6517  0.9634 -0.7978
40463SOL    HW233369  12.729   2.934   7.052  0.1203  0.4334  0.0116
40464SOL     OW33370  11.511   7.155   9.826 -0.2112  0.1923  0.2022
40464SOL    HW133371  11.423   7.168   9.863  0.0815  1.8798  0.3766
40464SOL    HW233372  11.569   7.200   9.887  0.6591 -0.0177 -0.4648
40465SOL     OW33373   0.393   8.607   5.919  0.0551 -0.4715 -0.1787
40465SOL    HW133374   0.424   8.559   5.996 -0.7061 -2.0597 -0.8068
40465SOL    HW233375   0.407   8.547   5.846 -0.5440  0.4484 -1.0818
40466SOL     OW33376   7.252   6.742   2.669 -0.4448  0.2181  0.4302
40466SOL    HW133377   7.317   6.781   2.727 -0.7927  1.0539  0.2742
40466SOL    HW233378   7.188   6.812   2.654 -0.8902 -0.3015 -0.1540
40467SOL     OW33379   1.580   6.874   5.217 -0.2500 -0.6802 -0.2653
40467SOL    HW133380   1.663   6.853   5.174 -0.7910 -0.0944 -1.6608
40467SOL    HW233381   1.573   6.969   5.211 -0.7413 -0.6631  0.3962
40468SOL     OW33382   0.559   2.452   6.293 -0.4926 -0.6293 -0.4223
40468SOL    HW133383   0.617   2.503   6.350 -2.3352  1.9416 -0.6530
40468SOL    HW233384   0.493   2.416   6.353  0.7648 -2.8053 -0.2705
40469SOL     OW33385   0.600   7.630   8.597 -0.3833  0.3184  0.0928
40469SOL    HW133386   0.648   7.710   8.619  1.3619 -0.3884 -0.9316
40469SOL    HW233387   0.629   7.608   8.509 -0.8944 -1.3979  0.3157
40470SOL     OW33388   4.356   0.480   3.834  0.0138 -0.4492 -0.4252
40470SOL    HW133389   4.375   0.387   3.839  0.0731 -0.4649 -0.8949
40470SOL    HW233390   4.262   0.486   3.820 -0.2530 -0.3892  1.1709
40471SOL     OW33391   2.606   4.591   1.964  0.2864 -0.2069 -0.3285
40471SOL    HW133392   2.643   4.650   2.030  0.3590 -0.3478 -0.2412
40471SOL    HW233393   2.512   4.600   1.973  0.2983 -0.0804 -0.3368
40472SOL     OW33394   6.391   0.377   0.605 -0.2920  0.3277 -0.2847
40472SOL    HW133395   6.475   0.385   0.559 -0.4229  1.1861 -0.3939
40472SOL    HW233396   6.334   0.439   0.560 -1.5605 -1.6006 -1.4690
40473SOL     OW33397   8.327   0.203   9.628 -0.3657  0.4864 -0.3229
40473SOL    HW133398   8.381   0.146   9.573  1.3760  1.7159  0.0324
40473SOL    HW233399   8.364   0.193   9.716 -2.3481 -0.5251  0.4684
40474SOL     OW33400  13.987   8.499   8.757  0.3008  0.0106  0.4695
40474SOL    HW133401  13.958   8.556   8.686 -0.1800 -0.7535  0.0325
40474SOL    HW233402  13.911   8.491   8.814 -0.3175 -1.7872 -0.5397
40475SOL     OW33403   0.759  10.743  11.771  0.8043  0.3275 -0.3772
40475SOL    HW133404   0.838  10.790  11.746  1.9183 -0.5647  1.2837
40475SOL    HW233405   0.761  10.662  11.719  1.9182 -0.4664  0.8167
40476SOL     OW33406   2.253  12.134  13.650  0.0345  0.4630 -0.0828
40476SOL    HW133407   2.299  12.051  13.637  0.0587  0.6049 -0.9225
40476SOL    HW233408   2.190  12.115  13.720 -1.6417 -0.9656 -1.8664
40477SOL     OW33409   0.313  12.035   6.574  0.4823  0.4235 -0.3261
40477SOL    HW133410   0.398  12.024   6.617  0.6944 -1.6656 -1.1626
40477SOL    HW233411   0.283  11.946   6.557 -0.4756  1.1435 -2.7907
40478SOL     OW33412  10.187  12.933   4.369 -0.2551 -0.3469  0.0919
40478SOL    HW133413  10.137  13.011   4.348  0.2011  0.7458  2.7094
40478SOL    HW233414  10.272  12.946   4.326 -0.5277  0.0883 -0.3218
40479SOL     OW33415  12.633  11.370  12.626  0.1276 -0.1684  0.3924
40479SOL    HW133416  12.537  11.364  12.626 -0.3480  3.7699  2.8692
40479SOL    HW233417  12.654  11.412  12.543 -0.7124  1.8013  1.1195
40480SOL     OW33418   1.445   2.195   9.773 -0.1335  0.2546  0.1900
40480SOL    HW133419   1.482   2.280   9.797  0.3390  0.2678 -0.5558
40480SOL    HW233420   1.447   2.144   9.855 -0.5586  1.0015  0.6744
40481SOL     OW33421  12.838  11.744   7.714 -0.0837 -0.6286  0.4686
40481SOL    HW133422  12.869  11.740   7.805  1.5818 -0.3842 -0.0430
40481SOL    HW233423  12.893  11.811   7.674 -2.3111  0.8859 -0.1982
40482SOL     OW33424  12.882  12.922   9.004  0.3301 -0.2367 -0.0229
40482SOL    HW133425  12.855  12.872   9.081 -2.3701  1.1253  0.0294
40482SOL    HW233426  12.940  12.989   9.038  0.7170 -0.8429  0.5249
40483SOL     OW33427   7.398   5.627   4.015  0.1917 -0.1857 -0.0038
40483SOL    HW133428   7.389   5.722   4.024 -0.4392 -0.3772  1.8333
40483SOL    HW233429   7.424   5.614   3.924  1.5959  1.8362  0.0292
40484SOL     OW33430   9.615   7.588   3.563 -0.1912  0.6350 -0.0673
40484SOL    HW133431   9.650   7.604   3.475  2.1517 -0.5029  0.5805
40484SOL    HW233432   9.601   7.493   3.566 -0.5903  0.7063  0.6892
40485SOL     OW33433   7.259  13.495   0.093  0.6833 -0.1903 -0.0649
40485SOL    HW133434   7.257  13.570   0.152  0.4367 -1.2046  1.2647
40485SOL    HW233435   7.169  13.486   0.062  0.7967  0.2973 -0.5489
40486SOL     OW33436   8.109  12.266   0.979 -0.1288 -0.9452  0.0991
40486SOL    HW133437   8.195  12.251   1.018  0.2804 -1.2372 -0.8814
40486SOL    HW233438   8.078  12.347   1.019  1.7708  0.6767 -1.4667
40487SOL     OW33439   7.494   4.652   8.659  0.4720 -0.1482  0.2291
40487SOL    HW133440   7.427   4.710   8.694  2.5275  1.5357  1.6463
40487SOL    HW233441   7.468   4.637   8.568 -1.0769  1.5733  0.3372
40488SOL     OW33442   0.589  12.809   7.860 -0.2920 -0.9079 -0.0461
40488SOL    HW133443   0.653  12.827   7.928 -1.4571 -0.9431  1.0976
40488SOL    HW233444   0.534  12.887   7.857  0.0676 -0.6757 -1.3447
40489SOL     OW33445   0.174  10.365   0.527  0.5488 -0.1127 -0.3895
40489SOL    HW133446   0.122  10.403   0.597  0.6786  2.5244 -1.5772
40489SOL    HW233447   0.251  10.330   0.570  0.3977  1.0085  0.8497
40490SOL     OW33448  11.186   5.556   0.740  0.3884 -0.0150 -0.2299
40490SOL    HW133449  11.275   5.590   0.745 -0.3998  2.0663  0.4308
40490SOL    HW233450  11.163   5.561   0.647  1.2298 -1.4352 -0.5523
40491SOL     OW33451  13.118  10.487   5.938  0.0295 -0.5291  0.5334
40491SOL    HW133452  13.209  10.461   5.950  0.8864  1.2004 -1.6179
40491SOL    HW233453  13.069  10.432   6.000  2.2373 -3.2724  0.0566
40492SOL     OW33454  12.034   0.184   4.055 -0.1120  0.0702 -0.0880
40492SOL    HW133455  12.034   0.092   4.030  3.8169 -0.3708  0.8418
40492SOL    HW233456  12.009   0.231   3.976  0.1355 -1.7310 -1.2939
40493SOL     OW33457   4.776  13.772   8.795 -0.1020  0.5318  0.7324
40493SOL    HW133458   4.776  13.677   8.809 -2.7128  0.2743 -0.3448
40493SOL    HW233459   4.728  13.807   8.870 -0.4076  0.8193  0.4058
40494SOL     OW33460   6.570  11.447   8.800  0.2358  0.4056  0.0181
40494SOL    HW133461   6.601  11.357   8.813  0.7511  0.4774 -0.6449
40494SOL    HW233462   6.589  11.491   8.883 -2.5844 -0.7617  1.4142
40495SOL     OW33463   6.983   4.320   0.869 -0.1954  0.0380  0.3216
40495SOL    HW133464   7.006   4.396   0.815  0.7916 -1.2838 -1.1968
40495SOL    HW233465   6.990   4.352   0.959  2.6270  1.1278 -0.1974
40496SOL     OW33466   6.155  10.567   5.546 -0.4711 -0.3017  0.2757
40496SOL    HW133467   6.165  10.492   5.605  0.6477 -1.0931 -0.8761
40496SOL    HW233468   6.089  10.538   5.482  0.1726 -0.4409 -0.3396
40497SOL     OW33469   8.015  12.699   1.410  0.2846 -0.0924  0.9486
40497SOL    HW133470   8.080  12.757   1.370 -0.0158 -1.4446 -1.8014
40497SOL    HW233471   7.946  12.757   1.441  0.3159  1.1279 -1.0748
40498SOL     OW33472   4.041   9.173  12.938  0.1166  0.1747 -0.6048
40498SOL    HW133473   4.035   9.111  13.010 -1.7127  0.9593 -0.0313
40498SOL    HW233474   3.952   9.206  12.926  0.3264  0.0139 -3.2998
40499SOL     OW33475   5.926   7.251  10.868  0.1132  0.3979  0.1526
40499SOL    HW133476   5.844   7.300  10.869 -1.4221 -1.9764 -0.5088
40499SOL    HW233477   5.915   7.186  10.798  2.2672 -0.5072  0.5521
40500SOL     OW33478   8.073  12.002  13.852 -0.0394  0.5015  0.1173
40500SOL    HW133479   8.123  12.084  13.849  2.0999 -0.7326  0.4211
40500SOL    HW233480   8.132  11.939  13.892 -1.6364 -1.2302 -0.1233
40501SOL     OW33481   1.266   2.997   9.183  0.0643 -0.2541  0.0821
40501SOL    HW133482   1.187   3.011   9.234  0.4660  0.5043  0.5174
40501SOL    HW233483   1.338   3.011   9.245  0.5973  1.9984 -0.9165
40502SOL     OW33484   0.164   2.312  12.776 -0.4757 -0.1042 -0.0010
40502SOL    HW133485   0.147   2.311  12.682 -0.6379 -1.5790  0.0266
40502SOL    HW233486   0.259   2.312  12.783 -0.3883 -2.6746 -0.2195
40503SOL     OW33487  10.268   0.350   3.112 -0.1613 -0.0309 -0.1809
40503SOL    HW133488  10.196   0.288   3.122 -0.5997  0.7500  2.3226
40503SOL    HW233489  10.335   0.318   3.173  0.1250  1.2198  0.1817
40504SOL     OW33490   4.820   1.245  11.429 -0.3562  0.7928 -0.1128
40504SOL    HW133491   4.806   1.306  11.502 -2.4189 -0.1593  0.3688
40504SOL    HW233492   4.736   1.243  11.383 -0.3632 -1.6747 -0.1020
40505SOL     OW33493  12.134   7.993   2.012  0.3501 -0.2478  0.5688
40505SOL    HW133494  12.135   8.046   1.933 -0.6329 -1.4243 -0.2519
40505SOL    HW233495  12.177   8.048   2.078  0.8078  0.9087 -0.6572
40506SOL     OW33496   8.426   5.776   8.022  0.3151 -0.0764  0.4196
40506SOL    HW133497   8.348   5.832   8.019 -0.2564 -0.8960 -0.2939
40506SOL    HW233498   8.412   5.710   7.954  0.7782 -1.3450  1.4974
40507SOL     OW33499   1.682  11.674   6.370 -0.3544  0.0539 -0.3803
40507SOL    HW133500   1.741  11.639   6.303  1.9540  0.2610  1.4167
40507SOL    HW233501   1.719  11.760   6.391 -0.0741 -0.6434  2.2247
40508SOL     OW33502  10.153   3.207   0.425  0.5515  0.0953  0.0920
40508SOL    HW133503  10.248   3.198   0.433  0.3029 -2.3651  1.0556
40508SOL    HW233504  10.139   3.232   0.333  2.1340  1.2066  0.1223
40509SOL     OW33505   9.405   8.481  13.975  0.3387 -0.3929 -0.1691
40509SOL    HW133506   9.469   8.537  13.932  0.6255 -0.5296  0.0790
40509SOL    HW233507   9.325   8.535  13.978  0.8106  0.2806  0.7248
40510SOL     OW33508   7.740   0.956  12.788  0.4003  0.5378  0.3810
40510SOL    HW133509   7.789   0.993  12.862  1.0523 -0.2936  0.3796
40510SOL    HW233510   7.786   0.875  12.768 -0.9268 -0.2155  0.3098
40511SOL     OW33511  12.110   3.356   9.071 -0.4068 -0.3551 -0.0327
40511SOL    HW133512  12.146   3.279   9.113  2.2871  1.0301  0.4030
40511SOL    HW233513  12.144   3.353   8.982 -1.2893 -0.2613 -0.3853
40512SOL     OW33514  10.620   6.773  12.763 -0.0418 -0.3259 -0.1615
40512SOL    HW133515  10.609   6.864  12.733  2.8558  0.5920  1.1448
40512SOL    HW233516  10.667   6.730  12.691  0.6341 -0.0952  0.1263
40513SOL     OW33517   0.638   4.454   5.758  0.1204 -0.3329 -0.3031
40513SOL    HW133518   0.583   4.474   5.834 -0.0828 -0.1129 -0.5028
40513SOL    HW233519   0.580   4.468   5.683  0.5408  0.2387 -0.5335
40514SOL     OW33520  12.224   1.009  11.152  0.1129 -0.2603  0.0437
40514SOL    HW133521  12.139   1.048  11.131  0.4746  0.5934  0.1407
40514SOL    HW233522  12.226   0.927  11.102 -0.0490  0.5619 -1.3451
40515SOL     OW33523   8.221  11.233   0.275  0.3549 -0.7670  0.3682
40515SOL    HW133524   8.161  11.159   0.281 -0.0308 -0.4314  0.6584
40515SOL    HW233525   8.304  11.194   0.247  0.1014 -1.2791  0.3221
40516SOL     OW33526   5.345   1.680   0.052  0.1982  0.0422 -0.7731
40516SOL    HW133527   5.396   1.600   0.045 -2.1812 -1.6741  0.3177
40516SOL    HW233528   5.277   1.672  -0.015 -0.5306  0.7700 -0.1533
40517SOL     OW33529  13.664  12.209  13.873  0.1254 -0.4659  0.4337
40517SOL    HW133530  13.575  12.243  13.880  0.4639  0.6153 -0.2823
40517SOL    HW233531  13.652  12.120  13.838 -0.7056 -0.6753  1.2023
40518SOL     OW33532   1.261  11.889   7.324  0.2983  0.3253 -0.0472
40518SOL    HW133533   1.213  11.962   7.364  1.0788  0.4955  0.6163
40518SOL    HW233534   1.341  11.883   7.376  0.6144 -0.4794 -0.6202
40519SOL     OW33535   9.907   5.555   3.380 -0.8081 -0.3938 -0.1345
40519SOL    HW133536   9.885   5.646   3.364 -1.1738 -0.4439  0.0883
40519SOL    HW233537   9.928   5.520   3.293 -1.8440 -0.4114 -0.3883
40520SOL     OW33538  12.686   6.484   7.458 -0.8190 -0.1548 -0.5544
40520SOL    HW133539  12.678   6.416   7.525 -0.9995 -0.0491 -0.4686
40520SOL    HW233540  12.772   6.469   7.419 -0.0991  0.6322  0.6432
40521SOL     OW33541   8.481  12.042   8.892 -0.2329 -1.0316 -0.0730
40521SOL    HW133542   8.495  12.070   8.983  0.5654 -1.8638  0.0679
40521SOL    HW233543   8.556  12.076   8.844 -0.8000 -0.3402 -0.5018
40522SOL     OW33544   9.626  10.446   4.101  0.4736  0.5521 -0.0748
40522SOL    HW133545   9.721  10.439   4.090  0.3205 -0.1398 -1.1466
40522SOL    HW233546   9.608  10.540   4.101  1.1297  0.6781 -0.1433
40523SOL     OW33547   0.633   6.721  12.736  0.2666  0.0568 -0.0893
40523SOL    HW133548   0.590   6.783  12.795  0.0758 -0.2428  0.0936
40523SOL    HW233549   0.589   6.638  12.753  0.5824 -0.1480 -0.2627
40524SOL     OW33550   8.914   2.368   0.957 -0.5190  0.2001  0.3591
40524SOL    HW133551   8.952   2.299   0.904 -1.0173 -0.3215  0.6672
40524SOL    HW233552   8.844   2.405   0.903  0.5054  1.2851 -0.2824
40525SOL     OW33553   1.733   3.038   3.304 -0.1043  0.3540  0.3883
40525SOL    HW133554   1.740   3.021   3.398 -1.7923 -0.7586  0.3757
40525SOL    HW233555   1.648   3.081   3.294 -0.3170 -0.2804 -0.6879
40526SOL     OW33556  10.945   6.843  12.290 -0.1314  0.3227 -0.3711
40526SOL    HW133557  10.896   6.906  12.342  0.9840  0.3074  0.7236
40526SOL    HW233558  10.976   6.893  12.215  1.4991  1.3541  0.9280
40527SOL     OW33559   9.039   4.219   3.123  0.0000 -0.1842  0.3846
40527SOL    HW133560   9.069   4.200   3.035  1.3178 -0.5142  0.8793
40527SOL    HW233561   9.061   4.311   3.137 -0.7179  0.0242  0.1820
40528SOL     OW33562   8.844   0.435  11.130 -0.9638 -0.4960  0.7113
40528SOL    HW133563   8.876   0.511  11.178 -0.4093  0.3087 -0.8643
40528SOL    HW233564   8.864   0.360  11.186  0.7652  0.2959  1.1987
40529SOL     OW33565   5.427  12.898  11.741  0.2028  0.0036  0.3576
40529SOL    HW133566   5.501  12.937  11.694 -0.3471 -0.0903 -0.6178
40529SOL    HW233567   5.380  12.973  11.777  0.4053  0.1025  0.4211
40530SOL     OW33568   8.551  11.412   3.914 -0.5416  0.1881  0.5378
40530SOL    HW133569   8.646  11.421   3.902 -0.3767 -1.0599  0.7838
40530SOL    HW233570   8.517  11.500   3.898  0.6123  0.5686  0.0347
40531SOL     OW33571   5.143  13.262   3.131  0.1382  0.2922  0.1882
40531SOL    HW133572   5.143  13.335   3.193  2.0848  0.3214  0.2146
40531SOL    HW233573   5.182  13.190   3.180  0.1106 -0.1796 -0.4781
40532SOL     OW33574   9.781   5.476   4.080 -0.0202 -0.0909  0.5453
40532SOL    HW133575   9.756   5.559   4.121 -0.7902 -0.8818  1.7481
40532SOL    HW233576   9.850   5.441   4.137  0.2137 -0.3297  0.1181
40533SOL     OW33577   8.618   9.939   6.749 -0.0576 -0.0725 -0.2901
40533SOL    HW133578   8.616   9.890   6.831 -2.1265 -0.6737 -0.6324
40533SOL    HW233579   8.673   9.887   6.691  1.4048  0.3483  0.6697
40534SOL     OW33580   4.784  12.217   3.419 -0.1131  0.0779  0.3654
40534SOL    HW133581   4.854  12.182   3.364 -1.5104  0.0013 -1.4833
40534SOL    HW233582   4.770  12.306   3.386 -0.2133  0.4533  1.3902
40535SOL     OW33583  12.245  13.536  10.709  0.1160 -0.2045  0.6106
40535SOL    HW133584  12.269  13.610  10.653 -0.8876 -1.0410 -1.0063
40535SOL    HW233585  12.313  13.470  10.693 -1.0254 -1.0657 -0.9402
40536SOL     OW33586  10.335   4.841   3.253  0.2871 -0.0810 -0.3341
40536SOL    HW133587  10.377   4.821   3.169 -0.0048 -1.1750 -0.2431
40536SOL    HW233588  10.395   4.902   3.296  1.4944 -1.1313 -0.4611
40537SOL     OW33589  11.557   9.178   7.490 -0.2323  0.4774  0.1849
40537SOL    HW133590  11.481   9.156   7.544 -1.3390  2.2063 -0.5570
40537SOL    HW233591  11.546   9.272   7.471  1.0404  0.3191 -1.5703
40538SOL     OW33592   4.596   1.471  10.594 -0.0336  0.6990 -0.4393
40538SOL    HW133593   4.655   1.425  10.534  0.0033  0.5229 -0.2678
40538SOL    HW233594   4.651   1.537  10.637 -0.2314  1.3500 -1.1688
40539SOL     OW33595   3.792   0.761  10.932  0.5625  0.3010  0.8947
40539SOL    HW133596   3.872   0.781  10.884  0.0343  0.2796 -0.0247
40539SOL    HW233597   3.752   0.689  10.883 -0.1718  0.5227  1.1535
40540SOL     OW33598   1.814   4.902   7.304  0.2005 -0.8489  0.6457
40540SOL    HW133599   1.837   4.854   7.383  0.7343 -0.8656  0.4860
40540SOL    HW233600   1.733   4.947   7.326  1.1808  0.4596  1.7735
40541SOL     OW33601   3.879   5.884   5.765 -0.3592 -0.6900 -0.6030
40541SOL    HW133602   3.786   5.903   5.772 -0.0466  0.6940  0.0780
40541SOL    HW233603   3.901   5.844   5.850 -0.0708  0.1977 -0.2562
40542SOL     OW33604  11.493   2.693  10.770  0.5584 -0.6913 -0.1506
40542SOL    HW133605  11.506   2.607  10.810  3.9651  0.4796  1.6486
40542SOL    HW233606  11.541   2.688  10.687  0.3079 -0.6844 -0.2957
40543SOL     OW33607   8.748   4.927   0.851  0.5872 -0.0677 -0.1834
40543SOL    HW133608   8.671   4.874   0.873  0.1819  0.7536  0.4059
40543SOL    HW233609   8.745   4.935   0.755 -1.3014  1.7708 -0.0324
40544SOL     OW33610   5.713   1.891  13.899 -0.2794 -0.2954  0.2141
40544SOL    HW133611   5.772   1.916  13.970 -0.4918  1.9870 -0.3291
40544SOL    HW233612   5.764   1.907  13.819 -1.2675  0.8029 -0.2252
40545SOL     OW33613  13.088  13.746   4.463  0.0654  0.7806  0.1142
40545SOL    HW133614  13.028  13.694   4.518  0.4288  1.9182  1.6496
40545SOL    HW233615  13.045  13.748   4.377 -0.5954 -0.9339  0.3518
40546SOL     OW33616   9.101   6.409   9.041 -0.0427  0.4206  0.1060
40546SOL    HW133617   9.053   6.488   9.069 -1.4497 -0.8744  1.5321
40546SOL    HW233618   9.110   6.357   9.121  0.8159 -0.9134 -0.8242
40547SOL     OW33619   2.050  12.001   1.040  0.1714  0.1904  0.2997
40547SOL    HW133620   2.034  11.986   1.133  0.2014 -0.7447  0.1570
40547SOL    HW233621   2.107  12.078   1.039 -1.0264  1.1354  0.9798
40548SOL     OW33622  10.175   0.823   2.584  0.4720  0.1300  0.5899
40548SOL    HW133623  10.088   0.861   2.595  0.2058 -0.2128 -0.2129
40548SOL    HW233624  10.189   0.769   2.662 -0.2104 -0.1402  0.5276
40549SOL     OW33625   7.333  10.528   2.196  0.0621 -0.1050 -0.1183
40549SOL    HW133626   7.314  10.595   2.130 -0.2584 -0.0369  0.0425
40549SOL    HW233627   7.422  10.499   2.175  0.3130  0.5700 -0.0174
40550SOL     OW33628   6.751   7.535  10.554 -0.6160  0.4454 -0.4129
40550SOL    HW133629   6.733   7.468  10.620  0.7668  0.2708 -0.1755
40550SOL    HW233630   6.669   7.545  10.506 -1.5112  0.2194  1.0071
40551SOL     OW33631   2.099   7.133   1.089  0.8782 -0.3201 -0.4787
40551SOL    HW133632   2.028   7.191   1.118  0.1460 -1.9337  1.2149
40551SOL    HW233633   2.175   7.190   1.079 -0.7684  1.6359 -3.1531
40552SOL     OW33634   2.755   3.507   9.884  0.5126 -0.6426  0.0197
40552SOL    HW133635   2.701   3.456   9.823  1.5158 -1.6961 -0.0280
40552SOL    HW233636   2.838   3.460   9.887  1.1660  0.5081  0.6867
40553SOL     OW33637   4.386   5.315   0.643 -0.0203  0.0039  0.0397
40553SOL    HW133638   4.472   5.274   0.656  1.1143  2.1122 -0.4416
40553SOL    HW233639   4.352   5.327   0.732  1.0685  0.8799  0.3629
40554SOL     OW33640  10.123   6.541   7.605  0.2894 -0.6322  0.4464
40554SOL    HW133641  10.083   6.470   7.653 -1.4109 -0.6595 -0.9126
40554SOL    HW233642  10.178   6.498   7.539  0.8263 -0.6350  0.8906
40555SOL     OW33643   7.337   5.744  12.290 -0.3792 -0.1632 -0.2240
40555SOL    HW133644   7.421   5.759  12.333 -0.9827  1.9788  0.2799
40555SOL    HW233645   7.348   5.782  12.203 -0.0428 -2.1399 -1.1058
40556SOL     OW33646  12.779   3.725   4.138 -0.1576 -0.1213  0.4336
40556SOL    HW133647  12.748   3.680   4.217  0.4444  0.3035  0.9206
40556SOL    HW233648  12.861   3.765   4.164  0.6059 -0.8679 -0.7045
40557SOL     OW33649  12.593  12.895   1.665 -0.8749  0.0001 -0.1177
40557SOL    HW133650  12.637  12.909   1.749 -2.4042  1.9819  0.4261
40557SOL    HW233651  12.654  12.842   1.614  0.6025 -0.2369  1.8135
40558SOL     OW33652   3.473   3.504   5.317 -0.0138  0.3039  0.4752
40558SOL    HW133653   3.467   3.471   5.227 -0.2932 -0.5649  0.7966
40558SOL    HW233654   3.549   3.562   5.316  0.1758  0.0614 -0.2495
40559SOL     OW33655   0.796   3.350   3.346  0.2675 -0.3310 -0.1767
40559SOL    HW133656   0.860   3.420   3.333 -2.0782  1.5590 -2.7414
40559SOL    HW233657   0.811   3.291   3.272  1.8721 -2.4240  1.6733
40560SOL     OW33658   7.696   9.494   5.247 -0.0184  0.1315 -0.6476
40560SOL    HW133659   7.606   9.499   5.279  0.1347 -0.0741 -0.1856
40560SOL    HW233660   7.699   9.559   5.177 -0.3943  0.4823 -0.3456
40561SOL     OW33661   1.253   0.095  10.214 -0.8972  0.2168  0.0453
40561SOL    HW133662   1.209   0.167  10.258  0.3339 -0.0884  1.8561
40561SOL    HW233663   1.282   0.037  10.284 -0.5842 -1.3190 -1.2774
40562SOL     OW33664  11.760  10.119  10.582 -0.3579  0.6631  0.0416
40562SOL    HW133665  11.723  10.176  10.649  0.0471  1.7042 -0.5885
40562SOL    HW233666  11.834  10.169  10.546  0.3931 -0.5140 -0.1176
40563SOL     OW33667  11.931   6.516   6.675 -0.2606 -0.1183 -0.2318
40563SOL    HW133668  11.875   6.567   6.618  0.2436 -0.6686 -1.2585
40563SOL    HW233669  12.012   6.503   6.624 -0.3304 -1.8130  0.0118
40564SOL     OW33670  11.623  11.809   9.174 -0.2983 -0.0621  0.6629
40564SOL    HW133671  11.647  11.895   9.139 -0.7134 -0.4943 -0.7069
40564SOL    HW233672  11.707  11.765   9.188 -0.1264  0.0733  0.0857
40565SOL     OW33673   7.701  10.909  12.428  0.4770  0.2970  0.1616
40565SOL    HW133674   7.641  10.945  12.493 -0.2040 -0.8045  0.1711
40565SOL    HW233675   7.728  10.825  12.465 -0.8182 -0.8902 -1.4525
40566SOL     OW33676  10.115  12.824   9.615  0.0175  0.9463  0.4847
40566SOL    HW133677  10.094  12.911   9.580  1.0616  0.2263 -2.2006
40566SOL    HW233678  10.201  12.835   9.657  0.0382  1.2752  0.3591
40567SOL     OW33679  10.380   4.595  13.304 -0.9346  0.0548 -0.0065
40567SOL    HW133680  10.405   4.545  13.382 -0.6352 -0.4460 -0.4189
40567SOL    HW233681  10.379   4.686  13.334 -1.7414 -0.2072  0.8196
40568SOL     OW33682  10.565   2.948   8.632  0.3652  0.3778 -0.5258
40568SOL    HW133683  10.610   2.869   8.661 -0.9746  0.2237  1.3824
40568SOL    HW233684  10.605   3.019   8.682 -0.7039  0.3878  0.3647
40569SOL     OW33685   9.646   5.747   9.580  0.4026  0.2233  0.2352
40569SOL    HW133686   9.674   5.655   9.585  1.6965  0.4653 -1.5493
40569SOL    HW233687   9.697   5.792   9.647  1.0193 -0.0860 -0.0246
40570SOL     OW33688   6.172   4.957   6.424  0.4889  0.1529  0.3071
40570SOL    HW133689   6.230   5.014   6.474  0.9849  1.0366 -1.2058
40570SOL    HW233690   6.084   4.987   6.447  0.6568 -0.1713  1.4321
40571SOL     OW33691  10.644  12.424   0.536  0.0914 -0.4723 -0.0667
40571SOL    HW133692  10.665  12.341   0.493 -0.4504 -0.5761 -0.1414
40571SOL    HW233693  10.550  12.419   0.553 -0.0230  0.2883 -0.4274
40572SOL     OW33694   1.115   9.533  10.796  1.0357  0.2643 -0.2135
40572SOL    HW133695   1.056   9.608  10.792  0.9597  0.1799 -0.7769
40572SOL    HW233696   1.200   9.568  10.767  0.9629  0.1025 -0.6334
40573SOL     OW33697   7.930   2.145   1.349  0.6789 -0.1501 -0.3560
40573SOL    HW133698   7.961   2.061   1.315  0.2109  0.0754 -1.3706
40573SOL    HW233699   7.911   2.197   1.271 -3.2356 -0.6214  0.0788
40574SOL     OW33700   9.368   3.581  12.503  0.2131 -0.7040 -0.2519
40574SOL    HW133701   9.286   3.583  12.454 -0.5353  0.0937  0.9818
40574SOL    HW233702   9.405   3.494  12.485 -0.9813 -1.1376 -0.6809
40575SOL     OW33703   5.526  12.910   4.171  0.1168  0.1233 -0.3586
40575SOL    HW133704   5.447  12.945   4.131  1.0240  2.2365 -0.4220
40575SOL    HW233705   5.542  12.828   4.125 -1.3837  0.2496 -1.1435
40576SOL     OW33706   4.779  10.586   9.840  0.3584 -0.2251  0.1715
40576SOL    HW133707   4.753  10.524   9.908 -0.1012 -1.7806 -1.3499
40576SOL    HW233708   4.759  10.541   9.757  1.0672  1.5107 -1.0052
40577SOL     OW33709   3.371   9.207   2.473  0.0287 -0.7626 -0.1851
40577SOL    HW133710   3.411   9.281   2.519 -1.3179  1.0895 -1.8125
40577SOL    HW233711   3.443   9.165   2.428  0.9688 -1.0813  1.5310
40578SOL     OW33712   3.234  13.760   2.909 -0.0640  0.5790  0.1266
40578SOL    HW133713   3.219  13.667   2.893 -1.3790  0.3694  2.1803
40578SOL    HW233714   3.214  13.803   2.826 -0.8416 -0.8412 -0.4419
40579SOL     OW33715  10.275   1.224  13.418  0.6245 -0.1972  0.2565
40579SOL    HW133716  10.299   1.147  13.470 -0.0452 -0.6703 -0.1227
40579SOL    HW233717  10.241   1.188  13.337 -2.6203  0.3458  1.2352
40580SOL     OW33718   2.912   2.808  10.753  0.3880 -1.0749 -0.0534
40580SOL    HW133719   2.880   2.733  10.804  2.1012 -1.3556  0.6773
40580SOL    HW233720   2.994   2.777  10.714  1.2251  0.4663  0.4115
40581SOL     OW33721  11.839   4.693  13.714 -0.0558  0.2318 -0.1528
40581SOL    HW133722  11.896   4.641  13.771 -1.2316  0.3479  1.2011
40581SOL    HW233723  11.862   4.666  13.626 -0.3232 -2.3426  0.4791
40582SOL     OW33724  12.031  12.935   4.292  0.5256 -0.1745 -0.1335
40582SOL    HW133725  12.020  12.936   4.387 -0.5001 -0.2227 -0.2370
40582SOL    HW233726  11.980  13.009   4.261 -1.9641 -2.0491 -0.8815
40583SOL     OW33727   6.090   1.990  11.892 -0.1654 -0.3435  0.5082
40583SOL    HW133728   6.185   1.996  11.905 -0.2206  2.2246  0.1318
40583SOL    HW233729   6.058   2.079  11.905 -2.1258 -0.5132 -2.2221
40584SOL     OW33730   4.705   5.293   2.546  0.4591  0.1890 -0.2200
40584SOL    HW133731   4.700   5.241   2.626 -2.2374  1.3610  0.5053
40584SOL    HW233732   4.781   5.259   2.500  0.5664 -2.3204  1.5806
40585SOL     OW33733  10.630   5.686   5.101 -0.3899  0.0583 -0.1806
40585SOL    HW133734  10.694   5.681   5.030 -0.0492 -1.2087  0.2050
40585SOL    HW233735  10.545   5.691   5.056 -0.0825  1.2575 -0.6841
40586SOL     OW33736   6.739  11.449   4.536  0.2042 -0.1073  0.1222
40586SOL    HW133737   6.718  11.541   4.523 -0.6879  0.1887  2.9528
40586SOL    HW233738   6.819  11.450   4.589  0.0185 -0.9256  0.4304
40587SOL     OW33739   2.181   0.037   6.090  0.0428  0.0335 -0.2815
40587SOL    HW133740   2.158   0.114   6.142 -2.2300 -0.1493 -0.8808
40587SOL    HW233741   2.213  -0.027   6.153 -2.4696 -0.1180  0.9614
40588SOL     OW33742   3.740   2.230  13.989  0.4698  0.1667 -0.0699
40588SOL    HW133743   3.703   2.265  14.069 -0.7674 -1.3269  0.0703
40588SOL    HW233744   3.758   2.307  13.935 -0.8749  1.0815  0.7165
40589SOL     OW33745   0.544  13.336   2.169  0.1686 -0.2145 -0.4383
40589SOL    HW133746   0.479  13.327   2.239 -0.5621 -0.4697 -1.1360
40589SOL    HW233747   0.617  13.281   2.197 -0.1145 -0.3109  0.1235
40590SOL     OW33748   5.903  11.847   6.260  0.4669  0.0139 -0.5426
40590SOL    HW133749   5.820  11.849   6.212  1.7397  0.2598 -2.8599
40590SOL    HW233750   5.907  11.758   6.296  0.1569 -0.7391 -2.2642
40591SOL     OW33751   7.237   1.127  12.908  0.2865 -0.1314  0.0584
40591SOL    HW133752   7.254   1.131  12.814  0.7932 -0.5312  0.1269
40591SOL    HW233753   7.256   1.216  12.939 -3.6715  1.2058 -0.7795
40592SOL     OW33754   7.696   3.900   5.251 -0.2850  0.1994 -0.6872
40592SOL    HW133755   7.774   3.933   5.206  1.5839 -2.8531 -0.0343
40592SOL    HW233756   7.702   3.937   5.339  0.6075 -0.1984 -0.5687
40593SOL     OW33757  10.610   8.042   0.086 -0.2750  0.7178  0.6856
40593SOL    HW133758  10.545   8.106   0.059 -0.6064  0.9853  2.0527
40593SOL    HW233759  10.686   8.059   0.030 -1.3084  0.4878 -0.8314
40594SOL     OW33760  12.263   0.989  12.459  0.3143  0.2875  0.3737
40594SOL    HW133761  12.338   0.957  12.508 -0.9145 -0.9127  1.5452
40594SOL    HW233762  12.204   0.913  12.453 -0.7135  1.1291 -0.7232
40595SOL     OW33763   8.969   8.614  12.760  0.1114 -0.4835 -0.4094
40595SOL    HW133764   8.965   8.529  12.805  0.8012  0.2322  1.0431
40595SOL    HW233765   9.011   8.673  12.822  1.3259  0.5137 -2.0764
40596SOL     OW33766   9.299  10.186   5.283 -0.3292  0.0016 -0.2543
40596SOL    HW133767   9.303  10.282   5.285 -0.9973  0.0416 -0.7326
40596SOL    HW233768   9.381  10.159   5.324  0.1849  0.7800 -0.7249
40597SOL     OW33769   9.639   7.666  11.813 -0.3003 -0.5018  0.0169
40597SOL    HW133770   9.650   7.635  11.903  1.9775  2.6064  0.9616
40597SOL    HW233771   9.557   7.715  11.815 -2.1242 -3.2938 -0.6369
40598SOL     OW33772  11.998  12.612  10.510 -0.0415 -0.5349 -0.0065
40598SOL    HW133773  12.012  12.681  10.576  1.8587  0.9145 -1.7952
40598SOL    HW233774  11.904  12.616  10.491 -0.2579  0.4032  1.1385
40599SOL     OW33775   2.291  13.215   3.893 -0.1610 -0.3886  0.0249
40599SOL    HW133776   2.197  13.205   3.883 -0.0648 -1.4231  0.0894
40599SOL    HW233777   2.319  13.137   3.941  0.6827  0.0647  0.2949
40600SOL     OW33778   9.942   5.159   7.564 -0.1418  0.0361 -0.4255
40600SOL    HW133779   9.920   5.142   7.473  0.9200 -1.1751 -0.4870
40600SOL    HW233780   9.956   5.072   7.602 -0.6528  0.5177  0.9180
40601SOL     OW33781   8.250   7.451   2.594  0.3484  0.6042  0.8361
40601SOL    HW133782   8.233   7.391   2.666  0.8203 -0.3324  0.2001
40601SOL    HW233783   8.166   7.459   2.549  0.3868  0.0317  0.6531
40602SOL     OW33784   0.344   3.319   7.236 -0.0080 -0.5102  0.0113
40602SOL    HW133785   0.394   3.400   7.240  1.0397 -1.0919 -0.7591
40602SOL    HW233786   0.254   3.345   7.258  0.7339  0.4335  2.1546
40603SOL     OW33787   4.139   1.100  12.818  0.4254 -0.2296  0.3366
40603SOL    HW133788   4.113   1.028  12.875  1.4844 -0.9862 -0.1140
40603SOL    HW233789   4.067   1.108  12.755 -0.6942  0.5379  1.6687
40604SOL     OW33790   3.953   4.706   7.417 -0.3739  0.1120 -0.4330
40604SOL    HW133791   3.933   4.786   7.466  0.8976  0.5416 -0.5904
40604SOL    HW233792   3.954   4.734   7.325  1.0443  0.1480 -0.4245
40605SOL     OW33793   4.456   8.215   8.295  0.0301 -0.7604 -0.4067
40605SOL    HW133794   4.446   8.250   8.383  0.3257  2.2268 -1.4512
40605SOL    HW233795   4.419   8.127   8.300 -0.6113 -0.4258  2.5006
40606SOL     OW33796   2.522   7.586   0.074 -0.1512 -0.1261  0.7162
40606SOL    HW133797   2.615   7.588   0.051  0.2101  0.3324  2.1189
40606SOL    HW233798   2.503   7.494   0.088 -1.0809 -0.8682 -3.7838
40607SOL     OW33799   9.452   8.605   0.423 -0.1670  0.1211  0.0551
40607SOL    HW133800   9.419   8.632   0.338 -1.4827 -0.9559  0.1933
40607SOL    HW233801   9.507   8.529   0.405  0.4773  0.5771  0.0623
40608SOL     OW33802   0.480   6.931   4.726  0.0387 -0.1829  0.1320
40608SOL    HW133803   0.439   7.017   4.715  0.9229  0.2085 -0.2303
40608SOL    HW233804   0.461   6.907   4.817 -0.0960  0.4585  0.2793
40609SOL     OW33805   8.789   5.739   1.619 -0.2344  0.1883 -0.0166
40609SOL    HW133806   8.883   5.751   1.606  0.1343 -1.5819  0.7527
40609SOL    HW233807   8.760   5.819   1.663  1.1102  0.3221  0.6531
40610SOL     OW33808   7.106   9.580   3.330  0.3724  0.2225 -0.4295
40610SOL    HW133809   7.038   9.647   3.330  1.0236  0.8974 -0.6455
40610SOL    HW233810   7.065   9.504   3.289 -1.0724 -0.2474  1.7419
40611SOL     OW33811   3.804   1.134   2.530  0.0240 -0.1360  0.0428
40611SOL    HW133812   3.812   1.039   2.528  0.7848 -0.1742  2.1184
40611SOL    HW233813   3.885   1.166   2.490  0.1497 -0.3664  0.1119
40612SOL     OW33814   3.739   1.564  10.215  0.4309 -0.1401  0.3003
40612SOL    HW133815   3.685   1.517  10.152  1.4599  0.8765 -1.3990
40612SOL    HW233816   3.813   1.506  10.232  0.1094 -0.4507  0.6414
40613SOL     OW33817  11.995   6.678  13.210  0.0938 -0.1237  0.5395
40613SOL    HW133818  11.974   6.638  13.126 -1.4261  0.9644  0.3676
40613SOL    HW233819  12.048   6.611  13.255  2.3704 -0.1126 -1.8575
40614SOL     OW33820   6.808  10.572  11.183 -0.4760  0.2869 -0.4026
40614SOL    HW133821   6.775  10.654  11.146 -0.4725  1.5618  2.2111
40614SOL    HW233822   6.902  10.575  11.166 -0.5520  0.5683 -0.7994
40615SOL     OW33823   0.853  11.149  10.946  0.0962  0.4668  0.1385
40615SOL    HW133824   0.938  11.141  10.990  0.1114  2.2708  0.4843
40615SOL    HW233825   0.825  11.239  10.962 -1.1398  0.3974 -1.3384
40616SOL     OW33826   6.021   2.277  10.016 -0.3110  0.5971 -0.1391
40616SOL    HW133827   6.043   2.281   9.923  0.6568  1.0850  0.1046
40616SOL    HW233828   6.009   2.369  10.042  1.3165  0.6089  0.6511
40617SOL     OW33829   5.440   7.300   0.119 -0.1168 -0.0651 -0.5554
40617SOL    HW133830   5.512   7.358   0.093  1.0436 -0.8313  0.7708
40617SOL    HW233831   5.483   7.229   0.167 -1.8279 -0.2008  0.8866
40618SOL     OW33832  12.171   2.706   5.721  0.0800 -0.5395 -0.0784
40618SOL    HW133833  12.084   2.705   5.682  0.7691 -2.3345 -1.6924
40618SOL    HW233834  12.203   2.795   5.706 -0.9182 -0.2793 -0.7602
40619SOL     OW33835   4.431   8.224   7.425  0.3206 -0.3569 -0.1501
40619SOL    HW133836   4.424   8.146   7.370  1.2540 -0.9727  0.5709
40619SOL    HW233837   4.379   8.203   7.502  1.5376 -0.7887  0.5892
40620SOL     OW33838  11.837   2.948   4.677  0.2895  0.4130 -0.5421
40620SOL    HW133839  11.785   2.872   4.701 -0.6117  0.8764 -0.9872
40620SOL    HW233840  11.780   2.999   4.619  0.3233  2.1610  0.8631
40621SOL     OW33841  13.990   0.238   8.257  0.1863 -0.0675 -0.2298
40621SOL    HW133842  14.000   0.274   8.168  2.3357  2.2978  0.8267
40621SOL    HW233843  14.029   0.305   8.314  1.3879 -2.6822  2.2829
40622SOL     OW33844   5.320   4.988  11.964 -0.4735 -0.0319  0.7690
40622SOL    HW133845   5.415   4.979  11.972 -0.4071  1.1732  1.5014
40622SOL    HW233846   5.287   4.899  11.979  0.4596 -0.2168  1.8692
40623SOL     OW33847   8.249   9.754  12.114 -0.1399 -0.3933  0.4226
40623SOL    HW133848   8.229   9.760  12.208 -0.4892  0.2032  0.3122
40623SOL    HW233849   8.324   9.812  12.102  0.7180 -1.4533  0.5576
40624SOL     OW33850  12.636   7.835   2.470 -0.2259  0.5101  0.2666
40624SOL    HW133851  12.675   7.763   2.519  0.3841  1.4119  1.1479
40624SOL    HW233852  12.618   7.799   2.383  1.8378 -0.1478  0.0762
40625SOL     OW33853  13.100   7.998  12.203  0.2153 -0.1377  0.0115
40625SOL    HW133854  13.146   8.078  12.230  0.7872 -0.2568 -0.5892
40625SOL    HW233855  13.145   7.928  12.251 -1.0438  0.0076  1.4503
40626SOL     OW33856   4.186   9.893   8.239  0.5655 -0.3322 -0.1338
40626SOL    HW133857   4.184   9.834   8.164  0.0378 -0.7911  0.2257
40626SOL    HW233858   4.134   9.969   8.211  2.5095  0.6773 -1.1458
40627SOL     OW33859   3.068   2.813   2.480 -0.0913  0.0200  0.9251
40627SOL    HW133860   3.071   2.820   2.385  1.4094  1.2326  1.0151
40627SOL    HW233861   2.991   2.862   2.506 -1.3042 -1.4551  0.3003
40628SOL     OW33862  11.726   5.918  11.478 -0.4303 -0.2874 -0.7759
40628SOL    HW133863  11.819   5.921  11.498 -0.0799 -0.7317 -2.1884
40628SOL    HW233864  11.699   6.010  11.475  0.4628 -0.0347 -2.3587
40629SOL     OW33865  13.724   0.516  13.851 -0.3173 -0.2661 -0.1086
40629SOL    HW133866  13.668   0.560  13.788 -0.9107  0.8229  1.1445
40629SOL    HW233867  13.741   0.430  13.812 -0.7125  0.3495 -1.7004
40630SOL     OW33868  10.971   4.684  12.085 -0.6220  0.0993 -0.0268
40630SOL    HW133869  11.045   4.659  12.030 -0.3822 -0.4464  0.5245
40630SOL    HW233870  10.961   4.778  12.071  0.2866  0.2168  0.0197
40631SOL     OW33871   3.166   5.510  11.194 -0.1318  0.6887 -0.1076
40631SOL    HW133872   3.240   5.560  11.161 -0.8743  1.7826 -0.1734
40631SOL    HW233873   3.163   5.531  11.287  0.5218 -0.5237  0.2048
40632SOL     OW33874   7.007   5.682  11.858  0.3840  0.1406  0.8382
40632SOL    HW133875   6.974   5.626  11.929  0.5903 -0.2712  0.6103
40632SOL    HW233876   7.038   5.761  11.903  0.3419 -0.0420  1.1918
40633SOL     OW33877   7.363   1.503  13.618 -0.4360  0.3708 -0.3530
40633SOL    HW133878   7.450   1.477  13.649 -1.2410 -1.2191  0.7009
40633SOL    HW233879   7.351   1.593  13.651  0.8307  0.6477 -0.6108
40634SOL     OW33880   0.576  11.022  10.954  0.2268 -0.2378  0.5433
40634SOL    HW133881   0.520  11.070  11.015  0.7053  0.7040  0.2657
40634SOL    HW233882   0.665  11.052  10.975  0.5628 -1.1750  0.5069
40635SOL     OW33883   0.870   4.788   7.049 -0.0762  0.0106 -0.7489
40635SOL    HW133884   0.939   4.724   7.031  0.7359  0.9036 -0.8949
40635SOL    HW233885   0.916   4.872   7.051 -0.7185  0.3778  1.8605
40636SOL     OW33886  11.093  13.547   5.626  0.3608 -0.0778 -0.0751
40636SOL    HW133887  11.018  13.526   5.571  0.4894 -2.0674  0.4262
40636SOL    HW233888  11.142  13.465   5.631  1.8277  0.8095  0.7537
40637SOL     OW33889   7.439   7.040   6.821 -0.1545  0.6243 -0.7447
40637SOL    HW133890   7.532   7.030   6.842  0.1227  2.6819 -0.7371
40637SOL    HW233891   7.399   6.958   6.848  1.3422  0.4575  1.1678
40638SOL     OW33892  12.332  11.720   2.423  0.2032 -0.3356 -0.6923
40638SOL    HW133893  12.406  11.777   2.447 -0.0594  0.4374 -1.6535
40638SOL    HW233894  12.255  11.765   2.458  0.0465 -0.3612 -0.9982
40639SOL     OW33895  11.619   2.155   6.759 -0.3373 -0.1258 -0.4071
40639SOL    HW133896  11.598   2.073   6.805 -0.3477  0.3917  0.5471
40639SOL    HW233897  11.678   2.201   6.819 -0.2500  0.5144 -0.9834
40640SOL     OW33898   7.483  10.422  11.316  0.2783 -0.1092 -0.2354
40640SOL    HW133899   7.540  10.415  11.392  0.1258  1.5211  0.0571
40640SOL    HW233900   7.499  10.509  11.281  1.1301 -1.1914 -2.7479
40641SOL     OW33901   7.528   5.690  13.297  0.0477 -0.1395  0.0755
40641SOL    HW133902   7.494   5.761  13.352 -0.9201 -0.9875  0.6004
40641SOL    HW233903   7.452   5.662  13.245  0.8130  0.2939 -1.3400
40642SOL     OW33904   8.744   9.560   1.910 -0.0621  0.0668  0.1403
40642SOL    HW133905   8.789   9.602   1.837  0.0131 -0.4178 -0.0965
40642SOL    HW233906   8.774   9.469   1.908  1.3926  0.4359  1.9141
40643SOL     OW33907   8.446   1.187   7.669 -0.2012  0.0019 -0.5270
40643SOL    HW133908   8.445   1.092   7.657 -2.2674  0.0484 -1.1553
40643SOL    HW233909   8.369   1.218   7.621  0.4129  2.0026 -0.3120
40644SOL     OW33910   6.583   7.861  10.590  0.7917 -0.1934  0.7810
40644SOL    HW133911   6.529   7.927  10.546  0.8894  0.7318  1.9861
40644SOL    HW233912   6.520   7.804  10.633  0.7068 -0.9207 -0.2691
40645SOL     OW33913  11.784  10.645   1.182 -0.1381 -0.1455  0.6745
40645SOL    HW133914  11.738  10.688   1.109  0.5543  0.2798  0.4734
40645SOL    HW233915  11.844  10.584   1.139  2.1018  1.8882  0.7127
40646SOL     OW33916  13.443   9.529  12.754 -0.1327  0.0835  0.4640
40646SOL    HW133917  13.515   9.529  12.692  0.3930 -0.9585  1.0570
40646SOL    HW233918  13.364   9.525  12.700  0.1274  2.7742 -0.2641
40647SOL     OW33919   7.510   6.363  10.964  0.0056 -0.5393  0.5375
40647SOL    HW133920   7.589   6.318  10.995 -1.2711 -2.6008  1.0207
40647SOL    HW233921   7.492   6.324  10.879 -0.8584 -0.6285  0.7437
40648SOL     OW33922   0.071  11.541   5.163  0.0740  0.5985  0.6421
40648SOL    HW133923   0.046  11.455   5.128 -0.5804  1.0828 -0.0911
40648SOL    HW233924  -0.008  11.594   5.155  0.7557  1.5652  0.1726
40649SOL     OW33925  12.491   6.828   8.477  0.1979  0.1207 -0.4257
40649SOL    HW133926  12.534   6.887   8.539  1.2715  1.8395 -2.6378
40649SOL    HW233927  12.561   6.771   8.445 -0.7622 -2.2979  1.4189
40650SOL     OW33928  12.285   0.875   8.720  0.2203  0.1502  0.3458
40650SOL    HW133929  12.196   0.866   8.755  0.2219 -0.3602  0.2227
40650SOL    HW233930  12.286   0.819   8.643  0.8857 -0.4670  0.7956
40651SOL     OW33931   8.836  12.529   1.462  0.6248 -0.1293  0.3415
40651SOL    HW133932   8.871  12.458   1.408  1.2092  0.7966 -0.5317
40651SOL    HW233933   8.741  12.518   1.457  0.6507  0.1268 -1.1680
40652SOL     OW33934   4.392   0.747   9.096 -0.1664  0.2528  0.2056
40652SOL    HW133935   4.466   0.746   9.156 -0.1604  0.2865  0.1988
40652SOL    HW233936   4.320   0.709   9.146 -0.2846  0.7206  0.3938
40653SOL     OW33937   1.187   7.056   8.988 -0.1526  0.2484 -0.3273
40653SOL    HW133938   1.261   7.114   8.970  2.3485 -2.5471  0.1723
40653SOL    HW233939   1.193   7.039   9.082 -1.4640 -0.0316 -0.2808
40654SOL     OW33940   4.985  10.349  12.016 -0.3377 -0.1791 -0.2151
40654SOL    HW133941   5.010  10.438  11.990 -0.6344  0.3974  1.3857
40654SOL    HW233942   4.904  10.360  12.065 -1.4196 -1.5639 -1.5816
40655SOL     OW33943   1.653   5.202   0.693  0.2801 -0.5504 -0.0813
40655SOL    HW133944   1.743   5.193   0.662  0.9474  3.6717  0.0951
40655SOL    HW233945   1.610   5.255   0.626 -1.8500 -1.6324  0.3482
40656SOL     OW33946  12.685   4.955  12.798  0.2451  0.0035 -0.1952
40656SOL    HW133947  12.706   5.043  12.830  2.9319 -0.1235 -1.3143
40656SOL    HW233948  12.676   4.966  12.703 -2.3869 -0.4846 -0.0580
40657SOL     OW33949   1.660   4.835   6.923  0.5535 -1.3222 -0.3191
40657SOL    HW133950   1.602   4.817   6.849 -2.2400 -2.2808  1.9471
40657SOL    HW233951   1.714   4.756   6.931  0.7109 -1.3100 -1.1605
40658SOL     OW33952  13.564  10.532   0.315  0.2360  0.2107  0.2327
40658SOL    HW133953  13.619  10.582   0.375  2.2940 -1.8632  0.2368
40658SOL    HW233954  13.625  10.500   0.248 -1.4539 -0.0765 -1.2403
40659SOL     OW33955   5.098   7.280  11.737 -0.2424  0.2474 -0.4367
40659SOL    HW133956   5.190   7.306  11.725 -0.6165  1.0740 -1.7115
40659SOL    HW233957   5.065   7.340  11.804 -0.0626  0.4909 -0.5617
40660SOL     OW33958   0.638   3.026   4.296 -0.1155  0.2052  0.1505
40660SOL    HW133959   0.638   2.971   4.218  2.9020 -0.6403  0.6296
40660SOL    HW233960   0.572   2.986   4.353 -2.4464  0.8962 -1.8751
40661SOL     OW33961   5.840   1.983   1.796 -0.0909 -0.1958  0.2996
40661SOL    HW133962   5.854   1.889   1.786 -2.2564 -0.6501  0.8960
40661SOL    HW233963   5.920   2.015   1.837  0.0002 -2.1108  1.7735
40662SOL     OW33964   3.521   3.932   7.571 -0.0244  0.3812 -0.4779
40662SOL    HW133965   3.456   3.863   7.586  1.5674 -1.2151 -0.5536
40662SOL    HW233966   3.595   3.887   7.529  1.6319  1.8443  0.6923
40663SOL     OW33967  10.582   8.883   5.377  0.5769 -0.5482 -0.2608
40663SOL    HW133968  10.535   8.817   5.326  0.9574 -1.5221  0.6095
40663SOL    HW233969  10.669   8.846   5.390  1.3708  0.9288 -1.2449
40664SOL     OW33970  11.997   0.853   5.700  0.6574  0.2765 -0.6925
40664SOL    HW133971  12.031   0.775   5.741  0.7890  1.3869  1.4375
40664SOL    HW233972  11.917   0.874   5.750  0.2305  1.1019 -1.6720
40665SOL     OW33973  13.745   5.557  10.856  0.0470  0.0109 -0.2661
40665SOL    HW133974  13.836   5.579  10.877  0.2226  0.0115 -1.0159
40665SOL    HW233975  13.695   5.598  10.926  0.4328  2.0973 -1.1246
40666SOL     OW33976   3.305   3.537  11.031 -0.3902  0.5658 -0.2154
40666SOL    HW133977   3.326   3.550  10.938 -0.4295 -0.0842 -0.3188
40666SOL    HW233978   3.254   3.456  11.033 -0.6293  0.7248  0.3449
40667SOL     OW33979  13.647   3.740   2.878  0.0054 -0.0969  0.1519
40667SOL    HW133980  13.597   3.802   2.931  0.4586 -2.2829  3.4519
40667SOL    HW233981  13.739   3.763   2.894  0.1804 -1.4641  1.4003
40668SOL     OW33982  10.109  11.299   1.311 -0.0656 -0.7936 -0.1119
40668SOL    HW133983  10.158  11.292   1.393 -0.9782 -2.1253  0.3558
40668SOL    HW233984  10.022  11.330   1.338 -0.6005 -1.9313 -0.4434
40669SOL     OW33985   9.655   6.028   5.452  0.0916 -0.3840 -0.0013
40669SOL    HW133986   9.657   5.996   5.361  0.7115 -1.5124  0.3980
40669SOL    HW233987   9.608   6.111   5.446 -0.6781 -0.8651 -1.2334
40670SOL     OW33988   9.732   2.114   3.271  0.8644 -0.5740  0.5514
40670SOL    HW133989   9.767   2.139   3.185  0.4928  0.7821  0.7648
40670SOL    HW233990   9.804   2.131   3.332  0.1484  1.5020  0.8923
40671SOL     OW33991   8.243   6.694   3.928 -0.4261 -0.2772 -0.3019
40671SOL    HW133992   8.282   6.772   3.890  1.4181  1.3269  4.1331
40671SOL    HW233993   8.316   6.635   3.944 -1.2644 -1.3451 -0.2710
40672SOL     OW33994   9.419   9.793   5.169 -0.5970 -0.2951  0.0475
40672SOL    HW133995   9.450   9.766   5.256  0.6229  0.5412 -0.1029
40672SOL    HW233996   9.337   9.744   5.156 -1.6502  0.7312  2.3157
40673SOL     OW33997   8.995   6.972   8.573  0.0182 -0.2979  0.0689
40673SOL    HW133998   8.955   7.029   8.638  0.1949  0.8808 -0.8143
40673SOL    HW233999   8.927   6.908   8.553 -0.2207 -0.3521  1.0070
40674SOL     OW34000  11.597  12.279   5.913 -0.0894 -0.2974 -0.2903
40674SOL    HW134001  11.612  12.197   5.959  2.5231  0.0173 -0.4726
40674SOL    HW234002  11.677  12.295   5.864  0.4239  3.3928  1.4004
40675SOL     OW34003   1.454   7.358   7.852 -0.0282  0.7984 -0.2805
40675SOL    HW134004   1.494   7.384   7.935  1.0821  0.4553 -0.6913
40675SOL    HW234005   1.378   7.417   7.842  1.0145  2.2502 -0.0163
40676SOL     OW34006   0.745   8.457   1.478 -0.0594  0.3150 -0.0010
40676SOL    HW134007   0.745   8.488   1.387 -0.6574  1.1730  0.2848
40676SOL    HW234008   0.679   8.510   1.522 -1.2370 -1.4523  0.4850
40677SOL     OW34009   3.987  10.198   5.974 -0.1457 -0.1621 -0.1007
40677SOL    HW134010   4.013  10.259   5.905  0.8899 -1.5886 -1.0172
40677SOL    HW234011   3.924  10.247   6.027  0.1664  1.4649 -1.1809
40678SOL     OW34012  13.825   4.883   5.481  0.2803 -0.0438 -0.9609
40678SOL    HW134013  13.821   4.811   5.418 -0.4726  0.1709 -1.1751
40678SOL    HW234014  13.733   4.898   5.506  0.6193 -0.4850  0.6117
40679SOL     OW34015  13.812  12.543  10.663 -0.9941  0.9162  0.4348
40679SOL    HW134016  13.747  12.473  10.658  1.2684 -1.3582  0.3432
40679SOL    HW234017  13.860  12.536  10.580  0.4864  1.2710  1.2227
40680SOL     OW34018  10.772   1.325   0.566 -0.1959  0.1497 -0.3510
40680SOL    HW134019  10.679   1.322   0.590 -0.0487  0.0505  0.2301
40680SOL    HW234020  10.815   1.270   0.632  0.0938 -1.0842 -1.5230
40681SOL     OW34021   2.314   7.672   9.100  0.4802  0.8857  0.8517
40681SOL    HW134022   2.380   7.740   9.083  1.3580 -0.0488  0.3936
40681SOL    HW234023   2.357   7.612   9.161 -0.2803  0.7296  1.2450
40682SOL     OW34024   8.637   6.903   7.409 -0.5109 -0.5849 -0.2305
40682SOL    HW134025   8.731   6.915   7.403 -0.6448  0.6755 -0.1460
40682SOL    HW234026   8.626   6.820   7.456  0.5510 -0.5663  0.0689
40683SOL     OW34027   9.373  12.278   2.431 -0.4012  0.0488 -0.1345
40683SOL    HW134028   9.359  12.328   2.350 -0.4789 -0.2921 -0.3301
40683SOL    HW234029   9.293  12.293   2.482 -0.6989 -0.3937 -0.4660
40684SOL     OW34030   0.121  11.634  12.015  0.1947  0.4182 -0.1565
40684SOL    HW134031   0.090  11.581  11.941  0.7225 -0.4134  0.1979
40684SOL    HW234032   0.212  11.608  12.026  0.2568  0.8837  0.4917
40685SOL     OW34033   2.512   6.026  12.727 -0.0171 -0.1329  0.2056
40685SOL    HW134034   2.588   6.005  12.781 -0.0401 -1.0591 -0.0955
40685SOL    HW234035   2.525   6.117  12.701  0.6586 -0.0877  0.6844
40686SOL     OW34036  11.933   6.007   6.509  0.3188  0.5497  0.3101
40686SOL    HW134037  11.914   5.923   6.466  0.3883  0.8444 -0.3000
40686SOL    HW234038  12.029   6.013   6.505  0.3195  0.6153  0.4437
40687SOL     OW34039   8.860   6.417   1.437 -0.2468  0.2191  0.9058
40687SOL    HW134040   8.778   6.405   1.485  0.8564 -1.6274  2.4480
40687SOL    HW234041   8.927   6.423   1.504  1.0013  0.9287 -0.3524
40688SOL     OW34042   9.003   5.036   8.155 -0.5745  0.1201  1.0053
40688SOL    HW134043   8.953   4.955   8.144 -0.3114  0.0920 -0.2185
40688SOL    HW234044   9.094   5.007   8.164 -0.5102  0.2657  0.8273
40689SOL     OW34045   1.244   1.168   8.190  0.0378 -0.1129  0.1365
40689SOL    HW134046   1.172   1.221   8.226 -0.0241 -0.1861  0.1218
40689SOL    HW234047   1.315   1.179   8.252  0.2038  0.4131 -0.1346
40690SOL     OW34048   3.548   2.581  11.080  0.0217 -0.2403 -0.1509
40690SOL    HW134049   3.540   2.598  10.986 -0.5799 -1.2958 -0.3109
40690SOL    HW234050   3.461   2.549  11.105  0.1245  0.2142  0.8073
40691SOL     OW34051  11.348   3.263   1.581  0.4663 -0.0202  0.1130
40691SOL    HW134052  11.282   3.271   1.650 -1.6772  1.9078 -1.9643
40691SOL    HW234053  11.393   3.348   1.581  1.3217 -0.4647 -0.0527
40692SOL     OW34054   3.938  13.280   0.405 -0.3242  0.3171  0.0391
40692SOL    HW134055   3.953  13.336   0.481  0.8784  0.7603 -0.5002
40692SOL    HW234056   4.022  13.237   0.390 -1.3156 -1.9974  0.6830
40693SOL     OW34057  12.993   2.099   1.025  0.1234  0.0694 -0.4869
40693SOL    HW134058  13.051   2.068   0.955  2.2653  0.8370  0.8330
40693SOL    HW234059  13.033   2.067   1.106 -2.0192 -0.3905  0.4576
40694SOL     OW34060  12.897   6.765   5.221  0.2204  0.4708  0.0176
40694SOL    HW134061  12.807   6.749   5.250  0.0310  2.7798  0.9403
40694SOL    HW234062  12.924   6.843   5.269  1.7958  1.4065 -2.2186
40695SOL     OW34063  11.592   2.786  13.309 -0.1657 -0.0062 -0.0873
40695SOL    HW134064  11.556   2.802  13.397 -1.9317  0.8740 -0.9240
40695SOL    HW234065  11.686   2.800  13.319 -0.3067 -0.0254  1.6773
40696SOL     OW34066   2.866  12.696   9.577 -0.2396 -0.0552  0.0757
40696SOL    HW134067   2.830  12.658   9.497  0.0976 -1.3654  0.5238
40696SOL    HW234068   2.953  12.659   9.585 -0.4934 -0.4192  1.3578
40697SOL     OW34069   2.936   2.216   0.539  0.0530  0.2325  0.1071
40697SOL    HW134070   2.933   2.234   0.445 -0.0885 -1.8029 -0.3254
40697SOL    HW234071   3.016   2.260   0.569  0.3279  0.5646 -1.0444
40698SOL     OW34072   0.633  13.285   9.445  0.1571  0.0903 -0.5209
40698SOL    HW134073   0.602  13.195   9.457  0.0367  0.0346 -1.2347
40698SOL    HW234074   0.727  13.276   9.429 -0.2256 -0.1330 -3.0425
40699SOL     OW34075  12.513   4.189   7.951  0.0121 -0.1724  0.0751
40699SOL    HW134076  12.529   4.095   7.961 -0.4219 -0.0902  1.8665
40699SOL    HW234077  12.595   4.230   7.977  0.1397 -0.0383 -0.5273
40700SOL     OW34078   2.715   4.011   9.958 -0.4393  0.3142 -0.1392
40700SOL    HW134079   2.689   4.039  10.045 -1.5834  1.3982 -0.7833
40700SOL    HW234080   2.647   4.047   9.900  0.0115 -0.7906 -1.4192
40701SOL     OW34081  11.967   0.043  13.847  0.1277  0.3918  0.4976
40701SOL    HW134082  12.024  -0.031  13.870  0.6512  1.0456  1.3922
40701SOL    HW234083  11.912   0.056  13.925  0.0651  0.9633  0.3653
40702SOL     OW34084   6.442  10.424  13.001  0.0954  0.3851 -0.0396
40702SOL    HW134085   6.380  10.374  13.055  0.0427  0.4585 -0.0306
40702SOL    HW234086   6.490  10.478  13.065  0.9716 -0.5140  0.0845
40703SOL     OW34087   5.583   3.949   8.236  0.3970  0.3936 -0.1863
40703SOL    HW134088   5.564   3.978   8.147  1.0621  1.8768  0.1324
40703SOL    HW234089   5.656   3.888   8.227  0.7164  0.8400 -0.6207
40704SOL     OW34090   0.133   2.491   7.768 -0.1073 -0.3903 -0.2269
40704SOL    HW134091   0.198   2.449   7.712 -0.6861 -1.3346 -0.2084
40704SOL    HW234092   0.175   2.498   7.854 -0.8955 -3.4624  0.5380
40705SOL     OW34093  12.892   6.869   6.198  0.9770  0.3629 -0.0265
40705SOL    HW134094  12.954   6.801   6.227  0.7858  0.3014  0.2477
40705SOL    HW234095  12.890   6.931   6.270 -1.8017 -1.3244  1.5226
40706SOL     OW34096  10.077  11.414   0.454 -0.2930 -0.2970  0.2356
40706SOL    HW134097  10.153  11.419   0.513  0.8452 -1.3346 -1.0720
40706SOL    HW234098  10.092  11.334   0.403 -1.8586 -0.0721 -0.6326
40707SOL     OW34099   9.722   2.097   9.640 -0.1259  0.2661  0.1650
40707SOL    HW134100   9.766   2.170   9.685  1.0051 -1.9497  2.9440
40707SOL    HW234101   9.770   2.087   9.558  1.2660  1.1597  0.8280
40708SOL     OW34102   3.500   9.300   7.151 -0.2981  0.3953  0.2491
40708SOL    HW134103   3.451   9.382   7.158 -2.1227 -0.6129 -0.1931
40708SOL    HW234104   3.434   9.231   7.160  1.2673 -1.0559  1.1776
40709SOL     OW34105  11.729   2.084   8.401 -0.3871 -0.5191 -0.2060
40709SOL    HW134106  11.725   1.989   8.396  2.2759 -0.7679  0.6879
40709SOL    HW234107  11.661   2.108   8.464 -0.2372 -1.9686  0.5429
40710SOL     OW34108   0.533   7.919   0.476 -0.1702 -0.3984  0.5874
40710SOL    HW134109   0.511   7.886   0.563  1.6699 -3.4615  0.0179
40710SOL    HW234110   0.622   7.889   0.461 -0.1210  0.8254 -2.0448
40711SOL     OW34111   2.575   8.478   7.555 -0.1581 -1.1429  0.7277
40711SOL    HW134112   2.485   8.453   7.532  0.3427 -0.4105 -2.4432
40711SOL    HW234113   2.571   8.572   7.569  0.0954 -1.1318  0.7250
40712SOL     OW34114   9.701   0.220   9.158  0.2257 -0.1682 -0.2072
40712SOL    HW134115   9.624   0.224   9.215  0.6597  0.1668  0.3728
40712SOL    HW234116   9.766   0.275   9.202  1.7542 -2.5636  0.7744
40713SOL     OW34117   0.994   5.696   2.685 -0.3049 -0.3526 -0.5055
40713SOL    HW134118   1.014   5.684   2.592  0.9185 -1.8033 -0.0930
40713SOL    HW234119   0.924   5.761   2.686  1.7119  2.0479 -2.2753
40714SOL     OW34120   1.277   5.817  12.754  0.4339  0.8008  0.0906
40714SOL    HW134121   1.185   5.802  12.775  0.2261  2.3226  0.3483
40714SOL    HW234122   1.322   5.737  12.784 -0.6866  0.3754  0.6784
40715SOL     OW34123   2.856   5.399  12.261  0.0661  0.1353 -0.0077
40715SOL    HW134124   2.919   5.350  12.313  0.4199  0.5220 -0.0689
40715SOL    HW234125   2.849   5.350  12.179  1.3385  0.8283 -0.5636
40716SOL     OW34126   7.967  11.649  13.861  0.1846 -0.2490  0.2553
40716SOL    HW134127   8.042  11.628  13.805  0.7399  1.0046  0.4885
40716SOL    HW234128   7.927  11.726  13.820 -0.0107  0.0533  0.9979
40717SOL     OW34129  10.646   3.113   9.724  0.2608 -0.2359 -0.5176
40717SOL    HW134130  10.677   3.133   9.813  1.1806  0.8566 -1.0463
40717SOL    HW234131  10.553   3.095   9.735 -0.3816  2.8664  0.3494
40718SOL     OW34132  13.262   8.431  13.172 -0.3582  0.0275 -0.5691
40718SOL    HW134133  13.273   8.395  13.260  2.1605 -2.4732 -1.7556
40718SOL    HW234134  13.173   8.407  13.147  0.1582 -2.6506 -0.0543
40719SOL     OW34135   1.028   0.219   5.452  0.2884 -0.3165 -0.3759
40719SOL    HW134136   1.017   0.149   5.516 -0.1739 -0.1116 -0.2306
40719SOL    HW234137   1.121   0.242   5.459  0.4215 -0.8440 -0.3561
40720SOL     OW34138   4.326   4.888   9.278  0.1858  0.0572  0.0796
40720SOL    HW134139   4.317   4.793   9.282 -0.3509  0.1391  1.2675
40720SOL    HW234140   4.341   4.915   9.368 -1.9269  1.2914  0.1449
40721SOL     OW34141   6.631   2.148   2.491 -0.0922  0.3944  0.5806
40721SOL    HW134142   6.643   2.152   2.586 -0.5185  0.0100  0.6594
40721SOL    HW234143   6.575   2.071   2.478  2.5527 -1.5133 -0.2398
40722SOL     OW34144   8.047   5.853   6.841 -0.0079  0.0422 -0.1638
40722SOL    HW134145   8.076   5.917   6.776  1.8825 -0.3207  0.2643
40722SOL    HW234146   7.974   5.807   6.799 -1.0953  2.1042 -0.6622
40723SOL     OW34147   4.851   9.795  13.609 -0.0814 -0.2496  0.6785
40723SOL    HW134148   4.794   9.866  13.638 -0.0790 -0.5016  1.3325
40723SOL    HW234149   4.809   9.716  13.643  0.3217 -0.4938  0.6138
40724SOL     OW34150  10.430   1.593   0.969 -0.7768  0.2318 -0.0317
40724SOL    HW134151  10.516   1.559   0.943 -0.3795  0.1749  1.2910
40724SOL    HW234152  10.449   1.655   1.040 -1.8811 -0.5621  0.9979
40725SOL     OW34153  10.392   5.698  13.665 -0.0680 -0.0423  0.1833
40725SOL    HW134154  10.465   5.755  13.640 -0.3532  1.3965  2.4034
40725SOL    HW234155  10.323   5.719  13.602  0.2454  1.2205  0.2313
40726SOL     OW34156   8.705  14.038   1.528  0.0204 -0.1128 -0.5774
40726SOL    HW134157   8.642  14.099   1.488 -1.3642 -0.4609  0.9475
40726SOL    HW234158   8.791  14.073   1.504 -0.7398  1.6324 -0.9397
40727SOL     OW34159   3.383   4.192   8.490 -0.3938 -0.4629  0.3780
40727SOL    HW134160   3.351   4.219   8.577 -2.3990  1.0898 -0.7509
40727SOL    HW234161   3.422   4.271   8.454  0.6272 -1.1651 -0.0683
40728SOL     OW34162  12.725   3.352  10.717  0.0047 -0.9166 -0.5669
40728SOL    HW134163  12.726   3.339  10.622 -0.4735 -2.6787 -0.3671
40728SOL    HW234164  12.659   3.419  10.731 -0.0547 -0.7696 -1.4750
40729SOL     OW34165   3.832   6.941  12.377 -0.1104 -0.0886  0.1714
40729SOL    HW134166   3.885   7.006  12.423 -0.1165  0.1856 -0.1981
40729SOL    HW234167   3.814   6.981  12.292 -1.6157  0.1816  0.5909
40730SOL     OW34168   5.085  10.772   3.905  0.4663 -0.2181  0.6709
40730SOL    HW134169   5.119  10.780   3.816 -2.2955  1.2460 -0.3745
40730SOL    HW234170   5.010  10.713   3.897 -0.4013  0.6889  1.8127
40731SOL     OW34171   8.848   0.556   8.499  0.3729 -0.2241  0.5932
40731SOL    HW134172   8.872   0.482   8.443  0.8804 -1.2231  2.0799
40731SOL    HW234173   8.759   0.536   8.528 -0.1321  0.6055 -0.3125
40732SOL     OW34174   5.720   8.295   1.979  0.2361 -0.4411  0.8272
40732SOL    HW134175   5.662   8.220   1.985  0.6844 -0.6791  2.5501
40732SOL    HW234176   5.675   8.365   2.026  0.2541  0.1132  0.0512
40733SOL     OW34177   1.965   5.873   0.412  0.1216 -0.0300  0.2446
40733SOL    HW134178   1.920   5.808   0.467 -0.4419 -1.9913 -2.3596
40733SOL    HW234179   1.899   5.939   0.393 -0.0036  0.0569  0.9465
40734SOL     OW34180   2.531  11.765   4.498  0.5606  0.3431  0.1490
40734SOL    HW134181   2.484  11.848   4.494  0.1394  0.0743 -0.7171
40734SOL    HW234182   2.462  11.699   4.510  0.8111  0.0381 -0.0715
40735SOL     OW34183   5.445  10.083  12.059  0.9995  0.3163  0.3305
40735SOL    HW134184   5.480  10.172  12.061  0.7091  0.4283  0.4870
40735SOL    HW234185   5.363  10.091  12.011  2.1950 -0.3141 -1.9659
40736SOL     OW34186  13.822   7.353   5.025 -0.0563  0.2591  0.3457
40736SOL    HW134187  13.764   7.299   5.079  2.8445 -1.6615  1.8124
40736SOL    HW234188  13.883   7.393   5.087  2.3747 -0.6725 -1.2740
40737SOL     OW34189   5.995   0.310   9.404  0.2029 -0.3592  0.5571
40737SOL    HW134190   5.900   0.323   9.406 -0.2943 -3.1992 -0.1802
40737SOL    HW234191   6.025   0.365   9.331 -1.0824 -0.4962 -0.1028
40738SOL     OW34192  12.584   3.668   4.408  0.2507  0.4964  0.1287
40738SOL    HW134193  12.633   3.586   4.413 -2.2037 -0.9862  1.6419
40738SOL    HW234194  12.567   3.691   4.499 -1.5435  1.1358 -0.3449
40739SOL     OW34195   9.242  12.029   8.300 -0.0508 -0.5997 -0.5191
40739SOL    HW134196   9.193  11.985   8.231  0.8292 -1.3971 -0.6554
40739SOL    HW234197   9.334  12.015   8.277  0.2535  0.1305  0.1864
40740SOL     OW34198   0.701   0.495   1.811 -0.0877 -0.0424  0.1270
40740SOL    HW134199   0.617   0.461   1.779  0.4197 -0.1189 -1.1650
40740SOL    HW234200   0.737   0.423   1.863  0.1943 -0.9019 -1.1963
40741SOL     OW34201  13.810  13.318  11.459 -0.0226  0.2124 -0.4810
40741SOL    HW134202  13.879  13.345  11.399 -0.3439  0.6602 -0.6563
40741SOL    HW234203  13.729  13.345  11.417 -0.2758  0.1969 -0.0183
40742SOL     OW34204  12.797  12.035   4.510  0.5290 -0.4941 -0.1183
40742SOL    HW134205  12.884  11.997   4.499  0.7485  0.1617 -0.7217
40742SOL    HW234206  12.812  12.116   4.558  0.2329 -0.4767 -0.0547
40743SOL     OW34207   3.371   2.598   1.255 -0.8565 -0.2657  0.5644
40743SOL    HW134208   3.378   2.573   1.347 -2.4991  0.0310  0.7916
40743SOL    HW234209   3.295   2.550   1.222 -0.5663 -0.0180 -0.5256
40744SOL     OW34210  12.801   8.613   0.384  0.4919  0.2744 -0.6914
40744SOL    HW134211  12.821   8.610   0.290  0.2714 -0.2244 -0.7220
40744SOL    HW234212  12.753   8.532   0.402  1.4344 -0.1432  0.0555
40745SOL     OW34213   5.424  10.294   8.700 -0.3822  0.0956 -0.0377
40745SOL    HW134214   5.457  10.301   8.611  0.4084  1.7196  0.3505
40745SOL    HW234215   5.358  10.363   8.708 -0.9108 -0.4426  0.4581
40746SOL     OW34216  10.332   1.259   3.023  0.0291 -0.2384  0.5360
40746SOL    HW134217  10.344   1.188   2.959  0.3268  0.4273 -0.1700
40746SOL    HW234218  10.237   1.267   3.031 -0.0295  0.0307 -0.2594
40747SOL     OW34219   9.483   6.545   7.470  0.1370 -0.3266  0.5014
40747SOL    HW134220   9.559   6.601   7.454  1.5655 -2.2448  0.1899
40747SOL    HW234221   9.500   6.508   7.557 -1.4560  0.6739  1.2867
40748SOL     OW34222   0.927   1.161  10.145 -0.5275 -0.0430  0.1162
40748SOL    HW134223   0.959   1.249  10.122 -0.7865 -0.1224 -0.5794
40748SOL    HW234224   0.983   1.102  10.095 -1.4256 -0.2018 -0.7321
40749SOL     OW34225   7.729  11.094  14.032 -0.1984  0.2230  0.0660
40749SOL    HW134226   7.664  11.164  14.031 -0.0785  0.4966  3.0209
40749SOL    HW234227   7.680  11.015  14.055  0.3972  0.4568  2.4699
40750SOL     OW34228  11.968   8.328   4.135 -0.4639  0.1187 -0.0303
40750SOL    HW134229  11.970   8.260   4.203 -1.8126  0.2035  0.1279
40750SOL    HW234230  12.058   8.332   4.102  0.1926 -0.0253  1.6450
40751SOL     OW34231  11.845  10.197   2.074 -0.3306  0.2718  0.5289
40751SOL    HW134232  11.875  10.274   2.027 -0.3324  0.2526  0.4954
40751SOL    HW234233  11.753  10.213   2.091 -0.6332 -0.2625 -0.5539
40752SOL     OW34234  12.300   6.724  11.493 -0.3819  0.0930 -0.3869
40752SOL    HW134235  12.385   6.735  11.452 -0.9884  0.7120 -1.5369
40752SOL    HW234236  12.315   6.660  11.563  1.5502  2.1290  1.1781
40753SOL     OW34237   5.224   0.534   3.639  0.5773  0.0633  0.6935
40753SOL    HW134238   5.177   0.527   3.722 -1.4095  1.3950 -0.2154
40753SOL    HW234239   5.242   0.444   3.613  1.6694 -0.3505  2.7703
40754SOL     OW34240  12.642  13.441   0.937 -0.2842  0.3201  0.1997
40754SOL    HW134241  12.594  13.362   0.961  1.9076 -1.2039 -0.1168
40754SOL    HW234242  12.649  13.437   0.842  0.1683  0.6732  0.2123
40755SOL     OW34243   1.238  12.259   1.800  0.1751 -0.4329 -0.2903
40755SOL    HW134244   1.210  12.232   1.713  0.9411  1.8747 -1.3323
40755SOL    HW234245   1.206  12.190   1.858 -2.2471 -0.9873 -2.1176
40756SOL     OW34246   3.775  11.908   9.990 -0.1632 -0.4670  0.0575
40756SOL    HW134247   3.702  11.962  10.021  0.4750  0.1526  0.5208
40756SOL    HW234248   3.774  11.831  10.046 -0.8791 -0.7987 -0.3908
40757SOL     OW34249  12.903   5.792   5.131  0.0652 -0.5039 -0.2310
40757SOL    HW134250  12.987   5.838   5.137 -0.6583  1.2204 -1.9843
40757SOL    HW234251  12.847   5.835   5.196 -0.1300  0.0538 -0.7470
40758SOL     OW34252   8.014   7.110   1.201  0.2003  0.0835  0.4535
40758SOL    HW134253   7.990   7.197   1.232  0.3186 -0.2413  1.4781
40758SOL    HW234254   7.930   7.065   1.187  0.1452 -0.2169  1.6332
40759SOL     OW34255   6.676   7.781   4.673  0.1485  0.0598  0.0960
40759SOL    HW134256   6.711   7.789   4.584  3.1770 -0.7529  1.0801
40759SOL    HW234257   6.673   7.871   4.706 -1.0731  0.3721 -0.8247
40760SOL     OW34258   9.605  13.967  10.276 -0.2974 -0.0692  0.7942
40760SOL    HW134259   9.685  13.937  10.234 -1.4896 -2.4592  0.0678
40760SOL    HW234260   9.559  13.887  10.300 -3.1046  1.1872 -0.0268
40761SOL     OW34261   8.945   5.027   7.728 -0.8182 -0.1037  0.2341
40761SOL    HW134262   9.032   4.995   7.751 -0.5387  0.8114  0.4964
40761SOL    HW234263   8.961   5.102   7.672 -1.4929 -1.3773 -1.7513
40762SOL     OW34264   3.162   5.060   0.075  0.1021  0.0650  0.4662
40762SOL    HW134265   3.167   5.093  -0.015  1.2188 -1.0132  0.1250
40762SOL    HW234266   3.080   5.097   0.108 -0.8202 -0.2938 -1.2979
40763SOL     OW34267  10.493   8.800   7.782  0.0929 -0.5705  0.1144
40763SOL    HW134268  10.449   8.823   7.864  0.3003  0.3049 -0.0104
40763SOL    HW234269  10.466   8.710   7.765 -1.4690 -0.1326  0.1581
40764SOL     OW34270  12.180  12.442   7.302 -0.6483 -0.2349  0.3167
40764SOL    HW134271  12.200  12.389   7.225  0.0280  1.1824 -0.5454
40764SOL    HW234272  12.259  12.495   7.316 -1.4490  0.8802  0.8158
40765SOL     OW34273   1.737  10.925   7.492  0.0443 -0.6999 -0.3280
40765SOL    HW134274   1.763  11.003   7.443 -1.5493  0.3617  0.4175
40765SOL    HW234275   1.818  10.877   7.506  0.9796  0.5276 -1.3290
40766SOL     OW34276  12.582   0.942  11.624  0.3500  0.3596  0.2932
40766SOL    HW134277  12.557   1.022  11.579  1.7890  1.7422  1.7900
40766SOL    HW234278  12.561   0.959  11.716 -1.7513 -2.0416  0.3939
40767SOL     OW34279   9.165   5.469   5.234  0.0864  0.4310 -0.5932
40767SOL    HW134280   9.187   5.562   5.236 -1.1905  0.7437  1.1143
40767SOL    HW234281   9.091   5.463   5.175 -0.4699  0.6752  0.0683
40768SOL     OW34282   9.048  12.082   2.631  0.1324 -0.1323  0.0412
40768SOL    HW134283   9.079  12.171   2.612 -0.9981 -0.1386 -2.2651
40768SOL    HW234284   9.105  12.026   2.578 -0.4689 -0.5887 -0.1272
40769SOL     OW34285  10.321  12.860   1.789 -0.9987 -0.0674  0.3278
40769SOL    HW134286  10.360  12.925   1.848  0.6169 -1.6262  1.0714
40769SOL    HW234287  10.336  12.895   1.701 -0.5781  0.8022  0.7335
40770SOL     OW34288   5.969  11.476  12.965  0.2239 -0.2004  0.2010
40770SOL    HW134289   5.995  11.550  13.019  0.0217  2.0902 -2.5803
40770SOL    HW234290   5.873  11.475  12.970 -0.1484  2.4183 -2.6664
40771SOL     OW34291  11.477  12.900   6.927  0.2147 -0.0210  0.1587
40771SOL    HW134292  11.438  12.879   7.012  1.2006 -0.2156  0.5732
40771SOL    HW234293  11.539  12.970   6.945 -2.5104  2.9803 -1.1047
40772SOL     OW34294   6.877   2.211   7.907  0.3862  0.2531 -0.5217
40772SOL    HW134295   6.868   2.303   7.933  0.7395  0.0075  0.5193
40772SOL    HW234296   6.834   2.206   7.822 -0.5575  1.1713 -0.1208
40773SOL     OW34297   6.876   9.139   7.903 -0.2685 -0.3147  0.6562
40773SOL    HW134298   6.946   9.184   7.855 -0.4629 -1.3406 -0.6192
40773SOL    HW234299   6.851   9.202   7.971  0.0611  1.1629 -0.5226
40774SOL     OW34300  14.013   7.551  11.885  0.3989  0.1015  0.5539
40774SOL    HW134301  14.010   7.621  11.950  1.4745  0.0480  0.6831
40774SOL    HW234302  13.986   7.472  11.933  2.7289 -0.2509  1.4170
40775SOL     OW34303   7.280  11.605  10.902  0.7117  0.4182 -0.3039
40775SOL    HW134304   7.241  11.611  10.989  0.7841  0.2662 -0.2599
40775SOL    HW234305   7.369  11.640  10.913  0.0592  2.3546 -0.7642
40776SOL     OW34306   4.263   3.886   1.915  0.3531 -0.2897 -0.3121
40776SOL    HW134307   4.336   3.925   1.868  1.2386 -1.2346  0.2198
40776SOL    HW234308   4.298   3.802   1.948 -1.3303 -1.3428 -1.0767
40777SOL     OW34309   9.733   5.628   0.444 -0.2185  0.2857  0.4332
40777SOL    HW134310   9.788   5.693   0.489 -0.0299  0.0827  0.4943
40777SOL    HW234311   9.660   5.679   0.409  0.4976  0.6987 -0.4719
40778SOL     OW34312  11.908   2.819   9.809 -0.0775  0.4054  0.4052
40778SOL    HW134313  11.889   2.841   9.718 -0.0577  0.1743  0.3447
40778SOL    HW234314  12.001   2.797   9.809 -0.5453 -1.7089  0.0604
40779SOL     OW34315   7.931   8.439   6.673  0.2331  0.2554 -0.1998
40779SOL    HW134316   7.860   8.424   6.610  1.3380 -0.0869 -1.4089
40779SOL    HW234317   7.887   8.476   6.750 -1.3404 -0.5816 -0.6488
40780SOL     OW34318  13.527  10.480   8.175  0.1882  0.3551  0.2171
40780SOL    HW134319  13.516  10.400   8.124  1.5312 -0.4311  1.1133
40780SOL    HW234320  13.439  10.500   8.207 -0.3894 -0.0177 -1.0756
40781SOL     OW34321   5.076   9.209  11.932  0.1886  0.2368  0.5715
40781SOL    HW134322   5.171   9.220  11.922  0.4443  1.2545  3.1937
40781SOL    HW234323   5.038   9.285  11.888  0.6687  0.4900  0.5848
40782SOL     OW34324   5.183   8.055   9.817 -0.5419 -0.3388  0.0804
40782SOL    HW134325   5.255   8.118   9.808 -0.3217 -0.7224 -0.8311
40782SOL    HW234326   5.169   8.050   9.912 -0.4140  0.9171  0.1832
40783SOL     OW34327   3.157   9.546   5.258  0.1715  0.3275 -0.0204
40783SOL    HW134328   3.204   9.618   5.217  1.8137  0.3954  1.7806
40783SOL    HW234329   3.116   9.584   5.335 -0.5689 -0.2977 -0.0892
40784SOL     OW34330   6.167   6.716   1.441 -0.0369  0.5024 -0.0825
40784SOL    HW134331   6.105   6.702   1.369  0.1737  0.0683 -0.1839
40784SOL    HW234332   6.187   6.810   1.437  2.3633  0.0013 -2.6167
40785SOL     OW34333  11.644  10.297   1.807  0.2381  0.3938 -0.1377
40785SOL    HW134334  11.696  10.376   1.791 -1.3085  1.4266 -0.1884
40785SOL    HW234335  11.613  10.307   1.897 -0.3658  0.0947 -0.3085
40786SOL     OW34336   4.058   6.667   8.479 -0.0163  0.5035  0.1674
40786SOL    HW134337   4.111   6.615   8.419 -0.2768 -0.4269  0.7198
40786SOL    HW234338   4.005   6.603   8.526 -2.7314  1.4837 -1.3594
40787SOL     OW34339   1.299   8.248   5.266  0.3212 -0.0690 -0.3075
40787SOL    HW134340   1.315   8.188   5.338  0.9708 -1.7568 -1.7776
40787SOL    HW234341   1.383   8.253   5.219 -0.2446  0.4700 -1.3114
40788SOL     OW34342   5.136   7.957   5.339 -0.4218 -0.0931  0.3988
40788SOL    HW134343   5.135   8.011   5.260 -0.8161  0.3084  0.6699
40788SOL    HW234344   5.044   7.937   5.355 -0.1590 -4.1863 -1.9095
40789SOL     OW34345   5.018   6.529   0.888  0.1149 -0.9486  0.0061
40789SOL    HW134346   4.953   6.599   0.889 -0.1167 -1.1187 -1.2810
40789SOL    HW234347   4.996   6.474   0.962 -0.4247 -0.3075  0.3312
40790SOL     OW34348  10.584   7.254  10.231  0.0192 -0.2287  0.7106
40790SOL    HW134349  10.623   7.338  10.205 -1.3260 -0.0381 -0.8696
40790SOL    HW234350  10.503   7.279  10.276 -0.0071 -0.6684  0.9127
40791SOL     OW34351   5.842   7.680   4.817 -0.0334  0.3009  0.1744
40791SOL    HW134352   5.899   7.661   4.892 -0.3229 -0.7486  0.1378
40791SOL    HW234353   5.814   7.594   4.786  0.7925  0.6722 -1.7180
40792SOL     OW34354   5.871   2.437   6.397  0.2990  0.2294 -0.0756
40792SOL    HW134355   5.877   2.346   6.366 -0.5904 -0.4697  1.6358
40792SOL    HW234356   5.919   2.437   6.480  0.0149  1.2322  0.0970
40793SOL     OW34357   7.293   6.819  10.739 -0.1900  0.3378 -0.2291
40793SOL    HW134358   7.362   6.875  10.776 -0.6101  1.2230 -0.7474
40793SOL    HW234359   7.330   6.731  10.741  0.5813  0.6602  0.3930
40794SOL     OW34360   1.768   9.598   1.425  0.2126 -0.5550 -0.3926
40794SOL    HW134361   1.785   9.514   1.382 -0.2078 -1.4169  1.0354
40794SOL    HW234362   1.794   9.584   1.516 -3.7057 -0.5694  0.9268
40795SOL     OW34363   6.028   8.709  10.692  0.4151 -0.0398  0.0916
40795SOL    HW134364   5.961   8.653  10.652  2.1485  0.4012 -3.9027
40795SOL    HW234365   5.981   8.788  10.718 -1.3780 -1.6727  2.2245
40796SOL     OW34366  12.580   9.911  13.105  0.0294  0.7305 -0.2045
40796SOL    HW134367  12.616   9.952  13.026  0.6750  0.6171  0.0335
40796SOL    HW234368  12.509   9.855  13.072 -1.0390  2.2266 -0.5057
40797SOL     OW34369   3.978   9.898   1.728 -0.4269 -0.2064 -0.1259
40797SOL    HW134370   4.050   9.935   1.779  1.3639 -2.6935 -0.6865
40797SOL    HW234371   3.902   9.953   1.750  0.7763  0.2775  3.3688
40798SOL     OW34372   4.402  13.768   6.579  0.0643 -0.4086 -0.0099
40798SOL    HW134373   4.348  13.710   6.633 -0.3353  0.0063  0.0442
40798SOL    HW234374   4.344  13.841   6.557  0.5680 -0.0118 -0.0471
40799SOL     OW34375   1.575   6.522  10.242 -0.0304 -0.0276  0.2152
40799SOL    HW134376   1.581   6.568  10.158 -0.9159 -0.0525  0.1339
40799SOL    HW234377   1.639   6.567  10.298 -1.9130  2.3465  0.6130
40800SOL     OW34378   2.811   8.226   1.686  0.2212  0.8656 -0.2870
40800SOL    HW134379   2.894   8.182   1.664 -0.2969 -0.5301  0.4883
40800SOL    HW234380   2.829   8.270   1.769  0.7900  2.3227 -1.1435
40801SOL     OW34381   9.194   3.441  10.080 -0.5000 -0.1290  0.1699
40801SOL    HW134382   9.264   3.439  10.146  0.5012 -0.5066 -0.8690
40801SOL    HW234383   9.205   3.359  10.031  0.3638  1.2079 -2.0298
40802SOL     OW34384   0.687   0.466   2.898  0.1326 -0.4166  0.3462
40802SOL    HW134385   0.778   0.443   2.880  0.8717  2.6833 -0.4269
40802SOL    HW234386   0.690   0.510   2.983 -0.6279 -0.2279  0.2870
40803SOL     OW34387   5.959   9.041   9.796  0.1689  0.1220 -0.3226
40803SOL    HW134388   5.944   9.089   9.877  1.1965  1.0648 -0.6672
40803SOL    HW234389   5.876   8.997   9.778 -0.2848  0.4461  0.8656
40804SOL     OW34390   1.119   3.819   8.276  0.2077  0.0957 -0.0395
40804SOL    HW134391   1.087   3.777   8.356  0.7696  0.8611  0.5983
40804SOL    HW234392   1.153   3.746   8.223 -0.3702 -0.4422  0.3178
40805SOL     OW34393   0.901  10.656   8.341  0.6797  0.3199  0.4248
40805SOL    HW134394   0.910  10.726   8.277  0.5519 -0.5775 -0.6122
40805SOL    HW234395   0.838  10.689   8.405  2.4500  2.1192  1.3555
40806SOL     OW34396   6.469  12.427   8.894  0.4919  0.0608 -0.0394
40806SOL    HW134397   6.508  12.365   8.833  2.4213 -0.2032  1.3803
40806SOL    HW234398   6.468  12.510   8.846 -0.3104 -0.6202 -1.2617
40807SOL     OW34399   8.848   7.488   5.746  0.2064  0.7163 -0.3804
40807SOL    HW134400   8.782   7.552   5.773  2.7112  2.4741  2.0384
40807SOL    HW234401   8.844   7.420   5.812  1.3591  1.2929  0.3133
40808SOL     OW34402   6.594   7.240   4.967 -0.4893 -0.3242  0.4978
40808SOL    HW134403   6.526   7.261   4.903  1.7537  2.5967 -1.2063
40808SOL    HW234404   6.559   7.271   5.051 -2.1777 -1.1620  0.1412
40809SOL     OW34405  12.235   0.064   2.648 -0.0875 -0.0626  0.3096
40809SOL    HW134406  12.260  -0.017   2.603 -1.9610  0.5619 -2.0825
40809SOL    HW234407  12.298   0.129   2.616 -1.1965  0.3000 -1.2576
40810SOL     OW34408  12.853  13.279   3.801 -0.0266  0.4614 -0.0794
40810SOL    HW134409  12.826  13.219   3.871  1.3036  0.3321  0.3394
40810SOL    HW234410  12.920  13.334   3.841  0.4054  0.7063 -1.1187
40811SOL     OW34411   3.794   6.516   1.029 -0.3415 -0.5082 -0.3284
40811SOL    HW134412   3.831   6.561   0.953 -1.1979 -1.7533 -1.5271
40811SOL    HW234413   3.870   6.483   1.077  0.2123  0.3986 -0.5631
40812SOL     OW34414   8.502  11.540   7.039  0.1390 -0.2183  0.1166
40812SOL    HW134415   8.552  11.582   7.108 -0.4184  0.8328 -0.0966
40812SOL    HW234416   8.566  11.488   6.991  0.8476  0.3753  0.3986
40813SOL     OW34417   8.552   5.399  11.135  0.2975  0.5513  0.0355
40813SOL    HW134418   8.595   5.319  11.164 -1.0535 -0.9664 -1.8650
40813SOL    HW234419   8.553   5.393  11.039 -1.0321  2.1498 -0.1248
40814SOL     OW34420   8.973   9.944   8.260  0.5121  0.4551 -0.3472
40814SOL    HW134421   8.990   9.907   8.173 -0.8064  0.1365 -0.4954
40814SOL    HW234422   8.915   9.880   8.301 -1.5037  2.1437 -0.4550
40815SOL     OW34423   1.104   5.388  10.276 -0.1330  0.7510  0.4285
40815SOL    HW134424   1.030   5.421  10.327 -1.3836 -1.5864  0.2495
40815SOL    HW234425   1.064   5.336  10.207  1.6829 -0.3453  0.1437
40816SOL     OW34426  11.204   6.035   6.803 -0.0112 -0.3089 -0.1715
40816SOL    HW134427  11.191   5.965   6.739 -1.5324 -0.9407  0.7539
40816SOL    HW234428  11.294   6.063   6.790 -0.1747 -0.5690 -2.4074
40817SOL     OW34429   6.035   0.495   1.956  0.4261  0.0065 -0.0382
40817SOL    HW134430   6.051   0.498   1.861 -1.1265 -0.7300 -0.3476
40817SOL    HW234431   6.014   0.586   1.979  0.2949  0.0940 -0.4897
40818SOL     OW34432   2.340   1.138   7.084 -0.2935 -0.0644  0.4642
40818SOL    HW134433   2.435   1.133   7.093 -0.2166  1.7544  1.2016
40818SOL    HW234434   2.313   1.049   7.063  1.9566  0.0151 -3.8172
40819SOL     OW34435   8.607   0.971  14.018 -0.6186 -0.0577 -0.1912
40819SOL    HW134436   8.695   1.001  13.995 -1.1172  0.7431 -1.1369
40819SOL    HW234437   8.606   0.878  13.994  0.0073 -0.1002 -0.0554
40820SOL     OW34438  10.203  13.453   4.189  0.1149  0.1437 -0.1510
40820SOL    HW134439  10.197  13.399   4.110 -0.5813  0.6932 -0.4808
40820SOL    HW234440  10.211  13.543   4.156  1.6943  0.2377  0.3855
40821SOL     OW34441   4.603   0.884   5.103  0.5913  0.3814  0.1673
40821SOL    HW134442   4.665   0.833   5.051  0.7244 -0.2209  0.8861
40821SOL    HW234443   4.631   0.975   5.092  2.3874  0.0555  1.4073
40822SOL     OW34444  10.719  13.168  10.394 -0.5272 -0.5064 -0.5815
40822SOL    HW134445  10.746  13.184  10.485  1.2923  1.9421 -1.4462
40822SOL    HW234446  10.801  13.155  10.346 -1.4558 -1.7296 -1.9367
40823SOL     OW34447  11.366   4.908  10.804  0.2156 -0.0196 -0.3881
40823SOL    HW134448  11.291   4.959  10.773 -0.6644 -1.4677 -0.7525
40823SOL    HW234449  11.368   4.924  10.898 -0.3877  0.2459 -0.4128
40824SOL     OW34450   5.684   5.921  13.336 -0.3409 -0.4244 -0.1726
40824SOL    HW134451   5.632   5.859  13.284  0.0436  0.1247 -1.2476
40824SOL    HW234452   5.649   6.007  13.311 -0.2935 -0.1514  0.6609
40825SOL     OW34453   5.743   3.077   9.302 -0.3754 -0.0648 -0.1340
40825SOL    HW134454   5.812   3.142   9.318 -2.2400  1.9677  0.1487
40825SOL    HW234455   5.789   3.002   9.266  2.4938 -0.2616  3.4088
40826SOL     OW34456  10.947  11.961   3.920 -0.2792 -0.4064  0.0022
40826SOL    HW134457  10.938  11.902   3.995 -2.6548  0.1633  0.2515
40826SOL    HW234458  11.013  12.025   3.948  1.6525 -2.3176  0.0783
40827SOL     OW34459   4.204  10.672   7.875  0.2146 -0.5293  0.1376
40827SOL    HW134460   4.228  10.626   7.794  0.5635 -1.5893  0.8180
40827SOL    HW234461   4.121  10.715   7.854  0.2817 -0.8121 -0.7730
40828SOL     OW34462   3.360   5.312   8.563  0.1071  0.1690  0.5417
40828SOL    HW134463   3.412   5.319   8.643  0.6404  0.8595  0.1435
40828SOL    HW234464   3.425   5.311   8.492 -0.4357  1.5188  0.0028
40829SOL     OW34465   7.596   8.449   1.365 -0.8625 -0.2082 -0.2238
40829SOL    HW134466   7.660   8.510   1.402 -0.7359 -0.9010  0.7450
40829SOL    HW234467   7.558   8.496   1.291 -0.1714  0.7174 -0.0124
40830SOL     OW34468   5.705   5.084   9.284 -0.7764 -0.3534 -0.5097
40830SOL    HW134469   5.769   5.120   9.222  0.8012 -1.3275  0.4902
40830SOL    HW234470   5.755   5.066   9.363 -2.7534  0.8947  1.1425
40831SOL     OW34471   4.105  10.732  13.546  0.0344  0.6129  0.7728
40831SOL    HW134472   4.174  10.672  13.575  1.0791  1.5379  0.2639
40831SOL    HW234473   4.046  10.677  13.494  1.9985  0.3620 -1.3257
40832SOL     OW34474   6.768  13.127  12.694 -0.1890 -0.4237  0.2942
40832SOL    HW134475   6.802  13.119  12.783  2.2278  0.2811 -0.5008
40832SOL    HW234476   6.730  13.215  12.691  0.2726 -0.2135  0.4672
40833SOL     OW34477  13.004  10.044  12.625 -0.5182  0.1151 -0.1152
40833SOL    HW134478  13.084  10.003  12.656  1.2436  2.7044 -0.8256
40833SOL    HW234479  12.976   9.991  12.550 -0.5499 -1.8666  1.2581
40834SOL     OW34480  13.978   8.230   9.472 -0.2929 -0.4247  0.3032
40834SOL    HW134481  13.897   8.184   9.453 -0.4603 -0.5224  1.2228
40834SOL    HW234482  14.043   8.161   9.487 -0.2148 -0.3531  0.2972
40835SOL     OW34483  13.481   9.217   3.717  0.2784  0.6230  0.4015
40835SOL    HW134484  13.551   9.275   3.748  1.1327 -0.9102  1.5075
40835SOL    HW234485  13.425   9.205   3.794 -1.0555  1.5382 -0.3726
40836SOL     OW34486  13.656  10.050  12.087 -0.1936  0.4294 -0.3115
40836SOL    HW134487  13.673  10.128  12.036 -0.9556  1.5675  1.0905
40836SOL    HW234488  13.693  10.069  12.174 -1.2172 -0.3671  0.3321
40837SOL     OW34489   2.227   8.119   1.856 -0.6104 -0.0198  0.0409
40837SOL    HW134490   2.259   8.109   1.766  0.3769  0.9269  0.2642
40837SOL    HW234491   2.241   8.211   1.876 -1.1918 -0.1348  1.0414
40838SOL     OW34492   5.290  12.907  10.529 -0.3113 -0.1238 -0.3067
40838SOL    HW134493   5.381  12.877  10.523 -0.4268 -0.3731 -0.9441
40838SOL    HW234494   5.266  12.893  10.621  0.3912  0.2443 -0.0634
40839SOL     OW34495   3.064   7.452   1.613  0.2197  0.3366 -0.3386
40839SOL    HW134496   3.110   7.535   1.627 -2.3874  1.6619  1.1179
40839SOL    HW234497   2.974   7.477   1.593 -1.0614 -2.1275  1.7560
40840SOL     OW34498  13.289   3.406   6.879 -0.3624 -0.1911 -0.4821
40840SOL    HW134499  13.308   3.337   6.942 -1.9393 -0.0454  0.1833
40840SOL    HW234500  13.370   3.458   6.876 -0.3797  0.0665  1.7666
40841SOL     OW34501   7.698   5.180   3.111 -0.3763  0.1464 -0.4903
40841SOL    HW134502   7.613   5.185   3.068 -0.3466 -3.1089 -1.1377
40841SOL    HW234503   7.754   5.134   3.049  0.2522 -2.8421  2.0340
40842SOL     OW34504   3.013  10.252   6.801  0.6943  0.2176 -0.1177
40842SOL    HW134505   2.932  10.217   6.765  1.1050 -1.0292  0.1095
40842SOL    HW234506   2.985  10.307   6.874 -0.1379  2.7428 -2.2131
40843SOL     OW34507   8.575  11.436   8.719  0.3272  0.2279  0.7474
40843SOL    HW134508   8.670  11.445   8.719  0.4427 -0.4748 -1.2443
40843SOL    HW234509   8.546  11.487   8.643 -0.3221 -3.5490 -1.8231
40844SOL     OW34510  11.757   3.702   4.046  0.1894  0.3955 -0.1810
40844SOL    HW134511  11.673   3.749   4.051  0.7772  1.3909  0.9683
40844SOL    HW234512  11.742   3.622   4.096  0.2619  1.1473  1.0775
40845SOL     OW34513   9.227  12.972   0.381 -0.1314  0.4575 -0.0133
40845SOL    HW134514   9.316  12.943   0.362 -1.1480 -1.5289 -2.3576
40845SOL    HW234515   9.219  13.057   0.338  0.6934  0.8249  0.5286
40846SOL     OW34516   4.909   8.757   3.251 -0.5265 -0.1573  0.0971
40846SOL    HW134517   4.851   8.731   3.322 -1.3411  2.5467  0.5108
40846SOL    HW234518   4.987   8.791   3.294 -0.3690  0.0701 -0.3588
40847SOL     OW34519   4.703   5.909   0.814  0.4633  0.4652  0.1078
40847SOL    HW134520   4.626   5.966   0.805 -0.4344 -0.9585 -2.2519
40847SOL    HW234521   4.762   5.957   0.872 -0.8015  3.1615 -0.6868
40848SOL     OW34522   9.862   4.629   8.616 -0.0224  0.3117 -0.3600
40848SOL    HW134523   9.842   4.652   8.707 -1.0284 -0.0791 -0.4808
40848SOL    HW234524   9.783   4.652   8.567 -0.3186 -1.5126 -0.7958
40849SOL     OW34525   9.540   7.807  11.055 -0.3639 -0.2905 -0.2720
40849SOL    HW134526   9.541   7.741  11.124 -0.6375  2.2762  2.4195
40849SOL    HW234527   9.609   7.868  11.080 -2.4655  2.3586 -0.4503
40850SOL     OW34528  11.815   7.648   8.135  0.2562 -0.3816 -0.1648
40850SOL    HW134529  11.742   7.594   8.164 -0.0428 -0.6740 -1.4262
40850SOL    HW234530  11.775   7.715   8.079  0.7186  0.7018  0.7437
40851SOL     OW34531   8.556   6.562   0.677  0.2082  0.4720  0.1981
40851SOL    HW134532   8.480   6.609   0.644  0.7774  1.4749  0.2687
40851SOL    HW234533   8.520   6.499   0.739 -0.7331 -0.4064 -1.1745
40852SOL     OW34534   3.411  12.660   7.877  0.0094 -0.3318  0.1368
40852SOL    HW134535   3.496  12.621   7.858  0.1623 -1.3111  2.5398
40852SOL    HW234536   3.348  12.594   7.849  0.0941 -0.3828  0.0629
40853SOL     OW34537  13.153   0.217   7.357 -0.3653 -0.1593 -0.1982
40853SOL    HW134538  13.192   0.253   7.277  2.4720 -1.1057  0.6466
40853SOL    HW234539  13.107   0.290   7.397  1.9987  1.5936 -0.4542
40854SOL     OW34540  13.156   3.496   2.705 -0.1554 -0.0275  0.5213
40854SOL    HW134541  13.221   3.567   2.710 -0.6804  0.8762 -2.7295
40854SOL    HW234542  13.183   3.433   2.771  3.1743  1.0147  0.3242
40855SOL     OW34543   0.819  11.429   2.473  0.2078  0.4154 -0.2587
40855SOL    HW134544   0.818  11.445   2.567 -0.4873 -0.5236 -0.0939
40855SOL    HW234545   0.777  11.506   2.435 -3.0739 -0.8156  0.5173
40856SOL     OW34546   4.987  10.032   0.560  0.7148 -0.0018  0.0812
40856SOL    HW134547   5.049  10.065   0.625  1.9809  0.9492 -1.5260
40856SOL    HW234548   5.040  10.018   0.481 -0.4756 -2.5045 -0.3901
40857SOL     OW34549   1.697   5.287   4.540  0.0118 -0.8143  0.2823
40857SOL    HW134550   1.784   5.253   4.561  0.2950 -0.1535  0.2120
40857SOL    HW234551   1.698   5.300   4.445 -0.1825 -0.8604  0.2732
40858SOL     OW34552   6.049   2.253   7.899 -0.1022  0.0129  0.1322
40858SOL    HW134553   6.087   2.214   7.978  1.5923  0.8805 -0.2050
40858SOL    HW234554   6.103   2.219   7.828  0.2016  1.4498 -0.3510
40859SOL     OW34555   7.364   5.146   3.163 -0.5816 -0.0543  0.1814
40859SOL    HW134556   7.340   5.159   3.255 -5.2229 -3.0397 -0.2961
40859SOL    HW234557   7.399   5.056   3.160  1.0057  0.5525 -0.8393
40860SOL     OW34558   8.303   2.509  13.712 -0.5420 -0.1826 -0.6459
40860SOL    HW134559   8.218   2.553  13.705 -0.5964 -0.0272  0.7428
40860SOL    HW234560   8.311   2.460  13.630 -1.3198  0.9203 -1.4083
40861SOL     OW34561  12.903   5.718   0.368 -0.2331  0.1446  0.3497
40861SOL    HW134562  12.891   5.624   0.354 -1.6226  0.4616 -0.7555
40861SOL    HW234563  12.939   5.751   0.286 -2.9086  1.0700 -0.5689
40862SOL     OW34564   1.598  10.619   8.970 -0.2572 -0.0886  0.1566
40862SOL    HW134565   1.633  10.621   9.059 -1.3653 -1.0025  0.6354
40862SOL    HW234566   1.594  10.527   8.947  0.5621  0.1568 -1.0969
40863SOL     OW34567  12.097  10.553   5.362 -0.0518  0.1938  0.3476
40863SOL    HW134568  12.014  10.593   5.336 -0.1103 -0.6403 -0.8152
40863SOL    HW234569  12.084  10.528   5.453 -1.4858 -0.9374 -0.1421
40864SOL     OW34570   2.480   7.034   9.133 -0.0196  0.4201  0.2509
40864SOL    HW134571   2.456   6.964   9.193 -0.4267  1.7209  1.6838
40864SOL    HW234572   2.415   7.029   9.063  0.9328 -1.6123 -0.5688
40865SOL     OW34573  10.167   7.692  10.016  0.2362  0.3704 -0.0960
40865SOL    HW134574  10.212   7.774  10.036  2.6843 -0.4398 -1.7725
40865SOL    HW234575  10.082   7.719   9.983  0.1718  2.1044  1.3227
40866SOL     OW34576  13.169  13.564   9.872  0.1791  0.4178 -0.0577
40866SOL    HW134577  13.213  13.491   9.915  0.0609  0.1871 -0.3247
40866SOL    HW234578  13.076  13.540   9.871 -0.0911  1.2886  1.2810
40867SOL     OW34579   9.101   2.626  10.351 -0.4277 -0.0896 -0.2799
40867SOL    HW134580   9.082   2.612  10.444 -2.8849  0.1300 -0.6817
40867SOL    HW234581   9.048   2.560  10.305  0.9108 -0.3431 -1.5250
40868SOL     OW34582   7.624  13.167  12.102 -0.2343  0.8822 -0.3357
40868SOL    HW134583   7.704  13.165  12.050  0.2202  0.9682  0.3409
40868SOL    HW234584   7.643  13.228  12.174 -0.5452  0.1526  0.3920
40869SOL     OW34585   3.800   1.976   2.777 -0.3306 -0.7875 -0.8502
40869SOL    HW134586   3.801   2.051   2.836 -1.3504  0.8016 -2.7355
40869SOL    HW234587   3.748   2.005   2.702  0.6498 -2.8064 -2.4050
40870SOL     OW34588   0.948   3.655   6.816 -0.1663 -0.5762  0.0620
40870SOL    HW134589   0.867   3.605   6.806  0.0167 -0.5432 -2.4220
40870SOL    HW234590   0.919   3.743   6.838 -0.5967 -1.2280  2.3511
40871SOL     OW34591  11.022   2.700   9.775 -0.3351 -0.3537 -0.0978
40871SOL    HW134592  10.937   2.675   9.739 -0.3685  0.1088 -0.3402
40871SOL    HW234593  11.082   2.632   9.743 -0.2327  0.3899 -1.5673
40872SOL     OW34594   4.813   2.304   8.576  0.2220  0.0182 -0.2136
40872SOL    HW134595   4.842   2.307   8.485  1.1195  0.9252  0.0827
40872SOL    HW234596   4.725   2.342   8.575  0.2765  0.1366 -0.6809
40873SOL     OW34597   1.604   1.334   2.284 -0.0653  0.0441  0.1914
40873SOL    HW134598   1.522   1.382   2.293  0.7188  1.6273 -0.7014
40873SOL    HW234599   1.579   1.250   2.245 -1.2252  0.6519 -0.4244
40874SOL     OW34600   9.076   4.024   1.848  0.6145  0.3271  0.6562
40874SOL    HW134601   9.042   3.940   1.817 -0.2897  0.6809  0.6430
40874SOL    HW234602   9.107   4.069   1.769 -1.6730  1.2219  0.1815
40875SOL     OW34603  11.799   2.782   5.373 -0.5037  0.4854 -0.2612
40875SOL    HW134604  11.854   2.711   5.407 -0.8858  0.6387  0.7299
40875SOL    HW234605  11.860   2.838   5.325 -0.0293 -0.0196 -0.2585
40876SOL     OW34606   1.664  12.919   6.209 -0.3958  0.3205 -0.3258
40876SOL    HW134607   1.621  12.917   6.294  0.7410  0.3576  0.2593
40876SOL    HW234608   1.756  12.899   6.227 -0.4618 -1.5947 -1.7456
40877SOL     OW34609  11.430   5.376  12.433 -0.2103  0.0512  0.6002
40877SOL    HW134610  11.382   5.344  12.357  2.2533  0.5849 -1.2564
40877SOL    HW234611  11.361   5.396  12.497 -2.3567 -0.3756 -1.4522
40878SOL     OW34612   8.980  10.055  11.420  0.0539  0.5626 -0.2071
40878SOL    HW134613   8.964  10.056  11.515  0.7445 -0.8028 -0.0590
40878SOL    HW234614   8.901  10.092  11.382 -0.4865  0.5508  0.8632
40879SOL     OW34615   2.320  12.043   2.614 -0.7796  0.0009 -0.7472
40879SOL    HW134616   2.396  12.047   2.556 -0.8328  1.2913 -0.7636
40879SOL    HW234617   2.349  12.090   2.693 -1.4614  0.2622 -0.6505
40880SOL     OW34618   7.586   9.706   6.876 -0.2654 -0.3814 -0.0957
40880SOL    HW134619   7.552   9.732   6.962  1.2064 -0.4709  0.5417
40880SOL    HW234620   7.507   9.689   6.824 -1.2812  2.6234  0.2787
40881SOL     OW34621  12.557  10.041   6.026  0.2078 -0.0219  0.4171
40881SOL    HW134622  12.582   9.987   5.951 -2.1314 -0.2771 -0.2459
40881SOL    HW234623  12.507   9.983   6.082  3.0617 -0.2397  3.0213
40882SOL     OW34624   1.304  13.147   2.862 -0.6852 -0.8865  0.3389
40882SOL    HW134625   1.399  13.141   2.853 -0.7324 -1.6309  0.2807
40882SOL    HW234626   1.284  13.098   2.942 -1.0250 -0.7042  0.3704
40883SOL     OW34627  11.065  11.442   0.519  0.2615 -0.5573 -0.0708
40883SOL    HW134628  10.989  11.392   0.549  1.3315 -1.0681  1.9103
40883SOL    HW234629  11.049  11.454   0.425 -1.1522 -2.6390 -0.1666
40884SOL     OW34630   0.698   4.803   5.314 -0.1409 -0.2732  0.4823
40884SOL    HW134631   0.764   4.739   5.286  0.7883  0.4759  0.8992
40884SOL    HW234632   0.615   4.767   5.282  0.5982 -0.5987 -1.1920
40885SOL     OW34633   6.010   8.595  10.962 -0.4764  0.1462  0.3213
40885SOL    HW134634   6.015   8.641  10.878  0.5431 -0.8354 -0.1890
40885SOL    HW234635   6.023   8.503  10.939  1.6646  0.0302  1.6887
40886SOL     OW34636   9.173   0.740  10.582 -0.0533  0.0629 -0.1535
40886SOL    HW134637   9.173   0.644  10.590  0.0131  0.0718 -0.0506
40886SOL    HW234638   9.213   0.771  10.663  0.1902  0.1687 -0.3125
40887SOL     OW34639   4.105   9.594  10.856 -0.1394 -0.6260  0.1795
40887SOL    HW134640   4.141   9.567  10.941  1.6579  1.0163  0.0307
40887SOL    HW234641   4.179   9.588  10.796 -1.0081 -0.3665 -0.9461
40888SOL     OW34642   0.701   9.191   1.616  0.5158  0.2323  0.6068
40888SOL    HW134643   0.620   9.242   1.625 -0.3303 -0.8766 -0.4255
40888SOL    HW234644   0.767   9.243   1.663 -0.7047  1.3311  1.1804
40889SOL     OW34645   0.084   9.981  11.444  0.3809  0.3204 -0.3872
40889SOL    HW134646   0.035   9.899  11.439  0.7345  0.1241 -0.7908
40889SOL    HW234647   0.064  10.026  11.362 -0.1554  0.8390  0.0278
40890SOL     OW34648   0.117  11.805   2.693  0.3697 -0.1767  0.2741
40890SOL    HW134649   0.113  11.719   2.735 -0.1875 -0.9094 -1.2120
40890SOL    HW234650   0.095  11.789   2.601  2.0572  1.2781 -0.4539
40891SOL     OW34651   6.967   1.646   7.894 -0.0121  0.4606 -0.0838
40891SOL    HW134652   7.055   1.608   7.891  0.0397  0.4802  0.7960
40891SOL    HW234653   6.944   1.645   7.987 -1.2403 -0.2078 -0.3754
40892SOL     OW34654   6.148  12.914   8.406  0.3843 -0.1727  0.1136
40892SOL    HW134655   6.103  12.841   8.363 -1.1142 -0.1206  1.4913
40892SOL    HW234656   6.162  12.978   8.336 -2.1157 -0.0254 -0.3330
40893SOL     OW34657  12.233  10.656   4.047 -0.2181  0.1070 -0.0865
40893SOL    HW134658  12.151  10.696   4.020  0.1124  0.3970 -0.6762
40893SOL    HW234659  12.286  10.654   3.968  0.3258 -0.1310  0.2773
40894SOL     OW34660   7.274  13.195   1.578  0.5672 -0.2720 -0.2981
40894SOL    HW134661   7.344  13.257   1.599  0.3908  0.0429 -0.6358
40894SOL    HW234662   7.319  13.112   1.562  0.9110  0.0388 -0.9808
40895SOL     OW34663   3.590   8.420   4.739 -0.1562 -0.3129 -0.3053
40895SOL    HW134664   3.560   8.504   4.706 -0.7353 -1.1603 -2.0627
40895SOL    HW234665   3.509   8.369   4.750  0.3439 -1.6336 -2.2322
40896SOL     OW34666   4.936   8.765   2.347 -0.4495  0.3894  0.3262
40896SOL    HW134667   4.903   8.809   2.425  0.9708  0.7572  0.7307
40896SOL    HW234668   4.919   8.827   2.276 -3.5834 -0.7318 -0.0796
40897SOL     OW34669   2.907  10.100  11.839 -0.5995 -0.1766 -0.4285
40897SOL    HW134670   2.936  10.009  11.852 -0.0952 -0.0917 -0.9010
40897SOL    HW234671   2.825  10.106  11.887 -0.2906 -0.6923  0.1862
40898SOL     OW34672   7.853   6.032  12.376 -0.2315 -0.7547  0.4017
40898SOL    HW134673   7.855   6.099  12.308  1.3053 -1.1872 -0.0373
40898SOL    HW234674   7.813   6.074  12.451  1.5674  0.9949  0.4508
40899SOL     OW34675  12.209   4.889   3.436 -0.1308 -0.0357  0.5723
40899SOL    HW134676  12.151   4.845   3.498 -0.4109  0.6497  0.8026
40899SOL    HW234677  12.228   4.973   3.476  0.5255 -0.0047  0.2066
40900SOL     OW34678   2.575   3.343   8.356 -0.1083  0.4215  0.2295
40900SOL    HW134679   2.546   3.292   8.432 -0.2472 -1.0826 -0.7933
40900SOL    HW234680   2.494   3.360   8.307  0.2109 -0.5017 -0.6659
40901SOL     OW34681   4.484   3.666   1.752  0.5120 -0.1206 -0.4526
40901SOL    HW134682   4.418   3.611   1.794  0.7845 -0.3702 -0.3399
40901SOL    HW234683   4.545   3.603   1.713  0.4609  0.1086 -0.9045
40902SOL     OW34684   3.511   2.959   0.858  0.9448  0.6635 -0.2699
40902SOL    HW134685   3.488   3.044   0.895  1.4754  0.1078  1.4532
40902SOL    HW234686   3.492   2.897   0.928  2.9677 -0.3421 -0.5528
40903SOL     OW34687   6.066   8.346   4.064  0.4137 -0.0593  0.1712
40903SOL    HW134688   6.145   8.302   4.032  0.5816  0.5431 -0.2707
40903SOL    HW234689   6.057   8.316   4.154 -0.4339 -2.3049 -0.5767
40904SOL     OW34690  12.567   8.605   8.246 -0.2498  0.0601  0.2001
40904SOL    HW134691  12.522   8.608   8.161 -1.9080 -3.0243  0.8244
40904SOL    HW234692  12.659   8.615   8.224 -0.6981  0.2568 -1.8772
40905SOL     OW34693   2.213   5.907   7.461 -0.3549  0.3078  0.5797
40905SOL    HW134694   2.235   6.000   7.452  0.2874  0.1084  0.0657
40905SOL    HW234695   2.145   5.906   7.529 -1.3076  1.2851 -0.3092
40906SOL     OW34696   1.897  12.293   3.084  0.0325  0.9739  0.0554
40906SOL    HW134697   1.985  12.275   3.117  0.4894  3.0220  0.0882
40906SOL    HW234698   1.847  12.319   3.161 -1.0075 -1.3639  0.2438
40907SOL     OW34699  11.586   8.377   0.082 -0.1270  0.5515 -0.1465
40907SOL    HW134700  11.576   8.393   0.176  0.2955  0.0596 -0.0140
40907SOL    HW234701  11.646   8.445   0.053 -0.0400  0.5329 -0.0100
40908SOL     OW34702  13.993   5.854   9.617  0.5415  0.0231  0.0776
40908SOL    HW134703  13.954   5.781   9.570  0.7524 -0.4424  0.6245
40908SOL    HW234704  14.022   5.818   9.700  1.1294  0.6058  0.1421
40909SOL     OW34705   3.421  10.472   8.763  0.1976  0.2236 -0.4790
40909SOL    HW134706   3.457  10.546   8.714  0.0887 -0.1717 -1.1626
40909SOL    HW234707   3.456  10.395   8.720  0.2045 -0.1312  0.1511
40910SOL     OW34708   6.132  10.450   4.722  0.6301 -0.4752  0.1264
40910SOL    HW134709   6.183  10.454   4.803  1.5143 -0.3007 -0.4251
40910SOL    HW234710   6.192  10.411   4.659 -0.1269 -0.8071 -0.3963
40911SOL     OW34711  12.762   3.419   4.993 -0.1997  0.7299  0.6036
40911SOL    HW134712  12.809   3.441   5.073  1.0155  0.4992 -0.0237
40911SOL    HW234713  12.680   3.467   4.999 -0.1580  0.6457  2.0173
40912SOL     OW34714  12.832   7.333   6.496  0.5548  0.3465 -0.3081
40912SOL    HW134715  12.819   7.427   6.499 -0.3032  0.2373 -0.3452
40912SOL    HW234716  12.744   7.297   6.483  0.9708 -0.4177 -1.1005
40913SOL     OW34717   4.552  10.691   8.573  0.3816  0.5072  0.1223
40913SOL    HW134718   4.609  10.649   8.637  0.1320 -1.3835 -0.8386
40913SOL    HW234719   4.546  10.628   8.501 -2.9595  0.5598  0.2060
40914SOL     OW34720   9.081  10.480   6.713 -0.3736  0.1351  0.0279
40914SOL    HW134721   9.114  10.494   6.624  1.1865 -0.5511  0.4601
40914SOL    HW234722   9.103  10.561   6.759  1.1371 -0.4460  0.4045
40915SOL     OW34723   8.107  10.327  13.764 -0.6501  0.4672  0.3968
40915SOL    HW134724   8.165  10.309  13.690 -1.3939  0.0009 -0.0829
40915SOL    HW234725   8.088  10.421  13.756  1.3921  1.0498  1.5743
40916SOL     OW34726   8.934   2.100   7.060 -0.3526  0.1101 -0.2275
40916SOL    HW134727   8.931   2.031   6.994  0.0649  1.5194 -1.7708
40916SOL    HW234728   9.016   2.085   7.106 -0.6424 -0.8825 -0.0069
40917SOL     OW34729   1.619   4.389   8.220 -0.1038 -0.1972 -0.4589
40917SOL    HW134730   1.651   4.339   8.296 -0.3358 -0.5637 -0.5978
40917SOL    HW234731   1.568   4.325   8.170 -1.9693  0.6272  0.3056
40918SOL     OW34732   9.328   8.241   2.377 -0.1840 -0.3705 -0.1015
40918SOL    HW134733   9.282   8.177   2.430  0.3944 -1.3459 -0.7560
40918SOL    HW234734   9.299   8.326   2.412  0.4009 -0.9587  1.9739
40919SOL     OW34735   6.282   6.499  13.171 -0.2575 -0.2021  0.3815
40919SOL    HW134736   6.237   6.580  13.195 -0.4279 -0.4198  0.7994
40919SOL    HW234737   6.269   6.493  13.076  0.8308  0.9070  0.1309
40920SOL     OW34738   0.101   3.181   5.418 -0.7954 -0.3313 -0.1345
40920SOL    HW134739   0.031   3.226   5.465 -1.0537  0.3809 -1.1485
40920SOL    HW234740   0.136   3.248   5.359  0.0044 -0.9889 -0.4196
40921SOL     OW34741  12.830   8.040   7.725  0.1606  0.2911  0.1266
40921SOL    HW134742  12.867   7.989   7.653 -0.4440  0.2823 -0.1874
40921SOL    HW234743  12.903   8.090   7.759  0.9096 -1.2219  0.8272
40922SOL     OW34744  10.686   2.605   3.574  0.0248 -0.4905  0.3719
40922SOL    HW134745  10.615   2.607   3.510  0.4954  0.1646 -0.1490
40922SOL    HW234746  10.687   2.515   3.606  0.8318 -1.3028 -1.7597
40923SOL     OW34747   8.360  11.766  12.056  0.0064 -0.4708 -0.2509
40923SOL    HW134748   8.348  11.689  12.112 -0.1794  1.0486  1.9454
40923SOL    HW234749   8.449  11.795  12.076 -0.2512  0.3980 -0.3330
40924SOL     OW34750   5.498   5.412  11.591  0.3059  0.4692  0.6583
40924SOL    HW134751   5.535   5.481  11.536  0.3802  0.7592  1.0707
40924SOL    HW234752   5.520   5.438  11.680  0.7945 -0.3546  0.7884
40925SOL     OW34753  13.423  10.858   0.226  0.2528 -0.6039 -0.5200
40925SOL    HW134754  13.331  10.879   0.240 -0.5369 -3.5359 -0.7074
40925SOL    HW234755  13.468  10.894   0.303 -1.1286  0.3412 -0.1312
40926SOL     OW34756   2.693   8.358   4.757  0.0917  0.2951  0.4529
40926SOL    HW134757   2.653   8.427   4.810  0.5262 -0.5184  1.8914
40926SOL    HW234758   2.786   8.362   4.779  0.2215 -0.3171  0.0426
40927SOL     OW34759   0.952   9.992   0.180  0.2669  0.0328 -0.1707
40927SOL    HW134760   0.905   9.986   0.264 -0.9380  1.1659 -0.7291
40927SOL    HW234761   0.901   9.937   0.121 -0.0701  0.8619 -0.6600
40928SOL     OW34762   0.737  11.736   3.292  0.0329 -0.4381  0.2432
40928SOL    HW134763   0.696  11.730   3.378 -1.0732 -1.4417 -0.3217
40928SOL    HW234764   0.714  11.824   3.260  0.8854  0.1332  1.1620
40929SOL     OW34765  13.988   5.814   0.159  0.0717 -0.4469  0.0665
40929SOL    HW134766  13.898   5.838   0.181  0.0935 -0.9874  0.7697
40929SOL    HW234767  14.028   5.897   0.133 -1.1078 -0.4722 -2.0911
40930SOL     OW34768   1.253   0.880   9.662 -0.1754 -0.1374  0.4039
40930SOL    HW134769   1.318   0.905   9.727 -0.4596  5.4698 -0.9161
40930SOL    HW234770   1.301   0.876   9.580 -0.8283 -0.4182  0.0262
40931SOL     OW34771  10.513   2.843   8.319  0.2877 -0.0165  0.1138
40931SOL    HW134772  10.420   2.831   8.299  0.4249 -2.6379  0.6785
40931SOL    HW234773  10.549   2.882   8.240 -1.0935 -0.0128 -0.5553
40932SOL     OW34774  13.515  12.718  10.252 -0.2190  0.0374 -0.0868
40932SOL    HW134775  13.492  12.791  10.195 -1.5589  0.6250  1.1384
40932SOL    HW234776  13.450  12.650  10.231  0.9900 -0.8301 -1.1901
40933SOL     OW34777   2.728   5.576   2.460 -0.6370  0.4864  0.0689
40933SOL    HW134778   2.774   5.623   2.391  0.2361 -0.3868  0.0467
40933SOL    HW234779   2.715   5.642   2.529  0.8553  0.7035  0.1777
40934SOL     OW34780  12.333   8.685   4.071  0.0343  0.5062  0.0244
40934SOL    HW134781  12.394   8.701   3.999  0.8209 -0.9622  0.3286
40934SOL    HW234782  12.388   8.685   4.149 -0.4858 -0.0217  0.3976
40935SOL     OW34783   2.832  13.495   2.528 -0.1096 -0.5150 -0.7673
40935SOL    HW134784   2.819  13.443   2.449 -0.9880  2.6839 -2.9438
40935SOL    HW234785   2.924  13.520   2.525 -0.2605  0.0203 -1.0963
40936SOL     OW34786  12.767  12.083   1.075  0.2028  0.3698 -0.6302
40936SOL    HW134787  12.689  12.120   1.034  0.1760  0.3219 -0.6219
40936SOL    HW234788  12.736  12.005   1.121 -0.0810  1.3323  0.8953
40937SOL     OW34789   1.831   8.329   5.435 -0.4822  0.0804  0.8323
40937SOL    HW134790   1.905   8.381   5.465 -0.7318 -0.5052  2.5783
40937SOL    HW234791   1.818   8.355   5.344  1.0628  1.1036  0.8789
40938SOL     OW34792   0.046  10.956   3.609  0.0406  0.1026 -0.3154
40938SOL    HW134793   0.005  11.003   3.682  0.3737 -0.8265  0.4951
40938SOL    HW234794  -0.027  10.929   3.554 -0.2375  0.5643 -0.1846
40939SOL     OW34795  13.749   9.528  13.656 -0.1721 -0.1378  0.1026
40939SOL    HW134796  13.832   9.570  13.677  0.3069 -0.6303 -0.7463
40939SOL    HW234797  13.683   9.595  13.673  0.4512  0.4712  0.1702
40940SOL     OW34798  13.810  13.044   8.411 -0.1907 -0.0379 -0.5935
40940SOL    HW134799  13.803  12.965   8.465  1.3187 -0.3042 -0.7432
40940SOL    HW234800  13.896  13.080   8.432 -0.1737  0.6454 -1.7504
40941SOL     OW34801  11.698   2.014   0.878 -0.3595 -0.5210 -0.4404
40941SOL    HW134802  11.771   1.954   0.868  0.1643 -0.1078  0.7503
40941SOL    HW234803  11.702   2.069   0.800  0.9388 -0.1516 -0.1375
40942SOL     OW34804  13.808  11.199   2.165 -0.1349  0.1006 -0.0513
40942SOL    HW134805  13.861  11.248   2.228 -0.9658 -0.3901  1.0506
40942SOL    HW234806  13.748  11.148   2.218 -0.9585 -0.2261 -1.2511
40943SOL     OW34807   1.387   3.921   8.959  0.2162  0.2534 -0.4049
40943SOL    HW134808   1.440   3.885   9.031  0.0685 -0.1966 -0.5190
40943SOL    HW234809   1.298   3.921   8.993  0.2547  0.7815 -0.3026
40944SOL     OW34810   3.034   7.409   8.996 -0.3112 -0.2273  0.1344
40944SOL    HW134811   3.075   7.346   8.937 -0.3914 -0.8682  0.7562
40944SOL    HW234812   2.979   7.356   9.054  0.2868  0.3030  1.2278
40945SOL     OW34813  11.194  10.361   7.454  0.0001 -0.0862 -0.2561
40945SOL    HW134814  11.172  10.379   7.545  0.4437  0.5608 -0.2728
40945SOL    HW234815  11.246  10.281   7.457  1.7494  1.0306  0.2837
40946SOL     OW34816   4.415  12.932   9.230 -0.7298  0.3578 -0.3141
40946SOL    HW134817   4.380  12.844   9.224  1.0811 -0.6098  1.7880
40946SOL    HW234818   4.448  12.939   9.320  0.8540  2.5081 -0.9642
40947SOL     OW34819   6.066   1.692   7.721  0.2345 -0.0542 -0.1574
40947SOL    HW134820   6.022   1.618   7.763 -0.0612  1.1627  1.8137
40947SOL    HW234821   6.007   1.765   7.734  1.5705  1.0227  0.0818
40948SOL     OW34822   3.147  11.995   0.204  0.0101 -0.1858  0.3078
40948SOL    HW134823   3.127  11.915   0.155 -1.1025  0.3141 -0.0698
40948SOL    HW234824   3.240  12.010   0.188  0.4337 -1.8092  0.9952
40949SOL     OW34825   8.047   0.610   5.759  0.3305  0.4574 -0.1568
40949SOL    HW134826   8.074   0.694   5.723  0.0398  0.8502  0.5182
40949SOL    HW234827   8.009   0.562   5.686 -0.0337  1.1437 -0.4169
40950SOL     OW34828   7.848   5.162  10.538  0.0830  0.2353 -0.1500
40950SOL    HW134829   7.881   5.244  10.502 -0.0297  0.6134  0.5878
40950SOL    HW234830   7.926   5.113  10.564  0.1452  0.1425 -0.4977
40951SOL     OW34831   2.018  12.446  10.198 -0.2972 -0.2814 -0.4173
40951SOL    HW134832   2.078  12.373  10.212  1.1938  0.5900 -1.8788
40951SOL    HW234833   2.042  12.480  10.112 -1.3799  1.5486 -0.0427
40952SOL     OW34834   8.338   2.287   8.524 -0.0392 -0.2922 -0.3218
40952SOL    HW134835   8.284   2.249   8.455 -0.6281 -2.8836  1.4214
40952SOL    HW234836   8.363   2.213   8.579  0.6858  1.5754  2.0748
40953SOL     OW34837  11.235   7.474  10.093  0.7518  0.6387  0.4511
40953SOL    HW134838  11.319   7.473  10.140  1.7326 -0.0768 -1.2365
40953SOL    HW234839  11.251   7.529  10.017 -0.0038 -0.3479 -0.4420
40954SOL     OW34840   0.984   0.515  12.133  0.1549 -0.9329  0.3600
40954SOL    HW134841   0.980   0.596  12.082  0.7133 -0.1909  1.4593
40954SOL    HW234842   1.033   0.538  12.211  1.3764 -2.6507  0.1522
40955SOL     OW34843  13.372  11.309   6.860  0.5795 -0.1358  0.2008
40955SOL    HW134844  13.361  11.338   6.769  0.3679 -0.3772  0.1473
40955SOL    HW234845  13.466  11.307   6.874  0.6045  0.2858  0.1120
40956SOL     OW34846   7.155   3.703   0.765 -0.0310  0.3243 -0.0679
40956SOL    HW134847   7.246   3.698   0.793  0.6965  2.3013 -1.7921
40956SOL    HW234848   7.126   3.612   0.760  1.1583 -0.2704  2.4859
40957SOL     OW34849   4.390   0.226   7.958  0.0343  0.4025  0.6226
40957SOL    HW134850   4.363   0.276   7.881 -0.0540  1.2931  1.2107
40957SOL    HW234851   4.357   0.138   7.943 -1.3493  0.9424  0.3473
40958SOL     OW34852   3.869   8.080  13.062  0.1787  0.3887  0.0826
40958SOL    HW134853   3.920   7.999  13.075  0.0094  0.0755 -1.0843
40958SOL    HW234854   3.800   8.055  13.000  0.5444  1.5829 -0.8413
40959SOL     OW34855   0.337   3.380   8.669 -0.1793  0.0537  0.4855
40959SOL    HW134856   0.298   3.466   8.684  0.1564  0.9820 -3.0027
40959SOL    HW234857   0.291   3.346   8.592  1.6351 -1.6104  0.0592
40960SOL     OW34858  11.976   6.795   7.059  0.0670 -0.4314  0.0096
40960SOL    HW134859  11.992   6.725   7.121 -0.0850 -0.6226 -0.1644
40960SOL    HW234860  12.063   6.827   7.035  0.1066  0.4623  1.2353
40961SOL     OW34861   6.915   0.279  12.744  0.2072 -0.3401 -0.2046
40961SOL    HW134862   6.978   0.213  12.773  0.0836 -0.5053 -0.3134
40961SOL    HW234863   6.969   0.352  12.712  0.4061 -1.4652 -2.6486
40962SOL     OW34864   3.316  12.627   9.752 -0.3756 -0.1039 -0.4441
40962SOL    HW134865   3.376  12.681   9.699 -0.9248 -1.4371 -2.5525
40962SOL    HW234866   3.373  12.563   9.794 -0.0517  0.2969 -0.2565
40963SOL     OW34867  10.061   3.350   6.772  0.1715 -0.9877  0.0630
40963SOL    HW134868  10.086   3.338   6.863  0.2887 -3.2683 -0.2097
40963SOL    HW234869   9.969   3.377   6.775  0.1556 -1.1215  0.8539
40964SOL     OW34870   5.410   6.341  13.727  0.2429 -0.5066  0.1297
40964SOL    HW134871   5.442   6.267  13.674  0.6412 -0.2986  0.0777
40964SOL    HW234872   5.397   6.304  13.814 -1.7578 -1.2035 -0.4149
40965SOL     OW34873   7.813   7.250   4.914 -0.1043 -0.3618  0.3752
40965SOL    HW134874   7.776   7.169   4.878  2.5897 -1.2199 -0.7464
40965SOL    HW234875   7.839   7.301   4.838  3.3111 -1.0369  0.8861
40966SOL     OW34876   9.370   9.492  12.027 -0.2487  0.5269  0.2147
40966SOL    HW134877   9.299   9.553  12.043  0.8242  1.7234  0.5943
40966SOL    HW234878   9.419   9.530  11.954  0.5703  0.2637  0.6108
40967SOL     OW34879   1.351   2.547   3.633 -0.5088 -0.0483 -0.2472
40967SOL    HW134880   1.338   2.642   3.632 -1.4952 -0.1827 -0.2435
40967SOL    HW234881   1.433   2.534   3.584 -1.0385  0.7010 -1.3666
40968SOL     OW34882   0.137   6.738   0.327  0.0560  0.1347 -0.0597
40968SOL    HW134883   0.162   6.675   0.395  1.8609  1.0296  0.1734
40968SOL    HW234884   0.065   6.788   0.366  0.8094  0.3828  1.0808
40969SOL     OW34885   5.376   7.388  11.811  0.0203  0.7869  0.1555
40969SOL    HW134886   5.441   7.448  11.849 -0.7715  2.1843 -0.6125
40969SOL    HW234887   5.316   7.368  11.882  1.9448 -1.5829  1.2534
40970SOL     OW34888  12.418   1.923   3.804 -0.3230  0.1642 -0.1133
40970SOL    HW134889  12.445   1.897   3.892  0.3732  0.3022 -0.2774
40970SOL    HW234890  12.454   1.856   3.747  1.2685  1.2981 -0.5138
40971SOL     OW34891   3.714   2.209  12.042  0.2442  0.6151  0.0260
40971SOL    HW134892   3.723   2.296  12.083  1.3563  0.2725  0.5471
40971SOL    HW234893   3.724   2.148  12.115 -0.2921  0.0290 -0.3830
40972SOL     OW34894  13.006  10.483   6.421  0.1068 -0.2932 -0.2586
40972SOL    HW134895  12.947  10.417   6.458 -1.3477  0.1604 -1.6091
40972SOL    HW234896  13.023  10.451   6.332 -0.1791  0.8594 -0.7429
40973SOL     OW34897  12.240  13.286   2.282 -0.0932 -0.2117  0.0362
40973SOL    HW134898  12.180  13.227   2.328  0.1041 -0.3834  0.0795
40973SOL    HW234899  12.314  13.229   2.256  0.3065  0.1037  0.4702
40974SOL     OW34900   6.008   0.191  11.124  0.5410 -0.4256  0.4355
40974SOL    HW134901   6.087   0.245  11.128  0.8203 -0.7327 -0.5835
40974SOL    HW234902   5.952   0.236  11.060  0.2354 -0.6501  0.5469
40975SOL     OW34903  11.199   2.502  10.020 -0.3545  0.0896  0.0068
40975SOL    HW134904  11.266   2.557  10.061  1.1484 -1.3155 -0.4874
40975SOL    HW234905  11.201   2.526   9.928  2.7257 -2.9737 -0.9141
40976SOL     OW34906   0.489   4.518   4.472  0.4422  0.0838 -0.2333
40976SOL    HW134907   0.494   4.515   4.376  0.1996  1.6233 -0.3270
40976SOL    HW234908   0.398   4.496   4.492  0.5209 -0.3490 -0.3426
40977SOL     OW34909   8.051  10.319   2.875 -0.1074 -0.8887 -0.0047
40977SOL    HW134910   7.993  10.303   2.801  1.0119  0.4068 -1.2203
40977SOL    HW234911   8.012  10.393   2.921 -1.4126 -2.3917  1.4230
40978SOL     OW34912   9.601   1.105  13.962 -0.5555 -0.1740 -0.0516
40978SOL    HW134913   9.569   1.188  13.998 -1.5857 -1.2251  1.5724
40978SOL    HW234914   9.523   1.062  13.927 -0.7623 -1.9849  2.3628
40979SOL     OW34915   3.687  12.629  10.553  0.7913 -0.3115 -0.1100
40979SOL    HW134916   3.756  12.693  10.570 -0.5055  1.2409 -0.4434
40979SOL    HW234917   3.711  12.589  10.470  1.3727  0.0888 -0.1376
40980SOL     OW34918   9.103   0.908   0.000 -0.8764 -0.3987  0.1173
40980SOL    HW134919   9.169   0.976  -0.014 -3.4740  1.8476 -2.7909
40980SOL    HW234920   9.063   0.930   0.085 -0.0145  0.1480  0.3901
40981SOL     OW34921   8.422   4.564  11.518 -0.7899 -0.1079 -0.2430
40981SOL    HW134922   8.441   4.470  11.510 -1.4390 -0.1945 -0.8836
40981SOL    HW234923   8.419   4.579  11.613 -0.1004 -0.6041 -0.1306
40982SOL     OW34924   6.640   0.919   1.887  0.3051  0.2224  0.2636
40982SOL    HW134925   6.722   0.952   1.852  1.9600 -1.7602  1.9742
40982SOL    HW234926   6.654   0.916   1.981 -1.1318 -1.6106  0.4736
40983SOL     OW34927   3.469   9.874  13.488  0.0891  0.2119  0.5298
40983SOL    HW134928   3.437   9.915  13.408  0.7171 -1.1518 -0.4689
40983SOL    HW234929   3.452   9.781  13.476 -0.3649  0.0333  2.2715
40984SOL     OW34930  11.790   5.787   0.849 -0.4095  1.0073  0.0217
40984SOL    HW134931  11.811   5.775   0.756  1.0660  1.4493  0.2622
40984SOL    HW234932  11.756   5.876   0.855 -1.6288  0.5718 -0.2563
40985SOL     OW34933  11.688   0.590  12.271  0.3022 -0.1555  0.1244
40985SOL    HW134934  11.635   0.592  12.351  0.3871  1.6992  0.1864
40985SOL    HW234935  11.630   0.624  12.203  1.8648  4.1113  0.6051
40986SOL     OW34936   8.819   8.629   0.973  0.1970 -0.1496  0.2060
40986SOL    HW134937   8.905   8.658   1.005 -0.3532  0.7038  0.9588
40986SOL    HW234938   8.765   8.624   1.052 -0.6804  0.1418 -0.3697
40987SOL     OW34939  10.188  10.094   9.517  0.7339  0.1701 -0.1483
40987SOL    HW134940  10.177  10.000   9.531  0.6427  0.0091 -1.1876
40987SOL    HW234941  10.131  10.114   9.443  0.7197  1.0563  0.0904
40988SOL     OW34942  10.161   6.854   2.422 -0.0486 -0.1357  0.1357
40988SOL    HW134943  10.080   6.854   2.370 -1.1757  1.0523  1.7948
40988SOL    HW234944  10.209   6.931   2.390  2.2905 -2.7276 -3.3759
40989SOL     OW34945   0.244   7.896  11.251  0.2746 -0.6194  0.5032
40989SOL    HW134946   0.223   7.833  11.320 -1.0594  0.3211  0.9996
40989SOL    HW234947   0.327   7.935  11.278 -1.1921  1.2422  2.7798
40990SOL     OW34948   3.298   5.788   8.203  0.5544 -0.2652  1.2608
40990SOL    HW134949   3.270   5.755   8.289  2.9218 -2.2035  1.3853
40990SOL    HW234950   3.381   5.832   8.220 -0.1648  1.5552  0.2873
40991SOL     OW34951   8.523   6.645  11.428 -0.3657 -0.1987 -0.4545
40991SOL    HW134952   8.528   6.555  11.460 -0.1104  0.8185  2.6217
40991SOL    HW234953   8.581   6.646  11.351 -0.3839 -2.6239 -0.5848
40992SOL     OW34954   6.199   4.964  10.117 -0.1531 -0.3387  0.0423
40992SOL    HW134955   6.225   4.964  10.209 -1.6842  0.1550  0.5171
40992SOL    HW234956   6.200   4.871  10.092 -1.0325 -0.6346  0.9916
40993SOL     OW34957   5.308   4.181  12.495  0.0953  0.5265  0.3606
40993SOL    HW134958   5.237   4.243  12.479 -0.4828  0.1429  1.3366
40993SOL    HW234959   5.275   4.125  12.566 -0.6634 -2.7988 -2.3179
40994SOL     OW34960   6.429   4.502   2.370 -0.0141  0.0665  0.0077
40994SOL    HW134961   6.468   4.443   2.435 -0.5619  0.5309  0.7737
40994SOL    HW234962   6.439   4.456   2.287 -2.7532 -2.3783  0.8578
40995SOL     OW34963  11.109   5.698   7.498 -0.1546 -0.0368  0.2657
40995SOL    HW134964  11.188   5.691   7.445 -0.5682 -0.5631 -0.2866
40995SOL    HW234965  11.122   5.636   7.570  0.0994  0.1689  0.4025
40996SOL     OW34966  12.121   5.178  13.434 -0.1500  0.1975 -0.1274
40996SOL    HW134967  12.156   5.232  13.363 -2.7671  2.1207 -0.0890
40996SOL    HW234968  12.149   5.222  13.514 -1.7252  1.2251 -0.0917
40997SOL     OW34969   7.846   2.712   8.019 -0.1664 -0.4680  0.2471
40997SOL    HW134970   7.895   2.696   7.938  0.2678  0.7636  0.2409
40997SOL    HW234971   7.785   2.638   8.025 -0.8231 -0.1528 -1.6693
40998SOL     OW34972  11.408   8.231   6.877 -0.0318 -1.1086  0.2337
40998SOL    HW134973  11.458   8.187   6.807  1.9113  0.5761  0.4582
40998SOL    HW234974  11.368   8.306   6.834  0.8795 -0.2672  0.8183
40999SOL     OW34975   5.980  10.394   0.847  0.3195  0.2978  0.7649
40999SOL    HW134976   5.995  10.420   0.756  0.3390 -0.2990  0.5934
40999SOL    HW234977   6.066  10.398   0.888  0.4399 -0.1400  0.5660
41000SOL     OW34978   6.477  13.802   2.973  0.2516  0.3068  0.2692
41000SOL    HW134979   6.406  13.752   2.933  0.2668  0.5584 -0.0758
41000SOL    HW234980   6.470  13.890   2.935  0.6307  0.3843  0.3671
41001SOL     OW34981  14.002   9.207   8.240  0.0997  0.3351  0.6913
41001SOL    HW134982  13.948   9.213   8.160 -0.5202 -1.2578  0.9538
41001SOL    HW234983  13.940   9.222   8.311  0.5274  1.0690  0.9216
41002SOL     OW34984   7.211   3.824  10.098 -0.2083 -0.2732  0.3962
41002SOL    HW134985   7.231   3.836  10.191 -2.2395  2.5026  0.5968
41002SOL    HW234986   7.176   3.735  10.092 -0.4528 -0.3494  2.3587
41003SOL     OW34987   2.457  13.879  10.482  0.0443 -0.2967 -0.2187
41003SOL    HW134988   2.546  13.914  10.486  0.5384 -1.5941  2.3138
41003SOL    HW234989   2.401  13.957  10.473  1.3449  0.7300  0.2341
41004SOL     OW34990   7.586   6.073   1.098  0.1140 -0.3350  1.2696
41004SOL    HW134991   7.601   6.082   1.192  0.3797 -1.4092  1.3425
41004SOL    HW234992   7.607   5.982   1.079  0.3018 -0.0647  0.1155
41005SOL     OW34993   2.706  10.235   3.610  0.2864  0.3486 -0.3446
41005SOL    HW134994   2.642  10.285   3.662  0.2884  0.3819 -0.3732
41005SOL    HW234995   2.657  10.158   3.580  0.5675 -0.1871  0.5342
41006SOL     OW34996  11.660  12.414   7.509 -0.7981  0.0959  0.9823
41006SOL    HW134997  11.671  12.403   7.414  0.6301 -2.6902  1.3388
41006SOL    HW234998  11.668  12.508   7.524 -0.1879  0.5235 -1.5775
41007SOL     OW34999   5.473   0.024   1.917 -0.1206 -0.7562 -0.6928
41007SOL    HW135000   5.561   0.041   1.883 -0.6958  1.6326 -1.1875
41007SOL    HW235001   5.473  -0.069   1.939  2.4375 -0.8774 -0.9136
41008SOL     OW35002   4.190   1.539   1.277 -0.6448 -0.5799  0.1317
41008SOL    HW135003   4.176   1.632   1.258  0.8934 -0.0855  1.2493
41008SOL    HW235004   4.181   1.496   1.191 -0.2504  0.7431 -0.6026
41009SOL     OW35005   1.481  11.004   7.606 -0.2531  0.4764 -0.5527
41009SOL    HW135006   1.420  10.946   7.559 -0.8219  1.6775 -1.3373
41009SOL    HW235007   1.564  10.992   7.560 -0.0812 -0.5204 -0.0203
41010SOL     OW35008   9.341   8.915   7.311 -0.1806 -0.5029  0.7051
41010SOL    HW135009   9.322   8.826   7.282  0.8693 -0.9539  1.3256
41010SOL    HW235010   9.293   8.971   7.250  2.1446 -1.3489 -2.0990
41011SOL     OW35011   6.610  12.472   9.752 -0.8238 -0.1008 -0.5341
41011SOL    HW135012   6.530  12.450   9.704 -0.0089  1.3626 -2.7324
41011SOL    HW235013   6.617  12.567   9.744  0.2826  0.0033  1.0995
41012SOL     OW35014  10.479   0.405   8.584  0.3871 -0.4451  0.3594
41012SOL    HW135015  10.515   0.441   8.665  0.1716 -0.1621  0.3294
41012SOL    HW235016  10.416   0.338   8.613 -1.1754  1.0187  0.4905
41013SOL     OW35017  10.335  10.011   8.463 -0.4188 -0.5883 -0.4299
41013SOL    HW135018  10.245  10.045   8.466  0.1346  0.9491 -0.5026
41013SOL    HW235019  10.344   9.963   8.546 -1.1118 -0.2331 -0.1346
41014SOL     OW35020  12.761   8.558   9.119  0.0278 -0.1565 -0.0432
41014SOL    HW135021  12.815   8.564   9.198 -0.8049  1.8765  0.4540
41014SOL    HW235022  12.781   8.472   9.082  0.7676 -1.0008  2.1431
41015SOL     OW35023   3.152   8.265   1.020 -0.0584 -0.1925  0.5918
41015SOL    HW135024   3.212   8.213   0.967 -0.1749 -0.8518  1.1021
41015SOL    HW235025   3.185   8.258   1.109 -0.8405 -0.4992  0.8665
41016SOL     OW35026   6.885   0.617   0.836 -0.2146 -0.2866  0.1366
41016SOL    HW135027   6.842   0.532   0.829 -1.8562  0.5598 -0.8417
41016SOL    HW235028   6.965   0.600   0.885 -1.2001 -2.1269  1.2059
41017SOL     OW35029  13.604  11.277  14.029 -0.0286  0.2392 -0.1428
41017SOL    HW135030  13.535  11.213  14.048 -0.3254  0.6495  0.1827
41017SOL    HW235031  13.561  11.344  13.977  0.2688  0.2097 -0.4338
41018SOL     OW35032  10.528   5.135   1.697 -0.2396  0.2810  0.7630
41018SOL    HW135033  10.598   5.079   1.729  0.2739  0.0918 -0.6224
41018SOL    HW235034  10.505   5.098   1.611 -0.8133  1.3915  0.4133
41019SOL     OW35035  11.322  11.479   8.028 -0.4578  0.2844 -0.0226
41019SOL    HW135036  11.320  11.390   8.064 -0.3809  0.0391 -0.6131
41019SOL    HW235037  11.361  11.532   8.098  1.4217 -0.5127 -0.4084
41020SOL     OW35038  11.110   6.301   4.887 -0.2484  0.1026 -1.1616
41020SOL    HW135039  11.085   6.392   4.903 -0.6800 -0.2775  0.4221
41020SOL    HW235040  11.203   6.306   4.864 -0.1118  0.8816 -0.4780
41021SOL     OW35041  12.410   3.496   5.601  0.0196 -0.3616  0.0982
41021SOL    HW135042  12.398   3.580   5.556 -0.4791  0.1523  1.1466
41021SOL    HW235043  12.486   3.456   5.558  1.2421  1.3342  0.6060
41022SOL     OW35044   2.662   8.537   9.694  0.3388  0.0394 -0.2516
41022SOL    HW135045   2.641   8.453   9.653 -1.3400  1.1998 -1.9268
41022SOL    HW235046   2.577   8.576   9.713  1.0892  0.8273  1.7595
41023SOL     OW35047   4.399   3.801  11.078 -0.1447  0.1144 -0.3946
41023SOL    HW135048   4.454   3.878  11.068  0.4324 -0.4354 -1.6700
41023SOL    HW235049   4.392   3.765  10.989 -0.6234 -1.1472  0.1332
41024SOL     OW35050   7.454   5.881   4.332 -0.1977 -0.2400  0.0760
41024SOL    HW135051   7.541   5.922   4.338  0.1716 -0.5150 -2.3590
41024SOL    HW235052   7.471   5.788   4.342 -0.0297 -0.3834 -1.2869
41025SOL     OW35053   3.912  11.039  10.405  0.3088  0.5909 -0.4475
41025SOL    HW135054   4.001  11.006  10.411 -0.3492 -1.1227  0.7047
41025SOL    HW235055   3.871  10.986  10.336 -1.0459 -1.9354  2.0927
41026SOL     OW35056   2.330   8.158  13.097  0.7878 -0.2574  0.6849
41026SOL    HW135057   2.352   8.250  13.086 -1.3741  0.2162 -0.2409
41026SOL    HW235058   2.284   8.155  13.181 -0.2978 -0.2198  0.1106
41027SOL     OW35059  11.674   8.655   6.487 -0.1537 -0.0422  0.2427
41027SOL    HW135060  11.753   8.621   6.443 -0.4964  0.0102 -0.4249
41027SOL    HW235061  11.689   8.749   6.493  0.3093 -0.1649  1.0955
41028SOL     OW35062   7.677   0.574   2.985 -0.2183 -0.0300 -0.8664
41028SOL    HW135063   7.734   0.498   2.975  0.3955  0.3019 -0.0247
41028SOL    HW235064   7.633   0.560   3.068  1.4733  1.5069  0.3725
41029SOL     OW35065   5.620  11.483  13.432 -0.1365 -0.1958 -0.1147
41029SOL    HW135066   5.536  11.485  13.479  0.3923 -0.6999  0.8875
41029SOL    HW235067   5.685  11.502  13.500  0.5546  0.3595 -0.9174
41030SOL     OW35068  13.106   2.146   9.750  0.4191  0.4791 -0.4420
41030SOL    HW135069  13.184   2.117   9.703  1.1301  1.8107 -0.1190
41030SOL    HW235070  13.033   2.108   9.701  1.2292 -0.2058 -1.1520
41031SOL     OW35071  10.055   7.280   1.429 -0.0466  0.1712  0.2600
41031SOL    HW135072   9.991   7.339   1.469  2.1744  1.5281  2.0535
41031SOL    HW235073  10.119   7.339   1.389 -0.4777 -1.1493 -2.6081
41032SOL     OW35074   6.845   1.514  11.310  0.5382 -0.0235  0.7535
41032SOL    HW135075   6.802   1.537  11.392  0.3243  1.2668  0.2963
41032SOL    HW235076   6.888   1.595  11.282  0.9032 -0.5466 -0.2322
41033SOL     OW35077   5.520  12.492   4.314 -0.8925  0.1417  0.3249
41033SOL    HW135078   5.554  12.564   4.366 -1.2515  0.2224  0.4524
41033SOL    HW235079   5.476  12.435   4.378 -0.0277 -0.5493  0.3296
41034SOL     OW35080  11.942  10.384   7.257  0.2273 -0.4581  0.0443
41034SOL    HW135081  11.868  10.395   7.197  0.3524  0.4789  0.0443
41034SOL    HW235082  12.019  10.384   7.200  0.3605  0.6269  0.1997
41035SOL     OW35083   9.323  10.936   9.584  0.0857 -0.1806 -0.4444
41035SOL    HW135084   9.396  10.954   9.525 -1.0543 -0.7126 -2.0718
41035SOL    HW235085   9.338  10.846   9.614  1.4053  0.5373  1.2550
41036SOL     OW35086   1.578   5.357   6.217 -0.0673 -0.0914 -0.0621
41036SOL    HW135087   1.618   5.443   6.204  0.7795 -0.0969  2.1398
41036SOL    HW235088   1.635   5.296   6.171 -0.2617  0.4180 -1.0061
41037SOL     OW35089   4.527  11.206   7.098  0.8068  0.7241  0.5707
41037SOL    HW135090   4.559  11.243   7.016  0.7522  0.9469  0.6487
41037SOL    HW235091   4.520  11.281   7.157 -1.3694  0.9701  0.0845
41038SOL     OW35092  10.298   7.952  12.499 -0.0417 -0.5310  0.0311
41038SOL    HW135093  10.229   7.934  12.563  0.3053 -0.4247  0.4443
41038SOL    HW235094  10.288   8.045  12.480 -0.7390 -0.7627 -0.7881
41039SOL     OW35095  13.420   6.494   4.968  0.0362 -0.2659 -0.4525
41039SOL    HW135096  13.356   6.490   4.896 -0.3413 -0.5330 -0.1066
41039SOL    HW235097  13.476   6.418   4.953 -0.3032 -0.5638 -0.2260
41040SOL     OW35098   6.763   7.854   9.126 -0.3335 -0.1265  0.2281
41040SOL    HW135099   6.749   7.862   9.220 -3.3584 -0.0180 -0.1466
41040SOL    HW235100   6.755   7.760   9.108  3.0602 -0.5830  0.3303
41041SOL     OW35101   0.007   4.935   5.642  0.0605  0.1292 -0.4708
41041SOL    HW135102  -0.040   4.959   5.723 -0.0050 -1.0185 -0.1473
41041SOL    HW235103  -0.062   4.903   5.584  0.4569 -2.3818  0.3124
41042SOL     OW35104   4.389   5.940   6.054  0.3617  0.2427  0.0853
41042SOL    HW135105   4.478   5.923   6.023  0.5105 -0.9789  1.1159
41042SOL    HW235106   4.333   5.899   5.988  0.5061  1.6015 -0.9285
41043SOL     OW35107   9.305   4.803   4.223  0.9871 -0.0710 -0.3608
41043SOL    HW135108   9.282   4.896   4.229  0.9007  0.1295 -2.8358
41043SOL    HW235109   9.399   4.803   4.204  1.2644 -0.5737  0.9166
41044SOL     OW35110   3.841   4.962   9.136 -0.0023  0.7772  0.7052
41044SOL    HW135111   3.787   5.024   9.087 -0.7261 -0.6571 -0.3910
41044SOL    HW235112   3.915   5.014   9.169 -0.8484  2.2962  0.2697
41045SOL     OW35113   2.799  10.099   8.032  0.3261  0.0158  0.3009
41045SOL    HW135114   2.713  10.068   8.006 -0.0229 -1.1346  2.5324
41045SOL    HW235115   2.786  10.193   8.047 -1.1671 -0.4560  2.5589
41046SOL     OW35116   0.434  12.834   0.841  0.3066  0.0097 -0.1979
41046SOL    HW135117   0.454  12.760   0.783 -0.1632 -1.8348  1.8650
41046SOL    HW235118   0.496  12.826   0.913 -0.6211  0.8503  0.7204
41047SOL     OW35119   1.743   8.799   2.412 -0.3878  0.0163 -0.1610
41047SOL    HW135120   1.821   8.744   2.422  0.2172  0.9783  0.5495
41047SOL    HW235121   1.714   8.782   2.322 -0.0239 -1.1924 -0.0757
41048SOL     OW35122  13.484  10.166   9.398 -0.1573 -0.5116 -0.2085
41048SOL    HW135123  13.437  10.232   9.449  1.8363  1.6592 -0.9617
41048SOL    HW235124  13.566  10.154   9.444  1.3689  0.9340 -2.3325
41049SOL     OW35125   4.126  13.539  11.269 -0.4991  0.2540 -0.0035
41049SOL    HW135126   4.133  13.444  11.263 -1.2084  0.2247 -0.5003
41049SOL    HW235127   4.044  13.560  11.224  1.3228  1.4344 -3.0491
41050SOL     OW35128   8.969  12.857  12.773  0.8558 -0.5899 -0.1220
41050SOL    HW135129   8.919  12.777  12.788  0.1781  0.0329  1.2379
41050SOL    HW235130   8.925  12.922  12.828  0.3253  1.1500 -2.4386
41051SOL     OW35131   0.933   3.412   4.760 -0.1050  0.3022  0.5431
41051SOL    HW135132   0.904   3.339   4.815 -1.3768  0.4208  0.0777
41051SOL    HW235133   0.858   3.472   4.759  0.5344  1.1117  0.0637
41052SOL     OW35134   6.688   9.902  11.688 -0.0719  0.1695 -0.8210
41052SOL    HW135135   6.604   9.903  11.734 -0.0844 -1.9536 -0.7149
41052SOL    HW235136   6.750   9.869  11.753  0.7112  1.0127 -1.1243
41053SOL     OW35137  12.857  10.814  13.083 -0.0449  0.3443 -0.0079
41053SOL    HW135138  12.772  10.797  13.043 -0.0334  0.7190 -0.2030
41053SOL    HW235139  12.860  10.910  13.091  0.3614  0.3315 -0.0113
41054SOL     OW35140   5.191  11.332   5.466 -0.7639  0.4228  0.2577
41054SOL    HW135141   5.174  11.238   5.461 -1.2178  0.3325  2.4139
41054SOL    HW235142   5.281  11.338   5.497 -0.9940  0.6580  0.9057
41055SOL     OW35143   2.006   4.335   5.731  0.1860 -0.3150 -0.3924
41055SOL    HW135144   2.001   4.285   5.649  1.2589 -0.9070 -0.1047
41055SOL    HW235145   2.086   4.306   5.773 -0.2281  0.1591  0.7754
41056SOL     OW35146  13.690  12.247   2.921  0.2337 -0.2368  0.1432
41056SOL    HW135147  13.660  12.322   2.972  1.5000  3.3628 -3.9068
41056SOL    HW235148  13.623  12.180   2.936 -2.5566  2.6569  1.7977
41057SOL     OW35149   4.556   5.576  10.052 -0.3901 -0.0117  0.9397
41057SOL    HW135150   4.602   5.584   9.968 -1.2553  0.6204  0.5090
41057SOL    HW235151   4.547   5.481  10.065  0.0860 -0.1228  0.5138
41058SOL     OW35152   8.413  13.198  12.557  0.2996 -0.3172 -0.0354
41058SOL    HW135153   8.458  13.238  12.631 -1.2121 -0.0249  0.7766
41058SOL    HW235154   8.393  13.109  12.587  0.4405 -0.4793 -0.4234
41059SOL     OW35155   9.805   6.641   4.756 -0.4668  0.4306 -0.2766
41059SOL    HW135156   9.892   6.606   4.775 -1.5932 -1.7580  1.2445
41059SOL    HW235157   9.822   6.721   4.705  2.3853 -0.1006 -0.3217
41060SOL     OW35158   2.977  12.209  13.084 -0.1632 -0.2169  0.1731
41060SOL    HW135159   3.006  12.173  13.168 -0.2379  0.4130  0.4755
41060SOL    HW235160   2.948  12.133  13.034  1.0210 -0.7408  0.2558
41061SOL     OW35161   3.659  12.555   7.790 -0.2683  0.5277 -0.2991
41061SOL    HW135162   3.682  12.468   7.757 -2.3457 -0.1575 -0.0964
41061SOL    HW235163   3.742  12.602   7.795  1.1416 -1.8886  0.9179
41062SOL     OW35164   3.235  12.062   4.205 -0.2062  0.5166  0.0182
41062SOL    HW135165   3.201  12.139   4.160  1.0774  1.6032  0.8347
41062SOL    HW235166   3.264  12.004   4.135 -0.9857  0.8480 -0.6049
41063SOL     OW35167   5.657  10.567   6.647  0.3703  0.1229 -0.3259
41063SOL    HW135168   5.740  10.536   6.610  0.3476  0.0201 -0.2920
41063SOL    HW235169   5.683  10.630   6.714  0.4679 -0.7385  0.4678
41064SOL     OW35170  13.038  10.989  10.123 -0.0920 -0.5248 -0.4109
41064SOL    HW135171  13.084  11.013  10.043 -0.0804 -0.4620 -0.3854
41064SOL    HW235172  13.084  10.912  10.156  0.0469 -0.4101 -0.3397
41065SOL     OW35173   7.381   3.866   6.070 -0.1655 -0.1582 -0.0050
41065SOL    HW135174   7.400   3.927   6.142  1.5744  1.1583 -1.4740
41065SOL    HW235175   7.286   3.858   6.070 -0.2457  0.1561  2.1348
41066SOL     OW35176  13.783   2.565   5.480 -0.1413 -0.1043 -0.3706
41066SOL    HW135177  13.712   2.580   5.419 -0.5365  1.2549  0.3665
41066SOL    HW235178  13.822   2.652   5.493  0.4538 -0.5051  0.6721
41067SOL     OW35179   1.133   0.890   2.426 -0.0946  0.1628 -0.1071
41067SOL    HW135180   1.228   0.889   2.420 -0.1139 -0.2895 -0.3918
41067SOL    HW235181   1.109   0.981   2.409  0.2708  0.2288 -0.2800
41068SOL     OW35182  10.231   5.588   7.630 -0.4158  0.3277 -0.5939
41068SOL    HW135183  10.198   5.499   7.645 -1.5822  0.9739  1.0292
41068SOL    HW235184  10.313   5.592   7.680  0.0833 -0.0609 -1.3558
41069SOL     OW35185  13.746  13.487   0.758  0.3643  0.0404 -0.1440
41069SOL    HW135186  13.674  13.486   0.696 -0.2082 -0.4336  0.5037
41069SOL    HW235187  13.751  13.396   0.790  1.8046 -0.1363 -0.8082
41070SOL     OW35188   9.207   0.929  12.092  0.5230 -0.0182 -0.0400
41070SOL    HW135189   9.241   0.995  12.032 -0.9338  0.9779  0.1794
41070SOL    HW235190   9.112   0.940  12.089  0.2247 -2.1993 -0.0795
41071SOL     OW35191   1.891   5.815  11.634  0.1313 -0.4172  0.1879
41071SOL    HW135192   1.855   5.732  11.667  0.6674  0.2795  2.6736
41071SOL    HW235193   1.829   5.882  11.663  1.6741  0.4411  1.6488
41072SOL     OW35194  12.178   3.793  10.730 -0.4527  0.3378  0.0502
41072SOL    HW135195  12.230   3.871  10.709  0.6390 -0.1377  0.9132
41072SOL    HW235196  12.232   3.744  10.792 -1.1999 -1.0221 -0.3332
41073SOL     OW35197   0.412   2.553   8.536 -0.4751 -0.1547 -0.1622
41073SOL    HW135198   0.395   2.462   8.561 -0.7693 -0.5586 -1.7586
41073SOL    HW235199   0.505   2.565   8.554 -0.0989 -1.2356 -1.2647
41074SOL     OW35200   7.530  11.349   3.565  0.0350  0.6316 -0.4837
41074SOL    HW135201   7.494  11.427   3.523 -0.5740 -0.5514 -2.3146
41074SOL    HW235202   7.619  11.342   3.531  0.6163  1.2958  0.8298
41075SOL     OW35203   4.801   7.741   7.214  0.6251 -0.7399  0.2277
41075SOL    HW135204   4.731   7.806   7.216  1.9957  0.7622  0.8016
41075SOL    HW235205   4.869   7.779   7.158  1.5846 -1.5377  0.8137
41076SOL     OW35206  12.409   9.647   2.640  0.0275 -1.0835  0.1182
41076SOL    HW135207  12.420   9.555   2.665  0.1389 -1.2447 -0.5112
41076SOL    HW235208  12.435   9.650   2.549  1.4441 -0.1245  0.5302
41077SOL     OW35209  11.563   4.348   5.423 -0.1502  0.7355  0.4430
41077SOL    HW135210  11.572   4.266   5.471 -1.0833  0.0878 -0.4568
41077SOL    HW235211  11.498   4.398   5.472  0.9575  1.3048  1.4210
41078SOL     OW35212   2.241   5.338   9.993  0.5453 -0.0740  0.0596
41078SOL    HW135213   2.190   5.258  10.002  0.3587 -0.0425 -0.6908
41078SOL    HW235214   2.211   5.394  10.065  1.3163 -1.0014  1.1360
41079SOL     OW35215   6.922  11.437  12.714  0.8917  0.2027  0.3522
41079SOL    HW135216   6.970  11.402  12.639 -0.1310 -0.1307 -0.1778
41079SOL    HW235217   6.911  11.530  12.694  0.0920  0.0001 -0.2428
41080SOL     OW35218   8.645   6.689   5.652 -0.2146  0.3163  0.2889
41080SOL    HW135219   8.624   6.715   5.742 -1.2199 -1.1801  0.5107
41080SOL    HW235220   8.574   6.632   5.626 -0.5070  1.5650 -1.8912
41081SOL     OW35221   2.542   7.090   0.938 -0.0456  0.1105 -0.4712
41081SOL    HW135222   2.587   7.169   0.969 -1.6027  0.1273  2.0636
41081SOL    HW235223   2.609   7.021   0.942  0.7703  0.8689 -0.6670
41082SOL     OW35224   7.837   6.496  11.918 -0.1195 -0.4355  0.1877
41082SOL    HW135225   7.892   6.536  11.985  0.1737 -1.0730  0.3298
41082SOL    HW235226   7.860   6.404  11.919 -0.1881 -0.4728 -0.7247
41083SOL     OW35227   9.638  13.338  13.247 -0.0480 -0.4926  0.5513
41083SOL    HW135228   9.630  13.409  13.311  0.5130  1.2616 -1.2147
41083SOL    HW235229   9.547  13.315  13.226 -0.5140  2.8899 -2.0679
41084SOL     OW35230   1.008   3.867   8.555  0.0885 -0.1280  0.3508
41084SOL    HW135231   0.931   3.923   8.568  0.5770  0.8356 -0.7387
41084SOL    HW235232   0.976   3.794   8.503 -0.2824 -0.2212  0.7041
41085SOL     OW35233   3.351  13.406   1.807  0.2686 -0.0843  0.8406
41085SOL    HW135234   3.407  13.476   1.773  2.8229 -1.8883  1.0292
41085SOL    HW235235   3.399  13.325   1.787 -3.0533 -1.9491 -0.4018
41086SOL     OW35236  11.761  12.629   2.132 -0.2264  0.1572  0.0327
41086SOL    HW135237  11.787  12.716   2.165  1.6969  0.4060 -1.8910
41086SOL    HW235238  11.844  12.585   2.115 -1.1698 -2.0939  0.8746
41087SOL     OW35239  11.771   6.615  10.434 -0.7346  0.2753  0.2144
41087SOL    HW135240  11.700   6.679  10.430 -0.4893  0.8194  2.9914
41087SOL    HW235241  11.727   6.530  10.421 -1.7662  0.6803  0.9108
41088SOL     OW35242   0.067   9.996  13.427 -0.1398 -0.0220  0.2606
41088SOL    HW135243   0.078  10.053  13.351 -0.9606 -0.4466 -0.1896
41088SOL    HW235244   0.098  10.048  13.501  1.7109  0.0259 -0.4829
41089SOL     OW35245   5.434  12.146   4.621  0.5050 -0.7285  0.3158
41089SOL    HW135246   5.510  12.151   4.564 -0.3642 -0.3887 -0.8446
41089SOL    HW235247   5.468  12.111   4.704  1.9878 -0.1523 -0.0261
41090SOL     OW35248   5.908   4.403  10.833  0.0864  0.5542 -0.1086
41090SOL    HW135249   5.883   4.446  10.914 -1.5805  1.8274 -1.2459
41090SOL    HW235250   5.983   4.348  10.858 -1.6737 -0.8040  2.7370
41091SOL     OW35251   5.179   4.666   3.256 -0.0317 -0.1537  0.4209
41091SOL    HW135252   5.138   4.746   3.224 -3.1734 -2.4492 -1.9692
41091SOL    HW235253   5.159   4.665   3.350 -0.9992  1.2657  0.2710
41092SOL     OW35254   5.466   5.081  11.499  0.0177  0.3297 -0.1075
41092SOL    HW135255   5.474   5.138  11.575 -0.5170  0.8858 -0.4634
41092SOL    HW235256   5.372   5.080  11.479  0.1197 -0.0280 -0.5974
41093SOL     OW35257   1.981   5.757  12.510 -0.2561 -0.2133  0.1666
41093SOL    HW135258   1.973   5.747  12.416 -0.8313  0.2382  0.1601
41093SOL    HW235259   1.895   5.790  12.538  0.4709  1.4450  0.5801
41094SOL     OW35260   5.994   6.845   4.824  0.1577 -0.4606  0.5542
41094SOL    HW135261   5.967   6.875   4.911  1.6327 -2.0730  1.6481
41094SOL    HW235262   5.913   6.821   4.780 -0.7183  1.4345  1.0159
41095SOL     OW35263  11.405   8.760  10.698  0.4228 -0.0121 -0.5152
41095SOL    HW135264  11.398   8.726  10.608  2.6142  0.0652 -0.7485
41095SOL    HW235265  11.416   8.855  10.686 -2.1126  0.4257  0.0039
41096SOL     OW35266   1.386   8.645   8.187 -0.1508  0.6588  0.2866
41096SOL    HW135267   1.350   8.643   8.099  0.0075  1.4501  0.1900
41096SOL    HW235268   1.353   8.566   8.229 -0.8415  0.6528 -0.2473
41097SOL     OW35269  12.838   4.059   2.363 -0.2226 -0.0384  0.4999
41097SOL    HW135270  12.749   4.042   2.333 -0.3724 -2.3824  1.9922
41097SOL    HW235271  12.891   3.992   2.318  0.5094  0.2534  0.9076
41098SOL     OW35272  11.078  13.050  11.618  0.1087  0.3372  0.2488
41098SOL    HW135273  11.080  13.048  11.714 -0.4982  2.3597  0.3307
41098SOL    HW235274  10.995  13.008  11.594 -1.1416  2.4007  0.7665
41099SOL     OW35275   3.564   0.292  13.328 -0.6546  0.2451 -0.0838
41099SOL    HW135276   3.540   0.378  13.364 -0.1523  0.9054 -1.2579
41099SOL    HW235277   3.631   0.312  13.262 -1.1380 -0.9531 -0.9777
41100SOL     OW35278   1.363   0.212   1.739 -0.3220  0.3953 -0.0223
41100SOL    HW135279   1.347   0.304   1.717 -0.0925  0.8016  1.3913
41100SOL    HW235280   1.453   0.210   1.769 -0.2407 -0.3527 -0.3017
41101SOL     OW35281  11.749   5.431   0.508  0.3788 -0.4378 -0.0209
41101SOL    HW135282  11.713   5.417   0.420  0.0142 -0.7404  0.1710
41101SOL    HW235283  11.840   5.458   0.493  0.3556 -0.6087 -0.4881
41102SOL     OW35284  14.039  10.322   1.441 -0.1595 -0.1991  0.3127
41102SOL    HW135285  14.025  10.392   1.378 -1.0627 -1.1184 -0.5391
41102SOL    HW235286  13.976  10.339   1.511 -1.4036 -0.9265 -0.5883
41103SOL     OW35287   9.540   3.096   0.412  0.3532 -0.2364  0.9522
41103SOL    HW135288   9.543   3.036   0.486 -1.5885 -0.5920  0.8096
41103SOL    HW235289   9.480   3.054   0.349 -0.2064  1.3145  0.3885
41104SOL     OW35290   5.616   2.422   5.479  0.0280  0.2624  0.3013
41104SOL    HW135291   5.582   2.510   5.495  0.4743  0.5998 -0.5376
41104SOL    HW235292   5.709   2.435   5.460  0.0340 -0.3517 -0.1255
41105SOL     OW35293  13.134  13.021  11.444  0.0002 -0.2777  0.4547
41105SOL    HW135294  13.175  13.102  11.415  0.4737 -0.7360 -0.1682
41105SOL    HW235295  13.123  13.033  11.539  0.2000  0.4483  0.3941
41106SOL     OW35296   7.107   4.143   9.345  0.5092  0.2998 -0.7169
41106SOL    HW135297   7.093   4.050   9.328  0.0510  0.3178 -0.4577
41106SOL    HW235298   7.063   4.188   9.273 -0.2031  0.3363 -0.2768
41107SOL     OW35299   9.064  10.949   8.134 -0.0525 -0.4549  0.0542
41107SOL    HW135300   9.060  10.865   8.180  1.5787  0.2183  1.5590
41107SOL    HW235301   9.117  11.004   8.191  0.6855  0.9621 -1.9046
41108SOL     OW35302   3.014  12.744   0.557 -0.5038 -0.6366 -0.3088
41108SOL    HW135303   2.920  12.726   0.569 -0.0996 -2.7836 -0.0124
41108SOL    HW235304   3.022  12.767   0.464 -1.1686 -1.7682 -0.6704
41109SOL     OW35305   1.619  13.181   1.334 -0.1197  0.3925 -1.0101
41109SOL    HW135306   1.688  13.119   1.311 -1.2709 -1.3938  0.1185
41109SOL    HW235307   1.666  13.258   1.368  1.3345 -0.9855  0.2741
41110SOL     OW35308   3.175  13.143   6.736  0.0448 -0.0979  0.4692
41110SOL    HW135309   3.100  13.204   6.735 -2.1303 -2.5018 -2.4804
41110SOL    HW235310   3.154  13.081   6.806 -0.8305 -0.7772 -0.3608
41111SOL     OW35311   3.206  11.551   1.687 -0.2843  0.5288 -0.2195
41111SOL    HW135312   3.192  11.581   1.777 -0.6791 -0.0568 -0.0799
41111SOL    HW235313   3.232  11.460   1.695 -0.8261  0.3207 -0.7170
41112SOL     OW35314  12.700   6.903   3.235 -0.3375  0.3664  0.4007
41112SOL    HW135315  12.627   6.945   3.190 -0.8244 -0.0590  0.7832
41112SOL    HW235316  12.691   6.932   3.326  0.4545  0.9668  0.3088
41113SOL     OW35317   1.717   6.625  14.013 -0.0047  0.1621  0.2992
41113SOL    HW135318   1.753   6.708  13.981 -0.6277  0.6665  0.8795
41113SOL    HW235319   1.664   6.593  13.940 -0.3889  0.6658  0.3474
41114SOL     OW35320   2.457   9.470   3.955  0.3337  0.3259  0.1160
41114SOL    HW135321   2.445   9.417   3.876 -1.7725  1.2180 -0.2249
41114SOL    HW235322   2.369   9.484   3.988  1.1653  0.1302  2.5715
41115SOL     OW35323  14.028  10.353   5.445  0.1169 -0.3414 -0.2201
41115SOL    HW135324  14.008  10.346   5.539  0.4668 -0.8362 -0.1813
41115SOL    HW235325  13.965  10.417   5.412 -0.5860 -0.8162  0.1811
41116SOL     OW35326  13.377   9.042   6.326 -0.0202  0.3757  0.4997
41116SOL    HW135327  13.397   9.109   6.392 -0.1776  0.9980 -0.0698
41116SOL    HW235328  13.284   9.054   6.308 -0.0347  0.0341  0.3487
41117SOL     OW35329   1.224   0.175   4.697  0.0244 -0.8692 -0.2924
41117SOL    HW135330   1.219   0.268   4.716 -2.2722 -0.6196 -1.6693
41117SOL    HW235331   1.145   0.138   4.737 -0.9514 -1.5518 -2.6255
41118SOL     OW35332   8.327   4.136   0.534  0.2777  0.3700  0.4508
41118SOL    HW135333   8.266   4.201   0.498  0.9344  0.6202 -0.2416
41118SOL    HW235334   8.410   4.155   0.490  0.3878 -1.1953 -0.0578
41119SOL     OW35335  11.250   6.506   1.173 -0.0510 -0.1277  0.2185
41119SOL    HW135336  11.336   6.548   1.178 -0.2030  0.8103 -2.9661
41119SOL    HW235337  11.252   6.456   1.092 -2.9102  0.9910 -0.6812
41120SOL     OW35338  13.200   0.259   6.587 -0.6802 -0.0463 -0.1312
41120SOL    HW135339  13.293   0.236   6.577 -0.4644  0.2907  1.0273
41120SOL    HW235340  13.194   0.349   6.556 -0.6299 -0.0878 -0.2625
41121SOL     OW35341   8.307   8.941  10.187 -0.2180 -0.3179  0.2126
41121SOL    HW135342   8.221   8.955  10.149  0.3079 -0.7404 -1.2011
41121SOL    HW235343   8.327   8.849  10.168  0.5428 -0.2317  0.5375
41122SOL     OW35344   8.474   2.286   1.063  0.3981  0.0350  0.1724
41122SOL    HW135345   8.428   2.347   1.120  1.2451  0.3948  0.4854
41122SOL    HW235346   8.555   2.331   1.040  0.3423 -0.3548 -0.8289
41123SOL     OW35347   0.991  12.900   3.400  0.7479  0.6330  0.1604
41123SOL    HW135348   0.964  12.850   3.477 -1.5989  3.0819  1.0896
41123SOL    HW235349   0.933  12.868   3.330  0.6458  0.6498  0.2367
41124SOL     OW35350   3.595   9.054  13.189 -0.1501 -0.0252  0.5591
41124SOL    HW135351   3.545   8.974  13.175 -0.6804  0.0517  1.8748
41124SOL    HW235352   3.541   9.106  13.248  0.5028  1.0092  0.2666
41125SOL     OW35353  12.598   0.265  13.466 -0.1365 -0.0912 -0.3200
41125SOL    HW135354  12.676   0.242  13.416  0.7147 -0.7439  1.2343
41125SOL    HW235355  12.614   0.355  13.494  0.3948 -0.4541  0.5725
41126SOL     OW35356   3.709   5.574   0.682 -0.0026  0.5376 -0.6402
41126SOL    HW135357   3.706   5.484   0.716 -0.2482  1.1194  0.9537
41126SOL    HW235358   3.620   5.607   0.694 -0.1766  0.7110 -2.1343
41127SOL     OW35359  11.694   0.943   9.310 -0.0555  0.5515 -0.6197
41127SOL    HW135360  11.628   0.998   9.268  0.1842 -1.3523 -3.8620
41127SOL    HW235361  11.669   0.943   9.402 -3.4053  1.5129 -1.3541
41128SOL     OW35362   6.262   9.429  12.106 -0.1157  0.5756  0.4004
41128SOL    HW135363   6.287   9.503  12.162 -0.6823  0.3993  0.9002
41128SOL    HW235364   6.197   9.381  12.157 -0.9247  0.6096 -0.5456
41129SOL     OW35365   9.174  13.022   9.408  0.1884  0.3498  0.1650
41129SOL    HW135366   9.127  13.071   9.474  0.8733  0.1097  0.8446
41129SOL    HW235367   9.247  12.981   9.455 -0.0151 -0.8271 -0.4877
41130SOL     OW35368   9.156  11.421   8.170  0.0953  0.5665 -0.5988
41130SOL    HW135369   9.115  11.346   8.213 -0.7741  1.1829 -0.3074
41130SOL    HW235370   9.229  11.445   8.228 -1.3089  1.6434  0.8322
41131SOL     OW35371   8.723   6.141  11.571 -0.0369 -0.2887  0.4465
41131SOL    HW135372   8.662   6.076  11.536  2.2021 -2.3668  0.1717
41131SOL    HW235373   8.757   6.102  11.651 -0.5229  1.7298  1.7138
41132SOL     OW35374   7.779   4.360  13.384  0.2429  0.8780  0.2319
41132SOL    HW135375   7.702   4.417  13.375 -0.0443  0.5525  0.5604
41132SOL    HW235376   7.753   4.296  13.450  1.0434  1.1564  0.8280
41133SOL     OW35377   1.733   0.273   2.448  0.0195 -0.0530 -0.4657
41133SOL    HW135378   1.679   0.197   2.423  0.0597  0.0831 -0.9815
41133SOL    HW235379   1.784   0.293   2.369 -0.2879  0.7591 -0.4718
41134SOL     OW35380   1.622   5.890  14.009 -0.3282  0.0277 -0.6833
41134SOL    HW135381   1.688   5.879  13.940 -0.5557  1.6477 -1.1973
41134SOL    HW235382   1.650   5.969  14.056 -0.4686 -0.7552  0.7674
41135SOL     OW35383   0.485   4.017   3.557  0.1432  0.1338 -0.9182
41135SOL    HW135384   0.525   4.025   3.643 -2.6497  1.1162  0.4016
41135SOL    HW235385   0.507   4.099   3.512  0.3888  0.2614 -0.5630
41136SOL     OW35386   7.006   0.406   1.368  0.0845 -0.3568  0.1829
41136SOL    HW135387   7.025   0.450   1.451 -0.9885 -1.1463  0.8656
41136SOL    HW235388   6.922   0.363   1.382  0.4539 -1.4926 -0.9140
41137SOL     OW35389   6.944   8.229   5.684  0.3878  0.1374 -0.1659
41137SOL    HW135390   6.962   8.258   5.594 -1.7865 -0.3659 -0.8188
41137SOL    HW235391   6.986   8.143   5.689 -1.0451 -0.6749 -1.3735
41138SOL     OW35392   6.485   6.530  10.085  0.0383 -0.4121  0.4021
41138SOL    HW135393   6.514   6.561   9.999  0.6420 -0.3674  0.6167
41138SOL    HW235394   6.549   6.565  10.146 -0.2482 -0.6510  0.8463
41139SOL     OW35395  11.326   8.433   9.455 -0.0369  0.1277  0.0204
41139SOL    HW135396  11.324   8.513   9.508 -2.1217 -0.5081  1.0195
41139SOL    HW235397  11.378   8.371   9.506  0.6993  0.5170 -0.2520
41140SOL     OW35398  12.476   6.098   5.525 -0.4053 -0.2329 -0.0063
41140SOL    HW135399  12.525   6.176   5.498  0.8089 -0.7174  0.7124
41140SOL    HW235400  12.411   6.087   5.457 -0.4173  1.2432 -0.2776
41141SOL     OW35401   1.638  12.384   2.052 -0.0149 -0.5492 -0.2168
41141SOL    HW135402   1.550  12.399   2.019 -0.0144 -0.1440 -0.0415
41141SOL    HW235403   1.675  12.318   1.993 -0.0717  0.0457 -0.9430
41142SOL     OW35404   8.791   9.768  11.374 -0.0591  0.4712 -0.3583
41142SOL    HW135405   8.721   9.714  11.412  0.0829 -0.3881 -1.2584
41142SOL    HW235406   8.868   9.711  11.376  0.5344  1.2842  0.2971
41143SOL     OW35407   9.419   8.374  12.935 -0.0872 -0.5999  0.0760
41143SOL    HW135408   9.509   8.352  12.911  0.2951  0.2737  0.6679
41143SOL    HW235409   9.400   8.454  12.885 -0.9600 -1.4013 -0.9446
41144SOL     OW35410   3.680  12.225   1.264 -0.1210  0.7194  0.0984
41144SOL    HW135411   3.753  12.275   1.302 -0.2234 -0.0340  1.3872
41144SOL    HW235412   3.681  12.247   1.171  2.4047 -0.0039 -0.1313
41145SOL     OW35413   4.746   7.331  12.672 -0.2376  1.3001 -0.1874
41145SOL    HW135414   4.832   7.353  12.638  0.5086 -1.6268 -0.4947
41145SOL    HW235415   4.758   7.245  12.713 -2.9509  0.9066 -0.0268
41146SOL     OW35416   6.293  11.550  10.888  0.0000 -0.5544  0.1105
41146SOL    HW135417   6.380  11.588  10.899 -1.3010  2.9621 -0.4683
41146SOL    HW235418   6.243  11.582  10.963 -1.4987 -0.1653 -1.0131
41147SOL     OW35419  10.057   3.927  12.924  0.1309  0.6197  0.3438
41147SOL    HW135420  10.028   3.836  12.914  1.5434  0.3794 -3.7614
41147SOL    HW235421  10.137   3.921  12.976 -0.4174 -0.3163  1.1073
41148SOL     OW35422   2.122   9.608  13.920  0.0282  0.1520  0.1044
41148SOL    HW135423   2.169   9.524  13.916 -0.7892 -0.3925  1.3721
41148SOL    HW235424   2.166   9.657  13.989 -0.4206  0.1761  0.3767
41149SOL     OW35425   9.345   2.114  12.003 -0.1747 -0.2600 -0.0953
41149SOL    HW135426   9.318   2.022  12.009  0.4940 -0.4496  0.0847
41149SOL    HW235427   9.349   2.132  11.910 -1.1495 -0.1583 -0.1246
41150SOL     OW35428   3.660   4.633  12.366 -0.2593  0.1704 -0.2075
41150SOL    HW135429   3.636   4.613  12.276 -1.6845 -0.7495  0.3493
41150SOL    HW235430   3.754   4.615  12.370 -0.2682 -0.2419 -1.3735
41151SOL     OW35431  12.429   1.393   7.528 -0.3283 -0.2911  0.2033
41151SOL    HW135432  12.496   1.410   7.462  1.1157 -2.4271  1.0024
41151SOL    HW235433  12.375   1.324   7.491 -0.7858 -0.0719  0.4463
41152SOL     OW35434   4.942   6.881   4.066 -0.3361 -0.8107  0.5418
41152SOL    HW135435   5.019   6.904   4.014 -0.3777 -0.6494  0.5508
41152SOL    HW235436   4.868   6.892   4.006 -0.3671 -0.8022  0.5809
41153SOL     OW35437   0.468   4.977   2.868  0.5007  0.1955 -0.0184
41153SOL    HW135438   0.474   5.071   2.848  1.9779  0.3345  0.9288
41153SOL    HW235439   0.387   4.949   2.825  0.3207  1.7764 -0.8031
41154SOL     OW35440  13.410   3.348   4.541  0.0982  0.3963  0.0538
41154SOL    HW135441  13.329   3.380   4.500 -0.2370 -1.3750 -0.7713
41154SOL    HW235442  13.385   3.328   4.631 -0.3477  0.0049 -0.1530
41155SOL     OW35443   2.411   9.364   5.704  0.8938 -0.3323 -0.3222
41155SOL    HW135444   2.367   9.389   5.623  0.0924 -0.6726 -0.0032
41155SOL    HW235445   2.450   9.279   5.685 -1.3325 -1.5865  0.3291
41156SOL     OW35446  10.845   7.160  13.926 -0.4787 -0.2171 -0.4149
41156SOL    HW135447  10.938   7.145  13.944 -0.1459  1.9617 -0.0951
41156SOL    HW235448  10.844   7.201  13.839 -0.9565  1.3158  0.2774
41157SOL     OW35449   3.207   4.435   8.118  0.3719 -0.3511 -0.0138
41157SOL    HW135450   3.272   4.365   8.133  1.4884  0.9935  1.8300
41157SOL    HW235451   3.226   4.466   8.030  0.3877 -1.8043 -0.5570
41158SOL     OW35452   6.826   6.385   2.858  0.1910  0.0498  0.6131
41158SOL    HW135453   6.743   6.361   2.819 -0.2842 -0.3302  1.8075
41158SOL    HW235454   6.892   6.336   2.809 -0.2470  0.5940 -0.5418
41159SOL     OW35455   4.603   8.887   3.476 -0.4096  0.1121 -0.4841
41159SOL    HW135456   4.690   8.908   3.508 -1.2047  1.1323  1.1487
41159SOL    HW235457   4.565   8.830   3.543 -0.1196 -2.6138 -2.4406
41160SOL     OW35458   8.692   3.979   1.610 -0.1464  0.5523 -0.0072
41160SOL    HW135459   8.720   4.018   1.693 -0.6342 -0.1094  0.4758
41160SOL    HW235460   8.761   3.916   1.589  0.2257  1.0675 -0.3683
41161SOL     OW35461   7.581   9.263   7.721  0.0396  0.0416  0.1094
41161SOL    HW135462   7.517   9.267   7.650  0.2805 -1.5219 -0.2263
41161SOL    HW235463   7.634   9.342   7.711 -1.1940  0.8537 -0.2099
41162SOL     OW35464   2.647   4.484   0.322  0.2175 -0.5614  0.2069
41162SOL    HW135465   2.633   4.506   0.230  0.2861 -0.0992  0.3021
41162SOL    HW235466   2.582   4.536   0.369 -0.3036 -1.3474  0.3705
41163SOL     OW35467   3.265   0.196   6.619 -0.0946 -0.4131 -0.0908
41163SOL    HW135468   3.223   0.247   6.689  1.4457  0.7820  0.0157
41163SOL    HW235469   3.328   0.257   6.580 -0.2598 -1.3508 -1.9190
41164SOL     OW35470   3.535   6.648   7.117  0.2417  0.2751 -0.2365
41164SOL    HW135471   3.612   6.592   7.110 -0.1615 -0.4495  0.7877
41164SOL    HW235472   3.468   6.605   7.063  0.1075  0.0724  0.0861
41165SOL     OW35473   7.038   2.947   1.880 -0.3822 -0.0594 -0.1842
41165SOL    HW135474   7.004   2.883   1.943 -0.2311  0.1930  0.1526
41165SOL    HW235475   7.037   3.030   1.927  0.9035 -0.0815 -0.0922
41166SOL     OW35476   0.092   2.457   5.996  0.0804 -0.0449 -0.0647
41166SOL    HW135477   0.088   2.528   5.932 -1.4434  1.0427  1.1513
41166SOL    HW235478   0.003   2.421   5.998 -0.8170  1.8756  3.4081
41167SOL     OW35479   4.173   0.419   0.036 -0.0195  0.0969 -0.6698
41167SOL    HW135480   4.225   0.482   0.086 -0.9857  0.1384  0.3005
41167SOL    HW235481   4.160   0.461  -0.049  1.2977  0.2002 -0.8394
41168SOL     OW35482   2.828   1.320   1.713  0.3092 -0.1645 -0.3024
41168SOL    HW135483   2.799   1.294   1.800  0.7077  1.6394  0.4191
41168SOL    HW235484   2.748   1.319   1.660 -0.2557  0.2608  0.5049
41169SOL     OW35485   7.961   1.482   3.887 -0.2072 -0.1979 -0.0031
41169SOL    HW135486   7.974   1.567   3.846  0.1421 -0.7373 -1.0443
41169SOL    HW235487   8.048   1.453   3.911 -0.4047  0.0958  1.1331
41170SOL     OW35488   0.655  13.749   8.309  0.1342 -0.1875  0.3896
41170SOL    HW135489   0.612  13.712   8.232  1.6703 -1.9846  0.3379
41170SOL    HW235490   0.615  13.703   8.383  1.7254 -1.7314  0.3521
41171SOL     OW35491   2.577  10.519   9.322 -0.4317  0.3111  0.0721
41171SOL    HW135492   2.527  10.508   9.403  0.8719  0.0309  0.8670
41171SOL    HW235493   2.664  10.547   9.350 -0.4096  1.8586 -1.3302
41172SOL     OW35494  11.848  13.423   5.659  0.3611 -0.3087  0.2789
41172SOL    HW135495  11.838  13.417   5.564 -3.3039  0.3091  0.4611
41172SOL    HW235496  11.891  13.508   5.673 -0.3338  0.2608 -0.8286
41173SOL     OW35497   7.008  10.860   7.865 -0.0139 -0.1570 -0.1576
41173SOL    HW135498   7.068  10.820   7.802  0.8068  1.9969 -0.8211
41173SOL    HW235499   6.921  10.830   7.838  0.5030 -0.8545 -1.0753
41174SOL     OW35500   5.226   4.921   4.954 -0.0774 -0.4511  0.0406
41174SOL    HW135501   5.253   4.995   4.899 -0.5669  0.2654  0.7500
41174SOL    HW235502   5.303   4.865   4.958  0.1709 -0.1865 -0.8430
41175SOL     OW35503   0.276  13.839  12.457 -0.7753  0.7388  0.2755
41175SOL    HW135504   0.197  13.849  12.403 -0.5458  1.3051  0.0394
41175SOL    HW235505   0.256  13.764  12.514 -0.4768 -0.8289 -1.5676
41176SOL     OW35506   6.439   3.213   6.422  0.2274  0.9361  0.4311
41176SOL    HW135507   6.519   3.240   6.376 -0.4942 -0.2063 -1.6312
41176SOL    HW235508   6.468   3.142   6.480  0.8338  1.0090  0.2303
41177SOL     OW35509   2.617   4.024  10.613  0.1528  0.3239 -0.1438
41177SOL    HW135510   2.683   4.049  10.547 -0.5059  2.6886 -0.0127
41177SOL    HW235511   2.536   4.065  10.582 -0.5123  0.1973  1.3426
41178SOL     OW35512   5.337   1.885  10.913  0.0709  0.2146  0.4929
41178SOL    HW135513   5.261   1.891  10.855  0.5430 -0.4980 -0.2358
41178SOL    HW235514   5.382   1.969  10.903 -0.2726  0.3913  0.4214
41179SOL     OW35515   9.422   5.923   6.692 -0.9865  0.0975  0.0972
41179SOL    HW135516   9.423   6.017   6.704 -2.2227  0.5416 -2.4753
41179SOL    HW235517   9.332   5.903   6.664 -0.5619 -1.7088 -0.1463
41180SOL     OW35518   3.213   7.090   3.138  0.0425  0.4299 -0.4967
41180SOL    HW135519   3.175   7.012   3.179  1.1279  0.6791  1.0516
41180SOL    HW235520   3.155   7.161   3.165 -0.2687  0.3500 -0.9303
41181SOL     OW35521   4.256   5.741  13.539  0.3061  0.4122 -0.3065
41181SOL    HW135522   4.204   5.700  13.607  0.5080 -1.8262 -1.4073
41181SOL    HW235523   4.192   5.766  13.472  0.3736  0.1818 -0.4564
41182SOL     OW35524   5.041   0.424   8.703 -0.1122  0.3689  0.0731
41182SOL    HW135525   5.034   0.519   8.713 -1.1216  0.4251 -0.9630
41182SOL    HW235526   5.008   0.389   8.786 -0.2671  0.9101  0.2436
41183SOL     OW35527   6.887   6.493   9.518 -0.4387  0.3508 -0.3304
41183SOL    HW135528   6.926   6.451   9.441 -0.9336  0.2106 -0.5120
41183SOL    HW235529   6.932   6.454   9.592 -1.0296 -0.6725 -0.4898
41184SOL     OW35530   5.091   5.148   0.233  0.0235  0.0577  0.1907
41184SOL    HW135531   5.114   5.173   0.144  0.4011  0.2195  0.3353
41184SOL    HW235532   5.070   5.054   0.227 -0.1557  0.1161 -0.1056
41185SOL     OW35533   1.839  10.331   3.068  0.6896 -0.1911 -0.5461
41185SOL    HW135534   1.829  10.381   3.149  3.5045  1.1509 -0.9200
41185SOL    HW235535   1.882  10.250   3.096 -0.6365 -0.8725 -0.4127
41186SOL     OW35536   2.586   8.599   4.872 -0.0632  0.3031 -0.2318
41186SOL    HW135537   2.537   8.600   4.790 -0.8766 -0.7682  0.2122
41186SOL    HW235538   2.542   8.533   4.925  2.1045 -1.0450  0.0335
41187SOL     OW35539   0.856   7.367  11.785  0.4935 -0.3892  0.6748
41187SOL    HW135540   0.892   7.280  11.802  2.0139  0.6505  3.1947
41187SOL    HW235541   0.774   7.370  11.834 -0.9091 -1.1822 -1.4544
41188SOL     OW35542  13.026   1.644   5.216  0.0471  0.6748 -0.2100
41188SOL    HW135543  12.950   1.590   5.238  1.1465 -0.9454 -0.2267
41188SOL    HW235544  12.995   1.700   5.145 -0.8600 -0.6583 -0.9103
41189SOL     OW35545   0.444   3.664  11.990  0.5412 -0.1594  0.1800
41189SOL    HW135546   0.435   3.657  11.895 -0.1903 -0.2599  0.2505
41189SOL    HW235547   0.538   3.676  12.005  0.5138  1.3338 -0.6516
41190SOL     OW35548   3.703   8.149   8.550 -0.3002  0.2173 -0.2323
41190SOL    HW135549   3.665   8.086   8.611 -0.4436 -1.2017 -1.7021
41190SOL    HW235550   3.792   8.162   8.580 -0.0826 -1.1619 -0.2210
41191SOL     OW35551  13.835  10.675   8.605  0.0331 -0.1846 -0.3633
41191SOL    HW135552  13.900  10.742   8.582  0.6717 -0.8668 -0.5918
41191SOL    HW235553  13.818  10.629   8.523 -0.6123 -0.1288 -0.2624
41192SOL     OW35554   5.266   7.870   9.216  0.3364 -0.3353 -0.2836
41192SOL    HW135555   5.355   7.870   9.251  0.6369 -1.0744 -1.0234
41192SOL    HW235556   5.225   7.792   9.252 -0.4359  0.6233  1.0313
41193SOL     OW35557   6.609   1.373  10.034 -0.2126 -0.0924  0.5334
41193SOL    HW135558   6.579   1.464  10.042  0.3785  0.2089 -0.4473
41193SOL    HW235559   6.547   1.322  10.086  0.4633  1.0552  2.5570
41194SOL     OW35560   1.551   5.033   9.928 -0.4340  0.2926 -0.1154
41194SOL    HW135561   1.504   4.962   9.884  0.5160  0.2385 -1.0694
41194SOL    HW235562   1.483   5.098   9.946 -1.1280 -0.3970 -0.1850
41195SOL     OW35563   4.254   6.665  13.043 -0.1657  0.1883  0.3089
41195SOL    HW135564   4.276   6.575  13.019  0.0842  0.4496 -0.4906
41195SOL    HW235565   4.262   6.667  13.138 -1.4790 -0.9631  0.4736
41196SOL     OW35566   1.144  13.788   3.253 -0.0613 -0.0971  0.0061
41196SOL    HW135567   1.101  13.712   3.212 -0.3046 -0.0131  0.1055
41196SOL    HW235568   1.075  13.829   3.304  0.2301 -0.1664  0.4559
41197SOL     OW35569   0.745   2.672  10.299 -0.2583 -0.8727  0.2343
41197SOL    HW135570   0.703   2.753  10.273 -1.3027 -1.5776 -0.3557
41197SOL    HW235571   0.827   2.670  10.248  0.4597  0.4323  1.2826
41198SOL     OW35572   5.142   7.093  13.666  0.0681  1.0756  0.2867
41198SOL    HW135573   5.107   7.158  13.726  1.3557  1.0966  1.0602
41198SOL    HW235574   5.159   7.016  13.720 -2.2668 -0.2900 -0.7735
41199SOL     OW35575   9.057   5.373   5.806  0.1498 -0.0579 -0.0751
41199SOL    HW135576   8.999   5.404   5.736  0.6253  0.2074 -0.3535
41199SOL    HW235577   9.022   5.414   5.886  0.4600  0.8020 -0.3636
41200SOL     OW35578  11.074   2.032  12.853 -0.0696  0.0369 -0.0643
41200SOL    HW135579  11.012   1.963  12.831  1.7814 -1.3559 -1.1679
41200SOL    HW235580  11.156   1.986  12.873  1.4055  1.9141 -1.4239
41201SOL     OW35581   7.013  10.034   8.375 -0.4696  0.0086 -0.0338
41201SOL    HW135582   7.076   9.986   8.321 -0.8739 -0.6399  0.0610
41201SOL    HW235583   7.062  10.054   8.455  0.1084  0.9158 -0.6040
41202SOL     OW35584  10.635   1.122  11.607  0.0746 -0.2212  0.1810
41202SOL    HW135585  10.643   1.045  11.550 -1.7798  0.4354 -1.0801
41202SOL    HW235586  10.722   1.134  11.643  1.9950  0.4638 -4.0961
41203SOL     OW35587   2.760   2.200   8.458  0.3516  0.1039  0.0162
41203SOL    HW135588   2.852   2.195   8.432  0.4055  0.9995 -0.0008
41203SOL    HW235589   2.729   2.282   8.420 -0.9013 -0.9574 -1.3534
41204SOL     OW35590   5.960   5.301   7.039 -0.3324 -0.4338  0.5532
41204SOL    HW135591   6.030   5.358   7.008 -0.9334  0.5665  0.9914
41204SOL    HW235592   5.996   5.261   7.119  1.7891 -4.1398 -1.9565
41205SOL     OW35593   5.577   7.150   9.066  0.5950  0.4382 -0.1812
41205SOL    HW135594   5.643   7.121   9.129  0.3045  2.3741  1.1177
41205SOL    HW235595   5.620   7.216   9.013  0.0084  0.9893  0.0073
41206SOL     OW35596  12.317   2.383   7.986  0.0963  0.0357  0.2343
41206SOL    HW135597  12.255   2.333   7.934  0.4475 -1.2548  1.0040
41206SOL    HW235598  12.263   2.431   8.048 -0.1822 -0.3818  0.3162
41207SOL     OW35599   0.018   1.441   1.422  0.4101 -0.2278  0.4127
41207SOL    HW135600   0.081   1.514   1.418  1.8938 -1.4776  0.0427
41207SOL    HW235601   0.013   1.420   1.516  2.8920 -2.0013  0.2439
41208SOL     OW35602   3.452   3.779   4.341  0.5904  0.0725  0.2089
41208SOL    HW135603   3.429   3.807   4.252  0.4780 -0.5482  0.0373
41208SOL    HW235604   3.546   3.792   4.347  0.5723  0.2754  0.0565
41209SOL     OW35605   8.313   2.467  12.251 -0.5402 -0.2989  0.0045
41209SOL    HW135606   8.237   2.414  12.277  0.9310 -1.7016  1.6713
41209SOL    HW235607   8.374   2.405  12.212  1.8128 -0.2621  3.2406
41210SOL     OW35608  10.579   5.542   0.709  0.5866 -0.1050 -0.1313
41210SOL    HW135609  10.548   5.468   0.657  1.6293 -0.1876 -0.6563
41210SOL    HW235610  10.658   5.510   0.752  1.0592  0.7029 -0.3728
41211SOL     OW35611   2.127   3.932   8.389  0.3630 -0.0579  0.9224
41211SOL    HW135612   2.170   3.861   8.438  0.7098 -0.6774 -0.2178
41211SOL    HW235613   2.158   3.920   8.299 -0.0303  1.2080  0.5981
41212SOL     OW35614   3.630   5.341   9.505 -0.1300  0.1811  0.3664
41212SOL    HW135615   3.616   5.389   9.423  0.8228 -0.5932 -0.2735
41212SOL    HW235616   3.567   5.270   9.502  0.0905 -0.0122  0.1500
41213SOL     OW35617   2.015   1.916   9.849  0.4255  0.5364  0.2415
41213SOL    HW135618   1.956   1.849   9.884 -0.2791  0.0980 -1.6439
41213SOL    HW235619   2.065   1.946   9.924 -1.1608 -0.1569  1.6395
41214SOL     OW35620  12.045   1.385   4.536  0.0855  0.3050 -0.5724
41214SOL    HW135621  12.068   1.476   4.556  1.6158 -0.1557 -0.1059
41214SOL    HW235622  12.060   1.378   4.441  1.5809  0.1201 -0.3405
41215SOL     OW35623  11.941  10.165   0.595 -0.3998  0.2283 -0.0030
41215SOL    HW135624  11.967  10.230   0.530  1.0352 -0.9979 -0.6985
41215SOL    HW235625  12.023  10.139   0.637 -1.1373 -0.0449  1.3174
41216SOL     OW35626   6.362   1.246  10.369  0.0581 -0.1746 -0.2561
41216SOL    HW135627   6.371   1.317  10.432 -0.9910 -1.3420  1.2928
41216SOL    HW235628   6.267   1.241  10.352  0.0440 -1.5144  0.0759
41217SOL     OW35629   7.937   8.378   5.296 -0.3850 -0.3223  0.1470
41217SOL    HW135630   7.952   8.422   5.379 -1.0026  1.3314 -0.5774
41217SOL    HW235631   7.998   8.304   5.297  0.9594  0.7349  1.2703
41218SOL     OW35632   0.502   4.148   8.927 -0.3557  0.3233  0.2041
41218SOL    HW135633   0.482   4.134   9.019  0.3604 -2.3522  0.0377
41218SOL    HW235634   0.431   4.105   8.879  1.4127 -2.2082 -0.3827
41219SOL     OW35635  11.688   1.302   0.341 -0.4370 -0.2010  0.1574
41219SOL    HW135636  11.615   1.276   0.398 -0.9121 -0.2457 -0.4649
41219SOL    HW235637  11.686   1.240   0.269  1.0066 -0.9911  0.7538
41220SOL     OW35638   7.353  13.215  12.030 -0.2487 -0.4175 -0.7405
41220SOL    HW135639   7.442  13.182  12.028 -0.4098 -0.8269 -1.6283
41220SOL    HW235640   7.334  13.228  12.123  0.5282 -0.8843 -0.5103
41221SOL     OW35641   1.557   2.511   3.441  0.3280  0.2157 -0.4746
41221SOL    HW135642   1.587   2.600   3.426  0.0483  0.1739 -1.3961
41221SOL    HW235643   1.562   2.469   3.355 -3.3637  0.5471 -1.0137
41222SOL     OW35644   9.123  13.010   1.461 -0.1188  0.2106  0.2170
41222SOL    HW135645   9.033  12.978   1.454 -0.5198  1.5556 -1.5537
41222SOL    HW235646   9.130  13.042   1.551 -1.5952  0.5799  0.2278
41223SOL     OW35647   4.566   5.248  11.733  0.2410  0.0690  0.2650
41223SOL    HW135648   4.578   5.203  11.817 -1.3438  1.0131  1.0436
41223SOL    HW235649   4.598   5.186  11.668  1.6005 -0.6564  1.5552
41224SOL     OW35650  13.572   3.869   7.125  0.6881  0.7109  0.3856
41224SOL    HW135651  13.620   3.915   7.195 -2.2262 -0.2576  3.2583
41224SOL    HW235652  13.612   3.782   7.122  1.4154  1.0435  0.1743
41225SOL     OW35653  13.230   5.095  12.826 -0.0734 -0.4311  0.2756
41225SOL    HW135654  13.165   5.149  12.871  1.0690  1.9971 -0.8637
41225SOL    HW235655  13.313   5.118  12.866  0.4516 -1.4265 -0.2079
41226SOL     OW35656   4.915   5.152   7.962  0.3725 -0.0772 -0.1496
41226SOL    HW135657   5.001   5.113   7.944  0.5570  0.2910 -0.0597
41226SOL    HW235658   4.879   5.098   8.033  0.4380 -0.3627 -0.3287
41227SOL     OW35659   0.833  10.201   4.154  0.0964  0.4038 -0.9230
41227SOL    HW135660   0.918  10.166   4.182 -0.2427 -1.7204 -2.3264
41227SOL    HW235661   0.773  10.178   4.225  1.0815  4.7253  1.6728
41228SOL     OW35662  10.609   1.735   2.588  0.3646  0.0827  0.2435
41228SOL    HW135663  10.533   1.677   2.586  0.5796 -0.1958 -1.7088
41228SOL    HW235664  10.668   1.695   2.652 -1.1838  0.4239  1.9642
41229SOL     OW35665   9.706   4.730   9.541 -0.2037  0.2732 -0.3080
41229SOL    HW135666   9.783   4.787   9.549  0.1097 -0.2678  0.6163
41229SOL    HW235667   9.673   4.722   9.630 -0.8406 -0.1788 -0.5813
41230SOL     OW35668  13.012   2.509   5.293  0.2732 -0.3358 -0.2011
41230SOL    HW135669  13.067   2.559   5.354 -0.4045  0.3228 -0.1062
41230SOL    HW235670  13.073   2.454   5.245  0.8763 -0.5371  0.7581
41231SOL     OW35671   6.767  13.859  11.891 -0.2986 -0.1104  0.2214
41231SOL    HW135672   6.745  13.946  11.925 -0.1739 -0.1088  0.3015
41231SOL    HW235673   6.689  13.832  11.843 -1.2838 -0.9681  2.1925
41232SOL     OW35674   8.963   1.768   6.629 -0.4871  0.2466  0.0337
41232SOL    HW135675   8.891   1.787   6.570 -0.1967 -0.0633 -0.4284
41232SOL    HW235676   9.039   1.810   6.589  0.1133 -1.5823 -0.8530
41233SOL     OW35677   9.167   7.053   0.551  0.0840 -0.4700  0.1380
41233SOL    HW135678   9.117   7.020   0.626  0.4543 -1.3574  0.0075
41233SOL    HW235679   9.102   7.064   0.482 -0.0077 -1.2332  0.0919
41234SOL     OW35680  11.762   0.703   1.440  0.4264 -0.3059 -0.0559
41234SOL    HW135681  11.816   0.725   1.516  0.4693 -2.9229  0.7713
41234SOL    HW235682  11.672   0.709   1.472  0.3036  1.1405 -0.5944
41235SOL     OW35683   5.538   4.890  12.676 -0.0917  0.2111  0.3200
41235SOL    HW135684   5.587   4.933  12.606 -0.5122  0.4629  0.1720
41235SOL    HW235685   5.506   4.961  12.731 -1.0181  0.1186 -0.0794
41236SOL     OW35686  12.862   2.067   0.100 -0.7328  0.4401  0.3502
41236SOL    HW135687  12.832   2.135   0.039 -2.2864 -1.2504 -0.8570
41236SOL    HW235688  12.858   1.986   0.049  2.1788 -0.4860  1.3736
41237SOL     OW35689   3.774   6.307  12.599  0.4037 -0.1879 -0.0704
41237SOL    HW135690   3.821   6.253  12.662  0.0178  0.2786  0.6238
41237SOL    HW235691   3.794   6.397  12.625 -0.5426  0.0099 -0.0237
41238SOL     OW35692  11.407   9.752   1.641 -0.5346  0.2712  0.0661
41238SOL    HW135693  11.441   9.711   1.721 -1.0079  0.0058  0.1344
41238SOL    HW235694  11.337   9.694   1.612 -0.3910  0.3894 -0.5214
41239SOL     OW35695   3.121   2.636   7.325 -0.0069 -0.3986 -0.0874
41239SOL    HW135696   3.214   2.614   7.316 -0.3585 -1.7737 -0.7180
41239SOL    HW235697   3.075   2.558   7.294 -1.3840  0.0070  0.8265
41240SOL     OW35698   6.110   0.127   9.138 -0.1838 -0.3720 -0.3021
41240SOL    HW135699   6.027   0.175   9.137 -0.5585 -0.8010  2.3190
41240SOL    HW235700   6.088   0.041   9.101 -0.3563  0.2027 -1.6045
41241SOL     OW35701   2.529   1.961   9.402  0.3714 -0.1064  0.3524
41241SOL    HW135702   2.569   2.047   9.387 -1.3795  1.0257  1.7005
41241SOL    HW235703   2.567   1.931   9.484  0.6424 -0.4345  0.1123
41242SOL     OW35704  13.299  12.313  10.465  0.2572  0.6930 -0.3168
41242SOL    HW135705  13.326  12.235  10.417 -2.4357  0.4660 -1.6356
41242SOL    HW235706  13.311  12.290  10.557  0.3590 -0.9578 -0.7151
41243SOL     OW35707   3.881   1.856  13.506  0.4435 -0.2084  0.1502
41243SOL    HW135708   3.860   1.772  13.546 -0.4089 -0.4946 -0.8431
41243SOL    HW235709   3.957   1.839  13.451  1.8960  0.2840  1.9009
41244SOL     OW35710   2.152   4.787   3.004  0.0571  0.7641 -0.2389
41244SOL    HW135711   2.101   4.786   2.924  0.5999 -2.9135 -0.7520
41244SOL    HW235712   2.087   4.778   3.074 -0.2449 -0.3280 -0.6341
41245SOL     OW35713  12.641   3.433  13.277  0.1020 -0.9139  0.1201
41245SOL    HW135714  12.725   3.474  13.257 -0.0519  0.0920  1.4057
41245SOL    HW235715  12.575   3.499  13.254 -0.1438 -0.2995  2.3369
41246SOL     OW35716   6.198  10.344   6.315  0.2020  0.3463  0.2150
41246SOL    HW135717   6.278  10.315   6.358  0.7112  1.3163 -0.0663
41246SOL    HW235718   6.149  10.263   6.300  0.0102 -0.0237  2.5556
41247SOL     OW35719   3.601  10.119   3.599 -0.5094  1.0043  0.1226
41247SOL    HW135720   3.638  10.152   3.681 -1.2260  0.4742  0.6728
41247SOL    HW235721   3.556  10.039   3.624  1.0765 -0.3562 -1.1535
41248SOL     OW35722  12.056   7.584   1.488 -0.5018 -0.1084  0.1514
41248SOL    HW135723  12.027   7.493   1.497 -2.3923  0.4332 -0.0019
41248SOL    HW235724  11.981   7.629   1.450 -0.6418  2.0589  2.6817
41249SOL     OW35725   6.387   3.295  10.174  0.0512  0.1344 -0.0454
41249SOL    HW135726   6.401   3.357  10.245 -0.4233 -1.5669  1.6229
41249SOL    HW235727   6.310   3.244  10.201 -0.6260 -0.0894 -2.1580
41250SOL     OW35728   3.814   4.799  10.536 -0.3723 -0.0391  0.2250
41250SOL    HW135729   3.848   4.835  10.618 -0.5406  0.1772  0.2021
41250SOL    HW235730   3.725   4.833  10.530  0.3763  1.8636 -1.1707
41251SOL     OW35731  12.726   3.306   0.889 -0.2999  0.3084  0.2816
41251SOL    HW135732  12.809   3.263   0.907  1.1147  1.4874 -2.6885
41251SOL    HW235733  12.683   3.250   0.824 -0.3664  1.2320 -0.4936
41252SOL     OW35734   0.509   4.534   8.495  0.0940 -0.3072  0.1751
41252SOL    HW135735   0.485   4.475   8.566  0.2710  1.1513  1.5109
41252SOL    HW235736   0.584   4.493   8.453 -0.5338 -1.6054  0.2839
41253SOL     OW35737   5.308   7.594  13.079  0.0966 -0.8144  0.0194
41253SOL    HW135738   5.381   7.535  13.094  1.3693  0.6227 -0.2767
41253SOL    HW235739   5.325   7.633  12.993 -2.0424 -1.8370 -0.9648
41254SOL     OW35740   4.036  10.855   2.010  0.5170 -0.0419  0.5542
41254SOL    HW135741   3.947  10.876   1.980  0.8830 -0.7403 -1.1319
41254SOL    HW235742   4.041  10.760   2.003  1.1527 -0.0807  1.4066
41255SOL     OW35743   8.409   8.984   0.194  0.6046 -0.5028  0.3459
41255SOL    HW135744   8.500   8.957   0.182  1.0125  1.2054 -0.8983
41255SOL    HW235745   8.360   8.934   0.128  1.1001  0.5024 -0.8332
41256SOL     OW35746   8.226  12.709  10.001 -0.0915 -0.1308 -0.0896
41256SOL    HW135747   8.304  12.656  10.018 -0.8272 -1.2601 -0.0997
41256SOL    HW235748   8.183  12.666   9.927  0.5421  1.9323 -1.7643
41257SOL     OW35749  12.736  10.815   5.538 -0.8821  0.2518 -0.7492
41257SOL    HW135750  12.660  10.857   5.579 -1.6775 -1.8573  0.0677
41257SOL    HW235751  12.701  10.737   5.496  0.7385 -0.4539 -0.8771
41258SOL     OW35752   5.345  11.734   6.758  0.2300  0.2222 -0.3195
41258SOL    HW135753   5.302  11.727   6.673  2.5864  0.0233 -1.5594
41258SOL    HW235754   5.365  11.644   6.782  0.7636  0.3794 -0.1794
41259SOL     OW35755  12.538   9.251   0.140  0.4649 -0.0362 -0.4170
41259SOL    HW135756  12.488   9.319   0.095 -0.7665 -1.6090 -1.5035
41259SOL    HW235757  12.536   9.278   0.232  0.3761  1.5975 -0.8605
41260SOL     OW35758   2.994  11.309   7.688 -0.1945  0.6287 -0.5295
41260SOL    HW135759   2.988  11.244   7.618  2.1126 -1.4721  1.0178
41260SOL    HW235760   3.005  11.256   7.768 -0.0024  2.9273  1.0591
41261SOL     OW35761  10.467  11.571   0.991 -0.1317  0.3575  0.0418
41261SOL    HW135762  10.449  11.627   1.066  0.1979  0.4297  0.0725
41261SOL    HW235763  10.521  11.626   0.933  0.1955  0.0746  0.0740
41262SOL     OW35764   3.971   8.262  13.324 -0.0050  0.0660 -0.0147
41262SOL    HW135765   3.879   8.269  13.349  0.2874 -0.3159  1.2385
41262SOL    HW235766   3.970   8.204  13.247 -0.9022  1.0552 -0.7881
41263SOL     OW35767   2.346   1.453   2.901 -0.4072  0.2983 -0.3053
41263SOL    HW135768   2.380   1.364   2.906  1.5535  1.0010 -0.0587
41263SOL    HW235769   2.299   1.457   2.818  1.5004 -0.3231 -1.4641
41264SOL     OW35770   2.606   4.768  13.488 -0.2927 -0.0138  0.0014
41264SOL    HW135771   2.642   4.737  13.571 -0.2561  0.9056  0.3330
41264SOL    HW235772   2.602   4.863  13.497  1.0226  0.2279 -1.5683
41265SOL     OW35773   8.195   1.962   0.281 -0.2436  0.3966 -0.3128
41265SOL    HW135774   8.246   1.912   0.217  2.4914  1.2136  1.1036
41265SOL    HW235775   8.165   2.039   0.232  2.6832  1.5386 -0.4919
41266SOL     OW35776   1.602   1.832   9.372 -0.2033  1.0287  0.5737
41266SOL    HW135777   1.617   1.923   9.400  0.3417  1.0003  0.3817
41266SOL    HW235778   1.665   1.781   9.422 -0.5121  0.7502  0.6840
41267SOL     OW35779   9.080  12.161   1.905  0.1708 -0.1035 -0.0329
41267SOL    HW135780   9.099  12.096   1.837 -0.0809 -1.1899  0.8987
41267SOL    HW235781   8.988  12.145   1.928  0.0680  0.6772  0.1122
41268SOL     OW35782   9.576   6.635   5.719 -0.0562  0.0093  0.6527
41268SOL    HW135783   9.572   6.621   5.813  2.0451  1.2313  0.9703
41268SOL    HW235784   9.634   6.710   5.707  0.6947 -0.8272 -1.6714
41269SOL     OW35785  12.862   5.663   7.247 -0.1943  0.1616 -0.4482
41269SOL    HW135786  12.799   5.644   7.177 -0.8587 -0.4004  0.2893
41269SOL    HW235787  12.828   5.741   7.290  0.7848  1.1464 -1.4002
41270SOL     OW35788   2.135   7.550   0.007 -0.1161  0.1688 -0.0749
41270SOL    HW135789   2.201   7.535   0.075  0.6035 -2.0936 -1.1589
41270SOL    HW235790   2.056   7.506   0.040 -0.1662  0.2315 -0.1113
41271SOL     OW35791   0.878   2.788  12.148  0.4847 -0.0658 -0.1344
41271SOL    HW135792   0.891   2.842  12.226 -1.0308 -0.5891  0.5293
41271SOL    HW235793   0.827   2.843  12.089 -2.8113 -1.2980  1.3352
41272SOL     OW35794   7.367  10.081   9.346  0.2560 -0.2669 -0.2024
41272SOL    HW135795   7.436  10.108   9.285 -0.5585  2.5960  0.0013
41272SOL    HW235796   7.291  10.064   9.291 -0.4555  2.2374 -0.1116
41273SOL     OW35797   9.817  11.370   8.023  0.3953  0.1560  0.3776
41273SOL    HW135798   9.885  11.313   7.987  0.0838  0.8049 -1.3474
41273SOL    HW235799   9.863  11.431   8.080  1.4148  0.9945 -1.2590
41274SOL     OW35800   7.114  10.242  12.076  0.4248  0.2503 -0.6098
41274SOL    HW135801   7.022  10.221  12.057  0.1938  2.9343 -3.2530
41274SOL    HW235802   7.157  10.157  12.086 -2.2902 -1.0940  0.7793
41275SOL     OW35803  12.659   4.768   3.814  0.1517 -0.2005 -0.0037
41275SOL    HW135804  12.605   4.751   3.891  1.6969  1.1500  1.4461
41275SOL    HW235805  12.637   4.857   3.787 -2.1042 -1.3891 -2.7064
41276SOL     OW35806   2.295   4.263   5.779 -0.0342 -0.7998  0.6572
41276SOL    HW135807   2.305   4.219   5.864  0.3320 -0.1892  0.9360
41276SOL    HW235808   2.357   4.336   5.782 -0.0644 -0.7327 -0.1118
41277SOL     OW35809   8.484   6.184   9.774  0.2118  0.6395  0.4753
41277SOL    HW135810   8.512   6.220   9.858 -2.6365  0.8581  1.4492
41277SOL    HW235811   8.439   6.102   9.796 -0.5897  0.6921 -0.8285
41278SOL     OW35812   6.429  13.134   2.125  1.1664 -0.0590  0.0514
41278SOL    HW135813   6.466  13.212   2.084  2.0990 -0.5264 -0.0248
41278SOL    HW235814   6.346  13.120   2.080  0.8013  1.1081  0.3319
41279SOL     OW35815  11.443   3.544   3.985 -0.5693 -0.2784  0.3632
41279SOL    HW135816  11.468   3.482   4.053  0.3374  0.1176  0.4016
41279SOL    HW235817  11.475   3.629   4.017 -2.5593  0.3772  0.7323
41280SOL     OW35818   0.792   5.280   3.319  0.0734  0.1307 -0.1131
41280SOL    HW135819   0.873   5.302   3.273 -0.1214  1.3294  0.1065
41280SOL    HW235820   0.736   5.356   3.309 -1.8576 -1.4114 -1.9908
41281SOL     OW35821   7.402   2.944   2.539 -0.0913  0.5448 -0.2558
41281SOL    HW135822   7.422   2.889   2.463  1.7472 -1.2831  1.4109
41281SOL    HW235823   7.329   2.899   2.582  0.5132  0.1443  0.3720
41282SOL     OW35824   5.271   1.758   1.418 -0.2004 -0.0157  0.4631
41282SOL    HW135825   5.206   1.819   1.454  0.5549 -0.3403  2.4556
41282SOL    HW235826   5.333   1.815   1.372 -1.5899  0.3370 -1.0841
41283SOL     OW35827  13.987   2.939   4.265  0.0747  0.1447 -0.0783
41283SOL    HW135828  13.951   2.850   4.257  0.0374  0.1554 -0.0329
41283SOL    HW235829  14.080   2.926   4.282  0.1423  0.1200 -0.4529
41284SOL     OW35830  10.760   3.856   8.291  0.1615  0.3290 -0.3628
41284SOL    HW135831  10.692   3.829   8.354  0.7365 -0.3097 -0.0111
41284SOL    HW235832  10.712   3.871   8.210 -0.2519 -1.3143 -0.4605
41285SOL     OW35833   5.218   6.186  12.331 -0.3909  0.5277  0.4677
41285SOL    HW135834   5.277   6.143  12.392 -2.3692 -3.0593  0.1016
41285SOL    HW235835   5.274   6.211  12.257  0.9443 -1.3909  0.7594
41286SOL     OW35836   3.951   4.725   4.114  0.6800 -0.6057  0.2748
41286SOL    HW135837   3.975   4.697   4.202 -0.0283 -1.1805  0.2901
41286SOL    HW235838   3.963   4.647   4.060 -1.6476 -1.1117  0.3757
41287SOL     OW35839   1.198   4.445   2.683  0.9074 -0.2323 -0.4775
41287SOL    HW135840   1.157   4.448   2.769  1.0394  0.6054 -0.4290
41287SOL    HW235841   1.166   4.364   2.643  0.5333 -0.4223  0.2025
41288SOL     OW35842   6.597  10.677  13.540 -0.0002  0.1437  0.1818
41288SOL    HW135843   6.506  10.649  13.549 -0.2358  0.8053 -0.1141
41288SOL    HW235844   6.647  10.610  13.588 -0.6569 -0.0790  0.5759
41289SOL     OW35845   2.126   4.661   6.329  0.0066 -0.2340 -0.3420
41289SOL    HW135846   2.222   4.659   6.329  0.0458  0.8556  0.6047
41289SOL    HW235847   2.101   4.632   6.416 -0.4397  1.4329  0.1259
41290SOL     OW35848  11.431   8.805   7.215  0.2151  0.0193  0.3610
41290SOL    HW135849  11.348   8.834   7.252  0.0104 -1.0808  0.8130
41290SOL    HW235850  11.417   8.808   7.120  0.9839  3.5474  0.2304
41291SOL     OW35851  10.032  11.685   8.408 -0.0870  0.3314  0.4283
41291SOL    HW135852  10.116  11.675   8.452 -0.5667  0.4783  1.4231
41291SOL    HW235853  10.028  11.778   8.384  0.3592  0.1597 -0.3059
41292SOL     OW35854   8.620   6.242  12.582  0.6441 -0.1271 -0.0697
41292SOL    HW135855   8.651   6.152  12.595  1.0108  0.1674  1.2765
41292SOL    HW235856   8.594   6.270  12.670 -0.9606  0.5462 -0.7290
41293SOL     OW35857  12.467   4.822   2.221  0.6165  0.5299  0.0360
41293SOL    HW135858  12.512   4.742   2.247  3.0472  1.8864  0.2278
41293SOL    HW235859  12.374   4.804   2.240  1.2291 -1.7360  1.2633
41294SOL     OW35860  10.053  13.384   7.861  0.6873  0.6240 -0.5318
41294SOL    HW135861  10.144  13.366   7.838  0.2482  0.3887 -2.1685
41294SOL    HW235862  10.001  13.331   7.801 -0.5515  0.1500  0.8821
41295SOL     OW35863   9.221   3.123  11.166 -0.3958  0.7233  0.8940
41295SOL    HW135864   9.145   3.099  11.115 -0.2897 -0.9798  1.4666
41295SOL    HW235865   9.197   3.102  11.257  0.8956 -0.3641  1.0259
41296SOL     OW35866   6.786   6.476  11.387 -0.2455 -0.1641  0.0610
41296SOL    HW135867   6.826   6.416  11.449 -1.4381 -1.6907 -0.5857
41296SOL    HW235868   6.859   6.513  11.338  0.6057 -0.0077  1.3962
41297SOL     OW35869   2.699  10.235   9.904  0.3763  0.1846  0.4684
41297SOL    HW135870   2.723  10.223   9.996  0.9344 -0.4386  0.2522
41297SOL    HW235871   2.680  10.146   9.873  0.3259  0.3736 -0.0489
41298SOL     OW35872   6.119  13.414   0.797  1.0420 -0.2556  0.3314
41298SOL    HW135873   6.047  13.471   0.822  1.1549 -0.2237  0.5899
41298SOL    HW235874   6.171  13.404   0.877  1.8937  0.5670 -0.0928
41299SOL     OW35875   1.611   2.787  13.839  0.5965  0.3601  0.1637
41299SOL    HW135876   1.683   2.770  13.899 -0.6991  0.0661  1.6771
41299SOL    HW235877   1.574   2.871  13.868 -0.3433 -0.0175  0.0852
41300SOL     OW35878  10.266   7.433  12.487 -0.0146  0.2152 -0.2031
41300SOL    HW135879  10.314   7.492  12.545 -0.1266 -0.6693  0.8109
41300SOL    HW235880  10.290   7.345  12.517 -1.3329 -0.2502 -0.4557
41301SOL     OW35881   3.490   7.057   7.950  0.0583  0.4907 -0.1790
41301SOL    HW135882   3.520   7.148   7.955 -2.6922  1.5245 -1.1770
41301SOL    HW235883   3.417   7.059   7.889 -0.2949 -2.3677  0.0453
41302SOL     OW35884  11.458  10.735  12.562  0.3639 -0.6860  0.0271
41302SOL    HW135885  11.530  10.757  12.621 -1.2322 -1.6768  2.5357
41302SOL    HW235886  11.466  10.641  12.549 -0.5266 -0.8329  0.4586
41303SOL     OW35887  10.289  10.975   8.467  0.5607 -0.3387 -0.0698
41303SOL    HW135888  10.260  10.898   8.518  0.9490 -1.1722 -1.0737
41303SOL    HW235889  10.234  11.046   8.499 -1.5869 -1.5400 -0.8419
41304SOL     OW35890   8.279   6.111   0.069  0.2803 -0.3029  0.2017
41304SOL    HW135891   8.250   6.027   0.032 -1.6510  0.0081  0.8971
41304SOL    HW235892   8.221   6.176   0.030  1.1835  0.6097  0.3379
41305SOL     OW35893  10.822   3.673   6.120 -0.0211 -0.6177  0.2640
41305SOL    HW135894  10.880   3.604   6.089 -0.5518 -1.7053  1.5627
41305SOL    HW235895  10.753   3.627   6.169 -1.5026  0.6841 -0.4836
41306SOL     OW35896  10.397  10.861   1.235  0.1892 -0.0197  0.0567
41306SOL    HW135897  10.308  10.891   1.216  0.4804  0.1466 -1.1347
41306SOL    HW235898  10.415  10.896   1.323 -0.6415  0.5885  0.0079
41307SOL     OW35899   3.107  12.421  10.521 -0.4840  0.5138 -0.0106
41307SOL    HW135900   3.072  12.339  10.556  0.9739  0.3373  1.1214
41307SOL    HW235901   3.036  12.485  10.535 -1.7296 -0.5452 -1.1338
41308SOL     OW35902   3.480   1.509   3.500  0.3978  0.0626 -0.0229
41308SOL    HW135903   3.525   1.441   3.550  0.4180  1.0061  1.2967
41308SOL    HW235904   3.401   1.466   3.467  0.3468 -0.5664  0.8807
41309SOL     OW35905   6.034   3.226   1.442  0.1642 -0.0379 -0.2898
41309SOL    HW135906   5.968   3.296   1.444  1.4901  1.2597  0.9462
41309SOL    HW235907   6.063   3.223   1.351 -1.0011 -0.0431 -0.6711
41310SOL     OW35908   7.001   1.074  11.405  0.6520 -0.3267 -0.4446
41310SOL    HW135909   6.941   1.039  11.339  0.2098 -0.0246 -0.2036
41310SOL    HW235910   7.079   1.098  11.356 -1.2692  4.3265 -1.7779
41311SOL     OW35911   0.604  10.942   7.786 -0.1884 -0.1790  0.5949
41311SOL    HW135912   0.648  10.874   7.736  1.5319  0.5090  1.0962
41311SOL    HW235913   0.546  10.894   7.846  0.0100 -1.1257  0.0444
41312SOL     OW35914   3.442   4.868   2.435  0.1972  0.1251  0.0675
41312SOL    HW135915   3.381   4.813   2.385 -0.8975 -0.5714  2.0565
41312SOL    HW235916   3.415   4.958   2.414 -0.6679 -0.1569 -0.0918
41313SOL     OW35917   6.811   0.392  12.064  0.3146 -0.3710  0.4033
41313SOL    HW135918   6.783   0.301  12.061 -0.7912 -0.0670  1.0747
41313SOL    HW235919   6.788   0.421  12.152  0.0190  0.7545 -0.0302
41314SOL     OW35920  11.474   2.057   8.951 -0.5559  0.0733 -0.3850
41314SOL    HW135921  11.467   1.970   8.990  1.6176  0.5199  1.2591
41314SOL    HW235922  11.421   2.053   8.872 -1.4782 -2.3528  0.2628
41315SOL     OW35923   6.205  12.429  13.489  0.1963 -0.0941  0.1346
41315SOL    HW135924   6.246  12.375  13.556 -1.2208 -0.0828  1.0515
41315SOL    HW235925   6.160  12.366  13.432  0.7522 -0.0483 -0.3653
41316SOL     OW35926  13.916   3.998   8.265  0.2551 -0.5588  0.5221
41316SOL    HW135927  13.857   3.927   8.240  0.5192 -0.7944  0.5672
41316SOL    HW235928  13.858   4.066   8.300 -0.2786  0.3380 -1.8964
41317SOL     OW35929  11.847  10.043  12.913  0.9739  0.2028  0.2022
41317SOL    HW135930  11.837   9.959  12.870  1.0613  0.1816  0.2222
41317SOL    HW235931  11.766  10.055  12.962  0.3861  0.7523 -0.8690
41318SOL     OW35932   7.772   5.266   9.358  0.3373 -0.2288  0.3088
41318SOL    HW135933   7.801   5.334   9.419  0.2132 -0.0523  0.1727
41318SOL    HW235934   7.833   5.194   9.372  1.5892  0.5745 -0.8161
41319SOL     OW35935   6.412   6.526   6.504  0.3550 -0.2177  0.0659
41319SOL    HW135936   6.482   6.461   6.501 -0.7965 -1.5617  1.1102
41319SOL    HW235937   6.457   6.610   6.503  1.9878 -1.0387  0.8581
41320SOL     OW35938   4.459   2.700   8.682 -0.4615  0.5096  0.2996
41320SOL    HW135939   4.493   2.662   8.601 -0.3710  1.4472 -0.1081
41320SOL    HW235940   4.395   2.765   8.654 -1.6754 -0.3221  1.0345
41321SOL     OW35941   3.672  12.304   9.296  0.0838  0.1451  0.7236
41321SOL    HW135942   3.738  12.247   9.256  0.4395 -0.6066  2.2667
41321SOL    HW235943   3.682  12.388   9.252  1.2464 -0.3042  0.0863
41322SOL     OW35944   4.062   5.311  13.702 -0.2056  0.2044  0.0406
41322SOL    HW135945   4.033   5.221  13.691 -0.9332  0.5435 -0.9759
41322SOL    HW235946   3.992   5.364  13.664  0.1083  1.2171  0.8068
41323SOL     OW35947   4.212  12.764   8.347  0.2161 -0.1900 -0.2647
41323SOL    HW135948   4.200  12.694   8.282 -1.5390 -0.4387  0.2674
41323SOL    HW235949   4.193  12.845   8.299 -2.7113 -0.4876  0.2432
41324SOL     OW35950   6.319  13.337  12.038 -0.6225  0.7236  0.3983
41324SOL    HW135951   6.253  13.273  12.067 -0.6689 -0.3121 -1.7575
41324SOL    HW235952   6.354  13.299  11.958 -0.4342  3.2853 -0.8210
41325SOL     OW35953   8.824   8.603   7.676 -0.1801  0.1106 -0.5326
41325SOL    HW135954   8.861   8.601   7.764 -0.4577  0.6992 -0.3972
41325SOL    HW235955   8.899   8.588   7.618 -0.0252 -0.4554 -0.1917
41326SOL     OW35956   2.713   7.282  10.030 -0.2262  0.3629  0.0360
41326SOL    HW135957   2.773   7.238  10.090  0.2449  0.0380 -0.6556
41326SOL    HW235958   2.669   7.349  10.083 -0.4457 -0.4779  0.9353
41327SOL     OW35959   4.940   0.206   1.120 -0.2736  0.1347  0.3043
41327SOL    HW135960   5.001   0.211   1.194  0.1527 -0.1693 -0.0267
41327SOL    HW235961   4.909   0.115   1.121 -0.2685  0.1316  0.1067
41328SOL     OW35962   8.794   3.584   8.123 -0.1095 -0.2347 -0.3227
41328SOL    HW135963   8.853   3.581   8.047  0.2182  0.3897 -0.1027
41328SOL    HW235964   8.750   3.669   8.115 -0.9151 -0.6562 -0.4292
41329SOL     OW35965   9.174   4.516  10.891 -0.1063 -0.1156  0.2732
41329SOL    HW135966   9.203   4.596  10.933 -0.3345 -0.8145  1.8535
41329SOL    HW235967   9.200   4.446  10.951  0.2757 -1.2564 -1.1530
41330SOL     OW35968  10.956   2.150  12.525  0.2406 -0.1420 -0.8130
41330SOL    HW135969  10.889   2.082  12.533  0.5731 -0.3274  0.9867
41330SOL    HW235970  10.909   2.232  12.539  0.7292 -0.4217  4.5910
41331SOL     OW35971   2.682  11.382   3.321 -0.0950 -0.2589  0.1995
41331SOL    HW135972   2.757  11.326   3.340  1.0764  1.5804  1.2936
41331SOL    HW235973   2.655  11.416   3.406 -0.6064  1.0071 -0.4321
41332SOL     OW35974   9.785   8.059  12.772 -0.2421  0.0300  0.3562
41332SOL    HW135975   9.781   8.073  12.677 -0.6636  3.5821  0.7479
41332SOL    HW235976   9.879   8.063  12.792 -0.2664  3.2849  0.3852
41333SOL     OW35977  11.688   8.892   3.303  0.2491  0.3573  0.1035
41333SOL    HW135978  11.605   8.923   3.267  0.3685  0.4685 -0.0751
41333SOL    HW235979  11.667   8.870   3.394  0.3749  1.8692  0.5129
41334SOL     OW35980  10.955   6.534   8.435 -0.7828  0.2439  0.3356
41334SOL    HW135981  11.023   6.489   8.486 -0.6687  0.0245 -0.0071
41334SOL    HW235982  10.982   6.522   8.344  0.3875  2.7347  0.2680
41335SOL     OW35983   3.278   4.841  12.133 -0.7731  0.2899  0.1707
41335SOL    HW135984   3.326   4.795  12.202 -1.9793  0.9799  1.5605
41335SOL    HW235985   3.258   4.775  12.068  0.5516 -0.3593  0.3956
41336SOL     OW35986   3.545   9.738   7.165  0.0029 -0.0973 -0.0322
41336SOL    HW135987   3.629   9.692   7.172 -0.7948 -2.0328 -2.0029
41336SOL    HW235988   3.535   9.756   7.072 -1.9070 -0.2325  0.1084
41337SOL     OW35989   8.645  10.341   3.820 -0.2411 -0.0121 -0.3596
41337SOL    HW135990   8.698  10.421   3.810 -0.3039  0.2578  1.1445
41337SOL    HW235991   8.701  10.282   3.871 -0.1839 -0.9686 -1.4854
41338SOL     OW35992   7.104   2.436  12.502 -0.2666 -0.1485 -0.2909
41338SOL    HW135993   7.075   2.442  12.593  0.1331  0.5907 -0.2073
41338SOL    HW235994   7.077   2.349  12.474 -2.5931  0.4971 -0.2304
41339SOL     OW35995   5.956   4.939  13.805 -0.0394 -0.2042 -0.2162
41339SOL    HW135996   6.044   4.927  13.841  0.9961  0.9490 -2.1664
41339SOL    HW235997   5.943   5.034  13.805 -2.4030 -0.4053  2.3836
41340SOL     OW35998   7.796   4.483   9.440  0.2591  0.0994 -0.1496
41340SOL    HW135999   7.717   4.430   9.433 -0.6194  0.9632  2.1747
41340SOL    HW236000   7.867   4.425   9.415 -1.0794 -0.6504 -2.4936
41341SOL     OW36001   4.888  11.532  10.099 -0.0924 -0.2872  0.0039
41341SOL    HW136002   4.941  11.481  10.161  0.8672  0.0089 -0.5471
41341SOL    HW236003   4.926  11.513  10.013  0.3854  1.4417 -0.2120
41342SOL     OW36004   2.269   8.224  13.826 -0.4335  0.2781  0.3205
41342SOL    HW136005   2.233   8.148  13.779 -2.0966  0.7271  0.8080
41342SOL    HW236006   2.220   8.299  13.791 -1.3854  0.6820  2.3876
41343SOL     OW36007  11.085   7.079  14.013  0.1657 -0.2527  0.2229
41343SOL    HW136008  11.095   7.075  14.108  0.1373 -2.6791  0.2075
41343SOL    HW236009  11.174   7.084  13.979  0.2433 -0.6105  0.3706
41344SOL     OW36010   0.615  11.414  10.596 -0.1556 -0.1996  0.2644
41344SOL    HW136011   0.638  11.438  10.686 -1.9128 -0.6568  0.8820
41344SOL    HW236012   0.624  11.496  10.547  1.1870 -0.0268  0.7482
41345SOL     OW36013   0.611   1.168   0.442  0.3657  0.7218  0.4122
41345SOL    HW136014   0.685   1.135   0.494 -0.8800 -1.3544  0.9729
41345SOL    HW236015   0.549   1.200   0.508 -0.0626  0.6292  0.0557
41346SOL     OW36016   8.185  12.678  12.261  0.3825 -0.3728  0.2589
41346SOL    HW136017   8.223  12.764  12.241  1.0808 -0.3171  1.6868
41346SOL    HW236018   8.109  12.672  12.203  1.0357  0.6634 -0.7620
41347SOL     OW36019   6.940  12.715   0.820  0.3747 -0.3237  0.1906
41347SOL    HW136020   7.012  12.659   0.792  0.8285  0.6337 -0.6486
41347SOL    HW236021   6.943  12.712   0.916 -0.0414 -2.2157  0.1861
41348SOL     OW36022   8.848  11.432   6.279  0.0528 -0.1756 -0.2030
41348SOL    HW136023   8.829  11.339   6.292 -2.0613  0.3377  0.8914
41348SOL    HW236024   8.928  11.448   6.330  0.4320 -1.3661 -0.3991
41349SOL     OW36025   4.972   8.500  12.382 -0.2894  0.0948  0.0903
41349SOL    HW136026   5.057   8.479  12.342  0.3987  0.1517  1.4696
41349SOL    HW236027   4.927   8.553  12.315  1.9403  2.6121  0.3822
41350SOL     OW36028  10.829   9.546   1.715  0.4824  0.0532 -0.5756
41350SOL    HW136029  10.846   9.461   1.755  1.8411 -0.2593 -1.6964
41350SOL    HW236030  10.880   9.544   1.633  0.0867  1.7215 -0.9041
41351SOL     OW36031   5.845   8.140   9.767  0.6560  0.2089 -0.7859
41351SOL    HW136032   5.904   8.197   9.816 -0.2693  0.4608  0.0836
41351SOL    HW236033   5.821   8.071   9.830 -0.5081  0.4988 -0.8859
41352SOL     OW36034  11.809   8.249  10.096  0.2282  0.7388  0.1065
41352SOL    HW136035  11.772   8.182  10.153 -0.1979  1.0404  0.1927
41352SOL    HW236036  11.743   8.319  10.096 -0.2939  0.3000 -1.6073
41353SOL     OW36037   2.932   0.152   6.978 -0.3174  0.2106  0.0902
41353SOL    HW136038   2.897   0.133   7.064 -1.6206  0.7109 -0.3083
41353SOL    HW236039   2.988   0.229   6.991 -1.7752  1.2899  0.2456
41354SOL     OW36040   1.443  13.250  11.149 -0.2994  0.2540 -0.1227
41354SOL    HW136041   1.478  13.233  11.236  0.2124 -0.9416 -0.5418
41354SOL    HW236042   1.520  13.262  11.093 -0.5795 -0.3564 -0.6586
41355SOL     OW36043   9.861   7.009   3.762  0.0903 -0.2508  0.5569
41355SOL    HW136044   9.887   6.952   3.690  0.1271  0.8778 -0.3600
41355SOL    HW236045   9.913   6.980   3.836  2.8601  0.8882 -0.8072
41356SOL     OW36046   3.370   2.920   2.058 -0.0258 -0.0162 -0.6012
41356SOL    HW136047   3.432   2.868   2.109  0.4979  0.3101 -0.8954
41356SOL    HW236048   3.399   2.909   1.967  0.3729  1.1406 -0.6345
41357SOL     OW36049   0.011  12.829  13.420  0.1779  0.3431 -0.8031
41357SOL    HW136050  -0.079  12.810  13.447  0.6258 -2.6625 -1.0653
41357SOL    HW236051   0.064  12.767  13.471  2.3540  3.0985  0.5808
41358SOL     OW36052   5.815   6.971  12.418  0.5479 -0.2840  0.3433
41358SOL    HW136053   5.777   6.892  12.455 -0.4847  0.2811  0.5303
41358SOL    HW236054   5.861   7.012  12.491  1.1128 -0.7109  0.2379
41359SOL     OW36055   1.980  13.461   4.544  0.4343 -0.4721  0.7641
41359SOL    HW136056   1.990  13.544   4.591  0.1998  0.2542 -0.4242
41359SOL    HW236057   2.036  13.471   4.467 -1.1509 -0.5840 -0.4522
41360SOL     OW36058  12.266   2.763   8.687  0.2170 -0.3345  0.1081
41360SOL    HW136059  12.198   2.697   8.701 -1.3135  0.7590 -1.6610
41360SOL    HW236060  12.247   2.831   8.751 -0.4416 -0.0036 -0.4205
41361SOL     OW36061   8.233   4.797  12.487  0.0611  0.3061  0.0573
41361SOL    HW136062   8.275   4.881  12.469 -0.8856  0.7112 -0.2677
41361SOL    HW236063   8.144   4.819  12.512 -0.9111 -0.7195 -2.2917
41362SOL     OW36064   2.786  13.239   3.310  0.4441 -0.3656  0.5208
41362SOL    HW136065   2.714  13.211   3.254  0.0321 -0.8763  1.2869
41362SOL    HW236066   2.812  13.324   3.275 -0.2748 -0.3540 -0.0057
41363SOL     OW36067   0.458   0.570  12.833 -0.1330 -0.2389  0.6448
41363SOL    HW136068   0.518   0.632  12.792 -1.8207  0.5900 -0.7289
41363SOL    HW236069   0.390   0.625  12.872 -1.4590 -1.1511 -0.2637
41364SOL     OW36070   7.785   9.390   8.427 -0.3441  0.2960 -0.0829
41364SOL    HW136071   7.845   9.460   8.451  1.0823 -0.9420  0.0984
41364SOL    HW236072   7.838   9.328   8.378 -2.1664  0.5734 -2.6103
41365SOL     OW36073   2.986   8.998   0.556  0.2504  0.4908  0.0913
41365SOL    HW136074   3.010   9.074   0.503 -1.9363  0.8486 -0.4598
41365SOL    HW236075   2.996   9.029   0.646  1.4769  0.7081 -0.0990
41366SOL     OW36076  11.728  13.839   2.408  0.2477  0.6698 -0.3198
41366SOL    HW136077  11.699  13.754   2.375  1.2056  0.2258 -0.0433
41366SOL    HW236078  11.817  13.824   2.440  0.4371  1.7785 -0.2738
41367SOL     OW36079   0.323  13.958   7.796  0.3938 -0.0269 -0.4210
41367SOL    HW136080   0.268  13.957   7.717 -0.0799  0.9176 -0.1165
41367SOL    HW236081   0.401  13.908   7.771 -0.3849 -0.9951 -1.0151
41368SOL     OW36082   0.390   8.964   3.539  0.4272  0.1206  0.2126
41368SOL    HW136083   0.404   9.055   3.511  0.9664  0.2445  0.8733
41368SOL    HW236084   0.296   8.957   3.552  0.6403  1.5589  3.3552
41369SOL     OW36085   5.616  11.424  12.667 -0.5153 -0.0377  0.3301
41369SOL    HW136086   5.606  11.486  12.595 -0.9370  0.6102  0.9266
41369SOL    HW236087   5.698  11.379  12.649 -0.0691  0.8774  0.0118
41370SOL     OW36088  13.875   6.574   3.385 -0.4490 -0.3997 -0.0672
41370SOL    HW136089  13.937   6.524   3.331 -0.5539 -0.1632 -0.4126
41370SOL    HW236090  13.903   6.557   3.475  0.5977  0.3020 -0.2353
41371SOL     OW36091   9.290   0.313   1.172  0.4336  0.0830 -0.4259
41371SOL    HW136092   9.213   0.310   1.115  2.1751 -0.8005 -2.9194
41371SOL    HW236093   9.289   0.401   1.210 -0.9827  0.6173 -1.6195
41372SOL     OW36094   6.741   2.253  10.906  0.5422  0.0241  0.5995
41372SOL    HW136095   6.675   2.233  10.973  0.0426  0.0127  0.1096
41372SOL    HW236096   6.818   2.204  10.933  0.0406 -0.7532  0.6436
41373SOL     OW36097   8.554   7.057   6.532 -0.1048 -0.2962 -0.1518
41373SOL    HW136098   8.534   7.137   6.581  0.8436  0.9055 -1.6457
41373SOL    HW236099   8.498   7.061   6.455  0.4423 -0.7280 -0.5762
41374SOL     OW36100   5.447   1.534   3.405 -0.3581  0.5516  0.1271
41374SOL    HW136101   5.446   1.469   3.335  0.1000 -0.6958  1.2536
41374SOL    HW236102   5.502   1.605   3.371 -2.3576  1.2694 -1.8625
41375SOL     OW36103   1.269   4.182   5.949 -0.3088  0.4086  0.0828
41375SOL    HW136104   1.242   4.230   6.027  0.7183 -0.2489  0.8520
41375SOL    HW236105   1.363   4.195   5.943 -0.5655  1.8619 -2.0285
41376SOL     OW36106   2.326   7.470   4.066 -0.5926  0.3800  0.0996
41376SOL    HW136107   2.244   7.429   4.040 -1.8427  2.1478  0.9936
41376SOL    HW236108   2.340   7.538   4.001  0.6046 -0.3870 -0.4727
41377SOL     OW36109   3.969   7.358  10.026  0.2204  0.1726  0.6507
41377SOL    HW136110   4.003   7.299  10.094  0.3240 -0.4764  0.0476
41377SOL    HW236111   3.908   7.415  10.072  2.2147  1.4993  1.8199
41378SOL     OW36112   9.711   3.719   4.603 -0.8942 -0.2001  0.1913
41378SOL    HW136113   9.689   3.788   4.666 -0.0474  0.7907 -0.5552
41378SOL    HW236114   9.806   3.713   4.606 -0.7280  0.5952 -1.6744
41379SOL     OW36115   1.704   0.169   1.436 -0.1007  0.1626 -0.5142
41379SOL    HW136116   1.746   0.246   1.474  0.0652  0.6741 -1.6748
41379SOL    HW236117   1.683   0.114   1.511  2.8421 -0.2380  0.1554
41380SOL     OW36118  12.774  13.573   5.853 -0.3000 -0.7476 -0.5547
41380SOL    HW136119  12.845  13.585   5.917 -0.1986 -2.7765 -0.2128
41380SOL    HW236120  12.704  13.532   5.903 -1.5434  0.6901 -1.0330
41381SOL     OW36121  13.589  11.418   1.379  0.2987  0.4279  0.1663
41381SOL    HW136122  13.550  11.341   1.338  1.4355 -0.3393  0.4756
41381SOL    HW236123  13.577  11.488   1.314  1.2722 -0.5529 -1.1437
41382SOL     OW36124   4.848   6.437   0.656 -0.0221 -0.2843  0.2280
41382SOL    HW136125   4.873   6.373   0.590 -0.7178  1.1500 -1.5260
41382SOL    HW236126   4.929   6.456   0.703  0.2667 -2.1079  0.5402
41383SOL     OW36127  13.701   8.748  11.282 -0.1241  0.1967  0.4395
41383SOL    HW136128  13.674   8.743  11.374 -0.5363 -1.4828  0.2600
41383SOL    HW236129  13.796   8.747  11.285 -0.1143  1.5550  0.8972
41384SOL     OW36130   2.032   5.297   6.759  0.8124 -0.4294  0.0683
41384SOL    HW136131   2.098   5.263   6.698 -0.1125 -1.1007 -0.5952
41384SOL    HW236132   2.062   5.268   6.845  0.2863 -2.6809 -0.4234
41385SOL     OW36133   7.278   2.593   7.759 -0.2443  0.2331  0.2046
41385SOL    HW136134   7.243   2.535   7.827 -1.5635 -1.2040 -1.5925
41385SOL    HW236135   7.373   2.582   7.764 -0.4410 -1.9429  0.1168
41386SOL     OW36136   3.430   0.010  13.015 -0.7696  0.6299  0.1983
41386SOL    HW136137   3.412  -0.004  12.922  1.7480 -0.9038 -0.1515
41386SOL    HW236138   3.447  -0.078  13.050  2.2622  1.4441  1.1286
41387SOL     OW36139   6.946  11.650  10.509  0.0618 -0.0556 -0.2260
41387SOL    HW136140   6.995  11.579  10.550  0.3076 -0.6594 -1.5075
41387SOL    HW236141   6.997  11.671  10.430  0.2651  1.8898  0.3640
41388SOL     OW36142   4.087   7.692   9.326 -0.0797 -0.0034 -0.5086
41388SOL    HW136143   4.164   7.674   9.379  0.3017 -0.5982 -1.2532
41388SOL    HW236144   4.014   7.687   9.388  0.4338  0.1738  0.1234
41389SOL     OW36145  11.836   5.012  12.258 -0.0064  0.0944  0.2362
41389SOL    HW136146  11.850   5.092  12.309  0.0976  0.7825 -0.8544
41389SOL    HW236147  11.763   5.032  12.201 -0.0095 -0.6107 -0.0168
41390SOL     OW36148  10.211  11.136   2.413 -0.3064 -0.6042 -0.6240
41390SOL    HW136149  10.168  11.159   2.331 -0.8183  0.7598  0.0032
41390SOL    HW236150  10.285  11.195   2.419  1.5275 -2.6885 -1.5103
41391SOL     OW36151   8.719   7.648  12.754 -0.0897  0.4196 -0.1204
41391SOL    HW136152   8.813   7.637  12.762 -0.2703 -1.0599  0.1862
41391SOL    HW236153   8.698   7.718  12.816  0.7155  0.2765  0.3209
41392SOL     OW36154   9.554   3.229   5.598 -0.5893 -0.2063 -0.5196
41392SOL    HW136155   9.461   3.251   5.598 -0.7739 -0.8516  0.8779
41392SOL    HW236156   9.572   3.200   5.508 -2.0933 -1.4163 -0.4784
41393SOL     OW36157   6.574   9.376   0.259 -0.4683 -0.1556  0.3534
41393SOL    HW136158   6.614   9.323   0.191 -2.6226 -0.9248 -0.3891
41393SOL    HW236159   6.583   9.323   0.339 -0.2653 -0.4189  0.1569
41394SOL     OW36160   3.034   9.197  12.475  0.5595  0.0238  0.0051
41394SOL    HW136161   3.047   9.129  12.410 -1.1544 -0.7833  0.4467
41394SOL    HW236162   3.095   9.174  12.546  0.4871 -0.6582 -0.1450
41395SOL     OW36163   5.703   7.554   0.641  1.0105  0.2197  0.2621
41395SOL    HW136164   5.707   7.477   0.585  1.5515  0.6140 -0.2474
41395SOL    HW236165   5.640   7.530   0.709  0.1813 -0.1807 -0.6294
41396SOL     OW36166   2.174  13.799   7.641 -0.1858 -0.6284  0.0743
41396SOL    HW136167   2.092  13.828   7.683  0.5962  1.8040  0.0971
41396SOL    HW236168   2.200  13.721   7.690 -0.1561  1.1424  3.1126
41397SOL     OW36169   8.661  10.407   4.535 -0.1896 -0.1555  0.0356
41397SOL    HW136170   8.608  10.432   4.611  0.9692 -2.2347  1.6334
41397SOL    HW236171   8.641  10.314   4.522  1.0856 -0.3068 -1.0079
41398SOL     OW36172   5.209  11.311  13.895  0.7886 -0.2519 -0.5657
41398SOL    HW136173   5.231  11.384  13.837  0.2628 -0.3990 -0.9649
41398SOL    HW236174   5.113  11.308  13.894  0.7513 -0.0580  0.5674
41399SOL     OW36175   6.775   4.439   0.463  0.5434 -0.8975  0.3433
41399SOL    HW136176   6.706   4.502   0.485 -0.6795 -1.5884 -1.2883
41399SOL    HW236177   6.767   4.370   0.528  0.6718 -0.2749  1.0339
41400SOL     OW36178  11.221   2.352  11.315  0.2979  0.5347  0.4023
41400SOL    HW136179  11.204   2.399  11.233  0.7698  1.6927  0.9546
41400SOL    HW236180  11.312   2.322  11.307 -0.0632 -0.4739 -0.0295
41401SOL     OW36181  11.757   8.835   5.468 -0.0569  0.4323  0.3823
41401SOL    HW136182  11.766   8.895   5.394  0.8197  1.2223  1.0905
41401SOL    HW236183  11.829   8.773   5.457  0.6058  1.0561  0.9820
41402SOL     OW36184  10.546   8.898  13.117 -0.1401 -0.2556 -0.1584
41402SOL    HW136185  10.477   8.858  13.170  0.1767  0.7692  1.0703
41402SOL    HW236186  10.625   8.851  13.142  0.0799  0.5105  0.6046
41403SOL     OW36187   3.977   1.147   6.404 -0.1602 -0.0270  0.7701
41403SOL    HW136188   4.048   1.181   6.349  0.1601 -1.0574  0.5274
41403SOL    HW236189   3.898   1.161   6.351 -0.1120  0.8290  0.9064
41404SOL     OW36190   7.416  11.748  13.824  0.8414 -0.2541  0.0407
41404SOL    HW136191   7.465  11.830  13.825 -1.6404  1.3359 -0.2248
41404SOL    HW236192   7.383  11.741  13.734 -0.7715 -0.3597  0.6080
41405SOL     OW36193   6.097   4.694  12.511 -0.1443 -0.3952  1.1131
41405SOL    HW136194   6.163   4.666  12.575  1.0692  0.7316  0.4065
41405SOL    HW236195   6.021   4.720  12.565  0.2933 -0.9054  1.9939
41406SOL     OW36196  11.006  13.214   3.678  0.2875 -0.2019 -0.2369
41406SOL    HW136197  11.059  13.258   3.611  1.2606  1.6487  1.6607
41406SOL    HW236198  10.928  13.185   3.631  1.3842  0.1126 -2.3805
41407SOL     OW36199   9.656   8.182   3.444  0.3508 -0.6640  0.2689
41407SOL    HW136200   9.614   8.118   3.502 -1.5920  0.6019  0.3434
41407SOL    HW236201   9.749   8.180   3.469  0.1795 -2.7020  0.9352
41408SOL     OW36202   9.111   8.011  12.158  0.2579  0.0800  0.6211
41408SOL    HW136203   9.193   7.998  12.204  0.0963 -0.5367  0.7506
41408SOL    HW236204   9.091   7.925  12.120  0.2316  0.4965 -0.3417
41409SOL     OW36205   6.543  10.024   7.266 -0.6215 -0.2542 -0.5233
41409SOL    HW136206   6.558   9.948   7.322 -1.8739 -0.4986 -0.4915
41409SOL    HW236207   6.596  10.094   7.305 -1.8959 -0.2582  1.3423
41410SOL     OW36208   3.665   6.419  12.317 -0.1797 -0.1162 -0.2863
41410SOL    HW136209   3.686   6.509  12.341  2.8591 -0.7712 -0.0611
41410SOL    HW236210   3.688   6.368  12.395 -1.3250 -1.1431 -0.6025
41411SOL     OW36211  12.749   1.180   2.688  0.2494 -0.6304 -0.2036
41411SOL    HW136212  12.706   1.223   2.614 -0.1112  0.3269  0.5396
41411SOL    HW236213  12.836   1.158   2.655  0.4700  0.7312 -0.6001
41412SOL     OW36214  10.519  13.064   2.499 -0.3697 -0.2427 -1.0345
41412SOL    HW136215  10.446  13.003   2.510 -0.5265 -0.2903 -2.2319
41412SOL    HW236216  10.581  13.018   2.442  0.8848 -0.4307  0.4336
41413SOL     OW36217   5.390   5.685  13.724  0.1304  0.4138  0.2387
41413SOL    HW136218   5.363   5.649  13.808 -0.1389 -0.9165 -0.3879
41413SOL    HW236219   5.316   5.737  13.694 -0.0695  0.2711  0.4887
41414SOL     OW36220   6.759   2.196   7.669  0.7556  0.6367  0.3029
41414SOL    HW136221   6.774   2.223   7.579 -0.1151  0.5292  0.1214
41414SOL    HW236222   6.717   2.271   7.710  0.2191  0.3173  0.3452
41415SOL     OW36223  10.007   8.198  11.883 -0.2577 -0.2855  0.5497
41415SOL    HW136224  10.026   8.191  11.976 -1.6819 -1.6651  0.7754
41415SOL    HW236225  10.069   8.264  11.851  0.1895  0.2980  2.4722
41416SOL     OW36226   0.720   4.464   3.294 -0.1607  0.1109 -0.0828
41416SOL    HW136227   0.703   4.551   3.330 -0.5995 -0.0267  0.0554
41416SOL    HW236228   0.709   4.475   3.199 -0.3209  0.1855 -0.0564
41417SOL     OW36229   6.535   0.093   1.184  0.0140 -0.0285  0.1550
41417SOL    HW136230   6.557   0.018   1.239  1.7506 -0.0324 -0.4649
41417SOL    HW236231   6.591   0.082   1.107 -0.8884  1.0516 -0.6698
41418SOL     OW36232   0.326  10.897   1.437  0.0281 -0.2673  0.0325
41418SOL    HW136233   0.377  10.948   1.500  0.5891 -1.4145  0.5257
41418SOL    HW236234   0.349  10.935   1.352 -1.0185  1.5436  0.4911
41419SOL     OW36235   1.064   5.571   1.826 -0.1075  0.4216  0.1501
41419SOL    HW136236   1.033   5.482   1.844  0.6593  0.5547  2.5162
41419SOL    HW236237   0.989   5.616   1.789 -1.2164 -0.6285  1.0500
41420SOL     OW36238   3.255   2.028   3.276  0.0285 -0.2756  0.0477
41420SOL    HW136239   3.239   1.979   3.356  1.8820 -1.4005 -0.2158
41420SOL    HW236240   3.234   1.966   3.206  2.4193 -0.8127 -0.2861
41421SOL     OW36241  13.718  12.066   0.542 -0.2606 -0.3447  0.1996
41421SOL    HW136242  13.782  12.094   0.608  0.0636  0.6842 -0.5392
41421SOL    HW236243  13.634  12.074   0.586 -0.2061  2.0206 -0.0187
41422SOL     OW36244   4.929   3.268   7.008  0.0790 -0.6253  0.0771
41422SOL    HW136245   4.920   3.359   6.981  1.4647 -0.5529 -0.2124
41422SOL    HW236246   4.997   3.232   6.951  0.3090 -1.5365  0.8926
41423SOL     OW36247  11.191   3.781   4.335  0.1686 -0.2848  0.2742
41423SOL    HW136248  11.131   3.802   4.264  0.6262 -0.0063 -0.0295
41423SOL    HW236249  11.245   3.859   4.346 -0.7307  0.1861  1.7909
41424SOL     OW36250   8.821   0.708   4.638  0.0770  0.3459  0.2381
41424SOL    HW136251   8.781   0.792   4.617  1.8126  1.3180  0.6074
41424SOL    HW236252   8.813   0.700   4.733  1.7384  1.1426  0.4896
41425SOL     OW36253  11.566   3.184   8.431 -0.3863 -0.3509 -0.2573
41425SOL    HW136254  11.634   3.229   8.481 -1.5910  1.2237  0.0283
41425SOL    HW236255  11.542   3.246   8.362 -0.3421 -1.5801 -1.4159
41426SOL     OW36256   5.237   7.587   8.087  0.5540 -0.1217 -0.2465
41426SOL    HW136257   5.314   7.641   8.072 -0.0988  1.0294  0.4130
41426SOL    HW236258   5.164   7.648   8.088 -0.2348 -1.0338  0.3091
41427SOL     OW36259   2.401   6.795   0.694  0.1855 -0.0192 -0.9014
41427SOL    HW136260   2.372   6.885   0.684 -0.6042 -0.0642  0.7635
41427SOL    HW236261   2.496   6.800   0.696  0.1310  0.9465  0.3897
41428SOL     OW36262  13.455   0.494   1.923  0.4340  0.1594  0.2977
41428SOL    HW136263  13.457   0.455   2.011 -1.8387  0.0246  0.3421
41428SOL    HW236264  13.411   0.578   1.935  1.4174  0.8162 -0.5086
41429SOL     OW36265   7.082   6.299   7.376 -0.3447  0.3101 -0.1201
41429SOL    HW136266   7.146   6.236   7.344 -0.4246  0.0482  0.2326
41429SOL    HW236267   7.129   6.349   7.443 -0.4836  0.1742  0.0796
41430SOL     OW36268  12.313   3.367   7.925 -0.5125 -0.3273 -0.6005
41430SOL    HW136269  12.374   3.377   7.852  0.6985 -3.0335 -0.0588
41430SOL    HW236270  12.346   3.427   7.992 -0.2062  0.3888 -1.3714
41431SOL     OW36271   3.695  12.504   1.947  0.3898 -0.2584 -0.1690
41431SOL    HW136272   3.634  12.528   1.878  0.2475  0.6007  0.2377
41431SOL    HW236273   3.675  12.565   2.019 -1.5251 -2.9735  1.8095
41432SOL     OW36274   0.343  10.174   3.006 -0.3100  0.4473 -0.1068
41432SOL    HW136275   0.394  10.193   3.085 -0.7301  1.7508 -0.1272
41432SOL    HW236276   0.396  10.110   2.959 -1.6364 -3.1895  2.8341
41433SOL     OW36277   3.110   6.373  13.971 -0.0512  0.6218  0.3988
41433SOL    HW136278   3.100   6.329  14.055 -2.2813  0.7240  0.2568
41433SOL    HW236279   3.186   6.332  13.931  0.9682  0.4745  2.3783
41434SOL     OW36280   3.668   1.082   4.227 -0.4037 -0.2743  0.3132
41434SOL    HW136281   3.751   1.078   4.276  0.6116  0.0564 -1.2991
41434SOL    HW236282   3.650   1.176   4.218 -1.0886 -0.3478  0.8358
41435SOL     OW36283   8.573   6.046  12.155  0.1240  0.5184 -0.6789
41435SOL    HW136284   8.582   5.957  12.121  1.1182  0.2295  0.2771
41435SOL    HW236285   8.486   6.047  12.195  0.5830 -0.4542  0.4240
41436SOL     OW36286   0.615  12.749  10.315  0.3210  0.6679  0.0816
41436SOL    HW136287   0.574  12.740  10.229 -1.6890 -1.8697  1.1670
41436SOL    HW236288   0.704  12.716  10.301  1.2750  3.6518 -1.7103
41437SOL     OW36289   7.575   0.599   8.555 -0.1650  0.6228  0.1125
41437SOL    HW136290   7.526   0.528   8.514  1.0134  1.1139 -2.3475
41437SOL    HW236291   7.659   0.600   8.509  1.5424  0.8919  3.0035
41438SOL     OW36292   8.882   5.665   1.182  0.3852  0.0187 -0.0758
41438SOL    HW136293   8.809   5.616   1.220  0.5291  0.4415  0.7541
41438SOL    HW236294   8.882   5.640   1.090 -1.3239  0.6484 -0.2659
41439SOL     OW36295   4.944   2.062  10.587  0.0318  0.5461 -0.3640
41439SOL    HW136296   5.001   2.083  10.513 -0.8802  0.3854 -1.1346
41439SOL    HW236297   4.856   2.084  10.556 -0.3040  1.0707  0.9049
41440SOL     OW36298  10.807   9.361   3.573  0.2880  0.9575 -0.7273
41440SOL    HW136299  10.889   9.316   3.590 -0.6891 -0.9393 -0.7545
41440SOL    HW236300  10.801   9.427   3.642  1.4732  0.6434 -0.2989
41441SOL     OW36301   6.586  11.897   8.363 -0.6312 -0.1451 -0.4015
41441SOL    HW136302   6.491  11.888   8.376 -0.6435 -0.9420 -0.9803
41441SOL    HW236303   6.616  11.808   8.345  0.5007 -0.1841  1.4094
41442SOL     OW36304   5.030   5.885   2.560  1.1591  0.5264  0.0202
41442SOL    HW136305   4.963   5.937   2.515  1.3489  1.6956  1.0159
41442SOL    HW236306   5.112   5.914   2.522  1.3117  1.4399  0.9895
41443SOL     OW36307   2.146   8.382   8.641 -0.3597  0.1780 -0.3672
41443SOL    HW136308   2.059   8.370   8.602 -0.0966 -0.9284 -0.6452
41443SOL    HW236309   2.143   8.470   8.679 -1.8529 -0.1218  0.2889
41444SOL     OW36310  10.939   6.427   6.924  0.6489  0.2368 -0.1324
41444SOL    HW136311  11.002   6.376   6.974  0.6701 -0.5938 -0.9806
41444SOL    HW236312  10.854   6.399   6.957  0.6809  0.2379 -0.0488
41445SOL     OW36313   8.825   4.300   7.397  0.4806 -0.1909 -0.6830
41445SOL    HW136314   8.758   4.362   7.425 -0.5743 -1.1795 -0.9539
41445SOL    HW236315   8.891   4.354   7.353  1.3443  1.1970  2.0897
41446SOL     OW36316  11.146   9.082  11.529 -0.0302 -0.2215  0.2228
41446SOL    HW136317  11.099   9.083  11.612 -1.2215  0.0232 -0.4264
41446SOL    HW236318  11.195   9.000  11.529 -1.2175 -0.9524  0.5320
41447SOL     OW36319   6.978  11.039   2.723  0.1231 -0.5359 -0.1685
41447SOL    HW136320   6.890  11.066   2.697  0.3632  1.1531  0.6073
41447SOL    HW236321   7.036  11.103   2.681  0.8427 -0.5722  0.7467
41448SOL     OW36322   0.963   9.950   8.208  0.3023  0.5617 -0.4824
41448SOL    HW136323   0.970  10.039   8.242  0.1046  0.7861 -1.0320
41448SOL    HW236324   1.027   9.900   8.259 -0.8584  0.6178  1.1069
41449SOL     OW36325   2.190   7.625   0.991 -0.0060  0.2644 -0.4234
41449SOL    HW136326   2.277   7.594   1.017 -0.1419 -0.8660 -1.2550
41449SOL    HW236327   2.205   7.672   0.909 -0.1008  0.6301 -0.2344
41450SOL     OW36328  10.953   5.719   1.379 -0.2092  0.0089  0.2310
41450SOL    HW136329  10.909   5.663   1.315  2.9337  1.5186 -3.6614
41450SOL    HW236330  11.033   5.672   1.400  1.1271  1.6751 -0.9036
41451SOL     OW36331  11.872  11.407   5.282 -0.6601 -0.3985  0.3153
41451SOL    HW136332  11.779  11.422   5.263 -0.1861  1.5272 -0.7553
41451SOL    HW236333  11.913  11.399   5.196  0.2976 -0.2095  0.7451
41452SOL     OW36334   2.459  13.956   7.680 -0.4677  0.6202  0.0037
41452SOL    HW136335   2.401  13.902   7.625  1.7407 -0.1795 -1.7461
41452SOL    HW236336   2.504  14.013   7.617  0.6239  1.1880  1.2592
41453SOL     OW36337   7.554   5.876   0.167 -0.2750 -0.2041 -0.6631
41453SOL    HW136338   7.495   5.905   0.097  0.2494  1.6395 -0.3821
41453SOL    HW236339   7.608   5.952   0.186  2.4805 -1.9213 -1.1275
41454SOL     OW36340   3.325  11.492  12.372 -0.4301 -0.2904 -0.8149
41454SOL    HW136341   3.396  11.532  12.323 -0.0681 -0.7634 -0.6857
41454SOL    HW236342   3.278  11.439  12.308  0.2127 -1.1344 -0.6060
41455SOL     OW36343   1.329   5.152   2.500 -0.3473 -0.3499  0.0017
41455SOL    HW136344   1.252   5.197   2.534  0.3585 -0.7825  2.3730
41455SOL    HW236345   1.393   5.222   2.484 -1.0388 -0.0386 -1.5129
41456SOL     OW36346   2.640   9.643   4.762 -0.8014 -0.4001  0.0739
41456SOL    HW136347   2.629   9.558   4.719 -0.3571  0.3007 -1.4652
41456SOL    HW236348   2.560   9.691   4.740 -1.2989 -0.5739  1.3906
41457SOL     OW36349   2.720  13.424   3.981 -0.1923  0.3523  0.2960
41457SOL    HW136350   2.686  13.510   4.007 -1.0325  0.8026 -2.0160
41457SOL    HW236351   2.743  13.381   4.063 -2.6288  1.5955  1.7520
41458SOL     OW36352   2.930   3.984   3.101 -0.2702 -0.1634  0.2191
41458SOL    HW136353   2.856   3.934   3.065  0.9228 -1.9467  0.1266
41458SOL    HW236354   2.926   4.069   3.056 -2.4352 -0.0744  0.4666
41459SOL     OW36355   4.890   6.601   9.381  0.0042  0.1279  0.2589
41459SOL    HW136356   4.807   6.573   9.342 -0.5175 -1.4838  2.3415
41459SOL    HW236357   4.866   6.666   9.447  0.5215  0.4290  0.1597
41460SOL     OW36358   3.261   9.250   3.884 -0.5506  0.0236  0.3589
41460SOL    HW136359   3.167   9.259   3.902 -0.7123 -0.4750 -0.1968
41460SOL    HW236360   3.266   9.236   3.790  0.0513 -0.3897  0.4439
41461SOL     OW36361  10.259   5.233   8.026  0.4568 -0.4016 -0.0259
41461SOL    HW136362  10.298   5.309   8.069 -0.3420 -0.1711  0.2873
41461SOL    HW236363  10.332   5.196   7.975  0.7297  0.8513 -0.5845
41462SOL     OW36364   0.061   6.745   6.163  0.3694 -0.3506 -0.0535
41462SOL    HW136365  -0.014   6.768   6.217  0.0057  1.8648 -1.4009
41462SOL    HW236366   0.137   6.757   6.221 -0.1037  0.7141  0.3650
41463SOL     OW36367   9.283   1.974   4.738 -0.4463  0.8129 -0.3387
41463SOL    HW136368   9.213   1.994   4.800  1.1065  1.8032  1.2050
41463SOL    HW236369   9.335   2.055   4.734  2.5451 -0.8211  1.2965
41464SOL     OW36370   6.410   5.124   0.583 -0.1184 -0.2962  0.2477
41464SOL    HW136371   6.362   5.105   0.664  0.9100  0.4970  1.0854
41464SOL    HW236372   6.344   5.122   0.514 -1.0226 -0.9953  1.1053
41465SOL     OW36373   7.023  13.634   8.375 -0.1140 -0.0073 -0.0680
41465SOL    HW136374   6.982  13.651   8.460  0.4261 -1.5001  0.5223
41465SOL    HW236375   7.117  13.636   8.393  0.0451  0.7466 -0.8769
41466SOL     OW36376  13.350   6.558  13.939 -0.2291 -0.7542 -0.7845
41466SOL    HW136377  13.442   6.556  13.963 -0.1606 -0.7618 -1.0496
41466SOL    HW236378  13.347   6.609  13.858 -0.4853 -0.5583 -0.6546
41467SOL     OW36379   9.560  13.740   8.207 -0.1909  0.2190 -0.3253
41467SOL    HW136380   9.515  13.766   8.288  0.0908 -0.6523  0.1253
41467SOL    HW236381   9.596  13.821   8.172 -0.4051  0.6211  0.3731
41468SOL     OW36382   3.490   3.471   3.169  0.2159 -0.4483  0.0003
41468SOL    HW136383   3.572   3.518   3.156 -0.4337  0.9992  0.8116
41468SOL    HW236384   3.486   3.455   3.263  0.5836 -2.5018 -0.3049
41469SOL     OW36385   9.652  12.465   2.152  0.4003  0.7016 -0.0472
41469SOL    HW136386   9.713  12.442   2.081  0.7653  1.4791 -0.0029
41469SOL    HW236387   9.580  12.510   2.107  0.5858  1.1098  0.0555
41470SOL     OW36388  13.549   7.360   9.466 -0.3830 -0.0701 -0.0420
41470SOL    HW136389  13.468   7.389   9.424 -0.4274  0.4612  0.3967
41470SOL    HW236390  13.605   7.438   9.465 -0.4638  0.0279  1.0554
41471SOL     OW36391   9.658  13.774  13.844  0.2960  0.2744  0.5803
41471SOL    HW136392   9.722  13.805  13.907  0.6383 -0.2443  0.4931
41471SOL    HW236393   9.573  13.800  13.880  0.4514 -0.4672  1.5147
41472SOL     OW36394  12.720  11.180   5.271 -0.1078  0.4263 -0.2696
41472SOL    HW136395  12.683  11.179   5.359 -0.3662 -0.5053 -0.3820
41472SOL    HW236396  12.646  11.161   5.213  0.4176 -0.9533 -0.5353
41473SOL     OW36397   6.635   1.524   7.559  0.0600  0.0385 -0.3107
41473SOL    HW136398   6.654   1.440   7.602  2.2471  0.8962  0.5487
41473SOL    HW236399   6.709   1.580   7.582 -1.5509  2.3722 -0.5048
41474SOL     OW36400  11.101  10.466   0.746 -0.1636 -0.0080 -0.2711
41474SOL    HW136401  11.195  10.471   0.762 -0.3803  2.3271  0.7340
41474SOL    HW236402  11.062  10.461   0.833 -0.9906 -1.6132 -0.6912
41475SOL     OW36403   8.814   9.659   5.472 -0.6008 -0.1181 -0.1140
41475SOL    HW136404   8.889   9.656   5.413 -0.4094  0.5722  0.0852
41475SOL    HW236405   8.800   9.568   5.498 -1.2340 -0.5733 -1.9003
41476SOL     OW36406  11.690   3.038   6.082 -0.3045 -0.4339 -0.1059
41476SOL    HW136407  11.714   2.966   6.141  1.2967 -0.8930 -1.2492
41476SOL    HW236408  11.729   3.116   6.123 -1.4405 -0.2994  0.7672
41477SOL     OW36409  11.857   0.780   9.598 -0.0201  0.6084 -0.1542
41477SOL    HW136410  11.895   0.814   9.517 -1.3909  0.5683 -0.8460
41477SOL    HW236411  11.765   0.806   9.594 -0.2335  0.1195  1.1261
41478SOL     OW36412  12.085   3.585  13.444  0.1912  0.4349 -0.3197
41478SOL    HW136413  12.110   3.654  13.383  3.6751 -0.3858 -0.0462
41478SOL    HW236414  12.120   3.504  13.405  3.0761 -0.0506  2.7953
41479SOL     OW36415   3.418   2.264   7.627 -0.0998 -0.3179  0.5608
41479SOL    HW136416   3.389   2.355   7.630  0.8862 -0.0236  1.6327
41479SOL    HW236417   3.406   2.239   7.535 -2.8720  0.0377  0.7575
41480SOL     OW36418  11.972   4.278   6.681 -0.4361  0.0635  0.1451
41480SOL    HW136419  12.057   4.264   6.721  0.0896  1.2777 -0.4951
41480SOL    HW236420  11.941   4.190   6.658  1.4392 -0.3122 -1.2161
41481SOL     OW36421   8.670   0.521  13.686 -0.0710 -0.0665 -0.1508
41481SOL    HW136422   8.693   0.534  13.778  0.4866 -0.6926 -0.1886
41481SOL    HW236423   8.753   0.498  13.644 -0.3637 -0.0209 -0.7657
41482SOL     OW36424   9.465   7.035   5.994  0.3188 -0.0480  0.0806
41482SOL    HW136425   9.407   7.022   6.069  0.7038 -1.8251  0.1286
41482SOL    HW236426   9.529   6.964   6.002  0.2332 -0.4169 -2.0377
41483SOL     OW36427   8.285   5.932   9.134  0.0441 -0.0826 -0.0479
41483SOL    HW136428   8.248   5.987   9.064 -1.2572  0.3797  0.9738
41483SOL    HW236429   8.370   5.904   9.099 -0.7087 -0.1496 -1.9505
41484SOL     OW36430   8.075   2.328  13.921  0.2459 -0.4256  0.2627
41484SOL    HW136431   8.089   2.246  13.872  1.5573  0.7775 -1.4940
41484SOL    HW236432   8.149   2.333  13.981  0.8135  0.0376 -0.4686
41485SOL     OW36433   2.520   0.161   7.789  0.1282  0.1030  0.0739
41485SOL    HW136434   2.606   0.159   7.832  0.2558 -0.8697 -0.2117
41485SOL    HW236435   2.520   0.085   7.731 -1.1068 -0.1880  0.4220
41486SOL     OW36436   0.165   0.559  12.068 -0.4668 -0.4051 -0.2303
41486SOL    HW136437   0.118   0.482  12.036 -1.2282  0.4764 -1.3098
41486SOL    HW236438   0.249   0.525  12.099 -1.0096 -1.7390 -0.1346
41487SOL     OW36439  13.409   3.651  11.626  0.1983  0.5413 -0.8949
41487SOL    HW136440  13.423   3.699  11.707  1.8121 -0.5295 -0.4783
41487SOL    HW236441  13.411   3.559  11.652  0.8294  0.1799 -2.1424
41488SOL     OW36442   7.968  11.734  12.708  0.4239  0.1883 -0.1764
41488SOL    HW136443   7.968  11.660  12.647 -0.5377 -0.2539  0.3297
41488SOL    HW236444   7.980  11.811  12.653  2.0741 -0.3689 -0.6632
41489SOL     OW36445   2.084   7.560   5.409 -0.3980 -0.2964 -0.2663
41489SOL    HW136446   1.992   7.556   5.436 -0.3772  2.0391  0.3707
41489SOL    HW236447   2.080   7.560   5.313 -0.9897 -1.0206 -0.2533
41490SOL     OW36448   5.093   0.889  12.510  0.0423 -0.0251 -0.6084
41490SOL    HW136449   5.187   0.882  12.529  0.4097  0.3700 -2.1346
41490SOL    HW236450   5.086   0.863  12.418 -1.5610 -1.5217 -0.1090
41491SOL     OW36451   7.390   3.876   5.602 -0.0942  0.3219  0.2470
41491SOL    HW136452   7.474   3.889   5.647  0.2649 -0.6692 -0.1120
41491SOL    HW236453   7.410   3.887   5.509 -0.2002 -0.6328  0.1021
41492SOL     OW36454   7.230   8.335   5.106  0.0352  0.4430 -0.3181
41492SOL    HW136455   7.243   8.428   5.086 -0.3352  0.4114 -0.7289
41492SOL    HW236456   7.241   8.291   5.022  1.9613 -0.0893  0.1728
41493SOL     OW36457   1.796  10.762   6.306  0.3549  0.6942  0.4781
41493SOL    HW136458   1.752  10.783   6.223  1.7917  0.7202 -0.3080
41493SOL    HW236459   1.881  10.727   6.280  0.3323 -0.5215  1.9256
41494SOL     OW36460   2.653   5.543  10.987 -0.1717  0.4768 -0.0614
41494SOL    HW136461   2.606   5.626  10.982  0.9964  1.0791 -2.3219
41494SOL    HW236462   2.725   5.552  10.925 -0.3767 -2.4831 -0.8895
41495SOL     OW36463  11.483   5.516  10.180  0.2773 -0.8753 -0.2424
41495SOL    HW136464  11.479   5.448  10.246 -4.0334 -1.3358 -0.6624
41495SOL    HW236465  11.496   5.597  10.229 -1.4004 -1.3626  1.0963
41496SOL     OW36466   9.248   4.173   6.852 -0.5047  0.1617  0.1814
41496SOL    HW136467   9.191   4.221   6.792 -0.8271 -1.4156 -0.8540
41496SOL    HW236468   9.322   4.145   6.798  0.7795  1.3177  1.2759
41497SOL     OW36469   3.882   0.269   1.365 -0.5167  0.5147  0.2843
41497SOL    HW136470   3.953   0.289   1.303 -1.4814  1.8211 -0.4491
41497SOL    HW236471   3.898   0.327   1.439 -1.7905  2.1449 -0.6646
41498SOL     OW36472   6.683  11.198  11.357  0.6053  0.0565 -0.6273
41498SOL    HW136473   6.720  11.131  11.300 -0.8924 -1.3454 -0.0494
41498SOL    HW236474   6.665  11.152  11.439 -0.9066  1.0262 -0.3803
41499SOL     OW36475   9.602   7.679  12.106  0.7071  0.1446  0.3549
41499SOL    HW136476   9.528   7.736  12.088  0.5318 -0.5462 -1.2864
41499SOL    HW236477   9.586   7.646  12.195 -1.6572 -0.9915 -0.4134
41500SOL     OW36478  12.660  12.458   1.898  0.6417  0.1081  0.2522
41500SOL    HW136479  12.661  12.363   1.901 -0.0850  0.0735 -0.3756
41500SOL    HW236480  12.727  12.481   1.834 -0.0454 -0.0339 -0.5249
41501SOL     OW36481  10.643  13.915   7.270 -0.3760 -0.3190  0.1428
41501SOL    HW136482  10.614  13.846   7.211  1.0877 -0.9372  0.0933
41501SOL    HW236483  10.673  13.985   7.213 -1.7436  0.3327  0.1929
41502SOL     OW36484   8.553   1.811  10.010 -0.4758  0.3215  0.1683
41502SOL    HW136485   8.480   1.787   9.952  1.0572 -0.8599 -1.3816
41502SOL    HW236486   8.594   1.886   9.967  1.1012 -1.0025 -0.7522
41503SOL     OW36487   8.629   3.796   5.095 -0.8903  0.1272  0.1832
41503SOL    HW136488   8.608   3.718   5.147  0.6916 -0.2361  0.3316
41503SOL    HW236489   8.594   3.777   5.008 -1.9034 -0.0730  0.6245
41504SOL     OW36490  11.592   7.824   0.040 -0.8494 -0.0285 -0.3716
41504SOL    HW136491  11.611   7.748  -0.015 -1.4494 -0.0322 -0.5747
41504SOL    HW236492  11.653   7.816   0.113  0.8521  0.6708 -1.6534
41505SOL     OW36493   9.747   3.785  10.075  0.0673  0.5991  0.0069
41505SOL    HW136494   9.718   3.708  10.024  1.0817 -0.0784  0.4230
41505SOL    HW236495   9.840   3.793  10.055  0.4937  0.3086  1.7492
41506SOL     OW36496  13.202  13.829   7.458  0.0784  0.4151  0.3281
41506SOL    HW136497  13.124  13.793   7.415 -1.4586  2.1316  1.5215
41506SOL    HW236498  13.233  13.896   7.397  1.5547 -1.1998 -0.8073
41507SOL     OW36499   4.825   1.952   0.241  0.2625 -0.4591 -0.0123
41507SOL    HW136500   4.781   1.985   0.162 -0.1580 -0.2971  0.2846
41507SOL    HW236501   4.777   1.993   0.313 -0.5470 -2.0516  0.3844
41508SOL     OW36502  13.336  10.403  11.268  0.3189 -0.0216  0.0020
41508SOL    HW136503  13.381  10.482  11.239  0.5220  0.4342  1.4408
41508SOL    HW236504  13.259  10.397  11.213  0.3708  1.1159 -0.2095
41509SOL     OW36505  13.711   7.512   5.994  0.1004  0.1948  0.3479
41509SOL    HW136506  13.637   7.568   5.971  0.4155  0.3163 -0.4207
41509SOL    HW236507  13.763   7.565   6.055 -0.5810 -0.0032  1.1195
41510SOL     OW36508   4.071   1.465   2.438  0.4461 -0.4199 -0.1874
41510SOL    HW136509   4.143   1.502   2.388  1.2596 -0.1954  1.0882
41510SOL    HW236510   4.063   1.375   2.407  0.4181 -0.0715 -1.2334
41511SOL     OW36511   6.479   3.912   1.916 -0.3421  0.2349 -0.8164
41511SOL    HW136512   6.412   3.976   1.890 -0.0675  1.1151  0.5029
41511SOL    HW236513   6.433   3.828   1.917 -1.4058  0.7954 -0.0988
41512SOL     OW36514   0.803   8.921   0.809  0.2221 -0.3825 -0.0127
41512SOL    HW136515   0.861   8.940   0.736 -0.3328  0.8381 -0.1747
41512SOL    HW236516   0.860   8.888   0.878  0.9219 -0.3831 -0.5831
41513SOL     OW36517   0.143   0.772   7.904  0.0489 -0.1035  0.0326
41513SOL    HW136518   0.054   0.758   7.938 -0.4842 -0.5751 -1.4882
41513SOL    HW236519   0.161   0.864   7.922 -1.3856  0.4192 -1.0299
41514SOL     OW36520   4.338   9.270   6.751  0.0885  0.2021  0.2432
41514SOL    HW136521   4.347   9.316   6.667 -2.4718  1.1590  0.4162
41514SOL    HW236522   4.335   9.339   6.817 -3.7794 -0.0329  0.5148
41515SOL     OW36523   4.951  12.589   6.731  0.3400 -0.6453 -0.6641
41515SOL    HW136524   4.946  12.512   6.787  0.2170 -0.3644 -0.2871
41515SOL    HW236525   4.929  12.557   6.644  1.1517 -1.2046 -0.6671
41516SOL     OW36526   7.500   2.031   1.302 -0.3654 -0.0426 -0.1100
41516SOL    HW136527   7.523   1.990   1.385  3.0583  1.2560 -0.2361
41516SOL    HW236528   7.571   2.006   1.242 -2.3035 -0.2986 -2.4838
41517SOL     OW36529  12.131   8.068   6.516 -0.3343  0.3003  0.0346
41517SOL    HW136530  12.118   8.122   6.594 -1.1179 -1.0221  0.8668
41517SOL    HW236531  12.222   8.084   6.491 -0.5364  1.9535  0.2688
41518SOL     OW36532  10.985   3.435   3.122 -0.1495  0.0542  0.4713
41518SOL    HW136533  11.000   3.507   3.183  1.4267 -0.0628  0.2711
41518SOL    HW236534  11.070   3.421   3.080 -0.4530 -1.8096  0.3778
41519SOL     OW36535  11.012  10.081   3.228 -0.0098  0.2756  0.2300
41519SOL    HW136536  10.921  10.070   3.199  0.2599 -2.0851  0.0603
41519SOL    HW236537  11.043   9.992   3.244  1.7970  1.1203  1.8619
41520SOL     OW36538   0.868   7.548   5.945  0.2522 -0.4663 -0.3054
41520SOL    HW136539   0.852   7.498   5.866  0.9470  1.0875 -1.4780
41520SOL    HW236540   0.803   7.516   6.007 -0.4844 -1.5206 -1.5748
41521SOL     OW36541  13.867   7.127  11.551  0.0967 -0.4710 -0.0786
41521SOL    HW136542  13.820   7.051  11.519 -1.3852  0.6023 -0.5784
41521SOL    HW236543  13.907   7.166  11.474  1.1254 -0.9048  0.2218
41522SOL     OW36544   0.257  11.849   0.905  0.7009 -0.4440  0.6307
41522SOL    HW136545   0.220  11.923   0.857 -0.0739 -0.1054  1.7050
41522SOL    HW236546   0.285  11.788   0.837  0.3918  0.3683 -0.2583
41523SOL     OW36547   2.536   3.014   7.220  0.1265  0.1840  0.6387
41523SOL    HW136548   2.565   2.968   7.142  0.2862 -0.6982  1.2089
41523SOL    HW236549   2.551   3.107   7.201  2.3753 -0.1533  0.5189
41524SOL     OW36550   2.673  13.116   6.407  0.2571 -0.0308 -0.2416
41524SOL    HW136551   2.654  13.196   6.358  1.0841  0.2692 -0.0948
41524SOL    HW236552   2.654  13.046   6.345  0.0451  0.3004 -0.5599
41525SOL     OW36553   9.209   0.451   3.688 -0.0093 -0.3831 -0.3479
41525SOL    HW136554   9.236   0.443   3.780 -0.0635  3.9838  0.2768
41525SOL    HW236555   9.286   0.484   3.643 -0.9444  0.9029 -1.0660
41526SOL     OW36556   2.480  11.820   2.099  0.2629  0.4334  0.2272
41526SOL    HW136557   2.407  11.763   2.124 -0.9715  1.1203 -1.5694
41526SOL    HW236558   2.438  11.904   2.078  1.7624  1.3035  0.5711
41527SOL     OW36559  12.727  10.540   7.382  0.8843 -0.2687 -0.0655
41527SOL    HW136560  12.794  10.477   7.353  0.4372 -0.0006 -1.7452
41527SOL    HW236561  12.737  10.615   7.324  1.4614  1.3174  1.9586
41528SOL     OW36562   2.823   6.816   3.351 -0.0487 -0.1088  0.3573
41528SOL    HW136563   2.915   6.819   3.375  0.3996  0.3601 -1.2978
41528SOL    HW236564   2.819   6.756   3.276 -1.1728 -0.5292  0.7244
41529SOL     OW36565   5.802   1.107   5.833 -0.1228 -0.1300  0.0525
41529SOL    HW136566   5.816   1.112   5.927 -1.1578 -1.3959  0.3116
41529SOL    HW236567   5.707   1.105   5.823 -0.0249 -0.1879 -1.0088
41530SOL     OW36568  13.224   2.198   0.607  0.2938 -0.0467 -0.5845
41530SOL    HW136569  13.189   2.128   0.552  1.7048 -0.8726 -0.4658
41530SOL    HW236570  13.238   2.157   0.693  2.3716 -0.0233 -0.8637
41531SOL     OW36571   9.858   3.379   3.126 -0.2671 -0.1508  0.1950
41531SOL    HW136572   9.950   3.380   3.151  0.2041  0.8997 -1.4440
41531SOL    HW236573   9.857   3.339   3.039 -1.3948 -0.3615  0.2834
41532SOL     OW36574   5.369   2.717   1.225 -0.3028 -0.2837  0.3850
41532SOL    HW136575   5.288   2.769   1.228 -0.8494 -1.0520 -0.5159
41532SOL    HW236576   5.403   2.721   1.314 -0.2521  1.7297  0.3274
41533SOL     OW36577   7.462   9.229   7.972  0.1005  0.2334  0.2804
41533SOL    HW136578   7.550   9.226   8.009  0.6209  1.1738 -0.8207
41533SOL    HW236579   7.475   9.222   7.878 -1.1001 -0.7807  0.1667
41534SOL     OW36580  12.426   0.753  10.782 -0.6756  0.2657  0.4917
41534SOL    HW136581  12.460   0.841  10.765 -2.0996  0.8222  0.4553
41534SOL    HW236582  12.481   0.696  10.727 -0.1316  1.1863  0.0515
41535SOL     OW36583   8.883  12.056  11.909  0.0335  0.2950 -0.8623
41535SOL    HW136584   8.943  12.121  11.874  0.3811  0.3775 -0.1091
41535SOL    HW236585   8.930  12.015  11.982  1.6404 -3.8081 -3.7713
41536SOL     OW36586   3.729   2.539   9.222 -0.2391  0.4305  0.3358
41536SOL    HW136587   3.656   2.478   9.223 -0.8915  1.1920  0.6477
41536SOL    HW236588   3.700   2.610   9.163  0.5777  0.3559 -0.1760
41537SOL     OW36589   3.529   3.666   6.802  0.4483 -0.0916  0.2702
41537SOL    HW136590   3.497   3.599   6.742  2.0816 -1.0771  0.4351
41537SOL    HW236591   3.611   3.697   6.762  1.3505 -0.4782  1.7612
41538SOL     OW36592   8.248   2.085   7.650 -0.4904 -0.0107  0.2327
41538SOL    HW136593   8.231   2.036   7.569 -1.9350  0.4958  0.2006
41538SOL    HW236594   8.266   2.174   7.620 -0.0335 -0.0451  0.4094
41539SOL     OW36595   9.904  13.711   7.908 -0.1365 -0.0238  0.4363
41539SOL    HW136596   9.941  13.794   7.939 -2.8921  1.8500 -0.8112
41539SOL    HW236597   9.934  13.704   7.817  0.2305 -0.4806  0.5926
41540SOL     OW36598  10.870  12.727   3.843  0.1831 -0.2987  0.0972
41540SOL    HW136599  10.776  12.727   3.824 -0.2728 -1.8914  2.0157
41540SOL    HW236600  10.911  12.714   3.757 -1.3244  0.2728 -0.7641
41541SOL     OW36601   8.005  13.248   9.851  0.2682  0.1616 -0.0470
41541SOL    HW136602   7.983  13.155   9.854  0.6829  0.0269 -0.8633
41541SOL    HW236603   7.946  13.289   9.915 -1.1909 -0.4075 -0.9711
41542SOL     OW36604   3.444  11.008   1.939 -0.4881 -0.5608  0.7249
41542SOL    HW136605   3.370  10.994   1.880  0.8281 -0.8765 -0.9340
41542SOL    HW236606   3.483  10.922   1.950  0.2970 -0.2265  0.6515
41543SOL     OW36607  12.202   8.412   0.451 -0.0642  0.1671  0.3281
41543SOL    HW136608  12.200   8.382   0.360 -4.0439 -0.4823  0.4346
41543SOL    HW236609  12.213   8.507   0.446 -1.8025  0.3347 -0.9858
41544SOL     OW36610   2.240   3.340  10.508 -0.5098  0.0600 -0.4919
41544SOL    HW136611   2.225   3.417  10.562  0.9816  1.2123 -1.5946
41544SOL    HW236612   2.175   3.276  10.537 -1.1546  1.3806  1.1260
41545SOL     OW36613   7.638   3.619   8.106 -0.7091 -0.1451 -0.3838
41545SOL    HW136614   7.584   3.688   8.067  0.2091  0.1581 -1.1597
41545SOL    HW236615   7.584   3.540   8.100 -1.4441  0.3458 -0.2508
41546SOL     OW36616  13.212   4.850  11.888  0.5736 -0.2729 -0.2914
41546SOL    HW136617  13.153   4.800  11.832  1.9724 -1.0034 -1.1592
41546SOL    HW236618  13.173   4.937  11.892 -0.9927 -0.9430 -0.1545
41547SOL     OW36619   1.727  10.776   5.589 -0.5604 -0.4499 -0.2929
41547SOL    HW136620   1.788  10.715   5.629  0.7086  1.2424  0.5220
41547SOL    HW236621   1.672  10.807   5.661 -1.6369 -1.1107 -0.8158
41548SOL     OW36622   9.209   8.273   5.012 -0.1336 -0.1608  0.1729
41548SOL    HW136623   9.210   8.368   5.018  1.0888 -0.1880  0.6297
41548SOL    HW236624   9.283   8.244   5.066 -1.7166 -1.4895  1.7576
41549SOL     OW36625   2.332  10.332   9.199 -0.3161 -0.2615  0.2235
41549SOL    HW136626   2.280  10.370   9.129  0.4950 -1.9171 -1.3704
41549SOL    HW236627   2.410  10.387   9.204  0.5723 -1.2395 -1.6463
41550SOL     OW36628  12.296   0.803   5.248 -0.0541 -0.2796 -0.1657
41550SOL    HW136629  12.222   0.829   5.193 -0.6381 -0.0763  0.6921
41550SOL    HW236630  12.325   0.885   5.289 -1.7698 -0.8183  2.4023
41551SOL     OW36631  11.114   0.532  12.560 -0.3469  0.3340  0.2172
41551SOL    HW136632  11.085   0.623  12.553  1.8054  0.9475 -2.2575
41551SOL    HW236633  11.067   0.486  12.491 -0.9167 -0.3373  1.0226
41552SOL     OW36634   9.484   0.620  12.127 -0.0179  0.0791  0.4381
41552SOL    HW136635   9.568   0.583  12.155 -0.7684 -0.9947  1.3715
41552SOL    HW236636   9.505   0.710  12.103  1.3178 -0.0106  1.1429
41553SOL     OW36637   9.656  13.705  11.045 -0.4634  0.0367 -1.4140
41553SOL    HW136638   9.640  13.614  11.020  1.5588 -1.6156  2.3493
41553SOL    HW236639   9.745  13.723  11.015  1.3550 -1.4160  2.4210
41554SOL     OW36640  13.470  10.150   6.549 -0.2756  0.5464 -0.3304
41554SOL    HW136641  13.413  10.088   6.503 -0.8141  0.3233  0.5887
41554SOL    HW236642  13.547  10.158   6.494  1.6348 -3.9317  1.1863
41555SOL     OW36643   1.428   6.666   2.821  1.0156 -0.3598 -0.2668
41555SOL    HW136644   1.421   6.605   2.894 -1.1133 -2.0780 -1.8117
41555SOL    HW236645   1.381   6.625   2.749  2.7051  1.4068 -2.5753
41556SOL     OW36646  11.002   9.833   6.111 -0.2360 -0.0340 -0.5268
41556SOL    HW136647  11.009   9.927   6.092 -0.7692 -0.2598 -1.9637
41556SOL    HW236648  11.065   9.818   6.181 -1.0183  1.6162  0.5892
41557SOL     OW36649  12.618   6.572   8.378  0.2219  0.2165  0.2768
41557SOL    HW136650  12.606   6.499   8.318 -1.0233  1.9435 -1.7196
41557SOL    HW236651  12.710   6.597   8.368  0.4776 -0.6262  0.4577
41558SOL     OW36652   6.463   3.591   8.248  0.2789 -0.3049  0.5629
41558SOL    HW136653   6.406   3.613   8.322  1.0450  1.4775  0.6736
41558SOL    HW236654   6.450   3.497   8.235 -2.3743 -0.0566  0.8289
41559SOL     OW36655   3.366   9.183   5.832 -0.3095  0.1430  0.2632
41559SOL    HW136656   3.300   9.192   5.901 -1.8013  0.5579 -1.1600
41559SOL    HW236657   3.324   9.220   5.754  1.0754 -0.9261 -1.0339
41560SOL     OW36658   7.919   4.383  12.919  0.2456  0.1320 -0.2793
41560SOL    HW136659   7.832   4.376  12.881  0.0134  0.4758  0.1797
41560SOL    HW236660   7.920   4.469  12.962  0.1641 -0.6429  1.3374
41561SOL     OW36661   6.542   5.335   7.565 -0.2910 -0.1450  0.1854
41561SOL    HW136662   6.593   5.312   7.488  0.2550 -2.6102  1.2096
41561SOL    HW236663   6.493   5.256   7.587 -1.4579  0.9084  1.6029
41562SOL     OW36664   8.375   7.362   4.647  0.5540 -0.1257  0.2024
41562SOL    HW136665   8.379   7.316   4.732 -1.6488 -0.0668  0.3740
41562SOL    HW236666   8.360   7.292   4.583  1.5550 -0.0881 -0.1013
41563SOL     OW36667   9.067  13.976   5.564 -0.4926 -0.0696  0.1769
41563SOL    HW136668   9.043  13.929   5.484 -1.2194 -0.0090  0.3523
41563SOL    HW236669   9.161  13.963   5.572 -0.7017 -1.6032  0.2895
41564SOL     OW36670   0.544  13.543   0.937 -0.6829 -0.3127 -0.1645
41564SOL    HW136671   0.559  13.465   0.884  0.7578  0.4170 -0.8637
41564SOL    HW236672   0.498  13.603   0.880  0.6150  0.3628 -0.5418
41565SOL     OW36673   8.315   5.707   6.053 -0.1463 -0.6544  0.0677
41565SOL    HW136674   8.298   5.721   5.960 -1.8765  1.8813  0.6634
41565SOL    HW236675   8.410   5.710   6.060  0.0194 -0.7980 -1.5932
41566SOL     OW36676  12.691   6.035   6.710  0.3806 -0.0669  0.6055
41566SOL    HW136677  12.653   6.121   6.693  1.6207  0.6108  1.1347
41566SOL    HW236678  12.701   6.033   6.805  0.6341 -0.6786  0.5642
41567SOL     OW36679   9.254   7.506  10.049  0.0707 -0.5004 -0.0734
41567SOL    HW136680   9.306   7.487   9.971 -0.7485  1.1746 -1.0828
41567SOL    HW236681   9.188   7.437  10.051  0.5210 -0.9539 -0.4531
41568SOL     OW36682   7.929   5.477   7.640  0.2314 -0.3343  0.0964
41568SOL    HW136683   8.023   5.467   7.656  0.4255  0.6497 -0.3328
41568SOL    HW236684   7.887   5.433   7.714  1.0497  0.0460  0.8003
41569SOL     OW36685   6.114   2.776   4.596  0.0526  0.4456 -0.1497
41569SOL    HW136686   6.124   2.827   4.515  1.4818 -0.3933 -0.5337
41569SOL    HW236687   6.095   2.841   4.663 -0.8145  1.1999 -1.0762
41570SOL     OW36688   6.445   9.435   5.938  0.1628 -0.5477 -0.1558
41570SOL    HW136689   6.406   9.388   6.012  2.0314 -0.6911  0.8066
41570SOL    HW236690   6.437   9.375   5.864  0.8398 -1.6525  0.6267
41571SOL     OW36691   9.462  10.483   3.340  0.2293 -0.3022 -0.0401
41571SOL    HW136692   9.549  10.442   3.350  0.4550 -0.1157 -1.0889
41571SOL    HW236693   9.458  10.507   3.248 -1.0852 -0.6055 -0.0781
41572SOL     OW36694  11.498   4.656  13.191 -0.0346  0.2842 -0.3897
41572SOL    HW136695  11.573   4.601  13.168 -0.7285 -1.1887  0.7604
41572SOL    HW236696  11.526   4.745  13.168  1.9762 -0.2493 -0.1932
41573SOL     OW36697   4.079   6.876   2.661 -0.3466  0.6386 -0.2278
41573SOL    HW136698   4.105   6.785   2.669 -2.3466  0.1059  1.1977
41573SOL    HW236699   4.159   6.923   2.639  0.5740 -1.5330 -1.8180
41574SOL     OW36700  11.879   3.532   7.949 -0.2918  0.0116 -0.3574
41574SOL    HW136701  11.931   3.538   7.869 -0.0007  2.2588 -0.0640
41574SOL    HW236702  11.838   3.618   7.958  0.0178 -0.0057  2.1321
41575SOL     OW36703   0.439  11.152   9.911  0.3540 -0.4034 -0.1379
41575SOL    HW136704   0.369  11.168   9.974 -1.6298 -1.4150 -1.9929
41575SOL    HW236705   0.519  11.153   9.965 -1.0866  0.1310  2.1510
41576SOL     OW36706   5.024  13.606   8.108 -0.8822 -0.6834  0.2550
41576SOL    HW136707   5.058  13.561   8.031  0.5444  2.4756 -1.1308
41576SOL    HW236708   5.086  13.584   8.178 -1.2690 -2.2778  0.1327
41577SOL     OW36709   0.885   9.523   4.253 -0.3481  0.8004 -0.0702
41577SOL    HW136710   0.856   9.507   4.163  0.3944  1.5918 -0.4590
41577SOL    HW236711   0.895   9.618   4.259 -1.7589  0.9062  1.2894
41578SOL     OW36712   1.444   0.984   4.336 -0.0840 -0.3088 -0.3099
41578SOL    HW136713   1.502   0.967   4.411 -0.4559 -0.1373  0.0206
41578SOL    HW236714   1.360   0.945   4.361 -0.8954  1.7239  0.3682
41579SOL     OW36715  12.672   4.369   7.371  0.0015 -0.2817  0.3795
41579SOL    HW136716  12.637   4.313   7.440 -0.3304 -1.4692 -0.7136
41579SOL    HW236717  12.756   4.329   7.349 -0.5138 -0.7385 -0.8316
41580SOL     OW36718   8.993   5.783  11.659  0.3105 -0.0908 -0.1625
41580SOL    HW136719   8.934   5.709  11.669  1.0567 -0.9097 -1.5875
41580SOL    HW236720   9.078   5.751  11.689  0.6553  0.1583 -0.8515
41581SOL     OW36721  13.309  11.780   5.777  0.0896  0.6880 -0.0859
41581SOL    HW136722  13.329  11.871   5.798  0.0978  0.1430  2.6387
41581SOL    HW236723  13.224  11.764   5.820  0.6635 -0.8826  0.5201
41582SOL     OW36724   2.235   3.607  10.620 -0.3764  0.0219 -0.4397
41582SOL    HW136725   2.209   3.616  10.712  0.3863 -0.8379 -0.1198
41582SOL    HW236726   2.244   3.696  10.588 -1.9746  0.3409 -0.0746
41583SOL     OW36727   7.734  10.066  13.023 -0.1939  0.5394 -0.0326
41583SOL    HW136728   7.759   9.997  12.961  0.5189 -0.6478  1.4974
41583SOL    HW236729   7.812  10.120  13.032 -0.9993  2.0927 -1.8392
41584SOL     OW36730  13.414   1.447   8.415  0.1726 -0.0494 -0.1883
41584SOL    HW136731  13.441   1.356   8.408 -2.3400 -0.8136 -1.1447
41584SOL    HW236732  13.354   1.449   8.489 -0.4485  0.6055 -0.6901
41585SOL     OW36733   0.842   7.828   8.806  0.5483 -0.0103  0.2807
41585SOL    HW136734   0.843   7.865   8.718  0.9930 -0.1464  0.2269
41585SOL    HW236735   0.933   7.833   8.836  0.2781  0.7140  1.0229
41586SOL     OW36736   0.045  14.039   6.425  0.3206  0.1101 -0.2870
41586SOL    HW136737  -0.043  14.031   6.462 -1.3485  1.7043 -3.4964
41586SOL    HW236738   0.071  14.129   6.445  0.6717  0.0519 -0.4735
41587SOL     OW36739  12.432  13.806  12.350 -0.2482  0.5083  0.4125
41587SOL    HW136740  12.507  13.786  12.407  0.0828 -0.3390 -0.2899
41587SOL    HW236741  12.465  13.789  12.262 -1.6351 -1.0787  0.1660
41588SOL     OW36742   0.785   8.517   1.930 -0.2449 -0.0517 -0.4488
41588SOL    HW136743   0.836   8.597   1.944 -2.1131  0.8128  2.0107
41588SOL    HW236744   0.730   8.538   1.854 -2.5359  2.1006  1.6491
41589SOL     OW36745   5.360   1.849  11.476 -0.7425  0.1304  0.4192
41589SOL    HW136746   5.328   1.912  11.412  1.1519  1.5689  0.7862
41589SOL    HW236747   5.348   1.893  11.560  2.3167  0.9154  0.5550
41590SOL     OW36748   8.209  13.532   9.701  0.0872 -0.0512  0.1196
41590SOL    HW136749   8.164  13.537   9.786 -0.0541  2.2013 -0.0325
41590SOL    HW236750   8.186  13.613   9.657  0.4249 -1.0341 -1.9897
41591SOL     OW36751   2.206   9.791   4.033 -0.0390  0.1102 -0.3026
41591SOL    HW136752   2.159   9.708   4.043 -0.2866  0.3111  0.2278
41591SOL    HW236753   2.137   9.857   4.025  0.1573  0.2830 -0.5593
41592SOL     OW36754   1.359   6.844   8.692 -0.3006 -0.0242 -0.2766
41592SOL    HW136755   1.431   6.782   8.690 -0.4370 -0.2138  0.6039
41592SOL    HW236756   1.294   6.805   8.750 -0.9624  0.3161 -0.7718
41593SOL     OW36757   0.332   0.975   0.718  0.2164 -0.2766  0.7079
41593SOL    HW136758   0.391   0.940   0.651  2.4074 -0.1964  2.4483
41593SOL    HW236759   0.263   1.020   0.669  1.3033 -0.8531 -1.4672
41594SOL     OW36760   3.649  13.837   7.272 -0.1049 -0.5815 -0.1229
41594SOL    HW136761   3.728  13.852   7.324 -0.6173  0.6107  0.3442
41594SOL    HW236762   3.669  13.875   7.187  0.1088 -1.0128 -0.2713
41595SOL     OW36763  13.382  13.050   5.819 -0.4706 -0.0815  0.1284
41595SOL    HW136764  13.421  12.979   5.768  1.3820  0.6085  0.5189
41595SOL    HW236765  13.378  13.016   5.908  2.1791  0.8835  0.6962
41596SOL     OW36766  11.341   4.448  13.086 -0.1601 -0.4405 -0.0055
41596SOL    HW136767  11.253   4.443  13.124 -0.8487  1.0913 -1.3139
41596SOL    HW236768  11.391   4.500  13.149 -1.0837  1.4176 -0.7365
41597SOL     OW36769   3.858   1.743   8.686  0.0607  0.1688  0.1193
41597SOL    HW136770   3.859   1.838   8.687 -2.2145  0.2893  2.5831
41597SOL    HW236771   3.804   1.719   8.762  1.5610 -3.1037  0.3109
41598SOL     OW36772   1.814   8.124   4.421 -0.4678  0.2048 -0.5517
41598SOL    HW136773   1.846   8.181   4.351 -0.7690 -1.3237 -1.9965
41598SOL    HW236774   1.865   8.044   4.413 -1.1891 -0.3698  0.3458
41599SOL     OW36775  10.225   0.384   8.083 -0.9063 -0.4388  0.4288
41599SOL    HW136776  10.237   0.289   8.073  0.6029 -0.2044 -0.2104
41599SOL    HW236777  10.268   0.422   8.007 -3.2344  0.7071 -0.3706
41600SOL     OW36778  10.300   8.195   0.988 -0.0875 -0.5242 -0.4121
41600SOL    HW136779  10.209   8.217   1.007 -0.6224 -2.4415 -0.5394
41600SOL    HW236780  10.314   8.225   0.898 -0.2325  0.7278 -0.0432
41601SOL     OW36781   7.865   0.946   0.986  0.1335 -0.3188 -0.3535
41601SOL    HW136782   7.879   0.904   1.070 -1.1755  1.1547  0.6689
41601SOL    HW236783   7.789   0.901   0.948 -1.1586  0.8985  0.6622
41602SOL     OW36784  12.019   4.599   9.189  0.1222 -0.3888  0.2704
41602SOL    HW136785  12.033   4.589   9.283  0.6089  2.4420  0.5902
41602SOL    HW236786  11.974   4.683   9.180 -0.8890 -1.1012 -1.9775
41603SOL     OW36787   4.997   8.213  13.490  0.2674 -0.2397 -0.2837
41603SOL    HW136788   5.072   8.170  13.449 -0.5642 -1.3743 -0.6661
41603SOL    HW236789   5.020   8.220  13.582  0.8180 -0.6352 -0.3896
41604SOL     OW36790   9.784   2.662  13.545  0.0659  0.2131  0.3402
41604SOL    HW136791   9.862   2.645  13.597  0.0949  0.0426  0.2431
41604SOL    HW236792   9.751   2.575  13.522 -1.4711  0.2008  2.3117
41605SOL     OW36793   9.333  11.874   9.783 -0.3439 -0.3858 -0.1814
41605SOL    HW136794   9.275  11.821   9.729 -1.9566  1.0923 -0.0052
41605SOL    HW236795   9.321  11.840   9.872 -1.2908  0.1769 -0.0839
41606SOL     OW36796   3.911   4.312   3.030  0.1636  0.6129 -0.3182
41606SOL    HW136797   3.947   4.282   2.947 -0.4384  0.8610 -0.6728
41606SOL    HW236798   3.988   4.332   3.084  0.5844 -0.9844 -0.2663
41607SOL     OW36799   1.449   1.382   4.601 -0.2025  0.2412 -0.1339
41607SOL    HW136800   1.463   1.456   4.542 -0.3959 -0.1731 -0.7026
41607SOL    HW236801   1.537   1.354   4.625 -0.0788 -0.6081 -1.5143
41608SOL     OW36802   5.691   7.194   2.224  0.3385  0.0523  0.2961
41608SOL    HW136803   5.655   7.265   2.278  0.1611 -0.0587  0.3244
41608SOL    HW236804   5.634   7.193   2.147  0.3922 -0.0048  0.2575
41609SOL     OW36805   8.650  13.832   7.734 -0.1948  0.0861 -0.0881
41609SOL    HW136806   8.602  13.915   7.729 -0.2955  0.0999  0.8891
41609SOL    HW236807   8.728  13.847   7.680 -0.1091  0.8970  0.2389
41610SOL     OW36808  10.820   3.258   1.753  0.1917  0.1110  0.9204
41610SOL    HW136809  10.867   3.340   1.763 -0.3916  0.5696  0.0704
41610SOL    HW236810  10.758   3.275   1.682  0.2626 -1.1443  0.5286
41611SOL     OW36811   1.185  10.748   4.777  0.6226  0.2968 -0.1934
41611SOL    HW136812   1.100  10.704   4.767  0.8300  0.4286 -3.9825
41611SOL    HW236813   1.223  10.708   4.855 -2.4831 -0.4532  1.0838
41612SOL     OW36814   0.128   8.213   0.649 -0.0757  0.0853  0.2833
41612SOL    HW136815   0.201   8.159   0.619 -0.3301  0.6021 -1.3911
41612SOL    HW236816   0.165   8.302   0.653 -0.0904  0.0539  1.4328
41613SOL     OW36817  10.881  10.277   0.055  0.0266  0.3561  0.6791
41613SOL    HW136818  10.955  10.312   0.106  2.3440 -1.3306 -1.3217
41613SOL    HW236819  10.808  10.280   0.116  2.1702  0.2244  3.5001
41614SOL     OW36820   1.169   9.397  10.477  0.8042  0.4056  0.4833
41614SOL    HW136821   1.194   9.396  10.569  0.2522 -0.0386  0.6370
41614SOL    HW236822   1.098   9.333  10.471  2.2518 -1.1845 -0.6678
41615SOL     OW36823   6.437   2.980   8.332  0.2929 -0.3563  0.7691
41615SOL    HW136824   6.474   2.969   8.420  1.1302  2.2670  0.8479
41615SOL    HW236825   6.352   3.022   8.347  0.2592 -0.2628  0.3357
41616SOL     OW36826  12.873   6.689   7.686  0.2091 -0.1641 -0.4168
41616SOL    HW136827  12.913   6.751   7.746 -0.2223  0.5744 -0.8769
41616SOL    HW236828  12.926   6.610   7.695 -0.4422 -0.4040  1.6336
41617SOL     OW36829  11.727   7.749   9.155  0.1436 -0.0850  0.5387
41617SOL    HW136830  11.741   7.834   9.113  1.5409  0.4805  2.0176
41617SOL    HW236831  11.814   7.725   9.188 -0.5896 -1.2448  1.6859
41618SOL     OW36832  13.819   2.770  12.415 -0.1766 -0.0954 -0.1105
41618SOL    HW136833  13.826   2.772  12.510  0.6114 -3.2492  0.0203
41618SOL    HW236834  13.907   2.750  12.384 -0.4701  0.6197 -1.5021
41619SOL     OW36835   1.108  13.471   4.451 -0.0829 -0.5716 -0.2925
41619SOL    HW136836   1.055  13.490   4.528  0.0867 -1.4041  0.0365
41619SOL    HW236837   1.195  13.453   4.485  0.6341  1.5162 -0.8837
41620SOL     OW36838   3.458   2.112  10.890 -0.0949  0.4993  0.3022
41620SOL    HW136839   3.475   2.018  10.895 -0.9801  0.2176 -1.2102
41620SOL    HW236840   3.467   2.132  10.796  0.4892  2.0099  0.6501
41621SOL     OW36841   7.302  11.896   3.061  0.5412 -0.3448  0.6914
41621SOL    HW136842   7.276  11.806   3.083  0.7102 -0.5276  0.1431
41621SOL    HW236843   7.278  11.906   2.969 -0.4415  0.5193  1.0235
41622SOL     OW36844   5.579   2.968   6.529 -0.5455 -0.4205  1.2298
41622SOL    HW136845   5.660   2.965   6.579 -0.6770 -3.0579  1.4667
41622SOL    HW236846   5.520   2.908   6.575 -2.9219  1.9076  1.4426
41623SOL     OW36847   1.497   0.067   9.684 -0.0655  0.4109  0.0348
41623SOL    HW136848   1.527  -0.009   9.634 -0.0378 -0.4020  1.2606
41623SOL    HW236849   1.408   0.046   9.710 -0.1441  0.9116  0.1948
41624SOL     OW36850  13.844  11.927   5.154 -0.1382  0.8517 -0.6140
41624SOL    HW136851  13.834  11.938   5.060  1.0812  0.7808 -0.7713
41624SOL    HW236852  13.939  11.921   5.168 -0.3394 -0.1957  0.4993
41625SOL     OW36853  11.966  12.399   2.423  0.8973  0.8500  0.0388
41625SOL    HW136854  12.026  12.325   2.418  1.0531  0.7551  2.2727
41625SOL    HW236855  11.879  12.361   2.418  0.9722  0.4388  1.3744
41626SOL     OW36856   7.241   5.717  10.352  0.1393  0.6174 -0.3462
41626SOL    HW136857   7.184   5.785  10.389  0.5932 -0.0297  1.6224
41626SOL    HW236858   7.309   5.703  10.418  0.0870 -1.7259 -0.6993
41627SOL     OW36859   2.377   0.412   0.350  0.0217  0.3072 -0.4906
41627SOL    HW136860   2.460   0.384   0.389 -0.4894 -0.3921  0.1176
41627SOL    HW236861   2.376   0.371   0.264  0.0514 -0.1629 -0.2713
41628SOL     OW36862   9.428  11.613   2.561  0.2363  0.4419 -0.4118
41628SOL    HW136863   9.487  11.688   2.563 -0.1023  0.6956  1.3817
41628SOL    HW236864   9.345  11.647   2.596  0.1440 -0.7931  0.6310
41629SOL     OW36865   5.026   6.558  13.744 -0.5787 -0.5020 -0.1352
41629SOL    HW136866   4.976   6.614  13.685  1.5441  0.6511 -0.9303
41629SOL    HW236867   5.102   6.530  13.693 -1.2786 -3.7847  0.3835
41630SOL     OW36868   1.311  11.035  10.183 -0.8496  0.2810  0.0476
41630SOL    HW136869   1.320  10.962  10.243 -0.3007 -0.4976 -0.9521
41630SOL    HW236870   1.226  11.022  10.142  0.2646 -1.2567 -1.9468
41631SOL     OW36871  10.808  13.626   5.769  0.5205  0.2313  0.4763
41631SOL    HW136872  10.771  13.545   5.736  1.8879 -0.9510  1.6855
41631SOL    HW236873  10.900  13.624   5.741  0.5980  1.3342  0.5811
41632SOL     OW36874   4.722   7.268   2.420 -0.2666  0.2601  0.3678
41632SOL    HW136875   4.758   7.357   2.420 -2.4253  1.2210 -0.8108
41632SOL    HW236876   4.629   7.280   2.441 -0.8530 -1.5887 -0.9297
41633SOL     OW36877  11.652  12.857   0.104 -0.8310 -0.2899 -0.4649
41633SOL    HW136878  11.561  12.826   0.098 -1.7081  1.2424  2.8397
41633SOL    HW236879  11.645  12.946   0.137  1.8839  0.0585 -0.6373
41634SOL     OW36880  13.186   0.957   8.354  0.8299  0.5717  0.0534
41634SOL    HW136881  13.175   0.986   8.444 -0.5512  1.7353 -0.4574
41634SOL    HW236882  13.180   0.862   8.358  0.7769  0.6100  1.1720
41635SOL     OW36883  11.917   0.517  12.766 -0.1799  0.0314  0.5598
41635SOL    HW136884  11.848   0.516  12.832 -0.7609 -0.3379 -0.0458
41635SOL    HW236885  11.956   0.430  12.769 -0.5830 -0.1704  0.0294
41636SOL     OW36886   7.232   6.354  12.154 -0.0628  0.8474 -0.2761
41636SOL    HW136887   7.256   6.425  12.094 -0.8195  2.7729  1.5569
41636SOL    HW236888   7.139   6.340  12.139  0.1567 -0.0309 -0.8707
41637SOL     OW36889   3.209   2.256   9.364 -0.5899  0.4845 -0.0075
41637SOL    HW136890   3.218   2.220   9.275  3.7671  1.3318 -0.1195
41637SOL    HW236891   3.216   2.179   9.421  0.1516  0.2647 -0.3763
41638SOL     OW36892   1.232   1.816   5.815  0.1288 -0.0668 -0.4197
41638SOL    HW136893   1.201   1.790   5.728 -3.3597 -1.4878  1.0616
41638SOL    HW236894   1.166   1.876   5.847 -1.0604 -2.7435  2.7524
41639SOL     OW36895   4.879   3.195  13.606  0.1387 -0.2991  0.0269
41639SOL    HW136896   4.813   3.178  13.539  0.7990 -0.9201 -0.4868
41639SOL    HW236897   4.871   3.288  13.625  0.9350  0.2401 -2.0124
41640SOL     OW36898   3.292   5.683   9.058 -0.2755  0.0709  0.1004
41640SOL    HW136899   3.267   5.636   9.137 -0.2855  0.3167  0.2464
41640SOL    HW236900   3.210   5.700   9.012 -0.2197 -0.5326 -0.2274
41641SOL     OW36901   7.875   7.570  12.694  0.4819 -0.1158  0.3576
41641SOL    HW136902   7.803   7.527  12.648  0.8988 -1.3561  0.7992
41641SOL    HW236903   7.951   7.514  12.677  0.5479 -0.9200  2.9072
41642SOL     OW36904  13.213  10.467   2.828  1.0560  0.0597 -0.0740
41642SOL    HW136905  13.201  10.453   2.922  0.7240  1.5691  0.1221
41642SOL    HW236906  13.304  10.442   2.812  0.5561 -2.1889  0.2274
41643SOL     OW36907   7.143   9.652   9.695  0.5921 -0.5397  0.5328
41643SOL    HW136908   7.091   9.638   9.774 -2.0926  0.1653 -0.9756
41643SOL    HW236909   7.113   9.736   9.662  1.2751 -1.0476 -1.5120
41644SOL     OW36910   6.472   3.788   9.272  0.1129  0.2541 -0.2495
41644SOL    HW136911   6.561   3.806   9.302  0.7200 -1.0361 -1.1513
41644SOL    HW236912   6.434   3.734   9.341 -0.2900  1.5259  0.5441
41645SOL     OW36913   7.871   2.766   5.944  1.1640 -0.3269 -0.4455
41645SOL    HW136914   7.834   2.852   5.923  2.1660 -0.0820 -1.2307
41645SOL    HW236915   7.812   2.731   6.011  1.2744  1.3752  0.5887
41646SOL     OW36916   6.196   0.631  13.070  0.6226 -0.3750  0.4282
41646SOL    HW136917   6.227   0.541  13.069 -1.5757 -1.2361  1.9496
41646SOL    HW236918   6.114   0.629  13.021  1.3252  1.1558 -0.8823
41647SOL     OW36919   5.850   0.883   9.474  0.4195  0.3340 -0.1947
41647SOL    HW136920   5.896   0.806   9.506 -0.0661  0.8547  1.9442
41647SOL    HW236921   5.778   0.849   9.421  0.9465 -0.6112 -0.3183
41648SOL     OW36922   2.423   9.250   1.361 -0.3718 -0.1325  0.1074
41648SOL    HW136923   2.451   9.228   1.272 -1.0465  0.6822 -0.3205
41648SOL    HW236924   2.330   9.272   1.352  0.1511  2.6305  0.4965
41649SOL     OW36925  13.012   4.168   6.881  0.5421  0.1071 -0.0967
41649SOL    HW136926  12.972   4.255   6.879  0.2978 -0.0043 -0.1164
41649SOL    HW236927  13.091   4.176   6.827 -0.5458 -0.1999 -1.8102
41650SOL     OW36928  13.480  13.145   8.077 -0.0206  0.3000 -0.2375
41650SOL    HW136929  13.500  13.209   8.009 -0.4932 -1.2741 -1.9469
41650SOL    HW236930  13.387  13.126   8.066  0.3185 -1.4156 -0.4757
41651SOL     OW36931   7.518   3.903   2.472  0.3372 -0.5533  0.4987
41651SOL    HW136932   7.597   3.850   2.477 -0.3472 -1.6102  0.3589
41651SOL    HW236933   7.480   3.899   2.560  0.5210  0.1047  0.6167
41652SOL     OW36934   5.654  12.226   4.043  0.2349  0.2286  0.6673
41652SOL    HW136935   5.586  12.293   4.040 -0.6943 -0.6564  1.1571
41652SOL    HW236936   5.711  12.251   4.115  0.0875  0.6559  0.6358
41653SOL     OW36937   6.476  12.874  11.334  0.0040  0.8350  0.4747
41653SOL    HW136938   6.556  12.908  11.292  0.1941  1.5121  1.3477
41653SOL    HW236939   6.439  12.813  11.270  1.4197  0.2212  0.1938
41654SOL     OW36940  10.861   3.246  12.101  0.1813 -0.0824  0.1809
41654SOL    HW136941  10.874   3.327  12.151  0.9251  0.3301 -0.6501
41654SOL    HW236942  10.898   3.265  12.015 -0.3617 -1.0473 -0.2824
41655SOL     OW36943   9.777   9.766   0.175 -0.7497  0.7856  0.3041
41655SOL    HW136944   9.703   9.823   0.152  1.0885  2.2693 -2.4693
41655SOL    HW236945   9.841   9.781   0.106  0.8746 -2.9055  0.8007
41656SOL     OW36946  11.548  13.551   4.400 -0.6079 -0.4479  0.7893
41656SOL    HW136947  11.477  13.512   4.451 -0.8252 -1.2822 -0.1162
41656SOL    HW236948  11.523  13.536   4.309  0.6377 -0.5908  0.4520
41657SOL     OW36949   8.954   9.848   1.881  0.4795 -0.3876  0.0475
41657SOL    HW136950   8.924   9.785   1.816 -1.3674  1.5688 -1.1253
41657SOL    HW236951   9.027   9.894   1.839  0.2351 -0.1014 -0.0634
41658SOL     OW36952  11.089   0.911   2.192  0.3944  0.3270 -0.0467
41658SOL    HW136953  11.044   0.994   2.178  0.0650  0.3585  1.0613
41658SOL    HW236954  11.029   0.845   2.156  0.8565  0.5770 -1.3286
41659SOL     OW36955   4.187   2.795   9.448 -0.3530 -0.8676  0.0344
41659SOL    HW136956   4.178   2.758   9.361 -1.9451 -0.3750 -0.0262
41659SOL    HW236957   4.161   2.724   9.507  4.6257 -2.7593  0.5240
41660SOL     OW36958   1.395  10.467  12.563  0.2231  0.4871 -0.0512
41660SOL    HW136959   1.371  10.545  12.613 -1.7004  1.5714 -2.4380
41660SOL    HW236960   1.324  10.405  12.578 -0.3575  0.8111 -1.3110
41661SOL     OW36961   4.218   3.904  13.816  0.1295  0.7985  0.2823
41661SOL    HW136962   4.131   3.894  13.854 -0.4112  0.9776 -0.8654
41661SOL    HW236963   4.203   3.906  13.722  1.7578 -4.0685 -0.3413
41662SOL     OW36964   4.473   9.899  10.952 -0.4333  0.1918 -0.0077
41662SOL    HW136965   4.522   9.846  11.014 -0.6834  0.2386  0.2289
41662SOL    HW236966   4.540   9.941  10.898 -0.1532  1.2440  1.1160
41663SOL     OW36967  12.546   1.029   5.528 -0.1118 -0.1237  0.5112
41663SOL    HW136968  12.489   1.025   5.451 -0.1683 -0.7662  0.5830
41663SOL    HW236969  12.512   1.103   5.579 -0.4859 -0.1122  0.2476
41664SOL     OW36970   3.841  12.503   8.432 -0.1756 -0.6504 -0.4031
41664SOL    HW136971   3.885  12.435   8.381  0.4078 -0.2503 -0.4398
41664SOL    HW236972   3.834  12.467   8.520  0.3203 -0.6841 -0.3729
41665SOL     OW36973  11.142   5.287   9.291 -0.6648  0.6678 -0.2116
41665SOL    HW136974  11.217   5.320   9.240 -0.2251  1.2257  0.7791
41665SOL    HW236975  11.156   5.320   9.379 -2.4427  1.3511 -0.1418
41666SOL     OW36976  12.971   2.584   9.662 -0.3487 -0.1227  0.3808
41666SOL    HW136977  13.052   2.592   9.712  1.8930 -0.4342 -2.8628
41666SOL    HW236978  12.972   2.660   9.604 -2.3691 -0.2099  0.1593
41667SOL     OW36979   2.219  12.249   7.783  0.1917 -0.1961  0.7158
41667SOL    HW136980   2.259  12.250   7.696  2.0419  0.0003  1.5288
41667SOL    HW236981   2.143  12.306   7.774 -0.5605 -1.3587 -1.1411
41668SOL     OW36982   2.707   4.770   6.262 -0.1864  0.3623  0.2271
41668SOL    HW136983   2.763   4.720   6.202  0.1016  3.4594 -2.4170
41668SOL    HW236984   2.621   4.769   6.220 -0.5139  0.8690  0.8688
41669SOL     OW36985   1.831   7.141  12.832 -0.4348  0.4295 -0.7443
41669SOL    HW136986   1.806   7.182  12.915  3.4618  2.1566 -0.1946
41669SOL    HW236987   1.868   7.056  12.858  1.6065  1.3392 -0.4853
41670SOL     OW36988  12.050   1.506   0.581  0.3781 -0.5688 -0.5188
41670SOL    HW136989  12.094   1.461   0.509 -0.5341 -1.7539 -0.3663
41670SOL    HW236990  12.026   1.436   0.642 -0.8654  0.1419 -0.1575
41671SOL     OW36991   9.451   5.898   1.754  0.6779 -0.0168  0.5361
41671SOL    HW136992   9.544   5.920   1.765  0.4266  0.6276  1.5354
41671SOL    HW236993   9.433   5.837   1.826  0.3981 -0.3823  0.1573
41672SOL     OW36994   8.850   8.224  11.020  0.0282 -0.1182 -0.0456
41672SOL    HW136995   8.936   8.183  11.014  0.0399 -0.2255  0.7458
41672SOL    HW236996   8.797   8.178  10.956  0.0691 -1.3029  0.7472
41673SOL     OW36997   7.666  12.529   0.569  0.3112  0.0257 -0.1433
41673SOL    HW136998   7.589  12.511   0.516 -0.3267  0.6842  0.5360
41673SOL    HW236999   7.738  12.534   0.506 -0.2804 -0.1245 -0.8398
41674SOL     OW37000   8.870   2.395   9.185 -0.0612 -0.5962 -0.1490
41674SOL    HW137001   8.784   2.352   9.195 -1.3657  1.9683  0.4464
41674SOL    HW237002   8.865   2.439   9.101  0.9348 -0.8742 -0.3697
41675SOL     OW37003   9.886   1.412   2.125 -0.3556 -0.3157 -0.7097
41675SOL    HW137004   9.875   1.436   2.033 -1.8645  0.8501 -0.2748
41675SOL    HW237005   9.856   1.490   2.173  0.0688 -1.0332  0.7593
41676SOL     OW37006   4.180   8.236  12.546  0.1709 -0.0498 -0.1891
41676SOL    HW137007   4.275   8.243  12.557  0.3111 -0.1601 -1.1824
41676SOL    HW237008   4.169   8.217  12.453 -0.7309 -1.7948  0.2266
41677SOL     OW37009  12.413  11.779   8.410  0.2669  0.1982 -0.1541
41677SOL    HW137010  12.318  11.772   8.421  0.5395 -1.5854  1.6674
41677SOL    HW237011  12.428  11.759   8.318 -1.1182  0.5898 -0.4900
41678SOL     OW37012   1.798   7.930   0.842 -0.1942  0.1057 -0.1759
41678SOL    HW137013   1.767   7.858   0.897 -1.8915 -2.6412 -4.2928
41678SOL    HW237014   1.751   8.007   0.875 -0.3482 -1.0752  2.7141
41679SOL     OW37015  13.741   6.355  13.562  0.0748 -0.1461  0.5172
41679SOL    HW137016  13.739   6.418  13.634  0.4735 -0.3879  0.7508
41679SOL    HW237017  13.807   6.390  13.502  1.1736 -0.9164  1.2173
41680SOL     OW37018  11.444  12.780   2.103  0.0175 -0.1037  0.1450
41680SOL    HW137019  11.480  12.763   2.016 -0.4476  1.5958 -0.4232
41680SOL    HW237020  11.446  12.695   2.147 -0.9410 -1.3187 -1.9801
41681SOL     OW37021   2.737   8.130  10.798 -0.0915  0.1968  0.4445
41681SOL    HW137022   2.745   8.036  10.782 -0.8133  0.2798 -0.4656
41681SOL    HW237023   2.752   8.171  10.713  2.6697  1.1064  1.2520
41682SOL     OW37024  12.475  11.565  11.893 -0.1916  0.2017  0.4556
41682SOL    HW137025  12.494  11.652  11.931 -1.0112  0.0797  1.1798
41682SOL    HW237026  12.542  11.554  11.825  1.7014  0.2062  2.2025
41683SOL     OW37027   9.202   1.484   4.107 -0.0366  0.5028 -0.3366
41683SOL    HW137028   9.109   1.506   4.099  0.1757  1.0376 -1.5702
41683SOL    HW237029   9.231   1.530   4.186 -0.6536  0.9064 -0.3355
41684SOL     OW37030   8.854   7.433   9.624  0.4363 -0.2443 -0.1639
41684SOL    HW137031   8.793   7.461   9.692 -1.6418 -0.8768 -1.6725
41684SOL    HW237032   8.940   7.456   9.658 -0.5607  0.0254  2.3808
41685SOL     OW37033   1.592  12.665   5.323  0.5042  0.4589 -0.3196
41685SOL    HW137034   1.601  12.737   5.385  0.0910  1.6453 -1.5675
41685SOL    HW237035   1.681  12.646   5.295  0.4693  2.8320 -2.4561
41686SOL     OW37036   6.694  13.648   7.273  0.0652  0.6503 -0.0316
41686SOL    HW137037   6.614  13.595   7.278  0.0406  0.7079  0.1933
41686SOL    HW237038   6.758  13.589   7.232  0.2200  0.2129  0.8110
41687SOL     OW37039   3.743  13.044   9.825  0.5854 -0.2068  0.1031
41687SOL    HW137040   3.749  13.020   9.732  1.4079  0.7018 -0.1001
41687SOL    HW237041   3.712  13.134   9.825  2.5472  0.5326  0.5831
41688SOL     OW37042  13.942   6.077   8.298 -0.4391  0.1466  0.5839
41688SOL    HW137043  13.955   6.153   8.356 -0.0363 -0.0832  0.7992
41688SOL    HW237044  14.025   6.069   8.250 -1.1255  0.9623 -0.7911
41689SOL     OW37045  11.753  10.483  10.264  0.4364 -0.5057 -0.2194
41689SOL    HW137046  11.779  10.563  10.218  2.0006 -0.8683 -0.0221
41689SOL    HW237047  11.822  10.420  10.243  0.8339 -0.9078  2.0151
41690SOL     OW37048   4.984   9.514   6.558  0.3481  0.1721  0.1521
41690SOL    HW137049   5.007   9.552   6.642 -0.3904 -1.2332  1.0335
41690SOL    HW237050   4.900   9.552   6.536  1.5144  2.2277 -1.0930
41691SOL     OW37051  13.401   3.243   2.988  0.5686 -0.0454 -0.0314
41691SOL    HW137052  13.450   3.298   3.050  0.1796 -0.1531  0.3805
41691SOL    HW237053  13.449   3.250   2.906 -0.7494  2.8345 -0.6770
41692SOL     OW37054  11.485   5.588   4.999 -0.1011  0.2878  0.0895
41692SOL    HW137055  11.540   5.644   4.945  0.5644 -0.2937  0.1381
41692SOL    HW237056  11.405   5.575   4.948  0.5537 -0.3268 -0.8186
41693SOL     OW37057  10.556   1.992   5.422  0.6591  0.6213 -0.1933
41693SOL    HW137058  10.488   1.990   5.355 -1.3878  0.7409  1.7662
41693SOL    HW237059  10.530   2.062   5.481  3.2328  1.5437 -0.0320
41694SOL     OW37060  12.808   3.815   7.551  0.3319 -0.6013 -0.8098
41694SOL    HW137061  12.743   3.745   7.546  0.3582 -0.9637  1.9644
41694SOL    HW237062  12.874   3.781   7.611  1.3229  1.0715 -0.9091
41695SOL     OW37063  13.977   5.334   4.961  0.2366 -0.0810 -0.3884
41695SOL    HW137064  13.882   5.343   4.953  0.2949  0.5501 -0.4882
41695SOL    HW237065  14.011   5.406   4.907  0.7909 -1.1546 -1.5041
41696SOL     OW37066   8.467  10.664  11.903 -0.1241  0.6606 -0.0037
41696SOL    HW137067   8.529  10.730  11.933  0.6115  0.5629 -1.2348
41696SOL    HW237068   8.415  10.642  11.980  0.3710  1.8465  0.6861
41697SOL     OW37069   1.778  11.686   2.775 -0.3543 -0.1339 -0.5740
41697SOL    HW137070   1.842  11.616   2.767 -0.1663 -0.0672  0.2857
41697SOL    HW237071   1.800  11.747   2.704  1.3650  0.5383  0.4773
41698SOL     OW37072  10.190  10.203   4.723 -0.3643  0.4443 -0.0824
41698SOL    HW137073  10.274  10.163   4.748  0.3255  1.6829 -0.3382
41698SOL    HW237074  10.160  10.151   4.648  0.4553  0.3365 -0.3449
41699SOL     OW37075   1.424   0.166   1.359  0.4196  0.0807  0.3982
41699SOL    HW137076   1.486   0.100   1.330  0.9287  0.2667  1.0425
41699SOL    HW237077   1.356   0.167   1.292  1.0537 -0.2058 -0.2531
41700SOL     OW37078  10.844   7.207   4.479 -0.2608  0.0942  0.5095
41700SOL    HW137079  10.806   7.280   4.430  3.0291 -0.6680 -3.7805
41700SOL    HW237080  10.900   7.248   4.545 -0.4953  1.3711 -0.0634
41701SOL     OW37081   1.102   9.483   4.028  0.0236 -0.1206 -0.0746
41701SOL    HW137082   1.168   9.415   4.044  0.2052  0.3568  1.4263
41701SOL    HW237083   1.149   9.565   4.040 -0.2337  0.2878 -1.7178
41702SOL     OW37084   5.148   4.467   8.433 -0.1519  0.0296  0.1963
41702SOL    HW137085   5.127   4.402   8.367 -2.6661  0.6876  0.2748
41702SOL    HW237086   5.219   4.426   8.484 -0.6511 -2.0041 -0.6287
41703SOL     OW37087   6.562  10.014   4.756  0.3933  0.0480 -0.4582
41703SOL    HW137088   6.496  10.009   4.687 -0.3026 -0.0861  0.2002
41703SOL    HW237089   6.541  10.094   4.804  0.4902 -0.1812 -0.0246
41704SOL     OW37090   5.603   7.691   1.580  0.3568 -0.1960  0.3083
41704SOL    HW137091   5.647   7.674   1.663  0.9092 -0.2914  0.0048
41704SOL    HW237092   5.672   7.728   1.524  0.1581 -0.7396 -0.3105
41705SOL     OW37093  12.572   7.955   7.007 -0.1464  0.3892 -0.3793
41705SOL    HW137094  12.621   8.013   6.948  0.4617 -1.1479 -1.4527
41705SOL    HW237095  12.481   7.986   7.000 -0.1061  0.2267 -2.2225
41706SOL     OW37096   0.333   2.004   1.566 -0.4115  0.0198  0.0303
41706SOL    HW137097   0.246   2.032   1.538 -0.1443  0.6658 -0.1710
41706SOL    HW237098   0.319   1.917   1.603 -1.2499  0.3900  0.6118
41707SOL     OW37099   2.456  13.388   0.914 -0.0598 -0.3169  0.6988
41707SOL    HW137100   2.374  13.389   0.864 -0.6245 -0.4145  1.5731
41707SOL    HW237101   2.522  13.354   0.854 -0.4501  0.7055 -0.3346
41708SOL     OW37102  10.763   1.862   6.156  0.1766 -0.5435  0.1053
41708SOL    HW137103  10.815   1.820   6.224  0.9483 -2.3307 -1.4920
41708SOL    HW237104  10.824   1.921   6.112  0.8541 -2.3120 -1.4823
41709SOL     OW37105  11.963   2.194  13.564 -0.4193 -0.5447 -0.1817
41709SOL    HW137106  11.891   2.245  13.599  0.1582 -0.5686  1.0827
41709SOL    HW237107  12.042   2.236  13.598  0.2248 -0.1055 -2.0954
41710SOL     OW37108   3.697   6.258   8.265  0.3375  0.1757  0.1269
41710SOL    HW137109   3.690   6.310   8.345  1.3948 -0.5665  0.7344
41710SOL    HW237110   3.767   6.196   8.283  0.8544  0.2256 -1.5215
41711SOL     OW37111   6.770   7.442  13.153 -0.6467 -0.1796  0.1995
41711SOL    HW137112   6.755   7.450  13.059  1.4594 -0.6680 -0.2448
41711SOL    HW237113   6.799   7.529  13.181 -2.2471  0.2393  0.6379
41712SOL     OW37114  13.682  13.287   4.100 -0.7013  0.0691 -0.0294
41712SOL    HW137115  13.700  13.210   4.153 -0.8646 -0.0585 -0.1598
41712SOL    HW237116  13.656  13.252   4.015  0.4794  0.2769 -0.4977
41713SOL     OW37117  10.698   9.381   3.290 -0.1793 -0.3431  0.3203
41713SOL    HW137118  10.725   9.403   3.379  0.3726 -2.4583  0.7165
41713SOL    HW237119  10.766   9.418   3.234  0.8469 -1.2120  0.9707
41714SOL     OW37120   4.427  10.086   1.889 -0.4141 -0.0500 -0.3251
41714SOL    HW137121   4.356  10.040   1.933  0.6005 -0.6728  0.7208
41714SOL    HW237122   4.502  10.076   1.948  1.0931 -1.1968 -2.3078
41715SOL     OW37123  12.288   5.070   7.675  0.0506  0.2694  0.2600
41715SOL    HW137124  12.305   5.156   7.636 -0.5277  0.0083 -0.6145
41715SOL    HW237125  12.291   5.010   7.601 -0.7840 -0.2856  0.6629
41716SOL     OW37126   1.713   2.397   7.399  0.5550 -0.1330 -0.0517
41716SOL    HW137127   1.781   2.429   7.458  1.1638 -0.1258 -0.7448
41716SOL    HW237128   1.638   2.380   7.456  1.8468 -2.3827  1.1144
41717SOL     OW37129  10.408   0.274   5.420 -0.6149 -0.4311 -0.0465
41717SOL    HW137130  10.378   0.203   5.363 -0.6199 -1.2951  0.9981
41717SOL    HW237131  10.493   0.244   5.453 -0.9810 -0.3363  1.0377
41718SOL     OW37132   5.688   7.955   8.726 -0.0940 -0.6811 -0.1844
41718SOL    HW137133   5.640   7.874   8.714  0.5353 -0.8048 -2.3907
41718SOL    HW237134   5.768   7.943   8.675  0.9926  0.5598  1.1346
41719SOL     OW37135  10.363   2.061   6.675  0.1629  0.3920 -0.2596
41719SOL    HW137136  10.339   1.974   6.644 -0.4637 -0.2449  1.8076
41719SOL    HW237137  10.322   2.067   6.762 -0.7501  3.1905 -0.7899
41720SOL     OW37138   2.677  13.139  10.554  0.1038  0.1757 -0.0671
41720SOL    HW137139   2.637  13.061  10.592  1.0554  0.2248  1.1000
41720SOL    HW237140   2.613  13.170  10.490 -0.0566 -1.8933 -1.0026
41721SOL     OW37141   2.029   2.638  13.120  0.7811  0.0029  0.7686
41721SOL    HW137142   2.104   2.668  13.069  1.9625 -0.3013  2.2649
41721SOL    HW237143   2.052   2.550  13.148 -0.4700 -0.3910  0.6221
41722SOL     OW37144   9.044   6.821   0.702 -0.7255 -0.0432 -0.3279
41722SOL    HW137145   9.119   6.762   0.695 -0.5046 -0.2783  2.5342
41722SOL    HW237146   8.971   6.763   0.724 -1.2537  0.4299 -0.8280
41723SOL     OW37147   9.100  10.767   0.562 -0.4439  0.2491 -0.0897
41723SOL    HW137148   9.006  10.753   0.548 -0.2907 -0.9644 -0.0071
41723SOL    HW237149   9.128  10.691   0.612  0.9277 -0.2467 -1.5558
41724SOL     OW37150   0.157  12.183   4.424 -0.6376  0.0318 -0.0651
41724SOL    HW137151   0.202  12.130   4.490  1.8847 -1.3804 -2.6705
41724SOL    HW237152   0.203  12.267   4.426 -1.0363  0.2462  0.4000
41725SOL     OW37153  13.410   2.052  11.052 -0.2557  0.2002  0.3491
41725SOL    HW137154  13.480   2.098  11.005 -0.1938 -1.1249 -0.9320
41725SOL    HW237155  13.349   2.025  10.983 -0.8865 -0.5847  1.1979
41726SOL     OW37156  13.082  13.350   8.812 -0.0536  0.6919  0.3994
41726SOL    HW137157  13.131  13.404   8.873  0.5162  0.0726  0.4933
41726SOL    HW237158  13.127  13.266   8.812 -0.5134  0.4361 -0.2775
41727SOL     OW37159   0.695   7.980  13.015 -0.1247  0.0854 -0.1757
41727SOL    HW137160   0.700   8.076  13.024  2.5364  0.2267 -2.1175
41727SOL    HW237161   0.714   7.947  13.103 -1.7267  1.3003  0.6708
41728SOL     OW37162   0.545   3.946  12.619 -0.4287  0.5748  0.0320
41728SOL    HW137163   0.451   3.938  12.606 -0.3569 -0.6160  0.1265
41728SOL    HW237164   0.565   4.037  12.598 -1.3523  0.4251 -1.6681
41729SOL     OW37165  12.892   5.622   5.493 -0.0642 -0.4773 -0.0735
41729SOL    HW137166  12.821   5.637   5.555 -0.2218 -0.6090 -0.2229
41729SOL    HW237167  12.951   5.696   5.506  0.2229 -0.8181  0.6739
41730SOL     OW37168   2.302  11.066   4.765  0.3278 -0.7780 -0.7040
41730SOL    HW137169   2.372  11.071   4.700  0.6177 -1.8648 -0.4818
41730SOL    HW237170   2.232  11.018   4.722  0.8479 -2.2629  0.0530
41731SOL     OW37171   1.938   1.126   8.250 -0.3888  0.3345  0.2714
41731SOL    HW137172   1.854   1.148   8.291 -1.2144 -0.1988 -1.0825
41731SOL    HW237173   1.994   1.201   8.270 -1.4615  1.1206  0.4169
41732SOL     OW37174  11.846   0.511  11.256 -0.5043 -0.0243 -0.3381
41732SOL    HW137175  11.798   0.463  11.323 -0.3199  0.9440  0.4952
41732SOL    HW237176  11.786   0.513  11.181 -0.9540 -0.5774 -0.0042
41733SOL     OW37177   0.685   3.558   7.753  0.4410  0.1099  0.1053
41733SOL    HW137178   0.697   3.584   7.844 -0.2641  1.6151 -0.1996
41733SOL    HW237179   0.699   3.464   7.753  0.8283  0.1398  1.6991
41734SOL     OW37180   9.387   5.107   1.044  0.5210 -0.2534  0.0237
41734SOL    HW137181   9.431   5.052   0.979 -1.0350  0.1179 -1.3983
41734SOL    HW237182   9.320   5.050   1.082  0.3131  0.0324  0.0858
41735SOL     OW37183   4.445  13.604  12.177  0.5520  0.5596  0.0731
41735SOL    HW137184   4.394  13.529  12.208  0.1609  0.6979 -0.2228
41735SOL    HW237185   4.537  13.578  12.189  0.4475 -0.4043 -1.0213
41736SOL     OW37186  10.395   2.419  12.570 -0.1838 -0.4015 -0.0414
41736SOL    HW137187  10.448   2.341  12.585  3.2889  2.0044  1.5328
41736SOL    HW237188  10.417   2.447  12.481  0.4597  0.0110  0.2351
41737SOL     OW37189   3.442   6.715  11.982 -0.3110 -0.3962  0.8732
41737SOL    HW137190   3.398   6.777  11.922 -1.6764 -0.7115  1.5087
41737SOL    HW237191   3.497   6.770  12.037 -0.0204  0.0337  0.1729
41738SOL     OW37192   6.392   0.716  11.078 -0.1922 -0.7029  0.5119
41738SOL    HW137193   6.399   0.634  11.126  1.9421 -0.9351 -0.0658
41738SOL    HW237194   6.333   0.770  11.130  0.0456 -1.8475  2.0450
41739SOL     OW37195   0.703   6.830   4.530 -0.5119 -0.2764  0.2621
41739SOL    HW137196   0.653   6.876   4.597 -1.5230 -0.9467 -0.0201
41739SOL    HW237197   0.666   6.860   4.447 -0.5456 -0.8802  0.0538
41740SOL     OW37198   8.375  10.877  13.955  0.3843  0.2871  0.0325
41740SOL    HW137199   8.362  10.798  14.006  0.6525  0.0765 -0.2283
41740SOL    HW237200   8.286  10.901  13.926  0.2237  0.4337  0.6201
41741SOL     OW37201  10.902  14.045  11.868 -0.0493 -0.3059  0.0061
41741SOL    HW137202  10.862  13.973  11.916 -0.9989 -0.1739 -0.5699
41741SOL    HW237203  10.891  14.121  11.925  0.2245 -0.4542  0.2582
41742SOL     OW37204   0.946   1.273   9.089 -0.7826  0.2277 -0.4429
41742SOL    HW137205   1.021   1.299   9.142  0.1674 -2.9245 -0.0998
41742SOL    HW237206   0.952   1.329   9.011  1.1005  0.9910  0.1947
41743SOL     OW37207   5.691  13.345  14.024 -0.1683  0.5781 -0.2449
41743SOL    HW137208   5.664  13.319  14.111 -1.0013  2.1707  0.0067
41743SOL    HW237209   5.782  13.315  14.017 -0.5497 -0.8412  0.6024
41744SOL     OW37210   0.126   5.587   6.530 -0.1616  0.0352  0.3170
41744SOL    HW137211   0.096   5.510   6.482  3.0894 -1.6966  0.7765
41744SOL    HW237212   0.138   5.654   6.463 -1.0061 -0.5416 -0.4332
41745SOL     OW37213   3.896  13.638  10.266  0.2525  0.2369  0.0700
41745SOL    HW137214   3.910  13.546  10.290  1.8108 -0.4516 -2.9673
41745SOL    HW237215   3.845  13.674  10.339 -0.2871 -2.9666  1.4670
41746SOL     OW37216   6.020  10.164  11.188  0.2858 -0.6107 -0.3485
41746SOL    HW137217   5.991  10.107  11.259 -0.1285 -1.5203 -1.2230
41746SOL    HW237218   6.083  10.224  11.229 -0.4424 -0.6776  0.9076
41747SOL     OW37219  11.021   2.080   2.785  0.6920  0.0288  0.6806
41747SOL    HW137220  11.044   1.997   2.743 -2.7978 -1.6446  1.7632
41747SOL    HW237221  10.998   2.138   2.712 -1.4514 -1.5814 -0.0314
41748SOL     OW37222   6.487   1.568  12.641 -0.5350  0.7403 -0.0543
41748SOL    HW137223   6.515   1.560  12.550  0.0080 -0.6538  0.2144
41748SOL    HW237224   6.543   1.637  12.678  0.0920  0.4494 -0.4532
41749SOL     OW37225   8.067  10.942   1.111  0.2295 -0.2112 -0.2977
41749SOL    HW137226   8.148  10.984   1.082  0.3058  1.0567  1.5770
41749SOL    HW237227   7.997  10.990   1.065  0.3519  1.6791  1.3580
41750SOL     OW37228   3.630   7.372   7.361  0.1596  0.3903 -0.2562
41750SOL    HW137229   3.575   7.441   7.398 -1.5446 -0.3536 -1.3066
41750SOL    HW237230   3.649   7.401   7.272 -0.5829 -0.4670 -0.7117
41751SOL     OW37231  10.956   0.482   2.369  0.2463 -0.1338  0.1667
41751SOL    HW137232  11.033   0.519   2.412  1.3774 -1.4060 -0.6810
41751SOL    HW237233  10.961   0.513   2.279  0.7713 -1.6301 -0.3493
41752SOL     OW37234   5.236   7.298   0.330 -0.2851  0.1842  0.4172
41752SOL    HW137235   5.312   7.310   0.274 -0.5642 -0.7471 -0.1922
41752SOL    HW237236   5.264   7.231   0.393 -1.0244 -1.2636 -0.7120
41753SOL     OW37237   3.005   0.622  12.287 -0.1473 -0.0511  0.1858
41753SOL    HW137238   2.911   0.634  12.296 -0.4214 -0.3029 -1.9063
41753SOL    HW237239   3.035   0.697  12.235  0.7921 -0.0543  0.6911
41754SOL     OW37240   0.234   8.062   4.870  0.8003  0.1626 -0.6514
41754SOL    HW137241   0.263   8.061   4.961 -0.3518  0.0585 -0.2753
41754SOL    HW237242   0.142   8.037   4.873  0.9334 -0.5957 -1.9193
41755SOL     OW37243   7.657  13.292   6.005  0.3177 -0.4642  0.8334
41755SOL    HW137244   7.643  13.223   6.070 -0.0355 -0.2183  1.0199
41755SOL    HW237245   7.679  13.245   5.925 -0.5454 -0.8192  0.7933
41756SOL     OW37246   9.057  11.438   3.206  1.1015 -0.3799  0.2938
41756SOL    HW137247   9.077  11.511   3.264  2.6140 -0.2857 -0.3153
41756SOL    HW237248   8.963  11.424   3.218  1.3990 -0.6502  3.0887
41757SOL     OW37249   5.964   8.268   7.425  0.0838 -0.3066  0.1820
41757SOL    HW137250   6.033   8.208   7.397 -0.0938  0.2230 -1.5749
41757SOL    HW237251   5.884   8.215   7.423 -0.2981  0.1648 -2.6775
41758SOL     OW37252   8.053   0.781   4.298 -0.4024 -0.0210 -0.3214
41758SOL    HW137253   8.135   0.803   4.254 -0.4546 -0.3178 -0.5625
41758SOL    HW237254   7.990   0.769   4.228 -0.5571 -0.1961 -0.1526
41759SOL     OW37255   1.146  11.129   4.755 -0.5763 -0.7598  0.4138
41759SOL    HW137256   1.145  11.099   4.664  0.8533  0.5364 -0.0906
41759SOL    HW237257   1.229  11.176   4.763 -0.3031 -1.4988  2.6267
41760SOL     OW37258   8.540   9.177   7.980 -0.7058 -0.2753  0.2365
41760SOL    HW137259   8.454   9.140   8.002 -0.3553 -1.6696 -0.6076
41760SOL    HW237260   8.602   9.110   8.009  0.0955  0.6312  0.6460
41761SOL     OW37261   4.741  13.835   9.275  0.1571 -0.4204 -0.1320
41761SOL    HW137262   4.759  13.746   9.305 -1.2265 -0.2510  1.2828
41761SOL    HW237263   4.690  13.875   9.345 -2.3338  0.3367 -2.2127
41762SOL     OW37264   7.587   1.825   5.921 -0.2403  0.2722  0.2071
41762SOL    HW137265   7.614   1.734   5.909  0.0521  0.3489  0.2867
41762SOL    HW237266   7.502   1.819   5.966  0.9354  0.0587  2.5483
41763SOL     OW37267  12.607  12.298   2.755 -0.0351 -0.0301  0.0740
41763SOL    HW137268  12.616  12.393   2.750 -0.3638  0.0312  0.5742
41763SOL    HW237269  12.535  12.284   2.816 -0.1736 -0.5986 -0.2164
41764SOL     OW37270   8.808   7.368   6.547 -0.3074  0.3489  0.0155
41764SOL    HW137271   8.834   7.451   6.587  0.6749  0.4971 -0.8880
41764SOL    HW237272   8.792   7.310   6.622 -1.8003  1.5590  0.6812
41765SOL     OW37273   9.471   0.848   6.853 -0.5082  0.7964  0.1884
41765SOL    HW137274   9.399   0.787   6.867  0.8695 -0.5724  1.7104
41765SOL    HW237275   9.499   0.831   6.763 -0.6322 -0.3076  0.3467
41766SOL     OW37276  13.535  13.250   3.843  0.1447 -0.2070  0.4657
41766SOL    HW137277  13.446  13.221   3.864  0.6316 -1.2804  1.1478
41766SOL    HW237278  13.523  13.315   3.775 -1.1171 -1.0177 -0.1385
41767SOL     OW37279   0.104   3.851   9.641  0.0143  0.2345 -0.4997
41767SOL    HW137280   0.035   3.916   9.628  0.0932  0.2464 -0.8675
41767SOL    HW237281   0.087   3.785   9.574 -1.2229 -1.1128  1.0431
41768SOL     OW37282   9.163  11.549   5.912 -0.2317  0.0324 -0.8009
41768SOL    HW137283   9.151  11.529   6.005  1.0334  2.1138 -0.1489
41768SOL    HW237284   9.162  11.463   5.869 -1.3737 -0.9318  1.0433
41769SOL     OW37285   7.792  12.442   9.340  0.6225  0.1176  0.5908
41769SOL    HW137286   7.762  12.417   9.428  0.4100  0.1961  0.5420
41769SOL    HW237287   7.883  12.415   9.338  0.7223  0.4185  0.9562
41770SOL     OW37288   4.984  13.456   8.376  0.1641  0.0998 -0.1148
41770SOL    HW137289   4.942  13.481   8.459 -1.9505  2.1402 -1.6694
41770SOL    HW237290   4.913  13.419   8.323  0.2798  3.0509 -2.6117
41771SOL     OW37291  14.045   3.751   3.699 -0.6729 -0.5255 -0.1084
41771SOL    HW137292  14.119   3.807   3.678 -1.3958  0.1808 -0.8576
41771SOL    HW237293  14.084   3.667   3.722  0.3655 -0.1107 -0.3183
41772SOL     OW37294   8.646  13.129  10.665  0.7370  0.5525  0.1756
41772SOL    HW137295   8.592  13.112  10.588 -0.7063  2.1459  0.7607
41772SOL    HW237296   8.736  13.125  10.633  0.3928 -2.4705 -0.7904
41773SOL     OW37297   2.049   5.389  12.606  0.1991  0.4438  0.3632
41773SOL    HW137298   2.020   5.406  12.516  0.6812  0.1484  0.1524
41773SOL    HW237299   2.080   5.474  12.637 -0.1958  0.6003  0.3377
41774SOL     OW37300   1.924   2.954   2.293 -0.4951  0.0560 -0.3379
41774SOL    HW137301   2.018   2.932   2.289 -0.7678 -1.1937 -0.3961
41774SOL    HW237302   1.898   2.962   2.201 -0.4824  0.2217 -0.3266
41775SOL     OW37303  12.938  11.821  10.778  0.0187  0.2528  0.0786
41775SOL    HW137304  12.959  11.736  10.740  1.1559  0.0774  1.0208
41775SOL    HW237305  12.917  11.801  10.869  2.7106  1.1739  1.0023
41776SOL     OW37306   8.512   9.074   2.361 -0.1064 -0.0655  0.4879
41776SOL    HW137307   8.600   9.092   2.328 -0.3167  2.2380  1.0603
41776SOL    HW237308   8.464   9.155   2.348 -1.7501 -0.8211  1.5040
41777SOL     OW37309   5.757   6.518   7.671 -0.5603  0.1672 -0.0238
41777SOL    HW137310   5.785   6.566   7.748 -1.4725  0.5952  0.0532
41777SOL    HW237311   5.791   6.569   7.597  0.4172 -0.3090  0.0787
41778SOL     OW37312  10.308   9.822   3.915  0.0900  0.5827  0.5409
41778SOL    HW137313  10.239   9.821   3.849  0.3563 -2.5040  0.1763
41778SOL    HW237314  10.263   9.842   3.997 -1.1003 -0.4119  0.1580
41779SOL     OW37315   3.796  12.909  13.686 -0.0857 -0.4332 -0.4758
41779SOL    HW137316   3.858  12.863  13.742 -0.2618 -0.1369 -0.0285
41779SOL    HW237317   3.754  12.840  13.634 -1.2775 -0.9542  1.1028
41780SOL     OW37318   2.557  11.687   3.361  0.6264  0.1050 -0.2698
41780SOL    HW137319   2.638  11.667   3.408  1.9927  3.0510 -1.0968
41780SOL    HW237320   2.525  11.767   3.403 -1.0531 -0.1685 -0.9644
41781SOL     OW37321  12.264  11.717   7.560  0.3443  0.2538  0.2878
41781SOL    HW137322  12.171  11.737   7.569  0.6418  1.9871 -0.1379
41781SOL    HW237323  12.306  11.761   7.634  0.8949 -0.0168  0.1457
41782SOL     OW37324   5.564   0.731   5.722  0.5464 -0.1798 -0.5931
41782SOL    HW137325   5.512   0.660   5.759 -0.6490  1.2276  0.5780
41782SOL    HW237326   5.634   0.745   5.786 -0.9985  1.6503  0.8421
41783SOL     OW37327  11.979   2.806  11.290  0.3826 -0.0600  0.2063
41783SOL    HW137328  12.030   2.771  11.217  2.0210  0.8827  0.8303
41783SOL    HW237329  11.889   2.782  11.270  0.5250  1.4686 -2.9352
41784SOL     OW37330   4.883   5.184   6.297 -0.0924 -0.2724  0.3041
41784SOL    HW137331   4.882   5.211   6.389 -0.7835 -1.9316  0.8243
41784SOL    HW237332   4.800   5.217   6.262 -0.4326 -0.7584  0.6384
41785SOL     OW37333  12.225   2.510   5.068  0.0121  0.6636 -0.9066
41785SOL    HW137334  12.261   2.457   5.139  0.4936  0.7323 -1.0925
41785SOL    HW237335  12.235   2.600   5.099  1.9147  0.8176 -1.7832
41786SOL     OW37336  10.489   3.253   6.888 -0.0077  0.1047  0.4949
41786SOL    HW137337  10.521   3.342   6.902  1.4177 -0.1374 -0.9287
41786SOL    HW237338  10.544   3.219   6.817 -1.4399 -1.4265  0.0598
41787SOL     OW37339   2.148   8.618   8.811 -0.2783 -0.6082 -0.5543
41787SOL    HW137340   2.234   8.656   8.828 -0.2520 -0.4368 -1.0552
41787SOL    HW237341   2.088   8.671   8.864 -0.2972  0.4253 -1.5560
41788SOL     OW37342   9.575   0.147  11.634 -0.1092  0.3761 -0.2074
41788SOL    HW137343   9.565   0.115  11.544  1.3848 -0.7810 -0.0074
41788SOL    HW237344   9.622   0.229  11.625  1.3052 -0.4290 -0.4390
41789SOL     OW37345   0.180   7.184   6.187  0.2809  0.0168  0.3653
41789SOL    HW137346   0.116   7.132   6.236 -1.6891 -0.0075 -2.0333
41789SOL    HW237347   0.242   7.120   6.153 -0.6799 -0.4890 -0.4835
41790SOL     OW37348  12.306  12.632   0.099  0.1392  0.6563 -0.2377
41790SOL    HW137349  12.285  12.705   0.041  0.6593  0.4210 -0.7246
41790SOL    HW237350  12.340  12.674   0.179 -1.1064  0.9985  0.1322
41791SOL     OW37351   3.654   3.438   7.017 -0.0165  0.3757  0.7830
41791SOL    HW137352   3.661   3.466   6.926 -0.8865  1.3991  1.0210
41791SOL    HW237353   3.636   3.518   7.066 -0.4336 -0.2879  1.7525
41792SOL     OW37354   7.847   5.442  13.092  0.2371  0.1203  0.4650
41792SOL    HW137355   7.779   5.422  13.026 -0.4512 -0.8448  1.4337
41792SOL    HW237356   7.929   5.443  13.042 -0.3646  0.2661 -0.5531
41793SOL     OW37357   9.647  11.165  11.182  0.2220 -0.7055 -0.3151
41793SOL    HW137358   9.646  11.193  11.090 -0.5705  3.0102  0.6829
41793SOL    HW237359   9.717  11.216  11.222 -1.9947  0.7839  1.9102
41794SOL     OW37360   0.527  13.477   9.280  0.1320 -0.3064 -0.2196
41794SOL    HW137361   0.579  13.422   9.338  2.8195 -0.9558 -2.9863
41794SOL    HW237362   0.554  13.567   9.303  1.9207 -0.5959 -1.0129
41795SOL     OW37363   8.593   6.939   4.769  1.0016  0.2003 -0.3193
41795SOL    HW137364   8.628   6.962   4.683 -0.1130  0.7981 -0.6290
41795SOL    HW237365   8.641   6.995   4.830  2.3101 -0.7327 -0.4435
41796SOL     OW37366   7.437   7.562   1.206  0.4720 -0.3886  0.2949
41796SOL    HW137367   7.500   7.536   1.273 -0.4041  0.9524  1.6798
41796SOL    HW237368   7.491   7.589   1.132  1.5018 -0.0941  1.1365
41797SOL     OW37369   8.668  11.576   5.733  0.2160  0.5724 -0.2328
41797SOL    HW137370   8.713  11.630   5.798 -0.3445  0.1554  0.5288
41797SOL    HW237371   8.635  11.638   5.668  0.5046  1.0344  0.0572
41798SOL     OW37372   3.740   7.998   3.837 -0.1450 -0.1854  0.1467
41798SOL    HW137373   3.811   7.981   3.776  0.3808 -1.2314  1.0198
41798SOL    HW237374   3.760   7.945   3.914 -2.3488 -1.2733  0.0681
41799SOL     OW37375   7.148   2.286   7.294  0.1819 -0.6920  0.1136
41799SOL    HW137376   7.088   2.352   7.261  0.8534  0.0430  0.3178
41799SOL    HW237377   7.092   2.216   7.327 -0.5231 -0.7862 -1.2155
41800SOL     OW37378   9.635   3.248   6.256 -0.3355  0.7668 -0.1852
41800SOL    HW137379   9.723   3.280   6.234 -1.3519  3.0360 -1.2461
41800SOL    HW237380   9.630   3.162   6.215  1.2417  0.7958 -0.4958
41801SOL     OW37381  13.198  13.531   0.170  0.0523  0.0635 -0.3419
41801SOL    HW137382  13.293  13.538   0.160 -0.1426  3.2442 -0.7631
41801SOL    HW237383  13.167  13.503   0.084  0.3888  2.5563 -1.3338
41802SOL     OW37384   5.935   6.657   5.159  0.2291 -1.0217 -0.5994
41802SOL    HW137385   5.934   6.715   5.236 -1.3926 -3.0977  1.0490
41802SOL    HW237386   5.864   6.690   5.104 -0.1988 -0.9993 -0.0392
41803SOL     OW37387  12.395  13.263  12.607 -0.0634  0.2209 -0.0191
41803SOL    HW137388  12.389  13.198  12.678  0.2612 -0.6234 -0.7371
41803SOL    HW237389  12.348  13.222  12.535 -1.8671  1.8001  0.1956
41804SOL     OW37390   6.016   5.166  10.491  0.2914  0.1921  0.6825
41804SOL    HW137391   6.029   5.149  10.398  1.0399 -0.1184  0.8289
41804SOL    HW237392   5.969   5.089  10.523 -0.6236  0.6344  0.4288
41805SOL     OW37393   3.514   0.452   8.192 -0.2193  0.0754 -0.3079
41805SOL    HW137394   3.459   0.524   8.161  0.4162  0.3082 -0.9286
41805SOL    HW237395   3.456   0.400   8.248 -0.6422  1.1506  0.2831
41806SOL     OW37396   5.346   0.979   6.879  0.6190  0.1762  0.2357
41806SOL    HW137397   5.350   1.069   6.911 -2.3793  0.3759  0.4118
41806SOL    HW237398   5.253   0.965   6.861  0.5485 -3.6734  2.4896
41807SOL     OW37399   2.953  11.122  10.734  0.1445  0.0725  0.2965
41807SOL    HW137400   3.029  11.067  10.751  0.6436  0.9335  0.9493
41807SOL    HW237401   2.991  11.207  10.709 -0.5730 -0.3013 -2.3643
41808SOL     OW37402   2.488   5.971  13.617 -0.4381  0.3385 -0.4634
41808SOL    HW137403   2.514   6.036  13.683 -1.1254 -0.5805  0.7401
41808SOL    HW237404   2.429   6.019  13.559 -1.1744  0.7473  0.5856
41809SOL     OW37405  12.588  11.614   1.573 -0.9288 -0.0943  0.2865
41809SOL    HW137406  12.496  11.606   1.600 -1.4853  0.8263 -1.2422
41809SOL    HW237407  12.607  11.530   1.530 -1.4626  0.1728 -0.5027
41810SOL     OW37408  12.990   1.256   3.616  0.0769 -0.6457  0.1326
41810SOL    HW137409  12.989   1.171   3.659  2.5078 -1.5511 -1.3800
41810SOL    HW237410  13.076   1.261   3.574  0.2656  2.8150  0.5984
41811SOL     OW37411   6.425   0.878   8.069 -0.1567  0.1693  0.0381
41811SOL    HW137412   6.433   0.815   8.140 -2.4267  0.7697  0.9206
41811SOL    HW237413   6.340   0.860   8.030  1.2732 -0.5706 -3.0405
41812SOL     OW37414   3.583  13.190   0.432  0.1031  0.2487  0.3814
41812SOL    HW137415   3.547  13.224   0.514 -0.6877 -0.4563  0.3465
41812SOL    HW237416   3.534  13.235   0.364 -0.4041 -0.3809  0.3255
41813SOL     OW37417   4.810   2.219   2.169  0.1760 -0.4827  0.0090
41813SOL    HW137418   4.729   2.191   2.211 -0.7589  2.6133  0.5718
41813SOL    HW237419   4.878   2.162   2.205 -1.2201 -0.6986  2.4950
41814SOL     OW37420  11.469   9.194   4.887 -0.3398 -0.4196 -0.1386
41814SOL    HW137421  11.482   9.138   4.811 -1.1011 -0.6006 -0.1448
41814SOL    HW237422  11.421   9.139   4.949  1.2606 -0.6607  0.9406
41815SOL     OW37423   5.110  13.201  10.153  0.0451  0.5074 -0.7436
41815SOL    HW137424   5.106  13.292  10.180  0.1310  0.3077 -0.0362
41815SOL    HW237425   5.019  13.170  10.158 -0.2904  1.0207 -2.7138
41816SOL     OW37426  13.047   8.483   1.005 -0.2533  0.3433 -0.1628
41816SOL    HW137427  13.029   8.491   0.911 -3.0284 -1.1200  0.1277
41816SOL    HW237428  12.981   8.538   1.047  0.0143 -0.1558  0.9545
41817SOL     OW37429  10.941   4.110  13.092 -0.3895 -0.3265  0.1689
41817SOL    HW137430  11.030   4.077  13.103 -0.3931  0.3973  3.5172
41817SOL    HW237431  10.885   4.038  13.120 -0.8125 -0.3014 -0.5853
41818SOL     OW37432  11.900   7.989  10.301 -0.1730  0.2949 -0.9308
41818SOL    HW137433  11.956   7.959  10.372  1.8191  1.6919 -1.8270
41818SOL    HW237434  11.846   7.913  10.279  0.3492 -0.6557  0.9284
41819SOL     OW37435   8.438   9.102   6.543  0.1658  0.3577  0.2686
41819SOL    HW137436   8.446   9.082   6.636  0.6095  0.0861  0.1731
41819SOL    HW237437   8.421   9.196   6.540 -1.4001  0.1189  0.6942
41820SOL     OW37438  11.943   4.043   6.545 -0.2400  0.4185 -0.2775
41820SOL    HW137439  11.986   4.084   6.470 -0.0224 -1.0364 -0.9869
41820SOL    HW237440  11.994   3.963   6.561 -0.8958  0.1871  0.7818
41821SOL     OW37441   5.222   5.042   2.125 -0.3115  0.0917 -0.4320
41821SOL    HW137442   5.271   5.117   2.090  1.5920 -0.9792 -0.2258
41821SOL    HW237443   5.165   5.015   2.053  0.7199  0.3092 -1.3589
41822SOL     OW37444   6.246   0.702   3.663 -0.3797  0.0882 -0.1174
41822SOL    HW137445   6.238   0.628   3.723 -0.8038 -0.7991 -1.2124
41822SOL    HW237446   6.156   0.729   3.646 -0.2015  1.1993  0.6689
41823SOL     OW37447  10.027  13.844   0.758  0.0150  0.2609 -0.6612
41823SOL    HW137448  10.107  13.879   0.719  1.1832  0.5360  1.7586
41823SOL    HW237449   9.984  13.921   0.796 -0.4567 -0.1344 -0.3860
41824SOL     OW37450   3.343   6.167  11.184 -0.0012 -0.3133 -0.4851
41824SOL    HW137451   3.381   6.197  11.266  0.8169 -0.5212 -0.7742
41824SOL    HW237452   3.418   6.153  11.126 -0.4462 -1.6099 -0.7922
41825SOL     OW37453  12.473   2.098   7.266 -0.6157 -1.2448 -0.0733
41825SOL    HW137454  12.463   2.181   7.220 -0.7391 -1.1539  0.1176
41825SOL    HW237455  12.383   2.067   7.280 -0.5931 -1.0477  0.5168
41826SOL     OW37456   6.517   1.119  12.350 -0.0897 -0.0341 -0.1682
41826SOL    HW137457   6.470   1.098  12.269  0.2149  0.0828 -0.3730
41826SOL    HW237458   6.448   1.150  12.409 -0.1972  0.6445 -0.6418
41827SOL     OW37459   5.902   5.615   4.363 -0.6736 -0.0018 -0.1228
41827SOL    HW137460   5.909   5.553   4.436 -1.1265  0.1082  0.0175
41827SOL    HW237461   5.921   5.700   4.402  0.6981 -0.1260 -0.4656
41828SOL     OW37462  13.624   1.116   2.432 -0.3104 -0.7803  0.1617
41828SOL    HW137463  13.695   1.060   2.402 -1.5303 -2.3587  0.0738
41828SOL    HW237464  13.668   1.192   2.471  1.3652 -0.6480 -1.8197
41829SOL     OW37465   7.374  11.302   8.912  0.1336  0.3297 -0.6023
41829SOL    HW137466   7.426  11.328   8.989 -1.7091 -0.5370  1.0269
41829SOL    HW237467   7.310  11.373   8.901 -2.1762 -1.3028  1.2417
41830SOL     OW37468   6.734   8.208  12.827 -0.5372  0.5401  0.3189
41830SOL    HW137469   6.804   8.166  12.777 -1.9097 -0.0647 -1.1771
41830SOL    HW237470   6.655   8.161  12.802 -1.4469  0.8696  2.3515
41831SOL     OW37471  13.171  11.111  12.836  0.1688  0.6360 -0.9631
41831SOL    HW137472  13.076  11.101  12.842  0.1005  1.8872  2.0337
41831SOL    HW237473  13.183  11.202  12.809  0.4612  0.9596  0.2093
41832SOL     OW37474   3.942   2.812  10.930  0.8394  0.0697  0.1701
41832SOL    HW137475   3.890   2.826  11.009 -1.7213  1.1310 -1.5433
41832SOL    HW237476   3.912   2.728  10.896  0.7636  0.3272 -0.4295
41833SOL     OW37477   0.421   8.155   7.266  0.5383  0.3398 -0.0833
41833SOL    HW137478   0.429   8.241   7.309 -0.9494 -0.0848  1.1543
41833SOL    HW237479   0.383   8.176   7.181 -1.3203  0.8700  0.7989
41834SOL     OW37480  11.859   9.465   2.194  0.1434 -0.2148  0.0906
41834SOL    HW137481  11.901   9.550   2.185  1.1993 -0.5955  1.1493
41834SOL    HW237482  11.786   9.467   2.133 -0.0763  1.5951  0.3779
41835SOL     OW37483  12.601  12.858   2.230 -0.0789  0.4050 -0.2230
41835SOL    HW137484  12.626  12.853   2.323  0.7987 -0.7578 -0.5071
41835SOL    HW237485  12.611  12.769   2.198  0.7855  1.0224 -1.7437
41836SOL     OW37486   4.430   7.799   8.570 -0.0120  0.3983 -0.3029
41836SOL    HW137487   4.400   7.839   8.653 -1.2140  0.4574 -0.7379
41836SOL    HW237488   4.493   7.733   8.597 -1.4376 -0.5783  0.8076
41837SOL     OW37489   5.036   7.903   3.871 -0.5401 -0.2334  0.3528
41837SOL    HW137490   4.977   7.845   3.824  1.0888 -1.0752 -0.7254
41837SOL    HW237491   5.048   7.978   3.813  0.1688 -0.4980  0.1527
41838SOL     OW37492  12.610   9.969   3.049  0.1919  0.2389 -0.7453
41838SOL    HW137493  12.629  10.020   2.970  0.2738  0.7174 -0.4182
41838SOL    HW237494  12.566   9.891   3.017 -0.5963  0.8586 -1.1885
41839SOL     OW37495   6.099  13.067   2.632 -0.3581 -0.1342 -0.5525
41839SOL    HW137496   6.047  12.999   2.588 -1.2693 -0.8285  1.4683
41839SOL    HW237497   6.119  13.130   2.563 -2.3010 -0.7928 -1.8086
41840SOL     OW37498   1.680   7.366  11.864  0.5202 -0.3128  0.0078
41840SOL    HW137499   1.743   7.298  11.839  1.3110  0.3403  0.1892
41840SOL    HW237500   1.595   7.321  11.865  0.8860 -1.0531 -0.8779
41841SOL     OW37501   1.046   3.832   3.760  0.8735 -0.0610 -0.0056
41841SOL    HW137502   1.135   3.807   3.737  1.2633  2.0971 -1.1125
41841SOL    HW237503   1.026   3.780   3.838  3.5498  0.2729  1.0267
41842SOL     OW37504   4.745   4.001  13.237 -0.0638 -0.1355  0.0565
41842SOL    HW137505   4.689   3.986  13.161  0.6492  0.5593 -0.6290
41842SOL    HW237506   4.699   4.065  13.290 -0.5192 -0.5489  0.1630
41843SOL     OW37507   3.236   8.637  12.220 -0.0119 -0.9324  0.0058
41843SOL    HW137508   3.257   8.645  12.127  1.2741 -0.9440  0.2753
41843SOL    HW237509   3.145   8.665  12.227  0.7627  2.1126 -0.8274
41844SOL     OW37510  12.610   5.627   5.351 -0.1974 -0.5077 -0.2464
41844SOL    HW137511  12.616   5.596   5.442  0.3664  0.1998 -0.0301
41844SOL    HW237512  12.664   5.567   5.301  1.6677  0.6252  0.3177
41845SOL     OW37513   3.906  12.724   4.665 -0.5270  0.1691 -0.3238
41845SOL    HW137514   3.814  12.743   4.679 -0.7589 -0.2608 -1.1940
41845SOL    HW237515   3.919  12.636   4.699  0.1305  1.0787  1.9953
41846SOL     OW37516   2.222  11.083   9.869 -0.0858  0.2849 -0.2819
41846SOL    HW137517   2.127  11.093   9.864 -0.0659  0.7210  0.1016
41846SOL    HW237518   2.236  10.989   9.878 -0.4976  0.2423 -0.0594
41847SOL     OW37519   5.841   2.137  10.544 -0.2722  0.0212  0.1255
41847SOL    HW137520   5.829   2.074  10.473  0.5761 -0.7826  0.6766
41847SOL    HW237521   5.932   2.165  10.536  0.4486 -1.5544  2.0316
41848SOL     OW37522   7.055  13.436  10.921  0.2243  0.8911  0.0321
41848SOL    HW137523   7.102  13.385  10.856  0.6602  0.6317  0.5508
41848SOL    HW237524   7.008  13.502  10.870 -0.5906 -0.2021 -0.6651
41849SOL     OW37525   3.402   5.809   4.749  0.6778  0.0654 -0.0709
41849SOL    HW137526   3.469   5.878   4.753  1.1144 -0.3841  0.3712
41849SOL    HW237527   3.338   5.843   4.687  0.4234  1.2809  0.8282
41850SOL     OW37528   7.091   1.906   9.079  0.6565 -0.5188  0.0761
41850SOL    HW137529   7.135   1.874   9.158  1.8312 -0.9053 -0.6984
41850SOL    HW237530   7.161   1.952   9.031 -0.7207  2.5094  0.7203
41851SOL     OW37531   1.849   5.733  13.166 -0.4600 -0.2743  0.1471
41851SOL    HW137532   1.881   5.732  13.076  0.0850 -0.1560  0.3340
41851SOL    HW237533   1.927   5.753  13.219 -0.9520  0.5707  0.5659
41852SOL     OW37534  12.338  13.163  10.461 -0.4402 -0.1388 -0.5370
41852SOL    HW137535  12.258  13.204  10.494 -0.5096 -1.1063  0.5410
41852SOL    HW237536  12.401  13.172  10.532 -0.7688 -2.7864  0.1872
41853SOL     OW37537   2.186  11.750   0.466  0.0121 -0.2739 -0.3866
41853SOL    HW137538   2.132  11.672   0.453  0.7677 -0.8285 -0.2801
41853SOL    HW237539   2.248  11.725   0.535  3.0486 -1.0969 -3.1458
41854SOL     OW37540   6.981   8.826   3.675  0.1230 -0.4223 -0.1334
41854SOL    HW137541   7.065   8.868   3.657  0.4153 -0.6827  0.6087
41854SOL    HW237542   6.935   8.888   3.732 -0.1109 -0.3694 -0.3771
41855SOL     OW37543   0.285   2.370   6.949  0.1735  0.5120  0.0691
41855SOL    HW137544   0.309   2.436   7.015  1.3287  2.0137 -1.7541
41855SOL    HW237545   0.266   2.421   6.870 -1.8819 -1.1733 -0.6341
41856SOL     OW37546   9.424   6.097   2.393  0.2253 -0.0687  0.4897
41856SOL    HW137547   9.473   6.057   2.465  0.3726 -0.2569  0.2873
41856SOL    HW237548   9.491   6.116   2.327 -0.2433 -2.4328 -0.7631
41857SOL     OW37549  10.445   1.166   7.706  0.0503  0.6714 -0.7345
41857SOL    HW137550  10.503   1.144   7.633 -0.1291  1.5363 -1.1586
41857SOL    HW237551  10.443   1.262   7.706  0.9242  0.7180  1.1204
41858SOL     OW37552  12.430   1.678   8.812  0.4465 -0.0110 -0.4438
41858SOL    HW137553  12.338   1.702   8.798  0.3671  0.6831  1.0508
41858SOL    HW237554  12.428   1.584   8.831 -0.2034  0.3339  1.3674
41859SOL     OW37555   2.767  10.468  13.047  0.1800 -0.1664 -0.0736
41859SOL    HW137556   2.673  10.453  13.036  0.2041 -1.0188  0.7808
41859SOL    HW237557   2.780  10.559  13.020 -0.8898 -0.0365 -0.1854
41860SOL     OW37558   1.996   1.797   5.782 -0.5175  0.0855 -0.5189
41860SOL    HW137559   2.011   1.816   5.874  1.1452  0.1229 -0.7603
41860SOL    HW237560   1.928   1.858   5.755 -1.5923 -0.4531  0.8554
41861SOL     OW37561   4.930   3.782   7.774  0.4490  0.2753 -0.1209
41861SOL    HW137562   4.904   3.691   7.757  0.5981  0.5608 -2.1181
41861SOL    HW237563   4.904   3.829   7.695  1.2098  1.7981  0.5053
41862SOL     OW37564  12.056  13.957  11.335 -0.8030  0.0944  0.3446
41862SOL    HW137565  12.131  13.925  11.385 -0.4682  1.6095  0.8694
41862SOL    HW237566  12.001  13.880  11.321  0.0635 -0.7278  1.3606
41863SOL     OW37567  12.686   9.680   4.773  0.5116  0.2629  0.0402
41863SOL    HW137568  12.667   9.609   4.713 -1.0695 -0.2303  1.0696
41863SOL    HW237569  12.616   9.744   4.760  0.7684  0.6706  0.5716
41864SOL     OW37570   7.035   1.210   1.995 -0.0490  0.2700 -0.8342
41864SOL    HW137571   7.005   1.211   2.085 -3.7950  1.6734 -1.8966
41864SOL    HW237572   7.003   1.127   1.959  1.0186 -0.0765 -1.0356
41865SOL     OW37573  10.799   9.600  11.078  0.1920 -0.1225 -0.2861
41865SOL    HW137574  10.776   9.517  11.118  0.3978  1.0297  2.4540
41865SOL    HW237575  10.716   9.635  11.044 -0.2374 -0.5602  0.3046
41866SOL     OW37576   1.178  10.987   7.319 -0.2766  0.1202  0.2897
41866SOL    HW137577   1.144  11.057   7.374 -1.8644 -0.2965 -0.1053
41866SOL    HW237578   1.142  11.005   7.232 -1.2746 -1.5276  0.3281
41867SOL     OW37579   0.694   5.197   6.083 -0.4366  0.0473 -0.0305
41867SOL    HW137580   0.775   5.216   6.035  0.6513 -1.3163  1.1761
41867SOL    HW237581   0.651   5.129   6.030 -0.1633 -0.1309 -0.0254
41868SOL     OW37582   9.134   2.890   5.963  0.3023 -0.0071 -0.1016
41868SOL    HW137583   9.217   2.844   5.952  0.5268  0.7732 -2.0027
41868SOL    HW237584   9.075   2.824   6.001  1.9203 -0.3687  1.9526
41869SOL     OW37585  11.590  12.874   0.576 -0.1218 -0.3629  0.4619
41869SOL    HW137586  11.572  12.780   0.581 -0.4484 -0.3156  0.2186
41869SOL    HW237587  11.504  12.914   0.560  0.1486 -0.1032 -0.4010
41870SOL     OW37588   4.569   1.588   8.571  0.1400 -0.2876  0.6113
41870SOL    HW137589   4.639   1.603   8.635 -0.3531 -0.0886  1.1128
41870SOL    HW237590   4.503   1.539   8.619  0.0204 -0.6531  0.0815
41871SOL     OW37591   8.605   8.235   9.905  0.1521 -0.5081  0.2204
41871SOL    HW137592   8.531   8.227   9.845  0.7270 -0.2134 -0.5473
41871SOL    HW237593   8.675   8.274   9.852 -0.1899  2.5348  1.7818
41872SOL     OW37594   0.500   1.503   7.291 -0.0159 -0.6334  0.3172
41872SOL    HW137595   0.591   1.509   7.318  0.6382 -4.8323 -0.3323
41872SOL    HW237596   0.474   1.414   7.314 -3.8628  0.2527  0.0602
41873SOL     OW37597  13.203   9.139  13.744 -0.1639  0.3953 -0.0442
41873SOL    HW137598  13.212   9.229  13.714 -1.3894  1.0117  1.3248
41873SOL    HW237599  13.291   9.102  13.735  0.3722  1.7407 -0.5624
41874SOL     OW37600  10.211  10.499  11.398 -0.4304 -0.2368 -0.1670
41874SOL    HW137601  10.208  10.482  11.492  0.6956  1.8008  0.2969
41874SOL    HW237602  10.296  10.463  11.370  0.5035  1.5732  0.1928
41875SOL     OW37603   8.312   7.562   9.875 -0.4576 -0.4247 -0.6135
41875SOL    HW137604   8.392   7.610   9.857  0.0137 -0.9948 -0.0928
41875SOL    HW237605   8.257   7.625   9.923 -0.2910 -0.0597 -0.8983
41876SOL     OW37606   2.464   6.939  10.051  0.0183  0.2117 -0.6580
41876SOL    HW137607   2.394   6.943  10.115  0.0768  1.1503 -0.6427
41876SOL    HW237608   2.538   6.902  10.098 -0.3650 -0.4766 -0.5881
41877SOL     OW37609  11.196  11.292   5.984  0.2301 -0.7848  0.3684
41877SOL    HW137610  11.264  11.231   5.955  0.2122 -0.2094 -0.9246
41877SOL    HW237611  11.146  11.312   5.906  0.2921  0.9640  0.7309
41878SOL     OW37612   4.049   2.784   1.586 -0.0525  0.0842 -0.2183
41878SOL    HW137613   4.064   2.769   1.493 -2.1390  0.1303 -0.5975
41878SOL    HW237614   3.983   2.853   1.589  1.2805  1.3630  1.3435
41879SOL     OW37615  12.214   5.042   0.644  0.6542  0.3549  0.4140
41879SOL    HW137616  12.163   5.113   0.604 -0.3431 -1.1357 -1.0787
41879SOL    HW237617  12.166   5.020   0.724 -0.7434 -0.5834 -0.6361
41880SOL     OW37618   4.195   4.768   5.156  0.0275  0.7737  0.1191
41880SOL    HW137619   4.116   4.804   5.116 -0.1182  1.2304  0.8100
41880SOL    HW237620   4.207   4.683   5.113  0.0593  1.3868 -1.1079
41881SOL     OW37621   5.168   2.236   2.815  0.3623  1.0402  0.3825
41881SOL    HW137622   5.141   2.163   2.758 -0.8754  0.4011  1.7216
41881SOL    HW237623   5.214   2.194   2.887  1.8158  1.8357 -0.0585
41882SOL     OW37624   0.324  11.239  11.941 -0.1213  0.9278 -0.3222
41882SOL    HW137625   0.234  11.272  11.945 -0.6528 -0.2551 -1.7871
41882SOL    HW237626   0.364  11.285  11.868  0.8582  2.2726  1.0050
41883SOL     OW37627  12.117   7.477  12.329  0.0179  0.1001 -0.7112
41883SOL    HW137628  12.097   7.397  12.377 -2.0415  1.4194  0.7654
41883SOL    HW237629  12.066   7.471  12.248 -0.3913  0.0830 -0.4483
41884SOL     OW37630   4.317   3.408  10.748  0.5577 -0.0950  0.0645
41884SOL    HW137631   4.241   3.449  10.707 -0.4468 -1.6754  0.2747
41884SOL    HW237632   4.297   3.411  10.842  1.6105  1.0957  0.2752
41885SOL     OW37633   2.571   1.321  11.405  0.1173 -0.0813 -0.3485
41885SOL    HW137634   2.526   1.293  11.485  0.1916  2.9896  0.8912
41885SOL    HW237635   2.620   1.244  11.378  0.4997 -1.1369  2.8574
41886SOL     OW37636   7.994   5.813   6.408 -0.3150  0.1343  0.1099
41886SOL    HW137637   8.005   5.762   6.328  0.6625 -0.8738  0.8461
41886SOL    HW237638   8.077   5.803   6.455 -0.3914  1.7580  0.6747
41887SOL     OW37639  11.023   8.625  11.126 -0.5089 -0.3075 -1.1115
41887SOL    HW137640  11.029   8.694  11.191 -0.9867 -1.7436  0.5427
41887SOL    HW237641  11.106   8.577  11.134  0.2131  0.5264 -2.8708
41888SOL     OW37642   9.270  10.092   9.727  0.5792  0.3693 -0.4976
41888SOL    HW137643   9.301  10.042   9.803 -3.1515 -0.1762  0.8619
41888SOL    HW237644   9.267  10.182   9.757 -2.7251 -0.0579  0.9058
41889SOL     OW37645   2.183   5.777   2.294  0.3414 -0.3473  0.1902
41889SOL    HW137646   2.130   5.849   2.258 -0.7271 -1.0519  0.3118
41889SOL    HW237647   2.215   5.810   2.378  0.5895  0.3031 -0.1528
41890SOL     OW37648   2.509   7.771   7.267  0.0100 -0.0483  0.1621
41890SOL    HW137649   2.570   7.836   7.233 -0.5013  1.3328  1.7217
41890SOL    HW237650   2.497   7.709   7.195  2.5335  0.1084 -0.4786
41891SOL     OW37651   4.764   4.060   8.003  0.2720 -0.1695  0.7488
41891SOL    HW137652   4.825   4.134   8.010  1.8410 -1.0925 -1.6411
41891SOL    HW237653   4.678   4.100   7.989  1.1319  1.2477 -0.7681
41892SOL     OW37654  12.770   4.168  13.593 -0.3830  0.4955 -0.0376
41892SOL    HW137655  12.714   4.108  13.642 -0.6591  0.3742 -0.5064
41892SOL    HW237656  12.723   4.251  13.594 -0.0512  0.6858  0.5166
41893SOL     OW37657  12.550   7.800  13.130 -0.1993  0.4123  0.4786
41893SOL    HW137658  12.600   7.789  13.049  0.8744  0.7467  1.0734
41893SOL    HW237659  12.468   7.754  13.114  0.2998 -0.1675 -0.5321
41894SOL     OW37660  11.400  11.283   2.498 -0.1168 -0.7732  0.4040
41894SOL    HW137661  11.394  11.259   2.406 -0.9159 -2.0243  0.7633
41894SOL    HW237662  11.443  11.208   2.539  1.8827  0.5085  0.7995
41895SOL     OW37663   3.375   4.147   6.668 -0.2157  0.0562 -0.0664
41895SOL    HW137664   3.342   4.088   6.736  1.0828 -0.6507 -0.0070
41895SOL    HW237665   3.372   4.095   6.588 -1.8936  0.9401 -0.6273
41896SOL     OW37666  10.516   7.919   4.890 -0.5026 -0.0091 -0.4417
41896SOL    HW137667  10.490   7.971   4.814 -0.6031  0.9139  0.2152
41896SOL    HW237668  10.596   7.960   4.921 -0.6022 -0.2229  0.1051
41897SOL     OW37669   2.048   0.383  10.664 -0.4377  0.3770 -0.6585
41897SOL    HW137670   1.972   0.441  10.655 -0.4064  0.7394  1.1384
41897SOL    HW237671   2.014   0.307  10.711  0.2061  0.3032 -0.3117
41898SOL     OW37672   5.671   2.285   7.952  0.2163 -0.1922  0.2565
41898SOL    HW137673   5.607   2.334   7.901 -0.3656  0.9714  1.9844
41898SOL    HW237674   5.755   2.301   7.909 -0.3162  0.2903 -0.6179
41899SOL     OW37675   4.431  12.378   0.687 -0.3614 -0.2783  0.2871
41899SOL    HW137676   4.383  12.372   0.769  0.0525  1.9449  0.7516
41899SOL    HW237677   4.524  12.374   0.712 -0.0055  4.3441  0.5848
41900SOL     OW37678   9.716  12.813   5.478  0.0888  0.0531 -0.0314
41900SOL    HW137679   9.672  12.765   5.548  3.3019 -2.1445  0.7192
41900SOL    HW237680   9.742  12.747   5.415  1.4069  1.3227 -0.9010
41901SOL     OW37681   2.701  13.829   7.829 -0.3558 -0.1286 -0.3045
41901SOL    HW137682   2.761  13.828   7.755  0.3688  4.2353 -0.0524
41901SOL    HW237683   2.615  13.849   7.790 -0.4373 -0.2443 -0.1836
41902SOL     OW37684   3.870   4.478   9.933 -0.5143 -0.5777  0.1916
41902SOL    HW137685   3.853   4.432  10.015  0.8028 -0.0136  0.8172
41902SOL    HW237686   3.965   4.475   9.923 -0.5758  0.2368 -0.7993
41903SOL     OW37687   6.725   7.687   4.992  0.2289  0.1115  0.0867
41903SOL    HW137688   6.642   7.708   4.950  0.8129 -2.7611 -2.8551
41903SOL    HW237689   6.702   7.667   5.083 -2.0493  0.8210 -0.2924
41904SOL     OW37690   7.962  12.965  13.584 -0.2171 -0.2469 -0.4671
41904SOL    HW137691   7.912  12.904  13.530 -0.0397  0.1516 -1.0865
41904SOL    HW237692   7.915  13.048  13.577  1.8682  0.8497 -3.1545
41905SOL     OW37693   4.698  11.854   5.826  0.1574 -0.4106  0.3282
41905SOL    HW137694   4.735  11.782   5.776  1.0270  0.4777 -0.3549
41905SOL    HW237695   4.604  11.844   5.817  0.2643 -1.3892  0.1586
41906SOL     OW37696   6.238   5.887   3.048  0.1557  0.3432  0.3263
41906SOL    HW137697   6.315   5.882   3.104  0.8185  2.2401 -0.3413
41906SOL    HW237698   6.264   5.843   2.968  0.1306 -0.0454  0.5295
41907SOL     OW37699   0.077   9.914   7.142  0.0745  0.3472 -0.1640
41907SOL    HW137700   0.168   9.922   7.112  0.1744  0.5697  0.1952
41907SOL    HW237701   0.082   9.922   7.237 -0.4519  1.5565 -0.2209
41908SOL     OW37702   7.936  12.389   4.802  0.0868  0.0685 -0.2759
41908SOL    HW137703   8.003  12.455   4.816  1.9666 -1.8290  0.1545
41908SOL    HW237704   7.984  12.306   4.793 -2.1171 -1.2309 -1.1339
41909SOL     OW37705   7.688   7.758  12.785 -0.2035  0.3207 -0.0859
41909SOL    HW137706   7.602   7.756  12.744 -1.2649  0.4271  2.0018
41909SOL    HW237707   7.742   7.701  12.730 -1.9068 -0.6871 -0.7882
41910SOL     OW37708   7.271   2.704   7.510  0.2875  0.1162 -0.6201
41910SOL    HW137709   7.335   2.649   7.464  1.1010  0.7107 -0.2217
41910SOL    HW237710   7.247   2.653   7.587 -1.1142 -0.9046 -1.6799
41911SOL     OW37711  11.112   5.302   4.973  0.0087  0.1953  0.0117
41911SOL    HW137712  11.080   5.365   5.038  1.5046 -1.6076  2.7289
41911SOL    HW237713  11.193   5.267   5.012  0.4302 -1.8023 -2.3829
41912SOL     OW37714   1.813   5.168   9.996  0.2661  0.1185 -0.4440
41912SOL    HW137715   1.747   5.105   9.969  1.1733 -1.5314  1.0099
41912SOL    HW237716   1.768   5.225  10.058 -0.1441 -0.1057 -0.5334
41913SOL     OW37717  11.778   7.249   7.948  0.3262  0.6375  0.5309
41913SOL    HW137718  11.704   7.263   8.007  1.2533 -1.4823  2.3225
41913SOL    HW237719  11.847   7.305   7.983  0.2166  1.0593  0.0863
41914SOL     OW37720  13.230   3.802   3.953 -0.2686  0.0118  0.1896
41914SOL    HW137721  13.304   3.787   3.895 -2.1962  2.2169 -3.1337
41914SOL    HW237722  13.259   3.872   4.012  0.8064 -0.3422  0.1061
41915SOL     OW37723  10.908   7.995   9.480  0.1162 -0.1351 -0.0042
41915SOL    HW137724  10.888   8.085   9.455  1.6846  0.6113  1.2480
41915SOL    HW237725  10.975   7.967   9.418 -0.7801 -0.6523 -0.7467
41916SOL     OW37726   2.505  10.742   2.614 -0.0363  0.2367  0.3561
41916SOL    HW137727   2.558  10.802   2.561 -1.0230 -0.1028 -1.0538
41916SOL    HW237728   2.561  10.666   2.627  0.2651  0.3750 -0.0960
41917SOL     OW37729  10.897   9.413   5.393  0.0981  0.1054  0.2102
41917SOL    HW137730  10.947   9.467   5.454 -3.5674  2.3709  1.4864
41917SOL    HW237731  10.911   9.455   5.308  1.3615 -0.1168  0.2882
41918SOL     OW37732   0.093  12.769   0.582 -0.8115 -0.5058 -0.1483
41918SOL    HW137733   0.035  12.837   0.616 -1.4152 -0.1011 -1.8880
41918SOL    HW237734   0.132  12.729   0.660 -0.9837  1.3490  0.9390
41919SOL     OW37735   5.250   8.860  11.211 -0.2999  0.4439 -0.3506
41919SOL    HW137736   5.183   8.899  11.268 -0.2376  0.4148 -0.2580
41919SOL    HW237737   5.286   8.788  11.263  0.0598  0.6877 -0.2575
41920SOL     OW37738   0.278   4.005   8.846 -0.7251  0.0978  0.0920
41920SOL    HW137739   0.299   3.923   8.800  0.9657 -0.1508  1.1773
41920SOL    HW237740   0.183   4.014   8.838 -0.6124 -0.1905 -2.9149
41921SOL     OW37741  11.880   8.545   7.885  0.2552 -0.0649 -0.4787
41921SOL    HW137742  11.816   8.507   7.825 -0.0252  0.7428 -0.6988
41921SOL    HW237743  11.900   8.631   7.848  1.3826 -0.2549 -0.3463
41922SOL     OW37744   4.881   9.753  11.504  0.2998 -0.4569 -0.3433
41922SOL    HW137745   4.801   9.736  11.555  0.9125  0.2296  0.8945
41922SOL    HW237746   4.910   9.840  11.533  0.6257  0.0156 -1.9685
41923SOL     OW37747   4.067  12.532  12.153  0.2353 -0.6281 -0.5903
41923SOL    HW137748   3.989  12.575  12.186  1.1077 -0.4251  1.3214
41923SOL    HW237749   4.041  12.496  12.068 -1.3994  0.9635 -0.8232
41924SOL     OW37750  11.149  12.876  13.168 -0.2770  0.2339  0.4598
41924SOL    HW137751  11.234  12.896  13.128 -1.0061  1.5517 -0.4811
41924SOL    HW237752  11.144  12.780  13.166  0.9526  0.1549  0.0623
41925SOL     OW37753  11.057   6.979   0.625  0.1335  0.5444 -0.3309
41925SOL    HW137754  11.091   6.993   0.713  2.3803  0.1163 -1.0702
41925SOL    HW237755  10.979   6.924   0.638  1.5998 -1.2918  1.2626
41926SOL     OW37756  12.778   6.969  12.558  0.5461  0.1858 -0.3498
41926SOL    HW137757  12.835   6.894  12.542  1.1312  0.7815 -1.1055
41926SOL    HW237758  12.831   7.030  12.607 -0.2232 -0.2564  1.0902
41927SOL     OW37759   2.716  11.398  10.816  0.1352  0.2111  0.1595
41927SOL    HW137760   2.698  11.322  10.760 -0.9328  1.4105 -1.2085
41927SOL    HW237761   2.657  11.386  10.891 -0.4979 -0.0111 -0.3569
41928SOL     OW37762  13.193  10.852   8.307 -0.1163  0.7902  0.3135
41928SOL    HW137763  13.234  10.920   8.254  0.4601  0.2893  0.1126
41928SOL    HW237764  13.160  10.898   8.384 -0.2165  1.3853 -0.0774
41929SOL     OW37765  11.601   0.551   5.916  0.3036 -0.0607  0.0668
41929SOL    HW137766  11.610   0.506   6.000 -1.5863  0.1303  0.4041
41929SOL    HW237767  11.577   0.481   5.854  2.3903 -0.3333 -0.5370
41930SOL     OW37768  11.746   6.332  10.220 -0.2627 -0.5499  0.1790
41930SOL    HW137769  11.831   6.309  10.257  0.5529  1.7170 -0.0911
41930SOL    HW237770  11.741   6.283  10.138  0.9191 -0.5030  0.0695
41931SOL     OW37771   5.495   7.592   9.025  0.0136  0.0182  0.2657
41931SOL    HW137772   5.529   7.520   8.971 -0.6590  1.0218 -1.5814
41931SOL    HW237773   5.436   7.549   9.087  1.1233 -1.2242  0.5258
41932SOL     OW37774   0.202   9.822   5.081  0.1203 -0.4197 -0.3061
41932SOL    HW137775   0.123   9.769   5.075 -0.6730  0.8269 -1.5245
41932SOL    HW237776   0.224   9.842   4.990  0.5851  1.0310  0.0967
41933SOL     OW37777   3.433   4.242  12.344 -0.0980 -0.2812  0.2844
41933SOL    HW137778   3.507   4.257  12.285 -1.0856 -2.7761 -1.8034
41933SOL    HW237779   3.362   4.295  12.308  0.2809  1.2541  1.6490
41934SOL     OW37780  11.610   5.526   1.946  0.2701  0.2004  0.2898
41934SOL    HW137781  11.618   5.598   2.009  0.0830  1.1317 -0.7295
41934SOL    HW237782  11.585   5.451   2.000 -2.8284  1.5944  1.0274
41935SOL     OW37783   9.073  11.510   7.462 -0.4182 -0.2958 -0.8036
41935SOL    HW137784   9.018  11.516   7.540 -1.6868  1.4429 -1.7535
41935SOL    HW237785   9.130  11.587   7.467  1.6843 -1.8147 -0.0842
41936SOL     OW37786   7.662   3.722   4.814  0.6027  0.4339 -0.1352
41936SOL    HW137787   7.584   3.774   4.831  0.6291 -0.1698  2.2902
41936SOL    HW237788   7.629   3.637   4.786  0.2799 -0.0500  1.5673
41937SOL     OW37789   3.699   8.299   2.852 -0.1965  0.2765 -0.2438
41937SOL    HW137790   3.615   8.285   2.809 -0.1862 -1.2921  0.1756
41937SOL    HW237791   3.750   8.221   2.831  1.1925  1.2283 -0.5387
41938SOL     OW37792   8.162   8.493   4.847  0.3359  0.3044  0.0127
41938SOL    HW137793   8.095   8.495   4.915  1.3471 -0.2097  1.0554
41938SOL    HW237794   8.210   8.575   4.859 -0.3530  0.8907 -1.0275
41939SOL     OW37795  11.345   6.576  12.570  0.1961 -0.2152 -0.4573
41939SOL    HW137796  11.314   6.497  12.614  0.9168 -0.1852  0.1182
41939SOL    HW237797  11.283   6.588  12.498 -0.9457 -0.3263  0.4623
41940SOL     OW37798   8.542  13.755  13.656  0.5862  0.1978 -0.2803
41940SOL    HW137799   8.477  13.722  13.594  0.7595 -0.4409 -0.1213
41940SOL    HW237800   8.623  13.760  13.605  0.7038 -0.2215 -0.1344
41941SOL     OW37801   9.755   7.506  13.336  0.1604 -0.2005  0.4862
41941SOL    HW137802   9.741   7.450  13.259 -2.1223  1.1073 -0.1196
41941SOL    HW237803   9.771   7.444  13.407 -1.2169 -1.6139 -0.3610
41942SOL     OW37804   3.538   0.161   6.342 -0.6494 -0.3815 -0.2187
41942SOL    HW137805   3.629   0.140   6.321 -0.2821  1.7524 -1.0447
41942SOL    HW237806   3.527   0.132   6.433  0.0664 -2.8853 -0.8543
41943SOL     OW37807   9.838   0.026   4.896  0.1428  0.1641 -0.0121
41943SOL    HW137808   9.886  -0.043   4.941  0.7483 -0.9579 -2.2136
41943SOL    HW237809   9.907   0.081   4.857 -0.3492  1.4427  0.8701
41944SOL     OW37810   8.193   2.569  10.207 -0.2050  0.4603 -0.0538
41944SOL    HW137811   8.164   2.478  10.207  0.0866  0.3656 -0.1927
41944SOL    HW237812   8.182   2.597  10.298 -0.2059  0.2556  0.0110
41945SOL     OW37813  11.838   7.251   4.528 -0.2899  0.2539 -0.4516
41945SOL    HW137814  11.874   7.337   4.549  0.8719 -0.3336  0.0283
41945SOL    HW237815  11.913   7.192   4.528 -1.2002 -0.9532  0.2663
41946SOL     OW37816  10.232  11.553   9.611 -0.1712  0.3847 -0.1931
41946SOL    HW137817  10.190  11.594   9.687  1.4037 -0.2995  1.1075
41946SOL    HW237818  10.172  11.484   9.585 -0.0836 -0.3537  1.4065
41947SOL     OW37819  13.114   0.412   4.928 -0.3495  0.4849  0.0204
41947SOL    HW137820  13.065   0.421   5.010 -0.0898 -0.3802  0.2825
41947SOL    HW237821  13.097   0.493   4.881 -1.9675  0.2594  0.1474
41948SOL     OW37822   7.391   2.295   7.443  0.6665 -0.4382  0.2773
41948SOL    HW137823   7.311   2.295   7.392  1.0100  2.5086 -0.4015
41948SOL    HW237824   7.369   2.242   7.521 -1.7180 -0.1973 -0.1514
41949SOL     OW37825   0.729   3.870   4.334 -0.3763 -0.7263  0.7703
41949SOL    HW137826   0.712   3.814   4.258 -0.6378 -0.8310  0.9072
41949SOL    HW237827   0.735   3.958   4.296 -1.2122 -0.6841  0.7113
41950SOL     OW37828   9.665   1.205   8.306  0.0848 -0.0499  0.2199
41950SOL    HW137829   9.573   1.232   8.308 -0.5295 -1.9800 -0.0620
41950SOL    HW237830   9.663   1.110   8.310  1.9785 -0.2726 -1.7429
41951SOL     OW37831   3.109   3.980   4.715  0.0081  0.6398  0.5164
41951SOL    HW137832   3.195   4.021   4.725 -0.2582  1.1587  0.7649
41951SOL    HW237833   3.121   3.890   4.746  0.5610  0.5758  0.1311
41952SOL     OW37834   7.981  11.417   6.412 -0.4788 -0.2892  0.1123
41952SOL    HW137835   7.901  11.450   6.371  0.8407  3.2907  0.0829
41952SOL    HW237836   8.032  11.380   6.340 -0.1833  1.6653 -0.7264
41953SOL     OW37837   1.871   2.860   2.042  0.2265 -0.6709 -0.5159
41953SOL    HW137838   1.867   2.833   1.950 -0.3789 -0.2168 -0.6280
41953SOL    HW237839   1.788   2.831   2.079 -0.7848  1.6289 -0.8220
41954SOL     OW37840  12.793  10.290  11.481 -0.1506 -0.3420 -0.2634
41954SOL    HW137841  12.830  10.279  11.568  0.5773  1.3892 -0.3141
41954SOL    HW237842  12.822  10.212  11.433 -1.0808 -1.6371  1.1553
41955SOL     OW37843   1.885   5.039   5.665  0.0923  0.0009  0.3703
41955SOL    HW137844   1.963   4.996   5.699  0.0298  0.6404  1.3707
41955SOL    HW237845   1.917   5.093   5.592  0.4686 -0.2882  0.3187
41956SOL     OW37846   7.188  12.805   3.308 -0.7533  0.0478  0.4318
41956SOL    HW137847   7.236  12.866   3.252 -1.2184 -0.5154 -0.6041
41956SOL    HW237848   7.106  12.850   3.328 -1.0314 -0.1683 -0.2079
41957SOL     OW37849   0.838   1.272  12.093  0.4206 -0.5125  0.0340
41957SOL    HW137850   0.922   1.230  12.111 -0.6508 -1.8093  2.4026
41957SOL    HW237851   0.806   1.230  12.014  1.3336 -1.0474 -0.0610
41958SOL     OW37852  12.746  12.022  11.540  0.3122  0.2946 -1.0595
41958SOL    HW137853  12.754  12.065  11.455 -1.8358  0.0908 -1.4156
41958SOL    HW237854  12.660  11.981  11.539  0.5948 -0.4924  0.8863
41959SOL     OW37855   0.283   1.531  10.046 -0.2162  0.2198  0.1503
41959SOL    HW137856   0.277   1.599  10.113  1.2036  0.7401 -0.2275
41959SOL    HW237857   0.367   1.489  10.062  0.5921  0.9942 -1.8906
41960SOL     OW37858  13.568   6.994   3.621 -0.1574 -0.1270  0.3309
41960SOL    HW137859  13.582   7.086   3.602  1.4926 -0.4634 -0.2419
41960SOL    HW237860  13.640   6.949   3.576 -0.4674 -1.6167  1.2557
41961SOL     OW37861   2.223   0.779   9.137 -0.1902 -0.5591  0.2608
41961SOL    HW137862   2.237   0.703   9.080 -0.5649 -0.2982 -0.1926
41961SOL    HW237863   2.128   0.794   9.133  0.0303  0.7561 -0.7551
41962SOL     OW37864   0.391   2.216  11.878  0.5763  0.2318  0.1942
41962SOL    HW137865   0.391   2.224  11.973  0.3720  0.0124  0.2113
41962SOL    HW237866   0.352   2.298  11.847  0.2887  0.1396  0.3108
41963SOL     OW37867   1.127  13.088   4.412  0.6458  0.1416 -0.3093
41963SOL    HW137868   1.124  12.993   4.413 -2.8133  0.0817 -1.1914
41963SOL    HW237869   1.191  13.110   4.345  0.9253 -1.5822 -0.6425
41964SOL     OW37870   3.257  10.920   3.474  0.1068  0.7624  0.5275
41964SOL    HW137871   3.230  10.879   3.392  0.7706 -0.3258  0.8291
41964SOL    HW237872   3.233  10.857   3.542 -1.2498  2.0264  1.2950
41965SOL     OW37873   5.712  11.494   9.485  0.3791 -0.1347  0.4351
41965SOL    HW137874   5.664  11.427   9.534  0.0438 -0.1471  0.0896
41965SOL    HW237875   5.689  11.478   9.394  1.2425 -0.2967  0.2411
41966SOL     OW37876  11.697  10.968   6.973  0.2265 -0.1411  0.2132
41966SOL    HW137877  11.790  10.967   6.994  0.3625  0.1126 -0.3638
41966SOL    HW237878  11.654  10.985   7.057  0.7042 -0.1222  0.4577
41967SOL     OW37879   6.935  11.420   1.277  0.2257 -0.1125  0.3243
41967SOL    HW137880   6.894  11.427   1.363  0.0472 -0.9493  0.3151
41967SOL    HW237881   6.902  11.496   1.228  0.7266  0.6582  1.1442
41968SOL     OW37882   1.778   3.646   6.645  0.1419  0.5305 -0.2117
41968SOL    HW137883   1.686   3.654   6.624 -0.3910  0.4201  1.8022
41968SOL    HW237884   1.824   3.694   6.576 -1.2199 -1.3349 -2.5492
41969SOL     OW37885   0.779   3.540  11.793  0.4815  0.5378 -0.1949
41969SOL    HW137886   0.744   3.552  11.705 -0.2007 -0.5058 -0.0823
41969SOL    HW237887   0.739   3.459  11.824 -0.9259  1.9443  1.8852
41970SOL     OW37888   1.487   8.382   0.103  0.5826  0.1711  0.7476
41970SOL    HW137889   1.546   8.326   0.052 -0.5038 -1.6447  1.3985
41970SOL    HW237890   1.482   8.339   0.188  0.9409  2.1680  1.8274
41971SOL     OW37891   1.991   4.738  11.361  0.0379  0.2863 -0.3736
41971SOL    HW137892   1.896   4.731  11.370  0.1705 -1.3407  0.1078
41971SOL    HW237893   2.006   4.750  11.267 -0.6646  1.7336 -0.3348
41972SOL     OW37894  12.509  10.061   0.249  0.5088  0.3543  0.4297
41972SOL    HW137895  12.591  10.105   0.224  0.0009  1.4655  0.6516
41972SOL    HW237896  12.538   9.977   0.285  1.4552  0.1053 -0.8075
41973SOL     OW37897  12.726   6.213   3.150 -0.6677 -0.3204 -0.0678
41973SOL    HW137898  12.813   6.214   3.190 -1.0288 -0.3248  0.7304
41973SOL    HW237899  12.666   6.200   3.223 -1.4242  0.9149 -0.4305
41974SOL     OW37900   7.701   9.333   4.536  0.4457 -0.7849 -0.5069
41974SOL    HW137901   7.681   9.242   4.512  0.4060 -0.2031 -2.9116
41974SOL    HW237902   7.615   9.376   4.540  0.6066 -0.3223 -1.7959
41975SOL     OW37903   2.903   7.794   8.542 -0.0004  0.0931  0.3408
41975SOL    HW137904   2.822   7.756   8.577  0.7047 -0.8062  1.0550
41975SOL    HW237905   2.950   7.826   8.619  0.1266  1.0386 -0.1138
41976SOL     OW37906  11.906  12.683  11.138 -0.3943 -0.1462  0.2422
41976SOL    HW137907  11.843  12.664  11.208  2.0359 -1.5010  2.2427
41976SOL    HW237908  11.922  12.777  11.146 -0.4387 -0.2141  1.2931
41977SOL     OW37909  11.729   1.937   7.704  0.0034 -0.5593  0.1516
41977SOL    HW137910  11.645   1.962   7.743  0.1936 -0.7141  0.6628
41977SOL    HW237911  11.785   2.014   7.716  0.2250 -0.7992  0.6624
41978SOL     OW37912   3.276   0.292  10.759  0.5701  0.1864  0.5588
41978SOL    HW137913   3.372   0.301  10.757  0.5944 -0.1410 -1.5002
41978SOL    HW237914   3.261   0.201  10.784  0.7356  0.4541  1.7391
41979SOL     OW37915  12.146   6.813   9.487 -0.1032 -0.3708 -0.2399
41979SOL    HW137916  12.147   6.726   9.446  0.3331  0.3889 -1.8880
41979SOL    HW237917  12.053   6.829   9.504 -0.0972 -1.6613  1.2586
41980SOL     OW37918   8.065   4.764   3.779  0.1008 -0.0721  0.7649
41980SOL    HW137919   8.093   4.751   3.870  2.9367  2.7267  0.4509
41980SOL    HW237920   8.063   4.859   3.768  0.2989 -0.3243 -2.2447
41981SOL     OW37921  13.889   2.337  11.366  0.0587  0.0104 -0.7665
41981SOL    HW137922  13.839   2.329  11.284 -0.6186 -0.7047 -0.2988
41981SOL    HW237923  13.979   2.354  11.337 -0.0629 -0.7867 -1.6743
41982SOL     OW37924   4.194   7.018   7.488 -0.4192 -0.3143 -0.7852
41982SOL    HW137925   4.129   7.079   7.453  0.5547  1.2500  0.0453
41982SOL    HW237926   4.143   6.958   7.542 -1.1181  1.5721  0.7885
41983SOL     OW37927   9.192  12.609   1.394  0.2566  0.3345 -0.4351
41983SOL    HW137928   9.224  12.695   1.369 -0.5316 -0.0660 -3.1759
41983SOL    HW237929   9.255  12.547   1.356 -0.1254 -0.3247 -0.0226
41984SOL     OW37930  10.553   8.768  12.189  0.2316 -0.2323  0.2081
41984SOL    HW137931  10.645   8.742  12.191 -0.3296 -2.3289  1.2219
41984SOL    HW237932  10.542   8.826  12.265  0.3857 -1.2209  0.9948
41985SOL     OW37933  12.724   6.127   6.996 -0.3463 -0.5351 -0.2762
41985SOL    HW137934  12.766   6.125   7.082 -1.2408  0.7443  0.2223
41985SOL    HW237935  12.648   6.184   7.008 -0.8872 -0.9039 -1.7491
41986SOL     OW37936  11.564   5.042   2.210  0.7196 -0.6537 -0.0270
41986SOL    HW137937  11.511   4.964   2.195 -0.8326  0.3062  0.3263
41986SOL    HW237938  11.654   5.011   2.198  0.1939 -2.6240  0.6898
41987SOL     OW37939   7.249   3.250   4.147 -0.1152  0.4038  0.2534
41987SOL    HW137940   7.328   3.303   4.144 -0.0445  0.2816 -0.0690
41987SOL    HW237941   7.178   3.314   4.159 -0.1320  0.6863 -1.1767
41988SOL     OW37942   4.720   6.918   8.467 -0.0549 -0.3689 -0.3002
41988SOL    HW137943   4.683   6.879   8.546 -0.5618 -0.8758 -0.7859
41988SOL    HW237944   4.805   6.953   8.495 -1.7242  2.7997  1.4172
41989SOL     OW37945   0.971   4.983   5.615  0.4526 -0.4318 -0.0088
41989SOL    HW137946   0.972   4.908   5.674  3.1285  0.0769  0.7029
41989SOL    HW237947   0.998   4.948   5.530  2.6839 -0.2000  0.5459
41990SOL     OW37948   2.522  10.952   6.259 -0.1598  0.2940  0.4627
41990SOL    HW137949   2.482  10.874   6.296 -0.6763  1.1287  1.7313
41990SOL    HW237950   2.449  11.006   6.230  0.0753  1.2265  1.5424
41991SOL     OW37951   4.073   7.238   4.071  0.1255 -0.1955  0.2577
41991SOL    HW137952   4.165   7.259   4.085 -0.1564  0.5676  1.1194
41991SOL    HW237953   4.070   7.199   3.984  1.0666  1.0967 -0.3918
41992SOL     OW37954  10.277   0.666   6.141  0.2429  0.0106 -0.5326
41992SOL    HW137955  10.243   0.588   6.097  2.6064 -0.7187 -1.2202
41992SOL    HW237956  10.327   0.712   6.073  2.6362 -0.2868  0.9261
41993SOL     OW37957   7.189   8.629   8.617 -0.1343 -1.1273  0.3031
41993SOL    HW137958   7.138   8.605   8.540 -2.2174 -1.2218  1.6577
41993SOL    HW237959   7.147   8.584   8.690  1.2199 -0.3136  1.6473
41994SOL     OW37960   1.540   6.565   3.564  0.5806  0.1018 -0.0539
41994SOL    HW137961   1.546   6.512   3.643 -1.0833  2.2590  1.6848
41994SOL    HW237962   1.625   6.555   3.522  0.4641 -3.5823  0.2714
41995SOL     OW37963   2.410  12.404   9.112 -0.6850 -0.1324  0.1715
41995SOL    HW137964   2.427  12.495   9.089 -0.5035  0.1331  1.3190
41995SOL    HW237965   2.393  12.361   9.028 -0.1735  0.8261 -0.4352
41996SOL     OW37966   5.686   6.138   2.997  0.0157 -0.0376 -0.0149
41996SOL    HW137967   5.729   6.181   2.923 -0.0621  1.1301  0.5900
41996SOL    HW237968   5.755   6.125   3.062  0.1435 -1.3254 -0.3920
41997SOL     OW37969   9.549   0.097   1.850  0.1144  0.4044 -0.3149
41997SOL    HW137970   9.588   0.084   1.936 -1.0508 -0.0133  0.1698
41997SOL    HW237971   9.583   0.025   1.797  1.2534  0.9638 -0.3749
41998SOL     OW37972   8.720   4.560   9.127 -0.2592 -0.2738 -0.5473
41998SOL    HW137973   8.699   4.506   9.203 -0.2094 -0.3269 -0.5712
41998SOL    HW237974   8.699   4.650   9.154 -1.9633 -0.4852 -1.0769
41999SOL     OW37975  10.908   9.198  10.755  0.1799  0.4132  0.0603
41999SOL    HW137976  10.910   9.237  10.842  0.6780  0.2752  0.1131
41999SOL    HW237977  10.974   9.128  10.758 -0.0054  0.2153 -0.3373
42000SOL     OW37978   5.153   7.895   0.283  0.1084 -0.1543 -0.1379
42000SOL    HW137979   5.152   7.828   0.351 -3.9607 -1.0645 -0.8612
42000SOL    HW237980   5.168   7.846   0.202  0.3761  0.2876 -0.3591
42001SOL     OW37981  10.267   1.641   0.445 -0.2307  0.1465  0.1196
42001SOL    HW137982  10.204   1.605   0.507  1.6139  1.6727  3.1164
42001SOL    HW237983  10.221   1.714   0.404 -1.0297  0.1007  0.8947
42002SOL     OW37984   8.646   2.814   1.044  0.3186 -0.0248  0.0896
42002SOL    HW137985   8.723   2.759   1.054  0.0109 -0.2896  1.1537
42002SOL    HW237986   8.617   2.831   1.133 -0.9322 -0.0460 -0.2920
42003SOL     OW37987   9.083   3.003   4.233 -0.0834 -0.3407  0.1942
42003SOL    HW137988   9.057   3.092   4.209  0.8848 -0.1047 -0.0281
42003SOL    HW237989   9.086   2.956   4.150 -0.9354 -0.6857  0.3487
42004SOL     OW37990   7.231   9.864   8.552 -0.2437  0.6014 -0.4664
42004SOL    HW137991   7.267   9.846   8.639  1.4243 -0.6442 -1.3633
42004SOL    HW237992   7.177   9.788   8.532 -1.3897  1.3195 -0.1545
42005SOL     OW37993   9.989   0.714   5.217  0.0459  0.0681 -0.1017
42005SOL    HW137994   9.930   0.769   5.268  0.8365  1.4396 -0.6281
42005SOL    HW237995  10.063   0.697   5.275  0.9583  1.6522 -0.7485
42006SOL     OW37996  11.915  13.276   6.666 -0.2409  0.3312  0.4806
42006SOL    HW137997  11.920  13.242   6.577 -1.4407  2.9463 -0.7078
42006SOL    HW237998  11.989  13.338   6.672  0.0953 -0.1420  1.4890
42007SOL     OW37999  12.462   2.908   5.308 -0.6330  0.0671 -0.2811
42007SOL    HW138000  12.555   2.885   5.305 -0.8532 -0.8090 -0.6510
42007SOL    HW238001  12.454   2.984   5.250 -0.3632 -0.6488 -1.2746
42008SOL     OW38002  10.410  13.026   8.906  0.1966  1.0972 -0.0614
42008SOL    HW138003  10.366  12.966   8.846  1.1715 -1.7776  1.8686
42008SOL    HW238004  10.340  13.057   8.963 -0.4668  2.6120 -1.6056
42009SOL     OW38005  10.510   5.076  11.187 -0.1472 -0.1958  0.6211
42009SOL    HW138006  10.473   5.040  11.106 -1.2546 -0.5689  1.2668
42009SOL    HW238007  10.522   4.999  11.243  1.4179 -0.0517  0.5298
42010SOL     OW38008   7.146   1.123   9.001 -0.4744  0.3537 -0.5300
42010SOL    HW138009   7.060   1.101   9.036  0.2384  0.3084  1.3414
42010SOL    HW238010   7.180   1.041   8.967 -0.9214  0.2345 -0.6980
42011SOL     OW38011   5.880  12.979   1.625  0.3208 -0.3377  0.6164
42011SOL    HW138012   5.885  13.013   1.714 -0.8055  0.0159  0.5660
42011SOL    HW238013   5.917  13.049   1.571  4.6281 -2.0237  1.0398
42012SOL     OW38014   2.036   8.682   2.895 -0.1737  0.2666 -0.2796
42012SOL    HW138015   2.088   8.605   2.871 -0.0045 -0.2478  1.5366
42012SOL    HW238016   2.038   8.682   2.991 -0.6958  2.1944 -0.2360
42013SOL     OW38017   1.128   8.994   2.906  0.1750 -0.3502  0.0451
42013SOL    HW138018   1.063   8.940   2.951 -1.0374  1.5040  0.6931
42013SOL    HW238019   1.088   9.082   2.906  1.1329  0.1596 -2.7007
42014SOL     OW38020   5.484   8.285   6.253 -0.1295  0.1935  0.4219
42014SOL    HW138021   5.547   8.213   6.245 -1.3820 -0.7813 -1.3343
42014SOL    HW238022   5.534   8.363   6.231  0.5357 -0.5414 -0.7953
42015SOL     OW38023   8.715   1.810   5.551 -0.1387  0.1934 -0.2142
42015SOL    HW138024   8.670   1.800   5.635  1.6064  1.1709  0.9134
42015SOL    HW238025   8.652   1.781   5.485 -1.1906 -1.6403  1.5017
42016SOL     OW38026   4.103   4.501   3.419  0.3749  0.3751 -0.0554
42016SOL    HW138027   4.014   4.465   3.425  0.1366  0.8025 -0.8002
42016SOL    HW238028   4.103   4.550   3.336  1.2340  0.5786  0.0565
42017SOL     OW38029   7.884  12.354   8.864  0.1685  0.5233  0.6367
42017SOL    HW138030   7.913  12.441   8.892  1.3916  0.5632 -0.6368
42017SOL    HW238031   7.798  12.368   8.826  0.4473  1.2279  0.2512
42018SOL     OW38032   6.341   2.568   0.455 -0.1069  0.0093  0.2947
42018SOL    HW138033   6.390   2.495   0.491 -0.3289 -1.2041 -1.7057
42018SOL    HW238034   6.403   2.640   0.451  1.2487 -1.1690 -1.1370
42019SOL     OW38035   7.358  12.039   9.066 -0.6810  0.2416 -0.1758
42019SOL    HW138036   7.449  12.039   9.095 -0.4794 -1.1331 -0.7486
42019SOL    HW238037   7.353  12.112   9.004  0.1878 -0.0366 -0.5915
42020SOL     OW38038   6.649   2.695   0.688 -0.5415 -0.6195  0.2122
42020SOL    HW138039   6.629   2.664   0.600  0.8947 -0.7011 -0.1064
42020SOL    HW238040   6.618   2.786   0.689 -0.5985 -0.6291 -0.3528
42021SOL     OW38041  10.185   1.881   2.538  0.3696 -0.5146  0.0002
42021SOL    HW138042  10.204   1.973   2.521  1.9680 -0.5344  1.3756
42021SOL    HW238043  10.218   1.834   2.462  1.6305 -0.1150  0.2842
42022SOL     OW38044   9.236   3.272   0.522  0.0677 -0.4478  1.0288
42022SOL    HW138045   9.285   3.219   0.584 -0.9732  0.4132  2.6478
42022SOL    HW238046   9.203   3.346   0.573 -1.1006  0.1388 -0.4690
42023SOL     OW38047  11.018   9.756   2.934 -0.1202 -0.0578  0.2470
42023SOL    HW138048  11.022   9.836   2.882  0.4806  0.5322  1.1637
42023SOL    HW238049  11.104   9.716   2.924  0.5317  0.8195  1.9039
42024SOL     OW38050   2.629   0.971  13.585  0.0924 -0.8672 -0.3760
42024SOL    HW138051   2.651   0.956  13.493 -1.0113 -0.6763 -0.6780
42024SOL    HW238052   2.534   0.983  13.586 -0.0246 -1.7076  0.9094
42025SOL     OW38053   8.236   2.534   8.581 -0.5734  0.0786  0.5381
42025SOL    HW138054   8.273   2.453   8.546 -1.8805  0.2206 -1.3339
42025SOL    HW238055   8.292   2.603   8.546 -2.1390  0.2552 -1.8665
42026SOL     OW38056   7.693   7.661   0.405 -0.3944 -0.0133  0.7350
42026SOL    HW138057   7.609   7.623   0.428 -0.0691 -0.8373  0.6038
42026SOL    HW238058   7.715   7.623   0.320 -1.3319  2.5948 -0.7922
42027SOL     OW38059  10.524  13.084  10.200  0.0554  0.0520  0.3013
42027SOL    HW138060  10.552  13.158  10.146 -1.2331  0.9862  0.8876
42027SOL    HW238061  10.594  13.073  10.264  1.7190 -1.1911 -1.5626
42028SOL     OW38062   4.787   3.682   2.160  0.4786 -0.1516 -0.3818
42028SOL    HW138063   4.764   3.641   2.244 -0.0517 -1.4956 -1.1457
42028SOL    HW238064   4.864   3.633   2.130 -0.5606 -1.1157 -1.6245
42029SOL     OW38065   3.416   7.306   1.526  0.5595  0.0535 -0.0050
42029SOL    HW138066   3.435   7.328   1.617 -0.4001 -0.2243  0.2806
42029SOL    HW238067   3.493   7.258   1.496  0.7998 -0.0266  0.7224
42030SOL     OW38068   3.134   2.219   6.056 -0.1630 -0.1443  0.3746
42030SOL    HW138069   3.187   2.270   5.995 -1.2328  1.2397  0.5379
42030SOL    HW238070   3.101   2.146   6.004 -0.0338  0.3114 -0.3683
42031SOL     OW38071  12.360   5.386   9.985 -0.4412  0.1626 -0.0677
42031SOL    HW138072  12.426   5.455   9.992 -0.9807  0.6871 -0.0590
42031SOL    HW238073  12.381   5.326  10.057  0.0401  0.3033 -0.0847
42032SOL     OW38074  11.266   3.660   5.542 -0.0585 -0.1790  0.1544
42032SOL    HW138075  11.312   3.706   5.612 -0.6648  1.4346 -0.4467
42032SOL    HW238076  11.335   3.630   5.483  0.4007 -0.7990  0.9981
42033SOL     OW38077   1.911   1.640  11.533 -0.1717 -0.2338  0.1029
42033SOL    HW138078   1.903   1.649  11.438 -0.3372 -1.4291 -0.0021
42033SOL    HW238079   1.826   1.607  11.561 -0.0844  0.0111  0.6546
42034SOL     OW38080   9.552  13.261  10.894 -0.3772 -0.2634  0.0496
42034SOL    HW138081   9.647  13.266  10.907 -0.3565  1.9388 -0.4833
42034SOL    HW238082   9.542  13.223  10.807  0.0183 -0.4420  0.0805
42035SOL     OW38083  11.910   2.957   3.318  0.1217  0.7566 -0.2860
42035SOL    HW138084  11.885   2.865   3.321  0.9415  0.5481  0.3482
42035SOL    HW238085  12.005   2.957   3.325  0.1560  1.6395 -0.6082
42036SOL     OW38086  12.076  12.859   0.490 -0.4369 -0.0367 -0.3326
42036SOL    HW138087  11.984  12.854   0.463 -0.5200 -0.4475  0.0067
42036SOL    HW238088  12.120  12.899   0.416 -0.7054 -0.8938 -0.9819
42037SOL     OW38089   2.499   7.356  10.359 -0.0373 -0.1619  0.1356
42037SOL    HW138090   2.493   7.296  10.433  2.8078 -0.1398  0.4938
42037SOL    HW238091   2.454   7.310  10.287  0.3591 -1.8387  0.9103
42038SOL     OW38092   6.560   0.413   7.126 -0.1447  0.0028 -0.0221
42038SOL    HW138093   6.584   0.392   7.216  1.0265  0.0466 -0.3169
42038SOL    HW238094   6.468   0.441   7.132 -0.1075 -0.0807  1.1368
42039SOL     OW38095   7.911   5.356   4.102 -0.4661 -0.5245  0.0041
42039SOL    HW138096   7.835   5.343   4.046 -0.7083  0.5594  0.0522
42039SOL    HW238097   7.976   5.395   4.044  0.1343 -1.6126 -0.0821
42040SOL     OW38098   9.287   9.599  13.946  0.7155 -0.0881  0.1958
42040SOL    HW138099   9.306   9.520  13.996 -1.0072 -0.3454  0.4944
42040SOL    HW238100   9.192   9.602  13.941  0.7887  1.2768 -0.9379
42041SOL     OW38101   1.795   3.408   4.537 -0.5057  0.5116  0.2644
42041SOL    HW138102   1.786   3.481   4.476  3.0762  1.5068  0.6956
42041SOL    HW238103   1.789   3.330   4.482  0.3064  1.3100 -0.9955
42042SOL     OW38104   7.996  11.093  14.020 -0.8525  0.4606  0.5037
42042SOL    HW138105   7.905  11.122  14.025 -0.4784  1.7882  0.2143
42042SOL    HW238106   8.046  11.175  14.019  0.4321 -0.2543  2.1070
42043SOL     OW38107   9.140   4.574   0.672  0.3262  0.2084  0.5772
42043SOL    HW138108   9.136   4.647   0.610  1.0620 -1.0269 -0.9762
42043SOL    HW238109   9.053   4.572   0.712 -0.3868  0.6540 -0.8810
42044SOL     OW38110   1.145   7.537   4.541  0.0585 -0.1686  0.3468
42044SOL    HW138111   1.118   7.558   4.451  0.8134 -0.0798  0.1319
42044SOL    HW238112   1.202   7.460   4.531  1.5256  0.8513  0.5457
42045SOL     OW38113   9.149  10.435   2.394 -0.5834  0.2994 -0.5151
42045SOL    HW138114   9.067  10.422   2.441 -0.2067  0.1017  0.0984
42045SOL    HW238115   9.183  10.518   2.428 -0.0736 -0.0838 -0.0820
42046SOL     OW38116   2.810  10.301   6.046 -0.0230 -0.3717  0.2355
42046SOL    HW138117   2.831  10.208   6.034  1.5252  0.0137 -0.1986
42046SOL    HW238118   2.814  10.338   5.958 -1.5568 -0.0445  0.2741
42047SOL     OW38119  11.150  13.330  13.568  0.5962  0.0268 -0.0636
42047SOL    HW138120  11.088  13.342  13.496  0.4766  1.1734  0.2026
42047SOL    HW238121  11.113  13.382  13.639  2.2166  1.3503 -0.1264
42048SOL     OW38122  13.015  10.445   0.654  0.5311 -0.3487  0.5294
42048SOL    HW138123  12.992  10.536   0.634  2.2356  0.2655  1.2376
42048SOL    HW238124  13.016  10.402   0.568  2.8507  1.0774 -0.2712
42049SOL     OW38125   1.464   3.699  13.438 -0.4866  0.1871  0.3875
42049SOL    HW138126   1.489   3.673  13.527 -0.5180 -1.0595  0.0428
42049SOL    HW238127   1.543   3.683  13.385  0.2604  2.8814  0.4958
42050SOL     OW38128  11.139   3.018   9.731 -0.5767  0.1325  0.0447
42050SOL    HW138129  11.147   2.999   9.637 -1.5584 -1.3207  0.2294
42050SOL    HW238130  11.148   3.114   9.736  0.0302  0.2001 -1.4544
42051SOL     OW38131   9.638  12.348   8.708  0.1600 -0.5627 -0.2947
42051SOL    HW138132   9.665  12.380   8.794 -0.2551  1.3789 -0.8259
42051SOL    HW238133   9.551  12.312   8.721  0.5249 -1.2611  0.2769
42052SOL     OW38134   8.371   7.455   0.051  0.0967  0.0959 -0.0111
42052SOL    HW138135   8.377   7.439   0.145  0.9072 -0.9975 -0.2305
42052SOL    HW238136   8.297   7.403   0.022 -2.2935  2.9466  0.4840
42053SOL     OW38137  10.615   1.113   0.784  0.2586 -0.5069  0.3749
42053SOL    HW138138  10.566   1.195   0.775 -0.1831 -0.3157  3.4170
42053SOL    HW238139  10.707   1.141   0.786  0.0918  0.0204  1.8599
42054SOL     OW38140  10.030   2.525  13.183 -0.2763  0.2461 -0.0605
42054SOL    HW138141  10.113   2.511  13.137 -0.6716  0.4522 -0.8622
42054SOL    HW238142  10.024   2.453  13.245  0.6932  0.4548  0.2905
42055SOL     OW38143  14.015   0.582  10.176 -0.0320 -0.0791 -0.1050
42055SOL    HW138144  14.002   0.616  10.087 -0.1851 -1.5668 -0.6781
42055SOL    HW238145  14.058   0.654  10.223  2.0111  0.0453 -1.9616
42056SOL     OW38146   0.518   4.989   8.076 -0.0376  0.5444 -0.1744
42056SOL    HW138147   0.584   4.926   8.047 -0.1604 -0.0134  0.7306
42056SOL    HW238148   0.434   4.944   8.061 -0.1051  0.2871  0.9381
42057SOL     OW38149  10.621  12.841   6.152  0.2122 -0.2908  0.0600
42057SOL    HW138150  10.716  12.845   6.141  0.0681  0.6763 -0.9988
42057SOL    HW238151  10.609  12.815   6.243  1.4882  0.6735  0.5417
42058SOL     OW38152   2.102   3.729  12.336  0.0818  0.7445 -0.5889
42058SOL    HW138153   2.188   3.733  12.294  1.1152 -0.7602  1.2154
42058SOL    HW238154   2.088   3.636  12.354  0.1353  1.2744  3.0057
42059SOL     OW38155   5.598   5.594   1.960 -0.5924 -0.0428 -0.7974
42059SOL    HW138156   5.673   5.579   2.016  0.0745 -1.8016 -2.0375
42059SOL    HW238157   5.609   5.683   1.927 -0.4252  0.6195  0.9536
42060SOL     OW38158   8.688   1.981   9.605 -0.4579 -0.1605 -0.1969
42060SOL    HW138159   8.707   2.042   9.676 -0.5116 -0.1780 -0.1679
42060SOL    HW238160   8.761   1.920   9.606  0.3307  0.7387 -1.1394
42061SOL     OW38161  13.870   3.220   1.650 -0.0150  0.1753  0.1042
42061SOL    HW138162  13.944   3.264   1.692 -0.9780 -0.7031  2.9616
42061SOL    HW238163  13.796   3.279   1.664 -1.0786 -1.5748  2.9744
42062SOL     OW38164   8.896   8.531   4.447  0.1406  0.3400  0.0945
42062SOL    HW138165   8.861   8.606   4.496  1.0234  0.5092  0.4750
42062SOL    HW238166   8.910   8.463   4.513 -1.3264 -0.4427 -0.3428
42063SOL     OW38167   5.892  10.340   5.911 -0.1057  0.1613  0.0389
42063SOL    HW138168   5.945  10.369   5.985  0.2807  0.3757 -0.3193
42063SOL    HW238169   5.950  10.285   5.859 -0.6324 -0.6931  0.3397
42064SOL     OW38170   8.471   2.748  13.218 -0.2662 -0.8276  0.1819
42064SOL    HW138171   8.409   2.698  13.271 -0.5134 -2.1291 -1.2800
42064SOL    HW238172   8.500   2.687  13.151 -0.7538  1.0563 -1.8586
42065SOL     OW38173   8.981  14.038   8.025  0.0163 -0.3677 -0.1628
42065SOL    HW138174   8.979  13.959   7.970  1.3649 -0.0840 -0.6668
42065SOL    HW238175   8.979  14.111   7.963  0.0264 -0.0236  0.2355
42066SOL     OW38176   3.113  12.016   1.147  0.0746  0.4330 -0.1691
42066SOL    HW138177   3.083  11.942   1.199  0.0572  1.3865  1.2621
42066SOL    HW238178   3.068  12.092   1.185  2.2734  1.5671  0.4019
42067SOL     OW38179   8.789   8.282   9.722  0.6855 -0.4001  0.2619
42067SOL    HW138180   8.758   8.316   9.638 -0.7521  0.2632  1.0163
42067SOL    HW238181   8.880   8.311   9.728  1.5788 -2.3937 -2.0396
42068SOL     OW38182  10.502  12.553  10.980  0.4131 -0.0127 -0.1845
42068SOL    HW138183  10.503  12.649  10.988  1.1560 -0.1862  2.8553
42068SOL    HW238184  10.584  12.533  10.936  1.2244  0.6836  0.9513
42069SOL     OW38185  13.148   6.231   6.522  0.0181 -0.2504  0.2834
42069SOL    HW138186  13.229   6.218   6.473 -1.0134 -2.4537 -1.0331
42069SOL    HW238187  13.164   6.191   6.607  1.2852  2.1310  1.2321
42070SOL     OW38188   6.397   1.070   7.493  0.5748  0.3234 -0.0005
42070SOL    HW138189   6.483   1.028   7.493 -0.2863 -1.9652 -3.6993
42070SOL    HW238190   6.336   0.998   7.507 -0.8377  1.1020 -1.8315
42071SOL     OW38191   9.456   1.235   8.630  0.1563  0.3208  0.2199
42071SOL    HW138192   9.387   1.252   8.694  0.4341  1.6442  0.1865
42071SOL    HW238193   9.424   1.159   8.580 -3.5455  3.5015 -2.8926
42072SOL     OW38194   5.883   9.213  12.493  0.1490  0.3144  0.0869
42072SOL    HW138195   5.914   9.244  12.578 -0.7183 -1.4001  1.1023
42072SOL    HW238196   5.946   9.247  12.430  1.6879  0.3893  1.5888
42073SOL     OW38197  12.544   9.894   4.087 -0.7528  0.0282 -0.0411
42073SOL    HW138198  12.477   9.836   4.051 -1.5821  0.4580  0.7736
42073SOL    HW238199  12.510   9.982   4.074 -0.4362  0.2458  0.5652
42074SOL     OW38200   3.756   7.586   0.270  0.0392 -0.3883  0.2960
42074SOL    HW138201   3.789   7.653   0.329 -0.1154  0.2554 -0.3281
42074SOL    HW238202   3.835   7.545   0.235  0.1222 -1.1040  1.3097
42075SOL     OW38203   5.320   4.339   3.598 -0.2798 -0.7168 -0.2845
42075SOL    HW138204   5.295   4.376   3.683  0.3329 -0.7969 -0.0660
42075SOL    HW238205   5.360   4.412   3.551 -1.4839 -0.4166 -0.8866
42076SOL     OW38206   1.284  13.351   5.340  0.6062 -0.2735  0.3576
42076SOL    HW138207   1.234  13.362   5.421  1.6606 -0.1152  1.0158
42076SOL    HW238208   1.219  13.348   5.271 -0.1989  3.8763  0.7159
42077SOL     OW38209  12.277   9.623   1.531  0.4677 -0.1266  0.0213
42077SOL    HW138210  12.371   9.618   1.548  0.5105  0.9786  0.1593
42077SOL    HW238211  12.270   9.620   1.436  0.8966  2.7677 -0.1959
42078SOL     OW38212   5.399   8.727  12.226 -0.3448 -0.6648  0.9452
42078SOL    HW138213   5.311   8.764  12.232 -0.1821 -0.4510  2.2319
42078SOL    HW238214   5.406   8.697  12.135 -1.2219  0.6175  0.4206
42079SOL     OW38215   8.742   2.830   2.417 -0.0589 -0.1936 -0.5099
42079SOL    HW138216   8.770   2.917   2.389  0.1447 -0.3930 -0.9291
42079SOL    HW238217   8.799   2.769   2.370  0.5512 -0.5331  0.6359
42080SOL     OW38218   7.168  13.220   2.007 -0.1035  0.2913  0.3862
42080SOL    HW138219   7.258  13.229   1.975 -0.1408  1.3321  0.5465
42080SOL    HW238220   7.117  13.194   1.931  0.0263  1.4917 -0.1331
42081SOL     OW38221   8.448  13.561  12.495  0.2505 -0.5503  0.3485
42081SOL    HW138222   8.423  13.569  12.403  0.8015 -0.5716  0.1940
42081SOL    HW238223   8.538  13.529  12.492  0.4530 -0.0270  0.8928
42082SOL     OW38224   1.083   5.291   3.393 -0.5186 -0.3588 -0.1591
42082SOL    HW138225   1.113   5.233   3.323 -2.0985  0.6964 -1.7827
42082SOL    HW238226   1.160   5.302   3.450  0.6932 -1.5552 -1.4887
42083SOL     OW38227   6.563   6.562   2.298 -0.3021 -0.0240  0.5002
42083SOL    HW138228   6.658   6.576   2.299 -0.5680  2.3321  0.3177
42083SOL    HW238229   6.528   6.641   2.256 -2.4557 -0.1400  1.9100
42084SOL     OW38230   8.835   8.360  13.599  0.1418  0.3518 -0.2652
42084SOL    HW138231   8.869   8.277  13.565 -3.4327 -1.4125 -0.0637
42084SOL    HW238232   8.816   8.341  13.691  1.3679  2.2090  0.4252
42085SOL     OW38233  13.754  11.526   4.923  0.4111  0.1032 -0.1945
42085SOL    HW138234  13.658  11.526   4.923  0.2520  2.5821  2.0682
42085SOL    HW238235  13.778  11.489   5.008  1.3312  1.2581  0.0862
42086SOL     OW38236  13.407   2.201   6.476  0.2187 -0.7180 -0.2129
42086SOL    HW138237  13.487   2.252   6.493  0.0516  0.1428 -1.8389
42086SOL    HW238238  13.338   2.267   6.466 -0.2709 -1.3279 -0.9806
42087SOL     OW38239  12.750  11.180  10.564 -0.6509 -0.7408 -0.1841
42087SOL    HW138240  12.698  11.255  10.536 -0.2817 -0.5287 -0.3177
42087SOL    HW238241  12.687  11.110  10.576 -1.0280 -0.3478  0.1493
42088SOL     OW38242   5.794  13.196   0.301 -0.2850 -0.1257 -0.0659
42088SOL    HW138243   5.744  13.118   0.326 -0.6710  0.1788  0.1320
42088SOL    HW238244   5.820  13.236   0.384 -1.1522  0.6209 -0.1268
42089SOL     OW38245  13.176   8.783   9.215  0.5153  0.0127  0.1618
42089SOL    HW138246  13.103   8.783   9.153  1.4210 -1.1677 -0.9597
42089SOL    HW238247  13.240   8.843   9.176  0.8231 -0.2333  0.2902
42090SOL     OW38248   2.742   5.595   1.102  0.2675 -0.2725 -0.0062
42090SOL    HW138249   2.730   5.614   1.195  0.6666 -0.2405  0.0430
42090SOL    HW238250   2.828   5.551   1.098  0.0701 -0.6371 -0.3083
42091SOL     OW38251   6.933  13.504   3.238 -0.2728 -0.2153  0.4128
42091SOL    HW138252   7.000  13.483   3.173 -0.6100  0.4002 -0.1407
42091SOL    HW238253   6.865  13.550   3.189 -1.1234 -0.8571  0.9701
42092SOL     OW38254   7.280   7.540  13.925  0.3582 -0.2572 -0.0125
42092SOL    HW138255   7.369   7.521  13.896  0.6389  0.9875 -0.0423
42092SOL    HW238256   7.224   7.501  13.858  0.9382  0.5138 -0.9838
42093SOL     OW38257  11.771   6.857   4.938  0.3070 -0.1586 -0.5265
42093SOL    HW138258  11.690   6.880   4.893  0.5851 -1.2990 -1.6494
42093SOL    HW238259  11.751   6.775   4.983  0.3318  0.4652  0.6864
42094SOL     OW38260   2.072   8.205   2.977  0.2883 -0.0974 -0.5932
42094SOL    HW138261   2.089   8.299   2.984 -0.6474  0.1144 -0.9877
42094SOL    HW238262   2.125   8.177   2.903  1.7042 -0.1840  0.4195
42095SOL     OW38263  12.136   7.517   4.396 -0.2854 -0.6564  0.8610
42095SOL    HW138264  12.077   7.536   4.469 -1.1129  1.5758 -0.2831
42095SOL    HW238265  12.111   7.429   4.368 -1.4744 -0.6817  1.8782
42096SOL     OW38266  12.826  11.196   8.561  0.8275 -0.2506  0.3547
42096SOL    HW138267  12.872  11.221   8.640  2.1938  0.6162 -0.6651
42096SOL    HW238268  12.869  11.116   8.532  0.5284 -0.4045  0.3239
42097SOL     OW38269  13.423   2.486  11.920 -0.2840 -0.1812  0.4097
42097SOL    HW138270  13.350   2.536  11.884  0.0970 -0.6710 -1.1392
42097SOL    HW238271  13.480   2.469  11.845 -0.4046 -2.9318  0.8247
42098SOL     OW38272  13.665   2.723   7.437  0.2932  0.1553 -0.1652
42098SOL    HW138273  13.643   2.749   7.527  0.4199  0.2646 -0.1666
42098SOL    HW238274  13.707   2.800   7.399 -0.5331  0.4016 -0.5955
42099SOL     OW38275   3.570  10.819   8.958 -0.3945 -0.0403 -0.3229
42099SOL    HW138276   3.564  10.851   8.867  1.6740 -1.2457 -0.9384
42099SOL    HW238277   3.496  10.759   8.966 -0.9745  0.5536 -0.9803
42100SOL     OW38278   3.847   4.597  10.810 -0.0508 -0.4481 -0.1534
42100SOL    HW138279   3.756   4.604  10.781 -0.2212 -1.2524  0.1674
42100SOL    HW238280   3.894   4.661  10.757 -0.8409  0.1609 -0.1476
42101SOL     OW38281   9.751  11.476  12.892 -0.3034 -0.4644  0.0693
42101SOL    HW138282   9.753  11.444  12.982 -1.1160  0.1025  0.2991
42101SOL    HW238283   9.782  11.566  12.898 -0.5950 -0.3454 -0.1753
42102SOL     OW38284   9.038   5.978   3.091  0.2347 -0.3001  0.3164
42102SOL    HW138285   9.057   6.053   3.146  0.4538 -0.0963 -0.0382
42102SOL    HW238286   9.106   5.914   3.112 -0.2657 -0.6295  1.0246
42103SOL     OW38287  10.974   7.640   9.892  0.2478 -0.1032 -0.0324
42103SOL    HW138288  11.046   7.576   9.886  1.2805  1.0563 -0.4591
42103SOL    HW238289  10.925   7.613   9.969  0.4743 -1.5874 -0.3622
42104SOL     OW38290   7.084   2.370   1.280  0.6892  0.7289 -0.2088
42104SOL    HW138291   7.069   2.411   1.195 -0.6201 -1.9246 -1.4046
42104SOL    HW238292   6.996   2.352   1.314  1.1985  0.8311  1.2351
42105SOL     OW38293   8.249   8.126  12.366  0.4165 -0.0555 -0.3946
42105SOL    HW138294   8.198   8.192  12.413  0.4969 -0.9491  0.9971
42105SOL    HW238295   8.334   8.126  12.410  0.9469 -0.0131 -1.3939
42106SOL     OW38296   2.038   9.977   1.454 -0.3226  0.5704 -0.5538
42106SOL    HW138297   2.035   9.999   1.547 -0.2768 -0.0449 -0.4031
42106SOL    HW238298   1.946   9.976   1.427 -0.4828 -1.1065 -0.0593
42107SOL     OW38299   9.748   6.612  10.117  0.2083  0.0810 -0.2304
42107SOL    HW138300   9.811   6.622  10.046 -1.7075  0.1243 -2.0307
42107SOL    HW238301   9.667   6.587  10.073 -0.5318 -2.0966  2.1711
42108SOL     OW38302   4.347  12.656   6.816  0.0198 -0.6681 -0.5971
42108SOL    HW138303   4.304  12.687   6.896  0.6888 -2.1410  0.3785
42108SOL    HW238304   4.434  12.696   6.818 -0.3015  0.0865 -1.1283
42109SOL     OW38305   9.452   0.044  13.287  0.4885  0.3389 -0.0547
42109SOL    HW138306   9.405  -0.019  13.341  1.0388  1.1270  1.3998
42109SOL    HW238307   9.476  -0.006  13.208 -1.5803 -0.4307 -0.2666
42110SOL     OW38308   5.386  11.710   7.538  0.6780  0.8257 -0.1004
42110SOL    HW138309   5.354  11.752   7.459 -1.8400 -0.5174  0.1013
42110SOL    HW238310   5.436  11.778   7.584 -0.5773  2.5970 -1.2665
42111SOL     OW38311   7.879   9.472   0.213 -0.5390 -0.1855 -0.2131
42111SOL    HW138312   7.831   9.399   0.251  0.3083  0.7370  2.9179
42111SOL    HW238313   7.818   9.545   0.213 -0.9975 -0.5090 -2.1838
42112SOL     OW38314   2.246  10.788   0.821  0.6608  1.0482 -0.1188
42112SOL    HW138315   2.313  10.803   0.888  0.8518 -0.3925  0.0501
42112SOL    HW238316   2.176  10.742   0.867 -0.3459  2.3011 -0.3595
42113SOL     OW38317   3.335  12.581   3.383 -0.8463 -0.1783  0.2664
42113SOL    HW138318   3.398  12.606   3.450 -1.0219  2.1772 -0.3729
42113SOL    HW238319   3.264  12.645   3.391 -0.9685  0.0599 -2.0119
42114SOL     OW38320  12.270  13.605   1.945 -0.2743 -0.7636  0.3462
42114SOL    HW138321  12.252  13.641   1.858 -1.3091 -0.1393  0.8051
42114SOL    HW238322  12.224  13.663   2.005  1.7524 -0.2460  1.4523
42115SOL     OW38323   2.800   8.388  13.938 -0.2141 -0.0314  0.4321
42115SOL    HW138324   2.852   8.391  14.018 -1.4829  1.9751  1.2485
42115SOL    HW238325   2.832   8.462  13.885  0.6194 -1.3341 -0.9838
42116SOL     OW38326   8.923   5.313  13.717  0.6575  0.2148  0.4899
42116SOL    HW138327   8.919   5.238  13.776  0.3816 -0.0446  0.1411
42116SOL    HW238328   8.979   5.376  13.763  0.1742  0.1506  1.1849
42117SOL     OW38329   0.596  12.115   6.536 -0.5874  0.0512  0.0641
42117SOL    HW138330   0.687  12.140   6.522 -0.5591 -0.7365 -1.3047
42117SOL    HW238331   0.558  12.113   6.448 -1.7802 -0.1933  0.5688
42118SOL     OW38332   3.034   6.295   3.516  0.0741  0.1423 -0.1710
42118SOL    HW138333   3.017   6.354   3.442 -2.8388  0.1232  0.3770
42118SOL    HW238334   3.011   6.346   3.593 -2.3693 -1.5221  0.3276
42119SOL     OW38335   8.079  12.233   7.401  0.1313 -0.4108  0.7942
42119SOL    HW138336   8.106  12.281   7.323  1.5060 -1.7019  0.4254
42119SOL    HW238337   8.151  12.172   7.417 -0.1995 -0.2910  2.9796
42120SOL     OW38338   9.017  12.651  11.667 -0.3839 -0.2375 -0.4092
42120SOL    HW138339   8.994  12.643  11.575  1.2691 -1.1291 -0.7823
42120SOL    HW238340   9.039  12.561  11.694  0.1338  0.1712  0.5720
42121SOL     OW38341   5.094   9.845  13.864 -0.3439 -0.1608 -0.5196
42121SOL    HW138342   5.096   9.755  13.898  0.5124 -0.2463 -0.7810
42121SOL    HW238343   5.077   9.835  13.770 -1.9447  0.0425 -0.2900
42122SOL     OW38344   2.486  12.170   9.551 -0.1641 -0.3711 -0.4407
42122SOL    HW138345   2.581  12.168   9.536 -0.1796 -0.4161 -0.5337
42122SOL    HW238346   2.476  12.212   9.636 -0.1252  0.7708 -0.9840
42123SOL     OW38347   3.929   2.129   8.248  0.1043  0.3310 -0.4611
42123SOL    HW138348   3.921   2.034   8.255 -0.7810  0.4146 -0.1690
42123SOL    HW238349   4.019   2.148   8.275  0.2216 -0.3957 -0.3136
42124SOL     OW38350   0.303   2.738   5.669 -0.4818  0.8267  0.4102
42124SOL    HW138351   0.310   2.832   5.651  2.8432  1.1663  2.5667
42124SOL    HW238352   0.359   2.697   5.603 -0.5971  0.5331  0.4945
42125SOL     OW38353   1.982  11.833   1.652 -0.4805  0.0818 -0.1374
42125SOL    HW138354   1.975  11.777   1.729 -2.2910  0.6233  0.1524
42125SOL    HW238355   1.949  11.780   1.580 -0.7680  0.2553 -0.1376
42126SOL     OW38356   1.093   4.471   3.036  0.3297  0.3053 -0.0863
42126SOL    HW138357   1.087   4.515   3.121 -0.5285  0.1241 -0.0423
42126SOL    HW238358   1.187   4.463   3.019  0.5030  0.8714  0.5704
42127SOL     OW38359  11.373   7.262   9.085  0.2981 -0.0875  0.5557
42127SOL    HW138360  11.453   7.273   9.034  0.5206  3.3282  1.4034
42127SOL    HW238361  11.361   7.346   9.129 -4.4534  0.0589 -0.5238
42128SOL     OW38362   2.934   2.131   1.137  0.0649  0.5269  0.5543
42128SOL    HW138363   2.891   2.159   1.218  0.6342  0.5651  0.8416
42128SOL    HW238364   3.027   2.147   1.151  0.1204  1.0622 -0.3145
42129SOL     OW38365  10.210   9.381   8.861 -0.6840 -0.0848 -0.2826
42129SOL    HW138366  10.250   9.379   8.948  0.3566  1.2431 -0.6933
42129SOL    HW238367  10.119   9.404   8.877 -0.6673 -0.5403  0.5049
42130SOL     OW38368   9.646   8.284   6.063 -0.4844  0.2956 -0.0288
42130SOL    HW138369   9.721   8.226   6.071 -0.0892  0.6019 -1.3485
42130SOL    HW238370   9.683   8.369   6.039 -1.2926  0.1646 -1.9120
42131SOL     OW38371   6.608   6.344   6.484  0.4832 -0.8749 -0.3415
42131SOL    HW138372   6.595   6.250   6.469  1.5879 -1.1524  0.3240
42131SOL    HW238373   6.665   6.348   6.561  0.5342  0.3441 -0.4277
42132SOL     OW38374   2.379   6.588  12.713  0.1315 -0.2020 -0.5564
42132SOL    HW138375   2.472   6.566  12.707  0.1550 -0.0411 -0.8463
42132SOL    HW238376   2.373   6.672  12.668  0.4908  1.7149  2.6460
42133SOL     OW38377   2.276  12.483   4.502 -1.0346  0.1895 -0.4122
42133SOL    HW138378   2.353  12.436   4.533 -1.9169 -0.6020  0.6694
42133SOL    HW238379   2.227  12.419   4.451 -0.8102  0.8023 -1.4363
42134SOL     OW38380   9.219   1.878   8.079  1.1033  0.4108 -0.1865
42134SOL    HW138381   9.224   1.809   8.013 -0.1834 -0.4744  0.5993
42134SOL    HW238382   9.259   1.954   8.037  2.7336 -0.8375 -1.0197
42135SOL     OW38383  11.934   1.603   8.460  0.3139 -0.3603 -0.8226
42135SOL    HW138384  11.907   1.589   8.369 -2.1067  1.6074 -0.5297
42135SOL    HW238385  11.935   1.516   8.498  1.2038 -1.2150 -2.6431
42136SOL     OW38386   1.451   7.601   6.588  0.0902  0.3902 -0.2193
42136SOL    HW138387   1.432   7.513   6.558 -2.2172  0.6794  0.2447
42136SOL    HW238388   1.425   7.602   6.680 -0.6600  1.7484 -0.4160
42137SOL     OW38389   2.677  10.263   1.040  0.1372  0.5914 -0.9916
42137SOL    HW138390   2.617  10.300   0.975 -0.9894  0.3033 -0.1378
42137SOL    HW238391   2.699  10.336   1.097 -2.0866  0.0435  0.6939
42138SOL     OW38392   8.918   1.610   4.391  0.7243 -0.3407 -0.2327
42138SOL    HW138393   8.896   1.699   4.419  0.7801 -0.2505 -0.4710
42138SOL    HW238394   8.837   1.561   4.403  0.3999 -0.0273 -1.0353
42139SOL     OW38395   6.964   3.527   8.562  0.5562 -0.0946  0.4614
42139SOL    HW138396   6.966   3.474   8.482  0.2925  0.8614 -0.1957
42139SOL    HW238397   7.037   3.494   8.615  0.3086 -1.2021  0.1408
42140SOL     OW38398  12.004   3.462   0.234  0.1975 -0.0854 -0.0827
42140SOL    HW138399  11.952   3.480   0.156 -0.5556 -0.4327  0.3367
42140SOL    HW238400  11.978   3.528   0.297  0.1465 -0.3589  0.1852
42141SOL     OW38401   4.321   9.045  11.452 -0.2173  0.1862 -0.0081
42141SOL    HW138402   4.284   8.959  11.474 -0.0546 -0.1881 -1.1761
42141SOL    HW238403   4.384   9.028  11.383 -0.5834  1.3110 -0.6543
42142SOL     OW38404  10.564   9.233   9.201 -0.1732 -0.2961 -0.1933
42142SOL    HW138405  10.627   9.227   9.130  1.0525 -1.9420  0.9746
42142SOL    HW238406  10.606   9.189   9.275 -2.2850 -0.5847  0.9192
42143SOL     OW38407   4.035   3.479  12.067 -0.1341 -0.0122 -0.5068
42143SOL    HW138408   3.996   3.416  12.127  2.4586 -1.3513 -0.0463
42143SOL    HW238409   3.977   3.479  11.991 -1.2349 -1.5043  0.2886
42144SOL     OW38410  12.143   7.936   3.235 -0.1531 -0.3685  0.5755
42144SOL    HW138411  12.154   8.017   3.185  2.1512 -1.0328 -0.0997
42144SOL    HW238412  12.091   7.880   3.178  1.6064 -0.7502 -0.7428
42145SOL     OW38413   0.461   8.380   6.830  0.2893 -0.1404  0.3004
42145SOL    HW138414   0.449   8.392   6.736 -0.4141 -1.5609  0.1844
42145SOL    HW238415   0.533   8.438   6.852 -0.1242  0.9019 -0.9438
42146SOL     OW38416   4.302  10.719  10.651 -0.6487 -0.1295  0.3046
42146SOL    HW138417   4.209  10.741  10.639 -0.8822 -1.2624 -0.1104
42146SOL    HW238418   4.301  10.630  10.687  0.2796 -0.2660  0.0149
42147SOL     OW38419   0.861  12.709   6.942 -0.3173  0.2118  0.5123
42147SOL    HW138420   0.846  12.794   6.984  0.2341 -0.2986  1.7898
42147SOL    HW238421   0.774  12.680   6.915 -0.4424  1.4281 -0.4555
42148SOL     OW38422   2.826  13.029   2.042 -0.4270  0.2035 -0.7748
42148SOL    HW138423   2.783  12.958   1.995  0.8590  0.2708 -2.1200
42148SOL    HW238424   2.908  12.990   2.073 -1.7078 -0.1902  2.5135
42149SOL     OW38425   3.351  12.918   4.726 -0.0192 -0.2642  0.1958
42149SOL    HW138426   3.365  12.932   4.820 -0.2478  1.9281 -0.0350
42149SOL    HW238427   3.361  13.005   4.688 -0.9662 -0.9357 -1.6908
42150SOL     OW38428   0.211   5.281   4.792  0.3215 -0.4859  0.1554
42150SOL    HW138429   0.215   5.273   4.696  0.6903  2.6162 -0.1941
42150SOL    HW238430   0.256   5.363   4.811  0.9779 -1.4088  3.1211
42151SOL     OW38431  12.709   5.321   7.570  0.2073  0.1347 -0.2565
42151SOL    HW138432  12.764   5.250   7.604  0.5915  0.4656 -0.1744
42151SOL    HW238433  12.771   5.390   7.547 -0.2019  0.6654  0.2001
42152SOL     OW38434   8.473   8.888   2.561 -0.0477 -0.3706 -0.4139
42152SOL    HW138435   8.566   8.874   2.580 -0.1545  1.8981  2.5543
42152SOL    HW238436   8.472   8.963   2.501  0.1059  1.0032  1.2096
42153SOL     OW38437   3.229   3.721   5.340  0.4952  0.2128  0.1742
42153SOL    HW138438   3.258   3.633   5.365 -0.1564  0.5502  2.3141
42153SOL    HW238439   3.135   3.722   5.359  0.2152  0.9331 -1.1732
42154SOL     OW38440   3.240  10.115   1.371 -0.4383 -0.0166 -1.3810
42154SOL    HW138441   3.325  10.160   1.368  0.4600 -1.4313  0.5831
42154SOL    HW238442   3.233  10.072   1.287  0.9882 -0.1632 -1.4524
42155SOL     OW38443   5.361   5.100   3.081 -0.9515 -0.7313  0.2274
42155SOL    HW138444   5.296   5.169   3.095 -0.0627  0.4259 -1.1374
42155SOL    HW238445   5.351   5.077   2.989  0.3482 -0.7707  0.0865
42156SOL     OW38446   0.360   6.486  13.739  0.2896 -0.1803 -0.4921
42156SOL    HW138447   0.384   6.548  13.808 -0.2309 -0.2492 -0.2437
42156SOL    HW238448   0.428   6.497  13.672  0.0459  0.8672 -0.5849
42157SOL     OW38449   6.985   8.882   6.330  0.2476 -0.1845  0.0794
42157SOL    HW138450   7.056   8.899   6.268 -1.3589 -0.0536 -1.7911
42157SOL    HW238451   6.959   8.792   6.313 -0.8343  0.1519 -0.1163
42158SOL     OW38452   3.814  12.900   8.523  0.3892  0.4646  0.2843
42158SOL    HW138453   3.806  12.829   8.460  0.8399  1.2436 -0.6698
42158SOL    HW238454   3.869  12.864   8.593  0.9951  0.0168 -0.4076
42159SOL     OW38455   7.554   3.083  13.344  0.7637 -0.0881 -0.3028
42159SOL    HW138456   7.562   3.173  13.376  0.7349 -1.0637  2.8301
42159SOL    HW238457   7.578   3.088  13.251  0.6241  3.1366 -0.2815
42160SOL     OW38458   9.135   9.136   4.242  0.3196  0.5123  0.0240
42160SOL    HW138459   9.090   9.082   4.307  0.8326 -0.7258 -0.6202
42160SOL    HW238460   9.119   9.092   4.159  0.0774  1.8208 -0.6367
42161SOL     OW38461   4.360   0.867  11.505  0.6119 -0.1396  0.1962
42161SOL    HW138462   4.314   0.843  11.586  0.7044  1.2213  0.6821
42161SOL    HW238463   4.378   0.784  11.462 -2.3461 -0.7541 -0.0595
42162SOL     OW38464   6.866  12.291   9.372 -0.1683 -0.5432  0.3450
42162SOL    HW138465   6.834  12.264   9.286  0.6280 -0.2837 -0.0436
42162SOL    HW238466   6.888  12.383   9.361 -0.6229 -0.3500  1.0000
42163SOL     OW38467  10.463  13.527   4.324  0.2563  0.0844  0.4922
42163SOL    HW138468  10.506  13.443   4.343  0.1490  0.2219  1.3895
42163SOL    HW238469  10.375  13.503   4.297 -0.4976 -0.0248  2.8659
42164SOL     OW38470   3.880   2.042   6.558  0.3917 -0.0114  0.1079
42164SOL    HW138471   3.910   1.965   6.606 -1.8165  1.5942  4.6013
42164SOL    HW238472   3.956   2.102   6.559  0.6772 -0.3731  0.8141
42165SOL     OW38473   3.382   3.263   5.408  0.0850 -0.2267 -0.0051
42165SOL    HW138474   3.288   3.248   5.404 -0.2243  0.8087  2.0608
42165SOL    HW238475   3.393   3.354   5.381  0.2422  0.2737  1.6856
42166SOL     OW38476   9.391  12.980   6.335 -0.0088  0.4415 -0.3073
42166SOL    HW138477   9.435  13.053   6.292  1.2722 -0.5043 -0.6718
42166SOL    HW238478   9.429  12.977   6.423 -1.9304  1.7725  0.6374
42167SOL     OW38479   1.019   0.450   4.572 -0.1963  0.1034  0.4019
42167SOL    HW138480   0.953   0.513   4.544  0.7033  0.5390 -0.8307
42167SOL    HW238481   1.003   0.372   4.519  0.3732  0.2713 -0.0240
42168SOL     OW38482   5.750   6.600  12.767  0.0310  0.2100  0.2106
42168SOL    HW138483   5.714   6.514  12.789 -0.1873  0.4204  0.7085
42168SOL    HW238484   5.822   6.612  12.829  0.7368 -0.0571 -0.5450
42169SOL     OW38485   4.752  12.198  12.763 -0.0052  0.1315 -0.3551
42169SOL    HW138486   4.745  12.103  12.762 -0.9136  0.1831 -1.5898
42169SOL    HW238487   4.780  12.221  12.675  0.7835  0.9867  0.0983
42170SOL     OW38488  12.585   4.487   8.199 -0.5034 -0.4661  0.1725
42170SOL    HW138489  12.622   4.567   8.161 -0.4945 -0.5571 -0.0117
42170SOL    HW238490  12.636   4.416   8.160 -0.1648 -0.5374  0.7274
42171SOL     OW38491  12.125   2.099  13.355 -0.4675  0.2582  0.2658
42171SOL    HW138492  12.042   2.126  13.395 -0.4866  0.9388 -0.2138
42171SOL    HW238493  12.108   2.099  13.261 -0.0100  0.1029  0.1801
42172SOL     OW38494   6.913  13.388   5.605 -0.3128  0.0219 -0.4834
42172SOL    HW138495   6.990  13.346   5.644 -0.0529  1.4345  0.6115
42172SOL    HW238496   6.849  13.389   5.676  0.2078  2.7648  0.0650
42173SOL     OW38497  10.949  11.116  11.142 -0.2515  0.5249 -0.1676
42173SOL    HW138498  10.983  11.072  11.064 -0.6933 -2.4542  1.2172
42173SOL    HW238499  10.979  11.063  11.215 -0.7859  2.6064  1.6872
42174SOL     OW38500   1.307   0.312   7.652  0.6758  0.0417 -0.3109
42174SOL    HW138501   1.216   0.339   7.659  0.8778  0.3288  2.3724
42174SOL    HW238502   1.304   0.220   7.627 -0.3882 -0.1494  0.4820
42175SOL     OW38503   7.646   2.118   3.045 -0.1153  0.1960  0.2229
42175SOL    HW138504   7.578   2.183   3.066  0.5715  1.1105 -0.2972
42175SOL    HW238505   7.726   2.153   3.085  0.2258 -0.4354  0.1058
42176SOL     OW38506  11.721   8.601   0.079 -0.0684  0.4094  0.5180
42176SOL    HW138507  11.779   8.631   0.010  0.3054  1.6196  1.3169
42176SOL    HW238508  11.779   8.568   0.148 -0.4247 -0.5659  0.3711
42177SOL     OW38509  10.534   5.772  10.384 -0.1477  0.8812  0.2725
42177SOL    HW138510  10.461   5.812  10.432  0.5293  1.4302  0.8692
42177SOL    HW238511  10.492   5.724  10.313 -1.0619  1.7191  0.2137
42178SOL     OW38512   9.560   4.901   7.083  0.0558  0.7589  0.7288
42178SOL    HW138513   9.640   4.918   7.032 -0.2536  1.5016  0.4855
42178SOL    HW238514   9.552   4.977   7.141 -1.9666  2.1127 -1.1577
42179SOL     OW38515  10.851  12.445   9.349  0.5098 -0.3134 -0.6532
42179SOL    HW138516  10.938  12.463   9.384  0.5735  0.3165 -1.1145
42179SOL    HW238517  10.828  12.360   9.385  0.5229  0.3578  1.0092
42180SOL     OW38518  13.680  10.105   8.159  0.0997  0.9777  0.2993
42180SOL    HW138519  13.612  10.149   8.210 -0.5111  1.8128 -1.1753
42180SOL    HW238520  13.756  10.103   8.218 -1.0987  0.2389  1.8854
42181SOL     OW38521  10.083   4.531   0.635  0.0398  0.0766 -0.5283
42181SOL    HW138522  10.056   4.467   0.569  0.7520  1.2824 -2.0487
42181SOL    HW238523  10.129   4.599   0.586  1.6634  0.4508  1.3467
42182SOL     OW38524   3.278  10.402  13.032  0.2550 -0.0063 -0.3464
42182SOL    HW138525   3.279  10.307  13.030 -0.2785 -0.0140 -0.1807
42182SOL    HW238526   3.351  10.425  13.091  1.5076 -0.2549 -1.7314
42183SOL     OW38527   2.048   7.102   2.746 -0.4277  0.3793 -0.3153
42183SOL    HW138528   2.085   7.189   2.761 -0.9922  1.0268 -2.3341
42183SOL    HW238529   2.032   7.099   2.651  1.4582 -2.6760 -0.6799
42184SOL     OW38530  13.606   1.105  10.778  0.2766 -0.1764 -0.2784
42184SOL    HW138531  13.657   1.165  10.832  1.4925 -0.5318 -0.9821
42184SOL    HW238532  13.566   1.161  10.712  0.5088  0.0061 -0.2666
42185SOL     OW38533   0.134   6.915   8.959 -0.3698  0.2404  0.0723
42185SOL    HW138534   0.125   6.984   9.025  2.3361  0.6034  0.2068
42185SOL    HW238535   0.090   6.839   8.997 -1.3050  1.2121  1.0141
42186SOL     OW38536   7.406   1.834   7.227  0.0263 -0.6933  0.2098
42186SOL    HW138537   7.346   1.865   7.159 -1.4436  0.8684  2.1078
42186SOL    HW238538   7.457   1.912   7.252 -0.4059 -0.8874  1.8032
42187SOL     OW38539  14.027   2.666   9.544 -0.4430 -0.4342  1.0664
42187SOL    HW138540  14.073   2.631   9.621 -1.2283 -1.3012  1.1641
42187SOL    HW238541  13.953   2.607   9.532 -0.6849  0.0616  0.0103
42188SOL     OW38542  10.462   6.046   2.028  0.1006  0.5244 -0.0699
42188SOL    HW138543  10.433   6.056   1.938 -1.7490 -1.2998  0.2534
42188SOL    HW238544  10.484   5.953   2.037 -0.8208  0.4340  1.6237
42189SOL     OW38545   3.826   9.374  10.643  0.0987 -0.1657  0.2715
42189SOL    HW138546   3.738   9.341  10.658  0.0219  0.1335  0.4802
42189SOL    HW238547   3.859   9.397  10.730  0.1613  0.2840  0.1316
42190SOL     OW38548   3.407   2.449   3.638  0.4995  0.2612  0.3709
42190SOL    HW138549   3.416   2.354   3.642 -0.4736  0.1966  2.7321
42190SOL    HW238550   3.321   2.464   3.599  1.0060  0.2219 -0.7906
42191SOL     OW38551   3.018  10.438  13.855 -0.0785 -0.2487 -0.2186
42191SOL    HW138552   3.001  10.528  13.827 -1.8239 -0.2610  0.6986
42191SOL    HW238553   3.043  10.392  13.775  0.5991  0.9771 -0.7441
42192SOL     OW38554   6.519   8.706  10.249  0.4226  0.4444  0.0054
42192SOL    HW138555   6.447   8.675  10.304  1.8749  0.6676  2.1803
42192SOL    HW238556   6.587   8.731  10.312  3.4830 -2.2924 -1.9232
42193SOL     OW38557   8.139   3.306   1.076 -0.8096 -0.7938 -0.1041
42193SOL    HW138558   8.170   3.388   1.038 -2.1914 -0.6068 -0.8779
42193SOL    HW238559   8.128   3.326   1.169 -1.4788  0.0107 -0.3499
42194SOL     OW38560   7.486   1.819   6.613 -0.2452 -0.5581  0.5229
42194SOL    HW138561   7.465   1.764   6.537 -0.4851 -0.8859  0.8248
42194SOL    HW238562   7.573   1.853   6.594 -0.8179  0.3916 -0.4960
42195SOL     OW38563   9.481   7.940  12.374 -0.4386 -0.3017  0.6910
42195SOL    HW138564   9.572   7.965  12.386 -0.4459  0.3320 -0.4468
42195SOL    HW238565   9.432   8.022  12.384 -0.5470  0.0877 -2.1218
42196SOL     OW38566   6.738  11.587   8.109 -0.1880  0.1002  0.0143
42196SOL    HW138567   6.744  11.665   8.054  1.3769 -0.7542 -1.1201
42196SOL    HW238568   6.821  11.585   8.157  0.0243 -1.1283 -0.3710
42197SOL     OW38569   1.829   6.680   2.667 -0.1036 -0.2171 -0.9946
42197SOL    HW138570   1.838   6.671   2.572  1.3631 -2.1964 -0.7188
42197SOL    HW238571   1.814   6.590   2.699  3.8843 -0.3704  1.0220
42198SOL     OW38572   2.163  10.944   9.341  0.6827 -0.2771  0.2335
42198SOL    HW138573   2.069  10.959   9.343  0.9875  2.0839 -0.0367
42198SOL    HW238574   2.184  10.927   9.249  0.8134  1.9778 -0.2145
42199SOL     OW38575   4.171  13.749   8.587  0.6488 -0.2744 -0.2076
42199SOL    HW138576   4.080  13.720   8.596  0.7864 -0.2504  1.4329
42199SOL    HW238577   4.201  13.764   8.676  2.3600 -0.5358 -0.6969
42200SOL     OW38578   5.911  13.380   0.478 -0.1235 -0.3146 -0.3679
42200SOL    HW138579   5.919  13.468   0.516  1.1264 -0.1316 -0.9960
42200SOL    HW238580   5.995  13.338   0.500 -0.4149 -1.0852 -0.7246
42201SOL     OW38581   2.692   4.283  10.794  0.1654  0.1689 -0.5151
42201SOL    HW138582   2.710   4.193  10.767 -1.6000 -0.2611 -0.3661
42201SOL    HW238583   2.756   4.301  10.863  0.6321 -0.9181 -0.6438
42202SOL     OW38584  11.141   3.319   6.249 -0.1264  0.2178  0.1289
42202SOL    HW138585  11.236   3.310   6.250 -0.0678  0.7738 -0.2392
42202SOL    HW238586  11.125   3.411   6.266 -0.5406  0.4392 -1.2672
42203SOL     OW38587   0.588   2.543  12.473  1.0839 -0.0793  0.1290
42203SOL    HW138588   0.612   2.587  12.392  3.0849 -0.2267  0.5793
42203SOL    HW238589   0.562   2.614  12.532  0.6479  0.1310 -0.3186
42204SOL     OW38590   6.078   3.092   7.875  0.3225 -0.6343 -0.3651
42204SOL    HW138591   5.985   3.093   7.895  0.4970  1.1308  0.5881
42204SOL    HW238592   6.093   3.175   7.829  1.2517 -1.3545 -1.4088
42205SOL     OW38593   0.202   3.522   6.594 -0.5141  0.2663 -0.1069
42205SOL    HW138594   0.254   3.490   6.521  1.2819 -1.6182  1.8354
42205SOL    HW238595   0.200   3.448   6.656 -3.4204  1.1543  1.0354
42206SOL     OW38596  11.753   5.276  13.216 -0.3105  0.1226  0.3089
42206SOL    HW138597  11.662   5.253  13.237 -0.1659 -0.9394 -0.1845
42206SOL    HW238598  11.794   5.290  13.301 -1.1561  1.5797  0.5204
42207SOL     OW38599   1.256   4.840  13.862  0.6132  0.2596 -0.1386
42207SOL    HW138600   1.279   4.859  13.771 -1.0121  2.1040 -0.2366
42207SOL    HW238601   1.167   4.873  13.871  0.6965 -0.0011  2.0990
42208SOL     OW38602   7.452   3.325  12.896  0.4097  0.0299  0.0356
42208SOL    HW138603   7.462   3.420  12.892 -1.8881  0.3427  0.4395
42208SOL    HW238604   7.402   3.310  12.977  0.2287 -1.4689 -0.3292
42209SOL     OW38605   2.863   2.523  13.886 -0.3785 -0.0388 -0.6681
42209SOL    HW138606   2.833   2.488  13.970  0.6351  0.9302  0.1221
42209SOL    HW238607   2.783   2.530  13.833 -0.6733 -3.4094 -0.8823
42210SOL     OW38608   2.962   0.814   8.757  0.2717  0.2036 -0.0091
42210SOL    HW138609   2.914   0.769   8.688 -1.5924  0.3588  1.1157
42210SOL    HW238610   3.007   0.886   8.713  0.2820 -0.5477 -1.2551
42211SOL     OW38611   8.028   9.054   5.766 -0.3658  0.2530 -0.0362
42211SOL    HW138612   8.087   9.016   5.701 -0.8989 -1.5660  0.4618
42211SOL    HW238613   8.086   9.093   5.831  0.2385 -0.0310 -0.3963
42212SOL     OW38614   0.396  13.532  13.501  0.2799  0.2004 -0.1981
42212SOL    HW138615   0.417  13.443  13.528  0.0538  1.1027  3.3627
42212SOL    HW238616   0.307  13.526  13.465  0.0851 -0.9172  0.4299
42213SOL     OW38617   8.975  10.572  13.312  0.0084  0.1743 -0.2335
42213SOL    HW138618   8.882  10.550  13.314 -0.2389  1.2535  1.1445
42213SOL    HW238619   9.019  10.496  13.350 -0.6845  1.1939  2.8497
42214SOL     OW38620   9.280  10.690   9.669  0.4069  0.6014 -0.3650
42214SOL    HW138621   9.342  10.688   9.742 -1.0877  2.4613  1.0546
42214SOL    HW238622   9.196  10.714   9.710 -0.7233  0.5886 -2.5490
42215SOL     OW38623   5.266  10.715  12.217 -0.3487  0.1426 -0.0189
42215SOL    HW138624   5.186  10.679  12.256 -0.4646 -0.6069 -0.9173
42215SOL    HW238625   5.251  10.809  12.213 -0.9771  0.0600  0.2843
42216SOL     OW38626   2.591   1.173   2.492 -0.0431  0.3802  0.0797
42216SOL    HW138627   2.649   1.220   2.433  0.7103 -2.2947 -1.4818
42216SOL    HW238628   2.538   1.118   2.435  0.6999 -2.2965  1.7894
42217SOL     OW38629   6.763   5.965  12.432  0.3468 -0.0355  0.0274
42217SOL    HW138630   6.753   5.917  12.514  0.4798  0.2967  0.2385
42217SOL    HW238631   6.826   6.035  12.451  0.4084  0.0230 -0.3653
42218SOL     OW38632  10.322   9.646   9.241 -0.1143  0.2655 -0.0533
42218SOL    HW138633  10.415   9.663   9.257 -0.1028  0.3067 -0.1586
42218SOL    HW238634  10.289   9.729   9.206 -0.3325  0.4549  0.5930
42219SOL     OW38635  13.658   9.643   6.653 -0.6090  0.0801  1.0633
42219SOL    HW138636  13.682   9.735   6.640  0.9647 -0.6906 -3.2315
42219SOL    HW238637  13.564   9.640   6.635 -0.1305  0.5880 -2.3440
42220SOL     OW38638   5.413  11.379   4.123 -0.4132  0.2549  0.3693
42220SOL    HW138639   5.480  11.333   4.174 -0.3166  0.0509  0.0616
42220SOL    HW238640   5.330  11.337   4.149 -0.5302  1.0728  1.3832
42221SOL     OW38641   9.677   5.732   0.779  0.2922  0.1615  0.4482
42221SOL    HW138642   9.615   5.675   0.734  0.3932  1.1688 -1.0547
42221SOL    HW238643   9.637   5.747   0.865 -2.2203  1.7062 -0.8520
42222SOL     OW38644   3.112   1.872  10.085 -0.4443 -0.5747  0.6847
42222SOL    HW138645   3.115   1.785  10.044  1.0328 -0.8377  1.2891
42222SOL    HW238646   3.175   1.866  10.157 -0.9791  0.7368  1.2830
42223SOL     OW38647   8.766  13.416  13.489  0.3705 -0.0415  0.4284
42223SOL    HW138648   8.812  13.362  13.553 -1.0869  0.5063  1.9985
42223SOL    HW238649   8.705  13.356  13.446 -0.5270  0.0932  1.4612
42224SOL     OW38650   9.600  13.790   5.248 -0.0750 -0.0508  0.8163
42224SOL    HW138651   9.515  13.762   5.213 -0.0968 -1.9462  2.2609
42224SOL    HW238652   9.661  13.780   5.175 -0.6577 -0.9983  0.4465
42225SOL     OW38653   9.194   8.116   1.121 -0.1297 -0.0876 -0.5223
42225SOL    HW138654   9.177   8.117   1.215  0.2937 -0.4706 -0.4357
42225SOL    HW238655   9.146   8.191   1.087  0.3251  0.5023  0.1036
42226SOL     OW38656   7.773   2.975   7.893  0.7471 -0.3037 -0.2495
42226SOL    HW138657   7.859   2.935   7.877  0.7276 -0.4010 -0.1122
42226SOL    HW238658   7.713   2.901   7.895  0.6260 -0.2181 -0.5648
42227SOL     OW38659   3.206  12.058   5.599  0.3318  0.3289 -0.6159
42227SOL    HW138660   3.281  12.004   5.572  1.0368  0.9511  0.0441
42227SOL    HW238661   3.234  12.148   5.583  0.1365  0.6249  0.6175
42228SOL     OW38662   8.171  11.731   0.170  0.7186  0.0383  0.6130
42228SOL    HW138663   8.190  11.811   0.219  0.6060 -0.5241  1.6026
42228SOL    HW238664   8.096  11.692   0.216 -1.8730  1.3592 -2.2081
42229SOL     OW38665   9.917   8.957  12.557 -0.0017 -0.1121  0.2820
42229SOL    HW138666   9.846   9.021  12.553  0.1541  0.2118  1.9709
42229SOL    HW238667   9.990   8.997  12.510  0.2750  1.2130  1.7775
42230SOL     OW38668   6.362   7.511  12.412  0.4119  0.4065  0.3315
42230SOL    HW138669   6.356   7.598  12.373 -0.8657  1.1790  2.1323
42230SOL    HW238670   6.307   7.456  12.357 -0.4266  1.2089  0.3417
42231SOL     OW38671  10.716   7.198  12.193 -0.4602 -0.2191 -0.4472
42231SOL    HW138672  10.655   7.224  12.262 -0.4387 -2.6597  0.6105
42231SOL    HW238673  10.662   7.153  12.129 -0.0720 -0.5264 -0.5622
42232SOL     OW38674  12.248   4.433  11.386 -0.0060  0.2293 -0.7737
42232SOL    HW138675  12.198   4.484  11.323  0.7064  0.2631 -1.3243
42232SOL    HW238676  12.335   4.473  11.386  0.1824 -0.1642 -0.2332
42233SOL     OW38677   9.569   2.154   6.688  0.4142  0.4371  0.5241
42233SOL    HW138678   9.505   2.223   6.673 -1.8368 -1.8557 -1.4066
42233SOL    HW238679   9.630   2.161   6.615 -0.3005 -0.0635 -0.1386
42234SOL     OW38680   3.644   5.394   2.415 -0.1156  0.6545 -0.0465
42234SOL    HW138681   3.693   5.449   2.354 -0.3445  0.3834 -0.4798
42234SOL    HW238682   3.709   5.366   2.479  0.3854  0.0045 -0.8198
42235SOL     OW38683   9.204   0.980   8.451 -0.2179  0.5380  0.3229
42235SOL    HW138684   9.124   0.935   8.478  0.6751 -1.3062  0.0060
42235SOL    HW238685   9.269   0.957   8.517  0.2036  1.5973  0.2973
42236SOL     OW38686  13.161  13.032   5.470  0.0769 -0.2592 -0.0502
42236SOL    HW138687  13.124  13.111   5.431 -0.2884 -0.8343 -0.8940
42236SOL    HW238688  13.235  13.009   5.414 -1.0104 -1.6094 -0.9912
42237SOL     OW38689   3.195   2.822   6.817 -0.2613 -0.3798 -0.0017
42237SOL    HW138690   3.233   2.876   6.885  2.2600 -3.5573  1.3774
42237SOL    HW238691   3.181   2.882   6.743  0.3622  2.4573  2.0244
42238SOL     OW38692   4.841   8.873   8.707 -0.0679  0.2329  0.0162
42238SOL    HW138693   4.808   8.962   8.700  1.8149  0.8865 -1.4951
42238SOL    HW238694   4.878   8.854   8.621  1.2985 -1.2870  0.8759
42239SOL     OW38695   7.858   7.123  11.831  0.3965  0.8505 -0.0903
42239SOL    HW138696   7.773   7.154  11.801  1.0121  1.1284 -1.6701
42239SOL    HW238697   7.874   7.045  11.779  1.1091  0.7964  0.2003
42240SOL     OW38698   9.966  13.303   9.763  0.3650 -0.4399 -0.7327
42240SOL    HW138699  10.025  13.373   9.791 -0.7012  0.3234 -0.3365
42240SOL    HW238700  10.010  13.222   9.790  0.8375  0.1467  0.2805
42241SOL     OW38701   5.546   5.752  13.156 -0.2677 -0.4884  0.8894
42241SOL    HW138702   5.532   5.810  13.081  0.5295 -0.9433  0.3710
42241SOL    HW238703   5.534   5.664  13.121  0.3825 -0.7181  1.2204
42242SOL     OW38704   5.273   0.233   7.377 -0.5824  0.8452  0.5679
42242SOL    HW138705   5.341   0.286   7.336  1.4677 -2.0993 -0.0918
42242SOL    HW238706   5.281   0.253   7.471 -0.0174  1.8177  0.3341
42243SOL     OW38707   7.517  12.561   9.002  0.2994 -0.7170 -0.0150
42243SOL    HW138708   7.471  12.516   9.073  0.9031 -2.3445 -0.6256
42243SOL    HW238709   7.523  12.496   8.933  0.3077  0.6382 -1.3302
42244SOL     OW38710   1.758  11.505   9.418 -0.1397 -0.3537  1.0527
42244SOL    HW138711   1.801  11.574   9.467  0.2724 -1.3064  2.0709
42244SOL    HW238712   1.688  11.474   9.476 -0.2520 -0.8642  0.6523
42245SOL     OW38713   0.439   5.096  13.482  0.5004  0.2971  0.6599
42245SOL    HW138714   0.443   5.179  13.433 -0.6205 -0.0603 -0.1004
42245SOL    HW238715   0.512   5.100  13.544  0.9370  1.5086  0.0953
42246SOL     OW38716   4.500  13.315   3.870  0.1669 -0.3087  0.5188
42246SOL    HW138717   4.460  13.390   3.913  1.4813  1.2235 -0.7918
42246SOL    HW238718   4.593  13.337   3.865  0.4392 -1.5948 -0.7362
42247SOL     OW38719   1.938   8.341  11.868 -0.5554 -0.3752  0.2287
42247SOL    HW138720   1.953   8.420  11.919  0.0754 -0.1263 -0.3265
42247SOL    HW238721   1.886   8.285  11.925 -0.4273  0.1649  0.8849
42248SOL     OW38722   1.582   3.518   5.666 -0.0949 -0.0248  0.0501
42248SOL    HW138723   1.632   3.597   5.684 -1.0145  0.5751  0.0299
42248SOL    HW238724   1.593   3.464   5.744  0.7064  0.0186 -0.0226
42249SOL     OW38725   8.520   8.269   3.884  0.2091 -0.0797  0.2789
42249SOL    HW138726   8.596   8.260   3.941 -0.6645  0.2776  1.5386
42249SOL    HW238727   8.445   8.271   3.944 -0.7818 -0.2236 -0.9184
42250SOL     OW38728  10.191   2.799  13.467  0.5595 -0.2532 -0.1123
42250SOL    HW138729  10.222   2.778  13.379 -1.8337  0.3713 -1.1837
42250SOL    HW238730  10.262   2.851  13.506  1.0416  0.8105 -2.2659
42251SOL     OW38731  12.387  11.002  10.738  0.2895  0.0337  0.0512
42251SOL    HW138732  12.361  10.910  10.743 -1.4672  0.5184  0.2979
42251SOL    HW238733  12.394  11.030  10.829 -1.0189  0.6234 -0.0157
42252SOL     OW38734   9.877   6.028   5.028  0.4560  0.1809  0.2612
42252SOL    HW138735   9.857   6.093   4.960 -0.0124  0.0402  0.2594
42252SOL    HW238736   9.911   5.953   4.980  0.5138  0.2338  0.2186
42253SOL     OW38737   2.891   3.227  13.105 -0.3131 -0.1619 -0.2788
42253SOL    HW138738   2.886   3.166  13.032  2.0513 -1.2686  0.3856
42253SOL    HW238739   2.958   3.290  13.080  1.1015 -1.0174  1.1899
42254SOL     OW38740   3.916  13.106   9.055 -0.5906  0.4064  0.1553
42254SOL    HW138741   3.852  13.162   9.098 -0.2019  0.8057  0.2260
42254SOL    HW238742   3.995  13.160   9.048 -0.3402  0.0125 -0.1622
42255SOL     OW38743  13.101   0.826  12.135 -0.0286 -0.4165  0.2858
42255SOL    HW138744  13.181   0.843  12.185 -0.6523  1.1122  0.8330
42255SOL    HW238745  13.132   0.791  12.052  1.2415  0.3946  0.3842
42256SOL     OW38746  14.031   5.781  12.976 -0.2688  0.0274 -0.2875
42256SOL    HW138747  14.085   5.760  12.899 -0.0962  0.1068 -0.1898
42256SOL    HW238748  14.064   5.866  13.005 -1.1384  0.5610 -0.8333
42257SOL     OW38749   9.460   8.594   0.681 -0.2013 -0.0635  0.0732
42257SOL    HW138750   9.449   8.621   0.590  3.0999 -0.1253 -0.4783
42257SOL    HW238751   9.419   8.664   0.731  0.1257  1.2838 -1.4479
42258SOL     OW38752   3.548   8.741   1.000  0.4669  0.6157  0.2048
42258SOL    HW138753   3.499   8.659   1.014 -0.1409  1.1978  1.7276
42258SOL    HW238754   3.511   8.777   0.920  1.3256 -0.9781 -0.9697
42259SOL     OW38755  12.690  12.171   9.971 -0.6362 -0.1880  0.0787
42259SOL    HW138756  12.673  12.089   9.925  1.0706 -1.5499  1.7312
42259SOL    HW238757  12.651  12.238   9.915 -1.2054 -2.0102 -1.8406
42260SOL     OW38758   6.744   2.384   0.372  0.0313 -0.0453 -0.0792
42260SOL    HW138759   6.823   2.340   0.339  0.4657  1.1141 -0.6421
42260SOL    HW238760   6.721   2.335   0.451  0.1055 -1.6839 -1.0261
42261SOL     OW38761   0.084   3.236   8.028  0.5450  0.1683 -0.1932
42261SOL    HW138762   0.004   3.185   8.042 -0.4103  1.7349  0.2296
42261SOL    HW238763   0.151   3.188   8.078  0.1641 -1.7713 -1.4378
42262SOL     OW38764   9.590  13.330   4.975  0.1778 -0.2058 -0.3146
42262SOL    HW138765   9.520  13.376   5.021 -0.9101 -1.5261 -0.6043
42262SOL    HW238766   9.600  13.378   4.893 -2.4599 -1.6623 -1.5993
42263SOL     OW38767   0.217  12.879   9.178 -0.0131  0.0836 -0.6438
42263SOL    HW138768   0.237  12.949   9.116 -2.2613 -0.4796 -2.1293
42263SOL    HW238769   0.175  12.811   9.125  0.0008 -1.3915  1.1358
42264SOL     OW38770  11.812   2.496   5.695 -0.1930  0.2195  0.3363
42264SOL    HW138771  11.844   2.584   5.675  0.0096  0.0809  0.0441
42264SOL    HW238772  11.750   2.508   5.768  0.7821  0.4452  1.1484
42265SOL     OW38773  11.424   4.988  13.259 -0.1618 -0.3562  0.1189
42265SOL    HW138774  11.460   5.077  13.267 -1.7045  0.3886 -0.7004
42265SOL    HW238775  11.402   4.980  13.166 -1.0763 -1.1783  0.3990
42266SOL     OW38776   5.399  10.487  13.764  0.2384 -0.4526 -0.2053
42266SOL    HW138777   5.460  10.418  13.791  0.6035 -0.5532 -1.2354
42266SOL    HW238778   5.456  10.560  13.738 -0.1277 -0.0079  0.2221
42267SOL     OW38779  12.737   1.104  11.908  0.6511 -0.9010 -0.2980
42267SOL    HW138780  12.712   1.018  11.873 -0.8008 -0.5294 -0.2175
42267SOL    HW238781  12.705   1.104  11.998  1.2081 -0.5064 -0.0946
42268SOL     OW38782  12.770  11.941   8.051  0.3713  0.4556  0.6829
42268SOL    HW138783  12.815  11.954   8.134 -2.2623 -0.7341  2.4340
42268SOL    HW238784  12.802  11.857   8.019  1.1133  0.7418  0.6448
42269SOL     OW38785   1.918  13.183   9.186 -0.3934 -0.0123  0.8165
42269SOL    HW138786   1.844  13.124   9.174  0.0759 -0.6092  0.7975
42269SOL    HW238787   1.983  13.131   9.234 -0.1061  0.5965  1.1029
42270SOL     OW38788  12.114   8.233   7.743 -0.5732 -0.3349 -0.7181
42270SOL    HW138789  12.062   8.231   7.662 -2.1189  2.9157  0.0508
42270SOL    HW238790  12.205   8.225   7.713 -1.1057  0.6372 -2.8066
42271SOL     OW38791  13.053  13.647   5.565 -0.5063 -0.1707 -0.1610
42271SOL    HW138792  13.044  13.700   5.644 -2.4738  0.9040 -1.0255
42271SOL    HW238793  12.979  13.586   5.568  0.7512 -1.7525 -0.0384
42272SOL     OW38794  10.742   1.565   8.218  0.2124  0.3713  0.0570
42272SOL    HW138795  10.832   1.590   8.240  0.5505  0.2482 -1.0979
42272SOL    HW238796  10.743   1.469   8.218 -0.2074  0.3567  1.1145
42273SOL     OW38797   2.023  13.437  10.920 -0.1993  0.3526 -0.0960
42273SOL    HW138798   1.946  13.447  10.865 -0.4031  0.2285  0.1636
42273SOL    HW238799   2.059  13.351  10.896 -0.6026  0.0546  0.3525
42274SOL     OW38800   8.932   2.192   0.485 -0.2461  0.0387  0.8460
42274SOL    HW138801   8.927   2.099   0.461  0.5083 -0.0347  0.9450
42274SOL    HW238802   8.987   2.231   0.417  0.6247  0.1307  1.5743
42275SOL     OW38803   1.845   0.606   0.010 -0.0244  0.0414  0.0519
42275SOL    HW138804   1.882   0.694   0.001 -1.0403  0.5993  1.0359
42275SOL    HW238805   1.826   0.577  -0.079 -0.0802  0.9992 -0.2504
42276SOL     OW38806   9.377   6.580   2.730  0.3738  0.5475  0.2483
42276SOL    HW138807   9.405   6.503   2.681  1.4868 -0.4155  2.2705
42276SOL    HW238808   9.388   6.653   2.668 -0.2225 -0.8062 -1.5390
42277SOL     OW38809   8.152   7.548  12.700  0.6087  0.4681 -0.3084
42277SOL    HW138810   8.236   7.564  12.744 -0.0310  0.4068  0.9767
42277SOL    HW238811   8.159   7.458  12.668  1.0599  0.4874 -0.2798
42278SOL     OW38812   8.262  12.937   8.091  0.1044 -0.1652  0.2728
42278SOL    HW138813   8.331  12.988   8.134  0.7505 -0.2775 -0.6000
42278SOL    HW238814   8.189  12.939   8.152  1.0429 -0.4350  1.4406
42279SOL     OW38815   9.757  12.962   7.488 -0.0791 -0.5572 -0.3813
42279SOL    HW138816   9.672  12.989   7.454  0.5224  0.7698 -0.9157
42279SOL    HW238817   9.809  12.942   7.410 -0.2061 -2.4771 -0.0321
42280SOL     OW38818  11.314  12.313   4.435 -0.6410  0.1633  0.0575
42280SOL    HW138819  11.259  12.370   4.488 -1.8663  0.8963 -1.8771
42280SOL    HW238820  11.359  12.373   4.375 -0.3576 -0.7143 -0.6251
42281SOL     OW38821   8.942   4.943  12.417 -0.3615  0.0900  0.5897
42281SOL    HW138822   8.978   4.899  12.494 -1.2020  0.7651  1.3792
42281SOL    HW238823   8.851   4.960  12.438 -1.4856 -2.3941 -1.7287
42282SOL     OW38824   5.564  10.838  11.164 -0.5790 -0.0841 -0.3315
42282SOL    HW138825   5.607  10.860  11.082  1.5027 -1.9878  0.1447
42282SOL    HW238826   5.626  10.782  11.210 -1.0715  1.9684  3.2105
42283SOL     OW38827  12.920   0.536   8.790 -0.5197  0.6102  0.1683
42283SOL    HW138828  12.986   0.496   8.846 -1.4722  0.4364  1.1860
42283SOL    HW238829  12.838   0.528   8.839 -2.0178 -2.2577 -2.4275
42284SOL     OW38830  10.351  12.645   5.997  0.1537 -0.7599 -0.7430
42284SOL    HW138831  10.430  12.675   5.952  0.5124  2.3959  1.6964
42284SOL    HW238832  10.284  12.709   5.975 -1.4254 -2.5563 -1.5396
42285SOL     OW38833   8.046   5.554   8.589  0.0183 -0.4787  0.0303
42285SOL    HW138834   8.029   5.642   8.622  2.1769 -0.0895  0.3046
42285SOL    HW238835   8.071   5.568   8.497  1.8192 -0.5560  0.4570
42286SOL     OW38836   1.602   7.168   5.250 -0.6725 -0.0845 -0.2546
42286SOL    HW138837   1.517   7.210   5.240 -1.2913 -1.5884 -1.6533
42286SOL    HW238838   1.631   7.194   5.338 -0.6249  3.8351 -1.2390
42287SOL     OW38839  13.390   0.539   3.724  0.4585  0.3558  0.3667
42287SOL    HW138840  13.420   0.499   3.805 -0.4092  1.0324  1.0420
42287SOL    HW238841  13.313   0.487   3.699 -0.6616  1.5216  1.2386
42288SOL     OW38842   1.515   8.113   9.809 -0.0240  0.4340  0.6284
42288SOL    HW138843   1.475   8.048   9.866 -0.9502  0.2192 -0.2211
42288SOL    HW238844   1.531   8.189   9.865  1.6941 -0.7265  1.7839
42289SOL     OW38845   3.968   3.244   7.535  0.0355  0.2193  0.4863
42289SOL    HW138846   4.028   3.180   7.573  1.8271  0.8701 -1.0558
42289SOL    HW238847   4.008   3.329   7.554  0.1691  0.6244 -1.4108
42290SOL     OW38848   9.666  13.026   1.388  0.7357 -0.0155  0.2498
42290SOL    HW138849   9.733  13.068   1.335  0.2483  0.7311  0.2228
42290SOL    HW238850   9.661  12.936   1.353 -0.0935  0.6544 -1.4803
42291SOL     OW38851   6.518   3.657  12.996  0.1205  0.2084  0.6170
42291SOL    HW138852   6.482   3.735  13.038  0.1501 -0.1138  1.2547
42291SOL    HW238853   6.565   3.690  12.919 -1.3107  0.6623 -0.1035
42292SOL     OW38854   6.139   1.821  10.051  0.0109  0.1237 -0.1280
42292SOL    HW138855   6.044   1.815  10.041  0.0488 -1.0523  0.0217
42292SOL    HW238856   6.171   1.736  10.020  1.2073  1.2695 -2.2097
42293SOL     OW38857   5.684   4.165   8.645 -0.1737 -0.0920  0.7466
42293SOL    HW138858   5.635   4.164   8.727  0.7341  1.1781  1.3330
42293SOL    HW238859   5.709   4.257   8.633 -0.6826 -0.1625 -1.2045
42294SOL     OW38860   8.421   8.836   4.363 -0.4764 -0.0114 -0.4734
42294SOL    HW138861   8.436   8.909   4.423 -0.1815  0.0316 -0.6016
42294SOL    HW238862   8.508   8.807   4.337 -0.5232 -1.3899  0.7656
42295SOL     OW38863   5.040   5.122  10.664  0.2837 -0.1983  0.4060
42295SOL    HW138864   5.007   5.120  10.574 -0.8797 -1.4863  0.8287
42295SOL    HW238865   4.966   5.093  10.717  1.9392 -2.8204  1.4584
42296SOL     OW38866   1.107   3.706   0.605 -0.0807  0.5247 -0.0745
42296SOL    HW138867   1.092   3.799   0.588 -1.0563  0.2093 -1.0230
42296SOL    HW238868   1.074   3.661   0.527 -1.7009 -0.7726  1.2760
42297SOL     OW38869   9.397  12.286   5.292  0.3173  0.4852 -0.5188
42297SOL    HW138870   9.486  12.318   5.305  0.7506 -0.6191 -0.6616
42297SOL    HW238871   9.405  12.220   5.223 -0.5788  0.2349 -0.4015
42298SOL     OW38872   1.163   9.613   9.738  0.4886 -0.5817 -0.1647
42298SOL    HW138873   1.182   9.706   9.748  1.7805 -0.8143 -0.3054
42298SOL    HW238874   1.144   9.602   9.645  1.3803 -0.6307 -0.3453
42299SOL     OW38875   0.472   0.772  12.056  0.2025 -0.2358 -0.0830
42299SOL    HW138876   0.431   0.739  11.976  0.2657  2.4329 -1.3196
42299SOL    HW238877   0.415   0.740  12.127 -0.1153 -2.2667 -1.1628
42300SOL     OW38878   5.487   3.825   7.046  0.8216 -0.6997 -0.1747
42300SOL    HW138879   5.454   3.877   6.973  1.0480  0.7412  0.7034
42300SOL    HW238880   5.570   3.867   7.069  1.1973 -1.7026  0.3145
42301SOL     OW38881   4.842   4.636   7.200 -0.0568  0.6044  0.1387
42301SOL    HW138882   4.908   4.616   7.133 -1.2827  1.9246 -1.5440
42301SOL    HW238883   4.853   4.730   7.217  0.3709  0.2585  2.0136
42302SOL     OW38884   7.923   1.471  11.927 -0.0748 -0.4385  0.0248
42302SOL    HW138885   7.834   1.439  11.913  0.3422 -1.8346  0.3693
42302SOL    HW238886   7.934   1.540  11.861 -1.1124 -0.8338 -0.5953
42303SOL     OW38887  11.619   4.031  12.523 -0.2333  0.0164 -0.3220
42303SOL    HW138888  11.673   4.097  12.566 -0.2750 -0.0959 -0.0934
42303SOL    HW238889  11.635   4.044  12.429 -1.0763  1.0616 -0.3407
42304SOL     OW38890   1.916   4.979   9.636 -0.0953 -0.0494 -0.1263
42304SOL    HW138891   1.907   4.973   9.541 -1.9270  2.0234 -0.1630
42304SOL    HW238892   1.826   4.972   9.669  0.5896 -1.8271  1.5996
42305SOL     OW38893   5.181  11.022   4.439 -0.1128 -0.2607  0.0454
42305SOL    HW138894   5.206  11.073   4.361 -1.3302  0.0086 -0.1889
42305SOL    HW238895   5.166  10.933   4.405 -0.2079 -0.2457  0.0462
42306SOL     OW38896   5.854   7.058  10.690  0.4678  0.3133 -0.4325
42306SOL    HW138897   5.880   6.967  10.704  1.6837  0.6257 -0.6169
42306SOL    HW238898   5.763   7.052  10.661  0.5522 -0.8476 -0.5048
42307SOL     OW38899   7.249   9.685   9.405 -0.2936  0.1827 -0.0592
42307SOL    HW138900   7.343   9.688   9.389 -0.4762  1.7906 -1.0264
42307SOL    HW238901   7.240   9.714   9.496  0.1120  0.2898 -0.0495
42308SOL     OW38902   5.250   1.083   1.377 -0.4417  0.1170 -0.0201
42308SOL    HW138903   5.344   1.091   1.392  0.0241  0.0210 -2.4261
42308SOL    HW238904   5.224   1.008   1.432  1.1179 -0.5675 -0.1438
42309SOL     OW38905   7.518   4.840   2.460 -0.3328  0.1715 -0.1957
42309SOL    HW138906   7.462   4.790   2.401 -1.0136  1.9874 -1.1655
42309SOL    HW238907   7.462   4.912   2.490  0.2792 -0.1878  1.9830
42310SOL     OW38908   8.935   2.069   5.760 -0.5066 -0.8748  0.9244
42310SOL    HW138909   8.844   2.050   5.779 -0.7716 -0.8682 -0.2568
42310SOL    HW238910   8.943   2.056   5.666  0.1974  1.1826  0.6528
42311SOL     OW38911  13.017   3.211  13.175  0.3225  0.4099  0.4772
42311SOL    HW138912  13.027   3.116  13.162  0.6299  0.1416  2.4440
42311SOL    HW238913  12.925   3.222  13.201  0.2641  0.6695  0.1656
42312SOL     OW38914   6.530   2.950   1.906 -0.8039  0.2276  0.1606
42312SOL    HW138915   6.491   3.037   1.916 -1.0116  0.0406  1.1199
42312SOL    HW238916   6.471   2.903   1.847 -0.6796  0.7455 -0.3760
42313SOL     OW38917   4.913  12.437   0.790  0.1839 -0.4727 -0.2773
42313SOL    HW138918   4.912  12.482   0.875  0.6123 -0.8776 -0.0540
42313SOL    HW238919   4.958  12.355   0.807 -0.9164 -1.1701 -0.5833
42314SOL     OW38920   2.329   7.042   1.276 -0.1272 -0.2949 -0.1009
42314SOL    HW138921   2.301   6.952   1.295 -1.3153  0.1677  0.4792
42314SOL    HW238922   2.247   7.092   1.272  0.4869  0.7047 -0.7823
42315SOL     OW38923   0.520   7.081  10.866  0.5186  0.5370  0.4801
42315SOL    HW138924   0.574   7.145  10.819  0.6909  1.0801  1.3876
42315SOL    HW238925   0.577   7.005  10.877  0.6290  0.5797  0.2118
42316SOL     OW38926   4.518   0.586  14.031  0.0823 -0.4420 -0.5349
42316SOL    HW138927   4.605   0.618  14.053 -0.0444  0.3328 -1.1261
42316SOL    HW238928   4.517   0.496  14.063  0.2932  0.2515  1.6186
42317SOL     OW38929   0.476   2.339   1.847 -0.3030 -0.0265  0.1702
42317SOL    HW138930   0.401   2.397   1.853 -0.2301  0.2361 -1.1138
42317SOL    HW238931   0.517   2.343   1.934 -1.1564  0.6433  0.5570
42318SOL     OW38932   3.525   3.180   7.619  0.5370 -0.0748  0.0125
42318SOL    HW138933   3.505   3.146   7.532 -1.1532  0.2351  0.2518
42318SOL    HW238934   3.579   3.112   7.659 -0.2757 -1.1068 -0.5878
42319SOL     OW38935  11.541   3.608   2.635  0.4025  0.3369 -0.3425
42319SOL    HW138936  11.448   3.595   2.651  0.5841  1.1565  1.7834
42319SOL    HW238937  11.584   3.539   2.686  0.9780  0.1412 -1.0702
42320SOL     OW38938   0.704   1.925   9.663  0.1670  0.0848  1.0504
42320SOL    HW138939   0.734   1.860   9.726  1.1204  0.8536  1.3996
42320SOL    HW238940   0.783   1.951   9.615  0.0364  1.8623  1.7331
42321SOL     OW38941   0.657   8.396   9.215 -0.1224 -0.3103  0.4427
42321SOL    HW138942   0.709   8.476   9.219  1.6432 -1.4267  1.0012
42321SOL    HW238943   0.633   8.387   9.123 -0.1816  0.7584  0.3456
42322SOL     OW38944  11.403   0.691   9.234 -0.2082 -0.2897 -0.1215
42322SOL    HW138945  11.366   0.773   9.266 -1.3131  0.0903 -2.1658
42322SOL    HW238946  11.351   0.622   9.276  1.4461 -0.0866  2.4848
42323SOL     OW38947   9.742  12.408   0.551  0.3837 -0.0640 -0.2243
42323SOL    HW138948   9.717  12.477   0.489  1.4001 -0.6067 -1.2730
42323SOL    HW238949   9.763  12.456   0.632  0.5224  0.8119 -0.7584
42324SOL     OW38950   5.119   8.470   0.999  0.0706 -0.2943  0.0804
42324SOL    HW138951   5.199   8.419   0.981  0.0439 -0.0951 -0.6332
42324SOL    HW238952   5.054   8.433   0.940  0.5662  1.8624 -1.9598
42325SOL     OW38953  12.184  10.006   0.819 -0.0935 -0.1042 -0.1190
42325SOL    HW138954  12.187  10.041   0.730 -0.9182  0.1590 -0.0577
42325SOL    HW238955  12.229  10.072   0.872  0.0516 -0.0682 -0.2878
42326SOL     OW38956   7.216   5.179   6.153  0.3324  0.1188  0.0612
42326SOL    HW138957   7.233   5.150   6.063 -0.3628 -1.2828  0.3538
42326SOL    HW238958   7.286   5.241   6.172  0.0497  1.0482 -1.7119
42327SOL     OW38959   9.662   5.257   3.947 -0.0482 -0.1506 -0.0271
42327SOL    HW138960   9.619   5.306   4.017  1.6531  2.2450 -0.5301
42327SOL    HW238961   9.740   5.220   3.988 -0.7162 -1.5346  0.0601
42328SOL     OW38962   6.591  11.932   1.190 -0.1405 -0.0945  0.8659
42328SOL    HW138963   6.526  11.865   1.170  1.2913 -1.5137  0.6806
42328SOL    HW238964   6.615  11.916   1.281  0.2344  0.1354  0.8111
42329SOL     OW38965   8.080   9.469   4.611 -0.1173  0.2139 -0.8985
42329SOL    HW138966   8.009   9.533   4.600  1.5616  2.4511  0.4664
42329SOL    HW238967   8.093   9.464   4.706  0.7932 -1.0101 -1.0706
42330SOL     OW38968   5.198   6.000   0.831 -0.3305  0.0063 -0.5751
42330SOL    HW138969   5.239   6.086   0.817  2.8469 -1.3551 -0.3879
42330SOL    HW238970   5.163   5.976   0.745 -0.0834  0.9075 -0.9407
42331SOL     OW38971  13.008   4.040   8.591 -0.6791 -0.1106  0.4304
42331SOL    HW138972  13.026   4.098   8.517  0.2262 -1.1062 -0.1600
42331SOL    HW238973  12.920   4.064   8.619 -0.4954  1.2356 -0.0751
42332SOL     OW38974  13.619  13.332   2.221 -0.0691  0.0735 -0.1903
42332SOL    HW138975  13.589  13.366   2.137 -0.8986 -0.5787 -0.1727
42332SOL    HW238976  13.626  13.237   2.208  1.3017  0.1242  0.0284
42333SOL     OW38977   7.973   8.997   2.425  0.6357  0.2252 -0.2422
42333SOL    HW138978   7.995   9.089   2.418 -0.5603  0.4532 -1.5061
42333SOL    HW238979   8.003   8.971   2.512 -0.9395  2.3681  1.0256
42334SOL     OW38980   0.662  12.504   3.858  0.1242 -0.0951 -0.1993
42334SOL    HW138981   0.641  12.410   3.858 -1.4323  0.2293 -0.7511
42334SOL    HW238982   0.619  12.538   3.936 -0.9051  0.4672 -0.9846
42335SOL     OW38983   9.816   0.715   8.419  0.5274 -0.6990 -0.4028
42335SOL    HW138984   9.908   0.694   8.407  1.4506  2.4972  0.2032
42335SOL    HW238985   9.793   0.679   8.505  0.7312 -2.6969 -1.1213
42336SOL     OW38986  13.999   0.838   2.792  0.0580  0.0453  0.4752
42336SOL    HW138987  14.014   0.895   2.717  1.0824 -0.7072  0.0762
42336SOL    HW238988  14.025   0.890   2.868  2.7299 -0.4158 -0.0143
42337SOL     OW38989  11.304   7.601   0.845  0.4874 -0.4014 -0.0543
42337SOL    HW138990  11.237   7.581   0.780  0.5037  0.0831 -0.2225
42337SOL    HW238991  11.260   7.590   0.929  0.1086  0.2304 -0.1679
42338SOL     OW38992   2.859   8.077   6.100 -0.3599 -0.7508 -1.0208
42338SOL    HW138993   2.829   8.161   6.067 -0.0709  0.6254  1.8750
42338SOL    HW238994   2.778   8.029   6.119 -0.6317  0.1065  0.0968
42339SOL     OW38995   2.301   9.172   0.589 -0.0674  0.8741  0.5117
42339SOL    HW138996   2.265   9.167   0.500  2.2470  2.6191 -0.6437
42339SOL    HW238997   2.232   9.213   0.640 -1.5996 -0.5038 -0.3490
42340SOL     OW38998   0.725   5.034   5.474  0.3602  0.0994  0.1919
42340SOL    HW138999   0.725   4.953   5.424  1.3709  1.7081 -2.6803
42340SOL    HW239000   0.807   5.033   5.522  0.0028 -0.8958  0.7937
42341SOL     OW39001  13.668   1.692  10.390 -0.5081  0.3761 -0.6660
42341SOL    HW139002  13.732   1.668  10.457 -1.5906 -0.4798  0.0985
42341SOL    HW239003  13.719   1.734  10.322  0.5630  1.9694  1.0196
42342SOL     OW39004   1.470   3.368  11.827 -0.2493 -0.3579 -0.3698
42342SOL    HW139005   1.414   3.314  11.883  0.2749 -0.9615 -0.4219
42342SOL    HW239006   1.464   3.326  11.741  0.7688 -0.7970 -0.2385
42343SOL     OW39007  11.571   3.936   4.823  0.5594 -0.3150  0.3420
42343SOL    HW139008  11.539   3.912   4.910  1.4842 -1.3798  0.4045
42343SOL    HW239009  11.654   3.891   4.815  1.3738  1.2403 -0.3849
42344SOL     OW39010  12.570   9.055   6.202 -0.1307 -0.1122 -0.3969
42344SOL    HW139011  12.585   9.090   6.290 -0.5663 -2.5780  0.7625
42344SOL    HW239012  12.566   9.132   6.145  0.3431  1.5524  1.6995
42345SOL     OW39013   2.743   4.527   5.801 -0.2740 -0.0079 -0.9740
42345SOL    HW139014   2.804   4.559   5.734  1.2439 -1.5231 -0.4050
42345SOL    HW239015   2.780   4.560   5.883 -1.6067  1.0575 -0.7630
42346SOL     OW39016   8.511  12.681   8.015 -0.4616 -0.2071  0.0645
42346SOL    HW139017   8.500  12.761   7.964  0.6076  0.1747  0.4112
42346SOL    HW239018   8.509  12.711   8.106 -1.4857 -0.7705  0.2404
42347SOL     OW39019   3.557   4.841  11.564  0.4007 -0.7781 -0.3731
42347SOL    HW139020   3.552   4.769  11.502  0.5679 -0.5069 -0.7070
42347SOL    HW239021   3.650   4.850  11.583  0.4453 -0.2706 -0.7933
42348SOL     OW39022   8.465   1.268   3.377  0.0157 -0.1602 -0.3860
42348SOL    HW139023   8.522   1.320   3.434  0.9541 -1.7398  0.1989
42348SOL    HW239024   8.389   1.323   3.362  1.0130  1.4282  0.0717
42349SOL     OW39025  10.389   5.072   2.168 -0.1712  0.3513  0.4119
42349SOL    HW139026  10.485   5.072   2.167 -0.1357 -0.6730  1.5384
42349SOL    HW239027  10.365   5.123   2.245 -0.4908 -0.4455  0.8520
42350SOL     OW39028   3.299   1.986   0.349 -0.4331  0.0623  0.7218
42350SOL    HW139029   3.345   2.067   0.326 -0.7333  0.6040  1.9655
42350SOL    HW239030   3.329   1.922   0.284  1.4503  0.6120  0.9942
42351SOL     OW39031   6.458   2.591  13.097  0.0738  0.3101 -0.1515
42351SOL    HW139032   6.380   2.600  13.043  1.0010 -2.2719 -2.0922
42351SOL    HW239033   6.527   2.635  13.047  0.3326  0.5467  0.4100
42352SOL     OW39034   8.502   6.550   3.256  0.0579 -0.4348  0.2723
42352SOL    HW139035   8.528   6.542   3.348  2.3277 -1.2289 -0.3689
42352SOL    HW239036   8.470   6.464   3.232 -1.6756  0.0869  0.5899
42353SOL     OW39037   1.338   5.038   4.437  0.1412 -0.2486  0.4797
42353SOL    HW139038   1.286   5.066   4.512  0.6936 -1.1760  1.2467
42353SOL    HW239039   1.368   4.950   4.461 -1.3088 -1.4150 -1.6801
42354SOL     OW39040   8.638   4.088   8.275 -0.3208 -0.1106 -0.2311
42354SOL    HW139041   8.665   4.097   8.366  2.3013  0.1401 -0.9348
42354SOL    HW239042   8.689   4.013   8.243 -1.3059 -0.2860 -1.4537
42355SOL     OW39043  13.800   7.769   7.281  0.0343  0.4311  0.2731
42355SOL    HW139044  13.817   7.816   7.200 -0.9361  0.2255 -0.0516
42355SOL    HW239045  13.786   7.678   7.254 -2.1488  0.6755  0.4422
42356SOL     OW39046   8.802   0.868   2.478  0.5531 -0.6303  0.2147
42356SOL    HW139047   8.835   0.792   2.428 -0.1315  0.6117 -2.2873
42356SOL    HW239048   8.881   0.907   2.516  1.3527 -0.7887 -1.1825
42357SOL     OW39049  11.849  12.913  11.844  0.1546 -0.3095 -0.0229
42357SOL    HW139050  11.819  12.832  11.885  0.4977  0.8001  2.5855
42357SOL    HW239051  11.944  12.903  11.839  0.1178 -0.4291 -0.5824
42358SOL     OW39052   5.550   1.959   4.657  0.0164 -0.3644  0.6705
42358SOL    HW139053   5.630   1.998   4.623  0.9936 -1.9945  1.0086
42358SOL    HW239054   5.554   1.976   4.752  1.3988 -2.7537  1.1273
42359SOL     OW39055  10.819   2.225   6.899  0.3740  0.1236 -0.0282
42359SOL    HW139056  10.915   2.224   6.897  0.3526 -0.3066 -1.6378
42359SOL    HW239057  10.795   2.135   6.925  0.3953 -0.0921 -0.7486
42360SOL     OW39058   6.797   3.725   8.948  0.0644 -0.2568  0.3918
42360SOL    HW139059   6.892   3.709   8.951  0.3070  0.8381 -0.5914
42360SOL    HW239060   6.766   3.668   8.877 -0.7407 -3.6061  3.1282
42361SOL     OW39061   0.611   3.772   3.490  0.7723 -0.7373  0.4945
42361SOL    HW139062   0.590   3.857   3.529  1.0019 -0.1039 -0.7036
42361SOL    HW239063   0.695   3.748   3.529  0.2888 -0.8702  1.5113
42362SOL     OW39064   8.073   5.887   7.706 -0.6462 -0.4995 -0.1400
42362SOL    HW139065   8.007   5.817   7.701  0.4661 -1.7758  1.8550
42362SOL    HW239066   8.127   5.864   7.782  0.4493  1.9677 -0.0863
42363SOL     OW39067   4.095   5.099  10.811  0.2703  0.2061 -0.1928
42363SOL    HW139068   4.097   5.169  10.876 -1.3350  0.2340 -0.1335
42363SOL    HW239069   4.047   5.136  10.737 -1.7195 -1.1686  0.3210
42364SOL     OW39070   2.378   3.242   5.950  0.2221 -0.1996  0.4650
42364SOL    HW139071   2.297   3.260   5.901 -1.1850 -3.4012  1.3813
42364SOL    HW239072   2.400   3.152   5.928  1.8433 -0.3959  2.6051
42365SOL     OW39073   3.183   0.020   0.581 -0.7820 -0.0557 -0.1226
42365SOL    HW139074   3.263   0.034   0.632  0.4860 -0.4854 -1.8730
42365SOL    HW239075   3.213  -0.024   0.501 -2.9047 -1.0583 -0.4468
42366SOL     OW39076  11.078   9.942   8.512  0.2027 -0.5505 -0.3994
42366SOL    HW139077  11.104   9.921   8.422 -0.2880 -0.0941 -0.6531
42366SOL    HW239078  11.159   9.932   8.563  0.5591 -0.4968 -0.9444
42367SOL     OW39079  10.272   2.487   0.781  0.0088  0.2776  0.4004
42367SOL    HW139080  10.350   2.446   0.744  1.0239  2.3145  0.1422
42367SOL    HW239081  10.265   2.570   0.735 -1.9239  0.4518  0.9432
42368SOL     OW39082   5.439   0.653  11.896 -0.1889  0.2412 -0.5219
42368SOL    HW139083   5.528   0.683  11.914 -0.4588 -0.3164  2.2202
42368SOL    HW239084   5.405   0.714  11.830  2.2263  0.3620 -1.7419
42369SOL     OW39085   7.891   5.514   4.832 -0.0156  0.6216  0.0286
42369SOL    HW139086   7.905   5.601   4.871 -0.4966  0.6826  0.0807
42369SOL    HW239087   7.883   5.455   4.907 -1.2295  0.7841  0.0503
42370SOL     OW39088   9.445  12.652   3.664  0.0778 -0.2883 -0.0255
42370SOL    HW139089   9.492  12.676   3.744  0.2754  2.8925 -0.9547
42370SOL    HW239090   9.507  12.670   3.594 -1.2207  0.2433 -1.0799
42371SOL     OW39091  10.776  10.035  12.060 -0.2355  0.4557 -0.1222
42371SOL    HW139092  10.753  10.117  12.105 -0.1268 -1.2216  3.3156
42371SOL    HW239093  10.719  10.033  11.984 -0.5719  3.4852 -0.0986
42372SOL     OW39094   9.367   9.338   5.015 -0.0802 -0.4020  0.7367
42372SOL    HW139095   9.368   9.279   4.939 -1.5490  1.1843 -0.5943
42372SOL    HW239096   9.305   9.297   5.075 -0.3279 -0.7503  0.2589
42373SOL     OW39097   5.758  13.213   6.354  0.2159 -0.7368 -0.2423
42373SOL    HW139098   5.758  13.128   6.397 -0.5069 -0.3845  0.4777
42373SOL    HW239099   5.747  13.193   6.261  0.1970 -1.4385 -0.0910
42374SOL     OW39100   8.359   0.400   8.719 -0.1996 -0.0484 -0.5326
42374SOL    HW139101   8.333   0.336   8.784  1.9951  0.8764  1.4039
42374SOL    HW239102   8.341   0.485   8.759  0.9909  0.5500 -1.2014
42375SOL     OW39103  11.746   8.548  11.425  0.0649  0.0046 -0.0160
42375SOL    HW139104  11.781   8.460  11.413  2.8401  1.0428 -0.1929
42375SOL    HW239105  11.730   8.555  11.519  2.1049  0.0432  0.3670
42376SOL     OW39106   1.200   0.850   4.444 -0.2329  0.2555  0.2619
42376SOL    HW139107   1.170   0.833   4.533  0.0092 -0.2853  0.2421
42376SOL    HW239108   1.132   0.906   4.406 -0.4519  0.2973  0.7097
42377SOL     OW39109   4.592  10.776  11.858 -0.6285 -0.1090 -0.4595
42377SOL    HW139110   4.630  10.773  11.946 -0.2332 -2.0215 -0.6500
42377SOL    HW239111   4.664  10.804  11.802 -0.8453  0.9851 -0.2108
42378SOL     OW39112   1.686   1.989  13.482  0.0057  0.0257 -0.3779
42378SOL    HW139113   1.746   2.042  13.430  1.1765 -0.0476  0.8571
42378SOL    HW239114   1.634   2.053  13.531  2.7370  0.1867  2.6171
42379SOL     OW39115  11.904   3.063   9.343 -0.5927  0.1091 -0.7300
42379SOL    HW139116  11.819   3.044   9.303 -1.7208  1.2956  1.0087
42379SOL    HW239117  11.959   3.091   9.269 -0.9116 -2.9378 -2.2764
42380SOL     OW39118   5.858   8.970   1.091 -0.2881  0.3615  0.2902
42380SOL    HW139119   5.848   8.954   1.185 -0.7251 -0.9004  0.0448
42380SOL    HW239120   5.778   8.936   1.052 -0.6506  1.9838 -0.4414
42381SOL     OW39121   9.906   9.962  10.606  0.4920  0.2618  0.1143
42381SOL    HW139122   9.979   9.985  10.548  0.1984  0.7088 -0.0817
42381SOL    HW239123   9.862  10.045  10.624 -1.0698 -0.2183 -1.2368
42382SOL     OW39124  11.776   4.251   1.330  0.4548 -0.0580 -0.0014
42382SOL    HW139125  11.788   4.334   1.376  0.7833 -1.1919  2.0826
42382SOL    HW239126  11.687   4.256   1.293  0.2441  0.9574  0.6250
42383SOL     OW39127   2.785   0.515   5.125  0.3906  0.2991  0.1462
42383SOL    HW139128   2.743   0.473   5.199 -0.8628  2.0896  0.5136
42383SOL    HW239129   2.715   0.563   5.081  1.4990  0.9260 -1.0096
42384SOL     OW39130   6.644   6.391   1.350  0.2775 -0.0762  0.5022
42384SOL    HW139131   6.598   6.341   1.283  0.5149 -2.1622  1.7913
42384SOL    HW239132   6.718   6.335   1.375  1.3133  1.5092  1.1323
42385SOL     OW39133   1.464   8.331   1.517 -0.3731 -0.3435  0.2800
42385SOL    HW139134   1.369   8.319   1.519 -0.3823 -0.2008  1.0037
42385SOL    HW239135   1.491   8.296   1.432 -0.8428 -2.0585  0.7976
42386SOL     OW39136   9.157   7.995  10.720  0.5301 -0.6294  0.2080
42386SOL    HW139137   9.245   8.003  10.683  0.5652 -1.8781 -0.0228
42386SOL    HW239138   9.161   7.917  10.775 -0.8121 -1.5602 -0.9565
42387SOL     OW39139   5.531   3.003   7.056  0.1454  0.0481 -0.2015
42387SOL    HW139140   5.462   3.063   7.082 -1.9294 -1.3739 -2.0423
42387SOL    HW239141   5.506   2.919   7.096  1.5621 -0.2364  0.1727
42388SOL     OW39142  12.844   7.844   0.284  0.2693  0.2129  0.2737
42388SOL    HW139143  12.915   7.893   0.243 -0.0941  0.4964 -0.0345
42388SOL    HW239144  12.840   7.878   0.373 -0.6972  1.5887 -0.2433
42389SOL     OW39145   0.749  13.912   6.014  0.0497  0.2968  0.1176
42389SOL    HW139146   0.720  13.867   5.935 -1.1736  1.1022  0.0779
42389SOL    HW239147   0.816  13.974   5.983  0.9110 -0.6522  0.0132
42390SOL     OW39148   2.182   5.839   1.658 -0.4483 -0.2897  0.1964
42390SOL    HW139149   2.265   5.792   1.648 -0.1284  0.2932  0.0559
42390SOL    HW239150   2.179   5.898   1.582 -0.4954  0.4367  0.7575
42391SOL     OW39151   8.756   7.161   0.101 -0.1958 -0.0955 -0.0675
42391SOL    HW139152   8.806   7.242   0.101 -0.8102  0.3166 -1.2287
42391SOL    HW239153   8.812   7.098   0.055  0.4403 -0.4543  1.1679
42392SOL     OW39154   1.423  11.774  12.444  0.0798 -0.3826 -0.5476
42392SOL    HW139155   1.473  11.812  12.516 -0.2815  0.5239 -0.7497
42392SOL    HW239156   1.486  11.723  12.393  0.7763  0.6325 -0.7254
42393SOL     OW39157   5.312   1.594  13.503 -0.0432  0.3385 -0.4594
42393SOL    HW139158   5.234   1.639  13.468 -0.0400  0.9036  0.2431
42393SOL    HW239159   5.278   1.537  13.571  0.1865  0.8054  0.0509
42394SOL     OW39160   6.766   0.132  10.344 -0.1466 -0.1612  0.4558
42394SOL    HW139161   6.688   0.096  10.300  0.1387 -0.2546  0.0186
42394SOL    HW239162   6.748   0.120  10.437 -0.1593 -1.2408  0.3276
42395SOL     OW39163  13.125   3.772   6.035 -0.2922  0.4429 -0.0787
42395SOL    HW139164  13.054   3.711   6.056  0.4210 -0.4711 -0.2247
42395SOL    HW239165  13.179   3.724   5.973  1.1997  0.5864  1.0641
42396SOL     OW39166  11.059   7.648   7.551 -0.1548  0.0153 -0.3339
42396SOL    HW139167  11.131   7.588   7.571  0.9845  0.8698 -1.6616
42396SOL    HW239168  11.019   7.667   7.636 -1.0990 -3.2152  0.0620
42397SOL     OW39169  12.984   8.263   4.991  0.3479 -0.1009 -0.8487
42397SOL    HW139170  12.935   8.327   4.940  0.2098 -0.5570 -1.2918
42397SOL    HW239171  13.009   8.310   5.071  1.3008  0.8768 -1.7045
42398SOL     OW39172   7.100   0.263   3.150 -0.1280  0.3050 -0.3904
42398SOL    HW139173   7.080   0.212   3.072  0.5614  0.2065 -0.5060
42398SOL    HW239174   7.170   0.323   3.123  0.2614  0.1269  0.2003
42399SOL     OW39175  11.996  13.795  12.206  0.0069  0.0556  0.6377
42399SOL    HW139176  12.016  13.802  12.299 -0.6660 -1.7785  0.9711
42399SOL    HW239177  12.077  13.762  12.167  0.9984  2.7921  0.1539
42400SOL     OW39178  11.906   4.776   2.094 -0.1688  0.8425  0.0599
42400SOL    HW139179  11.904   4.800   2.001  0.6318  0.2490 -0.1229
42400SOL    HW239180  11.880   4.683   2.096  0.5291  0.6451  0.3432
42401SOL     OW39181   6.479   9.163   7.749  0.1247  0.1797 -0.2215
42401SOL    HW139182   6.465   9.076   7.712  3.4286 -0.4235 -0.3460
42401SOL    HW239183   6.510   9.216   7.676 -2.8438  1.9092 -0.4019
42402SOL     OW39184  12.982   7.532   1.441  0.3442 -0.1059  0.5923
42402SOL    HW139185  13.031   7.592   1.385 -0.9210 -0.4290 -0.9584
42402SOL    HW239186  12.895   7.527   1.400 -0.1500 -1.5617  1.7246
42403SOL     OW39187   6.100   4.277   9.580 -0.3771 -0.3838 -0.2211
42403SOL    HW139188   6.171   4.215   9.595  0.7339  0.6163 -1.1992
42403SOL    HW239189   6.124   4.323   9.500 -1.6223  0.6875 -0.0158
42404SOL     OW39190   4.943  11.801   6.169  0.3351 -0.6141 -0.1898
42404SOL    HW139191   4.850  11.782   6.178 -0.5144  2.3944 -1.1418
42404SOL    HW239192   4.966  11.769   6.082 -0.2123 -0.1736 -0.5063
42405SOL     OW39193   2.875   7.647   1.286 -0.6360  0.4417 -0.2030
42405SOL    HW139194   2.891   7.577   1.223 -1.2211  0.7131 -0.6582
42405SOL    HW239195   2.868   7.602   1.370 -0.3049  0.0293 -0.3952
42406SOL     OW39196   0.977   1.498   9.734  0.3393  0.1504 -0.4506
42406SOL    HW139197   0.900   1.515   9.679  2.5832  3.0123 -3.0474
42406SOL    HW239198   0.986   1.576   9.787  0.2716 -1.1204  1.5295
42407SOL     OW39199   9.819   4.883  13.890 -0.2251 -0.0365 -0.4103
42407SOL    HW139200   9.845   4.974  13.871 -0.2847 -0.1620 -1.1522
42407SOL    HW239201   9.834   4.837  13.807  0.8019 -0.9396  0.2582
42408SOL     OW39202   4.628   0.410  12.251 -0.0624 -0.1994  0.1473
42408SOL    HW139203   4.668   0.395  12.337 -0.0142 -3.1626 -0.2758
42408SOL    HW239204   4.571   0.334  12.238 -1.0384  0.8236 -1.9134
42409SOL     OW39205   4.676   8.915  11.722  0.0597  0.1098  0.9842
42409SOL    HW139206   4.747   8.961  11.765  1.4188 -0.8790 -0.1276
42409SOL    HW239207   4.633   8.866  11.792  0.7772  0.3309  1.5853
42410SOL     OW39208   8.247   6.623   3.543  0.2336  0.4115 -0.0435
42410SOL    HW139209   8.261   6.536   3.579  0.5134  0.4770  0.0097
42410SOL    HW239210   8.176   6.612   3.480 -0.6118  0.3856  0.8893
42411SOL     OW39211  11.771   1.220   6.491  0.0246  0.3030 -0.7056
42411SOL    HW139212  11.865   1.208   6.505 -0.4430 -2.4593  0.6706
42411SOL    HW239213  11.751   1.302   6.534  1.5426  0.1116  0.4574
42412SOL     OW39214   2.435   7.425  12.829  0.2388  0.1082  0.3027
42412SOL    HW139215   2.418   7.360  12.897  0.1668  0.4955  0.6561
42412SOL    HW239216   2.525   7.409  12.803  0.3985  0.2325  0.7832
42413SOL     OW39217   7.267   2.477  13.873  0.3581 -0.0087 -0.3119
42413SOL    HW139218   7.174   2.496  13.873  0.2350 -0.5910 -0.6938
42413SOL    HW239219   7.272   2.384  13.895  0.8302 -0.0759 -0.7011
42414SOL     OW39220   9.883   0.001  10.461  0.0108 -0.3811 -0.2208
42414SOL    HW139221   9.788  -0.000  10.471  0.0797 -0.2978  0.5650
42414SOL    HW239222   9.899   0.059  10.386 -0.5080  0.6656  0.4449
42415SOL     OW39223  11.066  10.790   9.201 -0.2085  0.4310 -0.3361
42415SOL    HW139224  11.105  10.716   9.155 -1.4431 -1.0861  0.9487
42415SOL    HW239225  10.975  10.789   9.174 -1.2261 -1.1019  2.6748
42416SOL     OW39226   9.937  11.484  11.772 -0.1305 -0.2562  0.1825
42416SOL    HW139227   9.957  11.391  11.770 -3.5327 -1.1589 -2.7222
42416SOL    HW239228  10.009  11.526  11.725 -1.0882 -2.2832 -3.4719
42417SOL     OW39229   1.702   1.368   7.348  0.2146  0.7226  0.7107
42417SOL    HW139230   1.752   1.344   7.426 -0.0434  0.0908  0.6873
42417SOL    HW239231   1.750   1.442   7.310  2.1668 -0.9766 -0.3168
42418SOL     OW39232  13.339   5.741  13.199  0.0289  0.6176 -0.0203
42418SOL    HW139233  13.391   5.818  13.223  0.1671  0.7675 -0.7808
42418SOL    HW239234  13.261   5.776  13.156  0.2638  0.3328 -0.6999
42419SOL     OW39235   5.868   8.926  13.140  0.6119  0.0797  0.1284
42419SOL    HW139236   5.851   8.833  13.131  0.8724  0.1279 -0.9622
42419SOL    HW239237   5.782   8.967  13.136  0.5760 -0.0445 -0.4403
42420SOL     OW39238   8.140  13.493   1.599  0.3651  0.2383  0.1679
42420SOL    HW139239   8.195  13.549   1.544 -1.2490  0.0049 -1.8443
42420SOL    HW239240   8.200  13.429   1.636  1.6682  0.9475 -0.6398
42421SOL     OW39241   4.775   4.010   7.241  0.0307 -0.5156 -0.3053
42421SOL    HW139242   4.847   4.073   7.243 -0.0339 -0.4556  0.5670
42421SOL    HW239243   4.816   3.925   7.254 -0.0243 -0.5076 -0.0738
42422SOL     OW39244   2.052   7.857   7.941  0.0897  0.1966  0.0883
42422SOL    HW139245   2.087   7.826   8.025  1.8874  1.5687 -0.1236
42422SOL    HW239246   1.971   7.904   7.965  0.2995  0.1115  0.9895
42423SOL     OW39247  13.427   5.625   8.684  0.0619 -0.2163 -0.2385
42423SOL    HW139248  13.424   5.665   8.597  3.7594  0.8020 -0.0769
42423SOL    HW239249  13.391   5.692   8.742 -0.3316  0.0118 -0.7349
42424SOL     OW39250   9.845   1.809   2.770  0.1333  0.0333 -0.4042
42424SOL    HW139251   9.895   1.732   2.744 -0.7623 -0.5612 -0.4266
42424SOL    HW239252   9.866   1.821   2.862  1.3194  0.5882 -0.7302
42425SOL     OW39253   0.842   1.176   6.802 -0.1345  0.4932  0.6308
42425SOL    HW139254   0.772   1.189   6.738  0.8486 -0.5566 -0.7064
42425SOL    HW239255   0.800   1.193   6.887 -2.0891 -0.4240 -0.0809
42426SOL     OW39256   2.640   5.452   8.850 -0.4021  0.5321  0.2817
42426SOL    HW139257   2.655   5.412   8.765 -0.9339 -0.8852  0.8303
42426SOL    HW239258   2.555   5.496   8.841  0.4262  2.0615 -0.4811
42427SOL     OW39259   2.145   5.990  12.479 -0.0677 -0.7498  0.3008
42427SOL    HW139260   2.233   5.955  12.492  0.2153 -0.5476 -0.9085
42427SOL    HW239261   2.087   5.914  12.484  0.2711 -1.0082  0.2922
42428SOL     OW39262   6.458   6.875   0.995  0.4159  0.0452 -0.1805
42428SOL    HW139263   6.447   6.898   0.903  2.8507 -3.5715 -1.5915
42428SOL    HW239264   6.375   6.836   1.021 -0.4550  1.5269 -0.6358
42429SOL     OW39265   6.428  13.545   7.264  0.0819 -0.2991 -0.2056
42429SOL    HW139266   6.365  13.486   7.223  1.2259 -0.7968 -1.3330
42429SOL    HW239267   6.389  13.632   7.255 -1.7435 -0.8527  1.6960
42430SOL     OW39268   9.792   6.938  11.728  0.0268 -0.1410 -0.4423
42430SOL    HW139269   9.836   6.988  11.797 -2.1103  0.7673  0.3500
42430SOL    HW239270   9.862   6.917  11.666  1.3166  2.5304 -0.0510
42431SOL     OW39271   8.646  11.200   7.769  0.2009 -0.1780  0.2401
42431SOL    HW139272   8.677  11.111   7.755 -0.6803 -0.7454  1.6413
42431SOL    HW239273   8.725  11.254   7.765  0.7175 -0.9842 -0.8513
42432SOL     OW39274   8.814   7.983   5.956 -0.0034  0.3002 -0.3005
42432SOL    HW139275   8.782   8.073   5.968  0.7585  0.7373 -1.3780
42432SOL    HW239276   8.889   7.992   5.897  1.3285 -0.8134  1.1109
42433SOL     OW39277   8.757   6.078   8.569 -0.1899  0.1067  0.0296
42433SOL    HW139278   8.835   6.025   8.583 -0.6990 -0.4267  0.9105
42433SOL    HW239279   8.786   6.168   8.582 -0.0143 -0.1805  1.7352
42434SOL     OW39280   5.555  10.189  12.428 -0.4741  0.0004 -0.2234
42434SOL    HW139281   5.481  10.249  12.417 -0.3078  0.3591  0.5108
42434SOL    HW239282   5.521  10.120  12.485 -0.9369 -1.1120 -1.8013
42435SOL     OW39283   3.882   3.750  11.334  0.2706  0.2970  0.0715
42435SOL    HW139284   3.945   3.678  11.340 -1.2658 -1.1776 -1.0455
42435SOL    HW239285   3.936   3.825  11.308  1.8946 -0.4022  1.1778
42436SOL     OW39286   7.420   8.698  11.253  0.3205 -0.0647  0.2432
42436SOL    HW139287   7.386   8.615  11.218  0.0417  0.1515 -0.0016
42436SOL    HW239288   7.506   8.675  11.289 -0.8204 -1.0690  2.6357
42437SOL     OW39289   4.901   1.825   6.913 -0.1278 -0.3993 -0.1236
42437SOL    HW139290   4.939   1.859   6.832 -2.4634  1.0999 -0.7021
42437SOL    HW239291   4.817   1.787   6.885 -0.6423 -0.5113  1.4933
42438SOL     OW39292   4.588   2.356   7.487 -0.0751 -0.2191 -0.2510
42438SOL    HW139293   4.658   2.315   7.537  0.5383 -0.4515 -1.2527
42438SOL    HW239294   4.574   2.441   7.529 -0.7021 -1.0437  1.2659
42439SOL     OW39295  11.049  11.585   8.628  0.7026  0.6016 -0.5528
42439SOL    HW139296  11.041  11.513   8.565 -1.9559  1.0813 -0.8906
42439SOL    HW239297  11.086  11.545   8.706  1.3255 -0.6400 -1.4471
42440SOL     OW39298  10.079  10.302   7.367 -0.0694 -0.0631 -0.3833
42440SOL    HW139299  10.043  10.317   7.454  0.3342 -3.4893  0.5218
42440SOL    HW239300  10.143  10.372   7.355  0.8027 -0.1944  2.6937
42441SOL     OW39301   7.366  13.692   8.978  0.1780 -0.3888 -0.0341
42441SOL    HW139302   7.311  13.710   9.054  1.4897 -1.1517  1.1707
42441SOL    HW239303   7.398  13.777   8.950 -0.3912 -0.0881  0.2245
42442SOL     OW39304   0.327   7.259   3.466 -0.8364  0.4685 -0.7653
42442SOL    HW139305   0.354   7.225   3.551 -0.3388  0.5501 -0.8838
42442SOL    HW239306   0.367   7.346   3.461 -0.6601  0.3677 -1.1804
42443SOL     OW39307  12.490   7.943   0.648 -0.1532  0.2092  0.0896
42443SOL    HW139308  12.514   7.974   0.735 -0.8897  0.0004  0.3707
42443SOL    HW239309  12.494   8.022   0.593  0.3743  0.3279  0.2938
42444SOL     OW39310   0.052   8.973   2.756  0.2051 -0.3838  0.4229
42444SOL    HW139311   0.105   8.912   2.704  1.2222  0.2277  0.7306
42444SOL    HW239312   0.050   8.934   2.843  2.0009  0.6744  0.9740
42445SOL     OW39313   9.714   7.281   8.638 -0.0272  0.4270 -0.0547
42445SOL    HW139314   9.786   7.329   8.680  0.9911 -2.0112  1.2197
42445SOL    HW239315   9.716   7.194   8.679 -3.4545  0.0991 -0.3126
42446SOL     OW39316   0.208  10.745   4.860 -0.2080 -0.2977 -0.2509
42446SOL    HW139317   0.291  10.698   4.846  0.7333  1.5043 -1.0791
42446SOL    HW239318   0.176  10.763   4.772  0.7601  2.6990 -0.1063
42447SOL     OW39319  10.457   9.964   5.570 -0.3668  0.3516  0.1338
42447SOL    HW139320  10.524   9.988   5.506 -0.0238 -0.5238  0.1444
42447SOL    HW239321  10.503   9.961   5.653 -0.5554  0.3635  0.2398
42448SOL     OW39322   6.221   7.563   9.420 -0.1343  0.1502 -0.1160
42448SOL    HW139323   6.143   7.510   9.437  0.5090 -0.7302  0.1971
42448SOL    HW239324   6.255   7.530   9.337 -0.2799  0.7574 -0.4172
42449SOL     OW39325   7.182   9.586  11.058 -0.0396 -0.1296 -0.4588
42449SOL    HW139326   7.250   9.635  11.104 -0.5641 -1.0270  1.3780
42449SOL    HW239327   7.132   9.543  11.128 -0.4290 -2.1678 -1.8983
42450SOL     OW39328   0.207  13.185   8.735  0.4550 -0.3721 -0.1751
42450SOL    HW139329   0.158  13.264   8.759 -0.8354 -0.5790 -1.9295
42450SOL    HW239330   0.273  13.217   8.673  2.1871 -0.2065  1.6458
42451SOL     OW39331   6.072   1.520   4.074  0.8486 -0.7883 -0.4506
42451SOL    HW139332   5.997   1.564   4.113  1.1871 -1.6431  1.2583
42451SOL    HW239333   6.047   1.507   3.982  0.3627  2.0171 -0.7885
42452SOL     OW39334  13.100   8.337   3.670 -0.2746 -0.2268  0.2488
42452SOL    HW139335  13.194   8.324   3.679 -0.3906 -1.6976 -0.4586
42452SOL    HW239336  13.083   8.328   3.576 -0.8700  2.0387  0.0637
42453SOL     OW39337   5.805   3.720  12.955  0.1236  0.6646  0.6133
42453SOL    HW139338   5.831   3.637  12.996  0.4835 -0.7164 -2.1333
42453SOL    HW239339   5.882   3.777  12.964  1.3328 -0.6649 -0.6623
42454SOL     OW39340   5.854   3.491  12.715 -0.5160  0.2721 -0.0828
42454SOL    HW139341   5.797   3.482  12.791 -1.7194 -0.7258 -1.0557
42454SOL    HW239342   5.819   3.429  12.651  1.9258 -0.7015 -0.5873
42455SOL     OW39343  11.240   1.736  13.165 -0.4224 -0.1596 -0.0892
42455SOL    HW139344  11.322   1.743  13.214 -1.3425 -0.8934  1.6457
42455SOL    HW239345  11.198   1.658  13.200 -1.4894 -0.2712 -1.5497
42456SOL     OW39346   3.942   1.154   6.677 -1.1402  0.5667 -0.3410
42456SOL    HW139347   3.977   1.241   6.697 -0.6524  0.5926 -1.2536
42456SOL    HW239348   3.939   1.151   6.582  2.4518 -1.7764 -0.5594
42457SOL     OW39349  13.722   9.353   5.933 -0.6207  0.4725 -0.2117
42457SOL    HW139350  13.738   9.270   5.978 -0.8636  0.5874  0.0992
42457SOL    HW239351  13.801   9.369   5.882  0.1470  0.9204  1.0909
42458SOL     OW39352  11.102  13.108   4.598  0.8458  0.4199  0.1460
42458SOL    HW139353  11.175  13.124   4.658  0.6447 -1.4205  0.9520
42458SOL    HW239354  11.143  13.074   4.519  0.9993  1.3172 -0.1632
42459SOL     OW39355  12.673   6.567   0.005  0.0341  0.3818  0.3365
42459SOL    HW139356  12.648   6.514   0.080 -0.8863 -2.9117 -2.0319
42459SOL    HW239357  12.607   6.637   0.002 -2.3768 -1.7375  0.4536
42460SOL     OW39358  11.199   8.826  11.934  0.1687  0.5507 -0.2870
42460SOL    HW139359  11.193   8.750  11.877 -1.4687  2.7830 -3.3493
42460SOL    HW239360  11.149   8.801  12.012 -0.8426 -1.2696 -1.4458
42461SOL     OW39361   0.525   5.690   7.283 -0.1574 -0.1599  0.0656
42461SOL    HW139362   0.557   5.770   7.324 -0.9616  0.5548 -0.6519
42461SOL    HW239363   0.529   5.624   7.352 -0.9282  0.8774  1.1451
42462SOL     OW39364   7.000   2.513   6.653  0.1251  0.0752 -0.6402
42462SOL    HW139365   7.047   2.596   6.646  0.5548 -0.3189 -3.7297
42462SOL    HW239366   6.995   2.496   6.747  2.4387  2.2225 -0.0323
42463SOL     OW39367   2.981   9.370   6.128  0.3106 -0.5262 -0.1985
42463SOL    HW139368   2.970   9.330   6.214  0.9661  0.5769  0.4286
42463SOL    HW239369   2.892   9.387   6.097  0.0528 -1.7090 -0.1270
42464SOL     OW39370  10.669  10.330   6.479 -0.1081  0.7550  0.4175
42464SOL    HW139371  10.761  10.339   6.453  0.2178  0.0653  1.2414
42464SOL    HW239372  10.620  10.329   6.397  0.8038 -0.6599 -0.1446
42465SOL     OW39373   3.264  13.792  12.172 -0.6876 -0.7160  0.3373
42465SOL    HW139374   3.321  13.867  12.189 -2.4519  0.9033 -0.6139
42465SOL    HW239375   3.322  13.716  12.180  1.0093  0.6584  2.0531
42466SOL     OW39376  13.904   7.167  13.325  0.0618  0.4630  0.0218
42466SOL    HW139377  13.990   7.135  13.350  0.0560  1.1157  0.9313
42466SOL    HW239378  13.845   7.095  13.347  0.5187 -0.6275 -2.1006
42467SOL     OW39379   2.803  11.813  11.589 -0.0955  0.4119  0.1397
42467SOL    HW139380   2.848  11.893  11.563 -0.3846  0.4957 -0.0982
42467SOL    HW239381   2.858  11.742  11.553 -0.3695  0.5212 -0.5098
42468SOL     OW39382  11.218   9.926   5.487  0.0329 -0.0823 -0.0039
42468SOL    HW139383  11.187   9.890   5.570 -0.0202  0.5534  0.2564
42468SOL    HW239384  11.309   9.950   5.504 -1.0690  3.9599  1.2203
42469SOL     OW39385   5.205   1.712   8.830  0.4844  0.2103 -0.3138
42469SOL    HW139386   5.132   1.774   8.826 -0.7100 -1.1747 -1.3897
42469SOL    HW239387   5.248   1.731   8.912 -1.0483  1.1490  0.3275
42470SOL     OW39388   6.269   2.455  10.179 -0.4455  0.4144  0.2431
42470SOL    HW139389   6.175   2.471  10.173 -0.3260  1.0294 -0.0872
42470SOL    HW239390   6.302   2.529  10.231 -0.3935 -0.7615  1.9659
42471SOL     OW39391   1.882   5.289   0.345  0.3902 -0.4012  0.1996
42471SOL    HW139392   1.862   5.196   0.332 -0.2783 -0.1072 -1.0710
42471SOL    HW239393   1.847   5.332   0.267  0.3035  0.9808  0.9706
42472SOL     OW39394   7.273  10.459  10.518 -0.1182  0.4210  0.8873
42472SOL    HW139395   7.364  10.435  10.534 -0.8604 -1.0059  3.7721
42472SOL    HW239396   7.274  10.553  10.503  1.7213  0.7048  2.4330
42473SOL     OW39397   0.456   9.200   5.055  0.5758 -0.2595  0.1860
42473SOL    HW139398   0.422   9.128   5.002  1.8226 -1.5331  1.0399
42473SOL    HW239399   0.411   9.191   5.139 -0.1048  0.6751 -0.0704
42474SOL     OW39400  12.169   4.444   8.584 -0.1028 -0.0682 -0.2780
42474SOL    HW139401  12.156   4.539   8.576  1.3639  0.1398 -0.4458
42474SOL    HW239402  12.202   4.432   8.673  1.4685 -0.1787 -0.8412
42475SOL     OW39403   4.926   9.024  11.790 -0.5653 -0.0461  0.6647
42475SOL    HW139404   4.927   8.939  11.835 -0.8964 -0.4944 -0.1516
42475SOL    HW239405   4.983   9.080  11.843  0.2595 -0.9879  0.8126
42476SOL     OW39406   2.343  13.164   8.044  0.0277 -0.3724 -0.1804
42476SOL    HW139407   2.409  13.113   8.092  0.0686 -1.4525 -1.3302
42476SOL    HW239408   2.373  13.255   8.051  0.1941 -0.5304  1.5535
42477SOL     OW39409  11.099   3.489   3.665 -0.1865 -0.1464  0.8346
42477SOL    HW139410  11.142   3.403   3.666  1.2958  0.4664 -1.5838
42477SOL    HW239411  11.131   3.533   3.744 -0.1073 -1.4054  1.5270
42478SOL     OW39412   9.190   1.557  11.031 -0.0734 -0.2330  0.3107
42478SOL    HW139413   9.249   1.494  10.989  0.8868  0.5613  0.4453
42478SOL    HW239414   9.230   1.642  11.015 -1.3850  0.3743  0.0888
42479SOL     OW39415   6.310   5.363   8.992  0.1237 -0.2631  0.0549
42479SOL    HW139416   6.399   5.371   9.025  0.2827  0.6590 -0.5724
42479SOL    HW239417   6.279   5.453   8.982 -0.8698 -0.5680  0.2291
42480SOL     OW39418   4.128   4.420  11.393 -0.7565  0.0674 -0.4195
42480SOL    HW139419   4.220   4.396  11.379 -0.0847  2.3665 -0.2365
42480SOL    HW239420   4.121   4.510  11.361 -2.9792 -0.0581 -0.4693
42481SOL     OW39421   2.034   7.490   2.209 -0.5967  0.0183  0.3165
42481SOL    HW139422   2.044   7.568   2.154  3.8003 -0.4123  0.1698
42481SOL    HW239423   2.014   7.524   2.296  1.1894  1.4041  0.2440
42482SOL     OW39424  11.168  13.101  12.479 -0.0155  0.5567  0.2171
42482SOL    HW139425  11.248  13.108  12.427 -0.6164  0.2167 -0.7800
42482SOL    HW239426  11.169  13.179  12.536  1.9702 -0.4224  1.6400
42483SOL     OW39427   6.500   6.081   1.577 -0.1784  0.1744  0.3772
42483SOL    HW139428   6.494   6.020   1.504 -0.7164  2.1321 -1.3069
42483SOL    HW239429   6.593   6.104   1.582 -0.1501  0.0825  0.2598
42484SOL     OW39430  12.053   9.798  11.052  0.1185  0.5612  0.6459
42484SOL    HW139431  11.998   9.876  11.057  0.4423  0.7598  1.1837
42484SOL    HW239432  12.004   9.737  10.996 -0.3630  0.9607  0.6312
42485SOL     OW39433  11.380  12.453  14.006 -0.1037  0.5881 -0.2136
42485SOL    HW139434  11.319  12.521  14.035 -2.1426 -1.1915 -0.0170
42485SOL    HW239435  11.401  12.404  14.085  1.6471  1.1691 -0.2867
42486SOL     OW39436  12.827  11.579  12.770  0.1093  0.1356 -0.3781
42486SOL    HW139437  12.877  11.586  12.689  0.8237 -1.4695 -0.1165
42486SOL    HW239438  12.737  11.566  12.742  0.6844 -3.2475 -1.0812
42487SOL     OW39439   0.557  12.344   2.672 -1.0575  1.1398 -0.2277
42487SOL    HW139440   0.650  12.358   2.654 -0.8985  1.3015  0.6883
42487SOL    HW239441   0.547  12.249   2.675 -0.5419  1.1146  1.4883
42488SOL     OW39442   5.242   4.940  13.997  0.0461  0.2499  0.2600
42488SOL    HW139443   5.285   5.016  13.959  1.3101  0.0376  1.1886
42488SOL    HW239444   5.311   4.874  14.003 -1.0894 -1.1158 -0.8309
42489SOL     OW39445  10.815   9.793   6.749 -0.5504  0.4605 -0.0782
42489SOL    HW139446  10.824   9.885   6.725 -0.9298  0.7123  0.6980
42489SOL    HW239447  10.901   9.767   6.781 -0.7663  0.9059  0.8813
42490SOL     OW39448   4.770   6.054   9.512  0.0496  0.1642 -0.6920
42490SOL    HW139449   4.824   6.108   9.569  1.1598 -0.3123 -1.2609
42490SOL    HW239450   4.736   6.115   9.446  1.0287  0.2425 -1.1393
42491SOL     OW39451   6.910   5.752   7.331  0.9860 -0.1669 -0.4104
42491SOL    HW139452   6.816   5.764   7.317  0.7903  1.3417  1.6658
42491SOL    HW239453   6.920   5.659   7.352  0.0925 -0.4827 -1.3037
42492SOL     OW39454   6.949   6.393  12.046  0.0805  0.1739 -0.2407
42492SOL    HW139455   6.905   6.467  12.004 -0.4693 -0.6099 -1.0914
42492SOL    HW239456   6.911   6.390  12.134 -0.0063  0.8049 -0.2528
42493SOL     OW39457  11.571  10.655   0.546 -0.3297  0.3784 -0.2554
42493SOL    HW139458  11.651  10.687   0.587 -0.2794  0.8455 -0.7086
42493SOL    HW239459  11.600  10.616   0.463 -0.5655  0.5333 -0.4133
42494SOL     OW39460   9.849   8.940   0.914 -0.1782  0.3814 -0.0755
42494SOL    HW139461   9.897   8.907   0.838 -0.5605 -0.3974  0.0117
42494SOL    HW239462   9.844   8.865   0.973 -1.6017  0.4139 -0.1259
42495SOL     OW39463  10.622   2.273  12.642 -0.2275 -0.1845  0.4339
42495SOL    HW139464  10.682   2.328  12.590 -1.5188 -0.0086 -0.9199
42495SOL    HW239465  10.623   2.189  12.597 -0.3842 -0.4236  0.8832
42496SOL     OW39466   4.323  12.355   5.036 -0.3413  0.8763  0.4119
42496SOL    HW139467   4.281  12.412   4.972 -1.0840  0.2866  0.3630
42496SOL    HW239468   4.329  12.270   4.992  1.5771  1.1044  0.1336
42497SOL     OW39469   5.505   2.812   2.664 -0.1129 -0.4651  0.0186
42497SOL    HW139470   5.551   2.729   2.674 -1.5243 -1.1581  1.1255
42497SOL    HW239471   5.502   2.849   2.753  1.1784  1.1713 -0.5761
42498SOL     OW39472   2.883   0.718   7.995  0.1790  0.8911 -0.2888
42498SOL    HW139473   2.903   0.780   7.926 -1.6697  3.1733  1.0690
42498SOL    HW239474   2.798   0.680   7.970  0.8228 -0.3854 -0.6095
42499SOL     OW39475   1.802   2.202   1.651  0.4203  0.2164 -0.0855
42499SOL    HW139476   1.824   2.121   1.698  2.7145 -0.1619 -1.6687
42499SOL    HW239477   1.753   2.171   1.574 -0.0628  0.5058  0.0996
42500SOL     OW39478   7.336   3.962   8.244 -0.2681 -0.1622  0.9669
42500SOL    HW139479   7.304   3.987   8.158  0.7617  0.0734  0.6433
42500SOL    HW239480   7.257   3.955   8.298 -0.7610  2.0647  0.6377
42501SOL     OW39481  12.848   8.558   8.202  0.1696 -0.1561  0.2744
42501SOL    HW139482  12.830   8.464   8.198  1.7363 -0.5861  2.0281
42501SOL    HW239483  12.941   8.565   8.180 -0.1142  1.0980 -0.6430
42502SOL     OW39484  11.559   5.534   9.761  0.5265 -0.1208  0.3986
42502SOL    HW139485  11.565   5.591   9.838  0.7416  1.3552 -0.6554
42502SOL    HW239486  11.641   5.549   9.714  0.3870 -0.9750 -0.1330
42503SOL     OW39487   5.086   7.097   9.254 -0.1102 -0.4654  0.0415
42503SOL    HW139488   5.062   7.033   9.322 -0.6320  0.2695  0.5673
42503SOL    HW239489   5.005   7.111   9.205 -0.4825  1.1045  1.0472
42504SOL     OW39490  10.694   1.691   6.797  0.0230  0.4564 -0.1700
42504SOL    HW139491  10.622   1.645   6.840  0.5331  1.3257  1.7132
42504SOL    HW239492  10.693   1.659   6.707 -0.5890 -2.0784  0.6574
42505SOL     OW39493   8.450   1.860   5.227  0.4346 -0.3271  0.3759
42505SOL    HW139494   8.515   1.899   5.169 -0.0674 -2.2294 -1.5747
42505SOL    HW239495   8.495   1.786   5.268  0.2472 -0.0795  1.0490
42506SOL     OW39496   4.760  10.595  11.366  0.2718 -0.0413  0.1919
42506SOL    HW139497   4.848  10.574  11.337  0.6682  1.0556  0.5655
42506SOL    HW239498   4.746  10.685  11.337  0.1798  0.6343  2.1854
42507SOL     OW39499  10.278   1.829  10.180  0.1254  0.0963 -0.4488
42507SOL    HW139500  10.240   1.748  10.213  1.7044 -0.4024  0.2336
42507SOL    HW239501  10.206   1.892  10.184 -0.3007 -0.4241  2.1823
42508SOL     OW39502  10.151   1.638   9.931  0.5311 -0.6097  0.2415
42508SOL    HW139503  10.069   1.679   9.903  1.1249 -0.5276 -1.4824
42508SOL    HW239504  10.148   1.641  10.027 -1.6365 -0.9439  0.2351
42509SOL     OW39505   7.327  11.331   7.434  0.1239  0.4271 -0.6688
42509SOL    HW139506   7.351  11.368   7.349 -1.9071  0.3140 -1.3584
42509SOL    HW239507   7.248  11.379   7.459  0.7143  0.4962  1.2097
42510SOL     OW39508   5.367  12.459   1.325 -0.2625  0.5963  0.4171
42510SOL    HW139509   5.299  12.503   1.273 -0.6291 -0.9397 -0.4734
42510SOL    HW239510   5.396  12.525   1.387 -2.3153  1.4179  0.5737
42511SOL     OW39511   6.902   1.652   0.801  0.0792 -0.0592 -0.1499
42511SOL    HW139512   6.899   1.733   0.852  0.4392  0.6726 -1.2554
42511SOL    HW239513   6.810   1.631   0.784 -0.0033  0.4149 -0.3049
42512SOL     OW39514   2.172   2.264   9.461 -0.3367  0.2105  0.3720
42512SOL    HW139515   2.088   2.295   9.428 -1.2555 -1.6425  0.7974
42512SOL    HW239516   2.153   2.176   9.493  2.0212 -0.7369 -0.6045
42513SOL     OW39517   5.970   3.952  13.892  0.6352 -0.0825  0.4808
42513SOL    HW139518   5.909   3.938  13.965 -0.8943  1.8652 -0.3459
42513SOL    HW239519   5.954   4.042  13.864  1.1812 -0.7377 -2.2434
42514SOL     OW39520   5.694   7.491   8.649  0.4290  0.5462  0.2345
42514SOL    HW139521   5.668   7.583   8.643 -0.0870  0.3842 -0.0460
42514SOL    HW239522   5.646   7.447   8.579 -0.6051 -0.2205  1.3816
42515SOL     OW39523   2.571   2.842   2.048  0.1368  0.3496 -0.7030
42515SOL    HW139524   2.525   2.762   2.072  2.5297 -0.4443  1.6531
42515SOL    HW239525   2.586   2.835   1.954 -1.3261 -1.0352 -0.8628
42516SOL     OW39526  12.654  11.932  11.062  0.1245  0.4387 -0.9278
42516SOL    HW139527  12.568  11.897  11.041  0.1679 -0.1349 -0.1966
42516SOL    HW239528  12.636  12.006  11.120  0.0636  1.2782 -1.9854
42517SOL     OW39529   9.908   2.663   1.278 -0.1804  0.2576  0.7666
42517SOL    HW139530   9.933   2.754   1.263  1.5840 -0.2039  0.7665
42517SOL    HW239531   9.856   2.639   1.202  1.9731  0.3427 -0.8042
42518SOL     OW39532  10.757   8.418   6.697 -0.0033 -0.1410  0.1621
42518SOL    HW139533  10.801   8.334   6.696 -0.3667 -0.3461  0.5786
42518SOL    HW239534  10.788   8.460   6.778  0.9989  0.5846 -0.5765
42519SOL     OW39535   4.099  10.404   4.722  0.2916  0.3243 -0.2805
42519SOL    HW139536   4.148  10.466   4.667  2.1077  1.2103  2.1434
42519SOL    HW239537   4.160  10.332   4.738 -0.9351 -0.9386 -1.0283
42520SOL     OW39538   9.008   9.835   2.382 -0.5448 -0.2129 -0.3583
42520SOL    HW139539   8.954   9.804   2.309  2.2779 -1.3068 -2.1828
42520SOL    HW239540   9.063   9.903   2.344  0.1916  0.0260  1.0653
42521SOL     OW39541   4.697  13.172   4.071 -0.0881 -0.2882  0.4408
42521SOL    HW139542   4.768  13.235   4.081 -0.0172 -0.2595 -0.2157
42521SOL    HW239543   4.618  13.225   4.074 -0.0229 -0.1524 -0.2442
42522SOL     OW39544   2.849   1.577   1.072 -0.5337  0.4274  0.0090
42522SOL    HW139545   2.937   1.565   1.037 -0.1796  0.7524  0.7530
42522SOL    HW239546   2.794   1.595   0.996  0.0224  0.0979 -0.4735
42523SOL     OW39547   1.918   0.427  13.736 -0.3019  0.4378 -0.2071
42523SOL    HW139548   1.866   0.346  13.733 -0.3493  0.4125  0.9676
42523SOL    HW239549   1.996   0.403  13.787 -0.7251  1.3443  0.9137
42524SOL     OW39550   4.109   3.616   7.812  0.3464  0.0879  0.3249
42524SOL    HW139551   4.167   3.632   7.886 -0.4824 -0.1056  1.0335
42524SOL    HW239552   4.088   3.704   7.778  1.7331  0.1366 -0.5152
42525SOL     OW39553  10.470   0.754   8.365 -0.4056  0.0543 -0.4330
42525SOL    HW139554  10.395   0.694   8.372 -0.7538  0.4196 -0.9839
42525SOL    HW239555  10.461   0.812   8.440  0.4763 -1.1693  0.6651
42526SOL     OW39556   2.562   6.597  13.880  0.2381 -0.4560  0.1944
42526SOL    HW139557   2.612   6.625  13.957  0.6013  0.2762 -0.3026
42526SOL    HW239558   2.624   6.599  13.808 -1.0096  3.0898 -0.9976
42527SOL     OW39559  12.954  10.442  13.114 -0.5376 -1.0801 -0.2809
42527SOL    HW139560  12.983  10.522  13.071 -1.5766 -0.1930  0.5961
42527SOL    HW239561  13.010  10.373  13.079  0.9494  0.1664 -0.4286
42528SOL     OW39562   6.764   4.679   0.704  0.2997 -0.3486 -0.0078
42528SOL    HW139563   6.844   4.712   0.746  0.3641  0.9775 -1.0840
42528SOL    HW239564   6.763   4.723   0.619 -1.0851 -1.0983 -0.3968
42529SOL     OW39565  12.723   5.604   4.970 -0.2804  0.4534  0.1341
42529SOL    HW139566  12.742   5.695   4.991 -1.0595  0.4942  0.6850
42529SOL    HW239567  12.742   5.597   4.876  2.2630  0.5257  0.5721
42530SOL     OW39568  12.437   3.206   2.165 -0.4043 -0.5599 -0.7626
42530SOL    HW139569  12.466   3.210   2.074  0.1171  1.4096 -0.5410
42530SOL    HW239570  12.397   3.291   2.182  1.6239  0.0235  1.5292
42531SOL     OW39571  12.091  11.813  12.162  0.5957 -0.2475  0.2789
42531SOL    HW139572  12.083  11.787  12.254 -0.9127 -0.1258  0.2047
42531SOL    HW239573  12.082  11.731  12.114  0.5374 -0.1968  0.2050
42532SOL     OW39574   2.779   0.536   5.615 -0.4838 -0.5669 -0.5861
42532SOL    HW139575   2.707   0.578   5.568  1.0255  0.5733 -2.0003
42532SOL    HW239576   2.739   0.505   5.696 -2.2686  1.2658 -0.6631
42533SOL     OW39577   7.494   8.844  10.990  1.0814  0.1126 -0.0335
42533SOL    HW139578   7.540   8.761  11.002  0.2896 -0.2607  0.5299
42533SOL    HW239579   7.455   8.863  11.076 -0.4037  0.0376 -0.6651
42534SOL     OW39580   8.750   2.891   2.829 -0.0730 -0.0917  0.4735
42534SOL    HW139581   8.839   2.863   2.807 -0.2026  0.2674 -0.5391
42534SOL    HW239582   8.708   2.812   2.863  0.4405 -0.4165  0.3685
42535SOL     OW39583   5.220   2.621  10.775 -0.2575  0.1903  0.3409
42535SOL    HW139584   5.165   2.575  10.837 -0.1846  0.6886  0.7874
42535SOL    HW239585   5.160   2.649  10.705  0.0296 -2.3461 -1.0202
42536SOL     OW39586  11.110   9.147   1.633  0.3519 -0.2868  0.3612
42536SOL    HW139587  11.038   9.162   1.693 -0.3120 -1.5357 -0.0871
42536SOL    HW239588  11.174   9.097   1.683 -0.8540 -2.6564 -0.3236
42537SOL     OW39589   6.154   9.831   8.620 -0.4307  0.3780  0.3571
42537SOL    HW139590   6.171   9.772   8.693  1.1093  0.6827  0.2701
42537SOL    HW239591   6.162   9.777   8.542 -1.1419  0.2594  0.3566
42538SOL     OW39592   4.205  11.701   1.279  0.5012  0.4277 -0.0393
42538SOL    HW139593   4.216  11.750   1.198 -0.1310 -0.6275 -0.7816
42538SOL    HW239594   4.111  11.695   1.291  0.5823  1.0708  1.1078
42539SOL     OW39595   9.955  13.735  12.238 -0.1326 -0.1998 -0.1999
42539SOL    HW139596   9.972  13.700  12.150  0.8547  0.5760 -0.3438
42539SOL    HW239597   9.878  13.687  12.268 -0.3701 -0.6302 -1.4064
42540SOL     OW39598   6.869  13.398   0.215  0.1722  0.4713 -0.0484
42540SOL    HW139599   6.880  13.311   0.254 -0.3753  0.3692 -0.1206
42540SOL    HW239600   6.775  13.405   0.197  0.3767  0.6176 -1.1262
42541SOL     OW39601   8.658   0.676   8.171 -0.2614 -0.5552 -0.7291
42541SOL    HW139602   8.572   0.676   8.130 -0.5622  0.0834 -0.1168
42541SOL    HW239603   8.640   0.664   8.264  0.3644 -1.2017 -0.6806
42542SOL     OW39604  12.124   2.772   7.761 -0.1278 -0.4282 -0.2580
42542SOL    HW139605  12.052   2.719   7.796  0.1202 -0.2994  0.4633
42542SOL    HW239606  12.166   2.810   7.838 -1.0355  1.8029 -0.7861
42543SOL     OW39607   3.407   5.083   6.526  0.1308 -0.2794 -0.5648
42543SOL    HW139608   3.422   5.016   6.593 -0.5213  1.4490  1.4405
42543SOL    HW239609   3.348   5.041   6.463 -0.4452 -1.5126  0.7410
42544SOL     OW39610  13.742   1.409  10.243  0.1251 -0.1399 -0.4239
42544SOL    HW139611  13.826   1.419  10.198 -0.2414 -0.1313 -1.1230
42544SOL    HW239612  13.708   1.498  10.250  0.1959 -0.1379 -0.0951
42545SOL     OW39613  13.609   2.449   5.082  0.2737 -0.4641 -0.3372
42545SOL    HW139614  13.575   2.425   5.168 -0.4737 -2.3193 -1.0788
42545SOL    HW239615  13.555   2.523   5.055 -0.5545 -0.8727  0.1510
42546SOL     OW39616  11.392  13.677  13.353 -0.0494 -0.4594  0.3275
42546SOL    HW139617  11.429  13.737  13.287  0.3834 -2.5240 -1.4242
42546SOL    HW239618  11.297  13.686  13.342  0.0161 -0.7917 -0.6413
42547SOL     OW39619   1.330  12.273   4.039  0.5334 -0.2561 -0.3159
42547SOL    HW139620   1.378  12.203   3.993 -0.5260  0.2751 -2.3244
42547SOL    HW239621   1.389  12.348   4.036  1.5544 -0.9050  1.5936
42548SOL     OW39622   1.222   6.286  12.813  0.1713  0.2311  0.0703
42548SOL    HW139623   1.184   6.232  12.743 -0.8507  0.3282  0.5383
42548SOL    HW239624   1.169   6.365  12.814 -0.7746 -0.3737  1.9168
42549SOL     OW39625   6.926   7.298   0.764  0.0018  0.2213 -0.2758
42549SOL    HW139626   6.856   7.255   0.715  0.6862  1.3592 -2.3901
42549SOL    HW239627   6.880   7.352   0.829 -1.0274 -0.1791 -0.6484
42550SOL     OW39628   3.167   9.328  12.131 -0.3963 -0.2106  0.2371
42550SOL    HW139629   3.262   9.316  12.125 -0.4571 -0.1826 -0.9453
42550SOL    HW239630   3.154   9.422  12.131 -0.4287 -0.2151  0.2609
42551SOL     OW39631   1.904  11.526   3.003  0.2623 -0.4918  0.0620
42551SOL    HW139632   1.945  11.513   3.089 -0.8338  0.1634  0.7062
42551SOL    HW239633   1.867  11.614   3.007 -0.1424 -0.5967 -0.9507
42552SOL     OW39634   2.507   8.052   5.141 -0.1510  0.2373 -0.6683
42552SOL    HW139635   2.419   8.027   5.112 -0.0899  0.2676 -0.8851
42552SOL    HW239636   2.546   8.092   5.064 -0.1484  0.7529 -0.3973
42553SOL     OW39637  10.925   2.732  10.025 -0.0409 -0.1639 -0.5222
42553SOL    HW139638  10.935   2.645  10.065  2.3598  0.1556 -0.2770
42553SOL    HW239639  10.948   2.718   9.933 -1.0968 -0.0335 -0.8198
42554SOL     OW39640   1.996   0.976   3.700 -0.2724  0.2210 -0.0519
42554SOL    HW139641   1.902   0.991   3.699  0.0602  2.7997 -1.6338
42554SOL    HW239642   2.009   0.894   3.652 -1.7401 -0.8601  1.3114
42555SOL     OW39643  12.662  11.647   2.620 -0.3941  0.2371 -0.3795
42555SOL    HW139644  12.643  11.731   2.580 -0.3669 -0.1641 -1.2627
42555SOL    HW239645  12.586  11.629   2.675  0.5681  1.8519  1.5968
42556SOL     OW39646   1.525   4.445   6.991  0.1471 -0.4348 -0.4267
42556SOL    HW139647   1.594   4.379   6.976 -0.4948 -0.8807 -1.5024
42556SOL    HW239648   1.465   4.403   7.052  0.4257 -0.3383 -0.0840
42557SOL     OW39649   0.629   0.916   8.627 -0.1376  0.1934  0.0917
42557SOL    HW139650   0.623   0.870   8.544 -2.0315  0.0476  0.2674
42557SOL    HW239651   0.697   0.869   8.675 -0.5932 -1.1479 -0.5187
42558SOL     OW39652  13.892   8.589  13.712 -0.5036  0.2186 -0.4303
42558SOL    HW139653  13.969   8.623  13.759 -1.3821  0.9681  0.5226
42558SOL    HW239654  13.908   8.613  13.621  0.3120  0.5335 -0.2178
42559SOL     OW39655   5.075   5.427   2.811  0.1057  0.4535  0.0315
42559SOL    HW139656   5.017   5.351   2.809 -0.5042  0.9246 -1.2410
42559SOL    HW239657   5.101   5.435   2.903 -0.1561 -1.0311  0.2528
42560SOL     OW39658  13.005   1.592   2.172 -0.2899 -0.1204  0.1231
42560SOL    HW139659  12.929   1.542   2.143 -0.7220  0.6803 -0.1400
42560SOL    HW239660  12.992   1.679   2.135  0.4611  0.1870  0.5671
42561SOL     OW39661  12.479   3.917  11.739  0.0047 -0.3447  0.0023
42561SOL    HW139662  12.542   3.984  11.767 -0.3395 -0.6548  1.6365
42561SOL    HW239663  12.431   3.896  11.818 -2.4475  0.1410 -1.2572
42562SOL     OW39664   7.060   7.490   9.452 -0.0574 -0.1937  0.5782
42562SOL    HW139665   7.145   7.528   9.471  1.1395 -2.6381  0.4837
42562SOL    HW239666   7.030   7.536   9.374  0.3195  1.8906  1.5861
42563SOL     OW39667   6.911  12.450  11.817 -0.5159  0.2021  0.2438
42563SOL    HW139668   6.844  12.382  11.819 -0.3932 -0.0320 -1.6714
42563SOL    HW239669   6.991  12.403  11.792 -0.2580  0.9151 -0.2930
42564SOL     OW39670  13.809   9.845   9.092 -0.1776 -0.5349 -0.1446
42564SOL    HW139671  13.729   9.838   9.144 -0.9998  1.1293 -1.0927
42564SOL    HW239672  13.813   9.764   9.043 -0.5909 -1.1713  0.8362
42565SOL     OW39673   1.939   7.792   6.633 -0.4396  0.3204  0.5332
42565SOL    HW139674   1.893   7.715   6.668 -0.9526  0.8721  1.1198
42565SOL    HW239675   2.032   7.770   6.641 -0.4892 -1.7371 -2.7102
42566SOL     OW39676   3.842   2.456  12.331 -0.4390 -0.4620  0.7698
42566SOL    HW139677   3.870   2.545  12.350 -2.1066  0.1510  0.4607
42566SOL    HW239678   3.892   2.402  12.393  0.2814  0.7064  1.2417
42567SOL     OW39679   6.915   0.277   2.420 -0.0532 -0.1954 -0.2054
42567SOL    HW139680   6.935   0.363   2.385 -0.5520 -0.4615 -1.1702
42567SOL    HW239681   6.984   0.220   2.387  0.3444 -0.1582  0.5291
42568SOL     OW39682   1.001  11.685   6.256 -0.2216  0.3601  0.2909
42568SOL    HW139683   0.918  11.724   6.283 -0.4298  2.1840 -2.5676
42568SOL    HW239684   1.000  11.690   6.160  2.9254 -0.1272  0.1312
42569SOL     OW39685   1.483  10.863   8.199  0.0122 -0.1745 -0.9740
42569SOL    HW139686   1.469  10.938   8.257  1.4090 -0.7211  0.1285
42569SOL    HW239687   1.573  10.872   8.170  0.2414 -1.4740 -0.7324
42570SOL     OW39688   7.849   2.935   8.578 -0.7510 -0.3734 -0.4825
42570SOL    HW139689   7.789   2.949   8.504  1.8990  1.5208 -2.4871
42570SOL    HW239690   7.917   2.878   8.543  0.6381  0.6795  0.3880
42571SOL     OW39691  13.230  12.420   0.893  0.1925  0.0388 -0.1354
42571SOL    HW139692  13.234  12.504   0.939  0.8597  0.4414 -0.8956
42571SOL    HW239693  13.309  12.419   0.839  1.0206 -1.7543  0.9932
42572SOL     OW39694   5.410   9.409  10.501  0.3101  0.1811  0.3442
42572SOL    HW139695   5.367   9.450  10.426  1.3237 -1.6273 -1.3319
42572SOL    HW239696   5.492   9.456  10.512  0.7405 -0.3437 -0.5374
42573SOL     OW39697  13.742   4.187   1.549  0.7676 -0.0849 -0.6645
42573SOL    HW139698  13.734   4.130   1.625  0.5040 -0.4319 -0.9540
42573SOL    HW239699  13.809   4.146   1.494 -0.2211 -0.7446 -1.4196
42574SOL     OW39700  10.147  10.990  11.938 -0.1839  0.3424  0.3141
42574SOL    HW139701  10.110  10.980  12.026  1.3743  1.4769  1.1608
42574SOL    HW239702  10.240  11.009  11.954 -0.2766  2.7159 -1.4597
42575SOL     OW39703   3.473   3.521   6.517 -0.0847 -0.2200  0.0822
42575SOL    HW139704   3.521   3.602   6.496 -0.9003  0.5951  1.2816
42575SOL    HW239705   3.453   3.483   6.431 -1.4882  1.9328 -0.6412
42576SOL     OW39706  12.555   2.248   3.221  0.5801  0.6460  0.4566
42576SOL    HW139707  12.607   2.304   3.279 -0.0886 -0.7796  2.5719
42576SOL    HW239708  12.515   2.184   3.280  1.5892 -2.3027 -1.8035
42577SOL     OW39709  13.792   2.217   7.681 -0.9555  0.3417  0.4243
42577SOL    HW139710  13.724   2.225   7.614 -1.4293  1.0741  0.9789
42577SOL    HW239711  13.850   2.291   7.664 -0.3314 -0.2274  0.0110
42578SOL     OW39712   7.928   1.414   7.577  0.9049  0.3636 -0.7593
42578SOL    HW139713   7.865   1.448   7.640  0.6670  1.2099 -1.4348
42578SOL    HW239714   7.999   1.379   7.631 -0.5990 -1.6483  0.0555
42579SOL     OW39715  12.777  12.754   3.814  0.4354  0.3347 -0.0098
42579SOL    HW139716  12.841  12.795   3.872  1.4820  0.4968 -1.2108
42579SOL    HW239717  12.827  12.734   3.735 -1.2132  1.3082 -1.3644
42580SOL     OW39718  10.359   9.609   3.436  0.4768 -0.7100 -0.0215
42580SOL    HW139719  10.297   9.680   3.424  1.7617  0.3678 -0.4969
42580SOL    HW239720  10.424   9.643   3.497  1.3825 -1.2883 -0.6313
42581SOL     OW39721   6.928   9.920   4.549  0.3110 -0.2346  0.1160
42581SOL    HW139722   6.892   9.905   4.636  1.1131  0.6347  0.6199
42581SOL    HW239723   6.943   9.832   4.514 -1.9174 -0.6372  0.0062
42582SOL     OW39724   0.762   6.094   0.414  0.5373  0.0778  0.2525
42582SOL    HW139725   0.801   6.007   0.423  1.8684  0.5150 -0.9705
42582SOL    HW239726   0.815   6.149   0.472  0.5312  0.3190  0.0287
42583SOL     OW39727   2.609   7.909   9.259 -0.4830  0.7438  0.2253
42583SOL    HW139728   2.593   7.852   9.334  1.2374 -0.7605 -0.4880
42583SOL    HW239729   2.702   7.897   9.239 -0.7264  1.6916 -1.6857
42584SOL     OW39730   1.839   0.897   7.584 -0.1127  0.1455 -0.4860
42584SOL    HW139731   1.917   0.849   7.556  1.6847  1.3160  2.1127
42584SOL    HW239732   1.838   0.976   7.529 -0.1429 -0.3992 -1.2871
42585SOL     OW39733   9.154   6.930  11.920 -0.7447  0.3121  0.1478
42585SOL    HW139734   9.162   6.841  11.885  1.2490 -0.4331  2.2081
42585SOL    HW239735   9.207   6.984  11.862 -1.4144  0.0555 -0.7233
42586SOL     OW39736   5.298   2.945   2.085 -0.0010 -0.5534 -0.8288
42586SOL    HW139737   5.284   2.964   2.177 -0.3973 -0.9723 -0.7979
42586SOL    HW239738   5.238   3.004   2.039  0.9256  0.3798 -0.8725
42587SOL     OW39739  10.711   6.965   0.238  0.1209  0.1824  0.0442
42587SOL    HW139740  10.734   7.039   0.182 -0.8172 -0.5519 -1.4002
42587SOL    HW239741  10.668   6.903   0.178 -0.1690 -1.0146  1.4356
42588SOL     OW39742   2.514  10.624   7.678 -0.1464 -0.0155 -0.4439
42588SOL    HW139743   2.509  10.528   7.670 -0.5191  0.0800 -1.5995
42588SOL    HW239744   2.426  10.650   7.707  0.6177 -0.1795  2.3449
42589SOL     OW39745   1.990  12.955   6.813  0.0443 -0.4487 -0.1054
42589SOL    HW139746   2.029  12.955   6.901  0.2539  4.3156  0.0926
42589SOL    HW239747   2.061  12.927   6.755  0.6656 -1.3021  1.0245
42590SOL     OW39748   2.737   3.332   2.825 -0.6732 -0.3962 -0.0744
42590SOL    HW139749   2.817   3.380   2.845 -1.2472  0.1296  1.0429
42590SOL    HW239750   2.689   3.390   2.766 -0.7487 -0.1982  0.1802
42591SOL     OW39751  11.782   1.554   6.054  0.1969  0.3405  0.4001
42591SOL    HW139752  11.852   1.549   5.988  0.4402  1.4914  0.5541
42591SOL    HW239753  11.739   1.637   6.037 -1.2279 -0.3999  0.2476
42592SOL     OW39754   7.764   7.219   1.961 -0.3146  0.6008  0.0117
42592SOL    HW139755   7.844   7.186   1.919 -1.0632  1.2139 -2.0433
42592SOL    HW239756   7.789   7.303   1.998  0.0088  0.8095 -0.6506
42593SOL     OW39757   3.828   8.078   2.745 -0.1757  0.3194 -0.0850
42593SOL    HW139758   3.902   8.043   2.695 -0.2386 -2.0439  1.3767
42593SOL    HW239759   3.757   8.084   2.681  0.5038  0.0385 -0.8926
42594SOL     OW39760   0.748   4.194   3.711 -0.1714 -0.1206 -0.1370
42594SOL    HW139761   0.792   4.256   3.654 -0.5989  1.0682  0.7863
42594SOL    HW239762   0.695   4.248   3.770  1.7386 -1.0912  2.7127
42595SOL     OW39763   6.491  10.967  12.505 -0.1052 -0.6475  0.4244
42595SOL    HW139764   6.498  10.897  12.570 -0.2902 -2.1433 -1.0956
42595SOL    HW239765   6.552  11.034  12.536  0.7176 -1.8300  1.4841
42596SOL     OW39766   0.782  12.456   1.048 -0.1111  0.2023 -0.0738
42596SOL    HW139767   0.795  12.368   1.012 -0.2494 -0.2828  1.0371
42596SOL    HW239768   0.870  12.494   1.049  0.0006 -0.0461 -0.2228
42597SOL     OW39769   4.222   2.953   5.695 -0.4674  0.6263  0.1394
42597SOL    HW139770   4.160   3.000   5.640 -0.1712  1.2856  0.3653
42597SOL    HW239771   4.277   3.021   5.734  1.1469  0.0025 -0.9520
42598SOL     OW39772   0.163   8.629   4.557  0.2056  0.1055 -0.3212
42598SOL    HW139773   0.197   8.601   4.472  0.8096  0.8416 -0.3251
42598SOL    HW239774   0.151   8.723   4.549  1.5685  0.4103  0.8506
42599SOL     OW39775  10.697   4.123  11.418 -0.1574  0.0642 -0.2962
42599SOL    HW139776  10.717   4.208  11.456 -0.1521 -0.3653  0.7136
42599SOL    HW239777  10.638   4.141  11.345 -3.2344  0.7160  2.1402
42600SOL     OW39778   4.403  10.236  13.107 -0.2040 -0.5781  0.1005
42600SOL    HW139779   4.400  10.165  13.170  0.7936  0.6255  1.5703
42600SOL    HW239780   4.330  10.293  13.130  0.5811  0.2292  0.6502
42601SOL     OW39781   7.567   9.343   0.398 -0.5251  0.3621 -0.4926
42601SOL    HW139782   7.535   9.433   0.396 -0.3639  0.4894  1.3649
42601SOL    HW239783   7.511   9.298   0.461 -0.4312 -0.7933 -1.1912
42602SOL     OW39784   3.142  11.457  10.761 -0.6273 -0.0684 -0.1153
42602SOL    HW139785   3.063  11.479  10.712 -0.4456  1.3281  0.1928
42602SOL    HW239786   3.212  11.458  10.696 -0.5705  0.6109 -0.0483
42603SOL     OW39787   5.656   2.884   4.267  0.1223  0.3934 -0.1746
42603SOL    HW139788   5.732   2.890   4.210 -0.0225 -1.4069 -0.6160
42603SOL    HW239789   5.598   2.820   4.224 -0.8882  0.4985  0.9689
42604SOL     OW39790  11.450   6.409   0.077 -0.2667 -0.6286 -0.4731
42604SOL    HW139791  11.465   6.480   0.014  1.1493 -0.6020 -0.1361
42604SOL    HW239792  11.384   6.353   0.035  0.5255 -0.5209 -1.9032
42605SOL     OW39793   2.839   8.427   6.869  0.1442 -0.3568 -0.5826
42605SOL    HW139794   2.780   8.359   6.902  1.4691 -0.0177  2.8998
42605SOL    HW239795   2.897   8.446   6.943  1.1633  3.1065 -2.0868
42606SOL     OW39796  12.874   1.629   0.564  0.6843  0.0180  0.2147
42606SOL    HW139797  12.833   1.592   0.642 -1.7976 -0.3882 -1.1637
42606SOL    HW239798  12.901   1.553   0.512  2.1096  0.2839  0.5183
42607SOL     OW39799  11.119   1.661   6.059 -0.0149  0.2996  0.3585
42607SOL    HW139800  11.160   1.703   6.135  1.9681 -0.1262 -0.4149
42607SOL    HW239801  11.062   1.728   6.022  0.0458  0.9696  1.4276
42608SOL     OW39802   4.180   6.303   3.499  0.6495 -0.6045  0.3325
42608SOL    HW139803   4.104   6.253   3.528 -0.0550  1.4701  2.3104
42608SOL    HW239804   4.248   6.284   3.564  1.9116 -2.3918 -1.3816
42609SOL     OW39805   7.222   6.367   8.464  0.1309  0.2247  0.1405
42609SOL    HW139806   7.266   6.437   8.415 -1.0785  0.4205 -0.7201
42609SOL    HW239807   7.222   6.292   8.404 -0.5745  0.1926  0.1748
42610SOL     OW39808   6.294   9.293   6.433  0.1584 -0.5597 -0.4750
42610SOL    HW139809   6.285   9.280   6.338 -1.3089 -0.1759 -0.4210
42610SOL    HW239810   6.350   9.221   6.462 -0.2311 -1.2982 -1.4764
42611SOL     OW39811  12.452  10.709   0.520 -0.1151 -0.1963  0.2958
42611SOL    HW139812  12.389  10.680   0.586 -0.8884  0.2243 -0.2371
42611SOL    HW239813  12.488  10.790   0.555  0.9259 -0.9600  1.0807
42612SOL     OW39814   3.274   7.048   4.103  0.3846 -0.0671 -0.5781
42612SOL    HW139815   3.248   7.129   4.058 -1.6179 -0.5849 -0.4697
42612SOL    HW239816   3.279   6.983   4.034  3.9867  0.4508 -0.9922
42613SOL     OW39817  11.109  11.894  10.077  0.0151 -0.3145  0.0806
42613SOL    HW139818  11.149  11.928   9.997  1.5662 -0.1055  0.9098
42613SOL    HW239819  11.179  11.895  10.142 -1.0556 -1.0132  1.3080
42614SOL     OW39820  10.102  11.410  13.459 -0.5103  0.3351  0.7504
42614SOL    HW139821  10.100  11.375  13.548 -0.9254 -0.1065  0.5712
42614SOL    HW239822  10.068  11.339  13.405 -0.3990  0.6548  0.2571
42615SOL     OW39823  12.851   4.021   2.670 -0.2996 -0.3652 -0.4176
42615SOL    HW139824  12.780   4.045   2.610 -0.4743 -1.3698 -0.6387
42615SOL    HW239825  12.810   3.960   2.732  0.6543 -2.0519 -1.3767
42616SOL     OW39826   9.769   0.336   5.663 -0.1750 -0.0255  0.3639
42616SOL    HW139827   9.703   0.274   5.632  0.1590 -0.7076  0.9908
42616SOL    HW239828   9.801   0.298   5.745 -0.5169  1.3693  1.1772
42617SOL     OW39829   6.204   3.826  11.724  0.2096 -0.2309  0.2277
42617SOL    HW139830   6.155   3.907  11.738  2.7100  1.3717  0.3145
42617SOL    HW239831   6.186   3.802  11.633 -1.8303 -0.5460  0.6716
42618SOL     OW39832   9.829  11.189   6.776 -0.2458  0.2575 -0.3212
42618SOL    HW139833   9.863  11.238   6.851  1.1903 -0.9190 -0.1650
42618SOL    HW239834   9.908  11.156   6.732 -1.1559 -1.9918 -0.3624
42619SOL     OW39835  12.362   1.095  11.396  0.1213 -0.0794  0.5170
42619SOL    HW139836  12.306   1.069  11.323 -0.2801  1.4141  0.2713
42619SOL    HW239837  12.437   1.036  11.390  0.2890  0.2586 -1.3586
42620SOL     OW39838  13.507   4.198   4.726 -0.1936 -0.0935 -0.5783
42620SOL    HW139839  13.550   4.151   4.797  0.5778  0.3815 -0.7251
42620SOL    HW239840  13.501   4.288   4.757 -1.0081 -0.1292 -0.5992
42621SOL     OW39841  13.985   5.640  13.215 -0.0849 -0.4501 -0.3503
42621SOL    HW139842  13.942   5.700  13.276  0.5037 -1.8586  1.5763
42621SOL    HW239843  14.007   5.694  13.139 -3.2008  0.7962 -0.4986
42622SOL     OW39844  12.940  12.625  11.569  0.7107 -0.2645 -0.0830
42622SOL    HW139845  12.898  12.560  11.514  0.0596  0.1831 -0.1200
42622SOL    HW239846  13.033  12.600  11.568  0.4580 -1.2386 -0.0096
42623SOL     OW39847   6.917  13.263   6.712 -0.5066 -0.2202  0.8747
42623SOL    HW139848   6.936  13.197   6.646  0.1092 -0.4637  1.2859
42623SOL    HW239849   6.842  13.227   6.761 -0.6376 -0.2728  0.6361
42624SOL     OW39850  13.142   1.106   2.111  0.6659 -0.9177 -0.0932
42624SOL    HW139851  13.161   1.051   2.035  2.4707  1.1350 -1.2640
42624SOL    HW239852  13.228   1.130   2.146 -0.1117 -0.7873  1.8428
42625SOL     OW39853   9.315  12.984  10.049  0.4860  0.1094 -0.2171
42625SOL    HW139854   9.257  12.910  10.030  0.1916  0.4632 -0.7421
42625SOL    HW239855   9.256  13.059  10.057  0.8991  0.5634 -1.2384
42626SOL     OW39856   0.364   8.511   2.046 -0.5149 -0.2253  0.3644
42626SOL    HW139857   0.349   8.458   1.967 -0.3177 -0.0264  0.1925
42626SOL    HW239858   0.286   8.497   2.099 -1.5796  1.2071 -0.7513
42627SOL     OW39859  10.784  10.784   4.185  0.5145  0.1576 -0.3880
42627SOL    HW139860  10.813  10.692   4.186 -0.0980 -0.0556  0.8334
42627SOL    HW239861  10.758  10.801   4.276  2.7667  2.2524 -0.0287
42628SOL     OW39862  11.326   2.811   9.191 -0.2891 -0.3442  0.2792
42628SOL    HW139863  11.404   2.862   9.213 -1.7340  2.4686 -0.6461
42628SOL    HW239864  11.356   2.720   9.193  3.2004  0.6250 -0.7680
42629SOL     OW39865  13.916   2.977  10.503  0.0142  0.5532  0.0621
42629SOL    HW139866  13.976   2.920  10.455 -0.9407 -1.0433  0.6833
42629SOL    HW239867  13.838   2.983  10.448 -0.0180  0.9824  0.1518
42630SOL     OW39868   8.509   9.140   8.474 -0.0067  0.5791 -0.3928
42630SOL    HW139869   8.425   9.182   8.453 -0.1292 -0.0694 -1.2865
42630SOL    HW239870   8.496   9.099   8.559 -1.2729 -1.1832 -1.3766
42631SOL     OW39871   5.018   4.934   3.029 -0.1660  0.3211  0.3595
42631SOL    HW139872   4.967   4.860   2.996 -0.2006 -0.1093  1.3525
42631SOL    HW239873   5.077   4.957   2.957 -1.2609  0.3729 -0.5437
42632SOL     OW39874   4.560  11.963   9.772  0.4914  0.1064 -0.3168
42632SOL    HW139875   4.520  11.913   9.843 -0.5081  0.5911 -0.5213
42632SOL    HW239876   4.553  11.907   9.695  1.8219 -0.5308  0.0126
42633SOL     OW39877  12.066   9.994  13.408  0.6419  0.2412 -0.1344
42633SOL    HW139878  11.976  10.028  13.400  0.0381 -1.3425 -0.3903
42633SOL    HW239879  12.092   9.973  13.319  1.1721  0.4251 -0.0259
42634SOL     OW39880  11.376   7.123   6.114  0.5279  0.1756  0.1026
42634SOL    HW139881  11.315   7.183   6.070  1.6462  0.6456 -0.8779
42634SOL    HW239882  11.396   7.166   6.197  0.6432  0.7572 -0.2132
42635SOL     OW39883   7.755   5.640   4.416 -0.1416 -0.2533  0.1662
42635SOL    HW139884   7.662   5.625   4.433 -0.4450  1.3553  0.0972
42635SOL    HW239885   7.799   5.570   4.464 -1.3296 -0.2533  1.3410
42636SOL     OW39886   6.377   2.734  13.847  0.5989 -0.0838  0.6735
42636SOL    HW139887   6.327   2.789  13.787  0.5027 -0.3124  0.5434
42636SOL    HW239888   6.465   2.731  13.810  0.3944 -0.7038  0.2198
42637SOL     OW39889   5.766  12.596   0.450  0.0521 -0.0815 -0.4123
42637SOL    HW139890   5.841  12.541   0.475 -0.4563 -0.7465 -0.3328
42637SOL    HW239891   5.799  12.649   0.377  0.0737 -1.6521 -1.5837
42638SOL     OW39892   9.003   2.499   3.886 -0.1731 -0.4082  0.1955
42638SOL    HW139893   8.995   2.537   3.798  1.0255 -1.7779 -0.5416
42638SOL    HW239894   9.037   2.570   3.940  1.3270 -0.1932 -0.9826
42639SOL     OW39895   4.800   2.193   1.745  0.5474  0.0112  0.5351
42639SOL    HW139896   4.889   2.171   1.772  0.6930  2.2769  2.1475
42639SOL    HW239897   4.744   2.131   1.792  1.1471  0.0640  1.3207
42640SOL     OW39898  10.709   0.785   1.109 -0.0848 -0.0576 -0.5467
42640SOL    HW139899  10.614   0.781   1.103 -0.1302  1.5094 -1.3514
42640SOL    HW239900  10.737   0.823   1.026  1.1737  0.3006  0.0114
42641SOL     OW39901  12.541   3.817  13.360 -0.1077 -0.2809  0.2884
42641SOL    HW139902  12.452   3.810  13.327  0.2012 -0.8184 -0.4716
42641SOL    HW239903  12.542   3.763  13.439 -0.1596 -1.2806 -0.3701
42642SOL     OW39904   7.303   3.546   9.880 -0.4199  0.7664  0.0348
42642SOL    HW139905   7.259   3.568   9.962 -0.8791  2.7515 -0.6970
42642SOL    HW239906   7.396   3.555   9.899 -0.4530  0.0176  0.6290
42643SOL     OW39907   2.962  13.941   0.677 -0.3742 -0.2024  0.0826
42643SOL    HW139908   2.966  13.853   0.639 -0.9677 -0.6860  1.0984
42643SOL    HW239909   3.027  13.991   0.628  0.2422 -1.3036 -0.2595
42644SOL     OW39910   1.630   3.230  12.691 -0.0785  0.3129 -0.1246
42644SOL    HW139911   1.632   3.167  12.620 -1.6625  0.2857 -0.1833
42644SOL    HW239912   1.598   3.180  12.766 -0.3392  0.8098  0.0985
42645SOL     OW39913   7.657  13.473   0.201  0.0261  0.1410  0.0351
42645SOL    HW139914   7.688  13.385   0.178  0.9908  0.2932  0.6950
42645SOL    HW239915   7.649  13.518   0.118 -3.6508 -1.5221 -0.7091
42646SOL     OW39916  10.340   6.319  10.382  0.8838 -0.1198  0.1444
42646SOL    HW139917  10.409   6.253  10.390  1.2851  0.3271  0.4637
42646SOL    HW239918  10.338   6.360  10.468 -0.5200 -0.8388  0.4750
42647SOL     OW39919   9.761   2.688   0.080 -0.2328  0.1527  0.4686
42647SOL    HW139920   9.840   2.705   0.028 -0.2301  0.8278  0.6808
42647SOL    HW239921   9.761   2.758   0.145 -0.6381 -0.2549  0.9049
42648SOL     OW39922   4.786  13.154   1.221 -0.2632  0.1861  0.5595
42648SOL    HW139923   4.813  13.180   1.309 -0.1447  0.2258  0.5109
42648SOL    HW239924   4.811  13.061   1.214  0.6666  0.4536  0.1984
42649SOL     OW39925   8.493  11.082   5.698  0.2218 -0.1044 -0.3223
42649SOL    HW139926   8.539  11.157   5.662  1.4310 -1.2784 -1.2958
42649SOL    HW239927   8.552  11.048   5.765 -0.9822  0.6555  1.2206
42650SOL     OW39928   1.104   1.773   7.997 -0.0025  0.5424  0.3173
42650SOL    HW139929   1.181   1.776   8.054  0.8292 -0.8320 -0.6734
42650SOL    HW239930   1.114   1.848   7.938 -0.0438  1.0395  0.9266
42651SOL     OW39931   8.891   4.192   1.992 -0.3042 -0.9071  0.3436
42651SOL    HW139932   8.952   4.130   1.952 -1.0363 -1.6934  0.4050
42651SOL    HW239933   8.859   4.244   1.919 -0.6645 -1.4813  0.0789
42652SOL     OW39934   4.310  11.629   3.859  0.6281  0.5329 -0.0857
42652SOL    HW139935   4.283  11.581   3.937  2.1125  0.4859  0.4227
42652SOL    HW239936   4.400  11.599   3.842  1.6445  3.1474  0.2924
42653SOL     OW39937   9.440   2.628   5.580 -0.9920 -0.9498 -0.4598
42653SOL    HW139938   9.491   2.651   5.658  0.6598 -2.6278 -0.9747
42653SOL    HW239939   9.439   2.708   5.528 -0.6013 -0.3159  0.4718
42654SOL     OW39940   8.830  12.060   4.430 -0.0704  0.5033 -0.1643
42654SOL    HW139941   8.891  12.130   4.454  0.0514  1.3514 -2.6739
42654SOL    HW239942   8.868  12.020   4.352 -0.7137 -1.6946  0.5662
42655SOL     OW39943   5.821  12.976   8.894 -0.2774 -0.3696  0.1501
42655SOL    HW139944   5.800  13.065   8.866  1.3509  0.2227  0.7130
42655SOL    HW239945   5.847  12.931   8.814 -0.3375 -0.1080 -0.0201
42656SOL     OW39946   0.008  13.506   9.501  0.5430  0.1991  0.0647
42656SOL    HW139947   0.098  13.477   9.491  0.4514 -0.1978  0.3600
42656SOL    HW239948  -0.042  13.426   9.515  0.1837  0.4374  0.1824
42657SOL     OW39949   6.749  10.470   8.243  0.0444 -0.0438  0.3558
42657SOL    HW139950   6.674  10.526   8.225  0.5032 -0.1138 -2.2535
42657SOL    HW239951   6.790  10.458   8.157  2.6029 -0.6168  1.5634
42658SOL     OW39952   3.985   3.948  11.513 -0.6126 -0.1826  0.6768
42658SOL    HW139953   4.007   4.011  11.444 -0.4643 -1.0981 -0.1257
42658SOL    HW239954   3.893   3.926  11.495 -0.2673 -1.2203  0.1105
42659SOL     OW39955   0.642   4.873  11.667  0.0895 -0.2082  0.3820
42659SOL    HW139956   0.711   4.932  11.636  1.0618 -1.6084 -0.1959
42659SOL    HW239957   0.561   4.919  11.645  0.7501 -0.3564 -2.7974
42660SOL     OW39958   7.988   9.562   2.392  0.6100 -0.1893  0.0432
42660SOL    HW139959   8.023   9.604   2.471 -1.0167  1.2133  0.0900
42660SOL    HW239960   8.032   9.606   2.320  0.3355  0.2394  0.1331
42661SOL     OW39961   8.501   4.047  10.170  0.1741 -0.5166  0.0029
42661SOL    HW139962   8.523   4.120  10.229 -2.1050 -1.6563  2.4802
42661SOL    HW239963   8.423   4.078  10.123  0.9941 -0.2598 -1.2222
42662SOL     OW39964   3.070   9.860  11.921 -0.4607  0.4379 -0.4391
42662SOL    HW139965   3.046   9.807  11.845  1.3260 -1.6159  0.3194
42662SOL    HW239966   3.160   9.887  11.903 -0.6974  1.6008  0.0781
42663SOL     OW39967   9.226  10.241  12.332  0.2196 -0.2994 -0.7886
42663SOL    HW139968   9.285  10.252  12.407 -1.2537 -1.4072  0.5992
42663SOL    HW239969   9.193  10.328  12.313  0.2057 -0.0848  0.2062
42664SOL     OW39970   2.632   9.650  11.123 -0.0386 -0.1417 -0.7834
42664SOL    HW139971   2.561   9.614  11.070  0.3414  0.5437 -1.7967
42664SOL    HW239972   2.664   9.576  11.175 -0.5206 -0.8018 -1.4149
42665SOL     OW39973   1.239   6.694   0.998  0.3183  0.0939 -0.7727
42665SOL    HW139974   1.175   6.628   0.976  2.4190 -1.5438 -2.4022
42665SOL    HW239975   1.192   6.777   0.990 -2.1785 -1.0906  0.5283
42666SOL     OW39976   5.451  12.654   4.918  0.3735 -0.3337  0.2443
42666SOL    HW139977   5.374  12.686   4.965  0.2494 -0.5603  0.1964
42666SOL    HW239978   5.513  12.633   4.987  1.0244  1.3975  0.2415
42667SOL     OW39979  11.798   8.980   8.500  0.0896 -0.0635  0.2562
42667SOL    HW139980  11.793   8.933   8.417  1.6227 -0.2016  0.2033
42667SOL    HW239981  11.767   8.917   8.565  1.0521 -0.7843  0.0459
42668SOL     OW39982   0.802   2.929   6.320 -0.6603  0.1324 -0.5188
42668SOL    HW139983   0.801   3.016   6.280  0.1265  0.7584  0.7673
42668SOL    HW239984   0.765   2.942   6.408 -0.9272 -0.9226 -0.4561
42669SOL     OW39985   1.744   6.991  14.040 -0.1817 -0.3512  0.0542
42669SOL    HW139986   1.683   7.064  14.053  0.0254  0.1510 -1.5614
42669SOL    HW239987   1.697   6.932  13.981  0.8509  0.0052 -1.1503
42670SOL     OW39988   0.733   8.921   1.709  0.1026  0.5930 -0.5210
42670SOL    HW139989   0.681   8.929   1.789 -0.7739 -2.8761 -0.5843
42670SOL    HW239990   0.711   8.999   1.658 -1.2115  1.6617  1.5524
42671SOL     OW39991   9.134  13.746   4.867 -0.5222 -0.0904 -0.1908
42671SOL    HW139992   9.170  13.676   4.812 -2.0587  0.0846 -1.4925
42671SOL    HW239993   9.211  13.793   4.899  0.5273 -1.9327  0.1728
42672SOL     OW39994  13.452   4.167   9.598  0.4521 -0.2762  0.0533
42672SOL    HW139995  13.532   4.149   9.648  0.3764  1.0827  0.6959
42672SOL    HW239996  13.484   4.200   9.513  0.5780  0.0452  0.2247
42673SOL     OW39997   5.603   3.885   6.509 -0.2165 -0.0375 -0.0490
42673SOL    HW139998   5.627   3.836   6.587 -0.0342  0.9054  0.5036
42673SOL    HW239999   5.650   3.842   6.438  1.7331  0.6474  0.7463
42674SOL     OW40000   9.212   6.372   1.932  0.2695 -0.2365  0.3661
42674SOL    HW140001   9.250   6.404   1.850 -1.5775 -0.8136 -0.7699
42674SOL    HW240002   9.149   6.305   1.906 -0.0619 -0.7618  2.3008
42675SOL     OW40003   4.927   5.811   6.533  0.0846 -0.0652 -0.4635
42675SOL    HW140004   4.880   5.769   6.605 -0.5138  1.9998  0.4180
42675SOL    HW240005   4.868   5.802   6.458  0.1618 -1.1326 -0.4175
42676SOL     OW40006   2.711   2.251   4.781 -0.5849  0.3969 -0.8700
42676SOL    HW140007   2.670   2.261   4.695 -1.4804  0.9890 -0.3918
42676SOL    HW240008   2.780   2.317   4.783 -1.3264  1.1823 -0.7062
42677SOL     OW40009   5.311   2.520   0.854 -0.0714  0.1846 -0.0706
42677SOL    HW140010   5.298   2.427   0.836  0.4816 -0.2006  1.3762
42677SOL    HW240011   5.223   2.558   0.849 -0.6987 -0.8867  1.6853
42678SOL     OW40012   4.047   5.579  12.107 -0.0842 -0.0676  0.5828
42678SOL    HW140013   4.094   5.618  12.033  0.3526 -3.0326 -0.8397
42678SOL    HW240014   4.097   5.605  12.184  2.7621 -1.4081 -0.6936
42679SOL     OW40015  13.938   8.008   1.872 -0.0367 -0.2803 -0.5159
42679SOL    HW140016  13.882   7.931   1.860 -0.2220  0.0908 -2.3416
42679SOL    HW240017  14.015   7.974   1.918 -0.4135 -1.4186 -0.6778
42680SOL     OW40018   1.402  12.489   1.493  0.4757  0.1226  0.6745
42680SOL    HW140019   1.431  12.580   1.484 -0.4178  0.5216  1.5181
42680SOL    HW240020   1.326  12.495   1.551  0.6600 -1.2187  1.0822
42681SOL     OW40021   4.345   4.439   8.953  0.1512 -0.3133 -0.2158
42681SOL    HW140022   4.256   4.472   8.946  0.0191 -0.4623  0.7208
42681SOL    HW240023   4.343   4.378   9.027  0.9819 -0.4712 -0.3133
42682SOL     OW40024  10.992  12.262   0.615 -0.5647  0.1523  0.7592
42682SOL    HW140025  11.019  12.282   0.525 -0.3580  2.1855  1.2375
42682SOL    HW240026  10.935  12.185   0.605 -0.1329  0.0046 -1.0357
42683SOL     OW40027   2.363   9.620  11.736  0.3218 -0.0180  0.3429
42683SOL    HW140028   2.399   9.669  11.811  0.5332  2.5923 -1.3358
42683SOL    HW240029   2.431   9.626  11.669  0.4192 -2.8965  0.0757
42684SOL     OW40030  11.596  12.860   1.097  0.3563  1.0024 -0.1341
42684SOL    HW140031  11.511  12.877   1.137  0.3498 -1.1530  0.9318
42684SOL    HW240032  11.651  12.830   1.169  0.9802 -0.9400 -1.3460
42685SOL     OW40033   0.961   5.646   6.228  0.5387 -0.1013 -0.1942
42685SOL    HW140034   0.911   5.608   6.156  2.2791 -0.0725 -1.4904
42685SOL    HW240035   0.935   5.738   6.229 -0.6350 -0.4264  0.2439
42686SOL     OW40036   4.025  13.495   6.853  0.3545 -0.9120 -0.0519
42686SOL    HW140037   3.975  13.510   6.933  1.1812 -2.7633  0.8691
42686SOL    HW240038   3.965  13.447   6.796 -0.0322 -0.1156 -0.3361
42687SOL     OW40039  10.526  14.035   3.718  0.4712 -0.4324 -0.1270
42687SOL    HW140040  10.441  14.081   3.725  0.2999 -0.8067  0.3307
42687SOL    HW240041  10.532  14.009   3.626  0.4874  0.3521 -0.3542
42688SOL     OW40042   8.993   9.050  10.184  0.3097  0.4286 -0.3493
42688SOL    HW140043   8.929   9.010  10.125 -0.0965 -1.1109  1.0584
42688SOL    HW240044   9.029   8.976  10.234 -1.8164  1.8456  3.7305
42689SOL     OW40045  11.764   0.136   8.068 -0.2826 -0.6406  0.3079
42689SOL    HW140046  11.843   0.090   8.097 -0.7062 -1.1779  0.6430
42689SOL    HW240047  11.718   0.072   8.014 -0.0586 -0.0267 -0.6350
42690SOL     OW40048  10.556   7.992   6.959 -0.0090  0.1318 -0.5478
42690SOL    HW140049  10.464   8.012   6.974 -0.2490  0.9277 -2.8376
42690SOL    HW240050  10.556   7.923   6.894  0.9783  1.7102 -2.3224
42691SOL     OW40051   0.574  12.052   3.855 -0.3987 -0.2419  0.3672
42691SOL    HW140052   0.550  11.959   3.850  1.4020 -0.7143 -0.4771
42691SOL    HW240053   0.503  12.093   3.904 -2.0523 -1.7659 -0.6404
42692SOL     OW40054   9.128   5.782   4.184 -0.0580  0.1885 -0.0664
42692SOL    HW140055   9.117   5.873   4.155  2.8340  0.7505  0.3147
42692SOL    HW240056   9.043   5.742   4.167 -1.6519  3.0827  0.2842
42693SOL     OW40057   8.046  13.881   1.617 -0.1651 -0.8333  0.0423
42693SOL    HW140058   8.088  13.938   1.553  0.1924 -1.2438 -0.1042
42693SOL    HW240059   8.001  13.814   1.564  0.8643 -1.6876  0.2020
42694SOL     OW40060   8.740   0.947   5.265 -0.1933 -0.3001  0.1024
42694SOL    HW140061   8.811   0.884   5.269 -0.3852 -0.4675  1.2066
42694SOL    HW240062   8.689   0.922   5.188 -0.1369 -1.3517  0.4027
42695SOL     OW40063  13.191   5.908   4.321  0.1712 -0.4474  0.0019
42695SOL    HW140064  13.155   5.972   4.259 -0.7434  0.4152  1.3801
42695SOL    HW240065  13.128   5.906   4.393  1.6027 -0.8160  1.2863
42696SOL     OW40066   1.882   3.912  11.473 -0.1314  0.2184 -0.1446
42696SOL    HW140067   1.834   3.965  11.537  1.7753 -0.0454  1.6028
42696SOL    HW240068   1.814   3.872  11.419 -1.8390  0.3425  1.7994
42697SOL     OW40069   8.486   4.246   5.515 -0.3410  0.0537 -0.4206
42697SOL    HW140070   8.552   4.277   5.454  0.0076  0.5085  0.1844
42697SOL    HW240071   8.415   4.214   5.459  0.8374 -1.5043 -1.1065
42698SOL     OW40072   5.384   2.016   1.356 -0.1204 -0.1160 -1.1149
42698SOL    HW140073   5.388   2.045   1.447  0.1725 -1.1730 -0.7794
42698SOL    HW240074   5.291   1.997   1.341  0.0336 -1.5419 -0.4913
42699SOL     OW40075  12.794   5.222   9.092 -0.5683 -0.0422 -0.1740
42699SOL    HW140076  12.774   5.162   9.020  0.0641 -0.3529 -0.0992
42699SOL    HW240077  12.752   5.183   9.168 -0.4504 -0.2057 -0.1929
42700SOL     OW40078   3.965   9.172  10.060  0.2489  0.1082 -0.2968
42700SOL    HW140079   3.916   9.241  10.014 -1.6704 -1.9643 -1.5305
42700SOL    HW240080   3.981   9.209  10.147 -2.5064  1.4090 -0.2120
42701SOL     OW40081   7.293  11.685   7.455 -0.2599  0.1250  0.3311
42701SOL    HW140082   7.290  11.681   7.360  0.5406 -0.0406  0.3031
42701SOL    HW240083   7.300  11.778   7.475  0.2417  0.1196  0.1944
42702SOL     OW40084   5.931   9.176   7.834 -0.2900 -0.1380  0.6231
42702SOL    HW140085   5.915   9.134   7.918 -1.2632 -1.1110 -0.0189
42702SOL    HW240086   6.012   9.135   7.802 -0.4590 -0.4940  0.6443
42703SOL     OW40087   6.114   2.868   8.572  0.1553  0.1228 -0.5673
42703SOL    HW140088   6.203   2.903   8.567 -0.1087  0.7746 -0.8036
42703SOL    HW240089   6.057   2.944   8.560 -0.4796  0.2227  2.2117
42704SOL     OW40090   9.881   4.364   3.685 -0.2190  0.1055 -0.0252
42704SOL    HW140091   9.836   4.448   3.694  0.3232  0.2832  1.2872
42704SOL    HW240092   9.907   4.341   3.775  2.6958  0.2408 -0.7513
42705SOL     OW40093   7.098   4.557   6.736  0.1634  0.0392  0.1572
42705SOL    HW140094   7.082   4.498   6.663  1.1789  1.8130 -1.5763
42705SOL    HW240095   7.056   4.514   6.811  1.3462 -3.1386 -0.8435
42706SOL     OW40096   1.177  12.477   4.074  0.1830 -0.5503 -0.2225
42706SOL    HW140097   1.223  12.393   4.069  0.2404 -0.4838 -0.8079
42706SOL    HW240098   1.098  12.457   4.126 -0.5175 -1.3045 -1.5251
42707SOL     OW40099   7.954   6.607   0.405  0.2479 -0.1577 -0.2279
42707SOL    HW140100   8.028   6.661   0.378  0.7514  0.1828  1.6961
42707SOL    HW240101   7.951   6.616   0.500 -1.7978 -0.7906 -0.1894
42708SOL     OW40102   4.490  13.973   3.122  0.2566  0.2959 -0.0522
42708SOL    HW140103   4.436  14.048   3.097 -0.7196  0.3037  1.8807
42708SOL    HW240104   4.574  14.011   3.147  0.6007  0.4666 -1.4048
42709SOL     OW40105   1.153   6.673   0.700  0.8291  0.2248  0.0651
42709SOL    HW140106   1.154   6.588   0.743  1.2098  0.4220  0.4557
42709SOL    HW240107   1.206   6.660   0.621 -0.4187 -0.3111 -0.6972
42710SOL     OW40108   9.229   7.912   7.223 -0.6881  0.1827 -0.0051
42710SOL    HW140109   9.172   7.838   7.202 -0.4220  0.4119 -1.6572
42710SOL    HW240110   9.278   7.882   7.300 -1.4873 -0.8578  0.1256
42711SOL     OW40111  12.432   0.748   7.476  0.2268  0.0285  0.4898
42711SOL    HW140112  12.388   0.671   7.513  1.0791 -0.1936  1.0785
42711SOL    HW240113  12.421   0.739   7.382 -1.6752  0.4118  0.6324
42712SOL     OW40114   9.208   4.270  12.967 -0.3031  0.2031 -0.0487
42712SOL    HW140115   9.155   4.324  12.907 -0.8617  0.9206  1.0430
42712SOL    HW240116   9.153   4.194  12.985  0.5613 -0.8790 -1.7358
42713SOL     OW40117   0.496   1.552   3.480  0.6479 -0.9270  0.2892
42713SOL    HW140118   0.511   1.477   3.538 -0.1422 -1.4419 -0.1612
42713SOL    HW240119   0.416   1.593   3.514  1.5694  0.2799  1.0993
42714SOL     OW40120   7.479   0.316   9.716 -0.6922  0.3663 -0.2373
42714SOL    HW140121   7.563   0.285   9.682 -0.2303  0.3683  0.8792
42714SOL    HW240122   7.496   0.339   9.807 -1.3875  2.4530 -0.5847
42715SOL     OW40123   4.967   3.987   9.311  0.4124 -0.5103  0.4636
42715SOL    HW140124   4.968   3.906   9.260 -1.1293  0.7701 -1.8177
42715SOL    HW240125   5.059   4.009   9.324  0.8847 -1.2780 -1.2586
42716SOL     OW40126  10.084   1.827   4.412  0.5682  0.1868  0.2344
42716SOL    HW140127  10.149   1.854   4.477 -1.1243  1.6701  1.4073
42716SOL    HW240128  10.074   1.903   4.354 -1.5908  0.8703  1.3664
42717SOL     OW40129  10.098   0.145   0.291  0.0754 -0.1145 -0.1475
42717SOL    HW140130  10.129   0.056   0.274 -1.0496 -0.5661  0.1031
42717SOL    HW240131  10.056   0.140   0.376 -0.7177  0.4587 -0.4948
42718SOL     OW40132   1.329  13.207  13.097  0.3010 -0.3521  0.7930
42718SOL    HW140133   1.358  13.287  13.053 -0.1265 -1.1153 -0.9241
42718SOL    HW240134   1.289  13.238  13.179 -3.3409  1.6237 -1.4911
42719SOL     OW40135   1.520  11.488   9.546  0.1110 -0.7640  0.2711
42719SOL    HW140136   1.467  11.529   9.477  0.5038  0.7031  0.7956
42719SOL    HW240137   1.457  11.437   9.597 -0.7416  0.5177  0.5690
42720SOL     OW40138  11.129   3.768  12.347 -0.1442  0.2070  0.7044
42720SOL    HW140139  11.122   3.863  12.340 -0.4398  0.1753  0.5877
42720SOL    HW240140  11.044   3.739  12.380 -0.5613 -0.1556 -0.6189
42721SOL     OW40141  13.530   5.985  13.624 -0.0454 -0.2058  0.2606
42721SOL    HW140142  13.523   5.890  13.612  0.2579 -0.1329 -0.5434
42721SOL    HW240143  13.594   5.994  13.695 -0.7703 -0.6162  0.9831
42722SOL     OW40144   1.881   9.507   0.921 -0.3410 -0.3989 -1.2229
42722SOL    HW140145   1.944   9.445   0.958  0.1878  1.4647  1.2719
42722SOL    HW240146   1.933   9.559   0.859  0.7605  1.1770  0.8719
42723SOL     OW40147   0.274  10.080  12.868 -0.4794 -1.0850 -0.3765
42723SOL    HW140148   0.347  10.038  12.821 -0.4801  0.4400 -1.8584
42723SOL    HW240149   0.309  10.098  12.955  0.2367 -2.1437 -0.4201
42724SOL     OW40150   3.502  10.284  13.337 -0.1293 -0.3393  0.1931
42724SOL    HW140151   3.508  10.311  13.429 -1.1142 -2.6945  1.0309
42724SOL    HW240152   3.474  10.363  13.291  1.3827  1.1745  1.7214
42725SOL     OW40153   3.823  12.063   6.894  0.2944 -0.1279  0.3501
42725SOL    HW140154   3.807  12.081   6.801 -1.5918  2.8144  1.1051
42725SOL    HW240155   3.914  12.088   6.908  0.0853  1.1471 -0.3936
42726SOL     OW40156   7.255   8.875   2.554  0.2543  0.1408 -0.3170
42726SOL    HW140157   7.342   8.845   2.526  0.6670  1.9600 -1.1186
42726SOL    HW240158   7.202   8.870   2.475 -0.1271 -0.0814 -0.0484
42727SOL     OW40159   2.163  12.853   6.655 -0.0117  0.2210  0.2062
42727SOL    HW140160   2.226  12.833   6.725  1.8106  2.2886 -0.7245
42727SOL    HW240161   2.161  12.773   6.601  1.3673 -0.1061  0.6016
42728SOL     OW40162   3.365  13.703  10.253  0.0451 -0.1399 -0.1517
42728SOL    HW140163   3.303  13.638  10.287 -0.6012  1.5197  2.1329
42728SOL    HW240164   3.310  13.769  10.211  0.5985 -0.4437 -1.3867
42729SOL     OW40165   7.430   6.324   2.661  0.1887  0.1147  0.4568
42729SOL    HW140166   7.433   6.265   2.737  1.0443  2.7686  2.6674
42729SOL    HW240167   7.341   6.359   2.662  0.0999 -0.0936  0.0073
42730SOL     OW40168   4.802   6.840   3.244 -0.3159  0.2499  0.1048
42730SOL    HW140169   4.877   6.897   3.229 -0.5659  1.0926  1.7432
42730SOL    HW240170   4.738   6.896   3.288 -0.6688 -1.2312  1.5786
42731SOL     OW40171   8.428  13.648   8.672 -0.6639  0.1840  0.0069
42731SOL    HW140172   8.340  13.685   8.666 -0.3123  1.1198  0.3422
42731SOL    HW240173   8.449  13.622   8.583 -1.3073 -0.1191 -0.0611
42732SOL     OW40174  12.644   9.644   6.395  0.0146  0.1370 -0.0986
42732SOL    HW140175  12.731   9.645   6.357  0.4529 -0.7564  0.8371
42732SOL    HW240176  12.623   9.736   6.409  0.5523  0.3863 -0.8846
42733SOL     OW40177   3.616  12.168   0.133 -0.1835  0.1264  0.2191
42733SOL    HW140178   3.604  12.261   0.153 -0.6216  0.1361 -0.0741
42733SOL    HW240179   3.672  12.167   0.055  1.2543  0.0967  1.2165
42734SOL     OW40180   0.484   3.941   2.871  0.6279 -0.1307  0.1821
42734SOL    HW140181   0.572   3.912   2.894  0.6703 -0.3468 -0.2434
42734SOL    HW240182   0.430   3.914   2.945  0.4791 -2.2627 -0.6530
42735SOL     OW40183   5.810   8.622   1.574  0.5243 -0.1562 -0.2556
42735SOL    HW140184   5.884   8.570   1.542 -0.1129 -1.0061 -0.3627
42735SOL    HW240185   5.851   8.691   1.627  1.3355 -1.2648  0.5956
42736SOL     OW40186   0.601  10.074   8.126 -0.0026 -0.1716 -0.2729
42736SOL    HW140187   0.660  10.099   8.198  0.8204 -0.9918 -0.6456
42736SOL    HW240188   0.657  10.026   8.065 -1.2442 -1.8793 -0.1538
42737SOL     OW40189  10.131  11.217  11.516 -0.5632  0.2554  0.4873
42737SOL    HW140190  10.166  11.173  11.439 -0.1119  0.5829  0.5043
42737SOL    HW240191  10.056  11.267  11.484  0.2031  1.1681  0.0737
42738SOL     OW40192   7.328   4.362   4.764 -0.5895 -0.2594 -0.0373
42738SOL    HW140193   7.338   4.411   4.845  0.5258 -0.5041 -0.0207
42738SOL    HW240194   7.345   4.271   4.788  0.2643 -0.2675 -0.6340
42739SOL     OW40195   4.606   2.557   0.828 -0.2006  0.0882 -0.1628
42739SOL    HW140196   4.685   2.609   0.841  0.6539 -1.3301  0.6248
42739SOL    HW240197   4.592   2.514   0.913 -0.8818 -0.9186 -0.7690
42740SOL     OW40198  11.585   3.870   1.345  0.0816 -0.0646  0.6623
42740SOL    HW140199  11.604   3.946   1.290  0.0498 -0.1542  0.5262
42740SOL    HW240200  11.524   3.818   1.293  0.9370 -0.7243  0.2828
42741SOL     OW40201   8.450  12.519  12.048 -0.2203  0.4362  0.0912
42741SOL    HW140202   8.532  12.473  12.033 -0.4399 -0.2998  1.0495
42741SOL    HW240203   8.382  12.456  12.025 -0.5392  1.0356 -0.6897
42742SOL     OW40204  12.365   4.378   5.938  0.5310 -0.3729 -0.0722
42742SOL    HW140205  12.366   4.463   5.893  0.3232 -0.0368  0.5519
42742SOL    HW240206  12.422   4.323   5.885  0.2812  0.0098 -0.7642
42743SOL     OW40207  10.045   4.648   7.470  0.0556  0.4012  0.8008
42743SOL    HW140208  10.070   4.741   7.472 -0.0567  0.4144  1.9674
42743SOL    HW240209   9.976   4.641   7.535 -0.9728 -0.2255 -0.3195
42744SOL     OW40210   2.617   7.974   4.207  0.3101  0.1985 -0.0678
42744SOL    HW140211   2.708   7.992   4.183 -0.3455  3.3077 -0.6627
42744SOL    HW240212   2.618   7.969   4.302  1.1632 -0.4983 -0.0949
42745SOL     OW40213  12.782   8.289   0.598  0.3982  0.2326 -0.1997
42745SOL    HW140214  12.724   8.327   0.532 -2.5125 -0.9932  1.4832
42745SOL    HW240215  12.786   8.355   0.667 -0.5792 -0.4457  0.5202
42746SOL     OW40216  11.668  13.070   7.035 -0.0077  0.3650  0.7467
42746SOL    HW140217  11.739  13.070   6.971  0.4426  1.5610  1.2150
42746SOL    HW240218  11.701  13.124   7.107 -1.1171  0.3472  1.2852
42747SOL     OW40219  10.953   1.676  10.251 -0.0883  0.3032 -0.1732
42747SOL    HW140220  10.973   1.589  10.216  2.8537 -0.7032  3.3732
42747SOL    HW240221  10.920   1.659  10.340  0.0055  2.8090  0.4170
42748SOL     OW40222   2.728  10.031   1.156  0.5394  0.1898 -0.3186
42748SOL    HW140223   2.758  10.046   1.246 -2.4299 -1.4991  1.0928
42748SOL    HW240224   2.709  10.119   1.123 -1.5390  0.7328  2.0100
42749SOL     OW40225   4.278   1.930  11.608  0.0138  0.1374  0.2050
42749SOL    HW140226   4.372   1.920  11.597  0.0404  0.0714  0.5051
42749SOL    HW240227   4.250   1.850  11.652  0.0206  0.7520  1.3561
42750SOL     OW40228  10.667   3.977   7.122 -0.4736 -0.5343 -0.3097
42750SOL    HW140229  10.630   3.916   7.058 -0.6819 -0.5002 -0.2211
42750SOL    HW240230  10.678   4.059   7.073 -0.2448 -0.6276 -0.4139
42751SOL     OW40231   7.399  11.289  11.658  0.3007  0.8330 -0.1424
42751SOL    HW140232   7.427  11.371  11.618  1.3491  0.8407  0.5737
42751SOL    HW240233   7.404  11.305  11.752 -0.5232  0.2823  0.0053
42752SOL     OW40234   2.356   1.678   0.860  0.2475 -0.5647  0.1062
42752SOL    HW140235   2.358   1.605   0.923  0.3486 -0.1344  0.6119
42752SOL    HW240236   2.284   1.733   0.890  0.3965 -0.2741 -0.0690
42753SOL     OW40237   9.851   3.210   7.636 -0.3069  0.5487 -0.3156
42753SOL    HW140238   9.804   3.209   7.719  1.0202  1.0090  0.4815
42753SOL    HW240239   9.878   3.301   7.625 -0.1974  0.4280 -1.0902
42754SOL     OW40240   8.107   0.116   5.671  0.2614 -0.3444 -0.4496
42754SOL    HW140241   8.179   0.094   5.730 -0.0500  1.6800  0.7833
42754SOL    HW240242   8.145   0.109   5.584  1.1929 -1.8646  0.0400
42755SOL     OW40243   5.439   8.953  10.147 -0.2503  0.0998  0.0361
42755SOL    HW140244   5.394   8.949  10.063 -0.0170 -0.3277 -0.0698
42755SOL    HW240245   5.394   8.887  10.201 -0.5100  0.4886  0.3057
42756SOL     OW40246   1.420  10.574   0.841 -0.4834 -0.0931  0.3920
42756SOL    HW140247   1.450  10.519   0.913  1.3051 -0.9574 -0.9481
42756SOL    HW240248   1.451  10.662   0.864  3.1399 -0.8829 -0.7796
42757SOL     OW40249   2.049  12.350   1.852 -0.7010 -0.0871  0.6920
42757SOL    HW140250   2.073  12.432   1.808  1.4717 -2.2790 -2.6793
42757SOL    HW240251   2.032  12.376   1.943 -0.2320  4.0723 -0.1991
42758SOL     OW40252   9.906   6.665  13.811  0.0456  0.5509 -0.7684
42758SOL    HW140253   9.982   6.627  13.855 -0.3402 -0.4269 -0.9249
42758SOL    HW240254   9.851   6.590  13.787 -0.9839  1.2360 -0.6425
42759SOL     OW40255   2.012   8.342   5.913  0.5151  0.3088  0.5418
42759SOL    HW140256   2.083   8.388   5.957  1.0625 -0.0137  0.0173
42759SOL    HW240257   1.933   8.391   5.937  0.8938  0.5978  1.2315
42760SOL     OW40258   9.739   4.609   2.481  0.6594  0.2169  0.2169
42760SOL    HW140259   9.679   4.553   2.433 -0.4279  0.9682  0.6593
42760SOL    HW240260   9.826   4.585   2.448  0.0638 -0.3284 -1.0214
42761SOL     OW40261  10.342   7.715  12.632 -0.4540  0.0029 -0.2483
42761SOL    HW140262  10.435   7.709  12.654 -0.6329  2.1828  1.4401
42761SOL    HW240263  10.338   7.780  12.563 -0.7216 -0.0712 -0.3027
42762SOL     OW40264   5.747  10.670   7.383  0.7397 -0.5915  0.3111
42762SOL    HW140265   5.780  10.717   7.460 -1.1081  1.1761  0.1005
42762SOL    HW240266   5.665  10.631   7.412  0.8159 -1.2534 -0.3390
42763SOL     OW40267   5.646   8.140  12.075  0.4536  0.7244  0.1872
42763SOL    HW140268   5.659   8.193  11.997 -0.6890  0.6908 -0.0369
42763SOL    HW240269   5.729   8.093  12.086  0.9627  1.4599 -0.4364
42764SOL     OW40270   0.940   6.833   0.649  0.2513  0.2675 -0.0280
42764SOL    HW140271   0.895   6.804   0.729 -0.9103 -1.1045 -1.1164
42764SOL    HW240272   1.017   6.777   0.644  0.5676  0.6644  0.3607
42765SOL     OW40273  14.028   5.626   8.180  0.1176  0.0297 -0.2254
42765SOL    HW140274  14.006   5.686   8.253  0.1005 -0.0274 -0.1832
42765SOL    HW240275  13.966   5.554   8.190  0.4864 -0.2519  0.0385
42766SOL     OW40276  12.569   6.950   5.100  0.3124 -0.1819 -0.3710
42766SOL    HW140277  12.493   6.991   5.058  0.1239  0.1052  0.2331
42766SOL    HW240278  12.639   6.958   5.036 -0.3301 -1.0567 -1.2129
42767SOL     OW40279  12.556   7.237   2.221 -0.1724 -0.4188 -0.2108
42767SOL    HW140280  12.537   7.288   2.142 -0.3445  1.2297  0.8438
42767SOL    HW240281  12.601   7.298   2.280  1.7879 -2.1636  0.2370
42768SOL     OW40282   2.647   7.861  10.359  0.8848 -0.5947  0.1333
42768SOL    HW140283   2.612   7.941  10.399  2.3769 -0.9015  2.2366
42768SOL    HW240284   2.584   7.793  10.383  0.2966 -0.3026 -0.5331
42769SOL     OW40285  11.799   6.840  13.662  0.2809  0.2956 -0.6506
42769SOL    HW140286  11.739   6.767  13.674 -1.3823  1.8313  0.9957
42769SOL    HW240287  11.772   6.905  13.727  1.3649  2.5776 -2.3249
42770SOL     OW40288  12.069   6.559   3.949  0.0189 -0.4650 -0.1224
42770SOL    HW140289  12.018   6.490   3.906  1.7901 -2.8927  1.3434
42770SOL    HW240290  12.074   6.530   4.040 -1.0885  2.9099  1.1482
42771SOL     OW40291   3.355  11.652   1.276 -0.2847  0.3356 -0.2737
42771SOL    HW140292   3.270  11.609   1.270 -0.2416 -0.1375  1.7806
42771SOL    HW240293   3.389  11.628   1.362  0.8241  2.5173 -0.0092
42772SOL     OW40294   5.138   0.261   5.529  0.0004  0.2116 -0.4547
42772SOL    HW140295   5.137   0.343   5.579 -3.7173  0.6740 -1.0050
42772SOL    HW240296   5.124   0.193   5.594  1.4262  0.1373 -0.1982
42773SOL     OW40297   2.235   1.100   5.581  1.0935 -0.2785  0.3102
42773SOL    HW140298   2.142   1.106   5.560  1.2374  0.3170 -0.1754
42773SOL    HW240299   2.238   1.098   5.677  0.5953 -0.0560  0.3330
42774SOL     OW40300  12.712   7.252  10.313 -0.0320 -0.2754 -0.0689
42774SOL    HW140301  12.679   7.174  10.359  1.5509 -1.9646 -1.6563
42774SOL    HW240302  12.692   7.236  10.221  0.6008  1.0837 -0.4732
42775SOL     OW40303   3.179   9.144   2.228 -0.3204 -0.0083 -0.4875
42775SOL    HW140304   3.180   9.156   2.323 -1.8874  1.9025 -0.6427
42775SOL    HW240305   3.186   9.049   2.215  2.4775 -0.1724  1.3876
42776SOL     OW40306  12.499  13.455   1.899 -0.2028  0.1049 -0.2231
42776SOL    HW140307  12.557  13.505   1.840  0.2574 -0.5404 -0.3291
42776SOL    HW240308  12.442  13.521   1.938 -0.8820  0.4809 -1.8051
42777SOL     OW40309   6.460  13.744   3.653 -0.0996 -0.1923 -0.1755
42777SOL    HW140310   6.437  13.673   3.593  0.8597 -1.1049  0.5105
42777SOL    HW240311   6.433  13.824   3.607  1.2525 -0.7968 -2.1340
42778SOL     OW40312   1.293   5.255   6.709  0.1648 -0.0136 -0.1644
42778SOL    HW140313   1.301   5.179   6.768 -3.4915  1.2178  2.2715
42778SOL    HW240314   1.262   5.218   6.627 -1.4042 -1.2655  0.9208
42779SOL     OW40315   1.088   1.856   4.664 -0.0897  0.3215  0.2371
42779SOL    HW140316   1.054   1.939   4.630 -0.2674 -0.2229 -0.9296
42779SOL    HW240317   1.021   1.791   4.642 -0.6615  0.0672  2.4417
42780SOL     OW40318   6.145   8.696   2.463  0.0435  0.0885 -0.6839
42780SOL    HW140319   6.154   8.678   2.369 -0.8023  0.2344 -0.7972
42780SOL    HW240320   6.060   8.661   2.487  0.2086  0.1480  0.0117
42781SOL     OW40321  13.635   3.684  13.519 -0.5289  0.1603 -0.0330
42781SOL    HW140322  13.645   3.674  13.614  0.8421  1.7680  0.0528
42781SOL    HW240323  13.609   3.776  13.508 -0.0523  0.1678 -1.2411
42782SOL     OW40324   7.126   7.998   2.392 -0.4589 -0.0624 -0.1164
42782SOL    HW140325   7.039   7.961   2.406 -0.2442 -0.2027  0.8947
42782SOL    HW240326   7.184   7.943   2.445  0.0604  0.8541  0.2814
42783SOL     OW40327   7.272  10.970   0.036  0.4175  0.5195  0.2373
42783SOL    HW140328   7.304  11.015  -0.041 -0.9660 -1.7292 -1.7979
42783SOL    HW240329   7.331  10.895   0.048 -0.5506 -0.3094  0.0484
42784SOL     OW40330   4.530   1.454   7.968 -0.0810 -0.0053  0.2630
42784SOL    HW140331   4.518   1.488   7.879  2.1397  1.2936  0.3959
42784SOL    HW240332   4.475   1.510   8.023 -0.0413  0.3740 -0.0799
42785SOL     OW40333  13.928   1.730   5.388  0.0681  0.0915  0.2662
42785SOL    HW140334  13.911   1.711   5.296 -4.0413 -0.5664  0.9682
42785SOL    HW240335  14.000   1.793   5.386  0.6447 -0.4573 -3.3129
42786SOL     OW40336   9.982   9.862  10.844  0.3551  0.6947  0.0055
42786SOL    HW140337   9.968   9.895  10.755 -1.1687  0.7872  0.2471
42786SOL    HW240338   9.899   9.819  10.866 -0.0329  2.3407  2.0799
42787SOL     OW40339   9.786   8.434   8.847  0.3693 -0.4244 -0.6166
42787SOL    HW140340   9.709   8.483   8.876 -0.1161 -0.8646 -1.1461
42787SOL    HW240341   9.772   8.345   8.879  0.6115 -0.5319 -0.8057
42788SOL     OW40342   5.390   0.395   7.791 -0.1973 -0.1536 -0.3606
42788SOL    HW140343   5.431   0.378   7.706  1.3929 -0.6165  0.4559
42788SOL    HW240344   5.458   0.373   7.855 -1.3064  0.3314  1.0335
42789SOL     OW40345   3.356   1.070  12.714  0.1974 -0.0030  0.0604
42789SOL    HW140346   3.277   1.029  12.678  0.8267  0.0524 -1.4779
42789SOL    HW240347   3.386   1.128  12.645  1.7091 -0.1940  0.5196
42790SOL     OW40348  11.577   5.062  12.410 -0.5611 -0.0345  0.1846
42790SOL    HW140349  11.515   5.047  12.339 -0.1657 -1.2726  0.0695
42790SOL    HW240350  11.627   5.139  12.383  0.3957 -1.1734 -1.4838
42791SOL     OW40351   1.091   3.782   4.062 -0.6248 -0.4387  0.3554
42791SOL    HW140352   1.034   3.705   4.061 -0.6848 -0.4151 -1.3973
42791SOL    HW240353   1.034   3.854   4.089 -1.2369 -0.5627 -0.5803
42792SOL     OW40354   2.005  10.160   2.538 -0.1982 -0.0050  0.1092
42792SOL    HW140355   1.968  10.100   2.603 -1.5946 -0.7552 -1.3069
42792SOL    HW240356   2.052  10.103   2.477 -0.0516  0.5462 -0.2972
42793SOL     OW40357  12.175   5.432   0.819  0.2729 -0.0241 -0.3778
42793SOL    HW140358  12.230   5.498   0.777  1.1253  0.5907  1.5812
42793SOL    HW240359  12.231   5.356   0.829  0.1223 -0.1197 -0.2517
42794SOL     OW40360   4.320   3.601   9.982 -0.1241 -0.2786 -0.1704
42794SOL    HW140361   4.339   3.657   9.907 -0.3442 -0.7967 -0.6241
42794SOL    HW240362   4.368   3.640  10.055 -0.7786  0.8579 -0.3251
42795SOL     OW40363   5.904   6.371  11.887 -0.4637 -0.3154 -0.5825
42795SOL    HW140364   5.866   6.289  11.917 -0.2304 -0.0680  0.4157
42795SOL    HW240365   5.985   6.345  11.842  0.2047 -0.5637  0.7276
42796SOL     OW40366   8.808   9.785  13.171  0.1093  0.4207  0.1352
42796SOL    HW140367   8.716   9.782  13.199  0.5047  0.9311  1.5767
42796SOL    HW240368   8.816   9.711  13.111 -1.0827 -0.0410  0.5001
42797SOL     OW40369  13.020   3.591   3.886  0.3449 -0.2047 -0.3048
42797SOL    HW140370  13.096   3.556   3.839  1.4856  0.3627  1.0452
42797SOL    HW240371  13.041   3.683   3.900 -0.5926 -0.0430  0.1055
42798SOL     OW40372   6.027  10.201   4.568 -0.2832  0.0273  0.5542
42798SOL    HW140373   5.989  10.189   4.481 -1.1627  2.0075  0.6168
42798SOL    HW240374   6.111  10.244   4.551  0.7461 -1.8546  0.5864
42799SOL     OW40375   1.350   2.700  10.177  0.0166  0.0644 -0.0851
42799SOL    HW140376   1.306   2.730  10.097 -0.0039  0.6965  0.1561
42799SOL    HW240377   1.443   2.697  10.153 -0.0835 -0.6675 -0.4099
42800SOL     OW40378   9.866   3.074   6.478  0.0535 -0.7545  0.1729
42800SOL    HW140379   9.847   3.161   6.443 -1.5956 -1.4210 -0.7279
42800SOL    HW240380   9.833   3.076   6.568 -0.4872 -0.6110 -0.0274
42801SOL     OW40381   1.056   4.254   0.249  0.0006  0.0511 -0.1410
42801SOL    HW140382   1.102   4.335   0.226  0.0590  0.3305  0.8957
42801SOL    HW240383   0.977   4.255   0.195 -0.6229  1.4377  0.7345
42802SOL     OW40384   4.706   4.666   4.781 -0.0877  0.3602  0.6411
42802SOL    HW140385   4.791   4.623   4.795  0.1050  0.7654  0.7276
42802SOL    HW240386   4.643   4.594   4.786  0.2641  0.0240  0.3722
42803SOL     OW40387   6.922  13.020  11.726 -0.0098  0.3195  0.1964
42803SOL    HW140388   6.996  13.050  11.778  0.6006  1.0909 -1.0617
42803SOL    HW240389   6.938  12.927  11.714  0.4959  0.3807  0.3573
42804SOL     OW40390  12.756   3.037   1.463 -0.4102 -0.1371 -0.1895
42804SOL    HW140391  12.844   3.007   1.440 -0.1364  0.0957  0.5487
42804SOL    HW240392  12.767   3.087   1.544 -1.2157 -0.0674 -0.1117
42805SOL     OW40393   4.752   6.306   8.552  0.1639 -0.0718  0.1369
42805SOL    HW140394   4.753   6.254   8.471  0.8970 -0.2041  0.2237
42805SOL    HW240395   4.837   6.287   8.593  0.5088  1.3086  0.1047
42806SOL     OW40396   4.411   7.725   0.807 -0.7257 -0.1387  0.1827
42806SOL    HW140397   4.446   7.703   0.720  0.3971 -1.7685  0.9888
42806SOL    HW240398   4.465   7.674   0.868 -1.6474  0.7757  1.8297
42807SOL     OW40399   2.121   8.777   8.007 -0.2814 -0.2897  0.4965
42807SOL    HW140400   2.071   8.833   8.066  0.3842  0.6856  0.1594
42807SOL    HW240401   2.149   8.704   8.061  0.0941  0.4540  1.3297
42808SOL     OW40402  10.993   4.443   6.147  0.5055  0.1756  0.2365
42808SOL    HW140403  11.081   4.432   6.181 -0.2273 -0.6555  1.9829
42808SOL    HW240404  10.941   4.472   6.222 -0.7537  0.4584 -0.7057
42809SOL     OW40405  13.011   3.870   3.430  0.0044  0.6429  0.2631
42809SOL    HW140406  13.010   3.787   3.478  0.7103 -0.3595 -1.3281
42809SOL    HW240407  13.100   3.875   3.395 -0.2501  1.7180 -0.2648
42810SOL     OW40408   1.566  10.203   7.561 -0.0039  0.3293 -0.5815
42810SOL    HW140409   1.530  10.235   7.643  1.1448 -1.2246  0.6177
42810SOL    HW240410   1.499  10.221   7.495  0.2046  4.2277  0.0860
42811SOL     OW40411  13.311  13.535   5.218  0.2028 -0.1539 -0.0271
42811SOL    HW140412  13.361  13.526   5.299  1.2459  0.1283 -0.6219
42811SOL    HW240413  13.241  13.596   5.240  0.4880 -0.0687  0.6619
42812SOL     OW40414  13.742   4.303  10.664 -0.5872 -0.8573  0.0806
42812SOL    HW140415  13.724   4.329  10.754 -1.4141  0.3209 -0.3967
42812SOL    HW240416  13.656   4.296  10.623 -0.1807  0.7836 -1.1794
42813SOL     OW40417   5.032   9.999   4.273  0.8375 -0.4845  0.1166
42813SOL    HW140418   5.124  10.011   4.295  0.9416 -0.0719 -0.5305
42813SOL    HW240419   5.031   9.929   4.208  0.9969  1.4426 -2.0555
42814SOL     OW40420  12.663   6.067   9.595 -0.1166 -0.0435 -0.0504
42814SOL    HW140421  12.692   6.005   9.662 -0.1471 -1.4032 -1.2423
42814SOL    HW240422  12.610   6.014   9.535 -1.7709  1.5531 -0.0776
42815SOL     OW40423  12.517  12.336   3.387  0.2906  0.0745 -0.0511
42815SOL    HW140424  12.525  12.335   3.483 -0.9806  0.9364  0.0841
42815SOL    HW240425  12.584  12.398   3.358  0.2002  0.3578  0.3353
42816SOL     OW40426   5.697   9.031  10.074 -0.4851 -0.2602  0.0555
42816SOL    HW140427   5.686   9.116  10.116 -1.3671  0.5857 -1.7618
42816SOL    HW240428   5.617   8.983  10.096 -2.3926  1.2591 -2.8565
42817SOL     OW40429  13.351   9.956   8.194 -0.4206 -0.1749 -0.3909
42817SOL    HW140430  13.270   9.921   8.229  0.3246 -0.7595  0.8247
42817SOL    HW240431  13.413   9.883   8.196  0.3497  0.4481 -0.5687
42818SOL     OW40432   5.751  10.959  10.697  0.0572  0.0293 -0.5221
42818SOL    HW140433   5.808  11.028  10.664 -0.4827  1.5950  1.5816
42818SOL    HW240434   5.791  10.932  10.780 -1.9372  0.8406  0.7749
42819SOL     OW40435  12.428   8.276   1.272 -0.8635  0.1048 -0.3521
42819SOL    HW140436  12.374   8.213   1.223 -1.2720 -0.0026  0.2315
42819SOL    HW240437  12.392   8.275   1.360  1.8625 -2.1034  0.8713
42820SOL     OW40438   8.183   1.491   1.173  0.1354 -0.0773 -0.1131
42820SOL    HW140439   8.208   1.546   1.098  0.7234 -0.7028 -0.3833
42820SOL    HW240440   8.103   1.531   1.206  0.6287  1.0359 -0.2191
42821SOL     OW40441   1.771   0.702   5.118  0.5242 -0.5264  0.1429
42821SOL    HW140442   1.726   0.786   5.112 -0.3319 -0.9709  0.2120
42821SOL    HW240443   1.827   0.710   5.196 -0.5536 -0.4775  0.9355
42822SOL     OW40444  11.515   6.043   4.704 -0.1414 -0.6864 -0.2735
42822SOL    HW140445  11.575   5.989   4.652 -1.4040 -1.3966 -1.0492
42822SOL    HW240446  11.461   6.089   4.640  0.0616  0.5338  0.4024
42823SOL     OW40447   5.616   4.869   5.956 -0.1025  0.1865  0.1184
42823SOL    HW140448   5.705   4.842   5.975  0.5095  2.3428  0.6583
42823SOL    HW240449   5.587   4.812   5.885  1.0765 -1.6543  1.0523
42824SOL     OW40450   1.972  11.900   5.034 -0.1620 -0.8099 -0.1345
42824SOL    HW140451   1.910  11.918   5.105 -2.8444 -0.4576 -2.3679
42824SOL    HW240452   1.965  11.806   5.020 -0.4139 -0.7385 -0.5273
42825SOL     OW40453   2.513  13.793  13.472 -0.0811  0.1945  0.0904
42825SOL    HW140454   2.595  13.800  13.520 -1.4843 -0.6543  2.8394
42825SOL    HW240455   2.471  13.715  13.508 -1.4469 -0.3031 -2.3402
42826SOL     OW40456  12.100  10.324   6.781  0.1313  0.3530  0.3443
42826SOL    HW140457  12.024  10.355   6.730  0.9902  0.5161 -0.8879
42826SOL    HW240458  12.075  10.237   6.810 -0.6513  0.5195  0.2015
42827SOL     OW40459   4.359  11.982   7.420 -0.2047  0.5898 -0.1890
42827SOL    HW140460   4.391  12.067   7.448 -1.1430  1.1240 -0.7204
42827SOL    HW240461   4.275  11.999   7.379 -1.4290 -0.8162  1.5446
42828SOL     OW40462   8.659   5.091  12.829 -0.2474  0.3841  0.0503
42828SOL    HW140463   8.738   5.130  12.867  0.5172  0.8667 -1.9144
42828SOL    HW240464   8.592   5.101  12.897  1.0913  0.9883  1.3286
42829SOL     OW40465   0.753   5.879  12.433 -1.0263  0.4789  0.4544
42829SOL    HW140466   0.707   5.952  12.391 -0.8348  1.2102  1.5037
42829SOL    HW240467   0.714   5.872  12.520  0.7131  1.0041  1.3142
42830SOL     OW40468   2.523  12.566   0.798  0.4930  0.2558 -0.1593
42830SOL    HW140469   2.518  12.473   0.819  0.5117  0.6325  1.6653
42830SOL    HW240470   2.610  12.593   0.828  0.3200  0.9438 -0.2579
42831SOL     OW40471   7.227  10.521  13.107 -0.1323  0.4486 -0.4122
42831SOL    HW140472   7.174  10.452  13.066  0.2587 -0.8410  1.1535
42831SOL    HW240473   7.315  10.506  13.073  0.1632 -0.5285  0.7331
42832SOL     OW40474   2.509  10.241   5.329 -0.0216  0.3301  0.4835
42832SOL    HW140475   2.473  10.187   5.400 -0.3755  0.1918  0.2017
42832SOL    HW240476   2.560  10.308   5.373 -0.1053  0.1451  0.8650
42833SOL     OW40477   4.104   0.207   1.845 -0.0578  0.4608  0.2411
42833SOL    HW140478   4.196   0.227   1.830 -0.4047  1.8397 -0.2301
42833SOL    HW240479   4.097   0.190   1.939  0.7071  0.0773  0.2349
42834SOL     OW40480   9.287   0.073   2.743 -0.3941  0.0326 -0.7038
42834SOL    HW140481   9.258   0.135   2.676  1.1312  2.3713  0.6477
42834SOL    HW240482   9.351   0.018   2.699  0.6346  1.5775 -1.2237
42835SOL     OW40483   6.790   4.864   7.902 -0.2682 -0.4299 -0.7212
42835SOL    HW140484   6.846   4.930   7.940 -0.6085 -1.2383  1.3242
42835SOL    HW240485   6.843   4.784   7.902 -0.8356 -0.8157 -0.3604
42836SOL     OW40486   8.336  10.926   0.635  0.1855 -0.1781  0.0984
42836SOL    HW140487   8.404  10.993   0.627 -0.7237  1.0312  1.7014
42836SOL    HW240488   8.254  10.973   0.616 -0.2728 -1.5050 -1.4126
42837SOL     OW40489   0.505  12.998   9.818  0.1650  0.4810  0.0443
42837SOL    HW140490   0.432  13.028   9.873 -0.5815  0.6992 -1.0281
42837SOL    HW240491   0.503  12.903   9.825 -0.6569  0.4479 -0.4933
42838SOL     OW40492  13.063   4.814  13.633 -0.4294  0.0490  0.0385
42838SOL    HW140493  13.090   4.783  13.546  1.0674  1.3974 -0.0285
42838SOL    HW240494  12.995   4.879  13.616  0.8434  1.3595 -0.2807
42839SOL     OW40495   6.377   8.599  11.402 -0.4193  0.6757  0.6627
42839SOL    HW140496   6.306   8.600  11.467 -1.3730  0.5729 -0.3563
42839SOL    HW240497   6.394   8.506  11.388 -1.3074  0.6523 -0.3777
42840SOL     OW40498   7.488  10.720  13.341 -0.5541  0.1816 -0.4909
42840SOL    HW140499   7.469  10.626  13.338 -2.8078  0.5892 -0.5850
42840SOL    HW240500   7.540  10.737  13.263 -0.1081 -0.9730 -0.4664
42841SOL     OW40501   4.024  10.065   8.117 -0.9298 -0.0594  0.1461
42841SOL    HW140502   4.067  10.094   8.036  0.6442  1.8989  1.5848
42841SOL    HW240503   3.978  10.142   8.149 -2.3219 -1.0739  0.6661
42842SOL     OW40504   9.065   5.816   1.703  0.5904 -0.1494  0.5206
42842SOL    HW140505   9.019   5.856   1.776  0.3371  1.1925 -0.3460
42842SOL    HW240506   9.115   5.744   1.742 -1.1503 -0.7785  1.6869
42843SOL     OW40507   6.121   4.231  10.579  0.2661 -0.6395  0.0046
42843SOL    HW140508   6.039   4.182  10.576  0.1947 -0.4780 -1.3390
42843SOL    HW240509   6.100   4.311  10.626 -0.7646  0.1047 -1.6292
42844SOL     OW40510   8.656   9.128   0.103  0.0230  0.1920  0.1664
42844SOL    HW140511   8.573   9.173   0.122 -0.7576 -1.3631  0.5897
42844SOL    HW240512   8.719   9.199   0.090 -1.2548  1.4070  0.3619
42845SOL     OW40513   9.253   4.786  11.318 -0.2315 -0.0121 -0.0337
42845SOL    HW140514   9.225   4.695  11.316  0.9806 -0.3830 -0.6747
42845SOL    HW240515   9.228   4.817  11.405 -2.3340 -0.3917 -0.4411
42846SOL     OW40516  11.735   6.203   9.970 -0.2023 -0.0588 -0.1936
42846SOL    HW140517  11.811   6.259   9.980 -0.6382  0.5258 -0.0634
42846SOL    HW240518  11.745   6.163   9.884 -0.2850  0.8392 -0.6278
42847SOL     OW40519  11.912   5.718   7.144 -0.5381 -0.0838  0.0755
42847SOL    HW140520  12.000   5.735   7.108 -0.4662 -1.1716 -0.2939
42847SOL    HW240521  11.875   5.651   7.086 -0.5726 -1.6244  1.7801
42848SOL     OW40522   7.995   1.441   3.059  0.4507 -0.8527 -0.2021
42848SOL    HW140523   7.968   1.434   2.967 -0.1381  0.0132 -0.1084
42848SOL    HW240524   8.039   1.526   3.064 -0.0774 -0.6141  0.4564
42849SOL     OW40525   2.705  12.182   6.681  0.8462 -0.5323 -0.2180
42849SOL    HW140526   2.711  12.087   6.667 -0.1729 -1.2574  3.3288
42849SOL    HW240527   2.616  12.196   6.711  0.8777  1.6644 -0.9981
42850SOL     OW40528   8.465   7.578   1.920  0.2047 -0.1001  0.0400
42850SOL    HW140529   8.432   7.554   1.834 -1.5703 -0.2303  0.7269
42850SOL    HW240530   8.556   7.547   1.920 -0.4492 -2.1859 -0.9627
42851SOL     OW40531   0.094   1.526   2.555 -0.0431  0.0883 -0.6314
42851SOL    HW140532   0.066   1.468   2.485  0.9742  0.1774 -1.1224
42851SOL    HW240533   0.025   1.592   2.560 -0.1927  0.0063 -1.4644
42852SOL     OW40534   4.914   0.876   8.197  0.5099 -0.0496 -0.1362
42852SOL    HW140535   4.820   0.890   8.181 -0.1335 -2.5384  0.9576
42852SOL    HW240536   4.942   0.955   8.242 -1.0919  0.6862 -0.3427
42853SOL     OW40537   3.968  13.025  11.529  0.2139  0.7189  0.0011
42853SOL    HW140538   3.948  13.115  11.505 -1.3865  0.2832 -0.4448
42853SOL    HW240539   4.016  13.031  11.611  3.8373  2.1639 -2.0182
42854SOL     OW40540   9.646   9.083   0.710 -0.3992  0.8177 -0.6225
42854SOL    HW140541   9.703   9.041   0.775 -0.4379 -0.4864 -1.3891
42854SOL    HW240542   9.685   9.060   0.626  1.0108  4.4043 -1.1348
42855SOL     OW40543  12.521   6.876  12.082 -0.5976 -0.4514  0.3371
42855SOL    HW140544  12.472   6.876  12.000  0.3628 -0.8480 -0.2638
42855SOL    HW240545  12.461   6.913  12.146 -0.4297  2.6020 -1.0978
42856SOL     OW40546   1.275   6.928   2.806  0.6282 -0.2006 -0.3887
42856SOL    HW140547   1.255   6.887   2.721  0.5661 -1.6108  0.2824
42856SOL    HW240548   1.337   6.869   2.847 -0.5393 -0.3700  1.2059
42857SOL     OW40549   5.498   7.177   9.390 -0.2930 -0.0326  0.1871
42857SOL    HW140550   5.494   7.148   9.299 -0.3896 -0.9897  0.4954
42857SOL    HW240551   5.409   7.207   9.410  0.2667  2.6020 -0.7912
42858SOL     OW40552  11.936  12.954   5.308  0.4588 -0.4334 -0.3931
42858SOL    HW140553  11.885  12.876   5.329 -1.2229  0.1026 -2.1843
42858SOL    HW240554  11.992  12.968   5.384 -1.2564 -1.7342  1.1914
42859SOL     OW40555  11.227  12.941  10.880  0.4746 -0.1296 -0.0936
42859SOL    HW140556  11.134  12.944  10.857  0.5172  1.0582 -0.2094
42859SOL    HW240557  11.271  12.910  10.801  0.2853  0.5443 -0.4730
42860SOL     OW40558   3.171   0.013   5.769 -0.3260  0.4478 -0.0798
42860SOL    HW140559   3.080  -0.011   5.786 -0.1366  0.5758  1.3064
42860SOL    HW240560   3.221  -0.064   5.796  0.0292  0.8073  0.3061
42861SOL     OW40561   8.278  13.752   5.224 -0.0199 -0.6669  0.2844
42861SOL    HW140562   8.309  13.812   5.292  1.7123 -0.5022 -0.5929
42861SOL    HW240563   8.357  13.707   5.194 -0.9763 -1.8517 -0.5616
42862SOL     OW40564   9.602   3.435   7.967  0.7155 -0.1777 -0.2531
42862SOL    HW140565   9.518   3.433   7.920  0.6805 -0.1361 -0.1925
42862SOL    HW240566   9.618   3.527   7.984  0.6786 -0.1993 -0.0959
42863SOL     OW40567   8.363   4.519   6.843 -0.3873  0.1724 -0.2267
42863SOL    HW140568   8.385   4.523   6.750 -0.0221 -5.4131 -0.7482
42863SOL    HW240569   8.447   4.504   6.886 -0.8261  0.3440  0.7109
42864SOL     OW40570   7.042   0.199  10.190 -0.3846 -0.0027  0.0471
42864SOL    HW140571   7.076   0.178  10.277  0.3067 -0.5132 -0.3418
42864SOL    HW240572   6.973   0.264  10.207 -0.6906 -0.5588  1.0302
42865SOL     OW40573   4.392   8.642   2.023  0.0977  0.2873  0.1242
42865SOL    HW140574   4.312   8.591   2.011 -0.5128  1.0933  0.7027
42865SOL    HW240575   4.362   8.729   2.048  1.1361  0.8457 -0.4923
42866SOL     OW40576   7.882  11.716   8.318 -0.1435 -0.3384 -0.7011
42866SOL    HW140577   7.880  11.707   8.413 -0.3612 -1.3533 -0.7906
42866SOL    HW240578   7.929  11.798   8.302 -1.1593  0.4574  0.3053
42867SOL     OW40579  13.101   9.848   8.317 -0.3047 -0.0371  0.2211
42867SOL    HW140580  13.062   9.767   8.348 -1.4008 -0.1164 -1.2601
42867SOL    HW240581  13.137   9.889   8.395 -0.7282 -1.3998  1.1662
42868SOL     OW40582   4.246   0.482   5.643  0.3436  0.0149  0.0683
42868SOL    HW140583   4.305   0.544   5.600 -1.4874  1.6644 -0.2515
42868SOL    HW240584   4.221   0.525   5.725  0.8762 -1.4147  1.0129
42869SOL     OW40585   8.998   5.311  10.252  0.2928 -0.4967  0.3406
42869SOL    HW140586   8.925   5.373  10.250  0.3317 -0.3178  2.5020
42869SOL    HW240587   9.037   5.317  10.164 -0.0806  2.0720  0.2786
42870SOL     OW40588   1.489   0.439   4.849  0.8531  0.2231  0.3223
42870SOL    HW140589   1.574   0.470   4.881  1.0073 -0.5702  0.7071
42870SOL    HW240590   1.484   0.348   4.878 -0.2099  0.3114  0.4674
42871SOL     OW40591   0.673   2.230   6.523 -0.2722 -0.4904 -0.6731
42871SOL    HW140592   0.664   2.231   6.618 -0.9659 -0.9984 -0.7273
42871SOL    HW240593   0.606   2.169   6.493 -0.5637  0.2310 -1.5462
42872SOL     OW40594   2.571   7.772   9.934  0.1877  0.2355 -0.1520
42872SOL    HW140595   2.488   7.783   9.980  0.1134  0.3877 -0.3227
42872SOL    HW240596   2.623   7.848   9.960  0.5052 -0.1812  0.4472
42873SOL     OW40597   0.676  13.926  11.904 -0.5492 -0.2812 -0.5033
42873SOL    HW140598   0.758  13.919  11.856 -0.8667 -0.8837 -0.9717
42873SOL    HW240599   0.667  14.020  11.922  0.2109 -0.2035 -0.4893
42874SOL     OW40600   8.583   1.035   8.493  0.1800  0.6297 -0.1808
42874SOL    HW140601   8.569   1.104   8.558 -0.8800  0.8378 -0.6012
42874SOL    HW240602   8.507   0.978   8.502  0.4694  0.1649 -0.6317
42875SOL     OW40603   6.034   1.549   4.573 -0.4826 -0.0867  0.5635
42875SOL    HW140604   6.110   1.524   4.625 -0.0776  1.8624  1.0117
42875SOL    HW240605   6.043   1.499   4.491 -0.1330 -1.7956  1.6018
42876SOL     OW40606   5.091   1.735   9.896 -0.1098  0.5959  0.3643
42876SOL    HW140607   5.121   1.825   9.907 -0.1870  0.6461  0.1662
42876SOL    HW240608   5.007   1.732   9.942  0.9667  0.0059  2.4325
42877SOL     OW40609   4.192   6.617  12.311  0.2465 -0.0679 -0.1954
42877SOL    HW140610   4.156   6.706  12.308  1.0318  0.2563 -0.1765
42877SOL    HW240611   4.239   6.613  12.394 -0.6530 -0.8525  0.2911
42878SOL     OW40612  12.183  10.973   4.239 -0.0377 -0.3779 -0.0666
42878SOL    HW140613  12.173  11.062   4.206  0.8544 -0.1674  0.2344
42878SOL    HW240614  12.097  10.933   4.223  0.2717 -0.2515 -2.4992
42879SOL     OW40615   5.558  10.915   1.353 -0.1072  0.4942  0.2273
42879SOL    HW140616   5.482  10.968   1.376  0.1705  0.6868  0.7114
42879SOL    HW240617   5.585  10.947   1.266 -0.1369  0.9223  0.3749
42880SOL     OW40618   1.119   6.985   6.882  0.7195 -0.1051  0.4161
42880SOL    HW140619   1.049   7.015   6.941  0.8263  0.7965  0.0988
42880SOL    HW240620   1.196   7.034   6.910  1.4287 -1.6129  1.2288
42881SOL     OW40621  13.522   7.032   4.745 -0.3374  0.1952  0.2443
42881SOL    HW140622  13.486   6.945   4.764 -0.1274  0.5480  2.5818
42881SOL    HW240623  13.611   7.029   4.779  0.1305  0.9360 -0.8625
42882SOL     OW40624   4.489   8.705   3.670  0.2703  0.5139 -0.1249
42882SOL    HW140625   4.574   8.662   3.680  0.1654 -0.0534 -1.4011
42882SOL    HW240626   4.483   8.765   3.744  1.4358 -0.0106  0.4189
42883SOL     OW40627  12.130   0.616   9.556 -0.1127 -0.0420 -0.0558
42883SOL    HW140628  12.182   0.656   9.487  0.1422  0.3916  0.3864
42883SOL    HW240629  12.041   0.614   9.520 -0.2212  1.3554  0.0915
42884SOL     OW40630  11.430  13.269  10.479 -0.2876  0.4051 -0.2505
42884SOL    HW140631  11.427  13.355  10.437  4.3074  1.8212  1.6179
42884SOL    HW240632  11.508  13.227  10.442 -0.0114 -1.1148  1.8552
42885SOL     OW40633   4.828   5.442   3.938  0.0765 -0.2255 -0.1473
42885SOL    HW140634   4.841   5.472   3.848  0.0511  0.2886  0.0173
42885SOL    HW240635   4.733   5.437   3.948  0.0777 -0.1800 -0.1145
42886SOL     OW40636   8.003   2.688   2.090  0.1139  0.6719 -0.2667
42886SOL    HW140637   7.925   2.669   2.039 -0.7852 -0.3383  1.3896
42886SOL    HW240638   8.069   2.626   2.057 -0.0728  0.8608 -1.0065
42887SOL     OW40639  13.210   1.994   3.798  0.0463 -0.0015  0.2579
42887SOL    HW140640  13.151   1.956   3.733 -0.5602 -0.2852  0.9673
42887SOL    HW240641  13.195   1.943   3.877 -0.5605  1.5181  1.1569
42888SOL     OW40642  12.819  11.511  11.044 -0.1105  0.1158  0.0126
42888SOL    HW140643  12.904  11.468  11.041  0.5535  1.3925 -0.0407
42888SOL    HW240644  12.789  11.511  10.953 -0.4161 -0.7789  0.1003
42889SOL     OW40645   7.413  13.418   5.882 -0.0123  0.1094 -0.9051
42889SOL    HW140646   7.486  13.398   5.940 -0.3702  0.1032 -0.4496
42889SOL    HW240647   7.425  13.510   5.859 -1.3491  0.9349  1.3790
42890SOL     OW40648   0.597   7.335   3.699 -0.8476 -0.5761  0.0110
42890SOL    HW140649   0.626   7.426   3.694 -2.5680 -0.0173 -0.5116
42890SOL    HW240650   0.516   7.338   3.748 -0.8440 -1.8669  0.1389
42891SOL     OW40651   6.885  13.113   0.567 -0.3501  0.2237 -0.2265
42891SOL    HW140652   6.953  13.175   0.538 -0.3302 -0.2335 -1.1793
42891SOL    HW240653   6.813  13.170   0.597 -0.3403  0.7281 -1.1067
42892SOL     OW40654   7.180   4.591  13.169 -0.7562 -0.2795  0.5761
42892SOL    HW140655   7.154   4.508  13.130 -0.5560  0.4805 -1.2512
42892SOL    HW240656   7.097   4.635  13.188 -0.8559 -0.4739  0.5954
42893SOL     OW40657   5.523  12.877   8.550 -0.5885 -0.3915  0.2439
42893SOL    HW140658   5.486  12.861   8.463  2.4704  0.4634 -1.3658
42893SOL    HW240659   5.506  12.797   8.599  0.4904 -2.2973 -2.2939
42894SOL     OW40660   5.023   8.046  13.924  0.1280 -0.1895 -0.0016
42894SOL    HW140661   4.940   8.090  13.942 -0.0431 -1.4498  2.9229
42894SOL    HW240662   5.084   8.082  13.989  0.8044 -1.9066  0.3824
42895SOL     OW40663   0.116  11.340   4.878 -0.1831 -0.0547  0.5501
42895SOL    HW140664   0.086  11.341   4.787 -1.4940  0.3218  0.9568
42895SOL    HW240665   0.210  11.357   4.873 -0.2660  0.1306 -0.7237
42896SOL     OW40666   7.574   2.052  13.606  0.2277 -0.4732 -0.3813
42896SOL    HW140667   7.554   2.009  13.689  0.3722 -0.3859 -0.3000
42896SOL    HW240668   7.660   2.092  13.620 -0.8540  1.8260  0.3605
42897SOL     OW40669  10.301   9.201   0.882 -0.1010  0.3676  0.0845
42897SOL    HW140670  10.256   9.118   0.867 -1.0741  0.7089  0.9777
42897SOL    HW240671  10.231   9.265   0.892  0.3588  0.5306  3.9419
42898SOL     OW40672   1.083   4.864  10.507  0.6579 -0.0677  0.1334
42898SOL    HW140673   1.066   4.771  10.493 -0.8312  0.3748 -1.2795
42898SOL    HW240674   1.163   4.882  10.456 -0.5311 -0.0602 -1.8315
42899SOL     OW40675   1.286   3.946  10.204 -0.5278  0.0656  0.6632
42899SOL    HW140676   1.299   3.890  10.280 -0.3991  1.5242  1.7613
42899SOL    HW240677   1.192   3.944  10.188 -0.5904 -0.0106  1.0482
42900SOL     OW40678   8.846   4.498   2.113 -0.4959  0.5852 -0.8213
42900SOL    HW140679   8.778   4.441   2.148 -0.6518  1.4302  0.3269
42900SOL    HW240680   8.928   4.452   2.132 -0.7165 -0.3716 -2.0876
42901SOL     OW40681   7.751  13.164   4.111  0.6195 -0.0149 -0.0530
42901SOL    HW140682   7.785  13.084   4.151 -0.4948 -0.4185  0.1501
42901SOL    HW240683   7.828  13.214   4.087  1.3359 -0.5626  1.0127
42902SOL     OW40684   1.585   9.817   2.151 -0.1465  0.2990  0.1026
42902SOL    HW140685   1.672   9.847   2.178  0.2389 -0.0963 -0.6544
42902SOL    HW240686   1.537   9.898   2.131 -0.4860  0.6097  1.9966
42903SOL     OW40687   0.783   3.129   5.841 -0.3543 -0.5143 -0.0982
42903SOL    HW140688   0.737   3.181   5.907 -1.1841 -1.1247 -0.1950
42903SOL    HW240689   0.862   3.098   5.886  0.3931  1.1538 -0.1564
42904SOL     OW40690  13.936   2.451   3.950  0.1219  0.1501  0.0131
42904SOL    HW140691  13.967   2.400   4.025 -0.4069  0.6686  0.5931
42904SOL    HW240692  13.900   2.531   3.988  0.0966  0.5475 -0.8179
42905SOL     OW40693  11.103   0.216   6.728 -0.0805 -0.0322  0.1928
42905SOL    HW140694  11.055   0.289   6.768 -0.9546  0.5521 -1.8179
42905SOL    HW240695  11.104   0.148   6.796  0.2325  1.5913  1.9076
42906SOL     OW40696   4.857   0.709  12.544  0.4218  0.9479  0.1478
42906SOL    HW140697   4.836   0.756  12.464  0.0151  0.5947  0.0477
42906SOL    HW240698   4.952   0.721  12.554  0.7244 -0.2068 -1.1604
42907SOL     OW40699   4.610  13.152   8.126 -0.3182  0.0774  0.3092
42907SOL    HW140700   4.538  13.186   8.072 -0.0950  1.4430  0.8324
42907SOL    HW240701   4.590  13.059   8.137 -0.5935 -0.1584 -1.7581
42908SOL     OW40702  13.427   5.681   7.570 -0.0858  0.1968  0.0826
42908SOL    HW140703  13.414   5.588   7.589  0.6091  0.1174  0.2172
42908SOL    HW240704  13.370   5.726   7.632  1.3411 -0.0901  1.7036
42909SOL     OW40705   9.839   2.101   5.834 -0.0841 -0.0218  0.7815
42909SOL    HW140706   9.851   2.029   5.896 -1.1238 -0.6882  0.2387
42909SOL    HW240707   9.921   2.149   5.837  0.5092 -1.0336  1.4142
42910SOL     OW40708   4.561  13.785   9.866  0.0630  0.1403 -0.1994
42910SOL    HW140709   4.541  13.877   9.878 -1.7565 -0.4206  1.6205
42910SOL    HW240710   4.652  13.784   9.836  0.2279  2.4915  0.0498
42911SOL     OW40711  10.218   0.702  13.474  0.0713  0.9400  0.1156
42911SOL    HW140712  10.153   0.771  13.488 -0.6382  0.1720  0.7379
42911SOL    HW240713  10.264   0.695  13.558  0.4992  1.0064 -0.1099
42912SOL     OW40714  11.680  10.675   7.261  0.0284  0.0215 -0.9694
42912SOL    HW140715  11.682  10.588   7.221  0.8895  0.4715 -1.9411
42912SOL    HW240716  11.666  10.659   7.354  1.6454 -1.2263 -0.9188
42913SOL     OW40717   2.313   0.655  10.352  0.4201 -0.4098 -0.2490
42913SOL    HW140718   2.300   0.730  10.294 -2.1005 -0.1559  0.5195
42913SOL    HW240719   2.358   0.692  10.428 -1.3704  0.5744  0.4148
42914SOL     OW40720  13.789   5.033  11.673  0.7590  0.0099  0.3040
42914SOL    HW140721  13.823   4.953  11.635  0.4980 -0.6894  1.4814
42914SOL    HW240722  13.754   5.083  11.600  0.2315 -1.2934 -0.3489
42915SOL     OW40723   5.104   2.851   9.388  0.1431 -0.3471 -0.6403
42915SOL    HW140724   5.094   2.776   9.330  0.0408 -0.1904 -0.8226
42915SOL    HW240725   5.144   2.919   9.334  0.2457 -0.2735 -0.4723
42916SOL     OW40726   6.608   5.446  10.314  0.0873  0.0121  0.1276
42916SOL    HW140727   6.645   5.515  10.258 -0.0647  0.3548  0.4461
42916SOL    HW240728   6.666   5.443  10.390 -1.1274  1.3232  1.1597
42917SOL     OW40729   7.710   4.945   5.298 -0.9253 -0.0990  0.2107
42917SOL    HW140730   7.766   4.869   5.312  0.4574  0.4296 -1.8608
42917SOL    HW240731   7.748   4.989   5.222 -1.9753  2.3938  1.0074
42918SOL     OW40732  10.745   6.240   4.376  0.0546 -0.3390 -0.4356
42918SOL    HW140733  10.686   6.233   4.451  1.1206  1.3058  0.6022
42918SOL    HW240734  10.728   6.160   4.326 -1.8911 -0.6843  0.6478
42919SOL     OW40735   4.233  11.554   9.951  0.2886 -0.3586 -0.4926
42919SOL    HW140736   4.184  11.510   9.882  0.3420  0.5264 -1.1021
42919SOL    HW240737   4.264  11.483  10.007  1.3594 -1.2039 -2.0914
42920SOL     OW40738   5.277   0.084  11.714 -0.2632  0.4038  0.0473
42920SOL    HW140739   5.207   0.140  11.679 -1.4060 -1.0911 -0.1537
42920SOL    HW240740   5.281   0.010  11.654  1.3032  0.3058  0.2376
42921SOL     OW40741   8.253   6.170   5.235 -0.1996 -0.0771  0.3568
42921SOL    HW140742   8.236   6.256   5.274 -1.2164  0.7769 -1.7738
42921SOL    HW240743   8.205   6.173   5.152  2.5591 -1.4144 -1.3967
42922SOL     OW40744   2.699  13.593   9.649 -0.5223  0.3857 -0.3094
42922SOL    HW140745   2.675  13.684   9.634  0.2172  0.7654  0.7376
42922SOL    HW240746   2.780  13.581   9.599 -0.7535  0.2157 -0.6531
42923SOL     OW40747   7.550   2.911  12.382  0.2035  0.5063  0.0556
42923SOL    HW140748   7.463   2.944  12.402 -0.0486  0.0289 -0.2330
42923SOL    HW240749   7.583   2.969  12.313 -2.0050 -2.3051 -3.8005
42924SOL     OW40750  13.106   2.198   9.386  0.1221  0.3200 -0.4609
42924SOL    HW140751  13.060   2.124   9.425 -0.1754  0.4529 -0.5522
42924SOL    HW240752  13.163   2.230   9.456 -1.0914  1.1400  0.1949
42925SOL     OW40753   2.961   8.038   7.269  0.2462  0.0779 -0.0228
42925SOL    HW140754   3.037   7.980   7.280 -0.7589 -1.3114 -0.1382
42925SOL    HW240755   2.902   8.013   7.340 -0.7537  0.0673 -0.8358
42926SOL     OW40756  13.593   8.561   6.003  0.0761  0.6499 -0.1780
42926SOL    HW140757  13.510   8.569   5.956 -0.5581 -0.0960  0.7694
42926SOL    HW240758  13.660   8.564   5.935 -0.8188 -0.6436 -1.1595
42927SOL     OW40759  10.431   2.685  10.573  0.5491  0.5084  0.2664
42927SOL    HW140760  10.476   2.635  10.505 -0.0432  0.8635 -0.3946
42927SOL    HW240761  10.472   2.772  10.570 -1.8674  1.6962 -2.1554
42928SOL     OW40762   2.888   0.530  14.043  0.0831  0.7880 -0.1086
42928SOL    HW140763   2.844   0.450  14.075  0.5249  0.1021 -1.1493
42928SOL    HW240764   2.941   0.500  13.969 -0.6498  2.2442 -1.2772
42929SOL     OW40765  10.179   7.572   6.613 -0.0893 -0.3850 -0.2357
42929SOL    HW140766  10.171   7.476   6.614 -1.2927 -0.2890 -0.4510
42929SOL    HW240767  10.131   7.601   6.690  1.3827 -0.0093  0.5920
42930SOL     OW40768   3.886  11.789   6.802 -0.5526 -0.2928 -0.2562
42930SOL    HW140769   3.828  11.865   6.810 -0.7964 -0.5103  0.0634
42930SOL    HW240770   3.934  11.787   6.884  0.0205 -0.0302 -0.5740
42931SOL     OW40771  11.354   1.803   0.349 -0.0060  0.2103  0.1410
42931SOL    HW140772  11.275   1.857   0.346  0.6088  1.0833 -1.7683
42931SOL    HW240773  11.331   1.724   0.301  0.2736  0.4676 -0.4204
42932SOL     OW40774   2.591   8.126   2.489  0.3892  0.6220 -0.0692
42932SOL    HW140775   2.501   8.143   2.460  0.1576  1.0802  0.8857
42932SOL    HW240776   2.587   8.043   2.535  0.5195  0.4815 -0.3122
42933SOL     OW40777   5.026   0.711   4.905 -0.8922  0.2381  0.0416
42933SOL    HW140778   5.068   0.794   4.882  0.1428 -0.3316 -0.1986
42933SOL    HW240779   5.081   0.644   4.864 -0.4114 -0.6850  2.0305
42934SOL     OW40780   2.115  12.416   5.116  0.0635 -0.0297 -0.0161
42934SOL    HW140781   2.186  12.439   5.057  0.2226 -0.4529  0.0118
42934SOL    HW240782   2.061  12.495   5.120  1.3786  0.8605  1.2123
42935SOL     OW40783  13.514  10.849   5.177 -0.3125 -0.1621  0.1379
42935SOL    HW140784  13.520  10.815   5.088  0.0338  1.2095 -0.3835
42935SOL    HW240785  13.497  10.943   5.166  1.9262  0.4761  1.4691
42936SOL     OW40786   7.239   4.690   5.048 -0.1378 -0.2345 -0.1522
42936SOL    HW140787   7.216   4.640   4.970 -1.6688 -0.4408  0.3887
42936SOL    HW240788   7.262   4.623   5.113 -1.1263 -0.2149  0.2432
42937SOL     OW40789   7.989   9.584  12.159 -0.2651  0.1236  0.1220
42937SOL    HW140790   8.024   9.603  12.073 -1.9221  0.6661 -0.4813
42937SOL    HW240791   8.066   9.571  12.215  0.9533  2.9662 -0.6978
42938SOL     OW40792   8.719   0.905   3.945  0.3565 -0.0470  0.2479
42938SOL    HW140793   8.728   0.904   3.849 -0.4900 -1.2538  0.1578
42938SOL    HW240794   8.778   0.975   3.974  0.0065  0.9015 -1.2180
42939SOL     OW40795   2.297   1.579  11.399 -0.2472 -0.4800 -0.1437
42939SOL    HW140796   2.359   1.546  11.334  1.2849  1.1899  0.3966
42939SOL    HW240797   2.328   1.544  11.482 -0.3315 -0.0730  0.0643
42940SOL     OW40798   8.378   9.884   0.037 -0.4600  0.7285  0.2363
42940SOL    HW140799   8.369   9.793   0.011 -1.4889  0.6319  0.8728
42940SOL    HW240800   8.456   9.915  -0.010  0.0034 -0.5114  0.1517
42941SOL     OW40801   4.486   5.737   0.130  0.6358  0.5246 -0.0909
42941SOL    HW140802   4.482   5.747   0.035 -1.6883  0.3965 -0.0644
42941SOL    HW240803   4.580   5.737   0.150  1.2413 -0.5494 -2.4866
42942SOL     OW40804  11.429  12.158   4.847  0.2732  0.2035 -0.4136
42942SOL    HW140805  11.485  12.088   4.813  0.8385  0.7139 -0.5397
42942SOL    HW240806  11.427  12.142   4.941 -0.4783 -0.6166 -0.5557
42943SOL     OW40807   1.251   5.760   7.189  0.0715  0.1951  0.1542
42943SOL    HW140808   1.323   5.707   7.155  0.4670  0.5346  0.4595
42943SOL    HW240809   1.294   5.835   7.230 -0.4979  1.0529 -0.7748
42944SOL     OW40810   2.631   1.594  11.433  0.4374  0.1186  0.2363
42944SOL    HW140811   2.645   1.616  11.525  0.0735 -0.2073  0.3748
42944SOL    HW240812   2.599   1.503  11.435  1.8597 -0.4107 -0.3180
42945SOL     OW40813   6.929   5.851   0.248  0.3300  0.0368  0.5294
42945SOL    HW140814   6.925   5.807   0.333 -0.2106  0.9398  0.9903
42945SOL    HW240815   6.882   5.793   0.188  0.2816 -0.3714  0.9619
42946SOL     OW40816   5.825   7.273   0.494  0.1666  0.3375  0.3830
42946SOL    HW140817   5.765   7.231   0.433  2.7284  1.5656 -3.3915
42946SOL    HW240818   5.791   7.253   0.581 -4.6427 -0.3232 -1.3999
42947SOL     OW40819   4.569   5.760   7.460  0.2578  0.0803 -0.1236
42947SOL    HW140820   4.474   5.765   7.473  0.2636  0.1982 -0.1233
42947SOL    HW240821   4.587   5.825   7.392  0.3961  0.3696  0.1896
42948SOL     OW40822   6.218  13.390   9.042  0.4543 -0.7122 -0.3150
42948SOL    HW140823   6.273  13.448   9.094 -0.8872  1.7194 -1.4186
42948SOL    HW240824   6.130  13.400   9.079 -0.7239  1.7398 -3.2688
42949SOL     OW40825   1.577   8.151   7.783 -0.0387 -0.2776  0.5347
42949SOL    HW140826   1.526   8.190   7.711  0.9292  0.6844  0.3312
42949SOL    HW240827   1.647   8.215   7.799  0.0701 -0.7314  1.9872
42950SOL     OW40828  13.364   2.084   1.843  0.2009 -0.1242  0.8258
42950SOL    HW140829  13.283   2.033   1.839  0.4633 -0.4880  0.0650
42950SOL    HW240830  13.336   2.170   1.876 -0.7886  0.3107 -1.0238
42951SOL     OW40831   7.985  11.925  12.225 -0.0248 -0.9545  0.4575
42951SOL    HW140832   7.948  11.949  12.139 -0.0153  3.2411  1.3978
42951SOL    HW240833   8.070  11.968  12.227  0.5331 -2.0501  2.1235
42952SOL     OW40834   3.662  10.004   7.617  0.4140 -0.4372  0.2037
42952SOL    HW140835   3.645  10.072   7.552  0.8290 -1.6189 -1.1905
42952SOL    HW240836   3.618   9.926   7.582  0.7235 -1.1282  1.3034
42953SOL     OW40837   2.388   9.661  12.012  0.3587 -0.3468 -0.0865
42953SOL    HW140838   2.384   9.720  12.088 -1.4816  0.0535 -0.4573
42953SOL    HW240839   2.468   9.610  12.026  1.4942  1.5442  0.7605
42954SOL     OW40840   1.140  12.655   8.944 -0.2685 -0.2215 -0.1885
42954SOL    HW140841   1.207  12.656   8.876  1.5234  1.3137  1.4684
42954SOL    HW240842   1.109  12.746   8.948 -0.0134 -0.1761  1.3012
42955SOL     OW40843   7.437   7.744   7.801  0.1455 -0.1938 -0.1388
42955SOL    HW140844   7.494   7.673   7.831 -1.1128 -0.6294  1.3685
42955SOL    HW240845   7.369   7.750   7.868 -0.3852  1.7406 -0.7825
42956SOL     OW40846   0.736  11.711   9.402  0.4804 -0.1085  0.6009
42956SOL    HW140847   0.795  11.676   9.335  1.6450  1.7820  0.5803
42956SOL    HW240848   0.767  11.800   9.418 -1.4176  0.4079  1.7504
42957SOL     OW40849   3.973   4.456   3.994 -0.2755  0.5335 -0.0583
42957SOL    HW140850   4.014   4.391   3.937  0.0719  0.5158  0.2041
42957SOL    HW240851   3.901   4.409   4.037  1.5003 -0.4702  2.0581
42958SOL     OW40852  11.641   4.868  13.771 -0.1269 -0.0520  0.6575
42958SOL    HW140853  11.707   4.801  13.752  0.2118  0.3806  0.2749
42958SOL    HW240854  11.561   4.834  13.731  0.1108 -0.1046  0.2142
42959SOL     OW40855   2.190  12.149   4.670  0.2031  0.0008  0.1067
42959SOL    HW140856   2.125  12.154   4.741  1.4854 -1.2765  1.4471
42959SOL    HW240857   2.274  12.157   4.714  1.0523 -0.9414 -1.2649
42960SOL     OW40858   7.247  13.499   6.136 -0.8146  0.1526 -0.5082
42960SOL    HW140859   7.238  13.527   6.045 -3.1092  1.1136 -0.0576
42960SOL    HW240860   7.269  13.579   6.183  0.5818 -0.3814 -0.2021
42961SOL     OW40861   4.462   1.685   2.157 -0.2587  0.5668  0.1289
42961SOL    HW140862   4.493   1.602   2.121  0.7440  0.9924 -0.0326
42961SOL    HW240863   4.385   1.706   2.104  0.9953  1.0180 -1.6256
42962SOL     OW40864   2.310   6.454   5.142 -0.3533 -0.3944 -0.0742
42962SOL    HW140865   2.264   6.440   5.059 -0.6892 -0.0893  0.0592
42962SOL    HW240866   2.360   6.373   5.156  1.2738  0.2864 -1.5594
42963SOL     OW40867   3.092   5.484   2.453  0.0704 -0.0943 -0.7349
42963SOL    HW140868   3.141   5.471   2.371 -1.3012 -0.0665 -1.5780
42963SOL    HW240869   3.147   5.543   2.504  1.7924 -1.4691 -0.8844
42964SOL     OW40870  11.355   7.814   6.242 -0.1912  0.1993 -0.1558
42964SOL    HW140871  11.298   7.868   6.297 -1.1569  0.9701 -1.8564
42964SOL    HW240872  11.366   7.864   6.162 -0.1150 -1.6006 -1.3212
42965SOL     OW40873   3.796   5.377  13.203  0.9186 -0.5910 -0.1917
42965SOL    HW140874   3.871   5.322  13.227  0.3572 -0.2277  2.7705
42965SOL    HW240875   3.833   5.465  13.197  0.6478 -0.2322  2.3704
42966SOL     OW40876   5.220   8.856   5.352 -0.3595  0.1271 -0.7369
42966SOL    HW140877   5.140   8.909   5.354  0.6436  1.7419 -0.9329
42966SOL    HW240878   5.266   8.880   5.432  1.1583  1.3123 -1.9061
42967SOL     OW40879   4.848  13.913   3.043 -0.5405  0.2212 -0.2759
42967SOL    HW140880   4.770  13.904   2.988 -0.8086  1.0853 -0.0568
42967SOL    HW240881   4.919  13.933   2.982 -1.0289  2.2171 -0.2590
42968SOL     OW40882   7.843   3.896   8.262 -0.2418 -0.3323 -0.2143
42968SOL    HW140883   7.758   3.918   8.223 -0.4758 -1.0066 -0.0952
42968SOL    HW240884   7.900   3.969   8.238 -0.2026 -1.0005 -2.3952
42969SOL     OW40885   5.711   0.923   3.255 -0.0819 -0.2282 -0.1072
42969SOL    HW140886   5.702   0.910   3.350  0.5772  2.6909  0.4462
42969SOL    HW240887   5.798   0.962   3.245 -0.0743 -0.6560 -1.9579
42970SOL     OW40888   9.005  12.706   8.384  0.0750  0.1911  0.5595
42970SOL    HW140889   9.094  12.738   8.400  0.1099  1.3683 -1.6193
42970SOL    HW240890   8.953  12.742   8.457  1.0404  1.0936  0.8320
42971SOL     OW40891   0.689   0.651   2.302  0.0316  0.4434 -0.4871
42971SOL    HW140892   0.775   0.692   2.309  1.1170 -1.6868 -0.7094
42971SOL    HW240893   0.664   0.663   2.210  1.2027 -0.9901 -1.0156
42972SOL     OW40894   8.773   7.074   3.564 -0.2200 -0.2051 -0.1116
42972SOL    HW140895   8.774   7.102   3.473 -1.6241 -1.7067 -0.6457
42972SOL    HW240896   8.829   6.996   3.566  0.6066  0.3932  0.5307
42973SOL     OW40897  13.775   1.698  12.811  0.5528 -0.3909 -0.0565
42973SOL    HW140898  13.788   1.743  12.727 -0.2311 -0.4518 -0.2132
42973SOL    HW240899  13.713   1.753  12.859  0.2443 -0.8568  0.0892
42974SOL     OW40900   3.993   0.374   6.541 -0.1402 -0.8494 -0.5066
42974SOL    HW140901   4.003   0.469   6.528  0.5076 -0.9556 -0.8518
42974SOL    HW240902   3.984   0.339   6.453  2.0486 -1.3470 -0.6045
42975SOL     OW40903   2.588  13.550   0.256 -0.1195 -0.8291 -0.4909
42975SOL    HW140904   2.566  13.505   0.174 -0.4690 -1.8798  0.1646
42975SOL    HW240905   2.579  13.643   0.235 -0.4877 -1.0881 -1.5625
42976SOL     OW40906   4.276  11.352   9.651 -0.0870 -0.2730  0.9802
42976SOL    HW140907   4.345  11.289   9.672  0.6029  0.6298  1.5268
42976SOL    HW240908   4.200  11.324   9.701  0.4389 -0.2578  1.7934
42977SOL     OW40909  13.584  11.481   8.658  0.3684  0.1408  0.1271
42977SOL    HW140910  13.506  11.496   8.604  0.8158  2.3531 -0.0300
42977SOL    HW240911  13.560  11.517   8.743  0.6912 -0.6190  0.5447
42978SOL     OW40912   6.834   2.720   2.946  0.2122  0.0514  0.3790
42978SOL    HW140913   6.839   2.735   3.040 -1.1535  0.5333  0.3896
42978SOL    HW240914   6.819   2.625   2.938  1.3071 -0.1558  0.5886
42979SOL     OW40915   7.043   1.584   4.910 -0.0132  0.6088 -0.1530
42979SOL    HW140916   7.044   1.552   4.820 -1.8381 -0.1702  0.0563
42979SOL    HW240917   6.956   1.621   4.922  0.3948  1.2351  1.1226
42980SOL     OW40918  10.003   2.009   4.190  0.0345  0.2723  0.2211
42980SOL    HW140919   9.927   2.065   4.209  0.4465  0.7873  0.3986
42980SOL    HW240920   9.974   1.953   4.119 -0.9624 -0.4841  1.1910
42981SOL     OW40921   1.454  12.530   4.216 -0.2151  0.2733 -0.4438
42981SOL    HW140922   1.366  12.549   4.250  0.4292  1.9791  0.4035
42981SOL    HW240923   1.512  12.582   4.272  1.3832 -1.2012 -0.6734
42982SOL     OW40924   7.633   1.470   0.033  0.7359  0.3301  0.0259
42982SOL    HW140925   7.573   1.400   0.010 -0.3647  0.3913  2.3951
42982SOL    HW240926   7.684   1.435   0.107  1.8242  1.1910 -0.2917
42983SOL     OW40927   9.362   5.138   5.702 -0.8672 -0.5599  0.2964
42983SOL    HW140928   9.343   5.059   5.753 -0.4663  0.7082  2.5290
42983SOL    HW240929   9.293   5.140   5.635 -1.9103 -1.9023  1.2611
42984SOL     OW40930   6.856   7.105   1.494 -0.2956  0.7706  0.2934
42984SOL    HW140931   6.856   7.121   1.400 -0.9179  0.7943  0.2922
42984SOL    HW240932   6.814   7.020   1.504  0.0439  0.6270  0.5322
42985SOL     OW40933  12.850  13.698  11.243 -1.0304  0.2301 -0.2867
42985SOL    HW140934  12.825  13.607  11.224  0.5719 -0.7359  1.7979
42985SOL    HW240935  12.939  13.705  11.210 -0.2617  0.2395  1.6787
42986SOL     OW40936   0.971  12.081   9.690  0.2102  0.0159 -0.0714
42986SOL    HW140937   0.998  12.016   9.625 -0.2471  0.4741 -0.7278
42986SOL    HW240938   1.001  12.045   9.774  0.9796 -0.4885 -0.5534
42987SOL     OW40939   2.800   3.793   0.881 -0.4647 -0.0607  0.2366
42987SOL    HW140940   2.781   3.768   0.790 -2.5233  2.3486 -0.1066
42987SOL    HW240941   2.772   3.717   0.932  0.5816 -1.4045 -1.0890
42988SOL     OW40942   0.638   9.433   9.500  0.1609 -0.0484  0.2397
42988SOL    HW140943   0.650   9.351   9.548 -0.1846  1.6746  3.5772
42988SOL    HW240944   0.726   9.469   9.492  0.5920 -1.5151 -3.0131
42989SOL     OW40945   2.331   4.602   1.939  0.2753 -0.5228 -0.0883
42989SOL    HW140946   2.269   4.564   1.877 -0.1146  0.8425 -0.5785
42989SOL    HW240947   2.285   4.677   1.975  0.9784 -0.5598  0.9222
42990SOL     OW40948  10.399  11.384   7.281  0.1297  0.1687 -0.7376
42990SOL    HW140949  10.367  11.299   7.252 -1.2395  0.0967  0.8362
42990SOL    HW240950  10.363  11.446   7.217 -0.5146 -0.2490 -0.7930
42991SOL     OW40951   4.282  11.227   1.441 -0.6098 -0.5052  0.2207
42991SOL    HW140952   4.219  11.265   1.501  0.1706 -0.7559  1.2231
42991SOL    HW240953   4.294  11.293   1.373 -0.4806  0.3626  1.0771
42992SOL     OW40954  11.052   4.904   0.073 -0.0701 -0.3890  0.4118
42992SOL    HW140955  10.973   4.865   0.035 -0.1660 -0.6453  0.8687
42992SOL    HW240956  11.118   4.896   0.003 -0.5097  0.0561 -0.0652
42993SOL     OW40957  13.497   3.162  11.084  0.2924 -0.3213  0.3120
42993SOL    HW140958  13.527   3.146  11.173  0.4166 -0.0571  0.3181
42993SOL    HW240959  13.477   3.255  11.081 -1.1560 -0.5989  0.4976
42994SOL     OW40960   9.267   5.723   3.864  0.8338 -0.5675 -0.4657
42994SOL    HW140961   9.291   5.794   3.924 -0.0788 -0.8128  0.2227
42994SOL    HW240962   9.200   5.762   3.808 -0.6515 -1.2145  0.7782
42995SOL     OW40963   4.090   7.960   1.801  0.1006 -0.3530 -0.4304
42995SOL    HW140964   4.130   7.874   1.802 -0.3144 -0.5454  0.3340
42995SOL    HW240965   4.124   8.002   1.722  0.5340 -1.1030 -0.6452
42996SOL     OW40966   8.700   2.138   3.763  0.6681  0.3154 -0.8517
42996SOL    HW140967   8.663   2.050   3.770  1.9152 -0.1918 -0.4057
42996SOL    HW240968   8.733   2.143   3.673  1.2271  0.0628 -0.6639
42997SOL     OW40969  13.008   7.314  12.934  0.5849 -0.0791  0.1494
42997SOL    HW140970  13.009   7.409  12.922  1.0144 -0.2146 -1.0129
42997SOL    HW240971  13.099   7.288  12.925  0.4777 -0.5979  0.5281
42998SOL     OW40972  10.577   3.342   0.896  0.0904 -0.1395  0.0285
42998SOL    HW140973  10.565   3.375   0.807 -0.0382  2.1393  0.8175
42998SOL    HW240974  10.493   3.355   0.938  0.8089  1.1728  1.1539
42999SOL     OW40975   5.827  11.027  10.089 -0.0460 -0.0227 -0.0162
42999SOL    HW140976   5.798  11.115  10.110  1.5034  0.1303  1.7187
42999SOL    HW240977   5.902  11.040  10.031 -0.0016 -0.2170 -0.0038
43000SOL     OW40978  11.954  11.012  13.548  0.6801 -0.0778  0.0944
43000SOL    HW140979  11.981  11.024  13.639  0.2681 -1.2411  0.3794
43000SOL    HW240980  11.948  10.917  13.537  0.5032  0.0592 -1.0826
43001SOL     OW40981   3.256   3.751  12.697  0.1765 -0.1655  0.1544
43001SOL    HW140982   3.339   3.772  12.654 -0.0083  1.1816  0.4284
43001SOL    HW240983   3.190   3.758  12.627  0.2767 -1.2743 -0.0725
43002SOL     OW40984  10.129   0.737   1.984  0.3778 -0.1334 -0.2571
43002SOL    HW140985  10.121   0.805   1.917  0.2942 -0.4579 -0.5782
43002SOL    HW240986  10.183   0.669   1.944  0.0701 -0.4687 -0.1138
43003SOL     OW40987  13.221   9.597   3.202 -0.0237 -0.0634  0.3082
43003SOL    HW140988  13.185   9.633   3.283  0.8680 -0.2152  0.7885
43003SOL    HW240989  13.172   9.641   3.132  1.4069  2.5545  0.8255
43004SOL     OW40990   8.739   0.998   4.563  0.6292 -0.0950  0.1164
43004SOL    HW140991   8.796   1.039   4.627  0.1201  2.5647 -1.0138
43004SOL    HW240992   8.653   0.997   4.605  1.0115 -2.1145  0.9726
43005SOL     OW40993   2.808   5.788   5.811  0.0270 -0.0152  0.1051
43005SOL    HW140994   2.855   5.713   5.846  0.5873  0.2865  0.0115
43005SOL    HW240995   2.716   5.773   5.836 -0.2280 -1.7477 -1.6283
43006SOL     OW40996   8.902  13.098   6.915 -0.9179 -0.4004 -0.3982
43006SOL    HW140997   8.992  13.079   6.942 -0.4271  1.6952 -0.4323
43006SOL    HW240998   8.848  13.066   6.986 -0.0823 -0.8208  0.0603
43007SOL     OW40999   2.227  10.648  12.085 -0.0624 -0.1120 -0.0172
43007SOL    HW141000   2.292  10.602  12.032  0.7517 -1.0416  1.7142
43007SOL    HW241001   2.147  10.598  12.074 -0.7030  1.2949 -2.5218
43008SOL     OW41002   4.233   3.389   1.034 -0.3065  0.5036 -0.1884
43008SOL    HW141003   4.233   3.383   1.130 -0.4221 -0.5789 -0.2438
43008SOL    HW241004   4.314   3.345   1.007 -0.0419  1.2040 -0.5827
43009SOL     OW41005   9.122   6.227   0.156 -0.6051  0.2410  0.2923
43009SOL    HW141006   9.108   6.173   0.233  0.3712  1.4960  1.3832
43009SOL    HW241007   9.034   6.249   0.126 -0.9932 -0.6089  0.7877
43010SOL     OW41008   9.257   1.435   2.542 -0.1847  0.6416 -0.3209
43010SOL    HW141009   9.318   1.470   2.476 -0.5205  0.1644 -0.8956
43010SOL    HW241010   9.187   1.395   2.490  1.3413 -3.0747  0.2381
43011SOL     OW41011  12.321   1.328   7.785  0.5628 -0.8992 -0.2649
43011SOL    HW141012  12.354   1.329   7.695 -0.5734  1.8018 -0.7503
43011SOL    HW241013  12.227   1.312   7.775  0.5545 -1.3668  0.5263
43012SOL     OW41014   8.158  12.801  13.151  0.0499  0.3949  0.3944
43012SOL    HW141015   8.101  12.854  13.206 -1.8665 -1.2173  0.0553
43012SOL    HW241016   8.186  12.729  13.207 -0.7436 -0.4710 -0.2926
43013SOL     OW41017  11.830  10.101  11.634 -0.4553 -0.4451  0.0816
43013SOL    HW141018  11.844  10.018  11.681 -1.3379  0.0107  1.2080
43013SOL    HW241019  11.792  10.159  11.700 -0.8473  0.5313 -0.9772
43014SOL     OW41020   2.508  13.437   7.175  0.0550  0.1446  0.1601
43014SOL    HW141021   2.494  13.530   7.192  0.4121  0.1743  0.3011
43014SOL    HW241022   2.441  13.393   7.227 -1.0362  0.3708 -1.0056
43015SOL     OW41023   9.505   9.884   6.426 -0.5427  0.1813  0.1429
43015SOL    HW141024   9.564   9.900   6.353 -0.9091 -0.8589 -0.3831
43015SOL    HW241025   9.552   9.920   6.502  0.0032  0.9186 -0.5203
43016SOL     OW41026  12.057   9.451  10.962  0.6756 -0.1760  0.5571
43016SOL    HW141027  11.966   9.478  10.973  0.1230 -0.7285 -2.0867
43016SOL    HW241028  12.053   9.355  10.956  1.1804 -0.1112 -1.2875
43017SOL     OW41029   4.635   0.011   4.825 -0.3001 -0.3066 -0.0832
43017SOL    HW141030   4.700   0.019   4.755 -0.7017  0.8496 -0.3443
43017SOL    HW241031   4.566  -0.045   4.787 -0.4167  0.1413 -0.5513
43018SOL     OW41032   1.705   3.801   4.665  0.3417  0.1780  0.2491
43018SOL    HW141033   1.714   3.764   4.753  1.1316 -0.1893  0.0295
43018SOL    HW241034   1.662   3.732   4.614  1.8148 -0.4829 -0.1605
43019SOL     OW41035   9.446   8.243   2.150  0.1371 -0.1335 -0.1586
43019SOL    HW141036   9.365   8.222   2.102 -0.6912  1.2187  0.5980
43019SOL    HW241037   9.423   8.233   2.242  0.5396  1.2101  0.1072
43020SOL     OW41038   9.797   7.866   1.629  0.5784 -0.4633 -0.9499
43020SOL    HW141039   9.867   7.931   1.626  0.1434 -0.0026 -1.5169
43020SOL    HW241040   9.842   7.782   1.619  1.4745 -0.5676  2.5608
43021SOL     OW41041   1.963   0.952   2.107  0.1193 -0.0427  0.0057
43021SOL    HW141042   1.961   0.994   2.021  1.0590 -1.0563 -0.5265
43021SOL    HW241043   1.907   1.008   2.162  0.1306  1.0483 -1.0538
43022SOL     OW41044   9.526  13.223  10.343  0.0993 -0.0999  0.0705
43022SOL    HW141045   9.553  13.292  10.403  1.8472 -0.9533  0.3231
43022SOL    HW241046   9.575  13.240  10.262 -0.5753 -0.2278 -0.3793
43023SOL     OW41047   7.507  13.465   8.924 -0.3528  0.8361 -0.1756
43023SOL    HW141048   7.455  13.542   8.948 -1.2085  0.5131 -0.9360
43023SOL    HW241049   7.517  13.416   9.006 -1.0092  1.0495  0.0346
43024SOL     OW41050  11.763   6.943  12.001  0.3997  0.4127  0.2076
43024SOL    HW141051  11.719   7.025  12.024  1.3536  1.1005 -0.3387
43024SOL    HW241052  11.843   6.944  12.054  0.0876 -0.5133  0.7164
43025SOL     OW41053   5.166   2.848   8.669 -0.7313  0.2259  0.0735
43025SOL    HW141054   5.111   2.911   8.622 -0.6998  1.5788  1.7394
43025SOL    HW241055   5.240   2.832   8.610 -2.2124 -0.6250 -1.6603
43026SOL     OW41056  13.887   0.975  11.097 -0.3963 -0.6604 -0.2781
43026SOL    HW141057  13.960   0.933  11.053  2.7330  0.6591  3.1583
43026SOL    HW241058  13.871   0.920  11.175 -2.6257 -0.4793 -0.5217
43027SOL     OW41059   1.331  10.112  11.054 -0.2511 -0.0781 -0.1451
43027SOL    HW141060   1.246  10.128  11.095 -0.6219 -2.1813 -0.0122
43027SOL    HW241061   1.324  10.151  10.967 -0.8390  0.9735  0.3535
43028SOL     OW41062   3.978   3.973   3.039  0.0015 -0.1281 -0.1426
43028SOL    HW141063   3.966   4.046   3.100  0.6305  0.6720 -0.9466
43028SOL    HW241064   4.056   3.995   2.990 -0.6954 -0.5579 -1.5004
43029SOL     OW41065   9.618   9.052   1.799  0.0318 -0.3603  0.9444
43029SOL    HW141066   9.661   9.057   1.713 -1.7876 -0.0248 -0.0062
43029SOL    HW241067   9.639   9.135   1.841  1.5863 -0.8419  1.1835
43030SOL     OW41068  12.952   4.158   0.839  0.1755  0.1166  0.2641
43030SOL    HW141069  12.943   4.181   0.747  1.1444  0.5772  0.2752
43030SOL    HW241070  13.005   4.078   0.839 -0.6197 -0.4270  0.3858
43031SOL     OW41071   4.623  13.897   3.809 -0.2311  0.2030  0.1792
43031SOL    HW141072   4.543  13.945   3.831  0.0648 -0.1043  2.1647
43031SOL    HW241073   4.594  13.808   3.791 -0.3274 -0.0530  1.4776
43032SOL     OW41074   5.117   0.234   1.620  0.1785  0.0990  0.7590
43032SOL    HW141075   5.187   0.173   1.645  0.7549 -0.0290 -1.0296
43032SOL    HW241076   5.047   0.178   1.588  1.2614  0.2944 -2.2814
43033SOL     OW41077   0.210   2.453  11.805  0.0605  0.2759  0.5577
43033SOL    HW141078   0.116   2.452  11.823 -0.8321  1.0885 -3.2319
43033SOL    HW241079   0.238   2.542  11.823  0.4612 -0.2415  2.7914
43034SOL     OW41080   3.450   4.071   5.037  0.6906 -0.1939  0.0382
43034SOL    HW141081   3.437   3.989   5.085  0.3906 -0.3687 -0.3317
43034SOL    HW241082   3.444   4.140   5.104 -0.5829 -0.3727  0.1351
43035SOL     OW41083  10.887   7.682   7.342 -0.3902  0.0801  0.6182
43035SOL    HW141084  10.955   7.651   7.402 -0.3793 -0.8720  0.1368
43035SOL    HW241085  10.811   7.627   7.361 -0.5671  0.1587  0.1560
43036SOL     OW41086   5.951   7.791  13.825 -0.3987 -0.4434  0.3933
43036SOL    HW141087   6.009   7.724  13.860  0.0729 -0.9112 -1.2008
43036SOL    HW241088   6.008   7.846  13.771 -1.3484 -0.7563 -1.0032
43037SOL     OW41089   9.336   0.608  11.439 -0.1038 -0.3554  0.4230
43037SOL    HW141090   9.322   0.545  11.509 -1.2116 -1.5457 -0.7957
43037SOL    HW241091   9.306   0.563  11.360  2.9381  0.1547 -1.1881
43038SOL     OW41092   7.267   1.663  10.235  0.1387 -0.1142 -0.1682
43038SOL    HW141093   7.326   1.688  10.165  1.5860  0.5218  1.2228
43038SOL    HW241094   7.315   1.598  10.286 -1.8247 -2.4871 -1.0943
43039SOL     OW41095   7.263   8.168  13.851 -0.1890  0.5544  0.3356
43039SOL    HW141096   7.267   8.112  13.928 -1.1542  0.6526  0.4612
43039SOL    HW241097   7.177   8.209  13.855 -0.1580  0.7406 -0.6651
43040SOL     OW41098  11.629  13.605   9.952 -0.1044 -0.1331 -0.0499
43040SOL    HW141099  11.667  13.604  10.039  0.2179  1.0104 -0.1602
43040SOL    HW241100  11.695  13.564   9.896  0.3444  0.5202 -0.0017
43041SOL     OW41101   0.276   6.174   7.564  0.2852  0.3885  0.4286
43041SOL    HW141102   0.328   6.095   7.580 -0.6758 -0.2866  0.3109
43041SOL    HW241103   0.281   6.223   7.646  0.4442 -0.0651  0.6973
43042SOL     OW41104   4.199   2.451  10.943  0.1970  0.0963 -0.2142
43042SOL    HW141105   4.155   2.503  10.876 -0.7268  0.4416  0.6374
43042SOL    HW241106   4.147   2.466  11.022  0.9055 -0.7983  0.4285
43043SOL     OW41107   8.197   3.033   3.141  0.1155  0.5385  0.0995
43043SOL    HW141108   8.105   3.046   3.164  0.3911  0.4492  1.3093
43043SOL    HW241109   8.215   3.103   3.079 -0.9024  0.2434 -0.5588
43044SOL     OW41110  13.725  12.468   0.987  0.0264 -0.7766  0.3122
43044SOL    HW141111  13.747  12.548   0.939 -0.1199 -0.3952  0.8750
43044SOL    HW241112  13.791  12.462   1.056 -1.0027 -0.1770  1.3752
43045SOL     OW41113   7.028   9.664   7.598  0.4096 -0.3198  0.4164
43045SOL    HW141114   7.085   9.712   7.538  1.6538 -2.0907  0.0901
43045SOL    HW241115   7.050   9.697   7.684  0.6339  0.2744  0.1354
43046SOL     OW41116  11.795  14.023   7.267 -0.0452 -0.0779 -0.3574
43046SOL    HW141117  11.754  14.060   7.189  2.7345  1.6087 -1.1789
43046SOL    HW241118  11.788  14.092   7.333  0.2612 -0.2960 -0.0944
43047SOL     OW41119   2.240   4.339   7.043 -0.1301  0.0761 -0.1277
43047SOL    HW141120   2.168   4.306   7.097  1.5615 -1.2815  1.4154
43047SOL    HW241121   2.229   4.434   7.045 -1.8314 -0.0866  0.0974
43048SOL     OW41122   9.879  12.722  11.989 -1.0076 -0.5055 -0.3578
43048SOL    HW141123   9.887  12.689  11.900 -0.7344  0.5726 -0.7487
43048SOL    HW241124   9.787  12.706  12.013 -1.0800 -0.7935 -0.8220
43049SOL     OW41125   9.372  12.854   7.115 -0.5015  0.2964  0.0254
43049SOL    HW141126   9.427  12.855   7.037  0.0883  0.2678  0.4274
43049SOL    HW241127   9.373  12.763   7.144 -1.3711  0.1570 -0.3794
43050SOL     OW41128  10.581  12.784   0.290 -0.4634 -0.8461  0.3957
43050SOL    HW141129  10.615  12.833   0.215 -0.3082 -1.2378  0.2027
43050SOL    HW241130  10.503  12.741   0.256 -2.3654  1.6371  1.3705
43051SOL     OW41131   8.485   6.152   1.603 -0.0406  0.3965  0.6684
43051SOL    HW141132   8.528   6.215   1.545  2.3601  0.2220  2.0931
43051SOL    HW241133   8.422   6.107   1.547  2.7920 -0.4581 -2.2021
43052SOL     OW41134   7.269   7.830  11.757 -0.4351  0.2510  0.4600
43052SOL    HW141135   7.293   7.905  11.810 -3.4614  0.6030  1.5069
43052SOL    HW241136   7.177   7.844  11.735 -1.6585 -3.8145  1.9996
43053SOL     OW41137   1.311   1.070  10.183  0.2547  0.5558 -0.0134
43053SOL    HW141138   1.300   0.984  10.224  0.9142  0.5276  0.1235
43053SOL    HW241139   1.281   1.059  10.093  1.1440 -0.0542 -0.2454
43054SOL     OW41140   4.765  13.162   1.534  0.3044 -0.5802  0.6483
43054SOL    HW141141   4.703  13.231   1.512 -0.4376 -0.3344  3.1880
43054SOL    HW241142   4.830  13.205   1.590  0.3717 -1.7121  1.4749
43055SOL     OW41143  11.111   3.387   8.155  0.1168 -0.2452  0.3288
43055SOL    HW141144  11.202   3.417   8.152  0.1857 -0.5511 -1.4888
43055SOL    HW241145  11.070   3.425   8.077 -1.0503 -0.9423  0.5758
43056SOL     OW41146   7.620   0.834  12.190 -0.2173 -0.4894 -0.6046
43056SOL    HW141147   7.668   0.916  12.200 -2.3031  0.8023 -0.6546
43056SOL    HW241148   7.688   0.768  12.174  1.7195  0.7758  1.7806
43057SOL     OW41149  10.485   1.291   2.751 -0.5283  0.0127 -0.1620
43057SOL    HW141150  10.545   1.282   2.825  0.3143 -0.0782 -0.8420
43057SOL    HW241151  10.522   1.234   2.683 -0.9303  0.5889 -0.8753
43058SOL     OW41152  13.840  12.182  11.669  0.1124  0.3448  0.3742
43058SOL    HW141153  13.850  12.133  11.751 -1.0808  0.5646  0.6742
43058SOL    HW241154  13.748  12.209  11.668  0.2929  0.9980 -0.6799
43059SOL     OW41155   1.771  12.961   9.082 -0.0436  0.2234  0.2251
43059SOL    HW141156   1.745  13.010   9.004  1.1263 -0.2004 -0.4633
43059SOL    HW241157   1.692  12.916   9.109 -0.1387 -0.8943 -1.6917
43060SOL     OW41158   7.839   0.599   9.254  0.4486 -0.3618 -0.2718
43060SOL    HW141159   7.761   0.584   9.307 -0.3439  0.3825 -1.1986
43060SOL    HW241160   7.807   0.641   9.175  1.4823 -2.3574 -1.8332
43061SOL     OW41161   9.181  11.537  10.293 -0.0843  0.1937  0.2444
43061SOL    HW141162   9.103  11.592  10.278  1.2529  2.1953  0.2437
43061SOL    HW241163   9.219  11.571  10.374  1.4516  0.0726 -0.3912
43062SOL     OW41164   3.896   7.388  10.722  0.8922  0.1087 -0.4645
43062SOL    HW141165   3.906   7.431  10.807  0.2441 -2.8442  1.2489
43062SOL    HW241166   3.822   7.328  10.734  1.4220 -1.1527 -2.7898
43063SOL     OW41167  12.306   8.584  10.550 -0.0492  0.1021 -0.6681
43063SOL    HW141168  12.278   8.652  10.488  0.2405  1.9374  1.1387
43063SOL    HW241169  12.390   8.615  10.583  1.0994 -2.1803 -1.2730
43064SOL     OW41170  13.723   3.611   4.987 -0.4757  0.3259  0.1973
43064SOL    HW141171  13.819   3.615   4.990 -0.4386 -0.4919  0.2437
43064SOL    HW241172  13.695   3.664   5.061 -0.0650  0.8815 -0.0390
43065SOL     OW41173   7.081  11.245  10.156  0.7499 -0.0242 -0.0261
43065SOL    HW141174   6.994  11.237  10.118  1.0194 -1.6964 -0.3958
43065SOL    HW241175   7.117  11.325  10.118 -1.8997  2.8933  2.9487
43066SOL     OW41176   0.337   4.737  11.161 -0.5972 -0.2547 -0.4489
43066SOL    HW141177   0.252   4.771  11.188 -0.2831  1.3376 -1.3877
43066SOL    HW241178   0.401   4.789  11.210 -0.1303 -2.1714  1.0964
43067SOL     OW41179   7.752   4.527   3.526  0.2298 -0.1360 -0.5862
43067SOL    HW141180   7.757   4.516   3.431  0.3075 -0.7201 -0.5193
43067SOL    HW241181   7.700   4.453   3.556 -0.1659  0.2880 -0.2148
43068SOL     OW41182  12.754   9.292  10.207  0.3261 -0.2304 -0.0535
43068SOL    HW141183  12.716   9.364  10.157 -0.7240 -1.2525 -0.8097
43068SOL    HW241184  12.828   9.262  10.153 -0.9331 -1.4680 -1.1896
43069SOL     OW41185   1.200  11.427   5.919 -0.4365 -0.5072  0.0449
43069SOL    HW141186   1.293  11.421   5.937 -0.2094  0.3220 -0.7830
43069SOL    HW241187   1.173  11.336   5.902  0.6971 -0.5469 -1.8606
43070SOL     OW41188  12.408   8.271   0.760 -0.1843  0.1218  0.6733
43070SOL    HW141189  12.500   8.268   0.785 -0.4164  2.6399  2.2314
43070SOL    HW241190  12.406   8.236   0.671  1.7812 -2.6695  1.5964
43071SOL     OW41191   7.105   3.311   2.918  0.2306  0.3295  0.2675
43071SOL    HW141192   7.060   3.227   2.913 -1.0322  0.9410  0.8507
43071SOL    HW241193   7.045   3.367   2.968  1.9656  0.9764  1.7210
43072SOL     OW41194   1.152   4.969   4.038  0.2278  0.3265 -0.0023
43072SOL    HW141195   1.232   5.015   4.064 -0.5710  0.9082  1.5120
43072SOL    HW241196   1.093   5.038   4.010 -0.4848  0.1109  0.9254
43073SOL     OW41197   4.482   8.533   9.509 -0.1470 -0.1044  0.3144
43073SOL    HW141198   4.436   8.549   9.426  0.7999 -1.3189 -0.4868
43073SOL    HW241199   4.556   8.478   9.484  0.2709 -0.3245  1.9597
43074SOL     OW41200  13.168  13.252  13.746  0.8298  0.1104  0.7669
43074SOL    HW141201  13.203  13.305  13.674 -0.0561  0.1238  0.3409
43074SOL    HW241202  13.085  13.218  13.713  1.1514 -1.1531  1.2227
43075SOL     OW41203   1.147  13.074  10.513  0.3452  0.3854 -0.1378
43075SOL    HW141204   1.159  13.005  10.448  1.6364  2.1776 -1.9570
43075SOL    HW241205   1.100  13.143  10.466  0.8999  1.5594  0.9596
43076SOL     OW41206   2.264  10.562   3.961 -1.0339 -0.0746  0.0296
43076SOL    HW141207   2.176  10.566   3.924 -0.6387  3.3902 -0.8994
43076SOL    HW241208   2.314  10.510   3.898 -1.4390  1.8742 -2.0368
43077SOL     OW41209  12.731   7.874   9.274 -0.1839 -0.1412  0.7548
43077SOL    HW141210  12.811   7.902   9.319  0.7863  1.2592 -1.6697
43077SOL    HW241211  12.661   7.922   9.317  0.4479 -0.1934  1.8945
43078SOL     OW41212   7.582  10.896   9.747 -0.1643  0.1273  0.1551
43078SOL    HW141213   7.501  10.947   9.749  0.7681  1.6167  1.7127
43078SOL    HW241214   7.556  10.808   9.775 -1.7268 -0.2880 -2.2294
43079SOL     OW41215   1.874  10.311   9.787 -0.1757  0.2103  0.9868
43079SOL    HW141216   1.795  10.258   9.785 -0.4113  0.4951  2.1083
43079SOL    HW241217   1.936  10.265   9.730 -1.1308 -0.0188  0.1210
43080SOL     OW41218   4.605   6.638  11.337  0.3507  0.4429  0.3430
43080SOL    HW141219   4.639   6.675  11.418 -0.2859  0.7428  0.4751
43080SOL    HW241220   4.533   6.696  11.311  1.3815  1.1365 -1.1516
43081SOL     OW41221   3.429  10.804   9.719  0.5802  0.5558  0.0245
43081SOL    HW141222   3.497  10.747   9.754  0.2644 -0.0636 -0.3396
43081SOL    HW241223   3.475  10.883   9.692  1.3853 -0.3237 -1.3618
43082SOL     OW41224  10.035   4.626   7.933  0.2048 -0.0250 -0.6936
43082SOL    HW141225  10.088   4.687   7.883  1.1939  1.3417  1.8223
43082SOL    HW241226  10.095   4.589   7.997 -0.6319 -2.9158 -1.4558
43083SOL     OW41227   6.189   0.086   2.615  0.2410  0.3315 -0.1255
43083SOL    HW141228   6.147   0.169   2.638 -0.6491 -0.2867  0.5723
43083SOL    HW241229   6.281   0.098   2.638  0.0899  1.0754  0.1035
43084SOL     OW41230   1.923  11.274  12.198  0.1947  0.2180 -0.1712
43084SOL    HW141231   1.888  11.185  12.203 -3.0641  1.3184 -1.0528
43084SOL    HW241232   1.928  11.293  12.104  0.5556  1.0719  0.0108
43085SOL     OW41233   5.440   3.132  10.176  0.1787  0.3914  0.2704
43085SOL    HW141234   5.522   3.119  10.130 -0.0519 -1.3975  0.2730
43085SOL    HW241235   5.449   3.082  10.257 -0.8667  0.2525  0.3228
43086SOL     OW41236   4.586  13.321  13.155  0.0481  0.0160 -0.1605
43086SOL    HW141237   4.540  13.245  13.119  0.5158 -0.5372  0.3789
43086SOL    HW241238   4.516  13.377  13.190 -0.2862 -0.2758 -0.3590
43087SOL     OW41239   2.850   9.314   7.383  0.6059  0.5266  0.2143
43087SOL    HW141240   2.791   9.367   7.330 -0.2214  0.4760  1.0576
43087SOL    HW241241   2.803   9.301   7.466  0.8277 -1.3852  0.0989
43088SOL     OW41242   2.060  11.879   0.234  0.4480 -0.1138 -0.1271
43088SOL    HW141243   2.096  11.845   0.316 -2.1054 -0.1166  1.0932
43088SOL    HW241244   2.013  11.958   0.260 -1.0741 -0.5434 -1.4045
43089SOL     OW41245   1.528  11.388   2.695 -0.0309  0.5006 -0.4577
43089SOL    HW141246   1.544  11.477   2.664  1.5418 -0.3220 -2.1980
43089SOL    HW241247   1.601  11.370   2.755  0.0778  0.1428 -0.6930
43090SOL     OW41248   6.108   9.614   3.562 -0.1498  0.3749  0.5342
43090SOL    HW141249   6.117   9.532   3.611 -1.1682 -1.6594 -2.3816
43090SOL    HW241250   6.044   9.665   3.611  0.0565 -0.8248  2.1237
43091SOL     OW41251  10.199   1.209  12.320  0.2086 -0.1842 -0.1979
43091SOL    HW141252  10.185   1.213  12.225  0.5429 -2.4065 -0.4121
43091SOL    HW241253  10.142   1.277  12.356 -1.1786 -0.3715 -1.8885
43092SOL     OW41254   7.861   7.243   2.871 -0.3524  0.2238 -0.1939
43092SOL    HW141255   7.857   7.201   2.785 -2.9240 -1.7127  0.7181
43092SOL    HW241256   7.902   7.328   2.856  0.4219 -0.5744 -3.0761
43093SOL     OW41257   1.887   6.707   4.515 -0.4393 -0.2705 -0.1770
43093SOL    HW141258   1.817   6.764   4.483  0.5667  0.2534 -1.4892
43093SOL    HW241259   1.927   6.671   4.436 -0.3450 -1.9615  0.5999
43094SOL     OW41260   6.315   3.169   2.779 -0.1141  0.5443  0.4794
43094SOL    HW141261   6.384   3.120   2.825 -1.2249 -0.5674  0.9952
43094SOL    HW241262   6.261   3.103   2.738 -0.9498  1.3994  0.1639
43095SOL     OW41263  13.949  12.166   4.334 -0.1937  0.4411 -0.0408
43095SOL    HW141264  13.954  12.139   4.242 -1.2090 -0.3048  0.0985
43095SOL    HW241265  14.038  12.155   4.367 -0.3252 -1.7153 -0.2969
43096SOL     OW41266   3.198  13.991   7.374 -0.3051  0.2514  0.2059
43096SOL    HW141267   3.274  13.933   7.368 -0.7434 -0.3473  0.3664
43096SOL    HW241268   3.222  14.068   7.322 -0.6965 -1.1733 -2.2306
43097SOL     OW41269   6.668  10.358   4.470  0.0096 -0.0992  0.1837
43097SOL    HW141270   6.587  10.308   4.465  0.5609 -0.9996  0.1063
43097SOL    HW241271   6.729  10.301   4.516  0.8859  0.1724 -0.6182
43098SOL     OW41272   6.682   1.200   2.500  0.3025 -0.1888  1.1137
43098SOL    HW141273   6.726   1.136   2.556  0.4523  0.6492  1.9719
43098SOL    HW241274   6.604   1.225   2.549  1.7044  2.4320  2.1674
43099SOL     OW41275   8.342  10.591   6.504 -0.3169  0.8041  0.3341
43099SOL    HW141276   8.405  10.579   6.575 -0.1725  1.8731  0.4068
43099SOL    HW241277   8.276  10.650   6.541 -0.0612  1.6426 -0.5176
43100SOL     OW41278  13.699   8.265   2.548  0.1669 -0.0145 -0.0949
43100SOL    HW141279  13.716   8.172   2.564  0.0853  0.0692  0.4763
43100SOL    HW241280  13.747   8.310   2.617  3.4613  0.5965 -2.5270
43101SOL     OW41281   1.238   5.554   5.305 -0.1975  0.3800 -0.0976
43101SOL    HW141282   1.144   5.565   5.316 -0.9532 -4.3797  0.3672
43101SOL    HW241283   1.259   5.474   5.354  4.1138  1.1529 -0.2671
43102SOL     OW41284   5.681  12.410   8.816 -0.0893 -0.9239 -0.7277
43102SOL    HW141285   5.717  12.448   8.897 -0.0302 -2.7553  0.1650
43102SOL    HW241286   5.696  12.476   8.749 -0.4312  0.7866  0.8249
43103SOL     OW41287   6.982   7.940   4.609  0.6301 -0.1738  0.1669
43103SOL    HW141288   7.071   7.909   4.593  0.2793 -0.8937 -0.4147
43103SOL    HW241289   6.931   7.905   4.537  0.0228  0.9324  0.0429
43104SOL     OW41290   6.440   9.405   5.563  0.2569  0.9517  0.1870
43104SOL    HW141291   6.429   9.421   5.657 -1.3512 -1.7952  0.5423
43104SOL    HW241292   6.352   9.408   5.527  0.8706  2.2087 -1.3498
43105SOL     OW41293  10.181   1.231   1.036  0.4499  0.0175 -0.0936
43105SOL    HW141294  10.254   1.275   1.079 -1.5056  1.1292  2.3103
43105SOL    HW241295  10.125   1.303   1.004 -0.4665 -0.7747 -0.3320
43106SOL     OW41296   3.072   0.409   5.467 -0.5021  0.3185  0.1792
43106SOL    HW141297   3.047   0.492   5.508 -0.0430  0.0433  1.0266
43106SOL    HW241298   3.139   0.434   5.403 -0.3874  0.6124  0.4085
43107SOL     OW41299  13.351  10.910   2.517  0.3559 -0.1052  0.4579
43107SOL    HW141300  13.275  10.869   2.557 -1.4530  1.3922 -1.2127
43107SOL    HW241301  13.387  10.843   2.458  0.0070 -0.6522  0.8607
43108SOL     OW41302   9.816   3.393  11.439  0.7743  0.1472  0.1659
43108SOL    HW141303   9.778   3.311  11.408  1.2006 -1.1235  2.7325
43108SOL    HW241304   9.761   3.461  11.400 -1.4398 -1.4732  0.2894
43109SOL     OW41305  12.601  13.156   5.439  0.1252  0.5479  0.2831
43109SOL    HW141306  12.675  13.137   5.497 -0.7455 -0.4868  1.0977
43109SOL    HW241307  12.525  13.122   5.486 -0.8690  1.5822 -0.5496
43110SOL     OW41308   4.692   0.806   5.459  0.0558 -0.1283  0.3901
43110SOL    HW141309   4.635   0.883   5.460  0.2826  0.0350  0.8370
43110SOL    HW241310   4.746   0.815   5.537 -0.2080 -0.9604  0.6818
43111SOL     OW41311   9.310   8.338   1.601  0.5218 -0.2852 -0.1894
43111SOL    HW141312   9.351   8.275   1.660  0.9702 -2.5776 -2.7381
43111SOL    HW241313   9.245   8.383   1.655  1.3251 -1.7769  2.1607
43112SOL     OW41314   6.293   7.607   8.222 -0.2115 -0.0245 -0.0206
43112SOL    HW141315   6.327   7.519   8.203  0.4436  0.3031 -0.3727
43112SOL    HW241316   6.199   7.599   8.209 -0.0313 -0.3856 -1.2091
43113SOL     OW41317   4.276   0.658   2.785  0.0661 -0.0993 -0.1794
43113SOL    HW141318   4.195   0.660   2.836 -1.2780  0.5640 -2.2314
43113SOL    HW241319   4.343   0.627   2.847 -1.6139 -0.0860  1.7305
43114SOL     OW41320   6.270   7.715   6.791  0.2551 -0.7356  0.2037
43114SOL    HW141321   6.246   7.636   6.841  0.7500 -1.1987 -0.2785
43114SOL    HW241322   6.290   7.780   6.858  0.1676 -1.1216  0.6107
43115SOL     OW41323   4.397   5.320   8.304  0.2910  0.5384 -0.6562
43115SOL    HW141324   4.354   5.388   8.355  0.1762  1.7091 -2.2462
43115SOL    HW241325   4.328   5.284   8.248  0.6804  0.1344 -0.8871
43116SOL     OW41326   3.068   1.842   5.346  0.0983 -0.0558  0.2577
43116SOL    HW141327   3.016   1.896   5.407 -0.6755 -0.2834 -0.1947
43116SOL    HW241328   3.085   1.900   5.272 -1.7396 -0.7433 -0.7699
43117SOL     OW41329  13.467   4.560  13.546 -0.5393 -0.3363  0.0701
43117SOL    HW141330  13.425   4.544  13.461  0.1408 -1.5601 -0.0481
43117SOL    HW241331  13.423   4.501  13.606  1.1249 -1.8353 -0.1045
43118SOL     OW41332   6.207   9.926  10.611 -0.5599 -0.0157  0.3075
43118SOL    HW141333   6.294   9.894  10.589 -0.5703 -0.4238  0.8329
43118SOL    HW241334   6.223  10.002  10.668 -0.5357  0.8973 -0.8831
43119SOL     OW41335  13.902   5.735   2.185 -0.1444 -0.5521  0.0768
43119SOL    HW141336  13.944   5.684   2.116  0.1131 -0.0497 -0.1385
43119SOL    HW241337  13.865   5.669   2.244  0.1488 -0.9878 -0.2212
43120SOL     OW41338  11.160  13.382   2.011 -0.0699 -0.5854 -0.1234
43120SOL    HW141339  11.085  13.441   2.004 -1.4386 -1.9806  1.7428
43120SOL    HW241340  11.233  13.440   2.036 -1.4463  0.3710  2.0384
43121SOL     OW41341   8.021   0.961   0.722 -0.0376 -0.3952 -0.2168
43121SOL    HW141342   8.021   0.952   0.817 -0.6807 -0.3947 -0.2128
43121SOL    HW241343   8.096   0.908   0.693  1.5638  1.4022  0.4361
43122SOL     OW41344   8.427   1.426   8.384  0.7436  0.2505 -0.2826
43122SOL    HW141345   8.478   1.485   8.328  1.4318  0.2817  0.3637
43122SOL    HW241346   8.486   1.405   8.457 -0.3708  0.7644  0.8007
43123SOL     OW41347  12.627   4.792   2.546  0.3346 -0.5203  0.9469
43123SOL    HW141348  12.653   4.720   2.603  1.2034 -0.3836  0.7342
43123SOL    HW241349  12.534   4.807   2.567  0.0451 -1.9121  0.7378
43124SOL     OW41350  13.117   5.869   5.321 -0.0357  0.5016  0.3761
43124SOL    HW141351  13.195   5.889   5.372 -0.9311  1.6881  1.3348
43124SOL    HW241352  13.044   5.894   5.378 -1.1608 -1.5583 -0.0795
43125SOL     OW41353   3.029  14.042   6.148 -0.5169  0.7390  0.3089
43125SOL    HW141354   3.071  14.114   6.195 -0.4901  0.8765  0.0794
43125SOL    HW241355   3.058  13.963   6.193 -0.4420  0.8659  0.4824
43126SOL     OW41356   5.941   3.355   2.089  0.1742  0.1263  0.2843
43126SOL    HW141357   6.003   3.344   2.016  0.9705 -1.5006  1.1528
43126SOL    HW241358   5.878   3.284   2.077  1.6023 -1.6081  2.3631
43127SOL     OW41359   1.692   2.209  13.048  0.1951  0.1920 -0.6112
43127SOL    HW141360   1.649   2.295  13.041  1.4903  0.9863  0.6926
43127SOL    HW241361   1.751   2.205  12.972  0.0208  0.3735 -0.7590
43128SOL     OW41362  11.622  13.051   6.339 -0.6973 -0.5661  0.8332
43128SOL    HW141363  11.658  13.056   6.251  0.7570 -0.5562  1.4013
43128SOL    HW241364  11.602  12.958   6.352 -1.3991 -0.4952  0.3307
43129SOL     OW41365   0.371   0.879   6.461 -0.0776 -0.7942 -0.3428
43129SOL    HW141366   0.356   0.955   6.517  1.3453 -0.1341 -0.8301
43129SOL    HW241367   0.305   0.887   6.392  0.1193  0.0536 -0.4437
43130SOL     OW41368  10.344   1.777   7.862 -0.0253 -0.2338  0.3947
43130SOL    HW141369  10.353   1.719   7.786 -2.0857 -0.9733  0.6371
43130SOL    HW241370  10.349   1.719   7.938  3.5458  0.6772  1.0348
43131SOL     OW41371  13.261   5.357   7.413  0.6219 -0.3162 -0.0760
43131SOL    HW141372  13.341   5.381   7.366 -0.2167 -1.0170 -1.9796
43131SOL    HW241373  13.193   5.412   7.374  0.2292  0.6495  1.8863
43132SOL     OW41374  11.569  13.680   8.402  0.1530  0.6450  0.1188
43132SOL    HW141375  11.636  13.641   8.458  0.3808  1.7084  0.6184
43132SOL    HW241376  11.592  13.650   8.313  0.1552 -0.5379  0.5048
43133SOL     OW41377   3.982   9.133   1.465 -0.1630 -0.3474 -0.1134
43133SOL    HW141378   3.954   9.192   1.535  1.0409  0.6184 -0.4138
43133SOL    HW241379   3.966   9.182   1.385 -0.0198 -0.8084 -0.4275
43134SOL     OW41380   5.014   1.518  12.577 -0.3290  0.1260 -0.0489
43134SOL    HW141381   4.932   1.566  12.572 -0.3640  0.1665  0.7650
43134SOL    HW241382   4.989   1.429  12.601 -0.0824  0.3743  1.1876
43135SOL     OW41383   3.137  11.707  12.213 -0.3014 -0.0969 -0.5843
43135SOL    HW141384   3.090  11.654  12.149 -0.2246  1.2224 -1.8018
43135SOL    HW241385   3.068  11.759  12.256 -0.2410 -0.1570 -0.4175
43136SOL     OW41386   8.909   5.162   8.481  0.1882 -0.2105 -0.0654
43136SOL    HW141387   8.838   5.099   8.465  0.1569 -0.7571  1.9991
43136SOL    HW241388   8.989   5.110   8.471  0.1906 -0.3548  0.6587
43137SOL     OW41389   5.949   6.100   7.318 -0.5491 -0.1996  0.3338
43137SOL    HW141390   5.992   6.180   7.348 -0.8100 -0.0169  0.2211
43137SOL    HW241391   5.856   6.118   7.326 -0.6583  0.1959 -1.4276
43138SOL     OW41392   1.284   0.422   9.344 -0.5180 -0.0744 -0.1641
43138SOL    HW141393   1.354   0.484   9.325 -0.0109 -0.8138 -0.7749
43138SOL    HW241394   1.300   0.393   9.433 -0.9036  0.8526  0.2145
43139SOL     OW41395  13.290   8.194   0.457  0.3110  0.1261  0.5295
43139SOL    HW141396  13.375   8.223   0.492  0.4359 -1.3727  1.5672
43139SOL    HW241397  13.296   8.098   0.456 -0.2361  0.0306 -2.3515
43140SOL     OW41398   7.412   4.394  12.315 -0.2183  0.0913 -0.0682
43140SOL    HW141399   7.375   4.307  12.328 -0.5490  0.2000 -0.2521
43140SOL    HW241400   7.385   4.443  12.393 -1.8723  0.6324 -0.9234
43141SOL     OW41401   3.645   1.766   7.272 -0.3526 -0.4051 -0.3647
43141SOL    HW141402   3.580   1.836   7.276 -0.3766 -0.4768  1.0905
43141SOL    HW241403   3.703   1.783   7.346 -1.1131 -2.6461  0.8202
43142SOL     OW41404   9.016   2.805   2.788 -0.0532  0.3732 -0.2186
43142SOL    HW141405   9.024   2.720   2.744 -0.9238 -0.2198  0.7366
43142SOL    HW241406   9.045   2.868   2.722 -0.0104 -0.6037 -1.1681
43143SOL     OW41407   7.280   2.143   7.082 -0.4474 -0.8196  0.0801
43143SOL    HW141408   7.230   2.199   7.143 -1.6337 -1.0730 -0.6247
43143SOL    HW241409   7.245   2.055   7.098  0.4692 -1.1609  0.2391
43144SOL     OW41410  12.799   1.334   0.195  0.8706  0.4247 -0.5276
43144SOL    HW141411  12.763   1.422   0.209  0.2901  0.0476  0.4760
43144SOL    HW241412  12.833   1.336   0.106 -0.3211  1.2701 -0.9929
43145SOL     OW41413   0.808  11.710   2.588 -0.1131 -0.0215  0.4256
43145SOL    HW141414   0.784  11.703   2.496  0.2649  3.0469 -0.0072
43145SOL    HW241415   0.728  11.739   2.631 -0.7409 -2.9038  1.4643
43146SOL     OW41416   0.554  13.518   4.776  0.5020  0.0716 -0.6248
43146SOL    HW141417   0.479  13.574   4.795 -1.3931 -2.5652  0.2912
43146SOL    HW241418   0.538  13.485   4.688  0.2534 -0.9430 -0.2129
43147SOL     OW41419  13.898   3.533   0.348  0.0812  0.2987 -0.3464
43147SOL    HW141420  13.904   3.441   0.374  3.0722  0.5360  0.1519
43147SOL    HW241421  13.831   3.570   0.406 -0.3814 -1.3001  0.2012
43148SOL     OW41422   0.801   9.305   4.919 -0.3901 -0.1712  0.1464
43148SOL    HW141423   0.720   9.268   4.884 -1.6007  0.4876  2.0529
43148SOL    HW241424   0.791   9.400   4.907  1.3470 -0.1745 -2.0000
43149SOL     OW41425   7.015   0.368  11.911 -0.5137  1.0458  0.1448
43149SOL    HW141426   7.040   0.280  11.937 -1.6093  0.3443 -1.0723
43149SOL    HW241427   6.940   0.390  11.968 -2.7200 -0.3740 -2.0066
43150SOL     OW41428   1.070   3.359   6.507  0.1879  0.3905 -0.0065
43150SOL    HW141429   1.066   3.330   6.598 -2.6539  0.4485 -0.0353
43150SOL    HW241430   1.017   3.438   6.504  1.5615  1.3255 -1.4433
43151SOL     OW41431   9.025   9.419   1.204 -0.2988  0.1000  0.1354
43151SOL    HW141432   9.029   9.419   1.108 -0.2686  1.0561  0.1280
43151SOL    HW241433   9.098   9.475   1.230  1.3117 -2.1648  0.8213
43152SOL     OW41434   5.103  11.189   3.602  0.8061 -0.3003 -0.1186
43152SOL    HW141435   5.048  11.265   3.618  0.6191 -0.5765  0.5811
43152SOL    HW241436   5.100  11.139   3.684  1.2659 -0.8417 -0.4227
43153SOL     OW41437   3.406  12.447   7.684 -0.1815  0.4858 -0.0026
43153SOL    HW141438   3.393  12.519   7.623  0.2521  1.1629  0.6884
43153SOL    HW241439   3.497  12.454   7.712 -0.3365  0.1107  0.6285
43154SOL     OW41440  11.082   4.638   7.890 -0.2649 -0.4079 -0.4074
43154SOL    HW141441  11.085   4.571   7.959  0.2947  1.1469  1.1402
43154SOL    HW241442  11.173   4.666   7.880 -0.3206 -0.7017 -1.9129
43155SOL     OW41443   4.360   6.606   5.348  0.1337 -0.5022  0.0557
43155SOL    HW141444   4.332   6.544   5.280  0.6694  0.5256 -1.1500
43155SOL    HW241445   4.278   6.632   5.391 -0.2202 -1.1662 -0.1911
43156SOL     OW41446   6.532  12.113  13.194 -0.5560 -0.4624 -0.5590
43156SOL    HW141447   6.553  12.108  13.100  1.1339  3.0963 -0.5138
43156SOL    HW241448   6.439  12.090  13.198 -0.3998 -1.8665 -2.9028
43157SOL     OW41449  12.000   2.068  11.530  0.0557 -0.4052 -0.0619
43157SOL    HW141450  12.092   2.097  11.528  0.2373 -0.9919 -1.2765
43157SOL    HW241451  11.961   2.119  11.601  0.5830  2.1102 -1.4206
43158SOL     OW41452  11.260   9.215   6.774  0.5748  0.7012  0.0721
43158SOL    HW141453  11.304   9.211   6.689  1.0508  0.8938  0.2995
43158SOL    HW241454  11.249   9.309   6.790  1.5383  0.7120  0.7393
43159SOL     OW41455   6.881  12.707   8.490 -0.4610 -0.0245  0.2204
43159SOL    HW141456   6.873  12.758   8.570  0.2132  0.7399 -0.1881
43159SOL    HW241457   6.794  12.709   8.451 -0.7288 -0.1849  0.7865
43160SOL     OW41458   8.107  13.773   0.193  0.2402  0.3592 -0.5439
43160SOL    HW141459   8.194  13.763   0.153  0.1450  1.8413 -1.1949
43160SOL    HW241460   8.056  13.821   0.128 -0.1281  2.2843  1.0701
43161SOL     OW41461  10.853   1.142   9.046  0.2888 -0.0781  0.0574
43161SOL    HW141462  10.938   1.118   9.007  0.7001  1.2855  0.0603
43161SOL    HW241463  10.814   1.201   8.982 -0.7016 -0.7380  0.0382
43162SOL     OW41464   7.397   7.863  11.472 -0.1374  0.3405 -0.3845
43162SOL    HW141465   7.361   7.931  11.529 -0.5842 -1.9312  2.2233
43162SOL    HW241466   7.483   7.844  11.509  0.3255  0.0282 -1.5805
43163SOL     OW41467   9.100   1.353   0.031 -0.3702 -0.4977 -0.2760
43163SOL    HW141468   9.099   1.285   0.098  0.1406  0.8657  1.1833
43163SOL    HW241469   9.189   1.351  -0.005 -0.2768 -0.4242 -0.0478
43164SOL     OW41470  12.341   0.612   4.031 -0.6005 -0.1785 -0.3017
43164SOL    HW141471  12.287   0.537   4.055  0.8408 -0.9436  0.6738
43164SOL    HW241472  12.405   0.577   3.968  1.2223 -0.2699  1.4790
43165SOL     OW41473   5.587   9.352   3.807 -0.2332 -0.3581 -0.2228
43165SOL    HW141474   5.498   9.344   3.774 -0.7329 -2.0395  1.3870
43165SOL    HW241475   5.642   9.316   3.737 -1.0794 -1.9556 -0.0903
43166SOL     OW41476  11.976   9.470   6.735  0.8440  0.0172 -0.3161
43166SOL    HW141477  12.011   9.390   6.697  1.6037 -0.4054  1.1850
43166SOL    HW241478  12.041   9.537   6.714  1.1691 -0.1756  0.0614
43167SOL     OW41479   0.501   6.279   8.369  0.4976 -0.1321 -0.2667
43167SOL    HW141480   0.512   6.355   8.311 -2.7117  0.3738 -0.3582
43167SOL    HW241481   0.533   6.205   8.317  1.9730  0.8647 -0.8668
43168SOL     OW41482  11.435   0.325   1.020  0.6500 -0.6841 -0.0838
43168SOL    HW141483  11.493   0.368   1.084  0.9563 -0.1507 -0.7111
43168SOL    HW241484  11.361   0.385   1.011 -1.3870 -2.5070  2.6540
43169SOL     OW41485   3.266   6.181   6.471  0.2348  0.5452 -0.1005
43169SOL    HW141486   3.343   6.175   6.526  0.1892  0.8812  0.0026
43169SOL    HW241487   3.192   6.184   6.532  0.1165 -0.0753 -0.2036
43170SOL     OW41488   6.613   2.483   3.497  0.0957 -0.2187  0.3189
43170SOL    HW141489   6.591   2.490   3.404 -0.5745 -0.4986  0.4449
43170SOL    HW241490   6.536   2.440   3.536  1.2665 -2.1364  0.6376
43171SOL     OW41491   9.174   5.027   8.554  0.4270 -0.6402 -0.2214
43171SOL    HW141492   9.190   4.957   8.617 -0.6034  0.3871  1.2511
43171SOL    HW241493   9.214   5.104   8.593 -1.2999  0.2806 -0.1796
43172SOL     OW41494   8.156   9.778   3.577 -0.4674  0.2420  0.0167
43172SOL    HW141495   8.177   9.850   3.636 -0.8299  1.4130 -1.2169
43172SOL    HW241496   8.216   9.789   3.503  0.5244 -1.6555  0.4771
43173SOL     OW41497   9.675   0.479   8.303  0.3061  0.4090 -0.5268
43173SOL    HW141498   9.700   0.563   8.343  0.6849  0.8108 -1.5821
43173SOL    HW241499   9.759   0.439   8.278  0.0407  0.6089 -1.7875
43174SOL     OW41500   8.115   4.035   3.797  0.1167  0.1529 -0.1367
43174SOL    HW141501   8.035   3.988   3.775 -0.2168  1.2331 -1.3599
43174SOL    HW241502   8.110   4.116   3.747  0.0703  2.0965  2.7505
43175SOL     OW41503   8.946   1.206   1.478  0.7187 -0.4176  0.1896
43175SOL    HW141504   8.998   1.232   1.554 -0.2954 -0.8399  1.0560
43175SOL    HW241505   8.883   1.277   1.466 -0.0360 -0.9769  0.6494
43176SOL     OW41506   0.634   6.266  11.200  0.2979  0.3640 -0.2376
43176SOL    HW141507   0.556   6.238  11.248  0.7619 -1.4759 -0.4735
43176SOL    HW241508   0.638   6.207  11.124  1.1243  1.3897 -1.0230
43177SOL     OW41509   8.496   0.930   3.037  0.3674 -0.0643 -0.0317
43177SOL    HW141510   8.574   0.950   3.089 -1.0317 -0.3743  2.3457
43177SOL    HW241511   8.432   0.996   3.064 -0.2749  0.0871 -1.8095
43178SOL     OW41512  11.507   6.433   8.325  0.3102 -0.2570 -0.5758
43178SOL    HW141513  11.557   6.431   8.406  2.5823  2.8931 -1.7206
43178SOL    HW241514  11.571   6.419   8.256 -1.1334 -0.2478 -1.9816
43179SOL     OW41515  10.077   0.741   7.554 -0.1301  0.5787 -0.1255
43179SOL    HW141516  10.106   0.787   7.633  0.3985 -0.3544  0.2411
43179SOL    HW241517  10.000   0.790   7.524 -0.9914  0.3216  1.5753
43180SOL     OW41518   8.224  13.679   7.354 -0.5448  0.0733  0.4970
43180SOL    HW141519   8.162  13.671   7.282  1.0624  0.7504 -1.0579
43180SOL    HW241520   8.188  13.626   7.424 -2.9581  0.6257 -0.2440
43181SOL     OW41521   0.310   8.681   5.164 -0.3461  0.4698  0.1583
43181SOL    HW141522   0.231   8.729   5.140 -0.1322  1.4445  1.3294
43181SOL    HW241523   0.364   8.683   5.085 -0.3515  2.1684  0.1610
43182SOL     OW41524  11.974   4.844   6.342  0.6740  0.0787  0.1644
43182SOL    HW141525  11.992   4.921   6.396  0.8004 -0.7877  1.3826
43182SOL    HW241526  11.886   4.817   6.366  0.2280  0.4240 -1.0072
43183SOL     OW41527  13.892   9.515   0.885 -0.2005 -0.0317  0.1061
43183SOL    HW141528  13.842   9.559   0.953  0.3646 -2.1308  2.0110
43183SOL    HW241529  13.831   9.453   0.846  0.0200 -0.2423  0.0957
43184SOL     OW41530  10.435   4.092   2.626  0.1286 -0.4737  0.2545
43184SOL    HW141531  10.346   4.061   2.607  0.2855 -0.2735 -0.8483
43184SOL    HW241532  10.425   4.187   2.632  0.3465 -0.4144 -0.3187
43185SOL     OW41533   0.755  11.074   0.559  0.4796  0.0132 -0.3974
43185SOL    HW141534   0.744  11.046   0.650  1.2910  2.5039  0.5555
43185SOL    HW241535   0.759  10.993   0.510 -3.0082 -1.4428  1.3428
43186SOL     OW41536   4.069   5.114   0.769  0.4438  0.1871 -0.3782
43186SOL    HW141537   4.043   5.202   0.795 -0.2627  0.2783 -1.3007
43186SOL    HW241538   3.987   5.073   0.738  0.7895 -0.7308 -0.1150
43187SOL     OW41539  12.930   0.275   1.901 -0.1036 -0.4256  0.2791
43187SOL    HW141540  13.016   0.288   1.942 -0.1992 -0.2661  0.4295
43187SOL    HW241541  12.928   0.340   1.830  0.2829 -1.0679 -0.3339
43188SOL     OW41542  13.612   6.633   2.698  0.8171 -0.2254 -0.2151
43188SOL    HW141543  13.661   6.678   2.628  1.7404  1.5855  1.4995
43188SOL    HW241544  13.647   6.544   2.697  3.6520  0.7586  0.3634
43189SOL     OW41545   5.122   8.431  11.500 -0.3506 -0.8155 -0.5048
43189SOL    HW141546   5.090   8.473  11.421  0.4829 -0.5826 -0.7267
43189SOL    HW241547   5.151   8.344  11.472 -0.4122 -0.8769 -0.3837
43190SOL     OW41548   6.911  10.299   5.703  0.4215  0.0616  0.0508
43190SOL    HW141549   6.956  10.264   5.780  1.3364 -0.0664 -0.5377
43190SOL    HW241550   6.922  10.232   5.636 -0.3920  0.1680 -0.1975
43191SOL     OW41551   5.054   1.495   2.524  0.3316  0.3866 -0.0582
43191SOL    HW141552   5.127   1.439   2.550  0.5075  0.6934  0.1264
43191SOL    HW241553   4.982   1.435   2.507 -0.1958  0.2389  2.4491
43192SOL     OW41554  12.672   1.006   7.260  0.5335 -0.8347  0.3170
43192SOL    HW141555  12.674   0.911   7.274 -0.0283 -1.1251 -1.3858
43192SOL    HW241556  12.746   1.023   7.202  2.4588  0.2471  2.8945
43193SOL     OW41557   4.376   6.670   3.128  0.0681 -0.3033 -0.0773
43193SOL    HW141558   4.467   6.674   3.159  0.1005 -1.6652  0.0627
43193SOL    HW241559   4.327   6.721   3.193  0.7676  0.7540 -0.3568
43194SOL     OW41560  13.253   9.270   7.702 -0.1613  0.0821 -0.0579
43194SOL    HW141561  13.187   9.312   7.757  0.1915 -1.5872  1.7475
43194SOL    HW241562  13.331   9.264   7.758  0.2654 -1.5238 -0.7718
43195SOL     OW41563   3.775   3.460  10.750  0.7922 -0.5837  0.0981
43195SOL    HW141564   3.729   3.496  10.674 -2.4662  0.2689  2.2629
43195SOL    HW241565   3.840   3.527  10.772 -0.2429  0.5944 -0.2570
43196SOL     OW41566  11.956   4.253   5.876  0.2869  0.2181  0.4608
43196SOL    HW141567  11.940   4.318   5.807 -1.3965 -0.7665 -0.1464
43196SOL    HW241568  11.974   4.305   5.954 -0.7698  1.4329 -0.0616
43197SOL     OW41569   1.094   6.602   5.544 -0.2502  0.0998 -0.6091
43197SOL    HW141570   1.189   6.598   5.543 -0.1440  1.6331  0.5345
43197SOL    HW241571   1.070   6.587   5.636 -1.0090  1.1911 -0.6143
43198SOL     OW41572   8.938   3.443   4.354 -0.2145 -0.2250  0.3939
43198SOL    HW141573   8.863   3.495   4.384 -0.7194 -0.8331  0.1949
43198SOL    HW241574   8.987   3.503   4.297 -0.8694 -0.0018  0.0557
43199SOL     OW41575   3.184   8.605   4.171 -0.5208  0.8931  0.3718
43199SOL    HW141576   3.158   8.697   4.170  0.8451  1.3162  1.0808
43199SOL    HW241577   3.275   8.606   4.200  0.1568 -0.5432 -1.4830
43200SOL     OW41578  13.921  12.947   0.707  0.8745  0.2118 -0.0809
43200SOL    HW141579  13.844  13.000   0.690  0.5328 -0.7097 -1.6059
43200SOL    HW241580  13.898  12.895   0.783 -1.1867 -2.0658 -2.0897
43201SOL     OW41581   9.219   5.484   5.622 -0.2728  0.5014 -0.5281
43201SOL    HW141582   9.267   5.417   5.573  0.4289  0.9224 -0.4440
43201SOL    HW241583   9.196   5.442   5.704 -1.1433 -0.0960 -1.0643
43202SOL     OW41584   7.926   3.888   9.243  0.0145  0.1560 -0.8393
43202SOL    HW141585   7.894   3.975   9.218  0.1554  0.7839  1.0184
43202SOL    HW241586   7.852   3.847   9.288  1.3002  1.2356  2.5908
43203SOL     OW41587   4.098   1.117   5.872  0.6192  0.0503  0.5156
43203SOL    HW141588   4.059   1.126   5.785  1.1917  1.1192  0.3421
43203SOL    HW241589   4.155   1.194   5.881 -0.6056  0.8017  2.4583
43204SOL     OW41590   1.466  13.042  10.908 -0.4357 -0.0262 -0.3089
43204SOL    HW141591   1.536  12.996  10.862  0.0838 -0.3990  0.8181
43204SOL    HW241592   1.510  13.107  10.962 -1.1537  1.7389 -1.7391
43205SOL     OW41593   8.520   5.426   7.629 -0.4638  0.3570 -0.0569
43205SOL    HW141594   8.525   5.333   7.604  0.5347  0.0859  1.0611
43205SOL    HW241595   8.433   5.454   7.599 -0.7288 -0.8997 -0.5308
43206SOL     OW41596  10.116   6.769  12.782 -0.0168 -0.1017 -0.4772
43206SOL    HW141597  10.039   6.819  12.758  1.2221  1.9359 -0.4569
43206SOL    HW241598  10.169   6.829  12.835  1.5145 -1.4639 -0.3580
43207SOL     OW41599   7.514  11.748  10.898  0.7830  0.4845 -0.1395
43207SOL    HW141600   7.588  11.781  10.847  1.5454 -0.9600 -0.0161
43207SOL    HW241601   7.497  11.816  10.963  2.5220  0.5098  0.3334
43208SOL     OW41602  10.300   6.660   3.397  0.2589  0.4528 -0.1665
43208SOL    HW141603  10.362   6.731   3.381  2.8922 -1.3727  1.0126
43208SOL    HW241604  10.316   6.634   3.488 -1.9774 -0.4224  0.0425
43209SOL     OW41605   9.624  12.162   7.859 -1.0506 -0.1362 -0.0751
43209SOL    HW141606   9.570  12.211   7.922 -2.0726 -2.2686  0.8348
43209SOL    HW241607   9.571  12.084   7.839  1.3154 -1.9163  0.1991
43210SOL     OW41608   7.487  10.641   9.815 -0.9331  0.0455  0.1892
43210SOL    HW141609   7.419  10.665   9.878 -0.3618 -1.3430  1.3900
43210SOL    HW241610   7.439  10.597   9.745 -1.4423  0.5043  0.2440
43211SOL     OW41611   8.482   5.455   3.408 -0.2689 -0.0895  0.0483
43211SOL    HW141612   8.553   5.446   3.345 -0.8448  1.1195 -0.8011
43211SOL    HW241613   8.403   5.455   3.354 -1.0245 -2.2420  1.0233
43212SOL     OW41614   2.785  12.794   3.452 -0.1908  0.0252 -0.3476
43212SOL    HW141615   2.696  12.760   3.441  0.5005 -1.8226 -0.5318
43212SOL    HW241616   2.789  12.868   3.392 -1.3013 -0.4915 -1.1043
43213SOL     OW41617   8.489   1.090   0.777  0.7603 -0.1935  0.4282
43213SOL    HW141618   8.491   1.138   0.860 -0.5480  2.0557 -0.7541
43213SOL    HW241619   8.512   1.000   0.801  3.5022  0.9824  2.7274
43214SOL     OW41620   0.721   1.828  10.109 -0.2425 -0.2099 -0.6446
43214SOL    HW141621   0.809   1.866  10.099 -0.1533  0.0497  0.9645
43214SOL    HW241622   0.674   1.890  10.164 -1.4027 -0.4505 -1.3266
43215SOL     OW41623   8.983   6.246  13.494 -0.9377  0.3868 -0.1113
43215SOL    HW141624   8.906   6.302  13.491 -1.7648 -0.3321  3.0796
43215SOL    HW241625   9.011   6.249  13.586  1.5196 -1.0980 -0.7155
43216SOL     OW41626  11.908   0.897   6.408  0.4437  0.7886  0.0342
43216SOL    HW141627  11.920   0.983   6.449  0.7868  1.4745 -1.4147
43216SOL    HW241628  11.997   0.868   6.387  0.2687  0.5953 -0.4600
43217SOL     OW41629   0.241  13.236   1.517 -0.4207  0.3764 -0.2751
43217SOL    HW141630   0.324  13.217   1.473 -0.3948  0.5929 -0.3213
43217SOL    HW241631   0.256  13.321   1.559 -0.9967  0.9589 -1.2167
43218SOL     OW41632  10.646   6.517  13.155 -0.1002 -0.4280 -0.2597
43218SOL    HW141633  10.636   6.611  13.167  1.1968 -0.2462 -0.4886
43218SOL    HW241634  10.734   6.506  13.120 -0.0320 -1.7710  0.2573
43219SOL     OW41635   2.731   7.147   0.003  0.2187 -0.2643  0.2690
43219SOL    HW141636   2.743   7.233   0.043 -0.0357 -0.0229 -0.1672
43219SOL    HW241637   2.819   7.111  -0.003  0.3847  0.1929 -0.0474
43220SOL     OW41638   8.272  13.609  10.950 -0.1192  0.4270  0.2858
43220SOL    HW141639   8.246  13.686  10.900 -0.8168  0.5103  0.7708
43220SOL    HW241640   8.252  13.535  10.893 -0.9666  0.5180  0.4583
43221SOL     OW41641  10.538  10.614   4.236  0.0063 -0.1179  0.7898
43221SOL    HW141642  10.586  10.679   4.288  1.2803 -2.1722  2.3312
43221SOL    HW241643  10.584  10.611   4.152  1.2812 -0.5066  1.4746
43222SOL     OW41644   3.329   1.427  11.645 -0.5636  0.2455  0.6894
43222SOL    HW141645   3.369   1.513  11.648  0.1890 -0.1106  0.9891
43222SOL    HW241646   3.346   1.396  11.556  0.2614 -0.1050  0.9638
43223SOL     OW41647   8.614   2.557   6.329 -0.4936 -0.0011  0.1094
43223SOL    HW141648   8.664   2.636   6.309 -1.7500  0.5454 -1.0340
43223SOL    HW241649   8.563   2.580   6.407 -0.6745  0.2475 -0.0785
43224SOL     OW41650   0.395   0.632   5.700  0.2983 -0.3606 -0.4376
43224SOL    HW141651   0.486   0.606   5.718  0.9395  2.4361  0.9247
43224SOL    HW241652   0.343   0.579   5.761  1.2124 -0.6287  0.1416
43225SOL     OW41653  13.332   6.997   4.522  0.5031 -0.7718 -0.7433
43225SOL    HW141654  13.364   6.916   4.482  2.5578  0.0880 -0.9886
43225SOL    HW241655  13.381   7.004   4.604 -1.1806 -0.7893  0.3089
43226SOL     OW41656  10.851   4.762   6.209 -0.1303 -0.4508 -0.5640
43226SOL    HW141657  10.774   4.722   6.169  0.3819 -1.7680 -0.2761
43226SOL    HW241658  10.819   4.800   6.290 -0.2552 -2.2267  0.2589
43227SOL     OW41659   7.464   9.774  13.723 -0.6708  0.1597 -0.1258
43227SOL    HW141660   7.424   9.703  13.674 -1.3674  0.1136  0.4926
43227SOL    HW241661   7.518   9.730  13.789 -1.7109  0.1766  0.7597
43228SOL     OW41662   6.108   3.148   9.492 -0.2191 -0.6205  0.5694
43228SOL    HW141663   6.082   3.138   9.401  1.2584 -1.6075  0.2223
43228SOL    HW241664   6.070   3.073   9.537  0.4886 -1.0875  0.4077
43229SOL     OW41665   9.443  12.476  14.046  0.4297  1.5055 -0.0848
43229SOL    HW141666   9.469  12.526  13.968 -1.2571  1.6125 -0.6209
43229SOL    HW241667   9.347  12.478  14.045  0.3607  0.4954  1.3509
43230SOL     OW41668   9.415   1.919  10.336 -0.3103  0.2281 -0.4678
43230SOL    HW141669   9.359   1.997  10.333  0.5529  0.9771  1.4210
43230SOL    HW241670   9.419   1.896  10.429  0.2404 -1.5134 -0.8873
43231SOL     OW41671   4.013   5.631   3.664  0.4168 -0.3827  0.0699
43231SOL    HW141672   3.946   5.563   3.666 -0.6586  0.6413  0.0004
43231SOL    HW241673   4.089   5.589   3.623 -0.3369 -1.4288 -0.2976
43232SOL     OW41674   6.786   3.539   8.031  0.1063 -0.2131 -0.1914
43232SOL    HW141675   6.764   3.594   7.956 -1.3553  0.3872  0.6420
43232SOL    HW241676   6.773   3.595   8.107  0.8075 -1.0463  0.5738
43233SOL     OW41677   2.103   0.979   0.860  0.3713 -0.0170 -0.7318
43233SOL    HW141678   2.186   0.937   0.836 -0.3388 -1.3157 -1.0194
43233SOL    HW241679   2.115   1.071   0.837  1.4345 -0.3394 -1.5560
43234SOL     OW41680  13.871  13.934  11.151 -0.1365 -0.3493  0.6696
43234SOL    HW141681  13.960  13.914  11.123 -0.1283 -1.0796  1.1825
43234SOL    HW241682  13.874  14.026  11.178 -0.0279  0.2269 -1.2001
43235SOL     OW41683   9.430   5.698  11.240  0.0288 -0.1765  0.4215
43235SOL    HW141684   9.471   5.762  11.298 -1.9251  0.7735  0.8551
43235SOL    HW241685   9.365   5.748  11.192 -0.3246 -1.5159 -0.5476
43236SOL     OW41686  13.952   4.958  12.976  0.0256  0.3302  0.0582
43236SOL    HW141687  14.040   4.924  12.964 -0.0302  0.8799 -2.5927
43236SOL    HW241688  13.960   5.025  13.044  1.8454  0.9542 -0.7129
43237SOL     OW41689   4.854   9.756   0.842  0.3611 -0.0957  0.0226
43237SOL    HW141690   4.944   9.757   0.811  1.3376 -2.0073  2.4289
43237SOL    HW241691   4.810   9.693   0.785  1.2818 -1.1638  0.4570
43238SOL     OW41692  12.023   2.041  10.213  0.3944 -0.1548  0.2680
43238SOL    HW141693  11.965   2.081  10.148 -0.3851  1.2846  1.7656
43238SOL    HW241694  11.964   1.995  10.273  1.1152 -1.6707 -0.1500
43239SOL     OW41695   7.589   6.281   6.167 -0.3753  0.7438  0.0124
43239SOL    HW141696   7.495   6.289   6.184 -1.2145  0.6680 -3.6950
43239SOL    HW241697   7.625   6.367   6.190 -1.8808  1.6837 -0.9685
43240SOL     OW41698  12.970  10.877   4.577 -0.0823 -0.2405  0.1095
43240SOL    HW141699  12.993  10.791   4.612  1.4203 -0.0467 -0.3275
43240SOL    HW241700  12.879  10.890   4.604 -0.4216 -2.0507  0.0006
43241SOL     OW41701   1.749   3.871   3.209  0.2445  0.1710  0.0422
43241SOL    HW141702   1.707   3.894   3.126  1.8441  1.2769 -0.5042
43241SOL    HW241703   1.807   3.797   3.187  2.2745  1.7963 -0.3773
43242SOL     OW41704  10.515  10.319   7.078  0.2722 -0.2173  0.6148
43242SOL    HW141705  10.473  10.373   7.145 -0.4913  0.1499 -0.1468
43242SOL    HW241706  10.453  10.248   7.061  0.4458 -0.2920  0.2835
43243SOL     OW41707   1.193  11.896  12.426 -0.1183 -0.1157  0.0901
43243SOL    HW141708   1.153  11.811  12.407 -0.5136  0.0371  0.2323
43243SOL    HW241709   1.284  11.875  12.450  0.3304 -0.3417 -1.6693
43244SOL     OW41710   0.295  13.236   5.630  0.2241  0.9008 -0.0795
43244SOL    HW141711   0.289  13.230   5.535  1.0516 -0.4890 -0.0687
43244SOL    HW241712   0.228  13.177   5.663  0.7574  0.4178  0.1720
43245SOL     OW41713  13.499  13.987   3.003 -0.2749 -0.0842 -0.6092
43245SOL    HW141714  13.493  14.077   3.036 -1.5676 -0.6768  0.9103
43245SOL    HW241715  13.578  13.952   3.042 -0.5077 -0.0212 -0.0666
43246SOL     OW41716   7.987   1.604   3.539 -0.1447  0.1617  0.2044
43246SOL    HW141717   8.000   1.682   3.593  2.2112 -0.8400  1.2133
43246SOL    HW241718   7.953   1.638   3.456  2.0168  2.4587  0.1322
43247SOL     OW41719   1.272   3.161  10.873 -0.3483  0.7821  0.6536
43247SOL    HW141720   1.210   3.116  10.815  0.3403 -0.9386  1.1996
43247SOL    HW241721   1.325   3.091  10.910  1.5113  2.1606  0.7042
43248SOL     OW41722   6.964   5.046   6.606  0.2825  0.2244  0.3024
43248SOL    HW141723   7.043   5.024   6.656 -1.0280 -1.4143  1.7683
43248SOL    HW241724   6.996   5.065   6.518  2.5496  1.9267  1.3928
43249SOL     OW41725   0.199   3.915   0.029 -0.5432 -0.0118  0.0272
43249SOL    HW141726   0.167   3.876   0.110 -0.1216  1.0203  0.6956
43249SOL    HW241727   0.254   3.988   0.056  1.3072 -0.8980 -1.1183
43250SOL     OW41728   3.865   6.561   0.207 -0.0788  0.0924 -0.2758
43250SOL    HW141729   3.902   6.485   0.251 -0.4161 -1.0384 -1.8316
43250SOL    HW241730   3.818   6.524   0.132 -1.8517  1.7001 -0.0253
43251SOL     OW41731   7.211   9.957   3.064  0.0098 -0.0381 -0.1113
43251SOL    HW141732   7.138   9.969   3.003  0.2263 -0.5146 -0.4690
43251SOL    HW241733   7.254  10.042   3.066 -0.6460  0.2885  0.2193
43252SOL     OW41734   4.326  12.047  11.767 -0.4054  0.1469 -0.2708
43252SOL    HW141735   4.308  12.026  11.859  0.7433  1.4494  0.2900
43252SOL    HW241736   4.327  12.142  11.764  0.3502  0.1161 -1.4757
43253SOL     OW41737   7.365  12.111   3.936  0.5299 -0.2960  0.3666
43253SOL    HW141738   7.363  12.205   3.949 -1.5161  0.0860 -2.0129
43253SOL    HW241739   7.398  12.076   4.019 -0.5333  2.3746  2.0438
43254SOL     OW41740   2.910   6.389   9.494  0.4642  0.0105  0.3995
43254SOL    HW141741   2.943   6.304   9.524  0.8166  0.2427  0.6821
43254SOL    HW241742   2.930   6.390   9.400 -0.6464 -0.7215  0.1389
43255SOL     OW41743  10.468   0.528   7.566  0.4297  0.8745  0.0315
43255SOL    HW141744  10.375   0.509   7.559  0.3895  1.4525 -1.3034
43255SOL    HW241745  10.475   0.622   7.553  1.0520  1.1507  2.0036
43256SOL     OW41746   9.886   2.313  10.303 -0.4439  0.2914 -0.1843
43256SOL    HW141747   9.883   2.342  10.394 -0.9507 -0.0620 -0.0823
43256SOL    HW241748   9.796   2.285  10.284 -0.6158  1.3955 -1.1285
43257SOL     OW41749  11.136   3.100  13.048 -0.1010 -0.0385 -0.2747
43257SOL    HW141750  11.075   3.147  12.991  0.8996  1.1260 -0.4319
43257SOL    HW241751  11.099   3.111  13.136 -0.1904  0.5703 -0.3830
43258SOL     OW41752   1.908  12.878   6.356 -0.0797 -0.2825  0.0846
43258SOL    HW141753   1.960  12.804   6.388 -0.1937  0.5691  2.4192
43258SOL    HW241754   1.903  12.937   6.431 -0.3574  1.9128 -1.5902
43259SOL     OW41755   0.241   3.044   7.105 -0.1433 -0.2873 -0.0170
43259SOL    HW141756   0.245   3.125   7.156 -2.0567  0.6060 -1.1767
43259SOL    HW241757   0.296   3.061   7.028 -0.0388 -0.3384  0.0456
43260SOL     OW41758  10.649  11.754   8.888  0.2068 -0.1038  0.2817
43260SOL    HW141759  10.609  11.839   8.901  0.5291  0.1521 -0.3167
43260SOL    HW241760  10.712  11.745   8.960  1.7223  1.1227 -0.8193
43261SOL     OW41761   5.510   3.498  10.176  0.5268 -0.4239 -0.7253
43261SOL    HW141762   5.557   3.569  10.220 -0.8260 -0.5830  1.1249
43261SOL    HW241763   5.532   3.420  10.227  0.1390 -0.9022 -1.2757
43262SOL     OW41764   5.058   1.183  11.561  0.5440 -0.2691 -0.3088
43262SOL    HW141765   5.115   1.114  11.527 -0.2817 -0.5926 -1.0591
43262SOL    HW241766   4.975   1.171  11.516 -1.1788 -1.7146  2.9115
43263SOL     OW41767  11.310   2.008   2.667  0.0362 -0.1281 -0.3361
43263SOL    HW141768  11.235   1.971   2.621  0.8726 -0.3862 -1.5516
43263SOL    HW241769  11.318   1.955   2.746 -0.5726 -0.6297 -0.5993
43264SOL     OW41770  14.001   7.571   1.891  0.0569  0.2273  0.1097
43264SOL    HW141771  14.045   7.646   1.852 -0.7749  0.3688 -0.5919
43264SOL    HW241772  13.908   7.590   1.881 -0.1712 -0.1326  1.4206
43265SOL     OW41773   6.326   1.688   7.763 -0.1623  0.2880 -0.1976
43265SOL    HW141774   6.235   1.687   7.736  0.2104  0.7984 -1.5225
43265SOL    HW241775   6.346   1.780   7.781  0.2421  0.2517 -0.4439
43266SOL     OW41776   0.520  11.971   1.718  0.0984 -0.0653  0.1101
43266SOL    HW141777   0.461  11.995   1.646  0.5703 -3.2972 -1.5152
43266SOL    HW241778   0.473  11.902   1.765  1.6773 -1.1904  0.0931
43267SOL     OW41779   6.402   5.327   5.201 -0.3975  0.1490  0.5244
43267SOL    HW141780   6.466   5.263   5.231 -0.3699  0.5776  1.4293
43267SOL    HW241781   6.414   5.332   5.106  0.4440 -0.2649  0.6046
43268SOL     OW41782   5.393  11.483   6.954  0.1491  0.3906  0.5462
43268SOL    HW141783   5.372  11.429   7.030 -1.4825 -1.1052 -0.8622
43268SOL    HW241784   5.466  11.537   6.982  0.9811 -1.5934  2.4939
43269SOL     OW41785   1.030   0.226   6.397  0.3462  0.1768 -0.0850
43269SOL    HW141786   1.092   0.275   6.342  0.8872 -2.0835 -1.6226
43269SOL    HW241787   0.950   0.280   6.397  0.9187  1.0837 -1.6431
43270SOL     OW41788   4.137   6.418   2.523 -0.4510 -0.4355  0.5818
43270SOL    HW141789   4.060   6.368   2.550 -1.1998  1.3084  1.8488
43270SOL    HW241790   4.173   6.454   2.604  2.4973 -2.1825  0.2014
43271SOL     OW41791   7.093  12.372   4.598  0.0026 -0.0612  0.0125
43271SOL    HW141792   7.067  12.348   4.509 -3.2455 -2.9813  1.5331
43271SOL    HW241793   7.179  12.331   4.610  0.1836 -0.1832 -1.5149
43272SOL     OW41794  12.166   5.537   4.852  0.1376  0.9167  0.3042
43272SOL    HW141795  12.189   5.445   4.843 -0.6246  0.5584  1.7971
43272SOL    HW241796  12.129   5.545   4.940 -0.2032  2.5644  0.0509
43273SOL     OW41797   3.462   2.206   1.502  0.1161  0.5687 -0.1557
43273SOL    HW141798   3.489   2.232   1.590  2.8258 -1.4067 -0.2472
43273SOL    HW241799   3.395   2.139   1.516  0.8169 -0.0245  0.4450
43274SOL     OW41800   7.605   1.738   2.070  0.0478  0.2958  0.0687
43274SOL    HW141801   7.580   1.745   1.978 -2.0292  1.0844  0.6442
43274SOL    HW241802   7.535   1.687   2.110  0.7736  0.2233  1.2857
43275SOL     OW41803  11.003  10.200   9.363 -0.0001  0.1278  0.0748
43275SOL    HW141804  11.039  10.278   9.405  0.7593 -1.1850  1.9831
43275SOL    HW241805  11.080  10.156   9.326 -0.1792 -0.6194  0.5842
43276SOL     OW41806  13.574   8.025  10.809 -0.4858  0.0240 -0.0078
43276SOL    HW141807  13.631   7.949  10.801  1.9660  1.7168  0.0009
43276SOL    HW241808  13.591   8.076  10.729 -1.3293  1.0226  0.4277
43277SOL     OW41809   5.312   9.750   3.114 -0.0505 -0.0025  0.1493
43277SOL    HW141810   5.247   9.708   3.170 -1.3462  0.8080 -0.7043
43277SOL    HW241811   5.343   9.825   3.164 -0.3732  0.0757  0.2270
43278SOL     OW41812  11.107   5.392  11.208  0.2955  0.2069  0.5445
43278SOL    HW141813  11.073   5.376  11.119  1.4870  1.5801 -0.2028
43278SOL    HW241814  11.165   5.317  11.225  0.0874 -0.0485  0.1458
43279SOL     OW41815   5.400   3.348  13.174  0.6134  0.3180 -0.1058
43279SOL    HW141816   5.330   3.300  13.217  1.4851 -0.8608  0.0376
43279SOL    HW241817   5.355   3.408  13.114 -0.5808  1.1644  1.5419
43280SOL     OW41818  12.101   5.196   0.441  0.4417 -0.6703  0.4645
43280SOL    HW141819  12.161   5.253   0.490 -1.0812  0.3395  1.2185
43280SOL    HW241820  12.132   5.202   0.350 -0.1486  2.0767  0.3604
43281SOL     OW41821  11.261  12.366  10.906  0.4646 -0.0411 -0.2942
43281SOL    HW141822  11.250  12.410  10.822  1.0076  1.6237  0.4563
43281SOL    HW241823  11.278  12.274  10.884  2.1382  0.6317 -2.0631
43282SOL     OW41824   9.984   4.039   9.555  0.1034  0.2805  0.1597
43282SOL    HW141825  10.063   4.075   9.595  1.3661 -0.4124 -1.5881
43282SOL    HW241826   9.959   3.967   9.613 -0.6362  1.8920  1.9691
43283SOL     OW41827  12.347   3.021   1.911  0.2095 -0.0062  0.1519
43283SOL    HW141828  12.294   3.082   1.860 -0.9347  0.1169  1.4372
43283SOL    HW241829  12.307   2.935   1.895  0.1789 -0.0419  0.4129
43284SOL     OW41830   4.441  13.530   5.536 -0.2517 -0.1888  0.6622
43284SOL    HW141831   4.501  13.507   5.465 -0.6598 -0.5871  0.4445
43284SOL    HW241832   4.499  13.554   5.608  0.1732  1.4421 -0.1785
43285SOL     OW41833  10.028  11.275  12.637 -0.0199  0.0938 -0.2232
43285SOL    HW141834   9.936  11.259  12.659  0.1354 -2.3395 -1.0453
43285SOL    HW241835  10.058  11.192  12.599  2.7116  0.6151  0.6199
43286SOL     OW41836  12.299   9.570   4.755  0.9415  0.1744 -1.2343
43286SOL    HW141837  12.354   9.493   4.761  1.4811  0.5290 -1.5420
43286SOL    HW241838  12.216   9.544   4.795  1.4601 -0.2499 -0.4110
43287SOL     OW41839   0.720   5.332  10.116  0.5964  0.2299  0.3819
43287SOL    HW141840   0.747   5.251  10.160  0.3213 -1.0590 -1.6824
43287SOL    HW241841   0.795   5.390  10.124  2.4606 -1.7087 -1.4738
43288SOL     OW41842   4.405   1.811  12.070 -0.7649  0.5076  0.4603
43288SOL    HW141843   4.401   1.733  12.125  0.7658 -0.2500 -0.4288
43288SOL    HW241844   4.380   1.883  12.127  0.1737 -0.3216  1.9610
43289SOL     OW41845  10.360  10.239   6.821  0.3633 -0.5858 -0.2644
43289SOL    HW141846  10.269  10.259   6.844  0.4571  1.4081 -1.3526
43289SOL    HW241847  10.367  10.264   6.729  2.7726  2.5020  0.5926
43290SOL     OW41848   9.225   5.029   7.172  0.4014  0.5086  0.0660
43290SOL    HW141849   9.192   5.111   7.137 -0.6658 -0.2793 -0.8681
43290SOL    HW241850   9.166   5.009   7.245  0.9452  0.7981  0.5881
43291SOL     OW41851  12.601   9.644   8.885  0.5681 -0.3552  0.6559
43291SOL    HW141852  12.631   9.593   8.810  0.1716  1.8871 -1.1372
43291SOL    HW241853  12.588   9.733   8.850  0.5092  0.8228  3.4146
43292SOL     OW41854   8.660   2.660   4.234  0.7621  0.3756 -0.3897
43292SOL    HW141855   8.589   2.722   4.216 -0.5760 -1.4516 -1.8374
43292SOL    HW241856   8.629   2.578   4.196  3.0885 -0.8305  0.1901
43293SOL     OW41857  10.208  13.733   8.759 -0.3044 -0.1039  0.2767
43293SOL    HW141858  10.178  13.824   8.765  0.5065  0.0926  1.9110
43293SOL    HW241859  10.287  13.738   8.706 -0.3226  0.1428  0.2674
43294SOL     OW41860   8.495   7.551  13.020 -0.3496 -0.2259  0.5580
43294SOL    HW141861   8.442   7.476  13.047 -0.1285 -0.9183 -0.8427
43294SOL    HW241862   8.460   7.575  12.934  1.0809 -0.1882 -0.0363
43295SOL     OW41863  12.908  10.272   9.809  0.6994  0.3008  0.3934
43295SOL    HW141864  12.906  10.368   9.802  1.6015  0.3271  0.4314
43295SOL    HW241865  12.960  10.244   9.733 -0.2069 -0.2150 -0.0563
43296SOL     OW41866   8.752   1.779  13.589  0.7506  0.1119 -0.3141
43296SOL    HW141867   8.812   1.827  13.532 -0.2274  0.3649 -1.1583
43296SOL    HW241868   8.806   1.711  13.628  1.7133  0.6768 -0.6160
43297SOL     OW41869   2.737   6.615   6.309  0.3013 -0.2371  0.1556
43297SOL    HW141870   2.663   6.675   6.299 -0.8907 -1.7690 -0.6644
43297SOL    HW241871   2.728   6.553   6.236  1.8665 -1.0225  0.5808
43298SOL     OW41872   4.751  13.575   9.149 -0.1991  0.1201  0.6701
43298SOL    HW141873   4.740  13.530   9.065  1.1011  1.6392 -0.3759
43298SOL    HW241874   4.823  13.637   9.134 -0.1572  0.6836  2.8148
43299SOL     OW41875   2.914   0.992   4.116 -0.7486  0.3377  0.5008
43299SOL    HW141876   2.859   1.025   4.187  0.3854 -1.3014  2.2412
43299SOL    HW241877   2.910   0.896   4.124  2.0657  0.1185  0.5608
43300SOL     OW41878   6.121   3.290   5.593  0.1948  0.3935  0.5239
43300SOL    HW141879   6.181   3.267   5.665 -0.0514  0.1279  0.6451
43300SOL    HW241880   6.178   3.299   5.517  0.4375  0.5068  0.7169
43301SOL     OW41881  11.170  13.457  10.157  0.3763 -0.0519 -0.3040
43301SOL    HW141882  11.142  13.419  10.074 -2.5414  0.9068  0.0940
43301SOL    HW241883  11.129  13.401  10.223 -1.1318  1.7108  0.3351
43302SOL     OW41884  11.358   0.565   2.836  0.3438  0.2300 -0.1099
43302SOL    HW141885  11.328   0.485   2.880  1.0335  0.3253  0.5562
43302SOL    HW241886  11.445   0.581   2.873  0.0451  1.5114  0.0698
43303SOL     OW41887   9.406   9.034   3.803  0.5265 -0.2010  0.6729
43303SOL    HW141888   9.445   9.119   3.785 -0.7014  0.1615 -0.3502
43303SOL    HW241889   9.418   9.022   3.897  1.3886  0.7532  0.6978
43304SOL     OW41890   5.903   3.359   9.313 -0.2045 -0.0449  0.6209
43304SOL    HW141891   5.981   3.382   9.363 -0.1941 -1.1934  1.1766
43304SOL    HW241892   5.933   3.346   9.223  0.3815 -1.1148  0.9550
43305SOL     OW41893  12.304   2.935   2.656 -0.0436  0.1709  0.2549
43305SOL    HW141894  12.244   2.890   2.716  1.4027  0.2398  1.8538
43305SOL    HW241895  12.316   2.874   2.583 -0.4115 -0.7588  0.9541
43306SOL     OW41896  12.440  13.489  13.966 -0.7347  0.7250  0.4963
43306SOL    HW141897  12.527  13.513  13.934 -0.0141 -0.7562  1.2300
43306SOL    HW241898  12.440  13.519  14.057 -0.2189 -1.0056  1.0983
43307SOL     OW41899   7.382   0.850  10.592 -0.0125  0.4367 -0.5029
43307SOL    HW141900   7.436   0.840  10.514 -0.9091 -0.7860 -0.9880
43307SOL    HW241901   7.443   0.842  10.665  0.4363 -1.2357 -1.0342
43308SOL     OW41902   9.737   2.691   5.762 -0.4541  0.2072  0.2313
43308SOL    HW141903   9.726   2.598   5.741 -1.1574  0.2821  0.2230
43308SOL    HW241904   9.658   2.714   5.811 -0.8211  1.0664 -0.7193
43309SOL     OW41905  13.855   1.622   1.700  0.1540 -0.3626 -0.4506
43309SOL    HW141906  13.891   1.710   1.707  0.0076  0.0034 -3.2403
43309SOL    HW241907  13.761   1.634   1.691 -0.0617 -0.9604  0.6713
43310SOL     OW41908  11.175   4.126  10.562 -0.3787  0.3785  0.2531
43310SOL    HW141909  11.249   4.096  10.511  1.2163  0.2789  2.4765
43310SOL    HW241910  11.104   4.135  10.499  1.7695  1.5088 -2.1635
43311SOL     OW41911   3.725   4.240   3.998  0.2906 -0.2427  0.0183
43311SOL    HW141912   3.818   4.218   4.009 -0.6509 -4.6790  1.1552
43311SOL    HW241913   3.695   4.182   3.929 -1.9023  0.2118  0.5255
43312SOL     OW41914   9.874   6.751  13.392 -0.4467 -0.3442 -0.1175
43312SOL    HW141915   9.925   6.670  13.395  0.1740 -0.0190 -1.1535
43312SOL    HW241916   9.915   6.802  13.322 -1.3825  0.4910 -0.0782
43313SOL     OW41917   5.428   1.535   1.044 -0.0678  0.4461  0.1753
43313SOL    HW141918   5.493   1.590   1.089 -1.1287  1.3518  0.6685
43313SOL    HW241919   5.389   1.482   1.114 -1.9335  2.0679  0.4684
43314SOL     OW41920   4.105  13.242  10.796 -0.0764 -0.0608  0.1380
43314SOL    HW141921   4.023  13.226  10.750  0.7613  1.4844 -2.0555
43314SOL    HW241922   4.080  13.299  10.869 -1.4698 -2.8067  2.0361
43315SOL     OW41923   0.735   9.823   6.840 -1.0234  0.0414  0.2445
43315SOL    HW141924   0.821   9.857   6.864 -1.7513  1.1899  1.4115
43315SOL    HW241925   0.693   9.894   6.793 -0.7147 -1.1608 -1.9551
43316SOL     OW41926  10.168   6.984   5.573 -0.2090 -0.2527 -0.3694
43316SOL    HW141927  10.145   6.891   5.566  3.5124 -1.5320  1.7572
43316SOL    HW241928  10.253   6.991   5.530  0.8222  1.5407  1.7659
43317SOL     OW41929   6.320   6.686   9.222 -0.3628 -0.5364 -0.1569
43317SOL    HW141930   6.314   6.618   9.155  0.6699  0.6421 -1.5201
43317SOL    HW241931   6.397   6.662   9.274  0.2219 -0.2448 -0.8681
43318SOL     OW41932   7.399  13.312  13.985  0.3037  0.3949  0.0023
43318SOL    HW141933   7.347  13.386  14.015 -0.1832  0.3585 -0.7527
43318SOL    HW241934   7.430  13.337  13.898 -1.0147 -0.8416 -0.8526
43319SOL     OW41935   0.493   8.588   9.738 -0.2287 -0.1275 -0.2198
43319SOL    HW141936   0.409   8.623   9.767  0.3327  1.7509 -0.7343
43319SOL    HW241937   0.479   8.566   9.646 -0.5427 -1.1699  0.0672
43320SOL     OW41938  11.764   6.950   4.190  0.0275 -0.1489 -0.2251
43320SOL    HW141939  11.849   6.986   4.165  0.2396  0.6485  1.4509
43320SOL    HW241940  11.784   6.888   4.260 -0.6671 -0.9239 -0.7047
43321SOL     OW41941  13.448   9.332  13.771  0.8324  0.1943  0.5286
43321SOL    HW141942  13.466   9.391  13.697 -0.4317 -0.6187 -0.4935
43321SOL    HW241943  13.522   9.272  13.772 -0.0644 -1.0553 -1.4490
43322SOL     OW41944   2.626   6.202   5.655 -0.2417 -0.4649 -0.6855
43322SOL    HW141945   2.705   6.178   5.703 -0.4264 -1.3967 -0.8275
43322SOL    HW241946   2.652   6.276   5.601 -0.3600  1.5329  1.8019
43323SOL     OW41947  11.542   0.943   0.139 -0.2072  0.3647  0.0608
43323SOL    HW141948  11.473   0.989   0.188 -1.3217 -0.4433 -0.7066
43323SOL    HW241949  11.554   0.995   0.060  0.2127  0.5980  0.2698
43324SOL     OW41950   3.559   4.207   2.041  0.3200 -0.2569 -0.0204
43324SOL    HW141951   3.601   4.264   1.976  0.7679 -1.0992 -0.4832
43324SOL    HW241952   3.604   4.227   2.123 -2.5031  3.3503  0.9000
43325SOL     OW41953   7.541   6.499   7.514  0.8733  0.6052 -0.6947
43325SOL    HW141954   7.605   6.472   7.580  2.8720 -2.2223 -3.4589
43325SOL    HW241955   7.461   6.452   7.538  0.3614  2.5115  1.6333
43326SOL     OW41956   0.668   4.692   1.424  0.1076  0.5045  0.4408
43326SOL    HW141957   0.577   4.665   1.419 -0.2575  1.5915  0.7616
43326SOL    HW241958   0.689   4.720   1.335  0.7148 -1.4352 -0.0674
43327SOL     OW41959   3.856   3.296   5.591 -0.1674  0.2090 -0.0619
43327SOL    HW141960   3.939   3.339   5.568  0.5134 -1.3127 -0.6020
43327SOL    HW241961   3.812   3.284   5.507 -0.0173 -0.7709 -0.0098
43328SOL     OW41962   3.484   7.030   5.105 -0.0932  0.1221 -0.1611
43328SOL    HW141963   3.445   7.102   5.153 -1.0440 -1.1046  0.9895
43328SOL    HW241964   3.410   6.982   5.068  0.4399 -0.8475 -0.0318
43329SOL     OW41965   2.926  11.202   1.515 -0.6009  0.1835 -0.0414
43329SOL    HW141966   2.991  11.263   1.480  1.4049 -1.7488  0.1285
43329SOL    HW241967   2.887  11.249   1.589  0.2448  1.5697 -0.4335
43330SOL     OW41968  11.979   8.145   3.030  0.0141 -0.0140 -0.4876
43330SOL    HW141969  12.016   8.148   2.942 -1.1606  0.1881 -0.9899
43330SOL    HW241970  12.021   8.218   3.076  1.5769 -0.8819 -0.4728
43331SOL     OW41971   1.066   9.687   4.913  0.1812  0.0385 -0.4802
43331SOL    HW141972   1.120   9.675   4.835 -0.8412  0.6074 -1.2956
43331SOL    HW241973   1.080   9.778   4.939 -2.4114  1.0948 -2.3414
43332SOL     OW41974  12.480   0.827   4.127 -0.1458  0.5277 -0.0568
43332SOL    HW141975  12.418   0.758   4.102 -1.2764  1.4745  0.0582
43332SOL    HW241976  12.555   0.780   4.161 -0.2606 -0.7000 -1.3789
43333SOL     OW41977   0.686   8.858  13.353 -0.0751  0.5558 -0.0903
43333SOL    HW141978   0.710   8.768  13.332 -0.9174  0.5015 -0.8974
43333SOL    HW241979   0.707   8.908  13.274 -0.4513  0.9102  0.0285
43334SOL     OW41980   0.103   9.477  12.938 -0.7095 -0.6305 -0.5186
43334SOL    HW141981   0.041   9.406  12.954 -0.9389 -0.7671 -1.8675
43334SOL    HW241982   0.084   9.506  12.848 -1.4046  1.9269  0.3675
43335SOL     OW41983   2.858  14.028   8.015  0.3064 -0.2761 -0.4017
43335SOL    HW141984   2.839  13.953   7.960 -1.0320 -0.6033  0.4586
43335SOL    HW241985   2.835  14.104   7.961  0.6449 -0.5156 -0.8919
43336SOL     OW41986  12.554   2.361  10.557 -0.2148 -0.1023 -0.2516
43336SOL    HW141987  12.639   2.406  10.555  0.1667 -0.7721  0.3808
43336SOL    HW241988  12.575   2.270  10.536 -1.0320  0.0561 -1.9451
43337SOL     OW41989   6.770   6.237   0.077  0.2959 -0.3490  0.3405
43337SOL    HW141990   6.704   6.169   0.063  0.2448 -0.4949  1.2080
43337SOL    HW241991   6.824   6.204   0.149 -0.6810  1.1750  1.8573
43338SOL     OW41992   6.691   9.977   9.953 -0.0548  0.1700 -0.4161
43338SOL    HW141993   6.728  10.046   9.898 -0.8329  0.4193 -0.6344
43338SOL    HW241994   6.723   9.995  10.041 -0.2352  0.7912 -0.4780
43339SOL     OW41995   2.096  13.946   8.788  0.3513 -0.0943  0.1265
43339SOL    HW141996   2.092  14.036   8.818 -0.5558  0.8260 -2.4724
43339SOL    HW241997   2.181  13.938   8.744 -0.3718  0.1670 -1.3955
43340SOL     OW41998  12.675  12.231   6.370  0.2001  0.2194  0.1257
43340SOL    HW141999  12.670  12.251   6.277  0.5597  0.1880  0.0990
43340SOL    HW242000  12.703  12.313   6.411  2.0482 -0.2973 -0.0229
43341SOL     OW42001  13.055   4.266  10.374 -0.3879 -0.6966 -0.2929
43341SOL    HW142002  13.077   4.175  10.396 -0.3666 -0.1130  2.4248
43341SOL    HW242003  12.967   4.278  10.410 -0.4590  0.3229 -0.7858
43342SOL     OW42004   3.310  11.476   7.303  0.1419  0.1828  0.1939
43342SOL    HW142005   3.239  11.508   7.247  0.5807 -0.1685 -0.5651
43342SOL    HW242006   3.365  11.425   7.245 -0.3557 -1.6905  1.2992
43343SOL     OW42007  12.333  11.708   5.710  0.3891  0.0080  0.1457
43343SOL    HW142008  12.387  11.764   5.766 -1.0492 -0.7048  2.3986
43343SOL    HW242009  12.257  11.761   5.688 -0.2766 -0.5425  1.0618
43344SOL     OW42010   0.072   1.577   7.594  0.2911  0.9244 -0.4803
43344SOL    HW142011   0.095   1.510   7.658 -1.4976  1.3130  0.6331
43344SOL    HW242012   0.154   1.624   7.577  1.0877 -0.1096  0.4154
43345SOL     OW42013   0.523  12.021   5.905  0.4621 -0.4253 -0.3875
43345SOL    HW142014   0.443  12.072   5.911  0.4029 -0.4284 -1.0498
43345SOL    HW242015   0.528  11.973   5.987 -0.6961 -1.1219 -0.7060
43346SOL     OW42016   1.245   9.806   3.496 -0.5583 -0.7244  0.2178
43346SOL    HW142017   1.202   9.729   3.532  0.5805  0.0102  3.5780
43346SOL    HW242018   1.179   9.848   3.441 -2.8144 -1.6566  2.0532
43347SOL     OW42019   2.055  12.018  11.095  0.0073 -0.7412 -0.0634
43347SOL    HW142020   2.029  12.026  11.003 -0.2530  0.9603  0.1240
43347SOL    HW242021   2.013  11.937  11.124 -2.6426  0.3309 -0.6004
43348SOL     OW42022   9.522  12.086  12.002 -1.1023  0.2876  0.4863
43348SOL    HW142023   9.593  12.137  12.041 -0.3269  0.8497 -1.5032
43348SOL    HW242024   9.520  12.004  12.052  0.6921  0.4287  0.8550
43349SOL     OW42025   8.297   7.135   1.426  0.1054  0.2602 -0.3094
43349SOL    HW142026   8.287   7.115   1.333 -0.5122  0.3269 -0.2620
43349SOL    HW242027   8.234   7.206   1.441 -0.4278 -0.3520  0.3539
43350SOL     OW42028   5.853   7.741   5.511  0.4465 -0.0114  0.0784
43350SOL    HW142029   5.935   7.773   5.475  0.7451  0.0917  0.8227
43350SOL    HW242030   5.822   7.677   5.447  0.2288  1.1764 -1.0380
43351SOL     OW42031   8.801   9.058   0.531  0.2985  0.3008 -0.5962
43351SOL    HW142032   8.787   9.137   0.479  1.1174 -0.6242 -2.3233
43351SOL    HW242033   8.724   9.004   0.514  0.3756  0.1596 -0.5001
43352SOL     OW42034   1.303  13.714   9.751 -0.2371  0.2767  0.2144
43352SOL    HW142035   1.390  13.686   9.778  0.4555  1.6922 -0.4482
43352SOL    HW242036   1.248  13.699   9.828  0.8178  0.3993  1.0179
43353SOL     OW42037   0.493   2.884   7.007  0.1003 -0.5317 -1.0883
43353SOL    HW142038   0.499   2.860   7.099  1.1469 -1.2353 -1.3275
43353SOL    HW242039   0.482   2.979   7.008 -0.9876 -0.6390 -0.2211
43354SOL     OW42040  12.957  11.764  12.918  0.3384  0.1175 -0.3175
43354SOL    HW142041  12.961  11.850  12.876  2.0091  0.1849 -0.1224
43354SOL    HW242042  12.931  11.704  12.848 -2.5946  0.9493 -0.0691
43355SOL     OW42043   4.682   1.925  11.269 -0.3953  0.2983 -0.4627
43355SOL    HW142044   4.708   1.949  11.358  2.2472 -0.6264 -0.8918
43355SOL    HW242045   4.653   2.007  11.230 -1.6083  0.7201  1.2143
43356SOL     OW42046   3.559   3.670   1.973 -0.1091  0.7572 -0.1718
43356SOL    HW142047   3.581   3.739   2.036  0.8333  1.7372 -1.4919
43356SOL    HW242048   3.623   3.682   1.903 -0.8990 -0.5127 -1.1426
43357SOL     OW42049   0.883   6.923  12.844  1.2215  0.4808 -0.3080
43357SOL    HW142050   0.841   7.007  12.825  0.5248 -0.2443 -2.1675
43357SOL    HW242051   0.907   6.888  12.758  0.5096 -1.7314  0.3357
43358SOL     OW42052   1.695  12.083   1.003  0.1545 -0.3072 -0.4391
43358SOL    HW142053   1.738  12.102   1.087  2.2357 -2.0124 -1.0076
43358SOL    HW242054   1.620  12.029   1.026 -1.3931  2.1091  0.5334
43359SOL     OW42055  13.759   3.075   7.525 -0.2605  0.1237  0.0830
43359SOL    HW142056  13.823   3.028   7.579  0.0399 -0.2282 -0.5602
43359SOL    HW242057  13.790   3.062   7.435 -1.5481 -0.5523 -0.2965
43360SOL     OW42058  10.034   4.782   2.714  0.1784 -0.2072  0.3555
43360SOL    HW142059   9.979   4.785   2.792 -0.7124 -0.1938 -0.2631
43360SOL    HW242060  10.121   4.760   2.747  0.2018  1.4861  1.5473
43361SOL     OW42061  11.043   0.650  10.153 -0.3904  0.4092 -0.4303
43361SOL    HW142062  11.022   0.594  10.228 -1.4912  3.0267  1.3567
43361SOL    HW242063  10.985   0.619  10.083 -1.2588 -0.4128  0.6200
43362SOL     OW42064   7.770   2.447   0.342  0.0064 -0.0116 -0.3768
43362SOL    HW142065   7.736   2.536   0.344  1.2046  0.4919  1.7777
43362SOL    HW242066   7.830   2.446   0.267 -0.3363  0.8782 -0.6763
43363SOL     OW42067   3.878   0.105  12.646 -0.2854 -0.2305 -0.0263
43363SOL    HW142068   3.874   0.033  12.709  2.3248  0.4353  1.0121
43363SOL    HW242069   3.909   0.179  12.696  0.6848  0.6630 -1.8541
43364SOL     OW42070   6.745  12.554   2.983  0.1619 -0.0973  0.3039
43364SOL    HW142071   6.786  12.639   2.963  2.0578 -1.3829 -1.9288
43364SOL    HW242072   6.687  12.538   2.909 -0.5802 -0.5217  0.9722
43365SOL     OW42073   0.304   6.694   8.780  0.2029 -0.1226  0.8321
43365SOL    HW142074   0.316   6.658   8.868  0.9409  0.9350  1.1806
43365SOL    HW242075   0.343   6.781   8.784  2.4199 -0.9065 -1.1639
43366SOL     OW42076   9.504   8.714   9.525 -1.0382  0.3963 -0.8188
43366SOL    HW142077   9.468   8.706   9.613 -0.8838  0.1336 -0.7783
43366SOL    HW242078   9.526   8.807   9.517 -1.3076  0.4719 -0.6815
43367SOL     OW42079   6.747  13.588   3.822  0.7457  0.3407  0.0375
43367SOL    HW142080   6.834  13.624   3.838  0.5134  1.6230 -1.3311
43367SOL    HW242081   6.687  13.660   3.841 -0.0491 -0.5969  1.1726
43368SOL     OW42082   9.837   2.000   5.582 -0.0128 -0.2403  0.1792
43368SOL    HW142083   9.826   1.908   5.606  0.4802  0.1587  2.1014
43368SOL    HW242084   9.841   2.047   5.665 -2.2211  1.8029 -0.7220
43369SOL     OW42085   4.460   1.854   6.102  0.3510 -0.6807 -0.5475
43369SOL    HW142086   4.402   1.926   6.076  1.8070  1.0714  0.8475
43369SOL    HW242087   4.408   1.804   6.165 -0.0177  0.2652 -0.0814
43370SOL     OW42088  12.148  10.913   1.087  0.0810  0.1173 -0.0734
43370SOL    HW142089  12.236  10.926   1.053 -0.4495 -1.5000 -2.2943
43370SOL    HW242090  12.150  10.952   1.174  3.1226 -0.2640  0.1429
43371SOL     OW42091   4.666   4.505   9.861  0.1915 -0.0312 -0.1493
43371SOL    HW142092   4.685   4.587   9.907 -2.5954  1.7307 -1.8538
43371SOL    HW242093   4.582   4.476   9.896  0.2255 -1.1280 -0.9217
43372SOL     OW42094  10.392   9.161   8.092 -0.6144 -0.3626  0.1550
43372SOL    HW142095  10.398   9.236   8.033 -1.3250  0.4396  1.0810
43372SOL    HW242096  10.312   9.176   8.142 -1.3903 -2.3077 -0.3955
43373SOL     OW42097  10.649   2.363   9.851 -0.1754  0.0531  0.1940
43373SOL    HW142098  10.669   2.454   9.829 -0.0952 -0.4755 -2.2672
43373SOL    HW242099  10.567   2.346   9.805  0.0198 -1.2274  0.2957
43374SOL     OW42100   4.706  10.533   2.128 -0.1597 -0.4997 -0.5410
43374SOL    HW142101   4.753  10.451   2.110 -0.3610 -0.8536  0.5026
43374SOL    HW242102   4.776  10.597   2.143 -0.0013 -0.4687 -1.3456
43375SOL     OW42103  12.707   6.958   8.855  0.4404  0.5950  0.9434
43375SOL    HW142104  12.677   7.023   8.919 -1.6937  1.2583 -0.6124
43375SOL    HW242105  12.782   7.000   8.812  1.0852  0.6691  2.1085
43376SOL     OW42106   0.575   3.482   0.979  0.3943 -0.6673  0.5390
43376SOL    HW142107   0.546   3.403   0.933 -1.4299 -0.5015  1.2795
43376SOL    HW242108   0.587   3.453   1.070  2.5351 -0.6804  0.2949
43377SOL     OW42109   9.519   5.323  13.039  0.0583 -0.3479 -0.0371
43377SOL    HW142110   9.509   5.372  12.957  0.6158  0.3499  0.3016
43377SOL    HW242111   9.498   5.386  13.107 -0.4785 -0.9495  0.3658
43378SOL     OW42112   8.210   8.852   7.495  0.1256 -0.4730 -0.1951
43378SOL    HW142113   8.212   8.946   7.514 -1.3028 -0.8660  2.2503
43378SOL    HW242114   8.302   8.828   7.484  0.5779  1.0616  0.0282
43379SOL     OW42115   3.655  10.399   5.276  0.1913 -0.6105  0.2017
43379SOL    HW142116   3.711  10.341   5.225  0.6607  1.4071 -1.7387
43379SOL    HW242117   3.567  10.363   5.265  0.4406 -0.8672 -1.1333
43380SOL     OW42118  11.181   0.367   4.559 -0.1237 -0.0156 -0.3429
43380SOL    HW142119  11.183   0.305   4.486  1.2705 -0.0593 -0.3064
43380SOL    HW242120  11.267   0.410   4.556 -0.4042  0.6586  0.6946
43381SOL     OW42121   8.303   5.840  12.078 -0.0330  0.6355  0.0501
43381SOL    HW142122   8.264   5.775  12.020 -1.0238  2.5257 -1.5257
43381SOL    HW242123   8.394   5.811  12.088 -0.4720 -1.0460 -0.4531
43382SOL     OW42124   0.705   5.808   3.656  0.3179 -0.6991 -0.0783
43382SOL    HW142125   0.683   5.893   3.694 -2.3397 -1.4474  0.2103
43382SOL    HW242126   0.738   5.830   3.568 -2.1522  0.5987 -0.7806
43383SOL     OW42127  11.462  10.096  13.309  0.0238 -0.1282 -0.6596
43383SOL    HW142128  11.507  10.026  13.263 -0.2017  0.2911 -1.5396
43383SOL    HW242129  11.494  10.176  13.268  0.8437  0.3435  0.8280
43384SOL     OW42130   7.095  11.222   9.086 -0.1837 -0.2688  0.2244
43384SOL    HW142131   7.184  11.257   9.093 -0.7776  1.1355  1.5264
43384SOL    HW242132   7.039  11.293   9.119 -1.6813 -1.5796  0.6436
43385SOL     OW42133   4.905   7.214   4.381 -0.9276  0.2485  0.1114
43385SOL    HW142134   4.864   7.129   4.368 -1.3673  0.6149 -1.0749
43385SOL    HW242135   4.906   7.227   4.476  0.6916 -1.8095  0.4451
43386SOL     OW42136   1.838   0.832  12.036 -0.0435  0.0392  0.3427
43386SOL    HW142137   1.909   0.873  12.085 -0.7175  1.8580 -0.1091
43386SOL    HW242138   1.881   0.767  11.980  1.0260 -0.1835  1.3846
43387SOL     OW42139   5.161   8.465   2.308  0.0196  0.5550  0.5350
43387SOL    HW142140   5.137   8.526   2.238 -2.5205 -1.1821 -0.2320
43387SOL    HW242141   5.100   8.485   2.379 -0.8605 -1.0112  0.2702
43388SOL     OW42142   1.022   9.923   1.660 -0.2419  1.1102  0.1086
43388SOL    HW142143   0.983   9.841   1.689 -1.4072  1.4475 -0.4491
43388SOL    HW242144   1.092   9.896   1.599  0.8324  0.4846  1.5574
43389SOL     OW42145   9.712  11.643   7.269 -0.4619  0.0558 -0.8039
43389SOL    HW142146   9.639  11.699   7.297 -0.1669 -0.4850  1.1601
43389SOL    HW242147   9.671  11.560   7.244 -0.4391 -1.2794  2.9926
43390SOL     OW42148  12.080   2.778   9.222 -0.1510  0.2854  0.7228
43390SOL    HW142149  12.158   2.771   9.278 -1.1217  1.0488  2.2426
43390SOL    HW242150  12.099   2.723   9.146  0.5025 -2.3005  2.6499
43391SOL     OW42151  13.059   2.407   3.982  0.5020 -0.2024 -0.0911
43391SOL    HW142152  13.012   2.349   4.042  1.0491 -0.3209  0.2275
43391SOL    HW242153  13.104   2.469   4.039 -1.3609  1.5992 -0.4459
43392SOL     OW42154  12.414   3.554   3.952 -0.1240  0.1842  0.9542
43392SOL    HW142155  12.438   3.523   3.865  2.0416 -0.5686  1.7559
43392SOL    HW242156  12.451   3.642   3.957  0.3254 -0.0218  1.3247
43393SOL     OW42157   2.166   5.538   3.255 -0.0130  0.8731  0.4135
43393SOL    HW142158   2.230   5.494   3.199  0.2603 -2.3628  3.0060
43393SOL    HW242159   2.081   5.518   3.215  0.3024  1.8046 -0.8060
43394SOL     OW42160   6.945   0.156  12.402  0.3123  0.4149 -0.2453
43394SOL    HW142161   6.956   0.103  12.323 -0.7388 -1.1841  0.6194
43394SOL    HW242162   7.021   0.134  12.456 -0.0987 -0.2066  0.0928
43395SOL     OW42163   9.277   8.828   0.870  0.0762 -0.4021 -0.2344
43395SOL    HW142164   9.264   8.887   0.795  1.0226 -1.5716 -1.3717
43395SOL    HW242165   9.372   8.822   0.880 -0.0264 -0.8802  0.5635
43396SOL     OW42166  12.632  11.999   9.765  0.3417 -0.1195  0.4282
43396SOL    HW142167  12.557  12.002   9.706  1.1735  1.1323 -0.6231
43396SOL    HW242168  12.677  11.917   9.744  0.5266  0.2283 -0.5754
43397SOL     OW42169  11.126  12.804   1.066  0.2852 -0.2773  0.3784
43397SOL    HW142170  11.105  12.719   1.025 -0.1828 -0.7357  1.5284
43397SOL    HW242171  11.049  12.858   1.049  2.2786  1.6380 -4.4591
43398SOL     OW42172   7.724   1.059   5.664 -0.1174 -0.0816 -0.2104
43398SOL    HW142173   7.643   1.105   5.641 -0.5944 -1.4940 -1.4703
43398SOL    HW242174   7.696   0.990   5.724  0.5802  1.0919  1.5662
43399SOL     OW42175   1.676   9.189  10.587 -0.0259 -0.1056 -0.7531
43399SOL    HW142176   1.590   9.159  10.616 -0.8243  1.0773 -1.7806
43399SOL    HW242177   1.665   9.283  10.574  2.0047  0.4384  1.0028
43400SOL     OW42178  14.039   0.494   9.020  0.0600 -0.3970  0.1893
43400SOL    HW142179  14.039   0.422   9.082  2.0313 -0.6462 -0.0202
43400SOL    HW242180  14.102   0.557   9.057 -0.2090  0.3450 -0.5789
43401SOL     OW42181   7.958   9.969   4.601 -0.0642 -0.2410  0.5056
43401SOL    HW142182   7.922  10.004   4.683  1.6043 -1.8383  2.0333
43401SOL    HW242183   7.944  10.039   4.537  0.3372  1.9130  2.6108
43402SOL     OW42184  10.816  10.234  11.255 -0.3090 -0.6631 -0.2780
43402SOL    HW142185  10.875  10.296  11.296 -2.6116  1.4876  0.0630
43402SOL    HW242186  10.812  10.262  11.163 -0.9724 -0.5729 -0.2323
43403SOL     OW42187   0.953   9.316   1.465 -0.7906 -0.5606 -0.6170
43403SOL    HW142188   0.912   9.277   1.387  1.2554 -0.2915 -1.8998
43403SOL    HW242189   1.004   9.245   1.503 -0.8545 -0.3726 -0.1758
43404SOL     OW42190   9.570   5.815  13.023 -0.0278  0.6644 -0.0007
43404SOL    HW142191   9.510   5.809  13.097 -0.2099  2.1638 -0.0014
43404SOL    HW242192   9.534   5.755  12.958 -0.6469  0.3814  0.5889
43405SOL     OW42193  13.905  13.921  12.138  0.3136 -0.5922 -0.0762
43405SOL    HW142194  13.864  13.923  12.225  0.5664  0.6045  0.0389
43405SOL    HW242195  13.883  14.006  12.100  1.2494 -0.6143 -0.6915
43406SOL     OW42196  11.947   7.032  12.216  0.2522  0.3295  0.3389
43406SOL    HW142197  12.033   7.016  12.255  0.4844  0.9407  0.0916
43406SOL    HW242198  11.889   7.045  12.291  0.6613  1.3276  0.5065
43407SOL     OW42199   9.870   8.461  11.918 -0.8000 -0.6645  0.2447
43407SOL    HW142200   9.949   8.480  11.969 -1.4133  0.1911  0.8976
43407SOL    HW242201   9.870   8.366  11.910 -0.6998 -0.8342  1.8703
43408SOL     OW42202  10.215   5.804  10.152  0.8544 -0.3725  0.1273
43408SOL    HW142203  10.196   5.727  10.205  0.6408 -0.2436  0.2353
43408SOL    HW242204  10.251   5.867  10.214 -0.0936  0.0499  0.2592
43409SOL     OW42205   1.776  11.052  13.617 -0.4212  0.2028  0.0306
43409SOL    HW142206   1.842  10.992  13.652 -0.4006 -0.0198 -0.3964
43409SOL    HW242207   1.817  11.090  13.540 -0.4824  0.6753  0.2264
43410SOL     OW42208   8.442   6.920   1.495 -0.0655 -0.0066  0.0336
43410SOL    HW142209   8.408   6.998   1.450  0.7947  0.8700  0.8440
43410SOL    HW242210   8.421   6.935   1.587  1.4789  0.0148  0.3987
43411SOL     OW42211   5.663  12.082  13.368 -0.9007 -0.3769  0.5168
43411SOL    HW142212   5.636  11.992  13.351 -1.3944 -0.0338 -0.6243
43411SOL    HW242213   5.749  12.090  13.325 -0.4973 -0.5137  1.2806
43412SOL     OW42214   6.826  13.990   2.841  0.5429 -0.2070 -0.0127
43412SOL    HW142215   6.785  14.076   2.848  1.4496  0.2322 -0.0151
43412SOL    HW242216   6.760  13.935   2.798 -0.6000  0.1070  1.2757
43413SOL     OW42217  12.325  11.162  10.976 -0.3367  0.3491  0.4085
43413SOL    HW142218  12.234  11.158  11.007 -1.0195  0.9626 -1.3912
43413SOL    HW242219  12.352  11.252  10.994 -0.9696  0.9151 -1.2807
43414SOL     OW42220   7.872   3.700  10.503  0.2558  0.0082 -0.0606
43414SOL    HW142221   7.931   3.719  10.429 -0.8865  0.6602 -0.8382
43414SOL    HW242222   7.826   3.783  10.518 -0.4778 -0.4950  0.5104
43415SOL     OW42223  11.343   9.926   8.599 -0.3084 -0.1421 -0.0220
43415SOL    HW142224  11.315   9.861   8.664  1.3307  0.4351  1.3540
43415SOL    HW242225  11.413   9.883   8.550  0.6133  0.4278  0.7328
43416SOL     OW42226   0.975   4.282   9.876  0.0729 -0.0760 -0.2822
43416SOL    HW142227   0.923   4.305   9.799  0.4666 -0.4528 -0.6665
43416SOL    HW242228   1.014   4.197   9.854 -1.0326 -0.9514  0.9281
43417SOL     OW42229   3.421   6.337  13.001  0.3803 -0.2985  0.1630
43417SOL    HW142230   3.483   6.364  12.934 -0.6881 -1.0654 -1.1922
43417SOL    HW242231   3.363   6.413  13.012 -0.8328 -0.9079 -1.5085
43418SOL     OW42232   3.697   5.971   0.931 -0.2011  0.3998  0.3662
43418SOL    HW142233   3.724   6.034   0.997 -0.0703  1.2275 -0.4512
43418SOL    HW242234   3.682   5.890   0.979  3.2067 -0.0180  0.9733
43419SOL     OW42235  11.129   5.989   5.362 -0.0784  0.2272  0.0761
43419SOL    HW142236  11.126   6.050   5.437 -0.1714 -0.3123  0.5155
43419SOL    HW242237  11.071   6.029   5.297  1.9461  2.0361 -0.7585
43420SOL     OW42238  13.731  10.275   6.942  0.0467  0.1075 -0.2884
43420SOL    HW142239  13.694  10.337   6.879  0.6722  0.5118 -0.2634
43420SOL    HW242240  13.729  10.322   7.026  3.3345  1.3178 -0.7713
43421SOL     OW42241   8.242  12.216   2.083  0.0205 -0.1258 -0.0878
43421SOL    HW142242   8.206  12.273   2.151 -1.9155 -0.0810 -1.0777
43421SOL    HW242243   8.166  12.169   2.049  1.1414 -1.1018 -1.3416
43422SOL     OW42244   2.201   4.456   7.627  0.7484 -0.6653 -0.2479
43422SOL    HW142245   2.135   4.461   7.696 -0.3862 -0.1979 -1.3330
43422SOL    HW242246   2.226   4.364   7.625 -0.8570 -1.1254 -0.6829
43423SOL     OW42247   5.951   0.359  11.978  0.2357  0.0805  0.4839
43423SOL    HW142248   5.869   0.397  11.946  0.7873 -1.7965 -3.7581
43423SOL    HW242249   6.019   0.413  11.938  1.0213 -1.2556 -0.0054
43424SOL     OW42250   9.703   5.414   1.824 -0.3984 -0.2817  0.2544
43424SOL    HW142251   9.704   5.474   1.749 -0.8227  1.1466  1.3504
43424SOL    HW242252   9.794   5.386   1.833 -0.5302 -1.3792 -1.4722
43425SOL     OW42253   3.484   3.390  10.839 -0.0554 -0.6076 -0.2005
43425SOL    HW142254   3.425   3.392  10.763 -0.7442 -1.0050  0.3123
43425SOL    HW242255   3.570   3.410  10.803 -0.5147  0.0957 -0.9579
43426SOL     OW42256  10.638   5.032   6.926 -0.7898 -0.0783  0.4665
43426SOL    HW142257  10.612   5.122   6.946 -1.0301 -0.1600  0.5269
43426SOL    HW242258  10.725   5.024   6.963 -0.2179  0.5374 -0.6811
43427SOL     OW42259  13.551   4.725   5.667 -0.2392  0.4355  0.3053
43427SOL    HW142260  13.550   4.819   5.653 -0.0783  0.3333 -0.4238
43427SOL    HW242261  13.615   4.712   5.737  0.1690  0.8180  0.0092
43428SOL     OW42262   6.889   4.256   9.724 -0.1941 -0.3835  0.4215
43428SOL    HW142263   6.974   4.240   9.683  1.0021 -0.7139  2.8947
43428SOL    HW242264   6.860   4.170   9.754 -1.5911 -0.3268 -0.6567
43429SOL     OW42265  12.572  12.714  12.008 -0.1791 -0.4316 -0.4438
43429SOL    HW142266  12.514  12.674  11.944 -0.4916  0.0751 -0.4818
43429SOL    HW242267  12.631  12.643  12.034 -1.4107 -1.2110  0.3099
43430SOL     OW42268   2.559   3.464   0.453  0.5094 -0.3106 -0.6225
43430SOL    HW142269   2.568   3.458   0.548  2.1309 -1.3501 -0.8009
43430SOL    HW242270   2.546   3.373   0.424 -0.3637  0.0302 -1.3855
43431SOL     OW42271   5.730   1.659   3.066  0.7855  0.1167  0.0299
43431SOL    HW142272   5.766   1.664   2.977  2.1554 -2.1138  0.3927
43431SOL    HW242273   5.710   1.567   3.079 -1.7874  0.7449  1.1956
43432SOL     OW42274   5.358  12.655  12.129  0.6200  0.5515 -0.0122
43432SOL    HW142275   5.330  12.746  12.144 -0.5008  0.5170 -1.6648
43432SOL    HW242276   5.416  12.660  12.053  1.0938 -0.0555  0.2976
43433SOL     OW42277   4.975   1.829   2.996  0.0033  0.0175 -0.1375
43433SOL    HW142278   5.003   1.739   2.979 -0.1187 -0.5639  2.2802
43433SOL    HW242279   5.008   1.848   3.084 -2.5626  1.2249  0.6686
43434SOL     OW42280  11.310   1.380   9.322 -0.3576 -0.4527 -0.2701
43434SOL    HW142281  11.249   1.454   9.317  0.3957  0.1795 -0.3739
43434SOL    HW242282  11.392   1.419   9.352 -0.2696 -1.4619  0.8577
43435SOL     OW42283  13.396   9.750   5.720 -1.0478 -0.1859  0.0945
43435SOL    HW142284  13.385   9.806   5.644 -1.9612 -0.6785 -0.1551
43435SOL    HW242285  13.455   9.680   5.691 -1.3157 -0.3181 -0.1304
43436SOL     OW42286   8.431   0.204  12.026  0.0790  0.1086 -0.1898
43436SOL    HW142287   8.527   0.209  12.029  0.2927 -2.5881  0.1066
43436SOL    HW242288   8.410   0.199  11.932  0.1087  1.7267 -0.3057
43437SOL     OW42289   3.169   8.595   3.883  0.7093 -0.3803 -0.4195
43437SOL    HW142290   3.137   8.508   3.860  1.8244 -0.8180 -0.3781
43437SOL    HW242291   3.153   8.602   3.978 -1.7336  0.5058 -0.8252
43438SOL     OW42292   0.634   3.455   1.820 -0.6725  0.0107 -0.1428
43438SOL    HW142293   0.604   3.436   1.909 -0.6863 -1.2181 -0.3998
43438SOL    HW242294   0.674   3.542   1.827  1.5031 -1.0421  1.6047
43439SOL     OW42295   6.803   2.373  10.434 -0.5472  0.2867 -0.3964
43439SOL    HW142296   6.804   2.305  10.500  0.2920  0.3013 -0.3906
43439SOL    HW242297   6.888   2.367  10.390 -0.8545  0.6651 -1.0727
43440SOL     OW42298   8.109   3.428   5.414  0.3574 -0.7101  0.2118
43440SOL    HW142299   8.124   3.520   5.436 -0.4314 -0.5583  0.1368
43440SOL    HW242300   8.038   3.430   5.350  0.6806 -1.3419 -0.1734
43441SOL     OW42301   1.231   1.472   7.090 -0.1461 -0.3978  0.2627
43441SOL    HW142302   1.293   1.435   7.152 -0.2698 -0.9368  0.0777
43441SOL    HW242303   1.266   1.558   7.067  1.5763 -1.4407 -1.3021
43442SOL     OW42304   1.399   6.559   1.819  0.4102  0.0223 -0.0901
43442SOL    HW142305   1.318   6.510   1.833  0.0106  0.4287 -0.9368
43442SOL    HW242306   1.376   6.650   1.837  0.8394  0.0657  0.2636
43443SOL     OW42307   5.253  12.306  11.054 -0.4979  0.2018 -0.2305
43443SOL    HW142308   5.196  12.379  11.030  1.5681  1.6155 -1.1019
43443SOL    HW242309   5.269  12.317  11.148 -0.1766  0.9155 -0.3628
43444SOL     OW42310  13.900  11.909  13.807 -0.4798 -0.1008 -0.0597
43444SOL    HW142311  13.889  11.955  13.890 -0.6179 -0.5926  0.1976
43444SOL    HW242312  13.837  11.950  13.748 -0.8603 -0.2013  0.2705
43445SOL     OW42313   5.410  11.196   3.364  0.0034 -0.6416 -0.6565
43445SOL    HW142314   5.429  11.199   3.458  3.6251  2.7724 -1.1817
43445SOL    HW242315   5.473  11.133   3.329  0.0473 -0.4541 -0.9243
43446SOL     OW42316  11.329  14.019   7.049 -0.5275 -0.8168  0.0584
43446SOL    HW142317  11.266  14.049   7.113 -0.8638 -0.6320 -0.3531
43446SOL    HW242318  11.282  14.021   6.966 -0.2373 -1.4843 -0.1309
43447SOL     OW42319   2.607  12.722  12.222 -0.1828 -0.0218  0.4604
43447SOL    HW142320   2.512  12.720  12.219 -0.1624 -0.0081 -0.5297
43447SOL    HW242321   2.631  12.652  12.283 -0.8374  0.5021  1.3560
43448SOL     OW42322   9.182   2.733  10.861 -0.0197 -0.7938  0.3815
43448SOL    HW142323   9.261   2.680  10.849 -0.4330 -1.0842 -1.2732
43448SOL    HW242324   9.191   2.804  10.798 -0.5735 -0.1927  0.9571
43449SOL     OW42325   9.567   9.234  12.826  0.2459  0.5678  0.6319
43449SOL    HW142326   9.656   9.253  12.856  0.1885  1.0760  0.4863
43449SOL    HW242327   9.516   9.311  12.849 -0.3430 -0.0337  1.4118
43450SOL     OW42328   5.778  11.106   4.200  0.1505  0.1153  0.6929
43450SOL    HW142329   5.867  11.120   4.166 -0.2637 -1.0588 -0.9930
43450SOL    HW242330   5.741  11.194   4.207  0.9141  0.5206 -0.1630
43451SOL     OW42331   6.803   7.193  13.679 -0.5011  0.8918 -0.0092
43451SOL    HW142332   6.746   7.159  13.749 -1.2191  3.0803  0.5342
43451SOL    HW242333   6.827   7.115  13.629 -1.2878 -0.5421  1.7024
43452SOL     OW42334   4.045   2.611   9.605 -0.0692 -0.0713  0.0201
43452SOL    HW142335   3.960   2.639   9.571 -0.3557  0.4944  1.1580
43452SOL    HW242336   4.025   2.561   9.684  0.6294 -0.3734  0.0130
43453SOL     OW42337  11.084   6.296   3.018 -0.5740 -0.0462  0.1111
43453SOL    HW142338  11.094   6.387   3.047  0.7980 -0.7297  1.9719
43453SOL    HW242339  10.990   6.288   2.998 -1.2286  1.1430  2.3057
43454SOL     OW42340   5.430   0.337   9.146 -0.5534  0.4451  0.0140
43454SOL    HW142341   5.403   0.325   9.237 -2.0758 -3.2346 -0.7195
43454SOL    HW242342   5.519   0.371   9.151 -0.4372 -0.0314  2.8709
43455SOL     OW42343   3.523   5.384   3.113  0.4571  0.1028 -0.1253
43455SOL    HW142344   3.577   5.325   3.060  0.3351  0.7053 -0.9482
43455SOL    HW242345   3.434   5.351   3.102  0.5631 -0.4861  0.6867
43456SOL     OW42346  12.307  12.922   0.089  0.3465  0.1876 -0.3195
43456SOL    HW142347  12.219  12.938   0.123  0.4219 -0.1182  0.0224
43456SOL    HW242348  12.365  12.957   0.156  0.5304 -1.9332  0.7033
43457SOL     OW42349   4.534   0.193   9.626  0.0733  0.5124  0.3891
43457SOL    HW142350   4.576   0.138   9.560 -2.1347  1.2021 -1.7401
43457SOL    HW242351   4.519   0.135   9.700 -0.0583 -1.1361 -0.8830
43458SOL     OW42352   8.901   8.646  13.951 -0.1812 -0.3744 -0.4145
43458SOL    HW142353   8.907   8.624  13.858 -0.1436  0.2456 -0.5606
43458SOL    HW242354   8.808   8.654  13.968 -0.1913 -0.5533 -0.3810
43459SOL     OW42355   3.967   6.121   3.500  0.3392 -0.2628 -0.1513
43459SOL    HW142356   3.917   6.041   3.519  1.2008 -0.6609  0.5471
43459SOL    HW242357   3.901   6.191   3.498 -0.3402 -0.8871 -0.0639
43460SOL     OW42358   9.387   4.877   7.410 -0.4511  0.0221  0.1854
43460SOL    HW142359   9.392   4.940   7.482 -2.6137 -1.3044  1.6131
43460SOL    HW242360   9.353   4.928   7.336 -0.7216  0.8728  0.8739
43461SOL     OW42361   5.821   7.000   6.145  0.4071 -0.0149  0.3251
43461SOL    HW142362   5.854   7.015   6.057  3.0026  2.4785  1.5318
43461SOL    HW242363   5.862   6.919   6.174  1.5960  0.4844  0.0743
43462SOL     OW42364  13.657   3.021   7.915  0.3152 -0.1725  0.0702
43462SOL    HW142365  13.608   3.040   7.835  0.9822 -0.7178 -0.4826
43462SOL    HW242366  13.599   3.049   7.986 -0.5265 -0.2166 -0.5834
43463SOL     OW42367  10.136   8.893   0.421 -0.0784  0.0743  0.1014
43463SOL    HW142368  10.183   8.970   0.452  0.0101  0.1914 -0.3120
43463SOL    HW242369  10.128   8.907   0.327 -1.2721  0.2359  0.2156
43464SOL     OW42370   2.525   1.546   2.164 -0.1579  0.3501 -0.2014
43464SOL    HW142371   2.544   1.527   2.072  2.0402  1.4408 -0.0572
43464SOL    HW242372   2.505   1.461   2.203  3.2826 -0.9182 -0.8187
43465SOL     OW42373   1.897   4.235  10.290  0.6661  0.0064 -0.1596
43465SOL    HW142374   1.830   4.189  10.240  0.6267 -1.1117  0.8916
43465SOL    HW242375   1.850   4.307  10.332  0.6013  0.6475 -1.2846
43466SOL     OW42376   9.944   3.991   7.253 -0.5510 -0.2762 -0.1680
43466SOL    HW142377   9.849   3.995   7.263 -0.4766 -0.3187  0.6092
43466SOL    HW242378   9.961   4.038   7.171 -1.3610 -1.5166 -1.0842
43467SOL     OW42379   3.404   4.933   4.429  0.7087 -0.5029  0.1948
43467SOL    HW142380   3.494   4.909   4.452  1.3573  0.0485 -1.6408
43467SOL    HW242381   3.403   5.028   4.431  0.4711 -0.4752 -0.8744
43468SOL     OW42382   6.266   0.457   7.210  0.2473 -0.1581  0.1180
43468SOL    HW142383   6.294   0.386   7.269  0.2039 -0.5601 -0.3410
43468SOL    HW242384   6.175   0.436   7.189  0.5720 -0.5878 -0.9158
43469SOL     OW42385  10.555  11.742   8.347  0.6419 -0.2453  0.1578
43469SOL    HW142386  10.483  11.748   8.285  0.1315 -3.1926  0.3584
43469SOL    HW242387  10.533  11.805   8.416 -0.6011  0.4655 -0.8598
43470SOL     OW42388  13.338   5.635   8.385 -0.1560 -0.6143 -0.8365
43470SOL    HW142389  13.433   5.638   8.377  0.1752  0.4888  2.3035
43470SOL    HW242390  13.318   5.542   8.401  0.2766 -0.9559 -2.1652
43471SOL     OW42391   7.922   9.371   3.672  0.6425 -0.4908  0.2521
43471SOL    HW142392   7.910   9.442   3.609 -0.7970 -3.5055 -3.2698
43471SOL    HW242393   7.838   9.368   3.719  1.2656  0.9862  1.5449
43472SOL     OW42394   5.830   6.357   5.222  0.2992 -0.5692 -0.5323
43472SOL    HW142395   5.837   6.432   5.163  1.1986 -0.9181 -0.8893
43472SOL    HW242396   5.745   6.367   5.264  0.8897  1.2847  0.2941
43473SOL     OW42397  14.012   3.482  10.387  0.5186 -0.2218 -0.1419
43473SOL    HW142398  13.976   3.403  10.428 -0.5739  0.6421  0.6513
43473SOL    HW242399  14.063   3.524  10.457  0.7119  0.0079 -0.4166
43474SOL     OW42400   5.548   9.982  11.555 -0.4672  0.4662  0.4027
43474SOL    HW142401   5.558   9.945  11.467  2.0427 -0.7955  1.1220
43474SOL    HW242402   5.518   9.909  11.608  2.4446 -0.1491  1.4091
43475SOL     OW42403  12.148  11.037   5.816 -0.2976  0.2218 -0.2544
43475SOL    HW142404  12.193  11.021   5.899 -0.0923 -0.0439 -0.4157
43475SOL    HW242405  12.057  11.011   5.832 -0.1929 -0.1176 -0.2005
43476SOL     OW42406   3.744   7.827   7.060 -0.3178  0.5423  0.0091
43476SOL    HW142407   3.716   7.916   7.079 -1.8787  0.0165  0.3737
43476SOL    HW242408   3.794   7.800   7.137 -1.6467  0.4072  0.8627
43477SOL     OW42409   6.651  12.578   8.125 -0.0637  0.0356  0.0597
43477SOL    HW142410   6.569  12.561   8.079 -0.7926  1.7597  0.6613
43477SOL    HW242411   6.655  12.512   8.194 -2.2736  1.4911  1.6824
43478SOL     OW42412   1.714   4.660   6.324  0.1994 -0.1207  0.4584
43478SOL    HW142413   1.789   4.605   6.304 -2.2433 -3.7784  0.5081
43478SOL    HW242414   1.713   4.667   6.420  1.5980  1.8531  0.3937
43479SOL     OW42415   1.133   1.279   3.481  0.4971 -0.0361 -0.3469
43479SOL    HW142416   1.040   1.276   3.461  0.5142  0.9212 -0.6170
43479SOL    HW242417   1.138   1.257   3.574 -0.0537  0.4944 -0.1877
43480SOL     OW42418   2.585   2.529   1.309  0.5521 -0.2986 -0.3377
43480SOL    HW142419   2.497   2.523   1.273  0.2717  1.3445 -0.0237
43480SOL    HW242420   2.610   2.438   1.326 -0.8046 -0.8415 -1.0566
43481SOL     OW42421   0.504   5.665   7.011 -0.1124  0.7222  0.2631
43481SOL    HW142422   0.507   5.672   7.107 -0.8677 -0.5795  0.4044
43481SOL    HW242423   0.578   5.718   6.981  0.5932  0.5423  1.6010
43482SOL     OW42424   8.679   5.398   8.740 -0.2299  0.2164 -0.3423
43482SOL    HW142425   8.656   5.389   8.648 -1.1238 -1.8988  0.0279
43482SOL    HW242426   8.752   5.336   8.753 -1.4242 -1.0319  0.7458
43483SOL     OW42427   4.196   6.771   1.544  0.7781  0.0206 -0.1201
43483SOL    HW142428   4.111   6.728   1.531  0.2665  0.5254  1.3272
43483SOL    HW242429   4.255   6.726   1.484 -0.9217  0.9889 -2.7191
43484SOL     OW42430   5.206   3.385   1.995  0.3633  0.3359 -0.0605
43484SOL    HW142431   5.179   3.295   1.978 -0.6459  0.7331 -0.6709
43484SOL    HW242432   5.294   3.377   2.032  0.6130 -0.8457 -0.8494
43485SOL     OW42433   9.249   0.740   0.951  0.1608 -0.3627  0.6688
43485SOL    HW142434   9.195   0.786   0.887  1.1534 -0.2946 -0.1386
43485SOL    HW242435   9.187   0.688   1.002 -0.6562 -0.3128 -0.2647
43486SOL     OW42436   8.765   2.965   3.134  0.6955  0.6407 -0.0621
43486SOL    HW142437   8.688   2.986   3.082  0.5743 -0.0511 -0.1632
43486SOL    HW242438   8.764   3.029   3.205  0.3249  0.9674 -0.3571
43487SOL     OW42439   0.558   2.790   1.914  0.0681  0.0114 -0.4008
43487SOL    HW142440   0.594   2.846   1.846  0.2085  0.4665  0.0419
43487SOL    HW242441   0.464   2.806   1.911  0.3093  2.3868  1.5141
43488SOL     OW42442   6.720   1.070   7.817 -0.3706 -0.3562 -0.2608
43488SOL    HW142443   6.780   1.020   7.873 -1.0941 -3.2024 -1.7933
43488SOL    HW242444   6.634   1.036   7.838 -0.9775  0.6671 -1.0101
43489SOL     OW42445   6.798   4.220   3.213  0.0630 -0.2490 -0.2370
43489SOL    HW142446   6.709   4.185   3.212  0.0106 -0.1499 -1.6673
43489SOL    HW242447   6.806   4.266   3.129  1.6485 -0.7551 -0.3985
43490SOL     OW42448   5.380   1.025  10.667  0.2844 -0.3746  0.1411
43490SOL    HW142449   5.311   1.078  10.628 -0.9442 -1.2170  1.0909
43490SOL    HW242450   5.433   0.995  10.593 -0.8802 -0.4253 -0.6888
43491SOL     OW42451   6.780   2.246   8.843 -0.6729  0.7078 -0.3178
43491SOL    HW142452   6.844   2.317   8.851 -0.3185  0.4511 -0.8194
43491SOL    HW242453   6.752   2.229   8.933 -0.5013  1.2447 -0.1585
43492SOL     OW42454   4.927   2.482   6.974  0.2390  0.5097  0.3695
43492SOL    HW142455   4.845   2.466   6.927  0.8021  1.6272 -1.0549
43492SOL    HW242456   4.922   2.424   7.050 -3.0587  2.3485  1.8009
43493SOL     OW42457   4.590   2.455   3.960 -0.0331  0.1728 -0.2055
43493SOL    HW142458   4.678   2.459   3.923 -0.5840  1.2232 -1.4910
43493SOL    HW242459   4.593   2.510   4.037  1.2059 -2.2379  1.6188
43494SOL     OW42460   3.930   0.599   4.632  0.1205 -0.0073  0.5032
43494SOL    HW142461   3.938   0.510   4.598  1.4696 -0.7709  2.6222
43494SOL    HW242462   4.020   0.630   4.640 -0.2957  1.2451  0.6056
43495SOL     OW42463   3.734   5.635   1.964  0.0096  0.0097 -0.2583
43495SOL    HW142464   3.682   5.603   1.890  0.0204  0.2490 -0.3679
43495SOL    HW242465   3.688   5.714   1.994  0.5002  0.4202 -0.5719
43496SOL     OW42466   6.483   6.807  11.464  0.2475  0.1192  0.1811
43496SOL    HW142467   6.431   6.727  11.461 -0.3079  0.3282  2.3838
43496SOL    HW242468   6.423   6.875  11.435  0.5350 -0.1536 -1.1023
43497SOL     OW42469   7.828   0.772   4.768 -0.1560  0.1467 -0.1090
43497SOL    HW142470   7.859   0.689   4.732  0.3196  0.7663 -1.1672
43497SOL    HW242471   7.734   0.770   4.754 -0.1699 -0.2668  0.0033
43498SOL     OW42472   8.866   8.788   0.297 -0.2543 -0.4440  0.0690
43498SOL    HW142473   8.810   8.775   0.373  0.2706  2.5613  1.1375
43498SOL    HW242474   8.949   8.746   0.321 -0.7320 -1.3049  0.2442
43499SOL     OW42475   3.037   0.978   8.566 -0.1522  0.1182  0.1213
43499SOL    HW142476   3.019   1.072   8.570 -0.9323 -0.0089 -0.3595
43499SOL    HW242477   3.088   0.967   8.485 -1.8173 -0.1468 -0.9210
43500SOL     OW42478  12.294  12.731  11.717  0.0778 -0.0590  0.1554
43500SOL    HW142479  12.348  12.681  11.779 -0.5084  0.8479  1.4352
43500SOL    HW242480  12.349  12.737  11.638  1.8959  0.8430  1.4081
43501SOL     OW42481  12.061   1.992   9.223  0.4047  0.0258 -0.2067
43501SOL    HW142482  12.078   2.045   9.300  0.7117 -1.0857  0.5050
43501SOL    HW242483  12.113   1.913   9.236 -0.1098 -0.4944 -1.2031
43502SOL     OW42484  12.363   8.591   6.952  0.2037  0.2077  0.2057
43502SOL    HW142485  12.404   8.511   6.917 -1.1354 -0.9159  1.0784
43502SOL    HW242486  12.343   8.643   6.875  0.3988 -0.6630 -0.4558
43503SOL     OW42487  13.859   1.857  11.343 -0.4130  0.0388 -0.4892
43503SOL    HW142488  13.778   1.869  11.293 -1.2230  0.6758  0.9014
43503SOL    HW242489  13.833   1.800  11.416  1.0445 -1.9846 -1.4397
43504SOL     OW42490   4.117  13.798   4.478 -0.6526  0.0360  0.3782
43504SOL    HW142491   4.044  13.852   4.508  0.8838  0.7091  3.2521
43504SOL    HW242492   4.195  13.851   4.497  0.7123 -1.6714 -0.2582
43505SOL     OW42493   0.538  11.620   0.831  0.1805  0.0215 -0.5659
43505SOL    HW142494   0.550  11.611   0.736  0.6606  2.4486 -0.8031
43505SOL    HW242495   0.602  11.686   0.857 -0.6043  0.1080  1.2965
43506SOL     OW42496   5.890   4.847   5.947  0.1127  0.2084 -0.7639
43506SOL    HW142497   5.943   4.914   5.989  0.2310 -0.2353 -0.1914
43506SOL    HW242498   5.915   4.850   5.855  1.3642 -0.2072 -0.4498
43507SOL     OW42499   1.302  11.585  12.161  0.2902  0.5017  0.0790
43507SOL    HW142500   1.384  11.538  12.149  0.9885  2.3150 -4.2018
43507SOL    HW242501   1.237  11.532  12.114 -0.3342  0.5620  0.8634
43508SOL     OW42502   1.316   3.691   3.705  0.4227 -0.0613 -0.1048
43508SOL    HW142503   1.301   3.598   3.718 -0.8626 -0.0458 -1.1987
43508SOL    HW242504   1.411   3.702   3.713  0.5514 -1.3822  0.4290
43509SOL     OW42505  13.872   3.989   0.806 -0.1680 -0.1033  0.7320
43509SOL    HW142506  13.831   4.027   0.729  0.3735  0.1430  0.5600
43509SOL    HW242507  13.962   3.969   0.779 -0.1730 -0.6531  1.0939
43510SOL     OW42508   7.703  13.195   3.002  0.1212 -0.3185  0.6093
43510SOL    HW142509   7.725  13.281   3.037  1.5351 -0.2880 -0.2666
43510SOL    HW242510   7.763  13.183   2.929 -2.3996 -0.5278 -1.6078
43511SOL     OW42511   3.383   4.548   6.482 -0.1471  0.6661 -0.1338
43511SOL    HW142512   3.312   4.580   6.538  1.0007  1.7276  0.7700
43511SOL    HW242513   3.435   4.491   6.539  0.9678  1.6661 -0.1058
43512SOL     OW42514   8.986   1.808   2.112 -0.3345 -0.4603  0.1067
43512SOL    HW142515   8.984   1.726   2.161 -2.4578 -1.4315 -1.4611
43512SOL    HW242516   8.957   1.874   2.175 -2.7089 -1.6254  0.3430
43513SOL     OW42517   6.444   0.134   7.215 -0.8495  0.3909  0.0141
43513SOL    HW142518   6.439   0.203   7.282  1.2686  2.0681 -1.3811
43513SOL    HW242519   6.456   0.053   7.264 -1.7354  1.2378  1.6910
43514SOL     OW42520   4.090   1.632  10.740  0.0412 -0.5954  0.1763
43514SOL    HW142521   4.058   1.672  10.821 -0.7287 -0.4012 -0.2189
43514SOL    HW242522   4.024   1.654  10.674 -0.0211 -1.8798 -0.2185
43515SOL     OW42523   2.230  12.995  11.876  0.0329 -0.8026  0.4958
43515SOL    HW142524   2.151  13.011  11.927 -1.1191 -2.1909 -0.7346
43515SOL    HW242525   2.255  12.905  11.899  0.3880 -0.8838 -0.1753
43516SOL     OW42526  10.745  11.905  12.300 -0.3531  0.4607  0.2585
43516SOL    HW142527  10.672  11.896  12.362 -0.2373  1.6262  0.5886
43516SOL    HW242528  10.705  11.940  12.221 -0.6881 -2.0546 -0.7723
43517SOL     OW42529   8.080   4.224   9.090  0.1014  0.2067 -0.2436
43517SOL    HW142530   7.998   4.256   9.052 -0.6327 -0.0010  1.0856
43517SOL    HW242531   8.110   4.157   9.028 -1.3705 -0.5591 -0.1783
43518SOL     OW42532  10.166   4.654   3.384 -0.0846  0.3207  0.3957
43518SOL    HW142533  10.215   4.729   3.350 -2.3153  0.8532 -1.9972
43518SOL    HW242534  10.111   4.691   3.454  0.0842  0.5381  0.4140
43519SOL     OW42535   3.752  11.975   0.833  0.0814 -0.1614  0.1023
43519SOL    HW142536   3.744  12.058   0.785 -0.3767  0.1815  0.7462
43519SOL    HW242537   3.718  11.995   0.921 -0.4811 -1.1496  0.1303
43520SOL     OW42538   3.125   3.344  11.327  0.1129  0.1206 -0.2503
43520SOL    HW142539   3.173   3.411  11.377  0.2613 -1.5796  2.0809
43520SOL    HW242540   3.043   3.386  11.303  0.0488  1.0661  1.4635
43521SOL     OW42541   8.280   6.538   8.106  0.0779 -0.3647  0.1094
43521SOL    HW142542   8.337   6.520   8.180 -1.2160  1.8026  1.7813
43521SOL    HW242543   8.339   6.568   8.037  1.2257 -1.4350  0.5973
43522SOL     OW42544   8.498   9.081   9.925  0.6187  0.5166  0.7574
43522SOL    HW142545   8.553   9.045   9.994 -1.1261 -0.1976  1.8592
43522SOL    HW242546   8.443   9.008   9.898  2.7876  0.0779 -3.1605
43523SOL     OW42547   0.092   3.617   7.853 -0.2374  0.3519  0.5471
43523SOL    HW142548   0.132   3.596   7.938  0.1403  0.9289  0.5205
43523SOL    HW242549   0.024   3.682   7.875  0.8450  1.6282  0.2526
43524SOL     OW42550  13.113  13.472  10.180  0.0500  0.0267 -0.5050
43524SOL    HW142551  13.068  13.420  10.246  0.4753 -0.5512 -0.6656
43524SOL    HW242552  13.188  13.418  10.154  0.3055  0.5741 -0.9135
43525SOL     OW42553  13.951   2.604   0.514  0.6700 -0.2338 -0.3904
43525SOL    HW142554  14.044   2.609   0.539  0.2322  2.6417  1.0464
43525SOL    HW242555  13.944   2.521   0.466  3.4983 -1.6712  1.3836
43526SOL     OW42556   4.777   6.289   3.711  0.0171  0.0145 -0.5524
43526SOL    HW142557   4.742   6.323   3.629 -0.4547 -0.6848 -0.6491
43526SOL    HW242558   4.792   6.366   3.766  3.4195  0.8840 -2.4264
43527SOL     OW42559  11.050   6.898   6.873 -0.3302  0.1528 -0.2603
43527SOL    HW142560  11.116   6.864   6.933  0.2730  0.6617 -0.6197
43527SOL    HW242561  10.982   6.831   6.871 -0.5700  0.3065  1.3122
43528SOL     OW42562   3.735   3.879  13.067 -0.0747  0.4141 -0.3645
43528SOL    HW142563   3.764   3.869  12.976  1.7840 -2.1528  0.3837
43528SOL    HW242564   3.792   3.946  13.104  0.1654  0.4109 -0.7245
43529SOL     OW42565   1.235   5.027   2.266 -0.1672 -0.1045 -0.2122
43529SOL    HW142566   1.273   5.070   2.342 -1.3533 -0.4511  0.5987
43529SOL    HW242567   1.263   5.081   2.192 -0.6538  1.4131  0.6621
43530SOL     OW42568   7.391   6.718   8.882 -0.1611 -0.0578 -0.1900
43530SOL    HW142569   7.319   6.657   8.897  0.9761 -1.5568 -0.5377
43530SOL    HW242570   7.403   6.717   8.787  0.3279  0.1569 -0.1335
43531SOL     OW42571   0.090   9.699   3.216 -0.1274 -0.3721  0.6377
43531SOL    HW142572   0.173   9.715   3.261  0.3683  0.4684 -0.5364
43531SOL    HW242573   0.078   9.605   3.221  1.5902 -0.6764 -0.3419
43532SOL     OW42574   5.066  12.435  10.480 -0.4717  0.0932  0.1523
43532SOL    HW142575   4.997  12.460  10.541 -0.2144 -2.5627  1.6829
43532SOL    HW242576   5.019  12.407  10.401 -0.8922  1.7436 -0.2327
43533SOL     OW42577   4.249   2.852   1.749 -0.3720 -0.3831  0.0467
43533SOL    HW142578   4.202   2.845   1.832 -1.3954  0.1202 -0.4738
43533SOL    HW242579   4.185   2.827   1.682  0.0308  0.4673 -0.6903
43534SOL     OW42580   4.254   3.819  13.513 -0.1463 -0.1487 -0.2276
43534SOL    HW142581   4.230   3.901  13.469  0.3704 -1.2562 -2.7920
43534SOL    HW242582   4.342   3.799  13.480 -0.9866 -2.6474 -1.2330
43535SOL     OW42583   9.035  13.244   0.697  0.4935 -0.0762  0.4445
43535SOL    HW142584   9.002  13.169   0.648 -0.3743  0.3214  0.4023
43535SOL    HW242585   8.977  13.316   0.672 -0.1109  0.0963  2.1901
43536SOL     OW42586  11.052  10.589  12.311  0.2590 -0.3093 -0.1842
43536SOL    HW142587  11.048  10.643  12.390 -1.9185  0.1546 -0.5665
43536SOL    HW242588  11.045  10.499  12.343  3.5324 -0.4887  0.4223
43537SOL     OW42589   7.068   3.116   6.336  0.7209 -0.4548  0.4928
43537SOL    HW142590   7.025   3.030   6.330 -3.4534  1.4544 -1.5010
43537SOL    HW242591   7.062   3.140   6.428 -0.0146 -1.4810  0.7256
43538SOL     OW42592   8.775   7.494  11.632 -0.0863 -0.0059  0.0636
43538SOL    HW142593   8.852   7.478  11.686  0.7854  3.9615  0.2923
43538SOL    HW242594   8.810   7.521  11.547 -1.1353  2.1066  0.2411
43539SOL     OW42595   7.462   0.571   7.144 -0.2140 -0.8852  0.3214
43539SOL    HW142596   7.445   0.487   7.101  2.0590 -0.3658 -1.8045
43539SOL    HW242597   7.544   0.557   7.192 -2.4551 -1.3272  4.4680
43540SOL     OW42598   5.223   8.171   6.981  0.3563 -0.9972 -0.2611
43540SOL    HW142599   5.317   8.181   6.968  0.1012  0.1552 -1.4122
43540SOL    HW242600   5.194   8.114   6.910 -0.0618  0.1382 -1.0470
43541SOL     OW42601  10.051  10.682   1.597 -0.3090 -0.5562  0.0135
43541SOL    HW142602  10.042  10.760   1.544 -2.7786 -0.1731  0.8602
43541SOL    HW242603  10.117  10.705   1.663 -1.6992  1.2203  0.8620
43542SOL     OW42604   8.890   2.097   2.440  0.3654  0.4261 -0.2932
43542SOL    HW142605   8.805   2.052   2.438  0.5095  0.1030  0.3601
43542SOL    HW242606   8.887   2.158   2.367 -0.0325 -0.2965 -0.8936
43543SOL     OW42607   0.321  10.366   7.408 -0.8089  0.4571 -0.2040
43543SOL    HW142608   0.315  10.451   7.366 -3.2023  0.5273  0.1674
43543SOL    HW242609   0.268  10.373   7.487 -0.8632 -1.3012 -0.0251
43544SOL     OW42610   2.469   0.639   8.828  0.0789 -0.2111  0.3776
43544SOL    HW142611   2.458   0.655   8.921  0.4484 -0.0591  0.3986
43544SOL    HW242612   2.496   0.547   8.822  0.0558 -0.2203  0.4221
43545SOL     OW42613   9.860  10.799   2.266  0.2952  0.0126  0.1788
43545SOL    HW142614   9.880  10.722   2.320 -0.1494  0.8486  1.6058
43545SOL    HW242615   9.795  10.767   2.203  0.8911 -1.0214  0.0599
43546SOL     OW42616  10.249   4.954   8.417 -0.6143 -0.5953 -0.2576
43546SOL    HW142617  10.187   5.015   8.456 -1.2304 -0.6932 -1.0491
43546SOL    HW242618  10.222   4.868   8.449 -0.0354 -0.5070  0.4860
43547SOL     OW42619  12.725   5.400   6.113  0.4562  0.6065  0.0710
43547SOL    HW142620  12.665   5.431   6.181  0.3755 -0.7940  0.6767
43547SOL    HW242621  12.810   5.395   6.157 -0.0245 -2.7346  0.9589
43548SOL     OW42622  12.175   2.582   2.128  0.1504 -0.2101 -0.2276
43548SOL    HW142623  12.254   2.554   2.173  1.5040  0.7800 -1.8716
43548SOL    HW242624  12.178   2.677   2.131 -2.3952 -0.0756  1.9453
43549SOL     OW42625  12.288   9.008  11.872  0.3235  0.1926  0.1564
43549SOL    HW142626  12.203   8.967  11.888  0.8188 -0.6960  0.6493
43549SOL    HW242627  12.336   8.993  11.954  1.4073 -0.5034 -0.5896
43550SOL     OW42628   6.875   4.704   9.937  0.6862 -0.1446 -0.1109
43550SOL    HW142629   6.832   4.619   9.938  0.7172 -0.2008 -1.5413
43550SOL    HW242630   6.815   4.762   9.890  0.8234  0.5422  0.5314
43551SOL     OW42631  12.158  12.203   5.686  0.3100  0.3321  0.4035
43551SOL    HW142632  12.187  12.277   5.632  0.4491 -0.4498 -0.6280
43551SOL    HW242633  12.062  12.207   5.682  0.2889  1.3451  1.6135
43552SOL     OW42634   8.857   5.386   0.329  0.1918  0.3016  0.2096
43552SOL    HW142635   8.803   5.307   0.334  1.1295 -0.3956 -0.3210
43552SOL    HW242636   8.799   5.452   0.291 -0.0182 -0.7226 -1.3536
43553SOL     OW42637   4.151   0.175   9.186  0.7517  0.6589 -0.6251
43553SOL    HW142638   4.158   0.174   9.090  1.0148  0.3839 -0.6059
43553SOL    HW242639   4.202   0.099   9.214 -1.2112 -0.6269 -0.3732
43554SOL     OW42640   2.793   2.924  13.942 -0.0274 -0.5947  0.4902
43554SOL    HW142641   2.861   2.877  13.990 -0.4950 -1.2939  0.4672
43554SOL    HW242642   2.840   2.998  13.902  0.3281  0.1589  2.1958
43555SOL     OW42643   6.088   2.721  13.570  0.1106  0.1510  0.0645
43555SOL    HW142644   6.168   2.687  13.530 -0.1977  0.0484 -0.4740
43555SOL    HW242645   6.027   2.733  13.496 -0.4859 -0.0996  0.5103
43556SOL     OW42646  13.540   0.101  11.798 -0.4394 -0.2008  0.4678
43556SOL    HW142647  13.586   0.185  11.800 -2.3851  1.0342 -1.6054
43556SOL    HW242648  13.607   0.038  11.771  0.4501  1.2130 -0.8152
43557SOL     OW42649   2.534  12.679   4.451  0.0233 -0.3317  0.3959
43557SOL    HW142650   2.461  12.647   4.398 -1.1961  1.1727  1.0470
43557SOL    HW242651   2.508  12.658   4.541 -1.1190  2.7068  0.9213
43558SOL     OW42652   3.583   5.995   7.641  0.0698  0.1580 -0.4153
43558SOL    HW142653   3.561   5.932   7.572 -0.0586  1.1402 -1.2839
43558SOL    HW242654   3.516   6.062   7.635 -0.4076 -0.1225  1.1984
43559SOL     OW42655  12.262   9.069  12.805  0.3464  0.2345 -0.0969
43559SOL    HW142656  12.332   9.005  12.814  1.2771  1.3628  1.0209
43559SOL    HW242657  12.241   9.068  12.711  1.8159 -0.1794 -0.4518
43560SOL     OW42658   8.271   7.298   6.276 -0.4679  0.3203  0.0714
43560SOL    HW142659   8.176   7.294   6.270 -0.7493  2.1122  2.2582
43560SOL    HW242660   8.289   7.368   6.338  2.2821 -0.3291  0.1520
43561SOL     OW42661   7.873  13.005   9.438  0.0853  0.2330 -0.0482
43561SOL    HW142662   7.924  12.932   9.405  0.0965  0.2419 -0.0507
43561SOL    HW242663   7.939  13.070   9.465  0.1294 -0.2877  1.1969
43562SOL     OW42664   2.380   4.949   9.785 -0.0741  0.4837  0.2439
43562SOL    HW142665   2.375   4.978   9.694  1.2739  0.7946  0.2437
43562SOL    HW242666   2.457   4.892   9.788 -1.0041 -0.7801  0.8666
43563SOL     OW42667   1.260   0.965   7.768  0.1232  0.2526  0.7334
43563SOL    HW142668   1.209   1.035   7.727  1.4661  0.9572  0.2016
43563SOL    HW242669   1.346   0.971   7.727  0.9321 -0.2772  2.2768
43564SOL     OW42670   6.653   5.412  12.744  0.9054  0.3467  0.0865
43564SOL    HW142671   6.568   5.382  12.711  1.0368 -2.5573  1.9472
43564SOL    HW242672   6.714   5.392  12.674  0.3461  0.4252 -0.4339
43565SOL     OW42673   9.764   5.091   3.741  0.4807 -0.0306  0.3605
43565SOL    HW142674   9.713   5.149   3.797  1.5795  1.1520  0.2026
43565SOL    HW242675   9.827   5.150   3.698  1.8644 -1.3791  0.4483
43566SOL     OW42676   1.109   1.417  10.383 -0.1978 -0.5481  0.7123
43566SOL    HW142677   1.104   1.506  10.417  1.8541  0.6040 -1.6672
43566SOL    HW242678   1.025   1.404  10.338 -0.3754  0.3426  0.7701
43567SOL     OW42679   6.691  11.962   2.637 -0.3193  0.2947  0.1340
43567SOL    HW142680   6.674  12.056   2.632 -0.8143  0.2203  0.4002
43567SOL    HW242681   6.785  11.954   2.618 -0.2415  0.8553  0.2511
43568SOL     OW42682   6.679   2.371  11.975 -0.4259  0.0752 -0.0546
43568SOL    HW142683   6.649   2.281  11.960 -0.5203  0.2673 -1.1006
43568SOL    HW242684   6.690   2.407  11.887  1.0073  0.6372  0.3370
43569SOL     OW42685   2.151   3.882   2.927  0.1298 -0.2167 -0.3424
43569SOL    HW142686   2.204   3.842   2.858 -1.5702 -0.1899 -1.7520
43569SOL    HW242687   2.196   3.964   2.947  2.2228 -1.5355  0.7078
43570SOL     OW42688   1.348  11.229   2.516  0.2690 -0.0343  1.0549
43570SOL    HW142689   1.388  11.269   2.593  0.2176  1.8344  0.1734
43570SOL    HW242690   1.261  11.269   2.510  0.6396  0.6493 -0.4965
43571SOL     OW42691   3.663   6.023   5.534  0.3332  0.1222 -0.2290
43571SOL    HW142692   3.651   5.995   5.443 -0.9571 -0.5951  0.1323
43571SOL    HW242693   3.720   6.100   5.528  0.0191  0.2795 -1.6763
43572SOL     OW42694   2.674   0.559   7.912 -0.2039  0.1029 -0.0676
43572SOL    HW142695   2.588   0.535   7.947 -0.3397  0.0408 -0.4474
43572SOL    HW242696   2.681   0.513   7.829 -0.4015  1.2175 -0.7257
43573SOL     OW42697   9.727   0.443   6.890  0.0032  0.2822 -0.1435
43573SOL    HW142698   9.691   0.421   6.975  2.1131 -1.8866  0.2831
43573SOL    HW242699   9.658   0.420   6.828 -1.2876  1.2313  0.8766
43574SOL     OW42700   0.010   0.278   8.856 -0.1573  0.1249  0.0336
43574SOL    HW142701   0.104   0.288   8.843 -0.1836  0.2538 -0.0627
43574SOL    HW242702  -0.015   0.353   8.910 -0.2599  0.2717 -0.2162
43575SOL     OW42703   3.218  11.267  10.487  0.1788  0.3005  0.0640
43575SOL    HW142704   3.261  11.342  10.526  1.4062 -0.8780  1.0632
43575SOL    HW242705   3.232  11.195  10.549  1.0385 -1.3135 -1.8507
43576SOL     OW42706   6.169   3.238   9.740 -0.2703 -0.0068 -0.0177
43576SOL    HW142707   6.129   3.217   9.656 -0.7668 -1.7093  0.6152
43576SOL    HW242708   6.184   3.154   9.782  1.3566  0.7301  0.9946
43577SOL     OW42709   8.183   4.240   2.515 -0.0614  0.0536  0.2023
43577SOL    HW142710   8.155   4.239   2.424 -0.5259  2.3038  0.2690
43577SOL    HW242711   8.118   4.186   2.561 -0.6042  0.0267 -0.5784
43578SOL     OW42712   1.871  11.976   6.371  0.2663  0.0680 -0.0407
43578SOL    HW142713   1.839  11.923   6.298  0.6973  0.6835 -0.6916
43578SOL    HW242714   1.801  12.040   6.385 -0.2633 -0.6742  0.7587
43579SOL     OW42715   7.234   8.042  10.679  0.5295 -0.2112 -0.0099
43579SOL    HW142716   7.321   8.001  10.681  0.1580 -1.0280  2.3491
43579SOL    HW242717   7.196   8.022  10.764 -1.8647  0.4367 -0.8523
43580SOL     OW42718  12.808   5.919   8.295 -0.0302 -0.0585  0.2137
43580SOL    HW142719  12.883   5.862   8.313 -0.2240 -0.4628 -0.2341
43580SOL    HW242720  12.847   6.000   8.262  0.2338 -0.0394  0.5603
43581SOL     OW42721  12.050   0.653  11.566 -0.7463 -0.4883 -0.1303
43581SOL    HW142722  11.959   0.656  11.597 -1.4413 -1.4069 -1.9273
43581SOL    HW242723  12.054   0.574  11.511  1.0399 -0.2404 -0.4270
43582SOL     OW42724  11.875  12.712   9.071  0.1389  0.0661  0.9785
43582SOL    HW142725  11.845  12.763   8.996  0.6083  1.7100  1.8602
43582SOL    HW242726  11.818  12.635   9.073  1.7424 -1.4079 -2.5733
43583SOL     OW42727  12.330   6.435  13.150  0.2146 -0.1447 -0.1439
43583SOL    HW142728  12.307   6.482  13.071  1.7494  1.2661  0.1960
43583SOL    HW242729  12.272   6.470  13.217 -0.4134 -0.6382 -0.4167
43584SOL     OW42730  10.783   2.604   8.297  0.5784  0.3783 -0.5064
43584SOL    HW142731  10.748   2.602   8.208  1.0601  0.7882 -0.7155
43584SOL    HW242732  10.754   2.688   8.333 -0.4791 -0.2247  0.0981
43585SOL     OW42733   1.057   0.557  13.894  0.0887 -0.1383  0.2444
43585SOL    HW142734   0.969   0.593  13.896 -0.3723 -1.2387  0.7999
43585SOL    HW242735   1.082   0.559  13.801  0.2084  1.8251  0.2840
43586SOL     OW42736   9.932   4.288   9.939 -0.4013 -0.6238 -1.0296
43586SOL    HW142737   9.882   4.212   9.909 -0.2974 -0.7222 -0.9595
43586SOL    HW242738   9.909   4.296  10.032 -0.3957 -0.5826 -1.0315
43587SOL     OW42739  12.476  11.436   7.858  0.3246  0.4408  0.1733
43587SOL    HW142740  12.528  11.368   7.814  0.1842 -0.5015  1.4006
43587SOL    HW242741  12.507  11.518   7.820  0.6761 -0.2854 -1.1778
43588SOL     OW42742  12.006  10.492   8.401  0.2145 -0.1081  0.3268
43588SOL    HW142743  12.071  10.447   8.455  2.5078  0.4612 -1.7755
43588SOL    HW242744  11.994  10.435   8.326 -0.1362  0.7739 -0.3026
43589SOL     OW42745   1.499   3.734  12.807  0.0748 -0.2629 -0.2769
43589SOL    HW142746   1.583   3.718  12.764  0.6981 -0.9883  1.1610
43589SOL    HW242747   1.487   3.829  12.801  0.6798 -0.2286 -1.0611
43590SOL     OW42748   8.138  12.895   6.263 -0.4008 -0.4578  0.3124
43590SOL    HW142749   8.080  12.966   6.289 -1.2663 -0.7896 -0.6439
43590SOL    HW242750   8.103  12.864   6.180  1.3001 -0.5074 -0.4357
43591SOL     OW42751   9.966  12.954  10.459  0.1330  0.1981  0.2753
43591SOL    HW142752   9.886  12.905  10.477  1.0211 -1.0848  0.8526
43591SOL    HW242753   9.936  13.042  10.435 -1.4770 -0.5151 -0.4262
43592SOL     OW42754   1.838   3.816  11.141  0.0735  0.2213  0.2314
43592SOL    HW142755   1.785   3.834  11.219  0.1883 -0.2452  0.4236
43592SOL    HW242756   1.921   3.783  11.176 -0.1374 -0.6815 -0.0958
43593SOL     OW42757   0.169  10.800  10.305 -0.8003 -0.9595  0.4294
43593SOL    HW142758   0.141  10.712  10.282 -1.1214 -1.1738  1.5795
43593SOL    HW242759   0.087  10.849  10.317 -0.6327 -0.2534 -1.0168
43594SOL     OW42760   7.752  10.937   3.150  0.1718  0.0396 -0.4766
43594SOL    HW142761   7.696  10.960   3.225  0.6614  1.0825 -0.4151
43594SOL    HW242762   7.797  11.018   3.128 -0.1715 -0.1791 -2.0992
43595SOL     OW42763   2.742  10.738   5.077  0.2667 -0.4103  0.9068
43595SOL    HW142764   2.761  10.712   4.987 -1.1695  0.0470  0.4506
43595SOL    HW242765   2.680  10.672   5.108 -0.2965  0.2069  1.1036
43596SOL     OW42766   3.943   5.570   1.483 -0.3354 -0.2974 -0.1499
43596SOL    HW142767   3.865   5.521   1.456 -0.9382 -0.2688  1.4154
43596SOL    HW242768   3.944   5.647   1.427 -2.4113  0.5567  0.8959
43597SOL     OW42769   9.075   4.026  10.133  0.0172  1.0394 -0.1406
43597SOL    HW142770   9.077   3.933  10.158 -2.6434  0.7241 -0.7780
43597SOL    HW242771   9.045   4.071  10.212 -0.3308  1.1362 -0.3284
43598SOL     OW42772   9.189  11.351   5.690  0.6208  0.0474  0.4036
43598SOL    HW142773   9.237  11.322   5.613 -0.5176 -0.4557 -0.1423
43598SOL    HW242774   9.107  11.386   5.656  1.6351  3.5148  1.0583
43599SOL     OW42775   4.374   6.104   8.507 -0.0521 -0.6523  0.3380
43599SOL    HW142776   4.301   6.051   8.539 -0.5504  0.9392  2.0120
43599SOL    HW242777   4.350   6.193   8.531  1.6955  0.0995 -0.5809
43600SOL     OW42778   5.835   4.435   0.581  0.3269 -0.0152 -0.6426
43600SOL    HW142779   5.779   4.379   0.636  0.1412  1.8319  1.1614
43600SOL    HW242780   5.921   4.394   0.586  0.3475  0.1570  1.2149
43601SOL     OW42781   4.947   5.799   7.158  0.1707  0.6693 -0.2557
43601SOL    HW142782   4.912   5.822   7.072  0.7984 -1.2150 -1.0572
43601SOL    HW242783   4.875   5.752   7.201  0.0860  1.0340  0.0098
43602SOL     OW42784   1.139   9.828   3.071 -0.2881  0.7172 -0.0025
43602SOL    HW142785   1.193   9.760   3.110 -0.0307 -0.6129 -2.4612
43602SOL    HW242786   1.183   9.849   2.988 -2.1380  1.4946 -0.8526
43603SOL     OW42787   6.473   2.514   4.022  0.6153  0.3931 -0.8203
43603SOL    HW142788   6.515   2.600   4.010 -0.3542  1.2260  1.2990
43603SOL    HW242789   6.392   2.521   3.971  0.2494  0.9886 -0.1791
43604SOL     OW42790   4.817  11.252  13.210  0.0669 -0.3971 -0.5645
43604SOL    HW142791   4.870  11.176  13.232 -1.0902 -0.7843  1.0812
43604SOL    HW242792   4.735  11.215  13.176 -0.0851  0.1257 -0.7845
43605SOL     OW42793   4.894   6.728   6.597  0.1270  0.1103  0.2648
43605SOL    HW142794   4.965   6.792   6.600  0.1293  0.3554 -2.5891
43605SOL    HW242795   4.934   6.650   6.559 -0.9360  0.0505 -0.7888
43606SOL     OW42796   2.792  10.342  11.598  0.1072 -0.2092  0.1526
43606SOL    HW142797   2.835  10.272  11.548  1.6555 -2.0244  3.6380
43606SOL    HW242798   2.864  10.395  11.633 -0.9771  2.0472 -0.8545
43607SOL     OW42799  12.293   1.682   2.244 -0.2298  0.2844  0.7630
43607SOL    HW142800  12.296   1.619   2.171 -0.1560 -0.9699  1.8083
43607SOL    HW242801  12.383   1.684   2.277 -0.4304  0.2320  1.3159
43608SOL     OW42802   0.404  10.434  11.677  0.2040  0.3474 -0.6775
43608SOL    HW142803   0.457  10.409  11.753  2.4606 -0.7370 -2.4851
43608SOL    HW242804   0.327  10.477  11.715  0.4597 -1.4622  2.2770
43609SOL     OW42805   9.060   5.793   0.830 -0.0797  0.0815 -0.3460
43609SOL    HW142806   9.051   5.854   0.757  0.3887 -0.0202 -0.4986
43609SOL    HW242807   8.983   5.736   0.825  0.5731 -0.7460 -1.5565
43610SOL     OW42808   3.047   4.540  11.377 -0.0877 -0.3915 -0.7228
43610SOL    HW142809   3.098   4.489  11.440 -0.8462 -0.3484 -0.0607
43610SOL    HW242810   3.049   4.488  11.296 -1.0782 -1.6397  0.0137
43611SOL     OW42811  13.458   6.323   9.243  0.2515 -0.7940 -0.1211
43611SOL    HW142812  13.459   6.362   9.330  1.5745 -0.0997 -0.4071
43611SOL    HW242813  13.413   6.240   9.253 -3.1155  0.9532  0.4403
43612SOL     OW42814  10.904   1.097   2.109 -0.5842  0.3944  0.5871
43612SOL    HW142815  10.839   1.058   2.049  2.3218  0.7351 -3.1935
43612SOL    HW242816  10.868   1.183   2.130 -1.3126  0.7464 -1.7103
43613SOL     OW42817   6.459   9.993   2.332 -0.3349 -0.8367 -0.1999
43613SOL    HW142818   6.389  10.057   2.321  0.4907  0.2887  0.8784
43613SOL    HW242819   6.452   9.937   2.255 -2.5843 -0.9310  0.0204
43614SOL     OW42820   2.801   3.825   1.897 -0.0989 -0.1066  0.3583
43614SOL    HW142821   2.783   3.918   1.915  0.6086  0.1201 -0.0241
43614SOL    HW242822   2.895   3.816   1.915  0.0618 -0.4970 -0.5837
43615SOL     OW42823   2.947   2.189   3.887  0.7559 -0.1718 -0.4056
43615SOL    HW142824   2.859   2.220   3.909  0.1364 -1.2710 -1.2309
43615SOL    HW242825   2.978   2.147   3.967  0.8732  0.9319  0.1436
43616SOL     OW42826  11.901   3.865   9.576 -0.2304 -0.3992  0.4097
43616SOL    HW142827  11.861   3.818   9.649  1.2395 -1.3484  0.6522
43616SOL    HW242828  11.916   3.953   9.610 -4.1109  0.7515 -0.4418
43617SOL     OW42829   3.304   3.571  13.600 -0.4551  0.5255 -0.0522
43617SOL    HW142830   3.209   3.575  13.613 -0.5408  0.4544 -0.6483
43617SOL    HW242831   3.324   3.477  13.602 -0.5415  0.4839 -0.9221
43618SOL     OW42832   2.170   7.401   6.159  0.0438 -0.9724 -0.4778
43618SOL    HW142833   2.179   7.367   6.248  1.2866 -0.3808 -0.3556
43618SOL    HW242834   2.096   7.352   6.122  0.3707 -2.1984  0.4190
43619SOL     OW42835   4.227  13.423   0.271 -0.1503 -0.8712 -0.5856
43619SOL    HW142836   4.142  13.460   0.246 -0.6547 -1.3458  0.3613
43619SOL    HW242837   4.205  13.339   0.312  0.7667 -0.9206 -0.1760
43620SOL     OW42838  13.619  13.699   9.653 -0.4411 -0.1088  0.3875
43620SOL    HW142839  13.637  13.693   9.746  0.5113 -0.4242  0.1963
43620SOL    HW242840  13.704  13.683   9.611 -0.0041  3.4436 -0.4448
43621SOL     OW42841   7.661  12.178   7.926 -0.3391 -0.4733 -0.3638
43621SOL    HW142842   7.737  12.202   7.980  0.3207 -0.1841 -1.3821
43621SOL    HW242843   7.669  12.083   7.915 -0.9923 -0.6814  0.7774
43622SOL     OW42844  14.039   5.452   7.940  0.1642  0.1785 -0.3669
43622SOL    HW142845  14.109   5.515   7.918  0.9014 -0.7108 -0.6443
43622SOL    HW242846  13.973   5.505   7.985  0.7529  1.1575 -0.6043
43623SOL     OW42847   6.772   3.183  11.718  0.4701  0.2471  0.0528
43623SOL    HW142848   6.698   3.221  11.670  0.4598 -0.1187 -0.2330
43623SOL    HW242849   6.791   3.102  11.671  1.4149  0.6117 -0.2142
43624SOL     OW42850   6.807   5.220  11.469 -0.8361  0.1014  0.1090
43624SOL    HW142851   6.795   5.127  11.449  0.1795 -0.1514  0.5881
43624SOL    HW242852   6.873   5.250  11.407 -2.2079  0.9042 -1.0319
43625SOL     OW42853   8.738  10.710  10.745 -0.0730 -0.3808 -0.1104
43625SOL    HW142854   8.725  10.801  10.718  1.3525 -0.0211  0.3231
43625SOL    HW242855   8.675  10.697  10.816 -0.0533  0.3649  0.0460
43626SOL     OW42856   4.119   4.676   4.850 -0.1846 -0.7763 -0.3322
43626SOL    HW142857   4.212   4.685   4.826  0.0877 -0.7156  0.6995
43626SOL    HW242858   4.112   4.586   4.883 -0.4656 -0.7341 -0.2747
43627SOL     OW42859   8.188   1.188  13.425  0.7564  0.1665  0.0036
43627SOL    HW142860   8.182   1.185  13.521 -1.1119  0.7095 -0.0529
43627SOL    HW242861   8.140   1.110  13.396  2.8609 -0.9933 -0.4958
43628SOL     OW42862   3.328  10.242   5.716 -0.5081  0.0436 -0.4453
43628SOL    HW142863   3.241  10.202   5.705 -0.4586  0.0450 -0.8789
43628SOL    HW242864   3.316  10.333   5.688 -0.5347  0.2459  0.1984
43629SOL     OW42865   0.041   4.338   0.661 -0.2067 -0.0340  0.5876
43629SOL    HW142866   0.134   4.359   0.656 -0.6669  1.9815 -0.8692
43629SOL    HW242867   0.031   4.294   0.746  2.0625 -0.4758  0.6980
43630SOL     OW42868   9.654   9.860   6.104 -0.1457 -0.1725  0.1738
43630SOL    HW142869   9.593   9.809   6.052  0.0930 -1.2948  0.9604
43630SOL    HW242870   9.611   9.945   6.116 -0.4823 -0.1167 -1.2774
43631SOL     OW42871   4.833   2.785  12.649  0.0101  0.6093 -0.2964
43631SOL    HW142872   4.816   2.854  12.713 -0.9375 -0.1095  0.2452
43631SOL    HW242873   4.788   2.708  12.683  2.0373 -0.6377 -0.2526
43632SOL     OW42874   1.584  14.034   2.176  0.2293 -0.2455  0.3500
43632SOL    HW142875   1.629  14.067   2.099  1.6294 -1.2119  0.7088
43632SOL    HW242876   1.495  14.069   2.169  0.1831 -0.6491 -1.9216
43633SOL     OW42877   3.148   0.853  12.207  0.4039  0.5185 -0.0927
43633SOL    HW142878   3.109   0.903  12.135 -2.7920 -0.8557  0.5450
43633SOL    HW242879   3.164   0.918  12.276 -0.4161  1.2044 -0.5314
43634SOL     OW42880   1.115  13.184   8.229  0.0952  0.4117 -0.3183
43634SOL    HW142881   1.070  13.151   8.307  1.8698 -0.8026  0.2548
43634SOL    HW242882   1.098  13.119   8.161  1.4901 -0.4155  0.0934
43635SOL     OW42883   3.829   6.589   2.841  0.6022 -0.1220  0.1666
43635SOL    HW142884   3.856   6.609   2.751  0.3341 -0.5857 -0.0242
43635SOL    HW242885   3.800   6.673   2.876 -0.1082 -0.0826 -0.4746
43636SOL     OW42886   4.237   3.168   9.468 -0.0208 -0.3927  0.1997
43636SOL    HW142887   4.210   3.135   9.554  1.4312  0.0314  0.8495
43636SOL    HW242888   4.193   3.110   9.405 -0.9640 -0.8234  1.2174
43637SOL     OW42889   8.348   3.722   6.769  0.4669 -0.4125 -0.5194
43637SOL    HW142890   8.397   3.645   6.740 -1.5848 -1.9293 -0.2210
43637SOL    HW242891   8.364   3.726   6.864  1.1154 -0.0398 -0.6387
43638SOL     OW42892   1.187  13.309   7.827  0.0381 -0.1765 -0.1779
43638SOL    HW142893   1.157  13.281   7.740 -1.3750 -0.1464  0.2785
43638SOL    HW242894   1.233  13.232   7.862  0.0944 -0.3907 -0.7117
43639SOL     OW42895   4.711  13.903   4.479 -0.9152  0.0149 -0.2566
43639SOL    HW142896   4.771  13.933   4.547 -0.4222 -1.2438 -0.1254
43639SOL    HW242897   4.657  13.980   4.460 -0.3244  0.7037  0.7542
43640SOL     OW42898   9.196   0.760  10.017  1.3142 -0.1472  0.1452
43640SOL    HW142899   9.130   0.813  10.062  1.1444  0.5584 -0.9162
43640SOL    HW242900   9.254   0.730  10.087  0.1657 -0.3561  1.0280
43641SOL     OW42901  12.365   2.298  12.955  0.0542 -0.4172 -0.1711
43641SOL    HW142902  12.392   2.297  12.864 -0.3946 -0.6441 -0.3058
43641SOL    HW242903  12.314   2.379  12.964  0.2421 -0.3081 -0.0770
43642SOL     OW42904   5.648   7.568  13.298 -0.0068 -0.0428  0.1792
43642SOL    HW142905   5.620   7.656  13.271  0.5603 -0.1006 -0.6522
43642SOL    HW242906   5.737   7.561  13.264  0.7106 -0.1897  1.9683
43643SOL     OW42907  12.576   3.916   8.051 -0.4610  0.1812  0.1013
43643SOL    HW142908  12.504   3.918   8.115  0.0967 -2.5715  0.9394
43643SOL    HW242909  12.542   3.866   7.977 -0.0245  0.5103 -0.3281
43644SOL     OW42910   6.686   1.769   6.307 -0.2871 -0.3064  0.2171
43644SOL    HW142911   6.683   1.695   6.247  0.2363  0.7408 -1.1469
43644SOL    HW242912   6.778   1.778   6.330  0.0757  1.3817 -1.5895
43645SOL     OW42913   2.879   8.731  11.255  0.6096 -0.0922  0.3151
43645SOL    HW142914   2.847   8.815  11.224  0.9419 -0.0728  0.0220
43645SOL    HW242915   2.887   8.741  11.350  0.8186  0.2621  0.2596
43646SOL     OW42916   4.362   4.223  11.637  1.2083  0.0367 -0.0829
43646SOL    HW142917   4.346   4.311  11.671  0.0365 -0.8581  1.8327
43646SOL    HW242918   4.452   4.226  11.604  0.6978  2.3488 -1.5054
43647SOL     OW42919  12.920  11.815  11.865  0.1933  0.4853  0.5572
43647SOL    HW142920  12.887  11.757  11.795 -1.4000  0.2891  1.4163
43647SOL    HW242921  12.944  11.755  11.935  0.8697  0.7384  0.5409
43648SOL     OW42922  10.918   6.713   7.822  0.2949 -0.8667 -0.2327
43648SOL    HW142923  10.889   6.630   7.783 -1.2065 -0.8974  0.8754
43648SOL    HW242924  10.966   6.687   7.900  1.3598 -0.7346 -0.8360
43649SOL     OW42925   4.781  11.856  12.280 -0.1982 -0.0896 -0.4854
43649SOL    HW142926   4.770  11.899  12.195 -0.5501  0.3423 -0.2216
43649SOL    HW242927   4.801  11.765  12.258  1.7276  0.4289 -1.0862
43650SOL     OW42928   1.188  13.372   7.259  0.0393  0.1272 -0.2583
43650SOL    HW142929   1.216  13.430   7.330 -0.7389 -0.3279  0.4498
43650SOL    HW242930   1.259  13.308   7.251 -0.1176 -0.1644  0.5256
43651SOL     OW42931   7.221   1.947   8.080 -0.2226 -0.4841  0.4121
43651SOL    HW142932   7.147   2.006   8.091 -0.2782 -0.5115  0.1884
43651SOL    HW242933   7.188   1.862   8.108 -1.2691 -1.1781 -2.5993
43652SOL     OW42934   9.283   6.508   9.332 -0.2022  0.5688 -0.1570
43652SOL    HW142935   9.374   6.478   9.330 -0.2346  0.4975 -0.5348
43652SOL    HW242936   9.231   6.427   9.325 -0.3103  0.4546  1.5584
43653SOL     OW42937   0.853  11.417  11.454 -0.6030 -0.4893  0.1291
43653SOL    HW142938   0.765  11.452  11.469 -0.3100  0.4225 -0.1651
43653SOL    HW242939   0.865  11.351  11.521 -1.1050  0.1421  0.8549
43654SOL     OW42940   5.513   3.253   5.868  0.0804  0.2635  0.9119
43654SOL    HW142941   5.539   3.171   5.911  0.4553  0.4897  1.1246
43654SOL    HW242942   5.549   3.321   5.925  1.2071  0.5761 -0.1230
43655SOL     OW42943   2.070  11.457   9.364  0.4606  0.6360  0.2072
43655SOL    HW142944   2.099  11.506   9.441 -0.3192 -0.6433  1.3666
43655SOL    HW242945   2.028  11.522   9.308  0.8474  1.5531  0.9504
43656SOL     OW42946  10.475  13.050   5.481  0.2736 -0.9103  0.4649
43656SOL    HW142947  10.550  13.110   5.486  0.1976 -0.8885  1.5281
43656SOL    HW242948  10.493  12.995   5.405  0.7821 -0.1183  0.0074
43657SOL     OW42949   5.819  10.044  13.990 -0.0573  0.4041  0.4524
43657SOL    HW142950   5.785  10.092  14.066  1.1657  0.0710  1.2328
43657SOL    HW242951   5.901  10.089  13.969  0.7608 -0.9127  0.7663
43658SOL     OW42952   6.074  12.839  12.267 -0.1501 -0.0448  0.5267
43658SOL    HW142953   6.033  12.863  12.184  2.8827 -3.4297 -2.3372
43658SOL    HW242954   6.139  12.907  12.283  0.4711 -0.2403 -0.9875
43659SOL     OW42955  12.582   0.963  11.335  0.0459  0.1761  0.4873
43659SOL    HW142956  12.542   0.908  11.268 -0.3213  0.9626  0.0395
43659SOL    HW242957  12.675   0.961  11.316 -0.1890  1.6575 -1.0598
43660SOL     OW42958   5.910   5.936   7.612  0.4732 -0.3756  0.2216
43660SOL    HW142959   5.823   5.966   7.588  1.7007  2.7543 -0.8252
43660SOL    HW242960   5.931   5.984   7.692  2.0306  0.6994 -0.7690
43661SOL     OW42961   0.426  13.549   5.186 -0.1381 -0.1302  0.1422
43661SOL    HW142962   0.499  13.612   5.185 -1.2330  1.3204  2.6701
43661SOL    HW242963   0.350  13.601   5.212 -1.6031 -2.0963  0.0261
43662SOL     OW42964   8.974   5.450  12.327 -0.1780 -0.0445  0.1576
43662SOL    HW142965   9.011   5.373  12.284  1.1327 -0.5334  2.0049
43662SOL    HW242966   8.973   5.427  12.420 -0.0151  2.0512  0.7406
43663SOL     OW42967   9.129  13.469  13.790 -0.2142  0.6312 -0.1914
43663SOL    HW142968   9.205  13.434  13.743 -1.0342 -0.5060 -0.7212
43663SOL    HW242969   9.162  13.489  13.877  0.5747 -0.3933 -0.2306
43664SOL     OW42970  12.448   3.869   1.710 -0.3332  0.4134  0.5379
43664SOL    HW142971  12.469   3.778   1.732 -0.2319  0.1796 -0.5148
43664SOL    HW242972  12.478   3.880   1.620  3.0136  2.4944  1.6878
43665SOL     OW42973   8.898   6.832   1.758  0.6933  0.1760 -0.2117
43665SOL    HW142974   8.942   6.847   1.675  1.9638  0.8263  0.5467
43665SOL    HW242975   8.954   6.875   1.823  1.4300 -2.9189  1.4168
43666SOL     OW42976   0.042   3.446   6.002  0.2665 -0.3321 -0.5324
43666SOL    HW142977   0.121   3.470   5.953 -0.7295  0.5343 -1.7662
43666SOL    HW242978   0.072   3.379   6.064  2.4787  1.6175  0.7079
43667SOL     OW42979   4.345   9.261  12.109 -0.7958 -0.1025 -0.2993
43667SOL    HW142980   4.419   9.233  12.055 -0.7741  0.0315 -0.3387
43667SOL    HW242981   4.358   9.356  12.120 -0.3052 -0.2682  0.6773
43668SOL     OW42982  12.990   2.821   3.772 -0.2701  0.0327 -0.0094
43668SOL    HW142983  13.029   2.792   3.690 -0.1163 -1.0768  0.4363
43668SOL    HW242984  12.942   2.900   3.749  1.1985  0.7362 -0.8139
43669SOL     OW42985   8.567   9.188  12.849 -0.0738 -0.1398 -0.1272
43669SOL    HW142986   8.532   9.116  12.797  0.8641 -0.1497 -0.7632
43669SOL    HW242987   8.649   9.211  12.806  2.0530 -1.7852  2.6983
43670SOL     OW42988   2.577  12.671   5.046 -0.2619 -0.0150 -0.1046
43670SOL    HW142989   2.652  12.614   5.028 -0.3329 -0.3605  0.6495
43670SOL    HW242990   2.614  12.746   5.092 -0.4423 -0.4383  0.7455
43671SOL     OW42991  10.877   2.438  11.560 -0.5479 -0.5703 -0.4414
43671SOL    HW142992  10.855   2.467  11.648  0.2897 -0.7418 -0.1617
43671SOL    HW242993  10.939   2.503  11.528  0.0445 -1.1215 -0.4478
43672SOL     OW42994   3.020  13.616  13.525  0.4582  0.2339  0.6679
43672SOL    HW142995   2.984  13.528  13.520 -0.0358  0.4046  1.1209
43672SOL    HW242996   3.083  13.614  13.597  0.4737  0.2439  0.6550
43673SOL     OW42997  11.679   1.984  11.859  0.3133  0.2628  0.1258
43673SOL    HW142998  11.686   2.034  11.941  0.4998  1.9188 -0.8610
43673SOL    HW242999  11.741   2.026  11.800 -1.1943  0.3519 -1.4805
43674SOL     OW43000   7.234   4.608   4.264 -0.2102 -0.1155 -0.0427
43674SOL    HW143001   7.259   4.518   4.242 -2.8500 -0.9333 -0.0225
43674SOL    HW243002   7.234   4.609   4.360  0.2525  0.0458 -0.0434
43675SOL     OW43003   8.597  13.748   3.844 -0.2042 -0.1247 -0.0326
43675SOL    HW143004   8.687  13.767   3.818 -0.5415 -0.4275 -1.5527
43675SOL    HW243005   8.568  13.826   3.891  0.1585  0.9134 -1.4730
43676SOL     OW43006   3.541   7.841   6.263 -0.2028  0.3999  0.1582
43676SOL    HW143007   3.470   7.904   6.270 -1.0898 -0.4442 -0.9095
43676SOL    HW243008   3.499   7.756   6.273  0.2188 -0.2640 -2.8450
43677SOL     OW43009   1.305   0.686   6.326  0.5748  0.4906 -0.4176
43677SOL    HW143010   1.241   0.743   6.368 -0.1804 -0.4999 -0.1802
43677SOL    HW243011   1.296   0.602   6.371 -0.3163 -0.6386 -2.5471
43678SOL     OW43012  11.544  12.453   6.668 -0.2568  0.1046 -0.5338
43678SOL    HW143013  11.544  12.534   6.717  2.6266 -0.5291  0.6941
43678SOL    HW243014  11.468  12.460   6.610 -1.8256  2.3402  1.5956
43679SOL     OW43015   1.943   8.754   5.333 -0.3744  0.0682  0.1429
43679SOL    HW143016   1.935   8.670   5.287  0.0056  0.9572 -1.6105
43679SOL    HW243017   1.965   8.817   5.265  2.0925  1.1501  1.7948
43680SOL     OW43018   1.355  10.734   1.811 -0.0541  0.0279  0.2007
43680SOL    HW143019   1.378  10.811   1.760 -0.4753 -0.2451 -0.4120
43680SOL    HW243020   1.321  10.671   1.747 -2.6773  0.4590  1.0299
43681SOL     OW43021   5.473   2.415  10.448  0.6181 -0.2583  0.2740
43681SOL    HW143022   5.495   2.388  10.537 -1.7753 -0.5872  0.8457
43681SOL    HW243023   5.513   2.349  10.392 -1.0884 -2.3714  1.3748
43682SOL     OW43024   6.652   8.474   1.123  0.8002  0.0624  0.6294
43682SOL    HW143025   6.591   8.423   1.176 -0.4747  1.3983  0.4751
43682SOL    HW243026   6.714   8.509   1.186  1.3775 -1.1866  0.7992
43683SOL     OW43027   1.114   2.295   6.162  0.6060  0.0765  0.6357
43683SOL    HW143028   1.105   2.257   6.249 -0.1254 -0.6443  0.2653
43683SOL    HW243029   1.111   2.220   6.103 -1.1637  0.7003 -0.1455
43684SOL     OW43030   7.819   0.930   1.549  0.1677  0.2655  0.2769
43684SOL    HW143031   7.799   0.957   1.459 -1.4399  0.0095  0.5160
43684SOL    HW243032   7.847   1.011   1.593  2.7445  0.0713 -0.8568
43685SOL     OW43033   7.697   1.553   5.857  0.3395  0.2328  0.0921
43685SOL    HW143034   7.629   1.498   5.818  0.6878  0.1344 -0.3785
43685SOL    HW243035   7.765   1.559   5.790  0.0482  1.7375 -0.1194
43686SOL     OW43036  12.986  13.695   3.649  0.5809 -0.2413 -0.9724
43686SOL    HW143037  13.025  13.770   3.695 -2.3827  0.8098  0.0860
43686SOL    HW243038  12.992  13.719   3.556  0.6109  0.8140 -0.7123
43687SOL     OW43039   2.351   6.578   6.849 -0.4304  0.1370 -0.3069
43687SOL    HW143040   2.396   6.509   6.802 -1.2590 -0.7146  0.1029
43687SOL    HW243041   2.407   6.655   6.840  0.9232 -0.7877 -0.0949
43688SOL     OW43042   9.555   5.128  11.984  0.0512  0.5966 -0.0083
43688SOL    HW143043   9.638   5.097  12.021  0.3371  1.9476  0.5649
43688SOL    HW243044   9.535   5.066  11.915  1.1492 -0.1997  0.3527
43689SOL     OW43045   6.977   2.735  12.806  0.3921  0.1250 -0.3604
43689SOL    HW143046   7.014   2.733  12.895 -0.6649  0.2701  0.1030
43689SOL    HW243047   6.951   2.644  12.789 -0.3892  0.2893 -0.0799
43690SOL     OW43048   8.546  10.814   9.659  0.0931  0.5666  0.1488
43690SOL    HW143049   8.581  10.800   9.747  0.7825 -1.2603 -0.3627
43690SOL    HW243050   8.585  10.895   9.629  1.3021  0.2606  0.8543
43691SOL     OW43051  13.704   3.427  12.150 -0.0421 -0.4676 -0.1046
43691SOL    HW143052  13.780   3.411  12.093  0.2974 -0.0486  0.2245
43691SOL    HW243053  13.741   3.472  12.226 -0.5471 -0.7171  0.2917
43692SOL     OW43054   1.887   3.865   2.272 -0.0605  0.0711  0.2411
43692SOL    HW143055   1.816   3.802   2.261 -0.2935  0.4122 -0.3268
43692SOL    HW243056   1.925   3.845   2.357 -1.4626  0.4968  0.9971
43693SOL     OW43057  12.476  13.226   8.802  0.0961 -0.6465  0.5015
43693SOL    HW143058  12.511  13.303   8.758  1.4442 -0.6005  1.6098
43693SOL    HW243059  12.463  13.162   8.732 -0.2016  0.2788 -0.3013
43694SOL     OW43060   1.684   6.632  12.583  0.2378  0.3313 -1.0818
43694SOL    HW143061   1.592   6.659  12.581  0.4964  1.3885  0.0383
43694SOL    HW243062   1.710   6.630  12.491 -0.5632  1.2959 -1.3542
43695SOL     OW43063   3.995   5.559   2.620  0.0457 -0.1962 -0.4966
43695SOL    HW143064   4.062   5.548   2.687 -0.1674 -1.2701 -0.4411
43695SOL    HW243065   3.955   5.472   2.611 -0.4367  0.1093 -1.4789
43696SOL     OW43066   9.833   0.858  11.665  0.0216  0.3679 -0.1022
43696SOL    HW143067   9.782   0.826  11.739 -0.1447  1.2289  0.1645
43696SOL    HW243068   9.768   0.892  11.604  0.2600  1.3540  0.1818
43697SOL     OW43069   1.730   5.451   0.155  0.0285 -0.6966  0.9405
43697SOL    HW143070   1.817   5.490   0.159 -0.5495  0.9171 -0.9572
43697SOL    HW243071   1.673   5.515   0.198 -0.6146 -0.4505 -0.2571
43698SOL     OW43072   7.330  11.685   4.272  0.0908 -0.4405  0.0661
43698SOL    HW143073   7.240  11.715   4.286  0.4783 -0.2023  2.6631
43698SOL    HW243074   7.331  11.596   4.306  0.7526 -0.5506 -0.2229
43699SOL     OW43075   7.546  13.200   4.622 -0.8747  0.1614  0.4984
43699SOL    HW143076   7.637  13.219   4.648 -0.9856  2.5927 -0.6067
43699SOL    HW243077   7.555  13.150   4.541 -0.4990  0.1604  0.5357
43700SOL     OW43078   7.858   5.368  11.277 -0.8599  0.1310  0.5351
43700SOL    HW143079   7.909   5.287  11.275 -0.0997  0.5780  1.2478
43700SOL    HW243080   7.843   5.389  11.184  1.1961  0.5688  0.2678
43701SOL     OW43081   3.669   8.580   1.542  0.2759  0.3583  0.5777
43701SOL    HW143082   3.625   8.665   1.545  1.8004  1.1470  1.4978
43701SOL    HW243083   3.745   8.594   1.486  1.0759 -0.1145  1.5212
43702SOL     OW43084  13.933   7.541  10.242 -0.5480 -0.0247  0.8265
43702SOL    HW143085  13.872   7.612  10.264 -0.4076 -0.0827  1.4143
43702SOL    HW243086  13.889   7.461  10.270 -2.4910 -0.6813 -3.3561
43703SOL     OW43087   8.508  11.999   5.205  0.9505 -0.5673  0.2703
43703SOL    HW143088   8.520  12.023   5.113  0.8499 -0.1636  0.3593
43703SOL    HW243089   8.529  12.079   5.253 -0.2964 -0.3786  0.5366
43704SOL     OW43090   0.974  12.533   7.132 -0.3539  0.3052 -0.1441
43704SOL    HW143091   0.933  12.587   7.065  2.0900  2.3999 -0.1049
43704SOL    HW243092   1.045  12.488   7.088  1.5362  2.0125  0.9984
43705SOL     OW43093  13.289   6.433  10.192 -0.4171  0.2120 -0.2557
43705SOL    HW143094  13.299   6.343  10.223 -0.9237 -0.7199 -2.5797
43705SOL    HW243095  13.341   6.485  10.253  0.4688 -1.7387  0.7489
43706SOL     OW43096   0.896   0.729   3.489 -0.2958  0.2502 -0.3612
43706SOL    HW143097   0.894   0.636   3.466  0.2645  0.1806 -0.1328
43706SOL    HW243098   0.847   0.735   3.571  0.2925  0.0521  0.0011
43707SOL     OW43099   5.195  12.419  12.175 -0.3263 -0.4800  0.2164
43707SOL    HW143100   5.144  12.439  12.096 -0.6462  0.9992  0.7673
43707SOL    HW243101   5.277  12.466  12.164  0.1214 -1.2391  0.2416
43708SOL     OW43102  13.726   9.561   9.049 -0.1380 -0.0624 -0.1448
43708SOL    HW143103  13.655   9.523   9.102  0.1336  0.4534  0.6174
43708SOL    HW243104  13.759   9.488   8.997 -0.1630 -0.6878  0.6866
43709SOL     OW43105   1.348  11.539  10.802 -0.2071 -0.0973 -0.2433
43709SOL    HW143106   1.314  11.555  10.714  0.3797  1.5096 -0.2076
43709SOL    HW243107   1.433  11.497  10.787 -0.2077 -0.0267 -0.4480
43710SOL     OW43108  10.097   6.771   2.964  0.2447  0.1794  0.5596
43710SOL    HW143109  10.191   6.783   2.960  0.2485  0.0838  0.3076
43710SOL    HW243110  10.082   6.710   3.036  0.3966 -0.0301  0.4120
43711SOL     OW43111   4.671  10.034  11.518 -0.1242  0.1096  0.0855
43711SOL    HW143112   4.702  10.115  11.479  0.1318 -1.0884 -2.4460
43711SOL    HW243113   4.747   9.997  11.562  0.2706  0.3642 -0.3768
43712SOL     OW43114   4.061  10.667   5.902 -0.2175 -0.0173 -0.1166
43712SOL    HW143115   3.976  10.687   5.864  0.2020  0.8104 -0.6438
43712SOL    HW243116   4.073  10.573   5.885  0.0575  0.3639 -2.2648
43713SOL     OW43117   3.172  10.055   8.489 -0.1975  1.1178  0.0648
43713SOL    HW143118   3.146   9.983   8.432 -1.5650  2.0430 -0.5157
43713SOL    HW243119   3.133  10.034   8.574  1.1015  0.1867  0.4617
43714SOL     OW43120   4.112  13.792   0.589 -0.1564 -0.5888 -0.1845
43714SOL    HW143121   4.103  13.814   0.496 -0.8002  1.9957  0.4004
43714SOL    HW243122   4.205  13.797   0.606  0.0106 -1.4820 -0.7358
43715SOL     OW43123   7.998   3.685   4.309 -0.2038 -0.5003  1.0272
43715SOL    HW143124   7.911   3.722   4.296  0.3839  0.0589 -2.3114
43715SOL    HW243125   8.028   3.722   4.392 -2.1834  1.2589  1.0458
43716SOL     OW43126  13.507   1.379   9.834 -0.5019 -0.8170 -0.2139
43716SOL    HW143127  13.431   1.356   9.781  0.5534 -2.3397 -1.1342
43716SOL    HW243128  13.522   1.302   9.889 -0.2044 -0.1509  0.6549
43717SOL     OW43129   1.684   1.785  10.876 -0.1464 -0.2532  0.1386
43717SOL    HW143130   1.619   1.785  10.946  0.7617  0.8220  1.0267
43717SOL    HW243131   1.764   1.751  10.918  0.0398 -0.9358 -0.7522
43718SOL     OW43132   0.547   4.066   6.229  0.3756  0.7008  0.2656
43718SOL    HW143133   0.532   4.107   6.144  0.4107  1.2728  0.5289
43718SOL    HW243134   0.578   4.138   6.285  1.3491  0.1232  0.4847
43719SOL     OW43135   9.011   4.729   7.938 -0.3060  0.4693  0.3007
43719SOL    HW143136   9.009   4.638   7.907  0.3573  0.2033  0.9968
43719SOL    HW243137   9.097   4.761   7.911 -0.6211  0.9640 -0.1264
43720SOL     OW43138   4.008  11.759   7.031 -0.2492 -0.5565 -0.1238
43720SOL    HW143139   4.047  11.842   7.059  0.9998 -1.0076 -0.4339
43720SOL    HW243140   4.036  11.696   7.097  0.8683 -1.1920 -1.1664
43721SOL     OW43141   8.889  12.992  12.398 -0.5780  0.2648  0.0882
43721SOL    HW143142   8.967  12.952  12.437 -0.1502 -0.0690 -1.0741
43721SOL    HW243143   8.922  13.069  12.352 -1.2567  1.4212  1.4462
43722SOL     OW43144   6.985   1.134   2.623 -0.4306 -0.2853 -0.3515
43722SOL    HW143145   7.065   1.084   2.639  0.3790  1.8093  3.2697
43722SOL    HW243146   6.918   1.089   2.675  0.0708  1.5886  2.0887
43723SOL     OW43147  11.875  10.014   5.855 -0.5403  0.4006  0.1685
43723SOL    HW143148  11.874  10.021   5.760  2.9259 -1.5289 -0.1585
43723SOL    HW243149  11.918  10.094   5.885  1.4335 -0.4541 -0.2377
43724SOL     OW43150   6.099   5.112   5.565 -0.0701  0.5687  0.0487
43724SOL    HW143151   6.109   5.062   5.484  1.2412 -0.6580  0.9289
43724SOL    HW243152   6.042   5.059   5.620 -1.8271  1.8928 -0.4103
43725SOL     OW43153   2.678   6.356   0.028 -0.1996 -0.4869 -0.1553
43725SOL    HW143154   2.585   6.342   0.012  0.0197 -1.2947 -0.7633
43725SOL    HW243155   2.683   6.370   0.123 -1.1329  1.3004 -0.3238
43726SOL     OW43156  11.722  13.194   2.997  0.1363 -0.4922  0.1025
43726SOL    HW143157  11.793  13.247   2.959 -0.3603 -0.4872 -0.8569
43726SOL    HW243158  11.765  13.113   3.024  0.3828 -0.8304 -1.2325
43727SOL     OW43159   4.486  13.529  12.838  0.4222 -0.3654 -0.9437
43727SOL    HW143160   4.399  13.495  12.861  0.0063  0.4525 -1.2360
43727SOL    HW243161   4.491  13.518  12.743  0.3903  0.1286 -1.0048
43728SOL     OW43162   3.603  10.205   2.018  0.2076  0.3909 -0.3350
43728SOL    HW143163   3.656  10.263   2.072 -0.7796  1.2986 -0.3167
43728SOL    HW243164   3.544  10.264   1.970 -0.9183 -0.6052 -0.2063
43729SOL     OW43165  13.288  10.015   4.443  0.8104  0.2953 -0.2423
43729SOL    HW143166  13.331  10.012   4.358  1.2237  0.6391 -0.0453
43729SOL    HW243167  13.306  10.103   4.477  1.1639 -0.0378  0.4624
43730SOL     OW43168  12.348  11.725   8.798 -0.4576 -0.4046 -0.5436
43730SOL    HW143169  12.281  11.702   8.734  0.3960 -0.5129 -1.4306
43730SOL    HW243170  12.374  11.641   8.836 -0.1970 -0.4631 -0.8482
43731SOL     OW43171   6.845  12.892   5.323  0.0300 -0.4920  0.3014
43731SOL    HW143172   6.876  12.870   5.411 -2.5204 -0.6348  1.2307
43731SOL    HW243173   6.840  12.988   5.324 -0.1810 -0.5040  0.3753
43732SOL     OW43174   5.379   6.614   5.926  0.2264  0.5186 -0.2948
43732SOL    HW143175   5.361   6.532   5.973 -1.2004  1.1197  0.2657
43732SOL    HW243176   5.474   6.622   5.926  0.5033 -1.8691 -1.6385
43733SOL     OW43177   0.161   7.536   3.494 -0.2098 -0.4934  0.2111
43733SOL    HW143178   0.186   7.617   3.537 -0.6105 -0.6564  0.7625
43733SOL    HW243179   0.235   7.477   3.508  0.2510 -0.1090 -0.5281
43734SOL     OW43180   9.944  10.726   1.103  0.3427  0.2699  0.1297
43734SOL    HW143181   9.855  10.734   1.138 -0.5518  1.2556 -2.1262
43734SOL    HW243182  10.001  10.735   1.179 -1.3949  2.9796  1.2833
43735SOL     OW43183   8.947  12.388   8.030  0.2427  0.0835  0.1252
43735SOL    HW143184   8.950  12.448   8.105  0.4813  1.1852 -0.7389
43735SOL    HW243185   9.039  12.372   8.009  0.1732  0.0315 -0.1407
43736SOL     OW43186   8.000   7.140   5.291 -0.4606  0.0912  0.2929
43736SOL    HW143187   7.908   7.134   5.317 -0.5343  1.0696  0.3021
43736SOL    HW243188   8.007   7.083   5.214 -1.1063  0.1290  0.1990
43737SOL     OW43189   6.015   7.862   9.207  0.3035  0.2782  0.5634
43737SOL    HW143190   5.963   7.909   9.141  0.8403 -0.3812 -0.3552
43737SOL    HW243191   5.957   7.857   9.283  0.3354  2.6517  0.8037
43738SOL     OW43192   2.598   6.523   7.091 -0.4295 -0.1538 -0.2887
43738SOL    HW143193   2.640   6.525   7.178 -1.1540  1.4930  0.0542
43738SOL    HW243194   2.638   6.448   7.048  2.7496  1.1412  0.1012
43739SOL     OW43195   6.675  10.128  10.572 -0.7002  0.3441  0.5956
43739SOL    HW143196   6.751  10.075  10.597 -1.5577 -0.3812  1.7482
43739SOL    HW243197   6.713  10.211  10.542  0.6432 -0.7115 -0.8030
43740SOL     OW43198  10.271  11.081  11.288 -0.6135 -0.9706  0.0699
43740SOL    HW143199  10.271  11.096  11.194  0.7090  0.8221  0.3211
43740SOL    HW243200  10.325  11.151  11.325 -3.3957  0.1718  2.4428
43741SOL     OW43201   7.741   2.391   9.526 -0.0262  0.3472  0.8262
43741SOL    HW143202   7.753   2.391   9.431  1.0623 -0.3024  0.9478
43741SOL    HW243203   7.732   2.483   9.549  2.2697  0.7272  0.3837
43742SOL     OW43204   6.835   7.717  13.124  0.0947 -0.2925  0.6448
43742SOL    HW143205   6.928   7.697  13.138  0.2852  0.3079  0.2743
43742SOL    HW243206   6.833   7.811  13.106 -0.4080 -0.5586 -0.8811
43743SOL     OW43207   8.861  10.075   4.363 -0.3045  0.3872 -0.0947
43743SOL    HW143208   8.883  10.165   4.338 -0.3671  0.7027  0.9157
43743SOL    HW243209   8.936  10.045   4.413 -1.3039  0.8271  1.8031
43744SOL     OW43210  11.726   6.689   9.219  0.1665  0.3938  0.5058
43744SOL    HW143211  11.774   6.714   9.298  0.6159 -1.3435  0.8147
43744SOL    HW243212  11.737   6.594   9.213  2.7766  0.7353 -3.3806
43745SOL     OW43213  13.689   0.799  10.077 -0.8166 -0.1650 -0.3277
43745SOL    HW143214  13.712   0.715  10.117 -0.9298  0.1688  0.4761
43745SOL    HW243215  13.604   0.783  10.036  0.1142 -1.0019 -2.0481
43746SOL     OW43216   8.564  11.108   5.328  0.3652  0.3705  0.3361
43746SOL    HW143217   8.632  11.080   5.267  1.2898 -1.4598  2.0851
43746SOL    HW243218   8.612  11.145   5.402 -0.6542  1.1361  0.6335
43747SOL     OW43219   9.956  13.916   2.839  0.1367 -0.1235 -0.0593
43747SOL    HW143220  10.020  13.873   2.782 -2.0695 -2.3798 -1.0243
43747SOL    HW243221   9.994  13.910   2.926  2.4028  1.0736 -0.8708
43748SOL     OW43222  11.941   1.539   6.723  0.2197  0.0899 -0.5007
43748SOL    HW143223  12.013   1.558   6.663  0.4875  1.1461  0.1180
43748SOL    HW243224  11.862   1.553   6.671  0.4531 -0.9546 -1.1515
43749SOL     OW43225   8.849   6.119   7.626 -0.2061 -0.4924 -0.3514
43749SOL    HW143226   8.941   6.142   7.639 -0.4542  0.1478  0.3526
43749SOL    HW243227   8.821   6.087   7.712 -0.4259 -1.4787 -0.7786
43750SOL     OW43228   7.578   3.229  12.257  0.4455 -0.2173 -0.1499
43750SOL    HW143229   7.540   3.218  12.169  0.9237  1.2855 -0.5765
43750SOL    HW243230   7.503   3.250  12.313  0.3689  0.6925 -0.5829
43751SOL     OW43231   0.042   6.413   8.641  0.3033  0.3063 -0.4886
43751SOL    HW143232   0.006   6.417   8.730  1.2730  0.8503 -0.1014
43751SOL    HW243233   0.136   6.421   8.654  0.3372  2.7060 -1.7040
43752SOL     OW43234   1.192  13.753   4.721 -0.2568 -0.6497  0.2668
43752SOL    HW143235   1.233  13.839   4.728 -0.3748 -0.6494  1.1625
43752SOL    HW243236   1.216  13.721   4.635  1.2240 -0.4452  0.5793
43753SOL     OW43237  10.984   5.341  12.371  0.3256  0.0733  0.3378
43753SOL    HW143238  10.916   5.402  12.341  0.4479 -0.3761 -0.8941
43753SOL    HW243239  10.935   5.263  12.400  0.3139 -0.6314 -1.4405
43754SOL     OW43240   0.878   5.607   8.279  0.1711  0.5868  0.2171
43754SOL    HW143241   0.971   5.606   8.301  0.3460 -0.0049 -0.5319
43754SOL    HW243242   0.841   5.530   8.324  0.1704  0.4346 -0.0468
43755SOL     OW43243   0.147   5.588  11.983  0.2567  0.1096 -0.5815
43755SOL    HW143244   0.117   5.497  11.990  2.5937 -0.8377 -1.4792
43755SOL    HW243245   0.075   5.635  11.942 -1.1564 -1.2471  0.2546
43756SOL     OW43246  12.657   9.608   2.455 -0.4808  0.0959 -0.1559
43756SOL    HW143247  12.643   9.676   2.389  1.7400  0.7331 -0.0414
43756SOL    HW243248  12.587   9.545   2.439  0.5178 -0.2890 -3.8036
43757SOL     OW43249   6.859   9.419  10.162 -0.6776 -0.1875 -0.5216
43757SOL    HW143250   6.834   9.412  10.254 -0.7569 -0.6149 -0.5733
43757SOL    HW243251   6.776   9.427  10.115 -0.6012  0.8494 -0.4917
43758SOL     OW43252  11.888   4.012   6.169  0.1677  0.3150  0.0777
43758SOL    HW143253  11.915   4.073   6.237  3.9091 -1.3352  0.3234
43758SOL    HW243254  11.961   4.010   6.108 -1.0783 -1.7210 -1.4958
43759SOL     OW43255   3.828   2.673   7.178 -0.1569 -0.4039  0.3962
43759SOL    HW143256   3.740   2.650   7.209  0.6440 -1.0367  2.3667
43759SOL    HW243257   3.817   2.756   7.133 -2.0847 -1.4354 -1.2316
43760SOL     OW43258   4.898   0.652   8.843 -0.3188  0.3445  0.1908
43760SOL    HW143259   4.839   0.724   8.863  0.1624  0.0259  3.4320
43760SOL    HW243260   4.985   0.692   8.841 -0.1028 -0.0136  1.4924
43761SOL     OW43261  10.480   1.313  13.116 -0.0702  0.0523  0.0681
43761SOL    HW143262  10.440   1.392  13.079  0.2016  0.1488 -0.0229
43761SOL    HW243263  10.471   1.324  13.211  3.6801  2.2516  0.3482
43762SOL     OW43264  13.359  13.627  10.292  0.1949 -0.0438 -0.2340
43762SOL    HW143265  13.331  13.573  10.366  0.2867 -1.3516 -1.1273
43762SOL    HW243266  13.324  13.582  10.215 -0.5219  1.6783 -0.9630
43763SOL     OW43267   8.186  13.174   8.808 -0.2086 -0.1098  0.0515
43763SOL    HW143268   8.237  13.221   8.742 -0.3351  0.2130  0.1776
43763SOL    HW243269   8.239  13.097   8.829  0.6163  0.6200  0.7509
43764SOL     OW43270  13.151   8.738   6.494  0.3671 -0.1995 -0.5110
43764SOL    HW143271  13.108   8.684   6.428  0.1884 -0.1581 -0.4298
43764SOL    HW243272  13.244   8.731   6.475  0.3135 -0.1580 -0.7913
43765SOL     OW43273   6.447   5.895   9.172 -0.0480  0.6168 -0.1444
43765SOL    HW143274   6.490   5.823   9.126 -2.3088  0.0066 -1.4506
43765SOL    HW243275   6.423   5.957   9.103 -2.6968  0.1211  0.2439
43766SOL     OW43276   1.066   4.227   3.418  0.2753 -0.0697  0.3719
43766SOL    HW143277   1.082   4.180   3.336 -0.6817  0.7941 -0.3460
43766SOL    HW243278   1.141   4.206   3.473  1.6192  0.3708 -1.2179
43767SOL     OW43279  11.592  11.899  13.162  0.2106 -0.2576  0.7325
43767SOL    HW143280  11.539  11.872  13.087  0.7539 -0.4822  0.4185
43767SOL    HW243281  11.682  11.899  13.129  0.3599  0.6132  1.1145
43768SOL     OW43282   1.502   4.734  13.632  0.4707 -0.4174  0.0337
43768SOL    HW143283   1.434   4.794  13.600  0.0309 -0.8777  0.0803
43768SOL    HW243284   1.464   4.697  13.712  0.8852 -0.4888  0.1954
43769SOL     OW43285   0.093   1.987  13.619 -0.1783  0.4152 -0.3474
43769SOL    HW143286   0.071   2.071  13.659  0.4241 -0.1940  1.3286
43769SOL    HW243287   0.153   2.010  13.548 -0.2900  1.4283 -0.1395
43770SOL     OW43288  10.315   4.603   8.360 -0.4304 -0.1274  0.6054
43770SOL    HW143289  10.264   4.640   8.431 -1.7193  2.3516 -1.4490
43770SOL    HW243290  10.262   4.618   8.282  1.9336 -0.5190 -1.1904
43771SOL     OW43291   9.746   9.185   1.354 -0.3991  0.2098  0.2307
43771SOL    HW143292   9.787   9.149   1.275 -1.0608 -2.2994  0.9400
43771SOL    HW243293   9.679   9.245   1.321 -0.5732 -0.6785 -1.1230
43772SOL     OW43294  10.127   7.978  10.681 -0.5210 -0.1619  0.5706
43772SOL    HW143295  10.178   8.048  10.721 -2.4295  1.7311 -0.0539
43772SOL    HW243296  10.133   7.905  10.742  0.7840  0.8633  1.7302
43773SOL     OW43297   4.484   0.722   0.483 -0.5071 -0.1676  0.4332
43773SOL    HW143298   4.397   0.706   0.519  0.2018 -1.8766  1.5275
43773SOL    HW243299   4.544   0.710   0.557  0.7238  0.1598 -0.4687
43774SOL     OW43300  12.491   1.051  10.379 -0.4448  0.6092 -0.1450
43774SOL    HW143301  12.411   1.103  10.380 -0.7548  0.1783 -0.9338
43774SOL    HW243302  12.489   1.007  10.294  1.1672  1.4095 -0.6266
43775SOL     OW43303  12.592   9.915   8.754 -0.3562  0.1514 -0.0511
43775SOL    HW143304  12.619   9.969   8.829  0.4243 -1.1481  0.6533
43775SOL    HW243305  12.611   9.968   8.678  1.7127  0.3720  0.5566
43776SOL     OW43306   3.387  13.430  11.423 -0.3926 -0.1319 -0.1988
43776SOL    HW143307   3.367  13.386  11.340 -0.6136  0.3642 -0.4067
43776SOL    HW243308   3.305  13.428  11.472 -0.3119 -0.2498 -0.0649
43777SOL     OW43309   8.799   8.082   8.347  0.1614 -0.7832  0.3787
43777SOL    HW143310   8.826   8.163   8.391 -0.9236  0.8522 -1.7507
43777SOL    HW243311   8.879   8.046   8.311  0.4415  0.3701 -0.1987
43778SOL     OW43312  12.716   4.271   0.512 -0.4020 -0.4706 -0.0912
43778SOL    HW143313  12.723   4.353   0.561  1.1374 -0.5643 -0.1032
43778SOL    HW243314  12.665   4.293   0.435  2.6956  1.3982 -1.8301
43779SOL     OW43315  10.218   2.982  12.611 -0.4557 -0.2468 -0.0545
43779SOL    HW143316  10.139   3.034  12.604 -0.3966 -0.0559  0.5843
43779SOL    HW243317  10.198   2.917  12.679  0.8407  1.5685  2.2413
43780SOL     OW43318   8.482   8.597   9.910 -0.0015  0.2458 -0.2945
43780SOL    HW143319   8.415   8.612   9.976 -0.3230 -3.3671  0.4068
43780SOL    HW243320   8.447   8.527   9.855  2.1151  0.0488 -1.5204
43781SOL     OW43321  12.417  13.020   3.547 -0.2351 -0.1996  0.1347
43781SOL    HW143322  12.333  13.040   3.507 -0.4103  1.9659  1.4343
43781SOL    HW243323  12.407  13.045   3.639  1.4961 -0.8989  0.5517
43782SOL     OW43324  10.030   7.978   8.684  0.3526 -0.4350 -0.4638
43782SOL    HW143325   9.966   8.015   8.623  0.9488  1.3047 -0.0760
43782SOL    HW243326  10.080   8.053   8.715  0.3078 -1.2999  1.9107
43783SOL     OW43327   8.360   3.407   6.427  0.1823 -0.3246  0.4349
43783SOL    HW143328   8.362   3.477   6.491  0.9765  1.5501 -1.5181
43783SOL    HW243329   8.317   3.445   6.350 -1.2257 -2.6307 -0.0284
43784SOL     OW43330   2.192   6.832   6.987  0.2528 -0.0274  0.7013
43784SOL    HW143331   2.259   6.778   7.029 -0.3969  0.8812  3.0894
43784SOL    HW243332   2.216   6.922   7.011  0.1501  0.6143 -1.4380
43785SOL     OW43333  10.529  10.400   1.027 -0.5323  0.6626  0.3912
43785SOL    HW143334  10.612  10.361   0.999 -1.0864  0.7382 -1.4288
43785SOL    HW243335  10.555  10.464   1.093  0.6988 -0.3819  0.9785
43786SOL     OW43336   2.844   3.624  11.834  1.2251  0.0135 -0.3593
43786SOL    HW143337   2.813   3.596  11.920  1.6675  0.8940  0.1045
43786SOL    HW243338   2.813   3.557  11.773 -1.3971  0.7116  0.0917
43787SOL     OW43339  12.177   9.531  11.606  0.4378  0.6611 -0.0418
43787SOL    HW143340  12.223   9.521  11.522  2.7152  2.9420  0.7759
43787SOL    HW243341  12.192   9.448  11.652  0.9029  0.1397 -1.1014
43788SOL     OW43342   7.160   0.379   2.677  0.4187  0.1208  0.4391
43788SOL    HW143343   7.089   0.429   2.718 -1.6720 -1.4672 -1.0666
43788SOL    HW243344   7.172   0.304   2.734 -1.9300 -1.6594 -1.2120
43789SOL     OW43345   1.599   8.371   3.470 -0.0658  0.0128  0.0498
43789SOL    HW143346   1.678   8.332   3.507  0.0874 -1.9070 -2.0701
43789SOL    HW243347   1.627   8.456   3.437  1.2404 -0.7707 -0.9587
43790SOL     OW43348   4.799   4.948   0.266 -0.5146  0.5243 -0.6528
43790SOL    HW143349   4.710   4.932   0.237 -1.0677  1.2889  0.5561
43790SOL    HW243350   4.796   5.033   0.308  0.2702 -0.4040  1.4143
43791SOL     OW43351   1.288  13.397  12.016 -0.8284  0.0034 -0.3957
43791SOL    HW143352   1.225  13.337  12.055  0.2338  0.3224  1.9452
43791SOL    HW243353   1.238  13.477  11.999 -1.3936 -0.2566  0.0142
43792SOL     OW43354  11.740   6.848   4.619 -0.1094  0.4638  0.7980
43792SOL    HW143355  11.647   6.856   4.638 -0.2156 -1.7354  1.5280
43792SOL    HW243356  11.778   6.809   4.698  1.3396  0.8669  0.3340
43793SOL     OW43357   0.858  10.971   6.893 -0.4880 -0.2527 -0.4610
43793SOL    HW143358   0.906  11.035   6.841  0.4385 -0.9427 -0.4762
43793SOL    HW243359   0.833  10.903   6.830  2.0499 -1.9230  0.1926
43794SOL     OW43360  13.200  12.944  12.850  0.3815 -0.6169  0.2194
43794SOL    HW143361  13.218  12.852  12.873  0.3782 -1.1250 -1.6179
43794SOL    HW243362  13.280  12.973  12.806  0.7220  0.5737  1.5776
43795SOL     OW43363   7.792  11.024  10.115  0.0410  0.0629 -0.3461
43795SOL    HW143364   7.850  10.999  10.044  1.1006 -0.3905  0.6457
43795SOL    HW243365   7.761  11.111  10.091  3.7716  1.8632  0.5701
43796SOL     OW43366   6.421   4.815   4.098  0.4171 -0.1246 -0.4684
43796SOL    HW143367   6.404   4.909   4.099  0.6377 -0.0915  0.0217
43796SOL    HW243368   6.334   4.775   4.098  0.3045  0.0824 -1.6017
43797SOL     OW43369  13.998   0.570   8.089  0.2179 -0.0521 -0.2455
43797SOL    HW143370  14.011   0.480   8.060 -0.4655  0.0988 -1.0537
43797SOL    HW243371  14.083   0.597   8.122  0.2530 -1.2367  0.7072
43798SOL     OW43372  12.129   2.780  10.175  0.3728  0.3522 -0.4943
43798SOL    HW143373  12.158   2.865  10.209  0.4321  0.5403 -1.0157
43798SOL    HW243374  12.038   2.773  10.203  0.1060  0.9732 -1.1820
43799SOL     OW43375   2.987   2.473   3.196  0.1336 -0.5320  0.1023
43799SOL    HW143376   2.925   2.433   3.136  0.9518 -0.9782 -0.4695
43799SOL    HW243377   3.039   2.532   3.142 -0.8671  1.1596  0.8781
43800SOL     OW43378   4.487  12.474  13.778 -0.5556 -0.3221  0.1831
43800SOL    HW143379   4.443  12.485  13.694  0.2636  1.3745 -0.0595
43800SOL    HW243380   4.545  12.398  13.765  0.5937  0.7533 -1.2751
43801SOL     OW43381   4.145   3.062  11.921  0.0342 -0.7809 -0.4405
43801SOL    HW143382   4.167   3.126  11.854 -1.1151  0.0174 -0.0839
43801SOL    HW243383   4.157   2.977  11.878  0.1089 -0.2968 -1.3962
43802SOL     OW43384   9.431  12.304   3.794 -0.1002  0.2894  0.3221
43802SOL    HW143385   9.371  12.234   3.818  0.0005  0.3643  0.7986
43802SOL    HW243386   9.518  12.265   3.799 -0.1136  0.1162 -0.5953
43803SOL     OW43387   7.732   4.219  13.627 -0.2651 -0.2055  0.0149
43803SOL    HW143388   7.657   4.174  13.666 -1.4305  2.1870  0.7355
43803SOL    HW243389   7.786   4.246  13.701  1.0080 -1.3175 -0.4634
43804SOL     OW43390   9.152  13.099   1.707  0.0250 -0.6436 -0.0006
43804SOL    HW143391   9.163  13.189   1.737 -0.3521 -0.7905  0.6161
43804SOL    HW243392   9.062  13.077   1.732  0.1957 -1.2688  0.0861
43805SOL     OW43393  12.236   5.092   6.207  0.4895  0.2097 -0.2440
43805SOL    HW143394  12.193   5.080   6.123  0.5266 -0.9575 -0.1033
43805SOL    HW243395  12.267   5.005   6.232  2.0406  0.8263  0.1387
43806SOL     OW43396   6.852   5.904   7.055 -0.3212  0.2659  0.0932
43806SOL    HW143397   6.802   5.824   7.037 -0.1957  0.2543 -0.2073
43806SOL    HW243398   6.927   5.875   7.106 -1.2360  0.4400  1.5996
43807SOL     OW43399  12.841   9.757   0.407  0.6194  0.6785  0.2334
43807SOL    HW143400  12.929   9.794   0.405  0.6628  0.6697  1.4394
43807SOL    HW243401  12.852   9.670   0.446  0.0569  0.7604  0.5894
43808SOL     OW43402   7.801  11.919  10.356  0.4787 -0.2639 -0.1560
43808SOL    HW143403   7.807  11.955  10.444 -0.2183  1.4637 -0.7834
43808SOL    HW243404   7.892  11.898  10.333  0.8311  0.5287  0.4699
43809SOL     OW43405  13.886   6.943   5.657 -0.6955  0.1829 -0.2126
43809SOL    HW143406  13.921   7.032   5.651 -1.2619  0.8488  3.6567
43809SOL    HW243407  13.960   6.890   5.683 -0.7554 -0.1230 -0.6598
43810SOL     OW43408  12.186   4.793  13.220 -0.2495  0.7028  0.4729
43810SOL    HW143409  12.167   4.753  13.135  0.3450  0.5117  0.4275
43810SOL    HW243410  12.200   4.719  13.279  0.1182  0.8400  0.5587
43811SOL     OW43411   4.265   6.353   1.671 -0.5874  0.1592  0.2967
43811SOL    HW143412   4.250   6.430   1.726 -0.9806 -0.2048  0.7142
43811SOL    HW243413   4.360   6.340   1.673 -0.4691  0.8991 -0.1573
43812SOL     OW43414  11.566   1.182   9.523 -0.1694 -0.2388  0.0045
43812SOL    HW143415  11.484   1.217   9.560 -0.0652 -1.0089  0.9906
43812SOL    HW243416  11.582   1.102   9.572  0.2074 -1.0828 -1.4443
43813SOL     OW43417   2.735   0.816   7.729  0.0401 -0.0642 -0.6186
43813SOL    HW143418   2.644   0.824   7.701  0.3390  0.6346 -1.4373
43813SOL    HW243419   2.769   0.906   7.728  0.5743 -0.2372  0.2897
43814SOL     OW43420  13.395   0.608  11.225 -0.1475 -0.1775 -0.8644
43814SOL    HW143421  13.400   0.515  11.247  0.5098 -0.0903 -0.6231
43814SOL    HW243422  13.451   0.618  11.149  1.1241  0.2988  0.0914
43815SOL     OW43423  13.415   7.973  10.058  0.3705  0.0066 -0.0604
43815SOL    HW143424  13.509   7.989  10.064  0.4851 -0.5733 -0.2580
43815SOL    HW243425  13.405   7.881  10.083 -0.1600  0.1075  0.1008
43816SOL     OW43426   6.507   4.989   2.830  0.9862 -0.5759 -0.1805
43816SOL    HW143427   6.592   5.002   2.788 -0.1329 -0.6833 -2.6446
43816SOL    HW243428   6.461   5.072   2.816 -0.0908 -1.2734 -0.8449
43817SOL     OW43429   2.787   2.566   2.644 -0.2008 -0.3027 -0.2123
43817SOL    HW143430   2.739   2.623   2.584 -0.3588  0.0361  0.2281
43817SOL    HW243431   2.806   2.488   2.592 -3.3493 -1.5352  0.2467
43818SOL     OW43432  11.875   5.266   3.208  0.4603 -0.1078 -0.5597
43818SOL    HW143433  11.926   5.203   3.157 -0.0841 -1.3351  0.3410
43818SOL    HW243434  11.784   5.239   3.195  0.3115 -0.5478  1.1297
43819SOL     OW43435   4.052   1.491   1.485 -0.4973 -0.1144 -0.2412
43819SOL    HW143436   4.127   1.522   1.433  1.0529 -0.7332  1.5049
43819SOL    HW243437   4.069   1.398   1.497 -0.1655  0.2122  2.2847
43820SOL     OW43438   4.218   0.428  10.954 -0.2826  0.1877 -0.1393
43820SOL    HW143439   4.294   0.439  10.897  0.0225 -2.2999 -0.3033
43820SOL    HW243440   4.144   0.453  10.899  0.1927 -0.1607 -0.9595
43821SOL     OW43441   2.351   4.426  13.350  0.2698  0.1777  0.3347
43821SOL    HW143442   2.400   4.373  13.286  0.3139 -0.5275  0.9431
43821SOL    HW243443   2.261   4.423  13.319 -0.1029 -1.9678  1.4444
43822SOL     OW43444   2.875   5.051   1.079 -0.3599  0.6952 -0.3546
43822SOL    HW143445   2.818   5.100   1.139 -1.9942 -0.1753 -1.1352
43822SOL    HW243446   2.954   5.105   1.072 -0.4509  1.2229  1.9131
43823SOL     OW43447  12.526  13.890  11.609  0.0461 -0.1188  0.6805
43823SOL    HW143448  12.591  13.924  11.547  0.3260 -0.4573  0.7907
43823SOL    HW243449  12.525  13.796  11.594 -0.5888 -0.0954  0.5182
43824SOL     OW43450  12.467   0.683   0.778  0.2504 -0.0588  0.3570
43824SOL    HW143451  12.488   0.745   0.848 -1.8391  0.7600  0.3427
43824SOL    HW243452  12.485   0.597   0.816 -2.4880  0.2256  2.6655
43825SOL     OW43453  11.200   5.895   1.811  0.0733 -0.0677  0.0718
43825SOL    HW143454  11.135   5.943   1.759  1.1498 -0.8924 -2.1564
43825SOL    HW243455  11.259   5.962   1.844 -0.5603  0.4630  0.1473
43826SOL     OW43456   7.608   4.664  13.626 -0.2781  0.3737  0.1112
43826SOL    HW143457   7.618   4.616  13.543  0.5887 -1.0529  0.9989
43826SOL    HW243458   7.554   4.607  13.681  0.4886  0.5574  1.0825
43827SOL     OW43459   9.503  11.863  12.163 -0.3759  0.5324 -0.9236
43827SOL    HW143460   9.527  11.865  12.256 -0.0578  1.6818 -1.0178
43827SOL    HW243461   9.549  11.786  12.129 -1.4211 -0.5874  0.0914
43828SOL     OW43462   1.878   0.009   3.101 -0.0195 -0.1876  0.2774
43828SOL    HW143463   1.852   0.098   3.078  0.6176 -0.2672 -0.8002
43828SOL    HW243464   1.802  -0.045   3.077  0.2275 -0.1334 -0.6483
43829SOL     OW43465  10.809   1.511   9.998 -0.4646 -0.3381 -0.6138
43829SOL    HW143466  10.826   1.420   9.972  0.5093 -0.2609 -0.2773
43829SOL    HW243467  10.735   1.537   9.943 -1.6274 -1.7463  0.2094
43830SOL     OW43468  12.907   3.438  10.920 -0.5588 -0.3363 -0.0348
43830SOL    HW143469  12.847   3.434  10.846 -0.9538  1.4281  0.1535
43830SOL    HW243470  12.853   3.418  10.997 -0.0865 -2.4758 -0.1930
43831SOL     OW43471  10.559  13.387   5.254  0.2669  0.1511  0.3117
43831SOL    HW143472  10.480  13.437   5.235 -0.4409 -0.6533  1.0708
43831SOL    HW243473  10.560  13.318   5.187  0.0532 -0.1363  0.6022
43832SOL     OW43474   6.888   5.778   0.589 -0.0442  0.3997  1.0535
43832SOL    HW143475   6.973   5.817   0.570 -0.9914  1.4664 -1.2808
43832SOL    HW243476   6.860   5.821   0.670  1.1412  0.8534  1.2435
43833SOL     OW43477  11.316   1.408  11.314  0.1902 -0.0165 -0.2697
43833SOL    HW143478  11.233   1.361  11.311  0.4978 -0.5334 -1.0929
43833SOL    HW243479  11.325   1.446  11.227  0.5294  0.5473  0.0060
43834SOL     OW43480   0.803   6.434  10.036 -0.2116 -0.0960  0.1973
43834SOL    HW143481   0.779   6.487  10.111 -4.2213 -0.4041 -0.6527
43834SOL    HW243482   0.805   6.344  10.069  0.5471  0.0050  0.4295
43835SOL     OW43483   6.273  12.920   0.288 -0.1655 -0.2762 -0.3241
43835SOL    HW143484   6.333  12.851   0.318 -0.5298 -0.4502  0.0131
43835SOL    HW243485   6.329  12.997   0.278  0.2628 -0.6362 -0.7747
43836SOL     OW43486  12.995   1.755   7.352  0.4927  0.2304  0.2558
43836SOL    HW143487  12.907   1.791   7.342  0.5933  0.5448  0.5068
43836SOL    HW243488  13.018   1.772   7.443  0.3027 -1.0117  0.5507
43837SOL     OW43489   1.197   7.213  10.048 -0.5193 -0.6402 -0.1478
43837SOL    HW143490   1.283   7.175  10.034  1.1465  2.6561 -0.0099
43837SOL    HW243491   1.177   7.259   9.967 -0.5536  1.3099  0.8967
43838SOL     OW43492   3.682   7.615   3.386  0.2228 -0.2018  0.5445
43838SOL    HW143493   3.592   7.605   3.356  0.1118 -0.0414  0.8133
43838SOL    HW243494   3.675   7.667   3.466  0.4449 -1.1223  1.1823
43839SOL     OW43495   1.690   5.377  10.179 -0.6835 -0.6440 -0.4025
43839SOL    HW143496   1.763   5.423  10.138  2.1366 -2.2362  2.4114
43839SOL    HW243497   1.612   5.422  10.146  1.5830  2.4605 -2.0501
43840SOL     OW43498   5.881   0.866   5.452 -0.0810 -0.1521  0.3486
43840SOL    HW143499   5.930   0.891   5.530  0.1190 -0.7962  0.4329
43840SOL    HW243500   5.805   0.818   5.486 -1.1961  1.4598  0.2685
43841SOL     OW43501   2.187   1.298  10.845  0.6829 -0.4053 -0.8309
43841SOL    HW143502   2.161   1.326  10.757 -0.3153  0.4536 -0.2846
43841SOL    HW243503   2.125   1.343  10.903  1.6339 -0.5873  0.3422
43842SOL     OW43504   5.487   1.794  13.755 -0.0190  0.0887  0.3515
43842SOL    HW143505   5.571   1.818  13.795  0.6488 -3.1778  1.1844
43842SOL    HW243506   5.507   1.777  13.663  0.2499 -0.6342  0.5375
43843SOL     OW43507  13.905   0.496  13.022  0.3291  0.2405  0.6303
43843SOL    HW143508  13.957   0.466  12.947 -0.5352  0.4704 -0.0755
43843SOL    HW243509  13.876   0.415  13.065  0.4480  0.1010  0.4502
43844SOL     OW43510  10.081  10.248   2.722 -0.5753  0.5878 -0.0616
43844SOL    HW143511  10.073  10.301   2.802  1.1238  1.3508 -0.3621
43844SOL    HW243512  10.006  10.275   2.668 -1.5786  0.2755  1.1167
43845SOL     OW43513  10.955   1.363   9.177  0.1558 -0.8288  0.7998
43845SOL    HW143514  10.995   1.410   9.104 -0.4771  0.6835  1.3713
43845SOL    HW243515  10.868   1.340   9.146  0.4729 -1.6801  0.5133
43846SOL     OW43516  12.968   5.062   2.507  0.3076  0.1645 -0.2101
43846SOL    HW143517  12.945   4.992   2.447  0.4709  0.5699 -0.7561
43846SOL    HW243518  12.910   5.050   2.582 -0.6034  0.2507 -0.8863
43847SOL     OW43519   4.673   1.284   5.743  0.5236 -0.0065 -0.0931
43847SOL    HW143520   4.744   1.262   5.683  0.6663 -1.4604  0.5724
43847SOL    HW243521   4.706   1.357   5.794  0.4395  1.1955 -1.6919
43848SOL     OW43522  11.708   1.703   8.075 -0.7228  0.1803  0.0514
43848SOL    HW143523  11.771   1.635   8.052  0.6816  1.8642 -1.3754
43848SOL    HW243524  11.688   1.687   8.167 -0.3540 -2.0506 -0.2094
43849SOL     OW43525   2.675   6.141   6.307 -0.2291 -0.0153 -0.4214
43849SOL    HW143526   2.594   6.170   6.266 -0.2105  0.6918  0.0426
43849SOL    HW243527   2.677   6.046   6.291 -1.0408 -0.0061 -0.6029
43850SOL     OW43528  11.937  13.843   1.637  0.3813  0.8467  0.3876
43850SOL    HW143529  11.987  13.876   1.562 -0.7545  1.1677 -0.2444
43850SOL    HW243530  11.863  13.903   1.646  0.1333  0.4215  1.3541
43851SOL     OW43531   7.614   3.079  13.071  0.1720  0.0909 -0.3356
43851SOL    HW143532   7.643   3.148  13.012 -0.4433 -0.6828 -1.5905
43851SOL    HW243533   7.595   3.004  13.013  0.4868 -1.0185  0.9391
43852SOL     OW43534   8.881  10.601  13.911  0.4937  0.0241 -0.4660
43852SOL    HW143535   8.970  10.621  13.882  0.7643  1.0809  0.9787
43852SOL    HW243536   8.845  10.547  13.841  1.6471  1.0754 -1.9486
43853SOL     OW43537   3.406   8.528   8.327 -0.0349  0.0066  0.7046
43853SOL    HW143538   3.358   8.447   8.314  1.6400 -0.8472 -0.6334
43853SOL    HW243539   3.489   8.501   8.366  0.4574  1.0967  0.4628
43854SOL     OW43540  12.542   0.540   8.446 -0.1370 -0.5116 -0.3507
43854SOL    HW143541  12.530   0.456   8.491 -0.3974 -0.0757  0.4140
43854SOL    HW243542  12.463   0.590   8.467  1.4836  1.2126  2.1200
43855SOL     OW43543   9.904   5.360   5.348  0.2257 -0.2048  0.2751
43855SOL    HW143544   9.906   5.451   5.321  0.8771  0.2436  1.7361
43855SOL    HW243545   9.923   5.311   5.267 -1.9567  0.8037 -0.9251
43856SOL     OW43546   9.503  10.508  11.263 -0.2572  0.0992 -0.1018
43856SOL    HW143547   9.504  10.574  11.333  2.2982  0.2787 -0.2209
43856SOL    HW243548   9.455  10.551  11.192 -0.7505  0.8761  0.6734
43857SOL     OW43549  11.046   1.659   3.564 -0.0227 -0.4278 -0.1456
43857SOL    HW143550  10.992   1.582   3.545  1.2710 -1.3916 -0.0654
43857SOL    HW243551  11.108   1.628   3.631 -0.3389  1.0716  0.8783
43858SOL     OW43552   8.343   4.590  11.788 -0.0458 -0.1066 -0.2188
43858SOL    HW143553   8.332   4.496  11.805 -0.3853 -0.3580 -1.6567
43858SOL    HW243554   8.257   4.628  11.805  0.0255 -0.0930  0.1183
43859SOL     OW43555   8.095  12.523   3.653  0.5325 -0.3364  0.2709
43859SOL    HW143556   8.005  12.547   3.677  0.3101 -1.1935  0.3355
43859SOL    HW243557   8.092  12.507   3.559  0.4134 -1.1608  0.4000
43860SOL     OW43558   8.833   6.199   5.925  0.6518  0.2945  0.3451
43860SOL    HW143559   8.887   6.121   5.938  0.3746  0.2158  1.0736
43860SOL    HW243560   8.774   6.175   5.854  1.3015  0.2435 -0.1951
43861SOL     OW43561  10.493   4.463  13.514 -0.0637 -0.1144  0.1531
43861SOL    HW143562  10.436   4.405  13.565 -0.5703 -2.2201 -2.5082
43861SOL    HW243563  10.529   4.524  13.577 -1.1548 -2.0571  2.8443
43862SOL     OW43564  11.964   5.864  13.319  0.3328 -0.0042  0.6324
43862SOL    HW143565  11.877   5.902  13.329  0.0236 -0.8705  1.3290
43862SOL    HW243566  11.983   5.824  13.404  0.9361 -0.7917  0.1427
43863SOL     OW43567   0.541   1.693   3.231  0.3751  0.5486 -0.3690
43863SOL    HW143568   0.535   1.623   3.296  1.7819 -0.6883 -1.4819
43863SOL    HW243569   0.480   1.666   3.162 -0.1125  1.1641 -0.1879
43864SOL     OW43570   9.843   2.555   4.986  0.0667  0.3411  0.2614
43864SOL    HW143571   9.922   2.565   5.039  1.3247  0.0568 -1.4807
43864SOL    HW243572   9.798   2.639   4.993  0.7730  0.6743  0.8964
43865SOL     OW43573   4.949   5.581  13.592 -0.0104  0.5548  0.1585
43865SOL    HW143574   4.975   5.508  13.536  0.1390  0.7281 -0.0000
43865SOL    HW243575   4.928   5.541  13.677 -0.3744  0.2746 -0.0615
43866SOL     OW43576   8.016   3.971  10.356 -0.1709 -0.4791 -0.4204
43866SOL    HW143577   8.086   3.928  10.406  0.4531  1.0937  0.1588
43866SOL    HW243578   7.951   3.996  10.422 -0.2050  0.0143 -0.6304
43867SOL     OW43579   9.734  10.259   7.489  0.1481 -0.1079  0.1973
43867SOL    HW143580   9.702  10.248   7.579 -0.0284  0.6688  0.2362
43867SOL    HW243581   9.683  10.332   7.454  1.0793  0.4183 -0.1169
43868SOL     OW43582  11.619   6.840   0.625  0.0870 -0.0788  0.5430
43868SOL    HW143583  11.588   6.750   0.622  0.6761 -0.2668 -1.2343
43868SOL    HW243584  11.701   6.836   0.675 -0.8720 -0.1591  2.1733
43869SOL     OW43585   3.498   4.247   7.801 -0.3683  0.0766  0.2858
43869SOL    HW143586   3.413   4.219   7.767 -0.6219  0.9135  0.2038
43869SOL    HW243587   3.507   4.200   7.884 -0.7973 -0.2130  0.1721
43870SOL     OW43588   8.295   2.614  13.401 -0.2117 -0.2361  0.1581
43870SOL    HW143589   8.244   2.691  13.426 -0.5260 -0.4614  0.2100
43870SOL    HW243590   8.257   2.541  13.450 -0.0225 -0.4574 -0.0157
43871SOL     OW43591   0.871   3.078   4.464 -0.2261 -0.0912  0.5255
43871SOL    HW143592   0.878   2.987   4.436 -0.1120  0.1108 -0.1158
43871SOL    HW243593   0.805   3.116   4.406  2.9043  1.4154 -2.4322
43872SOL     OW43594   1.136   1.609   8.793 -0.2310  0.4154 -0.2388
43872SOL    HW143595   1.056   1.594   8.743 -0.9719 -0.4389  1.1552
43872SOL    HW243596   1.173   1.521   8.805 -0.6353  0.4696  1.6049
43873SOL     OW43597   0.572   2.181   3.218  0.4777  0.4937 -0.7171
43873SOL    HW143598   0.653   2.164   3.169  0.7091  0.3012 -0.2703
43873SOL    HW243599   0.569   2.112   3.284  0.2639  0.8606 -0.3375
43874SOL     OW43600   3.776   2.170   4.167 -0.4795 -0.1793 -0.0906
43874SOL    HW143601   3.823   2.247   4.199 -0.9407  1.2571 -2.6120
43874SOL    HW243602   3.761   2.188   4.074 -1.0894 -3.1018 -0.6503
43875SOL     OW43603   2.763  11.093   8.709 -0.4936  0.4137  0.1204
43875SOL    HW143604   2.712  11.014   8.692  0.0953 -0.3910  1.7970
43875SOL    HW243605   2.750  11.110   8.802 -0.3040  2.0926 -0.1372
43876SOL     OW43606  12.854   4.463  11.670 -0.5497 -0.8371 -0.0754
43876SOL    HW143607  12.942   4.498  11.678  0.4350 -3.0045 -0.8470
43876SOL    HW243608  12.842   4.409  11.747 -1.2546 -0.5081  0.0598
43877SOL     OW43609  11.865   9.295   2.423 -0.5471 -0.6302 -0.4454
43877SOL    HW143610  11.898   9.213   2.386 -1.8233 -1.2625 -0.2256
43877SOL    HW243611  11.850   9.351   2.347  1.1821 -0.2355 -0.5445
43878SOL     OW43612  13.377   3.541   5.051  0.2815  0.3229 -0.4368
43878SOL    HW143613  13.454   3.486   5.039  0.0424  0.3304 -2.2531
43878SOL    HW243614  13.303   3.483   5.037 -0.1018  0.2708  1.4859
43879SOL     OW43615   4.547   6.726   7.153  0.0847  0.7617 -0.1958
43879SOL    HW143616   4.637   6.714   7.123  0.1583  1.5852 -0.3327
43879SOL    HW243617   4.500   6.648   7.122  1.0555 -0.3908  1.1395
43880SOL     OW43618   4.068   6.735   0.124  0.3737  0.2295 -0.3566
43880SOL    HW143619   3.999   6.670   0.105 -2.0084  2.0264  1.4656
43880SOL    HW243620   4.141   6.683   0.158 -0.9416 -1.6079 -0.2001
43881SOL     OW43621   5.585   5.038  10.392 -0.1146  0.2016 -0.2628
43881SOL    HW143622   5.618   5.098  10.325 -0.6145  2.0068  1.0140
43881SOL    HW243623   5.493   5.026  10.369  0.0813 -0.4210 -0.7445
43882SOL     OW43624   3.545   2.714   6.186  0.2999  0.5370  0.1715
43882SOL    HW143625   3.477   2.659   6.225 -0.0139  0.9070  0.1492
43882SOL    HW243626   3.626   2.667   6.203  0.0885  0.3249  0.6181
43883SOL     OW43627   3.209  13.580  12.942  0.2046  0.5897 -0.2006
43883SOL    HW143628   3.122  13.565  12.906  0.0666 -0.7093  0.5995
43883SOL    HW243629   3.195  13.589  13.036  0.8337  1.3833 -0.1713
43884SOL     OW43630   9.032   2.748   5.066  0.5708 -0.1725  0.1087
43884SOL    HW143631   9.029   2.767   5.160 -1.6158  1.9624 -0.2795
43884SOL    HW243632   9.094   2.812   5.031 -0.3875  0.6403 -0.1516
43885SOL     OW43633   5.814   3.682   0.815 -0.4697 -0.5164  0.3668
43885SOL    HW143634   5.811   3.591   0.846 -0.9555 -0.3742  0.7563
43885SOL    HW243635   5.730   3.719   0.842  0.5088  0.6341  2.0254
43886SOL     OW43636   3.556   9.150  10.882 -0.3383 -0.0123  0.9878
43886SOL    HW143637   3.591   9.145  10.971 -0.3168 -1.9873  0.9115
43886SOL    HW243638   3.561   9.060  10.849  0.0316  0.7499 -1.1724
43887SOL     OW43639   4.114   1.870  13.053  0.1434  0.2050 -0.7844
43887SOL    HW143640   4.142   1.792  13.007 -0.2710 -0.1143 -0.5065
43887SOL    HW243641   4.048   1.909  12.996 -0.4312 -0.2359 -0.4353
43888SOL     OW43642  11.141   0.727   3.032  0.0597  0.2204 -0.0839
43888SOL    HW143643  11.205   0.683   2.977  0.0176 -0.2103  0.2051
43888SOL    HW243644  11.172   0.711   3.122 -1.2917 -1.3162  0.1350
43889SOL     OW43645  10.572  12.299   9.657  0.4086  0.1558 -0.7223
43889SOL    HW143646  10.480  12.320   9.672  0.1289 -1.0660 -0.6628
43889SOL    HW243647  10.619  12.355   9.718 -0.2188  1.5805 -1.4986
43890SOL     OW43648  13.663   7.016   7.169  0.1109  0.0954 -0.0850
43890SOL    HW143649  13.652   7.018   7.264 -0.0658 -2.0972 -0.0190
43890SOL    HW243650  13.575   7.036   7.135 -0.3476 -1.2759  0.2542
43891SOL     OW43651  12.639   7.118  12.208 -0.5754  0.3804 -0.6306
43891SOL    HW143652  12.717   7.116  12.263  0.1468  0.1883 -1.6228
43891SOL    HW243653  12.636   7.031  12.168 -0.9676  0.5806 -1.0377
43892SOL     OW43654   6.849   5.084  12.972 -0.3199  0.0779  0.7284
43892SOL    HW143655   6.754   5.080  12.959 -0.3506  1.7117  0.3137
43892SOL    HW243656   6.874   5.172  12.944  1.3271 -0.3214  0.8442
43893SOL     OW43657  11.520   8.754   1.179  0.2700  0.2179 -0.0915
43893SOL    HW143658  11.461   8.829   1.176  0.1785  0.1008 -1.4078
43893SOL    HW243659  11.463   8.678   1.188  0.4048  0.3359  3.0263
43894SOL     OW43660   6.730   6.508   0.055 -0.0340  0.2194 -0.1015
43894SOL    HW143661   6.707   6.537   0.142  2.6902  0.6811  0.5581
43894SOL    HW243662   6.730   6.412   0.061 -1.5355  0.2031 -0.1158
43895SOL     OW43663   8.200   6.984   1.764 -0.0824 -0.3649 -0.4812
43895SOL    HW143664   8.199   6.890   1.783 -1.2564 -0.3143 -0.2153
43895SOL    HW243665   8.291   7.010   1.776  0.3836 -1.5930 -1.1765
43896SOL     OW43666  10.259  13.017   5.637  0.2956 -0.5202  0.6779
43896SOL    HW143667  10.202  12.946   5.606 -0.1708  0.1502 -0.0164
43896SOL    HW243668  10.340  13.005   5.588  0.3848 -0.8437  0.8985
43897SOL     OW43669   7.972   5.802   1.255  0.1906  0.1836 -0.1632
43897SOL    HW143670   7.894   5.834   1.301  1.2572  2.5900  0.1266
43897SOL    HW243671   7.958   5.708   1.246 -1.4624  0.0915  2.3576
43898SOL     OW43672  10.914   3.138   0.558 -0.4028 -0.2036  0.1187
43898SOL    HW143673  10.943   3.214   0.508  2.1450 -1.1376  0.0112
43898SOL    HW243674  10.981   3.071   0.542 -1.6307 -1.9051  1.5722
43899SOL     OW43675  11.033  10.481   4.597  0.3315 -0.8187 -0.0230
43899SOL    HW143676  11.098  10.532   4.645  0.4340 -0.6123 -0.3741
43899SOL    HW243677  11.041  10.512   4.506 -2.0073  1.0788  0.3283
43900SOL     OW43678   1.651   6.930   2.302  0.3738 -0.3360  0.2685
43900SOL    HW143679   1.632   6.860   2.240 -0.9960 -0.6637  1.0254
43900SOL    HW243680   1.665   6.885   2.385  2.2830  0.0929  0.2107
43901SOL     OW43681   7.799   9.820  13.632  0.0868 -0.1569 -0.0229
43901SOL    HW143682   7.747   9.787  13.558  1.3891 -0.8748 -0.6499
43901SOL    HW243683   7.818   9.743  13.685  1.3884 -0.1054 -0.3734
43902SOL     OW43684   8.513   5.606  13.365 -0.0954 -0.1431 -0.1529
43902SOL    HW143685   8.558   5.654  13.296  0.0414 -1.9339 -1.3879
43902SOL    HW243686   8.550   5.639  13.447 -0.1838  1.9627 -0.9030
43903SOL     OW43687   2.470  10.514   9.569 -0.0336  0.2859  0.2320
43903SOL    HW143688   2.438  10.585   9.624  2.2935  1.0677  0.6769
43903SOL    HW243689   2.473  10.438   9.628  0.6473  0.6557  0.6818
43904SOL     OW43690  12.267   1.409  10.689  0.3439  0.7678 -0.6557
43904SOL    HW143691  12.254   1.439  10.779 -2.1463 -2.0170  0.1083
43904SOL    HW243692  12.350   1.361  10.691  0.0579  0.2812  0.3458
43905SOL     OW43693  10.420  12.861   1.099 -0.1174 -0.4490 -0.3906
43905SOL    HW143694  10.350  12.827   1.154 -0.6471 -0.0519 -0.8032
43905SOL    HW243695  10.376  12.891   1.020  0.4618  0.2170 -0.4732
43906SOL     OW43696   5.486  11.206   0.476 -0.0721  0.1286  0.4372
43906SOL    HW143697   5.421  11.146   0.513  0.2989 -1.0342 -0.7168
43906SOL    HW243698   5.435  11.266   0.421 -0.2906 -0.0716  0.4203
43907SOL     OW43699  11.711   1.196   3.479 -0.0524 -0.8289 -0.3226
43907SOL    HW143700  11.622   1.163   3.472 -0.3671 -0.1235  0.2279
43907SOL    HW243701  11.732   1.190   3.573 -0.2978  0.9262 -0.1181
43908SOL     OW43702   9.367  12.459  10.688  0.4942 -0.3858 -0.0113
43908SOL    HW143703   9.324  12.543  10.670 -0.4315 -0.8971 -0.2621
43908SOL    HW243704   9.409  12.471  10.773  1.1332  0.6170 -0.4453
43909SOL     OW43705   6.655   1.342  11.279  0.4372  0.2486  0.1278
43909SOL    HW143706   6.594   1.416  11.284  0.6397  0.3693  0.9288
43909SOL    HW243707   6.740   1.382  11.258  0.6170  0.2859  0.9085
43910SOL     OW43708   7.201   0.605   3.570 -0.2750  0.1473  0.4729
43910SOL    HW143709   7.212   0.510   3.560  2.3750  0.5204 -1.3116
43910SOL    HW243710   7.115   0.623   3.533 -0.7008 -1.5063  0.5547
43911SOL     OW43711   6.525   5.422  11.143 -0.3449  0.2065 -0.1815
43911SOL    HW143712   6.597   5.422  11.079  0.9148  2.1901  1.0932
43911SOL    HW243713   6.481   5.338  11.130  0.1438  0.3204 -3.2746
43912SOL     OW43714  13.329   7.378   2.395  0.5729 -0.5188 -0.1531
43912SOL    HW143715  13.258   7.352   2.337  0.2065  0.2934 -0.0854
43912SOL    HW243716  13.345   7.470   2.373  2.3422 -0.9560 -0.9285
43913SOL     OW43717  10.523  11.885   8.009 -0.0216 -0.0670  0.0221
43913SOL    HW143718  10.452  11.869   8.071 -0.5461  1.2606 -0.2055
43913SOL    HW243719  10.546  11.977   8.021  1.7467 -0.4830  0.1498
43914SOL     OW43720   0.518   9.012  13.536 -0.1193 -0.2387 -0.1879
43914SOL    HW143721   0.573   8.972  13.468 -0.1987 -0.2153 -0.2664
43914SOL    HW243722   0.436   9.031  13.491 -0.1933 -0.2783 -0.0698
43915SOL     OW43723   7.560   7.794   4.028 -0.1041  0.2081  0.7580
43915SOL    HW143724   7.505   7.869   4.007  0.3046  0.3301  0.1017
43915SOL    HW243725   7.639   7.832   4.066  0.5948  0.1988 -0.6287
43916SOL     OW43726  13.103   6.622  12.883  0.1744  0.4627  0.0218
43916SOL    HW143727  13.095   6.598  12.975  1.0339 -0.8831 -0.2229
43916SOL    HW243728  13.020   6.596  12.844  0.7275 -1.3704 -0.0401
43917SOL     OW43729   0.819   1.462  12.293 -0.1282 -0.0169 -0.3065
43917SOL    HW143730   0.731   1.475  12.328  0.0263  0.7525 -0.1881
43917SOL    HW243731   0.812   1.383  12.239 -0.6175 -0.6141  0.6004
43918SOL     OW43732  11.849   0.195   0.034 -0.2366  0.3515 -0.0055
43918SOL    HW143733  11.822   0.234  -0.049  0.4977 -2.5035 -1.7000
43918SOL    HW243734  11.773   0.146   0.064 -0.3693  1.0492  0.8364
43919SOL     OW43735   0.067   0.672   9.892  0.0189  0.2999 -0.0306
43919SOL    HW143736  -0.028   0.676   9.876  0.1467  0.3591 -0.8490
43919SOL    HW243737   0.104   0.642   9.809  0.6711 -0.3702  0.4880
43920SOL     OW43738  12.945  13.354   4.216  0.7581 -0.7033 -0.2646
43920SOL    HW143739  13.034  13.380   4.238  0.3365  1.4470 -0.8491
43920SOL    HW243740  12.893  13.374   4.294  0.8794 -2.9344  0.4737
43921SOL     OW43741   2.152   6.517   2.555  0.2445  0.4576  0.0951
43921SOL    HW143742   2.082   6.485   2.611  0.8107 -1.0687 -0.0320
43921SOL    HW243743   2.183   6.440   2.508  2.2264  1.0214  0.3728
43922SOL     OW43744  13.391   5.340   3.011  0.1750  0.0424  0.3766
43922SOL    HW143745  13.328   5.341   3.083 -0.4998  1.1686 -0.2115
43922SOL    HW243746  13.346   5.295   2.940  1.0439 -1.5739  0.7956
43923SOL     OW43747   6.664  13.527  12.281 -0.3994 -0.0745 -0.3311
43923SOL    HW143748   6.622  13.442  12.297 -0.7078  0.1016 -0.1977
43923SOL    HW243749   6.647  13.546  12.189  0.5341 -0.6264 -0.6274
43924SOL     OW43750   5.918   7.091   5.497 -0.2054  0.0031 -0.4397
43924SOL    HW143751   5.975   7.117   5.569 -1.9379  2.0435  0.2871
43924SOL    HW243752   5.937   7.154   5.428  0.9384 -1.5196 -1.5997
43925SOL     OW43753  10.865   0.864   6.337 -0.2046  0.3470  0.1865
43925SOL    HW143754  10.784   0.831   6.299  0.1971 -0.7878  0.2750
43925SOL    HW243755  10.838   0.916   6.413 -0.7568 -1.8918  1.5866
43926SOL     OW43756   2.070   7.554  12.955  0.2317  0.1225 -0.1187
43926SOL    HW143757   1.993   7.583  13.004 -0.1678 -1.1518  0.0391
43926SOL    HW243758   2.141   7.557  13.020  0.1333  0.4332 -0.0236
43927SOL     OW43759   6.601   7.151   9.435 -0.1779  0.1111  0.4207
43927SOL    HW143760   6.648   7.205   9.498 -0.4151  0.5442  0.2331
43927SOL    HW243761   6.509   7.165   9.455 -0.3316  1.7736 -1.2289
43928SOL     OW43762   2.726  10.077  12.476 -0.8298  0.2311 -0.2237
43928SOL    HW143763   2.728  10.065  12.381 -1.4777  0.4640 -0.2738
43928SOL    HW243764   2.687   9.997  12.510 -0.2650 -0.0033 -0.1213
43929SOL     OW43765   6.079  12.209   7.580 -0.6193  0.3123 -0.1115
43929SOL    HW143766   6.100  12.299   7.555 -1.3625  0.5335  0.0348
43929SOL    HW243767   6.087  12.208   7.676  1.2857 -0.2882 -0.2367
43930SOL     OW43768  12.241  11.135   4.546 -0.2776 -0.2872 -0.4724
43930SOL    HW143769  12.146  11.123   4.558 -0.3325  0.1117 -0.5028
43930SOL    HW243770  12.249  11.170   4.457 -0.0527 -0.9443 -0.7167
43931SOL     OW43771   9.914  13.225   1.877  0.2745 -0.5526  0.3707
43931SOL    HW143772   9.869  13.181   1.949  0.4435  0.2202  0.9492
43931SOL    HW243773   9.979  13.281   1.918 -1.4349  2.0062 -0.1699
43932SOL     OW43774   1.736   5.638   9.939  0.2636  0.6891 -0.1797
43932SOL    HW143775   1.794   5.575   9.982  1.2747 -0.1036 -2.5878
43932SOL    HW243776   1.794   5.707   9.909 -0.6139  1.9155  0.8333
43933SOL     OW43777   4.631   9.958   8.145  0.4806 -0.4922 -0.4464
43933SOL    HW143778   4.610  10.048   8.169  1.7814 -0.5672  1.1425
43933SOL    HW243779   4.569   9.904   8.194  0.2605 -0.5091 -0.7363
43934SOL     OW43780   3.699   3.944   3.265 -0.3269 -0.1305 -0.0141
43934SOL    HW143781   3.651   3.976   3.188  0.7050  0.5530 -0.3969
43934SOL    HW243782   3.785   3.986   3.258 -0.2582  0.0503  1.5854
43935SOL     OW43783   6.486   7.809   3.996 -0.2097  0.1664 -0.1111
43935SOL    HW143784   6.546   7.747   3.954  0.6967  0.0934  1.2106
43935SOL    HW243785   6.528   7.894   3.982 -0.0327  0.1671  0.4035
43936SOL     OW43786   3.798   5.345  13.881 -0.7542 -0.0457 -0.0839
43936SOL    HW143787   3.804   5.362  13.787 -0.7467 -2.8631 -0.7004
43936SOL    HW243788   3.863   5.403  13.920 -1.0470  1.4778 -1.7567
43937SOL     OW43789   7.572   7.398   0.933  0.1051  0.1030 -0.6622
43937SOL    HW143790   7.535   7.315   0.903  2.2078 -0.8395 -0.8440
43937SOL    HW243791   7.663   7.395   0.903  0.4711  2.0877  0.1247
43938SOL     OW43792   5.376   8.625   3.786  0.4414 -0.0075  0.5126
43938SOL    HW143793   5.459   8.583   3.808  0.5954 -0.0885 -0.2064
43938SOL    HW243794   5.357   8.596   3.697 -2.3155 -3.2062  1.9175
43939SOL     OW43795  13.527   6.355   0.770 -0.7905  0.0958 -0.8513
43939SOL    HW143796  13.511   6.417   0.840  1.3231  0.1543 -0.3696
43939SOL    HW243797  13.582   6.402   0.707 -0.0721 -0.9134 -1.0159
43940SOL     OW43798   1.461   4.843   7.974 -0.1961 -0.5386 -0.2952
43940SOL    HW143799   1.501   4.929   7.970 -0.8638 -0.2484 -1.0707
43940SOL    HW243800   1.531   4.784   8.002  0.6138  0.0440 -1.0870
43941SOL     OW43801   6.507  12.825  13.836  0.6946  0.1259 -0.1359
43941SOL    HW143802   6.514  12.782  13.920  0.3940 -0.0131 -0.1812
43941SOL    HW243803   6.467  12.760  13.778 -0.6483  0.7600  0.0325
43942SOL     OW43804   4.585   1.650  11.408 -0.0900  0.0593  0.4850
43942SOL    HW143805   4.623   1.713  11.346  0.8481  2.5061  3.3254
43942SOL    HW243806   4.660   1.604  11.445 -0.4700 -0.0300  1.1505
43943SOL     OW43807   2.204   8.191   4.245  0.2142 -0.5632  0.1967
43943SOL    HW143808   2.113   8.184   4.217 -0.2491 -0.2884  1.5603
43943SOL    HW243809   2.247   8.239   4.174 -1.4451  2.2910  0.9609
43944SOL     OW43810  12.452  11.088  10.480 -0.0871 -0.0942 -0.2699
43944SOL    HW143811  12.392  11.046  10.419  1.3788 -1.7641 -0.6309
43944SOL    HW243812  12.411  11.077  10.566 -1.7582  1.5459 -0.8057
43945SOL     OW43813   7.853  11.824   9.659 -0.1985  0.2249  0.2451
43945SOL    HW143814   7.811  11.872   9.588  0.0619  1.9026  1.1768
43945SOL    HW243815   7.941  11.805   9.626 -0.3649  0.2251 -0.2069
43946SOL     OW43816   7.779   0.093   9.860  0.9160  0.2426 -0.2611
43946SOL    HW143817   7.728   0.026   9.905  0.7482  0.3580 -0.2781
43946SOL    HW243818   7.819   0.144   9.930  1.4348 -0.1675 -0.2468
43947SOL     OW43819   8.324   6.227  10.525 -1.0748  0.1108  0.5146
43947SOL    HW143820   8.261   6.174  10.573  1.3801 -2.4055  1.2581
43947SOL    HW243821   8.381   6.263  10.593  0.0524 -0.2025 -0.2288
43948SOL     OW43822   1.174  11.008   6.303 -0.0197 -0.5457  0.0809
43948SOL    HW143823   1.092  11.057   6.294 -0.5141 -1.0047  1.6023
43948SOL    HW243824   1.234  11.050   6.243 -0.9731  0.7245 -0.0331
43949SOL     OW43825   5.596   1.705   7.621 -0.6301  0.2725  0.1249
43949SOL    HW143826   5.670   1.740   7.570 -0.5865 -0.8496 -0.6087
43949SOL    HW243827   5.637   1.650   7.687 -0.7973 -0.2604 -0.2115
43950SOL     OW43828  13.248   8.263  11.856 -0.4238  0.6555  0.5767
43950SOL    HW143829  13.205   8.179  11.873  0.7939 -0.2541 -0.6541
43950SOL    HW243830  13.331   8.259  11.904  0.1588  0.6619 -0.3925
43951SOL     OW43831   3.970   1.988  13.715 -0.2203 -0.1360  0.4873
43951SOL    HW143832   3.929   1.943  13.641  0.7379 -1.5969  0.8246
43951SOL    HW243833   3.906   1.980  13.786 -0.2097 -0.6514  0.4424
43952SOL     OW43834   2.979  10.640  11.937  0.3417  0.0777 -0.1274
43952SOL    HW143835   2.929  10.656  12.017  1.0785  0.6917  0.2222
43952SOL    HW243836   2.955  10.551  11.911  0.0431 -0.1015  0.7350
43953SOL     OW43837   7.622  11.632   0.974  0.3348  0.2283  0.2225
43953SOL    HW143838   7.538  11.668   0.944 -0.9510 -2.1342  0.7704
43953SOL    HW243839   7.625  11.652   1.067 -0.5692 -1.2937  0.6136
43954SOL     OW43840  11.018   4.683   3.031  0.0769  0.1048  0.1478
43954SOL    HW143841  11.009   4.765   3.079 -0.2567 -0.2972  0.7982
43954SOL    HW243842  10.933   4.639   3.042  0.4104 -0.5390  0.2175
43955SOL     OW43843   0.388   4.343  12.478 -0.3763 -0.3416 -0.0092
43955SOL    HW143844   0.328   4.338  12.552  1.1198 -0.4898  1.2453
43955SOL    HW243845   0.356   4.277  12.417 -3.4050  1.7877 -0.9393
43956SOL     OW43846  11.752   2.143   1.440 -0.7598  0.0575  0.2752
43956SOL    HW143847  11.680   2.205   1.431  0.0079  0.6584 -3.4397
43956SOL    HW243848  11.746   2.088   1.362 -0.5836 -3.7830  2.7193
43957SOL     OW43849   7.248   0.043   6.162  0.6595 -0.2243 -0.1010
43957SOL    HW143850   7.299   0.109   6.115 -0.4619  0.2838 -0.6435
43957SOL    HW243851   7.271   0.056   6.254 -0.5121  1.8427 -0.0415
43958SOL     OW43852  12.620   5.862  10.601  0.0446 -0.4553  0.4745
43958SOL    HW143853  12.580   5.947  10.618  1.4925  0.2330  0.6214
43958SOL    HW243854  12.707   5.868  10.642  1.1039 -1.1442 -1.5259
43959SOL     OW43855   8.358  10.191   0.843  0.1028 -0.8653  0.3591
43959SOL    HW143856   8.288  10.256   0.840  1.1770  0.3021 -0.0574
43959SOL    HW243857   8.427  10.232   0.894  1.6288 -0.8072 -1.6344
43960SOL     OW43858   6.603   3.218   5.915  0.1541  0.0685 -0.1830
43960SOL    HW143859   6.697   3.210   5.901  0.1776  3.1739 -2.9655
43960SOL    HW243860   6.565   3.141   5.872  1.3155 -0.3348 -0.5206
43961SOL     OW43861   8.739   1.686   0.830 -0.1195 -0.0338 -0.3380
43961SOL    HW143862   8.780   1.692   0.743  0.7783 -0.6838  0.0321
43961SOL    HW243863   8.686   1.607   0.826  0.7419 -0.6363  0.0393
43962SOL     OW43864   5.754   1.174   8.013  0.4263  0.7839 -0.2268
43962SOL    HW143865   5.832   1.144   8.059  1.1487 -0.3379 -2.0656
43962SOL    HW243866   5.768   1.268   8.003  0.9458  0.7998  0.5621
43963SOL     OW43867  13.861   0.610   6.448  0.1004 -0.4231 -0.3033
43963SOL    HW143868  13.843   0.518   6.426 -1.1726 -0.8300  2.1271
43963SOL    HW243869  13.903   0.606   6.534 -0.9282  1.3025  0.3226
43964SOL     OW43870   9.356   5.861  10.168  0.4590 -0.1714 -0.3356
43964SOL    HW143871   9.326   5.935  10.220 -0.2922 -0.4758 -0.3231
43964SOL    HW243872   9.373   5.792  10.232  2.2808  0.3403 -0.2325
43965SOL     OW43873   3.314   7.572   6.810  0.7837 -0.6551 -0.1245
43965SOL    HW143874   3.372   7.547   6.739  0.3798 -0.3832 -0.5585
43965SOL    HW243875   3.239   7.613   6.766  0.5456 -0.4584  0.4578
43966SOL     OW43876   5.733   7.024   2.483 -0.0070 -0.3506  0.4912
43966SOL    HW143877   5.794   7.085   2.523 -0.0016 -1.0081  1.5206
43966SOL    HW243878   5.702   7.069   2.404 -0.9745  1.5406  1.8753
43967SOL     OW43879  13.576   6.772   0.464 -0.0693  0.1632 -0.4113
43967SOL    HW143880  13.481   6.783   0.464 -0.0645  0.2070 -0.5319
43967SOL    HW243881  13.612   6.860   0.468 -0.0333  0.1576 -0.5778
43968SOL     OW43882   5.033   7.056  13.112  0.1462 -0.0821  0.1073
43968SOL    HW143883   5.081   7.056  13.194 -2.3501  1.3051  1.6945
43968SOL    HW243884   5.076   7.123  13.059  1.9315 -1.1618  0.1375
43969SOL     OW43885   4.591  11.301   9.878  0.1025 -0.1545 -0.5067
43969SOL    HW143886   4.526  11.321   9.946  0.6201 -0.8036  0.2003
43969SOL    HW243887   4.553  11.229   9.828 -0.5383  0.7051 -1.3009
43970SOL     OW43888   8.131  12.471   4.990  0.3178  0.1768 -0.6645
43970SOL    HW143889   8.180  12.390   4.974  1.1105  0.7699 -1.3553
43970SOL    HW243890   8.197  12.532   5.022 -0.4981  0.2154  1.0237
43971SOL     OW43891   3.043   2.178   4.891 -0.0880  0.7027  0.0656
43971SOL    HW143892   3.105   2.195   4.962  0.2661  0.0126 -0.0650
43971SOL    HW243893   2.997   2.261   4.878 -0.1566  0.8432  1.1031
43972SOL     OW43894   6.522   9.780   3.808  0.0254 -0.0919  0.1397
43972SOL    HW143895   6.539   9.840   3.880  0.7320 -0.5008  0.3247
43972SOL    HW243896   6.546   9.694   3.842 -1.2547 -0.5418 -0.0218
43973SOL     OW43897   2.563   1.657   4.538  0.3419 -0.6047 -0.0627
43973SOL    HW143898   2.554   1.727   4.474 -1.4658 -0.0853  0.6921
43973SOL    HW243899   2.618   1.695   4.607 -0.5677  0.0722  0.3080
43974SOL     OW43900   4.045  12.113  12.653  0.4421  0.2959  0.0055
43974SOL    HW143901   3.973  12.083  12.597  1.1600  0.5837 -1.0939
43974SOL    HW243902   4.114  12.139  12.592  0.3233  3.0647  0.8924
43975SOL     OW43903   4.346   2.102   3.456 -0.0669  0.5296 -0.2109
43975SOL    HW143904   4.378   2.016   3.486 -2.1011  0.0616  0.7433
43975SOL    HW243905   4.382   2.164   3.519  1.1421  0.3724 -0.7120
43976SOL     OW43906   3.249   5.531  13.552  0.3384 -0.0086 -0.2790
43976SOL    HW143907   3.197   5.526  13.472 -2.1132  2.0577  1.0344
43976SOL    HW243908   3.213   5.606  13.600  1.3427 -1.4065  2.9978
43977SOL     OW43909   7.282   1.194  12.602 -0.2299 -0.1154 -0.2983
43977SOL    HW143910   7.284   1.284  12.571  1.0403 -0.0555 -0.0913
43977SOL    HW243911   7.373   1.164  12.597 -0.4531 -1.0318  0.6431
43978SOL     OW43912   6.663  12.273   6.955 -0.0677 -0.2314 -0.4985
43978SOL    HW143913   6.659  12.351   7.010  0.2275  0.5185 -1.4869
43978SOL    HW243914   6.696  12.204   7.012 -1.1411  0.1526  0.6209
43979SOL     OW43915  12.300   0.054   6.817  0.2110  0.0710  0.4236
43979SOL    HW143916  12.359   0.120   6.853 -0.6515  1.1758 -0.1199
43979SOL    HW243917  12.337  -0.029   6.847  1.3341  0.7805  1.1236
43980SOL     OW43918   8.217   6.639   7.611 -0.3486 -0.0446 -0.3263
43980SOL    HW143919   8.178   6.585   7.542 -0.4208  0.8531 -1.0152
43980SOL    HW243920   8.209   6.587   7.690 -2.0712 -0.3149 -0.6344
43981SOL     OW43921   9.059   4.559  12.881 -0.1539  0.7800 -0.0163
43981SOL    HW143922   9.089   4.596  12.964  1.3621  0.7821 -0.5424
43981SOL    HW243923   8.964   4.550  12.892 -0.2417  2.4996  1.0306
43982SOL     OW43924  13.762  10.478   1.937  0.4247  0.1167  0.4191
43982SOL    HW143925  13.695  10.546   1.943  0.2826  0.0004  0.1571
43982SOL    HW243926  13.842  10.526   1.913  0.0156  0.0345 -1.2447
43983SOL     OW43927   3.263   2.861  10.937 -0.3597 -0.3433  0.2649
43983SOL    HW143928   3.311   2.924  10.990 -0.9166 -1.1981  1.8596
43983SOL    HW243929   3.237   2.793  10.999 -0.7522 -1.5675 -1.1866
43984SOL     OW43930   9.246   2.889   4.007  0.1876  0.5430 -0.4919
43984SOL    HW143931   9.259   2.794   4.012 -0.0070  0.5684  0.7458
43984SOL    HW243932   9.305   2.925   4.073 -1.2322  1.1224  0.5086
43985SOL     OW43933  13.086   1.507   3.278 -0.1758  0.1154  0.0992
43985SOL    HW143934  13.054   1.510   3.188 -0.4694 -0.5510  0.1683
43985SOL    HW243935  13.088   1.413   3.299  1.3497  0.1513  0.2720
43986SOL     OW43936   7.061   7.720   7.795 -0.6174 -0.0400  0.1981
43986SOL    HW143937   7.020   7.791   7.747 -1.9835 -1.6626 -1.1678
43986SOL    HW243938   7.058   7.645   7.735  0.4031 -1.3628  1.7069
43987SOL     OW43939   1.585   5.442  13.058  0.3219  0.2393  0.0213
43987SOL    HW143940   1.601   5.356  13.018 -1.4049  0.6993 -1.7871
43987SOL    HW243941   1.493   5.441  13.081  0.5735  1.1845  1.1636
43988SOL     OW43942  12.788   8.096   8.390  0.3808  0.1704 -0.2645
43988SOL    HW143943  12.780   8.001   8.389  0.2713  0.1457  0.9320
43988SOL    HW243944  12.747   8.122   8.473  0.1064  1.2885 -0.7362
43989SOL     OW43945   9.175   5.441  10.903 -0.3579 -0.0815 -0.4402
43989SOL    HW143946   9.204   5.503  10.969  0.2616 -2.3547  1.5762
43989SOL    HW243947   9.256   5.407  10.865 -0.4860 -1.9187  0.7886
43990SOL     OW43948  11.179   5.284  12.651  0.1519 -0.2207 -0.2968
43990SOL    HW143949  11.207   5.376  12.649 -0.1207 -0.0735  1.1805
43990SOL    HW243950  11.126   5.273  12.572  0.2909  0.8594 -0.5591
43991SOL     OW43951   7.711   2.289   6.080 -0.2054  0.0522  0.0476
43991SOL    HW143952   7.761   2.364   6.049  0.8829  0.7369  3.0613
43991SOL    HW243953   7.732   2.219   6.018  1.5131  1.3371 -0.9233
43992SOL     OW43954   8.973   5.577   3.608 -0.1888  0.0072 -0.6772
43992SOL    HW143955   8.929   5.507   3.656 -0.4594  0.5436 -0.1351
43992SOL    HW243956   8.935   5.657   3.642  0.9274  0.4747 -0.4732
43993SOL     OW43957   2.123   1.168  11.183 -0.0604  0.8178  0.3679
43993SOL    HW143958   2.183   1.135  11.251  0.3764 -0.1890 -0.4799
43993SOL    HW243959   2.175   1.165  11.103 -1.1660  0.1252 -0.3461
43994SOL     OW43960   3.840   5.888  10.389  0.2682 -0.5176 -0.6571
43994SOL    HW143961   3.919   5.899  10.336 -0.0664 -0.4657 -1.1526
43994SOL    HW243962   3.870   5.900  10.479  0.4486  1.6824 -0.9520
43995SOL     OW43963   9.490   1.441   1.887  0.5237 -0.4461 -0.4589
43995SOL    HW143964   9.512   1.487   1.968  1.0259  0.5241 -1.1278
43995SOL    HW243965   9.504   1.506   1.818 -1.6347 -0.6725 -1.1891
43996SOL     OW43966   2.604   3.651   4.993 -0.0257 -0.5041 -0.0097
43996SOL    HW143967   2.531   3.711   5.005 -0.2228 -0.8252  0.4610
43996SOL    HW243968   2.562   3.564   4.990  0.4184 -0.8008  1.4806
43997SOL     OW43969  13.815  12.765   8.433 -0.2994  0.1931  0.0995
43997SOL    HW143970  13.836  12.700   8.500  0.2101 -0.4168 -0.6240
43997SOL    HW243971  13.901  12.793   8.400 -0.4760  1.7483  0.8552
43998SOL     OW43972   1.025   1.223   7.563 -0.5069 -0.0224 -0.2294
43998SOL    HW143973   1.007   1.309   7.600  1.0406 -0.2628  1.1844
43998SOL    HW243974   0.941   1.179   7.563 -1.3680  1.5093 -1.1207
43999SOL     OW43975   8.706  12.193   6.303 -0.0797  0.0612 -0.1642
43999SOL    HW143976   8.739  12.214   6.216 -0.8910 -0.4921 -0.6144
43999SOL    HW243977   8.751  12.256   6.361  0.7364  0.2018 -0.9166
44000SOL     OW43978   0.014   4.209   2.220 -0.2560 -0.1730 -0.0969
44000SOL    HW143979  -0.070   4.178   2.187 -0.6743 -0.4107  1.1405
44000SOL    HW243980   0.017   4.302   2.197 -0.5520 -0.3145 -0.7221
44001SOL     OW43981   0.895   5.414   1.146 -0.2823  0.4864  0.1538
44001SOL    HW143982   0.910   5.496   1.099  0.4061 -0.3870 -1.1925
44001SOL    HW243983   0.977   5.398   1.193 -0.8354  1.1589  1.4201
44002SOL     OW43984   2.516   9.462   0.681  0.0450  0.1717  0.4274
44002SOL    HW143985   2.605   9.487   0.656  0.2052  1.1003  1.8223
44002SOL    HW243986   2.512   9.479   0.775 -1.1244 -1.3608  0.6967
44003SOL     OW43987  10.839   5.188   3.724 -0.1674 -0.2423  0.3871
44003SOL    HW143988  10.759   5.143   3.698  0.0058 -0.9354  1.0346
44003SOL    HW243989  10.837   5.189   3.819  0.1620  0.5400  0.3985
44004SOL     OW43990  10.797   0.251   2.495 -0.1374 -0.4768  0.2824
44004SOL    HW143991  10.843   0.330   2.465  1.7401  0.4000  4.6427
44004SOL    HW243992  10.860   0.180   2.480  1.3797  0.1648  2.9196
44005SOL     OW43993   5.226   8.985   6.980 -0.4032 -0.4116  0.0038
44005SOL    HW143994   5.277   9.000   6.900 -0.7564  1.6532  0.0859
44005SOL    HW243995   5.138   8.965   6.948 -0.4591  0.0515 -0.1546
44006SOL     OW43996   7.346   6.899   8.339  0.9341 -0.1449 -1.0414
44006SOL    HW143997   7.296   6.888   8.258 -1.3142 -0.0339  0.2528
44006SOL    HW243998   7.389   6.814   8.352  0.0657 -0.6797 -1.5764
44007SOL     OW43999   4.690   1.862  13.011  0.2986  0.6601  0.1059
44007SOL    HW144000   4.682   1.792  12.946 -0.3579  0.3980  0.4630
44007SOL    HW244001   4.706   1.941  12.959  2.3576  0.0721 -0.2493
44008SOL     OW44002   4.315   7.327   3.765 -0.1400  0.5927  0.0131
44008SOL    HW144003   4.224   7.355   3.750 -0.3319 -0.0027  0.0571
44008SOL    HW244004   4.336   7.360   3.852 -0.5238  0.1956  0.2584
44009SOL     OW44005  12.275  12.818   8.030 -0.2928 -0.3263 -0.1761
44009SOL    HW144006  12.224  12.893   8.000  0.0370  0.1684  0.4775
44009SOL    HW244007  12.232  12.742   7.991  0.3887  0.3034 -2.3027
44010SOL     OW44008   3.734   9.135   2.930 -0.2162 -0.1893  0.3023
44010SOL    HW144009   3.646   9.140   2.892  0.1510  0.4666 -0.4999
44010SOL    HW244010   3.725   9.073   3.002 -1.7814  1.2984  1.4649
44011SOL     OW44011   8.181   6.294  11.453 -0.4105 -1.1010 -0.2876
44011SOL    HW144012   8.087   6.277  11.440 -0.1286 -1.7389 -1.6659
44011SOL    HW244013   8.198   6.267  11.543 -2.0157  1.2459  0.8373
44012SOL     OW44014  12.727   4.993   1.439 -0.3041  0.3621  0.6464
44012SOL    HW144015  12.763   5.021   1.354 -0.5757  0.3861  0.5378
44012SOL    HW244016  12.796   5.014   1.502  0.8247 -1.6375  0.1761
44013SOL     OW44017   6.730   3.977   9.079 -0.2830  0.0085 -0.5224
44013SOL    HW144018   6.731   3.900   9.022 -0.3598  0.2153 -0.8029
44013SOL    HW244019   6.718   4.051   9.020 -1.6177  0.1344 -0.1454
44014SOL     OW44020   6.680   5.223   6.366 -0.4639 -0.2239 -0.2102
44014SOL    HW144021   6.649   5.132   6.362 -1.9090  0.1910  0.7406
44014SOL    HW244022   6.600   5.275   6.378  0.4577  1.0683  0.5051
44015SOL     OW44023   7.350   2.278   9.875  0.6949 -0.4136  0.2501
44015SOL    HW144024   7.366   2.186   9.894  2.2528 -0.0784  0.6985
44015SOL    HW244025   7.390   2.292   9.789  1.2821  0.0372  0.5878
44016SOL     OW44026   9.711   8.248  11.499 -0.1966  0.5749  0.0261
44016SOL    HW144027   9.771   8.174  11.494 -1.9798 -0.9039 -1.4414
44016SOL    HW244028   9.627   8.208  11.525 -1.2349  2.0444 -0.9190
44017SOL     OW44029   4.397   8.717   4.594  0.2987  0.2922 -0.3234
44017SOL    HW144030   4.448   8.726   4.513  0.1611  1.8438 -0.2764
44017SOL    HW244031   4.306   8.716   4.566  0.2955 -0.8605 -0.2942
44018SOL     OW44032  11.837  11.229  13.871  0.2289  0.1975  0.3431
44018SOL    HW144033  11.931  11.223  13.855  0.5061 -0.1546  1.9665
44018SOL    HW244034  11.815  11.320  13.851  1.1488  0.6037  1.0978
44019SOL     OW44035   7.820   0.382   0.312 -0.5746 -0.0269  0.3736
44019SOL    HW144036   7.789   0.317   0.249 -0.5834 -1.3034  1.6452
44019SOL    HW244037   7.759   0.374   0.386  0.6845 -0.0726  1.4303
44020SOL     OW44038  10.492   1.462  13.353 -0.3311 -0.5578 -0.1884
44020SOL    HW144039  10.503   1.553  13.327 -1.0071 -0.4124  0.0112
44020SOL    HW244040  10.546   1.453  13.431  0.1652 -0.4784 -0.5168
44021SOL     OW44041   6.945   8.087   7.127 -0.7534  0.4820  0.1072
44021SOL    HW144042   6.949   8.041   7.043 -0.2005  0.3198  0.2188
44021SOL    HW244043   6.851   8.090   7.147 -0.8931  0.5322 -0.5160
44022SOL     OW44044   7.840   5.750   0.518  0.2347 -0.6199 -0.6042
44022SOL    HW144045   7.859   5.668   0.562  0.3053 -0.5419 -0.4897
44022SOL    HW244046   7.877   5.740   0.430  1.7400 -0.0730 -0.0526
44023SOL     OW44047   1.425   4.439   4.383  0.3092 -0.2508  0.8440
44023SOL    HW144048   1.339   4.411   4.350 -0.0989  1.2011  0.5794
44023SOL    HW244049   1.461   4.493   4.313 -0.0800  1.9777  2.2431
44024SOL     OW44050  12.320   5.952   2.470 -0.0403  0.0458  0.1367
44024SOL    HW144051  12.228   5.927   2.478  0.2273 -0.5414  1.6951
44024SOL    HW244052  12.341   5.940   2.378 -1.0285 -1.6353  0.0961
44025SOL     OW44053  13.065   9.098  11.583  0.1800  0.0227  0.2693
44025SOL    HW144054  12.975   9.067  11.595  0.0683  0.1169 -0.3216
44025SOL    HW244055  13.057   9.174  11.525  0.5161  0.7695  1.1645
44026SOL     OW44056   6.073   3.458   0.700 -0.7044 -0.7043 -0.1097
44026SOL    HW144057   6.160   3.466   0.739 -0.1862 -0.0509 -1.3225
44026SOL    HW244058   6.081   3.388   0.636 -1.3822 -1.3648  0.5015
44027SOL     OW44059   2.808  10.288   6.494 -0.3888 -0.1817  0.2862
44027SOL    HW144060   2.856  10.230   6.435  0.1565  0.1075  0.4399
44027SOL    HW244061   2.720  10.292   6.457 -0.0424  0.0221 -0.5299
44028SOL     OW44062  12.512   4.521  11.356 -0.6215  0.0414  0.1199
44028SOL    HW144063  12.581   4.512  11.291  0.2020  0.0083  0.9824
44028SOL    HW244064  12.498   4.615  11.363 -0.6115  0.0520 -0.0003
44029SOL     OW44065   4.209  13.157  10.557 -0.3576  0.0849 -0.0584
44029SOL    HW144066   4.122  13.119  10.548 -0.7724  0.2561  2.5632
44029SOL    HW244067   4.206  13.207  10.638  1.0965  3.2967 -1.8143
44030SOL     OW44068  10.756   7.055   3.043  0.2249  0.5644 -0.0171
44030SOL    HW144069  10.825   7.095   2.990 -0.2703  0.9339 -0.3918
44030SOL    HW244070  10.677   7.061   2.989 -0.5262  1.9076  1.1688
44031SOL     OW44071   8.258   7.812   2.257  0.3197  0.3195  0.4314
44031SOL    HW144072   8.258   7.716   2.259  1.2109  0.2520 -1.2231
44031SOL    HW244073   8.183   7.835   2.201  0.8352  0.5232 -0.1936
44032SOL     OW44074   4.032   7.572   0.609  0.5415 -0.2351  0.6747
44032SOL    HW144075   3.976   7.646   0.585  0.6606 -0.1981  0.5087
44032SOL    HW244076   4.010   7.504   0.545  1.0643 -0.0384  0.2733
44033SOL     OW44077   7.482   7.994   9.210  0.2930  0.4056 -0.2134
44033SOL    HW144078   7.483   8.048   9.289 -0.0131  0.1046 -0.0041
44033SOL    HW244079   7.575   7.987   9.185  0.3778  0.6153  0.0366
44034SOL     OW44080   3.098   5.701   8.846 -0.2669 -0.4346  0.1913
44034SOL    HW144081   3.163   5.647   8.801 -0.4227 -1.2333  0.8960
44034SOL    HW244082   3.040   5.732   8.776  0.5172 -0.1941 -0.3684
44035SOL     OW44083   0.549   3.968  11.668 -0.0458 -0.3226 -0.0377
44035SOL    HW144084   0.572   3.878  11.692 -1.8940 -0.9050 -0.2385
44035SOL    HW244085   0.453   3.968  11.668 -0.0761  1.4530 -0.7873
44036SOL     OW44086   7.991   4.581  13.145  0.5058 -0.0884  0.0687
44036SOL    HW144087   8.053   4.514  13.172 -0.5931 -1.2074 -0.0757
44036SOL    HW244088   7.914   4.567  13.201  0.4020  1.3213  0.3135
44037SOL     OW44089   0.089   3.471   7.025  0.5317 -0.7522 -0.1480
44037SOL    HW144090   0.073   3.493   7.117  0.0129  1.9154 -0.8130
44037SOL    HW244091   0.180   3.498   7.010  0.4923 -0.8287 -0.5302
44038SOL     OW44092   2.721  11.987   1.811 -0.5099  0.7453 -0.1590
44038SOL    HW144093   2.662  11.915   1.788 -0.2201  0.6490 -0.6051
44038SOL    HW244094   2.781  11.949   1.875 -0.0641  0.4531 -0.7417
44039SOL     OW44095  13.650   9.056   7.394 -0.3888 -0.1492  0.0873
44039SOL    HW144096  13.601   8.998   7.452 -1.2894 -0.3899 -0.8749
44039SOL    HW244097  13.611   9.143   7.409  0.3242  0.0604  0.8380
44040SOL     OW44098   5.687  13.236   6.058  0.0030 -0.3432 -0.3739
44040SOL    HW144099   5.695  13.332   6.052  0.4401 -0.2853  0.8551
44040SOL    HW244100   5.595  13.218   6.039 -0.4447  0.4743  0.9025
44041SOL     OW44101   4.745   5.580   9.826 -0.1121 -0.6939  0.1420
44041SOL    HW144102   4.698   5.594   9.743  1.8559 -1.6064 -1.2090
44041SOL    HW244103   4.833   5.613   9.810  0.7523 -2.2538  1.3482
44042SOL     OW44104   5.718   2.293   9.154 -0.0718  0.4857 -0.1710
44042SOL    HW144105   5.738   2.386   9.145  1.3177  0.1900 -0.3687
44042SOL    HW244106   5.804   2.251   9.162 -0.7167 -0.5368  2.3779
44043SOL     OW44107   9.247   5.425  13.424  0.8462  0.1943 -0.3106
44043SOL    HW144108   9.226   5.446  13.514  1.5499  0.6775 -0.2473
44043SOL    HW244109   9.178   5.366  13.396 -0.0083  0.9391  0.1787
44044SOL     OW44110   5.166   6.634   0.637  0.0451  0.2767 -0.3130
44044SOL    HW144111   5.141   6.587   0.717 -0.0755 -2.7327 -1.9693
44044SOL    HW244112   5.090   6.689   0.618 -0.7210 -0.3902  0.6526
44045SOL     OW44113   0.007  12.646   3.142 -0.5001  0.5587  0.2418
44045SOL    HW144114   0.020  12.661   3.048 -0.0130 -0.5035  0.1254
44045SOL    HW244115   0.026  12.553   3.154 -2.1878  0.2885  1.1049
44046SOL     OW44116   8.844   6.627   6.889 -0.7644  0.3952 -0.1138
44046SOL    HW144117   8.894   6.574   6.950 -1.7467 -1.1460 -0.5825
44046SOL    HW244118   8.909   6.681   6.845  0.0105  1.1190  1.8633
44047SOL     OW44119   6.558   1.285   0.931  0.1678  0.1041  0.1833
44047SOL    HW144120   6.633   1.231   0.955  2.0557  1.5790 -2.0496
44047SOL    HW244121   6.535   1.257   0.843 -2.0493 -0.3686  0.8308
44048SOL     OW44122  13.357   2.979  10.582 -0.7801  0.0291  0.1960
44048SOL    HW144123  13.440   3.026  10.580 -0.4675 -0.2016  3.3997
44048SOL    HW244124  13.294   3.039  10.541  0.4166  1.4010  0.3099
44049SOL     OW44125  13.271   8.250   9.621  0.1715  0.1900 -0.1685
44049SOL    HW144126  13.287   8.267   9.714  0.4561 -0.5912 -0.0613
44049SOL    HW244127  13.202   8.311   9.596 -1.1100 -0.7378  0.9830
44050SOL     OW44128   5.113  12.947   1.977 -0.6337 -0.2194 -0.4238
44050SOL    HW144129   5.072  12.916   1.896 -2.0706  0.7434 -0.0949
44050SOL    HW244130   5.201  12.973   1.950 -0.3943 -1.7929 -1.2674
44051SOL     OW44131   1.596   0.477  12.905  0.1053 -0.2173 -0.1886
44051SOL    HW144132   1.540   0.400  12.893  0.7232 -1.1891  2.5144
44051SOL    HW244133   1.538   0.543  12.943  0.2225 -0.3605  0.2420
44052SOL     OW44134   4.362   1.051   6.979 -0.1401  0.0867 -0.7982
44052SOL    HW144135   4.421   1.127   6.977 -1.5017  1.1971 -3.0256
44052SOL    HW244136   4.275   1.090   6.987 -0.6964 -1.5238  2.8151
44053SOL     OW44137   3.687   7.467   0.614  0.0166  0.4799 -0.1246
44053SOL    HW144138   3.740   7.402   0.659  0.8968  0.9506 -0.4508
44053SOL    HW244139   3.667   7.533   0.682  0.1730  0.4941 -0.0925
44054SOL     OW44140  13.668  12.107   4.539 -0.3201 -0.6315 -0.4182
44054SOL    HW144141  13.642  12.064   4.621 -0.5884  0.4804  0.1049
44054SOL    HW244142  13.762  12.094   4.534 -0.2024 -0.1318  0.4167
44055SOL     OW44143  12.160  11.917   6.838 -0.0599  0.0221 -0.3219
44055SOL    HW144144  12.226  11.851   6.817  1.8897  2.2124 -1.5163
44055SOL    HW244145  12.209  11.986   6.883 -1.9399  0.8672  0.5390
44056SOL     OW44146  13.366   5.079  13.584 -0.1493  0.2815  0.0150
44056SOL    HW144147  13.362   5.004  13.524  1.5688 -0.2372  0.4826
44056SOL    HW244148  13.279   5.118  13.580 -0.9358 -1.4470 -0.6167
44057SOL     OW44149  11.062   1.029   7.009  0.3662 -0.5482  0.4851
44057SOL    HW144150  11.023   0.955   7.056 -3.5695 -0.2714 -1.8251
44057SOL    HW244151  11.122   0.989   6.946 -0.8009 -1.7281  0.0719
44058SOL     OW44152  10.905   4.559   4.741  0.0837 -0.0090  0.0222
44058SOL    HW144153  10.812   4.549   4.719  0.0527  1.1673 -0.4862
44058SOL    HW244154  10.951   4.537   4.660  0.1917  0.3337 -0.0116
44059SOL     OW44155   2.703   1.225  13.787 -0.6782  0.1706 -0.2561
44059SOL    HW144156   2.623   1.272  13.763 -1.5387 -1.2777 -0.3562
44059SOL    HW244157   2.756   1.289  13.833 -2.0923  1.0524  0.2066
44060SOL     OW44158   9.068   5.515   3.953  0.3042  0.7619 -0.1148
44060SOL    HW144159   9.145   5.570   3.941  1.9319 -0.9405  1.6861
44060SOL    HW244160   9.078   5.446   3.888  1.4280 -0.5118  1.3124
44061SOL     OW44161   0.894   2.764   0.123 -0.0043 -0.9870 -0.0273
44061SOL    HW144162   0.819   2.705   0.133 -0.5152 -0.5222 -0.9683
44061SOL    HW244163   0.856   2.852   0.122  0.5855 -0.7248 -0.1917
44062SOL     OW44164   0.211  10.753   5.234  0.3655 -0.0663 -0.4001
44062SOL    HW144165   0.128  10.776   5.274  1.0252  1.1935  0.3222
44062SOL    HW244166   0.200  10.663   5.204 -1.0232 -0.1391  0.2669
44063SOL     OW44167  10.599   6.520   2.740 -0.3266  0.0600  0.7768
44063SOL    HW144168  10.507   6.499   2.751 -0.4590 -0.4587 -0.9980
44063SOL    HW244169  10.627   6.553   2.825 -2.2085  0.4916  1.2561
44064SOL     OW44170   8.365  13.867   2.865  0.1730  0.4955  0.0337
44064SOL    HW144171   8.386  13.915   2.945  1.1201  1.3391 -0.6928
44064SOL    HW244172   8.363  13.776   2.892 -0.7739  0.8566  1.2696
44065SOL     OW44173   0.992   8.518  11.012  0.8063 -0.0539 -0.2268
44065SOL    HW144174   0.947   8.576  10.951  1.8981  0.0862 -0.9116
44065SOL    HW244175   0.935   8.441  11.019  0.8191 -0.2046 -1.6630
44066SOL     OW44176  13.167   4.229   8.924 -0.3842  0.5013  0.3717
44066SOL    HW144177  13.083   4.188   8.942 -0.6041  0.9976  0.5050
44066SOL    HW244178  13.157   4.319   8.956  1.0725 -0.1175  2.9160
44067SOL     OW44179   4.460  10.930   9.479  0.8650  0.6542 -0.5328
44067SOL    HW144180   4.389  10.880   9.520  2.5086 -1.2282  0.1813
44067SOL    HW244181   4.539  10.880   9.498  2.1838  1.6433 -2.9162
44068SOL     OW44182  11.839   9.625  11.293  0.0886 -0.4807  0.1214
44068SOL    HW144183  11.804   9.636  11.381 -0.6930  0.8333 -0.3315
44068SOL    HW244184  11.789   9.551  11.257 -3.2157  2.0311 -0.9091
44069SOL     OW44185   8.138   0.524  13.789 -0.1909 -0.3128  0.0820
44069SOL    HW144186   8.205   0.512  13.857 -0.6781  2.0669  1.1191
44069SOL    HW244187   8.176   0.589  13.730 -1.1266  0.2906  0.1092
44070SOL     OW44188   7.416   2.510  11.216  1.4428  0.0660 -0.1398
44070SOL    HW144189   7.336   2.560  11.198  1.6088 -0.0045 -1.1524
44070SOL    HW244190   7.432   2.522  11.310  0.8174  0.9245 -0.1329
44071SOL     OW44191   6.280   5.834   2.468 -0.1020 -0.3603 -0.2918
44071SOL    HW144192   6.233   5.776   2.408 -1.2445 -0.4472  0.6474
44071SOL    HW244193   6.229   5.916   2.468  0.3738 -0.0575 -0.1052
44072SOL     OW44194  12.089   7.234   4.194 -0.0379 -0.6902 -0.0677
44072SOL    HW144195  12.104   7.206   4.284  2.0267 -0.2127 -0.2172
44072SOL    HW244196  12.063   7.154   4.147 -0.8593 -0.9892  0.8644
44073SOL     OW44197   5.419   7.534   5.524  0.0280  0.3042 -0.0981
44073SOL    HW144198   5.362   7.478   5.577 -2.6008  2.2563 -0.7010
44073SOL    HW244199   5.421   7.492   5.438 -1.4939  0.7912 -0.3986
44074SOL     OW44200  11.046  11.004  10.163 -0.5310 -0.0291 -0.2209
44074SOL    HW144201  10.950  11.006  10.155 -0.4670  0.8482 -0.9572
44074SOL    HW244202  11.077  11.063  10.094  0.5360 -0.0562  0.2165
44075SOL     OW44203   4.277   8.874   9.747 -0.7197 -0.1934  0.1862
44075SOL    HW144204   4.216   8.801   9.757 -1.7533  0.7791  1.3070
44075SOL    HW244205   4.283   8.913   9.834 -0.1694  1.0512 -0.3729
44076SOL     OW44206   4.463   5.222   5.680  0.2094  0.2306  0.0292
44076SOL    HW144207   4.531   5.162   5.651 -0.5040  0.1996 -1.7079
44076SOL    HW244208   4.505   5.276   5.747  2.1711  0.6773 -1.4659
44077SOL     OW44209   6.632   2.621   0.429  0.4494  0.0627  0.5106
44077SOL    HW144210   6.636   2.689   0.361  0.5715  0.8764  1.3118
44077SOL    HW244211   6.672   2.544   0.388  0.1758  0.4279 -0.4651
44078SOL     OW44212  11.087   7.255   5.787 -0.0342 -0.1746  0.0146
44078SOL    HW144213  11.132   7.174   5.811  0.3936  0.5854  1.9479
44078SOL    HW244214  11.082   7.305   5.868 -2.7323  0.6004 -0.5094
44079SOL     OW44215   7.199   0.148   8.221  0.2703  0.9300 -0.0417
44079SOL    HW144216   7.194   0.093   8.142  0.6638 -0.4728  0.8731
44079SOL    HW244217   7.291   0.147   8.244  0.1676  1.4135  0.3860
44080SOL     OW44218   4.431  10.644  12.397 -0.4694 -0.5952  0.2725
44080SOL    HW144219   4.400  10.721  12.446 -0.2856 -0.6900  0.5431
44080SOL    HW244220   4.355  10.615  12.347 -0.2345  0.4361 -0.7190
44081SOL     OW44221   4.890   1.231  11.802  0.4474  0.1822 -0.4527
44081SOL    HW144222   4.970   1.281  11.786  0.5835  0.5146  1.1006
44081SOL    HW244223   4.897   1.155  11.744  2.0208  0.0639 -0.1568
44082SOL     OW44224   0.879  12.572   7.528  0.1737 -0.4647  0.6939
44082SOL    HW144225   0.824  12.647   7.550  0.7753  0.5154 -0.9488
44082SOL    HW244226   0.818  12.500   7.512 -0.7054  0.6357 -1.2073
44083SOL     OW44227   0.996  13.435   0.932 -0.0367  0.2630  0.4730
44083SOL    HW144228   0.912  13.397   0.908 -1.7701  0.7290  4.8820
44083SOL    HW244229   0.974  13.516   0.977  3.2900  4.2894 -4.0623
44084SOL     OW44230  10.717  10.134   1.299 -0.4445  0.0390 -0.2547
44084SOL    HW144231  10.666  10.212   1.324 -1.8644 -0.8779 -0.1602
44084SOL    HW244232  10.660  10.087   1.237  1.7670  0.7593 -3.0564
44085SOL     OW44233  12.756   1.528   4.540  0.5767 -0.1195 -0.2288
44085SOL    HW144234  12.730   1.535   4.449 -1.0598  0.4893  0.2553
44085SOL    HW244235  12.826   1.592   4.550  0.2754  0.3193 -0.8841
44086SOL     OW44236   0.286   3.734   7.694  0.5638  0.1323 -0.0309
44086SOL    HW144237   0.203   3.703   7.729 -0.2014  1.9297 -0.1688
44086SOL    HW244238   0.329   3.778   7.767  0.8569  0.2558 -0.2737
44087SOL     OW44239  13.759   3.119  12.326  0.2810  0.7407 -1.1873
44087SOL    HW144240  13.703   3.043  12.313 -0.3606  0.9315  0.2543
44087SOL    HW244241  13.848   3.086  12.316  0.2443 -0.9933  2.4628
44088SOL     OW44242  12.401  10.727   9.972 -0.4391 -0.5112  0.1803
44088SOL    HW144243  12.464  10.675   9.921  0.4291 -1.7066  2.3574
44088SOL    HW244244  12.327  10.668   9.987 -0.7793 -0.1006  0.1316
44089SOL     OW44245   7.655  10.768   0.402 -0.0993  0.1339 -0.0129
44089SOL    HW144246   7.714  10.712   0.352 -0.0673  0.4690 -0.3604
44089SOL    HW244247   7.702  10.852   0.408  0.2049 -0.1138  1.1877
44090SOL     OW44248   3.276  13.747   4.617 -0.1022  0.0065  0.1475
44090SOL    HW144249   3.268  13.652   4.619  0.3387 -0.0586 -0.6980
44090SOL    HW244250   3.186  13.779   4.615 -0.2524 -0.4558 -1.3224
44091SOL     OW44251   5.152   8.382   8.744 -0.1274 -0.3268  0.0996
44091SOL    HW144252   5.138   8.309   8.804 -0.1980  0.4760  1.0842
44091SOL    HW244253   5.072   8.385   8.691  0.0388 -1.1911 -0.2167
44092SOL     OW44254   4.410   0.640   5.408 -0.3484 -0.0514 -0.1067
44092SOL    HW144255   4.477   0.600   5.464 -1.2253 -1.7500 -0.1923
44092SOL    HW244256   4.458   0.673   5.333  0.3304 -2.2621 -0.7265
44093SOL     OW44257   1.640   9.268   2.827 -0.2918 -0.0401  0.2968
44093SOL    HW144258   1.694   9.317   2.889 -1.4840  0.7147  0.7797
44093SOL    HW244259   1.635   9.180   2.865 -1.5316  0.5802  1.6629
44094SOL     OW44260   0.543   4.099   8.496  0.2731 -0.9352 -0.0816
44094SOL    HW144261   0.526   4.157   8.422 -1.1567 -1.6369 -0.3382
44094SOL    HW244262   0.548   4.158   8.571 -0.1091 -0.3736 -0.4842
44095SOL     OW44263   8.721   2.821   5.406 -0.3885 -0.2548 -0.0599
44095SOL    HW144264   8.678   2.744   5.444 -1.5620  0.9887  1.2472
44095SOL    HW244265   8.667   2.843   5.330  0.1119 -0.8578 -0.6038
44096SOL     OW44266   8.729   1.040   3.154 -0.2987 -0.6058 -0.6792
44096SOL    HW144267   8.762   1.061   3.067  0.4147  0.1253 -0.2448
44096SOL    HW244268   8.802   1.058   3.213 -1.8481  2.5605  0.5055
44097SOL     OW44269  13.835   9.046  11.749 -0.2792  0.2380 -0.0477
44097SOL    HW144270  13.752   9.020  11.790 -1.8105  3.2312 -0.9764
44097SOL    HW244271  13.852   9.134  11.783  0.6470  1.0807 -2.4959
44098SOL     OW44272  13.349  12.790  12.103  0.2741 -0.2121  0.1637
44098SOL    HW144273  13.394  12.802  12.186 -0.1047  1.5044  0.1577
44098SOL    HW244274  13.264  12.752  12.128  0.1920  0.2213  0.5665
44099SOL     OW44275  12.909   6.825   2.785 -0.3928  0.4804  0.5003
44099SOL    HW144276  12.964   6.897   2.815 -0.2161  0.0853  1.1392
44099SOL    HW244277  12.969   6.765   2.740 -0.6323  0.9985 -0.5607
44100SOL     OW44278  10.782   9.084   9.340  0.4507 -0.8736 -0.1951
44100SOL    HW144279  10.833   9.048   9.412  0.2420 -0.4965  0.1454
44100SOL    HW244280  10.842   9.084   9.265  0.1900 -2.7927 -0.4611
44101SOL     OW44281  11.521   6.941   1.912 -0.5199 -0.8621  0.3618
44101SOL    HW144282  11.494   7.006   1.847 -2.5235 -1.6168  0.3585
44101SOL    HW244283  11.611   6.965   1.934 -0.2533  0.2238 -1.6758
44102SOL     OW44284  11.895   2.783   5.765 -0.3303  0.2834 -0.2633
44102SOL    HW144285  11.806   2.812   5.785 -0.0064  0.1526  1.5285
44102SOL    HW244286  11.949   2.861   5.775  0.1013 -0.1829  1.4061
44103SOL     OW44287   3.933   7.002   7.729 -0.0703  1.2233  0.1555
44103SOL    HW144288   3.857   6.942   7.733  1.1293 -0.5691 -1.7337
44103SOL    HW244289   4.009   6.943   7.726  1.1409  2.7500 -2.7338
44104SOL     OW44290  12.333  11.803   9.730 -0.2577  0.0681 -0.0557
44104SOL    HW144291  12.339  11.884   9.679 -0.4868  0.4830  0.5634
44104SOL    HW244292  12.281  11.827   9.807  0.2007 -0.5101  0.4432
44105SOL     OW44293  10.280  12.768  12.891 -0.1864  0.4287  0.1869
44105SOL    HW144294  10.243  12.713  12.961  1.5796 -1.5496 -0.3334
44105SOL    HW244295  10.205  12.787  12.834 -1.2555  0.3566  1.5249
44106SOL     OW44296  13.748   3.357   7.251  0.1285 -0.4469 -0.3986
44106SOL    HW144297  13.655   3.377   7.246  0.1038 -0.4857 -0.1290
44106SOL    HW244298  13.761   3.285   7.189 -0.2515 -1.2310  0.4037
44107SOL     OW44299   6.834  10.968  11.661  0.2995 -1.0653 -0.0016
44107SOL    HW144300   6.898  11.026  11.703  0.9701 -1.2239 -0.7729
44107SOL    HW244301   6.754  10.978  11.713  0.4460  0.4286 -0.0193
44108SOL     OW44302  11.313  11.223   3.084  0.1741 -0.3851  0.1667
44108SOL    HW144303  11.282  11.313   3.094  0.1735 -0.5216  1.6195
44108SOL    HW244304  11.240  11.169   3.114  0.5208 -0.8290  0.2234
44109SOL     OW44305  10.142   3.072   6.368  0.1235  0.2672 -0.4677
44109SOL    HW144306  10.049   3.071   6.390  0.4708  1.3696  1.2084
44109SOL    HW244307  10.184   3.031   6.444  1.0823  0.7871 -0.7095
44110SOL     OW44308   0.848   5.303   6.923  0.4337 -0.2801 -0.0831
44110SOL    HW144309   0.850   5.337   6.834 -2.5221  0.9115  0.1914
44110SOL    HW244310   0.907   5.361   6.972  0.1249  0.6837 -0.8146
44111SOL     OW44311   5.543  11.583   9.027  0.4535 -0.4248  0.0589
44111SOL    HW144312   5.480  11.511   9.021  1.4762 -1.3379 -0.0366
44111SOL    HW244313   5.588  11.569   9.110  1.1156 -0.2729 -0.2685
44112SOL     OW44314   2.828   7.476  11.206 -0.0700  0.2858  0.1200
44112SOL    HW144315   2.832   7.387  11.240 -0.2065  0.5368  0.8118
44112SOL    HW244316   2.749   7.478  11.151 -0.9033  0.3784  1.2940
44113SOL     OW44317  12.508  10.877   3.818  0.0012  0.1640 -0.2512
44113SOL    HW144318  12.416  10.900   3.828 -0.3914 -1.3534 -0.1377
44113SOL    HW244319  12.529  10.823   3.894  1.4810  1.8653  0.6235
44114SOL     OW44320   4.021  12.740  13.764  0.0743  0.1971  0.3729
44114SOL    HW144321   4.054  12.650  13.773 -0.5557  0.0461  1.2827
44114SOL    HW244322   4.058  12.770  13.681  0.5037 -0.8128  0.1754
44115SOL     OW44323   6.708  10.168   5.108 -0.0698  0.0208  0.0667
44115SOL    HW144324   6.628  10.151   5.158 -0.9438  1.2137 -0.8461
44115SOL    HW244325   6.767  10.211   5.170 -0.3003 -0.4733  0.6314
44116SOL     OW44326   6.518   5.427  12.473  0.1756 -0.3415  0.1212
44116SOL    HW144327   6.547   5.518  12.463 -0.8630 -0.1357 -1.3454
44116SOL    HW244328   6.423   5.432  12.476  0.0983 -1.3940 -0.1295
44117SOL     OW44329   3.612   6.769   9.624  0.2600 -0.0032 -0.1913
44117SOL    HW144330   3.518   6.778   9.614 -0.0852 -1.4250  1.4340
44117SOL    HW244331   3.626   6.756   9.718  1.8914 -1.7137 -0.6076
44118SOL     OW44332   2.355   4.472   1.502  0.2721  1.0013 -0.5862
44118SOL    HW144333   2.335   4.421   1.580  2.5764  0.7813 -0.0484
44118SOL    HW244334   2.272   4.479   1.455 -0.7207 -0.6933  0.7998
44119SOL     OW44335   1.314   7.686   7.886 -0.3250 -0.4825 -0.0394
44119SOL    HW144336   1.405   7.684   7.858  0.8160 -1.7278  3.2424
44119SOL    HW244337   1.310   7.757   7.951 -1.7261 -0.4215 -0.1443
44120SOL     OW44338  10.175   2.232  12.181 -0.4285 -0.4721  0.0635
44120SOL    HW144339  10.090   2.275  12.188 -0.9796 -1.4943 -0.1286
44120SOL    HW244340  10.196   2.236  12.087  0.1216  0.4829  0.2189
44121SOL     OW44341   7.339  12.074   8.199 -0.1897  0.0976  0.0252
44121SOL    HW144342   7.247  12.069   8.224  0.0341  1.1551  1.1592
44121SOL    HW244343   7.370  12.156   8.238  0.9450  0.3442 -1.3143
44122SOL     OW44344  11.248  12.648   9.666  0.0910 -0.3435  0.2788
44122SOL    HW144345  11.207  12.704   9.732 -0.4892 -1.4030  0.8475
44122SOL    HW244346  11.287  12.709   9.603 -1.0063  0.6994  0.5755
44123SOL     OW44347   3.672   9.613  13.108  0.6763 -0.1376  0.8171
44123SOL    HW144348   3.756   9.628  13.152 -0.5723  0.8828  3.0696
44123SOL    HW244349   3.634   9.700  13.100 -0.4157 -0.6423  0.3720
44124SOL     OW44350  13.229  13.080   8.009  0.3216  0.5662  0.2027
44124SOL    HW144351  13.202  13.086   7.917 -2.9004  0.9097  1.0332
44124SOL    HW244352  13.164  13.023   8.049  1.4656  0.6851  2.3519
44125SOL     OW44353  12.531   4.047   2.546  0.0901 -0.2351  0.3982
44125SOL    HW144354  12.500   3.964   2.581  0.3416 -0.6111 -0.2543
44125SOL    HW244355  12.528   4.036   2.451 -1.2233  0.9945  0.2532
44126SOL     OW44356   4.001  11.812   8.032  0.7030  0.4197  0.3548
44126SOL    HW144357   3.938  11.882   8.018 -0.0321 -0.2215  0.4002
44126SOL    HW244358   4.053  11.841   8.107 -0.6113  0.2379  1.3758
44127SOL     OW44359   6.840   4.697   8.637 -0.3861 -0.7632 -0.0454
44127SOL    HW144360   6.808   4.785   8.618 -1.2666 -0.5851  2.0747
44127SOL    HW244361   6.762   4.646   8.655  0.0613 -2.2160 -1.9541
44128SOL     OW44362  10.970  11.055  11.828 -0.8687 -0.0824  0.1703
44128SOL    HW144363  10.986  11.086  11.917 -2.1806  0.3608  0.2730
44128SOL    HW244364  11.041  10.992  11.811 -1.8318 -1.8730  2.3543
44129SOL     OW44365   6.355   2.555   0.001  0.0539 -0.3801  0.0176
44129SOL    HW144366   6.329   2.474  -0.043 -0.4768  0.1241 -0.6199
44129SOL    HW244367   6.360   2.620  -0.069 -2.8302  0.9680  0.9005
44130SOL     OW44368  12.763   8.125   8.793  0.4682 -0.0588  0.3261
44130SOL    HW144369  12.698   8.159   8.731 -0.8993  0.5994  2.0233
44130SOL    HW244370  12.714   8.064   8.848  1.7803 -1.0851  0.4002
44131SOL     OW44371   5.078   6.706   9.940  0.3996 -0.0681  0.1998
44131SOL    HW144372   5.168   6.711   9.906  0.2757  0.0772 -0.1129
44131SOL    HW244373   5.025   6.686   9.863  0.1690 -0.1961  0.3937
44132SOL     OW44374  14.011   6.510  12.686 -0.3326 -0.0030 -0.4002
44132SOL    HW144375  14.003   6.520  12.781 -0.9745 -0.2345 -0.4231
44132SOL    HW244376  13.925   6.534  12.652 -0.2440 -0.3483 -0.8832
44133SOL     OW44377   2.962   8.358   8.774 -0.4064  0.0277 -1.0074
44133SOL    HW144378   3.021   8.433   8.764 -0.9495  1.4994  4.2068
44133SOL    HW244379   3.020   8.282   8.783  0.4826  0.7554 -0.4674
44134SOL     OW44380   1.441   6.830   7.307  0.1681 -0.2003 -0.0715
44134SOL    HW144381   1.525   6.877   7.308 -0.1552  0.4079 -0.5587
44134SOL    HW244382   1.402   6.849   7.392  0.6846 -0.7950  0.3081
44135SOL     OW44383  11.326   8.337   6.196  0.5876 -0.2297 -0.0790
44135SOL    HW144384  11.402   8.395   6.185  0.1664  0.1021 -1.3837
44135SOL    HW244385  11.331   8.277   6.122  0.5008 -1.2959  0.7556
44136SOL     OW44386   5.978   6.428   9.909  0.0031 -0.0765  0.3805
44136SOL    HW144387   5.920   6.352   9.901 -1.0187  0.5919  1.0825
44136SOL    HW244388   6.040   6.404   9.977  0.2920 -0.6405 -0.0754
44137SOL     OW44389   5.990   4.684   7.628  0.1576 -0.0999  0.8119
44137SOL    HW144390   5.927   4.641   7.686  1.0112 -0.4999  1.4617
44137SOL    HW244391   5.999   4.772   7.664 -0.7384  0.2835  0.1458
44138SOL     OW44392  13.771   2.725  13.137  0.5225  0.4588  0.2255
44138SOL    HW144393  13.688   2.773  13.131  1.1557  1.3580 -2.4952
44138SOL    HW244394  13.838   2.789  13.114  1.4240 -1.5248 -3.4316
44139SOL     OW44395   1.015  10.878   9.172  0.0807 -0.0722  0.5822
44139SOL    HW144396   1.063  10.838   9.245  1.4090  0.9500  0.3012
44139SOL    HW244397   0.997  10.967   9.201 -1.0983 -0.2260  0.4027
44140SOL     OW44398   0.020  13.271   5.095 -0.6409  0.1228  0.2934
44140SOL    HW144399  -0.002  13.291   5.186 -3.3651 -0.2828 -0.1970
44140SOL    HW244400  -0.024  13.338   5.044 -0.4181 -0.5326 -0.7909
44141SOL     OW44401   1.970   1.507  12.439  0.5645  0.0082  0.8664
44141SOL    HW144402   1.998   1.575  12.379  0.0319  0.7962  1.4823
44141SOL    HW244403   1.924   1.443  12.384  0.8439  0.2727  0.3187
44142SOL     OW44404   9.294  11.897  13.976 -0.3517  0.0341  0.5088
44142SOL    HW144405   9.278  11.964  14.043 -0.5561  0.7135 -0.2146
44142SOL    HW244406   9.340  11.827  14.024 -1.0982  0.2042  1.5148
44143SOL     OW44407   0.086  12.664  13.625 -0.0336 -0.4236 -0.4978
44143SOL    HW144408   0.060  12.575  13.648  1.8767 -1.0476 -0.5494
44143SOL    HW244409   0.144  12.692  13.696  0.3713  0.3064 -1.0944
44144SOL     OW44410   8.804  11.367   5.991  0.1115  0.1961  0.6083
44144SOL    HW144411   8.763  11.449   5.963  0.9140  0.1148 -0.8861
44144SOL    HW244412   8.855  11.392   6.068 -0.9249  0.7445  1.1487
44145SOL     OW44413   9.060   4.070  12.334 -0.3055 -0.5010 -0.4092
44145SOL    HW144414   9.014   4.132  12.391 -1.6353 -0.6281 -1.2829
44145SOL    HW244415   9.143   4.054  12.378 -0.0235  1.6969 -0.0282
44146SOL     OW44416   5.070   8.391   3.387 -0.3602 -0.0114  0.2452
44146SOL    HW144417   5.037   8.431   3.468 -1.0106  0.2591 -0.1477
44146SOL    HW244418   5.129   8.457   3.350  2.6625 -1.3943  2.1652
44147SOL     OW44419  12.537  13.277   2.934  0.0221  0.0616  0.5182
44147SOL    HW144420  12.615  13.307   2.887 -0.0417  2.0327  1.5704
44147SOL    HW244421  12.464  13.318   2.888 -0.4014 -1.3908 -0.1700
44148SOL     OW44422  13.230   2.122   5.995  0.1113  0.0547 -0.6776
44148SOL    HW144423  13.257   2.093   6.082 -0.4296  0.0666 -0.5029
44148SOL    HW244424  13.136   2.104   5.992  0.1396 -0.0116 -1.2864
44149SOL     OW44425   8.926  10.968   7.154  0.4025  0.6256  0.1354
44149SOL    HW144426   8.943  10.972   7.248 -0.7500 -0.3996  0.4071
44149SOL    HW244427   8.923  11.060   7.126  2.7019  0.9354  0.6882
44150SOL     OW44428   7.963   1.614   1.251  0.6646 -0.3280  0.1956
44150SOL    HW144429   7.927   1.627   1.164 -1.6083  0.7610  1.2204
44150SOL    HW244430   7.898   1.650   1.310  1.6763 -1.8821  2.4330
44151SOL     OW44431  10.225   8.005   0.700  1.2294 -0.4939  0.1146
44151SOL    HW144432  10.308   7.966   0.674  0.8533 -0.1405 -1.7995
44151SOL    HW244433  10.232   8.097   0.675  0.5227 -0.2918  0.6027
44152SOL     OW44434  11.027  10.473   8.850  0.2627 -0.4912  0.0731
44152SOL    HW144435  10.991  10.432   8.929  0.0190  0.8289  0.6947
44152SOL    HW244436  10.957  10.533   8.821  1.3415  1.0080  0.4227
44153SOL     OW44437   9.446   3.139   8.631  0.0231  0.4923 -0.0367
44153SOL    HW144438   9.481   3.093   8.554 -1.4397 -1.0996  0.2128
44153SOL    HW244439   9.495   3.102   8.705  1.3213  1.9164 -0.1125
44154SOL     OW44440  11.985  11.725   7.519 -0.0525  0.2225  0.0511
44154SOL    HW144441  12.031  11.672   7.454  0.2362 -1.3757  1.4866
44154SOL    HW244442  11.901  11.681   7.532  0.4239 -0.2950  1.6810
44155SOL     OW44443  13.948   3.737   6.699 -0.0649 -0.1517  0.2153
44155SOL    HW144444  13.927   3.674   6.768 -1.4884 -1.0766 -0.9940
44155SOL    HW244445  13.997   3.686   6.634  0.3742  0.4538  0.0639
44156SOL     OW44446   1.144   2.066   7.820 -0.9606  0.2357 -0.6194
44156SOL    HW144447   1.156   2.091   7.912 -0.2440  0.5273 -0.7920
44156SOL    HW244448   1.085   2.134   7.785  1.4336  2.1179 -1.2399
44157SOL     OW44449   1.991   0.844   0.056 -0.4616 -0.2842 -0.2874
44157SOL    HW144450   1.973   0.841   0.150 -1.1095 -0.3980 -0.4066
44157SOL    HW244451   2.077   0.804   0.046 -2.0359 -4.2267 -0.1325
44158SOL     OW44452   1.320   2.356  11.452 -0.3351  0.7566 -0.2085
44158SOL    HW144453   1.402   2.341  11.404  0.4886  1.6637  0.8677
44158SOL    HW244454   1.323   2.294  11.524 -1.6376 -0.7008 -1.3329
44159SOL     OW44455   0.352  11.484  10.239  0.0224 -0.1820 -0.2644
44159SOL    HW144456   0.305  11.406  10.266  1.6758 -0.5216  1.8572
44159SOL    HW244457   0.374  11.529  10.320  0.5284  1.6592 -1.3522
44160SOL     OW44458   9.815  12.124  13.735  0.0323 -0.2207 -0.1570
44160SOL    HW144459   9.874  12.155  13.667  1.9825 -1.3971  0.8997
44160SOL    HW244460   9.768  12.050  13.695 -1.5967  1.3754 -1.3447
44161SOL     OW44461   9.923  11.478  10.077 -0.0507 -0.3275 -0.4635
44161SOL    HW144462   9.908  11.484   9.983 -1.1164 -1.2085 -0.3635
44161SOL    HW244463   9.901  11.387  10.099 -0.4194  0.0390  0.7375
44162SOL     OW44464   6.845   9.677   4.025  0.0872  0.1863 -0.0611
44162SOL    HW144465   6.898   9.604   3.993  0.2106 -0.1246  0.8197
44162SOL    HW244466   6.876   9.753   3.976  0.9145 -0.1034 -0.0056
44163SOL     OW44467  13.133   3.046   1.764 -0.0263 -0.0536  0.0716
44163SOL    HW144468  13.225   3.022   1.763 -0.2674 -1.2266  1.8639
44163SOL    HW244469  13.092   2.984   1.824 -1.4166  2.3323  1.7925
44164SOL     OW44470  11.912   4.547   8.402  0.3233 -0.3931 -0.2965
44164SOL    HW144471  11.882   4.493   8.474  0.9900 -0.2696  0.0852
44164SOL    HW244472  11.969   4.490   8.351  2.3941  0.3636  1.0424
44165SOL     OW44473   7.966   9.310  11.373  0.4374  0.2460 -0.2799
44165SOL    HW144474   7.885   9.354  11.348  0.8374  0.7849 -0.6538
44165SOL    HW244475   8.024   9.321  11.298  0.8955 -0.0406  0.0253
44166SOL     OW44476   7.445  10.041   2.233  0.5171 -0.0691 -0.0975
44166SOL    HW144477   7.439   9.958   2.280  0.0004  0.9187  1.6725
44166SOL    HW244478   7.526  10.034   2.182  0.8174 -1.4083  0.5135
44167SOL     OW44479   7.991  13.001   1.506 -0.0238 -0.1801 -0.7330
44167SOL    HW144480   8.085  12.994   1.517 -0.1142 -0.3899 -0.0310
44167SOL    HW244481   7.974  13.095   1.504  0.0682 -0.1248  0.4494
44168SOL     OW44482  13.546   8.423   3.539 -0.5734 -0.9779 -0.3013
44168SOL    HW144483  13.606   8.493   3.565 -0.9636 -0.4846 -0.7132
44168SOL    HW244484  13.603   8.357   3.499 -0.1013 -1.2789  0.8299
44169SOL     OW44485   0.309  11.787   0.317 -0.4178  0.4445  0.1899
44169SOL    HW144486   0.329  11.730   0.391  1.6001  1.7001  0.6876
44169SOL    HW244487   0.235  11.839   0.346 -3.1758 -2.6166 -0.7342
44170SOL     OW44488   6.154   1.004   0.623 -0.6140 -0.1230  0.1178
44170SOL    HW144489   6.135   1.038   0.710 -0.2877  3.3930 -1.0233
44170SOL    HW244490   6.245   0.977   0.627 -1.5725 -3.6293  1.7628
44171SOL     OW44491   7.367  11.445  12.504  0.1081 -0.5418  0.1511
44171SOL    HW144492   7.314  11.469  12.428  0.0479 -0.4393  0.2253
44171SOL    HW244493   7.344  11.353  12.521  0.6072 -0.7647 -0.3545
44172SOL     OW44494  10.000   2.691   8.870  0.6347  0.1909 -0.2220
44172SOL    HW144495   9.951   2.613   8.896  0.3188 -0.2846 -2.1032
44172SOL    HW244496  10.081   2.656   8.831  0.9312  0.8387 -0.1933
44173SOL     OW44497  13.688   0.089   4.371  0.3882 -0.7035  0.1874
44173SOL    HW144498  13.699   0.039   4.289  0.9216 -1.4933  0.7295
44173SOL    HW244499  13.747   0.046   4.433  0.4365  0.2711  0.8248
44174SOL     OW44500   9.442  11.467   6.903 -0.0462  0.2607 -0.3519
44174SOL    HW144501   9.489  11.461   6.986 -2.2464  1.1645  1.0589
44174SOL    HW244502   9.470  11.390   6.854  0.2152 -1.1455  1.8477
44175SOL     OW44503   8.552   1.132   1.931 -0.1001 -0.2950  0.0358
44175SOL    HW144504   8.520   1.213   1.970 -0.4199 -0.0957 -0.6278
44175SOL    HW244505   8.479   1.071   1.937  0.5051 -0.9177  1.5759
44176SOL     OW44506   3.136  11.405  11.330 -0.0980  0.5704  0.0011
44176SOL    HW144507   3.100  11.373  11.247  1.6519 -0.1566 -0.5226
44176SOL    HW244508   3.107  11.340  11.394  0.3697 -0.0777 -0.4285
44177SOL     OW44509   7.187   0.015   4.010  0.7038 -0.4005 -0.1081
44177SOL    HW144510   7.153  -0.066   4.050  1.3708 -0.2306  0.8291
44177SOL    HW244511   7.147   0.085   4.061  0.9978 -0.1601 -0.2100
44178SOL     OW44512   1.197   2.152   0.797 -0.2967 -0.2165 -0.3067
44178SOL    HW144513   1.134   2.137   0.726  0.1667 -1.6950 -0.4416
44178SOL    HW244514   1.143   2.165   0.875 -0.8197  1.7480 -0.9400
44179SOL     OW44515  13.925   5.214  13.185 -0.4404  0.2464 -0.0340
44179SOL    HW144516  13.859   5.268  13.141  0.6275  0.8497 -0.9504
44179SOL    HW244517  14.004   5.269  13.185  0.8570 -1.4831 -1.5125
44180SOL     OW44518   9.968   2.790  12.474  0.0086 -0.1393 -0.6497
44180SOL    HW144519   9.966   2.883  12.451  0.9829 -0.2597 -1.2794
44180SOL    HW244520   9.948   2.788  12.567  0.5356  0.7581 -0.5049
44181SOL     OW44521  10.141   9.713   8.887  0.5380 -0.2967 -0.0910
44181SOL    HW144522  10.169   9.804   8.884 -1.7926  0.4495 -1.5623
44181SOL    HW244523  10.114   9.699   8.978 -0.1264  0.8617 -0.0918
44182SOL     OW44524  14.028   7.328   4.594  0.1692  0.0379 -0.1412
44182SOL    HW144525  14.057   7.252   4.644  1.0037 -0.7560 -1.7586
44182SOL    HW244526  14.091   7.335   4.522 -0.9747  1.1395 -1.0886
44183SOL     OW44527  11.520  11.893   0.220 -0.2950 -0.2148 -0.8189
44183SOL    HW144528  11.509  11.819   0.280  2.9173 -0.7630 -0.7429
44183SOL    HW244529  11.524  11.853   0.133  0.1961  0.0046 -0.8976
44184SOL     OW44530  12.845   5.533  10.699 -0.1010  0.1556  0.0605
44184SOL    HW144531  12.915   5.508  10.638  0.4401  0.8131  0.3991
44184SOL    HW244532  12.767   5.490  10.665  0.2175  0.4200 -1.0413
44185SOL     OW44533   1.626   4.473   4.850 -0.8412 -0.0442  0.3007
44185SOL    HW144534   1.692   4.541   4.857 -0.1071 -0.7828  0.8445
44185SOL    HW244535   1.662   4.409   4.789 -1.3950 -0.0836  0.0037
44186SOL     OW44536   1.685   4.079   8.980 -0.3027 -0.4672 -0.2430
44186SOL    HW144537   1.667   4.068   9.073 -0.6338 -1.0503 -0.3731
44186SOL    HW244538   1.669   3.992   8.942 -2.1993  0.2459 -1.1844
44187SOL     OW44539  13.340   6.974   5.685  0.0675  0.6295 -0.4965
44187SOL    HW144540  13.332   6.895   5.738  0.0234  1.2916  0.4964
44187SOL    HW244541  13.421   7.016   5.715  0.2883  0.7847 -1.2707
44188SOL     OW44542  13.979   8.506   7.988  0.3069 -0.1365 -0.6447
44188SOL    HW144543  13.921   8.553   8.049 -1.4047 -0.3228 -2.0583
44188SOL    HW244544  14.063   8.552   7.996  0.2712 -0.3482  2.0493
44189SOL     OW44545   8.908   3.101   3.947  0.4153 -0.2076  0.3788
44189SOL    HW144546   8.914   3.171   4.012 -1.5088  0.3799 -0.0157
44189SOL    HW244547   8.822   3.062   3.962  0.2854 -0.6001 -1.2718
44190SOL     OW44548   1.030   5.144  10.088  0.2508  0.1644  0.1730
44190SOL    HW144549   1.009   5.086  10.162  0.0117  0.2084  0.1382
44190SOL    HW244550   1.029   5.086  10.012  2.3438 -0.2942  0.4062
44191SOL     OW44551   4.917   6.919   1.678  0.1691  0.4465  0.0007
44191SOL    HW144552   4.930   6.972   1.600  0.4095 -1.0935 -1.0462
44191SOL    HW244553   4.836   6.871   1.662  0.3750 -0.1065  0.5724
44192SOL     OW44554  10.751   0.444   8.467  0.5262  0.3893  0.1759
44192SOL    HW144555  10.659   0.424   8.486 -0.1436  2.2235 -0.8737
44192SOL    HW244556  10.758   0.436   8.372  1.1364  1.3943  0.1240
44193SOL     OW44557   5.646   7.499  13.595 -0.0461 -0.0521 -0.5023
44193SOL    HW144558   5.666   7.567  13.531  0.9179  0.3435  0.1861
44193SOL    HW244559   5.679   7.419  13.555 -1.2774 -0.1578 -1.3603
44194SOL     OW44560   7.433   2.015   6.210 -0.0169 -0.8128  1.0468
44194SOL    HW144561   7.443   2.096   6.260  2.4640 -0.5944  0.3011
44194SOL    HW244562   7.521   1.977   6.208 -0.4838 -1.9235 -1.2841
44195SOL     OW44563   3.257   6.711   9.927  0.1448  0.1602 -0.1465
44195SOL    HW144564   3.241   6.619   9.903 -1.0280 -0.4790  2.6482
44195SOL    HW244565   3.190   6.760   9.880  0.1802 -0.5073 -0.9215
44196SOL     OW44566   0.590   2.828   2.237 -0.0535 -0.6738  0.4978
44196SOL    HW144567   0.579   2.733   2.236  0.5255 -0.8179  2.4634
44196SOL    HW244568   0.599   2.849   2.330 -0.1819  1.3156  0.0947
44197SOL     OW44569   1.769   1.710   1.968  0.2527 -0.1544 -0.6111
44197SOL    HW144570   1.776   1.737   1.876 -0.0807 -0.6498 -0.7825
44197SOL    HW244571   1.691   1.757   2.000 -1.8051 -2.6654 -1.5635
44198SOL     OW44572   1.975  13.605   7.175 -0.2441  0.9394  0.0708
44198SOL    HW144573   2.028  13.598   7.254  0.0580 -0.3220 -0.2278
44198SOL    HW244574   1.885  13.605   7.207 -0.1380 -0.1203  0.3936
44199SOL     OW44575   9.096   3.848  13.111 -0.6641  0.2758  0.2165
44199SOL    HW144576   9.010   3.888  13.097 -0.7635  0.1917  0.5885
44199SOL    HW244577   9.079   3.754  13.114 -0.3639  0.1538 -1.1693
44200SOL     OW44578   6.792   5.809   7.861 -0.2711 -0.4415 -0.2305
44200SOL    HW144579   6.797   5.886   7.805 -2.3113  0.0246  0.1506
44200SOL    HW244580   6.825   5.839   7.946  1.1071 -0.6593 -0.6585
44201SOL     OW44581   9.927   9.266   8.541 -0.2989  0.2324  0.5303
44201SOL    HW144582   9.989   9.233   8.605  1.4406  0.7410 -0.8269
44201SOL    HW244583   9.964   9.349   8.512 -0.8915 -0.1020 -1.2941
44202SOL     OW44584   3.429   1.218   0.203 -0.6481 -0.1869  0.6232
44202SOL    HW144585   3.437   1.222   0.108 -0.3812 -1.7862  0.5544
44202SOL    HW244586   3.397   1.305   0.228  0.3612  0.6331 -0.7994
44203SOL     OW44587   5.831   2.086   6.914 -0.1238 -0.3755  0.3770
44203SOL    HW144588   5.816   2.179   6.926  1.6487  0.0852 -0.6107
44203SOL    HW244589   5.901   2.064   6.976  1.4766 -0.3510 -1.3049
44204SOL     OW44590  11.876  13.302  10.979  0.0069  0.2856  0.0661
44204SOL    HW144591  11.887  13.255  11.062 -2.9359 -1.1756 -0.2571
44204SOL    HW244592  11.825  13.380  11.002  1.5635  1.3872 -0.0231
44205SOL     OW44593   2.334  13.528   3.343 -0.0157  0.0335 -0.1281
44205SOL    HW144594   2.383  13.543   3.262  1.0092 -1.6272  0.1249
44205SOL    HW244595   2.395  13.481   3.399 -1.6398 -1.4179  0.5179
44206SOL     OW44596   0.859   2.921  12.422 -0.5120  0.0600 -0.2598
44206SOL    HW144597   0.778   2.967  12.398  0.2567  0.6014 -1.9312
44206SOL    HW244598   0.919   2.991  12.447 -0.1011 -0.2306 -0.4341
44207SOL     OW44599   2.899   5.768   9.703 -0.4546  0.1503 -0.0734
44207SOL    HW144600   2.857   5.791   9.620  0.1434 -0.4275 -0.5500
44207SOL    HW244601   2.869   5.679   9.721  0.3457 -0.1783 -0.2971
44208SOL     OW44602   4.010   6.469   8.883 -0.0295  0.4391  0.4054
44208SOL    HW144603   4.081   6.406   8.898  0.4396  0.8022 -0.2411
44208SOL    HW244604   3.951   6.457   8.957 -0.2372 -1.1439  0.0192
44209SOL     OW44605  12.282   0.932   8.205 -0.1123 -0.0780 -0.3825
44209SOL    HW144606  12.291   0.849   8.158 -0.9077 -0.7671  0.6378
44209SOL    HW244607  12.365   0.943   8.251  0.0704 -0.1974 -0.6824
44210SOL     OW44608   1.877  11.703   0.647 -0.3051 -0.0541  0.3498
44210SOL    HW144609   1.840  11.660   0.724  1.9923 -2.8934  0.0702
44210SOL    HW244610   1.962  11.736   0.676  0.2222 -0.3963 -0.7323
44211SOL     OW44611   7.567   0.459   5.911 -0.3553 -0.2867 -0.3891
44211SOL    HW144612   7.578   0.525   5.979  0.2272 -1.6894  0.9365
44211SOL    HW244613   7.644   0.468   5.856  0.4359 -0.7638  0.6120
44212SOL     OW44614  13.428   5.634  10.033 -0.0182 -0.4289 -0.5644
44212SOL    HW144615  13.485   5.615  10.107 -0.0259 -2.2461 -0.9794
44212SOL    HW244616  13.341   5.641  10.072  0.1166 -0.3543 -0.2711
44213SOL     OW44617  11.333   6.839   9.299  0.0630  0.1863  0.3813
44213SOL    HW144618  11.261   6.900   9.280  1.5849  1.6496 -1.0816
44213SOL    HW244619  11.368   6.869   9.383 -1.1965 -0.7454  1.2701
44214SOL     OW44620  12.690   3.895   0.568  0.0886  0.2075  0.2794
44214SOL    HW144621  12.755   3.956   0.532 -0.3280  0.2250 -0.4629
44214SOL    HW244622  12.621   3.892   0.501  0.1739 -1.2011  0.2349
44215SOL     OW44623   9.457   9.662  11.820 -0.0592  0.2574 -0.1201
44215SOL    HW144624   9.495   9.745  11.848  0.0468  0.6185 -1.2618
44215SOL    HW244625   9.400   9.686  11.746 -2.6558 -0.2313  1.5939
44216SOL     OW44626   0.250  10.482   8.544  0.0589 -0.7152  0.1170
44216SOL    HW144627   0.180  10.463   8.607  1.0006 -0.1735  1.3686
44216SOL    HW244628   0.229  10.428   8.468 -2.2760  0.1726  0.0351
44217SOL     OW44629   8.320  13.465   3.465  0.3462 -0.0183  0.4511
44217SOL    HW144630   8.311  13.386   3.519 -0.3904 -0.6375 -0.5333
44217SOL    HW244631   8.366  13.527   3.521 -1.3766 -0.2398  2.2140
44218SOL     OW44632   2.876   8.467   8.316  0.2788  0.7225 -0.4966
44218SOL    HW144633   2.909   8.531   8.379 -0.0591  0.6344 -0.2280
44218SOL    HW244634   2.796   8.507   8.281 -0.5677 -0.0434  0.5108
44219SOL     OW44635  13.043  11.697   2.991  0.0698 -0.1813  0.1946
44219SOL    HW144636  12.978  11.763   2.968 -0.9975 -0.6527  1.7152
44219SOL    HW244637  12.997  11.613   2.982  0.8181 -0.6009  0.1559
44220SOL     OW44638   0.405   4.436  13.489  0.2320 -0.2907 -0.2353
44220SOL    HW144639   0.378   4.519  13.529 -1.0050 -0.4950 -0.6071
44220SOL    HW244640   0.339   4.373  13.517 -1.2995 -0.2297 -3.2907
44221SOL     OW44641   4.285   5.162  11.744 -0.5447  0.1697 -0.7998
44221SOL    HW144642   4.356   5.103  11.771  0.2878  1.2880 -0.4922
44221SOL    HW244643   4.236   5.179  11.825 -0.0363  0.8809 -0.6354
44222SOL     OW44644  13.557  11.245   7.528  0.0475 -0.3896 -0.1839
44222SOL    HW144645  13.566  11.338   7.504 -0.6594  0.3778  2.2149
44222SOL    HW244646  13.644  11.209   7.516  0.1291  0.2881 -2.1135
44223SOL     OW44647   3.502  13.912   9.489  0.3529 -0.1514  0.4907
44223SOL    HW144648   3.414  13.929   9.522 -0.2251 -0.4304 -0.8397
44223SOL    HW244649   3.559  13.926   9.564 -0.7784  0.5138  1.2537
44224SOL     OW44650  11.068   7.415   5.060 -0.2569  0.1735 -0.5370
44224SOL    HW144651  11.116   7.453   4.987  0.7607  0.5173  0.2948
44224SOL    HW244652  10.980   7.453   5.054  0.0456  0.7882 -1.1161
44225SOL     OW44653   0.461  12.601   2.668 -0.7614  0.5647  0.0808
44225SOL    HW144654   0.484  12.509   2.654 -0.8180  0.6750 -0.7868
44225SOL    HW244655   0.399  12.599   2.741  0.4220  0.0725  1.1241
44226SOL     OW44656  13.190  11.528   3.236 -0.2813  0.1570  0.5595
44226SOL    HW144657  13.215  11.613   3.200  1.6408 -1.1372 -1.5191
44226SOL    HW244658  13.096  11.522   3.221  0.0317  0.7311 -2.2108
44227SOL     OW44659   4.143   3.636   0.953  0.2088  0.4135  0.4581
44227SOL    HW144660   4.167   3.698   1.022 -2.3925 -0.6050  2.4211
44227SOL    HW244661   4.182   3.553   0.982  0.1077  0.2258  0.0555
44228SOL     OW44662   6.314   7.647   1.587  0.0386 -0.0129 -0.0625
44228SOL    HW144663   6.220   7.630   1.588  0.0080  0.0883 -0.9109
44228SOL    HW244664   6.338   7.652   1.680 -1.1080  1.7104  0.1826
44229SOL     OW44665   7.757  12.591   3.300  0.0023 -0.4143  0.2570
44229SOL    HW144666   7.769  12.611   3.207 -2.9969  1.3390  0.1289
44229SOL    HW244667   7.830  12.635   3.344  0.4605  0.2479 -1.1141
44230SOL     OW44668   7.723   7.172  13.987 -0.1545  0.0653  0.4344
44230SOL    HW144669   7.735   7.256  14.030 -1.2960  0.6271 -0.2816
44230SOL    HW244670   7.718   7.109  14.059  1.8923  0.4121  0.9295
44231SOL     OW44671   0.962   6.244  10.237 -0.3995 -0.0627 -1.1835
44231SOL    HW144672   1.051   6.276  10.251 -0.4049 -0.1789 -0.8759
44231SOL    HW244673   0.974   6.154  10.205 -0.3514  0.5477 -3.0164
44232SOL     OW44674   0.252   7.535   4.894  0.2247  0.0861  0.5507
44232SOL    HW144675   0.243   7.624   4.927  1.2572  1.2892 -2.1507
44232SOL    HW244676   0.162   7.506   4.877 -0.0532  1.4058 -0.3598
44233SOL     OW44677   1.015   2.024  11.645 -0.0282 -0.0716 -0.1763
44233SOL    HW144678   0.978   2.111  11.660  0.5284  0.1949 -0.3550
44233SOL    HW244679   0.938   1.967  11.640 -0.3592  0.2760  0.7586
44234SOL     OW44680  11.063  10.398   0.198  0.1836  0.2817  0.0990
44234SOL    HW144681  11.086  10.428   0.286  1.5438 -1.1684  0.2664
44234SOL    HW244682  11.012  10.471   0.161 -0.9414  0.6867  2.2708
44235SOL     OW44683   1.528   0.564  11.840  0.9220  0.1449  0.7707
44235SOL    HW144684   1.543   0.494  11.903 -1.9722 -1.2617  0.0859
44235SOL    HW244685   1.573   0.535  11.760 -0.2592 -1.0224  0.4894
44236SOL     OW44686   2.852  11.647   6.608 -0.1852  0.4135  0.4549
44236SOL    HW144687   2.807  11.644   6.523  1.7890  0.7278 -0.6643
44236SOL    HW244688   2.855  11.740   6.631  0.8286  0.5256 -0.0494
44237SOL     OW44689   7.597  12.411   4.880  0.0667 -0.0143 -0.0746
44237SOL    HW144690   7.624  12.489   4.929  3.1434  0.1642 -1.7575
44237SOL    HW244691   7.560  12.445   4.799  0.3827 -0.2838 -0.3359
44238SOL     OW44692   9.080   1.636  11.287 -0.2177  0.1465  0.4263
44238SOL    HW144693   9.125   1.604  11.209 -0.3379 -0.7080  0.7011
44238SOL    HW244694   9.149   1.649  11.352 -0.0795  1.1378  0.0969
44239SOL     OW44695   2.058   2.585  12.344  0.1729  0.1676  0.5110
44239SOL    HW144696   2.042   2.588  12.439 -0.3655  0.0308  0.4220
44239SOL    HW244697   2.060   2.677  12.318  0.3974  0.2092  0.6637
44240SOL     OW44698  12.875  12.594  11.874 -0.2646 -0.2655  0.1023
44240SOL    HW144699  12.949  12.541  11.844 -0.1848  0.5189 -1.1615
44240SOL    HW244700  12.803  12.571  11.814  0.0542  1.7544 -1.1559
44241SOL     OW44701  14.026   0.982   3.009 -0.1618 -0.4340  0.3971
44241SOL    HW144702  14.004   0.927   3.085  0.5341  0.4008  1.2372
44241SOL    HW244703  14.070   1.058   3.047 -0.3959  0.3257 -0.8085
44242SOL     OW44704  12.747  11.055  11.648 -0.0452  0.2865 -0.4280
44242SOL    HW144705  12.809  11.094  11.587 -1.4395 -0.1198 -2.1728
44242SOL    HW244706  12.748  10.961  11.628 -1.8008  0.3658 -1.1239
44243SOL     OW44707   7.293   0.159   2.792 -0.8827 -0.3663 -0.0405
44243SOL    HW144708   7.332   0.185   2.875 -0.3922  0.0915 -0.4148
44243SOL    HW244709   7.366   0.128   2.739 -1.0561  0.2717 -0.6604
44244SOL     OW44710  12.033   0.332   2.865 -0.5318  0.3720  0.6543
44244SOL    HW144711  12.097   0.397   2.895  1.1652 -1.8749  2.2334
44244SOL    HW244712  11.965   0.332   2.932  0.3148 -0.5752  1.5516
44245SOL     OW44713   2.819   3.939   5.302 -0.3567  0.4728  0.1518
44245SOL    HW144714   2.733   3.951   5.340 -0.4000 -0.8157  0.5121
44245SOL    HW244715   2.807   3.955   5.208 -0.9349  0.4811  0.2281
44246SOL     OW44716   1.659   7.752   4.007 -0.5790 -0.3453 -0.9182
44246SOL    HW144717   1.600   7.764   3.933 -2.3146 -2.5861 -0.0254
44246SOL    HW244718   1.727   7.693   3.974 -1.2331 -1.1706 -0.8413
44247SOL     OW44719   6.729   5.399   3.839 -0.4591 -0.6620  0.2017
44247SOL    HW144720   6.737   5.440   3.925  0.0282  0.5282 -0.3775
44247SOL    HW244721   6.639   5.369   3.834 -0.1303 -1.9803  1.6448
44248SOL     OW44722   0.835  11.107  12.539  0.5402 -0.5641 -0.2623
44248SOL    HW144723   0.763  11.161  12.569  0.4317 -1.1289  0.5370
44248SOL    HW244724   0.866  11.149  12.459 -0.3654 -0.0557 -0.3525
44249SOL     OW44725   0.395   5.729  11.885 -0.4703  0.5375 -0.4302
44249SOL    HW144726   0.436   5.759  11.967  1.0699  0.9497 -1.3101
44249SOL    HW244727   0.331   5.664  11.913  2.8585 -2.5187  0.9334
44250SOL     OW44728  11.651   2.832   7.480  0.0112  0.1096  0.0412
44250SOL    HW144729  11.628   2.821   7.387  0.0393 -2.2529  0.2444
44250SOL    HW244730  11.631   2.747   7.519 -0.1975  1.1208  2.2689
44251SOL     OW44731  12.829   5.114  11.556 -0.2498  0.1361  0.7153
44251SOL    HW144732  12.821   5.201  11.596  3.0326  0.2115  1.4896
44251SOL    HW244733  12.923   5.104  11.539 -0.9172 -1.8524 -2.7075
44252SOL     OW44734   1.098  12.359   2.443  0.0301  0.5902  0.4950
44252SOL    HW144735   1.140  12.296   2.502  1.5225  1.3116  0.2674
44252SOL    HW244736   1.167  12.423   2.425 -1.1732  1.7730 -0.0164
44253SOL     OW44737  12.046   3.408   1.263  0.2403 -0.2873  0.0837
44253SOL    HW144738  11.967   3.458   1.280  0.8309  0.5869  0.3198
44253SOL    HW244739  12.040   3.333   1.322 -1.5144 -1.5076 -1.5229
44254SOL     OW44740   0.133  11.311   4.598  0.7699  0.2291 -0.4662
44254SOL    HW144741   0.066  11.262   4.550  0.9504  2.0161 -2.7346
44254SOL    HW244742   0.172  11.247   4.658 -1.8389 -1.2717 -0.1910
44255SOL     OW44743   2.249   7.877   2.422  0.4920  0.3795  0.0773
44255SOL    HW144744   2.296   7.961   2.425  0.3494  0.4374  0.9742
44255SOL    HW244745   2.259   7.841   2.510 -1.4195  0.5573  0.4201
44256SOL     OW44746   3.498   0.844   2.240  0.0260 -0.1809  0.4288
44256SOL    HW144747   3.423   0.791   2.216  1.4003 -1.5540 -1.0282
44256SOL    HW244748   3.478   0.931   2.205 -0.6848 -0.6401 -0.3426
44257SOL     OW44749  11.391  11.178   3.490 -0.5823 -0.2072  0.7410
44257SOL    HW144750  11.391  11.087   3.518 -0.9607  0.2734  2.4140
44257SOL    HW244751  11.301  11.195   3.463 -0.7487 -0.0733  1.3649
44258SOL     OW44752   7.442  11.879   3.693  0.1879 -0.3840  0.3502
44258SOL    HW144753   7.374  11.858   3.757  3.3317  0.2223  4.2711
44258SOL    HW244754   7.510  11.813   3.707  1.7514  0.8147 -1.1059
44259SOL     OW44755   4.997  10.625  11.968 -0.0885 -0.0313 -0.3619
44259SOL    HW144756   4.989  10.611  11.874  0.9050  0.9377 -0.6112
44259SOL    HW244757   4.974  10.717  11.981 -1.4817 -0.4685  0.5336
44260SOL     OW44758   2.814   3.271   5.091  0.2329 -0.5461  0.6565
44260SOL    HW144759   2.814   3.206   5.162  1.9286 -0.9066  0.3961
44260SOL    HW244760   2.742   3.244   5.034  0.0308 -1.3793  1.2732
44261SOL     OW44761   3.304   4.284   3.990  0.1262  0.2161  0.2578
44261SOL    HW144762   3.275   4.342   3.919  0.7928  1.1337  0.7058
44261SOL    HW244763   3.392   4.315   4.011  0.1197 -0.3493  1.1693
44262SOL     OW44764   5.137  13.564   5.753 -0.4129 -0.6916  0.4850
44262SOL    HW144765   5.183  13.585   5.834  0.0899  1.1282 -0.2241
44262SOL    HW244766   5.138  13.646   5.703  2.9277 -2.6743 -3.1810
44263SOL     OW44767   1.682   0.850   6.895 -0.0173 -0.0490  0.2326
44263SOL    HW144768   1.688   0.764   6.935  0.3119 -1.3947 -2.4724
44263SOL    HW244769   1.695   0.834   6.801  1.0891  3.0744 -0.2772
44264SOL     OW44770   2.039   4.513   0.438  0.3311 -0.0323  0.2310
44264SOL    HW144771   2.004   4.484   0.522 -3.0393  2.8556  0.0329
44264SOL    HW244772   1.967   4.500   0.376  1.2302  1.7908 -1.3011
44265SOL     OW44773  12.236   0.680   1.635  0.0646  0.0670  0.0621
44265SOL    HW144774  12.331   0.688   1.631  0.7227 -4.2307  1.6281
44265SOL    HW244775  12.208   0.677   1.544  1.6559 -0.0806 -0.4501
44266SOL     OW44776   1.696   2.749   3.465  0.1466  0.1569 -0.1625
44266SOL    HW144777   1.762   2.752   3.395  0.8840  2.1584  0.5510
44266SOL    HW244778   1.710   2.830   3.514 -1.3440 -0.4941  1.4165
44267SOL     OW44779   6.174   6.645   6.416 -0.3391 -1.0254 -0.8236
44267SOL    HW144780   6.234   6.609   6.482 -1.0702 -0.9892 -0.1302
44267SOL    HW244781   6.225   6.713   6.372  0.2739 -1.2923 -0.5388
44268SOL     OW44782  12.040   1.151   6.483 -0.5985  0.2660  0.4433
44268SOL    HW144783  12.073   1.185   6.399 -0.2812  1.4221  1.0120
44268SOL    HW244784  12.118   1.120   6.529 -0.5570  1.0770  0.9380
44269SOL     OW44785  12.808  11.362   6.063  0.0020  0.1479 -0.3603
44269SOL    HW144786  12.812  11.276   6.022 -0.0102 -0.6769  1.2662
44269SOL    HW244787  12.878  11.360   6.128 -0.5800  1.0181  0.3115
44270SOL     OW44788   8.886  12.520  12.638  0.0543 -0.3468 -0.3972
44270SOL    HW144789   8.828  12.563  12.701  1.3447 -0.0686  0.6197
44270SOL    HW244790   8.874  12.426  12.655  1.2614 -0.2490  1.0722
44271SOL     OW44791   0.919   7.513   3.440 -0.4860 -0.0723 -0.0746
44271SOL    HW144792   0.853   7.525   3.371  0.2917 -1.2925 -1.0614
44271SOL    HW244793   0.924   7.419   3.452 -0.6089  0.1143  1.6996
44272SOL     OW44794  10.516   7.044  12.745  0.1321  0.2086  0.3544
44272SOL    HW144795  10.468   7.074  12.668  0.0569 -1.2009 -0.1783
44272SOL    HW244796  10.504   7.113  12.810 -0.4705  1.0522 -0.6311
44273SOL     OW44797  13.791   7.034   5.081 -0.8671 -0.2303 -0.7204
44273SOL    HW144798  13.882   7.031   5.111 -0.8427  1.7275 -0.4667
44273SOL    HW244799  13.797   7.055   4.988 -1.0631 -0.7521 -0.8559
44274SOL     OW44800  12.107   0.200   6.630  0.7881  0.6930  0.0636
44274SOL    HW144801  12.131   0.223   6.540  1.0081 -1.8460 -0.5865
44274SOL    HW244802  12.184   0.221   6.682  0.9361  1.4480 -0.4458
44275SOL     OW44803   1.116  12.840  11.119  0.0294  0.5341 -0.2177
44275SOL    HW144804   1.110  12.926  11.161 -1.7516  0.0448  0.6301
44275SOL    HW244805   1.027  12.806  11.119  0.7738 -1.6447  0.1633
44276SOL     OW44806   9.949   5.978   1.111  0.1655 -0.2135  0.1563
44276SOL    HW144807   9.874   5.935   1.152 -0.1220 -0.4313 -0.5757
44276SOL    HW244808   9.986   5.912   1.052  1.4384 -0.3777  1.1003
44277SOL     OW44809  11.464  13.020   9.173  0.1954 -0.0997 -0.6928
44277SOL    HW144810  11.529  13.006   9.241  0.2177 -1.2613 -0.9255
44277SOL    HW244811  11.387  13.054   9.219  0.8417  0.9579 -0.3707
44278SOL     OW44812   6.893   6.402  10.567  0.1020  0.5763  0.3727
44278SOL    HW144813   6.830   6.364  10.629 -0.5896 -0.5461 -0.9714
44278SOL    HW244814   6.882   6.496  10.577 -2.9337  0.4705 -0.8446
44279SOL     OW44815   2.970   7.400   7.682  0.2599 -0.1473 -0.0176
44279SOL    HW144816   2.915   7.332   7.644  0.3441  0.3751 -1.1209
44279SOL    HW244817   2.952   7.397   7.776  0.1772 -1.6010 -0.0666
44280SOL     OW44818   8.581   4.331   3.205  0.4862 -0.3684 -0.4471
44280SOL    HW144819   8.666   4.310   3.167 -0.1658 -0.6741 -1.7670
44280SOL    HW244820   8.522   4.343   3.130 -0.8437 -1.0181  0.4463
44281SOL     OW44821   1.906  11.481   5.294 -0.8565  0.3388 -0.7098
44281SOL    HW144822   1.999  11.464   5.279 -0.7107 -0.5299  0.9388
44281SOL    HW244823   1.905  11.551   5.359 -1.3445  0.1094 -0.4677
44282SOL     OW44824   3.398   9.432   0.228 -0.8016  0.2525  0.5100
44282SOL    HW144825   3.463   9.437   0.298  0.0437  1.4782 -0.3222
44282SOL    HW244826   3.328   9.378   0.264  2.0421 -4.1137  0.3002
44283SOL     OW44827  13.973   1.234   2.721  0.6535 -0.2748 -0.0089
44283SOL    HW144828  13.918   1.250   2.645  1.5652 -1.9304 -1.0541
44283SOL    HW244829  14.051   1.287   2.706  0.3058  0.3775  0.4174
44284SOL     OW44830  12.029  13.757   7.514  0.2522  0.5856 -0.3540
44284SOL    HW144831  11.952  13.701   7.508 -0.4051  1.5217 -0.9273
44284SOL    HW244832  12.033  13.783   7.606 -0.1463  0.5651 -0.3295
44285SOL     OW44833   1.728  12.375   8.736 -0.1867  0.3894  0.1751
44285SOL    HW144834   1.771  12.451   8.698 -0.5387 -0.3320 -1.7583
44285SOL    HW244835   1.756  12.375   8.828  0.8224  2.1044 -0.0935
44286SOL     OW44836   1.122   0.419   1.306  0.1797  0.1892 -0.0534
44286SOL    HW144837   1.135   0.466   1.224 -0.3556 -0.7562 -0.6974
44286SOL    HW244838   1.078   0.481   1.364  1.7209  1.3003 -0.0173
44287SOL     OW44839  11.022   4.468  12.865 -0.5493  0.6075 -0.0290
44287SOL    HW144840  11.086   4.497  12.800  0.4384  0.5973  0.9048
44287SOL    HW244841  10.982   4.548  12.898 -1.3048  0.5936 -0.8785
44288SOL     OW44842   6.929   3.562  11.518 -0.5169 -0.0527  1.2855
44288SOL    HW144843   7.020   3.588  11.506 -0.6337  0.0666  0.6456
44288SOL    HW244844   6.881   3.644  11.527 -0.7651 -0.0592  0.1323
44289SOL     OW44845   8.536   0.093  10.797  0.2638 -0.0206  0.0357
44289SOL    HW144846   8.535  -0.002  10.804  0.5520 -0.1161 -1.1318
44289SOL    HW244847   8.445   0.119  10.813 -0.1205 -0.6163 -1.0980
44290SOL     OW44848   9.598   8.322   2.833 -0.1434 -0.1997  0.0230
44290SOL    HW144849   9.609   8.341   2.926 -1.3740  1.8822 -0.1896
44290SOL    HW244850   9.546   8.241   2.830 -1.5482  0.6243  1.1897
44291SOL     OW44851   1.394   5.609   9.311  0.0891  0.4387 -0.3342
44291SOL    HW144852   1.381   5.616   9.216  0.0058  0.6627 -0.3063
44291SOL    HW244853   1.334   5.540   9.338 -0.6468  1.0870 -0.2887
44292SOL     OW44854   7.331   3.919   0.345  0.4364 -0.2726  0.0392
44292SOL    HW144855   7.404   3.939   0.403  0.9846 -0.2753 -0.6388
44292SOL    HW244856   7.256   3.905   0.404  0.8352  0.3429  0.6995
44293SOL     OW44857   2.583  14.025   8.136  0.3786 -0.1905  0.1616
44293SOL    HW144858   2.659  14.030   8.078  1.5668  0.9713  1.7082
44293SOL    HW244859   2.602  14.089   8.205 -2.2891  0.5550  0.3104
44294SOL     OW44860   3.150  11.714   0.167 -0.9025  0.1821 -0.3393
44294SOL    HW144861   3.148  11.622   0.191 -0.7898  0.6286  1.5432
44294SOL    HW244862   3.067  11.730   0.123 -1.9040 -0.3396  1.3099
44295SOL     OW44863  12.008   8.777   6.687  0.1855  0.0364 -0.0198
44295SOL    HW144864  12.036   8.706   6.629 -1.2025  0.0233 -0.7062
44295SOL    HW244865  12.004   8.737   6.774 -0.8291 -0.8213 -0.4374
44296SOL     OW44866  13.548  11.439  13.529 -0.4845 -1.1966 -0.0269
44296SOL    HW144867  13.549  11.421  13.435 -0.4906 -0.4134 -0.1816
44296SOL    HW244868  13.547  11.352  13.570  1.0041 -1.5632 -0.7176
44297SOL     OW44869  13.694  11.501   2.116  0.4114  0.1306 -0.2829
44297SOL    HW144870  13.690  11.550   2.033  0.8269 -2.0804 -1.6839
44297SOL    HW244871  13.787  11.481   2.128  0.0934 -1.9367 -0.8224
44298SOL     OW44872   5.484   6.193   8.092  0.1121  0.2490  0.2630
44298SOL    HW144873   5.398   6.210   8.131 -0.7146 -0.9729 -0.9372
44298SOL    HW244874   5.541   6.261   8.129 -1.3216  0.9871  1.2091
44299SOL     OW44875  14.042   2.807   3.015  0.7259 -0.1547 -0.4106
44299SOL    HW144876  14.110   2.763   2.964 -0.0866 -0.3749 -1.3268
44299SOL    HW244877  13.962   2.796   2.963  0.1033  0.6103  0.3622
44300SOL     OW44878   3.313   1.829  13.170  0.5134 -0.0031 -0.2345
44300SOL    HW144879   3.404   1.813  13.198  0.0904 -2.7316 -0.0742
44300SOL    HW244880   3.295   1.757  13.108 -1.9545 -0.3425  0.7798
44301SOL     OW44881   5.202   9.841   7.195  0.1497  0.0590 -0.4855
44301SOL    HW144882   5.173   9.763   7.242 -1.8182  1.0915  0.1475
44301SOL    HW244883   5.270   9.879   7.251  0.8987 -1.0160 -0.6473
44302SOL     OW44884   8.851   4.000   2.760  0.0090  0.2899  0.0785
44302SOL    HW144885   8.764   4.040   2.753 -0.7424 -0.8132  2.1613
44302SOL    HW244886   8.835   3.911   2.790  1.7608 -0.9478 -2.2731
44303SOL     OW44887   6.095  12.802   1.853 -0.9184 -0.2415  0.2313
44303SOL    HW144888   6.019  12.850   1.886 -1.2191 -0.0867 -0.6687
44303SOL    HW244889   6.072  12.710   1.863 -1.0061 -0.1979  0.4408
44304SOL     OW44890  11.614   1.440   2.644 -0.1032  0.1970 -0.1626
44304SOL    HW144891  11.665   1.517   2.667  1.5143 -0.4514 -1.3750
44304SOL    HW244892  11.524   1.471   2.637  0.3902  1.7765  0.2321
44305SOL     OW44893  12.243   6.099  13.917  0.4614  0.1514  0.1340
44305SOL    HW144894  12.170   6.114  13.978  1.3649 -0.1732  1.3390
44305SOL    HW244895  12.306   6.168  13.937 -0.3427  1.7117 -2.3262
44306SOL     OW44896  13.631   9.811   8.341  0.3695 -0.5205 -0.3145
44306SOL    HW144897  13.725   9.816   8.355  0.2637  0.9446  0.0539
44306SOL    HW244898  13.622   9.766   8.257  1.3521 -1.3572  0.0031
44307SOL     OW44899  13.081   3.262  10.754  0.2154 -0.3123 -0.2299
44307SOL    HW144900  13.038   3.188  10.712  2.7415 -1.4925 -0.9067
44307SOL    HW244901  13.095   3.325  10.684 -3.3001  1.6727  0.6031
44308SOL     OW44902   3.325  11.134   0.583  0.0356  0.4588 -0.2543
44308SOL    HW144903   3.399  11.100   0.532 -1.1453  1.0634 -2.5340
44308SOL    HW244904   3.307  11.067   0.648 -0.1789 -1.8268 -2.5096
44309SOL     OW44905   2.508   5.454   9.497 -0.3591  0.1408 -0.1087
44309SOL    HW144906   2.447   5.479   9.567  1.0245 -1.3946  1.7448
44309SOL    HW244907   2.563   5.532   9.486 -0.7315  0.4839  0.3610
44310SOL     OW44908  10.354   5.503   8.091  0.0406  0.0693  0.0891
44310SOL    HW144909  10.338   5.591   8.056 -0.1968  0.9708  2.3374
44310SOL    HW244910  10.446   5.503   8.114  0.1387 -0.4359 -0.2874
44311SOL     OW44911   3.767  11.541   7.283 -0.0045  0.2965  0.3770
44311SOL    HW144912   3.818  11.480   7.228  1.4252  0.4886  1.4394
44311SOL    HW244913   3.738  11.609   7.222  0.2361 -0.3003 -0.4235
44312SOL     OW44914   5.971   4.362   6.734  0.0276  0.4363  0.1610
44312SOL    HW144915   5.935   4.446   6.703  0.4119 -0.2277 -2.2421
44312SOL    HW244916   6.065   4.378   6.743  0.1670  0.1509 -0.7431
44313SOL     OW44917   8.961   0.401   6.466 -0.2546 -0.7856 -0.4169
44313SOL    HW144918   8.952   0.388   6.372  1.8001 -0.8384 -0.6672
44313SOL    HW244919   9.050   0.372   6.485 -1.4536 -3.2134  2.0241
44314SOL     OW44920   9.582   9.461  13.272  0.0297 -0.0166  0.1237
44314SOL    HW144921   9.672   9.432  13.283 -0.5056 -2.8161 -1.8627
44314SOL    HW244922   9.536   9.426  13.348  0.2648 -0.1992  0.1834
44315SOL     OW44923   4.235   2.359  11.411 -0.2135 -0.4689 -0.3795
44315SOL    HW144924   4.214   2.298  11.340 -0.0117  0.2554 -1.0775
44315SOL    HW244925   4.158   2.356  11.469  0.5481 -2.7675  0.6180
44316SOL     OW44926   3.424   8.382   7.622 -0.4689 -0.1634  0.3000
44316SOL    HW144927   3.493   8.440   7.655 -0.8211  0.5026 -0.0973
44316SOL    HW244928   3.393   8.334   7.698 -0.3223  0.3378  0.6789
44317SOL     OW44929  12.667   0.629  12.574  0.2089  0.4540 -0.2376
44317SOL    HW144930  12.614   0.602  12.649  1.9843 -0.4431  0.7747
44317SOL    HW244931  12.631   0.581  12.500  0.8199 -1.7272  0.8046
44318SOL     OW44932  13.562   8.443   2.141  0.1474 -0.2912 -0.3177
44318SOL    HW144933  13.650   8.431   2.176  0.1184 -1.4765 -0.6217
44318SOL    HW244934  13.566   8.527   2.095  0.9379 -0.0395  0.1938
44319SOL     OW44935  12.960  11.410  11.360  0.2465  0.3624  0.0163
44319SOL    HW144936  12.864  11.408  11.366  0.1236  0.8195 -1.3848
44319SOL    HW244937  12.978  11.402  11.267  1.5430  1.4104  0.1522
44320SOL     OW44938   6.572   9.974  11.080  0.4635 -0.5410 -0.7732
44320SOL    HW144939   6.594  10.019  10.999 -0.4408 -0.1416 -0.8102
44320SOL    HW244940   6.496   9.920  11.058  0.4766 -0.7608 -0.2995
44321SOL     OW44941   0.354   2.354   5.885  0.6384  0.1967 -0.7124
44321SOL    HW144942   0.269   2.398   5.892  0.9710  1.1251 -2.0856
44321SOL    HW244943   0.336   2.273   5.838  0.4606  0.2343 -0.7082
44322SOL     OW44944  13.546   2.046  13.030 -0.8127  0.2582  0.1009
44322SOL    HW144945  13.596   2.122  13.001  0.4429 -0.3084  0.6938
44322SOL    HW244946  13.522   2.065  13.120 -0.5552 -0.0079  0.2293
44323SOL     OW44947   5.536  12.822  10.794  0.3263  0.1191  0.4933
44323SOL    HW144948   5.603  12.868  10.744 -0.4136  1.6465  0.8490
44323SOL    HW244949   5.517  12.743  10.743  0.1650  1.2130 -1.2059
44324SOL     OW44950   8.193   6.453   9.955  0.1193 -0.0454  0.2480
44324SOL    HW144951   8.176   6.364   9.987 -0.0376 -0.6908 -1.5552
44324SOL    HW244952   8.288   6.462   9.961  0.0245  0.3131  1.9597
44325SOL     OW44953  10.233   7.302   2.791 -0.1733 -0.1827  0.3442
44325SOL    HW144954  10.289   7.335   2.721 -1.8745  2.1118 -0.0400
44325SOL    HW244955  10.177   7.237   2.749  1.2902 -1.5794  0.4679
44326SOL     OW44956   2.287   3.156  13.591  0.0813  0.0964  0.1698
44326SOL    HW144957   2.207   3.136  13.639 -1.0884 -1.5505 -2.2273
44326SOL    HW244958   2.260   3.219  13.525  0.4658 -1.1425 -1.2455
44327SOL     OW44959   0.495  11.140   1.942  0.4452  0.5269  0.1363
44327SOL    HW144960   0.513  11.067   1.883  0.0812  0.3826  0.2057
44327SOL    HW244961   0.404  11.164   1.924  0.8044  1.4975 -0.4824
44328SOL     OW44962   8.913  10.578   0.124  0.3860  0.1991 -0.6298
44328SOL    HW144963   8.926  10.608   0.034  1.5521 -2.2821 -1.3841
44328SOL    HW244964   8.825  10.540   0.125 -0.6846  2.5336  0.0567
44329SOL     OW44965  12.969   3.272   4.843  0.1617  0.3134 -0.1981
44329SOL    HW144966  12.923   3.339   4.893 -0.6251 -0.2675 -0.1296
44329SOL    HW244967  12.936   3.283   4.753 -0.5410 -0.4618 -0.0436
44330SOL     OW44968   8.273   4.981   9.726  0.2933 -0.0944  0.4643
44330SOL    HW144969   8.230   4.924   9.663 -0.7094  0.5513  0.5455
44330SOL    HW244970   8.294   4.924   9.800 -0.9150 -0.3230  0.6439
44331SOL     OW44971   3.809  13.136  12.339  0.3406  0.3584 -0.4271
44331SOL    HW144972   3.897  13.170  12.327  0.1275  0.2680 -2.7280
44331SOL    HW244973   3.753  13.213  12.343  0.1838  0.4373 -2.6720
44332SOL     OW44974   2.684  12.042   3.965 -0.3753 -0.6977  0.1833
44332SOL    HW144975   2.623  12.115   3.953 -1.8439 -1.5160  1.9429
44332SOL    HW244976   2.670  11.986   3.889 -1.5718 -0.6529  0.3447
44333SOL     OW44977  11.382  10.840   4.600 -0.1586  0.7958 -0.1570
44333SOL    HW144978  11.338  10.862   4.682 -0.5680  0.3467 -0.2513
44333SOL    HW244979  11.471  10.873   4.611 -0.8647  2.9122 -0.4811
44334SOL     OW44980   7.278   2.586   8.457  0.0488  0.3736  0.3671
44334SOL    HW144981   7.256   2.574   8.550 -1.5188  0.7274  0.0665
44334SOL    HW244982   7.240   2.510   8.413  2.1115 -0.5998  0.1623
44335SOL     OW44983  12.936   3.606   2.003 -0.0753 -0.4060  0.4001
44335SOL    HW144984  12.894   3.595   2.089 -2.0613  0.8599 -0.3510
44335SOL    HW244985  12.867   3.590   1.940  0.7761  0.8591 -0.9308
44336SOL     OW44986  10.605   2.258   5.721 -0.2943 -0.0507 -0.5330
44336SOL    HW144987  10.566   2.339   5.752  2.7658  1.3788 -0.0878
44336SOL    HW244988  10.542   2.224   5.657 -2.5146  1.6428  0.6170
44337SOL     OW44989  13.497  13.377  10.975  0.3414 -0.1057  0.0643
44337SOL    HW144990  13.497  13.380  10.879  1.1070 -1.4492 -0.0028
44337SOL    HW244991  13.511  13.468  11.001 -3.2469  0.9014 -0.9797
44338SOL     OW44992   5.799   3.656   9.110  0.5272  0.1224 -0.0070
44338SOL    HW144993   5.829   3.746   9.128  0.3469  0.0539  0.6802
44338SOL    HW244994   5.736   3.638   9.180 -1.0361  0.2104 -1.3291
44339SOL     OW44995   2.390  12.376  12.211  0.1817 -0.1868 -0.0251
44339SOL    HW144996   2.392  12.467  12.183 -1.4166 -0.4085 -1.0324
44339SOL    HW244997   2.324  12.336  12.155  1.2330 -2.0990  0.0183
44340SOL     OW44998   2.798  12.896   4.979 -0.0803 -0.8911  0.2628
44340SOL    HW144999   2.874  12.842   5.000 -0.1905 -1.2643 -0.2747
44340SOL    HW245000   2.779  12.876   4.887 -0.4174 -0.2972  0.1951
44341SOL     OW45001   7.391   8.042   0.202  0.3572  0.3870  0.0611
44341SOL    HW145002   7.410   7.950   0.216  2.2329  1.0522  2.4574
44341SOL    HW245003   7.322   8.062   0.266  1.0300  0.9655  0.6148
44342SOL     OW45004   4.990   0.806   2.207  0.1094 -0.3794  0.0035
44342SOL    HW145005   5.006   0.892   2.245 -1.2296 -0.2569  0.3310
44342SOL    HW245006   5.045   0.746   2.258 -0.3831  0.0176  1.0216
44343SOL     OW45007   7.211   6.561   1.741  0.5282  0.1845  0.3067
44343SOL    HW145008   7.168   6.632   1.789 -1.4033 -0.3689 -0.5158
44343SOL    HW245009   7.267   6.518   1.806  0.6776  1.5997  1.1481
44344SOL     OW45010   7.881   8.237   3.477 -0.1762 -0.6150  0.2793
44344SOL    HW145011   7.957   8.265   3.527 -0.5961 -1.0357  1.1928
44344SOL    HW245012   7.917   8.187   3.404  0.4774  0.6034 -0.2490
44345SOL     OW45013  10.929   0.034   2.044  0.2382  0.1898  0.1266
44345SOL    HW145014  10.922  -0.007   1.958  0.8037 -0.5191  0.4030
44345SOL    HW245015  10.888   0.120   2.034  0.5116  0.2083 -0.9054
44346SOL     OW45016   2.241   0.846   6.061 -0.5742 -0.2545  0.5196
44346SOL    HW145017   2.276   0.780   6.001  1.2563  1.3441 -0.2721
44346SOL    HW245018   2.305   0.850   6.132 -1.4477 -0.3471  1.3418
44347SOL     OW45019   6.634  13.346   1.114 -1.0433 -0.0811 -0.4450
44347SOL    HW145020   6.716  13.298   1.121 -0.8562 -0.1162 -2.2782
44347SOL    HW245021   6.580  13.292   1.055 -2.3718 -0.0312  0.6733
44348SOL     OW45022   4.870  11.084   3.030 -0.8164 -0.4581 -0.1475
44348SOL    HW145023   4.945  11.140   3.011 -1.4351 -0.0622 -1.5221
44348SOL    HW245024   4.895  11.038   3.111  0.3347  0.6436  0.1590
44349SOL     OW45025  12.028   7.877   6.859  0.5592 -0.4482  0.5638
44349SOL    HW145026  12.073   7.936   6.919  0.8441 -1.0020  0.9067
44349SOL    HW245027  11.936   7.887   6.880  0.4015  1.3920 -0.7746
44350SOL     OW45028   5.703  13.050  10.362  0.1894 -0.0296 -0.4928
44350SOL    HW145029   5.681  13.000  10.440  1.4493 -1.2489 -0.8752
44350SOL    HW245030   5.733  12.984  10.299  0.3257  1.0490 -1.5946
44351SOL     OW45031   4.387  12.086   7.770  0.1903  0.1383 -0.4227
44351SOL    HW145032   4.405  11.996   7.797 -0.3194 -0.1674 -1.0945
44351SOL    HW245033   4.299  12.083   7.732 -0.1951  1.0896  0.3511
44352SOL     OW45034   0.338   8.086  13.485  0.3279  0.1388 -0.1751
44352SOL    HW145035   0.263   8.122  13.532  0.5142  0.2063  0.0722
44352SOL    HW245036   0.368   8.013  13.539 -0.9440 -1.3762 -1.3788
44353SOL     OW45037   1.451   3.076   2.776 -0.2230  0.4635 -0.0472
44353SOL    HW145038   1.501   3.027   2.710 -1.7701 -2.0890  0.5532
44353SOL    HW245039   1.473   3.034   2.859 -1.8156  0.5855  0.4647
44354SOL     OW45040  10.169   6.822  10.981 -0.2748  0.0116 -0.2063
44354SOL    HW145041  10.083   6.807  10.942  0.2492  0.1576 -1.4789
44354SOL    HW245042  10.172   6.916  10.997  0.3127  0.3338 -1.9263
44355SOL     OW45043  10.458  11.989  12.226 -0.3050  0.2940 -0.2073
44355SOL    HW145044  10.464  12.084  12.233  0.7694  0.1151  4.6286
44355SOL    HW245045  10.392  11.975  12.158  1.0034  4.3309 -2.6984
44356SOL     OW45046   3.598   9.509   5.099 -0.1156  0.2069 -0.4704
44356SOL    HW145047   3.567   9.570   5.167  1.8068  1.2752 -0.4843
44356SOL    HW245048   3.643   9.565   5.036 -1.0141 -0.8954 -2.1588
44357SOL     OW45049   1.495   2.367   5.493  0.1401  0.2517 -0.0971
44357SOL    HW145050   1.494   2.277   5.459 -0.7944  0.8514 -1.8119
44357SOL    HW245051   1.443   2.363   5.573  2.3708 -1.2143  1.4068
44358SOL     OW45052   0.892   9.845   6.516 -0.0877 -0.0129  0.3221
44358SOL    HW145053   0.814   9.791   6.512 -0.2522  0.1236  1.2901
44358SOL    HW245054   0.965   9.784   6.502 -0.3878  0.1337 -2.4405
44359SOL     OW45055   1.647   6.696   2.166  0.6537 -0.5737  0.4046
44359SOL    HW145056   1.705   6.620   2.167 -0.7852 -1.7887 -1.6897
44359SOL    HW245057   1.570   6.668   2.215 -0.2505 -0.8417 -1.1033
44360SOL     OW45058   8.004   3.198   8.631 -0.0775 -1.1939  0.1170
44360SOL    HW145059   7.997   3.178   8.538  0.0641 -0.8601  0.0328
44360SOL    HW245060   7.964   3.123   8.675  0.5131 -1.6894 -0.1878
44361SOL     OW45061   1.411   1.296   4.954  0.0374 -0.4668 -0.2009
44361SOL    HW145062   1.504   1.278   4.971  0.2021 -0.2880 -0.8727
44361SOL    HW245063   1.404   1.391   4.964 -0.0461 -0.4647 -0.2837
44362SOL     OW45064   2.025   6.477   7.429 -0.2046  0.5388 -0.0468
44362SOL    HW145065   2.078   6.516   7.498 -0.5070 -0.3261  0.6904
44362SOL    HW245066   2.010   6.387   7.458  0.8227 -0.2883 -1.8890
44363SOL     OW45067  10.454   1.758  12.606  0.0027 -0.0405  1.0012
44363SOL    HW145068  10.509   1.683  12.584 -0.8956 -0.5580  0.4398
44363SOL    HW245069  10.475   1.778  12.697  1.3198 -0.0364  0.7152
44364SOL     OW45070   8.491   1.323  12.919  0.4891  0.0825 -0.6972
44364SOL    HW145071   8.564   1.273  12.881  2.4182  1.1598  1.3192
44364SOL    HW245072   8.464   1.272  12.995  0.5092  0.6674 -0.2907
44365SOL     OW45073   7.207   6.847   9.413  0.2514 -0.1783 -0.0494
44365SOL    HW145074   7.264   6.842   9.490  0.1589  0.1731  0.0424
44365SOL    HW245075   7.177   6.757   9.400  0.6615 -0.3272  0.0251
44366SOL     OW45076  11.182   6.434  13.214 -0.2814 -0.0004  0.2122
44366SOL    HW145077  11.204   6.503  13.276 -0.5477  0.7156 -0.4709
44366SOL    HW245078  11.257   6.428  13.155 -0.3456 -0.1534  0.1437
44367SOL     OW45079   2.781   8.703  13.425  0.7002  0.1667 -0.1340
44367SOL    HW145080   2.743   8.616  13.416  2.0376 -0.3622 -0.8397
44367SOL    HW245081   2.875   8.690  13.416  0.9584  1.6400  0.1322
44368SOL     OW45082  13.218   6.836   9.478  0.2499 -0.8314  0.0306
44368SOL    HW145083  13.194   6.744   9.464 -0.2663 -0.7642  0.4444
44368SOL    HW245084  13.146   6.872   9.530 -0.0413  0.0632 -0.9614
44369SOL     OW45085   6.162   5.620   2.843 -0.1129  0.6898 -0.0097
44369SOL    HW145086   6.141   5.592   2.754 -1.4883  0.2978  0.4120
44369SOL    HW245087   6.217   5.697   2.831 -0.9750  1.1498 -1.2148
44370SOL     OW45088  11.976   0.888   3.749 -0.1561  0.3271  0.3857
44370SOL    HW145089  11.957   0.916   3.660  0.5252 -0.6444 -0.0792
44370SOL    HW245090  12.015   0.802   3.740 -1.8915 -0.6813  1.7508
44371SOL     OW45091   5.812  10.853  11.418  0.2889  0.2887  0.1621
44371SOL    HW145092   5.873  10.780  11.428  0.2733  0.4029  1.2365
44371SOL    HW245093   5.852  10.909  11.352  0.3092 -0.6756 -0.6574
44372SOL     OW45094   1.318   3.008   7.841  0.1996  0.2114  0.0436
44372SOL    HW145095   1.303   2.938   7.905 -0.8745 -0.2656 -0.7051
44372SOL    HW245096   1.396   2.980   7.793  0.3680  0.0358  0.4143
44373SOL     OW45097   3.910  10.741   0.586 -0.8654 -0.0272 -0.2457
44373SOL    HW145098   3.835  10.799   0.597 -1.3060 -0.5441 -0.4506
44373SOL    HW245099   3.893  10.667   0.643 -0.3154  0.0298  0.0027
44374SOL     OW45100  10.148   0.060   4.998 -0.0156  0.4280  0.5422
44374SOL    HW145101  10.113   0.143   4.966 -1.0369  0.4448  1.6550
44374SOL    HW245102  10.185   0.018   4.919 -1.9103  0.7201 -0.5588
44375SOL     OW45103  12.738  10.181  13.713  0.2141 -0.3672 -0.3909
44375SOL    HW145104  12.664  10.124  13.694 -0.2512  0.8297 -2.5163
44375SOL    HW245105  12.704  10.270  13.698  1.4247  0.3732  0.9822
44376SOL     OW45106   3.798  11.603   0.558 -0.2364 -0.1040  0.0685
44376SOL    HW145107   3.768  11.678   0.506  1.5846  1.4437  1.1445
44376SOL    HW245108   3.741  11.603   0.635 -0.9747 -0.5490 -0.4665
44377SOL     OW45109   0.717  13.162   1.295  0.3871  0.1235  0.3758
44377SOL    HW145110   0.659  13.110   1.351  1.3993 -1.5168 -0.0210
44377SOL    HW245111   0.695  13.253   1.315 -0.4132 -0.4333  2.2241
44378SOL     OW45112   9.105   5.441   8.541 -0.0405  0.0138  0.3487
44378SOL    HW145113   9.160   5.369   8.572  3.3356  1.3662 -1.9816
44378SOL    HW245114   9.032   5.398   8.496  1.3592 -1.9435 -0.1602
44379SOL     OW45115   2.344   6.052   8.396 -0.4843 -0.2101  0.0775
44379SOL    HW145116   2.274   6.006   8.441 -2.7111  1.6440 -1.3113
44379SOL    HW245117   2.389   6.102   8.464 -0.7778 -1.0637  0.9124
44380SOL     OW45118  10.499  10.941   4.961  0.2484 -0.0995  0.1751
44380SOL    HW145119  10.522  10.972   4.874 -2.0313  1.3637  0.0144
44380SOL    HW245120  10.521  11.014   5.019  1.5528 -0.9814  0.8401
44381SOL     OW45121   0.149   9.638   2.910 -0.1864  0.1278 -0.3136
44381SOL    HW145122   0.141   9.733   2.903 -3.0428 -0.1132 -1.9366
44381SOL    HW245123   0.109   9.616   2.994  1.7102  0.3817  0.7146
44382SOL     OW45124   8.458  11.116   9.903  0.2036 -0.2554  0.1348
44382SOL    HW145125   8.395  11.110   9.831 -0.0511  1.2257  0.1986
44382SOL    HW245126   8.417  11.175   9.966 -0.1590 -2.5198  2.1475
44383SOL     OW45127   4.955  11.064   5.971 -0.1914  0.1376  0.2474
44383SOL    HW145128   4.881  11.013   5.936  1.1883 -1.5553 -0.3201
44383SOL    HW245129   4.983  11.017   6.049  0.3190  0.7432  0.4413
44384SOL     OW45130  12.627   7.060   8.572 -0.5314  0.2411 -0.0325
44384SOL    HW145131  12.714   7.089   8.598 -0.8207  0.3358  0.8475
44384SOL    HW245132  12.567   7.113   8.624 -1.1388  0.5572 -1.0124
44385SOL     OW45133  11.646  13.512   8.171 -0.1871  0.5565  0.0355
44385SOL    HW145134  11.609  13.580   8.115 -1.7470  0.0721  0.4186
44385SOL    HW245135  11.613  13.430   8.135  0.0205  0.1381  0.7671
44386SOL     OW45136   2.537   6.797  12.074 -0.3262 -0.0647  0.0403
44386SOL    HW145137   2.492   6.734  12.018 -1.3717  1.3930 -0.8293
44386SOL    HW245138   2.582   6.856  12.014 -1.0034  1.1949  0.7246
44387SOL     OW45139   9.596  11.843  11.734  0.7538 -0.3121 -0.0832
44387SOL    HW145140   9.657  11.800  11.674  0.3771 -1.6080  0.4439
44387SOL    HW245141   9.558  11.772  11.785 -0.2160  0.6094  0.5113
44388SOL     OW45142   1.853   9.261  13.267  0.4505  0.1865 -0.3088
44388SOL    HW145143   1.822   9.293  13.183  2.2732  1.4700 -0.5670
44388SOL    HW245144   1.779   9.273  13.327 -1.0282 -1.1777 -1.7667
44389SOL     OW45145  10.924   8.138  12.355 -0.2549  0.4462  0.0839
44389SOL    HW145146  10.982   8.085  12.300 -0.3231  1.3537 -0.8909
44389SOL    HW245147  10.897   8.210  12.298 -3.1321 -0.4564  0.1799
44390SOL     OW45148   1.374   4.507   7.413 -0.1070  0.2283  0.2027
44390SOL    HW145149   1.304   4.570   7.394 -1.1971 -1.0825 -0.2954
44390SOL    HW245150   1.447   4.535   7.358  1.0838  3.6377  3.1449
44391SOL     OW45151   4.657   3.092   4.104  0.6783 -0.8241 -0.1635
44391SOL    HW145152   4.728   3.028   4.100  0.6996 -0.7486 -1.1801
44391SOL    HW245153   4.696   3.173   4.074  0.2756 -0.6768 -0.2990
44392SOL     OW45154   1.247  12.470   9.840  0.1730  0.1019 -0.2690
44392SOL    HW145155   1.331  12.515   9.852  0.5766 -0.7213  0.0421
44392SOL    HW245156   1.253  12.394   9.898 -0.6481 -0.1543 -0.5216
44393SOL     OW45157   4.527   0.206   2.604  0.0138 -0.0275 -0.2777
44393SOL    HW145158   4.525   0.173   2.693 -2.0689  2.6674  0.8305
44393SOL    HW245159   4.613   0.247   2.595 -0.2083  0.7721  0.9827
44394SOL     OW45160   2.622   3.778   2.683 -0.1290 -0.0269  0.4915
44394SOL    HW145161   2.648   3.834   2.756  0.0158  0.3241  0.1764
44394SOL    HW245162   2.669   3.814   2.608  1.7611 -1.9211  0.6706
44395SOL     OW45163   3.856   0.925   5.596  0.8169 -0.3666  0.1707
44395SOL    HW145164   3.868   0.840   5.640  0.2667 -0.5758 -0.0807
44395SOL    HW245165   3.815   0.903   5.513  0.4027  0.1759  0.2265
44396SOL     OW45166   9.088  13.894  11.662 -0.1111 -0.4289  0.2228
44396SOL    HW145167   9.091  13.896  11.757  0.9456 -2.1973  0.2694
44396SOL    HW245168   9.156  13.955  11.634  0.4862 -0.9092  0.6213
44397SOL     OW45169   6.185   1.720  13.427 -0.0458 -0.0432 -0.1250
44397SOL    HW145170   6.179   1.779  13.352  1.1417 -0.5002 -0.6113
44397SOL    HW245171   6.195   1.633  13.388  1.5379 -0.1820  0.5216
44398SOL     OW45172   2.057  12.662  10.604  0.2431 -0.2191 -0.2824
44398SOL    HW145173   2.152  12.667  10.596  0.2501 -0.8576 -0.6981
44398SOL    HW245174   2.031  12.748  10.636  1.0265 -0.2673  0.5147
44399SOL     OW45175   1.706   5.563   1.707 -0.3989  0.6432  0.2994
44399SOL    HW145176   1.738   5.619   1.637 -1.8264  0.4988 -0.5104
44399SOL    HW245177   1.640   5.615   1.752 -1.2631 -0.1222 -0.0443
44400SOL     OW45178   8.138   7.157   9.108 -0.1248  0.4751 -0.4167
44400SOL    HW145179   8.205   7.094   9.134 -0.8932  0.1954  1.0107
44400SOL    HW245180   8.187   7.228   9.067  0.7907 -0.8464 -1.7200
44401SOL     OW45181   8.344   2.995   5.692  0.5005 -0.4650  0.5591
44401SOL    HW145182   8.267   3.007   5.748 -1.1292 -0.1736 -1.6454
44401SOL    HW245183   8.368   3.084   5.666  0.6793 -0.6633  0.0502
44402SOL     OW45184   0.376  11.592   5.108  0.2017  0.4165  0.0131
44402SOL    HW145185   0.283  11.588   5.130  0.2285  0.6985  0.1902
44402SOL    HW245186   0.416  11.520   5.158 -0.0007 -0.0486 -0.4885
44403SOL     OW45187  10.621   5.870  13.295 -0.2485 -0.0341  0.3735
44403SOL    HW145188  10.666   5.788  13.314  1.4859  0.6973 -0.3186
44403SOL    HW245189  10.560   5.848  13.225  0.1200 -0.7670  0.2767
44404SOL     OW45190   7.781   4.959   3.363 -0.1342  0.0246  0.3236
44404SOL    HW145191   7.788   4.917   3.448  1.5840  1.5781  1.0216
44404SOL    HW245192   7.694   5.000   3.364 -0.3366 -0.3920  1.1009
44405SOL     OW45193   6.253   9.039  11.581  0.4543  0.2552  0.2098
44405SOL    HW145194   6.184   9.063  11.643  1.7385  1.7914  1.1492
44405SOL    HW245195   6.294   8.962  11.620 -1.4439 -1.4735 -0.9995
44406SOL     OW45196  10.784  12.478  10.341  0.0148  0.4765 -0.4178
44406SOL    HW145197  10.826  12.556  10.378  0.6060  0.2785 -0.6539
44406SOL    HW245198  10.796  12.411  10.407 -3.7429  1.4345  1.5049
44407SOL     OW45199   8.796   5.352   2.716 -0.0036  0.3625  0.0349
44407SOL    HW145200   8.746   5.301   2.651  0.1333 -0.2960  0.4348
44407SOL    HW245201   8.853   5.288   2.758 -0.4075  0.6908  1.1185
44408SOL     OW45202   0.680  12.356   7.543 -0.4382  0.1376  0.3239
44408SOL    HW145203   0.717  12.377   7.629 -1.8633  0.5356  0.8751
44408SOL    HW245204   0.646  12.267   7.553 -0.3061  0.0614  0.0748
44409SOL     OW45205  10.030   8.199   6.818  0.5288  0.0709 -0.1718
44409SOL    HW145206   9.977   8.268   6.778  1.7170  1.1757  0.0781
44409SOL    HW245207  10.121   8.224   6.798  0.9829 -1.6660 -0.4395
44410SOL     OW45208   6.270   3.783  13.873  0.3843  0.5168  1.0200
44410SOL    HW145209   6.303   3.695  13.893  3.2621  0.9899 -1.0361
44410SOL    HW245210   6.190   3.766  13.822 -0.2052 -0.8038  2.2883
44411SOL     OW45211  11.339   9.454   1.635  0.0531  0.1242 -0.1479
44411SOL    HW145212  11.299   9.398   1.569 -2.0543 -0.2898  1.3530
44411SOL    HW245213  11.400   9.397   1.682 -0.5466 -0.3656  0.0449
44412SOL     OW45214   6.774   2.690   4.082 -0.2001 -0.6180  0.3298
44412SOL    HW145215   6.831   2.763   4.104 -1.2156 -0.1226  1.4489
44412SOL    HW245216   6.692   2.732   4.056 -0.0446 -1.3088 -1.3998
44413SOL     OW45217   5.980   7.631   0.651 -0.2761  0.0983  0.4005
44413SOL    HW145218   5.995   7.545   0.690  0.6678 -0.0766 -0.3005
44413SOL    HW245219   5.889   7.628   0.622 -0.2012 -0.7417  0.2130
44414SOL     OW45220  13.982  12.782   3.354 -0.1576  0.2777  0.2046
44414SOL    HW145221  14.010  12.774   3.262 -0.0431 -0.7219  0.3254
44414SOL    HW245222  14.064  12.781   3.404 -0.3088 -1.3207  0.4623
44415SOL     OW45223   6.078   3.500   6.247 -0.2607 -0.5465 -0.1044
44415SOL    HW145224   6.040   3.533   6.166 -1.8934 -0.3210  0.7224
44415SOL    HW245225   6.091   3.406   6.230  0.4441 -0.3139 -0.9769
44416SOL     OW45226   4.515   0.999   0.822 -0.0576  0.0830  0.2246
44416SOL    HW145227   4.547   1.008   0.732  0.2944 -0.8109  0.2420
44416SOL    HW245228   4.591   0.967   0.870 -0.8759 -1.8670  0.3210
44417SOL     OW45229   5.528  12.755   4.459 -0.1121 -0.1509  0.4261
44417SOL    HW145230   5.584  12.801   4.397 -1.2304  0.1839 -0.3675
44417SOL    HW245231   5.573  12.764   4.543  1.5698 -0.8348 -0.3491
44418SOL     OW45232   2.070  13.115   1.225  0.0191  0.1795  0.2970
44418SOL    HW145233   2.043  13.027   1.198 -0.9734  0.3985  0.5477
44418SOL    HW245234   2.160  13.123   1.194 -0.5418 -0.1731 -1.5073
44419SOL     OW45235   9.784  10.860   6.021 -0.1619  0.1768  0.1822
44419SOL    HW145236   9.834  10.785   6.053 -1.5971 -0.0181  2.1432
44419SOL    HW245237   9.791  10.854   5.925  2.6576 -0.3781  0.3382
44420SOL     OW45238   5.807   5.045  12.738 -0.2256  0.2975  0.5015
44420SOL    HW145239   5.754   5.107  12.688  0.1525  0.4635  0.2972
44420SOL    HW245240   5.785   4.960  12.700 -0.9332  0.2701  0.9525
44421SOL     OW45241  11.728   2.549  13.838 -0.2529 -0.1350  0.5872
44421SOL    HW145242  11.665   2.611  13.874  1.1146  1.0819  0.9918
44421SOL    HW245243  11.812   2.575  13.876  0.3089 -2.6284  1.2579
44422SOL     OW45244   4.753   3.212   0.363 -0.2284  0.1094 -0.4840
44422SOL    HW145245   4.807   3.276   0.411 -1.9649  1.8502 -0.7588
44422SOL    HW245246   4.710   3.162   0.432 -1.3349  1.4126 -0.1928
44423SOL     OW45247   4.717  11.796   8.476  0.4971 -0.4073 -0.2201
44423SOL    HW145248   4.792  11.775   8.532  1.8470 -2.1560 -2.5141
44423SOL    HW245249   4.703  11.890   8.489  1.6548 -0.4815  1.9106
44424SOL     OW45250   9.980   1.031   0.292 -0.4646 -0.0717  0.3203
44424SOL    HW145251  10.055   1.047   0.350 -0.8802  0.7512  0.6525
44424SOL    HW245252  10.011   0.965   0.230  1.1072  1.4654 -0.6100
44425SOL     OW45253   0.128   8.289   8.163 -0.3943 -0.2998 -0.0547
44425SOL    HW145254   0.099   8.380   8.154  1.2750  0.3851  0.9813
44425SOL    HW245255   0.081   8.257   8.240  1.3735  0.7843  1.5805
44426SOL     OW45256   8.449   4.625   1.372  0.4246  0.0638 -0.0134
44426SOL    HW145257   8.361   4.591   1.353  0.1408  0.3043  0.8177
44426SOL    HW245258   8.463   4.601   1.464  0.9414  0.6518  0.0588
44427SOL     OW45259  11.711  11.384   4.268  0.0116  0.0479 -0.0346
44427SOL    HW145260  11.646  11.339   4.322  0.2475 -0.0291  0.1854
44427SOL    HW245261  11.722  11.469   4.310 -0.3718  0.2819 -0.4026
44428SOL     OW45262   2.394   2.116   0.752 -0.3487 -0.0265  0.0713
44428SOL    HW145263   2.486   2.094   0.740 -0.4180  0.4450 -1.6243
44428SOL    HW245264   2.353   2.034   0.779  0.4052 -0.4979 -0.1928
44429SOL     OW45265   9.578   5.700  11.602  0.0526 -0.0273 -0.2357
44429SOL    HW145266   9.673   5.693  11.611 -0.1169 -1.3287  0.8811
44429SOL    HW245267   9.547   5.609  11.604 -1.1632  0.3399 -1.2816
44430SOL     OW45268   6.800   1.854   3.445  1.0643  0.0124 -0.3719
44430SOL    HW145269   6.801   1.777   3.389  0.4200 -0.9394  0.8847
44430SOL    HW245270   6.879   1.846   3.499  0.2685 -0.5419  0.7435
44431SOL     OW45271  10.691  14.011  11.623  0.1423 -0.2762  0.0869
44431SOL    HW145272  10.634  13.935  11.608  0.6760 -0.6413 -0.1304
44431SOL    HW245273  10.778  13.974  11.632  0.3992  0.3106  0.0468
44432SOL     OW45274  11.465  11.936   4.999  0.2014  0.0247  0.1189
44432SOL    HW145275  11.372  11.935   4.978 -0.4017 -0.2042  2.5552
44432SOL    HW245276  11.503  11.865   4.946 -1.3856 -1.2374  0.5999
44433SOL     OW45277  10.685   5.029   2.417  0.4233 -0.1838  0.6084
44433SOL    HW145278  10.597   4.997   2.435 -0.8031  2.0408 -0.8972
44433SOL    HW245279  10.692   5.027   2.321  0.9707  2.0739  0.5464
44434SOL     OW45280   6.230  11.604   0.113 -0.1608  0.1313  0.0086
44434SOL    HW145281   6.214  11.608   0.019  0.4103 -1.2663 -0.1697
44434SOL    HW245282   6.304  11.663   0.127 -0.0278  0.0820 -0.4670
44435SOL     OW45283   0.307   1.194   5.870 -0.3471 -0.0610 -0.6072
44435SOL    HW145284   0.250   1.244   5.812 -0.5513 -0.5522 -0.8292
44435SOL    HW245285   0.256   1.183   5.950  0.0797  0.9525 -0.1716
44436SOL     OW45286   2.150   2.397  13.184 -0.3037 -0.0730  0.2631
44436SOL    HW145287   2.155   2.302  13.195 -1.1965 -0.0152  1.2031
44436SOL    HW245288   2.240   2.427  13.199  0.0227 -0.7778 -0.2215
44437SOL     OW45289   1.145   1.746   1.889  0.0914 -0.4208 -0.2249
44437SOL    HW145290   1.207   1.812   1.920 -2.1108  1.1566  1.0373
44437SOL    HW245291   1.134   1.686   1.963 -2.5749  1.4186  1.0284
44438SOL     OW45292  12.816   0.277  11.594 -0.2807 -0.2749 -0.0853
44438SOL    HW145293  12.911   0.267  11.606 -0.3938 -0.2260  0.8903
44438SOL    HW245294  12.807   0.306  11.503  0.5192 -1.8563 -0.7006
44439SOL     OW45295  13.636  13.768   3.687 -0.0612  0.2803  0.3927
44439SOL    HW145296  13.644  13.763   3.783 -0.4529 -2.9996  0.3723
44439SOL    HW245297  13.583  13.692   3.664  0.4273  0.7160 -2.4941
44440SOL     OW45298   7.670   7.778   2.611  0.1938  0.3774  0.1018
44440SOL    HW145299   7.700   7.848   2.670  0.9669 -0.2484  0.4667
44440SOL    HW245300   7.580   7.802   2.590  0.1345  0.9803  0.9798
44441SOL     OW45301  12.308   1.448  13.021  0.2888 -0.7317  0.0318
44441SOL    HW145302  12.311   1.522  13.082  0.6150 -0.5025 -0.2586
44441SOL    HW245303  12.400   1.425  13.006  0.1920 -1.1474  0.0586
44442SOL     OW45304  10.187  13.633   7.128 -0.0642 -0.0258 -0.3505
44442SOL    HW145305  10.259  13.595   7.078  0.9909  0.7941  0.4976
44442SOL    HW245306  10.216  13.722   7.149 -1.7886  0.7203 -0.9201
44443SOL     OW45307   2.027  10.832   2.992  0.0082  0.0637 -0.1461
44443SOL    HW145308   2.095  10.772   3.022 -1.1214 -1.3618 -0.3192
44443SOL    HW245309   1.999  10.877   3.072  0.9780  0.4830 -0.0362
44444SOL     OW45310  10.097   7.604  12.689 -0.3960  0.1236  0.0947
44444SOL    HW145311  10.043   7.677  12.721 -0.5895  1.2251 -2.4870
44444SOL    HW245312  10.183   7.643  12.674  0.2650 -0.8636  1.1513
44445SOL     OW45313   5.183   3.428   9.948  0.3596 -0.0171 -0.4719
44445SOL    HW145314   5.220   3.490  10.012 -0.0063  1.0391 -1.2538
44445SOL    HW245315   5.147   3.358  10.002  1.3397  0.1283  0.4137
44446SOL     OW45316   7.651   3.070   7.587 -0.0982  0.5286  0.4300
44446SOL    HW145317   7.701   3.031   7.659  0.6615  1.9655  0.7090
44446SOL    HW245318   7.583   3.006   7.568 -0.2486  0.0735  2.3548
44447SOL     OW45319   1.498   0.653   7.495 -0.1107  0.2322  0.0965
44447SOL    HW145320   1.456   0.732   7.528  0.2338  0.2150  0.5858
44447SOL    HW245321   1.545   0.681   7.417 -2.2039 -0.0203 -1.3401
44448SOL     OW45322   3.344   6.854   3.875  0.4020  0.1431  0.1962
44448SOL    HW145323   3.328   6.827   3.785 -0.3753  1.8050 -0.2124
44448SOL    HW245324   3.413   6.796   3.906 -1.8276 -2.9627 -0.1952
44449SOL     OW45325  12.502   8.644   1.488  0.0003 -0.3340  0.0615
44449SOL    HW145326  12.461   8.692   1.416  2.1600  1.6690  0.0592
44449SOL    HW245327  12.508   8.708   1.559  1.9348 -0.9189  0.4757
44450SOL     OW45328   4.370   9.098   9.625 -0.5927  0.0851  0.2333
44450SOL    HW145329   4.322   9.121   9.546 -1.6703 -0.4652  0.7049
44450SOL    HW245330   4.363   9.003   9.631  1.2387 -0.1029 -0.0926
44451SOL     OW45331   8.183   1.352   0.484 -0.3910 -0.2224 -0.9202
44451SOL    HW145332   8.230   1.274   0.454  0.9677 -0.3585  1.3459
44451SOL    HW245333   8.121   1.319   0.549  1.0989  0.6162  1.0420
44452SOL     OW45334   1.734  11.535  13.356  0.2318 -0.4411  0.1979
44452SOL    HW145335   1.777  11.551  13.440 -1.1148  1.3041  0.6088
44452SOL    HW245336   1.651  11.493  13.379  0.6332 -1.6554 -0.4328
44453SOL     OW45337   2.086   6.144   3.137 -0.6678  0.3410  0.0431
44453SOL    HW145338   2.016   6.117   3.078 -0.6049  0.1349  0.0620
44453SOL    HW245339   2.162   6.093   3.109 -0.7561 -0.1132  0.6072
44454SOL     OW45340  12.129   9.831  12.556 -0.8691 -0.2456 -0.0122
44454SOL    HW145341  12.054   9.798  12.606 -1.5070 -0.6323 -1.1705
44454SOL    HW245342  12.144   9.763  12.489  0.6683 -0.2758  0.3417
44455SOL     OW45343   5.058   3.533   1.819  0.4520  0.3002  0.1026
44455SOL    HW145344   5.077   3.578   1.736  0.1686  1.2122  0.5215
44455SOL    HW245345   5.135   3.479   1.835  0.5009  0.0945 -0.7655
44456SOL     OW45346   6.571   8.652   3.166 -0.2147 -0.8559 -0.1558
44456SOL    HW145347   6.603   8.590   3.100  0.7887 -0.6097  0.0734
44456SOL    HW245348   6.478   8.660   3.148 -0.0576 -1.1804 -1.2305
44457SOL     OW45349  10.351   0.926   2.145  0.0193 -0.3354  0.1060
44457SOL    HW145350  10.352   0.879   2.228 -1.7739 -0.4803  0.1007
44457SOL    HW245351  10.371   0.860   2.079  1.8836 -0.1285  0.4304
44458SOL     OW45352   2.441   7.088   8.378 -0.1784  0.2203  0.0863
44458SOL    HW145353   2.468   7.067   8.467 -1.9487 -2.0366  0.1885
44458SOL    HW245354   2.355   7.129   8.389 -0.6608 -0.5911 -0.5829
44459SOL     OW45355   5.671   9.524  10.171  0.3935  0.1200 -0.2554
44459SOL    HW145356   5.703   9.593  10.114  2.4845  0.1412  0.8244
44459SOL    HW245357   5.620   9.570  10.238 -1.1083  0.2091 -1.4169
44460SOL     OW45358   2.392  13.155   5.737  0.4829  0.3417 -0.3370
44460SOL    HW145359   2.329  13.182   5.670  0.9909 -2.6278 -2.2024
44460SOL    HW245360   2.357  13.073   5.771 -0.0741  1.9949  3.6880
44461SOL     OW45361   9.049   9.150   1.899 -0.6572 -0.0595 -0.3170
44461SOL    HW145362   9.082   9.076   1.950 -0.3493  0.2286 -0.0904
44461SOL    HW245363   9.096   9.145   1.816  0.8046  0.9790  0.4034
44462SOL     OW45364   5.467  10.820   5.185 -0.4033  0.3121 -0.2509
44462SOL    HW145365   5.514  10.883   5.131 -0.2617 -0.5978 -1.2189
44462SOL    HW245366   5.377  10.821   5.151  0.0522 -1.4626 -1.6817
44463SOL     OW45367   4.721   6.849  10.437  0.4603 -0.3019  0.0441
44463SOL    HW145368   4.631   6.871  10.462  0.4046 -0.4830  0.0068
44463SOL    HW245369   4.761   6.932  10.414  0.0400 -0.3193 -0.7966
44464SOL     OW45370   4.229   5.101   0.479  0.7825 -0.7158 -0.8070
44464SOL    HW145371   4.197   5.130   0.564 -0.2311 -0.4848 -1.2567
44464SOL    HW245372   4.318   5.136   0.474  0.6941 -0.3596 -0.0294
44465SOL     OW45373   6.184   2.174   3.189  0.9366 -0.2554 -0.0564
44465SOL    HW145374   6.171   2.174   3.094 -0.6901 -1.7209  0.1154
44465SOL    HW245375   6.194   2.266   3.212  1.2633  0.1291 -1.6190
44466SOL     OW45376   7.097   0.793   3.732 -0.9785  0.5221 -0.6630
44466SOL    HW145377   7.136   0.874   3.698 -0.4949  0.3397 -0.5533
44466SOL    HW245378   7.160   0.725   3.710 -0.1548  0.5235  1.4000
44467SOL     OW45379  12.798   8.925   5.694 -0.3150 -0.0477  0.1496
44467SOL    HW145380  12.806   8.948   5.601  0.3315  0.2571  0.2764
44467SOL    HW245381  12.750   8.999   5.732  0.4865  0.4075  0.2832
44468SOL     OW45382   8.757   2.069   4.659  0.9372 -0.4147  0.2596
44468SOL    HW145383   8.848   2.093   4.677  1.2673 -2.0462  1.0165
44468SOL    HW245384   8.736   2.113   4.577  1.3486  2.5599  1.6282
44469SOL     OW45385   9.481   1.063   2.409  0.1890 -0.5563  0.1629
44469SOL    HW145386   9.513   1.152   2.421 -2.9558  0.4223  3.1385
44469SOL    HW245387   9.438   1.064   2.324  1.1585  0.4087 -0.3359
44470SOL     OW45388   0.483  12.476  13.929  0.4092  0.0445  0.5747
44470SOL    HW145389   0.446  12.503  13.845  1.2921 -1.0349 -0.1862
44470SOL    HW245390   0.578  12.487  13.918  0.5135  0.2018  1.5495
44471SOL     OW45391   3.540   4.426   3.996  0.0729  0.1147 -0.3167
44471SOL    HW145392   3.599   4.353   4.014 -0.1216  0.2937  1.1949
44471SOL    HW245393   3.582   4.501   4.039  0.5318  1.0387 -2.2655
44472SOL     OW45394  12.507   4.464   5.310  0.2556 -0.4261  0.0861
44472SOL    HW145395  12.457   4.415   5.244  0.0800 -1.0084  0.6345
44472SOL    HW245396  12.545   4.396   5.366  1.1219  0.0359  0.0669
44473SOL     OW45397   2.817  10.697  10.392 -0.0022  0.7802 -0.1567
44473SOL    HW145398   2.775  10.775  10.356 -1.5732  0.9853  1.9004
44473SOL    HW245399   2.759  10.625  10.365  0.3798  0.5629 -0.4103
44474SOL     OW45400   2.611   5.043  13.576 -0.4252 -0.0502 -0.5110
44474SOL    HW145401   2.536   5.099  13.553 -1.9330 -1.6473  0.2587
44474SOL    HW245402   2.606   5.034  13.671 -1.2622 -2.7077 -0.6994
44475SOL     OW45403   6.136  13.565   7.157 -0.0202 -0.0601 -0.0707
44475SOL    HW145404   6.108  13.612   7.236 -2.3242 -0.2200 -0.7122
44475SOL    HW245405   6.106  13.476   7.171  1.6597 -0.6743 -0.1626
44476SOL     OW45406   2.820   9.332   8.343 -0.1522 -0.0295 -0.3222
44476SOL    HW145407   2.791   9.423   8.355  1.0501  0.5378 -1.4812
44476SOL    HW245408   2.800   9.312   8.251  0.8568 -0.4502 -0.4625
44477SOL     OW45409  11.224  12.729   5.269  0.6575  0.0995 -0.3106
44477SOL    HW145410  11.226  12.737   5.364  0.5844 -0.1515 -0.2878
44477SOL    HW245411  11.159  12.794   5.242  1.0071  0.4851 -0.2253
44478SOL     OW45412   0.018   4.619   5.190 -0.1225 -0.4356  0.1290
44478SOL    HW145413   0.025   4.705   5.232  1.1438 -0.3544 -0.2175
44478SOL    HW245414  -0.064   4.583   5.223 -1.7769  1.7663 -1.3151
44479SOL     OW45415   8.096   0.164   4.360  0.6044  0.2577 -0.4092
44479SOL    HW145416   8.012   0.206   4.379 -0.3106 -2.0966  1.0504
44479SOL    HW245417   8.134   0.144   4.446  3.0298  1.7951 -0.9997
44480SOL     OW45418  11.064   4.230  11.116 -0.8594  0.2323 -0.3173
44480SOL    HW145419  10.995   4.296  11.120 -0.8038  0.2617  0.5292
44480SOL    HW245420  11.050   4.177  11.195  1.3512  1.5482  1.0671
44481SOL     OW45421  13.127   1.169   0.167 -0.2847 -1.0776 -0.7999
44481SOL    HW145422  13.055   1.133   0.219 -0.7917  1.5703  0.4851
44481SOL    HW245423  13.206   1.137   0.211 -0.7139 -0.0925  0.8072
44482SOL     OW45424  10.361  13.700   9.032 -0.1021 -0.1040  0.1383
44482SOL    HW145425  10.353  13.784   8.987 -1.0350 -0.1989  0.1073
44482SOL    HW245426  10.444  13.664   9.002  1.5055  1.8532  1.9558
44483SOL     OW45427   5.762  11.711   3.607 -0.5500 -0.5978 -0.3020
44483SOL    HW145428   5.777  11.632   3.555 -0.0470  0.3335 -1.6159
44483SOL    HW245429   5.710  11.768   3.550 -0.4146  0.2629  0.4102
44484SOL     OW45430   9.132   1.334  10.648 -0.0824 -0.1042 -0.2161
44484SOL    HW145431   9.117   1.405  10.585 -0.3930  0.9470  1.0002
44484SOL    HW245432   9.227   1.328  10.655 -0.0475  0.7969  0.2956
44485SOL     OW45433   8.173   1.060  12.955 -0.2316  0.1046  0.3684
44485SOL    HW145434   8.079   1.052  12.943 -0.1666 -0.1056 -0.0274
44485SOL    HW245435   8.184   1.082  13.047 -0.6690  0.1865  0.4038
44486SOL     OW45436   4.114  13.685   3.758 -0.1032 -0.4575 -0.5996
44486SOL    HW145437   4.067  13.661   3.838  0.0635  1.0080 -0.0307
44486SOL    HW245438   4.148  13.603   3.725  0.8443 -0.9864  1.4891
44487SOL     OW45439  11.633   4.847   5.264 -0.2571 -0.0561  0.7181
44487SOL    HW145440  11.655   4.870   5.173 -0.3149  1.7120  1.1099
44487SOL    HW245441  11.636   4.752   5.266 -1.3688 -0.1950 -1.4184
44488SOL     OW45442   3.871  11.609   2.882 -0.2873  0.5856 -0.2742
44488SOL    HW145443   3.810  11.543   2.850  0.7432 -1.2775  1.4259
44488SOL    HW245444   3.922  11.633   2.804 -2.2142  1.2307 -1.4332
44489SOL     OW45445   8.381   0.258  11.218 -0.4514  0.1665  0.5704
44489SOL    HW145446   8.450   0.291  11.160 -0.3344  0.0437  0.6363
44489SOL    HW245447   8.382   0.163  11.203  0.5525 -0.0451  1.8078
44490SOL     OW45448  11.936   8.704   4.641  0.4643 -0.2369 -0.1748
44490SOL    HW145449  11.870   8.737   4.581  1.2174 -0.3249 -1.0684
44490SOL    HW245450  11.916   8.748   4.724 -0.6955 -0.2581 -0.4237
44491SOL     OW45451   3.928   4.218  11.633 -0.9112  0.2331  0.2934
44491SOL    HW145452   4.006   4.165  11.616 -2.4181 -2.3778  1.0479
44491SOL    HW245453   3.950   4.267  11.712  0.3063  0.3228 -0.0749
44492SOL     OW45454   3.115   3.454   9.257 -0.6477  0.2335 -0.4755
44492SOL    HW145455   3.205   3.472   9.285 -0.9691  1.1569 -0.0017
44492SOL    HW245456   3.071   3.426   9.337 -0.9669  0.5352 -0.5438
44493SOL     OW45457  10.740   2.036  11.718  0.2278  0.3322 -0.5156
44493SOL    HW145458  10.661   2.082  11.689 -0.0538 -1.1340 -2.2673
44493SOL    HW245459  10.812   2.096  11.696 -0.2148  0.5272 -1.5151
44494SOL     OW45460  12.806  13.204   9.941 -0.0309  0.2664  0.0542
44494SOL    HW145461  12.727  13.177   9.987 -0.1368 -0.1351 -0.3524
44494SOL    HW245462  12.845  13.122   9.908  0.0392  0.5370 -0.5606
44495SOL     OW45463   1.819   8.673  12.799  0.4426  0.1353 -0.0311
44495SOL    HW145464   1.888   8.616  12.834 -1.3539 -2.0764  0.0960
44495SOL    HW245465   1.787   8.627  12.722 -2.2095  0.0443  1.0170
44496SOL     OW45466   7.144   4.625  12.378  0.2384 -0.0418 -0.9165
44496SOL    HW145467   7.113   4.606  12.289 -0.0079 -0.7541 -0.6854
44496SOL    HW245468   7.195   4.705  12.369 -1.3951  0.9958 -1.3704
44497SOL     OW45469  12.135   9.958   5.333 -0.1375 -0.6095 -0.0901
44497SOL    HW145470  12.095   9.989   5.252  0.2956 -0.6801 -0.3324
44497SOL    HW245471  12.228   9.954   5.314 -0.1444 -1.6462  0.0755
44498SOL     OW45472   5.358  13.567   8.623  0.1364 -0.6281  0.0665
44498SOL    HW145473   5.270  13.546   8.653  0.5230 -0.8548  1.0871
44498SOL    HW245474   5.359  13.542   8.531 -0.1134 -3.0194  0.6666
44499SOL     OW45475  11.523   6.111  10.438  0.4069 -0.0284  0.6811
44499SOL    HW145476  11.471   6.073  10.508 -0.1914  0.2610  0.4061
44499SOL    HW245477  11.472   6.095  10.359  1.0934 -0.3876  0.3015
44500SOL     OW45478  12.872   0.925   1.937 -0.3157 -0.1924  0.1654
44500SOL    HW145479  12.809   0.855   1.923 -1.7101  0.6224  1.9643
44500SOL    HW245480  12.848   0.963   2.022  1.6931  1.1136  0.2297
44501SOL     OW45481   1.531   6.118  12.593  0.1468  0.0816  0.1577
44501SOL    HW145482   1.605   6.123  12.532  0.6254  1.3287  0.7963
44501SOL    HW245483   1.461   6.075  12.543  0.3611  1.4908 -1.4517
44502SOL     OW45484  10.638  12.196   0.772  0.7131  0.1143  0.1925
44502SOL    HW145485  10.652  12.225   0.862 -0.2134 -0.9495  0.7086
44502SOL    HW245486  10.702  12.126   0.759  1.8710  1.2578 -0.5151
44503SOL     OW45487   3.936   0.405  10.722  0.0777  0.1222  0.0648
44503SOL    HW145488   3.958   0.329  10.668 -0.6797 -0.3415  0.4045
44503SOL    HW245489   3.870   0.373  10.784 -0.4222  1.1143  0.0607
44504SOL     OW45490   6.423   5.691   0.540 -0.5587 -0.0247  0.1006
44504SOL    HW145491   6.511   5.704   0.504 -0.5964 -0.2721 -0.0820
44504SOL    HW245492   6.419   5.597   0.560 -0.6679  0.0449  0.4107
44505SOL     OW45493   1.109   5.340  12.718  0.3166  0.4654 -0.1126
44505SOL    HW145494   1.168   5.290  12.661  0.7316 -0.4672  1.0827
44505SOL    HW245495   1.156   5.423  12.732  0.2077  0.7121 -1.0988
44506SOL     OW45496   2.266   9.763   2.506 -0.1136 -0.1714 -0.3207
44506SOL    HW145497   2.205   9.746   2.578 -0.5233 -0.4826 -0.7432
44506SOL    HW245498   2.296   9.677   2.478  0.1031 -0.0466 -0.4794
44507SOL     OW45499   6.918   6.323   1.905  0.1061 -0.3151 -0.3424
44507SOL    HW145500   6.960   6.292   1.985 -2.7843  0.3216  1.5683
44507SOL    HW245501   6.946   6.414   1.896 -2.6168  1.0161  2.4746
44508SOL     OW45502  10.397  10.870   4.495  0.1987  0.1551  0.9999
44508SOL    HW145503  10.369  10.781   4.518 -1.3422  0.3552  0.1077
44508SOL    HW245504  10.327  10.902   4.438  0.4297  2.1619  1.7650
44509SOL     OW45505   2.389   6.249  10.146 -0.1288  0.1181  0.1562
44509SOL    HW145506   2.339   6.193  10.086 -0.6522  0.9653 -0.2149
44509SOL    HW245507   2.348   6.236  10.231  0.0739 -0.4316  0.1797
44510SOL     OW45508   7.842   0.249  12.322 -0.0366 -0.0952  0.0799
44510SOL    HW145509   7.839   0.215  12.411 -0.5437  2.8298  1.2698
44510SOL    HW245510   7.936   0.257  12.303  0.0818 -1.3129  0.0652
44511SOL     OW45511  12.398   0.526   1.047 -0.7043  0.1811  0.2425
44511SOL    HW145512  12.343   0.452   1.071  1.3427 -0.9196  1.8381
44511SOL    HW245513  12.445   0.498   0.969 -1.0118  0.3756 -0.0124
44512SOL     OW45514  13.817   2.774  11.407  0.4127  0.2691  0.0209
44512SOL    HW145515  13.805   2.849  11.349  1.8230  0.4773 -0.0201
44512SOL    HW245516  13.749   2.785  11.474  0.5278  1.5301 -0.0415
44513SOL     OW45517   7.338   7.340   4.909 -0.2247 -0.1412  0.2646
44513SOL    HW145518   7.293   7.412   4.953 -0.9644  0.3726 -1.2643
44513SOL    HW245519   7.277   7.266   4.916 -0.4043 -0.0208  0.0065
44514SOL     OW45520   5.036   6.843  11.420  0.3510 -0.2963 -0.3450
44514SOL    HW145521   5.044   6.844  11.515 -2.2556  0.3635 -0.0444
44514SOL    HW245522   5.119   6.878  11.388  1.4403 -0.9250  1.6387
44515SOL     OW45523   8.925   4.798   1.914  0.4977 -0.6610  0.0105
44515SOL    HW145524   9.020   4.794   1.915  0.5650  0.7601  1.1696
44515SOL    HW245525   8.903   4.888   1.938 -1.1186 -0.3663 -2.1829
44516SOL     OW45526   2.484   5.196   9.831  0.0145  0.0277  0.1972
44516SOL    HW145527   2.437   5.279   9.821  0.1552  0.2157  1.0656
44516SOL    HW245528   2.417   5.129   9.823 -0.3958  0.2911  1.3047
44517SOL     OW45529   8.782   8.390   4.198 -0.1570 -0.2127 -0.3506
44517SOL    HW145530   8.811   8.479   4.219  1.5526 -0.6929 -0.5293
44517SOL    HW245531   8.814   8.337   4.271 -1.7793 -0.5914  0.1059
44518SOL     OW45532  13.502   9.306   7.420  0.1694 -0.0634  0.1831
44518SOL    HW145533  13.450   9.361   7.479  0.9449  0.0588  0.7577
44518SOL    HW245534  13.507   9.356   7.339  1.2942  0.9557  0.8600
44519SOL     OW45535   4.729   5.286   1.564 -0.2622 -0.0085  0.5616
44519SOL    HW145536   4.802   5.309   1.621 -1.0982 -0.1054  1.7034
44519SOL    HW245537   4.769   5.240   1.490  1.0485  1.7510  0.1137
44520SOL     OW45538   0.209   2.891  10.156  0.1940  0.1621 -0.4217
44520SOL    HW145539   0.169   2.972  10.125  0.0230  0.0441 -0.5099
44520SOL    HW245540   0.201   2.831  10.082  0.6238  0.1685 -0.4756
44521SOL     OW45541  10.785   2.382   1.121 -0.8413 -0.5980 -0.1954
44521SOL    HW145542  10.705   2.357   1.075 -0.6407 -0.3209 -0.6999
44521SOL    HW245543  10.854   2.333   1.076 -0.8389 -1.6603  0.9010
44522SOL     OW45544   0.699   3.623   4.720 -0.0412  0.6555  0.1571
44522SOL    HW145545   0.710   3.718   4.715  0.2075  0.6612  0.6879
44522SOL    HW245546   0.718   3.592   4.631 -3.6876  1.3960 -1.0475
44523SOL     OW45547  13.437   4.575   4.905 -0.0490 -0.3523  0.0055
44523SOL    HW145548  13.529   4.598   4.922  0.1717 -2.4892  2.1550
44523SOL    HW245549  13.396   4.659   4.883  2.4164  0.6530 -1.2789
44524SOL     OW45550   2.501   8.876   6.982 -0.0154  0.1778  0.0733
44524SOL    HW145551   2.451   8.874   7.064 -0.5108 -1.2905 -0.2165
44524SOL    HW245552   2.592   8.872   7.009 -0.1392  0.5766  0.5681
44525SOL     OW45553  12.790   7.842  12.037  0.4829  0.0083  0.3337
44525SOL    HW145554  12.784   7.880  12.124 -1.2549 -1.8710  1.1040
44525SOL    HW245555  12.871   7.790  12.039  0.4988  0.0491  0.7817
44526SOL     OW45556   0.197   9.904   5.764  0.9037 -0.2223  0.0831
44526SOL    HW145557   0.154   9.970   5.709  1.3569 -0.1316 -0.1663
44526SOL    HW245558   0.288   9.931   5.767  0.9334 -0.3796  0.6662
44527SOL     OW45559   6.419   9.981  12.496 -0.0932 -0.3206 -0.0238
44527SOL    HW145560   6.449  10.020  12.578 -0.3158 -0.4015  0.1000
44527SOL    HW245561   6.346  10.037  12.468  1.0210  0.6819 -1.0349
44528SOL     OW45562   5.959   2.171   9.139  0.2467  0.0263 -0.7128
44528SOL    HW145563   5.953   2.103   9.206 -2.7996  0.5257 -0.3642
44528SOL    HW245564   5.959   2.123   9.056  0.7363 -0.4697 -0.4343
44529SOL     OW45565  14.018   7.650   6.585 -0.0830  0.8233 -0.0395
44529SOL    HW145566  13.933   7.687   6.563 -0.5160 -0.9773 -1.6903
44529SOL    HW245567  14.004   7.608   6.670 -1.8166 -1.9869 -1.5498
44530SOL     OW45568  10.940   2.266   9.382 -0.2598  0.1339  0.1758
44530SOL    HW145569  10.873   2.318   9.337 -0.3542  0.7807  1.0287
44530SOL    HW245570  10.896   2.185   9.407 -0.8254  0.6607  0.9568
44531SOL     OW45571   9.014  13.235   6.233  0.0340  0.1880 -0.4780
44531SOL    HW145572   9.071  13.239   6.156  0.5365 -0.9182 -0.1820
44531SOL    HW245573   8.945  13.174   6.208 -0.0375  0.1544 -0.1994
44532SOL     OW45574  13.360  11.023  10.788  0.2811  0.9022  0.1266
44532SOL    HW145575  13.400  10.936  10.783  0.9909  1.2246 -0.0122
44532SOL    HW245576  13.301  11.026  10.712 -0.9786 -0.0299  1.0138
44533SOL     OW45577   4.179   1.660   2.142  0.1540  0.0735  0.6220
44533SOL    HW145578   4.162   1.717   2.217 -0.4649  0.1372  0.4348
44533SOL    HW245579   4.113   1.685   2.078  2.1418  1.7277 -0.9096
44534SOL     OW45580   6.377   0.589  10.492  0.4039 -0.0496  0.1629
44534SOL    HW145581   6.298   0.628  10.456  0.1708 -0.5824  0.0883
44534SOL    HW245582   6.434   0.663  10.511 -0.2684  0.3719  0.6011
44535SOL     OW45583   1.182   1.351   4.516  0.1352  0.6471 -0.2370
44535SOL    HW145584   1.275   1.347   4.541  0.3352  1.9369 -0.6973
44535SOL    HW245585   1.136   1.375   4.596  0.1136 -0.6056  0.1384
44536SOL     OW45586   4.377  13.545   0.490 -0.1899  0.4435  0.5897
44536SOL    HW145587   4.344  13.508   0.408  0.1293  1.1143  0.1557
44536SOL    HW245588   4.299  13.579   0.534 -0.2719  0.6541  0.2752
44537SOL     OW45589   2.062   9.515   3.996  0.0636  0.1474 -0.5114
44537SOL    HW145590   1.995   9.480   4.054  1.4249 -1.8112 -0.0055
44537SOL    HW245591   2.014   9.549   3.920 -1.5763  0.6054  0.6897
44538SOL     OW45592   6.541   2.599  11.070  0.1510  0.0141 -0.4650
44538SOL    HW145593   6.449   2.600  11.045 -0.0822  1.1773  0.3599
44538SOL    HW245594   6.588   2.586  10.988 -0.6908  1.2638 -1.1815
44539SOL     OW45595   6.971   6.307   3.283  0.6341  0.3041 -0.0351
44539SOL    HW145596   6.998   6.215   3.274  0.8536  0.2267  1.2884
44539SOL    HW245597   6.893   6.314   3.228  1.5047 -0.2545 -1.4271
44540SOL     OW45598   1.831  10.778   6.691 -0.4618  0.0888 -0.0433
44540SOL    HW145599   1.839  10.854   6.748  1.2430  0.1653 -0.3321
44540SOL    HW245600   1.755  10.796   6.637  1.0263  2.5905 -1.4782
44541SOL     OW45601   8.031   6.807   7.766 -0.3491  0.2106 -0.6912
44541SOL    HW145602   7.950   6.759   7.783 -0.2528  0.3315  0.1379
44541SOL    HW245603   8.085   6.746   7.716 -0.7033 -0.0977 -0.7018
44542SOL     OW45604   0.813   3.322   9.635 -0.5297 -0.4721 -0.0303
44542SOL    HW145605   0.866   3.297   9.710 -0.9322  2.1509  1.2597
44542SOL    HW245606   0.725   3.336   9.671 -1.0030 -0.2806 -1.2080
44543SOL     OW45607   3.926  11.593   4.009  0.0525  0.2141  0.0687
44543SOL    HW145608   3.850  11.649   4.024  0.5564  1.0470 -0.4045
44543SOL    HW245609   3.900  11.537   3.935 -0.2949  0.1158  0.2620
44544SOL     OW45610   2.519   4.242   8.649 -0.0745  0.6094  0.3570
44544SOL    HW145611   2.609   4.250   8.680  0.9721  0.6944 -2.4343
44544SOL    HW245612   2.468   4.224   8.728  2.4589 -0.1363  1.9435
44545SOL     OW45613  12.836   6.156   8.699 -0.1243  0.0118 -0.9382
44545SOL    HW145614  12.820   6.130   8.608 -0.5462  0.2083 -0.9232
44545SOL    HW245615  12.823   6.251   8.699  1.2086  0.2124 -0.9527
44546SOL     OW45616  11.102  12.851  13.635 -0.1592  0.4094 -0.5008
44546SOL    HW145617  11.044  12.860  13.559 -0.0859 -2.0809 -0.9317
44546SOL    HW245618  11.185  12.820  13.598  0.6027  1.3204  0.3927
44547SOL     OW45619  11.366   7.310   5.094 -0.7939  0.2041 -0.1714
44547SOL    HW145620  11.279   7.349   5.091 -0.6700  0.5926  1.0301
44547SOL    HW245621  11.393   7.305   5.002 -0.8153  2.9441 -0.3988
44548SOL     OW45622   1.781  13.719   5.105  0.7581 -0.2158  0.2204
44548SOL    HW145623   1.732  13.642   5.076  0.5313 -0.2012  0.5647
44548SOL    HW245624   1.714  13.783   5.129  0.8713  1.0635 -2.4832
44549SOL     OW45625  11.654  10.188   9.792  0.5815 -0.2119 -0.3152
44549SOL    HW145626  11.601  10.136   9.852  2.5868 -0.4680  1.3605
44549SOL    HW245627  11.604  10.269   9.780 -0.1506 -0.3811  1.2803
44550SOL     OW45628  13.873  12.513   0.134  0.2453 -0.2338  0.1802
44550SOL    HW145629  13.963  12.517   0.101  1.0290 -1.3146  2.0306
44550SOL    HW245630  13.836  12.434   0.096 -0.3497  0.7702 -1.4501
44551SOL     OW45631  13.576   5.603   5.104  0.5353  0.2024 -0.2332
44551SOL    HW145632  13.540   5.527   5.057 -0.3815  1.2080 -1.2242
44551SOL    HW245633  13.530   5.678   5.066  1.1429  1.2285  0.9953
44552SOL     OW45634   9.209   7.858   6.685  0.2242 -0.3898 -0.2571
44552SOL    HW145635   9.126   7.822   6.654  0.0790  0.0764 -0.4182
44552SOL    HW245636   9.198   7.953   6.678  0.2691 -0.2754  1.0024
44553SOL     OW45637   2.301   6.852  13.251  0.1253  0.2484  0.8858
44553SOL    HW145638   2.377   6.796  13.266  0.5370  0.6950  0.5071
44553SOL    HW245639   2.243   6.833  13.325  0.0015 -1.0762  0.4711
44554SOL     OW45640   7.229  11.195   1.796 -0.0379  0.4780  0.2682
44554SOL    HW145641   7.173  11.263   1.759 -1.1194 -0.7612 -0.4692
44554SOL    HW245642   7.185  11.168   1.877 -0.0117  0.1722  0.1848
44555SOL     OW45643   8.982   7.081   9.752  0.1466 -0.3798 -0.8334
44555SOL    HW145644   8.917   7.032   9.702  0.8186 -1.0367 -1.0800
44555SOL    HW245645   9.024   7.139   9.688 -1.5724  1.5814 -0.3014
44556SOL     OW45646   0.156  10.662   8.843 -0.0119  0.1668  0.1105
44556SOL    HW145647   0.111  10.608   8.908 -0.5847  0.5504  0.0377
44556SOL    HW245648   0.225  10.706   8.893 -0.6225  0.6691  0.5194
44557SOL     OW45649   7.233  11.473   3.589  0.1970  0.1226  0.4364
44557SOL    HW145650   7.300  11.530   3.551  0.4279 -0.3264  0.1563
44557SOL    HW245651   7.205  11.518   3.669  1.4455 -0.0973  1.0163
44558SOL     OW45652   3.140   2.940  12.362 -0.1287 -0.2612  0.0289
44558SOL    HW145653   3.227   2.966  12.392 -0.4767 -0.7811  1.6304
44558SOL    HW245654   3.086   3.018  12.375  0.2692  0.4092 -1.9777
44559SOL     OW45655   7.891   6.855   6.492 -0.3659  0.0556 -0.2259
44559SOL    HW145656   7.803   6.820   6.481 -0.6179  0.8042 -0.6733
44559SOL    HW245657   7.938   6.787   6.540 -2.1231  1.0345  3.2257
44560SOL     OW45658   5.609  10.862   0.298 -0.5649 -0.4986 -0.2919
44560SOL    HW145659   5.605  10.929   0.230 -1.3209 -0.6457 -0.4059
44560SOL    HW245660   5.670  10.897   0.363 -0.6062  0.0937 -0.5657
44561SOL     OW45661   6.532  10.796   5.696  0.5731  0.0559 -0.4314
44561SOL    HW145662   6.441  10.796   5.668  0.5884  0.0861 -0.4803
44561SOL    HW245663   6.532  10.745   5.777  0.3565  0.8398  0.0765
44562SOL     OW45664   1.282   0.806  11.012  0.3302  0.2144 -0.3904
44562SOL    HW145665   1.341   0.732  11.020 -0.2102 -0.1371  0.5728
44562SOL    HW245666   1.340   0.882  11.005  0.8971 -0.3305 -2.1991
44563SOL     OW45667   1.720   6.495   1.469  0.0359  0.3077  0.1864
44563SOL    HW145668   1.673   6.551   1.407 -1.3956  1.6241  2.3214
44563SOL    HW245669   1.672   6.413   1.468 -0.4376  0.5825  0.0798
44564SOL     OW45670   2.099   6.333   9.821  0.3915 -0.5093  0.3627
44564SOL    HW145671   2.040   6.279   9.873  0.9346 -0.1470  1.3807
44564SOL    HW245672   2.145   6.387   9.885  1.9409 -0.8890 -0.3893
44565SOL     OW45673   9.117   8.764   6.766  0.0543  0.0836 -0.4628
44565SOL    HW145674   9.128   8.856   6.792  0.2008 -0.3604  1.1869
44565SOL    HW245675   9.118   8.766   6.670  0.2529  1.7744 -0.4659
44566SOL     OW45676  12.715  11.776   9.226 -0.4876  0.0030  0.1194
44566SOL    HW145677  12.790  11.798   9.281 -0.2209 -1.1672  0.2400
44566SOL    HW245678  12.669  11.707   9.274  0.1160 -1.5192 -1.4108
44567SOL     OW45679  10.527  13.350   6.480 -0.5605 -0.2464 -0.0758
44567SOL    HW145680  10.531  13.438   6.518  1.8071 -0.2476 -0.1936
44567SOL    HW245681  10.549  13.362   6.388  1.1870 -1.0724  0.1932
44568SOL     OW45682   1.492   6.152  11.044 -0.8125  0.1921  0.0093
44568SOL    HW145683   1.420   6.183  11.099 -1.8196 -2.5036  0.3571
44568SOL    HW245684   1.501   6.059  11.066  3.3573  0.5517  0.5714
44569SOL     OW45685  13.053   4.854   7.113 -0.0386  0.4763  0.4057
44569SOL    HW145686  13.058   4.920   7.182 -0.0405 -0.7332  1.6045
44569SOL    HW245687  12.967   4.813   7.124  0.4147 -0.5040  0.4366
44570SOL     OW45688  12.169   4.392   3.605  0.0626 -0.1830  0.8327
44570SOL    HW145689  12.157   4.461   3.540 -1.8485  0.5617  1.9171
44570SOL    HW245690  12.161   4.311   3.555  0.3086  0.3680 -0.1288
44571SOL     OW45691   5.757   4.154   5.028 -0.2687  0.1163  0.3144
44571SOL    HW145692   5.696   4.224   5.003  1.4526  1.4288 -0.4162
44571SOL    HW245693   5.730   4.079   4.977 -2.1997  0.1801  1.1398
44572SOL     OW45694   1.076   5.961   2.513 -0.0589 -0.5590 -0.0330
44572SOL    HW145695   1.047   5.883   2.466 -2.6251  0.5926 -0.5346
44572SOL    HW245696   1.032   6.033   2.469 -2.2864  0.6516  3.7190
44573SOL     OW45697   4.497   4.569   2.170 -0.1351  0.6531 -0.2081
44573SOL    HW145698   4.512   4.479   2.199  1.4435  1.3063  1.1937
44573SOL    HW245699   4.585   4.603   2.152 -0.6753  2.0294 -0.3356
44574SOL     OW45700  13.831   3.931  13.714  0.4190  0.2675 -0.1153
44574SOL    HW145701  13.853   3.961  13.802  0.2676  0.0903 -0.0171
44574SOL    HW245702  13.755   3.874  13.726  1.4118 -1.1194 -0.1476
44575SOL     OW45703   8.526   1.099   1.405 -0.0455 -0.5413  0.5435
44575SOL    HW145704   8.528   1.110   1.500 -0.0469  0.4064  0.4397
44575SOL    HW245705   8.476   1.173   1.372 -2.6712 -2.3963  0.0025
44576SOL     OW45706   3.951   0.976   2.117  0.2637  0.6104 -0.1741
44576SOL    HW145707   3.875   1.002   2.066 -0.2006 -0.0308  0.1848
44576SOL    HW245708   4.025   0.985   2.056 -0.3215 -0.4324 -1.0624
44577SOL     OW45709  11.817  11.523   0.368 -0.1278 -0.1543 -0.2006
44577SOL    HW145710  11.834  11.617   0.380 -0.3299 -0.0380 -0.7555
44577SOL    HW245711  11.899  11.480   0.393 -0.5192  0.0450  1.5247
44578SOL     OW45712   0.279   5.582   0.510 -0.9656 -0.2875  0.1172
44578SOL    HW145713   0.365   5.608   0.477 -0.3108 -0.7728  1.3675
44578SOL    HW245714   0.224   5.659   0.497 -0.0635  0.3993  0.2597
44579SOL     OW45715   0.680   1.365   8.058  0.1280  0.5327  0.4700
44579SOL    HW145716   0.755   1.424   8.061  0.8450 -0.1166 -2.1748
44579SOL    HW245717   0.642   1.370   8.146  1.4267  3.2321  0.9906
44580SOL     OW45718  11.002   3.849   8.425 -0.3462 -0.3753 -0.0806
44580SOL    HW145719  11.013   3.754   8.433 -0.3144 -0.2202  2.9917
44580SOL    HW245720  10.911   3.860   8.396 -0.4196 -1.3387 -0.2552
44581SOL     OW45721   1.825  10.349   7.663  0.0973  0.0258  0.0742
44581SOL    HW145722   1.793  10.260   7.680 -0.5457  0.0478 -0.8943
44581SOL    HW245723   1.748  10.396   7.630  0.3571  1.0398  0.8693
44582SOL     OW45724   4.888   1.029   0.281  0.0901  0.2710  0.6360
44582SOL    HW145725   4.795   1.007   0.280 -0.1330  0.9396  2.4290
44582SOL    HW245726   4.926   0.973   0.349  1.0533 -0.1520 -0.2270
44583SOL     OW45727   7.756   1.739  11.027 -0.2595  0.4753  0.7822
44583SOL    HW145728   7.785   1.805  10.964 -1.9690  1.2781  0.7919
44583SOL    HW245729   7.749   1.788  11.110 -0.0363 -0.0922  1.1405
44584SOL     OW45730  11.338  11.602   8.292  0.2088  0.2005 -0.2414
44584SOL    HW145731  11.359  11.682   8.340  0.4509 -0.7737  1.3653
44584SOL    HW245732  11.413  11.589   8.233  1.4207 -0.1758  1.3233
44585SOL     OW45733   2.469   6.264  13.230  0.0409 -0.3068 -0.0981
44585SOL    HW145734   2.473   6.176  13.266  1.3746 -0.0422  0.4270
44585SOL    HW245735   2.511   6.319  13.295  3.7352  0.0126 -2.4774
44586SOL     OW45736  13.194   9.656  10.877  0.0895 -0.0368  0.1636
44586SOL    HW145737  13.273   9.639  10.826 -1.0433  0.4463 -1.8664
44586SOL    HW245738  13.135   9.702  10.816 -1.2662  0.7892  1.9973
44587SOL     OW45739   7.050  10.426   2.047 -0.1140  0.0849  0.0866
44587SOL    HW145740   6.978  10.369   2.023  1.3579 -1.9679  0.2639
44587SOL    HW245741   7.122  10.366   2.068  1.7385  2.0121 -0.3917
44588SOL     OW45742   1.889   7.531   9.539  0.0790 -0.5918  0.4788
44588SOL    HW145743   1.859   7.615   9.574  1.1325 -0.5511  1.3070
44588SOL    HW245744   1.945   7.554   9.465 -2.2557 -0.6797 -1.4519
44589SOL     OW45745   7.119  13.501   1.414 -0.8245  0.7829  0.7421
44589SOL    HW145746   7.109  13.410   1.386 -0.7796  1.0247 -0.0711
44589SOL    HW245747   7.197  13.500   1.470  0.3790  0.6670 -0.8754
44590SOL     OW45748   8.190   7.657  11.537 -0.6807 -0.1886  0.1517
44590SOL    HW145749   8.204   7.733  11.593  2.9273 -0.9783  0.5655
44590SOL    HW245750   8.125   7.686  11.473  0.8057  3.4230  0.0391
44591SOL     OW45751   6.611   2.181  11.555 -0.1029 -0.4721  0.3000
44591SOL    HW145752   6.570   2.246  11.498  2.6988  1.7755  0.5682
44591SOL    HW245753   6.642   2.113  11.496 -0.7955 -0.2249 -0.3528
44592SOL     OW45754   2.389   1.428   4.619 -0.5454  0.1673  0.2045
44592SOL    HW145755   2.433   1.489   4.560 -2.6104  0.8397 -0.7185
44592SOL    HW245756   2.417   1.455   4.707 -0.6513  1.8392 -0.2440
44593SOL     OW45757  12.169   4.984   8.556  0.0069 -0.1063 -0.1883
44593SOL    HW145758  12.249   5.036   8.567  0.7862 -1.7113  2.3840
44593SOL    HW245759  12.098   5.047   8.570  0.7704  1.1344 -1.5294
44594SOL     OW45760  12.163  12.228   5.224 -0.3091  0.8506  0.3428
44594SOL    HW145761  12.166  12.277   5.142 -1.6621  1.3616  0.5804
44594SOL    HW245762  12.216  12.150   5.207  1.5822  2.1775 -0.1646
44595SOL     OW45763   4.934  12.315   5.176  0.1456 -0.2419 -0.2987
44595SOL    HW145764   5.019  12.289   5.213  0.8623 -0.3201 -1.9382
44595SOL    HW245765   4.907  12.389   5.230  0.8866 -0.6905  0.7221
44596SOL     OW45766  14.022   9.227  13.626 -0.1620 -0.2873  0.3286
44596SOL    HW145767  13.997   9.310  13.585 -0.7992 -1.1808 -1.1587
44596SOL    HW245768  13.942   9.198  13.671 -0.7555 -1.3324 -1.3290
44597SOL     OW45769  12.581   6.921   6.555 -0.0622 -0.4532 -0.1603
44597SOL    HW145770  12.598   6.830   6.529  1.2674 -0.8068  1.7518
44597SOL    HW245771  12.660   6.969   6.528 -0.0430 -0.2037  0.3289
44598SOL     OW45772   9.406   5.724  12.784 -0.3144  0.4193 -0.3894
44598SOL    HW145773   9.322   5.746  12.823 -0.5545  1.0141 -1.2018
44598SOL    HW245774   9.412   5.781  12.706  0.6300  0.0672 -0.5922
44599SOL     OW45775  10.063   4.368  11.087 -0.5853 -0.3449 -0.2299
44599SOL    HW145776  10.057   4.356  11.181 -2.1508 -0.2129 -0.2964
44599SOL    HW245777   9.973   4.384  11.058  0.1937  3.1681 -1.2597
44600SOL     OW45778   0.753   1.571  10.227 -0.4567 -0.2957 -0.3009
44600SOL    HW145779   0.775   1.566  10.320 -3.0784 -1.3809  0.3711
44600SOL    HW245780   0.757   1.664  10.205 -0.1160  0.0061  0.9901
44601SOL     OW45781   5.204   0.983   8.870  0.0544 -0.2625 -0.4405
44601SOL    HW145782   5.202   1.065   8.821 -2.0973 -0.1657 -0.2745
44601SOL    HW245783   5.134   0.992   8.935  0.5777 -1.7609  0.3860
44602SOL     OW45784   6.353  11.180   9.758  0.0799  0.0870  0.4651
44602SOL    HW145785   6.261  11.202   9.738  0.2092 -0.9637 -1.5946
44602SOL    HW245786   6.352  11.153   9.849 -1.9006 -0.9456  0.2094
44603SOL     OW45787   0.959   9.395   3.567 -0.0746  0.1826 -0.4038
44603SOL    HW145788   0.998   9.334   3.630 -0.0129  1.4669  0.8655
44603SOL    HW245789   0.876   9.355   3.542  0.1514 -0.6048  0.0715
44604SOL     OW45790   5.726   5.512   7.306 -0.0097 -0.0370 -0.4151
44604SOL    HW145791   5.799   5.572   7.293 -0.4010  0.2991 -1.0888
44604SOL    HW245792   5.728   5.493   7.400  1.9735 -1.3468 -0.6510
44605SOL     OW45793   5.370  13.777   5.702 -0.9577  0.4639 -0.4040
44605SOL    HW145794   5.419  13.719   5.759  1.0359  1.0122 -1.4425
44605SOL    HW245795   5.424  13.857   5.697 -2.2328  1.3185 -1.1825
44606SOL     OW45796   3.445   7.437  11.378  0.7822 -0.0567  0.1848
44606SOL    HW145797   3.351   7.425  11.372  0.8385  0.1551 -1.9795
44606SOL    HW245798   3.470   7.394  11.460 -0.8559 -2.4011 -0.4480
44607SOL     OW45799  10.777  11.783   0.573 -0.4246 -0.2064  0.0309
44607SOL    HW145800  10.713  11.817   0.510 -1.9618  0.0479  1.6717
44607SOL    HW245801  10.754  11.824   0.656  2.2750  0.3385  0.5871
44608SOL     OW45802   8.347  12.137   1.558  0.8133 -0.0094 -0.4280
44608SOL    HW145803   8.354  12.220   1.605  1.5234  0.4448 -1.3136
44608SOL    HW245804   8.274  12.150   1.497  0.2655 -0.3993  0.1301
44609SOL     OW45805  13.553   9.528   4.804 -0.0597 -0.3978 -0.0288
44609SOL    HW145806  13.591   9.563   4.885 -0.6397  0.1612  0.0145
44609SOL    HW245807  13.609   9.561   4.734 -1.7845  2.5489 -0.1995
44610SOL     OW45808  13.229   1.232  10.336 -0.3076 -0.2404  0.6878
44610SOL    HW145809  13.216   1.192  10.250  1.5824 -0.5319  0.4776
44610SOL    HW245810  13.173   1.181  10.395 -3.3363  1.3256 -0.6091
44611SOL     OW45811   1.167   1.210  13.737 -0.1537  0.4027  1.0920
44611SOL    HW145812   1.128   1.139  13.685 -0.4272  0.3699  1.3407
44611SOL    HW245813   1.257   1.180  13.753 -0.2296  0.1702  1.0900
44612SOL     OW45814  12.461   7.151   8.747  0.0161 -0.6238 -0.4912
44612SOL    HW145815  12.506   7.181   8.826 -1.3489  0.1719  0.0137
44612SOL    HW245816  12.418   7.069   8.773  0.6278 -1.0476 -0.7919
44613SOL     OW45817  12.022   5.740  12.508  0.1959 -0.1330  0.2690
44613SOL    HW145818  11.944   5.730  12.562 -0.0502 -0.7083 -0.1830
44613SOL    HW245819  12.033   5.834  12.498 -0.3738 -0.0510  0.4195
44614SOL     OW45820  10.609   6.960   0.509  0.2689  0.3953 -0.4154
44614SOL    HW145821  10.657   6.967   0.427  0.7143 -1.7806 -0.3846
44614SOL    HW245822  10.676   6.942   0.575 -0.2228  0.8351  0.2245
44615SOL     OW45823   9.711   7.571   6.636  0.4869 -0.4450 -0.0172
44615SOL    HW145824   9.647   7.542   6.701  1.3443 -0.0783  1.0203
44615SOL    HW245825   9.775   7.499   6.631 -0.2354 -1.0244 -1.4065
44616SOL     OW45826  11.347   4.241   1.574  0.8786  0.3433 -0.5174
44616SOL    HW145827  11.325   4.229   1.482 -2.3476  1.1513 -0.0038
44616SOL    HW245828  11.395   4.323   1.578 -1.0631  1.6010 -1.3396
44617SOL     OW45829   1.977   7.078   7.034  0.3611  0.0498 -0.6183
44617SOL    HW145830   2.010   7.039   7.115 -2.0605 -2.2444 -0.5947
44617SOL    HW245831   1.929   7.155   7.063  2.3484  1.2607 -0.3130
44618SOL     OW45832   6.081  13.529   3.566  0.1420 -0.4347  0.0088
44618SOL    HW145833   6.020  13.465   3.530 -0.6976  0.3665 -0.0072
44618SOL    HW245834   6.030  13.579   3.629  0.7597  0.2811 -0.0396
44619SOL     OW45835   9.608   6.807  12.353  0.2687 -0.0049  0.2630
44619SOL    HW145836   9.621   6.729  12.298  1.1136 -0.2865  0.8371
44619SOL    HW245837   9.587   6.877  12.291  0.6111 -0.4467 -0.3634
44620SOL     OW45838   2.144   1.627   1.332  0.2552  0.3441 -0.0062
44620SOL    HW145839   2.130   1.720   1.351 -2.8821 -0.1341  0.4686
44620SOL    HW245840   2.101   1.613   1.248  0.1034 -0.8253  0.2540
44621SOL     OW45841   3.134   9.734   7.139  0.3015 -0.1382 -0.2110
44621SOL    HW145842   3.080   9.740   7.060 -0.1873 -2.1142 -0.0777
44621SOL    HW245843   3.189   9.813   7.136 -1.5147  1.1626 -1.1392
44622SOL     OW45844   2.564   6.050   2.934  0.3272 -0.1327 -0.2222
44622SOL    HW145845   2.543   6.117   2.999 -1.1241 -1.8805  1.2168
44622SOL    HW245846   2.654   6.024   2.955  1.0953  1.6232 -1.1094
44623SOL     OW45847   2.118   5.190   0.797  0.4367  0.1918  0.2872
44623SOL    HW145848   2.145   5.102   0.822  0.1204  0.3471  1.2258
44623SOL    HW245849   2.164   5.247   0.858 -0.0812  0.6057  0.2983
44624SOL     OW45850   1.549   2.401   9.270  0.1737  0.7946 -0.2567
44624SOL    HW145851   1.489   2.411   9.196 -0.9872  0.8842  0.6595
44624SOL    HW245852   1.523   2.470   9.331 -0.7249 -0.9311  1.4071
44625SOL     OW45853   8.776   0.606  10.540  0.2718 -0.0358 -0.4623
44625SOL    HW145854   8.713   0.542  10.571  1.5659 -1.1002  0.0988
44625SOL    HW245855   8.723   0.679  10.509 -1.1864 -0.0612  1.7250
44626SOL     OW45856   4.513   7.428  10.515 -0.1309  0.5925  0.4709
44626SOL    HW145857   4.609   7.435  10.513 -0.2456  2.9238  0.9282
44626SOL    HW245858   4.496   7.375  10.593  0.7929 -3.1351 -1.5883
44627SOL     OW45859  13.607  10.389   1.492 -0.3262 -0.4575  0.0277
44627SOL    HW145860  13.630  10.332   1.418  0.4606 -0.3115  0.1539
44627SOL    HW245861  13.690  10.403   1.538 -0.7519 -0.2806  0.7543
44628SOL     OW45862   5.296   1.360   5.515  0.6876  0.0165 -0.0350
44628SOL    HW145863   5.345   1.341   5.435  1.9627  4.3606 -0.5413
44628SOL    HW245864   5.362   1.359   5.584  0.1885 -0.5426  0.4462
44629SOL     OW45865   2.714   8.458   5.443  0.2089 -0.2225 -0.4715
44629SOL    HW145866   2.756   8.378   5.474  0.7476  0.6663  1.2620
44629SOL    HW245867   2.621   8.446   5.461  0.1022 -0.9733 -1.4663
44630SOL     OW45868   1.655   4.893   9.651  0.3061  0.5081 -0.0157
44630SOL    HW145869   1.611   4.965   9.607 -0.0278  1.8490  2.3496
44630SOL    HW245870   1.609   4.885   9.735 -0.1455 -2.9596 -0.4358
44631SOL     OW45871   7.013   1.544   6.302 -0.0998 -0.4350 -0.2566
44631SOL    HW145872   7.068   1.498   6.365 -1.2848 -0.8667  0.4895
44631SOL    HW245873   6.954   1.477   6.268 -1.0314  0.2679 -0.0719
44632SOL     OW45874   9.412  11.068   4.963 -0.0973 -0.3726  0.8314
44632SOL    HW145875   9.384  11.021   5.041  1.1722 -2.0841  0.3234
44632SOL    HW245876   9.457  11.002   4.910  0.8713  1.1931 -0.4112
44633SOL     OW45877  13.644  12.396  10.020 -0.1695 -0.3915  0.0231
44633SOL    HW145878  13.567  12.409  10.074  0.2769 -2.5247  1.2956
44633SOL    HW245879  13.714  12.442  10.066 -0.6299  1.6294 -1.1844
44634SOL     OW45880   6.567  13.739  13.575  0.1624  0.2968  0.3459
44634SOL    HW145881   6.478  13.762  13.550  0.7340  1.0005 -1.1779
44634SOL    HW245882   6.573  13.645  13.560 -0.6154  0.0404  1.4929
44635SOL     OW45883   2.608   1.287   0.050  0.3303  0.9993  0.0096
44635SOL    HW145884   2.523   1.321   0.022 -0.3149 -0.6154 -0.0715
44635SOL    HW245885   2.610   1.197   0.019  1.8220  0.8068  0.5642
44636SOL     OW45886  13.077  12.818   6.460  0.2821  0.5992 -0.1633
44636SOL    HW145887  13.164  12.796   6.492  1.0400  1.4632 -1.5185
44636SOL    HW245888  13.080  12.913   6.449 -1.3886  0.8639  1.3061
44637SOL     OW45889   6.543   3.530   2.179 -0.1114 -0.4369  0.4464
44637SOL    HW145890   6.472   3.571   2.228 -0.2279 -0.4981  0.3301
44637SOL    HW245891   6.523   3.436   2.181  0.1901 -0.4965  0.7696
44638SOL     OW45892   4.841   9.572   3.496  0.4059 -0.0643 -0.0859
44638SOL    HW145893   4.857   9.482   3.524  1.5386 -0.5264 -2.0226
44638SOL    HW245894   4.845   9.568   3.400 -1.8641  1.6385 -0.3281
44639SOL     OW45895   3.399   5.081   7.742  0.1130 -0.3566  0.3108
44639SOL    HW145896   3.350   4.999   7.750  1.0217 -0.8797  0.6452
44639SOL    HW245897   3.341   5.147   7.778 -0.0300 -1.0962  1.4727
44640SOL     OW45898   2.029   5.635  14.010  0.0193 -0.0945  0.2543
44640SOL    HW145899   1.969   5.621  13.936 -0.1797  1.8462  0.0028
44640SOL    HW245900   2.086   5.706  13.981  1.9364 -1.3371  0.8363
44641SOL     OW45901  12.043   9.898   9.342  0.3118 -0.2091 -0.3372
44641SOL    HW145902  11.988   9.836   9.294  0.8404  0.9062 -2.5141
44641SOL    HW245903  11.982   9.953   9.391 -0.2198 -1.6087  0.6343
44642SOL     OW45904   7.216   0.370  11.131 -0.7033 -0.0235  0.1011
44642SOL    HW145905   7.255   0.300  11.079  1.3518  0.4694  0.8460
44642SOL    HW245906   7.281   0.441  11.126 -1.1551  0.5884  2.0438
44643SOL     OW45907  12.450   1.870   9.047 -0.3125 -0.0708  0.1268
44643SOL    HW145908  12.460   1.834   8.959 -1.0087  0.5451 -0.2106
44643SOL    HW245909  12.517   1.939   9.052 -0.1758 -0.2033  0.1380
44644SOL     OW45910   3.175   2.849   6.001 -0.0313  0.0815 -0.1280
44644SOL    HW145911   3.115   2.886   5.936  1.8564  2.0515 -0.8665
44644SOL    HW245912   3.122   2.839   6.080 -1.5933  0.6373 -1.0574
44645SOL     OW45913   3.381   6.552  12.431 -0.3907 -0.0866  0.0760
44645SOL    HW145914   3.412   6.555  12.521 -1.0613  1.7455  0.2800
44645SOL    HW245915   3.389   6.642  12.400  0.3738 -0.7784 -1.9067
44646SOL     OW45916  13.271  11.381  10.860 -0.0555 -0.4023 -0.5815
44646SOL    HW145917  13.328  11.352  10.789  1.7858 -1.5130  1.2408
44646SOL    HW245918  13.330  11.419  10.925 -1.5597 -0.1727  0.7306
44647SOL     OW45919  12.776   9.273   4.913 -0.1400 -0.2285  0.2358
44647SOL    HW145920  12.816   9.278   5.000  0.0421  1.7963  0.0714
44647SOL    HW245921  12.831   9.210   4.865  0.7753 -0.0827  1.0672
44648SOL     OW45922  11.636   3.933   2.323  0.6412  0.0849  0.4742
44648SOL    HW145923  11.555   3.903   2.284  0.9066  0.3080 -0.2683
44648SOL    HW245924  11.634   3.899   2.412 -0.3314  0.2118  0.5126
44649SOL     OW45925   4.053   2.581  10.768 -0.0169 -0.5717  0.2173
44649SOL    HW145926   3.971   2.531  10.764  0.8435 -2.0194 -0.3392
44649SOL    HW245927   4.066   2.612  10.679  0.4474 -1.0526  0.1142
44650SOL     OW45928   5.114  11.674   9.650  0.0956 -0.6473  0.5041
44650SOL    HW145929   5.072  11.688   9.565  1.3213 -0.1304 -0.0272
44650SOL    HW245930   5.201  11.641   9.629  1.7738  2.8220  1.3923
44651SOL     OW45931   9.553   5.877   4.942 -0.1992  0.9493  0.1355
44651SOL    HW145932   9.548   5.849   4.850 -0.8819  1.1705  0.0994
44651SOL    HW245933   9.511   5.807   4.991  0.6868  0.5571  0.3462
44652SOL     OW45934  10.561   1.823   0.748  0.5015 -0.2464  0.1712
44652SOL    HW145935  10.622   1.854   0.681  0.2295 -1.7091 -0.8012
44652SOL    HW245936  10.574   1.882   0.821  3.4023 -0.7264  0.1684
44653SOL     OW45937   6.656   2.137   8.174 -0.0240 -0.3413 -0.3380
44653SOL    HW145938   6.668   2.071   8.242  1.7343 -1.4864 -1.6880
44653SOL    HW245939   6.700   2.101   8.097 -0.5239  1.6405 -1.6223
44654SOL     OW45940   8.664  11.853   1.517  0.1450  0.1160  0.1768
44654SOL    HW145941   8.682  11.862   1.424 -0.6127 -0.2407 -0.0121
44654SOL    HW245942   8.593  11.788   1.522 -1.8249  2.1856  0.8039
44655SOL     OW45943   9.667   6.070  12.348 -0.1120 -0.0098  0.2454
44655SOL    HW145944   9.632   6.082  12.437 -0.1424  1.0665  0.1090
44655SOL    HW245945   9.617   5.998  12.311 -0.1629 -0.4086  1.0716
44656SOL     OW45946   6.725  13.991   3.253  0.0589  0.1620  0.2048
44656SOL    HW145947   6.649  13.933   3.245 -0.6611  1.1035  0.0947
44656SOL    HW245948   6.793  13.949   3.200 -0.5659 -0.3912 -0.1720
44657SOL     OW45949   3.939   7.754   2.102  0.1111  0.1714 -0.1978
44657SOL    HW145950   3.989   7.735   2.023  0.2857 -1.1831  0.2034
44657SOL    HW245951   3.986   7.826   2.144  0.6132  0.1966 -0.7864
44658SOL     OW45952   2.544  10.453  11.691  0.1938  0.0130 -0.0152
44658SOL    HW145953   2.554  10.488  11.602  1.0971 -0.8612 -0.2787
44658SOL    HW245954   2.624  10.404  11.706 -0.0922 -0.1081  1.1756
44659SOL     OW45955   0.918   4.854  12.144  0.0151 -0.3883  0.0822
44659SOL    HW145956   0.969   4.918  12.194 -0.0042 -0.0707 -0.2976
44659SOL    HW245957   0.931   4.880  12.053 -0.5014 -0.5561 -0.0395
44660SOL     OW45958   3.507  13.086   8.529 -0.4948  0.6407  0.1171
44660SOL    HW145959   3.526  13.003   8.485 -1.0328  0.7903 -0.4257
44660SOL    HW245960   3.548  13.152   8.473  0.8669  0.6711  1.1316
44661SOL     OW45961  13.972   8.296   2.728 -0.4946 -0.3506 -0.5381
44661SOL    HW145962  13.987   8.260   2.640  1.4439 -1.2210  0.0938
44661SOL    HW245963  14.034   8.369   2.734 -0.1616 -0.6926  0.3045
44662SOL     OW45964   1.684   2.072   7.595  0.0578  0.5334  0.4683
44662SOL    HW145965   1.607   2.097   7.543 -0.2016  1.2409  1.1785
44662SOL    HW245966   1.726   2.156   7.616  0.1997  0.2499  1.3294
44663SOL     OW45967   7.105   4.177   8.778  0.1715 -0.6296  0.1360
44663SOL    HW145968   7.153   4.097   8.758  2.4954  0.5697  0.5526
44663SOL    HW245969   7.152   4.246   8.731  0.0845  0.9025  2.1760
44664SOL     OW45970  12.774  10.361   4.434  0.1731 -0.1611  0.6793
44664SOL    HW145971  12.789  10.283   4.381 -0.2978  0.0757  0.1919
44664SOL    HW245972  12.843  10.422   4.408 -0.2254  0.0602  0.1248
44665SOL     OW45973   0.181   8.681   9.446  0.5564 -0.3438  0.4148
44665SOL    HW145974   0.159   8.761   9.494  1.2650  0.5629 -0.7176
44665SOL    HW245975   0.106   8.665   9.390  1.4165  1.0041 -1.2046
44666SOL     OW45976   8.180   3.473   9.828  0.1773  0.4778  0.2247
44666SOL    HW145977   8.100   3.498   9.874  1.0472 -0.4351  2.3198
44666SOL    HW245978   8.158   3.388   9.788 -0.0875  0.5439  0.2249
44667SOL     OW45979   3.204  14.009   2.450  0.3047  0.5186 -0.4719
44667SOL    HW145980   3.145  14.077   2.483 -0.7194 -0.4587 -0.2467
44667SOL    HW245981   3.147  13.947   2.405  1.2586 -0.0532 -0.9271
44668SOL     OW45982   3.373   5.604   7.670  0.6746  0.1825  0.7446
44668SOL    HW145983   3.420   5.650   7.739 -0.0827 -1.1034  2.1771
44668SOL    HW245984   3.310   5.668   7.637 -0.0080  0.3548  2.3253
44669SOL     OW45985   8.888   5.432   7.379 -0.1521 -0.0722  0.6907
44669SOL    HW145986   8.838   5.484   7.443  2.1537 -0.6002  3.0834
44669SOL    HW245987   8.911   5.352   7.425  0.0338 -1.3736 -1.5006
44670SOL     OW45988   9.648   2.292   7.705 -0.8503  0.0033 -0.1730
44670SOL    HW145989   9.568   2.344   7.691 -0.3202  0.7331 -0.5941
44670SOL    HW245990   9.642   2.221   7.642 -1.2127  0.0063 -0.1428
44671SOL     OW45991   3.955   0.527  11.099  0.3319 -0.1293  0.5088
44671SOL    HW145992   4.023   0.459  11.093  1.6965  1.1162  1.2422
44671SOL    HW245993   3.964   0.578  11.019 -1.5115 -1.4617 -0.6400
44672SOL     OW45994   5.370   5.891   5.485 -0.3067  0.3942 -0.3108
44672SOL    HW145995   5.294   5.885   5.427 -0.1162  1.9790 -0.7530
44672SOL    HW245996   5.346   5.957   5.550 -0.4522 -1.2368  1.3619
44673SOL     OW45997   7.626   9.506  11.924 -0.5788 -0.6495  0.3956
44673SOL    HW145998   7.679   9.583  11.943 -0.0527 -0.6788 -0.8814
44673SOL    HW245999   7.688   9.433  11.924 -0.5547 -0.6664 -1.2540
44674SOL     OW46000   4.471   0.899   6.355  0.1170  0.6412  0.1285
44674SOL    HW146001   4.395   0.956   6.342  0.7546  1.5822  0.3743
44674SOL    HW246002   4.545   0.960   6.362  0.5696 -0.0682  2.3680
44675SOL     OW46003  11.564   8.234  13.655 -0.2089 -0.5100 -0.0231
44675SOL    HW146004  11.531   8.159  13.705 -0.2853 -0.4244  0.0561
44675SOL    HW246005  11.615   8.284  13.718  1.7218 -1.6583 -0.6125
44676SOL     OW46006  13.776  13.828  12.471 -0.0135 -0.1222  0.3150
44676SOL    HW146007  13.790  13.922  12.484  0.8913 -0.3031  0.7148
44676SOL    HW246008  13.785  13.790  12.559 -0.5880 -0.5614  0.1889
44677SOL     OW46009   5.563   8.700  12.449  0.5779  0.1655 -0.0282
44677SOL    HW146010   5.498   8.713  12.381  0.0947  2.4054  0.7743
44677SOL    HW246011   5.613   8.624  12.421 -2.3490 -1.6380 -0.6683
44678SOL     OW46012  11.807  11.181   5.591 -0.8671 -0.0262 -0.7204
44678SOL    HW146013  11.828  11.124   5.665 -1.7546 -1.2842 -1.4005
44678SOL    HW246014  11.878  11.165   5.528 -1.8700 -1.5579 -1.5252
44679SOL     OW46015  10.087   8.323   9.429 -0.4899 -0.3126  0.3933
44679SOL    HW146016  10.024   8.392   9.446  0.0777 -0.1465  2.0707
44679SOL    HW246017  10.107   8.286   9.516  2.0688 -0.0074  0.0245
44680SOL     OW46018   2.735  12.235   1.905  0.2993  0.3566  0.1388
44680SOL    HW146019   2.689  12.159   1.871 -2.1275  1.2364  1.1844
44680SOL    HW246020   2.675  12.272   1.970  1.7509  2.6794  0.2776
44681SOL     OW46021   6.292   8.668   5.523 -0.4127 -0.2186 -0.8500
44681SOL    HW146022   6.343   8.704   5.596 -1.1420  0.7222 -0.7934
44681SOL    HW246023   6.231   8.607   5.565  0.4496 -1.1434 -0.8903
44682SOL     OW46024  11.935  13.259   2.801  0.3678  0.0697  0.1846
44682SOL    HW146025  11.954  13.167   2.784 -0.3887 -0.6951  2.9498
44682SOL    HW246026  11.848  13.272   2.763 -0.7691 -1.2176  2.1716
44683SOL     OW46027  13.434   7.857   7.066 -0.6844 -0.0863 -0.4455
44683SOL    HW146028  13.389   7.936   7.036 -1.7377 -0.4906  0.0257
44683SOL    HW246029  13.401   7.788   7.009 -0.1612 -0.2826 -0.5142
44684SOL     OW46030  10.123   7.017   5.862 -0.5664 -0.3518 -0.0472
44684SOL    HW146031  10.157   6.996   5.775 -0.4011 -1.6283  0.2964
44684SOL    HW246032  10.041   6.968   5.868 -0.7890  0.0668  0.3609
44685SOL     OW46033   6.560   9.584   5.370 -0.2862 -0.1948  0.2985
44685SOL    HW146034   6.523   9.513   5.422  0.3974 -1.0911 -0.4136
44685SOL    HW246035   6.615   9.541   5.306 -0.6132  0.9229 -0.7790
44686SOL     OW46036   3.383  11.533   9.928 -0.0644 -0.1299  0.2149
44686SOL    HW146037   3.346  11.458   9.975 -0.9906  1.1293  1.5652
44686SOL    HW246038   3.329  11.539   9.849 -0.1971 -0.6889  0.2537
44687SOL     OW46039   1.744   0.683   2.756  0.0120  0.1047  0.1355
44687SOL    HW146040   1.825   0.726   2.781 -1.8913  4.1801  0.1359
44687SOL    HW246041   1.685   0.697   2.830 -1.4782 -0.3679 -0.9000
44688SOL     OW46042  11.076   2.176  13.276  0.1476 -0.4658 -0.1579
44688SOL    HW146043  11.035   2.190  13.361  0.8254 -1.5929  0.3720
44688SOL    HW246044  11.162   2.139  13.296 -0.4357 -2.6665 -1.3463
44689SOL     OW46045   3.467  11.882   5.074  0.8586  0.0167 -0.5241
44689SOL    HW146046   3.478  11.897   4.980  1.7488 -1.3580 -0.6747
44689SOL    HW246047   3.402  11.947   5.102 -0.0584 -0.1025 -2.2503
44690SOL     OW46048  10.124  13.943  13.621 -0.5287  0.0801 -0.0848
44690SOL    HW146049  10.061  13.901  13.562  0.4565 -0.2597 -0.9328
44690SOL    HW246050  10.123  14.035  13.596 -0.8964  0.1257  0.0979
44691SOL     OW46051  10.048   0.318   2.492 -0.4549  0.4750  0.2269
44691SOL    HW146052  10.140   0.307   2.466 -0.2837  2.2001  0.0157
44691SOL    HW246053  10.035   0.254   2.562  0.5278 -0.6967 -0.6225
44692SOL     OW46054  12.102  10.009   8.243 -0.1893  0.0866 -0.2583
44692SOL    HW146055  12.186  10.019   8.197 -0.5502 -0.1188 -0.9863
44692SOL    HW246056  12.036  10.030   8.176 -0.7597 -1.0870 -0.0858
44693SOL     OW46057   2.868   9.515  13.806 -0.2595 -0.3596  0.2165
44693SOL    HW146058   2.917   9.443  13.846 -1.9668 -2.2021 -0.8967
44693SOL    HW246059   2.885   9.507  13.712 -1.4149 -0.0484 -0.0325
44694SOL     OW46060   2.197   1.010  12.631  0.0645 -0.7886  0.0199
44694SOL    HW146061   2.102   1.005  12.643 -0.0051 -0.8827 -0.5323
44694SOL    HW246062   2.209   1.025  12.537  0.6275 -2.0365 -0.1369
44695SOL     OW46063   2.077   2.640   2.724  0.0170 -0.1443 -0.3192
44695SOL    HW146064   2.087   2.547   2.743 -0.7156 -0.2080 -0.2150
44695SOL    HW246065   1.983   2.651   2.706 -0.3214  0.9193  1.7138
44696SOL     OW46066   6.831  11.833   8.032  0.1182 -0.2432  0.3073
44696SOL    HW146067   6.881  11.824   7.951  0.5605 -2.0074  0.7357
44696SOL    HW246068   6.759  11.891   8.009 -0.0193 -1.0517 -1.4842
44697SOL     OW46069   1.603   2.676   0.566  0.5717 -0.1891 -0.5938
44697SOL    HW146070   1.661   2.750   0.586 -0.1050 -0.1311  1.3698
44697SOL    HW246071   1.659   2.599   0.572  0.8318 -0.0031 -0.5851
44698SOL     OW46072   4.338  11.836   2.524  0.4651  0.3051  0.4558
44698SOL    HW146073   4.295  11.837   2.609  1.5067  0.3108  0.9992
44698SOL    HW246074   4.286  11.776   2.471 -1.7672  2.3017  0.2266
44699SOL     OW46075   8.981   5.502   4.389  0.1155 -0.2093  0.5482
44699SOL    HW146076   8.997   5.595   4.376 -0.9941 -0.0632  0.0496
44699SOL    HW246077   9.034   5.478   4.464  0.0712  0.9275  0.9611
44700SOL     OW46078   5.308   7.991   2.143  0.1500  0.3993  0.2369
44700SOL    HW146079   5.345   7.983   2.231  0.0453  1.8028  0.4416
44700SOL    HW246080   5.250   8.067   2.149  0.4095  0.7284 -1.1315
44701SOL     OW46081   2.465   4.282   6.220  0.4742  0.2419  0.0279
44701SOL    HW146082   2.464   4.309   6.312 -0.3523  0.0482  0.0886
44701SOL    HW246083   2.555   4.297   6.191  0.7989  0.0957  0.9288
44702SOL     OW46084   4.474  12.158  10.732 -0.1908  0.2111 -0.5808
44702SOL    HW146085   4.521  12.187  10.653  1.5601  2.5379  1.1704
44702SOL    HW246086   4.383  12.154  10.705  0.1184  2.6390 -2.3616
44703SOL     OW46087   8.804   7.442   1.190 -0.0320 -0.5391  0.4651
44703SOL    HW146088   8.821   7.527   1.150 -1.9264 -0.4000 -0.1320
44703SOL    HW246089   8.844   7.448   1.277  1.0936  0.4131 -0.0926
44704SOL     OW46090   6.179   2.413   2.007  0.3152 -0.3330  0.0996
44704SOL    HW146091   6.092   2.446   2.032 -0.0259 -0.4697 -0.8416
44704SOL    HW246092   6.200   2.348   2.073  0.2505  0.5578  1.0337
44705SOL     OW46093   9.986   1.045  11.049  0.4499 -0.0634 -0.1809
44705SOL    HW146094  10.063   0.993  11.072  0.4126 -0.7078 -1.4426
44705SOL    HW246095   9.911   0.993  11.080  0.3339 -1.5323 -2.7029
44706SOL     OW46096  10.900   6.714   2.876 -0.2665 -0.3657 -0.7746
44706SOL    HW146097  10.865   6.765   2.803  0.2325  1.3734  0.1392
44706SOL    HW246098  10.827   6.659   2.904 -1.8380  1.9204 -0.0029
44707SOL     OW46099  10.674   8.593   5.974  0.1967  0.5956 -0.5659
44707SOL    HW146100  10.753   8.639   6.001  1.4442 -2.1319  0.8549
44707SOL    HW246101  10.674   8.600   5.879  1.1074  2.2333 -0.4811
44708SOL     OW46102   1.311   5.839  13.716 -0.3287  0.2483  0.1339
44708SOL    HW146103   1.327   5.771  13.650  1.0776 -1.0604  1.7149
44708SOL    HW246104   1.377   5.907  13.696 -1.1706  0.7877 -0.9248
44709SOL     OW46105  11.011  12.196   9.812  0.1392 -0.5433 -0.4651
44709SOL    HW146106  11.088  12.228   9.859 -0.2143 -1.4233  0.7880
44709SOL    HW246107  11.015  12.101   9.823 -1.0445 -0.6138 -0.5100
44710SOL     OW46108  11.341  13.975   5.024  0.1443  0.1523 -0.2062
44710SOL    HW146109  11.344  13.928   4.941  0.1923 -1.3123  0.6051
44710SOL    HW246110  11.387  13.919   5.086 -1.2860  0.4512  1.1885
44711SOL     OW46111   2.496   3.094   6.475  0.2427 -0.2929  0.6126
44711SOL    HW146112   2.538   3.067   6.394  1.7391  1.2984  0.8223
44711SOL    HW246113   2.404   3.107   6.451  1.0334  2.4175 -1.4621
44712SOL     OW46114   0.004   0.448   6.153  0.1028 -0.2131  0.6139
44712SOL    HW146115  -0.084   0.453   6.191 -0.3588 -1.3956 -0.1942
44712SOL    HW246116   0.057   0.404   6.219 -0.6864 -2.2366  0.0084
44713SOL     OW46117   6.667  10.321   0.874 -0.3583  0.3436 -0.2014
44713SOL    HW146118   6.629  10.253   0.928  1.7311 -1.1401 -0.4964
44713SOL    HW246119   6.592  10.365   0.834 -1.8155 -0.4939  1.4889
44714SOL     OW46120  12.365   3.851   3.584 -0.0307  0.4044  0.1406
44714SOL    HW146121  12.387   3.877   3.495  1.8368 -1.1864  0.0780
44714SOL    HW246122  12.417   3.910   3.639 -0.9004  1.1406  0.1957
44715SOL     OW46123  11.187  11.425   9.990 -0.0393  0.1175 -0.4140
44715SOL    HW146124  11.226  11.461   9.910  0.0034  1.0081 -0.0030
44715SOL    HW246125  11.153  11.501  10.037 -0.0638 -0.3921  0.4201
44716SOL     OW46126  12.338   2.021   7.648  0.4966  0.8096  0.5414
44716SOL    HW146127  12.250   2.053   7.663  0.4070  0.4767  0.7355
44716SOL    HW246128  12.326   1.940   7.598  0.7711  1.6642 -0.9753
44717SOL     OW46129   1.513  10.940  12.312  0.4011  0.3844  0.0059
44717SOL    HW146130   1.575  10.868  12.318  1.1120  1.0517  0.9262
44717SOL    HW246131   1.465  10.938  12.395 -0.5314  0.1417 -0.5183
44718SOL     OW46132   1.559   3.429   0.805  0.6702  0.3125  0.6582
44718SOL    HW146133   1.523   3.513   0.836  1.3797  0.5372  0.9157
44718SOL    HW246134   1.505   3.405   0.730  0.4784  1.0272  0.5610
44719SOL     OW46135  12.568   1.928  10.922  0.0004  0.5876  0.1997
44719SOL    HW146136  12.524   1.912  10.838 -0.7830  0.9062  0.5408
44719SOL    HW246137  12.627   2.002  10.905  0.2838  0.2721 -0.2154
44720SOL     OW46138  13.680   2.862   4.395 -0.1162  0.6519 -0.3050
44720SOL    HW146139  13.720   2.776   4.386 -2.5620 -0.5075 -0.9285
44720SOL    HW246140  13.628   2.857   4.475 -0.2534  1.5772 -0.3180
44721SOL     OW46141   3.901   4.325  10.741 -0.0301 -0.6085 -0.0427
44721SOL    HW146142   3.937   4.275  10.815 -1.8802  0.2354  1.5199
44721SOL    HW246143   3.893   4.414  10.774 -0.7638 -0.1710 -1.3413
44722SOL     OW46144   4.737   3.539   2.441 -0.1778 -0.0423 -0.4646
44722SOL    HW146145   4.646   3.535   2.412 -1.0043 -0.6704  1.9789
44722SOL    HW246146   4.740   3.618   2.496 -0.1318 -1.6522  1.9860
44723SOL     OW46147   1.718  11.437  11.232  0.0441 -0.1356  0.1273
44723SOL    HW146148   1.747  11.491  11.305 -1.9319 -0.1103  0.9566
44723SOL    HW246149   1.624  11.425  11.246 -0.1127 -1.4158 -1.5883
44724SOL     OW46150   0.632   3.299  12.883  0.0446  0.1233 -0.0181
44724SOL    HW146151   0.726   3.306  12.899  0.4946 -1.3619 -1.6922
44724SOL    HW246152   0.596   3.265  12.965  1.2146 -0.7958  0.1414
44725SOL     OW46153   7.279   6.207  11.605 -0.0204 -0.4525  0.5500
44725SOL    HW146154   7.340   6.137  11.629  0.5355 -0.1108  0.1423
44725SOL    HW246155   7.317   6.246  11.526 -0.8053 -0.2838  0.2499
44726SOL     OW46156   5.562   8.853   3.605  0.4147 -0.2162  0.2457
44726SOL    HW146157   5.644   8.879   3.648  0.7929 -0.6398 -0.2122
44726SOL    HW246158   5.589   8.804   3.528 -0.2728 -0.1109 -0.0735
44727SOL     OW46159  10.527   4.679   3.539  0.1090  0.6734  0.2380
44727SOL    HW146160  10.580   4.729   3.600 -1.0488  2.3250 -0.0427
44727SOL    HW246161  10.438   4.686   3.573 -0.0797 -1.3991  0.2843
44728SOL     OW46162   1.792  13.658   7.813  0.6641 -0.0678  0.6439
44728SOL    HW146163   1.852  13.584   7.803  0.8177  0.3553 -2.8288
44728SOL    HW246164   1.848  13.736   7.804 -0.0818  0.3540 -0.5742
44729SOL     OW46165  13.053   0.619   4.788  0.1928  0.1936  0.7694
44729SOL    HW146166  13.078   0.689   4.727  1.3362  0.9943  2.1015
44729SOL    HW246167  12.967   0.646   4.821 -1.4961 -1.3007 -1.9361
44730SOL     OW46168   5.378   4.859   1.929  0.6306 -0.0641 -0.2393
44730SOL    HW146169   5.283   4.860   1.933  0.6082 -1.7887  0.4424
44730SOL    HW246170   5.399   4.897   1.843 -0.6562  0.3438 -0.3893
44731SOL     OW46171   0.523   1.658  11.325 -0.4264 -0.1346 -0.0435
44731SOL    HW146172   0.559   1.740  11.292 -1.8003  1.3685  1.9332
44731SOL    HW246173   0.599   1.601  11.337  0.6648  1.1328 -0.7046
44732SOL     OW46174   3.147   7.517   0.631  0.3040  0.2361  0.3358
44732SOL    HW146175   3.198   7.498   0.710  0.5677  0.9406  0.3398
44732SOL    HW246176   3.163   7.609   0.614  0.8413 -0.0746 -0.9615
44733SOL     OW46177  11.508  13.092   0.844  0.4656 -1.0570 -0.4644
44733SOL    HW146178  11.556  13.175   0.843  1.4678 -1.6075 -2.2194
44733SOL    HW246179  11.575  13.026   0.826 -0.8656 -1.8910 -2.7186
44734SOL     OW46180   0.913  12.142   4.257 -0.1209 -0.2322  0.0211
44734SOL    HW146181   0.879  12.054   4.242  0.8097 -0.3100 -1.8474
44734SOL    HW246182   0.851  12.200   4.212 -0.8052  0.1404  1.3535
44735SOL     OW46183   2.163   7.754   6.356  0.2621 -0.5256  0.4761
44735SOL    HW146184   2.250   7.742   6.319  0.1696  0.3691 -0.0579
44735SOL    HW246185   2.162   7.698   6.433  0.1143 -3.2225 -1.3609
44736SOL     OW46186   8.030  10.412   2.343 -0.0228  0.2055 -0.2103
44736SOL    HW146187   7.939  10.426   2.369  0.2589 -0.2414  1.1216
44736SOL    HW246188   8.081  10.455   2.412  0.8136  2.7271 -2.2448
44737SOL     OW46189  10.249   6.274   6.162 -0.2732 -0.5141 -0.1063
44737SOL    HW146190  10.320   6.264   6.225 -1.5030  1.4552  1.7132
44737SOL    HW246191  10.293   6.286   6.078  1.4152 -2.9501  0.3541
44738SOL     OW46192   7.456   7.243  11.128  0.0997  0.1767 -0.2850
44738SOL    HW146193   7.461   7.338  11.116  0.8495  0.1587 -0.1905
44738SOL    HW246194   7.464   7.207  11.039  1.0936  0.1773 -0.2134
44739SOL     OW46195   8.435   0.119   0.336  0.0536 -0.6072 -0.3914
44739SOL    HW146196   8.422   0.208   0.303  2.2957 -0.3666 -0.7515
44739SOL    HW246197   8.463   0.069   0.260 -0.8587 -1.5719 -0.1190
44740SOL     OW46198   6.603   4.332   8.496  0.0159 -0.1278  0.1931
44740SOL    HW146199   6.556   4.409   8.466  0.3084 -0.1721 -0.3966
44740SOL    HW246200   6.689   4.338   8.453  1.6140  1.3765  3.2821
44741SOL     OW46201   6.023  11.356   2.958  0.0968 -0.7466 -0.4471
44741SOL    HW146202   6.107  11.387   2.922  0.3707 -1.3037 -0.2884
44741SOL    HW246203   5.957  11.399   2.903  0.4860 -0.3995 -0.6524
44742SOL     OW46204   1.940   2.117   4.864  0.3733 -0.1727 -0.4642
44742SOL    HW146205   1.948   2.208   4.835 -0.6137  0.8785  2.2329
44742SOL    HW246206   2.005   2.109   4.933  0.4432 -1.5309 -0.6738
44743SOL     OW46207  11.681   2.716   0.686 -0.2561  0.4913 -0.5203
44743SOL    HW146208  11.703   2.809   0.700 -0.8970  0.7760 -1.3100
44743SOL    HW246209  11.762   2.676   0.656  0.5559  0.3502  1.7128
44744SOL     OW46210   3.705   2.253  12.542  0.2582 -0.0452 -0.4708
44744SOL    HW146211   3.637   2.303  12.497 -0.2599 -1.1001 -0.8825
44744SOL    HW246212   3.685   2.162  12.523  1.4075 -0.4082 -0.0469
44745SOL     OW46213  11.399  11.668   3.989 -0.2724 -0.3738  0.6638
44745SOL    HW146214  11.368  11.729   3.922 -1.6289 -2.6038 -0.8784
44745SOL    HW246215  11.412  11.723   4.067 -0.2252  2.0462 -0.9225
44746SOL     OW46216  11.051   6.428   1.733  0.0777  0.2866  0.3173
44746SOL    HW146217  11.017   6.373   1.804 -0.3444 -1.6142 -1.2528
44746SOL    HW246218  10.980   6.430   1.669  0.1484  2.6336  0.2382
44747SOL     OW46219   6.348   6.219  13.693 -0.3215  0.5860 -0.1834
44747SOL    HW146220   6.295   6.178  13.624 -0.5503 -1.0841  0.9240
44747SOL    HW246221   6.311   6.185  13.775  0.4469  1.9039  0.7462
44748SOL     OW46222  13.107   4.995  11.567  0.0848 -0.0431 -0.5440
44748SOL    HW146223  13.197   4.962  11.572 -0.1986 -0.7959 -0.2363
44748SOL    HW246224  13.056   4.934  11.621 -0.2543  1.6792  1.2097
44749SOL     OW46225   0.360   9.942  12.191  0.7438 -0.2508 -0.3953
44749SOL    HW146226   0.378   9.989  12.272 -2.4160 -1.1127  0.9487
44749SOL    HW246227   0.379   9.850  12.212  0.2140 -0.4376 -0.7163
44750SOL     OW46228  13.932   8.920   4.365  0.1376 -0.0176  0.6493
44750SOL    HW146229  13.903   8.829   4.368 -1.7429  0.5541  0.8789
44750SOL    HW246230  14.025   8.916   4.388  0.9244 -2.1893 -2.1735
44751SOL     OW46231   3.842   0.493   1.107  0.5075  0.9485 -0.8044
44751SOL    HW146232   3.936   0.510   1.118  0.4840  0.2635  0.7445
44751SOL    HW246233   3.801   0.536   1.182 -0.1893 -0.3976 -0.3724
44752SOL     OW46234   6.175   7.149  10.340 -0.1380  0.5185  0.0589
44752SOL    HW146235   6.166   7.055  10.350 -1.4825  0.5139 -0.9184
44752SOL    HW246236   6.166   7.164  10.246  0.9170  1.5460  0.1006
44753SOL     OW46237  11.590   6.612   4.538  0.1857  0.1498 -0.0527
44753SOL    HW146238  11.641   6.672   4.484  0.3419 -0.2225 -0.3255
44753SOL    HW246239  11.533   6.566   4.476  0.2066 -0.1234  0.1247
44754SOL     OW46240  10.795   9.085   3.480 -0.2574 -0.1764  0.1308
44754SOL    HW146241  10.814   9.072   3.387 -1.1343 -0.1282 -0.0651
44754SOL    HW246242  10.825   9.174   3.497  0.3864 -0.3701  0.0231
44755SOL     OW46243   9.838   2.180  11.943 -0.8382  0.3315  0.1100
44755SOL    HW146244   9.895   2.223  11.878  1.4181 -1.1841  0.9815
44755SOL    HW246245   9.831   2.244  12.014  2.3053 -0.4440  1.2979
44756SOL     OW46246   8.206   2.927  12.818  0.2051  0.4939  0.1715
44756SOL    HW146247   8.174   3.002  12.769 -1.0412 -0.9940 -1.4297
44756SOL    HW246248   8.187   2.852  12.761 -0.1288 -1.2065  2.3940
44757SOL     OW46249  11.682   5.555   3.480  0.4469 -0.3225 -0.6406
44757SOL    HW146250  11.768   5.559   3.523 -0.2778 -0.6772  0.9182
44757SOL    HW246251  11.650   5.466   3.498 -0.0693 -0.3408 -1.5788
44758SOL     OW46252   1.782   5.852   1.834 -0.9603 -0.0191  0.2645
44758SOL    HW146253   1.874   5.825   1.841 -0.5398  1.2341 -0.2267
44758SOL    HW246254   1.758   5.830   1.743 -2.1446 -3.2232  1.1982
44759SOL     OW46255   9.120  12.997   8.242  0.2896  0.0669  0.2483
44759SOL    HW146256   9.077  13.066   8.293  1.1204  1.3703 -0.7311
44759SOL    HW246257   9.055  12.927   8.237 -0.2627  0.4109  2.0026
44760SOL     OW46258   3.745   1.368   3.283 -0.3543  0.1549  0.0225
44760SOL    HW146259   3.786   1.313   3.215  0.6912  1.6404 -0.5925
44760SOL    HW246260   3.781   1.334   3.365 -0.9751 -1.1091 -0.1972
44761SOL     OW46261   8.345  12.924   1.241  0.2289 -0.3597 -0.1907
44761SOL    HW146262   8.300  13.006   1.263 -0.9650 -1.7271  3.0788
44761SOL    HW246263   8.438  12.943   1.258 -0.1265  0.1194  1.3730
44762SOL     OW46264   1.290   0.268   5.573  0.1382 -0.1134 -0.1946
44762SOL    HW146265   1.266   0.358   5.595 -1.2936 -0.3834 -0.5612
44762SOL    HW246266   1.382   0.261   5.599  0.1758  1.3417  0.1635
44763SOL     OW46267  12.337   4.350   2.485 -0.1592  0.0377 -0.3052
44763SOL    HW146268  12.255   4.302   2.498 -0.9654  1.3619 -0.3567
44763SOL    HW246269  12.341   4.412   2.558  0.8725 -0.0990 -0.2288
44764SOL     OW46270   7.764  12.784  13.469 -0.2728  0.1521 -0.2543
44764SOL    HW146271   7.680  12.756  13.505 -0.5088  0.7175 -0.3397
44764SOL    HW246272   7.801  12.706  13.429 -1.5028  0.2471 -1.6399
44765SOL     OW46273   1.654  11.347   5.625 -0.0778 -0.5062  0.1769
44765SOL    HW146274   1.703  11.349   5.707  1.4899 -0.4564 -0.7124
44765SOL    HW246275   1.682  11.265   5.583 -0.3052 -0.1866 -0.6087
44766SOL     OW46276   3.810   9.574  10.418 -0.0625  0.1299 -0.2955
44766SOL    HW146277   3.815   9.500  10.479  2.3166  1.3276  1.0835
44766SOL    HW246278   3.842   9.649  10.468 -2.1824  2.1183 -1.7154
44767SOL     OW46279   6.005   5.439   0.798  0.3932  0.2023 -0.0083
44767SOL    HW146280   6.010   5.523   0.753  1.8125 -0.6028 -1.4454
44767SOL    HW246281   6.094   5.423   0.829 -0.3407  0.2829  2.3339
44768SOL     OW46282   1.145  13.420   2.254 -0.1452 -0.0130 -0.4227
44768SOL    HW146283   1.173  13.486   2.317 -1.7623 -0.3296  0.6926
44768SOL    HW246284   1.057  13.447   2.228 -1.2825 -2.1982  0.8377
44769SOL     OW46285   7.469   2.399   6.591  0.1566  0.2872 -0.1902
44769SOL    HW146286   7.534   2.436   6.532 -0.5921  0.1780 -1.1221
44769SOL    HW246287   7.387   2.403   6.541 -0.4263 -0.1596  0.7057
44770SOL     OW46288   2.993  10.810   6.637 -0.3093  0.4394  0.1394
44770SOL    HW146289   3.043  10.834   6.715  1.5358  0.1654 -0.8995
44770SOL    HW246290   2.959  10.892   6.603  0.3201  0.7650  0.2938
44771SOL     OW46291  13.822  12.403   8.456 -0.1781  0.8153  0.0569
44771SOL    HW146292  13.759  12.358   8.399  1.1537  0.2336 -1.0183
44771SOL    HW246293  13.848  12.336   8.519  0.0509  0.7693 -0.0842
44772SOL     OW46294   9.757   1.572   3.106  0.5371  0.0212  0.4206
44772SOL    HW146295   9.821   1.637   3.078  0.0371  0.2569 -0.2174
44772SOL    HW246296   9.805   1.489   3.106  0.3785 -0.1759 -2.1390
44773SOL     OW46297   0.866   7.313  10.265  0.0608  0.0827  0.0689
44773SOL    HW146298   0.855   7.364  10.346  0.6708  0.2788  0.0347
44773SOL    HW246299   0.919   7.238  10.291 -2.0681 -1.3775  0.4438
44774SOL     OW46300   4.569   2.751   1.520 -0.0727 -0.2298 -0.0761
44774SOL    HW146301   4.493   2.791   1.477  0.4284  0.4675 -0.3287
44774SOL    HW246302   4.538   2.731   1.609 -0.5529  0.0486 -0.1797
44775SOL     OW46303  10.701   6.244   5.345 -0.9115 -0.1762 -0.1604
44775SOL    HW146304  10.692   6.160   5.301  1.9185 -1.5459  1.6045
44775SOL    HW246305  10.774   6.287   5.300 -0.3716 -0.0133  0.8506
44776SOL     OW46306  12.713   7.597   7.363 -0.3425  0.0118 -0.1889
44776SOL    HW146307  12.777   7.533   7.331 -0.4724  0.0830 -0.5963
44776SOL    HW246308  12.723   7.672   7.305  1.0135  1.0692  1.3170
44777SOL     OW46309   4.656  13.791  11.439 -0.1526  0.1573  0.5844
44777SOL    HW146310   4.621  13.777  11.527 -0.3837  1.5833  0.7314
44777SOL    HW246311   4.725  13.855  11.450 -0.7297  0.9708 -0.3794
44778SOL     OW46312   5.993   5.716   0.511  0.1677  0.0821  0.1896
44778SOL    HW146313   5.910   5.755   0.536 -0.3248 -1.2959  0.8225
44778SOL    HW246314   6.016   5.757   0.428  0.1222  2.3052  1.1780
44779SOL     OW46315   1.494   6.483   1.291  0.3501 -0.3930  0.0234
44779SOL    HW146316   1.514   6.439   1.208 -2.9098 -0.3065 -0.9496
44779SOL    HW246317   1.477   6.411   1.353  0.2149 -0.4880 -0.1232
44780SOL     OW46318  13.102   3.332  11.750  0.2814  0.2742  0.4230
44780SOL    HW146319  13.085   3.285  11.668  0.1164 -3.2655  2.3245
44780SOL    HW246320  13.015   3.349  11.786  0.3843  0.9533  0.3796
44781SOL     OW46321  11.246   4.772   5.828 -0.2800  0.4799 -0.1624
44781SOL    HW146322  11.180   4.792   5.894 -0.3405  1.8332 -0.5978
44781SOL    HW246323  11.218   4.690   5.789 -0.7926  0.1901  0.7940
44782SOL     OW46324  13.470   8.118   1.727  0.3071  0.9775  0.0545
44782SOL    HW146325  13.557   8.095   1.695 -0.0296  0.9239 -0.8378
44782SOL    HW246326  13.485   8.190   1.789  1.0551  0.4428  0.5163
44783SOL     OW46327  12.332   7.297   1.664 -0.4397  0.1548 -0.3020
44783SOL    HW146328  12.357   7.223   1.719 -0.3912  0.9758  0.8048
44783SOL    HW246329  12.246   7.325   1.698 -0.1105  1.0804 -0.1943
44784SOL     OW46330   4.229   5.476  11.320 -0.1317  0.0541 -0.8122
44784SOL    HW146331   4.277   5.409  11.272  0.1724  0.1229 -0.6125
44784SOL    HW246332   4.207   5.435  11.403  2.0584  0.8988  0.2630
44785SOL     OW46333   9.050   3.889  11.329 -0.4737 -0.1986  0.1074
44785SOL    HW146334   9.062   3.861  11.420  0.4481  0.2209  0.1214
44785SOL    HW246335   8.972   3.945  11.332 -0.7701 -0.6198  0.5392
44786SOL     OW46336   8.199   0.776   0.651  0.1920  0.4253  0.8659
44786SOL    HW146337   8.294   0.768   0.640 -0.0012  0.3190 -1.0230
44786SOL    HW246338   8.164   0.698   0.607 -0.8215  1.2252  0.2209
44787SOL     OW46339   3.540  12.488   7.275 -0.3462  0.5509  0.2015
44787SOL    HW146340   3.593  12.546   7.220  0.2977 -0.1296  0.0868
44787SOL    HW246341   3.595  12.410   7.288 -2.3349 -1.3843 -2.1570
44788SOL     OW46342   9.364  13.866  13.458 -0.5306  0.3516 -0.1778
44788SOL    HW146343   9.303  13.792  13.453 -0.3480  0.1879 -0.0076
44788SOL    HW246344   9.441  13.830  13.503  0.1798  0.2098 -1.4322
44789SOL     OW46345  12.252   9.093   6.025 -1.2119  0.4442 -0.6567
44789SOL    HW146346  12.263   9.129   5.937  0.5142 -1.5223 -1.3236
44789SOL    HW246347  12.237   9.000   6.011 -1.2255  0.1490  1.1318
44790SOL     OW46348   3.462   3.427   4.790 -0.7223 -0.2596 -0.1922
44790SOL    HW146349   3.486   3.339   4.761  1.3676  0.8733 -2.3063
44790SOL    HW246350   3.367   3.431   4.777 -0.6117 -1.6376 -1.8544
44791SOL     OW46351   5.432   9.247  13.907  0.1661 -0.1473 -0.1501
44791SOL    HW146352   5.353   9.233  13.855 -0.0059 -0.0146  0.0692
44791SOL    HW246353   5.454   9.161  13.942 -1.8830  0.2888  2.6115
44792SOL     OW46354   4.494   0.802   4.795  0.3070  0.4090 -0.4324
44792SOL    HW146355   4.554   0.767   4.860 -1.1741 -0.8941  0.2761
44792SOL    HW246356   4.516   0.756   4.714 -1.4571 -2.1390  0.4299
44793SOL     OW46357   9.470   1.564  13.941  0.1423  0.5208 -0.2228
44793SOL    HW146358   9.531   1.613  13.995 -0.9601  0.4456  1.1313
44793SOL    HW246359   9.429   1.631  13.885  1.8892  0.4871 -1.6523
44794SOL     OW46360   6.177   4.682  11.965 -0.1028 -0.1304  0.1682
44794SOL    HW146361   6.118   4.631  11.908 -0.9521 -0.1185  1.0146
44794SOL    HW246362   6.118   4.734  12.020  0.5135 -2.0742  2.9015
44795SOL     OW46363   1.290   2.616   7.790  0.1987  0.5616  0.1655
44795SOL    HW146364   1.337   2.533   7.784  0.0504  0.3724  1.3552
44795SOL    HW246365   1.218   2.598   7.851 -1.6697  0.7365 -1.8624
44796SOL     OW46366   2.706   6.988   7.396  0.4678  0.2497 -0.3931
44796SOL    HW146367   2.624   7.023   7.364  0.8557  1.1889 -0.3934
44796SOL    HW246368   2.755   6.963   7.318  0.0394 -0.6678 -0.3780
44797SOL     OW46369   8.987   6.111   7.215 -0.1293  0.3184  0.4840
44797SOL    HW146370   8.924   6.174   7.251 -0.0431  0.7701 -0.1404
44797SOL    HW246371   9.026   6.070   7.292 -0.0995  1.1189  0.9081
44798SOL     OW46372  11.755  12.211   0.704  0.1146 -0.9828 -0.0337
44798SOL    HW146373  11.827  12.159   0.739  0.6273 -0.2220  0.0805
44798SOL    HW246374  11.722  12.161   0.629  0.0054 -1.8881  0.6028
44799SOL     OW46375  10.113  11.992   9.740  0.0291 -0.6466  0.3076
44799SOL    HW146376  10.059  11.936   9.685  0.4993  0.5301 -1.4699
44799SOL    HW246377  10.121  12.074   9.690 -0.4225  0.9352  2.6573
44800SOL     OW46378   2.325   1.252   6.486 -0.0449  0.2904  0.7504
44800SOL    HW146379   2.306   1.322   6.424  1.2980 -0.5157 -0.6520
44800SOL    HW246380   2.326   1.295   6.571 -0.7413  1.6663  0.0969
44801SOL     OW46381   2.686   8.976   1.421 -0.6872  0.3032 -0.3392
44801SOL    HW146382   2.707   8.883   1.410  0.1389  0.3150  1.0080
44801SOL    HW246383   2.768   9.022   1.404 -0.7188  0.6766  0.4836
44802SOL     OW46384  12.531   6.562   8.651 -0.6790 -0.3340 -0.0453
44802SOL    HW146385  12.461   6.627   8.641 -2.1023 -1.6378  0.7787
44802SOL    HW246386  12.557   6.541   8.562  1.3547  2.8193 -0.3582
44803SOL     OW46387   6.283   7.869   1.148 -0.4178 -0.4371  0.2208
44803SOL    HW146388   6.338   7.889   1.224 -0.5318 -2.0533  0.7636
44803SOL    HW246389   6.260   7.955   1.112  1.0049  0.3173  1.0175
44804SOL     OW46390  10.593  11.392  12.506  0.3056 -0.2691 -0.3491
44804SOL    HW146391  10.584  11.299  12.527  0.8316 -0.2589 -0.0517
44804SOL    HW246392  10.540  11.436  12.572  1.2071 -0.2872  0.4030
44805SOL     OW46393  12.919   3.134   7.564  0.2772 -0.3111 -0.3866
44805SOL    HW146394  12.915   3.137   7.660  0.8093 -1.8319 -0.2871
44805SOL    HW246395  12.861   3.204   7.535 -0.6013 -0.4096  1.0465
44806SOL     OW46396   2.766   3.013   5.677 -0.1306 -0.5668  0.5946
44806SOL    HW146397   2.681   2.970   5.669 -1.7532  2.1053  1.9429
44806SOL    HW246398   2.816   2.959   5.738 -0.2925 -2.8851 -1.2089
44807SOL     OW46399  10.718   2.983  12.808  0.0647  0.3147  0.5652
44807SOL    HW146400  10.637   2.997  12.857  0.1112 -2.5405  1.6232
44807SOL    HW246401  10.689   2.970  12.718 -0.6475 -0.2198  0.8551
44808SOL     OW46402  13.167  13.942  13.279  0.4424  0.2053 -0.1751
44808SOL    HW146403  13.140  13.954  13.370  1.4692 -1.6561  0.4280
44808SOL    HW246404  13.249  13.991  13.272  0.2820  0.4808 -0.1504
44809SOL     OW46405  10.969   6.187   1.857  0.0385  0.0645 -0.1351
44809SOL    HW146406  10.898   6.145   1.905 -2.3460  1.9091 -1.7656
44809SOL    HW246407  10.988   6.127   1.785 -2.0466  0.7974 -1.3921
44810SOL     OW46408   7.380  11.113  11.174  0.2228 -0.1570  0.4972
44810SOL    HW146409   7.412  11.074  11.093  1.3646 -0.2511  0.9808
44810SOL    HW246410   7.375  11.040  11.236 -0.2179 -0.0055  0.6445
44811SOL     OW46411  13.692   1.899   2.815  0.2823  0.1256 -0.3632
44811SOL    HW146412  13.655   1.921   2.730 -0.5475 -0.0898 -0.0686
44811SOL    HW246413  13.679   1.804   2.823 -0.4910  0.2847  0.3867
44812SOL     OW46414  10.988  11.787   7.420 -0.4569 -0.6851 -0.0745
44812SOL    HW146415  11.021  11.751   7.338  2.0657  1.7682 -0.2985
44812SOL    HW246416  10.921  11.850   7.394 -1.4735 -1.7075 -0.0121
44813SOL     OW46417   0.318  10.839   3.313  0.0665  0.7422 -0.1315
44813SOL    HW146418   0.275  10.791   3.243  1.6189  1.2258 -1.4795
44813SOL    HW246419   0.390  10.782   3.341 -0.7598  0.3833  1.3819
44814SOL     OW46420   0.164   1.891  13.872  0.0932 -0.0431  0.4770
44814SOL    HW146421   0.153   1.916  13.780  1.7260 -0.6586  0.0803
44814SOL    HW246422   0.227   1.819  13.870 -0.6053 -0.7439  2.0153
44815SOL     OW46423   0.964   4.739   5.746 -0.0167  0.5331 -0.1327
44815SOL    HW146424   1.045   4.755   5.795 -1.5290 -1.5410  3.4604
44815SOL    HW246425   0.985   4.665   5.689  0.5146 -0.5749  1.4023
44816SOL     OW46426   4.556   8.618   5.060 -0.4512  0.6720  0.2716
44816SOL    HW146427   4.605   8.699   5.045  2.1494 -0.6658  0.9246
44816SOL    HW246428   4.542   8.581   4.973  0.6693  0.5791  0.1199
44817SOL     OW46429   3.667   2.480  11.769 -0.4944 -0.3763  0.0474
44817SOL    HW146430   3.684   2.573  11.755 -1.1253  1.1162  6.1398
44817SOL    HW246431   3.753   2.442  11.786 -0.2174 -1.0884 -2.6172
44818SOL     OW46432   1.909  11.776   9.877  0.4008 -0.5583  0.3434
44818SOL    HW146433   1.991  11.773   9.927  0.2086  0.3588  0.7351
44818SOL    HW246434   1.932  11.826   9.798 -0.0766  0.8464  1.0635
44819SOL     OW46435  12.976  12.045  11.709  0.5647  0.5988 -0.4356
44819SOL    HW146436  12.889  12.068  11.675  0.3034  0.1780 -0.0546
44819SOL    HW246437  12.964  11.960  11.751  1.3656  0.0875 -1.1955
44820SOL     OW46438  11.295   6.409   6.987 -0.0627 -0.4243 -0.7394
44820SOL    HW146439  11.298   6.402   6.892  0.6332 -3.6727 -0.5979
44820SOL    HW246440  11.223   6.352   7.013 -0.4455  0.6478  0.7074
44821SOL     OW46441   4.077  10.447  11.167 -0.1486  0.5044 -0.0268
44821SOL    HW146442   4.046  10.463  11.077  0.5203 -0.8469 -0.5325
44821SOL    HW246443   4.093  10.535  11.203 -0.7557  1.0806 -1.1077
44822SOL     OW46444  11.259   0.124   6.340  0.0302  0.0978 -0.3029
44822SOL    HW146445  11.299   0.188   6.281  0.2193  0.2573 -0.0085
44822SOL    HW246446  11.177   0.165   6.368  0.2125  0.2732 -0.0138
44823SOL     OW46447  11.764   7.963   3.169  0.4341 -0.4107 -0.2111
44823SOL    HW146448  11.850   7.983   3.130 -0.2896 -0.9087 -2.1790
44823SOL    HW246449  11.701   7.999   3.107 -0.8149  0.3066  1.4102
44824SOL     OW46450   1.862   2.942   1.251  0.2555 -0.4064 -0.4956
44824SOL    HW146451   1.799   2.919   1.320  1.6810  1.3439  1.5471
44824SOL    HW246452   1.858   2.869   1.189 -1.5771 -1.7745  1.0945
44825SOL     OW46453   9.509  12.084   8.949  0.1751 -0.1333 -0.3436
44825SOL    HW146454   9.556  12.002   8.963  0.1133 -0.5999 -2.5221
44825SOL    HW246455   9.556  12.147   9.004  1.2148 -1.2857  0.1634
44826SOL     OW46456   2.875   6.815   6.893  0.5374 -0.5263  0.1082
44826SOL    HW146457   2.944   6.758   6.858  0.4375  0.2202 -1.3657
44826SOL    HW246458   2.804   6.808   6.830  0.8315  1.8485 -0.5693
44827SOL     OW46459  13.514   0.478  10.367  0.1907  0.1447  0.6101
44827SOL    HW146460  13.477   0.435  10.444 -0.3759 -0.8247 -0.1791
44827SOL    HW246461  13.448   0.543  10.343  0.1486  0.1233  0.6664
44828SOL     OW46462   6.657   2.432   7.722  0.3041  0.4299 -0.6626
44828SOL    HW146463   6.590   2.448   7.655 -1.4708  0.7701  1.0653
44828SOL    HW246464   6.610   2.446   7.805  2.1277 -0.9304  0.6723
44829SOL     OW46465  11.115  13.701   8.159 -0.0541 -0.1069 -0.3217
44829SOL    HW146466  11.164  13.698   8.241  0.6232 -0.2400 -0.7282
44829SOL    HW246467  11.075  13.788   8.158  2.2781  1.0166 -1.1933
44830SOL     OW46468   8.187   5.257   7.180 -0.0627 -0.1708 -0.2968
44830SOL    HW146469   8.264   5.201   7.192 -0.0079 -0.1393 -0.4981
44830SOL    HW246470   8.203   5.333   7.235  1.1661  0.9762 -2.1560
44831SOL     OW46471   5.511  11.931   8.360  0.5544  0.4972  0.2607
44831SOL    HW146472   5.591  11.879   8.364  0.6042  0.6261  1.7497
44831SOL    HW246473   5.481  11.936   8.451 -0.0293  2.1660  0.0220
44832SOL     OW46474   1.188   4.693  11.848 -0.5539 -0.4260 -0.0734
44832SOL    HW146475   1.232   4.610  11.869  0.0607  0.1357  0.9068
44832SOL    HW246476   1.244   4.733  11.781 -2.4577 -2.1674 -2.8912
44833SOL     OW46477   6.898   8.550   9.769 -0.3513  0.5201  0.5502
44833SOL    HW146478   6.905   8.454   9.765 -1.5994  0.4398 -2.3585
44833SOL    HW246479   6.983   8.579   9.802  0.9226 -1.5380 -0.6851
44834SOL     OW46480   1.026  13.216   6.687  0.1369 -0.1991 -0.1103
44834SOL    HW146481   0.958  13.265   6.734  0.1128  0.6593 -1.0126
44834SOL    HW246482   0.985  13.131   6.669 -0.4556  0.0673 -0.0615
44835SOL     OW46483   4.319   7.843   9.382 -0.0008  0.2266 -0.2205
44835SOL    HW146484   4.282   7.931   9.391  3.3151  1.9481 -1.5647
44835SOL    HW246485   4.319   7.826   9.288  0.0706 -0.9012 -0.0336
44836SOL     OW46486   8.463   3.996   8.609 -0.5306  0.5756  0.3827
44836SOL    HW146487   8.400   4.068   8.620 -0.6049  0.2875  2.1611
44836SOL    HW246488   8.412   3.917   8.629  0.4897  0.3856  2.4674
44837SOL     OW46489   4.196   3.818   1.165  0.0392  0.0918  0.3028
44837SOL    HW146490   4.170   3.810   1.257 -0.1091 -0.4458  0.2183
44837SOL    HW246491   4.183   3.911   1.145  0.0266  0.2064  0.8070
44838SOL     OW46492   5.796   2.222   7.240 -0.1776 -0.2914  0.7298
44838SOL    HW146493   5.763   2.215   7.330 -0.2452  0.2133  0.7514
44838SOL    HW246494   5.733   2.279   7.196  0.0251 -0.2836  0.4493
44839SOL     OW46495  10.789   1.299   6.469 -0.7028  0.1679 -0.1838
44839SOL    HW146496  10.706   1.298   6.421 -1.2687  2.1694  0.6848
44839SOL    HW246497  10.856   1.302   6.401 -1.3862 -0.0551 -0.8790
44840SOL     OW46498   6.354   2.986   3.636  0.5481  0.3563  0.5162
44840SOL    HW146499   6.346   2.893   3.613  0.4907  0.0531  1.6913
44840SOL    HW246500   6.263   3.017   3.637  0.5556  0.3868  0.2696
44841SOL     OW46501   5.971   3.614   5.980 -0.1443 -0.0959  0.1080
44841SOL    HW146502   5.965   3.570   5.895 -1.1874  0.9732 -0.4041
44841SOL    HW246503   5.952   3.706   5.961  1.8567  0.5927  1.1648
44842SOL     OW46504  11.002   9.467   1.535  0.8591  0.3596  0.0227
44842SOL    HW146505  10.983   9.374   1.521  0.3747  0.5680 -0.7033
44842SOL    HW246506  11.091   9.479   1.501  2.0342 -0.4076  2.5691
44843SOL     OW46507   8.513   0.771   9.529  0.3428 -0.2096 -0.1729
44843SOL    HW146508   8.542   0.824   9.603 -0.8170  0.7792 -0.4062
44843SOL    HW246509   8.483   0.834   9.464 -0.2729 -1.1252 -0.7958
44844SOL     OW46510   6.005  12.066   5.692 -0.2399  0.2412 -0.1542
44844SOL    HW146511   5.977  11.982   5.656  0.0429  0.4158 -0.7781
44844SOL    HW246512   5.935  12.089   5.754 -1.3134  0.4856 -1.4185
44845SOL     OW46513   4.784  11.136   5.573 -0.3910 -0.3256 -0.1292
44845SOL    HW146514   4.794  11.218   5.524 -0.3761  0.2251  0.7733
44845SOL    HW246515   4.745  11.163   5.656  2.0096 -0.8578  1.2630
44846SOL     OW46516   7.858   5.620  12.835 -0.0067  0.4221  0.7067
44846SOL    HW146517   7.838   5.711  12.816 -0.5836  0.1921  0.1810
44846SOL    HW246518   7.777   5.584  12.870  0.0880  0.0030  0.5052
44847SOL     OW46519   3.629   8.853   8.365  0.2152 -0.1406  0.3052
44847SOL    HW146520   3.576   8.880   8.440  0.4164  1.5091 -0.1111
44847SOL    HW246521   3.701   8.916   8.362  0.2814 -0.2487 -1.2015
44848SOL     OW46522   7.728   4.365   9.954  0.5589  0.3520  0.1635
44848SOL    HW146523   7.745   4.293  10.015 -1.0205  1.0156  1.4412
44848SOL    HW246524   7.667   4.328   9.890  1.1696  0.0498 -0.2586
44849SOL     OW46525   2.595   1.417   7.668 -0.1402 -0.1544 -0.6108
44849SOL    HW146526   2.571   1.504   7.636  2.3103  0.5771 -0.6454
44849SOL    HW246527   2.664   1.433   7.732  0.9073 -2.1158 -1.1533
44850SOL     OW46528  11.329   1.030  12.623  0.9184 -0.5305  0.1311
44850SOL    HW146529  11.306   1.004  12.711  1.1612 -1.3581 -0.0444
44850SOL    HW246530  11.419   1.063  12.630  1.0330 -0.8478  0.1454
44851SOL     OW46531  12.773   9.397   5.387  0.1774  0.0903 -0.1177
44851SOL    HW146532  12.763   9.468   5.450 -0.5037 -0.7736  0.7700
44851SOL    HW246533  12.859   9.413   5.347  2.5945 -1.5086  3.8815
44852SOL     OW46534  11.510   2.828   3.536  0.5775  0.0309  0.2414
44852SOL    HW146535  11.422   2.863   3.521  0.9792  1.1889  0.4886
44852SOL    HW246536  11.500   2.733   3.529 -0.6881  0.1537  0.2573
44853SOL     OW46537  13.447   1.611   5.548 -0.7994  0.3123 -0.2001
44853SOL    HW146538  13.361   1.580   5.520 -0.1039  0.4692 -2.7360
44853SOL    HW246539  13.496   1.530   5.567 -0.7775  0.0985 -1.1268
44854SOL     OW46540   7.038   9.304  12.978  0.5159 -0.1937  0.2886
44854SOL    HW146541   6.949   9.320  13.010  0.2710 -1.9106  0.5456
44854SOL    HW246542   7.058   9.381  12.924 -0.7387  0.6806  1.0173
44855SOL     OW46543   1.598   3.435   8.233  0.3224  0.4110  0.5225
44855SOL    HW146544   1.535   3.495   8.194  0.7364  0.2263 -0.4692
44855SOL    HW246545   1.603   3.362   8.171 -0.0695 -0.5995  1.6330
44856SOL     OW46546  12.685  13.412   5.095 -0.2417 -0.2670 -0.4369
44856SOL    HW146547  12.748  13.472   5.135  1.1790 -2.4633  0.8124
44856SOL    HW246548  12.739  13.343   5.057 -1.8243 -0.9441 -1.5375
44857SOL     OW46549   2.059   8.241  10.199  0.0744 -0.4843 -0.1213
44857SOL    HW146550   2.103   8.302  10.141 -2.6045  0.0543 -1.7808
44857SOL    HW246551   2.068   8.156  10.156 -0.3638 -0.3950 -0.3958
44858SOL     OW46552  10.555   4.787   6.842  0.0225 -0.2744 -0.0660
44858SOL    HW146553  10.579   4.878   6.861 -1.7318 -0.0588  1.5345
44858SOL    HW246554  10.558   4.780   6.747  1.8521  0.9527 -0.1361
44859SOL     OW46555   0.341  11.260   9.313  0.2898 -0.0214  0.2558
44859SOL    HW146556   0.263  11.313   9.296 -0.1579 -0.0419  2.1092
44859SOL    HW246557   0.308  11.180   9.352  1.0798 -1.1260 -1.2402
44860SOL     OW46558   2.636  12.981   0.472 -0.5800  0.0412  0.0597
44860SOL    HW146559   2.685  12.899   0.473 -1.7151 -0.6814  1.3955
44860SOL    HW246560   2.664  13.026   0.393  1.4072 -0.8127  0.2234
44861SOL     OW46561   3.910   3.619  13.245  0.0227  0.4012  0.1381
44861SOL    HW146562   3.912   3.614  13.341  0.2922 -0.9097  0.0787
44861SOL    HW246563   3.833   3.673  13.226  0.6054  1.6412  1.1051
44862SOL     OW46564  13.826  13.945   0.839 -0.5136 -0.1055  0.2571
44862SOL    HW146565  13.896  14.006   0.814  0.9587 -1.8331 -0.0514
44862SOL    HW246566  13.747  13.984   0.802  0.6488  0.6713 -1.5803
44863SOL     OW46567   3.341  12.816   4.328 -0.4634  0.3058  0.5494
44863SOL    HW146568   3.274  12.805   4.395  0.6589 -1.7868  1.4293
44863SOL    HW246569   3.409  12.867   4.371  0.1120 -0.7590  0.9457
44864SOL     OW46570   4.063   0.859   6.307 -0.3019 -0.0124  0.0786
44864SOL    HW146571   4.090   0.923   6.373  1.1835 -0.1536 -0.3653
44864SOL    HW246572   4.048   0.911   6.228  1.7017 -0.2557 -0.5093
44865SOL     OW46573   6.466  13.270   2.534 -0.1262  0.2884 -1.0489
44865SOL    HW146574   6.515  13.287   2.454  0.3536 -1.5486 -1.1741
44865SOL    HW246575   6.489  13.344   2.591  0.0257  1.2847 -2.3416
44866SOL     OW46576  11.632   3.861   2.581  0.1283  0.0488  0.2282
44866SOL    HW146577  11.615   3.921   2.653 -2.7695  1.5014 -1.4852
44866SOL    HW246578  11.590   3.779   2.606 -2.0704  0.9534 -0.2500
44867SOL     OW46579   8.010   6.247  11.940 -0.4287  0.1276 -0.8394
44867SOL    HW146580   8.051   6.178  11.993 -1.8451 -0.3578 -0.3408
44867SOL    HW246581   8.041   6.230  11.851  0.7526  0.0264 -0.4354
44868SOL     OW46582   0.613   3.032   9.070 -0.2705  0.3638 -0.0756
44868SOL    HW146583   0.643   2.943   9.090  1.9097  1.2201  0.6485
44868SOL    HW246584   0.641   3.046   8.980 -0.3589  0.4397 -0.0906
44869SOL     OW46585   7.557   6.734   3.534 -0.0012 -0.1367 -0.2007
44869SOL    HW146586   7.500   6.801   3.571 -0.2262  0.0730 -0.9092
44869SOL    HW246587   7.555   6.663   3.599 -0.7071  0.0522 -0.0003
44870SOL     OW46588   2.590   6.838  13.693  0.0063  0.0175 -0.0323
44870SOL    HW146589   2.509   6.806  13.652  0.3466  0.4461 -1.0640
44870SOL    HW246590   2.647   6.761  13.695 -0.9493 -0.7134  2.1692
44871SOL     OW46591  10.243   0.393   7.056 -0.2912 -0.3234 -0.4042
44871SOL    HW146592  10.252   0.487   7.071 -0.3979 -0.1638 -1.2931
44871SOL    HW246593  10.159   0.384   7.010 -1.6603 -1.1502  2.1175
44872SOL     OW46594   3.364   2.686   3.392  0.1355 -0.0192 -0.4392
44872SOL    HW146595   3.271   2.665   3.400  0.0342  0.9532  1.3281
44872SOL    HW246596   3.408   2.602   3.404 -0.4828 -0.2607  0.2387
44873SOL     OW46597   1.142  12.054  10.945 -0.0780  0.2066 -0.2110
44873SOL    HW146598   1.167  12.141  10.977 -0.0131  0.4348 -0.8740
44873SOL    HW246599   1.184  12.047  10.859  1.5771 -1.2716  0.6597
44874SOL     OW46600  12.685   3.394   4.367 -0.0930  0.2418 -0.5010
44874SOL    HW146601  12.617   3.414   4.303 -0.2345  0.3400 -0.3222
44874SOL    HW246602  12.743   3.333   4.323  1.5918  2.6794 -1.8639
44875SOL     OW46603   7.092   1.673   9.710  0.0005  0.1696  0.0090
44875SOL    HW146604   7.082   1.719   9.794  1.1132 -0.6442  0.6198
44875SOL    HW246605   7.008   1.687   9.665  0.0761  2.2498  0.4141
44876SOL     OW46606  13.482   1.791   3.894 -0.0449  0.0817 -0.2399
44876SOL    HW146607  13.462   1.724   3.830  1.8985  0.4604 -1.3381
44876SOL    HW246608  13.498   1.870   3.842 -2.5172  1.5466  1.0222
44877SOL     OW46609  12.649   7.191   1.810 -0.1296  0.4824  0.2118
44877SOL    HW146610  12.718   7.179   1.875 -0.6315  1.6425  0.9966
44877SOL    HW246611  12.667   7.125   1.743  0.8819 -0.1862  1.1141
44878SOL     OW46612   8.184   0.694   4.955 -0.6535  0.0213  0.0994
44878SOL    HW146613   8.270   0.656   4.936 -0.2774  0.9784 -0.1666
44878SOL    HW246614   8.177   0.768   4.895 -1.0545  0.8154  1.1012
44879SOL     OW46615  13.833   8.968   0.783 -0.0683  0.4686 -0.5784
44879SOL    HW146616  13.915   9.013   0.763  0.4485 -0.1850  0.0208
44879SOL    HW246617  13.856   8.905   0.852 -1.1497  0.5331 -0.1393
44880SOL     OW46618   5.517   6.398   7.803 -0.2504 -0.0277  0.1815
44880SOL    HW146619   5.524   6.478   7.855  0.5332  0.5838 -0.8152
44880SOL    HW246620   5.580   6.411   7.732  0.9480 -2.1284  0.7829
44881SOL     OW46621   5.212   7.922   6.422  0.3778 -0.1602 -0.1669
44881SOL    HW146622   5.181   8.012   6.430 -0.9743 -0.7471  2.9564
44881SOL    HW246623   5.150   7.880   6.362 -0.0933  0.5514 -0.1819
44882SOL     OW46624   2.815   1.542   7.850 -0.7155 -0.3141  0.0624
44882SOL    HW146625   2.903   1.504   7.842 -0.4686  0.3560 -0.4993
44882SOL    HW246626   2.824   1.630   7.813 -2.0381 -0.8402 -1.6147
44883SOL     OW46627   5.345  10.325  13.157  0.2349 -0.4923  0.6041
44883SOL    HW146628   5.258  10.302  13.188  0.5923 -0.2436  1.8889
44883SOL    HW246629   5.331  10.392  13.090 -0.5177  1.3942  2.5244
44884SOL     OW46630   1.848   7.655   3.815  0.2634  0.5061  0.4972
44884SOL    HW146631   1.851   7.713   3.740  1.2873  0.3247  0.3890
44884SOL    HW246632   1.940   7.637   3.836 -0.0172  0.0214  1.3717
44885SOL     OW46633   7.054  12.436   0.496 -0.5071 -0.1775  0.2987
44885SOL    HW146634   7.106  12.501   0.449  1.0365 -0.8686  0.9864
44885SOL    HW246635   7.023  12.377   0.428 -0.1215  0.0668 -0.0992
44886SOL     OW46636   3.921  11.553   3.132  0.1658  0.0468 -0.2417
44886SOL    HW146637   3.899  11.575   3.041 -2.1532 -0.4246  0.1444
44886SOL    HW246638   4.017  11.554   3.134  0.3374 -1.0231 -2.9736
44887SOL     OW46639   3.794   8.412   9.728 -0.3101  0.0341  0.0859
44887SOL    HW146640   3.715   8.461   9.705  0.5037  1.2301 -0.2323
44887SOL    HW246641   3.764   8.321   9.737 -1.0414 -0.2844 -3.9136
44888SOL     OW46642   8.717   9.273   6.637  0.4360  0.0112  0.3288
44888SOL    HW146643   8.764   9.240   6.713  1.4003 -1.0479 -0.7001
44888SOL    HW246644   8.703   9.196   6.582  1.2125  0.9989 -1.3279
44889SOL     OW46645   0.338   9.890   6.776 -0.0534  0.1323  0.4243
44889SOL    HW146646   0.340   9.902   6.681  0.6841 -0.4311  0.3550
44889SOL    HW246647   0.387   9.809   6.790  0.7893  0.7869  1.3687
44890SOL     OW46648   6.223   5.567   1.564 -0.1875 -0.1852 -0.1203
44890SOL    HW146649   6.198   5.584   1.473 -0.6849 -3.0992 -0.6029
44890SOL    HW246650   6.146   5.527   1.603  0.8471 -1.3223  0.8379
44891SOL     OW46651   0.470  12.562   9.760 -0.0031  0.2317  0.0778
44891SOL    HW146652   0.440  12.636   9.707 -1.1043  0.0394  0.4001
44891SOL    HW246653   0.446  12.484   9.709 -2.9443 -0.0432  1.6640
44892SOL     OW46654  11.542  10.955   3.558 -0.5599 -0.7660  0.2203
44892SOL    HW146655  11.534  10.873   3.508  1.0824 -1.3524  0.8188
44892SOL    HW246656  11.628  10.948   3.600 -0.0726  1.5830 -0.2605
44893SOL     OW46657   7.802   5.608  10.901 -0.6707  0.2095 -0.2376
44893SOL    HW146658   7.855   5.649  10.969 -0.8739  0.7534 -0.4009
44893SOL    HW246659   7.852   5.531  10.874 -0.3289  0.2981  0.1412
44894SOL     OW46660  11.603   4.573   7.921 -0.1218 -0.1589 -0.5888
44894SOL    HW146661  11.644   4.600   7.839 -0.9342 -1.4829 -1.4580
44894SOL    HW246662  11.676   4.565   7.982  0.3729  1.9671 -0.8154
44895SOL     OW46663   8.488  10.902   1.923 -0.7373  0.2325  0.7392
44895SOL    HW146664   8.560  10.843   1.903 -1.6089  0.1823 -2.9831
44895SOL    HW246665   8.436  10.856   1.989  0.4914 -1.4878  0.5529
44896SOL     OW46666   0.826   7.398  13.906  0.4503  0.1882  0.3273
44896SOL    HW146667   0.872   7.481  13.916  1.6493 -0.5289  0.9265
44896SOL    HW246668   0.895   7.333  13.899 -0.4604 -1.0059  1.9774
44897SOL     OW46669   2.975   8.892   1.705 -0.1840  0.0308  0.1727
44897SOL    HW146670   2.980   8.910   1.799 -1.4863  1.3204  0.0512
44897SOL    HW246671   2.904   8.828   1.697 -1.1490  1.0805 -0.0101
44898SOL     OW46672   6.083   3.612   2.739 -0.9483  0.1422 -0.4554
44898SOL    HW146673   5.990   3.602   2.719 -1.1882  1.4617 -0.0675
44898SOL    HW246674   6.093   3.704   2.763  1.0905  1.0514 -4.0191
44899SOL     OW46675  10.131   3.730   1.159  0.0062  0.0610  0.0803
44899SOL    HW146676  10.063   3.664   1.165  0.7391 -0.5980  1.6900
44899SOL    HW246677  10.181   3.707   1.080 -1.3505  0.3430 -0.9082
44900SOL     OW46678   5.732   1.090   1.633  0.2508  0.0745  0.2813
44900SOL    HW146679   5.646   1.124   1.656  0.2025 -0.2124  0.5205
44900SOL    HW246680   5.793   1.158   1.661  0.1014  0.2931  0.0791
44901SOL     OW46681  13.453  13.826   2.419 -0.0019 -0.1169 -0.3890
44901SOL    HW146682  13.494  13.742   2.439  1.5909  0.4296 -1.1969
44901SOL    HW246683  13.505  13.862   2.348  0.5413  2.4025  1.1507
44902SOL     OW46684  12.212   2.392   4.489 -0.2167 -0.0723 -0.2941
44902SOL    HW146685  12.267   2.465   4.460  1.0521 -0.2072  1.5679
44902SOL    HW246686  12.269   2.315   4.484  0.4278  0.0061  3.0564
44903SOL     OW46687   1.437   0.730   2.128  0.2826 -0.1354 -0.4628
44903SOL    HW146688   1.450   0.767   2.041 -0.7185  1.4900  0.0368
44903SOL    HW246689   1.345   0.704   2.130  0.1238  0.4543  0.3286
44904SOL     OW46690   8.157   9.399   4.344 -0.2465  0.9762 -0.2782
44904SOL    HW146691   8.144   9.400   4.438 -1.2498 -1.2813 -0.3377
44904SOL    HW246692   8.196   9.313   4.326 -0.2801  1.2760 -1.9413
44905SOL     OW46693   7.380   1.631   1.242 -0.4327  0.7992 -0.4575
44905SOL    HW146694   7.312   1.697   1.251  0.7200  1.9083  0.4357
44905SOL    HW246695   7.427   1.654   1.161 -1.3567 -0.2366 -1.3284
44906SOL     OW46696  12.188   8.806   2.423  0.2107  0.4891 -0.6985
44906SOL    HW146697  12.169   8.885   2.372 -0.4673  1.8844  1.5322
44906SOL    HW246698  12.171   8.832   2.514 -0.1444 -2.2826  0.1274
44907SOL     OW46699   7.884   7.575   9.931  0.6935 -0.2111  0.1463
44907SOL    HW146700   7.802   7.623   9.923  0.8467  0.0863  0.3160
44907SOL    HW246701   7.892   7.556  10.025 -0.1353 -1.9578 -0.1062
44908SOL     OW46702  12.104   7.199   9.941  0.0492  0.3438  0.2839
44908SOL    HW146703  12.046   7.268   9.972 -0.0803  0.6181 -0.5279
44908SOL    HW246704  12.125   7.148  10.019  1.8405  2.5240  1.3292
44909SOL     OW46705  10.671   9.490   8.047  0.4691 -0.4310  0.5457
44909SOL    HW146706  10.708   9.425   8.107  1.4282  0.6432  1.1710
44909SOL    HW246707  10.584   9.457   8.026  1.1890 -2.2653  0.2824
44910SOL     OW46708   0.050   6.212   7.412  0.1612  0.4598  0.4025
44910SOL    HW146709   0.129   6.216   7.466  0.9503 -2.3672 -0.3787
44910SOL    HW246710  -0.004   6.145   7.455 -0.7840  0.7298 -0.3428
44911SOL     OW46711  10.387   9.604  12.627 -0.0033 -0.3887 -0.1129
44911SOL    HW146712  10.314   9.662  12.647 -0.3774 -0.3921 -1.3738
44911SOL    HW246713  10.460   9.637  12.679 -0.0128  1.6678 -1.3167
44912SOL     OW46714  13.459   7.543   5.741  0.5633 -0.0014 -0.2351
44912SOL    HW146715  13.501   7.458   5.723  1.8595  0.1704  1.6315
44912SOL    HW246716  13.376   7.520   5.781  0.5523 -0.3883 -0.4690
44913SOL     OW46717   3.539   0.944   8.469  0.0102  0.0430  0.0955
44913SOL    HW146718   3.598   0.880   8.509 -0.5476 -0.8260 -0.4218
44913SOL    HW246719   3.463   0.947   8.527 -2.3543 -3.7223 -2.2935
44914SOL     OW46720   6.325   7.369   1.589  0.7140 -0.5424 -0.3238
44914SOL    HW146721   6.247   7.349   1.538 -0.2714 -0.1193  0.9729
44914SOL    HW246722   6.335   7.464   1.582 -1.0974 -0.0173  2.4497
44915SOL     OW46723   6.405   6.186   9.801  0.2935  0.9206 -0.0541
44915SOL    HW146724   6.457   6.148   9.730  2.2260  2.5626  0.3698
44915SOL    HW246725   6.332   6.125   9.813  1.7600 -1.1878 -1.1549
44916SOL     OW46726  11.852   9.527   9.592 -0.3296 -0.3038 -0.4702
44916SOL    HW146727  11.821   9.607   9.633 -0.4522 -0.2079 -0.7536
44916SOL    HW246728  11.892   9.555   9.510 -0.4161 -0.5382 -0.5926
44917SOL     OW46729  12.886   4.110   7.402 -0.1725  0.5105 -0.3641
44917SOL    HW146730  12.817   4.107   7.469 -1.0672 -1.4094 -1.2606
44917SOL    HW246731  12.843   4.075   7.323  1.6177  0.0367 -1.1711
44918SOL     OW46732  13.304   8.611   9.364 -0.0087 -0.6683  0.1773
44918SOL    HW146733  13.241   8.666   9.317 -1.2483 -2.1744 -0.0147
44918SOL    HW246734  13.368   8.672   9.400 -0.5905  0.7649 -1.1252
44919SOL     OW46735   5.090  13.433   7.270 -0.1449 -0.6615 -0.1147
44919SOL    HW146736   5.002  13.453   7.237 -0.3461 -0.0918  0.7186
44919SOL    HW246737   5.139  13.515   7.259 -0.0334 -0.6549  0.3969
44920SOL     OW46738   3.749   2.709   8.355 -0.0160  0.2193  0.7364
44920SOL    HW146739   3.782   2.661   8.431 -1.2020  0.4748  1.4435
44920SOL    HW246740   3.667   2.664   8.333  1.0641 -0.8464 -1.4124
44921SOL     OW46741   2.888  12.528   0.206 -0.1159  0.4545 -0.4507
44921SOL    HW146742   2.843  12.447   0.231 -1.4752  1.5651  0.8929
44921SOL    HW246743   2.823  12.596   0.219  0.7663  1.7111 -2.2758
44922SOL     OW46744  12.615   1.619   9.579 -0.5466 -0.8138  0.5761
44922SOL    HW146745  12.568   1.541   9.609 -1.6279  0.4768  2.3710
44922SOL    HW246746  12.622   1.675   9.656 -0.4074  1.1935 -0.8173
44923SOL     OW46747   2.212  13.181   0.680  0.5691  0.1196 -0.3020
44923SOL    HW146748   2.120  13.185   0.707  0.5564 -1.2882 -0.0544
44923SOL    HW246749   2.210  13.197   0.585 -0.1662 -1.7391 -0.6402
44924SOL     OW46750   7.314   9.541   7.811  0.3952  0.3604 -0.3293
44924SOL    HW146751   7.282   9.628   7.789 -0.2730  0.1183 -0.3374
44924SOL    HW246752   7.293   9.487   7.735 -1.1498 -0.2822  0.4950
44925SOL     OW46753  10.217   6.805   1.857 -0.5193 -0.0228 -0.4511
44925SOL    HW146754  10.207   6.712   1.876 -1.4566 -0.3057 -2.1072
44925SOL    HW246755  10.201   6.812   1.763 -0.0454  1.7660 -0.4418
44926SOL     OW46756   0.720   0.688  13.048  0.7940 -0.7373  0.0149
44926SOL    HW146757   0.705   0.699  12.954  0.9186 -0.6065  0.0102
44926SOL    HW246758   0.770   0.765  13.074 -3.1787  1.7651  1.1179
44927SOL     OW46759  13.347   4.568  10.920 -0.7532  0.4652  0.7594
44927SOL    HW146760  13.299   4.629  10.864 -0.3801  2.6839  2.6909
44927SOL    HW246761  13.437   4.602  10.919 -0.3124 -0.6655  1.1307
44928SOL     OW46762   8.832  11.840  11.639  0.1855 -0.0866  0.2004
44928SOL    HW146763   8.862  11.879  11.722 -1.1195  0.6149  0.3757
44928SOL    HW246764   8.772  11.770  11.666 -0.1522  0.0665 -0.1429
44929SOL     OW46765  11.182   1.953  11.586  0.2667  0.2422 -0.3588
44929SOL    HW146766  11.274   1.926  11.588 -0.1744 -1.3098  1.8149
44929SOL    HW246767  11.134   1.879  11.623 -1.6530  1.7736  0.4048
44930SOL     OW46768   0.008  13.040   0.245 -0.5717 -0.0404  0.5300
44930SOL    HW146769  -0.032  13.107   0.301 -0.5040  0.1026  0.4066
44930SOL    HW246770  -0.058  12.970   0.241 -1.5921  0.9390 -1.1159
44931SOL     OW46771  12.989   4.521  12.261 -0.0533  0.4546 -0.4521
44931SOL    HW146772  13.041   4.441  12.266 -0.9260 -0.1430 -0.7409
44931SOL    HW246773  13.026   4.578  12.328 -1.0151 -1.1177  1.4924
44932SOL     OW46774   4.692  10.190   2.467 -0.2384  0.2524 -0.0334
44932SOL    HW146775   4.692  10.165   2.559  1.2768 -0.7072 -0.2580
44932SOL    HW246776   4.740  10.274   2.465 -0.5626  0.4397  0.0891
44933SOL     OW46777  12.791  10.398  11.057  0.0176 -0.3161 -0.6758
44933SOL    HW146778  12.795  10.493  11.071 -1.0037  0.2158 -3.3697
44933SOL    HW246779  12.819  10.386  10.966  3.2985 -3.0069  0.4848
44934SOL     OW46780   0.971  10.103   2.061 -0.4891 -0.0112 -0.4264
44934SOL    HW146781   0.968  10.197   2.083 -0.0712 -0.4957  1.9412
44934SOL    HW246782   0.906  10.063   2.118 -0.4456 -1.2103 -1.1964
44935SOL     OW46783   4.423   5.338   7.728  0.3544 -0.4405  0.4376
44935SOL    HW146784   4.328   5.325   7.719  0.6975 -2.5273 -0.7777
44935SOL    HW246785   4.436   5.432   7.717 -1.6051 -0.0490  1.1056
44936SOL     OW46786   7.035  12.364   5.829  0.4659 -0.0496  0.6385
44936SOL    HW146787   7.008  12.453   5.809  1.8788  0.6214  1.5737
44936SOL    HW246788   7.105  12.345   5.767 -0.4876 -0.9143 -0.2250
44937SOL     OW46789   8.561  10.733   0.815 -0.3254  0.0812 -0.4680
44937SOL    HW146790   8.557  10.658   0.757  1.0338  0.2879 -0.8399
44937SOL    HW246791   8.510  10.706   0.892 -1.4204 -0.5026 -1.3740
44938SOL     OW46792  10.538   3.423   0.641 -0.4322 -0.3239  0.2505
44938SOL    HW146793  10.561   3.332   0.627  0.0724 -0.3988  1.4315
44938SOL    HW246794  10.583   3.471   0.571  0.2350 -0.8678  0.3025
44939SOL     OW46795  13.907   1.517  12.993  0.3063 -0.1838 -0.2866
44939SOL    HW146796  13.876   1.540  13.081  0.4477 -1.5632  0.1488
44939SOL    HW246797  13.852   1.567  12.934 -2.2101 -1.8763  0.4765
44940SOL     OW46798   2.809   0.117   1.825  0.0082  0.3565 -0.1412
44940SOL    HW146799   2.817   0.186   1.759 -2.6036 -0.6805 -1.6993
44940SOL    HW246800   2.716   0.115   1.847  0.2454 -1.7035  0.9325
44941SOL     OW46801   0.373   0.338   1.013  0.1955  0.1639  0.4695
44941SOL    HW146802   0.367   0.432   1.031  3.1754  0.8210 -1.3248
44941SOL    HW246803   0.290   0.316   0.971 -0.5585  1.9789  0.9151
44942SOL     OW46804  10.414   0.886   2.438  0.4978 -0.1757 -0.2707
44942SOL    HW146805  10.336   0.871   2.491  0.3744 -0.2755 -0.4801
44942SOL    HW246806  10.484   0.840   2.485  0.1629 -1.2563 -0.8081
44943SOL     OW46807   2.133   1.556   4.392  0.0145  0.3897  0.3859
44943SOL    HW146808   2.062   1.538   4.454 -0.2853  1.0504  0.2461
44943SOL    HW246809   2.107   1.638   4.350  1.5677  1.4570  1.3996
44944SOL     OW46810   8.478  12.867  13.316 -0.1978 -0.1988  0.4483
44944SOL    HW146811   8.450  12.951  13.351 -0.4573 -0.7261  1.5554
44944SOL    HW246812   8.500  12.885  13.225 -0.1761  1.0762  0.6876
44945SOL     OW46813   0.176   4.002  10.233 -0.1873  0.0560  0.1640
44945SOL    HW146814   0.125   4.013  10.313  1.6168 -0.0181  1.3867
44945SOL    HW246815   0.134   3.929  10.188 -1.0890 -0.0827  1.1845
44946SOL     OW46816   6.992  13.923   5.782  0.2227  0.1297 -0.1227
44946SOL    HW146817   7.068  13.978   5.763 -0.6359  2.3944  2.2765
44946SOL    HW246818   7.027  13.851   5.834  0.9193  0.2910 -0.3539
44947SOL     OW46819   7.395   9.117   9.252  0.0235  0.8286  1.1658
44947SOL    HW146820   7.471   9.128   9.195 -0.5855 -0.4186  0.0380
44947SOL    HW246821   7.336   9.188   9.228 -0.7824 -0.3923 -0.7904
44948SOL     OW46822   2.261   2.318   0.919  0.2525  0.4293  0.0726
44948SOL    HW146823   2.298   2.232   0.898  1.6012  0.7083  1.1814
44948SOL    HW246824   2.336   2.370   0.947 -0.7213  1.6303  0.5138
44949SOL     OW46825   8.572   9.843  10.642 -0.1375 -0.2668  0.1501
44949SOL    HW146826   8.554   9.848  10.736 -0.3522 -0.3237  0.1131
44949SOL    HW246827   8.488   9.864  10.601 -0.1557 -0.6776 -0.0233
44950SOL     OW46828   3.999  10.352   5.554 -0.1288  0.5677  0.6705
44950SOL    HW146829   3.908  10.369   5.576 -0.4285 -1.2591  1.0393
44950SOL    HW246830   4.003  10.359   5.459 -0.9308 -0.4449  0.5497
44951SOL     OW46831  12.516   9.766   9.478  0.3324 -0.2938  0.0630
44951SOL    HW146832  12.492   9.706   9.407  0.3224 -2.3804  1.7241
44951SOL    HW246833  12.597   9.808   9.447 -0.3148 -0.2331 -1.6595
44952SOL     OW46834   1.519   5.864  12.863  0.1841  0.1930 -0.1832
44952SOL    HW146835   1.542   5.955  12.848  1.2092 -0.0196  0.0554
44952SOL    HW246836   1.423   5.863  12.864  0.1667  1.2092 -0.4961
44953SOL     OW46837   7.783   2.623   3.349  0.1967  0.7057  0.0566
44953SOL    HW146838   7.807   2.593   3.261  1.3885  1.6949  0.0195
44953SOL    HW246839   7.698   2.582   3.366 -0.2332  0.7845 -1.7035
44954SOL     OW46840   5.709   7.209   5.177  0.3055  0.2016 -0.1821
44954SOL    HW146841   5.688   7.241   5.265  0.6411  0.3491 -0.1541
44954SOL    HW246842   5.680   7.118   5.177 -0.2210  0.3624 -0.1069
44955SOL     OW46843   9.658   9.960  12.186  0.2235 -0.2849  0.0512
44955SOL    HW146844   9.586   9.900  12.166  1.6174 -2.6397  1.5205
44955SOL    HW246845   9.636   9.998  12.271  1.1133 -1.8199  1.0133
44956SOL     OW46846   8.227   5.447   4.780 -0.4337  0.5781  0.2038
44956SOL    HW146847   8.189   5.404   4.704 -0.4223  0.2662  0.3719
44956SOL    HW246848   8.319   5.419   4.781 -0.2922  1.0348  0.0088
44957SOL     OW46849  13.357   5.698   1.657 -0.2776 -0.4971  0.4135
44957SOL    HW146850  13.424   5.631   1.651 -0.0211 -0.1049 -1.5564
44957SOL    HW246851  13.301   5.684   1.581 -2.0801 -0.3965  1.6328
44958SOL     OW46852  12.906   4.669   6.063  0.0504  0.3620 -0.1595
44958SOL    HW146853  12.934   4.678   6.154 -0.1480  0.5404 -0.1156
44958SOL    HW246854  12.983   4.633   6.018 -0.1541 -0.6136  0.2480
44959SOL     OW46855   8.157  10.459   5.099 -0.0668 -0.2132  0.5508
44959SOL    HW146856   8.066  10.447   5.125 -0.6229  0.6806 -0.8249
44959SOL    HW246857   8.172  10.553   5.105  1.1766 -0.4693  1.9516
44960SOL     OW46858   0.454   8.482   7.272 -0.1259  0.0949 -0.3213
44960SOL    HW146859   0.503   8.562   7.253 -0.1019 -0.0351 -0.8044
44960SOL    HW246860   0.429   8.491   7.364  1.6538 -0.2799  0.2353
44961SOL     OW46861   5.779  10.713   6.865 -0.1449 -0.2809  0.2158
44961SOL    HW146862   5.761  10.696   6.957  0.7555  1.0193  0.6568
44961SOL    HW246863   5.722  10.786   6.841  0.6987  0.3843  0.1822
44962SOL     OW46864   3.415   5.304  12.245  0.0814  0.3453 -0.3890
44962SOL    HW146865   3.435   5.237  12.179  1.1506  1.0667 -0.8216
44962SOL    HW246866   3.493   5.360  12.247  0.8387 -0.5926  2.7112
44963SOL     OW46867  13.542  11.555   1.150  0.6136  0.0935 -0.7565
44963SOL    HW146868  13.495  11.632   1.118  1.6173  0.6836 -0.8696
44963SOL    HW246869  13.543  11.495   1.075 -0.5519 -0.2222 -0.5301
44964SOL     OW46870  12.771   6.178   3.549 -0.0971 -0.2522 -0.1943
44964SOL    HW146871  12.772   6.085   3.529  1.6391 -0.4131  0.4524
44964SOL    HW246872  12.706   6.188   3.618 -0.6594 -0.8902 -0.6249
44965SOL     OW46873   3.945   2.820   0.118  0.4851  0.7436  0.2352
44965SOL    HW146874   3.890   2.883   0.165 -0.4497 -1.0164  1.6194
44965SOL    HW246875   3.913   2.734   0.145  1.7635 -0.3711 -1.5227
44966SOL     OW46876   1.457  12.641   2.934 -0.0078 -0.5626 -0.2795
44966SOL    HW146877   1.405  12.571   2.973 -0.6840  0.0722 -0.0251
44966SOL    HW246878   1.543  12.633   2.975 -0.7803  0.2860  1.6464
44967SOL     OW46879  11.035   7.070   0.232  0.8832 -0.5038  0.6159
44967SOL    HW146880  11.048   6.989   0.281 -1.0353 -1.3452 -0.1545
44967SOL    HW246881  10.945   7.095   0.251 -0.1456 -1.1557 -2.7737
44968SOL     OW46882   7.081   2.713  12.350 -0.4464 -0.6105  0.6340
44968SOL    HW146883   7.156   2.706  12.291 -0.6059 -0.1300  0.3686
44968SOL    HW246884   7.098   2.650  12.419  0.1979 -0.5120  0.5654
44969SOL     OW46885   2.392   4.466   7.419  0.3306 -0.0864 -0.4406
44969SOL    HW146886   2.440   4.384   7.424  1.7610  0.7765  0.4876
44969SOL    HW246887   2.311   4.450   7.467  0.9273 -0.7382  0.3669
44970SOL     OW46888  12.005  10.482   4.652 -0.3683  0.0658  0.1531
44970SOL    HW146889  12.081  10.444   4.607  1.6105 -0.2334  3.4488
44970SOL    HW246890  11.999  10.571   4.617  0.5915 -0.3537 -1.1891
44971SOL     OW46891   7.267   9.370   2.469  0.6080 -0.0814 -0.0838
44971SOL    HW146892   7.242   9.323   2.389 -0.6165  0.8252 -0.2796
44971SOL    HW246893   7.193   9.356   2.528  0.0851  1.7384 -0.2397
44972SOL     OW46894   5.382   3.450   9.292 -0.3839 -0.3859  0.7204
44972SOL    HW146895   5.380   3.379   9.228 -3.2720 -0.0645  0.3367
44972SOL    HW246896   5.356   3.528   9.243 -0.9995  0.1929  1.9150
44973SOL     OW46897   3.853   0.077  10.806  0.2054  0.5294 -0.5681
44973SOL    HW146898   3.882   0.112  10.722 -0.7162  4.0063  0.3872
44973SOL    HW246899   3.910   0.119  10.870 -0.6781 -0.1068  0.6786
44974SOL     OW46900  13.217   1.582   4.298 -0.3831 -0.6162 -0.1299
44974SOL    HW146901  13.122   1.574   4.297 -0.5308  0.8900 -0.3108
44974SOL    HW246902  13.248   1.520   4.232 -1.2402 -0.9418 -0.2359
44975SOL     OW46903  13.991  14.005   7.350  0.1120 -0.1613  0.4583
44975SOL    HW146904  13.998  13.919   7.307 -1.7966  0.7972 -2.0307
44975SOL    HW246905  14.058  14.058   7.307 -1.8151  0.8066 -1.5794
44976SOL     OW46906   5.079   7.823   8.064  0.1511  0.0220 -0.0633
44976SOL    HW146907   5.024   7.819   7.985  0.6500 -0.7664 -0.3938
44976SOL    HW246908   5.158   7.868   8.035  0.4541 -0.5245 -0.0913
44977SOL     OW46909   0.195   4.999   2.271  0.1235 -0.7282 -0.2284
44977SOL    HW146910   0.281   4.958   2.277 -0.7464 -2.5106  1.0958
44977SOL    HW246911   0.180   5.036   2.358  0.7776  2.3577 -1.3176
44978SOL     OW46912  11.700  12.166   8.681  1.0665 -0.0515  0.1809
44978SOL    HW146913  11.710  12.119   8.598  0.5491 -0.7455  0.5066
44978SOL    HW246914  11.605  12.167   8.696  1.1903 -0.3619  1.0122
44979SOL     OW46915  10.292   1.112   8.770  0.1105  0.3913 -0.2617
44979SOL    HW146916  10.258   1.105   8.681 -0.9541 -0.4803  0.1963
44979SOL    HW246917  10.216   1.137   8.823  0.7424  0.9464  0.3939
44980SOL     OW46918   2.685  13.824  11.783  0.0580 -0.2128 -0.2312
44980SOL    HW146919   2.736  13.816  11.702  1.1111  0.1639  0.3750
44980SOL    HW246920   2.712  13.908  11.821 -0.9458 -0.0561  0.1604
44981SOL     OW46921   6.355   1.568   3.770 -0.1043 -0.0649  0.6268
44981SOL    HW146922   6.313   1.569   3.684  0.5817 -1.5597  0.2411
44981SOL    HW246923   6.447   1.584   3.752 -0.0399  0.1457  1.1388
44982SOL     OW46924   2.788   1.914   5.498  0.2843  0.7784 -0.2258
44982SOL    HW146925   2.760   1.982   5.437 -0.6498  1.1220  0.5785
44982SOL    HW246926   2.810   1.961   5.579  0.4360  0.2099  0.0701
44983SOL     OW46927  10.805   7.745  12.176 -0.3208 -0.0450  0.5110
44983SOL    HW146928  10.756   7.732  12.094  1.3137 -0.8826 -0.3758
44983SOL    HW246929  10.868   7.813  12.156 -0.9132  0.8596  1.5818
44984SOL     OW46930  13.481   8.636   4.359 -0.0942  0.0449 -0.1799
44984SOL    HW146931  13.465   8.647   4.266  0.9297 -0.6611 -0.4542
44984SOL    HW246932  13.534   8.556   4.366  3.6667  2.3446  0.5535
44985SOL     OW46933   8.917   4.344   5.408 -0.1642  0.0281  0.2187
44985SOL    HW146934   8.873   4.280   5.352  0.3241  0.2754 -0.4586
44985SOL    HW246935   8.954   4.292   5.479 -1.4093 -0.2054  0.7344
44986SOL     OW46936  13.052   3.392   6.399  0.1989  0.0089  0.4083
44986SOL    HW146937  13.007   3.475   6.380  0.2330  0.2786  1.4291
44986SOL    HW246938  13.034   3.377   6.492 -0.1804 -1.3673  0.1222
44987SOL     OW46939   3.933   2.029  12.335  0.3454 -0.3913  0.4165
44987SOL    HW146940   3.916   1.936  12.352 -1.0451  0.0129  1.4516
44987SOL    HW246941   3.983   2.030  12.254 -0.4568 -2.0045 -0.1462
44988SOL     OW46942   4.069   8.273   7.817 -0.7225 -0.4364  0.3792
44988SOL    HW146943   4.051   8.315   7.901 -3.3650  0.0603 -0.3449
44988SOL    HW246944   4.013   8.196   7.817  0.9105 -1.6823 -0.0770
44989SOL     OW46945   9.713   3.919   2.326 -0.4131  0.0999  0.1556
44989SOL    HW146946   9.618   3.934   2.322 -0.3991  1.1089  2.3525
44989SOL    HW246947   9.751   4.002   2.297 -0.2342  0.2968  0.9304
44990SOL     OW46948  12.415   9.038   8.416 -0.4176  0.2089  0.3241
44990SOL    HW146949  12.374   9.116   8.454  0.4672  0.0155  1.7411
44990SOL    HW246950  12.469   9.072   8.345 -2.4730  0.5281 -1.1947
44991SOL     OW46951   6.213  12.249   5.708 -0.8488 -0.1971 -0.4479
44991SOL    HW146952   6.159  12.184   5.663  1.9027 -2.2288 -1.1040
44991SOL    HW246953   6.283  12.198   5.749  0.0581  2.1704  1.1735
44992SOL     OW46954   4.431   8.813  10.210  0.1583 -0.0829  0.3737
44992SOL    HW146955   4.412   8.719  10.200 -0.5814  0.1428 -0.5118
44992SOL    HW246956   4.345   8.855  10.204  0.5600  0.7048  0.0228
44993SOL     OW46957   6.980   8.234  13.877  0.2244 -0.1727  0.2797
44993SOL    HW146958   6.946   8.273  13.957  0.8493  0.2588  0.3396
44993SOL    HW246959   6.909   8.177  13.846  0.0992 -0.5896  1.3020
44994SOL     OW46960  10.973  11.342  13.189 -0.5658  0.2621  0.8151
44994SOL    HW146961  11.066  11.349  13.169 -0.9175 -0.4712 -1.3419
44994SOL    HW246962  10.942  11.432  13.192 -0.0813  0.4773 -0.1682
44995SOL     OW46963   5.950   4.888   2.788 -0.0044  0.2799 -0.5360
44995SOL    HW146964   5.955   4.846   2.702 -0.3765  2.5884 -1.7530
44995SOL    HW246965   6.041   4.887   2.820  0.0553 -1.0694 -0.6645
44996SOL     OW46966   0.243   5.468   3.674 -0.1206 -0.1960 -0.7002
44996SOL    HW146967   0.211   5.386   3.637  0.2122 -0.3765 -0.5928
44996SOL    HW246968   0.274   5.518   3.598 -0.4749 -0.0978 -0.7836
44997SOL     OW46969   0.797   8.665  13.236  0.1848  0.2034  0.2963
44997SOL    HW146970   0.872   8.619  13.273  1.2041  2.1221  0.7684
44997SOL    HW246971   0.746   8.597  13.192  0.6160 -1.6423  2.4664
44998SOL     OW46972   5.557  11.210  13.475 -0.4057 -1.1385 -0.5311
44998SOL    HW146973   5.589  11.298  13.458 -0.3370 -1.2494 -0.9943
44998SOL    HW246974   5.583  11.191  13.565 -0.0830 -0.8358 -0.5627
44999SOL     OW46975   7.905   7.254  13.175 -0.4390 -0.1051  0.1040
44999SOL    HW146976   7.901   7.276  13.082 -2.1822 -1.6087 -0.2076
44999SOL    HW246977   7.822   7.212  13.194  0.8730 -2.1516  1.7457
45000SOL     OW46978  10.300  13.502  11.096  0.4731  0.2176  0.4444
45000SOL    HW146979  10.372  13.484  11.036  0.0266 -0.9398  0.2254
45000SOL    HW246980  10.264  13.585  11.066  0.9920  0.2296 -0.1629
45001SOL     OW46981  13.597  11.015   3.008 -0.3965  0.5874 -0.1145
45001SOL    HW146982  13.567  11.092   2.960 -0.3235  0.2043 -0.7798
45001SOL    HW246983  13.567  11.030   3.098 -0.9364  1.0867 -0.3728
45002SOL     OW46984   3.764   5.545  11.118  0.0410 -0.4824 -0.5092
45002SOL    HW146985   3.760   5.569  11.211  2.4537 -2.0137  0.1002
45002SOL    HW246986   3.802   5.622  11.075  1.6104 -0.7438  0.3184
45003SOL     OW46987   3.628   6.894   7.213 -0.2003 -0.2825 -0.4681
45003SOL    HW146988   3.593   6.814   7.174 -1.8934  0.8667 -1.4656
45003SOL    HW246989   3.550   6.946   7.234  0.8461  2.1033 -2.0480
45004SOL     OW46990   2.821   5.096   2.905  0.0735  0.0612 -0.2884
45004SOL    HW146991   2.787   5.026   2.960  1.2667 -0.0659  0.3131
45004SOL    HW246992   2.746   5.123   2.852 -1.1387  0.2121  1.4045
45005SOL     OW46993   4.964   9.845   6.449  0.2536 -0.6715  0.0598
45005SOL    HW146994   4.876   9.814   6.471  0.3974 -1.8023 -0.8508
45005SOL    HW246995   5.020   9.808   6.516 -0.1566  1.7135  1.8598
45006SOL     OW46996   2.744   5.945   2.494  0.3937 -0.2776  0.3127
45006SOL    HW146997   2.810   5.880   2.469  1.3784  1.1099 -0.8910
45006SOL    HW246998   2.776   6.027   2.456 -1.9409  0.4858 -0.1590
45007SOL     OW46999   1.644   0.501   8.130  0.0976 -0.0758 -0.9000
45007SOL    HW147000   1.708   0.441   8.169 -1.3540 -0.2757  1.3878
45007SOL    HW247001   1.666   0.502   8.037  3.3455 -0.1962 -0.2773
45008SOL     OW47002   8.683   2.709   9.508  0.5912 -0.6195  0.1028
45008SOL    HW147003   8.712   2.722   9.418  1.1091  0.1063  0.3663
45008SOL    HW247004   8.610   2.770   9.519  0.1237 -1.1456 -0.0033
45009SOL     OW47005  12.758   2.518  10.429 -0.0688  0.3619 -0.3532
45009SOL    HW147006  12.715   2.571  10.361 -1.8290  1.3179  1.3949
45009SOL    HW247007  12.756   2.573  10.507  0.5991 -1.2370  0.8418
45010SOL     OW47008  11.200   7.345   7.933 -0.1223  0.4793 -0.0962
45010SOL    HW147009  11.160   7.261   7.957 -0.8405  0.6632 -0.6074
45010SOL    HW247010  11.290   7.339   7.965  0.0540 -0.7693 -0.7489
45011SOL     OW47011   1.008   8.031  10.567  0.1949 -0.0676 -0.5885
45011SOL    HW147012   1.009   7.989  10.481  1.6831 -1.2058 -0.0531
45011SOL    HW247013   1.029   7.961  10.629  1.9907  1.2492  0.4228
45012SOL     OW47014   0.732   2.273   6.912  0.9035  0.3342  0.0708
45012SOL    HW147015   0.680   2.197   6.937  1.0110  0.6220  1.2411
45012SOL    HW247016   0.823   2.244   6.920  1.0105 -0.3849 -2.6395
45013SOL     OW47017  12.037   6.431   0.808  0.2239  0.0718  0.0689
45013SOL    HW147018  11.976   6.491   0.766 -0.5707 -1.2611 -0.7349
45013SOL    HW247019  12.000   6.415   0.895  0.0297  0.1474 -0.0017
45014SOL     OW47020   5.406   4.147   8.372  0.2587 -0.0738  0.3781
45014SOL    HW147021   5.482   4.091   8.386  0.3864 -0.0158 -0.0652
45014SOL    HW247022   5.340   4.089   8.334 -0.7268 -0.6673  2.8166
45015SOL     OW47023  12.198  10.830  10.997 -0.0719  0.0155 -0.9515
45015SOL    HW147024  12.179  10.748  10.951  1.7727 -0.4291 -0.9719
45015SOL    HW247025  12.260  10.876  10.941  0.0874  0.7388 -0.2029
45016SOL     OW47026   0.093   0.464   4.463 -0.3261  0.3095 -0.1810
45016SOL    HW147027   0.152   0.393   4.489 -1.0712 -0.8193 -1.4038
45016SOL    HW247028   0.035   0.424   4.398 -0.6066  2.1216 -1.1122
45017SOL     OW47029   7.659  13.564  11.983 -0.7952  0.0115 -0.6263
45017SOL    HW147030   7.578  13.521  11.957 -1.0795  0.3702 -0.3420
45017SOL    HW247031   7.632  13.631  12.046 -0.1365 -0.7268  0.4743
45018SOL     OW47032   4.064   4.877   9.578  0.1675 -0.1666 -0.5393
45018SOL    HW147033   4.159   4.883   9.574  0.0943  0.7653 -1.1248
45018SOL    HW247034   4.044   4.873   9.671  0.6680  2.0756 -0.2772
45019SOL     OW47035   6.752   4.371   4.587 -0.5155 -0.6649  0.0439
45019SOL    HW147036   6.738   4.389   4.680 -1.8433  1.0375 -0.4269
45019SOL    HW247037   6.830   4.421   4.563 -0.3325 -0.8890  0.1624
45020SOL     OW47038   0.571  10.580   7.495  0.0442 -0.2122 -0.6295
45020SOL    HW147039   0.626  10.518   7.447  1.2027  0.6674 -0.4776
45020SOL    HW247040   0.633  10.633   7.546 -0.7886  1.8330 -1.6229
45021SOL     OW47041  13.005  13.426   0.755  0.6208  0.0478 -0.2940
45021SOL    HW147042  12.988  13.336   0.785 -3.8601  0.5174 -0.7128
45021SOL    HW247043  12.993  13.479   0.833  1.1277  0.4599 -0.4916
45022SOL     OW47044   7.523   2.528   9.907 -0.8628 -0.3494  0.2006
45022SOL    HW147045   7.519   2.478   9.988  0.0824 -0.6529  0.0750
45022SOL    HW247046   7.468   2.604   9.923 -2.3182 -1.4040  0.3935
45023SOL     OW47047  12.240  11.864   3.253 -0.3846  0.2414 -0.4981
45023SOL    HW147048  12.199  11.777   3.254  0.4248 -0.1454  0.0646
45023SOL    HW247049  12.194  11.913   3.322 -1.2235  0.4537 -1.1905
45024SOL     OW47050   1.529  12.201   9.216 -0.0901  0.1405  0.1468
45024SOL    HW147051   1.617  12.181   9.184 -0.7178  0.7871 -2.2004
45024SOL    HW247052   1.472  12.143   9.165 -1.0692  0.0681  1.2921
45025SOL     OW47053   8.676   8.633  12.949  0.5813  0.2515  0.3087
45025SOL    HW147054   8.770   8.651  12.957  0.6201 -0.3111  1.2891
45025SOL    HW247055   8.635   8.689  13.015 -0.0550  2.3397 -1.7372
45026SOL     OW47056   4.579  12.383   5.108  0.2757 -0.1328  0.0787
45026SOL    HW147057   4.485  12.390   5.098  0.0239 -0.8230  1.6001
45026SOL    HW247058   4.608  12.471   5.132  0.2407  0.3874 -1.6319
45027SOL     OW47059   0.114   3.135   7.609  0.0850  0.3529  0.0796
45027SOL    HW147060   0.114   3.081   7.688  0.4492  1.4454  0.8590
45027SOL    HW247061   0.108   3.225   7.641 -0.4841  0.7924 -1.1761
45028SOL     OW47062   9.014   7.245  13.878 -0.5495  0.2135  0.1041
45028SOL    HW147063   9.057   7.327  13.902 -1.5398 -0.0401  3.1153
45028SOL    HW247064   9.058   7.179  13.931 -0.4138 -1.0948 -1.5738
45029SOL     OW47065   3.443   2.291   2.747 -0.3638 -0.0516 -0.3701
45029SOL    HW147066   3.523   2.343   2.754 -1.4347  1.5974  0.2359
45029SOL    HW247067   3.438   2.244   2.830 -0.0633 -0.0824 -0.3694
45030SOL     OW47068   8.974  11.864  12.495  0.4389 -0.3598  0.1160
45030SOL    HW147069   8.989  11.955  12.466 -0.0372 -0.4225 -0.3447
45030SOL    HW247070   9.049  11.845  12.552  0.4948  0.3563  0.2986
45031SOL     OW47071  13.090   5.792   8.324 -0.0171  0.1540  0.6278
45031SOL    HW147072  13.164   5.733   8.339  0.4219  0.2567 -0.9411
45031SOL    HW247073  13.060   5.817   8.412  0.9249 -0.9821  1.2920
45032SOL     OW47074   4.766  10.884   9.515 -0.7960 -0.0020 -0.0102
45032SOL    HW147075   4.728  10.804   9.479  0.0215 -0.5472  0.3143
45032SOL    HW247076   4.739  10.953   9.453 -1.2204 -0.5746 -0.4746
45033SOL     OW47077  11.165  13.924   6.577  0.1549 -0.5270 -0.1564
45033SOL    HW147078  11.134  13.884   6.496 -2.8012  0.5424  0.2932
45033SOL    HW247079  11.088  13.971   6.611  1.6288  0.1106  2.6186
45034SOL     OW47080   5.275   4.681  13.362  0.5332 -0.2160 -0.2995
45034SOL    HW147081   5.265   4.705  13.455  0.3656 -0.8912 -0.1435
45034SOL    HW247082   5.265   4.586  13.360 -0.4554 -0.1117 -1.1505
45035SOL     OW47083   3.898   2.425   1.659  0.0212 -0.1111  0.3187
45035SOL    HW147084   3.920   2.397   1.748  1.9642 -0.0177 -0.0980
45035SOL    HW247085   3.825   2.486   1.671  0.1794 -0.1849  1.8258
45036SOL     OW47086  11.160   9.672  13.107  0.1491  0.5060  0.5617
45036SOL    HW147087  11.101   9.744  13.133 -0.4304 -0.3919  1.8715
45036SOL    HW247088  11.240   9.687  13.158 -0.2847 -0.2053  1.4944
45037SOL     OW47089  11.874  10.489   2.060 -1.2520  0.2725  0.2633
45037SOL    HW147090  11.924  10.561   2.098 -1.5868  0.7901 -0.2595
45037SOL    HW247091  11.837  10.526   1.980 -0.7800 -0.7180 -0.4183
45038SOL     OW47092   3.824   6.476  10.554  0.1909 -0.1040 -0.3249
45038SOL    HW147093   3.836   6.467  10.648 -0.5381  0.7730 -0.1369
45038SOL    HW247094   3.871   6.401  10.517  0.4806 -0.4634  0.7268
45039SOL     OW47095  13.475   1.569   2.164  0.4217 -0.0121 -0.0862
45039SOL    HW147096  13.568   1.588   2.170  0.6548 -1.3838  1.1995
45039SOL    HW247097  13.446   1.560   2.255 -0.4601 -1.7974 -0.4892
45040SOL     OW47098   7.408   8.968  12.726  0.6316 -0.1799  0.4373
45040SOL    HW147099   7.341   8.944  12.790 -1.7177  2.2047 -0.9337
45040SOL    HW247100   7.470   9.022  12.775  0.8884 -1.3549  1.4482
45041SOL     OW47101   7.321  10.435   8.957 -0.2316 -0.1310  1.0296
45041SOL    HW147102   7.339  10.497   8.886  1.0003 -1.5915  0.0117
45041SOL    HW247103   7.227  10.420   8.953 -0.1083 -0.5958 -0.6762
45042SOL     OW47104  12.355  11.161   5.401  0.1400  0.5833  0.3703
45042SOL    HW147105  12.392  11.205   5.478 -0.3992  2.7930 -0.5395
45042SOL    HW247106  12.402  11.200   5.327 -2.9574  2.5428 -0.7490
45043SOL     OW47107  10.945   4.421   7.488  0.5237 -0.4204 -0.6573
45043SOL    HW147108  10.941   4.326   7.501 -0.6356 -0.5757 -1.9129
45043SOL    HW247109  10.952   4.432   7.393  1.1286  0.7601 -0.4975
45044SOL     OW47110   2.571   7.149  13.813  0.0702 -0.0146 -0.3932
45044SOL    HW147111   2.630   7.166  13.886  0.3678 -0.5983 -0.4929
45044SOL    HW247112   2.491   7.198  13.835 -0.5473 -1.6472  1.2465
45045SOL     OW47113   2.059  11.674   7.215 -0.1113  0.4825 -0.5159
45045SOL    HW147114   1.997  11.604   7.237 -0.2995  1.0477  0.8973
45045SOL    HW247115   2.143  11.630   7.205 -0.2985 -0.0027 -0.0224
45046SOL     OW47116  11.947   2.046   2.724  0.0564 -0.1056  0.0732
45046SOL    HW147117  11.915   2.058   2.634  1.9569  0.9501 -0.5322
45046SOL    HW247118  11.874   2.072   2.780 -1.4000 -1.4391 -1.1445
45047SOL     OW47119   8.214   6.307   4.010 -0.2990  0.0366 -0.1018
45047SOL    HW147120   8.161   6.339   3.937 -1.1763 -0.0893  0.4626
45047SOL    HW247121   8.177   6.222   4.031  2.1118 -1.5491 -1.6986
45048SOL     OW47122   1.398  13.086  12.327 -0.1631  0.6628 -0.2140
45048SOL    HW147123   1.321  13.030  12.325 -0.6205  1.2281  0.6428
45048SOL    HW247124   1.401  13.118  12.417  0.5793  1.3232 -0.4651
45049SOL     OW47125   8.979   0.741  10.862  0.3503  0.2672  0.2219
45049SOL    HW147126   8.933   0.813  10.820 -0.1545  0.2553  0.7518
45049SOL    HW247127   9.069   0.772  10.873  0.7733 -0.0917 -1.7739
45050SOL     OW47128   1.351   7.296   0.881 -0.0140 -0.6251  0.5485
45050SOL    HW147129   1.433   7.278   0.926  1.1096  1.9820 -0.2888
45050SOL    HW247130   1.293   7.332   0.949  0.7774  0.8281  0.4888
45051SOL     OW47131   6.244   9.956   5.625 -0.9211  0.4703 -0.4002
45051SOL    HW147132   6.303  10.024   5.592  0.3897 -0.8374 -0.8491
45051SOL    HW247133   6.234   9.894   5.552 -0.0054 -1.1586  0.7925
45052SOL     OW47134   5.325  10.765   1.452  0.1724 -0.7549  0.0691
45052SOL    HW147135   5.276  10.697   1.405  0.5308 -0.5130 -0.6532
45052SOL    HW247136   5.395  10.791   1.392 -0.8816  1.3733 -0.3295
45053SOL     OW47137  10.506   3.616  12.155 -0.8822  0.1900 -0.1581
45053SOL    HW147138  10.548   3.587  12.074  0.8310 -1.2430  1.1669
45053SOL    HW247139  10.528   3.548  12.219 -4.7673 -0.3344  0.8370
45054SOL     OW47140  13.589   5.040  13.172  0.8667  0.0890  0.1278
45054SOL    HW147141  13.568   5.093  13.248 -0.3506 -0.1832  0.0050
45054SOL    HW247142  13.614   5.103  13.104  2.2238  0.3147  0.8167
45055SOL     OW47143  13.926   0.584   2.751 -0.3170 -0.0784 -0.1067
45055SOL    HW147144  13.942   0.678   2.750 -1.0376  0.0973 -2.5627
45055SOL    HW247145  14.013   0.544   2.742  0.0385  0.2853  1.4115
45056SOL     OW47146  10.364   3.585  13.605  0.7986  0.1432  0.7551
45056SOL    HW147147  10.335   3.628  13.685  1.5536  2.1715 -0.0105
45056SOL    HW247148  10.391   3.656  13.547 -1.6183 -1.0409 -2.1094
45057SOL     OW47149   8.007   9.799  13.955  0.3384 -0.2717  0.5694
45057SOL    HW147150   8.057   9.880  13.943 -1.6623  0.9475  0.0652
45057SOL    HW247151   8.041   9.762  14.036  0.7247  1.5161  1.2719
45058SOL     OW47152   7.163   6.906   4.040 -0.0988 -0.4870 -0.2096
45058SOL    HW147153   7.201   6.865   3.963  0.2124  0.7751 -0.7427
45058SOL    HW247154   7.180   7.000   4.029 -1.8496 -0.0624  0.3751
45059SOL     OW47155   2.069   1.495   4.018  0.1426  0.6923  1.2409
45059SOL    HW147156   2.117   1.575   3.995 -0.3767  0.7156  0.2147
45059SOL    HW247157   2.123   1.424   3.984  0.0915  0.6522  1.2432
45060SOL     OW47158   1.121  13.135   1.886 -0.1143 -0.2951 -0.1862
45060SOL    HW147159   1.147  13.168   1.800  0.0617 -1.0444 -0.4206
45060SOL    HW247160   1.161  13.049   1.892  1.6608  0.5788  1.5148
45061SOL     OW47161   1.879   3.988   7.871  0.3282  0.6006 -0.6005
45061SOL    HW147162   1.872   4.083   7.865  0.9615  0.7322  0.5192
45061SOL    HW247163   1.838   3.966   7.955  0.4695 -0.0752 -0.7012
45062SOL     OW47164   8.225   3.864   9.139 -0.1389 -0.1951 -0.0956
45062SOL    HW147165   8.138   3.874   9.179 -0.5893 -1.7106 -0.5880
45062SOL    HW247166   8.285   3.902   9.202 -1.1139  0.2971  0.5647
45063SOL     OW47167  13.964   0.319  13.688  0.1166 -0.0704  0.2734
45063SOL    HW147168  13.960   0.385  13.757 -2.8647 -0.5543  0.6788
45063SOL    HW247169  13.874   0.288  13.678  0.8202 -1.6369 -2.3028
45064SOL     OW47170   0.286   8.186  10.624  0.2347  0.2566 -0.2386
45064SOL    HW147171   0.225   8.253  10.655  0.2603 -0.1295  0.6997
45064SOL    HW247172   0.319   8.146  10.705  0.6909 -0.4598 -0.7737
45065SOL     OW47173   7.218  13.402   5.201  0.5882 -0.2324 -0.1867
45065SOL    HW147174   7.241  13.405   5.294  1.9849 -0.1397 -0.5065
45065SOL    HW247175   7.265  13.325   5.167  1.6867  0.8238 -1.1794
45066SOL     OW47176   8.259   0.308  13.429 -0.0350  0.4987  0.1561
45066SOL    HW147177   8.315   0.248  13.478 -1.7351 -1.0321  0.3372
45066SOL    HW247178   8.170   0.288  13.460 -1.0877  0.1145 -2.8234
45067SOL     OW47179  10.688   4.668   8.207 -0.4909 -0.9898 -0.3222
45067SOL    HW147180  10.688   4.686   8.301 -0.5240 -0.4318 -0.4251
45067SOL    HW247181  10.767   4.616   8.193 -0.2890 -0.7654 -0.0400
45068SOL     OW47182   6.128  10.217   0.340  0.0969  0.3968  0.5163
45068SOL    HW147183   6.058  10.159   0.370  0.6250  0.2109  1.4136
45068SOL    HW247184   6.149  10.186   0.252 -0.9324  0.4483  0.2349
45069SOL     OW47185  13.928   6.280   2.127 -0.5308  0.0491  0.1134
45069SOL    HW147186  13.892   6.212   2.184  0.7962  0.3647  1.3876
45069SOL    HW247187  14.009   6.243   2.094 -0.5709  0.4291 -0.4293
45070SOL     OW47188   5.320   6.093  13.529 -0.3450 -0.3880  0.7138
45070SOL    HW147189   5.363   6.162  13.477 -0.9063 -0.2708  0.3993
45070SOL    HW247190   5.314   6.019  13.470  1.3366 -1.1311  1.4192
45071SOL     OW47191  12.139   9.300  11.408  0.3811  0.5187  0.0151
45071SOL    HW147192  12.121   9.227  11.349 -3.2788 -0.3004  1.9070
45071SOL    HW247193  12.199   9.265  11.473  0.7727  0.0450 -0.5904
45072SOL     OW47194   0.764  13.085   9.829  0.2311 -0.0411  0.6233
45072SOL    HW147195   0.776  12.996   9.798  1.6426  0.4860 -0.4776
45072SOL    HW247196   0.670  13.094   9.842  0.0631 -1.6540  0.7009
45073SOL     OW47197   5.044  12.041  10.433  0.2529 -0.3075 -0.0985
45073SOL    HW147198   4.980  12.097  10.391  1.5135  0.5547 -0.9436
45073SOL    HW247199   5.039  11.958  10.385 -1.1614 -0.7528  0.7441
45074SOL     OW47200  13.857  10.119  10.611 -0.4461 -0.2689  0.4480
45074SOL    HW147201  13.953  10.115  10.610 -0.4706 -0.9090  0.4367
45074SOL    HW247202  13.836  10.152  10.698 -0.2515 -1.5134  0.9872
45075SOL     OW47203   5.379   5.967   6.944  0.5318  0.5934  0.3914
45075SOL    HW147204   5.378   5.905   7.016  0.1448  0.8220  0.5807
45075SOL    HW247205   5.391   6.053   6.985 -1.4334  0.9253  0.3324
45076SOL     OW47206  10.346  13.659  12.412 -0.1286  0.2912  0.4123
45076SOL    HW147207  10.308  13.601  12.346 -0.1139  1.6733 -0.8679
45076SOL    HW247208  10.282  13.659  12.483 -0.0300 -1.4275  0.5401
45077SOL     OW47209   6.277   2.796   1.268 -0.0377 -0.0462  0.3150
45077SOL    HW147210   6.341   2.859   1.299  0.8940  0.5360 -2.4857
45077SOL    HW247211   6.195   2.846   1.263  0.3016  0.4718 -0.2268
45078SOL     OW47212   1.253   7.026   8.315 -0.5563 -0.6061  0.5648
45078SOL    HW147213   1.181   6.965   8.334 -1.5999  0.2675 -0.4024
45078SOL    HW247214   1.210   7.111   8.305  0.7841  0.1715  1.1989
45079SOL     OW47215   1.451   2.196   8.466 -0.3498  0.5984 -0.4976
45079SOL    HW147216   1.374   2.155   8.507  0.2815  1.2981  1.4675
45079SOL    HW247217   1.476   2.134   8.398  1.7045 -3.5386  3.4876
45080SOL     OW47218   5.639   3.249  13.107  0.3040 -0.0757  0.5457
45080SOL    HW147219   5.675   3.200  13.181  1.7774 -0.0104 -0.0927
45080SOL    HW247220   5.556   3.284  13.139 -0.3029 -2.1017  1.3616
45081SOL     OW47221  11.536   7.333  10.252 -0.2489  0.6109  0.0256
45081SOL    HW147222  11.608   7.393  10.269  0.2082  0.1752 -0.3188
45081SOL    HW247223  11.566   7.281  10.177  0.1264 -1.2363  1.3801
45082SOL     OW47224   5.563  12.208   1.729  0.0745 -0.4671  0.1288
45082SOL    HW147225   5.620  12.235   1.657  0.2617  1.1414  0.8435
45082SOL    HW247226   5.505  12.142   1.690  1.2791 -0.8751 -1.0434
45083SOL     OW47227   2.373  13.563   4.472  0.1747  0.5249 -0.2114
45083SOL    HW147228   2.314  13.517   4.411  1.5482  0.0404 -1.2246
45083SOL    HW247229   2.379  13.652   4.436 -0.8265  0.9192  0.5562
45084SOL     OW47230   3.837   2.489   6.317  0.4086  0.0777 -0.4852
45084SOL    HW147231   3.925   2.453   6.323  1.6138  2.9292  0.5283
45084SOL    HW247232   3.780   2.415   6.339  2.6032 -1.4265  0.5908
45085SOL     OW47233   9.350  12.694   2.594 -0.6506  0.6619 -0.3120
45085SOL    HW147234   9.371  12.783   2.623 -0.9697  1.0336 -1.1980
45085SOL    HW247235   9.318  12.705   2.505  0.4852 -0.4741 -0.8848
45086SOL     OW47236  13.338   4.236   1.562  0.5816 -0.4011  0.3530
45086SOL    HW147237  13.392   4.245   1.483  0.2004  1.9559  0.2932
45086SOL    HW247238  13.276   4.308   1.557 -1.1563 -1.7326  1.5509
45087SOL     OW47239   4.697   8.983   4.453  0.0387 -0.0445 -0.2682
45087SOL    HW147240   4.655   8.931   4.384  1.7774  0.6840 -1.9940
45087SOL    HW247241   4.790   8.976   4.434  0.6512 -0.2545  2.4173
45088SOL     OW47242  11.669   8.221   0.614  0.3667 -0.5696  0.3412
45088SOL    HW147243  11.691   8.181   0.530  0.4888  0.6234 -0.2208
45088SOL    HW247244  11.626   8.304   0.590 -0.0433 -0.4455  1.4485
45089SOL     OW47245  10.350   1.504   6.002 -0.4212  0.0015 -0.1826
45089SOL    HW147246  10.382   1.588   5.969  0.4429 -0.3609 -0.2980
45089SOL    HW247247  10.423   1.469   6.054 -1.6720  0.4840  2.0341
45090SOL     OW47248   7.545   6.168  10.451  0.7935 -0.0342  0.1764
45090SOL    HW147249   7.620   6.221  10.422  0.3414  0.5824  0.1152
45090SOL    HW247250   7.538   6.098  10.386 -0.4139  1.5222 -1.4673
45091SOL     OW47251   6.306  13.611   3.228  0.0212 -0.2956 -0.5988
45091SOL    HW147252   6.320  13.521   3.258 -0.0477 -0.5609 -1.3595
45091SOL    HW247253   6.241  13.647   3.289 -0.6663 -1.0649 -0.8604
45092SOL     OW47254   8.796   1.339   8.793  0.5596  0.1884  0.5390
45092SOL    HW147255   8.800   1.253   8.751 -0.2463  0.4695 -0.1533
45092SOL    HW247256   8.887   1.365   8.804  0.8245  0.1416 -1.1632
45093SOL     OW47257   1.985   5.083   8.309  0.3759 -0.0060  0.1704
45093SOL    HW147258   2.020   4.994   8.309  0.4099 -0.0084 -1.3200
45093SOL    HW247259   1.900   5.075   8.267  2.2504  1.2759 -4.5257
45094SOL     OW47260  11.060  13.307   0.442 -0.1294 -0.4673  0.0913
45094SOL    HW147261  11.087  13.219   0.414 -0.1851 -1.2177  2.2439
45094SOL    HW247262  11.058  13.302   0.537 -1.4626  1.5074  0.2081
45095SOL     OW47263   2.428   1.095  11.938  0.1703 -0.3704 -0.2342
45095SOL    HW147264   2.342   1.073  11.904 -0.6154  1.8367  0.1349
45095SOL    HW247265   2.464   1.012  11.969 -2.1853 -1.2339  0.4219
45096SOL     OW47266  11.802   8.797  11.933  0.6050  0.3361 -0.4517
45096SOL    HW147267  11.753   8.736  11.878 -0.7909  0.7833  0.2629
45096SOL    HW247268  11.878   8.747  11.962 -0.7087 -1.2062  0.4329
45097SOL     OW47269  13.856   9.836   7.330 -0.3135 -0.0597 -0.2701
45097SOL    HW147270  13.921   9.905   7.318 -1.5764  1.0408 -1.1563
45097SOL    HW247271  13.904   9.754   7.315  0.6380  0.7685 -2.1202
45098SOL     OW47272   8.068   6.316   9.665 -0.4086 -0.6416  0.2983
45098SOL    HW147273   8.004   6.275   9.723 -0.9963 -0.3898 -0.1700
45098SOL    HW247274   8.078   6.405   9.698 -1.0323 -0.3773 -0.2133
45099SOL     OW47275   5.680  11.352   4.247 -0.1424  0.8656 -0.0848
45099SOL    HW147276   5.734  11.423   4.283  0.8815  0.4359 -0.7417
45099SOL    HW247277   5.596  11.361   4.292  0.1098  2.2380  0.1522
45100SOL     OW47278  10.020  10.093   9.269 -0.1289  0.2548  0.0688
45100SOL    HW147279   9.983  10.049   9.192  1.5628  0.3567 -0.8567
45100SOL    HW247280   9.951  10.153   9.297 -0.6949  0.4322 -1.5699
45101SOL     OW47281   2.035  10.139   0.159 -0.0083  0.5798 -0.2787
45101SOL    HW147282   2.029  10.045   0.146 -0.2476  0.2615  1.8494
45101SOL    HW247283   1.956  10.162   0.208  1.1748  1.4848  1.2857
45102SOL     OW47284  10.734   0.079   5.965  0.3273  0.6405  0.2284
45102SOL    HW147285  10.758  -0.013   5.974  1.1712  0.8686  0.3605
45102SOL    HW247286  10.642   0.077   5.937 -0.0773 -0.2074  1.5478
45103SOL     OW47287   3.175   8.244  10.654 -0.2399 -0.5061 -0.3961
45103SOL    HW147288   3.163   8.151  10.671  0.2599 -0.6030 -0.5740
45103SOL    HW247289   3.184   8.250  10.559 -2.0753 -0.0745 -0.5831
45104SOL     OW47290  10.237   4.551  11.371 -0.0924 -0.1852 -0.9344
45104SOL    HW147291  10.185   4.473  11.386  1.8868 -1.4107  0.0681
45104SOL    HW247292  10.258   4.583  11.459 -0.7643  1.4411 -1.3263
45105SOL     OW47293   9.743   4.998   8.891  0.6292 -0.8302 -0.1638
45105SOL    HW147294   9.680   5.069   8.900 -0.5331 -1.8304 -0.0336
45105SOL    HW247295   9.785   5.012   8.806  0.3129 -0.0801 -0.1960
45106SOL     OW47296   9.491   1.296  11.412  0.1155  0.1721 -0.0745
45106SOL    HW147297   9.549   1.272  11.340 -1.0684  0.3332 -1.1314
45106SOL    HW247298   9.412   1.329  11.369 -0.7570 -0.0182  1.3020
45107SOL     OW47299   6.908   8.995   6.044 -0.3112  0.2380 -0.2441
45107SOL    HW147300   6.998   8.994   6.076  0.2083 -0.9707 -1.5909
45107SOL    HW247301   6.881   8.904   6.045 -0.2659  0.0924 -3.0077
45108SOL     OW47302  13.990   2.493   5.694 -0.5148  0.5885  0.5902
45108SOL    HW147303  14.045   2.570   5.708 -0.1906  0.2569  1.2493
45108SOL    HW247304  13.919   2.523   5.637 -0.4055  1.3729  0.8539
45109SOL     OW47305   1.909   8.656   9.214  0.1384 -0.2416 -0.2660
45109SOL    HW147306   1.947   8.571   9.194 -1.4568 -1.0891  0.1908
45109SOL    HW247307   1.950   8.683   9.296  1.4592 -0.0174 -0.9603
45110SOL     OW47308   5.252   0.303   2.474 -0.3271 -1.1086  1.2184
45110SOL    HW147309   5.200   0.363   2.528  0.1499 -1.8280  2.5143
45110SOL    HW247310   5.187   0.250   2.428 -0.8224  1.3673 -1.2102
45111SOL     OW47311   7.573  12.747   5.256 -0.5142  0.4762  0.2720
45111SOL    HW147312   7.610  12.799   5.327 -0.3249 -0.1365  0.6210
45111SOL    HW247313   7.624  12.667   5.254 -0.3023  0.6168 -0.7738
45112SOL     OW47314   9.277   8.174   0.385  0.0346 -0.5194  0.2474
45112SOL    HW147315   9.317   8.220   0.311  1.7740 -0.4180  1.2071
45112SOL    HW247316   9.191   8.147   0.352 -0.5142  2.1584 -0.8004
45113SOL     OW47317  13.339  13.222   1.341 -0.1950  0.7529 -0.1223
45113SOL    HW147318  13.397  13.271   1.400 -1.0790  0.9487  0.6101
45113SOL    HW247319  13.388  13.215   1.259 -0.9581  5.1044 -1.1865
45114SOL     OW47320  11.016  13.894   9.003 -0.1094 -0.1710 -0.8346
45114SOL    HW147321  11.006  13.982   9.039 -2.3623 -1.2374  1.4551
45114SOL    HW247322  11.111  13.881   8.998  0.2815  1.8440  0.2081
45115SOL     OW47323   3.486   4.894   4.793  0.0542  0.3145  0.0657
45115SOL    HW147324   3.545   4.887   4.867  1.9104 -0.5169 -1.4244
45115SOL    HW247325   3.513   4.825   4.733 -2.8545 -0.5378 -0.4513
45116SOL     OW47326   8.312   7.921   5.381  0.0504  0.5000  0.3499
45116SOL    HW147327   8.268   8.003   5.359 -0.0823  0.8518  1.8430
45116SOL    HW247328   8.259   7.883   5.452  0.0974 -0.8879 -0.3172
45117SOL     OW47329  13.707  11.685  11.593  0.4730  0.2038  0.2526
45117SOL    HW147330  13.748  11.655  11.674  0.9682  0.7445  0.2059
45117SOL    HW247331  13.677  11.774  11.613 -0.3124 -0.0307  0.1583
45118SOL     OW47332   8.468   7.347   5.005  0.3284 -0.6491 -0.1074
45118SOL    HW147333   8.392   7.293   5.028  0.2708 -0.9973 -1.0586
45118SOL    HW247334   8.540   7.284   4.996  0.6809 -0.3490  0.5555
45119SOL     OW47335  12.436   2.858   3.363  0.3903  0.2960 -0.1139
45119SOL    HW147336  12.447   2.840   3.456 -0.6079 -0.2214 -0.0806
45119SOL    HW247337  12.439   2.772   3.322  0.3643  0.4796 -0.5045
45120SOL     OW47338   1.731   3.404   2.809  0.3361 -0.4382  0.6194
45120SOL    HW147339   1.750   3.311   2.820 -0.1616 -0.4895  1.0544
45120SOL    HW247340   1.697   3.432   2.894 -0.3613 -0.0663  0.2277
45121SOL     OW47341  11.547   1.516   7.789  0.1174 -0.1775 -0.4533
45121SOL    HW147342  11.533   1.495   7.696  1.2304 -0.6196 -0.5338
45121SOL    HW247343  11.465   1.558   7.816 -0.1348  0.1719 -1.6898
45122SOL     OW47344   3.018   6.531   2.834  0.0000 -0.1201  0.2446
45122SOL    HW147345   3.104   6.544   2.794  0.7909  0.9621  2.1723
45122SOL    HW247346   2.957   6.571   2.771  0.7863 -1.4769 -1.4622
45123SOL     OW47347  11.430   7.015  11.240  0.1527 -0.3315 -0.4752
45123SOL    HW147348  11.446   7.076  11.312  0.0472 -1.3765  0.4642
45123SOL    HW247349  11.386   7.067  11.173 -0.9843  0.3611  0.7679
45124SOL     OW47350   1.046  12.610  10.095 -0.7917  0.1971  0.2728
45124SOL    HW147351   1.082  12.525  10.123 -1.2498 -0.2872 -0.5550
45124SOL    HW247352   0.992  12.588  10.019 -0.3875  1.3228 -0.3489
45125SOL     OW47353   7.675   8.214  10.046  0.3038 -0.0274 -0.3193
45125SOL    HW147354   7.686   8.160  10.124  2.5718  0.1040 -0.4882
45125SOL    HW247355   7.580   8.219  10.034 -0.1420  0.1638  2.5557
45126SOL     OW47356   7.492   9.964   8.272  0.4316  0.1743  0.6438
45126SOL    HW147357   7.559   9.899   8.293 -0.7922 -0.8971  1.3188
45126SOL    HW247358   7.477   9.954   8.178  2.0284  1.2343  0.2421
45127SOL     OW47359   8.660   1.539   4.775  0.3936  0.8391 -0.2948
45127SOL    HW147360   8.752   1.526   4.799 -0.2694 -0.2670  1.9495
45127SOL    HW247361   8.663   1.600   4.701  2.9768 -0.0518 -1.0539
45128SOL     OW47362   3.629   5.236   1.671  0.2343  0.4039 -0.1081
45128SOL    HW147363   3.565   5.299   1.638  0.0380  0.1220 -0.2590
45128SOL    HW247364   3.705   5.290   1.694  0.6476  0.5386 -1.6870
45129SOL     OW47365   0.017   9.392   5.029  0.2662 -0.2524 -0.3369
45129SOL    HW147366  -0.075   9.385   5.003  0.3385  1.2579 -1.1415
45129SOL    HW247367   0.027   9.328   5.099 -1.9766  1.0312  1.3271
45130SOL     OW47368   2.361   9.736   7.354  0.1602 -0.1232 -0.1376
45130SOL    HW147369   2.344   9.713   7.445  0.7556  0.1051  0.0366
45130SOL    HW247370   2.275   9.756   7.318 -0.1961 -1.2142  0.0931
45131SOL     OW47371   1.857   2.397   4.761  0.3998 -0.2247 -0.3164
45131SOL    HW147372   1.826   2.484   4.735 -0.0961 -0.0084  0.9293
45131SOL    HW247373   1.829   2.388   4.852  2.2983 -0.8501  0.2355
45132SOL     OW47374   9.911   3.775   3.874 -0.0622  0.5282  0.5639
45132SOL    HW147375   9.820   3.772   3.843  0.2724  0.2264 -0.4150
45132SOL    HW247376   9.907   3.829   3.953 -1.2099 -0.0802  0.9513
45133SOL     OW47377   5.144   7.570   5.245 -0.8975 -0.2635 -0.5997
45133SOL    HW147378   5.065   7.599   5.199 -0.6804 -1.1210 -1.5579
45133SOL    HW247379   5.185   7.508   5.185  1.9978  2.1662 -1.3958
45134SOL     OW47380  10.017   8.214   1.475  0.2930 -0.4402 -0.5432
45134SOL    HW147381   9.975   8.267   1.543  0.2440 -0.6241 -0.4253
45134SOL    HW247382  10.040   8.133   1.521  2.7324  0.4649 -0.0477
45135SOL     OW47383  10.130   7.177  10.447  0.3767  0.5261  0.0266
45135SOL    HW147384  10.071   7.132  10.387  0.6661  1.0539 -0.6752
45135SOL    HW247385  10.170   7.108  10.499 -0.5748  0.1332  0.2550
45136SOL     OW47386  12.970  12.541   1.412  0.3732  0.4569 -0.2490
45136SOL    HW147387  12.976  12.450   1.439  1.0787  0.7809  0.7445
45136SOL    HW247388  13.061  12.567   1.393  0.0753  0.6965 -1.4111
45137SOL     OW47389   9.216   4.717  10.642  0.6835 -0.0940 -0.2520
45137SOL    HW147390   9.179   4.732  10.729  0.9264 -0.8023 -0.0167
45137SOL    HW247391   9.145   4.735  10.581  0.3098 -0.2633  0.1343
45138SOL     OW47392   1.629   6.601   4.244  0.2372  0.3700 -0.4722
45138SOL    HW147393   1.689   6.563   4.307  0.6288  2.3252  0.3977
45138SOL    HW247394   1.558   6.636   4.296 -0.6501 -0.0881 -1.3354
45139SOL     OW47395  11.449   0.697   4.522  0.2454  0.2346 -0.1302
45139SOL    HW147396  11.389   0.672   4.592  1.8662 -1.1019  0.8729
45139SOL    HW247397  11.492   0.615   4.497  3.1205  1.3854  0.6539
45140SOL     OW47398   9.133   7.467   1.043  0.2209 -0.0845 -0.8785
45140SOL    HW147399   9.082   7.386   1.039 -0.4716  0.2726  0.4616
45140SOL    HW247400   9.068   7.536   1.049  0.8240  0.3860  0.7246
45141SOL     OW47401   1.540   0.089   8.128 -0.2147  0.5150 -0.0354
45141SOL    HW147402   1.601   0.121   8.061  0.1963 -0.8093 -0.3348
45141SOL    HW247403   1.461   0.141   8.115 -0.0431  0.4806 -1.3727
45142SOL     OW47404   7.587   4.293   7.953  0.4632 -0.2652 -0.2780
45142SOL    HW147405   7.591   4.384   7.925 -0.5044 -0.2549 -0.4159
45142SOL    HW247406   7.528   4.251   7.890 -0.9913 -0.4586  1.1668
45143SOL     OW47407  12.468   0.143   1.803 -0.2816  0.0396 -0.3082
45143SOL    HW147408  12.509   0.222   1.767  0.5412  0.4415  1.4064
45143SOL    HW247409  12.505   0.072   1.751  1.3913  0.5410  0.1210
45144SOL     OW47410   6.051  13.581   9.400  0.6671 -0.1298  0.4149
45144SOL    HW147411   5.960  13.586   9.427  0.5848 -1.1445  0.3795
45144SOL    HW247412   6.081  13.672   9.398  0.1036  0.1111  1.9330
45145SOL     OW47413   3.778   0.323   0.739 -0.6805  0.1619 -0.0301
45145SOL    HW147414   3.849   0.385   0.756 -0.7526  0.1671  0.2468
45145SOL    HW247415   3.821   0.252   0.690 -0.6634  0.5721 -0.6204
45146SOL     OW47416  10.655   2.099  13.159  0.4779 -0.1711  0.2394
45146SOL    HW147417  10.625   2.014  13.126 -1.2036 -0.2294  1.7505
45146SOL    HW247418  10.746   2.106  13.130 -0.2967 -1.0120 -2.7334
45147SOL     OW47419  12.372   2.599   2.356  0.5452 -0.0237  0.7786
45147SOL    HW147420  12.345   2.507   2.361 -0.4897  0.1020 -1.4272
45147SOL    HW247421  12.468   2.596   2.357  0.5700 -1.3141 -1.0798
45148SOL     OW47422   9.106   9.064  13.642 -0.1567  0.2300 -0.3671
45148SOL    HW147423   9.019   9.025  13.639 -0.6307  1.2295 -0.2620
45148SOL    HW247424   9.117   9.093  13.733 -0.2408  1.2241 -0.6598
45149SOL     OW47425   3.791   8.646   1.099 -0.0113 -0.5786 -0.2896
45149SOL    HW147426   3.715   8.670   1.046  0.8438  0.2856 -1.1667
45149SOL    HW247427   3.860   8.627   1.036  0.7578 -0.4732  0.4993
45150SOL     OW47428   9.812   9.957  11.189  0.0488  0.3712 -0.2022
45150SOL    HW147429   9.905   9.957  11.166  0.3031  1.3727  0.7790
45150SOL    HW247430   9.770   9.913  11.115  1.1470  1.0697 -1.2752
45151SOL     OW47431   9.114  10.677   0.982  0.1432  0.4926 -0.5969
45151SOL    HW147432   9.169  10.751   1.010  1.1499 -0.5441  0.3017
45151SOL    HW247433   9.038  10.717   0.942  0.7592  2.0200 -0.3084
45152SOL     OW47434   2.026  11.445   6.832  0.0679  0.3662  0.3572
45152SOL    HW147435   1.936  11.415   6.838 -0.1477  1.1177  0.9656
45152SOL    HW247436   2.038  11.465   6.739  0.2147 -1.5298 -0.0668
45153SOL     OW47437   9.147   1.437   8.414 -0.1761 -0.4591 -0.0766
45153SOL    HW147438   9.097   1.426   8.333 -2.0927  0.5679  0.9142
45153SOL    HW247439   9.119   1.364   8.470  0.7132 -0.8349 -0.0970
45154SOL     OW47440  13.981   5.688  11.852  0.3943 -0.0488 -0.0761
45154SOL    HW147441  14.011   5.673  11.762 -1.8728  0.2022 -0.9361
45154SOL    HW247442  13.928   5.767  11.846 -0.4332 -0.4636  1.3439
45155SOL     OW47443   7.488  12.915   5.706 -0.6565  0.3437 -0.4359
45155SOL    HW147444   7.564  12.895   5.651 -1.2551  0.3137 -1.2832
45155SOL    HW247445   7.477  13.010   5.696 -0.7028  0.3539 -0.2805
45156SOL     OW47446   7.105   1.472  13.138 -0.6848  0.6498 -0.4124
45156SOL    HW147447   7.177   1.435  13.088 -0.5890 -1.4431  1.1236
45156SOL    HW247448   7.146   1.507  13.218 -1.2866 -0.0238  0.2036
45157SOL     OW47449   3.649   4.451   6.021  0.1510  0.2780  0.6318
45157SOL    HW147450   3.567   4.486   6.055 -0.0466  0.9892 -0.5041
45157SOL    HW247451   3.709   4.451   6.096  0.2448  3.3480  0.6727
45158SOL     OW47452  11.974  11.306  11.076  0.5938  0.5538  0.2676
45158SOL    HW147453  11.995  11.394  11.106 -0.4552  1.3200 -1.1458
45158SOL    HW247454  11.955  11.316  10.983 -3.8523 -0.3036  0.8634
45159SOL     OW47455   5.014   4.699   3.909  0.1383 -0.1089  0.1653
45159SOL    HW147456   4.972   4.764   3.853 -1.0798 -0.0170  1.1454
45159SOL    HW247457   5.041   4.629   3.850 -1.2003 -0.0624 -0.5280
45160SOL     OW47458   5.585   7.263   6.031 -0.5749  0.3995  0.1334
45160SOL    HW147459   5.531   7.203   6.083 -0.2990  0.7114  0.7902
45160SOL    HW247460   5.642   7.205   5.980  0.5165  0.0915  1.6487
45161SOL     OW47461  10.436   6.747   4.838 -0.1087 -0.1616  0.2822
45161SOL    HW147462  10.464   6.657   4.856 -0.3262 -0.1860  0.5055
45161SOL    HW247463  10.472   6.767   4.751  1.2376  0.0602  0.8599
45162SOL     OW47464  13.226   7.098   0.566  0.3389 -0.4066 -0.2770
45162SOL    HW147465  13.254   7.160   0.633 -0.2027  0.9727 -1.2859
45162SOL    HW247466  13.296   7.099   0.501  1.4348 -2.6280  0.7505
45163SOL     OW47467   8.272   6.417  10.783  0.1712  0.5139  0.4939
45163SOL    HW147468   8.324   6.467  10.720 -0.6083 -0.2215 -0.7756
45163SOL    HW247469   8.193   6.469  10.795  0.5324  0.8937  1.2576
45164SOL     OW47470   6.161   2.392  13.329  0.2461  0.4382  0.4873
45164SOL    HW147471   6.076   2.354  13.304  0.2411  1.9095 -2.0840
45164SOL    HW247472   6.219   2.316  13.339 -0.4767 -0.4624 -1.5832
45165SOL     OW47473   9.220   3.223   2.600 -0.1045  0.0999 -0.4325
45165SOL    HW147474   9.143   3.243   2.547 -0.0299  0.5887 -0.3606
45165SOL    HW247475   9.213   3.129   2.618  0.2690 -0.2521 -1.9519
45166SOL     OW47476   7.763  13.252   0.079 -0.1362 -0.2757 -0.3560
45166SOL    HW147477   7.727  13.213  -0.001 -0.5346  1.7442 -1.2397
45166SOL    HW247478   7.853  13.222   0.082 -0.4993 -1.4603 -0.8210
45167SOL     OW47479  11.160   1.368   5.765  0.4045 -0.1009  0.5693
45167SOL    HW147480  11.214   1.291   5.785  1.3514  0.4395  0.1846
45167SOL    HW247481  11.135   1.356   5.673 -0.2316 -0.3938  0.7718
45168SOL     OW47482  11.780  11.425   2.163  0.0574  0.3469  0.0169
45168SOL    HW147483  11.875  11.436   2.168  0.4537 -1.9941 -1.2161
45168SOL    HW247484  11.754  11.402   2.252  1.1365 -1.9079 -0.1722
45169SOL     OW47485  13.267   8.501   1.717 -0.1082 -0.5201 -0.2703
45169SOL    HW147486  13.353   8.471   1.687 -0.3445 -0.7798 -0.7031
45169SOL    HW247487  13.223   8.422   1.747 -1.5602 -1.0704 -3.4291
45170SOL     OW47488   8.189   4.332   8.793  0.2548 -0.8596 -0.6447
45170SOL    HW147489   8.232   4.338   8.708  0.0555  0.1578 -0.6902
45170SOL    HW247490   8.163   4.240   8.801  1.7415 -1.3309 -0.9381
45171SOL     OW47491   0.312   6.744   8.417 -0.9814  0.0707 -0.3787
45171SOL    HW147492   0.316   6.664   8.469 -1.3387  0.0627 -0.3608
45171SOL    HW247493   0.346   6.718   8.331 -1.0895 -0.0988 -0.3713
45172SOL     OW47494   5.039   4.311   9.401 -0.0737  0.1545  0.4219
45172SOL    HW147495   4.957   4.287   9.446 -0.2259 -0.3120 -0.0985
45172SOL    HW247496   5.103   4.247   9.431 -0.2527 -0.3527 -0.2578
45173SOL     OW47497   0.619   8.936  12.846 -0.4849 -0.0776  0.1451
45173SOL    HW147498   0.632   8.862  12.905  1.0817 -0.0085 -0.0815
45173SOL    HW247499   0.642   9.013  12.898  2.0875 -0.0932 -0.8099
45174SOL     OW47500   6.726  12.543  13.896 -0.1841  0.0988  0.1229
45174SOL    HW147501   6.727  12.451  13.870 -2.2674 -0.1930  0.9058
45174SOL    HW247502   6.695  12.542  13.986  0.4818  1.5393  0.4013
45175SOL     OW47503   7.233   6.257   5.798 -0.3068  0.3008 -0.3112
45175SOL    HW147504   7.176   6.240   5.873 -0.0319  1.0228  0.0736
45175SOL    HW247505   7.292   6.326   5.828  0.8956 -0.5496 -0.6440
45176SOL     OW47506   0.227   2.202   2.884 -0.9626 -0.4736 -0.5605
45176SOL    HW147507   0.141   2.242   2.898 -0.6684 -0.3389  1.0095
45176SOL    HW247508   0.244   2.153   2.965 -0.0358 -1.4013 -1.2853
45177SOL     OW47509   2.042  11.084   0.697 -0.4177 -0.2046  0.0723
45177SOL    HW147510   2.048  11.116   0.787 -1.5436 -1.2939  0.5807
45177SOL    HW247511   1.966  11.025   0.699  0.8737 -1.9802 -1.0593
45178SOL     OW47512   9.961   9.054   8.343 -0.0365  0.2047  0.0171
45178SOL    HW147513   9.965   9.046   8.438  0.5208  1.1500  0.0821
45178SOL    HW247514  10.010   8.978   8.311 -1.1380 -0.7193  0.4470
45179SOL     OW47515   7.820  11.900   6.640  0.6055 -1.5203 -0.2365
45179SOL    HW147516   7.779  11.845   6.707 -0.1129 -1.4281 -0.5910
45179SOL    HW247517   7.812  11.989   6.675 -0.5021 -1.3803 -0.7900
45180SOL     OW47518   1.342   3.760   7.539 -0.2098  0.0430  0.2694
45180SOL    HW147519   1.427   3.718   7.530  1.0436  2.5462 -0.2723
45180SOL    HW247520   1.321   3.755   7.632  0.3958 -0.7840  0.3667
45181SOL     OW47521   9.305   5.401  11.988  0.2384  0.4549 -0.3318
45181SOL    HW147522   9.293   5.355  12.072 -0.7320  0.6619 -0.3400
45181SOL    HW247523   9.259   5.346  11.924  0.3523  0.6681 -0.5983
45182SOL     OW47524   1.543   5.032   7.452  0.1955 -0.1995  0.3407
45182SOL    HW147525   1.470   5.089   7.428 -0.3923 -1.0412  0.0657
45182SOL    HW247526   1.592   5.082   7.517  0.2518  1.0078 -0.5779
45183SOL     OW47527   3.218   8.623   0.674  0.2568 -0.4432  0.5223
45183SOL    HW147528   3.146   8.642   0.735 -0.9818  0.9567 -1.2347
45183SOL    HW247529   3.199   8.679   0.598  2.9265 -0.4615 -0.2502
45184SOL     OW47530   1.208  11.821   4.753 -0.1025  0.0535  0.3371
45184SOL    HW147531   1.170  11.739   4.722  2.1529 -1.4472  1.2700
45184SOL    HW247532   1.172  11.833   4.841  0.5144 -0.6778  0.7083
45185SOL     OW47533  12.051  13.715  10.797  0.3294 -0.0660  0.7280
45185SOL    HW147534  12.111  13.648  10.763  0.4519 -0.1473  1.0989
45185SOL    HW247535  12.090  13.742  10.880 -0.0793 -0.0242  0.9092
45186SOL     OW47536   4.046   0.496   1.498  0.1539 -0.3223  0.2144
45186SOL    HW147537   4.135   0.519   1.525 -0.3677  0.1944  1.5439
45186SOL    HW247538   4.008   0.451   1.574 -0.7393 -0.4932 -0.3167
45187SOL     OW47539  13.842   9.629   0.199 -0.3101  0.1802 -0.3762
45187SOL    HW147540  13.908   9.597   0.261 -1.5222 -2.2413 -0.2177
45187SOL    HW247541  13.764   9.645   0.253 -0.9138 -0.4525 -1.0401
45188SOL     OW47542   1.488   4.325   9.676 -0.0104  0.0486  1.0445
45188SOL    HW147543   1.516   4.234   9.669  2.7715  0.8741  0.3387
45188SOL    HW247544   1.426   4.337   9.604 -2.6679 -1.9328  2.8205
45189SOL     OW47545   8.836  13.560  13.035  0.0129  0.5645  0.2318
45189SOL    HW147546   8.896  13.560  13.109 -0.4963 -0.5728  0.6708
45189SOL    HW247547   8.769  13.495  13.058  0.2825 -0.4246 -1.5638
45190SOL     OW47548   7.239   8.704   3.820 -0.1068  0.3369  0.1222
45190SOL    HW147549   7.226   8.711   3.726  0.9755  0.3598 -0.0384
45190SOL    HW247550   7.250   8.795   3.849 -0.6077  0.3432  0.3035
45191SOL     OW47551  13.605   2.634   1.743  0.4565  0.3848 -0.1510
45191SOL    HW147552  13.629   2.713   1.792  2.2544 -0.4725  0.4196
45191SOL    HW247553  13.568   2.575   1.809  2.3685 -0.5570  0.1443
45192SOL     OW47554   4.652   0.326   9.403  0.0701  0.7183  0.1040
45192SOL    HW147555   4.702   0.407   9.395 -0.2182  0.8251 -0.7715
45192SOL    HW247556   4.580   0.347   9.462  0.3529  0.9201  0.3755
45193SOL     OW47557  12.450   6.880   9.907  0.0600 -0.3654  0.2925
45193SOL    HW147558  12.507   6.943   9.864  0.1948 -0.4572  0.3371
45193SOL    HW247559  12.371   6.878   9.853  0.7835 -1.5438 -0.7756
45194SOL     OW47560   3.700   5.941   7.183 -0.2941 -0.1121  0.2727
45194SOL    HW147561   3.653   6.024   7.184  1.4394  0.9162 -0.4975
45194SOL    HW247562   3.693   5.910   7.093  0.9211  0.3172  0.0178
45195SOL     OW47563   0.958   7.170   2.415 -0.0242 -0.0225  0.4216
45195SOL    HW147564   1.038   7.217   2.436 -0.0620  0.7940 -1.0770
45195SOL    HW247565   0.938   7.195   2.324 -0.8210 -1.8389  0.0266
45196SOL     OW47566  13.375   5.856   8.800  0.3176 -0.2248  0.1864
45196SOL    HW147567  13.307   5.862   8.867 -0.0995 -1.4633 -0.0932
45196SOL    HW247568  13.441   5.919   8.827 -0.1103 -0.2860  1.4459
45197SOL     OW47569   6.677   8.009  10.798 -0.5043  0.5169  0.4226
45197SOL    HW147570   6.756   7.968  10.833 -0.5247  1.0466  1.0990
45197SOL    HW247571   6.634   7.939  10.749 -0.0657 -0.0162  0.7824
45198SOL     OW47572   1.243  11.173   8.766  0.5370  0.3023 -0.0144
45198SOL    HW147573   1.282  11.241   8.712  1.5719 -0.9905 -0.9545
45198SOL    HW247574   1.200  11.115   8.704  1.3232 -0.9431  0.5648
45199SOL     OW47575   2.782   9.631   7.400  0.3575 -0.1866  0.1754
45199SOL    HW147576   2.845   9.563   7.421 -0.7850 -0.8444  1.6749
45199SOL    HW247577   2.787   9.692   7.474 -0.9872 -0.4577  0.5240
45200SOL     OW47578   6.024   5.985   8.427  0.3172  0.2127 -0.6315
45200SOL    HW147579   6.036   5.901   8.472  1.5059  0.9011  0.3903
45200SOL    HW247580   6.112   6.021   8.420 -0.2733  1.8483 -0.1343
45201SOL     OW47581   1.825   4.247   3.079 -0.1507 -0.1456  0.1748
45201SOL    HW147582   1.840   4.185   3.008  1.3660 -0.6492  0.8914
45201SOL    HW247583   1.736   4.229   3.108 -0.5777 -0.3473 -1.1787
45202SOL     OW47584  13.641   0.816   7.395  0.7600 -0.1099  0.3319
45202SOL    HW147585  13.698   0.813   7.319  1.7803 -0.5396  1.0891
45202SOL    HW247586  13.612   0.907   7.400  2.3390  0.4184  0.5952
45203SOL     OW47587   6.687  10.620  13.278 -0.3044 -0.6284 -0.2700
45203SOL    HW147588   6.632  10.641  13.353  1.8699  0.9925  0.9799
45203SOL    HW247589   6.669  10.527  13.261 -1.7543 -0.7285  1.4626
45204SOL     OW47590   5.998  11.076  11.717  0.3832 -0.2041  0.0335
45204SOL    HW147591   5.908  11.042  11.716  0.8143 -1.5957  2.2534
45204SOL    HW247592   5.996  11.147  11.781  0.4931  1.1424 -1.3782
45205SOL     OW47593   7.305   5.698   2.840 -0.1543 -0.9461 -0.4822
45205SOL    HW147594   7.306   5.665   2.750 -0.3987 -0.7032 -0.5742
45205SOL    HW247595   7.245   5.639   2.887 -0.3743 -0.8004 -0.5818
45206SOL     OW47596  12.040   5.061  11.805  0.0200 -0.3470  0.2836
45206SOL    HW147597  11.989   5.111  11.868  0.4355 -0.5714  0.8070
45206SOL    HW247598  11.985   5.059  11.726 -0.5774 -0.2003  0.6850
45207SOL     OW47599   5.534   3.901   0.071  0.6946  0.0406 -0.4846
45207SOL    HW147600   5.574   3.974   0.024 -0.1565  0.4452 -0.5934
45207SOL    HW247601   5.584   3.824   0.043  2.4985  0.7416  0.6931
45208SOL     OW47602   2.168   8.108  12.006  0.1832 -0.2464  0.3895
45208SOL    HW147603   2.097   8.048  12.027  0.8344 -1.2292 -0.1588
45208SOL    HW247604   2.236   8.053  11.967  0.2065  1.0553 -1.5402
45209SOL     OW47605   5.463   7.777   2.949  0.3831  0.4950 -0.1763
45209SOL    HW147606   5.494   7.747   2.863  1.0351  1.8742 -0.4572
45209SOL    HW247607   5.541   7.774   3.005 -0.0370 -0.3810  0.3778
45210SOL     OW47608   3.320   8.550   7.389  0.1531  0.5161 -0.4683
45210SOL    HW147609   3.369   8.506   7.458  0.0133  0.3459 -0.4741
45210SOL    HW247610   3.272   8.620   7.433  0.2267  0.5387 -0.4257
45211SOL     OW47611   7.916  11.644  12.255 -0.5866 -0.3966 -0.0322
45211SOL    HW147612   7.964  11.726  12.260  2.0564 -1.8394  0.0703
45211SOL    HW247613   7.944  11.606  12.171 -0.8739 -1.6679  0.4281
45212SOL     OW47614   5.242  13.415   6.466  0.0569 -0.1242  0.5464
45212SOL    HW147615   5.223  13.509   6.464 -2.1322 -0.3984  2.8908
45212SOL    HW247616   5.197  13.383   6.545 -1.0943 -3.5060 -1.2554
45213SOL     OW47617   4.668   3.404   7.539  0.4124  0.3661  0.0467
45213SOL    HW147618   4.576   3.423   7.520  0.2980 -1.0436 -1.0030
45213SOL    HW247619   4.666   3.332   7.602  0.7659 -0.1233 -0.4833
45214SOL     OW47620   5.969  11.267   6.420  0.6616  0.5185 -0.1138
45214SOL    HW147621   6.047  11.227   6.383  1.7636  2.1667  0.3561
45214SOL    HW247622   5.997  11.300   6.505 -0.5584  1.1479  0.0688
45215SOL     OW47623  10.030   5.521  11.497  0.5196 -0.2791 -0.3306
45215SOL    HW147624  10.084   5.443  11.487  2.2452  0.9344 -0.9014
45215SOL    HW247625  10.048   5.574  11.419 -1.4074  0.2441 -0.4691
45216SOL     OW47626   2.050   5.393   7.574  0.1617 -0.0992 -0.5860
45216SOL    HW147627   2.107   5.339   7.519  1.0555  0.5822 -0.3573
45216SOL    HW247628   1.963   5.357   7.561  0.8651 -2.4095  0.4709
45217SOL     OW47629  10.292   9.688   8.030 -0.3508  0.3254 -0.0298
45217SOL    HW147630  10.344   9.750   8.081  2.3378 -0.8850 -1.1032
45217SOL    HW247631  10.291   9.724   7.942 -1.0335  0.1434 -0.0969
45218SOL     OW47632   3.631   6.754   8.871  0.1411  0.5088  0.6807
45218SOL    HW147633   3.582   6.835   8.888  0.5861  0.4276  2.5536
45218SOL    HW247634   3.672   6.733   8.955  1.2971 -0.8286 -0.1799
45219SOL     OW47635   1.490   5.881   0.399  0.0045  0.0694  0.5190
45219SOL    HW147636   1.571   5.927   0.375 -0.3848 -0.7669 -2.9118
45219SOL    HW247637   1.521   5.804   0.447  1.0687  0.7404  0.9677
45220SOL     OW47638  12.490   4.724  10.049 -0.0314  0.0024  0.0917
45220SOL    HW147639  12.411   4.692  10.004  0.2011 -1.8245  0.8760
45220SOL    HW247640  12.468   4.813  10.077 -1.7289 -0.3706  0.0567
45221SOL     OW47641   2.485   8.662   7.912  0.0710  0.0344 -0.7960
45221SOL    HW147642   2.532   8.745   7.912 -0.1973  0.2003 -2.1822
45221SOL    HW247643   2.395   8.685   7.933  0.0581  0.0521 -0.8724
45222SOL     OW47644   4.528   4.735   8.437 -0.9265 -0.0523  0.4766
45222SOL    HW147645   4.500   4.672   8.504 -1.9461 -1.1589 -0.9506
45222SOL    HW247646   4.458   4.799   8.434 -0.8229  0.0649  0.5381
45223SOL     OW47647   7.497  11.866   9.732  0.0232  0.0897 -0.4769
45223SOL    HW147648   7.423  11.908   9.778 -0.7703 -3.2380  1.6148
45223SOL    HW247649   7.570  11.874   9.793 -0.3996 -2.1951  0.4459
45224SOL     OW47650   1.162  10.261   6.160  0.4563  0.0933  0.1549
45224SOL    HW147651   1.096  10.312   6.113  0.1284 -0.1902  0.2975
45224SOL    HW247652   1.119  10.236   6.241 -0.6278 -3.1238 -1.2332
45225SOL     OW47653   5.207   2.849   3.827 -0.4949  0.1922 -0.0416
45225SOL    HW147654   5.227   2.916   3.761  0.4095 -1.0034 -1.0309
45225SOL    HW247655   5.279   2.786   3.820 -1.8673 -1.4787  0.0805
45226SOL     OW47656   9.110   4.120   1.381  0.6962  0.1491  0.0017
45226SOL    HW147657   9.107   4.025   1.373 -0.4914  0.1313  0.4875
45226SOL    HW247658   9.160   4.136   1.461  0.3582 -0.0973  0.2687
45227SOL     OW47659   7.310  13.325   6.905  0.2778 -0.3827 -0.4107
45227SOL    HW147660   7.288  13.235   6.879 -1.6270 -0.0869  0.0030
45227SOL    HW247661   7.386  13.347   6.852 -1.1168 -1.1543 -2.8934
45228SOL     OW47662   3.440   7.913   1.819 -0.2554  0.4270 -0.1298
45228SOL    HW147663   3.467   8.003   1.798 -0.7038  0.4210 -0.7680
45228SOL    HW247664   3.489   7.858   1.759 -0.1903  0.2610  0.0724
45229SOL     OW47665   9.990   4.905   2.273  0.3124 -0.0097  0.3296
45229SOL    HW147666   9.944   4.862   2.344 -0.6146 -2.1513 -1.4620
45229SOL    HW247667   9.941   4.985   2.257  0.5909  0.5608  2.0872
45230SOL     OW47668  13.156   6.268   3.019  0.2579 -0.1025  0.0646
45230SOL    HW147669  13.118   6.189   3.057 -0.1112  0.4714  0.9069
45230SOL    HW247670  13.140   6.337   3.084  2.4483  0.2498  0.3286
45231SOL     OW47671   2.549   5.238   7.517  0.0784 -0.5845 -0.0078
45231SOL    HW147672   2.586   5.169   7.462  0.3789 -0.0573 -0.4702
45231SOL    HW247673   2.485   5.192   7.572 -0.0198 -1.1646 -0.5948
45232SOL     OW47674   8.450   1.726   8.650 -0.4516 -0.6204 -0.0966
45232SOL    HW147675   8.536   1.692   8.625 -1.3938 -1.9889 -1.6557
45232SOL    HW247676   8.436   1.692   8.739  0.3768 -0.8269 -0.0370
45233SOL     OW47677   7.400   0.731  12.950  0.5421  0.1727  0.7710
45233SOL    HW147678   7.394   0.824  12.973  0.2801  0.1816  0.6762
45233SOL    HW247679   7.475   0.698  13.000 -1.5404 -0.4360  3.7700
45234SOL     OW47680  13.588   8.065  13.321  0.0659 -0.3493 -0.7733
45234SOL    HW147681  13.644   8.003  13.367 -0.9737 -2.2671 -2.0002
45234SOL    HW247682  13.649   8.118  13.268  1.1259  0.9571  1.6075
45235SOL     OW47683   8.217  10.701   7.317 -0.5383 -0.3076  0.5325
45235SOL    HW147684   8.208  10.797   7.312  1.2823 -0.1172  0.3013
45235SOL    HW247685   8.298  10.682   7.270 -1.7711 -2.1649 -0.9759
45236SOL     OW47686  11.848  12.444  11.314 -0.2654  0.1404 -0.0464
45236SOL    HW147687  11.785  12.450  11.386 -0.4091  1.6681 -0.2617
45236SOL    HW247688  11.932  12.465  11.355 -0.0765 -0.6344 -0.0157
45237SOL     OW47689   0.725  11.906   5.240  0.2231  0.3905 -0.0355
45237SOL    HW147690   0.641  11.930   5.277  0.1889 -0.9216  0.8287
45237SOL    HW247691   0.762  11.844   5.303  1.0288 -0.4308 -1.2657
45238SOL     OW47692  13.283  11.756  10.739 -0.0288  0.2341 -0.0103
45238SOL    HW147693  13.279  11.735  10.646 -0.3198 -0.6556  0.1980
45238SOL    HW247694  13.226  11.692  10.781 -0.0657  0.7593  0.7622
45239SOL     OW47695   6.617  13.399   5.976  0.5387 -0.0644  0.0456
45239SOL    HW147696   6.609  13.470   5.912 -1.3770  1.4685  1.8384
45239SOL    HW247697   6.529  13.362   5.981  0.8355 -0.6380  1.2562
45240SOL     OW47698   2.706   2.060  13.248 -0.4014  0.0336  0.4611
45240SOL    HW147699   2.787   2.085  13.294  0.8702  1.2968 -2.2091
45240SOL    HW247700   2.709   1.965  13.244  0.4046  0.0068  1.3194
45241SOL     OW47701   1.006   4.647  12.670 -0.0645  0.1455  0.4063
45241SOL    HW147702   0.935   4.695  12.627 -2.2447 -0.2458  3.2375
45241SOL    HW247703   1.076   4.712  12.679 -0.0196  0.5780 -2.3841
45242SOL     OW47704   4.137   1.122   1.265 -0.4019  0.2367 -0.5464
45242SOL    HW147705   4.171   1.176   1.336  0.4254 -0.6117 -0.2721
45242SOL    HW247706   4.165   1.033   1.287 -0.2762 -0.0704 -1.8393
45243SOL     OW47707   0.950   8.794   1.209  0.4475  0.5493  0.0363
45243SOL    HW147708   0.957   8.860   1.278 -2.3805  1.6398 -0.5902
45243SOL    HW247709   0.858   8.769   1.209  0.6066 -0.3441 -2.4892
45244SOL     OW47710   8.684   1.227  10.748 -0.2518 -0.0996 -0.1035
45244SOL    HW147711   8.724   1.263  10.669 -3.8605  0.1441 -2.0423
45244SOL    HW247712   8.717   1.137  10.752  1.2070  0.3561 -0.9330
45245SOL     OW47713   0.487   5.386   1.834  0.0957 -0.6021  0.6717
45245SOL    HW147714   0.404   5.348   1.861 -0.7102  1.1718  0.8783
45245SOL    HW247715   0.523   5.423   1.915  0.0206  0.5157  0.2160
45246SOL     OW47716   6.179  13.834   9.426  0.2948  0.7751  0.5869
45246SOL    HW147717   6.203  13.800   9.512  1.2817  2.3601  0.9903
45246SOL    HW247718   6.152  13.925   9.442  0.7169  1.1807 -0.7803
45247SOL     OW47719   3.152   5.765   7.616 -0.1025 -0.1846 -0.0375
45247SOL    HW147720   3.139   5.856   7.640  1.6730  0.3345 -0.8466
45247SOL    HW247721   3.162   5.766   7.520  0.8920 -1.0517  0.0266
45248SOL     OW47722   6.307   7.503   9.149 -0.3552 -0.4824  0.0264
45248SOL    HW147723   6.211   7.510   9.143 -0.2199  0.2108 -2.9242
45248SOL    HW247724   6.333   7.460   9.067  1.8787 -0.6772  0.7727
45249SOL     OW47725   2.185   9.302   5.046  0.3033 -0.8176  0.2612
45249SOL    HW147726   2.254   9.304   4.979  0.0736  1.1602  0.0261
45249SOL    HW247727   2.229   9.332   5.125  0.0315 -0.9055  0.4453
45250SOL     OW47728   4.149   5.978   9.836  0.5444 -0.5742 -0.2015
45250SOL    HW147729   4.147   5.936   9.922  0.6341  1.3943  0.8030
45250SOL    HW247730   4.133   6.070   9.853 -3.5238 -0.5630 -2.6824
45251SOL     OW47731  11.474  13.940   1.866  0.2416 -0.1187  0.1802
45251SOL    HW147732  11.418  13.914   1.794 -2.3468  0.7041  1.7469
45251SOL    HW247733  11.478  14.036   1.860 -1.2702  0.1068  1.8883
45252SOL     OW47734   0.735  12.896  12.366  0.1142 -1.0488  0.0638
45252SOL    HW147735   0.691  12.830  12.420 -0.5340  1.0094  2.2470
45252SOL    HW247736   0.825  12.896  12.397  0.0103 -0.6489  0.3807
45253SOL     OW47737   0.523  10.305  11.351 -0.2606  0.2276  0.1093
45253SOL    HW147738   0.462  10.356  11.404 -0.2445 -0.3162  0.6693
45253SOL    HW247739   0.596  10.287  11.410  0.2695  0.5589 -0.4446
45254SOL     OW47740   5.431   1.181   8.870  0.1145 -0.2931 -0.2951
45254SOL    HW147741   5.400   1.091   8.866  0.1448 -0.3006 -0.3653
45254SOL    HW247742   5.396   1.215   8.952 -1.1351  0.0872 -0.9679
45255SOL     OW47743   2.353  11.501   3.334 -0.1388  0.5919  0.2160
45255SOL    HW147744   2.307  11.505   3.250  1.2166 -1.3578 -0.7075
45255SOL    HW247745   2.416  11.573   3.329 -0.7021  1.0774 -0.0250
45256SOL     OW47746  12.505   1.521  11.076 -0.0980 -0.0192 -0.2727
45256SOL    HW147747  12.426   1.470  11.093  1.0118 -1.4453  0.9762
45256SOL    HW247748  12.490   1.605  11.119 -1.5008  0.3186 -1.3520
45257SOL     OW47749  11.057   2.462   6.986  0.0709 -0.4259 -0.4649
45257SOL    HW147750  11.030   2.371   6.974 -2.5874  0.2393 -0.3425
45257SOL    HW247751  11.037   2.480   7.079  0.0580  0.4013 -0.6214
45258SOL     OW47752   2.683   0.729   7.347 -0.4148  0.0450 -0.3852
45258SOL    HW147753   2.677   0.823   7.361  2.2989  0.0153  2.0727
45258SOL    HW247754   2.618   0.692   7.407 -0.0309  0.3282  0.2156
45259SOL     OW47755   8.450   5.469   8.879 -0.4422  0.2774 -0.3238
45259SOL    HW147756   8.380   5.441   8.820 -0.2441  0.0236 -0.4397
45259SOL    HW247757   8.531   5.439   8.837 -0.3401 -0.4951  0.3998
45260SOL     OW47758   7.798   6.467   0.218  0.0160 -0.3012  0.3065
45260SOL    HW147759   7.821   6.504   0.132 -2.2255 -1.3923 -0.8701
45260SOL    HW247760   7.833   6.530   0.281  1.7855  0.5307 -1.3721
45261SOL     OW47761  13.737   7.392   4.462 -0.1501  0.1143  0.3598
45261SOL    HW147762  13.771   7.357   4.544  0.6702 -1.5477 -0.6236
45261SOL    HW247763  13.690   7.318   4.422 -0.6666  0.9340 -0.6051
45262SOL     OW47764   5.498  13.958   0.084 -0.2168 -0.0314 -0.2680
45262SOL    HW147765   5.555  14.027   0.051  0.7105 -0.9036 -0.5232
45262SOL    HW247766   5.470  13.989   0.170  1.3698  0.0207  0.2592
45263SOL     OW47767  11.282   9.469  10.119 -0.0432 -0.2506 -0.2743
45263SOL    HW147768  11.296   9.449  10.212 -1.9831  1.3665  0.4327
45263SOL    HW247769  11.217   9.404  10.091 -2.1655  1.4167  0.5330
45264SOL     OW47770  12.949  12.170   0.924 -0.0900  0.1950  0.3379
45264SOL    HW147771  12.884  12.139   0.987 -1.4668 -1.9199 -1.9638
45264SOL    HW247772  12.898  12.216   0.858  1.0209  0.2984 -0.4728
45265SOL     OW47773  13.906  12.772   8.021 -0.2680 -0.1212  0.0236
45265SOL    HW147774  13.967  12.731   7.960  0.0514  1.8165 -1.0156
45265SOL    HW247775  13.961  12.804   8.092 -0.0661  1.3170 -0.7443
45266SOL     OW47776   4.411   2.804   2.071  0.7076  0.5963 -0.0048
45266SOL    HW147777   4.454   2.828   2.153  1.3256 -0.4370 -0.0102
45266SOL    HW247778   4.456   2.724   2.043  1.4613  1.6722 -2.0762
45267SOL     OW47779   9.046  12.551   4.905  0.3944 -0.0898  0.2507
45267SOL    HW147780   9.017  12.642   4.914 -0.4865 -0.4763  1.8423
45267SOL    HW247781   9.082  12.529   4.991  1.0546 -1.0953 -0.2681
45268SOL     OW47782   2.812  10.058   1.433  0.5744  0.1545 -0.0801
45268SOL    HW147783   2.901  10.033   1.459  0.5903  1.0829  0.8108
45268SOL    HW247784   2.755  10.012   1.494  0.5242  0.8147  0.3825
45269SOL     OW47785   3.042   4.025   5.088  0.5133  0.3382  0.2379
45269SOL    HW147786   2.970   4.081   5.059  0.4909  1.3370  2.0649
45269SOL    HW247787   3.014   3.937   5.064 -0.3068  0.8995 -1.0276
45270SOL     OW47788   0.837  12.060   6.854 -0.2645 -0.5867 -0.1435
45270SOL    HW147789   0.861  12.103   6.936  0.2182 -1.3622  0.1338
45270SOL    HW247790   0.749  12.025   6.870 -0.2554 -0.5565 -0.0274
45271SOL     OW47791   0.214   6.052  11.159 -0.5012 -0.0703 -0.3892
45271SOL    HW147792   0.202   6.119  11.092  1.0544 -0.8883 -1.5549
45271SOL    HW247793   0.262   6.097  11.229 -1.5138  0.6050 -0.1059
45272SOL     OW47794   2.027   4.811   6.855 -0.1407 -0.1815  0.2170
45272SOL    HW147795   2.120   4.789   6.862  0.2021  1.2110  0.4506
45272SOL    HW247796   2.011   4.868   6.930 -1.1369 -0.2305  0.0519
45273SOL     OW47797  13.651   0.441   8.723 -0.0387 -0.4462 -0.2364
45273SOL    HW147798  13.613   0.473   8.805  1.6016  0.2111  0.3204
45273SOL    HW247799  13.660   0.347   8.736  1.4830 -0.1803  0.9422
45274SOL     OW47800  13.715   8.185   7.499 -0.1212  0.3344  0.0994
45274SOL    HW147801  13.791   8.184   7.557  0.9292 -1.5438 -1.1962
45274SOL    HW247802  13.641   8.165   7.556  0.2776  2.2815  1.3999
45275SOL     OW47803  11.387   6.870   1.469  0.0072 -0.2617 -0.3324
45275SOL    HW147804  11.381   6.919   1.388 -0.1411 -0.7102 -0.5969
45275SOL    HW247805  11.481   6.869   1.490 -0.0851  0.9790  0.2131
45276SOL     OW47806  10.906  11.067   5.024 -0.0748 -0.5980  0.3310
45276SOL    HW147807  10.984  11.063   5.079  0.2336 -1.1902 -0.1285
45276SOL    HW247808  10.940  11.055   4.935 -0.5772  0.2011  0.0293
45277SOL     OW47809  11.389   3.021   6.027  0.6234 -0.2067 -0.8268
45277SOL    HW147810  11.301   3.054   6.011  0.5815 -0.2285 -0.6421
45277SOL    HW247811  11.390   2.933   5.988  0.6674 -0.0770 -1.1261
45278SOL     OW47812  10.341   4.915   9.532  0.3900  0.0249 -0.4135
45278SOL    HW147813  10.260   4.866   9.521  1.2638 -0.9862 -2.9007
45278SOL    HW247814  10.349   4.967   9.452  0.5566  2.7623  1.2324
45279SOL     OW47815   8.272   0.856  13.898  0.2696 -0.2132  0.1823
45279SOL    HW147816   8.265   0.947  13.929  0.9331 -0.1886  0.2851
45279SOL    HW247817   8.210   0.808  13.951 -0.9660  0.3716 -0.6794
45280SOL     OW47818   2.040   6.863   2.282  0.4373  0.1686 -0.5173
45280SOL    HW147819   1.986   6.895   2.209  0.6671 -1.5450 -1.4966
45280SOL    HW247820   2.089   6.789   2.245  0.7760 -0.5777  1.3194
45281SOL     OW47821   9.369  10.369   7.958 -0.1159  0.3512 -0.6882
45281SOL    HW147822   9.449  10.412   7.989 -0.9089  1.1965  0.2375
45281SOL    HW247823   9.368  10.285   8.004 -0.2599  0.7623  0.0745
45282SOL     OW47824   2.214  10.736  13.213 -0.1807  0.0434 -0.5239
45282SOL    HW147825   2.159  10.755  13.137  0.3328  0.5188 -0.7893
45282SOL    HW247826   2.163  10.764  13.288 -0.5322 -0.0617 -0.7223
45283SOL     OW47827   5.635   7.322  13.172 -0.0574 -0.3057  0.4534
45283SOL    HW147828   5.608   7.406  13.208  1.4682 -0.0933  1.1987
45283SOL    HW247829   5.605   7.257  13.235 -2.4736 -0.4997 -0.8075
45284SOL     OW47830   3.159  13.494  11.588 -0.0998 -0.6621  0.3233
45284SOL    HW147831   3.082  13.440  11.607  0.5077 -1.5325  0.4087
45284SOL    HW247832   3.211  13.490  11.668 -0.3854  0.6703  0.5858
45285SOL     OW47833   9.417  12.394  11.271  0.2885 -0.1580 -0.6901
45285SOL    HW147834   9.457  12.308  11.287 -0.6937 -0.5302 -0.1625
45285SOL    HW247835   9.352  12.377  11.203  0.3884  0.2601 -0.8933
45286SOL     OW47836   2.890   6.185   4.411  0.1365 -0.1096  0.2367
45286SOL    HW147837   2.896   6.206   4.504 -1.5115  1.9616 -0.0370
45286SOL    HW247838   2.826   6.113   4.407 -0.4992  0.4207  0.6621
45287SOL     OW47839   8.267  12.654   8.250 -0.8085 -0.1303  0.0312
45287SOL    HW147840   8.210  12.731   8.261 -1.1252 -0.3479 -0.0675
45287SOL    HW247841   8.352  12.690   8.226 -0.8601  0.2110  0.3523
45288SOL     OW47842   9.330  11.917   7.926 -0.2147 -0.0410  0.0158
45288SOL    HW147843   9.256  11.975   7.946 -0.1490  0.2604 -0.5700
45288SOL    HW247844   9.289  11.833   7.904 -0.3527 -0.0209  0.1944
45289SOL     OW47845   3.950   9.759   6.133  0.2467  0.2224 -0.1919
45289SOL    HW147846   3.970   9.794   6.220  0.0611 -0.0023 -0.0572
45289SOL    HW247847   3.871   9.707   6.146 -0.4230  1.0977 -0.7222
45290SOL     OW47848  10.566   6.898   1.022  0.8424  0.3431  0.2038
45290SOL    HW147849  10.516   6.958   1.077  1.2940  1.2010 -0.2990
45290SOL    HW247850  10.646   6.946   1.000  0.9196 -0.1939 -0.7439
45291SOL     OW47851  12.004  11.596  13.208  0.4034  0.5070 -0.0760
45291SOL    HW147852  12.070  11.554  13.153  0.0275  0.6385 -0.6300
45291SOL    HW247853  11.954  11.523  13.245  0.4705  0.4287 -0.1384
45292SOL     OW47854   4.998   5.606  10.053  0.0267 -0.1128  0.0409
45292SOL    HW147855   4.971   5.610   9.961 -2.4747  0.2422  0.7100
45292SOL    HW247856   5.000   5.513  10.073 -1.0791 -0.1674  0.0064
45293SOL     OW47857   5.172   4.793   6.415  0.2464 -0.2564  0.1301
45293SOL    HW147858   5.182   4.744   6.334  1.1488  1.6007 -0.9689
45293SOL    HW247859   5.127   4.874   6.389 -0.3306 -0.0357  1.6689
45294SOL     OW47860  11.758  13.948   8.341 -0.2587  0.2988 -0.7421
45294SOL    HW147861  11.668  13.958   8.311 -0.6582 -1.1761 -0.1016
45294SOL    HW247862  11.792  13.873   8.292 -0.0476 -0.4434  0.5091
45295SOL     OW47863   0.153   9.989   5.296  0.3931 -0.0260  0.4573
45295SOL    HW147864   0.124   9.912   5.344 -2.9799 -0.1461 -1.4561
45295SOL    HW247865   0.167   9.958   5.206  0.9271  1.1974  0.0968
45296SOL     OW47866   8.175   0.124   5.392  0.4413  0.3223 -0.3698
45296SOL    HW147867   8.229   0.073   5.331 -1.5127 -0.3459 -1.6120
45296SOL    HW247868   8.176   0.213   5.355  0.3497  0.2159 -0.6296
45297SOL     OW47869   9.279  12.509   0.954 -0.5821  0.5132  0.4618
45297SOL    HW147870   9.340  12.523   0.882 -0.9540 -1.4523 -0.2940
45297SOL    HW247871   9.234  12.593   0.964 -0.1684  0.9761 -1.2578
45298SOL     OW47872   9.233   9.765   7.802 -0.3524 -0.1750  0.2051
45298SOL    HW147873   9.180   9.752   7.723  1.3634  0.5929 -1.1551
45298SOL    HW247874   9.261   9.677   7.827 -0.1417 -0.3632 -0.6372
45299SOL     OW47875  14.039   4.524  14.036 -0.3465  0.1790 -0.4085
45299SOL    HW147876  14.084   4.580  14.099  0.2767 -1.4215  0.6382
45299SOL    HW247877  13.955   4.504  14.078 -2.2028  3.1077 -2.3224
45300SOL     OW47878   2.331   2.915   5.423 -0.3084  0.0114  0.2274
45300SOL    HW147879   2.275   2.879   5.491 -0.4491 -1.0971 -0.4443
45300SOL    HW247880   2.417   2.926   5.464 -0.8843  1.2972  1.1358
45301SOL     OW47881  10.066   7.341   2.390  0.6882  0.2284  0.1223
45301SOL    HW147882  10.035   7.291   2.466  1.5690  1.3990  1.3008
45301SOL    HW247883  10.161   7.341   2.398  0.7462  1.2756 -0.3842
45302SOL     OW47884   4.767  13.594   5.378 -0.0411 -0.0841  0.1774
45302SOL    HW147885   4.765  13.669   5.319 -0.5024  0.2570  0.6109
45302SOL    HW247886   4.792  13.631   5.463  1.9255 -0.7617 -0.0559
45303SOL     OW47887  10.963   5.848   2.554 -0.1276  0.2948  0.5595
45303SOL    HW147888  10.882   5.828   2.600  1.4999 -0.2860  3.4192
45303SOL    HW247889  10.987   5.766   2.511 -0.1609 -0.0578  1.2030
45304SOL     OW47890  10.070   6.709   5.099  0.4196 -0.2778 -0.3481
45304SOL    HW147891  10.120   6.630   5.118  0.4998 -0.6477 -1.9652
45304SOL    HW247892  10.135   6.779   5.103  0.6598 -0.4938 -0.4453
45305SOL     OW47893  11.311   9.827   4.148  0.2488 -0.4198  0.2908
45305SOL    HW147894  11.387   9.881   4.172  0.2599 -0.5088  0.4594
45305SOL    HW247895  11.240   9.890   4.138  0.5252 -0.2442 -0.6659
45306SOL     OW47896   6.724  13.193  13.691  0.5422 -0.1017 -0.0253
45306SOL    HW147897   6.714  13.189  13.787  0.8507 -0.3952 -0.0030
45306SOL    HW247898   6.663  13.127  13.658  1.4046 -0.9615  0.0440
45307SOL     OW47899   2.865   6.539  11.617  0.3902  0.4017  0.2730
45307SOL    HW147900   2.860   6.634  11.615 -0.4882  0.3628  0.4710
45307SOL    HW247901   2.958   6.520  11.605  0.6212  1.2867  0.6028
45308SOL     OW47902   5.533  11.910   7.664  0.1691 -0.2121  0.2228
45308SOL    HW147903   5.542  11.922   7.758 -1.3411  0.8859  0.2576
45308SOL    HW247904   5.513  11.997   7.630 -1.2299 -0.9065 -0.8444
45309SOL     OW47905   4.123   2.886  11.704 -0.2158  0.4002  0.6315
45309SOL    HW147906   4.039   2.840  11.710 -0.7324  0.8791 -1.9031
45309SOL    HW247907   4.100   2.973  11.669  1.5058 -0.4118 -2.9792
45310SOL     OW47908   1.946   5.476   7.078 -0.3047 -0.2894  0.1150
45310SOL    HW147909   2.032   5.508   7.051 -0.8502  0.2898 -1.0314
45310SOL    HW247910   1.924   5.410   7.012 -0.5309 -0.7991  0.6928
45311SOL     OW47911   0.524  10.924  12.852  0.0246  0.1139 -0.0842
45311SOL    HW147912   0.491  10.953  12.767 -0.4119  3.2605  1.0353
45311SOL    HW247913   0.449  10.881  12.893 -0.5848  0.9899 -0.2575
45312SOL     OW47914  10.727   9.700   7.031  0.0392  0.1786  0.6316
45312SOL    HW147915  10.736   9.739   6.944 -0.4696 -0.4206  0.3027
45312SOL    HW247916  10.701   9.773   7.087 -1.1916  0.2926 -0.0361
45313SOL     OW47917   2.268   3.749   6.857 -0.3532  0.3121  0.0036
45313SOL    HW147918   2.248   3.798   6.778  1.7730 -1.5417 -1.8126
45313SOL    HW247919   2.326   3.806   6.907 -0.4251  0.8712 -0.5417
45314SOL     OW47920   9.703   4.870   3.915  0.5038 -0.0924 -0.2374
45314SOL    HW147921   9.729   4.954   3.879  0.1627  0.0452 -0.1636
45314SOL    HW247922   9.659   4.825   3.843 -1.3630  0.7053  0.3537
45315SOL     OW47923   1.625  11.841  11.335 -0.5420  0.4774 -0.6899
45315SOL    HW147924   1.641  11.750  11.309  0.5612  0.0446  1.3079
45315SOL    HW247925   1.712  11.876  11.355 -1.0047  1.8494 -0.9685
45316SOL     OW47926   7.189   1.097   4.844  0.1063 -0.1224  0.1657
45316SOL    HW147927   7.099   1.067   4.854  0.0827 -0.3945 -0.8193
45316SOL    HW247928   7.187   1.188   4.875 -0.3793 -0.3052  0.6835
45317SOL     OW47929   5.523   1.767  13.423 -0.5931 -0.2923  0.3223
45317SOL    HW147930   5.527   1.808  13.337  0.5220  0.1165  0.5490
45317SOL    HW247931   5.455   1.701  13.415 -1.5894  0.7804 -0.4114
45318SOL     OW47932   8.827  12.304   5.180  0.4943  0.1560  0.1759
45318SOL    HW147933   8.773  12.339   5.251  1.3870  2.8013 -0.3297
45318SOL    HW247934   8.764  12.267   5.118 -0.4243 -0.4199  1.4103
45319SOL     OW47935   9.312   7.197  13.702 -0.1455  0.0954 -0.3048
45319SOL    HW147936   9.302   7.203  13.797 -0.8021  1.6636 -0.4498
45319SOL    HW247937   9.402   7.166  13.690 -0.2659 -0.7775  0.8205
45320SOL     OW47938   9.780  13.246   7.776 -0.6573 -0.3427 -0.2134
45320SOL    HW147939   9.745  13.262   7.864 -0.0166 -2.0800  0.4087
45320SOL    HW247940   9.838  13.171   7.787  1.3947  0.9395 -1.6683
45321SOL     OW47941   1.541   3.936  10.642 -0.2419  0.7990  0.0811
45321SOL    HW147942   1.608   3.953  10.576  0.6322  1.1040  1.0256
45321SOL    HW247943   1.497   4.021  10.653 -0.2419  0.8038  0.0441
45322SOL     OW47944   8.204  10.916   8.458 -0.2334 -0.0265  0.4865
45322SOL    HW147945   8.141  10.936   8.388  0.9607 -0.8195 -0.8650
45322SOL    HW247946   8.182  10.978   8.528 -0.4749  1.8922 -1.1789
45323SOL     OW47947   8.106  13.359   4.850 -0.3789  0.4891  0.4816
45323SOL    HW147948   8.166  13.411   4.797  2.3819 -1.1077  1.8183
45323SOL    HW247949   8.129  13.268   4.830 -2.2355 -0.1834  1.2223
45324SOL     OW47950   3.892   0.632  10.579  0.0639  0.0681 -0.4439
45324SOL    HW147951   3.984   0.624  10.553  0.1108 -0.3609 -0.1511
45324SOL    HW247952   3.858   0.543  10.577 -1.1246  0.4915 -3.2531
45325SOL     OW47953   1.247  13.529  12.311  0.7032  0.1481 -0.5325
45325SOL    HW147954   1.338  13.499  12.315  0.3150 -0.9783  0.7109
45325SOL    HW247955   1.248  13.602  12.249  2.6180  0.7428  0.1234
45326SOL     OW47956  10.236   7.344  11.189 -0.2448 -0.7031  0.0883
45326SOL    HW147957  10.278   7.300  11.263 -1.9201 -2.3370  0.1345
45326SOL    HW247958  10.307   7.393  11.147  1.2645 -1.7545  1.2937
45327SOL     OW47959   7.682   9.082   1.487 -0.0840 -0.0155  0.1019
45327SOL    HW147960   7.589   9.080   1.513 -0.6305  0.3411 -1.6844
45327SOL    HW247961   7.722   9.146   1.546 -1.0795  0.1763  0.5962
45328SOL     OW47962   1.278   5.387   4.109  0.0149  0.1411  0.4241
45328SOL    HW147963   1.300   5.294   4.101  1.3500  0.5210 -0.7639
45328SOL    HW247964   1.265   5.400   4.203  0.2605 -1.1567  0.6623
45329SOL     OW47965   6.975   9.679   4.445 -0.2565  0.1417  0.2739
45329SOL    HW147966   7.057   9.662   4.399  0.3312 -0.2472  1.4390
45329SOL    HW247967   6.942   9.592   4.468 -1.4363  0.2480 -0.9000
45330SOL     OW47968   4.718   0.273   5.186  0.2110  0.1153 -0.1747
45330SOL    HW147969   4.772   0.324   5.126 -0.9064  1.6494  0.0646
45330SOL    HW247970   4.724   0.319   5.269 -0.5903 -0.3048  0.1326
45331SOL     OW47971   3.649   0.420   2.505  0.0538  0.2375  0.5058
45331SOL    HW147972   3.715   0.353   2.520  0.1956 -0.0746 -1.3068
45331SOL    HW247973   3.678   0.495   2.557  2.7318  0.6531 -1.3819
45332SOL     OW47974   2.526   2.659   5.516  0.0981  0.1470  0.1962
45332SOL    HW147975   2.444   2.614   5.498 -0.6020  0.2191  2.7994
45332SOL    HW247976   2.594   2.601   5.482 -0.9659 -0.6265 -0.6547
45333SOL     OW47977   0.510   8.759   7.170  0.0708 -0.4710  0.4654
45333SOL    HW147978   0.566   8.755   7.247  0.9815  2.1171  0.0456
45333SOL    HW247979   0.571   8.763   7.096 -0.5931  1.8580 -0.0368
45334SOL     OW47980   3.095  12.717   9.907 -0.4335 -0.1879  0.3081
45334SOL    HW147981   3.131  12.658   9.974 -0.0585  1.0423  1.2276
45334SOL    HW247982   3.152  12.703   9.831 -0.6079 -1.2934  0.3523
45335SOL     OW47983   2.253  12.334  11.408 -0.1851  0.4459  0.1816
45335SOL    HW147984   2.235  12.268  11.341  0.5304  0.0785  0.3463
45335SOL    HW247985   2.166  12.364  11.435 -0.6286 -1.6793  1.3609
45336SOL     OW47986   4.119   7.861  12.714  0.0455 -0.2798  0.3184
45336SOL    HW147987   4.039   7.904  12.684 -0.7392 -1.1879  1.0289
45336SOL    HW247988   4.173   7.854  12.635 -1.7415 -2.1278 -0.8581
45337SOL     OW47989  13.658  12.013   4.080 -0.2877 -0.0985  0.9726
45337SOL    HW147990  13.635  12.106   4.082 -2.3600 -0.3081 -2.6360
45337SOL    HW247991  13.728  12.007   4.014  0.4852 -1.0264  1.8493
45338SOL     OW47992   2.871  13.304   8.311  0.1158  0.8493  0.1434
45338SOL    HW147993   2.902  13.395   8.306  0.6363  0.6178 -1.3218
45338SOL    HW247994   2.951  13.252   8.322  0.0650  0.4277 -1.2547
45339SOL     OW47995   9.995   5.599  10.022  0.6571  0.5140  0.1725
45339SOL    HW147996   9.968   5.662   9.955  0.9672  0.7399  0.2559
45339SOL    HW247997  10.079   5.632  10.052  0.1827  0.8357  1.1992
45340SOL     OW47998   8.401   0.741  10.386  0.0273 -0.0329  0.0709
45340SOL    HW147999   8.357   0.804  10.329 -1.2226 -0.5341  0.4519
45340SOL    HW248000   8.481   0.718  10.339 -0.4752  0.3406 -1.0048
45341SOL     OW48001  10.304   1.931  10.990  0.1623  0.1538 -0.6587
45341SOL    HW148002  10.305   1.862  10.924  1.0835  0.5438 -1.0679
45341SOL    HW248003  10.326   1.886  11.072 -2.0126 -0.5184 -0.3879
45342SOL     OW48004  10.958   0.777  12.146 -0.4614  0.2455 -0.3910
45342SOL    HW148005  10.886   0.719  12.171  0.6417 -0.8896  0.2514
45342SOL    HW248006  11.006   0.728  12.079  1.4185 -0.3441  1.2904
45343SOL     OW48007   0.370   2.939   9.311 -0.4878 -0.0730  0.8206
45343SOL    HW148008   0.366   2.846   9.290 -0.1570 -0.5392  2.7222
45343SOL    HW248009   0.464   2.959   9.315 -0.5571  0.3213  0.5967
45344SOL     OW48010   2.812   0.255   3.921 -0.2958  0.2728  0.1379
45344SOL    HW148011   2.751   0.306   3.974 -0.4226  0.4147 -0.1425
45344SOL    HW248012   2.854   0.320   3.863 -1.2840 -0.0900 -1.0143
45345SOL     OW48013   1.058   2.414  10.996  0.0273  0.5751  0.4009
45345SOL    HW148014   1.143   2.455  10.981  0.9704 -1.4804 -0.1988
45345SOL    HW248015   1.059   2.389  11.088  0.9129 -1.1772 -0.0554
45346SOL     OW48016   5.179   1.715   8.186  0.3185 -0.4295  0.2264
45346SOL    HW148017   5.177   1.783   8.253 -0.1243  0.3159 -0.5206
45346SOL    HW248018   5.222   1.641   8.228  1.0284  0.3882  0.9871
45347SOL     OW48019   2.436   1.364  11.903  0.1670  0.7081 -0.2340
45347SOL    HW148020   2.436   1.269  11.913  1.6013  0.6782 -0.3301
45347SOL    HW248021   2.453   1.398  11.991 -0.8276  0.9036 -0.1079
45348SOL     OW48022   8.319  13.514   4.357  0.0170  0.2016 -0.0366
45348SOL    HW148023   8.318  13.538   4.265 -0.0854  2.7802  0.5565
45348SOL    HW248024   8.412  13.507   4.379  0.0445 -0.2374 -0.2810
45349SOL     OW48025   7.815   4.344   3.914 -0.6273 -0.3287 -0.3441
45349SOL    HW148026   7.736   4.366   3.963 -1.2287 -0.7996 -1.0780
45349SOL    HW248027   7.842   4.427   3.872  0.9308  0.5387  2.1313
45350SOL     OW48028   7.478   1.139   5.583 -0.1300  0.1444  0.0863
45350SOL    HW148029   7.486   1.232   5.602 -0.4923  0.4073 -1.0050
45350SOL    HW248030   7.480   1.133   5.488  0.5241 -1.0257  0.1439
45351SOL     OW48031   8.559  10.183   6.644 -1.0585  0.3264 -0.2559
45351SOL    HW148032   8.496  10.172   6.572 -0.3315  1.7032 -1.1338
45351SOL    HW248033   8.573  10.094   6.676 -1.2569 -0.3622 -1.9480
45352SOL     OW48034  11.137   1.565   0.883 -0.1646 -0.0791 -0.3789
45352SOL    HW148035  11.149   1.543   0.791  0.4962  1.4565 -0.6891
45352SOL    HW248036  11.072   1.635   0.883  0.2943  0.3614  0.2508
45353SOL     OW48037   3.009   4.005   7.044  0.3899 -0.4252 -0.5296
45353SOL    HW148038   2.965   4.090   7.038  0.9071 -0.1029  0.2147
45353SOL    HW248039   3.016   3.976   6.953 -1.1802 -0.3986 -0.6871
45354SOL     OW48040   8.145   5.451   5.750  0.5426 -0.1889  0.3753
45354SOL    HW148041   8.158   5.545   5.760  0.6638  0.0814 -1.8314
45354SOL    HW248042   8.230   5.413   5.772  0.6264  0.2419  0.8224
45355SOL     OW48043  12.929   9.996   2.142  0.4195  0.6751  0.4618
45355SOL    HW148044  12.921  10.069   2.082 -1.9482 -0.9890 -1.4876
45355SOL    HW248045  12.907  10.032   2.228 -1.0750  2.1914 -0.5084
45356SOL     OW48046   9.344   0.684   3.108 -0.7059 -0.4157  0.2535
45356SOL    HW148047   9.326   0.670   3.201  0.0722 -0.6696  0.3762
45356SOL    HW248048   9.387   0.603   3.080 -1.3780 -0.5389 -0.4555
45357SOL     OW48049   3.039   8.696   2.779 -0.2000 -0.5572  0.2424
45357SOL    HW148050   2.977   8.766   2.798 -1.0265 -1.5295  1.2017
45357SOL    HW248051   3.026   8.632   2.849  1.1322 -1.2851 -0.1401
45358SOL     OW48052   9.628   7.960   0.727  0.1401 -0.3092 -1.1581
45358SOL    HW148053   9.632   7.866   0.707 -1.0050 -1.0658  1.7520
45358SOL    HW248054   9.551   7.970   0.782  1.6130  1.9130  0.7059
45359SOL     OW48055   2.747   6.817   1.048  0.1317 -0.4397  0.0733
45359SOL    HW148056   2.706   6.739   1.011  0.2942 -0.3468 -0.3058
45359SOL    HW248057   2.824   6.784   1.095 -0.2043 -0.5820  0.5315
45360SOL     OW48058   5.269   2.801  10.392  0.0109 -0.1811  0.4951
45360SOL    HW148059   5.189   2.756  10.417  0.5964 -1.6784 -0.2247
45360SOL    HW248060   5.273   2.791  10.297  0.6313  0.6303  0.4208
45361SOL     OW48061   3.502   1.115  11.861 -0.1883 -0.4452 -0.2427
45361SOL    HW148062   3.497   1.029  11.820  1.1376 -0.1989 -1.0081
45361SOL    HW248063   3.412   1.147  11.862 -0.5963 -1.5493 -0.5921
45362SOL     OW48064  11.757   9.786   4.343  0.4404 -0.6040  0.0993
45362SOL    HW148065  11.796   9.717   4.398  1.3926 -0.3223 -0.2013
45362SOL    HW248066  11.769   9.755   4.254  1.2572  0.1244 -0.0616
45363SOL     OW48067  13.172   7.497   5.358 -0.3057 -0.1735 -0.2926
45363SOL    HW148068  13.175   7.539   5.272 -0.2547 -0.5252 -0.4652
45363SOL    HW248069  13.215   7.559   5.417 -1.4680  0.6561 -0.2696
45364SOL     OW48070   5.655   0.860  10.580  0.3105  0.1803  0.1195
45364SOL    HW148071   5.691   0.780  10.541  0.2573  0.1424  0.1485
45364SOL    HW248072   5.656   0.924  10.508  0.0211  0.0508 -0.0005
45365SOL     OW48073  12.560   3.995   6.183 -0.1550 -0.2702 -0.6866
45365SOL    HW148074  12.558   3.922   6.122 -0.5970  1.1313 -2.4322
45365SOL    HW248075  12.646   3.991   6.223 -0.4698 -2.2170 -0.1028
45366SOL     OW48076   4.581   6.769   1.924 -0.1251  0.0655 -0.6576
45366SOL    HW148077   4.603   6.782   1.832 -0.8308 -1.4423 -1.0676
45366SOL    HW248078   4.589   6.675   1.938 -0.1934  0.2537  0.7887
45367SOL     OW48079   8.125   4.416  10.456  0.2768  0.1188  0.0408
45367SOL    HW148080   8.121   4.343  10.394 -0.5861 -0.1492  0.3972
45367SOL    HW248081   8.176   4.382  10.530 -0.0567 -0.1028  0.1715
45368SOL     OW48082   3.293   4.921   4.003  0.0134  0.2651 -0.2030
45368SOL    HW148083   3.271   4.980   3.931  1.8713 -0.6983 -1.6681
45368SOL    HW248084   3.330   4.844   3.960  1.7882 -0.1066  1.7973
45369SOL     OW48085   6.816   2.669   0.163  0.3567 -0.2066 -0.0999
45369SOL    HW148086   6.774   2.750   0.191  0.1002 -0.4277  0.1576
45369SOL    HW248087   6.745   2.616   0.127 -0.2007 -1.7699  2.9450
45370SOL     OW48088   3.717  12.887   7.184 -0.1500 -0.6114 -0.1070
45370SOL    HW148089   3.677  12.835   7.253 -2.6141  0.3566 -0.7155
45370SOL    HW248090   3.755  12.822   7.124 -0.4382 -1.5567  0.7045
45371SOL     OW48091   8.369   6.168   7.947 -0.3691  0.2351  0.3886
45371SOL    HW148092   8.401   6.162   8.037  0.6362  0.8623  0.0864
45371SOL    HW248093   8.275   6.150   7.954  0.1697 -2.7839  1.1374
45372SOL     OW48094   7.282   8.881   1.956 -0.3773  0.3601 -1.1591
45372SOL    HW148095   7.343   8.811   1.979 -0.3958  0.3927 -1.0120
45372SOL    HW248096   7.196   8.841   1.959 -0.5463  0.7865  0.5673
45373SOL     OW48097  11.449   2.594   1.753 -0.3769  0.4158 -0.4369
45373SOL    HW148098  11.357   2.585   1.778 -0.3533 -0.9899 -0.7863
45373SOL    HW248099  11.498   2.563   1.829 -0.1580  1.5642 -0.0863
45374SOL     OW48100  11.323   2.774   7.022  0.7989 -0.5921  0.0705
45374SOL    HW148101  11.235   2.764   6.986  0.8130 -0.7894  0.0935
45374SOL    HW248102  11.364   2.840   6.965  0.8822 -1.0337 -0.3828
45375SOL     OW48103   8.004   9.926  11.689  0.2728 -0.0286 -0.1046
45375SOL    HW148104   7.932   9.889  11.638 -0.4298  1.1920 -0.0267
45375SOL    HW248105   7.964   9.956  11.770  1.0867 -0.3942  0.4482
45376SOL     OW48106  10.736   1.877   4.165  0.3177  0.0044 -0.0800
45376SOL    HW148107  10.751   1.887   4.259  0.6782  0.7223 -0.2001
45376SOL    HW248108  10.687   1.955   4.140  2.4960  1.2130 -0.9321
45377SOL     OW48109  12.967   2.886   1.392  0.1289  0.7542 -0.1280
45377SOL    HW148110  13.026   2.831   1.442  0.0070 -0.5575 -1.3592
45377SOL    HW248111  12.888   2.833   1.382 -0.4311  1.6189 -0.3618
45378SOL     OW48112   0.336   4.306   3.229  0.0967  0.1755 -0.0383
45378SOL    HW148113   0.245   4.287   3.253  0.4821 -1.1093  0.4410
45378SOL    HW248114   0.339   4.402   3.225 -0.9890  0.2893  1.0868
45379SOL     OW48115  12.120   1.108   5.823 -0.3649  0.4842 -0.2140
45379SOL    HW148116  12.031   1.144   5.825 -0.9145 -0.8140 -0.4706
45379SOL    HW248117  12.110   1.021   5.785  0.9616  0.1550  0.1458
45380SOL     OW48118   0.504   7.821   4.584 -0.7511  0.3481  0.6112
45380SOL    HW148119   0.486   7.906   4.625 -0.3748  1.4951 -1.4805
45380SOL    HW248120   0.547   7.842   4.501 -0.7965 -1.8873 -0.0547
45381SOL     OW48121   7.886  13.248   7.011 -0.4433 -0.4129 -0.3069
45381SOL    HW148122   7.914  13.298   7.088  1.4965 -0.0546 -1.1939
45381SOL    HW248123   7.865  13.315   6.946 -0.0381 -0.7247 -0.7612
45382SOL     OW48124   9.126   4.352   9.340 -0.7041  0.5505 -0.0640
45382SOL    HW148125   9.140   4.290   9.411 -0.5704  0.3198 -0.2922
45382SOL    HW248126   9.054   4.407   9.371 -0.1570  0.9255  0.5620
45383SOL     OW48127  11.023   3.713   6.378  0.1244 -0.2602  0.0692
45383SOL    HW148128  11.061   3.709   6.465  0.0609  0.5584  0.1394
45383SOL    HW248129  10.930   3.693   6.392 -0.1750  1.2423  0.4025
45384SOL     OW48130   6.145   6.028   5.097 -0.1313  0.1178  0.7974
45384SOL    HW148131   6.093   6.105   5.075 -0.0384  0.4300  1.6506
45384SOL    HW248132   6.084   5.970   5.143 -0.0815 -0.1216  0.5658
45385SOL     OW48133   3.660  13.313   5.693  0.0948  0.0653 -0.0463
45385SOL    HW148134   3.569  13.302   5.721  0.4329  0.3375  1.2409
45385SOL    HW248135   3.692  13.386   5.746  1.1417 -0.2099 -0.2819
45386SOL     OW48136   5.449   4.961  13.448 -0.1775  0.0439  0.6527
45386SOL    HW148137   5.378   4.899  13.433  0.3717 -0.5336  0.4254
45386SOL    HW248138   5.524   4.924  13.401  0.5400  0.1481  1.6932
45387SOL     OW48139  12.018   2.162   3.044  0.1848  0.2322 -0.2002
45387SOL    HW148140  12.005   2.080   3.091  1.5434  0.6759  1.0459
45387SOL    HW248141  11.936   2.177   2.998 -1.0297 -0.5465  1.6001
45388SOL     OW48142   2.576  13.725  12.353  0.0412  0.3263  0.5078
45388SOL    HW148143   2.492  13.715  12.397 -1.1855 -2.1757 -2.1031
45388SOL    HW248144   2.624  13.644  12.373  0.4825  0.2802 -0.6482
45389SOL     OW48145   7.691  10.989   3.675  0.0662  0.0572  0.5271
45389SOL    HW148146   7.778  11.004   3.712 -0.1418  0.5810  0.8117
45389SOL    HW248147   7.655  10.917   3.726 -0.2149  0.7699  1.3513
45390SOL     OW48148  11.035   7.755   4.052  0.9775 -0.2456  0.2068
45390SOL    HW148149  11.114   7.726   4.099 -0.3799 -0.1150  2.7689
45390SOL    HW248150  11.001   7.826   4.106 -0.7840 -0.1596 -0.9573
45391SOL     OW48151   0.070   5.383  11.046  0.8604  0.1698  0.1114
45391SOL    HW148152   0.105   5.301  11.011  1.8510  0.7410 -0.2939
45391SOL    HW248153   0.148   5.435  11.066  0.2672  0.5791  1.4316
45392SOL     OW48154   4.770   7.742   6.818  0.4124 -0.6971 -0.0193
45392SOL    HW148155   4.682   7.719   6.846  0.1165 -2.0113 -1.8974
45392SOL    HW248156   4.794   7.675   6.754  2.2602  0.3774 -0.5385
45393SOL     OW48157   3.344  11.134  11.762  0.3870  0.4890  0.3044
45393SOL    HW148158   3.345  11.218  11.807  0.4523  0.4175  0.4391
45393SOL    HW248159   3.436  11.119  11.738  0.2437  0.8681 -0.4994
45394SOL     OW48160  12.628   2.580  13.764  0.0491  0.6287 -0.4927
45394SOL    HW148161  12.692   2.512  13.743 -0.2031  0.5039 -0.8641
45394SOL    HW248162  12.645   2.601  13.856  0.2114  0.1518 -0.4104
45395SOL     OW48163  10.236   2.614   7.255  0.0012 -0.0779 -0.0005
45395SOL    HW148164  10.295   2.647   7.323  1.7550 -0.3574 -1.3154
45395SOL    HW248165  10.289   2.554   7.204 -1.0394  0.6095 -2.0231
45396SOL     OW48166  13.858   0.025   5.351 -0.0006  0.7053 -0.0875
45396SOL    HW148167  13.947   0.052   5.329 -0.2121  1.4386 -0.0772
45396SOL    HW248168  13.846   0.051   5.442 -0.9444  2.6539 -0.6997
45397SOL     OW48169  11.583   3.470  13.145 -0.8741  0.2868 -0.1763
45397SOL    HW148170  11.498   3.473  13.188 -0.8639  1.1961 -0.2038
45397SOL    HW248171  11.625   3.391  13.179 -1.6831 -0.1061 -0.0837
45398SOL     OW48172   0.498   3.192   6.702 -0.0009  0.0535  0.0995
45398SOL    HW148173   0.516   3.211   6.610 -0.6593  0.4606  0.0476
45398SOL    HW248174   0.402   3.189   6.708  0.0428 -1.4378  0.4819
45399SOL     OW48175   5.063  12.882   3.109  0.2959  0.5937  0.2401
45399SOL    HW148176   5.049  12.936   3.032  1.1386 -0.4336 -0.6662
45399SOL    HW248177   5.127  12.930   3.162 -0.2517  1.2793  0.2853
45400SOL     OW48178   2.162   3.276  12.075  0.1144 -0.6567  0.2578
45400SOL    HW148179   2.104   3.221  12.128  0.6209 -0.3631  1.1354
45400SOL    HW248180   2.174   3.226  11.994 -0.6407 -1.1356  0.4296
45401SOL     OW48181   8.887   6.956   3.320  0.1771 -0.2376 -0.1571
45401SOL    HW148182   8.805   6.944   3.271 -0.0753  1.8765 -0.3516
45401SOL    HW248183   8.952   6.975   3.253  0.5434 -0.5406  0.1081
45402SOL     OW48184  10.065   0.593  12.886 -0.3030  0.0672  0.0815
45402SOL    HW148185  10.101   0.624  12.968 -1.7905 -1.0831  1.2310
45402SOL    HW248186  10.130   0.530  12.853  1.7816  2.7387 -1.2818
45403SOL     OW48187   2.758  10.532   6.677  0.2109  0.0355  0.1680
45403SOL    HW148188   2.780  10.488   6.595  1.1120 -0.0349  0.4355
45403SOL    HW248189   2.693  10.474   6.718  0.3028 -0.3017 -0.1548
45404SOL     OW48190   5.145   3.622   3.235  0.0712  0.5600  0.2088
45404SOL    HW148191   5.091   3.543   3.229  0.7424  0.1199 -0.1653
45404SOL    HW248192   5.093   3.682   3.287 -0.0214 -0.4922  1.3733
45405SOL     OW48193   5.371  13.545   3.000  0.6239  0.1145 -0.0436
45405SOL    HW148194   5.277  13.533   3.003  0.7268 -0.7548 -0.1144
45405SOL    HW248195   5.398  13.506   2.916  1.2758 -1.3711  0.8221
45406SOL     OW48196   4.985   2.938   2.481 -0.3047 -0.4335 -0.1881
45406SOL    HW148197   4.935   2.958   2.402 -1.1725 -0.1232  0.4287
45406SOL    HW248198   4.935   2.870   2.526  0.9304 -1.6905 -0.6011
45407SOL     OW48199  11.542  13.737   8.061  0.1453 -0.2625  0.0659
45407SOL    HW148200  11.538  13.806   8.126 -0.5726 -0.4649  0.2474
45407SOL    HW248201  11.500  13.774   7.983 -3.2291 -1.4737  1.1123
45408SOL     OW48202   4.421   4.127  12.193 -0.2771 -0.3444 -0.5641
45408SOL    HW148203   4.501   4.088  12.229 -1.0287 -0.8085  0.6591
45408SOL    HW248204   4.388   4.061  12.132 -0.5494 -0.8384  0.1058
45409SOL     OW48205   5.026   0.314   4.175 -0.1847 -0.4608 -0.4295
45409SOL    HW148206   5.043   0.227   4.141 -0.4834 -0.0882 -1.5927
45409SOL    HW248207   5.041   0.307   4.269 -0.0963 -1.7297 -0.5233
45410SOL     OW48208   5.681   3.729   8.851 -0.2881 -0.1205  0.3075
45410SOL    HW148209   5.713   3.705   8.938 -0.9903  1.5745  1.0669
45410SOL    HW248210   5.586   3.733   8.861 -0.3701  0.1544 -0.5362
45411SOL     OW48211   1.753  10.177  11.935 -0.5085 -0.2542 -0.1964
45411SOL    HW148212   1.771  10.247  11.997 -0.7784  0.0597 -0.4684
45411SOL    HW248213   1.764  10.096  11.986  1.4694 -0.1013 -0.2889
45412SOL     OW48214   1.703  10.821   5.296 -0.5527 -0.2172  0.4565
45412SOL    HW148215   1.736  10.734   5.269  0.8960  0.1487  0.9375
45412SOL    HW248216   1.715  10.822   5.391 -1.6346  0.0981  0.5959
45413SOL     OW48217   3.851   3.306   9.332  0.0945  0.1257  0.2472
45413SOL    HW148218   3.813   3.363   9.399 -0.3083  0.5908 -0.3644
45413SOL    HW248219   3.787   3.235   9.322  0.6785 -0.5349  1.1316
45414SOL     OW48220  12.367  12.574  12.551 -0.3053 -0.5986  0.3386
45414SOL    HW148221  12.335  12.661  12.574 -2.9634 -1.4139  0.0418
45414SOL    HW248222  12.398  12.583  12.460 -1.6897 -0.2086 -0.1146
45415SOL     OW48223   4.182  11.682   7.854 -0.1464  0.0212 -0.2486
45415SOL    HW148224   4.125  11.742   7.901 -0.4376 -0.6871  0.3134
45415SOL    HW248225   4.270  11.720   7.864 -0.0983 -0.4515  1.4524
45416SOL     OW48226   8.035  12.618   7.070 -0.2128 -0.0817 -0.5708
45416SOL    HW148227   7.964  12.667   7.111 -1.1921  0.1579 -2.4169
45416SOL    HW248228   8.053  12.666   6.989 -1.7417 -3.0157 -2.8615
45417SOL     OW48229   9.070   8.351   9.542 -0.1036  0.1243  0.0029
45417SOL    HW148230   8.976   8.336   9.533 -0.1815 -0.9826  2.0199
45417SOL    HW248231   9.076   8.429   9.598  0.2373  1.1219 -1.3629
45418SOL     OW48232   6.359   4.656  13.185 -0.1905 -0.4766 -0.0045
45418SOL    HW148233   6.421   4.639  13.256  1.8642 -0.6558 -1.7663
45418SOL    HW248234   6.316   4.572  13.170 -1.1609 -0.2757  1.4385
45419SOL     OW48235  13.204   5.621  10.201 -0.4842  0.2182 -0.0212
45419SOL    HW148236  13.220   5.646  10.292  0.0666  0.9092 -0.3012
45419SOL    HW248237  13.148   5.690  10.166  0.2224  0.5492 -0.5167
45420SOL     OW48238   8.142  13.318   7.774  0.6279  0.3895  0.0046
45420SOL    HW148239   8.210  13.349   7.834  1.2131 -1.9408  0.6221
45420SOL    HW248240   8.065  13.305   7.829  0.7427 -0.3800 -0.0101
45421SOL     OW48241   7.234   3.883  11.687  0.2292  0.0583 -0.3947
45421SOL    HW148242   7.151   3.911  11.650  1.3877  2.0183 -1.6881
45421SOL    HW248243   7.258   3.805  11.636 -0.8895 -0.6828  0.1695
45422SOL     OW48244   6.020   9.945   5.943  0.2573  0.5725  0.0604
45422SOL    HW148245   6.007  10.029   5.899 -0.0532 -0.8524 -2.7991
45422SOL    HW248246   6.112   9.925   5.930  0.6652  1.0426  1.9516
45423SOL     OW48247   4.288  11.494   5.592 -0.2478 -0.0530 -0.1721
45423SOL    HW148248   4.218  11.550   5.557 -1.8062 -1.9752 -0.3162
45423SOL    HW248249   4.278  11.499   5.687 -0.7667 -0.4995 -0.1963
45424SOL     OW48250  12.241   2.574  13.962  0.3457  0.2502  0.3553
45424SOL    HW148251  12.270   2.489  13.992  1.4217  0.7520  0.7984
45424SOL    HW248252  12.261   2.575  13.868 -1.3912 -0.6547 -0.0641
45425SOL     OW48253   4.814   8.083  10.504  0.3290  0.6668 -0.0482
45425SOL    HW148254   4.830   8.076  10.598 -2.5528  0.0996  0.4771
45425SOL    HW248255   4.760   8.161  10.495  0.1168  0.4007 -1.1679
45426SOL     OW48256   7.929  13.267   1.383  0.2894  0.2444  0.2742
45426SOL    HW148257   7.895  13.356   1.396  0.1039  0.2035  0.0886
45426SOL    HW248258   7.894  13.241   1.298  0.0192 -0.1518  0.5018
45427SOL     OW48259  12.926  13.696   8.143 -0.1499 -0.0138 -0.1026
45427SOL    HW148260  12.932  13.709   8.237  1.0975 -0.9311 -0.0282
45427SOL    HW248261  12.950  13.604   8.130 -2.2616 -0.4688 -1.1475
45428SOL     OW48262   9.715  13.983   8.108 -0.6738  0.4185 -0.0382
45428SOL    HW148263   9.662  14.063   8.104 -0.7069  0.3380 -2.3076
45428SOL    HW248264   9.766  13.983   8.028 -1.0947 -2.1319 -0.4092
45429SOL     OW48265  12.504   9.188   5.504 -0.6298  0.2092 -0.3096
45429SOL    HW148266  12.577   9.186   5.566 -1.4392 -1.9084  0.6652
45429SOL    HW248267  12.544   9.166   5.420  0.0135 -0.0518  0.0535
45430SOL     OW48268   6.467  10.412   3.329  0.4119  0.2278 -0.2610
45430SOL    HW148269   6.442  10.347   3.396 -2.7922 -0.0983 -1.5750
45430SOL    HW248270   6.437  10.495   3.365  0.7232  0.3731 -0.3388
45431SOL     OW48271   2.957   6.129   8.602  0.0253  0.3967 -0.4816
45431SOL    HW148272   3.010   6.177   8.666  0.9840 -2.0317  0.6701
45431SOL    HW248273   3.019   6.071   8.558 -1.6544 -3.4520  1.7457
45432SOL     OW48274   9.983   1.142  13.056 -0.2115  0.1548  0.3648
45432SOL    HW148275  10.057   1.135  12.996  0.6207  0.7373  1.2736
45432SOL    HW248276   9.906   1.148  13.000  0.6216  1.6539 -0.6914
45433SOL     OW48277  10.819   2.679   4.684 -0.0057 -0.3712  0.3844
45433SOL    HW148278  10.909   2.692   4.711  0.4646  2.3288 -2.0338
45433SOL    HW248279  10.818   2.591   4.646  2.0182  0.0536 -0.8036
45434SOL     OW48280  10.080   1.392  13.733 -0.0356 -0.4831  0.7328
45434SOL    HW148281  10.034   1.328  13.787  0.2763 -1.8759 -0.5650
45434SOL    HW248282  10.029   1.472  13.743 -1.3682 -1.3440  1.1983
45435SOL     OW48283  13.675   3.146   6.072  0.0529  0.0013 -0.6750
45435SOL    HW148284  13.768   3.158   6.057  0.4917 -3.4126 -1.3995
45435SOL    HW248285  13.670   3.090   6.150 -1.3832 -0.2355 -0.9138
45436SOL     OW48286  13.627  12.827  11.633 -0.0931 -0.0010  0.1707
45436SOL    HW148287  13.664  12.745  11.600  0.9207  0.1372  0.8754
45436SOL    HW248288  13.605  12.808  11.724  1.8215  0.9549  0.8985
45437SOL     OW48289   4.676   9.756   0.407  0.0434  0.2117  0.6271
45437SOL    HW148290   4.758   9.747   0.358 -1.0066  0.6881 -1.3375
45437SOL    HW248291   4.698   9.814   0.480  1.7503 -0.7368  0.9139
45438SOL     OW48292   3.080   8.224  12.324 -0.3955  0.1553  0.3717
45438SOL    HW148293   3.093   8.196  12.415  1.0151  0.1365  0.1883
45438SOL    HW248294   3.158   8.275  12.303 -0.8305  0.3956 -0.7566
45439SOL     OW48295   6.357  12.071   5.367 -0.0713  0.2477  0.0123
45439SOL    HW148296   6.390  12.014   5.297 -2.7630 -0.4766 -0.8075
45439SOL    HW248297   6.343  12.012   5.441 -0.7355  0.2676 -0.0920
45440SOL     OW48298  11.669   0.054  13.532  0.4974  0.3744 -0.1366
45440SOL    HW148299  11.698   0.076  13.444  0.6603  0.2395 -0.1163
45440SOL    HW248300  11.748   0.024  13.577  0.0858 -1.3428 -0.4993
45441SOL     OW48301   5.653   8.918  13.615  0.2326  0.3421 -0.3818
45441SOL    HW148302   5.676   8.841  13.563  2.2571  1.8009 -1.7789
45441SOL    HW248303   5.574   8.952  13.572 -1.0649 -1.2167  0.6323
45442SOL     OW48304   4.557  10.955  12.198  0.4352  0.4722  0.7464
45442SOL    HW148305   4.569  10.862  12.180  1.9108  0.4801  1.5208
45442SOL    HW248306   4.466  10.963  12.226  0.2814 -0.7363  0.6307
45443SOL     OW48307   9.131   0.206  10.984 -0.3692 -0.0854 -0.1666
45443SOL    HW148308   9.059   0.207  11.047  1.0945 -0.4355  1.6024
45443SOL    HW248309   9.187   0.279  11.011  0.5638 -0.5727 -0.7343
45444SOL     OW48310   4.855   7.057   6.633  0.0999  0.0862  0.2568
45444SOL    HW148311   4.800   6.995   6.585  0.3818  1.1821 -1.6012
45444SOL    HW248312   4.933   7.067   6.577  1.3849 -0.0711  1.9493
45445SOL     OW48313   4.242   5.891   8.830  0.3719 -0.2484 -0.3014
45445SOL    HW148314   4.198   5.934   8.756  0.5550 -1.4934 -1.1605
45445SOL    HW248315   4.335   5.905   8.814  0.4307 -0.8798 -0.5572
45446SOL     OW48316   4.627   2.907   7.912  0.6175 -0.7114  0.3936
45446SOL    HW148317   4.633   2.811   7.910  0.8107 -0.6830 -0.9707
45446SOL    HW248318   4.603   2.931   7.823  0.5888  0.5221  0.7248
45447SOL     OW48319   8.427  13.392   9.647  0.1550  0.7095 -0.3626
45447SOL    HW148320   8.440  13.302   9.674 -0.3002  0.2389 -1.6078
45447SOL    HW248321   8.344  13.418   9.688  1.0451  1.0979  1.2410
45448SOL     OW48322  13.144  13.717   5.317 -0.3035 -0.2770  0.5817
45448SOL    HW148323  13.099  13.799   5.294  1.9400  0.4221 -1.7733
45448SOL    HW248324  13.132  13.709   5.411 -1.4566  2.2287  0.7360
45449SOL     OW48325  12.586   4.703   6.415  0.6610  0.4984  0.3158
45449SOL    HW148326  12.578   4.649   6.336  1.8215  1.1204 -0.2568
45449SOL    HW248327  12.504   4.752   6.419  0.9544  1.1563 -1.0466
45450SOL     OW48328   6.141  11.098   7.535  0.3348  0.3361  0.1199
45450SOL    HW148329   6.196  11.039   7.586 -1.3093 -0.1814  1.3770
45450SOL    HW248330   6.178  11.185   7.552 -0.7089  0.2997  3.0524
45451SOL     OW48331   3.025  12.659  11.801  0.0043 -0.1686 -0.2268
45451SOL    HW148332   3.015  12.640  11.895 -2.2314 -2.1293 -0.7423
45451SOL    HW248333   3.002  12.752  11.793  1.2223  0.3009  1.2582
45452SOL     OW48334  11.526   3.912   3.730 -0.2518 -0.0595  0.1385
45452SOL    HW148335  11.532   3.999   3.690 -1.7922  0.8924  1.8403
45452SOL    HW248336  11.484   3.858   3.663 -0.7197  0.8936 -0.3647
45453SOL     OW48337   3.020   2.488   1.367 -0.4232 -0.6024  0.5119
45453SOL    HW148338   2.934   2.528   1.357 -0.9269 -1.7834 -0.0837
45453SOL    HW248339   3.053   2.479   1.277  0.0089 -0.7954  0.6875
45454SOL     OW48340   2.264  13.594   1.029  0.0194  0.4238  0.4186
45454SOL    HW148341   2.254  13.543   0.949  2.0159  1.2417 -0.4440
45454SOL    HW248342   2.287  13.530   1.096 -0.1661 -0.1091 -0.0221
45455SOL     OW48343   1.780   6.812   5.055 -0.5855  0.0404 -0.1001
45455SOL    HW148344   1.738   6.746   5.000 -1.2751  0.6488 -0.3277
45455SOL    HW248345   1.846   6.851   4.999 -0.9117  0.2790 -0.3250
45456SOL     OW48346   5.973   6.127  10.181  0.1499 -0.1820  0.0822
45456SOL    HW148347   5.926   6.098  10.260 -0.5687  0.4694 -0.0941
45456SOL    HW248348   5.997   6.046  10.136  2.0596 -0.6508  1.7888
45457SOL     OW48349   9.543  10.123   3.557  0.1517 -0.7079  0.0207
45457SOL    HW148350   9.499  10.208   3.562  0.9756 -0.1206 -1.8479
45457SOL    HW248351   9.635  10.143   3.572  0.3587 -1.2704 -0.4588
45458SOL     OW48352  10.242  11.912   6.658  0.0148  0.0956 -0.6233
45458SOL    HW148353  10.233  11.860   6.738 -0.9325  0.8132 -0.2487
45458SOL    HW248354  10.322  11.963   6.672 -0.6861  0.9905  0.3566
45459SOL     OW48355   4.629   0.833  11.783 -0.1985 -0.9327  0.0922
45459SOL    HW148356   4.537   0.817  11.760 -0.5866 -1.0069  1.5845
45459SOL    HW248357   4.624   0.893  11.857  1.0418  0.8329 -1.1772
45460SOL     OW48358   2.796   1.304  13.024  0.5384  0.1419  0.4144
45460SOL    HW148359   2.706   1.277  13.006  0.4927  0.5244  0.0338
45460SOL    HW248360   2.817   1.264  13.108  0.4856 -1.0945 -0.1284
45461SOL     OW48361   9.733   3.710   9.127 -0.0377  0.1327  0.8101
45461SOL    HW148362   9.751   3.795   9.166  1.3001  0.1241  0.2505
45461SOL    HW248363   9.814   3.686   9.082 -1.4173  0.0796 -1.8668
45462SOL     OW48364   8.814   0.089   7.234 -0.2415 -0.0970  0.2332
45462SOL    HW148365   8.763   0.037   7.296 -0.5106  0.1523  0.2208
45462SOL    HW248366   8.771   0.075   7.150  0.3639 -0.7580  0.0216
45463SOL     OW48367  10.867   0.020   2.872 -0.5108 -0.5086 -0.3247
45463SOL    HW148368  10.838  -0.016   2.788 -0.5338  0.7434 -0.8654
45463SOL    HW248369  10.787   0.048   2.916 -0.4757 -0.9243  0.0166
45464SOL     OW48370   0.721   0.728   2.700 -0.2864  0.3611  0.0534
45464SOL    HW148371   0.800   0.725   2.646 -2.1491 -1.6237 -2.8510
45464SOL    HW248372   0.753   0.716   2.790  2.6190 -2.0710 -1.1316
45465SOL     OW48373   4.550   5.580   7.683 -0.1302  0.2277 -0.3952
45465SOL    HW148374   4.629   5.527   7.688  0.6896  1.4756  0.3104
45465SOL    HW248375   4.569   5.646   7.616 -0.6281  0.4470 -0.3282
45466SOL     OW48376   2.404   6.725  12.300 -0.7312  0.0830 -0.5802
45466SOL    HW148377   2.422   6.633  12.314  0.4911  0.3633 -0.2181
45466SOL    HW248378   2.472   6.754  12.240  0.3365  1.2651  1.1140
45467SOL     OW48379  11.085   3.591  10.342 -0.2617  0.0099  0.0083
45467SOL    HW148380  11.057   3.607  10.432  2.7022 -1.3377  1.3251
45467SOL    HW248381  11.082   3.495  10.332  0.9981  0.0115 -0.6904
45468SOL     OW48382   4.727   0.327   1.402  0.2206 -0.7185  0.4914
45468SOL    HW148383   4.768   0.413   1.395 -1.6867  0.1161 -1.6151
45468SOL    HW248384   4.691   0.325   1.490 -1.3511  1.4859 -0.0371
45469SOL     OW48385   7.978  10.659  11.431 -0.6572 -0.3428  0.6930
45469SOL    HW148386   7.972  10.618  11.345  2.6459 -1.3867  0.8050
45469SOL    HW248387   7.946  10.592  11.492 -1.9399 -0.0157  0.4120
45470SOL     OW48388  13.420   0.873   7.732 -0.0994  0.2934  0.6291
45470SOL    HW148389  13.427   0.939   7.662  4.6178 -1.2980 -0.8259
45470SOL    HW248390  13.467   0.912   7.806 -0.1760 -0.1487  0.9131
45471SOL     OW48391  12.244   5.657  13.189  0.5578  0.0469  0.1075
45471SOL    HW148392  12.210   5.698  13.109 -1.7273 -1.1761  0.3541
45471SOL    HW248393  12.281   5.730  13.239  1.6697  0.9071 -1.8236
45472SOL     OW48394  11.459   0.202   7.870 -0.1274 -0.0369 -0.1579
45472SOL    HW148395  11.369   0.218   7.899  0.5078  2.3127  0.7796
45472SOL    HW248396  11.504   0.285   7.886  2.3841 -1.3438  0.0648
45473SOL     OW48397  13.278  13.241   3.915 -0.2225 -0.1944  0.5973
45473SOL    HW148398  13.206  13.194   3.873  0.5922  0.3006 -1.4611
45473SOL    HW248399  13.252  13.332   3.913 -0.1325 -0.1577  1.0902
45474SOL     OW48400   6.076   0.375   6.145  0.4010  0.0291 -0.2942
45474SOL    HW148401   6.006   0.342   6.088  0.5507 -0.5123 -0.1713
45474SOL    HW248402   6.147   0.311   6.136  0.3978 -0.1177  0.5542
45475SOL     OW48403  12.676   2.910   2.097 -0.0377 -0.1294  0.3789
45475SOL    HW148404  12.668   2.978   2.164 -1.5062  1.4129 -1.2745
45475SOL    HW248405  12.673   2.957   2.014  1.5410 -2.0060 -0.8240
45476SOL     OW48406   5.096   9.907  12.037 -0.2424 -0.1761  0.6042
45476SOL    HW148407   5.119   9.949  11.954  0.4026  0.0534  0.8944
45476SOL    HW248408   5.158   9.835  12.046  1.0141  0.9962  1.8329
45477SOL     OW48409   9.161   3.934   0.414 -0.5504  0.2302 -0.0932
45477SOL    HW148410   9.256   3.923   0.409 -0.4199  1.6170 -1.7246
45477SOL    HW248411   9.126   3.848   0.390  0.3492  0.5644 -3.0248
45478SOL     OW48412   1.913   9.676   8.543  0.3329  0.1922  0.2666
45478SOL    HW148413   1.908   9.769   8.520 -1.1498 -0.0132 -0.3406
45478SOL    HW248414   2.006   9.662   8.563  0.9329  1.4105 -1.3717
45479SOL     OW48415   0.565  12.843  11.361 -0.6461 -0.0099  0.2512
45479SOL    HW148416   0.512  12.764  11.363  0.3414 -0.6822  1.4586
45479SOL    HW248417   0.617  12.839  11.442 -0.3457  1.7086  0.1788
45480SOL     OW48418   4.614   2.810   4.448  0.7650  0.0520 -0.1861
45480SOL    HW148419   4.562   2.761   4.384  0.7248  1.3040 -1.1525
45480SOL    HW248420   4.577   2.898   4.446  1.1768  0.2851  1.1287
45481SOL     OW48421   2.624   7.837   0.480 -0.2688 -0.0641 -0.1129
45481SOL    HW148422   2.637   7.762   0.422 -1.5427 -0.7313  0.4222
45481SOL    HW248423   2.647   7.913   0.426  0.4811 -0.7854 -0.8452
45482SOL     OW48424   9.686   7.362   3.262  0.2545 -0.0609 -0.3103
45482SOL    HW148425   9.723   7.309   3.191  0.5341 -0.6210  0.2515
45482SOL    HW248426   9.711   7.317   3.342  0.9503  1.1852  0.2099
45483SOL     OW48427   4.670   1.372   4.806 -0.1034 -0.5073 -0.1513
45483SOL    HW148428   4.754   1.325   4.811 -0.0663 -0.8566 -2.6068
45483SOL    HW248429   4.689   1.449   4.751 -1.0657  0.2589  0.5520
45484SOL     OW48430   2.868  12.549   2.497  0.3433  0.6705 -0.0348
45484SOL    HW148431   2.910  12.475   2.452  2.0761  1.7805 -0.3453
45484SOL    HW248432   2.867  12.619   2.433  1.7844  1.9254  1.2255
45485SOL     OW48433   8.493  11.763   8.118 -0.6884  0.2986 -0.1092
45485SOL    HW148434   8.419  11.820   8.142 -0.5962  0.3854 -0.0339
45485SOL    HW248435   8.461  11.674   8.133 -0.7276  0.3414  0.0583
45486SOL     OW48436  13.744  12.769   7.168 -0.3457 -0.3979 -0.1791
45486SOL    HW148437  13.820  12.713   7.156 -0.5662 -0.5795 -0.7736
45486SOL    HW248438  13.746  12.793   7.261 -2.4351 -4.6116  1.2171
45487SOL     OW48439   5.101  11.415   8.294 -0.0325  0.0170 -0.7779
45487SOL    HW148440   5.018  11.397   8.338  0.6219  0.8703  0.9077
45487SOL    HW248441   5.154  11.336   8.308  0.0257  0.1265 -0.3720
45488SOL     OW48442   4.007   6.687  12.581  0.1004 -0.7709  0.6089
45488SOL    HW148443   4.081   6.675  12.522 -0.5065 -0.9341 -0.1319
45488SOL    HW248444   4.008   6.780  12.603 -0.4325 -0.4288 -0.7061
45489SOL     OW48445  10.109   9.384  11.934 -0.1610  0.3303 -0.2735
45489SOL    HW148446  10.154   9.300  11.934  0.4518  0.6515 -0.1316
45489SOL    HW248447  10.022   9.365  11.970  0.1699 -0.1331  0.3020
45490SOL     OW48448   1.452   4.156   7.850  0.0986 -0.2272  0.0889
45490SOL    HW148449   1.533   4.126   7.808  1.9692  0.9318  2.5594
45490SOL    HW248450   1.426   4.233   7.801  0.1536 -0.9263 -1.0714
45491SOL     OW48451   2.009   3.487   8.788 -0.0142  0.0061 -0.2299
45491SOL    HW148452   1.950   3.416   8.814  0.2744 -0.2991 -0.4065
45491SOL    HW248453   2.092   3.465   8.830  0.1159  0.1638 -0.4059
45492SOL     OW48454  10.176  13.583  13.011  0.1229  0.5819 -0.5285
45492SOL    HW148455  10.097  13.613  12.966  0.5288  0.1013 -1.5982
45492SOL    HW248456  10.145  13.545  13.093 -1.2257 -3.0316 -2.5006
45493SOL     OW48457   1.605   7.136   2.470 -0.0448 -0.4869 -0.5998
45493SOL    HW148458   1.619   7.067   2.405 -2.0360  0.9367 -2.6978
45493SOL    HW248459   1.524   7.112   2.515  1.2808 -1.4253  1.4303
45494SOL     OW48460   3.394   8.606  11.217 -0.6613 -0.2140  0.5326
45494SOL    HW148461   3.312   8.614  11.168 -1.1762 -2.4545  0.9260
45494SOL    HW248462   3.460   8.589  11.149 -0.6899  0.5059  0.3132
45495SOL     OW48463   2.599   2.165  12.410 -0.3538  0.1259  0.4503
45495SOL    HW148464   2.563   2.084  12.374 -1.2394  0.2620  0.9828
45495SOL    HW248465   2.524   2.207  12.452  0.0630  1.2959  0.0465
45496SOL     OW48466   2.650   2.431  12.092 -0.3795  0.4235  0.3449
45496SOL    HW148467   2.648   2.427  12.187 -0.0621  0.7359  0.3643
45496SOL    HW248468   2.560   2.409  12.065 -0.1448 -0.9681  0.6584
45497SOL     OW48469   4.643   3.329  12.843 -0.3765 -0.1932  0.2579
45497SOL    HW148470   4.550   3.304  12.843  0.3585 -3.4202 -0.0956
45497SOL    HW248471   4.686   3.258  12.795  2.2948  1.2732  0.3064
45498SOL     OW48472  12.900   7.167  10.037 -0.0967 -0.1956 -0.6150
45498SOL    HW148473  12.806   7.149  10.039  0.0689 -1.1985 -1.0948
45498SOL    HW248474  12.924   7.161   9.945 -0.0863  3.2313 -0.9569
45499SOL     OW48475  12.936   8.284  11.902 -0.1747  0.2880  0.1747
45499SOL    HW148476  12.974   8.343  11.967  2.6504  0.1123 -1.1591
45499SOL    HW248477  12.969   8.198  11.925  0.1531  0.0948 -0.9625
45500SOL     OW48478   9.437  12.871  10.950 -0.0921  0.0328 -0.2737
45500SOL    HW148479   9.503  12.882  10.881 -0.8179  1.3816 -0.8044
45500SOL    HW248480   9.481  12.819  11.017  1.0486 -0.2656 -1.2080
45501SOL     OW48481   4.787   3.986   5.856  0.0776 -0.6846  0.4734
45501SOL    HW148482   4.755   4.051   5.794  1.2944 -0.2900  0.2155
45501SOL    HW248483   4.728   3.992   5.931  0.1786  0.7438  0.4678
45502SOL     OW48484   6.381  12.103   1.092 -0.0786  0.1003 -0.1056
45502SOL    HW148485   6.440  12.167   1.051 -0.4118  0.0693 -0.6522
45502SOL    HW248486   6.439  12.034   1.125  0.1520 -0.3683 -1.4205
45503SOL     OW48487   1.639  13.541  10.384  0.2727 -0.6845  0.5564
45503SOL    HW148488   1.660  13.458  10.342 -0.1838 -0.1261 -0.8556
45503SOL    HW248489   1.699  13.604  10.343 -1.3874  0.2038 -0.6105
45504SOL     OW48490  12.482   0.936  13.065  0.3457  0.3465  0.0711
45504SOL    HW148491  12.415   0.878  13.028 -0.2807  2.0377 -1.6126
45504SOL    HW248492  12.438   1.020  13.074  1.5033  0.8333  1.5624
45505SOL     OW48493   5.790  11.573   0.477 -0.1862 -0.6104 -0.0083
45505SOL    HW148494   5.699  11.572   0.509  0.4604 -0.4018  1.9743
45505SOL    HW248495   5.807  11.666   0.459  0.1631 -0.3711  1.3892
45506SOL     OW48496  10.258   2.579   4.481 -0.1954 -0.5783  0.0701
45506SOL    HW148497  10.264   2.499   4.533  0.7187  0.3887  1.4948
45506SOL    HW248498  10.298   2.647   4.535  0.4212  0.5591 -1.7296
45507SOL     OW48499   2.547   8.250   0.055 -0.3722 -0.2581  0.3133
45507SOL    HW148500   2.592   8.325   0.094  0.7379 -0.7297 -0.0136
45507SOL    HW248501   2.511   8.202   0.129 -3.1010  1.7473  0.4540
45508SOL     OW48502   3.339  12.148  13.702  0.2017 -0.6311 -0.5869
45508SOL    HW148503   3.292  12.065  13.692  0.5303 -0.8209 -0.5642
45508SOL    HW248504   3.284  12.199  13.761  0.1333 -0.9403 -0.3777
45509SOL     OW48505  13.034   1.777   9.780  0.2950 -0.1023  0.2663
45509SOL    HW148506  13.119   1.794   9.739  0.9082  1.9042  2.2232
45509SOL    HW248507  13.055   1.723   9.856 -0.3181 -0.2991  0.2983
45510SOL     OW48508   2.817   5.906  11.397 -0.0804 -0.6319 -0.3397
45510SOL    HW148509   2.770   5.915  11.314  0.0244 -0.8040 -0.4188
45510SOL    HW248510   2.762   5.952  11.461 -1.1151 -2.0583 -0.1443
45511SOL     OW48511   1.991  12.892   8.506 -0.3308 -0.1736  0.3787
45511SOL    HW148512   1.936  12.968   8.487 -1.0612  0.2487  3.5661
45511SOL    HW248513   1.934  12.816   8.491 -0.7821  0.1081  0.6514
45512SOL     OW48514  12.292   0.743   0.179 -0.4713  0.0106 -0.0207
45512SOL    HW148515  12.383   0.749   0.150 -0.2266 -2.7313 -0.0677
45512SOL    HW248516  12.267   0.833   0.200  1.3139  1.2430 -2.7158
45513SOL     OW48517  13.444   2.923  11.901 -0.4086  0.1362 -0.0903
45513SOL    HW148518  13.372   2.876  11.943 -1.6025  1.7649 -0.1833
45513SOL    HW248519  13.403   2.965  11.825  0.6786  0.9731 -0.2372
45514SOL     OW48520   9.504   3.772  11.281  0.2848  0.5673  0.1578
45514SOL    HW148521   9.413   3.748  11.264  0.4503 -1.0337  1.2352
45514SOL    HW248522   9.542   3.786  11.195 -0.8535  0.7412 -0.3329
45515SOL     OW48523   2.471   9.138  11.909 -0.5536 -0.5385 -0.2823
45515SOL    HW148524   2.432   9.225  11.898  0.1222 -0.3798 -1.6397
45515SOL    HW248525   2.447   9.091  11.829 -0.4065 -1.4060  0.1712
45516SOL     OW48526   4.496   6.401  13.624  0.5307 -0.2594 -0.7145
45516SOL    HW148527   4.430   6.447  13.675 -0.1177 -1.2977 -0.5920
45516SOL    HW248528   4.523   6.464  13.557 -3.1339 -0.8855 -3.0462
45517SOL     OW48529   7.513   3.583   6.148 -0.5742  0.7151 -0.4372
45517SOL    HW148530   7.495   3.534   6.068 -0.4600  1.2984 -0.8280
45517SOL    HW248531   7.485   3.673   6.128  1.5398  1.3832 -0.6180
45518SOL     OW48532   5.208   5.723   7.102  0.3777  0.1739 -0.0557
45518SOL    HW148533   5.115   5.747   7.098 -0.1278 -1.6240  0.2082
45518SOL    HW248534   5.239   5.760   7.185 -0.7240 -1.1937  1.0123
45519SOL     OW48535   4.942   8.350   0.819  0.4261  0.1145 -0.8054
45519SOL    HW148536   4.858   8.379   0.784 -0.3501  0.6220  1.3230
45519SOL    HW248537   4.925   8.262   0.852  0.2545  0.7611  0.9671
45520SOL     OW48538   0.128   5.884   7.422  0.0510  0.1114  0.5414
45520SOL    HW148539   0.033   5.898   7.431 -0.2501 -0.8699 -0.7915
45520SOL    HW248540   0.166   5.940   7.490 -1.5327 -0.5040  2.0412
45521SOL     OW48541   6.880   3.357   5.702 -0.1231  0.4860  0.0309
45521SOL    HW148542   6.849   3.280   5.750 -0.9043  1.1007  0.5370
45521SOL    HW248543   6.878   3.330   5.610 -0.0434 -0.2160  0.2288
45522SOL     OW48544   5.423   4.794   3.337 -0.1542 -0.5524  0.7142
45522SOL    HW148545   5.343   4.840   3.313 -0.4152 -0.7438  1.2045
45522SOL    HW248546   5.393   4.710   3.373  0.2091 -0.2677  1.7195
45523SOL     OW48547  13.850   5.470  10.306  0.5750  0.0979 -0.1219
45523SOL    HW148548  13.945   5.458  10.307  0.5687 -0.5700  3.1943
45523SOL    HW248549  13.833   5.537  10.372 -1.2456  0.4169 -0.8613
45524SOL     OW48550   8.760   7.268  13.168 -0.3840 -0.6215 -0.3740
45524SOL    HW148551   8.749   7.358  13.197 -0.6371  0.5955 -3.8428
45524SOL    HW248552   8.672   7.232  13.164 -1.0089  0.8667 -4.0214
45525SOL     OW48553   6.887   2.555   6.171 -0.4266 -0.6716 -0.1852
45525SOL    HW148554   6.975   2.518   6.179  0.0204  0.3557 -0.2194
45525SOL    HW248555   6.889   2.633   6.225 -1.2524 -0.5137 -0.3742
45526SOL     OW48556  12.421   8.768  13.754 -0.1278  0.0245  0.0892
45526SOL    HW148557  12.447   8.676  13.747 -0.2439  0.0871 -1.7493
45526SOL    HW248558  12.395   8.792  13.665  0.7096  2.0837  0.3429
45527SOL     OW48559   1.202   4.375   5.502 -0.0566 -0.0444 -0.1205
45527SOL    HW148560   1.255   4.377   5.582  1.1686  0.8506 -0.9267
45527SOL    HW248561   1.172   4.284   5.496  1.7240 -0.6981  0.1672
45528SOL     OW48562   1.057   6.886  12.546 -0.3283 -0.1961 -0.2879
45528SOL    HW148563   1.131   6.928  12.591 -0.3589  0.7078 -1.0491
45528SOL    HW248564   1.087   6.797  12.528  0.4181  0.0346 -0.2119
45529SOL     OW48565   7.111   4.990  10.957 -0.3141 -0.3862  0.2923
45529SOL    HW148566   7.165   5.063  10.928  0.5636 -1.6665 -1.5344
45529SOL    HW248567   7.172   4.932  11.003 -0.3525 -1.2998 -0.7783
45530SOL     OW48568  13.697   6.196   2.461  0.0242 -0.5410  0.2301
45530SOL    HW148569  13.788   6.224   2.470 -0.6625  2.4327 -0.7521
45530SOL    HW248570  13.667   6.182   2.551  1.6094 -2.4564  0.5341
45531SOL     OW48571  11.229  10.122  11.774 -0.3044  0.0549 -0.3318
45531SOL    HW148572  11.292  10.056  11.744  0.5564  0.3701  0.7227
45531SOL    HW248573  11.144  10.090  11.744  0.3766 -0.1922 -2.1324
45532SOL     OW48574   0.597   9.514   4.461  0.0529 -0.1514 -0.2069
45532SOL    HW148575   0.653   9.436   4.456  0.6940  0.1472  1.5224
45532SOL    HW248576   0.528   9.490   4.523 -1.2028 -0.1585 -1.5463
45533SOL     OW48577  10.505   2.814   0.786  0.1726  0.2690  0.3770
45533SOL    HW148578  10.548   2.890   0.747 -1.4816  0.1073 -1.9955
45533SOL    HW248579  10.569   2.743   0.778  0.4680  0.6292 -0.6439
45534SOL     OW48580  13.071   4.060   9.278  0.3869  0.3014 -0.1365
45534SOL    HW148581  13.000   4.089   9.335  0.4919 -2.0937  1.3456
45534SOL    HW248582  13.032   4.061   9.190 -2.8319 -4.0065  0.8850
45535SOL     OW48583   3.435  13.234   9.778 -0.3578 -0.2915  0.7806
45535SOL    HW148584   3.527  13.255   9.794  0.1971 -0.4437 -1.7689
45535SOL    HW248585   3.429  13.224   9.683 -3.1419  0.2460  0.8248
45536SOL     OW48586   7.308   8.593   6.890  0.0456 -0.4918  0.1238
45536SOL    HW148587   7.258   8.514   6.869 -0.8594 -0.2484  1.2744
45536SOL    HW248588   7.380   8.593   6.827 -0.6326 -1.5787 -0.6870
45537SOL     OW48589  10.753   0.750   1.560  0.1749 -0.1476  0.1807
45537SOL    HW148590  10.741   0.829   1.507  0.0485 -0.2926 -0.0078
45537SOL    HW248591  10.664   0.725   1.585 -0.0850 -1.8471 -2.1104
45538SOL     OW48592   0.604  13.871   4.916 -0.3263 -0.1534 -0.0099
45538SOL    HW148593   0.535  13.812   4.947 -0.0907 -0.5248 -0.1752
45538SOL    HW248594   0.559  13.952   4.893 -0.5124  0.1152  1.2453
45539SOL     OW48595  12.365   8.155   7.028 -0.3800 -0.0277 -0.2668
45539SOL    HW148596  12.419   8.222   6.986 -1.6793  0.0472 -1.9271
45539SOL    HW248597  12.373   8.172   7.121  3.2682 -0.6741 -0.3233
45540SOL     OW48598  11.671   7.316   4.304 -0.1084 -0.3678  0.5179
45540SOL    HW148599  11.604   7.379   4.332 -0.1777 -0.5703  0.8087
45540SOL    HW248600  11.717   7.294   4.385  2.0917  1.8258 -0.0183
45541SOL     OW48601   1.810   3.839   0.157  0.9251  0.5474 -0.0837
45541SOL    HW148602   1.800   3.753   0.196  0.1571 -0.1021 -1.6126
45541SOL    HW248603   1.796   3.901   0.229  0.5622 -0.5900  0.8417
45542SOL     OW48604   3.024   9.110   1.187 -0.1832 -0.1474 -0.0928
45542SOL    HW148605   2.986   9.190   1.222 -0.1351 -0.0315 -0.3045
45542SOL    HW248606   3.090   9.140   1.124  0.0541 -0.3489  0.0582
45543SOL     OW48607   2.672  10.333   0.764 -0.0661 -0.3152  0.9732
45543SOL    HW148608   2.651  10.247   0.726 -0.9559 -0.2277  1.2625
45543SOL    HW248609   2.612  10.393   0.721  1.0203  0.2984  0.2571
45544SOL     OW48610   9.395  13.628   3.099  0.3495  0.5574  0.6064
45544SOL    HW148611   9.359  13.558   3.153 -0.7036  0.2862 -0.4036
45544SOL    HW248612   9.380  13.708   3.149 -2.5370  0.5664 -0.1351
45545SOL     OW48613   2.237   7.553   0.452 -0.1093 -0.1385 -0.3224
45545SOL    HW148614   2.309   7.592   0.500 -0.7297  2.0311 -1.0268
45545SOL    HW248615   2.179   7.518   0.519  0.0364  0.9932  0.4047
45546SOL     OW48616   9.999  11.508   5.622  0.3663 -0.1000 -0.6047
45546SOL    HW148617   9.979  11.595   5.587 -1.1559  0.0837  0.6360
45546SOL    HW248618   9.954  11.448   5.562 -0.5051  0.1104 -0.1827
45547SOL     OW48619   9.079   6.653   0.987  0.5309  0.4887  0.2233
45547SOL    HW148620   9.045   6.586   0.929  0.0168  0.0793  0.9783
45547SOL    HW248621   9.168   6.624   1.008  0.3912  0.1607  0.3658
45548SOL     OW48622   8.996  11.240   8.346 -0.8892  0.3031  0.0240
45548SOL    HW148623   9.073  11.184   8.358  0.3186  1.6743 -1.0230
45548SOL    HW248624   8.923  11.178   8.341  0.2418 -1.1050  0.1612
45549SOL     OW48625   8.483   9.445  10.908 -0.1579  0.5170  0.2492
45549SOL    HW148626   8.504   9.529  10.949  0.0163  0.6672 -0.1393
45549SOL    HW248627   8.471   9.385  10.981  1.3752  0.4755  0.5097
45550SOL     OW48628  12.671   8.823   2.321 -0.0116 -0.2387 -0.0616
45550SOL    HW148629  12.590   8.771   2.323 -0.0200 -0.2095  0.3458
45550SOL    HW248630  12.741   8.758   2.313  0.0641 -0.4079  1.7285
45551SOL     OW48631  10.209   8.073   4.775  0.2504 -0.0054 -0.6427
45551SOL    HW148632  10.296   8.047   4.746  0.0229 -0.8207 -0.6329
45551SOL    HW248633  10.224   8.130   4.851  0.7809  0.2574 -0.9456
45552SOL     OW48634   5.622   3.600   9.306  0.4739 -0.5156 -0.1300
45552SOL    HW148635   5.568   3.521   9.306  0.8130 -0.7694  0.7649
45552SOL    HW248636   5.630   3.623   9.399  1.5446 -0.2493 -0.2741
45553SOL     OW48637   2.658   4.282   5.861  0.1481 -0.6034 -0.1083
45553SOL    HW148638   2.602   4.330   5.921  1.4493 -0.1638  0.8140
45553SOL    HW248639   2.682   4.345   5.793  1.8040  0.1168  1.0677
45554SOL     OW48640   1.470   9.004   5.903  0.2324  0.2124 -0.0202
45554SOL    HW148641   1.395   8.966   5.948  0.6012 -0.6236 -0.0876
45554SOL    HW248642   1.450   8.994   5.810  0.2158  0.4304 -0.0421
45555SOL     OW48643  11.269   4.121   9.494 -0.2415  0.4705  0.2289
45555SOL    HW148644  11.177   4.140   9.514  0.1619  2.8596  0.0306
45555SOL    HW248645  11.313   4.124   9.578 -0.3437 -1.0303  0.3744
45556SOL     OW48646  13.080  13.867  10.785 -0.0182  0.1578 -0.5445
45556SOL    HW148647  13.082  13.882  10.879 -2.5392  0.9765 -0.5478
45556SOL    HW248648  13.136  13.791  10.771  3.0490  1.8794  1.1488
45557SOL     OW48649   2.494  12.569   8.614 -0.1581 -0.0445  0.0128
45557SOL    HW148650   2.569  12.611   8.571  0.2401  0.1448  0.8693
45557SOL    HW248651   2.421  12.583   8.554  0.4014  0.1383 -0.6382
45558SOL     OW48652   7.023  13.849   4.068 -0.1127  0.2461  0.1553
45558SOL    HW148653   6.972  13.784   4.117  0.6213 -0.2685  0.2571
45558SOL    HW248654   6.990  13.844   3.979 -2.2074  1.9301  0.7389
45559SOL     OW48655  13.856   7.752  13.660  0.1871  0.4201  0.0565
45559SOL    HW148656  13.791   7.684  13.641 -0.3956  1.0321 -0.1676
45559SOL    HW248657  13.929   7.704  13.700 -0.1477 -0.3580 -0.2367
45560SOL     OW48658   4.506   7.258  10.730 -0.3565 -0.6627  0.2836
45560SOL    HW148659   4.512   7.301  10.815  0.4209 -3.2705  1.6555
45560SOL    HW248660   4.595   7.227  10.712 -0.1337  1.1759 -2.3062
45561SOL     OW48661   7.913  11.327  11.577  0.0126 -0.1460 -0.3527
45561SOL    HW148662   7.897  11.289  11.663 -0.7824 -0.0459 -0.4498
45561SOL    HW248663   7.931  11.251  11.521  0.3493 -0.2260 -0.1347
45562SOL     OW48664   5.465   9.910   0.140 -0.1576 -1.0298  0.1401
45562SOL    HW148665   5.536   9.851   0.115 -0.6065 -0.8131 -1.7492
45562SOL    HW248666   5.466   9.908   0.236  0.7613 -2.9809  0.1428
45563SOL     OW48667   4.792  13.415   6.772  0.3427 -0.0183  0.0848
45563SOL    HW148668   4.713  13.363   6.787 -0.2660  0.5064 -1.1275
45563SOL    HW248669   4.764  13.483   6.710  1.9116 -0.2418 -0.9268
45564SOL     OW48670  12.010   8.827   6.228  0.3317 -0.1847 -0.0126
45564SOL    HW148671  11.959   8.899   6.265  1.3348  0.9722 -0.7929
45564SOL    HW248672  11.972   8.748   6.266 -0.7753  0.7573  0.8983
45565SOL     OW48673  12.751  10.961   7.470 -0.3742 -0.2570  0.0783
45565SOL    HW148674  12.664  10.983   7.502 -0.1149 -0.1500  0.7364
45565SOL    HW248675  12.791  10.911   7.541 -0.2420 -1.1596 -0.6120
45566SOL     OW48676  12.477   3.114   0.908  0.2322 -0.1096 -0.1691
45566SOL    HW148677  12.518   3.058   0.974 -0.1227 -0.1610  0.0081
45566SOL    HW248678  12.432   3.181   0.958  2.1125  1.4045 -0.3942
45567SOL     OW48679   4.056  12.865   0.580  0.0395  0.4719  0.1182
45567SOL    HW148680   4.064  12.787   0.635 -0.6911  0.7457  0.6228
45567SOL    HW248681   4.147  12.890   0.562  0.3126  0.5767  1.4933
45568SOL     OW48682   4.297   3.069   3.308 -0.2801 -0.0323  0.2354
45568SOL    HW148683   4.236   3.042   3.239 -1.4268 -0.2661  1.2980
45568SOL    HW248684   4.317   3.160   3.288 -0.9518  0.0323 -0.1698
45569SOL     OW48685   1.053   7.953   9.079 -0.2100  0.2284 -0.0335
45569SOL    HW148686   1.099   7.902   9.013  0.0775 -1.5742  1.4842
45569SOL    HW248687   1.105   8.033   9.088  0.0803  0.2354 -1.5150
45570SOL     OW48688   1.524   3.562   2.578  0.3376  0.6166  0.8703
45570SOL    HW148689   1.505   3.521   2.662  1.7570 -1.5516  0.2360
45570SOL    HW248690   1.451   3.535   2.521 -0.4634  1.8282  1.2958
45571SOL     OW48691  13.934  12.523   6.265  0.1367 -0.3781  0.2216
45571SOL    HW148692  13.922  12.566   6.180  0.2330  0.1321  0.4598
45571SOL    HW248693  13.866  12.456   6.268  0.0281 -0.2898 -0.1890
45572SOL     OW48694   3.006   2.025   7.951 -0.7729 -0.0576 -0.2126
45572SOL    HW148695   2.933   2.087   7.942  0.4678  1.4029 -0.5819
45572SOL    HW248696   3.059   2.038   7.873 -0.0005 -0.9718  0.1357
45573SOL     OW48697  12.482   9.619   5.079  0.9502 -0.6153  0.5742
45573SOL    HW148698  12.572   9.646   5.097  0.7005  0.7088 -0.0585
45573SOL    HW248699  12.490   9.555   5.008  1.3157  0.6722 -0.5931
45574SOL     OW48700   7.270   2.468   4.102 -0.4019  0.3058 -0.3730
45574SOL    HW148701   7.254   2.374   4.095  1.0943 -0.4131  3.5075
45574SOL    HW248702   7.353   2.482   4.057 -1.6928  0.3120 -2.9299
45575SOL     OW48703   0.925  11.835  12.657 -0.5220 -0.2373  0.5313
45575SOL    HW148704   0.870  11.811  12.732 -1.4427  2.1400  0.7072
45575SOL    HW248705   0.887  11.787  12.583 -2.2482  0.5262  0.8545
45576SOL     OW48706   6.006  10.791   3.687 -0.3211 -0.1481 -0.6651
45576SOL    HW148707   6.006  10.722   3.754 -2.4681 -0.4657 -0.9404
45576SOL    HW248708   6.059  10.861   3.726  2.5284 -2.1123 -0.6425
45577SOL     OW48709   5.246   8.923  12.062 -0.0581 -0.0287  0.0692
45577SOL    HW148710   5.308   8.875  12.007  0.4028  0.6462 -0.0078
45577SOL    HW248711   5.277   9.014  12.059 -0.6384  0.1890  0.6021
45578SOL     OW48712  11.039   8.749  12.123  0.0760  0.2600 -0.9866
45578SOL    HW148713  11.051   8.771  12.215  1.1142 -0.4830 -0.9350
45578SOL    HW248714  10.960   8.693  12.122  0.7851 -0.7862 -0.3681
45579SOL     OW48715   0.461   2.360   9.855  0.0253 -0.0883 -0.0576
45579SOL    HW148716   0.388   2.375   9.796  0.1982  0.5438 -0.1254
45579SOL    HW248717   0.466   2.441   9.907  1.5843  0.5062 -1.0489
45580SOL     OW48718   1.725  11.697   7.681  0.1039 -0.2976  0.0785
45580SOL    HW148719   1.712  11.730   7.592 -0.1157  1.0859  0.5941
45580SOL    HW248720   1.816  11.719   7.701  0.3055 -1.0490  0.0448
45581SOL     OW48721   1.616  11.934  10.172 -0.2319 -0.0038  0.3239
45581SOL    HW148722   1.671  11.922  10.249  1.0914  3.6301  0.1097
45581SOL    HW248723   1.537  11.978  10.204  0.2701  1.4221 -0.3089
45582SOL     OW48724   3.608  12.332  13.956  0.2662 -0.1868 -0.1773
45582SOL    HW148725   3.673  12.401  13.949 -0.2278  0.4312  1.0904
45582SOL    HW248726   3.624  12.276  13.880  1.6017  0.5168 -0.4359
45583SOL     OW48727  12.013  11.186   8.387  0.3275  0.0242  0.0591
45583SOL    HW148728  12.094  11.205   8.340 -0.1783  0.4837 -0.6430
45583SOL    HW248729  11.947  11.242   8.346 -0.0473  0.7528  1.5942
45584SOL     OW48730  10.417   1.292  11.655  0.0411  0.0864  0.0352
45584SOL    HW148731  10.496   1.238  11.654  1.4025  1.9639  0.4274
45584SOL    HW248732  10.354   1.240  11.704  1.6433 -0.6695  1.4069
45585SOL     OW48733   0.175   3.403   5.281 -0.3378  0.6445 -0.0150
45585SOL    HW148734   0.109   3.472   5.264 -0.0475  0.6610 -1.2058
45585SOL    HW248735   0.238   3.444   5.340 -2.8855 -0.3011  3.7572
45586SOL     OW48736   9.955   8.776   8.780 -0.0660  0.3039  0.1221
45586SOL    HW148737   9.882   8.823   8.821 -1.3225 -0.4174 -1.1979
45586SOL    HW248738   9.979   8.709   8.844 -2.0279 -0.8375 -0.2207
45587SOL     OW48739   0.759   7.857   3.063  0.0101  0.3108  0.4672
45587SOL    HW148740   0.747   7.941   3.107  1.7721  0.4621  0.7240
45587SOL    HW248741   0.838   7.820   3.102 -0.3022 -1.1250 -0.1853
45588SOL     OW48742   4.243   8.325   6.930 -0.0012 -0.1180 -0.0527
45588SOL    HW148743   4.159   8.371   6.929  0.0881  0.0837 -1.7284
45588SOL    HW248744   4.225   8.243   6.975 -1.1418 -0.1260 -0.4810
45589SOL     OW48745   4.577   1.541   8.850  0.3653  0.1551 -0.4990
45589SOL    HW148746   4.632   1.597   8.905 -0.0645  0.0914  0.0058
45589SOL    HW248747   4.489   1.577   8.860 -0.0067 -0.9035  0.2360
45590SOL     OW48748   6.663   9.753   4.566 -0.2103  0.4040 -0.0816
45590SOL    HW148749   6.622   9.677   4.606 -3.3662  1.7425 -0.4986
45590SOL    HW248750   6.727   9.782   4.631  0.1840 -1.8023  0.6134
45591SOL     OW48751  14.033   7.004   7.281  0.2805 -0.2863 -0.5035
45591SOL    HW148752  14.027   6.983   7.188  0.7105  0.1628 -0.6364
45591SOL    HW248753  14.027   6.919   7.325  1.7216 -0.6998 -1.0200
45592SOL     OW48754  10.188  13.726   9.498 -0.3403 -0.0963  0.1000
45592SOL    HW148755  10.247  13.734   9.423  0.2894  1.1876  0.6907
45592SOL    HW248756  10.110  13.683   9.463  1.0441 -2.1125 -0.6164
45593SOL     OW48757   2.267   3.451   8.889  0.3637 -0.5558  0.0626
45593SOL    HW148758   2.263   3.443   8.984 -0.8243  2.0382  0.3013
45593SOL    HW248759   2.359   3.467   8.870  0.5522 -0.7319  0.7853
45594SOL     OW48760   5.997   7.261   6.276 -0.0156  0.2065  0.2351
45594SOL    HW148761   6.054   7.184   6.278  0.2997  0.3137 -2.0766
45594SOL    HW248762   5.947   7.255   6.358  1.1962 -1.5009  0.9275
45595SOL     OW48763  10.484   4.496   7.579 -0.3104 -0.2911  0.1078
45595SOL    HW148764  10.557   4.481   7.639 -1.4568 -1.8934  1.1799
45595SOL    HW248765  10.481   4.418   7.525 -0.0884  0.5898 -1.2086
45596SOL     OW48766  10.102  12.688   6.866 -0.6692  0.2176 -0.0663
45596SOL    HW148767  10.097  12.771   6.913 -2.7009  0.5362 -0.7663
45596SOL    HW248768  10.156  12.632   6.923  0.6384  1.9304  0.4791
45597SOL     OW48769   9.379   2.429   1.585 -0.2488  0.5677 -0.3317
45597SOL    HW148770   9.452   2.433   1.647 -1.8563 -1.2087  1.8314
45597SOL    HW248771   9.311   2.484   1.625 -1.9580 -2.0018  0.5813
45598SOL     OW48772  12.288  11.128   4.936 -0.2333 -0.1348 -0.2860
45598SOL    HW148773  12.240  11.191   4.883 -1.3791 -0.6749  0.0954
45598SOL    HW248774  12.278  11.044   4.890  1.2162 -0.0787 -0.7513
45599SOL     OW48775   8.004   3.718   2.488  0.4556  0.2660 -0.0314
45599SOL    HW148776   7.964   3.682   2.567  2.0199  1.4564  1.3841
45599SOL    HW248777   7.931   3.757   2.440 -0.6524 -1.1771  0.3974
45600SOL     OW48778  11.811  10.208   3.282  0.1598 -0.4498 -0.0928
45600SOL    HW148779  11.860  10.215   3.364 -2.1562  2.0541  1.2793
45600SOL    HW248780  11.719  10.207   3.309 -0.7168  1.0376 -2.6488
45601SOL     OW48781   6.951  13.906  13.586 -0.5552 -0.0977  0.2533
45601SOL    HW148782   7.000  13.976  13.629 -0.4860  0.0010  0.0140
45601SOL    HW248783   6.906  13.949  13.514 -0.7405 -0.2479  0.2786
45602SOL     OW48784   3.536   0.276   4.402 -0.7134  0.6778  0.1776
45602SOL    HW148785   3.573   0.360   4.376 -0.6163  1.2438  1.9896
45602SOL    HW248786   3.444   0.295   4.421 -0.9971  0.0989 -0.5690
45603SOL     OW48787   1.214   3.149   1.987 -0.0728  0.5044  0.0686
45603SOL    HW148788   1.241   3.180   1.901  1.3932 -1.4225 -0.2387
45603SOL    HW248789   1.224   3.054   1.982 -3.4284 -0.0313  1.2154
45604SOL     OW48790  10.529  12.864   2.069  0.1385  0.4449  0.5721
45604SOL    HW148791  10.618  12.830   2.055 -0.2445 -0.8560  1.1828
45604SOL    HW248792  10.523  12.938   2.009  1.3249 -0.0161 -0.1668
45605SOL     OW48793   8.365  14.019   3.559 -0.2806 -0.1742 -0.0505
45605SOL    HW148794   8.322  14.021   3.645 -1.4330  2.7252 -0.5630
45605SOL    HW248795   8.448  14.067   3.574  1.4322 -3.0018  0.2129
45606SOL     OW48796  10.427   9.714   7.700 -0.6389  0.1515 -0.0200
45606SOL    HW148797  10.507   9.766   7.711 -0.0252 -1.1225  2.0352
45606SOL    HW248798  10.458   9.630   7.667 -0.9570 -0.7180  1.8052
45607SOL     OW48799   4.813   8.212   2.805 -0.2474  0.0187  0.4734
45607SOL    HW148800   4.729   8.221   2.849  0.6895  0.6563  2.2448
45607SOL    HW248801   4.848   8.301   2.801 -0.2230 -0.0328 -1.5019
45608SOL     OW48802  13.692   1.312   4.571 -0.4996 -0.2135 -0.1354
45608SOL    HW148803  13.743   1.330   4.492 -1.2395 -0.2712 -0.6330
45608SOL    HW248804  13.665   1.398   4.602 -0.9473 -0.2295 -0.4543
45609SOL     OW48805   6.811  10.267   2.061 -0.3573  0.4172  0.6353
45609SOL    HW148806   6.813  10.325   2.137  0.8977  0.7691  0.3709
45609SOL    HW248807   6.785  10.182   2.095  0.5589  0.4816  1.5456
45610SOL     OW48808   1.642   8.959  10.156  0.5368  0.2632 -0.7049
45610SOL    HW148809   1.583   8.915  10.217 -0.0922  0.4342 -1.1710
45610SOL    HW248810   1.613   9.050  10.157  0.7103  0.3243 -1.0399
45611SOL     OW48811   0.517   0.087   4.888 -0.4563  0.1357  0.5584
45611SOL    HW148812   0.519   0.173   4.847 -0.6590 -0.4365 -0.7240
45611SOL    HW248813   0.469   0.100   4.970 -0.3912  1.2547  0.4294
45612SOL     OW48814   8.580   9.644  11.863 -0.1433  0.4630  0.9620
45612SOL    HW148815   8.531   9.564  11.847 -1.0009  0.9058  1.3081
45612SOL    HW248816   8.532   9.712  11.815 -0.3332  1.0358  1.9231
45613SOL     OW48817   7.378   9.583  13.507 -0.0616 -0.3036  0.4702
45613SOL    HW148818   7.439   9.534  13.562  0.0930 -1.0883 -0.3762
45613SOL    HW248819   7.351   9.520  13.439 -1.0201  0.3379  0.2410
45614SOL     OW48820   2.769   8.587   2.800 -0.7409 -0.0665 -0.3985
45614SOL    HW148821   2.753   8.679   2.819  1.2823  0.7040 -2.0612
45614SOL    HW248822   2.846   8.565   2.852 -0.9120 -0.6987 -0.3996
45615SOL     OW48823   0.575   8.433  10.223 -0.1344  0.1876  0.5302
45615SOL    HW148824   0.594   8.410  10.132  2.9843  1.8718  0.6229
45615SOL    HW248825   0.548   8.525  10.219 -1.9055 -0.2602  1.1872
45616SOL     OW48826   1.479   3.400  12.494 -0.8304  0.0224  0.2487
45616SOL    HW148827   1.449   3.335  12.430  0.1115 -0.4790  0.3080
45616SOL    HW248828   1.554   3.359  12.536 -1.0827  0.5890  1.2755
45617SOL     OW48829   7.845   3.327  11.942 -0.3269  0.4319 -0.5963
45617SOL    HW148830   7.813   3.243  11.908  0.1744 -0.4631  1.0065
45617SOL    HW248831   7.924   3.304  11.991 -1.8520  1.3126  2.5222
45618SOL     OW48832   1.838  11.753   7.070 -0.7188 -0.4053 -0.1068
45618SOL    HW148833   1.880  11.747   6.984 -1.2540 -2.6017 -0.2764
45618SOL    HW248834   1.906  11.728   7.132 -1.1454 -1.8761 -0.1981
45619SOL     OW48835   5.514   8.422   3.204  0.5818 -0.1562 -0.6771
45619SOL    HW148836   5.571   8.448   3.277 -0.9862 -1.6430  1.1945
45619SOL    HW248837   5.555   8.344   3.167 -0.4447 -1.5991  1.0711
45620SOL     OW48838   9.138   9.334  12.920  0.8503  0.7710 -0.1493
45620SOL    HW148839   9.177   9.379  12.845  1.4768 -0.5003 -0.6194
45620SOL    HW248840   9.181   9.372  12.996  1.7840  0.5839 -0.5672
45621SOL     OW48841   2.668  13.510   0.714  0.0202  0.0019 -0.0774
45621SOL    HW148842   2.722  13.517   0.635  1.0822 -1.9233  0.4310
45621SOL    HW248843   2.661  13.417   0.731 -1.4240  0.3195  1.2989
45622SOL     OW48844   2.686   3.310  11.897  0.0111  0.4063  0.2004
45622SOL    HW148845   2.688   3.389  11.951 -1.1571  0.8746 -0.4082
45622SOL    HW248846   2.765   3.262  11.922 -0.1247  0.9400  1.8057
45623SOL     OW48847  12.007  13.675   0.144  0.5251 -0.2629  0.3488
45623SOL    HW148848  12.015  13.630   0.060  0.1565  0.6300 -0.1796
45623SOL    HW248849  11.913  13.675   0.162  0.5780 -0.2241  0.6271
45624SOL     OW48850  11.552   3.276   0.680  0.1629  0.2551  0.3701
45624SOL    HW148851  11.534   3.275   0.586  0.4128  1.5719  0.2928
45624SOL    HW248852  11.470   3.248   0.720 -0.6790  1.8497 -0.1664
45625SOL     OW48853   1.268  10.268   8.199 -0.5539  0.3657  0.3850
45625SOL    HW148854   1.195  10.220   8.159 -1.1710  0.6228  1.1840
45625SOL    HW248855   1.345  10.213   8.182 -0.4317  1.3206 -2.7348
45626SOL     OW48856   8.102   2.181   1.923 -0.4416 -0.0726 -0.1717
45626SOL    HW148857   8.046   2.241   1.972  0.0249  1.1705 -1.0911
45626SOL    HW248858   8.053   2.163   1.843 -0.7225 -1.1987  0.2504
45627SOL     OW48859   1.678   4.853   4.962 -0.0463 -0.3706 -0.1593
45627SOL    HW148860   1.597   4.830   5.007  0.7091  0.2445  1.6103
45627SOL    HW248861   1.744   4.796   5.001  0.7019  0.4331 -0.2223
45628SOL     OW48862  11.550  14.028   9.580 -0.1059  0.3446 -0.2719
45628SOL    HW148863  11.602  14.109   9.582 -1.0258  1.0731 -2.6594
45628SOL    HW248864  11.585  13.976   9.652  1.9179  2.0129  0.0568
45629SOL     OW48865   2.058   6.980   1.411  0.2415  0.0786 -0.7029
45629SOL    HW148866   1.988   7.017   1.357 -2.7017 -0.7111  2.2843
45629SOL    HW248867   2.107   7.057   1.441 -1.5713  1.0340 -0.0391
45630SOL     OW48868  11.102  10.200   8.422 -0.3163  0.4705 -0.0493
45630SOL    HW148869  11.072  10.116   8.457 -0.0093  0.4773  0.2378
45630SOL    HW248870  11.185  10.179   8.378  0.0081  0.7046  0.4417
45631SOL     OW48871   5.332  12.093  10.160  0.2400  0.2979  0.3521
45631SOL    HW148872   5.363  12.082  10.070  1.5424 -0.8363  0.9098
45631SOL    HW248873   5.251  12.145  10.151  0.6736  0.7448 -1.4021
45632SOL     OW48874   6.795   0.994   6.263 -0.4462  0.4368  0.2232
45632SOL    HW148875   6.797   1.089   6.248 -0.1432  0.4099  0.0796
45632SOL    HW248876   6.869   0.978   6.322 -0.4896  0.2901  0.2367
45633SOL     OW48877   5.324   3.358   3.167 -0.1951 -0.5695  0.2315
45633SOL    HW148878   5.284   3.440   3.197 -1.1166 -1.1658  0.6895
45633SOL    HW248879   5.250   3.306   3.135  0.5406 -0.7110 -1.3331
45634SOL     OW48880  12.603  12.000   7.782  0.3572 -0.4146  0.2572
45634SOL    HW148881  12.694  12.031   7.793 -0.3122  1.3847  1.1327
45634SOL    HW248882  12.562  12.018   7.866 -0.9121 -0.8626 -0.2577
45635SOL     OW48883  12.750   6.075   5.812  0.0109 -0.4654 -0.1861
45635SOL    HW148884  12.808   6.038   5.879 -0.1622  0.2831  0.3931
45635SOL    HW248885  12.711   5.999   5.769 -1.3998 -0.9967  1.8790
45636SOL     OW48886   4.843   9.938  10.375  0.2736  0.0181  0.1831
45636SOL    HW148887   4.767   9.909  10.425  1.6508 -1.4565  1.5205
45636SOL    HW248888   4.889   9.858  10.351  2.5830  0.9181  1.3401
45637SOL     OW48889   0.068  13.836   6.697  0.0083  0.0345 -0.6170
45637SOL    HW148890   0.103  13.849   6.785 -1.1714  0.0539 -0.1288
45637SOL    HW248891   0.142  13.803   6.646  1.0985  1.4592 -0.0029
45638SOL     OW48892  12.429   9.660   3.340 -0.0378  0.1429 -0.4735
45638SOL    HW148893  12.361   9.631   3.280 -0.6111 -1.9269  1.0637
45638SOL    HW248894  12.505   9.607   3.317  0.0014 -0.0364  0.0718
45639SOL     OW48895  12.903   9.936  13.729  0.6690  0.4266  0.3585
45639SOL    HW148896  12.887   9.942  13.635  1.8919 -0.0930  0.1001
45639SOL    HW248897  12.844  10.002  13.767 -0.2494  0.2485 -0.7064
45640SOL     OW48898  12.628   4.119   9.229 -0.2511  0.3938  0.4610
45640SOL    HW148899  12.549   4.084   9.271  0.4963 -1.5840  0.3082
45640SOL    HW248900  12.623   4.089   9.139  0.1103  1.2587  0.1456
45641SOL     OW48901  12.938   2.550  11.793  0.0990 -0.2342  0.3112
45641SOL    HW148902  12.858   2.527  11.842  0.2919 -1.1862  0.2001
45641SOL    HW248903  12.911   2.545  11.701 -0.4153  2.1055  0.2749
45642SOL     OW48904   7.882   0.426  13.730  0.3485  0.4481 -0.3369
45642SOL    HW148905   7.825   0.470  13.794  1.3441 -0.7420  1.4564
45642SOL    HW248906   7.971   0.450  13.757  0.8597 -1.5592 -0.0739
45643SOL     OW48907   5.973  11.156   4.524 -0.1515 -0.5819 -0.6439
45643SOL    HW148908   6.027  11.086   4.561 -0.8198 -0.5740  0.4206
45643SOL    HW248909   6.035  11.222   4.495  0.4210 -0.3680  0.9670
45644SOL     OW48910   9.037  12.457   8.739  0.1035 -0.3262 -0.3728
45644SOL    HW148911   9.113  12.513   8.727  1.7144 -1.6350  2.4883
45644SOL    HW248912   8.968  12.515   8.771  1.0920  0.3887  0.5361
45645SOL     OW48913   6.517   8.593   8.012 -0.2340 -0.5125  0.1519
45645SOL    HW148914   6.459   8.604   7.937  0.4772 -0.4352 -0.3891
45645SOL    HW248915   6.488   8.510   8.052  1.7794 -2.6449 -2.4036
45646SOL     OW48916   3.659   9.900   0.512  0.3465  0.4433  0.0206
45646SOL    HW148917   3.616   9.956   0.576 -2.3375 -2.0821  0.6291
45646SOL    HW248918   3.739   9.870   0.555 -0.2933  0.5523  1.3050
45647SOL     OW48919   3.400   6.081   9.665  0.4298  0.5364  0.2768
45647SOL    HW148920   3.347   6.157   9.689  0.3863  0.7653 -0.5136
45647SOL    HW248921   3.378   6.014   9.730 -0.0416  0.9777  0.5708
45648SOL     OW48922   1.860   2.406   1.851  0.1062 -0.7933  0.8569
45648SOL    HW148923   1.801   2.403   1.927  1.7998 -3.3417  2.2148
45648SOL    HW248924   1.846   2.322   1.807 -0.9694  0.6944 -1.8847
45649SOL     OW48925   5.391   0.029   5.750 -0.3363 -0.0453 -0.7714
45649SOL    HW148926   5.302   0.002   5.727 -0.3167  0.4528 -1.4708
45649SOL    HW248927   5.386   0.051   5.843 -0.4347 -2.0500 -0.2452
45650SOL     OW48928   3.342   0.096   0.243 -0.1552  0.0601 -0.1062
45650SOL    HW148929   3.390   0.082   0.161 -0.6303  1.4507 -0.6489
45650SOL    HW248930   3.259   0.051   0.229  0.2434 -0.7760  0.1210
45651SOL     OW48931   7.731  10.761   4.917 -0.4114 -0.3936  0.0018
45651SOL    HW148932   7.761  10.767   5.008 -0.7384 -1.7886  0.2143
45651SOL    HW248933   7.760  10.844   4.877  0.3317 -0.0578  1.1884
45652SOL     OW48934   9.511  11.269   9.290  0.2151  0.2053 -0.1866
45652SOL    HW148935   9.469  11.313   9.364  0.5123 -0.5569  0.4471
45652SOL    HW248936   9.601  11.301   9.290 -0.0471  0.9679 -0.8429
45653SOL     OW48937  12.143   9.280   6.612 -0.1719 -0.4572 -0.4905
45653SOL    HW148938  12.150   9.187   6.636 -1.5453 -0.6571 -0.7427
45653SOL    HW248939  12.122   9.278   6.518  1.8994  0.2019 -1.0072
45654SOL     OW48940   8.437   0.799   6.324 -0.2712 -0.2273 -0.0907
45654SOL    HW148941   8.492   0.726   6.296 -3.1170 -1.7882 -2.1124
45654SOL    HW248942   8.447   0.865   6.256 -0.0655 -0.0630  0.0998
45655SOL     OW48943  13.049   9.989   9.826  0.2237 -0.4080 -0.6370
45655SOL    HW148944  13.020  10.032   9.746 -3.3670 -1.6437 -0.1644
45655SOL    HW248945  12.991  10.023   9.894  2.4854 -0.1918  1.3306
45656SOL     OW48946   0.144  13.541  13.390  0.6565  0.5812  0.5033
45656SOL    HW148947   0.078  13.510  13.329  2.4458 -1.6074 -0.4682
45656SOL    HW248948   0.097  13.559  13.471 -1.1935 -0.2696 -0.3418
45657SOL     OW48949  11.692  13.977   5.989 -0.0647  0.2438  0.4733
45657SOL    HW148950  11.652  13.925   6.058 -1.2934 -0.5178 -0.7633
45657SOL    HW248951  11.639  13.959   5.911  0.9465  1.4819 -0.5534
45658SOL     OW48952  12.259   7.820   5.409  0.2012  0.2064  0.0815
45658SOL    HW148953  12.270   7.873   5.488 -1.1242 -1.6245  1.5804
45658SOL    HW248954  12.264   7.730   5.440 -1.4003 -0.5866 -1.7552
45659SOL     OW48955   4.750   0.043   0.419 -0.1458 -0.0972  0.0933
45659SOL    HW148956   4.833   0.057   0.465 -1.0693  1.3966  1.4071
45659SOL    HW248957   4.721  -0.044   0.447 -0.6589  0.7496  2.4105
45660SOL     OW48958   2.308   7.640   7.935 -0.0318 -0.1348  0.0849
45660SOL    HW148959   2.250   7.635   7.859  0.2749  1.5996 -0.2919
45660SOL    HW248960   2.321   7.548   7.960 -2.7927 -0.6064  0.1187
45661SOL     OW48961   5.307   5.547  10.446 -0.1636  0.3169  0.6078
45661SOL    HW148962   5.244   5.611  10.480 -1.1665 -0.8123  0.9581
45661SOL    HW248963   5.258   5.466  10.440  1.5783 -0.9473  2.1400
45662SOL     OW48964  12.272  10.165  13.100  0.3972  0.3776 -0.3558
45662SOL    HW148965  12.280  10.144  13.193  1.2231 -0.0803 -0.5241
45662SOL    HW248966  12.249  10.082  13.059 -1.1367  0.8081 -0.4298
45663SOL     OW48967  11.252   1.954   0.920  0.3345 -0.6450  0.4567
45663SOL    HW148968  11.306   1.969   0.997 -0.6130 -3.6204  1.8776
45663SOL    HW248969  11.302   1.892   0.868  0.9347  1.2962 -1.4032
45664SOL     OW48970  13.528  10.891  12.045 -0.1277  0.1131  0.5639
45664SOL    HW148971  13.549  10.975  12.086  0.6321  0.9741 -1.4569
45664SOL    HW248972  13.536  10.908  11.951 -0.4710 -2.1021  0.0916
45665SOL     OW48973   4.831   2.721   5.249  0.7569 -0.2511 -0.1493
45665SOL    HW148974   4.811   2.749   5.160 -0.7348 -2.2810 -0.5378
45665SOL    HW248975   4.843   2.626   5.242 -2.1894 -0.9684  2.1458
45666SOL     OW48976  12.957   3.784   8.344  0.5880 -0.3780 -0.4041
45666SOL    HW148977  13.015   3.807   8.271 -0.7114 -0.2165 -1.4171
45666SOL    HW248978  12.914   3.866   8.368  0.0064 -0.6831 -0.3683
45667SOL     OW48979   6.428   2.598   9.927  0.9626 -0.0377 -0.2928
45667SOL    HW148980   6.390   2.632   9.846  1.3559 -1.5343 -1.1397
45667SOL    HW248981   6.521   2.585   9.906  0.5255 -3.3142 -0.6490
45668SOL     OW48982  10.840   3.684  13.560 -0.6102 -0.2299 -0.5519
45668SOL    HW148983  10.795   3.748  13.615 -0.1929  0.4189 -0.9505
45668SOL    HW248984  10.919   3.729  13.529 -0.2337 -0.9816 -0.7344
45669SOL     OW48985   8.802  12.910   8.850  0.2975 -0.0431 -0.3968
45669SOL    HW148986   8.766  12.909   8.761 -0.9198  0.9792  0.0399
45669SOL    HW248987   8.806  13.003   8.872  3.7330 -0.0423 -0.5548
45670SOL     OW48988   5.446   4.649   8.917 -0.1309 -0.3871  0.3134
45670SOL    HW148989   5.455   4.614   9.006 -0.4506  2.2818  1.4989
45670SOL    HW248990   5.352   4.650   8.900 -0.3494  1.8913  1.2655
45671SOL     OW48991   1.287   6.103   9.414  0.1606 -0.4894 -0.2410
45671SOL    HW148992   1.310   6.196   9.421 -0.2326 -0.4929  1.4829
45671SOL    HW248993   1.192   6.103   9.403  0.2305 -0.6825 -0.9013
45672SOL     OW48994   1.184  12.637  10.464  0.0419  0.0471 -0.0962
45672SOL    HW148995   1.255  12.574  10.459  0.5360  0.4099  1.6611
45672SOL    HW248996   1.112  12.589  10.504  0.5787  0.6516  1.7151
45673SOL     OW48997  12.158  11.596  11.835  0.5752 -0.0266 -0.3505
45673SOL    HW148998  12.124  11.583  11.923 -0.0893  0.7941 -0.4635
45673SOL    HW248999  12.252  11.606  11.846  0.4883  0.1154  0.2706
45674SOL     OW49000  13.661   0.624   6.918  0.3385 -0.1025 -0.0152
45674SOL    HW149001  13.597   0.589   6.980  0.3296 -0.2079 -0.0840
45674SOL    HW249002  13.727   0.556   6.910  0.1381 -0.2556 -0.4206
45675SOL     OW49003   3.095   6.823  13.874  0.0271 -1.0919 -0.3145
45675SOL    HW149004   3.164   6.842  13.810  0.4986  0.2253  0.5390
45675SOL    HW249005   3.136   6.759  13.933  0.3550 -0.6761 -0.0873
45676SOL     OW49006   2.994   3.602   3.004  0.9059 -0.2049  0.2477
45676SOL    HW149007   2.937   3.624   3.078  1.1207 -0.8414  0.6110
45676SOL    HW249008   3.073   3.567   3.045  0.5884 -1.6139 -0.3128
45677SOL     OW49009   0.280   5.993   2.787  0.0353 -0.0784 -0.0504
45677SOL    HW149010   0.206   5.945   2.823 -0.5293  0.6279 -0.2604
45677SOL    HW249011   0.283   5.967   2.695 -0.2487  0.2654 -0.1560
45678SOL     OW49012   1.655   8.519   0.473 -0.3939  0.1866  0.5678
45678SOL    HW149013   1.682   8.478   0.391  0.1136  3.0594 -0.8160
45678SOL    HW249014   1.561   8.500   0.479 -1.3966  2.9912 -2.8093
45679SOL     OW49015  11.474  10.097   6.793  0.2263  0.4155  0.0396
45679SOL    HW149016  11.555  10.129   6.832  0.9474 -1.7611  0.5049
45679SOL    HW249017  11.409  10.103   6.863 -0.0077  2.0136 -0.2855
45680SOL     OW49018   5.338  12.998   0.746 -0.3543 -0.6180  0.4266
45680SOL    HW149019   5.290  13.073   0.712 -1.7830 -1.7551 -0.2001
45680SOL    HW249020   5.400  13.035   0.809 -1.4785  0.9981  0.6387
45681SOL     OW49021   8.099   0.372   1.938  0.2207 -0.1279 -0.0967
45681SOL    HW149022   8.130   0.416   1.859  1.5673 -1.2331 -0.2125
45681SOL    HW249023   8.093   0.442   2.004  2.4914  0.2467 -0.2104
45682SOL     OW49024  12.266   7.854   0.304 -0.0462 -0.0353  0.6873
45682SOL    HW149025  12.331   7.915   0.270 -1.3120  1.4911  0.8949
45682SOL    HW249026  12.185   7.877   0.259 -0.8280 -0.7372  1.6792
45683SOL     OW49027  13.922   4.942   0.538  0.0090 -0.0018  0.0844
45683SOL    HW149028  13.953   4.873   0.597 -0.2368 -0.3275 -0.1601
45683SOL    HW249029  14.001   4.975   0.496  0.0544 -0.7180 -0.4181
45684SOL     OW49030   1.155   7.887   2.639  0.2181 -0.1751 -0.5276
45684SOL    HW149031   1.227   7.898   2.700  0.3848  2.5201 -1.0707
45684SOL    HW249032   1.196   7.887   2.552 -0.2939 -0.5609 -0.7790
45685SOL     OW49033  13.344  12.161   4.220  0.1845  0.2380  0.1491
45685SOL    HW149034  13.341  12.083   4.165  0.3648  0.6460 -0.4483
45685SOL    HW249035  13.418  12.211   4.186 -1.8756  2.2540 -1.6965
45686SOL     OW49036   5.127  13.263   2.209 -0.2073  0.7082 -0.5167
45686SOL    HW149037   5.200  13.269   2.147 -0.4587  2.4332 -0.7093
45686SOL    HW249038   5.168  13.270   2.295 -0.0059 -0.0135 -0.5508
45687SOL     OW49039   4.678   7.770   2.221 -0.1351  0.6290  0.0911
45687SOL    HW149040   4.720   7.850   2.190  0.1734  1.2616  2.0182
45687SOL    HW249041   4.643   7.729   2.142  0.8689  1.9756 -1.1000
45688SOL     OW49042   5.561   1.875   1.910  0.2699 -0.7837  0.3742
45688SOL    HW149043   5.631   1.929   1.876  0.5521 -0.5425  1.3165
45688SOL    HW249044   5.565   1.886   2.005 -2.0178  0.4855  0.4088
45689SOL     OW49045  10.250   6.377   9.644 -0.0327 -0.9126  0.7769
45689SOL    HW149046  10.239   6.360   9.550  0.3260 -1.2209  0.7897
45689SOL    HW249047  10.210   6.463   9.657  1.3424 -0.1361  0.0429
45690SOL     OW49048   5.893   1.152  10.055  0.3125  0.2041  0.4966
45690SOL    HW149049   5.980   1.128  10.024 -0.2649 -1.4210  0.0341
45690SOL    HW249050   5.841   1.072  10.044 -1.5293  1.4466 -0.3584
45691SOL     OW49051   7.326   9.255  10.661  0.2238 -0.6935  0.0890
45691SOL    HW149052   7.288   9.183  10.711 -0.7261 -0.6023 -0.4926
45691SOL    HW249053   7.405   9.218  10.622  1.4818 -0.5572  2.2821
45692SOL     OW49054   3.081   4.987  13.635  0.0032 -0.2847 -0.4215
45692SOL    HW149055   3.025   5.065  13.629  0.3359 -0.1537 -2.2952
45692SOL    HW249056   3.047   4.928  13.568 -0.1282 -1.7116  0.8608
45693SOL     OW49057   1.849  13.939   5.432  0.9011 -0.1485  0.4349
45693SOL    HW149058   1.887  14.027   5.429 -0.3271  0.4188  0.5905
45693SOL    HW249059   1.923  13.881   5.445  1.5958  0.9990  1.8605
45694SOL     OW49060   3.807   9.575   1.956  0.0625 -0.3707 -0.0912
45694SOL    HW149061   3.873   9.623   2.006  0.1678 -0.2391 -0.3534
45694SOL    HW249062   3.829   9.593   1.865 -0.8005  0.3038 -0.1825
45695SOL     OW49063   1.278   3.237  11.966  0.6941 -0.0629  0.3903
45695SOL    HW149064   1.185   3.240  11.989  1.1314 -0.5633  2.4999
45695SOL    HW249065   1.290   3.149  11.930  0.0254  0.6515 -1.6744
45696SOL     OW49066   0.939  11.419   4.704  0.2510 -0.2300  0.2240
45696SOL    HW149067   0.884  11.498   4.705  1.9042  1.1306 -2.6161
45696SOL    HW249068   0.880  11.349   4.676 -0.8294  0.3529  0.9676
45697SOL     OW49069   6.992   3.100   0.829 -0.0337 -0.3166  0.5833
45697SOL    HW149070   6.930   3.172   0.814 -0.6708 -1.1314 -1.0071
45697SOL    HW249071   6.947   3.043   0.892  0.4374  0.6047  1.7824
45698SOL     OW49072   2.084   4.966  10.574  0.2096 -0.1021  0.2999
45698SOL    HW149073   2.093   4.913  10.653  2.4891 -0.2253  0.0301
45698SOL    HW249074   2.169   5.009  10.564 -0.2875  0.5371 -1.6437
45699SOL     OW49075   3.102   4.596   7.357 -0.0476  0.1242  0.3069
45699SOL    HW149076   3.151   4.540   7.418 -1.6386  0.0288  1.5285
45699SOL    HW249077   3.056   4.659   7.412 -1.0974  0.3844 -0.8201
45700SOL     OW49078   8.145   6.679  10.974  0.2135  0.0099 -0.3082
45700SOL    HW149079   8.111   6.657  10.887  0.6209 -0.2766 -0.3991
45700SOL    HW249080   8.067   6.684  11.030 -0.0318 -0.0007 -0.6461
45701SOL     OW49081   5.372  11.641   4.066  0.2439 -0.3246 -0.0465
45701SOL    HW149082   5.387  11.550   4.094 -0.2588 -0.1526  0.8210
45701SOL    HW249083   5.459  11.673   4.041  0.4958 -0.9184  0.0449
45702SOL     OW49084   1.296  13.466   1.696 -0.9617  0.8244 -0.4317
45702SOL    HW149085   1.359  13.533   1.672  1.1647 -1.6190 -2.2262
45702SOL    HW249086   1.237  13.461   1.620 -1.1760  0.7340 -0.2595
45703SOL     OW49087   5.896   5.858  13.737 -0.1302  0.0886 -0.0415
45703SOL    HW149088   5.868   5.819  13.655 -0.6215  0.7463 -0.1915
45703SOL    HW249089   5.816   5.887  13.780  0.1914  0.5869  0.2415
45704SOL     OW49090  12.138   3.635   1.816 -0.3510 -0.1279  0.3172
45704SOL    HW149091  12.164   3.625   1.724 -0.6437 -0.8070  0.3024
45704SOL    HW249092  12.089   3.718   1.818 -2.3377 -1.1930 -0.6255
45705SOL     OW49093  12.832   6.768  11.267 -0.7239  0.0638  0.2797
45705SOL    HW149094  12.909   6.820  11.289 -0.5863  0.7618 -1.6523
45705SOL    HW249095  12.816   6.787  11.175 -0.5743 -3.4588 -0.6186
45706SOL     OW49096   0.112  13.522  10.047 -0.3208 -0.3671  0.3197
45706SOL    HW149097   0.093  13.610  10.080  0.5144  0.2357 -0.7426
45706SOL    HW249098   0.105  13.531   9.952 -1.5684 -1.7894  0.2460
45707SOL     OW49099   1.448  13.975   1.807 -0.0475  0.4916  0.6839
45707SOL    HW149100   1.384  13.918   1.763 -1.4983  3.1715 -0.9884
45707SOL    HW249101   1.397  14.021   1.873  0.9103  0.4181  1.4864
45708SOL     OW49102   3.375  11.408  11.845 -0.3099  0.4822 -0.1635
45708SOL    HW149103   3.342  11.495  11.867 -1.2434  0.1025  0.0255
45708SOL    HW249104   3.398  11.413  11.752  0.8772  1.2832  0.1619
45709SOL     OW49105   8.555   3.931   2.657 -0.0616  0.2629 -0.0182
45709SOL    HW149106   8.487   3.995   2.633  0.5784  0.5616 -1.0977
45709SOL    HW249107   8.617   3.934   2.584  0.2454 -1.2340  0.1631
45710SOL     OW49108   8.965  12.064  11.528 -0.1120 -0.0279 -0.6664
45710SOL    HW149109   8.900  12.120  11.487 -1.0626 -0.7449 -0.1674
45710SOL    HW249110   8.916  11.987  11.557  1.1934 -1.2781 -1.6027
45711SOL     OW49111   2.522   3.702   9.485  0.4972  0.3643  0.0875
45711SOL    HW149112   2.495   3.790   9.461  2.4193  1.7425  2.4974
45711SOL    HW249113   2.615   3.709   9.505  1.0093 -2.5000 -0.7293
45712SOL     OW49114   2.828  13.009   2.474 -0.0292 -0.1140  0.1733
45712SOL    HW149115   2.848  13.062   2.397 -0.8899 -1.5539 -1.1008
45712SOL    HW249116   2.733  12.994   2.469  0.0275 -0.8728  1.0858
45713SOL     OW49117  12.901   4.532   2.362 -0.0775  0.0688  0.3034
45713SOL    HW149118  12.839   4.525   2.289  1.3436  0.4828 -0.9865
45713SOL    HW249119  12.885   4.453   2.415 -0.3904 -0.8001 -1.0502
45714SOL     OW49120   7.652   0.757   2.782  0.7418 -0.0985 -0.5099
45714SOL    HW149121   7.663   0.692   2.852 -0.2968  1.2846  1.0260
45714SOL    HW249122   7.635   0.839   2.829 -1.2040  0.6698 -2.3790
45715SOL     OW49123   0.497   2.130  12.323 -0.8227  0.2416 -0.3154
45715SOL    HW149124   0.550   2.199  12.363  0.3709  0.7765 -2.6245
45715SOL    HW249125   0.553   2.052  12.325 -0.1796  0.5977 -1.9822
45716SOL     OW49126  11.802   5.684  12.687 -0.7223 -0.0056 -0.2990
45716SOL    HW149127  11.780   5.685  12.780 -1.0452 -0.5460 -0.3677
45716SOL    HW249128  11.734   5.630  12.646 -0.9642  0.7663 -0.9469
45717SOL     OW49129   2.634   1.570   8.563  0.0932  0.2862 -0.2364
45717SOL    HW149130   2.725   1.599   8.557  0.1635  0.7455  2.1225
45717SOL    HW249131   2.617   1.527   8.480  2.4696  0.1818 -0.7284
45718SOL     OW49132   2.031  10.002   0.528  0.1869 -0.1083  0.1190
45718SOL    HW149133   2.005  10.087   0.491  0.1083  0.0224  0.4686
45718SOL    HW249134   2.078  10.024   0.608  0.5255 -0.3832 -0.0017
45719SOL     OW49135   3.824  12.370   5.040 -0.1043 -0.5549  0.3426
45719SOL    HW149136   3.909  12.325   5.043 -0.5417 -1.4113  0.0426
45719SOL    HW249137   3.763  12.304   5.009 -0.6272  0.4735 -0.9005
45720SOL     OW49138   6.496  11.759   8.062  0.0005 -0.0761  0.0726
45720SOL    HW149139   6.519  11.824   7.995 -0.2007  1.1219  1.1403
45720SOL    HW249140   6.549  11.682   8.040  0.7157  0.6565 -0.8364
45721SOL     OW49141  12.377   8.248   4.951  0.0976 -0.0936 -0.2563
45721SOL    HW149142  12.358   8.154   4.956  1.9277 -0.7194 -3.2149
45721SOL    HW249143  12.305   8.284   4.899 -0.5076  0.1564  0.7260
45722SOL     OW49144   9.066   7.658   8.176 -0.0254 -0.2584  0.5209
45722SOL    HW149145   9.154   7.621   8.188  0.3289  0.7023  0.9881
45722SOL    HW249146   9.039   7.685   8.264  0.4807  2.1965  0.0187
45723SOL     OW49147   6.108   2.828   3.045 -0.0377 -0.2764  0.2030
45723SOL    HW149148   6.184   2.841   3.101 -1.4476 -0.5718  2.2972
45723SOL    HW249149   6.080   2.738   3.062 -1.4422  0.1419  0.2786
45724SOL     OW49150  10.344  11.260  12.369 -0.4140 -0.3470 -0.1865
45724SOL    HW149151  10.332  11.278  12.462 -1.4125 -0.9316 -0.1851
45724SOL    HW249152  10.397  11.333  12.336 -1.4210  0.7187  0.5049
45725SOL     OW49153   0.609   0.720   1.079 -0.0962 -0.4996  0.0038
45725SOL    HW149154   0.600   0.810   1.109  0.9053 -0.4759  0.2626
45725SOL    HW249155   0.521   0.696   1.049  0.0182  1.1872 -1.8716
45726SOL     OW49156   9.914   6.182   1.406  0.0671  0.1549  0.1276
45726SOL    HW149157   9.842   6.234   1.370  0.7906 -0.0810 -1.7545
45726SOL    HW249158   9.872   6.101   1.437 -0.9444  1.4388  2.3466
45727SOL     OW49159   3.164   4.028   5.888 -0.2784  0.3324  0.6470
45727SOL    HW149160   3.126   3.950   5.849 -0.0705  1.4610 -2.0503
45727SOL    HW249161   3.089   4.084   5.909 -0.3289  0.2642  0.6469
45728SOL     OW49162  10.656   0.192  11.048  0.3506  0.1004 -0.0820
45728SOL    HW149163  10.596   0.178  11.121  0.7531  1.1713  0.4757
45728SOL    HW249164  10.693   0.279  11.064  0.1761  0.5147 -1.7580
45729SOL     OW49165   3.406   0.524  10.487 -0.2201  0.6579 -0.6813
45729SOL    HW149166   3.341   0.561  10.427 -1.0469  1.8263  0.8478
45729SOL    HW249167   3.479   0.586  10.483 -0.1119  0.5270 -0.7530
45730SOL     OW49168   4.490   5.040   0.534 -0.3693 -0.8504  0.5619
45730SOL    HW149169   4.577   5.035   0.572 -0.1202 -0.0675  0.1415
45730SOL    HW249170   4.459   4.950   0.530  1.4718 -1.4712 -1.6547
45731SOL     OW49171  10.161   9.282   1.241  0.2099 -0.2246 -0.0229
45731SOL    HW149172  10.121   9.196   1.226  0.3029 -0.0314 -1.4979
45731SOL    HW249173  10.255   9.265   1.239  0.2541 -0.3624  1.5532
45732SOL     OW49174   0.782   9.844   7.436  0.4858 -0.3056  0.0139
45732SOL    HW149175   0.721   9.906   7.395  3.6377  1.9705 -1.6461
45732SOL    HW249176   0.767   9.855   7.530 -1.2354  0.5741 -0.3150
45733SOL     OW49177   6.540   0.104   4.577 -0.0783 -0.2870 -0.3800
45733SOL    HW149178   6.534   0.103   4.673  0.6667  2.2297 -0.2139
45733SOL    HW249179   6.458   0.145   4.548 -0.4481 -1.3367 -0.8803
45734SOL     OW49180   0.492   7.179   4.288 -0.0484  0.0802 -0.5691
45734SOL    HW149181   0.550   7.104   4.278 -0.2834 -0.1671 -0.0799
45734SOL    HW249182   0.519   7.219   4.371 -0.2967  0.2073 -0.5494
45735SOL     OW49183   1.769   8.050  12.548  0.0878  0.3929  0.1290
45735SOL    HW149184   1.680   8.039  12.514  0.8239 -0.8623 -1.4987
45735SOL    HW249185   1.811   8.109  12.485  0.2555  1.5187  1.2529
45736SOL     OW49186  13.958   2.383   2.882  0.0883  0.6778  0.0514
45736SOL    HW149187  13.969   2.363   2.789 -0.6143  0.9013 -0.0902
45736SOL    HW249188  13.955   2.478   2.886  2.2146  0.7735  0.5730
45737SOL     OW49189  11.238  13.027  10.198 -0.0405  0.2841  0.3743
45737SOL    HW149190  11.284  13.111  10.198 -2.0539  1.4543  1.4062
45737SOL    HW249191  11.257  12.989  10.112 -0.5721  2.6759 -0.8875
45738SOL     OW49192   7.845   7.869   3.371  0.2208  0.0082  0.6354
45738SOL    HW149193   7.937   7.842   3.370  0.0325 -0.6336 -0.2849
45738SOL    HW249194   7.818   7.860   3.462  1.3723  1.2595  1.1311
45739SOL     OW49195   0.848   6.308  10.475 -0.1592  0.2505  0.2772
45739SOL    HW149196   0.884   6.304  10.386  0.2572  0.9957  0.4081
45739SOL    HW249197   0.814   6.220  10.490  1.0760 -0.3110 -0.0706
45740SOL     OW49198   1.197  10.181   7.782  0.0488 -0.0146  0.3643
45740SOL    HW149199   1.272  10.241   7.783 -0.2608  0.3764  0.7496
45740SOL    HW249200   1.132  10.227   7.728 -0.0003 -0.2446  0.2272
45741SOL     OW49201   2.491  10.715   8.932  1.1332  0.0250 -0.3220
45741SOL    HW149202   2.507  10.758   9.015  3.5531  1.5152 -1.4459
45741SOL    HW249203   2.403  10.679   8.940  1.3308 -0.0133  2.8794
45742SOL     OW49204   6.002   3.390  11.669 -0.2388  0.0601 -0.2430
45742SOL    HW149205   6.058   3.428  11.737  0.4231 -1.2101 -0.0587
45742SOL    HW249206   6.015   3.296  11.676 -0.1171 -0.1050 -2.1685
45743SOL     OW49207  10.439   7.404   3.397  0.5121  0.2708 -0.7760
45743SOL    HW149208  10.484   7.321   3.381  0.3732  0.0994 -0.2736
45743SOL    HW249209  10.416   7.436   3.309 -0.8528 -1.0106 -0.9273
45744SOL     OW49210  11.816   6.496   7.530  0.2999  0.6373  0.4029
45744SOL    HW149211  11.735   6.478   7.483  0.6367 -2.0145  0.7010
45744SOL    HW249212  11.794   6.566   7.591 -1.9421 -0.4268  0.8943
45745SOL     OW49213  12.174   7.798   7.364 -0.1584  0.6435 -0.1070
45745SOL    HW149214  12.141   7.709   7.371  0.4999  0.4407  0.5618
45745SOL    HW249215  12.257   7.789   7.317  0.7218  0.6846  1.3938
45746SOL     OW49216  13.668   5.825   2.695  0.6116 -0.8818 -0.3357
45746SOL    HW149217  13.580   5.790   2.708 -0.0769  1.0462  0.6345
45746SOL    HW249218  13.654   5.919   2.679  2.2861 -1.0158 -3.5250
45747SOL     OW49219   0.456  10.659   4.789  0.9602 -0.5422 -0.0155
45747SOL    HW149220   0.483  10.680   4.700 -0.3244 -0.3369 -0.3748
45747SOL    HW249221   0.489  10.570   4.804  2.7205  0.0637 -0.0228
45748SOL     OW49222  11.933   1.948   8.629 -0.4175 -0.0376  0.0520
45748SOL    HW149223  12.007   1.889   8.613 -0.6829 -0.4918  0.4613
45748SOL    HW249224  11.936   2.011   8.557  2.3005  1.9412  1.7206
45749SOL     OW49225  13.161  13.798   0.205 -1.0273  0.5049  0.2313
45749SOL    HW149226  13.128  13.799   0.294 -0.4198 -0.4377  0.4847
45749SOL    HW249227  13.165  13.705   0.182 -0.3069  0.6872 -0.4343
45750SOL     OW49228   8.334   4.492   9.843 -0.0521  0.0028  0.1662
45750SOL    HW149229   8.253   4.450   9.817  0.5274 -0.8464 -0.3128
45750SOL    HW249230   8.333   4.576   9.798 -0.2557 -0.3767 -0.5481
45751SOL     OW49231   4.288   2.135  10.621 -0.3600  0.1085  0.9387
45751SOL    HW149232   4.259   2.116  10.710  0.5767 -0.1825  1.1964
45751SOL    HW249233   4.356   2.070  10.603  0.2254  0.8347  0.4187
45752SOL     OW49234   1.602   1.890  10.408 -0.3769 -0.0681 -0.4859
45752SOL    HW149235   1.599   1.814  10.467 -0.7936  0.4647  0.1877
45752SOL    HW249236   1.607   1.966  10.466 -0.4915  0.4489 -1.1402
45753SOL     OW49237  11.142   3.446  12.048 -0.0498  0.0104 -0.0244
45753SOL    HW149238  11.107   3.499  11.977 -1.1346  0.0625  0.5260
45753SOL    HW249239  11.099   3.479  12.126 -0.7599 -1.6524  0.3446
45754SOL     OW49240  12.572  13.676  10.799 -0.1529  0.1921 -0.3143
45754SOL    HW149241  12.528  13.742  10.747  1.5197  1.2532 -0.4551
45754SOL    HW249242  12.631  13.725  10.856 -1.9842 -0.8784  2.7860
45755SOL     OW49243  13.765  11.628   2.620  0.1072 -0.0902 -0.2967
45755SOL    HW149244  13.727  11.712   2.642 -0.5483 -0.6723  0.9267
45755SOL    HW249245  13.780  11.631   2.525 -0.2813  1.2264 -0.3264
45756SOL     OW49246  11.985   7.416   8.039  0.5582 -0.1348 -0.3720
45756SOL    HW149247  11.974   7.511   8.033 -1.2763 -0.2617  0.2494
45756SOL    HW249248  12.069   7.399   7.996  1.1634  1.8048 -0.0842
45757SOL     OW49249   8.730   8.681   0.519  0.3406 -0.1153 -0.7446
45757SOL    HW149250   8.709   8.702   0.610  2.8023  0.9684 -0.3350
45757SOL    HW249251   8.798   8.613   0.525  0.6183  0.0521 -1.7441
45758SOL     OW49252   0.282   7.770  12.550 -0.3582  0.2603 -0.7335
45758SOL    HW149253   0.244   7.806  12.631  0.2804 -0.8644  0.1013
45758SOL    HW249254   0.233   7.812  12.480 -1.6530  0.5014  0.2621
45759SOL     OW49255   5.892   7.991  10.380  0.0820  0.3183  0.4055
45759SOL    HW149256   5.825   7.927  10.355  0.2130  0.8633 -1.5621
45759SOL    HW249257   5.959   7.940  10.423  0.1734 -0.9113 -1.1065
45760SOL     OW49258   3.656   5.122   7.698  0.2504 -0.0715  0.0198
45760SOL    HW149259   3.670   5.217   7.698 -2.1934  0.3569 -0.7794
45760SOL    HW249260   3.562   5.111   7.714  0.5949 -2.4120  0.8888
45761SOL     OW49261   0.847   4.498  12.855  0.4948 -0.3978  0.1261
45761SOL    HW149262   0.909   4.539  12.795  0.3555  0.1534  0.3497
45761SOL    HW249263   0.767   4.487  12.804 -0.3645  2.1264  0.7935
45762SOL     OW49264  10.484  13.477   1.448  0.3138  0.2385 -0.2984
45762SOL    HW149265  10.564  13.433   1.477 -0.5455  0.2904  2.4950
45762SOL    HW249266  10.414  13.429   1.491 -0.9211  2.0031 -0.2515
45763SOL     OW49267  12.688  11.443   7.186 -0.4648 -0.2566 -0.2303
45763SOL    HW149268  12.645  11.359   7.203 -0.7805 -0.3063 -1.2226
45763SOL    HW249269  12.781  11.422   7.187 -0.5323 -0.5700 -0.2353
45764SOL     OW49270   7.893   3.763   5.004 -0.1178 -0.1750  0.1122
45764SOL    HW149271   7.936   3.847   4.987  1.4549 -0.9861 -0.0561
45764SOL    HW249272   7.827   3.756   4.936  1.5742 -0.2951 -1.5999
45765SOL     OW49273   5.230   3.768  10.332  0.0407  0.6332 -0.0921
45765SOL    HW149274   5.136   3.785  10.338 -0.0418  1.0772 -1.9885
45765SOL    HW249275   5.254   3.799  10.245  1.8455  0.0162  0.1546
45766SOL     OW49276   7.840   4.005   1.255 -0.1631 -0.2052 -0.2000
45766SOL    HW149277   7.919   3.953   1.270 -0.4710 -0.4049  0.7897
45766SOL    HW249278   7.768   3.945   1.273 -0.5306  0.2758 -0.0454
45767SOL     OW49279   2.618   8.421  10.471  0.1953  0.2279 -0.7079
45767SOL    HW149280   2.702   8.466  10.462  0.8491 -0.7593  0.2842
45767SOL    HW249281   2.572   8.440  10.389  1.0693  1.3935 -0.9545
45768SOL     OW49282   3.871   1.001  13.133 -0.4300  0.1419 -0.0419
45768SOL    HW149283   3.936   1.071  13.135 -0.8838  0.6006 -0.7693
45768SOL    HW249284   3.805   1.031  13.070 -0.3345 -1.2039 -0.8274
45769SOL     OW49285   1.559  11.924  13.255 -0.2333 -0.0045  0.7067
45769SOL    HW149286   1.528  11.941  13.344 -0.7496  0.9416  0.3587
45769SOL    HW249287   1.610  12.001  13.232 -0.8623  0.1636 -0.1476
45770SOL     OW49288   7.317   3.440   6.525  0.8239  0.3938  0.4223
45770SOL    HW149289   7.315   3.355   6.570  0.0881  0.1286 -0.0839
45770SOL    HW249290   7.356   3.421   6.439  0.1877  0.4598  0.1119
45771SOL     OW49291   5.203   8.738  10.741  0.0142 -0.6435 -0.5583
45771SOL    HW149292   5.219   8.650  10.773 -0.1950  0.0630  1.6814
45771SOL    HW249293   5.243   8.795  10.807  0.7998  0.9532 -2.3257
45772SOL     OW49294   6.624   8.531   2.636  0.5642  0.2216 -0.1095
45772SOL    HW149295   6.659   8.619   2.649  0.7235  0.0626  0.5539
45772SOL    HW249296   6.530   8.544   2.624  0.6907  0.5484 -0.8342
45773SOL     OW49297  13.854   7.244   5.340 -0.7370 -0.2249 -0.3675
45773SOL    HW149298  13.914   7.206   5.276  0.6009  1.1248  0.0249
45773SOL    HW249299  13.808   7.169   5.378 -0.0785 -1.2076 -1.4377
45774SOL     OW49300   8.443   1.897   9.776  0.1217  0.0487 -0.1375
45774SOL    HW149301   8.524   1.895   9.726 -0.6237  2.1830 -1.5725
45774SOL    HW249302   8.375   1.871   9.713 -0.5277  0.1275  0.5152
45775SOL     OW49303   2.052   8.360   4.758  0.2916 -0.1707 -0.3173
45775SOL    HW149304   2.013   8.277   4.786 -0.7976  0.2708 -0.4399
45775SOL    HW249305   1.999   8.386   4.682  0.1337  0.9849  0.1618
45776SOL     OW49306  13.376   3.167   7.236 -0.0461 -0.1982 -0.2660
45776SOL    HW149307  13.454   3.171   7.182  1.0717 -0.6164  1.2441
45776SOL    HW249308  13.376   3.248   7.287 -1.6240  0.6590 -1.5424
45777SOL     OW49309   5.566   6.519   0.951  0.5200  0.4497  0.1791
45777SOL    HW149310   5.654   6.484   0.967 -0.0622 -0.9757  0.4685
45777SOL    HW249311   5.576   6.614   0.961  1.6343  0.1920  2.1679
45778SOL     OW49312   2.495  12.135   5.593  0.1761 -0.2446 -0.2051
45778SOL    HW149313   2.470  12.227   5.600  0.1084 -0.0294 -2.5314
45778SOL    HW249314   2.414  12.087   5.613  0.4062  0.1081  1.8404
45779SOL     OW49315  10.123   4.014   0.594  0.1683 -0.0949  0.3781
45779SOL    HW149316  10.171   4.000   0.675  0.5866  2.4850  0.6376
45779SOL    HW249317  10.184   3.984   0.525  1.6415  1.7957  0.7890
45780SOL     OW49318   9.195  11.613   5.326  0.2309  0.7719  0.1946
45780SOL    HW149319   9.106  11.583   5.342 -0.4727  1.8159 -1.4574
45780SOL    HW249320   9.208  11.601   5.232  1.8678  0.5918  0.4075
45781SOL     OW49321   4.627   3.377  13.123 -0.2425 -0.0116  0.5607
45781SOL    HW149322   4.672   3.347  13.044 -1.4312 -2.1373  0.6170
45781SOL    HW249323   4.534   3.367  13.104 -0.5700 -0.1621  2.0747
45782SOL     OW49324   9.534   9.461   9.556 -0.4153 -0.1005  0.0287
45782SOL    HW149325   9.491   9.375   9.559  0.1404 -0.3717  0.7740
45782SOL    HW249326   9.587   9.463   9.636  1.8026 -0.2310 -1.3623
45783SOL     OW49327   5.249   7.946   3.298  0.5400  0.2396 -1.0601
45783SOL    HW149328   5.332   7.932   3.343 -0.6348  0.3161  1.2563
45783SOL    HW249329   5.207   7.860   3.299  0.1094  0.4462 -1.1920
45784SOL     OW49330   7.734   8.717  12.410 -0.1838  0.5217  0.2826
45784SOL    HW149331   7.777   8.712  12.495  0.0065  3.0106  0.3972
45784SOL    HW249332   7.650   8.760  12.427 -0.6687 -0.0237 -0.6245
45785SOL     OW49333   1.755  14.016  11.953 -0.0479  0.2977 -0.1220
45785SOL    HW149334   1.810  13.939  11.938 -0.0460  0.1703  0.5181
45785SOL    HW249335   1.815  14.079  11.994 -0.0697  0.6145 -0.5682
45786SOL     OW49336   2.606   1.326   7.256  0.4909 -0.5974 -0.1338
45786SOL    HW149337   2.540   1.320   7.325  1.9218  0.6797  1.4151
45786SOL    HW249338   2.656   1.244   7.263  0.8617 -0.3146  0.6083
45787SOL     OW49339   8.254   8.576  11.601 -0.3554  0.2130  0.0717
45787SOL    HW149340   8.349   8.589  11.605 -0.2003 -0.5773 -0.5845
45787SOL    HW249341   8.226   8.573  11.693  0.4229 -0.6095  0.2960
45788SOL     OW49342   8.871   7.119   1.613 -0.3250  0.0285 -0.3119
45788SOL    HW149343   8.947   7.173   1.634 -1.1326  0.6654  1.0558
45788SOL    HW249344   8.908   7.032   1.596  0.8304  0.6393 -1.0510
45789SOL     OW49345  10.955  10.353   9.094 -0.3309 -0.0871  0.0546
45789SOL    HW149346  10.946  10.435   9.143  1.5299  0.3837 -0.3059
45789SOL    HW249347  10.951  10.285   9.161 -1.5390  0.2971  0.3981
45790SOL     OW49348   2.800   2.668   1.339 -0.0797  0.5089  0.1825
45790SOL    HW149349   2.716   2.623   1.327 -0.4996  0.5278  2.5540
45790SOL    HW249350   2.793   2.747   1.286 -1.5609  0.5079  0.3366
45791SOL     OW49351   1.441   1.169   1.832 -0.0460 -0.2298 -0.2659
45791SOL    HW149352   1.438   1.262   1.854 -0.9794 -0.1119 -0.8462
45791SOL    HW249353   1.439   1.124   1.916  1.7902  0.2752  0.0886
45792SOL     OW49354   7.850   0.139   7.633 -0.1733 -0.2290 -0.0342
45792SOL    HW149355   7.882   0.060   7.590  1.5416  0.5348 -0.2495
45792SOL    HW249356   7.823   0.197   7.561  1.3755  0.5020 -0.0678
45793SOL     OW49357   7.579  12.011   5.524 -0.0853 -0.4657  0.7640
45793SOL    HW149358   7.617  12.093   5.556  0.2122 -0.6862  0.9817
45793SOL    HW249359   7.595  11.948   5.594 -1.6157 -0.3688  1.2173
45794SOL     OW49360   3.542  12.894   6.247 -0.5663  0.1618 -0.3290
45794SOL    HW149361   3.455  12.909   6.284  0.5481  1.3869  1.9976
45794SOL    HW249362   3.593  12.858   6.319  1.1904  0.6123 -1.2769
45795SOL     OW49363   2.222  10.106  13.548  0.2905 -0.1959  0.8576
45795SOL    HW149364   2.147  10.140  13.596 -0.3915  0.2053 -0.4361
45795SOL    HW249365   2.280  10.181  13.537  0.7977 -0.4512  1.6440
45796SOL     OW49366   6.513   0.402   1.788 -0.3663 -0.0348 -0.2332
45796SOL    HW149367   6.444   0.449   1.835  0.0131  0.7135 -0.4103
45796SOL    HW249368   6.470   0.323   1.756 -0.8796 -0.0834  0.5387
45797SOL     OW49369   7.911   0.944  10.226  0.0902 -0.0123  0.0974
45797SOL    HW149370   7.873   0.912  10.144  1.6310 -0.2413 -0.5534
45797SOL    HW249371   7.895   1.038  10.226 -0.2029 -0.0634 -0.3076
45798SOL     OW49372   8.883   1.373   6.334 -0.2617 -0.5043 -0.3837
45798SOL    HW149373   8.917   1.303   6.279 -0.8776  0.4682 -2.0874
45798SOL    HW249374   8.932   1.451   6.305 -1.5790  0.2789 -0.5590
45799SOL     OW49375  13.391  10.823   9.982  0.0968  0.1754  0.4029
45799SOL    HW149376  13.340  10.780  10.050  1.0727 -0.2568  0.8884
45799SOL    HW249377  13.429  10.751   9.932 -0.1269  0.4910 -0.2366
45800SOL     OW49378   0.579   4.831  11.962 -0.2006  0.3118 -0.0694
45800SOL    HW149379   0.526   4.911  11.953  0.6968  1.2293  2.1477
45800SOL    HW249380   0.642   4.836  11.889 -2.4486 -0.3292 -2.1798
45801SOL     OW49381   2.010   0.814   4.047  0.9330  0.4689  0.4517
45801SOL    HW149382   2.003   0.804   3.952  1.2890 -1.9221  0.5979
45801SOL    HW249383   1.926   0.852   4.073 -1.0957 -2.9191 -0.4726
45802SOL     OW49384   2.144   7.874   8.523 -0.3196  0.0735  0.1204
45802SOL    HW149385   2.218   7.849   8.577  1.1807  1.2133 -1.3113
45802SOL    HW249386   2.160   7.966   8.502 -0.5563 -0.4328 -2.6239
45803SOL     OW49387   6.037   7.255   0.193  0.2701 -0.3305 -0.3479
45803SOL    HW149388   5.959   7.233   0.143  0.2339  0.5669 -0.6967
45803SOL    HW249389   6.109   7.218   0.141  0.0495 -1.9317  0.4116
45804SOL     OW49390  10.915  12.942   0.170  0.5636  0.0578  0.4577
45804SOL    HW149391  10.936  12.849   0.179 -0.5654 -0.4230 -1.4149
45804SOL    HW249392  10.829  12.943   0.128  0.4931  1.9577  0.5841
45805SOL     OW49393   8.078   4.507   1.927  0.5023  0.3594  0.6118
45805SOL    HW149394   8.119   4.540   2.008 -0.4226  0.4609  1.0581
45805SOL    HW249395   8.057   4.587   1.878 -0.4752  0.3867  1.0564
45806SOL     OW49396  12.206   7.509   8.231 -0.3970  0.7456  0.4326
45806SOL    HW149397  12.222   7.513   8.325  0.5067 -1.0087  0.3877
45806SOL    HW249398  12.118   7.472   8.223 -0.3974  0.7156  0.5791
45807SOL     OW49399   8.019   9.046  10.090  0.4971  0.0604  0.1631
45807SOL    HW149400   7.932   9.007  10.080  0.2975  0.0848  1.5577
45807SOL    HW249401   8.003   9.127  10.138  1.3697 -0.4380  1.3582
45808SOL     OW49402  10.175   8.763   1.617  0.1475  0.3769  0.4311
45808SOL    HW149403  10.119   8.708   1.672  0.5439  0.2534  0.7198
45808SOL    HW249404  10.192   8.710   1.539 -2.8783  1.6697 -1.2778
45809SOL     OW49405   9.704   4.298   4.907  0.4116 -0.0811  0.2130
45809SOL    HW149406   9.797   4.288   4.930  0.3475 -0.3712  0.3458
45809SOL    HW249407   9.684   4.390   4.928  0.4601 -0.2312  0.9349
45810SOL     OW49408   2.718   7.527  13.479  0.0386 -0.5431  0.1862
45810SOL    HW149409   2.654   7.539  13.409 -0.8770 -0.0309  1.0832
45810SOL    HW249410   2.801   7.554  13.440 -0.5404  0.2103 -0.5586
45811SOL     OW49411   7.206  10.958   6.744  0.9546 -0.5211 -0.2312
45811SOL    HW149412   7.173  10.934   6.658 -0.4993 -0.1945  0.2014
45811SOL    HW249413   7.135  10.936   6.804  2.1292 -1.2173  0.9709
45812SOL     OW49414  12.377   4.367   0.507  0.3292 -0.3537  0.5204
45812SOL    HW149415  12.397   4.359   0.414 -1.0814  0.1396  0.1487
45812SOL    HW249416  12.375   4.277   0.539  0.2645 -0.5624 -0.0561
45813SOL     OW49417   0.070   8.904   2.257  0.5205 -0.4858  0.1866
45813SOL    HW149418   0.069   8.834   2.193  0.7174 -0.2200 -0.1106
45813SOL    HW249419   0.134   8.967   2.223 -0.4862  0.3882 -0.1467
45814SOL     OW49420   9.499   0.803   0.819 -0.1381 -0.2382  0.8854
45814SOL    HW149421   9.451   0.883   0.799  0.2072 -0.6172 -1.9540
45814SOL    HW249422   9.434   0.746   0.861 -1.4864  0.1995 -0.4978
45815SOL     OW49423  12.389  12.117   9.088 -0.3953  0.0508  0.1936
45815SOL    HW149424  12.443  12.072   9.023 -0.4534 -0.1607  0.2907
45815SOL    HW249425  12.308  12.066   9.093 -0.8365  0.6892 -0.3588
45816SOL     OW49426   7.105   1.176  12.227  0.0382  0.3123 -0.2323
45816SOL    HW149427   7.175   1.194  12.165 -2.0418  3.3402 -1.9610
45816SOL    HW249428   7.125   1.233  12.302  0.7061 -0.7431  0.4179
45817SOL     OW49429  12.194   2.764   1.131 -0.1142  0.4622 -0.2062
45817SOL    HW149430  12.280   2.792   1.100  0.8679  0.2697  2.1135
45817SOL    HW249431  12.135   2.834   1.102  1.0184  1.1908 -0.8560
45818SOL     OW49432   7.144   2.667   8.997  0.2392 -0.2674  0.3905
45818SOL    HW149433   7.077   2.711   8.945 -1.9745 -2.1883  1.4464
45818SOL    HW249434   7.149   2.718   9.078 -0.8418 -0.7758  0.7891
45819SOL     OW49435  12.363  10.575   0.749  0.5223  0.2068  0.0354
45819SOL    HW149436  12.437  10.580   0.810  0.5669 -0.3986  0.0367
45819SOL    HW249437  12.372  10.489   0.707  0.0825  0.3214 -0.3005
45820SOL     OW49438   3.695   7.940   8.830  0.0872  0.2401 -0.3821
45820SOL    HW149439   3.716   7.859   8.877 -0.3675  0.6621  0.5812
45820SOL    HW249440   3.712   8.009   8.894 -0.0428  0.8647 -1.0199
45821SOL     OW49441   4.627  13.988  13.977  0.0394 -0.5060 -0.6464
45821SOL    HW149442   4.670  14.047  14.040 -1.1912  0.1600 -0.4110
45821SOL    HW249443   4.697  13.963  13.917  0.7860  0.4959 -0.2262
45822SOL     OW49444   1.021   3.918   7.308  0.5072  0.0077 -0.4949
45822SOL    HW149445   0.944   3.912   7.364  0.2287 -1.8121 -0.9946
45822SOL    HW249446   1.067   3.835   7.321  1.5377  0.4077 -1.3906
45823SOL     OW49447   4.617   7.158   6.323 -0.0006  0.3746  0.3799
45823SOL    HW149448   4.684   7.150   6.391  0.5091  0.1922 -0.1343
45823SOL    HW249449   4.540   7.114   6.359 -0.0030  1.0250  1.1811
45824SOL     OW49450  13.933  11.473   0.495 -0.4287 -0.7056  0.2569
45824SOL    HW149451  13.949  11.379   0.493 -0.7394 -0.7525 -0.1322
45824SOL    HW249452  13.877  11.489   0.419  1.4505  0.1287 -1.0448
45825SOL     OW49453  10.284   4.832   2.005 -0.3780 -0.0046 -0.0868
45825SOL    HW149454  10.190   4.837   1.989 -0.3230  1.0544 -0.1358
45825SOL    HW249455  10.309   4.921   2.028  0.7358 -0.1495 -0.7044
45826SOL     OW49456   4.279  13.495  10.697  0.2218 -0.9146 -0.1912
45826SOL    HW149457   4.197  13.516  10.652  0.8983 -2.8008 -2.5495
45826SOL    HW249458   4.252  13.457  10.781 -1.2842 -0.8796 -0.6353
45827SOL     OW49459  12.721   3.829  10.211  0.2268  0.1121  0.1311
45827SOL    HW149460  12.730   3.917  10.174 -2.2251  0.3686 -0.0596
45827SOL    HW249461  12.645   3.792  10.165  1.4737 -2.3167 -0.1410
45828SOL     OW49462   5.794   5.010   0.276  0.0382  0.0068 -0.3819
45828SOL    HW149463   5.777   5.050   0.190 -1.4855 -2.4573 -1.3523
45828SOL    HW249464   5.888   5.014   0.287  0.3286 -0.0560 -2.4537
45829SOL     OW49465  11.112  10.920   6.765 -0.5605  0.3142 -0.2504
45829SOL    HW149466  11.079  10.978   6.697 -1.3477 -0.7542 -0.8116
45829SOL    HW249467  11.187  10.875   6.724 -0.6641  0.1076 -0.2159
45830SOL     OW49468  13.957  11.419   3.698  0.8688  0.7515  0.4072
45830SOL    HW149469  13.871  11.395   3.664  0.6361  0.2264  1.3601
45830SOL    HW249470  14.019  11.381   3.635  0.4154  1.2998 -0.3859
45831SOL     OW49471  13.976  13.052   5.396  0.0565 -0.2215 -0.5418
45831SOL    HW149472  14.030  12.978   5.366  0.2771  0.6524 -2.4281
45831SOL    HW249473  14.039  13.117   5.425 -0.0163  0.1770 -1.2468
45832SOL     OW49474   1.025   1.585   5.623 -0.1195 -0.0005 -0.5064
45832SOL    HW149475   1.102   1.539   5.660  0.2863 -0.7008 -2.1445
45832SOL    HW249476   0.956   1.519   5.623 -0.6349  0.5140  0.5903
45833SOL     OW49477   2.745   4.043  13.248 -0.6990  0.4925  0.4616
45833SOL    HW149478   2.701   4.123  13.220 -0.8949  0.0444 -0.5388
45833SOL    HW249479   2.830   4.047  13.205 -0.3791  0.5457  1.0737
45834SOL     OW49480   5.895   0.774   1.427  0.3750  0.1449 -0.2308
45834SOL    HW149481   5.840   0.695   1.424  0.6306 -0.0368 -0.1760
45834SOL    HW249482   5.901   0.802   1.336 -0.7014  0.7895 -0.1123
45835SOL     OW49483  12.130   8.592   5.913 -0.1110 -0.0153  0.1921
45835SOL    HW149484  12.086   8.507   5.914 -0.4843  0.1818  0.8939
45835SOL    HW249485  12.150   8.607   5.821  1.2523 -1.5280  0.1724
45836SOL     OW49486   8.140   8.003  12.732  0.0592 -0.3588 -0.1117
45836SOL    HW149487   8.215   7.980  12.677  1.6940  1.5034  1.1727
45836SOL    HW249488   8.064   7.994  12.674  1.0955 -3.3160 -1.1678
45837SOL     OW49489   7.013  10.147   0.298 -0.1277 -0.4415  0.1095
45837SOL    HW149490   7.027  10.160   0.205 -1.3567 -1.1286 -0.1849
45837SOL    HW249491   7.002  10.235   0.334 -1.0699 -0.2537 -0.6272
45838SOL     OW49492   7.257  11.983   7.794 -0.2537 -0.1117 -0.2669
45838SOL    HW149493   7.234  12.062   7.843 -0.4129 -1.4884  2.0628
45838SOL    HW249494   7.327  11.943   7.846 -1.4967 -2.4665 -0.2877
45839SOL     OW49495  11.632   4.014   4.542 -0.5456 -0.2819  0.2696
45839SOL    HW149496  11.727   4.018   4.548 -0.3719 -1.0802 -1.2350
45839SOL    HW249497  11.603   3.980   4.627  0.7866 -2.7869 -0.1661
45840SOL     OW49498   5.511   4.003   3.538 -0.1647  0.3873  0.9867
45840SOL    HW149499   5.436   3.956   3.576  0.0818 -1.3397 -0.5067
45840SOL    HW249500   5.489   4.095   3.547 -2.6319 -0.0728  0.3697
45841SOL     OW49501   9.377   2.506   2.774 -0.1105 -0.2099  0.2463
45841SOL    HW149502   9.439   2.445   2.735  0.3808 -0.2715  1.0995
45841SOL    HW249503   9.428   2.585   2.789 -0.2035 -0.2978  1.0599
45842SOL     OW49504   8.462   7.818   6.826  0.5299 -0.0040  0.2983
45842SOL    HW149505   8.532   7.757   6.805  1.0271  0.9683 -0.9648
45842SOL    HW249506   8.437   7.856   6.742 -0.1602  1.1079  0.9794
45843SOL     OW49507   5.635  12.018   5.640  0.4495  0.0201 -0.0624
45843SOL    HW149508   5.624  11.940   5.586 -4.7931 -0.1141  0.6551
45843SOL    HW249509   5.649  12.089   5.577  2.7739 -1.0687 -0.8799
45844SOL     OW49510  13.896   8.924   3.970  0.3653 -0.3124 -0.0652
45844SOL    HW149511  13.836   8.938   4.043  0.9195 -1.3122  0.6111
45844SOL    HW249512  13.983   8.932   4.008  0.6742 -1.6077 -0.4221
45845SOL     OW49513   1.696   5.767   8.281 -0.2187  0.0287 -0.2456
45845SOL    HW149514   1.777   5.766   8.333  0.2277 -0.1943 -0.9307
45845SOL    HW249515   1.631   5.807   8.339 -0.0372 -1.2885  0.9359
45846SOL     OW49516   0.079   5.413  13.145  0.3217  0.4600 -0.1119
45846SOL    HW149517   0.008   5.472  13.167 -1.3686 -1.3806 -0.3620
45846SOL    HW249518   0.157   5.454  13.183 -1.1385  1.6745  1.7541
45847SOL     OW49519  13.576   6.762  10.830 -0.5695 -0.5241 -0.3564
45847SOL    HW149520  13.545   6.834  10.885 -0.7540  0.1293 -1.2886
45847SOL    HW249521  13.668   6.782  10.813  0.0194 -1.7197  1.2463
45848SOL     OW49522  12.678   5.374   2.698 -0.2067  0.1182  0.1835
45848SOL    HW149523  12.749   5.427   2.736  0.4193 -1.1690  0.8502
45848SOL    HW249524  12.614   5.439   2.669  1.3416  1.3409 -0.6955
45849SOL     OW49525  12.050   4.817   3.203 -0.2801  0.1759 -0.6926
45849SOL    HW149526  12.008   4.733   3.217  0.6524 -0.2401 -0.2845
45849SOL    HW249527  12.100   4.832   3.284  0.3247  0.6541 -1.1462
45850SOL     OW49528   2.163   2.748   5.606  0.0737  0.3139  0.0837
45850SOL    HW149529   2.110   2.677   5.570 -0.6681  0.9901 -0.1930
45850SOL    HW249530   2.138   2.752   5.698  0.9658 -0.5180  0.3855
45851SOL     OW49531  12.103  12.859   3.862  0.6407 -0.1462  0.1970
45851SOL    HW149532  12.087  12.766   3.873  0.3045 -0.0474  0.5494
45851SOL    HW249533  12.135  12.889   3.947 -0.3474  0.2832  0.4299
45852SOL     OW49534   2.331  13.608   5.786 -0.7991  0.0630 -0.6727
45852SOL    HW149535   2.370  13.610   5.873 -2.4102  2.2835  0.0892
45852SOL    HW249536   2.381  13.671   5.735 -1.9603  1.3193 -0.3122
45853SOL     OW49537  11.005  11.372   2.452 -0.1988 -0.0383 -0.1540
45853SOL    HW149538  11.075  11.395   2.391 -0.8188  0.3860 -0.7135
45853SOL    HW249539  11.012  11.277   2.462 -0.5071 -0.2029 -1.4021
45854SOL     OW49540   3.176   7.661  11.470  0.5673 -0.1994  0.1091
45854SOL    HW149541   3.126   7.595  11.421 -0.7107 -1.1457  2.5418
45854SOL    HW249542   3.145   7.745  11.435  0.4551 -0.8258 -1.3790
45855SOL     OW49543   7.965   8.049   6.715 -0.1606 -0.2599 -0.4554
45855SOL    HW149544   8.005   8.026   6.798 -0.1637 -0.8555 -0.6102
45855SOL    HW249545   8.038   8.057   6.654 -0.1580  0.1796 -0.3946
45856SOL     OW49546   2.557   3.700   4.156  0.2157 -1.2040 -0.2716
45856SOL    HW149547   2.598   3.780   4.190 -0.7145 -1.7425  2.3196
45856SOL    HW249548   2.513   3.728   4.076  0.6284  0.6842  0.1208
45857SOL     OW49549   1.405   7.672   2.142  0.3805  0.2507  0.7759
45857SOL    HW149550   1.449   7.736   2.087  1.6486 -0.3968  1.0173
45857SOL    HW249551   1.468   7.602   2.153 -0.0407  0.1196  2.6188
45858SOL     OW49552  12.122  12.716  13.020  0.0269  0.2221 -0.0119
45858SOL    HW149553  12.175  12.644  13.055 -1.1549 -1.0101 -0.6681
45858SOL    HW249554  12.044  12.674  12.986 -0.1371  1.6810 -1.5687
45859SOL     OW49555   8.325  13.811   0.523 -0.4005 -0.0012  0.7212
45859SOL    HW149556   8.354  13.808   0.431 -0.8342  0.4934  0.5634
45859SOL    HW249557   8.302  13.903   0.538  2.8355  0.6995  2.3224
45860SOL     OW49558  12.569   8.980   8.122  0.0591  0.4184  0.4391
45860SOL    HW149559  12.621   8.976   8.042  0.4097 -0.6178  0.7036
45860SOL    HW249560  12.480   8.959   8.093  0.4287 -1.4543  0.5045
45861SOL     OW49561  12.132  10.453   7.074 -0.0848  0.2404  0.2382
45861SOL    HW149562  12.119  10.400   6.996  1.0212 -1.3395  1.0670
45861SOL    HW249563  12.227  10.463   7.081 -0.1605  0.3624  1.3686
45862SOL     OW49564   0.594   6.408  13.570 -0.0103  0.2483  0.1160
45862SOL    HW149565   0.640   6.492  13.576 -1.8377  1.2971  0.1637
45862SOL    HW249566   0.601   6.370  13.657 -0.0959  0.8482  0.3824
45863SOL     OW49567   4.700   9.317  10.796 -0.0951  0.4514  0.0815
45863SOL    HW149568   4.707   9.258  10.871  0.7781 -1.3956 -1.3601
45863SOL    HW249569   4.668   9.261  10.725  0.1511  1.8823 -1.2082
45864SOL     OW49570  13.668  13.492  13.429 -0.0512 -0.0382  0.2394
45864SOL    HW149571  13.584  13.529  13.456 -1.1918 -0.8433 -1.9386
45864SOL    HW249572  13.732  13.560  13.449 -1.4024  1.1243  0.7592
45865SOL     OW49573   8.341   0.792   3.669 -0.3842  0.1376  0.6824
45865SOL    HW149574   8.384   0.765   3.588  0.2094  1.5370  0.5030
45865SOL    HW249575   8.352   0.887   3.671 -0.7118  0.1633  2.2243
45866SOL     OW49576   8.717  13.667   3.534 -0.1274 -0.7382  0.3768
45866SOL    HW149577   8.672  13.680   3.451  1.4990 -0.6503 -0.5465
45866SOL    HW249578   8.698  13.746   3.584  0.3056  0.0336 -0.6312
45867SOL     OW49579  13.986  13.181   7.712 -0.2809 -0.0065 -0.4360
45867SOL    HW149580  14.044  13.252   7.686  0.6869 -0.9989 -1.0350
45867SOL    HW249581  13.942  13.155   7.632  0.1980 -0.8192 -0.4444
45868SOL     OW49582   3.104  10.698   1.610  0.0484 -0.0657 -0.3283
45868SOL    HW149583   3.183  10.650   1.588 -1.2500 -2.2261 -0.5922
45868SOL    HW249584   3.122  10.788   1.583  3.3954  0.2037  2.1881
45869SOL     OW49585  13.447  11.511   2.277 -0.5202  0.1735 -0.1865
45869SOL    HW149586  13.539  11.497   2.255 -0.2332  0.5275  0.7408
45869SOL    HW249587  13.419  11.430   2.318 -0.4997  0.2060 -0.1066
45870SOL     OW49588   2.075  11.080   4.289 -0.2733 -0.2347  0.4515
45870SOL    HW149589   2.027  11.008   4.248 -0.3506 -0.4309  0.8780
45870SOL    HW249590   2.134  11.037   4.351 -0.1571  0.0555  0.5420
45871SOL     OW49591   9.679  14.004   3.959  0.3342 -0.7586  0.0582
45871SOL    HW149592   9.690  13.989   4.053  0.6356  0.1447  0.1770
45871SOL    HW249593   9.666  14.098   3.951  2.9633 -0.3996 -1.0326
45872SOL     OW49594   4.920   8.933  12.598  0.3494 -0.4408  0.0068
45872SOL    HW149595   4.905   8.917  12.691 -0.3559  1.3357  0.2347
45872SOL    HW249596   4.972   9.014  12.596  2.0731 -1.4966 -1.1092
45873SOL     OW49597   0.609   1.264   5.100 -0.0276  0.3204  0.2614
45873SOL    HW149598   0.662   1.236   5.174  0.9971  0.2094 -0.4832
45873SOL    HW249599   0.557   1.187   5.077 -0.8776  0.5752  1.2979
45874SOL     OW49600   7.011  12.542  11.119 -0.6249  0.0263  0.6134
45874SOL    HW149601   7.079  12.481  11.091 -1.0493  0.1400 -0.7531
45874SOL    HW249602   6.988  12.590  11.039 -0.6480  1.6280  1.5386
45875SOL     OW49603   5.218   4.273   2.117  0.7418  0.2426 -0.3045
45875SOL    HW149604   5.128   4.241   2.123  0.3522  1.1256 -1.1951
45875SOL    HW249605   5.226   4.336   2.188  1.6887 -2.1071  1.8252
45876SOL     OW49606  12.646  13.759   8.319 -0.2917 -0.3757 -0.2867
45876SOL    HW149607  12.599  13.833   8.357 -0.4893 -1.0713  0.8811
45876SOL    HW249608  12.737  13.787   8.318 -0.2886 -0.3197  0.6810
45877SOL     OW49609   6.712   1.323   5.756  0.3840 -0.1671 -0.4505
45877SOL    HW149610   6.682   1.381   5.826  0.2944  0.1386 -0.7438
45877SOL    HW249611   6.648   1.251   5.755 -0.4203  0.5375 -1.1492
45878SOL     OW49612  11.966   6.342  13.841 -0.2544  0.0921  0.1506
45878SOL    HW149613  11.939   6.425  13.881 -2.3185 -0.5210  0.1471
45878SOL    HW249614  11.979   6.283  13.915 -0.2940  0.0055  0.0889
45879SOL     OW49615   7.614  11.575   7.343 -0.3395  0.3788 -0.0667
45879SOL    HW149616   7.543  11.571   7.278  0.2482 -1.5405 -0.6785
45879SOL    HW249617   7.570  11.562   7.427 -0.7477 -0.9927 -0.4565
45880SOL     OW49618  13.505   4.195   4.432 -0.5016 -0.4159 -0.0166
45880SOL    HW149619  13.503   4.194   4.527 -0.2168  0.1312  0.0024
45880SOL    HW249620  13.435   4.255   4.407  1.5130  2.1162 -0.0206
45881SOL     OW49621   6.699   4.963   6.690 -0.1316 -0.1335 -0.3698
45881SOL    HW149622   6.703   4.870   6.667  0.4533 -0.7616  2.0165
45881SOL    HW249623   6.790   4.993   6.686 -0.2396  0.1843 -0.5064
45882SOL     OW49624   2.493   5.032   5.129 -0.3119 -0.5221 -0.1626
45882SOL    HW149625   2.522   5.118   5.100 -1.2458 -0.0339  0.2785
45882SOL    HW249626   2.566   4.997   5.180 -0.6126  0.8613  1.3093
45883SOL     OW49627   5.314   8.471   4.133 -0.5616 -0.1911 -0.4192
45883SOL    HW149628   5.229   8.494   4.170 -0.5729  0.2661 -0.7193
45883SOL    HW249629   5.375   8.534   4.170 -0.0211 -1.5885  1.1510
45884SOL     OW49630   3.604   2.420   1.098 -0.6608  0.0155 -0.7447
45884SOL    HW149631   3.676   2.448   1.041  0.1102 -1.0390 -0.3292
45884SOL    HW249632   3.644   2.416   1.185 -1.5648  0.6360 -0.2956
45885SOL     OW49633   9.730   0.314  12.644 -0.0307 -0.4548  0.4114
45885SOL    HW149634   9.787   0.378  12.686  2.2632 -1.4710 -0.9418
45885SOL    HW249635   9.713   0.351  12.557 -0.0024 -0.9500  0.1920
45886SOL     OW49636   7.280   0.370  13.469 -0.3009  0.0417 -0.6361
45886SOL    HW149637   7.310   0.287  13.431  1.2609  0.0036  0.5779
45886SOL    HW249638   7.288   0.357  13.564  0.5346  1.7662 -0.4452
45887SOL     OW49639   8.775   5.290   7.181  0.2511  0.5847 -0.0206
45887SOL    HW149640   8.683   5.312   7.175  0.4820  1.1820 -2.2956
45887SOL    HW249641   8.814   5.359   7.234 -0.6468  0.1270  1.2543
45888SOL     OW49642   0.826   6.022   6.383  0.2273  0.0216 -0.3502
45888SOL    HW149643   0.860   5.954   6.442 -0.4558  1.3751  1.7427
45888SOL    HW249644   0.840   6.103   6.431 -0.1257  1.2436 -2.2353
45889SOL     OW49645   5.287  12.879   3.850  0.3041 -0.1483 -0.3701
45889SOL    HW149646   5.266  12.887   3.943  2.2702  2.0177 -0.0114
45889SOL    HW249647   5.284  12.785   3.833  1.1529 -0.7356  2.2410
45890SOL     OW49648  12.481   6.408   6.041  0.1128 -0.1131 -0.1507
45890SOL    HW149649  12.548   6.464   6.080  0.9455 -0.1749 -1.4181
45890SOL    HW249650  12.441   6.462   5.973 -0.4530 -0.3980 -0.0503
45891SOL     OW49651   9.254  12.281   3.330  0.3224 -0.1198 -0.3850
45891SOL    HW149652   9.293  12.315   3.411 -1.7345 -1.2207  1.1365
45891SOL    HW249653   9.310  12.207   3.306  0.3242 -0.4639  0.6436
45892SOL     OW49654   4.592   0.441  10.080 -0.1446  0.2864  0.1309
45892SOL    HW149655   4.531   0.418  10.010 -0.4561 -0.2577  0.5748
45892SOL    HW249656   4.672   0.391  10.058 -0.2618  0.0699  0.1953
45893SOL     OW49657   7.596  11.710   1.220 -0.0795  0.7343 -0.6315
45893SOL    HW149658   7.637  11.677   1.300 -0.6507 -0.3847 -0.7793
45893SOL    HW249659   7.555  11.792   1.247  1.2712  1.3021 -0.2289
45894SOL     OW49660   9.703  11.745   7.994  0.5140 -0.2855  0.4626
45894SOL    HW149661   9.798  11.753   7.996  0.6593 -1.5249 -0.7310
45894SOL    HW249662   9.681  11.740   7.901 -0.6781 -0.4540  0.7436
45895SOL     OW49663   0.590   0.159  13.467  0.1953 -0.1337 -0.9384
45895SOL    HW149664   0.513   0.124  13.513  0.3413  0.5687 -0.1408
45895SOL    HW249665   0.554   0.218  13.401  0.0450  0.1442 -0.6093
45896SOL     OW49666  10.679   5.314  10.996 -0.0689 -0.3907  0.4730
45896SOL    HW149667  10.719   5.384  10.944  1.1760 -0.7614  0.8946
45896SOL    HW249668  10.746   5.290  11.060 -1.3862 -0.3058  1.9334
45897SOL     OW49669   2.300   6.086   2.090 -0.8236  0.1829  0.0856
45897SOL    HW149670   2.276   6.150   2.024 -0.0825  1.1648  0.7496
45897SOL    HW249671   2.218   6.039   2.109 -1.0862  0.0252 -1.3494
45898SOL     OW49672   9.074   7.457   6.700 -0.3270 -0.3327  0.2837
45898SOL    HW149673   9.023   7.524   6.654  0.3454 -1.0845 -1.6895
45898SOL    HW249674   9.019   7.429   6.773 -0.3203  2.8577  1.6585
45899SOL     OW49675  10.917   6.513   4.107 -0.1889  0.0822 -0.6063
45899SOL    HW149676  10.957   6.426   4.103  0.6510  0.4106  0.2300
45899SOL    HW249677  10.935   6.543   4.196 -2.2030  0.3142 -0.2263
45900SOL     OW49678  12.654  11.964   3.763 -0.4215 -0.0999 -0.1901
45900SOL    HW149679  12.673  11.948   3.855  0.1165 -1.0456 -0.4515
45900SOL    HW249680  12.695  12.049   3.744 -0.2046 -0.0833  0.3435
45901SOL     OW49681  12.334   7.327   7.551 -0.1073  0.1756  0.2507
45901SOL    HW149682  12.422   7.309   7.585 -0.9640 -1.7093  1.6376
45901SOL    HW249683  12.345   7.406   7.498  2.3252  0.2580  0.7463
45902SOL     OW49684   2.305   8.843   6.223  0.1105 -0.1683  0.6192
45902SOL    HW149685   2.389   8.867   6.185  0.0794 -1.7577 -0.5086
45902SOL    HW249686   2.243   8.904   6.183  0.3513 -0.6660 -0.5605
45903SOL     OW49687  11.829   4.739  12.278  0.5091 -0.6986  0.0702
45903SOL    HW149688  11.894   4.733  12.348  0.9694 -1.1757 -0.3865
45903SOL    HW249689  11.819   4.833  12.262 -0.1625 -0.5346  1.2753
45904SOL     OW49690   6.556  13.293   4.656  0.4310  0.3964 -0.1727
45904SOL    HW149691   6.572  13.200   4.671 -0.9232  0.1872  0.1146
45904SOL    HW249692   6.497  13.295   4.580  0.5275  1.0329 -0.2385
45905SOL     OW49693   4.373   2.042  12.437  0.4275  0.0301  0.2264
45905SOL    HW149694   4.425   2.073  12.510  0.4978 -2.1330  1.1683
45905SOL    HW249695   4.354   2.121  12.386 -0.3780  1.7871  3.0092
45906SOL     OW49696   5.223   6.323   2.946  0.3267 -0.6355  0.1583
45906SOL    HW149697   5.290   6.257   2.959  2.0872  1.2501  1.2832
45906SOL    HW249698   5.251   6.372   2.869  0.2813  0.1475  0.6202
45907SOL     OW49699   2.707   6.915   3.071 -0.1434  0.4985 -0.1042
45907SOL    HW149700   2.703   6.836   3.124  0.5844 -0.9165 -2.0546
45907SOL    HW249701   2.796   6.917   3.036 -0.8542  0.7986 -2.0572
45908SOL     OW49702  10.276   6.082   9.432 -0.2701  0.2244  0.0065
45908SOL    HW149703  10.227   6.021   9.486  1.0417 -0.0719  0.9075
45908SOL    HW249704  10.351   6.032   9.400 -0.1805  0.8409 -0.7941
45909SOL     OW49705  13.508   2.917   6.245  0.1436 -0.3849 -0.3888
45909SOL    HW149706  13.537   2.827   6.263  1.8422 -0.0113 -1.0425
45909SOL    HW249707  13.413   2.912   6.248  0.1562 -2.4188 -1.2962
45910SOL     OW49708   7.699   9.501  13.345 -0.0113  0.4476  0.0092
45910SOL    HW149709   7.692   9.590  13.379  1.6267  0.7087 -0.2484
45910SOL    HW249710   7.740   9.511  13.259 -0.2149 -0.5168 -0.2115
45911SOL     OW49711   1.137   4.049   8.097  0.1520 -0.0061  0.2321
45911SOL    HW149712   1.057   4.083   8.137 -0.1449  0.6564 -0.8997
45911SOL    HW249713   1.143   3.959   8.129 -2.5213 -0.9894 -1.7021
45912SOL     OW49714  13.809   1.976  12.191  0.4922  0.3105 -0.6026
45912SOL    HW149715  13.826   1.894  12.145 -0.8345 -0.5534  0.3728
45912SOL    HW249716  13.740   2.019  12.140 -1.2729 -0.8385  0.6888
45913SOL     OW49717   6.260  12.437   0.647 -0.3112  0.1338 -0.2351
45913SOL    HW149718   6.317  12.359   0.652  0.8799  1.0286  1.2487
45913SOL    HW249719   6.297  12.489   0.577  0.0795  0.2329  0.0403
45914SOL     OW49720   5.698  10.192   6.956  0.5018 -0.4727  0.1835
45914SOL    HW149721   5.757  10.209   6.882  0.7047 -2.1311 -0.0756
45914SOL    HW249722   5.743  10.124   7.007 -0.4415 -0.5894  0.8807
45915SOL     OW49723  12.222   4.904  12.372 -0.4252 -0.1565 -0.1120
45915SOL    HW149724  12.183   4.828  12.415 -1.6896  0.5898  0.1206
45915SOL    HW249725  12.207   4.891  12.279 -3.3265  1.1364  0.0645
45916SOL     OW49726   8.017   9.064   1.653  0.5955 -0.4476  0.4372
45916SOL    HW149727   8.112   9.075   1.656  0.7106 -0.5879 -1.3975
45916SOL    HW249728   8.003   8.970   1.670  0.9788 -0.8549 -1.3036
45917SOL     OW49729  11.220  12.387   1.605  0.3642  0.2633  0.2380
45917SOL    HW149730  11.256  12.318   1.549  2.1631 -0.9586  2.7060
45917SOL    HW249731  11.234  12.355   1.694  0.0275  3.2462  1.4824
45918SOL     OW49732   8.004   6.523   5.104 -0.2838 -0.4853  0.9077
45918SOL    HW149733   8.038   6.605   5.070 -2.4891  1.0038  2.0716
45918SOL    HW249734   8.069   6.495   5.169  0.1582  0.6818  0.9918
45919SOL     OW49735   8.834   5.268  12.957 -0.2564 -0.4362 -0.6827
45919SOL    HW149736   8.924   5.258  12.924 -0.5182 -1.3003 -1.1888
45919SOL    HW249737   8.804   5.350  12.919  0.0483 -0.5524 -1.1960
45920SOL     OW49738  10.397   2.604  10.155 -0.1814  0.2875 -0.3665
45920SOL    HW149739  10.481   2.561  10.172 -1.1164 -1.4081  0.1678
45920SOL    HW249740  10.339   2.571  10.223 -1.1460  1.8891 -0.3797
45921SOL     OW49741  11.058  10.646   2.619 -0.0413  0.5324 -0.2157
45921SOL    HW149742  11.045  10.733   2.656 -3.1544 -0.4079  1.2453
45921SOL    HW249743  11.123  10.659   2.549 -0.4663  4.0029 -0.1350
45922SOL     OW49744   7.261   8.763  11.769  0.6874 -0.2662  0.1557
45922SOL    HW149745   7.332   8.775  11.831  0.6687 -0.7659  0.2713
45922SOL    HW249746   7.303   8.731  11.689  0.8149  1.0761 -0.3592
45923SOL     OW49747   0.263  13.447   6.796 -0.0048  0.8034 -0.6996
45923SOL    HW149748   0.256  13.489   6.882  1.0151 -0.9529  0.2962
45923SOL    HW249749   0.355  13.422   6.789  0.1374  1.6263 -2.7090
45924SOL     OW49750   1.649   7.444   4.394 -0.1332  0.5347  0.0202
45924SOL    HW149751   1.657   7.533   4.429 -1.6561  1.4424 -1.7562
45924SOL    HW249752   1.689   7.449   4.307 -0.5257 -0.4302 -0.2285
45925SOL     OW49753   8.131   1.699   3.066  0.2017 -0.0237  0.1874
45925SOL    HW149754   8.220   1.735   3.056  0.5270 -0.9983 -0.6757
45925SOL    HW249755   8.078   1.750   3.004  0.3116  0.0969  0.1914
45926SOL     OW49756  12.426   3.486   8.378  0.2367  0.4234 -0.2252
45926SOL    HW149757  12.331   3.490   8.373  0.0787  2.0061  2.3696
45926SOL    HW249758  12.446   3.392   8.378 -1.2805  0.0762 -1.1439
45927SOL     OW49759   7.675   3.386   6.431 -0.4013  0.0381 -0.7593
45927SOL    HW149760   7.720   3.468   6.452  1.1262 -0.3225 -2.3411
45927SOL    HW249761   7.670   3.339   6.514  2.1551  0.1568 -0.4661
45928SOL     OW49762   6.174  10.946  12.773 -0.5105 -0.2543 -0.0896
45928SOL    HW149763   6.214  10.968  12.689 -2.2642 -2.5753 -1.6713
45928SOL    HW249764   6.245  10.904  12.823  0.1286 -0.4061 -1.1037
45929SOL     OW49765   8.307  10.229   3.496  0.2077 -0.5263  0.2474
45929SOL    HW149766   8.273  10.196   3.579  2.0566 -1.3341  0.7338
45929SOL    HW249767   8.397  10.198   3.493  0.6725  0.8423 -1.3377
45930SOL     OW49768   7.567  10.369   0.348 -0.3079 -0.6429  0.4718
45930SOL    HW149769   7.645  10.315   0.365 -0.6395 -0.8457  1.3936
45930SOL    HW249770   7.555  10.419   0.428 -0.8819 -0.2925  0.1691
45931SOL     OW49771   6.606   6.838   7.119  0.6612 -0.3214 -0.4284
45931SOL    HW149772   6.537   6.853   7.183  1.2109 -0.7316  0.2691
45931SOL    HW249773   6.559   6.810   7.040  0.1027 -2.0906  0.4825
45932SOL     OW49774  13.308  12.919   2.094 -0.3017  0.5514 -0.3696
45932SOL    HW149775  13.272  12.879   2.173  2.4086  0.2228  0.8068
45932SOL    HW249776  13.251  12.995   2.078 -0.4259  1.1799  2.4768
45933SOL     OW49777  11.045   2.926  10.487 -0.0766 -0.0545 -0.6898
45933SOL    HW149778  11.122   2.956  10.536  0.4198  0.4318 -1.7348
45933SOL    HW249779  11.019   2.846  10.531 -0.2883  0.9068  1.0205
45934SOL     OW49780   7.876   5.773   4.902  0.2220  0.3218 -0.1945
45934SOL    HW149781   7.865   5.819   4.985  0.7088  1.2077 -0.6068
45934SOL    HW249782   7.819   5.819   4.841  0.0114 -0.2040 -0.4009
45935SOL     OW49783   9.973   2.586   5.238 -0.3342  0.5592 -0.0109
45935SOL    HW149784   9.920   2.555   5.313 -2.2997  1.7347 -0.8383
45935SOL    HW249785  10.011   2.668   5.268 -0.6583  0.7450 -0.1060
45936SOL     OW49786  10.223   4.430   7.630 -0.3211 -0.2682 -0.3272
45936SOL    HW149787  10.307   4.475   7.618 -1.0324  1.9288  2.0187
45936SOL    HW249788  10.245   4.352   7.681  0.3696 -0.1045 -0.3547
45937SOL     OW49789   2.116   3.563   3.402 -0.0605 -0.4863  0.1336
45937SOL    HW149790   2.118   3.604   3.489 -2.6094  2.5008 -1.0021
45937SOL    HW249791   2.028   3.525   3.396 -0.3301  0.3245 -1.4827
45938SOL     OW49792   6.390   8.343  10.413  0.6687  0.6165  0.0761
45938SOL    HW149793   6.484   8.349  10.429  0.5773  2.2904  0.1107
45938SOL    HW249794   6.356   8.431  10.431 -0.9061  0.0529  0.0485
45939SOL     OW49795  11.170   3.408  13.305  0.4549  0.1655  0.5171
45939SOL    HW149796  11.239   3.469  13.332  0.3183  0.1601  0.8853
45939SOL    HW249797  11.160   3.423  13.211  0.0494  1.0982  0.7020
45940SOL     OW49798   0.018   7.932   1.088  0.2515 -0.0546  0.0796
45940SOL    HW149799  -0.028   7.855   1.122 -0.5056 -0.3586 -1.5697
45940SOL    HW249800  -0.034   8.006   1.118 -0.0273 -0.2735  0.1451
45941SOL     OW49801  11.089   1.108   6.086  0.1488 -0.1383 -0.7531
45941SOL    HW149802  11.168   1.129   6.137  1.0704 -0.2973 -2.0570
45941SOL    HW249803  11.119   1.044   6.022 -0.8733  0.3757 -1.7706
45942SOL     OW49804   9.073   3.051   7.280  0.3571  0.1407  0.0327
45942SOL    HW149805   9.128   3.062   7.357 -2.0837  0.0870  1.8863
45942SOL    HW249806   8.984   3.061   7.312 -0.8398 -1.2130 -2.5458
45943SOL     OW49807   7.896   6.338  11.416  0.5827 -0.2149 -0.1181
45943SOL    HW149808   7.866   6.421  11.453  0.0747 -0.0282 -0.9291
45943SOL    HW249809   7.834   6.319  11.346  0.9029 -1.1023 -0.1731
45944SOL     OW49810   9.882   3.388   3.970 -0.4980  0.5293 -0.2002
45944SOL    HW149811   9.843   3.455   4.026 -1.7309 -0.4135  0.1257
45944SOL    HW249812   9.976   3.397   3.984 -0.7530  0.0170  2.4906
45945SOL     OW49813   7.067  12.530  11.513 -0.1044 -0.0321  0.1357
45945SOL    HW149814   7.109  12.585  11.448  1.2006 -0.4466  0.5889
45945SOL    HW249815   6.993  12.490  11.467  1.7462 -1.6387 -1.6280
45946SOL     OW49816   6.012  11.919  12.841 -0.0328 -0.2031  0.1304
45946SOL    HW149817   6.055  11.893  12.760 -0.3254  0.8099 -0.3655
45946SOL    HW249818   5.918  11.912  12.821 -0.1020 -0.3109  0.4963
45947SOL     OW49819   1.545   2.326  12.222  0.0723 -0.3795  0.4536
45947SOL    HW149820   1.556   2.396  12.159  0.5788  0.1551  1.1203
45947SOL    HW249821   1.560   2.245  12.173 -0.5019 -0.0298 -0.3142
45948SOL     OW49822   9.869  12.039  11.918  0.2333 -0.5696  0.5556
45948SOL    HW149823   9.826  12.072  11.839 -0.5783 -0.9918  0.8037
45948SOL    HW249824   9.927  12.110  11.946  0.5140 -0.4142 -0.4038
45949SOL     OW49825  12.261   1.788  12.456 -0.1640 -0.3805 -0.2409
45949SOL    HW149826  12.169   1.781  12.432  0.1841  0.8407 -2.0741
45949SOL    HW249827  12.302   1.833  12.383  1.9209 -0.9416  0.5126
45950SOL     OW49828   9.048   6.406   6.441  0.1573 -0.1600  0.2770
45950SOL    HW149829   9.061   6.359   6.358 -0.2612 -0.0387  0.1444
45950SOL    HW249830   9.127   6.460   6.450 -0.4318  0.9105 -0.7625
45951SOL     OW49831   6.221  11.990   1.915 -0.1619  0.4136 -0.0412
45951SOL    HW149832   6.162  11.918   1.894  0.1756  0.1829 -0.2085
45951SOL    HW249833   6.165  12.056   1.956 -0.5145  0.1544 -0.1006
45952SOL     OW49834   4.657   4.132   5.114  0.5452  0.0927  0.0000
45952SOL    HW149835   4.693   4.045   5.131  2.1264  1.0674  2.1259
45952SOL    HW249836   4.621   4.126   5.026 -0.2456 -2.9546  0.4054
45953SOL     OW49837   0.777   7.345   6.211  0.2706  0.5445  0.0412
45953SOL    HW149838   0.701   7.289   6.201  0.6620  0.0616 -0.2624
45953SOL    HW249839   0.758   7.397   6.290 -1.5280  2.3312 -1.4652
45954SOL     OW49840   6.101  13.323   6.147  0.1386 -0.0593 -0.0096
45954SOL    HW149841   6.085  13.368   6.229 -0.6909  0.7761 -0.6163
45954SOL    HW249842   6.063  13.380   6.080 -0.7353 -1.5292 -0.8218
45955SOL     OW49843   4.785   5.291  10.762  0.0744  0.3852  0.7698
45955SOL    HW149844   4.869   5.335  10.780  1.9413 -2.2203 -0.9729
45955SOL    HW249845   4.769   5.237  10.839 -0.4127  1.3779  1.3913
45956SOL     OW49846   0.154   3.896   1.362 -0.3646  0.2950  0.0171
45956SOL    HW149847   0.190   3.927   1.445 -0.3604  0.3797 -0.0156
45956SOL    HW249848   0.190   3.809   1.351 -1.7004 -0.4081  0.9240
45957SOL     OW49849  10.599   6.764  10.247  0.2743  0.1482 -0.6463
45957SOL    HW149850  10.592   6.852  10.211 -1.1528 -0.3669 -1.7066
45957SOL    HW249851  10.623   6.709  10.172 -1.0350 -0.6812 -0.4961
45958SOL     OW49852   9.247   1.895   5.464  0.1109 -0.5002  0.3226
45958SOL    HW149853   9.334   1.933   5.477 -0.8705  2.0411 -0.0716
45958SOL    HW249854   9.225   1.914   5.373 -1.0969 -0.5492  0.5812
45959SOL     OW49855   4.643  13.615  13.671  0.3743 -0.2365  0.4477
45959SOL    HW149856   4.612  13.692  13.622 -2.6325 -1.5270  0.0907
45959SOL    HW249857   4.731  13.639  13.699  0.4434  2.4195 -1.5881
45960SOL     OW49858   9.387   5.682   1.314 -0.4682  0.2208 -0.5806
45960SOL    HW149859   9.475   5.646   1.327 -0.6216 -0.1206 -0.4820
45960SOL    HW249860   9.337   5.651   1.389 -0.2772  1.6901  0.1908
45961SOL     OW49861   4.213   1.808   9.411 -0.1306 -0.3880 -0.0382
45961SOL    HW149862   4.225   1.902   9.422 -1.8245 -0.0999 -0.2608
45961SOL    HW249863   4.236   1.770   9.495 -1.1007  0.4409  0.6262
45962SOL     OW49864   7.350   9.863  12.328  0.0602 -0.2699  0.0595
45962SOL    HW149865   7.339   9.773  12.297  1.2316  0.3214 -2.3710
45962SOL    HW249866   7.435   9.862  12.373  1.3730  0.0329 -2.2069
45963SOL     OW49867  12.226  10.383   7.679  0.6498  0.1528 -0.2208
45963SOL    HW149868  12.223  10.479   7.676  0.0190  0.1730  0.6629
45963SOL    HW249869  12.146  10.354   7.636  0.9812  0.0075 -0.7505
45964SOL     OW49870   8.282   5.298   3.598  0.1173  0.5577  0.5869
45964SOL    HW149871   8.191   5.280   3.622  0.7353  0.3644  3.0779
45964SOL    HW249872   8.292   5.260   3.511 -1.6202 -1.3891  1.1496
45965SOL     OW49873  12.062   8.960   8.132 -0.0021 -0.5521  0.3945
45965SOL    HW149874  11.970   8.934   8.130 -0.9524  2.3331 -2.0526
45965SOL    HW249875  12.063   9.039   8.185  0.5795  0.6720 -1.3510
45966SOL     OW49876  12.367   1.732   0.426  0.1248 -0.2326 -0.1079
45966SOL    HW149877  12.338   1.778   0.504  0.8704  1.4862 -0.7952
45966SOL    HW249878  12.462   1.725   0.436  0.2616  0.2673 -0.9785
45967SOL     OW49879  10.026   2.400   3.236 -0.5499  0.1683  0.0288
45967SOL    HW149880  10.110   2.412   3.191 -0.2156  0.7897  0.7837
45967SOL    HW249881  10.018   2.477   3.293  0.6498 -2.0247  3.5505
45968SOL     OW49882  12.720   3.976   1.457 -0.0592 -0.9131 -0.1750
45968SOL    HW149883  12.769   3.915   1.401 -0.4385 -0.7704 -0.6709
45968SOL    HW249884  12.628   3.959   1.436 -0.2257 -1.1404  0.7128
45969SOL     OW49885   5.881   3.659  12.079 -0.1325  0.0046 -0.0291
45969SOL    HW149886   5.878   3.720  12.006 -0.8573 -0.5977 -0.5124
45969SOL    HW249887   5.905   3.713  12.154 -0.5457  0.8476 -0.4878
45970SOL     OW49888  14.000  10.075  13.182  0.1409 -0.3795  0.0419
45970SOL    HW149889  13.945  10.129  13.239  1.1422 -0.1613  0.8357
45970SOL    HW249890  14.036  10.137  13.119  2.4190  0.2194  1.8149
45971SOL     OW49891   1.189  10.449  12.143  0.1259 -0.0063 -0.3182
45971SOL    HW149892   1.187  10.354  12.128  1.1437 -0.2630  1.0479
45971SOL    HW249893   1.115  10.482  12.091 -1.3459 -1.7362  0.5530
45972SOL     OW49894   4.935  11.369  13.543  0.3745  0.5272 -0.6370
45972SOL    HW149895   4.934  11.273  13.544  1.5164  0.5116  0.2124
45972SOL    HW249896   4.944  11.394  13.635 -0.9426  1.4860 -0.7405
45973SOL     OW49897  10.863   5.923  12.420  0.5314 -0.2922 -0.2998
45973SOL    HW149898  10.847   5.923  12.326  1.2849  1.9912 -0.4882
45973SOL    HW249899  10.775   5.923  12.459  0.2121 -0.6092 -0.9949
45974SOL     OW49900   8.584   3.608   0.658  0.4953  0.0717 -0.3898
45974SOL    HW149901   8.497   3.571   0.640  0.4854 -0.0729 -0.0660
45974SOL    HW249902   8.645   3.548   0.616  0.6304 -1.7127  2.0818
45975SOL     OW49903   5.618   0.115  14.012  0.5534  0.5379 -0.2394
45975SOL    HW149904   5.612   0.178  13.941  0.2348 -0.1138 -0.8012
45975SOL    HW249905   5.701   0.069  13.997  0.2442  0.0569 -0.4798
45976SOL     OW49906  13.562  12.087  10.881 -0.3084  0.2264 -0.8294
45976SOL    HW149907  13.468  12.068  10.882 -0.2932  0.1012  0.5440
45976SOL    HW249908  13.599  12.021  10.823 -1.0694  0.3212 -1.4415
45977SOL     OW49909   2.467   1.277   5.508  0.4907 -0.1395 -0.3137
45977SOL    HW149910   2.382   1.240   5.531  1.3593 -1.6948  0.5622
45977SOL    HW249911   2.485   1.242   5.420  0.7119 -0.7459 -0.0350
45978SOL     OW49912   5.533   2.665   0.820  0.1369  0.0829 -0.3356
45978SOL    HW149913   5.528   2.672   0.725 -3.3798 -1.3084 -0.4233
45978SOL    HW249914   5.473   2.593   0.841  1.2209 -0.0104  2.9243
45979SOL     OW49915   7.180  11.693   4.703 -0.0472  0.4261  0.1337
45979SOL    HW149916   7.223  11.743   4.772 -0.2793  0.4935  0.2324
45979SOL    HW249917   7.150  11.759   4.640 -1.8153  0.5802  1.0805
45980SOL     OW49918   7.180  12.676  13.308  0.0101  0.3157 -0.3110
45980SOL    HW149919   7.260  12.650  13.262  0.1396  1.4140 -0.7462
45980SOL    HW249920   7.137  12.594  13.331 -0.1129 -0.2699 -2.4853
45981SOL     OW49921   3.265   4.142  10.335  0.3586  0.2929 -0.3510
45981SOL    HW149922   3.210   4.080  10.383 -1.0694  0.3167 -1.8763
45981SOL    HW249923   3.260   4.113  10.244  1.4174  1.3963 -0.7885
45982SOL     OW49924   9.463   5.318   7.470  0.3018  0.1457 -0.0111
45982SOL    HW149925   9.542   5.371   7.482  1.0144 -1.1467  1.2585
45982SOL    HW249926   9.491   5.229   7.487 -1.5714 -0.2896  1.0805
45983SOL     OW49927   2.028  10.353  11.737 -0.7819 -0.0397  0.0833
45983SOL    HW149928   1.974  10.273  11.743 -1.2178 -0.0266 -2.4667
45983SOL    HW249929   2.117  10.320  11.722 -1.0682 -0.1240 -1.6899
45984SOL     OW49930  11.946   2.724  12.572  0.0051 -0.0950 -0.4209
45984SOL    HW149931  11.859   2.728  12.613  0.7795  0.0425  1.2605
45984SOL    HW249932  11.969   2.815  12.555 -0.4848 -0.1706 -1.5977
45985SOL     OW49933   8.253   1.161  11.753  0.3182  0.2776 -0.1892
45985SOL    HW149934   8.250   1.201  11.840  0.2752  0.4240 -0.2558
45985SOL    HW249935   8.162   1.142  11.733  0.2428  0.9370 -0.5129
45986SOL     OW49936  13.394  12.662   0.529  0.0175 -0.3376  0.3151
45986SOL    HW149937  13.470  12.635   0.579  0.1639 -3.1378 -1.1813
45986SOL    HW249938  13.425  12.732   0.472  1.5691 -1.5645 -0.4031
45987SOL     OW49939   7.530   9.213   5.364  0.0491 -0.4688 -0.7864
45987SOL    HW149940   7.484   9.131   5.381 -0.0956 -0.0257  1.2388
45987SOL    HW249941   7.468   9.265   5.312 -0.9658 -0.6377  0.2118
45988SOL     OW49942   3.742   9.963  13.305  0.2522 -0.1725  0.0444
45988SOL    HW149943   3.655   9.978  13.268  0.1250 -0.6996  0.1136
45988SOL    HW249944   3.739  10.002  13.392  0.2200  0.1761 -0.1127
45989SOL     OW49945   7.898  11.372  13.915 -0.2603  0.0307  0.5535
45989SOL    HW149946   7.870  11.379  14.006  1.2608  0.1026  1.0454
45989SOL    HW249947   7.935  11.458  13.895 -0.4776 -0.0222 -0.1065
45990SOL     OW49948   3.717   8.563  12.278 -0.3528  0.2363  0.3504
45990SOL    HW149949   3.704   8.633  12.215 -0.1440 -0.9026 -1.0036
45990SOL    HW249950   3.738   8.608  12.360 -1.2390  1.7644 -0.2213
45991SOL     OW49951  10.897  12.580   9.873 -0.0489 -0.0521  0.2482
45991SOL    HW149952  10.875  12.494   9.837  0.1931  1.1661 -3.2051
45991SOL    HW249953  10.826  12.599   9.935 -2.4413 -1.0761 -1.9795
45992SOL     OW49954   7.605   5.113   9.601 -0.5898 -0.1515  0.1087
45992SOL    HW149955   7.681   5.115   9.542 -2.1674  3.0058 -2.1283
45992SOL    HW249956   7.641   5.132   9.688  1.2010  1.7428 -0.9586
45993SOL     OW49957   2.979   6.952  12.326 -0.1121  0.3954  0.4307
45993SOL    HW149958   2.966   6.870  12.373 -2.5110  1.5304  2.0028
45993SOL    HW249959   3.050   6.934  12.264 -0.7345 -2.9055  0.4846
45994SOL     OW49960   7.998   2.659   9.304  0.0089  0.2858  0.3142
45994SOL    HW149961   7.937   2.728   9.279  2.2001  1.8065 -1.2758
45994SOL    HW249962   8.004   2.603   9.226  2.7837  1.9236 -0.8182
45995SOL     OW49963  14.040   0.059   0.713 -0.1363 -0.0715 -0.4208
45995SOL    HW149964  13.970   0.112   0.675  0.4071  0.5367 -0.5852
45995SOL    HW249965  14.107   0.122   0.739 -0.7444 -0.3763  2.1823
45996SOL     OW49966   2.035   0.765   5.754 -0.0646  0.2996 -0.2116
45996SOL    HW149967   2.101   0.704   5.786 -0.2398 -0.1356 -0.6681
45996SOL    HW249968   1.999   0.723   5.676 -0.5905  0.7231 -0.2044
45997SOL     OW49969  11.758   1.586   1.586 -0.4128  0.0613  0.0126
45997SOL    HW149970  11.847   1.586   1.550 -0.3908 -1.3711 -0.0038
45997SOL    HW249971  11.708   1.644   1.527  0.4903  0.8520  0.0090
45998SOL     OW49972  12.495   2.465  12.628 -0.5601 -0.1283 -0.5573
45998SOL    HW149973  12.522   2.386  12.675 -1.9984 -0.4476 -0.1982
45998SOL    HW249974  12.417   2.437  12.579  0.3668  0.4218 -2.4478
45999SOL     OW49975   9.233   9.050  12.961  0.2375  0.6306  0.1003
45999SOL    HW149976   9.157   9.007  12.923 -0.2927 -0.4720  2.2527
45999SOL    HW249977   9.229   9.140  12.928 -0.8745  0.0654 -1.3676
46000SOL     OW49978   1.930   9.640   2.253 -0.1673  0.0320  0.0178
46000SOL    HW149979   1.879   9.710   2.294 -1.5298 -0.9629  0.0985
46000SOL    HW249980   1.965   9.590   2.326 -0.2505 -0.1038 -0.0353
46001SOL     OW49981   5.154   3.087   9.293  0.2509 -0.0889  0.1565
46001SOL    HW149982   5.106   3.159   9.332  0.7598  0.0194  0.5921
46001SOL    HW249983   5.164   3.111   9.201  3.1755  1.9735  0.8691
46002SOL     OW49984  12.811  13.076   3.217 -0.7161  0.4421 -0.8100
46002SOL    HW149985  12.755  13.035   3.282  0.7649  1.4757  1.2438
46002SOL    HW249986  12.774  13.164   3.205 -0.3721  0.6348 -0.5017
46003SOL     OW49987   4.813   7.889   4.668  0.3446 -0.2529 -0.1430
46003SOL    HW149988   4.896   7.868   4.625 -0.1881  0.7490 -1.7191
46003SOL    HW249989   4.838   7.949   4.739  0.9861 -0.1393 -0.4575
46004SOL     OW49990  13.336   2.144   2.935  0.1360  0.0552  0.0572
46004SOL    HW149991  13.403   2.190   2.986 -1.2087  2.1443  0.0428
46004SOL    HW249992  13.253   2.173   2.972 -0.8430 -2.5115  0.1013
46005SOL     OW49993   0.281   8.916   0.887  0.0481  0.4488 -0.9051
46005SOL    HW149994   0.370   8.898   0.856  0.0958 -2.3269  0.5029
46005SOL    HW249995   0.243   8.972   0.820  2.2842  0.2781 -2.4421
46006SOL     OW49996   7.907   3.876   3.395  0.6536  0.9601 -0.6498
46006SOL    HW149997   7.830   3.904   3.445  1.2680  1.2964  0.1125
46006SOL    HW249998   7.927   3.788   3.428  0.6958  0.9327 -0.7462
46007SOL     OW49999  13.336   4.082   7.655 -0.2067 -0.8598 -0.3810
46007SOL    HW150000  13.292   4.100   7.572 -1.3996 -0.7560  0.2590
46007SOL    HW250001  13.316   4.159   7.709  2.1164 -0.0276 -0.5846
46008SOL     OW50002   2.271   5.027   6.905  0.6397 -0.7764  0.8052
46008SOL    HW150003   2.308   4.939   6.913 -0.3582 -1.2481  0.4445
46008SOL    HW250004   2.177   5.013   6.903  0.4897  0.2049 -0.3569
46009SOL     OW50005   7.766   4.511   6.663 -0.2793 -0.2636 -0.0013
46009SOL    HW150006   7.799   4.566   6.591  0.6895  0.0307  0.6487
46009SOL    HW250007   7.678   4.545   6.679  0.2246  0.9999  0.2578
46010SOL     OW50008  12.685   4.376  13.974  0.2601  0.2714 -0.3017
46010SOL    HW150009  12.662   4.285  13.991  1.0882 -0.0625 -0.8735
46010SOL    HW250010  12.750   4.397  14.042 -1.3266  1.0678  1.0365
46011SOL     OW50011  11.280  10.905   4.181 -0.0614  0.4275  0.3035
46011SOL    HW150012  11.336  10.982   4.195 -0.8574  1.0194  0.2976
46011SOL    HW250013  11.194  10.933   4.211 -0.0329 -1.0235  1.8883
46012SOL     OW50014   1.337  12.756  10.927  0.3349 -0.3694  0.4996
46012SOL    HW150015   1.356  12.836  10.878 -2.9313 -0.3608 -0.9767
46012SOL    HW250016   1.263  12.778  10.982  0.8027 -1.8166  1.7812
46013SOL     OW50017   1.986  11.059  10.442  0.0184 -0.7384 -0.7100
46013SOL    HW150018   1.951  11.039  10.355 -0.7487 -0.7916 -0.4004
46013SOL    HW250019   2.062  11.115  10.425 -1.1492  0.7302 -1.3688
46014SOL     OW50020   3.257   4.392   0.033 -0.4395 -0.0367  0.2050
46014SOL    HW150021   3.316   4.319   0.017  0.0093  0.1291  1.0331
46014SOL    HW250022   3.299   4.466  -0.011 -0.0466  0.0668  0.7384
46015SOL     OW50023  10.470   4.727   7.283 -0.0453  0.1175 -0.6302
46015SOL    HW150024  10.470   4.760   7.193  2.6152 -0.7408 -1.0439
46015SOL    HW250025  10.429   4.640   7.277 -1.0565  0.5930 -0.7493
46016SOL     OW50026  13.507   3.665   8.340  0.0644  0.0741  0.3758
46016SOL    HW150027  13.506   3.635   8.249  2.3868  0.4141  0.1618
46016SOL    HW250028  13.585   3.623   8.377 -0.2595  0.7672  1.9066
46017SOL     OW50029   3.370   0.487   6.185  0.0763  0.2117  0.1078
46017SOL    HW150030   3.397   0.510   6.096 -0.1271  1.0281  0.2560
46017SOL    HW250031   3.449   0.501   6.238  0.5274 -1.3392 -0.1016
46018SOL     OW50032  14.027   0.970   2.539 -0.4781  0.1800 -0.3784
46018SOL    HW150033  14.110   0.943   2.499 -0.0606  1.8890 -0.7104
46018SOL    HW250034  14.043   1.058   2.572 -2.0875  0.4360 -0.2044
46019SOL     OW50035  10.453  10.159   4.221 -0.3221 -0.1516  0.4673
46019SOL    HW150036  10.508  10.152   4.143 -0.9073  2.6257 -0.3074
46019SOL    HW250037  10.505  10.120   4.291  1.4078 -0.1807 -0.7731
46020SOL     OW50038  10.978   9.847   5.690  0.0731 -0.2115 -0.3963
46020SOL    HW150039  10.924   9.868   5.613 -0.6782 -1.0033 -0.0922
46020SOL    HW250040  10.968   9.924   5.747 -0.5017 -0.2228 -0.4729
46021SOL     OW50041  12.241   5.116   2.676  0.1293 -0.0107 -0.1615
46021SOL    HW150042  12.284   5.091   2.594 -0.1930  0.3599 -0.4458
46021SOL    HW250043  12.310   5.108   2.742  0.4544 -0.0880 -0.5064
46022SOL     OW50044   3.066   4.384   5.156 -0.5964  0.0039  0.0790
46022SOL    HW150045   3.112   4.304   5.180 -0.2758  0.4545  1.0325
46022SOL    HW250046   3.135   4.450   5.147 -0.8707  0.2081 -0.5335
46023SOL     OW50047   0.340  11.119   5.654  0.0653 -0.4627 -0.0989
46023SOL    HW150048   0.425  11.140   5.616  0.8284  0.7486  2.0660
46023SOL    HW250049   0.285  11.194   5.632  0.8070  0.7523  1.8763
46024SOL     OW50050  13.703   8.627  13.911 -0.5706 -0.9407  0.0293
46024SOL    HW150051  13.775   8.652  13.969 -0.6020  0.3446 -0.4420
46024SOL    HW250052  13.740   8.632  13.823 -1.4262  0.5741 -0.2817
46025SOL     OW50053   5.510   9.521  13.640 -1.1224 -0.5202 -0.2940
46025SOL    HW150054   5.531   9.611  13.668 -1.5687  0.0246 -1.6607
46025SOL    HW250055   5.425   9.503  13.680 -0.4549 -0.8515  1.0587
46026SOL     OW50056  10.707  12.906  12.819 -0.9354 -0.5932 -0.1209
46026SOL    HW150057  10.646  12.972  12.850 -0.0402 -0.0896  0.5898
46026SOL    HW250058  10.773  12.899  12.888  0.6730  0.0044 -1.5345
46027SOL     OW50059  10.520   1.725  13.307  0.2610 -0.5308  0.0790
46027SOL    HW150060  10.493   1.809  13.344 -0.7996 -1.2061  0.9324
46027SOL    HW250061  10.567   1.747  13.227 -1.3546  0.8181 -0.5634
46028SOL     OW50062   5.735  10.777   3.925  0.1005 -0.3255  0.5548
46028SOL    HW150063   5.658  10.780   3.869  0.4253 -1.9510 -0.0252
46028SOL    HW250064   5.703  10.804   4.011 -1.1011 -0.8624  0.3004
46029SOL     OW50065   7.069   9.041   3.011 -0.1789 -0.5056 -0.5465
46029SOL    HW150066   7.143   9.091   3.047 -0.1281  0.4659 -1.9093
46029SOL    HW250067   7.047   8.978   3.079  0.8530  0.2758  0.5534
46030SOL     OW50068   6.006   1.484  12.194  0.2967  0.2581  0.2408
46030SOL    HW150069   5.992   1.575  12.220 -0.6108  0.3122 -0.3810
46030SOL    HW250070   5.921   1.455  12.160  1.0622 -0.2146 -1.3855
46031SOL     OW50071   1.421  12.431  13.359  0.1874  0.2629 -0.1330
46031SOL    HW150072   1.430  12.449  13.265  0.6782  0.1682 -0.1113
46031SOL    HW250073   1.396  12.515  13.397 -1.1247  0.0455 -0.4830
46032SOL     OW50074  10.366  13.407   5.996  0.3828 -0.3936 -0.2431
46032SOL    HW150075  10.323  13.383   5.914 -1.3280 -0.0444  0.5177
46032SOL    HW250076  10.307  13.471   6.037  1.1455 -0.6364  1.3093
46033SOL     OW50077   6.562   9.680  13.403 -0.7549  0.3065 -0.2882
46033SOL    HW150078   6.552   9.749  13.469 -0.6615  0.3197 -0.2888
46033SOL    HW250079   6.473   9.669  13.367 -0.8393  0.1803 -0.0432
46034SOL     OW50080   8.565  11.167  11.569 -0.5343  0.7558 -0.3721
46034SOL    HW150081   8.575  11.072  11.574 -0.5423  0.7073 -1.0973
46034SOL    HW250082   8.625  11.201  11.634 -0.8648  0.2382  0.2201
46035SOL     OW50083   3.381   5.420   2.399 -0.0221  0.8319 -0.0369
46035SOL    HW150084   3.368   5.443   2.491  1.8606  0.0515  0.4690
46035SOL    HW250085   3.475   5.411   2.389 -0.1327  1.3259 -2.1807
46036SOL     OW50086   1.824   2.928  10.946  0.6250  0.4409  0.0416
46036SOL    HW150087   1.841   3.000  11.006  0.4931  0.2454  0.3136
46036SOL    HW250088   1.780   2.861  10.999 -0.5765  0.7489 -0.5436
46037SOL     OW50089   3.649  13.482   3.086 -0.4942 -0.8168 -0.1029
46037SOL    HW150090   3.722  13.517   3.137 -0.3446 -2.2295  0.7213
46037SOL    HW250091   3.671  13.503   2.995  0.8197 -1.0027  0.1536
46038SOL     OW50092  11.621  10.254  13.802  0.0089 -0.4966  0.5529
46038SOL    HW150093  11.687  10.263  13.733 -0.3193  1.2212  0.3986
46038SOL    HW250094  11.540  10.233  13.755  0.3960 -2.6134  0.7430
46039SOL     OW50095  13.145  10.744  12.271 -0.1463  0.5147  0.4256
46039SOL    HW150096  13.077  10.755  12.338 -1.3843 -0.5520 -0.5992
46039SOL    HW250097  13.191  10.664  12.296 -0.7026  0.0378 -0.0703
46040SOL     OW50098   7.589   4.342  13.059 -0.1680  0.5950  0.3411
46040SOL    HW150099   7.497   4.323  13.078 -0.2016 -0.5040 -0.8041
46040SOL    HW250100   7.595   4.437  13.065 -0.7298  0.5425  3.1411
46041SOL     OW50101   6.832   0.441   3.015  0.6018  0.4148  0.2733
46041SOL    HW150102   6.840   0.421   3.109  0.0875  1.3782  0.5348
46041SOL    HW250103   6.742   0.416   2.993  1.0871 -0.9241 -0.2576
46042SOL     OW50104   0.019   9.488   4.393  0.1804 -0.7973  0.3284
46042SOL    HW150105   0.064   9.475   4.309 -0.0012  0.1654  0.0679
46042SOL    HW250106  -0.072   9.507   4.369  0.2896  0.2565  0.6900
46043SOL     OW50107   1.702   8.625   0.890 -0.4538 -0.0158 -0.0420
46043SOL    HW150108   1.689   8.642   0.983  2.5984  1.8343  0.1891
46043SOL    HW250109   1.643   8.686   0.846 -1.9554 -0.9337  0.6281
46044SOL     OW50110   3.954   1.740  10.535 -0.8699 -0.2078  0.2970
46044SOL    HW150111   3.978   1.698  10.452 -1.0516  0.0437  0.1159
46044SOL    HW250112   3.873   1.787  10.515  0.6458  2.3489 -0.2046
46045SOL     OW50113  11.659   3.155  10.562  0.3926 -0.1570 -0.3740
46045SOL    HW150114  11.627   3.243  10.582 -1.3472 -0.7967 -0.0972
46045SOL    HW250115  11.741   3.168  10.515 -0.3284  1.6355 -1.2021
46046SOL     OW50116   4.784   2.519   6.459  0.7707 -0.3919 -0.9422
46046SOL    HW150117   4.719   2.556   6.518  2.2721  1.7313 -0.5263
46046SOL    HW250118   4.741   2.442   6.422 -2.3213  1.3779 -1.3860
46047SOL     OW50119   2.593  12.554  11.722  0.2118 -0.4209 -0.0779
46047SOL    HW150120   2.636  12.556  11.807  0.3502 -2.0043 -0.0759
46047SOL    HW250121   2.526  12.485  11.730  0.0451 -0.4079 -1.1557
46048SOL     OW50122   7.923  13.583  13.716 -0.1485 -0.1233  0.3938
46048SOL    HW150123   7.873  13.523  13.661  0.4070  0.2265 -0.5190
46048SOL    HW250124   7.989  13.528  13.759 -1.0955 -0.5338  1.3627
46049SOL     OW50125   6.853   3.062   0.284 -0.3175 -0.1557  0.1230
46049SOL    HW150126   6.887   3.062   0.194  1.9576 -1.7554  0.8913
46049SOL    HW250127   6.842   3.154   0.306 -0.4670  0.2783 -1.6259
46050SOL     OW50128   6.875   9.304   6.482 -0.7905  1.0371  0.3222
46050SOL    HW150129   6.923   9.234   6.527  1.6080  1.1797 -1.7937
46050SOL    HW250130   6.818   9.259   6.420 -0.5310  0.9296  0.1612
46051SOL     OW50131   5.733   9.977   4.841  0.1281  0.0457  0.4163
46051SOL    HW150132   5.804  10.025   4.799  0.4953 -0.9436 -0.1427
46051SOL    HW250133   5.769   9.889   4.854 -1.0997 -0.5734 -0.1991
46052SOL     OW50134   1.557  11.810   7.856  0.4282  0.3464  0.1601
46052SOL    HW150135   1.562  11.900   7.825 -1.7187 -0.1618 -1.9772
46052SOL    HW250136   1.594  11.759   7.784 -1.3829 -0.6587 -0.1209
46053SOL     OW50137   8.753   2.592   7.858 -0.2753 -0.6187  0.2499
46053SOL    HW150138   8.737   2.597   7.953  0.7557 -1.9086  0.5243
46053SOL    HW250139   8.777   2.681   7.834  1.5313 -0.6738  1.6318
46054SOL     OW50140   1.169   8.467  11.432  0.5605  0.3643  0.6926
46054SOL    HW150141   1.102   8.426  11.377  1.2152  0.5142 -0.2416
46054SOL    HW250142   1.124   8.541  11.473 -0.5154 -0.9976  2.0795
46055SOL     OW50143   9.259   1.416   0.664 -0.3415 -0.2708 -0.1586
46055SOL    HW150144   9.257   1.421   0.569  1.0140  0.5536 -0.1824
46055SOL    HW250145   9.227   1.329   0.685  0.0205 -0.7237 -1.4216
46056SOL     OW50146   7.762  12.119   8.993 -0.1718  0.0488 -0.0192
46056SOL    HW150147   7.835  12.065   8.964  0.1850  0.2316  0.5188
46056SOL    HW250148   7.782  12.206   8.961  1.2340  0.7024  2.3374
46057SOL     OW50149  10.883   3.699   0.581  0.1098  0.0163  0.0624
46057SOL    HW150150  10.802   3.729   0.623  0.1250  2.8284 -1.6109
46057SOL    HW250151  10.854   3.633   0.517 -0.2112 -2.2961  2.4254
46058SOL     OW50152   4.484   8.905  13.612 -0.1077  0.0180 -0.2450
46058SOL    HW150153   4.561   8.848  13.613  0.9598  1.3891 -1.2918
46058SOL    HW250154   4.411   8.845  13.628  0.9365 -1.7101 -1.5015
46059SOL     OW50155  10.616   6.362  12.662  0.2964 -0.0256 -0.0488
46059SOL    HW150156  10.565   6.423  12.716  0.7530  1.1865 -0.9432
46059SOL    HW250157  10.704   6.366  12.699  0.2850 -0.3000  0.0084
46060SOL     OW50158   6.293   6.075  13.252 -0.2530  0.0525 -0.4848
46060SOL    HW150159   6.269   6.138  13.320  1.3581 -0.8183  0.9755
46060SOL    HW250160   6.372   6.112  13.212 -0.4303 -0.0895 -0.9710
46061SOL     OW50161  10.443  13.241   4.915 -0.4528  0.0196  0.6322
46061SOL    HW150162  10.391  13.268   4.991 -2.1020 -0.1093 -0.4041
46061SOL    HW250163  10.410  13.294   4.843 -1.6383 -2.4768 -0.7907
46062SOL     OW50164   0.286   5.565   9.691  0.1592 -0.7565 -0.2395
46062SOL    HW150165   0.345   5.639   9.677  1.9964 -2.0258  0.3753
46062SOL    HW250166   0.239   5.556   9.608 -1.1750  1.9216  0.1186
46063SOL     OW50167  13.498  10.393  10.934  0.6553  0.3353  0.0020
46063SOL    HW150168  13.543  10.475  10.916 -0.7166  1.0255 -0.4703
46063SOL    HW250169  13.498  10.347  10.850  0.4556  0.3638 -0.0151
46064SOL     OW50170   5.494   0.925   0.100  0.2331 -0.2060  0.5536
46064SOL    HW150171   5.534   0.896   0.182  0.0358  0.1960  0.7969
46064SOL    HW250172   5.568   0.949   0.044  0.3560 -0.1384  0.7437
46065SOL     OW50173  13.099   6.320   5.254  0.3077 -0.2907  0.0154
46065SOL    HW150174  13.192   6.317   5.230  0.2144  0.5339 -0.4817
46065SOL    HW250175  13.080   6.413   5.263 -0.4229 -0.4663  0.3327
46066SOL     OW50176   3.040   7.511  11.049 -0.2250  0.0187 -0.9393
46066SOL    HW150177   3.042   7.430  10.998 -1.4229 -0.0426 -0.9278
46066SOL    HW250178   2.970   7.496  11.113 -0.6310  1.1454 -1.1039
46067SOL     OW50179   3.031   5.893   3.699 -0.4554  0.2767  0.5801
46067SOL    HW150180   3.050   5.920   3.609  1.9898 -2.1409  0.2423
46067SOL    HW250181   2.956   5.834   3.691  0.7672 -1.2285 -0.1713
46068SOL     OW50182  13.428  12.636   9.958  1.2365 -0.6461 -0.0103
46068SOL    HW150183  13.418  12.695   9.884 -0.5924 -1.4926 -0.4875
46068SOL    HW250184  13.508  12.586   9.937  1.3864 -0.0851 -0.8316
46069SOL     OW50185   5.792   9.981   5.314  0.0971 -0.2158  0.6729
46069SOL    HW150186   5.776  10.051   5.251  2.5017  0.3161  0.5775
46069SOL    HW250187   5.818   9.906   5.260 -0.7100 -0.6650  0.8878
46070SOL     OW50188   4.809   5.923   0.538  0.7285  0.3234  0.2413
46070SOL    HW150189   4.730   5.971   0.513  0.5422 -0.6879 -1.2178
46070SOL    HW250190   4.788   5.887   0.625 -0.6197 -0.3199 -0.3167
46071SOL     OW50191   0.860   5.277  10.377 -0.0166 -0.4811  0.0059
46071SOL    HW150192   0.820   5.251  10.460  2.1312 -1.4483  0.8042
46071SOL    HW250193   0.887   5.195  10.336  0.8585  0.1145 -0.6452
46072SOL     OW50194   6.672   0.114   0.819 -0.0399  0.1735 -0.2198
46072SOL    HW150195   6.616   0.062   0.877 -1.3647  1.5443 -0.1865
46072SOL    HW250196   6.703   0.052   0.753 -0.9598 -0.8046  0.2325
46073SOL     OW50197   6.634  13.457   3.595  1.1462 -0.0273  0.0486
46073SOL    HW150198   6.539  13.468   3.593  1.2548  0.8429 -0.8436
46073SOL    HW250199   6.663  13.514   3.666  1.0389 -0.0797  0.1361
46074SOL     OW50200   5.641   2.615  11.743  0.0798 -0.2437 -0.0227
46074SOL    HW150201   5.730   2.650  11.738  0.3395 -0.9368 -0.3690
46074SOL    HW250202   5.587   2.682  11.700  0.3230  0.5224  0.8394
46075SOL     OW50203   7.484   6.410  11.369  0.1717 -0.2121 -0.1011
46075SOL    HW150204   7.565   6.378  11.329  0.3132 -0.2054  0.1759
46075SOL    HW250205   7.420   6.409  11.298  0.4083 -0.2444 -0.3151
46076SOL     OW50206   2.856   6.125   3.732 -0.1999 -0.4583 -0.3432
46076SOL    HW150207   2.929   6.186   3.739  0.2420 -0.9892 -0.2850
46076SOL    HW250208   2.896   6.039   3.736 -0.8675 -0.7556  0.0592
46077SOL     OW50209   4.650   8.203   4.598  0.0288  0.3226  0.4064
46077SOL    HW150210   4.716   8.270   4.615 -1.7603  2.5953 -1.0204
46077SOL    HW250211   4.571   8.234   4.641 -0.9363 -0.7250 -0.5124
46078SOL     OW50212  10.486   8.011   1.044  0.5311  0.7521  0.4449
46078SOL    HW150213  10.568   8.022   0.996  0.5685  0.7046  0.4982
46078SOL    HW250214  10.433   8.087   1.019  0.3954  0.5178  0.0199
46079SOL     OW50215   5.250  12.848  10.779 -0.4694  0.0568 -0.0807
46079SOL    HW150216   5.234  12.909  10.851  0.0613  0.3044 -0.1729
46079SOL    HW250217   5.341  12.819  10.790 -0.5391 -0.2870 -0.3634
46080SOL     OW50218  10.975   7.620   4.306  0.1448 -0.6863  0.3693
46080SOL    HW150219  11.065   7.644   4.327  0.3586 -1.8801  0.9177
46080SOL    HW250220  10.981   7.576   4.221  0.3709 -2.3322  1.1974
46081SOL     OW50221  13.393  10.333   8.562  0.5358 -0.2519  0.0818
46081SOL    HW150222  13.363  10.422   8.547  1.6453 -0.1285 -1.7577
46081SOL    HW250223  13.325  10.293   8.616 -1.2345  0.9834 -1.1177
46082SOL     OW50224  10.252   4.682   4.458 -0.2924  0.2500 -0.0536
46082SOL    HW150225  10.160   4.684   4.485  0.1939  0.7330  1.7214
46082SOL    HW250226  10.299   4.720   4.532  1.2657  0.8126 -1.2853
46083SOL     OW50227  12.725   4.488  12.596 -0.6394  0.3700 -0.3274
46083SOL    HW150228  12.709   4.396  12.575 -0.0656  0.0563  0.5762
46083SOL    HW250229  12.657   4.511  12.659  0.0533  0.1465  0.5266
46084SOL     OW50230   3.759  13.087   8.069 -0.2170  0.0804 -0.0163
46084SOL    HW150231   3.704  13.142   8.013 -1.9671 -1.9879 -0.4677
46084SOL    HW250232   3.848  13.100   8.036 -0.2934  3.5947  0.7668
46085SOL     OW50233  13.723  13.931  11.829  0.3391  0.2408 -0.3868
46085SOL    HW150234  13.737  13.838  11.808 -0.1290  0.1689 -0.3866
46085SOL    HW250235  13.676  13.930  11.912  0.0670  0.4725 -0.5374
46086SOL     OW50236  12.955   6.727  12.554  0.0384  1.0289 -0.4041
46086SOL    HW150237  12.933   6.658  12.616 -1.3591  0.9121 -0.9926
46086SOL    HW250238  13.049   6.741  12.566  0.1483 -0.2605  0.4344
46087SOL     OW50239   0.733   4.870   0.905 -0.0986  0.3920 -0.2538
46087SOL    HW150240   0.711   4.803   0.970 -0.9182 -0.2576 -1.1794
46087SOL    HW250241   0.677   4.944   0.926  1.7020  1.3289  1.5643
46088SOL     OW50242   1.316   6.199   0.899 -0.2174 -0.0128 -0.1911
46088SOL    HW150243   1.362   6.261   0.956 -0.8433  0.3912 -0.1232
46088SOL    HW250244   1.381   6.175   0.833  0.0667  0.6245 -0.1475
46089SOL     OW50245   5.543   8.437   0.135 -0.4742 -0.6494 -0.0864
46089SOL    HW150246   5.628   8.472   0.161 -0.4840 -0.4015 -0.3680
46089SOL    HW250247   5.563   8.373   0.067 -0.5407 -0.2516 -0.4849
46090SOL     OW50248   8.408   3.902   4.211  0.3658  0.1133  0.0897
46090SOL    HW150249   8.341   3.833   4.205  1.6220 -1.1664  0.1895
46090SOL    HW250250   8.373   3.964   4.275 -0.2896 -1.0360  0.8847
46091SOL     OW50251   7.197   7.995   6.202 -0.0533  0.0268 -0.1898
46091SOL    HW150252   7.140   8.072   6.205  1.8730  1.5165  0.4704
46091SOL    HW250253   7.278   8.028   6.164  0.7156 -1.7798 -0.1889
46092SOL     OW50254   9.457   1.454  12.890 -0.5423 -0.0709  0.3343
46092SOL    HW150255   9.462   1.548  12.905 -0.3158  0.3962 -2.2057
46092SOL    HW250256   9.364   1.433  12.898 -1.1061  1.0614 -2.3306
46093SOL     OW50257   5.958   3.036   4.240  0.3913  0.3473 -0.3247
46093SOL    HW150258   6.016   3.054   4.314 -0.3402  1.7383 -0.0379
46093SOL    HW250259   5.996   2.960   4.197  2.1496  0.9262  0.1266
46094SOL     OW50260   2.484   4.204   3.418  0.3988 -0.5017 -0.3562
46094SOL    HW150261   2.569   4.210   3.463 -0.8936 -0.9061  2.3278
46094SOL    HW250262   2.456   4.295   3.407  1.0832 -0.3707 -1.1290
46095SOL     OW50263   3.922  11.028   1.042 -0.3833 -0.2847  0.0505
46095SOL    HW150264   3.964  10.952   1.001 -1.0406 -1.0198  0.7112
46095SOL    HW250265   3.994  11.080   1.078 -0.0282 -1.8376  1.7175
46096SOL     OW50266   2.872   8.664   1.981  0.3185 -0.0297  1.0163
46096SOL    HW150267   2.883   8.682   1.887  1.0508 -1.5936  0.7800
46096SOL    HW250268   2.799   8.721   2.008 -0.7550 -0.4717 -0.7835
46097SOL     OW50269   6.842  10.016   9.267 -0.4057  0.0380 -0.2733
46097SOL    HW150270   6.861   9.938   9.215  1.3560  1.3263 -1.6945
46097SOL    HW250271   6.810  10.080   9.204 -0.9404  0.7579  0.7092
46098SOL     OW50272   2.389  11.336   4.745 -0.6371  0.1039 -0.5502
46098SOL    HW150273   2.399  11.310   4.654 -0.4138 -0.2556 -0.4243
46098SOL    HW250274   2.375  11.254   4.792  1.1076  0.0812 -0.0037
46099SOL     OW50275  11.445  11.276   2.110  0.6772  0.7252  0.3240
46099SOL    HW150276  11.383  11.228   2.056  1.2013  0.4798 -0.0664
46099SOL    HW250277  11.520  11.218   2.118  1.2053  1.3665  0.0816
46100SOL     OW50278   7.056   5.951   4.348 -0.0828 -0.0272  0.4233
46100SOL    HW150279   7.105   5.869   4.349 -0.7946 -0.4703 -0.2294
46100SOL    HW250280   7.124   6.019   4.347  0.5511 -0.6361 -0.8664
46101SOL     OW50281   4.542   2.304  10.123 -0.0942  0.1034  0.8928
46101SOL    HW150282   4.558   2.259  10.041  2.1095 -0.1201  1.4005
46101SOL    HW250283   4.460   2.266  10.156 -0.8685  0.0112 -1.0186
46102SOL     OW50284   4.170  10.483   7.197 -0.1442  0.1208  0.6722
46102SOL    HW150285   4.096  10.500   7.256 -0.9908  1.9789 -0.8163
46102SOL    HW250286   4.194  10.569   7.164 -0.0668 -0.8599 -2.0932
46103SOL     OW50287   9.630   3.100   3.760  0.7927  0.2045 -0.3047
46103SOL    HW150288   9.705   3.090   3.818  0.0901 -0.2455  0.5417
46103SOL    HW250289   9.554   3.102   3.818  0.0121 -1.0535 -1.2432
46104SOL     OW50290   9.472  13.388   1.705  0.7838 -0.3876 -0.3401
46104SOL    HW150291   9.502  13.304   1.741  0.6910 -0.9082 -1.4232
46104SOL    HW250292   9.509  13.391   1.617 -0.3408  0.0714 -0.8189
46105SOL     OW50293   8.256  10.127  10.056 -0.6495 -0.3678 -0.0041
46105SOL    HW150294   8.175  10.175  10.038 -0.7455 -0.2818  0.6485
46105SOL    HW250295   8.234  10.068  10.128  0.5960  1.6699  2.1629
46106SOL     OW50296   4.857   3.058   3.803 -0.0363 -0.4418 -0.1089
46106SOL    HW150297   4.874   2.964   3.790 -0.0209 -0.7321  1.7193
46106SOL    HW250298   4.937   3.090   3.845 -0.2531  0.2784 -0.2451
46107SOL     OW50299   3.739   5.026   0.275  0.9569 -0.1168 -0.2504
46107SOL    HW150300   3.670   5.075   0.230  2.7041  1.4354 -1.3974
46107SOL    HW250301   3.762   5.081   0.350  0.0967 -1.2655  0.8934
46108SOL     OW50302   1.168   9.911   4.993  0.3215 -0.6780  0.4086
46108SOL    HW150303   1.252   9.880   5.029  1.4509 -1.1146 -2.3619
46108SOL    HW250304   1.193   9.979   4.931 -1.3831 -0.8920 -0.5533
46109SOL     OW50305   6.007   8.461  12.021  0.1690  0.5245  0.0055
46109SOL    HW150306   5.997   8.467  11.926 -1.6201 -1.3503 -0.0052
46109SOL    HW250307   5.919   8.480  12.055  0.1908 -1.1796  1.1098
46110SOL     OW50308  12.057   4.843   5.456 -0.3858 -0.3431 -0.4139
46110SOL    HW150309  12.141   4.889   5.466 -1.3691  1.6091 -0.6099
46110SOL    HW250310  12.016   4.884   5.379 -2.0456 -0.3817  0.4027
46111SOL     OW50311   7.263   3.320   9.451  0.1229 -0.6653  0.7034
46111SOL    HW150312   7.192   3.370   9.411  0.9256  0.0296  0.1211
46111SOL    HW250313   7.310   3.384   9.505  1.3671 -0.6617 -0.3165
46112SOL     OW50314   3.603   1.267  13.678  0.7789  0.3366 -0.3777
46112SOL    HW150315   3.568   1.260  13.590  0.3056  2.0552 -0.3645
46112SOL    HW250316   3.592   1.180  13.716  0.0191 -0.1395 -1.6483
46113SOL     OW50317   5.268  11.651   0.110 -0.0639 -0.8903 -0.3515
46113SOL    HW150318   5.285  11.662   0.016  0.4128 -3.3777 -0.6076
46113SOL    HW250319   5.354  11.663   0.150 -0.4529  1.3114 -0.0456
46114SOL     OW50320  13.923   8.195   7.667 -0.0004 -0.1981  0.1240
46114SOL    HW150321  13.947   8.229   7.753  0.0745  0.9532 -0.3388
46114SOL    HW250322  13.955   8.105   7.668 -0.2998 -0.3192  1.4220
46115SOL     OW50323   5.064   6.674   9.144 -0.7595 -0.5516 -0.0956
46115SOL    HW150324   5.015   6.647   9.221 -1.0668 -0.2427 -0.1775
46115SOL    HW250325   5.151   6.696   9.176 -0.8089 -0.6729  0.1202
46116SOL     OW50326   5.084   5.656   2.428  0.1174 -0.1713  0.4392
46116SOL    HW150327   5.110   5.623   2.513  1.2355  0.9810  0.5715
46116SOL    HW250328   5.037   5.737   2.447  0.3756  0.0932 -0.0416
46117SOL     OW50329   2.400   7.542   1.185  0.2771 -0.3744  0.2930
46117SOL    HW150330   2.372   7.485   1.257 -0.1387  0.5351  0.8748
46117SOL    HW250331   2.419   7.626   1.227 -0.7736  0.4301 -0.7431
46118SOL     OW50332   1.047  12.542   3.309  0.2506  0.3609  0.0135
46118SOL    HW150333   1.076  12.545   3.400 -0.7745  0.2690  0.3608
46118SOL    HW250334   0.951  12.542   3.315  0.1266  2.2051 -1.1073
46119SOL     OW50335   2.705   0.395  10.390 -0.5530 -0.1420  0.3110
46119SOL    HW150336   2.793   0.428  10.404 -0.6198 -0.5407  1.9539
46119SOL    HW250337   2.706   0.359  10.302 -0.4394  3.9351 -1.5607
46120SOL     OW50338   1.760   5.303   4.257 -0.2200 -0.1154 -0.0640
46120SOL    HW150339   1.829   5.242   4.284 -1.3275 -0.3865  2.4578
46120SOL    HW250340   1.752   5.290   4.163  2.8535 -0.3516 -0.3994
46121SOL     OW50341   5.863  10.747  10.354 -0.1840  0.1182  0.1638
46121SOL    HW150342   5.784  10.795  10.331 -0.5754 -0.2430  0.7356
46121SOL    HW250343   5.838  10.694  10.430  0.8778  0.7781  1.0119
46122SOL     OW50344   3.273   5.701   8.468  0.1518 -0.3388  0.0309
46122SOL    HW150345   3.330   5.731   8.538 -0.7901  2.4712 -0.2748
46122SOL    HW250346   3.200   5.657   8.513  0.4118 -0.1067  0.6799
46123SOL     OW50347  13.210   4.177   6.244 -0.2029  0.6868 -0.0512
46123SOL    HW150348  13.117   4.183   6.268 -0.4254 -0.7754 -0.4911
46123SOL    HW250349  13.235   4.088   6.266  0.6960  0.5834 -1.4075
46124SOL     OW50350   9.853  13.664   4.423 -0.4215  0.0296  0.2455
46124SOL    HW150351   9.925  13.601   4.416 -0.5759 -0.0591 -0.6633
46124SOL    HW250352   9.775  13.610   4.437 -0.4347  0.0696  0.3239
46125SOL     OW50353   0.849   8.166   7.980 -0.6822 -0.8371 -0.1907
46125SOL    HW150354   0.809   8.080   7.993  0.0291 -1.0513  0.7843
46125SOL    HW250355   0.937   8.146   7.947 -1.1618 -0.3994 -1.8116
46126SOL     OW50356  11.388  11.036   5.996  0.0892 -0.2487 -0.1524
46126SOL    HW150357  11.447  10.969   5.962  0.0773 -0.2497 -0.1701
46126SOL    HW250358  11.305  10.990   6.009  0.2264 -0.3685  0.3416
46127SOL     OW50359  10.863   9.460   0.606 -0.1517  0.6316  0.1043
46127SOL    HW150360  10.850   9.382   0.552 -0.4801 -0.2985  1.4739
46127SOL    HW250361  10.776   9.483   0.637 -0.0574  1.5732 -0.3074
46128SOL     OW50362   3.211  12.244   4.557  0.4063 -0.2209  0.8297
46128SOL    HW150363   3.212  12.319   4.497  0.6158  0.2950  1.4687
46128SOL    HW250364   3.287  12.192   4.532  0.7503  0.2263  0.9364
46129SOL     OW50365   5.328  12.632   9.237  0.1957 -0.0334 -0.1124
46129SOL    HW150366   5.347  12.539   9.242  1.7670  0.2283 -0.5906
46129SOL    HW250367   5.289  12.645   9.151 -0.8403 -0.3678  0.2978
46130SOL     OW50368  12.187  12.725   5.589  0.6212 -0.2105 -0.2287
46130SOL    HW150369  12.133  12.654   5.625  0.9810 -0.2457  0.2557
46130SOL    HW250370  12.182  12.794   5.655  0.2364  0.2369 -0.7187
46131SOL     OW50371  12.590   2.867   6.197 -0.8225 -0.0266  0.0021
46131SOL    HW150372  12.513   2.910   6.160 -0.7841  0.0750  0.0406
46131SOL    HW250373  12.665   2.914   6.159 -0.7731  1.5666  1.8982
46132SOL     OW50374   0.857   3.779   0.899 -0.1662  0.2008  0.2202
46132SOL    HW150375   0.813   3.773   0.984 -0.5022  0.9339  0.1071
46132SOL    HW250376   0.949   3.766   0.919 -0.2214  0.5698  0.7303
46133SOL     OW50377   0.574   1.020   0.836 -0.4921  0.3630 -0.1859
46133SOL    HW150378   0.577   1.073   0.916 -0.1573  0.3599 -0.1929
46133SOL    HW250379   0.482   1.018   0.811 -0.7981 -0.7166  0.9199
46134SOL     OW50380   8.907   8.954  12.342 -0.6144  0.8371  0.0067
46134SOL    HW150381   8.845   8.881  12.339 -1.6132  1.6671 -0.2445
46134SOL    HW250382   8.851   9.032  12.338  0.5763  1.6363 -3.0790
46135SOL     OW50383   7.531   9.557   8.624  0.1838 -0.3771  0.1935
46135SOL    HW150384   7.450   9.551   8.674 -0.8357 -1.6761 -1.5357
46135SOL    HW250385   7.506   9.535   8.534  2.1828  0.6509 -0.6746
46136SOL     OW50386   3.315  11.091   7.858 -0.5202  0.0088 -0.3066
46136SOL    HW150387   3.404  11.088   7.823 -1.2840  0.1475 -2.3886
46136SOL    HW250388   3.310  11.176   7.902  0.2068  0.2567 -0.6849
46137SOL     OW50389   9.114   8.339  13.472 -0.3916 -0.0206  0.1687
46137SOL    HW150390   9.032   8.388  13.481  0.1540  0.6889  1.6874
46137SOL    HW250391   9.181   8.406  13.464  0.1023 -0.5887 -0.5158
46138SOL     OW50392   7.352   3.750   7.271  0.3173 -0.0881 -0.3304
46138SOL    HW150393   7.335   3.663   7.307 -0.3692 -0.2467 -0.9992
46138SOL    HW250394   7.442   3.746   7.239  0.7339 -0.1250  0.8148
46139SOL     OW50395  13.934   1.467   2.872  0.0658  0.0525 -0.4957
46139SOL    HW150396  13.848   1.507   2.864 -0.5461 -1.2485 -0.5889
46139SOL    HW250397  13.917   1.374   2.884  1.4361 -0.1372  0.2074
46140SOL     OW50398   2.460   1.056  10.550  0.1823 -0.5577  0.4714
46140SOL    HW150399   2.436   0.967  10.574  0.1606 -0.8105 -0.4479
46140SOL    HW250400   2.382   1.091  10.509  0.4723 -0.4149  0.0369
46141SOL     OW50401   2.072   1.067   3.145 -0.3341  0.5679 -0.6684
46141SOL    HW150402   2.130   1.095   3.216 -1.6937  2.4212 -0.2235
46141SOL    HW250403   2.071   1.140   3.084  0.4617 -0.8244 -2.4337
46142SOL     OW50404   6.141   5.956   6.151 -1.0497 -0.4307  0.3537
46142SOL    HW150405   6.062   6.006   6.174  0.0683  0.8622  1.5520
46142SOL    HW250406   6.132   5.939   6.057 -1.2355  2.5882 -0.2808
46143SOL     OW50407   6.536  11.389  13.873  0.4705 -0.2051  0.2161
46143SOL    HW150408   6.557  11.300  13.843  2.2656 -0.1695  1.2089
46143SOL    HW250409   6.563  11.390  13.965  0.3172  1.3308  0.2718
46144SOL     OW50410   8.062   8.749   1.307  0.2076  0.2494  0.3281
46144SOL    HW150411   8.119   8.748   1.383 -0.2966  0.3636  0.7097
46144SOL    HW250412   8.010   8.829   1.316 -0.1883  0.0180  0.1137
46145SOL     OW50413   7.870   1.667  11.357  0.9003  0.3702  0.5191
46145SOL    HW150414   7.784   1.708  11.360 -0.8540 -2.7839 -1.2406
46145SOL    HW250415   7.924   1.729  11.308 -1.6031  0.7104 -2.0700
46146SOL     OW50416   6.739   3.777   5.010  0.0282 -0.0154  0.2188
46146SOL    HW150417   6.803   3.844   5.034 -0.0966 -0.0125  0.5483
46146SOL    HW250418   6.708   3.803   4.923 -0.9854  1.0897  0.8844
46147SOL     OW50419   1.457   4.798   9.811  0.2147  0.6052  0.1727
46147SOL    HW150420   1.455   4.702   9.811  0.7130  0.5520 -1.7467
46147SOL    HW250421   1.365   4.824   9.797 -0.1691  0.4868  2.1839
46148SOL     OW50422   0.852   8.465  13.792  0.2123  0.1140 -0.3858
46148SOL    HW150423   0.923   8.408  13.819 -0.3691 -1.1399 -1.4195
46148SOL    HW250424   0.891   8.525  13.729  0.2347 -1.0050 -1.4622
46149SOL     OW50425  10.524  13.448  14.041 -0.2762 -0.1389 -0.2326
46149SOL    HW150426  10.543  13.517  14.105  1.1439 -0.1919 -0.5634
46149SOL    HW250427  10.489  13.375  14.093  0.1929  0.0723  0.3840
46150SOL     OW50428  10.578   8.343   0.485 -0.1140 -0.1135 -0.3156
46150SOL    HW150429  10.553   8.434   0.466  2.0245  0.4171 -0.9243
46150SOL    HW250430  10.554   8.294   0.407 -0.3653  0.1211 -0.3869
46151SOL     OW50431   4.388   5.115  13.201  0.7962  0.0793  0.0346
46151SOL    HW150432   4.465   5.088  13.250 -0.0283 -0.4722  1.0746
46151SOL    HW250433   4.352   5.033  13.166  0.6912  0.3349 -0.4725
46152SOL     OW50434   9.650   1.042  11.441  0.5322 -0.8140  0.4710
46152SOL    HW150435   9.649   1.079  11.352  1.7210 -1.6042  0.1094
46152SOL    HW250436   9.562   1.005  11.452  0.4552 -0.9469 -0.4789
46153SOL     OW50437  11.872  10.798   7.959  0.4500 -0.4508 -0.1556
46153SOL    HW150438  11.901  10.715   7.920 -0.3767 -0.9835  0.3260
46153SOL    HW250439  11.937  10.862   7.931 -0.0389 -0.8195 -2.3334
46154SOL     OW50440   7.062   0.898   7.283  1.0111  0.6279  0.1646
46154SOL    HW150441   7.056   0.932   7.373  3.5558 -1.5223  1.3033
46154SOL    HW250442   7.149   0.924   7.253  0.2236  1.2606 -1.7020
46155SOL     OW50443   2.531   3.931  10.849  0.3995 -0.0152 -0.3792
46155SOL    HW150444   2.592   3.867  10.886  0.5395 -0.0096 -0.6019
46155SOL    HW250445   2.577   3.968  10.774  1.0877  1.7220  0.8226
46156SOL     OW50446   6.906  12.623  10.866 -0.0047 -0.0266 -0.2288
46156SOL    HW150447   6.917  12.713  10.836 -1.0729 -0.3470 -1.6760
46156SOL    HW250448   6.811  12.611  10.870  0.1234 -1.4413 -1.1562
46157SOL     OW50449   7.578  11.391  10.026  0.4977 -0.6265 -0.1195
46157SOL    HW150450   7.527  11.351  10.096  0.0492  0.3322  0.1239
46157SOL    HW250451   7.594  11.320   9.964  1.4280 -1.6398  1.2245
46158SOL     OW50452  11.754   9.437  12.826 -0.0109 -0.4251  0.0475
46158SOL    HW150453  11.660   9.426  12.814 -0.0156 -0.1994 -0.1125
46158SOL    HW250454  11.783   9.353  12.861 -0.8150  0.5662  3.4383
46159SOL     OW50455  11.418   7.955   4.920  0.2353 -0.2500 -0.2454
46159SOL    HW150456  11.460   8.030   4.876 -0.1828 -0.2119 -0.5864
46159SOL    HW250457  11.474   7.880   4.898  1.1577  0.0881  0.8260
46160SOL     OW50458   5.025  11.579   1.964 -0.2626 -0.0563 -0.1459
46160SOL    HW150459   5.064  11.570   2.051 -1.1308 -0.7009  0.1942
46160SOL    HW250460   5.035  11.671   1.943  0.8758 -0.0861  0.1909
46161SOL     OW50461   6.256   6.697  13.545  0.3545  0.1145 -0.5950
46161SOL    HW150462   6.310   6.759  13.593 -1.0321  2.1797 -1.5570
46161SOL    HW250463   6.168   6.709  13.580 -0.1681 -0.4154 -1.6559
46162SOL     OW50464  12.316   4.564   9.841 -0.4778 -0.5691 -0.3815
46162SOL    HW150465  12.274   4.486   9.804 -0.2041 -0.9173  0.0297
46162SOL    HW250466  12.405   4.562   9.807 -0.5705 -0.2422 -0.6499
46163SOL     OW50467   6.809   8.898   9.637 -0.2279  0.1229 -0.0684
46163SOL    HW150468   6.829   8.856   9.553 -0.5788  0.4428 -0.3148
46163SOL    HW250469   6.799   8.991   9.616  1.0901  0.4216  0.5681
46164SOL     OW50470  11.171  10.913  11.737 -0.3801 -0.0367  0.6023
46164SOL    HW150471  11.234  10.908  11.809 -0.8272 -2.5435  0.9380
46164SOL    HW250472  11.202  10.848  11.674 -1.2736  0.4651 -0.3900
46165SOL     OW50473  13.592  10.992   8.616  0.5597 -0.3443 -0.2206
46165SOL    HW150474  13.602  10.919   8.677 -0.4929  0.1379  0.5476
46165SOL    HW250475  13.569  10.950   8.533  3.0694 -1.0907 -0.6511
46166SOL     OW50476   6.947   2.235  11.370 -0.2382  0.4760  0.0195
46166SOL    HW150477   7.013   2.223  11.302 -1.3418 -1.9939 -0.6892
46166SOL    HW250478   6.988   2.199  11.449 -0.3442 -0.0657 -0.1737
46167SOL     OW50479  13.611   0.485   9.921 -0.6799 -0.5592  0.4099
46167SOL    HW150480  13.619   0.531  10.005  0.3075  0.3784 -0.1759
46167SOL    HW250481  13.524   0.508   9.889 -1.7597 -2.2460  1.8964
46168SOL     OW50482   0.486   0.473  13.818 -0.1481  0.1168 -0.2874
46168SOL    HW150483   0.415   0.537  13.828 -1.0800 -0.6298 -1.7542
46168SOL    HW250484   0.557   0.508  13.872 -1.1000  1.6776  0.0372
46169SOL     OW50485   1.408   0.233  13.871 -0.1555 -0.2666 -0.2837
46169SOL    HW150486   1.404   0.174  13.946 -0.9335 -1.5055 -1.2654
46169SOL    HW250487   1.486   0.204  13.823  1.1730  1.4449  0.7507
46170SOL     OW50488   8.126   8.426  12.107  0.7001  0.3329  0.0391
46170SOL    HW150489   8.094   8.379  12.031  1.5624 -0.4477  0.1512
46170SOL    HW250490   8.047   8.456  12.152  0.1830  1.2473 -1.4125
46171SOL     OW50491   7.229  13.003   6.562  0.3456  0.0281  0.3621
46171SOL    HW150492   7.169  13.016   6.489  0.6148  0.9342  0.2872
46171SOL    HW250493   7.315  13.025   6.527  0.5358  0.0687  0.8426
46172SOL     OW50494   5.805   3.934  11.493  0.8242  0.3282 -0.0628
46172SOL    HW150495   5.743   3.966  11.427  0.5218 -0.2826 -0.0851
46172SOL    HW250496   5.883   3.910  11.444  0.4150 -0.6070 -0.2739
46173SOL     OW50497   1.813   0.664   0.279 -0.3900 -0.2161  0.1508
46173SOL    HW150498   1.817   0.671   0.184 -0.1410  0.9461  0.2338
46173SOL    HW250499   1.884   0.721   0.310 -0.2269 -0.8746  1.0239
46174SOL     OW50500   7.763  13.313  10.209  0.1629  0.3792  0.4907
46174SOL    HW150501   7.807  13.333  10.291 -0.1112  0.7806  0.5465
46174SOL    HW250502   7.775  13.219  10.196 -1.4640 -0.0747  1.9771
46175SOL     OW50503   5.094   4.389   4.268 -0.3040  0.0252 -0.4414
46175SOL    HW150504   5.117   4.303   4.304 -0.5496  0.5465  1.0098
46175SOL    HW250505   5.052   4.435   4.341 -0.1074  1.4100 -1.1755
46176SOL     OW50506   7.110  13.551   3.041 -0.7785 -0.5075  0.2693
46176SOL    HW150507   7.090  13.620   2.978  0.4424 -1.0101 -0.7100
46176SOL    HW250508   7.189  13.582   3.086 -0.2003 -1.2612 -0.2030
46177SOL     OW50509   9.215  10.072  11.273 -0.7279  0.2744 -0.1252
46177SOL    HW150510   9.184  10.148  11.225  0.5079  0.9834  0.1703
46177SOL    HW250511   9.147  10.056  11.339 -0.6043  1.6326  0.3571
46178SOL     OW50512   6.688  12.603   8.841  0.2266 -0.2448 -0.3625
46178SOL    HW150513   6.655  12.691   8.824 -0.1933 -0.3538 -0.1210
46178SOL    HW250514   6.780  12.607   8.817  0.2445  0.2996 -0.2052
46179SOL     OW50515   6.382  13.623   3.882  0.1224 -0.1892  0.0625
46179SOL    HW150516   6.287  13.609   3.878  0.4545 -2.5875 -0.6472
46179SOL    HW250517   6.401  13.683   3.810 -0.9016  0.9225  0.6693
46180SOL     OW50518  13.649   2.719  13.789 -0.4473  0.5621 -0.3021
46180SOL    HW150519  13.563   2.697  13.825  0.4469  1.3924  2.6900
46180SOL    HW250520  13.642   2.700  13.696 -2.9058 -2.3305  0.3090
46181SOL     OW50521   6.122   4.044   2.355  0.2117 -0.2729  0.6498
46181SOL    HW150522   6.081   3.958   2.369  0.9798 -1.2182 -2.1050
46181SOL    HW250523   6.113   4.059   2.261 -1.6288  3.6765  1.2909
46182SOL     OW50524   2.728  13.537   3.308  0.4043 -0.1282  0.2662
46182SOL    HW150525   2.687  13.479   3.372  1.2080 -0.5208  0.4390
46182SOL    HW250526   2.708  13.625   3.339  2.3799 -0.2579  2.1853
46183SOL     OW50527   7.894   6.115   1.051  0.6008  0.2563  0.0485
46183SOL    HW150528   7.814   6.081   1.011 -0.0634  0.7173  0.9410
46183SOL    HW250529   7.867   6.145   1.138  1.7399  0.4518  0.3592
46184SOL     OW50530  11.092  13.591   1.004  0.0336 -0.6067 -0.0399
46184SOL    HW150531  11.145  13.601   1.084  0.0536  0.6588 -0.1940
46184SOL    HW250532  11.145  13.629   0.935  0.3447 -2.3823 -0.8441
46185SOL     OW50533   7.587   4.331   4.061 -0.6749 -0.1609 -0.6212
46185SOL    HW150534   7.522   4.342   4.131 -0.7577  1.2327 -0.8929
46185SOL    HW250535   7.535   4.307   3.984 -0.4433 -3.6642  0.1123
46186SOL     OW50536  10.365   7.989   5.780 -0.6177 -0.5500  0.1018
46186SOL    HW150537  10.390   7.897   5.786 -0.3857 -0.6149 -1.2997
46186SOL    HW250538  10.442   8.037   5.811 -0.8348 -0.8154  1.0832
46187SOL     OW50539  12.033  12.161   8.123 -0.0850  0.2858  0.4526
46187SOL    HW150540  12.045  12.118   8.208 -0.9855  0.5664  0.7371
46187SOL    HW250541  12.035  12.254   8.143  1.4691  0.3866 -0.1066
46188SOL     OW50542  10.263   5.998  13.064 -0.4484  0.2869  0.1300
46188SOL    HW150543  10.316   6.078  13.069 -0.7139  0.4219  0.8407
46188SOL    HW250544  10.325   5.929  13.042 -0.0500  0.5189  0.5133
46189SOL     OW50545   9.663   8.210   0.130  0.4224 -0.1262  0.2272
46189SOL    HW150546   9.667   8.171   0.042 -0.9432  1.1685 -0.4424
46189SOL    HW250547   9.751   8.244   0.145 -0.1398  2.7552 -2.1703
46190SOL     OW50548   6.033  10.104   4.833 -0.1841 -0.3786  0.0667
46190SOL    HW150549   6.038  10.178   4.893 -0.3742 -1.3870  1.3848
46190SOL    HW250550   6.032  10.143   4.746  0.3216  1.1250  0.7061
46191SOL     OW50551   0.587  12.070  11.755 -0.4085  0.0844 -0.0443
46191SOL    HW150552   0.579  12.110  11.842 -0.2123  0.9317 -0.4096
46191SOL    HW250553   0.593  11.976  11.773  1.5706  0.3621  0.9897
46192SOL     OW50554  11.669   7.765   1.787  0.3617  0.3669  0.0302
46192SOL    HW150555  11.630   7.726   1.709  0.6979 -0.5679  0.3152
46192SOL    HW250556  11.671   7.859   1.769 -0.6119  0.2742 -0.6066
46193SOL     OW50557   7.497   0.753   7.581  0.0286  0.0459  0.4311
46193SOL    HW150558   7.423   0.783   7.633 -0.5017 -0.4350 -0.0335
46193SOL    HW250559   7.457   0.711   7.505  0.7757 -0.5105  0.3403
46194SOL     OW50560   7.902   2.406   8.753 -0.1151 -0.2771 -0.1640
46194SOL    HW150561   7.949   2.381   8.674  1.8217 -3.1100  1.6869
46194SOL    HW250562   7.966   2.395   8.824 -2.1817  0.5969  1.9841
46195SOL     OW50563   9.918   7.063  11.158  0.2661  0.0661  0.0369
46195SOL    HW150564   9.834   7.102  11.134  0.4611  1.3249  1.2850
46195SOL    HW250565   9.895   6.996  11.223  0.0610 -1.0818 -1.1635
46196SOL     OW50566  10.438   7.943   3.135  0.3126 -0.2982 -0.1569
46196SOL    HW150567  10.375   8.010   3.162  0.1261 -0.1975 -0.8084
46196SOL    HW250568  10.389   7.861   3.136  0.1833 -0.2271 -0.6168
46197SOL     OW50569   8.402   3.843  10.326  0.4999  0.0559  0.0010
46197SOL    HW150570   8.374   3.773  10.267 -2.1595  0.5162  0.5818
46197SOL    HW250571   8.433   3.912  10.267 -1.4707  0.2408 -0.9104
46198SOL     OW50572   5.636   5.341  13.618 -0.3011 -0.2200  0.3986
46198SOL    HW150573   5.638   5.431  13.584 -0.4842 -1.1377 -2.2208
46198SOL    HW250574   5.722   5.330  13.660  0.0296  0.9240  0.0771
46199SOL     OW50575   6.553  11.284   0.839 -0.1853  0.4381 -0.2851
46199SOL    HW150576   6.492  11.213   0.859 -2.1655  2.0234 -0.4402
46199SOL    HW250577   6.575  11.272   0.747  1.1264 -1.1161  0.1896
46200SOL     OW50578   3.607   3.635   9.080  0.0085  0.4535  0.4434
46200SOL    HW150579   3.576   3.682   9.157 -0.3661 -0.0201  0.5892
46200SOL    HW250580   3.702   3.644   9.081 -0.0309  0.8107  0.7241
46201SOL     OW50581   2.929   2.441   7.263 -0.2540  0.1860 -0.3593
46201SOL    HW150582   2.876   2.470   7.189  0.6578 -1.2729 -1.6448
46201SOL    HW250583   3.012   2.413   7.224  0.3424 -0.4179  1.2496
46202SOL     OW50584  13.419  13.527   4.269  0.1678 -0.1948  0.0876
46202SOL    HW150585  13.333  13.495   4.241 -1.1324  1.5028  1.8811
46202SOL    HW250586  13.427  13.497   4.360  1.2820  0.0406  0.0782
46203SOL     OW50587   8.386   6.989   2.005 -0.1641 -0.0613  0.2350
46203SOL    HW150588   8.292   6.994   2.020 -0.4496 -0.2518 -1.3129
46203SOL    HW250589   8.413   7.080   1.994 -0.3702 -0.0795 -0.4322
46204SOL     OW50590  11.679  11.532  10.796 -0.2804  0.2957  0.0627
46204SOL    HW150591  11.695  11.555  10.705  0.1821  1.8456  0.5078
46204SOL    HW250592  11.744  11.582  10.846 -0.7020 -0.3007  1.2701
46205SOL     OW50593   9.828  11.851  12.152 -0.6163  0.0206 -0.2206
46205SOL    HW150594   9.920  11.876  12.163 -0.5082 -0.2796 -0.4092
46205SOL    HW250595   9.800  11.898  12.073 -1.2103  1.6752  0.9320
46206SOL     OW50596   1.946  11.787   6.562 -0.4943 -0.1521  0.7844
46206SOL    HW150597   1.947  11.703   6.517 -0.0645 -0.4325  1.3265
46206SOL    HW250598   1.949  11.852   6.491 -0.4764 -0.5903  0.3843
46207SOL     OW50599  10.624  12.908   1.269  0.0230  0.0872 -0.5535
46207SOL    HW150600  10.550  12.907   1.208  0.5841  0.4259 -1.2651
46207SOL    HW250601  10.616  12.826   1.318 -0.8848  0.1763 -0.5305
46208SOL     OW50602   2.891   9.663   9.856  0.3747  0.2756  0.5195
46208SOL    HW150603   2.848   9.578   9.845  0.7283  0.0738  0.6826
46208SOL    HW250604   2.824   9.719   9.894  0.6375 -0.4041  2.0424
46209SOL     OW50605  13.753   9.846  10.491 -0.5144  0.1819  0.5202
46209SOL    HW150606  13.805   9.890  10.558  0.8579  1.2657 -1.1818
46209SOL    HW250607  13.665   9.884  10.499  0.1419  1.7899  0.3986
46210SOL     OW50608   3.829  13.838   0.749 -0.5865  0.4241  0.3456
46210SOL    HW150609   3.911  13.850   0.701 -0.7251  1.5464  0.3637
46210SOL    HW250610   3.773  13.909   0.719 -2.0488 -1.0420 -0.6299
46211SOL     OW50611   0.081   5.122   7.472  0.0020  0.3554 -0.3948
46211SOL    HW150612   0.030   5.194   7.435 -0.4715  0.7311  0.9377
46211SOL    HW250613   0.121   5.159   7.551  0.7194 -0.5055 -0.3406
46212SOL     OW50614   6.360   1.651  10.274  0.1894  0.3200  0.2997
46212SOL    HW150615   6.331   1.591  10.343 -0.1758 -0.3805 -0.4533
46212SOL    HW250616   6.355   1.737  10.315 -4.0827  0.4595 -0.0388
46213SOL     OW50617   3.307   7.354   7.131 -0.2045 -0.4516 -0.4166
46213SOL    HW150618   3.313   7.450   7.127  0.6801 -0.3241  1.9429
46213SOL    HW250619   3.247   7.337   7.203 -1.3337 -1.7287 -1.6095
46214SOL     OW50620   1.925   3.574   8.545 -0.2965  0.6438  0.4000
46214SOL    HW150621   1.938   3.539   8.633 -2.1889 -0.6611  0.2294
46214SOL    HW250622   2.011   3.605   8.519  0.4973  0.2829  2.3763
46215SOL     OW50623   2.881  12.898   3.939 -0.4636 -0.2335 -0.1793
46215SOL    HW150624   2.947  12.966   3.925  0.9474 -1.5195  0.0434
46215SOL    HW250625   2.872  12.855   3.854 -2.7569  1.3515 -0.8525
46216SOL     OW50626   4.729   9.106   2.101  0.0623 -0.5629  0.0779
46216SOL    HW150627   4.705   9.193   2.136  0.2274  0.3795 -2.0227
46216SOL    HW250628   4.674   9.045   2.150 -1.1255  0.8678  0.6060
46217SOL     OW50629  11.560   0.068  13.125 -0.3352  0.4770  0.3861
46217SOL    HW150630  11.616   0.051  13.049  0.7806  0.1677  1.2530
46217SOL    HW250631  11.472   0.075  13.088  0.3590  2.0397 -1.1624
46218SOL     OW50632  11.292   2.322  10.612  0.1606 -0.4970  0.1581
46218SOL    HW150633  11.231   2.273  10.557  0.3563 -0.0370 -0.4757
46218SOL    HW250634  11.245   2.402  10.635  1.1910  0.8202 -1.9858
46219SOL     OW50635  13.447   2.102   8.096 -0.0660 -0.1286  0.2530
46219SOL    HW150636  13.506   2.103   8.171 -0.7432  0.5852  0.7953
46219SOL    HW250637  13.504   2.118   8.021  0.2432  2.4716  0.9375
46220SOL     OW50638   0.748   0.319   1.115 -0.0610 -0.5638 -0.4745
46220SOL    HW150639   0.692   0.347   1.187  0.2712 -1.4581  0.1556
46220SOL    HW250640   0.786   0.400   1.081 -1.5019  0.0306 -0.7322
46221SOL     OW50641   5.873   6.981  11.279  0.6782  0.1295  0.4363
46221SOL    HW150642   5.814   6.906  11.277 -0.1797  0.7815 -1.3276
46221SOL    HW250643   5.824   7.050  11.324  0.6465  0.2527  0.2138
46222SOL     OW50644  10.996  12.019   6.736  0.0680 -0.1386  0.5028
46222SOL    HW150645  11.007  12.050   6.646 -0.1791 -0.0604  0.4993
46222SOL    HW250646  10.978  12.098   6.787 -2.1009 -0.3870  0.2503
46223SOL     OW50647  13.305  10.807   4.402  0.0374  0.1669  0.2356
46223SOL    HW150648  13.366  10.881   4.396 -0.8945  0.9872  0.6064
46223SOL    HW250649  13.358  10.731   4.380  0.7583  1.0689 -1.3318
46224SOL     OW50650   3.698  10.586   2.693 -0.3761 -0.2267 -0.1488
46224SOL    HW150651   3.734  10.588   2.782  0.7978 -4.8067 -0.3069
46224SOL    HW250652   3.762  10.633   2.640  1.5055 -1.6422  0.7607
46225SOL     OW50653   8.291   1.214   9.491 -0.0400  0.3333 -0.5976
46225SOL    HW150654   8.229   1.161   9.541  0.9258 -1.6783 -1.4040
46225SOL    HW250655   8.245   1.296   9.475 -2.4649 -1.0206 -1.0730
46226SOL     OW50656   5.181   2.589   7.727  0.4217  0.4709  0.7412
46226SOL    HW150657   5.210   2.624   7.643  0.8543 -3.1419 -0.7698
46226SOL    HW250658   5.195   2.495   7.720 -5.1586 -0.8570  2.5320
46227SOL     OW50659   9.471   3.399   6.396  0.0702 -0.2814  0.4728
46227SOL    HW150660   9.527   3.338   6.350  3.6200  2.9064  0.0575
46227SOL    HW250661   9.519   3.420   6.477  0.4917  3.7370 -0.6028
46228SOL     OW50662  10.928   5.887   2.183 -0.4556 -0.2619  0.1603
46228SOL    HW150663  10.960   5.840   2.106 -1.2805 -0.3335 -0.1453
46228SOL    HW250664  10.857   5.832   2.217 -1.5499  0.8201 -0.2915
46229SOL     OW50665   9.411   5.060  10.557  0.4064  0.6254 -0.4305
46229SOL    HW150666   9.460   5.098  10.484 -0.0434  1.8117 -0.1236
46229SOL    HW250667   9.466   4.986  10.586  0.2823 -0.2847 -2.3597
46230SOL     OW50668   0.439  12.220   9.376  0.0512 -0.0459  0.1728
46230SOL    HW150669   0.457  12.193   9.286  0.1665  0.6863 -0.0345
46230SOL    HW250670   0.439  12.139   9.426 -2.9324 -0.8350 -0.9225
46231SOL     OW50671  10.085   7.404   7.424 -0.0655  0.5616 -1.0591
46231SOL    HW150672  10.172   7.373   7.399 -1.0377 -1.7028 -1.9124
46231SOL    HW250673  10.050   7.334   7.479 -0.0238  3.0467  2.4603
46232SOL     OW50674   2.888   9.775  10.420 -0.0066 -0.6822  0.3335
46232SOL    HW150675   2.876   9.686  10.388 -0.7800 -0.6389  0.4778
46232SOL    HW250676   2.862   9.771  10.512 -1.8832  0.0674 -0.1166
46233SOL     OW50677   5.797   1.638   2.589 -0.8017  0.8191 -0.0905
46233SOL    HW150678   5.704   1.615   2.592 -0.6456  0.2800  3.1583
46233SOL    HW250679   5.808   1.705   2.656  1.5323 -0.7563  1.2291
46234SOL     OW50680   8.795   4.421  11.750  0.4320 -0.6689 -0.3004
46234SOL    HW150681   8.868   4.394  11.806 -0.0261 -1.1687  0.0579
46234SOL    HW250682   8.734   4.347  11.751  1.2106 -1.4793 -2.9051
46235SOL     OW50683   6.807   5.264   6.594 -0.1783  0.5412 -0.0333
46235SOL    HW150684   6.844   5.181   6.624  0.7919  0.6879 -0.7728
46235SOL    HW250685   6.755   5.240   6.517 -0.6418  0.5080  0.2825
46236SOL     OW50686   1.171   2.723   4.957 -0.6895  0.4200  0.4364
46236SOL    HW150687   1.228   2.794   4.927  0.2507 -0.6443 -0.3716
46236SOL    HW250688   1.083   2.758   4.948 -0.4855  0.3256 -3.3686
46237SOL     OW50689   3.623  12.907  10.342 -0.5619  0.0084  0.1634
46237SOL    HW150690   3.588  12.847  10.408 -1.7007  0.1662 -0.2818
46237SOL    HW250691   3.680  12.852  10.288  0.0803 -0.2040  1.0357
46238SOL     OW50692   1.366   2.462   9.034 -0.2860 -0.4588  0.0463
46238SOL    HW150693   1.285   2.461   8.984  0.4199 -0.7274 -1.1164
46238SOL    HW250694   1.377   2.554   9.060  0.1322 -0.0007 -1.6363
46239SOL     OW50695   0.640   6.742   2.656  0.4632  0.0106  0.2586
46239SOL    HW150696   0.576   6.782   2.715  0.7136  1.2057 -0.2450
46239SOL    HW250697   0.606   6.762   2.568  1.2239  0.1651 -0.0086
46240SOL     OW50698  13.340   7.566  11.095 -0.2037 -0.0210 -0.3429
46240SOL    HW150699  13.405   7.506  11.129 -0.4709 -0.5927 -0.8208
46240SOL    HW250700  13.296   7.517  11.025 -0.3132  0.7804 -0.8520
46241SOL     OW50701   2.781   0.387  11.734  0.4969 -0.3635  0.0460
46241SOL    HW150702   2.796   0.394  11.828 -2.1353  1.0389  0.4861
46241SOL    HW250703   2.843   0.448  11.695 -0.7177  1.7679  1.2555
46242SOL     OW50704  12.490  11.445   5.461 -0.4196  0.3162 -0.1677
46242SOL    HW150705  12.481  11.408   5.548 -0.8942 -0.5416 -0.5670
46242SOL    HW250706  12.535  11.529   5.474 -0.9679  0.4463  0.9434
46243SOL     OW50707  12.682  10.580  11.511 -0.7026  0.1292  0.1065
46243SOL    HW150708  12.731  10.523  11.451 -0.0760  2.8497 -2.1859
46243SOL    HW250709  12.692  10.538  11.596  0.5743 -2.5961 -1.2337
46244SOL     OW50710   9.076   8.689   1.840 -0.7995 -0.0439 -0.2696
46244SOL    HW150711   9.116   8.756   1.894 -0.9719 -0.7686  0.7858
46244SOL    HW250712   8.983   8.712   1.837 -0.5723  0.8077 -1.4926
46245SOL     OW50713   5.956  13.760   6.527  0.3821  0.1507 -0.2550
46245SOL    HW150714   5.876  13.806   6.499 -0.2769 -0.9403 -0.2391
46245SOL    HW250715   5.924  13.687   6.580  1.3970 -0.3386 -0.2986
46246SOL     OW50716  10.031   1.795   7.329 -0.4493  0.3363  0.4287
46246SOL    HW150717  10.073   1.820   7.247 -2.1279 -0.4203 -0.7316
46246SOL    HW250718  10.068   1.709   7.350 -0.6581  0.1260 -0.0425
46247SOL     OW50719  10.535  11.689   5.463  0.4895  0.4276  0.4125
46247SOL    HW150720  10.486  11.611   5.489  1.0267  0.1940  0.7679
46247SOL    HW250721  10.470  11.759   5.458 -0.0083 -0.0650  0.0031
46248SOL     OW50722   9.064   4.517  11.916  0.5203  0.6958  0.2413
46248SOL    HW150723   9.073   4.423  11.931 -0.8317  0.4803 -0.1183
46248SOL    HW250724   9.130   4.557  11.972  1.4530 -0.4914  0.0176
46249SOL     OW50725  13.344  13.354   7.131  0.3705 -0.3743  0.1481
46249SOL    HW150726  13.422  13.379   7.082 -0.3275 -0.8942 -1.2961
46249SOL    HW250727  13.374  13.289   7.194  1.2866  0.2368  0.3497
46250SOL     OW50728  11.200  11.966   4.073  0.1163  0.1503  0.2916
46250SOL    HW150729  11.255  12.032   4.115  1.0690  0.0267 -0.7048
46250SOL    HW250730  11.251  11.937   3.998 -0.0826 -2.0004  0.8995
46251SOL     OW50731  10.864   5.437  11.310 -0.1999  0.0231  0.1886
46251SOL    HW150732  10.814   5.356  11.313  0.6495 -0.4770  1.5338
46251SOL    HW250733  10.953   5.409  11.290  0.3416  0.4765  1.8305
46252SOL     OW50734   9.923   3.129   5.667  0.2787 -0.0086 -0.1012
46252SOL    HW150735  10.018   3.116   5.667  0.2613 -0.1980 -1.0338
46252SOL    HW250736   9.887   3.043   5.650 -0.1409 -0.2477  1.7537
46253SOL     OW50737   7.003   9.559   6.221  0.6663 -0.3999  0.1688
46253SOL    HW150738   6.993   9.647   6.257 -0.7006 -0.8620  0.9819
46253SOL    HW250739   7.032   9.505   6.294  1.3811 -0.6709 -0.2963
46254SOL     OW50740   3.020  12.720  10.944 -0.2881  0.4407  0.5964
46254SOL    HW150741   2.986  12.695  11.030 -0.3743  1.2978  0.8200
46254SOL    HW250742   3.114  12.703  10.949 -0.6566 -2.1142 -0.0853
46255SOL     OW50743  13.911  13.739   4.388  0.5125 -0.4391 -0.0817
46255SOL    HW150744  14.004  13.724   4.375  0.3943 -2.5817  1.0292
46255SOL    HW250745  13.869  13.682   4.323 -0.0824  1.4068 -1.4036
46256SOL     OW50746  11.757   2.708   4.340  0.1648  0.4439  0.4777
46256SOL    HW150747  11.822   2.765   4.382  0.0053  1.6525 -0.8168
46256SOL    HW250748  11.802   2.676   4.261  0.3130 -1.4194  1.2812
46257SOL     OW50749   3.770   5.198   9.007  0.1823  0.4435  0.0944
46257SOL    HW150750   3.695   5.211   8.948 -0.2680  1.8911  0.9656
46257SOL    HW250751   3.846   5.215   8.952 -0.1967  0.9494 -0.2830
46258SOL     OW50752  13.297   1.823   4.662  0.0464  0.2281  0.8322
46258SOL    HW150753  13.295   1.741   4.710 -0.4112 -0.8143 -0.8714
46258SOL    HW250754  13.291   1.797   4.570  0.3919  2.1468  0.2153
46259SOL     OW50755   1.170   4.881  13.386  0.4590  0.2104  0.3510
46259SOL    HW150756   1.193   4.789  13.402 -0.8826 -0.3915 -0.9783
46259SOL    HW250757   1.084   4.878  13.343  0.8098  2.0362 -0.5933
46260SOL     OW50758  12.085  12.414   9.673 -0.5277  0.2933  0.2939
46260SOL    HW150759  12.179  12.403   9.661 -0.3908  1.9570 -0.5153
46260SOL    HW250760  12.046  12.371   9.597 -0.5783 -1.9631  1.5225
46261SOL     OW50761   4.679   1.334   9.628 -0.3474 -0.6180 -0.3092
46261SOL    HW150762   4.695   1.358   9.536 -1.3273 -2.1934 -0.9328
46261SOL    HW250763   4.725   1.251   9.639  0.7338  0.1196  0.9986
46262SOL     OW50764   3.128   9.508   3.572 -0.6941 -1.0773  0.7791
46262SOL    HW150765   3.098   9.508   3.481  1.9860  1.0257 -0.2780
46262SOL    HW250766   3.161   9.420   3.586  1.4581 -0.7507 -1.4058
46263SOL     OW50767   7.563   2.171   7.074  0.0257  0.7506 -0.1193
46263SOL    HW150768   7.472   2.168   7.046  0.0680 -0.1631 -0.1946
46263SOL    HW250769   7.613   2.142   6.998  0.1719 -1.3518  0.7150
46264SOL     OW50770   2.090   4.853   2.420  0.2626 -0.9527 -0.2005
46264SOL    HW150771   2.098   4.866   2.514  1.5539 -3.0484  0.0521
46264SOL    HW250772   2.011   4.799   2.410  0.3155 -1.0187 -0.2685
46265SOL     OW50773   7.953   6.222   0.187  0.7866 -0.3613  0.0819
46265SOL    HW150774   7.901   6.301   0.201 -0.2961 -0.8783 -0.8501
46265SOL    HW250775   8.003   6.241   0.108  1.7522 -0.0125  0.7617
46266SOL     OW50776   2.326   7.207   5.035  0.2091  0.0656  0.0007
46266SOL    HW150777   2.381   7.286   5.039  0.9458 -0.4282 -0.1778
46266SOL    HW250778   2.330   7.171   5.124  0.2291 -0.0076 -0.0300
46267SOL     OW50779   1.175   1.449   3.992 -0.4332  0.1682 -0.4392
46267SOL    HW150780   1.234   1.429   3.920 -1.7477 -1.7227 -1.0877
46267SOL    HW250781   1.142   1.537   3.973  0.3675  0.2896 -1.3153
46268SOL     OW50782   6.854  12.795   6.384  0.1777  0.1828 -0.0626
46268SOL    HW150783   6.834  12.814   6.293  0.0564 -1.1663 -0.3368
46268SOL    HW250784   6.940  12.752   6.382  1.7863  3.0340  0.8075
46269SOL     OW50785   4.753   6.346  10.132 -0.1434  0.2095  0.1362
46269SOL    HW150786   4.750   6.406  10.207 -0.0532  0.4733 -0.0678
46269SOL    HW250787   4.723   6.400  10.058  1.9765  0.6449 -0.4725
46270SOL     OW50788   0.150  12.045   3.880 -0.0113 -0.3965 -0.1779
46270SOL    HW150789   0.202  11.968   3.856  0.2537 -0.0084 -0.8889
46270SOL    HW250790   0.182  12.114   3.822 -2.6545 -0.5948 -2.0308
46271SOL     OW50791   8.218   3.536   2.397 -0.0444  0.1243  0.2140
46271SOL    HW150792   8.154   3.607   2.399  1.3640  1.6690 -2.7349
46271SOL    HW250793   8.297   3.573   2.435  0.1773 -0.5105  0.3869
46272SOL     OW50794  10.997  13.915   0.257 -0.9694 -0.0514  0.6051
46272SOL    HW150795  10.945  13.971   0.316 -1.5069  2.3216 -1.9027
46272SOL    HW250796  11.057  13.976   0.215 -0.5773 -1.6449 -1.2419
46273SOL     OW50797   3.935   5.933   7.353  0.2956 -0.3345  0.7236
46273SOL    HW150798   3.952   6.027   7.350  2.7287 -0.7164 -0.8532
46273SOL    HW250799   3.850   5.922   7.309 -0.1465  1.1224  1.1804
46274SOL     OW50800   0.757   2.288   6.125 -0.4300 -0.1666  0.4543
46274SOL    HW150801   0.711   2.354   6.178 -0.1216 -0.2047  0.7752
46274SOL    HW250802   0.815   2.244   6.187  0.8470  0.6050 -0.1358
46275SOL     OW50803  11.915   6.948   9.284 -0.1074 -0.3187  0.1829
46275SOL    HW150804  12.003   6.912   9.295  0.2540  0.2536 -0.7503
46275SOL    HW250805  11.899   6.946   9.190 -1.8878 -2.2317  0.4501
46276SOL     OW50806   8.078  10.724   4.939  0.9227 -0.1286 -0.5757
46276SOL    HW150807   8.159  10.759   4.903 -0.9128  4.8958 -0.6647
46276SOL    HW250808   8.094  10.719   5.033  1.7837 -0.8553 -0.7433
46277SOL     OW50809  11.385   8.027   4.337  0.0363  0.0319 -0.0944
46277SOL    HW150810  11.425   8.113   4.343 -0.6254  0.2583  1.3916
46277SOL    HW250811  11.416   7.992   4.253 -0.8514  2.2967 -1.4689
46278SOL     OW50812  11.680   7.375   7.041 -0.3420  0.2069  0.6525
46278SOL    HW150813  11.771   7.406   7.032 -0.9092  1.9667  0.6685
46278SOL    HW250814  11.659   7.391   7.133 -1.2815  1.6227  0.2082
46279SOL     OW50815  11.310   1.461   1.363 -0.0442 -0.3882 -0.7860
46279SOL    HW150816  11.290   1.527   1.296 -1.4989 -0.3623 -0.3701
46279SOL    HW250817  11.293   1.505   1.446  1.1094 -0.6247 -0.4105
46280SOL     OW50818  13.870   4.874   5.103  0.4099  0.4214  0.0997
46280SOL    HW150819  13.856   4.964   5.134 -2.2330  0.8279 -1.9109
46280SOL    HW250820  13.811   4.821   5.156 -1.2898  0.5815 -1.5316
46281SOL     OW50821   5.624   7.831   9.014 -0.0328 -0.1731  0.0542
46281SOL    HW150822   5.713   7.820   8.981  0.1824 -1.4632  0.9933
46281SOL    HW250823   5.590   7.742   9.022 -1.3669  0.3005 -0.1536
46282SOL     OW50824  12.868   8.414   2.476 -0.0878  0.8222 -0.1727
46282SOL    HW150825  12.937   8.413   2.541 -0.6988  1.0381  0.4973
46282SOL    HW250826  12.796   8.366   2.517 -0.8418  1.8327 -0.2571
46283SOL     OW50827   6.064   0.446  12.766 -0.1494  0.2312 -0.0056
46283SOL    HW150828   6.023   0.411  12.687  0.0761 -1.1695  0.4608
46283SOL    HW250829   5.993   0.450  12.830 -0.3214  1.3161 -0.2543
46284SOL     OW50830  13.516  12.068   1.921  0.5165 -0.1249 -0.1260
46284SOL    HW150831  13.607  12.064   1.893  0.4229 -0.3488 -0.4035
46284SOL    HW250832  13.505  11.991   1.977  1.2392  1.3367  2.1678
46285SOL     OW50833   3.724   2.586   4.399  0.0205  0.2547 -0.4563
46285SOL    HW150834   3.656   2.540   4.350 -1.0098 -0.6158  1.6939
46285SOL    HW250835   3.714   2.557   4.489  0.6897  3.1249  0.6560
46286SOL     OW50836  13.182  10.576  13.489 -0.4884  0.2938  0.3754
46286SOL    HW150837  13.101  10.525  13.483  0.0267 -0.6250  1.0578
46286SOL    HW250838  13.225  10.560  13.405 -0.9416  0.6734  0.0635
46287SOL     OW50839   2.867  12.823  10.709  0.1508  0.0888  0.9868
46287SOL    HW150840   2.931  12.845  10.641 -0.3920 -1.1120  0.0445
46287SOL    HW250841   2.919  12.807  10.787  0.9808 -0.5972  0.3044
46288SOL     OW50842   3.520   5.416   0.274  0.0499  0.1637  1.0918
46288SOL    HW150843   3.485   5.351   0.212  0.7208  1.0731 -0.3010
46288SOL    HW250844   3.456   5.417   0.346 -0.9939 -0.6364  0.2191
46289SOL     OW50845  13.709   3.096   4.568  0.7995  0.1092 -0.1945
46289SOL    HW150846  13.647   3.097   4.496  0.3566  0.8718  0.1825
46289SOL    HW250847  13.683   3.170   4.623  0.8914 -0.6846  0.9477
46290SOL     OW50848   3.537   0.330   0.149  0.3053 -0.3918 -0.0124
46290SOL    HW150849   3.557   0.423   0.136  1.1039 -0.3720  1.1619
46290SOL    HW250850   3.451   0.330   0.190  0.0287 -0.1994 -0.5943
46291SOL     OW50851  10.990   4.856   9.824 -0.0604  0.2814 -0.4616
46291SOL    HW150852  10.975   4.862   9.918  0.2866  1.0486 -0.4518
46291SOL    HW250853  11.053   4.924   9.804 -0.0423  0.0593 -1.2396
46292SOL     OW50854   7.735   9.164  13.629 -0.8232 -0.5517  0.1873
46292SOL    HW150855   7.730   9.220  13.552 -0.5340  1.8492  1.7938
46292SOL    HW250856   7.826   9.135  13.632 -0.6166  0.0715  0.0861
46293SOL     OW50857  11.351   4.075  12.902  0.5700  0.4257 -1.0242
46293SOL    HW150858  11.284   4.119  12.851 -0.3202  0.7592  0.3627
46293SOL    HW250859  11.430   4.127  12.888  0.3563  0.5029 -2.0301
46294SOL     OW50860   1.541  12.013  12.228 -0.4575 -0.5002 -1.0947
46294SOL    HW150861   1.508  12.033  12.316 -0.0740 -1.9294 -0.5986
46294SOL    HW250862   1.466  12.031  12.171 -1.6889 -2.2945 -0.1414
46295SOL     OW50863  13.905   8.576   9.520 -0.0953  0.5349 -0.4855
46295SOL    HW150864  13.924   8.548   9.610  0.4085  1.4666 -0.2791
46295SOL    HW250865  13.955   8.516   9.465  0.4566  0.6189 -0.0869
46296SOL     OW50866   9.984   5.308   0.594 -0.0106  0.6667 -0.0084
46296SOL    HW150867   9.896   5.332   0.622 -0.6253  0.4188 -1.6392
46296SOL    HW250868  10.005   5.229   0.644 -0.7912  0.6106  0.2388
46297SOL     OW50869   2.306   7.042   6.720 -0.0692 -0.2196  0.4207
46297SOL    HW150870   2.385   7.045   6.774 -0.3591  1.3809  0.7970
46297SOL    HW250871   2.339   7.042   6.630  0.3757 -0.5959  0.5833
46298SOL     OW50872   7.298   5.172   9.271 -0.1118 -0.2546  0.1885
46298SOL    HW150873   7.381   5.192   9.227 -1.1068 -2.1583 -2.9253
46298SOL    HW250874   7.324   5.128   9.352  1.9860 -1.4916 -1.0533
46299SOL     OW50875   3.844  10.028   1.131 -0.1822 -0.0923  0.0945
46299SOL    HW150876   3.880   9.947   1.094 -1.5502 -0.7552  0.1415
46299SOL    HW250877   3.915  10.091   1.124  0.0935 -0.5508 -2.4607
46300SOL     OW50878   9.977   4.425   6.089 -0.2753  0.3587 -0.5100
46300SOL    HW150879  10.002   4.516   6.101  0.1489  0.3853 -1.5029
46300SOL    HW250880   9.917   4.426   6.014 -1.7083  0.0365  0.5818
46301SOL     OW50881   9.120  10.425   2.111 -0.3580 -0.6370 -0.3312
46301SOL    HW150882   9.077  10.348   2.148 -1.7798  0.2541 -0.0237
46301SOL    HW250883   9.147  10.477   2.187  2.8336 -1.9154 -0.4608
46302SOL     OW50884  10.795   5.311   5.240  0.1500 -0.0171 -0.0483
46302SOL    HW150885  10.713   5.264   5.254  1.4174 -2.2615  0.2719
46302SOL    HW250886  10.775   5.373   5.170 -2.4169  1.2089  1.6175
46303SOL     OW50887   8.723  12.628   0.037 -0.5181 -0.6597 -0.1435
46303SOL    HW150888   8.743  12.720   0.050 -1.5132 -0.4108 -0.3464
46303SOL    HW250889   8.738  12.613  -0.056 -0.7215 -0.6161 -0.1823
46304SOL     OW50890   6.855  13.419   7.126 -0.2143  0.2792  0.0323
46304SOL    HW150891   6.827  13.431   7.035 -0.7504 -0.2901  0.1184
46304SOL    HW250892   6.809  13.341   7.155 -0.3928  0.7069  0.9363
46305SOL     OW50893  12.578   7.870   5.493 -0.3034 -0.2779 -0.8461
46305SOL    HW150894  12.533   7.787   5.511 -1.8666  0.5244 -0.8744
46305SOL    HW250895  12.669   7.852   5.514 -0.8291 -1.6060  0.5487
46306SOL     OW50896   6.527  10.110   3.840 -0.1549  0.5860  0.1310
46306SOL    HW150897   6.608  10.105   3.790 -0.1328 -0.5907  0.2543
46306SOL    HW250898   6.531  10.195   3.885  1.3393  0.2358  0.6993
46307SOL     OW50899  13.814   8.002  10.581  0.2437 -0.2395  0.1171
46307SOL    HW150900  13.900   8.039  10.563 -0.3259  1.2991  0.3721
46307SOL    HW250901  13.752   8.067  10.546 -0.8227  0.2056  2.5903
46308SOL     OW50902   7.594   4.743   9.990  0.4619 -0.0802  0.0351
46308SOL    HW150903   7.639   4.679  10.044  0.3840 -0.5987 -0.5062
46308SOL    HW250904   7.638   4.738   9.905  2.4021  2.6369  0.7527
46309SOL     OW50905   1.612   9.014  11.617  0.0258  0.6695 -0.4099
46309SOL    HW150906   1.565   8.934  11.593 -0.7232  1.0751 -0.2977
46309SOL    HW250907   1.680   9.022  11.550  1.3166 -1.0525  0.5928
46310SOL     OW50908  12.794   4.698   8.913 -0.1821  0.2711 -0.0678
46310SOL    HW150909  12.832   4.629   8.858  0.7428 -0.4495  1.3828
46310SOL    HW250910  12.730   4.652   8.968  2.2700 -0.1132  2.7687
46311SOL     OW50911   4.707   7.358   9.672 -0.6347  0.2842 -0.1190
46311SOL    HW150912   4.700   7.353   9.576  0.3633 -1.1065 -0.1511
46311SOL    HW250913   4.633   7.306   9.703  0.5439 -1.5517 -0.2180
46312SOL     OW50914   8.975  10.183   2.164  0.1855  0.1280 -0.0759
46312SOL    HW150915   9.018  10.108   2.123 -0.9818  0.1320 -1.3921
46312SOL    HW250916   8.909  10.211   2.100 -0.7264  1.0580  1.2114
46313SOL     OW50917   2.640  13.680   2.520  0.2150 -0.4173  0.3885
46313SOL    HW150918   2.562  13.626   2.531  0.3666 -0.5246  0.9456
46313SOL    HW250919   2.713  13.620   2.534  0.4215 -0.4973 -0.9136
46314SOL     OW50920   8.483   1.713   5.468  0.3042 -0.1777 -0.0419
46314SOL    HW150921   8.510   1.635   5.517  0.4065 -0.1009  0.0249
46314SOL    HW250922   8.395   1.692   5.437  0.7512 -0.7601 -0.9597
46315SOL     OW50923   1.356  13.807   2.681  0.3321  0.3903 -0.2074
46315SOL    HW150924   1.275  13.758   2.668 -0.3149  1.5105 -0.5473
46315SOL    HW250925   1.328  13.896   2.701  1.4720  0.5550  0.7751
46316SOL     OW50926   3.447  10.845  12.176 -0.5493 -0.7049 -0.6696
46316SOL    HW150927   3.384  10.773  12.172 -0.7156 -0.5321 -1.2181
46316SOL    HW250928   3.529  10.806  12.144 -0.2515 -1.0533  0.4764
46317SOL     OW50929   0.554   7.921  10.090 -0.4618 -0.4114 -0.5217
46317SOL    HW150930   0.535   7.827  10.086  1.5811 -0.9042  0.1202
46317SOL    HW250931   0.586   7.943  10.002 -2.8493  0.1970 -1.3022
46318SOL     OW50932  12.919  10.530  12.768 -0.4905 -0.0867  0.7100
46318SOL    HW150933  12.984  10.473  12.810 -0.6601 -0.1041  0.9474
46318SOL    HW250934  12.970  10.606  12.739 -0.3894 -0.0259  1.0413
46319SOL     OW50935  13.387   5.795   2.687 -0.2786 -0.1490 -0.5556
46319SOL    HW150936  13.346   5.760   2.766 -0.4458  1.5559  0.1573
46319SOL    HW250937  13.349   5.745   2.615 -0.4879 -1.3924  0.4024
46320SOL     OW50938   6.675   0.500  10.806  0.3402  0.3791  0.3300
46320SOL    HW150939   6.765   0.473  10.821  0.2160 -1.0443 -1.1804
46320SOL    HW250940   6.658   0.478  10.715 -2.5003 -2.4638  1.3454
46321SOL     OW50941  10.708   0.593   5.926  0.3310  0.3982  0.2835
46321SOL    HW150942  10.717   0.613   5.832  1.0241  0.3200  0.3300
46321SOL    HW250943  10.774   0.527   5.943 -0.0662  0.1132  0.7511
46322SOL     OW50944   0.216   6.261   1.387  0.1097  0.2044  0.1255
46322SOL    HW150945   0.176   6.184   1.428 -0.3466 -1.3613 -2.9754
46322SOL    HW250946   0.142   6.314   1.358  0.3197 -0.3964 -1.5716
46323SOL     OW50947   7.453   5.321   1.564 -0.2337 -0.0991 -0.8749
46323SOL    HW150948   7.517   5.392   1.570  1.1318 -1.2575 -1.1159
46323SOL    HW250949   7.413   5.331   1.478  0.4270 -0.0081 -1.1751
46324SOL     OW50950   9.671   8.357  12.842  0.5549 -0.6886 -0.3419
46324SOL    HW150951   9.711   8.277  12.807 -0.4698 -1.6922  0.6946
46324SOL    HW250952   9.743   8.402  12.886  0.8473 -1.8094  0.3834
46325SOL     OW50953   4.864  13.110  10.209  0.0036 -0.0091  0.2608
46325SOL    HW150954   4.802  13.183  10.200  1.1485  0.9510 -0.0677
46325SOL    HW250955   4.815  13.033  10.178 -1.2667  0.5777  0.7254
46326SOL     OW50956   5.205   8.531  10.360 -0.4984 -0.0430 -0.4556
46326SOL    HW150957   5.118   8.518  10.397 -0.7245 -0.0180 -0.9622
46326SOL    HW250958   5.257   8.459  10.395 -1.1838 -1.1062 -1.5313
46327SOL     OW50959  13.948   8.186   4.321  0.3963  0.1346 -0.4758
46327SOL    HW150960  13.943   8.090   4.312  1.2658  0.0962 -0.6270
46327SOL    HW250961  13.936   8.202   4.415 -1.5805  0.0236 -0.6660
46328SOL     OW50962   5.612  12.337   8.240  0.2032  0.3979 -0.2530
46328SOL    HW150963   5.674  12.317   8.310  1.2670  1.4234 -0.8718
46328SOL    HW250964   5.666  12.365   8.167 -1.0050  1.8582 -0.6428
46329SOL     OW50965  11.199   5.897   0.440  0.3047  0.0019  0.3109
46329SOL    HW150966  11.115   5.896   0.394  0.7035 -1.3219 -0.4470
46329SOL    HW250967  11.258   5.945   0.381  0.9049 -1.9926 -0.8166
46330SOL     OW50968   4.422  11.369  13.081 -1.0776  0.0138  0.2261
46330SOL    HW150969   4.376  11.391  13.161 -2.9656 -1.0299 -0.4937
46330SOL    HW250970   4.432  11.452  13.035  0.2885  0.6647  1.6258
46331SOL     OW50971  13.730   0.416   2.740 -0.2632 -0.4153  0.1505
46331SOL    HW150972  13.794   0.483   2.761  0.6674 -0.6171 -1.7592
46331SOL    HW250973  13.710   0.430   2.647 -0.8970 -2.0554 -0.0048
46332SOL     OW50974   8.999  12.904  10.510  0.2097  0.0964 -0.1648
46332SOL    HW150975   8.932  12.852  10.555  0.1085  1.2064  1.0302
46332SOL    HW250976   8.960  12.992  10.502  0.6214  0.1808 -1.5665
46333SOL     OW50977  13.663   2.318   0.857  0.0621  0.9357 -0.4630
46333SOL    HW150978  13.670   2.256   0.930 -1.4992 -1.6883 -2.4086
46333SOL    HW250979  13.572   2.347   0.859  0.6633  3.0101  0.1626
46334SOL     OW50980   5.725   7.857   3.571 -0.0534  0.2283 -0.2750
46334SOL    HW150981   5.639   7.885   3.603 -0.5413  0.6330 -1.8413
46334SOL    HW250982   5.784   7.930   3.592 -0.3420  0.4623 -0.2790
46335SOL     OW50983  10.742   9.280  10.965 -0.2562 -0.0734 -0.2334
46335SOL    HW150984  10.666   9.325  10.928  0.4540  2.4461  1.0947
46335SOL    HW250985  10.744   9.309  11.057  0.8028 -2.1968  0.4741
46336SOL     OW50986   6.216   7.508   1.949 -0.2562  0.1956  0.4129
46336SOL    HW150987   6.273   7.558   1.891  1.8282 -1.8751  0.5276
46336SOL    HW250988   6.264   7.501   2.031 -1.4737 -0.1493  1.1300
46337SOL     OW50989  12.368   0.297   4.016  0.0404 -0.0697 -0.5056
46337SOL    HW150990  12.458   0.319   4.041 -0.0116 -1.2725  0.8879
46337SOL    HW250991  12.332   0.252   4.092 -2.8708  3.1853  0.2687
46338SOL     OW50992   6.984   1.168   5.277 -0.1229  0.1680 -0.4141
46338SOL    HW150993   7.036   1.093   5.306 -0.3023  1.0549  2.4911
46338SOL    HW250994   7.034   1.205   5.204  1.2564 -1.2911 -0.2653
46339SOL     OW50995  11.418   7.693   2.430 -0.2409  0.5147  0.0952
46339SOL    HW150996  11.371   7.733   2.356 -0.8364 -2.1746 -1.1154
46339SOL    HW250997  11.507   7.727   2.422 -0.0457 -0.3443 -2.5009
46340SOL     OW50998  12.440   3.689   2.319  0.2240  0.1190 -0.1746
46340SOL    HW150999  12.419   3.595   2.324  1.2453 -0.0499  1.8541
46340SOL    HW251000  12.364   3.733   2.357  0.3258  0.0254  0.1362
46341SOL     OW51001  12.015   3.223   2.533 -0.8734  0.3621 -0.7569
46341SOL    HW151002  12.019   3.137   2.574  0.8247  0.9469  0.3858
46341SOL    HW251003  12.101   3.235   2.492 -0.7333  1.8752 -0.0990
46342SOL     OW51004  10.638  13.895   2.283 -0.0339  0.5466 -0.0279
46342SOL    HW151005  10.597  13.946   2.353 -0.9741 -0.1105 -0.0839
46342SOL    HW251006  10.570  13.888   2.216 -0.2821 -1.6286  0.4000
46343SOL     OW51007   2.670   9.688   9.573  0.1996 -0.4822 -0.4768
46343SOL    HW151008   2.579   9.670   9.595 -0.2312  0.7288 -1.1549
46343SOL    HW251009   2.721   9.634   9.634 -0.9593 -0.7059  0.3269
46344SOL     OW51010   5.812   7.172  12.928  0.1011  0.8991 -0.6949
46344SOL    HW151011   5.812   7.264  12.902  1.2255  1.0449 -0.2478
46344SOL    HW251012   5.809   7.174  13.024 -1.3027  0.4336 -0.7115
46345SOL     OW51013   4.694   5.368   4.218 -0.0504  0.0801  0.2526
46345SOL    HW151014   4.631   5.346   4.149  1.1512 -1.2059 -0.5063
46345SOL    HW251015   4.686   5.296   4.281  0.6552 -0.1285  0.1212
46346SOL     OW51016  11.233   8.894   3.019  0.4392 -0.2225  0.0149
46346SOL    HW151017  11.169   8.900   3.091  1.5395 -2.1839  1.2585
46346SOL    HW251018  11.259   8.802   3.019  0.8959 -0.1419 -2.5906
46347SOL     OW51019   3.925   4.813  12.760 -0.3387  0.0388  0.1049
46347SOL    HW151020   4.018   4.807  12.782 -0.5917 -0.9987  1.0334
46347SOL    HW251021   3.882   4.833  12.844 -0.9840  0.1006 -0.2319
46348SOL     OW51022   7.961  13.873   2.148  0.2181  0.5340  0.6898
46348SOL    HW151023   7.956  13.954   2.198 -0.1904  0.9820 -0.0626
46348SOL    HW251024   8.054  13.865   2.125  0.4510  0.1883  1.7283
46349SOL     OW51025   2.988   7.377   9.972 -0.6960 -0.2021  0.2567
46349SOL    HW151026   3.013   7.303   9.918 -0.0072 -0.8211  1.3872
46349SOL    HW251027   2.907   7.348  10.016 -0.9633  0.0954 -0.0319
46350SOL     OW51028   6.045   7.853   6.965 -0.0796 -0.2566  0.7024
46350SOL    HW151029   5.952   7.835   6.977  0.3692 -1.9430  2.0183
46350SOL    HW251030   6.089   7.772   6.993  1.7089 -0.2141 -1.6990
46351SOL     OW51031   2.987   6.979   5.612  0.0227 -0.2711 -0.1040
46351SOL    HW151032   2.981   6.949   5.522 -1.2596  3.8277 -1.6291
46351SOL    HW251033   2.901   6.963   5.650  0.1055 -0.6858 -0.0940
46352SOL     OW51034  12.154   2.344  12.170 -0.4892  0.3332  0.2858
46352SOL    HW151035  12.103   2.411  12.123  0.5974  1.1427  0.2295
46352SOL    HW251036  12.232   2.390  12.200 -0.2351 -0.6558  1.2136
46353SOL     OW51037   0.828   6.500   5.219  0.4198  0.1994 -0.5444
46353SOL    HW151038   0.893   6.484   5.151  1.3896  2.1685 -0.1500
46353SOL    HW251039   0.860   6.453   5.295  0.4069 -0.3325 -0.8658
46354SOL     OW51040   9.622   1.930   0.476  0.0176  0.4009 -0.1221
46354SOL    HW151041   9.636   1.883   0.558  1.7994 -0.6836 -0.9708
46354SOL    HW251042   9.626   1.862   0.409  0.2165  1.4663 -1.2321
46355SOL     OW51043   6.438   8.353  11.781 -0.1740  0.6107 -0.5827
46355SOL    HW151044   6.507   8.356  11.715 -0.3550 -0.0223 -0.8075
46355SOL    HW251045   6.398   8.266  11.770 -0.1290  0.4512  0.4347
46356SOL     OW51046   1.870  13.715  10.218  0.5477 -0.4623  0.0824
46356SOL    HW151047   1.802  13.664  10.174  1.1623 -0.7394 -0.5623
46356SOL    HW251048   1.951  13.670  10.196  1.0793  0.6408 -0.2649
46357SOL     OW51049   0.703   9.060   4.015  0.6922  0.0697 -0.4102
46357SOL    HW151050   0.626   9.099   3.974  0.4826  0.1749  0.0729
46357SOL    HW251051   0.668   9.008   4.087  1.0378 -0.2814 -0.4882
46358SOL     OW51052  10.534   7.397  13.168  0.0857  0.1972 -0.2724
46358SOL    HW151053  10.551   7.376  13.260  0.0064 -1.7269 -0.6423
46358SOL    HW251054  10.456   7.452  13.170 -0.7873 -1.0077  0.7559
46359SOL     OW51055   4.312  13.609   4.373  0.1777 -0.8826 -0.2363
46359SOL    HW151056   4.260  13.675   4.418  0.6965 -0.1489 -0.6998
46359SOL    HW251057   4.338  13.547   4.441 -0.1246 -0.4910  0.2383
46360SOL     OW51058  11.927   0.543   4.588 -0.1805 -0.0120  0.3161
46360SOL    HW151059  11.900   0.596   4.663 -0.2127  0.4996 -0.0559
46360SOL    HW251060  11.916   0.452   4.618  1.6019  0.1476  1.5837
46361SOL     OW51061   9.811   7.407   7.201  0.0071 -0.9628 -0.3693
46361SOL    HW151062   9.797   7.408   7.296  0.0468 -1.3201 -0.3596
46361SOL    HW251063   9.781   7.493   7.172  0.1845 -0.7769 -0.0070
46362SOL     OW51064   6.683   2.179   9.444  0.0477  0.6122  0.4242
46362SOL    HW151065   6.655   2.267   9.470 -0.2036  0.9360 -0.8913
46362SOL    HW251066   6.610   2.145   9.392  0.2804 -0.2599  0.6462
46363SOL     OW51067   7.916   9.897   0.840  0.2321 -0.7912 -0.1232
46363SOL    HW151068   7.917   9.985   0.802 -0.2611  0.3324  2.2377
46363SOL    HW251069   7.999   9.891   0.888  0.3510 -1.7128 -0.4163
46364SOL     OW51070  13.899   2.318   5.904  0.1113 -0.7489 -0.4299
46364SOL    HW151071  13.919   2.386   5.840  0.9032  0.1734  0.7572
46364SOL    HW251072  13.962   2.249   5.887  1.7500  0.3957  0.6482
46365SOL     OW51073   4.552   2.915   9.890  0.4280 -0.1616  0.1821
46365SOL    HW151074   4.502   2.893   9.812  0.9003 -1.0184  0.0995
46365SOL    HW251075   4.638   2.877   9.874  0.0033 -2.0368  1.8797
46366SOL     OW51076   6.579   7.548   5.222  0.2363 -0.7526 -0.3506
46366SOL    HW151077   6.563   7.642   5.220  1.3834 -0.5578 -2.0136
46366SOL    HW251078   6.494   7.509   5.205  0.3212  0.1057 -3.2136
46367SOL     OW51079   8.681   7.651   6.786 -0.6163 -0.3683  0.4590
46367SOL    HW151080   8.720   7.580   6.836 -0.6814 -0.2284  0.7080
46367SOL    HW251081   8.721   7.643   6.699 -2.7977 -2.5400 -0.4509
46368SOL     OW51082   6.924   0.179   8.639 -0.5707 -0.5204  0.4768
46368SOL    HW151083   6.853   0.118   8.616  1.3873 -2.8487  0.1409
46368SOL    HW251084   6.933   0.234   8.561 -2.0284 -0.0879  0.5675
46369SOL     OW51085   1.038   8.028   3.251  0.1728  0.0064 -0.6036
46369SOL    HW151086   1.031   7.939   3.216 -1.2978  0.4797 -1.6170
46369SOL    HW251087   1.093   8.019   3.329  3.0297 -1.1988 -2.6224
46370SOL     OW51088   8.244  10.954  12.345 -0.2065  0.0975 -0.2201
46370SOL    HW151089   8.166  10.993  12.384 -1.1109 -2.0595  0.2784
46370SOL    HW251090   8.216  10.927  12.257 -0.1952 -1.1536  0.1500
46371SOL     OW51091   9.779  13.707   8.833  0.1027  0.1813 -0.0345
46371SOL    HW151092   9.786  13.658   8.915  0.3370 -0.2811 -0.3303
46371SOL    HW251093   9.846  13.776   8.840 -0.0147  0.2685  0.2451
46372SOL     OW51094   1.846  12.496   8.016 -0.2468 -0.2415 -0.0297
46372SOL    HW151095   1.881  12.426   8.071 -2.0676 -0.8693  0.3875
46372SOL    HW251096   1.922  12.550   7.996  0.7296 -0.7312  2.0271
46373SOL     OW51097  10.241   0.605   1.598 -0.3674  0.4543 -0.4381
46373SOL    HW151098  10.282   0.620   1.683 -0.3376 -1.8896  0.0284
46373SOL    HW251099  10.155   0.567   1.619 -0.1351 -0.6662 -1.4316
46374SOL     OW51100   8.990   5.361   6.932  0.1667 -0.1127  0.0309
46374SOL    HW151101   8.916   5.359   6.870 -1.5565  1.5090  1.8750
46374SOL    HW251102   9.041   5.437   6.905  0.2968 -0.3257 -0.3271
46375SOL     OW51103  13.711   7.103   8.789 -0.5767 -0.6927 -0.5471
46375SOL    HW151104  13.638   7.042   8.783 -1.9031  0.9162 -1.4902
46375SOL    HW251105  13.735   7.121   8.698  0.1523 -0.2480 -0.2743
46376SOL     OW51106  11.622   9.999  13.950 -0.1539 -0.2590 -0.0967
46376SOL    HW151107  11.607   9.954  13.867 -1.7998  1.2297 -0.6637
46376SOL    HW251108  11.555   9.964  14.009 -0.1967  0.0468  0.0376
46377SOL     OW51109   2.507   7.720  11.598  0.4919  0.5041  0.5636
46377SOL    HW151110   2.421   7.727  11.559 -0.1081 -1.1650  1.4796
46377SOL    HW251111   2.564   7.693  11.526 -0.4453 -1.7604  0.5810
46378SOL     OW51112  11.096   0.173   4.837 -0.2262  0.3880 -0.3911
46378SOL    HW151113  11.112   0.158   4.930 -0.9684  0.2291 -0.2867
46378SOL    HW251114  11.002   0.160   4.826  0.0601 -1.0172 -1.4404
46379SOL     OW51115   6.419   5.409   4.592 -0.3631  0.0458  0.2265
46379SOL    HW151116   6.489   5.473   4.579  0.7078 -1.2317 -0.6021
46379SOL    HW251117   6.346   5.460   4.628  0.8398  1.4901  0.7156
46380SOL     OW51118  12.533   5.310   7.333  0.4568  0.5209  0.2208
46380SOL    HW151119  12.611   5.323   7.387  1.8213  0.4061 -1.6465
46380SOL    HW251120  12.553   5.233   7.280 -1.4834 -0.3077  0.6112
46381SOL     OW51121  11.798   8.627   8.522  0.5944  0.0213  0.0071
46381SOL    HW151122  11.856   8.659   8.453  1.6015  0.4350  1.0125
46381SOL    HW251123  11.844   8.551   8.559 -1.3109 -2.1024 -1.7082
46382SOL     OW51124   2.268  13.233   8.940 -0.5465  0.1208  1.1932
46382SOL    HW151125   2.255  13.167   9.008 -2.3826 -1.2059 -0.2929
46382SOL    HW251126   2.191  13.289   8.946 -0.5296  0.2324  0.5195
46383SOL     OW51127   0.114   8.126  11.137 -0.2142  0.1623  0.2689
46383SOL    HW151128   0.165   8.052  11.169 -0.3589  0.2088  0.6056
46383SOL    HW251129   0.060   8.153  11.211  1.0747  1.6898  0.7059
46384SOL     OW51130  11.303   9.037   5.018  0.2695 -0.3386 -0.2101
46384SOL    HW151131  11.277   9.083   5.098  0.1267  0.3747 -0.6579
46384SOL    HW251132  11.362   8.968   5.049 -0.5375 -0.6927  0.6067
46385SOL     OW51133  11.029   3.549  12.820  0.0399 -0.2989 -0.0842
46385SOL    HW151134  11.011   3.512  12.734 -1.0138 -0.7985  0.3385
46385SOL    HW251135  11.110   3.598  12.808  0.2588 -0.8946 -1.2001
46386SOL     OW51136   4.882   5.688  12.034 -1.0806  0.0171  0.4484
46386SOL    HW151137   4.898   5.720  12.123  0.7132  2.0618 -0.5254
46386SOL    HW251138   4.877   5.593  12.044  2.3077 -0.1337  2.3601
46387SOL     OW51139   7.439  10.749  11.967 -0.0208 -0.2229  0.2274
46387SOL    HW151140   7.519  10.701  11.990 -0.2987 -0.2205  1.2731
46387SOL    HW251141   7.439  10.825  12.025 -0.4453  0.1342 -0.2326
46388SOL     OW51142   0.460   9.337  11.998  0.3795  0.2906 -0.1326
46388SOL    HW151143   0.449   9.428  11.970 -1.7723  0.2176  0.2768
46388SOL    HW251144   0.411   9.331  12.080 -0.7939 -1.5631 -0.9029
46389SOL     OW51145   9.373   1.079  13.255  0.3411  0.5099  0.6212
46389SOL    HW151146   9.279   1.090  13.248  0.3444  0.1693 -0.0410
46389SOL    HW251147   9.409   1.127  13.180  0.7075  0.8011  0.9770
46390SOL     OW51148   3.755  10.852   1.975 -0.0825 -0.1707 -0.0833
46390SOL    HW151149   3.693  10.781   1.991  0.0795 -0.1604  0.6305
46390SOL    HW251150   3.722  10.897   1.897 -1.2516  0.1340  0.5675
46391SOL     OW51151   4.019   9.637   3.474  0.1437 -0.0460 -0.1028
46391SOL    HW151152   4.043   9.572   3.540  1.9261  0.5469 -0.1132
46391SOL    HW251153   4.084   9.706   3.484  0.0758  0.3505 -2.0602
46392SOL     OW51154  12.186   9.871  13.195  0.0088  0.4159  0.0127
46392SOL    HW151155  12.167   9.899  13.105 -0.0677  1.7907  0.4343
46392SOL    HW251156  12.261   9.812  13.186 -0.6709 -0.3295 -1.0558
46393SOL     OW51157   6.076   7.394  12.454  1.1358  0.0634  0.4113
46393SOL    HW151158   6.077   7.448  12.375 -0.9337  0.0142  0.2907
46393SOL    HW251159   6.065   7.304  12.421 -0.1658  0.0853  0.7325
46394SOL     OW51160  13.936   0.159   0.304  0.0611 -0.4579  0.0889
46394SOL    HW151161  13.990   0.229   0.269  0.4047 -0.9313 -0.3502
46394SOL    HW251162  13.897   0.196   0.383  0.1646  0.2519 -0.1813
46395SOL     OW51163   3.182   0.268   2.650  0.3704  0.0530  0.2241
46395SOL    HW151164   3.123   0.221   2.592  1.1490 -0.6256 -0.0453
46395SOL    HW251165   3.240   0.317   2.592  0.3114  0.4173  0.4695
46396SOL     OW51166  13.904  13.114   4.440 -0.1120 -0.0311 -0.5238
46396SOL    HW151167  13.965  13.167   4.388  1.3788 -1.2260 -0.0873
46396SOL    HW251168  13.817  13.143   4.413  0.6243  0.3253 -2.6981
46397SOL     OW51169   9.236   1.797   0.409 -0.4827 -0.3961 -0.2091
46397SOL    HW151170   9.303   1.865   0.412  0.2278 -1.0655 -0.6699
46397SOL    HW251171   9.154   1.846   0.397 -0.0498  0.4081 -0.0069
46398SOL     OW51172  13.971   8.597  11.543 -0.4391  0.5680 -0.1384
46398SOL    HW151173  13.969   8.506  11.513  1.7993  0.3552  0.1662
46398SOL    HW251174  13.897   8.603  11.604  0.2706 -1.5390  1.0530
46399SOL     OW51175   4.018   0.249   6.269  0.2002 -0.5712  0.4379
46399SOL    HW151176   4.092   0.211   6.221  0.9006  0.4663  0.6521
46399SOL    HW251177   3.986   0.318   6.211 -1.8076 -2.1830 -0.4755
46400SOL     OW51178   6.263  10.110   2.567 -0.0464 -0.4395 -0.3204
46400SOL    HW151179   6.170  10.098   2.586  0.4631 -1.0042  2.2275
46400SOL    HW251180   6.265  10.148   2.479 -2.6636 -0.4653 -0.4681
46401SOL     OW51181   8.034   5.119   6.759 -0.1450  0.5231  0.3766
46401SOL    HW151182   7.958   5.089   6.808 -0.0171 -0.5075 -0.0420
46401SOL    HW251183   8.109   5.088   6.810 -0.0037 -1.1649 -0.7872
46402SOL     OW51184  10.770  10.630   3.619 -0.1544 -0.4138  0.8591
46402SOL    HW151185  10.754  10.546   3.662 -0.7968 -0.5290  0.4023
46402SOL    HW251186  10.701  10.637   3.553 -0.8883  1.0490  1.7320
46403SOL     OW51187   8.585   7.513   8.650 -0.3003  0.0039 -0.2909
46403SOL    HW151188   8.597   7.420   8.671 -0.9268 -0.1961 -0.7661
46403SOL    HW251189   8.633   7.560   8.718  2.7034 -0.6956 -1.7484
46404SOL     OW51190   3.002   7.486  10.692 -0.8539 -0.0498 -0.0965
46404SOL    HW151191   3.062   7.559  10.680 -0.5975 -0.2483 -0.0385
46404SOL    HW251192   2.948   7.511  10.766 -0.4976 -0.0905  0.1828
46405SOL     OW51193   8.895   3.573  13.774 -0.3942  0.0981 -0.3385
46405SOL    HW151194   8.895   3.479  13.761 -0.0498 -0.0580  0.6580
46405SOL    HW251195   8.889   3.610  13.686 -1.9314 -0.8413 -0.6703
46406SOL     OW51196   1.085   1.975  12.298  0.1733 -0.1058  0.0805
46406SOL    HW151197   1.151   2.022  12.246  1.1581 -0.6596  0.7912
46406SOL    HW251198   1.125   1.891  12.318 -1.0672 -0.7633 -0.0971
46407SOL     OW51199   7.942  12.439   1.461  0.4058 -0.1939  0.1656
46407SOL    HW151200   7.991  12.425   1.542  1.5760 -1.1558 -0.6738
46407SOL    HW251201   7.943  12.534   1.449  0.5210 -0.0650  1.0787
46408SOL     OW51202   7.803   0.564   8.379 -0.1811  0.1841  0.1526
46408SOL    HW151203   7.892   0.574   8.346  0.0281 -2.1242 -0.1538
46408SOL    HW251204   7.810   0.497   8.447 -1.4160  1.3044  1.4567
46409SOL     OW51205   1.962   6.929   9.234  0.0441 -0.3651 -0.4060
46409SOL    HW151206   1.918   7.006   9.199 -0.4587  0.2428  1.4903
46409SOL    HW251207   1.893   6.879   9.276  0.8348 -0.3953  0.8933
46410SOL     OW51208   8.534   2.765   0.711 -0.0012 -0.3963  0.1894
46410SOL    HW151209   8.499   2.764   0.622 -0.6244  0.8004  0.4154
46410SOL    HW251210   8.470   2.813   0.762  0.0081 -1.6538  1.4543
46411SOL     OW51211  10.209  12.590   2.380 -0.5717 -0.0744 -0.2565
46411SOL    HW151212  10.229  12.599   2.286 -0.0873  0.2166 -0.1258
46411SOL    HW251213  10.234  12.500   2.401 -1.8185 -0.5423 -0.6786
46412SOL     OW51214   2.810   6.579   1.467 -0.0503 -0.2000  0.1711
46412SOL    HW151215   2.732   6.573   1.522  0.4349 -1.1675  0.7730
46412SOL    HW251216   2.785   6.537   1.385  0.2306 -1.7143  0.8336
46413SOL     OW51217   8.906   9.260   5.944 -0.0082  0.1428  0.2782
46413SOL    HW151218   8.878   9.336   5.995  0.7073  0.8358 -0.3254
46413SOL    HW251219   8.926   9.295   5.857  0.0500 -0.7875 -0.0957
46414SOL     OW51220   2.612   8.993   9.784  0.0427 -0.5678  0.1608
46414SOL    HW151221   2.667   8.918   9.760  2.9335  1.3657  0.1858
46414SOL    HW251222   2.671   9.052   9.831 -1.9144  2.0078 -0.3481
46415SOL     OW51223   2.261   4.453   5.519  0.1495 -0.4307 -0.2162
46415SOL    HW151224   2.236   4.445   5.611 -0.3990 -1.6402 -0.4569
46415SOL    HW251225   2.183   4.490   5.476  0.5804  0.6167 -0.1247
46416SOL     OW51226   7.323   1.422  10.605 -0.0733 -0.0226 -0.1404
46416SOL    HW151227   7.377   1.371  10.665 -1.3989  0.0997  1.1971
46416SOL    HW251228   7.243   1.441  10.654 -1.2681 -0.0311 -1.9895
46417SOL     OW51229  10.080   5.201   7.042  0.0160 -0.4634 -0.3543
46417SOL    HW151230  10.063   5.278   7.095 -0.0162  1.1754 -2.5906
46417SOL    HW251231  10.139   5.148   7.095  0.4625  1.3404  1.0544
46418SOL     OW51232   2.217   4.608   5.113 -0.0215  0.0070  0.1005
46418SOL    HW151233   2.131   4.588   5.150 -0.4890  0.8468 -0.4958
46418SOL    HW251234   2.217   4.703   5.102  0.4080 -0.1229 -1.2654
46419SOL     OW51235   9.866   5.711   9.215 -0.1015  0.5864  0.3570
46419SOL    HW151236   9.797   5.667   9.265  0.6345 -1.2359 -0.1465
46419SOL    HW251237   9.864   5.802   9.246 -1.4807  0.1452  1.6872
46420SOL     OW51238  10.296   6.401   3.255 -0.4020  0.1472 -0.4657
46420SOL    HW151239  10.301   6.490   3.219  0.0920  0.6490  0.7913
46420SOL    HW251240  10.202   6.385   3.266 -0.4609  1.3552  1.2222
46421SOL     OW51241   1.391   1.283  10.721  0.0133 -0.2064 -0.3138
46421SOL    HW151242   1.451   1.303  10.649 -0.7728  0.2599 -0.8530
46421SOL    HW251243   1.311   1.252  10.678 -0.0689 -1.0438  0.4028
46422SOL     OW51244   0.566   7.956   0.174 -0.0530  0.2643 -0.0587
46422SOL    HW151245   0.595   8.046   0.156 -1.7437  0.6392 -1.1917
46422SOL    HW251246   0.549   7.955   0.268 -1.4074  1.6173 -0.2446
46423SOL     OW51247   7.363   1.851   1.695 -0.2914  0.0077 -0.7053
46423SOL    HW151248   7.369   1.879   1.786  0.3151 -0.3963 -0.6129
46423SOL    HW251249   7.278   1.882   1.665 -0.1523  0.8632 -0.2422
46424SOL     OW51250   2.622   1.173   7.948  0.2856  0.1651  0.2492
46424SOL    HW151251   2.561   1.128   7.889  1.2188 -1.8302  0.7117
46424SOL    HW251252   2.609   1.130   8.033  2.3741 -0.4241  0.3266
46425SOL     OW51253   0.195   4.366  10.751 -0.0996 -0.5467 -0.1225
46425SOL    HW151254   0.221   4.278  10.723  1.7231  0.7956 -3.1806
46425SOL    HW251255   0.108   4.379  10.712  0.1360 -0.5830 -0.6618
46426SOL     OW51256   2.068   2.930  13.152  0.5531  0.0318 -0.1329
46426SOL    HW151257   2.045   2.836  13.151  1.4827 -0.1991 -0.7917
46426SOL    HW251258   2.157   2.933  13.185  0.1034  0.8098  1.0659
46427SOL     OW51259   2.744  13.698   8.079  0.5040 -0.2817  0.3602
46427SOL    HW151260   2.711  13.741   8.000  3.0916 -0.6278 -1.0380
46427SOL    HW251261   2.775  13.769   8.135 -2.1260  0.0217  1.5418
46428SOL     OW51262   5.893  12.955   1.940 -0.2799  0.6859 -0.3577
46428SOL    HW151263   5.960  13.022   1.959  0.5397 -0.3235  0.4366
46428SOL    HW251264   5.814  13.005   1.920  0.1954  1.9009  0.6556
46429SOL     OW51265   3.495   7.213  12.935 -0.4059 -0.3166 -0.0646
46429SOL    HW151266   3.442   7.231  13.013  0.6010 -0.8153  0.7420
46429SOL    HW251267   3.548   7.292  12.923 -0.9300 -0.0254 -0.5786
46430SOL     OW51268  13.015   0.770  13.112  0.6556 -1.0855  0.5727
46430SOL    HW151269  12.952   0.791  13.181  0.1241 -1.3317  0.1774
46430SOL    HW251270  13.047   0.683  13.133  2.1395 -0.2986  1.6923
46431SOL     OW51271   4.224   5.134   3.269  0.0584  0.3323  0.0136
46431SOL    HW151272   4.243   5.063   3.331 -0.1006  0.1480 -0.1479
46431SOL    HW251273   4.280   5.206   3.297 -1.3524  0.8971  1.5267
46432SOL     OW51274   6.322   2.806   5.980 -0.0979 -0.9425  0.1464
46432SOL    HW151275   6.280   2.722   5.963 -0.4297 -1.2243  2.1407
46432SOL    HW251276   6.250   2.869   5.979  0.0484 -0.7689 -0.5775
46433SOL     OW51277   9.455  11.521   7.212  0.1154 -0.1229  0.5765
46433SOL    HW151278   9.393  11.575   7.163  0.3140 -0.6929 -0.3235
46433SOL    HW251279   9.436  11.431   7.184  0.4754 -0.4269  1.2775
46434SOL     OW51280   2.307  13.037   6.256  0.0054  0.1270  0.6325
46434SOL    HW151281   2.223  13.042   6.210  0.1311 -1.9921  0.0541
46434SOL    HW251282   2.366  13.093   6.204 -0.4499 -0.3261 -0.4082
46435SOL     OW51283   5.108  10.797   2.517  0.2517  0.4702  0.2520
46435SOL    HW151284   5.067  10.715   2.491  1.1581 -0.1341  0.6629
46435SOL    HW251285   5.201  10.775   2.525  0.1072  0.6339  3.8377
46436SOL     OW51286   9.094   2.907   3.773 -0.5153  1.0748  0.5446
46436SOL    HW151287   9.048   2.980   3.814 -1.8751 -0.5030  1.9646
46436SOL    HW251288   9.145   2.868   3.843 -1.5123 -0.6211  0.3872
46437SOL     OW51289   5.711   2.451   0.150 -0.1371 -0.3560 -0.1085
46437SOL    HW151290   5.792   2.479   0.107  0.0244 -0.6672 -0.0095
46437SOL    HW251291   5.645   2.513   0.119 -0.0024 -0.5142 -0.7220
46438SOL     OW51292  13.316   7.656   2.411 -0.3517 -0.1099  0.1451
46438SOL    HW151293  13.261   7.727   2.444 -0.3513 -0.2361  0.4226
46438SOL    HW251294  13.385   7.700   2.362 -0.4630  0.0699  0.1481
46439SOL     OW51295  13.086   1.630  14.021  0.4268 -0.1833  0.2695
46439SOL    HW151296  13.180   1.641  14.011  0.7947 -2.1285  1.0786
46439SOL    HW251297  13.076   1.553  14.076 -1.6474 -1.6193 -1.8664
46440SOL     OW51298   7.008  12.725   6.805  0.1038 -0.1137  0.4218
46440SOL    HW151299   7.098  12.730   6.836  0.1160  1.9570  0.1469
46440SOL    HW251300   7.006  12.779   6.725 -1.7787  1.5827  1.5158
46441SOL     OW51301  10.208   7.895   7.815  0.6694  0.3118  0.0282
46441SOL    HW151302  10.242   7.810   7.785 -0.8036 -0.2683 -0.0667
46441SOL    HW251303  10.113   7.885   7.812  0.4675  1.4291  1.5546
46442SOL     OW51304  10.350   0.881   5.409 -0.0721  0.4512 -0.4810
46442SOL    HW151305  10.412   0.822   5.451  1.4567  2.2193 -0.1035
46442SOL    HW251306  10.406   0.944   5.362 -1.5611  2.3022  0.1200
46443SOL     OW51307   6.275  11.299   7.837  0.0409  0.0756 -0.0799
46443SOL    HW151308   6.313  11.375   7.881 -2.6012  0.5275  1.6728
46443SOL    HW251309   6.308  11.303   7.748  2.5644  1.3584  0.8295
46444SOL     OW51310   3.653  11.901   8.315  0.1303 -0.5181 -0.6235
46444SOL    HW151311   3.655  11.997   8.312  1.5882 -0.4820  0.5699
46444SOL    HW251312   3.591  11.881   8.385  0.6283 -0.4125 -0.1451
46445SOL     OW51313   2.025   2.720   5.211 -0.5286 -0.2847 -0.4204
46445SOL    HW151314   2.067   2.805   5.207 -1.8306  0.3193 -2.2121
46445SOL    HW251315   1.954   2.731   5.275 -0.1261 -0.3122  0.0367
46446SOL     OW51316   2.478   2.907   2.399 -0.3028 -0.2741 -0.6742
46446SOL    HW151317   2.544   2.840   2.385  0.3041  0.3871 -1.0739
46446SOL    HW251318   2.460   2.904   2.493 -1.2856 -1.8948 -0.8927
46447SOL     OW51319   1.766   1.728   6.348  0.1196 -0.1652 -0.4424
46447SOL    HW151320   1.768   1.764   6.436  2.1570  0.2036 -0.5739
46447SOL    HW251321   1.682   1.684   6.341 -1.3640  2.2971  0.6412
46448SOL     OW51322   6.684   8.051   1.874 -0.4012  0.0078 -0.1923
46448SOL    HW151323   6.718   7.986   1.935 -2.4962 -0.8070  0.1693
46448SOL    HW251324   6.674   8.004   1.791 -0.9060  0.1439 -0.2137
46449SOL     OW51325   6.815   6.457   2.239 -0.3659  0.5353 -0.3855
46449SOL    HW151326   6.904   6.421   2.230 -0.6894 -0.3601 -0.1438
46449SOL    HW251327   6.800   6.507   2.159  0.2214  0.3918 -0.5875
46450SOL     OW51328  10.545  11.567   6.527  0.4373 -0.1654 -0.3837
46450SOL    HW151329  10.477  11.622   6.489 -0.9764 -1.1662  0.5990
46450SOL    HW251330  10.622  11.624   6.531 -0.0763  0.7340 -2.2993
46451SOL     OW51331   1.763   8.843  14.000  0.3668 -0.4489 -0.1885
46451SOL    HW151332   1.693   8.792  14.041  2.3400 -2.2350  1.2292
46451SOL    HW251333   1.750   8.831  13.906 -0.4489 -1.9155  0.0844
46452SOL     OW51334   2.413   0.652  12.473 -0.1356  0.8170  0.5374
46452SOL    HW151335   2.430   0.559  12.456 -1.3997  0.2699  1.9604
46452SOL    HW251336   2.452   0.698  12.399 -1.3771 -1.0017 -1.3734
46453SOL     OW51337   9.207   2.375  12.883 -0.1152  0.2750 -0.2540
46453SOL    HW151338   9.215   2.464  12.848  1.1645  0.3958  0.3129
46453SOL    HW251339   9.276   2.369  12.949 -0.9948 -0.7277  0.6104
46454SOL     OW51340   1.900  11.466   7.224  0.1309  0.4445  0.4020
46454SOL    HW151341   1.975  11.410   7.208 -0.1676  0.1716 -0.0728
46454SOL    HW251342   1.828  11.406   7.242  0.1931  0.7219  1.6407
46455SOL     OW51343   4.977   7.331  12.286 -0.2491  0.3035 -0.1056
46455SOL    HW151344   4.899   7.316  12.232  1.1974 -1.8183 -1.7802
46455SOL    HW251345   5.018   7.245  12.294  2.6431  1.5149 -0.5219
46456SOL     OW51346   3.527   1.462   3.870 -0.2365  0.0269  0.3083
46456SOL    HW151347   3.551   1.538   3.818 -0.4894  0.2634  0.5354
46456SOL    HW251348   3.466   1.413   3.815  0.0557 -0.1034  0.0951
46457SOL     OW51349  10.480   2.593  12.334  0.3158  0.2615 -0.5806
46457SOL    HW151350  10.422   2.662  12.368 -1.9725 -1.1276 -1.4627
46457SOL    HW251351  10.504   2.624  12.247 -1.5775 -0.4843 -1.4024
46458SOL     OW51352  11.029   1.285   6.630 -0.0924  0.2706 -0.1479
46458SOL    HW151353  10.947   1.315   6.591 -1.1076 -1.4481  0.5766
46458SOL    HW251354  11.019   1.302   6.723 -0.0959 -0.9431  0.0854
46459SOL     OW51355   1.049   5.934   0.068 -0.1380 -0.3414 -0.0649
46459SOL    HW151356   1.089   6.019   0.048 -1.2697  0.6123  1.4783
46459SOL    HW251357   1.107   5.870   0.029  1.4622  1.0971 -0.1496
46460SOL     OW51358   5.345   6.777   1.198 -1.0138 -1.2279  0.4471
46460SOL    HW151359   5.313   6.809   1.282 -1.3224 -2.8953  1.0156
46460SOL    HW251360   5.435   6.747   1.216 -0.2064  0.5614 -0.4023
46461SOL     OW51361   1.869   1.190   8.581  0.2535 -0.1069 -0.2444
46461SOL    HW151362   1.893   1.206   8.672 -1.1153 -2.1475  0.5716
46461SOL    HW251363   1.927   1.246   8.530  0.9686  1.1989  1.8758
46462SOL     OW51364   5.706   5.526   0.279 -0.0774 -0.2732  0.2357
46462SOL    HW151365   5.733   5.613   0.308 -0.3010 -0.3050  0.5400
46462SOL    HW251366   5.785   5.472   0.287 -0.1851 -0.3308  0.9750
46463SOL     OW51367  10.838   6.356  13.716  0.5470  0.4714 -0.0072
46463SOL    HW151368  10.870   6.403  13.793  0.1987 -2.2632  1.9234
46463SOL    HW251369  10.915   6.311  13.681  0.6205  1.3783 -1.0935
46464SOL     OW51370  11.138  12.467   7.648  0.2508 -0.1164 -0.1759
46464SOL    HW151371  11.219  12.462   7.598  1.5807 -1.3602  1.9635
46464SOL    HW251372  11.163  12.448   7.738 -2.1856  1.0563  0.8610
46465SOL     OW51373   6.033   6.971   0.335 -0.1224  0.0251  0.8461
46465SOL    HW151374   5.980   7.048   0.315 -0.8576 -0.6737  0.0349
46465SOL    HW251375   6.024   6.915   0.258  1.4508 -0.3136  0.8694
46466SOL     OW51376   4.618   2.709   2.802  0.3924 -0.2732  0.1385
46466SOL    HW151377   4.596   2.793   2.843  1.2208 -0.9611  2.1194
46466SOL    HW251378   4.534   2.667   2.786  0.0313  0.1980  0.7433
46467SOL     OW51379   7.741   3.531  12.486  0.0430  0.3212  0.1085
46467SOL    HW151380   7.663   3.512  12.537  0.2093  0.4307  0.4104
46467SOL    HW251381   7.766   3.447  12.448 -0.2491  0.2968 -0.0312
46468SOL     OW51382   6.780   8.212   8.086  0.5759 -0.4950 -0.5293
46468SOL    HW151383   6.721   8.218   8.012  0.7628  2.0576 -0.5603
46468SOL    HW251384   6.868   8.209   8.048  0.5975 -1.7297 -0.4267
46469SOL     OW51385   3.028   4.439   6.998 -0.5145  0.6664  0.7071
46469SOL    HW151386   2.961   4.382   6.959 -1.5786  1.6129  1.0847
46469SOL    HW251387   3.047   4.504   6.930 -1.2159  1.3820  1.1759
46470SOL     OW51388   4.123   4.881   8.889 -0.6712  0.4600  0.0725
46470SOL    HW151389   4.175   4.956   8.916  0.9984 -1.2281  1.7827
46470SOL    HW251390   4.047   4.881   8.947 -0.2781  0.4060  0.5889
46471SOL     OW51391  13.384   6.485  13.121  0.5254 -0.2284  0.3755
46471SOL    HW151392  13.408   6.568  13.163 -1.3173  0.4030  0.2505
46471SOL    HW251393  13.362   6.427  13.194  0.8624 -0.2998  0.4221
46472SOL     OW51394   3.645   7.937   6.012  0.2281 -0.2133 -0.6288
46472SOL    HW151395   3.627   7.903   6.100  0.8202 -0.8257 -0.7339
46472SOL    HW251396   3.605   7.875   5.953  0.9658 -0.5210 -0.8148
46473SOL     OW51397   4.301   8.307   1.664 -0.0667  0.3111  0.1861
46473SOL    HW151398   4.350   8.238   1.620 -0.1942 -0.6813  1.5535
46473SOL    HW251399   4.306   8.382   1.604  3.6087  0.4544  0.4667
46474SOL     OW51400   8.922   0.156   7.523 -0.4631 -0.3885 -0.7449
46474SOL    HW151401   8.948   0.084   7.466  0.1463 -1.0754  0.3668
46474SOL    HW251402   8.999   0.212   7.528 -0.2098 -0.7886  0.0694
46475SOL     OW51403   4.023   0.922   1.651 -0.4548 -0.1393  0.2837
46475SOL    HW151404   3.957   0.980   1.690  0.3607 -0.2739  1.9354
46475SOL    HW251405   4.084   0.903   1.722 -0.0680 -2.1273 -0.5200
46476SOL     OW51406  13.519   5.954   6.419 -0.7754 -0.5126  0.5825
46476SOL    HW151407  13.550   5.933   6.331 -0.8117  0.9728  0.1957
46476SOL    HW251408  13.575   6.026   6.448 -1.9635  0.2507  1.0420
46477SOL     OW51409  12.514   3.846  11.262 -0.3718  0.1444  0.2716
46477SOL    HW151410  12.490   3.829  11.353  0.6220  0.7070  0.6586
46477SOL    HW251411  12.569   3.925  11.266 -0.2233  0.1157 -0.8041
46478SOL     OW51412   7.303  11.630   1.177 -0.3049 -0.2738 -0.3779
46478SOL    HW151413   7.396  11.648   1.168 -0.0700 -1.9025 -1.4992
46478SOL    HW251414   7.261  11.712   1.149  0.7632  0.8024  1.0348
46479SOL     OW51415   3.020   6.674   7.848 -0.4985 -0.2314  0.3591
46479SOL    HW151416   2.939   6.721   7.830  1.4819  2.6614 -2.3029
46479SOL    HW251417   3.020   6.601   7.786 -0.8813  0.0324  0.0463
46480SOL     OW51418   0.170   5.875   0.712 -0.6199 -0.5605  0.0345
46480SOL    HW151419   0.164   5.885   0.617 -0.8407  0.2031  0.1184
46480SOL    HW251420   0.226   5.948   0.739 -0.8314 -0.5779  0.5244
46481SOL     OW51421  11.015  11.043   0.940  0.1152  0.1793 -0.3318
46481SOL    HW151422  11.080  11.112   0.929 -0.2996  0.3622 -1.9077
46481SOL    HW251423  11.064  10.961   0.929  0.6817  0.1384  1.9237
46482SOL     OW51424   1.934   5.644  11.887  0.3155 -0.1197  0.0445
46482SOL    HW151425   1.919   5.598  11.805  1.6645 -0.6135  0.0433
46482SOL    HW251426   2.023   5.680  11.878  1.0251 -1.3134  1.7905
46483SOL     OW51427  12.024   3.049   8.876 -0.4099  0.3215  0.2481
46483SOL    HW151428  11.972   2.970   8.889  1.6781 -1.0941  0.5526
46483SOL    HW251429  11.966   3.110   8.832 -2.1832 -1.2837  0.2605
46484SOL     OW51430   4.558   5.297   1.258 -0.1080  0.0274 -0.5467
46484SOL    HW151431   4.643   5.320   1.296  0.0163 -1.4878  0.1800
46484SOL    HW251432   4.543   5.207   1.285 -1.1862 -0.3019 -2.0724
46485SOL     OW51433   0.054   7.603  13.755 -0.6015  0.0340  0.8472
46485SOL    HW151434   0.056   7.552  13.836 -0.3452 -0.1187  0.7456
46485SOL    HW251435   0.144   7.631  13.742 -0.4016 -0.9254 -0.0029
46486SOL     OW51436  10.526   3.921   1.595  0.3031 -0.0376 -0.4749
46486SOL    HW151437  10.569   3.874   1.666 -0.1122  1.1220  0.5799
46486SOL    HW251438  10.446   3.871   1.579 -0.0628  0.2032  0.5315
46487SOL     OW51439   5.003   5.337  10.134 -0.1919  0.2392 -0.1244
46487SOL    HW151440   4.948   5.269  10.096 -2.2335  1.8310 -0.2258
46487SOL    HW251441   5.092   5.305  10.123 -0.9103 -1.1526 -2.6728
46488SOL     OW51442  10.458   6.845  12.985  0.0791 -0.6589 -0.1018
46488SOL    HW151443  10.493   6.808  12.904 -1.3096 -2.5746  0.0910
46488SOL    HW251444  10.388   6.904  12.956  0.6687 -0.0683 -0.3393
46489SOL     OW51445   7.435   7.488   2.659  0.0568  0.4102  0.2344
46489SOL    HW151446   7.456   7.578   2.635  0.0822  1.0082  2.3166
46489SOL    HW251447   7.362   7.465   2.602 -0.1289  1.8522 -0.1561
46490SOL     OW51448  11.280   1.445   2.556 -0.1329 -0.6673 -0.3081
46490SOL    HW151449  11.332   1.445   2.475  0.6214  0.7644  0.1511
46490SOL    HW251450  11.292   1.357   2.592  1.0772 -0.7251 -0.7970
46491SOL     OW51451   9.814  12.162  11.479  0.1232 -0.1095  0.5815
46491SOL    HW151452   9.769  12.103  11.539 -0.9550 -1.3844 -1.3740
46491SOL    HW251453   9.866  12.105  11.423 -0.5492  0.7890 -1.0398
46492SOL     OW51454   4.105   5.441  11.667  0.4633 -0.2300 -0.4605
46492SOL    HW151455   4.170   5.388  11.622  0.1454 -2.8208  1.8613
46492SOL    HW251456   4.130   5.437  11.760 -0.5234  2.4297  0.0247
46493SOL     OW51457   0.646   2.804   3.050  0.5110 -0.0000 -0.2373
46493SOL    HW151458   0.671   2.878   2.994  0.9854  0.5583  0.6908
46493SOL    HW251459   0.703   2.812   3.127 -0.7893 -0.1828  0.7732
46494SOL     OW51460  13.932   1.755  12.082  0.9304  0.0297 -0.0145
46494SOL    HW151461  13.934   1.758  11.987  0.4625 -1.6501 -0.1116
46494SOL    HW251462  14.020   1.781  12.109  1.2211  0.0143 -0.9361
46495SOL     OW51463   9.509   7.277  11.286 -0.0243 -0.2871 -0.0529
46495SOL    HW151464   9.592   7.321  11.301 -0.8361  1.3341 -0.1043
46495SOL    HW251465   9.517   7.236  11.200  0.2982  0.9024 -0.6020
46496SOL     OW51466   8.889   7.662   1.081  0.0706  0.8995 -0.3601
46496SOL    HW151467   8.831   7.696   1.014  0.6139  0.8054 -0.8827
46496SOL    HW251468   8.926   7.740   1.123  1.0191  0.9707 -1.2993
46497SOL     OW51469   1.926   8.926   8.204  0.3005 -0.2110 -0.2946
46497SOL    HW151470   1.908   8.925   8.298  0.1451  0.0036 -0.3213
46497SOL    HW251471   1.841   8.935   8.163  0.4414  0.5679 -0.4282
46498SOL     OW51472   7.820  10.870  11.943  0.3314  0.4146 -0.7068
46498SOL    HW151473   7.808  10.786  11.899  1.6574 -0.8555  1.2211
46498SOL    HW251474   7.858  10.848  12.028 -0.6507  2.8697  0.4708
46499SOL     OW51475   0.886   4.046   0.846  0.1414 -0.1492 -0.3299
46499SOL    HW151476   0.869   3.952   0.846 -1.4426  0.1167 -0.7986
46499SOL    HW251477   0.840   4.078   0.768  0.4147  1.0585 -0.0059
46500SOL     OW51478  13.297  11.716   2.392  0.4975 -0.2478  0.0406
46500SOL    HW151479  13.339  11.662   2.326 -0.5964 -0.9209 -0.1374
46500SOL    HW251480  13.204  11.697   2.382  0.1283  1.3639  0.2659
46501SOL     OW51481   8.778   2.584  13.539 -0.1592 -0.7542  0.4657
46501SOL    HW151482   8.857   2.593  13.592 -0.3546 -0.8102  0.7661
46501SOL    HW251483   8.709   2.623  13.592 -0.1942  0.0211 -0.1332
46502SOL     OW51484  10.906   1.152   7.738 -0.2405  0.2446 -0.4370
46502SOL    HW151485  10.943   1.166   7.825 -0.2360 -0.6724 -0.2787
46502SOL    HW251486  10.982   1.153   7.679 -0.4277  3.0074 -0.7555
46503SOL     OW51487   3.400   2.594   6.750  0.1996  0.0995 -0.3446
46503SOL    HW151488   3.318   2.622   6.707 -0.1412 -0.4186 -0.0415
46503SOL    HW251489   3.387   2.500   6.767  0.1500  0.3667  1.2701
46504SOL     OW51490   1.499   1.126   9.624  0.3885  0.7026 -0.3510
46504SOL    HW151491   1.495   1.074   9.544  1.8835  1.5918 -1.0655
46504SOL    HW251492   1.452   1.075   9.689  0.6216 -0.8724 -1.3682
46505SOL     OW51493   6.697   5.880  12.679  0.2392 -0.2289 -0.5050
46505SOL    HW151494   6.630   5.831  12.726 -1.4702  0.4156 -2.1430
46505SOL    HW251495   6.761   5.904  12.747 -1.0796 -1.0125  1.0935
46506SOL     OW51496   9.766  13.717   3.055 -0.1277  0.2882  0.9459
46506SOL    HW151497   9.710  13.746   3.128 -0.3418  2.3437  0.0530
46506SOL    HW251498   9.737  13.771   2.981  1.7118 -0.0230 -0.0393
46507SOL     OW51499   2.858   4.286  11.938  0.2916  0.4116 -0.0752
46507SOL    HW151500   2.927   4.269  12.001  0.0490 -0.6628 -0.0838
46507SOL    HW251501   2.786   4.230  11.965  0.3382 -0.4064 -1.5502
46508SOL     OW51502   8.191  12.261   3.521 -0.2565 -0.1997  0.0626
46508SOL    HW151503   8.111  12.312   3.514  0.2707  0.6752  0.3522
46508SOL    HW251504   8.254  12.307   3.466  0.2197 -0.5411  0.3131
46509SOL     OW51505  12.208  12.036   1.919  0.1312  0.2910  0.2487
46509SOL    HW151506  12.194  11.950   1.959 -0.3151  0.2802  0.0716
46509SOL    HW251507  12.245  12.089   1.990  0.4730 -0.0674  0.3377
46510SOL     OW51508   9.953  12.328   2.523 -0.3053 -0.1493 -0.1568
46510SOL    HW151509   9.922  12.350   2.611  0.1070  1.1844 -0.3331
46510SOL    HW251510   9.949  12.410   2.475 -0.1896 -0.7918 -1.3013
46511SOL     OW51511  13.859   5.220  12.072  0.1395 -0.4051  0.3227
46511SOL    HW151512  13.914   5.294  12.045 -0.0613 -0.5493 -0.4812
46511SOL    HW251513  13.914   5.172  12.135  0.6145 -0.0765  0.1678
46512SOL     OW51514   1.689   7.676   4.519 -0.1655  0.1698  0.1403
46512SOL    HW151515   1.727   7.648   4.603  0.1465  1.2792  0.3817
46512SOL    HW251516   1.621   7.739   4.544 -0.7434 -0.2245 -0.4021
46513SOL     OW51517  10.573  12.202   8.051  0.0186  0.2781  0.0780
46513SOL    HW151518  10.618  12.164   7.976 -0.8161 -0.9056  0.1569
46513SOL    HW251519  10.642  12.248   8.100  1.4428 -2.5194  0.8745
46514SOL     OW51520   4.994   2.903  10.267 -0.3013  0.5484 -0.7740
46514SOL    HW151521   4.913   2.891  10.317 -0.1551  0.8412 -0.4649
46514SOL    HW251522   5.039   2.975  10.311  0.4422 -0.0486 -0.5295
46515SOL     OW51523   1.772  13.513   2.789 -0.7076  0.3784 -0.6633
46515SOL    HW151524   1.821  13.452   2.846 -0.0007 -0.2040 -1.8610
46515SOL    HW251525   1.681  13.499   2.813 -0.3701  0.9867  1.1338
46516SOL     OW51526  12.432  10.581   6.343 -0.1464 -0.4573 -0.4296
46516SOL    HW151527  12.471  10.654   6.294  0.4325  0.3149  1.1265
46516SOL    HW251528  12.382  10.622   6.413  0.8414 -1.5251  0.9763
46517SOL     OW51529   3.519   2.376   5.658 -0.2494 -0.6387 -0.3011
46517SOL    HW151530   3.442   2.426   5.687  0.7593  1.2742 -0.7433
46517SOL    HW251531   3.586   2.396   5.723  0.7102  0.0996 -1.4768
46518SOL     OW51532   0.133   1.995   1.297 -0.6044 -0.0525 -0.3600
46518SOL    HW151533   0.214   1.946   1.316 -0.3191  1.1361  1.7657
46518SOL    HW251534   0.106   2.030   1.381 -1.2040  2.8645 -1.6616
46519SOL     OW51535  11.255   5.538  10.893  0.5162 -0.0929  0.5722
46519SOL    HW151536  11.328   5.485  10.861  0.2466  0.1509 -0.4762
46519SOL    HW251537  11.190   5.474  10.921 -0.4417 -0.4032 -2.1190
46520SOL     OW51538  13.238  10.035   2.978  0.4782 -0.3251  0.0751
46520SOL    HW151539  13.184   9.989   2.915  0.2870 -0.7706  0.5524
46520SOL    HW251540  13.283  10.103   2.928  1.4330 -1.5847 -0.8256
46521SOL     OW51541   0.483   6.697  13.094  0.5056 -0.0508 -0.0543
46521SOL    HW151542   0.542   6.773  13.094 -1.4842  1.5947  0.4206
46521SOL    HW251543   0.418   6.718  13.027 -0.7540 -0.7583  0.9096
46522SOL     OW51544   8.443   8.104   1.280 -0.3874  0.7451  0.2220
46522SOL    HW151545   8.467   8.046   1.353 -0.1558 -0.2052 -0.5930
46522SOL    HW251546   8.387   8.051   1.224  2.3764  0.1124 -2.2258
46523SOL     OW51547  12.176  12.827   6.582  0.0555  0.3260 -0.4090
46523SOL    HW151548  12.100  12.768   6.573 -0.4446  0.7596  0.8185
46523SOL    HW251549  12.226  12.813   6.502  0.1303 -2.0116 -0.0279
46524SOL     OW51550   3.642   0.949   3.038 -0.4492  0.1584  0.2316
46524SOL    HW151551   3.570   0.953   2.976 -2.1522  0.6040  2.1295
46524SOL    HW251552   3.608   0.993   3.117  1.7449 -0.0132  1.3418
46525SOL     OW51553   3.516   8.356  10.578  0.1031 -0.3398  0.5329
46525SOL    HW151554   3.474   8.441  10.593  0.7196 -0.2370  1.8115
46525SOL    HW251555   3.504   8.340  10.485 -1.6463  0.2811  0.6060
46526SOL     OW51556   7.268   4.031   2.930 -0.4086  0.3387 -0.1888
46526SOL    HW151557   7.278   3.990   2.845  0.2885 -0.2885  0.1833
46526SOL    HW251558   7.212   4.107   2.914 -0.1705  0.3031 -1.2177
46527SOL     OW51559   4.680   0.857   9.714  0.2467 -0.5736  0.7391
46527SOL    HW151560   4.709   0.793   9.779 -0.8036 -0.0035  1.8077
46527SOL    HW251561   4.585   0.863   9.728  0.5551  2.8931  2.2691
46528SOL     OW51562  10.129   8.109   4.061 -0.7339  0.4402  0.3284
46528SOL    HW151563  10.222   8.086   4.072 -0.5796  0.9174  0.0422
46528SOL    HW251564  10.093   8.104   4.150 -1.1446 -2.6811  0.1169
46529SOL     OW51565   6.242   1.143   3.925  0.0575 -0.4116  0.3448
46529SOL    HW151566   6.312   1.129   3.989 -1.6683  1.1534  2.7471
46529SOL    HW251567   6.273   1.099   3.846  3.7636  0.2155  1.2313
46530SOL     OW51568   3.703   9.969   4.808 -0.0258 -0.2224  0.3242
46530SOL    HW151569   3.778   9.941   4.860  0.5188 -0.5603 -0.6129
46530SOL    HW251570   3.730   9.955   4.717 -1.4154 -0.8462 -0.0232
46531SOL     OW51571   4.923   4.815   4.424 -0.1214  0.2472  0.2453
46531SOL    HW151572   4.970   4.853   4.350 -0.6860 -0.2350 -0.3670
46531SOL    HW251573   4.831   4.835   4.407 -0.4478 -1.4307 -0.1229
46532SOL     OW51574   7.158   1.453   5.439 -0.7493 -0.0665 -0.1370
46532SOL    HW151575   7.110   1.409   5.510 -0.0789 -0.5142  0.0411
46532SOL    HW251576   7.119   1.418   5.359  0.1439 -1.4181 -0.0066
46533SOL     OW51577   4.582   8.162   0.277  0.4686 -0.2058  0.1500
46533SOL    HW151578   4.537   8.077   0.272  1.5795 -1.0599  2.7753
46533SOL    HW251579   4.645   8.160   0.206  0.0571 -1.3362 -0.2090
46534SOL     OW51580   3.879  11.449  10.619 -0.3635 -0.3126  0.3047
46534SOL    HW151581   3.951  11.509  10.600 -0.7870 -0.1611 -0.9700
46534SOL    HW251582   3.919  11.374  10.662  0.7935 -0.8655 -1.6203
46535SOL     OW51583   7.507  11.109  10.497 -0.3749  0.4896 -0.1882
46535SOL    HW151584   7.544  11.047  10.560 -1.2920  0.0050 -0.1071
46535SOL    HW251585   7.427  11.142  10.539 -1.0883  0.0287 -1.1344
46536SOL     OW51586   7.558   0.498   2.151  0.2550  0.3277 -0.9167
46536SOL    HW151587   7.614   0.421   2.158 -2.1519 -1.4792  0.1753
46536SOL    HW251588   7.564   0.539   2.238  0.4309  0.5582 -1.0367
46537SOL     OW51589  12.216   1.072  10.851 -0.0696  0.3031 -0.2678
46537SOL    HW151590  12.150   1.092  10.918 -1.7219  0.8088 -1.9608
46537SOL    HW251591  12.234   0.979  10.861 -1.6159 -0.0123 -0.2232
46538SOL     OW51592   1.471  10.563   7.894 -0.1578  1.0805 -0.4074
46538SOL    HW151593   1.456  10.642   7.946 -0.8952  0.7379 -0.0827
46538SOL    HW251594   1.408  10.569   7.822 -0.5335  0.5679 -0.1243
46539SOL     OW51595   1.615   4.477  12.582  0.0208  0.3691 -0.3206
46539SOL    HW151596   1.680   4.525  12.531  0.2126 -0.4263 -0.8525
46539SOL    HW251597   1.648   4.478  12.671  0.1930  0.9266 -0.3863
46540SOL     OW51598  10.287   1.797   2.807  0.0372 -1.1606  0.0500
46540SOL    HW151599  10.334   1.879   2.822  1.4571 -2.1549  1.2814
46540SOL    HW251600  10.243   1.810   2.723  0.2154  0.8478  0.2140
46541SOL     OW51601  14.000   4.318  11.560 -0.0430  0.1913  0.1538
46541SOL    HW151602  13.926   4.294  11.615 -0.8112  0.5783 -0.6966
46541SOL    HW251603  14.003   4.414  11.563 -0.1651  0.2261 -0.5507
46542SOL     OW51604   8.344   1.766  11.516  0.3274  0.0117  0.2506
46542SOL    HW151605   8.348   1.705  11.442 -1.4978  0.0300  0.0702
46542SOL    HW251606   8.255   1.755  11.550 -0.3105  3.0200 -0.1985
46543SOL     OW51607   8.627   5.353   1.024  0.0950 -0.1755  0.4083
46543SOL    HW151608   8.680   5.274   1.032  1.7771  1.0115  1.5981
46543SOL    HW251609   8.635   5.378   0.932 -0.0901 -1.1142  0.1232
46544SOL     OW51610   4.815   4.957   1.848 -0.1095  0.1886 -0.4189
46544SOL    HW151611   4.739   5.014   1.854 -0.8888 -0.6116 -2.0123
46544SOL    HW251612   4.870   4.981   1.923 -1.6913  1.1073  0.4844
46545SOL     OW51613   4.336   8.739   5.206 -0.0043  0.0617 -0.4908
46545SOL    HW151614   4.255   8.719   5.159  0.0538 -2.2614  0.2931
46545SOL    HW251615   4.406   8.716   5.144  0.0891  0.9509 -0.7355
46546SOL     OW51616   3.393   6.404   7.515 -0.5441 -0.0479 -0.1696
46546SOL    HW151617   3.375   6.311   7.501  1.1597 -0.4634  0.1509
46546SOL    HW251618   3.310   6.441   7.544 -1.2378 -1.4694 -0.2690
46547SOL     OW51619  12.112  12.927   1.956  0.3428  0.4672 -0.1669
46547SOL    HW151620  12.117  12.976   2.038 -0.4246  1.2946 -0.6052
46547SOL    HW251621  12.018  12.919   1.938  0.3822 -2.0779  0.4245
46548SOL     OW51622   0.830   4.216   7.081  0.5034 -0.1044 -0.0506
46548SOL    HW151623   0.802   4.307   7.067  4.2214  1.6725  2.4823
46548SOL    HW251624   0.850   4.211   7.174  0.3500 -3.6544 -0.0590
46549SOL     OW51625   0.817   9.502   8.443 -0.1371  0.0092 -0.1693
46549SOL    HW151626   0.815   9.417   8.399  0.2602  0.9344 -2.0617
46549SOL    HW251627   0.728   9.537   8.432  0.0010  0.3030 -0.3584
46550SOL     OW51628  11.465   6.000   5.600  0.3871 -0.8289  0.0723
46550SOL    HW151629  11.459   6.054   5.521  1.0550 -1.8941 -0.7298
46550SOL    HW251630  11.535   6.041   5.651 -1.2277  0.9433  1.0261
46551SOL     OW51631   0.320  13.228  13.688  0.4744 -0.6954 -0.3611
46551SOL    HW151632   0.318  13.220  13.592 -1.9668 -0.8799 -0.3642
46551SOL    HW251633   0.312  13.138  13.720  0.7998 -0.5943  0.0093
46552SOL     OW51634  13.839  10.204   7.699 -0.2506 -0.3401 -0.3910
46552SOL    HW151635  13.774  10.154   7.650 -0.5239 -0.7462  0.3703
46552SOL    HW251636  13.797  10.288   7.716 -0.7081 -0.7212  0.3859
46553SOL     OW51637   8.698  11.225   1.020  0.1918  0.1128 -0.2599
46553SOL    HW151638   8.720  11.150   0.964  0.2152  0.2797 -0.4783
46553SOL    HW251639   8.602  11.226   1.021  0.1513 -1.0939  1.3333
46554SOL     OW51640   5.594   5.209   4.397  0.2942 -0.0263 -0.0729
46554SOL    HW151641   5.686   5.215   4.371  0.4439  0.4984  0.5610
46554SOL    HW251642   5.565   5.299   4.405 -0.2185 -0.1884 -0.0473
46555SOL     OW51643  10.064  12.542   0.121 -0.1429 -0.2281  0.2864
46555SOL    HW151644   9.987  12.502   0.082  1.4786 -3.9475  0.4642
46555SOL    HW251645  10.120  12.563   0.046 -0.1258 -0.3036  0.2778
46556SOL     OW51646  13.763   3.413   4.234  0.7326 -0.5324  0.5082
46556SOL    HW151647  13.720   3.498   4.227 -0.6933 -1.1222  1.4556
46556SOL    HW251648  13.825   3.423   4.306  1.5506  0.0723 -0.2656
46557SOL     OW51649  12.536  10.253  13.148 -0.2263 -0.3803  0.3570
46557SOL    HW151650  12.444  10.234  13.129 -0.6715  0.6757  1.4022
46557SOL    HW251651  12.574  10.273  13.062 -1.1914  0.0730  0.0236
46558SOL     OW51652  12.095   6.488  10.209 -0.4835 -0.3195 -0.3628
46558SOL    HW151653  12.102   6.538  10.128 -3.0006 -0.7737 -0.9527
46558SOL    HW251654  12.093   6.555  10.278 -2.4929  0.3803 -1.0383
46559SOL     OW51655   4.602   1.661   3.346  0.2506 -0.5554 -0.2919
46559SOL    HW151656   4.541   1.732   3.325  2.9112  2.1624  0.3865
46559SOL    HW251657   4.603   1.606   3.267 -1.4203  0.5454 -1.1252
46560SOL     OW51658   6.688   7.720   2.464  0.8154 -0.7784 -0.0892
46560SOL    HW151659   6.680   7.724   2.369 -1.0058 -0.4012  0.0397
46560SOL    HW251660   6.667   7.629   2.486  0.7812 -0.7552 -0.0235
46561SOL     OW51661   3.510  12.137   3.199  0.5997  0.5451  0.4829
46561SOL    HW151662   3.518  12.231   3.217  1.5524  0.6420 -0.3212
46561SOL    HW251663   3.430  12.110   3.244  0.8469  1.5285  1.5501
46562SOL     OW51664   9.074   1.941   3.587  0.1903 -0.0017  0.1792
46562SOL    HW151665   9.081   1.920   3.680 -1.2064 -0.5308  0.1947
46562SOL    HW251666   9.148   2.000   3.570  1.9852 -1.8495  1.0399
46563SOL     OW51667  13.551  10.765   2.899  0.0489 -0.5208 -0.6866
46563SOL    HW151668  13.581  10.852   2.924  0.4152 -0.4518 -1.3436
46563SOL    HW251669  13.455  10.772   2.901  0.0446 -0.6912  1.2227
46564SOL     OW51670  10.978  13.963   0.762 -0.0763  0.8869 -0.5448
46564SOL    HW151671  11.049  13.956   0.697 -0.0338 -1.9149 -0.3484
46564SOL    HW251672  10.994  14.046   0.806  2.7670  0.6582 -0.9223
46565SOL     OW51673   0.585   2.985  10.360  0.1755 -0.0954  0.4949
46565SOL    HW151674   0.513   3.025  10.408  0.1743  0.4880  0.0210
46565SOL    HW251675   0.663   3.005  10.412  0.1225  0.1607  0.4742
46566SOL     OW51676   2.860   4.057  12.682 -0.2383 -0.2009  0.0656
46566SOL    HW151677   2.887   3.975  12.724  1.2274  0.2187  0.0206
46566SOL    HW251678   2.781   4.034  12.633 -1.4007 -0.9434  2.1760
46567SOL     OW51679   5.529  13.054  10.078  0.1619 -0.0611  0.1548
46567SOL    HW151680   5.458  13.054  10.142 -0.1294 -1.1804 -0.1475
46567SOL    HW251681   5.601  13.009  10.122  0.9833  1.7242  0.7384
46568SOL     OW51682  11.293  10.846  12.011  0.0423 -0.1556  0.0775
46568SOL    HW151683  11.243  10.765  12.002 -1.6989  0.6074  2.1556
46568SOL    HW251684  11.278  10.874  12.101  1.4303  1.9647 -0.2784
46569SOL     OW51685  12.953  12.693   6.251 -0.2239  0.0914 -0.3153
46569SOL    HW151686  13.009  12.617   6.235  1.4780  0.8928  1.4493
46569SOL    HW251687  12.993  12.737   6.326 -2.1541  1.7879 -0.1964
46570SOL     OW51688   1.038  10.789   8.114  0.0715  0.1315 -0.1133
46570SOL    HW151689   1.097  10.863   8.097  0.8144  0.1677  2.3376
46570SOL    HW251690   0.957  10.829   8.145  0.0492 -0.0548  0.0681
46571SOL     OW51691  13.309   1.392   1.188  0.2426  0.1131 -0.4367
46571SOL    HW151692  13.401   1.371   1.168  0.7974  0.0984  1.8926
46571SOL    HW251693  13.313   1.447   1.266 -1.7419  0.1616 -0.3225
46572SOL     OW51694   4.910   9.770   7.070 -0.0284 -0.6428 -0.1690
46572SOL    HW151695   4.913   9.818   7.153  0.6019 -0.0498 -0.5277
46572SOL    HW251696   4.892   9.837   7.004  1.1596 -0.8345 -0.7134
46573SOL     OW51697  13.439   6.277  11.368 -0.3889 -0.4453 -0.1863
46573SOL    HW151698  13.360   6.223  11.380  0.6658 -1.9452  0.3618
46573SOL    HW251699  13.474   6.287  11.456 -0.1018  0.4443 -0.3980
46574SOL     OW51700   4.509   4.987   6.043  0.0564 -0.7408  0.4846
46574SOL    HW151701   4.420   5.013   6.016 -0.1499 -0.0986  1.7264
46574SOL    HW251702   4.561   4.997   5.963 -0.5906  0.7957  0.2081
46575SOL     OW51703   6.942   8.404   6.097 -0.7023 -0.3451 -0.1271
46575SOL    HW151704   6.885   8.340   6.055 -2.1286  0.9578 -0.2932
46575SOL    HW251705   7.011   8.421   6.032 -1.1023 -0.6872 -0.6483
46576SOL     OW51706   2.534   0.777   4.159  0.4587 -0.0848  0.2589
46576SOL    HW151707   2.589   0.741   4.229  2.5928  0.6483 -0.9489
46576SOL    HW251708   2.488   0.701   4.124  1.3525 -0.8997  0.7707
46577SOL     OW51709   3.184   0.652  13.882 -0.2022 -0.2269 -0.2034
46577SOL    HW151710   3.267   0.607  13.863  1.2710  0.7075  3.1488
46577SOL    HW251711   3.199   0.742  13.855  0.4229  0.2091  1.4399
46578SOL     OW51712   5.103   5.348   5.624  0.1689 -0.6645  0.0499
46578SOL    HW151713   5.150   5.296   5.689 -0.6377 -1.6032 -0.0999
46578SOL    HW251714   5.134   5.313   5.540  0.3555 -0.2302 -0.0634
46579SOL     OW51715  11.786   7.437   3.843 -0.0807  0.4644 -0.3215
46579SOL    HW151716  11.787   7.346   3.815 -0.3683 -0.0676  1.2889
46579SOL    HW251717  11.856   7.443   3.908  0.3573  1.5624 -0.8628
46580SOL     OW51718  12.135  10.608  12.805  0.4036  0.2158  0.6970
46580SOL    HW151719  12.075  10.577  12.873 -0.7314 -0.2518 -0.4946
46580SOL    HW251720  12.089  10.679  12.762  2.4350  2.8381  2.4929
46581SOL     OW51721   8.570   7.353   6.414  0.0475 -0.3823  0.1405
46581SOL    HW151722   8.507   7.344   6.484  1.7389 -0.0848  1.7875
46581SOL    HW251723   8.655   7.336   6.455  1.4310  2.6473 -1.0971
46582SOL     OW51724   0.575   6.260   8.000 -0.5228 -0.4484  0.1278
46582SOL    HW151725   0.576   6.346   8.042 -1.5072  0.2249 -1.1648
46582SOL    HW251726   0.506   6.266   7.934 -0.4073 -2.1415 -0.1867
46583SOL     OW51727   0.732  10.159   8.629 -0.5081  0.2098  0.2567
46583SOL    HW151728   0.722  10.240   8.679  1.1048  1.0836 -0.7486
46583SOL    HW251729   0.820  10.129   8.649 -0.7226 -0.7464 -0.1916
46584SOL     OW51730   5.570  10.824  14.012  0.4362 -0.2444 -0.2767
46584SOL    HW151731   5.585  10.918  14.025  2.0619 -0.5865  0.6592
46584SOL    HW251732   5.497  10.819  13.951 -1.6377  1.6117  1.8605
46585SOL     OW51733   9.152   5.964   8.078 -1.2065 -0.2151  0.2149
46585SOL    HW151734   9.170   5.933   8.167  0.3331 -0.1622 -0.0497
46585SOL    HW251735   9.177   5.891   8.022 -0.7151  0.3022 -0.2466
46586SOL     OW51736   5.512   7.808  10.469  0.7737 -0.3132  0.2885
46586SOL    HW151737   5.453   7.855  10.528  2.1388  3.1900 -0.8992
46586SOL    HW251738   5.455   7.747  10.422 -0.7760 -1.3319  3.2432
46587SOL     OW51739   0.516   0.553   7.834  0.4698 -0.1284  0.2596
46587SOL    HW151740   0.524   0.618   7.904 -0.9417  1.3051 -0.8437
46587SOL    HW251741   0.444   0.585   7.780  2.7112 -0.1293 -2.9917
46588SOL     OW51742   0.293   9.490   2.282  0.3456 -0.0558  0.3157
46588SOL    HW151743   0.258   9.447   2.203  1.0260 -2.2004  1.1147
46588SOL    HW251744   0.387   9.494   2.267  0.5356 -0.9011  1.1877
46589SOL     OW51745   8.725   4.060   2.449 -0.4874  0.3933 -0.8741
46589SOL    HW151746   8.705   4.119   2.376 -0.7218  1.1059 -0.2425
46589SOL    HW251747   8.800   4.102   2.492 -0.6463  0.2135 -0.4297
46590SOL     OW51748   3.629  12.708   2.129  0.3976 -0.3189  0.0274
46590SOL    HW151749   3.666  12.704   2.217 -0.0273 -0.2453  0.2148
46590SOL    HW251750   3.538  12.736   2.143  0.5962  0.6319 -0.5082
46591SOL     OW51751   5.058  13.818   7.943  0.0131 -0.0797  0.8622
46591SOL    HW151752   5.047  13.758   8.016  1.0648  0.2580  1.3224
46591SOL    HW251753   5.153  13.833   7.938  0.2756 -1.8688 -2.0242
46592SOL     OW51754   6.319   7.783  12.561 -0.3003 -0.2988  0.0129
46592SOL    HW151755   6.275   7.850  12.613  1.3087 -1.3945  3.0503
46592SOL    HW251756   6.400   7.766  12.608  1.2100 -1.5930 -2.8441
46593SOL     OW51757   3.238   2.761   4.813  0.0548 -0.5337  0.2701
46593SOL    HW151758   3.251   2.850   4.848  0.0431 -1.1020  1.7966
46593SOL    HW251759   3.145   2.755   4.796  0.2842  0.3045 -1.4990
46594SOL     OW51760   8.777   5.123  11.530 -0.0642 -0.0615  0.3983
46594SOL    HW151761   8.743   5.111  11.619  2.3187 -0.3932  1.3335
46594SOL    HW251762   8.872   5.130  11.542  0.2416  0.6871 -2.0620
46595SOL     OW51763  13.181   1.623   7.169  0.5366  0.0092 -0.0532
46595SOL    HW151764  13.186   1.533   7.202 -2.7027 -0.4140 -0.3770
46595SOL    HW251765  13.114   1.664   7.223 -1.4015  0.7551 -2.8385
46596SOL     OW51766   7.016   8.938  13.232  0.4442  0.4841  0.3878
46596SOL    HW151767   6.998   8.989  13.153 -0.1639  1.9610  1.4336
46596SOL    HW251768   6.935   8.941  13.282  1.3122  1.0349  1.8382
46597SOL     OW51769   9.691  11.898  10.542  0.7805 -0.2674  0.3736
46597SOL    HW151770   9.663  11.836  10.474  0.3611  0.2607  0.0623
46597SOL    HW251771   9.667  11.856  10.624  1.2744 -0.9051  0.2012
46598SOL     OW51772   9.434  13.286   7.650  0.2922 -0.0494  0.1007
46598SOL    HW151773   9.457  13.305   7.741  0.1936 -1.4206  0.4282
46598SOL    HW251774   9.462  13.196   7.636  1.3061  0.4687 -1.5769
46599SOL     OW51775  13.741   4.497   0.509 -0.5399 -0.7054 -0.2159
46599SOL    HW151776  13.773   4.563   0.449 -0.5336 -1.1032 -0.6570
46599SOL    HW251777  13.794   4.508   0.588 -2.6672  1.9497  0.9855
46600SOL     OW51778  12.189   1.806   8.855  0.8583 -0.1565 -0.2956
46600SOL    HW151779  12.129   1.773   8.922  1.0620  1.2812  0.6376
46600SOL    HW251780  12.142   1.792   8.772 -0.7288  0.7994  0.3966
46601SOL     OW51781   9.930   6.625   8.590  0.6317 -0.3384  0.3892
46601SOL    HW151782   9.978   6.630   8.508 -1.0449 -0.7576 -0.6658
46601SOL    HW251783   9.930   6.532   8.612 -0.1285 -0.4103  0.1019
46602SOL     OW51784   9.512  13.336   6.431  0.2320 -0.0454  0.1054
46602SOL    HW151785   9.452  13.292   6.371  2.2595 -0.2292 -1.9050
46602SOL    HW251786   9.582  13.272   6.447  0.9920  0.8977  0.6592
46603SOL     OW51787   0.025   2.554  13.278 -0.2370  0.0362  0.1466
46603SOL    HW151788  -0.011   2.535  13.192  0.0554  2.3563 -0.5728
46603SOL    HW251789   0.119   2.535  13.270 -0.2573 -0.0146  0.0377
46604SOL     OW51790   3.782   8.644   5.903 -0.4926  0.2395  0.5896
46604SOL    HW151791   3.737   8.727   5.920 -0.1966  0.6343 -0.4749
46604SOL    HW251792   3.718   8.591   5.855  0.2609  0.9542 -1.2896
46605SOL     OW51793  13.126   2.248  13.100  0.3115  0.1890 -0.5214
46605SOL    HW151794  13.067   2.181  13.065  0.3426 -0.1539  0.0802
46605SOL    HW251795  13.068   2.314  13.138  0.2989  0.2572 -0.6547
46606SOL     OW51796  12.699   6.771   5.968  0.0095  0.2097 -0.0749
46606SOL    HW151797  12.765   6.835   5.997 -0.0512  0.1984  0.0903
46606SOL    HW251798  12.739   6.728   5.893  0.3897 -0.1387  0.3237
46607SOL     OW51799   9.097  12.182  11.730 -0.8080  0.3797 -0.2288
46607SOL    HW151800   9.180  12.136  11.744 -0.5069  1.2171  0.8914
46607SOL    HW251801   9.051  12.129  11.665 -0.3313 -1.3050  0.7445
46608SOL     OW51802   7.526   6.338   1.509 -0.3158  0.3395  0.6515
46608SOL    HW151803   7.439   6.375   1.495 -0.7007 -0.2944  1.3077
46608SOL    HW251804   7.554   6.374   1.593  0.8668  2.0251 -0.3998
46609SOL     OW51805   9.100   8.765   7.574  0.4045  0.0324 -0.2116
46609SOL    HW151806   9.194   8.784   7.583  0.6201 -1.2493  0.3424
46609SOL    HW251807   9.097   8.675   7.541 -0.6503 -1.3509  3.2819
46610SOL     OW51808   3.794   4.347   0.265  0.0538  0.7184 -0.1606
46610SOL    HW151809   3.739   4.426   0.264 -2.1998 -0.6498  2.2837
46610SOL    HW251810   3.840   4.352   0.349 -0.5477 -0.7799  0.2860
46611SOL     OW51811   4.909   2.720   0.574  0.1880  0.3501 -0.2230
46611SOL    HW151812   4.846   2.774   0.526 -0.1720  1.3120  1.2476
46611SOL    HW251813   4.944   2.660   0.509 -0.6258  1.2724 -1.5655
46612SOL     OW51814   5.069   7.287  11.449 -0.1171  0.0598 -0.0613
46612SOL    HW151815   5.085   7.262  11.540 -0.4171 -1.7304 -0.4644
46612SOL    HW251816   5.032   7.375  11.454 -0.0432  0.0237  1.5372
46613SOL     OW51817   5.298   0.589   6.719  0.2495 -0.5097 -0.1475
46613SOL    HW151818   5.211   0.553   6.699  1.1652 -2.1170 -1.5110
46613SOL    HW251819   5.334   0.613   6.634  1.1553  0.1331  0.4047
46614SOL     OW51820  11.230  11.010   5.479  0.2597 -0.6321  0.0589
46614SOL    HW151821  11.296  10.990   5.545 -1.1889 -2.5379  1.0388
46614SOL    HW251822  11.279  11.052   5.408  2.0667  0.3972  1.7908
46615SOL     OW51823   5.761   0.302   3.427  0.2894  0.3498 -0.4299
46615SOL    HW151824   5.794   0.222   3.386 -0.0760 -0.3534  0.5911
46615SOL    HW251825   5.821   0.319   3.499  0.7166  1.3611 -1.0077
46616SOL     OW51826   6.463   7.032   2.526  0.1128 -0.2874  0.1692
46616SOL    HW151827   6.430   6.954   2.482 -0.2414  1.0101 -1.9767
46616SOL    HW251828   6.472   7.098   2.457  0.8423  1.4582  1.8181
46617SOL     OW51829   2.008  12.602   3.289  0.1498 -0.0213  0.4496
46617SOL    HW151830   2.055  12.535   3.339  0.2733 -0.6896 -0.5144
46617SOL    HW251831   2.060  12.611   3.208  0.0298  1.1166  0.4968
46618SOL     OW51832  11.455   4.492   6.956  0.2582 -0.2708  0.6309
46618SOL    HW151833  11.465   4.446   7.039  2.0998  1.9220  1.7302
46618SOL    HW251834  11.371   4.536   6.962 -1.0949 -2.6015 -0.0604
46619SOL     OW51835  10.854  11.479   5.497 -0.0425  0.2938  0.1860
46619SOL    HW151836  10.946  11.456   5.481 -0.7993 -1.8261 -1.7143
46619SOL    HW251837  10.837  11.549   5.434  0.7369  2.2016  1.9792
46620SOL     OW51838   1.648  13.147   4.001 -0.1712 -1.0189  0.0206
46620SOL    HW151839   1.672  13.055   3.987 -0.3708 -1.1420  0.4648
46620SOL    HW251840   1.625  13.152   4.094  2.4301  0.0680  0.6712
46621SOL     OW51841   3.243  13.367  14.003  0.5348  0.1841 -0.1920
46621SOL    HW151842   3.220  13.452  14.040  2.5613  2.0844 -2.9313
46621SOL    HW251843   3.163  13.335  13.963  0.0774  1.4834 -0.3428
46622SOL     OW51844   3.005  12.423  12.415 -0.4687  0.5106 -0.0286
46622SOL    HW151845   3.063  12.456  12.483 -1.3030  1.4699  0.2320
46622SOL    HW251846   2.983  12.334  12.444  1.3280 -0.1026 -0.4421
46623SOL     OW51847   6.902   2.345   8.257  0.1486  0.2652  0.3132
46623SOL    HW151848   6.888   2.396   8.177 -0.7315 -0.0259  0.2773
46623SOL    HW251849   6.817   2.341   8.299  0.3952 -0.4179  0.7716
46624SOL     OW51850  10.045   8.139   1.973  0.5283  0.1425 -0.2393
46624SOL    HW151851  10.099   8.108   2.046 -0.8220  0.1377  0.7844
46624SOL    HW251852  10.010   8.223   2.003 -0.4136 -0.0766 -0.7007
46625SOL     OW51853   1.496   3.410  13.942 -0.4224 -0.1873 -0.1255
46625SOL    HW151854   1.551   3.448  14.010 -0.9399 -0.4331  0.4441
46625SOL    HW251855   1.545   3.423  13.861  0.1403  0.2343  0.2747
46626SOL     OW51856   7.019   7.584   6.817  0.2340  0.0250  0.2684
46626SOL    HW151857   7.028   7.540   6.733 -1.9860 -0.3269  0.1638
46626SOL    HW251858   7.061   7.669   6.803 -0.4437  0.1399 -1.3404
46627SOL     OW51859   4.991   6.332   9.892  0.1739 -0.0379 -0.3505
46627SOL    HW151860   5.003   6.244   9.857  0.3233  0.0619 -0.5535
46627SOL    HW251861   5.006   6.323   9.986  0.7526 -0.1184 -0.4517
46628SOL     OW51862   7.522   8.523   9.536  0.2889 -0.5731  0.1468
46628SOL    HW151863   7.590   8.583   9.566  1.2378 -1.8395  0.5829
46628SOL    HW251864   7.515   8.457   9.605 -0.8531 -0.8838 -0.2453
46629SOL     OW51865   0.771   2.921   3.247 -0.3222  0.0700 -0.7357
46629SOL    HW151866   0.780   3.014   3.230 -1.0013  0.3812  0.4630
46629SOL    HW251867   0.724   2.916   3.331 -0.8519 -1.3458 -1.0800
46630SOL     OW51868   4.393   5.122   5.366  0.4391 -0.5507  0.0281
46630SOL    HW151869   4.307   5.150   5.335  0.5464 -1.2153 -0.9221
46630SOL    HW251870   4.381   5.030   5.389  0.7192 -0.4454  0.5976
46631SOL     OW51871  11.271   1.505   4.630 -0.1676  0.4561  0.3743
46631SOL    HW151872  11.187   1.546   4.648 -0.6482 -0.9649  1.5596
46631SOL    HW251873  11.249   1.425   4.581  0.3561 -0.5522  1.7287
46632SOL     OW51874   2.946   2.776  10.461  0.4300 -0.0399 -0.1201
46632SOL    HW151875   3.032   2.787  10.422  0.9730 -3.9813 -0.4784
46632SOL    HW251876   2.885   2.810  10.395  1.6160 -0.1653 -1.3330
46633SOL     OW51877   6.933   1.146  13.256 -0.3050 -0.1175  1.0770
46633SOL    HW151878   6.905   1.086  13.325 -0.8439 -2.1571 -0.8217
46633SOL    HW251879   6.889   1.115  13.177  0.3743  2.0682 -0.2455
46634SOL     OW51880  13.869  12.553   1.212  0.1817  0.1065 -0.6057
46634SOL    HW151881  13.853  12.548   1.307 -2.5385 -1.4620 -1.0169
46634SOL    HW251882  13.917  12.634   1.200  0.8282  0.2387  2.1366
46635SOL     OW51883   0.873   5.020  11.589 -0.2314 -0.2171 -0.2845
46635SOL    HW151884   0.906   5.089  11.647  0.6173 -0.3537 -0.5872
46635SOL    HW251885   0.944   4.956  11.585 -1.8449 -2.2956  1.8253
46636SOL     OW51886   0.346   0.370   6.167 -0.0784  0.0418  0.1337
46636SOL    HW151887   0.292   0.432   6.118  0.4394  2.4280  2.3831
46636SOL    HW251888   0.301   0.360   6.251 -0.0863 -2.6558 -0.0970
46637SOL     OW51889   5.767   4.781   4.879  0.2994 -0.7285 -0.1859
46637SOL    HW151890   5.712   4.703   4.879 -0.2266 -0.3972 -1.8322
46637SOL    HW251891   5.791   4.793   4.787  0.9793  0.6340  0.1476
46638SOL     OW51892   2.713   5.195  13.338 -0.0372  0.2130 -0.4985
46638SOL    HW151893   2.744   5.137  13.267 -1.2035 -0.4571 -0.4877
46638SOL    HW251894   2.685   5.135  13.407  0.3018  0.8489  0.1990
46639SOL     OW51895   0.665   9.535   0.570 -0.3432  0.0601  0.1482
46639SOL    HW151896   0.654   9.481   0.492 -0.8198  0.3913 -0.0184
46639SOL    HW251897   0.693   9.474   0.638  1.5709 -0.0022 -0.6409
46640SOL     OW51898  10.109   3.525   1.571 -0.2087  0.1332  0.3875
46640SOL    HW151899  10.099   3.606   1.521  0.0626 -1.0243 -1.6121
46640SOL    HW251900  10.023   3.509   1.609 -0.8499  0.2638 -0.9657
46641SOL     OW51901   1.104  12.743   2.696 -0.1856 -0.0158  0.0841
46641SOL    HW151902   1.134  12.834   2.698 -0.9604  0.2627 -0.3863
46641SOL    HW251903   1.184  12.691   2.687  0.1918  0.6803 -0.6726
46642SOL     OW51904  12.601   9.287   7.175  0.0981 -0.1528 -0.1689
46642SOL    HW151905  12.697   9.283   7.179  0.0616 -0.9903 -0.0410
46642SOL    HW251906  12.572   9.234   7.249 -0.4778 -1.0230 -1.0079
46643SOL     OW51907  12.261   7.565   8.542  0.2564  0.0982 -0.3937
46643SOL    HW151908  12.171   7.570   8.574 -0.0269 -0.3744 -1.0978
46643SOL    HW251909  12.300   7.494   8.592 -0.4862 -1.3337 -1.7608
46644SOL     OW51910   2.840   6.067   5.772 -0.3389 -0.0462  0.1767
46644SOL    HW151911   2.836   5.972   5.778  0.2588 -0.4147 -3.2124
46644SOL    HW251912   2.927   6.090   5.804 -0.4585 -0.6270  0.9359
46645SOL     OW51913  13.326   2.784   1.514 -0.1061  1.0353  0.1145
46645SOL    HW151914  13.316   2.702   1.561  2.8085  0.8396  0.5662
46645SOL    HW251915  13.321   2.760   1.421  1.1999  0.2074  0.2294
46646SOL     OW51916   2.564   9.618   0.246 -0.0014  0.0535  0.1995
46646SOL    HW151917   2.596   9.528   0.237  0.2288  0.2628 -1.3650
46646SOL    HW251918   2.470   9.608   0.264  0.1291 -0.5032  0.6089
46647SOL     OW51919  13.302   6.316   4.557  0.1545 -0.2702 -0.1335
46647SOL    HW151920  13.393   6.333   4.581 -0.2950  0.0126  1.5429
46647SOL    HW251921  13.301   6.316   4.462  1.9919 -0.7625 -0.1898
46648SOL     OW51922   1.917  13.934  11.473 -0.2278 -0.2922  0.4095
46648SOL    HW151923   1.862  13.905  11.546  0.9779 -0.7988  1.1528
46648SOL    HW251924   1.944  13.852  11.430 -1.3856  0.0166 -0.9936
46649SOL     OW51925   0.568   1.667   4.022 -0.1371 -1.0052  0.0524
46649SOL    HW151926   0.562   1.749   4.072 -0.7734 -1.0405  0.0380
46649SOL    HW251927   0.478   1.640   4.009 -0.0332 -0.5822 -1.8351
46650SOL     OW51928  11.705   2.850   1.113  0.4232  0.6040  0.2056
46650SOL    HW151929  11.656   2.904   1.052 -0.2828  1.2193  1.2852
46650SOL    HW251930  11.646   2.838   1.188  0.4435 -1.8887 -0.0715
46651SOL     OW51931  10.361   3.641   3.477  0.1984  0.2313  0.1743
46651SOL    HW151932  10.345   3.705   3.408  1.1552  0.3996  0.1006
46651SOL    HW251933  10.285   3.582   3.473  0.0731  0.4370 -0.7917
46652SOL     OW51934   3.797   0.540  10.276  0.1522 -0.2327 -0.3092
46652SOL    HW151935   3.706   0.555  10.250 -0.2760 -0.6917  0.8507
46652SOL    HW251936   3.811   0.447  10.263 -0.0071 -0.4355  0.8240
46653SOL     OW51937   3.324   3.909   6.219  0.0438  0.1660  0.2108
46653SOL    HW151938   3.322   3.987   6.163 -0.2326  0.4904  0.6549
46653SOL    HW251939   3.382   3.848   6.174  0.6977  0.8364  0.1113
46654SOL     OW51940  13.666   3.239   4.801 -0.4935  0.1784 -0.0346
46654SOL    HW151941  13.654   3.304   4.870 -2.8651  0.9360 -1.0507
46654SOL    HW251942  13.612   3.165   4.829  0.7566 -0.6654  0.2308
46655SOL     OW51943  11.035   8.165   3.779 -0.2512  0.2168 -0.2069
46655SOL    HW151944  11.123   8.159   3.815 -0.1583  0.8829 -0.3140
46655SOL    HW251945  11.021   8.259   3.764 -1.2815  0.2126  0.5791
46656SOL     OW51946   1.647   8.539   5.186 -0.0506 -0.0888 -0.1372
46656SOL    HW151947   1.740   8.551   5.171 -0.1560  0.6147 -0.2490
46656SOL    HW251948   1.628   8.452   5.150  0.2257  0.4678 -1.6903
46657SOL     OW51949  12.611  12.526   0.714  0.5500 -0.8570  0.5031
46657SOL    HW151950  12.530  12.476   0.714  0.8178 -1.2967  0.3885
46657SOL    HW251951  12.626  12.549   0.806  0.4862 -1.0850  0.5694
46658SOL     OW51952   6.298   9.467   0.556  0.7787 -0.3428 -0.6523
46658SOL    HW151953   6.309   9.478   0.462 -0.0367  1.2611 -0.5952
46658SOL    HW251954   6.316   9.554   0.593 -1.3507 -0.2902  0.4041
46659SOL     OW51955  10.184   2.356   4.638  0.3168  0.1926  0.6109
46659SOL    HW151956  10.220   2.332   4.723 -0.3573 -0.3711  0.7495
46659SOL    HW251957  10.173   2.272   4.592 -1.0576  0.3023  0.6888
46660SOL     OW51958  10.097   3.769   1.430  0.3987  0.0930 -0.1945
46660SOL    HW151959  10.072   3.858   1.453 -0.9306  0.2953 -2.2176
46660SOL    HW251960  10.155   3.779   1.355  1.4833 -0.7098  0.5012
46661SOL     OW51961  12.573   1.630   7.308 -0.8638  0.0476 -0.4846
46661SOL    HW151962  12.592   1.723   7.305  1.3473 -0.3186  0.2043
46661SOL    HW251963  12.545   1.608   7.219  0.5837  1.0273 -1.2224
46662SOL     OW51964  11.234   5.937   3.825  0.0690  0.3053  0.2033
46662SOL    HW151965  11.179   6.016   3.827 -1.4401 -0.6787  2.8681
46662SOL    HW251966  11.189   5.879   3.763  0.0411  0.7632 -0.2171
46663SOL     OW51967  13.666   8.390   7.310  0.0376 -0.1954 -0.3074
46663SOL    HW151968  13.676   8.317   7.371  3.3321  0.3519 -0.0032
46663SOL    HW251969  13.755   8.426   7.301 -0.9867  2.0744 -2.5598
46664SOL     OW51970  13.896   0.837  10.477  0.4473 -0.5853 -0.0994
46664SOL    HW151971  13.875   0.919  10.521  2.0388 -1.7068  3.0166
46664SOL    HW251972  13.910   0.863  10.386 -0.6170  2.3074  0.4289
46665SOL     OW51973   0.680  13.608   6.351 -0.5393 -0.1772  0.0425
46665SOL    HW151974   0.728  13.589   6.271 -0.2830 -0.0985  0.1770
46665SOL    HW251975   0.727  13.560   6.419 -0.1500  0.5654  0.3118
46666SOL     OW51976   7.618  10.715   4.671 -0.2330  0.3914  0.1064
46666SOL    HW151977   7.671  10.691   4.747  1.2317 -0.3166 -1.0891
46666SOL    HW251978   7.556  10.780   4.705 -0.0651 -0.3814  2.0339
46667SOL     OW51979   6.683   6.768  13.401  0.0192  0.3789  0.2177
46667SOL    HW151980   6.657   6.686  13.359  0.2706  0.9836 -1.2092
46667SOL    HW251981   6.624   6.777  13.475 -0.9630 -0.4002 -0.4364
46668SOL     OW51982   6.402   8.342  13.803  0.3397 -0.4615  0.4599
46668SOL    HW151983   6.441   8.335  13.716  3.0813  0.9305  1.4606
46668SOL    HW251984   6.322   8.393  13.790  0.1455 -1.1488 -1.3300
46669SOL     OW51985   4.740   8.353  10.430 -0.6966 -0.1683  0.1747
46669SOL    HW151986   4.745   8.373  10.337 -2.7391  0.5540  0.1661
46669SOL    HW251987   4.797   8.417  10.472 -0.6293  0.2098 -0.4894
46670SOL     OW51988  13.596   5.387  11.756 -0.4103  0.4575  0.9211
46670SOL    HW151989  13.621   5.360  11.844 -0.6726  1.0377  1.1815
46670SOL    HW251990  13.637   5.473  11.745  2.6956 -1.0598 -0.9007
46671SOL     OW51991   3.022   6.876  12.937  0.5679 -0.5385  0.0315
46671SOL    HW151992   3.106   6.860  12.979  0.6044  0.1721  0.2286
46671SOL    HW251993   2.958   6.865  13.008  0.5906  0.1583  0.1597
46672SOL     OW51994   6.220   1.074   4.549 -0.0166 -0.6458 -0.8416
46672SOL    HW151995   6.174   1.137   4.605  1.3052 -1.4418  1.2817
46672SOL    HW251996   6.189   0.989   4.578  0.2602 -1.0787 -1.7745
46673SOL     OW51997   7.089   3.962  10.571  1.1658 -0.4933  0.9469
46673SOL    HW151998   7.162   3.962  10.633  1.8074 -0.4155  0.1996
46673SOL    HW251999   7.011   3.949  10.626  1.7000 -0.2099  1.7875
46674SOL     OW52000   7.752   0.373   1.863 -0.3730 -0.2753 -0.3948
46674SOL    HW152001   7.817   0.354   1.795 -1.1499 -2.7913 -0.5425
46674SOL    HW252002   7.668   0.350   1.823 -1.4331  2.7511 -0.1610
46675SOL     OW52003  12.882   8.077  11.142  0.5752 -0.4467 -0.0877
46675SOL    HW152004  12.975   8.096  11.157  0.4526 -1.6092  2.7986
46675SOL    HW252005  12.864   7.999  11.195 -2.2421  0.2238  0.1100
46676SOL     OW52006   1.812  10.637  13.231  0.0844  0.7792  0.6697
46676SOL    HW152007   1.747  10.604  13.293 -0.2210 -0.6335 -0.3606
46676SOL    HW252008   1.874  10.565  13.220  0.4184  1.1982 -0.2975
46677SOL     OW52009   3.211  11.188   4.443  0.5752 -0.2071 -0.2466
46677SOL    HW152010   3.177  11.114   4.393 -0.5710 -0.3556  0.7075
46677SOL    HW252011   3.171  11.179   4.529 -0.5160  2.1646 -0.4338
46678SOL     OW52012  11.745   3.724   6.660  0.4845 -0.4201  0.0318
46678SOL    HW152013  11.825   3.712   6.610 -0.3683 -2.5042 -0.9434
46678SOL    HW252014  11.690   3.781   6.606  0.3950 -0.9321 -0.4205
46679SOL     OW52015   2.013   5.980   6.087 -0.1184 -0.3692  0.3135
46679SOL    HW152016   1.936   5.977   6.029  0.4216  0.6922 -0.4964
46679SOL    HW252017   1.978   6.003   6.173 -0.7910 -0.6819  0.1302
46680SOL     OW52018   0.348   2.540   8.242 -0.0998 -0.2098  0.0813
46680SOL    HW152019   0.302   2.460   8.216  1.7223 -1.4666  0.5212
46680SOL    HW252020   0.340   2.541   8.338  0.9623 -0.5789  0.1805
46681SOL     OW52021   8.143   0.414   9.721 -0.0042 -0.1037  0.0069
46681SOL    HW152022   8.190   0.497   9.711 -0.8761  0.1788 -2.4434
46681SOL    HW252023   8.212   0.350   9.740  0.8795  0.8893  0.2859
46682SOL     OW52024   9.338   7.289  12.172  0.0059  0.4709 -0.6817
46682SOL    HW152025   9.417   7.260  12.127  0.5112  0.0953  0.4152
46682SOL    HW252026   9.267   7.238  12.132  0.6122 -0.8147 -0.1732
46683SOL     OW52027   7.588   8.425   8.529  0.9890 -0.1467 -0.3013
46683SOL    HW152028   7.515   8.450   8.472  1.0547 -2.1454 -1.3795
46683SOL    HW252029   7.619   8.342   8.492  2.9993  0.0058  0.8925
46684SOL     OW52030   4.308   3.828   3.676  0.4044  0.7450  0.0670
46684SOL    HW152031   4.312   3.738   3.644  1.2248  0.7271  0.1936
46684SOL    HW252032   4.280   3.820   3.767 -1.2775  0.7522 -0.4100
46685SOL     OW52033  12.918   7.945   4.601 -0.2132  0.0686 -0.7535
46685SOL    HW152034  12.941   7.853   4.593  1.0295  0.3254 -0.4351
46685SOL    HW252035  12.905   7.958   4.695 -3.1018 -0.3513 -1.0081
46686SOL     OW52036   4.062   9.347   8.016  0.1694  0.1067 -0.2077
46686SOL    HW152037   4.053   9.252   8.023 -1.0066  0.2598  0.5343
46686SOL    HW252038   4.000   9.373   7.949 -0.8589  0.5354  0.8766
46687SOL     OW52039   7.078  10.874   7.247 -0.5232 -0.6871  0.7554
46687SOL    HW152040   7.127  10.840   7.172 -0.8280  1.5620 -0.5621
46687SOL    HW252041   7.003  10.815   7.255 -0.3480 -1.1236 -0.5568
46688SOL     OW52042   8.960  10.166  13.648  0.7165  0.0250 -0.1286
46688SOL    HW152043   8.879  10.148  13.696  0.8022  0.5478  0.2233
46688SOL    HW252044   9.017  10.092  13.668  0.5446 -0.0428  0.1134
46689SOL     OW52045   7.961  11.611  10.189 -0.2303 -0.0148  0.1326
46689SOL    HW152046   7.975  11.639  10.099 -2.1816  0.0373 -0.2050
46689SOL    HW252047   7.986  11.686  10.243 -2.0714  1.1891 -0.5751
46690SOL     OW52048  12.968  12.805   8.748  0.2214  0.4009  0.1604
46690SOL    HW152049  12.952  12.867   8.819 -0.4636 -0.3849  0.7054
46690SOL    HW252050  13.056  12.772   8.764 -0.6203 -1.2160  1.8021
46691SOL     OW52051   7.284  11.877  10.746  0.3292  0.3196  0.0580
46691SOL    HW152052   7.309  11.792  10.781 -0.0010 -0.4156 -1.3863
46691SOL    HW252053   7.190  11.884  10.763  0.0008 -0.3929 -1.2859
46692SOL     OW52054   3.065   2.398   7.840  0.1709 -0.3504 -0.0975
46692SOL    HW152055   3.014   2.434   7.913 -0.6442 -0.7383 -0.4639
46692SOL    HW252056   3.054   2.461   7.769 -0.2189 -0.6803 -0.3355
46693SOL     OW52057   1.939  10.234   4.911 -0.2977  0.2595  0.0323
46693SOL    HW152058   1.963  10.144   4.892 -0.6283  0.0155  0.7302
46693SOL    HW252059   1.848  10.230   4.940 -0.6699  0.9643 -1.0016
46694SOL     OW52060   7.363   1.997   9.869 -0.3459 -0.1076 -0.6095
46694SOL    HW152061   7.449   1.956   9.870 -0.0202  0.3382 -3.1657
46694SOL    HW252062   7.312   1.948   9.934  1.4658 -1.1597  0.0864
46695SOL     OW52063  10.192  12.581   8.495  0.2333 -0.1088 -0.4490
46695SOL    HW152064  10.135  12.525   8.441  0.0949  0.0381 -0.4544
46695SOL    HW252065  10.259  12.611   8.434  0.9928 -1.2041 -0.1963
46696SOL     OW52066   6.174   1.961   1.155 -0.0456  0.3223 -0.5270
46696SOL    HW152067   6.097   2.001   1.195 -0.2750 -1.0060  0.4313
46696SOL    HW252068   6.217   1.914   1.227  1.3729  0.5971 -1.1549
46697SOL     OW52069  10.310   6.130   9.757 -0.0574  0.7469  0.5622
46697SOL    HW152070  10.318   6.206   9.699 -1.4225 -0.2534 -1.0492
46697SOL    HW252071  10.216   6.124   9.775  0.2429  0.4711  2.1272
46698SOL     OW52072   4.362  11.779   7.204 -0.0604 -0.3887 -0.3429
46698SOL    HW152073   4.442  11.735   7.174 -1.4595 -2.4777 -1.2199
46698SOL    HW252074   4.372  11.785   7.299  0.3914 -2.2710 -0.2364
46699SOL     OW52075  13.824   1.961   3.071 -0.0084 -0.2668 -0.5947
46699SOL    HW152076  13.812   2.055   3.082 -0.5199 -0.3409 -0.4520
46699SOL    HW252077  13.763   1.937   3.001  0.2409 -0.4661 -0.7462
46700SOL     OW52078  13.299   5.726   1.223  0.0309 -0.5893 -0.1562
46700SOL    HW152079  13.298   5.635   1.193  0.1853 -0.4169 -0.7131
46700SOL    HW252080  13.389   5.743   1.248  0.2968 -0.2225 -1.2753
46701SOL     OW52081  13.385   2.717  13.497 -0.1858 -0.6616 -0.1342
46701SOL    HW152082  13.388   2.735  13.403 -0.5296 -2.4360 -0.5250
46701SOL    HW252083  13.474   2.687  13.518 -0.1038 -0.2500  0.1263
46702SOL     OW52084   2.050   4.036   6.974 -0.1331  0.1367 -0.3511
46702SOL    HW152085   2.073   3.962   6.918  0.6293 -0.6013  0.8862
46702SOL    HW252086   2.110   4.029   7.049 -0.4011  1.7059  0.0511
46703SOL     OW52087   7.800   0.836  10.463  0.2325 -0.3015  0.2673
46703SOL    HW152088   7.815   0.872  10.376 -1.0095  1.2263  0.6358
46703SOL    HW252089   7.854   0.890  10.521  0.0186 -0.4308  0.5914
46704SOL     OW52090   5.642  10.539   3.493  0.1045  0.3733  0.0521
46704SOL    HW152091   5.698  10.470   3.458 -1.1797 -0.2520 -0.8117
46704SOL    HW252092   5.569  10.545   3.432 -1.1120  0.7270  1.4638
46705SOL     OW52093  10.447   3.046   9.442 -0.3072 -0.5146  0.0614
46705SOL    HW152094  10.534   3.050   9.404 -0.6321  0.6486 -0.6149
46705SOL    HW252095  10.431   3.134   9.475 -0.2351 -1.3510  2.5172
46706SOL     OW52096   9.077   2.492   1.119  0.2205 -0.0021 -0.1871
46706SOL    HW152097   9.013   2.447   1.064 -0.8158  0.2685  0.7564
46706SOL    HW252098   9.142   2.425   1.139 -0.0570 -0.4414 -0.7146
46707SOL     OW52099  11.697   2.498   7.850  0.0896  0.3991  0.1081
46707SOL    HW152100  11.666   2.527   7.936 -1.5096 -0.6418 -0.0790
46707SOL    HW252101  11.617   2.482   7.800  0.9243 -1.5975 -0.6808
46708SOL     OW52102   8.668   7.302   6.150 -0.2045  0.0505 -0.1046
46708SOL    HW152103   8.657   7.350   6.233  1.1016  0.2112 -0.0013
46708SOL    HW252104   8.728   7.231   6.171 -3.2077 -2.6538  0.1009
46709SOL     OW52105   2.001  11.214   5.974  0.2839 -0.0618 -0.0098
46709SOL    HW152106   2.032  11.144   5.916  1.4223  0.5084 -0.1329
46709SOL    HW252107   2.082  11.250   6.011 -0.3047  1.0092  0.2483
46710SOL     OW52108  14.002   5.479   7.654 -0.4312  0.2321 -0.4265
46710SOL    HW152109  14.014   5.470   7.749 -1.8130 -0.6608 -0.3093
46710SOL    HW252110  14.087   5.455   7.617 -0.0671 -0.0603  0.5605
46711SOL     OW52111   7.455   0.259   1.120 -0.1167  0.0737 -0.4218
46711SOL    HW152112   7.434   0.343   1.079 -0.0447  0.3943  0.1807
46711SOL    HW252113   7.486   0.204   1.048  2.4872  1.4337 -0.4744
46712SOL     OW52114   4.965  10.648   8.155  0.5161  0.6080  0.7806
46712SOL    HW152115   4.980  10.741   8.138  2.0149  0.4563  1.1522
46712SOL    HW252116   5.052  10.610   8.159 -0.1116 -1.0785 -0.6815
46713SOL     OW52117   4.774   6.229   7.318  0.3487  0.3146 -0.1801
46713SOL    HW152118   4.787   6.271   7.232 -1.6820  2.0642  0.2767
46713SOL    HW252119   4.856   6.247   7.365  0.4418  1.7791 -0.8255
46714SOL     OW52120   3.767   8.620   8.162 -0.0827  0.1554  0.3442
46714SOL    HW152121   3.677   8.636   8.133  0.2792  3.3525  0.6653
46714SOL    HW252122   3.758   8.593   8.253 -0.7220 -0.4289  0.1214
46715SOL     OW52123   0.708   6.285   4.584 -0.1130  0.4039  0.1434
46715SOL    HW152124   0.766   6.309   4.512  1.8797 -0.1342  1.5077
46715SOL    HW252125   0.675   6.199   4.561  1.5907 -0.3647  0.4605
46716SOL     OW52126   6.581   8.573   1.833  0.2111 -0.2526 -0.0767
46716SOL    HW152127   6.500   8.524   1.821 -1.1014  2.0358 -1.2254
46716SOL    HW252128   6.646   8.507   1.860 -1.7164 -2.3327 -0.2687
46717SOL     OW52129   2.511   8.468  13.577  0.0430 -0.4844 -0.1150
46717SOL    HW152130   2.505   8.374  13.563 -1.8470 -0.7377  1.8059
46717SOL    HW252131   2.525   8.478  13.671  0.5713  1.1616 -0.3269
46718SOL     OW52132   7.015   4.090   6.319 -1.0817  0.1049 -0.4868
46718SOL    HW152133   7.035   4.085   6.226 -0.2452  2.9029 -0.5496
46718SOL    HW252134   7.087   4.043   6.362 -1.2267 -0.7980 -1.2057
46719SOL     OW52135   2.012   7.815   8.295 -0.0509 -0.1025  0.3767
46719SOL    HW152136   2.051   7.733   8.267 -2.4373 -1.9203  1.9440
46719SOL    HW252137   2.043   7.827   8.385 -1.5171 -0.6226  0.9948
46720SOL     OW52138   3.946   2.447  12.079 -0.3991  0.2471  0.1052
46720SOL    HW152139   4.038   2.425  12.070 -0.8701 -1.5933 -0.8505
46720SOL    HW252140   3.928   2.440  12.172 -0.4678 -3.8903 -0.0128
46721SOL     OW52141  12.395   5.728   2.030 -0.3639  0.2846  0.3513
46721SOL    HW152142  12.397   5.652   2.088 -0.1901  0.8551  1.0946
46721SOL    HW252143  12.380   5.690   1.943 -1.0723 -0.5406  0.8116
46722SOL     OW52144  11.211  11.836   5.366 -0.2785  0.6085 -0.2902
46722SOL    HW152145  11.288  11.842   5.423 -0.2628 -1.9118  0.0736
46722SOL    HW252146  11.221  11.909   5.305  2.8159 -0.0309 -0.7170
46723SOL     OW52147   4.567  11.172   6.581  0.0881 -0.0556 -0.4470
46723SOL    HW152148   4.628  11.102   6.558 -0.5518 -0.8253  0.1359
46723SOL    HW252149   4.536  11.206   6.497 -0.0915 -0.9261 -0.7374
46724SOL     OW52150   5.329  12.824   8.348  0.0933 -0.5404 -0.1998
46724SOL    HW152151   5.292  12.805   8.434  1.8725 -1.0212  0.5036
46724SOL    HW252152   5.253  12.843   8.293 -1.0703  0.0268  1.5231
46725SOL     OW52153   3.383   1.613   0.491  0.0943  0.0008  0.0562
46725SOL    HW152154   3.295   1.592   0.460  0.4848  1.6106 -2.4550
46725SOL    HW252155   3.372   1.643   0.581 -1.9686  0.5233 -0.3402
46726SOL     OW52156  11.846  14.037  10.026  0.1200 -0.2353 -0.4796
46726SOL    HW152157  11.913  13.989  10.074 -0.7081  0.7224  1.7788
46726SOL    HW252158  11.885  14.054   9.940  1.0551 -3.4222 -0.8085
46727SOL     OW52159   0.092   9.458   3.427  0.7369 -0.2269 -0.4376
46727SOL    HW152160   0.092   9.374   3.380  0.3752 -0.0774 -0.6981
46727SOL    HW252161   0.163   9.508   3.386  0.7489 -0.2843 -0.4873
46728SOL     OW52162   5.963   7.777  11.296  0.1294  0.2314 -0.0882
46728SOL    HW152163   6.055   7.774  11.323  0.1901  0.0633 -0.3104
46728SOL    HW252164   5.964   7.826  11.214 -0.3438  2.9677  1.4087
46729SOL     OW52165   7.761   7.944   2.810 -0.9344 -0.5159  0.1429
46729SOL    HW152166   7.839   7.908   2.853  0.1133  1.6460  0.1904
46729SOL    HW252167   7.701   7.962   2.882 -0.1202  0.9000  0.5023
46730SOL     OW52168   8.074   3.166   2.457 -0.0910 -0.1274 -0.2440
46730SOL    HW152169   8.059   3.097   2.522 -0.0449 -0.1065 -0.2116
46730SOL    HW252170   8.163   3.150   2.425  0.1694  0.3127  0.2366
46731SOL     OW52171  11.001   7.726  11.529  0.3561  0.0397  0.5712
46731SOL    HW152172  11.094   7.749  11.534  0.6888 -1.2743  0.8761
46731SOL    HW252173  10.971   7.764  11.447  1.5615 -0.8889 -0.3229
46732SOL     OW52174   3.652   8.039   0.026  0.0217 -0.4011  0.2178
46732SOL    HW152175   3.714   8.077  -0.037 -0.6717 -0.6327 -0.6167
46732SOL    HW252176   3.586   8.107   0.038 -0.2871 -0.6773  0.0692
46733SOL     OW52177   1.306   0.176   5.163 -0.0423 -0.1377  0.0961
46733SOL    HW152178   1.285   0.097   5.212 -2.4420  0.9421  0.9625
46733SOL    HW252179   1.222   0.219   5.148  0.9352  1.2029 -2.2440
46734SOL     OW52180   9.489  13.984   2.592 -0.2201 -0.5172  0.2211
46734SOL    HW152181   9.584  13.985   2.602 -0.2268  0.7989  0.3489
46734SOL    HW252182   9.473  13.914   2.529  0.9286 -0.1256 -0.5513
46735SOL     OW52183   2.903  13.152  11.319  0.3584  0.2709  0.3742
46735SOL    HW152184   2.955  13.201  11.255 -0.3362 -0.6044 -0.9144
46735SOL    HW252185   2.850  13.218  11.362 -0.0628  0.7589 -0.8435
46736SOL     OW52186  13.596   6.244  12.818  0.5351 -0.0920  0.4147
46736SOL    HW152187  13.551   6.232  12.734  1.9991 -0.7036 -0.3181
46736SOL    HW252188  13.572   6.333  12.845 -0.0704  0.0629 -0.5750
46737SOL     OW52189   0.753  11.387   0.074  0.3236 -0.1564  0.4065
46737SOL    HW152190   0.758  11.316   0.009  0.0491 -0.8124  1.0831
46737SOL    HW252191   0.831  11.440   0.058 -0.7926  0.9383 -1.8618
46738SOL     OW52192   9.568   1.185   9.020  0.0404  0.0069 -0.4110
46738SOL    HW152193   9.478   1.159   9.000  0.0506 -0.1374 -0.2674
46738SOL    HW252194   9.594   1.130   9.094 -0.2380  1.0122  0.4561
46739SOL     OW52195   5.210   5.338   6.378  0.3878 -0.1609  0.4368
46739SOL    HW152196   5.149   5.365   6.310 -0.8029 -0.4644  1.3597
46739SOL    HW252197   5.269   5.413   6.389 -0.1285  0.3290 -0.0999
46740SOL     OW52198   1.432  10.465   9.820  0.4769  0.1173  0.3672
46740SOL    HW152199   1.514  10.416   9.825  1.5283  1.8698  1.4742
46740SOL    HW252200   1.421  10.485   9.727  0.4423 -1.4846  0.0080
46741SOL     OW52201   9.208   1.246  12.079  0.5891 -0.2975 -0.0982
46741SOL    HW152202   9.276   1.191  12.040  1.4590 -0.3058  1.3529
46741SOL    HW252203   9.247   1.278  12.160 -1.1871 -0.3807  0.8336
46742SOL     OW52204  11.858   8.450   6.123  0.1188  0.0312  0.7673
46742SOL    HW152205  11.919   8.408   6.062  0.6330  0.3884  1.0287
46742SOL    HW252206  11.900   8.442   6.208 -0.0869  0.4929  0.9163
46743SOL     OW52207  12.739   9.250   8.271  0.9241  0.1832 -0.1395
46743SOL    HW152208  12.672   9.258   8.203  1.4578 -0.5355 -0.7710
46743SOL    HW252209  12.802   9.187   8.236  1.3281 -0.0453  0.9320
46744SOL     OW52210   5.304   7.255  13.215  0.2719 -0.4321 -0.4696
46744SOL    HW152211   5.257   7.328  13.257 -0.4115 -2.0891  1.8350
46744SOL    HW252212   5.387   7.251  13.262  0.3182 -1.1150 -0.6067
46745SOL     OW52213   5.806   4.432   6.025 -0.7127 -0.0255  0.1553
46745SOL    HW152214   5.827   4.344   6.055 -0.9003  0.2291  1.0423
46745SOL    HW252215   5.711   4.433   6.017 -0.7904  0.3645  1.0191
46746SOL     OW52216  12.943  10.213  13.497  0.9103 -0.2699  0.9520
46746SOL    HW152217  12.879  10.191  13.564 -1.6805 -0.5211 -1.4322
46746SOL    HW252218  12.922  10.303  13.472  0.7369 -0.7082 -0.6049
46747SOL     OW52219   2.471  13.936   2.988 -0.1073  0.6903 -0.0448
46747SOL    HW152220   2.422  13.884   3.052 -0.1827 -0.9693 -1.3817
46747SOL    HW252221   2.463  13.888   2.906  2.0646  1.4262 -0.7813
46748SOL     OW52222   7.461   2.267   2.076 -0.0136 -0.0518 -0.0443
46748SOL    HW152223   7.484   2.316   2.155  1.5329 -0.1136 -0.4275
46748SOL    HW252224   7.536   2.280   2.018  0.4036 -2.7617 -0.2124
46749SOL     OW52225  13.284   5.918   0.899 -0.0201  0.4585  0.0962
46749SOL    HW152226  13.371   5.884   0.920  0.1818  1.2557  0.6369
46749SOL    HW252227  13.299   6.011   0.879 -0.8127  0.7632  0.8174
46750SOL     OW52228   2.389   6.377  11.684  0.2736 -0.3022 -0.6744
46750SOL    HW152229   2.435   6.328  11.753  1.5350  1.9156  0.1465
46750SOL    HW252230   2.316   6.419  11.730  0.8093  0.7610 -0.7846
46751SOL     OW52231   8.465   7.910   9.316 -0.4976  0.0240 -0.5551
46751SOL    HW152232   8.430   7.934   9.230 -0.3304 -0.6350 -0.8126
46751SOL    HW252233   8.397   7.935   9.378 -1.1517 -0.6501 -0.9921
46752SOL     OW52234  11.197   9.851  12.396  0.1995  0.5957 -0.2776
46752SOL    HW152235  11.225   9.764  12.423  0.6116  1.6568  3.2576
46752SOL    HW252236  11.101   9.850  12.406 -0.0229  0.0082 -2.2154
46753SOL     OW52237  11.242   9.253  10.684  1.0624  0.4225  0.2858
46753SOL    HW152238  11.176   9.321  10.670  1.4618  0.5067 -1.3432
46753SOL    HW252239  11.307   9.294  10.740  0.4100  0.7733  0.8066
46754SOL     OW52240   7.136  10.207   0.039 -0.0044  0.3548 -0.2156
46754SOL    HW152241   7.108  10.248  -0.043 -0.2928  0.2545 -0.1704
46754SOL    HW252242   7.221  10.246   0.058  0.7631 -0.6984 -1.3337
46755SOL     OW52243   2.451   5.782   0.113  0.0671 -0.1175  0.0793
46755SOL    HW152244   2.475   5.857   0.058 -0.5240  0.1825  0.2242
46755SOL    HW252245   2.525   5.772   0.173 -0.2214  0.8968  0.6335
46756SOL     OW52246   6.877   7.921   0.431  0.3372 -0.4715 -0.2690
46756SOL    HW152247   6.900   7.888   0.518 -0.4211  0.9712  0.5098
46756SOL    HW252248   6.785   7.899   0.420  0.1007  0.4263 -0.1703
46757SOL     OW52249   3.780   0.927   9.142  0.3905 -0.0325  0.0269
46757SOL    HW152250   3.801   0.853   9.085  0.9608 -1.1539  1.6330
46757SOL    HW252251   3.690   0.951   9.117  0.4833 -0.7216 -1.0537
46758SOL     OW52252  12.108  12.868  11.837  0.2499  0.1773  0.3191
46758SOL    HW152253  12.141  12.914  11.914 -0.2903 -0.2202  0.7889
46758SOL    HW252254  12.186  12.825  11.800  0.7274  1.3204 -0.0371
46759SOL     OW52255   9.397   7.242  14.021  0.4303  0.7884 -0.1421
46759SOL    HW152256   9.486   7.273  14.037  0.8320 -0.1287 -0.5485
46759SOL    HW252257   9.407   7.152  13.991 -0.4637  1.3411 -2.3421
46760SOL     OW52258   1.413   9.931   2.689 -0.0592 -0.1443  0.2509
46760SOL    HW152259   1.473  10.004   2.704  0.7576 -1.1570  2.3634
46760SOL    HW252260   1.468   9.853   2.695 -1.0265 -0.9850 -1.2400
46761SOL     OW52261   5.324   6.328   8.336 -0.5913  0.6567  0.8738
46761SOL    HW152262   5.238   6.293   8.316 -0.2533  0.7521 -0.9521
46761SOL    HW252263   5.336   6.313   8.430 -1.7796 -1.1353  0.7691
46762SOL     OW52264  12.093  12.417   6.745 -0.8298 -0.0902  0.0634
46762SOL    HW152265  12.176  12.369   6.746 -0.7716  0.0103  0.2245
46762SOL    HW252266  12.113  12.500   6.789 -0.8679  0.1850 -0.4241
46763SOL     OW52267   1.338   9.774  13.328 -0.4623 -0.4193  0.0700
46763SOL    HW152268   1.336   9.844  13.394  0.6274 -2.8045  2.8368
46763SOL    HW252269   1.430   9.751  13.321 -0.4901  0.0251 -2.7473
46764SOL     OW52270   6.268   0.166   8.866  0.4980  0.2686  0.3859
46764SOL    HW152271   6.190   0.120   8.899 -0.2685 -0.3310 -2.0859
46764SOL    HW252272   6.250   0.258   8.883 -1.2372  0.2282 -0.9626
46765SOL     OW52273   7.976   3.175  13.399 -0.1066  0.0466 -0.5091
46765SOL    HW152274   7.951   3.115  13.469  0.5577 -0.8926 -1.0558
46765SOL    HW252275   7.970   3.262  13.439  0.7892 -0.5000  0.8972
46766SOL     OW52276  12.630   1.410   6.250 -0.6244  0.2687  0.0044
46766SOL    HW152277  12.715   1.394   6.291  0.0734  0.1134 -1.4453
46766SOL    HW252278  12.644   1.390   6.157 -1.3190  3.4492 -0.8901
46767SOL     OW52279   6.384   8.832   6.169 -0.0266  0.4267  0.8418
46767SOL    HW152280   6.295   8.840   6.202 -0.7619  2.2859 -1.3411
46767SOL    HW252281   6.393   8.739   6.146 -1.6677  0.3587  0.3834
46768SOL     OW52282   3.337   9.769   6.762  0.1678  0.0191 -0.0178
46768SOL    HW152283   3.407   9.754   6.699  0.1874  0.2978 -0.0618
46768SOL    HW252284   3.289   9.845   6.728 -0.0917 -0.1071  0.0659
46769SOL     OW52285   9.376   4.050   8.869  0.2509  0.1927  0.7905
46769SOL    HW152286   9.466   4.081   8.857  0.3211  0.1703  1.2350
46769SOL    HW252287   9.322   4.128   8.857  0.1650 -0.1652 -1.5013
46770SOL     OW52288   0.958   9.114   2.661  0.1167  0.6297 -0.5403
46770SOL    HW152289   0.915   9.028   2.663  0.7871  0.2985  0.7348
46770SOL    HW252290   0.896   9.173   2.704  1.2932 -0.0757  2.3549
46771SOL     OW52291   8.341   3.527  13.521 -0.3462 -0.2064 -0.2522
46771SOL    HW152292   8.333   3.454  13.460 -1.3863 -0.0143 -0.3616
46771SOL    HW252293   8.417   3.505  13.575  1.0719 -0.0421 -2.0694
46772SOL     OW52294  13.313   9.109  13.025  0.1917 -0.2764  0.4669
46772SOL    HW152295  13.372   9.179  12.995  0.3178 -1.0417 -1.2053
46772SOL    HW252296  13.369   9.050  13.075  0.4078  0.0212  0.5812
46773SOL     OW52297   0.089   2.341  12.293  0.2155  0.5381  0.3801
46773SOL    HW152298   0.081   2.259  12.341 -0.6306  1.1536  1.3438
46773SOL    HW252299   0.130   2.317  12.210 -3.0549 -1.4699 -0.8691
46774SOL     OW52300   6.030   1.281   9.722  0.0006  0.4645  0.2789
46774SOL    HW152301   6.053   1.292   9.814  1.1103 -0.2159  0.1072
46774SOL    HW252302   6.021   1.186   9.711  0.2875  0.5107 -0.4058
46775SOL     OW52303   8.760   3.953  12.046 -0.6654 -0.2308 -0.1519
46775SOL    HW152304   8.711   3.906  11.979 -2.0751 -2.3988  2.2082
46775SOL    HW252305   8.825   3.890  12.077 -0.7278  0.3179  1.1841
46776SOL     OW52306   5.337  11.273  12.377 -0.3694  0.3875  0.3096
46776SOL    HW152307   5.317  11.282  12.283 -1.1395  2.7611  0.6250
46776SOL    HW252308   5.347  11.363  12.408  2.6997 -0.3876  1.9842
46777SOL     OW52309   9.611  13.835   8.665 -0.2359  0.2326 -0.3486
46777SOL    HW152310   9.658  13.804   8.742 -1.0472  0.5891  0.3055
46777SOL    HW252311   9.645  13.924   8.651  0.1978  0.0255 -0.6550
46778SOL     OW52312   7.329   7.316   3.783  1.0304  0.4117  0.2114
46778SOL    HW152313   7.377   7.398   3.796 -1.2228  1.6715  0.9479
46778SOL    HW252314   7.297   7.321   3.693 -0.1623  0.9584  0.6485
46779SOL     OW52315   2.216  10.309   0.283  0.1485 -0.4023 -0.1806
46779SOL    HW152316   2.149  10.370   0.252  0.2625 -0.3122 -0.2530
46779SOL    HW252317   2.180  10.223   0.266 -0.6995 -0.3884  1.3794
46780SOL     OW52318   0.480  11.049   4.789 -0.3370  0.1794 -0.0600
46780SOL    HW152319   0.536  11.044   4.712 -2.1180 -0.5352 -1.3605
46780SOL    HW252320   0.518  10.984   4.849 -0.3039 -0.9915 -1.2922
46781SOL     OW52321   1.192   3.322   9.071 -0.1206  0.1305 -0.1829
46781SOL    HW152322   1.123   3.272   9.027 -0.5315 -1.2133  1.8598
46781SOL    HW252323   1.268   3.265   9.071 -0.2231 -0.0336  1.0852
46782SOL     OW52324   7.534   0.982  13.027 -0.4226 -0.2911  0.0553
46782SOL    HW152325   7.542   0.906  12.969 -0.1149  0.3974 -0.8343
46782SOL    HW252326   7.585   1.050  12.984  0.9123 -0.1246  1.8271
46783SOL     OW52327   7.744   9.693   0.222  0.3426 -0.4857 -0.3551
46783SOL    HW152328   7.654   9.684   0.194 -0.5662  0.4760  1.9821
46783SOL    HW252329   7.759   9.788   0.227  0.8636 -0.6109  0.9701
46784SOL     OW52330  12.615  12.611  13.308 -0.0059 -0.0621  0.1676
46784SOL    HW152331  12.641  12.564  13.229 -1.8921 -1.1188  0.1168
46784SOL    HW252332  12.680  12.586  13.374  0.7448 -0.3219 -0.6600
46785SOL     OW52333   7.366   4.034  12.645  0.1715 -0.7595  0.0152
46785SOL    HW152334   7.358   3.996  12.557 -1.2035 -1.0714  0.2481
46785SOL    HW252335   7.410   4.118  12.631  1.8547 -1.7072 -0.6965
46786SOL     OW52336   6.816  13.449   6.212  0.0731 -0.2417 -0.4219
46786SOL    HW152337   6.885  13.413   6.157 -0.9990 -2.1042 -0.6410
46786SOL    HW252338   6.736  13.439   6.160 -0.6402  0.0590  0.5846
46787SOL     OW52339   1.902   7.851   9.179 -0.8743 -0.2886 -0.1775
46787SOL    HW152340   1.846   7.813   9.247  1.6212 -3.5520  0.2908
46787SOL    HW252341   1.852   7.839   9.098 -2.2748  0.1667  0.5748
46788SOL     OW52342   9.538   1.160   1.321  0.5274  0.2035  0.4086
46788SOL    HW152343   9.519   1.253   1.321  3.1668  0.8322 -0.2595
46788SOL    HW252344   9.497   1.126   1.242  0.7302  1.1091 -0.0922
46789SOL     OW52345  13.020  13.770   3.087  0.0407  0.1046  0.5173
46789SOL    HW152346  13.055  13.803   3.169  0.0262  1.7385 -0.0887
46789SOL    HW252347  13.093  13.775   3.026  0.4824 -2.4742  0.7066
46790SOL     OW52348   1.885   0.373   9.784  0.0559 -0.3229  0.0731
46790SOL    HW152349   1.820   0.421   9.732  0.9730  0.0376 -0.7631
46790SOL    HW252350   1.838   0.296   9.815 -1.0732  0.4552  0.3625
46791SOL     OW52351  13.433   6.161  11.793 -0.3541  0.5558 -0.0212
46791SOL    HW152352  13.469   6.228  11.734 -2.1305  1.3102 -0.3054
46791SOL    HW252353  13.412   6.209  11.873 -0.2153  0.0121  0.3437
46792SOL     OW52354   3.767   4.551   7.835 -0.0053  0.4333  0.3168
46792SOL    HW152355   3.815   4.557   7.917  1.0759  1.8947 -0.3750
46792SOL    HW252356   3.710   4.629   7.835 -1.0207 -0.2884  0.2833
46793SOL     OW52357   7.049   0.140   9.895  0.2035 -0.2101 -0.4669
46793SOL    HW152358   7.084   0.146   9.984  1.2437 -0.5593 -0.8450
46793SOL    HW252359   7.125   0.150   9.838 -0.7193  2.0748 -1.3909
46794SOL     OW52360   9.781   8.518   3.492  0.0994 -0.0916  0.2752
46794SOL    HW152361   9.832   8.592   3.461 -1.6998  1.3485  0.5859
46794SOL    HW252362   9.800   8.513   3.585 -0.6887  0.7720  0.4931
46795SOL     OW52363  12.381   8.756   1.271  0.2464  0.3163  0.3031
46795SOL    HW152364  12.395   8.661   1.270  0.7382  0.3790 -0.8983
46795SOL    HW252365  12.323   8.772   1.197 -0.1559  0.9222  0.7383
46796SOL     OW52366   3.736   4.028   4.938 -0.3455 -0.5293 -0.6827
46796SOL    HW152367   3.658   4.081   4.959  1.2215  1.8702 -0.4785
46796SOL    HW252368   3.721   3.945   4.984 -2.2841  0.2514  0.2543
46797SOL     OW52369   1.316   2.711  11.890 -0.3623  0.3100 -0.1413
46797SOL    HW152370   1.287   2.654  11.819 -2.0972  0.3603  0.4902
46797SOL    HW252371   1.237   2.728  11.942  0.6304  1.2055  1.1496
46798SOL     OW52372   7.188   0.809   8.034  0.0631  0.3234  0.0747
46798SOL    HW152373   7.112   0.860   8.063  0.2858  0.6861  0.0305
46798SOL    HW252374   7.249   0.813   8.108 -0.1600 -0.3784  0.3000
46799SOL     OW52375  13.024   1.425   4.831  0.1870  0.2086 -0.0587
46799SOL    HW152376  12.933   1.416   4.802 -0.1764  2.3365  0.2335
46799SOL    HW252377  13.031   1.368   4.907 -0.1171 -2.0102 -1.5941
46800SOL     OW52378   0.901   4.013   9.588  0.6136  0.7035  0.2833
46800SOL    HW152379   0.985   3.971   9.610 -0.5149 -1.0820  1.4598
46800SOL    HW252380   0.891   3.998   9.494  0.9792 -0.3531  0.3914
46801SOL     OW52381  10.346   7.170   3.022  0.0465  0.4318  0.1043
46801SOL    HW152382  10.326   7.213   2.940  0.4773 -0.0791 -0.2789
46801SOL    HW252383  10.409   7.228   3.066  1.2277 -0.1461 -0.7540
46802SOL     OW52384   2.827  13.797  13.514 -0.4334 -0.1086  0.1521
46802SOL    HW152385   2.820  13.834  13.425 -0.2593  0.1873  0.2578
46802SOL    HW252386   2.897  13.732  13.507  0.7203  1.0657  0.4380
46803SOL     OW52387   9.459   5.490   4.974  0.1962  0.0091 -0.1999
46803SOL    HW152388   9.536   5.443   5.006  1.6459  0.7558 -2.3640
46803SOL    HW252389   9.456   5.569   5.028  0.1176 -0.6545  0.7971
46804SOL     OW52390   2.100   7.260   7.240 -0.2453 -0.4047  0.7539
46804SOL    HW152391   2.148   7.326   7.190  1.1710 -1.4101  0.7331
46804SOL    HW252392   2.016   7.301   7.258  0.2725  1.0759  0.0053
46805SOL     OW52393   0.024   4.513  10.501  0.0245 -0.3172 -0.0430
46805SOL    HW152394   0.092   4.452  10.529 -0.5698 -0.6812  0.6203
46805SOL    HW252395   0.023   4.581  10.568  1.5855  1.1610 -1.4452
46806SOL     OW52396  10.094   6.239   9.120 -0.7362  0.7594  0.5734
46806SOL    HW152397  10.092   6.256   9.026 -2.5024  2.4078  0.8541
46806SOL    HW252398  10.138   6.154   9.128 -1.6636 -0.0233 -1.8200
46807SOL     OW52399   1.219   5.085   5.308  0.5993  0.3108  0.7148
46807SOL    HW152400   1.235   5.017   5.374 -1.7007 -1.5731 -0.5088
46807SOL    HW252401   1.139   5.129   5.337 -0.8608 -1.0229 -1.0550
46808SOL     OW52402   6.495   9.652  11.090  0.1471  0.1235 -0.2000
46808SOL    HW152403   6.513   9.561  11.112  2.1588  0.7293  0.8942
46808SOL    HW252404   6.403   9.652  11.062  0.0653 -2.1944 -0.1284
46809SOL     OW52405  10.200   6.233  11.756 -0.2781  0.2147 -0.5659
46809SOL    HW152406  10.251   6.163  11.716 -0.3200 -0.0390 -0.1839
46809SOL    HW252407  10.256   6.311  11.749 -0.2345  0.1461 -0.9962
46810SOL     OW52408   3.117  11.625   7.537  0.1707 -0.0951  0.3679
46810SOL    HW152409   3.210  11.628   7.559  0.4667  1.5121 -0.8952
46810SOL    HW252410   3.103  11.703   7.483 -1.6702 -0.9319 -0.4333
46811SOL     OW52411   7.981   1.911  12.045  0.6888  0.3525  0.5738
46811SOL    HW152412   8.053   1.974  12.038 -1.2941  2.7831  0.7914
46811SOL    HW252413   7.922   1.934  11.974 -0.0237 -1.4472  0.5355
46812SOL     OW52414   3.798   4.752   8.715 -0.1643 -0.4698 -0.1370
46812SOL    HW152415   3.718   4.726   8.762  0.2226 -1.5655 -0.0487
46812SOL    HW252416   3.791   4.847   8.707 -0.4224 -0.2823  1.8061
46813SOL     OW52417   6.526  11.648   4.674 -0.0288 -0.0591  0.1615
46813SOL    HW152418   6.473  11.570   4.690 -0.8104  0.4904  0.3107
46813SOL    HW252419   6.521  11.662   4.579  0.3486 -0.3434  0.0949
46814SOL     OW52420   0.507   7.124   4.011  0.3240  0.0314  0.0084
46814SOL    HW152421   0.582   7.118   3.951  1.3044 -2.3964  1.3357
46814SOL    HW252422   0.527   7.198   4.068  1.9548 -0.7814  0.5538
46815SOL     OW52423   8.146   8.342   8.154  0.2618  0.2233 -0.0969
46815SOL    HW152424   8.195   8.422   8.174 -1.8639  1.4110  0.6599
46815SOL    HW252425   8.113   8.312   8.239 -0.1446 -0.6570 -0.5525
46816SOL     OW52426  12.289   6.409   4.696  0.0912  0.2245 -0.2708
46816SOL    HW152427  12.274   6.330   4.748 -0.7052  0.3709 -0.2663
46816SOL    HW252428  12.225   6.403   4.625 -1.9012  2.1820  1.2282
46817SOL     OW52429   7.307   5.218  13.603  0.5481 -0.2294  0.3374
46817SOL    HW152430   7.237   5.264  13.651 -0.1481 -1.1993  0.2837
46817SOL    HW252431   7.359   5.176  13.672  1.3308  0.7964  0.4020
46818SOL     OW52432  12.058   0.151   1.497  0.8192 -0.3243  0.5236
46818SOL    HW152433  12.012   0.076   1.458  0.5603  0.8800 -1.6709
46818SOL    HW252434  12.107   0.114   1.570 -0.1102 -2.4397  0.1507
46819SOL     OW52435  11.115   8.999   4.027 -0.5549 -0.4615  0.2812
46819SOL    HW152436  11.066   9.074   3.993  2.5628  1.4669 -0.3804
46819SOL    HW252437  11.140   9.025   4.116 -0.8868 -1.4917  0.6857
46820SOL     OW52438   9.460   2.078   5.880 -0.1180 -0.2318  0.2461
46820SOL    HW152439   9.396   2.013   5.908 -0.3217  0.3549  1.1925
46820SOL    HW252440   9.522   2.029   5.825 -1.0373 -0.9216 -0.1958
46821SOL     OW52441   7.862   7.043   1.622  0.4019  0.4486 -0.3509
46821SOL    HW152442   7.837   7.111   1.560 -1.0674  0.6937  0.4722
46821SOL    HW252443   7.781   6.999   1.645  1.0924 -0.4685  0.4276
46822SOL     OW52444   6.124   4.739   0.325  0.1587 -0.3986 -0.3403
46822SOL    HW152445   6.047   4.702   0.367  0.5179 -1.9413 -0.9950
46822SOL    HW252446   6.182   4.665   0.310  1.5337  0.6434 -0.3931
46823SOL     OW52447   8.868  10.346   8.867 -0.3683  0.4215 -0.3553
46823SOL    HW152448   8.786  10.315   8.905 -0.2855  1.8749  1.1670
46823SOL    HW252449   8.935  10.294   8.910 -0.3651  1.0279  0.3974
46824SOL     OW52450   7.391  13.741  11.675 -0.2930 -0.4101  0.7405
46824SOL    HW152451   7.435  13.658  11.696  0.6872  0.0549  0.5763
46824SOL    HW252452   7.371  13.779  11.761 -1.4411 -1.1572  0.8249
46825SOL     OW52453   4.036   2.881   2.904  0.6719 -0.7905 -0.3828
46825SOL    HW152454   4.002   2.954   2.956  2.9060 -0.0275  0.1562
46825SOL    HW252455   3.985   2.883   2.824  1.1737  1.9541 -0.7411
46826SOL     OW52456  12.859  10.140  12.835  0.8621 -0.7952  0.3116
46826SOL    HW152457  12.901  10.101  12.758 -0.3801 -1.1988 -0.1868
46826SOL    HW252458  12.772  10.100  12.838  0.6027 -0.1972  1.4797
46827SOL     OW52459   8.365   0.885   8.506 -0.2139  0.1628  0.3177
46827SOL    HW152460   8.296   0.821   8.488  1.5651 -1.5673 -0.7158
46827SOL    HW252461   8.339   0.925   8.589 -1.9320 -1.1545  0.4740
46828SOL     OW52462   7.333   5.811   2.257  0.1097  0.0242 -0.2472
46828SOL    HW152463   7.301   5.818   2.167 -2.0383  0.2141  0.4870
46828SOL    HW252464   7.410   5.868   2.258  0.0052  0.2660 -1.8757
46829SOL     OW52465   3.360  13.054  11.601  0.6824  0.0228  0.0349
46829SOL    HW152466   3.266  13.060  11.585  0.7798  1.2845 -0.1895
46829SOL    HW252467   3.376  13.116  11.673  0.9377 -2.2763  2.0701
46830SOL     OW52468   2.536   7.218   9.829 -0.1640  0.0268  0.5856
46830SOL    HW152469   2.476   7.290   9.851  0.2893  0.1108  1.5692
46830SOL    HW252470   2.607   7.225   9.892  1.1153  0.1656 -0.8174
46831SOL     OW52471   5.718  11.652  12.066  0.3594 -0.0100 -0.3074
46831SOL    HW152472   5.779  11.595  12.112 -0.0221 -0.0792  0.1339
46831SOL    HW252473   5.639  11.651  12.121  0.5381  1.3834  0.0155
46832SOL     OW52474   5.678   4.345   2.962 -0.3975  0.1420  0.3659
46832SOL    HW152475   5.615   4.324   2.894 -0.3001 -1.8960  0.8406
46832SOL    HW252476   5.763   4.323   2.924  0.2154  3.3692 -0.4699
46833SOL     OW52477   7.079   5.568   9.283  0.2812  0.9121 -0.1164
46833SOL    HW152478   7.061   5.605   9.370 -1.8338  1.4330 -0.7062
46833SOL    HW252479   7.075   5.473   9.295  3.5391  0.7924  0.9767
46834SOL     OW52480   0.613  10.890   9.836 -0.3641 -0.0896  0.7098
46834SOL    HW152481   0.520  10.867   9.840 -0.3269 -1.3454 -2.3633
46834SOL    HW252482   0.615  10.972   9.786  0.1992 -0.6483 -0.2107
46835SOL     OW52483   3.969   8.021  11.431  0.4310  0.0499 -0.1998
46835SOL    HW152484   3.986   8.115  11.434 -0.6789  0.2440  0.5255
46835SOL    HW252485   4.019   7.990  11.355  1.9285  0.9693  0.3700
46836SOL     OW52486   2.599   4.916   1.338 -0.5158  0.0118 -0.4329
46836SOL    HW152487   2.551   4.990   1.374  0.3548 -0.0242  0.8783
46836SOL    HW252488   2.566   4.840   1.387 -1.1065 -0.4243 -1.4762
46837SOL     OW52489   6.138  11.223   3.410  0.0385  0.0185  0.5846
46837SOL    HW152490   6.149  11.233   3.315  0.4516  0.9568  0.7187
46837SOL    HW252491   6.221  11.186   3.440  1.0674  2.4098  0.9313
46838SOL     OW52492  12.159  13.191   0.257  0.2613  0.1926 -0.3273
46838SOL    HW152493  12.099  13.118   0.242 -1.9498  1.7123  0.6104
46838SOL    HW252494  12.142  13.251   0.185  2.2342 -0.2504 -1.2229
46839SOL     OW52495   5.644   0.364   2.773  0.8262 -0.1913 -0.4051
46839SOL    HW152496   5.584   0.331   2.840 -2.2556 -1.1923 -3.3615
46839SOL    HW252497   5.691   0.286   2.742  1.0768 -0.0122 -0.4819
46840SOL     OW52498  12.207  11.356   3.335  0.1867  0.0066  0.1963
46840SOL    HW152499  12.119  11.350   3.298 -0.1088 -0.9272  0.9982
46840SOL    HW252500  12.216  11.447   3.361 -0.6127  0.0712  0.2673
46841SOL     OW52501  12.463   5.948   3.037  0.3080  0.3235 -0.4386
46841SOL    HW152502  12.432   5.878   2.979  0.1593  0.5010 -0.5739
46841SOL    HW252503  12.499   6.014   2.978 -0.6685  0.9226 -0.4030
46842SOL     OW52504  13.363   4.871  13.402 -0.3105 -0.0559 -0.5771
46842SOL    HW152505  13.423   4.799  13.420  0.7774  0.8602 -0.4504
46842SOL    HW252506  13.284   4.828  13.369  0.7988 -1.2310 -1.8251
46843SOL     OW52507  11.114  13.237   9.656 -0.4915 -0.1908  0.6314
46843SOL    HW152508  11.191  13.196   9.695  0.1184 -0.0988 -0.4334
46843SOL    HW252509  11.078  13.169   9.598  1.0278  0.9789 -1.8252
46844SOL     OW52510   9.215   4.781   0.521 -0.4911  0.2136  0.1485
46844SOL    HW152511   9.218   4.825   0.436 -0.5450  1.4664  0.7806
46844SOL    HW252512   9.238   4.849   0.585 -1.2627 -0.4929  1.2165
46845SOL     OW52513   3.731   9.525   6.916  0.3378 -0.1812 -0.2535
46845SOL    HW152514   3.766   9.610   6.890  1.4552 -0.1653  1.2462
46845SOL    HW252515   3.637   9.531   6.895  0.4797  1.2364 -0.5885
46846SOL     OW52516  10.500   5.875   8.101 -0.4428 -0.2065 -0.3074
46846SOL    HW152517  10.584   5.899   8.062 -0.3964 -0.8585 -0.6169
46846SOL    HW252518  10.435   5.902   8.037 -0.3907 -0.8974 -0.6582
46847SOL     OW52519   6.215  13.091  13.132 -0.3689 -0.3409  0.2111
46847SOL    HW152520   6.234  12.997  13.141 -0.5549 -0.3253  0.7751
46847SOL    HW252521   6.121  13.094  13.115 -0.7008 -0.1607  1.9782
46848SOL     OW52522   7.571   5.853  10.021  0.7180  0.0271 -0.4163
46848SOL    HW152523   7.662   5.879  10.006  0.8721 -0.1602  0.1892
46848SOL    HW252524   7.573   5.757  10.016  0.5984  0.0105 -0.1637
46849SOL     OW52525  12.009   4.485   4.165  0.1807  0.0732  0.8096
46849SOL    HW152526  12.006   4.395   4.197  3.5469 -0.6176 -0.3920
46849SOL    HW252527  12.092   4.491   4.117 -0.4912  3.4861 -0.2302
46850SOL     OW52528  11.597   4.327   4.879 -0.5742 -0.1758  0.6671
46850SOL    HW152529  11.541   4.335   4.956  1.5779 -0.3241  2.3422
46850SOL    HW252530  11.676   4.378   4.901 -0.5034  1.0574 -2.0822
46851SOL     OW52531   6.926   0.147   8.251  0.4918 -0.6503 -0.1353
46851SOL    HW152532   7.020   0.137   8.265  0.2146 -1.6907  1.1221
46851SOL    HW252533   6.909   0.099   8.170  1.3023  1.0632 -1.3741
46852SOL     OW52534   5.335   9.842  13.437  0.4354  0.0312  0.5941
46852SOL    HW152535   5.288   9.803  13.364  1.0103  1.6858 -0.7295
46852SOL    HW252536   5.284   9.818  13.515 -1.3465 -0.0629 -0.5505
46853SOL     OW52537   9.791  12.411  13.157  0.3944  0.4825  0.3189
46853SOL    HW152538   9.762  12.367  13.077 -0.1508  0.1102  0.7109
46853SOL    HW252539   9.749  12.362  13.228  0.2092  1.3146  0.7950
46854SOL     OW52540   3.057   8.355   3.800  0.1022 -0.2480 -0.6587
46854SOL    HW152541   2.987   8.391   3.746 -0.0660 -1.6948 -1.4578
46854SOL    HW252542   3.116   8.312   3.738  2.3049  1.7870 -0.1310
46855SOL     OW52543   2.140   4.156  12.953 -0.2768  0.0722 -0.7834
46855SOL    HW152544   2.099   4.075  12.983 -1.4035  1.6924  2.6302
46855SOL    HW252545   2.075   4.196  12.895 -2.1702  0.9087  1.7400
46856SOL     OW52546   2.545  10.516   2.331 -0.3875 -0.1887 -0.1144
46856SOL    HW152547   2.466  10.526   2.384 -1.7598 -2.6370 -1.5231
46856SOL    HW252548   2.526  10.564   2.250 -0.5071 -0.8284 -0.4791
46857SOL     OW52549  14.022  10.208   6.240 -0.2472 -0.1654  0.7177
46857SOL    HW152550  13.985  10.278   6.295 -1.6278  0.3815 -0.8349
46857SOL    HW252551  13.969  10.132   6.259 -0.0367 -0.2661  0.9123
46858SOL     OW52552  13.323   3.841   6.602 -0.7433 -0.2252 -0.7254
46858SOL    HW152553  13.374   3.877   6.530  2.4441 -0.8534  1.0145
46858SOL    HW252554  13.346   3.748   6.603 -0.2534 -0.1431  1.3478
46859SOL     OW52555  11.597   6.583   1.496  0.2343  0.4208  0.0624
46859SOL    HW152556  11.673   6.545   1.453  0.4603  0.4616  0.4194
46859SOL    HW252557  11.574   6.659   1.442  2.5469  2.4979  1.7494
46860SOL     OW52558   9.660   4.858   5.675  0.3400  0.3543 -0.5871
46860SOL    HW152559   9.748   4.845   5.711  0.3789  0.3182 -0.6956
46860SOL    HW252560   9.602   4.853   5.752  0.2131 -1.8631 -0.7635
46861SOL     OW52561  11.420   9.883   8.961 -0.1820  0.3263  0.2237
46861SOL    HW152562  11.368   9.951   8.920 -0.4999  0.3680  0.6961
46861SOL    HW252563  11.452   9.922   9.042 -1.2247 -0.4223  1.0184
46862SOL     OW52564  12.073   4.323  10.372 -0.5523 -0.5432  0.8608
46862SOL    HW152565  12.044   4.410  10.344  0.0590 -0.0275  1.7732
46862SOL    HW252566  12.140   4.298  10.308  0.1567  0.2118  1.2846
46863SOL     OW52567   7.021  10.985   5.556  0.5378 -0.3021  0.5464
46863SOL    HW152568   7.060  10.995   5.470  0.4114 -1.7860  0.2870
46863SOL    HW252569   7.014  11.074   5.591  0.9563  0.2708 -0.8026
46864SOL     OW52570   5.160   7.844  13.796 -0.5912  0.0465 -0.6757
46864SOL    HW152571   5.085   7.900  13.817 -0.2789 -0.7561  3.3539
46864SOL    HW252572   5.230   7.905  13.776 -1.6468  0.8691 -2.0459
46865SOL     OW52573   3.312   1.930   6.768 -0.0114 -0.0263  0.0399
46865SOL    HW152574   3.351   1.987   6.834 -0.0606 -1.1395  1.0596
46865SOL    HW252575   3.252   1.987   6.720  0.9016  1.0733  0.1763
46866SOL     OW52576   2.355  13.891   8.116 -0.3744 -0.4688 -0.0397
46866SOL    HW152577   2.434  13.942   8.130  0.3308 -1.4569 -0.3196
46866SOL    HW252578   2.319  13.924   8.034  0.0227 -0.3550 -0.1690
46867SOL     OW52579   0.909   5.843   6.571  0.2686  0.2529 -0.3695
46867SOL    HW152580   0.963   5.767   6.546  0.5975  0.2419  0.3541
46867SOL    HW252581   0.824   5.805   6.593  0.0447  0.2372 -1.2233
46868SOL     OW52582   0.300   6.427   3.049 -0.4277 -0.4034 -1.0902
46868SOL    HW152583   0.306   6.332   3.039  0.6530 -0.2839 -1.8181
46868SOL    HW252584   0.212   6.450   3.019 -1.0747 -1.2760  0.0936
46869SOL     OW52585   3.186  11.272   8.462  0.2180  0.0200  0.0148
46869SOL    HW152586   3.160  11.284   8.371 -1.2519  4.3637  0.7968
46869SOL    HW252587   3.279  11.293   8.464  0.2546 -0.0900 -0.4578
46870SOL     OW52588  12.269   3.446   2.267 -0.4704 -0.0366 -0.5839
46870SOL    HW152589  12.261   3.442   2.172 -0.2367 -1.2241 -0.5681
46870SOL    HW252590  12.181   3.468   2.298 -0.6797 -0.2104 -1.0558
46871SOL     OW52591   7.869   5.449   4.586 -0.2951 -0.3607  0.1378
46871SOL    HW152592   7.879   5.464   4.680 -0.0632  0.4393 -0.0090
46871SOL    HW252593   7.795   5.389   4.579  0.5328 -1.5177  0.9048
46872SOL     OW52594  11.735   5.096   9.604  0.0867 -0.5169  0.0472
46872SOL    HW152595  11.733   5.191   9.616  0.9008 -0.5898  0.8027
46872SOL    HW252596  11.821   5.078   9.568  0.0700 -1.0125  0.2544
46873SOL     OW52597   6.994  14.025   2.334  0.2119 -0.0976  0.2292
46873SOL    HW152598   6.918  13.975   2.304  0.1760 -0.3858  0.7860
46873SOL    HW252599   7.013  14.086   2.262 -0.6115  0.0531  0.1305
46874SOL     OW52600   6.566   5.698  12.419 -0.4375 -0.4749  0.2989
46874SOL    HW152601   6.496   5.740  12.470  1.1181  1.6640  0.8029
46874SOL    HW252602   6.623   5.770  12.393  0.9328 -2.0126 -1.1755
46875SOL     OW52603   3.185  10.684  11.736  0.2294 -0.1217 -0.0083
46875SOL    HW152604   3.128  10.686  11.812  0.3632  0.6164  0.0871
46875SOL    HW252605   3.205  10.592  11.721 -1.8370 -0.4952 -0.6830
46876SOL     OW52606   5.422  14.042   3.227 -0.3601  0.2610 -0.4064
46876SOL    HW152607   5.508  14.057   3.187 -0.7082 -0.3327 -1.4357
46876SOL    HW252608   5.405  14.121   3.278  1.3001 -0.1008  0.7853
46877SOL     OW52609  12.754   9.797   2.839  0.1410 -0.1410 -0.3094
46877SOL    HW152610  12.817   9.855   2.881  0.0562  0.2400 -0.7029
46877SOL    HW252611  12.701   9.764   2.911  0.7589 -0.4289  0.0202
46878SOL     OW52612   4.177   7.492   6.147 -0.7748  0.0944 -0.2576
46878SOL    HW152613   4.113   7.560   6.127 -0.4163  0.6336  0.4256
46878SOL    HW252614   4.159   7.467   6.238 -0.0641  0.2001 -0.0802
46879SOL     OW52615   9.607   9.175   0.302 -0.5911  0.4885  0.2033
46879SOL    HW152616   9.634   9.121   0.376 -0.0223  0.1294 -0.2631
46879SOL    HW252617   9.687   9.221   0.275 -0.5387 -0.1934 -0.8637
46880SOL     OW52618   5.006   7.422   9.489 -0.3511 -0.4121 -0.5669
46880SOL    HW152619   4.943   7.387   9.426 -1.6548  0.5746  0.1210
46880SOL    HW252620   4.999   7.363   9.565 -0.1834 -0.5195 -0.6369
46881SOL     OW52621   2.721   9.556   6.557 -0.2409 -0.2392 -0.2656
46881SOL    HW152622   2.665   9.595   6.625 -0.0309 -2.5073  1.3266
46881SOL    HW252623   2.796   9.614   6.551  0.2443 -0.4913  2.2720
46882SOL     OW52624   6.873  10.922   0.713 -0.1830 -0.5434 -0.0431
46882SOL    HW152625   6.830  10.936   0.798  1.0155  0.7301  0.3976
46882SOL    HW252626   6.891  11.010   0.681 -1.0559 -0.9939 -1.8897
46883SOL     OW52627   8.525   3.636   6.197  0.1992 -0.2630  0.0494
46883SOL    HW152628   8.437   3.603   6.181 -0.5832  1.4940  0.4859
46883SOL    HW252629   8.541   3.699   6.127  1.0467 -0.4333  0.0757
46884SOL     OW52630  10.719   2.793  11.524 -0.2423 -0.3140 -0.0661
46884SOL    HW152631  10.664   2.767  11.451 -1.8076 -1.8344  1.5476
46884SOL    HW252632  10.780   2.857  11.487 -0.0037 -2.0591 -2.9979
46885SOL     OW52633   5.123  13.618  11.149 -0.5306 -0.6662  0.5051
46885SOL    HW152634   5.062  13.551  11.181  1.1802 -0.9136  3.7138
46885SOL    HW252635   5.196  13.568  11.112  0.5701 -0.7094  2.5563
46886SOL     OW52636   7.092   3.783  14.007  0.0647 -0.6142 -0.1579
46886SOL    HW152637   7.144   3.860  14.030 -0.6463 -0.4580  1.0859
46886SOL    HW252638   7.154   3.722  13.968  0.6981  0.4696 -0.9072
46887SOL     OW52639   0.599  11.812  11.834  0.0619  0.1031  0.4029
46887SOL    HW152640   0.693  11.798  11.819 -0.0929 -1.6655  0.9190
46887SOL    HW252641   0.593  11.828  11.928 -0.3176 -1.4617  0.6614
46888SOL     OW52642   6.804   0.468   9.595  0.3224 -0.2162 -0.3016
46888SOL    HW152643   6.889   0.461   9.638  0.5768  0.2287 -0.7223
46888SOL    HW252644   6.754   0.530   9.649  0.0870 -0.8482  0.2176
46889SOL     OW52645   2.691   6.576  10.092  0.3363 -0.8180  0.8460
46889SOL    HW152646   2.741   6.554  10.170 -0.7240 -1.7384  1.2983
46889SOL    HW252647   2.678   6.670  10.097 -0.5816 -0.9895  2.3368
46890SOL     OW52648   6.121   6.195  11.726  0.3256 -0.4710  0.5089
46890SOL    HW152649   6.167   6.202  11.642  0.3694  0.1448  0.5806
46890SOL    HW252650   6.131   6.104  11.751 -0.0179 -0.7601 -0.3457
46891SOL     OW52651  13.511   5.622   1.975 -0.2980  0.3508 -0.3363
46891SOL    HW152652  13.448   5.694   1.966 -1.2990 -0.3410  0.8592
46891SOL    HW252653  13.458   5.547   2.004  1.4171  0.5153  3.9218
46892SOL     OW52654   2.132   6.811   1.618  0.1439 -0.3186 -0.9647
46892SOL    HW152655   2.057   6.760   1.649 -0.8070  0.8892 -1.1684
46892SOL    HW252656   2.100   6.856   1.540  0.9807  0.4808 -0.8640
46893SOL     OW52657   6.840   4.823   3.132  0.4344 -0.2545 -0.1755
46893SOL    HW152658   6.910   4.881   3.104 -0.3869  0.2144 -1.3264
46893SOL    HW252659   6.880   4.735   3.130  1.9973  0.2443  2.5854
46894SOL     OW52660  12.483   0.051  13.568  0.1254 -0.5709  0.3622
46894SOL    HW152661  12.516   0.139  13.547  0.9118 -0.4500  1.9148
46894SOL    HW252662  12.560   0.004  13.599 -0.4988 -1.4631  0.5921
46895SOL     OW52663   0.016  10.890   9.883  0.1615  0.5423 -0.9201
46895SOL    HW152664  -0.060  10.947   9.876  1.8785  2.9785 -0.7223
46895SOL    HW252665   0.088  10.940   9.844  2.2053 -0.5887  1.1484
46896SOL     OW52666   4.016  13.067   6.530  0.1253  0.2937 -0.0490
46896SOL    HW152667   4.035  13.157   6.501  0.6061  0.4336  0.6861
46896SOL    HW252668   4.072  13.012   6.475  0.7804  0.5367  0.3644
46897SOL     OW52669   3.475   5.939   2.845  0.2100 -0.0552  0.2549
46897SOL    HW152670   3.486   5.948   2.750 -0.2765 -0.4726  0.1507
46897SOL    HW252671   3.496   6.025   2.880 -0.7852  0.4442 -0.3420
46898SOL     OW52672   2.647   0.352  13.982  0.4927  0.0267  0.1460
46898SOL    HW152673   2.718   0.317  13.929 -0.2562 -1.6599  0.2099
46898SOL    HW252674   2.676   0.338  14.072  0.1422 -0.5344  0.1724
46899SOL     OW52675   8.295   4.971  11.759  0.2131  0.0145  0.0970
46899SOL    HW152676   8.271   5.009  11.675  1.3599  1.8887  0.5702
46899SOL    HW252677   8.258   5.030  11.824 -1.5090 -1.9361  0.9932
46900SOL     OW52678   6.836   0.303  11.021  0.0533 -0.0919 -0.2894
46900SOL    HW152679   6.895   0.228  11.031  0.0684 -0.2510 -1.4005
46900SOL    HW252680   6.845   0.352  11.102 -1.8682 -2.6316  1.6345
46901SOL     OW52681   9.821  11.623  13.456 -0.1162  0.3032  0.1453
46901SOL    HW152682   9.908  11.585  13.471  0.0058  0.3908 -0.3122
46901SOL    HW252683   9.774  11.610  13.538 -0.4498 -1.8233 -0.3351
46902SOL     OW52684   0.128   5.214   3.605  0.2020 -0.0349  0.1275
46902SOL    HW152685   0.047   5.256   3.633 -0.2529 -0.3132 -0.7421
46902SOL    HW252686   0.106   5.121   3.598  0.9103 -0.2881  0.9818
46903SOL     OW52687  11.531  12.717   9.071 -0.0054 -0.3072  0.6884
46903SOL    HW152688  11.519  12.733   8.977 -0.1636 -1.3633  0.5232
46903SOL    HW252689  11.542  12.805   9.108  1.6118  0.0655 -0.5247
46904SOL     OW52690   1.827   6.277  12.089 -0.0482  0.4046  0.5511
46904SOL    HW152691   1.899   6.223  12.123  0.0285 -0.3142 -0.6905
46904SOL    HW252692   1.842   6.280  11.995 -1.5670  0.3702  0.2884
46905SOL     OW52693  13.828   9.059   0.340 -0.2913  0.4647  0.0721
46905SOL    HW152694  13.782   9.051   0.423  0.3330  0.1573  0.3912
46905SOL    HW252695  13.790   8.989   0.285  1.7261 -1.7263  1.2664
46906SOL     OW52696   3.258   7.831   9.587 -0.4909  0.4904  0.0314
46906SOL    HW152697   3.215   7.817   9.503  1.7518  0.3391 -1.1735
46906SOL    HW252698   3.327   7.764   9.590 -0.4652  0.5432  1.9653
46907SOL     OW52699   6.362  13.562   9.199 -0.0663  0.7239  0.1006
46907SOL    HW152700   6.355  13.548   9.293  0.3135  0.8955  0.1584
46907SOL    HW252701   6.443  13.612   9.189  0.8886 -0.8678 -0.4755
46908SOL     OW52702  13.310  10.954   9.752 -0.5530  0.3587 -0.3034
46908SOL    HW152703  13.383  10.952   9.690 -0.4257 -1.0979 -0.1461
46908SOL    HW252704  13.350  10.937   9.837 -0.6677  2.7614  0.2994
46909SOL     OW52705   1.967   2.703   9.517  0.1103 -0.2543  0.2273
46909SOL    HW152706   2.032   2.771   9.535  1.8367 -2.1824  1.7293
46909SOL    HW252707   1.941   2.719   9.427  0.7475  2.1242  0.3853
46910SOL     OW52708  12.268   7.719   5.159  0.2445  0.8977  0.0579
46910SOL    HW152709  12.360   7.693   5.170 -0.8640 -3.9308 -0.1656
46910SOL    HW252710  12.246   7.764   5.240  2.0700 -0.5584  1.4460
46911SOL     OW52711   4.284   7.608  13.510 -0.4237  0.8492 -1.0658
46911SOL    HW152712   4.306   7.547  13.440 -1.9969  0.2315 -1.0473
46911SOL    HW252713   4.361   7.606  13.568 -0.2757 -0.8262 -1.2654
46912SOL     OW52714   0.594   9.208  12.943  0.6172  0.1832  0.5284
46912SOL    HW152715   0.499   9.220  12.942  0.3332 -1.4645 -1.5026
46912SOL    HW252716   0.628   9.282  12.893  0.1639 -0.3007 -0.5412
46913SOL     OW52717   0.643   6.052   1.168 -0.1001 -0.3270 -0.1904
46913SOL    HW152718   0.629   5.995   1.093  0.7378  1.3949 -1.7103
46913SOL    HW252719   0.559   6.053   1.214 -0.0308 -3.0707  0.1578
46914SOL     OW52720  11.070   4.296  11.904  0.1342 -0.3941 -0.3952
46914SOL    HW152721  11.086   4.246  11.824 -0.4331 -0.3648 -0.5322
46914SOL    HW252722  10.982   4.270  11.931 -0.2085  0.6010 -0.5238
46915SOL     OW52723   1.949  12.452   9.213  0.2995  0.1980  0.4486
46915SOL    HW152724   2.018  12.477   9.275  1.4747 -0.8495 -0.3893
46915SOL    HW252725   1.897  12.531   9.203  0.3375  0.5334  2.4097
46916SOL     OW52726   8.352  13.958  11.821  0.2672  0.2706  0.2336
46916SOL    HW152727   8.381  14.044  11.790  0.0423  0.2332 -0.0933
46916SOL    HW252728   8.256  13.964  11.819  0.2546  0.2177  0.7935
46917SOL     OW52729   1.753   0.486   7.856  0.0432  0.1699  0.8680
46917SOL    HW152730   1.694   0.544   7.809  0.7458 -1.0294 -1.6464
46917SOL    HW252731   1.841   0.512   7.827  0.4404 -1.1686  0.7967
46918SOL     OW52732   9.513   0.173  10.309 -0.0386  0.5338  0.7360
46918SOL    HW152733   9.475   0.147  10.392 -1.1389  1.0808  0.4206
46918SOL    HW252734   9.567   0.098  10.282  1.6258  0.9495  2.6823
46919SOL     OW52735  13.179  12.646   1.095 -0.2295 -0.5820 -0.2118
46919SOL    HW152736  13.123  12.705   1.045 -0.8797 -0.6827  0.3788
46919SOL    HW252737  13.267  12.679   1.082 -0.7068  1.4693  1.3315
46920SOL     OW52738   3.190  13.327  13.590 -0.1568  0.1133  0.1656
46920SOL    HW152739   3.198  13.339  13.495 -1.9105 -0.7535 -0.1324
46920SOL    HW252740   3.098  13.349  13.609  0.1422  0.1705  1.6583
46921SOL     OW52741   7.518   9.004  13.645  0.3289 -0.6476  0.4226
46921SOL    HW152742   7.464   9.001  13.724  1.5124 -1.6202  1.2426
46921SOL    HW252743   7.583   9.072  13.663 -0.9083  0.9492 -0.8029
46922SOL     OW52744  10.375   1.564  11.741 -0.6449 -0.0523 -0.0729
46922SOL    HW152745  10.381   1.469  11.734  0.0588  0.0504 -1.3291
46922SOL    HW252746  10.362   1.593  11.650 -0.7370  1.0468  0.2814
46923SOL     OW52747  12.396   5.335   3.986  0.1798 -0.3865 -0.2557
46923SOL    HW152748  12.465   5.281   3.949  0.6344 -0.1550  0.2462
46923SOL    HW252749  12.437   5.421   4.001  0.0240 -0.4833  0.8074
46924SOL     OW52750  13.615   9.865   5.517 -0.4440 -0.6055 -0.1215
46924SOL    HW152751  13.634   9.927   5.446 -0.9808 -0.6196 -0.2811
46924SOL    HW252752  13.642   9.912   5.596 -1.9997  0.3545 -0.1217
46925SOL     OW52753  12.353  12.570   7.056  0.0349  0.0779  0.0263
46925SOL    HW152754  12.335  12.664   7.066  2.8982  0.6581  0.7432
46925SOL    HW252755  12.386  12.542   7.141 -1.2401 -1.7574 -0.0284
46926SOL     OW52756   3.850   6.156   4.684 -0.1450  0.1236 -0.1373
46926SOL    HW152757   3.833   6.180   4.593 -0.0451 -1.8361 -0.7062
46926SOL    HW252758   3.788   6.085   4.703 -1.7819  1.9767  2.0971
46927SOL     OW52759   1.548   6.981   6.028 -0.0500 -0.4845 -0.2290
46927SOL    HW152760   1.545   7.025   5.943  0.7405 -0.3951 -0.2223
46927SOL    HW252761   1.500   7.039   6.087  1.4461  0.6806 -0.0965
46928SOL     OW52762  11.070   1.251  13.442  0.0430  0.1191  0.1193
46928SOL    HW152763  10.979   1.225  13.459  0.0016 -0.7386 -1.2266
46928SOL    HW252764  11.081   1.236  13.348  1.5464  0.3383  0.2452
46929SOL     OW52765   4.795   9.756   9.948 -0.0675 -0.1324 -0.1272
46929SOL    HW152766   4.828   9.673   9.983 -1.0439 -0.4908 -0.0504
46929SOL    HW252767   4.755   9.733   9.865  0.4888  0.4181 -0.5599
46930SOL     OW52768  10.906  10.847   7.202  0.7695 -0.0290 -0.3962
46930SOL    HW152769  10.940  10.812   7.284 -2.5051 -0.9037  0.7678
46930SOL    HW252770  10.858  10.926   7.229 -1.7829 -1.2391 -1.0694
46931SOL     OW52771  10.628   1.593   3.226 -0.2771 -0.0062 -1.0845
46931SOL    HW152772  10.604   1.553   3.310 -0.9339  0.0183 -1.2535
46931SOL    HW252773  10.548   1.586   3.174 -0.0078  0.3983 -1.5474
46932SOL     OW52774   8.313   5.211  11.448  0.5868 -0.3204  0.9401
46932SOL    HW152775   8.323   5.258  11.531 -0.4895 -0.0211  0.9186
46932SOL    HW252776   8.374   5.138  11.454 -0.9676 -1.5589  2.9306
46933SOL     OW52777  10.278  13.242  12.472  0.0817 -0.0053 -0.3395
46933SOL    HW152778  10.299  13.317  12.527 -1.2557 -0.2932  0.6116
46933SOL    HW252779  10.182  13.239  12.471  0.0940 -0.4641 -2.0821
46934SOL     OW52780   9.608  11.818   6.991  0.2917  0.1705  0.0265
46934SOL    HW152781   9.573  11.866   7.067 -0.7047 -0.6478  0.1105
46934SOL    HW252782   9.536  11.818   6.928  0.2412 -1.2157  0.0407
46935SOL     OW52783   4.314  12.506  10.246 -0.3262 -0.0357 -0.2123
46935SOL    HW152784   4.282  12.550  10.325  0.5143  0.2652 -0.0394
46935SOL    HW252785   4.288  12.415  10.257 -0.8610  0.1469  0.0650
46936SOL     OW52786   4.416   5.606  13.887 -0.7860 -0.0280  0.0356
46936SOL    HW152787   4.376   5.550  13.821  0.4453  0.4989 -1.2140
46936SOL    HW252788   4.507   5.576  13.891 -0.8123  0.0218  1.4405
46937SOL     OW52789  13.963   0.641  13.387  0.2963 -0.2260  0.7201
46937SOL    HW152790  13.949   0.673  13.476 -1.0074 -1.2632  0.9266
46937SOL    HW252791  14.029   0.573  13.396  2.7104  1.8851  0.3486
46938SOL     OW52792  10.844   1.955   6.499 -0.7466  0.0299  0.2426
46938SOL    HW152793  10.766   1.988   6.543 -0.1617  0.0147  1.3240
46938SOL    HW252794  10.900   2.031   6.488 -1.5032  0.3308 -1.8902
46939SOL     OW52795   4.969   1.053   5.727  0.1919  0.0420  0.3435
46939SOL    HW152796   4.996   1.097   5.808 -0.9942  0.6802  0.4216
46939SOL    HW252797   5.000   1.111   5.658 -2.5218  1.8149  0.4707
46940SOL     OW52798   8.702   1.925   7.451 -0.2392  0.4966 -0.4096
46940SOL    HW152799   8.673   1.924   7.542  1.4200 -0.1579  0.1433
46940SOL    HW252800   8.644   1.988   7.408 -2.7543 -1.0101  0.4978
46941SOL     OW52801   8.957  13.268   3.985  0.2484  0.0220  0.7253
46941SOL    HW152802   8.921  13.190   4.028 -1.2895  0.0917 -0.3571
46941SOL    HW252803   8.983  13.326   4.057 -1.8446 -0.0408  1.5840
46942SOL     OW52804   4.744   1.413   9.377  0.4326  0.0166  0.3436
46942SOL    HW152805   4.764   1.420   9.284 -1.3003 -0.8034 -0.1382
46942SOL    HW252806   4.774   1.496   9.415  1.0220  0.4176 -0.9573
46943SOL     OW52807  11.856   7.574  11.622 -0.2375 -0.1537 -0.0285
46943SOL    HW152808  11.846   7.669  11.622 -0.0988 -0.1385  0.3109
46943SOL    HW252809  11.943   7.560  11.586 -1.0593 -0.2456 -2.0869
46944SOL     OW52810   6.089   4.250   5.114 -0.1094 -0.4532 -0.0549
46944SOL    HW152811   6.039   4.323   5.149 -0.4768  0.7219 -2.7771
46944SOL    HW252812   6.036   4.218   5.041  2.4711  0.0962 -2.3344
46945SOL     OW52813  13.060  14.041   8.231 -0.3316  0.4469 -0.2781
46945SOL    HW152814  13.010  14.116   8.199  2.0139  1.7911 -1.0878
46945SOL    HW252815  13.052  13.976   8.162 -3.0763 -0.4916  0.7947
46946SOL     OW52816   6.323   2.287   9.889 -0.1072 -0.0911  0.1011
46946SOL    HW152817   6.276   2.205   9.903 -1.2110  0.6322  0.7012
46946SOL    HW252818   6.319   2.301   9.794 -1.4327  0.1533  0.1853
46947SOL     OW52819   3.097   0.712   2.672 -0.5742  0.4650 -0.1662
46947SOL    HW152820   3.087   0.740   2.763  1.4487  0.9027 -0.0257
46947SOL    HW252821   3.025   0.651   2.658 -0.7937  0.1855  1.8181
46948SOL     OW52822  10.517   0.442  13.119  0.0062  0.0176  0.2939
46948SOL    HW152823  10.431   0.401  13.131 -0.5698  1.1305  0.0720
46948SOL    HW252824  10.501   0.514  13.058  1.3121 -0.4255 -0.6217
46949SOL     OW52825  11.137   1.189   7.560  0.0709 -0.1686 -0.0779
46949SOL    HW152826  11.217   1.138   7.573  0.4184  0.8778  2.4282
46949SOL    HW252827  11.168   1.280   7.550 -0.7007 -0.0402 -1.7226
46950SOL     OW52828  13.295   6.841   0.297 -0.9954 -0.9577 -0.3898
46950SOL    HW152829  13.258   6.753   0.308 -1.1348 -0.8810 -0.2548
46950SOL    HW252830  13.262   6.891   0.371  1.7544 -1.6599  1.4689
46951SOL     OW52831  10.600  12.888  11.525  0.4149 -0.4681 -0.0287
46951SOL    HW152832  10.553  12.840  11.457  0.5023  0.0491 -0.4600
46951SOL    HW252833  10.624  12.821  11.589 -0.3483 -0.8349 -0.1155
46952SOL     OW52834  12.344   6.309   6.700 -0.2212  0.0243  0.2314
46952SOL    HW152835  12.429   6.267   6.699 -0.3126 -0.1588 -0.4481
46952SOL    HW252836  12.295   6.264   6.769 -0.6009 -1.5874 -1.0208
46953SOL     OW52837   1.011   1.678  12.275 -0.0795  0.5536  0.3067
46953SOL    HW152838   0.975   1.591  12.261  1.4507  0.1183 -1.1088
46953SOL    HW252839   1.069   1.669  12.351  1.0557  0.0136 -0.6030
46954SOL     OW52840   9.215   1.806   7.293 -0.4165  0.8836  0.6972
46954SOL    HW152841   9.135   1.852   7.319 -1.7687 -1.4699  0.9601
46954SOL    HW252842   9.212   1.804   7.198 -0.7484  0.6845  0.7111
46955SOL     OW52843   5.053   1.615   3.308 -0.1102  0.4682 -0.6879
46955SOL    HW152844   4.963   1.646   3.322 -0.2943  0.3524 -1.5850
46955SOL    HW252845   5.096   1.630   3.392 -1.5856 -1.6683  0.5469
46956SOL     OW52846  11.423   2.838   0.197 -0.3715 -0.2699 -0.0064
46956SOL    HW152847  11.372   2.834   0.116  0.8314  0.4776 -0.8456
46956SOL    HW252848  11.446   2.931   0.205  1.2377 -0.6461  0.0706
46957SOL     OW52849  10.408   2.271   9.758 -0.1352 -0.1202  0.5045
46957SOL    HW152850  10.446   2.192   9.721 -2.9874 -1.9690  1.2378
46957SOL    HW252851  10.340   2.297   9.696  1.6100  2.6718 -0.4361
46958SOL     OW52852   3.928  11.046   5.225 -0.0362  0.1208  0.0524
46958SOL    HW152853   3.835  11.063   5.209 -0.2339 -1.5154 -0.8216
46958SOL    HW252854   3.970  11.055   5.139  0.0841 -1.9552 -0.1637
46959SOL     OW52855   9.598   4.128   1.802  0.4053  0.1851  0.6668
46959SOL    HW152856   9.624   4.149   1.892 -1.5896 -0.2855  1.4178
46959SOL    HW252857   9.679   4.102   1.758  1.7017  1.9814  1.8472
46960SOL     OW52858   0.442   0.649  13.201 -0.1934  0.6322 -0.0959
46960SOL    HW152859   0.534   0.661  13.180 -0.2708  2.1631  0.3259
46960SOL    HW252860   0.400   0.630  13.117  0.5748 -0.7097 -0.2018
46961SOL     OW52861   6.146  13.986  10.327 -0.3901  0.2604  0.3945
46961SOL    HW152862   6.157  14.054  10.394 -1.3526  1.8176 -0.9646
46961SOL    HW252863   6.198  13.912  10.360  1.6193  2.0100  1.3903
46962SOL     OW52864   1.923  12.340   4.625  0.2451 -0.4612 -0.0893
46962SOL    HW152865   1.959  12.342   4.713 -0.3548 -1.8478  0.2200
46962SOL    HW252866   1.989  12.292   4.574  0.9800  1.0433 -0.6181
46963SOL     OW52867   6.210   2.840   9.476  0.4006 -0.6167 -0.0639
46963SOL    HW152868   6.215   2.859   9.382 -1.3612  2.1824  0.3007
46963SOL    HW252869   6.123   2.869   9.502  1.2736 -0.1447  2.6607
46964SOL     OW52870  12.692   2.233   9.224 -0.2643 -0.4901 -0.4170
46964SOL    HW152871  12.627   2.296   9.192  0.0641  0.2859  0.3920
46964SOL    HW252872  12.745   2.212   9.148  1.0446  1.9613 -0.2675
46965SOL     OW52873  11.495   7.345   9.602 -0.0014  0.0465  0.3008
46965SOL    HW152874  11.402   7.342   9.626  0.1420 -0.2926  0.8461
46965SOL    HW252875  11.537   7.287   9.665  0.4309 -0.7227 -0.6786
46966SOL     OW52876  10.802   1.205   4.264 -0.0448  0.3858 -0.2669
46966SOL    HW152877  10.835   1.273   4.322 -0.5052  0.0997  0.3452
46966SOL    HW252878  10.764   1.140   4.323 -1.1037  0.3964 -0.9161
46967SOL     OW52879   5.573   7.579  12.670  0.3024  0.1967 -0.0206
46967SOL    HW152880   5.535   7.525  12.601 -1.1367  2.6634 -1.2944
46967SOL    HW252881   5.646   7.625  12.628  0.1779  0.8378  0.4477
46968SOL     OW52882   3.775   9.762   3.366 -0.1725  0.4383  0.1653
46968SOL    HW152883   3.852   9.712   3.395  0.5900  0.7444 -1.2063
46968SOL    HW252884   3.702   9.725   3.416  0.9329  0.5365  1.9335
46969SOL     OW52885   4.359   2.823   0.738  0.2170 -0.5438  0.0582
46969SOL    HW152886   4.353   2.789   0.648  1.4134 -1.7042  0.3847
46969SOL    HW252887   4.359   2.745   0.793  0.1995  0.1273  1.0340
46970SOL     OW52888  12.836  13.954   1.109  0.1046  0.1004 -0.0028
46970SOL    HW152889  12.869  13.877   1.155  2.1823  1.4640  0.9184
46970SOL    HW252890  12.781  13.919   1.039 -0.0959 -2.1475  1.2150
46971SOL     OW52891   2.873  12.952   9.617  0.6117  0.2766 -0.5254
46971SOL    HW152892   2.787  12.963   9.657  0.9301 -1.4268  0.7513
46971SOL    HW252893   2.871  12.864   9.580  1.5128  0.5558 -1.2714
46972SOL     OW52894   9.938   6.461   5.585  0.6147 -0.0732 -0.3660
46972SOL    HW152895   9.965   6.379   5.626 -0.7994  0.0192  0.8540
46972SOL    HW252896   9.888   6.434   5.507  2.0693 -0.2888 -1.2485
46973SOL     OW52897   7.107   3.046   3.591 -0.1016 -0.2878  0.9947
46973SOL    HW152898   7.075   2.972   3.643  1.0014  0.3072  2.6148
46973SOL    HW252899   7.158   3.099   3.653  1.8483  0.1352 -0.8250
46974SOL     OW52900  10.836   9.611   6.277  0.0728 -0.3311 -0.4172
46974SOL    HW152901  10.841   9.536   6.218 -0.4947 -0.2862 -0.5330
46974SOL    HW252902  10.927   9.632   6.298  0.2527 -0.7268 -0.7929
46975SOL     OW52903   1.117   6.002  11.104 -0.3291  0.0528  0.1982
46975SOL    HW152904   1.142   6.024  11.194 -3.1537 -0.6631  1.2713
46975SOL    HW252905   1.195   5.962  11.066  1.1643  1.0249  2.0805
46976SOL     OW52906   8.086   9.437  11.770 -0.1384  0.7440 -0.6212
46976SOL    HW152907   8.129   9.382  11.836 -0.7979  0.0058 -0.7931
46976SOL    HW252908   8.068   9.519  11.815 -1.3657 -0.0577  0.3979
46977SOL     OW52909  13.140   5.683   0.204 -1.0594  0.0486 -0.2171
46977SOL    HW152910  13.172   5.594   0.217 -2.6232 -0.3389  1.4383
46977SOL    HW252911  13.198   5.737   0.257  0.1552  0.1066 -1.5603
46978SOL     OW52912   9.339  12.391   3.089  0.4855 -0.8064 -0.3224
46978SOL    HW152913   9.433  12.404   3.098  0.2087  1.6808 -0.3687
46978SOL    HW252914   9.308  12.376   3.179  0.7462 -0.1735 -0.1235
46979SOL     OW52915   9.365   2.142  12.416  0.3993 -0.2404 -0.5118
46979SOL    HW152916   9.340   2.191  12.495  0.1295 -0.4177 -0.4858
46979SOL    HW252917   9.379   2.210  12.350  1.5516 -0.0312 -0.0701
46980SOL     OW52918  10.348   2.939   0.991  0.2295  0.3605 -0.4049
46980SOL    HW152919  10.259   2.970   0.971 -0.0383 -0.3407 -0.3549
46980SOL    HW252920  10.379   2.902   0.909  0.9074  1.5639 -0.7142
46981SOL     OW52921   9.474   4.434  12.669  0.0432 -0.3521 -0.0622
46981SOL    HW152922   9.517   4.403  12.590  1.2770  0.2933  0.3254
46981SOL    HW252923   9.381   4.427  12.651  0.2984  0.4345 -1.8333
46982SOL     OW52924   0.479   7.332   1.288 -0.1486  0.0967 -0.5279
46982SOL    HW152925   0.398   7.281   1.282  0.9931 -1.6862 -1.4553
46982SOL    HW252926   0.544   7.271   1.321  0.7191  1.6916  0.8984
46983SOL     OW52927   1.349   2.871   2.616 -0.4211 -0.1082 -0.0266
46983SOL    HW152928   1.314   2.940   2.560  0.5543  1.2483  0.9593
46983SOL    HW252929   1.444   2.882   2.612 -0.2406 -1.4403  0.1105
46984SOL     OW52930  10.642   4.465   7.315 -0.6790  0.6430  0.2418
46984SOL    HW152931  10.584   4.419   7.375 -1.2788  0.5170 -0.4210
46984SOL    HW252932  10.653   4.552   7.354  2.2247 -0.6298  2.6878
46985SOL     OW52933   6.486   6.371  10.897  0.1818  0.0795  0.2000
46985SOL    HW152934   6.497   6.282  10.928 -1.1988  0.3465  1.5518
46985SOL    HW252935   6.421   6.410  10.956  0.0605  1.6918 -0.9189
46986SOL     OW52936  10.455   1.202   2.099 -0.2752  0.0480 -0.0811
46986SOL    HW152937  10.546   1.193   2.072 -0.2002 -0.2315  0.2686
46986SOL    HW252938  10.426   1.113   2.117 -0.4382  0.1990  0.3964
46987SOL     OW52939  12.548   2.748  14.031 -0.1461  0.0110  0.7073
46987SOL    HW152940  12.465   2.703  14.011 -0.1397  0.5037 -0.5231
46987SOL    HW252941  12.604   2.679  14.066 -0.7361 -0.5577  0.5747
46988SOL     OW52942   7.362  12.035   5.702 -0.0513 -0.1320  0.0172
46988SOL    HW152943   7.305  11.959   5.717 -0.2043  0.0073  0.1572
46988SOL    HW252944   7.420  12.008   5.632 -1.4091  0.3286 -1.3362
46989SOL     OW52945   1.689   1.538   5.066  0.7686 -0.2445  0.5339
46989SOL    HW152946   1.630   1.462   5.064 -1.3069  1.2962 -0.3149
46989SOL    HW252947   1.738   1.533   4.984 -1.8380  1.0821 -1.2308
46990SOL     OW52948  13.021   7.139  10.269 -0.1242 -0.2152 -0.3890
46990SOL    HW152949  12.969   7.072  10.315 -1.2357  0.1720 -1.0324
46990SOL    HW252950  12.968   7.160  10.192  1.1709 -0.0367 -1.2451
46991SOL     OW52951   7.154   4.325  10.223  0.0401 -0.0381  0.2008
46991SOL    HW152952   7.206   4.402  10.245  1.3297 -0.4034 -1.3128
46991SOL    HW252953   7.202   4.252  10.261  1.0112 -0.4296 -1.6215
46992SOL     OW52954   3.305  12.571   3.830 -0.7691 -0.4109 -0.0088
46992SOL    HW152955   3.211  12.569   3.845 -0.7648  1.3450  0.4515
46992SOL    HW252956   3.343  12.573   3.918 -0.2710 -1.3361 -0.1857
46993SOL     OW52957   7.895   5.365   1.724 -0.3673  0.0685  0.4497
46993SOL    HW152958   7.899   5.354   1.819  0.3628 -2.4271  0.2062
46993SOL    HW252959   7.983   5.394   1.699 -1.1210  2.8840  0.6463
46994SOL     OW52960   0.234   6.227  13.018 -0.2477  0.7806 -0.4100
46994SOL    HW152961   0.310   6.194  12.972  0.5074 -2.9398  2.9772
46994SOL    HW252962   0.164   6.165  12.998 -0.6689  0.7334  1.0741
46995SOL     OW52963  12.534   9.408   6.492 -0.3408 -0.0283  0.3969
46995SOL    HW152964  12.473   9.424   6.565 -2.3941 -1.5498 -0.8808
46995SOL    HW252965  12.563   9.495   6.465 -0.7483  0.6503  2.0221
46996SOL     OW52966  11.861   6.814  10.963  0.6082 -0.0515  0.1142
46996SOL    HW152967  11.814   6.809  11.046  0.9085  0.5441  0.3221
46996SOL    HW252968  11.858   6.724  10.928 -0.6378 -0.0474  0.1446
46997SOL     OW52969   6.295   8.683   0.865 -0.7233  0.4204  0.1850
46997SOL    HW152970   6.382   8.648   0.880 -0.2354  1.5057 -0.0378
46997SOL    HW252971   6.278   8.741   0.939 -0.9891  0.6985 -0.0838
46998SOL     OW52972   4.757   9.308   3.242  0.0358 -0.3439 -0.5787
46998SOL    HW152973   4.820   9.247   3.281 -1.3029 -0.4807  1.4938
46998SOL    HW252974   4.799   9.394   3.251  0.0010 -0.4368  0.7813
46999SOL     OW52975   9.391   6.887  12.656  0.2950 -0.2088  0.1579
46999SOL    HW152976   9.375   6.969  12.609 -0.7396 -0.1010  0.6877
46999SOL    HW252977   9.437   6.832  12.592 -1.5125 -0.2478 -1.1795
47000SOL     OW52978   0.778   2.875   5.459  0.1266 -0.1251 -0.4548
47000SOL    HW152979   0.701   2.893   5.513 -0.8090 -2.0741 -1.0214
47000SOL    HW252980   0.754   2.905   5.372  0.4942  0.3617 -0.3927
47001SOL     OW52981   1.362   8.760  10.851 -0.2151 -0.4764  0.1713
47001SOL    HW152982   1.448   8.759  10.808  0.6467  0.6915  1.7390
47001SOL    HW252983   1.302   8.794  10.785  0.6458 -0.7138 -0.7581
47002SOL     OW52984   1.775  11.933   5.240 -0.3409  0.5011 -0.1928
47002SOL    HW152985   1.703  11.902   5.185 -1.0181  1.1020  0.3376
47002SOL    HW252986   1.777  12.028   5.227  0.5356  0.4641 -0.4076
47003SOL     OW52987   1.795   6.675   8.066 -0.0551 -0.0081  0.5931
47003SOL    HW152988   1.717   6.726   8.087  0.1586  0.5122  0.1498
47003SOL    HW252989   1.860   6.703   8.131 -0.5056 -1.1294  1.5577
47004SOL     OW52990  10.800  13.630   9.608  0.1852  0.0569 -0.1473
47004SOL    HW152991  10.885  13.595   9.582  0.8403  1.8423 -0.5461
47004SOL    HW252992  10.742  13.554   9.607  1.3521 -0.8915 -1.6951
47005SOL     OW52993   6.248  13.800  10.705  0.7084 -0.1622  0.2795
47005SOL    HW152994   6.304  13.774  10.778 -1.0763  1.0245  2.2074
47005SOL    HW252995   6.159  13.780  10.736 -0.0600 -0.3444 -1.9134
47006SOL     OW52996   1.990  13.063  12.052  1.2076  0.3741 -0.3326
47006SOL    HW152997   1.933  13.139  12.062  0.0187 -0.3130 -1.5907
47006SOL    HW252998   1.981  13.015  12.135  1.5753  1.3109  0.2685
47007SOL     OW52999  11.007   9.524   0.821 -0.5731  0.1087  0.1614
47007SOL    HW153000  10.958   9.488   0.895 -1.3037  0.3879 -0.1773
47007SOL    HW253001  10.954   9.503   0.744 -0.3790  0.8018 -0.1689
47008SOL     OW53002   6.894   3.605   9.523 -0.0205  0.1926  0.2962
47008SOL    HW153003   6.970   3.631   9.575  0.8681 -0.9771 -0.3615
47008SOL    HW253004   6.931   3.549   9.455 -1.6325 -1.3736  0.6677
47009SOL     OW53005  13.349   3.952  13.569 -0.4033  0.2716 -0.1492
47009SOL    HW153006  13.392   3.912  13.494  0.3368  2.8993 -1.2596
47009SOL    HW253007  13.265   3.984  13.534 -0.6005  0.4173  0.4522
47010SOL     OW53008  11.367   9.065   9.209  0.5524  0.1339 -0.4831
47010SOL    HW153009  11.403   9.104   9.289 -2.2308  0.3916  0.7538
47010SOL    HW253010  11.356   9.139   9.149 -0.2710  0.4823  0.0842
47011SOL     OW53011   2.059   9.991  11.688 -0.0070 -0.7881 -0.6688
47011SOL    HW153012   1.967  10.019  11.681  0.4660  1.1560  0.2706
47011SOL    HW253013   2.090   9.993  11.597 -0.1129  1.5848 -0.7283
47012SOL     OW53014   6.817   1.641   9.986 -0.3737 -0.1756 -0.1063
47012SOL    HW153015   6.812   1.726   9.942 -0.4724  0.0559  0.3422
47012SOL    HW253016   6.732   1.599   9.967  0.0136 -0.5584 -1.0730
47013SOL     OW53017   9.530   0.921   6.119 -0.1169 -0.3735  0.5139
47013SOL    HW153018   9.589   0.861   6.075  0.0789 -0.3421  0.7284
47013SOL    HW253019   9.452   0.923   6.064 -1.3579 -3.1013  1.9657
47014SOL     OW53020   7.332  12.224   5.114 -0.4306 -0.7397  0.0340
47014SOL    HW153021   7.369  12.158   5.173  0.0300 -2.5924 -2.1733
47014SOL    HW253022   7.319  12.177   5.031 -1.5504  1.5860 -1.1967
47015SOL     OW53023   2.233   2.787  10.974  0.1446  0.0423  0.0855
47015SOL    HW153024   2.168   2.821  11.035  0.0674 -0.6835  0.4052
47015SOL    HW253025   2.316   2.792  11.022  0.2077  0.2211 -0.0397
47016SOL     OW53026   3.291   3.941   5.529 -0.2617  0.0193  0.1735
47016SOL    HW153027   3.237   3.912   5.455  0.0938 -0.5748  0.1427
47016SOL    HW253028   3.350   4.006   5.492  1.9145 -2.3174 -0.7638
47017SOL     OW53029   6.459  10.322  11.279  0.1426  0.2335  0.1271
47017SOL    HW153030   6.515  10.345  11.205  1.1359  1.8646  1.3242
47017SOL    HW253031   6.485  10.382  11.348 -1.8623 -0.1871  1.3136
47018SOL     OW53032   7.995   1.852   2.899 -0.0881 -0.6542 -0.0772
47018SOL    HW153033   7.965   1.823   2.812 -1.0581  1.1177 -0.3819
47018SOL    HW253034   7.981   1.947   2.899 -0.6889 -0.6865  2.2617
47019SOL     OW53035   2.321   2.528   8.200 -0.1594  0.8765 -0.2797
47019SOL    HW153036   2.288   2.482   8.123 -0.4394  0.1954  0.2287
47019SOL    HW253037   2.411   2.550   8.178  0.3647 -0.9314 -0.1423
47020SOL     OW53038   3.399   6.441   3.624 -0.1939  0.4093  0.0846
47020SOL    HW153039   3.424   6.372   3.685 -0.9614 -0.4620 -0.5636
47020SOL    HW253040   3.367   6.395   3.546 -1.8813  1.4548  0.1052
47021SOL     OW53041  10.017   6.261   6.400 -0.0320  0.3772 -0.0610
47021SOL    HW153042  10.033   6.240   6.492  0.1691 -2.0025 -0.5690
47021SOL    HW253043   9.935   6.216   6.379 -0.5913  1.6981 -0.8180
47022SOL     OW53044  11.471   4.668   9.080 -0.1964  0.6712 -0.2460
47022SOL    HW153045  11.474   4.575   9.060  1.3143  0.9109 -1.2856
47022SOL    HW253046  11.425   4.674   9.164 -1.1428 -0.9087 -0.6164
47023SOL     OW53047   7.943   6.026  11.020 -0.0216 -0.2291  0.0368
47023SOL    HW153048   7.926   6.119  11.007 -0.3165 -0.1956  0.6500
47023SOL    HW253049   8.003   6.023  11.095  1.6905 -0.4142 -1.2899
47024SOL     OW53050   1.605  10.155   3.628 -0.3793 -0.2551  0.0652
47024SOL    HW153051   1.541  10.125   3.564 -1.7364  2.9914 -0.2816
47024SOL    HW253052   1.666  10.210   3.578  0.2554  0.0164  1.1000
47025SOL     OW53053   2.468   8.622   9.075 -0.5680  0.2179 -0.2059
47025SOL    HW153054   2.516   8.540   9.063  0.5349  1.0424 -1.6517
47025SOL    HW253055   2.441   8.620   9.167  1.4624 -0.7115  0.4270
47026SOL     OW53056   6.093  13.214  12.497  0.2148  0.5653  0.5165
47026SOL    HW153057   6.188  13.204  12.494  0.0848 -0.7258 -0.1578
47026SOL    HW253058   6.078  13.304  12.467  1.3381  1.9529  3.7261
47027SOL     OW53059   4.266   7.450   1.125  0.0050  0.2405 -0.1634
47027SOL    HW153060   4.269   7.427   1.032  0.5332 -0.0167 -0.0871
47027SOL    HW253061   4.308   7.536   1.131  1.8158 -0.6054  0.0802
47028SOL     OW53062  11.945   7.738   3.836  0.2072 -0.2475 -0.2640
47028SOL    HW153063  12.010   7.745   3.766 -0.2048  1.3134 -0.5419
47028SOL    HW253064  11.970   7.661   3.886  2.1262  0.1764 -0.5126
47029SOL     OW53065   1.671  10.487   5.295  0.0605 -0.0776 -0.8237
47029SOL    HW153066   1.688  10.404   5.250 -2.3473 -0.1084 -1.8286
47029SOL    HW253067   1.608  10.532   5.239 -0.0062  1.6641  0.5797
47030SOL     OW53068   6.921   6.888   0.933 -0.2754 -0.1960  0.6163
47030SOL    HW153069   7.008   6.856   0.956 -0.7343 -2.0095  0.0320
47030SOL    HW253070   6.864   6.855   1.003 -0.8583 -1.1995 -0.3051
47031SOL     OW53071   3.326   4.533   2.721  0.2165 -0.4828 -0.4526
47031SOL    HW153072   3.380   4.610   2.734  0.2872  0.1710 -3.7585
47031SOL    HW253073   3.363   4.467   2.780  3.3578  0.5240 -1.1336
47032SOL     OW53074  10.810  12.346  10.950  0.1846  0.3069 -0.5843
47032SOL    HW153075  10.813  12.422  10.892  0.4621 -0.2874 -1.3676
47032SOL    HW253076  10.847  12.275  10.898  0.5106 -0.2260  0.3602
47033SOL     OW53077   5.558   5.072   9.673  0.1416 -0.0885 -0.1728
47033SOL    HW153078   5.527   5.008   9.610 -0.0551 -1.3261  1.1368
47033SOL    HW253079   5.647   5.045   9.695 -0.5055 -0.9023  1.5880
47034SOL     OW53080  13.056   4.665   2.568 -0.0360 -0.2043 -0.1241
47034SOL    HW153081  12.973   4.641   2.526  1.0083 -1.2276 -1.7117
47034SOL    HW253082  13.106   4.710   2.500  1.1731 -0.6663  0.4259
47035SOL     OW53083  11.039   1.870   4.049 -0.6107  0.4358 -0.2790
47035SOL    HW153084  11.051   1.963   4.069 -1.3214  1.2263 -3.1957
47035SOL    HW253085  10.951   1.850   4.082 -0.0017  0.4107  1.4500
47036SOL     OW53086  10.369   1.470   6.355 -0.0783  0.1590 -1.3562
47036SOL    HW153087  10.431   1.537   6.325  0.4805  0.1356 -0.2985
47036SOL    HW253088  10.400   1.446   6.442 -0.9071 -0.7027 -1.2829
47037SOL     OW53089   3.047   2.231   8.411 -0.1919 -0.0650 -0.1134
47037SOL    HW153090   3.086   2.145   8.398  1.1111  0.5714 -0.5891
47037SOL    HW253091   3.048   2.243   8.506 -0.1862 -0.4873 -0.0566
47038SOL     OW53092   0.652   5.394   9.348 -0.3819  0.0820  0.4270
47038SOL    HW153093   0.689   5.467   9.298 -1.2927  0.7614  0.7011
47038SOL    HW253094   0.707   5.387   9.425  0.0570  0.1017  0.1192
47039SOL     OW53095   1.634   8.049   2.071  0.0822 -0.0842  0.2650
47039SOL    HW153096   1.597   8.024   2.156  0.6064 -1.6760  0.0761
47039SOL    HW253097   1.576   8.117   2.038 -1.2420 -0.7896  1.0507
47040SOL     OW53098   3.043   0.834   5.983 -0.5787  0.1376  0.3065
47040SOL    HW153099   3.005   0.846   6.070  0.3736  1.9420  0.5050
47040SOL    HW253100   2.984   0.771   5.941  0.0065 -2.3846  2.8869
47041SOL     OW53101  13.334   0.932   4.977  0.1759 -0.2846  0.1117
47041SOL    HW153102  13.356   1.014   5.022  0.2027  0.0188 -0.4435
47041SOL    HW253103  13.250   0.906   5.015  0.9158 -0.8419  1.4270
47042SOL     OW53104   4.473   2.081   3.769  0.2833 -0.1222 -0.4657
47042SOL    HW153105   4.446   2.171   3.788 -2.3196 -0.6083 -1.4390
47042SOL    HW253106   4.535   2.059   3.839 -1.6695  1.2712  1.8504
47043SOL     OW53107   8.060   1.529  13.555 -0.2424  0.0711  0.4979
47043SOL    HW153108   8.104   1.530  13.639 -1.2856 -0.0644  1.0641
47043SOL    HW253109   8.079   1.614  13.516  1.1533 -0.2821  0.3665
47044SOL     OW53110   9.952   5.623   5.171 -0.2662  0.3154 -0.8250
47044SOL    HW153111   9.894   5.667   5.109  0.5516 -1.1936 -2.7430
47044SOL    HW253112  10.007   5.567   5.117  1.5847  0.1257  1.1321
47045SOL     OW53113   1.225   4.765   7.667 -0.1069  0.1065  0.2582
47045SOL    HW153114   1.310   4.773   7.624  0.9310  1.9813  2.4537
47045SOL    HW253115   1.242   4.707   7.742 -0.1538  2.0777  1.8940
47046SOL     OW53116   3.792   3.798   6.734 -0.4101  0.3387  0.1870
47046SOL    HW153117   3.859   3.730   6.735 -1.1556 -0.4252 -0.9164
47046SOL    HW253118   3.837   3.875   6.698  0.6499  0.7345  2.1466
47047SOL     OW53119   3.798   5.825   9.506  0.4661 -0.3298 -0.8029
47047SOL    HW153120   3.864   5.831   9.575 -1.5629  0.4587  1.1639
47047SOL    HW253121   3.818   5.743   9.461  1.5717 -1.1191  1.0242
47048SOL     OW53122   4.445   5.727  11.448  0.0239 -0.0098  0.4832
47048SOL    HW153123   4.451   5.636  11.478 -0.6354 -0.8748 -1.8049
47048SOL    HW253124   4.456   5.722  11.353 -3.3234  1.8877 -0.1443
47049SOL     OW53125   9.249   6.447   3.750  0.0253  0.0730  0.0738
47049SOL    HW153126   9.157   6.456   3.725  0.5434 -0.8647 -2.4571
47049SOL    HW253127   9.288   6.533   3.731  0.3911 -0.5929 -2.5746
47050SOL     OW53128   1.769   7.029   0.774  0.1844  0.1409 -0.0304
47050SOL    HW153129   1.758   7.034   0.869  1.0040  0.3240  0.0638
47050SOL    HW253130   1.740   6.940   0.752 -0.6030  0.3072  0.2960
47051SOL     OW53131   5.278   9.543   6.614  0.2040 -0.2138 -0.1308
47051SOL    HW153132   5.233   9.469   6.654  0.2094 -0.1934 -0.0865
47051SOL    HW253133   5.370   9.516   6.609  0.2637 -0.0771  0.1982
47052SOL     OW53134   8.967  12.119  13.467 -0.4466 -0.1146  0.1361
47052SOL    HW153135   8.994  12.070  13.545  2.1357  1.8308  0.6174
47052SOL    HW253136   8.957  12.053  13.399  2.8014 -1.4152  0.7397
47053SOL     OW53137   4.422   8.204   4.268 -0.2234  0.3224  0.5781
47053SOL    HW153138   4.352   8.270   4.275 -1.6926 -1.0703 -0.2956
47053SOL    HW253139   4.394   8.133   4.325 -0.5506 -1.0809 -1.2476
47054SOL     OW53140  11.625   6.122   1.166  0.2589  0.0683  0.5323
47054SOL    HW153141  11.576   6.063   1.110  1.0476 -1.5558  1.4512
47054SOL    HW253142  11.614   6.209   1.127  1.5027 -1.0596 -2.6499
47055SOL     OW53143  11.595   1.459   9.064  0.2027  0.0676  0.1337
47055SOL    HW153144  11.658   1.531   9.070 -0.8498  1.0023  0.5005
47055SOL    HW253145  11.550   1.459   9.148  1.4632 -2.3074  0.8785
47056SOL     OW53146  11.315  13.523   9.591  0.1504 -0.1227 -0.5073
47056SOL    HW153147  11.332  13.592   9.655  0.0598 -0.2269 -0.3705
47056SOL    HW253148  11.320  13.441   9.641  2.5968 -0.4017 -1.0973
47057SOL     OW53149   0.419   6.386   1.915 -0.1217  0.2346 -0.1768
47057SOL    HW153150   0.354   6.401   1.984  0.3047 -0.0730  0.3005
47057SOL    HW253151   0.503   6.395   1.959  0.1737  1.1165 -0.8938
47058SOL     OW53152   2.279   1.091   9.273 -0.3509  0.5735 -0.2444
47058SOL    HW153153   2.235   1.006   9.270  0.7609 -0.0713  0.6930
47058SOL    HW253154   2.370   1.072   9.254 -0.2766  1.7435 -1.1714
47059SOL     OW53155   8.956   0.960  12.171  0.1063 -0.7373 -0.3671
47059SOL    HW153156   8.873   0.940  12.129 -0.6427  0.0133  0.6848
47059SOL    HW253157   8.949   1.053  12.195  0.5866 -1.0715  1.1650
47060SOL     OW53158   8.503   7.174   3.619 -0.0264  0.0379  0.2839
47060SOL    HW153159   8.533   7.250   3.668  0.7365  0.2465 -0.4865
47060SOL    HW253160   8.568   7.106   3.638 -0.0835 -0.0773  0.0735
47061SOL     OW53161  11.080   1.920   7.762  0.4160 -0.4632  0.1689
47061SOL    HW153162  11.145   1.853   7.740 -0.4866 -0.2090 -3.9451
47061SOL    HW253163  11.129   2.003   7.758  1.1686 -0.5804  3.7089
47062SOL     OW53164  10.768   9.574   0.980  0.4916  0.4578 -0.1279
47062SOL    HW153165  10.705   9.531   0.922 -0.2735 -0.7568  1.5008
47062SOL    HW253166  10.787   9.508   1.047  0.8325  1.9977  1.3529
47063SOL     OW53167   0.579   7.376   1.836  0.2114  0.0107  0.3513
47063SOL    HW153168   0.665   7.345   1.807 -0.4874 -0.4238 -1.3597
47063SOL    HW253169   0.563   7.455   1.784  0.0172  0.7003  1.4257
47064SOL     OW53170  11.353   0.981  13.800 -0.9090 -0.3328 -0.8370
47064SOL    HW153171  11.308   1.065  13.814 -0.3003  0.0699 -1.2527
47064SOL    HW253172  11.356   0.971  13.705 -0.3846 -0.4992 -0.8063
47065SOL     OW53173   3.420   1.175   6.391  0.2159 -0.2913 -0.1012
47065SOL    HW153174   3.425   1.240   6.321  0.0128 -0.6477 -0.4489
47065SOL    HW253175   3.349   1.117   6.365  0.2399 -0.5177  0.3263
47066SOL     OW53176   0.416  11.425   2.176  0.2130 -0.0134 -0.2590
47066SOL    HW153177   0.446  11.355   2.234 -2.6340  0.6293  2.2773
47066SOL    HW253178   0.334  11.391   2.138 -0.2185  1.2055 -0.4570
47067SOL     OW53179  11.903   7.266   8.951  0.0145  0.0915  0.7810
47067SOL    HW153180  11.937   7.311   9.028  0.1191  0.1579  0.6968
47067SOL    HW253181  11.815   7.301   8.940  0.7011  1.6188 -0.3162
47068SOL     OW53182   5.131   6.951   7.321 -0.2327  0.0896  0.0652
47068SOL    HW153183   5.111   7.002   7.400 -1.2676  1.0840 -0.8048
47068SOL    HW253184   5.161   6.866   7.354  0.3857  0.8529  1.5321
47069SOL     OW53185   8.717  11.450   0.401 -1.0939 -0.0584  0.3042
47069SOL    HW153186   8.780  11.383   0.428 -2.3695 -1.1298  0.7383
47069SOL    HW253187   8.771  11.522   0.368  0.5115  0.3755  3.4632
47070SOL     OW53188   0.368  10.017   1.932 -0.5508  0.2931  0.4512
47070SOL    HW153189   0.442  10.038   1.874 -0.1824 -2.5791 -0.2801
47070SOL    HW253190   0.400  10.036   2.020 -1.0219  4.5012 -0.0767
47071SOL     OW53191   9.364   6.576   0.951  0.4035  0.2420  0.0439
47071SOL    HW153192   9.349   6.666   0.921 -2.0341 -0.1289 -0.0468
47071SOL    HW253193   9.404   6.532   0.876 -3.4478 -0.0718 -2.0846
47072SOL     OW53194   9.333   8.484   2.720  0.2424 -0.5174 -0.5798
47072SOL    HW153195   9.390   8.561   2.725  2.0443 -1.8490  1.6997
47072SOL    HW253196   9.306   8.480   2.628  1.3554  1.9075 -1.0995
47073SOL     OW53197   9.142   0.212   6.076  0.0841  0.0863  0.2404
47073SOL    HW153198   9.099   0.282   6.124 -1.7334  0.3961 -1.6655
47073SOL    HW253199   9.178   0.256   5.999  0.9229 -0.7242  0.1656
47074SOL     OW53200   9.147   7.665   7.166 -0.1066  0.0197  0.5753
47074SOL    HW153201   9.207   7.616   7.222 -1.4569 -1.7667  0.5474
47074SOL    HW253202   9.183   7.657   7.078  0.5706  0.5286  0.7996
47075SOL     OW53203   5.427  10.180   6.064 -0.3678  0.0173 -0.3827
47075SOL    HW153204   5.394  10.269   6.059 -0.6643 -0.1731 -2.9304
47075SOL    HW253205   5.448  10.167   6.157 -0.1031  2.7758  0.0137
47076SOL     OW53206  11.116   7.348  10.400  0.0054 -0.0551 -0.3278
47076SOL    HW153207  11.061   7.424  10.419  0.8852  0.4628  0.2003
47076SOL    HW253208  11.201   7.370  10.438  0.9447 -0.3118 -2.1924
47077SOL     OW53209   6.014   2.896   7.012  0.3235 -0.2281 -0.1563
47077SOL    HW153210   6.063   2.974   7.035 -0.6649  0.1319  0.7894
47077SOL    HW253211   5.935   2.900   7.066 -1.3285 -0.1950 -2.4393
47078SOL     OW53212   3.910   4.844  13.922 -0.5102  0.0006  0.3091
47078SOL    HW153213   3.823   4.860  13.884 -0.5103  2.1053  1.0672
47078SOL    HW253214   3.936   4.929  13.958  2.4391 -0.2374 -1.0183
47079SOL     OW53215   7.587   9.635   0.444 -0.3183 -1.4449 -0.1010
47079SOL    HW153216   7.572   9.728   0.463  0.7055 -1.3900  0.5715
47079SOL    HW253217   7.653   9.636   0.374 -0.8536 -1.6746 -0.6189
47080SOL     OW53218   6.099   9.396   0.939 -0.1344 -0.0323 -0.1150
47080SOL    HW153219   6.101   9.333   0.867 -2.8896 -1.3421  0.8088
47080SOL    HW253220   6.024   9.453   0.919  0.2101  0.7595  0.7765
47081SOL     OW53221  13.004   1.441  12.598  0.0999  0.2314 -0.1701
47081SOL    HW153222  13.057   1.374  12.641  0.0729 -0.0046 -0.4971
47081SOL    HW253223  13.001   1.414  12.506 -1.8557 -0.6068  0.0819
47082SOL     OW53224   1.668  10.839  10.568  0.4422  0.6095 -0.1411
47082SOL    HW153225   1.592  10.848  10.624  0.2317 -1.1999 -0.0638
47082SOL    HW253226   1.732  10.792  10.622  0.7523  0.0867 -0.9422
47083SOL     OW53227   3.806   7.067  12.136  0.1880  0.4539  0.0996
47083SOL    HW153228   3.737   7.134  12.129  0.1468  0.3128 -0.9000
47083SOL    HW253229   3.886   7.117  12.153 -0.0622  0.6602  0.6919
47084SOL     OW53230  11.516  11.654   9.651 -0.0182 -0.1027  0.6681
47084SOL    HW153231  11.463  11.664   9.571 -0.7893  2.1490  1.4029
47084SOL    HW253232  11.577  11.727   9.648  0.6448 -0.6065  1.6420
47085SOL     OW53233  12.585  12.904  11.107 -0.3929  0.2639 -0.0408
47085SOL    HW153234  12.499  12.946  11.102 -0.0525  1.0990  0.7901
47085SOL    HW253235  12.605  12.880  11.016 -1.1441  0.8112 -0.3612
47086SOL     OW53236  14.044   2.289   3.682  0.0619  0.0441  0.5120
47086SOL    HW153237  14.038   2.195   3.696  1.5436 -0.7381 -2.9929
47086SOL    HW253238  14.101   2.321   3.752  0.4650 -1.8758  1.1005
47087SOL     OW53239   2.283   4.323   0.708 -0.1160  0.1149 -0.6721
47087SOL    HW153240   2.302   4.407   0.668 -0.3478  1.1417  1.2400
47087SOL    HW253241   2.268   4.264   0.634 -0.6266  1.8959 -2.0666
47088SOL     OW53242  10.498   1.103   7.142  0.1281 -0.1814  0.5359
47088SOL    HW153243  10.447   1.068   7.216  0.3109 -0.8713  0.3456
47088SOL    HW253244  10.561   1.034   7.122  0.3332  0.1623 -0.0194
47089SOL     OW53245   9.074   6.884   9.254 -0.2458 -0.0849 -0.2744
47089SOL    HW153246   9.147   6.882   9.316 -1.7675  1.1975  1.6984
47089SOL    HW253247   9.081   6.969   9.211 -0.3127 -0.1504 -0.4142
47090SOL     OW53248   9.936  11.352   3.658  0.2424  0.4372  0.5694
47090SOL    HW153249  10.023  11.347   3.698  0.3799  1.1064  0.3662
47090SOL    HW253250   9.909  11.443   3.671 -0.0252  0.4754 -0.1911
47091SOL     OW53251  10.301  13.869  10.477  0.2633 -0.4027 -0.3302
47091SOL    HW153252  10.303  13.948  10.532  0.4097 -0.9144  0.4035
47091SOL    HW253253  10.375  13.881  10.417  0.7343 -0.3259  0.2614
47092SOL     OW53254  10.971  10.979   3.529  0.2396 -0.1924 -0.1815
47092SOL    HW153255  11.056  10.983   3.574  0.6920 -2.9329 -0.6100
47092SOL    HW253256  10.907  10.976   3.599  0.5067  1.3215  0.1554
47093SOL     OW53257  10.765   7.727  10.663  0.0051  0.1276 -0.0868
47093SOL    HW153258  10.828   7.738  10.735  0.2795 -1.5217 -0.0374
47093SOL    HW253259  10.690   7.780  10.689  0.7274  0.8366  0.6329
47094SOL     OW53260   0.291  12.128  12.626 -0.3193 -0.2607 -0.6722
47094SOL    HW153261   0.313  12.178  12.547  1.6731 -1.0123 -0.6649
47094SOL    HW253262   0.365  12.069  12.638 -1.1456 -1.0193  1.0951
47095SOL     OW53263  10.022  13.064   3.888 -0.3755  0.4262  0.5755
47095SOL    HW153264  10.043  13.029   3.802  0.4882  0.6627  0.6872
47095SOL    HW253265  10.105  13.095   3.923 -0.7225  0.3827  1.4752
47096SOL     OW53266   2.321   9.356   5.965  0.0792 -0.1648  0.5283
47096SOL    HW153267   2.370   9.276   5.983 -0.2385 -0.1091  1.6940
47096SOL    HW253268   2.323   9.364   5.869 -2.1219 -2.9855  0.0979
47097SOL     OW53269   9.970   6.722   0.885  0.3104 -0.0655  0.3474
47097SOL    HW153270  10.025   6.728   0.807  0.1754 -0.5665  0.2136
47097SOL    HW253271   9.988   6.635   0.921  0.4031  0.1770  0.8997
47098SOL     OW53272  13.903  11.303  12.776 -0.4297  0.5694  0.0014
47098SOL    HW153273  13.846  11.339  12.708  1.0645  1.8839 -0.6402
47098SOL    HW253274  13.914  11.375  12.838  2.4727  1.3349 -1.2002
47099SOL     OW53275  13.484   5.167  12.886  0.0497  0.5519 -0.0794
47099SOL    HW153276  13.510   5.248  12.842 -0.7218  1.2019  0.6161
47099SOL    HW253277  13.554   5.106  12.867  1.0746  1.6369  0.0930
47100SOL     OW53278   8.866   9.287   0.114 -0.2041 -0.2815 -0.1209
47100SOL    HW153279   8.945   9.273   0.166 -0.8075 -0.6614  0.7219
47100SOL    HW253280   8.888   9.359   0.055  1.7095 -2.1689 -1.8480
47101SOL     OW53281  13.891   8.230   9.032 -0.4518  0.4773  0.6185
47101SOL    HW153282  13.841   8.273   9.100  1.3078 -0.3904  2.5753
47101SOL    HW253283  13.971   8.283   9.024  0.3496 -0.6485  0.8628
47102SOL     OW53284   9.084  12.867   2.769 -0.8315 -0.3739  0.1731
47102SOL    HW153285   9.127  12.847   2.686  1.3062  0.3294  1.0499
47102SOL    HW253286   9.153  12.858   2.835 -2.0718  0.6464  1.6948
47103SOL     OW53287   3.958   0.148   7.477  0.0847  0.0193  0.1829
47103SOL    HW153288   3.982   0.056   7.489 -0.5003 -0.1527  0.0648
47103SOL    HW253289   3.971   0.188   7.563  1.3529  0.0718 -0.0183
47104SOL     OW53290   6.659   6.294   1.857  0.1394 -0.4797  0.6342
47104SOL    HW153291   6.749   6.325   1.869 -0.3730  1.5287 -0.4428
47104SOL    HW253292   6.666   6.228   1.788  0.4570  1.6460 -1.4565
47105SOL     OW53293  11.104   2.648  11.769 -0.3490 -0.2494  0.1701
47105SOL    HW153294  11.135   2.573  11.719  3.3398 -0.2427  2.1199
47105SOL    HW253295  11.134   2.724  11.719  0.1294 -0.1912  0.5359
47106SOL     OW53296  13.568   1.734  12.045 -0.3891  0.3824 -0.2968
47106SOL    HW153297  13.609   1.764  11.963  0.0601  4.2536  1.1211
47106SOL    HW253298  13.476   1.758  12.035 -0.6316 -0.5032 -0.2180
47107SOL     OW53299   9.870   3.126  13.598 -0.0840 -0.3719 -0.0096
47107SOL    HW153300   9.935   3.144  13.666  0.4869 -0.3305 -0.5616
47107SOL    HW253301   9.900   3.045  13.557  0.6643  0.6355 -1.5142
47108SOL     OW53302   7.980   6.577   3.407 -0.9674 -0.6976 -0.1715
47108SOL    HW153303   8.002   6.554   3.317  0.3616 -0.7304  0.1501
47108SOL    HW253304   7.886   6.596   3.405 -0.6019  1.2172 -1.9643
47109SOL     OW53305  11.658   3.242   5.093 -0.1341 -0.2603 -0.5519
47109SOL    HW153306  11.583   3.197   5.132  0.6379 -1.0285  0.0805
47109SOL    HW253307  11.621   3.290   5.019 -1.4562  0.4274  0.5215
47110SOL     OW53308   7.616   1.750   3.677  0.3200  0.4843  0.0698
47110SOL    HW153309   7.689   1.745   3.740  0.4031 -1.9354 -0.1074
47110SOL    HW253310   7.659   1.753   3.592  0.2725 -0.9982 -0.0375
47111SOL     OW53311   6.524   5.072   6.874  0.1458 -0.0865 -0.5826
47111SOL    HW153312   6.583   5.112   6.938  0.7301  1.4571 -1.9995
47111SOL    HW253313   6.582   5.037   6.807 -0.4637 -1.4692 -0.4088
47112SOL     OW53314   0.712   5.636   0.002  0.1136  0.0117  0.2228
47112SOL    HW153315   0.713   5.722  -0.040  0.5474  0.1586  0.5300
47112SOL    HW253316   0.713   5.655   0.096  2.0473 -0.3367  0.2999
47113SOL     OW53317  12.152   3.843   1.114 -0.2107  0.4127  0.7229
47113SOL    HW153318  12.131   3.935   1.130  0.2688  0.3411  1.8299
47113SOL    HW253319  12.247   3.839   1.119 -0.2643 -0.2622  1.3792
47114SOL     OW53320   6.490   1.231   0.232 -0.3930  0.2373  0.2989
47114SOL    HW153321   6.425   1.301   0.239 -0.7872  0.0175 -0.8378
47114SOL    HW253322   6.569   1.275   0.201 -0.7536  0.1604 -0.8079
47115SOL     OW53323   9.473  10.501   3.869 -0.0427 -0.3852  0.5380
47115SOL    HW153324   9.384  10.466   3.879 -0.5903  1.1389  1.2489
47115SOL    HW253325   9.518  10.471   3.948 -0.4997  0.4429  1.1298
47116SOL     OW53326   1.862   2.236   9.944  0.5237  0.3285  0.1134
47116SOL    HW153327   1.875   2.234   9.849 -0.6910  0.9606 -0.0813
47116SOL    HW253328   1.933   2.291   9.977  0.4077  0.8665 -0.5294
47117SOL     OW53329   2.722  11.664   7.478 -0.9934  0.0185 -0.1407
47117SOL    HW153330   2.683  11.612   7.548  1.1710 -1.4967  0.0250
47117SOL    HW253331   2.775  11.602   7.428 -1.4138  1.3196 -2.3513
47118SOL     OW53332  10.824   9.172   0.178 -0.5503 -0.0595  0.1081
47118SOL    HW153333  10.849   9.237   0.113 -1.1141  0.3335  0.2756
47118SOL    HW253334  10.778   9.105   0.129 -0.9390  0.2157  0.0948
47119SOL     OW53335   7.657   9.812   8.613  0.4299 -0.2486 -0.3465
47119SOL    HW153336   7.679   9.816   8.520 -0.9519  0.6946 -0.6719
47119SOL    HW253337   7.605   9.731   8.622  0.7035 -0.4269 -0.3515
47120SOL     OW53338   8.679   3.819   6.053  0.3686 -0.2027  0.2118
47120SOL    HW153339   8.751   3.783   6.104  0.2201  1.3680  1.6484
47120SOL    HW253340   8.712   3.903   6.021 -0.8341  0.5879  0.9818
47121SOL     OW53341   1.730   4.488  13.616 -0.1712  0.5219  0.5023
47121SOL    HW153342   1.734   4.458  13.707  1.5720  0.8106  0.5596
47121SOL    HW253343   1.643   4.525  13.607 -0.5331  0.0993  1.9378
47122SOL     OW53344  12.661  13.048   8.161 -0.2943 -0.2397 -0.4517
47122SOL    HW153345  12.621  12.973   8.204  0.2382 -0.8251 -0.9537
47122SOL    HW253346  12.743  13.014   8.124 -1.3319 -0.1161 -3.0459
47123SOL     OW53347   7.685   3.012   8.378  0.1965  0.1085 -0.0489
47123SOL    HW153348   7.612   3.053   8.331  0.0268 -0.0379  0.0833
47123SOL    HW253349   7.759   3.070   8.362  0.4319 -0.5325 -1.4456
47124SOL     OW53350   8.297  11.341   0.834  0.2344 -0.4998 -0.0346
47124SOL    HW153351   8.375  11.351   0.780  1.3227 -1.5889  1.2517
47124SOL    HW253352   8.267  11.430   0.851  0.3244 -0.1221 -1.7626
47125SOL     OW53353   1.080  14.026   7.579 -0.6193  0.4778  0.3499
47125SOL    HW153354   1.170  14.060   7.583 -0.2024 -0.5834  0.3829
47125SOL    HW253355   1.053  14.040   7.488 -1.2250  2.7118  0.8129
47126SOL     OW53356  12.902   3.162   3.487 -0.2818 -0.1816 -0.0639
47126SOL    HW153357  12.990   3.163   3.450 -1.0186 -0.2339 -1.9185
47126SOL    HW253358  12.870   3.252   3.476 -0.5015 -0.1861  0.4996
47127SOL     OW53359   8.513   8.656  11.668  0.2911 -0.4164 -0.1993
47127SOL    HW153360   8.485   8.718  11.735 -0.7343 -0.1618 -0.8445
47127SOL    HW253361   8.607   8.645  11.683  0.2123  0.1885  0.8143
47128SOL     OW53362   3.776  13.661   0.937  0.6136  0.9969  0.1870
47128SOL    HW153363   3.788  13.752   0.909 -2.1292  1.2444 -0.4761
47128SOL    HW253364   3.771  13.611   0.856 -0.2968  0.6444  0.4453
47129SOL     OW53365   2.622   8.493  13.126  0.2782  0.2825  0.3462
47129SOL    HW153366   2.661   8.462  13.207  0.8692 -0.7366 -0.2988
47129SOL    HW253367   2.541   8.442  13.117  0.6020 -0.1774 -0.0690
47130SOL     OW53368   8.626   7.417  11.974 -0.0153  0.3628  0.0896
47130SOL    HW153369   8.602   7.510  11.978 -1.4652  0.0101  0.1477
47130SOL    HW253370   8.579   7.377  12.047  0.3740 -0.4670 -0.1021
47131SOL     OW53371  11.947   2.766   8.581 -0.5651  0.5335 -0.2456
47131SOL    HW153372  11.940   2.673   8.557 -2.1555  0.7565 -0.8228
47131SOL    HW253373  11.953   2.811   8.497  0.5576  0.9525  0.0440
47132SOL     OW53374   6.594  11.087   7.535 -0.3800 -0.2444 -0.1552
47132SOL    HW153375   6.676  11.045   7.509 -0.2364  0.0852 -0.2496
47132SOL    HW253376   6.529  11.055   7.472  0.2070  1.4611 -1.7234
47133SOL     OW53377  12.507   7.997   9.390 -0.2875 -0.2444  0.1105
47133SOL    HW153378  12.424   8.035   9.361 -0.3746  1.4398  2.3049
47133SOL    HW253379  12.529   8.045   9.469  2.4829 -1.1089 -0.0252
47134SOL     OW53380   2.557  12.071   5.333  0.8316  0.2403 -0.0915
47134SOL    HW153381   2.512  11.989   5.315  1.4466 -0.0015 -0.5665
47134SOL    HW253382   2.541  12.088   5.426 -2.7982  1.7380 -0.7963
47135SOL     OW53383   9.241   0.019  11.255  0.1005  0.2176 -0.5615
47135SOL    HW153384   9.166   0.000  11.199 -1.6643 -0.1716  1.7937
47135SOL    HW253385   9.291  -0.063  11.257  1.4933  0.8952 -3.2806
47136SOL     OW53386   4.562   9.139  11.951  0.4226 -0.0505  0.4412
47136SOL    HW153387   4.656   9.127  11.958  0.2859 -0.9249  0.9843
47136SOL    HW253388   4.549   9.178  11.864  1.3121  0.5772  0.5751
47137SOL     OW53389  12.475   4.933  10.595 -0.1291 -0.0896 -0.1001
47137SOL    HW153390  12.541   4.886  10.544  0.1205  0.1390  0.0033
47137SOL    HW253391  12.455   4.875  10.668  0.5980  0.1953  0.3387
47138SOL     OW53392   6.828   3.351   1.834 -0.5262 -0.4405  0.3621
47138SOL    HW153393   6.785   3.432   1.862  1.1483  0.4673  0.4049
47138SOL    HW253394   6.768   3.314   1.769 -1.5244  0.6026  0.6525
47139SOL     OW53395  13.302   1.579   9.015 -0.0532 -0.0809 -0.1757
47139SOL    HW153396  13.218   1.564   9.058 -0.5193 -2.0156 -1.6374
47139SOL    HW253397  13.301   1.672   8.991 -1.3398  0.1455  0.6694
47140SOL     OW53398  11.184   5.516   1.302 -0.4021 -0.6540 -0.4205
47140SOL    HW153399  11.232   5.525   1.220  0.6391  0.0266  0.2423
47140SOL    HW253400  11.243   5.552   1.369 -2.2666  1.3068  0.2863
47141SOL     OW53401   7.519  11.028   5.904  0.6978 -0.5254 -0.0994
47141SOL    HW153402   7.440  10.995   5.862 -0.7650  2.1611  0.2981
47141SOL    HW253403   7.575  10.951   5.913 -2.1469 -2.7397  0.3232
47142SOL     OW53404   6.844   1.879   9.847 -0.2795  0.1187  0.2151
47142SOL    HW153405   6.916   1.938   9.830  0.2726 -0.3438  0.8920
47142SOL    HW253406   6.766   1.928   9.822  0.0446  1.6563  1.9848
47143SOL     OW53407   6.876  11.126   7.726 -0.6386  0.6711 -0.5236
47143SOL    HW153408   6.916  11.155   7.643  2.1913  0.8666  0.7935
47143SOL    HW253409   6.878  11.031   7.722 -1.6044  0.6621 -1.1296
47144SOL     OW53410   1.755   6.127   0.113  0.5565 -0.1974 -0.2086
47144SOL    HW153411   1.794   6.214   0.114  1.4894 -0.6018  0.4710
47144SOL    HW253412   1.830   6.067   0.109  0.0776 -1.0233  1.9145
47145SOL     OW53413  11.909   3.646   4.587 -0.5226  0.0297 -0.1709
47145SOL    HW153414  11.891   3.552   4.582  0.7026 -0.1660 -1.3361
47145SOL    HW253415  11.869   3.683   4.508  1.9435 -0.0596 -1.5331
47146SOL     OW53416   3.264  12.498  10.107  0.4962  0.1053 -0.5519
47146SOL    HW153417   3.275  12.579  10.156  0.1704 -0.2815  0.1773
47146SOL    HW253418   3.349  12.484  10.064 -0.0099  1.7820 -2.2193
47147SOL     OW53419   7.333  10.325   9.975 -0.2396 -0.6290  0.1635
47147SOL    HW153420   7.336  10.229   9.981  1.5397 -0.6930 -0.8692
47147SOL    HW253421   7.391  10.355  10.045  0.9807 -0.4247 -0.9037
47148SOL     OW53422   5.217  11.205  13.483 -0.3294 -0.8012 -0.6535
47148SOL    HW153423   5.298  11.200  13.431 -0.1805 -0.3380 -0.4701
47148SOL    HW253424   5.153  11.243  13.423 -0.6153 -1.8403 -1.0336
47149SOL     OW53425   9.197   0.358   7.170 -0.1143  0.0077 -0.0990
47149SOL    HW153426   9.110   0.397   7.156 -1.3835 -2.2755  0.7929
47149SOL    HW253427   9.215   0.373   7.262  0.2862  0.2017 -0.2112
47150SOL     OW53428   6.835  10.828  13.212 -0.3147 -0.3685 -0.3480
47150SOL    HW153429   6.868  10.848  13.300 -1.3118  0.2368 -0.0957
47150SOL    HW253430   6.783  10.748  13.224  0.4589 -0.9252 -0.6143
47151SOL     OW53431  13.495   7.999  11.916  0.0460  0.0807  0.4324
47151SOL    HW153432  13.440   7.921  11.930  1.4023 -0.6304  2.1454
47151SOL    HW253433  13.497   8.010  11.821 -0.9915 -1.3692  0.2073
47152SOL     OW53434  13.499  13.521   0.632 -0.2084 -0.1266 -0.1427
47152SOL    HW153435  13.484  13.606   0.673  1.0318  0.5443 -1.0125
47152SOL    HW253436  13.411  13.489   0.611 -0.7840  0.2236  1.5386
47153SOL     OW53437   4.522   7.551   1.274 -0.3002 -0.4983  0.3459
47153SOL    HW153438   4.452   7.563   1.338  1.1390  1.7962  1.6392
47153SOL    HW253439   4.531   7.637   1.232  1.4712 -0.8411 -0.0643
47154SOL     OW53440   5.350   6.062  11.666 -0.1286 -0.1212 -0.4049
47154SOL    HW153441   5.306   6.101  11.742 -2.0609 -0.9786 -1.0405
47154SOL    HW253442   5.423   6.121  11.649 -1.2905  1.6370  0.4089
47155SOL     OW53443   7.342   8.757  12.344 -0.3350 -0.2808 -0.2484
47155SOL    HW153444   7.300   8.734  12.261  0.9308 -1.5469 -0.5894
47155SOL    HW253445   7.272   8.791  12.399 -1.2888  0.1102 -1.6605
47156SOL     OW53446  12.703  11.132  10.876  0.0749  0.1313 -0.3303
47156SOL    HW153447  12.645  11.197  10.836  0.0431 -0.0792 -0.6250
47156SOL    HW253448  12.786  11.179  10.886  0.1579  0.1120 -0.8755
47157SOL     OW53449   3.677   8.382   5.786  0.0698 -0.1094 -0.0692
47157SOL    HW153450   3.699   8.299   5.829  0.8786  0.8018  1.3639
47157SOL    HW253451   3.724   8.380   5.703  0.7226 -0.7671  0.3035
47158SOL     OW53452   5.902   0.845   8.216  0.1483 -0.4214 -0.0272
47158SOL    HW153453   5.905   0.785   8.141 -0.1779  1.0457 -1.2783
47158SOL    HW253454   5.948   0.923   8.185 -0.5976  0.4780  1.0821
47159SOL     OW53455   8.370   3.036  10.721 -0.4861  0.4194  0.0715
47159SOL    HW153456   8.403   3.082  10.798  0.6109  0.4827 -0.4120
47159SOL    HW253457   8.282   3.071  10.708 -1.2541 -0.6187  2.0989
47160SOL     OW53458  13.036  11.604   2.389 -0.1862 -0.5122 -0.0095
47160SOL    HW153459  13.010  11.594   2.481  0.6314 -0.4055  0.2450
47160SOL    HW253460  12.983  11.677   2.357 -0.2977 -0.3838  0.4555
47161SOL     OW53461   7.113  11.041   2.256  0.0725  0.0450 -0.3575
47161SOL    HW153462   7.131  11.086   2.339  0.0781 -0.4068 -0.1074
47161SOL    HW253463   7.199  11.013   2.225 -0.0349 -0.9462  0.1648
47162SOL     OW53464   7.796   0.950   5.261  0.3552  0.0068  0.5338
47162SOL    HW153465   7.793   0.995   5.177 -1.0897 -1.5160 -0.2893
47162SOL    HW253466   7.801   0.857   5.238 -0.0333 -0.4384  2.1230
47163SOL     OW53467   1.360   5.823   2.063 -0.0346  0.7741  0.1299
47163SOL    HW153468   1.374   5.736   2.102  0.5560 -0.0216 -1.7609
47163SOL    HW253469   1.406   5.819   1.980 -0.3752  2.7822 -0.1853
47164SOL     OW53470  10.294  12.244  13.615 -0.3545 -0.4754  0.5240
47164SOL    HW153471  10.223  12.207  13.562 -2.9343 -0.9267  3.9264
47164SOL    HW253472  10.295  12.337  13.593 -0.7808 -0.7779 -0.8536
47165SOL     OW53473   1.902   6.480   8.769 -0.2634  0.3601  0.6229
47165SOL    HW153474   1.960   6.549   8.800 -1.2128  1.4844 -0.0424
47165SOL    HW253475   1.955   6.429   8.707 -0.5093  2.6099 -1.5845
47166SOL     OW53476   5.049  14.013   3.385 -0.2180 -1.0136 -0.6921
47166SOL    HW153477   5.106  14.001   3.462  0.5166  0.2052 -1.0020
47166SOL    HW253478   4.970  13.964   3.406  0.7608 -2.3804 -0.0378
47167SOL     OW53479  11.319   3.881   9.350  0.4223 -0.3176 -0.6211
47167SOL    HW153480  11.333   3.954   9.411  0.8332 -1.0577  0.1920
47167SOL    HW253481  11.225   3.884   9.331  0.2063 -0.3023  0.3644
47168SOL     OW53482  13.672   4.655   3.452  0.3132 -0.0764 -0.0865
47168SOL    HW153483  13.745   4.598   3.475  0.4709  0.5363  0.9874
47168SOL    HW253484  13.600   4.595   3.430  1.1775 -0.6796 -1.3478
47169SOL     OW53485   8.512  11.880   7.259  0.1717 -0.6137  0.4539
47169SOL    HW153486   8.603  11.853   7.244 -0.4550 -3.2773  0.9723
47169SOL    HW253487   8.493  11.852   7.349 -1.5880 -1.5603 -0.1519
47170SOL     OW53488  11.327   3.313   2.628  0.3389 -0.1331  0.2460
47170SOL    HW153489  11.279   3.244   2.674 -0.5481 -0.9921 -1.8438
47170SOL    HW253490  11.403   3.268   2.591  1.6383  0.7702  1.7136
47171SOL     OW53491  10.420   5.770   6.877  0.2201 -0.0584  0.6439
47171SOL    HW153492  10.471   5.693   6.903  0.9041  0.5716  1.2075
47171SOL    HW253493  10.469   5.844   6.911  0.3698  0.7394 -1.1950
47172SOL     OW53494   6.981   9.049   6.584  0.0219  0.4595  0.6541
47172SOL    HW153495   6.936   9.006   6.511  1.1590  1.6797 -0.8335
47172SOL    HW253496   7.028   8.978   6.628 -1.1996 -0.3984  0.5966
47173SOL     OW53497   4.950   1.710  11.225 -0.3324 -0.4447 -0.8239
47173SOL    HW153498   4.876   1.651  11.220 -0.4459 -0.3691 -0.1481
47173SOL    HW253499   4.972   1.730  11.134 -0.0876 -1.7678 -1.0729
47174SOL     OW53500   9.073   3.481  12.116 -0.3365 -0.1581  0.1094
47174SOL    HW153501   9.006   3.449  12.056  0.1157  0.6031 -0.8233
47174SOL    HW253502   9.145   3.509  12.060  0.7219 -0.8112  1.0803
47175SOL     OW53503  13.868   1.019   0.015 -0.1411  0.1434  0.3341
47175SOL    HW153504  13.925   1.022   0.092 -0.1396 -0.2247  0.3502
47175SOL    HW253505  13.855   0.926  -0.002 -1.2827  0.2082  0.7417
47176SOL     OW53506  13.820   9.266   5.047 -0.0014  0.1694  0.6150
47176SOL    HW153507  13.823   9.227   4.960 -0.5523  1.6036 -0.0800
47176SOL    HW253508  13.729   9.294   5.057  0.4871  1.7472  0.8448
47177SOL     OW53509   2.389   7.316   6.868 -0.7240  0.1086  0.2279
47177SOL    HW153510   2.445   7.370   6.924  0.0786 -1.0580  0.5830
47177SOL    HW253511   2.420   7.332   6.779  0.7572 -1.1437  0.4856
47178SOL     OW53512   8.449  13.793  13.091 -0.0585 -0.3868  0.4927
47178SOL    HW153513   8.394  13.798  13.013  0.0478 -0.7747  0.3907
47178SOL    HW253514   8.528  13.842  13.069  0.4821 -1.4740 -0.0782
47179SOL     OW53515   0.890   6.175  10.758  0.0827  0.3548  0.1370
47179SOL    HW153516   0.876   6.144  10.669 -0.5497  1.7143 -0.2559
47179SOL    HW253517   0.941   6.255  10.748 -0.4001  0.7766  0.9661
47180SOL     OW53518  11.487   7.203   2.543  0.0986 -0.0894 -0.2588
47180SOL    HW153519  11.484   7.297   2.525  0.6072  0.0108  0.1461
47180SOL    HW253520  11.579   7.186   2.564 -0.2687 -0.3693  1.2628
47181SOL     OW53521  13.303   8.574   0.997 -0.4725 -0.3498  0.5136
47181SOL    HW153522  13.210   8.554   1.002 -0.5280 -0.0775  0.5806
47181SOL    HW253523  13.308   8.670   0.997 -0.2053 -0.3611  0.3103
47182SOL     OW53524   8.708   4.630   8.821 -0.4638 -0.5399 -0.0490
47182SOL    HW153525   8.721   4.713   8.775 -0.3956 -0.0933  0.7573
47182SOL    HW253526   8.634   4.590   8.778 -0.6873  0.0810 -0.2571
47183SOL     OW53527   9.595   4.336   0.723  0.4396 -0.2071 -0.1191
47183SOL    HW153528   9.604   4.242   0.707 -0.5791 -0.2436 -0.5258
47183SOL    HW253529   9.521   4.344   0.783 -0.3062  0.4024 -1.0850
47184SOL     OW53530   4.831   6.087   6.674  0.2363  0.1526 -0.5587
47184SOL    HW153531   4.922   6.059   6.683 -0.0487 -0.3733  1.2757
47184SOL    HW253532   4.795   6.032   6.605  0.9815 -0.5617 -0.3937
47185SOL     OW53533   3.161  13.876  11.157 -0.2636  0.2565 -0.1934
47185SOL    HW153534   3.153  13.801  11.098  0.4686 -1.8877  2.2625
47185SOL    HW253535   3.138  13.842  11.243 -0.6427  3.0804  0.9405
47186SOL     OW53536  11.366   5.036   3.648 -0.0465  0.1754  0.3580
47186SOL    HW153537  11.364   5.042   3.553 -0.5080 -0.1955  0.3422
47186SOL    HW253538  11.459   5.029   3.669  0.1761  1.9055  0.0526
47187SOL     OW53539   4.479   3.943  10.527  0.4796  0.2460  0.3833
47187SOL    HW153540   4.432   3.978  10.603 -1.3381 -1.0717 -0.0682
47187SOL    HW253541   4.456   3.850  10.525  0.4569  0.2511 -1.7834
47188SOL     OW53542   0.077   7.309  11.384  0.0910 -0.1204 -0.4218
47188SOL    HW153543   0.173   7.309  11.387  0.0996  0.0659 -0.6492
47188SOL    HW253544   0.057   7.309  11.291 -0.1248  1.6497 -0.4063
47189SOL     OW53545   4.495   7.542  13.720 -0.2669  0.2569  0.1008
47189SOL    HW153546   4.495   7.471  13.656  0.3526  1.1682 -0.9509
47189SOL    HW253547   4.546   7.509  13.793 -0.3622 -0.5349 -0.1834
47190SOL     OW53548   8.395   5.616  12.966  0.2211  0.0409 -0.0602
47190SOL    HW153549   8.368   5.568  13.044 -1.1331  0.3139 -0.3411
47190SOL    HW253550   8.381   5.708  12.988  0.9371  0.2017 -0.2298
47191SOL     OW53551   5.162   1.281   3.658  0.5919  0.7990  0.3586
47191SOL    HW153552   5.100   1.217   3.692  1.3085  0.8368  1.8185
47191SOL    HW253553   5.107   1.350   3.620 -0.3257  1.3299  2.5197
47192SOL     OW53554   7.161   2.972   3.122  0.0774 -0.2683  0.4109
47192SOL    HW153555   7.100   2.975   3.195  0.6896  1.7667  0.9033
47192SOL    HW253556   7.229   3.036   3.144  1.8105 -1.6294 -0.6314
47193SOL     OW53557   5.278   2.989  10.002  0.7155 -0.4066 -0.4647
47193SOL    HW153558   5.277   3.020   9.912  0.8659  2.3489  0.3663
47193SOL    HW253559   5.352   3.036  10.042  0.4619 -1.3112  1.1665
47194SOL     OW53560   0.852   1.008  12.859 -0.0737  0.5350 -0.2695
47194SOL    HW153561   0.892   0.923  12.876 -0.7553  0.0751 -0.9269
47194SOL    HW253562   0.907   1.047  12.791 -0.9778 -0.3025 -1.5274
47195SOL     OW53563  11.180   1.420  13.620  0.3865 -0.0503  0.6332
47195SOL    HW153564  11.189   1.505  13.577 -1.0867  1.0391  2.3094
47195SOL    HW253565  11.122   1.371  13.562 -1.0758  1.1698  0.9756
47196SOL     OW53566   1.711   3.991   6.034  0.9207 -0.0641  0.1086
47196SOL    HW153567   1.782   4.027   5.980  2.0995 -0.6414  1.1989
47196SOL    HW253568   1.750   3.913   6.075 -0.6215 -0.8591  0.1058
47197SOL     OW53569  11.834   5.864   8.461  0.1959 -0.1032 -0.1158
47197SOL    HW153570  11.753   5.825   8.494 -0.4027  0.2690 -1.1237
47197SOL    HW253571  11.885   5.790   8.429 -0.1554 -0.2451 -0.3504
47198SOL     OW53572   1.319   0.460  10.529  0.4993  0.3546  0.3488
47198SOL    HW153573   1.373   0.441  10.606 -0.1247 -1.9707  0.2927
47198SOL    HW253574   1.291   0.551  10.541 -0.0832 -0.1115  3.2179
47199SOL     OW53575  14.002   4.815   2.190 -0.3163  0.1072  0.1529
47199SOL    HW153576  14.074   4.841   2.248  0.3173  2.1968 -1.4586
47199SOL    HW253577  13.925   4.859   2.224 -0.5817 -0.9859  1.0366
47200SOL     OW53578   5.154   1.594   3.040 -0.2282  0.1775  0.4179
47200SOL    HW153579   5.240   1.588   2.997 -0.6930 -1.0865 -0.3977
47200SOL    HW253580   5.175   1.605   3.133  0.8325 -0.3091  0.2574
47201SOL     OW53581   6.048  12.174  11.411 -0.4861  0.4289  0.2247
47201SOL    HW153582   6.025  12.267  11.414 -2.8215 -0.0730  0.1724
47201SOL    HW253583   5.999  12.140  11.336  0.8697 -0.7321 -0.1597
47202SOL     OW53584  11.800  11.515   2.963 -0.3410 -0.4009 -0.1692
47202SOL    HW153585  11.794  11.568   3.043  0.0882  0.2236 -0.5458
47202SOL    HW253586  11.721  11.538   2.914 -0.5882 -0.7607  0.0530
47203SOL     OW53587   7.055   1.973   1.925  1.0737 -0.0537 -0.2030
47203SOL    HW153588   7.015   1.909   1.866 -0.4968 -1.0618  1.8414
47203SOL    HW253589   7.033   2.058   1.886 -0.9073 -0.6495 -0.5157
47204SOL     OW53590   9.536  11.191   7.304 -0.0241  0.1115  0.3912
47204SOL    HW153591   9.541  11.135   7.381 -0.1662  1.5318  1.4831
47204SOL    HW253592   9.443  11.215   7.299 -0.1698 -0.6424 -0.7385
47205SOL     OW53593   9.630   6.718   3.762 -0.4599 -0.0278 -0.0225
47205SOL    HW153594   9.719   6.682   3.765 -0.9019 -1.1268  2.3633
47205SOL    HW253595   9.633   6.794   3.820 -1.5733 -1.4519  2.0043
47206SOL     OW53596   7.130  11.023  10.707 -0.3463 -0.2361 -0.1196
47206SOL    HW153597   7.172  10.987  10.785  1.3573  1.5665 -0.1340
47206SOL    HW253598   7.118  10.948  10.650 -0.0197 -1.3151  1.1683
47207SOL     OW53599   2.856  12.709   5.624  0.0815  0.0817  0.4723
47207SOL    HW153600   2.898  12.784   5.667  0.1616  0.5449 -0.3853
47207SOL    HW253601   2.817  12.659   5.695  0.6930  0.5270  1.1323
47208SOL     OW53602   1.549   6.235   1.218  0.5987  0.3198 -0.3446
47208SOL    HW153603   1.561   6.153   1.170  1.0457 -0.0931  0.4544
47208SOL    HW253604   1.627   6.287   1.198  0.1281  0.7276 -1.1725
47209SOL     OW53605   1.317   2.427   2.916  0.2866 -0.3151 -0.1182
47209SOL    HW153606   1.358   2.479   2.847 -1.3461 -1.4059 -2.0035
47209SOL    HW253607   1.233   2.398   2.878 -0.1968 -1.8294  1.9357
47210SOL     OW53608   7.186   1.046  11.025  0.4474 -0.3489  0.2732
47210SOL    HW153609   7.143   0.984  11.084 -1.1131  1.2659  0.9355
47210SOL    HW253610   7.135   1.041  10.944 -0.5484  1.0018  0.7891
47211SOL     OW53611   1.133   0.907   7.505  0.2714 -0.4996  0.5209
47211SOL    HW153612   1.059   0.914   7.565  0.3172 -1.3065  0.6740
47211SOL    HW253613   1.163   0.817   7.513 -0.0517 -0.7808 -1.1090
47212SOL     OW53614   3.887  11.924  13.412 -0.2267  0.1728  0.1902
47212SOL    HW153615   3.946  11.931  13.336 -1.4330  2.9205 -0.6320
47212SOL    HW253616   3.943  11.944  13.487  0.5879 -0.6511 -0.1879
47213SOL     OW53617   5.761   0.638  10.439  0.0918  0.0621  0.0778
47213SOL    HW153618   5.787   0.690  10.363 -0.6604  1.8549  0.9766
47213SOL    HW253619   5.708   0.567  10.402  0.5961  0.2908 -1.1409
47214SOL     OW53620   8.515  12.890   7.732  0.1094 -0.5458  0.6781
47214SOL    HW153621   8.601  12.862   7.701 -0.6195 -1.0135 -1.0319
47214SOL    HW253622   8.453  12.847   7.672 -1.2555  0.8238  1.0580
47215SOL     OW53623  12.363   1.353   1.799 -0.9207  0.1650 -1.1275
47215SOL    HW153624  12.395   1.426   1.747 -0.7550  0.6462 -0.3631
47215SOL    HW253625  12.281   1.327   1.756 -0.8764  0.6663 -1.5167
47216SOL     OW53626   5.485   3.790   8.590  0.2389 -0.2890  0.3500
47216SOL    HW153627   5.527   3.827   8.512  2.1034 -0.1815  1.3562
47216SOL    HW253628   5.493   3.858   8.656 -0.8584 -0.5856  0.7989
47217SOL     OW53629  12.968   5.566  13.013  0.1110 -0.3882  0.2932
47217SOL    HW153630  12.986   5.550  12.920  0.7376  0.5731  0.2387
47217SOL    HW253631  13.018   5.497  13.058 -1.8239 -2.1638 -0.1118
47218SOL     OW53632  12.437   5.618   0.000  0.6121  0.1340 -0.0809
47218SOL    HW153633  12.402   5.687  -0.055  0.8740  1.1549  1.0018
47218SOL    HW253634  12.367   5.553   0.004  0.4792  0.1680 -1.3508
47219SOL     OW53635  12.842  10.375  10.783  0.7227 -0.3443 -0.2338
47219SOL    HW153636  12.850  10.459  10.738 -0.1115 -0.4558 -0.6073
47219SOL    HW253637  12.903  10.317  10.737  1.3727  0.0748  0.0854
47220SOL     OW53638  11.885   6.108  12.913  0.4259 -0.3244  0.1627
47220SOL    HW153639  11.867   6.140  12.825 -0.2107  0.6281  0.6257
47220SOL    HW253640  11.977   6.080  12.910  0.4592 -0.1380 -0.7471
47221SOL     OW53641   0.187   2.434   0.106  0.8496 -0.2324 -0.1255
47221SOL    HW153642   0.245   2.398   0.174  1.2720 -1.3860 -1.0629
47221SOL    HW253643   0.203   2.528   0.108  1.4036 -0.3324  0.8631
47222SOL     OW53644   3.929   4.599  13.101 -0.6871 -0.3021  0.2761
47222SOL    HW153645   3.925   4.566  13.190 -2.8192  0.5277  0.5427
47222SOL    HW253646   3.936   4.694  13.111  2.1659 -0.3314 -0.4909
47223SOL     OW53647   3.662  10.561   1.729  0.4013  0.2215  0.1711
47223SOL    HW153648   3.604  10.505   1.677  1.0915 -1.1487  0.8229
47223SOL    HW253649   3.735  10.579   1.670  0.4847 -0.1125  0.1674
47224SOL     OW53650   2.190  11.619   6.072  0.1904  0.3662  0.1075
47224SOL    HW153651   2.262  11.666   6.114 -0.2130  0.4460  0.7169
47224SOL    HW253652   2.229  11.539   6.038  0.5197  0.3059  0.6286
47225SOL     OW53653   3.905  13.722   4.742 -0.0450 -0.2310  0.0634
47225SOL    HW153654   3.890  13.796   4.683  1.2186 -1.1215 -1.4578
47225SOL    HW253655   3.818  13.685   4.757 -0.4183  0.0607 -1.2384
47226SOL     OW53656  10.652  11.148   6.004 -0.3201 -0.3881  0.4275
47226SOL    HW153657  10.641  11.116   5.914 -0.3839 -1.4968  0.8194
47226SOL    HW253658  10.568  11.189   6.025  0.1426  1.1484 -0.4799
47227SOL     OW53659   5.086   9.340   8.007  0.4701  0.2580  0.2279
47227SOL    HW153660   5.146   9.314   7.937 -0.6823  0.6015 -0.9313
47227SOL    HW253661   5.071   9.260   8.057 -0.0961 -0.4374 -1.0198
47228SOL     OW53662  12.851   7.360   2.162 -0.3663 -0.1510 -0.2326
47228SOL    HW153663  12.790   7.392   2.229 -1.7793  0.6017 -1.8087
47228SOL    HW253664  12.822   7.270   2.144  1.4613 -1.2293  1.7322
47229SOL     OW53665  11.997   7.306   1.528 -0.5954 -0.8582  0.3725
47229SOL    HW153666  12.083   7.277   1.498  0.0832  1.0322  0.3488
47229SOL    HW253667  11.958   7.229   1.569 -0.2509 -2.6728 -2.4499
47230SOL     OW53668  10.723   8.750   9.332 -0.5314  0.1935 -0.1899
47230SOL    HW153669  10.779   8.819   9.294  0.5328 -0.8804 -0.6518
47230SOL    HW253670  10.771   8.721   9.409  0.0628 -1.3890 -1.1122
47231SOL     OW53671   6.688   1.608  12.155 -0.3336  0.7463  0.1435
47231SOL    HW153672   6.629   1.679  12.129 -1.3673  0.4039  1.4037
47231SOL    HW253673   6.751   1.650  12.214 -0.5248  0.7588  0.3421
47232SOL     OW53674   6.507   5.267   8.412  0.9642 -0.2067 -0.0838
47232SOL    HW153675   6.600   5.285   8.426  0.7493  0.0167  1.1901
47232SOL    HW253676   6.468   5.275   8.499 -0.1933 -0.6437 -0.5463
47233SOL     OW53677   7.906   6.460   3.888  0.5258  0.3810  0.0311
47233SOL    HW153678   7.920   6.513   3.810 -1.7709  1.8952  0.5392
47233SOL    HW253679   7.839   6.396   3.862  1.4774 -0.6734  0.1223
47234SOL     OW53680   2.579   5.211   6.295 -0.0319 -0.1461  0.3785
47234SOL    HW153681   2.638   5.250   6.230  0.8018 -0.4406  0.9362
47234SOL    HW253682   2.505   5.272   6.299 -0.2240 -0.2560 -1.0124
47235SOL     OW53683   5.232   4.233   4.858 -0.1941 -0.1283  0.0129
47235SOL    HW153684   5.179   4.260   4.783  0.0938 -2.4637 -1.1197
47235SOL    HW253685   5.249   4.314   4.906 -1.9524  1.1625 -1.4138
47236SOL     OW53686  12.095   8.416  12.991 -0.3494  0.7535  0.3299
47236SOL    HW153687  12.037   8.411  12.915 -0.6138  1.1554  0.4985
47236SOL    HW253688  12.093   8.327  13.028 -0.0059  0.4848 -0.2797
47237SOL     OW53689   1.891   6.310   4.298  0.3277 -0.1491  0.1851
47237SOL    HW153690   1.913   6.217   4.304  0.1036 -0.2111  0.0760
47237SOL    HW253691   1.806   6.311   4.255  0.0063  0.0761  0.8216
47238SOL     OW53692   4.588   4.135   5.699 -0.2172 -0.6924 -0.4974
47238SOL    HW153693   4.511   4.152   5.753  0.5413 -0.8639  0.6739
47238SOL    HW253694   4.607   4.219   5.658 -0.8621 -0.5820 -0.5877
47239SOL     OW53695   4.607  13.357   2.404  0.8440  0.2367 -0.2243
47239SOL    HW153696   4.513  13.361   2.424  0.6487  1.1020 -1.2507
47239SOL    HW253697   4.629  13.445   2.374  1.7303 -0.2738 -1.1244
47240SOL     OW53698  13.817   2.944  13.585 -0.4402  0.0653  0.5317
47240SOL    HW153699  13.909   2.966  13.603 -0.2904  1.1233 -1.2140
47240SOL    HW253700  13.822   2.881  13.513 -1.0804  0.1918  0.3735
47241SOL     OW53701   6.203   3.890   1.810 -0.3478  0.0141  0.2031
47241SOL    HW153702   6.117   3.901   1.769 -0.3948 -1.8457 -0.2873
47241SOL    HW253703   6.185   3.894   1.904 -0.4832  2.6077  0.1357
47242SOL     OW53704   8.399   6.524  12.104 -0.0396  0.0953  0.3149
47242SOL    HW153705   8.459   6.452  12.124  0.4607 -0.2499 -2.0381
47242SOL    HW253706   8.430   6.597  12.157  0.9358 -0.7571  0.9652
47243SOL     OW53707   0.916  13.533   3.678  0.1553 -0.4439  0.3849
47243SOL    HW153708   0.929  13.479   3.600 -0.9285 -0.8005  0.4329
47243SOL    HW253709   0.853  13.600   3.650  0.3740 -0.0940  0.7296
47244SOL     OW53710   8.096   8.321   1.268  0.5755  0.0354  0.1543
47244SOL    HW153711   8.116   8.292   1.357 -0.0978 -1.6513 -0.2010
47244SOL    HW253712   8.088   8.240   1.217  3.1310  0.9470 -1.9681
47245SOL     OW53713  13.214   5.905   8.000  0.4690  0.0741 -0.2320
47245SOL    HW153714  13.125   5.900   8.034  1.1056 -0.8420  1.4118
47245SOL    HW253715  13.268   5.926   8.076  1.7416 -0.0677 -1.0580
47246SOL     OW53716  10.406   1.588  11.438  0.0061 -0.2001  0.3702
47246SOL    HW153717  10.396   1.503  11.397 -1.3614  0.8074 -1.5272
47246SOL    HW253718  10.317   1.617  11.457  0.2667  1.6754 -0.9845
47247SOL     OW53719   1.402   2.805   0.779 -0.3405  0.2124  0.1678
47247SOL    HW153720   1.445   2.725   0.810  0.7965  0.5454 -0.5149
47247SOL    HW253721   1.472   2.857   0.741 -1.5269  0.1929 -2.1847
47248SOL     OW53722   8.412  13.651  11.649 -0.3097 -0.0880 -0.2313
47248SOL    HW153723   8.503  13.648  11.677 -0.6493  0.3963  0.9663
47248SOL    HW253724   8.415  13.691  11.562  0.6331 -0.2123 -0.2622
47249SOL     OW53725   9.276  10.980  11.137  0.2618  0.3263  0.5746
47249SOL    HW153726   9.356  10.931  11.118  0.8204  1.7458 -0.8531
47249SOL    HW253727   9.235  10.931  11.209  0.5148 -2.5265 -1.0974
47250SOL     OW53728   6.988   0.094   9.136 -0.4968 -0.1413  0.4833
47250SOL    HW153729   7.025   0.180   9.112 -1.2338  0.1324  0.2890
47250SOL    HW253730   6.912   0.085   9.079 -0.3717 -0.9728  0.4451
47251SOL     OW53731  12.124   1.558   4.257  0.1843  0.1841 -0.5321
47251SOL    HW153732  12.174   1.478   4.242  0.2171 -0.2778  1.6596
47251SOL    HW253733  12.044   1.548   4.206 -0.0354 -1.5012  0.0827
47252SOL     OW53734   7.737   6.909  10.425  0.8995 -0.0083  0.2155
47252SOL    HW153735   7.691   6.964  10.489 -1.6299 -0.5801 -0.9497
47252SOL    HW253736   7.823   6.892  10.464 -0.0344  0.7438  2.8237
47253SOL     OW53737  11.585   0.712   7.343 -0.7888  0.3988 -0.2203
47253SOL    HW153738  11.668   0.741   7.305 -1.2805 -0.2755 -1.8795
47253SOL    HW253739  11.560   0.782   7.403 -0.3309  1.8947 -1.7068
47254SOL     OW53740   8.436   8.989  12.704  0.2509 -0.2155  0.4943
47254SOL    HW153741   8.474   8.909  12.667  0.0236 -0.1756  0.1704
47254SOL    HW253742   8.345   8.965  12.724  0.6660 -0.5754  2.0813
47255SOL     OW53743  11.668  13.408   1.363  0.0549 -0.0816  0.3997
47255SOL    HW153744  11.679  13.476   1.430 -0.5192  0.8051 -0.3810
47255SOL    HW253745  11.612  13.343   1.404  0.2254  0.1447  1.0007
47256SOL     OW53746   5.045   5.576  11.226 -0.7048  0.0478 -0.6332
47256SOL    HW153747   5.013   5.596  11.314 -1.5274 -1.9036 -0.4501
47256SOL    HW253748   5.000   5.639  11.169 -0.9461  0.6593  0.2200
47257SOL     OW53749   2.754   2.145   9.469  0.6677 -0.0575 -0.3076
47257SOL    HW153750   2.713   2.231   9.477 -1.9722 -1.0670 -1.7172
47257SOL    HW253751   2.761   2.113   9.559  1.2724  1.4107  0.1965
47258SOL     OW53752   9.686   3.407   3.805  0.4543 -0.5023 -0.5976
47258SOL    HW153753   9.764   3.380   3.854 -0.1490 -0.6710  0.3007
47258SOL    HW253754   9.651   3.325   3.771 -0.2297 -0.6418  0.3908
47259SOL     OW53755   1.695   1.417  12.492 -0.3060  0.4840  0.3748
47259SOL    HW153756   1.685   1.417  12.397  0.9246 -0.4722  0.2127
47259SOL    HW253757   1.790   1.410  12.506 -0.5592 -1.1221  1.6319
47260SOL     OW53758   7.187   8.209   2.648 -0.0960  0.0317  0.0383
47260SOL    HW153759   7.104   8.162   2.649 -0.5192  0.7603  1.0375
47260SOL    HW253760   7.219   8.203   2.738  0.2222  0.9868  0.0051
47261SOL     OW53761   6.791   0.710   8.281 -0.4703  0.0411  0.0836
47261SOL    HW153762   6.798   0.639   8.345 -1.9364  0.7489  1.0721
47261SOL    HW253763   6.836   0.784   8.323  0.7561 -0.1676 -0.7999
47262SOL     OW53764   5.742  13.469  11.294 -0.3095 -0.2580  0.2029
47262SOL    HW153765   5.651  13.484  11.268 -0.1655 -0.4270 -0.4374
47262SOL    HW253766   5.779  13.419  11.221  0.1107 -0.7957  0.7738
47263SOL     OW53767  12.978   3.485   0.739 -0.0578 -0.3989 -0.0237
47263SOL    HW153768  12.978   3.572   0.698 -0.0085  0.8706  2.4618
47263SOL    HW253769  12.885   3.460   0.741 -0.1615 -0.0284 -0.0280
47264SOL     OW53770   8.818  10.859   5.363  0.2032  0.0226 -0.2374
47264SOL    HW153771   8.862  10.858   5.278  1.1755  0.3163  0.2453
47264SOL    HW253772   8.861  10.930   5.411 -0.4275 -0.0528  0.4546
47265SOL     OW53773  10.027   0.872   1.746 -0.1296  0.2316  0.6131
47265SOL    HW153774  10.079   0.932   1.692  2.4004 -0.7806  1.7655
47265SOL    HW253775   9.973   0.824   1.684  1.1043  0.6073 -0.7974
47266SOL     OW53776  12.202   9.657   3.193  0.2092  0.0301 -0.3702
47266SOL    HW153777  12.193   9.748   3.221 -0.5093  0.0724 -0.7067
47266SOL    HW253778  12.208   9.662   3.098 -2.9920 -0.4329 -0.6978
47267SOL     OW53779   3.346   9.617   2.692  0.4168 -0.3689  0.4840
47267SOL    HW153780   3.404   9.692   2.677  0.8201  0.1269  3.7351
47267SOL    HW253781   3.261   9.644   2.658  0.7157  1.3405  1.0248
47268SOL     OW53782  12.768  12.061   0.315  0.4041  0.0154  0.4188
47268SOL    HW153783  12.815  11.990   0.359  3.3287  2.3349  1.4050
47268SOL    HW253784  12.815  12.073   0.232  0.1998  0.9729  0.4285
47269SOL     OW53785   1.045   3.440   5.520 -0.2971  0.3138 -0.5681
47269SOL    HW153786   1.133   3.442   5.558  0.2048  1.6115 -1.7105
47269SOL    HW253787   0.988   3.412   5.592  1.1969 -1.9654 -0.1594
47270SOL     OW53788  10.133   6.157   1.690 -0.3016 -0.2745 -0.0343
47270SOL    HW153789  10.096   6.232   1.645 -1.3876 -0.2558  0.8535
47270SOL    HW253790  10.065   6.130   1.752 -0.0235 -2.1076 -0.4684
47271SOL     OW53791   8.383  12.459   6.439  0.3198  0.1631  0.3686
47271SOL    HW153792   8.345  12.429   6.356  0.8063 -0.2365  0.2898
47271SOL    HW253793   8.401  12.379   6.488 -0.7383  0.4141  1.2280
47272SOL     OW53794   3.540   9.439  11.466  0.1402 -0.4795 -0.3070
47272SOL    HW153795   3.524   9.452  11.372  0.3812 -0.4372 -0.3438
47272SOL    HW253796   3.595   9.360  11.469 -0.6176 -1.0165 -0.1444
47273SOL     OW53797   6.813   7.900   2.042  0.0294  0.1487 -0.2620
47273SOL    HW153798   6.851   7.967   2.099 -0.5527  0.0969  0.1990
47273SOL    HW253799   6.888   7.854   2.005  0.4097 -0.7116  1.5179
47274SOL     OW53800   0.260   2.281   4.481  0.7367  0.0992  0.2562
47274SOL    HW153801   0.242   2.375   4.481 -1.0230 -0.1903 -0.5874
47274SOL    HW253802   0.305   2.265   4.564 -1.6433  1.2193  1.8709
47275SOL     OW53803   4.155   8.451   5.872 -0.0691 -0.6105 -0.0317
47275SOL    HW153804   4.187   8.474   5.785 -0.7194  0.1601 -0.0810
47275SOL    HW253805   4.096   8.523   5.896 -0.9634 -1.4842  0.4742
47276SOL     OW53806   4.922   1.604   0.523  0.2055  0.1574  0.2722
47276SOL    HW153807   4.866   1.653   0.583 -2.0265  0.3006 -1.8082
47276SOL    HW253808   4.887   1.621   0.436  0.6486 -3.3695 -0.7719
47277SOL     OW53809   4.099   4.594   8.414  0.1251  0.1534 -1.2329
47277SOL    HW153810   4.105   4.626   8.504  0.5872 -2.3941 -0.2649
47277SOL    HW253811   4.023   4.639   8.378 -0.7383  0.4542  0.8024
47278SOL     OW53812   3.411   4.745  12.346 -0.4577 -0.1876 -0.0305
47278SOL    HW153813   3.497   4.705  12.357 -0.5224 -0.3505 -0.1205
47278SOL    HW253814   3.360   4.715  12.422  0.2748  1.7963  1.3437
47279SOL     OW53815   3.070   4.052   8.853 -0.3432  0.0526  0.0430
47279SOL    HW153816   3.074   4.119   8.921  0.1766 -1.1573  1.2522
47279SOL    HW253817   2.982   4.017   8.858 -0.3360  0.0310  0.0207
47280SOL     OW53818  13.625   2.464  12.122  0.0245 -0.0785 -0.1037
47280SOL    HW153819  13.554   2.470  12.058 -0.6013  0.6269  0.6387
47280SOL    HW253820  13.585   2.489  12.205  0.7234 -1.3466  0.6605
47281SOL     OW53821  11.145   8.050   4.504  0.5536  0.5359  0.0668
47281SOL    HW153822  11.216   8.007   4.456  1.3838  0.0174  1.6774
47281SOL    HW253823  11.146   8.008   4.590 -1.0863  1.2049  0.4451
47282SOL     OW53824   8.430   2.900   3.070 -0.4664  0.7051  0.0846
47282SOL    HW153825   8.462   2.865   3.153  1.6454  1.4978 -0.3575
47282SOL    HW253826   8.356   2.955   3.095 -0.3586  0.3183  1.3442
47283SOL     OW53827  11.709   9.567   1.298  0.2105  0.1983 -0.2210
47283SOL    HW153828  11.747   9.642   1.345 -0.4641 -1.6874  3.6896
47283SOL    HW253829  11.785   9.521   1.262  0.8972  0.8599  0.3411
47284SOL     OW53830  11.748   1.835  12.659 -0.5741 -0.3052  0.0754
47284SOL    HW153831  11.746   1.904  12.592 -2.4132 -0.6126 -0.2334
47284SOL    HW253832  11.719   1.756  12.614  1.4699 -1.3296  0.4409
47285SOL     OW53833  10.623   5.703  12.149 -0.4980  0.1649 -0.3835
47285SOL    HW153834  10.639   5.739  12.062  1.8497  3.5298  1.2489
47285SOL    HW253835  10.542   5.746  12.178  0.1589  1.1158  0.0673
47286SOL     OW53836   8.329   6.807   8.831  0.3063 -0.2482 -0.3812
47286SOL    HW153837   8.367   6.795   8.745  1.6358 -0.5837  0.2378
47286SOL    HW253838   8.235   6.814   8.814  0.3962 -1.6931 -1.7142
47287SOL     OW53839   0.211  11.326  13.990  0.0511 -0.0693  0.2627
47287SOL    HW153840   0.208  11.400  13.929 -1.2064 -1.1788 -1.0858
47287SOL    HW253841   0.304  11.312  14.006  0.3477  1.1859 -0.2057
47288SOL     OW53842  11.215   3.118   5.792  0.5227 -0.2922 -0.5134
47288SOL    HW153843  11.124   3.137   5.771  0.5210 -0.1304 -0.3624
47288SOL    HW253844  11.264   3.193   5.757  0.6320 -0.5307 -0.8756
47289SOL     OW53845  10.810   3.395  11.365 -0.4073  0.2262  0.1492
47289SOL    HW153846  10.762   3.319  11.400 -0.3485 -0.3004 -0.8907
47289SOL    HW253847  10.877   3.413  11.431 -1.5215  0.4829  1.2481
47290SOL     OW53848   5.618   5.745   6.648 -0.3185  0.2346 -0.4034
47290SOL    HW153849   5.597   5.662   6.692  1.2712 -0.4698 -0.9046
47290SOL    HW253850   5.666   5.796   6.714 -2.0798  1.1787  0.2107
47291SOL     OW53851   7.645  11.177   6.095 -0.1401  0.2347  0.1558
47291SOL    HW153852   7.595  11.126   6.032  0.6127  2.1840 -2.2089
47291SOL    HW253853   7.731  11.188   6.054  0.5656  1.1549  1.7853
47292SOL     OW53854   1.468  12.397  10.080  0.7101 -0.6420 -0.0709
47292SOL    HW153855   1.557  12.369  10.101  0.6293  0.1072  1.4821
47292SOL    HW253856   1.427  12.411  10.166 -0.4890  0.2831 -0.7630
47293SOL     OW53857  13.857   0.229   4.101  0.0942  0.6193  0.1834
47293SOL    HW153858  13.787   0.198   4.044 -0.4347  1.0009  0.6164
47293SOL    HW253859  13.877   0.317   4.069 -1.5970  1.6648  1.7869
47294SOL     OW53860  13.407   5.924   9.513 -0.1107  0.0628  0.0782
47294SOL    HW153861  13.315   5.908   9.495 -0.2610  1.2074 -0.2711
47294SOL    HW253862  13.448   5.838   9.507 -1.2806 -0.5882  1.0931
47295SOL     OW53863  11.827   9.046   4.501  0.9299 -0.0380 -0.3646
47295SOL    HW153864  11.836   8.951   4.486 -0.3744 -0.8374  2.9713
47295SOL    HW253865  11.740   9.067   4.469  1.0952 -0.0288 -0.8134
47296SOL     OW53866   7.465   5.452   4.830  0.1980  0.1293 -0.2897
47296SOL    HW153867   7.382   5.459   4.783  0.8673  2.6774 -1.2460
47296SOL    HW253868   7.482   5.358   4.836 -2.7374 -0.4676 -0.0173
47297SOL     OW53869   5.991  13.830  12.721 -0.0066 -0.0233  0.4518
47297SOL    HW153870   5.948  13.862  12.800 -1.0661  1.1476 -0.5414
47297SOL    HW253871   6.001  13.909  12.666  1.1634 -0.7133 -0.3697
47298SOL     OW53872   1.672   4.456  12.849  0.4026 -0.0914 -0.1245
47298SOL    HW153873   1.690   4.376  12.898 -2.1431 -0.3728  0.5302
47298SOL    HW253874   1.681   4.526  12.914 -0.9477 -0.2609  0.2817
47299SOL     OW53875  14.028   1.409   1.687 -0.3731 -0.1379  0.0794
47299SOL    HW153876  14.071   1.386   1.770  0.0807 -0.5562 -0.2599
47299SOL    HW253877  13.987   1.494   1.703  1.5382  0.8319  0.1046
47300SOL     OW53878   6.406   7.386   8.136  0.0522  0.1044 -0.0465
47300SOL    HW153879   6.387   7.402   8.044  0.0456  0.0990 -0.0465
47300SOL    HW253880   6.407   7.290   8.144  1.1503  0.0772 -0.2740
47301SOL     OW53881   1.399  13.244   1.899  0.4309 -0.1412 -0.3763
47301SOL    HW153882   1.363  13.315   1.847  4.6083  2.3616 -0.2653
47301SOL    HW253883   1.352  13.248   1.982 -1.4073  0.4883 -1.3926
47302SOL     OW53884  10.048   9.043   9.242  0.5633 -0.1802  0.1017
47302SOL    HW153885  10.009   9.034   9.155  1.2209  0.7192 -0.3041
47302SOL    HW253886   9.974   9.056   9.301  0.1947  1.0647 -0.5945
47303SOL     OW53887   3.039   1.136   9.631 -0.0269 -0.4842 -0.2316
47303SOL    HW153888   2.956   1.091   9.615 -0.4725  0.4504 -0.6545
47303SOL    HW253889   3.015   1.229   9.636  0.9248 -0.2442  0.1537
47304SOL     OW53890  10.005   1.049  12.070 -0.2959  0.1453  0.2063
47304SOL    HW153891  10.099   1.065  12.080  0.4981 -2.5293 -1.9316
47304SOL    HW253892   9.971   1.132  12.036  0.2414  2.7894  5.0566
47305SOL     OW53893  12.285  12.751  12.200 -0.3837 -0.2872  0.2943
47305SOL    HW153894  12.244  12.818  12.146 -1.3931 -2.0608 -1.2686
47305SOL    HW253895  12.325  12.799  12.273 -0.7359  1.9971 -0.9450
47306SOL     OW53896  12.687   2.447   0.646  0.0848 -0.2679  0.4360
47306SOL    HW153897  12.677   2.540   0.623 -0.3874 -0.3146  0.4490
47306SOL    HW253898  12.751   2.448   0.718 -1.9882  0.3243  2.3804
47307SOL     OW53899   9.480   3.228   6.747  0.2196 -0.3309  0.4910
47307SOL    HW153900   9.464   3.214   6.841  0.0404  1.5171  0.7861
47307SOL    HW253901   9.401   3.195   6.704 -0.4278  0.2969  1.1532
47308SOL     OW53902  11.117  10.806   1.269  0.0494 -0.0040 -0.1221
47308SOL    HW153903  11.132  10.895   1.300  1.7341 -0.0578 -0.6552
47308SOL    HW253904  11.195  10.786   1.216  0.1480 -2.1140  0.7222
47309SOL     OW53905   5.197  12.354   8.441 -0.0753 -0.0524  0.1480
47309SOL    HW153906   5.113  12.400   8.435 -1.5389 -2.4505  0.8045
47309SOL    HW253907   5.210  12.316   8.354 -0.3249 -0.7501  0.4150
47310SOL     OW53908  13.485   8.836   9.393  0.1356  0.4884  0.6121
47310SOL    HW153909  13.531   8.863   9.472  0.2077  0.7376  0.4881
47310SOL    HW253910  13.534   8.877   9.322  0.6201 -0.4899  0.3626
47311SOL     OW53911   0.593   0.775   0.688  0.3744 -0.3428 -0.1106
47311SOL    HW153912   0.684   0.750   0.670  0.5279 -0.8078  1.1967
47311SOL    HW253913   0.599   0.844   0.754 -0.2044  0.1454 -0.5581
47312SOL     OW53914   6.388  11.062   3.421  0.2514  0.5825  0.3693
47312SOL    HW153915   6.422  11.010   3.494  0.1150 -2.6733 -1.7352
47312SOL    HW253916   6.463  11.113   3.391  1.4272 -1.1318  0.2696
47313SOL     OW53917   5.428   3.816   7.689  0.7202 -0.3914 -0.1591
47313SOL    HW153918   5.345   3.821   7.736  1.6156  0.6091  1.4024
47313SOL    HW253919   5.495   3.832   7.756  2.1494 -0.5612 -1.4798
47314SOL     OW53920   0.423   1.003   3.249  0.3774 -0.0641 -0.2236
47314SOL    HW153921   0.347   0.979   3.301 -0.3353  1.6987 -0.4092
47314SOL    HW253922   0.392   1.072   3.190  1.4015 -1.2909 -2.3283
47315SOL     OW53923   4.824   1.206   3.355 -0.4661 -0.5287  0.5772
47315SOL    HW153924   4.907   1.218   3.309  0.2689 -4.1460  0.6517
47315SOL    HW253925   4.760   1.250   3.299  1.2382  0.9037 -0.3701
47316SOL     OW53926   7.614  13.796   4.658  0.2241 -0.4373  0.0887
47316SOL    HW153927   7.591  13.706   4.633  1.3564 -0.4519 -1.0220
47316SOL    HW253928   7.550  13.850   4.612  0.2268 -0.6220 -0.1362
47317SOL     OW53929   7.958  13.118  12.586 -0.3082 -0.1372  0.4245
47317SOL    HW153930   8.009  13.112  12.667  1.0218 -0.7166 -0.4452
47317SOL    HW253931   8.003  13.062  12.524 -1.8605 -0.4677 -0.4688
47318SOL     OW53932   1.024   4.281   8.435 -0.2705 -0.5643  0.5970
47318SOL    HW153933   1.104   4.316   8.475 -0.1698  1.7847 -1.4345
47318SOL    HW253934   0.967   4.261   8.509  0.8313  1.1961  2.0129
47319SOL     OW53935  12.524   6.954  12.574  0.5541  0.2648 -0.0004
47319SOL    HW153936  12.504   7.031  12.627  1.2723  0.8717 -0.5798
47319SOL    HW253937  12.616   6.965  12.550  0.5281 -0.5250 -0.5077
47320SOL     OW53938   4.787  11.509   4.773 -0.4081  0.6184  0.0642
47320SOL    HW153939   4.757  11.505   4.682 -0.9440  1.7107  0.1851
47320SOL    HW253940   4.751  11.591   4.807 -0.7293 -0.0737  1.4522
47321SOL     OW53941  12.846   2.632   0.338 -0.0917  0.9776 -0.6288
47321SOL    HW153942  12.929   2.631   0.385 -0.1948  0.5691 -0.4548
47321SOL    HW253943  12.817   2.541   0.337  1.1195  0.5139 -3.6664
47322SOL     OW53944  10.457   2.870   6.123 -0.2646  0.2316  0.1203
47322SOL    HW153945  10.461   2.964   6.136  0.9386  0.1814  0.2539
47322SOL    HW253946  10.465   2.859   6.028  1.8414  0.2199  0.2406
47323SOL     OW53947   6.094  11.049   1.118 -0.4695 -0.7869  0.0855
47323SOL    HW153948   6.036  11.118   1.084  2.3171  3.1062  2.3523
47323SOL    HW253949   6.167  11.046   1.056  1.1605  1.1468  1.7575
47324SOL     OW53950   9.712   8.087   3.197  0.2793  0.2620 -0.1946
47324SOL    HW153951   9.673   8.129   3.274  0.1902  2.1948 -1.2201
47324SOL    HW253952   9.796   8.053   3.228  0.0422  0.5875  0.8520
47325SOL     OW53953  10.729   2.140  11.196  0.0990  0.1672  0.4077
47325SOL    HW153954  10.743   2.176  11.284  0.2154  0.4404  0.2770
47325SOL    HW253955  10.639   2.162  11.175  0.1478  0.3247  0.3578
47326SOL     OW53956   3.923  12.301  13.577  0.2300  0.4721 -0.5446
47326SOL    HW153957   3.834  12.267  13.582  0.3310 -0.1985 -2.3560
47326SOL    HW253958   3.913  12.396  13.572 -0.2538  0.5328  1.1851
47327SOL     OW53959   2.124   9.750   7.172  0.5499 -0.6222  0.3425
47327SOL    HW153960   2.036   9.732   7.206  0.2326 -0.7164 -0.5113
47327SOL    HW253961   2.156   9.664   7.143  0.1569 -0.3151 -1.1012
47328SOL     OW53962   5.649   5.117  12.481 -0.2357 -0.4570 -0.6436
47328SOL    HW153963   5.608   5.065  12.411  1.0706 -1.5329 -0.6510
47328SOL    HW253964   5.726   5.155  12.440  0.1832 -0.5595  0.0365
47329SOL     OW53965  13.628   4.080   8.087 -0.2524 -0.4574  0.0262
47329SOL    HW153966  13.569   4.071   8.162 -0.9264 -0.4251 -0.4849
47329SOL    HW253967  13.571   4.069   8.011  0.4814 -0.8455 -0.4791
47330SOL     OW53968  12.446   8.702   2.383 -0.0710  0.5880 -0.4317
47330SOL    HW153969  12.366   8.745   2.414 -1.0279 -0.7575 -0.9575
47330SOL    HW253970  12.438   8.611   2.412  0.7893  0.1981 -1.3383
47331SOL     OW53971   4.116   4.467   0.794 -0.2898 -0.3058  0.8031
47331SOL    HW153972   4.037   4.484   0.846  0.9924  1.8447  2.2166
47331SOL    HW253973   4.089   4.485   0.704 -1.8661 -1.4852  0.9908
47332SOL     OW53974  10.733   8.272   1.212 -0.5417  0.3767  0.1384
47332SOL    HW153975  10.810   8.325   1.231 -1.0307  0.8668  0.8347
47332SOL    HW253976  10.734   8.203   1.278 -1.2473  0.9982  0.8271
47333SOL     OW53977   4.308   3.589   1.943  0.1354 -0.3689 -0.3327
47333SOL    HW153978   4.220   3.556   1.963  0.4311  0.6919  3.6770
47333SOL    HW253979   4.366   3.515   1.960  0.1983 -0.2723 -0.1222
47334SOL     OW53980   2.729   3.820   7.159 -0.7789 -0.0753  0.1142
47334SOL    HW153981   2.770   3.787   7.078 -0.4795  0.5713 -0.0022
47334SOL    HW253982   2.768   3.766   7.228 -0.5872 -0.2330 -0.1116
47335SOL     OW53983  11.913   3.986   4.593  0.0255  0.2226 -0.2111
47335SOL    HW153984  11.965   3.996   4.673  0.2451  0.1698 -0.3464
47335SOL    HW253985  11.975   3.952   4.528 -0.2129  0.0197 -0.3343
47336SOL     OW53986   6.554   8.046   5.889 -0.2417  0.0672 -0.1396
47336SOL    HW153987   6.512   7.962   5.905 -0.2914 -0.0181 -0.7179
47336SOL    HW253988   6.482   8.107   5.874 -0.1823  0.0790 -0.3716
47337SOL     OW53989   3.265   4.031   4.370 -0.0943 -0.5876 -0.7659
47337SOL    HW153990   3.296   3.950   4.411  0.1746  0.6848  1.7251
47337SOL    HW253991   3.171   4.018   4.360 -0.0241 -1.2771 -0.5876
47338SOL     OW53992  12.700   7.122   8.288 -0.6124 -0.6632  0.0701
47338SOL    HW153993  12.641   7.098   8.359 -2.3901  1.3246 -0.6440
47338SOL    HW253994  12.742   7.203   8.317  0.2211 -0.9441 -0.3064
47339SOL     OW53995   4.872   5.005   5.417 -0.6896 -0.1577  0.2589
47339SOL    HW153996   4.954   5.030   5.375 -0.8815 -0.1664 -0.1262
47339SOL    HW253997   4.823   4.959   5.349 -1.1875  0.2144  0.3593
47340SOL     OW53998   7.649  13.218  10.746 -0.3751 -0.3293 -0.0655
47340SOL    HW153999   7.566  13.261  10.766 -0.5593 -1.4158  1.7917
47340SOL    HW254000   7.624  13.129  10.720  0.1701 -1.5673  3.1023
47341SOL     OW54001  11.456   6.845   8.645  0.4783  0.2940  0.1276
47341SOL    HW154002  11.471   6.875   8.735 -1.7585 -0.8595  0.9670
47341SOL    HW254003  11.501   6.761   8.640 -0.4716 -0.2722  0.6523
47342SOL     OW54004   0.681  11.487   8.477 -0.0175 -1.0556 -0.4627
47342SOL    HW154005   0.651  11.449   8.560  0.4759 -1.9986 -0.7077
47342SOL    HW254006   0.737  11.560   8.503  1.4192 -2.3189  0.0787
47343SOL     OW54007  13.358   6.591   8.013  1.0474  0.2712 -0.2259
47343SOL    HW154008  13.392   6.632   8.092 -0.8864  0.7423  0.4138
47343SOL    HW254009  13.263   6.588   8.026  0.7850 -0.7529 -2.0084
47344SOL     OW54010   7.396  10.866   8.581 -0.1562  0.5639 -0.0954
47344SOL    HW154011   7.432  10.921   8.650  0.7365 -0.8794  0.6538
47344SOL    HW254012   7.310  10.840   8.613 -0.6121  1.5384 -0.4842
47345SOL     OW54013   0.718   4.380   5.248  0.1006 -0.2437  0.2394
47345SOL    HW154014   0.750   4.330   5.172 -0.2807 -0.3126  0.1185
47345SOL    HW254015   0.628   4.348   5.261 -0.3091  0.7289 -0.1216
47346SOL     OW54016   7.671   8.236  11.571 -0.2984  0.0810 -0.0360
47346SOL    HW154017   7.708   8.148  11.580  0.1149  0.3150  0.6062
47346SOL    HW254018   7.651   8.263  11.661  1.0726  1.2742 -0.0442
47347SOL     OW54019  12.144   1.695   1.205 -0.4196  0.3246  0.4179
47347SOL    HW154020  12.157   1.779   1.162 -4.2874 -0.0630 -2.0572
47347SOL    HW254021  12.095   1.715   1.285  1.8989  0.5973  1.8482
47348SOL     OW54022   8.965   1.892   9.693  0.2583 -0.4813  0.2429
47348SOL    HW154023   8.973   1.928   9.781  1.0022 -0.0240 -0.0014
47348SOL    HW254024   9.050   1.908   9.652 -0.7062  1.2820 -1.2799
47349SOL     OW54025   2.051   2.247   1.538 -0.4566 -0.0335 -0.3856
47349SOL    HW154026   2.096   2.169   1.568  1.6515 -0.1242 -3.3662
47349SOL    HW254027   1.964   2.242   1.579  0.7247 -2.0964  2.1649
47350SOL     OW54028  11.569  13.548   7.686  0.1299  0.1978  0.6333
47350SOL    HW154029  11.549  13.509   7.771  1.1516  0.0772  0.8325
47350SOL    HW254030  11.527  13.491   7.623 -1.3188  0.7285  1.0782
47351SOL     OW54031   1.964   8.367   9.119  0.2403 -0.1588 -0.3195
47351SOL    HW154032   1.964   8.328   9.031 -0.2345 -0.7054 -0.0853
47351SOL    HW254033   1.962   8.292   9.178  2.3615  0.1404  0.2134
47352SOL     OW54034   3.237   1.250  11.833 -0.6330 -0.8644 -0.1935
47352SOL    HW154035   3.243   1.309  11.909 -0.6384 -1.0744 -0.0312
47352SOL    HW254036   3.265   1.304  11.759 -1.4522 -0.3887 -0.1802
47353SOL     OW54037  11.060  13.920   5.159  0.0139 -0.7090  0.2216
47353SOL    HW154038  11.123  13.979   5.118 -0.9055  0.5216  0.5114
47353SOL    HW254039  11.098  13.899   5.244 -0.0504  0.2339  0.4989
47354SOL     OW54040  12.573  10.354  12.632  0.1297  0.1987 -0.5442
47354SOL    HW154041  12.551  10.285  12.695 -0.3425 -0.6148 -1.5632
47354SOL    HW254042  12.504  10.420  12.643 -0.6190 -0.4911 -0.9941
47355SOL     OW54043   8.076   8.021   3.961 -0.1962  0.0263  0.5142
47355SOL    HW154044   8.099   7.988   4.049 -1.5146 -1.3834  0.3785
47355SOL    HW254045   8.160   8.036   3.919  0.5597 -2.5128  0.9058
47356SOL     OW54046   5.603  13.663   2.712 -0.1880  0.1047  0.6528
47356SOL    HW154047   5.601  13.750   2.670 -0.5859 -0.9824 -1.7776
47356SOL    HW254048   5.511  13.642   2.726 -0.0739  0.2259  1.6317
47357SOL     OW54049   0.697  10.488  11.634  0.0794  0.0919  0.1930
47357SOL    HW154050   0.640  10.410  11.633 -0.1682  0.2661 -0.6512
47357SOL    HW254051   0.746  10.482  11.552 -0.5305  1.2456 -0.2787
47358SOL     OW54052   7.097  13.838  12.027  0.1999  0.5274  0.4630
47358SOL    HW154053   7.084  13.744  12.024 -0.9601  0.6464  1.1804
47358SOL    HW254054   7.179  13.853  11.980 -0.5829 -0.6365 -1.3474
47359SOL     OW54055   8.770   6.379   1.865  0.7585 -0.2641  0.1820
47359SOL    HW154056   8.771   6.430   1.946  0.6699 -1.1335  0.7467
47359SOL    HW254057   8.734   6.439   1.799  0.2805  0.2694  0.9092
47360SOL     OW54058   8.744   4.212   9.866 -0.0374 -0.5623 -0.0760
47360SOL    HW154059   8.754   4.120   9.844 -0.8156 -0.1357 -2.5037
47360SOL    HW254060   8.817   4.230   9.926 -0.5217 -2.9615  1.3624
47361SOL     OW54061   2.111   6.251   8.481  0.1909 -0.2602  0.1162
47361SOL    HW154062   2.086   6.270   8.391 -3.6910 -0.8450  0.8864
47361SOL    HW254063   2.133   6.158   8.480  0.2785 -0.2377 -0.2597
47362SOL     OW54064   6.453   7.208   0.913  0.4768 -0.2707  1.2009
47362SOL    HW154065   6.516   7.179   0.979  0.9207  0.1570  0.9753
47362SOL    HW254066   6.413   7.287   0.951  1.1508  0.3121  0.7260
47363SOL     OW54067   8.928   8.239  12.217  0.2757  0.2047 -0.6208
47363SOL    HW154068   8.893   8.294  12.146 -2.2872  0.4394  0.7065
47363SOL    HW254069   8.984   8.176  12.172  1.9538  2.7543 -2.3911
47364SOL     OW54070   7.043   3.818   7.964  0.2566  0.3576  0.1985
47364SOL    HW154071   6.983   3.848   8.032  1.2225 -0.4397  1.4400
47364SOL    HW254072   7.121   3.872   7.975  0.1803  0.6637 -0.7060
47365SOL     OW54073  10.047  10.101  11.683  0.0190  0.1648  0.5184
47365SOL    HW154074  10.055  10.099  11.779 -2.5389  2.7953  0.9618
47365SOL    HW254075  10.137  10.105  11.651  0.9767 -1.5779  2.7301
47366SOL     OW54076  10.690   5.918   1.722  0.4250 -0.1359  0.1144
47366SOL    HW154077  10.727   5.977   1.657  0.2614  1.2922  1.2761
47366SOL    HW254078  10.621   5.871   1.675 -1.2571  2.4967 -0.2225
47367SOL     OW54079   2.606   8.982   4.807  0.6947  0.1140 -0.3688
47367SOL    HW154080   2.669   8.910   4.810  0.0162 -0.4389  1.4238
47367SOL    HW254081   2.649   9.054   4.852  0.4624  0.0670 -0.0652
47368SOL     OW54082  12.904   6.570  10.695 -0.3741 -0.5724 -0.1979
47368SOL    HW154083  12.880   6.520  10.617 -2.9333  0.0599  0.1014
47368SOL    HW254084  12.882   6.512  10.768  0.2355 -0.4456  0.0871
47369SOL     OW54085   0.495   6.641  13.953  0.1323 -0.0145 -0.4707
47369SOL    HW154086   0.564   6.575  13.958 -0.0228 -0.1306  0.4039
47369SOL    HW254087   0.439   6.622  14.029 -0.3388  0.6503 -0.6426
47370SOL     OW54088  13.364   5.517   9.024 -0.0876  0.0664 -0.2948
47370SOL    HW154089  13.338   5.446   8.965 -0.0483  0.5546 -0.9080
47370SOL    HW254090  13.281   5.550   9.059 -0.1616  0.2452 -0.6337
47371SOL     OW54091  13.253   0.130   5.175  0.3609  0.0285  0.0150
47371SOL    HW154092  13.165   0.098   5.194  0.5838 -1.7960 -1.6313
47371SOL    HW254093  13.267   0.202   5.236 -2.0602  0.0216  0.6581
47372SOL     OW54094   9.116   2.085  12.320 -0.2808  1.0391 -0.1905
47372SOL    HW154095   9.200   2.112  12.355 -0.4240 -0.1189  1.1198
47372SOL    HW254096   9.087   2.015  12.378 -0.9680 -0.3318 -2.0841
47373SOL     OW54097  10.784   0.475   0.961  0.4479  0.1406  0.6790
47373SOL    HW154098  10.752   0.471   1.051 -0.5754 -0.8039  0.2976
47373SOL    HW254099  10.746   0.398   0.918  1.6115  0.1050 -0.3470
47374SOL     OW54100  12.576   7.556   5.930  0.2344  0.0705  0.0636
47374SOL    HW154101  12.650   7.562   5.870  1.0085 -0.7711  0.8998
47374SOL    HW254102  12.605   7.497   5.999 -0.6073  1.0363  1.3030
47375SOL     OW54103   3.105  12.831  11.315  0.1013  0.1854 -0.1040
47375SOL    HW154104   3.163  12.756  11.328  0.5123  0.6295  0.7150
47375SOL    HW254105   3.118  12.857  11.225  1.5846  0.6100  0.2162
47376SOL     OW54106   9.030   0.903  10.159 -0.7379  0.0863  0.3943
47376SOL    HW154107   9.027   0.871  10.249 -1.4242 -0.0908  0.3174
47376SOL    HW254108   9.032   0.998  10.168 -1.9057  0.1137  0.6008
47377SOL     OW54109   5.571   2.934  10.384  0.1520  0.3970 -0.9227
47377SOL    HW154110   5.487   2.896  10.409 -0.2542  1.2717 -0.9113
47377SOL    HW254111   5.591   2.995  10.456  1.7985 -1.2650  0.1045
47378SOL     OW54112   3.873   7.342   6.455 -0.0195  0.3112 -0.1914
47378SOL    HW154113   3.866   7.424   6.406  1.2726  1.5538  1.5621
47378SOL    HW254114   3.964   7.315   6.445 -0.1729 -0.3570  0.0970
47379SOL     OW54115  10.784   6.664  12.566 -0.4260 -0.1367 -0.5031
47379SOL    HW154116  10.860   6.691  12.618 -1.1030 -1.6277  1.3761
47379SOL    HW254117  10.820   6.643  12.480  1.0628  0.5431 -0.0748
47380SOL     OW54118   9.782   2.320  13.788  0.2900  0.5659 -0.1675
47380SOL    HW154119   9.687   2.310  13.792  0.4633 -1.1089  1.1136
47380SOL    HW254120   9.811   2.247  13.733  0.8176  1.2959 -0.8761
47381SOL     OW54121   6.989  11.971  11.025 -0.2872 -0.2614  0.1276
47381SOL    HW154122   6.926  12.037  10.998  1.9090  2.0084  0.1196
47381SOL    HW254123   6.986  11.904  10.956 -2.4204 -0.0964  0.0106
47382SOL     OW54124   7.437  12.866   0.606 -0.5425  0.2201 -0.0634
47382SOL    HW154125   7.516  12.899   0.562 -0.0856  0.2143  0.7403
47382SOL    HW254126   7.366  12.887   0.545  0.3717 -2.7510 -2.4700
47383SOL     OW54127   0.044   1.290  12.797 -0.3373 -0.0457 -0.1621
47383SOL    HW154128   0.054   1.353  12.725 -2.4165 -1.7920 -2.1104
47383SOL    HW254129  -0.048   1.296  12.821  0.4571  1.1409  3.1356
47384SOL     OW54130  11.371   6.980  10.656  0.2017  0.4556  0.4189
47384SOL    HW154131  11.453   7.013  10.693  0.6499  1.4394 -1.2966
47384SOL    HW254132  11.397   6.937  10.575 -0.8233 -0.8240  0.7315
47385SOL     OW54133   3.475  11.377   4.092 -0.1170 -0.0533  0.6103
47385SOL    HW154134   3.556  11.333   4.068  0.7453  1.1331  1.2329
47385SOL    HW254135   3.417  11.364   4.017  0.4697 -1.3245  0.3617
47386SOL     OW54136   6.181   5.423   5.865  0.0359  0.4331  0.7292
47386SOL    HW154137   6.132   5.375   5.932  0.1215  1.8077  1.8340
47386SOL    HW254138   6.121   5.493   5.838 -0.0132 -0.1319 -0.6952
47387SOL     OW54139   7.872  13.718   4.638  0.3111 -0.0230  0.5754
47387SOL    HW154140   7.873  13.650   4.571  0.4094  0.2487  0.3020
47387SOL    HW254141   7.780  13.746   4.644  0.5413  1.0604 -0.5694
47388SOL     OW54142   7.988   2.485   8.444  0.7290 -0.0448 -0.1956
47388SOL    HW154143   8.024   2.512   8.360 -0.1980  2.3664  0.0975
47388SOL    HW254144   8.052   2.514   8.509  0.9638 -0.9865  0.0104
47389SOL     OW54145  11.892   2.323   7.251 -0.3302  0.3086 -0.2286
47389SOL    HW154146  11.797   2.312   7.239 -1.0434  3.2768  1.6234
47389SOL    HW254147  11.929   2.238   7.227 -3.4326 -0.9463 -1.1022
47390SOL     OW54148   3.142  13.637  11.852 -0.0634  0.9771 -0.1982
47390SOL    HW154149   3.115  13.546  11.863  1.4984  0.4162 -0.7744
47390SOL    HW254150   3.105  13.683  11.927 -2.0751  0.1710 -0.6351
47391SOL     OW54151   9.768  10.823   1.746  0.0881 -0.3494 -0.2999
47391SOL    HW154152   9.728  10.783   1.823  0.0844 -0.5142 -0.3855
47391SOL    HW254153   9.835  10.760   1.718  0.3427 -0.1177 -0.2128
47392SOL     OW54154   4.006  11.461   4.899  0.0098 -0.5485 -0.1952
47392SOL    HW154155   3.972  11.550   4.889 -1.3722 -0.8105  1.7230
47392SOL    HW254156   4.022  11.452   4.992  0.7657 -2.1077 -0.4566
47393SOL     OW54157   4.942  12.359   6.572  0.3928  0.3693  0.5597
47393SOL    HW154158   4.989  12.275   6.570 -0.5183 -0.1540 -1.3712
47393SOL    HW254159   4.871  12.345   6.634  0.0075 -0.4467 -0.0425
47394SOL     OW54160   8.465  13.879   5.738  0.1151 -0.3831 -0.0292
47394SOL    HW154161   8.528  13.950   5.727  0.8929 -0.8958  0.9626
47394SOL    HW254162   8.380  13.924   5.745  0.3237  0.2953 -1.5603
47395SOL     OW54163   0.745   4.970   8.997 -0.1251  0.4879  0.4111
47395SOL    HW154164   0.731   5.037   9.064 -0.3642  0.9738 -0.1124
47395SOL    HW254165   0.822   4.922   9.026 -0.9837 -0.1704  1.7179
47396SOL     OW54166   5.635   6.215  10.386 -0.3701 -0.2021 -0.3845
47396SOL    HW154167   5.692   6.214  10.464  1.6344  0.7859 -1.7414
47396SOL    HW254168   5.546   6.217  10.421  0.4611  0.1091  1.8800
47397SOL     OW54169   4.489   4.013   4.881  0.1052 -0.2746  0.3462
47397SOL    HW154170   4.423   3.960   4.924 -1.1102  1.2110  0.3715
47397SOL    HW254171   4.467   4.009   4.788 -0.1850  0.4311  0.3800
47398SOL     OW54172   2.378   2.369   4.224  0.3957 -0.8184  0.4706
47398SOL    HW154173   2.451   2.401   4.170 -0.9181  1.7440  0.0336
47398SOL    HW254174   2.410   2.378   4.314  0.4290  1.0164  0.3222
47399SOL     OW54175   1.343   4.012   0.631  0.1316 -0.1654  0.0739
47399SOL    HW154176   1.333   4.099   0.669  1.2128 -0.3959  0.9231
47399SOL    HW254177   1.309   3.952   0.697  1.5865 -0.5348  0.5249
47400SOL     OW54178   1.787   7.595   4.754  0.3143  0.9583 -0.0672
47400SOL    HW154179   1.871   7.582   4.798  0.6536 -1.0339 -1.1785
47400SOL    HW254180   1.722   7.554   4.812  0.4772  0.2740 -0.3496
47401SOL     OW54181  10.791   2.314   3.373  0.0963  0.2110  0.6292
47401SOL    HW154182  10.786   2.334   3.467 -0.4852 -1.0231  0.8834
47401SOL    HW254183  10.777   2.219   3.368 -1.2222  0.4381 -0.8060
47402SOL     OW54184  13.274  13.395  13.985 -0.1068 -0.3161 -0.0149
47402SOL    HW154185  13.312  13.395  13.897  2.2412 -0.6782  0.9101
47402SOL    HW254186  13.313  13.319  14.028 -2.1223 -0.8343  0.9987
47403SOL     OW54187  10.773   8.621   1.814 -0.6435  0.0665  0.7189
47403SOL    HW154188  10.769   8.682   1.888  0.7186  1.2341 -0.0918
47403SOL    HW254189  10.695   8.641   1.762 -0.6922  0.4756  0.9444
47404SOL     OW54190  10.199  13.726  10.982 -0.0536  0.3702 -0.7282
47404SOL    HW154191  10.155  13.804  11.015  0.0634  0.0579  0.1900
47404SOL    HW254192  10.239  13.754  10.899 -1.6049  0.7799 -1.3848
47405SOL     OW54193   5.283   7.882   7.641  0.1736  0.1913 -0.0071
47405SOL    HW154194   5.357   7.851   7.692 -0.1776 -0.1965  0.2715
47405SOL    HW254195   5.319   7.900   7.554  0.7818  0.9077  0.3852
47406SOL     OW54196   0.979  11.066   3.704  0.2465  0.2840 -0.0415
47406SOL    HW154197   1.018  11.102   3.624 -0.7591  1.5643  0.0229
47406SOL    HW254198   0.904  11.016   3.672 -1.6140  2.7520  0.1794
47407SOL     OW54199   0.766   0.288   6.369  0.1853  0.3673 -0.0611
47407SOL    HW154200   0.760   0.354   6.299  0.4558  1.4283  0.8817
47407SOL    HW254201   0.691   0.230   6.354 -0.1499  0.9815 -0.8358
47408SOL     OW54202  11.899  11.501   1.147  0.1428 -0.0899  0.2082
47408SOL    HW154203  11.884  11.409   1.126 -1.7739 -0.1036  1.4418
47408SOL    HW254204  11.869  11.549   1.069  1.3110 -0.4758 -0.5101
47409SOL     OW54205  12.537   1.538   9.156  0.5426  0.3904  0.1358
47409SOL    HW154206  12.449   1.570   9.136 -0.8457 -1.6375  2.4726
47409SOL    HW254207  12.571   1.601   9.220 -0.1803 -0.0340  0.9640
47410SOL     OW54208   3.195   5.951   1.522  0.3929  0.1207  0.6431
47410SOL    HW154209   3.190   5.915   1.611 -1.2359  0.2674  0.6302
47410SOL    HW254210   3.198   6.046   1.535  0.3696  0.1344  0.5467
47411SOL     OW54211  10.555   7.519  12.114 -0.5894 -0.1985 -0.5042
47411SOL    HW154212  10.552   7.485  12.203 -0.6384  0.3921 -0.2767
47411SOL    HW254213  10.472   7.567  12.104  0.1909  1.2478 -0.2507
47412SOL     OW54214  12.562   7.776   7.524  0.5523  0.1242 -0.1166
47412SOL    HW154215  12.550   7.737   7.611  0.5810 -1.3854 -0.7553
47412SOL    HW254216  12.638   7.731   7.488  0.2537  0.3872 -1.1075
47413SOL     OW54217  10.678   2.619   7.259 -0.1042  0.1658 -0.3955
47413SOL    HW154218  10.637   2.546   7.305  0.9318 -0.8734 -1.0527
47413SOL    HW254219  10.630   2.625   7.176  0.0881 -0.0696 -0.5265
47414SOL     OW54220   9.196   1.521   7.653 -0.4438  0.8084 -0.5445
47414SOL    HW154221   9.254   1.486   7.721  0.5102 -0.7636 -2.0514
47414SOL    HW254222   9.248   1.590   7.611 -0.4144  0.7190 -0.6558
47415SOL     OW54223   6.322   0.493   9.990  0.2598  0.0900 -0.3534
47415SOL    HW154224   6.345   0.442   9.913  0.6828 -1.7417  0.9152
47415SOL    HW254225   6.227   0.485   9.996 -0.0718  2.0905 -1.8558
47416SOL     OW54226  11.231   3.455  11.662  0.0317  0.0623 -0.3423
47416SOL    HW154227  11.174   3.417  11.729 -1.0041  0.4803 -0.9498
47416SOL    HW254228  11.313   3.406  11.668  0.4384  0.8984  2.0633
47417SOL     OW54229   9.172   9.247  11.833 -0.4787 -0.1559 -0.1754
47417SOL    HW154230   9.156   9.220  11.924  2.4315 -0.2888  0.4199
47417SOL    HW254231   9.152   9.340  11.832 -0.1618 -0.0636  0.7587
47418SOL     OW54232   9.879   4.727   0.492 -0.6961 -0.4647  0.3242
47418SOL    HW154233   9.922   4.648   0.458 -1.8814 -0.7322 -0.6209
47418SOL    HW254234   9.825   4.695   0.564 -2.4490 -0.8515 -1.0793
47419SOL     OW54235   6.266  11.520   2.017 -0.0572  0.0775 -0.1833
47419SOL    HW154236   6.256  11.567   1.934 -0.0941  2.7026  1.1969
47419SOL    HW254237   6.177  11.518   2.054  0.3310  1.1172  0.8535
47420SOL     OW54238   9.483   5.840  12.552  0.4021 -0.5140  0.1405
47420SOL    HW154239   9.548   5.795  12.498 -0.3799 -0.9745 -0.4435
47420SOL    HW254240   9.521   5.925  12.571  0.0732  0.2743 -2.4205
47421SOL     OW54241   0.225   1.029  11.491  0.1443  0.0609  0.0628
47421SOL    HW154242   0.173   1.079  11.428 -1.0853  0.5030  1.3825
47421SOL    HW254243   0.213   0.938  11.465  1.5762  0.3262 -1.7403
47422SOL     OW54244  12.027   8.800   9.205  0.5977  0.4582 -0.5732
47422SOL    HW154245  12.005   8.856   9.280  1.2109  0.0273 -0.0652
47422SOL    HW254246  11.972   8.723   9.216  0.6996  0.3883 -0.5505
47423SOL     OW54247   0.182   5.153  11.004  0.2663  0.5192  0.0369
47423SOL    HW154248   0.129   5.076  11.023  0.5171  0.2799 -0.2255
47423SOL    HW254249   0.266   5.118  10.974  0.1177  0.8890 -0.8397
47424SOL     OW54250   4.662   5.976   1.248  0.0703  0.1034  0.1506
47424SOL    HW154251   4.600   5.913   1.212 -0.2107 -0.2314  1.1673
47424SOL    HW254252   4.697   6.023   1.172 -1.0545 -0.0491 -0.4810
47425SOL     OW54253   9.097   3.863  13.680  0.4272  0.1005 -0.2205
47425SOL    HW154254   9.063   3.810  13.608 -2.1645 -2.2024  2.4246
47425SOL    HW254255   9.173   3.814  13.712 -0.0963 -0.3887  0.2953
47426SOL     OW54256   3.811   9.968   9.627 -0.0538 -0.2552  0.2220
47426SOL    HW154257   3.868   9.901   9.665 -0.2103 -0.4937  0.0352
47426SOL    HW254258   3.830  10.047   9.678  0.3738 -0.3571  0.2234
47427SOL     OW54259   5.532   8.190   0.920  0.5886 -0.8509 -0.3177
47427SOL    HW154260   5.577   8.253   0.863  1.2336 -1.9167 -1.0135
47427SOL    HW254261   5.581   8.192   1.002 -0.3982  0.7600  0.2933
47428SOL     OW54262  11.266   5.988  12.205 -0.6784  0.4663 -0.0057
47428SOL    HW154263  11.289   5.994  12.298 -0.7335  1.9215 -0.0596
47428SOL    HW254264  11.289   5.898  12.180 -0.1161  0.2359  1.2607
47429SOL     OW54265   0.510   9.814   9.678  0.2273 -0.3790  0.5186
47429SOL    HW154266   0.448   9.756   9.720 -0.2594  0.4606  0.9781
47429SOL    HW254267   0.582   9.822   9.740 -0.5716  1.0042  1.3311
47430SOL     OW54268   6.632   6.426   8.737 -0.1566  0.0550 -0.6720
47430SOL    HW154269   6.649   6.453   8.827 -0.1880  0.6049 -0.8268
47430SOL    HW254270   6.570   6.354   8.745 -0.5744  0.4496 -0.2740
47431SOL     OW54271   3.147  12.205   9.087  0.0434 -0.1493  0.1987
47431SOL    HW154272   3.214  12.267   9.056 -0.4632 -0.3476 -1.3945
47431SOL    HW254273   3.112  12.246   9.166 -0.2144  1.6063 -0.7502
47432SOL     OW54274   0.847   0.525  13.645  0.0714  0.2189  0.0703
47432SOL    HW154275   0.818   0.435  13.628 -0.2054  0.2307  0.4477
47432SOL    HW254276   0.921   0.538  13.587 -0.2264 -0.0713 -0.3852
47433SOL     OW54277   9.633   4.714   7.774 -0.5749 -0.5958 -0.1364
47433SOL    HW154278   9.652   4.794   7.724 -0.2664  0.5974  1.7725
47433SOL    HW254279   9.700   4.651   7.745  0.0246  0.2839 -0.7163
47434SOL     OW54280   8.981   3.351   5.020  0.1565  0.0537 -0.5405
47434SOL    HW154281   9.005   3.292   5.092 -2.5960  0.8953  1.2461
47434SOL    HW254282   8.903   3.311   4.982 -1.7828  2.3964  0.7197
47435SOL     OW54283   3.070   9.980   2.047  0.1464  0.4986 -1.2324
47435SOL    HW154284   3.087  10.031   1.968  0.2315  0.0727 -1.4873
47435SOL    HW254285   3.122   9.900   2.037  1.3123  1.0609 -0.0904
47436SOL     OW54286   8.695   8.075   8.676 -0.3678 -0.4509 -0.4266
47436SOL    HW154287   8.750   8.013   8.628 -1.3390 -0.4078 -1.6616
47436SOL    HW254288   8.668   8.027   8.755  0.2275 -1.0032 -0.5486
47437SOL     OW54289   8.317   6.909   6.028  0.6723 -0.5872 -0.1550
47437SOL    HW154290   8.342   6.998   6.053  0.9984 -0.2731 -1.4991
47437SOL    HW254291   8.401   6.863   6.015  0.5345 -0.6415 -0.9215
47438SOL     OW54292  13.145  11.925   9.409 -0.6650 -0.0251  0.3978
47438SOL    HW154293  13.078  11.857   9.401 -0.0385 -0.6968  0.7526
47438SOL    HW254294  13.215  11.884   9.459 -0.0391  0.7109  0.1480
47439SOL     OW54295   1.698  13.133  11.584  0.2659  0.5413 -0.1493
47439SOL    HW154296   1.749  13.062  11.543  2.4650  2.0626 -0.2235
47439SOL    HW254297   1.664  13.094  11.665 -0.6179 -1.2678 -1.3149
47440SOL     OW54298   1.385   3.800   1.785 -0.0433  0.0837 -0.3278
47440SOL    HW154299   1.470   3.769   1.817  0.0890  0.2834 -0.4856
47440SOL    HW254300   1.334   3.817   1.864  0.5499  1.3348 -0.2025
47441SOL     OW54301   2.949   3.683   5.336  0.1080 -0.1551 -0.3661
47441SOL    HW154302   2.936   3.649   5.247 -0.9506  3.4818 -1.7926
47441SOL    HW254303   2.903   3.767   5.336  0.6708  0.3205  3.4580
47442SOL     OW54304   3.976   8.985  13.129 -0.0585 -0.6908 -0.5665
47442SOL    HW154305   3.892   8.996  13.085 -0.2907  1.0605  0.2403
47442SOL    HW254306   4.018   8.912  13.083 -1.5447 -0.8841 -1.6874
47443SOL     OW54307   9.399   2.754   9.220 -0.2587  0.6361  0.0374
47443SOL    HW154308   9.445   2.787   9.143 -0.5819 -1.4065 -1.0888
47443SOL    HW254309   9.454   2.684   9.254 -2.2688 -1.6667 -1.1748
47444SOL     OW54310   1.147   5.474  10.543 -0.5903 -0.4460 -0.1414
47444SOL    HW154311   1.150   5.461  10.448  0.4299  0.2719 -0.2195
47444SOL    HW254312   1.123   5.565  10.554  1.9364  0.2608  0.2057
47445SOL     OW54313  10.121   9.499   7.867 -0.4570  0.5518  0.1847
47445SOL    HW154314  10.048   9.444   7.897 -0.9493  0.3489 -1.2744
47445SOL    HW254315  10.138   9.559   7.939 -2.2626  0.7799  0.4709
47446SOL     OW54316   7.090   7.433   1.937  0.1074 -0.0997  0.4148
47446SOL    HW154317   7.058   7.390   1.858  0.6500  1.3499 -0.6484
47446SOL    HW254318   7.131   7.363   1.988 -0.0444 -1.0312 -0.7005
47447SOL     OW54319   9.796   5.082   9.858  0.0640 -0.5358  0.3799
47447SOL    HW154320   9.775   4.989   9.857  0.4521 -0.6280 -0.2771
47447SOL    HW254321   9.891   5.085   9.859  0.0524 -0.1479  0.4430
47448SOL     OW54322   4.720   0.712  10.739 -0.1882 -0.2331 -0.0077
47448SOL    HW154323   4.787   0.674  10.795 -0.4097 -1.6006 -0.6359
47448SOL    HW254324   4.753   0.702  10.650 -1.2072 -0.9136 -0.3217
47449SOL     OW54325   1.145   5.806   9.435  0.6866  0.0958  0.2761
47449SOL    HW154326   1.092   5.734   9.469 -1.4546  0.7783 -1.3485
47449SOL    HW254327   1.082   5.877   9.422  2.2495  1.3738 -0.6733
47450SOL     OW54328   1.811   0.989   4.854  0.3888 -0.1441 -0.0784
47450SOL    HW154329   1.719   0.980   4.830 -0.0808  0.3171  1.4626
47450SOL    HW254330   1.855   0.918   4.806 -1.0341 -1.5353  0.5974
47451SOL     OW54331   1.431  13.911   8.686 -0.5679  0.7937  0.2060
47451SOL    HW154332   1.342  13.924   8.721 -1.0176 -0.7268 -0.2992
47451SOL    HW254333   1.444  13.817   8.688  0.6053  0.9129 -0.8159
47452SOL     OW54334   0.986   2.362   5.567  0.5110 -0.5203 -0.0884
47452SOL    HW154335   0.987   2.324   5.655 -0.0301 -1.7806 -0.5931
47452SOL    HW254336   0.997   2.287   5.508  0.3541  0.2350 -1.1197
47453SOL     OW54337   3.929   1.208   8.786  0.1089 -0.3068 -0.2101
47453SOL    HW154338   3.928   1.304   8.782  2.1958 -0.2425 -0.2629
47453SOL    HW254339   3.866   1.187   8.855 -2.8903  0.8685 -2.3888
47454SOL     OW54340   2.524  11.413   5.715  0.6050 -0.0440  0.4310
47454SOL    HW154341   2.437  11.372   5.711  0.8306 -0.4657 -0.3333
47454SOL    HW254342   2.562  11.379   5.796  1.1944 -2.2588 -0.6721
47455SOL     OW54343   8.986   1.632   2.975  0.3727  0.1267 -0.4830
47455SOL    HW154344   8.973   1.726   2.969  1.9610  0.4450  0.3471
47455SOL    HW254345   9.081   1.621   2.981  0.2589 -1.5619 -0.9900
47456SOL     OW54346  12.641   7.028   6.208 -0.8893 -0.0323  0.3233
47456SOL    HW154347  12.599   7.076   6.279 -2.0679  1.7656 -1.4671
47456SOL    HW254348  12.701   6.968   6.252 -3.2343 -0.7075  2.8988
47457SOL     OW54349   2.071   4.958   6.210 -0.0519 -0.0546 -0.2510
47457SOL    HW154350   1.976   4.961   6.222  0.0656  2.3567  0.6439
47457SOL    HW254351   2.085   4.884   6.150 -2.2485 -1.9936  1.3929
47458SOL     OW54352   8.703   9.026  13.035  0.3218  0.2293 -0.8165
47458SOL    HW154353   8.649   9.075  12.973  1.2186  0.7638 -1.1981
47458SOL    HW254354   8.792   9.038  13.003  1.1741  2.7371  1.9620
47459SOL     OW54355   0.870   2.426  12.940  0.4492  0.1373 -0.3222
47459SOL    HW154356   0.878   2.334  12.916 -1.1555 -0.6460  1.7900
47459SOL    HW254357   0.949   2.445  12.990  0.9055  0.0075 -0.9796
47460SOL     OW54358  11.163   5.599   1.615  0.6326  0.1765 -0.0331
47460SOL    HW154359  11.198   5.675   1.569  0.5831 -0.7727 -1.7128
47460SOL    HW254360  11.077   5.628   1.645 -0.0787  0.3411 -2.0545
47461SOL     OW54361   5.392   6.992   7.759  0.1006 -0.0416  0.3461
47461SOL    HW154362   5.428   6.922   7.813  0.0666 -0.8221 -0.6131
47461SOL    HW254363   5.368   7.061   7.821  2.9800  0.4413  1.0674
47462SOL     OW54364  10.194   5.076   6.073  0.1025  0.2975 -0.1340
47462SOL    HW154365  10.187   5.040   5.985 -2.9602  0.6275 -0.1452
47462SOL    HW254366  10.220   5.167   6.060 -0.7611  0.4671 -0.7652
47463SOL     OW54367   0.547   2.509   6.029 -0.2132  0.2288  0.4596
47463SOL    HW154368   0.534   2.502   6.124  2.1770 -0.3093  0.7961
47463SOL    HW254369   0.478   2.454   5.992 -0.3071 -0.7205  1.9545
47464SOL     OW54370   2.851   7.661  13.129 -0.3606  0.2001 -0.0892
47464SOL    HW154371   2.924   7.722  13.139  1.0372 -0.9854 -2.2980
47464SOL    HW254372   2.892   7.575  13.120 -2.0995 -0.6425 -0.4255
47465SOL     OW54373   1.804  12.221   7.749 -0.0478 -0.0247  0.1723
47465SOL    HW154374   1.873  12.286   7.737  1.1084 -1.4371 -1.3834
47465SOL    HW254375   1.812  12.163   7.673 -1.6951 -1.3804  0.9506
47466SOL     OW54376   3.848   9.705  12.208  0.4481 -0.5744  0.1545
47466SOL    HW154377   3.797   9.657  12.273  0.0819 -1.0114 -0.4496
47466SOL    HW254378   3.896   9.770  12.259  0.2887 -1.0136  0.8813
47467SOL     OW54379  11.191   9.612   1.050  0.3783  0.4516  0.6839
47467SOL    HW154380  11.208   9.531   1.098 -0.6705  0.0797  0.4371
47467SOL    HW254381  11.173   9.583   0.960 -1.1821  0.8485  0.8541
47468SOL     OW54382   2.998   8.428  10.116  0.5292  0.0108 -0.4266
47468SOL    HW154383   2.972   8.385  10.035 -2.2512  1.3735 -0.3758
47468SOL    HW254384   3.091   8.407  10.126  0.2590 -2.6019 -2.3973
47469SOL     OW54385   5.850   5.959   8.624  0.0361  0.1558 -0.5817
47469SOL    HW154386   5.877   6.031   8.682  1.1089  0.3002 -1.2195
47469SOL    HW254387   5.921   5.953   8.560 -0.3937 -1.0031 -0.9689
47470SOL     OW54388   4.730  11.955   1.367  0.5436 -0.0527 -0.3662
47470SOL    HW154389   4.655  11.906   1.332  0.9125  0.5057 -2.0280
47470SOL    HW254390   4.691  12.022   1.422 -0.0986 -0.6611 -0.0664
47471SOL     OW54391  11.320  10.216   7.989 -0.6662 -0.1767  0.0436
47471SOL    HW154392  11.315  10.150   7.920 -1.3370 -1.5222  1.3169
47471SOL    HW254393  11.396  10.191   8.041 -1.5387 -0.6506  1.1609
47472SOL     OW54394  12.198   1.924  10.991  0.4139  0.0523  0.3928
47472SOL    HW154395  12.106   1.948  10.980  0.3636 -0.7110 -1.2510
47472SOL    HW254396  12.243   2.007  11.008 -0.5397  0.4516  1.0202
47473SOL     OW54397  12.889  11.782   1.004 -0.3465 -0.5818 -0.5140
47473SOL    HW154398  12.838  11.834   1.067  1.6313  0.3205  0.4241
47473SOL    HW254399  12.892  11.695   1.043  0.2981 -0.1938  0.3596
47474SOL     OW54400   7.359  11.331   6.537 -0.1409  0.4234 -0.2216
47474SOL    HW154401   7.437  11.334   6.482 -1.7170  2.4225 -2.6047
47474SOL    HW254402   7.289  11.364   6.480 -2.3075  0.7889  2.4575
47475SOL     OW54403   5.462  13.508   9.963 -0.4997 -0.5369  0.2961
47475SOL    HW154404   5.460  13.581   9.901 -0.5015 -1.8767 -1.3278
47475SOL    HW254405   5.382  13.459   9.946  0.3381 -1.8951  0.1237
47476SOL     OW54406   0.030   4.032   9.147 -0.8771  0.2897  0.2125
47476SOL    HW154407  -0.012   4.006   9.229  1.0280  2.4847  2.0666
47476SOL    HW254408   0.001   4.122   9.133  0.0619  0.4840 -0.6125
47477SOL     OW54409   2.517   6.728  10.642  0.1999 -0.1585  0.4395
47477SOL    HW154410   2.516   6.661  10.710 -1.2177  0.2655  0.8753
47477SOL    HW254411   2.440   6.783  10.661  0.3575  0.5743 -0.8963
47478SOL     OW54412   2.390   8.935   2.712  0.6151  0.2634  0.0471
47478SOL    HW154413   2.462   8.957   2.654  0.1209  3.3761  0.4490
47478SOL    HW254414   2.429   8.877   2.778  2.6554  1.5240  0.0149
47479SOL     OW54415   6.023   1.676  11.286 -0.5369  0.3499  0.1019
47479SOL    HW154416   5.958   1.720  11.341  0.3517 -0.7248  2.1343
47479SOL    HW254417   5.976   1.602  11.248 -1.1181  1.0017 -0.4814
47480SOL     OW54418   9.828   0.249   3.848  0.7457 -0.2240 -0.3023
47480SOL    HW154419   9.897   0.229   3.911 -0.3747 -3.0942  0.1732
47480SOL    HW254420   9.789   0.331   3.879  1.4830 -0.5636  1.6330
47481SOL     OW54421   4.349   8.461   5.332  0.2501  0.2629 -0.8501
47481SOL    HW154422   4.350   8.547   5.290 -2.5696  0.3488 -0.9478
47481SOL    HW254423   4.292   8.408   5.277  1.9243 -1.7242 -0.7925
47482SOL     OW54424   2.052   5.461   8.610  0.3125  0.6098  0.0979
47482SOL    HW154425   1.965   5.469   8.572  0.4693  2.5817  0.0670
47482SOL    HW254426   2.058   5.369   8.637 -1.9276  0.5284  0.5037
47483SOL     OW54427   1.199  13.474   1.450 -0.1477  0.6075 -0.2002
47483SOL    HW154428   1.154  13.492   1.368  0.2624  1.1758 -0.3125
47483SOL    HW254429   1.291  13.463   1.425  0.0339  1.1098  0.2092
47484SOL     OW54430   2.545  12.061   2.474 -0.5172  0.4391  0.3714
47484SOL    HW154431   2.602  11.991   2.505 -1.7994 -1.4476 -1.3029
47484SOL    HW254432   2.605  12.129   2.443  0.7536  0.3760  2.5502
47485SOL     OW54433  12.095  11.014  10.007  0.0105 -0.2044 -0.3308
47485SOL    HW154434  12.098  10.919   9.995  1.6563 -0.4300  1.3392
47485SOL    HW254435  12.129  11.049   9.924 -1.5345 -0.9765 -1.3439
47486SOL     OW54436   8.114   4.298   4.384  0.0488 -0.2877 -0.2753
47486SOL    HW154437   8.037   4.243   4.397 -0.6659  0.6507 -0.3872
47486SOL    HW254438   8.160   4.296   4.468 -0.1179 -0.8258 -0.1956
47487SOL     OW54439   5.338   6.672   6.346  0.0521 -0.3264 -0.1873
47487SOL    HW154440   5.429   6.689   6.372 -0.1319 -0.0571  0.2731
47487SOL    HW254441   5.334   6.577   6.333  0.4881 -0.2996 -0.5478
47488SOL     OW54442   3.379   1.160  10.200 -0.0842 -0.6209 -0.3376
47488SOL    HW154443   3.354   1.106  10.276  0.7085  0.3182  0.6292
47488SOL    HW254444   3.297   1.194  10.166 -0.3236  1.2771  1.9106
47489SOL     OW54445   0.638   9.437   7.620  0.2748  0.2781 -0.7824
47489SOL    HW154446   0.591   9.495   7.560 -0.6082  0.2371 -0.1551
47489SOL    HW254447   0.728   9.469   7.619  0.2295  0.4198 -1.9408
47490SOL     OW54448   2.581  10.967  13.767 -0.3413 -0.5498 -0.0899
47490SOL    HW154449   2.588  11.060  13.790 -1.8530 -0.6803  1.0110
47490SOL    HW254450   2.600  10.964  13.673 -0.7466  0.9425 -0.2411
47491SOL     OW54451  11.980   3.073   1.399 -0.3047  0.0303 -0.0263
47491SOL    HW154452  11.905   3.044   1.451 -0.2122 -1.2244 -0.5527
47491SOL    HW254453  12.002   3.159   1.434 -0.7379 -0.4462  1.4793
47492SOL     OW54454  11.511   3.641  13.727  0.2497 -0.5161 -0.6590
47492SOL    HW154455  11.434   3.694  13.746  0.5915  0.5830 -2.1528
47492SOL    HW254456  11.585   3.695  13.754  0.6099 -0.1391 -2.2699
47493SOL     OW54457  14.034   0.637  12.295  0.1172 -0.0804 -0.4483
47493SOL    HW154458  14.078   0.562  12.334  0.9699 -0.3447 -1.8443
47493SOL    HW254459  14.066   0.639  12.205 -1.7456  0.5090 -1.1409
47494SOL     OW54460   4.754  13.878  12.282 -1.1708 -0.5728  0.5003
47494SOL    HW154461   4.812  13.900  12.209 -1.7199 -1.4653 -0.2264
47494SOL    HW254462   4.811  13.838  12.347 -0.4943  1.1546  1.0325
47495SOL     OW54463   5.520  10.210  11.158  0.2804  0.1265  0.0456
47495SOL    HW154464   5.580  10.210  11.232 -0.3542  0.9309  0.5891
47495SOL    HW254465   5.493  10.302  11.149 -0.1218 -0.0594 -0.7960
47496SOL     OW54466   2.222   1.764   5.074  0.3446  0.3088  0.8401
47496SOL    HW154467   2.148   1.718   5.114 -1.9610  2.1386 -0.9724
47496SOL    HW254468   2.288   1.770   5.143 -1.8853  0.1053  3.1289
47497SOL     OW54469  13.300  10.149   3.335  0.0047 -0.3094 -0.4709
47497SOL    HW154470  13.347  10.232   3.343 -0.3314 -0.1069 -0.5917
47497SOL    HW254471  13.245  10.145   3.413 -0.9170  0.1798 -1.0774
47498SOL     OW54472   1.070   1.527   4.337 -0.2185 -0.0435  0.6866
47498SOL    HW154473   1.105   1.614   4.357 -0.7399  0.3987 -0.2808
47498SOL    HW254474   1.116   1.468   4.398 -0.5613  1.0247  2.0385
47499SOL     OW54475  11.647   0.155   0.673  0.1331 -0.8612 -0.4765
47499SOL    HW154476  11.679   0.222   0.613  0.4142  0.3922  1.0301
47499SOL    HW254477  11.701   0.165   0.752 -0.9592 -1.7187  0.4089
47500SOL     OW54478   0.073  10.560   5.052 -0.1715  0.1081  0.2176
47500SOL    HW154479   0.115  10.605   4.979 -1.0886 -0.1972 -0.5119
47500SOL    HW254480   0.023  10.489   5.012 -1.3164  0.4083  1.0521
47501SOL     OW54481   5.888  11.740  12.627 -0.0493 -0.1944  0.2310
47501SOL    HW154482   5.794  11.733  12.610 -0.5794  2.4773  1.5380
47501SOL    HW254483   5.915  11.820  12.583  1.3384 -0.2317  0.9490
47502SOL     OW54484  12.399  11.114   1.785  0.3591 -0.0954  0.2624
47502SOL    HW154485  12.363  11.116   1.873  3.0961  0.7864  1.4631
47502SOL    HW254486  12.435  11.202   1.771  0.2879 -0.3231 -1.5938
47503SOL     OW54487  12.971  11.295   5.679 -0.3324  0.0299  0.1620
47503SOL    HW154488  12.908  11.245   5.627  2.1700 -1.5346 -1.5774
47503SOL    HW254489  13.048  11.240   5.683  1.0787  1.9710  1.9794
47504SOL     OW54490  10.923   5.098   6.551  0.4059 -0.0940  0.7183
47504SOL    HW154491  11.014   5.091   6.524  0.0028  0.1155 -0.7704
47504SOL    HW254492  10.926   5.128   6.642  1.7889  1.5954  0.1541
47505SOL     OW54493  10.745   5.470   5.927 -0.4947 -0.2506 -0.8002
47505SOL    HW154494  10.741   5.519   6.010  0.5465  0.8287 -1.3578
47505SOL    HW254495  10.748   5.379   5.954 -2.4720 -0.0502  0.2705
47506SOL     OW54496   6.775   7.605   7.712 -0.3792 -0.2510 -0.2872
47506SOL    HW154497   6.833   7.529   7.716 -0.7381 -0.5869 -1.2283
47506SOL    HW254498   6.833   7.677   7.686 -0.3049 -0.5124 -0.8648
47507SOL     OW54499  13.283   9.008  11.458  0.0781 -0.0131  0.3338
47507SOL    HW154500  13.302   8.928  11.506 -1.5261  0.0143  1.0895
47507SOL    HW254501  13.200   9.039  11.495  0.0540  1.3483 -0.7702
47508SOL     OW54502  12.006  13.009  10.421 -0.3034 -0.0581 -0.0649
47508SOL    HW154503  11.984  13.099  10.445  0.3799 -0.0680  0.6458
47508SOL    HW254504  12.074  13.019  10.354 -2.8380 -0.0106 -2.8591
47509SOL     OW54505   8.760   9.416   8.979  0.4049  0.0564  0.0916
47509SOL    HW154506   8.672   9.396   8.948  0.2736  0.3969  0.2412
47509SOL    HW254507   8.806   9.332   8.976  0.8077  0.3055 -2.2707
47510SOL     OW54508  12.429   9.818   4.788 -0.0253 -0.0059 -0.6905
47510SOL    HW154509  12.372   9.741   4.784  1.2066 -0.9012 -2.6637
47510SOL    HW254510  12.417   9.861   4.703  1.3682  0.4166 -0.6992
47511SOL     OW54511  10.449   4.746   0.741 -0.5597 -0.2166  0.0882
47511SOL    HW154512  10.429   4.821   0.685  1.4097 -0.7457 -1.4237
47511SOL    HW254513  10.454   4.784   0.829 -0.3727  1.2820 -0.5347
47512SOL     OW54514  12.855   5.725   7.706 -0.3807 -0.8605  0.2045
47512SOL    HW154515  12.837   5.665   7.778  0.4951 -2.0906 -0.5596
47512SOL    HW254516  12.840   5.673   7.627  0.6048 -0.1539 -0.4722
47513SOL     OW54517   5.099   8.602   2.560  0.7194  0.0671  0.4159
47513SOL    HW154518   5.099   8.631   2.651 -2.8580 -0.6773  0.8202
47513SOL    HW254519   5.084   8.682   2.510 -0.7686  0.0746  0.8271
47514SOL     OW54520  10.022  12.664   2.970 -0.1597  0.7863 -0.4024
47514SOL    HW154521  10.073  12.741   2.995  0.5195  0.1611  0.1802
47514SOL    HW254522   9.971  12.642   3.048  1.5919 -0.8671  0.3777
47515SOL     OW54523   9.470   4.524   0.013 -0.4249  0.4171  0.1302
47515SOL    HW154524   9.497   4.611  -0.015  0.1861  0.9460  2.2140
47515SOL    HW254525   9.451   4.477  -0.068  2.5707  1.3883 -1.2530
47516SOL     OW54526   2.271   5.482   5.760 -0.0388 -0.4032 -0.1579
47516SOL    HW154527   2.221   5.441   5.689 -0.1767 -1.2909  0.4405
47516SOL    HW254528   2.236   5.443   5.840  2.2238 -1.8151  0.2484
47517SOL     OW54529   4.521   4.088   0.260 -0.1107  0.2409  0.0053
47517SOL    HW154530   4.493   4.040   0.339 -1.3628  1.9561  0.6542
47517SOL    HW254531   4.513   4.024   0.189  1.9507 -1.6556  1.3312
47518SOL     OW54532   0.955  13.477   9.153 -0.1994 -0.2936  0.6846
47518SOL    HW154533   1.002  13.510   9.076 -0.4549 -1.9361 -0.2100
47518SOL    HW254534   1.023  13.467   9.220  0.3341 -0.5611  0.1066
47519SOL     OW54535  11.727   1.196   8.658 -0.4765  0.1135  0.4332
47519SOL    HW154536  11.713   1.172   8.567 -0.3357 -0.4590  0.5524
47519SOL    HW254537  11.767   1.283   8.655  1.3901 -0.7047 -0.1519
47520SOL     OW54538   6.850   1.379  13.926  0.4863 -0.2004  0.6375
47520SOL    HW154539   6.918   1.356  13.863 -0.7404  0.7345 -1.1258
47520SOL    HW254540   6.885   1.454  13.973 -0.1265  1.7941 -1.8727
47521SOL     OW54541   9.889   8.375   0.087 -0.0218  0.0243 -0.1245
47521SOL    HW154542   9.893   8.358  -0.007  0.1490 -2.4907  0.2655
47521SOL    HW254543   9.896   8.470   0.094 -1.2874  0.4115 -2.6986
47522SOL     OW54544   8.348   4.270   9.196 -0.0796 -0.2149 -0.2947
47522SOL    HW154545   8.266   4.261   9.147  0.5932 -1.9472 -1.1748
47522SOL    HW254546   8.322   4.265   9.288 -0.9920 -0.4410 -0.5577
47523SOL     OW54547   8.840   6.938  12.004 -0.1960 -0.2034 -0.2785
47523SOL    HW154548   8.801   6.947  11.917  2.2243  3.5259 -1.2152
47523SOL    HW254549   8.928   6.904  11.988 -0.4494 -1.5653  1.0101
47524SOL     OW54550  10.864   3.442   9.500 -0.0156  0.1536 -0.1342
47524SOL    HW154551  10.819   3.457   9.417  1.6161  0.7950 -0.9437
47524SOL    HW254552  10.890   3.350   9.497  0.8620  0.4122 -0.7784
47525SOL     OW54553   1.414   5.110   1.230 -0.5720  0.0476  0.3342
47525SOL    HW154554   1.326   5.113   1.267 -0.9876 -0.0379 -0.6231
47525SOL    HW254555   1.425   5.019   1.201 -0.3368  0.1624  0.0566
47526SOL     OW54556   9.682   1.742  12.771  0.9127  0.4489 -0.2263
47526SOL    HW154557   9.698   1.779  12.684  1.3087  0.1458 -0.2859
47526SOL    HW254558   9.738   1.792  12.829  0.9933  0.3457 -0.2146
47527SOL     OW54559   5.233   2.958   3.231 -0.6047  0.7806  0.2247
47527SOL    HW154560   5.241   2.929   3.322 -0.7724  0.0577  0.0151
47527SOL    HW254561   5.309   3.014   3.217 -0.4470  0.7026  0.7355
47528SOL     OW54562   9.991  13.805   3.472  0.0453  0.1202  0.1788
47528SOL    HW154563  10.086  13.797   3.483  0.2406  0.1095 -1.3259
47528SOL    HW254564   9.959  13.715   3.470  0.3384  0.0183 -1.7194
47529SOL     OW54565   4.844   8.881   2.579  0.2753 -0.0877  0.2636
47529SOL    HW154566   4.891   8.886   2.663 -0.3757  0.3635  0.6118
47529SOL    HW254567   4.778   8.950   2.585 -0.5286 -0.8101 -0.1629
47530SOL     OW54568   7.458  10.196  10.298  0.3617 -0.2540 -0.1527
47530SOL    HW154569   7.499  10.279  10.270 -0.5652 -0.1609 -1.2932
47530SOL    HW254570   7.531  10.133  10.298  0.8114  0.2464 -0.6613
47531SOL     OW54571  12.813  10.929   1.843  0.0358  0.2209  0.2107
47531SOL    HW154572  12.821  10.863   1.774  0.2656  1.9084 -1.4293
47531SOL    HW254573  12.901  10.936   1.880 -0.0045 -0.4107  0.4495
47532SOL     OW54574  13.315   7.926   0.464 -0.6322 -0.1628  0.2686
47532SOL    HW154575  13.351   7.886   0.544  0.6280 -0.6831 -0.5212
47532SOL    HW254576  13.232   7.881   0.450  0.9315 -3.0301 -0.8538
47533SOL     OW54577   7.606  11.061   0.642 -0.2670  0.3526 -0.1806
47533SOL    HW154578   7.522  11.016   0.641  0.0443 -0.4856  2.3343
47533SOL    HW254579   7.622  11.078   0.735  0.7827  3.5458 -0.8242
47534SOL     OW54580  12.352   3.620   9.251 -0.0688 -0.0962 -0.3579
47534SOL    HW154581  12.258   3.637   9.259 -0.3370 -1.6559  0.2188
47534SOL    HW254582  12.363   3.585   9.162  0.0672  0.5952 -0.6202
47535SOL     OW54583  10.946  12.730   5.719 -0.2678 -0.3767  0.2667
47535SOL    HW154584  11.020  12.743   5.778  0.8547  0.9800 -1.3450
47535SOL    HW254585  10.910  12.818   5.705 -0.4604 -0.6482 -1.1015
47536SOL     OW54586   3.430  10.040  13.254  0.1903  0.3428  0.1913
47536SOL    HW154587   3.451  10.124  13.296 -0.3688  0.5814 -0.0006
47536SOL    HW254588   3.379  10.064  13.177 -0.6287 -0.2053  0.5460
47537SOL     OW54589   8.848   9.113   6.790 -0.6161 -0.1169  0.2235
47537SOL    HW154590   8.890   9.138   6.872 -0.2182  0.6163 -0.1941
47537SOL    HW254591   8.919   9.079   6.735 -0.9415 -0.9746  0.3126
47538SOL     OW54592   6.593   4.624   2.941 -0.0318  0.0331  0.2304
47538SOL    HW154593   6.584   4.550   3.002  1.9410 -0.3104  0.1677
47538SOL    HW254594   6.566   4.700   2.991  0.0129 -0.4560  1.0118
47539SOL     OW54595   4.698   4.216   2.482  1.1219 -0.2934  0.0932
47539SOL    HW154596   4.713   4.289   2.542  2.9611  0.2036 -0.9053
47539SOL    HW254597   4.708   4.138   2.537 -2.5612  0.0753  1.5660
47540SOL     OW54598  12.808  12.893  13.220  0.1864  0.1797 -0.3262
47540SOL    HW154599  12.814  12.982  13.253 -0.0606  0.1603 -0.2247
47540SOL    HW254600  12.853  12.840  13.286  0.0405  0.1898 -0.2176
47541SOL     OW54601  13.742   4.049   7.602 -0.0306 -0.5820  0.0926
47541SOL    HW154602  13.798   4.064   7.527 -0.1395 -3.1299 -0.5783
47541SOL    HW254603  13.730   4.136   7.641  0.6782  0.6813 -2.3314
47542SOL     OW54604  12.303   5.748   8.475  0.5923 -0.2666 -0.0131
47542SOL    HW154605  12.343   5.724   8.391  0.0917 -0.4086 -0.2177
47542SOL    HW254606  12.360   5.708   8.541  1.6927  0.8983 -0.2340
47543SOL     OW54607  11.543   9.158  13.413 -0.1518 -0.7032  0.3412
47543SOL    HW154608  11.454   9.179  13.439  0.3082  0.2406  1.2363
47543SOL    HW254609  11.557   9.069  13.446 -0.6655 -0.7464  0.4496
47544SOL     OW54610  10.531   1.329   1.455  0.2894 -1.1494  0.4963
47544SOL    HW154611  10.459   1.266   1.448  0.3462 -1.3645  1.6737
47544SOL    HW254612  10.567   1.334   1.366 -0.2636 -2.1221  0.2019
47545SOL     OW54613   1.605   2.908   9.031  0.0441 -0.0584 -0.6958
47545SOL    HW154614   1.698   2.896   9.049  0.9177  1.5419 -3.5401
47545SOL    HW254615   1.589   3.002   9.044 -0.8335 -0.0641 -1.5999
47546SOL     OW54616  11.344  12.223  12.477 -0.3878 -0.7419  0.0905
47546SOL    HW154617  11.371  12.156  12.539  2.0662 -0.3653 -0.4771
47546SOL    HW254618  11.362  12.186  12.391 -1.4858 -0.3333 -0.3400
47547SOL     OW54619   8.063   5.017   3.279 -0.0425  0.1000 -0.1088
47547SOL    HW154620   8.110   4.941   3.313  1.0147  0.5131 -0.5781
47547SOL    HW254621   7.978   5.014   3.321  0.4023 -0.6876  0.7738
47548SOL     OW54622   0.240   7.864   2.341  0.1351  0.2505 -0.0951
47548SOL    HW154623   0.177   7.883   2.410  0.1630 -0.5921  0.1774
47548SOL    HW254624   0.302   7.804   2.382 -1.1373 -2.1386 -1.4567
47549SOL     OW54625   6.575   8.695   7.072 -0.1634 -0.1455 -0.0475
47549SOL    HW154626   6.544   8.666   7.158 -0.1432 -1.5121 -0.4833
47549SOL    HW254627   6.526   8.641   7.009  0.9004 -0.2203 -0.8405
47550SOL     OW54628   1.588   8.412   4.546 -0.4679  0.3076  1.0230
47550SOL    HW154629   1.632   8.418   4.461 -0.1180 -0.1658  1.1651
47550SOL    HW254630   1.533   8.490   4.550 -0.1767  0.5438  0.5357
47551SOL     OW54631   2.519   3.318   1.922  0.4412  0.0212 -0.1314
47551SOL    HW154632   2.526   3.407   1.886  0.7520  0.5384  1.1385
47551SOL    HW254633   2.604   3.301   1.962  0.3143 -0.7790 -0.1852
47552SOL     OW54634   1.312   4.411  12.584 -0.0761  0.7573  0.1651
47552SOL    HW154635   1.396   4.458  12.580 -0.3872  1.5304  1.7091
47552SOL    HW254636   1.290   4.410  12.677 -0.4066 -1.9728  0.1417
47553SOL     OW54637   0.539   6.017   4.488  1.1235 -0.5471 -0.1126
47553SOL    HW154638   0.619   5.966   4.478  1.4750  0.1341 -0.8859
47553SOL    HW254639   0.488   5.969   4.553  3.1517  0.1878  2.1682
47554SOL     OW54640   0.277   6.571  10.285  0.0448 -0.7134  0.5787
47554SOL    HW154641   0.226   6.652  10.289  0.9477 -0.1471  0.9452
47554SOL    HW254642   0.326   6.577  10.203  2.1592  0.4221  1.8179
47555SOL     OW54643   2.361   4.908   9.169  0.5653 -0.0749 -0.0473
47555SOL    HW154644   2.443   4.922   9.215  0.3060 -1.6985  1.0058
47555SOL    HW254645   2.295   4.952   9.223  0.7636  1.7164 -1.1868
47556SOL     OW54646  11.524   6.628   8.032 -0.1248  0.3011 -0.0450
47556SOL    HW154647  11.552   6.629   8.123  0.5495 -1.6174 -0.1849
47556SOL    HW254648  11.432   6.656   8.035 -0.6090 -1.3073  1.4337
47557SOL     OW54649   7.178   3.069   5.474  0.3240 -0.4522 -0.7534
47557SOL    HW154650   7.211   3.155   5.448  1.4378 -0.5168  0.2995
47557SOL    HW254651   7.253   3.011   5.464  0.1523 -0.8984  0.3977
47558SOL     OW54652   7.562  11.643   5.443  0.1664 -0.3436  0.5787
47558SOL    HW154653   7.507  11.674   5.371 -1.3902  0.9832  2.2291
47558SOL    HW254654   7.585  11.553   5.419 -1.4694 -0.4226 -0.9133
47559SOL     OW54655   1.962   8.710   1.823  0.2435 -0.1123  0.0552
47559SOL    HW154656   1.927   8.798   1.814  0.5054  0.0470  0.5529
47559SOL    HW254657   2.016   8.697   1.746  0.4737  0.2900  0.1461
47560SOL     OW54658   2.955  12.234   5.498  0.7408 -0.0271  0.0351
47560SOL    HW154659   3.000  12.295   5.557  0.5541  2.1469 -1.9121
47560SOL    HW254660   3.010  12.231   5.420 -0.6686 -0.1207 -0.9958
47561SOL     OW54661   5.284  11.122   2.360 -0.1189  0.2232 -0.1832
47561SOL    HW154662   5.203  11.146   2.405 -0.2438 -0.5512  0.0246
47561SOL    HW254663   5.320  11.050   2.412  0.7441  0.5998 -0.2337
47562SOL     OW54664   2.578   4.393   7.051 -0.4573 -0.0283  0.3788
47562SOL    HW154665   2.651   4.386   6.990 -0.4149  1.1081  0.2780
47562SOL    HW254666   2.536   4.307   7.047  0.3950 -0.4414 -0.1566
47563SOL     OW54667   6.359  11.416   3.988  0.5036  0.2679 -0.3597
47563SOL    HW154668   6.412  11.345   4.022  0.6504 -0.1042 -1.3298
47563SOL    HW254669   6.272  11.403   4.027  0.7353  0.0100  0.0669
47564SOL     OW54670   8.690  11.705  12.101 -0.1425 -0.1237 -0.3082
47564SOL    HW154671   8.764  11.696  12.161  0.5495 -2.9396 -1.4385
47564SOL    HW254672   8.617  11.663  12.146 -0.4019  0.3496 -0.2747
47565SOL     OW54673  12.996  13.007   7.086  0.0721  0.3274  0.0324
47565SOL    HW154674  12.959  13.078   7.034 -0.3926 -0.3073 -0.5262
47565SOL    HW254675  13.088  13.004   7.060 -0.0709  0.2644 -0.4740
47566SOL     OW54676   3.751   9.773   6.813 -0.4317  0.6360  0.0933
47566SOL    HW154677   3.810   9.831   6.765  1.0514 -0.3761  0.6392
47566SOL    HW254678   3.672   9.826   6.827  0.3618  2.0551 -0.5769
47567SOL     OW54679   3.427  10.127   8.062  0.2277 -0.6717 -0.3235
47567SOL    HW154680   3.356  10.107   8.000 -0.4867  1.3801 -0.2594
47567SOL    HW254681   3.387  10.189   8.124  1.5995 -0.8390  0.7660
47568SOL     OW54682   2.583   2.710  10.584  0.1568  0.1683  0.2966
47568SOL    HW154683   2.566   2.802  10.604  2.2712  0.8521 -0.8119
47568SOL    HW254684   2.503   2.665  10.611 -0.7077  2.2329  1.4113
47569SOL     OW54685   7.856   4.864  13.380 -0.2137  0.2649  0.1623
47569SOL    HW154686   7.928   4.877  13.319 -0.6599 -1.0738 -0.7054
47569SOL    HW254687   7.789   4.817  13.329 -1.4011  0.8136  1.1454
47570SOL     OW54688   3.299  12.877   1.598  0.2856  0.5565  0.2389
47570SOL    HW154689   3.275  12.899   1.688 -1.5547 -0.9449  0.1880
47570SOL    HW254690   3.309  12.962   1.554  0.7258  1.2992  1.7354
47571SOL     OW54691   5.350   5.950  11.170  0.5230  0.1620  0.2560
47571SOL    HW154692   5.298   6.003  11.231  1.2811  1.8145 -0.4812
47571SOL    HW254693   5.330   5.986  11.084  1.9152 -0.0193 -0.1600
47572SOL     OW54694   0.316   3.656   7.001 -0.0965 -0.0467  0.3862
47572SOL    HW154695   0.359   3.650   7.087  1.4297 -2.7197 -0.4238
47572SOL    HW254696   0.379   3.703   6.946 -0.9476  1.4036  0.5852
47573SOL     OW54697   9.834   2.415  14.042 -0.5967 -0.1489 -0.0657
47573SOL    HW154698   9.803   2.505  14.035 -0.8058 -0.2542 -0.4663
47573SOL    HW254699   9.796   2.369  13.967  0.3124 -0.3387 -0.4283
47574SOL     OW54700  12.809  11.570   0.784  0.3463 -0.2916 -0.6680
47574SOL    HW154701  12.844  11.540   0.868  1.0326  0.0767 -0.8120
47574SOL    HW254702  12.717  11.544   0.785 -0.0493  0.9758  0.8182
47575SOL     OW54703   2.911  12.453   8.685  0.0818 -0.0902  0.3270
47575SOL    HW154704   2.951  12.372   8.716 -2.0355 -1.7337 -0.9568
47575SOL    HW254705   2.817  12.441   8.702 -0.7507  0.4628 -3.1596
47576SOL     OW54706  12.333   7.684   9.775 -0.5465 -0.4578  0.0177
47576SOL    HW154707  12.371   7.649   9.856  0.8678 -0.4727 -0.6245
47576SOL    HW254708  12.275   7.754   9.805  0.3792 -0.0820  1.0307
47577SOL     OW54709  13.208   4.603   8.245  0.0151  0.3469 -0.1221
47577SOL    HW154710  13.153   4.665   8.293  0.4780  1.1396 -0.6024
47577SOL    HW254711  13.241   4.544   8.313 -1.1760  0.0299  0.2127
47578SOL     OW54712   6.849   3.696  12.090  0.9014 -0.1653  0.3291
47578SOL    HW154713   6.782   3.762  12.076 -2.0389 -3.1148 -0.9313
47578SOL    HW254714   6.883   3.676  12.003  0.8026 -1.1625  0.5004
47579SOL     OW54715  13.524   3.259   2.745  0.0017 -0.4786 -0.0565
47579SOL    HW154716  13.583   3.233   2.674 -1.1667 -0.2948 -1.1331
47579SOL    HW254717  13.532   3.355   2.749 -1.9528 -0.1606 -1.8694
47580SOL     OW54718   5.807   7.202   0.037  0.1134  0.0463  0.1264
47580SOL    HW154719   5.765   7.162  -0.038  2.8079 -0.9301 -1.0014
47580SOL    HW254720   5.798   7.296   0.023  0.1645 -0.1320 -1.1800
47581SOL     OW54721   8.737   3.909   5.503 -0.0440  0.0560  0.4943
47581SOL    HW154722   8.666   3.933   5.443  0.4640  1.3908  0.3869
47581SOL    HW254723   8.738   3.814   5.502 -2.4626 -0.0377  1.2405
47582SOL     OW54724   1.334   5.072   3.079  0.0960 -0.6593  0.0638
47582SOL    HW154725   1.251   5.055   3.124 -1.1671 -1.2479 -2.3091
47582SOL    HW254726   1.338   5.005   3.011  2.0860 -0.0466 -0.4927
47583SOL     OW54727   9.354   5.577   8.465  0.3807  0.3214  0.2774
47583SOL    HW154728   9.321   5.593   8.376  0.9349  2.4040  0.3826
47583SOL    HW254729   9.277   5.549   8.515  0.3398 -2.3764 -1.1444
47584SOL     OW54730   1.902  13.772   0.879  0.0122  0.6407  0.6912
47584SOL    HW154731   1.885  13.704   0.814 -0.1031  0.9887  0.3550
47584SOL    HW254732   1.825  13.768   0.937 -0.6878  1.4233 -0.1480
47585SOL     OW54733   5.768   6.234  10.678 -0.0906 -0.6283 -0.0313
47585SOL    HW154734   5.856   6.237  10.715 -0.1690  0.2845  0.0998
47585SOL    HW254735   5.718   6.181  10.740  0.3138 -0.9631  0.0102
47586SOL     OW54736  12.681   0.053   6.270  0.0486  0.5287  0.0615
47586SOL    HW154737  12.595   0.082   6.299 -0.4653 -1.3103  0.4988
47586SOL    HW254738  12.663  -0.015   6.205  1.1942  1.7986 -1.6593
47587SOL     OW54739  10.469  10.220   8.634 -0.2285  0.0417 -0.0435
47587SOL    HW154740  10.417  10.148   8.598 -0.9238  0.5519 -0.0960
47587SOL    HW254741  10.413  10.258   8.702 -0.3452  1.2042 -0.7542
47588SOL     OW54742  13.067   7.736   5.689  0.3752  0.2106  0.3146
47588SOL    HW154743  13.130   7.800   5.721 -1.8132  3.7855 -1.8636
47588SOL    HW254744  13.115   7.653   5.687  4.7499  2.4926 -0.4502
47589SOL     OW54745   2.041  11.503   2.728  0.0017  0.0850  0.9082
47589SOL    HW154746   1.982  11.485   2.655 -0.0969 -0.2157  1.0568
47589SOL    HW254747   2.064  11.416   2.762  0.6178  0.1944  0.7869
47590SOL     OW54748   9.167  13.150   4.722 -0.4718 -0.1789  0.2337
47590SOL    HW154749   9.130  13.069   4.686 -1.0235  0.2800 -0.2548
47590SOL    HW254750   9.160  13.140   4.817 -1.7233 -0.1759  0.1616
47591SOL     OW54751  11.553  11.367   5.863 -0.1574  0.1735  0.2239
47591SOL    HW154752  11.542  11.334   5.952  1.0628  1.3793  0.8577
47591SOL    HW254753  11.639  11.408   5.863  0.9534 -1.8350 -2.1895
47592SOL     OW54754  12.098   4.867  12.736  0.1936 -0.4380 -0.0335
47592SOL    HW154755  12.045   4.878  12.816  0.1487 -1.9913  0.1796
47592SOL    HW254756  12.188   4.886  12.764  0.0380  0.1384  0.0996
47593SOL     OW54757  11.696  12.299   2.393 -0.2232 -0.4973  0.1799
47593SOL    HW154758  11.644  12.376   2.416  0.0185 -0.3473  0.2406
47593SOL    HW254759  11.709  12.306   2.298  2.9607  1.6302  0.5954
47594SOL     OW54760   8.220   8.322   0.678  0.2800 -0.1332  0.2574
47594SOL    HW154761   8.229   8.372   0.759  1.6501  0.6855 -0.3615
47594SOL    HW254762   8.289   8.256   0.683 -0.2113 -0.6609  0.1542
47595SOL     OW54763   2.001   0.031   0.824 -0.4313  0.1123  0.6038
47595SOL    HW154764   2.010  -0.044   0.765 -1.0192  0.0050  0.6448
47595SOL    HW254765   2.049   0.102   0.781 -0.4148 -0.1121  0.2490
47596SOL     OW54766  12.794   9.111   4.492  0.3946 -0.1593  0.2454
47596SOL    HW154767  12.816   9.169   4.564  0.8287 -0.6084  0.4771
47596SOL    HW254768  12.804   9.023   4.528 -1.3768 -0.4040  0.2538
47597SOL     OW54769   0.412  12.378   6.165 -0.4249  0.4688  0.0503
47597SOL    HW154770   0.498  12.401   6.128 -0.9106 -0.5470 -1.8340
47597SOL    HW254771   0.365  12.461   6.170 -0.1215  0.7320 -1.1025
47598SOL     OW54772   5.716   3.215   1.647 -0.3832  0.0340 -0.0745
47598SOL    HW154773   5.668   3.297   1.642  0.0889  0.3375  0.3131
47598SOL    HW254774   5.678   3.161   1.577 -0.5080  0.6756 -0.5118
47599SOL     OW54775   9.883   6.082   1.928  0.0523 -0.3130  0.1904
47599SOL    HW154776   9.926   6.099   2.012 -1.3629  1.1096  0.6850
47599SOL    HW254777   9.901   5.990   1.910  0.9567 -0.4735  1.7240
47600SOL     OW54778  13.454   9.803   0.099  0.4917  0.1568 -0.8516
47600SOL    HW154779  13.415   9.715   0.092 -0.1276  0.3356  0.1052
47600SOL    HW254780  13.383   9.857   0.135  1.1490  0.8399 -0.5657
47601SOL     OW54781   2.022  11.462  13.713 -0.1560 -0.5376  0.0931
47601SOL    HW154782   1.993  11.424  13.795 -0.8648  1.8278  1.0383
47601SOL    HW254783   1.949  11.519  13.686  2.0455  2.8176  0.6486
47602SOL     OW54784  10.462   4.981   7.158  0.0656 -0.2814 -0.4157
47602SOL    HW154785  10.520   4.978   7.081  1.3480  0.8526  0.4661
47602SOL    HW254786  10.521   4.999   7.231 -1.4077  1.1618  0.4792
47603SOL     OW54787   0.099   5.281   3.944  0.7138  0.0196  0.1420
47603SOL    HW154788   0.029   5.226   3.979  0.2089 -0.2831 -1.2988
47603SOL    HW254789   0.161   5.289   4.017  1.1388 -3.0265  0.2545
47604SOL     OW54790  12.234   7.685   7.856 -0.0711  0.3226  0.0297
47604SOL    HW154791  12.288   7.687   7.935  0.8893  0.3821 -0.6003
47604SOL    HW254792  12.272   7.753   7.800 -1.5888  1.2372  0.0402
47605SOL     OW54793   7.440   0.580  10.339 -0.1535 -0.0817 -0.0691
47605SOL    HW154794   7.496   0.657  10.343 -1.4488  0.8397  1.9585
47605SOL    HW254795   7.458   0.533  10.420 -0.6264 -0.9964 -0.4853
47606SOL     OW54796   5.398   4.644   6.183 -0.2665 -0.1771  0.5531
47606SOL    HW154797   5.307   4.614   6.182 -0.1902 -0.4173  0.3065
47606SOL    HW254798   5.400   4.717   6.121  0.2172 -1.8153 -1.5222
47607SOL     OW54799   4.426  13.754   4.156 -0.4950 -0.0074 -0.1115
47607SOL    HW154800   4.397  13.705   4.233  0.2178  1.1202  0.9235
47607SOL    HW254801   4.390  13.842   4.170 -0.1658  0.2664 -0.9574
47608SOL     OW54802   9.055   0.825   5.424  0.5137  0.4484  0.1954
47608SOL    HW154803   9.102   0.798   5.503 -1.3063 -0.3201  1.0559
47608SOL    HW254804   8.965   0.797   5.438  0.2413 -0.2506 -2.4248
47609SOL     OW54805   6.966   0.738  10.254  0.2417  0.6970 -0.6876
47609SOL    HW154806   6.947   0.828  10.281 -0.7957  0.5179 -0.7663
47609SOL    HW254807   6.948   0.686  10.333 -1.4308  0.3220 -1.2778
47610SOL     OW54808   5.556   5.331   1.661 -0.2695 -1.0009  0.2248
47610SOL    HW154809   5.620   5.270   1.626  0.7587 -0.7071  1.5105
47610SOL    HW254810   5.481   5.277   1.686  1.3402 -2.1266  3.1240
47611SOL     OW54811   3.535  10.140   1.378  0.0840  0.4084  0.0932
47611SOL    HW154812   3.527  10.232   1.403  0.5064 -0.2157  2.9484
47611SOL    HW254813   3.629  10.122   1.387  0.2324 -0.0114 -1.8455
47612SOL     OW54814  13.095   8.317  12.795 -0.3207  0.4724  0.0041
47612SOL    HW154815  13.067   8.331  12.886  1.2844 -2.0555  0.9762
47612SOL    HW254816  13.020   8.273  12.754  0.7634 -3.4412  1.7466
47613SOL     OW54817  13.546   1.692  10.960  0.6431 -0.0490 -0.6080
47613SOL    HW154818  13.472   1.724  10.908  0.6409 -0.5752 -0.9253
47613SOL    HW254819  13.620   1.690  10.900  1.1438  1.2782 -0.0946
47614SOL     OW54820   6.139  12.458  10.390 -0.0018 -0.1800  0.2082
47614SOL    HW154821   6.129  12.415  10.305 -2.1862 -0.5245  0.5552
47614SOL    HW254822   6.227  12.494  10.389 -0.2946  0.6954 -2.6023
47615SOL     OW54823   1.742   1.038   9.292  0.6955 -0.5576  0.0856
47615SOL    HW154824   1.751   1.075   9.380 -0.2273  0.5212 -0.2466
47615SOL    HW254825   1.827   1.055   9.250  0.4421  0.8335  0.0902
47616SOL     OW54826   9.982   9.457   2.349  0.6993  0.0888  0.0633
47616SOL    HW154827   9.987   9.418   2.261  0.4200  1.6114 -0.6574
47616SOL    HW254828   9.976   9.382   2.408 -2.8236 -1.0036 -1.4059
47617SOL     OW54829   0.743   1.603   5.222  0.3068 -0.4072 -0.2858
47617SOL    HW154830   0.706   1.595   5.134  1.4237 -1.2322 -0.6989
47617SOL    HW254831   0.781   1.690   5.225  1.9542 -1.0444 -1.3252
47618SOL     OW54832  13.619   6.982   2.019  0.0093 -0.1799 -0.2897
47618SOL    HW154833  13.573   6.911   2.063 -1.2778 -0.6898 -2.3409
47618SOL    HW254834  13.574   7.061   2.048 -0.5076 -0.4653 -0.3117
47619SOL     OW54835   0.249  12.209  11.293  0.3897  0.0759  0.2293
47619SOL    HW154836   0.240  12.114  11.299 -0.5355  0.1098 -0.4995
47619SOL    HW254837   0.178  12.243  11.347  0.7875  0.3686  0.5814
47620SOL     OW54838   6.103  13.348   8.009 -0.3795 -0.1782 -0.2560
47620SOL    HW154839   6.050  13.336   7.931 -2.5141 -1.7490  1.2995
47620SOL    HW254840   6.062  13.420   8.056  0.1781  0.0061 -0.0354
47621SOL     OW54841   8.433   1.669   1.761 -0.0120 -0.2800 -0.0001
47621SOL    HW154842   8.339   1.657   1.753  0.0018 -0.3443 -0.0636
47621SOL    HW254843   8.450   1.755   1.722  0.0477 -0.5542 -0.5696
47622SOL     OW54844  12.338   8.380  11.759 -0.7808  0.1691  0.2912
47622SOL    HW154845  12.265   8.377  11.697 -0.2740  0.1861 -0.3202
47622SOL    HW254846  12.334   8.297  11.806 -0.3622 -0.4493 -0.7210
47623SOL     OW54847   7.071   1.495   4.646 -0.5707 -0.6290 -0.6206
47623SOL    HW154848   7.061   1.472   4.554  1.8357  0.7273 -1.3152
47623SOL    HW254849   7.148   1.445   4.675 -1.8457 -1.7956  1.0075
47624SOL     OW54850   7.970  12.331   0.508 -0.0671 -0.2655  0.0977
47624SOL    HW154851   8.037  12.263   0.515  0.9128  0.6437 -0.1872
47624SOL    HW254852   7.961  12.346   0.414 -1.2898 -0.9500  0.0833
47625SOL     OW54853   8.740   2.879  10.268 -0.6322 -0.6239 -0.0711
47625SOL    HW154854   8.768   2.815  10.202 -0.8235 -1.5268  0.7045
47625SOL    HW254855   8.645   2.871  10.271 -0.4951 -2.1128  1.7862
47626SOL     OW54856  12.318   3.314   4.372  0.2738  0.5528  0.0199
47626SOL    HW154857  12.413   3.305   4.358  0.3085  0.7045  0.1500
47626SOL    HW254858  12.306   3.407   4.392  0.1339  0.4769  0.2921
47627SOL     OW54859   6.624   4.714   2.296 -0.0017 -0.9570 -0.2844
47627SOL    HW154860   6.604   4.622   2.311 -1.1870 -0.6465  0.1304
47627SOL    HW254861   6.541   4.753   2.269 -0.1121  0.4521  1.8482
47628SOL     OW54862  13.507   3.868   5.402 -0.0435 -0.5865 -0.0588
47628SOL    HW154863  13.545   3.874   5.489  0.3541  0.1056 -0.2735
47628SOL    HW254864  13.435   3.805   5.411  0.8010 -1.4902  0.4717
47629SOL     OW54865   4.201   6.676   1.149  0.0937  0.2156  0.2176
47629SOL    HW154866   4.123   6.723   1.118 -0.3266 -0.8854 -0.4562
47629SOL    HW254867   4.263   6.684   1.077  0.9946  1.8790  1.1115
47630SOL     OW54868  13.016   7.425   2.501  0.7308 -0.4150  0.2572
47630SOL    HW154869  13.030   7.366   2.427  1.0837  0.5453 -0.4787
47630SOL    HW254870  13.012   7.512   2.461  0.0826  0.0490  1.2886
47631SOL     OW54871   3.233   2.269  13.531 -1.2532  0.0727  0.3650
47631SOL    HW154872   3.152   2.242  13.572 -0.1001 -2.2956  1.3035
47631SOL    HW254873   3.261   2.192  13.481  2.3203 -0.8132  3.2482
47632SOL     OW54874   5.567   0.083   5.562  0.1396 -0.1791  0.1284
47632SOL    HW154875   5.517   0.156   5.527 -0.9195 -1.1313 -0.4443
47632SOL    HW254876   5.519   0.056   5.640  0.4864 -0.2900  0.3048
47633SOL     OW54877   5.742   7.200   0.732 -0.0996  0.1668  0.3118
47633SOL    HW154878   5.775   7.184   0.820  1.5650  0.5344 -0.2195
47633SOL    HW254879   5.647   7.203   0.743  0.0571 -0.0361  2.0475
47634SOL     OW54880   6.682   1.000   0.516  0.3102  0.2895  0.0889
47634SOL    HW154881   6.737   0.930   0.552  0.0819  0.9203  1.7292
47634SOL    HW254882   6.734   1.079   0.525  0.3461  0.4514 -1.2568
47635SOL     OW54883   2.422   2.860  12.633 -0.1231 -0.2069  0.4712
47635SOL    HW154884   2.451   2.770  12.615 -0.0095  0.3794 -2.7217
47635SOL    HW254885   2.331   2.862  12.603 -0.8278  0.2656  2.4672
47636SOL     OW54886   2.530   2.643  13.761  0.2168 -0.8020 -0.3037
47636SOL    HW154887   2.461   2.582  13.788  0.3163 -1.0791 -0.6707
47636SOL    HW254888   2.539   2.628  13.667  0.6974 -0.6779 -0.2761
47637SOL     OW54889   7.100   2.081  11.539 -0.2917  0.4617  0.0803
47637SOL    HW154890   7.137   2.157  11.584 -0.0830  0.5145 -0.1711
47637SOL    HW254891   7.022   2.058  11.589 -1.2291  1.7899 -0.6985
47638SOL     OW54892   9.325   9.862   1.347 -0.1118  0.2317 -0.0084
47638SOL    HW154893   9.282   9.875   1.432 -1.2271  0.3704 -0.5658
47638SOL    HW254894   9.270   9.910   1.285  0.2914 -0.4391 -0.9133
47639SOL     OW54895   9.230  13.353   0.446 -0.0205  0.0062  0.9600
47639SOL    HW154896   9.297  13.380   0.384  0.7057  0.2869  1.8557
47639SOL    HW254897   9.154  13.407   0.425 -0.3262 -1.0056 -0.7110
47640SOL     OW54898   8.333   4.777   5.700 -0.3080 -0.0077  0.1492
47640SOL    HW154899   8.340   4.844   5.632  1.3735 -1.5815 -1.3551
47640SOL    HW254900   8.305   4.824   5.778  0.6531  2.4144 -0.8713
47641SOL     OW54901   5.365   4.631   3.763 -0.4725 -0.5823 -0.2341
47641SOL    HW154902   5.335   4.559   3.818  2.7618 -0.3584  2.0791
47641SOL    HW254903   5.359   4.709   3.820 -0.9700  0.4435 -1.6351
47642SOL     OW54904   4.365  11.089   0.171  0.3857  0.1025  0.2427
47642SOL    HW154905   4.414  11.017   0.131  0.8861  0.3902  0.3205
47642SOL    HW254906   4.432  11.140   0.217  0.2393  1.3044 -0.8282
47643SOL     OW54907  12.002   6.671  11.989 -0.2877  0.5744  0.4071
47643SOL    HW154908  12.056   6.744  11.958 -0.3322  0.0487 -0.9974
47643SOL    HW254909  11.916   6.709  12.005 -0.7592  0.6057 -1.8215
47644SOL     OW54910  11.482  13.599  12.983  0.4553 -0.1832 -0.0855
47644SOL    HW154911  11.559  13.615  12.929  1.6956 -2.0732  0.9710
47644SOL    HW254912  11.453  13.685  13.011  1.7321  0.6235 -1.1335
47645SOL     OW54913   2.828   1.253   5.952 -0.1823  0.0572 -0.2123
47645SOL    HW154914   2.824   1.241   5.857  0.7556  1.0665 -0.3956
47645SOL    HW254915   2.885   1.329   5.965 -0.3418 -0.0245  1.1594
47646SOL     OW54916   8.756   2.441  12.032  0.3337  0.1472 -0.8575
47646SOL    HW154917   8.712   2.356  12.026 -0.1406  0.3122  0.0448
47646SOL    HW254918   8.795   2.442  12.119 -2.7943  2.2443  0.7417
47647SOL     OW54919   9.943   1.174  10.443  0.8024  0.0698  0.1069
47647SOL    HW154920   9.964   1.251  10.495 -1.4071  0.9065 -0.1103
47647SOL    HW254921   9.968   1.100  10.498  1.5464  0.9310  0.9600
47648SOL     OW54922   8.753   6.958  11.289  0.2190  0.2550 -0.1197
47648SOL    HW154923   8.749   6.865  11.270  0.6323 -0.4327  2.7491
47648SOL    HW254924   8.842   6.972  11.321 -0.0616  1.5065  0.1730
47649SOL     OW54925   2.487   5.388   5.921 -0.2059  0.4843 -0.0608
47649SOL    HW154926   2.444   5.473   5.928 -1.5490 -0.1849 -0.0442
47649SOL    HW254927   2.573   5.402   5.962 -0.6710  1.6321  0.5788
47650SOL     OW54928  12.175   3.288   9.444  0.1900  0.4535  0.9077
47650SOL    HW154929  12.138   3.361   9.494  0.0239  0.0768  1.3408
47650SOL    HW254930  12.099   3.236   9.418  0.4034 -0.5753  2.1925
47651SOL     OW54931   2.936   8.258   5.459 -0.0908  0.3774  0.9713
47651SOL    HW154932   2.886   8.185   5.423  1.3244 -0.3400  0.3985
47651SOL    HW254933   2.906   8.264   5.550 -1.7296  0.4519  0.4599
47652SOL     OW54934   8.092  11.311   0.502  0.2645 -0.2662  0.0984
47652SOL    HW154935   8.163  11.258   0.465  1.1872  1.1750 -0.2892
47652SOL    HW254936   8.067  11.369   0.431 -0.8341 -0.2782  0.4674
47653SOL     OW54937   3.518   0.785   5.497  0.2446 -0.0577  0.3428
47653SOL    HW154938   3.578   0.749   5.563 -1.7163 -1.3982  1.4903
47653SOL    HW254939   3.462   0.846   5.546  0.8868  1.5317 -0.8043
47654SOL     OW54940  10.793   5.021  13.302 -0.5896  0.2858  0.2206
47654SOL    HW154941  10.803   5.015  13.207 -0.4355 -1.5160  0.3130
47654SOL    HW254942  10.721   4.961  13.322 -1.6135  1.7530  1.1125
47655SOL     OW54943   3.544   1.836  10.028  0.3223 -0.3652 -0.5158
47655SOL    HW154944   3.599   1.786   9.968 -0.4767 -0.5402 -1.1126
47655SOL    HW254945   3.500   1.771  10.081 -0.5367 -0.3129 -1.1354
47656SOL     OW54946  13.737   4.233   3.945  0.4227 -0.3816  0.1010
47656SOL    HW154947  13.746   4.143   3.978 -0.4408 -0.8663 -0.9582
47656SOL    HW254948  13.683   4.225   3.867 -1.4805  1.3020  1.1429
47657SOL     OW54949  12.814   6.926   9.447  0.3379 -0.1439 -0.4287
47657SOL    HW154950  12.744   6.860   9.448 -0.1409  0.3290 -1.3652
47657SOL    HW254951  12.772   7.005   9.412  1.1482  0.3801 -0.2465
47658SOL     OW54952  13.743   6.613  13.073  0.1771 -0.2934 -0.3092
47658SOL    HW154953  13.767   6.525  13.044  0.3412 -0.0588 -0.8991
47658SOL    HW254954  13.798   6.672  13.020  0.5849  0.1435  0.5817
47659SOL     OW54955   0.305  12.858  12.109 -0.1151 -0.2726  0.1939
47659SOL    HW154956   0.305  12.944  12.066  1.0653 -1.1178 -1.6485
47659SOL    HW254957   0.245  12.805  12.056 -0.4725 -0.7244  1.0329
47660SOL     OW54958  13.368   9.840   1.065 -0.3302 -0.2941 -0.7307
47660SOL    HW154959  13.322   9.870   0.986 -0.4359  0.5248 -0.3685
47660SOL    HW254960  13.299   9.825   1.129 -0.1656  0.1838 -0.4317
47661SOL     OW54961   2.419  13.140  11.413 -0.2009  0.3198 -0.3433
47661SOL    HW154962   2.406  13.051  11.381 -1.1968  0.8601 -1.5194
47661SOL    HW254963   2.478  13.180  11.349  2.6527 -0.2812  1.6972
47662SOL     OW54964   5.583   1.901   8.893 -0.6805  0.0187  0.0358
47662SOL    HW154965   5.550   1.841   8.959 -0.8000 -0.8366 -0.7742
47662SOL    HW254966   5.506   1.954   8.869 -1.3349 -1.4180 -1.2535
47663SOL     OW54967   2.295  13.259  11.905 -0.2712  0.1341  0.1913
47663SOL    HW154968   2.215  13.306  11.929 -0.1311  0.0615  0.8232
47663SOL    HW254969   2.266  13.169  11.888 -0.2180 -0.1053  1.2683
47664SOL     OW54970   5.359   3.431   8.398  0.1344 -0.0131  0.0394
47664SOL    HW154971   5.392   3.389   8.319  0.8620 -1.0901  0.8837
47664SOL    HW254972   5.428   3.418   8.463  0.2412  2.1874  0.4644
47665SOL     OW54973  10.167   2.706  11.027 -0.0900 -0.4610 -0.3236
47665SOL    HW154974  10.206   2.738  11.109  0.7745 -0.9312 -0.5397
47665SOL    HW254975  10.241   2.697  10.968 -0.7014 -0.1945 -1.1457
47666SOL     OW54976   3.341   7.964   2.065  0.7082  0.1687  0.4410
47666SOL    HW154977   3.385   7.972   1.980 -0.2769  2.4591  0.0795
47666SOL    HW254978   3.355   7.873   2.090  1.6743 -0.3802 -1.8135
47667SOL     OW54979  10.298   6.020   5.082  0.0130  0.0238 -0.2743
47667SOL    HW154980  10.306   6.019   5.178 -0.3287  3.2013 -0.0967
47667SOL    HW254981  10.344   5.941   5.053  1.5721 -0.1800  2.4212
47668SOL     OW54982  13.503  13.013   5.466 -1.2850  0.3133  0.3778
47668SOL    HW154983  13.495  12.988   5.373 -1.9791  1.6791  0.0477
47668SOL    HW254984  13.493  12.930   5.513 -1.0335 -0.3980 -0.7506
47669SOL     OW54985  12.531   8.485   0.188  0.2224 -0.3755  0.9616
47669SOL    HW154986  12.588   8.451   0.119 -0.6498  1.0066 -0.5363
47669SOL    HW254987  12.501   8.570   0.154 -2.3594 -0.8411  1.8296
47670SOL     OW54988  12.884   1.444  13.790  0.2101  0.2393  0.0202
47670SOL    HW154989  12.841   1.384  13.730 -0.4828  0.3432  0.3991
47670SOL    HW254990  12.937   1.501  13.734  0.5185 -0.4254 -0.3780
47671SOL     OW54991   1.092   2.120   5.416  0.2937 -0.6565 -0.7825
47671SOL    HW154992   1.169   2.116   5.473  0.4847 -2.8954 -1.0720
47671SOL    HW254993   1.023   2.077   5.467  0.0452 -1.2528 -1.6069
47672SOL     OW54994   3.136   4.899   9.476  0.1374 -0.6371  0.0926
47672SOL    HW154995   3.081   4.924   9.402 -1.0921 -0.0203  1.1786
47672SOL    HW254996   3.225   4.903   9.442 -0.3929 -0.2957 -1.3272
47673SOL     OW54997   1.530  13.616   3.897 -0.1081  0.4514  0.0250
47673SOL    HW154998   1.561  13.528   3.879  1.4354  1.0010 -0.1922
47673SOL    HW254999   1.533  13.661   3.813  1.7499  1.4471  0.5635
47674SOL     OW55000   9.212   1.206  10.018  0.1924 -0.1021 -0.1337
47674SOL    HW155001   9.124   1.231   9.989 -0.8474 -0.3325  2.5628
47674SOL    HW255002   9.262   1.287  10.014 -0.0001 -0.0100 -1.9131
47675SOL     OW55003   9.230   7.482  12.624 -0.0408  0.0736  0.1050
47675SOL    HW155004   9.173   7.448  12.555 -1.8717 -3.0120  2.8400
47675SOL    HW255005   9.232   7.576  12.609 -1.2677 -0.3083 -3.3969
47676SOL     OW55006  10.676   2.636  14.019  0.6238 -0.2063  0.0843
47676SOL    HW155007  10.730   2.682  13.955  0.7551 -0.9581 -0.3530
47676SOL    HW255008  10.622   2.705  14.058 -0.8634  0.0418 -2.2140
47677SOL     OW55009   9.078  13.570   8.647  0.0849  0.0412 -1.0013
47677SOL    HW155010   8.992  13.595   8.613 -0.6241 -0.7524  0.1740
47677SOL    HW255011   9.066  13.564   8.741  1.2935 -0.6427 -0.8758
47678SOL     OW55012   5.930   9.620   3.325  0.2968 -0.5479  0.2961
47678SOL    HW155013   5.966   9.555   3.265  2.4194 -1.3235  2.2926
47678SOL    HW255014   5.982   9.612   3.404  0.0247  2.9662  0.9843
47679SOL     OW55015   2.094  14.033   2.807 -0.6216  0.4375  0.6019
47679SOL    HW155016   2.086  13.939   2.787  0.1375  0.6355 -0.7598
47679SOL    HW255017   2.012  14.071   2.775 -1.3979  0.1115  2.1314
47680SOL     OW55018   8.801   4.492  12.854 -0.8666  0.0734 -0.0652
47680SOL    HW155019   8.764   4.470  12.769 -0.4047  1.3390 -0.6184
47680SOL    HW255020   8.824   4.407  12.893  0.0722 -0.4884 -1.7386
47681SOL     OW55021   1.585   7.522   9.340  0.1273  0.3730 -0.1091
47681SOL    HW155022   1.490   7.531   9.350 -0.1064 -1.4909 -0.2339
47681SOL    HW255023   1.618   7.612   9.339 -1.6030  1.0504  0.1928
47682SOL     OW55024   3.848   1.750   4.012  0.3956  0.6777 -0.8300
47682SOL    HW155025   3.900   1.829   3.997  0.1139  1.2470  0.9955
47682SOL    HW255026   3.757   1.781   4.011  0.2339  0.1971 -1.1266
47683SOL     OW55027   8.595  12.560   8.520  0.1583 -0.4179 -0.1317
47683SOL    HW155028   8.501  12.576   8.513  0.3083  0.4488 -0.3320
47683SOL    HW255029   8.618  12.590   8.607  0.1703 -1.1073  0.1101
47684SOL     OW55030  12.480   5.287  11.296  0.1795  0.0189 -0.2678
47684SOL    HW155031  12.411   5.350  11.315  0.2557  0.1864 -0.5389
47684SOL    HW255032  12.562   5.334  11.314  0.2219 -0.1731  0.0367
47685SOL     OW55033   8.896   3.404   0.338 -0.4008 -0.2473 -0.3684
47685SOL    HW155034   8.907   3.319   0.294 -0.3048 -0.1970 -0.4429
47685SOL    HW255035   8.960   3.461   0.295 -0.6118 -0.0814 -0.4648
47686SOL     OW55036   9.814  11.054   2.203 -0.1250  0.6065 -0.1071
47686SOL    HW155037   9.901  11.079   2.170  0.6753  0.5595  1.8297
47686SOL    HW255038   9.825  10.964   2.232 -0.4158  1.0218  1.3710
47687SOL     OW55039   5.543   3.512   0.993  0.0526 -0.0750 -0.0244
47687SOL    HW155040   5.555   3.606   0.986  1.4126 -0.1517  0.9742
47687SOL    HW255041   5.448   3.499   0.987 -0.0796  1.2261 -1.3094
47688SOL     OW55042  13.398   7.369  14.036 -0.3461  0.1065 -0.2649
47688SOL    HW155043  13.332   7.417  13.986 -0.8362 -2.0147 -1.7872
47688SOL    HW255044  13.360   7.359  14.124 -1.0495  0.8426 -0.4760
47689SOL     OW55045   8.264  11.484  13.230  0.7489 -0.3869 -0.3813
47689SOL    HW155046   8.245  11.538  13.153 -0.1759 -0.0720  0.0412
47689SOL    HW255047   8.213  11.404  13.216 -0.2820  0.1082  0.3701
47690SOL     OW55048   1.893  11.443  12.551  0.1334  0.1524 -0.3468
47690SOL    HW155049   1.827  11.502  12.517  0.0725 -0.7607 -1.9058
47690SOL    HW255050   1.847  11.390  12.616 -0.0554  1.1016  0.3129
47691SOL     OW55051   2.361   2.409   6.861 -0.0180  0.0980 -0.2782
47691SOL    HW155052   2.358   2.329   6.808 -0.7751  1.2129 -1.9977
47691SOL    HW255053   2.442   2.401   6.912 -1.2482 -2.8668  1.4997
47692SOL     OW55054   6.115  11.239  13.024 -0.4226  0.4210 -0.5288
47692SOL    HW155055   6.178  11.187  13.075 -1.0692  0.2780  0.1421
47692SOL    HW255056   6.105  11.320  13.074  1.3361  1.6616 -2.0861
47693SOL     OW55057   4.151   1.079   2.994  0.2073  0.0185  0.3537
47693SOL    HW155058   4.086   1.018   2.961  0.6997 -0.9014  1.0386
47693SOL    HW255059   4.196   1.031   3.063  1.2989  0.8065  0.2128
47694SOL     OW55060   7.771   1.834  10.067 -0.6407 -0.2156 -0.2195
47694SOL    HW155061   7.825   1.758  10.044 -0.7911 -0.4254  0.1111
47694SOL    HW255062   7.833   1.896  10.105 -0.5757 -0.3259 -0.1411
47695SOL     OW55063  10.033   2.879  10.533  0.3728  0.2304 -0.3806
47695SOL    HW155064  10.000   2.954  10.583 -1.5477 -0.8534  0.0799
47695SOL    HW255065   9.967   2.810  10.547  1.3762 -1.1028 -1.8989
47696SOL     OW55066  10.321   6.529   4.542 -0.5434  0.2754  0.1665
47696SOL    HW155067  10.265   6.599   4.575  0.4362  0.3238  1.8384
47696SOL    HW255068  10.408   6.549   4.577  0.4619 -0.0661 -1.9527
47697SOL     OW55069  12.141   5.452   7.168  0.2919  0.8210 -0.0185
47697SOL    HW155070  12.203   5.389   7.130 -1.7086 -0.3985 -1.4654
47697SOL    HW255071  12.132   5.425   7.259 -1.3250 -1.7894 -0.8401
47698SOL     OW55072   9.035   5.476   0.885  0.1064  0.1200  0.1738
47698SOL    HW155073   8.947   5.464   0.849  0.1130 -0.8736  0.4673
47698SOL    HW255074   9.065   5.388   0.906  1.4116  0.3883 -0.4577
47699SOL     OW55075  11.025   8.380  14.017  0.7427  0.4417 -0.6329
47699SOL    HW155076  11.118   8.369  13.999  0.9486  1.9175 -0.6444
47699SOL    HW255077  10.998   8.453  13.962 -0.4890 -0.1111 -0.8085
47700SOL     OW55078  13.318   2.812   0.631  0.6293 -0.2534 -0.1480
47700SOL    HW155079  13.286   2.900   0.654 -2.3124 -0.7502 -1.7545
47700SOL    HW255080  13.412   2.816   0.647  0.4237  2.7542  1.1292
47701SOL     OW55081  13.795   4.186   0.573  0.1891 -0.2736  0.1707
47701SOL    HW155082  13.876   4.234   0.585  1.0990 -1.5473 -0.6873
47701SOL    HW255083  13.760   4.218   0.490  0.5253 -0.7052 -0.1403
47702SOL     OW55084   6.665  11.617   7.271 -0.1997 -0.3556  0.2212
47702SOL    HW155085   6.620  11.698   7.247 -1.6581 -0.7202  1.5439
47702SOL    HW255086   6.757  11.642   7.278 -0.5543  1.0670  0.0881
47703SOL     OW55087   3.428   7.996  10.513  0.2642 -0.1024  0.0344
47703SOL    HW155088   3.453   8.038  10.431 -0.4773 -1.0921 -0.7318
47703SOL    HW255089   3.440   8.064  10.580  0.0465  1.0099 -1.0146
47704SOL     OW55090   9.700   6.556  13.225  0.1552 -0.0359  0.1951
47704SOL    HW155091   9.693   6.636  13.173  0.6487  1.4668  2.3051
47704SOL    HW255092   9.794   6.548  13.244  0.1549 -1.3254 -0.2203
47705SOL     OW55093   5.382   5.580  13.008  0.3072  0.1596 -0.5047
47705SOL    HW155094   5.313   5.616  12.952  1.9722  2.1896 -1.3446
47705SOL    HW255095   5.417   5.506  12.958  0.3563  0.6238 -1.1657
47706SOL     OW55096   8.709   7.865  13.914 -0.1298  0.4158  0.2411
47706SOL    HW155097   8.702   7.927  13.987 -0.3591 -0.2887  0.8223
47706SOL    HW255098   8.631   7.882  13.862 -0.2735  0.5042  0.4836
47707SOL     OW55099   2.100   8.883   6.962  0.1926 -0.3321  0.0916
47707SOL    HW155100   2.169   8.843   6.910  0.7873  1.8467 -0.8927
47707SOL    HW255101   2.020   8.838   6.934  0.9405 -1.5645 -0.1432
47708SOL     OW55102   4.540   9.915   9.000  0.5343 -0.0451 -0.2907
47708SOL    HW155103   4.590   9.890   9.078  0.7912  0.9978 -0.0992
47708SOL    HW255104   4.511  10.004   9.018 -1.8689 -0.7793 -0.1898
47709SOL     OW55105   6.988   3.034   3.346  0.3359  0.5889  0.4396
47709SOL    HW155106   7.040   3.044   3.425  1.6985  0.8029 -0.4597
47709SOL    HW255107   6.921   2.969   3.369  1.2959 -0.0580  1.4724
47710SOL     OW55108   6.682   8.005   5.051 -0.1487  0.1995 -0.2925
47710SOL    HW155109   6.714   8.007   5.141 -0.3043 -0.4836 -0.2199
47710SOL    HW255110   6.615   8.074   5.047  0.0377  0.3994  0.0433
47711SOL     OW55111   2.296  11.273  12.668 -0.2188 -0.1359 -0.4718
47711SOL    HW155112   2.333  11.306  12.750 -1.2195 -0.0779 -0.0344
47711SOL    HW255113   2.286  11.352  12.614 -1.7857  0.1900  0.2490
47712SOL     OW55114  12.174   6.775   7.662 -0.0220  0.5099  0.5796
47712SOL    HW155115  12.269   6.772   7.674  0.0341  0.2736  0.1187
47712SOL    HW255116  12.140   6.710   7.724  0.2113 -0.2508 -0.0647
47713SOL     OW55117   1.087   4.377   6.734  0.7094  0.2887 -0.3557
47713SOL    HW155118   1.066   4.470   6.724 -1.3037 -0.0442  0.3873
47713SOL    HW255119   1.107   4.367   6.827 -0.1869 -0.2006 -0.2060
47714SOL     OW55120   7.146   7.478   4.722  0.1723 -0.2629  0.7168
47714SOL    HW155121   7.092   7.488   4.800 -1.3157 -1.4670 -0.0947
47714SOL    HW255122   7.220   7.424   4.751  0.8782  1.2381  1.8004
47715SOL     OW55123   7.695  12.260  11.854  0.0888  0.7928 -0.0658
47715SOL    HW155124   7.684  12.170  11.823  1.4063  0.2383  0.9380
47715SOL    HW255125   7.781  12.286  11.821 -0.1242  1.5581 -0.0336
47716SOL     OW55126   6.888   8.477   5.152 -0.0084 -0.4506 -0.2460
47716SOL    HW155127   6.952   8.547   5.163 -0.7103  0.0267  0.9361
47716SOL    HW255128   6.923   8.424   5.080  2.1572 -0.6615  0.8540
47717SOL     OW55129  10.884  12.060   8.344  0.5933  0.0153  0.2862
47717SOL    HW155130  10.978  12.076   8.335  0.6165 -0.9397 -1.8299
47717SOL    HW255131  10.867  11.987   8.283 -1.7698  1.2321 -0.6011
47718SOL     OW55132   7.772  13.793   8.195  0.4690 -0.2510  0.0377
47718SOL    HW155133   7.759  13.700   8.174 -0.2397 -0.5078  1.5189
47718SOL    HW255134   7.820  13.792   8.278  1.7189  0.7278 -0.6390
47719SOL     OW55135   9.517   9.201  13.167 -0.2371 -0.1386 -0.3901
47719SOL    HW155136   9.543   9.293  13.176 -1.9862  0.4129 -0.5817
47719SOL    HW255137   9.599   9.154  13.159  0.7917  1.2093  1.4364
47720SOL     OW55138  12.730   6.980   7.999  0.2722  0.2583 -0.6615
47720SOL    HW155139  12.655   6.929   7.967  0.1366 -3.2518  4.1127
47720SOL    HW255140  12.692   7.040   8.064  1.2974  0.2695 -0.0544
47721SOL     OW55141   0.315   5.213   8.153 -0.2471  0.4600 -0.4178
47721SOL    HW155142   0.280   5.292   8.194  0.0912  0.2812  0.2306
47721SOL    HW255143   0.301   5.144   8.218  1.6101  0.4416  0.0197
47722SOL     OW55144  11.078   6.464   3.807 -0.1430 -0.0851 -0.5805
47722SOL    HW155145  10.990   6.469   3.844  0.1317  0.6059  0.0083
47722SOL    HW255146  11.071   6.402   3.735 -0.9435 -0.5946 -0.0704
47723SOL     OW55147  11.540   6.778   6.022 -0.4066 -0.2863  0.8545
47723SOL    HW155148  11.615   6.718   6.028  0.1690  0.2267 -0.5769
47723SOL    HW255149  11.547   6.833   6.099  1.4781  0.5660  0.1437
47724SOL     OW55150  13.533  10.368   3.580 -0.0699  0.0268 -0.4649
47724SOL    HW155151  13.468  10.385   3.512 -1.0341 -2.0365 -0.1535
47724SOL    HW255152  13.496  10.406   3.659 -0.7048 -0.7215 -0.3886
47725SOL     OW55153  13.730   9.938   0.169  0.8672 -0.5933  0.0127
47725SOL    HW155154  13.640   9.921   0.141  0.8547 -0.4783 -0.0169
47725SOL    HW255155  13.740   9.889   0.251  1.6547 -2.9991 -1.4059
47726SOL     OW55156  13.449   0.706   5.364  0.0882  0.0704  0.3863
47726SOL    HW155157  13.523   0.677   5.310 -0.1078 -0.0746  0.1923
47726SOL    HW255158  13.438   0.636   5.429 -1.9674 -1.6109 -1.5853
47727SOL     OW55159  12.288   1.096  12.754 -0.0441  0.5496  0.4050
47727SOL    HW155160  12.245   1.131  12.676  0.2763  1.4531  0.6342
47727SOL    HW255161  12.243   1.138  12.827 -1.9782 -2.0232  0.8706
47728SOL     OW55162  10.534  13.161   3.375 -0.2797 -0.0447  0.6941
47728SOL    HW155163  10.469  13.192   3.311  1.2698 -1.0935 -1.4894
47728SOL    HW255164  10.566  13.241   3.416 -1.4623  0.6487  0.3280
47729SOL     OW55165   0.911   4.206   0.478 -0.0674 -0.0631  0.4871
47729SOL    HW155166   0.944   4.251   0.401 -1.5972 -0.4527 -0.4328
47729SOL    HW255167   0.987   4.200   0.537  0.4820  2.5734  0.1477
47730SOL     OW55168   8.624   6.357   5.670 -0.1439 -0.6206 -0.0698
47730SOL    HW155169   8.679   6.431   5.693 -1.5322  0.0555  1.3127
47730SOL    HW255170   8.544   6.397   5.634  0.5435 -1.5876 -2.8775
47731SOL     OW55171   4.280   9.147   2.847  0.5327 -1.2062  0.3848
47731SOL    HW155172   4.370   9.171   2.826 -0.1019 -1.1766 -2.6369
47731SOL    HW255173   4.258   9.076   2.786 -2.3632  0.7087 -1.0197
47732SOL     OW55174   4.373   8.029  11.978 -0.1394 -0.1387 -0.7526
47732SOL    HW155175   4.430   8.033  11.901  0.4025 -2.4626 -0.5386
47732SOL    HW255176   4.430   8.054  12.051  0.7653 -2.6541 -0.5101
47733SOL     OW55177   9.563   1.086  13.486 -0.0670  0.3921  0.1883
47733SOL    HW155178   9.584   1.065  13.395 -1.2634 -2.2681  0.4181
47733SOL    HW255179   9.467   1.088  13.488 -0.0382  1.1426  1.2629
47734SOL     OW55180  12.277  11.729   4.999  0.6086 -0.4075  0.0494
47734SOL    HW155181  12.363  11.691   4.981 -0.6524 -2.8668 -1.1982
47734SOL    HW255182  12.261  11.789   4.926  1.1842 -0.0444  0.2178
47735SOL     OW55183   8.871   9.898  11.167  0.5728 -0.2001 -0.3892
47735SOL    HW155184   8.871   9.848  11.249  0.3478 -0.4099 -0.5159
47735SOL    HW255185   8.869   9.989  11.195  1.7212 -0.2401 -0.1441
47736SOL     OW55186  12.596   5.470   8.733 -0.5925 -0.1242 -0.2680
47736SOL    HW155187  12.547   5.408   8.786  1.4462 -0.4695  1.3559
47736SOL    HW255188  12.531   5.535   8.706 -1.9141 -0.4372  1.9097
47737SOL     OW55189   1.655   0.466   2.179  0.3479  0.2711  0.2064
47737SOL    HW155190   1.567   0.505   2.183 -0.2318 -1.0412  0.6839
47737SOL    HW255191   1.660   0.430   2.090  0.3817  0.3093  0.1930
47738SOL     OW55192   6.447   1.191   5.529  0.0777 -0.6997  0.0062
47738SOL    HW155193   6.416   1.210   5.617 -1.9311 -1.7130 -0.4208
47738SOL    HW255194   6.437   1.273   5.482 -0.1522 -0.5104  0.3821
47739SOL     OW55195   2.684   8.837   4.133  0.0117  0.1504  0.0931
47739SOL    HW155196   2.730   8.850   4.216  0.5708 -3.3378  0.4670
47739SOL    HW255197   2.749   8.859   4.066 -0.3014  2.5483  0.4945
47740SOL     OW55198   6.740   1.328   7.703  0.3493 -0.2826  0.5384
47740SOL    HW155199   6.832   1.308   7.719  0.1898 -1.6568 -0.1245
47740SOL    HW255200   6.693   1.247   7.723 -0.5329 -0.1071 -0.6820
47741SOL     OW55201   2.643   2.590   0.573 -0.4755 -0.3006  0.1618
47741SOL    HW155202   2.594   2.523   0.621 -1.5228 -0.5931 -1.2451
47741SOL    HW255203   2.595   2.671   0.589  0.5233  0.0635  1.4797
47742SOL     OW55204   9.611  11.231   7.004 -0.0247 -0.0462 -0.6676
47742SOL    HW155205   9.628  11.150   7.051  2.7566 -0.0720 -1.5091
47742SOL    HW255206   9.631  11.210   6.913 -2.2085  0.8354 -1.4040
47743SOL     OW55207   4.784  11.146   7.184 -0.3357 -0.1992  0.2219
47743SOL    HW155208   4.779  11.069   7.240  2.2219 -0.3361  0.3463
47743SOL    HW255209   4.703  11.194   7.202 -3.0889 -3.7209 -1.2875
47744SOL     OW55210   8.187   4.931   8.704 -0.0663 -0.4609 -0.5657
47744SOL    HW155211   8.106   4.900   8.744 -0.6159  1.1605 -0.3246
47744SOL    HW255212   8.221   4.996   8.767  0.4683  0.1755 -1.4831
47745SOL     OW55213   4.122  12.347   4.494 -0.4252  0.1511 -0.2076
47745SOL    HW155214   4.192  12.342   4.559 -0.6889 -0.1128  0.0567
47745SOL    HW255215   4.108  12.441   4.481  0.3294  0.2103 -0.6455
47746SOL     OW55216  13.850   1.790  11.799  0.3519  0.4530  0.7246
47746SOL    HW155217  13.848   1.801  11.704 -0.6328  0.3876  0.7240
47746SOL    HW255218  13.798   1.863  11.833 -3.7863 -2.1909  0.8817
47747SOL     OW55219  10.378   0.204   3.347  0.0135  0.0191 -0.0655
47747SOL    HW155220  10.308   0.255   3.389 -1.2656 -1.6071 -0.0890
47747SOL    HW255221  10.357   0.113   3.369  0.8506 -0.6837 -1.9397
47748SOL     OW55222   5.821   9.122   7.567 -0.5657  0.3927 -0.1275
47748SOL    HW155223   5.841   9.028   7.564 -2.7305 -0.1328 -0.3526
47748SOL    HW255224   5.871   9.154   7.642 -2.0472 -1.6342  1.9237
47749SOL     OW55225   4.138   2.683   7.244  0.0030  0.1584  0.6310
47749SOL    HW155226   4.048   2.704   7.217 -0.2227 -1.3349  0.1278
47749SOL    HW255227   4.137   2.589   7.260  1.7676 -0.1122 -0.5733
47750SOL     OW55228  11.076  11.230   0.026 -0.3090 -0.0781  0.3540
47750SOL    HW155229  11.014  11.213  -0.045 -0.9706 -1.2924  1.1854
47750SOL    HW255230  11.134  11.298  -0.009 -1.6387  0.5579 -0.7248
47751SOL     OW55231   9.488   6.240  12.026 -0.4831  0.7378 -0.3530
47751SOL    HW155232   9.563   6.216  11.971  1.3993  0.8546  2.0105
47751SOL    HW255233   9.470   6.331  12.002  0.3240  0.7997 -0.7768
47752SOL     OW55234   1.852  12.097   7.496  0.1152 -0.1393 -0.5787
47752SOL    HW155235   1.905  12.175   7.478  0.6506 -0.5094 -0.6111
47752SOL    HW255236   1.906  12.024   7.467 -0.5303 -0.5055 -0.8754
47753SOL     OW55237   8.175  13.913   9.096 -0.5013  0.1094 -0.0345
47753SOL    HW155238   8.142  13.837   9.048  1.2524  0.5934 -2.1525
47753SOL    HW255239   8.097  13.948   9.141 -1.7289 -1.7898 -0.5542
47754SOL     OW55240   7.819   9.757   4.957 -0.7804 -0.2305  0.0953
47754SOL    HW155241   7.726   9.759   4.979 -0.8333 -0.3249 -0.1217
47754SOL    HW255242   7.836   9.665   4.935 -0.3596 -0.4830  1.3394
47755SOL     OW55243   2.152   9.103  11.786  0.4533  0.6296 -0.7750
47755SOL    HW155244   2.163   9.057  11.870 -0.6878  1.9683  0.1526
47755SOL    HW255245   2.177   9.038  11.720 -1.2838 -1.4011  0.4409
47756SOL     OW55246   3.707   2.489   7.855 -0.0607  0.1447  0.2292
47756SOL    HW155247   3.750   2.409   7.884 -0.1389 -0.4406 -1.1614
47756SOL    HW255248   3.629   2.496   7.909 -0.6963 -1.4079 -0.4223
47757SOL     OW55249   2.394  11.644  11.229 -0.5348 -0.3784  0.0492
47757SOL    HW155250   2.397  11.736  11.202 -2.0144 -0.3591 -0.1861
47757SOL    HW255251   2.382  11.596  11.147 -1.7114 -0.5992  0.3259
47758SOL     OW55252   5.277  11.185   8.235 -0.4968 -0.3569 -0.1174
47758SOL    HW155253   5.326  11.111   8.272  1.0526  1.0803  0.8471
47758SOL    HW255254   5.325  11.207   8.155 -0.8876 -0.3111 -0.3429
47759SOL     OW55255   4.330   8.682   3.967 -0.0159 -0.2723 -0.6464
47759SOL    HW155256   4.412   8.656   4.010  0.3333 -1.9822 -2.2208
47759SOL    HW255257   4.290   8.599   3.941 -1.4473  0.6112 -1.3638
47760SOL     OW55258   7.689   9.192   9.252 -0.1318  0.0149  0.1256
47760SOL    HW155259   7.751   9.132   9.211  0.1057 -0.2055  0.7920
47760SOL    HW255260   7.675   9.261   9.187 -0.7010 -0.9630 -0.7978
47761SOL     OW55261  13.083   6.196   5.645  0.1327 -0.2062 -0.5008
47761SOL    HW155262  13.142   6.271   5.644  0.0817 -0.1171  0.9878
47761SOL    HW255263  13.141   6.121   5.662  0.1860 -0.5364 -1.9871
47762SOL     OW55264  10.393   5.764   6.222 -0.3087 -0.2414 -0.2552
47762SOL    HW155265  10.321   5.710   6.256 -1.8114  1.2129 -0.9551
47762SOL    HW255266  10.437   5.797   6.301  0.2071 -1.8634  0.1800
47763SOL     OW55267   3.313   9.041   4.074  0.0147 -0.2685  0.2190
47763SOL    HW155268   3.321   9.065   3.981 -2.5600  2.5263  0.5846
47763SOL    HW255269   3.302   9.124   4.119  1.9618 -1.4883  3.2460
47764SOL     OW55270  10.486  11.531   0.134  0.1089 -0.1266  0.1631
47764SOL    HW155271  10.419  11.499   0.075 -1.0587  0.7891  0.9410
47764SOL    HW255272  10.446  11.606   0.177  0.8217 -0.9089  2.3105
47765SOL     OW55273  12.266   1.231   7.396 -0.2674 -0.1573  0.1247
47765SOL    HW155274  12.174   1.204   7.402 -0.8263  0.8020 -2.5757
47765SOL    HW255275  12.298   1.188   7.317  1.2817  0.4485  0.3898
47766SOL     OW55276   5.445  11.971   0.413  0.2384 -0.4455  0.3555
47766SOL    HW155277   5.427  11.927   0.330  0.0227 -0.8743  0.6273
47766SOL    HW255278   5.369  12.028   0.427  0.4162 -0.1449  0.1125
47767SOL     OW55279   4.327   9.969   7.090  0.3047 -0.5113  0.4106
47767SOL    HW155280   4.406  10.003   7.049 -0.4870 -0.0088 -0.7637
47767SOL    HW255281   4.262  10.039   7.079  0.1161 -0.2370  2.8065
47768SOL     OW55282   8.209   0.845   5.688  0.1263  0.0549  0.0573
47768SOL    HW155283   8.238   0.933   5.662  2.2002 -1.3915 -3.1662
47768SOL    HW255284   8.288   0.802   5.720 -0.4576 -1.1663 -0.0800
47769SOL     OW55285  12.120  11.606   8.239  0.8612  0.0714  0.0005
47769SOL    HW155286  12.147  11.514   8.241  1.0422  0.0625 -1.5209
47769SOL    HW255287  12.198  11.653   8.210  0.5486  0.6150  0.0328
47770SOL     OW55288   2.149   6.690   7.287  0.2927  0.6214 -0.3650
47770SOL    HW155289   2.098   6.625   7.337 -2.3700  0.4779 -2.9673
47770SOL    HW255290   2.170   6.645   7.205  0.9103  2.1202 -1.0540
47771SOL     OW55291   3.667   5.454   3.385 -0.3838  0.1476  0.0591
47771SOL    HW155292   3.629   5.400   3.455  0.0278  0.4858  0.5475
47771SOL    HW255293   3.615   5.433   3.307 -1.1211  0.0851  0.5637
47772SOL     OW55294  11.978   8.761  12.986 -0.1627 -0.4933 -0.2882
47772SOL    HW155295  11.886   8.786  12.981 -0.4708 -1.6937 -1.1490
47772SOL    HW255296  11.983   8.701  13.060 -0.1901 -0.8634 -0.5835
47773SOL     OW55297   9.903   9.423   8.792 -0.1170 -0.2222 -0.4113
47773SOL    HW155298   9.849   9.392   8.719 -0.1602 -1.2810  0.0556
47773SOL    HW255299   9.922   9.514   8.770 -0.7631 -0.2994 -1.3693
47774SOL     OW55300   6.307   8.609   7.807  0.2581 -0.2755  0.4557
47774SOL    HW155301   6.290   8.589   7.715  0.2007  0.1749  0.3670
47774SOL    HW255302   6.220   8.607   7.848  0.1947  0.2789  0.3496
47775SOL     OW55303   5.219  11.891   2.056  0.7632  0.1299  0.2257
47775SOL    HW155304   5.305  11.930   2.070  2.0459 -2.1811 -0.6967
47775SOL    HW255305   5.226  11.846   1.972 -2.0883  1.6694 -0.9786
47776SOL     OW55306   5.965   8.488   0.955  0.0509  0.3295  0.0505
47776SOL    HW155307   6.038   8.521   1.008 -0.5504 -0.8332  1.6767
47776SOL    HW255308   5.947   8.558   0.892 -0.5129  2.7256  2.6886
47777SOL     OW55309   7.319   0.096  14.031  0.1585  0.1326  0.3400
47777SOL    HW155310   7.316   0.178  13.981  0.0777 -0.1404 -0.1186
47777SOL    HW255311   7.329   0.123  14.122  0.1685  0.6500  0.1894
47778SOL     OW55312  13.012   8.361  10.998  0.0769  0.3731 -0.5576
47778SOL    HW155313  13.107   8.369  11.010  0.1222 -1.1793  0.4110
47778SOL    HW255314  12.989   8.278  11.041 -1.9092  1.3397  0.3847
47779SOL     OW55315   1.381   1.151   3.098 -0.1608 -0.1355  0.0287
47779SOL    HW155316   1.307   1.113   3.051  0.0409 -1.1340  0.4737
47779SOL    HW255317   1.355   1.147   3.190 -0.3920  1.4288  0.0507
47780SOL     OW55318   0.788   2.346   7.490 -0.2313  0.0822 -0.0875
47780SOL    HW155319   0.732   2.402   7.544 -1.1866  0.2319 -1.1902
47780SOL    HW255320   0.735   2.326   7.413  1.2818  0.3374 -1.2490
47781SOL     OW55321   1.615   6.442  10.655  0.4675 -0.4344  0.1237
47781SOL    HW155322   1.549   6.456  10.724  0.9212 -0.1874  0.5102
47781SOL    HW255323   1.590   6.358  10.616 -2.1285  1.1722 -2.0714
47782SOL     OW55324  12.795  10.443   1.734  0.3004 -0.0789  0.1966
47782SOL    HW155325  12.778  10.447   1.828  0.4456  1.4644  0.1801
47782SOL    HW255326  12.877  10.394   1.726  1.5547  1.7608  1.0879
47783SOL     OW55327   1.151  10.694   7.170 -0.4488  0.0538 -0.0672
47783SOL    HW155328   1.232  10.661   7.210  0.5023  0.8578 -1.2304
47783SOL    HW255329   1.164  10.789   7.166 -1.0153  0.0988 -1.1925
47784SOL     OW55330  10.447   5.009   4.503  0.7406  0.3745 -0.8574
47784SOL    HW155331  10.360   5.043   4.479 -0.0119 -1.4594 -0.8572
47784SOL    HW255332  10.507   5.055   4.445 -0.5593 -0.4625 -2.9764
47785SOL     OW55333   1.439   2.911  10.627 -0.6483  0.0903 -0.1305
47785SOL    HW155334   1.383   2.837  10.650  1.4278 -1.2913  0.7160
47785SOL    HW255335   1.418   2.929  10.535 -2.1431 -0.6496  0.0357
47786SOL     OW55336   0.222  10.126   3.780 -0.3100  0.4755 -0.4321
47786SOL    HW155337   0.268  10.199   3.737  3.6697 -1.6416 -0.2633
47786SOL    HW255338   0.174  10.083   3.709 -0.1531  1.4370 -1.1543
47787SOL     OW55339   1.410   3.954  13.357  0.5441  0.1015 -0.4623
47787SOL    HW155340   1.445   4.014  13.422 -1.5853  0.8674  0.0312
47787SOL    HW255341   1.428   3.867  13.392  0.3317  0.4958  0.6420
47788SOL     OW55342  12.937   6.483   2.241  0.2707  0.1668  0.3310
47788SOL    HW155343  12.977   6.517   2.162 -2.4909 -0.5399 -1.4968
47788SOL    HW255344  12.861   6.539   2.257  0.7330  0.2874  2.5217
47789SOL     OW55345   2.591   1.020   9.276 -0.4838 -0.0367 -0.6829
47789SOL    HW155346   2.606   0.928   9.257 -0.8691 -0.4575  0.8981
47789SOL    HW255347   2.667   1.046   9.329 -0.8429  0.2801 -0.3160
47790SOL     OW55348   1.512  13.954  10.979 -0.0897 -0.6419  0.5086
47790SOL    HW155349   1.559  14.017  10.924  2.2506 -1.4549  1.4412
47790SOL    HW255350   1.538  13.869  10.945 -2.3478 -1.1766 -0.0412
47791SOL     OW55351   9.502  10.898   4.783 -0.0317  0.1899 -0.3409
47791SOL    HW155352   9.541  10.815   4.808  0.7270  0.7204  0.3032
47791SOL    HW255353   9.471  10.884   4.694 -0.1175 -0.8393 -0.1651
47792SOL     OW55354  10.928   3.052   0.990 -0.3301 -0.2528 -0.7155
47792SOL    HW155355  10.890   3.119   0.932  0.3474  0.4742 -0.3287
47792SOL    HW255356  10.852   3.008   1.028 -0.7948  0.5508 -0.6872
47793SOL     OW55357  10.281   8.728   4.455 -0.4643  0.4679  0.0035
47793SOL    HW155358  10.376   8.722   4.440 -0.2804  2.2506  0.2818
47793SOL    HW255359  10.264   8.665   4.525  0.1756 -1.2379 -1.2978
47794SOL     OW55360  12.651   8.569   6.958  0.2222 -0.0454 -0.4886
47794SOL    HW155361  12.592   8.645   6.962  1.6692  1.1340 -0.5917
47794SOL    HW255362  12.710   8.581   7.033 -0.0617 -1.5625  0.0039
47795SOL     OW55363   7.109   3.805   3.676  0.4877 -0.4947  0.2638
47795SOL    HW155364   7.148   3.727   3.637 -1.8959 -1.2293 -0.8352
47795SOL    HW255365   7.144   3.808   3.765  4.1136 -0.2141 -1.0023
47796SOL     OW55366  13.486  13.495  13.116 -0.0617 -0.0325 -0.6574
47796SOL    HW155367  13.488  13.400  13.129 -1.1105 -0.0565 -0.5824
47796SOL    HW255368  13.513  13.531  13.200  2.0613 -0.2554 -1.1921
47797SOL     OW55369   4.429  12.517   9.402 -0.4435 -0.1005  0.1667
47797SOL    HW155370   4.354  12.576   9.409 -0.6073 -0.4077  1.2721
47797SOL    HW255371   4.500  12.572   9.368 -0.1858  1.1696  2.5244
47798SOL     OW55372   4.443  11.953  10.285 -0.0110 -0.5310 -0.5417
47798SOL    HW155373   4.387  11.972  10.360  0.0789  0.4815 -0.7221
47798SOL    HW255374   4.424  11.861  10.264  0.0829 -0.8859  0.8102
47799SOL     OW55375  13.343   0.401   8.949 -0.0982  0.0664 -0.3972
47799SOL    HW155376  13.383   0.449   8.877  0.6365 -0.2115 -0.1756
47799SOL    HW255377  13.380   0.440   9.028  0.8747 -1.1667 -0.2201
47800SOL     OW55378   4.642   9.201  11.062  0.0058 -0.0614 -0.3439
47800SOL    HW155379   4.601   9.284  11.039  0.0122 -0.1101 -0.5357
47800SOL    HW255380   4.658   9.206  11.156 -0.3200  0.0113 -0.2930
47801SOL     OW55381  13.639   2.606  13.536 -0.7817  0.4039 -0.4262
47801SOL    HW155382  13.619   2.513  13.524 -0.9006  0.1510  1.3249
47801SOL    HW255383  13.722   2.620  13.492 -1.1260 -0.3611 -1.3354
47802SOL     OW55384  12.624  12.854   6.514  0.1497  0.0134  0.2439
47802SOL    HW155385  12.673  12.797   6.573 -0.4663 -0.4899  0.2831
47802SOL    HW255386  12.578  12.915   6.572  0.7535  0.5125  0.2051
47803SOL     OW55387   7.410  13.766   9.704 -0.2002 -0.3081  0.0951
47803SOL    HW155388   7.325  13.809   9.691 -0.5266 -0.9747 -0.0472
47803SOL    HW255389   7.402  13.723   9.789  0.9100  1.6904  1.2568
47804SOL     OW55390   3.183  11.015   3.110  0.0311 -0.2455 -0.0538
47804SOL    HW155391   3.193  10.931   3.154  0.8052  1.0154  2.3857
47804SOL    HW255392   3.271  11.053   3.111 -0.3189  0.6564 -1.0384
47805SOL     OW55393   0.768  12.768   3.880  0.0209 -0.1136  0.0212
47805SOL    HW155394   0.723  12.817   3.949 -0.0088  0.5244 -0.4415
47805SOL    HW255395   0.760  12.676   3.906 -1.5492 -0.0227 -0.0299
47806SOL     OW55396  13.144  12.577  11.347  0.0841 -0.3740 -0.3944
47806SOL    HW155397  13.137  12.625  11.265 -0.5746  0.1365 -0.0473
47806SOL    HW255398  13.121  12.487  11.324 -0.8033 -0.0957 -0.6415
47807SOL     OW55399   3.641  14.032   4.419  0.1727  0.3551  0.5669
47807SOL    HW155400   3.581  14.069   4.483  0.2255  1.9136 -0.2539
47807SOL    HW255401   3.632  14.087   4.341  0.7783 -0.9387 -0.4654
47808SOL     OW55402  11.609   1.192   4.373 -0.0124 -0.0782  0.7513
47808SOL    HW155403  11.681   1.147   4.328  0.6728  0.7309  1.0094
47808SOL    HW255404  11.573   1.126   4.432  0.4373 -0.5284  0.5357
47809SOL     OW55405  11.664  10.665  13.022  0.0835  0.4010 -0.1225
47809SOL    HW155406  11.618  10.748  13.037  1.1794  0.8119  1.2794
47809SOL    HW255407  11.660  10.621  13.107  2.0865  0.3861  0.0013
47810SOL     OW55408  13.532   3.109   7.676 -0.3597 -0.5354 -0.0218
47810SOL    HW155409  13.619   3.120   7.637 -0.5763 -0.4811 -0.4853
47810SOL    HW255410  13.485   3.053   7.615 -2.0080  2.6002 -1.8590
47811SOL     OW55411  10.229  11.705  10.647 -0.0474 -0.1783 -0.1258
47811SOL    HW155412  10.147  11.657  10.633 -0.1001 -0.3629  0.7531
47811SOL    HW255413  10.228  11.773  10.580 -1.5608  0.6660  0.6833
47812SOL     OW55414  10.354   6.015  12.050 -0.0524 -0.0524  0.0447
47812SOL    HW155415  10.323   6.102  12.076  1.9302  0.2629  1.6624
47812SOL    HW255416  10.343   5.961  12.129  1.8099 -0.3436  0.1451
47813SOL     OW55417   6.871  10.021   5.743  0.8620  0.2860  0.3020
47813SOL    HW155418   6.848   9.956   5.677 -0.5239  0.4856  0.5480
47813SOL    HW255419   6.797  10.021   5.804  2.8630 -1.1944  2.9332
47814SOL     OW55420  13.020   2.348   4.898  0.0080  0.2377  0.1313
47814SOL    HW155421  12.948   2.285   4.897 -0.5130  0.6000 -4.2191
47814SOL    HW255422  12.980   2.428   4.932 -0.8580 -0.2702  0.3614
47815SOL     OW55423   5.374   3.248   9.109 -0.3385 -0.0912  0.5260
47815SOL    HW155424   5.470   3.248   9.100 -0.3681 -1.0616 -0.0270
47815SOL    HW255425   5.342   3.284   9.026 -0.4496  0.6778  0.8984
47816SOL     OW55426   2.904   9.710  11.719  0.0944 -0.6403 -0.1099
47816SOL    HW155427   2.819   9.713  11.675 -0.2920  0.2086  0.6795
47816SOL    HW255428   2.967   9.731  11.650 -0.4961  0.5664 -0.3096
47817SOL     OW55429   3.384   2.752   5.849  0.2757  0.4870 -0.1162
47817SOL    HW155430   3.313   2.800   5.890 -0.8149 -1.0841 -0.0771
47817SOL    HW255431   3.363   2.660   5.864  2.0087 -0.0420 -0.6361
47818SOL     OW55432   8.243  12.231   9.194  0.8157 -0.1272  0.2366
47818SOL    HW155433   8.217  12.292   9.125  0.8230 -0.0303  0.3198
47818SOL    HW255434   8.177  12.241   9.262  0.1210 -1.1096 -0.2731
47819SOL     OW55435  10.415   3.096  13.121  0.0564  0.3928  0.0757
47819SOL    HW155436  10.506   3.122  13.129 -0.0091  0.5584  0.3187
47819SOL    HW255437  10.417   3.012  13.076  0.2674  0.8320 -0.7477
47820SOL     OW55438   6.918  13.896  10.879 -0.1151  0.3057 -0.3764
47820SOL    HW155439   6.907  13.974  10.824  0.7707  0.0746 -0.9012
47820SOL    HW255440   6.925  13.824  10.817 -0.6510 -0.1643  0.1014
47821SOL     OW55441   5.931   1.840   5.145  0.2128 -0.2916  0.0272
47821SOL    HW155442   5.933   1.924   5.191  1.4965 -0.3970  0.2293
47821SOL    HW255443   5.841   1.829   5.116  0.3375  1.8954 -1.3759
47822SOL     OW55444   8.914  10.771  13.017 -0.1271  0.4589 -0.0315
47822SOL    HW155445   8.971  10.694  13.016  2.2812  2.1304 -1.2228
47822SOL    HW255446   8.909  10.798  12.926 -3.8398 -0.1847 -0.1750
47823SOL     OW55447   1.358   2.096  13.182 -0.8017  0.1587  0.1150
47823SOL    HW155448   1.351   2.165  13.115  0.1071 -0.9641 -1.1917
47823SOL    HW255449   1.429   2.125  13.239  0.9612 -0.5509 -1.5815
47824SOL     OW55450   8.917  13.180  11.478  0.0139  0.3505 -0.1766
47824SOL    HW155451   8.848  13.233  11.439  1.4762  0.0214 -3.5770
47824SOL    HW255452   8.955  13.236  11.546 -1.1527  1.9780 -0.7974
47825SOL     OW55453   1.984   4.276  12.019 -0.4010 -0.4582 -0.1725
47825SOL    HW155454   2.071   4.309  12.044 -0.6466  0.7145 -0.7964
47825SOL    HW255455   2.003   4.201  11.963  0.1828 -0.9772  0.6843
47826SOL     OW55456   1.615  12.876   7.176 -0.7137 -0.3891 -0.7210
47826SOL    HW155457   1.708  12.855   7.184 -0.4765  1.2095  2.3241
47826SOL    HW255458   1.569  12.794   7.195  0.0431 -1.0811 -1.8165
47827SOL     OW55459   1.567   7.217   8.860  0.3203  0.0758 -0.6659
47827SOL    HW155460   1.648   7.167   8.862  1.1087  1.2732 -1.0805
47827SOL    HW255461   1.584   7.289   8.799 -0.1186  1.8614  1.1648
47828SOL     OW55462   7.567   8.674  13.539 -0.1490 -0.1221 -0.1310
47828SOL    HW155463   7.531   8.589  13.564  0.4379 -0.5225 -0.6064
47828SOL    HW255464   7.493   8.734  13.543 -0.8678 -0.9191 -1.0398
47829SOL     OW55465   9.405   0.366   4.152  0.3032 -0.1859  0.2637
47829SOL    HW155466   9.436   0.348   4.063  1.5041 -2.6399  1.1119
47829SOL    HW255467   9.448   0.448   4.176  2.6452 -1.1910 -0.2477
47830SOL     OW55468   1.899   5.487   3.495  0.1758  0.2037 -0.4715
47830SOL    HW155469   1.825   5.430   3.475  0.7201 -0.5956 -0.2379
47830SOL    HW255470   1.976   5.432   3.482  0.7033  0.8191 -0.0123
47831SOL     OW55471   9.261  11.637   7.071  0.2394 -0.5372  0.0917
47831SOL    HW155472   9.173  11.623   7.107 -0.2692  0.8828 -0.5473
47831SOL    HW255473   9.272  11.567   7.007 -0.4814 -0.6314  0.0616
47832SOL     OW55474   3.563  13.683   1.108 -0.1384  0.4534 -0.9071
47832SOL    HW155475   3.514  13.601   1.105  0.0083  0.3058  0.4499
47832SOL    HW255476   3.622  13.677   1.032 -0.2956 -0.5883 -0.9657
47833SOL     OW55477   1.088   4.555   0.893  0.8044  0.2536 -0.4295
47833SOL    HW155478   1.148   4.481   0.886  0.9519  0.3797 -0.5037
47833SOL    HW255479   1.051   4.548   0.981  0.4074 -0.2243 -0.6246
47834SOL     OW55480  11.481   5.895   0.629 -0.0794 -0.1232 -0.0950
47834SOL    HW155481  11.386   5.892   0.614 -0.1009  2.0054 -0.7253
47834SOL    HW255482  11.516   5.940   0.553  1.4488 -0.7477  0.2006
47835SOL     OW55483   9.106   6.831   0.119 -0.3356  0.0434  0.1701
47835SOL    HW155484   9.049   6.844   0.195  0.8506 -0.0445  1.1012
47835SOL    HW255485   9.181   6.783   0.153 -0.8443 -2.1092 -1.5519
47836SOL     OW55486   5.449  11.362  11.924  0.0643 -0.0318 -0.0322
47836SOL    HW155487   5.449  11.446  11.878 -1.1483  0.0815  0.1198
47836SOL    HW255488   5.428  11.298  11.857  0.7825 -0.1931 -0.1077
47837SOL     OW55489   5.364  12.985   5.495 -0.2075 -0.2145 -0.7482
47837SOL    HW155490   5.394  13.072   5.468 -0.8017  0.7084  1.3747
47837SOL    HW255491   5.396  12.976   5.585 -0.8542 -1.8654 -0.6602
47838SOL     OW55492  13.299   7.115  13.468 -0.2280  0.5461 -0.2743
47838SOL    HW155493  13.249   7.189  13.501  0.7173  2.0299 -2.0028
47838SOL    HW255494  13.255   7.091  13.386  1.8667  2.0292 -1.9511
47839SOL     OW55495   9.173   2.129   7.429  0.1404 -0.0266 -0.0094
47839SOL    HW155496   9.107   2.153   7.494  0.6539 -1.5168  1.1471
47839SOL    HW255497   9.158   2.188   7.356 -1.5650  0.5920  0.7833
47840SOL     OW55498   8.688   0.919  13.410  0.6756  0.0721  0.4882
47840SOL    HW155499   8.638   0.921  13.328  0.0892 -0.9159  0.7975
47840SOL    HW255500   8.655   0.841  13.455  2.0599 -0.2466  0.9824
47841SOL     OW55501  13.611   4.454  11.414 -0.8084  0.0805 -0.2666
47841SOL    HW155502  13.568   4.536  11.394 -2.0590 -0.5014 -0.0400
47841SOL    HW255503  13.651   4.468  11.500 -0.8983  0.4975 -0.2937
47842SOL     OW55504  11.594   7.408   3.484  1.1266  0.5852 -0.3090
47842SOL    HW155505  11.543   7.425   3.405  0.2511 -0.1729  0.0728
47842SOL    HW255506  11.561   7.472   3.547 -1.1710 -1.4376  0.6954
47843SOL     OW55507   3.128   0.981  14.010  0.1505  0.4754 -0.2704
47843SOL    HW155508   3.040   0.948  13.991  0.8525 -1.1872 -0.8652
47843SOL    HW255509   3.182   0.948  13.938  1.3578  1.0533  0.3341
47844SOL     OW55510  11.039   0.220   1.076  0.0046 -0.7908 -0.4254
47844SOL    HW155511  10.957   0.255   1.112  0.7374  1.6260 -0.9454
47844SOL    HW255512  11.080   0.175   1.150 -0.5025  0.4111  0.6167
47845SOL     OW55513   0.398   0.643  13.601 -0.0314  0.5044  0.0206
47845SOL    HW155514   0.428   0.556  13.577 -1.1710  0.4199 -1.2201
47845SOL    HW255515   0.450   0.703  13.547  1.2147  0.6703  1.3445
47846SOL     OW55516   8.223   5.647   3.473 -0.4181  0.3019  0.4746
47846SOL    HW155517   8.277   5.669   3.549  0.3067  0.2089 -0.0009
47846SOL    HW255518   8.284   5.604   3.413 -0.9429  0.5363 -0.2312
47847SOL     OW55519   7.069   3.200   0.571  0.2062  0.0607 -0.0519
47847SOL    HW155520   7.021   3.281   0.584 -1.1769 -0.8183  0.4278
47847SOL    HW255521   7.105   3.208   0.482  0.2858  1.2695  0.0708
47848SOL     OW55522   1.424  13.413  13.465  0.1853  0.3330 -0.8393
47848SOL    HW155523   1.469  13.420  13.381 -1.5646  1.0233 -1.7807
47848SOL    HW255524   1.464  13.481  13.520  0.5680  0.6461 -1.5007
47849SOL     OW55525   6.935   3.003  11.304  0.2993 -0.1554 -0.6121
47849SOL    HW155526   7.030   2.993  11.312  0.2075 -0.4944  0.1097
47849SOL    HW255527   6.913   3.076  11.361  0.0401 -0.5186 -0.2442
47850SOL     OW55528  13.206  10.118  11.899  0.6731 -0.0873 -0.0984
47850SOL    HW155529  13.268  10.048  11.920  1.1633  0.5511  0.6598
47850SOL    HW255530  13.227  10.188  11.962 -0.9428  0.0692  0.3087
47851SOL     OW55531  10.631   1.175  13.612  0.0175  0.1624 -0.5655
47851SOL    HW155532  10.548   1.218  13.634  0.6049  0.4526  1.1849
47851SOL    HW255533  10.698   1.231  13.651  0.8864 -1.5249  0.4773
47852SOL     OW55534   9.721   1.872   1.692 -0.0958 -0.1232  0.3370
47852SOL    HW155535   9.687   1.829   1.613 -2.8730 -0.0787  1.3922
47852SOL    HW255536   9.722   1.965   1.671 -0.5295 -0.1380  0.2527
47853SOL     OW55537   4.463   8.053   9.546 -0.0627 -0.1810  0.6193
47853SOL    HW155538   4.475   7.989   9.475 -0.4776 -2.0003  2.1169
47853SOL    HW255539   4.551   8.086   9.563 -0.0643  1.0399 -1.3346
47854SOL     OW55540   0.506   9.522  12.995  0.4745 -0.2549 -0.0902
47854SOL    HW155541   0.576   9.468  13.032  0.7247 -0.8024 -1.3162
47854SOL    HW255542   0.443   9.460  12.961 -0.0612  0.2355 -0.0066
47855SOL     OW55543  13.224   1.497   5.474 -0.3521 -0.3150  0.5625
47855SOL    HW155544  13.199   1.404   5.476  0.4353 -0.5274  1.0502
47855SOL    HW255545  13.258   1.511   5.385 -1.8883 -0.0933 -0.0154
47856SOL     OW55546  12.240  13.659   3.581 -0.2058 -0.0615 -0.3774
47856SOL    HW155547  12.154  13.616   3.587  0.1986 -0.7596  0.5974
47856SOL    HW255548  12.223  13.749   3.611 -0.7346  0.0060 -0.8654
47857SOL     OW55549  13.622   6.031   4.314  0.0836 -0.4103  0.2884
47857SOL    HW155550  13.562   5.989   4.253  0.7203 -1.9961  0.7013
47857SOL    HW255551  13.681   6.083   4.259  0.2638 -1.3300 -0.4039
47858SOL     OW55552  13.096  13.417   1.712  0.4528  0.1015  0.1520
47858SOL    HW155553  13.012  13.395   1.753  0.2925  1.7327  0.7739
47858SOL    HW255554  13.100  13.360   1.635 -1.3451  0.1158 -0.0115
47859SOL     OW55555   5.936  13.661   0.560 -0.0610 -0.1401 -0.0816
47859SOL    HW155556   5.974  13.748   0.554  0.9310 -0.4939  0.7830
47859SOL    HW255557   5.850  13.669   0.518  0.7496  0.7890 -1.6163
47860SOL     OW55558  11.880   9.749  13.891 -0.0524  0.0183 -0.0934
47860SOL    HW155559  11.829   9.759  13.811  0.5076  1.6042 -0.2931
47860SOL    HW255560  11.891   9.654  13.900  0.2256 -0.2006 -2.1195
47861SOL     OW55561   2.133  13.516  10.625 -0.0749 -0.0736  0.2681
47861SOL    HW155562   2.044  13.484  10.640 -0.2988  0.6675  0.5725
47861SOL    HW255563   2.130  13.558  10.540 -0.0618  0.1098  0.3574
47862SOL     OW55564  10.571   3.209   6.111 -0.1601  0.0754  0.0919
47862SOL    HW155565  10.490   3.199   6.161  0.2188 -1.8145  0.3919
47862SOL    HW255566  10.640   3.193   6.175  0.4747  1.4922 -0.2032
47863SOL     OW55567  12.779   1.099   1.221 -0.8824 -0.6150 -0.3124
47863SOL    HW155568  12.844   1.169   1.230 -2.4091  1.0346 -1.3326
47863SOL    HW255569  12.808   1.049   1.145  0.5277 -1.5165  0.7515
47864SOL     OW55570   4.993   4.878  10.252  0.2529 -0.1300 -0.0518
47864SOL    HW155571   4.931   4.947  10.276  1.6457  1.0678  0.1682
47864SOL    HW255572   5.057   4.877  10.322  1.9046  0.3984 -1.4906
47865SOL     OW55573  11.426  10.154   0.062 -0.3142 -0.6077  0.5951
47865SOL    HW155574  11.360  10.155  -0.007  0.2134  1.5205  0.0410
47865SOL    HW255575  11.379  10.185   0.140 -0.3245 -0.5469  0.5648
47866SOL     OW55576   6.472  10.693   4.022 -0.2652  0.2249 -0.1437
47866SOL    HW155577   6.506  10.757   4.084  1.3073 -0.7214  0.0221
47866SOL    HW255578   6.499  10.608   4.057 -2.7383 -0.6141 -0.0840
47867SOL     OW55579   0.800   7.965   5.036 -0.9002 -0.1708  0.1774
47867SOL    HW155580   0.762   7.882   5.009 -1.3652  0.2177 -0.3927
47867SOL    HW255581   0.791   7.966   5.132  0.8139 -1.5796  0.4039
47868SOL     OW55582  10.387   4.408   6.456  0.1898 -0.4162 -0.1122
47868SOL    HW155583  10.366   4.465   6.529 -0.0130 -1.3831  0.6043
47868SOL    HW255584  10.314   4.418   6.395  0.5464  0.6835 -0.3754
47869SOL     OW55585  11.608  13.803  12.820 -0.2308  0.1240  0.4668
47869SOL    HW155586  11.525  13.846  12.838 -1.7294 -0.9672 -3.0969
47869SOL    HW255587  11.659  13.867  12.772 -0.3060 -0.2800 -0.1561
47870SOL     OW55588   7.576  10.464  13.648 -0.0402 -0.2150 -0.4408
47870SOL    HW155589   7.590  10.520  13.724 -2.1894 -0.9142  0.5615
47870SOL    HW255590   7.653  10.409  13.644  0.4281  0.3173  0.8105
47871SOL     OW55591   0.454  11.160   1.442 -0.6073  0.6064 -0.5638
47871SOL    HW155592   0.545  11.157   1.470 -0.8799  0.3841  0.3190
47871SOL    HW255593   0.454  11.221   1.368 -0.1224  2.6182  0.9881
47872SOL     OW55594   2.560  13.422   7.524  0.4483 -0.5021  0.4084
47872SOL    HW155595   2.640  13.380   7.555 -0.0468 -1.1948  0.7751
47872SOL    HW255596   2.517  13.356   7.471  1.7382  0.9307 -2.6894
47873SOL     OW55597  12.213   1.875   1.000  0.1584 -0.3487  0.4686
47873SOL    HW155598  12.206   1.839   0.911  0.9646 -2.0809  1.0571
47873SOL    HW255599  12.303   1.855   1.026  0.5503  1.8720  0.9861
47874SOL     OW55600   1.603  10.065   4.419  0.1132 -0.4946  1.0842
47874SOL    HW155601   1.661  10.004   4.465  0.4561 -2.4032 -1.6636
47874SOL    HW255602   1.662  10.114   4.361 -0.7264 -0.9128 -0.1542
47875SOL     OW55603   0.342  11.471   9.553 -0.1193  0.7050 -0.2702
47875SOL    HW155604   0.374  11.554   9.518  0.9508 -0.1647 -1.4689
47875SOL    HW255605   0.419  11.431   9.594 -0.5888  0.2343  0.1645
47876SOL     OW55606   9.475   7.191   6.787 -0.0899  0.1359 -0.5629
47876SOL    HW155607   9.465   7.286   6.791  1.1591  0.2649  0.0316
47876SOL    HW255608   9.538   7.177   6.717 -0.5257 -0.2818 -0.8732
47877SOL     OW55609   5.209  10.747  13.288 -0.0996 -0.0101 -0.2063
47877SOL    HW155610   5.122  10.710  13.276  0.3281 -1.1223  0.0917
47877SOL    HW255611   5.261  10.709  13.218  1.4253 -3.4601  2.5079
47878SOL     OW55612   1.168   8.374  13.434 -0.0927  0.0555  0.1152
47878SOL    HW155613   1.238   8.314  13.409 -0.1723 -0.5067  1.2048
47878SOL    HW255614   1.209   8.460  13.432  0.6881 -0.2892  0.9350
47879SOL     OW55615  12.753   0.844   6.640 -0.1100 -0.2471 -1.0302
47879SOL    HW155616  12.703   0.847   6.722  0.2677 -0.5665 -0.7870
47879SOL    HW255617  12.839   0.879   6.663 -0.6886  1.8390 -1.8033
47880SOL     OW55618  13.667   0.141  10.376 -0.1982  0.4174  0.5732
47880SOL    HW155619  13.760   0.123  10.367 -0.3933  0.3417 -2.0859
47880SOL    HW255620  13.663   0.234  10.396  0.4724 -0.1282  3.6645
47881SOL     OW55621   1.119   6.916   0.888  0.0772 -0.0738  0.1144
47881SOL    HW155622   1.036   6.958   0.864  1.7552  1.7704 -3.1609
47881SOL    HW255623   1.148   6.873   0.808  2.5070 -0.2597  1.0262
47882SOL     OW55624   2.925   7.246   8.391 -0.2244  0.7121 -0.5068
47882SOL    HW155625   2.935   7.163   8.439  1.5398  1.0056 -0.3121
47882SOL    HW255626   2.874   7.223   8.314 -1.3261 -0.1857  0.4485
47883SOL     OW55627   6.924   1.364   1.752 -0.0325 -0.0150 -0.2495
47883SOL    HW155628   6.874   1.374   1.834 -0.1294 -0.6970 -0.2253
47883SOL    HW255629   6.954   1.453   1.732 -1.9079  0.5629 -0.6734
47884SOL     OW55630  11.628   4.509   5.761 -0.4750 -0.3848  0.0412
47884SOL    HW155631  11.572   4.525   5.837  0.4982 -1.3827  1.0172
47884SOL    HW255632  11.576   4.454   5.703 -0.3000 -1.8411  1.2284
47885SOL     OW55633  10.019   9.801  12.798 -0.5114 -0.2423  0.0413
47885SOL    HW155634  10.112   9.811  12.777 -0.2070 -1.0256  0.9213
47885SOL    HW255635   9.976   9.791  12.714  0.0634  1.0609 -0.4445
47886SOL     OW55636   6.841   2.492  12.172 -0.6701 -0.0226 -0.2576
47886SOL    HW155637   6.767   2.476  12.113 -1.6052  2.8386  0.0043
47886SOL    HW255638   6.880   2.573  12.141  0.8906 -0.2012  1.0857
47887SOL     OW55639  13.128  13.219   2.833  0.0814 -0.0994 -0.3394
47887SOL    HW155640  13.133  13.230   2.928  0.6876  1.2484 -0.5068
47887SOL    HW255641  13.202  13.164   2.811  0.9896  1.0230 -0.2012
47888SOL     OW55642  13.960   8.053  11.596  0.1347 -0.0848  0.1640
47888SOL    HW155643  14.027   8.096  11.648  0.9521 -0.5790 -0.4601
47888SOL    HW255644  13.962   7.961  11.624 -1.0493  0.0997  0.9266
47889SOL     OW55645  13.504   0.609  10.760 -0.2545 -0.0114  0.0411
47889SOL    HW155646  13.421   0.582  10.720 -0.7948  0.4668  0.8284
47889SOL    HW255647  13.506   0.704  10.750  1.3316 -0.1776 -2.1121
47890SOL     OW55648   8.899  10.822   0.884 -0.5194  0.0405  0.2272
47890SOL    HW155649   8.916  10.772   0.805  0.3506 -0.1401  0.5277
47890SOL    HW255650   8.815  10.866   0.867  0.2448  0.9734 -1.2774
47891SOL     OW55651  12.837   2.886   3.336 -0.5838  0.2893  0.7733
47891SOL    HW155652  12.816   2.833   3.413  0.6800 -0.0654  0.8987
47891SOL    HW255653  12.820   2.976   3.364  0.5537  0.2364  1.7428
47892SOL     OW55654   5.322   6.139   0.145  0.1854  0.3000 -0.4881
47892SOL    HW155655   5.372   6.111   0.221  0.9624 -1.4826 -1.5833
47892SOL    HW255656   5.257   6.069   0.132  1.0627 -0.2408 -2.3020
47893SOL     OW55657   2.985   3.084  10.595  1.0324 -0.1043 -0.0945
47893SOL    HW155658   3.015   2.996  10.618 -2.0124 -1.3169 -0.2820
47893SOL    HW255659   3.002   3.137  10.672  0.4930 -1.5366  1.0458
47894SOL     OW55660  12.812  12.854  11.482  0.2695  0.2363  0.2098
47894SOL    HW155661  12.885  12.902  11.521  0.7792 -0.9312  0.7409
47894SOL    HW255662  12.823  12.765  11.514  0.1386 -0.5638 -1.8607
47895SOL     OW55663   3.797   3.925   4.657 -0.5966  0.3467  0.0890
47895SOL    HW155664   3.765   3.836   4.670  0.2796 -0.2813 -1.8026
47895SOL    HW255665   3.813   3.957   4.746 -0.7648 -1.4204  0.8053
47896SOL     OW55666   4.447   4.978  12.776 -0.2467 -0.0105  0.1069
47896SOL    HW155667   4.459   4.889  12.743  0.1803  0.5663 -1.3994
47896SOL    HW255668   4.467   5.034  12.701 -3.1084  1.3104  0.1963
47897SOL     OW55669  12.733   9.018  11.256 -0.2141  0.5016  0.1266
47897SOL    HW155670  12.746   8.953  11.325 -0.0102  1.3240  0.8770
47897SOL    HW255671  12.790   9.091  11.280  0.4960  0.4781 -1.3601
47898SOL     OW55672   8.859   7.754  10.016  0.1056  0.0709 -0.3592
47898SOL    HW155673   8.858   7.834  10.069 -0.5717 -0.2692  0.1575
47898SOL    HW255674   8.826   7.782   9.931 -1.5561  0.0748  0.2483
47899SOL     OW55675   4.470  11.623  10.923 -0.5379  0.4146  0.1531
47899SOL    HW155676   4.380  11.641  10.951 -0.7496  0.1073 -0.3009
47899SOL    HW255677   4.470  11.529  10.904 -0.2043  0.4723 -0.1406
47900SOL     OW55678   2.318   2.899   0.058  0.5895  0.3014  0.4618
47900SOL    HW155679   2.393   2.879   0.002 -0.7619  0.0396 -1.3376
47900SOL    HW255680   2.265   2.819   0.056  0.0409  0.6324  1.3453
47901SOL     OW55681  12.343   0.688   3.496 -0.5840  0.4915  0.1654
47901SOL    HW155682  12.249   0.681   3.509 -0.8016 -0.2292 -1.6308
47901SOL    HW255683  12.356   0.680   3.402  1.3894 -0.7234  0.4847
47902SOL     OW55684   6.102   5.690   5.400 -0.3057 -0.1600 -0.5018
47902SOL    HW155685   6.067   5.620   5.345  0.9937 -0.4670 -0.9662
47902SOL    HW255686   6.192   5.664   5.418 -0.0363  1.0250 -0.0558
47903SOL     OW55687   9.206   3.178   1.827  0.4597 -0.0683  0.5690
47903SOL    HW155688   9.265   3.111   1.861  1.4707  0.5932  0.1730
47903SOL    HW255689   9.134   3.128   1.787  0.6441 -0.8851  1.2196
47904SOL     OW55690   6.824   6.974   0.704 -0.1736  0.1005 -0.0484
47904SOL    HW155691   6.744   7.025   0.718  0.6503  1.8409 -1.3235
47904SOL    HW255692   6.859   6.959   0.792 -1.3472  0.2314  0.4521
47905SOL     OW55693   5.314   4.033   1.821 -0.2679 -0.0862  0.1442
47905SOL    HW155694   5.289   4.118   1.860 -3.4794 -0.7102 -0.2389
47905SOL    HW255695   5.237   4.007   1.770  0.8151 -3.0147 -0.1673
47906SOL     OW55696  13.706   3.001   4.997 -0.4901 -0.0651 -0.2851
47906SOL    HW155697  13.743   2.951   4.924  0.8129  1.0293 -0.4154
47906SOL    HW255698  13.634   3.051   4.959 -0.1496  0.0955 -0.7263
47907SOL     OW55699   0.446   6.253  11.856 -0.6410  0.1479 -0.2880
47907SOL    HW155700   0.396   6.276  11.934 -1.2658  1.7263 -1.1028
47907SOL    HW255701   0.515   6.319  11.851 -0.0467 -0.4837 -0.5746
47908SOL     OW55702   4.884  11.161   4.374 -0.5085 -0.3789  0.2217
47908SOL    HW155703   4.814  11.209   4.329 -0.7174  1.2885  2.1282
47908SOL    HW255704   4.965  11.192   4.334 -0.7722 -0.7525 -0.6080
47909SOL     OW55705  10.765   7.171   7.094 -0.2691  0.0100  0.2858
47909SOL    HW155706  10.857   7.198   7.088 -0.6642  1.2892 -0.1219
47909SOL    HW255707  10.727   7.194   7.010 -1.2722  0.6597  0.9024
47910SOL     OW55708  12.133  11.812   5.224 -0.3000 -0.9228  0.2412
47910SOL    HW155709  12.152  11.807   5.131  0.5031  1.5640  0.2031
47910SOL    HW255710  12.170  11.731   5.260  0.4077 -1.3809 -1.4203
47911SOL     OW55711   2.560   2.711   2.983 -0.0610 -0.6874 -0.0329
47911SOL    HW155712   2.470   2.678   2.979 -0.6605  0.5776  1.7563
47911SOL    HW255713   2.552   2.801   3.014  1.8437 -0.7803  0.9203
47912SOL     OW55714   5.266   7.101   2.844 -0.0518  0.1329  0.0034
47912SOL    HW155715   5.308   7.177   2.884  0.1113  0.2562 -0.3908
47912SOL    HW255716   5.327   7.029   2.859 -0.9106 -0.2652  1.7247
47913SOL     OW55717   2.972   6.178   0.387  0.3353 -0.1525  0.2153
47913SOL    HW155718   2.930   6.094   0.409  1.5287 -0.7102  0.4461
47913SOL    HW255719   2.962   6.231   0.466 -2.1376  0.6826 -0.5670
47914SOL     OW55720   2.255  10.895   2.270 -0.6062  0.3834  0.2319
47914SOL    HW155721   2.218  10.813   2.236  0.1016  0.7823 -1.6008
47914SOL    HW255722   2.242  10.958   2.199  0.9258  1.2775  0.7106
47915SOL     OW55723   7.938   8.406   5.576 -0.7763  0.5477 -0.2182
47915SOL    HW155724   7.984   8.323   5.590 -1.1418  0.5304  0.9960
47915SOL    HW255725   7.972   8.464   5.643 -1.5640  0.9436 -0.1452
47916SOL     OW55726  12.255  10.502  10.108 -0.6503 -0.3331  0.5847
47916SOL    HW155727  12.296  10.471  10.189 -0.4844 -0.0077  0.6282
47916SOL    HW255728  12.225  10.422  10.064  0.5028 -0.6305  0.2993
47917SOL     OW55729   3.485   9.369   2.644  0.0670  0.0768  0.2961
47917SOL    HW155730   3.571   9.387   2.606 -0.1218  0.5085  0.0621
47917SOL    HW255731   3.448   9.456   2.661  0.2878 -0.1035  1.8063
47918SOL     OW55732  11.673   3.823   6.161  0.3076 -0.0801  0.6598
47918SOL    HW155733  11.733   3.898   6.157  0.2115  0.0843  1.8530
47918SOL    HW255734  11.728   3.747   6.140  0.7520  0.1625  0.9326
47919SOL     OW55735   1.974   5.836   5.589 -0.0825  0.0555 -1.0000
47919SOL    HW155736   1.993   5.898   5.520 -0.4440  2.3939  0.8882
47919SOL    HW255737   2.028   5.864   5.663 -1.8336 -0.5212  0.5875
47920SOL     OW55738   0.064  11.532   8.796  0.3230  0.5463  0.1362
47920SOL    HW155739  -0.012  11.584   8.823  1.5295  1.7394  1.3797
47920SOL    HW255740   0.065  11.457   8.855 -1.0392 -0.6186 -1.2349
47921SOL     OW55741   5.286  10.268   0.276  1.0684 -0.3203 -0.0057
47921SOL    HW155742   5.292  10.263   0.371  0.5135 -1.6758 -0.0230
47921SOL    HW255743   5.370  10.305   0.249  0.7298  1.3474  1.0660
47922SOL     OW55744   4.829   5.630   6.793 -0.1398 -0.1805  0.1831
47922SOL    HW155745   4.899   5.567   6.773 -0.0250 -0.5021  1.5047
47922SOL    HW255746   4.800   5.606   6.881 -0.1186  1.5980  0.7125
47923SOL     OW55747   0.204   3.650  12.623 -0.3113  0.0939  0.0868
47923SOL    HW155748   0.142   3.627  12.553 -0.1901 -1.0184  0.3280
47923SOL    HW255749   0.179   3.739  12.648 -2.4032 -0.6126  0.7682
47924SOL     OW55750   2.269   5.436  12.147 -0.1314  0.5032 -0.2025
47924SOL    HW155751   2.261   5.403  12.057 -1.5956 -0.7797  0.3442
47924SOL    HW255752   2.221   5.519  12.146  1.2221  1.3130 -0.9478
47925SOL     OW55753  11.457  12.217   9.089  0.1307 -0.5048 -0.1598
47925SOL    HW155754  11.418  12.299   9.057  0.6153 -0.3833 -0.4458
47925SOL    HW255755  11.415  12.203   9.175  0.3578  0.2684  0.0875
47926SOL     OW55756   2.588   2.002  13.739 -0.1703 -0.0526  0.0933
47926SOL    HW155757   2.586   2.074  13.675 -1.2520  0.1585  0.3526
47926SOL    HW255758   2.680   1.998  13.767 -0.1616  1.5127  0.3814
47927SOL     OW55759   7.861  13.602   2.867 -0.4874 -0.2260 -0.1106
47927SOL    HW155760   7.911  13.520   2.867  1.0037  0.6301  0.6866
47927SOL    HW255761   7.833  13.613   2.776  1.2255 -0.4995 -0.7052
47928SOL     OW55762  13.635  13.218   2.587  0.6242  0.0138 -0.1131
47928SOL    HW155763  13.643  13.135   2.540  0.2371  0.3578 -0.8166
47928SOL    HW255764  13.677  13.203   2.671 -1.6930 -1.7328  0.8418
47929SOL     OW55765  11.629  10.486   9.526 -0.4735 -0.5352 -0.6195
47929SOL    HW155766  11.620  10.449   9.614  1.1795  2.1055  0.8297
47929SOL    HW255767  11.723  10.503   9.517 -0.7672  0.4709 -2.3530
47930SOL     OW55768   4.117   7.859   3.129  0.4688 -0.6964  0.0416
47930SOL    HW155769   4.101   7.784   3.187 -1.2521 -0.7548 -0.4643
47930SOL    HW255770   4.099   7.825   3.041 -1.8759  0.6491 -0.0757
47931SOL     OW55771   8.638  11.100  12.818 -0.7210  0.7411  0.0887
47931SOL    HW155772   8.648  11.036  12.888  3.4150 -0.2494 -1.0851
47931SOL    HW255773   8.677  11.180  12.852 -0.9617  0.9975 -0.2339
47932SOL     OW55774  11.942   6.298   5.526  0.2565  0.0790 -0.1641
47932SOL    HW155775  11.922   6.338   5.611  0.3879 -1.9551  0.8784
47932SOL    HW255776  11.952   6.372   5.466 -1.3553  1.5116  1.2452
47933SOL     OW55777  11.960   3.191  11.062  0.1178 -0.2607  0.7323
47933SOL    HW155778  11.917   3.275  11.048 -0.6460 -0.5994  0.9835
47933SOL    HW255779  11.997   3.168  10.977 -0.4272 -0.0850  0.4439
47934SOL     OW55780   5.492   2.566   2.072  0.7475  0.0870  0.2476
47934SOL    HW155781   5.399   2.549   2.057  0.8521 -0.7417  0.5139
47934SOL    HW255782   5.520   2.613   1.993 -0.2158  1.6671  0.7911
47935SOL     OW55783   9.231   4.698   8.174  0.6149 -0.7571  0.5487
47935SOL    HW155784   9.187   4.678   8.256 -1.8401  2.5998  0.2595
47935SOL    HW255785   9.201   4.630   8.114 -1.0386 -0.8466  1.4122
47936SOL     OW55786   5.239   4.125   0.891  0.2325 -0.0343 -0.4027
47936SOL    HW155787   5.209   4.058   0.829 -1.1101  0.8099 -0.7319
47936SOL    HW255788   5.319   4.089   0.929  0.4020 -1.1350 -1.7001
47937SOL     OW55789   1.224  11.307  13.044  0.5354  0.2922 -0.3931
47937SOL    HW155790   1.246  11.333  13.134  2.2010  0.6790 -0.8781
47937SOL    HW255791   1.168  11.378  13.012 -0.1543  0.1055  0.3406
47938SOL     OW55792   0.949   3.232   2.353 -0.5727  0.0672  0.4373
47938SOL    HW155793   0.948   3.157   2.293 -1.5980 -1.2054  1.9490
47938SOL    HW255794   0.885   3.292   2.316  1.5655  1.1407 -1.8060
47939SOL     OW55795   8.135   5.684   1.989 -0.5009 -0.2217 -0.2862
47939SOL    HW155796   8.165   5.668   2.079  1.0674 -0.1806 -0.7778
47939SOL    HW255797   8.049   5.724   2.000  0.2551  1.1030  1.2730
47940SOL     OW55798  10.508  10.265   6.254  0.7390  0.4622 -0.0947
47940SOL    HW155799  10.415  10.288   6.257  0.8396  1.1620 -1.3828
47940SOL    HW255800  10.516  10.209   6.177  1.4504  0.8041 -0.2767
47941SOL     OW55801   7.074   4.867   9.031  0.0109 -0.0491 -0.4381
47941SOL    HW155802   7.102   4.811   9.104 -0.3306 -1.3730 -1.2881
47941SOL    HW255803   7.070   4.955   9.069  1.4217 -0.4376  0.7168
47942SOL     OW55804  10.403   0.923  10.414 -0.1264 -0.1839  0.1077
47942SOL    HW155805  10.383   0.990  10.479 -1.7592 -1.0448  0.5396
47942SOL    HW255806  10.380   0.841  10.456  1.3642 -1.0138 -0.5981
47943SOL     OW55807   0.552  13.639   6.878 -0.0070  0.5256 -0.1838
47943SOL    HW155808   0.607  13.693   6.936 -0.4668  2.2251 -1.2713
47943SOL    HW255809   0.463  13.667   6.897 -0.1504  1.3260 -1.8850
47944SOL     OW55810  11.507   4.134   3.582  0.3450  0.3657  0.5682
47944SOL    HW155811  11.573   4.182   3.531  0.0254 -1.0502 -1.2975
47944SOL    HW255812  11.424   4.155   3.538 -0.1433  0.1966  1.3918
47945SOL     OW55813   2.984   5.243  11.475 -0.2174  0.6307 -0.5344
47945SOL    HW155814   2.996   5.263  11.382  2.0253  0.6703 -0.2756
47945SOL    HW255815   2.997   5.326  11.520  0.4836  0.2845 -0.0753
47946SOL     OW55816   0.303  12.954  13.475  0.0009  0.1229 -0.3283
47946SOL    HW155817   0.297  12.947  13.570  1.1110  1.7389 -0.0978
47946SOL    HW255818   0.345  12.873  13.447 -0.6112 -0.4965  0.5081
47947SOL     OW55819   6.426   5.428   6.813  1.0192 -0.4017 -0.7284
47947SOL    HW155820   6.427   5.433   6.717  1.9943 -1.7074 -0.8067
47947SOL    HW255821   6.433   5.335   6.833 -1.1978 -0.3428  0.6231
47948SOL     OW55822   7.809   4.853   7.287  0.6348 -0.1074  0.1645
47948SOL    HW155823   7.895   4.877   7.251  0.0838 -0.5953 -1.5967
47948SOL    HW255824   7.763   4.814   7.213 -0.1579 -2.3234  1.7182
47949SOL     OW55825   5.817   7.410   8.363 -0.0623 -0.6598  0.0701
47949SOL    HW155826   5.893   7.365   8.326  0.7828  1.3921 -0.8638
47949SOL    HW255827   5.745   7.387   8.304  0.5152 -0.2167 -0.8340
47950SOL     OW55828  10.746  13.592  10.323 -0.5055 -0.0078 -0.3135
47950SOL    HW155829  10.809  13.603  10.394  1.1616  1.5652 -1.9174
47950SOL    HW255830  10.776  13.514  10.277  1.9044  1.9391 -2.4258
47951SOL     OW55831  10.455   7.487   7.545  0.0397  0.4649  0.2223
47951SOL    HW155832  10.422   7.397   7.545  0.6080  0.2420  1.3289
47951SOL    HW255833  10.422   7.525   7.463  0.1362 -0.8707 -0.4566
47952SOL     OW55834   9.184   0.534   4.202  0.3557  0.3900  0.2860
47952SOL    HW155835   9.227   0.456   4.166 -2.7560 -0.5457 -1.8123
47952SOL    HW255836   9.162   0.509   4.292 -0.6600 -1.2769 -0.3668
47953SOL     OW55837   1.802   1.053  13.158 -0.3532  0.6530 -0.2411
47953SOL    HW155838   1.883   1.003  13.168  0.6251  2.0595 -0.7490
47953SOL    HW255839   1.782   1.083  13.247 -0.0769  0.6666 -0.1824
47954SOL     OW55840   3.477   7.438   1.759 -0.3380 -0.0269  0.2098
47954SOL    HW155841   3.541   7.498   1.720 -0.1274  0.6205  1.4826
47954SOL    HW255842   3.428   7.493   1.821 -0.2193 -1.1242  1.3186
47955SOL     OW55843   6.374   1.691   3.034 -0.5705  0.5182  0.2924
47955SOL    HW155844   6.344   1.737   3.113  0.3164  1.2638  0.2065
47955SOL    HW255845   6.303   1.704   2.970 -2.2713 -1.7972  1.5204
47956SOL     OW55846   4.073   3.219   5.353  0.1005  0.0421  0.4653
47956SOL    HW155847   3.988   3.178   5.341  0.3795 -0.0094 -1.6466
47956SOL    HW255848   4.135   3.159   5.313  0.8412  1.1675 -0.1395
47957SOL     OW55849  10.525   5.001   3.332 -0.4368  0.2099 -0.1982
47957SOL    HW155850  10.617   5.009   3.307 -0.2214 -0.9550  0.1674
47957SOL    HW255851  10.478   5.058   3.270  0.4861  0.5742 -0.5824
47958SOL     OW55852   6.281   5.315   1.033 -0.9566 -0.2220 -0.1278
47958SOL    HW155853   6.282   5.226   0.998  1.1545 -0.5209  0.5859
47958SOL    HW255854   6.192   5.326   1.067 -0.9651 -2.4483  0.7302
47959SOL     OW55855   9.047  11.167  12.047  0.2993 -0.4229  0.6418
47959SOL    HW155856   8.974  11.140  12.102 -2.3967  2.6337 -1.0510
47959SOL    HW255857   9.047  11.106  11.973 -2.0211  0.6546 -0.3547
47960SOL     OW55858  10.548   5.612   7.462  0.4865 -0.0831 -0.1507
47960SOL    HW155859  10.633   5.586   7.498  0.0160 -1.0973  0.2865
47960SOL    HW255860  10.507   5.662   7.533  0.6672  0.3064 -0.3190
47961SOL     OW55861  13.752   6.461  13.837 -0.1753 -0.0035 -0.2792
47961SOL    HW155862  13.704   6.518  13.896 -1.0257 -1.2685  0.2947
47961SOL    HW255863  13.708   6.376  13.845  0.6934 -0.5979 -1.5265
47962SOL     OW55864  13.340   6.946   8.063  0.1672 -0.5875 -0.5222
47962SOL    HW155865  13.401   6.936   7.990  2.4036  1.1114  0.9747
47962SOL    HW255866  13.360   7.033   8.099 -2.0353 -0.6617  1.0731
47963SOL     OW55867   2.530   3.147   8.995  0.3022 -0.7936 -0.6612
47963SOL    HW155868   2.520   3.086   9.068  0.4192 -0.7020 -0.5687
47963SOL    HW255869   2.441   3.165   8.966  0.3219 -2.0974 -1.5992
47964SOL     OW55870   6.527   0.588   0.801  0.4019  0.2572 -0.4240
47964SOL    HW155871   6.613   0.576   0.759  0.0891  1.2243 -1.3948
47964SOL    HW255872   6.481   0.649   0.743 -0.9989 -0.3638  0.0117
47965SOL     OW55873   0.707   1.093   0.189  0.4106 -1.0125  0.6025
47965SOL    HW155874   0.634   1.114   0.130 -0.3412 -2.8510  0.8282
47965SOL    HW255875   0.675   1.118   0.276  0.8561  0.0589  0.4815
47966SOL     OW55876   1.307   7.217  12.087 -0.2566  1.0689  0.2062
47966SOL    HW155877   1.351   7.242  12.006  0.9265  0.3151  0.5942
47966SOL    HW255878   1.264   7.133  12.067 -0.0953  0.9598  0.3195
47967SOL     OW55879   8.716   2.041  11.657  0.0901 -0.1761  0.0162
47967SOL    HW155880   8.645   1.978  11.655  0.8260 -1.0202  0.2068
47967SOL    HW255881   8.788   1.998  11.612 -0.2194  1.5646 -2.3938
47968SOL     OW55882   3.344  12.063  13.169  0.4051 -0.0838  0.0146
47968SOL    HW155883   3.256  12.101  13.178  0.5114 -0.0270  0.8726
47968SOL    HW255884   3.375  12.052  13.258 -0.4950 -4.3203  0.0306
47969SOL     OW55885   4.059  10.941   6.722  0.3996  0.1187  0.1104
47969SOL    HW155886   3.971  10.979   6.726  0.2839  0.0649 -1.5330
47969SOL    HW255887   4.045  10.851   6.693  1.0107  0.1388 -0.2529
47970SOL     OW55888  10.628  10.379   5.958  0.1635  0.1820 -0.4641
47970SOL    HW155889  10.539  10.374   5.923 -0.3240 -0.1361  0.7439
47970SOL    HW255890  10.657  10.288   5.961  1.2840  0.4128 -2.5979
47971SOL     OW55891   0.366   3.651   2.139 -0.6978 -0.7539 -0.1738
47971SOL    HW155892   0.419   3.720   2.098  1.2290 -1.8346  0.3503
47971SOL    HW255893   0.423   3.615   2.207 -1.8731 -2.4407 -0.0259
47972SOL     OW55894   9.415   7.266   1.222  0.2590 -0.1320 -0.1569
47972SOL    HW155895   9.415   7.226   1.309  3.4475  0.4466  0.2406
47972SOL    HW255896   9.388   7.357   1.237  0.4801 -0.1212  0.1900
47973SOL     OW55897   6.041   6.477  12.256  0.4306  0.2296 -0.1533
47973SOL    HW155898   6.047   6.525  12.338 -0.2324  1.0979 -0.5952
47973SOL    HW255899   6.084   6.533  12.191 -0.1648  0.1480 -0.6356
47974SOL     OW55900   6.064   2.139   9.452 -0.2603  0.2408  0.1370
47974SOL    HW155901   6.103   2.221   9.422  1.6536 -0.2716  1.0515
47974SOL    HW255902   5.985   2.165   9.498 -1.0046  1.3485 -1.6600
47975SOL     OW55903   1.160   9.726   6.307 -0.3652 -0.1207 -0.4156
47975SOL    HW155904   1.194   9.784   6.374 -1.0797  0.1424 -0.2753
47975SOL    HW255905   1.131   9.648   6.355 -0.1554 -0.2566 -0.5084
47976SOL     OW55906   9.882  11.192  10.097 -0.1128 -0.4251  0.0333
47976SOL    HW155907   9.918  11.144  10.022 -0.5880 -1.5086  0.4782
47976SOL    HW255908   9.835  11.125  10.147 -1.8516  0.7383  0.0154
47977SOL     OW55909  12.738   1.632   2.434 -0.5702  0.0314 -0.2841
47977SOL    HW155910  12.691   1.686   2.497  1.0419 -1.7080  2.6570
47977SOL    HW255911  12.825   1.671   2.429 -0.2783 -0.6157 -0.3443
47978SOL     OW55912  11.755   0.885   5.413  0.4929  0.2177  0.2875
47978SOL    HW155913  11.743   0.880   5.508  2.4406  0.7850  0.6165
47978SOL    HW255914  11.780   0.796   5.387  1.1383  0.3188  0.5275
47979SOL     OW55915   1.607   1.842   0.778 -0.3610  0.2467  0.8908
47979SOL    HW155916   1.652   1.901   0.718 -0.2417  0.2118  0.9457
47979SOL    HW255917   1.539   1.896   0.818 -1.5715 -0.1449 -0.5291
47980SOL     OW55918   4.227   4.041   6.587 -0.5679  0.2432 -0.1849
47980SOL    HW155919   4.244   4.071   6.498 -0.6512 -1.5136 -0.8395
47980SOL    HW255920   4.144   3.994   6.581  0.3525 -1.5770  0.3533
47981SOL     OW55921   8.299   6.047   2.751 -0.3110  0.4283  0.1620
47981SOL    HW155922   8.314   6.140   2.737  0.6091  0.3884  0.7755
47981SOL    HW255923   8.212   6.043   2.790  0.7233  1.3206  2.7861
47982SOL     OW55924   3.818  12.522   7.490  0.6530  0.3726 -0.0359
47982SOL    HW155925   3.903  12.487   7.515  0.6978 -0.6015 -1.4652
47982SOL    HW255926   3.776  12.452   7.440  0.0032  1.6895 -1.4280
47983SOL     OW55927  12.675   2.880   5.109  0.0503 -0.0895  0.2318
47983SOL    HW155928  12.736   2.842   5.046  1.3200 -1.3270  2.0820
47983SOL    HW255929  12.702   2.972   5.116  1.0116 -0.3566  0.1985
47984SOL     OW55930   0.971   0.140   3.639 -0.2219  0.1910  0.0149
47984SOL    HW155931   1.044   0.127   3.699  1.3442  2.6913 -1.2061
47984SOL    HW255932   1.012   0.158   3.555 -2.3076  0.1975 -1.0729
47985SOL     OW55933   9.923   1.032   1.472 -0.1552 -0.6890  0.0358
47985SOL    HW155934   9.988   1.045   1.541 -1.0254  0.1589  0.7268
47985SOL    HW255935   9.839   1.046   1.516 -0.6814  1.8610 -1.5913
47986SOL     OW55936   5.427   1.600   2.913 -0.1230  0.4834  0.1113
47986SOL    HW155937   5.450   1.686   2.946  0.8570  0.9128 -1.5697
47986SOL    HW255938   5.475   1.592   2.830 -2.0726 -0.6996 -0.9926
47987SOL     OW55939   1.044   0.001   6.201 -0.2126  0.0633  0.6794
47987SOL    HW155940   1.004  -0.082   6.227 -0.7450 -0.1856 -0.8445
47987SOL    HW255941   0.995   0.067   6.249 -0.9573 -0.3935  0.5661
47988SOL     OW55942   9.682   6.645   9.814 -0.3871  0.0245  0.1393
47988SOL    HW155943   9.772   6.639   9.847 -0.5800  1.3865  0.9591
47988SOL    HW255944   9.691   6.682   9.727 -0.2646  2.2904  1.0617
47989SOL     OW55945  13.940  12.355   5.923 -0.0798  0.0500 -0.2431
47989SOL    HW155946  13.906  12.318   6.005 -0.9610 -2.4059 -1.6268
47989SOL    HW255947  13.943  12.282   5.863 -1.0719  2.0998 -2.9715
47990SOL     OW55948   8.310   4.520  13.361  0.1822  0.0003  0.4843
47990SOL    HW155949   8.271   4.561  13.438  0.3790  0.8965  0.1234
47990SOL    HW255950   8.256   4.444  13.343  1.2650 -1.3900  2.6742
47991SOL     OW55951  12.691  11.542   4.018 -0.2491  0.2516  0.2354
47991SOL    HW155952  12.632  11.473   3.985  1.2202 -1.1500  0.3930
47991SOL    HW255953  12.664  11.555   4.109  0.1972 -0.9847  0.5647
47992SOL     OW55954   1.166  11.560   2.377 -0.4973  0.0433  0.2068
47992SOL    HW155955   1.188  11.649   2.407  1.6985 -0.8622  1.5955
47992SOL    HW255956   1.137  11.515   2.457 -1.9807 -0.4179 -0.5639
47993SOL     OW55957   8.326   1.650   7.063  0.1301 -0.2812  0.0451
47993SOL    HW155958   8.391   1.668   7.131  0.7288 -1.1178 -0.2788
47993SOL    HW255959   8.275   1.731   7.055  0.7070  0.1612  0.7728
47994SOL     OW55960   3.601   4.766  12.927  0.2259 -0.5952  0.1291
47994SOL    HW155961   3.509   4.773  12.951  0.1631 -2.1141  0.4771
47994SOL    HW255962   3.601   4.711  12.848  0.7680  0.3792 -0.5822
47995SOL     OW55963   0.703  13.317  10.610 -0.0276  0.2661  0.5286
47995SOL    HW155964   0.691  13.259  10.686 -2.6424  0.6196  0.4887
47995SOL    HW255965   0.644  13.390  10.627  0.9522  1.4273 -0.8719
47996SOL     OW55966   0.745   4.585   0.050  0.3259 -0.3200 -0.7558
47996SOL    HW155967   0.706   4.504   0.016 -0.8967 -0.0343 -0.1208
47996SOL    HW255968   0.806   4.555   0.118  0.9666 -0.7665 -1.5183
47997SOL     OW55969  13.218   2.628  11.827  0.1808  0.1635 -0.1737
47997SOL    HW155970  13.125   2.607  11.837 -0.0985  0.9518 -1.0271
47997SOL    HW255971  13.225   2.719  11.857  0.2568  0.8564 -2.1904
47998SOL     OW55972   2.697   0.431   7.671 -0.1760 -0.0640 -0.1640
47998SOL    HW155973   2.695   0.337   7.687  0.1970  0.0677  0.6885
47998SOL    HW255974   2.791   0.452   7.663 -0.2371  0.2967  0.0357
47999SOL     OW55975   8.635   8.785   9.157  0.5999  0.0219 -0.1137
47999SOL    HW155976   8.555   8.793   9.210 -0.7716  1.1771 -2.2054
47999SOL    HW255977   8.667   8.874   9.147  1.9995 -0.4053  0.4454
48000SOL     OW55978  13.302   5.105  13.176  0.0470 -0.2277 -0.4620
48000SOL    HW155979  13.330   5.190  13.143 -1.3318  0.7488  0.7546
48000SOL    HW255980  13.366   5.082  13.242 -0.8638  1.0750  0.9413
48001SOL     OW55981   9.076  12.586   9.013 -0.5615 -0.0465 -0.1772
48001SOL    HW155982   9.109  12.669   8.978  1.3031 -0.4037  0.5957
48001SOL    HW255983   8.986  12.606   9.040 -0.1133  1.7780  0.1452
48002SOL     OW55984   3.371   9.786   4.453  0.4431 -0.1729 -0.8895
48002SOL    HW155985   3.400   9.847   4.520  1.2077 -2.2675  0.8012
48002SOL    HW255986   3.275   9.789   4.457  0.4805 -0.3981  0.4494
48003SOL     OW55987   4.454   1.567   5.898 -0.1541  0.1324  0.3870
48003SOL    HW155988   4.467   1.569   5.992 -0.1837  2.3217  0.3952
48003SOL    HW255989   4.456   1.659   5.871  0.1899 -0.4432 -1.7956
48004SOL     OW55990   9.784   5.320   2.768 -0.2913  0.4649 -0.7193
48004SOL    HW155991   9.844   5.248   2.750  0.5055  1.0019 -0.2834
48004SOL    HW255992   9.733   5.330   2.687  0.3991  0.1791 -1.1988
48005SOL     OW55993  10.769   4.185   0.360 -0.0932  0.1200 -0.1932
48005SOL    HW155994  10.864   4.198   0.361  0.1907 -1.5237 -1.7267
48005SOL    HW255995  10.734   4.273   0.375  1.6443  0.7319  0.6567
48006SOL     OW55996   5.561  11.347   5.762 -0.1816  0.1256 -0.7243
48006SOL    HW155997   5.508  11.356   5.683 -2.4646 -0.0453  0.6715
48006SOL    HW255998   5.543  11.426   5.813  1.8490  0.6002 -0.6710
48007SOL     OW55999   9.019   5.690  10.771 -0.0885  0.1406 -0.0458
48007SOL    HW156000   8.928   5.664  10.758 -0.9691  2.0240  1.7119
48007SOL    HW256001   9.050   5.716  10.685 -0.6014 -2.2055 -0.9986
48008SOL     OW56002  13.227   1.974   1.123 -0.1599  0.1442 -0.5318
48008SOL    HW156003  13.230   1.914   1.197 -1.0559  1.3767  0.5602
48008SOL    HW256004  13.306   2.028   1.133 -0.8323  1.0253  0.1926
48009SOL     OW56005   1.401   1.860  12.980  0.4762  0.3891  0.3524
48009SOL    HW156006   1.342   1.934  12.996 -1.0521 -0.2570 -1.8363
48009SOL    HW256007   1.488   1.899  12.979 -0.0803  1.7558  1.4919
48010SOL     OW56008   0.164  10.952  11.738  0.4034 -0.3621  0.1416
48010SOL    HW156009   0.117  10.872  11.759 -0.8474  0.3904  0.3119
48010SOL    HW256010   0.205  10.978  11.821 -1.9428  0.9213  0.9904
48011SOL     OW56011   1.622   7.405  13.496 -0.3603  0.3884  0.4363
48011SOL    HW156012   1.578   7.369  13.419 -1.4343  2.1327  0.1711
48011SOL    HW256013   1.692   7.460  13.460 -0.3691  0.5906  0.7255
48012SOL     OW56014   2.155   5.992  10.582 -0.1242 -0.3766  0.4452
48012SOL    HW156015   2.106   5.940  10.519  0.4151  1.3884 -1.5849
48012SOL    HW256016   2.195   5.928  10.640  0.1808 -2.2253 -1.6513
48013SOL     OW56017   3.890   3.631   0.424  0.5594  0.2733 -0.1015
48013SOL    HW156018   3.849   3.716   0.438 -0.4502 -0.2440  0.2021
48013SOL    HW256019   3.929   3.610   0.509 -3.7812 -1.9170  1.7179
48014SOL     OW56020   6.266   7.602  12.903 -0.2129  0.5136 -0.3987
48014SOL    HW156021   6.270   7.690  12.866  1.8631  0.3702 -0.6586
48014SOL    HW256022   6.352   7.589  12.943 -1.2791 -0.5482  1.7236
48015SOL     OW56023   9.054   0.458  14.021 -0.2269  0.0379 -0.0870
48015SOL    HW156024   9.126   0.517  14.001  1.0320 -1.7710 -1.1779
48015SOL    HW256025   9.080   0.415  14.102  0.2499 -1.0694 -0.8101
48016SOL     OW56026   4.312  10.126  11.031 -0.2540  0.2573  0.1344
48016SOL    HW156027   4.390  10.176  11.054 -0.6129  1.0194 -0.2416
48016SOL    HW256028   4.345  10.040  11.006  0.6451  1.0263 -1.5074
48017SOL     OW56029   0.031   2.118  11.561  0.3038  0.4447 -0.0107
48017SOL    HW156030   0.127   2.118  11.550  0.2563  0.4786 -0.4612
48017SOL    HW256031   0.016   2.163  11.644  0.7502 -0.6957  0.7286
48018SOL     OW56032  11.287  13.042  10.589 -0.2391 -0.6154  0.2875
48018SOL    HW156033  11.340  13.115  10.555 -0.8898 -0.6932 -0.9621
48018SOL    HW256034  11.347  12.968  10.593  0.0598 -0.3830  0.1159
48019SOL     OW56035  14.045   9.667   6.990  0.6993  0.2736 -0.6013
48019SOL    HW156036  14.028   9.725   7.063  1.0515  1.3303 -1.3286
48019SOL    HW256037  14.141   9.662   6.985  0.6736 -0.2670 -0.6289
48020SOL     OW56038   7.870   8.470  10.404 -0.5894 -0.1192  0.0092
48020SOL    HW156039   7.817   8.437  10.477 -1.3064 -0.0442 -0.4771
48020SOL    HW256040   7.807   8.503  10.341  0.0660  1.0540 -0.0667
48021SOL     OW56041   4.286   0.564   6.390 -0.1687  0.5860 -0.1960
48021SOL    HW156042   4.195   0.558   6.364 -0.1074 -1.5978 -0.0759
48021SOL    HW256043   4.291   0.517   6.474  1.4087 -1.3004 -1.2647
48022SOL     OW56044  12.510   9.045   2.456  0.2428 -0.5560 -0.1810
48022SOL    HW156045  12.565   9.100   2.512  0.0838 -1.0445  0.4729
48022SOL    HW256046  12.557   8.962   2.451 -0.0975 -0.7482 -0.1887
48023SOL     OW56047   9.029   3.983   4.588 -0.4436  0.4177 -0.2077
48023SOL    HW156048   9.107   4.004   4.639  1.8773 -2.7669 -2.0442
48023SOL    HW256049   9.012   4.062   4.537  0.9750  1.5247  0.9514
48024SOL     OW56050   4.690   7.246   0.453 -0.1330  0.2711  0.3767
48024SOL    HW156051   4.785   7.239   0.443  0.2199  2.6297  1.4109
48024SOL    HW256052   4.670   7.193   0.530  0.2367 -0.6713 -0.1581
48025SOL     OW56053  10.179  14.046   3.573  0.7559 -0.3441 -0.1938
48025SOL    HW156054  10.245  14.108   3.602  0.0946  0.0986  0.4016
48025SOL    HW256055  10.096  14.092   3.584  0.3975 -0.5449 -1.8486
48026SOL     OW56056  13.116   9.823   0.924  0.1834  0.0975 -0.0972
48026SOL    HW156057  13.025   9.840   0.945 -0.1218 -1.3047 -0.1692
48026SOL    HW256058  13.119   9.823   0.828  0.0676 -0.7534 -0.1035
48027SOL     OW56059  10.731   6.430  14.039 -0.0674 -0.2634 -0.0422
48027SOL    HW156060  10.736   6.338  14.064  0.2793  0.1617  1.5659
48027SOL    HW256061  10.657   6.464  14.090  0.5825  0.6167  0.3350
48028SOL     OW56062  10.528   8.216   0.744  0.3197  0.1013 -0.2580
48028SOL    HW156063  10.503   8.296   0.697 -2.3589  1.2150  2.6872
48028SOL    HW256064  10.598   8.244   0.803 -0.0291  0.0901  0.1667
48029SOL     OW56065  12.178   2.194   6.078  0.5056 -0.6409  0.1769
48029SOL    HW156066  12.083   2.184   6.073  0.2617  1.5326 -0.2806
48029SOL    HW256067  12.194   2.234   6.163  0.9331 -0.2248 -0.0970
48030SOL     OW56068  10.978  12.110   2.706 -0.3041 -0.1527 -0.3655
48030SOL    HW156069  10.923  12.109   2.784 -0.9886  0.8409 -0.8207
48030SOL    HW256070  11.068  12.112   2.740 -0.5260 -1.5453  0.3800
48031SOL     OW56071  13.591   7.782   3.416 -0.3769 -0.1791 -0.4554
48031SOL    HW156072  13.503   7.763   3.447 -0.8605  0.8395 -1.1334
48031SOL    HW256073  13.619   7.703   3.370 -0.2910 -1.0982  1.1171
48032SOL     OW56074  12.522  11.378   3.377  0.1557 -0.4622  0.1484
48032SOL    HW156075  12.451  11.343   3.323 -1.3407 -1.4255  2.5525
48032SOL    HW256076  12.479  11.444   3.432  1.0652 -1.2265  1.8204
48033SOL     OW56077   2.274   3.339   2.041 -0.3703 -0.1034 -0.0226
48033SOL    HW156078   2.239   3.418   1.999 -0.2659 -0.4752 -0.8218
48033SOL    HW256079   2.361   3.328   2.003 -1.1623 -1.7483 -1.4841
48034SOL     OW56080   1.512   3.901   0.053 -0.9293 -0.3638 -0.0729
48034SOL    HW156081   1.607   3.902   0.049 -0.9167 -0.3283  0.2158
48034SOL    HW256082   1.492   3.858   0.136 -1.1608 -0.2125 -0.0493
48035SOL     OW56083   5.565   1.848   2.311 -0.0238  0.2185  0.3867
48035SOL    HW156084   5.527   1.901   2.382 -0.9965 -1.2848  1.0329
48035SOL    HW256085   5.492   1.798   2.277  0.8500 -0.6196 -0.2918
48036SOL     OW56086   3.393   1.138   5.413  0.2038 -0.0509  0.1503
48036SOL    HW156087   3.466   1.179   5.367 -1.3862  2.1527 -0.5928
48036SOL    HW256088   3.416   1.143   5.505  1.1420  0.2533 -0.0885
48037SOL     OW56089   6.075  13.158   1.881  0.2296  0.4114  0.7319
48037SOL    HW156090   6.111  13.200   1.803 -0.8915  0.4142  0.1978
48037SOL    HW256091   6.030  13.228   1.928 -0.9173  0.0149  0.2728
48038SOL     OW56092  11.904   3.745   8.267 -0.5050  0.4273 -0.1528
48038SOL    HW156093  11.874   3.791   8.189  0.7439  1.8894  0.1887
48038SOL    HW256094  11.914   3.813   8.333 -0.9366 -0.6933  1.1289
48039SOL     OW56095  10.564   7.341   9.231  0.1167 -0.1534  0.1201
48039SOL    HW156096  10.533   7.351   9.321 -0.0345 -0.0794  0.0607
48039SOL    HW256097  10.578   7.247   9.220 -1.0870 -0.3145 -0.1807
48040SOL     OW56098   3.124   8.056   8.445 -0.0153  0.3433  0.3219
48040SOL    HW156099   3.181   7.990   8.405 -0.7725 -0.5180  0.6283
48040SOL    HW256100   3.048   8.006   8.475 -0.7430  1.4153  0.2859
48041SOL     OW56101   3.264   7.140  10.060  0.4520 -0.2206  0.4437
48041SOL    HW156102   3.189   7.139  10.000  0.1917 -1.0201  0.7644
48041SOL    HW256103   3.335   7.101  10.010  0.0541 -1.5356  0.8498
48042SOL     OW56104   6.361   2.280  11.973  0.2106 -0.2782  0.2220
48042SOL    HW156105   6.412   2.203  11.999 -1.5661 -1.4853  0.3903
48042SOL    HW256106   6.288   2.281  12.035 -0.3700  0.9202 -0.4620
48043SOL     OW56107   4.589   9.201   6.199 -0.2605  0.4568 -0.0318
48043SOL    HW156108   4.630   9.287   6.205 -0.3876  0.5411 -0.3518
48043SOL    HW256109   4.630   9.160   6.122  0.1495  0.0440  0.4026
48044SOL     OW56110   5.718   8.042   3.199  0.5595  0.3410 -0.0145
48044SOL    HW156111   5.669   8.114   3.159  1.4030  1.0813  0.2485
48044SOL    HW256112   5.804   8.046   3.157  1.0210  0.2816  0.9123
48045SOL     OW56113   9.041   3.600   7.974 -0.3551 -0.4302 -0.7923
48045SOL    HW156114   9.090   3.530   8.017  0.6626  1.0497  0.6074
48045SOL    HW256115   9.093   3.679   7.991 -1.1006  0.5886 -2.8759
48046SOL     OW56116   2.539   9.687  12.805  0.5100  0.4204  0.1090
48046SOL    HW156117   2.589   9.608  12.788  0.3184  0.1999  0.5712
48046SOL    HW256118   2.474   9.662  12.870  0.5249  0.9853  0.3509
48047SOL     OW56119   2.012   1.693  11.761 -0.1726 -0.1360  0.1375
48047SOL    HW156120   1.972   1.650  11.685 -0.9904  0.8003  0.0159
48047SOL    HW256121   2.095   1.728  11.729  0.9058 -2.2851  0.4446
48048SOL     OW56122   5.891   7.285   3.893 -0.0941  0.0615  0.5790
48048SOL    HW156123   5.870   7.211   3.836  1.2310 -0.1620  0.3567
48048SOL    HW256124   5.935   7.348   3.836 -0.0369  0.4506  1.0498
48049SOL     OW56125   6.388  12.962   9.590  0.4169 -0.3060  0.0808
48049SOL    HW156126   6.349  13.046   9.565  0.7739  0.0794  0.7972
48049SOL    HW256127   6.416  12.923   9.507 -0.8296 -0.2697 -0.3855
48050SOL     OW56128   5.728  10.147   0.186 -0.5055 -0.2001  0.9588
48050SOL    HW156129   5.764  10.235   0.175  0.1162 -0.3168  1.8813
48050SOL    HW256130   5.770  10.115   0.266  1.3369 -2.3456 -0.7260
48051SOL     OW56131  12.017   5.505   9.751  0.0140  0.2707 -0.9459
48051SOL    HW156132  12.069   5.565   9.804 -0.4912  0.6694 -0.8885
48051SOL    HW256133  11.970   5.451   9.815 -0.0791  0.2989 -0.9894
48052SOL     OW56134   3.141   9.635  12.449 -0.0002 -0.1169 -0.4146
48052SOL    HW156135   3.098   9.689  12.516 -1.4181 -1.2194 -0.3896
48052SOL    HW256136   3.070   9.584  12.411  1.3370 -2.3535 -0.0793
48053SOL     OW56137  10.988   1.426   4.312  0.1346 -0.7153  0.3036
48053SOL    HW156138  11.036   1.366   4.369  1.6434 -0.2196 -0.3994
48053SOL    HW256139  11.018   1.513   4.338 -0.5943 -0.3650  0.0141
48054SOL     OW56140   5.434   6.896   4.171 -0.2996 -0.4243  0.4313
48054SOL    HW156141   5.463   6.914   4.082 -0.7473 -1.0671  0.1436
48054SOL    HW256142   5.512   6.904   4.225 -0.0949  0.3126  0.0279
48055SOL     OW56143  13.418   5.205   9.155  0.1516 -0.0087  0.1482
48055SOL    HW156144  13.408   5.278   9.093 -0.8890 -0.0008  0.3085
48055SOL    HW256145  13.431   5.247   9.239  0.3489 -0.0114  0.1189
48056SOL     OW56146   3.126   1.636   9.973 -0.1895 -0.4981  0.2527
48056SOL    HW156147   3.149   1.610   9.883 -1.1442  1.0524 -0.4930
48056SOL    HW256148   3.149   1.561  10.027 -0.2286 -1.7424 -1.3891
48057SOL     OW56149  13.855   1.363   4.347  0.5391  0.5020 -0.4076
48057SOL    HW156150  13.917   1.301   4.308  0.0300  0.5205 -1.2551
48057SOL    HW256151  13.911   1.424   4.397  1.0291 -0.7137  0.5767
48058SOL     OW56152   9.768  12.630  10.740 -0.3093  0.5631  0.4414
48058SOL    HW156153   9.757  12.601  10.649  1.2329 -3.0103  1.2129
48058SOL    HW256154   9.683  12.615  10.781 -0.2489 -0.5462  0.1903
48059SOL     OW56155  11.911   8.538   6.452  0.3272  0.0874  0.0653
48059SOL    HW156156  11.880   8.467   6.509 -0.1423  1.6871  1.8990
48059SOL    HW256157  12.003   8.517   6.437 -0.4628 -2.4869 -1.9938
48060SOL     OW56158   0.373   2.012   2.391 -0.4745  0.1869  0.4501
48060SOL    HW156159   0.317   2.081   2.358 -1.2861 -0.6000  0.1462
48060SOL    HW256160   0.379   2.028   2.485  0.8131  1.6939  0.1585
48061SOL     OW56161   3.569   3.321   1.226  0.0896 -0.3023 -0.1403
48061SOL    HW156162   3.578   3.232   1.193  0.2103 -1.4568  2.7645
48061SOL    HW256163   3.475   3.339   1.223  0.0488 -0.5665 -0.5479
48062SOL     OW56164  12.177   8.459   5.243  0.3399 -0.4391 -0.3913
48062SOL    HW156165  12.251   8.493   5.193 -0.1884  0.8340 -0.3333
48062SOL    HW256166  12.101   8.474   5.186  0.1129 -1.8897 -0.5311
48063SOL     OW56167   2.812   6.725  13.371 -0.4806  0.3801 -0.3049
48063SOL    HW156168   2.895   6.740  13.416 -1.0255  1.1726  0.4518
48063SOL    HW256169   2.803   6.630  13.370 -0.1959  0.3259  0.7945
48064SOL     OW56170  10.269   3.788  10.089 -0.3862  0.1558 -0.2253
48064SOL    HW156171  10.267   3.717  10.025  0.9882 -0.1064 -0.0086
48064SOL    HW256172  10.336   3.762  10.151  0.2504  1.7222 -0.2282
48065SOL     OW56173   2.463  11.514   2.052  0.7034 -0.3121  0.7498
48065SOL    HW156174   2.458  11.435   2.107  0.8842 -1.0492 -0.2629
48065SOL    HW256175   2.547  11.553   2.075  2.3061 -2.3200 -1.1513
48066SOL     OW56176   6.787   8.136   3.712  0.9471  0.3603 -0.0017
48066SOL    HW156177   6.875   8.163   3.687  0.2981  1.4969 -1.1202
48066SOL    HW256178   6.728   8.186   3.655 -0.4522  0.0731  1.1241
48067SOL     OW56179  11.292   9.609   0.746 -0.4864  0.2384 -0.4185
48067SOL    HW156180  11.234   9.684   0.751  0.2321  0.9088 -1.6003
48067SOL    HW256181  11.254   9.553   0.679 -0.1370  0.3560 -0.7202
48068SOL     OW56182  13.012  13.822   0.416  0.0811  0.0213  0.1956
48068SOL    HW156183  13.002  13.902   0.467 -0.6699  0.7850 -1.0966
48068SOL    HW256184  13.000  13.751   0.479 -1.6136  0.9247  0.9527
48069SOL     OW56185  13.749   5.480   2.211 -0.2057  0.8816  0.1734
48069SOL    HW156186  13.764   5.388   2.187 -2.3575  0.3960  0.4607
48069SOL    HW256187  13.705   5.517   2.134 -0.0844  1.4460  0.3758
48070SOL     OW56188   6.550   0.873   6.281  0.1487  0.7063  0.3748
48070SOL    HW156189   6.631   0.920   6.261  0.2208  2.3383  3.7292
48070SOL    HW256190   6.577   0.801   6.337 -0.5785  0.4746  0.4383
48071SOL     OW56191   6.431   7.257   9.042  0.0142 -0.0827  0.3335
48071SOL    HW156192   6.526   7.250   9.033  0.0795  0.8095  0.2559
48071SOL    HW256193   6.407   7.332   8.987 -0.7864 -0.5515  0.0311
48072SOL     OW56194   4.810  10.755   3.781  0.1683  0.0527 -0.3620
48072SOL    HW156195   4.881  10.777   3.721  1.1137  1.0124  1.0350
48072SOL    HW256196   4.809  10.826   3.844  0.2082 -1.5992  1.6200
48073SOL     OW56197   4.488  12.128   0.556 -0.0136 -0.1149  0.4312
48073SOL    HW156198   4.444  12.207   0.588  1.8100  1.0816  0.1570
48073SOL    HW256199   4.580  12.143   0.576  0.4329 -1.9933 -0.0561
48074SOL     OW56200   8.070   5.991  13.427 -0.7856  0.5692  0.3129
48074SOL    HW156201   8.001   6.058  13.420 -2.2911 -0.8902  0.5609
48074SOL    HW256202   8.033   5.914  13.385  0.6439 -0.3269  0.6422
48075SOL     OW56203   1.044   8.715   5.577  0.4920 -0.3843  0.3330
48075SOL    HW156204   1.009   8.754   5.497  2.2505  0.0357 -0.2836
48075SOL    HW256205   1.072   8.627   5.550  0.7746 -0.3674  0.5708
48076SOL     OW56206   8.997   5.474  10.492  0.4500  0.5710 -0.5512
48076SOL    HW156207   8.922   5.504  10.442 -1.3134 -1.4962  0.6704
48076SOL    HW256208   9.036   5.405  10.438  0.1883  0.2248 -0.3089
48077SOL     OW56209   2.836   6.498  13.928 -0.4373 -0.2377 -0.6597
48077SOL    HW156210   2.768   6.447  13.970 -1.2622  0.0207 -1.6426
48077SOL    HW256211   2.918   6.458  13.957 -0.9831 -0.4160  0.6959
48078SOL     OW56212   2.259   7.946   8.921  0.2165  0.3850 -0.2452
48078SOL    HW156213   2.248   8.034   8.885 -1.0955  1.3400  2.2236
48078SOL    HW256214   2.351   7.943   8.949  0.2759  0.9532 -0.3717
48079SOL     OW56215   4.305   2.446   2.508 -0.1436 -0.0950  0.8043
48079SOL    HW156216   4.246   2.511   2.470  0.4506  1.4961  2.4439
48079SOL    HW256217   4.279   2.364   2.467  0.6135  1.4320 -3.1628
48080SOL     OW56218   0.131   1.553   6.727  0.5161  0.0538 -0.0580
48080SOL    HW156219   0.094   1.521   6.810  0.2792  0.3651 -0.0421
48080SOL    HW256220   0.072   1.517   6.660  0.0332  0.7487 -0.0184
48081SOL     OW56221   3.566  12.717   6.738 -0.1897  0.2803  0.5701
48081SOL    HW156222   3.534  12.801   6.703 -0.6249  0.1662  0.6810
48081SOL    HW256223   3.655  12.735   6.767 -0.3405  0.7480  0.7512
48082SOL     OW56224   5.782   5.702   2.550  0.8604  0.3486  0.3349
48082SOL    HW156225   5.747   5.680   2.637  0.3062 -1.9143 -0.3779
48082SOL    HW256226   5.780   5.798   2.546 -0.4460  0.4550  2.2808
48083SOL     OW56227   8.815  11.188   3.739  0.1981 -0.0638 -0.0628
48083SOL    HW156228   8.835  11.096   3.757 -0.9087 -0.2110  0.5024
48083SOL    HW256229   8.719  11.192   3.736  0.0185  1.6559  3.3448
48084SOL     OW56230  12.825  13.451   8.909 -0.6572  0.4858  0.0245
48084SOL    HW156231  12.915  13.419   8.903 -0.6081  0.1882  1.6745
48084SOL    HW256232  12.779  13.406   8.839  0.2430 -0.2340 -0.1343
48085SOL     OW56233  13.806  13.093   2.799 -0.2107  0.7861  0.0955
48085SOL    HW156234  13.901  13.088   2.804 -0.2889  0.2754  2.7875
48085SOL    HW256235  13.785  13.183   2.824 -0.4606  0.2777  1.8475
48086SOL     OW56236   5.441   8.793   5.183  0.4548  0.1086  0.1407
48086SOL    HW156237   5.390   8.774   5.104 -0.0918 -2.8109  1.0557
48086SOL    HW256238   5.376   8.820   5.248  0.6465  0.6019  0.1289
48087SOL     OW56239   8.664   6.573   3.012 -0.1679  0.2218  0.2679
48087SOL    HW156240   8.600   6.547   3.078 -0.9064 -2.9295 -1.5064
48087SOL    HW256241   8.618   6.637   2.957 -1.0489 -0.3946  0.2704
48088SOL     OW56242   5.064  13.154   1.643 -0.0003 -0.2455 -0.3651
48088SOL    HW156243   5.064  13.069   1.687  0.1315 -0.7497 -1.3293
48088SOL    HW256244   5.076  13.134   1.551 -0.3025  0.8049 -0.6472
48089SOL     OW56245   8.531   6.865  10.551 -0.5226 -0.4617 -0.1078
48089SOL    HW156246   8.603   6.922  10.576 -0.5455 -0.7277  0.5988
48089SOL    HW256247   8.465   6.924  10.515 -0.7261  0.0269  1.0224
48090SOL     OW56248   1.248   9.752  13.741  0.2110  0.5780 -0.2217
48090SOL    HW156249   1.314   9.712  13.797  0.2238 -1.3169 -1.4957
48090SOL    HW256250   1.220   9.682  13.683 -1.3525  1.9083 -1.1699
48091SOL     OW56251   0.153  11.908  12.972  0.0775 -0.1736  0.2568
48091SOL    HW156252   0.091  11.841  13.002 -0.0897  0.1490  0.6425
48091SOL    HW256253   0.138  11.982  13.031  0.5709  0.0418  0.1105
48092SOL     OW56254   2.584   8.715   5.912 -0.1158  0.6846 -0.5918
48092SOL    HW156255   2.545   8.686   5.995  0.9635  0.1832 -0.2350
48092SOL    HW256256   2.511   8.749   5.861 -0.8480  0.7031  0.4454
48093SOL     OW56257  11.131   0.629   0.080  0.1667 -0.0528  0.0079
48093SOL    HW156258  11.199   0.673   0.029  0.8764 -0.9287  0.1802
48093SOL    HW256259  11.168   0.544   0.102 -1.2389 -0.8276 -0.4789
48094SOL     OW56260   3.171   8.180   9.022 -0.5217  0.2601 -0.1310
48094SOL    HW156261   3.184   8.216   8.934 -0.8191 -2.7776 -1.5464
48094SOL    HW256262   3.211   8.244   9.080 -0.7916  2.6499 -2.4065
48095SOL     OW56263   6.587   9.715   8.339  0.5251  0.2891 -0.1095
48095SOL    HW156264   6.638   9.794   8.321  0.5109  0.6606  1.3483
48095SOL    HW256265   6.558   9.685   8.253  1.6510  1.1098 -0.7998
48096SOL     OW56266  12.932  11.373   2.298  0.2517 -0.2849  0.3745
48096SOL    HW156267  12.991  11.428   2.349  0.2349  0.0912 -0.0031
48096SOL    HW256268  12.866  11.434   2.264  1.2695 -0.1833 -1.5743
48097SOL     OW56269   0.180   1.445   7.784  0.4373  0.0657 -0.3562
48097SOL    HW156270   0.166   1.409   7.872  1.1298 -0.4500 -0.4509
48097SOL    HW256271   0.272   1.473   7.784 -0.0521  1.8269 -0.2935
48098SOL     OW56272  12.734   3.853   2.058  0.2159  0.1679  0.1094
48098SOL    HW156273  12.813   3.851   2.112  1.2214 -0.9142 -1.3149
48098SOL    HW256274  12.754   3.794   1.985 -1.4686  0.8036 -0.9113
48099SOL     OW56275  11.997  10.765  13.677 -0.7149  0.0604 -0.2920
48099SOL    HW156276  11.977  10.778  13.769 -0.8758  1.1500 -0.4607
48099SOL    HW256277  12.049  10.685  13.674  0.7206  0.8880  0.9497
48100SOL     OW56278  10.375   2.555  13.469 -0.1495 -0.7490 -0.4988
48100SOL    HW156279  10.470   2.565  13.475 -0.4306  1.7015  1.1906
48100SOL    HW256280  10.352   2.497  13.542  0.1455 -2.8996 -2.0187
48101SOL     OW56281   5.521   9.773  13.802  0.4166 -0.1338  0.6842
48101SOL    HW156282   5.461   9.833  13.758  0.4227 -0.7064 -0.1366
48101SOL    HW256283   5.526   9.805  13.892 -0.3353  0.5116  0.5069
48102SOL     OW56284   3.067   4.305  11.233  0.0015  0.0219 -0.4026
48102SOL    HW156285   3.098   4.251  11.305 -0.7252 -2.0373 -1.5393
48102SOL    HW256286   3.089   4.255  11.154 -2.9264  0.1084 -1.4158
48103SOL     OW56287  12.244   6.575   5.132  0.1771  0.2698  0.5402
48103SOL    HW156288  12.275   6.486   5.146  1.9864  0.0405 -3.4850
48103SOL    HW256289  12.158   6.565   5.092 -0.2876  0.4605  1.4556
48104SOL     OW56290  12.471   1.336  11.308  0.2623 -0.1696  0.2761
48104SOL    HW156291  12.444   1.258  11.357  0.0276 -0.4225 -0.2479
48104SOL    HW256292  12.414   1.337  11.231  1.5195 -0.5346 -0.6954
48105SOL     OW56293  13.741  10.979  10.676 -0.3622 -0.1614 -0.1771
48105SOL    HW156294  13.756  11.061  10.723 -2.8483 -0.5963  1.5204
48105SOL    HW256295  13.734  11.005  10.584  1.3656  1.1347 -0.0021
48106SOL     OW56296  12.866  14.026   1.624  0.8855  0.0537 -0.8452
48106SOL    HW156297  12.859  14.121   1.613 -0.5862  0.2897  1.4399
48106SOL    HW256298  12.905  13.995   1.542  0.5652  2.5150 -2.0225
48107SOL     OW56299   6.766   4.097   4.590 -0.7799 -0.2526  0.2436
48107SOL    HW156300   6.767   4.191   4.568  0.8600 -0.4707 -0.7999
48107SOL    HW256301   6.699   4.060   4.533 -0.6480  0.1189 -0.1587
48108SOL     OW56302   8.814   4.028   6.223 -0.0015 -0.0037 -0.0487
48108SOL    HW156303   8.864   3.946   6.220  0.1496  0.0671  0.4852
48108SOL    HW256304   8.871   4.090   6.268 -0.5207  0.1100  0.4555
48109SOL     OW56305   5.623   1.354   3.856  0.1387  0.0704  0.1211
48109SOL    HW156306   5.691   1.307   3.904 -0.3821 -1.6093 -0.6926
48109SOL    HW256307   5.640   1.332   3.764 -0.7175  0.6867 -0.1908
48110SOL     OW56308   3.831  12.161  12.227  0.8595 -0.1855  0.0423
48110SOL    HW156309   3.769  12.231  12.204 -0.5406 -0.9067  1.4331
48110SOL    HW256310   3.910  12.208  12.254 -0.2155  0.9159  1.4224
48111SOL     OW56311   8.834   9.676   3.506 -0.4019 -0.6034  0.0068
48111SOL    HW156312   8.759   9.618   3.517 -1.0012  0.3268  1.0071
48111SOL    HW256313   8.905   9.618   3.476 -1.7968 -1.2869 -2.2273
48112SOL     OW56314  11.823   2.065   2.474  0.2142 -0.3588  0.0327
48112SOL    HW156315  11.831   1.994   2.411 -1.3263 -0.7948  0.2798
48112SOL    HW256316  11.729   2.083   2.478  0.5257  1.4159  0.2964
48113SOL     OW56317   6.129   2.922  12.987 -0.4275 -0.2084 -0.0332
48113SOL    HW156318   6.127   2.931  13.082 -0.9227  0.0419 -0.0624
48113SOL    HW256319   6.040   2.895  12.963 -0.5274  0.4766 -0.4858
48114SOL     OW56320  11.291   0.693   5.540 -1.2584  0.0428 -0.3449
48114SOL    HW156321  11.208   0.719   5.500 -0.9842 -0.7237 -1.4826
48114SOL    HW256322  11.267   0.659   5.626 -2.0377  0.4975 -0.3731
48115SOL     OW56323  11.189  12.389   8.723  0.1222 -0.6251 -0.1217
48115SOL    HW156324  11.126  12.324   8.691 -0.8701 -0.0428  0.5850
48115SOL    HW256325  11.262  12.385   8.661 -1.4751  0.0669 -2.1572
48116SOL     OW56326   7.496   5.365   9.419  0.0350  0.0323  0.5341
48116SOL    HW156327   7.500   5.270   9.410 -1.9778 -0.1170  0.7306
48116SOL    HW256328   7.581   5.389   9.456 -0.1154 -1.9216  2.3418
48117SOL     OW56329   1.920  10.110  10.229  0.4556 -0.1637  0.3830
48117SOL    HW156330   1.950  10.044  10.167  0.2562 -0.0458  0.1570
48117SOL    HW256331   1.828  10.088  10.243  0.0079  0.8784 -0.7602
48118SOL     OW56332  10.923   7.147   1.493 -0.0815 -0.2245  0.0817
48118SOL    HW156333  11.005   7.196   1.482 -0.1079 -0.1502  0.2121
48118SOL    HW256334  10.947   7.073   1.549 -0.3212  0.3626  0.9786
48119SOL     OW56335   2.859   9.825  10.965  0.1423 -0.4810  0.3034
48119SOL    HW156336   2.797   9.867  11.025  1.9587 -0.7916  2.5285
48119SOL    HW256337   2.943   9.870  10.982  0.5168  0.3895 -3.0608
48120SOL     OW56338   1.966   4.756   1.116  0.1302  0.0629 -0.2051
48120SOL    HW156339   1.926   4.731   1.033 -1.2442 -1.5218  0.8583
48120SOL    HW256340   2.055   4.723   1.111 -0.3416 -1.2076 -0.5568
48121SOL     OW56341  10.710   3.001  13.438  0.3975 -0.6058 -0.3303
48121SOL    HW156342  10.791   3.007  13.488 -0.6437 -1.4076  1.5615
48121SOL    HW256343  10.718   2.919  13.389  0.5006 -0.9792  0.3048
48122SOL     OW56344   8.939  11.928   3.452 -0.3486 -0.4117 -0.3809
48122SOL    HW156345   9.011  11.960   3.399  0.2696 -1.7835 -0.4224
48122SOL    HW256346   8.940  11.982   3.530  0.2931  0.0221 -0.6824
48123SOL     OW56347  11.562  10.300   2.068  0.0631 -0.2117  0.3725
48123SOL    HW156348  11.592  10.347   2.146 -2.1434  0.9629  0.6214
48123SOL    HW256349  11.493  10.242   2.100  0.6808 -1.4118 -0.4070
48124SOL     OW56350   7.389   6.851  13.734  0.2386 -0.2735 -0.4361
48124SOL    HW156351   7.439   6.908  13.793  0.9602 -0.0577 -1.2405
48124SOL    HW256352   7.307   6.898  13.720  0.0966 -0.2801  0.3105
48125SOL     OW56353   8.952   7.829   6.850 -0.5223 -0.0061  0.1106
48125SOL    HW156354   8.917   7.771   6.918 -0.4956  0.6764  0.7215
48125SOL    HW256355   8.915   7.796   6.769 -0.3971 -0.9666  0.4254
48126SOL     OW56356   6.451  11.310   5.120  0.3725 -0.0816  0.2305
48126SOL    HW156357   6.467  11.223   5.156 -1.8904 -0.7736 -0.2666
48126SOL    HW256358   6.443  11.366   5.197  1.7059 -0.3046  0.5596
48127SOL     OW56359  12.412   7.280  11.061 -0.3581  0.2589 -0.5096
48127SOL    HW156360  12.321   7.275  11.091  0.0752 -0.6415  0.7318
48127SOL    HW256361  12.437   7.188  11.046  0.5246  0.4543 -0.2578
48128SOL     OW56362   7.971   4.036   1.677 -0.0762 -0.1596 -0.0322
48128SOL    HW156363   7.980   3.949   1.637  1.0679  0.1812 -0.5610
48128SOL    HW256364   8.025   4.093   1.622 -2.0065  1.2112 -0.6161
48129SOL     OW56365   2.087  14.026  12.521 -0.2659 -0.8819  0.4701
48129SOL    HW156366   2.051  14.017  12.609 -2.2611  1.1441 -0.0466
48129SOL    HW256367   2.051  13.951  12.473 -0.5361 -1.0853  0.9820
48130SOL     OW56368   9.206   3.301   2.964 -0.1450  0.1977 -0.3967
48130SOL    HW156369   9.111   3.291   2.971 -0.1005  0.6350  1.1662
48130SOL    HW256370   9.241   3.248   3.035  0.8583 -0.7183 -1.5264
48131SOL     OW56371   7.734  12.419   9.611 -0.1773 -0.0326 -0.2768
48131SOL    HW156372   7.690  12.335   9.621  0.0483 -0.1236 -0.0384
48131SOL    HW256373   7.810  12.414   9.670 -0.2122  0.3717 -0.1936
48132SOL     OW56374  13.331   9.362   5.992 -0.0612 -0.2415 -0.0324
48132SOL    HW156375  13.311   9.268   5.993  0.6488 -0.4058 -0.4877
48132SOL    HW256376  13.372   9.378   6.077  0.8929 -0.5981 -0.4114
48133SOL     OW56377   9.928   3.903   5.360 -0.1759 -0.0103 -0.1536
48133SOL    HW156378   9.935   3.808   5.356 -0.8189 -0.0960  0.5502
48133SOL    HW256379  10.000   3.930   5.416  1.1446  0.1025 -1.8132
48134SOL     OW56380   4.114   2.629   2.798 -0.8526  0.1526  0.1214
48134SOL    HW156381   4.132   2.574   2.874  1.9410 -1.7626 -1.7381
48134SOL    HW256382   4.088   2.713   2.835 -1.4634 -1.2303  3.1390
48135SOL     OW56383   5.653   4.333  12.319  0.5370 -0.4206  0.3062
48135SOL    HW156384   5.612   4.286  12.246  0.4312 -1.8281  1.2270
48135SOL    HW256385   5.746   4.334  12.297  0.6621 -1.8587  0.6620
48136SOL     OW56386   5.758   8.865  13.865 -0.2876 -0.0122 -0.0953
48136SOL    HW156387   5.716   8.903  13.943  0.5278  1.3614 -0.2917
48136SOL    HW256388   5.696   8.881  13.794 -1.1915 -1.5797  0.2993
48137SOL     OW56389   4.837   5.094  11.891  0.3608  0.2447  0.2875
48137SOL    HW156390   4.885   5.165  11.847  1.7472  0.4327  1.9961
48137SOL    HW256391   4.767   5.139  11.938 -1.6230 -0.0259 -2.1760
48138SOL     OW56392   8.252   5.672  11.377  0.2964  0.4697 -0.2352
48138SOL    HW156393   8.262   5.580  11.401  0.2661  0.1662 -1.3372
48138SOL    HW256394   8.158   5.685  11.371  0.3173 -0.0696 -2.3653
48139SOL     OW56395   1.164  10.675   6.285  0.6676 -0.4099  0.4018
48139SOL    HW156396   1.172  10.683   6.380  1.1776 -1.7216  0.4845
48139SOL    HW256397   1.238  10.620   6.259  1.6446  1.4122 -1.0015
48140SOL     OW56398   8.387   0.207   4.142  0.2137 -0.7416  0.7010
48140SOL    HW156399   8.317   0.153   4.105  0.9156 -1.5051  0.4722
48140SOL    HW256400   8.385   0.186   4.236 -0.3530 -0.1898  0.8205
48141SOL     OW56401   5.646  11.205  13.132 -0.3387 -0.3779 -0.4580
48141SOL    HW156402   5.579  11.184  13.067 -0.2482 -0.7098 -0.4476
48141SOL    HW256403   5.693  11.122  13.145 -1.3700 -0.7339  1.2391
48142SOL     OW56404  11.773   4.510  11.256 -0.6128 -0.1800 -0.2083
48142SOL    HW156405  11.746   4.540  11.169 -0.2756  1.2104  0.1386
48142SOL    HW256406  11.848   4.453  11.240 -1.7570 -1.5603 -0.9500
48143SOL     OW56407   1.504   2.316  11.757 -0.6515 -0.0701 -0.4711
48143SOL    HW156408   1.475   2.328  11.848 -0.4724  1.4922 -0.5996
48143SOL    HW256409   1.462   2.234  11.730 -1.2537 -0.2180  0.7978
48144SOL     OW56410   2.109   6.669   7.631  0.4167 -0.6912  0.6297
48144SOL    HW156411   2.038   6.675   7.695  0.7831  0.3647  0.9614
48144SOL    HW256412   2.141   6.759   7.622  2.5335 -1.3209  1.4311
48145SOL     OW56413   2.277   0.550   5.603  0.1789 -0.0533  0.0610
48145SOL    HW156414   2.230   0.477   5.563 -0.0238 -0.6041  1.2384
48145SOL    HW256415   2.239   0.557   5.691  0.2416  1.4394 -0.0036
48146SOL     OW56416   4.428  12.739  12.077  0.4241 -0.5946 -0.2983
48146SOL    HW156417   4.405  12.651  12.047  0.5821 -0.7791  0.1163
48146SOL    HW256418   4.345  12.775  12.110  0.5119 -0.8795  0.2501
48147SOL     OW56419   1.337  10.498   3.224 -0.0337  0.0965  0.0286
48147SOL    HW156420   1.242  10.507   3.228 -0.1700  0.2691 -2.0731
48147SOL    HW256421   1.359  10.441   3.297 -1.3762  2.2921  2.2863
48148SOL     OW56422   5.355   6.412   6.386 -0.2519  0.0204 -0.1945
48148SOL    HW156423   5.428   6.389   6.444  1.5603  1.3706 -1.8254
48148SOL    HW256424   5.288   6.346   6.405  0.0401  0.5868  3.6849
48149SOL     OW56425  10.602   4.542   9.078  0.2839 -0.2426 -0.1510
48149SOL    HW156426  10.591   4.608   9.147  0.0671 -0.2931 -0.1344
48149SOL    HW256427  10.674   4.574   9.024  1.0063 -0.6076  0.5759
48150SOL     OW56428   7.508  11.412   4.808 -0.5801 -0.2573  0.0285
48150SOL    HW156429   7.441  11.392   4.742  0.6294 -0.8819 -1.0404
48150SOL    HW256430   7.522  11.507   4.798  0.6186 -0.5601 -1.6731
48151SOL     OW56431   3.685   9.641   8.369 -0.4872  0.3870  0.6260
48151SOL    HW156432   3.764   9.675   8.327  1.4877 -2.9167  1.2622
48151SOL    HW256433   3.652   9.714   8.422  0.4378  2.7533 -1.8400
48152SOL     OW56434  10.863   6.596  12.301 -0.1200 -0.3513 -0.1517
48152SOL    HW156435  10.901   6.684  12.293 -0.0193 -0.4651 -1.0144
48152SOL    HW256436  10.793   6.594  12.235 -1.0529 -0.4423  0.8258
48153SOL     OW56437   0.418   9.340   9.794 -0.1072  0.1362 -0.5725
48153SOL    HW156438   0.438   9.380   9.878  0.5986 -0.8556 -0.2476
48153SOL    HW256439   0.335   9.379   9.767 -0.2583  0.5720  0.5079
48154SOL     OW56440   5.692  11.996  10.680 -0.0962  0.1117 -0.3295
48154SOL    HW156441   5.596  12.001  10.686 -0.0245  0.9862  0.3521
48154SOL    HW256442   5.709  11.918  10.628 -1.1670 -0.8912  0.7589
48155SOL     OW56443  13.202   4.422   6.368 -0.4878 -0.0079  0.3925
48155SOL    HW156444  13.248   4.440   6.450  0.0718  0.5063 -0.0209
48155SOL    HW256445  13.226   4.332   6.346 -1.5266 -0.5454  1.3437
48156SOL     OW56446  13.840  10.632   8.272 -0.0924 -0.0176  0.5111
48156SOL    HW156447  13.782  10.581   8.328 -0.2546  0.3608  0.6902
48156SOL    HW256448  13.782  10.695   8.228  0.1211  0.0841  0.3735
48157SOL     OW56449   4.797   9.676  13.356  0.2750 -0.4610  0.8682
48157SOL    HW156450   4.838   9.729  13.287 -0.1850  0.3404  1.2015
48157SOL    HW256451   4.831   9.713  13.437 -0.1554 -0.5894  1.1090
48158SOL     OW56452   9.393   6.387   7.983 -0.0020 -0.1975  0.1283
48158SOL    HW156453   9.325   6.452   7.965  1.6697  1.4450 -0.4470
48158SOL    HW256454   9.355   6.304   7.953 -1.1013  0.9348 -1.7894
48159SOL     OW56455   1.324   1.263   2.448  0.1352 -0.0005  0.5517
48159SOL    HW156456   1.333   1.306   2.363  0.4023  1.4496  1.2813
48159SOL    HW256457   1.334   1.333   2.512 -3.0413 -0.4558  1.7700
48160SOL     OW56458   2.971  12.783   7.096  0.2173  0.3232 -0.1196
48160SOL    HW156459   2.878  12.758   7.093  0.1919  0.4758 -2.1797
48160SOL    HW256460   2.997  12.766   7.187 -1.1738 -2.1062 -0.0635
48161SOL     OW56461   6.369   4.121  10.923  0.0999  0.1775 -0.0833
48161SOL    HW156462   6.455   4.095  10.891  0.3407  1.4506 -0.4998
48161SOL    HW256463   6.378   4.119  11.019  0.6313  0.4089 -0.1240
48162SOL     OW56464   3.627   3.761  12.133 -0.0373 -0.8407 -0.7317
48162SOL    HW156465   3.637   3.841  12.183  2.6012 -0.5281 -1.6101
48162SOL    HW256466   3.665   3.693  12.188  1.6438 -0.7179 -1.6747
48163SOL     OW56467   0.488   0.455   9.092 -0.9603  0.4435  0.1903
48163SOL    HW156468   0.527   0.369   9.080 -1.2238  0.2587  0.6314
48163SOL    HW256469   0.409   0.454   9.038  0.0697  1.1287 -1.4095
48164SOL     OW56470   4.427   1.280  13.532 -0.0290 -0.1710  0.3258
48164SOL    HW156471   4.401   1.270  13.440  1.2154  1.5057 -0.2693
48164SOL    HW256472   4.499   1.217  13.542 -1.0748 -1.3693  0.5994
48165SOL     OW56473   2.567   1.445   1.880  0.3236 -0.9469  0.6523
48165SOL    HW156474   2.553   1.386   1.806  2.7960 -2.1949  1.0724
48165SOL    HW256475   2.640   1.406   1.928 -0.6785  0.2574  3.3136
48166SOL     OW56476   8.793   8.244   0.509  0.8190  0.0858  0.1951
48166SOL    HW156477   8.738   8.300   0.563 -0.0402  0.8482 -1.3910
48166SOL    HW256478   8.860   8.303   0.474  0.5360 -0.0729 -0.6485
48167SOL     OW56479   9.830   9.440   9.164  0.2017  0.1960 -0.0770
48167SOL    HW156480   9.908   9.437   9.219 -0.0259  0.5362  0.2687
48167SOL    HW256481   9.770   9.378   9.204 -0.6616  1.7617  1.1492
48168SOL     OW56482   0.840   5.359   1.751 -0.7519 -0.3194  0.1850
48168SOL    HW156483   0.850   5.339   1.658 -0.0436 -0.9674  0.3901
48168SOL    HW256484   0.783   5.436   1.753 -0.0015  0.2934 -0.8264
48169SOL     OW56485   9.042   0.322   2.204 -0.1262 -0.0803  0.1176
48169SOL    HW156486   9.096   0.336   2.281 -0.8454 -0.1325  0.6390
48169SOL    HW256487   8.962   0.372   2.221 -0.7418 -0.9704 -0.1105
48170SOL     OW56488   1.702   2.077   4.209 -0.5470 -0.7192  0.4664
48170SOL    HW156489   1.748   1.994   4.204 -0.7929 -0.8435  0.2198
48170SOL    HW256490   1.742   2.131   4.140 -2.0887 -1.5020 -1.1350
48171SOL     OW56491   8.130   1.338   8.104  0.6609  0.3772  0.0047
48171SOL    HW156492   8.046   1.291   8.103  1.3929 -0.9666  0.2248
48171SOL    HW256493   8.156   1.338   8.196  1.3478 -0.0332 -0.1838
48172SOL     OW56494   2.760  11.706  10.500 -0.3276  0.1591 -0.2679
48172SOL    HW156495   2.746  11.615  10.473 -0.4283  0.0000  0.3121
48172SOL    HW256496   2.792  11.700  10.590 -2.0557  0.7517  0.4210
48173SOL     OW56497   7.976   3.599   5.218  0.3335  0.5918 -0.5606
48173SOL    HW156498   7.984   3.521   5.164  0.0823 -0.0968  0.3661
48173SOL    HW256499   7.930   3.662   5.163 -0.7769 -0.4168 -0.8341
48174SOL     OW56500   6.631  12.364   1.881  0.5919 -0.3808  0.8061
48174SOL    HW156501   6.631  12.318   1.797  0.2649  1.6712 -0.3827
48174SOL    HW256502   6.686  12.442   1.866 -2.2912  1.9265  1.3455
48175SOL     OW56503   9.796   4.312  12.665  0.0674  0.6142  0.0947
48175SOL    HW156504   9.793   4.349  12.754 -0.6362 -0.4972  0.5587
48175SOL    HW256505   9.886   4.282  12.655 -0.5116 -1.8414  1.5750
48176SOL     OW56506   4.043   5.738   5.374 -0.7152 -0.4155  0.2403
48176SOL    HW156507   4.027   5.678   5.447 -0.5533  0.8861  1.3834
48176SOL    HW256508   4.000   5.820   5.400  0.0270  0.3176 -0.7575
48177SOL     OW56509   7.972  11.416   3.890 -0.1876 -0.0267 -0.7775
48177SOL    HW156510   7.915  11.479   3.846 -0.5875 -0.3956 -0.7945
48177SOL    HW256511   8.058  11.428   3.850 -0.0834  1.0095 -0.2831
48178SOL     OW56512  10.819   4.732  11.295 -0.4061  0.1016 -0.2085
48178SOL    HW156513  10.792   4.818  11.261  0.7365  0.3756 -0.4647
48178SOL    HW256514  10.912   4.726  11.274  0.2051 -0.0412  2.2057
48179SOL     OW56515  11.752   4.734   5.721 -0.0337 -0.3514  0.6143
48179SOL    HW156516  11.670   4.764   5.683  0.8649  1.9756  0.3531
48179SOL    HW256517  11.749   4.638   5.712 -2.7882 -0.3745  0.8621
48180SOL     OW56518  13.301   0.290   4.444 -0.3297  0.3782 -0.2337
48180SOL    HW156519  13.360   0.265   4.373 -0.0170  2.1253 -0.6249
48180SOL    HW256520  13.214   0.293   4.404 -0.1428  1.4354 -0.5837
48181SOL     OW56521   8.329  12.498   1.220 -0.8316  0.1138 -0.1956
48181SOL    HW156522   8.262  12.564   1.199 -1.2077  0.4777  1.9176
48181SOL    HW256523   8.339  12.447   1.140 -1.9937  1.4831 -1.2605
48182SOL     OW56524   0.607   2.673  12.240  0.3167 -0.4940 -0.1307
48182SOL    HW156525   0.552   2.601  12.210  1.0476 -1.2351  0.2842
48182SOL    HW256526   0.690   2.661  12.194  0.7158 -0.3901  0.5493
48183SOL     OW56527   2.909   8.886  10.137 -0.1865 -0.3095  0.1938
48183SOL    HW156528   2.852   8.815  10.165  0.1171 -0.2223  1.0643
48183SOL    HW256529   2.851   8.963  10.134 -0.5058 -0.5801 -0.7134
48184SOL     OW56530  12.412   1.012   3.536  0.4275 -0.0207 -0.0481
48184SOL    HW156531  12.427   0.928   3.578  0.1420 -0.1025 -0.1028
48184SOL    HW256532  12.458   1.006   3.452 -1.0415 -0.8081 -0.8525
48185SOL     OW56533   0.633  13.008   0.085 -0.0062  0.1561 -0.1020
48185SOL    HW156534   0.724  13.019   0.113 -0.6783  0.0346  2.3294
48185SOL    HW256535   0.589  13.088   0.113 -0.7577  0.0215 -0.8648
48186SOL     OW56536  12.699  12.153  13.990 -0.3813 -0.5267  0.3774
48186SOL    HW156537  12.722  12.067  14.026  1.3205 -0.0052  0.6239
48186SOL    HW256538  12.625  12.135  13.932 -0.8431 -1.9605  1.3428
48187SOL     OW56539   4.873   2.268   5.741  0.0742  0.0104  0.9839
48187SOL    HW156540   4.923   2.199   5.784 -0.0138 -1.2150 -0.7935
48187SOL    HW256541   4.920   2.286   5.660  0.7290  2.9059  1.9133
48188SOL     OW56542  10.990  10.310   3.434 -0.1968  0.0230  0.1984
48188SOL    HW156543  10.896  10.317   3.450 -0.6015 -0.1925 -1.8365
48188SOL    HW256544  10.999  10.231   3.380  1.2191 -0.2268  0.7576
48189SOL     OW56545   4.031  13.927  13.059 -0.1642 -0.5331 -0.1656
48189SOL    HW156546   4.000  13.984  12.988 -0.4580 -1.4326 -0.7664
48189SOL    HW256547   3.995  13.967  13.138 -1.3898 -0.5481 -0.6882
48190SOL     OW56548   2.304   3.364   4.721  0.5612 -0.1949  0.1399
48190SOL    HW156549   2.248   3.299   4.680 -2.2411  0.3652  2.6937
48190SOL    HW256550   2.244   3.418   4.773  3.1077  2.5948  0.4831
48191SOL     OW56551   1.887   5.886   2.687  0.0859 -0.3966  0.2588
48191SOL    HW156552   1.874   5.877   2.592 -0.6830  0.1355  0.3100
48191SOL    HW256553   1.906   5.796   2.716 -0.4585 -0.6932 -0.2789
48192SOL     OW56554   3.916   4.631   9.531 -0.2428 -0.1366 -0.6528
48192SOL    HW156555   3.893   4.587   9.449 -1.8408 -0.3921 -0.0936
48192SOL    HW256556   3.974   4.703   9.504 -0.0303 -0.7471 -1.8950
48193SOL     OW56557  10.287   9.344   3.822  0.2695  0.0333 -0.2055
48193SOL    HW156558  10.355   9.277   3.822 -1.1965 -1.5741 -1.6382
48193SOL    HW256559  10.317   9.409   3.886  1.5584 -2.2186  1.6681
48194SOL     OW56560  11.048   3.639   5.030 -0.3029  0.0255 -0.1896
48194SOL    HW156561  11.133   3.672   5.000  0.4494 -1.8932 -0.3032
48194SOL    HW256562  11.014   3.590   4.956 -1.7974  1.1855 -0.3225
48195SOL     OW56563  12.294   5.449  10.590 -0.4316 -0.6572 -0.1175
48195SOL    HW156564  12.349   5.434  10.667  1.2493 -0.5577 -1.2689
48195SOL    HW256565  12.207   5.469  10.627  0.4576 -0.0270  1.7521
48196SOL     OW56566  13.135   7.830   0.757 -0.4950  0.0821 -0.2632
48196SOL    HW156567  13.099   7.751   0.797 -0.3823 -0.6988 -1.6571
48196SOL    HW256568  13.113   7.900   0.819 -1.5925 -0.8567  0.4528
48197SOL     OW56569   0.924  12.477   9.250  0.3045 -1.2964  0.3791
48197SOL    HW156570   0.965  12.396   9.221  0.9732 -0.3714 -1.3986
48197SOL    HW256571   0.840  12.479   9.205  0.1445 -1.1615  0.6799
48198SOL     OW56572   1.439   0.937   7.020  0.2628  0.0020 -0.2186
48198SOL    HW156573   1.412   0.856   6.977 -0.0128 -0.3132  0.5216
48198SOL    HW256574   1.531   0.948   6.997 -0.1541  0.4673 -1.8312
48199SOL     OW56575  13.322   8.744   5.388 -0.0319  0.3128 -0.4045
48199SOL    HW156576  13.238   8.728   5.431  0.2949  1.9773  0.9782
48199SOL    HW256577  13.385   8.694   5.439 -0.0042  0.0323 -0.7060
48200SOL     OW56578  10.240   7.791   7.362  0.4651 -0.5571 -0.0361
48200SOL    HW156579  10.313   7.729   7.353  1.9033  0.8404  1.3573
48200SOL    HW256580  10.251   7.851   7.288  0.9156 -0.2108  0.2991
48201SOL     OW56581   2.753   1.531   0.106  0.2739  0.2715 -0.8131
48201SOL    HW156582   2.756   1.458   0.167 -0.1485  0.4420 -0.5887
48201SOL    HW256583   2.707   1.600   0.152 -2.1265 -0.3492 -2.1010
48202SOL     OW56584   5.637  10.324  10.536 -0.5485  0.4114  0.7565
48202SOL    HW156585   5.692  10.296  10.463 -1.5770  1.5707 -0.5144
48202SOL    HW256586   5.697  10.369  10.595 -0.0151  1.1718 -0.3258
48203SOL     OW56587  10.784   3.228  10.687  0.2464  0.2124  0.3221
48203SOL    HW156588  10.842   3.285  10.737 -0.2629  4.0615 -2.9854
48203SOL    HW256589  10.695   3.257  10.710 -0.0511  0.3813 -0.9711
48204SOL     OW56590   6.862   2.269   4.447  0.0527  0.3856 -0.3236
48204SOL    HW156591   6.827   2.321   4.375  0.7632 -1.2371 -1.9489
48204SOL    HW256592   6.900   2.192   4.404  3.0511  0.6703  1.5260
48205SOL     OW56593   0.214   8.699   7.044  0.1700  0.0375 -0.0789
48205SOL    HW156594   0.194   8.792   7.056  1.9503  0.7956 -2.3105
48205SOL    HW256595   0.280   8.679   7.109  0.4202  0.5842 -0.1670
48206SOL     OW56596   5.446  13.422   8.386 -0.4872  0.1914 -0.2526
48206SOL    HW156597   5.406  13.486   8.327 -0.6318 -0.1813 -0.5697
48206SOL    HW256598   5.371  13.374   8.423 -0.4155 -3.3684 -4.0095
48207SOL     OW56599  10.824  11.993   7.635 -0.4502  0.3050 -0.0627
48207SOL    HW156600  10.891  12.033   7.691 -2.5526  1.9619  1.4486
48207SOL    HW256601  10.848  11.901   7.631  1.5210  0.7058  0.9893
48208SOL     OW56602   3.985   4.913   9.835  0.1354 -0.3807 -0.4281
48208SOL    HW156603   4.006   5.005   9.845  1.6116 -0.6639 -0.7957
48208SOL    HW256604   3.994   4.876   9.923  0.2824 -0.3300 -0.4234
48209SOL     OW56605   1.963  13.440  10.348  0.2615 -0.4413  0.2175
48209SOL    HW156606   2.006  13.457  10.265 -0.7595 -0.7917 -0.4038
48209SOL    HW256607   1.883  13.393  10.324  0.2887 -1.1550  1.4455
48210SOL     OW56608   3.311   4.408   6.784  0.1645 -0.2239 -0.4856
48210SOL    HW156609   3.237   4.441   6.734 -1.3373 -2.1052  0.3351
48210SOL    HW256610   3.357   4.349   6.724 -1.2927 -2.0176  0.0531
48211SOL     OW56611   3.440  13.736   3.915 -0.8801  0.0296  0.0200
48211SOL    HW156612   3.415  13.808   3.857 -2.0788 -1.5742 -1.5251
48211SOL    HW256613   3.392  13.660   3.882  0.2029 -1.4648  1.7148
48212SOL     OW56614   0.305   3.661   6.117 -0.2834 -0.0376 -0.0489
48212SOL    HW156615   0.285   3.740   6.167 -0.4050 -0.0451 -0.0848
48212SOL    HW256616   0.252   3.669   6.038 -2.3651 -1.4200  1.1248
48213SOL     OW56617   8.123  11.558   5.190  0.3181 -0.1445  0.3024
48213SOL    HW156618   8.106  11.650   5.208  1.8074  0.0162  1.0748
48213SOL    HW256619   8.068  11.511   5.253  1.4714  0.3103  1.7046
48214SOL     OW56620   5.060   3.065   3.967 -0.6446 -0.0498  0.4817
48214SOL    HW156621   5.055   3.065   4.063  2.1804  1.2997  0.7272
48214SOL    HW256622   5.120   2.993   3.946 -2.3007 -1.2339 -0.4423
48215SOL     OW56623  10.248   3.772   5.438 -0.5734 -0.0803 -1.2500
48215SOL    HW156624  10.258   3.724   5.519 -1.8576  1.5575 -0.0553
48215SOL    HW256625  10.172   3.732   5.395 -0.1220 -0.7038 -1.4712
48216SOL     OW56626   9.752  10.203   0.839 -0.8961  0.0756  0.3265
48216SOL    HW156627   9.795  10.256   0.907 -0.9004 -0.8995  1.1037
48216SOL    HW256628   9.695  10.265   0.793  1.3323  1.4435 -0.7730
48217SOL     OW56629  11.885  13.421   5.978 -0.4797 -0.1123 -0.3780
48217SOL    HW156630  11.795  13.389   5.976  0.1070 -1.8256 -0.8016
48217SOL    HW256631  11.899  13.455   5.889 -0.7415  0.2935 -0.2686
48218SOL     OW56632   9.468  11.403   2.721 -0.2102  0.3913  0.2972
48218SOL    HW156633   9.488  11.456   2.798 -2.3579 -0.8989  1.8768
48218SOL    HW256634   9.454  11.466   2.651  1.0238  1.6565  1.1330
48219SOL     OW56635   1.011   0.550  12.630  0.7460 -0.3028  0.7408
48219SOL    HW156636   0.975   0.475  12.582  0.9265  0.8970 -1.3905
48219SOL    HW256637   1.091   0.517  12.670  2.0586 -0.7954 -2.0407
48220SOL     OW56638   7.631  10.289   3.813  0.6749 -0.2516 -0.1214
48220SOL    HW156639   7.676  10.216   3.770  0.8843  0.5216 -1.2468
48220SOL    HW256640   7.599  10.252   3.895  0.4710 -1.7152 -0.8303
48221SOL     OW56641  13.124   6.348   9.701  0.1028 -0.3882  0.2537
48221SOL    HW156642  13.183   6.273   9.690  0.3513 -0.2129  0.3855
48221SOL    HW256643  13.158   6.394   9.777  0.0113 -0.0806  0.1085
48222SOL     OW56644   0.629   4.465  12.689 -0.3896  0.3585  0.0867
48222SOL    HW156645   0.606   4.558  12.681 -0.4544  0.3504  0.1794
48222SOL    HW256646   0.553   4.425  12.732  0.7724  0.7861  2.7763
48223SOL     OW56647   1.393   3.629   0.602 -0.4158  0.0074 -0.2128
48223SOL    HW156648   1.303   3.660   0.610  0.2158  1.7598  0.8166
48223SOL    HW256649   1.397   3.588   0.516 -2.5379 -1.4051  0.2982
48224SOL     OW56650   6.656  13.101   9.055  0.0246  0.0325  0.0447
48224SOL    HW156651   6.674  13.189   9.020 -2.2320 -0.2492 -2.0853
48224SOL    HW256652   6.561  13.098   9.063 -0.0198 -2.4797 -0.6769
48225SOL     OW56653   1.777  10.055   7.591  0.4387  0.0147  0.4390
48225SOL    HW156654   1.697  10.098   7.561 -0.0264 -0.0128  1.6190
48225SOL    HW256655   1.831  10.048   7.512 -0.5810  0.3295 -0.3018
48226SOL     OW56656   1.480   4.305   4.620  0.1286  0.0443  0.3582
48226SOL    HW156657   1.390   4.317   4.651 -0.2939  0.3265 -0.9100
48226SOL    HW256658   1.481   4.344   4.533  0.8504 -2.0040 -0.6154
48227SOL     OW56659  12.328   3.188   3.787 -0.7769 -0.1657  0.0628
48227SOL    HW156660  12.399   3.149   3.736 -0.9042  0.8262 -0.9152
48227SOL    HW256661  12.347   3.163   3.877  0.8503  0.1223 -0.1728
48228SOL     OW56662   8.240   7.121   4.848  0.1986  0.3120  0.3209
48228SOL    HW156663   8.168   7.125   4.786  0.9664 -0.5029 -0.6609
48228SOL    HW256664   8.274   7.032   4.840  0.1866  0.1143  2.0856
48229SOL     OW56665   3.248   7.425  11.686 -0.2655  0.7585  0.7733
48229SOL    HW156666   3.220   7.502  11.736 -0.7124  0.0315  1.6690
48229SOL    HW256667   3.237   7.450  11.594  1.3456  2.4234  0.9706
48230SOL     OW56668   1.949   7.158   3.593  0.0991  0.0849  0.2413
48230SOL    HW156669   1.898   7.155   3.513  0.6393 -0.2073 -0.0980
48230SOL    HW256670   1.884   7.149   3.663 -0.3336 -0.0539 -0.1715
48231SOL     OW56671   6.123   5.240   9.295 -0.0691  0.4077 -0.1687
48231SOL    HW156672   6.144   5.172   9.359 -0.9446 -0.9630 -1.2533
48231SOL    HW256673   6.189   5.231   9.227  0.7309  1.7127  0.4052
48232SOL     OW56674  13.349   3.973  10.498  0.4224  0.7684  0.3795
48232SOL    HW156675  13.255   3.992  10.498  0.8330  3.0984  1.3400
48232SOL    HW256676  13.379   4.000  10.411  0.4839  1.7259  0.6898
48233SOL     OW56677   0.141   7.427   2.832  0.0757  0.7419 -0.1744
48233SOL    HW156678   0.167   7.336   2.843  3.1504  1.4475 -0.5957
48233SOL    HW256679   0.223   7.474   2.819 -1.4908  3.4002 -1.3923
48234SOL     OW56680   2.148  12.362   1.426 -0.4945 -0.2443 -0.1455
48234SOL    HW156681   2.183  12.358   1.337 -0.5183  3.3297 -0.4516
48234SOL    HW256682   2.055  12.382   1.414 -0.2389  1.6013  0.5947
48235SOL     OW56683   2.505  11.920  10.819  0.2266 -0.3751  0.7253
48235SOL    HW156684   2.510  11.834  10.860 -0.6200 -0.8286 -0.0843
48235SOL    HW256685   2.432  11.913  10.757 -0.4842  1.2123  1.3257
48236SOL     OW56686  10.713   6.865   1.300  0.0365  0.5933 -0.2175
48236SOL    HW156687  10.752   6.953   1.297  1.8604 -0.1848 -1.0153
48236SOL    HW256688  10.728   6.830   1.212 -1.0088 -0.3891 -0.0174
48237SOL     OW56689   3.677   1.388   1.602 -0.0539 -0.5117 -0.1547
48237SOL    HW156690   3.587   1.408   1.627  0.6835  0.7084  1.6899
48237SOL    HW256691   3.685   1.423   1.513 -0.8968  1.0180  0.3276
48238SOL     OW56692   7.674  10.164  12.283  0.3612 -0.3567  0.0027
48238SOL    HW156693   7.580  10.153  12.268  0.2926 -0.9707  0.7697
48238SOL    HW256694   7.709  10.193  12.199 -0.5705  0.2784 -0.1805
48239SOL     OW56695   8.040   7.145  11.055 -0.6774  0.1836 -0.3046
48239SOL    HW156696   8.095   7.106  10.987 -1.1458  0.1848 -0.6869
48239SOL    HW256697   7.962   7.089  11.057  0.4247 -1.4749  2.0832
48240SOL     OW56698  10.753   0.816   8.364 -0.2264  0.5810 -0.1754
48240SOL    HW156699  10.658   0.804   8.362 -0.1437 -0.4283  0.6610
48240SOL    HW256700  10.787   0.731   8.393  1.0139  0.5565 -1.5965
48241SOL     OW56701   4.638   1.965   3.147 -0.1218  0.7061 -0.1405
48241SOL    HW156702   4.731   1.985   3.135 -0.0490 -0.2845 -1.4106
48241SOL    HW256703   4.595   2.013   3.077 -0.4401  0.2687 -0.2475
48242SOL     OW56704   0.772  11.791   0.840  0.6372 -0.7318  0.0435
48242SOL    HW156705   0.739  11.873   0.803  0.4098 -0.4596  0.8128
48242SOL    HW256706   0.838  11.761   0.778  0.1608 -0.3817 -0.6544
48243SOL     OW56707   5.553   0.439   8.834  0.3949 -0.3108 -0.3901
48243SOL    HW156708   5.543   0.532   8.812  0.1775 -0.3089 -0.2833
48243SOL    HW256709   5.466   0.402   8.821  0.1043 -0.1845  1.0752
48244SOL     OW56710   6.966   2.926   1.614 -0.3380  0.5102 -0.0623
48244SOL    HW156711   6.924   2.844   1.639  2.6690 -1.1864 -0.1877
48244SOL    HW256712   7.010   2.956   1.694  0.4764  0.7537 -0.5901
48245SOL     OW56713  10.104  11.823   4.909 -1.2625  0.2042  0.4459
48245SOL    HW156714  10.041  11.875   4.859 -1.2918  1.5915  1.8800
48245SOL    HW256715  10.188  11.867   4.894 -0.7000 -1.1899 -0.8294
48246SOL     OW56716   2.244  13.661   8.473  0.1297  0.1766  0.0202
48246SOL    HW156717   2.270  13.637   8.562  1.4599 -0.8293 -0.5994
48246SOL    HW256718   2.274  13.587   8.419 -1.1937  0.4818 -1.1931
48247SOL     OW56719  13.972  11.147   7.363 -0.2698 -0.5749  0.3025
48247SOL    HW156720  14.002  11.056   7.367 -0.8053 -0.8747 -1.5558
48247SOL    HW256721  14.019  11.185   7.289 -1.4014  0.1299 -0.0911
48248SOL     OW56722  13.425  10.104  10.979 -0.1207  0.4267  0.8578
48248SOL    HW156723  13.430  10.086  10.885  1.7367  0.9353  0.8235
48248SOL    HW256724  13.475  10.185  10.991 -1.2301  0.9571  2.1545
48249SOL     OW56725   8.796   0.448   1.209  0.5553 -0.0846 -0.4160
48249SOL    HW156726   8.735   0.520   1.220  1.9140  1.4684 -2.3938
48249SOL    HW256727   8.818   0.421   1.298 -0.9040  1.1011  0.3476
48250SOL     OW56728   3.743  11.345  13.870 -0.0561 -0.6949 -0.1333
48250SOL    HW156729   3.714  11.312  13.784  0.2001 -0.1209 -0.4484
48250SOL    HW256730   3.724  11.439  13.867 -0.9659 -0.8309  0.8288
48251SOL     OW56731  11.428  13.829   6.478  0.7775 -0.2667 -0.0827
48251SOL    HW156732  11.365  13.759   6.464  0.6757 -0.4939  1.3576
48251SOL    HW256733  11.374  13.907   6.491  0.8433 -0.1879 -0.2809
48252SOL     OW56734  11.859   3.168   5.451 -0.2115  0.2923  0.0828
48252SOL    HW156735  11.771   3.130   5.458 -0.4897  0.7330 -0.8005
48252SOL    HW256736  11.891   3.171   5.541 -1.3623  0.7186  0.4973
48253SOL     OW56737   6.820   5.647   7.630  0.6892  0.0958  0.4960
48253SOL    HW156738   6.842   5.725   7.681  1.9656 -0.0673  0.2019
48253SOL    HW256739   6.764   5.596   7.689  0.2297  0.9893  0.8631
48254SOL     OW56740  11.383   6.148  10.197 -0.5615  0.7249  0.3768
48254SOL    HW156741  11.406   6.222  10.142 -0.1713  0.0709 -0.3692
48254SOL    HW256742  11.309   6.106  10.152  1.3066 -1.2552 -1.0679
48255SOL     OW56743  13.951  13.633   3.883  0.1847  0.3188 -0.6067
48255SOL    HW156744  13.858  13.657   3.883 -0.5469 -2.2500 -0.8345
48255SOL    HW256745  13.986  13.671   3.802 -1.0756 -0.0712 -1.3582
48256SOL     OW56746   6.959   9.332   3.214  0.2837  0.0012 -0.4685
48256SOL    HW156747   6.936   9.397   3.147 -1.3142 -0.7438 -0.6767
48256SOL    HW256748   6.904   9.257   3.194  0.7220 -0.7153  0.9335
48257SOL     OW56749   3.653   5.879  10.055 -0.0750 -0.2601 -0.0364
48257SOL    HW156750   3.737   5.856  10.016  0.3724 -2.7683  2.1366
48257SOL    HW256751   3.670   5.961  10.103  1.3068 -1.0069  0.7881
48258SOL     OW56752   4.365  11.560   4.597 -0.3793 -0.0666  0.3572
48258SOL    HW156753   4.305  11.626   4.563  2.3952  1.7754 -1.4011
48258SOL    HW256754   4.354  11.564   4.692 -0.9406  2.3052  0.2600
48259SOL     OW56755  13.418   0.687   9.171  0.0790  0.0320  0.4560
48259SOL    HW156756  13.436   0.714   9.261  0.2112  0.2284  0.3718
48259SOL    HW256757  13.400   0.768   9.124  1.3440  0.0809  0.0010
48260SOL     OW56758  14.006   5.357   9.120 -0.0014 -0.3840 -0.3501
48260SOL    HW156759  14.052   5.273   9.113  0.9619  0.1734 -0.8839
48260SOL    HW256760  14.046   5.412   9.053 -0.2461  0.6907  0.3695
48261SOL     OW56761  12.763  13.899   8.907 -0.1226 -0.4637  0.1594
48261SOL    HW156762  12.719  13.869   8.987 -0.7737  1.5815  0.6179
48261SOL    HW256763  12.783  13.991   8.924  2.8472 -0.8547 -0.7271
48262SOL     OW56764  10.732  11.667  12.483 -0.0265 -0.3094 -0.1477
48262SOL    HW156765  10.666  11.704  12.425  0.7354  1.6950  0.1735
48262SOL    HW256766  10.691  11.589  12.520 -1.4830 -0.1606 -1.3624
48263SOL     OW56767   7.987  13.148  13.068 -0.0055 -0.7231  0.1200
48263SOL    HW156768   8.058  13.194  13.112 -0.5078  0.5145 -0.3138
48263SOL    HW256769   7.937  13.108  13.139  0.2944 -0.3778  0.5340
48264SOL     OW56770   1.599   5.031   2.132 -0.1526 -0.9763  0.0488
48264SOL    HW156771   1.519   5.050   2.084  0.0959 -0.0199 -0.0130
48264SOL    HW256772   1.569   5.003   2.219 -0.5579 -1.1097 -0.1327
48265SOL     OW56773   2.045   8.698   7.200  0.0562 -0.0949 -0.1264
48265SOL    HW156774   2.044   8.686   7.295  0.0546 -0.5688 -0.1822
48265SOL    HW256775   1.968   8.751   7.182 -1.3921 -2.0715 -0.1119
48266SOL     OW56776   7.079   1.281   0.409 -0.1350  0.7063 -0.0781
48266SOL    HW156777   6.993   1.260   0.444 -0.0994  0.5820 -0.0649
48266SOL    HW256778   7.082   1.377   0.408 -0.1197  0.7126  0.3050
48267SOL     OW56779   5.555   8.733   9.906  0.1654  0.2216 -0.2573
48267SOL    HW156780   5.484   8.770   9.855 -1.0945 -0.3866  0.9900
48267SOL    HW256781   5.539   8.763   9.996  0.8183 -0.8332  0.2380
48268SOL     OW56782  10.528   8.780  12.858  0.4855 -0.8705  0.2346
48268SOL    HW156783  10.605   8.734  12.825  1.8613  1.4209  0.0332
48268SOL    HW256784  10.542   8.785  12.952 -0.2195 -1.8078  0.3962
48269SOL     OW56785   2.725   8.785   9.629 -0.4563 -0.6536 -0.7022
48269SOL    HW156786   2.711   8.769   9.536 -0.7224 -1.4524 -0.5376
48269SOL    HW256787   2.691   8.706   9.672  2.8092 -1.8771 -0.1357
48270SOL     OW56788  10.520   8.716   5.179  0.2609  0.2731  0.0572
48270SOL    HW156789  10.431   8.682   5.172  0.0174  0.6635  1.0650
48270SOL    HW256790  10.575   8.638   5.187  0.0095  0.0357 -0.4570
48271SOL     OW56791   5.786   3.930   9.139 -0.3221  0.3649 -0.0345
48271SOL    HW156792   5.700   3.932   9.180 -0.6028  2.9517 -0.5980
48271SOL    HW256793   5.844   3.970   9.204  0.2163 -0.2114 -0.1534
48272SOL     OW56794   7.062   9.590  12.442  0.0621 -0.5363  0.1745
48272SOL    HW156795   6.977   9.549  12.425 -0.9770  1.8043 -0.8125
48272SOL    HW256796   7.059   9.672  12.392  3.2553 -0.7284 -0.5569
48273SOL     OW56797   1.059  11.632   2.644  0.1745 -0.0711  0.0446
48273SOL    HW156798   1.061  11.576   2.721  0.2874  1.3382  1.1206
48273SOL    HW256799   0.966  11.639   2.622 -0.0390  0.8326  1.1073
48274SOL     OW56800   1.218   8.435   8.287  0.2037  0.2274  0.4710
48274SOL    HW156801   1.133   8.429   8.244 -0.1841  1.2114  1.0607
48274SOL    HW256802   1.218   8.363   8.350 -0.8786  1.1807  1.6060
48275SOL     OW56803   2.107   0.022   5.366 -0.2186 -0.2670  0.0925
48275SOL    HW156804   2.030   0.060   5.325  0.2800  0.9008  0.1914
48275SOL    HW256805   2.113  -0.066   5.329 -1.2353 -0.1518 -0.3815
48276SOL     OW56806   8.469   7.831   3.725 -0.3168  0.2000  0.4400
48276SOL    HW156807   8.489   7.816   3.632  0.9341  0.8655  0.5826
48276SOL    HW256808   8.415   7.756   3.750 -1.1699  0.3066 -0.9606
48277SOL     OW56809   3.159  11.659   8.866  0.6341 -0.2622 -0.1533
48277SOL    HW156810   3.083  11.600   8.869 -0.2811  0.8618 -0.1703
48277SOL    HW256811   3.125  11.742   8.902  1.9848  0.1367  0.2354
48278SOL     OW56812   5.637   1.804   3.303 -0.3396 -0.5231  0.5829
48278SOL    HW156813   5.660   1.738   3.237 -3.0485 -2.1244  1.0823
48278SOL    HW256814   5.634   1.886   3.254 -0.6801 -1.3977 -0.9495
48279SOL     OW56815   0.775   2.672   6.036 -0.0114 -0.5280  0.1635
48279SOL    HW156816   0.696   2.620   6.047 -2.3934  2.9988  1.5053
48279SOL    HW256817   0.755   2.731   5.964  1.5902  0.1311  0.2158
48280SOL     OW56818   2.936  13.568   2.936 -0.1446  0.2437  0.4815
48280SOL    HW156819   2.862  13.628   2.941  0.7063  1.3399  0.1501
48280SOL    HW256820   2.958  13.551   3.028 -0.7039  0.0251  0.5807
48281SOL     OW56821   9.170   7.920   7.809  0.0258 -0.2082  0.3040
48281SOL    HW156822   9.249   7.895   7.762 -0.1617 -1.0660  0.4417
48281SOL    HW256823   9.133   7.838   7.841 -2.3739 -0.1780 -2.0215
48282SOL     OW56824   1.471   3.180   5.195 -0.2782  0.1570  0.4972
48282SOL    HW156825   1.419   3.195   5.116 -0.5327 -0.8427  0.4516
48282SOL    HW256826   1.407   3.179   5.266 -0.2478 -0.3795  0.5263
48283SOL     OW56827   0.275  11.338   8.542  0.2017  0.2703 -0.0236
48283SOL    HW156828   0.264  11.257   8.591  1.9497  0.7117  1.1998
48283SOL    HW256829   0.334  11.391   8.596 -1.1225  2.5134 -0.6009
48284SOL     OW56830   4.342  12.885   0.559 -0.0705  0.1696  0.3418
48284SOL    HW156831   4.412  12.950   0.572  0.9666 -1.2037  2.0818
48284SOL    HW256832   4.349  12.861   0.467 -0.4381  2.4123 -0.3364
48285SOL     OW56833   5.737   1.581   7.832  0.3696  0.5842 -0.0444
48285SOL    HW156834   5.813   1.522   7.833  0.4017  0.6288  0.4227
48285SOL    HW256835   5.703   1.577   7.921 -0.0995  0.6687 -0.2167
48286SOL     OW56836  12.947   0.377   2.963 -0.0085 -0.1207 -0.0172
48286SOL    HW156837  12.911   0.431   2.892  0.8021  1.3680  0.6545
48286SOL    HW256838  12.876   0.318   2.986 -0.7889  0.3591 -1.0882
48287SOL     OW56839   0.943   5.601   7.774  0.0301 -0.3016 -0.3340
48287SOL    HW156840   1.017   5.656   7.748  0.9269 -0.7796  1.1048
48287SOL    HW256841   0.961   5.578   7.865 -2.7201  0.9463  0.6248
48288SOL     OW56842   8.622  11.307   6.719  0.1563 -0.2540  0.0420
48288SOL    HW156843   8.683  11.238   6.693 -0.8177 -0.7617 -1.0116
48288SOL    HW256844   8.672  11.363   6.779  1.5394 -0.8316 -0.5294
48289SOL     OW56845   0.107   8.876   0.526  0.0545 -0.1698  0.1107
48289SOL    HW156846   0.136   8.785   0.523  0.9371  0.0878  0.5552
48289SOL    HW256847   0.028   8.878   0.472 -0.2620 -1.2999  0.5018
48290SOL     OW56848   4.395   8.254   4.746 -0.0932 -0.0304 -0.7519
48290SOL    HW156849   4.440   8.335   4.773 -1.3316  0.8204 -1.1425
48290SOL    HW256850   4.302   8.274   4.757 -0.5174 -0.7297 -2.6457
48291SOL     OW56851   8.567   5.689  12.427 -0.1263 -0.1958  0.3189
48291SOL    HW156852   8.644   5.687  12.370  0.5491  0.3950  1.1915
48291SOL    HW256853   8.592   5.637  12.504 -0.5293  0.1584  0.6941
48292SOL     OW56854  12.340   7.223  12.464 -0.3471  0.7369 -0.0097
48292SOL    HW156855  12.259   7.266  12.494 -0.9388 -0.6735  0.4948
48292SOL    HW256856  12.395   7.221  12.542 -0.4900  0.2367  0.0856
48293SOL     OW56857   4.177   8.355   8.171  0.1700  0.1808  0.4974
48293SOL    HW156858   4.164   8.320   8.260  2.1737  0.7125  1.0386
48293SOL    HW256859   4.249   8.304   8.136 -1.1130 -0.5618 -1.1736
48294SOL     OW56860  10.166   2.637   4.058 -0.2479  0.6065  0.0331
48294SOL    HW156861  10.109   2.700   4.014 -1.2124 -1.7021 -2.2641
48294SOL    HW256862  10.107   2.582   4.108  0.6772  1.9784  2.8439
48295SOL     OW56863   8.984  10.532   8.673  0.0453  0.7457  0.1189
48295SOL    HW156864   9.044  10.483   8.617 -1.6247  0.9992 -2.0727
48295SOL    HW256865   8.943  10.466   8.729 -1.1616 -0.2749 -1.8281
48296SOL     OW56866   8.763  11.086   8.285  0.1628 -0.1854 -0.1389
48296SOL    HW156867   8.696  11.019   8.273  0.4062 -0.5393  0.4884
48296SOL    HW256868   8.734  11.158   8.228  0.3460 -1.1314 -1.4911
48297SOL     OW56869   5.320   7.346   6.077 -0.1172 -0.8060 -0.3425
48297SOL    HW156870   5.290   7.409   6.011 -0.5558  0.4461  0.9944
48297SOL    HW256871   5.409   7.325   6.051 -0.5245 -0.9345 -1.7500
48298SOL     OW56872  12.579  13.876   6.681 -0.4553  0.3439  0.2748
48298SOL    HW156873  12.549  13.785   6.684 -0.3101  0.1685 -1.6931
48298SOL    HW256874  12.666  13.871   6.641  0.4031  1.2108  1.9472
48299SOL     OW56875  12.236   7.525   3.932  0.3114 -0.2616 -0.4478
48299SOL    HW156876  12.268   7.569   3.853 -0.0439 -0.1947 -0.5558
48299SOL    HW256877  12.305   7.540   3.997 -0.1275  1.1303 -0.2488
48300SOL     OW56878  11.382  11.857   7.784  0.7127 -0.3513 -0.1529
48300SOL    HW156879  11.298  11.836   7.744  0.9846 -0.9196 -0.4323
48300SOL    HW256880  11.393  11.951   7.770 -0.0945 -0.1764  0.3141
48301SOL     OW56881  14.023   7.112  13.880  0.9763  0.5119  0.2886
48301SOL    HW156882  14.088   7.166  13.923  0.1407  1.6728  0.1228
48301SOL    HW256883  14.056   7.100  13.791  0.8077  1.3807  0.1054
48302SOL     OW56884   4.224   9.639  12.984  0.2038 -0.2222 -0.0304
48302SOL    HW156885   4.287   9.611  13.051 -0.0114 -0.7147 -0.0290
48302SOL    HW256886   4.269   9.709  12.937  0.2103  0.3914  0.8761
48303SOL     OW56887  11.641   7.782   3.335  0.5392  0.5890  0.7425
48303SOL    HW156888  11.712   7.749   3.392  1.8583  1.0955 -0.5560
48303SOL    HW256889  11.679   7.857   3.290 -0.7372  0.6660 -0.2543
48304SOL     OW56890   0.774   1.575   8.372  0.2022  0.3823 -0.2818
48304SOL    HW156891   0.751   1.666   8.355 -1.8986  0.4527  2.3172
48304SOL    HW256892   0.690   1.530   8.382  1.1998 -1.4086  0.5331
48305SOL     OW56893  11.698  12.069   9.103 -0.5726 -0.4208  0.3036
48305SOL    HW156894  11.608  12.102   9.099 -0.1633  0.8173  0.8642
48305SOL    HW256895  11.742  12.113   9.030 -0.2833 -0.5868  0.3783
48306SOL     OW56896   2.795   1.771  12.034 -0.3319  0.1021 -0.4831
48306SOL    HW156897   2.795   1.678  12.059  0.3303  0.5476  1.3395
48306SOL    HW256898   2.880   1.803  12.064  0.9629  0.5827 -4.1640
48307SOL     OW56899   3.519   5.041   3.788  0.1382  0.6242  0.0789
48307SOL    HW156900   3.562   4.984   3.724  2.1077  2.4537 -0.3454
48307SOL    HW256901   3.425   5.032   3.770  0.5538 -0.3188 -1.8143
48308SOL     OW56902  12.763   6.051  11.044  0.3651  0.1254  0.3866
48308SOL    HW156903  12.768   6.103  11.124  1.2334  0.3836  0.1728
48308SOL    HW256904  12.851   6.054  11.008  0.7244 -2.3465  0.8859
48309SOL     OW56905   1.410   2.045   0.601  0.1693  0.8138  0.0664
48309SOL    HW156906   1.495   2.089   0.597  0.3925  0.5106  1.2498
48309SOL    HW256907   1.386   2.047   0.693  0.5672 -2.2657  0.3298
48310SOL     OW56908   3.798   7.525   9.177 -0.0416  0.1997 -0.1466
48310SOL    HW156909   3.877   7.471   9.170 -0.2419 -0.0463 -0.5777
48310SOL    HW256910   3.732   7.477   9.128 -0.1349  1.0011 -0.8394
48311SOL     OW56911   1.644   5.602   6.123 -0.4613  0.0932  0.1459
48311SOL    HW156912   1.600   5.682   6.152 -0.5935  0.6576 -1.4645
48311SOL    HW256913   1.731   5.607   6.160 -1.2475 -0.2996  2.1616
48312SOL     OW56914   4.106   6.934   8.299  0.0243  0.4397 -0.0638
48312SOL    HW156915   4.181   6.959   8.244 -1.4556  3.7816 -0.8252
48312SOL    HW256916   4.139   6.939   8.389  1.0386  0.5802 -0.4350
48313SOL     OW56917   9.583   2.096  13.394  0.1775  0.1170 -0.0146
48313SOL    HW156918   9.513   2.034  13.415 -0.1948  0.1682 -1.0484
48313SOL    HW256919   9.663   2.051  13.420 -0.2415  0.3750  1.9585
48314SOL     OW56920   3.111   0.162   8.155  0.2451  0.3326  0.1753
48314SOL    HW156921   3.048   0.149   8.226 -1.5601 -1.4428 -1.6247
48314SOL    HW256922   3.057   0.190   8.081  1.7522 -0.0798 -1.1150
48315SOL     OW56923   4.787   3.298  12.208  0.3359 -0.3123 -0.2488
48315SOL    HW156924   4.698   3.285  12.241 -0.3024 -2.3007 -2.5125
48315SOL    HW256925   4.799   3.393  12.208 -2.1711  0.0776 -0.8132
48316SOL     OW56926   3.893  11.990  12.449  0.1104 -0.0305 -0.0249
48316SOL    HW156927   3.873  11.897  12.444 -1.4431  0.1614  1.4164
48316SOL    HW256928   3.871  12.024  12.362  0.8324 -1.0101 -0.6062
48317SOL     OW56929  11.130   3.427   1.433  0.7044 -0.4169 -0.2649
48317SOL    HW156930  11.182   3.480   1.493  0.1596 -1.1600  0.8831
48317SOL    HW256931  11.082   3.492   1.380 -0.2243  0.2735  1.3602
48318SOL     OW56932   3.199   2.671  13.257  0.1859 -0.4425 -0.6483
48318SOL    HW156933   3.248   2.589  13.270 -0.6483 -0.7918  0.5037
48318SOL    HW256934   3.130   2.668  13.324 -0.4673  0.7471 -1.2403
48319SOL     OW56935   1.053   0.769   7.883 -0.8461 -0.4246  0.4223
48319SOL    HW156936   1.117   0.703   7.858 -1.9922 -0.7916 -1.7746
48319SOL    HW256937   1.095   0.852   7.863 -0.5439 -0.6023  0.3162
48320SOL     OW56938   6.555  11.669  10.840 -0.4835 -0.0111  0.4336
48320SOL    HW156939   6.621  11.667  10.910 -0.1752 -0.3604  0.1328
48320SOL    HW256940   6.596  11.624  10.767 -0.0203  2.0727 -0.6661
48321SOL     OW56941   4.997   8.970  11.290 -0.2330  0.7372  0.1627
48321SOL    HW156942   5.016   9.027  11.215 -0.2358  1.7417  0.9018
48321SOL    HW256943   5.008   9.027  11.366  1.8574 -0.7670  1.0747
48322SOL     OW56944   3.250   7.808   4.498 -0.0679 -0.1640 -0.0338
48322SOL    HW156945   3.164   7.845   4.478  0.4827  1.0697 -0.1457
48322SOL    HW256946   3.235   7.713   4.497 -1.2845  0.0129 -0.6869
48323SOL     OW56947  10.164   6.245   5.015  0.2651 -0.5381  0.3131
48323SOL    HW156948  10.220   6.199   5.077  0.1629 -1.8961 -0.5423
48323SOL    HW256949  10.167   6.191   4.936 -0.9575  0.2307 -0.2954
48324SOL     OW56950  13.451  14.031  13.173  0.6313 -0.1202  0.3345
48324SOL    HW156951  13.442  14.096  13.104 -2.3605  0.1168  0.8126
48324SOL    HW256952  13.525  13.976  13.146  0.0698  0.4414 -2.6058
48325SOL     OW56953  12.705   6.714  11.565  0.5342 -0.0863 -0.0250
48325SOL    HW156954  12.779   6.684  11.514 -0.2552 -3.2973  0.5218
48325SOL    HW256955  12.628   6.694  11.511 -0.0948  3.1382 -0.5808
48326SOL     OW56956   1.152   7.439   0.388  0.7397  0.2520 -0.0603
48326SOL    HW156957   1.198   7.442   0.472 -0.0168  0.0144  0.3758
48326SOL    HW256958   1.222   7.429   0.323  1.2342 -2.3026  0.7194
48327SOL     OW56959  11.942  13.099   7.518 -0.2626  0.0288 -0.3445
48327SOL    HW156960  11.908  13.020   7.561  1.6442 -1.4398 -1.3670
48327SOL    HW256961  11.914  13.171   7.574 -2.1376 -1.3454  0.5937
48328SOL     OW56962   7.286   3.039  13.347 -0.4913  0.2482 -0.0051
48328SOL    HW156963   7.247   3.110  13.296  1.4865 -0.1568 -2.3226
48328SOL    HW256964   7.380   3.057  13.343 -0.0877 -1.4109  1.1083
48329SOL     OW56965   3.946   0.116   5.263  0.3106  0.5486 -0.2563
48329SOL    HW156966   3.927   0.027   5.234 -0.4322  1.3233 -2.3824
48329SOL    HW256967   4.040   0.126   5.249  0.2272  0.3955 -0.9949
48330SOL     OW56968   9.242   8.437   9.319 -0.6302  0.0411  0.5461
48330SOL    HW156969   9.226   8.438   9.413 -1.8068 -0.4381  0.3683
48330SOL    HW256970   9.221   8.525   9.290 -0.7137  0.0584  0.6600
48331SOL     OW56971   1.313  13.982   9.382 -0.8063 -0.3765  0.2781
48331SOL    HW156972   1.299  13.904   9.329 -1.2189 -0.5528  0.6380
48331SOL    HW256973   1.269  14.052   9.334  1.7422  0.2086 -1.3917
48332SOL     OW56974   4.861   6.750  11.061  0.1538 -0.3057 -0.2441
48332SOL    HW156975   4.786   6.761  11.120 -0.0013 -0.0916 -0.4754
48332SOL    HW256976   4.841   6.670  11.013  0.2277 -0.4215 -0.0817
48333SOL     OW56977  12.143   7.771  11.659  0.6730 -0.0035 -0.0076
48333SOL    HW156978  12.222   7.743  11.706  0.3123 -1.0053  0.0394
48333SOL    HW256979  12.125   7.698  11.599 -1.9234 -1.2179  2.0613
48334SOL     OW56980   7.158   2.978   4.900  0.2045 -0.1908  0.1210
48334SOL    HW156981   7.139   3.003   4.990  0.5229  0.3345  0.0455
48334SOL    HW256982   7.099   2.905   4.882 -0.6544  0.4259  0.3845
48335SOL     OW56983   7.302   0.386   0.695  0.6243  0.1598 -0.1893
48335SOL    HW156984   7.385   0.367   0.652  0.1382  2.6678 -2.4540
48335SOL    HW256985   7.275   0.470   0.660 -1.6580  0.6549  2.4170
48336SOL     OW56986   2.503  13.201   7.749 -0.1532  0.7222  0.5316
48336SOL    HW156987   2.559  13.265   7.792  0.5420  1.0937 -0.8896
48336SOL    HW256988   2.438  13.253   7.701 -0.4938  0.3226  0.5459
48337SOL     OW56989  13.883  13.381   5.961  0.3360  0.1177 -0.6048
48337SOL    HW156990  13.839  13.336   6.034 -0.2886  1.2711 -0.2351
48337SOL    HW256991  13.857  13.331   5.883 -1.6350  0.7152 -0.3907
48338SOL     OW56992   2.544   1.872  11.117  0.2103  0.4452 -0.0655
48338SOL    HW156993   2.638   1.875  11.136  0.0148  1.3682  0.8065
48338SOL    HW256994   2.501   1.879  11.202 -0.6673 -1.2316 -0.3257
48339SOL     OW56995   2.470   4.552   5.032  0.5107 -0.2023  0.2905
48339SOL    HW156996   2.525   4.563   5.110  1.8011  0.4391 -0.6672
48339SOL    HW256997   2.383   4.535   5.067  1.0980 -0.1927  1.8757
48340SOL     OW56998   2.064   5.284   0.124 -0.1404  0.0466 -0.1706
48340SOL    HW156999   2.026   5.292   0.211  0.8858  1.7854  0.1768
48340SOL    HW257000   2.137   5.347   0.124  0.2464 -0.3357 -2.0822
48341SOL     OW57001   5.654   6.656   9.079  0.0798  0.4304 -0.5979
48341SOL    HW157002   5.638   6.565   9.056  1.7895  0.0568 -0.4840
48341SOL    HW257003   5.572   6.686   9.118 -1.0258 -0.5790 -2.0104
48342SOL     OW57004  13.469  12.349   5.470  0.0794 -0.3899 -0.3032
48342SOL    HW157005  13.373  12.352   5.473 -0.0111 -1.7134 -1.0990
48342SOL    HW257006  13.490  12.381   5.383  0.1962 -2.2305 -1.0038
48343SOL     OW57007   2.302   9.132  11.226  0.4594  0.1610  0.0389
48343SOL    HW157008   2.263   9.045  11.220  1.0166 -0.1127  0.2985
48343SOL    HW257009   2.396   9.116  11.227  0.5916  0.8353 -0.8665
48344SOL     OW57010   4.498   2.219   9.592  0.0495 -0.2381 -0.9244
48344SOL    HW157011   4.586   2.194   9.563  0.4673  0.0343  0.0527
48344SOL    HW257012   4.513   2.291   9.653 -0.4784 -2.5531  2.2259
48345SOL     OW57013  11.177   6.688  13.661  0.2340  0.0049 -0.2394
48345SOL    HW157014  11.091   6.669  13.622  0.0087 -2.0459  1.1173
48345SOL    HW257015  11.170   6.657  13.751  1.9801  1.0876  0.3206
48346SOL     OW57016   3.047   7.844   1.212 -0.0957  0.2841  0.0958
48346SOL    HW157017   2.987   7.774   1.238 -1.3395  1.1840 -0.2538
48346SOL    HW257018   3.006   7.883   1.134  1.5956  0.1176 -0.9281
48347SOL     OW57019   2.289   2.417   5.626 -0.3715  0.4812 -0.6248
48347SOL    HW157020   2.204   2.454   5.653 -0.0828  0.9621 -0.3661
48347SOL    HW257021   2.339   2.411   5.708  0.7944  2.6541 -1.1169
48348SOL     OW57022   6.722   4.623   4.328  0.0875  0.6474 -0.5712
48348SOL    HW157023   6.800   4.640   4.274  0.5230  0.5794  0.0190
48348SOL    HW257024   6.696   4.534   4.305  1.2625 -0.0217  0.4855
48349SOL     OW57025  12.911   8.723  11.271  0.7222  0.2522  0.0536
48349SOL    HW157026  12.978   8.741  11.206  1.5673  1.0465  1.1009
48349SOL    HW257027  12.865   8.646  11.239  1.7511  0.0584 -0.9815
48350SOL     OW57028  13.155  10.166   3.585  0.0334  0.5943  0.1365
48350SOL    HW157029  13.174  10.137   3.674 -0.6633  3.6564  1.4407
48350SOL    HW257030  13.060  10.153   3.575  0.3177 -1.0447 -0.7541
48351SOL     OW57031   0.985   7.127  11.864  0.1592  1.0406  0.6512
48351SOL    HW157032   0.941   7.061  11.810 -0.7284  2.2550 -0.1579
48351SOL    HW257033   0.968   7.099  11.954  0.9247 -0.5332  0.3369
48352SOL     OW57034  12.051   7.199   7.340 -0.1049 -0.1076 -0.9685
48352SOL    HW157035  12.126   7.157   7.383  0.4032  1.4455 -0.2605
48352SOL    HW257036  12.089   7.266   7.284 -0.9394  0.2261 -1.1550
48353SOL     OW57037  10.064   2.850   2.918 -0.4130  0.4481  0.0347
48353SOL    HW157038  10.068   2.789   2.844 -0.0470  0.6283 -0.0939
48353SOL    HW257039  10.001   2.917   2.891 -1.1260 -0.0840  0.3390
48354SOL     OW57040  13.553   9.649   3.500  0.1296  0.0449 -0.0926
48354SOL    HW157041  13.534   9.740   3.475  0.2730  0.6226  1.7326
48354SOL    HW257042  13.645   9.650   3.525  0.1257 -0.6028 -0.0479
48355SOL     OW57043   5.085  12.517  12.465  0.1002 -0.4616  0.1973
48355SOL    HW157044   5.136  12.460  12.408 -0.2162 -2.3837  1.7085
48355SOL    HW257045   5.097  12.605  12.429  2.0356 -1.2343 -1.2129
48356SOL     OW57046   3.650  12.958  12.491 -0.1008  0.5746 -0.0772
48356SOL    HW157047   3.701  12.912  12.558 -0.1475 -1.0422 -1.1009
48356SOL    HW257048   3.714  13.010  12.444  0.5944 -1.0460 -1.0184
48357SOL     OW57049  11.220   1.177  10.903  0.2163  0.4767  0.2189
48357SOL    HW157050  11.264   1.096  10.929  1.3085  1.0114  0.1067
48357SOL    HW257051  11.201   1.164  10.810  0.2558  0.2951  0.2347
48358SOL     OW57052   2.174  13.017   8.168  0.6824  0.3522  0.1015
48358SOL    HW157053   2.101  13.071   8.199  0.5244 -0.8519  1.9538
48358SOL    HW257054   2.226  13.077   8.114 -0.3870  1.8893  0.6936
48359SOL     OW57055   0.336  11.525   4.708  0.0309 -0.0758 -0.3067
48359SOL    HW157056   0.401  11.455   4.700 -0.0901 -0.2167 -0.0769
48359SOL    HW257057   0.290  11.525   4.624 -2.7803 -3.0860  1.0293
48360SOL     OW57058  12.259  13.548   7.089 -0.3455  0.5079 -0.0255
48360SOL    HW157059  12.182  13.604   7.096  0.1824  1.3041 -0.4289
48360SOL    HW257060  12.307  13.563   7.171  0.2184  1.3134 -0.4834
48361SOL     OW57061   9.065   0.770  12.626  0.7285 -0.0486 -0.0075
48361SOL    HW157062   9.002   0.700  12.612  2.8362 -2.2091  0.6500
48361SOL    HW257063   9.035   0.842  12.570 -0.6994 -2.0071 -1.9010
48362SOL     OW57064   2.673   2.195   9.970 -0.0963  0.0449  0.0770
48362SOL    HW157065   2.629   2.159  10.047 -1.9782 -1.0555 -1.4511
48362SOL    HW257066   2.684   2.288   9.991 -3.0207  0.3453  0.6313
48363SOL     OW57067   2.014   2.687   8.878  0.5882 -0.2192  0.1629
48363SOL    HW157068   2.000   2.632   8.801 -0.7840 -0.9084  0.8736
48363SOL    HW257069   2.068   2.633   8.936  2.8748  0.8486 -0.8542
48364SOL     OW57070   3.392   8.850   8.580 -0.1216 -0.0596 -0.6642
48364SOL    HW157071   3.340   8.929   8.565 -0.6241 -0.4209 -0.8571
48364SOL    HW257072   3.331   8.778   8.564  0.3610 -0.4876 -0.5960
48365SOL     OW57073   4.720   6.163   4.849  0.7112  0.1848 -0.0982
48365SOL    HW157074   4.692   6.241   4.801  0.1309  1.4127  2.0837
48365SOL    HW257075   4.814   6.157   4.833  0.7641  1.3415 -0.3091
48366SOL     OW57076  11.601  12.608   2.772  0.2188 -0.1986 -0.5032
48366SOL    HW157077  11.542  12.681   2.753  0.2059  0.0003  0.2878
48366SOL    HW257078  11.679  12.649   2.809  0.0926 -0.6075  0.2259
48367SOL     OW57079  10.160  11.777   2.806 -0.0785 -0.4795 -0.1048
48367SOL    HW157080  10.074  11.817   2.812  0.6013  1.0090  0.2021
48367SOL    HW257081  10.202  11.797   2.890 -0.4812 -3.8161  1.0126
48368SOL     OW57082   0.208   1.065   8.377 -0.2382 -0.0881 -0.1864
48368SOL    HW157083   0.161   0.998   8.428 -0.0567  0.0205  0.1246
48368SOL    HW257084   0.166   1.063   8.291  0.0716 -0.9364 -0.3331
48369SOL     OW57085   1.204   6.928   7.151 -0.2309  0.1377  0.0888
48369SOL    HW157086   1.179   6.839   7.128  1.7441 -0.6007  0.6357
48369SOL    HW257087   1.282   6.918   7.204  1.4163  2.2898 -1.7447
48370SOL     OW57088  13.145   4.253   7.163 -0.1890  0.3480 -0.3447
48370SOL    HW157089  13.051   4.262   7.147 -0.6799 -2.4985  0.3822
48370SOL    HW257090  13.180   4.225   7.078 -0.7461 -2.5980  0.3116
48371SOL     OW57091   0.153  12.800   2.278  0.2183 -0.0103  0.8476
48371SOL    HW157092   0.164  12.891   2.307 -0.9531  0.0221  1.2409
48371SOL    HW257093   0.240  12.762   2.285  0.5457  0.8342  1.5404
48372SOL     OW57094   4.423  12.966   7.141  0.0564 -0.2155  0.3978
48372SOL    HW157095   4.505  12.957   7.092 -1.0326 -1.2951 -1.3414
48372SOL    HW257096   4.380  13.042   7.102  0.1373  0.2236  1.1634
48373SOL     OW57097   0.530   6.849   2.879 -0.7629 -0.2828 -0.6410
48373SOL    HW157098   0.510   6.942   2.890 -0.7031 -0.0517 -2.2432
48373SOL    HW257099   0.577   6.824   2.959 -1.2022  0.9346  0.0123
48374SOL     OW57100   8.702   1.438  13.810 -0.5302 -0.1341 -0.0526
48374SOL    HW157101   8.672   1.370  13.749 -3.6779  0.1503  1.0129
48374SOL    HW257102   8.627   1.496  13.820  1.0400  1.7606  1.5126
48375SOL     OW57103  10.757   2.551   0.389 -0.3443 -0.1927  0.2962
48375SOL    HW157104  10.832   2.491   0.389 -0.9211 -0.9392  1.1518
48375SOL    HW257105  10.712   2.534   0.307  0.4536  0.3221 -0.2679
48376SOL     OW57106  11.889   6.055   2.692  0.1662  0.6699 -0.2690
48376SOL    HW157107  11.876   6.129   2.632 -0.9676  1.1121  0.4913
48376SOL    HW257108  11.935   6.093   2.767 -1.8427  1.0035  0.8486
48377SOL     OW57109   8.242  12.334   8.473  0.4350 -0.1249  0.1689
48377SOL    HW157110   8.324  12.285   8.468 -0.1074 -1.1559  0.8950
48377SOL    HW257111   8.265  12.414   8.520  1.3226  0.3004 -0.9645
48378SOL     OW57112   1.782   6.598  11.183 -0.1107  0.1736  0.4642
48378SOL    HW157113   1.721   6.539  11.139  0.0336 -0.2783  0.8606
48378SOL    HW257114   1.794   6.670  11.122  1.1889 -1.1040 -0.8909
48379SOL     OW57115  13.733   3.460  13.875 -0.0166 -0.4323  0.1246
48379SOL    HW157116  13.646   3.481  13.843  0.0383 -1.4279 -0.7188
48379SOL    HW257117  13.754   3.375  13.836  0.9016 -0.7137  1.1590
48380SOL     OW57118   7.488  10.421  13.308 -0.4215 -0.2727 -0.0639
48380SOL    HW157119   7.530  10.386  13.387 -0.0328 -0.4679 -0.3560
48380SOL    HW257120   7.487  10.347  13.247 -1.2762 -0.2987 -0.0330
48381SOL     OW57121   9.324  11.227   5.493 -0.1731  0.0559  0.2858
48381SOL    HW157122   9.372  11.299   5.451 -0.5219  0.3469  0.3767
48381SOL    HW257123   9.373  11.148   5.469 -1.1077  0.0424 -1.8107
48382SOL     OW57124  12.844  11.919   5.540 -0.3515  0.0661  0.1970
48382SOL    HW157125  12.816  11.953   5.625  1.0572 -0.9470  1.1102
48382SOL    HW257126  12.782  11.957   5.478 -3.9373 -2.1013  2.0593
48383SOL     OW57127  13.159  12.655  12.730 -0.4941 -0.4005 -0.1779
48383SOL    HW157128  13.221  12.642  12.801 -2.7044 -0.3065  1.9061
48383SOL    HW257129  13.074  12.631  12.767 -1.5413 -2.4479 -3.4699
48384SOL     OW57130  10.512  12.711  13.356 -0.2503  0.4701  1.1674
48384SOL    HW157131  10.420  12.707  13.331 -0.1971 -0.2347  1.0607
48384SOL    HW257132  10.544  12.621  13.344  0.1919  0.4802  2.1541
48385SOL     OW57133   5.618   5.041   4.904 -0.4064 -0.3684  0.0555
48385SOL    HW157134   5.615   4.947   4.923 -0.5039 -0.4572 -0.3969
48385SOL    HW257135   5.603   5.047   4.810  2.7186 -0.1173 -0.5412
48386SOL     OW57136   3.819   3.296  10.017  0.2595  0.3399  0.2264
48386SOL    HW157137   3.772   3.311   9.935 -0.6459  0.2166  0.7118
48386SOL    HW257138   3.880   3.225   9.997  1.7344  1.8712 -0.9752
48387SOL     OW57139  13.131   3.978   1.578 -0.0656  0.6137 -0.0684
48387SOL    HW157140  13.198   3.944   1.637 -1.1811 -1.7560 -0.0550
48387SOL    HW257141  13.163   3.956   1.491  0.3997  1.8914 -0.2428
48388SOL     OW57142   3.472   0.113  10.913 -0.6981  0.4143 -0.4274
48388SOL    HW157143   3.387   0.070  10.907  0.6293 -2.5377  0.3363
48388SOL    HW257144   3.458   0.185  10.974 -2.6319 -0.0240 -0.2940
48389SOL     OW57145   1.324  13.303   6.665 -0.2313 -0.0396 -0.4455
48389SOL    HW157146   1.338  13.311   6.571  0.1899  0.4427 -0.3438
48389SOL    HW257147   1.247  13.357   6.683  0.0835  0.4046 -0.4147
48390SOL     OW57148   0.365   1.777   8.487  0.4536  0.0116 -0.0206
48390SOL    HW157149   0.364   1.706   8.551 -0.7904  1.4831  1.6938
48390SOL    HW257150   0.319   1.742   8.411  0.3389 -1.1894  0.5856
48391SOL     OW57151   1.038   3.045   3.282 -0.5283 -0.3296 -0.7434
48391SOL    HW157152   0.990   2.991   3.219 -2.3471  1.6313 -1.1693
48391SOL    HW257153   1.003   3.019   3.367 -1.1281 -0.0955 -0.9136
48392SOL     OW57154  13.223  13.525   8.578 -0.1403 -0.4335  0.5625
48392SOL    HW157155  13.246  13.559   8.665 -1.7812 -0.5516  1.0800
48392SOL    HW257156  13.129  13.504   8.585  0.2257 -2.6860 -0.5012
48393SOL     OW57157  10.822   5.676   4.906  0.3584  0.0402  0.4816
48393SOL    HW157158  10.824   5.690   4.812  3.1533  0.1049  0.4891
48393SOL    HW257159  10.848   5.760   4.944 -1.7052  0.3241  1.4138
48394SOL     OW57160   9.077   1.932  12.559  0.1223 -0.4406 -0.3167
48394SOL    HW157161   9.101   1.968  12.645  0.2411 -0.4044 -0.3647
48394SOL    HW257162   9.135   1.857  12.548 -1.1574 -1.5925  0.4619
48395SOL     OW57163   8.380  10.354   2.784 -0.5033 -0.5191  0.1133
48395SOL    HW157164   8.311  10.312   2.733 -0.2726  1.1474 -1.6539
48395SOL    HW257165   8.347  10.442   2.802  0.0053 -0.6215  1.7218
48396SOL     OW57166   3.564   8.099   1.683 -0.1592 -0.1607 -0.1122
48396SOL    HW157167   3.599   8.128   1.599 -2.0749  0.1493 -0.8440
48396SOL    HW257168   3.627   8.132   1.747  0.9039  0.3105 -1.3506
48397SOL     OW57169   3.293   2.619  12.093 -0.5026 -0.5255 -0.2311
48397SOL    HW157170   3.295   2.660  12.006  0.1748  0.4430  0.2169
48397SOL    HW257171   3.370   2.654  12.137  0.1538 -2.4036  0.1568
48398SOL     OW57172   3.088  11.854   5.029  0.1962 -0.7294 -0.2471
48398SOL    HW157173   3.141  11.845   4.950  1.0673 -0.0913  0.2413
48398SOL    HW257174   3.149  11.887   5.095 -0.9076  0.5299  0.2028
48399SOL     OW57175   2.402   1.895  13.251 -0.2175 -0.2922 -0.6961
48399SOL    HW157176   2.431   1.964  13.311 -0.1621 -0.4169 -0.5787
48399SOL    HW257177   2.481   1.842  13.237 -0.1837 -0.1600 -1.0199
48400SOL     OW57178   2.482   1.681  12.571 -0.3093  0.3071  0.5387
48400SOL    HW157179   2.440   1.766  12.560  1.3354  1.1419  0.4471
48400SOL    HW257180   2.536   1.670  12.493  1.7023  0.5374  1.8072
48401SOL     OW57181   6.703   7.776   5.871  0.1979  0.0233 -0.0962
48401SOL    HW157182   6.656   7.713   5.926 -1.1303  1.1270  0.0835
48401SOL    HW257183   6.663   7.861   5.892  1.3759  0.8185 -0.9424
48402SOL     OW57184  13.957   3.420   0.854  0.0798  0.1980  0.8868
48402SOL    HW157185  13.950   3.472   0.775  0.7035 -0.8109  0.1322
48402SOL    HW257186  13.948   3.482   0.926 -0.7078  1.0944  0.0249
48403SOL     OW57187   1.350  13.497   3.572 -0.8432 -0.4210 -0.5822
48403SOL    HW157188   1.313  13.466   3.654  0.7352  0.6494  0.5828
48403SOL    HW257189   1.426  13.439   3.557  0.6012  1.1677  0.2819
48404SOL     OW57190  12.118  12.173   2.418 -0.7677 -0.2173  0.4887
48404SOL    HW157191  12.208  12.155   2.445 -0.4773 -0.9288 -0.8710
48404SOL    HW257192  12.085  12.089   2.386 -1.5098  0.3053 -0.1654
48405SOL     OW57193   4.984   5.333   3.556 -0.6497 -0.5147 -0.0554
48405SOL    HW157194   4.999   5.336   3.461 -1.3888 -0.5084 -0.1757
48405SOL    HW257195   5.071   5.315   3.593 -0.0330  1.1675 -0.6175
48406SOL     OW57196   1.454   8.487   3.977  0.3046  0.8423  0.9349
48406SOL    HW157197   1.422   8.422   4.040  0.2616 -0.4392 -0.3596
48406SOL    HW257198   1.378   8.541   3.958 -0.3978 -0.4081  0.0371
48407SOL     OW57199  11.586   6.558   0.595  0.2626  0.5597 -0.0343
48407SOL    HW157200  11.588   6.557   0.499 -1.0624  0.8216 -0.0863
48407SOL    HW257201  11.500   6.523   0.617  2.0132 -3.6552  1.2172
48408SOL     OW57202  12.420   6.504   1.883 -0.3330  0.0845 -0.1957
48408SOL    HW157203  12.431   6.475   1.973  0.2379  1.3637  0.1608
48408SOL    HW257204  12.327   6.490   1.865 -0.9069  1.6687  1.2837
48409SOL     OW57205   0.317   5.115   1.129 -0.2077 -0.1101 -0.1734
48409SOL    HW157206   0.335   5.045   1.192  1.6831  0.8554  0.4248
48409SOL    HW257207   0.223   5.108   1.112  0.1784 -3.9629 -1.5663
48410SOL     OW57208  11.819   8.949  14.040 -0.2194  0.3264 -0.0996
48410SOL    HW157209  11.756   8.877  14.052  0.5489 -0.2543  0.4865
48410SOL    HW257210  11.765   9.028  14.043 -1.2415 -0.2334 -1.8079
48411SOL     OW57211   9.926  11.067   5.047 -0.2495 -0.5799  0.5158
48411SOL    HW157212   9.895  11.083   4.958  1.0473  0.0657  0.1538
48411SOL    HW257213   9.940  10.973   5.051  1.3772 -0.4238 -0.5769
48412SOL     OW57214   2.507   2.965   3.049 -0.0589  0.1985 -0.6543
48412SOL    HW157215   2.600   2.985   3.052  0.4079 -1.8377  0.5777
48412SOL    HW257216   2.464   3.050   3.038  1.8828  1.2770 -0.3175
48413SOL     OW57217  10.337   8.842   6.239  0.1976 -0.0074 -0.2876
48413SOL    HW157218  10.325   8.783   6.165  0.2707  1.1667 -1.2764
48413SOL    HW257219  10.432   8.844   6.253  0.0711 -1.8123  1.2221
48414SOL     OW57220   5.374   6.744   2.507 -0.1053 -0.4072 -0.2062
48414SOL    HW157221   5.404   6.706   2.589 -1.3376  1.0184  0.9593
48414SOL    HW257222   5.349   6.834   2.529 -0.7300 -0.0660 -2.0847
48415SOL     OW57223   6.886  12.726  11.651 -0.0827 -0.3867 -0.0728
48415SOL    HW157224   6.923  12.641  11.625 -2.5503 -1.7482  0.5388
48415SOL    HW257225   6.819  12.704  11.716 -1.8763  1.8770 -1.0283
48416SOL     OW57226   8.916   1.561   4.796  0.1288  0.3245  0.2690
48416SOL    HW157227   8.950   1.641   4.835 -0.0916 -0.3060  1.8398
48416SOL    HW257228   8.993   1.520   4.755  0.5468  0.6031  0.7691
48417SOL     OW57229   6.611   0.928   9.533  0.4877  0.0239 -0.0094
48417SOL    HW157230   6.568   0.904   9.614 -0.0385 -0.1781 -0.3397
48417SOL    HW257231   6.664   0.852   9.510  0.0881 -0.2005 -0.2120
48418SOL     OW57232  12.613   2.441   3.864  0.6462  0.0719  0.3208
48418SOL    HW157233  12.607   2.439   3.959  0.6086 -0.8673  0.3097
48418SOL    HW257234  12.703   2.470   3.846  1.4872 -2.0478  0.7062
48419SOL     OW57235   4.151   0.641   8.611  0.6788  0.2112  0.0770
48419SOL    HW157236   4.163   0.697   8.534 -1.4816 -0.1844 -0.6061
48419SOL    HW257237   4.114   0.560   8.577  1.4219 -0.7061  1.3439
48420SOL     OW57238   1.193   6.938   0.512 -1.0560  0.1058 -0.0052
48420SOL    HW157239   1.116   6.995   0.508  0.3098  2.0385 -0.0907
48420SOL    HW257240   1.260   6.992   0.554  0.0384 -1.7945  0.7659
48421SOL     OW57241   8.024  13.035   3.839 -0.2669 -0.1183 -0.4781
48421SOL    HW157242   8.048  13.076   3.922  0.9350 -1.5839 -0.0624
48421SOL    HW257243   7.971  13.101   3.794  1.7496  1.9529  0.0345
48422SOL     OW57244   1.100   5.376  12.224 -0.4415 -0.3699  0.3962
48422SOL    HW157245   1.046   5.455  12.216 -1.0925 -0.9128 -0.7987
48422SOL    HW257246   1.067   5.333  12.303 -0.9995 -0.1303  0.2987
48423SOL     OW57247   2.214   9.743   9.856  0.0261  0.3845  0.0026
48423SOL    HW157248   2.260   9.674   9.905 -1.0025  0.2245  0.7783
48423SOL    HW257249   2.122   9.715   9.857 -0.7073  2.5247  1.7199
48424SOL     OW57250  12.516  10.734  12.842  0.7241  0.1352  0.3082
48424SOL    HW157251  12.459  10.810  12.833  0.8469  0.1715 -0.1957
48424SOL    HW257252  12.512  10.711  12.935  0.0682  0.2754  0.3188
48425SOL     OW57253   7.213   7.827   5.111 -0.6396  0.1336  0.5870
48425SOL    HW157254   7.119   7.840   5.096 -0.7211 -0.6709  0.3537
48425SOL    HW257255   7.218   7.778   5.193 -0.4005  0.5944  0.8491
48426SOL     OW57256   2.823   2.227   3.554 -0.2609 -0.2503  0.2722
48426SOL    HW157257   2.798   2.201   3.465 -0.5144 -1.3744  0.6546
48426SOL    HW257258   2.743   2.260   3.593 -0.3834 -0.6745  0.3904
48427SOL     OW57259   9.627   7.479  13.863  0.0361 -0.2636 -0.2126
48427SOL    HW157260   9.706   7.531  13.848 -0.5679  1.3371  1.8097
48427SOL    HW257261   9.651   7.419  13.934 -1.0422  1.5756  1.8177
48428SOL     OW57262  13.511   3.508  13.727 -0.5229  0.2674  0.8026
48428SOL    HW157263  13.509   3.486  13.634  0.8325 -0.9140  1.0209
48428SOL    HW257264  13.443   3.453  13.766 -2.8136  2.5142  0.2364
48429SOL     OW57265   0.542   4.103   4.768 -0.1173  0.6020  0.7163
48429SOL    HW157266   0.510   4.045   4.698  0.6632 -0.9827  1.6004
48429SOL    HW257267   0.463   4.130   4.814 -0.4033 -1.9577  1.8905
48430SOL     OW57268   2.688  10.175  10.486  0.5066 -0.0100 -0.0769
48430SOL    HW157269   2.734  10.122  10.420 -2.2241 -0.9530 -1.3586
48430SOL    HW257270   2.667  10.113  10.556  2.1964  0.7042  1.1445
48431SOL     OW57271   0.178  12.480   0.332  0.2879 -0.0068  0.5929
48431SOL    HW157272   0.141  12.436   0.409  0.4705 -2.2892 -0.5345
48431SOL    HW257273   0.249  12.534   0.367 -0.2490 -0.2411  2.1235
48432SOL     OW57274  10.804   0.916   3.475  0.2286  0.1943  0.1971
48432SOL    HW157275  10.728   0.863   3.499  0.2937  0.3510  0.7802
48432SOL    HW257276  10.792   0.935   3.382  0.7001 -1.6501 -0.2760
48433SOL     OW57277  12.226  13.899  12.702  0.2199  0.3468  0.2136
48433SOL    HW157278  12.258  13.811  12.723 -1.6751 -0.1059  1.4789
48433SOL    HW257279  12.222  13.900  12.606 -0.9479 -1.4655  0.1876
48434SOL     OW57280   2.613   9.525   3.572 -0.3702  1.2241  0.6756
48434SOL    HW157281   2.561   9.452   3.539 -0.3654  0.7170  1.7416
48434SOL    HW257282   2.622   9.584   3.497 -0.3837  0.1435 -0.1987
48435SOL     OW57283  12.227  10.352   8.213 -0.2149 -0.3284  0.4248
48435SOL    HW157284  12.161  10.286   8.231 -0.1371 -0.0998  1.6556
48435SOL    HW257285  12.204  10.425   8.270 -0.2882  0.7175 -0.9036
48436SOL     OW57286  12.625   1.741   6.117  0.3742  0.3441  0.4849
48436SOL    HW157287  12.670   1.691   6.184  0.9346 -0.5153 -0.5132
48436SOL    HW257288  12.568   1.801   6.166  0.9242 -0.1151  1.7142
48437SOL     OW57289   8.184   1.613   7.603  0.3161 -0.2055  0.0285
48437SOL    HW157290   8.180   1.653   7.690 -0.9092  0.2545 -0.2165
48437SOL    HW257291   8.139   1.529   7.614  2.3461 -1.3221  0.3950
48438SOL     OW57292   1.566   5.310  10.565  0.0272 -0.5716 -0.3500
48438SOL    HW157293   1.484   5.276  10.602  0.2120  0.4202  1.0257
48438SOL    HW257294   1.543   5.332  10.475 -1.1049 -0.7353 -0.1211
48439SOL     OW57295   1.827   7.313  13.053  0.9131  0.2135  0.6640
48439SOL    HW157296   1.836   7.389  13.110  2.7601 -0.3698  1.2243
48439SOL    HW257297   1.737   7.283  13.066  0.6131  1.4448  1.5210
48440SOL     OW57298   5.078   4.391  11.644  0.5875  0.3859  0.0513
48440SOL    HW157299   5.041   4.334  11.711  1.0515 -1.1650 -0.9533
48440SOL    HW257300   5.171   4.397  11.665  0.4897  1.0340  0.3217
48441SOL     OW57301   4.049   9.476   8.251 -0.3143  0.2373 -0.2696
48441SOL    HW157302   4.015   9.416   8.318  2.8681 -1.0000  0.4303
48441SOL    HW257303   4.056   9.422   8.173  1.5096 -0.0645  0.0618
48442SOL     OW57304   9.367   6.797  10.518  0.4337  0.3768  0.6046
48442SOL    HW157305   9.319   6.733  10.571  0.1461  1.1028  1.2482
48442SOL    HW257306   9.413   6.744  10.452 -2.1823 -0.2533 -0.8226
48443SOL     OW57307   1.472  13.153   6.331  0.6927  0.4268 -0.3699
48443SOL    HW157308   1.530  13.100   6.385  0.2418 -0.1322 -0.4326
48443SOL    HW257309   1.449  13.097   6.257 -0.7823  0.2391  0.1947
48444SOL     OW57310   3.006   5.501   7.731 -0.0916  0.1728 -0.0408
48444SOL    HW157311   3.043   5.569   7.675  0.8048 -1.8030 -1.9984
48444SOL    HW257312   2.930   5.469   7.683 -1.8562  1.2179  1.9053
48445SOL     OW57313   4.762   0.422  10.901 -0.1948 -0.2841 -0.3812
48445SOL    HW157314   4.822   0.367  10.951  0.7279  0.2584 -0.8624
48445SOL    HW257315   4.704   0.461  10.966  0.2168 -0.5267  0.1325
48446SOL     OW57316  13.305   1.752   0.179 -0.7391 -0.1084  0.8387
48446SOL    HW157317  13.341   1.685   0.121  1.2601  0.4766  1.3475
48446SOL    HW257318  13.336   1.727   0.266 -0.0941  1.3608  1.0563
48447SOL     OW57319  11.943   1.226   9.060  0.1081 -0.4183  0.2545
48447SOL    HW157320  11.852   1.229   9.091 -0.1745 -1.1220 -0.4558
48447SOL    HW257321  11.995   1.205   9.137 -0.5664 -2.0806  0.2866
48448SOL     OW57322  10.988  11.374   1.883  0.2391  0.7091 -0.3783
48448SOL    HW157323  11.031  11.439   1.938  0.6285  1.0583 -1.0838
48448SOL    HW257324  11.043  11.368   1.805  0.1943 -0.4599 -0.3323
48449SOL     OW57325   2.431   8.744   8.680  0.6235  0.0405 -0.1061
48449SOL    HW157326   2.456   8.768   8.591  0.6617 -1.0901 -0.4138
48449SOL    HW257327   2.489   8.671   8.703 -0.4819 -0.7609  0.2231
48450SOL     OW57328   4.691   4.585   4.393  0.3563 -0.6683 -0.4539
48450SOL    HW157329   4.718   4.578   4.302 -1.5424  0.0272 -1.1026
48450SOL    HW257330   4.707   4.498   4.430  0.8069 -1.0488 -1.5211
48451SOL     OW57331   7.150  13.396   5.737 -0.0192 -0.2053  0.7113
48451SOL    HW157332   7.083  13.461   5.756 -0.6203 -0.0734 -1.6600
48451SOL    HW257333   7.225  13.422   5.792 -0.4013  2.2009  0.1745
48452SOL     OW57334   1.004   4.444   3.961 -0.1995  0.2015  0.0283
48452SOL    HW157335   0.981   4.496   4.038  0.7457 -0.2012  0.6027
48452SOL    HW257336   0.986   4.502   3.887  0.0524  1.0557  0.6121
48453SOL     OW57337   4.025   5.345   0.497 -0.7223 -0.0680 -0.2665
48453SOL    HW157338   4.115   5.346   0.463  0.0326  0.1865  1.5943
48453SOL    HW257339   3.990   5.431   0.474 -0.8293 -0.4799 -1.7593
48454SOL     OW57340   2.781  13.363  11.466  0.0131  0.1902  0.6908
48454SOL    HW157341   2.819  13.351  11.553 -0.1557 -1.0879  0.5962
48454SOL    HW257342   2.761  13.457  11.462  0.8736  0.4403  1.6699
48455SOL     OW57343  11.686  10.690  10.078  0.1098  0.1277  0.0610
48455SOL    HW157344  11.721  10.712   9.992  1.2230 -0.4909  0.3338
48455SOL    HW257345  11.637  10.609  10.064  1.4864 -0.7656  0.2494
48456SOL     OW57346   5.464   2.246   6.851  0.2533 -0.3307 -0.1538
48456SOL    HW157347   5.516   2.309   6.901 -0.5703  0.4302 -0.2375
48456SOL    HW257348   5.375   2.281   6.853  0.1893 -0.2886 -2.1401
48457SOL     OW57349   4.464  12.245  12.370 -0.2468  0.2062 -0.7124
48457SOL    HW157350   4.425  12.161  12.395 -0.1647  0.2235 -0.5222
48457SOL    HW257351   4.390  12.300  12.345 -0.2298 -0.2350 -1.7973
48458SOL     OW57352   4.755   0.730   4.916  0.1079  0.3100 -0.2205
48458SOL    HW157353   4.739   0.659   4.853 -0.0426 -0.5845  0.8111
48458SOL    HW257354   4.851   0.736   4.920  0.1245 -0.0406 -0.0777
48459SOL     OW57355   1.163  13.723   6.742  0.0677 -0.5538  0.3976
48459SOL    HW157356   1.189  13.666   6.814 -0.1161 -2.8006 -1.2005
48459SOL    HW257357   1.166  13.667   6.665  0.0118  1.6704 -1.3425
48460SOL     OW57358   1.935   3.600   7.713 -0.0108 -0.1461  0.0697
48460SOL    HW157359   1.973   3.630   7.796 -1.2449  0.1134  0.5504
48460SOL    HW257360   2.007   3.552   7.671  1.1225  1.0342  0.5669
48461SOL     OW57361   0.672   4.315   1.864 -0.1924 -0.2814 -0.5437
48461SOL    HW157362   0.607   4.304   1.795 -0.4924  1.7817 -0.6527
48461SOL    HW257363   0.622   4.342   1.941  0.4859  1.6643 -0.7185
48462SOL     OW57364  11.406   8.320   2.054  0.0387 -0.6102  0.5815
48462SOL    HW157365  11.326   8.276   2.025  0.2205 -1.0653  0.7517
48462SOL    HW257366  11.376   8.384   2.118 -0.5769  1.6560 -1.7986
48463SOL     OW57367   0.857   7.890  11.507 -0.1760 -0.4066  0.2998
48463SOL    HW157368   0.872   7.915  11.598 -0.7335 -0.7830  0.5022
48463SOL    HW257369   0.876   7.796  11.505  0.5947 -0.2496 -0.1495
48464SOL     OW57370  13.363   8.502   0.520  0.0778 -0.5502 -0.0758
48464SOL    HW157371  13.421   8.426   0.523 -0.4555 -1.2141 -3.1118
48464SOL    HW257372  13.393   8.552   0.444 -1.6534  0.5116 -0.1183
48465SOL     OW57373   5.666   0.796  11.952 -0.0929  0.0950  0.7075
48465SOL    HW157374   5.626   0.882  11.964  1.6034  0.7825  1.9302
48465SOL    HW257375   5.637   0.746  12.029  1.5852  0.7251  1.8127
48466SOL     OW57376   9.449  12.148   1.872 -0.7411 -0.3875  0.4522
48466SOL    HW157377   9.412  12.209   1.808  0.8025  0.5674  0.4342
48466SOL    HW257378   9.534  12.185   1.894  0.5029 -2.8123  0.0497
48467SOL     OW57379  13.631   5.903   9.906 -0.0117  0.4470 -0.6281
48467SOL    HW157380  13.680   5.860   9.976  0.6970  0.3262 -1.1925
48467SOL    HW257381  13.573   5.835   9.872 -2.2835  1.1525  1.5289
48468SOL     OW57382   8.256   1.523   5.197 -0.7415 -0.0435  0.1822
48468SOL    HW157383   8.213   1.584   5.257 -1.3042 -0.1364 -0.1137
48468SOL    HW257384   8.246   1.563   5.111 -0.4718 -0.2005  0.0779
48469SOL     OW57385   5.889   2.480   9.411  0.3191 -0.6654 -0.5078
48469SOL    HW157386   5.868   2.569   9.441 -0.2767 -1.3032  1.0571
48469SOL    HW257387   5.818   2.426   9.446 -0.5115 -1.4758 -3.2524
48470SOL     OW57388   9.158   2.451   7.431  0.1008  0.5568  0.4984
48470SOL    HW157389   9.115   2.529   7.468  0.1930  0.9061 -0.1173
48470SOL    HW257390   9.199   2.409   7.507 -1.7439 -0.0746  1.1877
48471SOL     OW57391  11.434   9.680   2.623  0.6180  0.5352  0.0058
48471SOL    HW157392  11.525   9.697   2.598  0.8198  0.1557  0.4457
48471SOL    HW257393  11.384   9.749   2.581  1.2533  1.4869  0.7416
48472SOL     OW57394  13.955   9.261   4.630 -0.2761  0.0186  0.0147
48472SOL    HW157395  13.955   9.349   4.666 -2.1050  0.0443  0.0575
48472SOL    HW257396  13.994   9.270   4.543 -0.1445  0.7990  0.1525
48473SOL     OW57397   7.474  14.044   6.642  0.7677 -0.1594 -0.0939
48473SOL    HW157398   7.536  14.072   6.575  0.9638  2.2110  0.9880
48473SOL    HW257399   7.522  14.049   6.724 -0.1332 -0.7812  0.4968
48474SOL     OW57400   6.385   8.232   9.145  0.1687 -0.5777 -0.1279
48474SOL    HW157401   6.302   8.276   9.159 -0.4210 -1.7925  0.3821
48474SOL    HW257402   6.368   8.171   9.073  0.1136 -1.9754  1.0034
48475SOL     OW57403   1.708   7.058   9.451  0.2943  0.0184  0.3428
48475SOL    HW157404   1.740   7.139   9.411  1.4308 -0.0321  1.1339
48475SOL    HW257405   1.635   7.086   9.506 -1.4565  0.0662 -1.8472
48476SOL     OW57406  11.160   9.794   9.448  0.3565 -0.0884 -0.8463
48476SOL    HW157407  11.125   9.778   9.361  1.0674 -0.1019 -1.1381
48476SOL    HW257408  11.255   9.799   9.435  0.6731 -2.1513  0.1933
48477SOL     OW57409   6.142  13.205   4.825  0.0688  0.0194 -0.5508
48477SOL    HW157410   6.163  13.126   4.774 -0.0213 -0.6704  0.4524
48477SOL    HW257411   6.216  13.216   4.884 -1.0579 -0.8155  1.0779
48478SOL     OW57412   2.770  14.006   0.882  0.5871 -0.5687 -0.0182
48478SOL    HW157413   2.830  14.012   0.808 -1.8478  0.1969 -2.0756
48478SOL    HW257414   2.756  13.912   0.894  0.2197 -0.6968 -1.2738
48479SOL     OW57415   2.899  12.962   3.273 -0.1693  0.5796  0.1263
48479SOL    HW157416   2.993  12.966   3.284 -0.3384  0.5488  1.8351
48479SOL    HW257417   2.869  13.053   3.280 -0.4810  0.3629  2.1817
48480SOL     OW57418   5.248  12.803   6.781 -0.5374 -0.2193  0.6824
48480SOL    HW157419   5.273  12.894   6.800  2.3155 -0.7455 -0.1134
48480SOL    HW257420   5.262  12.756   6.863  1.6017 -0.5562  0.1832
48481SOL     OW57421   2.888  12.795  13.286  0.2015 -0.4099  0.0056
48481SOL    HW157422   2.863  12.719  13.233  1.6933 -0.2163 -1.0453
48481SOL    HW257423   2.967  12.767  13.333  2.9577  1.4464 -3.0679
48482SOL     OW57424  13.378   9.923   7.275 -0.1944 -0.3244  0.0638
48482SOL    HW157425  13.336   9.838   7.288 -2.1910  0.5146 -0.6574
48482SOL    HW257426  13.397   9.926   7.181  1.4707 -0.6382  0.3507
48483SOL     OW57427   0.065  13.356   0.888  0.1338 -0.1885 -0.3507
48483SOL    HW157428   0.104  13.325   0.970  1.5061  0.0153 -0.9017
48483SOL    HW257429   0.002  13.423   0.916 -1.6313 -2.1706  0.7359
48484SOL     OW57430  11.734  13.302   7.885  0.2861 -0.5750 -0.2058
48484SOL    HW157431  11.744  13.307   7.980 -0.0797  2.8298 -0.2189
48484SOL    HW257432  11.642  13.321   7.869 -0.1315 -3.0212 -1.2629
48485SOL     OW57433   1.238  12.146   6.582 -0.2146 -0.2026  0.0812
48485SOL    HW157434   1.143  12.154   6.577 -0.1310  0.0564 -2.8525
48485SOL    HW257435   1.254  12.063   6.626 -1.7508 -0.0132  1.0610
48486SOL     OW57436   9.373  13.115   8.236 -0.2350 -0.4785 -0.1910
48486SOL    HW157437   9.287  13.072   8.233 -0.6614  0.2491  0.9974
48486SOL    HW257438   9.389  13.131   8.329  0.6512  0.4703 -0.4869
48487SOL     OW57439   0.291   7.743   9.207 -0.5681 -0.3594  0.0591
48487SOL    HW157440   0.291   7.828   9.251 -0.4170  0.0532 -0.7305
48487SOL    HW257441   0.306   7.680   9.278 -2.7436  0.0784  0.9961
48488SOL     OW57442   8.137   1.175  12.723  0.1953  0.2903 -0.5505
48488SOL    HW157443   8.191   1.254  12.725  1.3775 -0.4732 -1.1879
48488SOL    HW257444   8.167   1.124  12.798  2.4261 -1.3967 -2.4397
48489SOL     OW57445   1.769   1.784   9.945 -0.3805 -0.6190 -0.3911
48489SOL    HW157446   1.742   1.758   9.857 -2.2434  2.1181 -0.7531
48489SOL    HW257447   1.690   1.773   9.999  0.1276 -0.2510  0.4506
48490SOL     OW57448  12.275   3.754   8.673  0.6342 -0.1500  0.5940
48490SOL    HW157449  12.270   3.808   8.594 -0.7240 -0.1324  0.6742
48490SOL    HW257450  12.201   3.694   8.666 -0.2719  0.6635  2.4260
48491SOL     OW57451   9.165   0.734   8.257  0.3568 -0.2237  0.1532
48491SOL    HW157452   9.174   0.688   8.173  0.3194  0.3135 -0.1488
48491SOL    HW257453   9.079   0.776   8.252 -0.6677 -2.0120  1.3773
48492SOL     OW57454   3.227  11.444   2.085 -0.3941 -0.0836 -0.6545
48492SOL    HW157455   3.306  11.478   2.125 -1.1557  0.2700  0.5953
48492SOL    HW257456   3.246  11.351   2.070 -0.3600 -0.4429  1.3287
48493SOL     OW57457   9.814   2.654   8.114 -0.7045  0.7413 -0.0814
48493SOL    HW157458   9.821   2.565   8.148  0.2960  0.3619 -1.2313
48493SOL    HW257459   9.894   2.697   8.143 -0.3903  0.7569 -0.9603
48494SOL     OW57460  13.454   8.114   6.540 -0.4490  0.2700 -0.4848
48494SOL    HW157461  13.504   8.189   6.509 -1.3272  1.8703  1.7318
48494SOL    HW257462  13.496   8.090   6.623 -0.8826 -0.9941 -0.6090
48495SOL     OW57463  11.209   1.129   6.517  0.0155 -0.3592  0.3125
48495SOL    HW157464  11.271   1.146   6.589  0.0396 -0.0324  0.2135
48495SOL    HW257465  11.129   1.174   6.543  0.5654  1.2655 -0.6879
48496SOL     OW57466   1.772   2.552   6.467  0.1673  0.0822 -0.4841
48496SOL    HW157467   1.728   2.467   6.469  2.7918 -1.4429 -1.8529
48496SOL    HW257468   1.834   2.549   6.540  0.6480  0.5853 -0.8649
48497SOL     OW57469   2.340   3.746  12.223 -0.0396  0.0341  0.2109
48497SOL    HW157470   2.349   3.651  12.231 -2.0805 -0.1952  0.2361
48497SOL    HW257471   2.350   3.762  12.129 -2.2859 -0.5933 -0.2047
48498SOL     OW57472   6.378   2.797   7.336  0.1433 -0.0300 -0.8228
48498SOL    HW157473   6.437   2.733   7.296  0.9581  0.4805 -0.4657
48498SOL    HW257474   6.305   2.744   7.369  1.3579 -0.9711  0.5264
48499SOL     OW57475   8.429  12.244   6.591 -0.0173 -0.1961 -0.1306
48499SOL    HW157476   8.496  12.242   6.659  0.3193 -0.1178 -0.4504
48499SOL    HW257477   8.361  12.185   6.621 -1.0102  1.6234  1.4270
48500SOL     OW57478   4.402   0.379  13.610 -0.7323  0.4157  0.0712
48500SOL    HW157479   4.457   0.415  13.540  0.0919  0.4358  0.7134
48500SOL    HW257480   4.341   0.321  13.565  2.0354 -2.3956 -0.4089
48501SOL     OW57481   6.608   9.565   0.690  0.4145  0.5501 -0.1569
48501SOL    HW157482   6.599   9.644   0.637 -0.2748  0.5348 -0.0803
48501SOL    HW257483   6.590   9.494   0.629  2.0333  0.3706 -0.4679
48502SOL     OW57484  11.571  10.410  10.460 -0.3837  0.1267 -0.2493
48502SOL    HW157485  11.542  10.339  10.403  0.4373  0.1214 -0.6764
48502SOL    HW257486  11.658  10.434  10.427  1.0257 -1.2035  2.1495
48503SOL     OW57487   5.789   8.055   0.364  0.0164  0.3811  0.2408
48503SOL    HW157488   5.833   8.103   0.294  1.6693 -0.1052  0.8805
48503SOL    HW257489   5.767   8.122   0.429 -2.4180  0.9886 -1.0897
48504SOL     OW57490  12.408   0.939   8.958  0.6015 -0.6993  0.2677
48504SOL    HW157491  12.406   0.924   8.864  0.2083  1.1558 -0.0731
48504SOL    HW257492  12.347   0.875   8.994 -1.8016  0.6363 -1.1298
48505SOL     OW57493   7.779   1.750   2.714  0.3158  0.2401 -0.0672
48505SOL    HW157494   7.779   1.664   2.757 -0.4827  0.8100  1.1274
48505SOL    HW257495   7.687   1.768   2.698  0.5273  0.6010 -0.9058
48506SOL     OW57496  13.545  12.419   3.461 -1.0049  0.0084 -0.1635
48506SOL    HW157497  13.543  12.329   3.492 -1.9826 -0.2977 -1.0622
48506SOL    HW257498  13.486  12.466   3.520  0.0963  0.2493  0.7885
48507SOL     OW57499   3.406   2.468   0.346 -0.3291  0.5639 -0.3626
48507SOL    HW157500   3.416   2.522   0.425  0.2153  0.7376 -0.5493
48507SOL    HW257501   3.312   2.471   0.328 -0.4993  0.3288  0.4142
48508SOL     OW57502  11.824  13.626   4.257  0.2313  0.2899 -0.2688
48508SOL    HW157503  11.778  13.710   4.251 -1.6946 -0.7858 -3.8967
48508SOL    HW257504  11.771  13.575   4.319 -1.1455  0.4485 -1.2534
48509SOL     OW57505  12.548  13.090   9.035  0.2082 -0.0308 -0.9158
48509SOL    HW157506  12.607  13.066   8.964 -0.3491 -0.0022 -1.3959
48509SOL    HW257507  12.469  13.121   8.991 -0.4092 -0.6663 -0.2853
48510SOL     OW57508   1.515   0.677   0.021  0.2703 -0.5096 -0.0916
48510SOL    HW157509   1.422   0.655   0.022  0.0863  0.1618 -1.0359
48510SOL    HW257510   1.559   0.598  -0.009  0.1073 -1.1275  1.2352
48511SOL     OW57511  10.336   1.111  10.608  0.4135  0.2850  0.0855
48511SOL    HW157512  10.256   1.128  10.658 -0.9821 -0.6989 -1.6966
48511SOL    HW257513  10.389   1.190  10.622 -0.7451  0.8730  1.4883
48512SOL     OW57514   2.613   0.893   1.348 -0.5071  0.4139  0.0859
48512SOL    HW157515   2.709   0.895   1.344 -0.4194  2.1451  1.8232
48512SOL    HW257516   2.587   0.861   1.262  1.6280 -0.3922 -0.3329
48513SOL     OW57517   7.230   6.442  11.739 -0.7181 -0.7234 -0.4856
48513SOL    HW157518   7.305   6.501  11.725 -1.3715  0.3246  0.2468
48513SOL    HW257519   7.260   6.357  11.706  0.8832 -0.3939  0.0036
48514SOL     OW57520   7.129  11.372  10.414  0.2678  0.0703 -0.2299
48514SOL    HW157521   7.093  11.311  10.350 -0.0135  0.5452 -0.5278
48514SOL    HW257522   7.190  11.427  10.364 -0.9042  1.2775 -0.3741
48515SOL     OW57523   7.774   0.570   6.719 -0.1753 -0.3209 -0.7729
48515SOL    HW157524   7.832   0.541   6.790 -1.4815 -0.0428  0.4616
48515SOL    HW257525   7.770   0.665   6.729  0.3183 -0.1830 -1.7931
48516SOL     OW57526  11.556   3.490  10.968 -0.3987 -0.2275  0.0994
48516SOL    HW157527  11.587   3.491  11.058  0.8379  2.5789 -0.2688
48516SOL    HW257528  11.539   3.581  10.946 -0.9702 -0.8493 -2.4281
48517SOL     OW57529   5.990  12.026   5.131  0.6978  0.0505 -0.4075
48517SOL    HW157530   5.897  12.028   5.110  0.7554  0.2294 -0.6626
48517SOL    HW257531   6.032  12.067   5.055  1.0332 -0.5472 -0.5546
48518SOL     OW57532   9.550   5.001   1.508 -0.2564  0.2229 -0.0110
48518SOL    HW157533   9.480   5.035   1.453  0.0611  0.6515 -0.1538
48518SOL    HW257534   9.617   5.069   1.507  0.4776 -0.4848 -0.4641
48519SOL     OW57535   1.230   6.888  13.554 -0.7411  0.2684 -0.1675
48519SOL    HW157536   1.228   6.825  13.626  0.9230  0.1270 -0.1929
48519SOL    HW257537   1.195   6.840  13.479 -0.9418 -0.1231  0.1775
48520SOL     OW57538   5.671  10.709  11.785  0.5570 -0.2415  0.4365
48520SOL    HW157539   5.644  10.657  11.860 -2.0547  1.7578  1.0109
48520SOL    HW257540   5.637  10.662  11.709 -3.3614  1.2770  1.0427
48521SOL     OW57541   8.531   0.982  10.661 -0.3187  0.6064 -0.0036
48521SOL    HW157542   8.584   0.981  10.581 -0.3944 -1.5743 -0.0922
48521SOL    HW257543   8.534   0.892  10.692  0.5891  1.5866  3.0656
48522SOL     OW57544   8.517  11.892   8.528 -0.3207 -0.0698  0.4388
48522SOL    HW157545   8.501  11.877   8.621 -2.1235 -1.4719 -0.0370
48522SOL    HW257546   8.576  11.821   8.502 -0.1104  0.1074  0.4273
48523SOL     OW57547   2.524   3.008  12.401  0.2304  0.4050  0.0614
48523SOL    HW157548   2.462   2.976  12.468 -0.5733 -0.3740 -1.0107
48523SOL    HW257549   2.495   3.097  12.382  0.8349  0.8538  1.1623
48524SOL     OW57550   2.868   5.688   4.033  0.7590 -0.3909 -0.1002
48524SOL    HW157551   2.825   5.732   4.107  1.0517 -0.6961  0.2593
48524SOL    HW257552   2.808   5.698   3.960  0.8416  0.6475 -0.0358
48525SOL     OW57553   7.400  10.446   1.471  0.3193  0.7032 -0.1309
48525SOL    HW157554   7.344  10.370   1.487  2.9857 -1.2762  0.5963
48525SOL    HW257555   7.433  10.433   1.383 -0.3647  1.9008 -0.5889
48526SOL     OW57556   0.245   7.685   8.145 -0.5961  0.6164 -0.2318
48526SOL    HW157557   0.244   7.594   8.176 -0.3931  0.5976 -0.2737
48526SOL    HW257558   0.309   7.684   8.073  0.9857  1.2101  1.0889
48527SOL     OW57559  10.922   6.585  10.082 -0.4519 -0.0225  0.5150
48527SOL    HW157560  10.973   6.577  10.001 -1.0757 -0.2520  0.1320
48527SOL    HW257561  10.987   6.580  10.152  0.2003  1.0593  0.0127
48528SOL     OW57562   5.075   3.200   9.668  0.7891 -0.2586  0.2033
48528SOL    HW157563   5.088   3.194   9.573  2.1811 -0.2131  0.3731
48528SOL    HW257564   5.136   3.135   9.705 -0.3834 -0.9187  1.0361
48529SOL     OW57565   6.424   2.303   5.589 -0.1205  0.0562  0.1822
48529SOL    HW157566   6.355   2.275   5.650 -0.0200  0.0987  0.3149
48529SOL    HW257567   6.400   2.262   5.506  0.8998 -1.7665  0.7441
48530SOL     OW57568   6.388   7.918   4.358  0.0812  0.4206 -0.6840
48530SOL    HW157569   6.303   7.937   4.319 -1.3900 -1.9825  1.0644
48530SOL    HW257570   6.369   7.900   4.450  2.6030  0.4336 -0.0892
48531SOL     OW57571   8.826  12.769  13.873 -0.3477  0.3160 -0.5222
48531SOL    HW157572   8.903  12.813  13.838  0.8042 -1.0891  0.1233
48531SOL    HW257573   8.769  12.756  13.797  0.7387  0.0300 -1.3137
48532SOL     OW57574   9.268   0.129  13.903 -0.3904 -0.5324  0.1591
48532SOL    HW157575   9.266   0.094  13.814  0.9197 -0.5752  0.1139
48532SOL    HW257576   9.339   0.193  13.901  1.0761 -2.0108  1.6674
48533SOL     OW57577  11.212   1.846   6.228 -0.0563  0.2431 -0.0714
48533SOL    HW157578  11.206   1.919   6.166  0.9163  0.1600 -0.2791
48533SOL    HW257579  11.305   1.826   6.233 -0.2303 -0.4699  0.5963
48534SOL     OW57580   0.737   3.580   4.458  0.1276 -0.0621 -0.2527
48534SOL    HW157581   0.775   3.650   4.404 -1.6096  0.1992 -1.1799
48534SOL    HW257582   0.781   3.501   4.429 -1.6996 -0.1580 -3.1252
48535SOL     OW57583  13.738  11.000  10.392  0.2746 -0.1709  0.2402
48535SOL    HW157584  13.817  11.052  10.408  0.5881 -0.4981 -0.2046
48535SOL    HW257585  13.713  11.023  10.302 -0.2582  0.0871  0.4506
48536SOL     OW57586   3.051   4.649  12.281 -0.2660 -0.4901  0.5222
48536SOL    HW157587   3.016   4.738  12.285  0.0371 -0.3698  0.5570
48536SOL    HW257588   3.014   4.605  12.357  1.2513  0.2289  1.7487
48537SOL     OW57589   7.812   1.039   3.013  0.4859  0.8470 -0.0761
48537SOL    HW157590   7.717   1.047   3.001  0.1425  0.8532  2.1098
48537SOL    HW257591   7.825   0.946   3.033  1.3914  0.2024 -3.1507
48538SOL     OW57592   8.857   9.507   4.701 -0.1777  0.5278  0.0918
48538SOL    HW157593   8.764   9.528   4.695 -0.4579 -0.6016  0.2041
48538SOL    HW257594   8.862   9.413   4.681  0.6605  0.0926  2.0786
48539SOL     OW57595   4.130   6.267  11.541  0.3980 -0.1130  0.1632
48539SOL    HW157596   4.053   6.317  11.569 -0.1734  0.1443 -1.6913
48539SOL    HW257597   4.156   6.308  11.459  1.2979 -1.4522 -0.2560
48540SOL     OW57598   5.062  12.115  11.838  0.1015  0.2424 -0.0190
48540SOL    HW157599   5.118  12.132  11.763  0.8293 -3.0942 -0.4100
48540SOL    HW257600   5.119  12.074  11.903 -1.1352  0.2035  1.1103
48541SOL     OW57601   9.924   3.601   1.304 -0.4403  0.9349  0.2500
48541SOL    HW157602   9.893   3.546   1.377  0.1790  0.8664  0.4616
48541SOL    HW257603   9.983   3.664   1.345  1.9218 -0.6679 -0.5130
48542SOL     OW57604  12.573   2.230   6.959 -0.1388 -0.4793 -0.1692
48542SOL    HW157605  12.515   2.268   7.024 -0.1043 -0.2343 -0.2807
48542SOL    HW257606  12.651   2.284   6.961 -0.2751 -0.2561 -0.6584
48543SOL     OW57607  11.223  13.421   3.956  0.1802  0.5258 -0.3341
48543SOL    HW157608  11.231  13.516   3.951 -0.6081  0.5537 -1.2173
48543SOL    HW257609  11.241  13.390   3.868  1.8190 -0.2871  0.2350
48544SOL     OW57610   9.390  10.143  13.261 -0.9767  0.3138  0.2740
48544SOL    HW157611   9.462  10.082  13.244 -0.5750  1.2472 -1.6454
48544SOL    HW257612   9.329  10.093  13.316 -0.6248 -1.7826 -1.1338
48545SOL     OW57613  12.329   0.250   1.073  0.1777 -0.3440 -0.0522
48545SOL    HW157614  12.379   0.169   1.076 -0.2851 -0.5991  1.2417
48545SOL    HW257615  12.303   0.266   1.164  0.2731  1.2623 -0.2736
48546SOL     OW57616   8.478  12.893   2.027  0.0061  0.1484  0.1878
48546SOL    HW157617   8.530  12.973   2.019  0.7115 -0.3432 -0.3084
48546SOL    HW257618   8.540  12.822   2.009 -1.1273 -0.4029 -1.9113
48547SOL     OW57619   2.926   9.747   8.125  0.2375 -0.4506  0.1634
48547SOL    HW157620   2.969   9.663   8.106 -1.8366 -1.2122 -1.5315
48547SOL    HW257621   2.946   9.802   8.049  0.8861  0.3530  0.8858
48548SOL     OW57622   8.997   9.000   4.439  0.4581 -0.4425  0.1234
48548SOL    HW157623   8.934   8.937   4.475  0.6838 -0.5430  0.3406
48548SOL    HW257624   9.027   9.050   4.515  0.8915 -0.6140  0.0679
48549SOL     OW57625   1.628   7.740   8.451  0.1074  0.3007  0.0109
48549SOL    HW157626   1.571   7.786   8.390  1.6629  0.5283 -1.3188
48549SOL    HW257627   1.676   7.678   8.397  2.8696  1.7681  0.6204
48550SOL     OW57628   2.519   1.059  13.915  0.0861  0.1542  0.2781
48550SOL    HW157629   2.559   0.973  13.929  0.7408  0.5086  0.6484
48550SOL    HW257630   2.577   1.102  13.852 -0.0748  0.4373  0.3239
48551SOL     OW57631   5.862   8.881   8.875  0.2816  0.2987 -0.1072
48551SOL    HW157632   5.842   8.789   8.856 -0.2556  0.4191 -0.1380
48551SOL    HW257633   5.782   8.914   8.917  0.0134  1.0655 -1.1834
48552SOL     OW57634  11.206   5.026   5.058  0.1071 -0.5331  0.3722
48552SOL    HW157635  11.155   5.006   4.979  0.0047  2.7837 -0.5922
48552SOL    HW257636  11.144   5.071   5.116  0.8550 -0.4074  1.0962
48553SOL     OW57637  13.259   4.369  11.120  0.3658 -0.5205  0.0661
48553SOL    HW157638  13.281   4.447  11.069 -0.9492 -1.0076 -1.3302
48553SOL    HW257639  13.165   4.376  11.135  0.6929 -0.4317  2.4514
48554SOL     OW57640   6.078  11.101   5.447 -0.1422  0.3378 -0.0298
48554SOL    HW157641   6.114  11.068   5.529  0.1554 -0.4367 -0.4746
48554SOL    HW257642   5.998  11.147   5.474  0.4392  0.9124  0.7972
48555SOL     OW57643   2.715   8.073   0.321  0.9640 -0.3929 -0.2136
48555SOL    HW157644   2.668   8.156   0.316 -1.7303 -1.8444 -1.0083
48555SOL    HW257645   2.720   8.042   0.231  1.3590 -1.3788  0.1236
48556SOL     OW57646   0.640   2.575   3.941 -0.2481 -0.5314 -0.1429
48556SOL    HW157647   0.694   2.503   3.974 -1.0529 -1.1488 -0.1360
48556SOL    HW257648   0.563   2.532   3.903  0.0188  0.2308 -1.6257
48557SOL     OW57649   4.442   2.550   4.401  0.2239  1.0101 -0.3924
48557SOL    HW157650   4.380   2.581   4.468 -1.8661 -0.1441 -1.6667
48557SOL    HW257651   4.444   2.455   4.414  2.3118  1.0757  0.0247
48558SOL     OW57652  13.386   5.907  11.637 -0.1521 -0.3971  0.3261
48558SOL    HW157653  13.416   5.987  11.680 -0.9486  0.7691 -1.1997
48558SOL    HW257654  13.466   5.858  11.618  0.4503  0.6148  0.1991
48559SOL     OW57655  13.735   1.551   2.554 -0.3705  0.0635  0.7583
48559SOL    HW157656  13.662   1.579   2.609  0.0006 -0.2623  1.4315
48559SOL    HW257657  13.810   1.600   2.588 -0.2660  0.3794  0.0896
48560SOL     OW57658  12.317   4.579  13.340 -0.1180 -0.0960  0.3121
48560SOL    HW157659  12.394   4.569  13.285 -0.3122 -0.2656  0.0662
48560SOL    HW257660  12.326   4.511  13.407  0.6233  0.7462  1.1096
48561SOL     OW57661  11.851   8.275   6.625  0.3800  0.3765 -0.7020
48561SOL    HW157662  11.938   8.257   6.660 -0.7253 -0.9806  1.5728
48561SOL    HW257663  11.803   8.314   6.699 -0.8139  1.6058 -2.0562
48562SOL     OW57664   6.420   0.392  10.941 -0.3583 -0.3044  0.6299
48562SOL    HW157665   6.429   0.306  10.902  0.0337  0.0189 -0.0141
48562SOL    HW257666   6.490   0.444  10.902 -1.6776  0.8017 -0.4052
48563SOL     OW57667   0.965   2.667  13.232  0.3787 -0.2176  0.2497
48563SOL    HW157668   0.902   2.605  13.269 -0.1842 -0.1406 -0.5370
48563SOL    HW257669   1.015   2.614  13.169  0.3926 -0.0465  0.1163
48564SOL     OW57670   3.831   9.939   9.247 -0.2926  0.2109  0.4655
48564SOL    HW157671   3.860  10.029   9.268 -1.0137  0.5564  0.0090
48564SOL    HW257672   3.736   9.945   9.247 -0.3408 -0.0883 -1.5702
48565SOL     OW57673   1.133   2.269   9.501 -0.1610 -0.5874  0.2583
48565SOL    HW157674   1.210   2.213   9.488 -0.6210 -0.9952 -0.8220
48565SOL    HW257675   1.137   2.332   9.429 -0.2917  0.0416  0.7913
48566SOL     OW57676  13.850  12.296   8.701  0.1484  0.2890 -0.1457
48566SOL    HW157677  13.865  12.208   8.736  1.4743  0.3238 -0.5804
48566SOL    HW257678  13.921  12.348   8.738 -0.8313  1.2807  0.4017
48567SOL     OW57679   7.177   9.712   5.903  0.1378  0.3010  0.0785
48567SOL    HW157680   7.087   9.679   5.906  0.1763  0.2038  0.1583
48567SOL    HW257681   7.169   9.797   5.859  0.1195 -0.0739 -0.6437
48568SOL     OW57682   4.675   2.681   4.983  0.4819 -0.1045  0.0255
48568SOL    HW157683   4.675   2.773   5.007  0.9028 -0.2607  0.6224
48568SOL    HW257684   4.677   2.681   4.887  0.5751  0.5013  0.0273
48569SOL     OW57685  11.192  10.822   6.281 -0.1046 -0.7422  0.7058
48569SOL    HW157686  11.163  10.866   6.201  0.7062 -0.7293  0.4146
48569SOL    HW257687  11.177  10.887   6.350 -0.4659 -0.6207  0.5181
48570SOL     OW57688   2.690  14.021  11.376 -0.0758 -0.6199 -0.7211
48570SOL    HW157689   2.756  14.090  11.379  0.2667 -0.9740  0.4744
48570SOL    HW257690   2.607  14.067  11.394  0.2632 -0.6100  1.0349
48571SOL     OW57691   4.372  12.804   0.019 -0.0294 -0.7504 -0.1992
48571SOL    HW157692   4.388  12.722  -0.026 -0.0025 -0.8723  0.0298
48571SOL    HW257693   4.277  12.810   0.027 -0.0717 -0.3524 -0.9638
48572SOL     OW57694  12.792   8.958   3.937  0.0705  0.1725  0.4682
48572SOL    HW157695  12.820   8.881   3.887 -0.0858  1.1836 -1.2363
48572SOL    HW257696  12.870   9.014   3.940 -0.3969  0.8825 -0.1748
48573SOL     OW57697   8.976   7.164   1.905  0.0444 -0.0351  0.4185
48573SOL    HW157698   8.894   7.134   1.944  0.2355  0.2405  1.0430
48573SOL    HW257699   9.044   7.123   1.958  0.3037  0.9525  0.8656
48574SOL     OW57700   4.409   9.985  11.649 -0.0054 -0.4040  0.3328
48574SOL    HW157701   4.496  10.010  11.617  0.4499 -0.6589  1.3136
48574SOL    HW257702   4.428   9.919  11.716 -1.0470 -1.7794 -0.6772
48575SOL     OW57703   6.112   4.260  12.401  0.4634 -0.0361 -0.4565
48575SOL    HW157704   6.193   4.309  12.386  0.0227  1.1996  0.9472
48575SOL    HW257705   6.050   4.296  12.337  0.4295  0.5513 -0.1025
48576SOL     OW57706   3.351   6.053  11.795  0.6992  0.1478  0.0692
48576SOL    HW157707   3.342   6.147  11.779  1.9268  0.1322 -0.8907
48576SOL    HW257708   3.369   6.046  11.888 -0.1847  0.7933  0.2996
48577SOL     OW57709   1.314  11.795   8.981  0.8643  0.4983  0.0818
48577SOL    HW157710   1.318  11.761   9.071 -0.2396  0.0186 -0.0279
48577SOL    HW257711   1.291  11.718   8.928  2.2781  0.5988 -0.7402
48578SOL     OW57712  12.073   4.715   4.337  0.2597 -0.0213  0.0372
48578SOL    HW157713  12.069   4.620   4.345 -0.8387  0.0037 -0.0941
48578SOL    HW257714  12.085   4.746   4.427  2.3050 -0.3327 -0.0883
48579SOL     OW57715  13.702   0.098   9.423 -0.3391  0.0436 -0.1343
48579SOL    HW157716  13.653   0.034   9.475  1.2393  0.6090  2.1865
48579SOL    HW257717  13.637   0.167   9.404 -1.0487 -0.3121  0.8743
48580SOL     OW57718  12.057  11.112   5.107  0.4884  0.1188  0.0081
48580SOL    HW157719  12.071  11.021   5.133  0.0667 -0.1352 -0.6147
48580SOL    HW257720  12.137  11.137   5.061 -0.0051 -0.4743 -1.2344
48581SOL     OW57721   6.510   2.739   3.039  0.0390  0.1936  0.1905
48581SOL    HW157722   6.552   2.738   2.954  0.7452 -0.5024  0.5406
48581SOL    HW257723   6.535   2.657   3.080 -2.8811 -1.0080 -0.1654
48582SOL     OW57724   1.373   1.572   5.012 -0.1861 -0.3621  0.5775
48582SOL    HW157725   1.352   1.629   4.938  1.5244 -1.2823 -0.7091
48582SOL    HW257726   1.410   1.631   5.078 -1.3738  0.4163  0.5785
48583SOL     OW57727   4.189  13.517  13.169  0.3487  0.0147  0.1278
48583SOL    HW157728   4.110  13.467  13.186  1.1938 -1.4556 -0.0894
48583SOL    HW257729   4.200  13.512  13.074 -0.4082  2.0029 -0.1064
48584SOL     OW57730  12.395   4.265   7.724  0.3095  0.2974  0.2032
48584SOL    HW157731  12.442   4.223   7.652 -0.2703  1.5532 -0.9632
48584SOL    HW257732  12.436   4.230   7.803  1.3252 -0.7271 -0.7311
48585SOL     OW57733  12.212   5.540   1.403 -0.4370  0.2195  0.0787
48585SOL    HW157734  12.184   5.517   1.315  3.0243 -1.8013 -0.6831
48585SOL    HW257735  12.193   5.462   1.456  0.8340 -0.0373  0.1999
48586SOL     OW57736  11.862   6.556   8.721  0.7438  0.7252 -0.2432
48586SOL    HW157737  11.954   6.531   8.710  1.7108  1.3962  4.4434
48586SOL    HW257738  11.855   6.641   8.678  1.2061 -0.8178 -3.7302
48587SOL     OW57739  11.248   6.757  10.080 -0.1241 -0.2024  0.2279
48587SOL    HW157740  11.183   6.796  10.138  1.1434 -0.8873  2.2180
48587SOL    HW257741  11.295   6.831  10.042 -1.3458  0.2687 -0.4101
48588SOL     OW57742   2.076   1.335   2.469 -0.0323 -0.1052 -0.4085
48588SOL    HW157743   2.120   1.288   2.399  0.5242 -0.5661  0.2355
48588SOL    HW257744   1.984   1.308   2.462  0.1970 -0.9078 -0.3527
48589SOL     OW57745   8.956   0.943   6.940  0.3832  0.0686  0.1098
48589SOL    HW157746   9.046   0.968   6.960 -0.1164  2.2889 -0.1620
48589SOL    HW257747   8.902   1.008   6.985 -1.0939 -1.0651  0.0644
48590SOL     OW57748   6.872  10.242  10.880  0.7093  0.0906 -0.0088
48590SOL    HW157749   6.841  10.333  10.878  0.5329  0.0408  0.5115
48590SOL    HW257750   6.946  10.243  10.940  0.0483 -0.3134  0.8337
48591SOL     OW57751   4.779   6.845   8.040 -0.2268 -0.3106  0.3042
48591SOL    HW157752   4.730   6.763   8.042  0.1337 -0.5402  2.6738
48591SOL    HW257753   4.713   6.913   8.053 -0.3896 -0.3027 -0.5381
48592SOL     OW57754   5.157   9.621   0.138  0.2343 -0.4702 -0.0901
48592SOL    HW157755   5.195   9.545   0.182 -1.3458 -0.3149  1.6581
48592SOL    HW257756   5.228   9.656   0.085  1.6440 -1.8722  0.7921
48593SOL     OW57757  11.041   3.986   6.249  0.4263  0.1900  0.7202
48593SOL    HW157758  11.042   3.905   6.299 -2.1866  0.3530  1.2122
48593SOL    HW257759  11.017   4.053   6.313  1.2021  1.1281  0.0584
48594SOL     OW57760   7.346   9.261  13.576  0.7146  0.0748  0.1560
48594SOL    HW157761   7.265   9.216  13.555  0.0717  0.9485  0.7098
48594SOL    HW257762   7.382   9.287  13.491  0.0108  0.3886 -0.0448
48595SOL     OW57763   2.145   6.316   3.759 -0.0043 -0.0736 -0.3289
48595SOL    HW157764   2.088   6.364   3.699  0.4042 -1.2137 -1.6908
48595SOL    HW257765   2.226   6.301   3.709  0.7129 -0.2631  0.8367
48596SOL     OW57766   5.124  11.220  10.789 -0.2542  0.1069  0.3240
48596SOL    HW157767   5.149  11.132  10.818 -0.1585  0.1651  0.4189
48596SOL    HW257768   5.151  11.277  10.861  1.1814  0.4138 -0.4103
48597SOL     OW57769   7.454   7.595   8.085  0.6704  0.2834 -0.1675
48597SOL    HW157770   7.365   7.623   8.063 -0.4466 -2.4618  0.4979
48597SOL    HW257771   7.502   7.677   8.099 -1.7909  1.8413 -0.2528
48598SOL     OW57772   7.421   1.785  11.239 -0.3640  0.1788 -0.5236
48598SOL    HW157773   7.386   1.698  11.256  0.6810  0.0878  1.4471
48598SOL    HW257774   7.371   1.843  11.296  1.7342  0.2017  1.4510
48599SOL     OW57775   4.010  11.710   1.679 -0.2633  0.1257  0.0103
48599SOL    HW157776   4.016  11.760   1.598 -0.1618  0.4984  0.2448
48599SOL    HW257777   3.929  11.740   1.720  0.0136  0.4113  0.3577
48600SOL     OW57778  10.705   2.462   3.191  0.0752 -0.4627 -0.7854
48600SOL    HW157779  10.781   2.460   3.133  1.7993  1.2522  1.2425
48600SOL    HW257780  10.733   2.416   3.270 -1.8563 -1.8736 -0.8407
48601SOL     OW57781  10.921   1.055   1.276  0.3260  0.3247  0.5985
48601SOL    HW157782  10.828   1.048   1.300  0.3716  2.5478  1.7172
48601SOL    HW257783  10.961   1.099   1.351  2.3960 -0.9750  0.3020
48602SOL     OW57784   9.189  11.817  12.648  0.2959 -0.2419  0.2767
48602SOL    HW157785   9.181  11.813  12.743  0.0282  0.9194  0.3114
48602SOL    HW257786   9.259  11.881  12.632 -1.0780  1.1506 -0.3331
48603SOL     OW57787   7.523   1.011   6.666  0.2341  0.0725  0.3864
48603SOL    HW157788   7.602   0.984   6.619 -0.3546  0.6467 -1.0018
48603SOL    HW257789   7.460   0.941   6.650  0.0089  0.2988  0.2812
48604SOL     OW57790   4.362  13.757   1.176  0.0548  0.2428 -0.2765
48604SOL    HW157791   4.418  13.816   1.126  1.5553 -0.5558  0.3483
48604SOL    HW257792   4.422  13.717   1.239 -1.3989 -0.1493  0.9075
48605SOL     OW57793  11.806   4.554   9.028 -0.0183 -0.0403 -0.3787
48605SOL    HW157794  11.742   4.529   9.094  1.2629 -1.7126  0.3155
48605SOL    HW257795  11.888   4.563   9.076  0.5528  0.7154 -1.4426
48606SOL     OW57796  13.517   4.725  13.784 -0.4274  0.8012 -0.3371
48606SOL    HW157797  13.457   4.665  13.740  0.7564 -1.3794  0.8801
48606SOL    HW257798  13.580   4.749  13.716 -1.0516  0.9141 -0.8945
48607SOL     OW57799   9.634  13.920   7.631 -0.0506  0.6572  0.1123
48607SOL    HW157800   9.613  13.827   7.630  1.5819  0.2392 -1.5472
48607SOL    HW257801   9.619  13.948   7.722 -0.3074 -1.2693  0.6962
48608SOL     OW57802   7.790  11.178  10.705 -0.1634  0.0472  0.0421
48608SOL    HW157803   7.847  11.105  10.679 -1.2661 -1.3160  1.2569
48608SOL    HW257804   7.791  11.176  10.801  1.8363  3.3515  0.2342
48609SOL     OW57805  10.340   4.588   6.657 -0.1130 -0.2760 -0.8074
48609SOL    HW157806  10.281   4.662   6.672  1.6239  0.7711  1.4966
48609SOL    HW257807  10.424   4.629   6.636  1.3638 -1.3937  2.3365
48610SOL     OW57808   4.801   3.983   2.651 -0.0273 -0.7268 -0.1149
48610SOL    HW157809   4.768   3.893   2.643 -2.5428  0.1862 -0.9157
48610SOL    HW257810   4.855   3.996   2.572 -2.0776 -0.6486 -1.5745
48611SOL     OW57811   6.479   0.594   0.111 -0.0924 -0.6205  0.0666
48611SOL    HW157812   6.534   0.576   0.187  1.5005  0.3986 -0.8004
48611SOL    HW257813   6.520   0.669   0.068 -2.8727  1.0769  0.0729
48612SOL     OW57814  12.303   5.176   4.475  0.3423  0.5834 -0.7814
48612SOL    HW157815  12.261   5.140   4.397 -2.2264  1.7835 -0.0818
48612SOL    HW257816  12.336   5.261   4.446  1.4295  0.0692 -1.0844
48613SOL     OW57817  12.388   2.061   7.923 -0.6658  0.1418 -0.0821
48613SOL    HW157818  12.316   2.005   7.953  0.1472 -0.9644 -0.1545
48613SOL    HW257819  12.403   2.035   7.832  0.3726 -0.2321  0.1852
48614SOL     OW57820   6.809   9.845  12.723 -0.4080  0.0158  0.5837
48614SOL    HW157821   6.789   9.755  12.698  1.1715  0.2091 -1.6763
48614SOL    HW257822   6.808   9.893  12.640  0.8406  1.6560  1.4696
48615SOL     OW57823   1.535   0.491   5.971 -0.1747  0.1129 -0.2919
48615SOL    HW157824   1.564   0.539   5.893 -0.0624 -0.6250 -0.7101
48615SOL    HW257825   1.550   0.552   6.043 -0.2145  0.7815 -0.8342
48616SOL     OW57826   2.346   1.151   0.193 -0.3132  0.2262 -0.0348
48616SOL    HW157827   2.359   1.186   0.105  1.9438  0.8895  0.5174
48616SOL    HW257828   2.417   1.089   0.206 -0.9862 -0.3571  1.1018
48617SOL     OW57829   3.432  10.362  12.780  0.1276 -0.2750 -0.1843
48617SOL    HW157830   3.473  10.442  12.748  0.8011 -0.9819 -1.1331
48617SOL    HW257831   3.403  10.316  12.701  0.5427 -1.3799  0.2813
48618SOL     OW57832   6.116   1.992  10.276  0.3888 -0.2250 -0.0683
48618SOL    HW157833   6.136   1.932  10.204  0.3118  0.4429 -0.6592
48618SOL    HW257834   6.023   1.979  10.293  0.6279 -1.1582  0.6523
48619SOL     OW57835   4.154  10.140   5.613  0.3165  0.0872  0.4930
48619SOL    HW157836   4.091  10.203   5.577 -0.1457 -1.5412 -1.6961
48619SOL    HW257837   4.101  10.064   5.637  1.3844 -1.3232 -1.4191
48620SOL     OW57838  11.199   4.545   7.310  0.1064  0.3920  0.8958
48620SOL    HW157839  11.241   4.460   7.326  0.4156  0.8039  2.5040
48620SOL    HW257840  11.266   4.598   7.268  0.9662  0.7464  2.5992
48621SOL     OW57841   1.460   1.330   7.566 -0.1607  0.0377  0.2240
48621SOL    HW157842   1.506   1.412   7.546  0.5832 -0.5764 -0.6552
48621SOL    HW257843   1.400   1.318   7.492 -1.7686  0.8139  1.3435
48622SOL     OW57844  12.522   3.436   9.036  0.1884 -0.1444  0.3886
48622SOL    HW157845  12.542   3.511   8.982 -3.0897  0.7125  0.1521
48622SOL    HW257846  12.605   3.413   9.078  1.4410  3.1527 -0.0492
48623SOL     OW57847  11.179   5.425   7.199  0.3102 -0.0793  0.2533
48623SOL    HW157848  11.243   5.418   7.128 -1.0126 -1.2960 -0.9137
48623SOL    HW257849  11.223   5.387   7.275  2.3905  2.8058  0.6544
48624SOL     OW57850   2.825   2.010   0.925  0.2788 -0.3451 -0.2615
48624SOL    HW157851   2.865   2.055   0.999 -0.3622  1.6300 -1.0637
48624SOL    HW257852   2.898   1.990   0.867  0.2978  2.9704 -1.5804
48625SOL     OW57853  10.753   9.777   5.982  0.9403  0.0289  0.1633
48625SOL    HW157854  10.724   9.860   5.944  1.9881 -0.6398 -2.3144
48625SOL    HW257855  10.838   9.797   6.021  0.1527  0.5822  1.6580
48626SOL     OW57856   1.549  13.656  12.689 -0.2131 -0.0349  0.3319
48626SOL    HW157857   1.512  13.698  12.767 -0.5104 -1.4752  1.0019
48626SOL    HW257858   1.473  13.642  12.632 -0.8859 -2.9483  1.6876
48627SOL     OW57859  12.357  13.542  11.800 -0.6129  0.0375  0.1825
48627SOL    HW157860  12.374  13.449  11.816  0.3644 -0.0652 -1.2434
48627SOL    HW257861  12.432  13.572  11.749 -1.2411  1.4426  0.0225
48628SOL     OW57862   1.990   3.433   5.326 -0.2707  0.1627 -0.0462
48628SOL    HW157863   1.945   3.373   5.385  0.0447  1.1469  1.2197
48628SOL    HW257864   1.978   3.394   5.239 -1.6300 -0.7602  0.5283
48629SOL     OW57865   9.132   9.438   3.973  0.1902  0.1391 -0.0538
48629SOL    HW157866   9.097   9.466   4.058  0.9411  2.5943 -0.4862
48629SOL    HW257867   9.055   9.413   3.923 -0.3982  0.0458  0.8603
48630SOL     OW57868  12.076   4.417   9.430 -0.0725 -0.4040  0.2159
48630SOL    HW157869  12.101   4.360   9.357  0.1188  0.5668 -0.4984
48630SOL    HW257870  12.016   4.364   9.482 -0.5088 -0.9969 -0.8537
48631SOL     OW57871  11.405   2.044  10.502 -0.1716  0.1453  0.1130
48631SOL    HW157872  11.408   2.010  10.591 -0.1354 -1.9358 -0.6207
48631SOL    HW257873  11.312   2.060  10.486 -0.1794  0.5108  0.5112
48632SOL     OW57874  10.093   7.602   2.289  0.1515  0.1660 -0.2679
48632SOL    HW157875  10.127   7.618   2.377 -0.0042  1.5111 -0.4267
48632SOL    HW257876  10.074   7.509   2.287 -0.1277  0.1648  1.2401
48633SOL     OW57877   3.050  10.113   9.765 -0.0286  0.5623 -0.5344
48633SOL    HW157878   2.973  10.122   9.710 -0.5355  0.1769  0.0928
48633SOL    HW257879   3.050  10.022   9.793  0.8547  0.4690 -0.8074
48634SOL     OW57880  13.434   6.718  10.613 -0.4360  0.3663  0.2630
48634SOL    HW157881  13.480   6.716  10.697  1.3209  0.0787 -0.6429
48634SOL    HW257882  13.496   6.762  10.554 -0.9670 -0.8245 -1.2346
48635SOL     OW57883   4.317  11.171  10.302  0.1941 -0.0490  0.2657
48635SOL    HW157884   4.253  11.106  10.331  0.1590 -1.5495 -2.8026
48635SOL    HW257885   4.400  11.123  10.296  0.1980  0.1237 -1.9345
48636SOL     OW57886   6.249  11.249   5.311 -0.7099 -0.6557  0.7666
48636SOL    HW157887   6.177  11.222   5.368 -2.3874 -0.5900 -1.1917
48636SOL    HW257888   6.284  11.167   5.276 -0.9763 -0.6293  0.4277
48637SOL     OW57889   3.346   9.020   7.868  0.1257 -0.8583 -0.2379
48637SOL    HW157890   3.440   9.037   7.862  0.3074 -1.7790 -0.1954
48637SOL    HW257891   3.305   9.107   7.871  1.0780 -0.4259  1.3265
48638SOL     OW57892   6.065   6.063   7.829  0.2336  0.3182  0.2548
48638SOL    HW157893   6.037   5.971   7.825  0.7436  0.1706 -2.7314
48638SOL    HW257894   6.160   6.058   7.839  0.8573  0.1864 -3.7329
48639SOL     OW57895  11.237  12.114   1.056  0.5552  0.1295  0.1746
48639SOL    HW157896  11.192  12.135   0.974  2.0410  0.1539 -0.6817
48639SOL    HW257897  11.260  12.200   1.092 -1.2159  0.1652  1.3129
48640SOL     OW57898   0.630   2.328   5.163  0.2549  0.2847 -0.0952
48640SOL    HW157899   0.602   2.275   5.089  0.6325 -0.0806  0.0220
48640SOL    HW257900   0.690   2.392   5.125  3.6548 -2.3225  0.3710
48641SOL     OW57901   4.380   3.083   0.161  0.4938  0.4556 -0.0928
48641SOL    HW157902   4.438   3.030   0.215 -0.1118 -0.7324 -0.5674
48641SOL    HW257903   4.421   3.083   0.074 -0.4303 -0.8115 -0.5592
48642SOL     OW57904  11.199   6.719   8.667 -0.3365 -0.5928 -0.1479
48642SOL    HW157905  11.282   6.768   8.660 -0.6123 -0.2611 -1.3212
48642SOL    HW257906  11.132   6.787   8.673 -0.5696 -0.8567  0.2388
48643SOL     OW57907   4.521   2.751  11.874 -0.1990 -0.4486 -0.2497
48643SOL    HW157908   4.598   2.802  11.897  0.1297 -0.6510 -0.8617
48643SOL    HW257909   4.488   2.792  11.794 -1.2718  0.1987  0.4942
48644SOL     OW57910  12.786   8.365  10.710 -0.0008  0.6640  0.0167
48644SOL    HW157911  12.823   8.279  10.691  0.2550  0.5802  0.8599
48644SOL    HW257912  12.823   8.423  10.643  0.3267  0.2478 -0.1617
48645SOL     OW57913   4.763   7.814  11.522  0.3363  0.5615  0.1243
48645SOL    HW157914   4.791   7.887  11.466  0.5512 -0.6263 -1.3864
48645SOL    HW257915   4.740   7.745  11.460  1.1561 -1.0247  1.5336
48646SOL     OW57916  12.640   9.225   2.645  0.4736 -0.7618  0.2443
48646SOL    HW157917  12.613   9.178   2.724 -1.0432 -1.4460 -0.6403
48646SOL    HW257918  12.667   9.311   2.676 -2.1560 -0.2490  1.3146
48647SOL     OW57919   3.409   2.121   6.948 -0.1717 -0.6914  0.2673
48647SOL    HW157920   3.391   2.122   7.042 -1.9133  1.0428 -0.0254
48647SOL    HW257921   3.454   2.203   6.931 -0.6969 -0.5609 -0.5363
48648SOL     OW57922   9.146   6.627  12.932 -0.4053 -0.2403 -0.5625
48648SOL    HW157923   9.196   6.669  13.002  0.5084 -1.6048 -0.3758
48648SOL    HW257924   9.060   6.610  12.971 -0.2557 -0.0012 -0.1281
48649SOL     OW57925   0.807  12.202   3.897  0.1356  0.1929 -0.4213
48649SOL    HW157926   0.786  12.246   3.979  2.8461  1.1099 -0.1164
48649SOL    HW257927   0.728  12.152   3.875 -1.5371  1.8562  1.4318
48650SOL     OW57928   5.371   4.069  13.477 -0.8878 -0.2541 -0.0215
48650SOL    HW157929   5.441   4.007  13.457 -1.2016 -0.2387 -1.2299
48650SOL    HW257930   5.398   4.150  13.435 -1.5678 -0.2216 -0.4177
48651SOL     OW57931  12.787   8.952  10.291  0.5610 -0.3888  0.1011
48651SOL    HW157932  12.749   9.015  10.352  0.9827 -1.7168  1.8025
48651SOL    HW257933  12.711   8.915  10.245  0.1185 -0.2227  0.6795
48652SOL     OW57934  12.597  13.325   2.270  0.4869 -0.6409 -0.0946
48652SOL    HW157935  12.600  13.377   2.190  1.3826 -3.1033 -1.8110
48652SOL    HW257936  12.581  13.388   2.340  0.3537  1.7167 -2.1180
48653SOL     OW57937   2.764   4.420  13.811  0.3725  0.0511  1.0162
48653SOL    HW157938   2.735   4.372  13.733 -1.7915 -0.9288  2.3345
48653SOL    HW257939   2.698   4.488  13.823  2.2735  2.1342  0.3896
48654SOL     OW57940  12.882  13.236  11.685 -0.4923 -0.2922 -0.0003
48654SOL    HW157941  12.947  13.166  11.681 -0.2865 -0.2356  1.7067
48654SOL    HW257942  12.803  13.194  11.721 -0.5579  0.2151  0.4549
48655SOL     OW57943   9.352  11.229  12.158 -0.6294 -1.1192  0.0830
48655SOL    HW157944   9.421  11.169  12.129  0.3299  0.5966 -1.3962
48655SOL    HW257945   9.356  11.225  12.254  1.1099 -1.5814  0.0336
48656SOL     OW57946   5.081   4.542   0.393  0.0059 -0.5382 -0.0729
48656SOL    HW157947   5.148   4.573   0.454 -0.6143  0.6870  0.0225
48656SOL    HW257948   5.107   4.578   0.308  0.0972 -1.0406 -0.2596
48657SOL     OW57949   5.034  11.497   0.425 -0.4923 -0.0436  0.3372
48657SOL    HW157950   4.968  11.449   0.374 -2.0251  1.1905  1.0826
48657SOL    HW257951   5.004  11.588   0.423  1.8203  0.7669 -0.2307
48658SOL     OW57952   8.701  13.879   1.056 -0.1350 -0.0153 -0.0545
48658SOL    HW157953   8.687  13.795   1.013  1.2707 -1.6089  2.3154
48658SOL    HW257954   8.628  13.888   1.117  0.2777 -0.0807  0.4613
48659SOL     OW57955   1.809   1.165   6.054  0.0372 -0.6766  0.3740
48659SOL    HW157956   1.826   1.251   6.016  0.1924 -0.4893  0.8589
48659SOL    HW257957   1.893   1.120   6.050  0.1024 -0.5832  0.6782
48660SOL     OW57958   4.480   0.394  10.811  0.3153  0.0697  0.1618
48660SOL    HW157959   4.476   0.333  10.738 -0.5630 -0.0458  0.2873
48660SOL    HW257960   4.541   0.462  10.783 -0.9934  0.7414 -1.2607
48661SOL     OW57961  10.608   0.303   7.577 -0.3234 -0.3096  0.4046
48661SOL    HW157962  10.667   0.309   7.653 -0.3621 -0.7876  0.4764
48661SOL    HW257963  10.564   0.387   7.574  1.5232  0.6745 -0.5996
48662SOL     OW57964   0.890   6.103   8.613 -0.0011 -0.1244 -0.0905
48662SOL    HW157965   0.893   6.007   8.619 -0.5490 -0.0845  1.2852
48662SOL    HW257966   0.951   6.133   8.680 -2.0399  0.4652  1.6080
48663SOL     OW57967  11.485   5.181  10.772  0.0042  0.5382 -0.2024
48663SOL    HW157968  11.487   5.092  10.737  0.7991 -0.4709  2.1653
48663SOL    HW257969  11.407   5.182  10.828  0.0416  1.3264 -0.1572
48664SOL     OW57970   2.850   4.941  12.691 -0.0359  0.1658 -0.4617
48664SOL    HW157971   2.823   4.901  12.774 -0.0430 -0.0513 -0.5667
48664SOL    HW257972   2.834   5.034  12.703  1.5647  0.3511  0.3986
48665SOL     OW57973  12.020   7.141   0.837 -0.5684  0.2174 -0.7896
48665SOL    HW157974  11.981   7.159   0.923  1.3457  1.1414 -0.0641
48665SOL    HW257975  11.962   7.185   0.775 -2.9605 -1.8984 -0.2153
48666SOL     OW57976   8.023   1.651  10.965  0.6992 -0.0432  0.2090
48666SOL    HW157977   8.052   1.652  10.874  1.3114  1.4627  0.3975
48666SOL    HW257978   7.939   1.697  10.965  1.2053  0.9188  0.5353
48667SOL     OW57979   3.075   5.599   6.715 -0.0550 -0.0515  0.3966
48667SOL    HW157980   3.147   5.576   6.773  0.3448  0.2731  0.0316
48667SOL    HW257981   3.017   5.523   6.717 -0.9182  0.6011  2.5449
48668SOL     OW57982   3.410  10.693   5.342  0.2922  0.4078  0.7568
48668SOL    HW157983   3.478  10.670   5.278 -0.0431 -1.2146  0.9616
48668SOL    HW257984   3.364  10.767   5.302  0.6332 -0.0351 -0.4923
48669SOL     OW57985   2.558   2.166   1.895  0.2936 -0.1585 -0.5029
48669SOL    HW157986   2.592   2.076   1.900  0.2672 -0.2758 -1.9594
48669SOL    HW257987   2.467   2.158   1.925  0.6841 -0.3528  0.6857
48670SOL     OW57988   4.078   2.934   3.459  0.1656  0.4559  0.5818
48670SOL    HW157989   4.072   3.028   3.474  1.7458  0.8491 -0.9729
48670SOL    HW257990   4.160   2.922   3.411 -1.6578 -1.2377 -2.4685
48671SOL     OW57991   8.621   2.019   0.646 -0.5443 -0.2859 -0.0318
48671SOL    HW157992   8.694   1.959   0.658 -0.8980 -0.8551 -0.6963
48671SOL    HW257993   8.631   2.052   0.557 -1.7426 -1.2664 -0.5584
48672SOL     OW57994  10.044   3.550   2.549 -0.0420 -0.4879  0.4592
48672SOL    HW157995   9.986   3.624   2.529  0.5942  0.3436  1.5798
48672SOL    HW257996  10.049   3.549   2.644  1.5401 -0.7343  0.3892
48673SOL     OW57997  10.571   1.361   0.193  0.1692 -0.1297 -0.0011
48673SOL    HW157998  10.570   1.449   0.229  1.7036 -0.8918  2.1452
48673SOL    HW257999  10.524   1.308   0.258  0.7108 -1.1509 -0.4112
48674SOL     OW58000  13.689  10.272  11.932 -0.1407  0.4772 -0.3461
48674SOL    HW158001  13.698  10.265  11.837 -1.7210  1.8622 -0.6505
48674SOL    HW258002  13.639  10.353  11.946  0.0941  0.3426  1.6701
48675SOL     OW58003   4.998  13.649   0.516 -0.0919  0.4373 -0.2568
48675SOL    HW158004   4.978  13.743   0.511 -1.6530  0.1471  0.0532
48675SOL    HW258005   4.912  13.606   0.516  0.6083 -1.0532 -1.3349
48676SOL     OW58006  12.101   4.865   6.906 -0.3388 -0.0398 -0.1819
48676SOL    HW158007  12.109   4.815   6.825  0.9316 -0.3791  0.1282
48676SOL    HW258008  12.118   4.956   6.880  0.2692 -0.1760 -0.2647
48677SOL     OW58009   9.315  12.180   0.648  0.3917 -0.2060 -0.1708
48677SOL    HW158010   9.292  12.272   0.640 -0.1208 -0.2752  0.4079
48677SOL    HW258011   9.324  12.149   0.558 -2.2426 -0.2642 -0.4994
48678SOL     OW58012   5.905   2.120  12.130 -0.4489 -0.0663 -0.5604
48678SOL    HW158013   5.868   2.062  12.197  1.3482  0.3539  0.8709
48678SOL    HW258014   5.843   2.192  12.124 -1.2584 -0.7183 -0.2506
48679SOL     OW58015   3.209   9.192   8.756 -0.1273  0.1388  0.6656
48679SOL    HW158016   3.117   9.220   8.749 -0.0405  0.0275 -1.6694
48679SOL    HW258017   3.213   9.113   8.703  1.3299  0.1049  0.8009
48680SOL     OW58018   9.201  10.874   8.562 -0.0498 -0.5495 -0.1298
48680SOL    HW158019   9.254  10.848   8.637 -0.1679  0.0844  0.1776
48680SOL    HW258020   9.122  10.820   8.569 -0.7920  0.6473  1.1388
48681SOL     OW58021  13.538   7.500   5.197  0.0730 -0.7175  0.5313
48681SOL    HW158022  13.517   7.407   5.208  1.5028 -1.2649 -1.0047
48681SOL    HW258023  13.465   7.534   5.145 -1.3769 -0.5176  2.6050
48682SOL     OW58024  12.645   7.476   2.366 -0.2663 -0.5330 -0.1242
48682SOL    HW158025  12.708   7.536   2.407 -0.0827 -0.7880 -0.0282
48682SOL    HW258026  12.565   7.487   2.417  0.0515 -1.0698  0.4943
48683SOL     OW58027   5.082   0.118   3.962  0.2687 -0.1674 -0.4158
48683SOL    HW158028   5.120   0.057   4.026 -1.1710 -0.4554  0.2010
48683SOL    HW258029   4.992   0.088   3.951 -1.0980  2.9014  1.2911
48684SOL     OW58030   0.694   6.664  13.543  0.0637  0.1014 -0.1678
48684SOL    HW158031   0.639   6.736  13.573 -0.1399  0.9080 -2.3417
48684SOL    HW258032   0.697   6.674  13.448  2.2272 -1.1814 -0.2917
48685SOL     OW58033  13.585   7.009   6.450  1.0120  0.6637 -0.3069
48685SOL    HW158034  13.628   6.981   6.530 -0.4696 -0.7061  0.0597
48685SOL    HW258035  13.492   6.991   6.464  0.6596  0.7647 -2.1617
48686SOL     OW58036  10.793   8.121  10.359  0.2952 -0.1885  0.4335
48686SOL    HW158037  10.736   8.153  10.428 -1.1986 -0.9895 -0.3843
48686SOL    HW258038  10.855   8.193  10.343 -0.8912  0.9673  0.9052
48687SOL     OW58039   6.178   8.565  12.898  0.0207 -0.1573 -0.4262
48687SOL    HW158040   6.186   8.632  12.830 -0.4971  0.0748 -0.2552
48687SOL    HW258041   6.188   8.612  12.980 -1.1300 -0.1559 -0.2738
48688SOL     OW58042  10.892  12.914   6.201  0.7161 -0.0924  0.0824
48688SOL    HW158043  10.948  12.961   6.139 -0.9792  0.9545 -0.7235
48688SOL    HW258044  10.852  12.982   6.253 -0.6013 -0.7323 -0.0628
48689SOL     OW58045   4.811   4.599  10.708 -0.6797 -0.0503  0.3035
48689SOL    HW158046   4.868   4.526  10.732  0.3556  0.5205 -0.3558
48689SOL    HW258047   4.800   4.592  10.613 -2.1786 -0.4595  0.4735
48690SOL     OW58048  11.114   8.170   8.668  0.0071 -0.3387 -0.1093
48690SOL    HW158049  11.173   8.229   8.622 -0.3750 -0.8615 -1.3216
48690SOL    HW258050  11.170   8.099   8.700  0.6355  1.1160  2.2543
48691SOL     OW58051   4.444   4.574   3.812  0.3119 -0.1960 -0.0960
48691SOL    HW158052   4.386   4.586   3.737 -1.4502 -1.2939  1.0382
48691SOL    HW258053   4.501   4.651   3.810  0.1261 -0.0440 -2.3586
48692SOL     OW58054   4.334   0.677   6.121  0.4012  0.0908  0.0757
48692SOL    HW158055   4.293   0.753   6.082  0.5782 -0.2984 -0.9013
48692SOL    HW258056   4.303   0.676   6.211 -0.8321  0.4357 -0.3304
48693SOL     OW58057   2.399   2.710  11.588  0.4997 -0.0969  0.3460
48693SOL    HW158058   2.408   2.641  11.654  0.6118 -0.2269  0.1935
48693SOL    HW258059   2.369   2.666  11.510  1.8638 -0.1979 -0.1556
48694SOL     OW58060   4.264   4.164  11.131 -0.2305  0.3620 -0.0715
48694SOL    HW158061   4.247   4.083  11.083  2.9551 -0.6968  0.3346
48694SOL    HW258062   4.310   4.220  11.068  0.6999  0.4279  0.6400
48695SOL     OW58063  10.668  10.423  13.996 -0.3616 -0.2203  0.0510
48695SOL    HW158064  10.657  10.501  13.941 -1.0333  0.7187  1.4521
48695SOL    HW258065  10.763  10.417  14.009  0.2782 -2.5096 -3.9185
48696SOL     OW58066   4.849  13.135   7.562 -0.1196  0.1100 -0.7427
48696SOL    HW158067   4.784  13.204   7.548  0.3430  0.6249 -0.3905
48696SOL    HW258068   4.808  13.056   7.525 -1.9168 -0.0883  1.4160
48697SOL     OW58069   8.565   6.553   2.654  0.4843 -0.5374 -0.5954
48697SOL    HW158070   8.558   6.645   2.627 -1.0799 -0.6733 -0.7657
48697SOL    HW258071   8.611   6.510   2.582  0.2720 -0.0747 -1.0148
48698SOL     OW58072  12.400   4.267   1.968 -0.6084 -0.6260  0.9363
48698SOL    HW158073  12.485   4.225   1.975  0.2583  0.8995  0.1735
48698SOL    HW258074  12.350   4.212   1.906 -1.2143 -3.0187  3.3738
48699SOL     OW58075   0.264  13.959   2.016  0.0841 -0.3737  0.4544
48699SOL    HW158076   0.350  13.996   1.994  0.6230 -2.0318 -0.3669
48699SOL    HW258077   0.281  13.899   2.088 -0.3479 -0.8385  0.1767
48700SOL     OW58078   0.902  10.573   6.584  0.2320 -0.0421 -0.4446
48700SOL    HW158079   0.861  10.488   6.599  2.3362 -1.0670 -0.2937
48700SOL    HW258080   0.995  10.560   6.602  0.8460  1.9538 -1.7688
48701SOL     OW58081   0.675   4.769   7.589 -0.3318 -0.1301 -0.1747
48701SOL    HW158082   0.708   4.841   7.643 -1.5839  1.6460 -1.6563
48701SOL    HW258083   0.629   4.711   7.651 -0.4949  1.0722  0.8598
48702SOL     OW58084   0.796   4.890  10.603  0.0133 -0.3586 -0.3090
48702SOL    HW158085   0.747   4.808  10.609 -0.2637 -0.1391  0.6480
48702SOL    HW258086   0.868   4.871  10.543  0.6983 -1.7009  0.8944
48703SOL     OW58087   1.829   4.541   5.751  0.1587 -0.6151 -0.3906
48703SOL    HW158088   1.892   4.470   5.767  2.1564  1.4492  1.6217
48703SOL    HW258089   1.777   4.544   5.831  2.0614  1.9586  0.8850
48704SOL     OW58090  13.824   4.404   0.162  0.4605  0.2634  0.1863
48704SOL    HW158091  13.904   4.387   0.211  0.2343 -1.4187  0.0266
48704SOL    HW258092  13.780   4.474   0.210  1.5992  0.5932  0.7637
48705SOL     OW58093   9.089   6.392   1.593  0.3531  0.8093 -0.3040
48705SOL    HW158094   9.136   6.352   1.519  1.3228 -0.6081  0.9998
48705SOL    HW258095   9.158   6.435   1.644 -0.1588  1.0282  0.2127
48706SOL     OW58096   8.771   6.688  13.701  0.2429  0.2402 -0.4887
48706SOL    HW158097   8.738   6.635  13.773 -1.3065 -0.0158 -1.3470
48706SOL    HW258098   8.809   6.765  13.743  1.2151 -0.8380  0.6944
48707SOL     OW58099   9.492  11.369   9.804  0.4793 -0.2377 -0.1801
48707SOL    HW158100   9.540  11.441   9.763  0.0225 -1.4466 -3.0490
48707SOL    HW258101   9.408  11.366   9.758  0.2061 -2.1228  0.3666
48708SOL     OW58102   3.013  10.993  13.953  0.3783  0.5000 -0.0183
48708SOL    HW158103   3.058  11.077  13.943  3.2885 -0.9206  0.0868
48708SOL    HW258104   2.959  10.986  13.874  0.4593  2.2284 -0.2728
48709SOL     OW58105   5.102   6.297   6.450  0.8193  0.1420  0.3505
48709SOL    HW158106   5.116   6.272   6.542 -1.5838  2.0406  1.3534
48709SOL    HW258107   5.016   6.340   6.450 -0.9174 -2.7121 -3.4130
48710SOL     OW58108   9.070   8.451   3.395 -0.2657 -0.0936  0.2711
48710SOL    HW158109   9.067   8.543   3.368  0.7550  0.1417  0.9024
48710SOL    HW258110   8.994   8.411   3.353 -1.5234  1.3370  1.1274
48711SOL     OW58111   1.231  13.085  11.058  0.5777  0.1334  0.6233
48711SOL    HW158112   1.250  13.083  10.964  2.0749  1.3813  0.8672
48711SOL    HW258113   1.307  13.128  11.098 -1.0014  1.6815  2.1515
48712SOL     OW58114   0.737   0.303  11.519 -0.5887 -0.2883 -1.3587
48712SOL    HW158115   0.676   0.368  11.555  0.8846  0.3048  0.2045
48712SOL    HW258116   0.787   0.350  11.453 -0.3437 -0.1520 -1.0800
48713SOL     OW58117   5.092   8.207   4.628  0.4170 -0.3453 -0.3373
48713SOL    HW158118   5.179   8.169   4.613 -0.3804 -2.1412 -0.8209
48713SOL    HW258119   5.036   8.131   4.644 -0.9484  0.8176  0.6617
48714SOL     OW58120  13.074   7.282   1.827  0.7557 -0.0116 -0.0294
48714SOL    HW158121  13.096   7.365   1.784  1.6514  1.1787  2.5299
48714SOL    HW258122  13.145   7.222   1.801  2.2548  1.1902  1.0771
48715SOL     OW58123   5.444   7.506  10.838 -0.0283  0.3658  0.4719
48715SOL    HW158124   5.416   7.485  10.749  1.9515 -1.8696  0.2654
48715SOL    HW258125   5.403   7.439  10.893  0.9150  0.0446  0.8163
48716SOL     OW58126  11.215   9.310  12.970 -0.5905  1.0183 -0.7926
48716SOL    HW158127  11.152   9.260  13.021  0.5589  1.5863  1.2759
48716SOL    HW258128  11.161   9.368  12.916 -1.8424  0.2313 -0.4254
48717SOL     OW58129   4.894   0.904  10.851  0.2116  0.0644  0.2294
48717SOL    HW158130   4.922   0.813  10.859 -0.6358 -0.3741 -1.4180
48717SOL    HW258131   4.917   0.944  10.935  0.6390 -1.6493  0.9563
48718SOL     OW58132   2.354   6.263   4.154 -0.8933 -0.3647  0.1640
48718SOL    HW158133   2.284   6.305   4.104 -1.8672 -1.5274  0.4950
48718SOL    HW258134   2.358   6.312   4.236 -0.7051  0.2619 -0.2153
48719SOL     OW58135   6.159   9.570   8.770 -0.4890 -0.2713 -0.0269
48719SOL    HW158136   6.107   9.614   8.837 -2.3126  0.0498 -1.5657
48719SOL    HW258137   6.233   9.532   8.818 -1.7301 -0.1054  2.1429
48720SOL     OW58138   6.409  12.588  11.610 -0.2408 -0.2290  0.4052
48720SOL    HW158139   6.449  12.525  11.550 -1.5920 -0.2593 -0.5255
48720SOL    HW258140   6.441  12.563  11.696  1.2661 -0.5782 -0.2182
48721SOL     OW58141   4.769   6.917   3.525  0.7195  0.2779 -0.0314
48721SOL    HW158142   4.839   6.981   3.509  0.9513 -0.0806 -0.4584
48721SOL    HW258143   4.815   6.834   3.536  0.3278 -0.0497 -0.8102
48722SOL     OW58144   9.378   4.477   1.120  0.4254  0.2597 -0.0825
48722SOL    HW158145   9.321   4.401   1.136  0.5802  0.3467  0.9731
48722SOL    HW258146   9.464   4.450   1.152  1.0045  0.1341 -1.6729
48723SOL     OW58147   7.728  10.488   8.672  0.0396 -0.0285  0.1406
48723SOL    HW158148   7.638  10.513   8.653  0.2306  0.9537  0.4624
48723SOL    HW258149   7.742  10.406   8.623 -1.3103 -0.7077  0.8386
48724SOL     OW58150   3.392   2.104  10.348 -0.4685 -0.2785  0.1449
48724SOL    HW158151   3.341   2.035  10.305  0.9962 -0.4923 -1.3858
48724SOL    HW258152   3.330   2.176  10.360 -1.2098 -0.5936 -1.4622
48725SOL     OW58153  10.307   3.279   8.731 -0.5733  0.1808 -0.0897
48725SOL    HW158154  10.263   3.229   8.800 -1.8174  1.0396 -0.2412
48725SOL    HW258155  10.236   3.319   8.681  0.3506  0.5731 -1.1221
48726SOL     OW58156   3.182  13.047   7.202 -0.0154 -0.4940  0.1794
48726SOL    HW158157   3.201  13.135   7.171  1.7022 -1.8386 -3.0455
48726SOL    HW258158   3.260  13.022   7.252  0.4441 -0.8769 -0.7021
48727SOL     OW58159  10.170   1.399  10.464  0.3894  0.1685  0.5095
48727SOL    HW158160  10.242   1.346  10.498 -0.9778 -1.7728  0.5170
48727SOL    HW258161  10.104   1.397  10.533 -0.4232  0.3523 -0.2484
48728SOL     OW58162  13.652   2.475   5.956 -0.0099  0.4956 -0.6352
48728SOL    HW158163  13.739   2.434   5.954 -0.3656 -0.3169  0.1802
48728SOL    HW258164  13.618   2.463   5.868  0.2590 -0.1520 -0.6540
48729SOL     OW58165   1.902  13.978  13.836 -0.3229  0.9736 -0.1274
48729SOL    HW158166   1.914  13.967  13.931 -1.3356  1.9918  0.1415
48729SOL    HW258167   1.926  13.893  13.799 -0.5615  0.3424  1.1137
48730SOL     OW58168   4.660  11.274   1.910  0.1562  0.4678 -0.2115
48730SOL    HW158169   4.693  11.332   1.980 -1.3542  1.2974 -0.1596
48730SOL    HW258170   4.717  11.292   1.836  0.8940  0.6157  0.3759
48731SOL     OW58171   6.407   5.708   1.744  0.1210 -0.4725 -0.1493
48731SOL    HW158172   6.486   5.688   1.693  0.5810 -2.1108  1.1147
48731SOL    HW258173   6.335   5.682   1.687  0.5649 -0.6346 -0.6500
48732SOL     OW58174  13.911   2.300   8.282 -0.7279 -0.1294  0.0851
48732SOL    HW158175  13.818   2.281   8.286 -0.9309  0.7814 -0.1735
48732SOL    HW258176  13.945   2.270   8.367 -1.0344 -1.5218 -0.2550
48733SOL     OW58177   2.437   8.513   0.534  0.1723  0.0882  0.4162
48733SOL    HW158178   2.495   8.437   0.525 -0.5163 -0.2368 -1.9532
48733SOL    HW258179   2.391   8.498   0.616  0.4246 -1.8088  0.2665
48734SOL     OW58180   1.915   0.503   2.278 -0.1492 -0.1751 -0.0099
48734SOL    HW158181   1.904   0.412   2.249 -1.5963  0.0431 -0.2220
48734SOL    HW258182   1.826   0.537   2.283  0.3065  0.8876  1.2226
48735SOL     OW58183   1.271   9.708   7.687 -0.3129 -0.4302  0.5887
48735SOL    HW158184   1.305   9.780   7.633  1.1657  0.4415  2.5668
48735SOL    HW258185   1.282   9.630   7.632 -1.3897  0.7283 -1.3762
48736SOL     OW58186  12.026  11.134   8.816  0.1424 -0.2743 -0.5931
48736SOL    HW158187  11.983  11.194   8.755 -0.5255  2.0941  1.9510
48736SOL    HW258188  11.955  11.089   8.861  0.5258 -0.6397 -0.3359
48737SOL     OW58189   1.147  11.385   6.773  0.1815  0.7301  0.2035
48737SOL    HW158190   1.166  11.472   6.808 -0.0813  1.8832 -2.2951
48737SOL    HW258191   1.068  11.397   6.720 -2.1075 -1.9016  2.7521
48738SOL     OW58192   9.499  13.908   9.741  0.3759  0.2030 -0.8707
48738SOL    HW158193   9.531  13.998   9.749  2.1321 -0.5274  4.1903
48738SOL    HW258194   9.578  13.854   9.746 -0.8572 -1.5772  1.1824
48739SOL     OW58195   6.745   5.099  11.854  0.1441  0.1325  0.1152
48739SOL    HW158196   6.720   5.062  11.939  0.8076 -0.0800  0.2251
48739SOL    HW258197   6.713   5.189  11.856  0.6580  0.3049  0.8228
48740SOL     OW58198   9.624   6.237   1.674 -0.5165 -0.4145  0.1083
48740SOL    HW158199   9.684   6.192   1.733 -1.0127  0.7294  1.5383
48740SOL    HW258200   9.549   6.178   1.666 -0.9729 -0.0793  1.6117
48741SOL     OW58201   0.833   8.396   9.804 -0.1228 -0.1977 -0.1031
48741SOL    HW158202   0.920   8.434   9.814 -0.3248  0.0964  0.5481
48741SOL    HW258203   0.823   8.386   9.709  0.5470 -0.0721 -0.1940
48742SOL     OW58204   3.364   9.522  13.663 -0.0541  0.0861 -0.5543
48742SOL    HW158205   3.389   9.542  13.572  1.7501  0.7418  0.0403
48742SOL    HW258206   3.363   9.608  13.706  0.2117 -0.3384  0.3071
48743SOL     OW58207   0.372   4.980   1.884 -0.2355 -0.6165  0.4515
48743SOL    HW158208   0.371   5.073   1.907  2.8152 -0.2741 -0.3824
48743SOL    HW258209   0.288   4.946   1.916 -1.2169  2.2887  1.2261
48744SOL     OW58210  12.870   6.162   8.036  0.1074  0.5448  0.0990
48744SOL    HW158211  12.929   6.136   8.106  0.0352 -0.9913 -0.3790
48744SOL    HW258212  12.927   6.188   7.964  0.1823  2.1992  0.7107
48745SOL     OW58213  10.126   3.406   3.178 -0.1440  0.3394 -0.2703
48745SOL    HW158214  10.165   3.482   3.133  0.6251 -0.5768 -1.2137
48745SOL    HW258215  10.139   3.424   3.271  0.5259  1.1129 -0.4993
48746SOL     OW58216   2.144   4.013   1.487 -0.2614 -0.4817 -0.3506
48746SOL    HW158217   2.198   4.065   1.546 -0.8957  0.6573 -0.7375
48746SOL    HW258218   2.129   3.931   1.534 -0.5839  0.3176  0.9916
48747SOL     OW58219   5.397   7.449   1.281 -0.3904  0.1690 -0.4059
48747SOL    HW158220   5.311   7.435   1.241 -1.1259 -0.3969  1.2841
48747SOL    HW258221   5.378   7.481   1.369  1.0908 -1.0039  0.3870
48748SOL     OW58222   2.219  11.250   1.192 -0.2528  0.1106  0.1532
48748SOL    HW158223   2.184  11.335   1.167  1.8570  1.1373  0.5048
48748SOL    HW258224   2.151  11.213   1.249 -1.4174  1.3196 -0.3801
48749SOL     OW58225  12.316   0.500   7.512 -0.2665 -0.4892  0.3967
48749SOL    HW158226  12.377   0.426   7.516 -0.0562 -0.3760 -0.4491
48749SOL    HW258227  12.230   0.460   7.506 -0.2255 -0.6541  0.8298
48750SOL     OW58228   6.011   4.050  10.852 -0.2793  0.1429 -0.1820
48750SOL    HW158229   6.058   3.976  10.815  0.1811 -0.6004  1.7584
48750SOL    HW258230   6.078   4.117  10.865  0.1515 -0.5769  1.7032
48751SOL     OW58231   7.407  13.908  10.919 -0.3449 -0.4075 -0.3215
48751SOL    HW158232   7.400  13.861  11.002  0.5273  0.2150  0.1250
48751SOL    HW258233   7.350  13.860  10.859 -0.4115 -1.3077  0.4361
48752SOL     OW58234   6.501  10.976   2.535  0.3231  0.6686 -0.0546
48752SOL    HW158235   6.580  11.028   2.554  0.7215  0.5002 -1.2106
48752SOL    HW258236   6.534  10.892   2.505 -0.3183  0.2689  0.3384
48753SOL     OW58237  13.202   1.426   4.558 -0.4807 -0.7858  0.0018
48753SOL    HW158238  13.180   1.489   4.489 -0.6677  1.3387  1.8629
48753SOL    HW258239  13.117   1.390   4.585 -0.5051 -0.9260 -0.2603
48754SOL     OW58240   8.955  11.496   0.642 -0.3478 -0.0317  0.1640
48754SOL    HW158241   8.982  11.418   0.690  0.8868  0.0550 -0.3520
48754SOL    HW258242   9.030  11.516   0.585 -1.3716  0.4682 -1.0349
48755SOL     OW58243  13.087  12.426  11.767 -0.2296  0.0766  0.0606
48755SOL    HW158244  13.165  12.378  11.739 -1.2089 -0.4755 -1.9326
48755SOL    HW258245  13.117  12.517  11.776  1.0120 -0.4105  1.0714
48756SOL     OW58246   3.520   0.364  10.657 -0.3701  0.6635  0.0106
48756SOL    HW158247   3.533   0.275  10.623  2.1330  1.2571 -0.8004
48756SOL    HW258248   3.479   0.411  10.585  1.3600  0.9414 -0.8452
48757SOL     OW58249   6.188   8.584  12.465  0.1427 -0.4531 -0.0475
48757SOL    HW158250   6.177   8.677  12.444 -1.1066 -0.3973  0.7506
48757SOL    HW258251   6.281   8.574  12.486  0.3556  0.5330 -0.4698
48758SOL     OW58252  11.901   5.191   8.038 -0.1496 -0.0812  0.6319
48758SOL    HW158253  11.812   5.185   8.004 -0.1655 -0.9883  0.7967
48758SOL    HW258254  11.954   5.142   7.976 -0.0648 -1.1121  1.4737
48759SOL     OW58255   8.645  13.900  11.796 -0.2318  0.5824  0.0895
48759SOL    HW158256   8.686  13.824  11.754  2.3829  1.3865  0.9676
48759SOL    HW258257   8.555  13.873  11.813 -0.1378 -1.3316 -1.9989
48760SOL     OW58258   1.899  13.177   1.491  0.5947 -0.1373  0.1047
48760SOL    HW158259   1.991  13.152   1.478 -0.0284 -2.1380 -0.8219
48760SOL    HW258260   1.866  13.194   1.402 -0.6052 -2.1294  0.1154
48761SOL     OW58261   3.728   4.603   4.795  0.0157 -0.0651 -0.4055
48761SOL    HW158262   3.655   4.594   4.734 -1.8610 -1.3698  1.8623
48761SOL    HW258263   3.689   4.589   4.882  2.8353 -0.0297  0.9889
48762SOL     OW58264  10.131   0.600   4.792  0.2326  0.3574 -0.1349
48762SOL    HW158265  10.082   0.519   4.802 -0.3975  0.9750  2.6155
48762SOL    HW258266  10.134   0.615   4.698 -1.7381 -1.5858 -0.5772
48763SOL     OW58267  11.861   5.133   1.536  0.4531 -0.1572 -0.3322
48763SOL    HW158268  11.879   5.095   1.450 -0.4008 -2.3093  0.3992
48763SOL    HW258269  11.811   5.067   1.582 -0.0191  1.3814  1.4837
48764SOL     OW58270   8.139   2.602   8.259 -0.3178 -1.0547  0.1986
48764SOL    HW158271   8.118   2.688   8.223 -0.3857 -0.1061  2.3649
48764SOL    HW258272   8.225   2.581   8.225 -0.9914 -0.9332 -1.6972
48765SOL     OW58273   4.815   1.072   4.226  0.2875 -0.3126 -0.2865
48765SOL    HW158274   4.857   1.008   4.169 -0.1989 -1.4955  0.6216
48765SOL    HW258275   4.751   1.116   4.170 -0.2014 -1.4693 -0.6736
48766SOL     OW58276   4.765   1.273   8.287  0.1987  0.4935  0.3094
48766SOL    HW158277   4.704   1.263   8.360 -0.2553 -0.5421 -0.1976
48766SOL    HW258278   4.733   1.351   8.240 -1.0812 -0.3374 -0.2558
48767SOL     OW58279   7.161   2.311   3.718  0.7808  0.0715  0.1867
48767SOL    HW158280   7.120   2.287   3.801 -1.1195 -0.4158 -0.8223
48767SOL    HW258281   7.146   2.405   3.711 -0.1381 -0.0822 -0.1183
48768SOL     OW58282   5.360  13.095   1.633 -0.1176  0.0465  0.6609
48768SOL    HW158283   5.413  13.016   1.640  0.5791  0.2590 -1.5027
48768SOL    HW258284   5.289  13.071   1.573  0.9103  1.3932 -1.2171
48769SOL     OW58285   2.450  13.677  11.888 -0.1030 -0.3904 -0.4526
48769SOL    HW158286   2.481  13.754  11.841 -1.3725 -0.5808 -1.6591
48769SOL    HW258287   2.494  13.604  11.846  0.0303 -0.4369 -0.2339
48770SOL     OW58288   1.920  10.454   0.261 -0.0536 -0.0241 -0.7554
48770SOL    HW158289   1.906  10.514   0.335 -3.5137 -0.9210 -0.5302
48770SOL    HW258290   1.866  10.490   0.191  0.9260 -0.7761 -1.9304
48771SOL     OW58291  12.222   8.176   5.313 -0.0522  0.1065  0.1539
48771SOL    HW158292  12.222   8.229   5.233 -1.9036  1.1992  0.8153
48771SOL    HW258293  12.314   8.158   5.329  0.3840 -0.0984 -2.1820
48772SOL     OW58294   9.350  11.453   8.362 -0.3820 -0.0925 -0.1737
48772SOL    HW158295   9.350  11.385   8.429 -1.3650 -0.5580 -0.6336
48772SOL    HW258296   9.301  11.525   8.400 -0.4184 -0.1200 -0.1687
48773SOL     OW58297   1.183   2.505   3.252  0.4230 -0.1922  0.7950
48773SOL    HW158298   1.095   2.528   3.222  0.7102  1.7618  1.3287
48773SOL    HW258299   1.241   2.566   3.207  1.5930 -1.8098  0.0439
48774SOL     OW58300   9.129   9.030   0.441 -0.1336  0.0190  0.3850
48774SOL    HW158301   9.217   9.066   0.442 -0.5396  1.0770 -0.7996
48774SOL    HW258302   9.139   8.942   0.404  0.3739  0.2881 -0.1274
48775SOL     OW58303  13.842   3.236   7.794 -0.2822  0.2801  0.1921
48775SOL    HW158304  13.799   3.296   7.856 -0.0168 -0.0783  0.7270
48775SOL    HW258305  13.935   3.259   7.799 -0.4062  1.1469 -1.0653
48776SOL     OW58306  10.095   1.964   8.325 -0.2324  0.0910  0.2071
48776SOL    HW158307  10.160   1.993   8.261  1.1753 -2.0436  0.5716
48776SOL    HW258308  10.137   1.981   8.410 -1.4004  1.3772  0.5576
48777SOL     OW58309  12.792   8.197   2.143  0.0946  0.5402  0.2898
48777SOL    HW158310  12.768   8.289   2.158 -0.6837  0.0405  2.4829
48777SOL    HW258311  12.872   8.185   2.194 -0.3535 -0.2446  0.8180
48778SOL     OW58312   0.053   9.215  13.005 -0.1574  0.1780  0.4101
48778SOL    HW158313  -0.020   9.170  12.964 -0.5488  1.8827 -0.8617
48778SOL    HW258314   0.029   9.222  13.097 -1.8536  1.1418 -0.0701
48779SOL     OW58315  13.308   0.116   6.241  0.0634  0.2482 -0.9166
48779SOL    HW158316  13.339   0.194   6.195  1.4971 -0.5572 -1.3933
48779SOL    HW258317  13.371   0.105   6.313 -1.2282  0.5854  0.3061
48780SOL     OW58318   9.845   4.054  11.617 -0.0551 -0.0948 -0.6666
48780SOL    HW158319   9.917   4.116  11.622 -0.4148  0.3489 -0.8774
48780SOL    HW258320   9.789   4.089  11.548 -0.2240 -0.6964 -0.8359
48781SOL     OW58321  11.399   5.644   4.530 -0.1709 -0.3925  0.3312
48781SOL    HW158322  11.361   5.704   4.466  1.3817  0.5137  0.2111
48781SOL    HW258323  11.393   5.558   4.489 -0.3988 -0.0097 -0.4587
48782SOL     OW58324   2.647   3.055  12.690  0.4606 -0.1236 -0.3261
48782SOL    HW158325   2.571   3.006  12.659  0.3949 -0.0356 -0.3046
48782SOL    HW258326   2.695   3.078  12.610 -0.8204  1.9546 -0.5758
48783SOL     OW58327  12.040   5.156   7.795 -0.2155  0.0927  0.5116
48783SOL    HW158328  12.103   5.103   7.746 -0.7426 -0.3780  0.3320
48783SOL    HW258329  12.062   5.247   7.773 -0.9261 -0.1162 -1.2146
48784SOL     OW58330  10.621   2.335  12.317 -0.4772  0.5156  0.2781
48784SOL    HW158331  10.586   2.422  12.338  0.1655  1.1406 -1.1141
48784SOL    HW258332  10.714   2.350  12.303 -0.2309 -0.5413  0.7492
48785SOL     OW58333   6.948   1.173   1.565  0.0379  0.0544  0.2180
48785SOL    HW158334   6.958   1.260   1.603 -0.5572 -0.0033  0.5251
48785SOL    HW258335   7.018   1.167   1.501 -0.7250  1.2728 -0.7759
48786SOL     OW58336   5.759   3.948   7.035 -0.1886 -0.1578 -0.3094
48786SOL    HW158337   5.854   3.956   7.045  0.2076 -1.7421 -2.2615
48786SOL    HW258338   5.728   4.039   7.030  1.2422  0.3867  0.0433
48787SOL     OW58339   7.255   7.774   9.592 -0.5432  0.0809 -0.1507
48787SOL    HW158340   7.162   7.774   9.571 -0.9291 -1.8141  1.3242
48787SOL    HW258341   7.264   7.839   9.662 -0.3185  1.8606 -1.7510
48788SOL     OW58342   0.208   8.221   7.800 -0.2688  0.5307 -0.6980
48788SOL    HW158343   0.253   8.305   7.814  1.3344 -0.1452 -1.6631
48788SOL    HW258344   0.224   8.173   7.881 -1.8098  1.3886  0.1608
48789SOL     OW58345   2.255   3.996   3.203 -0.0772 -0.2426  0.2800
48789SOL    HW158346   2.189   4.065   3.213  1.1130  0.8550  0.7958
48789SOL    HW258347   2.308   4.025   3.128  0.7640 -0.3054  0.8388
48790SOL     OW58348   4.938   9.673  10.281 -0.5710  0.1596 -0.2848
48790SOL    HW158349   4.990   9.620  10.219  0.1046 -0.2757  0.6278
48790SOL    HW258350   4.961   9.638  10.367 -0.1514  1.8997  0.3520
48791SOL     OW58351   2.674  11.160   6.168 -0.0847  0.3962 -0.2561
48791SOL    HW158352   2.653  11.068   6.181  1.5328 -0.0903 -0.8727
48791SOL    HW258353   2.755  11.160   6.118 -0.7670  2.1554 -1.5061
48792SOL     OW58354   5.747   2.027  10.791 -0.9132  0.1864  0.0492
48792SOL    HW158355   5.784   2.071  10.715 -0.8772 -0.3104 -0.2249
48792SOL    HW258356   5.768   1.934  10.778  0.1696  0.2280  1.2686
48793SOL     OW58357  13.776   8.113   8.759 -0.4263  0.0617  0.2529
48793SOL    HW158358  13.804   8.163   8.835 -0.1327  1.3771 -0.6917
48793SOL    HW258359  13.766   8.178   8.690 -1.9984 -0.9270 -0.4860
48794SOL     OW58360   2.041  11.043   3.928 -0.4289 -0.0933 -0.0469
48794SOL    HW158361   2.054  11.137   3.914  0.7847 -0.0946  0.8864
48794SOL    HW258362   1.952  11.035   3.962 -1.3603  0.4684 -2.1629
48795SOL     OW58363   0.027   5.329   0.326 -0.0836 -0.4043 -0.5792
48795SOL    HW158364   0.037   5.323   0.231  0.3847 -2.5321 -0.4443
48795SOL    HW258365   0.001   5.419   0.341  2.0804  0.6778 -2.5256
48796SOL     OW58366  12.364  13.266   6.156  0.6443 -0.9822  0.2601
48796SOL    HW158367  12.325  13.350   6.179  2.5660 -0.3619  1.5211
48796SOL    HW258368  12.442  13.260   6.211  0.4670 -3.6988  0.3661
48797SOL     OW58369   1.235  13.770  12.182 -0.3040  0.2098 -0.1213
48797SOL    HW158370   1.145  13.772  12.213 -1.1477  0.5388 -2.3594
48797SOL    HW258371   1.233  13.818  12.099  1.9304  0.2012 -0.2566
48798SOL     OW58372  10.218   8.829  13.008 -0.1329  0.0348  0.0826
48798SOL    HW158373  10.293   8.810  13.064  0.6579  2.3867 -0.0588
48798SOL    HW258374  10.253   8.831  12.919 -0.3605  1.0871  0.0078
48799SOL     OW58375   3.123   3.237   5.417 -0.0319  0.2615 -0.3299
48799SOL    HW158376   3.066   3.164   5.438 -0.6808  0.4269 -1.4721
48799SOL    HW258377   3.071   3.315   5.439 -0.5309  0.4266 -1.9868
48800SOL     OW58378   2.059   7.666   9.027  0.9321 -0.3593  0.4562
48800SOL    HW158379   2.021   7.745   9.065  2.5680  1.3120 -1.1654
48800SOL    HW258380   2.150   7.667   9.055  1.0665 -1.5084  0.1130
48801SOL     OW58381   9.294   3.516   2.809  0.2205 -0.0973  0.0616
48801SOL    HW158382   9.267   3.425   2.824 -1.5253 -0.0862 -2.3320
48801SOL    HW258383   9.356   3.510   2.736 -0.6981  0.6834 -0.8022
48802SOL     OW58384   2.092  11.912  12.580 -0.4822 -0.0731 -0.2210
48802SOL    HW158385   2.107  11.839  12.640 -2.9671 -0.3910  0.1148
48802SOL    HW258386   2.179  11.934  12.546  0.5596 -1.9604  1.0786
48803SOL     OW58387  11.801   1.748  11.981 -0.3290  0.3741  0.0511
48803SOL    HW158388  11.782   1.806  11.907 -0.2637  1.6273  0.9836
48803SOL    HW258389  11.732   1.682  11.979 -1.5909  1.6525  0.1409
48804SOL     OW58390   3.534  13.052   0.706 -0.4003 -0.1488 -0.1669
48804SOL    HW158391   3.496  12.984   0.650  0.0597  1.2881 -2.3892
48804SOL    HW258392   3.464  13.076   0.766 -1.3577 -0.8986 -0.9481
48805SOL     OW58393   4.299   5.033  10.083 -0.2302 -0.5462  0.0812
48805SOL    HW158394   4.284   4.966  10.150 -0.5779 -1.0859 -0.5225
48805SOL    HW258395   4.393   5.028  10.065  0.4449  1.5160  2.4891
48806SOL     OW58396   3.594   9.945   6.411 -0.4035  0.5584  0.0453
48806SOL    HW158397   3.673   9.959   6.463 -0.4423 -1.7550  0.8302
48806SOL    HW258398   3.573  10.032   6.376  1.6454  1.5007  0.9805
48807SOL     OW58399  13.429   4.263   8.507 -0.2228  0.6089 -0.2692
48807SOL    HW158400  13.467   4.209   8.575 -0.1217 -0.2236 -0.9769
48807SOL    HW258401  13.477   4.240   8.427 -1.1743  0.6452 -0.8714
48808SOL     OW58402   5.574  10.510  11.628  0.2049 -0.1547  0.4295
48808SOL    HW158403   5.505  10.544  11.571 -0.3037 -0.6034  0.7728
48808SOL    HW258404   5.536  10.432  11.668  1.1371 -0.7896  0.1270
48809SOL     OW58405  10.455   4.159   5.958  0.5352 -0.4446 -0.0311
48809SOL    HW158406  10.515   4.166   6.032 -0.2375 -3.0622  0.9639
48809SOL    HW258407  10.376   4.205   5.986  1.2319  1.0309 -0.4226
48810SOL     OW58408   5.932  10.538  13.932 -0.5530  0.3602 -0.2359
48810SOL    HW158409   5.911  10.631  13.930 -1.1802  0.3141  1.8280
48810SOL    HW258410   6.016  10.533  13.977  0.1769 -0.0022 -1.5892
48811SOL     OW58411  10.820   9.895   5.469 -0.0819 -0.6723  0.7351
48811SOL    HW158412  10.790   9.963   5.408  1.8577 -2.0516 -1.9342
48811SOL    HW258413  10.741   9.843   5.487 -0.7590 -0.0841 -0.4181
48812SOL     OW58414  12.222  10.391   4.520 -0.2643 -0.3389  0.3758
48812SOL    HW158415  12.278  10.465   4.498 -0.1363 -0.7068 -0.6037
48812SOL    HW258416  12.273  10.340   4.583 -0.3365  0.3691  1.0175
48813SOL     OW58417   6.632   4.108   6.415  0.2835 -0.1817 -0.3192
48813SOL    HW158418   6.684   4.043   6.461 -0.6068 -0.4190  0.3766
48813SOL    HW258419   6.685   4.188   6.417  0.7767 -0.5204  0.0505
48814SOL     OW58420  12.732   1.034   3.568 -0.3280  0.2669 -0.2213
48814SOL    HW158421  12.821   1.039   3.603  0.3035  1.9713 -1.8633
48814SOL    HW258422  12.678   1.080   3.632  0.0748 -0.2142  0.4730
48815SOL     OW58423   9.837   9.342  10.205 -0.6529 -0.2203  0.1050
48815SOL    HW158424   9.747   9.318  10.187 -0.6615  0.4760 -0.8143
48815SOL    HW258425   9.849   9.319  10.298 -1.5332 -0.9986  0.0461
48816SOL     OW58426   5.495   9.559   9.887  0.5926 -0.2582  0.2341
48816SOL    HW158427   5.501   9.582   9.980  0.1139 -0.8739  0.4219
48816SOL    HW258428   5.448   9.476   9.886 -2.2969  1.2638 -0.7651
48817SOL     OW58429   2.225   7.421  13.300 -0.5917 -0.5710  0.2095
48817SOL    HW158430   2.270   7.378  13.372 -0.7151 -0.9769  0.0442
48817SOL    HW258431   2.133   7.419  13.325 -0.4791  0.7475  0.8088
48818SOL     OW58432   4.609   4.430   8.334 -0.0458 -0.0874  0.4885
48818SOL    HW158433   4.618   4.475   8.418 -1.1465 -0.0087  0.5811
48818SOL    HW258434   4.527   4.463   8.298  0.8374  0.5488 -1.0446
48819SOL     OW58435   5.592   5.728   4.470  0.4538  0.2865 -0.0153
48819SOL    HW158436   5.572   5.689   4.555  1.3032  1.7240  0.8903
48819SOL    HW258437   5.651   5.800   4.490  1.3851  0.1307 -1.9265
48820SOL     OW58438  12.271   8.441   6.621  0.4360 -0.2750 -0.4217
48820SOL    HW158439  12.337   8.505   6.594  0.3540 -0.0869 -0.1810
48820SOL    HW258440  12.256   8.388   6.543 -0.5661  0.9209 -1.0924
48821SOL     OW58441   9.739  13.075  13.287  0.3489  0.3150 -0.1635
48821SOL    HW158442   9.695  13.087  13.203 -3.1732 -3.9211  0.7368
48821SOL    HW258443   9.702  13.144  13.343 -2.1602 -0.6223 -0.5549
48822SOL     OW58444   8.469   2.839   8.249 -0.5378 -0.3483 -0.1257
48822SOL    HW158445   8.548   2.891   8.259 -0.4937 -0.0292 -1.7615
48822SOL    HW258446   8.415   2.889   8.188 -0.7254 -1.9321 -1.3256
48823SOL     OW58447  11.162   5.557   4.268 -0.3642  0.1175  0.2417
48823SOL    HW158448  11.207   5.582   4.187 -1.2764 -0.6953 -0.5362
48823SOL    HW258449  11.131   5.640   4.304  0.5389  0.5458  0.0730
48824SOL     OW58450  12.427  10.986   7.882  0.0575 -0.4018  0.0990
48824SOL    HW158451  12.469  11.016   7.962 -0.0442 -0.6864  0.2589
48824SOL    HW258452  12.343  11.032   7.880 -2.9244 -4.9037  3.4278
48825SOL     OW58453   4.480  10.231   7.299  0.1273  0.1530 -0.2597
48825SOL    HW158454   4.573  10.251   7.288  0.0319  0.2304 -0.9608
48825SOL    HW258455   4.449  10.207   7.211 -0.7085  0.9610 -0.2018
48826SOL     OW58456   5.990  10.721  11.121 -0.4909  0.5866 -0.3344
48826SOL    HW158457   6.033  10.702  11.205  0.8866 -1.3625 -1.4127
48826SOL    HW258458   6.061  10.727  11.058 -1.6061  0.5080 -1.6485
48827SOL     OW58459   8.244   5.109   8.475 -0.3307  0.1890 -0.6582
48827SOL    HW158460   8.173   5.147   8.422  0.4255  3.7227  0.6132
48827SOL    HW258461   8.199   5.063   8.545 -1.3405 -0.5315 -1.7463
48828SOL     OW58462  13.241  11.888  13.084  0.8196  0.0997 -0.2252
48828SOL    HW158463  13.280  11.883  12.997  1.6704 -1.4251  0.1968
48828SOL    HW258464  13.285  11.819  13.134 -1.3526 -0.6928  0.7285
48829SOL     OW58465  13.817  11.931   6.547  0.5368 -0.2585  0.0367
48829SOL    HW158466  13.725  11.930   6.522  0.9047 -1.2911 -1.4463
48829SOL    HW258467  13.843  12.023   6.544 -0.1802 -0.0690 -0.6107
48830SOL     OW58468  10.209   3.995   4.637  0.1978 -0.0248  0.1610
48830SOL    HW158469  10.155   3.929   4.594  0.6078 -0.4616  0.3062
48830SOL    HW258470  10.147   4.059   4.671 -0.1968 -0.2801 -0.0780
48831SOL     OW58471   8.201   3.680   5.509 -0.0717  0.3008 -0.1916
48831SOL    HW158472   8.276   3.738   5.522 -0.4577  0.9404 -0.7730
48831SOL    HW258473   8.125   3.738   5.512 -0.4174 -0.0638 -1.4897
48832SOL     OW58474   2.323   2.958  11.650 -0.0751 -0.1172 -0.5321
48832SOL    HW158475   2.323   2.862  11.648  1.2727 -0.1827  0.6836
48832SOL    HW258476   2.412   2.982  11.623  0.0554  0.7250  0.5905
48833SOL     OW58477   2.914   4.079  10.755  0.2570 -0.7096 -0.5530
48833SOL    HW158478   2.958   4.164  10.750  2.1759 -1.4781  1.3272
48833SOL    HW258479   2.939   4.045  10.841 -1.3431 -2.7286 -0.8126
48834SOL     OW58480  10.639   9.979  12.787  0.2832 -0.2489  0.1210
48834SOL    HW158481  10.593  10.030  12.854  0.9357  1.4778 -0.6874
48834SOL    HW258482  10.729  10.010  12.790  1.3523 -3.1337  1.2433
48835SOL     OW58483   3.970   4.431   8.696  0.7576 -0.0314  0.1664
48835SOL    HW158484   4.029   4.428   8.621  0.2314 -0.6050 -0.2277
48835SOL    HW258485   3.902   4.367   8.677 -0.8735  1.6830 -0.1144
48836SOL     OW58486  11.535   1.356  10.016 -0.4793 -0.3076  0.0139
48836SOL    HW158487  11.523   1.392   9.928  2.0625 -0.5633 -0.5006
48836SOL    HW258488  11.595   1.417  10.058 -1.3667 -0.3974  1.4870
48837SOL     OW58489   0.128   3.483   8.101  0.0281 -0.5985  0.1470
48837SOL    HW158490   0.222   3.478   8.120 -0.2260  0.6771  2.0031
48837SOL    HW258491   0.107   3.398   8.063  1.9920 -0.7884 -0.6374
48838SOL     OW58492  13.349   0.099   6.990 -0.3917 -0.2923  0.2840
48838SOL    HW158493  13.294   0.064   6.920 -1.4321  1.0240  0.3969
48838SOL    HW258494  13.420   0.145   6.944 -1.0464  0.5284  0.0688
48839SOL     OW58495   5.134  10.318   7.830  0.3259  0.1551  0.5539
48839SOL    HW158496   5.070  10.380   7.864 -0.4259  0.0207 -0.5670
48839SOL    HW258497   5.213  10.370   7.815 -0.8310  1.2839 -2.0551
48840SOL     OW58498   0.962   5.381   3.938 -0.2136 -0.2555 -0.0840
48840SOL    HW158499   0.960   5.443   3.865  2.8317 -1.7124 -1.5506
48840SOL    HW258500   1.001   5.430   4.010  0.5316  0.0706 -0.6917
48841SOL     OW58501   6.027   3.323   3.581 -0.0163  0.5475 -0.1635
48841SOL    HW158502   5.989   3.411   3.574 -0.3993  0.5400  1.3641
48841SOL    HW258503   5.958   3.271   3.622  0.6347 -0.1686  0.0382
48842SOL     OW58504   1.733   8.091  11.068  0.5835 -0.2668  0.1070
48842SOL    HW158505   1.740   8.091  10.973  0.6119 -0.9705  0.1062
48842SOL    HW258506   1.689   8.173  11.088  0.5523 -0.1257 -0.5160
48843SOL     OW58507  13.387   4.279   1.849  0.0538 -0.0203 -0.5600
48843SOL    HW158508  13.294   4.301   1.860  0.0415 -0.5072  0.4111
48843SOL    HW258509  13.392   4.243   1.760 -1.3215 -2.9227  0.4063
48844SOL     OW58510  13.642   3.642   5.838  0.4249 -0.0038  0.2982
48844SOL    HW158511  13.707   3.633   5.907 -1.0787  0.4600  1.8507
48844SOL    HW258512  13.621   3.552   5.813  0.9996 -0.1750  0.4273
48845SOL     OW58513   7.085   5.962  11.971  0.0775  0.3751 -0.1149
48845SOL    HW158514   7.166   6.013  11.972  0.7074 -0.5899 -0.1665
48845SOL    HW258515   7.055   5.963  12.062 -0.4956  1.6997 -0.2971
48846SOL     OW58516   6.803   2.117   5.689 -0.4250 -0.3446  0.0792
48846SOL    HW158517   6.892   2.108   5.721 -0.7319 -0.7659  0.8299
48846SOL    HW258518   6.749   2.121   5.768 -0.8833  2.1809 -0.2889
48847SOL     OW58519   9.826   2.078   2.299  0.0317 -0.4869  0.3945
48847SOL    HW158520   9.745   2.120   2.331  0.0092 -1.5066  1.8083
48847SOL    HW258521   9.896   2.130   2.337  0.0038 -1.6849  2.2214
48848SOL     OW58522  13.197  10.191   9.062  0.2583 -0.1916 -0.3704
48848SOL    HW158523  13.111  10.158   9.036  0.3359 -0.8303  0.1569
48848SOL    HW258524  13.178  10.268   9.116  0.0156 -0.3701 -0.2002
48849SOL     OW58525   9.658   1.723   4.568  0.0935 -0.0018 -0.5973
48849SOL    HW158526   9.730   1.769   4.525 -0.0410  0.3754 -0.4252
48849SOL    HW258527   9.681   1.630   4.560 -0.3516 -0.0012 -2.2170
48850SOL     OW58528   6.341   3.133   6.171 -0.6982 -0.3054 -0.1218
48850SOL    HW158529   6.378   3.166   6.253  1.1058  0.2572 -1.0891
48850SOL    HW258530   6.349   3.207   6.110 -3.6538 -0.1101 -0.3970
48851SOL     OW58531   6.888   6.375  12.611 -0.3587  0.6379 -0.0515
48851SOL    HW158532   6.902   6.423  12.693 -1.0165 -0.9159  1.0447
48851SOL    HW258533   6.882   6.283  12.639 -3.0059  0.2695 -1.5372
48852SOL     OW58534  11.106   9.925   1.998 -0.1768 -0.0371  0.0696
48852SOL    HW158535  11.038   9.895   1.938 -0.2264 -0.6873  0.4403
48852SOL    HW258536  11.105   9.861   2.069  0.0750  0.5650  0.6235
48853SOL     OW58537   8.121   2.691   7.199  0.4249 -0.2821  0.5673
48853SOL    HW158538   8.128   2.621   7.264  1.1891 -0.2532  0.5223
48853SOL    HW258539   8.137   2.649   7.115  1.4379  0.0280  0.5890
48854SOL     OW58540  10.085   7.316   5.800  0.5704 -0.1344 -0.2352
48854SOL    HW158541  10.175   7.347   5.796  0.5836 -0.3198 -2.7785
48854SOL    HW258542  10.093   7.221   5.809  0.5707 -0.0268  1.1615
48855SOL     OW58543   0.319  14.032   2.865 -0.7242 -0.3000  0.3798
48855SOL    HW158544   0.323  14.127   2.857  0.3214 -0.1771  1.9096
48855SOL    HW258545   0.227  14.010   2.848 -1.0247  0.9926  0.2234
48856SOL     OW58546   7.366   1.361  12.981  0.8101 -0.1494 -0.2692
48856SOL    HW158547   7.372   1.452  12.951 -0.6143 -0.1252 -0.5484
48856SOL    HW258548   7.425   1.312  12.924  2.4090  0.7316  0.5565
48857SOL     OW58549  10.512  12.226  11.018  0.1293 -0.4672  0.1336
48857SOL    HW158550  10.590  12.269  10.984 -0.8314 -0.1281 -1.7516
48857SOL    HW258551  10.526  12.133  10.999  1.8441 -1.0699  3.4988
48858SOL     OW58552   1.784  13.910  11.091  0.6420  0.3707 -0.5002
48858SOL    HW158553   1.731  13.873  11.161  0.6573  0.4272 -0.4584
48858SOL    HW258554   1.774  14.005  11.100  0.7086  0.3804 -0.5239
48859SOL     OW58555   2.609   7.776  12.203 -0.0080  0.1707  0.2874
48859SOL    HW158556   2.634   7.831  12.128 -1.8380  1.6036  0.6389
48859SOL    HW258557   2.513   7.785  12.208 -0.0428 -0.7511  2.1485
48860SOL     OW58558   5.943   5.565   8.890  0.1855  0.2488  0.2659
48860SOL    HW158559   5.899   5.649   8.902  0.0443  0.4018 -1.1501
48860SOL    HW258560   5.878   5.500   8.916 -0.6173  0.5043 -1.0197
48861SOL     OW58561   2.385  10.320  13.230 -0.2178  0.0316  0.6031
48861SOL    HW158562   2.404  10.294  13.140  0.0486 -1.3859  1.0573
48861SOL    HW258563   2.417  10.410  13.235 -0.3822  0.1967 -0.7527
48862SOL     OW58564   6.445  11.391   2.524 -0.1750 -0.3875  0.3989
48862SOL    HW158565   6.486  11.388   2.611  1.8548  0.2462 -0.4742
48862SOL    HW258566   6.426  11.484   2.510  0.1559 -0.3955 -0.1154
48863SOL     OW58567   6.302   8.562   3.437 -0.5507 -0.0186 -0.4694
48863SOL    HW158568   6.224   8.606   3.470 -0.8783 -1.0264  0.1315
48863SOL    HW258569   6.302   8.580   3.343 -1.9509 -0.6631 -0.6149
48864SOL     OW58570   6.816   2.782  12.323  0.4409 -0.3159 -0.0187
48864SOL    HW158571   6.902   2.764  12.361 -0.2763  1.3014  2.7175
48864SOL    HW258572   6.763   2.705  12.344  0.7173 -0.5007  0.0002
48865SOL     OW58573   6.083   1.812   5.617  0.3890 -0.4048  0.5001
48865SOL    HW158574   6.028   1.792   5.693 -1.6232 -0.0211 -0.7701
48865SOL    HW258575   6.115   1.726   5.588 -1.3086 -0.9204  0.0398
48866SOL     OW58576   1.526  13.298   8.670 -0.2063  0.6811 -0.2187
48866SOL    HW158577   1.437  13.329   8.684 -0.1186  1.1676 -0.7323
48866SOL    HW258578   1.525  13.258   8.583  0.3056  1.5502 -0.6350
48867SOL     OW58579  10.842   4.172   7.544 -0.6443  0.4335 -0.6915
48867SOL    HW158580  10.923   4.123   7.528 -0.9359 -0.1614 -0.3984
48867SOL    HW258581  10.788   4.112   7.595 -0.6967  1.3693  0.3980
48868SOL     OW58582   6.654   2.172   6.216 -0.0056  0.3329  0.2791
48868SOL    HW158583   6.730   2.145   6.267  0.3085  0.0555 -0.3296
48868SOL    HW258584   6.590   2.102   6.229 -0.4847  0.9694  1.4699
48869SOL     OW58585   1.340   4.419  12.284 -0.0590 -0.2822 -0.1807
48869SOL    HW158586   1.340   4.392  12.376 -1.2114  2.1967  0.6530
48869SOL    HW258587   1.299   4.505  12.285  1.9918  0.8641 -2.7365
48870SOL     OW58588   7.213   2.494   2.648 -0.4651 -0.1181 -0.0630
48870SOL    HW158589   7.280   2.434   2.617 -1.0065 -1.1603  0.7080
48870SOL    HW258590   7.211   2.482   2.743  0.1107  1.8825  0.2509
48871SOL     OW58591  11.638  12.549   2.504  0.2996 -0.3677  0.1890
48871SOL    HW158592  11.643  12.551   2.599 -1.5254  0.9308  0.3078
48871SOL    HW258593  11.692  12.623   2.475  0.3494 -0.3771  0.2580
48872SOL     OW58594   3.244  11.098  10.718 -0.1511 -0.5139 -0.0685
48872SOL    HW158595   3.251  11.046  10.798  0.2263 -1.9883 -1.0125
48872SOL    HW258596   3.294  11.048  10.653 -0.0418  0.8923 -1.1083
48873SOL     OW58597   6.405   8.650   0.506  0.0056  0.4773  0.4285
48873SOL    HW158598   6.448   8.709   0.444  1.6342  0.8453  1.8243
48873SOL    HW258599   6.450   8.566   0.495 -0.5823  0.1826  0.2177
48874SOL     OW58600  13.195   4.423   9.291  0.3578 -0.6070  0.5541
48874SOL    HW158601  13.254   4.486   9.332  1.1577  0.5251 -2.1747
48874SOL    HW258602  13.108   4.461   9.304  0.9756  3.2623 -4.0745
48875SOL     OW58603   3.672   0.590   2.761 -0.3123 -0.5100 -0.2524
48875SOL    HW158604   3.714   0.662   2.714  0.7554  0.4846  2.0975
48875SOL    HW258605   3.586   0.624   2.786 -0.1699 -0.3745  0.0586
48876SOL     OW58606  12.373  12.848   8.757 -0.1933  0.0154  0.6621
48876SOL    HW158607  12.439  12.792   8.797  0.1278  0.3654  0.6206
48876SOL    HW258608  12.324  12.885   8.830  0.1350  0.3377  0.7235
48877SOL     OW58609   8.835   0.354   1.468  0.0295 -0.3046 -0.3786
48877SOL    HW158610   8.855   0.412   1.541  0.2469 -1.7345  0.7400
48877SOL    HW258611   8.740   0.341   1.473 -0.2361  0.9689 -1.4529
48878SOL     OW58612   1.410   3.411  13.461  0.9332 -0.2916  0.0499
48878SOL    HW158613   1.412   3.451  13.374  0.3458 -0.1622  0.0868
48878SOL    HW258614   1.449   3.477  13.519  0.3061  0.0934  0.0525
48879SOL     OW58615  13.916  11.543   3.403 -0.2138  0.0741  0.0472
48879SOL    HW158616  13.971  11.469   3.427 -1.6338 -0.8158  0.6725
48879SOL    HW258617  13.906  11.593   3.484 -0.5553  0.0609  0.0165
48880SOL     OW58618   0.795   4.427   4.253 -0.0676 -0.7200  0.8132
48880SOL    HW158619   0.865   4.488   4.230  0.8626 -1.9485  0.2795
48880SOL    HW258620   0.821   4.393   4.339 -0.3887 -0.6467  0.9408
48881SOL     OW58621   4.076   4.221   9.013 -0.2122 -0.0290  0.9508
48881SOL    HW158622   4.087   4.315   9.000  1.8119 -0.1755  1.3970
48881SOL    HW258623   4.002   4.198   8.956  0.7462  1.4324 -0.9964
48882SOL     OW58624   5.130   0.825  13.068 -0.5399 -0.0081  0.3173
48882SOL    HW158625   5.107   0.761  13.135 -1.5374 -0.3269 -0.3040
48882SOL    HW258626   5.142   0.773  12.988 -0.0719  0.4393  0.0865
48883SOL     OW58627  13.760   9.327   1.954  0.3297  0.2093  0.3784
48883SOL    HW158628  13.814   9.390   2.001 -0.5531  0.7062  0.7495
48883SOL    HW258629  13.701   9.291   2.020 -1.3285  1.3368 -0.3900
48884SOL     OW58630   2.731   8.309  12.143  0.4973  0.3946  0.2905
48884SOL    HW158631   2.757   8.355  12.223  0.2368 -0.9462  1.1719
48884SOL    HW258632   2.813   8.293  12.097  0.4455  4.2159 -1.5364
48885SOL     OW58633   4.476   8.737   6.711 -0.7233 -0.2209  0.1559
48885SOL    HW158634   4.540   8.788   6.661 -1.4239  0.9207  0.3805
48885SOL    HW258635   4.430   8.802   6.765 -2.5772 -0.8811 -0.5412
48886SOL     OW58636   2.546  10.556  11.434  0.2151 -0.4165  0.1208
48886SOL    HW158637   2.629  10.556  11.387  0.1499  0.0227 -0.0007
48886SOL    HW258638   2.479  10.554  11.365  0.1070 -2.6873  0.2280
48887SOL     OW58639   6.027  12.186   6.565 -0.9476  0.0595 -0.6308
48887SOL    HW158640   5.953  12.154   6.617 -0.2660 -0.9691 -0.2688
48887SOL    HW258641   6.000  12.273   6.537 -3.9103 -1.5202 -3.5380
48888SOL     OW58642  10.937   4.464   5.888 -0.0392 -0.2853 -0.2230
48888SOL    HW158643  10.968   4.431   5.972  0.5384  1.3655  0.2728
48888SOL    HW258644  10.871   4.529   5.910  0.5246  0.5917 -0.9876
48889SOL     OW58645   6.023   0.198   0.239  0.2216 -0.3749 -0.0193
48889SOL    HW158646   6.041   0.117   0.285 -0.5362 -1.9390 -2.2877
48889SOL    HW258647   5.953   0.240   0.289 -1.7629 -2.8213 -0.5829
48890SOL     OW58648   7.453   8.964   9.877  0.4051 -0.4437  0.0925
48890SOL    HW158649   7.495   8.909   9.943  1.2973  0.0463 -0.0450
48890SOL    HW258650   7.483   8.927   9.793 -0.0877 -0.5796 -0.0261
48891SOL     OW58651   6.125   1.524   2.395  0.7901 -0.7025 -0.1174
48891SOL    HW158652   6.127   1.611   2.355  1.9024 -1.6204 -2.2284
48891SOL    HW258653   6.043   1.486   2.365 -1.2952  0.6072  3.3470
48892SOL     OW58654   3.679   6.066   9.511 -0.0592  0.4092 -0.2749
48892SOL    HW158655   3.710   5.982   9.480 -0.7899  0.8495 -2.3458
48892SOL    HW258656   3.593   6.047   9.548  0.4029  0.0390  0.6501
48893SOL     OW58657   9.754   7.481   9.805 -0.3848 -0.4700 -0.0784
48893SOL    HW158658   9.815   7.552   9.783  0.1394 -0.6867  0.6561
48893SOL    HW258659   9.727   7.499   9.894 -1.4651 -0.3430 -0.4162
48894SOL     OW58660   4.890   5.402  13.344  0.0584 -0.0210  0.0444
48894SOL    HW158661   4.943   5.432  13.270  0.5318  1.5139  0.9702
48894SOL    HW258662   4.828   5.473  13.360  0.8064  0.2610  1.9129
48895SOL     OW58663   5.594   1.653   1.225 -0.0968  0.2541  0.3568
48895SOL    HW158664   5.664   1.613   1.277  0.7386  0.8384 -0.2988
48895SOL    HW258665   5.619   1.745   1.218  0.0286  0.1101 -1.4225
48896SOL     OW58666  10.428   3.386   1.768  0.2090 -0.1590 -0.2386
48896SOL    HW158667  10.344   3.396   1.812  0.8039  2.4685  0.4332
48896SOL    HW258668  10.493   3.389   1.838  0.9589 -0.0835 -0.9197
48897SOL     OW58669   8.054  13.829   5.579  0.3419  0.0778 -0.1341
48897SOL    HW158670   7.995  13.765   5.539 -0.7432  0.3152  1.0061
48897SOL    HW258671   8.118  13.849   5.511 -0.5794 -0.5994 -1.2352
48898SOL     OW58672   3.065   5.878   4.801 -0.2838  0.0924  0.6342
48898SOL    HW158673   2.987   5.864   4.855 -0.9653  1.4387  0.0637
48898SOL    HW258674   3.138   5.879   4.863 -0.9256  0.4991  1.4048
48899SOL     OW58675   9.028  10.996   6.543 -0.2132  0.1829 -0.0678
48899SOL    HW158676   8.974  10.923   6.512  0.8501 -1.6664  2.1172
48899SOL    HW258677   9.041  10.977   6.636  1.8560  2.0623  0.0863
48900SOL     OW58678  11.120   2.013   2.256 -0.1104 -0.7361  0.1390
48900SOL    HW158679  11.081   1.925   2.262  0.5427 -1.0027  0.5315
48900SOL    HW258680  11.091   2.046   2.171  0.9974 -1.9945 -0.7579
48901SOL     OW58681  11.514   5.298   6.177 -0.4223  0.1804  0.6008
48901SOL    HW158682  11.443   5.233   6.182  0.4879 -0.9909 -0.8580
48901SOL    HW258683  11.475   5.372   6.131 -0.7368 -0.4096 -0.0998
48902SOL     OW58684   4.531   0.242   1.208  0.0508 -0.1058 -0.4435
48902SOL    HW158685   4.593   0.271   1.275 -0.8728  1.7132 -0.3058
48902SOL    HW258686   4.572   0.265   1.125 -0.4476  1.1887 -0.3491
48903SOL     OW58687   7.539   2.644   2.791  0.3114 -0.4379  0.2196
48903SOL    HW158688   7.593   2.649   2.712 -1.3009  1.4643 -0.8712
48903SOL    HW258689   7.513   2.735   2.807 -0.9058 -1.0377  1.8533
48904SOL     OW58690   0.767  12.442   5.436 -0.0232  0.4752  0.1962
48904SOL    HW158691   0.713  12.434   5.357  1.6223  0.6232 -0.9791
48904SOL    HW258692   0.785  12.351   5.461 -0.6922  0.4268  0.5218
48905SOL     OW58693  13.001   2.802   8.022 -0.1532  0.0930 -1.2202
48905SOL    HW158694  12.939   2.732   8.045  1.2340 -1.0252 -0.7051
48905SOL    HW258695  12.967   2.838   7.941 -1.8594  0.0088 -0.5903
48906SOL     OW58696   8.409   9.763   4.476  0.2109 -0.4969  0.6525
48906SOL    HW158697   8.383   9.757   4.385  0.1444  1.3643  0.4997
48906SOL    HW258698   8.327   9.762   4.525  0.2001 -0.6679  0.6315
48907SOL     OW58699   3.601  12.833   0.962  0.5298 -0.1376  0.1410
48907SOL    HW158700   3.615  12.925   0.940 -0.7090  0.2479  0.8780
48907SOL    HW258701   3.520  12.809   0.917  0.1836 -0.5137  0.9503
48908SOL     OW58702  13.888   1.695   7.172 -0.3246  0.9599  0.6199
48908SOL    HW158703  13.894   1.790   7.169 -0.7518  1.0032 -2.5847
48908SOL    HW258704  13.967   1.665   7.127 -2.1042  0.0660 -2.2076
48909SOL     OW58705   7.991   2.861   1.388 -0.1193  0.1476  0.3130
48909SOL    HW158706   7.974   2.945   1.346 -2.0517 -0.5474 -0.4248
48909SOL    HW258707   7.928   2.857   1.460 -0.9472 -1.1299 -0.4215
48910SOL     OW58708   2.978   9.978   0.780 -0.3786  1.1898 -0.3084
48910SOL    HW158709   2.962  10.036   0.706 -0.9410 -0.3476 -1.4226
48910SOL    HW258710   2.894   9.970   0.824 -0.7165 -0.0625 -1.1343
48911SOL     OW58711   5.148   3.780   1.332  0.3011  0.3269 -0.1786
48911SOL    HW158712   5.199   3.824   1.263  1.1500 -0.0513  0.1900
48911SOL    HW258713   5.206   3.711   1.364 -1.2404 -1.5277 -1.1876
48912SOL     OW58714   5.159   7.784  12.731 -0.1118 -0.5641 -0.1112
48912SOL    HW158715   5.152   7.829  12.647  2.0964 -1.2662 -0.7465
48912SOL    HW258716   5.079   7.731  12.737 -0.6802  0.1187 -1.3696
48913SOL     OW58717   6.303  11.977   9.261  1.0577 -0.1452 -0.3562
48913SOL    HW158718   6.231  11.981   9.198  0.2195  0.2267  0.5827
48913SOL    HW258719   6.365  12.043   9.231  0.5416  0.2183 -0.6526
48914SOL     OW58720   6.163   3.310   9.156  0.3503 -0.1690  0.5376
48914SOL    HW158721   6.178   3.373   9.226 -1.7907  2.1970 -0.9306
48914SOL    HW258722   6.214   3.343   9.082  0.7090 -1.2608  0.2817
48915SOL     OW58723   6.082  11.979   9.107 -0.1873 -0.3905  0.0685
48915SOL    HW158724   6.092  12.057   9.052  2.0611 -0.8220 -0.2278
48915SOL    HW258725   6.015  11.927   9.062 -1.6499  1.2536  0.2061
48916SOL     OW58726  11.900  12.125   5.042 -0.2771 -0.0421  0.0765
48916SOL    HW158727  11.874  12.167   5.123 -1.1725  0.0563 -0.2533
48916SOL    HW258728  11.876  12.033   5.053 -0.6093  0.0128 -0.1549
48917SOL     OW58729   6.098   0.512   9.217  0.9145 -0.5503 -0.3471
48917SOL    HW158730   6.114   0.492   9.125  3.0242  2.8856 -0.8826
48917SOL    HW258731   6.058   0.599   9.216  1.2684 -0.3015  1.9659
48918SOL     OW58732   6.160   4.389   6.121 -0.1526 -0.1440 -0.6278
48918SOL    HW158733   6.175   4.429   6.207 -0.9803 -0.3680 -0.3744
48918SOL    HW258734   6.114   4.307   6.140  1.2118 -1.0752 -1.1607
48919SOL     OW58735   6.094  12.775   3.508  0.3666  0.1841  0.2291
48919SOL    HW158736   6.115  12.853   3.456 -0.7528 -1.2479 -2.6208
48919SOL    HW258737   6.043  12.720   3.448  0.6773 -2.5375  2.2748
48920SOL     OW58738   1.710   1.471   1.242  0.1277  0.0424 -0.0917
48920SOL    HW158739   1.710   1.398   1.304  0.6933  0.1841  0.0864
48920SOL    HW258740   1.713   1.549   1.297  0.4906  0.1716 -0.2903
48921SOL     OW58741   1.500   7.524  12.718 -0.1980  0.1234  1.2499
48921SOL    HW158742   1.535   7.595  12.665 -0.8711  0.9691  1.9145
48921SOL    HW258743   1.570   7.458  12.718 -0.5255 -0.3608 -1.4658
48922SOL     OW58744   2.132  10.658   4.172 -0.2450  0.1372 -1.0266
48922SOL    HW158745   2.150  10.751   4.161 -0.8557  0.3164 -0.5713
48922SOL    HW258746   2.179  10.615   4.101 -1.4655  0.9491 -2.3850
48923SOL     OW58747   9.276   1.057  12.324  0.2429 -0.5123  0.5414
48923SOL    HW158748   9.224   1.014  12.256 -2.0874  0.3183  1.6955
48923SOL    HW258749   9.268   1.000  12.401  1.0958 -0.3920  0.7312
48924SOL     OW58750   6.179   4.802   0.654  0.3731  0.3074  0.3627
48924SOL    HW158751   6.100   4.809   0.601  0.4264  2.4808  0.4974
48924SOL    HW258752   6.193   4.890   0.689  1.2497 -0.6581  2.6864
48925SOL     OW58753   9.043   7.971  10.478  0.1817  0.4299 -0.4268
48925SOL    HW158754   9.089   7.959  10.561  0.4421 -1.5359 -0.8049
48925SOL    HW258755   8.991   7.891  10.467  1.2453 -0.0391 -2.8011
48926SOL     OW58756   4.357   2.475   8.904  0.2264  0.4325 -0.0508
48926SOL    HW158757   4.384   2.564   8.881 -2.2182  1.0481 -0.8380
48926SOL    HW258758   4.369   2.471   8.999 -0.0844  1.7803  0.0702
48927SOL     OW58759  11.425   9.020  11.162 -0.0993 -0.3489  0.0720
48927SOL    HW158760  11.492   8.995  11.098 -0.0652  0.3578 -0.1749
48927SOL    HW258761  11.358   8.951  11.154  0.9816 -1.5476  0.9450
48928SOL     OW58762  10.595   8.802   6.254 -0.6493 -0.0244 -0.3949
48928SOL    HW158763  10.690   8.811   6.266 -0.7669  0.0460  0.6000
48928SOL    HW258764  10.572   8.725   6.305 -1.0972 -0.1805 -0.8291
48929SOL     OW58765   8.039   7.606  13.054  0.7304  0.2499  0.3195
48929SOL    HW158766   8.013   7.696  13.078  0.5261  0.2213  0.2090
48929SOL    HW258767   7.999   7.592  12.968  0.1383 -0.2124  0.6668
48930SOL     OW58768   7.877   3.441   8.701 -0.5906  0.0634 -0.2667
48930SOL    HW158769   7.920   3.372   8.651  0.4854 -0.2259  1.0087
48930SOL    HW258770   7.821   3.395   8.763 -2.1144  0.4257 -1.2930
48931SOL     OW58771  11.454   3.418   2.227  0.0648 -0.0268  0.4453
48931SOL    HW158772  11.448   3.506   2.265 -0.7900 -0.3438  1.0495
48931SOL    HW258773  11.387   3.417   2.159  0.5419  0.0117 -0.0340
48932SOL     OW58774   5.041  12.991   8.769 -0.3356  0.3928  0.2023
48932SOL    HW158775   4.977  12.961   8.704 -0.1724 -0.5791  0.4723
48932SOL    HW258776   5.077  13.071   8.732 -0.6372  0.1415 -0.6582
48933SOL     OW58777  12.191   3.812  12.267 -0.0041  0.2711  0.2650
48933SOL    HW158778  12.210   3.860  12.187 -0.4742  0.4733  0.2728
48933SOL    HW258779  12.223   3.868  12.337 -0.9287  0.7809  0.3001
48934SOL     OW58780   7.321   0.169   6.401 -0.1167  0.4062  0.7405
48934SOL    HW158781   7.396   0.149   6.457 -0.5292  1.0363  1.5313
48934SOL    HW258782   7.343   0.252   6.360 -0.9449  1.2782  2.0125
48935SOL     OW58783   9.678   3.788   9.526 -0.0439  0.2875 -0.4841
48935SOL    HW158784   9.658   3.876   9.496 -0.0229  0.2910 -0.4885
48935SOL    HW258785   9.746   3.799   9.592 -1.5788  0.4371  1.1111
48936SOL     OW58786   4.114  13.991   3.099 -0.5765 -0.2846 -0.0041
48936SOL    HW158787   4.051  14.019   3.033 -0.8198 -1.3417 -0.2401
48936SOL    HW258788   4.174  13.933   3.052  0.4406  0.5067  0.2715
48937SOL     OW58789  13.928   5.902   5.484 -0.0605 -0.3318  0.3556
48937SOL    HW158790  13.848   5.849   5.484 -0.7163  0.5975 -1.4688
48937SOL    HW258791  13.901   5.987   5.451  0.9863  1.2316  3.1753
48938SOL     OW58792   1.563   8.297  11.207 -0.6115  0.2526  0.5013
48938SOL    HW158793   1.491   8.353  11.180 -0.2007  0.8168  0.5507
48938SOL    HW258794   1.541   8.271  11.297 -0.6568  0.5966  0.5936
48939SOL     OW58795   8.191   0.453  10.518 -0.0333  0.0566  0.4939
48939SOL    HW158796   8.205   0.452  10.423  2.0443  4.0796  0.5213
48939SOL    HW258797   8.211   0.364  10.546 -0.0679 -1.1104 -2.7177
48940SOL     OW58798   8.700   0.468   7.535 -0.7258 -0.0305  0.3969
48940SOL    HW158799   8.702   0.374   7.519  2.6219 -0.0027  0.0694
48940SOL    HW258800   8.618   0.497   7.493 -0.3130 -2.3453 -2.3301
48941SOL     OW58801   9.023   2.652   3.652 -0.0576  0.1872 -0.3225
48941SOL    HW158802   9.051   2.739   3.681 -1.3818  0.3853  0.4386
48941SOL    HW258803   8.934   2.665   3.620  0.3139 -0.5967 -1.7804
48942SOL     OW58804   7.775   6.494   7.676  0.1427 -0.0771  0.7164
48942SOL    HW158805   7.832   6.447   7.737 -1.9979 -2.8817  0.7621
48942SOL    HW258806   7.802   6.462   7.590 -0.7178 -0.7019  0.6732
48943SOL     OW58807   5.961   4.563   9.547 -0.7152 -0.5107 -0.6552
48943SOL    HW158808   5.986   4.610   9.468  0.8512  0.0576  0.1187
48943SOL    HW258809   5.974   4.627   9.618 -2.2314 -0.9518  0.0548
48944SOL     OW58810   4.390   5.426   8.859  0.8175 -0.6304  0.6387
48944SOL    HW158811   4.475   5.469   8.845  0.7230 -1.0798 -1.7417
48944SOL    HW258812   4.337   5.491   8.904  0.9504  1.5193 -2.0763
48945SOL     OW58813   5.083  12.583   0.090 -0.2556  0.2789 -0.2274
48945SOL    HW158814   5.133  12.539   0.158 -0.6619 -0.1590 -0.2109
48945SOL    HW258815   5.132  12.664   0.073  0.6858 -0.3288 -0.5015
48946SOL     OW58816   4.374   8.920  12.409 -0.0404  0.7026  0.2327
48946SOL    HW158817   4.314   8.855  12.445  0.0687  0.0785 -0.6998
48946SOL    HW258818   4.446   8.925  12.472 -0.7814  1.0444  1.0696
48947SOL     OW58819   6.073  10.671  10.608  0.2957 -0.5482  0.3570
48947SOL    HW158820   6.093  10.627  10.690  0.6562 -1.5263 -0.2401
48947SOL    HW258821   5.977  10.664  10.600  0.2935 -0.7371  0.5405
48948SOL     OW58822   0.790  13.649   8.672 -0.3762  0.2177 -0.4137
48948SOL    HW158823   0.812  13.669   8.581  0.4042 -0.1643 -0.3160
48948SOL    HW258824   0.718  13.586   8.666 -1.5801  1.5644 -0.7346
48949SOL     OW58825   7.903   5.536   7.347  0.6189 -0.4343 -0.0467
48949SOL    HW158826   7.932   5.513   7.435  1.8731 -1.5784 -0.7264
48949SOL    HW258827   7.881   5.452   7.307 -0.5924  0.1313 -0.6332
48950SOL     OW58828   8.179   8.483  11.233 -0.6874 -0.3338  0.5242
48950SOL    HW158829   8.129   8.409  11.198 -2.2248  0.1886  1.5001
48950SOL    HW258830   8.268   8.451  11.241 -0.3514 -0.7064 -3.1465
48951SOL     OW58831   5.397   4.840   5.439  0.2471  0.0937 -0.6843
48951SOL    HW158832   5.467   4.780   5.410  1.1552  0.8604 -0.1334
48951SOL    HW258833   5.395   4.909   5.373  0.6979  0.5943 -0.1832
48952SOL     OW58834   6.853   6.081   0.891  0.2089  0.4728 -0.2795
48952SOL    HW158835   6.816   5.994   0.877 -0.3051  0.6199  0.1678
48952SOL    HW258836   6.854   6.092   0.986 -2.1975  1.9939 -0.3485
48953SOL     OW58837  10.110   6.262   7.233 -0.2127 -0.1663 -0.5775
48953SOL    HW158838  10.191   6.224   7.198  0.6767  1.2621 -0.1485
48953SOL    HW258839  10.136   6.300   7.317 -1.9431 -2.0923  0.9512
48954SOL     OW58840   3.735   0.363   7.572 -0.6883  0.2464 -0.0436
48954SOL    HW158841   3.805   0.374   7.636 -0.5958 -1.9633  0.3136
48954SOL    HW258842   3.763   0.416   7.497  1.5378 -0.8184 -0.0369
48955SOL     OW58843  11.213   5.457   0.076  0.6376  0.2001 -0.3091
48955SOL    HW158844  11.133   5.505   0.056  0.7864  0.0110 -1.4243
48955SOL    HW258845  11.185   5.367   0.091  0.6547  0.0740 -0.9801
48956SOL     OW58846   7.135   4.731   9.268  0.0636  0.1282 -0.1384
48956SOL    HW158847   7.127   4.654   9.323  0.0698 -0.5517 -1.0592
48956SOL    HW258848   7.082   4.798   9.311  1.1879  0.0566  1.4122
48957SOL     OW58849   9.233   7.799   4.658  0.1651 -0.4301  0.2276
48957SOL    HW158850   9.280   7.872   4.617  0.5048 -0.0143  1.2936
48957SOL    HW258851   9.141   7.822   4.648  0.2556  1.1862  2.1835
48958SOL     OW58852   2.498   6.946   2.887 -0.3316 -0.4954  0.1485
48958SOL    HW158853   2.571   6.919   2.942 -0.1660 -0.1436  0.1070
48958SOL    HW258854   2.535   7.013   2.829 -0.1761 -1.7490 -1.2659
48959SOL     OW58855   3.162   5.400  10.566  0.0256 -0.1056  0.1888
48959SOL    HW158856   3.245   5.363  10.597  0.5632 -0.0715 -1.1298
48959SOL    HW258857   3.188   5.468  10.505 -0.8684 -2.5676 -3.2589
48960SOL     OW58858   0.851   9.392   1.713 -0.4485 -0.3481  0.2354
48960SOL    HW158859   0.829   9.463   1.773 -0.7733 -0.9712  0.8723
48960SOL    HW258860   0.885   9.436   1.635  1.5404  0.4589  1.4790
48961SOL     OW58861  12.843   0.283   8.611  0.1764  0.2147  0.4170
48961SOL    HW158862  12.881   0.371   8.618 -0.1946  0.3056  1.6177
48961SOL    HW258863  12.914   0.229   8.576  0.7430  0.7886  0.6570
48962SOL     OW58864  13.608   5.967   9.161  0.4860 -0.1083  0.4074
48962SOL    HW158865  13.697   6.004   9.164  0.1308  0.9026 -0.6005
48962SOL    HW258866  13.621   5.873   9.169  1.5118  0.1257  2.1074
48963SOL     OW58867  12.221   2.546  12.877 -0.0415 -0.0828 -0.0961
48963SOL    HW158868  12.140   2.597  12.882 -0.9323 -1.2123 -1.9178
48963SOL    HW258869  12.232   2.526  12.784  1.8062 -0.8032  0.2295
48964SOL     OW58870   7.596   4.909   1.189 -0.0650  0.0284  0.0994
48964SOL    HW158871   7.608   4.872   1.102  0.8539  0.3182  0.0905
48964SOL    HW258872   7.576   4.834   1.245  0.9374 -0.3898 -0.0745
48965SOL     OW58873   5.437   4.400   5.497  0.5554 -0.6176  0.2449
48965SOL    HW158874   5.463   4.478   5.448  2.4521 -1.4872 -0.2269
48965SOL    HW258875   5.480   4.328   5.452 -2.1675 -2.1377 -0.0718
48966SOL     OW58876   9.088   3.018   5.692  0.0933  0.4186 -0.7497
48966SOL    HW158877   9.110   3.002   5.784  1.1825  0.9693 -0.9005
48966SOL    HW258878   9.093   2.931   5.651  1.4025  0.4105 -0.6355
48967SOL     OW58879   8.603   4.712   5.667 -0.4065  0.6571  0.0328
48967SOL    HW158880   8.601   4.617   5.675  0.7353  0.5551 -0.7844
48967SOL    HW258881   8.511   4.738   5.673 -0.6549 -0.3876  1.3495
48968SOL     OW58882   8.215   5.075  11.115  0.4189 -0.5041  0.1406
48968SOL    HW158883   8.293   5.021  11.129  1.0801 -0.0733 -1.5503
48968SOL    HW258884   8.250   5.164  11.107  0.0155 -0.4950 -2.2896
48969SOL     OW58885   6.492   0.398   8.252 -0.0653  0.3980  0.0010
48969SOL    HW158886   6.403   0.426   8.275 -0.7719  0.2863 -2.3094
48969SOL    HW258887   6.528   0.362   8.333 -2.4658 -0.3815  0.8109
48970SOL     OW58888   1.893   4.070  11.733  0.3250  0.2121  0.2155
48970SOL    HW158889   1.819   4.010  11.736  1.8303 -1.7450  0.5056
48970SOL    HW258890   1.873   4.131  11.662 -1.5499 -0.2053  0.3335
48971SOL     OW58891   7.907  13.937   9.636 -0.0176 -0.0667 -0.2155
48971SOL    HW158892   7.816  13.912   9.646  0.0039 -0.0905 -0.0779
48971SOL    HW258893   7.914  14.021   9.681 -0.2921  0.6327 -1.4348
48972SOL     OW58894  13.831   1.476   9.364 -0.1543  0.7457  0.5830
48972SOL    HW158895  13.762   1.442   9.420 -1.6403 -0.6605 -1.9130
48972SOL    HW258896  13.794   1.557   9.328 -0.1716  0.4401 -0.0971
48973SOL     OW58897  12.328   2.434   9.884  0.3792 -0.0158  0.0186
48973SOL    HW158898  12.340   2.425   9.979  1.5606  0.6453 -0.0517
48973SOL    HW258899  12.407   2.396   9.847 -0.2888 -0.7015 -0.7381
48974SOL     OW58900   9.466   8.767   2.102  0.5377  0.1102  0.6683
48974SOL    HW158901   9.393   8.820   2.070  0.1943 -1.0127 -0.5086
48974SOL    HW258902   9.507   8.820   2.170 -1.5734  0.6333  1.5933
48975SOL     OW58903   4.951  13.833   6.319 -0.4911  0.3670  0.1253
48975SOL    HW158904   5.042  13.837   6.348 -0.4612  0.0297  0.0825
48975SOL    HW258905   4.919  13.923   6.329  0.0014  0.6066 -0.3618
48976SOL     OW58906   4.732   4.139   6.116  0.0341  0.0014 -0.1875
48976SOL    HW158907   4.755   4.132   6.209  1.5728  1.9722 -0.3780
48976SOL    HW258908   4.815   4.138   6.070 -0.7031 -0.7310 -1.5569
48977SOL     OW58909   4.401   4.337   2.299  0.0460 -0.4477  0.4316
48977SOL    HW158910   4.367   4.276   2.233 -2.9811  1.1525  0.3226
48977SOL    HW258911   4.355   4.313   2.379 -0.3225  0.9293  0.6525
48978SOL     OW58912   1.557   6.775   8.241  0.1624 -0.2799  0.0922
48978SOL    HW158913   1.485   6.807   8.187  1.6215 -0.3711 -2.0161
48978SOL    HW258914   1.544   6.818   8.326 -0.5071  2.3520 -1.2311
48979SOL     OW58915   7.867  13.112   0.946  0.1742  0.0644 -0.1102
48979SOL    HW158916   7.923  13.074   0.879  0.3086 -2.3499  1.2314
48979SOL    HW258917   7.889  13.205   0.947  1.9204 -0.2746 -1.6987
48980SOL     OW58918  13.704  12.352  12.155 -0.5151  0.4255 -0.0756
48980SOL    HW158919  13.742  12.361  12.068 -0.4541  0.9099 -0.0021
48980SOL    HW258920  13.625  12.406  12.154 -0.7766  0.0511  0.0205
48981SOL     OW58921   7.672   9.867   0.549 -0.3525  0.6289 -0.8749
48981SOL    HW158922   7.759   9.893   0.518 -0.1382 -0.1704 -0.9624
48981SOL    HW258923   7.684   9.849   0.642  0.1400 -1.7276 -1.3176
48982SOL     OW58924   8.478  11.986   5.696  0.2545  0.5237 -0.0228
48982SOL    HW158925   8.436  11.933   5.628  1.9977 -1.5688  0.3897
48982SOL    HW258926   8.499  12.069   5.653  0.0766 -0.2295 -1.6373
48983SOL     OW58927  10.347   3.731   0.248 -0.1469 -0.1702  0.4967
48983SOL    HW158928  10.397   3.675   0.189 -1.2648 -2.0232  1.1915
48983SOL    HW258929  10.271   3.758   0.196  1.0035  1.8116 -0.2378
48984SOL     OW58930   9.912  13.733   7.523 -0.7695 -0.0333 -0.0373
48984SOL    HW158931   9.983  13.707   7.582  0.7336 -2.0836 -2.5663
48984SOL    HW258932   9.928  13.825   7.505  0.0240  0.0508  1.0093
48985SOL     OW58933   2.499  13.518   3.128  0.6680 -0.0692 -0.0151
48985SOL    HW158934   2.586  13.532   3.163 -0.3450  0.1595  2.6535
48985SOL    HW258935   2.512  13.458   3.055  2.9739 -0.5693  0.7189
48986SOL     OW58936   9.371   9.208   9.584 -0.3038  0.1826 -0.1543
48986SOL    HW158937   9.318   9.139   9.544 -2.6448  1.3451  0.7541
48986SOL    HW258938   9.316   9.244   9.654  2.2022  0.6621  1.7239
48987SOL     OW58939   4.694  13.892   5.944 -0.3479  0.1626 -0.7203
48987SOL    HW158940   4.644  13.877   5.864 -2.1165  0.1929  0.3315
48987SOL    HW258941   4.633  13.935   6.004  1.8419  3.2324 -0.4281
48988SOL     OW58942  10.241  13.876   3.852  0.0412  0.2770  0.0621
48988SOL    HW158943  10.167  13.936   3.852 -1.8209 -1.8255  1.7684
48988SOL    HW258944  10.212  13.802   3.797  0.3626 -1.0977  1.6546
48989SOL     OW58945  13.113   1.335  12.962 -0.6984  0.5506 -0.6171
48989SOL    HW158946  13.040   1.315  13.020 -0.4062 -0.4344 -0.5561
48989SOL    HW258947  13.097   1.281  12.884  0.1166  0.0560 -0.4659
48990SOL     OW58948   5.132  13.809   5.572  0.2551  0.2715  0.3068
48990SOL    HW158949   5.088  13.884   5.613 -1.1315 -0.4712  0.2293
48990SOL    HW258950   5.216  13.804   5.618 -0.9508 -0.0960  2.6400
48991SOL     OW58951   9.867   5.387   9.907  0.6959  0.1201 -0.0052
48991SOL    HW158952   9.951   5.351   9.878  1.5297  1.0272  1.1425
48991SOL    HW258953   9.891   5.450   9.975 -0.7942  1.6954 -0.8609
48992SOL     OW58954  11.293   0.737  10.125  0.3846 -0.3186 -0.0114
48992SOL    HW158955  11.203   0.706  10.137  0.5160 -1.5236 -1.7210
48992SOL    HW258956  11.347   0.659  10.138  0.9825 -0.1531 -1.3437
48993SOL     OW58957   3.488   5.324   7.367 -0.1444  0.0290 -0.0106
48993SOL    HW158958   3.404   5.371   7.370 -1.6729 -2.2348 -2.5301
48993SOL    HW258959   3.524   5.334   7.455 -2.2632  2.4368  0.7154
48994SOL     OW58960  11.138   2.921   6.680 -0.2262  0.6724  0.5662
48994SOL    HW158961  11.218   2.974   6.683 -1.7182  3.1021  0.4257
48994SOL    HW258962  11.136   2.876   6.765  1.7753 -0.2968  0.1603
48995SOL     OW58963  13.077   1.121   1.666  0.1657 -0.2173  0.9277
48995SOL    HW158964  12.989   1.118   1.704 -0.1180 -2.8827  0.2698
48995SOL    HW258965  13.077   1.051   1.601  2.9694 -0.6650  1.2957
48996SOL     OW58966   7.712   3.543   4.063 -0.0536  0.3251  0.3068
48996SOL    HW158967   7.771   3.618   4.060 -0.9670  1.0366 -1.5354
48996SOL    HW258968   7.714   3.507   3.974  1.7144 -2.9941  1.5356
48997SOL     OW58969  12.370   0.332   3.387 -0.0081  0.2736  0.2571
48997SOL    HW158970  12.349   0.393   3.316  1.4444 -1.5155 -1.8193
48997SOL    HW258971  12.333   0.248   3.359  0.3391 -0.4145  1.7537
48998SOL     OW58972  10.221   9.349  13.734  0.1445 -0.1764 -0.5004
48998SOL    HW158973  10.313   9.330  13.716  1.0554  3.1151  0.0278
48998SOL    HW258974  10.206   9.434  13.694 -2.6004 -0.4179 -0.1836
48999SOL     OW58975   3.621   7.294  10.665 -0.0411  0.2926  0.0476
48999SOL    HW158976   3.563   7.254  10.730  1.2259 -0.9393  0.4850
48999SOL    HW258977   3.570   7.365  10.627 -0.7627  1.2342  2.5750
49000SOL     OW58978  12.545   8.190   2.839 -0.1376 -0.0069  0.5061
49000SOL    HW158979  12.631   8.185   2.880  0.6164 -0.3351 -1.0401
49000SOL    HW258980  12.518   8.281   2.850  1.5313  0.7393 -1.1136
49001SOL     OW58981  12.791   5.668   9.285  0.0647  0.2719 -0.3225
49001SOL    HW158982  12.720   5.669   9.221 -1.0137 -0.1677  0.8193
49001SOL    HW258983  12.747   5.664   9.370  1.3888  2.4257  0.5755
49002SOL     OW58984   6.729   2.435   4.638 -0.7266  0.7760  0.3738
49002SOL    HW158985   6.651   2.384   4.656 -2.0764  2.3941 -0.6414
49002SOL    HW258986   6.784   2.377   4.586 -1.4174 -0.2381  0.7515
49003SOL     OW58987  12.370  12.462   2.882 -0.4037 -0.3757 -0.0053
49003SOL    HW158988  12.361  12.463   2.977  0.1058  0.9524  0.0419
49003SOL    HW258989  12.437  12.526   2.863 -0.5172 -0.6016 -1.2774
49004SOL     OW58990   8.028  12.223   7.717 -0.3178  0.3439 -0.4718
49004SOL    HW158991   8.060  12.220   7.627  1.2494 -1.4431  0.0780
49004SOL    HW258992   8.097  12.267   7.766 -0.2268 -0.4705  0.1635
49005SOL     OW58993   1.122  10.813   2.781  0.4768 -0.0992  0.6192
49005SOL    HW158994   1.191  10.859   2.734 -0.7461  0.0475 -1.1240
49005SOL    HW258995   1.043  10.827   2.729 -0.6962 -1.0536  2.0343
49006SOL     OW58996  13.420  12.074   9.163  0.0321 -0.0401 -0.4335
49006SOL    HW158997  13.502  12.084   9.114 -0.7331  2.1438 -1.3642
49006SOL    HW258998  13.377  11.999   9.122  1.5912 -1.3466  0.1922
49007SOL     OW58999  11.412   2.169   3.582 -0.1982 -0.2579  0.7200
49007SOL    HW159000  11.467   2.147   3.508 -1.2704  0.3548 -0.2985
49007SOL    HW259001  11.339   2.107   3.578 -0.3217 -0.1509  1.1993
49008SOL     OW59002   1.559  11.216   1.273  0.0907 -0.3737 -0.2112
49008SOL    HW159003   1.584  11.154   1.342 -0.8261 -1.3309 -0.7118
49008SOL    HW259004   1.517  11.288   1.320 -0.4022 -0.9530  0.2544
49009SOL     OW59005   3.306   4.709   2.241  0.1280 -0.0445  0.0511
49009SOL    HW159006   3.218   4.671   2.241 -1.2082  2.8010 -0.9970
49009SOL    HW259007   3.352   4.661   2.172 -1.0729 -0.5866 -0.4053
49010SOL     OW59008  11.513   0.704   6.289 -0.2343  0.1683  0.2151
49010SOL    HW159009  11.513   0.612   6.314  1.3644  0.4430  1.4166
49010SOL    HW259010  11.460   0.747   6.356 -0.4982  0.2038 -0.0148
49011SOL     OW59011  11.267   0.457   2.215  0.1426 -0.1222 -0.4874
49011SOL    HW159012  11.253   0.536   2.266 -1.6495 -0.2468 -0.7092
49011SOL    HW259013  11.230   0.387   2.268 -0.9556 -0.3724 -1.5258
49012SOL     OW59014   0.449   7.059   6.000 -0.9812 -0.2221  0.3184
49012SOL    HW159015   0.455   7.141   5.951 -2.1789 -0.0198  0.4847
49012SOL    HW259016   0.370   7.017   5.966  1.4877 -3.1586 -2.5158
49013SOL     OW59017   8.247   1.037   2.734  0.4969  0.0397  0.0425
49013SOL    HW159018   8.319   1.036   2.671  1.9283 -2.3856  1.5786
49013SOL    HW259019   8.191   0.964   2.709  0.9773 -0.8340  1.3757
49014SOL     OW59020   4.670   5.353   7.126  0.0284 -0.1128 -0.2841
49014SOL    HW159021   4.683   5.372   7.219  0.2162  2.3337 -0.7518
49014SOL    HW259022   4.576   5.336   7.118  0.0543 -0.6020  0.3890
49015SOL     OW59023   8.512   7.393   3.333  0.1883 -0.0523  0.1284
49015SOL    HW159024   8.575   7.395   3.260 -1.9735  0.0366 -1.8530
49015SOL    HW259025   8.510   7.301   3.360  0.9095 -0.1186 -0.0137
49016SOL     OW59026   2.154   3.554   6.680 -0.0242  0.3933  0.0515
49016SOL    HW159027   2.086   3.504   6.725 -0.8840  0.8872 -0.6608
49016SOL    HW259028   2.188   3.614   6.746  1.0613 -1.1282  0.9370
49017SOL     OW59029  10.802   2.514   5.648  0.1852  0.5847  0.1561
49017SOL    HW159030  10.741   2.477   5.584  1.1505  0.8883 -0.9775
49017SOL    HW259031  10.836   2.593   5.605 -1.3045  2.4667  2.2226
49018SOL     OW59032   7.960   1.803   0.245 -0.4967 -0.1582 -0.4277
49018SOL    HW159033   7.972   1.741   0.316  1.4949  0.3288 -0.2969
49018SOL    HW259034   8.020   1.875   0.264 -1.3049  0.8853 -1.6133
49019SOL     OW59035   9.078   9.342   8.040  0.2389  0.0591 -0.3644
49019SOL    HW159036   8.984   9.328   8.054  0.1790  0.3035 -0.5203
49019SOL    HW259037   9.106   9.267   7.987 -0.0279  0.3944 -0.9820
49020SOL     OW59038  13.565  13.951   9.557 -0.4244  0.7649 -0.1403
49020SOL    HW159039  13.626  13.880   9.577 -0.5768  0.8384  0.6355
49020SOL    HW259040  13.543  13.988   9.643 -0.8626  1.3171 -0.4835
49021SOL     OW59041   7.861  11.387   0.150 -0.4809  0.4826 -0.0934
49021SOL    HW159042   7.767  11.402   0.161 -0.5460 -0.5528  0.9598
49021SOL    HW259043   7.903  11.456   0.201 -0.5907  2.1618 -2.1418
49022SOL     OW59044  13.176   5.595   2.014  0.2676 -0.6909 -0.8115
49022SOL    HW159045  13.228   5.671   1.986  0.7036 -0.8065 -0.3292
49022SOL    HW259046  13.241   5.526   2.029 -0.1720 -1.3130 -1.7222
49023SOL     OW59047  10.930  10.483   5.203  0.1428  0.1205 -0.1266
49023SOL    HW159048  10.912  10.577   5.204  1.1960  0.3375 -0.0287
49023SOL    HW259049  10.905  10.453   5.290 -0.9670  0.1440 -0.4259
49024SOL     OW59050   7.117   7.963  12.314 -0.3956  0.1256  0.1602
49024SOL    HW159051   7.035   7.945  12.361 -1.4424  0.2268 -1.5256
49024SOL    HW259052   7.116   8.058  12.300 -0.4213  0.0224 -0.5835
49025SOL     OW59053   2.974   2.916   3.303  0.6145  0.4480  0.3255
49025SOL    HW159054   2.993   2.916   3.396 -0.4661 -1.5521  0.6100
49025SOL    HW259055   2.953   2.825   3.283 -1.4452  1.2017 -1.3609
49026SOL     OW59056  11.096   2.328   4.912  0.3116 -0.2421  0.2935
49026SOL    HW159057  11.022   2.293   4.961  0.5631  1.8601  2.3479
49026SOL    HW259058  11.166   2.265   4.926 -1.2353 -2.8272 -2.5688
49027SOL     OW59059   5.864   9.368  11.168  0.2128 -0.1671 -0.1425
49027SOL    HW159060   5.951   9.343  11.139 -0.0358  0.9663 -2.0781
49027SOL    HW259061   5.824   9.287  11.201  1.3736 -1.0478 -0.8602
49028SOL     OW59062   1.123   0.395   7.232  0.5586 -0.0342  0.4018
49028SOL    HW159063   1.163   0.422   7.314 -0.6868  0.2101  0.9528
49028SOL    HW259064   1.088   0.476   7.194  3.9708  0.5234 -2.1096
49029SOL     OW59065  11.815   0.757  13.936 -0.1216  0.1588  0.2267
49029SOL    HW159066  11.889   0.699  13.914  0.4327  0.7297  0.5761
49029SOL    HW259067  11.816   0.824  13.867  0.5230  0.9364  0.9772
49030SOL     OW59068   1.585   1.096   2.163  0.1612  0.5981 -0.2451
49030SOL    HW159069   1.606   1.009   2.197  0.6108  0.1205 -1.6956
49030SOL    HW259070   1.499   1.086   2.122  0.0684  0.9311 -0.1398
49031SOL     OW59071   5.081  10.819   5.417 -0.2357 -0.1402 -0.8580
49031SOL    HW159072   5.021  10.882   5.375  1.4345  1.7970 -0.4988
49031SOL    HW259073   5.162  10.826   5.366  1.8345  2.1702  2.3143
49032SOL     OW59074  13.832   0.084   8.125  0.4449 -0.4310 -1.0126
49032SOL    HW159075  13.887   0.147   8.171 -3.5929  3.0579 -0.2760
49032SOL    HW259076  13.778   0.045   8.194  0.8712 -2.5826 -1.8338
49033SOL     OW59077  13.673   4.274   3.583 -0.2811 -0.4511  0.4512
49033SOL    HW159078  13.748   4.331   3.565 -0.6472 -0.5900 -1.8520
49033SOL    HW259079  13.598   4.322   3.547 -1.1559 -0.8007  1.7501
49034SOL     OW59080   6.499  11.473  12.718 -0.2539  0.7662 -0.2852
49034SOL    HW159081   6.523  11.561  12.748 -2.6689  1.3629  0.1092
49034SOL    HW259082   6.447  11.437  12.790 -1.5492  0.0813 -1.5121
49035SOL     OW59083   0.925  11.968   4.781 -0.1585 -0.1903  0.1717
49035SOL    HW159084   0.833  11.961   4.808  0.0376 -0.3075  0.8348
49035SOL    HW259085   0.924  12.026   4.705 -1.0340 -1.8017 -1.1288
49036SOL     OW59086   4.020   4.335   4.336 -0.0975 -0.2202  0.0958
49036SOL    HW159087   4.052   4.366   4.421  1.0178  2.9586 -1.3179
49036SOL    HW259088   3.938   4.383   4.323 -0.2802 -0.7095 -0.6123
49037SOL     OW59089   4.731   4.931   8.751 -0.2641  0.2576  0.1843
49037SOL    HW159090   4.826   4.943   8.758 -0.0298 -1.6577  0.9414
49037SOL    HW259091   4.694   5.016   8.773  1.2400  0.5600  1.7268
49038SOL     OW59092  13.886   8.102   0.338  0.2426  0.0602  0.2394
49038SOL    HW159093  13.879   8.030   0.275 -0.7060  0.6504 -0.3560
49038SOL    HW259094  13.810   8.157   0.320  1.4344  1.7352  0.0481
49039SOL     OW59095   8.183   1.201   8.611 -0.3700 -0.0436 -0.3310
49039SOL    HW159096   8.272   1.180   8.640 -0.1531 -0.9285 -1.5345
49039SOL    HW259097   8.150   1.262   8.676  1.0433  0.1245  0.2645
49040SOL     OW59098  13.605  12.297   7.795 -0.7225  0.0645  0.4611
49040SOL    HW159099  13.625  12.259   7.709  0.0749 -0.0680  0.7010
49040SOL    HW259100  13.543  12.367   7.776  0.1720  0.6534 -0.3378
49041SOL     OW59101  11.834   2.605   7.552  0.4633 -0.4637 -0.2062
49041SOL    HW159102  11.744   2.571   7.551 -0.1128  0.9808 -1.2713
49041SOL    HW259103  11.889   2.529   7.537 -0.6355 -1.2493 -0.3553
49042SOL     OW59104   4.357   9.045   3.682 -0.2052  0.0690 -0.1607
49042SOL    HW159105   4.400   8.962   3.701 -0.9916 -0.4040 -0.3805
49042SOL    HW259106   4.403   9.109   3.737  1.7502 -0.1126 -1.5039
49043SOL     OW59107  12.612   8.107   6.694 -0.2615  0.1269 -0.0965
49043SOL    HW159108  12.544   8.109   6.627 -1.4158  1.1376  1.0699
49043SOL    HW259109  12.674   8.175   6.668 -1.2880  1.2928  0.4318
49044SOL     OW59110   1.004  13.876   3.715  0.7101  0.5271 -0.1719
49044SOL    HW159111   1.071  13.944   3.727 -0.5053  1.8972 -0.8586
49044SOL    HW259112   1.051  13.793   3.730  2.6755  1.4047 -1.1670
49045SOL     OW59113  12.201   8.861   7.617 -0.0973  0.6005  0.1662
49045SOL    HW159114  12.139   8.823   7.555 -0.1173 -0.7622  0.9817
49045SOL    HW259115  12.287   8.847   7.578 -0.2126  1.4727 -0.4317
49046SOL     OW59116   1.106  12.640  13.377 -0.5859  0.5165  0.1998
49046SOL    HW159117   1.193  12.661  13.343 -0.7599  1.4153  0.2872
49046SOL    HW259118   1.097  12.546  13.365 -0.9249  0.8354 -2.9982
49047SOL     OW59119   7.175  12.133   1.692  0.6427 -0.1253 -0.1642
49047SOL    HW159120   7.177  12.041   1.721  1.8280 -0.6742 -1.8731
49047SOL    HW259121   7.090  12.142   1.649  0.7666 -0.6067 -0.5218
49048SOL     OW59122   5.926   2.939   5.754  0.2906 -0.3484  0.2887
49048SOL    HW159123   5.901   3.007   5.691 -1.5485 -0.7859  0.4951
49048SOL    HW259124   5.920   2.857   5.704  0.0610 -0.5757  0.6876
49049SOL     OW59125   4.028   0.304  13.622  0.0917 -0.0240 -0.4779
49049SOL    HW159126   3.950   0.269  13.579  1.2677 -1.5717 -1.4783
49049SOL    HW259127   4.100   0.277  13.565  1.3871  1.1153  0.5620
49050SOL     OW59128   5.768   0.824   1.666  0.2592  0.2915 -0.0157
49050SOL    HW159129   5.834   0.801   1.601  0.9427 -0.4410  0.9009
49050SOL    HW259130   5.762   0.920   1.661  1.7443  0.4226  0.2045
49051SOL     OW59131  10.019   5.962  12.960  0.1226  0.1498  0.4852
49051SOL    HW159132  10.110   5.951  12.987  0.3639 -0.1725 -0.4321
49051SOL    HW259133  10.022   6.029  12.892  0.0745 -1.7297 -1.4957
49052SOL     OW59134   7.535  13.272   9.178 -0.1619  0.9687  0.7411
49052SOL    HW159135   7.527  13.308   9.266  1.2743  3.5005 -0.0508
49052SOL    HW259136   7.608  13.210   9.184 -1.6385 -0.7821  1.7813
49053SOL     OW59137   7.603  11.177   1.787  0.2899 -0.1516 -0.0353
49053SOL    HW159138   7.563  11.133   1.712  0.1840  1.1662 -0.7798
49053SOL    HW259139   7.632  11.261   1.752  1.1250  0.0837  1.1846
49054SOL     OW59140   5.530   3.926   1.704  0.0026 -0.4637  0.2516
49054SOL    HW159141   5.531   3.983   1.627  1.8112  0.0688  0.6231
49054SOL    HW259142   5.453   3.953   1.753 -1.4164 -1.0778 -1.5190
49055SOL     OW59143  13.164   4.384   1.938  0.3575 -0.0787 -0.0842
49055SOL    HW159144  13.110   4.374   1.860  0.6294  1.4656 -0.5016
49055SOL    HW259145  13.117   4.337   2.006 -1.5782  1.2644 -0.4228
49056SOL     OW59146  13.043   6.661   6.280 -0.0298 -0.7914 -0.1294
49056SOL    HW159147  13.013   6.593   6.219 -0.9314  0.6441 -1.3600
49056SOL    HW259148  13.125   6.627   6.317 -0.3269 -2.4110 -0.8984
49057SOL     OW59149   8.473   9.624   3.662 -0.8151 -0.5823 -0.6311
49057SOL    HW159150   8.542   9.573   3.618 -0.7283 -1.1389  0.1282
49057SOL    HW259151   8.521   9.684   3.719 -0.9098  0.5318 -1.6905
49058SOL     OW59152   2.506   9.381  10.216  0.4530 -0.0106  0.0858
49058SOL    HW159153   2.474   9.450  10.274  0.9577 -0.3383  0.7757
49058SOL    HW259154   2.479   9.408  10.129  1.7255  1.7154  0.1647
49059SOL     OW59155  13.566   1.697   8.826 -0.2612  0.5786  0.0920
49059SOL    HW159156  13.528   1.741   8.749 -0.8849  1.7052  1.0137
49059SOL    HW259157  13.618   1.765   8.869 -0.0649  0.0120  0.7675
49060SOL     OW59158   2.956   6.040   8.264 -0.5908  0.6051 -1.3547
49060SOL    HW159159   2.871   5.996   8.268  1.1700 -3.1795 -0.7585
49060SOL    HW259160   2.992   6.016   8.179  1.2863 -1.0813 -0.1872
49061SOL     OW59161   9.269   1.763   0.977  0.0443 -0.0778 -0.2870
49061SOL    HW159162   9.361   1.785   0.997 -0.5002  0.8952  1.3867
49061SOL    HW259163   9.238   1.719   1.056 -1.0603  0.0005 -0.6671
49062SOL     OW59164  13.581   4.388   1.679 -0.1463  0.1136  0.4375
49062SOL    HW159165  13.650   4.452   1.665 -0.1805  0.2937  1.0729
49062SOL    HW259166  13.605   4.314   1.623  1.3477 -0.4306  1.7437
49063SOL     OW59167   0.133   5.148   5.797  0.1598 -0.5990  0.0323
49063SOL    HW159168   0.121   5.088   5.724 -3.2955 -1.5590  1.1834
49063SOL    HW259169   0.099   5.100   5.873 -0.1721  1.8101  1.5061
49064SOL     OW59170   4.705   0.266   7.927 -0.0863  0.4384  0.2843
49064SOL    HW159171   4.762   0.341   7.941  0.3860 -0.1271  1.4332
49064SOL    HW259172   4.663   0.250   8.011 -1.4473  0.4237 -0.3608
49065SOL     OW59173   4.447   5.953   8.094  0.4407 -0.0835 -0.0704
49065SOL    HW159174   4.533   5.951   8.137 -0.6709 -0.4247  2.3075
49065SOL    HW259175   4.426   5.861   8.080  0.9425  0.0385 -1.7368
49066SOL     OW59176   5.709  10.300   2.120 -0.4796  0.0274 -0.0674
49066SOL    HW159177   5.664  10.321   2.038 -1.8164 -0.8044  0.4295
49066SOL    HW259178   5.729  10.207   2.114  0.1525  0.1395  0.2129
49067SOL     OW59179   6.408   5.157   1.349  0.0587 -0.3211  0.1899
49067SOL    HW159180   6.395   5.219   1.420  0.3315 -2.1505  1.9154
49067SOL    HW259181   6.326   5.107   1.345  0.4798 -1.0234  0.0489
49068SOL     OW59182  10.825   8.304   9.717 -0.1329  0.2918  0.0178
49068SOL    HW159183  10.784   8.217   9.724  0.8981 -0.1521  0.9046
49068SOL    HW259184  10.823   8.324   9.624  1.2216 -1.5301 -0.4617
49069SOL     OW59185   7.517  11.122   4.654  0.3544 -0.2581 -0.7790
49069SOL    HW159186   7.469  11.040   4.645  0.8789 -0.4296 -2.3864
49069SOL    HW259187   7.485  11.160   4.735 -1.0799 -1.2827 -0.8273
49070SOL     OW59188   2.405   4.296   0.120 -0.1194 -0.0408  0.2105
49070SOL    HW159189   2.309   4.298   0.120 -0.1379 -0.2477 -0.9937
49070SOL    HW259190   2.427   4.250   0.201 -1.0609 -0.4082  0.2788
49071SOL     OW59191  10.962   0.668   6.155  0.9713 -0.2377 -0.0325
49071SOL    HW159192  10.985   0.714   6.074  0.6683 -1.0930 -0.6307
49071SOL    HW259193  10.910   0.731   6.204  0.4230  0.0168 -0.9024
49072SOL     OW59194  12.501   8.675   9.485 -0.0426  0.3167 -0.4849
49072SOL    HW159195  12.572   8.700   9.426  1.5002  0.1245  1.2196
49072SOL    HW259196  12.481   8.584   9.461  1.7016 -0.3192  0.3145
49073SOL     OW59197   6.761   3.404   8.939  0.1706  0.2342 -0.0312
49073SOL    HW159198   6.763   3.331   8.878  1.7123 -0.1264  0.3894
49073SOL    HW259199   6.685   3.456   8.913  1.1051  0.4576 -2.6879
49074SOL     OW59200   0.439   9.463   1.797  0.8670  0.4848 -0.2429
49074SOL    HW159201   0.358   9.510   1.775  1.0519  0.4172 -1.1146
49074SOL    HW259202   0.454   9.406   1.721  1.5766  0.2793  0.0470
49075SOL     OW59203   9.118   9.629   9.946 -0.1363  0.3855 -0.5411
49075SOL    HW159204   9.058   9.692   9.905  0.1549 -0.1169 -1.8052
49075SOL    HW259205   9.076   9.606  10.029 -1.1465  0.8743 -0.8937
49076SOL     OW59206  13.526   8.423   1.669  0.5752  0.4234  0.0203
49076SOL    HW159207  13.573   8.506   1.667 -0.4005  1.0580  1.4013
49076SOL    HW259208  13.543   8.388   1.757  0.9562 -0.8346 -0.5393
49077SOL     OW59209   6.285   0.642   5.106  0.0068  0.0839  0.6849
49077SOL    HW159210   6.288   0.668   5.198  0.5421 -0.5148  0.8416
49077SOL    HW259211   6.209   0.688   5.071 -0.9250 -0.5924  1.7216
49078SOL     OW59212   3.609   0.263   6.884  0.4350  0.2175 -0.0697
49078SOL    HW159213   3.666   0.263   6.961 -0.1174  1.4398  0.3744
49078SOL    HW259214   3.554   0.186   6.895  0.6729  0.1238  0.5197
49079SOL     OW59215   3.704  12.765   7.479 -0.0797  0.1573  0.2988
49079SOL    HW159216   3.750  12.682   7.495  0.9544  0.4193 -1.1446
49079SOL    HW259217   3.627  12.740   7.428  0.5225  0.1320 -0.6113
49080SOL     OW59218  13.233  14.035   1.192  0.1901 -0.0912  0.5026
49080SOL    HW159219  13.230  13.964   1.127  0.1541  0.1348  0.2529
49080SOL    HW259220  13.217  14.114   1.140 -3.1682 -0.1541  1.1935
49081SOL     OW59221   5.559  13.670   5.881 -0.1766 -0.0898 -0.2761
49081SOL    HW159222   5.484  13.628   5.923 -0.1039  0.8450  0.8095
49081SOL    HW259223   5.635  13.623   5.915 -0.0701  1.0977  1.2260
49082SOL     OW59224   8.470  10.388   2.461 -0.2973 -0.0688  0.3065
49082SOL    HW159225   8.464  10.466   2.517 -0.3815 -1.1960  1.9592
49082SOL    HW259226   8.479  10.422   2.373 -0.2863  1.8141  0.9883
49083SOL     OW59227   1.770   8.512  10.789 -0.0191  0.0553  0.3660
49083SOL    HW159228   1.677   8.501  10.808 -0.0096 -0.4166  0.1495
49083SOL    HW259229   1.783   8.463  10.708  0.2244  0.8775 -0.1061
49084SOL     OW59230   2.553  12.315   1.665  0.6098 -0.2555 -0.4188
49084SOL    HW159231   2.500  12.249   1.621  0.6263 -0.2675 -0.4214
49084SOL    HW259232   2.499  12.346   1.737  1.0357 -1.0800  0.2749
49085SOL     OW59233   8.205   6.549   2.060 -0.3993 -0.6451  0.2874
49085SOL    HW159234   8.175   6.556   2.150  0.3581 -0.9845  0.5718
49085SOL    HW259235   8.299   6.568   2.064 -0.6712  1.1001 -0.6808
49086SOL     OW59236   7.281   1.892   5.864  0.1923  0.5513 -0.4644
49086SOL    HW159237   7.270   1.843   5.783  1.4266 -1.1409  0.3363
49086SOL    HW259238   7.368   1.931   5.857  0.3599  0.2879  0.0920
49087SOL     OW59239   3.998   5.271   3.137  0.3521 -0.1417 -0.1799
49087SOL    HW159240   4.071   5.231   3.185  0.1612  2.3682  2.4869
49087SOL    HW259241   3.990   5.218   3.058  1.3880 -4.0457  2.0262
49088SOL     OW59242   5.048   0.595   0.085 -0.1819 -0.3453  0.1039
49088SOL    HW159243   5.112   0.660   0.111 -0.7684  0.5543 -0.6162
49088SOL    HW259244   4.969   0.618   0.134 -0.9178  0.5970 -1.4485
49089SOL     OW59245   3.172   6.478   9.817 -0.3200  0.2373  0.3348
49089SOL    HW159246   3.084   6.489   9.782  0.0701  0.7762 -0.5103
49089SOL    HW259247   3.181   6.383   9.830  0.0666 -0.2020 -2.5587
49090SOL     OW59248   3.138   6.077   5.601 -0.5120  0.9240 -0.3429
49090SOL    HW159249   3.137   6.037   5.687  1.0480  2.5232  0.4859
49090SOL    HW259250   3.092   6.015   5.545 -0.0805 -0.9659  1.2821
49091SOL     OW59251   8.688   6.499  11.728 -0.5696 -0.0664 -0.5835
49091SOL    HW159252   8.703   6.412  11.764 -1.8891 -0.2317 -0.3719
49091SOL    HW259253   8.657   6.483  11.639  0.2668  0.2427 -0.9381
49092SOL     OW59254   2.665   7.652   4.814 -0.3217 -0.1547  0.1692
49092SOL    HW159255   2.709   7.725   4.770  2.2464 -0.6738  1.6420
49092SOL    HW259256   2.621   7.604   4.744 -1.3313  2.2405 -0.9528
49093SOL     OW59257   2.391   8.188   7.495  0.1426  0.3302 -0.6239
49093SOL    HW159258   2.398   8.177   7.590  0.4874 -0.9336 -0.7803
49093SOL    HW259259   2.341   8.269   7.484  1.6063  1.4509  0.6041
49094SOL     OW59260   9.369   4.654   3.985 -0.0331 -0.5333  0.5502
49094SOL    HW159261   9.391   4.734   4.032 -1.8607 -0.2501  1.0027
49094SOL    HW259262   9.320   4.602   4.049  0.3209 -1.6093 -0.0302
49095SOL     OW59263   2.604   6.027   2.120  0.1540  0.1399  0.0260
49095SOL    HW159264   2.550   6.009   2.043  0.0526  0.5538 -0.0059
49095SOL    HW259265   2.578   6.116   2.147  0.5734  0.2066  0.2164
49096SOL     OW59266   3.547  11.763   0.616 -0.0179 -0.6103  0.3973
49096SOL    HW159267   3.547  11.853   0.646  0.9814 -0.1528 -0.8766
49096SOL    HW259268   3.591  11.766   0.531 -1.3803 -2.0561 -0.4070
49097SOL     OW59269   0.640   9.791   8.578  0.2483 -0.1230 -0.1187
49097SOL    HW159270   0.686   9.824   8.501 -1.8429  1.1483 -0.9199
49097SOL    HW259271   0.588   9.865   8.608 -2.7426 -1.9354 -0.4464
49098SOL     OW59272   5.501   0.252   3.350  0.0394 -0.3576 -0.2373
49098SOL    HW159273   5.480   0.313   3.280  0.0469  0.5288  0.5100
49098SOL    HW259274   5.582   0.286   3.388 -0.7995  0.1031  1.2161
49099SOL     OW59275   9.666   3.286  10.233 -0.1480  0.1030  0.1841
49099SOL    HW159276   9.698   3.325  10.151 -2.9816  0.9734 -0.6377
49099SOL    HW259277   9.744   3.247  10.273  1.5477  0.5763 -2.3869
49100SOL     OW59278  12.599   4.438   3.046  0.3552  0.1343 -0.0909
49100SOL    HW159279  12.609   4.525   3.006 -2.1790 -0.5411 -2.5145
49100SOL    HW259280  12.665   4.384   3.004  1.1986  0.5928  0.6062
49101SOL     OW59281   7.577   2.116  10.349 -0.4173  0.0300  0.4747
49101SOL    HW159282   7.555   2.144  10.438 -0.9308  0.7982  0.1216
49101SOL    HW259283   7.583   2.021  10.354 -0.4793  0.0663  1.3217
49102SOL     OW59284   6.292   1.213   2.023 -0.5138 -0.2183  0.1096
49102SOL    HW159285   6.201   1.189   2.005 -0.8831  0.2099  1.3626
49102SOL    HW259286   6.291   1.250   2.111  0.8889 -0.2617  0.1683
49103SOL     OW59287   7.703   4.152   6.296  0.0553 -0.0671 -0.6640
49103SOL    HW159288   7.781   4.206   6.299 -1.2431  1.9486 -1.1726
49103SOL    HW259289   7.682   4.135   6.388 -0.2641  1.4640 -0.4422
49104SOL     OW59290  10.608   1.601   3.527  0.2417  0.6181 -0.2522
49104SOL    HW159291  10.673   1.569   3.589 -0.4828  2.0779  1.3400
49104SOL    HW259292  10.529   1.552   3.548 -0.0970  1.3569  0.2457
49105SOL     OW59293   5.317   2.724   5.667  0.1109  0.5087  0.5858
49105SOL    HW159294   5.389   2.710   5.605 -1.2086 -0.3295 -0.8311
49105SOL    HW259295   5.269   2.642   5.667 -1.1786  1.2314  1.0595
49106SOL     OW59296   3.502  12.903   7.647 -0.6039  0.0985  0.4117
49106SOL    HW159297   3.573  12.884   7.585  0.6637 -0.9197  2.0725
49106SOL    HW259298   3.539  12.881   7.733 -2.6761  0.3309  1.4279
49107SOL     OW59299   8.968   6.865  12.281 -0.3806 -0.1712  0.3788
49107SOL    HW159300   9.062   6.853  12.289 -0.3124  1.1852  2.1373
49107SOL    HW259301   8.932   6.776  12.275  0.8676 -0.7944  1.6932
49108SOL     OW59302   3.618  13.837  10.183  0.0517 -0.4327 -0.3287
49108SOL    HW159303   3.681  13.842  10.255  0.8530 -1.1401 -0.9589
49108SOL    HW259304   3.540  13.798  10.222  0.5299 -0.9564  0.1266
49109SOL     OW59305   7.969   6.427   3.622 -0.2232  0.0186 -0.0199
49109SOL    HW159306   8.055   6.395   3.651 -0.5075  0.7839  1.7770
49109SOL    HW259307   7.989   6.492   3.554  0.5119 -1.0268 -0.8523
49110SOL     OW59308  10.049   3.892  13.522  0.3481 -0.2795 -0.1755
49110SOL    HW159309   9.962   3.912  13.489  1.3977  0.1849 -2.9844
49110SOL    HW259310  10.047   3.919  13.614 -2.4509 -0.3864 -0.1185
49111SOL     OW59311   8.395  12.705   6.883 -0.1033  0.4964  0.1865
49111SOL    HW159312   8.314  12.756   6.892 -1.1751 -0.9630 -0.7095
49111SOL    HW259313   8.442  12.720   6.965 -1.0570  1.7426  0.5466
49112SOL     OW59314   3.288  11.785   3.806  0.4033  0.0929 -0.3791
49112SOL    HW159315   3.257  11.750   3.722 -2.0446  2.5069 -0.6170
49112SOL    HW259316   3.313  11.875   3.787  0.2020  0.5637  1.3767
49113SOL     OW59317   5.881  10.411   6.546 -0.0375 -0.2179 -0.1162
49113SOL    HW159318   5.935  10.447   6.616 -0.5982 -0.9570  0.7123
49113SOL    HW259319   5.867  10.320   6.570  0.4379 -0.7236 -1.6203
49114SOL     OW59320  11.699   5.574   4.061 -0.4474 -0.3516 -0.0485
49114SOL    HW159321  11.745   5.567   4.145 -0.5677  0.5038  0.0971
49114SOL    HW259322  11.754   5.633   4.009 -1.7635  1.3366  0.4118
49115SOL     OW59323  12.782   9.165   1.617  0.3931 -0.0348  0.0491
49115SOL    HW159324  12.744   9.128   1.697 -0.0919 -0.1263 -0.2177
49115SOL    HW259325  12.742   9.252   1.609  1.2107  0.3782  0.4473
49116SOL     OW59326  10.720   1.771  11.775  0.4971 -0.6480 -0.1655
49116SOL    HW159327  10.656   1.721  11.724 -0.2441 -0.3938  0.4965
49116SOL    HW259328  10.708   1.861  11.745  0.7893 -0.6488 -0.2873
49117SOL     OW59329   9.459   2.914   4.185  0.6034 -0.1722 -1.3286
49117SOL    HW159330   9.539   2.871   4.216 -0.2791 -0.6015  0.5258
49117SOL    HW259331   9.413   2.938   4.266 -0.0898  2.0995 -2.3166
49118SOL     OW59332   0.506   7.767   9.810 -0.0459 -0.2148 -0.1512
49118SOL    HW159333   0.573   7.792   9.747 -1.3067  1.8802 -0.7474
49118SOL    HW259334   0.538   7.684   9.847  0.2645 -2.1794 -4.2304
49119SOL     OW59335  10.095   0.939   0.805 -0.1495 -0.1424  0.3814
49119SOL    HW159336  10.183   0.962   0.834 -0.1673  0.9131 -0.3809
49119SOL    HW259337  10.107   0.897   0.720 -0.3671 -0.2478  0.4003
49120SOL     OW59338   7.848  10.811  12.898 -0.1144 -0.1182 -0.0608
49120SOL    HW159339   7.766  10.768  12.871 -0.0610 -0.6230  0.5613
49120SOL    HW259340   7.879  10.856  12.819 -0.4086 -0.8573 -0.6019
49121SOL     OW59341  13.706  10.379   3.953 -0.1219 -0.1412 -0.0750
49121SOL    HW159342  13.706  10.331   3.870 -1.1359 -1.5743  0.7049
49121SOL    HW259343  13.615  10.372   3.984 -0.1699  1.8279  0.3610
49122SOL     OW59344   5.116   2.435   6.406 -0.0719 -0.3113 -0.1716
49122SOL    HW159345   5.200   2.480   6.393  0.4592 -0.9354  0.8859
49122SOL    HW259346   5.070   2.490   6.470 -0.3308 -0.1512 -0.4927
49123SOL     OW59347   8.458  12.589  11.763 -0.5755  0.0110  0.3250
49123SOL    HW159348   8.535  12.555  11.717 -0.5031  2.0013 -1.1867
49123SOL    HW259349   8.482  12.588  11.855  1.2851  0.5728 -0.1081
49124SOL     OW59350  11.356   8.545   8.318  0.2513 -0.0221 -0.2421
49124SOL    HW159351  11.420   8.577   8.381  0.3778  1.0838 -0.8910
49124SOL    HW259352  11.404   8.483   8.263  0.4142 -0.1970  0.1025
49125SOL     OW59353   4.433   0.336   7.060  0.4499  0.2350  0.2389
49125SOL    HW159354   4.511   0.287   7.088 -0.1896 -0.5423  0.6947
49125SOL    HW259355   4.458   0.374   6.976  1.2009 -0.3015  0.2078
49126SOL     OW59356  13.915  13.531   9.021 -0.1450 -0.1280 -0.8374
49126SOL    HW159357  13.892  13.531   9.114 -0.0017  1.1160 -0.7962
49126SOL    HW259358  13.860  13.599   8.982 -0.0804 -0.5141 -1.6447
49127SOL     OW59359   1.561   9.585  11.347  0.0756 -0.0300 -0.1421
49127SOL    HW159360   1.656   9.590  11.342  0.0362  2.5632  0.4591
49127SOL    HW259361   1.542   9.491  11.353  2.6075 -0.5772  0.2708
49128SOL     OW59362   9.018  13.082  13.431 -0.1075  0.5803  0.1039
49128SOL    HW159363   9.018  12.987  13.420  1.1850  0.7923 -2.2130
49128SOL    HW259364   9.057  13.096  13.518 -2.4055 -1.0105  1.5002
49129SOL     OW59365  11.490   7.937   6.018  0.2652  0.2168 -0.1849
49129SOL    HW159366  11.472   7.994   5.943 -0.9825  0.7315  0.4739
49129SOL    HW259367  11.548   7.989   6.074  2.0499 -0.5529 -1.2145
49130SOL     OW59368   9.052   6.079   6.445  0.2149 -0.2292 -0.3220
49130SOL    HW159369   9.062   5.988   6.418 -0.3027 -0.4800  0.2837
49130SOL    HW259370   9.005   6.073   6.529 -1.1905  0.6494 -1.0095
49131SOL     OW59371   1.076   5.792   1.164 -0.3109  0.0900  0.6373
49131SOL    HW159372   1.170   5.773   1.160 -0.5213 -0.8442 -0.2536
49131SOL    HW259373   1.072   5.886   1.178  0.7989  0.7823 -2.7289
49132SOL     OW59374   0.872   2.805   4.331  0.1453 -0.0004 -0.0095
49132SOL    HW159375   0.843   2.714   4.326  0.3095  0.0396 -2.5673
49132SOL    HW259376   0.820   2.851   4.265  0.1428  1.7665  1.1496
49133SOL     OW59377  12.522   6.251   8.825  0.1557 -0.2776  0.0621
49133SOL    HW159378  12.512   6.254   8.729 -0.5272 -1.3757  0.0840
49133SOL    HW259379  12.508   6.159   8.848  0.9217 -0.1340  1.1659
49134SOL     OW59380  13.206  11.263  13.605  0.1540 -0.0649  0.2512
49134SOL    HW159381  13.281  11.210  13.576  0.0891 -0.9539  1.6378
49134SOL    HW259382  13.130  11.209  13.588  0.0332 -0.1680  1.0919
49135SOL     OW59383   5.635  10.220   8.246  0.6761  0.5146 -0.1241
49135SOL    HW159384   5.630  10.158   8.172  1.4519 -0.1141  0.3410
49135SOL    HW259385   5.701  10.284   8.219  0.0080  1.0590 -0.5243
49136SOL     OW59386   4.182   1.500   8.156  0.1612  0.4250 -0.2292
49136SOL    HW159387   4.090   1.517   8.138  0.6018  0.3016 -3.0477
49136SOL    HW259388   4.182   1.448   8.237 -2.1010  1.6771  0.6435
49137SOL     OW59389   8.291   8.546   2.857  0.2871 -0.1552  0.4485
49137SOL    HW159390   8.212   8.510   2.898 -0.6535  1.0015 -0.2803
49137SOL    HW259391   8.344   8.469   2.835  0.5059 -0.8612  3.0818
49138SOL     OW59392   3.708   5.095   6.085  0.1885  0.8625 -0.0769
49138SOL    HW159393   3.703   5.003   6.109  0.7776  1.4562  2.7135
49138SOL    HW259394   3.646   5.105   6.013 -0.4663 -1.5314  0.0702
49139SOL     OW59395   5.920  11.266   1.092 -0.5841  0.0060  0.5673
49139SOL    HW159396   5.946  11.347   1.136 -0.2368  0.5178 -0.5613
49139SOL    HW259397   5.890  11.293   1.006 -2.5514 -0.8484  0.9256
49140SOL     OW59398  11.843  13.084  10.773 -0.5174  0.9676 -0.3178
49140SOL    HW159399  11.909  13.087  10.842 -0.7474  1.5933 -0.1224
49140SOL    HW259400  11.876  13.143  10.705 -0.0628  0.0031 -0.9619
49141SOL     OW59401   5.542   6.134   5.394  0.3260 -0.0539  0.5431
49141SOL    HW159402   5.553   6.229   5.397 -0.6189  0.0590  0.8521
49141SOL    HW259403   5.623   6.100   5.432  0.0920  0.6766  1.7738
49142SOL     OW59404   2.289  12.761   7.698  0.0903 -0.0543  0.4177
49142SOL    HW159405   2.364  12.812   7.730  0.2032 -0.3405  0.6223
49142SOL    HW259406   2.307  12.672   7.728 -0.2945 -0.1407  0.3986
49143SOL     OW59407   9.852   2.708  12.179 -0.3538  0.2171  0.6049
49143SOL    HW159408   9.894   2.785  12.141  0.2930 -0.2706  0.2991
49143SOL    HW259409   9.925   2.653  12.208 -0.7245 -1.0918 -0.7922
49144SOL     OW59410  11.641   5.585   2.573  0.3977  0.4344 -0.6003
49144SOL    HW159411  11.561   5.533   2.585 -0.2692  1.9806  2.9830
49144SOL    HW259412  11.709   5.519   2.558 -1.0185 -1.1772 -0.3511
49145SOL     OW59413   7.339   6.906   4.399 -0.4993  0.0940  0.3345
49145SOL    HW159414   7.322   6.995   4.429 -0.9291  0.3481 -0.6493
49145SOL    HW259415   7.380   6.863   4.474 -2.1798  0.5131  1.5614
49146SOL     OW59416   5.768   0.906  10.073 -0.1315 -0.2329  0.0376
49146SOL    HW159417   5.677   0.910  10.102 -1.0199  0.2721 -2.4932
49146SOL    HW259418   5.764   0.853   9.992  1.7784  0.0304 -0.2729
49147SOL     OW59419   2.232  12.810  11.013  0.7012  0.3161 -1.0629
49147SOL    HW159420   2.276  12.732  11.046  1.2152  1.6456  1.6173
49147SOL    HW259421   2.253  12.812  10.919 -1.1255 -3.8712 -1.7685
49148SOL     OW59422   0.905   7.116   3.162  0.4950 -0.6542  0.4668
49148SOL    HW159423   0.855   7.168   3.099  1.9691  1.3800  0.8631
49148SOL    HW259424   0.986   7.094   3.115  2.1364  1.8712  1.8817
49149SOL     OW59425   0.521  13.318   3.620  0.6123  0.2261 -0.1765
49149SOL    HW159426   0.556  13.381   3.682 -1.1410  1.0538  0.0431
49149SOL    HW259427   0.547  13.351   3.534  0.0982  1.0217 -0.0377
49150SOL     OW59428   8.461   6.741   1.947  0.0291  0.3058  0.0252
49150SOL    HW159429   8.539   6.764   1.897  0.1884  1.2295  0.6779
49150SOL    HW259430   8.418   6.825   1.965 -1.1755 -0.1857 -0.4066
49151SOL     OW59431   6.437   9.394   8.576 -0.4077 -0.0606 -0.0365
49151SOL    HW159432   6.452   9.304   8.548 -0.7054  0.0116 -0.4409
49151SOL    HW259433   6.436   9.390   8.672  0.4612 -0.3393 -0.0348
49152SOL     OW59434   7.140   5.474  11.254 -0.1373  0.0946 -0.4676
49152SOL    HW159435   7.124   5.552  11.201 -0.9046  0.9479  0.9235
49152SOL    HW259436   7.175   5.508  11.336  1.3146 -1.1946 -0.5107
49153SOL     OW59437   1.039  10.881  12.765  0.0021 -0.5848  0.4362
49153SOL    HW159438   1.014  10.973  12.777 -0.2282 -0.9488  3.6628
49153SOL    HW259439   1.111  10.884  12.702 -1.0838  1.5845 -0.8322
49154SOL     OW59440   5.671   4.202   5.765  0.2617  0.6027  0.1343
49154SOL    HW159441   5.724   4.184   5.688  1.3991  1.0195  0.8000
49154SOL    HW259442   5.646   4.115   5.797  1.2407  0.3624  0.2799
49155SOL     OW59443   3.768  13.017   6.465 -0.6979 -0.0026 -0.1648
49155SOL    HW159444   3.717  13.092   6.495  0.1690  0.3649  0.4338
49155SOL    HW259445   3.859  13.041   6.484 -0.2964 -0.6690 -1.1324
49156SOL     OW59446   4.266   5.980  11.214 -0.5915 -0.1088  0.3210
49156SOL    HW159447   4.216   5.995  11.134 -1.2944  0.3653  0.8336
49156SOL    HW259448   4.201   5.948  11.277 -0.6124  1.9595  1.4529
49157SOL     OW59449   4.804  12.129  11.738  0.4339 -0.6199  0.2838
49157SOL    HW159450   4.823  12.101  11.648  2.1076 -0.8096  0.6600
49157SOL    HW259451   4.887  12.117  11.784 -0.2039  0.1774  1.6824
49158SOL     OW59452   2.479   5.764  11.494  0.2224 -0.9529 -0.5664
49158SOL    HW159453   2.451   5.713  11.417 -0.0439 -0.6371 -0.6806
49158SOL    HW259454   2.425   5.843  11.491  0.9506 -0.4499 -0.6420
49159SOL     OW59455  11.706   8.533   0.534 -0.0223 -0.7532  0.1762
49159SOL    HW159456  11.752   8.602   0.485 -1.0225 -0.4674 -0.3733
49159SOL    HW259457  11.673   8.474   0.466  1.4459 -2.2199  0.6572
49160SOL     OW59458   0.122   5.764  12.753  0.0551 -0.3489  0.3873
49160SOL    HW159459   0.039   5.771  12.705  0.7812  2.9677 -0.6061
49160SOL    HW259460   0.187   5.740  12.687  0.4121  0.2940  0.5016
49161SOL     OW59461   7.239  10.374   4.666  0.9184  0.2396  0.1233
49161SOL    HW159462   7.294  10.369   4.588  0.8130  0.6082  0.0219
49161SOL    HW259463   7.298  10.404   4.735  0.7414  1.1007 -0.0936
49162SOL     OW59464   1.015   2.819   9.904  0.5500  0.2925  0.0391
49162SOL    HW159465   0.996   2.877   9.831 -0.2475 -1.0290 -0.8448
49162SOL    HW259466   0.945   2.754   9.902 -0.1336  0.8249  2.6672
49163SOL     OW59467   0.651  12.899   4.402 -0.2327  0.4257  0.0550
49163SOL    HW159468   0.710  12.973   4.416  1.0502 -0.6343  0.4087
49163SOL    HW259469   0.681  12.831   4.462 -2.7156  0.3095  1.3123
49164SOL     OW59470   1.445   5.837   4.428 -0.4773  0.2968  0.2986
49164SOL    HW159471   1.422   5.928   4.415  0.4669  0.5838  0.5128
49164SOL    HW259472   1.447   5.826   4.524  0.1779  0.2678  0.2870
49165SOL     OW59473  12.173   9.436   8.663  0.2936 -0.4124  0.1903
49165SOL    HW159474  12.098   9.402   8.711  0.3331 -0.6536  0.0858
49165SOL    HW259475  12.143   9.443   8.572 -0.0514  0.8634  0.3918
49166SOL     OW59476   7.169  10.072   1.012 -0.4354  0.4984 -0.3775
49166SOL    HW159477   7.254  10.109   1.036 -0.7482  0.2424  1.2826
49166SOL    HW259478   7.106  10.143   1.027 -0.5436  0.6655 -1.5302
49167SOL     OW59479   2.138  12.705  11.287  0.0604  0.0405  0.4357
49167SOL    HW159480   2.182  12.630  11.248  2.4586 -0.1369  3.1518
49167SOL    HW259481   2.162  12.778  11.230  1.0999 -0.6329 -0.0247
49168SOL     OW59482   2.987   2.456   8.289 -0.2466 -0.0834 -0.0627
49168SOL    HW159483   2.995   2.514   8.365 -1.4915 -0.4544  0.3689
49168SOL    HW259484   3.009   2.369   8.324  0.1401 -0.1053 -0.3581
49169SOL     OW59485   6.217  12.287   6.190 -0.3710 -0.4180  0.5436
49169SOL    HW159486   6.143  12.231   6.215  0.7396 -1.4103  1.7466
49169SOL    HW259487   6.280  12.227   6.151 -0.6657  0.6065 -1.6574
49170SOL     OW59488   6.966   4.860  11.224  0.1316  0.1659 -0.0239
49170SOL    HW159489   6.941   4.770  11.206 -0.4020  0.4305 -0.6681
49170SOL    HW259490   7.061   4.862  11.212  0.0095 -0.0734 -1.1078
49171SOL     OW59491   3.123   5.955   8.462 -0.3391  0.4699  0.3223
49171SOL    HW159492   3.067   5.942   8.386  0.6517  2.0560 -0.7168
49171SOL    HW259493   3.167   5.870   8.474 -2.3181 -0.5753  0.7209
49172SOL     OW59494  12.151   7.503  11.130  0.3095  0.6886 -0.4261
49172SOL    HW159495  12.075   7.515  11.073  0.5716  2.2805 -0.4831
49172SOL    HW259496  12.199   7.585  11.124  0.9165  0.4975  1.2617
49173SOL     OW59497   7.711   3.235   2.840 -0.2949 -0.0898 -0.1127
49173SOL    HW159498   7.668   3.255   2.756 -0.7177 -2.3998 -0.5386
49173SOL    HW259499   7.640   3.199   2.894  0.3129 -0.1884  0.6264
49174SOL     OW59500   7.479   1.376   9.896 -0.0704 -0.1072 -0.2309
49174SOL    HW159501   7.537   1.368   9.820  0.5475 -4.5169  0.4042
49174SOL    HW259502   7.391   1.377   9.859  0.2429  1.9379 -1.0449
49175SOL     OW59503  12.303   6.130   1.825  0.2503  0.3664  0.2978
49175SOL    HW159504  12.378   6.136   1.884  1.0354  0.9234 -0.7466
49175SOL    HW259505  12.237   6.188   1.864  0.5855  0.3636  0.8740
49176SOL     OW59506  13.276   2.956   7.349  0.1470  0.0861  0.5389
49176SOL    HW159507  13.311   2.941   7.436 -2.3914 -0.0081  1.6383
49176SOL    HW259508  13.330   3.027   7.313  2.0690 -0.7478  1.6249
49177SOL     OW59509   3.851   5.570   6.687  0.5510 -0.0518  0.4185
49177SOL    HW159510   3.946   5.555   6.692  0.7396  1.1918  0.8428
49177SOL    HW259511   3.839   5.615   6.603  0.4502  0.5711  0.7651
49178SOL     OW59512   8.506   5.742   1.108 -0.1752 -0.0460  0.2473
49178SOL    HW159513   8.476   5.710   1.193 -1.3451  2.1613  0.7581
49178SOL    HW259514   8.531   5.833   1.125  2.7352 -0.4727 -1.1330
49179SOL     OW59515   3.448  12.424  13.678  1.0805 -0.1356 -0.3516
49179SOL    HW159516   3.389  12.400  13.749  0.4148 -0.4227 -0.9776
49179SOL    HW259517   3.469  12.340  13.636  2.4536 -0.1122  0.2454
49180SOL     OW59518  10.608   1.234  10.779 -0.0632 -0.2124 -0.1936
49180SOL    HW159519  10.683   1.253  10.835 -1.1436  0.8097  0.9633
49180SOL    HW259520  10.623   1.145  10.747  1.0601 -0.4514  0.9361
49181SOL     OW59521   6.646   3.386   3.678  0.3021 -0.8325 -0.0143
49181SOL    HW159522   6.610   3.434   3.753  0.2296 -0.9686  0.0381
49181SOL    HW259523   6.616   3.296   3.690  1.4139 -1.1405  0.4992
49182SOL     OW59524   6.675   6.596   1.663 -0.3118  0.0004  0.0338
49182SOL    HW159525   6.606   6.567   1.603 -1.2083  0.7941  0.6524
49182SOL    HW259526   6.633   6.663   1.717  0.8590  0.2572  0.6522
49183SOL     OW59527  12.024  12.841   4.562 -0.1008 -0.3792 -0.3218
49183SOL    HW159528  11.999  12.800   4.645  1.2667 -0.5891  0.0126
49183SOL    HW259529  12.068  12.771   4.513  3.6670  0.8994  0.8657
49184SOL     OW59530   7.951   0.456   5.063  0.0235 -0.3806 -0.0327
49184SOL    HW159531   8.018   0.520   5.037 -0.8493  0.5549 -0.0385
49184SOL    HW259532   7.954   0.390   4.994 -0.5115  0.7617 -1.1824
49185SOL     OW59533  10.135  13.398   1.275 -0.4167  0.3929  0.1273
49185SOL    HW159534  10.117  13.382   1.183  0.7527  0.1831 -0.0763
49185SOL    HW259535  10.061  13.359   1.321 -0.7142 -0.0312 -0.6911
49186SOL     OW59536   9.122   9.448   8.388 -0.1177  0.1187  0.2146
49186SOL    HW159537   9.073   9.369   8.367  1.0074 -0.8081  0.9486
49186SOL    HW259538   9.058   9.507   8.428 -1.1157 -0.1386 -0.9526
49187SOL     OW59539   4.888   2.746   3.248 -0.3021 -0.1465 -0.1300
49187SOL    HW159540   4.816   2.685   3.266 -1.1334  0.8210 -0.0706
49187SOL    HW259541   4.849   2.833   3.258  1.1009  0.4217  0.8053
49188SOL     OW59542   6.211   4.509   8.278  0.5613  0.0789  0.4735
49188SOL    HW159543   6.208   4.513   8.374  1.6097 -0.8667  0.5758
49188SOL    HW259544   6.237   4.597   8.251 -0.4191  0.5451  1.0038
49189SOL     OW59545  12.709  10.202  12.412 -0.2032  0.6275  0.0319
49189SOL    HW159546  12.641  10.266  12.387 -0.5648  0.3736  0.3558
49189SOL    HW259547  12.667  10.147  12.478  0.2190  0.2627  0.0002
49190SOL     OW59548   5.942   1.591  12.534 -0.3918  0.2044  0.3689
49190SOL    HW159549   5.953   1.580  12.629 -1.6205  2.0369  0.7865
49190SOL    HW259550   5.908   1.507  12.503  2.9947 -1.5415  0.9506
49191SOL     OW59551   7.727   4.536   7.092 -0.3950  0.5308 -0.2110
49191SOL    HW159552   7.648   4.548   7.144 -1.7916  1.2702 -2.3480
49191SOL    HW259553   7.746   4.623   7.057  1.5083  0.4035  0.3815
49192SOL     OW59554   7.952  12.566   7.940  0.3603  0.1816  0.1786
49192SOL    HW159555   8.009  12.512   7.994  0.4758  0.0636 -0.0569
49192SOL    HW259556   7.936  12.645   7.991  0.8203  0.2589  0.2002
49193SOL     OW59557  13.689   4.616  12.275 -0.7051  0.5540 -0.0685
49193SOL    HW159558  13.722   4.646  12.190  0.7448  0.2563  0.3509
49193SOL    HW259559  13.632   4.687  12.304  0.3138  1.5767 -0.4309
49194SOL     OW59560   8.495   2.927   8.878 -0.4790  0.1472 -0.8799
49194SOL    HW159561   8.505   3.007   8.929 -1.2061 -0.2658 -0.0640
49194SOL    HW259562   8.481   2.957   8.788  0.1153  0.9041 -0.7310
49195SOL     OW59563   9.560   0.731   0.325 -0.1268  0.2551 -0.4192
49195SOL    HW159564   9.506   0.655   0.347  1.4947 -0.6594  0.6713
49195SOL    HW259565   9.581   0.771   0.410 -0.9618  1.9719 -0.9754
49196SOL     OW59566  12.785   9.969   6.218 -0.1774 -0.3041 -0.2259
49196SOL    HW159567  12.732  10.048   6.208 -0.3299 -0.6909 -3.8281
49196SOL    HW259568  12.723   9.901   6.244 -1.0148 -0.1546 -1.6971
49197SOL     OW59569   6.538   2.231   4.659 -1.0196 -0.1294  0.3519
49197SOL    HW159570   6.520   2.180   4.580 -0.4156  0.0228  0.1082
49197SOL    HW259571   6.508   2.176   4.731  0.7830 -1.4040  0.1845
49198SOL     OW59572   9.857   8.252   4.197  0.3459 -0.5779 -0.2836
49198SOL    HW159573   9.929   8.248   4.260  1.0887 -1.4315 -1.1615
49198SOL    HW259574   9.778   8.257   4.252  0.9172 -2.1256  0.7517
49199SOL     OW59575  10.879   7.671   9.132  0.3876  0.1525 -0.0850
49199SOL    HW159576  10.790   7.670   9.167 -0.6399  0.2683 -2.4511
49199SOL    HW259577  10.880   7.598   9.069  2.0923 -0.0654  0.1543
49200SOL     OW59578   1.531   7.168   6.559  0.2044  0.4105  0.0745
49200SOL    HW159579   1.465   7.220   6.606 -1.4088  0.2052 -1.8252
49200SOL    HW259580   1.615   7.202   6.590 -0.5063 -1.4604  5.1225
49201SOL     OW59581   0.215   4.795  10.416  0.7257  0.1551  0.0599
49201SOL    HW159582   0.203   4.721  10.475 -0.3511  0.5799  0.3926
49201SOL    HW259583   0.208   4.872  10.471 -0.9627  0.5820 -0.6934
49202SOL     OW59584   7.653   7.295   1.299  0.0385 -0.3484  0.2273
49202SOL    HW159585   7.647   7.218   1.356  0.3239 -0.7017 -0.2133
49202SOL    HW259586   7.590   7.278   1.229 -2.7654  1.5314  2.0631
49203SOL     OW59587   2.262   5.806   4.055 -0.2831 -0.1032  0.1154
49203SOL    HW159588   2.239   5.719   4.088  1.9092 -0.7560  0.0678
49203SOL    HW259589   2.282   5.857   4.134 -0.0181 -0.1293  0.0661
49204SOL     OW59590   9.356  11.280   7.120  0.3239  0.3351 -0.4609
49204SOL    HW159591   9.436  11.249   7.078 -0.3257  0.2926 -1.7085
49204SOL    HW259592   9.287  11.259   7.057 -0.3937  2.3400 -0.3919
49205SOL     OW59593   7.563   3.614   2.224  0.7153 -0.5980  0.3239
49205SOL    HW159594   7.643   3.562   2.212  1.3546  0.1521  1.2103
49205SOL    HW259595   7.569   3.684   2.160  1.4971  0.2903  1.3293
49206SOL     OW59596  10.575   1.527   5.169 -0.4932  0.2495  0.1203
49206SOL    HW159597  10.546   1.496   5.255 -3.4352  0.4321 -0.7148
49206SOL    HW259598  10.521   1.479   5.106  2.9503 -1.3985 -1.8648
49207SOL     OW59599  11.507   8.993   8.892  0.4435  0.3273 -0.0324
49207SOL    HW159600  11.511   9.046   8.972  2.2384  1.3959 -0.7397
49207SOL    HW259601  11.431   8.936   8.904  0.5068  0.6171  2.3096
49208SOL     OW59602  10.559  11.190  10.248 -0.0338  0.3762  0.0100
49208SOL    HW159603  10.483  11.171  10.303 -1.4631  0.7303 -1.7601
49208SOL    HW259604  10.565  11.286  10.249  1.6309  0.3169  1.6729
49209SOL     OW59605   8.145   3.568   7.145 -0.0098  0.5094  0.5779
49209SOL    HW159606   8.160   3.546   7.237  0.1442  1.0283  0.6822
49209SOL    HW259607   8.215   3.523   7.098 -0.7387 -0.6659  0.5860
49210SOL     OW59608   1.873  12.773   0.875  0.2110 -0.3733  0.2841
49210SOL    HW159609   1.915  12.691   0.852  1.0714  0.2121 -0.3057
49210SOL    HW259610   1.945  12.830   0.901 -0.3136  0.3742  0.1382
49211SOL     OW59611   0.148   4.205   3.643  0.7051 -0.3155  0.2432
49211SOL    HW159612   0.220   4.170   3.695  0.5788 -0.6103  0.2260
49211SOL    HW259613   0.069   4.165   3.682  0.6910 -1.4632 -0.8882
49212SOL     OW59614   0.603  11.234   4.406  0.1951  0.3242  0.1481
49212SOL    HW159615   0.562  11.238   4.492 -0.5947  1.1566 -0.2473
49212SOL    HW259616   0.645  11.148   4.403 -0.6861 -0.1559  0.9564
49213SOL     OW59617   2.824   2.741  11.144 -0.6028  0.4333  0.8509
49213SOL    HW159618   2.823   2.697  11.059 -0.0734  0.0156  1.0582
49213SOL    HW259619   2.871   2.681  11.202  0.5054  1.4664  1.0404
49214SOL     OW59620   5.202   2.757  10.144 -0.2860 -1.3047 -0.2949
49214SOL    HW159621   5.113   2.778  10.173 -0.0201  0.2825 -0.5054
49214SOL    HW259622   5.224   2.828  10.083  1.3129 -1.3592  0.1687
49215SOL     OW59623  11.229  13.294   5.242 -0.4745  0.0847  0.0339
49215SOL    HW159624  11.246  13.330   5.155 -1.0648  1.1837  0.3515
49215SOL    HW259625  11.280  13.213   5.245 -2.2003 -1.1865 -2.1573
49216SOL     OW59626   0.883   1.172   9.490  0.2490 -1.0184 -0.3407
49216SOL    HW159627   0.827   1.167   9.412 -0.6966 -1.6118  0.3464
49216SOL    HW259628   0.833   1.126   9.558  1.1150 -0.6322  0.5811
49217SOL     OW59629   1.336  13.054   0.474 -0.8828  0.4700 -0.5222
49217SOL    HW159630   1.391  12.984   0.508 -1.4684 -0.5053 -1.5163
49217SOL    HW259631   1.394  13.130   0.469  0.1216 -0.2889 -0.6712
49218SOL     OW59632  10.753  11.762  11.261 -0.0490  0.1751  0.1273
49218SOL    HW159633  10.735  11.838  11.316  0.7050  0.1311  0.4479
49218SOL    HW259634  10.848  11.764  11.248 -0.1551 -0.0992 -0.7614
49219SOL     OW59635  11.457   3.719   2.066 -0.3736 -0.6070  0.0560
49219SOL    HW159636  11.383   3.685   2.016 -1.1272 -2.9739  2.5052
49219SOL    HW259637  11.419   3.786   2.123 -1.0788 -2.7180  2.2493
49220SOL     OW59638   4.889  11.085   0.021  0.0412 -0.1510 -0.0826
49220SOL    HW159639   4.929  11.017   0.075 -0.1601 -0.0357  0.2150
49220SOL    HW259640   4.901  11.054  -0.069 -1.0568 -1.1599  0.0802
49221SOL     OW59641   5.982   6.595  12.516  0.0398 -0.3142  0.8925
49221SOL    HW159642   6.071   6.599  12.551 -0.5404  1.5625  2.3515
49221SOL    HW259643   5.975   6.673  12.461 -0.2695 -1.2301 -0.3964
49222SOL     OW59644   8.484   7.931  11.939 -0.4159 -0.4842  0.2286
49222SOL    HW159645   8.462   7.840  11.918  1.1212 -0.7975 -0.1411
49222SOL    HW259646   8.445   7.946  12.025 -1.3364 -1.2501 -0.0437
49223SOL     OW59647  13.379   7.062   9.530 -0.3429  0.0668 -0.8970
49223SOL    HW159648  13.318   7.134   9.544 -0.2947  0.1784 -1.2770
49223SOL    HW259649  13.323   6.984   9.524 -0.4903  0.2448 -1.8427
49224SOL     OW59650   5.250  11.639   5.807  0.0859 -0.3240 -0.2739
49224SOL    HW159651   5.201  11.710   5.848 -0.0095 -0.3723 -0.3051
49224SOL    HW259652   5.200  11.616   5.729  1.2041  1.0165 -1.4491
49225SOL     OW59653   2.630   4.043  12.501 -0.3287  0.1824 -0.2317
49225SOL    HW159654   2.577   4.032  12.422 -0.8770  0.8859  0.0376
49225SOL    HW259655   2.571   4.020  12.572 -0.2792  0.9792  0.0698
49226SOL     OW59656   7.158   7.554   4.025 -0.0189  0.5402  0.2001
49226SOL    HW159657   7.130   7.510   3.945  0.7840 -1.8149  1.0982
49226SOL    HW259658   7.084   7.542   4.085  0.0530  0.7623  0.3296
49227SOL     OW59659  11.344  13.325  13.266  0.0538 -0.4604 -0.4639
49227SOL    HW159660  11.270  13.361  13.316  0.8688  1.5319 -0.5991
49227SOL    HW259661  11.328  13.354  13.176 -0.0455 -1.8015 -0.8992
49228SOL     OW59662   7.473   5.100   7.147 -0.1360 -0.1601 -0.0786
49228SOL    HW159663   7.533   5.056   7.087  0.0645  1.4133 -1.1063
49228SOL    HW259664   7.386   5.084   7.110  0.0966  2.4623 -2.0940
49229SOL     OW59665   4.723   1.701   2.940  0.3357 -0.0741  0.5783
49229SOL    HW159666   4.804   1.749   2.954  0.3960 -0.0670  0.2211
49229SOL    HW259667   4.672   1.757   2.882  0.7555 -0.8160 -0.5422
49230SOL     OW59668   5.648   8.201   2.844 -0.0345  0.1631  0.2777
49230SOL    HW159669   5.616   8.194   2.754  0.9444 -0.9492 -0.0061
49230SOL    HW259670   5.584   8.153   2.896  0.8851 -1.7112 -0.2349
49231SOL     OW59671   1.784   6.664   3.193 -0.0737 -0.1061  0.1547
49231SOL    HW159672   1.783   6.746   3.143 -1.8767  0.8359  1.5863
49231SOL    HW259673   1.741   6.600   3.135  0.0909  0.3161 -0.4400
49232SOL     OW59674  12.930   3.754   6.325  0.1344 -0.2248  0.2601
49232SOL    HW159675  12.907   3.673   6.280  0.4616  0.1860 -0.6727
49232SOL    HW259676  13.026   3.758   6.318  0.0142  1.0331 -1.1448
49233SOL     OW59677   8.644  13.542   8.092 -0.1471 -0.5937  0.6105
49233SOL    HW159678   8.713  13.604   8.070 -1.2180  0.9805  1.4936
49233SOL    HW259679   8.627  13.558   8.185 -1.8630 -0.7572  0.3541
49234SOL     OW59680   1.653  12.762   2.511  0.3351  0.0803 -0.2145
49234SOL    HW159681   1.606  12.736   2.432 -1.3964  1.3628  0.3352
49234SOL    HW259682   1.737  12.718   2.504 -1.3121 -3.2758 -0.6917
49235SOL     OW59683   1.817   6.183  11.355  0.1352 -0.0779 -0.0659
49235SOL    HW159684   1.840   6.197  11.263  0.7060  5.3139  0.5696
49235SOL    HW259685   1.743   6.124  11.353  1.2103 -1.5414 -3.7998
49236SOL     OW59686   2.890   8.345   9.238 -0.1601  0.3518 -0.1200
49236SOL    HW159687   2.885   8.265   9.290 -1.4068  0.5597  0.1213
49236SOL    HW259688   2.977   8.381   9.257  0.1494 -0.5903  0.2848
49237SOL     OW59689   6.099  11.321   0.045  0.1046  0.0935  0.0226
49237SOL    HW159690   6.052  11.400   0.074 -0.1168 -0.5717  1.5843
49237SOL    HW259691   6.147  11.292   0.123  3.9817  1.2727 -1.6777
49238SOL     OW59692  14.043  12.231   0.117  0.0063  0.0826  0.8679
49238SOL    HW159693  14.123  12.282   0.108 -1.7625  2.9670  0.2738
49238SOL    HW259694  14.010  12.221   0.028 -2.1524  2.2681  1.3340
49239SOL     OW59695  12.806  12.867   1.865  0.0716 -0.0735 -0.2713
49239SOL    HW159696  12.870  12.922   1.820  1.5581  0.5959  2.4140
49239SOL    HW259697  12.852  12.785   1.883  0.0794  0.2305  1.2489
49240SOL     OW59698  12.615   1.645   1.844  0.7829 -0.1245 -0.3561
49240SOL    HW159699  12.612   1.599   1.928 -0.6808 -0.1998 -0.4217
49240SOL    HW259700  12.681   1.713   1.856 -0.9902  1.3754  1.6863
49241SOL     OW59701   8.321   2.617   2.005 -0.1592 -0.2661  0.1163
49241SOL    HW159702   8.348   2.695   2.054  1.1351 -1.2695  1.1072
49241SOL    HW259703   8.387   2.551   2.028  0.4630 -0.8550 -2.9348
49242SOL     OW59704   3.820  12.475   4.764 -0.4082  0.1734  0.4188
49242SOL    HW159705   3.735  12.480   4.721 -0.3027  1.4605  0.3122
49242SOL    HW259706   3.800  12.460   4.856 -0.9311  3.1716  0.8810
49243SOL     OW59707   3.560   6.362   3.346 -0.3294  0.1775  0.0938
49243SOL    HW159708   3.654   6.353   3.358 -0.4054 -0.6700  0.0790
49243SOL    HW259709   3.522   6.284   3.386 -0.9679  0.1176 -0.5908
49244SOL     OW59710   6.486   9.450  13.557  0.0521  0.2110  0.4631
49244SOL    HW159711   6.510   9.509  13.629  1.6140  0.9133 -0.5933
49244SOL    HW259712   6.504   9.500  13.478 -0.1876 -1.1001 -0.4494
49245SOL     OW59713   5.614  13.338   3.812  0.2658  0.2380  0.5672
49245SOL    HW159714   5.530  13.292   3.805  0.5362 -0.0723 -1.0158
49245SOL    HW259715   5.613  13.376   3.900 -2.6720  2.4243 -0.2374
49246SOL     OW59716   0.682   1.256   3.950  0.8017  0.0142  0.3844
49246SOL    HW159717   0.693   1.351   3.937  1.4752 -0.3793 -2.9668
49246SOL    HW259718   0.764   1.228   3.990  1.5795  0.5749 -0.7609
49247SOL     OW59719   3.899   1.506   8.027  0.3320  0.5809 -0.1386
49247SOL    HW159720   3.912   1.420   7.988 -1.8775 -0.7765  1.8781
49247SOL    HW259721   3.819   1.539   7.987 -1.2902 -0.3119  2.1919
49248SOL     OW59722   2.533   8.086   8.677  0.2922 -0.4081 -0.5182
49248SOL    HW159723   2.556   8.080   8.585 -0.4011 -0.9469 -0.6719
49248SOL    HW259724   2.610   8.124   8.719 -0.2880  2.3308 -1.6878
49249SOL     OW59725   7.834   5.527   9.259 -0.0267  0.1040 -0.3259
49249SOL    HW159726   7.799   5.450   9.303  0.5914 -1.1040 -1.8185
49249SOL    HW259727   7.814   5.600   9.317 -2.1420 -0.9439  0.3460
49250SOL     OW59728   9.235   9.578   0.546  0.2319 -0.5819 -0.2492
49250SOL    HW159729   9.209   9.652   0.601  0.5844  0.5740 -1.5851
49250SOL    HW259730   9.330   9.571   0.560  0.0280 -1.5792  0.7868
49251SOL     OW59731  12.496  11.360   0.584  0.4769 -0.1876 -0.0359
49251SOL    HW159732  12.550  11.347   0.662 -0.4556  1.5253  0.9675
49251SOL    HW259733  12.406  11.363   0.617 -0.1817 -1.8737 -1.5329
49252SOL     OW59734   6.779   8.884  12.783 -0.6751 -0.0310  0.1328
49252SOL    HW159735   6.733   8.801  12.798 -1.9394  0.4321 -1.0501
49252SOL    HW259736   6.746   8.943  12.850 -0.7248 -0.1059  0.1745
49253SOL     OW59737   4.507   9.481  11.353 -0.3000  0.1875 -0.4260
49253SOL    HW159738   4.512   9.566  11.397 -0.3778 -0.2344  0.4209
49253SOL    HW259739   4.427   9.441  11.388 -0.4930 -0.0654 -1.1391
49254SOL     OW59740   0.001   8.188  12.508 -0.3539 -0.3049  0.2617
49254SOL    HW159741   0.050   8.230  12.437 -1.9480  0.6181 -0.3305
49254SOL    HW259742   0.034   8.098  12.509  1.4937  0.3229  0.0493
49255SOL     OW59743   4.015  11.519   8.141  0.4735 -0.2218  0.1176
49255SOL    HW159744   3.978  11.460   8.076  3.2466 -0.6866 -1.1605
49255SOL    HW259745   4.013  11.605   8.100 -1.1610  0.2044  0.9677
49256SOL     OW59746  11.751   3.173  13.867 -0.6006 -0.4389  0.2194
49256SOL    HW159747  11.708   3.149  13.785 -0.8137  0.3905  0.0774
49256SOL    HW259748  11.766   3.267  13.859  1.3751 -0.6998  0.1955
49257SOL     OW59749   0.120   4.114   8.260 -0.5238 -0.0982  0.7248
49257SOL    HW159750   0.115   4.115   8.356  0.8432 -1.3841  0.8404
49257SOL    HW259751   0.056   4.049   8.233  1.3243 -2.1529  1.0138
49258SOL     OW59752   1.360   4.548   8.144  0.4788  0.1049  0.0552
49258SOL    HW159753   1.403   4.577   8.224  1.5799 -0.9948 -0.1149
49258SOL    HW259754   1.314   4.468   8.169  0.3191  0.0891 -0.2816
49259SOL     OW59755   4.888   4.466   1.094 -0.0691 -0.0799 -0.1041
49259SOL    HW159756   4.837   4.386   1.077 -0.7317  0.6463 -1.8407
49259SOL    HW259757   4.976   4.445   1.065  0.2548 -0.8111  1.3482
49260SOL     OW59758   4.261   3.040   0.853  0.4774 -0.1840  0.6965
49260SOL    HW159759   4.300   2.969   0.802  0.0741  0.8054 -1.0552
49260SOL    HW259760   4.166   3.024   0.848  0.3201  1.0227 -0.5954
49261SOL     OW59761  10.516   6.236   9.248  0.1941 -0.1295 -0.2531
49261SOL    HW159762  10.498   6.143   9.261  2.3762 -1.0662 -2.9421
49261SOL    HW259763  10.571   6.261   9.322  0.4824 -1.2832 -0.0689
49262SOL     OW59764  12.505   0.259   2.985  0.1298  0.2204  0.7341
49262SOL    HW159765  12.555   0.288   3.061  0.6052  0.0152  0.5042
49262SOL    HW259766  12.551   0.182   2.953 -0.0685  0.3005  0.2411
49263SOL     OW59767  14.004   1.700   4.076 -0.2137 -0.6869  0.3479
49263SOL    HW159768  13.983   1.793   4.079  1.2840 -0.3073 -0.1425
49263SOL    HW259769  14.007   1.678   3.983 -1.3261 -1.4323  0.4652
49264SOL     OW59770   8.571   1.697   7.232  0.0594 -0.2907  0.2904
49264SOL    HW159771   8.647   1.726   7.281  0.4592 -0.9472  0.0735
49264SOL    HW259772   8.497   1.709   7.293  0.3821  0.0178  0.6234
49265SOL     OW59773   0.790   1.073   7.581 -0.1006  0.7076  0.3818
49265SOL    HW159774   0.775   0.992   7.630 -1.8205  0.8386  0.1263
49265SOL    HW259775   0.778   1.049   7.490  2.8355  0.5268 -0.0564
49266SOL     OW59776   9.047   4.271  12.016 -0.2984  0.1869 -0.0326
49266SOL    HW159777   8.955   4.256  12.037 -0.6827  0.4420 -1.4548
49266SOL    HW259778   9.092   4.192  12.047 -1.0680 -0.1732  0.1894
49267SOL     OW59779  12.464  12.332   3.673 -0.1421 -0.1086 -0.1760
49267SOL    HW159780  12.407  12.290   3.738  0.8510 -0.5413  0.4448
49267SOL    HW259781  12.535  12.269   3.660  0.4782  0.6515 -0.5252
49268SOL     OW59782   3.274   3.372   8.392  0.3048 -0.2527 -0.6172
49268SOL    HW159783   3.316   3.339   8.472  0.0917 -1.6634 -1.0611
49268SOL    HW259784   3.188   3.331   8.392 -1.0436  2.3608  0.1251
49269SOL     OW59785   4.746   9.210   8.094 -0.5661  0.1119 -0.1315
49269SOL    HW159786   4.714   9.192   8.005 -0.5376  2.1307 -0.5996
49269SOL    HW259787   4.839   9.185   8.091 -0.7348 -0.5179 -0.4297
49270SOL     OW59788   7.536   8.634   5.038  0.0649 -0.0291  0.0458
49270SOL    HW159789   7.629   8.635   5.014  0.7169 -0.0272  2.3726
49270SOL    HW259790   7.533   8.596   5.125 -2.2477 -0.7821 -0.2755
49271SOL     OW59791   2.175  13.503   9.091 -0.2636  0.2292 -0.2184
49271SOL    HW159792   2.146  13.589   9.059 -1.0387  0.3298  0.7071
49271SOL    HW259793   2.094  13.458   9.115  0.0370 -1.2256 -1.7765
49272SOL     OW59794   9.262  11.062  13.583 -0.0426  0.4020 -0.5482
49272SOL    HW159795   9.195  11.020  13.529 -0.2161 -0.7929  0.5496
49272SOL    HW259796   9.215  11.094  13.660  0.3015  1.5107 -0.7843
49273SOL     OW59797   9.819  13.827  11.247  0.2710  0.1776 -0.3280
49273SOL    HW159798   9.740  13.823  11.193 -0.4233 -2.1547  0.6862
49273SOL    HW259799   9.864  13.744  11.229  0.5794 -0.1806  1.7516
49274SOL     OW59800  11.676   6.899   1.520  0.2415  0.0862 -0.1629
49274SOL    HW159801  11.750   6.885   1.461  0.6601  0.4473  0.2688
49274SOL    HW259802  11.703   6.858   1.602  0.3798  1.0728  0.3019
49275SOL     OW59803   0.151   1.568  11.101  0.8029  0.2000 -0.2832
49275SOL    HW159804   0.136   1.516  11.179  1.4109 -0.1758 -0.4077
49275SOL    HW259805   0.082   1.634  11.102  1.8480  1.3394  1.5330
49276SOL     OW59806   0.548  11.917   1.349  0.2220 -0.0138  0.1678
49276SOL    HW159807   0.569  11.836   1.395  2.2991  1.0699  1.2725
49276SOL    HW259808   0.458  11.905   1.320  0.2042 -2.3905  0.9620
49277SOL     OW59809  11.985   8.293   2.215  0.2359  0.2565  0.0489
49277SOL    HW159810  12.058   8.240   2.247  3.1355  1.3787 -3.8860
49277SOL    HW259811  11.933   8.233   2.161 -1.1082 -0.2294  1.7979
49278SOL     OW59812   6.326   2.870   4.415  0.4001 -0.0889  0.9476
49278SOL    HW159813   6.322   2.787   4.368 -1.5010  0.4537  0.0366
49278SOL    HW259814   6.387   2.854   4.487  0.8802 -1.9378  0.1865
49279SOL     OW59815   2.504   9.046  13.234 -0.3069 -0.2400 -0.0992
49279SOL    HW159816   2.503   8.977  13.300 -1.9131 -1.3270 -1.2018
49279SOL    HW259817   2.475   9.125  13.280 -0.6992 -0.8247  0.6558
49280SOL     OW59818   8.320  13.049  12.109  0.4463 -0.3296  0.0488
49280SOL    HW159819   8.338  12.957  12.094 -1.1523 -0.8038  0.7892
49280SOL    HW259820   8.368  13.095  12.040 -1.9163 -1.9969 -2.9610
49281SOL     OW59821   9.527  11.044   4.245 -0.1994 -0.4243  0.1645
49281SOL    HW159822   9.611  10.999   4.235  0.8920  1.5312 -0.0487
49281SOL    HW259823   9.542  11.107   4.316 -1.9376 -0.9617  1.0646
49282SOL     OW59824   9.774   2.516   5.415 -0.0836  0.5143  0.5382
49282SOL    HW159825   9.727   2.445   5.373 -0.5584  0.8459  0.5087
49282SOL    HW259826   9.815   2.475   5.492  0.3790  0.0196  0.0371
49283SOL     OW59827   1.071   5.431   5.574  0.3262 -0.3392 -0.3011
49283SOL    HW159828   1.035   5.352   5.615 -0.0576 -0.1265 -0.2168
49283SOL    HW259829   0.997   5.493   5.574  0.3352 -0.3132 -1.2419
49284SOL     OW59830  12.260  12.417   7.834  0.6227  0.4847  0.3826
49284SOL    HW159831  12.295  12.417   7.745  0.6825 -0.2695  0.4000
49284SOL    HW259832  12.186  12.477   7.831 -0.7490 -1.1698 -0.7225
49285SOL     OW59833  12.837   8.490   9.406  0.5843 -0.0548  0.0291
49285SOL    HW159834  12.749   8.455   9.417  0.6846  0.2657  2.2751
49285SOL    HW259835  12.883   8.423   9.356 -0.2490 -1.4072  0.9854
49286SOL     OW59836   8.889  13.731   2.457 -0.3832 -0.0020 -0.5533
49286SOL    HW159837   8.886  13.753   2.550 -1.5607  1.6042 -0.9182
49286SOL    HW259838   8.936  13.648   2.454 -1.0590 -0.5489  1.5588
49287SOL     OW59839   3.076  10.932   6.896 -0.1084  0.5026 -0.4530
49287SOL    HW159840   3.066  10.976   6.980  0.2143 -1.5601  0.7333
49287SOL    HW259841   3.169  10.942   6.875 -0.4682  2.3024 -1.3643
49288SOL     OW59842  11.803  13.530   3.848  0.7232 -0.2688  0.2477
49288SOL    HW159843  11.881  13.478   3.830  0.6695 -0.0604 -0.6164
49288SOL    HW259844  11.822  13.573   3.932  1.0362 -1.1502  0.6470
49289SOL     OW59845   0.896  13.086  11.143  0.0404 -0.6041  0.2598
49289SOL    HW159846   0.858  13.165  11.182 -0.8458 -0.9419  0.1052
49289SOL    HW259847   0.900  13.023  11.214 -0.1441 -0.7241  0.1653
49290SOL     OW59848   4.144   1.951   2.679  0.2219 -0.6469 -0.1226
49290SOL    HW159849   4.222   1.914   2.639  0.3386 -2.1159  1.3425
49290SOL    HW259850   4.131   1.899   2.759 -2.6167 -0.8986 -0.6377
49291SOL     OW59851   4.775   4.809   8.482 -0.2574  0.1033 -0.1082
49291SOL    HW159852   4.701   4.760   8.445 -0.8069 -1.7969  3.1266
49291SOL    HW259853   4.736   4.862   8.551  1.3631 -1.4090  2.0839
49292SOL     OW59854   8.837  12.969   4.724 -0.7771 -0.1134 -0.4850
49292SOL    HW159855   8.828  12.986   4.818 -0.9947  2.6947 -0.9299
49292SOL    HW259856   8.760  12.917   4.702 -1.0207 -0.3235  0.7778
49293SOL     OW59857   4.423  11.767   0.730 -0.0373 -0.1684  0.2965
49293SOL    HW159858   4.487  11.837   0.711 -1.5344  1.0727 -0.3736
49293SOL    HW259859   4.351  11.812   0.774 -0.7191 -1.4470  0.5213
49294SOL     OW59860   0.327  12.777   3.564  0.4729 -0.1636  0.2440
49294SOL    HW159861   0.328  12.763   3.469 -0.0851  0.8709  0.0734
49294SOL    HW259862   0.414  12.812   3.583 -0.1444  1.8277 -0.2779
49295SOL     OW59863  12.651   5.577   7.020  0.3282 -0.1476 -0.4950
49295SOL    HW159864  12.599   5.502   7.047 -0.3948  0.1255 -1.1076
49295SOL    HW259865  12.696   5.548   6.940 -1.4134  0.6435 -1.8307
49296SOL     OW59866   0.668  12.004  10.805  0.3993 -1.0217  0.2152
49296SOL    HW159867   0.676  12.090  10.762  0.7421 -1.0152  0.2900
49296SOL    HW259868   0.757  11.969  10.804  0.2566 -1.3818  0.1769
49297SOL     OW59869  10.077  12.271   2.155  0.8894 -0.1323  0.1138
49297SOL    HW159870   9.988  12.258   2.189  0.3348 -5.7036 -2.3665
49297SOL    HW259871  10.067  12.341   2.091 -1.7078 -0.4163  0.0717
49298SOL     OW59872   2.023   7.777   9.786 -0.5114  0.3051 -0.1528
49298SOL    HW159873   1.958   7.789   9.717 -0.2566  1.1361 -0.2668
49298SOL    HW259874   1.992   7.833   9.858 -0.7710 -0.5454  0.4113
49299SOL     OW59875   1.280   2.914   3.344 -0.1475 -0.2109 -0.1841
49299SOL    HW159876   1.331   2.995   3.351 -0.5805  0.0951 -0.4880
49299SOL    HW259877   1.190   2.944   3.330 -0.1650 -0.7360 -1.3457
49300SOL     OW59878  12.909   3.688   0.586  0.3160  0.0175 -0.3844
49300SOL    HW159879  12.982   3.731   0.541  0.9959 -0.9313 -0.2257
49300SOL    HW259880  12.841   3.755   0.592  0.9143  0.7117 -1.1569
49301SOL     OW59881   3.092   3.491   4.267  0.0602  0.4457 -0.2893
49301SOL    HW159882   3.001   3.483   4.240  0.4677  1.3643 -2.0747
49301SOL    HW259883   3.103   3.583   4.288  0.2118  0.0592  1.4597
49302SOL     OW59884   6.670   9.069  13.950 -0.7056 -0.1676  0.3309
49302SOL    HW159885   6.687   8.995  13.892  0.3184 -0.0752  0.4852
49302SOL    HW259886   6.661   9.144  13.891 -0.5759 -0.2273  0.2330
49303SOL     OW59887   1.511   3.696   6.998 -0.3822 -0.0313 -0.1942
49303SOL    HW159888   1.467   3.670   6.917 -1.6146 -0.3549  0.5576
49303SOL    HW259889   1.489   3.789   7.008 -0.9892 -0.2104  0.2182
49304SOL     OW59890  12.468   1.118   0.482  0.1479  0.0406  0.2533
49304SOL    HW159891  12.442   1.172   0.408  1.1052 -0.7894 -0.7324
49304SOL    HW259892  12.560   1.142   0.498  0.3607 -0.7632  0.2737
49305SOL     OW59893  10.165   1.047  13.241 -0.1937 -0.0549  0.2798
49305SOL    HW159894  10.117   1.098  13.176 -0.3272  0.8227  1.0315
49305SOL    HW259895  10.116   0.966  13.250 -0.2817 -0.1000 -0.5603
49306SOL     OW59896   5.320   8.785   9.644 -0.1114  0.5715 -0.7296
49306SOL    HW159897   5.305   8.826   9.729 -1.4064  0.1511 -0.7371
49306SOL    HW259898   5.373   8.848   9.596  2.7274 -0.1238  1.1528
49307SOL     OW59899  13.079   1.859  13.721  0.5112  0.3969  0.2670
49307SOL    HW159900  13.001   1.878  13.773  1.1870 -1.0903  1.9211
49307SOL    HW259901  13.124   1.943  13.713 -1.4843  1.4144 -1.2179
49308SOL     OW59902   7.253  10.707   6.994 -0.2367  0.6677  0.5638
49308SOL    HW159903   7.196  10.717   6.919  0.7829  0.9844 -0.1896
49308SOL    HW259904   7.277  10.614   6.994  1.2127  1.0173 -0.6077
49309SOL     OW59905   8.653   1.229   2.344 -0.0404 -0.0813  0.4460
49309SOL    HW159906   8.702   1.224   2.426 -0.6410 -0.4518  0.7895
49309SOL    HW259907   8.663   1.143   2.305  1.6730  0.6034 -0.7285
49310SOL     OW59908  11.350  11.343  11.224 -0.1712  0.5428  0.1985
49310SOL    HW159909  11.375  11.398  11.150  0.6675  0.1216  0.1631
49310SOL    HW259910  11.354  11.401  11.300  0.7583  0.5255  0.1707
49311SOL     OW59911   1.379   3.907   4.023  0.5032 -0.1694  0.3572
49311SOL    HW159912   1.321   3.965   3.974  3.6940  0.5631 -3.0661
49311SOL    HW259913   1.386   3.947   4.110 -2.9997  0.3291  0.5434
49312SOL     OW59914   6.986  12.443   2.790 -0.2365  0.1392  0.7264
49312SOL    HW159915   6.935  12.373   2.751 -0.4595  0.7734 -0.1502
49312SOL    HW259916   6.949  12.524   2.754  0.4044  0.6826  1.2424
49313SOL     OW59917   2.037   5.301   5.885 -0.2671  0.1697 -0.2552
49313SOL    HW159918   2.106   5.250   5.928  0.3117  0.6620 -0.5874
49313SOL    HW259919   2.067   5.312   5.795  0.3322  2.2838  0.1329
49314SOL     OW59920   4.072   0.864  11.680  0.2247 -0.2261 -0.3813
49314SOL    HW159921   4.096   0.810  11.755  1.1182 -0.0608 -0.5375
49314SOL    HW259922   4.098   0.953  11.705 -1.5791  0.2263  0.0311
49315SOL     OW59923  11.130   9.309   9.912  0.1075 -0.3507 -0.8893
49315SOL    HW159924  11.082   9.227   9.921  0.1493 -0.2023  1.0798
49315SOL    HW259925  11.065   9.373   9.882 -0.2282 -0.8103 -1.1385
49316SOL     OW59926   4.376  11.733   7.489 -0.2363 -0.2388  0.1070
49316SOL    HW159927   4.436  11.717   7.562 -1.0354 -0.4748  0.7163
49316SOL    HW259928   4.382  11.827   7.473  1.8921 -0.5268 -1.2430
49317SOL     OW59929   2.024   2.467  12.809  0.3453  0.0186  0.3502
49317SOL    HW159930   2.105   2.472  12.758 -0.2274 -2.1691 -0.9003
49317SOL    HW259931   2.047   2.415  12.885  0.5959  1.2365  1.1440
49318SOL     OW59932   8.418   1.091   5.181 -0.3782  0.8695 -0.4300
49318SOL    HW159933   8.442   1.042   5.261  0.9731  1.9102 -0.1575
49318SOL    HW259934   8.459   1.177   5.193 -0.1352  1.0340 -2.2621
49319SOL     OW59935   7.558  10.782  12.818 -0.0340  0.1921  0.1004
49319SOL    HW159936   7.482  10.744  12.773  0.3136 -0.5373  0.1085
49319SOL    HW259937   7.582  10.857  12.764 -0.5190  0.1926 -0.1242
49320SOL     OW59938   9.987   4.276  11.875  0.4672 -0.0220 -0.1803
49320SOL    HW159939   9.926   4.217  11.920  1.0182 -0.6640 -0.2465
49320SOL    HW259940   9.931   4.338  11.828 -0.2299 -1.9816 -2.1258
49321SOL     OW59941   4.515  10.337   7.630 -0.4244  0.2111  0.2489
49321SOL    HW159942   4.558  10.332   7.715 -1.2740  1.1714  0.7602
49321SOL    HW259943   4.421  10.333   7.651 -0.6563  0.9865 -0.5945
49322SOL     OW59944   2.318   7.825   0.807  0.0139 -0.0087  0.4421
49322SOL    HW159945   2.239   7.876   0.787  0.0851  0.1989  0.6828
49322SOL    HW259946   2.353   7.866   0.886  0.4823  0.0333  0.2137
49323SOL     OW59947   2.271   3.011  10.009  0.3359  0.1783 -0.5595
49323SOL    HW159948   2.209   3.034  10.078  0.2325  0.1794 -0.6521
49323SOL    HW259949   2.341   3.076  10.017  0.6176 -0.1837 -0.0781
49324SOL     OW59950  11.473  10.040   4.787  1.0843  0.4476  0.2008
49324SOL    HW159951  11.521   9.984   4.725  0.1443 -1.4934  1.1167
49324SOL    HW259952  11.454  10.120   4.739  3.8236  0.6712 -0.7073
49325SOL     OW59953  12.452  11.619   3.054  0.5436 -0.0852 -0.3756
49325SOL    HW159954  12.495  11.564   3.120  0.4363  2.3224  1.8834
49325SOL    HW259955  12.360  11.618   3.079 -0.0759 -1.5711 -2.4478
49326SOL     OW59956  10.411   3.400   7.767  0.8042  0.2663 -0.5009
49326SOL    HW159957  10.342   3.349   7.724  0.6665  0.3864 -0.4222
49326SOL    HW259958  10.365   3.472   7.810  0.8552 -0.2124  0.3878
49327SOL     OW59959   2.124   4.975   0.214 -0.2307  0.8118  0.2427
49327SOL    HW159960   2.129   5.048   0.153  1.5652  0.5118 -0.0483
49327SOL    HW259961   2.157   4.900   0.163 -0.8187  0.0855  0.9155
49328SOL     OW59962  10.951   6.531  13.501 -0.0884 -0.2438 -0.0842
49328SOL    HW159963  10.913   6.605  13.454  0.5521 -0.1910 -0.5406
49328SOL    HW259964  10.890   6.513  13.573  0.0740  1.1464  0.4223
49329SOL     OW59965   6.022   2.300   2.761  0.2773  0.1985 -0.1395
49329SOL    HW159966   6.027   2.208   2.732  2.2523 -0.4379  1.8714
49329SOL    HW259967   5.944   2.334   2.719 -1.4836 -2.8923  0.3059
49330SOL     OW59968   8.901   1.918   5.252 -0.2602  0.5082 -0.2741
49330SOL    HW159969   8.856   1.853   5.198  1.3701 -0.5677 -0.4002
49330SOL    HW259970   8.901   1.998   5.200 -1.3455  0.3233 -0.5746
49331SOL     OW59971   3.662   6.700   7.982 -0.5446 -0.5311 -0.2532
49331SOL    HW159972   3.730   6.687   8.048  0.7310 -2.2325 -1.8147
49331SOL    HW259973   3.580   6.680   8.028  0.0992  0.2707  1.3100
49332SOL     OW59974  13.836   4.566  11.570  0.1188 -0.4838  0.2028
49332SOL    HW159975  13.880   4.635  11.619  0.2131  0.6609 -1.4065
49332SOL    HW259976  13.820   4.497  11.634  0.0466  1.0112  1.8768
49333SOL     OW59977  12.618   7.926   8.924  0.2138  0.2923  0.0007
49333SOL    HW159978  12.523   7.916   8.914  0.1491  0.4203  0.4639
49333SOL    HW259979  12.644   7.854   8.980 -0.0162  1.7072  2.0267
49334SOL     OW59980  11.339   1.257   8.937 -0.1051 -0.6135  0.0380
49334SOL    HW159981  11.416   1.204   8.918 -0.5977 -2.2434  2.1836
49334SOL    HW259982  11.364   1.309   9.014 -0.5858  0.1720 -0.3192
49335SOL     OW59983   2.912   6.331   0.629  0.0493 -0.0605 -0.7721
49335SOL    HW159984   2.928   6.424   0.613  0.6611  0.0611  0.4307
49335SOL    HW259985   2.823   6.328   0.665  0.3519  0.1654  0.0086
49336SOL     OW59986   1.024  11.433   2.855  0.2022 -0.2341 -0.1434
49336SOL    HW159987   0.961  11.361   2.860 -0.3162  0.0556 -1.8179
49336SOL    HW259988   1.109  11.391   2.864 -0.1402 -0.8746  0.2477
49337SOL     OW59989  11.397  10.478   5.632  0.0122 -0.4013  0.0022
49337SOL    HW159990  11.485  10.511   5.617  0.1431 -0.7141  0.0742
49337SOL    HW259991  11.351  10.550   5.676  0.5753 -0.6697  1.0595
49338SOL     OW59992   5.404  12.528   3.606 -0.0075 -0.2457  0.4635
49338SOL    HW159993   5.458  12.607   3.600 -1.4724  0.7595 -0.1564
49338SOL    HW259994   5.363  12.520   3.520  1.6272 -2.8790 -0.1720
49339SOL     OW59995   5.187  12.633  12.788 -0.5025  0.8771  0.2809
49339SOL    HW159996   5.131  12.710  12.788 -1.8876 -0.1056 -0.0290
49339SOL    HW259997   5.134  12.564  12.748  0.5635 -0.3464  0.8988
49340SOL     OW59998  13.082   3.397  13.359 -0.0835 -0.1655 -0.1851
49340SOL    HW159999  13.067   3.486  13.326  3.2265 -0.4631 -3.0731
49340SOL    HW260000  13.058   3.340  13.286  0.7823 -1.4289  0.4845
49341SOL     OW60001   1.802  13.220  11.150 -0.1929 -0.7548 -0.3994
49341SOL    HW160002   1.869  13.255  11.210 -1.0075 -1.0817  0.7420
49341SOL    HW260003   1.792  13.129  11.177 -2.4599 -0.2332  0.7970
49342SOL     OW60004   0.363   4.793   0.754 -0.1967 -0.4276  0.5745
49342SOL    HW160005   0.393   4.871   0.802  0.8965 -1.1826  1.1901
49342SOL    HW260006   0.354   4.726   0.822 -0.9998 -0.8813  0.0363
49343SOL     OW60007   3.744  13.120   3.816  0.6358  0.6118 -0.3027
49343SOL    HW160008   3.732  13.174   3.894  1.4041 -0.9666  0.9601
49343SOL    HW260009   3.656  13.115   3.777  0.2738  1.5593  0.3605
49344SOL     OW60010   1.241  10.365   5.317  0.1679  0.1290  0.1657
49344SOL    HW160011   1.226  10.455   5.345  0.3091 -0.0238  0.7343
49344SOL    HW260012   1.229  10.367   5.222  1.3346  0.9842  0.0238
49345SOL     OW60013   1.111   6.461  11.019  0.4021  0.3112  0.7260
49345SOL    HW160014   1.046   6.445  11.087  1.3169  0.2654  1.5957
49345SOL    HW260015   1.098   6.389  10.956 -0.9854  0.8042  0.4045
49346SOL     OW60016   6.444   1.032   0.631  0.1854  0.1546  0.1141
49346SOL    HW160017   6.444   1.127   0.638 -0.2992  0.3985 -2.1545
49346SOL    HW260018   6.525   1.012   0.583  0.7217 -0.6806  1.3292
49347SOL     OW60019   2.217   2.086  10.983  0.7575  0.0271 -0.7628
49347SOL    HW160020   2.149   2.021  10.964  2.7128 -1.7994 -1.8987
49347SOL    HW260021   2.235   2.075  11.076  0.2642 -0.2360 -0.6942
49348SOL     OW60022  12.203  13.539   4.718 -0.3228 -0.2605  0.4126
49348SOL    HW160023  12.155  13.618   4.694  0.0456 -0.2522 -0.3212
49348SOL    HW260024  12.269  13.570   4.781  1.2118  0.4232 -1.4504
49349SOL     OW60025   3.009   1.629   3.673 -0.0967 -0.6338 -0.4399
49349SOL    HW160026   3.096   1.663   3.649  0.2848 -0.9667  0.4382
49349SOL    HW260027   2.989   1.565   3.605 -0.5165  0.8172 -1.7288
49350SOL     OW60028   3.828   6.724  10.439  0.0705 -0.1750 -0.0834
49350SOL    HW160029   3.798   6.638  10.468 -1.2714  0.1819 -0.3413
49350SOL    HW260030   3.749   6.769  10.410  0.7758  1.0668 -0.1783
49351SOL     OW60031  10.372  13.180  12.206  0.0622 -0.1658 -0.5561
49351SOL    HW160032  10.380  13.085  12.197 -3.4272 -0.5396 -1.0876
49351SOL    HW260033  10.345  13.192  12.297  1.8732  0.5046 -0.0767
49352SOL     OW60034   3.799   6.185  10.867 -0.2216  0.3072 -0.3538
49352SOL    HW160035   3.813   6.268  10.911 -0.3292 -0.5297  1.3561
49352SOL    HW260036   3.872   6.130  10.896 -1.3033 -0.8412  0.2955
49353SOL     OW60037   8.152  11.356   4.518 -0.2399  0.4173  0.3730
49353SOL    HW160038   8.220  11.411   4.478 -0.1046 -0.2031 -0.2800
49353SOL    HW260039   8.187  11.333   4.604 -0.4447  1.6081  0.8003
49354SOL     OW60040   8.989   9.786   5.677 -0.1956 -0.5493 -0.1685
49354SOL    HW160041   8.980   9.739   5.759 -2.1158 -0.9875 -0.5972
49354SOL    HW260042   8.919   9.753   5.621  1.1925 -0.4551 -2.0945
49355SOL     OW60043   8.298   0.041   5.871 -0.1115 -0.5380  0.0661
49355SOL    HW160044   8.384   0.084   5.871 -1.2011  1.8021  0.2699
49355SOL    HW260045   8.283   0.018   5.963 -1.3711  2.8399  0.8378
49356SOL     OW60046   6.383   8.075   0.966 -0.2256  0.5668 -0.6858
49356SOL    HW160047   6.435   7.996   0.983 -0.8812 -0.3963 -2.7758
49356SOL    HW260048   6.426   8.144   1.016  1.6480 -0.6824 -0.4840
49357SOL     OW60049   2.577   8.129  11.777  0.5896 -0.4879  0.1363
49357SOL    HW160050   2.511   8.183  11.821  1.2916  0.6277 -0.1543
49357SOL    HW260051   2.660   8.154  11.818  0.5731 -4.4976  3.1580
49358SOL     OW60052  12.887   5.339  13.610 -0.4256 -0.0489  0.1144
49358SOL    HW160053  12.832   5.392  13.668  0.4081 -0.0863  0.9549
49358SOL    HW260054  12.826   5.275  13.572 -1.2609  0.9172 -0.2207
49359SOL     OW60055   9.271   2.769   9.491 -0.4421 -0.3004  0.2001
49359SOL    HW160056   9.307   2.791   9.577  0.0286  1.0035 -0.3093
49359SOL    HW260057   9.345   2.731   9.444 -0.3132  0.3358 -0.1120
49360SOL     OW60058  11.856   0.081   4.309  0.3126 -0.5993  0.1423
49360SOL    HW160059  11.931   0.034   4.274  0.7034  0.4189 -0.4192
49360SOL    HW260060  11.780   0.040   4.268  0.5371 -1.7648  0.8643
49361SOL     OW60061   3.413  10.224   5.320  0.0804 -0.2220 -0.1417
49361SOL    HW160062   3.360  10.211   5.399 -0.8275 -1.3298 -0.8978
49361SOL    HW260063   3.352  10.209   5.248  0.7127  1.4877 -1.0835
49362SOL     OW60064   9.318  13.417   2.587  0.6184  0.0898  0.1313
49362SOL    HW160065   9.289  13.498   2.629  1.1534  0.6074 -0.4805
49362SOL    HW260066   9.305  13.350   2.654 -0.9203  0.4772  0.2688
49363SOL     OW60067   3.055   7.279   8.761  0.1167 -1.0202  0.0031
49363SOL    HW160068   3.015   7.193   8.770  1.0887 -1.4379  0.4737
49363SOL    HW260069   2.987   7.333   8.720 -2.3412 -0.6717  3.9846
49364SOL     OW60070   1.095  11.455  11.966 -0.0567  0.3043 -0.1292
49364SOL    HW160071   1.141  11.373  11.986  0.2486  0.6111  0.4435
49364SOL    HW260072   1.043  11.435  11.889 -1.4380 -1.0082  1.0689
49365SOL     OW60073   3.612   9.469   0.685  0.8366  0.2361 -0.2559
49365SOL    HW160074   3.602   9.433   0.596  0.1592 -2.6851  0.8646
49365SOL    HW260075   3.543   9.534   0.692  1.4243  1.1346 -2.1138
49366SOL     OW60076   9.058  11.427  12.221  0.2893  0.7265 -0.5241
49366SOL    HW160077   9.119  11.475  12.276  0.0388  1.0126 -0.4909
49366SOL    HW260078   8.978  11.479  12.223 -0.1422  0.0605 -0.0997
49367SOL     OW60079   2.999   2.402   3.684  0.8001  0.0251 -0.4853
49367SOL    HW160080   2.930   2.344   3.651  1.0263 -1.2582  1.1572
49367SOL    HW260081   2.969   2.490   3.662  0.8242 -0.6644 -3.7722
49368SOL     OW60082   2.052   3.123   1.781  0.3323  0.0127 -0.1821
49368SOL    HW160083   2.105   3.203   1.785  1.6556 -0.7476 -1.3377
49368SOL    HW260084   1.963   3.154   1.762  0.2711  1.3374  1.8763
49369SOL     OW60085   5.185   0.529   4.724 -0.3673 -0.1760  0.5137
49369SOL    HW160086   5.110   0.470   4.718 -0.6125  0.2366 -0.8404
49369SOL    HW260087   5.261   0.473   4.706 -0.4635 -0.3658  0.6985
49370SOL     OW60088   0.998  13.270   4.876 -0.5603  0.1893 -0.1728
49370SOL    HW160089   0.946  13.194   4.901  0.2869  0.0044  1.1605
49370SOL    HW260090   1.054  13.239   4.804 -0.1948 -0.4785  0.3844
49371SOL     OW60091   4.152   5.212   5.749 -0.0214 -0.3917  0.5380
49371SOL    HW160092   4.242   5.237   5.729 -0.4553  1.0162  0.1774
49371SOL    HW260093   4.153   5.117   5.754  1.3760 -0.4247 -0.0114
49372SOL     OW60094  11.614   8.999   5.630  0.3050  0.4697 -0.6543
49372SOL    HW160095  11.655   8.931   5.576 -1.3841 -0.8281 -0.3466
49372SOL    HW260096  11.608   8.961   5.717 -3.4319 -0.3198 -1.0959
49373SOL     OW60097   5.933   4.667  13.774 -0.1335 -0.6763 -0.2001
49373SOL    HW160098   5.873   4.606  13.730 -0.5733 -1.2683  1.1705
49373SOL    HW260099   5.877   4.741  13.799 -0.2293 -1.0519  0.7301
49374SOL     OW60100   0.945  10.381   1.540  0.2835 -0.2520 -0.8768
49374SOL    HW160101   1.013  10.323   1.506  1.1847  0.5597 -0.5150
49374SOL    HW260102   0.905  10.419   1.462  0.5898 -0.3522 -1.0832
49375SOL     OW60103   5.688   5.490   7.576 -0.7496 -0.0314  0.2379
49375SOL    HW160104   5.674   5.539   7.657 -1.5581 -0.1388  0.1653
49375SOL    HW260105   5.747   5.419   7.602  1.2740  1.5167  0.1344
49376SOL     OW60106   4.460   0.136  12.620  0.1272  0.5416 -0.4158
49376SOL    HW160107   4.538   0.121  12.565  0.3343  0.9017 -0.2278
49376SOL    HW260108   4.488   0.202  12.683  0.0717 -0.3053  0.5184
49377SOL     OW60109  13.627  11.294   8.312  0.3591  0.2912  0.4270
49377SOL    HW160110  13.699  11.316   8.251 -0.6076 -0.1947 -0.9468
49377SOL    HW260111  13.658  11.217   8.359  0.1306 -0.9343 -1.3430
49378SOL     OW60112   8.850   1.977  11.915  0.4514  0.3030  0.7170
49378SOL    HW160113   8.875   2.034  11.842  0.8024 -1.8627 -0.9646
49378SOL    HW260114   8.895   2.014  11.991  1.8441  1.4309 -0.5870
49379SOL     OW60115   5.632   3.916   2.037  0.1771  0.2117 -0.5461
49379SOL    HW160116   5.564   3.984   2.041 -0.0569 -0.0800  1.0761
49379SOL    HW260117   5.583   3.834   2.034  0.4682  0.0578 -1.2632
49380SOL     OW60118   5.803   3.444   0.000  0.9149 -0.3288  0.0338
49380SOL    HW160119   5.716   3.412   0.025 -0.3648  2.8238  0.1507
49380SOL    HW260120   5.828   3.390  -0.075 -1.1934 -1.2753 -0.0631
49381SOL     OW60121  13.620   4.626   3.836  0.8626  0.0929 -0.2335
49381SOL    HW160122  13.650   4.675   3.912  1.6462 -0.1532 -0.3668
49381SOL    HW260123  13.564   4.557   3.871 -0.7791  1.4378 -0.0950
49382SOL     OW60124   8.435   5.825   3.573 -0.3521  0.5368  0.5368
49382SOL    HW160125   8.371   5.891   3.602  0.2808  1.0999  0.6893
49382SOL    HW260126   8.477   5.865   3.497  1.4946  1.2532  1.8507
49383SOL     OW60127   9.710   1.788   1.265 -0.2898 -0.1895  0.2005
49383SOL    HW160128   9.786   1.835   1.299 -1.5362  2.2560 -0.1664
49383SOL    HW260129   9.746   1.731   1.197  1.1161  1.8418 -0.8609
49384SOL     OW60130  13.068   4.548  13.756  0.0598  0.3757 -0.1255
49384SOL    HW160131  13.072   4.635  13.716 -1.5526 -0.1727 -1.5949
49384SOL    HW260132  12.998   4.555  13.821 -0.9596 -0.1087 -1.1274
49385SOL     OW60133   8.316   6.313  10.269 -0.1810 -0.6693  0.0258
49385SOL    HW160134   8.342   6.404  10.285  0.2190 -0.6644 -0.5994
49385SOL    HW260135   8.310   6.274  10.356 -0.2347 -0.0766  0.2904
49386SOL     OW60136   7.968  12.479   6.763 -0.0610  0.3690  0.1150
49386SOL    HW160137   7.921  12.561   6.778 -0.9749 -0.2568  0.8043
49386SOL    HW260138   8.060  12.503   6.763 -0.3590  1.6800 -1.5215
49387SOL     OW60139  13.136   9.613   8.735 -0.4356 -0.4088 -0.3741
49387SOL    HW160140  13.062   9.655   8.778  1.1064  2.1776 -0.0436
49387SOL    HW260141  13.150   9.664   8.655  1.3015 -0.4597 -0.1500
49388SOL     OW60142   6.593  11.811   5.742 -0.0837  0.0478  0.0144
49388SOL    HW160143   6.608  11.832   5.650 -0.3401  2.5289  0.4587
49388SOL    HW260144   6.536  11.881   5.774  0.3937 -0.4608  2.1813
49389SOL     OW60145  13.186   8.333   5.589 -0.2862  0.0482  0.4920
49389SOL    HW160146  13.124   8.359   5.657 -0.3074  2.1715 -0.2424
49389SOL    HW260147  13.175   8.239   5.580  0.1589 -0.4468  3.8233
49390SOL     OW60148   7.688  10.401  12.540  0.4391 -0.1887  0.4096
49390SOL    HW160149   7.628  10.362  12.603  1.2063  0.7658  1.7847
49390SOL    HW260150   7.676  10.349  12.461 -1.6052 -0.5267  0.8686
49391SOL     OW60151   0.787   4.012   8.628  0.3463 -0.1339  0.6195
49391SOL    HW160152   0.826   4.084   8.678  0.9370  0.5001 -0.7196
49391SOL    HW260153   0.724   4.055   8.570  0.8812 -0.6486 -0.3698
49392SOL     OW60154   2.583   0.043  12.258 -0.9209 -0.1986 -0.4041
49392SOL    HW160155   2.499   0.029  12.302 -1.9879 -1.6228 -2.7343
49392SOL    HW260156   2.569   0.120  12.203  0.0047  0.7973  0.6795
49393SOL     OW60157  12.962   7.044   3.093 -0.9050 -0.1948  0.2326
49393SOL    HW160158  12.893   7.080   3.038 -0.8496  1.6367  1.2559
49393SOL    HW260159  12.917   7.011   3.171 -0.8717 -1.6556 -0.3481
49394SOL     OW60160   3.499   9.690   6.509 -0.2428 -0.3146 -0.0250
49394SOL    HW160161   3.569   9.624   6.520  0.5218  0.2603 -1.2587
49394SOL    HW260162   3.545   9.768   6.479 -1.0219  1.0794  2.1653
49395SOL     OW60163  10.512   6.490   6.915 -0.0960  0.2222  0.3253
49395SOL    HW160164  10.558   6.472   6.833  1.7164 -1.4495  1.6012
49395SOL    HW260165  10.421   6.507   6.888  0.5344  0.2460 -2.0340
49396SOL     OW60166   7.532  13.685   0.329  0.7611  0.5702  0.3841
49396SOL    HW160167   7.577  13.760   0.290 -0.6869  0.3640 -1.9015
49396SOL    HW260168   7.570  13.609   0.285 -0.4335  0.2647 -0.1526
49397SOL     OW60169   7.807   3.039   5.870  0.3366 -0.1962  0.2376
49397SOL    HW160170   7.833   3.121   5.911  2.3204 -0.3971 -0.5064
49397SOL    HW260171   7.733   3.063   5.814  0.8374  1.0762  0.0881
49398SOL     OW60172  11.307   3.885   8.860  0.6715  0.7866  0.1003
49398SOL    HW160173  11.236   3.931   8.904  0.3699  1.1725 -0.7639
49398SOL    HW260174  11.377   3.880   8.925  0.2905  1.4638  0.5669
49399SOL     OW60175  13.360   9.561   2.392 -0.3402  0.0393 -0.5926
49399SOL    HW160176  13.428   9.594   2.333  1.9287 -1.3586  1.0886
49399SOL    HW260177  13.343   9.634   2.452 -1.7958  1.0534 -2.1626
49400SOL     OW60178  13.484   0.966   8.922  0.3038  0.3315  0.2449
49400SOL    HW160179  13.419   1.018   8.970 -1.3045 -1.1659 -0.1924
49400SOL    HW260180  13.523   1.027   8.860  0.1732  1.5539  1.3117
49401SOL     OW60181   1.967   9.783   6.465 -0.0886  0.0319 -0.1867
49401SOL    HW160182   1.966   9.799   6.371 -1.3849  3.0542  0.2255
49401SOL    HW260183   1.875   9.783   6.490  0.2732  0.8021  1.2668
49402SOL     OW60184  12.432   6.188   9.330 -0.4757 -0.4850 -0.4637
49402SOL    HW160185  12.362   6.233   9.377 -0.8033 -0.6820 -0.7512
49402SOL    HW260186  12.394   6.169   9.244 -0.0669 -0.5926 -0.6238
49403SOL     OW60187   2.830   8.677   3.908  0.3237 -0.0063  0.6729
49403SOL    HW160188   2.839   8.768   3.879  1.8733 -0.5634 -0.8214
49403SOL    HW260189   2.816   8.627   3.827 -1.7322 -1.0106  1.5760
49404SOL     OW60190   2.636   1.220   3.874  0.5716  0.5088  0.3046
49404SOL    HW160191   2.573   1.213   3.946 -0.0186 -0.7775 -0.3066
49404SOL    HW260192   2.599   1.287   3.816 -1.0786 -1.2510 -0.8055
49405SOL     OW60193   5.949   3.782   8.767  0.4625 -0.1491 -0.0616
49405SOL    HW160194   5.859   3.759   8.787  0.7636  0.6610  2.5100
49405SOL    HW260195   5.943   3.841   8.692 -0.9872 -1.2582 -0.8585
49406SOL     OW60196   8.356  10.751  12.749  0.0628 -0.0587  0.3250
49406SOL    HW160197   8.427  10.696  12.783 -0.8289 -1.6027 -0.2065
49406SOL    HW260198   8.345  10.722  12.658 -2.3595 -1.0614  0.8846
49407SOL     OW60199   6.338   2.420   2.599 -0.4770 -0.0186 -0.7359
49407SOL    HW160200   6.259   2.449   2.646 -0.1176  0.8247 -0.6380
49407SOL    HW260201   6.333   2.325   2.601 -0.9023  0.0079  0.2968
49408SOL     OW60202   1.763   2.474   6.966  0.0651 -0.0298  0.2783
49408SOL    HW160203   1.857   2.487   6.978 -0.0062 -0.0388  0.8915
49408SOL    HW260204   1.751   2.475   6.871  0.3604  2.4091  0.1865
49409SOL     OW60205   7.732  11.554   9.520 -0.6191  0.1281 -0.7732
49409SOL    HW160206   7.773  11.629   9.478 -2.3128  1.2224 -0.5651
49409SOL    HW260207   7.641  11.555   9.489 -1.2311 -0.5759  0.8632
49410SOL     OW60208   9.967   1.508   6.546  0.2128 -0.7713 -0.0524
49410SOL    HW160209   9.928   1.438   6.493  0.0722  0.3776 -1.5481
49410SOL    HW260210   9.920   1.587   6.518  1.8072  0.2480  0.0378
49411SOL     OW60211   5.862   6.146   0.390 -0.0730 -0.2542  0.3950
49411SOL    HW160212   5.928   6.143   0.321 -0.3853 -0.4714  0.1013
49411SOL    HW260213   5.788   6.191   0.349  0.0587  0.4148  0.8697
49412SOL     OW60214   1.611  13.845   2.574  0.5787  0.7748  0.0026
49412SOL    HW160215   1.516  13.836   2.564  0.6488  0.0785 -0.0724
49412SOL    HW260216   1.630  13.808   2.660  1.0117 -0.9544 -0.7792
49413SOL     OW60217  12.507   5.185  10.228 -0.4170  0.3435  0.3850
49413SOL    HW160218  12.602   5.195  10.227 -0.3400 -0.3787 -0.5060
49413SOL    HW260219  12.476   5.256  10.285  0.6533  0.5115  0.7798
49414SOL     OW60220   7.157   4.749   0.091 -0.2588  0.3179  0.0481
49414SOL    HW160221   7.217   4.810   0.133 -0.5057  1.5091 -1.2803
49414SOL    HW260222   7.173   4.760  -0.003 -0.2362 -1.7485 -0.2440
49415SOL     OW60223   6.365   0.561   6.618 -0.6136 -0.0785  0.2988
49415SOL    HW160224   6.316   0.600   6.546 -0.7841 -0.1381  0.3825
49415SOL    HW260225   6.330   0.472   6.626  0.2892 -0.5198 -0.3872
49416SOL     OW60226   6.986   8.770   2.628  0.0900  0.1988 -0.4317
49416SOL    HW160227   6.898   8.777   2.591 -0.1665  0.3563  0.1810
49416SOL    HW260228   7.039   8.731   2.559 -0.1480  1.3551 -1.3001
49417SOL     OW60229   7.823   2.207   8.476 -0.6002  0.6628 -0.4087
49417SOL    HW160230   7.871   2.280   8.436 -0.6965  0.7907 -0.2932
49417SOL    HW260231   7.793   2.242   8.560  0.6905 -0.0134  0.3550
49418SOL     OW60232   6.982   2.473  10.136 -0.4903 -0.3381 -0.0564
49418SOL    HW160233   6.951   2.468  10.046 -0.1967 -0.3998 -0.1565
49418SOL    HW260234   6.998   2.566  10.151  3.0039 -0.6024 -1.3158
49419SOL     OW60235  12.394   7.784   7.200 -0.4751  0.1170  0.3327
49419SOL    HW160236  12.402   7.797   7.106 -1.3404  0.2655  0.2734
49419SOL    HW260237  12.471   7.828   7.237 -0.1839  0.1377 -0.2954
49420SOL     OW60238   3.875   6.540   2.181 -0.1922 -0.3944 -0.2927
49420SOL    HW160239   3.928   6.471   2.141  0.1152 -0.5768  0.4093
49420SOL    HW260240   3.785   6.508   2.175 -0.1503 -0.4164 -0.8312
49421SOL     OW60241   6.915  13.969  12.203  0.0276 -0.3092 -0.5911
49421SOL    HW160242   6.891  13.896  12.260  1.6404 -1.3971 -1.2436
49421SOL    HW260243   6.981  13.933  12.145  1.6760  1.9423 -0.2343
49422SOL     OW60244  13.965  13.700   3.378 -0.1555  0.1552 -0.2327
49422SOL    HW160245  14.019  13.737   3.308  1.8445  0.7307  1.4993
49422SOL    HW260246  13.875  13.717   3.350  0.6065  2.0623 -1.7654
49423SOL     OW60247   5.256   6.463   9.510  0.4722 -0.1237  0.6996
49423SOL    HW160248   5.298   6.383   9.477  0.9891 -0.7965  2.8488
49423SOL    HW260249   5.230   6.442   9.599 -3.0348  0.8396  0.0433
49424SOL     OW60250   6.636   6.308  10.366  0.3370 -0.3482  0.1858
49424SOL    HW160251   6.654   6.356  10.447 -1.5284  1.8078 -0.5709
49424SOL    HW260252   6.541   6.305  10.361  0.3892 -2.8593 -0.6243
49425SOL     OW60253   0.461   7.734  13.281  0.1955  0.1529 -0.0246
49425SOL    HW160254   0.553   7.709  13.292  0.6984  1.9926  0.3104
49425SOL    HW260255   0.458   7.776  13.196 -0.1121  0.9413  0.3631
49426SOL     OW60256  13.638  12.805   4.389  0.2552  0.5072 -0.1849
49426SOL    HW160257  13.623  12.899   4.398 -1.1547  0.2940 -0.1095
49426SOL    HW260258  13.676  12.796   4.302 -2.1903  0.9256 -1.4005
49427SOL     OW60259   1.707   2.263  13.845 -0.0815  0.1867 -0.2097
49427SOL    HW160260   1.723   2.237  13.755 -0.6934 -0.6132 -0.0949
49427SOL    HW260261   1.790   2.301  13.874  0.3270 -0.1729 -0.8882
49428SOL     OW60262   2.795   0.150   5.193  0.1521 -0.0553  0.1830
49428SOL    HW160263   2.721   0.164   5.134  0.3580 -1.9706 -0.5968
49428SOL    HW260264   2.796   0.227   5.250 -0.0299  1.9168 -2.3152
49429SOL     OW60265   5.571   8.370   8.385  0.1672  0.1861  0.2735
49429SOL    HW160266   5.516   8.372   8.464  0.0536  2.0360  0.2035
49429SOL    HW260267   5.628   8.294   8.397 -0.7972 -0.3797  1.4716
49430SOL     OW60268  12.085   8.085   7.014 -0.3198 -0.4619 -0.4608
49430SOL    HW160269  12.067   8.068   7.107 -1.6020  1.4921 -0.2981
49430SOL    HW260270  12.180   8.089   7.008 -0.0424 -3.5599  0.1460
49431SOL     OW60271   8.881   0.487  10.848  0.1437 -0.8931 -0.4315
49431SOL    HW160272   8.906   0.577  10.830  0.5624 -1.2140 -1.5469
49431SOL    HW260273   8.853   0.487  10.940  0.3908  0.3050 -0.3478
49432SOL     OW60274  13.639   4.400   1.970  0.1574 -0.0112 -0.7138
49432SOL    HW160275  13.573   4.379   2.036  0.4154 -0.3162 -0.5503
49432SOL    HW260276  13.599   4.376   1.887  0.1925 -0.5240 -0.5857
49433SOL     OW60277   7.976   4.679  13.883  0.1405  0.0967 -0.8761
49433SOL    HW160278   7.924   4.722  13.816 -0.9170 -1.0368 -0.8251
49433SOL    HW260279   7.944   4.589  13.884 -0.1402  0.1656  1.3960
49434SOL     OW60280   4.644  12.648   5.193 -0.3434  0.3528 -0.1074
49434SOL    HW160281   4.582  12.678   5.259 -0.2817 -1.3251  0.7719
49434SOL    HW260282   4.677  12.728   5.152 -0.5048  1.4481  1.7948
49435SOL     OW60283  10.297  10.115   0.657 -0.3338  0.2378 -0.2018
49435SOL    HW160284  10.369  10.139   0.599 -0.5295 -0.3110 -0.6788
49435SOL    HW260285  10.221  10.108   0.599 -0.7899  0.8674  0.3006
49436SOL     OW60286   8.355  11.571   7.765 -0.7194 -0.1939 -0.0021
49436SOL    HW160287   8.426  11.626   7.798 -0.4712 -1.0842  1.0258
49436SOL    HW260288   8.276  11.607   7.806 -0.9445  1.0265 -1.4366
49437SOL     OW60289  12.922   3.684   3.083  0.1553  0.0182 -0.0537
49437SOL    HW160290  12.996   3.656   3.136  0.3665  0.6125 -0.0356
49437SOL    HW260291  12.873   3.744   3.139 -0.2026 -0.1686 -0.1582
49438SOL     OW60292  13.355   1.467  10.873  0.0566  1.0168 -0.5165
49438SOL    HW160293  13.333   1.540  10.814  1.3227  0.2848 -1.9653
49438SOL    HW260294  13.447   1.447  10.854  0.3770  0.4750  1.4527
49439SOL     OW60295   7.027   8.029   7.394  0.4256 -0.7150  0.4924
49439SOL    HW160296   7.101   8.082   7.424 -0.6682  0.4812  1.2245
49439SOL    HW260297   7.009   8.060   7.306  1.1728 -1.4618  0.0610
49440SOL     OW60298   2.774   4.353  11.290 -0.1726  0.4740  0.3550
49440SOL    HW160299   2.853   4.300  11.298 -1.4308 -1.3169  1.7358
49440SOL    HW260300   2.796   4.437  11.330  1.0929  0.1086  0.4528
49441SOL     OW60301   7.763   1.398   8.154 -0.4365 -1.2577  0.1402
49441SOL    HW160302   7.828   1.453   8.198  0.6549 -3.6161  1.6639
49441SOL    HW260303   7.693   1.459   8.130  2.6328  1.6081 -2.5372
49442SOL     OW60304   5.568  10.435   1.889 -0.6589  0.1875  0.0456
49442SOL    HW160305   5.635  10.501   1.871  0.0596 -0.4168  0.4835
49442SOL    HW260306   5.494  10.485   1.924 -1.0256  1.0421 -1.8206
49443SOL     OW60307   3.860  12.304   3.274 -0.6856  0.5293  0.3094
49443SOL    HW160308   3.786  12.362   3.298 -1.2763 -0.1894  0.2595
49443SOL    HW260309   3.871  12.316   3.180 -0.6962  0.6879  0.3283
49444SOL     OW60310   6.767  10.897   6.085  0.4862  0.5995 -0.1735
49444SOL    HW160311   6.831  10.968   6.080 -0.2043  1.1624 -1.2556
49444SOL    HW260312   6.783  10.845   6.006 -0.8561  1.1736 -0.8539
49445SOL     OW60313  13.471   7.328   3.420 -0.3125  0.1508 -0.1884
49445SOL    HW160314  13.545   7.280   3.458 -0.2353  1.4313  1.3915
49445SOL    HW260315  13.510   7.408   3.385 -0.8958  0.7291  0.4554
49446SOL     OW60316   1.948  11.334   3.278 -0.2445  0.2890 -0.4897
49446SOL    HW160317   1.999  11.258   3.307 -1.6355 -0.7603 -0.6737
49446SOL    HW260318   1.869  11.332   3.332 -0.1160  1.8877 -0.1941
49447SOL     OW60319   1.352   0.627  12.527 -0.4766 -0.2453  0.0116
49447SOL    HW160320   1.347   0.720  12.551  0.3398 -0.4840  1.1847
49447SOL    HW260321   1.331   0.580  12.607 -0.6815 -1.0853 -0.5215
49448SOL     OW60322   0.687   7.922   7.815 -0.2155 -0.9400  0.5099
49448SOL    HW160323   0.603   7.913   7.861  0.3370  1.0575  2.0032
49448SOL    HW260324   0.662   7.948   7.726 -1.2116 -2.3471  0.3423
49449SOL     OW60325  10.337   7.959   6.376  0.3624 -0.7013 -0.1725
49449SOL    HW160326  10.324   7.938   6.284  0.6663 -0.5652 -0.2480
49449SOL    HW260327  10.407   7.900   6.404  0.3901 -0.6216 -0.0742
49450SOL     OW60328  11.545  13.780  13.772  0.8096  0.2294  0.7181
49450SOL    HW160329  11.636  13.752  13.788  0.8654 -0.1271 -0.1649
49450SOL    HW260330  11.552  13.874  13.756  1.2510 -0.0480 -0.8874
49451SOL     OW60331   2.293  11.337   9.290  0.3470 -0.6331 -0.0174
49451SOL    HW160332   2.295  11.301   9.379 -0.2020 -0.1084  0.2219
49451SOL    HW260333   2.201  11.360   9.276  0.6219  0.3764 -0.2664
49452SOL     OW60334   4.118  11.803  12.618  0.1722  0.5870 -0.5465
49452SOL    HW160335   4.084  11.892  12.627 -0.7468  0.1233  0.8663
49452SOL    HW260336   4.044  11.747  12.643  0.8644 -0.5649 -1.0322
49453SOL     OW60337   5.939   7.394   8.987  0.1479 -0.2100  0.7151
49453SOL    HW160338   5.977   7.462   9.043  2.3046 -0.8875  0.1759
49453SOL    HW260339   5.978   7.312   9.019 -0.7856 -0.9521  0.0305
49454SOL     OW60340   7.917   8.360   8.677 -0.2979  0.1202  0.1995
49454SOL    HW160341   7.885   8.312   8.754  0.4611 -0.4613  0.1618
49454SOL    HW260342   7.873   8.445   8.682 -2.6904 -0.9803 -0.4111
49455SOL     OW60343  12.555   4.708   6.968 -0.2601  0.1047 -0.0590
49455SOL    HW160344  12.524   4.681   7.054 -1.2554  0.8352 -0.1679
49455SOL    HW260345  12.597   4.629   6.932  2.9854  0.5945  2.2596
49456SOL     OW60346   3.360   3.105   1.412  0.2382  0.0899  0.4177
49456SOL    HW160347   3.412   3.114   1.492  1.5180 -2.2569 -0.0406
49456SOL    HW260348   3.279   3.062   1.441  0.7480 -0.8618  0.4965
49457SOL     OW60349   3.915   2.326   8.995  0.3123 -0.7565  0.2497
49457SOL    HW160350   3.933   2.405   8.943 -0.2292 -1.8338 -1.6570
49457SOL    HW260351   3.970   2.258   8.954 -1.3132 -2.0017  0.0404
49458SOL     OW60352  10.401   3.149   0.372 -0.6320 -0.4319  0.5259
49458SOL    HW160353  10.416   3.210   0.299  1.1807  0.4190  1.5619
49458SOL    HW260354  10.435   3.065   0.340 -0.5617 -0.2508  0.1155
49459SOL     OW60355   7.909   3.063   1.083  0.4095 -0.3528 -0.6527
49459SOL    HW160356   7.831   3.118   1.088  0.8665  0.2267  1.0257
49459SOL    HW260357   7.876   2.974   1.088 -0.1387 -0.0962  0.8284
49460SOL     OW60358   9.903   4.320   1.179  0.5231 -0.6454  0.4112
49460SOL    HW160359   9.985   4.336   1.226 -0.1698 -0.2952  1.5376
49460SOL    HW260360   9.928   4.321   1.086  1.4491  1.7096  0.6024
49461SOL     OW60361  11.633  10.985  12.477 -0.2749 -0.2943 -0.4010
49461SOL    HW160362  11.689  11.053  12.515  0.1563 -1.0355  0.3456
49461SOL    HW260363  11.549  10.996  12.522 -0.1875 -0.2873 -0.2361
49462SOL     OW60364   1.504   1.438   8.605  0.6424 -0.1505  0.1943
49462SOL    HW160365   1.523   1.360   8.656  3.0586 -0.1218 -0.5499
49462SOL    HW260366   1.501   1.509   8.670 -1.7048 -0.8088  0.8856
49463SOL     OW60367   8.540   0.673   5.345  0.5873  0.1617 -0.2620
49463SOL    HW160368   8.621   0.718   5.319  0.8628  0.8685  1.6344
49463SOL    HW260369   8.477   0.744   5.360 -0.2335 -0.3552 -1.1607
49464SOL     OW60370   4.193   0.851   3.414 -1.3856  0.4457  0.2216
49464SOL    HW160371   4.222   0.771   3.458  0.1732  0.1645 -1.2009
49464SOL    HW260372   4.122   0.823   3.357  1.4342 -0.8348 -3.0209
49465SOL     OW60373  13.928  10.134   5.887  0.2125  0.3284  0.3075
49465SOL    HW160374  13.970  10.170   5.965  0.6942  1.9322 -0.6527
49465SOL    HW260375  13.971  10.177   5.813 -2.0687  0.9189 -0.7753
49466SOL     OW60376  12.309   3.696   7.661 -0.0207  0.2779 -0.3213
49466SOL    HW160377  12.276   3.784   7.643 -0.1492  0.1800 -0.5785
49466SOL    HW260378  12.262   3.667   7.739  0.1133  0.4853 -0.1633
49467SOL     OW60379  12.756   6.586   9.947 -0.2748 -0.2413 -0.4557
49467SOL    HW160380  12.799   6.547   9.871 -1.0987  0.8627 -1.5296
49467SOL    HW260381  12.757   6.680   9.930  1.7216  0.3033  2.0989
49468SOL     OW60382   0.034   2.308   3.209  0.1028  0.8030  0.2000
49468SOL    HW160383   0.092   2.337   3.280  1.5282 -0.1048 -0.5465
49468SOL    HW260384   0.052   2.369   3.137  0.7597  0.0352 -0.3032
49469SOL     OW60385   3.953   8.964   7.571  0.3303  0.2379 -0.3751
49469SOL    HW160386   3.880   8.975   7.632  0.6281  0.2169 -0.0091
49469SOL    HW260387   3.912   8.956   7.485 -0.1774 -1.1430 -0.0225
49470SOL     OW60388   4.619   0.614   0.692  0.0806  0.3541  0.1982
49470SOL    HW160389   4.566   0.565   0.755 -0.5057 -0.9292 -1.2274
49470SOL    HW260390   4.678   0.548   0.654  2.2236  1.5892  1.1671
49471SOL     OW60391   8.396   9.686  11.013 -0.0458  0.0752  0.1219
49471SOL    HW160392   8.331   9.618  10.996  1.0172 -1.0903  0.5811
49471SOL    HW260393   8.375   9.717  11.102 -1.9679  2.0593 -0.9126
49472SOL     OW60394   5.686   0.895  12.524 -0.3340 -0.0270  0.1373
49472SOL    HW160395   5.677   0.963  12.457  0.7691  0.4619  0.4554
49472SOL    HW260396   5.635   0.821  12.491 -0.9900  0.7205 -0.5392
49473SOL     OW60397   0.024   6.776  13.300 -0.4435  0.0679 -0.0322
49473SOL    HW160398  -0.040   6.711  13.331 -0.7913  0.0308 -0.7997
49473SOL    HW260399   0.104   6.755  13.347 -0.4111 -1.2370 -0.6358
49474SOL     OW60400  12.365  13.882   2.265  0.2032  0.0380  0.4574
49474SOL    HW160401  12.420  13.929   2.203  1.1065 -1.0133  0.4330
49474SOL    HW260402  12.294  13.943   2.286  2.0915  1.9903  1.5448
49475SOL     OW60403  13.845   9.809  12.220  0.3349 -0.4746  0.0400
49475SOL    HW160404  13.800   9.848  12.295 -0.8332 -0.2700 -0.7358
49475SOL    HW260405  13.910   9.875  12.194  1.0492 -0.7298  1.1130
49476SOL     OW60406  11.365  10.815   3.086  0.3409 -0.0746 -0.0395
49476SOL    HW160407  11.395  10.730   3.118  0.9904  0.7575  1.6615
49476SOL    HW260408  11.445  10.861   3.062  0.0206  0.2426 -0.5231
49477SOL     OW60409  11.202  10.603  12.709  0.1466  0.3225  0.0147
49477SOL    HW160410  11.263  10.666  12.746  2.4752 -0.5935 -2.0167
49477SOL    HW260411  11.126  10.655  12.683 -0.5184  1.3648  3.4400
49478SOL     OW60412   8.935   4.503   9.483  0.2406  0.5471  0.7482
49478SOL    HW160413   8.926   4.500   9.579 -0.0412  0.5475  0.7212
49478SOL    HW260414   8.872   4.439   9.451 -0.3369  1.2163  0.5189
49479SOL     OW60415   8.236   0.796   6.530  0.6117  0.5632 -0.0972
49479SOL    HW160416   8.293   0.781   6.455  0.0448  1.3278 -0.7034
49479SOL    HW260417   8.294   0.829   6.599  0.9327  1.1891 -0.6551
49480SOL     OW60418   1.883   0.004   0.049  0.6068 -0.2231  0.0849
49480SOL    HW160419   1.925  -0.009   0.134  1.5566 -0.9324 -0.4714
49480SOL    HW260420   1.883   0.099   0.037 -0.0987 -0.0707  1.1357
49481SOL     OW60421   7.037   2.146   8.111  0.0320 -0.0372 -0.4779
49481SOL    HW160422   6.987   2.172   8.034 -1.2879  0.4430  0.4832
49481SOL    HW260423   6.987   2.182   8.185  1.4720 -0.1060  0.5800
49482SOL     OW60424   0.944   5.573  12.218  0.0425  0.0340 -0.6542
49482SOL    HW160425   0.964   5.658  12.258  0.5729  1.0481 -2.9617
49482SOL    HW260426   0.871   5.591  12.160 -0.9720 -1.5015  0.0825
49483SOL     OW60427   5.337   7.155   1.189  0.2598  0.0183  1.0162
49483SOL    HW160428   5.350   7.169   1.283 -0.6197 -1.7963  1.4730
49483SOL    HW260429   5.266   7.090   1.185  1.0063 -0.7433 -0.8692
49484SOL     OW60430   3.690  10.686  10.421 -0.3105 -0.2800 -0.3996
49484SOL    HW160431   3.662  10.690  10.513 -0.6614  3.7873 -0.5292
49484SOL    HW260432   3.610  10.699  10.371  0.2308 -0.0067 -1.2082
49485SOL     OW60433   9.346   1.784  13.797  0.1776  0.0857  0.4875
49485SOL    HW160434   9.381   1.819  13.879  3.8123  1.9250 -1.5694
49485SOL    HW260435   9.301   1.858  13.756  1.4026  0.2687 -0.6089
49486SOL     OW60436   8.590   4.709   2.283 -0.1102  0.3052 -1.1647
49486SOL    HW160437   8.613   4.643   2.348  3.2351  1.3274 -1.1093
49486SOL    HW260438   8.585   4.662   2.200  0.5503 -0.2755 -0.8793
49487SOL     OW60439  13.912   9.339  13.945 -0.0791 -0.3432 -0.5933
49487SOL    HW160440  13.966   9.408  13.982 -2.2671  2.9741 -3.0199
49487SOL    HW260441  13.870   9.298  14.020 -0.7972  2.9277  0.9539
49488SOL     OW60442   0.115   6.064   6.114 -0.4500 -0.4672 -0.1839
49488SOL    HW160443   0.203   6.101   6.121 -0.5446 -0.0820 -0.8862
49488SOL    HW260444   0.060   6.139   6.090 -0.6926 -1.0025 -1.3681
49489SOL     OW60445   5.558  11.081   0.060 -0.4331 -0.5633 -0.1316
49489SOL    HW160446   5.491  11.112   0.120  0.6636  1.5571  0.0988
49489SOL    HW260447   5.555  11.144  -0.013  0.9225 -0.7389 -0.3595
49490SOL     OW60448   2.625   7.218  11.080 -0.5905 -0.2880 -0.1901
49490SOL    HW160449   2.545   7.249  11.121 -0.8247 -0.4862 -0.4860
49490SOL    HW260450   2.612   7.123  11.071 -0.1946 -0.3683  0.0390
49491SOL     OW60451   8.646   9.345  13.144  0.0228  0.4019  0.8180
49491SOL    HW160452   8.700   9.314  13.071 -1.3159 -0.3738  0.1213
49491SOL    HW260453   8.709   9.382  13.206  1.1135  2.5295 -1.3654
49492SOL     OW60454  13.402   5.833   3.523  0.0225  0.0182 -0.5347
49492SOL    HW160455  13.474   5.896   3.530 -1.6111  1.9047  0.3505
49492SOL    HW260456  13.401   5.808   3.431  1.2082  0.6873 -0.7500
49493SOL     OW60457   3.738   0.070   3.037  0.2971  0.4396 -0.5540
49493SOL    HW160458   3.689   0.038   3.112 -1.9574  1.4350 -1.5163
49493SOL    HW260459   3.817   0.108   3.075 -1.6568  2.6983  1.5885
49494SOL     OW60460   2.822   6.414   8.247  0.2463  0.3217 -0.9742
49494SOL    HW160461   2.755   6.354   8.280 -1.2153  1.7655 -1.1771
49494SOL    HW260462   2.901   6.390   8.294 -0.4696 -1.2661 -0.5153
49495SOL     OW60463   4.197   3.431  13.399  0.3616  0.3501  0.4633
49495SOL    HW160464   4.161   3.352  13.360  0.8749  0.4739 -0.2781
49495SOL    HW260465   4.129   3.461  13.459 -0.5832  0.3266 -0.5631
49496SOL     OW60466  10.289   9.861  12.731  0.6561  0.2972 -0.3285
49496SOL    HW160467  10.320   9.894  12.647  2.9715  0.3275  0.4431
49496SOL    HW260468  10.267   9.939  12.782 -1.7641  0.2462 -1.1939
49497SOL     OW60469   8.577  10.626  12.442  0.3264 -0.0213 -0.1506
49497SOL    HW160470   8.490  10.665  12.456  0.6173  0.5017  0.2265
49497SOL    HW260471   8.567  10.535  12.469 -0.5303 -0.3950 -1.6408
49498SOL     OW60472   4.930   5.711   5.975 -0.6656  0.3517  0.1016
49498SOL    HW160473   4.960   5.675   6.058 -1.1146 -1.0240 -0.3063
49498SOL    HW260474   4.904   5.634   5.923 -0.2435  1.1625 -1.3704
49499SOL     OW60475   6.772   3.520   4.992 -0.4883  0.0221  0.5718
49499SOL    HW160476   6.741   3.606   5.019 -1.5322 -0.6018  1.4668
49499SOL    HW260477   6.858   3.536   4.952 -1.4736  1.6768 -0.9884
49500SOL     OW60478  11.993   4.938   5.226  0.1222  0.2325  0.2712
49500SOL    HW160479  12.069   4.904   5.178  0.6266  1.2793  0.2857
49500SOL    HW260480  11.920   4.928   5.165  0.4579  0.1024 -0.1208
49501SOL     OW60481   7.022   5.681   1.889 -0.3095  0.0167  0.0374
49501SOL    HW160482   6.968   5.616   1.845 -0.9540 -0.1085  0.9733
49501SOL    HW260483   7.022   5.653   1.981  1.8562 -0.3420 -0.0088
49502SOL     OW60484  13.866   0.996  12.949  0.5339  0.7453  0.6456
49502SOL    HW160485  13.790   0.970  13.001 -0.4749  0.0613 -1.0994
49502SOL    HW260486  13.843   1.082  12.914  1.2465  1.2437  1.3425
49503SOL     OW60487   9.072   6.386   0.538  0.0899  0.2992 -0.1383
49503SOL    HW160488   9.136   6.316   0.553  0.6519  1.0963  1.4226
49503SOL    HW260489   9.106   6.435   0.464 -0.0032 -0.7112 -0.8670
49504SOL     OW60490   6.666  12.797   0.495 -0.1390 -0.7666  0.0879
49504SOL    HW160491   6.756  12.801   0.527 -0.3102  1.5931  0.4830
49504SOL    HW260492   6.666  12.851   0.416 -1.0149 -1.5147 -0.4387
49505SOL     OW60493   9.371   1.055   2.870  0.5353 -0.1098  0.0143
49505SOL    HW160494   9.465   1.050   2.888  0.5571 -0.0624 -0.0935
49505SOL    HW260495   9.363   1.118   2.799  0.3780  0.2610  0.3573
49506SOL     OW60496  11.294  13.220   0.314 -0.2854 -0.9233 -0.8635
49506SOL    HW160497  11.221  13.159   0.313  0.9272 -2.5168  0.9267
49506SOL    HW260498  11.305  13.243   0.406 -0.2002  1.4314 -1.4071
49507SOL     OW60499  10.975   6.713   0.704 -0.0128  0.3152 -0.4407
49507SOL    HW160500  11.066   6.704   0.676  0.1787 -1.5839  0.6024
49507SOL    HW260501  10.935   6.630   0.678 -1.1296  0.6289  0.2396
49508SOL     OW60502  10.748  12.258   2.123  0.6428 -0.4162 -0.1065
49508SOL    HW160503  10.782  12.168   2.122 -0.6207 -0.9233  0.1018
49508SOL    HW260504  10.705  12.266   2.208  1.8992  0.8597  0.4409
49509SOL     OW60505   4.922   2.643   7.784 -0.7614  0.4573  0.1439
49509SOL    HW160506   5.012   2.611   7.778 -0.9000  0.0865 -0.0287
49509SOL    HW260507   4.900   2.669   7.695 -1.0120  0.0183  0.0747
49510SOL     OW60508   4.304  11.414   1.234  0.0074  0.0645  0.2407
49510SOL    HW160509   4.297  11.507   1.252 -0.3696  0.2630 -0.8809
49510SOL    HW260510   4.316  11.408   1.140 -0.8748 -1.0677  0.1758
49511SOL     OW60511   5.093   5.969   0.575 -0.2442  0.1604 -0.8147
49511SOL    HW160512   4.997   5.973   0.568 -0.4531 -2.1402 -0.0482
49511SOL    HW260513   5.118   5.902   0.511  0.7979  0.2915 -0.5533
49512SOL     OW60514   6.647  11.154  13.754 -0.3043  0.6311 -0.1687
49512SOL    HW160515   6.737  11.179  13.775 -0.3817  0.9423 -0.2022
49512SOL    HW260516   6.656  11.070  13.710 -0.0647  0.4409  0.2358
49513SOL     OW60517  11.190   2.258   2.352 -0.0761 -0.1353  0.0427
49513SOL    HW160518  11.282   2.238   2.371  0.1867  0.3852 -0.6380
49513SOL    HW260519  11.154   2.176   2.320 -0.0450 -0.5339  1.0023
49514SOL     OW60520   6.021   1.400   0.899  0.0696  0.2049 -0.1824
49514SOL    HW160521   6.096   1.347   0.871  0.6786  0.6924  0.4643
49514SOL    HW260522   6.050   1.441   0.981 -0.9937  0.2279  0.1988
49515SOL     OW60523   5.429   5.440  13.240  0.5474  0.0073  0.1322
49515SOL    HW160524   5.391   5.488  13.167  1.5281 -0.1012 -0.4634
49515SOL    HW260525   5.391   5.481  13.318 -2.4633 -1.4831 -0.4155
49516SOL     OW60526   5.425   2.834   6.712 -0.1825 -0.0178  0.1284
49516SOL    HW160527   5.490   2.765   6.729  0.4816  0.1179 -1.6698
49516SOL    HW260528   5.341   2.790   6.723  0.2213 -0.7824  0.2662
49517SOL     OW60529   0.018   6.882  11.577 -0.1768  0.0761  0.0174
49517SOL    HW160530   0.078   6.945  11.617  0.1197  0.1833 -0.5878
49517SOL    HW260531   0.051   6.871  11.488  0.5595 -1.9226  0.4821
49518SOL     OW60532   1.220   7.529   8.128  0.2684  0.4241  0.3268
49518SOL    HW160533   1.137   7.564   8.160 -0.3132 -0.9227  0.3357
49518SOL    HW260534   1.232   7.571   8.042 -0.0668  1.1454  0.6254
49519SOL     OW60535   0.879   8.705  10.827 -0.2122 -0.7811  0.2381
49519SOL    HW160536   0.830   8.779  10.864 -0.0326  0.7937 -2.3947
49519SOL    HW260537   0.849   8.700  10.737 -0.7242 -4.4770  0.4724
49520SOL     OW60538   1.843   6.676  12.324  0.0980  0.3629  0.5057
49520SOL    HW160539   1.937   6.659  12.332 -0.2804 -3.1653 -0.9924
49520SOL    HW260540   1.838   6.752  12.265  2.0658 -1.1569 -1.8212
49521SOL     OW60541  12.581   3.720  12.417 -0.4081 -0.2033  0.4001
49521SOL    HW160542  12.564   3.795  12.473  0.6269 -0.7904  1.5378
49521SOL    HW260543  12.535   3.647  12.460 -0.0049 -0.5628  0.2358
49522SOL     OW60544   0.186   7.022  12.155 -0.4302  0.2375 -0.3122
49522SOL    HW160545   0.172   7.116  12.167 -2.4465 -0.0107 -0.4853
49522SOL    HW260546   0.232   6.994  12.234  0.2033  1.3615 -0.2677
49523SOL     OW60547  13.793   6.901  12.213  0.3152 -0.1935  0.1786
49523SOL    HW160548  13.857   6.830  12.223  0.2582 -0.3482 -0.5160
49523SOL    HW260549  13.711   6.863  12.246 -0.1254 -1.0844 -1.8008
49524SOL     OW60550   3.925  13.982   7.681 -0.3881  0.2581 -0.8134
49524SOL    HW160551   3.860  14.006   7.747 -0.8718 -0.8836 -0.8499
49524SOL    HW260552   4.008  13.979   7.730 -0.7083 -0.3708 -0.2966
49525SOL     OW60553   5.651   9.003   0.424  0.5019  0.2813  0.1641
49525SOL    HW160554   5.695   9.013   0.508  0.6842 -2.3187  0.4326
49525SOL    HW260555   5.660   8.911   0.402  0.0374  0.7851 -2.5049
49526SOL     OW60556  13.500   8.435   8.806  0.3224  0.6726  0.0378
49526SOL    HW160557  13.424   8.451   8.862 -0.0550  0.2806 -0.3472
49526SOL    HW260558  13.467   8.378   8.736  0.7703  1.1637 -0.5973
49527SOL     OW60559  13.153   9.307   9.019  0.0487  0.8224  0.2786
49527SOL    HW160560  13.136   9.288   8.926 -0.1236  1.4743  0.1645
49527SOL    HW260561  13.205   9.387   9.017  1.2832  0.0519  0.7145
49528SOL     OW60562  11.787   0.467  10.526  0.5861  0.0286  0.1364
49528SOL    HW160563  11.716   0.503  10.578 -1.2477 -1.3555 -1.2739
49528SOL    HW260564  11.810   0.536  10.464 -0.9942 -0.1717 -0.7320
49529SOL     OW60565   3.717   9.441   4.346  0.4491  0.1699 -0.1141
49529SOL    HW160566   3.665   9.483   4.414  2.0857  0.8788  0.7470
49529SOL    HW260567   3.682   9.352   4.341 -0.4890  0.4612  0.7897
49530SOL     OW60568   8.802  10.269   7.732  0.0840 -0.2808  0.7451
49530SOL    HW160569   8.716  10.232   7.754 -0.0011 -0.5918 -0.0710
49530SOL    HW260570   8.797  10.287   7.638  1.3143 -1.4543  0.4146
49531SOL     OW60571   7.068   4.268   7.370 -0.2012 -0.2999  0.3550
49531SOL    HW160572   7.141   4.250   7.429 -0.6695 -0.8953  0.7630
49531SOL    HW260573   6.992   4.275   7.427 -0.2009  2.2217  0.1476
49532SOL     OW60574   9.021   6.813   3.500 -0.2079 -0.6898 -0.8554
49532SOL    HW160575   9.000   6.720   3.488 -0.4394 -0.5068 -1.9967
49532SOL    HW260576   8.982   6.856   3.424  0.2671  0.2908 -0.5576
49533SOL     OW60577   3.824  12.807   6.795  0.0290  0.0871  0.1345
49533SOL    HW160578   3.893  12.742   6.797 -1.1698 -1.2739 -0.6853
49533SOL    HW260579   3.870  12.891   6.795  1.6462 -0.7622  0.1135
49534SOL     OW60580   0.523   9.507   8.349 -0.0165  0.1094 -0.7821
49534SOL    HW160581   0.463   9.522   8.275 -0.0627  1.3818 -0.5104
49534SOL    HW260582   0.585   9.442   8.316  1.3311  2.2137 -2.8011
49535SOL     OW60583   1.269   9.713   5.654  0.0259  0.7287  0.0793
49535SOL    HW160584   1.298   9.624   5.636 -0.4767  0.7903 -1.0851
49535SOL    HW260585   1.240   9.747   5.570 -0.7691  1.6412  0.6984
49536SOL     OW60586   4.741   2.227   0.951 -0.0146 -0.1390 -0.4021
49536SOL    HW160587   4.709   2.310   0.987  0.4619 -0.5494  0.9933
49536SOL    HW260588   4.755   2.246   0.858  0.3975  1.4390 -0.0445
49537SOL     OW60589   5.999   9.743   7.088 -0.0824 -0.1551  0.2221
49537SOL    HW160590   5.952   9.826   7.094 -0.8090 -0.4517 -0.9591
49537SOL    HW260591   6.021   9.735   6.995  0.0669 -1.2281  0.3365
49538SOL     OW60592   7.634   7.689   8.557 -0.6438 -0.1202 -0.6939
49538SOL    HW160593   7.656   7.611   8.506  1.7087 -0.0567  0.0952
49538SOL    HW260594   7.655   7.665   8.647 -1.0069  1.0414 -0.2800
49539SOL     OW60595   4.091  11.967  12.906  0.0373  0.4939  0.4358
49539SOL    HW160596   4.070  12.016  12.827 -0.8971 -0.5687 -0.0142
49539SOL    HW260597   4.006  11.944  12.943  0.3842 -1.5666  0.1000
49540SOL     OW60598   4.226   1.524   2.871 -0.1427 -0.1484 -0.9755
49540SOL    HW160599   4.224   1.589   2.941 -1.1348 -1.1003 -0.0879
49540SOL    HW260600   4.311   1.537   2.829  1.1523 -0.4934  1.3541
49541SOL     OW60601   7.877  11.689  11.125 -0.0696 -0.1102 -0.2323
49541SOL    HW160602   7.844  11.746  11.055  0.7370  2.1415  1.1147
49541SOL    HW260603   7.967  11.717  11.138  0.7152 -2.4573 -0.1834
49542SOL     OW60604   7.122   1.152  10.535  0.0387 -0.0650 -0.3722
49542SOL    HW160605   7.155   1.063  10.529  0.0121 -0.2703  1.8423
49542SOL    HW260606   7.179   1.195  10.599 -2.4430  0.2523  1.7773
49543SOL     OW60607  10.713   0.526   8.001 -0.2918  0.2445 -0.2959
49543SOL    HW160608  10.626   0.566   8.008 -0.3532  0.5973 -2.5760
49543SOL    HW260609  10.774   0.599   8.007 -0.2107  0.1751 -0.2731
49544SOL     OW60610  13.977  13.248   0.423 -0.6758  0.2071 -0.3522
49544SOL    HW160611  14.012  13.289   0.502  0.1178  0.2166 -0.6937
49544SOL    HW260612  13.994  13.311   0.353 -1.7189  0.3627 -0.4741
49545SOL     OW60613   7.059   1.069   5.681  0.6779 -0.2590  0.5371
49545SOL    HW160614   7.002   1.004   5.639  0.7708  0.0759 -0.1202
49545SOL    HW260615   7.015   1.089   5.763 -1.6188  1.9706 -1.0878
49546SOL     OW60616  10.094   8.383  13.142 -0.2197 -0.1092 -0.2418
49546SOL    HW160617  10.074   8.298  13.181 -0.7629  0.4018  0.6197
49546SOL    HW260618  10.150   8.427  13.205  3.2509 -1.2147 -2.2968
49547SOL     OW60619   3.205   4.691  11.605 -0.2574 -0.0637 -0.3683
49547SOL    HW160620   3.201   4.778  11.643  0.8338  0.1627 -0.7452
49547SOL    HW260621   3.113   4.665  11.594 -0.6046  0.3442  1.2752
49548SOL     OW60622  13.435   7.621   7.220  0.1635  0.3141 -0.0306
49548SOL    HW160623  13.407   7.709   7.196  1.8950  0.8550 -0.1854
49548SOL    HW260624  13.402   7.608   7.309  0.1865  1.2506  0.1211
49549SOL     OW60625   8.451  14.042  12.898 -0.0921 -0.0462 -0.2947
49549SOL    HW160626   8.394  13.970  12.872 -0.3936 -0.4788  1.4394
49549SOL    HW260627   8.399  14.121  12.883 -0.9901 -0.4058  0.7831
49550SOL     OW60628   0.148   4.438   8.453 -0.2084  0.1828 -0.3327
49550SOL    HW160629   0.139   4.427   8.358 -0.3315 -2.7913 -0.0547
49550SOL    HW260630   0.129   4.352   8.489 -0.1277  1.2346  2.4282
49551SOL     OW60631   0.533   5.942   2.006 -0.1971  0.0764  0.3367
49551SOL    HW160632   0.545   6.018   1.949 -1.5874  1.0551  1.2817
49551SOL    HW260633   0.438   5.937   2.020  0.0513 -0.4747  2.0919
49552SOL     OW60634   8.025   8.281   8.390 -0.0038 -0.9754 -0.6209
49552SOL    HW160635   7.995   8.191   8.395 -2.7641 -0.2320 -1.8436
49552SOL    HW260636   7.997   8.321   8.472 -0.8959 -0.6929 -1.0525
49553SOL     OW60637   0.369   3.602   3.796  0.0302 -0.4647 -0.1108
49553SOL    HW160638   0.320   3.678   3.828  0.4260 -0.5384  0.7133
49553SOL    HW260639   0.415   3.569   3.874  1.4412 -0.3588 -0.8675
49554SOL     OW60640   3.691  12.779  13.172 -0.7364  0.8319 -0.3162
49554SOL    HW160641   3.757  12.835  13.130  2.2390 -2.2736 -0.2221
49554SOL    HW260642   3.645  12.737  13.100  1.1058 -0.9043 -0.5669
49555SOL     OW60643   5.607   6.724   0.248  0.5401  0.2117 -0.5513
49555SOL    HW160644   5.594   6.665   0.174  0.9790 -0.7764  0.1376
49555SOL    HW260645   5.673   6.786   0.218 -0.1680  0.5822 -1.3987
49556SOL     OW60646   6.213   5.084   3.323 -0.2186  0.6101 -0.4029
49556SOL    HW160647   6.228   5.075   3.417  0.6215 -2.9363 -0.7274
49556SOL    HW260648   6.299   5.070   3.283 -0.6609  1.4949 -1.7416
49557SOL     OW60649   0.750   0.290   4.151  0.2289  0.1977  0.7742
49557SOL    HW160650   0.773   0.265   4.062 -0.2762 -1.9075  1.1982
49557SOL    HW260651   0.695   0.368   4.140  1.2395  0.7642 -0.6401
49558SOL     OW60652   3.550  12.618   3.018  0.0401 -0.0519  0.3816
49558SOL    HW160653   3.608  12.691   3.043  1.2951 -0.3122 -1.5706
49558SOL    HW260654   3.469  12.661   2.990  1.0761  0.7590 -1.6145
49559SOL     OW60655   4.222   6.049   6.553  0.0701 -0.1191  0.6091
49559SOL    HW160656   4.274   6.024   6.477 -0.7510  0.8280 -0.3059
49559SOL    HW260657   4.215   5.970   6.606  1.2767 -0.6012  0.0744
49560SOL     OW60658   7.018   5.653  12.893 -0.0040  0.2323  0.4558
49560SOL    HW160659   6.952   5.669  12.960 -1.2018 -0.8947 -0.4281
49560SOL    HW260660   7.099   5.638  12.943 -0.4890  1.1118  1.5561
49561SOL     OW60661  12.695  10.930   6.314  0.0181 -0.2983 -0.1448
49561SOL    HW160662  12.646  10.873   6.255  0.0513  0.3476 -0.8067
49561SOL    HW260663  12.782  10.891   6.320 -0.2315 -0.8161  0.1314
49562SOL     OW60664  10.415   9.815   5.902  0.6490 -0.6908 -0.0766
49562SOL    HW160665  10.328   9.843   5.873  1.5165  0.3385 -1.8741
49562SOL    HW260666  10.398   9.757   5.976 -1.4800  1.2000  1.0700
49563SOL     OW60667   5.944   6.375  13.435 -0.3842  0.2169  0.7322
49563SOL    HW160668   5.908   6.287  13.448  1.5030 -0.9176 -1.1731
49563SOL    HW260669   5.959   6.408  13.524  0.2514 -2.0165  1.5124
49564SOL     OW60670  11.507   4.757   6.792 -0.0094 -0.3623  0.5449
49564SOL    HW160671  11.599   4.735   6.801  0.3922  1.3697  1.1305
49564SOL    HW260672  11.470   4.742   6.879 -0.3801 -1.4408  0.2075
49565SOL     OW60673   4.352  11.213   2.793 -0.3788 -0.1940  0.5876
49565SOL    HW160674   4.331  11.132   2.840  0.2251  0.5801  2.2701
49565SOL    HW260675   4.287  11.218   2.723  0.4924 -2.9201 -0.5885
49566SOL     OW60676   0.431   1.962  13.585  0.0458  0.0090 -0.2616
49566SOL    HW160677   0.463   1.952  13.675 -0.0206 -0.2118 -0.2616
49566SOL    HW260678   0.457   1.881  13.541  1.6558  0.8415 -0.9273
49567SOL     OW60679   1.244  13.370   0.125  0.7399 -0.7715 -0.1416
49567SOL    HW160680   1.316  13.360   0.063  0.7487  2.1405 -0.7817
49567SOL    HW260681   1.200  13.451   0.097 -0.6912 -0.6176  2.2589
49568SOL     OW60682   5.598   4.769  10.552 -0.3224  0.0201  0.1004
49568SOL    HW160683   5.586   4.833  10.622 -2.8333 -0.4263  0.1775
49568SOL    HW260684   5.645   4.817  10.484 -0.9879  1.5615  0.6795
49569SOL     OW60685   3.831   3.469   7.812  0.3407  0.3228  0.6543
49569SOL    HW160686   3.749   3.440   7.852 -0.0992  0.7041  0.0585
49569SOL    HW260687   3.870   3.527   7.876  0.2737 -0.0604  1.0489
49570SOL     OW60688   7.748   9.659   6.666 -0.5011  0.5259 -0.3655
49570SOL    HW160689   7.680   9.666   6.599 -0.1998  1.3999 -0.5981
49570SOL    HW260690   7.705   9.687   6.747 -0.6939  0.0914 -0.3192
49571SOL     OW60691   0.401  12.089   4.727 -0.2898 -0.7783  0.7860
49571SOL    HW160692   0.357  12.023   4.673  2.7032 -1.0231 -1.6371
49571SOL    HW260693   0.410  12.048   4.813 -3.4942 -1.1489  1.0620
49572SOL     OW60694   1.267   6.605   8.017 -0.0291 -0.1847 -0.2106
49572SOL    HW160695   1.208   6.628   8.089 -1.2422  2.4895 -1.9126
49572SOL    HW260696   1.333   6.674   8.017  2.4329 -2.3568  0.7554
49573SOL     OW60697   7.079  13.971   1.688  0.1051  0.1541 -0.1634
49573SOL    HW160698   7.104  13.915   1.762 -1.0895 -0.9297 -0.5542
49573SOL    HW260699   7.161  14.012   1.661  1.0706 -1.6083 -0.0272
49574SOL     OW60700   2.714   3.873  13.497  0.4634 -0.2002  0.1057
49574SOL    HW160701   2.626   3.898  13.525  0.9025  0.2627  1.1134
49574SOL    HW260702   2.721   3.904  13.407  0.7462  2.8022  1.0476
49575SOL     OW60703   7.152   7.600   9.207 -0.3260  0.2992  0.8031
49575SOL    HW160704   7.137   7.653   9.128 -0.4585  0.5544  0.9981
49575SOL    HW260705   7.220   7.647   9.254  0.5888 -0.4658  0.2822
49576SOL     OW60706  12.346   4.299  10.856 -0.2893 -0.0307  0.0219
49576SOL    HW160707  12.348   4.311  10.761 -0.3245  0.0944  0.0362
49576SOL    HW260708  12.362   4.387  10.891  0.5436 -0.2186  0.1317
49577SOL     OW60709   2.881   3.387   3.726  0.7129 -0.3190  0.1273
49577SOL    HW160710   2.878   3.381   3.821  0.8968 -0.5853  0.1183
49577SOL    HW260711   2.790   3.405   3.700  0.2120 -2.3902  0.2306
49578SOL     OW60712  13.644   7.668   4.814 -0.1978 -0.3502 -0.0897
49578SOL    HW160713  13.588   7.694   4.887  0.4712  2.5299 -0.5162
49578SOL    HW260714  13.620   7.726   4.743  0.6234 -1.7104 -1.5437
49579SOL     OW60715  10.598   7.462   1.407  0.2469  0.3391 -0.5357
49579SOL    HW160716  10.676   7.430   1.362  1.0642  1.3206  0.1317
49579SOL    HW260717  10.601   7.557   1.395  0.5326  0.6420  1.5771
49580SOL     OW60718  12.664   9.283   3.763  0.6502  0.7893 -0.1101
49580SOL    HW160719  12.647   9.200   3.718  0.1939  1.1299 -0.5726
49580SOL    HW260720  12.660   9.349   3.694 -0.2720  1.3394  0.4542
49581SOL     OW60721   4.148   2.847  13.974  0.4480 -0.1776 -0.4042
49581SOL    HW160722   4.155   2.934  13.934 -2.3749 -1.3473 -4.0561
49581SOL    HW260723   4.069   2.852  14.028  0.3241 -0.4306 -0.5607
49582SOL     OW60724   8.389   5.224   5.797  0.1513 -0.4790  0.0779
49582SOL    HW160725   8.409   5.317   5.807  1.0677 -0.5618 -0.9117
49582SOL    HW260726   8.431   5.198   5.716 -0.3296 -1.7062  0.1944
49583SOL     OW60727   9.347   4.239  13.472  0.2676  0.0543  0.2618
49583SOL    HW160728   9.377   4.148  13.473 -0.3177 -0.2059 -1.4945
49583SOL    HW260729   9.258   4.234  13.437  0.5156  1.3591 -0.6298
49584SOL     OW60730   8.102   6.759   5.051  0.0147  0.2400 -0.2995
49584SOL    HW160731   8.049   6.837   5.068 -0.6640 -0.3325  0.3039
49584SOL    HW260732   8.144   6.776   4.967 -1.5860  0.4847 -1.0872
49585SOL     OW60733   3.548   7.710  11.442 -0.4777  0.3830  0.0108
49585SOL    HW160734   3.539   7.614  11.446  0.4083  0.2752 -0.1983
49585SOL    HW260735   3.521   7.733  11.353  0.4546  0.1682 -0.3438
49586SOL     OW60736   9.279  13.696  11.360  0.4317  0.1233 -0.2981
49586SOL    HW160737   9.303  13.736  11.444  0.2210 -1.1697  0.4107
49586SOL    HW260738   9.188  13.722  11.347  0.0728 -0.6648  0.5086
49587SOL     OW60739  10.393   7.061   0.090  0.1156 -0.0051  0.1923
49587SOL    HW160740  10.419   6.970   0.107 -0.5069 -0.4084 -0.9186
49587SOL    HW260741  10.366   7.061  -0.001 -4.2489  0.2202  1.2777
49588SOL     OW60742   0.934   4.264   5.078 -0.0706 -0.1038  0.4909
49588SOL    HW160743   1.003   4.296   5.019  1.7430 -2.0192  1.4331
49588SOL    HW260744   0.919   4.174   5.051  0.2156 -0.7610  2.3983
49589SOL     OW60745  11.675  13.190   1.696 -0.5438  0.2309 -0.2743
49589SOL    HW160746  11.622  13.259   1.655  0.4700  0.9864 -0.3536
49589SOL    HW260747  11.753  13.236   1.728 -0.1485 -0.7814  0.2461
49590SOL     OW60748   7.739   8.396  11.186 -0.5287  0.2969 -0.4401
49590SOL    HW160749   7.754   8.477  11.138  0.3833  0.3426 -0.1012
49590SOL    HW260750   7.653   8.366  11.157 -0.7899  1.2815 -0.7141
49591SOL     OW60751   1.594  11.908   3.692  0.3343  0.8958  0.3073
49591SOL    HW160752   1.523  11.972   3.683 -1.6160 -1.2702 -0.6127
49591SOL    HW260753   1.654  11.929   3.620 -1.2236  0.6164 -1.1382
49592SOL     OW60754   9.206   0.718   7.733 -0.6618 -0.2722  0.3677
49592SOL    HW160755   9.251   0.700   7.650  0.6985  0.2209  0.9829
49592SOL    HW260756   9.201   0.632   7.776 -1.6161 -0.5813 -0.3122
49593SOL     OW60757   7.595   5.934   8.019  0.2525 -0.4367  0.0808
49593SOL    HW160758   7.546   5.935   8.101  0.6538  1.4943  0.3542
49593SOL    HW260759   7.606   5.842   7.998 -3.0765 -0.9830  0.2415
49594SOL     OW60760   4.591  12.887  11.908  0.2877 -0.0665  0.6650
49594SOL    HW160761   4.629  12.944  11.975 -1.2332  0.8222  0.8145
49594SOL    HW260762   4.522  12.839  11.953 -0.0936 -0.1854 -0.0179
49595SOL     OW60763   5.551   1.462   6.208  0.2532 -0.3315 -0.5648
49595SOL    HW160764   5.531   1.552   6.233 -0.3223 -0.5345 -0.2541
49595SOL    HW260765   5.609   1.470   6.133 -0.3121  0.3059 -0.9496
49596SOL     OW60766  11.457   5.003   7.116  0.4536 -0.3321  0.0128
49596SOL    HW160767  11.493   5.050   7.041  0.3641  0.1007  0.2385
49596SOL    HW260768  11.533   4.987   7.172  0.4921 -0.5069 -0.0881
49597SOL     OW60769  11.231   6.330   5.504 -0.3051 -0.2958  0.2571
49597SOL    HW160770  11.158   6.386   5.480 -0.3328  0.2074  1.4735
49597SOL    HW260771  11.263   6.295   5.420 -0.6351  1.0967 -0.4783
49598SOL     OW60772  12.459   7.079   9.490 -0.6631  0.1691 -0.2438
49598SOL    HW160773  12.369   7.099   9.465 -0.4858  1.2886 -0.0332
49598SOL    HW260774  12.498   7.041   9.411 -0.8060  1.4034 -0.9330
49599SOL     OW60775  12.453  11.820   6.168 -0.5006 -0.2614  0.0971
49599SOL    HW160776  12.380  11.874   6.137 -0.7599  0.1129  1.3055
49599SOL    HW260777  12.527  11.848   6.116 -1.1422 -0.3975 -0.9100
49600SOL     OW60778   5.421  11.035  13.330  0.5822 -0.2371 -0.0484
49600SOL    HW160779   5.475  10.987  13.268  0.1559  0.0895 -0.6864
49600SOL    HW260780   5.477  11.105  13.362  0.7051 -0.2197 -0.3014
49601SOL     OW60781   8.175  11.119   7.526 -0.2694 -0.0515  0.2449
49601SOL    HW160782   8.266  11.146   7.537 -0.8159  2.4892 -0.8487
49601SOL    HW260783   8.177  11.057   7.453  0.7210 -1.2299  1.2229
49602SOL     OW60784   2.688   2.871   0.774  0.7239 -0.2634 -0.4660
49602SOL    HW160785   2.624   2.942   0.774  0.7143 -0.2399 -1.6781
49602SOL    HW260786   2.733   2.879   0.689  1.7124 -0.8296 -0.0223
49603SOL     OW60787   2.304   4.667  10.612 -0.3256 -0.0075  0.2375
49603SOL    HW160788   2.377   4.660  10.550 -0.6163  0.5772 -0.1776
49603SOL    HW260789   2.346   4.691  10.694 -0.0098 -0.0293  0.0870
49604SOL     OW60790  13.833   3.188   5.616 -0.2054 -0.6724  0.7218
49604SOL    HW160791  13.898   3.257   5.635 -0.5002  0.1037 -0.8869
49604SOL    HW260792  13.749   3.234   5.617 -0.2456 -0.4642 -2.4022
49605SOL     OW60793   7.380   4.904  12.922 -0.7442  0.1028  0.0199
49605SOL    HW160794   7.290   4.936  12.915 -1.1052 -0.7490  0.5145
49605SOL    HW260795   7.371   4.809  12.917  0.0694 -0.0159  0.6739
49606SOL     OW60796   8.866   4.413   5.751  0.1566 -0.3810  0.0765
49606SOL    HW160797   8.955   4.395   5.721 -0.0337  1.6227 -1.8895
49606SOL    HW260798   8.866   4.506   5.771 -1.3739 -0.4656  0.5662
49607SOL     OW60799  10.206   9.269   7.746 -0.8942  0.2797  0.4654
49607SOL    HW160800  10.147   9.216   7.800 -0.7075  0.1661  0.5596
49607SOL    HW260801  10.190   9.359   7.775 -1.6921  0.3449 -0.1576
49608SOL     OW60802  10.500   2.757   2.280  0.4580 -0.3484 -0.7751
49608SOL    HW160803  10.582   2.710   2.296  0.3645 -0.4188 -0.4913
49608SOL    HW260804  10.522   2.850   2.293  0.5340 -0.3538 -0.8715
49609SOL     OW60805   6.026   6.589   4.903 -0.4818  0.2293 -0.1503
49609SOL    HW160806   6.050   6.678   4.874 -0.2647  0.5734  1.0445
49609SOL    HW260807   5.987   6.601   4.989 -2.4304 -0.6395 -0.8469
49610SOL     OW60808   8.247   2.779   9.153 -0.0554 -0.0994 -0.2261
49610SOL    HW160809   8.232   2.724   9.230  0.8069  2.1371  1.6446
49610SOL    HW260810   8.159   2.796   9.118 -0.4400 -1.3760  0.0727
49611SOL     OW60811  11.143  12.742  10.614  0.3877  0.1984  0.1243
49611SOL    HW160812  11.228  12.761  10.654 -0.0238  0.2473  1.0020
49611SOL    HW260813  11.156  12.761  10.521  1.0689  1.0970  0.3873
49612SOL     OW60814   8.223   8.091   0.990  0.0490  1.0077  0.2768
49612SOL    HW160815   8.143   8.101   1.042  0.6884 -1.4672  1.9372
49612SOL    HW260816   8.192   8.053   0.908 -0.5557  0.5274  0.7108
49613SOL     OW60817   8.544   5.426   7.910  0.3827  0.1194  0.0727
49613SOL    HW160818   8.545   5.436   7.814  1.0810 -0.7682 -0.0233
49613SOL    HW260819   8.527   5.334   7.925  0.9124  0.1241  0.7890
49614SOL     OW60820  11.225  11.822   4.947 -0.2232  0.2221 -0.2403
49614SOL    HW160821  11.133  11.797   4.937 -0.6343  1.0733  1.1962
49614SOL    HW260822  11.264  11.803   4.861 -1.7036 -0.2457 -0.8441
49615SOL     OW60823  10.879  12.172   5.934 -0.4661 -0.0107  0.1897
49615SOL    HW160824  10.800  12.141   5.891  0.0114  0.1791 -0.8673
49615SOL    HW260825  10.884  12.265   5.912 -0.6267  0.2815  1.3305
49616SOL     OW60826   6.134   5.231   0.419 -0.5041 -0.2683  0.5257
49616SOL    HW160827   6.138   5.228   0.515 -1.1626 -0.4177  0.5539
49616SOL    HW260828   6.173   5.315   0.397  0.1954 -0.4858  0.8866
49617SOL     OW60829   6.886  10.129   8.817 -0.2871  0.0899  0.1833
49617SOL    HW160830   6.909  10.036   8.815  3.5880  0.8665  0.1135
49617SOL    HW260831   6.894  10.158   8.726  2.1403  1.0756  0.6158
49618SOL     OW60832   0.662   1.133  13.153 -0.6180  0.8847  0.6115
49618SOL    HW160833   0.677   1.054  13.204  0.9675  1.4009  0.9732
49618SOL    HW260834   0.572   1.123  13.120 -0.2306 -1.3756  0.0849
49619SOL     OW60835   7.133   8.449   2.581 -0.4613  0.2451  0.0677
49619SOL    HW160836   7.166   8.365   2.612  0.2897  0.9396  1.2352
49619SOL    HW260837   7.045   8.455   2.617 -0.2774  0.2321  0.5329
49620SOL     OW60838   9.609   8.510   5.064 -0.2134  0.7617 -0.7345
49620SOL    HW160839   9.539   8.466   5.114 -0.1124  1.4995  0.0665
49620SOL    HW260840   9.586   8.494   4.972  0.0744 -1.3642 -0.4797
49621SOL     OW60841   0.739  10.356   6.614  0.0362  0.3404  0.0490
49621SOL    HW160842   0.778  10.287   6.560 -0.7132  0.1623 -0.2671
49621SOL    HW260843   0.645  10.348   6.600 -0.0195  2.2114 -0.9469
49622SOL     OW60844  10.230   2.147   4.123  0.2256  0.2080  0.3572
49622SOL    HW160845  10.225   2.223   4.181 -0.7528 -0.1129  0.7066
49622SOL    HW260846  10.157   2.091   4.150  0.6581 -0.6419 -0.2024
49623SOL     OW60847  12.469   9.438  11.434 -0.2884 -0.1274  0.6513
49623SOL    HW160848  12.479   9.374  11.363  1.0623  0.1067  0.5914
49623SOL    HW260849  12.437   9.517  11.392  1.2513  0.2516  0.1414
49624SOL     OW60850   6.138   0.626  11.455 -0.8381  0.4317 -0.2124
49624SOL    HW160851   6.122   0.697  11.517  2.8964  1.6287 -0.3321
49624SOL    HW260852   6.155   0.549  11.510 -3.4583 -0.1084 -0.0459
49625SOL     OW60853   9.420   2.627  12.102  0.4030 -0.7096  0.1517
49625SOL    HW160854   9.433   2.541  12.063 -2.1018 -1.7820  1.4223
49625SOL    HW260855   9.474   2.626  12.182  0.5124 -1.0331  0.0719
49626SOL     OW60856   6.961   4.855   6.885 -0.3261 -0.5012 -0.0851
49626SOL    HW160857   7.013   4.838   6.964 -1.4977 -0.1012  0.8127
49626SOL    HW260858   7.016   4.911   6.831 -0.0396  0.4124  1.1071
49627SOL     OW60859  11.306   7.482   9.242  0.1338 -0.3789 -0.4324
49627SOL    HW160860  11.379   7.529   9.282  0.2559 -0.4800 -0.5336
49627SOL    HW260861  11.237   7.484   9.308  0.2168 -0.2576 -0.3475
49628SOL     OW60862   1.131   8.622  10.311  0.2685 -0.2753 -0.1013
49628SOL    HW160863   1.187   8.584  10.243  1.0667  0.0367  0.3634
49628SOL    HW260864   1.123   8.553  10.377  0.3045 -0.2344 -0.0544
49629SOL     OW60865  12.121   9.437   2.506 -0.9041  0.2324 -0.1561
49629SOL    HW160866  12.031   9.468   2.492 -0.3504  0.8267 -2.6973
49629SOL    HW260867  12.164   9.446   2.421  1.5673 -0.1241  0.9696
49630SOL     OW60868   6.804   3.194   3.198  0.1872 -0.2684 -0.1941
49630SOL    HW160869   6.850   3.277   3.181  0.0706 -0.5769 -2.2975
49630SOL    HW260870   6.872   3.135   3.229  0.7645 -0.0312 -0.9640
49631SOL     OW60871  10.101  10.976  10.434  0.4264  0.4339  0.6842
49631SOL    HW160872  10.104  11.061  10.390 -0.9878  0.0989 -0.1431
49631SOL    HW260873  10.188  10.939  10.420  0.4104  0.8772 -0.8102
49632SOL     OW60874  11.350   8.862   3.961  0.5086  0.5117  0.1935
49632SOL    HW160875  11.405   8.930   3.921  1.7741  0.2658  1.4307
49632SOL    HW260876  11.268   8.906   3.980  0.5171  1.0961 -1.0337
49633SOL     OW60877   6.085   7.612  12.297 -0.4461  0.5715 -0.0309
49633SOL    HW160878   6.170   7.649  12.273  0.2306 -1.4484 -1.0386
49633SOL    HW260879   6.022   7.682  12.282  0.8502  1.6093 -0.8160
49634SOL     OW60880   0.616   9.391   8.016 -0.5381  0.0123  0.4420
49634SOL    HW160881   0.612   9.398   7.920 -0.0019  1.7532  0.5086
49634SOL    HW260882   0.536   9.346   8.040  0.2953 -2.4366 -0.9553
49635SOL     OW60883   7.595  10.189   2.456  0.5817  0.0569 -0.0334
49635SOL    HW160884   7.635  10.274   2.436 -1.0034  0.9862  0.5495
49635SOL    HW260885   7.505  10.197   2.424  1.3975 -2.9381 -3.8723
49636SOL     OW60886   4.283   5.259   6.169  1.0230 -0.1918 -0.3697
49636SOL    HW160887   4.285   5.175   6.123  0.0178  0.5703 -1.8707
49636SOL    HW260888   4.259   5.323   6.102 -1.2876  0.8588  1.3362
49637SOL     OW60889  12.393   4.579  12.326  0.1785 -0.0596 -0.2962
49637SOL    HW160890  12.484   4.603  12.309  0.3541  0.8747  1.7148
49637SOL    HW260891  12.342   4.629  12.262  1.0560 -0.7247 -1.5577
49638SOL     OW60892   3.525  13.127  12.886  0.3105  0.4735 -0.1575
49638SOL    HW160893   3.620  13.136  12.896  0.4126  0.6466 -1.2171
49638SOL    HW260894   3.511  13.032  12.876  0.5797  0.5955 -1.8740
49639SOL     OW60895  10.242   7.457   1.884 -0.0865  0.6319  0.2061
49639SOL    HW160896  10.269   7.365   1.887  0.5461  0.7310 -1.3506
49639SOL    HW260897  10.312   7.501   1.835 -2.3577  1.1450 -2.8669
49640SOL     OW60898  12.866   8.585  13.722 -0.2187 -0.0163 -0.0120
49640SOL    HW160899  12.878   8.666  13.672  0.9227 -0.2359 -0.1281
49640SOL    HW260900  12.821   8.526  13.663  0.5024 -0.0377 -0.5590
49641SOL     OW60901  11.458   7.027   7.969 -0.1891  0.2756 -0.2168
49641SOL    HW160902  11.478   7.037   7.876  2.1129  0.4906  0.2535
49641SOL    HW260903  11.526   6.969   8.003 -1.0522  0.1014  1.3230
49642SOL     OW60904   0.997   8.835   6.814 -0.3843  0.3501  0.5440
49642SOL    HW160905   1.066   8.899   6.830 -0.6188  0.3254  1.8093
49642SOL    HW260906   1.027   8.786   6.737  1.2445  0.0426  1.3173
49643SOL     OW60907   9.329   5.128  13.193 -0.4635 -0.3833  0.1399
49643SOL    HW160908   9.420   5.105  13.175 -0.4933  0.0747 -0.6833
49643SOL    HW260909   9.325   5.223  13.180 -0.9000 -0.2856  0.9067
49644SOL     OW60910   7.118   8.514   4.372  0.1625  0.2239 -0.5068
49644SOL    HW160911   7.043   8.533   4.315  0.8654  1.9197 -0.9104
49644SOL    HW260912   7.181   8.470   4.315  0.4951  1.0958 -0.8218
49645SOL     OW60913   7.070   7.468   4.454  0.2393 -0.1061  0.1618
49645SOL    HW160914   7.091   7.462   4.548  0.5349 -3.3476 -0.0103
49645SOL    HW260915   7.034   7.383   4.432  0.0564  0.6143 -2.7009
49646SOL     OW60916   4.349  13.327   5.817 -0.3633 -0.0348 -0.2665
49646SOL    HW160917   4.307  13.242   5.809 -1.0281 -0.0479  2.5316
49646SOL    HW260918   4.435  13.308   5.854 -0.0685  0.4457 -0.6881
49647SOL     OW60919   2.538   4.718   8.937  0.3154 -0.0129 -0.2583
49647SOL    HW160920   2.515   4.807   8.965  0.1468  0.6527 -2.3373
49647SOL    HW260921   2.459   4.667   8.953  0.3893  0.2009  0.8831
49648SOL     OW60922   5.269   2.223  10.848  0.1588  0.1635 -0.0657
49648SOL    HW160923   5.254   2.317  10.861  1.6464  0.3340  0.6438
49648SOL    HW260924   5.350   2.205  10.895  0.0596 -1.4303 -0.4450
49649SOL     OW60925   5.331   3.690  12.090  0.2972 -0.0664 -0.2759
49649SOL    HW160926   5.358   3.634  12.017  1.1671 -2.3381  1.6540
49649SOL    HW260927   5.378   3.772  12.077  1.0747 -0.7264 -1.8000
49650SOL     OW60928  13.172   3.929   0.869  0.0772 -0.1495  0.1759
49650SOL    HW160929  13.222   3.919   0.789  0.6228  0.7869  0.3787
49650SOL    HW260930  13.191   3.851   0.921 -1.4135 -1.4786 -1.1744
49651SOL     OW60931  10.633  13.390   5.728  0.3026  0.1073  0.1306
49651SOL    HW160932  10.658  13.356   5.642 -1.2055  0.5654 -0.5244
49651SOL    HW260933  10.630  13.313   5.785  0.7751 -0.2806 -0.3630
49652SOL     OW60934   6.546  11.246   6.192 -0.5091 -0.0651  0.1094
49652SOL    HW160935   6.513  11.333   6.213  0.4612  0.4229 -0.3606
49652SOL    HW260936   6.538  11.239   6.096 -0.8841 -0.6291  0.1703
49653SOL     OW60937   1.064   1.996   6.624  0.3196 -0.7413 -0.2885
49653SOL    HW160938   0.970   1.997   6.607  0.5131  0.2899 -1.4420
49653SOL    HW260939   1.091   1.906   6.606  0.0403 -0.3589 -2.9958
49654SOL     OW60940  10.541  10.258  11.660  0.3245  0.2261  0.6384
49654SOL    HW160941  10.613  10.319  11.643  0.4038  0.4393  1.6523
49654SOL    HW260942  10.583  10.180  11.696  0.3347 -0.9066 -1.6619
49655SOL     OW60943  13.113   3.169  10.085 -0.3699  0.1964 -0.1313
49655SOL    HW160944  13.145   3.087  10.123  0.6887  1.5261  2.0188
49655SOL    HW260945  13.186   3.203  10.034 -1.1941 -0.6932 -2.0111
49656SOL     OW60946   5.452  12.025  12.248  0.9018  0.1740 -0.6026
49656SOL    HW160947   5.361  12.042  12.270  1.1185 -0.7201  1.2021
49656SOL    HW260948   5.451  12.002  12.155 -0.6389  0.6430 -0.7130
49657SOL     OW60949   2.147  13.399   7.068  0.3651  0.3345 -0.0292
49657SOL    HW160950   2.188  13.485   7.068  0.9277  0.1514 -2.6647
49657SOL    HW260951   2.053  13.416   7.063  0.4970  0.8114 -0.9356
49658SOL     OW60952   2.945   7.863  10.401 -0.3297  0.1044 -0.7027
49658SOL    HW160953   2.857   7.826  10.412 -0.4819  0.2496 -1.3985
49658SOL    HW260954   2.930   7.945  10.355  0.1928  0.0328 -1.0018
49659SOL     OW60955   4.726  10.988   2.832 -0.3785 -0.6601  0.4550
49659SOL    HW160956   4.786  11.006   2.905  0.1814 -0.5829 -0.0129
49659SOL    HW260957   4.642  10.969   2.874  0.0419 -1.0569  1.1365
49660SOL     OW60958  11.980   0.362  10.682  0.1975 -0.0984  0.0098
49660SOL    HW160959  11.908   0.407  10.639  2.0066  3.2581  0.1428
49660SOL    HW260960  11.975   0.390  10.773  0.8847 -0.9497  0.3241
49661SOL     OW60961   0.668   7.126   4.883 -0.5333 -0.2410 -0.0935
49661SOL    HW160962   0.657   7.075   4.802  2.2522  0.3722 -0.9790
49661SOL    HW260963   0.579   7.144   4.912 -1.6428 -2.5558 -1.6828
49662SOL     OW60964   3.581   6.646   3.410 -0.1186 -0.2112  0.1023
49662SOL    HW160965   3.652   6.658   3.473  1.1800 -0.2747 -1.2928
49662SOL    HW260966   3.562   6.552   3.414  0.9577 -0.4715 -0.6200
49663SOL     OW60967   2.742   0.295   4.530  0.7415  0.8380 -0.4032
49663SOL    HW160968   2.816   0.354   4.544  0.2671  1.1626  0.8567
49663SOL    HW260969   2.670   0.353   4.507  0.5449  0.6496 -0.2579
49664SOL     OW60970   1.194   1.970  11.833 -0.3865 -0.0735  0.5909
49664SOL    HW160971   1.160   1.904  11.893 -0.5212 -1.4176 -0.8982
49664SOL    HW260972   1.120   1.992  11.776 -0.1976  0.9946  0.7305
49665SOL     OW60973   1.910   6.065   3.340 -0.2933 -0.0369 -0.5189
49665SOL    HW160974   1.984   6.099   3.288  0.5978  0.0420  0.7560
49665SOL    HW260975   1.902   5.973   3.313  0.2609 -0.0409 -0.6805
49666SOL     OW60976   9.035   7.104   6.060 -0.6819  0.1905 -0.4755
49666SOL    HW160977   9.010   7.013   6.075 -1.5069  0.0476 -2.4368
49666SOL    HW260978   9.128   7.107   6.082 -0.8438 -0.9017  0.4400
49667SOL     OW60979   5.577   6.201  11.070  0.2654  0.7781  0.1973
49667SOL    HW160980   5.600   6.290  11.098  1.9689  0.3913  0.1164
49667SOL    HW260981   5.481   6.201  11.070  0.2039  2.0952  1.8254
49668SOL     OW60982   3.272   3.869   8.817  0.1367  0.3587  0.4904
49668SOL    HW160983   3.325   3.876   8.897 -0.3793 -0.8555  0.9617
49668SOL    HW260984   3.201   3.932   8.830 -0.0211  0.0710  1.0598
49669SOL     OW60985   9.828  11.705   5.460  0.0970  0.2011  0.4163
49669SOL    HW160986   9.752  11.728   5.514  1.0717  0.1958  1.8508
49669SOL    HW260987   9.797  11.634   5.404 -1.4356  1.3634 -0.2887
49670SOL     OW60988  13.262   7.149   6.513 -0.1103  0.1838  0.5054
49670SOL    HW160989  13.234   7.189   6.431 -3.0460 -1.2970  0.6739
49670SOL    HW260990  13.265   7.055   6.494  0.6990 -0.0564  1.7194
49671SOL     OW60991   4.175  12.624   8.085  0.1329 -0.0006  0.6342
49671SOL    HW160992   4.094  12.609   8.037  0.3332  1.3906 -0.2041
49671SOL    HW260993   4.185  12.547   8.141 -1.5628 -0.3672  0.4842
49672SOL     OW60994   8.031   6.532  11.696 -0.6699  0.6694 -0.7022
49672SOL    HW160995   7.962   6.516  11.760  0.6109 -2.2291  0.1227
49672SOL    HW260996   8.109   6.549  11.748  0.3406 -1.4834 -1.3699
49673SOL     OW60997   0.069  12.073   7.292  0.5090 -0.1461  0.1655
49673SOL    HW160998   0.073  11.991   7.243 -0.2058 -0.1962  0.1859
49673SOL    HW260999   0.077  12.141   7.225 -3.0499 -0.1385 -0.4180
49674SOL     OW61000  12.172   3.182  11.251 -0.1190  0.4138 -0.1565
49674SOL    HW161001  12.192   3.097  11.289  0.1326  0.9108  0.8648
49674SOL    HW261002  12.108   3.164  11.182 -0.8653 -0.4734  0.7529
49675SOL     OW61003   4.294   6.557   0.174 -0.5423 -0.4488  0.1784
49675SOL    HW161004   4.372   6.539   0.123  0.9452 -0.8057  2.4270
49675SOL    HW261005   4.259   6.471   0.196  0.4116 -0.4271  1.9642
49676SOL     OW61006   3.711   3.133   4.569 -0.1427  0.0473  1.3449
49676SOL    HW161007   3.653   3.067   4.609  1.1300 -0.7120  1.9951
49676SOL    HW261008   3.759   3.170   4.643 -1.3114  2.2684  1.0969
49677SOL     OW61009   0.476   7.083   1.566  0.3021  0.4743 -0.1854
49677SOL    HW161010   0.503   7.079   1.474  2.4992 -1.4904  0.4247
49677SOL    HW261011   0.455   6.993   1.589 -0.2294  0.9294  1.2493
49678SOL     OW61012  10.746  11.929   8.566 -0.0011 -0.1658  0.4473
49678SOL    HW161013  10.799  11.965   8.495 -1.2477  0.3902 -0.2407
49678SOL    HW261014  10.657  11.929   8.532 -0.5263 -0.6136  1.7411
49679SOL     OW61015  10.125   1.655   2.184 -0.1521 -0.2040 -0.5434
49679SOL    HW161016  10.050   1.691   2.137 -1.1433  0.1088  1.1975
49679SOL    HW261017  10.134   1.566   2.151 -0.6787  0.0713 -1.4559
49680SOL     OW61018   6.917  10.244  13.411  0.3077 -0.1639 -0.0628
49680SOL    HW161019   6.905  10.302  13.335 -1.5822  0.2188  0.4752
49680SOL    HW261020   6.983  10.289  13.464  1.0957 -0.0544 -1.1021
49681SOL     OW61021   3.789   8.923   4.727  0.2913 -0.8749  0.4306
49681SOL    HW161022   3.697   8.916   4.753  0.1857 -1.8289 -0.1688
49681SOL    HW261023   3.794   9.006   4.680 -0.3173 -0.9518  0.2247
49682SOL     OW61024   5.293   5.019  13.016  0.4559 -0.0802 -0.2854
49682SOL    HW161025   5.384   4.990  13.013  0.3690 -0.2653 -1.6098
49682SOL    HW261026   5.285   5.065  13.100  2.4487  2.2502 -1.2612
49683SOL     OW61027   3.335   4.745  11.365 -0.0175 -0.5505  0.0426
49683SOL    HW161028   3.345   4.652  11.346 -0.4152 -0.9094  1.4782
49683SOL    HW261029   3.273   4.749  11.437  2.4526  0.5544  2.3045
49684SOL     OW61030  11.810  12.774   0.450 -0.1312  0.3064  0.0745
49684SOL    HW161031  11.759  12.852   0.469  0.0459  0.2743  0.7181
49684SOL    HW261032  11.807  12.723   0.531 -0.0285 -0.2311 -0.2547
49685SOL     OW61033   3.888  10.964   5.847  0.3293  0.3123 -0.3642
49685SOL    HW161034   3.826  10.937   5.914  1.3270 -0.8535  0.1332
49685SOL    HW261035   3.967  10.988   5.896  0.6270  0.7411 -1.0380
49686SOL     OW61036  10.645   1.966   1.966 -0.0836 -0.5197 -0.2572
49686SOL    HW161037  10.625   1.878   1.934 -0.5008 -0.4009 -0.3209
49686SOL    HW261038  10.582   2.022   1.922 -1.4282 -0.4782  1.6048
49687SOL     OW61039   0.208  12.322   8.303 -0.5675  0.4113 -0.5626
49687SOL    HW161040   0.171  12.236   8.284 -1.9958  1.0464 -0.7647
49687SOL    HW261041   0.272  12.337   8.234 -0.2721 -0.5000 -0.4950
49688SOL     OW61042  12.081  11.378  11.706 -0.5391  0.0388  0.2639
49688SOL    HW161043  12.164  11.338  11.732 -0.0335 -0.0177 -1.3392
49688SOL    HW261044  12.085  11.466  11.744  0.1660 -0.0267  0.3602
49689SOL     OW61045  11.534   4.055  11.771 -0.4027 -0.1719 -0.0708
49689SOL    HW161046  11.531   4.011  11.856  0.1307  0.1025  0.1006
49689SOL    HW261047  11.447   4.042  11.734 -1.3301  1.4239  1.3779
49690SOL     OW61048   0.897   8.182   7.097  0.3395 -0.4189 -0.0707
49690SOL    HW161049   0.940   8.215   7.175 -1.5239 -1.1159  1.3182
49690SOL    HW261050   0.943   8.100   7.078  1.3011  0.1321 -0.2026
49691SOL     OW61051  12.121   6.986  12.431  0.2004 -0.3166  0.3147
49691SOL    HW161052  12.171   6.982  12.512 -0.3203 -0.4660  0.6387
49691SOL    HW261053  12.100   6.894  12.411  0.4951 -0.2993 -0.1009
49692SOL     OW61054   3.004   0.837  11.146  0.2748  0.1607 -0.3209
49692SOL    HW161055   3.027   0.760  11.094 -1.6952 -1.0312  0.4663
49692SOL    HW261056   2.926   0.872  11.103 -0.4857  0.0489  0.9290
49693SOL     OW61057  11.359   0.658  12.882 -0.1620  0.6755 -0.0837
49693SOL    HW161058  11.267   0.638  12.871 -0.2561  1.0415  0.0277
49693SOL    HW261059  11.402   0.572  12.889 -0.5145  0.5107  0.0472
49694SOL     OW61060  12.496   9.747  12.612 -0.1401  0.1633 -0.0086
49694SOL    HW161061  12.583   9.757  12.652 -0.0153  1.8180 -0.6210
49694SOL    HW261062  12.468   9.837  12.594 -1.7139 -0.3892 -0.3989
49695SOL     OW61063   6.059  11.757   9.384  0.2333 -0.2779 -0.1821
49695SOL    HW161064   6.036  11.818   9.454 -0.0117 -3.0030  2.3593
49695SOL    HW261065   6.151  11.737   9.400  0.2748 -0.6478 -0.8761
49696SOL     OW61066  12.721  12.882   7.383  0.5704  0.7779 -0.0640
49696SOL    HW161067  12.657  12.951   7.365 -0.5661 -0.4052 -0.7074
49696SOL    HW261068  12.713  12.865   7.476  0.1555  0.8447 -0.0876
49697SOL     OW61069   6.343   5.975   1.796 -0.6918  0.2923  0.4059
49697SOL    HW161070   6.369   6.013   1.712 -1.3201 -0.8171 -0.3165
49697SOL    HW261071   6.350   5.881   1.783 -0.9035  0.1069  1.5677
49698SOL     OW61072   7.232   8.641   3.542  0.0207 -0.2472 -0.0889
49698SOL    HW161073   7.278   8.697   3.479 -1.1400  1.6602  0.6741
49698SOL    HW261074   7.155   8.610   3.495 -0.1465  0.0667 -0.0196
49699SOL     OW61075   8.605  10.155  11.055  0.1200  0.3322  0.2395
49699SOL    HW161076   8.563  10.221  10.999 -0.5989  1.2560  1.7978
49699SOL    HW261077   8.532  10.107  11.094  0.6138 -2.2573 -1.7182
49700SOL     OW61078   2.604   0.185   2.182  0.1610 -0.9904 -0.0306
49700SOL    HW161079   2.678   0.241   2.158  0.6158 -1.1499  0.9532
49700SOL    HW261080   2.575   0.219   2.266 -2.3046  0.4585 -1.3475
49701SOL     OW61081  13.187   9.350  11.976 -0.5848 -0.0658 -0.3521
49701SOL    HW161082  13.110   9.407  11.990  0.3233  1.1187 -0.0052
49701SOL    HW261083  13.250   9.407  11.933  0.6156 -0.6108  0.6339
49702SOL     OW61084   5.613   7.688   2.758 -0.8040 -0.0523  0.5719
49702SOL    HW161085   5.688   7.653   2.807 -0.6624  0.4524  0.7274
49702SOL    HW261086   5.584   7.616   2.703  0.1672 -0.0735  0.0725
49703SOL     OW61087   9.312  12.887   9.632  0.2477 -0.5457  0.1312
49703SOL    HW161088   9.251  12.815   9.614 -0.3060 -0.6344  2.0941
49703SOL    HW261089   9.399  12.849   9.618 -0.0698 -1.1035 -0.4116
49704SOL     OW61090  12.103   2.867   3.935  0.3971 -0.8289  0.0528
49704SOL    HW161091  12.095   2.842   4.027  1.7244 -0.4786  0.2929
49704SOL    HW261092  12.041   2.811   3.889  1.4288 -2.7587  0.8762
49705SOL     OW61093   0.172  11.291   7.631 -0.6909 -0.3097 -0.5937
49705SOL    HW161094   0.159  11.366   7.689 -0.6159  0.7770 -1.9227
49705SOL    HW261095   0.106  11.227   7.658  1.2208 -1.1484  2.6254
49706SOL     OW61096   7.287  12.484   1.186 -0.1979  0.2482  0.1987
49706SOL    HW161097   7.222  12.443   1.130 -0.3423  2.2637 -1.1933
49706SOL    HW261098   7.371  12.457   1.150 -0.2894  0.8044 -0.4397
49707SOL     OW61099   6.551  10.118   0.651 -0.8998 -0.2299 -0.1589
49707SOL    HW161100   6.503  10.072   0.581  0.7351 -0.1597 -1.3859
49707SOL    HW261101   6.594  10.190   0.606  2.1689 -1.5632  0.4114
49708SOL     OW61102   1.320   8.600   4.462  0.2842 -0.0669  0.0883
49708SOL    HW161103   1.330   8.644   4.546  0.1984 -1.2740  0.7431
49708SOL    HW261104   1.337   8.669   4.397 -0.3592  1.0493  1.0665
49709SOL     OW61105  13.686   1.992  10.227  0.2256 -0.3732  0.4489
49709SOL    HW161106  13.764   1.998  10.283  0.7204  1.0756 -0.3488
49709SOL    HW261107  13.615   2.024  10.282  0.5776  0.3450  0.4929
49710SOL     OW61108   3.752   5.535   8.459 -0.0525  0.2100  0.3486
49710SOL    HW161109   3.719   5.561   8.545 -0.2575 -0.8170  0.5945
49710SOL    HW261110   3.825   5.594   8.442 -0.0626  0.4691  1.1984
49711SOL     OW61111   2.481   4.826   3.213 -0.1047 -0.2662 -0.0256
49711SOL    HW161112   2.481   4.730   3.213 -0.9991 -0.3089  1.8749
49711SOL    HW261113   2.406   4.850   3.267  0.9425  1.5102  0.7307
49712SOL     OW61114   5.071  11.855   7.080  0.2012 -0.4058 -0.1339
49712SOL    HW161115   4.994  11.864   7.024  0.8665  0.8654 -0.9284
49712SOL    HW261116   5.091  11.762   7.080 -2.2563 -1.0043  1.4409
49713SOL     OW61117  12.936  11.135   5.112  0.1773  0.7877 -0.0618
49713SOL    HW161118  12.860  11.159   5.164 -0.7327 -0.1221 -0.9070
49713SOL    HW261119  12.956  11.045   5.139  0.4194  0.7217 -0.4467
49714SOL     OW61120   2.238   9.083   2.140  0.2408  0.1476  0.1626
49714SOL    HW161121   2.143   9.093   2.142  0.1203 -0.9294  1.9452
49714SOL    HW261122   2.262   9.097   2.048 -1.7617 -0.6682 -0.5342
49715SOL     OW61123  13.843  12.927  12.492 -0.0639  0.5552  0.0639
49715SOL    HW161124  13.752  12.926  12.519  0.1500  0.5606  0.8103
49715SOL    HW261125  13.891  12.887  12.565  0.3180 -1.3470 -1.1555
49716SOL     OW61126  12.508   8.332  10.031  0.0173  0.1264  0.0634
49716SOL    HW161127  12.475   8.264  10.088 -1.3410  0.3193 -0.4498
49716SOL    HW261128  12.576   8.290   9.979  1.4063 -0.0016  1.9080
49717SOL     OW61129  10.191  13.088   1.934 -0.0030 -0.2378 -0.4408
49717SOL    HW161130  10.147  13.169   1.960  0.8961  0.8517 -2.1031
49717SOL    HW261131  10.234  13.057   2.014  0.6280  1.5955 -0.0157
49718SOL     OW61132  10.361  10.223  13.873 -0.4597 -0.2619  0.7312
49718SOL    HW161133  10.328  10.141  13.909  0.3435 -0.5314  0.8735
49718SOL    HW261134  10.381  10.202  13.781 -1.8028  0.2255  0.3021
49719SOL     OW61135  11.800  11.843   6.567  0.3700 -0.4064  0.2619
49719SOL    HW161136  11.795  11.925   6.518 -0.9187 -1.0704 -0.7364
49719SOL    HW261137  11.830  11.779   6.504 -1.2873 -1.2695  0.3101
49720SOL     OW61138   0.281  13.821   3.210  0.0530 -0.2860 -0.0534
49720SOL    HW161139   0.329  13.903   3.195 -1.0885  0.4376  0.1466
49720SOL    HW261140   0.269  13.818   3.305 -0.5175 -0.3248 -0.1262
49721SOL     OW61141  10.635   3.004   5.187  0.3076  0.0434 -0.2940
49721SOL    HW161142  10.682   2.992   5.269 -0.1701 -0.0718 -0.0357
49721SOL    HW261143  10.644   3.098   5.168 -0.3664  0.2537  0.3755
49722SOL     OW61144   0.851   1.889  12.207 -0.3376 -0.3058  0.5423
49722SOL    HW161145   0.933   1.936  12.221 -0.8004  0.3394  1.1490
49722SOL    HW261146   0.872   1.798  12.227  0.7470 -0.5224 -1.3332
49723SOL     OW61147   8.393   2.595   8.180  0.2104 -0.5876 -0.0280
49723SOL    HW161148   8.430   2.681   8.197 -0.2133  0.0529 -2.0556
49723SOL    HW261149   8.469   2.539   8.163  0.4227 -0.0998 -0.7466
49724SOL     OW61150   5.325   1.784   7.240 -0.6969 -0.3674  0.4102
49724SOL    HW161151   5.235   1.774   7.271 -1.0966 -2.0495 -1.1413
49724SOL    HW261152   5.379   1.750   7.311 -1.4901 -2.4323  0.1016
49725SOL     OW61153   9.478   8.602  13.186 -0.3985 -0.1504 -0.4660
49725SOL    HW161154   9.470   8.511  13.217 -0.9084  0.2122  0.5157
49725SOL    HW261155   9.516   8.649  13.260 -1.4373  0.7040 -0.4461
49726SOL     OW61156   2.744   3.223   9.769 -0.1026  0.5542 -0.2572
49726SOL    HW161157   2.723   3.215   9.676 -1.0498 -1.6341  0.0653
49726SOL    HW261158   2.740   3.133   9.802  1.7732  1.0718  1.5935
49727SOL     OW61159   3.031  12.156  10.615 -0.1897  0.3989 -0.1351
49727SOL    HW161160   3.063  12.106  10.690 -0.1044  0.8405  0.1253
49727SOL    HW261161   2.945  12.118  10.597 -0.4142  0.5984  0.4812
49728SOL     OW61162   1.074   0.319   5.057 -0.0909 -0.1865  0.0646
49728SOL    HW161163   1.019   0.320   5.135 -1.0920 -0.6206 -0.6212
49728SOL    HW261164   1.043   0.394   5.006  0.7802  0.2920  0.2077
49729SOL     OW61165   2.341  12.518   4.985  0.4924 -0.0292  0.0772
49729SOL    HW161166   2.316  12.599   4.939  0.4276 -0.2280 -0.2378
49729SOL    HW261167   2.414  12.544   5.040  0.1817  0.3493  0.3162
49730SOL     OW61168   5.243   8.169  11.811  0.3169 -0.1430 -0.0504
49730SOL    HW161169   5.277   8.105  11.874 -0.2006  0.0245  0.4045
49730SOL    HW261170   5.186   8.118  11.753  1.9727 -0.6023 -1.3702
49731SOL     OW61171   9.672   4.283   3.992  0.2137  0.2895  0.6007
49731SOL    HW161172   9.714   4.369   3.989  1.1164 -0.0367  2.4684
49731SOL    HW261173   9.588   4.295   3.947  0.4342  2.0606  0.6093
49732SOL     OW61174   3.342   7.378  13.835 -0.4445 -0.3753 -0.2961
49732SOL    HW161175   3.303   7.375  13.748  0.2589  0.8385 -0.6766
49732SOL    HW261176   3.355   7.286  13.859 -0.9822 -0.7276 -1.3015
49733SOL     OW61177   1.556  10.254  12.162  0.5857  0.6880 -0.2476
49733SOL    HW161178   1.528  10.331  12.212 -0.0722  0.5215 -0.3492
49733SOL    HW261179   1.493  10.247  12.091 -1.2061 -1.6235  1.3863
49734SOL     OW61180   3.220   4.782   4.968  0.2004  0.1774  0.1793
49734SOL    HW161181   3.309   4.781   4.932  0.3398  0.1158  0.5268
49734SOL    HW261182   3.167   4.820   4.898  0.5103  0.2702 -0.0080
49735SOL     OW61183   5.236   7.264   7.604  0.0934  0.0107  0.0822
49735SOL    HW161184   5.243   7.356   7.628  0.3318 -0.1161  0.4903
49735SOL    HW261185   5.317   7.244   7.558  1.6344 -0.9036  3.0100
49736SOL     OW61186   3.040   2.110   4.134  0.2201  0.1145 -0.3311
49736SOL    HW161187   2.975   2.104   4.204 -0.2719 -2.8689 -0.9155
49736SOL    HW261188   3.123   2.123   4.180 -0.2081 -0.8639  0.7830
49737SOL     OW61189   0.174  10.541  10.843  0.0076  0.2305  0.3470
49737SOL    HW161190   0.080  10.523  10.830 -0.2026  1.1338  0.5319
49737SOL    HW261191   0.215  10.455  10.841 -0.5064 -0.0188 -2.2309
49738SOL     OW61192  12.580   1.251   1.102  0.8024  0.3153 -0.0842
49738SOL    HW161193  12.502   1.205   1.073  0.7402  0.5570 -0.3020
49738SOL    HW261194  12.622   1.191   1.164 -0.1128  0.6295  0.8616
49739SOL     OW61195   3.053  12.292  10.966  0.0601 -0.2673  0.1323
49739SOL    HW161196   2.996  12.269  11.040  1.0934 -0.5493  0.8718
49739SOL    HW261197   3.042  12.219  10.905 -1.2086  0.2235 -0.2678
49740SOL     OW61198   2.161   5.215   3.874 -0.3240  0.1054  0.2992
49740SOL    HW161199   2.097   5.147   3.895  0.5262 -1.5197 -1.9637
49740SOL    HW261200   2.224   5.172   3.816  1.3732  2.3330  0.3283
49741SOL     OW61201   3.690   2.496   3.227  0.6997 -0.6872  0.1441
49741SOL    HW161202   3.665   2.565   3.290  1.6660 -0.2216  0.0367
49741SOL    HW261203   3.757   2.538   3.172 -0.3323 -0.9907 -1.3915
49742SOL     OW61204   6.873  10.105   4.302 -0.0410 -0.1526  0.3508
49742SOL    HW161205   6.863  10.132   4.393  2.1610  0.9100  0.3463
49742SOL    HW261206   6.849  10.012   4.301 -0.9243  0.0361  1.8247
49743SOL     OW61207   3.856   0.954  13.636  0.1736  0.1519  0.1293
49743SOL    HW161208   3.814   0.954  13.550 -0.6269  0.8165  0.5034
49743SOL    HW261209   3.793   0.997  13.693 -0.1476 -1.9657  1.4684
49744SOL     OW61210  12.037   5.187   4.304  0.5418 -0.5905  0.2058
49744SOL    HW161211  11.972   5.117   4.304  1.1421 -1.1633  0.2868
49744SOL    HW261212  12.099   5.161   4.236  0.5146  0.1093 -0.0863
49745SOL     OW61213   2.338   3.950   9.650  0.4590 -0.5258 -0.5578
49745SOL    HW161214   2.389   3.901   9.714  1.4420 -1.3955 -1.9631
49745SOL    HW261215   2.393   3.954   9.573 -0.6836  0.5353 -1.3637
49746SOL     OW61216   8.838  10.135   2.924 -0.7656 -0.4460 -0.2638
49746SOL    HW161217   8.909  10.099   2.871 -0.1460 -0.4688  0.5457
49746SOL    HW261218   8.841  10.229   2.908  0.6752 -0.2083  1.1450
49747SOL     OW61219   5.557   3.036  11.590 -0.1951  0.4393  0.1680
49747SOL    HW161220   5.621   3.046  11.660  0.7536 -0.1737 -0.5935
49747SOL    HW261221   5.477   3.074  11.625 -0.5144 -2.2128  2.5982
49748SOL     OW61222   1.063   0.417   6.189 -0.4443 -0.2293 -0.8593
49748SOL    HW161223   1.121   0.438   6.116  0.6483 -0.0565  0.0251
49748SOL    HW261224   1.057   0.499   6.238  0.8663 -0.9646  0.6024
49749SOL     OW61225   0.980   1.735   2.779 -0.5260  0.2915  0.0641
49749SOL    HW161226   1.020   1.699   2.859 -0.1143  1.4126  0.3888
49749SOL    HW261227   0.907   1.788   2.811  0.3445  1.6935 -0.1876
49750SOL     OW61228  10.384   2.922   9.123 -0.4693 -0.5784 -0.6722
49750SOL    HW161229  10.407   3.014   9.109 -1.4914 -0.3947 -1.2375
49750SOL    HW261230  10.312   2.906   9.062 -0.9087 -1.5086  0.0759
49751SOL     OW61231   4.131  12.683  11.145 -0.1863 -0.1533 -0.3453
49751SOL    HW161232   4.174  12.600  11.168 -2.5900 -1.8314 -1.4748
49751SOL    HW261233   4.174  12.710  11.064 -0.8326 -1.5415 -1.1994
49752SOL     OW61234   5.551   1.254  12.559  0.0338  0.7412  0.6209
49752SOL    HW161235   5.541   1.184  12.623 -2.4829 -0.1082 -0.5424
49752SOL    HW261236   5.564   1.208  12.476  2.5605  1.7976  0.3395
49753SOL     OW61237   7.491   1.940  13.848 -0.4936 -0.0963  0.2417
49753SOL    HW161238   7.523   1.908  13.932 -0.4601 -0.1059  0.2249
49753SOL    HW261239   7.437   1.869  13.814 -0.3520 -0.1669  0.1666
49754SOL     OW61240   5.837   2.183  10.220  0.0946 -0.1177 -0.0486
49754SOL    HW161241   5.763   2.244  10.228  0.1260 -0.3469  3.3106
49754SOL    HW261242   5.858   2.184  10.126 -0.6011  4.1522 -0.3758
49755SOL     OW61243   9.976   8.960   9.744 -0.4456  0.1324  0.1157
49755SOL    HW161244   9.908   8.956   9.811  0.4504  1.6754  1.1756
49755SOL    HW261245  10.013   9.048   9.752 -0.8068  0.6707 -2.9274
49756SOL     OW61246   1.267   4.674   5.274 -0.4156  0.1345  0.8416
49756SOL    HW161247   1.325   4.717   5.337  0.9522 -1.1766  0.5164
49756SOL    HW261248   1.298   4.584   5.270 -1.7739 -0.3178 -0.2103
49757SOL     OW61249   9.928   9.693   9.136 -0.2984 -0.6925  0.5745
49757SOL    HW161250   9.873   9.615   9.127  0.8833 -1.5317  0.3637
49757SOL    HW261251   9.987   9.673   9.208  0.1232 -0.0516  0.4151
49758SOL     OW61252   0.923   4.386   1.978 -0.3067 -0.1235 -0.4269
49758SOL    HW161253   0.846   4.382   1.921  0.9941 -2.7477 -2.1946
49758SOL    HW261254   0.923   4.303   2.024  0.4479  0.6506  1.0186
49759SOL     OW61255   0.778  12.194  10.607  0.0381  0.1724 -0.7529
49759SOL    HW161256   0.820  12.192  10.521  0.6297  1.2228 -0.5054
49759SOL    HW261257   0.719  12.270  10.603 -0.4252 -0.1658 -0.4534
49760SOL     OW61258   1.206   1.799   5.536 -0.1535  0.2028 -0.7308
49760SOL    HW161259   1.134   1.740   5.558  1.9695 -2.5179 -0.6084
49760SOL    HW261260   1.261   1.748   5.477  3.0035  1.2097  1.1481
49761SOL     OW61261   8.131   4.938   0.556  0.1401 -0.0909  0.4826
49761SOL    HW161262   8.045   4.976   0.578 -0.7428 -1.1369 -1.0211
49761SOL    HW261263   8.159   4.987   0.479  1.4365  0.9662  1.5720
49762SOL     OW61264   6.396  13.769   8.373 -0.2026 -0.2888 -0.3386
49762SOL    HW161265   6.334  13.703   8.342  0.5367 -1.4271  0.5147
49762SOL    HW261266   6.439  13.800   8.293 -0.6496 -0.7460 -0.7672
49763SOL     OW61267   6.750  12.128   5.812 -0.0216  0.5348 -0.3097
49763SOL    HW161268   6.657  12.104   5.820  0.2412 -1.0731 -1.6426
49763SOL    HW261269   6.784  12.120   5.901 -0.7984 -0.5524 -0.0854
49764SOL     OW61270   5.937   8.073   8.545 -0.3232 -0.5323 -0.3803
49764SOL    HW161271   5.941   8.166   8.566  0.3689 -0.6853  0.2089
49764SOL    HW261272   5.968   8.029   8.625 -1.6089 -1.3104 -0.2720
49765SOL     OW61273   6.349   9.140   8.965 -0.3991 -0.2600  0.0817
49765SOL    HW161274   6.358   9.231   8.939  0.4335 -0.1363  0.7615
49765SOL    HW261275   6.292   9.143   9.042 -1.8648 -0.5062 -0.9575
49766SOL     OW61276  11.029   8.090  12.947 -0.3468 -0.8418 -0.0143
49766SOL    HW161277  10.991   8.012  12.987  0.0255 -1.8370 -1.5311
49766SOL    HW261278  10.960   8.123  12.888 -0.9801  0.7410  1.5219
49767SOL     OW61279   9.584   7.109  13.623 -0.0247 -0.3126 -0.5073
49767SOL    HW161280   9.592   7.025  13.669  1.3299 -0.4068 -0.8836
49767SOL    HW261281   9.665   7.116  13.572  0.0386  1.4021 -0.2031
49768SOL     OW61282  12.797  13.996   7.427 -0.0148  0.8950  0.1523
49768SOL    HW161283  12.839  14.049   7.359  0.8679 -1.4006 -1.1821
49768SOL    HW261284  12.734  13.941   7.380  1.3287 -1.4708  0.9558
49769SOL     OW61285   6.919   2.400   9.845  0.2406  0.1391 -0.0685
49769SOL    HW161286   7.012   2.422   9.849  0.2456  0.0498  0.3491
49769SOL    HW261287   6.908   2.358   9.760  1.0150 -1.8165  0.7446
49770SOL     OW61288   3.004   1.634   6.038 -0.2484  0.1669  0.0647
49770SOL    HW161289   3.093   1.670   6.037  0.2622 -1.0276  0.9294
49770SOL    HW261290   2.980   1.630   5.946  1.9474 -2.6372 -0.5373
49771SOL     OW61291   8.751   4.045   6.856  0.0054  0.5168 -0.2952
49771SOL    HW161292   8.714   4.039   6.768  2.3969 -2.4351 -1.3123
49771SOL    HW261293   8.779   3.955   6.876  0.5859  1.2945  3.0371
49772SOL     OW61294   8.781   0.678  11.951  0.2032 -0.3992 -0.1869
49772SOL    HW161295   8.759   0.771  11.953  0.4568 -0.2490 -2.5315
49772SOL    HW261296   8.876   0.676  11.949  0.2916 -0.8285  1.8002
49773SOL     OW61297   1.926  12.585  13.173  0.4793  0.9093  0.0709
49773SOL    HW161298   1.952  12.494  13.185  1.5803  1.2259  0.1807
49773SOL    HW261299   1.956  12.608  13.085  2.2098  1.7970  0.8487
49774SOL     OW61300  11.462   8.441   1.587 -0.0694 -0.2584 -0.5522
49774SOL    HW161301  11.492   8.455   1.677 -0.2651 -1.0829 -0.3524
49774SOL    HW261302  11.484   8.350   1.568 -0.4809 -0.2343 -1.1625
49775SOL     OW61303  10.146   0.335  10.227 -0.3181 -0.0384  0.6098
49775SOL    HW161304  10.231   0.300  10.201 -0.9929  0.4715 -2.7835
49775SOL    HW261305  10.146   0.425  10.194 -1.8194  0.3110  1.4302
49776SOL     OW61306  10.417  10.100   4.754 -0.2108  0.1211 -0.0579
49776SOL    HW161307  10.491  10.121   4.811  0.6992 -2.5884 -0.0798
49776SOL    HW261308  10.451  10.114   4.665 -1.4117  3.6661 -0.1265
49777SOL     OW61309  13.035   0.477   5.410 -0.2302 -0.8173 -0.4258
49777SOL    HW161310  13.086   0.555   5.432  1.8563 -1.7578 -1.6383
49777SOL    HW261311  12.971   0.469   5.481  0.3514  1.2337  0.3935
49778SOL     OW61312   7.475   6.117   7.136 -0.5065 -0.1828 -0.3204
49778SOL    HW161313   7.505   6.110   7.045  0.0144 -0.7646 -0.1133
49778SOL    HW261314   7.553   6.141   7.186 -0.6329 -0.5604  0.0672
49779SOL     OW61315   9.585  12.841  13.365 -0.8994 -0.2533  0.3611
49779SOL    HW161316   9.599  12.846  13.460 -1.2291 -0.3022  0.4149
49779SOL    HW261317   9.649  12.902  13.328  0.7965 -1.8946  0.4488
49780SOL     OW61318   7.755   2.749   7.201  0.1125 -0.1873 -0.1356
49780SOL    HW161319   7.754   2.661   7.164 -1.7791 -0.7808  1.1332
49780SOL    HW261320   7.668   2.784   7.181  0.3313  0.8244  0.6069
49781SOL     OW61321  13.765   3.819  10.605  0.0647 -0.0489  0.1825
49781SOL    HW161322  13.687   3.874  10.608  0.1057  0.1791 -1.5778
49781SOL    HW261323  13.809   3.835  10.688  0.1114  2.6755 -0.2707
49782SOL     OW61324  11.691   9.721   9.688 -0.0305  0.1402 -0.5634
49782SOL    HW161325  11.603   9.692   9.665 -1.2067  2.2204  0.9761
49782SOL    HW261326  11.691   9.725   9.784  1.3539  1.1936 -0.5679
49783SOL     OW61327   7.509  12.143   6.558 -0.2296  0.6425 -0.3199
49783SOL    HW161328   7.536  12.107   6.474  0.6075  0.4850  0.0057
49783SOL    HW261329   7.462  12.224   6.536 -0.5795  0.2673 -0.9586
49784SOL     OW61330   9.853   0.999   7.221 -0.0157  0.2526 -0.6496
49784SOL    HW161331   9.905   1.034   7.148  1.6033 -2.0777 -0.7399
49784SOL    HW261332   9.838   0.907   7.197  0.2243 -0.4740  1.7666
49785SOL     OW61333   9.886   2.349  13.445  0.3566 -0.6758  0.2083
49785SOL    HW161334   9.912   2.268  13.489  1.3959 -0.5207 -0.1075
49785SOL    HW261335   9.935   2.418  13.489 -1.3599 -0.0364  1.2390
49786SOL     OW61336   9.784   8.140   8.884  0.2281 -0.2818 -0.1661
49786SOL    HW161337   9.705   8.097   8.917  2.0718 -2.3716  1.8450
49786SOL    HW261338   9.795   8.104   8.796 -0.9973  0.0347 -0.4739
49787SOL     OW61339  11.873   2.647   2.428  0.4912 -0.9417 -1.1159
49787SOL    HW161340  11.933   2.698   2.373  0.5338  0.1688 -0.0971
49787SOL    HW261341  11.869   2.697   2.510 -2.3806 -0.5973 -1.3930
49788SOL     OW61342   3.603  12.661  13.636  0.2097  0.4787 -0.0676
49788SOL    HW161343   3.570  12.580  13.675  1.5483 -0.0151  0.0990
49788SOL    HW261344   3.549  12.674  13.558 -0.4031 -0.2576  0.2209
49789SOL     OW61345  10.276  11.858  10.422  0.0859 -0.0247 -0.4106
49789SOL    HW161346  10.263  11.946  10.387 -0.7659 -0.2628 -0.7040
49789SOL    HW261347  10.361  11.831  10.386 -0.9796 -0.4516 -2.7651
49790SOL     OW61348   3.211  12.801   2.279  0.5528  0.0110  0.3521
49790SOL    HW161349   3.287  12.786   2.336  0.2525 -0.4394  0.6395
49790SOL    HW261350   3.217  12.893   2.255  1.1798 -0.0138  0.3929
49791SOL     OW61351  10.590   9.705  12.761 -0.0675  0.2946 -0.2935
49791SOL    HW161352  10.660   9.674  12.819 -0.6610  0.3488  0.4638
49791SOL    HW261353  10.597   9.801  12.765  1.0178  0.3077 -1.7179
49792SOL     OW61354  12.143   4.744   2.451 -0.4053  0.3499 -0.0785
49792SOL    HW161355  12.132   4.650   2.434 -1.2442  0.6445 -1.2345
49792SOL    HW261356  12.141   4.785   2.365 -0.0862  1.4501  0.4174
49793SOL     OW61357   3.933   3.411   8.548 -0.9506 -0.2459  0.7515
49793SOL    HW161358   3.983   3.435   8.626  0.3490 -0.7379  0.0991
49793SOL    HW261359   3.986   3.344   8.506 -3.3615 -2.7224  1.3602
49794SOL     OW61360   2.805   3.188   9.115 -0.0912 -0.8823 -0.7218
49794SOL    HW161361   2.720   3.179   9.072 -1.0993 -1.1373  1.2323
49794SOL    HW261362   2.809   3.280   9.141 -0.6799 -1.3027  0.9405
49795SOL     OW61363   6.223   9.642  11.263 -0.5310  0.7065  0.3423
49795SOL    HW161364   6.250   9.713  11.323 -2.1350  0.7121  1.0948
49795SOL    HW261365   6.220   9.683  11.177  1.1139  0.8751  0.3255
49796SOL     OW61366   6.391   9.056   1.536  0.0230 -0.8830 -0.2080
49796SOL    HW161367   6.413   9.104   1.616  0.0705 -1.1257 -0.0776
49796SOL    HW261368   6.377   8.966   1.564  0.3793 -1.0389 -0.5252
49797SOL     OW61369   5.159   5.439  12.073 -0.1513 -0.2361 -0.5341
49797SOL    HW161370   5.165   5.528  12.038 -0.2131 -0.3828 -0.9286
49797SOL    HW261371   5.081   5.440  12.129  1.5359  0.7823  1.9721
49798SOL     OW61372   4.950   2.584   4.567  0.0161  0.5554 -0.0179
49798SOL    HW161373   4.995   2.550   4.490 -0.0082 -0.4027  0.3753
49798SOL    HW261374   4.873   2.528   4.577  0.2343  0.4045  0.9301
49799SOL     OW61375   2.379  11.077   0.870 -0.1570 -0.2104 -0.2547
49799SOL    HW161376   2.352  10.988   0.847 -0.6900 -0.4200  1.0985
49799SOL    HW261377   2.474  11.077   0.858 -0.2111 -0.8127 -0.7230
49800SOL     OW61378  13.552  13.074  12.284 -0.1610  0.5683  0.2993
49800SOL    HW161379  13.615  13.021  12.235 -0.7740 -0.2660  0.3916
49800SOL    HW261380  13.475  13.079  12.227 -0.4065  0.6691  0.6373
49801SOL     OW61381   8.145  10.989   2.206 -0.0143 -0.4901  0.4332
49801SOL    HW161382   8.207  10.917   2.216 -0.7611 -1.3255 -0.7389
49801SOL    HW261383   8.059  10.950   2.221 -0.3725  0.3771  0.7566
49802SOL     OW61384  10.727  10.605   4.568 -0.1446  0.0877 -0.4668
49802SOL    HW161385  10.666  10.534   4.589 -0.8209  0.9389  0.5375
49802SOL    HW261386  10.813  10.563   4.567 -0.5657 -0.8040 -0.2159
49803SOL     OW61387   5.022   5.690  13.025  0.6393 -0.0554  0.0055
49803SOL    HW161388   5.051   5.684  13.116  1.4947  0.8692 -0.1942
49803SOL    HW261389   5.019   5.599  12.995  2.7699 -0.2521  0.2262
49804SOL     OW61390  13.236   1.427   0.112 -0.6045  0.3350 -0.2464
49804SOL    HW161391  13.291   1.377   0.051 -0.7864  1.2925 -1.2390
49804SOL    HW261392  13.181   1.361   0.155  0.4385 -0.4997 -0.1556
49805SOL     OW61393  12.057   1.751   4.015  0.0887 -0.6592 -0.0448
49805SOL    HW161394  12.099   1.668   3.995  0.0796 -0.4861 -0.8118
49805SOL    HW261395  12.121   1.817   3.988 -0.2522 -0.4103 -0.2507
49806SOL     OW61396  10.730   0.271   1.614 -0.5061  0.0930  0.4022
49806SOL    HW161397  10.808   0.326   1.617 -0.9844  0.7630  0.7469
49806SOL    HW261398  10.716   0.254   1.520  0.7913 -1.1306  0.3872
49807SOL     OW61399   2.870   9.425   3.722 -0.0093  0.4888 -0.6749
49807SOL    HW161400   2.937   9.484   3.688 -0.2368 -0.7771 -3.6765
49807SOL    HW261401   2.790   9.452   3.677 -1.0195  0.4006  0.9847
49808SOL     OW61402   9.337  11.894   1.875 -0.1560 -0.3195  0.3936
49808SOL    HW161403   9.268  11.900   1.809  1.5331 -1.0565 -1.5381
49808SOL    HW261404   9.371  11.983   1.881  0.5734 -0.4914 -0.7941
49809SOL     OW61405   7.173   5.782   3.888 -0.1213  0.5957 -0.0928
49809SOL    HW161406   7.147   5.703   3.935  1.5730  0.1351  0.1407
49809SOL    HW261407   7.211   5.838   3.955  0.0982  0.9611 -0.5174
49810SOL     OW61408   7.248   0.640  13.387 -0.6402  0.4533  0.3986
49810SOL    HW161409   7.273   0.548  13.400 -1.4769 -0.0136 -0.9864
49810SOL    HW261410   7.274   0.684  13.468  0.0109 -0.9506  0.9932
49811SOL     OW61411   8.388  12.869   5.535  0.5173 -0.2004  0.7077
49811SOL    HW161412   8.377  12.934   5.466  0.9978 -1.8266 -0.9865
49811SOL    HW261413   8.300  12.855   5.570  0.1422  0.0947 -0.1117
49812SOL     OW61414  11.102  10.549  13.782  0.3878 -0.5507  0.5454
49812SOL    HW161415  11.101  10.587  13.694  3.6285  0.0746  0.6553
49812SOL    HW261416  11.078  10.622  13.839  1.8785  0.0883  0.3995
49813SOL     OW61417   7.874   7.559   8.210 -0.2938  0.0279  0.3259
49813SOL    HW161418   7.824   7.600   8.139 -1.1198 -0.6267  0.5060
49813SOL    HW261419   7.899   7.632   8.267 -0.9319  0.3988  0.1475
49814SOL     OW61420  13.871  10.191   3.183  0.5412  0.1831 -0.4821
49814SOL    HW161421  13.935  10.244   3.229  0.9226 -0.4748 -0.2305
49814SOL    HW261422  13.878  10.105   3.225  1.1869 -0.5590 -2.0408
49815SOL     OW61423   5.008   0.865   6.610 -0.0140 -0.0395  0.1954
49815SOL    HW161424   4.970   0.848   6.524 -0.9799  0.5900  0.4910
49815SOL    HW261425   5.066   0.941   6.596  0.4738 -0.4525 -0.0648
49816SOL     OW61426   4.251   0.237  13.447  0.9633 -0.3885  0.3876
49816SOL    HW161427   4.258   0.236  13.352 -0.8193 -0.2115  0.2117
49816SOL    HW261428   4.213   0.151  13.469  0.4911 -0.0774  0.8304
49817SOL     OW61429   4.895   3.841   9.565 -0.2802 -0.2933 -0.0085
49817SOL    HW161430   4.853   3.863   9.482  0.9616 -0.0817 -0.5916
49817SOL    HW261431   4.885   3.746   9.572 -1.1176 -0.2140  0.0196
49818SOL     OW61432   2.014   3.635  11.283  0.0318  0.3894  0.0530
49818SOL    HW161433   1.968   3.598  11.359 -0.4834 -0.3118 -0.5788
49818SOL    HW261434   2.000   3.570  11.213  1.9922  0.1447 -0.1750
49819SOL     OW61435  10.972   7.056  13.414 -0.2639  0.1283 -0.2460
49819SOL    HW161436  10.891   7.046  13.365 -1.2138  0.3915  1.2140
49819SOL    HW261437  10.965   6.993  13.486  0.8235  0.1675 -0.0834
49820SOL     OW61438   6.474  10.002  10.408 -0.6875  0.0225  0.5825
49820SOL    HW161439   6.461  10.041  10.322 -0.3209  0.1025  0.5647
49820SOL    HW261440   6.545  10.052  10.447 -0.8428 -0.0246  0.9246
49821SOL     OW61441   2.004  10.929   8.518 -0.3479 -0.0512  0.3130
49821SOL    HW161442   2.017  11.009   8.466  1.9683  0.3040  1.3137
49821SOL    HW261443   1.997  10.960   8.608  1.1286 -0.9820  0.7743
49822SOL     OW61444  10.105  12.821   5.501  0.2330  0.4820 -0.3407
49822SOL    HW161445  10.144  12.857   5.421  1.0734 -1.3426 -0.8075
49822SOL    HW261446  10.048  12.751   5.470 -1.0416  1.0905  0.5541
49823SOL     OW61447   7.746  13.620  10.101 -0.0601  0.1227  0.2956
49823SOL    HW161448   7.655  13.639  10.126 -0.8925 -2.5407 -0.4191
49823SOL    HW261449   7.739  13.580  10.014  1.7806 -0.4376  0.3737
49824SOL     OW61450  11.423   9.686   6.776 -0.5845  0.1929  0.0150
49824SOL    HW161451  11.355   9.753   6.781 -2.3984 -1.6101  0.3599
49824SOL    HW261452  11.398   9.620   6.841  1.8395 -0.2717  0.6139
49825SOL     OW61453   1.169   8.572   9.280  0.1332 -0.2091 -0.0360
49825SOL    HW161454   1.254   8.615   9.294  0.3829  1.0343 -4.0774
49825SOL    HW261455   1.192   8.486   9.245 -0.4004 -1.2096  1.8996
49826SOL     OW61456   6.137   9.510   0.037 -0.3017 -0.2473  0.3500
49826SOL    HW161457   6.106   9.580   0.094 -0.1839 -0.9555  1.3089
49826SOL    HW261458   6.057   9.464   0.010 -0.2297 -1.8644  2.5510
49827SOL     OW61459   3.079  11.947   9.058 -0.8737 -0.0667  0.3409
49827SOL    HW161460   3.092  12.032   9.016  0.6646 -0.1401  0.5725
49827SOL    HW261461   2.988  11.925   9.042 -0.6332  0.3876 -2.0246
49828SOL     OW61462   5.311   8.120   0.275  0.3045 -0.1237  0.2304
49828SOL    HW161463   5.255   8.045   0.294  1.1763 -0.5578  1.1327
49828SOL    HW261464   5.253   8.196   0.284  0.3034 -0.3991  3.3664
49829SOL     OW61465  12.437  10.700   6.894 -0.1987 -0.3703 -0.7251
49829SOL    HW161466  12.405  10.617   6.859  2.6540 -1.6813 -0.5141
49829SOL    HW261467  12.528  10.705   6.864  0.5987  1.2397  1.6601
49830SOL     OW61468   3.034   4.112  13.206  0.4789 -0.6015  0.4585
49830SOL    HW161469   3.122   4.081  13.226  0.9164 -0.8993 -1.6484
49830SOL    HW261470   3.009   4.167  13.281  1.5253 -2.3042  2.1157
49831SOL     OW61471   4.099   9.265   9.016  0.4614  0.4062  0.2258
49831SOL    HW161472   4.065   9.202   9.080  0.1866  0.6315  0.3029
49831SOL    HW261473   4.056   9.348   9.039 -0.3475  0.2974 -0.7988
49832SOL     OW61474   3.123  12.555   8.439  0.0465 -0.5677  0.2942
49832SOL    HW161475   3.079  12.474   8.415 -1.8496  0.0893  1.3026
49832SOL    HW261476   3.078  12.584   8.519  1.0924  1.1386  0.3212
49833SOL     OW61477  10.352   5.290  11.567 -0.0663 -0.1047 -0.1376
49833SOL    HW161478  10.273   5.312  11.519  0.2148 -1.1980 -1.1235
49833SOL    HW261479  10.345   5.340  11.649 -2.0076 -0.5680  0.0232
49834SOL     OW61480  13.971  13.931   9.561 -0.6235 -0.6010 -0.1672
49834SOL    HW161481  13.957  13.983   9.641 -2.6435 -2.4683  0.7911
49834SOL    HW261482  14.055  13.963   9.527 -1.0893  2.2999  1.0631
49835SOL     OW61483   8.231  14.035   8.171 -0.0327  0.0566  0.0613
49835SOL    HW161484   8.221  14.021   8.265  0.3376 -0.3267  0.0456
49835SOL    HW261485   8.248  13.948   8.135 -3.8072 -0.4966 -0.8696
49836SOL     OW61486   4.812  13.278   2.566 -0.4520 -0.1293  0.1106
49836SOL    HW161487   4.750  13.315   2.503 -0.7692  0.8843  0.9867
49836SOL    HW261488   4.862  13.214   2.516 -1.4573 -0.1579 -0.8869
49837SOL     OW61489   2.484  10.617   7.238 -0.1636 -0.1895  0.2597
49837SOL    HW161490   2.413  10.555   7.219  0.3964 -0.9810  0.6677
49837SOL    HW261491   2.553  10.563   7.278  0.2587  0.7377  0.8218
49838SOL     OW61492  12.846   3.548   8.222 -0.1113 -0.7105  0.2725
49838SOL    HW161493  12.875   3.635   8.251 -0.0636 -0.4169 -0.6242
49838SOL    HW261494  12.927   3.497   8.213 -0.2061 -1.1193  1.6273
49839SOL     OW61495   2.602   9.090   3.671 -0.0410  0.2323 -0.4097
49839SOL    HW161496   2.644   9.146   3.606  1.2937 -0.9612 -0.6200
49839SOL    HW261497   2.539   9.038   3.621 -1.0670  1.2939 -0.2605
49840SOL     OW61498   8.892  10.384  12.082 -0.8411 -0.0926  0.7331
49840SOL    HW161499   8.852  10.443  12.018 -2.9521  1.0759  2.9437
49840SOL    HW261500   8.973  10.428  12.108  0.3909 -0.8967 -1.4644
49841SOL     OW61501   1.892  11.684  11.852  0.2873 -0.1088  0.4312
49841SOL    HW161502   1.838  11.691  11.772  0.9521 -0.8695 -0.0983
49841SOL    HW261503   1.979  11.661  11.820  0.2864 -1.6579  1.4602
49842SOL     OW61504   6.585   8.527  10.572  0.4946  1.2179  0.2514
49842SOL    HW161505   6.527   8.602  10.590  0.4905  2.3494 -3.6554
49842SOL    HW261506   6.673   8.560  10.588  0.3452  0.6249  2.6517
49843SOL     OW61507   0.267   1.242   9.240 -0.5981 -1.1815  0.3649
49843SOL    HW161508   0.255   1.336   9.248  0.4555 -0.6060 -3.2908
49843SOL    HW261509   0.281   1.212   9.330  0.7479  2.3920  1.5096
49844SOL     OW61510   2.322   7.171   3.135  0.1053 -0.3977  0.5346
49844SOL    HW161511   2.251   7.233   3.120 -0.0855 -1.0422 -1.6296
49844SOL    HW261512   2.296   7.093   3.087  1.4287 -1.3257  1.2624
49845SOL     OW61513   9.533   3.743   6.706 -0.3522  0.6912 -0.3625
49845SOL    HW161514   9.613   3.750   6.758 -0.3144  0.4050 -0.3827
49845SOL    HW261515   9.463   3.766   6.767 -0.6210 -2.4461  0.6649
49846SOL     OW61516  11.167   7.591  13.693  0.4091 -0.0213  0.2788
49846SOL    HW161517  11.144   7.525  13.758  2.5315  0.2988  1.4234
49846SOL    HW261518  11.232   7.548  13.637 -0.5359  0.0986 -0.9776
49847SOL     OW61519   6.287   8.264   8.778  0.0035 -0.3365  0.0594
49847SOL    HW161520   6.237   8.220   8.845  0.4909 -0.2345  0.4992
49847SOL    HW261521   6.375   8.274   8.815  0.0513  0.4992 -0.2409
49848SOL     OW61522   4.582   4.428   4.938  0.2003 -0.6276 -0.0029
49848SOL    HW161523   4.507   4.437   4.998  0.7310  2.2699  0.3775
49848SOL    HW261524   4.657   4.411   4.995 -0.0291 -3.4123 -0.3770
49849SOL     OW61525   5.168   6.539   7.637 -0.2937 -0.6601 -0.0046
49849SOL    HW161526   5.132   6.457   7.673 -0.1627 -0.8655 -0.3431
49849SOL    HW261527   5.130   6.607   7.692  0.8467 -1.0399  1.3119
49850SOL     OW61528   2.418  11.809   5.263  0.0354 -0.0710  0.2171
49850SOL    HW161529   2.450  11.766   5.184 -2.2182 -2.1095  0.3272
49850SOL    HW261530   2.328  11.833   5.243  0.3986  2.3215  1.1114
49851SOL     OW61531   7.766  13.028   7.650  0.0213  0.1044 -0.1342
49851SOL    HW161532   7.848  12.979   7.656  0.6410  0.6464 -2.8878
49851SOL    HW261533   7.698  12.960   7.646  0.4429 -0.3798  0.5683
49852SOL     OW61534   0.434  12.903  12.755 -0.3670 -0.7146  0.3580
49852SOL    HW161535   0.529  12.909  12.762 -0.5518  1.5360  1.7812
49852SOL    HW261536   0.404  12.888  12.844 -1.4285  0.9000  0.3121
49853SOL     OW61537   8.750   4.606   8.309 -0.1864 -0.0803  0.2110
49853SOL    HW161538   8.740   4.521   8.267  0.8379  0.3656 -0.9985
49853SOL    HW261539   8.660   4.636   8.324 -0.5678 -0.9053 -0.3306
49854SOL     OW61540   1.952   3.463   5.974  0.0890 -0.4411  0.8045
49854SOL    HW161541   1.867   3.421   5.974 -0.0187 -0.2372  0.0640
49854SOL    HW261542   1.934   3.553   5.944  0.2829  0.2053  2.5132
49855SOL     OW61543  13.225  11.144  11.240 -0.1784 -0.0473 -0.3508
49855SOL    HW161544  13.192  11.212  11.182 -2.5187 -2.0548 -1.5779
49855SOL    HW261545  13.230  11.066  11.185  1.2929 -1.1810  1.2550
49856SOL     OW61546   9.056   3.341   6.855  0.3380 -0.1418  0.5722
49856SOL    HW161547   8.963   3.315   6.860  0.4226 -0.4181  0.7315
49856SOL    HW261548   9.092   3.282   6.788  0.3855  0.0069  0.4678
49857SOL     OW61549   7.794   1.878   4.653 -0.4180  0.1822 -0.1182
49857SOL    HW161550   7.819   1.953   4.706  2.2715  0.6604 -1.8884
49857SOL    HW261551   7.875   1.851   4.609 -1.6415 -2.7172 -0.8590
49858SOL     OW61552   8.311   9.848  10.553  0.7182 -0.0914 -0.5727
49858SOL    HW161553   8.244   9.795  10.595  1.8893 -0.5212  0.8411
49858SOL    HW261554   8.287   9.849  10.460 -0.7864 -0.8689 -0.2164
49859SOL     OW61555   7.230   3.571   4.033 -0.4932  0.1468  0.0822
49859SOL    HW161556   7.212   3.654   3.989  0.1511 -0.1001 -0.6669
49859SOL    HW261557   7.210   3.588   4.125 -3.2013  0.2718 -0.4552
49860SOL     OW61558  11.477   7.907  12.328  0.0530  0.0735 -0.6347
49860SOL    HW161559  11.417   7.924  12.401 -0.1194 -1.3960 -0.3912
49860SOL    HW261560  11.421   7.868  12.260  0.4948 -0.0365 -0.9353
49861SOL     OW61561   3.875  12.740  11.588  0.4348  0.0761  0.1067
49861SOL    HW161562   3.953  12.700  11.549 -0.1283 -0.2702 -0.6860
49861SOL    HW261563   3.888  12.834  11.576  1.0727  0.0693  0.6550
49862SOL     OW61564   2.900  13.293   1.015 -0.7686 -0.0771  0.4775
49862SOL    HW161565   2.810  13.261   1.014 -0.9612  0.4000  1.4027
49862SOL    HW261566   2.893  13.384   1.042 -0.0569  0.1867 -0.1702
49863SOL     OW61567  11.162   9.447   0.312 -0.1415 -0.3898 -0.1811
49863SOL    HW161568  11.094   9.444   0.245  0.0806  1.9970 -0.5986
49863SOL    HW261569  11.148   9.531   0.357  2.3730  0.1024 -0.1560
49864SOL     OW61570   7.205   7.590   0.525  0.1526 -0.2620  0.1804
49864SOL    HW161571   7.129   7.547   0.485  1.1973 -1.3626 -0.6877
49864SOL    HW261572   7.190   7.683   0.510 -0.8061 -0.4868 -0.3544
49865SOL     OW61573   8.801   4.546  11.505 -0.1660  0.4820 -0.4653
49865SOL    HW161574   8.804   4.514  11.595  0.4096 -0.1258 -0.6888
49865SOL    HW261575   8.829   4.638  11.511 -1.7279  0.9414  0.1635
49866SOL     OW61576  10.337  11.508   5.563 -1.0281  0.0740  0.1805
49866SOL    HW161577  10.356  11.558   5.642  0.3114 -0.2745  0.1007
49866SOL    HW261578  10.254  11.544   5.531 -0.8746  1.1677  0.9720
49867SOL     OW61579   9.863   4.169   2.322  0.1548 -0.5334  0.2785
49867SOL    HW161580   9.918   4.170   2.400  0.1083  0.5610  0.3166
49867SOL    HW261581   9.906   4.232   2.263  0.8017 -2.1157 -1.0091
49868SOL     OW61582   4.692   5.229  12.591 -0.4754  0.4347  0.2909
49868SOL    HW161583   4.678   5.322  12.607  0.4825  0.4759  0.9686
49868SOL    HW261584   4.716   5.193  12.677 -2.2378 -0.7274  0.3588
49869SOL     OW61585  11.918   0.172   9.008 -0.8666  0.1589 -0.1070
49869SOL    HW161586  11.936   0.251   8.958 -3.7145  1.3234  0.5086
49869SOL    HW261587  11.888   0.108   8.943 -4.2033  1.5503 -0.1209
49870SOL     OW61588   8.102   2.201   4.241 -0.1058  0.8688 -0.3469
49870SOL    HW161589   8.030   2.258   4.268 -1.3061 -0.8236  0.1884
49870SOL    HW261590   8.066   2.152   4.167  0.5286  0.0747 -0.1310
49871SOL     OW61591   5.488   7.628   1.066 -0.2477  0.3140 -0.4997
49871SOL    HW161592   5.508   7.564   1.134  1.9303 -1.1839 -2.3692
49871SOL    HW261593   5.394   7.619   1.052 -0.1472 -1.9651 -0.1482
49872SOL     OW61594   9.604   7.539   8.743 -0.0978  0.8420  0.3732
49872SOL    HW161595   9.636   7.519   8.655 -0.0334  0.8909  0.3858
49872SOL    HW261596   9.549   7.616   8.731 -1.0466  0.1506  0.1854
49873SOL     OW61597   4.885  13.499  11.237 -0.2101  0.1766 -0.0482
49873SOL    HW161598   4.826  13.479  11.310 -1.5198  0.6460 -0.9469
49873SOL    HW261599   4.868  13.430  11.173  0.4035  0.1766 -0.2118
49874SOL     OW61600   7.884   3.692   3.933  0.1715 -0.2270 -0.0823
49874SOL    HW161601   7.929   3.615   3.899 -0.6680 -1.5169  1.6018
49874SOL    HW261602   7.899   3.759   3.867 -1.1958 -2.4967 -2.9221
49875SOL     OW61603  10.824  13.440   6.062 -0.0705  0.1209  0.5466
49875SOL    HW161604  10.739  13.411   6.095  0.0807 -0.9591  0.0173
49875SOL    HW261605  10.802  13.502   5.992 -0.4273 -0.3034  0.2790
49876SOL     OW61606   7.611  12.576  10.419 -0.4118  0.2700  0.2813
49876SOL    HW161607   7.528  12.617  10.443 -1.1063 -0.3778 -0.9220
49876SOL    HW261608   7.601  12.554  10.326  0.8491 -0.4503  0.2931
49877SOL     OW61609   9.928  10.310   4.360 -0.5825  0.5881  0.2907
49877SOL    HW161610   9.930  10.350   4.272  2.1245  0.4360  0.2186
49877SOL    HW261611   9.979  10.370   4.414 -1.1997  0.0357  1.5044
49878SOL     OW61612  13.630   3.592   6.400 -0.2187  0.4967  0.1890
49878SOL    HW161613  13.585   3.609   6.317  0.2738  1.5796  0.1286
49878SOL    HW261614  13.715   3.635   6.390  0.0551  0.1586  1.0461
49879SOL     OW61615  13.445   0.642   7.473  0.4122 -0.5404  0.2433
49879SOL    HW161616  13.502   0.702   7.425 -0.7163  0.2881 -0.1069
49879SOL    HW261617  13.357   0.659   7.438 -0.1955 -1.1113  1.4262
49880SOL     OW61618  11.868   7.047   7.127  0.3155  0.0049 -0.7322
49880SOL    HW161619  11.905   6.959   7.128  0.5454  0.1014 -0.8428
49880SOL    HW261620  11.894   7.085   7.211  1.3664  0.4471 -1.2479
49881SOL     OW61621  12.196   8.207   8.563 -0.0085  0.1828 -0.6268
49881SOL    HW161622  12.254   8.270   8.605  0.2237 -1.0184  0.9359
49881SOL    HW261623  12.110   8.225   8.600  0.0289 -0.3079 -0.2978
49882SOL     OW61624   2.298   9.527   6.182 -0.1389 -0.1774 -0.9798
49882SOL    HW161625   2.389   9.551   6.199 -0.0548 -1.3060  0.3889
49882SOL    HW261626   2.304   9.457   6.116  0.1564 -1.4322  0.3139
49883SOL     OW61627   7.695   3.994  11.606 -0.0417 -0.0450  0.1715
49883SOL    HW161628   7.655   3.987  11.692 -0.0951  3.9222  0.6647
49883SOL    HW261629   7.786   3.970  11.619 -0.2897 -0.5481  1.0598
49884SOL     OW61630   4.574   5.930   1.547 -0.2398  0.1910 -0.1255
49884SOL    HW161631   4.633   5.880   1.604  0.0859  0.8758  0.1476
49884SOL    HW261632   4.630   5.960   1.476 -0.0744  1.4545  0.5044
49885SOL     OW61633   2.445   9.108   2.341  0.0440 -0.4585 -0.1033
49885SOL    HW161634   2.388   9.132   2.268 -1.3786 -2.3269  0.3203
49885SOL    HW261635   2.489   9.189   2.365 -1.6149  0.8251 -1.1961
49886SOL     OW61636   0.523   1.837   9.226 -0.2486 -0.2682 -0.6768
49886SOL    HW161637   0.611   1.801   9.236 -0.1273  0.2891  0.5357
49886SOL    HW261638   0.480   1.780   9.162  0.9876 -0.5433 -1.2896
49887SOL     OW61639  10.637   4.326   3.981 -0.8070 -0.1643  0.3904
49887SOL    HW161640  10.648   4.248   3.928  0.4992 -1.1167  1.9680
49887SOL    HW261641  10.687   4.394   3.935 -0.1942 -0.8051  0.1033
49888SOL     OW61642   0.692  12.087  12.291  0.7441  0.1808  0.4733
49888SOL    HW161643   0.719  12.172  12.256 -0.0686 -0.0410 -0.7635
49888SOL    HW261644   0.766  12.029  12.271  0.8533  0.3615  0.3463
49889SOL     OW61645  13.770   6.690  13.326  0.0038 -0.3846  0.4175
49889SOL    HW161646  13.809   6.618  13.376  0.6818 -1.0640 -1.0243
49889SOL    HW261647  13.759   6.654  13.238 -1.8685  0.5204  0.2384
49890SOL     OW61648   3.237  11.880  10.256  0.1568  0.1048 -0.5059
49890SOL    HW161649   3.313  11.918  10.298  0.0465  0.6219 -0.7653
49890SOL    HW261650   3.162  11.915  10.305  0.0818 -3.9048  2.7830
49891SOL     OW61651   1.104   8.122   8.198  0.4685  0.2849  0.0409
49891SOL    HW161652   1.190   8.162   8.209  0.9226 -0.4105 -0.8412
49891SOL    HW261653   1.044   8.196   8.195  0.8204  0.7322  2.1720
49892SOL     OW61654   6.453  10.760  12.687  0.1854  0.0047  0.4658
49892SOL    HW161655   6.422  10.772  12.777  1.6096  1.5901  0.8023
49892SOL    HW261656   6.548  10.756  12.695  0.3742  0.8038 -1.0266
49893SOL     OW61657   8.308  13.283   8.007 -0.0283  0.2613  0.7244
49893SOL    HW161658   8.316  13.239   8.093  0.3038  0.9470  1.0516
49893SOL    HW261659   8.361  13.228   7.949  0.1700  0.0742  1.0712
49894SOL     OW61660   4.762   1.176   3.814  0.3753  0.3106 -0.2469
49894SOL    HW161661   4.719   1.249   3.770 -0.2882 -0.0057 -0.1413
49894SOL    HW261662   4.715   1.098   3.784  0.3221  0.0302  0.5242
49895SOL     OW61663   0.768  13.956  11.247  0.0051 -0.1314  0.2593
49895SOL    HW161664   0.717  13.963  11.328 -1.4493 -2.1066 -0.4101
49895SOL    HW261665   0.856  13.932  11.277 -0.2249  0.2573  1.3068
49896SOL     OW61666  10.045   0.162   8.458 -0.2824 -0.1688  0.1239
49896SOL    HW161667   9.972   0.113   8.419  0.2820 -0.0762 -1.1115
49896SOL    HW261668  10.019   0.176   8.549 -0.7176 -2.2463  0.3543
49897SOL     OW61669   0.660   4.656  10.901 -0.2225 -0.3002  0.0196
49897SOL    HW161670   0.576   4.617  10.876 -0.5387 -0.2551  0.9422
49897SOL    HW261671   0.702   4.588  10.953 -0.3314  0.2057  0.7853
49898SOL     OW61672  11.430  10.575   3.208 -0.4966 -0.1596  0.1445
49898SOL    HW161673  11.472  10.552   3.291  0.0762 -0.9375 -0.3460
49898SOL    HW261674  11.345  10.531   3.211  0.2493 -1.7106 -0.4232
49899SOL     OW61675  11.700   8.463   3.178 -0.2021  0.2234  0.4337
49899SOL    HW161676  11.717   8.376   3.141  0.0348  0.5945 -0.3620
49899SOL    HW261677  11.748   8.464   3.260  1.3032  0.2222 -0.4046
49900SOL     OW61678   8.465  12.346   3.431 -0.0025 -0.3877  0.3873
49900SOL    HW161679   8.537  12.300   3.388 -0.5401 -0.3758 -0.5505
49900SOL    HW261680   8.496  12.361   3.520 -0.0488 -3.1583  0.9562
49901SOL     OW61681   4.683   8.401   0.701  0.2013  0.0608  0.0407
49901SOL    HW161682   4.709   8.484   0.661 -1.4875  0.2044 -0.8446
49901SOL    HW261683   4.656   8.347   0.627 -0.7411 -0.5132  0.7877
49902SOL     OW61684  12.244   7.049   6.836 -0.1796  0.3415  0.4396
49902SOL    HW161685  12.187   7.096   6.897 -0.4340  0.8542 -0.1687
49902SOL    HW261686  12.230   6.957   6.856 -1.6295  0.4284 -0.0130
49903SOL     OW61687  11.665  11.593   6.406 -0.4935 -0.3392 -0.1285
49903SOL    HW161688  11.680  11.688   6.410 -1.1065 -0.2653  2.2029
49903SOL    HW261689  11.752  11.555   6.395  0.0461  0.4637  1.1213
49904SOL     OW61690   6.045   5.122   9.756  0.2446 -0.2163 -0.6116
49904SOL    HW161691   5.996   5.040   9.750  1.0726 -1.0186  2.0770
49904SOL    HW261692   6.029   5.165   9.672 -1.4503 -2.4114 -1.5424
49905SOL     OW61693  11.921  11.459  13.589  0.3915  0.4601 -0.2412
49905SOL    HW161694  11.967  11.398  13.648 -1.5808 -1.0187 -0.1205
49905SOL    HW261695  11.923  11.416  13.504 -2.4884 -0.7402  0.1857
49906SOL     OW61696  13.659  11.173   4.426  0.5499  0.4968 -0.2934
49906SOL    HW161697  13.592  11.211   4.369  0.2093  0.0798 -0.1742
49906SOL    HW261698  13.741  11.212   4.396  0.4244  0.0032 -1.3185
49907SOL     OW61699   8.385   9.845  13.744  0.6135 -0.9566 -0.2384
49907SOL    HW161700   8.419   9.769  13.792  0.5970 -0.8301 -0.0291
49907SOL    HW261701   8.291   9.832  13.743  0.5767 -0.7328  0.1452
49908SOL     OW61702  13.139  12.986  13.125  0.1617 -0.1267  0.2739
49908SOL    HW161703  13.074  13.033  13.177  1.1988 -0.4073  1.9050
49908SOL    HW261704  13.127  13.018  13.036 -1.2198  0.8997  0.7999
49909SOL     OW61705   2.376   4.291   5.309 -0.3725 -0.2589  0.7395
49909SOL    HW161706   2.348   4.344   5.384 -0.2644  1.4654 -0.3722
49909SOL    HW261707   2.307   4.226   5.298 -1.5116  0.8806  0.9890
49910SOL     OW61708   3.171   7.191   1.605 -0.1540  0.4483 -0.4020
49910SOL    HW161709   3.126   7.270   1.636 -0.8106  0.3684 -1.1203
49910SOL    HW261710   3.255   7.223   1.572  0.8161  0.4741  1.8732
49911SOL     OW61711   3.388  12.836  10.742 -0.1547 -0.9332  0.1526
49911SOL    HW161712   3.364  12.806  10.830 -0.5881  2.1319  1.2053
49911SOL    HW261713   3.305  12.849  10.697 -0.1771  1.2223  0.7172
49912SOL     OW61714   1.721  10.132   8.720 -0.0351 -0.1670 -0.0788
49912SOL    HW161715   1.784  10.182   8.668  0.9360 -0.5736  0.6604
49912SOL    HW261716   1.636  10.170   8.698  0.6275  1.5994  0.2272
49913SOL     OW61717  13.021   3.353   0.067  0.0088 -0.0996  0.3706
49913SOL    HW161718  12.997   3.269   0.106 -1.1610  0.5768  1.1700
49913SOL    HW261719  12.994   3.345  -0.025  0.4300 -0.7927  0.3005
49914SOL     OW61720  10.702   0.654   1.874 -0.6536  0.2532 -0.0723
49914SOL    HW161721  10.634   0.598   1.913 -1.4855  1.4947  0.3112
49914SOL    HW261722  10.706   0.626   1.782 -0.7936 -0.6691  0.1925
49915SOL     OW61723   1.620   2.942   4.207  0.0412 -0.5683  0.4261
49915SOL    HW161724   1.537   2.903   4.180 -0.3087  0.2046  0.3831
49915SOL    HW261725   1.647   2.995   4.133 -1.0130  1.7193  1.5761
49916SOL     OW61726   0.048  11.273  11.937 -0.4081 -0.5505 -0.0254
49916SOL    HW161727   0.030  11.354  11.890  2.0682  0.6182  0.8408
49916SOL    HW261728  -0.032  11.220  11.927 -1.6241  1.4611 -1.6562
49917SOL     OW61729   9.396   4.830  12.981  0.2075  0.1917 -0.4210
49917SOL    HW161730   9.367   4.828  13.072 -1.1121  0.1203 -0.8218
49917SOL    HW261731   9.442   4.747  12.969 -2.0102 -1.1161 -0.5304
49918SOL     OW61732   0.261   2.936  11.670 -0.0231 -0.0045 -0.5190
49918SOL    HW161733   0.166   2.946  11.670 -0.0764 -0.4947 -0.1734
49918SOL    HW261734   0.277   2.864  11.609  0.1261  0.0489 -0.5437
49919SOL     OW61735   8.812   1.499   5.663 -0.1433  0.1413  0.1658
49919SOL    HW161736   8.859   1.496   5.747 -0.0602  1.3024  0.1738
49919SOL    HW261737   8.859   1.565   5.612 -1.1683  0.6142 -0.1893
49920SOL     OW61738   0.788   6.408   9.089 -0.4203 -0.6356  0.1230
49920SOL    HW161739   0.745   6.481   9.045 -1.4967 -0.2343  1.7521
49920SOL    HW261740   0.880   6.416   9.065 -0.8306  0.0541 -1.3305
49921SOL     OW61741   7.868   1.366  11.218  0.0742 -0.6363 -0.3287
49921SOL    HW161742   7.789   1.404  11.257 -0.1007  0.9556 -2.1267
49921SOL    HW261743   7.847   1.273  11.208 -0.6361 -0.7053  1.3721
49922SOL     OW61744   6.696   4.415  10.978 -1.4740 -0.3313  0.1195
49922SOL    HW161745   6.757   4.343  10.991 -0.6515  0.5430  1.3441
49922SOL    HW261746   6.697   4.432  10.883  0.7191  0.0941  0.1829
49923SOL     OW61747   3.436  10.831   0.149  0.1294  0.1658  0.5088
49923SOL    HW161748   3.497  10.847   0.077  0.0325 -0.5048  0.2626
49923SOL    HW261749   3.401  10.917   0.172  0.7072  0.4751  0.2409
49924SOL     OW61750   7.483   6.918   2.763  0.2682 -0.6276 -0.7127
49924SOL    HW161751   7.517   6.982   2.825 -0.2989 -0.7653 -0.2525
49924SOL    HW261752   7.529   6.938   2.681  0.1955  0.2864 -0.5455
49925SOL     OW61753   7.127   2.419   6.093 -0.4268  0.0249 -0.1573
49925SOL    HW161754   7.211   2.379   6.073  0.2313  1.0401  0.5086
49925SOL    HW261755   7.062   2.357   6.059  0.5317 -1.8387  1.2458
49926SOL     OW61756   1.563  11.623   8.038  0.5091  0.4103  0.0186
49926SOL    HW161757   1.547  11.700   7.983  1.6019  0.9139  0.3742
49926SOL    HW261758   1.574  11.551   7.977 -2.2061  0.1636 -0.2748
49927SOL     OW61759   6.815   7.971  13.018  0.0497 -0.7315 -0.4040
49927SOL    HW161760   6.735   7.929  12.989 -0.8806  1.5822 -1.4663
49927SOL    HW261761   6.876   7.959  12.945  0.5721 -2.1671  0.2483
49928SOL     OW61762   7.296   5.287   1.312 -0.0003  0.6735 -0.3556
49928SOL    HW161763   7.320   5.277   1.220 -1.5704  1.2029 -0.8477
49928SOL    HW261764   7.211   5.331   1.310 -0.5945 -0.3037  1.3098
49929SOL     OW61765  13.922   3.086   1.407  0.0523  0.2381  0.1670
49929SOL    HW161766  13.827   3.088   1.400 -0.0949 -0.0457  1.6922
49929SOL    HW261767  13.941   3.134   1.488  1.1831  0.0282  0.0458
49930SOL     OW61768  10.599  12.834   7.942 -0.4076 -0.2384 -0.1418
49930SOL    HW161769  10.689  12.864   7.951 -0.0292 -0.6143 -2.2127
49930SOL    HW261770  10.547  12.898   7.991  0.8896  0.5171  0.2812
49931SOL     OW61771   5.853   5.084   8.265  0.2522 -0.2531  0.3294
49931SOL    HW161772   5.818   5.110   8.180  0.7131  0.0588  0.2334
49931SOL    HW261773   5.779   5.041   8.309  0.2608 -1.2606 -0.5798
49932SOL     OW61774   0.465  11.753   9.649 -0.5734 -0.0791 -0.4554
49932SOL    HW161775   0.401  11.742   9.579  0.3675 -0.0997 -1.3278
49932SOL    HW261776   0.547  11.773   9.604  0.1546 -0.5560  0.6232
49933SOL     OW61777   6.992   0.344   6.435 -0.1104 -0.2347 -0.3890
49933SOL    HW161778   7.047   0.363   6.511  2.4048  1.2094 -2.4192
49933SOL    HW261779   7.043   0.282   6.383 -0.9879  0.0826 -1.6851
49934SOL     OW61780   3.090   8.087   1.630  0.6846 -0.0859 -0.0840
49934SOL    HW161781   3.086   8.038   1.712  2.0282 -1.7235 -0.9131
49934SOL    HW261782   3.151   8.158   1.647 -2.0892  2.1119  1.4549
49935SOL     OW61783   8.916   7.894   9.305  0.7230  0.6974  0.4216
49935SOL    HW161784   8.891   7.982   9.276  0.4932  0.4304 -0.1948
49935SOL    HW261785   8.837   7.861   9.349  0.5733  0.5227  0.0188
49936SOL     OW61786   5.028   7.083   2.579  0.2003 -0.7336  0.0032
49936SOL    HW161787   5.060   6.997   2.604  0.1252 -0.1552  2.4325
49936SOL    HW261788   4.935   7.081   2.601 -0.3570 -0.7554 -2.1647
49937SOL     OW61789   6.437   4.627   3.810 -0.2952  0.5624  0.1867
49937SOL    HW161790   6.376   4.649   3.880 -0.6784 -0.9757  0.3903
49937SOL    HW261791   6.382   4.614   3.733 -0.0713  0.5667  0.0258
49938SOL     OW61792   5.598   4.605   8.702 -0.2737  0.2826  0.1693
49938SOL    HW161793   5.553   4.616   8.786 -0.1829  1.1683  0.1125
49938SOL    HW261794   5.528   4.601   8.637 -0.3597  4.5818 -0.2743
49939SOL     OW61795   0.222   6.214   3.785  0.5976  0.2034  0.3989
49939SOL    HW161796   0.237   6.308   3.794 -0.8323  0.5765 -0.7278
49939SOL    HW261797   0.308   6.174   3.802  0.8476  1.5504  2.6348
49940SOL     OW61798   0.896  10.070  10.714 -0.1770 -0.1439 -0.0782
49940SOL    HW161799   0.969  10.099  10.659 -0.2340 -0.9475 -0.5786
49940SOL    HW261800   0.835  10.144  10.713  0.4484  0.3842  0.0306
49941SOL     OW61801   5.709   9.281   6.514  0.4046  0.1327  0.6584
49941SOL    HW161802   5.704   9.191   6.544 -0.5414  0.6271  2.0367
49941SOL    HW261803   5.724   9.274   6.420  1.1991 -1.4502  0.8793
49942SOL     OW61804   2.695   6.428   5.496 -0.5734 -0.0682 -0.1909
49942SOL    HW161805   2.626   6.494   5.489 -0.8559 -0.4261 -0.9561
49942SOL    HW261806   2.688   6.378   5.415  0.1657 -0.5243  0.0168
49943SOL     OW61807   3.447   4.872   9.397  0.4595  0.1280 -0.1509
49943SOL    HW161808   3.485   4.808   9.457  0.0003 -0.2367 -0.2436
49943SOL    HW261809   3.446   4.953   9.447  1.5870  0.2117 -0.2303
49944SOL     OW61810   4.112   3.782  12.558  0.2026  0.3876 -0.3541
49944SOL    HW161811   4.020   3.807  12.545 -0.8123 -1.8573  1.7719
49944SOL    HW261812   4.123   3.703  12.505  0.4442 -0.2093  0.5667
49945SOL     OW61813   4.680   1.695   6.641  0.0785 -0.0811  0.3301
49945SOL    HW161814   4.722   1.649   6.714 -1.5484 -0.1061  1.2898
49945SOL    HW261815   4.601   1.733   6.679  0.6626  2.4023 -0.7458
49946SOL     OW61816  13.087   6.518  12.328 -0.0737 -0.2107 -0.0419
49946SOL    HW161817  13.047   6.436  12.359  1.3555 -0.5145  1.1227
49946SOL    HW261818  13.157   6.535  12.390  1.5059  0.3740 -1.8990
49947SOL     OW61819   2.137   9.910   6.800  0.6276  0.0655  0.4078
49947SOL    HW161820   2.176   9.823   6.808 -0.7835 -0.5549  0.8275
49947SOL    HW261821   2.143   9.947   6.888  0.5234  0.0866  0.4057
49948SOL     OW61822   3.429   3.178   6.421  0.0948 -0.7237 -0.3805
49948SOL    HW161823   3.347   3.179   6.371 -1.1783 -2.6155  1.5014
49948SOL    HW261824   3.487   3.120   6.370 -0.4798 -1.0429 -0.6835
49949SOL     OW61825  10.499   3.056   7.131  0.1665  0.6872  0.0068
49949SOL    HW161826  10.409   3.066   7.098  0.3392  1.1449 -0.3357
49949SOL    HW261827  10.554   3.088   7.060  0.5790  0.9742  0.4527
49950SOL     OW61828   7.504  10.087   7.461 -0.0476  0.4779 -0.3829
49950SOL    HW161829   7.462  10.102   7.377  0.6514  0.0771 -0.8128
49950SOL    HW261830   7.468  10.004   7.492 -1.1769  1.1840  0.2791
49951SOL     OW61831   1.438   1.760  12.099 -0.3373  0.1773  0.2596
49951SOL    HW161832   1.360   1.734  12.050 -0.4384  1.1800 -0.1353
49951SOL    HW261833   1.405   1.782  12.187 -0.2285 -1.1270  0.6450
49952SOL     OW61834   6.639   8.304   3.537  0.1230  0.6500 -0.2030
49952SOL    HW161835   6.545   8.320   3.544 -0.2754 -0.9186 -1.3008
49952SOL    HW261836   6.652   8.273   3.447  1.5989  0.3211  0.0830
49953SOL     OW61837  13.809   4.697   0.981 -0.6180  0.7657 -0.4492
49953SOL    HW161838  13.798   4.747   1.062  0.0190 -1.0007  0.8082
49953SOL    HW261839  13.734   4.721   0.927 -1.6738  1.1780  1.1404
49954SOL     OW61840   0.339   5.840  12.134  0.0013 -0.2359  0.2337
49954SOL    HW161841   0.311   5.753  12.162 -0.4030 -0.2013 -0.0587
49954SOL    HW261842   0.266   5.874  12.084  1.3154 -0.9399 -2.3199
49955SOL     OW61843   4.776   7.331  10.543  0.4406 -0.3590  0.1575
49955SOL    HW161844   4.805   7.421  10.530  0.0125 -0.3523 -0.8595
49955SOL    HW261845   4.856   7.280  10.547  0.6624 -0.0473 -0.2270
49956SOL     OW61846   2.018   1.619   7.578  0.1281  0.1173 -0.2059
49956SOL    HW161847   2.107   1.584   7.568  1.0289  2.0835  0.4208
49956SOL    HW261848   2.018   1.658   7.665 -1.4710 -0.0965 -0.0914
49957SOL     OW61849   6.901   3.802   0.153  0.2431  0.5193  0.9847
49957SOL    HW161850   6.920   3.784   0.245 -0.0576  1.1897  1.1807
49957SOL    HW261851   6.983   3.783   0.108  0.1634 -0.6089  1.2700
49958SOL     OW61852  13.451   5.254  11.402  0.0525  0.1937  0.0922
49958SOL    HW161853  13.464   5.224  11.312 -0.4807 -0.7767  0.3139
49958SOL    HW261854  13.398   5.333  11.394  0.9383  0.7353 -0.4936
49959SOL     OW61855  13.977   6.291   2.415  0.0945 -0.4725  0.1694
49959SOL    HW161856  14.006   6.204   2.389 -1.2095 -0.2142 -2.4209
49959SOL    HW261857  14.020   6.351   2.355 -1.3114  0.3870 -0.0311
49960SOL     OW61858   2.485  11.813   4.113  0.4289  0.2856  0.4253
49960SOL    HW161859   2.402  11.800   4.159 -1.2861  1.0709 -2.2434
49960SOL    HW261860   2.506  11.905   4.127 -0.8613  0.9170 -1.3806
49961SOL     OW61861  12.640   2.616  10.898  0.1473 -0.4200  0.0282
49961SOL    HW161862  12.627   2.526  10.928  1.2973  0.1131  2.4056
49961SOL    HW261863  12.552   2.655  10.901 -0.3332 -1.3931 -0.8828
49962SOL     OW61864  12.000   7.331   2.495 -0.1839 -0.1657  0.4917
49962SOL    HW161865  12.068   7.375   2.545  0.5394 -1.4476  0.6883
49962SOL    HW261866  12.040   7.248   2.468 -0.9635 -0.0364 -1.1911
49963SOL     OW61867   0.202  11.190  10.052 -0.0899  0.3284  0.3732
49963SOL    HW161868   0.109  11.208  10.036  0.0591  1.6585  0.8983
49963SOL    HW261869   0.212  11.195  10.147  0.2222 -1.4861  0.4875
49964SOL     OW61870  12.087  13.569   5.748 -0.0904 -0.0162  0.2325
49964SOL    HW161871  12.112  13.644   5.803 -0.3512  1.0549 -1.0427
49964SOL    HW261872  12.133  13.495   5.786  1.6225  1.1185  0.4867
49965SOL     OW61873   1.254   1.738   4.275  0.5571 -0.1098 -0.0535
49965SOL    HW161874   1.300   1.731   4.192  1.4240  1.3185  0.2579
49965SOL    HW261875   1.261   1.831   4.298 -0.8396 -0.2219  0.9562
49966SOL     OW61876   6.039  13.934   4.878  0.0601  0.2542 -0.0581
49966SOL    HW161877   6.016  14.020   4.841  1.1526  1.3830  1.7483
49966SOL    HW261878   5.957  13.884   4.874 -0.9094  1.7704 -0.0846
49967SOL     OW61879   9.336  12.913   2.005  1.1801  0.1905  0.2944
49967SOL    HW161880   9.405  12.874   2.059  1.7462  0.0795 -0.4807
49967SOL    HW261881   9.341  13.007   2.023  0.7594  0.0583  1.1097
49968SOL     OW61882   5.516   5.921   1.116  0.0562 -0.1582  0.4153
49968SOL    HW161883   5.442   5.943   1.173  0.2629 -0.1310  0.6722
49968SOL    HW261884   5.590   5.912   1.176  0.5983  1.3296  0.0060
49969SOL     OW61885   3.807  13.911   2.652 -0.0599 -0.8177 -0.1348
49969SOL    HW161886   3.725  13.927   2.699  0.4393 -0.6807  0.7232
49969SOL    HW261887   3.780  13.894   2.562 -0.7667  4.0388 -1.0989
49970SOL     OW61888  13.326   9.228   5.709  0.2729  0.9990 -0.6154
49970SOL    HW161889  13.274   9.306   5.725  1.1317  1.4406  0.1493
49970SOL    HW261890  13.300   9.167   5.777  0.3483  1.0130 -0.5736
49971SOL     OW61891  11.198   8.246   0.884 -0.5072  0.6975 -0.1071
49971SOL    HW161892  11.142   8.323   0.873  1.0099  1.6706 -1.4298
49971SOL    HW261893  11.269   8.259   0.822 -0.7199 -2.2935 -1.1480
49972SOL     OW61894   2.739   8.906   3.324  0.3348  0.2948  0.1678
49972SOL    HW161895   2.769   8.996   3.335  2.2048 -0.3218  0.4546
49972SOL    HW261896   2.774   8.859   3.400 -2.0455 -0.3770  0.9510
49973SOL     OW61897   5.261   4.682  10.221 -0.5053 -0.6393 -0.2915
49973SOL    HW161898   5.288   4.628  10.295 -3.9864 -2.0221  0.1357
49973SOL    HW261899   5.239   4.767  10.260  1.5974  0.0393 -0.4516
49974SOL     OW61900  12.205   3.461   6.844 -0.5706 -0.2663 -0.0244
49974SOL    HW161901  12.137   3.522   6.814 -0.9786 -0.7301 -0.0637
49974SOL    HW261902  12.162   3.409   6.912  0.0134  0.0198  0.5679
49975SOL     OW61903   5.090   1.508   6.916  1.2722  0.1913 -0.4429
49975SOL    HW161904   5.127   1.492   6.829  0.3181 -0.5239 -0.7353
49975SOL    HW261905   5.060   1.599   6.913  2.2197  0.5125 -0.4800
49976SOL     OW61906   7.274   8.655   4.996 -0.0530 -0.1102  0.2868
49976SOL    HW161907   7.365   8.644   5.022  0.0232 -0.2074 -0.0179
49976SOL    HW261908   7.279   8.699   4.911 -0.3228  2.4680  1.5068
49977SOL     OW61909   0.208   3.063   9.508  0.3739  0.2907 -0.0566
49977SOL    HW161910   0.279   3.124   9.526  0.1901  0.4962 -0.0161
49977SOL    HW261911   0.241   3.006   9.439  1.8009 -1.7153  2.1167
49978SOL     OW61912   7.665   8.060   1.807 -0.2708  0.0192 -0.4808
49978SOL    HW161913   7.576   8.085   1.782  0.5397  2.3909 -1.3101
49978SOL    HW261914   7.719   8.090   1.734  1.2089 -1.5935 -0.0989
49979SOL     OW61915   1.208  11.040   0.835  0.1370 -0.2001 -0.0591
49979SOL    HW161916   1.171  11.106   0.777  0.7711  0.8235  0.6804
49979SOL    HW261917   1.295  11.021   0.800 -0.1574 -0.8913 -0.4472
49980SOL     OW61918   2.340   5.811  12.252  0.3984  0.9253  0.5433
49980SOL    HW161919   2.407   5.802  12.184 -0.4429 -0.4848 -0.1473
49980SOL    HW261920   2.389   5.832  12.332  1.5899  0.6475 -0.0972
49981SOL     OW61921   6.970  12.518  10.345 -0.4060 -0.4480  0.2449
49981SOL    HW161922   6.983  12.588  10.280  0.4888 -0.1003  0.7797
49981SOL    HW261923   6.933  12.563  10.421 -0.4660 -0.6714  0.3474
49982SOL     OW61924   6.935   3.555   7.257 -0.1105  0.0071  0.2535
49982SOL    HW161925   6.933   3.640   7.213 -3.1983 -0.5016 -0.8181
49982SOL    HW261926   7.012   3.512   7.221  1.8325  2.4414  1.1821
49983SOL     OW61927   6.352  13.137   9.014 -0.1386  0.5961 -0.6194
49983SOL    HW161928   6.341  13.231   9.031  0.5813  0.6006 -0.1314
49983SOL    HW261929   6.317  13.124   8.926 -0.9324  1.1869 -0.3999
49984SOL     OW61930   1.372  13.582  11.346 -0.4800  0.3097  0.3053
49984SOL    HW161931   1.293  13.634  11.328 -0.2787  0.6567  0.4115
49984SOL    HW261932   1.441  13.627  11.298 -0.0889  0.7866  1.2918
49985SOL     OW61933   2.749   6.022   9.335  0.0802  0.4025 -0.4669
49985SOL    HW161934   2.790   6.108   9.329  0.9695  0.0822  0.7688
49985SOL    HW261935   2.674   6.027   9.275 -0.9682  2.6535  0.8966
49986SOL     OW61936   0.988   9.246   2.985  0.4784 -0.1080  0.3835
49986SOL    HW161937   0.910   9.210   2.944  1.3672 -2.0748  0.2929
49986SOL    HW261938   0.977   9.226   3.078  0.5340  0.2581  0.4683
49987SOL     OW61939  11.132   6.806  13.239  0.5690  0.8507  0.0301
49987SOL    HW161940  11.182   6.731  13.273  1.4288  1.0168 -0.8100
49987SOL    HW261941  11.146   6.803  13.144  1.3675  2.5840  0.0538
49988SOL     OW61942  11.572  10.901  12.110  0.0767 -0.7287 -0.9134
49988SOL    HW161943  11.485  10.907  12.070  0.1033  0.7744 -0.8020
49988SOL    HW261944  11.559  10.847  12.188 -0.9754  0.3461 -0.3232
49989SOL     OW61945   9.101  12.876   4.686  0.2111  0.0955  0.2168
49989SOL    HW161946   9.018  12.887   4.640 -0.7886 -0.1249  1.9007
49989SOL    HW261947   9.077  12.865   4.778  2.0970 -0.1881  0.7249
49990SOL     OW61948   3.086   3.648   7.257 -0.5829  0.4906 -0.2653
49990SOL    HW161949   3.073   3.740   7.281  0.1467  0.7298 -0.7721
49990SOL    HW261950   3.169   3.623   7.298  2.2615  1.7167 -4.5636
49991SOL     OW61951   9.566   0.934  10.483  0.4766 -0.4294  0.0373
49991SOL    HW161952   9.472   0.940  10.467  0.3222 -0.9293  0.7115
49991SOL    HW261953   9.606   0.942  10.397 -0.2596 -1.9485 -0.4776
49992SOL     OW61954  12.771   8.714   2.906  0.6618 -0.0439 -0.3355
49992SOL    HW161955  12.749   8.805   2.925  0.8705  0.5945 -2.7794
49992SOL    HW261956  12.701   8.684   2.849  1.5855 -0.7727 -1.1169
49993SOL     OW61957   9.260   4.302  11.046  0.4286  0.0122 -0.1179
49993SOL    HW161958   9.307   4.226  11.081  0.8570  0.3284 -0.0054
49993SOL    HW261959   9.198   4.325  11.115 -0.0689 -0.5524 -0.3640
49994SOL     OW61960   1.320   5.429   6.064 -0.0205  0.0474 -0.1638
49994SOL    HW161961   1.345   5.409   6.155 -0.2939 -0.0593 -0.1123
49994SOL    HW261962   1.257   5.361   6.041 -0.2779  0.3247 -0.2880
49995SOL     OW61963  11.082   9.584   4.870 -0.1587 -0.2077 -0.6169
49995SOL    HW161964  11.051   9.637   4.943  0.6711 -0.0300 -0.3894
49995SOL    HW261965  11.116   9.505   4.910  1.8867  0.6127 -0.6320
49996SOL     OW61966   8.404   9.059   9.345 -0.1105  0.0653 -0.1756
49996SOL    HW161967   8.316   9.042   9.312  0.8598 -2.1804 -1.9021
49996SOL    HW261968   8.424   8.983   9.400  1.8623 -1.2161 -2.4661
49997SOL     OW61969   5.622   4.861   3.695  0.9037 -0.4731  0.3185
49997SOL    HW161970   5.546   4.803   3.693 -1.9039  2.6459  2.5662
49997SOL    HW261971   5.629   4.896   3.606 -2.4596  1.3907  0.6098
49998SOL     OW61972  13.759   3.192   0.463  0.0051  0.6304  0.7903
49998SOL    HW161973  13.842   3.145   0.453  0.9088  2.5184 -1.7244
49998SOL    HW261974  13.706   3.162   0.388 -0.0076  2.3439  0.0827
49999SOL     OW61975  11.394   5.384   6.966  0.1293  0.0116  0.5918
49999SOL    HW161976  11.423   5.294   6.953 -2.3848 -1.0685  1.7415
49999SOL    HW261977  11.453   5.419   7.032  0.9711 -0.8689  0.3291
50000SOL     OW61978   1.926   0.737   6.007  0.1605  0.0664  0.0827
50000SOL    HW161979   1.961   0.770   5.925  1.3704  0.3450  0.6889
50000SOL    HW261980   1.868   0.806   6.039  0.2100  0.2417 -0.2096
50001SOL     OW61981   0.762  10.709   6.393 -0.4127 -0.3964  0.3955
50001SOL    HW161982   0.675  10.686   6.428 -0.1743  0.0964  1.3353
50001SOL    HW261983   0.823  10.664   6.450  0.0349  1.6007  1.5844
50002SOL     OW61984  10.919   3.023   0.230  0.4516  0.8491 -0.4928
50002SOL    HW161985  10.895   3.040   0.139 -1.9603  0.7416  0.0529
50002SOL    HW261986  10.848   3.061   0.281  1.0434 -0.3034  1.2848
50003SOL     OW61987   5.537   3.734  11.808  0.2628 -0.2786 -0.0193
50003SOL    HW161988   5.542   3.730  11.904  0.6682  1.1215  0.0468
50003SOL    HW261989   5.453   3.776  11.791  0.9196  1.0287 -0.1926
50004SOL     OW61990   1.628   6.642   9.016  0.0641  0.0685  0.1608
50004SOL    HW161991   1.685   6.681   8.950  0.2454  1.5378  1.1289
50004SOL    HW261992   1.687   6.589   9.070  0.0636 -0.4274 -0.3186
50005SOL     OW61993   5.050   0.161   0.691  0.2905  0.2116 -0.2038
50005SOL    HW161994   5.083   0.085   0.739 -0.1899  0.1171 -0.0183
50005SOL    HW261995   5.124   0.222   0.690  0.0759  0.5375  1.3489
50006SOL     OW61996  13.680   7.211   9.205 -0.1612 -0.4756 -0.8115
50006SOL    HW161997  13.684   7.242   9.114 -0.4577 -0.5301 -0.8437
50006SOL    HW261998  13.713   7.284   9.257  1.2484 -0.8936 -1.0531
50007SOL     OW61999  11.307  13.758  12.560  0.0568  0.3100  0.2026
50007SOL    HW162000  11.239  13.701  12.525 -0.2703  0.8323 -0.0372
50007SOL    HW262001  11.308  13.740  12.654 -0.4371  0.3127  0.2119
50008SOL     OW62002  10.172   6.565  12.356 -0.9794 -0.4010 -0.8560
50008SOL    HW162003  10.168   6.470  12.355  0.5030 -0.4828 -0.3295
50008SOL    HW262004  10.262   6.586  12.381 -1.9064  1.1216  1.6411
50009SOL     OW62005   1.643   2.972   4.899  0.3235 -0.3963 -0.6590
50009SOL    HW162006   1.653   3.044   4.962 -1.6242 -1.1713  0.6266
50009SOL    HW262007   1.713   2.911   4.921 -0.1035 -0.4805  0.5864
50010SOL     OW62008   5.785   8.088   8.180  0.7267 -0.2929  0.6052
50010SOL    HW162009   5.742   8.093   8.265  0.5827 -1.7499  0.6455
50010SOL    HW262010   5.802   7.994   8.167 -1.4215 -0.4449 -2.0046
50011SOL     OW62011   2.737  12.299   7.861  0.1465 -0.1389  0.1946
50011SOL    HW162012   2.784  12.216   7.857  0.0104 -0.1631 -2.4667
50011SOL    HW262013   2.647  12.277   7.837 -0.4045  0.4799  1.5847
50012SOL     OW62014   7.725  13.702   8.873 -0.3471  0.1386  0.4633
50012SOL    HW162015   7.648  13.684   8.820 -1.0915 -1.8739  2.1237
50012SOL    HW262016   7.790  13.637   8.844 -0.2587 -0.0244  1.0191
50013SOL     OW62017   7.675   3.770   6.572  0.3093 -0.0415  0.1381
50013SOL    HW162018   7.730   3.725   6.508 -0.6584  0.4181 -1.0509
50013SOL    HW262019   7.726   3.767   6.653  2.7257  1.5095 -1.1859
50014SOL     OW62020   3.611   7.105  12.424 -0.2445  0.0008  0.1757
50014SOL    HW162021   3.685   7.044  12.426  0.3394  0.3567 -3.6535
50014SOL    HW262022   3.540   7.058  12.467  0.7954 -2.5061 -0.6697
50015SOL     OW62023   9.520   0.208   5.497 -0.2481  0.6557 -0.7693
50015SOL    HW162024   9.569   0.126   5.493  1.1840  1.4637 -0.3095
50015SOL    HW262025   9.538   0.251   5.414  0.1342  1.1181 -0.4534
50016SOL     OW62026   1.327   3.340   1.582  1.0001 -0.1863 -0.5897
50016SOL    HW162027   1.277   3.393   1.643  0.0150  0.3436 -1.8197
50016SOL    HW262028   1.288   3.358   1.496  2.2496 -1.0047 -1.3683
50017SOL     OW62029  13.678  13.466   1.057 -0.2339  0.2560 -0.0833
50017SOL    HW162030  13.662  13.560   1.054  1.1621  0.5164 -0.2048
50017SOL    HW262031  13.611  13.428   1.000 -0.5935  1.2098 -0.3052
50018SOL     OW62032  12.141   1.963   6.859 -0.0224  0.4724 -0.5315
50018SOL    HW162033  12.209   1.951   6.924 -1.5266 -1.1902  0.8530
50018SOL    HW262034  12.089   1.882   6.862 -1.6234  1.3481 -2.0265
50019SOL     OW62035  11.863   5.617   6.860  0.1637  0.2391  0.1646
50019SOL    HW162036  11.935   5.677   6.838  1.2805 -1.1333 -0.0352
50019SOL    HW262037  11.792   5.675   6.889  0.2735  1.8302 -2.4581
50020SOL     OW62038  12.561   1.594   7.701  0.2714 -1.1200  0.1351
50020SOL    HW162039  12.633   1.572   7.642  2.4585  0.5808  1.9822
50020SOL    HW262040  12.494   1.529   7.682  1.0329 -1.0352 -3.7413
50021SOL     OW62041   9.450  12.941   4.499  0.0786 -0.3138  0.2592
50021SOL    HW162042   9.473  13.008   4.564  0.4164 -0.5322  0.3728
50021SOL    HW262043   9.531  12.928   4.450 -0.1773 -0.1491 -0.2099
50022SOL     OW62044  12.515   1.448   2.089 -0.3254 -0.0434  0.3077
50022SOL    HW162045  12.489   1.374   2.143  0.5664 -1.0364 -0.5845
50022SOL    HW262046  12.447   1.455   2.023 -1.3534  1.0957  1.4303
50023SOL     OW62047   8.338  12.051   5.967  0.1389  0.3621 -0.6468
50023SOL    HW162048   8.341  11.991   5.892  1.5798 -0.9689  0.4272
50023SOL    HW262049   8.389  12.127   5.939  0.0665  0.1917 -1.2640
50024SOL     OW62050  14.017  10.108   2.831  0.3941  0.1012  0.1154
50024SOL    HW162051  13.941  10.164   2.813 -0.8428 -1.9019 -1.2082
50024SOL    HW262052  14.032  10.119   2.926 -2.0569 -0.0524  0.5832
50025SOL     OW62053  10.396   2.403   5.218 -0.3857  0.0534  0.4270
50025SOL    HW162054  10.440   2.485   5.196 -0.2306 -0.0364  0.4014
50025SOL    HW262055  10.378   2.410   5.311 -0.7381  0.2900  0.3457
50026SOL     OW62056   0.930  13.590   2.255 -0.0187 -0.2451  0.8402
50026SOL    HW162057   0.858  13.584   2.193  1.2090  1.6328 -0.8857
50026SOL    HW262058   0.893  13.639   2.329 -1.4923 -2.4988  1.7128
50027SOL     OW62059   2.602   6.060   3.609 -0.7114 -0.2854  0.3269
50027SOL    HW162060   2.669   6.114   3.652 -0.8650  0.3467 -0.2174
50027SOL    HW262061   2.527   6.065   3.669 -0.5094 -0.4239  0.5956
50028SOL     OW62062   1.212   7.517   5.809 -0.2624 -0.0803  0.0756
50028SOL    HW162063   1.212   7.584   5.877 -0.6054 -0.3543  0.3505
50028SOL    HW262064   1.120   7.493   5.799 -0.1104 -0.7219  0.1923
50029SOL     OW62065   5.404   0.699   5.174  0.0054 -0.5017 -0.4630
50029SOL    HW162066   5.441   0.780   5.139  0.0098 -0.4334 -0.3047
50029SOL    HW262067   5.311   0.719   5.185  0.1011 -0.3266  0.1000
50030SOL     OW62068  13.664   0.233   3.035  0.1405  0.1099 -0.3244
50030SOL    HW162069  13.580   0.206   3.073  0.5258 -1.7974 -0.7043
50030SOL    HW262070  13.640   0.289   2.961 -0.7442  0.5143  0.2539
50031SOL     OW62071   7.627   7.213  13.142 -0.1019  0.2075 -0.0874
50031SOL    HW162072   7.661   7.214  13.231  1.0323 -1.1204 -0.4717
50031SOL    HW262073   7.621   7.120  13.120  2.6631  0.4527 -2.4794
50032SOL     OW62074   9.839   3.866  13.964  0.2856  0.9725 -0.3561
50032SOL    HW162075   9.746   3.844  13.959  0.3256  0.8464 -0.5678
50032SOL    HW262076   9.883   3.781  13.968  0.4893  0.9702 -1.9790
50033SOL     OW62077   0.862   6.687   0.867 -0.2683 -0.2091  0.0749
50033SOL    HW162078   0.832   6.632   0.795  2.1467  0.6863 -1.7446
50033SOL    HW262079   0.895   6.626   0.933 -1.5679 -1.0151 -0.0076
50034SOL     OW62080  13.348  12.985  12.615 -0.4003  0.6479  0.6162
50034SOL    HW162081  13.302  13.069  12.606 -2.0714 -0.1373  1.3030
50034SOL    HW262082  13.285  12.920  12.583  1.1053 -0.3283 -0.5346
50035SOL     OW62083   0.244  10.953  12.886 -0.4472  0.4566  0.3832
50035SOL    HW162084   0.163  10.993  12.855  0.0031 -0.0728 -1.6501
50035SOL    HW262085   0.251  10.980  12.978 -3.0101  0.3439  0.6812
50036SOL     OW62086  12.778   9.944   7.445 -0.2126 -0.4803  0.0571
50036SOL    HW162087  12.794   9.909   7.533  1.2824  0.4555  0.1892
50036SOL    HW262088  12.854   9.916   7.394  0.3649  1.3716 -0.1729
50037SOL     OW62089   1.551   1.062   4.732  0.0489 -0.5310 -0.1541
50037SOL    HW162090   1.486   1.008   4.778 -0.0548 -0.9405 -0.7663
50037SOL    HW262091   1.503   1.142   4.709  0.5459  0.3882  1.8566
50038SOL     OW62092   0.430   3.846  10.468 -0.6461  0.1464  0.5075
50038SOL    HW162093   0.356   3.853  10.408 -0.3497  0.5053  0.1696
50038SOL    HW262094   0.445   3.936  10.497  0.2641  0.2296 -0.1844
50039SOL     OW62095  13.678   1.216   3.379  0.1285 -0.3115 -0.0490
50039SOL    HW162096  13.720   1.238   3.463 -0.3747  0.3027  0.0473
50039SOL    HW262097  13.732   1.259   3.313 -0.4643  0.6880  0.0918
50040SOL     OW62098   0.658  11.387   5.244  0.2971 -0.0840  0.0188
50040SOL    HW162099   0.729  11.374   5.307 -0.5902 -1.5522  0.7812
50040SOL    HW262100   0.593  11.320   5.267 -1.3362  1.1952 -0.6570
50041SOL     OW62101  12.639   4.764  13.987  0.7006 -0.3117  0.4804
50041SOL    HW162102  12.680   4.749  14.072 -0.7586  0.8531  1.4314
50041SOL    HW262103  12.675   4.847  13.957  0.0346  0.0792  0.7302
50042SOL     OW62104  13.770   7.983   5.004 -0.3660 -0.2527  0.4081
50042SOL    HW162105  13.688   7.943   4.973 -0.2254 -0.2480  0.0283
50042SOL    HW262106  13.792   7.934   5.084 -1.6110  0.8158  1.4596
50043SOL     OW62107   3.440  10.527  13.213  0.0403  0.3227  0.7355
50043SOL    HW162108   3.491  10.578  13.149  0.9117  0.2977  1.3863
50043SOL    HW262109   3.430  10.585  13.288  0.6908 -0.3012  1.3243
50044SOL     OW62110   6.817  13.600   2.292  0.6427  0.5943 -0.2817
50044SOL    HW162111   6.882  13.592   2.363 -1.1026 -1.9620  1.1973
50044SOL    HW262112   6.860  13.561   2.216  1.6947  1.1707 -0.0048
50045SOL     OW62113   3.017   0.645   5.734 -0.4696  0.1846 -0.1556
50045SOL    HW162114   2.936   0.621   5.689  0.0319  0.1838 -1.0639
50045SOL    HW262115   3.047   0.724   5.689 -0.3029  0.5639  0.6054
50046SOL     OW62116   0.646   3.276  11.788  0.2580  0.9445 -0.0919
50046SOL    HW162117   0.719   3.216  11.804  1.4395  2.0684 -1.0928
50046SOL    HW262118   0.568   3.223  11.806  1.2432 -0.9105 -0.9291
50047SOL     OW62119   2.915   9.432   2.765 -0.2035  0.0222  0.2436
50047SOL    HW162120   2.977   9.373   2.723  0.5863  1.2866 -0.4622
50047SOL    HW262121   2.829   9.407   2.730 -0.0894 -1.5903  1.0497
50048SOL     OW62122   9.670   1.586   7.423 -0.1346 -0.2011 -0.4899
50048SOL    HW162123   9.727   1.532   7.479 -1.2251  0.0721  0.9380
50048SOL    HW262124   9.649   1.530   7.349  0.2160 -1.0888  0.0630
50049SOL     OW62125   0.229   5.137   6.340  0.8363  0.0494 -0.1251
50049SOL    HW162126   0.185   5.052   6.346  0.1720  0.4011  0.0545
50049SOL    HW262127   0.307   5.120   6.286  1.7184 -1.0633  1.4481
50050SOL     OW62128   7.565   8.801   5.720  0.1609 -0.3332  0.7439
50050SOL    HW162129   7.508   8.749   5.776 -2.0768  0.0171 -1.0406
50050SOL    HW262130   7.632   8.836   5.778 -1.2739 -1.0405  2.9140
50051SOL     OW62131  12.051   0.397  11.982  0.6961  0.7408  0.0747
50051SOL    HW162132  11.977   0.399  11.922 -0.1051  0.0716  0.9989
50051SOL    HW262133  12.096   0.314  11.963 -1.7686 -1.4746  2.8365
50052SOL     OW62134  11.659   4.586   6.175 -0.0757  0.1237  0.2764
50052SOL    HW162135  11.588   4.602   6.113  0.6129 -0.6910 -0.7621
50052SOL    HW262136  11.739   4.599   6.124  0.5403  0.8855  1.3828
50053SOL     OW62137   0.839  10.738   0.139 -0.3498  0.0808  0.1971
50053SOL    HW162138   0.798  10.662   0.099 -0.5918 -0.5945  1.6839
50053SOL    HW262139   0.891  10.777   0.068 -0.6286 -1.1601 -0.7189
50054SOL     OW62140   9.425   8.756   2.733 -0.7676 -0.1913  0.9610
50054SOL    HW162141   9.381   8.782   2.652 -0.5969 -1.6215  0.3864
50054SOL    HW262142   9.382   8.807   2.802 -0.2364  1.8131 -0.1243
50055SOL     OW62143  12.889   8.950   6.879  0.1683 -0.0492  0.2080
50055SOL    HW162144  12.798   8.960   6.852  0.3891 -0.8462 -0.9098
50055SOL    HW262145  12.888   8.963   6.974 -0.8352  1.6637  0.0017
50056SOL     OW62146   6.083   5.864  10.033 -0.0376 -0.3540  0.0704
50056SOL    HW162147   5.992   5.854  10.058  0.1522 -2.1587  0.2176
50056SOL    HW262148   6.128   5.794  10.080  1.1584 -0.5224 -1.2483
50057SOL     OW62149  10.351   6.200   2.921  0.2172 -0.3748  0.4749
50057SOL    HW162150  10.370   6.106   2.926 -0.0186 -0.3570  2.0397
50057SOL    HW262151  10.256   6.205   2.915  0.2852 -0.2502 -0.7671
50058SOL     OW62152  12.734   5.491   3.745  0.1818 -0.6690  0.0451
50058SOL    HW162153  12.791   5.512   3.818 -2.0608 -0.4174  1.8272
50058SOL    HW262154  12.661   5.443   3.784 -2.3765  1.6139 -1.5277
50059SOL     OW62155   0.229  10.530   0.311  0.4503  0.3780  0.1314
50059SOL    HW162156   0.309  10.482   0.289 -1.7042 -2.5630 -2.2189
50059SOL    HW262157   0.200  10.490   0.393  1.2306  1.2967  0.8712
50060SOL     OW62158   2.443   2.449   9.828 -0.2922  0.5700  0.3860
50060SOL    HW162159   2.514   2.413   9.774  0.6349  1.4557  0.9629
50060SOL    HW262160   2.422   2.533   9.787 -0.7608  0.4752  0.4290
50061SOL     OW62161   0.767   7.582   8.915 -0.5861  0.0245  0.3935
50061SOL    HW162162   0.773   7.510   8.852  1.5149 -1.6756  2.3657
50061SOL    HW262163   0.786   7.660   8.863  0.6985 -1.2505 -1.1946
50062SOL     OW62164   5.579  13.236  13.012 -0.1871 -0.3160  0.1690
50062SOL    HW162165   5.489  13.203  13.010  0.0431 -1.0213  0.8875
50062SOL    HW262166   5.571  13.326  13.043 -0.6135 -0.5067  0.6187
50063SOL     OW62167   8.897  11.309   7.858  0.4091 -0.0395  0.3785
50063SOL    HW162168   8.860  11.323   7.945 -0.5164  0.5172 -0.0846
50063SOL    HW262169   8.936  11.222   7.862  0.7937  0.1678  1.4829
50064SOL     OW62170   0.461   5.810   8.797  0.8997 -0.5446 -0.4524
50064SOL    HW162171   0.472   5.892   8.846 -1.2010 -0.9323  0.8248
50064SOL    HW262172   0.373   5.817   8.759  1.2867 -1.5883 -1.6223
50065SOL     OW62173   1.466  12.623  12.091 -0.4217 -0.0918  0.2575
50065SOL    HW162174   1.501  12.574  12.017 -0.2702  1.9454 -1.1011
50065SOL    HW262175   1.527  12.606  12.163  0.4929 -0.6082 -0.6233
50066SOL     OW62176  13.147   6.384  10.614 -0.4244 -0.4443  0.4482
50066SOL    HW162177  13.056   6.377  10.642 -0.9357  2.6135 -0.1118
50066SOL    HW262178  13.160   6.309  10.555 -3.0139 -0.1732 -0.5627
50067SOL     OW62179   3.487   3.357  13.292  0.2105 -0.7548  0.0622
50067SOL    HW162180   3.532   3.370  13.376 -1.3546  1.8596  0.6349
50067SOL    HW262181   3.412   3.301  13.313 -0.0357 -0.3095  0.4196
50068SOL     OW62182   3.884  10.043   0.049  0.1490 -0.5433  0.4712
50068SOL    HW162183   3.861  10.135   0.062 -0.9218 -0.4938 -1.3733
50068SOL    HW262184   3.843   9.997   0.122 -1.0987  0.2375  0.2964
50069SOL     OW62185  11.305   8.195   8.250  0.0054 -0.0477 -0.2434
50069SOL    HW162186  11.383   8.240   8.284  1.1543 -1.9496 -0.2380
50069SOL    HW262187  11.324   8.181   8.157 -0.9363  0.6748 -0.5539
50070SOL     OW62188  12.999   8.337   3.029 -0.4580 -0.1043  0.0479
50070SOL    HW162189  13.008   8.357   3.122 -2.5806 -0.7656  0.4397
50070SOL    HW262190  13.062   8.266   3.014 -0.7453 -0.6233  1.1948
50071SOL     OW62191   9.096   2.867   0.975 -0.4386 -0.3848 -0.2129
50071SOL    HW162192   9.016   2.817   0.961  0.3539 -1.8085  0.1737
50071SOL    HW262193   9.106   2.919   0.895 -0.4145 -2.1094 -1.3851
50072SOL     OW62194   4.231  12.237  10.273  0.2086  0.3501 -0.0147
50072SOL    HW162195   4.217  12.202  10.185  1.1443 -1.6173  0.5428
50072SOL    HW262196   4.179  12.179  10.330  0.8259  0.6279  0.8527
50073SOL     OW62197   3.116  11.484   2.601 -0.8297  0.1482 -0.2672
50073SOL    HW162198   3.133  11.457   2.511 -2.8242 -0.6485 -0.4681
50073SOL    HW262199   3.021  11.481   2.609 -0.7101  0.3803  1.8198
50074SOL     OW62200   8.753   3.661   2.551  0.6228 -0.1359 -0.3738
50074SOL    HW162201   8.843   3.636   2.569  0.2762 -1.6320 -0.5914
50074SOL    HW262202   8.709   3.657   2.636  1.0519  2.0091 -0.0085
50075SOL     OW62203   4.760   6.104  11.864 -0.2410 -0.5486  0.3299
50075SOL    HW162204   4.828   6.147  11.812 -0.7937 -0.1389 -0.0618
50075SOL    HW262205   4.806   6.071  11.941  0.6507 -1.3691 -0.5142
50076SOL     OW62206   8.141   7.866   6.285  0.3918 -0.0439 -0.2256
50076SOL    HW162207   8.232   7.841   6.265  0.1595 -0.4625 -0.7853
50076SOL    HW262208   8.109   7.904   6.203  0.3544  0.9996  0.2528
50077SOL     OW62209   7.014  11.152   7.162  0.1868  0.5448 -0.5544
50077SOL    HW162210   7.018  11.059   7.184 -0.3577  0.5981 -0.1893
50077SOL    HW262211   6.920  11.173   7.168  0.4840  1.5222  1.0970
50078SOL     OW62212  12.808   7.838   3.516  0.0565  0.2004 -0.1982
50078SOL    HW162213  12.755   7.898   3.567 -0.0905 -0.7674  0.8426
50078SOL    HW262214  12.897   7.852   3.547  0.2695  1.0059 -1.1199
50079SOL     OW62215   2.780   3.094  13.620 -0.1998 -0.3040 -0.1221
50079SOL    HW162216   2.847   3.150  13.659 -0.0895  0.3168 -1.1760
50079SOL    HW262217   2.786   3.110  13.526 -1.5146 -0.5988 -0.2788
50080SOL     OW62218   4.044   5.533   8.747 -0.3835  0.0354 -0.3756
50080SOL    HW162219   4.038   5.577   8.663  0.3102 -1.5822 -1.3083
50080SOL    HW262220   4.133   5.549   8.777 -0.3665 -0.0899 -0.3573
50081SOL     OW62221   9.188   1.832   9.064 -0.1469 -0.6820 -0.0394
50081SOL    HW162222   9.154   1.912   9.103 -1.7238 -1.2518 -0.1889
50081SOL    HW262223   9.120   1.804   9.003  1.1623 -1.1891 -1.3195
50082SOL     OW62224   8.565   7.892   5.911 -0.2760 -0.3735  0.2417
50082SOL    HW162225   8.656   7.900   5.942 -0.4146 -0.1232  0.5924
50082SOL    HW262226   8.540   7.981   5.887 -0.0942 -0.6031 -0.8381
50083SOL     OW62227   3.560   9.857   0.928  0.0765 -0.2758 -0.1443
50083SOL    HW162228   3.529   9.771   0.899  1.0236 -0.3421 -1.0055
50083SOL    HW262229   3.559   9.851   1.024 -0.0126 -1.2015 -0.1911
50084SOL     OW62230   0.238   2.173   7.252 -0.0785  0.4887  0.0871
50084SOL    HW162231   0.179   2.168   7.328  0.0278 -1.2335  0.1005
50084SOL    HW262232   0.300   2.242   7.275 -0.9870  1.0871  0.8667
50085SOL     OW62233   8.982   3.132   0.521  0.7694 -0.0889  0.3661
50085SOL    HW162234   9.011   3.050   0.559  0.5412 -0.0291  0.6727
50085SOL    HW262235   9.062   3.171   0.485  0.5996 -1.2690 -1.3838
50086SOL     OW62236   1.525   0.553   7.147  0.0128 -0.3763  0.7349
50086SOL    HW162237   1.571   0.538   7.065 -0.0668 -0.4691  0.7062
50086SOL    HW262238   1.550   0.642   7.173 -1.5749  0.4721 -0.4643
50087SOL     OW62239   3.283  10.045  12.270 -0.4176 -0.4838  0.7863
50087SOL    HW162240   3.270   9.950  12.273 -0.0613 -0.5863 -0.4351
50087SOL    HW262241   3.371  10.056  12.233  0.7671  0.2972  3.5980
50088SOL     OW62242  12.732  12.728   7.994  0.0409 -0.0792 -0.2642
50088SOL    HW162243  12.788  12.805   8.007  0.7386 -0.7164  0.5554
50088SOL    HW262244  12.774  12.659   8.044 -2.2892 -0.1916  1.7191
50089SOL     OW62245  13.880   2.372  13.778  0.1052 -0.3008 -0.0885
50089SOL    HW162246  13.814   2.313  13.815  1.6753 -1.2765  1.3331
50089SOL    HW262247  13.837   2.457  13.775 -0.8390 -0.6250  2.0382
50090SOL     OW62248   0.788   0.777   7.768  0.3635 -0.6034 -0.2144
50090SOL    HW162249   0.755   0.794   7.857 -0.0378 -0.1047 -0.4583
50090SOL    HW262250   0.881   0.760   7.780  0.9394  2.2502  0.0087
50091SOL     OW62251  11.040  13.143  10.674 -0.6297  0.3008 -0.4402
50091SOL    HW162252  11.101  13.077  10.642 -0.0974 -0.0099  1.1498
50091SOL    HW262253  11.087  13.186  10.746 -1.4269  1.6038 -0.6636
50092SOL     OW62254  11.785  12.564   5.133 -0.3634  0.2912  0.4389
50092SOL    HW162255  11.790  12.492   5.071 -1.0679 -0.2260  0.9553
50092SOL    HW262256  11.872  12.604   5.133 -0.4840  0.6094 -1.2235
50093SOL     OW62257  13.250   5.401   3.638  0.2226  0.0593 -0.3146
50093SOL    HW162258  13.240   5.409   3.543 -0.8058  3.4054 -0.0308
50093SOL    HW262259  13.319   5.463   3.660 -0.4368  0.2767  1.2521
50094SOL     OW62260   4.345   8.266   0.174  0.0856 -0.1631 -0.2909
50094SOL    HW162261   4.252   8.256   0.193 -0.4797  1.0583 -2.1400
50094SOL    HW262262   4.389   8.207   0.235 -2.0198 -2.3690 -0.7785
50095SOL     OW62263   9.470   7.704   8.217  0.6919  0.2430  0.0687
50095SOL    HW162264   9.526   7.704   8.139  0.5542 -0.5731 -0.0444
50095SOL    HW262265   9.451   7.796   8.233  1.4522  0.4816 -0.3351
50096SOL     OW62266   5.335   7.010  13.044  0.2608  0.1527 -0.0414
50096SOL    HW162267   5.430   7.012  13.036  0.1036  0.9321 -2.6162
50096SOL    HW262268   5.312   7.091  13.089  0.8552 -0.9991  2.5224
50097SOL     OW62269   9.551  11.575  12.100 -0.1902 -0.3910  0.0605
50097SOL    HW162270   9.634  11.577  12.052 -0.2680  0.4048 -0.0560
50097SOL    HW262271   9.574  11.542  12.187  0.6385  1.7970  0.7284
50098SOL     OW62272   0.740   6.806   1.269 -0.2179  0.6417 -0.7146
50098SOL    HW162273   0.826   6.846   1.280  1.0595 -1.2860 -2.6912
50098SOL    HW262274   0.736   6.786   1.175 -2.2394 -0.5602 -0.4196
50099SOL     OW62275   5.409   8.723  13.520 -0.1420  0.8392 -0.3399
50099SOL    HW162276   5.419   8.789  13.451 -0.5757  1.7818  0.4714
50099SOL    HW262277   5.444   8.643  13.481 -0.9419  1.1889 -1.8870
50100SOL     OW62278   0.603  14.000   6.597  0.5596 -0.5798 -0.1571
50100SOL    HW162279   0.551  13.994   6.517  0.3816 -1.6819  0.0355
50100SOL    HW262280   0.547  14.046   6.659 -0.2404 -1.8304  0.0795
50101SOL     OW62281   6.239  13.740  10.441 -0.3052 -0.6512 -0.9809
50101SOL    HW162282   6.321  13.693  10.455 -0.8942 -1.6892 -0.9527
50101SOL    HW262283   6.216  13.774  10.527 -0.3217 -1.0503 -0.8281
50102SOL     OW62284   8.896   3.761   6.265 -0.0551  0.5972 -0.4559
50102SOL    HW162285   8.903   3.761   6.360 -0.4528 -0.3932 -0.4118
50102SOL    HW262286   8.944   3.683   6.237 -0.9354  0.2088 -0.9623
50103SOL     OW62287  13.349   4.137  12.309  0.3036 -0.1883  0.1642
50103SOL    HW162288  13.391   4.077  12.248  0.2657 -1.9762  1.8108
50103SOL    HW262289  13.413   4.207  12.321  1.2440 -0.9676 -0.1919
50104SOL     OW62290  11.957   0.372   5.641 -0.2180 -0.8220  0.1033
50104SOL    HW162291  11.945   0.466   5.631 -0.8000 -0.6721  1.9167
50104SOL    HW262292  11.970   0.340   5.551  0.1088  0.9785 -0.5321
50105SOL     OW62293   8.470   2.475   5.080 -0.1416  0.6346 -0.1386
50105SOL    HW162294   8.416   2.504   5.154 -0.1491  1.0423 -0.3044
50105SOL    HW262295   8.414   2.414   5.032 -0.5601  1.2754 -0.4728
50106SOL     OW62296   6.675   0.868  11.712 -0.2319 -0.2236  0.1830
50106SOL    HW162297   6.730   0.946  11.710  0.4244 -0.6937 -0.8826
50106SOL    HW262298   6.616   0.878  11.638  1.3004 -1.7221 -1.3242
50107SOL     OW62299   3.230   8.463   0.140 -0.5444  0.2354 -0.3887
50107SOL    HW162300   3.185   8.523   0.199 -0.7079 -1.0428  0.8176
50107SOL    HW262301   3.323   8.478   0.157 -0.5417  1.0157 -1.0072
50108SOL     OW62302   7.840  13.280   4.723  0.0410  0.4322  0.1117
50108SOL    HW162303   7.872  13.328   4.799 -1.1147  1.3148  0.0563
50108SOL    HW262304   7.917  13.231   4.692  0.3648 -0.5501  2.2668
50109SOL     OW62305   5.079   1.129   5.971 -0.6686 -0.1949 -0.1111
50109SOL    HW162306   5.111   1.213   6.004  1.4316 -0.9003 -0.1948
50109SOL    HW262307   5.158   1.078   5.954 -1.7310 -1.0928 -3.0358
50110SOL     OW62308  11.910   7.473   6.931  0.3550  0.0071 -0.2599
50110SOL    HW162309  11.852   7.537   6.889  1.1337  0.1565 -1.1473
50110SOL    HW262310  11.989   7.522   6.951  1.6976 -1.0356 -2.6169
50111SOL     OW62311   1.497   2.493   1.261  0.1031 -0.4244 -0.5674
50111SOL    HW162312   1.402   2.500   1.273 -0.0953 -2.4267 -0.6267
50111SOL    HW262313   1.530   2.463   1.345  0.4929 -1.0654 -0.9369
50112SOL     OW62314  10.399   6.636   0.899 -0.0006 -0.2450 -0.2859
50112SOL    HW162315  10.324   6.690   0.875  0.4323  0.8033  0.6272
50112SOL    HW262316  10.373   6.547   0.877 -0.6814  0.3440 -1.9529
50113SOL     OW62317   8.054  12.574   9.834 -0.2989  0.1464  0.4503
50113SOL    HW162318   8.019  12.648   9.785  0.9659  1.6794  1.7879
50113SOL    HW262319   8.071  12.507   9.767 -0.7248  1.3332 -0.8879
50114SOL     OW62320   2.396   0.367  12.458  0.1932 -0.5507 -0.2331
50114SOL    HW162321   2.464   0.304  12.483 -0.8724 -2.3093 -1.5493
50114SOL    HW262322   2.346   0.381  12.537  1.4581 -0.0015  0.5041
50115SOL     OW62323   3.767   0.233  10.215  0.0247 -0.5899  0.0268
50115SOL    HW162324   3.742   0.166  10.152 -1.1461  0.0919 -0.2586
50115SOL    HW262325   3.688   0.249  10.267  0.2946  0.4946  0.1423
50116SOL     OW62326  12.454   7.084  13.793  0.1199 -0.3042 -0.4572
50116SOL    HW162327  12.535   7.042  13.822  0.4886  1.2261  0.9190
50116SOL    HW262328  12.412   7.112  13.874 -1.0184  0.2987 -1.2324
50117SOL     OW62329  11.139   6.135   6.395  0.0282  0.1488  0.1230
50117SOL    HW162330  11.166   6.083   6.471  0.1866  0.5163  0.3200
50117SOL    HW262331  11.168   6.224   6.415  2.0818 -0.1292 -1.3610
50118SOL     OW62332   9.395  13.176   9.293 -0.0008  0.1524  0.5914
50118SOL    HW162333   9.309  13.133   9.287 -0.6143  1.4714 -0.6422
50118SOL    HW262334   9.388  13.251   9.234  1.1412  1.7883  2.4246
50119SOL     OW62335   1.541   4.304   1.221  0.6122  0.3598 -0.0000
50119SOL    HW162336   1.497   4.348   1.294  1.4301 -0.1320  0.8086
50119SOL    HW262337   1.478   4.308   1.149 -1.2970 -1.3616  1.4333
50120SOL     OW62338   8.224  12.778   7.813  0.2317  0.2923 -0.0983
50120SOL    HW162339   8.297  12.719   7.794 -0.5773 -0.4698 -1.0308
50120SOL    HW262340   8.237  12.806   7.903  0.8117 -1.0842  0.2633
50121SOL     OW62341   6.232   9.048   0.304 -0.2621 -0.0770  0.4955
50121SOL    HW162342   6.183   9.034   0.223 -1.7783 -1.2595  1.5554
50121SOL    HW262343   6.323   9.058   0.275 -0.6651 -1.1190 -1.3109
50122SOL     OW62344   7.635   1.316   9.664  0.0545  0.4794  0.1383
50122SOL    HW162345   7.604   1.302   9.574 -1.1142  1.5893  0.3413
50122SOL    HW262346   7.684   1.236   9.685 -0.0353  0.0117 -1.3217
50123SOL     OW62347  12.782   1.961   0.355  0.4720 -0.4580 -0.3050
50123SOL    HW162348  12.796   1.985   0.263  1.8014 -0.1997 -0.0542
50123SOL    HW262349  12.825   1.877   0.365 -0.2010 -0.7840 -0.0479
50124SOL     OW62350   3.698   3.231   3.596 -0.1104  0.2933 -0.3974
50124SOL    HW162351   3.693   3.273   3.682 -0.2106  0.0233 -0.2717
50124SOL    HW262352   3.650   3.149   3.606  1.8378 -0.8717 -0.0545
50125SOL     OW62353   0.094  10.119   0.385  0.1865 -0.2431 -0.5244
50125SOL    HW162354   0.107  10.206   0.423  0.0599  0.5275 -2.1551
50125SOL    HW262355   0.182  10.088   0.365  0.1811  0.0515 -1.0423
50126SOL     OW62356   8.399  10.111   2.466 -0.1543 -0.7668 -0.0577
50126SOL    HW162357   8.327  10.128   2.527  1.6311 -0.1970  2.0523
50126SOL    HW262358   8.440  10.197   2.453  1.2898 -1.3526  0.3858
50127SOL     OW62359  12.611   0.983   9.185 -0.5681 -0.1313  0.1326
50127SOL    HW162360  12.582   1.074   9.176 -1.5588 -0.4737 -0.3224
50127SOL    HW262361  12.567   0.938   9.113 -0.4324 -1.0516  0.6197
50128SOL     OW62362  10.690   3.964   2.611  0.0122  0.3087 -0.1048
50128SOL    HW162363  10.741   4.023   2.666  1.4047 -0.3742 -0.6017
50128SOL    HW262364  10.604   4.005   2.603  0.9484  2.2871 -0.4738
50129SOL     OW62365  13.795   8.564   4.134  0.1336 -0.4229  0.3289
50129SOL    HW162366  13.710   8.547   4.093 -0.3119 -2.1242  1.8577
50129SOL    HW262367  13.815   8.654   4.109 -0.1196 -1.2525 -3.4850
50130SOL     OW62368   8.672   1.835   1.096 -0.0622  0.1424 -0.2719
50130SOL    HW162369   8.687   1.773   1.024 -2.0660 -0.5513 -0.1474
50130SOL    HW262370   8.725   1.911   1.073  0.4215 -0.5985 -1.7731
50131SOL     OW62371   4.149   3.924   5.615 -0.3457 -0.6994  0.2654
50131SOL    HW162372   4.202   3.852   5.648  1.5420 -0.3371 -1.8077
50131SOL    HW262373   4.114   3.893   5.532 -0.4484  0.3475 -0.1037
50132SOL     OW62374   9.262  13.957   0.535 -0.1907 -0.6427  0.0211
50132SOL    HW162375   9.355  13.934   0.541  0.8230  3.0850  0.7589
50132SOL    HW262376   9.222  13.907   0.607  1.6367 -0.6993  1.0827
50133SOL     OW62377   6.245   8.175  13.295  0.3583  0.6940  0.1791
50133SOL    HW162378   6.222   8.209  13.381  1.3318  1.1486  0.2709
50133SOL    HW262379   6.179   8.108  13.277  0.0711  0.6875  1.2181
50134SOL     OW62380   4.604   0.455   8.851  1.0223  0.1749 -0.7473
50134SOL    HW162381   4.654   0.487   8.926  0.5280  1.0495 -0.7769
50134SOL    HW262382   4.592   0.533   8.796  0.9060 -0.3396 -1.4661
50135SOL     OW62383   6.413   1.984  11.173 -0.0362 -0.4580  0.2613
50135SOL    HW162384   6.346   1.980  11.241  1.0553 -0.6611  1.3492
50135SOL    HW262385   6.378   1.928  11.103 -0.5860 -1.3163  1.1920
50136SOL     OW62386   8.097   1.165   2.463 -0.3128 -0.0902 -0.4968
50136SOL    HW162387   8.069   1.093   2.520 -1.6627  1.3898  0.7956
50136SOL    HW262388   8.192   1.171   2.477 -0.4046 -0.7042  0.4818
50137SOL     OW62389   6.767  10.005  12.468 -0.1106  0.4976 -0.5495
50137SOL    HW162390   6.691  10.023  12.413  0.6613 -1.8509 -2.6264
50137SOL    HW262391   6.836  10.062  12.434 -0.4132  1.2178  0.0288
50138SOL     OW62392   4.145   3.410   5.035 -0.1512 -0.8832 -0.3805
50138SOL    HW162393   4.137   3.457   4.952 -1.5961 -2.4997 -1.2405
50138SOL    HW262394   4.119   3.320   5.013  1.5217 -1.8655  1.3766
50139SOL     OW62395  11.530   0.611  10.327 -0.9052 -0.6088  0.5272
50139SOL    HW162396  11.623   0.632  10.337 -0.7371 -0.9353 -0.2351
50139SOL    HW262397  11.485   0.668  10.389 -0.4178  1.5316 -0.9779
50140SOL     OW62398   5.262   0.543  13.411  0.6269 -0.0504  0.1072
50140SOL    HW162399   5.312   0.521  13.490 -0.3452 -2.7982  0.0533
50140SOL    HW262400   5.260   0.462  13.361  0.5404  1.4218 -2.4234
50141SOL     OW62401  12.019   6.939   1.493  0.3517 -0.5673 -0.1044
50141SOL    HW162402  12.001   6.846   1.503  0.0063 -0.3650  1.4331
50141SOL    HW262403  11.996   6.977   1.578  2.1795  0.6411 -0.0888
50142SOL     OW62404  13.798   9.410  12.622  0.1190  0.3318  0.9560
50142SOL    HW162405  13.749   9.476  12.575  1.0374  0.8790  0.7456
50142SOL    HW262406  13.802   9.442  12.712 -0.2699  0.0729  1.0688
50143SOL     OW62407  11.132   5.529   2.613  0.0621 -0.5957  0.2616
50143SOL    HW162408  11.045   5.557   2.642  0.0348 -0.6788  0.2614
50143SOL    HW262409  11.115   5.473   2.537  0.2084  0.8030 -0.8295
50144SOL     OW62410   4.321   1.390   7.498  0.3869  1.0328  0.5198
50144SOL    HW162411   4.381   1.452   7.456 -3.4886  3.5027 -2.0725
50144SOL    HW262412   4.273   1.443   7.562 -2.8536  0.9011 -1.5686
50145SOL     OW62413  11.187  10.021   3.774  0.1169 -0.3048 -0.4404
50145SOL    HW162414  11.126  10.091   3.753  0.6226  0.4086  0.4060
50145SOL    HW262415  11.162   9.993   3.862  1.5722  0.6447  0.3089
50146SOL     OW62416   0.120   1.326  11.574 -0.5163 -0.3698 -0.2475
50146SOL    HW162417   0.134   1.370  11.658  1.1264 -0.3336 -0.5026
50146SOL    HW262418   0.202   1.281  11.556 -0.0511  1.2401 -2.7783
50147SOL     OW62419   9.545   6.210   4.281 -0.6387  0.1233 -0.4928
50147SOL    HW162420   9.523   6.278   4.218  0.7193  0.5292 -0.5460
50147SOL    HW262421   9.484   6.139   4.261  0.7733 -0.4308 -3.3899
50148SOL     OW62422   6.277   3.492   0.910 -0.0568 -0.1498  0.1483
50148SOL    HW162423   6.196   3.495   0.961  0.2690 -0.7775  0.7183
50148SOL    HW262424   6.347   3.501   0.975  0.3679 -1.1898 -0.1415
50149SOL     OW62425   1.269   4.571   8.679  0.2514  0.0632  0.0837
50149SOL    HW162426   1.267   4.515   8.602  1.4173  0.1921 -0.0611
50149SOL    HW262427   1.253   4.512   8.752  1.0795 -0.4087 -0.1036
50150SOL     OW62428  13.435  12.517  13.826  0.2359 -0.3446 -0.1389
50150SOL    HW162429  13.394  12.433  13.846  0.4070 -0.3662  0.1247
50150SOL    HW262430  13.369  12.582  13.851 -0.0651 -0.4098 -0.7488
50151SOL     OW62431  10.396   8.621   6.081  0.4158  0.0411  0.4097
50151SOL    HW162432  10.487   8.637   6.106  0.6413 -0.6020  0.0139
50151SOL    HW262433  10.394   8.637   5.987 -0.0740  0.8760  0.5527
50152SOL     OW62434   3.952   4.968   3.800 -0.4861 -0.6092 -0.0105
50152SOL    HW162435   3.891   4.926   3.861 -0.5461  2.5058  2.2995
50152SOL    HW262436   4.024   4.999   3.854 -0.7172  2.6542 -1.3111
50153SOL     OW62437  13.153  12.020   6.322  0.0186 -0.2354  0.2552
50153SOL    HW162438  13.221  12.084   6.301 -1.7924  1.4329 -0.8144
50153SOL    HW262439  13.107  12.058   6.397 -0.0497 -1.1174  0.6669
50154SOL     OW62440   5.118   9.134   1.038 -0.2613 -0.3657  0.4000
50154SOL    HW162441   5.023   9.122   1.047 -0.2014 -0.4012  0.9872
50154SOL    HW262442   5.135   9.218   1.081 -0.1781  0.1681 -0.6450
50155SOL     OW62443   7.105   5.558   3.984  0.1525 -0.1984 -0.0483
50155SOL    HW162444   7.075   5.490   3.923 -0.2662  1.2363 -1.5097
50155SOL    HW262445   7.196   5.534   4.004 -0.3072 -1.7436  0.3144
50156SOL     OW62446   1.316   9.082   4.467 -0.1908 -0.0082 -0.3987
50156SOL    HW162447   1.330   9.034   4.386 -0.0481  0.4917 -0.6759
50156SOL    HW262448   1.237   9.134   4.451 -0.1291  0.1366 -0.2341
50157SOL     OW62449   1.185   3.744  13.255  0.1731 -0.5213  0.3585
50157SOL    HW162450   1.243   3.689  13.308  0.1894 -1.0507 -0.1890
50157SOL    HW262451   1.169   3.692  13.177 -0.7790 -0.2348  0.3584
50158SOL     OW62452  13.606   8.990  12.931 -0.4056 -0.3273 -0.2097
50158SOL    HW162453  13.641   9.011  13.018 -1.1423  0.6584 -0.1194
50158SOL    HW262454  13.560   8.907  12.943 -2.1632  0.7265  0.8753
50159SOL     OW62455  10.454   3.580   8.668  0.0677  1.3305 -0.1789
50159SOL    HW162456  10.548   3.570   8.678 -0.3072 -0.9409  2.0991
50159SOL    HW262457  10.422   3.606   8.754 -1.4478  1.6015 -0.7809
50160SOL     OW62458  10.585   5.683   7.880 -0.4706  0.3052 -0.3085
50160SOL    HW162459  10.640   5.717   7.809 -0.7804 -0.0525 -0.7290
50160SOL    HW262460  10.640   5.689   7.958  0.8694 -1.7124 -1.0196
50161SOL     OW62461   6.855   3.840  13.890 -0.0905 -0.0139  0.5754
50161SOL    HW162462   6.874   3.920  13.842 -0.8741 -0.4577 -0.5303
50161SOL    HW262463   6.941   3.805  13.913  0.2992  0.4785 -0.0757
50162SOL     OW62464  12.913   2.503  12.106  0.5812  0.3323 -0.9325
50162SOL    HW162465  12.853   2.474  12.176 -0.0314 -0.8044 -1.8793
50162SOL    HW262466  12.855   2.537  12.038  1.0030 -0.4993 -1.7379
50163SOL     OW62467   3.897  12.687   9.065 -0.2881  0.6269  0.0088
50163SOL    HW162468   3.916  12.677   8.971  1.9422  0.6544  0.4103
50163SOL    HW262469   3.817  12.637   9.078 -1.2449  1.4517 -2.0832
50164SOL     OW62470   6.469   4.498   4.195  0.7482 -0.0694 -0.5084
50164SOL    HW162471   6.512   4.430   4.246 -0.0672 -2.5513 -2.8655
50164SOL    HW262472   6.377   4.494   4.222  1.0217  1.7188  0.8970
50165SOL     OW62473   7.544  12.799   1.206  0.1184 -0.6214  0.1007
50165SOL    HW162474   7.568  12.826   1.117  0.3594  0.1610  0.4012
50165SOL    HW262475   7.597  12.721   1.222  1.3663  0.2204  0.1984
50166SOL     OW62476   5.698   7.557   5.135 -0.2419  0.1239  0.0718
50166SOL    HW162477   5.641   7.598   5.070 -1.2023 -1.1197  0.1010
50166SOL    HW262478   5.786   7.564   5.097 -1.0028 -3.1226 -2.9112
50167SOL     OW62479   2.020  10.409  10.135 -0.1032  0.5518 -0.3857
50167SOL    HW162480   2.036  10.321  10.100  2.3020 -0.1067  2.0329
50167SOL    HW262481   1.948  10.397  10.198  0.2821  0.2653  0.0071
50168SOL     OW62482  12.420   3.132   5.174  1.0085  0.2093  0.3091
50168SOL    HW162483  12.357   3.120   5.103 -0.5954  1.7657  1.3628
50168SOL    HW262484  12.466   3.213   5.152  0.6096  0.6164  0.9325
50169SOL     OW62485  12.667  12.468  11.728 -0.0044 -0.6951 -0.0337
50169SOL    HW162486  12.725  12.395  11.749  2.4897  1.1471 -0.0904
50169SOL    HW262487  12.674  12.478  11.633 -0.4141 -0.4442 -0.0407
50170SOL     OW62488   8.919   8.058  13.708  0.7986 -0.5838  0.5116
50170SOL    HW162489   8.866   8.110  13.769  2.4578  2.0136 -0.1248
50170SOL    HW262490   8.855   8.019  13.649 -0.5228  1.9286  0.1463
50171SOL     OW62491   4.965   7.526  10.085  0.3117  0.7560 -0.0858
50171SOL    HW162492   4.873   7.519  10.060  0.6044  1.4462 -1.4565
50171SOL    HW262493   4.965   7.585  10.160 -0.6798 -2.0865  2.3249
50172SOL     OW62494   7.417   5.784  10.540  0.2794 -0.9576 -0.2971
50172SOL    HW162495   7.368   5.811  10.618  0.1266 -2.0609  0.0021
50172SOL    HW262496   7.505   5.765  10.574  0.2339 -1.3614 -0.4102
50173SOL     OW62497   1.574   7.649   3.680 -0.4194  0.1536 -0.1171
50173SOL    HW162498   1.576   7.576   3.618  0.2743 -0.6599  0.8250
50173SOL    HW262499   1.662   7.687   3.675  0.4986 -1.4315  2.0311
50174SOL     OW62500   1.601   7.941   3.005  0.1903 -0.1749 -0.0976
50174SOL    HW162501   1.571   8.009   3.066  0.5461  0.4181 -0.5764
50174SOL    HW262502   1.674   7.981   2.958  1.7750 -1.6000  1.0508
50175SOL     OW62503  13.755   0.448   0.115  0.2665  0.0407 -0.3998
50175SOL    HW162504  13.673   0.491   0.138 -0.1463  0.0200 -1.7559
50175SOL    HW262505  13.775   0.480   0.028  0.8052 -1.2649 -0.7748
50176SOL     OW62506   0.827   8.989   3.384  0.8028  0.2051 -0.1003
50176SOL    HW162507   0.768   8.977   3.458  0.2210 -2.3640 -0.8523
50176SOL    HW262508   0.914   8.992   3.423  0.3695  1.5015  0.8316
50177SOL     OW62509  12.623   9.161  10.395  0.6197 -0.0658 -0.1015
50177SOL    HW162510  12.656   9.223  10.330  1.9989 -0.6950 -0.0369
50177SOL    HW262511  12.648   9.199  10.479  1.6523 -0.7683 -0.0662
50178SOL     OW62512   4.991  13.183  10.590  0.0335  0.6313  0.6810
50178SOL    HW162513   5.043  13.255  10.553  1.6036 -0.5532  0.4462
50178SOL    HW262514   4.901  13.215  10.589  0.3898  1.7460 -1.5063
50179SOL     OW62515   2.449   8.588   1.989  0.2560 -0.1486 -0.3951
50179SOL    HW162516   2.356   8.579   1.968  0.1106 -0.2351  0.2423
50179SOL    HW262517   2.459   8.538   2.071  0.3045  2.0458  1.0204
50180SOL     OW62518   2.497   4.148  13.426 -0.2083 -0.0617  0.2742
50180SOL    HW162519   2.583   4.179  13.455  0.2446 -0.6901 -0.3782
50180SOL    HW262520   2.486   4.186  13.339 -1.0653  0.8742  0.7663
50181SOL     OW62521   4.679   8.226   9.991 -0.0092  0.2122 -0.0695
50181SOL    HW162522   4.773   8.242   9.990 -0.1250  1.4903  2.1317
50181SOL    HW262523   4.653   8.224   9.899  1.9890  0.9348 -0.6867
50182SOL     OW62524   9.736  10.621  13.145  0.3322  0.0880  0.0199
50182SOL    HW162525   9.682  10.544  13.127  1.1612 -0.6469  0.6705
50182SOL    HW262526   9.792  10.629  13.068  2.8501 -2.1966  1.4595
50183SOL     OW62527   2.294   6.219   6.676 -0.0835 -0.6300  0.1126
50183SOL    HW162528   2.318   6.244   6.586 -0.0345 -1.1721 -0.0255
50183SOL    HW262529   2.210   6.262   6.691  0.0749 -0.2496 -0.0655
50184SOL     OW62530   2.700   6.265  12.007 -0.2493  0.2260  0.2120
50184SOL    HW162531   2.632   6.228  12.064  0.3364  0.0790  0.8323
50184SOL    HW262532   2.750   6.189  11.977  0.2282  0.4067  0.5370
50185SOL     OW62533   3.451   2.000   6.410 -0.0384  0.2545  0.0432
50185SOL    HW162534   3.540   1.965   6.407  0.0572  0.4576  0.5340
50185SOL    HW262535   3.443   2.051   6.329 -0.2232 -0.9928 -0.7588
50186SOL     OW62536  11.164  11.194  11.387  0.6976 -0.4346  0.0462
50186SOL    HW162537  11.220  11.255  11.338 -0.1354  0.5543  0.2922
50186SOL    HW262538  11.082  11.242  11.400 -0.2501 -1.8716 -0.3668
50187SOL     OW62539   0.236   4.597   0.325  0.0009  0.2384  0.0194
50187SOL    HW162540   0.306   4.544   0.363 -1.2766 -0.3493  1.7038
50187SOL    HW262541   0.226   4.670   0.386 -0.7776  0.3638 -0.2513
50188SOL     OW62542   0.592  10.050   0.697 -0.2519 -0.4588  0.3824
50188SOL    HW162543   0.657   9.988   0.664 -2.3744 -2.3113 -0.5931
50188SOL    HW262544   0.591  10.036   0.792  0.5602 -0.5805  0.3780
50189SOL     OW62545   9.762   2.419   5.872 -0.0486  0.1451  0.3988
50189SOL    HW162546   9.709   2.446   5.948 -1.7359 -0.0239 -0.6623
50189SOL    HW262547   9.762   2.323   5.877 -1.3748  0.0697 -0.5591
50190SOL     OW62548   0.775  13.324   0.824 -0.1019 -0.8506 -0.1766
50190SOL    HW162549   0.801  13.253   0.765 -0.8149  0.1149 -1.7027
50190SOL    HW262550   0.681  13.314   0.833 -0.0972 -0.5495  0.2420
50191SOL     OW62551   7.206   2.812   2.665  0.1254 -0.2230 -0.7341
50191SOL    HW162552   7.168   2.812   2.753 -0.2688 -1.4100 -0.8744
50191SOL    HW262553   7.229   2.720   2.649  2.1665  0.2909 -1.0542
50192SOL     OW62554  12.859   4.139   3.878  0.1284  0.3628 -0.0649
50192SOL    HW162555  12.859   4.150   3.973  1.1006 -0.8625  0.1043
50192SOL    HW262556  12.917   4.065   3.862 -1.4114 -0.6397 -1.4798
50193SOL     OW62557   4.061   8.068  10.822 -0.0063  0.0210  0.5667
50193SOL    HW162558   4.007   8.029  10.753  1.3305 -0.7686 -0.0718
50193SOL    HW262559   4.150   8.038  10.803  0.9044  2.3337  0.8016
50194SOL     OW62560  13.813   0.236   9.651  0.3248 -0.0984 -0.1479
50194SOL    HW162561  13.833   0.328   9.636  3.4047 -0.8246 -1.1598
50194SOL    HW262562  13.777   0.205   9.568  2.9817 -0.6243 -1.1804
50195SOL     OW62563   9.034   1.538  10.468  0.0974  0.1318 -0.1333
50195SOL    HW162564   9.014   1.625  10.433  0.7133 -0.3006 -1.6311
50195SOL    HW262565   8.957   1.516  10.521  0.4721  2.0937  1.3457
50196SOL     OW62566  13.085   2.956  13.041 -0.6907  0.0507  0.0987
50196SOL    HW162567  13.087   2.881  13.100  2.3298 -0.0847 -0.0232
50196SOL    HW262568  13.177   2.978  13.028 -1.4203  3.8286  0.1909
50197SOL     OW62569   3.410   5.754  12.422  0.0884  0.5869  0.5245
50197SOL    HW162570   3.348   5.702  12.371 -2.0460  1.5726  1.9271
50197SOL    HW262571   3.496   5.733  12.386 -1.0047 -1.2643 -1.1794
50198SOL     OW62572   3.471   6.248   3.814 -0.6570 -0.0666  0.3286
50198SOL    HW162573   3.423   6.166   3.799  2.8683 -2.3276  0.0793
50198SOL    HW262574   3.499   6.242   3.905  1.5982 -0.4025 -0.3254
50199SOL     OW62575   7.312   0.826   6.596  0.1371  0.2613 -0.4670
50199SOL    HW162576   7.287   0.830   6.503 -0.9286 -0.1503 -0.2148
50199SOL    HW262577   7.296   0.735   6.620 -0.0636  0.4845  0.2468
50200SOL     OW62578   8.858   6.259   0.024  0.0728  0.0160  0.0560
50200SOL    HW162579   8.778   6.212   0.003 -0.7093  0.6336  1.5147
50200SOL    HW262580   8.881   6.305  -0.057 -0.7738 -0.5263 -0.5103
50201SOL     OW62581  13.021   8.683  11.912 -0.6243  0.3942  0.4032
50201SOL    HW162582  13.038   8.776  11.898  0.4767 -0.0589 -1.7267
50201SOL    HW262583  12.930   8.672  11.885 -0.2718  0.6028 -0.9440
50202SOL     OW62584  10.784   4.432   0.497  0.3829  0.6643 -0.2023
50202SOL    HW162585  10.879   4.444   0.502  0.8076 -2.1375  0.1348
50202SOL    HW262586  10.759   4.405   0.586 -0.5977  0.6721 -0.4674
50203SOL     OW62587   2.209  12.144   8.064  0.1989 -0.1692  0.9178
50203SOL    HW162588   2.130  12.106   8.101 -0.5707 -0.4890 -0.9418
50203SOL    HW262589   2.177  12.218   8.011  1.2414  0.2974  0.9205
50204SOL     OW62590   8.028   3.378   5.058  0.2692  0.6476  0.4057
50204SOL    HW162591   8.112   3.343   5.089  0.2682 -0.7257 -1.0493
50204SOL    HW262592   8.047   3.409   4.970 -1.1081 -1.2803 -0.6312
50205SOL     OW62593   0.056   5.281  13.594 -0.0004 -0.2128  0.1549
50205SOL    HW162594   0.064   5.376  13.588 -1.0427 -0.0789  0.6888
50205SOL    HW262595   0.024   5.265  13.683  1.3638 -1.1595  0.5074
50206SOL     OW62596   2.745   2.880  10.302  0.2063  0.2706  0.5830
50206SOL    HW162597   2.735   2.924  10.217 -0.8878  0.2117  0.6628
50206SOL    HW262598   2.750   2.951  10.365  1.2219  0.3203  0.4711
50207SOL     OW62599  12.714   0.489   4.366  0.5840  1.0373 -0.0697
50207SOL    HW162600  12.679   0.567   4.324 -0.3422  0.1400 -1.0278
50207SOL    HW262601  12.805   0.483   4.335  0.6412  1.6863 -0.0308
50208SOL     OW62602   2.674   7.070   3.449 -0.3422  0.2642 -0.2274
50208SOL    HW162603   2.635   7.111   3.372 -0.3466 -0.6155 -0.7058
50208SOL    HW262604   2.736   7.135   3.482 -0.0365  0.4871 -1.2169
50209SOL     OW62605   3.264   6.297   5.209  0.4642 -0.0007 -0.0060
50209SOL    HW162606   3.257   6.387   5.176  0.6110 -0.3808 -1.1234
50209SOL    HW262607   3.333   6.301   5.275 -0.9059  1.0903  1.4310
50210SOL     OW62608   1.861   5.481   9.514 -0.4688 -0.0314 -0.0072
50210SOL    HW162609   1.803   5.542   9.468 -0.2431 -1.3012 -2.1405
50210SOL    HW262610   1.945   5.526   9.517 -0.3830 -0.0722 -1.2742
50211SOL     OW62611   3.771   0.163   2.544 -0.1770 -0.3417  0.7538
50211SOL    HW162612   3.762   0.105   2.620  0.3105 -0.4698  0.7198
50211SOL    HW262613   3.812   0.108   2.477  2.2848  0.5763  1.3967
50212SOL     OW62614   5.737   8.902   9.573  0.1305  0.5453 -0.1379
50212SOL    HW162615   5.773   8.817   9.598  1.6654  0.9780 -0.7553
50212SOL    HW262616   5.704   8.939   9.656  2.5618  0.7654  0.8191
50213SOL     OW62617  10.120  10.848   9.325 -0.1038  0.1398 -0.5644
50213SOL    HW162618  10.125  10.803   9.240  0.2293 -0.0041 -0.4681
50213SOL    HW262619  10.209  10.843   9.360  0.6604  3.2266 -1.7327
50214SOL     OW62620  13.589  12.203   6.718 -0.3015  0.9782 -0.2629
50214SOL    HW162621  13.556  12.162   6.798  1.8654 -2.3900 -0.8868
50214SOL    HW262622  13.661  12.258   6.747  1.5501 -1.4783  0.1522
50215SOL     OW62623   4.989  10.658   4.479  0.1199  0.1065  0.2426
50215SOL    HW162624   4.910  10.652   4.426 -0.5806 -1.5370  1.3834
50215SOL    HW262625   4.964  10.708   4.556  0.8531  1.5599 -0.4085
50216SOL     OW62626   9.578   3.394  11.992  0.4186 -0.0489 -0.9205
50216SOL    HW162627   9.554   3.380  11.900  1.4292  0.0369 -1.2141
50216SOL    HW262628   9.537   3.322  12.039  2.0335 -1.6269 -1.8131
50217SOL     OW62629   5.109   4.742  11.045 -0.6943  0.7047  0.0839
50217SOL    HW162630   5.204   4.743  11.034 -0.5074 -1.4717  1.0231
50217SOL    HW262631   5.095   4.776  11.134 -0.5755 -0.9079  0.7623
50218SOL     OW62632   1.430  10.454  12.294 -0.1373  0.1823  0.0246
50218SOL    HW162633   1.344  10.448  12.251 -0.5089  0.4504  0.7172
50218SOL    HW262634   1.410  10.473  12.385  0.6839  1.8414 -0.0967
50219SOL     OW62635  13.038   5.437   0.520  0.4584  0.0341 -0.6058
50219SOL    HW162636  13.041   5.376   0.593 -1.3538 -0.0795 -0.5825
50219SOL    HW262637  13.101   5.402   0.456  3.0428  0.8227  1.3373
50220SOL     OW62638  11.565  12.578  10.829 -0.2842  0.1908 -0.0910
50220SOL    HW162639  11.592  12.551  10.917 -1.3999  1.7216  0.7638
50220SOL    HW262640  11.617  12.523  10.770  0.6366 -0.7268  1.5114
50221SOL     OW62641   7.527  11.308  10.301  0.0856 -0.6630 -0.1371
50221SOL    HW162642   7.519  11.240  10.368 -0.1083  0.7158  1.3137
50221SOL    HW262643   7.576  11.378  10.345 -3.2494  1.8615 -0.1184
50222SOL     OW62644   0.952   7.555   4.738 -0.1684  0.2433  0.2969
50222SOL    HW162645   0.950   7.651   4.739 -2.8817  0.2927 -0.8250
50222SOL    HW262646   1.019   7.534   4.673  0.2215  1.3818  0.2985
50223SOL     OW62647  12.780   6.097   4.291  0.1794 -0.0558 -0.1252
50223SOL    HW162648  12.837   6.164   4.329 -0.4694  0.5586 -0.1976
50223SOL    HW262649  12.807   6.016   4.332  1.4322  0.1345 -0.5179
50224SOL     OW62650   1.696  10.510   6.447  0.1648 -0.5115  0.2303
50224SOL    HW162651   1.620  10.464   6.482  0.3828 -1.2822 -0.2735
50224SOL    HW262652   1.677  10.603   6.461 -0.8933 -0.6899  0.0547
50225SOL     OW62653  12.308   9.832  11.862  0.4635 -0.1667 -0.2020
50225SOL    HW162654  12.364   9.757  11.842  0.8123 -0.0349  0.2551
50225SOL    HW262655  12.285   9.869  11.777 -1.4658 -2.0458 -0.6146
50226SOL     OW62656  11.378   6.973   2.143 -0.9613 -0.0267  0.4201
50226SOL    HW162657  11.396   7.053   2.191 -0.3680 -0.1053  0.3290
50226SOL    HW262658  11.442   6.972   2.072 -2.0368  0.2697 -0.6048
50227SOL     OW62659   4.081   0.257   8.277 -0.5739 -0.0612 -0.0021
50227SOL    HW162660   4.144   0.293   8.339  1.6593 -1.2391 -1.4491
50227SOL    HW262661   4.091   0.311   8.199 -0.6283 -0.8626 -0.5761
50228SOL     OW62662   6.337  11.441   6.166 -0.3304  0.1230 -0.7921
50228SOL    HW162663   6.304  11.531   6.169 -0.2600  0.1356  1.5649
50228SOL    HW262664   6.264  11.390   6.130 -0.1882  1.1372 -2.6476
50229SOL     OW62665  11.940  11.896   1.293  0.2771  0.3027 -0.0879
50229SOL    HW162666  11.983  11.967   1.340  1.8588 -0.5202 -0.2327
50229SOL    HW262667  11.995  11.881   1.217 -0.2610 -0.8009 -0.2759
50230SOL     OW62668   0.515  13.090  11.265 -0.9059 -0.1435  0.4233
50230SOL    HW162669   0.520  12.996  11.280 -0.9646 -0.1781  0.2215
50230SOL    HW262670   0.425  13.114  11.287 -1.2692 -0.3546 -0.7919
50231SOL     OW62671  11.820   4.222   7.226 -0.6103 -0.0930  0.6891
50231SOL    HW162672  11.812   4.316   7.208  2.7599  0.2281  0.2601
50231SOL    HW262673  11.856   4.218   7.314  2.6394 -0.7278 -0.5489
50232SOL     OW62674   6.728   9.195   0.709 -0.7946  0.2568 -0.1953
50232SOL    HW162675   6.731   9.164   0.800 -0.0425 -1.3088 -0.7269
50232SOL    HW262676   6.640   9.231   0.700 -1.0574 -0.0168  1.0128
50233SOL     OW62677  12.907   2.226  11.318 -0.1234 -0.6105  0.0785
50233SOL    HW162678  12.934   2.144  11.359  1.3335  0.7575  2.0369
50233SOL    HW262679  12.873   2.200  11.232 -1.2343 -3.3885  1.2493
50234SOL     OW62680   5.462  10.388   6.849  0.0188  0.1419 -0.3800
50234SOL    HW162681   5.456  10.391   6.944 -0.7272  0.4086 -0.4292
50234SOL    HW262682   5.556  10.382   6.831  0.2360  1.1727  0.3406
50235SOL     OW62683  10.737   4.194   4.895 -0.3185  0.9839  0.5746
50235SOL    HW162684  10.665   4.222   4.838 -0.0482  0.4497 -0.0515
50235SOL    HW262685  10.781   4.276   4.919 -1.6948  1.4109  1.7756
50236SOL     OW62686   2.415  13.600   3.696 -0.7793 -0.2898 -0.2287
50236SOL    HW162687   2.504  13.571   3.679 -0.8427 -0.2121 -0.7081
50236SOL    HW262688   2.412  13.690   3.663 -0.8552 -0.0742  0.3634
50237SOL     OW62689   8.540   6.063   2.098  0.3666  0.1000 -0.2094
50237SOL    HW162690   8.505   6.139   2.051 -0.2673 -1.5414 -2.5583
50237SOL    HW262691   8.617   6.037   2.047  0.7057 -0.7247  0.6926
50238SOL     OW62692   5.454   0.897   8.304  0.0744 -0.9410 -0.1046
50238SOL    HW162693   5.371   0.938   8.330 -1.3196 -2.5717 -1.6938
50238SOL    HW262694   5.508   0.970   8.275 -1.1553  0.0939  0.1130
50239SOL     OW62695  12.005   6.991   4.071 -0.8677 -0.9706 -0.3594
50239SOL    HW162696  12.030   6.928   4.139 -0.0966 -0.4797 -0.1814
50239SOL    HW262697  11.989   6.937   3.994 -0.3645 -1.4013 -0.1712
50240SOL     OW62698   0.513   4.960   6.334 -0.2493 -0.0880  0.0887
50240SOL    HW162699   0.555   4.875   6.323  0.4382 -0.0059  1.7650
50240SOL    HW262700   0.487   4.986   6.245  2.9498 -0.2944 -1.0161
50241SOL     OW62701  10.700   0.940   0.577  0.5020 -0.0450  0.5506
50241SOL    HW162702  10.728   0.977   0.494 -0.4787 -1.3810 -0.4184
50241SOL    HW262703  10.669   1.015   0.628 -0.2893  0.6282 -0.8730
50242SOL     OW62704   6.698   8.226  13.130 -0.0165  0.5361  0.1178
50242SOL    HW162705   6.627   8.216  13.067 -0.7645  2.7730  0.5165
50242SOL    HW262706   6.758   8.155  13.110 -1.6281 -0.5208 -1.2202
50243SOL     OW62707  10.390   1.160   2.439  0.3209  0.1388 -0.2656
50243SOL    HW162708  10.398   1.065   2.432 -1.1849  0.0982 -2.6337
50243SOL    HW262709  10.480   1.193   2.431  0.8560 -1.0450  0.5741
50244SOL     OW62710   6.051  12.983   5.766 -0.8212  0.3395  0.3617
50244SOL    HW162711   5.976  13.017   5.814  0.1619  3.1714  0.1142
50244SOL    HW262712   6.119  12.971   5.832  0.2001  3.2438 -0.0045
50245SOL     OW62713  10.483   4.714  10.130 -0.6371 -0.0837 -0.0487
50245SOL    HW162714  10.524   4.640  10.175 -0.6756  0.5706  1.0914
50245SOL    HW262715  10.517   4.792  10.175 -0.0761  0.6473 -1.6474
50246SOL     OW62716   5.276   6.472  12.776 -0.6242 -0.0779  0.1761
50246SOL    HW162717   5.286   6.447  12.684 -0.5347 -0.6309  0.3319
50246SOL    HW262718   5.330   6.551  12.786 -0.0197 -0.4576 -0.0655
50247SOL     OW62719   1.180   7.881   6.687 -0.3363 -0.2674  0.2666
50247SOL    HW162720   1.162   7.808   6.746  0.6818 -0.6161  0.1655
50247SOL    HW262721   1.171   7.959   6.742  0.3119 -0.5749  0.8300
50248SOL     OW62722   9.952   6.068  11.802  0.1150 -0.0460  0.1777
50248SOL    HW162723   9.954   6.004  11.731  1.4220  0.0320  0.1141
50248SOL    HW262724  10.022   6.130  11.780  0.6536 -0.1063  1.6060
50249SOL     OW62725  10.181  10.051  12.467  0.2241  0.6360  0.4265
50249SOL    HW162726  10.276  10.041  12.471  0.2441  0.6282 -0.0467
50249SOL    HW262727  10.147   9.962  12.461  0.1481  0.5997  1.2372
50250SOL     OW62728   4.550   8.209   6.144  0.2834 -0.1660 -0.4244
50250SOL    HW162729   4.625   8.249   6.188  0.8720 -1.7284  0.0265
50250SOL    HW262730   4.556   8.240   6.054  0.8155  0.5958 -0.1424
50251SOL     OW62731  11.039   2.303  10.832  0.5052 -0.4359 -0.0815
50251SOL    HW162732  11.067   2.367  10.767  0.1733 -0.3030 -0.0947
50251SOL    HW262733  11.051   2.218  10.789 -1.3888 -0.2959 -0.9969
50252SOL     OW62734   1.905  10.219   3.783 -0.1194  0.1447  0.0364
50252SOL    HW162735   1.992  10.189   3.755 -0.5776  0.3046 -1.6799
50252SOL    HW262736   1.851  10.140   3.783  0.1133 -0.0523  1.6343
50253SOL     OW62737   9.111   4.326   6.666  0.6179  0.2445  0.1748
50253SOL    HW162738   9.153   4.317   6.581  4.6725  1.4245  1.8035
50253SOL    HW262739   9.120   4.419   6.687 -0.3705  0.0014  1.8665
50254SOL     OW62740   8.053   5.266   3.110 -0.4718  0.3720 -0.2484
50254SOL    HW162741   8.087   5.248   3.022  1.2652 -0.8963  0.6254
50254SOL    HW262742   8.060   5.182   3.156 -1.5303  0.9639  1.0606
50255SOL     OW62743   1.638  13.566   4.264 -0.3178  0.0734  0.2922
50255SOL    HW162744   1.706  13.603   4.207 -0.7814  0.5744  0.0648
50255SOL    HW262745   1.673  13.480   4.288 -0.6710 -0.7288 -1.8041
50256SOL     OW62746  11.687   6.124   8.486 -0.1520  0.0314 -0.2608
50256SOL    HW162747  11.616   6.124   8.422 -0.9429 -1.0174  0.5785
50256SOL    HW262748  11.765   6.099   8.435 -0.5151  0.4625 -1.0416
50257SOL     OW62749   6.113   0.671  12.162 -0.7899  0.0935 -0.2309
50257SOL    HW162750   6.183   0.621  12.204 -2.6536 -1.8073  0.8051
50257SOL    HW262751   6.111   0.640  12.072  0.7193  1.3898 -0.7610
50258SOL     OW62752   9.203   0.051   1.578 -0.0563  0.7243  0.2412
50258SOL    HW162753   9.261   0.053   1.501 -1.4323 -1.6679 -0.9737
50258SOL    HW262754   9.117   0.075   1.543 -0.2627  2.0292  1.5726
50259SOL     OW62755   5.300  11.441   0.335 -0.3468 -0.0355 -0.1858
50259SOL    HW162756   5.244  11.454   0.412 -1.2201 -0.6821 -0.6882
50259SOL    HW262757   5.251  11.482   0.264  0.1289 -0.0526 -0.5260
50260SOL     OW62758   0.163   4.270   4.434 -0.0628  0.2375  0.1851
50260SOL    HW162759   0.068   4.278   4.422  0.2185  1.4728 -1.7694
50260SOL    HW262760   0.189   4.202   4.372  0.4245  0.5629  0.0267
50261SOL     OW62761   7.153   9.557  10.393 -0.5387 -0.0974  0.0368
50261SOL    HW162762   7.117   9.621  10.454 -1.9087 -1.1813  0.4386
50261SOL    HW262763   7.145   9.598  10.307 -0.6985  0.5695  0.3677
50262SOL     OW62764   5.072  12.725   7.337 -0.2507  0.3553  0.0662
50262SOL    HW162765   5.086  12.816   7.311 -0.7011  0.4461  0.1288
50262SOL    HW262766   5.157  12.695   7.367  0.1227  0.4535 -0.8815
50263SOL     OW62767   2.602   0.224   8.283 -0.0127 -0.2552  0.3292
50263SOL    HW162768   2.622   0.317   8.274 -0.7067 -0.2827 -2.1193
50263SOL    HW262769   2.521   0.222   8.335  0.4201  0.4330  1.0543
50264SOL     OW62770   5.841  13.707   1.091  0.5158 -0.7366 -0.6910
50264SOL    HW162771   5.766  13.763   1.112 -0.7751 -1.2844 -3.3885
50264SOL    HW262772   5.918  13.761   1.112 -0.6189  0.4509  0.6069
50265SOL     OW62773   7.159  10.567  11.738  0.8641 -0.3657 -0.3807
50265SOL    HW162774   7.073  10.534  11.710  0.6638 -0.5699  0.4507
50265SOL    HW262775   7.184  10.510  11.810  1.3219  0.2075 -0.0766
50266SOL     OW62776   6.291   7.201  13.664 -0.1226  0.2117  0.3521
50266SOL    HW162777   6.268   7.260  13.737  2.7307  1.4637  0.3693
50266SOL    HW262778   6.236   7.231  13.591  0.2547  1.9866  0.7581
50267SOL     OW62779   9.204   6.027  14.038  0.8596  0.0170 -0.1485
50267SOL    HW162780   9.180   6.106  14.086  0.7134  0.4735 -0.9418
50267SOL    HW262781   9.123   5.998  13.997  0.8798 -0.6426  0.2685
50268SOL     OW62782  10.984   4.931   1.548 -0.1380  0.2738 -0.0414
50268SOL    HW162783  10.987   5.012   1.599 -3.4675  1.3287 -1.2616
50268SOL    HW262784  10.891   4.918   1.528  0.5714 -2.2911 -2.3919
50269SOL     OW62785  11.952   8.698   3.202 -0.0073  0.3570 -0.2227
50269SOL    HW162786  11.881   8.759   3.221 -0.1052  0.3588 -0.5868
50269SOL    HW262787  11.939   8.625   3.263  1.0268  1.4017  1.3167
50270SOL     OW62788  12.757  10.554   7.971  0.0382  0.5123 -0.4332
50270SOL    HW162789  12.691  10.623   7.981 -2.3751 -1.7716  0.6648
50270SOL    HW262790  12.839  10.601   7.957 -1.6963  3.5389 -1.3404
50271SOL     OW62791   2.081   1.715   9.291 -0.3071 -0.2459 -0.4949
50271SOL    HW162792   2.120   1.802   9.297  0.5873 -0.7453  1.5582
50271SOL    HW262793   2.138   1.668   9.230  1.6693 -0.5663  1.4678
50272SOL     OW62794   4.285   8.551  10.939 -0.5281  0.2841  0.0388
50272SOL    HW162795   4.203   8.600  10.947  1.5554  4.7654 -2.4855
50272SOL    HW262796   4.276   8.502  10.857 -1.1571 -0.4636  0.5389
50273SOL     OW62797   1.690   2.983   6.468  0.0256 -0.1252  0.1835
50273SOL    HW162798   1.668   2.969   6.375  0.1849 -0.9687  0.2685
50273SOL    HW262799   1.662   2.903   6.512  0.4030  0.0725  0.7926
50274SOL     OW62800   0.232   1.405   4.115 -0.7063  0.1009  0.3531
50274SOL    HW162801   0.176   1.327   4.118  0.1169 -0.4858  2.9280
50274SOL    HW262802   0.306   1.380   4.060 -0.0768 -1.2558  1.7489
50275SOL     OW62803   6.701   1.512   2.533  0.2081 -0.1488  0.0108
50275SOL    HW162804   6.676   1.424   2.504 -0.5143 -0.2702  0.9603
50275SOL    HW262805   6.623   1.547   2.576  0.4222  1.0454 -0.5246
50276SOL     OW62806   7.218  13.125   5.686  0.3408  0.2414  0.4290
50276SOL    HW162807   7.304  13.098   5.716 -0.4118  0.1530  2.6371
50276SOL    HW262808   7.204  13.211   5.725 -0.4080  0.4505 -0.2587
50277SOL     OW62809   8.250   8.964   9.751  0.0097  0.0539  0.7303
50277SOL    HW162810   8.226   9.053   9.778 -0.6629  1.5593 -3.8762
50277SOL    HW262811   8.189   8.908   9.798 -2.1787  2.4368  0.9953
50278SOL     OW62812   8.987  13.655  11.363 -0.0039  0.2656  0.3626
50278SOL    HW162813   8.988  13.614  11.277 -1.0093  1.0365 -0.0333
50278SOL    HW262814   8.900  13.693  11.371  0.6161  1.6272  1.0388
50279SOL     OW62815   6.013   5.217   8.573 -0.0234  0.3168  0.4745
50279SOL    HW162816   6.050   5.300   8.543 -0.0840 -0.2951 -1.4557
50279SOL    HW262817   5.943   5.198   8.509 -0.2335 -1.0447  1.0799
50280SOL     OW62818   6.750  10.776  12.661 -0.6507 -0.3575  0.0575
50280SOL    HW162819   6.783  10.738  12.579 -3.0364 -0.7692 -0.7948
50280SOL    HW262820   6.793  10.861  12.667  0.6591 -0.9246 -0.8520
50281SOL     OW62821  12.534  13.278  10.223  0.0032 -0.2913 -0.1276
50281SOL    HW162822  12.463  13.341  10.207  1.4711  1.3164 -0.5865
50281SOL    HW262823  12.542  13.274  10.318 -0.5935 -0.3819 -0.0748
50282SOL     OW62824   9.034   9.777  11.609  0.3822 -0.0255 -0.4683
50282SOL    HW162825   8.996   9.701  11.653  2.0129 -2.6149 -3.1854
50282SOL    HW262826   8.978   9.791  11.533  0.8245  0.7412 -0.6660
50283SOL     OW62827  13.451  11.053   7.191 -0.3690 -0.3106  0.2182
50283SOL    HW162828  13.463  11.134   7.240 -1.1376  0.5216 -0.9413
50283SOL    HW262829  13.477  10.984   7.253 -1.4873  0.6832  1.8621
50284SOL     OW62830   6.121   1.623   5.229  0.0520  0.4847 -0.2422
50284SOL    HW162831   6.110   1.717   5.244 -0.8193  0.1298  1.6851
50284SOL    HW262832   6.032   1.589   5.219  0.1680 -0.4314  1.4186
50285SOL     OW62833   0.161  13.082   6.084 -0.0250 -0.3354  0.1587
50285SOL    HW162834   0.095  13.038   6.031 -1.7648  0.8930  1.1816
50285SOL    HW262835   0.140  13.175   6.077  0.2510 -0.0642  2.2244
50286SOL     OW62836   1.346   0.209  11.670  0.1968 -0.2393 -0.5641
50286SOL    HW162837   1.297   0.291  11.674  1.4938  0.5338  0.4317
50286SOL    HW262838   1.435   0.235  11.645  0.6669 -1.3159 -0.0734
50287SOL     OW62839   8.434   1.533   9.351  0.3661  0.6196  0.2870
50287SOL    HW162840   8.495   1.584   9.297  0.2312 -0.1936 -0.6575
50287SOL    HW262841   8.468   1.444   9.347  0.7398  0.6490  2.1195
50288SOL     OW62842   7.569   8.867   2.255 -0.0147 -0.6886 -0.2074
50288SOL    HW162843   7.549   8.778   2.226 -0.0758  0.3644 -3.8864
50288SOL    HW262844   7.663   8.876   2.240 -0.1991  0.1796 -0.8957
50289SOL     OW62845   1.964   4.596   5.167 -0.0601  0.2534 -0.9073
50289SOL    HW162846   1.915   4.524   5.127 -0.3107  0.2469 -0.5887
50289SOL    HW262847   1.899   4.663   5.184  0.0051  0.1762 -0.3206
50290SOL     OW62848   7.172   2.867   4.365  0.3511 -0.0293  0.3213
50290SOL    HW162849   7.189   2.775   4.348 -0.3179  0.1776 -1.7862
50290SOL    HW262850   7.086   2.868   4.408  0.2079 -0.3686  0.0460
50291SOL     OW62851   4.160  13.917   1.470  0.3553  0.1969 -0.4327
50291SOL    HW162852   4.221  13.986   1.442  1.2482  0.4928  2.0180
50291SOL    HW262853   4.193  13.838   1.427  2.6697  0.3149  0.9327
50292SOL     OW62854   4.782   4.357   6.571  0.1331 -0.0832 -0.0438
50292SOL    HW162855   4.785   4.430   6.509  0.0626 -0.7364 -0.8422
50292SOL    HW262856   4.693   4.324   6.566  0.1563 -0.2072  0.3274
50293SOL     OW62857  11.387  11.825   5.731  0.3757  0.7844  0.0061
50293SOL    HW162858  11.337  11.906   5.738  0.1316  0.5057  2.5095
50293SOL    HW262859  11.462  11.838   5.789  0.5944 -0.6017  0.0705
50294SOL     OW62860   3.759  13.746   7.852 -0.3250  0.3543  0.4795
50294SOL    HW162861   3.721  13.834   7.844 -1.4980 -0.1073  0.7343
50294SOL    HW262862   3.729  13.700   7.773  0.4421  0.2323  0.2540
50295SOL     OW62863  12.476  12.356   8.020  0.1509  0.7037 -0.2910
50295SOL    HW162864  12.385  12.367   7.993  0.4279  1.2312 -1.0346
50295SOL    HW262865  12.470  12.315   8.106 -0.7570 -1.3879 -1.2870
50296SOL     OW62866  13.265   5.087   8.263  0.5647  0.1343 -0.2552
50296SOL    HW162867  13.201   5.050   8.323  2.2914 -1.3717  0.7707
50296SOL    HW262868  13.228   5.073   8.176  0.1113 -2.0425  0.2355
50297SOL     OW62869  12.601   1.724   3.671 -0.7994  0.4931 -0.1591
50297SOL    HW162870  12.657   1.706   3.595  0.5107  1.3900  0.5613
50297SOL    HW262871  12.580   1.637   3.705  0.2079  0.1270 -0.4137
50298SOL     OW62872   0.772   8.620   0.260 -0.0823  0.1764 -0.1395
50298SOL    HW162873   0.855   8.640   0.218 -0.3570  0.2707 -0.6385
50298SOL    HW262874   0.705   8.644   0.196 -0.4661 -1.2587 -0.3051
50299SOL     OW62875  13.429  11.979  11.338  0.1306  0.0101  0.0179
50299SOL    HW162876  13.346  11.951  11.377 -0.9277  0.6804 -1.6486
50299SOL    HW262877  13.406  12.057  11.287  1.5013 -0.6149 -1.6176
50300SOL     OW62878   4.110   2.013   8.443 -0.2496  0.1505  0.1967
50300SOL    HW162879   4.135   1.927   8.477 -1.1057  0.2987  1.2884
50300SOL    HW262880   4.184   2.040   8.389  0.5257 -0.7829  0.7438
50301SOL     OW62881  12.012   6.299   2.690  0.5614 -0.5757  0.1493
50301SOL    HW162882  12.061   6.380   2.699  1.2068 -0.8436 -0.7983
50301SOL    HW262883  11.966   6.289   2.774  1.4921  0.0932  0.7552
50302SOL     OW62884   1.439  10.319   7.778  0.1089 -0.1691  0.0566
50302SOL    HW162885   1.510  10.270   7.820  0.1593  1.7574  2.4553
50302SOL    HW262886   1.440  10.405   7.821 -1.7788  0.9715 -1.9481
50303SOL     OW62887  11.100  10.792  10.643 -0.8396 -0.0537 -0.0759
50303SOL    HW162888  11.126  10.813  10.554 -0.6987  0.4410  0.0822
50303SOL    HW262889  11.004  10.786  10.640 -0.9625  1.5051  0.0613
50304SOL     OW62890  12.967   7.012   2.239 -0.6440  0.2960  0.0716
50304SOL    HW162891  12.982   6.918   2.246  0.0191  0.4818  1.6139
50304SOL    HW262892  12.872   7.021   2.237 -0.7382 -0.5238 -2.9635
50305SOL     OW62893   3.329   8.504   5.266  0.7533 -0.4722 -0.1464
50305SOL    HW162894   3.285   8.430   5.307 -0.3131 -0.3641 -1.0357
50305SOL    HW262895   3.262   8.573   5.262  2.0029  0.9602  1.6240
50306SOL     OW62896   4.491   5.154   4.871 -0.6232  0.5931  0.2692
50306SOL    HW162897   4.502   5.111   4.956 -1.4109  0.8602  0.5124
50306SOL    HW262898   4.502   5.247   4.890  0.1708  0.5874 -0.1008
50307SOL     OW62899  10.992   2.270  13.540 -0.3868  0.9164  0.2447
50307SOL    HW162900  11.044   2.323  13.600  1.5837  2.2824 -2.4456
50307SOL    HW262901  10.960   2.332  13.475 -2.1322 -0.5257 -0.3433
50308SOL     OW62902   5.532   3.575  13.620  0.6657 -0.0136  0.0740
50308SOL    HW162903   5.504   3.545  13.534  0.1833 -0.4873  0.3936
50308SOL    HW262904   5.455   3.566  13.676  0.5648  1.6113  0.2416
50309SOL     OW62905  10.585   8.982   4.571  0.2928  0.4851  0.2977
50309SOL    HW162906  10.613   8.942   4.488 -0.3895  0.3849  0.1073
50309SOL    HW262907  10.654   9.044   4.592  0.6667  0.2291 -0.1454
50310SOL     OW62908  13.844   7.815   1.230  0.2011 -0.0458  0.1281
50310SOL    HW162909  13.749   7.811   1.229  0.2068 -0.1375 -0.7308
50310SOL    HW262910  13.873   7.724   1.229  0.2819 -0.0509 -1.8855
50311SOL     OW62911   3.770  12.781   8.118 -0.7769  0.2023  0.0815
50311SOL    HW162912   3.780  12.876   8.116  3.2032 -0.0567  0.7769
50311SOL    HW262913   3.755  12.758   8.026 -2.5915  1.4547 -0.0084
50312SOL     OW62914   0.649  12.624  13.281  0.2849 -0.3210  0.0941
50312SOL    HW162915   0.646  12.553  13.218  0.1723  0.1915 -0.4907
50312SOL    HW262916   0.679  12.700  13.230  1.3776 -0.1789  0.9153
50313SOL     OW62917   0.694   3.947   5.459  0.3444  0.2924  0.2999
50313SOL    HW162918   0.774   3.899   5.481  0.8232  0.0409 -1.7611
50313SOL    HW262919   0.719   4.002   5.385 -1.5790 -0.4221 -0.9570
50314SOL     OW62920   5.247   5.584   5.908  0.0263 -0.3746 -0.0526
50314SOL    HW162921   5.340   5.563   5.921  0.2276  1.3061  1.4111
50314SOL    HW262922   5.204   5.498   5.910  1.2611 -1.0225  1.7392
50315SOL     OW62923  11.142   4.022   2.221 -0.2341 -0.2682  0.2831
50315SOL    HW162924  11.085   4.098   2.237 -1.3290 -0.9859 -0.0942
50315SOL    HW262925  11.098   3.974   2.152  0.4649 -1.2410  0.5015
50316SOL     OW62926   9.915   0.141   6.133 -0.1411  0.2859  0.2214
50316SOL    HW162927   9.855   0.168   6.204 -2.5322  0.0602 -1.5864
50316SOL    HW262928   9.932   0.049   6.150  0.1332  0.4659  1.0149
50317SOL     OW62929   2.451   8.192   7.770  0.2094  0.0177 -0.3255
50317SOL    HW162930   2.441   8.146   7.853  2.2812 -1.1220 -0.6356
50317SOL    HW262931   2.408   8.276   7.784 -0.7163 -0.6940  1.4112
50318SOL     OW62932   9.068   1.791   5.778  0.3334 -0.4142  0.3576
50318SOL    HW162933   9.014   1.759   5.850 -0.9862 -0.2234 -0.5121
50318SOL    HW262934   9.028   1.875   5.754  1.3416 -0.0120  0.0084
50319SOL     OW62935   7.413  10.161   1.142  0.2318  0.2603  0.4852
50319SOL    HW162936   7.490  10.103   1.138 -0.1766 -0.2863  0.4005
50319SOL    HW262937   7.437  10.236   1.088 -0.2541 -1.0865 -1.7767
50320SOL     OW62938  11.925   3.947  12.431 -0.6021  0.0758  0.2017
50320SOL    HW162939  11.995   3.977  12.372 -0.0084  1.2346  1.4290
50320SOL    HW262940  11.844   3.959  12.381 -0.0062 -0.6615 -1.0052
50321SOL     OW62941   9.610   6.163   0.116 -0.1115  0.5728  0.2228
50321SOL    HW162942   9.611   6.101   0.189 -0.5806  0.8334  0.4554
50321SOL    HW262943   9.549   6.231   0.143  0.7299  1.3766  0.1572
50322SOL     OW62944   4.402   7.119   4.871  0.5600  0.0018 -0.3317
50322SOL    HW162945   4.332   7.067   4.909  1.1856 -1.0744 -0.6052
50322SOL    HW262946   4.473   7.114   4.935  0.8300  0.0479 -0.6253
50323SOL     OW62947   2.608  12.656   9.025 -0.0104  0.3994 -0.1845
50323SOL    HW162948   2.593  12.745   9.058 -0.8233  0.5839 -1.0015
50323SOL    HW262949   2.534  12.640   8.965  0.1697 -0.7940 -0.1097
50324SOL     OW62950   7.450   3.589   8.938 -0.6414  0.4516  0.1016
50324SOL    HW162951   7.437   3.678   8.907  2.1919  0.9831  0.1241
50324SOL    HW262952   7.481   3.541   8.861 -0.3805 -0.0343  0.4987
50325SOL     OW62953   6.278  12.757  11.153 -0.1005  0.2302 -0.0752
50325SOL    HW162954   6.232  12.823  11.101  1.4171  1.3415 -0.0609
50325SOL    HW262955   6.259  12.674  11.109 -0.0538  0.9693 -1.5502
50326SOL     OW62956  12.460   5.865   0.625  0.3916  0.2023  0.1427
50326SOL    HW162957  12.417   5.875   0.540 -1.3039 -1.1840  0.7865
50326SOL    HW262958  12.551   5.842   0.603  0.0546  0.1197 -1.2841
50327SOL     OW62959   0.011  10.884   7.320 -0.4188 -0.1436 -0.6191
50327SOL    HW162960   0.069  10.844   7.256 -0.9505 -0.0052 -1.1929
50327SOL    HW262961  -0.074  10.842   7.306 -0.4487 -0.4047  0.2650
50328SOL     OW62962   8.371  10.174  12.808  0.1560 -0.1321  0.4003
50328SOL    HW162963   8.350  10.193  12.899  0.7455  1.9455  0.1584
50328SOL    HW262964   8.467  10.167  12.807  0.3034  1.4478 -0.2620
50329SOL     OW62965  13.264  11.873   5.028  0.3617  0.4027 -0.1552
50329SOL    HW162966  13.261  11.793   4.975 -1.5608 -0.2379  0.7877
50329SOL    HW262967  13.173  11.905   5.028  0.4367  0.8030  2.0300
50330SOL     OW62968   3.114   7.729  13.198  0.2214  0.3327 -0.8597
50330SOL    HW162969   3.206   7.706  13.208  0.1055  0.3426  0.3991
50330SOL    HW262970   3.109   7.820  13.226 -0.4381 -0.1739  0.7746
50331SOL     OW62971   9.513   5.520   6.621  0.1843  0.2958 -0.5031
50331SOL    HW162972   9.457   5.444   6.636 -0.4058  0.8270  0.0696
50331SOL    HW262973   9.477   5.561   6.542 -0.1035  0.5113 -0.2630
50332SOL     OW62974   6.083   9.984   0.836  0.4929  0.7189 -0.4824
50332SOL    HW162975   6.175  10.003   0.856  0.2040  0.8413  0.8223
50332SOL    HW262976   6.054   9.929   0.909 -0.2917  0.1076 -1.2315
50333SOL     OW62977   9.300  13.121  10.919 -0.0082 -0.3101 -0.0799
50333SOL    HW162978   9.325  13.029  10.925  0.1557 -0.1696  2.3645
50333SOL    HW262979   9.382  13.169  10.928 -0.3819  0.0667  1.7403
50334SOL     OW62980   2.523   3.722   1.015 -0.5724  0.5775 -0.1904
50334SOL    HW162981   2.490   3.794   0.960 -3.4530  0.1053  0.7227
50334SOL    HW262982   2.458   3.713   1.085  0.4157 -1.9924  0.5359
50335SOL     OW62983   4.966   4.154  11.203 -0.2101  0.3593  0.5471
50335SOL    HW162984   4.998   4.230  11.252  0.1086  0.8505 -0.4125
50335SOL    HW262985   4.966   4.182  11.112 -2.5525  0.0909  0.3969
50336SOL     OW62986   7.293   6.700   3.898 -0.2523 -0.2209 -0.4436
50336SOL    HW162987   7.246   6.682   3.816 -0.1851  0.9774 -0.7575
50336SOL    HW262988   7.356   6.628   3.905  1.6830  1.0936 -2.9139
50337SOL     OW62989   2.758  10.985   4.527 -0.1303  0.2427  0.7901
50337SOL    HW162990   2.824  11.042   4.487  0.0229  0.0650  0.7843
50337SOL    HW262991   2.786  10.978   4.618 -1.2850  1.8139  1.3018
50338SOL     OW62992   9.223   9.246  10.088  0.3732  0.3252  0.2162
50338SOL    HW162993   9.171   9.166  10.079  0.4306  0.4717 -1.8172
50338SOL    HW262994   9.208   9.274  10.179 -3.1557  0.3939 -0.2457
50339SOL     OW62995   7.433  13.699   1.979  0.3267  0.3322  0.0504
50339SOL    HW162996   7.440  13.681   1.885 -0.9710 -0.8688  0.1546
50339SOL    HW262997   7.524  13.712   2.008  0.8132 -0.1676 -1.1895
50340SOL     OW62998   0.427  11.722  13.129  0.3425 -0.3174 -0.2181
50340SOL    HW162999   0.361  11.661  13.095  0.5238 -0.7577  0.2168
50340SOL    HW263000   0.493  11.666  13.169  0.7854  0.1432 -0.3013
50341SOL     OW63001   4.113   4.590   3.001 -0.2555 -0.0607  0.2812
50341SOL    HW163002   4.019   4.600   2.989 -0.2980 -1.1479 -0.4659
50341SOL    HW263003   4.122   4.506   3.047  0.3736 -0.4547 -0.5288
50342SOL     OW63004   9.478  10.641   7.814  0.4420  0.0743  0.3881
50342SOL    HW163005   9.484  10.594   7.897  0.0791 -0.3204  0.1928
50342SOL    HW263006   9.564  10.628   7.774 -0.0518 -1.4919 -0.2259
50343SOL     OW63007  12.528   2.363   6.566  0.0147 -0.3567  0.0318
50343SOL    HW163008  12.451   2.313   6.539  0.2412  0.8781 -3.5451
50343SOL    HW263009  12.599   2.299   6.568 -0.4501 -0.8971 -0.4155
50344SOL     OW63010   4.081  12.771   1.096 -0.4602 -0.3459 -0.7749
50344SOL    HW163011   4.127  12.699   1.139 -0.8523  0.2428  0.6818
50344SOL    HW263012   4.106  12.849   1.146  0.2420  0.6253 -2.5353
50345SOL     OW63013   9.378   5.527   4.405 -0.7312 -0.1855  0.1011
50345SOL    HW163014   9.423   5.445   4.428 -0.1709  0.3474  0.9540
50345SOL    HW263015   9.297   5.525   4.457 -0.9621 -0.4377 -0.2702
50346SOL     OW63016   9.472  10.048   2.336  0.0979 -0.0639  0.0634
50346SOL    HW163017   9.509  10.021   2.420 -0.4146 -0.0667  0.2940
50346SOL    HW263018   9.481   9.970   2.280 -0.8507 -0.5406  0.5524
50347SOL     OW63019   6.548   4.675   0.852 -0.4076  0.2833  0.0034
50347SOL    HW163020   6.531   4.762   0.888  1.5917  0.1812  1.3507
50347SOL    HW263021   6.620   4.689   0.790 -1.0066 -0.2290 -0.8370
50348SOL     OW63022   2.931  13.945  13.781  0.3132  0.8018  0.1330
50348SOL    HW163023   2.907  13.891  13.705  0.8027 -1.7405  1.6702
50348SOL    HW263024   3.023  13.925  13.796  0.1508  1.0274  1.5629
50349SOL     OW63025  14.024   3.459   3.795  0.1897 -0.7518 -0.0284
50349SOL    HW163026  14.112   3.421   3.787  0.7597  0.0835  1.7823
50349SOL    HW263027  13.976   3.395   3.849  0.3926 -0.1700  0.8749
50350SOL     OW63028   9.757   3.368  13.567 -0.5552 -0.5003  0.1772
50350SOL    HW163029   9.678   3.362  13.620  0.1117 -0.5515  1.2042
50350SOL    HW263030   9.795   3.280  13.572 -1.1226 -0.8664 -1.4482
50351SOL     OW63031  12.177   0.764   0.680 -0.2520  0.4254 -0.0160
50351SOL    HW163032  12.113   0.820   0.725 -0.7627 -0.2409  0.1026
50351SOL    HW263033  12.151   0.769   0.587  1.0206  2.0917 -0.3363
50352SOL     OW63034  10.529   7.150   7.273 -0.2040 -0.3671  0.0613
50352SOL    HW163035  10.559   7.107   7.353  1.1331  1.2807  0.5105
50352SOL    HW263036  10.597   7.131   7.208 -0.8721 -1.0051 -0.4789
50353SOL     OW63037   9.194   0.412   8.402  0.3557  0.5208  0.2982
50353SOL    HW163038   9.128   0.347   8.377  1.5671 -0.3766 -0.7169
50353SOL    HW263039   9.173   0.434   8.492 -0.8460 -0.3479  0.2531
50354SOL     OW63040   1.152   0.407  11.205  0.0616  0.2883  0.3300
50354SOL    HW163041   1.242   0.387  11.182  0.5535  0.2104  2.1273
50354SOL    HW263042   1.121   0.330  11.253 -0.9769  0.3097 -0.2661
50355SOL     OW63043  10.060   5.376   2.651 -0.1971 -0.0119  0.4413
50355SOL    HW163044  10.032   5.312   2.585  0.3388  0.7971 -0.6006
50355SOL    HW263045  10.072   5.325   2.731 -0.5940 -1.0649 -0.1573
50356SOL     OW63046   8.134   5.442  10.629  0.6631 -0.0793  0.0513
50356SOL    HW163047   8.131   5.377  10.699 -3.6921 -0.1804  0.0412
50356SOL    HW263048   8.193   5.510  10.661 -1.7109  0.2876  4.3143
50357SOL     OW63049   8.888  13.868  12.679  0.1070  0.2181  0.2233
50357SOL    HW163050   8.959  13.872  12.743  0.2413  2.8809 -0.0126
50357SOL    HW263051   8.812  13.903  12.725 -0.1661  0.7302 -0.5985
50358SOL     OW63052   7.769   2.886  10.542 -0.0635 -0.1338 -0.0149
50358SOL    HW163053   7.848   2.854  10.585  0.2379  2.0253  1.1727
50358SOL    HW263054   7.801   2.934  10.465 -0.2231  0.3951  0.2426
50359SOL     OW63055   5.300   6.493   3.167 -0.5019  0.0641  0.0751
50359SOL    HW163056   5.329   6.570   3.118 -0.1253 -0.2850 -0.2747
50359SOL    HW263057   5.274   6.430   3.099 -1.7484  0.2318  0.3802
50360SOL     OW63058   6.642   4.790   3.937  0.1409 -0.5890 -0.5817
50360SOL    HW163059   6.582   4.782   3.863  0.3622  0.8433 -0.9403
50360SOL    HW263060   6.586   4.791   4.014 -0.4159  1.4478 -0.9489
50361SOL     OW63061   0.146   7.599   6.366 -0.1977  0.1209 -0.1706
50361SOL    HW163062   0.095   7.629   6.442  0.5757  0.5207  0.2018
50361SOL    HW263063   0.204   7.672   6.346  0.2541 -0.3431 -0.5730
50362SOL     OW63064   7.968   6.154   2.457  0.4038 -0.5791  0.0740
50362SOL    HW163065   7.954   6.141   2.363  1.4826 -1.1285 -0.0274
50362SOL    HW263066   7.894   6.109   2.498 -0.0990 -0.3036 -0.5061
50363SOL     OW63067   2.063   0.784   0.307 -0.4450 -0.0953 -0.1546
50363SOL    HW163068   2.068   0.815   0.398  0.0547 -1.2348  0.2240
50363SOL    HW263069   2.143   0.733   0.295 -0.5315  0.0056 -1.2294
50364SOL     OW63070   3.739   1.437   1.327 -0.2853  0.4827 -0.2329
50364SOL    HW163071   3.812   1.448   1.267  1.0067 -1.9369  0.7802
50364SOL    HW263072   3.694   1.359   1.296 -0.6900  0.2597  0.8727
50365SOL     OW63073  11.633   0.427   9.130  0.2266  0.0288 -0.3438
50365SOL    HW163074  11.541   0.407   9.148  0.1681 -0.9269 -1.5228
50365SOL    HW263075  11.649   0.509   9.176 -1.0305 -0.1249  0.4253
50366SOL     OW63076   2.017   2.491   5.543  0.4175  0.0147 -0.3830
50366SOL    HW163077   2.048   2.418   5.489 -0.8685 -0.1224 -0.9728
50366SOL    HW263078   1.923   2.475   5.552  0.5774  0.0988  1.8188
50367SOL     OW63079   5.535  10.349   4.220  0.4395 -0.1223  0.2556
50367SOL    HW163080   5.577  10.414   4.276 -0.7001  0.2530  0.7014
50367SOL    HW263081   5.581  10.267   4.239  0.5075  0.1397  1.2439
50368SOL     OW63082   8.280   7.812   0.465 -0.4594  0.1391 -0.4863
50368SOL    HW163083   8.285   7.785   0.373 -0.4857  0.1987 -0.5055
50368SOL    HW263084   8.217   7.884   0.465 -0.8597 -0.2081 -0.3393
50369SOL     OW63085   1.420   3.208  13.191 -0.5625 -0.1677  0.2153
50369SOL    HW163086   1.450   3.299  13.200 -0.3609 -0.1920 -0.1841
50369SOL    HW263087   1.341   3.204  13.245 -1.1486  0.5223 -0.5541
50370SOL     OW63088  13.913   1.337   4.882 -0.4031  0.0062 -0.5964
50370SOL    HW163089  13.926   1.432   4.882  1.5591 -0.2294 -0.7207
50370SOL    HW263090  13.891   1.316   4.973 -1.0323  0.5830 -0.6031
50371SOL     OW63091   4.036   8.881   2.811  0.0958 -0.4079 -0.4836
50371SOL    HW163092   4.094   8.826   2.760 -1.2735 -2.2990 -0.0916
50371SOL    HW263093   3.949   8.865   2.776 -0.4889  0.6835  0.3738
50372SOL     OW63094   3.089   7.780  11.099  0.1796  0.3478 -0.6870
50372SOL    HW163095   3.005   7.813  11.129  1.1887  1.6291  0.9425
50372SOL    HW263096   3.072   7.691  11.068 -1.6578  0.4206  0.0534
50373SOL     OW63097  12.417  12.554   3.936 -0.8547  0.6727  0.2766
50373SOL    HW163098  12.358  12.481   3.954 -1.0331  0.6691 -0.2818
50373SOL    HW263099  12.379  12.597   3.859 -0.2241  0.7703  0.0084
50374SOL     OW63100  13.285  10.939  13.810 -0.3988 -0.2269 -0.1018
50374SOL    HW163101  13.303  11.033  13.809 -0.9099 -0.0350 -3.4730
50374SOL    HW263102  13.218  10.927  13.877  0.0204  1.6997  0.7218
50375SOL     OW63103  12.402   0.183  10.381 -0.2053  0.6968 -0.5017
50375SOL    HW163104  12.311   0.156  10.368  0.3184 -0.1945 -2.6184
50375SOL    HW263105  12.402   0.277  10.362 -1.0255  1.1754  1.5881
50376SOL     OW63106   5.558   7.441   6.718  0.5088  0.0242  0.2104
50376SOL    HW163107   5.645   7.469   6.690  1.2294 -0.6168  1.6846
50376SOL    HW263108   5.516   7.521   6.750  0.8594  0.2062  0.2116
50377SOL     OW63109   1.220   6.923   7.458  0.6852  0.0626 -0.3459
50377SOL    HW163110   1.165   6.891   7.530  0.6284  0.1977 -0.3286
50377SOL    HW263111   1.157   6.954   7.393  0.7355 -0.1218 -0.4822
50378SOL     OW63112   5.431   6.452   4.434  0.3910  0.0238  0.1841
50378SOL    HW163113   5.351   6.450   4.487  0.4143  0.6621  0.2532
50378SOL    HW263114   5.472   6.536   4.455  1.1060 -0.3188  0.1819
50379SOL     OW63115   3.751  13.861   4.006 -0.2146  0.3221  0.0891
50379SOL    HW163116   3.680  13.889   4.065 -0.7695  0.4308 -0.6193
50379SOL    HW263117   3.780  13.942   3.964  0.2918  0.2676  0.3253
50380SOL     OW63118   6.266   1.128   3.465 -0.0882 -0.1392  0.1385
50380SOL    HW163119   6.356   1.145   3.438  0.2506 -1.4088  0.4079
50380SOL    HW263120   6.250   1.191   3.535 -0.6184  2.4805 -2.1199
50381SOL     OW63121  13.026   8.721   0.441 -0.9990  0.0973  0.2113
50381SOL    HW163122  12.937   8.684   0.440 -0.4802 -1.2546  1.1652
50381SOL    HW263123  13.046   8.730   0.534  0.0188 -0.0060  0.0052
50382SOL     OW63124   6.618   6.351   6.171 -0.2341 -0.2750  0.3942
50382SOL    HW163125   6.620   6.439   6.135 -0.4934 -0.8255 -1.0196
50382SOL    HW263126   6.555   6.356   6.243  0.8177  1.0111  1.2719
50383SOL     OW63127   8.845   6.116   1.460 -0.0998 -0.0216  0.1292
50383SOL    HW163128   8.822   6.074   1.378 -1.2030 -0.9215  0.8722
50383SOL    HW263129   8.887   6.198   1.434 -1.0797  0.0514 -1.3211
50384SOL     OW63130  10.488   2.062   2.287 -0.7104  0.0007  0.3857
50384SOL    HW163131  10.502   1.970   2.266 -0.2841 -0.3787  2.2086
50384SOL    HW263132  10.394   2.070   2.302 -0.5935 -0.4232  1.4125
50385SOL     OW63133   0.336   1.595   3.087 -0.1757 -0.0191  0.1328
50385SOL    HW163134   0.284   1.665   3.047  0.8324 -0.2431 -1.6859
50385SOL    HW263135   0.281   1.561   3.157 -1.1397  1.8530  0.3442
50386SOL     OW63136  12.093   0.410  10.418  0.0154  0.1168 -0.0732
50386SOL    HW163137  12.090   0.343  10.350  0.2457  0.6753 -0.6542
50386SOL    HW263138  12.023   0.387  10.478 -0.7755  0.0897 -0.9764
50387SOL     OW63139   5.005  10.835   0.097  0.0101 -0.2935  0.5473
50387SOL    HW163140   5.024  10.786   0.018 -0.1138  0.9650 -0.2920
50387SOL    HW263141   5.009  10.770   0.168  0.5411 -1.3484 -0.4266
50388SOL     OW63142  13.718   0.544  11.875  0.2489  0.0098  0.4936
50388SOL    HW163143  13.633   0.576  11.844  0.9923  0.4868 -1.2239
50388SOL    HW263144  13.776   0.619  11.863  1.6928 -1.3732 -2.0772
50389SOL     OW63145   1.775   5.329  10.832 -0.4589  0.7908 -0.0751
50389SOL    HW163146   1.854   5.381  10.842 -0.6993  0.8243  2.0244
50389SOL    HW263147   1.755   5.298  10.920 -1.8075 -0.6689 -0.8421
50390SOL     OW63148   7.359   8.331  10.010 -0.4624  0.1761 -0.2078
50390SOL    HW163149   7.273   8.303  10.041 -0.3665  0.0849 -0.0196
50390SOL    HW263150   7.367   8.291   9.924  0.5134 -2.1552  0.8732
50391SOL     OW63151   6.766   3.723  10.173  0.2199 -0.0186  0.5542
50391SOL    HW163152   6.694   3.763  10.221  0.3878  0.3804  0.4783
50391SOL    HW263153   6.826   3.796  10.153  0.2934 -0.2206 -0.0026
50392SOL     OW63154   0.766   3.436   6.838  0.2220 -0.8690  0.2244
50392SOL    HW163155   0.748   3.363   6.897 -0.2795 -0.8558  0.0941
50392SOL    HW263156   0.680   3.475   6.821  0.4159 -0.6004 -0.1599
50393SOL     OW63157  11.373   0.490   0.704 -0.4649 -0.0518 -0.3525
50393SOL    HW163158  11.313   0.450   0.641 -2.4280  1.0375  0.7063
50393SOL    HW263159  11.336   0.467   0.790  1.5212 -0.5908  0.4085
50394SOL     OW63160  10.370   2.485   2.223  0.1108 -0.4762 -0.4271
50394SOL    HW163161  10.453   2.496   2.271 -1.0166 -3.0092  2.4174
50394SOL    HW263162  10.384   2.407   2.169 -0.0472 -0.1999 -0.8698
50395SOL     OW63163   1.167   0.623   5.352 -0.2938  0.2926 -0.5918
50395SOL    HW163164   1.220   0.696   5.386  0.7776 -0.1170 -1.3079
50395SOL    HW263165   1.209   0.600   5.269 -0.3714 -1.3889 -0.2016
50396SOL     OW63166   5.274  12.126   7.480  0.3781 -0.0457  0.2813
50396SOL    HW163167   5.287  12.034   7.460 -1.4139 -0.0437 -1.1491
50396SOL    HW263168   5.180  12.140   7.469  0.4611  1.7471  1.4068
50397SOL     OW63169   7.963   8.551  13.705 -0.1761  0.1682  0.0876
50397SOL    HW163170   7.925   8.623  13.654 -2.0884  0.2939  1.5849
50397SOL    HW263171   8.015   8.594  13.773 -0.5894  0.1283  0.4350
50398SOL     OW63172  13.179  11.184   8.699 -0.3685  0.4692 -0.7328
50398SOL    HW163173  13.270  11.184   8.726 -0.1235 -0.9966 -1.4436
50398SOL    HW263174  13.129  11.181   8.781  0.2817 -0.8701 -0.3633
50399SOL     OW63175  12.172   5.624   3.173  0.3705 -0.1314 -0.7032
50399SOL    HW163176  12.099   5.675   3.138  0.3366  0.3588  0.0635
50399SOL    HW263177  12.138   5.535   3.180  0.0417 -0.0235 -0.8992
50400SOL     OW63178  12.797  10.009   4.733 -0.2314 -0.4595  0.4417
50400SOL    HW163179  12.764   9.926   4.769 -0.0399 -0.4341  0.6812
50400SOL    HW263180  12.858  10.040   4.800 -1.0931  0.4022  0.8529
50401SOL     OW63181   5.838   5.385   2.579  0.3306 -0.0013  0.0313
50401SOL    HW163182   5.778   5.345   2.517  1.3494 -1.1989 -0.2212
50401SOL    HW263183   5.845   5.322   2.651 -1.1483  1.5349  1.6146
50402SOL     OW63184  10.348   5.461   9.978  0.2640 -0.0357  0.5960
50402SOL    HW163185  10.333   5.367   9.980  1.2126 -0.1860  1.3271
50402SOL    HW263186  10.288   5.494   9.910 -0.1002 -1.1485  0.3633
50403SOL     OW63187   7.321   1.597   8.855 -0.1526  0.0484 -0.3061
50403SOL    HW163188   7.332   1.691   8.866 -0.2506  0.1237 -0.8201
50403SOL    HW263189   7.389   1.558   8.910 -0.0371  0.4210 -0.1836
50404SOL     OW63190   3.452   7.071   7.018 -0.8703 -0.1058 -0.6358
50404SOL    HW163191   3.426   7.046   7.107  0.2224 -1.6071 -0.7057
50404SOL    HW263192   3.441   6.991   6.967  1.5632 -0.1672 -1.1574
50405SOL     OW63193   5.860   3.406   9.047 -0.3997  0.2010  0.6235
50405SOL    HW163194   5.872   3.403   8.952  0.3832  0.1443  0.7163
50405SOL    HW263195   5.848   3.499   9.066  1.7631  0.5260  0.7060
50406SOL     OW63196  11.093   8.081  10.203 -0.0344 -0.2577 -0.3631
50406SOL    HW163197  11.059   8.069  10.291  0.8201  1.7793  0.3129
50406SOL    HW263198  11.180   8.118  10.216  0.1143  0.0743 -2.0611
50407SOL     OW63199   0.556  11.596  11.194  0.4757  0.4558 -0.7500
50407SOL    HW163200   0.505  11.558  11.122 -1.0372  2.2595 -0.7101
50407SOL    HW263201   0.495  11.656  11.237  1.3878 -0.3962  1.9492
50408SOL     OW63202   3.159   4.701   8.252 -0.2959  0.1353 -0.0318
50408SOL    HW163203   3.107   4.731   8.178 -1.7324  0.3983  1.0282
50408SOL    HW263204   3.181   4.610   8.231 -0.9867  0.0940 -0.6097
50409SOL     OW63205   3.146   1.247   4.429 -0.2699 -0.5495 -0.4470
50409SOL    HW163206   3.147   1.235   4.334  1.2747 -1.3352 -0.3639
50409SOL    HW263207   3.201   1.176   4.463  2.7502  2.0733  0.7011
50410SOL     OW63208  11.612   1.426   3.161  0.0537  0.0866 -0.4852
50410SOL    HW163209  11.702   1.406   3.187 -0.3962 -0.5124  0.7199
50410SOL    HW263210  11.575   1.469   3.239 -0.2299  1.8630 -1.5477
50411SOL     OW63211   1.461  13.479   1.409  0.3159 -0.3891  0.2496
50411SOL    HW163212   1.515  13.552   1.381 -0.9931  0.6460  0.2900
50411SOL    HW263213   1.516  13.428   1.467  1.9582 -0.6420 -1.4332
50412SOL     OW63214   6.747   9.447   5.212 -0.3053 -0.1937  0.5584
50412SOL    HW163215   6.793   9.363   5.215  0.3723  0.1015 -0.8870
50412SOL    HW263216   6.779   9.490   5.133 -2.2176  0.5327  0.1132
50413SOL     OW63217   3.131   6.622   8.704 -0.2227  0.0966 -0.2531
50413SOL    HW163218   3.106   6.609   8.796  1.7169  0.9843  0.4524
50413SOL    HW263219   3.086   6.551   8.658 -3.4138  1.1406  0.9012
50414SOL     OW63220  12.748   8.337   9.693  0.4116 -0.6056 -0.1680
50414SOL    HW163221  12.679   8.357   9.630  0.6953  0.7848 -0.0786
50414SOL    HW263222  12.806   8.413   9.689 -0.2102  0.1499  2.6206
50415SOL     OW63223   3.472   2.693   0.159 -0.3858 -0.3231  0.0390
50415SOL    HW163224   3.485   2.615   0.213 -0.0913  0.0849  0.5576
50415SOL    HW263225   3.498   2.665   0.071 -1.5997 -1.2272 -0.0792
50416SOL     OW63226  13.872   0.419   6.901 -0.1164  0.4709 -0.3210
50416SOL    HW163227  13.876   0.356   6.974  0.6951 -0.2477 -0.9669
50416SOL    HW263228  13.933   0.385   6.836 -1.8993  0.2828 -2.0041
50417SOL     OW63229   2.180  12.627   6.898  0.2069 -0.5662  0.1600
50417SOL    HW163230   2.254  12.677   6.863 -0.1023  0.5089  0.9843
50417SOL    HW263231   2.107  12.689   6.900 -0.2147 -1.0592  1.1400
50418SOL     OW63232   7.523   2.565   8.659 -0.3987  0.1073  0.4114
50418SOL    HW163233   7.580   2.554   8.583  1.2040 -1.2053  1.7358
50418SOL    HW263234   7.543   2.653   8.692  0.1286  0.0358  0.2839
50419SOL     OW63235   4.516  11.006   7.380 -0.3159  0.1390 -0.0089
50419SOL    HW163236   4.595  10.952   7.388 -0.3587  0.1725  0.7353
50419SOL    HW263237   4.475  10.977   7.299  1.0613  0.9176 -1.0577
50420SOL     OW63238  12.446   9.064  13.102 -1.3458  0.7029 -0.4285
50420SOL    HW163239  12.392   9.010  13.160  0.8075 -1.4986 -0.2823
50420SOL    HW263240  12.448   9.016  13.019 -1.4708  1.9394 -1.1668
50421SOL     OW63241   0.845   7.043   9.142 -0.1734 -0.7092  0.0374
50421SOL    HW163242   0.806   7.058   9.056 -0.5954 -0.9867  0.1772
50421SOL    HW263243   0.871   6.951   9.141 -0.8052 -0.9026  0.4472
50422SOL     OW63244   9.684  12.223   0.267  0.1846  0.0689 -0.1442
50422SOL    HW163245   9.646  12.205   0.181  1.5196  0.7043 -0.8904
50422SOL    HW263246   9.646  12.307   0.292 -0.6674 -0.3951  0.1885
50423SOL     OW63247   0.720   2.583   2.360  0.4112  1.0556  0.2075
50423SOL    HW163248   0.718   2.559   2.267  1.4632  0.0635  0.4214
50423SOL    HW263249   0.805   2.625   2.371  0.3371  1.0575  0.7602
50424SOL     OW63250  10.482   5.949   9.573  0.0611  0.0216 -0.0116
50424SOL    HW163251  10.434   5.884   9.624 -1.6761  1.1345 -0.1412
50424SOL    HW263252  10.493   6.023   9.632  1.5706 -0.1509 -0.0277
50425SOL     OW63253   0.938   6.815  13.990 -0.7327  0.0117 -0.4545
50425SOL    HW163254   0.955   6.782  13.902 -1.6707  1.2961 -1.1548
50425SOL    HW263255   0.859   6.870  13.980 -0.6182  0.4965  1.0958
50426SOL     OW63256   5.069   5.422   1.295  0.3302  0.1549 -0.5268
50426SOL    HW163257   5.103   5.415   1.384  1.4573 -0.2024 -0.9668
50426SOL    HW263258   5.045   5.515   1.286 -1.2813 -0.1061  0.6435
50427SOL     OW63259  12.971  12.863   8.350 -0.1002  0.2878  0.2686
50427SOL    HW163260  13.057  12.893   8.380  0.3685  2.0797 -2.4932
50427SOL    HW263261  12.968  12.888   8.258 -2.9626 -1.2320 -0.1520
50428SOL     OW63262   2.316  11.207   7.076  1.1678  0.2424 -0.2905
50428SOL    HW163263   2.340  11.230   6.987  0.9774 -0.2551 -0.4703
50428SOL    HW263264   2.399  11.198   7.122  1.2908  3.7522  0.4515
50429SOL     OW63265   0.229   0.929   4.798 -0.1157 -0.4904  0.6818
50429SOL    HW163266   0.261   0.940   4.888  0.6162 -1.6273  0.5872
50429SOL    HW263267   0.278   0.853   4.765  0.4746  0.5803 -1.0594
50430SOL     OW63268   8.508   3.856   9.929 -0.3395  0.3826 -0.5973
50430SOL    HW163269   8.427   3.830   9.885  1.0587 -1.5122 -2.2726
50430SOL    HW263270   8.484   3.933   9.981 -3.7705 -1.4735  0.9357
50431SOL     OW63271   2.338   7.402   0.236  0.0929 -0.2103  0.5628
50431SOL    HW163272   2.294   7.455   0.303 -0.7207  0.3050 -0.3484
50431SOL    HW263273   2.418   7.371   0.278  0.1082  0.9547  1.4417
50432SOL     OW63274  12.082   2.763   0.550  0.2835  0.1221 -0.2777
50432SOL    HW163275  12.156   2.729   0.499  1.0242  0.7088  0.3748
50432SOL    HW263276  12.121   2.829   0.608 -1.1034  2.1226 -1.5114
50433SOL     OW63277   9.197   9.095   1.642 -0.3809 -0.2379  0.1824
50433SOL    HW163278   9.272   9.092   1.703 -0.4718  0.8444  0.3738
50433SOL    HW263279   9.236   9.117   1.558 -0.2527 -1.7612 -0.1924
50434SOL     OW63280  10.223   0.344   0.711 -0.4673 -0.0453 -0.5057
50434SOL    HW163281  10.204   0.420   0.656  0.7535  0.0892 -0.7678
50434SOL    HW263282  10.193   0.370   0.798  1.3206  1.3903 -0.2495
50435SOL     OW63283   6.038   8.802   3.825  0.5156  0.0676 -0.1395
50435SOL    HW163284   6.038   8.708   3.841  0.0086  0.1100  0.1102
50435SOL    HW263285   6.115   8.834   3.873  0.4827 -0.1654  0.0720
50436SOL     OW63286  11.116  13.728   6.044  0.4578 -0.8156  0.1792
50436SOL    HW163287  11.212  13.729   6.048  0.5920  0.6891 -1.6155
50436SOL    HW263288  11.090  13.811   6.083 -0.0781 -1.0004  0.2129
50437SOL     OW63289   0.695  11.506  10.238 -0.6634  0.6367  0.0387
50437SOL    HW163290   0.746  11.449  10.296 -1.2806 -0.6696 -0.6562
50437SOL    HW263291   0.748  11.585  10.230  0.4607 -0.0230  0.6513
50438SOL     OW63292   0.154   5.127   2.511  0.1355 -0.1993  0.4951
50438SOL    HW163293   0.244   5.161   2.517  1.1325 -2.3395 -0.8801
50438SOL    HW263294   0.146   5.065   2.584  0.2273 -0.8737 -0.0506
50439SOL     OW63295   1.105   6.094   1.044 -1.1315  0.2161  0.2751
50439SOL    HW163296   1.056   6.052   0.974 -0.2599 -1.0379  0.3765
50439SOL    HW263297   1.186   6.124   1.003 -0.1623 -1.4071  0.8721
50440SOL     OW63298  12.149   4.387   2.105 -0.1309 -0.1680 -0.4808
50440SOL    HW163299  12.110   4.331   2.172 -1.1307 -1.6651 -2.2222
50440SOL    HW263300  12.214   4.331   2.062  0.4399  0.7452 -0.8408
50441SOL     OW63301  10.457   9.171  13.624 -0.4104 -0.1324 -0.0278
50441SOL    HW163302  10.437   9.242  13.563  0.2676  0.0741 -0.0208
50441SOL    HW263303  10.525   9.120  13.580  1.1446  0.8457  1.1352
50442SOL     OW63304  11.876  10.216  14.011  0.3974  0.4373  0.3529
50442SOL    HW163305  11.904  10.130  13.981  1.2532  0.6880  0.3985
50442SOL    HW263306  11.927  10.277  13.957  1.0993  0.9023  1.5099
50443SOL     OW63307   3.011   1.039   2.326  0.4686  0.3703 -0.1563
50443SOL    HW163308   3.078   1.097   2.363 -0.2765  0.5185  1.0110
50443SOL    HW263309   2.932   1.094   2.322 -0.0746 -0.3575  0.3298
50444SOL     OW63310  10.332  12.617   6.414 -0.3288  0.0781 -0.3201
50444SOL    HW163311  10.278  12.576   6.482  1.3869  0.5448  1.4261
50444SOL    HW263312  10.279  12.689   6.381 -0.3931  1.3388  2.2650
50445SOL     OW63313  11.897   2.457   3.639 -0.5816 -0.3169  0.4970
50445SOL    HW163314  11.952   2.381   3.622  1.5604  1.4975 -1.4217
50445SOL    HW263315  11.809   2.430   3.610  0.3655 -1.6795 -1.3751
50446SOL     OW63316   0.756   4.322   7.611  0.0577  0.3560 -0.5611
50446SOL    HW163317   0.841   4.346   7.576  0.5354  1.1072  1.0022
50446SOL    HW263318   0.705   4.295   7.535  1.9845 -1.0788 -1.4239
50447SOL     OW63319   6.632   1.102   6.915 -0.3035  0.2597  0.4563
50447SOL    HW163320   6.585   1.109   6.998 -0.2740 -3.1122  0.8916
50447SOL    HW263321   6.572   1.055   6.857  1.5384 -2.0676  0.2928
50448SOL     OW63322   4.840  12.669   1.498 -0.3746  0.7204  0.1079
50448SOL    HW163323   4.758  12.620   1.501 -1.1688  1.9411 -0.4784
50448SOL    HW263324   4.812  12.761   1.503  1.1054  1.1243  2.2338
50449SOL     OW63325   4.538  12.497   1.855  0.2817  0.3018 -0.2988
50449SOL    HW163326   4.517  12.578   1.901  0.2048  0.6065 -0.8643
50449SOL    HW263327   4.545  12.431   1.924 -1.7528  0.3435 -0.0138
50450SOL     OW63328   0.843   2.036  13.097 -0.3534 -0.6407 -0.2951
50450SOL    HW163329   0.771   2.000  13.148 -1.5608 -1.8496 -2.6917
50450SOL    HW263330   0.922   1.995  13.133 -1.1049 -1.1702  0.7856
50451SOL     OW63331  11.588   5.404   2.922  0.3244 -0.1326 -0.1155
50451SOL    HW163332  11.597   5.489   2.879  0.9445  0.1113  0.4768
50451SOL    HW263333  11.668   5.357   2.899 -1.1873 -1.7014 -2.8112
50452SOL     OW63334   8.154   7.604   3.974 -0.4245 -0.0873  0.1595
50452SOL    HW163335   8.148   7.611   4.070 -1.7224  0.2490  0.0661
50452SOL    HW263336   8.064   7.609   3.944 -0.2366 -2.2965 -0.9737
50453SOL     OW63337  12.151   1.739  13.014  0.1621  0.4141  0.1744
50453SOL    HW163338  12.202   1.784  13.081  0.3276 -0.6609  0.7982
50453SOL    HW263339  12.205   1.744  12.935  0.1124  1.4075  0.1901
50454SOL     OW63340   8.906   8.734  13.098 -0.0767  0.7617 -0.6142
50454SOL    HW163341   8.877   8.726  13.189  1.0430  2.7071 -0.0347
50454SOL    HW263342   8.995   8.698  13.099 -0.5761 -0.5726 -1.3033
50455SOL     OW63343   6.342  11.978   0.473  0.0496  0.0376 -0.0017
50455SOL    HW163344   6.256  11.991   0.433 -0.0258 -1.0735 -0.2378
50455SOL    HW263345   6.327  11.913   0.542  0.7282 -0.3343 -0.1918
50456SOL     OW63346  11.847  10.795  13.366  0.3842 -0.0068  0.2106
50456SOL    HW163347  11.838  10.845  13.284  2.1069  0.7839  0.4467
50456SOL    HW263348  11.938  10.764  13.364  1.3381  2.1987  2.9482
50457SOL     OW63349   1.743   4.988  12.094 -0.1393  0.1112  0.0485
50457SOL    HW163350   1.700   4.904  12.109 -0.7270  0.4993  0.5640
50457SOL    HW263351   1.832   4.976  12.128  0.1299 -0.6315 -0.8545
50458SOL     OW63352  11.465   6.115   6.831 -0.2109 -0.1042  0.0155
50458SOL    HW163353  11.487   6.204   6.805 -1.7365  0.3660  0.2193
50458SOL    HW263354  11.517   6.099   6.910  0.6096  0.3274 -0.4289
50459SOL     OW63355   0.011   0.090  12.531 -0.4179 -0.9086  0.3652
50459SOL    HW163356  -0.040   0.023  12.486 -1.5299 -1.2711  2.0444
50459SOL    HW263357   0.092   0.096  12.481 -1.6776 -1.0163 -1.8365
50460SOL     OW63358   6.429   2.350   6.012  0.4880 -0.1662 -0.1780
50460SOL    HW163359   6.522   2.355   5.988  0.3369  0.7577 -0.6316
50460SOL    HW263360   6.425   2.383   6.101  0.6283 -0.4868 -0.0504
50461SOL     OW63361   0.131   7.992   4.571 -0.7702  0.6180  0.1881
50461SOL    HW163362   0.198   8.043   4.617 -1.2010  1.0748  0.3185
50461SOL    HW263363   0.118   7.915   4.626  0.0578  0.2339 -0.1300
50462SOL     OW63364   7.256   0.859  11.897  0.6944  0.1288 -0.6533
50462SOL    HW163365   7.166   0.831  11.915  0.4985 -0.9131 -2.8624
50462SOL    HW263366   7.291   0.883  11.983 -1.5288  0.1264  0.3362
50463SOL     OW63367   6.907   2.779   4.493 -0.3098 -0.0710  0.1911
50463SOL    HW163368   6.849   2.770   4.569 -1.3012 -0.5917 -0.5946
50463SOL    HW263369   6.847   2.793   4.420  0.6746  1.3288 -0.3723
50464SOL     OW63370   0.038   3.846  13.197  0.6859  0.1026  0.1953
50464SOL    HW163371   0.001   3.863  13.283  0.4197  2.1453 -0.2781
50464SOL    HW263372  -0.023   3.888  13.136  0.7819 -1.4501 -1.0221
50465SOL     OW63373   1.264   4.164   9.461  0.4686 -0.1943 -0.3494
50465SOL    HW163374   1.173   4.157   9.431  0.1818  2.4279 -0.2871
50465SOL    HW263375   1.287   4.256   9.448  2.8239 -0.5825  0.5406
50466SOL     OW63376   6.149   9.094   5.535  0.1995 -0.4883  0.3656
50466SOL    HW163377   6.242   9.071   5.534  0.6388  1.0747 -1.7506
50466SOL    HW263378   6.147   9.189   5.533 -1.3899 -0.4806 -1.9146
50467SOL     OW63379  12.688   6.327   2.563 -0.1012 -0.0065  0.2384
50467SOL    HW163380  12.605   6.319   2.610 -0.5957  0.0755 -0.5920
50467SOL    HW263381  12.741   6.386   2.617 -0.0433 -1.1565  1.4944
50468SOL     OW63382   7.647   2.198   5.257  0.3033  0.0578  0.4729
50468SOL    HW163383   7.719   2.207   5.195 -0.1626 -0.5474 -0.1778
50468SOL    HW263384   7.571   2.232   5.211 -0.3143 -1.6321  0.1681
50469SOL     OW63385   3.453   1.960   7.392 -0.0702  0.1623 -0.6594
50469SOL    HW163386   3.380   1.966   7.453  0.8039  0.7004  0.3682
50469SOL    HW263387   3.474   2.050   7.370  0.7805  0.0602 -0.3134
50470SOL     OW63388   6.240   0.392  11.598 -0.1286 -0.7064  0.3134
50470SOL    HW163389   6.323   0.433  11.625  1.3442 -0.6851 -3.6460
50470SOL    HW263390   6.247   0.302  11.629  0.8035 -0.4061  1.0575
50471SOL     OW63391   7.354   4.165  11.655 -0.5941  0.1683 -0.6906
50471SOL    HW163392   7.312   4.079  11.659 -0.2719 -0.0866 -2.0893
50471SOL    HW263393   7.301   4.221  11.712 -2.4146 -0.3231 -1.8264
50472SOL     OW63394   0.933   5.712  13.517  0.4357 -0.3904 -0.4313
50472SOL    HW163395   0.989   5.661  13.459  2.1434  1.4311 -0.4849
50472SOL    HW263396   0.985   5.726  13.596 -0.0979  0.9287 -0.2768
50473SOL     OW63397  12.947   4.123  11.620  0.0414 -0.4429 -0.1887
50473SOL    HW163398  12.873   4.133  11.680  0.8334 -1.8184  1.0873
50473SOL    HW263399  12.907   4.093  11.538 -0.8303 -1.0979  0.4533
50474SOL     OW63400   8.180   4.374   8.215  0.2617 -0.4696 -0.2412
50474SOL    HW163401   8.162   4.448   8.156  1.8887  0.1141 -0.0572
50474SOL    HW263402   8.273   4.382   8.236 -0.3105 -0.4503  2.7071
50475SOL     OW63403   1.918  12.353  11.434  0.1525 -0.2861  0.0533
50475SOL    HW163404   1.900  12.439  11.398 -0.5323  0.2315  1.5558
50475SOL    HW263405   1.863  12.293  11.384 -0.7659  0.4076  0.2077
50476SOL     OW63406   0.662  11.492   3.908  0.4846 -0.5491 -0.4632
50476SOL    HW163407   0.670  11.536   3.993 -1.1734  0.5586 -0.8199
50476SOL    HW263408   0.649  11.400   3.929 -2.3001 -0.0060  0.6919
50477SOL     OW63409   4.046  10.598   9.282 -0.2096  0.1541 -0.5629
50477SOL    HW163410   3.950  10.588   9.282 -0.0696 -1.7347 -0.9647
50477SOL    HW263411   4.066  10.628   9.193 -0.2864 -2.0485 -1.3865
50478SOL     OW63412   1.216   0.451   1.897 -0.4746 -0.1643  0.2428
50478SOL    HW163413   1.151   0.466   1.828  2.0355  0.0034 -2.2186
50478SOL    HW263414   1.233   0.538   1.933 -0.9691 -0.1024  0.3471
50479SOL     OW63415   9.163   0.954   5.751  0.0368 -0.4866  0.0406
50479SOL    HW163416   9.217   0.876   5.739 -0.6392 -0.7633 -1.3154
50479SOL    HW263417   9.121   0.968   5.666 -1.9389 -0.2015  1.0071
50480SOL     OW63418   2.687  10.232  10.903  0.5667  0.4123  0.4035
50480SOL    HW163419   2.671  10.243  10.997 -0.7673 -1.0856  0.4091
50480SOL    HW263420   2.765  10.284  10.885  1.2347  0.2220  2.4753
50481SOL     OW63421   2.458  11.861  11.956 -0.2308  0.3394  0.1463
50481SOL    HW163422   2.431  11.951  11.942  0.0263  0.3391 -0.3603
50481SOL    HW263423   2.396  11.827  12.021 -1.4678  0.3328 -0.9865
50482SOL     OW63424   6.071   2.413  10.965  0.1300  0.1679  0.4226
50482SOL    HW163425   6.085   2.319  10.952  0.6333  0.4112 -0.9708
50482SOL    HW263426   5.976   2.422  10.975  0.0271 -0.4419  0.0758
50483SOL     OW63427   9.954  10.868   8.398  0.4280 -0.0876 -0.2294
50483SOL    HW163428   9.923  10.837   8.483 -0.7756  2.9028  0.5567
50483SOL    HW263429   9.888  10.930   8.369  2.2967  1.2614 -1.9247
50484SOL     OW63430   9.630   0.018   4.718 -0.2179 -0.1994 -0.3771
50484SOL    HW163431   9.689  -0.051   4.686 -0.7815 -1.1592  0.5867
50484SOL    HW263432   9.673   0.050   4.798  1.0620  2.0131 -1.8315
50485SOL     OW63433  11.652   0.619   2.785 -0.4920 -0.4129  0.5882
50485SOL    HW163434  11.743   0.646   2.796 -1.0015  1.3220  0.8761
50485SOL    HW263435  11.631   0.642   2.694 -0.4228 -1.5504  0.2744
50486SOL     OW63436   3.794   3.069   1.323  0.0929  0.0852 -0.2380
50486SOL    HW163437   3.725   3.003   1.329  0.6690 -0.5545 -0.5221
50486SOL    HW263438   3.837   3.051   1.239 -1.8828  2.9726 -2.0427
50487SOL     OW63439  13.044   9.891   1.732 -0.2899  0.6844  0.1638
50487SOL    HW163440  12.991   9.872   1.654 -0.4601  1.4181  0.0908
50487SOL    HW263441  13.013   9.829   1.798  0.8419 -0.9434 -0.7500
50488SOL     OW63442  12.936   4.336   6.283  0.0925  0.1478 -0.0771
50488SOL    HW163443  12.936   4.268   6.351 -0.0204  0.3764  0.1525
50488SOL    HW263444  13.008   4.394   6.308  2.2097 -1.4986 -1.9097
50489SOL     OW63445   9.381  13.276  13.133  0.1403  0.5064 -0.0771
50489SOL    HW163446   9.335  13.200  13.168  0.2494  0.4507 -0.0574
50489SOL    HW263447   9.383  13.260  13.038  1.3577 -0.1748  0.0475
50490SOL     OW63448   8.246   1.411  12.761 -0.1816  0.1541 -0.8302
50490SOL    HW163449   8.260   1.505  12.765  1.3059 -0.0848  0.4423
50490SOL    HW263450   8.266   1.379  12.849 -0.0728 -1.4180 -1.3844
50491SOL     OW63451  11.979   9.945   8.694 -0.1039  0.0878  0.0209
50491SOL    HW163452  11.930   9.871   8.659  0.6626  0.2114 -1.4344
50491SOL    HW263453  11.914  10.014   8.704 -1.2056 -1.2590  3.1917
50492SOL     OW63454   5.631  11.663   5.832  0.3969  0.4414 -0.3778
50492SOL    HW163455   5.722  11.675   5.859  0.2966  1.3076 -0.4076
50492SOL    HW263456   5.586  11.742   5.861 -1.2427 -1.5732  3.2631
50493SOL     OW63457  12.711   7.516   1.352 -0.0624  0.0521 -0.0626
50493SOL    HW163458  12.633   7.483   1.398 -0.0237 -0.3252 -0.2579
50493SOL    HW263459  12.679   7.590   1.300 -0.3669 -0.3203 -0.4146
50494SOL     OW63460   9.096   8.252  10.819  0.0743 -0.3540 -0.2604
50494SOL    HW163461   9.119   8.162  10.797  1.5050  0.0138 -0.3780
50494SOL    HW263462   9.000   8.251  10.827 -0.1284 -1.4577 -2.1470
50495SOL     OW63463   6.130   1.951  13.198  0.0839  0.0288  0.0839
50495SOL    HW163464   6.131   2.047  13.199  1.3138  0.0540 -1.0496
50495SOL    HW263465   6.043   1.928  13.166 -0.0185  0.7789 -0.1832
50496SOL     OW63466   7.122   6.663  12.004  0.7781  0.0064  0.3097
50496SOL    HW163467   7.080   6.654  11.918 -1.4039  0.1680  1.2840
50496SOL    HW263468   7.216   6.660  11.985  0.3957 -2.0315 -1.8596
50497SOL     OW63469  10.210   3.913   6.809 -0.2568  0.1456 -0.4085
50497SOL    HW163470  10.137   3.902   6.748 -0.5122  1.0820 -0.2958
50497SOL    HW263471  10.274   3.848   6.783 -1.7610 -1.7669  0.4544
50498SOL     OW63472   5.028   4.895   7.644 -0.0934  0.6720  0.1468
50498SOL    HW163473   4.944   4.937   7.622 -1.3814 -1.7312  0.1715
50498SOL    HW263474   5.057   4.855   7.562 -1.0205 -1.8203  0.9591
50499SOL     OW63475   7.955   3.302   2.984 -0.2347 -0.2302  0.4465
50499SOL    HW163476   7.874   3.306   2.932 -0.3673  0.9804  0.7182
50499SOL    HW263477   7.926   3.276   3.071 -0.2652 -0.2970  0.4165
50500SOL     OW63478   5.420   4.978   1.542  0.0920 -0.7558 -0.9579
50500SOL    HW163479   5.367   4.988   1.463  0.8936 -0.8450 -1.5206
50500SOL    HW263480   5.510   4.994   1.513  0.3160  0.0153  0.1048
50501SOL     OW63481   9.033  12.634   1.636 -0.7394  0.0816  0.3251
50501SOL    HW163482   9.097  12.636   1.564 -1.8917  1.5439 -0.7015
50501SOL    HW263483   8.954  12.598   1.597 -0.7887 -1.0789  1.4266
50502SOL     OW63484   1.705   4.611   9.048 -0.1073  0.0402  0.0900
50502SOL    HW163485   1.647   4.557   8.995  0.2084 -0.3459  0.1376
50502SOL    HW263486   1.654   4.632   9.126 -0.6297  0.7329 -0.4196
50503SOL     OW63487   0.464   6.917   1.136  0.0602 -0.1603 -0.4545
50503SOL    HW163488   0.536   6.873   1.091  0.8450 -2.0087  2.3340
50503SOL    HW263489   0.412   6.846   1.174 -1.6057  1.2182 -0.0102
50504SOL     OW63490   6.718   4.683   4.604 -0.3288 -0.1873 -0.5523
50504SOL    HW163491   6.745   4.666   4.514  1.8454  1.3385 -0.2837
50504SOL    HW263492   6.786   4.742   4.638 -1.1400 -0.6353  2.0493
50505SOL     OW63493   5.141   0.953  10.243  0.3150 -0.2929 -0.5825
50505SOL    HW163494   5.195   0.908  10.178  1.6915 -0.0866  0.3611
50505SOL    HW263495   5.090   0.884  10.284  0.1331 -0.5508 -1.2272
50506SOL     OW63496  13.171   1.913  13.285 -0.2727 -0.0924  0.1533
50506SOL    HW163497  13.179   1.938  13.193  0.6491  0.1344  0.2912
50506SOL    HW263498  13.103   1.970  13.319 -0.8526 -0.3941 -0.4563
50507SOL     OW63499   6.922  12.352   7.673  0.6420 -0.0030 -0.3341
50507SOL    HW163500   6.995  12.301   7.638  1.3239  0.2721  0.6499
50507SOL    HW263501   6.865  12.366   7.598  1.7847  0.0997 -1.2130
50508SOL     OW63502  11.836   3.716  10.861 -0.6203 -0.1339 -0.1071
50508SOL    HW163503  11.753   3.762  10.845  0.4936  2.3004  0.5223
50508SOL    HW263504  11.877   3.710  10.775 -1.5599 -1.6586 -0.4735
50509SOL     OW63505  11.629  10.443   1.316 -0.1769 -0.0506 -0.6236
50509SOL    HW163506  11.702  10.500   1.290 -0.3118 -0.0417 -0.9874
50509SOL    HW263507  11.640  10.365   1.262  0.6186 -0.8258  0.6119
50510SOL     OW63508   3.077  11.365   3.064 -0.1559 -0.3401 -0.7144
50510SOL    HW163509   3.109  11.350   2.975  0.4508 -0.7863 -0.4321
50510SOL    HW263510   3.078  11.460   3.074 -0.4145 -0.2798 -1.2501
50511SOL     OW63511   8.910  11.860   2.702 -0.3859 -0.5588  0.3219
50511SOL    HW163512   8.895  11.839   2.794 -1.4462 -0.2273  0.2362
50511SOL    HW263513   8.975  11.929   2.703  1.2613 -2.0437  0.7119
50512SOL     OW63514   3.325   1.406   1.511 -0.6623 -0.7546 -0.0657
50512SOL    HW163515   3.329   1.498   1.539 -0.2737 -1.2559  1.6413
50512SOL    HW263516   3.235   1.379   1.529 -0.3017 -1.1956  1.1454
50513SOL     OW63517   2.992   7.700   7.383 -0.4919  0.1643 -0.3561
50513SOL    HW163518   2.914   7.660   7.422 -1.0391  0.0117 -1.5747
50513SOL    HW263519   3.065   7.657   7.427 -1.0866 -0.7070 -0.1932
50514SOL     OW63520   3.905   5.917   9.229 -0.5805  0.1400  0.1017
50514SOL    HW163521   3.931   5.984   9.167  2.1336  0.9698  1.9342
50514SOL    HW263522   3.970   5.847   9.217 -2.2127 -1.3605 -0.4490
50515SOL     OW63523   7.577   9.001   9.033 -0.6608  0.6828 -0.2082
50515SOL    HW163524   7.631   8.930   9.066 -0.6587  0.4429 -0.7198
50515SOL    HW263525   7.639   9.059   8.988 -0.3338  2.0528  1.8488
50516SOL     OW63526   9.307   1.804   4.985  0.6074  0.3007  0.3028
50516SOL    HW163527   9.364   1.805   4.907 -0.0084  1.9076 -0.1614
50516SOL    HW263528   9.323   1.718   5.025  1.0484 -0.5189 -1.5177
50517SOL     OW63529   7.611  12.150   9.219 -0.3965 -0.3658  0.5766
50517SOL    HW163530   7.667  12.164   9.143  0.9472 -0.8854  1.4498
50517SOL    HW263531   7.668  12.114   9.287 -1.9622 -1.8219  1.2156
50518SOL     OW63532   6.169   6.255   3.291 -0.1063  0.8031 -0.6901
50518SOL    HW163533   6.169   6.330   3.350 -0.8524  0.7311 -0.5823
50518SOL    HW263534   6.216   6.187   3.339  0.6970  1.2303 -0.8462
50519SOL     OW63535   2.925   3.651  13.538 -0.3644 -0.4908 -0.4754
50519SOL    HW163536   2.841   3.683  13.505 -0.1747  1.7654  0.9794
50519SOL    HW263537   2.918   3.660  13.633  1.3091 -0.8761 -0.2787
50520SOL     OW63538   7.615   8.291   5.857 -0.1869  0.4731  0.7313
50520SOL    HW163539   7.609   8.265   5.766 -0.8269  1.6950  0.3952
50520SOL    HW263540   7.571   8.222   5.906 -1.1279  0.5166 -0.0377
50521SOL     OW63541  11.838  11.500  13.921  0.2698 -1.1397  0.0170
50521SOL    HW163542  11.891  11.566  13.876  0.5353 -2.2698 -1.4066
50521SOL    HW263543  11.829  11.533  14.010  2.0176 -0.1150 -0.1364
50522SOL     OW63544   6.540   8.883   4.666  0.4735 -0.0617  0.0467
50522SOL    HW163545   6.576   8.971   4.661  1.7880 -0.5408  0.5944
50522SOL    HW263546   6.604   8.834   4.717 -1.1155 -0.9034  1.3200
50523SOL     OW63547   8.653   1.167   6.251 -0.3446  0.8117  0.2489
50523SOL    HW163548   8.647   1.232   6.321  0.9509  1.0400  0.1811
50523SOL    HW263549   8.745   1.140   6.252 -0.5917 -0.1041 -0.5474
50524SOL     OW63550  13.299  10.515   3.861  0.0435 -0.5674  0.6298
50524SOL    HW163551  13.255  10.507   3.777  1.1241 -1.2851  0.1059
50524SOL    HW263552  13.312  10.609   3.872  0.0093 -0.4708 -0.0796
50525SOL     OW63553  12.599   1.591   2.985  0.6050  0.2657  0.3683
50525SOL    HW163554  12.601   1.574   3.080 -0.6415  1.2034  0.5890
50525SOL    HW263555  12.635   1.512   2.946 -1.4386 -1.3426  1.5068
50526SOL     OW63556   0.407   0.060   7.361  0.1743 -0.8681  0.3950
50526SOL    HW163557   0.439   0.086   7.447  2.6093  0.2212 -0.7500
50526SOL    HW263558   0.388   0.143   7.317 -2.4522 -1.4261  0.2755
50527SOL     OW63559  10.926   6.708   8.765 -0.0178 -0.2022 -0.3907
50527SOL    HW163560  10.916   6.663   8.681  0.3994 -1.2342  0.0966
50527SOL    HW263561  10.947   6.639   8.827 -0.0672  0.5815  0.5254
50528SOL     OW63562   9.697   7.889  10.759  0.5268 -0.1152 -0.1973
50528SOL    HW163563   9.762   7.921  10.821 -0.0080 -0.0377  0.3375
50528SOL    HW263564   9.673   7.965  10.707 -0.3657  0.2529  0.7302
50529SOL     OW63565   7.510  11.321   7.630  0.2513 -0.0963  0.3029
50529SOL    HW163566   7.443  11.308   7.564  0.0546 -1.7413  0.7762
50529SOL    HW263567   7.510  11.415   7.647 -2.1016 -0.0675  0.4667
50530SOL     OW63568   8.262   9.477   3.596  0.2214 -0.2309 -0.4333
50530SOL    HW163569   8.327   9.542   3.622  0.7452 -0.9991  0.2019
50530SOL    HW263570   8.180   9.510   3.631  0.1918  0.9084 -1.5064
50531SOL     OW63571   9.286  12.321   8.000  0.6793 -0.5958 -0.3992
50531SOL    HW163572   9.347  12.298   8.069 -3.2191 -2.4149  2.8296
50531SOL    HW263573   9.267  12.414   8.014 -0.8401 -1.1810  1.7996
50532SOL     OW63574   1.420   0.004  13.280  0.0976  0.2038  0.9561
50532SOL    HW163575   1.335   0.025  13.243  0.4992  0.4106  0.1254
50532SOL    HW263576   1.483   0.042  13.219  0.7963 -0.8289  0.9988
50533SOL     OW63577  12.856   3.694   0.108 -0.0857  0.1372 -0.0304
50533SOL    HW163578  12.944   3.673   0.076 -0.3397 -0.0313 -0.6314
50533SOL    HW263579  12.829   3.616   0.157 -0.0165  0.0710 -0.0978
50534SOL     OW63580  10.978   1.511   5.879  0.0447  0.0746 -0.6686
50534SOL    HW163581  11.041   1.555   5.936  0.1810 -0.3298 -0.4981
50534SOL    HW263582  11.031   1.447   5.831 -0.2221 -0.2283 -0.5652
50535SOL     OW63583   2.863   3.684   9.296 -0.1539  1.0474  0.1114
50535SOL    HW163584   2.904   3.756   9.248 -0.3351  1.7838  1.0257
50535SOL    HW263585   2.889   3.698   9.387 -0.2800  0.0065  0.3201
50536SOL     OW63586   2.905   7.281  10.258  0.2279 -0.4891  0.2409
50536SOL    HW163587   2.996   7.261  10.239  0.3004 -0.1261  0.1993
50536SOL    HW263588   2.909   7.359  10.313 -0.1513  1.2125 -1.9932
50537SOL     OW63589   3.918  13.345   8.304 -0.2968  0.1579 -0.3928
50537SOL    HW163590   3.874  13.426   8.329  2.6806  1.0743  2.4658
50537SOL    HW263591   3.885  13.279   8.365  1.4626  0.6407  1.1515
50538SOL     OW63592   5.909   8.019  12.075  0.3684  0.2022  0.0477
50538SOL    HW163593   5.948   8.089  12.127 -1.2655  1.3743 -0.2277
50538SOL    HW263594   5.931   8.041  11.985 -0.4038  0.5610 -0.0642
50539SOL     OW63595   3.602   0.215  13.760 -0.1420  0.4063 -0.6323
50539SOL    HW163596   3.519   0.182  13.726  1.0418 -0.4756 -2.8240
50539SOL    HW263597   3.645   0.139  13.799  0.3420  0.4823 -0.9995
50540SOL     OW63598  10.094   2.678  13.746  0.1643  0.3749 -0.1782
50540SOL    HW163599  10.119   2.605  13.689 -0.1167 -0.3760  0.6334
50540SOL    HW263600  10.161   2.745  13.730  0.8912 -0.3775 -0.3450
50541SOL     OW63601  13.412   1.359   3.087 -0.6448 -0.0341  0.4107
50541SOL    HW163602  13.429   1.298   3.159 -0.4482 -1.5085 -0.8344
50541SOL    HW263603  13.475   1.334   3.019 -2.3448 -0.2359 -1.1654
50542SOL     OW63604   5.669  12.188   5.410 -0.2769 -0.3157  0.0132
50542SOL    HW163605   5.648  12.102   5.374 -1.3543 -0.6657  1.3849
50542SOL    HW263606   5.764  12.188   5.419 -0.1983 -1.0668 -0.7121
50543SOL     OW63607   5.018   8.126  13.101 -0.6166 -0.6782  0.0090
50543SOL    HW163608   4.926   8.112  13.122 -0.2744 -1.3728  1.1455
50543SOL    HW263609   5.030   8.084  13.016 -1.7518  1.0701 -1.0701
50544SOL     OW63610  13.543  13.851  12.024  0.1709  0.0692  0.1624
50544SOL    HW163611  13.467  13.910  12.028 -0.3978 -0.6995  1.3470
50544SOL    HW263612  13.569  13.839  12.116  1.0178 -0.5882 -0.1501
50545SOL     OW63613  13.750   5.644  10.494  0.0176 -0.4383  0.3932
50545SOL    HW163614  13.794   5.711  10.547  0.3868  1.0477 -1.6883
50545SOL    HW263615  13.750   5.566  10.550  1.3896  0.7277  2.1287
50546SOL     OW63616   5.011   0.214   8.230  0.0650 -0.0898 -0.4999
50546SOL    HW163617   5.069   0.201   8.155  2.0767 -0.9581  1.1194
50546SOL    HW263618   5.000   0.127   8.267 -0.5498  0.3847  0.4703
50547SOL     OW63619  13.234   5.558  10.668 -0.4547 -0.3300 -0.0522
50547SOL    HW163620  13.199   5.472  10.693  0.3171 -1.1046 -1.5568
50547SOL    HW263621  13.329   5.545  10.664 -0.3057  0.6802 -0.0323
50548SOL     OW63622  11.592   9.148  11.600  0.5998 -0.0330  0.2857
50548SOL    HW163623  11.576   9.056  11.582  2.2146 -0.5232  1.1170
50548SOL    HW263624  11.687   9.155  11.603  0.5255  0.9732  3.4205
50549SOL     OW63625  10.579  10.375   1.349 -0.6096  0.7329  0.0308
50549SOL    HW163626  10.588  10.433   1.424  0.4390  0.3506  0.2177
50549SOL    HW263627  10.539  10.430   1.281 -2.3550  0.8423  1.1061
50550SOL     OW63628   6.680   6.205   2.233 -0.1059 -0.3571 -0.1065
50550SOL    HW163629   6.590   6.179   2.214 -0.9228  0.4679  2.2659
50550SOL    HW263630   6.684   6.297   2.207  0.0599 -0.3896 -0.1997
50551SOL     OW63631   2.966  12.861   6.183 -0.2186  0.2954 -0.4338
50551SOL    HW163632   2.972  12.936   6.242  3.5568 -0.6514  0.6604
50551SOL    HW263633   2.956  12.786   6.242 -1.7637 -0.2955 -1.3918
50552SOL     OW63634   9.289   0.855   4.087 -0.0669 -0.7548 -0.1742
50552SOL    HW163635   9.310   0.801   4.163  0.1925 -1.8393 -0.9913
50552SOL    HW263636   9.352   0.828   4.020 -1.2902 -0.9807 -1.2850
50553SOL     OW63637   3.997   0.649   4.120  0.3758  0.2531  0.0530
50553SOL    HW163638   4.060   0.583   4.089  0.2560  0.0794  0.1780
50553SOL    HW263639   3.913   0.621   4.083 -0.2611 -1.3742  2.5243
50554SOL     OW63640   6.056   1.180   4.743 -0.0644  0.3216  0.1478
50554SOL    HW163641   5.973   1.174   4.696 -1.0303  2.0126  1.5085
50554SOL    HW263642   6.048   1.259   4.796  1.6164 -0.5758  1.8774
50555SOL     OW63643   8.209   9.212   3.907 -0.2460  0.1223  0.1967
50555SOL    HW163644   8.168   9.285   3.953  1.0602  2.0436 -1.5050
50555SOL    HW263645   8.301   9.217   3.929  0.0425 -0.2970 -0.8248
50556SOL     OW63646  11.908  10.120   1.646  0.4061 -0.1630  0.7112
50556SOL    HW163647  11.859  10.059   1.590  1.2313 -0.0188 -0.1936
50556SOL    HW263648  11.851  10.196   1.654 -0.3795 -0.8083  1.3583
50557SOL     OW63649   5.032   1.328   6.350 -0.5217  0.0197 -0.1998
50557SOL    HW163650   5.053   1.331   6.443  0.6297  1.2225 -0.4770
50557SOL    HW263651   4.975   1.404   6.336  1.0179  1.1077 -0.8427
50558SOL     OW63652   2.651  11.305   6.636 -0.7757 -0.2300  0.1267
50558SOL    HW163653   2.588  11.373   6.661 -0.9513 -0.3400 -0.0067
50558SOL    HW263654   2.634  11.291   6.542 -0.2269  0.0770 -0.0225
50559SOL     OW63655   5.527  11.475   7.519 -0.2829 -0.3665 -0.3426
50559SOL    HW163656   5.473  11.554   7.519 -0.6804 -0.5747 -3.0476
50559SOL    HW263657   5.617  11.508   7.521 -0.4504  0.0998 -0.4121
50560SOL     OW63658   7.818   6.108  13.455  0.2239 -0.3930 -0.1090
50560SOL    HW163659   7.750   6.153  13.505 -1.0190 -2.8813  0.6035
50560SOL    HW263660   7.804   6.135  13.364 -2.1898 -1.3459 -0.0749
50561SOL     OW63661   4.837   9.200   1.041  0.1549  0.1322  0.4992
50561SOL    HW163662   4.810   9.264   1.107  0.1734 -0.5337  1.1643
50561SOL    HW263663   4.858   9.253   0.964 -1.2709  0.8166  0.5457
50562SOL     OW63664   6.481   9.935   2.580 -0.3188 -0.0286  0.3947
50562SOL    HW163665   6.409   9.992   2.606 -0.9312 -1.0834  1.0820
50562SOL    HW263666   6.486   9.944   2.485 -1.3062  0.1107  0.3502
50563SOL     OW63667   5.118   5.054   5.315 -0.1420  0.0730 -0.1220
50563SOL    HW163668   5.166   5.028   5.236 -1.3104  1.1617 -1.2421
50563SOL    HW263669   5.186   5.091   5.372  0.6467 -0.1556 -0.8798
50564SOL     OW63670   1.040   2.044   6.048  0.3467 -0.3426  0.1637
50564SOL    HW163671   1.052   1.994   6.128 -1.3368 -0.7687  0.1850
50564SOL    HW263672   0.947   2.036   6.028  0.6474  0.0912 -1.6137
50565SOL     OW63673  11.976  13.618  13.470 -0.0146  0.4253  0.0231
50565SOL    HW163674  11.975  13.570  13.387  0.6423 -1.8784  1.2583
50565SOL    HW263675  12.053  13.585  13.516 -0.8112  1.0215  1.8855
50566SOL     OW63676   0.688   6.745   1.686  0.2687 -0.5394  0.2190
50566SOL    HW163677   0.733   6.673   1.641 -0.6586 -0.7258 -0.4281
50566SOL    HW263678   0.657   6.706   1.768  1.3948 -0.3668  0.7556
50567SOL     OW63679   0.226   1.520   9.795 -0.2281 -0.3210  0.4385
50567SOL    HW163680   0.132   1.504   9.787  0.2006 -2.5604 -0.6231
50567SOL    HW263681   0.240   1.530   9.889 -1.1243 -3.0393  0.9348
50568SOL     OW63682   1.669   6.909  10.558 -0.4241  0.5224 -0.2064
50568SOL    HW163683   1.620   6.967  10.499 -1.9329  0.2547  0.7330
50568SOL    HW263684   1.646   6.821  10.528  0.0494  0.3917 -0.1883
50569SOL     OW63685   5.381  11.779  10.295 -0.1448  0.8931  0.8282
50569SOL    HW163686   5.318  11.716  10.331 -0.5086  0.7246 -0.0578
50569SOL    HW263687   5.330  11.858  10.280 -0.2132  0.6897 -0.0904
50570SOL     OW63688   1.736   7.475   5.130  0.0842  0.3370  0.5869
50570SOL    HW163689   1.680   7.406   5.093 -2.0132  2.2189  0.0049
50570SOL    HW263690   1.700   7.556   5.093  1.0878  1.9238  2.9135
50571SOL     OW63691   7.920   0.617   1.418  0.2230  0.4885  0.6931
50571SOL    HW163692   7.947   0.652   1.502  1.2050 -0.9225  0.9951
50571SOL    HW263693   7.997   0.573   1.383 -0.5569 -0.1659 -0.2923
50572SOL     OW63694  12.071   6.216   5.089 -0.0030  0.0615  0.4616
50572SOL    HW163695  11.981   6.196   5.116  0.1815 -1.1298  0.2369
50572SOL    HW263696  12.074   6.312   5.087 -1.8327  0.1468 -1.3905
50573SOL     OW63697  13.537   3.058  11.609  0.4445  0.2032  0.2235
50573SOL    HW163698  13.442   3.062  11.617  0.5001  0.9270  0.6586
50573SOL    HW263699  13.560   2.967  11.628 -0.1283  0.1166  0.5144
50574SOL     OW63700   9.712  11.278   2.678  0.0308 -0.6839  0.4900
50574SOL    HW163701   9.741  11.286   2.587  1.5644  0.0773  1.0013
50574SOL    HW263702   9.624  11.314   2.679  0.3642  0.1998 -0.5261
50575SOL     OW63703   6.083   5.193   7.891  0.2329  0.0178 -0.2942
50575SOL    HW163704   6.166   5.148   7.910  0.9631  1.1321 -0.7470
50575SOL    HW263705   6.053   5.224   7.977  0.5673  0.0651 -0.1911
50576SOL     OW63706  11.517   5.773  12.327  0.1695  0.1231  0.5820
50576SOL    HW163707  11.487   5.787  12.237 -0.4146 -0.3327  0.7013
50576SOL    HW263708  11.585   5.707  12.320  0.4445  0.4220  0.4238
50577SOL     OW63709   7.701   3.436  10.104 -0.1959  0.1609  0.0612
50577SOL    HW163710   7.715   3.471  10.192  0.5271  1.1918 -0.4422
50577SOL    HW263711   7.626   3.485  10.070  0.1447  0.4744 -0.2506
50578SOL     OW63712  12.156   1.523   2.460 -0.2196 -0.2335  0.1437
50578SOL    HW163713  12.192   1.579   2.391 -0.2934  2.5777  2.2019
50578SOL    HW263714  12.228   1.463   2.482 -0.7390 -2.4642 -3.3844
50579SOL     OW63715   8.287   6.795  11.523  0.0837 -0.5246  0.0664
50579SOL    HW163716   8.204   6.752  11.502  0.1866 -2.1849  2.6465
50579SOL    HW263717   8.354   6.740  11.484  0.0735  0.8509 -2.0729
50580SOL     OW63718  12.855  12.466   4.957 -0.7992 -0.1989  0.0762
50580SOL    HW163719  12.761  12.459   4.940 -1.2480 -0.8031  2.4652
50580SOL    HW263720  12.861  12.479   5.051  1.5988 -1.7963  0.2212
50581SOL     OW63721   7.977  13.501   2.224  0.0392 -0.1282  0.5122
50581SOL    HW163722   7.959  13.451   2.304  0.1744 -0.4919  0.3178
50581SOL    HW263723   7.945  13.445   2.153  1.4343 -0.5404  0.1902
50582SOL     OW63724   4.759   8.696  11.540  0.1153  0.0182 -0.0079
50582SOL    HW163725   4.722   8.765  11.595 -0.4975  0.3017 -0.7597
50582SOL    HW263726   4.818   8.649  11.598  1.5432  1.9429  0.2084
50583SOL     OW63727   4.097   8.082   8.293 -0.3540 -0.5852 -0.7679
50583SOL    HW163728   4.167   8.049   8.236  0.1271  0.8593 -1.0623
50583SOL    HW263729   4.142   8.103   8.375 -0.8941 -1.8663 -0.1174
50584SOL     OW63730  12.993   1.202   2.320  0.1388  0.2178 -0.8064
50584SOL    HW163731  13.067   1.177   2.265  0.3589  0.2158 -0.5084
50584SOL    HW263732  12.920   1.214   2.258  0.4130  0.3283 -1.1082
50585SOL     OW63733   4.735  10.349   0.066  0.9651  0.1047 -0.2087
50585SOL    HW163734   4.819  10.375   0.030  0.9969 -0.3627 -0.4878
50585SOL    HW263735   4.678  10.424   0.051  1.7136  1.0334  1.3829
50586SOL     OW63736   4.086   3.579  10.705 -0.0662  0.2080 -0.5788
50586SOL    HW163737   4.058   3.526  10.631 -0.9344  0.1833 -0.2481
50586SOL    HW263738   4.021   3.650  10.710 -0.9159 -0.6161  1.0442
50587SOL     OW63739  11.071  12.526   2.941 -0.1946 -0.5136 -0.0029
50587SOL    HW163740  11.112  12.538   3.027  0.7999 -0.2587 -0.4983
50587SOL    HW263741  11.144  12.520   2.880 -0.8409  2.0565 -1.2098
50588SOL     OW63742   5.129   0.868   2.760 -0.4591  0.2005  0.3573
50588SOL    HW163743   5.099   0.958   2.748 -2.1580 -0.2847  0.6673
50588SOL    HW263744   5.146   0.861   2.854 -3.4277 -0.6086  0.9545
50589SOL     OW63745   5.321   1.060   5.023  0.0806 -0.3956  0.0959
50589SOL    HW163746   5.302   1.071   5.116  0.8772  0.5213  0.1683
50589SOL    HW263747   5.244   1.016   4.988 -0.4822 -0.2313  1.0771
50590SOL     OW63748   3.917   7.992   1.101 -0.0654 -0.0823  0.1314
50590SOL    HW163749   4.012   7.989   1.090 -0.2009 -0.0461 -1.4079
50590SOL    HW263750   3.898   8.085   1.118  0.1508 -0.0207  0.0374
50591SOL     OW63751   1.409  12.579   3.961  0.0979 -0.1067  0.0579
50591SOL    HW163752   1.411  12.675   3.959 -1.2146 -0.0386  1.0105
50591SOL    HW263753   1.437  12.556   4.049 -1.2940 -0.5139  0.4122
50592SOL     OW63754   2.387   8.392  11.158 -0.0550 -0.7876  0.0713
50592SOL    HW163755   2.432   8.351  11.232  0.5768 -3.4249 -1.6307
50592SOL    HW263756   2.452   8.391  11.087 -1.2724 -0.2285 -1.1022
50593SOL     OW63757   5.040   6.298   7.738  0.5575  0.3935  0.4040
50593SOL    HW163758   5.127   6.258   7.730  0.0890 -0.8894  1.3056
50593SOL    HW263759   5.016   6.284   7.830 -1.5790 -1.4894 -0.3388
50594SOL     OW63760   2.943   9.274   8.800  0.4567 -0.1207  0.5990
50594SOL    HW163761   2.873   9.256   8.738  0.7663 -2.0915  0.7600
50594SOL    HW263762   2.912   9.237   8.882  0.5379  1.4628  1.3819
50595SOL     OW63763   3.023   6.045   1.959  0.2046  0.1904 -0.2480
50595SOL    HW163764   2.973   6.021   2.037  1.9349 -0.2170  0.7968
50595SOL    HW263765   3.099   6.093   1.992  2.0130 -1.6495 -1.4443
50596SOL     OW63766   8.172   9.259   9.291  0.0431  0.0974 -0.7951
50596SOL    HW163767   8.224   9.338   9.276  0.6416 -0.2654 -0.6486
50596SOL    HW263768   8.081   9.290   9.289  0.2486  0.6867 -1.3295
50597SOL     OW63769   9.104   4.027   8.225 -0.1346 -0.4986 -0.0098
50597SOL    HW163770   9.094   3.968   8.300 -0.3054 -1.7732 -0.9964
50597SOL    HW263771   9.021   4.021   8.178  0.6831 -1.3495 -1.4072
50598SOL     OW63772   1.807   0.242   6.831  0.0499  0.5844  0.0696
50598SOL    HW163773   1.841   0.227   6.742  1.4051 -0.2877  0.6980
50598SOL    HW263774   1.817   0.157   6.874 -2.9246  0.2807  0.3607
50599SOL     OW63775   3.577   4.594  10.700  0.8715 -1.0304 -0.2222
50599SOL    HW163776   3.571   4.514  10.648 -1.3074 -0.8150 -0.4023
50599SOL    HW263777   3.547   4.663  10.641  0.0637 -0.5122  0.7650
50600SOL     OW63778  13.411  13.679   1.617 -0.0481 -0.5263 -0.1204
50600SOL    HW163779  13.486  13.643   1.570  0.6925  1.6286 -0.6722
50600SOL    HW263780  13.440  13.765   1.646 -1.9226 -0.1334  0.6889
50601SOL     OW63781   4.352  11.448  12.746  0.2910 -0.3272  0.4161
50601SOL    HW163782   4.259  11.439  12.767  0.2238  0.6296  0.5686
50601SOL    HW263783   4.357  11.431  12.652 -0.3627  1.6006 -0.0105
50602SOL     OW63784   9.498  12.340   7.318 -0.2350  0.0649  0.1590
50602SOL    HW163785   9.458  12.304   7.238 -0.1512  1.2680 -0.4375
50602SOL    HW263786   9.482  12.273   7.385  0.9913 -1.6476 -1.1817
50603SOL     OW63787   9.572   3.306  13.722 -0.3746 -0.3187  0.0913
50603SOL    HW163788   9.574   3.335  13.813 -0.2104 -0.4645  0.1344
50603SOL    HW263789   9.494   3.251  13.716 -0.2032 -0.5816  0.2291
50604SOL     OW63790  12.987  10.520   4.363  0.2080 -0.6259 -0.4694
50604SOL    HW163791  12.992  10.592   4.300  0.9115 -0.8494 -0.6715
50604SOL    HW263792  13.078  10.499   4.384  0.0314  0.7667  2.1629
50605SOL     OW63793   9.278   8.513   7.788 -0.5020 -0.1242 -0.1450
50605SOL    HW163794   9.227   8.545   7.714  1.4921  1.4022 -0.9424
50605SOL    HW263795   9.345   8.457   7.749  1.4631  1.8304  0.2709
50606SOL     OW63796   7.939  10.920  11.243  1.0225 -0.5533 -0.0930
50606SOL    HW163797   7.893  10.869  11.177  1.6889  0.7507 -1.6317
50606SOL    HW263798   7.875  10.986  11.270  0.8142 -0.9685  0.4543
50607SOL     OW63799   9.676   2.138  12.904  0.4069 -0.0441  0.1293
50607SOL    HW163800   9.589   2.115  12.870 -0.8627  1.5125  2.0751
50607SOL    HW263801   9.736   2.114  12.834 -1.7615  0.5817 -2.1106
50608SOL     OW63802   4.637   7.515   0.413 -0.2148  0.0202 -0.7192
50608SOL    HW163803   4.645   7.420   0.411  0.5771  0.0504  0.2760
50608SOL    HW263804   4.722   7.546   0.381 -0.3261  0.3985 -0.6488
50609SOL     OW63805   5.564   6.357   9.223 -0.1332 -0.0046 -0.3403
50609SOL    HW163806   5.489   6.301   9.243  1.0233 -1.2044  0.8463
50609SOL    HW263807   5.593   6.328   9.137 -0.4288 -0.2351 -0.3647
50610SOL     OW63808   2.842  11.304  13.127 -0.1924 -0.2042  0.0015
50610SOL    HW163809   2.833  11.218  13.087  0.8072 -0.6763  0.7450
50610SOL    HW263810   2.753  11.340  13.128 -0.7144 -1.4424  0.1565
50611SOL     OW63811   4.586   1.479   2.029 -1.0058 -0.3431 -0.0850
50611SOL    HW163812   4.655   1.476   1.963  0.2048  0.0529  1.0952
50611SOL    HW263813   4.572   1.388   2.054  0.7615 -0.3129  1.2523
50612SOL     OW63814   7.085   7.976   6.873  0.4987 -0.9631  0.5351
50612SOL    HW163815   7.042   8.048   6.826 -0.2056 -1.2024  0.7967
50612SOL    HW263816   7.110   7.914   6.804 -1.6837 -1.9311  0.5151
50613SOL     OW63817   7.993  13.054   4.655  0.1361  0.1295  0.2806
50613SOL    HW163818   7.997  12.972   4.606  0.0574  1.9039 -2.9861
50613SOL    HW263819   8.073  13.054   4.708  0.4122 -1.7465 -0.0574
50614SOL     OW63820  11.103   9.129   7.255 -0.5792 -0.1414 -0.2470
50614SOL    HW163821  11.092   9.213   7.298  0.3525 -0.7590  1.2726
50614SOL    HW263822  11.180   9.140   7.199  0.9994 -0.6141  1.7370
50615SOL     OW63823  13.172  11.878   9.995  0.5280  0.0871 -0.0211
50615SOL    HW163824  13.228  11.808  10.027  0.4723  0.0830  0.0708
50615SOL    HW263825  13.094  11.834   9.961  0.8459  0.0529 -0.7177
50616SOL     OW63826   4.924  10.040  12.247 -0.5787 -0.8760 -0.4021
50616SOL    HW163827   4.975  10.083  12.316  0.4416 -0.9128 -1.1171
50616SOL    HW263828   4.989   9.997  12.192 -1.4584 -1.7808 -0.7687
50617SOL     OW63829   0.667   3.991   4.957 -0.7549 -0.0575 -0.2524
50617SOL    HW163830   0.659   4.046   4.879  2.0621 -0.6182 -1.0672
50617SOL    HW263831   0.602   4.026   5.018 -2.0035  1.3799 -2.2784
50618SOL     OW63832   3.901   8.219   8.092 -0.0807 -0.6621 -0.9732
50618SOL    HW163833   3.942   8.142   8.131  0.0061 -0.2237 -0.1937
50618SOL    HW263834   3.950   8.293   8.127 -0.6977 -0.2010 -1.0682
50619SOL     OW63835   9.758   7.326   1.060  0.4419 -0.1557  0.3804
50619SOL    HW163836   9.693   7.387   1.096 -1.6051 -1.4225 -0.9586
50619SOL    HW263837   9.774   7.263   1.131  0.0844  0.0758  0.6713
50620SOL     OW63838  11.953   2.341   7.542  0.1786 -0.4642 -0.1050
50620SOL    HW163839  11.968   2.328   7.448 -0.4675  1.8106 -0.5652
50620SOL    HW263840  12.038   2.365   7.577  0.0665  0.4675 -0.4563
50621SOL     OW63841   2.284   1.638   0.051 -0.6997  0.6656 -0.7700
50621SOL    HW163842   2.298   1.718  -0.001 -0.7696 -0.9183 -3.4206
50621SOL    HW263843   2.190   1.637   0.070 -0.3838  2.2328  1.2190
50622SOL     OW63844  11.560   3.437   9.001  0.5053  0.0204  0.1981
50622SOL    HW163845  11.652   3.465   9.004  0.4179  0.3650 -0.3072
50622SOL    HW263846  11.521   3.475   9.080  1.4419 -2.4800  1.9738
50623SOL     OW63847   0.772   2.721   3.733  0.1331 -0.1829  0.2718
50623SOL    HW163848   0.833   2.784   3.769 -0.9746  0.3818  1.2266
50623SOL    HW263849   0.747   2.666   3.807  1.2784 -1.9685 -0.5864
50624SOL     OW63850   0.432   2.739   2.741  0.1412  0.8176 -0.3286
50624SOL    HW163851   0.484   2.669   2.781  1.0277  0.2674 -2.3154
50624SOL    HW263852   0.492   2.781   2.680 -1.2441  1.3190 -1.3991
50625SOL     OW63853  13.456  11.113   5.113  0.0520  0.0318 -0.2683
50625SOL    HW163854  13.385  11.165   5.077  0.0843  1.0842  1.1285
50625SOL    HW263855  13.498  11.170   5.177  0.9569 -1.2377  0.3073
50626SOL     OW63856  12.202   2.646  13.274  0.1208 -0.0410  0.2585
50626SOL    HW163857  12.233   2.559  13.300  1.0720 -0.2705 -1.4803
50626SOL    HW263858  12.110   2.633  13.252  0.3360 -0.6881 -0.2870
50627SOL     OW63859  13.355  10.533  11.900  0.5588  0.2831  0.2461
50627SOL    HW163860  13.345  10.466  11.968 -0.3856 -0.2556 -0.3968
50627SOL    HW263861  13.332  10.615  11.944 -1.0558 -0.1819  0.3558
50628SOL     OW63862   7.650   5.488   3.120 -0.3045 -0.2112  0.3213
50628SOL    HW163863   7.687   5.404   3.092 -0.1789 -0.7462  1.9802
50628SOL    HW263864   7.602   5.467   3.200 -4.4731  0.3788 -1.7331
50629SOL     OW63865   9.155   2.548   9.958 -0.3732  0.5910 -0.1963
50629SOL    HW163866   9.178   2.636   9.989 -1.8888  0.4633  1.4648
50629SOL    HW263867   9.147   2.558   9.863 -0.9720  2.3677 -0.0044
50630SOL     OW63868  13.775  13.528   6.539  0.8414  0.1896 -0.2870
50630SOL    HW163869  13.869  13.537   6.556  0.5281  0.4855  1.5240
50630SOL    HW263870  13.737  13.610   6.570 -0.1639 -0.4951  0.3855
50631SOL     OW63871   2.869  11.268  13.457 -0.0586  0.0145  0.7319
50631SOL    HW163872   2.841  11.251  13.367 -0.0510 -0.0710  0.7455
50631SOL    HW263873   2.956  11.229  13.462  0.2627  0.7069  0.5489
50632SOL     OW63874  12.798   5.785  12.884  0.1243  0.0700 -0.1549
50632SOL    HW163875  12.799   5.852  12.952 -2.5674 -0.4949  0.5572
50632SOL    HW263876  12.858   5.718  12.915  0.4595  0.7326  0.6618
50633SOL     OW63877   1.917   1.364   5.634  0.3513 -0.5561 -0.2452
50633SOL    HW163878   1.934   1.381   5.726  0.2025 -0.2356 -0.2765
50633SOL    HW263879   1.823   1.373   5.624  0.1651 -2.1371 -0.1185
50634SOL     OW63880  11.201  13.640   1.242  0.6297  0.0940  0.0612
50634SOL    HW163881  11.153  13.705   1.293  0.9634  1.2152 -0.9973
50634SOL    HW263882  11.272  13.612   1.300  0.5314  0.7377  0.5054
50635SOL     OW63883  11.718   1.526   7.316 -0.1511  0.1580 -0.5399
50635SOL    HW163884  11.782   1.587   7.354 -0.3742  0.2154 -0.2516
50635SOL    HW263885  11.768   1.476   7.251  0.8202 -1.4517  1.3168
50636SOL     OW63886   0.688   6.335  13.858  0.1410 -0.3373 -0.2099
50636SOL    HW163887   0.719   6.412  13.904  2.7620 -2.1293  1.2989
50636SOL    HW263888   0.643   6.283  13.925 -0.2995 -0.8111 -0.8525
50637SOL     OW63889   9.056  13.610  11.627  0.4266  0.1506  0.5979
50637SOL    HW163890   9.050  13.705  11.631  1.2373  0.2492 -0.2418
50637SOL    HW263891   9.038  13.588  11.536  1.0128 -0.4337  0.6130
50638SOL     OW63892   4.898   0.562  12.206 -0.6457  0.0850 -0.1768
50638SOL    HW163893   4.834   0.492  12.217 -2.2958  1.6813  0.8674
50638SOL    HW263894   4.910   0.569  12.111 -0.0405 -1.9052 -0.2811
50639SOL     OW63895   9.760  11.070   1.026  0.0404  0.0684  0.2538
50639SOL    HW163896   9.766  10.996   0.966 -1.6337 -0.7308  0.9976
50639SOL    HW263897   9.817  11.047   1.099 -0.3749 -0.4521  0.4213
50640SOL     OW63898   6.831   1.024   9.715 -0.1483  0.1322  0.2535
50640SOL    HW163899   6.877   0.943   9.736  1.7090  0.6598 -1.5204
50640SOL    HW263900   6.762   0.997   9.654 -0.9401 -0.3566  1.3137
50641SOL     OW63901   3.900   9.734   9.430  0.4316 -0.2239 -0.0055
50641SOL    HW163902   3.820   9.693   9.398 -0.5253  0.7182  1.0870
50641SOL    HW263903   3.896   9.824   9.398  2.2357 -0.7411 -1.8968
50642SOL     OW63904   0.859   1.075   8.031 -0.1520 -0.0861 -0.3730
50642SOL    HW163905   0.833   1.146   7.973  0.0665 -0.4186 -0.8870
50642SOL    HW263906   0.919   1.116   8.094  1.6049 -0.1635 -1.8866
50643SOL     OW63907  10.756   6.306  10.796 -0.0061  0.3761 -0.0194
50643SOL    HW163908  10.718   6.392  10.812  0.0788  0.8110 -1.9862
50643SOL    HW263909  10.850   6.317  10.814 -0.2129  0.2843  1.1779
50644SOL     OW63910   0.563   5.425  11.176 -0.3881 -0.0016  0.2846
50644SOL    HW163911   0.571   5.439  11.270 -0.4973  0.9007  0.1651
50644SOL    HW263912   0.472   5.445  11.156 -0.3053  0.0455 -0.0544
50645SOL     OW63913  11.129  10.949   0.641 -0.0411  0.0182 -0.3577
50645SOL    HW163914  11.047  10.982   0.678  1.4943  1.2437  2.2306
50645SOL    HW263915  11.180  11.028   0.622  1.6713 -0.6975  0.9982
50646SOL     OW63916  13.306  10.970   0.627 -0.5676  0.5691 -0.1823
50646SOL    HW163917  13.262  11.038   0.576 -0.9553  0.4544 -0.0059
50646SOL    HW263918  13.267  10.888   0.596 -0.8582  0.5033  0.3458
50647SOL     OW63919  13.268   3.790   7.736  0.1814 -0.3608 -0.1009
50647SOL    HW163920  13.284   3.750   7.650  1.5935 -0.2087  0.0622
50647SOL    HW263921  13.269   3.884   7.719  1.7158 -0.2905  0.2482
50648SOL     OW63922  10.592   7.530  11.834 -0.2709 -0.0557 -0.4759
50648SOL    HW163923  10.673   7.571  11.801 -1.3185  1.7222 -0.9765
50648SOL    HW263924  10.589   7.553  11.926 -1.0383  1.4075 -0.8324
50649SOL     OW63925   1.416   2.552   9.809 -0.3710 -0.0859 -0.3528
50649SOL    HW163926   1.421   2.488   9.880  1.2769  1.1684  0.7643
50649SOL    HW263927   1.372   2.627   9.848  0.0586  0.4176 -0.8239
50650SOL     OW63928  12.069   7.766   9.541 -0.7252 -0.0935 -0.1763
50650SOL    HW163929  12.002   7.724   9.595 -0.2579  1.3812  1.6245
50650SOL    HW263930  12.144   7.706   9.545 -1.0222 -0.4609 -0.0164
50651SOL     OW63931  10.765   9.355  11.997  0.7112  0.6624  0.5562
50651SOL    HW163932  10.772   9.395  12.084  2.1144 -1.3330  1.4430
50651SOL    HW263933  10.848   9.308  11.985 -0.3661 -0.9989 -0.8752
50652SOL     OW63934   6.986   7.299  12.496  0.0392 -0.3673 -0.3565
50652SOL    HW163935   6.987   7.302  12.592  0.2013  1.0238 -0.3861
50652SOL    HW263936   6.921   7.232  12.475 -2.7557  1.7909  0.7267
50653SOL     OW63937   6.681   5.700  11.112  0.6384  0.3802  0.1156
50653SOL    HW163938   6.660   5.630  11.050  0.2370  1.0988 -0.5705
50653SOL    HW263939   6.739   5.758  11.063  1.7998  0.0256  1.0075
50654SOL     OW63940  10.627   1.023   5.888 -0.4642  0.1165 -0.7302
50654SOL    HW163941  10.693   1.091   5.902 -0.9528  0.1852  1.7556
50654SOL    HW263942  10.567   1.060   5.824  0.6139  1.0116 -1.2541
50655SOL     OW63943   0.462   9.476  13.344 -0.5107  0.0234 -0.4712
50655SOL    HW163944   0.543   9.487  13.295  0.4069 -0.5142  0.8787
50655SOL    HW263945   0.403   9.543  13.308  0.1779 -0.1992 -2.1285
50656SOL     OW63946   7.249   2.827   6.216  0.1618 -0.4064  0.3448
50656SOL    HW163947   7.294   2.761   6.164 -0.1570 -0.4494  0.1196
50656SOL    HW263948   7.271   2.910   6.173  2.1513 -0.1362  1.7480
50657SOL     OW63949   2.665   6.440   4.959 -0.3366  0.6408  0.1333
50657SOL    HW163950   2.622   6.525   4.962 -0.1741  0.7335 -0.1433
50657SOL    HW263951   2.698   6.433   4.869  0.1742  0.5495  0.3242
50658SOL     OW63952   2.322   6.572  11.268  0.6417 -0.7820 -0.1958
50658SOL    HW163953   2.347   6.583  11.360  0.4192 -1.1434 -0.0891
50658SOL    HW263954   2.227   6.577  11.268  0.7080  1.1557 -0.6843
50659SOL     OW63955   1.151   9.123   1.455  0.1937  0.0224 -0.4321
50659SOL    HW163956   1.146   9.136   1.360  3.2269 -0.7951 -0.7868
50659SOL    HW263957   1.230   9.169   1.482 -0.2518 -0.3130  1.6265
50660SOL     OW63958   0.657   9.625   1.359 -0.7006 -0.8981  0.5231
50660SOL    HW163959   0.747   9.619   1.329 -0.1317  1.4401  1.5035
50660SOL    HW263960   0.607   9.651   1.282 -0.7397 -2.9410 -0.2074
50661SOL     OW63961   2.068   5.689   3.616  0.8826 -0.4502 -0.0411
50661SOL    HW163962   2.009   5.616   3.596  0.6081 -0.1916 -0.1888
50661SOL    HW263963   2.028   5.733   3.692  0.4687  0.1826 -0.6151
50662SOL     OW63964   7.189  11.721   2.266  0.0335 -0.0410  0.4903
50662SOL    HW163965   7.206  11.637   2.308  0.8176 -0.6434 -0.9727
50662SOL    HW263966   7.098  11.715   2.236  0.5908 -1.1128 -1.1453
50663SOL     OW63967   0.796   6.729   7.173 -0.2180 -0.0139 -0.1059
50663SOL    HW163968   0.891   6.733   7.177 -0.0731 -1.7177 -0.7664
50663SOL    HW263969   0.775   6.641   7.203 -1.5115  0.0330 -0.8023
50664SOL     OW63970  10.631   9.854   8.538  0.3910 -0.1648 -0.5331
50664SOL    HW163971  10.725   9.837   8.547  0.1800 -1.3052 -0.2782
50664SOL    HW263972  10.595   9.772   8.504 -0.9625 -0.9391  2.4044
50665SOL     OW63973   9.592   2.152   1.634  0.0375  0.4913  0.2573
50665SOL    HW163974   9.601   2.222   1.699 -1.0847  0.4582  0.4658
50665SOL    HW263975   9.627   2.191   1.553 -0.5220  1.2853  0.3824
50666SOL     OW63976   7.818  12.458   2.719 -0.4612 -0.0943 -0.0439
50666SOL    HW163977   7.772  12.375   2.704  0.0198 -0.2415 -0.7919
50666SOL    HW263978   7.865  12.445   2.801  0.5030 -1.0016 -0.6943
50667SOL     OW63979  11.430   7.293   2.827 -0.1441  0.1227  0.2668
50667SOL    HW163980  11.395   7.204   2.822 -0.4091  0.3019 -1.7780
50667SOL    HW263981  11.423   7.327   2.738  0.5814  1.9659  0.8649
50668SOL     OW63982  11.552   9.152  13.792 -0.6305 -0.6968 -0.3879
50668SOL    HW163983  11.467   9.194  13.806 -0.6846 -0.7481 -0.5577
50668SOL    HW263984  11.536   9.091  13.719 -0.8082 -1.7567  0.5059
50669SOL     OW63985  11.686   3.331  13.489 -0.3977 -0.2620  0.3291
50669SOL    HW163986  11.780   3.315  13.484 -0.4502 -0.4737 -0.0029
50669SOL    HW263987  11.655   3.320  13.399 -0.6124  0.5922  0.2832
50670SOL     OW63988   6.094   4.460  13.827 -0.6151  0.0039  0.4635
50670SOL    HW163989   6.043   4.383  13.851 -0.7337  0.1273  0.6147
50670SOL    HW263990   6.029   4.530  13.821 -0.7128 -0.1899 -1.0672
50671SOL     OW63991   8.588  13.029  10.067  0.0495 -0.2038  0.5777
50671SOL    HW163992   8.608  13.070   9.983  0.2677  0.1330  0.7865
50671SOL    HW263993   8.517  12.968  10.048  1.7082 -1.9265 -0.3202
50672SOL     OW63994   0.004   1.443   6.006  0.2698  0.4075 -0.1038
50672SOL    HW163995  -0.020   1.512   6.068  1.2402  0.1354  0.6092
50672SOL    HW263996  -0.030   1.363   6.046  0.9785  0.2192  0.1388
50673SOL     OW63997   9.483   0.132  10.018  0.0567 -0.0321 -0.3358
50673SOL    HW163998   9.445   0.173  10.096 -0.2335 -1.9718  0.6164
50673SOL    HW263999   9.452   0.185   9.945 -0.7220  1.1054  0.7799
50674SOL     OW64000   6.964   3.633  10.566 -0.3089  0.3684 -0.7346
50674SOL    HW164001   6.930   3.694  10.632 -1.2487 -1.2478  0.3571
50674SOL    HW264002   7.059   3.636  10.576 -0.4662 -0.6229  1.4832
50675SOL     OW64003   9.251  12.495   2.759  0.1360 -0.0674 -1.2665
50675SOL    HW164004   9.284  12.580   2.730  1.4295  0.6974  1.9704
50675SOL    HW264005   9.227  12.508   2.851  1.0545 -3.3556 -0.4111
50676SOL     OW64006   8.658   0.216   4.046 -0.7253 -0.3250 -0.1435
50676SOL    HW164007   8.565   0.201   4.066 -0.5032 -0.1506  1.1106
50676SOL    HW264008   8.700   0.219   4.132  0.1209  1.7219 -0.5625
50677SOL     OW64009   7.296   2.335  11.958 -0.7777  0.2916  0.2734
50677SOL    HW164010   7.224   2.285  11.995  0.5823 -1.0436  1.2413
50677SOL    HW264011   7.290   2.421  11.999 -2.8673  0.8563 -1.0539
50678SOL     OW64012   2.402   9.953   6.250  0.1854  0.1223 -0.7474
50678SOL    HW164013   2.482  10.001   6.229  0.2995  0.0215 -0.5456
50678SOL    HW264014   2.430   9.887   6.313  0.0257 -0.1915 -1.0025
50679SOL     OW64015  10.700  11.035  11.362 -0.0362 -0.2537 -0.1003
50679SOL    HW164016  10.687  11.116  11.313  1.5987  0.2690  0.2716
50679SOL    HW264017  10.754  11.061  11.436 -1.2893 -1.3006  1.2332
50680SOL     OW64018  10.240  12.375   1.190  0.2471 -0.3555  0.0948
50680SOL    HW164019  10.301  12.426   1.243  0.2249 -1.0425  0.7888
50680SOL    HW264020  10.254  12.407   1.101  1.4724 -0.3549  0.2715
50681SOL     OW64021  10.429   5.231   0.309 -0.1304  0.0983 -0.5864
50681SOL    HW164022  10.368   5.295   0.345  1.2362  0.0993  1.9864
50681SOL    HW264023  10.378   5.151   0.301 -1.4783  1.0692 -2.4655
50682SOL     OW64024   0.511   0.766   5.251  0.0397 -0.1458 -0.4422
50682SOL    HW164025   0.488   0.674   5.263 -0.2978 -0.2562 -1.8179
50682SOL    HW264026   0.436   0.814   5.285  0.3390 -0.3563  0.5500
50683SOL     OW64027   0.188  11.677   8.153  0.2217  0.1695  0.4367
50683SOL    HW164028   0.138  11.621   8.212  0.3986 -0.8371 -0.3377
50683SOL    HW264029   0.226  11.744   8.210 -1.5005  0.6063  1.1159
50684SOL     OW64030   9.318   2.938   1.091 -0.1414 -0.4011 -0.0241
50684SOL    HW164031   9.316   3.033   1.077 -1.4442  0.1192  2.8906
50684SOL    HW264032   9.239   2.905   1.049  2.1321 -0.9820 -4.4737
50685SOL     OW64033  13.519  14.005  10.277 -0.3097 -0.1744  0.2295
50685SOL    HW164034  13.523  13.938  10.345  0.4659  0.4570  0.8262
50685SOL    HW264035  13.570  14.078  10.312  0.3495  0.0673 -1.1434
50686SOL     OW64036   0.079   4.325  12.951 -0.2378 -0.2141 -0.5174
50686SOL    HW164037   0.124   4.405  12.923 -1.9739  1.2340  0.6180
50686SOL    HW264038   0.150   4.263  12.970  1.1755  1.1812 -1.0244
50687SOL     OW64039   1.298   7.749   4.436 -0.1181  0.2751 -0.1687
50687SOL    HW164040   1.217   7.728   4.388 -0.7077  0.0784  0.8706
50687SOL    HW264041   1.282   7.715   4.524  1.4739 -0.6179 -0.1818
50688SOL     OW64042   2.647   4.610   5.243  0.1976 -0.9431  0.2287
50688SOL    HW164043   2.609   4.611   5.330 -0.9968 -0.9815 -0.2696
50688SOL    HW264044   2.741   4.604   5.257  0.0349 -0.6404  1.5089
50689SOL     OW64045   1.134   3.436   9.301  0.0997  0.1619  0.2334
50689SOL    HW164046   1.137   3.402   9.212  0.7259  2.9108 -0.8842
50689SOL    HW264047   1.069   3.506   9.298  0.8765  1.0041  1.6658
50690SOL     OW64048   7.475  11.409   2.812 -0.4382 -0.4594 -0.2100
50690SOL    HW164049   7.444  11.476   2.751 -0.9493 -1.9876 -1.7117
50690SOL    HW264050   7.412  11.337   2.802  1.2251 -1.9758 -0.2171
50691SOL     OW64051   1.616  11.970   2.672  0.1538  0.3649  0.1147
50691SOL    HW164052   1.621  12.063   2.651 -0.4811  0.2781 -0.4638
50691SOL    HW264053   1.704  11.937   2.655  0.6776  1.0501  1.3464
50692SOL     OW64054   0.884  13.737   5.513 -0.2891  0.1720  0.3576
50692SOL    HW164055   0.828  13.794   5.460 -2.2288 -1.1373  0.8701
50692SOL    HW264056   0.961  13.721   5.458 -1.4728  0.1935 -1.3887
50693SOL     OW64057   4.423  12.466   8.987  0.2470 -0.6386  0.2025
50693SOL    HW164058   4.499  12.433   9.035  0.5734 -1.0937 -0.6078
50693SOL    HW264059   4.427  12.421   8.902 -0.5864 -0.2117 -0.0726
50694SOL     OW64060   1.135  11.931   1.102 -0.3559  0.0875  0.1136
50694SOL    HW164061   1.044  11.901   1.100  0.1347 -1.6051  0.9855
50694SOL    HW264062   1.129  12.026   1.098 -2.1709  0.0263  0.4555
50695SOL     OW64063   2.821   0.047  12.717  0.1782  0.0027 -0.0783
50695SOL    HW164064   2.733   0.010  12.723 -0.2748  1.0389 -0.1355
50695SOL    HW264065   2.813   0.135  12.753  1.4946 -0.3503  1.2274
50696SOL     OW64066  10.684  10.140  13.883  0.2669 -0.2139 -0.1794
50696SOL    HW164067  10.634  10.215  13.914 -0.0237 -0.7584  0.7044
50696SOL    HW264068  10.770  10.175  13.861  0.8782  0.0411  2.3446
50697SOL     OW64069  12.148  10.817   7.661 -0.8400  0.2880  0.3482
50697SOL    HW164070  12.213  10.754   7.630 -1.2346  0.2800 -0.4842
50697SOL    HW264071  12.140  10.800   7.754 -1.7643 -1.6606 -0.0427
50698SOL     OW64072  12.246   7.142   2.808  0.0334  0.3272 -0.1748
50698SOL    HW164073  12.298   7.210   2.852 -0.2885  0.2190  0.3785
50698SOL    HW264074  12.298   7.119   2.731  0.5107  0.6656  0.0380
50699SOL     OW64075   9.086   8.514   5.027 -0.6714  0.2446 -0.4763
50699SOL    HW164076   9.016   8.579   5.019  0.3025  1.1689 -2.0373
50699SOL    HW264077   9.160   8.553   4.980  1.1622 -0.3566  1.7147
50700SOL     OW64078   3.391   5.763   8.693  0.1715 -0.1532 -0.3363
50700SOL    HW164079   3.338   5.685   8.711  0.2009 -0.0483  0.2132
50700SOL    HW264080   3.406   5.802   8.779 -2.1539  1.9815 -0.7737
50701SOL     OW64081   9.309   3.991  12.464 -0.0726 -0.0492 -0.1423
50701SOL    HW164082   9.308   4.073  12.513  1.3274 -0.6921  1.0234
50701SOL    HW264083   9.253   3.932  12.515 -0.1927 -0.1494 -0.3853
50702SOL     OW64084   0.674  10.899   1.244 -0.5436  0.4636  0.3538
50702SOL    HW164085   0.653  10.830   1.307  0.1703 -0.2591 -0.1857
50702SOL    HW264086   0.605  10.894   1.178 -0.1283 -0.1824 -0.0375
50703SOL     OW64087   2.064   2.099   3.384 -0.3241 -0.1541 -0.1128
50703SOL    HW164088   2.080   2.085   3.291  1.6477  0.3998  0.1066
50703SOL    HW264089   2.116   2.032   3.428 -1.2588 -0.4273  0.6024
50704SOL     OW64090  13.165   9.848   2.102 -0.3819 -0.3549  0.3909
50704SOL    HW164091  13.154   9.753   2.108 -2.3694 -0.1324  0.9774
50704SOL    HW264092  13.081   9.883   2.129  0.1913  1.5836 -0.2057
50705SOL     OW64093  13.091  14.028   6.330  0.1239  0.4273 -0.1193
50705SOL    HW164094  13.032  14.088   6.377  0.4680  1.5205 -1.0587
50705SOL    HW264095  13.143  14.084   6.273  2.8656 -0.3504  1.4251
50706SOL     OW64096   3.090   2.504   1.932 -0.2548  0.1767 -0.2841
50706SOL    HW164097   3.073   2.508   2.026 -0.6204  0.2861 -0.3552
50706SOL    HW264098   3.009   2.471   1.894  0.5624 -1.8348 -0.3600
50707SOL     OW64099   0.918   1.011   8.968 -0.2115  0.4507  0.1388
50707SOL    HW164100   0.963   1.094   8.978  1.7504 -0.2390 -2.1929
50707SOL    HW264101   0.919   0.973   9.056  0.3939  2.0913  0.8881
50708SOL     OW64102   4.181   2.368  12.661 -0.4210  0.7181  0.4715
50708SOL    HW164103   4.150   2.339  12.747 -0.0702  0.3795  0.4893
50708SOL    HW264104   4.141   2.454  12.648 -1.1535  0.4053  0.5996
50709SOL     OW64105  12.164  13.896   3.703  0.2626  0.0005 -0.1085
50709SOL    HW164106  12.216  13.961   3.751 -1.1123 -1.5163  3.7863
50709SOL    HW264107  12.107  13.949   3.647  2.1886  1.8871 -0.4342
50710SOL     OW64108  10.283   3.737   4.937 -0.0247 -0.9620  0.0692
50710SOL    HW164109  10.363   3.776   4.902  0.4989 -1.7436  0.3831
50710SOL    HW264110  10.311   3.692   5.017 -0.9245 -0.5570  0.6236
50711SOL     OW64111   6.190   8.778   1.948 -0.2623 -0.1432 -0.4264
50711SOL    HW164112   6.200   8.725   1.869  2.8208  0.0569 -0.2832
50711SOL    HW264113   6.207   8.867   1.919  2.1101 -0.2084  0.5984
50712SOL     OW64114   5.827  13.527   8.183  0.1518 -0.5639  0.6719
50712SOL    HW164115   5.759  13.581   8.223  0.8254  0.3977  0.5517
50712SOL    HW264116   5.907  13.579   8.190  0.2366 -0.1384 -2.2612
50713SOL     OW64117   4.936   5.214   9.356 -0.6852 -0.1662  0.0927
50713SOL    HW164118   4.855   5.258   9.383 -0.7098 -1.5007  2.3990
50713SOL    HW264119   4.962   5.260   9.275 -4.2623 -0.3957 -1.3548
50714SOL     OW64120  10.918   0.351   4.670  0.2483 -0.6258  0.6932
50714SOL    HW164121  11.013   0.347   4.654 -0.1962  0.1799 -3.0297
50714SOL    HW264122  10.897   0.444   4.663 -0.9759 -0.9058  0.4277
50715SOL     OW64123   9.860   7.411  11.889 -0.0884 -0.1344 -0.1331
50715SOL    HW164124   9.914   7.432  11.813 -0.7510  3.3504  0.1698
50715SOL    HW264125   9.923   7.389  11.958  0.7361  0.2740 -0.7382
50716SOL     OW64126  13.306  13.952  13.973  0.3209 -0.0821 -0.2809
50716SOL    HW164127  13.253  13.925  14.047 -1.4874  1.5517 -0.9053
50716SOL    HW264128  13.289  13.888  13.905  0.9330 -0.8162  0.2383
50717SOL     OW64129   5.913   1.768   3.834  0.3221  0.2152  0.0090
50717SOL    HW164130   5.926   1.684   3.790 -1.2585  0.3211 -0.7577
50717SOL    HW264131   5.900   1.745   3.926  1.0677 -0.2683 -0.0031
50718SOL     OW64132   1.332  10.015   4.489  0.2378 -0.0776  0.2058
50718SOL    HW164133   1.400  10.069   4.450 -0.2195  0.2408 -0.1606
50718SOL    HW264134   1.376   9.969   4.561  1.1236 -0.7631 -0.7517
50719SOL     OW64135   6.464   9.950   6.530 -0.0513  0.0823  0.0304
50719SOL    HW164136   6.559   9.956   6.541  0.2527 -2.0260 -0.9878
50719SOL    HW264137   6.452   9.932   6.437 -1.3448 -1.1260  0.3990
50720SOL     OW64138   5.990   0.982   2.531 -0.1001 -0.1380  0.2014
50720SOL    HW164139   6.029   0.894   2.535 -0.9571 -0.5891 -0.7193
50720SOL    HW264140   5.934   0.979   2.453 -1.3444  0.7275  1.0172
50721SOL     OW64141   7.782   0.198   0.081  0.6035 -0.0072  0.6493
50721SOL    HW164142   7.738   0.130   0.030  1.1353 -0.3072  0.5795
50721SOL    HW264143   7.753   0.280   0.041  0.0495 -0.1941  0.6572
50722SOL     OW64144   1.208   8.190   1.191 -0.0123  0.1819  0.4237
50722SOL    HW164145   1.263   8.262   1.160  0.7733 -0.6225 -0.1162
50722SOL    HW264146   1.222   8.120   1.126 -1.3810 -0.1744  0.4883
50723SOL     OW64147  10.678   3.868  13.708 -0.3562 -0.2595  0.1323
50723SOL    HW164148  10.750   3.930  13.720  0.3960 -0.9658 -0.5304
50723SOL    HW264149  10.599   3.921  13.710  0.0240  0.3350  2.6046
50724SOL     OW64150   9.262   4.026  11.556  0.2685  0.0421 -0.0020
50724SOL    HW164151   9.248   4.103  11.611 -2.4471  0.1530 -0.7087
50724SOL    HW264152   9.310   3.965  11.613 -0.7681  0.8665  1.8555
50725SOL     OW64153   4.820   7.521   6.023  0.2379 -0.3066  0.0954
50725SOL    HW164154   4.874   7.562   6.090 -0.2211 -0.4739  0.5818
50725SOL    HW264155   4.743   7.490   6.071  1.6510 -4.0530  0.3029
50726SOL     OW64156   2.466  13.830   5.678 -0.5065 -0.0214 -0.2151
50726SOL    HW164157   2.393  13.887   5.653  0.8466  1.0950 -1.9038
50726SOL    HW264158   2.510  13.810   5.596 -0.0017 -2.2788  0.5317
50727SOL     OW64159   1.865  12.730   3.019  0.5034  0.6522 -0.3458
50727SOL    HW164160   1.802  12.664   3.049 -0.9797  2.2947  0.3491
50727SOL    HW264161   1.923  12.682   2.960 -0.6025 -1.2229 -0.0202
50728SOL     OW64162   3.837   8.331   4.385  0.1980 -0.6642  0.3169
50728SOL    HW164163   3.762   8.389   4.396 -0.4361 -0.9336 -2.0258
50728SOL    HW264164   3.910   8.379   4.424 -0.7982  0.5623  0.7330
50729SOL     OW64165   9.542   4.460   9.509  0.9908  0.4513  0.1973
50729SOL    HW164166   9.465   4.513   9.487 -0.2543 -1.7266 -1.2295
50729SOL    HW264167   9.616   4.519   9.499 -0.3711  2.1901 -0.1643
50730SOL     OW64168  11.139   2.911   7.817 -0.7416 -0.4781 -0.7629
50730SOL    HW164169  11.198   2.838   7.797 -0.0389 -0.2324  0.2966
50730SOL    HW264170  11.141   2.966   7.739  1.1649 -0.0145 -0.4479
50731SOL     OW64171   1.997   1.307   7.181 -0.1833 -0.3502  1.1673
50731SOL    HW164172   2.081   1.321   7.224 -1.6181 -0.4839  4.2868
50731SOL    HW264173   1.954   1.392   7.183 -0.2674 -0.3443 -0.1276
50732SOL     OW64174   0.919  12.876   3.655 -0.3764 -0.4988  0.1248
50732SOL    HW164175   0.869  12.838   3.728 -1.7807  1.0113  0.0023
50732SOL    HW264176   0.939  12.965   3.683 -1.1382  0.1783 -1.4046
50733SOL     OW64177   4.858   3.767   4.183 -0.4422 -0.0179 -0.1156
50733SOL    HW164178   4.828   3.784   4.272 -0.2786 -0.7700  0.0915
50733SOL    HW264179   4.907   3.846   4.158  1.3979 -0.6554  1.2789
50734SOL     OW64180  12.281  11.464   9.835  0.3991 -0.5435  1.1129
50734SOL    HW164181  12.236  11.423   9.909  0.6176  0.6863  1.9621
50734SOL    HW264182  12.231  11.544   9.819  1.0985 -0.1733  0.7485
50735SOL     OW64183   7.864   0.198  11.553 -0.2632 -0.0842  0.3478
50735SOL    HW164184   7.788   0.145  11.579  0.4762 -0.6890  1.3378
50735SOL    HW264185   7.910   0.215  11.635 -0.6729  2.4380  0.1210
50736SOL     OW64186   2.474  12.063  13.958  0.3256  0.3811 -0.4162
50736SOL    HW164187   2.471  12.017  14.042  1.6597 -1.5385 -1.3620
50736SOL    HW264188   2.540  12.131  13.971 -1.0352  1.5622  0.7156
50737SOL     OW64189   7.980   1.809  12.815 -0.4320  0.2552  0.4090
50737SOL    HW164190   7.947   1.842  12.732 -0.4810 -0.7815  0.0031
50737SOL    HW264191   7.961   1.715  12.813  0.1441  0.1053  1.3139
50738SOL     OW64192  10.235  13.920   4.284 -0.3110 -0.2518 -0.7307
50738SOL    HW164193  10.144  13.941   4.259  0.0453 -0.2303 -2.1189
50738SOL    HW264194  10.283  14.001   4.267  0.2229 -0.7122 -1.4951
50739SOL     OW64195   1.617  11.456   7.817  0.2081 -0.3750  0.6286
50739SOL    HW164196   1.685  11.516   7.783 -0.6207  1.1469  1.5663
50739SOL    HW264197   1.662  11.372   7.824  1.3862  0.0703 -0.8665
50740SOL     OW64198   3.399   7.093  12.687 -0.2447  0.1605  0.3703
50740SOL    HW164199   3.315   7.092  12.731  0.5528 -1.2688  2.0037
50740SOL    HW264200   3.458   7.138  12.747  0.6171 -0.8163  0.3055
50741SOL     OW64201   1.834   7.288   7.076 -0.3572  0.6307  0.2638
50741SOL    HW164202   1.747   7.302   7.113 -1.1168  2.3781 -1.9631
50741SOL    HW264203   1.868   7.375   7.058  2.0165  0.0082  1.2612
50742SOL     OW64204  11.341   4.780   6.316 -0.2037  0.0455  0.3025
50742SOL    HW164205  11.301   4.701   6.278  0.0241  0.6178 -1.1652
50742SOL    HW264206  11.386   4.748   6.394 -1.6202 -0.9876  0.7419
50743SOL     OW64207   5.723   7.184   9.948  0.3099  0.8329 -0.0977
50743SOL    HW164208   5.729   7.184  10.044  1.9716  0.8960 -0.1703
50743SOL    HW264209   5.798   7.133   9.919 -0.4941  0.3241 -1.3759
50744SOL     OW64210   9.396  12.720   3.134 -0.1700  0.1267  0.0110
50744SOL    HW164211   9.469  12.658   3.144 -0.4017 -0.1652 -0.1169
50744SOL    HW264212   9.419  12.792   3.193  0.3512  0.1572 -0.2201
50745SOL     OW64213  10.252   4.867   1.408  0.1051  0.8718 -0.0954
50745SOL    HW164214  10.246   4.947   1.356  0.9836  0.3008 -1.1346
50745SOL    HW264215  10.235   4.796   1.345 -0.7037  0.2317  0.8089
50746SOL     OW64216   9.636   1.878   8.746  0.1212 -0.3046 -0.3321
50746SOL    HW164217   9.656   1.846   8.658  0.1239 -1.0337 -0.0713
50746SOL    HW264218   9.573   1.815   8.781 -0.6218  0.5053 -0.1574
50747SOL     OW64219  11.498   8.545   1.846  0.0232 -0.5797  0.1526
50747SOL    HW164220  11.473   8.488   1.918 -1.6994  1.0331  0.8977
50747SOL    HW264221  11.562   8.605   1.883  0.8440 -1.1486 -0.2944
50748SOL     OW64222  11.910   1.741   5.018 -0.4386 -0.0897  0.0367
50748SOL    HW164223  12.000   1.773   5.027 -1.0493  2.2653 -1.2114
50748SOL    HW264224  11.865   1.775   5.095 -0.3739 -0.8768  0.4280
50749SOL     OW64225   0.521  11.728   7.393  0.7636 -0.5970 -0.5368
50749SOL    HW164226   0.499  11.820   7.383  1.2712 -0.2211  1.2931
50749SOL    HW264227   0.453  11.693   7.451  2.0370 -0.6699  0.9867
50750SOL     OW64228   7.921   6.318   7.837 -0.1087  1.0234 -0.0148
50750SOL    HW164229   7.955   6.267   7.764  0.9652  2.1386 -0.3381
50750SOL    HW264230   7.872   6.256   7.890 -0.2922  0.0413 -1.2970
50751SOL     OW64231   4.535   5.933   9.135  0.2725 -0.2395 -0.1151
50751SOL    HW164232   4.598   5.939   9.207  0.3556  0.9698 -0.2641
50751SOL    HW264233   4.583   5.966   9.059  0.4789 -2.3232 -0.9628
50752SOL     OW64234  10.423   0.485   5.247  0.8258  0.4448  0.0007
50752SOL    HW164235  10.408   0.429   5.324  1.2459 -0.0339 -0.2607
50752SOL    HW264236  10.412   0.426   5.173 -1.9254  1.3600 -0.4618
50753SOL     OW64237  13.985  12.779  11.511  0.1060  0.1235 -0.5484
50753SOL    HW164238  13.915  12.717  11.490  0.2303  0.1562 -1.0796
50753SOL    HW264239  13.989  12.837  11.436  0.2443  0.5501 -0.2158
50754SOL     OW64240   9.663   0.439  12.423  0.0290  0.1385  0.1222
50754SOL    HW164241   9.640   0.375  12.356  2.7930 -0.3471 -0.4955
50754SOL    HW264242   9.686   0.518  12.374  0.7733  0.2111  0.5733
50755SOL     OW64243   2.548   0.796   9.560  0.3135 -0.3822 -0.2783
50755SOL    HW164244   2.458   0.798   9.591  0.5096 -0.1737  0.2808
50755SOL    HW264245   2.547   0.736   9.485 -0.6136  0.8467 -1.2829
50756SOL     OW64246   0.971   4.691   4.985  0.0244  0.2101  0.3395
50756SOL    HW164247   0.882   4.713   5.011  0.1302  0.1126  0.7944
50756SOL    HW264248   1.018   4.775   4.988 -0.1242  0.3195 -0.2203
50757SOL     OW64249  12.556  13.639  11.182 -0.6284 -0.0414 -0.1744
50757SOL    HW164250  12.465  13.653  11.208 -1.3890 -1.5040 -1.8756
50757SOL    HW264251  12.572  13.703  11.114 -1.1654 -1.2717 -1.5008
50758SOL     OW64252   3.440  10.214   0.074  0.0209 -0.1176  0.1971
50758SOL    HW164253   3.378  10.246   0.009 -1.3872  0.6373  1.8243
50758SOL    HW264254   3.431  10.119   0.070 -1.9464 -0.0185  0.9776
50759SOL     OW64255  10.029   7.148  10.794  0.7535 -0.0736  0.1106
50759SOL    HW164256  10.016   7.081  10.726  1.1740  1.1799 -1.2460
50759SOL    HW264257   9.948   7.199  10.792  2.3689  2.7178 -2.6692
50760SOL     OW64258  11.978  13.219   1.544 -0.2412 -0.4236 -0.6841
50760SOL    HW164259  11.961  13.277   1.618  0.4724  1.3663 -1.8624
50760SOL    HW264260  11.930  13.139   1.565  0.5288 -0.2847  2.0619
50761SOL     OW64261  11.661   3.533   3.776 -0.1433 -0.4968 -0.8143
50761SOL    HW164262  11.680   3.470   3.846  0.1261 -0.3186 -0.7272
50761SOL    HW264263  11.566   3.529   3.766 -0.2576 -0.1072 -0.0372
50762SOL     OW64264   4.408   7.664  12.869 -0.2646  0.6257 -0.2371
50762SOL    HW164265   4.442   7.575  12.868  1.0334  1.0986 -0.3422
50762SOL    HW264266   4.325   7.659  12.822 -0.4534 -0.6137  0.1966
50763SOL     OW64267   6.675   3.197  13.279 -0.2571 -0.3372  0.4198
50763SOL    HW164268   6.606   3.189  13.345 -0.6347 -0.5455  0.0059
50763SOL    HW264269   6.680   3.290  13.259 -1.5509 -0.4859 -0.7260
50764SOL     OW64270   6.277   4.686  12.769  0.0137  0.0860  0.1999
50764SOL    HW164271   6.326   4.641  12.838 -2.1249 -0.7835  1.2507
50764SOL    HW264272   6.343   4.735  12.720  2.1211 -2.1577  0.6079
50765SOL     OW64273   6.763   9.079   6.343 -0.3630 -0.4194  0.3006
50765SOL    HW164274   6.832   9.037   6.291 -2.6499 -2.0239 -1.6260
50765SOL    HW264275   6.695   9.013   6.350 -2.2844  1.5262  0.9972
50766SOL     OW64276   4.153   6.644   9.386 -0.2042 -0.4811 -0.9043
50766SOL    HW164277   4.126   6.552   9.384  1.0492 -1.0038  1.7860
50766SOL    HW264278   4.248   6.642   9.373 -0.2991  0.5891 -2.0113
50767SOL     OW64279   1.302  10.907   2.201  0.8599  0.3985  0.2324
50767SOL    HW164280   1.273  10.955   2.123 -1.4944 -1.0905  0.0772
50767SOL    HW264281   1.355  10.835   2.167 -0.4956 -0.4852 -0.0943
50768SOL     OW64282   2.840  13.154   2.872  0.1843 -0.0962  0.3219
50768SOL    HW164283   2.834  13.232   2.817 -2.4758  0.8071  1.7029
50768SOL    HW264284   2.793  13.087   2.823 -1.5191  0.5005  1.0479
50769SOL     OW64285  10.688   0.328   7.838 -0.1230 -0.6343 -0.6895
50769SOL    HW164286  10.771   0.281   7.833 -0.4458 -1.3048 -0.0987
50769SOL    HW264287  10.706   0.402   7.896  0.0987 -0.7105 -0.6597
50770SOL     OW64288   6.797  10.699   4.130 -0.0745 -0.1235  0.2492
50770SOL    HW164289   6.757  10.619   4.162  0.4074 -0.3248  0.3464
50770SOL    HW264290   6.806  10.686   4.035  0.7608 -0.5234  0.3745
50771SOL     OW64291   0.480  12.202   5.240 -0.4284 -0.1367 -0.1220
50771SOL    HW164292   0.533  12.228   5.165 -0.8196 -0.8144 -0.6505
50771SOL    HW264293   0.434  12.282   5.266  1.0622  0.5372  0.5402
50772SOL     OW64294  10.026   3.638  13.426 -0.5088 -0.5643 -0.0239
50772SOL    HW164295  10.059   3.714  13.475  0.9212 -1.5599  0.6010
50772SOL    HW264296   9.939   3.665  13.398  0.0377  1.4001 -0.0022
50773SOL     OW64297   1.021   3.301   7.873  0.2382 -0.2153 -0.1107
50773SOL    HW164298   0.990   3.328   7.959  0.3464  0.0850 -0.1643
50773SOL    HW264299   1.106   3.344   7.863  0.2585 -0.3054 -0.3348
50774SOL     OW64300   0.798   0.919  11.611  0.3522 -0.1198 -0.0683
50774SOL    HW164301   0.706   0.897  11.625  0.0683  0.1364 -1.3849
50774SOL    HW264302   0.801   0.956  11.523  1.7676 -0.4174 -0.1763
50775SOL     OW64303   8.014  10.057   9.107  0.1173 -0.2241 -0.0550
50775SOL    HW164304   7.964  10.133   9.135  0.8340 -0.4471  2.0000
50775SOL    HW264305   7.956   9.983   9.125 -0.1031 -0.2718 -0.9035
50776SOL     OW64306   5.155   7.315   6.271  0.1058  0.1681  0.2523
50776SOL    HW164307   5.202   7.331   6.189  2.2446  2.3693  1.7826
50776SOL    HW264308   5.207   7.248   6.316 -0.3776 -0.1454  0.3498
50777SOL     OW64309   2.744   4.088   1.441 -0.3369  0.0063  0.1180
50777SOL    HW164310   2.802   4.072   1.367 -1.2503 -0.1614 -0.5944
50777SOL    HW264311   2.697   4.169   1.418 -1.0536 -0.3691  0.2096
50778SOL     OW64312   7.899   1.199   6.736  0.2503  0.5828 -0.0233
50778SOL    HW164313   7.879   1.176   6.827  1.1849 -0.8083 -0.1419
50778SOL    HW264314   7.929   1.117   6.696 -0.1315  1.1728 -1.5948
50779SOL     OW64315  10.079   2.562  10.441  0.3845 -0.2801 -0.5243
50779SOL    HW164316  10.061   2.592  10.530  0.2944 -0.4141 -0.4972
50779SOL    HW264317  10.157   2.508  10.449  1.1502  0.7551 -0.7266
50780SOL     OW64318   4.250   0.024   5.968  0.5375 -0.0636 -0.2599
50780SOL    HW164319   4.264   0.118   5.957  1.3206 -0.2103 -0.6046
50780SOL    HW264320   4.332  -0.008   6.006  0.3253 -0.6262 -0.2674
50781SOL     OW64321   7.028   3.428   8.079  0.2919  0.0034 -0.2215
50781SOL    HW164322   6.985   3.343   8.087  1.7842 -0.8494 -0.7260
50781SOL    HW264323   6.957   3.489   8.059 -0.7517 -1.2097 -0.3796
50782SOL     OW64324  10.206   7.095  10.996 -0.5578 -0.4525 -0.2344
50782SOL    HW164325  10.144   7.130  11.061  0.2350 -0.3374  0.4756
50782SOL    HW264326  10.171   7.124  10.912 -1.6202 -0.6144  0.1289
50783SOL     OW64327   6.159   2.514   5.920  0.2952 -0.0706 -0.4594
50783SOL    HW164328   6.234   2.458   5.902 -0.8087 -2.7821  2.4157
50783SOL    HW264329   6.139   2.499   6.013 -4.2505 -0.1745 -1.2196
50784SOL     OW64330   6.524  11.693   1.646 -0.6748  0.3388  0.3458
50784SOL    HW164331   6.461  11.762   1.668 -0.0681  0.8962  0.3748
50784SOL    HW264332   6.607  11.723   1.685 -0.8856 -1.5433  2.4177
50785SOL     OW64333   7.148   2.857  13.080 -0.6257 -0.2332  0.3159
50785SOL    HW164334   7.186   2.936  13.119 -0.7542 -1.0809  2.2829
50785SOL    HW264335   7.057   2.858  13.108 -1.2282  0.0329 -1.5378
50786SOL     OW64336  11.998   0.406   1.427  0.1536 -0.4333 -0.5409
50786SOL    HW164337  11.979   0.315   1.448 -0.8077  0.4187  2.7971
50786SOL    HW264338  12.085   0.422   1.464 -0.3814  0.4143  0.3825
50787SOL     OW64339   7.954   2.052  10.218 -0.4771 -0.3481  0.2125
50787SOL    HW164340   8.045   2.081  10.214 -0.5938 -0.0737 -0.6752
50787SOL    HW264341   7.904   2.133  10.226 -0.6266 -0.5281  1.2655
50788SOL     OW64342   1.004   9.974   5.824 -0.2989  0.5153 -0.1453
50788SOL    HW164343   1.001  10.023   5.742 -1.4947 -0.3547 -0.6368
50788SOL    HW264344   1.002   9.882   5.798 -1.7442  0.2272  0.8739
50789SOL     OW64345  11.416   1.680  10.600 -0.0554 -0.2618 -0.5169
50789SOL    HW164346  11.501   1.704  10.562  0.4240  1.4420  1.4303
50789SOL    HW264347  11.352   1.699  10.532  0.8442  1.6362 -0.8817
50790SOL     OW64348  10.944   3.505   7.443 -0.0424 -0.0734 -0.5802
50790SOL    HW164349  11.039   3.498   7.434 -0.0056 -0.9960  0.3440
50790SOL    HW264350  10.925   3.465   7.528 -1.0068  2.2245  0.3717
50791SOL     OW64351   0.903   7.853   8.539 -0.0020 -0.0079 -0.1564
50791SOL    HW164352   0.854   7.906   8.476 -0.8701  1.1184  1.4046
50791SOL    HW264353   0.989   7.893   8.542 -0.6143  1.2750  0.9201
50792SOL     OW64354   2.218   6.260   8.950 -0.6108  0.4456 -0.3599
50792SOL    HW164355   2.233   6.322   8.879  1.0075  1.0466  0.4633
50792SOL    HW264356   2.296   6.205   8.952 -0.6224  0.4265  0.9322
50793SOL     OW64357   6.737   7.871   9.413  0.4620 -0.5844 -0.1699
50793SOL    HW164358   6.703   7.823   9.489  1.2902 -0.8555  0.0425
50793SOL    HW264359   6.690   7.954   9.415 -0.0018 -0.8458  0.2542
50794SOL     OW64360   9.731   2.602  11.929 -0.0256 -0.0995  0.3422
50794SOL    HW164361   9.748   2.682  11.979  1.9784 -0.6199  0.5560
50794SOL    HW264362   9.818   2.567  11.908 -0.8458 -1.5359 -0.8704
50795SOL     OW64363   1.239   3.184   5.598 -0.0284  0.4433 -0.2144
50795SOL    HW164364   1.151   3.146   5.602  0.2064 -0.0396  0.9425
50795SOL    HW264365   1.255   3.199   5.505 -1.2207  0.2717 -0.4623
50796SOL     OW64366   3.465  13.449   6.115 -0.3623  0.0693 -0.1583
50796SOL    HW164367   3.430  13.538   6.122 -1.1361 -0.2114 -0.3412
50796SOL    HW264368   3.473  13.419   6.206 -1.4793 -0.1890 -0.1291
50797SOL     OW64369  12.690   6.880   2.635  0.2953 -0.7677 -0.0750
50797SOL    HW164370  12.777   6.848   2.656  0.5233  1.3648  2.8228
50797SOL    HW264371  12.645   6.886   2.720 -1.5376  1.2099 -1.0645
50798SOL     OW64372  13.100   5.959  13.208  0.2408 -0.3096  0.7568
50798SOL    HW164373  13.056   5.880  13.240  0.5654 -0.8270 -0.0468
50798SOL    HW264374  13.076   6.027  13.271 -1.7570 -0.5568  0.3256
50799SOL     OW64375   3.355   1.325  10.428 -0.4358 -0.7789  0.0734
50799SOL    HW164376   3.280   1.291  10.476 -0.2217  0.5935  1.4767
50799SOL    HW264377   3.360   1.271  10.349 -2.0397 -1.7924  0.6164
50800SOL     OW64378   9.320   2.445   6.143  0.0927  0.3736 -0.1196
50800SOL    HW164379   9.397   2.405   6.104  0.1331 -1.1795  1.4640
50800SOL    HW264380   9.329   2.430   6.237 -1.1510  1.9390  0.3019
50801SOL     OW64381   8.189   5.696   4.832  0.2828 -0.0069  0.4387
50801SOL    HW164382   8.281   5.713   4.813  0.5686 -0.1478  1.6176
50801SOL    HW264383   8.181   5.600   4.830 -0.1161  0.0334 -0.8192
50802SOL     OW64384   1.143   5.020   6.832 -0.2377 -0.3667 -0.0508
50802SOL    HW164385   1.119   5.003   6.923  0.9508  1.7502  0.7230
50802SOL    HW264386   1.060   5.037   6.789 -0.7375 -0.3575  0.8849
50803SOL     OW64387   1.925   1.500   6.239 -0.5054 -0.5000  0.6433
50803SOL    HW164388   1.906   1.588   6.273  2.0678  1.0221 -1.5155
50803SOL    HW264389   1.899   1.503   6.147 -0.2111 -1.9812  0.4826
50804SOL     OW64390   1.952  13.232   4.699  0.7960 -0.0814 -0.1545
50804SOL    HW164391   1.968  13.301   4.635  0.7911  0.4868  0.4495
50804SOL    HW264392   2.034  13.224   4.746  0.2417  0.8388  1.0319
50805SOL     OW64393   6.958  12.476   8.408  0.3910 -0.0449  0.3566
50805SOL    HW164394   6.930  12.563   8.436 -0.1395 -0.4760  1.2257
50805SOL    HW264395   6.876  12.427   8.398  0.4295  0.3235 -3.0136
50806SOL     OW64396   9.403   9.744   9.879 -0.5406 -0.1566 -0.2128
50806SOL    HW164397   9.373   9.828   9.913 -0.4433 -0.8804  1.8254
50806SOL    HW264398   9.330   9.684   9.894 -0.0348 -0.7742 -0.1758
50807SOL     OW64399   1.242   6.010  10.733 -0.2264  0.1373 -0.2670
50807SOL    HW164400   1.173   6.012  10.666 -0.6888 -1.7208  0.0904
50807SOL    HW264401   1.300   5.939  10.706 -0.1285 -0.2963  1.0096
50808SOL     OW64402   3.398   4.903  14.030  0.1174  0.2095  0.3660
50808SOL    HW164403   3.357   4.894  13.944 -1.5772 -0.7076  1.2318
50808SOL    HW264404   3.333   4.948  14.083  0.9614  0.3407  1.3119
50809SOL     OW64405   8.562   4.385  13.489  0.0813 -0.3088  0.1814
50809SOL    HW164406   8.632   4.344  13.438  0.5216  0.0641  0.4700
50809SOL    HW264407   8.501   4.419  13.424  0.3268 -0.3738 -0.0842
50810SOL     OW64408  13.602   2.773   7.723 -0.2654 -0.0338  0.0694
50810SOL    HW164409  13.634   2.858   7.755 -2.3187  0.8878 -0.1669
50810SOL    HW264410  13.665   2.709   7.757  1.2205  1.5528  0.4258
50811SOL     OW64411   1.778   2.749   4.991  0.0863 -0.4264  0.0931
50811SOL    HW164412   1.858   2.769   4.943  0.3817 -0.5118  0.5439
50811SOL    HW264413   1.805   2.747   5.083 -0.0893 -2.1023  0.1336
50812SOL     OW64414  10.056   4.659  11.804  0.3045  0.2068  0.0177
50812SOL    HW164415  10.133   4.615  11.839 -0.0260  0.2642  0.8448
50812SOL    HW264416   9.986   4.594  11.810  0.0104  0.5525  0.4409
50813SOL     OW64417   8.079  12.644  12.720  0.0740  0.1990 -0.2829
50813SOL    HW164418   8.137  12.671  12.649  0.0228  1.5101  0.1469
50813SOL    HW264419   7.991  12.663  12.688  0.0813  1.3577  0.3346
50814SOL     OW64420   5.832   0.507   8.733 -0.1516  0.1924 -0.0688
50814SOL    HW164421   5.802   0.429   8.779 -2.0485  0.7591 -0.2556
50814SOL    HW264422   5.807   0.580   8.791  0.1109  0.7422 -0.6323
50815SOL     OW64423   9.814   8.156   1.296 -0.1879 -0.4463  0.5152
50815SOL    HW164424   9.736   8.161   1.352  0.6932 -1.1483  1.8669
50815SOL    HW264425   9.886   8.184   1.353  0.4833  0.9890 -0.9361
50816SOL     OW64426  13.254   4.899   8.729 -0.4568 -0.7536 -0.0730
50816SOL    HW164427  13.225   4.940   8.811 -0.6632 -1.8675  0.4194
50816SOL    HW264428  13.321   4.837   8.756 -0.0172 -0.6261 -0.8407
50817SOL     OW64429   0.125  12.488   0.036 -0.7248  0.0008  0.3603
50817SOL    HW164430   0.174  12.555  -0.012  0.1871 -1.3383 -0.6767
50817SOL    HW264431   0.152  12.500   0.127 -1.4801  1.7591  0.3864
50818SOL     OW64432   4.507   1.938   1.413 -0.0479  0.2008  0.6543
50818SOL    HW164433   4.528   2.027   1.441 -1.3796  0.9744 -0.6750
50818SOL    HW264434   4.571   1.919   1.344 -0.5258  0.6135  0.0897
50819SOL     OW64435   4.024  10.759  13.043 -0.4590  0.5993  0.3591
50819SOL    HW164436   3.981  10.699  12.982 -0.9871  0.2128  1.1080
50819SOL    HW264437   4.079  10.704  13.098 -0.5278  0.8656  0.6995
50820SOL     OW64438  11.308   3.882   0.182 -0.1148 -0.0052  0.3997
50820SOL    HW164439  11.220   3.855   0.209 -0.6570  2.4963  1.4072
50820SOL    HW264440  11.294   3.945   0.112  0.8478  0.6583  0.7817
50821SOL     OW64441  11.063   5.751   3.637 -0.5625  0.5167 -0.2149
50821SOL    HW164442  11.107   5.783   3.558 -3.0132  1.7902 -1.1949
50821SOL    HW264443  11.014   5.674   3.608  1.2109 -1.1313  0.9462
50822SOL     OW64444   6.437   3.220   3.365  0.2458 -0.3209 -0.3208
50822SOL    HW164445   6.341   3.210   3.367  0.1848 -0.1254 -1.5317
50822SOL    HW264446   6.451   3.314   3.378  0.2808 -0.3484 -0.1535
50823SOL     OW64447   7.226  11.630   6.893 -0.0112  0.6397 -0.2663
50823SOL    HW164448   7.142  11.655   6.932 -1.3450 -2.1241 -1.1308
50823SOL    HW264449   7.283  11.613   6.968 -1.4092 -1.0420  0.4793
50824SOL     OW64450  12.414   0.264  13.059 -0.2622 -0.4603 -0.5089
50824SOL    HW164451  12.501   0.283  13.093 -0.1102 -0.2869 -0.9763
50824SOL    HW264452  12.390   0.180  13.098  0.0293 -0.4091 -0.2187
50825SOL     OW64453   1.840   5.277   2.479 -0.3781 -0.1510 -0.0743
50825SOL    HW164454   1.783   5.335   2.530  1.2667  0.0233  1.6788
50825SOL    HW264455   1.861   5.328   2.401 -0.7928  0.6917  0.3452
50826SOL     OW64456  10.899   6.378  10.542  0.1663  0.4592  0.1159
50826SOL    HW164457  10.833   6.444  10.527  0.3181  0.1091 -2.5587
50826SOL    HW264458  10.850   6.299  10.565 -0.2606  0.5566 -0.4527
50827SOL     OW64459   6.787   0.800   6.870 -0.0389  0.3744 -0.1406
50827SOL    HW164460   6.718   0.860   6.841 -0.3048  0.5162  0.7744
50827SOL    HW264461   6.799   0.820   6.962  0.0427 -0.8206  0.1186
50828SOL     OW64462   3.411  13.730  10.843 -0.6326 -0.1845  0.0096
50828SOL    HW164463   3.325  13.687  10.849 -0.8183  0.2592  0.5723
50828SOL    HW264464   3.447  13.722  10.931 -0.0578 -0.4312 -0.2447
50829SOL     OW64465   7.284   3.114   4.374 -0.0881 -0.1054  0.0734
50829SOL    HW164466   7.248   3.025   4.366  0.3165 -0.2342 -0.3325
50829SOL    HW264467   7.263   3.156   4.291  1.5852 -0.5162 -0.5896
50830SOL     OW64468   9.304  10.175   1.255 -0.0326 -0.5077  0.3808
50830SOL    HW164469   9.281  10.264   1.228 -0.4105 -0.3857  1.0647
50830SOL    HW264470   9.233  10.150   1.314  0.5562 -0.9057  0.9251
50831SOL     OW64471   6.232   1.601  10.958 -0.0794  0.1587 -0.1654
50831SOL    HW164472   6.208   1.564  10.873 -2.0551 -0.5227  0.6223
50831SOL    HW264473   6.272   1.528  11.005  0.8138  0.4780 -0.4074
50832SOL     OW64474   8.084  11.945   4.348  0.3828  0.3009  0.0968
50832SOL    HW164475   8.144  12.010   4.312  1.6597 -0.3171  1.0241
50832SOL    HW264476   8.011  11.996   4.382  1.0711  1.2129  0.2559
50833SOL     OW64477   1.466   6.924   8.444  0.0804 -0.1856  0.7044
50833SOL    HW164478   1.445   6.892   8.532  1.0376  0.6436  1.2700
50833SOL    HW264479   1.386   6.967   8.415 -0.2817 -0.5551  1.1308
50834SOL     OW64480  11.972   7.571  13.523  0.1031 -0.3446 -0.5143
50834SOL    HW164481  12.010   7.623  13.594  0.9965 -0.9287 -0.5424
50834SOL    HW264482  11.973   7.481  13.555 -1.2751 -0.3809 -0.5343
50835SOL     OW64483   7.934   9.222   2.662 -0.1871  0.1909 -0.1649
50835SOL    HW164484   7.946   9.139   2.707 -1.2932 -0.4767 -1.0449
50835SOL    HW264485   7.881   9.275   2.722  0.8704  0.4449  0.5763
50836SOL     OW64486   8.923   3.981   7.170 -0.1735 -0.6473 -0.0448
50836SOL    HW164487   8.851   3.920   7.160 -2.0584  0.8722  2.9634
50836SOL    HW264488   8.904   4.052   7.108 -0.2064 -1.1283 -0.5918
50837SOL     OW64489   4.012  10.979   0.682  0.0983  0.0408 -0.1547
50837SOL    HW164490   3.965  10.896   0.683  0.0712  0.0483 -0.6498
50837SOL    HW264491   4.100  10.957   0.652 -0.4215  0.4390 -2.1159
50838SOL     OW64492   4.977   8.816   4.476 -0.2047 -0.2501  0.0995
50838SOL    HW164493   4.904   8.754   4.466 -0.7848  0.3379  0.5704
50838SOL    HW264494   4.992   8.848   4.387  1.6828 -2.7612 -0.5926
50839SOL     OW64495   1.025   9.889  10.278  0.4305  0.1460  0.0404
50839SOL    HW164496   0.965   9.934  10.218  0.3712 -1.4417 -1.1590
50839SOL    HW264497   0.994   9.799  10.280  0.9711 -0.0351  1.8192
50840SOL     OW64498   3.671   2.915   0.488  0.1771  0.5964 -0.2558
50840SOL    HW164499   3.749   2.965   0.512  0.6395 -0.2653  0.0741
50840SOL    HW264500   3.692   2.875   0.404  0.7170 -0.9275  0.5858
50841SOL     OW64501   1.242   5.980   0.580  0.1572  0.6586  0.1368
50841SOL    HW164502   1.151   5.996   0.606 -0.1264  1.3765 -1.2257
50841SOL    HW264503   1.251   6.024   0.495  1.7384  0.4739  0.1823
50842SOL     OW64504  13.015  13.856  11.739  0.0802 -0.0239 -0.5314
50842SOL    HW164505  12.995  13.881  11.830  0.0525 -0.3515 -0.4467
50842SOL    HW264506  13.077  13.923  11.709  1.1182 -0.6449  0.1586
50843SOL     OW64507   2.824   7.626   7.629 -0.3064 -0.7881 -0.2128
50843SOL    HW164508   2.846   7.533   7.623 -1.2130 -1.1179  1.1609
50843SOL    HW264509   2.734   7.628   7.662 -0.0766  0.5900  0.4135
50844SOL     OW64510   0.408   4.098   1.907  0.2287 -0.0048  0.1583
50844SOL    HW164511   0.422   4.138   1.821  0.8409  1.5467  0.9404
50844SOL    HW264512   0.337   4.148   1.947 -0.2520 -0.8973  0.4605
50845SOL     OW64513   8.282   4.564   7.272 -0.2266 -0.0973  0.9517
50845SOL    HW164514   8.326   4.519   7.199  1.1523  1.4958  0.7533
50845SOL    HW264515   8.189   4.551   7.254  0.0871 -0.3580 -0.7230
50846SOL     OW64516   0.500   8.978   8.345  0.2251  0.2369  0.0605
50846SOL    HW164517   0.470   9.001   8.433  1.1111  2.7275 -0.2097
50846SOL    HW264518   0.422   8.941   8.302 -0.1797 -1.1671  1.8830
50847SOL     OW64519   4.323   0.044   3.352 -0.1371  0.4465  0.4954
50847SOL    HW164520   4.339   0.001   3.268  1.1119  0.5890  0.6356
50847SOL    HW264521   4.251  -0.005   3.391 -1.7404  1.2506 -1.2483
50848SOL     OW64522   3.530   7.801   8.059  0.3190  0.2148 -0.2333
50848SOL    HW164523   3.543   7.800   8.153 -0.4765  0.9979 -0.1031
50848SOL    HW264524   3.439   7.830   8.047  1.1005  2.4722 -1.2904
50849SOL     OW64525   3.874  12.034   9.755  0.2538 -0.1439 -0.3404
50849SOL    HW164526   3.883  12.071   9.668 -1.7468 -0.2038 -0.6282
50849SOL    HW264527   3.869  12.110   9.813 -0.6996 -0.0178 -0.5670
50850SOL     OW64528  12.372   4.478  10.394 -0.1345 -0.2623  0.0941
50850SOL    HW164529  12.353   4.548  10.456  0.0230 -0.4633  0.3721
50850SOL    HW264530  12.436   4.516  10.334 -0.3239 -0.0519  0.0233
50851SOL     OW64531   3.716   5.545   4.571  0.4120  0.3280  0.4956
50851SOL    HW164532   3.679   5.494   4.643  0.8156 -1.5028 -0.5232
50851SOL    HW264533   3.805   5.564   4.598  1.0806 -1.6980 -0.0908
50852SOL     OW64534   3.681   8.139   3.584 -0.0240  0.0181 -0.4664
50852SOL    HW164535   3.733   8.126   3.663  1.4916  1.0362 -1.2462
50852SOL    HW264536   3.647   8.228   3.591 -0.4691 -0.1305 -0.6545
50853SOL     OW64537   5.739   0.568   0.587 -0.1087 -0.3497 -0.1590
50853SOL    HW164538   5.703   0.627   0.654  2.3734  0.9070  0.1922
50853SOL    HW264539   5.734   0.619   0.505  1.0436 -0.0257 -0.0505
50854SOL     OW64540   4.799   3.239   2.667 -0.1119 -0.1442  0.0283
50854SOL    HW164541   4.766   3.202   2.748  0.1823 -0.1384  0.1513
50854SOL    HW264542   4.894   3.228   2.672 -0.2256 -2.8474 -1.6075
50855SOL     OW64543  10.990   7.278  11.230 -0.4767  0.0945 -0.2753
50855SOL    HW164544  10.936   7.345  11.189  2.6682  2.5246 -0.8203
50855SOL    HW264545  11.012   7.315  11.316  0.5608 -0.6838 -0.1915
50856SOL     OW64546   1.834  13.819   1.342 -0.1483  0.2127 -0.7864
50856SOL    HW164547   1.927  13.824   1.320 -0.4980  0.8252 -2.2460
50856SOL    HW264548   1.825  13.876   1.418  0.7126 -0.0132 -0.5039
50857SOL     OW64549   8.983   2.947  13.550  0.0435  0.5001  0.0162
50857SOL    HW164550   8.969   2.948  13.645  1.6790 -1.0138  0.3384
50857SOL    HW264551   8.895   2.941  13.513 -0.5490 -1.0441  1.5255
50858SOL     OW64552   5.562   3.752   0.887 -0.0645 -0.7171 -0.2400
50858SOL    HW164553   5.485   3.732   0.834 -1.3775  0.9410  0.9397
50858SOL    HW264554   5.555   3.846   0.905  1.7434 -0.7210  0.6844
50859SOL     OW64555   1.332   2.814  10.996 -0.1474  0.0499 -0.3654
50859SOL    HW164556   1.364   2.887  11.049 -3.2311 -1.1572  3.6865
50859SOL    HW264557   1.264   2.853  10.941 -0.8424  0.5241  0.7877
50860SOL     OW64558  13.340   5.881  11.037 -0.2771  0.3901 -0.1631
50860SOL    HW164559  13.397   5.916  11.105  0.7946 -1.5143 -0.0417
50860SOL    HW264560  13.311   5.959  10.989  1.1031  1.5445  0.7800
50861SOL     OW64561  10.593  13.325  10.107  0.1239  0.3683 -0.2238
50861SOL    HW164562  10.554  13.392  10.163 -0.7118 -1.6324  1.7224
50861SOL    HW264563  10.687  13.334  10.121  0.1768  2.2024 -1.3550
50862SOL     OW64564  11.438   9.957   6.163  0.4489  0.0371  0.2293
50862SOL    HW164565  11.504   9.978   6.097 -0.2390  1.7618  0.0302
50862SOL    HW264566  11.488   9.919   6.235  1.2322 -1.6765 -1.1593
50863SOL     OW64567  13.086   4.982   9.671  0.3175  0.1059  0.2041
50863SOL    HW164568  13.023   4.913   9.694  3.0429 -2.8327 -0.5267
50863SOL    HW264569  13.105   4.966   9.579  1.2539  1.7334  0.0861
50864SOL     OW64570   5.013   3.241   0.944 -0.3742 -0.0185  0.0457
50864SOL    HW164571   5.107   3.227   0.940 -0.4324 -0.1399 -1.5402
50864SOL    HW264572   4.976   3.153   0.955 -0.3379 -0.1487 -0.7526
50865SOL     OW64573   0.941   2.949   7.295  0.0169  0.0298 -0.0885
50865SOL    HW164574   0.929   2.899   7.214 -1.2524  0.1571  0.0059
50865SOL    HW264575   0.999   2.894   7.348  0.1943 -0.4428 -0.7588
50866SOL     OW64576   2.387   3.633   1.492 -0.3430  0.3442 -0.2765
50866SOL    HW164577   2.337   3.677   1.562 -0.1167  2.1477 -1.1875
50866SOL    HW264578   2.476   3.628   1.527 -0.0609  1.9327 -0.6754
50867SOL     OW64579   2.776   2.237   8.089 -0.0040  0.0596  0.4538
50867SOL    HW164580   2.688   2.267   8.067 -0.1683 -1.6804 -1.5603
50867SOL    HW264581   2.824   2.318   8.109 -1.8569  1.0879  1.0106
50868SOL     OW64582   8.888   1.771  11.703 -0.6879  0.4466 -0.4919
50868SOL    HW164583   8.828   1.696  11.692  1.0477 -1.1335  0.2475
50868SOL    HW264584   8.852   1.819  11.778 -0.7149 -0.8293  0.3447
50869SOL     OW64585   4.082  10.904   2.469 -0.5213  0.3161  0.2567
50869SOL    HW164586   4.061  10.996   2.455  1.8939  0.7013 -1.4802
50869SOL    HW264587   4.165  10.906   2.518  0.0529 -0.8775 -0.6167
50870SOL     OW64588   5.344   1.413   4.927  0.1661 -0.4473  0.5745
50870SOL    HW164589   5.291   1.355   4.982  0.5064 -0.7564  0.5813
50870SOL    HW264590   5.406   1.354   4.883  0.3672 -0.1159  0.4112
50871SOL     OW64591  13.497   4.654   8.257  0.2710  0.5103  0.4018
50871SOL    HW164592  13.433   4.661   8.187 -0.0170  0.4348  0.6535
50871SOL    HW264593  13.446   4.628   8.334  0.9058 -1.7317  0.1250
50872SOL     OW64594  11.517   4.331  11.786  0.1229  0.1463  0.1246
50872SOL    HW164595  11.528   4.236  11.779  1.9310  0.3519 -0.2670
50872SOL    HW264596  11.471   4.356  11.706  1.1828 -0.2023 -0.6069
50873SOL     OW64597   5.703   7.086   6.395 -0.0994 -0.3323  0.6510
50873SOL    HW164598   5.762   7.043   6.333  0.1435  0.3768  0.3817
50873SOL    HW264599   5.618   7.084   6.352 -0.5607 -2.4019  1.5337
50874SOL     OW64600   3.914   3.226  12.176 -0.1903 -0.1972  0.2689
50874SOL    HW164601   3.987   3.166  12.188  0.5124  0.8168  1.2524
50874SOL    HW264602   3.849   3.199  12.241  0.4987  0.6323  1.3321
50875SOL     OW64603   0.510  13.970   6.140 -0.6164 -0.2104  0.3153
50875SOL    HW164604   0.598  13.973   6.101 -0.8015  0.5470 -0.0816
50875SOL    HW264605   0.521  13.926   6.224  0.0644 -0.5228  0.0640
50876SOL     OW64606   8.532   1.365  12.588 -0.2820 -0.1283 -0.1736
50876SOL    HW164607   8.601   1.402  12.643  0.6878 -1.5433 -0.3665
50876SOL    HW264608   8.453   1.368  12.642  0.0995  0.7946  0.3485
50877SOL     OW64609   4.848   2.238  12.942 -0.5724 -0.6010  0.6070
50877SOL    HW164610   4.903   2.252  12.866 -0.8827 -1.2399  0.2555
50877SOL    HW264611   4.897   2.175  12.996 -0.5460 -0.4756  0.7301
50878SOL     OW64612   4.069   8.562   3.395  0.3341 -0.0253  0.9240
50878SOL    HW164613   4.094   8.470   3.387  0.6803  0.1427 -0.1035
50878SOL    HW264614   4.152   8.608   3.411  0.5125  0.3595 -0.9283
50879SOL     OW64615   0.417   9.102   2.404 -0.1995 -0.5031  0.1973
50879SOL    HW164616   0.349   9.101   2.336  0.5096  0.2616 -0.5558
50879SOL    HW264617   0.437   9.195   2.416  2.0697 -0.7697 -1.0236
50880SOL     OW64618   3.514   2.393   8.086 -0.4922  0.5862  0.4915
50880SOL    HW164619   3.546   2.338   8.014  0.1658  1.3842  0.1596
50880SOL    HW264620   3.446   2.448   8.045  0.1560  1.3135  0.3803
50881SOL     OW64621   2.995   8.027   0.691 -0.0391  0.0050 -0.1417
50881SOL    HW164622   2.900   8.016   0.682  0.0277 -2.4969  1.4394
50881SOL    HW264623   3.032   7.953   0.644  1.0667  0.0298  0.6715
50882SOL     OW64624   6.640   3.091   4.205  0.1229  0.5304 -0.6406
50882SOL    HW164625   6.646   3.102   4.110 -0.6292 -1.5231 -0.9848
50882SOL    HW264626   6.558   3.134   4.229 -0.0973  0.3572 -1.0609
50883SOL     OW64627  10.770   1.911   5.715 -0.1099 -0.0732 -0.1018
50883SOL    HW164628  10.801   1.974   5.650  2.2300 -0.8603  0.1746
50883SOL    HW264629  10.845   1.855   5.733 -1.6567 -1.9792  0.8395
50884SOL     OW64630  13.820  10.318  10.843 -0.0935  0.2546  0.1185
50884SOL    HW164631  13.771  10.347  10.767  0.6414 -0.7694 -0.7906
50884SOL    HW264632  13.754  10.286  10.904 -0.6323  0.0847 -0.5443
50885SOL     OW64633   3.452   5.039  12.182 -0.2777 -0.1608 -0.4959
50885SOL    HW164634   3.407   4.962  12.146  0.0882 -0.1499 -0.9950
50885SOL    HW264635   3.545   5.016  12.179 -0.2033  0.0702 -0.0866
50886SOL     OW64636   6.417   5.893   3.235  0.1782  0.0618  0.2527
50886SOL    HW164637   6.400   5.959   3.303  0.1585 -1.1519  1.4617
50886SOL    HW264638   6.508   5.868   3.249  0.1802 -0.1805 -0.1857
50887SOL     OW64639   4.847  12.746   8.025  0.1230 -0.6739  0.0790
50887SOL    HW164640   4.886  12.715   8.108  0.7712  0.8422  0.3782
50887SOL    HW264641   4.770  12.691   8.013  1.2210 -2.3927  0.5551
50888SOL     OW64642   2.178   2.497  12.070 -0.5147 -0.5067 -0.3454
50888SOL    HW164643   2.192   2.587  12.041 -0.3986 -0.0136  1.1414
50888SOL    HW264644   2.083   2.489  12.081 -0.4937 -0.4500 -0.1236
50889SOL     OW64645   0.744   0.930   7.355  0.2090 -0.4487 -0.0765
50889SOL    HW164646   0.769   0.934   7.263  1.2481 -1.6903  0.1407
50889SOL    HW264647   0.740   0.837   7.376  0.0042 -0.1888  1.1521
50890SOL     OW64648   4.712   9.224   6.833  0.0897 -0.2652  0.8455
50890SOL    HW164649   4.723   9.206   6.739 -2.3514 -0.1387  0.4619
50890SOL    HW264650   4.757   9.308   6.846 -0.9727  0.5894 -0.6372
50891SOL     OW64651  10.372   1.036   0.135  0.6272  0.1983 -0.0763
50891SOL    HW164652  10.312   1.103   0.170 -0.1032 -0.8479  0.7437
50891SOL    HW264653  10.338   1.017   0.048 -0.5044 -0.6688  0.5309
50892SOL     OW64654   1.128   1.078   2.955 -0.0620  0.0492  0.3422
50892SOL    HW164655   1.143   0.986   2.975 -1.8937 -0.4934 -0.5907
50892SOL    HW264656   1.081   1.077   2.872 -1.6745  1.7394  1.1708
50893SOL     OW64657  13.503   0.882  10.720 -0.3334  0.3405 -0.3768
50893SOL    HW164658  13.416   0.891  10.760 -0.3606 -1.9814  0.2196
50893SOL    HW264659  13.554   0.954  10.757 -1.3729  0.3899  1.0416
50894SOL     OW64660   6.322   1.861   6.116 -0.7617  0.1075  0.1638
50894SOL    HW164661   6.252   1.798   6.100 -0.5362 -0.6550  1.9803
50894SOL    HW264662   6.402   1.815   6.087 -0.7187 -0.0399  0.5131
50895SOL     OW64663  12.923  11.077  12.794  0.6291  0.0226  0.6984
50895SOL    HW164664  12.900  10.985  12.780  0.1796 -0.0256  1.6476
50895SOL    HW264665  12.841  11.124  12.780  1.0437  0.3852 -0.6247
50896SOL     OW64666   5.620   8.876   1.958 -0.2777  0.6533 -0.0410
50896SOL    HW164667   5.578   8.957   1.929  1.1562  1.7683  0.8760
50896SOL    HW264668   5.627   8.885   2.053  0.8379 -0.0576 -0.0371
50897SOL     OW64669   7.619   6.183   2.373 -0.3481 -0.5844  0.1314
50897SOL    HW164670   7.657   6.096   2.361 -0.4698 -0.4612 -1.3114
50897SOL    HW264671   7.525   6.168   2.377 -0.3566 -0.5348  0.1089
50898SOL     OW64672   6.431   7.455  11.763 -0.1095  0.1120  0.1384
50898SOL    HW164673   6.373   7.422  11.694 -1.0618  0.1610  0.8938
50898SOL    HW264674   6.374   7.508  11.818  0.0496 -1.8135  2.3083
50899SOL     OW64675   6.896   3.088   4.280 -0.0396  0.0358 -0.5776
50899SOL    HW164676   6.931   3.010   4.238  1.4326  1.6978 -2.6332
50899SOL    HW264677   6.802   3.087   4.259 -0.0954 -1.2462 -0.3674
50900SOL     OW64678   1.666   5.736  11.986  0.1766 -0.0027 -0.3158
50900SOL    HW164679   1.697   5.647  12.001  0.2363  0.0323 -0.2293
50900SOL    HW264680   1.720   5.768  11.913  0.0068 -0.1124 -0.4921
50901SOL     OW64681   2.656   4.483   8.902  0.1639 -0.1379  0.4772
50901SOL    HW164682   2.639   4.428   8.979  0.7199 -1.1572 -0.0933
50901SOL    HW264683   2.603   4.561   8.916 -2.5615 -1.7836  0.2433
50902SOL     OW64684   0.296  12.652   5.588  0.0954  0.1576 -0.2430
50902SOL    HW164685   0.377  12.602   5.585 -0.2248 -0.4237  0.5042
50902SOL    HW264686   0.324  12.743   5.580  0.8874  0.0117  0.7741
50903SOL     OW64687   0.388   8.946  12.137  0.3659 -0.4069  0.3478
50903SOL    HW164688   0.340   8.866  12.159 -1.6072  0.2331 -1.2516
50903SOL    HW264689   0.479   8.918  12.127  0.4294 -1.7172  3.4111
50904SOL     OW64690   5.773   7.535   6.571  0.0224  0.5333  0.1861
50904SOL    HW164691   5.865   7.550   6.591  0.7001 -2.4776 -0.1848
50904SOL    HW264692   5.746   7.612   6.522  2.3034  1.5298  0.3657
50905SOL     OW64693   5.647  11.028   5.102 -0.2823 -0.2129  0.0264
50905SOL    HW164694   5.688  11.036   5.016  2.1053  1.8626  1.2156
50905SOL    HW264695   5.589  11.104   5.108  0.1482  0.0875  0.4988
50906SOL     OW64696   3.770   3.901   9.767  0.3849  0.1067 -0.2033
50906SOL    HW164697   3.681   3.931   9.785  0.5422  0.1257  0.5450
50906SOL    HW264698   3.806   3.876   9.852  0.9081 -0.4260 -0.5676
50907SOL     OW64699   8.262   4.177  11.447 -0.4527  0.1086 -0.0463
50907SOL    HW164700   8.342   4.195  11.496 -2.2472  0.8486  2.9286
50907SOL    HW264701   8.208   4.255  11.460 -1.9185 -0.6242 -1.3600
50908SOL     OW64702  13.818   4.574  10.383  0.3750  0.1074 -0.4244
50908SOL    HW164703  13.796   4.627  10.460  0.5704 -0.8623  0.3285
50908SOL    HW264704  13.881   4.510  10.416  0.3589 -0.4105 -1.3676
50909SOL     OW64705   1.176   2.106   0.128 -0.3055  0.6331 -0.2541
50909SOL    HW164706   1.260   2.151   0.132 -0.0220  0.0791  0.1198
50909SOL    HW264707   1.137   2.120   0.215  0.4532 -1.0920  0.4094
50910SOL     OW64708   6.917   5.359  11.760 -0.1148 -0.4223  0.1882
50910SOL    HW164709   6.956   5.312  11.687  0.1890  0.3691 -0.1684
50910SOL    HW264710   6.894   5.445  11.724  2.5557  1.0321  1.6739
50911SOL     OW64711   8.141   1.905   2.239  0.2522 -0.1009 -0.2882
50911SOL    HW164712   8.166   1.997   2.246 -0.9134  0.2072 -0.0399
50911SOL    HW264713   8.046   1.906   2.234  0.2081 -1.3103 -0.0068
50912SOL     OW64714   5.807   0.573   3.755 -0.4256  0.0079  0.3804
50912SOL    HW164715   5.778   0.642   3.815 -2.1710 -0.5480  0.2106
50912SOL    HW264716   5.727   0.530   3.726  0.5980 -3.0621  1.6142
50913SOL     OW64717  10.413   1.314  13.825  0.3260 -0.2529 -0.1976
50913SOL    HW164718  10.445   1.398  13.858 -0.7382  0.3569 -0.6598
50913SOL    HW264719  10.318   1.317  13.837  0.3203 -1.6721  0.3865
50914SOL     OW64720   1.902   6.135   0.633  0.4172  0.5729 -0.5218
50914SOL    HW164721   1.985   6.091   0.653  0.0882  0.4222  0.5868
50914SOL    HW264722   1.913   6.224   0.667  0.6055  0.9652 -1.5868
50915SOL     OW64723  11.544  10.179   8.881 -0.3514  0.2326 -0.8266
50915SOL    HW164724  11.480  10.172   8.811 -0.7306  2.2060 -0.7511
50915SOL    HW264725  11.521  10.261   8.926  1.2173  0.1422  0.2279
50916SOL     OW64726  10.402   9.356   1.660  0.0676  0.5429 -0.1150
50916SOL    HW164727  10.385   9.300   1.584 -0.2057 -1.2996  1.2303
50916SOL    HW264728  10.326   9.344   1.717  0.2290  1.9495  0.4453
50917SOL     OW64729   9.991   3.851   2.939  0.1444  0.3421 -0.7089
50917SOL    HW164730  10.063   3.816   2.887  0.5322 -1.3622  0.8651
50917SOL    HW264731   9.919   3.790   2.924  0.3433 -0.3369  0.8936
50918SOL     OW64732   0.305   9.656   5.870 -0.1118  0.0686  0.0341
50918SOL    HW164733   0.287   9.712   5.945 -2.6630  0.1604 -0.5826
50918SOL    HW264734   0.271   9.704   5.795  0.4731 -0.9472 -0.9170
50919SOL     OW64735   9.179   5.339   1.973 -0.0262 -0.6825  1.2833
50919SOL    HW164736   9.232   5.310   1.898 -1.4758  0.4715 -0.2721
50919SOL    HW264737   9.163   5.259   2.023  0.5103 -1.6105  0.0296
50920SOL     OW64738  11.740   7.033  13.875 -0.6465  0.6868  1.1952
50920SOL    HW164739  11.706   7.075  13.796  1.6160  3.0612  1.3404
50920SOL    HW264740  11.712   7.089  13.947 -0.5174 -0.0352  1.8306
50921SOL     OW64741  11.086  13.309   9.959 -0.2792 -0.3932 -0.0635
50921SOL    HW164742  11.061  13.228   9.914 -2.3395 -0.1445  0.5284
50921SOL    HW264743  11.039  13.378   9.911 -0.4410  0.1650  0.8755
50922SOL     OW64744   4.470   7.705  12.387  0.1684  0.1912  0.2720
50922SOL    HW164745   4.545   7.690  12.444  1.5709 -0.7451 -1.7311
50922SOL    HW264746   4.421   7.623  12.388  0.3878  0.0501 -0.1009
50923SOL     OW64747  12.885  11.523   4.605  0.4766  0.5226  0.8826
50923SOL    HW164748  12.862  11.614   4.625  0.3816  0.6970 -0.0086
50923SOL    HW264749  12.809  11.472   4.634 -0.0026  0.8548  0.2248
50924SOL     OW64750  13.985   6.299   4.979  0.5539  0.1120 -0.1499
50924SOL    HW164751  14.051   6.369   4.980 -1.4328  2.1189  0.5903
50924SOL    HW264752  13.949   6.302   4.891  1.7119 -1.2841 -0.6911
50925SOL     OW64753   5.516  11.142  11.731 -0.4581  0.2922 -0.9105
50925SOL    HW164754   5.554  11.063  11.693 -1.2613  0.2047 -1.5688
50925SOL    HW264755   5.472  11.111  11.811 -0.8747  0.0499 -1.2304
50926SOL     OW64756   4.918   1.996   5.529  0.3745  0.3847 -0.4615
50926SOL    HW164757   4.975   2.007   5.453 -0.5127  1.4507 -1.0174
50926SOL    HW264758   4.830   1.991   5.491 -0.3243  3.1183  0.5496
50927SOL     OW64759  11.591   9.934   0.361  0.4420  0.7215 -0.8367
50927SOL    HW164760  11.671   9.928   0.413  0.3014  1.4477 -0.5265
50927SOL    HW264761  11.617   9.983   0.283 -0.0760  2.5332  0.0761
50928SOL     OW64762   8.430  13.668  11.363  0.3537 -0.0863 -0.4963
50928SOL    HW164763   8.365  13.599  11.378  0.5210 -0.4552 -1.3972
50928SOL    HW264764   8.457  13.655  11.272  0.8464  0.7844 -0.4776
50929SOL     OW64765   0.766   4.477   8.672 -0.7878 -0.2295 -0.2812
50929SOL    HW164766   0.803   4.562   8.697 -0.0604 -0.8657  0.8597
50929SOL    HW264767   0.776   4.474   8.577  1.2734  0.0372 -0.1220
50930SOL     OW64768   4.225  10.833   3.250 -0.1573 -0.3562 -0.2618
50930SOL    HW164769   4.312  10.793   3.244  0.3921  0.6071  0.9607
50930SOL    HW264770   4.210  10.843   3.344 -1.9406 -1.2144 -0.4173
50931SOL     OW64771   5.475   5.453   4.396 -0.2693 -0.4557 -0.0170
50931SOL    HW164772   5.384   5.471   4.373 -0.7222 -0.4132  1.6512
50931SOL    HW264773   5.516   5.539   4.403  0.4867 -0.5160 -2.7634
50932SOL     OW64774   3.302   5.140   5.577  0.1131 -0.6232  0.0606
50932SOL    HW164775   3.221   5.190   5.574  0.7760  0.5255  0.3177
50932SOL    HW264776   3.302   5.099   5.663  0.1508 -0.0014  0.3632
50933SOL     OW64777  14.040  10.872   6.479 -0.2452 -0.3998  0.3980
50933SOL    HW164778  14.095  10.834   6.548 -0.3106 -2.6978 -0.7199
50933SOL    HW264779  13.965  10.909   6.527 -0.2077 -1.7717  1.6052
50934SOL     OW64780   5.059   8.070  11.643  0.2333  0.2770  0.0542
50934SOL    HW164781   5.070   7.975  11.651 -0.4237  0.1030 -0.9033
50934SOL    HW264782   5.003   8.081  11.566  1.0944  1.4900 -0.4244
50935SOL     OW64783   2.903  11.982   2.343 -0.3289 -0.1466  0.0479
50935SOL    HW164784   2.893  12.035   2.422  0.9560  0.9160 -0.4594
50935SOL    HW264785   2.814  11.972   2.309 -0.7817  0.2219  1.0743
50936SOL     OW64786  10.645  13.021   9.019  0.1362  0.1956  0.3639
50936SOL    HW164787  10.627  12.946   9.075  0.4837  0.3773  0.7269
50936SOL    HW264788  10.565  13.033   8.968  0.7366 -1.6012 -1.0997
50937SOL     OW64789   8.745  10.090  13.766 -0.0632 -0.0683 -0.5429
50937SOL    HW164790   8.737  10.007  13.720 -1.0804  0.8877 -2.2024
50937SOL    HW264791   8.655  10.116  13.785  0.3007 -0.7003  2.6760
50938SOL     OW64792   5.480   3.881   3.312 -0.3404  0.1986 -0.3759
50938SOL    HW164793   5.530   3.800   3.320 -0.3235  0.1172 -1.2138
50938SOL    HW264794   5.505   3.932   3.388 -0.7799 -0.8097  0.4670
50939SOL     OW64795   7.987   4.395   3.151  0.7261 -0.1806 -0.2274
50939SOL    HW164796   7.951   4.311   3.123 -1.1159  0.4202  0.1684
50939SOL    HW264797   8.051   4.418   3.083 -1.2629 -0.2742 -2.2441
50940SOL     OW64798   8.927   8.769   4.241  0.0442 -0.0878 -0.0845
50940SOL    HW164799   8.984   8.714   4.295  0.3370 -1.4900 -1.7392
50940SOL    HW264800   8.985   8.835   4.203  0.1181 -0.0385  0.1142
50941SOL     OW64801   0.075   7.596  13.267 -0.6713  0.4580  0.1453
50941SOL    HW164802   0.072   7.529  13.335  1.5246 -1.3776 -1.4040
50941SOL    HW264803   0.115   7.672  13.310 -1.3165  0.1101  1.4154
50942SOL     OW64804   6.137   3.052   0.235 -0.4167  0.1538  0.0594
50942SOL    HW164805   6.050   3.093   0.228  0.2259  1.4692 -0.5638
50942SOL    HW264806   6.137   3.012   0.322 -0.5715  2.7980  1.3885
50943SOL     OW64807   6.839   6.607   5.667  0.3912 -0.7100  0.4644
50943SOL    HW164808   6.746   6.587   5.658  0.0928 -0.0978  1.8841
50943SOL    HW264809   6.880   6.525   5.694  0.3159 -1.0231 -0.3297
50944SOL     OW64810   9.618   6.529  12.487  0.0978  0.0554  0.5605
50944SOL    HW164811   9.692   6.584  12.461  0.7740 -1.2295 -0.3271
50944SOL    HW264812   9.557   6.535  12.414  1.7149 -3.0441 -1.2653
50945SOL     OW64813   1.988   1.379  13.155  0.3984 -0.4777 -0.3090
50945SOL    HW164814   1.985   1.320  13.080 -1.4949 -0.0458 -0.6283
50945SOL    HW264815   1.897   1.409  13.165  1.1101  1.5699  0.4848
50946SOL     OW64816   4.723  13.606   6.425  0.4975  0.5076  0.7536
50946SOL    HW164817   4.678  13.670   6.369  2.2396  0.6351 -0.5640
50946SOL    HW264818   4.749  13.656   6.502  1.2667  1.2510  0.0300
50947SOL     OW64819   4.655  11.276   4.864 -0.5214  0.5404  0.1013
50947SOL    HW164820   4.603  11.255   4.787 -1.2414  2.8370 -0.1043
50947SOL    HW264821   4.708  11.351   4.838  1.7344 -0.7002  0.8301
50948SOL     OW64822   7.759  12.179  12.545 -0.3213  0.5759 -0.0814
50948SOL    HW164823   7.717  12.093  12.547  2.7543 -1.0436  0.7433
50948SOL    HW264824   7.800  12.188  12.631  1.6381  1.6435 -1.0575
50949SOL     OW64825   3.326   1.183   5.727  0.0839 -0.1077 -0.2040
50949SOL    HW164826   3.238   1.144   5.722  0.1602 -0.1179 -2.0840
50949SOL    HW264827   3.309   1.277   5.733 -0.0914  0.0306 -2.2540
50950SOL     OW64828   1.464  10.069   8.114 -0.1178 -0.3476 -0.7018
50950SOL    HW164829   1.501   9.990   8.152  0.0259 -0.1705 -0.4734
50950SOL    HW264830   1.410  10.038   8.042 -0.7778 -0.7188 -0.0539
50951SOL     OW64831  11.220   7.171   1.831 -0.6875  0.0225  0.2150
50951SOL    HW164832  11.226   7.154   1.925 -1.2440  0.3853  0.3174
50951SOL    HW264833  11.248   7.089   1.791 -0.7456 -0.2382  0.6947
50952SOL     OW64834  10.143  12.156   7.618 -0.2298 -0.0388 -0.6197
50952SOL    HW164835  10.202  12.082   7.601 -0.3644 -0.2391 -0.2257
50952SOL    HW264836  10.097  12.170   7.535  0.9832  0.6800 -1.2117
50953SOL     OW64837  12.033   7.577   5.805  0.4233  0.5388  0.6241
50953SOL    HW164838  11.969   7.556   5.873 -0.5212  0.9539 -0.1135
50953SOL    HW264839  12.054   7.669   5.821 -2.9198  1.9686 -2.0152
50954SOL     OW64840  12.829   5.544  10.988 -0.1976  0.1792  0.3278
50954SOL    HW164841  12.772   5.609  11.029  0.9701  1.2856  0.2442
50954SOL    HW264842  12.834   5.571  10.896  0.9836  0.5018  0.4678
50955SOL     OW64843   0.372   7.827  13.006  0.3472 -0.3377 -0.1806
50955SOL    HW164844   0.439   7.832  12.937 -2.3931 -0.3132 -3.0640
50955SOL    HW264845   0.331   7.913  13.006 -1.1845 -1.0349 -0.1535
50956SOL     OW64846   0.797   6.984   0.187  0.2226 -0.8348 -0.1164
50956SOL    HW164847   0.776   7.065   0.234 -1.2252 -2.3049  1.8996
50956SOL    HW264848   0.771   7.002   0.096  0.7028  1.1965  0.0945
50957SOL     OW64849   9.436  13.363   0.213 -0.2600 -0.5341  0.1400
50957SOL    HW164850   9.505  13.304   0.181 -0.0682  0.2211 -0.9226
50957SOL    HW264851   9.461  13.449   0.179  0.0232  0.3780  2.5283
50958SOL     OW64852   4.052  13.578   9.022 -0.0740 -0.3377 -0.0553
50958SOL    HW164853   4.004  13.516   8.967 -0.5586  0.7861 -0.9449
50958SOL    HW264854   4.029  13.664   8.986 -0.0946  0.4075  1.6723
50959SOL     OW64855  12.722   5.090  12.105 -0.0394 -0.4732  0.3679
50959SOL    HW164856  12.776   5.098  12.027 -2.8260  1.7044 -1.5580
50959SOL    HW264857  12.652   5.030  12.080 -1.1002  0.4308  1.0900
50960SOL     OW64858   5.037  10.158  11.440 -0.3811 -0.2131 -0.0249
50960SOL    HW164859   4.977  10.136  11.511 -0.2075  1.1833  0.5834
50960SOL    HW264860   4.980  10.186  11.368 -0.4787  0.4856  0.3261
50961SOL     OW64861   5.465   3.493   5.003 -0.6244  0.8591  0.8947
50961SOL    HW164862   5.411   3.559   4.959 -0.2734  0.0373 -0.8950
50961SOL    HW264863   5.527   3.465   4.935 -1.4721 -2.0679  1.2193
50962SOL     OW64864   0.850   4.278   5.649 -0.8022 -0.1240  0.9644
50962SOL    HW164865   0.925   4.338   5.643  0.5471 -1.8074 -0.0139
50962SOL    HW264866   0.855   4.242   5.737 -0.0812 -0.6392  0.7281
50963SOL     OW64867   0.385   9.363  11.643 -0.1040  0.4263  0.0383
50963SOL    HW164868   0.291   9.347  11.657 -0.1975  1.1044  0.2245
50963SOL    HW264869   0.395   9.368  11.548  0.1396 -1.9052 -0.1121
50964SOL     OW64870  13.085   3.469   9.113  0.4198 -0.4564  0.3479
50964SOL    HW164871  12.992   3.469   9.135 -0.2802  0.7030 -2.2954
50964SOL    HW264872  13.099   3.384   9.071 -0.0791  0.3240 -1.4689
50965SOL     OW64873   0.558   5.018   0.610 -0.1688  0.6280  0.4229
50965SOL    HW164874   0.494   5.061   0.554 -0.9710 -0.3893  0.5421
50965SOL    HW264875   0.509   4.988   0.686  0.5541  0.3308  0.7892
50966SOL     OW64876   9.963   8.408   8.377 -0.1953  0.5340  0.8090
50966SOL    HW164877   9.936   8.318   8.392  0.4495  0.1299 -0.3393
50966SOL    HW264878   9.961   8.449   8.464  0.0020 -0.7223  1.4233
50967SOL     OW64879   7.225   8.361  12.500 -0.7783  0.3118  0.1330
50967SOL    HW164880   7.284   8.286  12.498 -0.6835  0.3954 -0.2508
50967SOL    HW264881   7.280   8.435  12.475 -1.0261  0.4070 -0.1238
50968SOL     OW64882   2.461   4.726   2.571  0.1122  0.0219 -0.6023
50968SOL    HW164883   2.432   4.795   2.630  0.7808 -0.4645  0.3146
50968SOL    HW264884   2.416   4.745   2.488 -1.1776  0.4734  0.1696
50969SOL     OW64885  12.560   1.333   8.422 -0.0281 -0.3494 -0.0720
50969SOL    HW164886  12.572   1.258   8.481  0.9547  0.8292  1.2792
50969SOL    HW264887  12.472   1.364   8.440  0.7791  0.9432  1.9903
50970SOL     OW64888   9.391   0.807   5.805 -0.4634 -0.4824  0.4079
50970SOL    HW164889   9.467   0.783   5.751  0.9395 -0.1664  2.1710
50970SOL    HW264890   9.385   0.902   5.797  0.1942 -0.3512  1.3379
50971SOL     OW64891   0.424   0.219  11.494  0.1387  1.2125 -0.0537
50971SOL    HW164892   0.455   0.303  11.530 -1.6127  0.8817  2.5144
50971SOL    HW264893   0.458   0.218  11.405  2.7753  3.2763  0.7675
50972SOL     OW64894   6.699   6.960   9.291  0.7044  0.0477 -0.1247
50972SOL    HW164895   6.645   7.022   9.339  0.1140 -0.4986 -0.0744
50972SOL    HW264896   6.787   6.971   9.327  0.3882  0.0764  0.6423
50973SOL     OW64897   2.434   0.312   0.664 -0.6525  0.0955 -0.1403
50973SOL    HW164898   2.489   0.303   0.586 -1.2890  0.8146 -0.6826
50973SOL    HW264899   2.484   0.269   0.733  0.6252  0.7756 -0.6042
50974SOL     OW64900  10.566   9.174   9.518  0.3439  0.1436 -0.0769
50974SOL    HW164901  10.506   9.113   9.560 -0.8512  0.3497 -1.3849
50974SOL    HW264902  10.617   9.120   9.457  0.7147  0.1495  0.2218
50975SOL     OW64903   8.590  10.024   4.846 -0.2111 -0.4815  0.3407
50975SOL    HW164904   8.661   9.992   4.790  0.0345  0.0188  0.3671
50975SOL    HW264905   8.547  10.092   4.794  0.2111  0.2046  0.8687
50976SOL     OW64906   5.460  13.734   6.326 -0.6805 -0.1743 -0.2640
50976SOL    HW164907   5.492  13.643   6.330 -0.4041 -0.1063 -0.8359
50976SOL    HW264908   5.368  13.726   6.302 -0.6634 -0.3023 -0.2861
50977SOL     OW64909   9.953   5.583   4.740 -0.0481 -0.0789  0.2765
50977SOL    HW164910   9.926   5.580   4.649 -0.1016  1.5765  0.2039
50977SOL    HW264911   9.877   5.553   4.789 -0.7484  0.9838 -0.1278
50978SOL     OW64912  13.667   8.298   8.578  0.1533  0.0039 -0.5327
50978SOL    HW164913  13.690   8.345   8.498  0.1374 -0.7396 -0.9814
50978SOL    HW264914  13.623   8.364   8.633  0.5753  0.6313 -0.9393
50979SOL     OW64915  10.498  12.597   4.202  0.2020 -0.4619 -0.0411
50979SOL    HW164916  10.406  12.596   4.229 -0.7309 -2.4932 -2.8520
50979SOL    HW264917  10.546  12.578   4.282 -1.9358 -1.1294  1.1756
50980SOL     OW64918  11.063   3.402  13.789  0.4104 -0.3997 -0.2689
50980SOL    HW164919  10.975   3.416  13.754  0.3317  0.3317  0.1950
50980SOL    HW264920  11.077   3.475  13.849  1.2193 -0.6755 -0.1049
50981SOL     OW64921   1.745   1.302  12.842 -0.8359  0.2269 -0.0566
50981SOL    HW164922   1.752   1.296  12.747 -1.4936  0.0661 -0.0972
50981SOL    HW264923   1.825   1.260  12.874 -0.5178  0.4524 -0.5371
50982SOL     OW64924   1.111   5.890   1.499 -0.1256  0.2469 -0.3250
50982SOL    HW164925   1.157   5.890   1.414 -0.8662 -0.9289 -0.7494
50982SOL    HW264926   1.106   5.798   1.523 -0.0075  0.5630  0.9714
50983SOL     OW64927   9.708   3.005  13.836  0.0130 -0.5338 -0.5519
50983SOL    HW164928   9.740   3.064  13.767  1.5436 -2.0890 -1.2439
50983SOL    HW264929   9.785   2.990  13.891 -0.7046 -0.8525  0.3783
50984SOL     OW64930   4.784   7.620   8.498 -0.6037 -0.7423  0.3377
50984SOL    HW164931   4.797   7.537   8.452  1.5472  0.4337 -1.3829
50984SOL    HW264932   4.857   7.626   8.559  0.3065  0.5790 -0.7953
50985SOL     OW64933   5.693   8.555   5.641  0.0027 -0.5967  0.5393
50985SOL    HW164934   5.721   8.490   5.576  2.7413  3.4278 -2.8604
50985SOL    HW264935   5.602   8.574   5.618  0.1186 -1.1270 -0.4179
50986SOL     OW64936   6.561   9.293   8.129  0.2108 -0.2880  0.4985
50986SOL    HW164937   6.488   9.270   8.073  0.2117 -0.3569  0.5266
50986SOL    HW264938   6.566   9.223   8.194  0.3570 -0.3294  0.4437
50987SOL     OW64939   3.879   8.665   4.711 -0.3068 -0.3640  0.5590
50987SOL    HW164940   3.842   8.627   4.791  1.2534  1.9983  2.5568
50987SOL    HW264941   3.834   8.749   4.701  0.5427  0.0235 -0.2046
50988SOL     OW64942   2.523   9.882  13.178  0.1361 -0.1550 -0.1415
50988SOL    HW164943   2.559   9.794  13.195 -0.5023 -0.6375 -1.2102
50988SOL    HW264944   2.585   9.922  13.118 -0.6991 -0.7154 -1.4072
50989SOL     OW64945   0.929   5.540  13.013  0.3573  0.0989 -0.5095
50989SOL    HW164946   0.960   5.595  12.941  1.7602 -0.4076 -0.3137
50989SOL    HW264947   0.980   5.568  13.088 -0.1198 -0.3271 -0.0214
50990SOL     OW64948  13.813   1.359  13.525 -0.2081 -0.4152 -0.3404
50990SOL    HW164949  13.729   1.313  13.535 -0.1972 -0.2303  0.8203
50990SOL    HW264950  13.802   1.438  13.578  0.6438 -0.3111 -0.3164
50991SOL     OW64951   3.835   2.834   4.290  0.4308  0.5750  0.0688
50991SOL    HW164952   3.931   2.826   4.286  0.3928 -0.5459  0.8911
50991SOL    HW264953   3.804   2.745   4.307 -0.4985  1.3945  3.5110
50992SOL     OW64954   5.860   0.181  12.837 -0.3808  0.0901  0.1890
50992SOL    HW164955   5.873   0.118  12.766 -0.7782 -1.3588  1.3401
50992SOL    HW264956   5.869   0.266  12.796  0.4243 -0.7125 -1.3971
50993SOL     OW64957   9.247   7.506   1.933  0.3488 -0.4630  0.1043
50993SOL    HW164958   9.170   7.495   1.878  0.0680  1.2663  0.1191
50993SOL    HW264959   9.300   7.571   1.889 -0.2796  1.6159  2.2128
50994SOL     OW64960   5.756   0.761   3.944 -0.1162  0.0737  0.2067
50994SOL    HW164961   5.662   0.777   3.953 -0.2524 -0.9061  0.6858
50994SOL    HW264962   5.797   0.845   3.963 -0.8657  0.3294  0.7432
50995SOL     OW64963  11.982  10.087   2.699 -0.1046  0.4845 -0.2905
50995SOL    HW164964  11.922  10.157   2.674  0.1670  0.2582 -1.6977
50995SOL    HW264965  11.926  10.016   2.730 -0.8097 -0.4693 -3.3948
50996SOL     OW64966   3.886   4.071   6.727 -0.0996 -0.8586 -0.1064
50996SOL    HW164967   3.889   4.069   6.632  4.1044  0.0781 -0.1887
50996SOL    HW264968   3.863   4.162   6.748  3.3273  0.2274 -0.4752
50997SOL     OW64969   3.518   8.416  13.459  0.0843 -0.4435 -0.3440
50997SOL    HW164970   3.475   8.489  13.503  1.8835  0.8133 -0.5773
50997SOL    HW264971   3.458   8.342  13.472 -0.6432  0.4565  2.0372
50998SOL     OW64972  12.957   4.952  10.774  0.0564  0.1478  0.3065
50998SOL    HW164973  12.890   4.884  10.781  0.0402  0.1729  0.3931
50998SOL    HW264974  12.918   5.019  10.717  0.1647 -0.0278  0.0216
50999SOL     OW64975   4.792   7.011  14.010 -0.0950  0.0195  0.0968
50999SOL    HW164976   4.768   7.012  13.918 -1.4948  0.3589  0.4440
50999SOL    HW264977   4.886   6.989  14.011  0.1177  0.7693 -1.4327
51000SOL     OW64978  11.572   3.710   5.216  0.4991  0.3936 -0.6076
51000SOL    HW164979  11.523   3.628   5.205 -0.5229  1.1421 -1.8952
51000SOL    HW264980  11.527   3.755   5.288  0.1908  0.4348 -0.8237
51001SOL     OW64981   1.050   3.514  13.578 -0.1423 -0.4888  0.3035
51001SOL    HW164982   1.012   3.594  13.613  0.1083  0.4427 -1.4241
51001SOL    HW264983   1.126   3.497  13.633  0.7065  1.3576 -0.2225
51002SOL     OW64984  10.771   2.667  11.053 -0.5771 -0.0325 -0.2847
51002SOL    HW164985  10.770   2.613  10.974  1.1648 -0.8586  0.2005
51002SOL    HW264986  10.709   2.625  11.113  0.8263 -1.6121  0.1192
51003SOL     OW64987  11.256  12.093   4.590 -0.0376  0.0243  0.3398
51003SOL    HW164988  11.325  12.087   4.656  0.8060 -0.3937 -0.5597
51003SOL    HW264989  11.281  12.169   4.537  0.4336 -0.8451 -0.7389
51004SOL     OW64990   9.988   4.182   7.038 -0.3693 -0.1529 -0.0539
51004SOL    HW164991  10.078   4.166   7.010 -0.7217 -2.6006  0.0093
51004SOL    HW264992   9.935   4.151   6.964 -1.1749  0.8929  0.0711
51005SOL     OW64993   5.048   0.990  12.769  0.2114 -0.6109  1.1211
51005SOL    HW164994   5.012   0.988  12.681  2.0132 -0.1172  0.3203
51005SOL    HW264995   5.028   0.904  12.806 -0.3854 -0.8961  0.1609
51006SOL     OW64996   7.119   1.207   7.594 -0.0753 -0.6496 -0.2675
51006SOL    HW164997   7.094   1.289   7.637  0.0883  0.4142 -2.1067
51006SOL    HW264998   7.177   1.164   7.657  1.4868  1.6204 -0.0033
51007SOL     OW64999   5.246   8.594   1.739 -0.1500 -0.6901  0.4179
51007SOL    HW165000   5.276   8.525   1.799 -1.4907 -1.1477  0.5964
51007SOL    HW265001   5.269   8.562   1.652 -0.0920 -1.0040  0.5484
51008SOL     OW65002   1.844   5.809   9.704  0.1502  0.1860  0.0505
51008SOL    HW165003   1.915   5.836   9.645 -0.7461  1.3663 -0.5313
51008SOL    HW265004   1.797   5.742   9.655 -0.0834  0.5576 -0.2427
51009SOL     OW65005  12.110  12.136   4.308 -0.1344 -0.4875  0.1392
51009SOL    HW165006  12.151  12.050   4.303  1.1926  0.1869 -1.1351
51009SOL    HW265007  12.024  12.124   4.268  0.5517 -0.9400 -1.2320
51010SOL     OW65008  11.625   7.640  12.393 -0.4082 -0.0104 -0.6012
51010SOL    HW165009  11.558   7.654  12.326 -0.0979  1.4722 -0.6328
51010SOL    HW265010  11.705   7.673  12.353 -0.1071  0.3266  0.2682
51011SOL     OW65011   3.744  12.069   1.952  0.2610  0.8302  0.0323
51011SOL    HW165012   3.702  11.983   1.953  1.4378  0.2325 -0.8469
51011SOL    HW265013   3.726  12.105   2.039 -0.8674  0.0175  0.1558
51012SOL     OW65014  10.980   2.579   3.499 -0.0727 -0.2655  0.6005
51012SOL    HW165015  10.884   2.575   3.497 -0.1068  0.2218 -1.4355
51012SOL    HW265016  11.002   2.642   3.430  1.7571 -1.4901  0.0143
51013SOL     OW65017   9.924   0.037   6.821  0.0808  0.0392 -0.4186
51013SOL    HW165018   9.988   0.106   6.803  1.2109 -1.1577 -1.1540
51013SOL    HW265019   9.855   0.051   6.757  0.4861  0.2616 -0.8090
51014SOL     OW65020   7.866   5.067  11.920  0.3641  0.5511 -0.1594
51014SOL    HW165021   7.786   5.118  11.934  1.3039  1.5238  2.3051
51014SOL    HW265022   7.843   4.979  11.949 -0.3049  0.3628 -1.2087
51015SOL     OW65023  11.635   3.289   2.580  0.2504 -0.1440 -0.1788
51015SOL    HW165024  11.685   3.364   2.546 -1.4121  1.4562  0.7468
51015SOL    HW265025  11.605   3.318   2.665 -2.7799 -0.7648 -0.9402
51016SOL     OW65026  11.873   2.775   1.448 -0.0596  0.0138  0.3399
51016SOL    HW165027  11.883   2.684   1.420 -3.0350 -0.8723  1.6965
51016SOL    HW265028  11.940   2.787   1.516  0.2153 -1.2355  0.3095
51017SOL     OW65029   9.852  11.812   1.980 -0.6213 -0.1681 -0.3337
51017SOL    HW165030   9.864  11.832   1.887 -0.4088 -0.2518 -0.3242
51017SOL    HW265031   9.843  11.898   2.022 -1.2406 -0.1484 -0.5017
51018SOL     OW65032   1.588  14.009   8.915 -0.1021  0.1821 -0.0805
51018SOL    HW165033   1.545  13.954   8.849 -1.8421  1.0903  0.2157
51018SOL    HW265034   1.647  14.064   8.865 -1.0460  0.5251 -0.8614
51019SOL     OW65035  13.616   1.256  13.771 -0.6227 -0.3718 -0.2404
51019SOL    HW165036  13.539   1.249  13.827 -0.5893  1.7454  0.1553
51019SOL    HW265037  13.581   1.263  13.682 -1.0736  2.1157  0.0445
51020SOL     OW65038  13.826  10.936  11.753  0.1122 -0.0775  0.1762
51020SOL    HW165039  13.874  10.873  11.808 -0.4367 -2.1975 -1.6163
51020SOL    HW265040  13.746  10.890  11.728  0.3962  0.7151 -2.4620
51021SOL     OW65041   5.986   6.259   2.831  0.3796  0.1167  0.0739
51021SOL    HW165042   6.006   6.171   2.864  1.6956 -0.4182 -2.0049
51021SOL    HW265043   5.900   6.250   2.789  0.1354  0.0475  0.5782
51022SOL     OW65044   0.310  12.782  12.358  0.6140 -0.8710 -0.0164
51022SOL    HW165045   0.241  12.717  12.345  0.2769 -0.5312  0.0600
51022SOL    HW265046   0.325  12.818  12.271 -1.4311  1.1879  0.3814
51023SOL     OW65047  13.539   9.403   0.439 -0.0138  0.1191  0.1224
51023SOL    HW165048  13.479   9.361   0.378  4.4005 -1.3188 -3.8218
51023SOL    HW265049  13.548   9.493   0.405 -0.2416  0.4793  0.9849
51024SOL     OW65050  11.625   5.335   8.415 -0.7843  0.2340  0.4799
51024SOL    HW165051  11.646   5.426   8.438 -0.3968  1.5398 -4.0152
51024SOL    HW265052  11.708   5.288   8.428 -0.3237  1.0700  0.6546
51025SOL     OW65053  13.806   8.614   8.142  0.0977  0.3144 -0.5683
51025SOL    HW165054  13.716   8.581   8.145  0.0164  0.5503 -0.3455
51025SOL    HW265055  13.802   8.698   8.187  1.0180 -1.0585  2.3954
51026SOL     OW65056   1.391   7.050  13.175 -0.2308 -0.0480 -0.3954
51026SOL    HW165057   1.332   6.987  13.215 -0.3005  0.6547  0.6550
51026SOL    HW265058   1.335   7.104  13.120 -0.4393  0.0974 -0.0441
51027SOL     OW65059   3.286   4.451   1.521  0.0545 -0.3050 -0.2339
51027SOL    HW165060   3.372   4.426   1.488 -0.4058  1.3155 -2.9512
51027SOL    HW265061   3.231   4.376   1.504  0.6211 -0.8710  0.3494
51028SOL     OW65062   6.019   9.988  10.979  0.0012  0.4490  0.2378
51028SOL    HW165063   5.941  10.017  10.930  1.4782  0.1263 -2.4772
51028SOL    HW265064   6.027  10.052  11.049 -2.4157  0.7739  0.3202
51029SOL     OW65065   3.409   9.501   1.259  0.2835  0.0948  0.9892
51029SOL    HW165066   3.447   9.580   1.299  1.9049  0.1460 -0.5468
51029SOL    HW265067   3.315   9.520   1.253  0.7041  2.1410  0.1859
51030SOL     OW65068   2.026   9.759   0.466  0.4379  0.1664 -0.0800
51030SOL    HW165069   2.025   9.854   0.480  0.1611  0.3167 -1.0658
51030SOL    HW265070   1.963   9.744   0.396 -0.2545 -0.8722  0.7359
51031SOL     OW65071  12.086   2.635   1.345  0.3104 -0.1520 -0.2734
51031SOL    HW165072  12.122   2.690   1.275  0.3351  0.1142 -0.0538
51031SOL    HW265073  12.095   2.688   1.424  1.7220 -1.0429  0.1971
51032SOL     OW65074   2.514  13.067  12.044  0.3127  0.3709 -0.2162
51032SOL    HW165075   2.513  13.160  12.023 -3.6472  0.4021 -0.7613
51032SOL    HW265076   2.440  13.031  11.994  0.3686 -2.6357  1.6168
51033SOL     OW65077   0.735   7.653  13.244  0.2612  0.3137  0.3047
51033SOL    HW165078   0.825   7.667  13.272  0.4302 -1.3812  0.7534
51033SOL    HW265079   0.740   7.575  13.188 -0.6897  1.1864 -1.0620
51034SOL     OW65080   1.378   9.406  11.203  0.0212  0.0332  0.4809
51034SOL    HW165081   1.422   9.362  11.275 -2.1005 -0.2687  1.6630
51034SOL    HW265082   1.322   9.471  11.244 -0.0807  0.9388 -1.0008
51035SOL     OW65083  10.597   3.498   5.854  0.0388 -0.3752 -0.0460
51035SOL    HW165084  10.528   3.564   5.864  0.4923  0.9384 -3.9577
51035SOL    HW265085  10.549   3.416   5.842 -0.6267 -0.2644  1.5269
51036SOL     OW65086   6.931  12.546  13.180  0.1342 -0.5351 -0.0326
51036SOL    HW165087   6.975  12.574  13.099 -1.1706  2.1782  0.0845
51036SOL    HW265088   6.967  12.459  13.198 -0.0443 -1.5844 -3.9009
51037SOL     OW65089   2.855   1.895  10.240 -0.5016  0.0068 -0.2102
51037SOL    HW165090   2.863   1.990  10.241  0.8408  0.0349 -3.4034
51037SOL    HW265091   2.934   1.864  10.195 -0.0042 -2.8117  2.2643
51038SOL     OW65092   0.709   3.182  11.502  0.1042 -0.0973  0.1296
51038SOL    HW165093   0.785   3.220  11.457 -0.2977 -1.1557 -1.5306
51038SOL    HW265094   0.668   3.257  11.546  0.8990  0.8879 -0.7320
51039SOL     OW65095   8.728   9.702   9.671 -0.6311 -0.7075 -0.0191
51039SOL    HW165096   8.794   9.723   9.737 -0.4551  1.1664 -0.7337
51039SOL    HW265097   8.645   9.725   9.712 -0.7832 -2.1584  0.5286
51040SOL     OW65098  13.833  13.906   3.055  0.1714 -0.1914 -0.3760
51040SOL    HW165099  13.906  13.850   3.083  1.3785  1.3114 -0.3693
51040SOL    HW265100  13.855  13.930   2.965 -0.7743 -0.3898 -0.6741
51041SOL     OW65101  13.452   1.355   5.875  0.2280  0.2835 -0.6484
51041SOL    HW165102  13.466   1.266   5.843 -0.3617  0.0796 -0.3505
51041SOL    HW265103  13.360   1.373   5.857 -0.1280  0.1656  0.8919
51042SOL     OW65104   4.340   5.802   1.455  0.7401 -0.2955  0.0304
51042SOL    HW165105   4.308   5.753   1.532 -0.7821  2.8379  1.5593
51042SOL    HW265106   4.420   5.845   1.486 -0.2311  1.5003  0.1476
51043SOL     OW65107  11.711   0.174  11.789 -0.4080  0.0306 -0.1095
51043SOL    HW165108  11.705   0.144  11.879  1.1775  0.7015  0.2400
51043SOL    HW265109  11.753   0.102  11.742 -0.7433 -0.1029 -0.2075
51044SOL     OW65110   3.086   0.623   9.423  0.2023 -0.0314  0.5590
51044SOL    HW165111   3.026   0.659   9.358  2.0900  0.2574 -1.1258
51044SOL    HW265112   3.066   0.529   9.426 -2.2449  0.4588  2.2374
51045SOL     OW65113   5.128  10.416  13.736 -0.1915 -0.2844  0.2517
51045SOL    HW165114   5.221  10.430  13.753 -0.5908  3.0355  0.3844
51045SOL    HW265115   5.102  10.490  13.682 -2.3518 -2.3155 -1.7198
51046SOL     OW65116  12.740  11.921   7.212 -0.1109 -0.4145  0.1050
51046SOL    HW165117  12.673  11.957   7.154  1.3054  0.0108 -1.3213
51046SOL    HW265118  12.738  11.979   7.289  1.2053  2.0327 -1.5702
51047SOL     OW65119  13.258   8.084   5.504 -0.1798  0.4100 -0.4132
51047SOL    HW165120  13.178   8.035   5.523 -0.7483  1.5283  0.1810
51047SOL    HW265121  13.298   8.038   5.431 -1.3119 -0.2337 -0.6433
51048SOL     OW65122   0.138   9.214   2.647  0.1299  0.5014  0.2791
51048SOL    HW165123   0.086   9.196   2.569  0.5611 -1.2640  0.3558
51048SOL    HW265124   0.128   9.136   2.701 -0.3234  1.7541  2.1117
51049SOL     OW65125   2.637   4.217   7.702 -0.2052  0.3946  0.1939
51049SOL    HW165126   2.691   4.192   7.777  0.2358 -1.2223 -0.6217
51049SOL    HW265127   2.671   4.303   7.676  0.5372  0.3607  1.0173
51050SOL     OW65128   0.070   1.807  13.003  0.0640 -0.6062 -0.4754
51050SOL    HW165129  -0.023   1.827  13.012  0.5404  1.7319 -0.0292
51050SOL    HW265130   0.110   1.890  12.975  2.0470 -1.4782 -0.4304
51051SOL     OW65131  12.671   1.985   2.435  0.2357  0.3339  0.2984
51051SOL    HW165132  12.720   2.064   2.460 -1.2507  0.6891  2.4036
51051SOL    HW265133  12.580   2.007   2.455 -0.2184 -1.8882  0.8853
51052SOL     OW65134   2.269   0.682   3.642 -0.2716 -0.0557  0.1088
51052SOL    HW165135   2.290   0.738   3.718 -0.6565 -1.3543  1.2144
51052SOL    HW265136   2.300   0.595   3.668 -0.0805 -0.4603 -1.4024
51053SOL     OW65137   5.085   4.333  12.524  0.1031  0.3179 -0.0903
51053SOL    HW165138   5.132   4.408  12.560  0.3028  1.3256 -2.3318
51053SOL    HW265139   5.006   4.370  12.486  0.8989 -0.3369 -2.5290
51054SOL     OW65140   3.093   3.316   2.262  0.0483  0.1736  0.4466
51054SOL    HW165141   3.025   3.356   2.207  0.0855  0.7060  0.7801
51054SOL    HW265142   3.131   3.247   2.207 -1.6251 -0.9997  0.7230
51055SOL     OW65143   7.408   1.095   7.466  0.3118 -0.2396  0.7512
51055SOL    HW165144   7.422   1.188   7.449 -1.4470  0.0019  0.4758
51055SOL    HW265145   7.392   1.090   7.561 -0.9465 -0.0527  0.5637
51056SOL     OW65146   0.539  10.000   0.243 -0.0052 -0.1640 -0.0645
51056SOL    HW165147   0.486  10.011   0.322  0.6725 -0.4883  0.4414
51056SOL    HW265148   0.622   9.965   0.274  0.3205 -0.1672 -0.9102
51057SOL     OW65149  13.065   9.655  12.397  0.1587  0.4667 -0.2194
51057SOL    HW165150  13.044   9.748  12.407  0.8850  0.5566  0.6076
51057SOL    HW265151  12.980   9.611  12.402 -0.2997  1.1357 -1.6135
51058SOL     OW65152  10.297   7.347   3.844  0.3706 -0.3841 -0.1835
51058SOL    HW165153  10.335   7.268   3.805  1.4517  0.1345 -0.2062
51058SOL    HW265154  10.328   7.418   3.789 -1.6839 -0.0155 -0.9796
51059SOL     OW65155   6.562  10.941   4.545  0.5422 -0.0325 -0.1872
51059SOL    HW165156   6.648  10.904   4.564  1.5121  1.1725 -1.8770
51059SOL    HW265157   6.539  10.990   4.624  0.8953 -1.2433  0.6898
51060SOL     OW65158   0.646   4.027   7.014 -0.0463  0.3129 -0.5427
51060SOL    HW165159   0.590   4.076   6.954 -0.7764  0.2986  0.1166
51060SOL    HW265160   0.708   4.091   7.048 -1.7009  1.0762  1.1832
51061SOL     OW65161   0.535  10.229   6.107 -0.1479  0.4317 -0.0604
51061SOL    HW165162   0.545  10.318   6.141 -0.1061  0.3122  0.2452
51061SOL    HW265163   0.588  10.227   6.028  0.6972  0.3743  0.4966
51062SOL     OW65164   8.412   4.331   3.524 -0.4381 -0.4042  0.4443
51062SOL    HW165165   8.411   4.424   3.545  0.1487 -0.5032  0.9291
51062SOL    HW265166   8.400   4.328   3.429  2.1184  0.3178  0.0124
51063SOL     OW65167  12.466   0.717   7.200 -0.0143  0.2983  0.0231
51063SOL    HW165168  12.490   0.726   7.108  1.1516 -2.7758 -0.0932
51063SOL    HW265169  12.550   0.721   7.247 -0.1007 -1.9481  0.4875
51064SOL     OW65170   4.929  13.260   8.982 -0.0593  0.3628  0.4940
51064SOL    HW165171   4.939  13.179   8.933  2.4410  0.1225  1.2726
51064SOL    HW265172   5.005  13.263   9.040 -1.7895  1.6790  2.8493
51065SOL     OW65173   2.975  10.713  13.876  0.0995  0.4025 -0.4235
51065SOL    HW165174   3.010  10.792  13.919  0.1688  0.3701 -0.4222
51065SOL    HW265175   2.991  10.728  13.783  0.4429  0.2271 -0.3950
51066SOL     OW65176   1.259   8.700   8.901  0.4365 -0.1936  0.1691
51066SOL    HW165177   1.251   8.760   8.975  1.1465  0.5317 -0.3203
51066SOL    HW265178   1.346   8.661   8.911  0.5776 -0.0148 -0.3361
51067SOL     OW65179  13.348  10.590  10.105  0.4369  0.0034 -0.0451
51067SOL    HW165180  13.284  10.519  10.111  1.2987 -0.7773  0.0857
51067SOL    HW265181  13.432  10.548  10.120  0.9157  1.1662  0.6599
51068SOL     OW65182  12.002   3.385  11.928  0.0505  0.0827 -0.3991
51068SOL    HW165183  11.948   3.331  11.985  1.7097  0.2091  1.3935
51068SOL    HW265184  12.002   3.471  11.970 -0.2445  0.7224 -1.6651
51069SOL     OW65185  10.037   1.640   4.969  0.5309 -0.1715  0.1151
51069SOL    HW165186   9.949   1.654   5.004  0.2291 -1.6237 -0.0347
51069SOL    HW265187  10.072   1.565   5.017  1.9772  0.7888  0.6493
51070SOL     OW65188   6.615   3.447   4.362 -0.2922 -0.5806 -0.7281
51070SOL    HW165189   6.705   3.475   4.346 -0.1251 -0.1309  0.8106
51070SOL    HW265190   6.600   3.466   4.455 -3.0215  2.3779 -1.5947
51071SOL     OW65191  10.081  11.720   7.495 -0.0224 -0.1595  0.3179
51071SOL    HW165192  10.009  11.776   7.524  1.6184  1.7944  0.8141
51071SOL    HW265193  10.055  11.693   7.407 -1.0712  1.0768  0.2067
51072SOL     OW65194   0.845   4.203   6.806 -0.1902 -0.1323  0.7261
51072SOL    HW165195   0.927   4.231   6.766 -1.5225  0.7488 -1.6861
51072SOL    HW265196   0.844   4.245   6.892  2.2288 -0.9226  1.2123
51073SOL     OW65197   0.049   3.233   0.608 -0.1470 -0.6879  0.4113
51073SOL    HW165198   0.089   3.160   0.560 -1.2532 -1.9925  1.4030
51073SOL    HW265199   0.036   3.200   0.696  3.0711  2.0744  2.1646
51074SOL     OW65200   5.525  14.004   7.206  0.2549  0.4205  0.3660
51074SOL    HW165201   5.485  14.036   7.287 -0.0798 -1.2464  0.8927
51074SOL    HW265202   5.540  14.083   7.154 -3.1909  1.2422  0.3565
51075SOL     OW65203  11.121   5.971   4.872 -0.4372 -0.5181 -0.3754
51075SOL    HW165204  11.171   5.928   4.940  0.2578  0.1852 -0.4227
51075SOL    HW265205  11.182   6.035   4.834 -0.7310 -1.0282 -1.7906
51076SOL     OW65206   6.313   0.146  10.164  0.4885  0.1055  0.0342
51076SOL    HW165207   6.232   0.123  10.209 -0.1468  2.1978  0.0665
51076SOL    HW265208   6.289   0.149  10.071  0.6847  0.1062 -0.0175
51077SOL     OW65209  10.117  10.200   3.973  0.0044 -1.0186  0.1282
51077SOL    HW165210  10.147  10.160   4.055 -0.1346 -1.9511 -0.2559
51077SOL    HW265211  10.048  10.261   3.999 -0.7701 -2.0656  0.6316
51078SOL     OW65212   4.069   0.250  11.537 -0.1875 -0.4528 -0.1897
51078SOL    HW165213   4.090   0.330  11.488 -0.7492 -1.0161 -1.4219
51078SOL    HW265214   4.079   0.180  11.472  1.1699 -1.5072  1.0976
51079SOL     OW65215   3.540  12.838   9.026 -0.4281  0.4975  0.3980
51079SOL    HW165216   3.578  12.888   8.954  1.2703 -0.6278  0.4520
51079SOL    HW265217   3.450  12.820   8.999  0.3922 -0.5512 -1.8344
51080SOL     OW65218   2.960   0.266   7.668 -0.0657  0.2461 -0.5508
51080SOL    HW165219   2.970   0.355   7.634  1.2086  1.0265  1.6941
51080SOL    HW265220   3.046   0.226   7.654 -0.5226 -0.5261 -1.2011
51081SOL     OW65221   1.000   2.432   8.452  0.2405  0.1066 -0.4947
51081SOL    HW165222   1.087   2.472   8.451  0.3970 -0.1646  0.5024
51081SOL    HW265223   0.948   2.489   8.508  0.2833 -0.6880  0.3916
51082SOL     OW65224   1.368   0.254   2.076 -0.2303 -0.0812  0.3538
51082SOL    HW165225   1.338   0.343   2.056 -3.1950 -0.5765  1.9393
51082SOL    HW265226   1.361   0.207   1.993  2.0741  1.2240 -0.6866
51083SOL     OW65227   4.426   1.037   3.566 -0.4219 -0.5440  0.2103
51083SOL    HW165228   4.398   0.947   3.552 -2.1873 -0.1339  0.7604
51083SOL    HW265229   4.344   1.087   3.568  0.5379  1.1623 -0.7107
51084SOL     OW65230  12.855   3.347   4.617  0.0719  0.3481  0.1288
51084SOL    HW165231  12.800   3.413   4.660 -1.5689 -0.0020 -1.3094
51084SOL    HW265232  12.839   3.362   4.524  1.4406 -0.6351 -0.2768
51085SOL     OW65233   2.415  11.751   6.124 -0.2923  0.6694  0.4571
51085SOL    HW165234   2.448  11.827   6.172  1.0341  0.5422 -0.1961
51085SOL    HW265235   2.414  11.779   6.032  1.1346 -0.3780  0.0900
51086SOL     OW65236   5.485   3.476   8.800  0.1958 -0.1269 -0.7221
51086SOL    HW165237   5.437   3.433   8.871 -0.1720  0.7596 -0.4121
51086SOL    HW265238   5.478   3.569   8.821  0.4812  0.1141 -1.6846
51087SOL     OW65239  11.043   5.679   8.260  0.4924 -0.0469 -0.0089
51087SOL    HW165240  11.028   5.773   8.264  0.5460 -0.0169 -0.4433
51087SOL    HW265241  11.009   5.645   8.343  0.8117  0.3996  0.3042
51088SOL     OW65242   1.501   8.342   8.354 -0.0342 -0.2007  0.3320
51088SOL    HW165243   1.565   8.274   8.375 -0.1086 -0.5265 -0.4723
51088SOL    HW265244   1.533   8.420   8.398  1.4282 -0.1116 -0.8310
51089SOL     OW65245   7.881   6.510   2.617 -0.5784 -0.2272 -0.2908
51089SOL    HW165246   7.933   6.430   2.607 -0.1297 -0.1304  1.1163
51089SOL    HW265247   7.790   6.481   2.607 -0.5278 -1.2018  1.6673
51090SOL     OW65248   5.697  11.987   3.190  0.0965 -0.3520  0.0895
51090SOL    HW165249   5.617  12.007   3.237  0.3025 -1.9207  1.1802
51090SOL    HW265250   5.669  11.974   3.099 -0.7610 -0.1762  0.3186
51091SOL     OW65251   2.611   4.755  12.050 -0.0244  0.1876 -0.0595
51091SOL    HW165252   2.701   4.747  12.020  0.1840  1.0942  0.2767
51091SOL    HW265253   2.558   4.754  11.971  0.3497  0.4390 -0.3144
51092SOL     OW65254   1.367  13.618  10.764  0.0638  0.0922 -0.6683
51092SOL    HW165255   1.365  13.526  10.791 -0.0043 -0.0634 -1.1826
51092SOL    HW265256   1.277  13.649  10.776  0.0463  0.0384 -0.6620
51093SOL     OW65257   8.023   6.909  11.291  0.7427  0.0317 -0.2935
51093SOL    HW165258   8.027   6.826  11.338  2.1407  0.1466 -0.1629
51093SOL    HW265259   7.964   6.893  11.217 -1.2543 -0.2460  1.2602
51094SOL     OW65260   9.768   2.458   6.284 -0.4415 -0.0968 -0.2988
51094SOL    HW165261   9.754   2.393   6.215 -3.0091 -1.3767  1.2566
51094SOL    HW265262   9.686   2.507   6.287 -0.4686 -0.1669  1.8709
51095SOL     OW65263  12.583  12.682   7.194 -0.0263 -0.0315  0.3519
51095SOL    HW165264  12.658  12.715   7.244  0.2974 -0.4004  0.1274
51095SOL    HW265265  12.582  12.736   7.115 -0.1604  0.1473  0.4743
51096SOL     OW65266   0.071   8.904   8.106 -0.4005 -0.6050  0.2703
51096SOL    HW165267   0.123   8.949   8.040 -0.2180  0.4245  1.0858
51096SOL    HW265268  -0.019   8.924   8.084 -0.3519  3.5899  2.7498
51097SOL     OW65269   2.055   0.824   0.588  0.2553  0.0158  0.2118
51097SOL    HW165270   2.116   0.810   0.660 -0.9586 -1.0255  1.0880
51097SOL    HW265271   1.969   0.827   0.630 -0.2494  2.8163 -0.8301
51098SOL     OW65272   3.990  11.621   2.645 -0.0879  0.2577  0.6805
51098SOL    HW165273   3.900  11.612   2.612  0.0842  0.4017  0.1687
51098SOL    HW265274   4.042  11.561   2.591  0.6904  2.5595 -1.3096
51099SOL     OW65275  13.583   3.866   5.668 -0.0954 -0.2671  0.1388
51099SOL    HW165276  13.522   3.930   5.705 -1.1275 -0.6292 -0.8501
51099SOL    HW265277  13.601   3.806   5.740  0.7232  0.9870  1.0218
51100SOL     OW65278  10.417   3.149  10.018 -0.0736 -0.0954  0.8998
51100SOL    HW165279  10.368   3.091   9.959 -1.6381  0.7368  1.3265
51100SOL    HW265280  10.444   3.093  10.090 -0.4461 -0.5576  0.6821
51101SOL     OW65281  11.364   3.852   0.739 -0.7666  0.0988 -0.1677
51101SOL    HW165282  11.449   3.827   0.776 -1.2480  0.6363  1.3952
51101SOL    HW265283  11.385   3.889   0.654  0.5980  0.3731  0.2607
51102SOL     OW65284   1.637   4.321   0.887  0.0779  0.2328  0.0695
51102SOL    HW165285   1.705   4.296   0.949 -1.3544 -2.3735  0.7532
51102SOL    HW265286   1.599   4.401   0.923  0.3013 -0.3931  1.7694
51103SOL     OW65287   5.048  12.781  13.135  0.2397 -1.1970 -0.2610
51103SOL    HW165288   5.070  12.779  13.228 -0.7288  0.3361  0.0299
51103SOL    HW265289   5.079  12.696  13.102  1.1032 -1.5497  1.3205
51104SOL     OW65290  12.746   8.031   6.434  0.3310 -0.0069  0.2392
51104SOL    HW165291  12.733   8.126   6.429 -0.9015 -0.1703  0.1030
51104SOL    HW265292  12.670   7.999   6.483  1.0591 -0.8616  0.8371
51105SOL     OW65293  12.772   9.688  10.065 -0.1430 -0.1720  0.2393
51105SOL    HW165294  12.718   9.610  10.054 -0.1973 -0.3923  1.8109
51105SOL    HW265295  12.770   9.705  10.159  3.1003 -0.6124  0.4916
51106SOL     OW65296  12.798  10.609   0.945  0.2141  0.5715 -0.5434
51106SOL    HW165297  12.875  10.656   0.913  0.8979 -0.0083  0.1880
51106SOL    HW265298  12.773  10.551   0.873  0.5799  0.6374 -0.7240
51107SOL     OW65299   4.157   0.225   4.985  0.7068  0.0833  0.5910
51107SOL    HW165300   4.187   0.312   5.013  0.5947  0.6680 -0.9838
51107SOL    HW265301   4.102   0.242   4.908  0.0029 -1.3270  0.7477
51108SOL     OW65302  13.106   8.995   5.596 -0.1228  0.2406  0.1426
51108SOL    HW165303  13.041   8.987   5.665 -0.6592 -2.1232 -0.5442
51108SOL    HW265304  13.189   8.972   5.637  0.1501  2.1989  0.7619
51109SOL     OW65305   2.137  10.211  10.358 -0.0612 -0.1575  0.4116
51109SOL    HW165306   2.206  10.177  10.301 -0.5084  1.4111 -1.1555
51109SOL    HW265307   2.055  10.193  10.311 -0.4923  0.5970  0.8338
51110SOL     OW65308   7.380   4.460   8.972  0.1101  0.3862 -0.3042
51110SOL    HW165309   7.468   4.432   8.947  0.0573 -0.2689  0.2234
51110SOL    HW265310   7.395   4.527   9.039  0.2063  0.1530 -0.0905
51111SOL     OW65311   8.074   2.780   8.482 -0.0030 -0.4943 -0.1571
51111SOL    HW165312   8.142   2.714   8.473  1.5719  0.9165  0.8235
51111SOL    HW265313   8.102   2.833   8.556 -0.2317  2.3297 -1.9328
51112SOL     OW65314   1.579  12.908   5.930 -0.2014  0.7070  0.3613
51112SOL    HW165315   1.614  12.922   6.018  0.1306 -1.1718  0.5671
51112SOL    HW265316   1.488  12.882   5.944 -0.1318  0.3487  0.1664
51113SOL     OW65317  12.431   2.966   7.359 -0.0172  0.2312  0.4484
51113SOL    HW165318  12.513   2.938   7.399  0.3565 -0.1176 -0.5421
51113SOL    HW265319  12.384   2.885   7.340 -0.5833  0.4257  0.9650
51114SOL     OW65320  10.244   9.138   0.453  0.0259 -0.2018 -0.5188
51114SOL    HW165321  10.179   9.165   0.518 -0.4801 -0.5827 -0.8627
51114SOL    HW265322  10.238   9.204   0.384  0.3703  0.0504 -0.3096
51115SOL     OW65323  13.355  13.167   4.782  0.4362  0.3534  0.1743
51115SOL    HW165324  13.405  13.206   4.854 -0.3683 -1.2608  1.6850
51115SOL    HW265325  13.293  13.235   4.757  0.6386  0.9119  1.0979
51116SOL     OW65326  13.403   5.652   4.040 -0.0019  0.1651  0.4034
51116SOL    HW165327  13.386   5.657   4.134 -0.8637 -1.6557  0.3901
51116SOL    HW265328  13.376   5.563   4.016  1.9259 -0.0496 -1.2316
51117SOL     OW65329   0.677   3.335   9.331  0.3220 -0.2889  0.2822
51117SOL    HW165330   0.767   3.324   9.361 -0.4197 -1.6866  2.1772
51117SOL    HW265331   0.651   3.421   9.365  1.4913  1.0642 -1.9833
51118SOL     OW65332   1.140   0.280   0.929  0.0636 -0.7206  0.5149
51118SOL    HW165333   1.077   0.332   0.879 -1.5015 -1.7110  1.3848
51118SOL    HW265334   1.215   0.271   0.871  0.1657  1.9816  0.1116
51119SOL     OW65335  12.438   4.867   6.181 -0.0106  0.3242  0.0769
51119SOL    HW165336  12.405   4.859   6.091  0.8054  1.5012 -0.3545
51119SOL    HW265337  12.489   4.787   6.194 -0.2648  0.0671 -0.4468
51120SOL     OW65338   5.107   0.396  12.654 -0.7075  0.2624  0.1672
51120SOL    HW165339   5.189   0.347  12.655 -1.0546 -0.3395  0.3343
51120SOL    HW265340   5.110   0.447  12.573 -1.3669 -1.9169 -1.3266
51121SOL     OW65341   2.189   1.164   9.551 -0.0777 -0.3140 -0.2742
51121SOL    HW165342   2.136   1.091   9.519 -0.7059  0.0975 -0.1907
51121SOL    HW265343   2.267   1.164   9.495 -1.7945  1.2899 -2.8707
51122SOL     OW65344   6.431   1.069   1.100 -0.0634 -0.4697  0.7257
51122SOL    HW165345   6.450   1.146   1.046  0.7784 -0.8130  0.5194
51122SOL    HW265346   6.447   0.995   1.042 -1.7998 -0.8105  0.6252
51123SOL     OW65347   1.731   3.637   4.320  0.4619 -0.2411 -0.4700
51123SOL    HW165348   1.701   3.623   4.230 -0.6321 -1.7433  0.0864
51123SOL    HW265349   1.661   3.689   4.360 -0.8882 -2.6035  0.4532
51124SOL     OW65350   0.369   0.174   5.120 -0.4009  0.0449  0.8228
51124SOL    HW165351   0.313   0.250   5.137 -0.4570  0.1754  0.0698
51124SOL    HW265352   0.310   0.106   5.088  0.1071  0.9586 -2.4523
51125SOL     OW65353   2.479   6.665  11.813 -0.0663 -0.2219  0.3114
51125SOL    HW165354   2.572   6.656  11.795 -0.0447  0.6605 -0.0824
51125SOL    HW265355   2.449   6.576  11.830  0.4595 -0.7832 -1.4967
51126SOL     OW65356   9.985   5.197   3.591  0.3959 -0.1346  0.4832
51126SOL    HW165357   9.921   5.139   3.550  0.0704  0.0477  0.7262
51126SOL    HW265358  10.031   5.238   3.518 -0.0180  0.0079  0.2975
51127SOL     OW65359   1.762   4.524   1.655 -0.1391 -0.0729  0.0064
51127SOL    HW165360   1.714   4.448   1.621  0.7269 -1.4800  1.7597
51127SOL    HW265361   1.789   4.572   1.577 -1.0580 -1.3502 -1.1472
51128SOL     OW65362   7.317   4.342   6.152  0.3103  0.2956  0.0265
51128SOL    HW165363   7.340   4.255   6.187  1.2185  0.2912 -0.5632
51128SOL    HW265364   7.299   4.394   6.230  0.1134 -0.3238  0.4064
51129SOL     OW65365   9.760  11.994  12.881 -0.6843 -0.0729 -0.6402
51129SOL    HW165366   9.825  12.060  12.855 -0.5478 -0.4583 -1.2847
51129SOL    HW265367   9.724  12.028  12.963 -2.2461  1.9814 -2.0646
51130SOL     OW65368   9.361   9.818   1.678 -0.1795  0.2846 -0.4460
51130SOL    HW165369   9.393   9.903   1.649  0.6199  0.6155  1.2911
51130SOL    HW265370   9.439   9.762   1.676 -0.4678 -0.1197 -0.5191
51131SOL     OW65371  10.596  12.729   6.743  0.4298  0.0581 -0.0856
51131SOL    HW165372  10.531  12.789   6.777  1.4333  1.1573 -0.0265
51131SOL    HW265373  10.677  12.753   6.787  1.4882  0.6229 -2.1921
51132SOL     OW65374   0.831   0.123   1.463  0.0588 -0.1751  0.3603
51132SOL    HW165375   0.801   0.154   1.548 -1.4507  2.5094 -0.9965
51132SOL    HW265376   0.753   0.085   1.422  0.3135  0.1847 -0.4843
51133SOL     OW65377   5.024   8.152   1.940  1.0029  0.1891 -0.7397
51133SOL    HW165378   4.933   8.183   1.937  1.3079  1.2018 -0.0370
51133SOL    HW265379   5.055   8.163   1.850  0.3097 -0.5885 -1.0887
51134SOL     OW65380   1.741   5.580   4.813  0.1121 -0.0785 -0.1758
51134SOL    HW165381   1.801   5.612   4.745  0.1250 -0.1476 -0.1970
51134SOL    HW265382   1.795   5.575   4.892  0.1689 -0.2636 -0.2240
51135SOL     OW65383   5.737   0.496  13.954 -0.4969  0.4842 -0.3550
51135SOL    HW165384   5.748   0.583  13.917 -2.5598  0.8656 -0.1630
51135SOL    HW265385   5.675   0.452  13.895 -0.3432 -0.4808  0.1713
51136SOL     OW65386   3.816  11.479   1.936 -0.0466 -0.4329 -0.1172
51136SOL    HW165387   3.838  11.549   1.997  1.3220 -0.2116 -0.8397
51136SOL    HW265388   3.760  11.521   1.871 -0.8739 -0.4913  0.5387
51137SOL     OW65389  12.687   3.773   2.400  0.6480  0.2552  0.4367
51137SOL    HW165390  12.749   3.708   2.365 -0.2849 -0.8627  0.7969
51137SOL    HW265391  12.601   3.739   2.375  0.1482  1.5672  0.3143
51138SOL     OW65392  11.371   3.188   4.971 -0.2204 -0.6569  0.2809
51138SOL    HW165393  11.402   3.113   4.919  3.7135  1.5856 -1.0168
51138SOL    HW265394  11.343   3.150   5.054 -0.0382 -3.6812 -0.9125
51139SOL     OW65395  10.056  12.156  10.278  0.7864 -0.4379 -0.0276
51139SOL    HW165396   9.963  12.136  10.266  0.3953  1.3985 -0.3585
51139SOL    HW265397  10.100  12.112  10.205 -0.0521  0.1218 -0.8932
51140SOL     OW65398   4.286   3.603  13.205 -0.0785 -0.0062 -0.5107
51140SOL    HW165399   4.297   3.521  13.158  1.0139 -1.2193  1.6788
51140SOL    HW265400   4.234   3.580  13.282  1.7090  0.9251  1.0691
51141SOL     OW65401  13.284  11.934  12.776 -0.4391  0.3077  0.4033
51141SOL    HW165402  13.286  11.874  12.701 -0.2025  0.0539  0.6108
51141SOL    HW265403  13.249  12.016  12.741  0.7339  0.5487 -0.2285
51142SOL     OW65404  12.750   2.712   3.534 -0.6519  0.1234 -0.4529
51142SOL    HW165405  12.657   2.718   3.555 -0.5272 -1.3318  0.6811
51142SOL    HW265406  12.761   2.622   3.501 -0.2152  1.2684 -3.7914
51143SOL     OW65407   2.384   6.766   6.612  0.0420  0.3824  0.6728
51143SOL    HW165408   2.404   6.676   6.587  0.8422  0.4243  1.1228
51143SOL    HW265409   2.296   6.761   6.649  0.4799 -0.4319  1.6841
51144SOL     OW65410   9.473   2.537   0.773  0.6796  0.7009  0.6045
51144SOL    HW165411   9.393   2.550   0.824  1.0109  0.5590  1.1726
51144SOL    HW265412   9.483   2.442   0.769  0.3953  0.7006 -0.1469
51145SOL     OW65413   1.068   3.631  12.769 -0.0616 -0.1812  0.0076
51145SOL    HW165414   1.126   3.569  12.726  0.6165  0.4855 -0.0493
51145SOL    HW265415   0.982   3.613  12.732 -0.0857 -1.7932  0.7553
51146SOL     OW65416   6.506   5.283  10.822 -0.0301  0.5497  0.4652
51146SOL    HW165417   6.453   5.358  10.795  1.7514  1.3656 -0.9673
51146SOL    HW265418   6.508   5.288  10.918 -1.5352  1.1652  0.4838
51147SOL     OW65419   5.897   0.435   1.148  0.0614 -0.2204 -0.6700
51147SOL    HW165420   5.868   0.511   1.098  0.4576  1.1122  1.0135
51147SOL    HW265421   5.985   0.417   1.115  1.2803  2.1085  0.9623
51148SOL     OW65422   0.325   6.497   8.583  0.1456  0.4754 -0.2427
51148SOL    HW165423   0.367   6.416   8.611 -0.6382  0.5933  1.3990
51148SOL    HW265424   0.334   6.556   8.658 -4.7572 -0.2080  1.2868
51149SOL     OW65425   6.364   7.001   5.964 -0.9208  0.3600  0.0022
51149SOL    HW165426   6.338   6.940   6.033 -1.4396 -0.6236 -1.0350
51149SOL    HW265427   6.308   6.978   5.890 -0.8950  1.8941 -0.5209
51150SOL     OW65428   2.989   5.656   7.962  0.2474  0.3158 -0.2424
51150SOL    HW165429   2.894   5.655   7.974  0.2824  0.5922  0.0916
51150SOL    HW265430   3.004   5.606   7.882 -0.1392 -0.1554 -0.0244
51151SOL     OW65431   8.684  12.202   0.201 -0.3923 -0.0545  0.3548
51151SOL    HW165432   8.704  12.228   0.290 -0.1735 -0.4469  0.4250
51151SOL    HW265433   8.644  12.279   0.161 -1.4926 -0.2142  1.1091
51152SOL     OW65434   0.799   6.418  11.026 -0.6881  0.0725 -0.5918
51152SOL    HW165435   0.751   6.337  11.042 -1.8529  0.8368 -0.1443
51152SOL    HW265436   0.737   6.475  10.981  0.3471  0.4747 -1.5478
51153SOL     OW65437   3.548  11.344  11.544  0.4825 -0.1032  0.6440
51153SOL    HW165438   3.584  11.323  11.458 -0.0647 -2.4384  0.9306
51153SOL    HW265439   3.502  11.427  11.530  1.9594  0.5402 -0.8309
51154SOL     OW65440  13.555   4.803   3.652 -0.2672  0.3439  0.5955
51154SOL    HW165441  13.586   4.765   3.570 -1.6569  0.0820  0.1770
51154SOL    HW265442  13.602   4.754   3.720 -2.1685 -2.3855  0.1032
51155SOL     OW65443   3.327   6.590  12.952 -0.0525 -0.7134  0.6841
51155SOL    HW165444   3.297   6.610  12.863  0.0799 -0.0175  0.7960
51155SOL    HW265445   3.253   6.613  13.008  0.3584  0.1466  0.8794
51156SOL     OW65446  11.632   8.878   2.727  0.1226  0.4441  0.2354
51156SOL    HW165447  11.539   8.863   2.711 -0.1436  0.3817  1.6749
51156SOL    HW265448  11.672   8.791   2.725 -0.2950  0.1614  1.9999
51157SOL     OW65449   5.666   0.194   4.715  0.2342  0.3598  0.8613
51157SOL    HW165450   5.617   0.112   4.709 -0.5165  0.8563 -0.1520
51157SOL    HW265451   5.644   0.229   4.801  0.8423 -0.6633  1.4497
51158SOL     OW65452   9.705   6.896   3.489 -0.4690 -0.1532 -0.3103
51158SOL    HW165453   9.699   6.826   3.554  1.0515  0.5141  0.6082
51158SOL    HW265454   9.792   6.932   3.501 -1.2117  1.9274 -0.7321
51159SOL     OW65455   1.078   3.985   4.262 -0.0701  0.6449  0.2733
51159SOL    HW165456   1.149   4.015   4.319  0.2391  2.7724 -1.1311
51159SOL    HW265457   1.095   4.026   4.178 -1.7863 -0.5497 -0.7209
51160SOL     OW65458  13.707  13.003   9.677 -0.4123  0.0154 -0.3876
51160SOL    HW165459  13.787  13.022   9.726 -0.9075 -0.2642  0.5370
51160SOL    HW265460  13.677  13.089   9.648 -0.2306  0.2098 -0.0124
51161SOL     OW65461   2.391  12.579   0.049  0.0419  0.0571 -0.0646
51161SOL    HW165462   2.336  12.643   0.096  0.3865  0.0500  0.3571
51161SOL    HW265463   2.333  12.542  -0.017  0.4339  2.4967 -1.9334
51162SOL     OW65464   8.654  10.187  12.793 -0.2440 -0.3261 -0.3676
51162SOL    HW165465   8.716  10.251  12.828  1.8916 -3.0501  1.3415
51162SOL    HW265466   8.683  10.172  12.703  1.2462 -1.0266  0.1874
51163SOL     OW65467   5.515   1.315   0.852 -0.3606  0.3878 -0.0133
51163SOL    HW165468   5.481   1.320   0.763  0.8950 -0.9967 -0.6237
51163SOL    HW265469   5.472   1.387   0.899 -0.7063  1.4295 -1.8414
51164SOL     OW65470   0.786   2.130  12.076  0.3555 -0.4012 -0.0574
51164SOL    HW165471   0.746   2.112  11.991  1.2025  0.0477 -0.5627
51164SOL    HW265472   0.786   2.045  12.121 -1.7627 -0.3065  0.2522
51165SOL     OW65473   2.750   4.862   0.570  0.3150  0.6446 -0.4819
51165SOL    HW165474   2.752   4.805   0.647  0.8627  1.4640  0.1270
51165SOL    HW265475   2.812   4.932   0.591  0.5660  0.8034 -1.7327
51166SOL     OW65476   7.790   7.995  12.920  0.2370  0.0466 -0.0235
51166SOL    HW165477   7.809   8.060  12.852 -0.1539  0.6546  0.4294
51166SOL    HW265478   7.742   7.926  12.875  0.5214  0.1428 -0.4836
51167SOL     OW65479   0.773   8.833   8.063  0.1346  0.3603 -0.2973
51167SOL    HW165480   0.848   8.787   8.099  0.2740 -0.2027 -1.2550
51167SOL    HW265481   0.793   8.842   7.969 -1.1914 -0.2403 -0.6674
51168SOL     OW65482   2.641   7.872  13.099 -0.2711  0.0867  0.1650
51168SOL    HW165483   2.702   7.798  13.091 -0.8209 -0.6153  1.9022
51168SOL    HW265484   2.654   7.903  13.188  0.0411  2.2220 -0.5832
51169SOL     OW65485   1.120  12.938   5.795 -0.4001  0.0475  0.7278
51169SOL    HW165486   1.179  12.868   5.765 -1.3486 -0.6832  0.5455
51169SOL    HW265487   1.039  12.893   5.818 -0.9450  1.0671  0.8303
51170SOL     OW65488   7.224  11.026   6.147 -0.4895  0.6489 -0.5996
51170SOL    HW165489   7.265  11.023   6.233 -1.5683  0.2275 -0.0824
51170SOL    HW265490   7.296  11.043   6.087  0.4893 -0.3344  0.2429
51171SOL     OW65491  12.654   0.678   2.148  0.6891 -0.3434 -0.6579
51171SOL    HW165492  12.560   0.666   2.138  0.0632  2.8164  0.3009
51171SOL    HW265493  12.689   0.664   2.060 -0.3208 -3.3558 -0.6932
51172SOL     OW65494  13.614   7.536   0.192  0.1174  0.1997 -0.2871
51172SOL    HW165495  13.605   7.578   0.106  0.5247  0.8553 -0.0082
51172SOL    HW265496  13.585   7.602   0.255 -1.1583 -0.6232  0.0315
51173SOL     OW65497   8.009   8.825  11.813  0.6438 -0.0082 -0.3156
51173SOL    HW165498   8.004   8.816  11.908  0.2425  0.5691 -0.2785
51173SOL    HW265499   8.027   8.736  11.781 -1.3702 -0.6225  0.1492
51174SOL     OW65500  10.269   5.780   7.256  0.1675  0.4641  0.4628
51174SOL    HW165501  10.226   5.707   7.300 -0.3513  0.5128  0.0541
51174SOL    HW265502  10.232   5.858   7.298  1.4487  0.5017  1.5805
51175SOL     OW65503   9.709  10.689   1.249  0.3092  0.0246 -0.2627
51175SOL    HW165504   9.655  10.679   1.327 -0.6852 -0.0879 -0.9517
51175SOL    HW265505   9.701  10.605   1.203 -0.7161  0.7462 -1.4650
51176SOL     OW65506  11.605   6.913   5.367 -0.4864 -0.0199  0.5719
51176SOL    HW165507  11.523   6.885   5.407 -1.5709  1.7263 -0.2931
51176SOL    HW265508  11.582   6.936   5.277  0.7750  1.2429  0.5217
51177SOL     OW65509   6.408   2.189   9.363 -0.3260  0.4646  0.0682
51177SOL    HW165510   6.387   2.273   9.323 -2.1943 -0.8744 -2.0074
51177SOL    HW265511   6.343   2.128   9.327  1.5313 -2.0905  0.7366
51178SOL     OW65512   3.892   5.984   6.244  0.1774  0.2219  0.1505
51178SOL    HW165513   3.904   6.047   6.314  1.9066 -2.3797  2.3756
51178SOL    HW265514   3.800   5.957   6.251  0.3993 -0.1949  1.6141
51179SOL     OW65515   4.491   8.232   7.862 -0.6318 -0.5271 -0.1484
51179SOL    HW165516   4.423   8.229   7.795 -0.1650  0.5388 -0.6894
51179SOL    HW265517   4.528   8.143   7.863 -1.6627 -0.9709 -0.2116
51180SOL     OW65518   7.521   7.897   4.816 -0.3657 -0.4194 -0.0483
51180SOL    HW165519   7.498   7.967   4.754  0.2316  0.5722  0.8317
51180SOL    HW265520   7.448   7.835   4.809 -1.8677  1.1964  0.4933
51181SOL     OW65521   1.170   9.527   9.436  0.4054 -0.1160  0.7435
51181SOL    HW165522   1.214   9.551   9.354 -0.3832 -1.7992 -0.2346
51181SOL    HW265523   1.213   9.446   9.463 -0.9098 -0.8481  0.7077
51182SOL     OW65524   3.499   8.500   5.591 -0.4060  0.9406 -0.2445
51182SOL    HW165525   3.575   8.451   5.624 -1.1504  0.1846  0.3960
51182SOL    HW265526   3.526   8.592   5.597  0.6766  0.6561 -0.5991
51183SOL     OW65527   9.136   1.544   9.092 -0.2536 -0.4540 -0.4264
51183SOL    HW165528   9.170   1.633   9.102 -0.2472 -0.4712 -0.2928
51183SOL    HW265529   9.121   1.535   8.998 -1.6605  0.2240 -0.3113
51184SOL     OW65530  13.052   5.134   3.247  0.2407  0.2002 -0.0804
51184SOL    HW165531  12.983   5.095   3.300 -1.2469 -0.1786 -2.1437
51184SOL    HW265532  13.059   5.076   3.171  1.6420  1.1579 -0.7174
51185SOL     OW65533  12.131   5.900   7.398  0.2522 -0.0971  0.6628
51185SOL    HW165534  12.078   5.979   7.410  1.0374  0.1915  2.4803
51185SOL    HW265535  12.067   5.831   7.381 -0.3781  1.1405 -2.7091
51186SOL     OW65536  10.754   8.042   1.653 -0.1860 -0.4974  0.2595
51186SOL    HW165537  10.757   8.014   1.744 -0.5262 -0.8499  0.1618
51186SOL    HW265538  10.664   8.071   1.639  0.1111  0.5208  0.3176
51187SOL     OW65539  13.769   4.738   9.743  0.6893  0.0699 -0.6626
51187SOL    HW165540  13.777   4.808   9.679 -4.0272  1.0613 -0.5322
51187SOL    HW265541  13.737   4.782   9.822 -0.2182 -1.9097  0.1358
51188SOL     OW65542   5.897   5.254   3.064  0.7933  0.0908  0.4624
51188SOL    HW165543   5.898   5.348   3.048 -0.0840  0.3145  1.6106
51188SOL    HW265544   5.805   5.229   3.059  1.2626 -1.5400 -4.0522
51189SOL     OW65545   0.108   1.175   9.696  0.4497  0.1488 -0.3923
51189SOL    HW165546   0.071   1.241   9.637  0.8004  0.1469 -0.6170
51189SOL    HW265547   0.053   1.098   9.684 -1.3200  1.0353  1.4528
51190SOL     OW65548   5.577  10.112   7.997 -0.0182 -0.2797 -0.4447
51190SOL    HW165549   5.535  10.050   7.939 -1.5826  0.2143  0.0951
51190SOL    HW265550   5.664  10.127   7.959  0.0318 -2.0467 -1.0865
51191SOL     OW65551   5.374   6.479   4.169 -0.7590  0.0849  0.4879
51191SOL    HW165552   5.372   6.575   4.170  2.7346  0.3291 -0.9023
51191SOL    HW265553   5.389   6.454   4.260 -1.6890  0.8159  0.8630
51192SOL     OW65554   7.488  12.395   9.226  0.3894  0.1422  0.5224
51192SOL    HW165555   7.405  12.391   9.274 -0.0212  0.4313 -0.1497
51192SOL    HW265556   7.518  12.304   9.223  0.2941  0.0863  1.1029
51193SOL     OW65557   8.604   1.843  12.034 -0.3811 -0.2286 -0.2516
51193SOL    HW165558   8.688   1.865  11.995 -0.5538 -2.3704 -2.0092
51193SOL    HW265559   8.626   1.783  12.105 -0.3873 -0.5355 -0.5061
51194SOL     OW65560   3.448   6.762   9.260  0.3280  0.1804 -0.0232
51194SOL    HW165561   3.522   6.810   9.222  2.3769 -2.0842  0.8208
51194SOL    HW265562   3.483   6.674   9.276 -3.2369 -1.7038 -1.5746
51195SOL     OW65563   6.067   4.688  11.063 -0.2621 -0.2270 -0.2150
51195SOL    HW165564   5.974   4.665  11.057 -0.0307 -1.2204 -0.2201
51195SOL    HW265565   6.099   4.636  11.137 -0.3419  2.3787  1.7783
51196SOL     OW65566  11.809   0.035   1.216  0.4315  0.4659 -0.5692
51196SOL    HW165567  11.761   0.112   1.247 -0.4244 -0.2725 -0.0038
51196SOL    HW265568  11.761   0.008   1.138  1.7937  1.5321 -1.8472
51197SOL     OW65569   6.233   9.390   1.296  0.0097  0.2542 -0.6010
51197SOL    HW165570   6.273   9.392   1.209 -0.9979  1.2176 -1.0670
51197SOL    HW265571   6.238   9.298   1.323 -0.2847 -0.1873 -1.9750
51198SOL     OW65572   4.700   5.803  13.907  0.3380  0.3799  0.4621
51198SOL    HW165573   4.642   5.801  13.830  2.1887 -2.1771 -1.0250
51198SOL    HW265574   4.756   5.879  13.893  0.9347 -0.2890 -0.9994
51199SOL     OW65575   9.978   5.565   1.901 -0.5505  0.2003 -0.5335
51199SOL    HW165576   9.957   5.476   1.873 -0.4637  0.4285 -1.3468
51199SOL    HW265577   9.898   5.597   1.942 -0.4433 -0.4015  0.1640
51200SOL     OW65578   3.735   4.759   9.926  0.4251  0.1203  0.1493
51200SOL    HW165579   3.789   4.822   9.879  0.7413 -1.2899 -1.4569
51200SOL    HW265580   3.777   4.675   9.912 -1.6789 -0.9118 -0.4263
51201SOL     OW65581   0.929   7.725   0.086 -0.1118  0.0357 -0.1766
51201SOL    HW165582   0.960   7.707   0.175  1.8303  0.4045 -0.7375
51201SOL    HW265583   0.991   7.789   0.052 -0.0321 -1.0789 -2.2607
51202SOL     OW65584  10.432  12.280   5.144 -0.0758 -0.1547  0.3411
51202SOL    HW165585  10.350  12.267   5.191  0.8413 -1.0804  1.7587
51202SOL    HW265586  10.431  12.213   5.076 -0.8613  0.3938 -0.2063
51203SOL     OW65587   1.368   9.473   5.545 -0.3797  0.5520  0.2394
51203SOL    HW165588   1.375   9.474   5.450 -0.0642 -0.7152  0.2304
51203SOL    HW265589   1.444   9.423   5.574 -1.5923 -0.9153  1.0176
51204SOL     OW65590   0.669   5.410  10.666 -0.0994  0.3360 -0.1670
51204SOL    HW165591   0.725   5.333  10.673  0.5482  0.7972 -0.1478
51204SOL    HW265592   0.643   5.413  10.574  1.2841  1.0477 -0.5647
51205SOL     OW65593  10.230   3.486   4.260 -0.3690  0.0656  0.0907
51205SOL    HW165594  10.171   3.509   4.187 -0.3358  0.3047  0.1382
51205SOL    HW265595  10.313   3.466   4.218 -0.2943  0.3963  0.0760
51206SOL     OW65596   2.224   1.822  10.677  0.1308 -0.0019  0.8893
51206SOL    HW165597   2.186   1.896  10.629  0.4686 -0.5040 -0.1827
51206SOL    HW265598   2.295   1.862  10.729  1.9333  0.1551 -1.5143
51207SOL     OW65599   5.740   9.210   5.581 -0.6727 -0.0084 -0.9193
51207SOL    HW165600   5.778   9.233   5.497 -2.8898 -0.0162 -1.9898
51207SOL    HW265601   5.799   9.144   5.617 -0.7100 -1.5479 -3.4472
51208SOL     OW65602   7.979   1.642   9.367  0.2034 -0.2700  0.0143
51208SOL    HW165603   7.902   1.592   9.392 -0.5547 -0.6854 -2.7800
51208SOL    HW265604   7.965   1.729   9.405 -1.0727 -0.6822  0.5291
51209SOL     OW65605  10.964   0.206   8.370  0.0765  0.1457  0.0585
51209SOL    HW165606  10.929   0.276   8.316  0.3635  0.3239  0.0984
51209SOL    HW265607  10.998   0.249   8.448 -0.9344 -0.1855  0.6898
51210SOL     OW65608  10.282  10.901  10.687  0.1881  0.5072 -0.0452
51210SOL    HW165609  10.321  10.880  10.772 -0.1306  1.3183  0.3071
51210SOL    HW265610  10.275  10.996  10.686 -1.6460  0.4036 -0.1569
51211SOL     OW65611   8.187   3.392  13.711 -0.4448  0.0124 -0.6902
51211SOL    HW165612   8.193   3.440  13.628 -0.4544 -0.2550 -0.8447
51211SOL    HW265613   8.093   3.380  13.726 -0.5125  1.1095 -0.0331
51212SOL     OW65614   9.459   5.933   9.647  0.1569 -0.4011 -0.5696
51212SOL    HW165615   9.550   5.906   9.634  0.9158  1.1005  1.1471
51212SOL    HW265616   9.440   5.911   9.738 -1.9380 -2.5545 -1.4433
51213SOL     OW65617   3.225   7.178   4.366  0.2427 -0.1255 -0.9744
51213SOL    HW165618   3.244   7.141   4.280  0.1553 -0.5824 -0.8022
51213SOL    HW265619   3.167   7.114   4.407  0.7825 -0.2143 -0.3384
51214SOL     OW65620  12.703   8.804   6.407 -1.1323  0.0255  0.5880
51214SOL    HW165621  12.760   8.731   6.428 -1.7972  0.0129  2.5242
51214SOL    HW265622  12.760   8.868   6.364 -0.0517 -0.6852  0.9337
51215SOL     OW65623   9.439   5.550   6.017 -0.3363  0.3226 -0.0036
51215SOL    HW165624   9.531   5.560   6.041 -0.6379  1.5538  0.7026
51215SOL    HW265625   9.441   5.496   5.938  0.8872 -0.9586  0.8546
51216SOL     OW65626   6.825   8.411   7.699  0.2921  0.3998 -0.3856
51216SOL    HW165627   6.899   8.379   7.647  0.4943  1.6670 -0.9201
51216SOL    HW265628   6.765   8.448   7.635 -0.4646  0.0532  0.1148
51217SOL     OW65629   3.209  11.451   4.639  0.0329 -0.0511  0.1636
51217SOL    HW165630   3.228  11.410   4.554  0.7805  0.4792  0.0637
51217SOL    HW265631   3.225  11.544   4.624  2.0786 -0.1520  1.3793
51218SOL     OW65632  13.767   1.374   3.616 -0.1583  0.3202  0.7702
51218SOL    HW165633  13.833   1.339   3.676  0.6498  0.6532  0.0909
51218SOL    HW265634  13.719   1.439   3.668  1.8327  2.0664  0.5364
51219SOL     OW65635   4.247   9.244  10.331  0.4146  0.1528 -0.1696
51219SOL    HW165636   4.255   9.149  10.322 -1.0133 -0.2018  1.6571
51219SOL    HW265637   4.315   9.279  10.274  0.3254 -1.9251 -1.6894
51220SOL     OW65638   2.920   6.839   3.969  0.1265 -0.2946  0.3664
51220SOL    HW165639   2.897   6.747   3.958 -0.7463  0.0571 -0.9791
51220SOL    HW265640   2.854   6.886   3.918  1.5451  0.9872 -0.3576
51221SOL     OW65641   0.093   1.020  12.890  0.2772  0.3578 -0.5677
51221SOL    HW165642  -0.002   1.009  12.885  0.3280 -0.0286 -0.6917
51221SOL    HW265643   0.106   1.114  12.883 -0.1155  0.4375 -0.2668
51222SOL     OW65644   5.104   7.420   4.057  0.3920  0.1159  0.2355
51222SOL    HW165645   5.174   7.473   4.019  0.0199 -0.1176 -0.8307
51222SOL    HW265646   5.061   7.380   3.981  0.6410 -1.6814  0.9904
51223SOL     OW65647   1.083  10.554   3.511 -0.2984  0.0116  0.0994
51223SOL    HW165648   1.143  10.624   3.488  1.0304 -0.9395  0.5495
51223SOL    HW265649   1.123  10.512   3.587 -0.6805 -1.6607 -0.5719
51224SOL     OW65650   4.845   2.703  12.380 -0.1736  0.1959  0.6157
51224SOL    HW165651   4.845   2.728  12.472  1.0182 -0.5989  0.8517
51224SOL    HW265652   4.932   2.727  12.349 -0.4162  0.0561 -0.1996
51225SOL     OW65653   8.618   7.672  11.309 -0.0691  0.1443 -0.0584
51225SOL    HW165654   8.705   7.636  11.325  0.1920  0.3025 -1.0249
51225SOL    HW265655   8.563   7.632  11.376  0.9470  0.9042  1.2778
51226SOL     OW65656   2.185  11.516  13.312  0.6851  0.0227  0.2763
51226SOL    HW165657   2.190  11.547  13.402  1.1536 -0.3908  0.3995
51226SOL    HW265658   2.171  11.595  13.260  0.3408  0.2567  0.7164
51227SOL     OW65659   0.318   2.012   4.395  0.0288 -0.5569 -0.3535
51227SOL    HW165660   0.268   2.093   4.386 -2.7179 -1.8466  1.7218
51227SOL    HW265661   0.392   2.036   4.451  0.1479  0.8278 -1.0729
51228SOL     OW65662   2.809   9.517   2.049  0.0561  0.1711  0.7891
51228SOL    HW165663   2.733   9.459   2.051  0.3830 -0.3061  0.0421
51228SOL    HW265664   2.787   9.583   1.983 -0.1804  0.7184  1.4054
51229SOL     OW65665   9.462   8.183   0.843 -0.0123  0.4386  0.2917
51229SOL    HW165666   9.407   8.214   0.771 -0.1014  0.7121  0.4733
51229SOL    HW265667   9.542   8.236   0.836 -0.2174  0.8078  0.6805
51230SOL     OW65668   6.234   1.528   8.256 -0.2437 -0.2565  0.1168
51230SOL    HW165669   6.204   1.547   8.167 -0.6943 -0.2347  0.2703
51230SOL    HW265670   6.325   1.502   8.246 -0.1273  0.3050 -0.2886
51231SOL     OW65671   1.688  10.284   1.320 -0.0703 -0.6543  0.6219
51231SOL    HW165672   1.743  10.349   1.277 -0.9368 -1.3605 -1.6891
51231SOL    HW265673   1.625  10.335   1.371 -0.4698  0.3307 -0.8071
51232SOL     OW65674   5.518   3.937   5.421 -0.1213  0.5551 -0.6163
51232SOL    HW165675   5.581   3.903   5.485 -0.0125  0.5944 -0.7024
51232SOL    HW265676   5.538   3.890   5.340 -2.6592 -2.3304  0.2194
51233SOL     OW65677  11.080   8.786  10.551  0.1858 -0.2366 -0.1195
51233SOL    HW165678  11.039   8.701  10.533  0.3493 -0.2048 -0.6619
51233SOL    HW265679  11.166   8.780  10.511  1.0665 -0.6063  1.7015
51234SOL     OW65680   3.254   8.775   7.985  0.0501  0.1106  0.0082
51234SOL    HW165681   3.279   8.855   7.938  1.6961 -0.4444 -0.1500
51234SOL    HW265682   3.185   8.737   7.932  1.4314 -0.1690 -1.6781
51235SOL     OW65683   7.004   1.013   7.913  0.6962 -0.4459  0.0961
51235SOL    HW165684   6.996   0.983   8.004  2.5847 -1.5688 -0.0599
51235SOL    HW265685   7.018   1.108   7.921  1.1748 -0.5804  0.9892
51236SOL     OW65686   5.745   2.258   7.515 -0.0251  0.1336 -0.4626
51236SOL    HW165687   5.807   2.247   7.587 -1.2074  1.3751  0.8141
51236SOL    HW265688   5.662   2.227   7.551 -0.9938  2.3121 -0.6787
51237SOL     OW65689   4.903   3.539   6.923 -1.0576  0.3525  0.2966
51237SOL    HW165690   4.866   3.564   6.838  2.6262  0.9843 -1.2839
51237SOL    HW265691   4.950   3.617   6.952  0.0671 -0.7583  1.5585
51238SOL     OW65692  10.477   8.913   9.333  0.0633 -0.4168  0.2895
51238SOL    HW165693  10.555   8.859   9.330 -1.2464 -2.3624 -1.0346
51238SOL    HW265694  10.414   8.861   9.383 -0.8233  0.4902  0.1603
51239SOL     OW65695  12.293   7.088   7.433  0.5623 -0.7306 -0.4834
51239SOL    HW165696  12.375   7.079   7.383 -0.0177 -1.7166 -1.3031
51239SOL    HW265697  12.308   7.162   7.491  2.7220 -1.9764  0.6964
51240SOL     OW65698   6.994   9.925   6.961  0.1538 -0.3067 -0.2352
51240SOL    HW165699   7.007   9.836   6.929 -0.9527 -1.1173  1.4086
51240SOL    HW265700   6.966   9.975   6.884 -1.1171 -1.8485 -0.8107
51241SOL     OW65701   2.554   3.475   0.713  0.5859  0.1455 -0.1312
51241SOL    HW165702   2.466   3.478   0.751  1.3246 -0.5122  1.7737
51241SOL    HW265703   2.605   3.423   0.775  2.1120 -0.3053 -1.6682
51242SOL     OW65704   3.490  11.828  10.986 -0.2845 -0.3514 -0.1298
51242SOL    HW165705   3.538  11.885  10.926  0.0552  0.1399  0.5942
51242SOL    HW265706   3.458  11.756  10.931 -1.3347  0.8868 -1.2083
51243SOL     OW65707  10.900   3.855   1.071 -0.2516  0.2309 -0.1127
51243SOL    HW165708  10.984   3.847   1.118 -0.2007  0.2816 -0.1943
51243SOL    HW265709  10.869   3.765   1.063 -1.4268  0.3772  2.1128
51244SOL     OW65710  13.804   5.893   7.116  0.0363  0.3627  0.2430
51244SOL    HW165711  13.781   5.927   7.202 -1.7749 -2.9501  1.1914
51244SOL    HW265712  13.739   5.931   7.057 -1.1338 -0.3888  1.0330
51245SOL     OW65713   8.076   8.489   1.543  0.2430  1.0295  0.5282
51245SOL    HW165714   8.065   8.401   1.508 -1.7674  2.6346 -3.5536
51245SOL    HW265715   8.170   8.506   1.534  0.3423  0.0264 -0.6947
51246SOL     OW65716   2.053   8.757  12.175  0.1468 -0.1592  0.3849
51246SOL    HW165717   2.133   8.708  12.196  0.7631  1.2632  1.6235
51246SOL    HW265718   2.006   8.763  12.258 -0.7836 -0.1632 -0.1308
51247SOL     OW65719  10.665  13.226   5.479 -0.3286  0.2103 -0.2132
51247SOL    HW165720  10.736  13.176   5.439 -1.2435 -1.4420  0.1335
51247SOL    HW265721  10.634  13.285   5.410  2.1563  1.8945 -0.0100
51248SOL     OW65722  12.540   4.627   8.516 -0.1103  0.0959 -0.1822
51248SOL    HW165723  12.605   4.675   8.568  0.6709 -0.7941 -0.3219
51248SOL    HW265724  12.565   4.644   8.425 -0.1242 -0.1921 -0.2385
51249SOL     OW65725   2.420   8.437   8.458  0.5693 -0.0867 -0.6390
51249SOL    HW165726   2.493   8.410   8.513 -0.8002  0.2143  1.4392
51249SOL    HW265727   2.348   8.379   8.484 -1.4798  3.0852  1.4472
51250SOL     OW65728   2.334  12.644  12.094 -1.0403 -0.0075 -0.0846
51250SOL    HW165729   2.371  12.678  12.012 -1.1419 -1.2406 -0.6549
51250SOL    HW265730   2.240  12.650  12.082 -1.0635  1.1304  0.5233
51251SOL     OW65731   2.923  11.335  12.227 -0.2629 -0.2897  0.1410
51251SOL    HW165732   2.944  11.386  12.149 -2.0823 -0.0142 -0.2254
51251SOL    HW265733   2.911  11.400  12.296 -3.3487 -0.0357 -0.5013
51252SOL     OW65734   2.076  12.280   4.051 -0.4361 -0.6496 -0.9022
51252SOL    HW165735   2.014  12.305   4.119 -1.2844  2.4554 -2.5924
51252SOL    HW265736   2.064  12.185   4.041 -2.1583 -0.7614  1.3999
51253SOL     OW65737   5.002  11.658   4.734 -0.1054 -0.0592 -0.2827
51253SOL    HW165738   5.018  11.645   4.640 -2.5765  1.7408 -1.0339
51253SOL    HW265739   4.926  11.603   4.753  0.7590 -0.9100  0.8721
51254SOL     OW65740   1.119   9.241  12.978 -0.1599 -0.3541 -0.7680
51254SOL    HW165741   1.183   9.240  13.049  0.7100  0.5343 -1.5056
51254SOL    HW265742   1.073   9.157  12.985 -1.0215  0.2375  1.6360
51255SOL     OW65743   9.394   5.613  10.921 -0.1621 -0.1618 -0.1306
51255SOL    HW165744   9.325   5.672  10.951 -0.6841 -1.0577  0.4270
51255SOL    HW265745   9.472   5.669  10.918 -1.0302  1.0826 -1.5727
51256SOL     OW65746   6.074   5.426  10.274  0.4958  0.2761 -0.0881
51256SOL    HW165747   6.004   5.457  10.331  1.6145 -0.1021  1.5605
51256SOL    HW265748   6.116   5.506  10.242  0.6109  0.5002  0.6030
51257SOL     OW65749   6.688  11.043   9.871  0.5037 -0.7076 -0.8376
51257SOL    HW165750   6.669  10.962   9.822 -0.5429 -2.0915  1.6841
51257SOL    HW265751   6.607  11.061   9.919  1.6137  0.3470  0.7020
51258SOL     OW65752  13.553   6.392   5.405  0.0656  0.9228  0.6294
51258SOL    HW165753  13.501   6.473   5.407 -1.8702 -0.2556  2.6133
51258SOL    HW265754  13.497   6.329   5.360  0.3174 -0.0302  1.6180
51259SOL     OW65755   6.244   9.568   7.163  0.0439 -0.4917  0.0575
51259SOL    HW165756   6.307   9.560   7.234  1.4935  1.0457 -0.9889
51259SOL    HW265757   6.216   9.659   7.165 -2.0650 -1.0872  0.3800
51260SOL     OW65758  12.914   6.146   6.405 -0.3098 -0.2730  0.0934
51260SOL    HW165759  13.002   6.161   6.371 -0.1798 -1.2311 -0.0086
51260SOL    HW265760  12.920   6.170   6.497 -0.1302  0.3251 -0.0636
51261SOL     OW65761  13.278   3.011   8.866  0.4167 -0.1081 -0.1764
51261SOL    HW165762  13.361   2.976   8.834  0.3328 -1.1093  0.6568
51261SOL    HW265763  13.215   2.939   8.854  0.1570 -0.1359  1.1984
51262SOL     OW65764   4.149  11.549  11.322  0.3188 -0.3157  0.3477
51262SOL    HW165765   4.158  11.641  11.297 -0.2253  0.2237  2.0083
51262SOL    HW265766   4.228  11.508  11.287  0.2267  0.6181 -1.0525
51263SOL     OW65767   4.862   1.873   9.100  0.0579  0.1318  0.5571
51263SOL    HW165768   4.822   1.889   9.185  1.7467 -0.2504  1.4683
51263SOL    HW265769   4.956   1.884   9.115  0.5592 -1.6352 -0.8523
51264SOL     OW65770  12.698   2.216   7.458 -0.0022 -0.2985 -0.3316
51264SOL    HW165771  12.794   2.217   7.466  0.1213  0.0360 -1.7269
51264SOL    HW265772  12.677   2.301   7.420 -0.9500 -0.0290  0.7367
51265SOL     OW65773   5.159   1.511   7.572  0.2412 -0.1098 -0.1481
51265SOL    HW165774   5.253   1.527   7.564  0.1761  0.8482  0.8897
51265SOL    HW265775   5.131   1.495   7.482  0.8383  2.7718 -0.9581
51266SOL     OW65776  11.941   2.151  12.563  0.1739  0.2049 -0.2036
51266SOL    HW165777  12.028   2.120  12.586 -0.1564 -1.0544 -0.5619
51266SOL    HW265778  11.949   2.179  12.472  0.1757 -0.0364 -0.2786
51267SOL     OW65779  10.906  12.381   5.187 -0.0757 -0.3334  0.0274
51267SOL    HW165780  10.910  12.361   5.281 -0.1434  1.0131  0.3332
51267SOL    HW265781  10.989  12.348   5.152  1.5023  2.0845  1.1866
51268SOL     OW65782  12.397   9.134   8.986 -0.8496  0.0401  0.2532
51268SOL    HW165783  12.481   9.172   8.961 -1.2590  0.2253 -0.9045
51268SOL    HW265784  12.354   9.204   9.036 -1.4221  1.0042 -1.5022
51269SOL     OW65785   0.082   4.954  13.847  0.4870 -0.2130 -0.1707
51269SOL    HW165786   0.140   4.955  13.771  0.9307 -0.1263  0.1658
51269SOL    HW265787   0.031   4.874  13.838  2.0372 -1.3167  0.5608
51270SOL     OW65788  13.022  11.113   2.347 -0.8341 -0.1740 -0.2140
51270SOL    HW165789  13.088  11.126   2.416 -0.4851 -0.8747 -0.4003
51270SOL    HW265790  12.993  11.201   2.324  0.9282  0.2402 -0.9833
51271SOL     OW65791   9.707   1.302   9.380 -0.0194  0.5726  0.6888
51271SOL    HW165792   9.754   1.371   9.426  0.0126  1.2647 -0.3499
51271SOL    HW265793   9.763   1.225   9.390  0.4639  0.9528  0.9703
51272SOL     OW65794   3.707   0.227   9.891 -0.5042 -0.1636  0.3423
51272SOL    HW165795   3.674   0.161   9.953 -0.1919 -0.3439  0.3188
51272SOL    HW265796   3.799   0.238   9.914  0.3829 -2.2449 -1.7691
51273SOL     OW65797   1.518   7.802   3.405  0.5105  0.2744 -0.4344
51273SOL    HW165798   1.463   7.733   3.367 -0.6104  1.3051 -0.7623
51273SOL    HW265799   1.598   7.801   3.353  0.7180 -1.0881 -0.1230
51274SOL     OW65800   7.178   8.897  12.149 -0.2530 -0.1191 -0.2303
51274SOL    HW165801   7.121   8.962  12.189  1.7479  1.1189  0.8216
51274SOL    HW265802   7.185   8.924  12.057 -1.0974 -0.1156 -0.2975
51275SOL     OW65803  12.530   4.600  13.167  0.3981 -0.2071  0.1118
51275SOL    HW165804  12.598   4.538  13.196  0.4561  0.6761  2.0218
51275SOL    HW265805  12.573   4.654  13.102  0.6320 -1.5132 -0.8745
51276SOL     OW65806   3.258  11.343  12.154  0.1332  0.4171  0.5092
51276SOL    HW165807   3.191  11.368  12.091 -0.9086 -0.3801  1.2708
51276SOL    HW265808   3.318  11.287  12.105 -0.5435 -0.0192  0.1771
51277SOL     OW65809   0.627   4.500   3.011  0.5378 -0.0459 -0.1277
51277SOL    HW165810   0.543   4.524   2.973  0.9988  1.6226 -0.2138
51277SOL    HW265811   0.625   4.405   3.018 -2.1672  0.0186  1.7490
51278SOL     OW65812  13.065   2.473  12.739 -0.1861  0.0034 -0.4815
51278SOL    HW165813  13.069   2.538  12.809 -1.4612  1.2531 -1.5121
51278SOL    HW265814  13.120   2.401  12.771  1.6525  1.7346  0.5097
51279SOL     OW65815   2.411   3.328   2.335  0.0818  0.1970 -0.0071
51279SOL    HW165816   2.328   3.280   2.336  1.8867 -3.3187  2.7965
51279SOL    HW265817   2.457   3.294   2.259 -0.2377  0.6792 -0.4252
51280SOL     OW65818   6.959  10.105   3.023  0.1085 -0.2826  0.4496
51280SOL    HW165819   6.873  10.064   3.030  0.3195 -0.6948  0.6363
51280SOL    HW265820   6.961  10.170   3.094  0.1288 -0.5954  0.7362
51281SOL     OW65821  11.371   6.689   1.869 -0.4440 -0.8045  0.3698
51281SOL    HW165822  11.427   6.624   1.826  0.3296  0.5737 -0.8154
51281SOL    HW265823  11.429   6.730   1.933 -0.4647 -0.2471  0.0348
51282SOL     OW65824   9.852  10.767   2.797 -0.0069 -0.8789  0.3230
51282SOL    HW165825   9.811  10.688   2.832 -2.2478 -0.2370 -0.6689
51282SOL    HW265826   9.783  10.833   2.801  1.5774  0.8299  0.4070
51283SOL     OW65827   5.217  10.030  10.159  0.0526  0.2039 -0.3980
51283SOL    HW165828   5.130  10.022  10.122  0.9240  0.1078 -2.5644
51283SOL    HW265829   5.276  10.008  10.087  1.8523 -1.9277  1.5752
51284SOL     OW65830  11.055  11.402   8.419  0.5886 -0.5038  0.8124
51284SOL    HW165831  11.149  11.396   8.439  0.8332  1.8026  0.5835
51284SOL    HW265832  11.048  11.376   8.328  0.9324 -1.0904  0.9479
51285SOL     OW65833   9.662   5.239  10.126  0.3582  0.0146 -0.0482
51285SOL    HW165834   9.737   5.276  10.172 -0.5917  1.2468  0.5633
51285SOL    HW265835   9.697   5.209  10.042  1.8321 -0.9234  0.8703
51286SOL     OW65836   0.104   4.363   8.160  0.1258 -0.0303  0.0711
51286SOL    HW165837   0.025   4.366   8.106 -1.1401  0.3449  1.8359
51286SOL    HW265838   0.104   4.275   8.197  1.3188 -0.4932 -0.9800
51287SOL     OW65839   4.869   0.943   7.365  0.0535 -0.2021  0.4220
51287SOL    HW165840   4.854   0.960   7.272 -0.7421  0.1808  0.6140
51287SOL    HW265841   4.854   1.027   7.408 -0.4958 -0.5888  0.9984
51288SOL     OW65842  10.606   9.772   6.272  0.0460  0.2266  0.0478
51288SOL    HW165843  10.637   9.851   6.227  2.2201 -0.7112 -0.2496
51288SOL    HW265844  10.684   9.717   6.279 -0.8451 -0.8869  2.4299
51289SOL     OW65845  13.015   7.197   7.252  0.2541 -0.4151 -0.4761
51289SOL    HW165846  13.042   7.235   7.168  0.0715  0.1108 -0.2969
51289SOL    HW265847  13.055   7.253   7.318 -0.8768  0.1026 -0.2069
51290SOL     OW65848   9.868   2.495   1.522 -0.3718  0.2435  0.0195
51290SOL    HW165849   9.875   2.562   1.454 -2.6126 -1.1257 -1.6978
51290SOL    HW265850   9.826   2.540   1.595 -0.8008  0.9954 -0.6771
51291SOL     OW65851  13.884   9.222   9.069  0.9604  0.0308 -0.2463
51291SOL    HW165852  13.912   9.205   9.158  2.9478  0.7138 -0.6896
51291SOL    HW265853  13.964   9.247   9.023  0.0268 -0.5312 -2.2827
51292SOL     OW65854   8.874   2.664   5.744  0.1303 -0.6769 -0.0118
51292SOL    HW165855   8.799   2.713   5.710 -2.1991 -1.8079  3.0224
51292SOL    HW265856   8.873   2.583   5.693  0.7956  0.2229 -1.5356
51293SOL     OW65857   9.073   4.527   3.791  0.0191  0.1636 -0.4878
51293SOL    HW165858   9.091   4.490   3.705 -1.5938  1.4447 -1.4292
51293SOL    HW265859   8.981   4.505   3.808  0.5602 -0.8795  1.3586
51294SOL     OW65860   5.303   2.795   7.537 -0.0129 -0.1154 -0.3813
51294SOL    HW165861   5.280   2.726   7.474 -1.3357 -1.3703  1.3771
51294SOL    HW265862   5.224   2.848   7.544 -0.2033 -0.5137  0.8114
51295SOL     OW65863   7.226   2.589   0.738  0.3155 -0.6617  0.4509
51295SOL    HW165864   7.297   2.533   0.708  2.0382  0.9281  1.3428
51295SOL    HW265865   7.180   2.616   0.658  0.3426 -2.1416 -0.0877
51296SOL     OW65866   8.594   1.102   5.808  0.3395  0.5199 -0.1541
51296SOL    HW165867   8.645   1.178   5.780  1.7784 -1.0001 -1.9063
51296SOL    HW265868   8.510   1.112   5.762  0.6811  0.8287 -0.7198
51297SOL     OW65869   8.278   1.680   2.586  0.3978  0.2652  0.1813
51297SOL    HW165870   8.265   1.591   2.620 -0.1146  0.4401  0.4584
51297SOL    HW265871   8.190   1.716   2.579  0.5798  0.6414 -0.2450
51298SOL     OW65872   7.197   2.898  12.064  0.7040  0.3995  0.2830
51298SOL    HW165873   7.255   2.938  12.129  0.3293  0.0415  0.8441
51298SOL    HW265874   7.240   2.816  12.041  1.3259  0.9599 -0.6537
51299SOL     OW65875   7.198  11.710   6.228 -0.0076 -0.1344 -0.0489
51299SOL    HW165876   7.227  11.665   6.148  0.8173  3.6726 -2.1369
51299SOL    HW265877   7.104  11.717   6.218 -0.1259 -1.1235  0.2155
51300SOL     OW65878   1.607   4.777  11.823 -0.0473  0.0839 -0.0979
51300SOL    HW165879   1.585   4.774  11.917  0.8700  0.4422  0.1380
51300SOL    HW265880   1.523   4.789  11.779 -0.6381 -1.2443  0.6002
51301SOL     OW65881   5.930   3.871   1.048  0.1379 -0.1163  0.1099
51301SOL    HW165882   5.995   3.920   1.098  1.1408 -1.2658 -0.0145
51301SOL    HW265883   5.975   3.790   1.023 -0.3234  0.3382 -2.5668
51302SOL     OW65884   2.593   2.332   1.637 -0.2039  0.0994 -0.2298
51302SOL    HW165885   2.552   2.322   1.723 -0.6918 -3.5918 -0.7432
51302SOL    HW265886   2.548   2.269   1.581  1.8996  0.4693 -2.5088
51303SOL     OW65887   7.549   7.831   1.863  0.3086 -0.8815  0.3363
51303SOL    HW165888   7.563   7.924   1.884 -1.7195 -0.5181  0.2582
51303SOL    HW265889   7.583   7.822   1.774 -0.8341  0.1616 -0.2329
51304SOL     OW65890  10.535  11.882   3.893  0.4318  0.3428  0.1012
51304SOL    HW165891  10.556  11.945   3.962 -0.6686 -1.5985  2.3709
51304SOL    HW265892  10.616  11.874   3.842  1.6125  1.1827  1.7546
51305SOL     OW65893   9.967   0.411  12.185 -0.2313  0.3506 -0.0830
51305SOL    HW165894  10.004   0.412  12.096  0.6500  0.0310  0.2699
51305SOL    HW265895  10.032   0.456  12.239  0.3871 -1.4903  0.8141
51306SOL     OW65896   2.404  12.520   2.219 -0.1259  0.1008  0.1249
51306SOL    HW165897   2.363  12.606   2.211  1.2458  0.9470  1.6584
51306SOL    HW265898   2.334  12.458   2.197 -1.2377  1.5776 -0.6644
51307SOL     OW65899   7.558   9.822   1.658  0.2464  0.1361  0.7377
51307SOL    HW165900   7.555   9.728   1.673 -1.0602  0.1260  0.4623
51307SOL    HW265901   7.519   9.834   1.571  1.4313  0.8400  0.2610
51308SOL     OW65902   9.845  11.104  12.434  0.7407 -0.2337  0.0463
51308SOL    HW165903   9.849  11.023  12.485 -0.2824 -0.4173 -0.1607
51308SOL    HW265904   9.936  11.118  12.406  0.7623 -1.9375 -0.8846
51309SOL     OW65905   7.651  13.666   9.301 -0.0001  0.8063  0.5274
51309SOL    HW165906   7.615  13.749   9.270 -0.8601 -0.2458 -1.4967
51309SOL    HW265907   7.584  13.630   9.359 -1.8247 -0.5529 -2.2349
51310SOL     OW65908  11.464  11.328   0.300  0.3931 -0.1345 -0.5080
51310SOL    HW165909  11.467  11.240   0.263 -0.3523 -0.6241  0.5692
51310SOL    HW265910  11.371  11.346   0.313  0.6353 -0.0188  1.2123
51311SOL     OW65911   7.972   3.954  12.917  0.0807 -0.0546  0.0479
51311SOL    HW165912   8.015   4.033  12.951 -0.2526 -0.4153  1.3392
51311SOL    HW265913   7.911   3.987  12.851 -2.1597  1.1175  2.5504
51312SOL     OW65914  13.809   2.669   2.927  0.5159  0.1497  0.0779
51312SOL    HW165915  13.765   2.649   3.010  0.6074  0.6996  0.2614
51312SOL    HW265916  13.747   2.640   2.860  0.1698  0.2738  0.3382
51313SOL     OW65917   9.222   6.198   7.462  0.1718  0.0283  0.4181
51313SOL    HW165918   9.309   6.206   7.424  0.4297 -0.2233  0.9458
51313SOL    HW265919   9.201   6.104   7.455  0.4453 -0.1146  1.3629
51314SOL     OW65920   9.249   0.046  13.628  0.4257 -0.1969  0.3302
51314SOL    HW165921   9.311  -0.003  13.574  0.4625 -1.5993  1.5928
51314SOL    HW265922   9.170  -0.009  13.630  0.2612  0.0644  1.3125
51315SOL     OW65923   8.377   2.910   2.495 -0.5261  0.2745 -0.2380
51315SOL    HW165924   8.407   2.994   2.462  2.1728 -0.9378 -1.1253
51315SOL    HW265925   8.397   2.911   2.589 -2.3504  1.3015  0.1914
51316SOL     OW65926   5.848   3.168   5.863  0.0684 -0.0848 -0.2963
51316SOL    HW165927   5.776   3.136   5.917 -0.0279 -0.1795 -0.4813
51316SOL    HW265928   5.901   3.090   5.843  1.1412  0.2161  1.1944
51317SOL     OW65929   1.483  11.724  11.042 -0.3215 -0.1608 -0.1882
51317SOL    HW165930   1.434  11.733  11.124 -1.2774 -0.5090 -0.6984
51317SOL    HW265931   1.575  11.728  11.068 -0.4518 -3.7854  1.4192
51318SOL     OW65932   1.213  13.424   4.191 -0.1783  0.5876 -0.6466
51318SOL    HW165933   1.292  13.398   4.238  0.2434  1.6569 -0.7377
51318SOL    HW265934   1.155  13.458   4.259  0.2452  1.6907 -0.8196
51319SOL     OW65935   5.377   3.801   7.301 -0.0664  0.3027  0.1207
51319SOL    HW165936   5.412   3.818   7.214  1.5191 -0.7845  0.5036
51319SOL    HW265937   5.389   3.883   7.349 -1.5755  1.1261 -0.8432
51320SOL     OW65938   8.122   2.598   2.360 -0.4560 -0.0127  0.0259
51320SOL    HW165939   8.143   2.608   2.453 -0.8527  0.6767  0.0565
51320SOL    HW265940   8.206   2.581   2.317 -0.4765 -2.0823  0.7019
51321SOL     OW65941   0.383  10.213   0.067  0.5241  0.1758 -0.1236
51321SOL    HW165942   0.393  10.127   0.107  0.3736  0.3259  0.2435
51321SOL    HW265943   0.299  10.209   0.021  0.3866  0.2095  0.1187
51322SOL     OW65944  12.268  12.486   2.214  0.3011  0.0258  0.1780
51322SOL    HW165945  12.337  12.552   2.205 -1.0198  1.2947 -1.1252
51322SOL    HW265946  12.274  12.457   2.305  1.7238  1.0180  0.4232
51323SOL     OW65947   9.735   0.014   8.608  0.5477  0.3093 -0.2020
51323SOL    HW165948   9.744   0.097   8.654 -0.0458  0.0440  0.4149
51323SOL    HW265949   9.766   0.032   8.519 -1.3294  1.6919 -0.6405
51324SOL     OW65950   5.873   7.686   1.400 -0.7148 -0.1130 -0.0017
51324SOL    HW165951   5.857   7.719   1.312 -1.6197 -0.7391 -0.0942
51324SOL    HW265952   5.905   7.762   1.449 -1.9061  0.7075 -0.4254
51325SOL     OW65953   2.209  10.029  10.751 -0.2758  0.5245 -0.0044
51325SOL    HW165954   2.117  10.015  10.732 -0.5010  1.2755  0.4852
51325SOL    HW265955   2.251  10.035  10.665 -0.8819  1.4026 -0.2417
51326SOL     OW65956   5.850  11.171  13.955  0.5076  0.3255  0.1738
51326SOL    HW165957   5.792  11.208  14.021  0.6481  0.6298  0.1266
51326SOL    HW265958   5.790  11.132  13.890  0.3627  0.3614  0.2847
51327SOL     OW65959   4.690   2.519  13.940  0.6050 -0.5460  0.5714
51327SOL    HW165960   4.777   2.481  13.953  0.7311 -0.5016 -0.1011
51327SOL    HW265961   4.640   2.492  14.018  1.0930 -0.9342  0.7557
51328SOL     OW65962   8.182   0.186   3.000  0.1651  0.4300  0.1022
51328SOL    HW165963   8.198   0.183   2.906  1.2617  1.3306  0.2489
51328SOL    HW265964   8.209   0.100   3.031  0.0939  0.2397 -0.3505
51329SOL     OW65965   4.954   5.205   4.363  0.2477  0.2660  0.0916
51329SOL    HW165966   4.989   5.161   4.440 -0.5763 -2.4592 -0.9660
51329SOL    HW265967   4.862   5.178   4.361  0.1112  0.7748 -1.4842
51330SOL     OW65968   7.283  12.095   4.866  0.1430 -0.1456  0.3597
51330SOL    HW165969   7.351  12.135   4.812 -0.8484 -0.5727 -1.2451
51330SOL    HW265970   7.303  12.001   4.864  1.5864  0.0120  2.8944
51331SOL     OW65971   1.087  12.254   9.499  0.5210 -0.0164  0.1832
51331SOL    HW165972   1.037  12.198   9.559 -0.9224  1.1393  0.1231
51331SOL    HW265973   1.165  12.203   9.478  1.1255 -0.4776  3.0698
51332SOL     OW65974   6.565   0.944  13.561  0.0760 -0.1623 -0.2377
51332SOL    HW165975   6.510   0.970  13.635  0.2123  1.0721 -0.5429
51332SOL    HW265976   6.502   0.917  13.494 -0.0325 -1.7197  0.4595
51333SOL     OW65977   1.389   5.137  11.611  0.5956 -0.1310  0.1834
51333SOL    HW165978   1.472   5.161  11.572 -0.0647  0.7344 -0.7407
51333SOL    HW265979   1.323   5.185  11.560 -0.3752  0.2724  1.7472
51334SOL     OW65980   9.059  11.076   5.752  0.0351 -0.1727  0.0412
51334SOL    HW165981   8.981  11.114   5.792  0.2929 -0.1215  0.5077
51334SOL    HW265982   9.120  11.150   5.746  0.4146 -0.4309  0.6328
51335SOL     OW65983  13.995   4.899   6.464 -0.3312 -0.6143  0.2213
51335SOL    HW165984  14.057   4.833   6.433 -0.0039 -1.0653  1.7417
51335SOL    HW265985  13.914   4.849   6.477 -0.7853 -0.2059 -0.9072
51336SOL     OW65986   1.099  14.024   8.685  0.1746 -0.2958  0.0287
51336SOL    HW165987   1.143  14.036   8.769 -0.3364 -1.2621  0.4481
51336SOL    HW265988   1.008  14.045   8.703  0.3755  1.3975 -0.7649
51337SOL     OW65989   0.545   6.201   9.192  0.2823 -0.5199 -0.4533
51337SOL    HW165990   0.596   6.155   9.259 -1.2401 -1.2088  0.2618
51337SOL    HW265991   0.549   6.293   9.219  0.8936 -0.5949 -0.2549
51338SOL     OW65992   5.948  13.473   3.038 -0.5340  0.5188  0.0792
51338SOL    HW165993   5.866  13.500   2.997 -2.8394 -2.9529  1.8861
51338SOL    HW265994   5.965  13.540   3.105 -0.4986  2.4976 -1.7998
51339SOL     OW65995  11.011   5.578   0.240 -0.7565  0.1516 -0.4615
51339SOL    HW165996  10.935   5.520   0.229  0.2874 -0.8376 -3.5172
51339SOL    HW265997  11.003   5.642   0.168  1.0951  0.2311 -0.6488
51340SOL     OW65998   4.447   8.397   0.857  0.3119  0.2863 -0.2622
51340SOL    HW165999   4.521   8.405   0.798  0.9925 -1.3317  0.3116
51340SOL    HW266000   4.370   8.398   0.800  0.7855  1.4326 -0.9053
51341SOL     OW66001   7.762   2.184  10.827 -0.6246  0.4665 -0.4894
51341SOL    HW166002   7.693   2.246  10.803 -0.0133  1.2821 -0.1904
51341SOL    HW266003   7.739   2.154  10.915 -1.2686 -0.2470 -0.8859
51342SOL     OW66004   7.558   6.172  12.295 -0.1945  0.2748  0.4187
51342SOL    HW166005   7.629   6.169  12.230 -0.7727 -1.0388 -0.1784
51342SOL    HW266006   7.593   6.227  12.366  0.5748  1.4637 -0.8319
51343SOL     OW66007  13.244   8.402  12.423 -0.1785  0.0477 -0.3924
51343SOL    HW166008  13.293   8.335  12.375  0.4387 -0.7473  1.2549
51343SOL    HW266009  13.156   8.365  12.431 -0.6726  0.7721 -1.9808
51344SOL     OW66010   6.880  13.691   0.386 -0.4376  0.3493 -0.1657
51344SOL    HW166011   6.910  13.770   0.342  2.3999 -0.2576  0.4765
51344SOL    HW266012   6.880  13.623   0.318  0.2727  0.2242 -0.0463
51345SOL     OW66013   1.672   7.533  11.236  0.6466 -0.1629  0.0398
51345SOL    HW166014   1.592   7.549  11.186 -0.4492 -2.5882  0.9019
51345SOL    HW266015   1.743   7.551  11.174 -0.4200  2.8758 -0.5068
51346SOL     OW66016  13.369   7.473  12.792 -0.7942  0.2480  0.3050
51346SOL    HW166017  13.334   7.546  12.842  0.5782 -0.0266  1.7301
51346SOL    HW266018  13.462   7.471  12.813  0.4860  1.5849 -4.0837
51347SOL     OW66019  12.559  12.559   8.192  0.5419  0.6170  0.1575
51347SOL    HW166020  12.505  12.497   8.142  0.7535 -0.3256  1.0682
51347SOL    HW266021  12.646  12.550   8.154  0.3395  1.1979 -0.4620
51348SOL     OW66022   4.518  14.013   8.462 -0.4082 -0.0208 -0.1266
51348SOL    HW166023   4.607  14.007   8.496 -0.3155 -1.0502 -0.5407
51348SOL    HW266024   4.471  14.063   8.529 -0.0395 -1.3176  1.1377
51349SOL     OW66025   2.368  13.754   9.114 -0.3239 -0.2354 -0.1610
51349SOL    HW166026   2.417  13.792   9.042 -0.8365  0.5401 -0.1087
51349SOL    HW266027   2.431  13.699   9.160  0.8224  1.6356  0.5826
51350SOL     OW66028   8.986  13.251   3.170 -0.5602  0.4152 -0.4450
51350SOL    HW166029   8.896  13.222   3.186 -0.3421  1.3922  3.5869
51350SOL    HW266030   8.986  13.343   3.196  1.6571  0.3714 -0.1060
51351SOL     OW66031  11.147   1.801  10.084 -0.4062 -0.2934 -0.1219
51351SOL    HW166032  11.091   1.741  10.133  0.6159 -1.2734 -0.1067
51351SOL    HW266033  11.097   1.821  10.005 -1.4059  0.0646  0.5837
51352SOL     OW66034  11.142   1.824   7.334 -0.1811  0.1621 -0.6219
51352SOL    HW166035  11.066   1.857   7.287 -0.0006 -1.9633 -2.6124
51352SOL    HW266036  11.148   1.732   7.308  1.0048 -0.7043  2.2956
51353SOL     OW66037   9.333  12.698  13.322 -0.4458 -0.8026 -0.1595
51353SOL    HW166038   9.391  12.774  13.333 -0.9521 -0.6355  1.6924
51353SOL    HW266039   9.391  12.626  13.301  0.0521  0.0736 -1.9236
51354SOL     OW66040   6.182  12.666   1.311 -0.4983  0.8184  0.0298
51354SOL    HW166041   6.134  12.715   1.378  0.6098 -0.2959  1.7357
51354SOL    HW266042   6.274  12.678   1.333 -0.1515 -2.9736  1.4042
51355SOL     OW66043   4.269   6.264   0.152 -0.1554  0.2648  1.0432
51355SOL    HW166044   4.301   6.195   0.211 -2.2288 -0.8042  1.0275
51355SOL    HW266045   4.274   6.224   0.065  0.5704  0.9218  0.7775
51356SOL     OW66046  12.455   7.643   5.556 -0.3364  0.1156  0.0410
51356SOL    HW166047  12.382   7.594   5.596  0.5271 -0.1866  1.3276
51356SOL    HW266048  12.532   7.589   5.575  0.5695  1.6922  1.0401
51357SOL     OW66049   2.937   7.832   0.254  0.3033 -0.5954  0.1468
51357SOL    HW166050   3.018   7.882   0.242 -0.8304  1.1162 -0.9699
51357SOL    HW266051   2.922   7.792   0.168 -0.1035 -0.7826  0.3055
51358SOL     OW66052   3.374  13.628   8.397 -0.5730  0.4601  0.2186
51358SOL    HW166053   3.452  13.574   8.409 -1.3420 -0.5495  0.8581
51358SOL    HW266054   3.371  13.646   8.303 -0.0025 -0.1436  0.0812
51359SOL     OW66055  13.388  12.573   6.297 -0.0014 -0.3369  0.2138
51359SOL    HW166056  13.355  12.555   6.385 -1.2077  0.0455 -0.1309
51359SOL    HW266057  13.475  12.609   6.310 -0.0384 -0.5884  1.2334
51360SOL     OW66058   8.192  12.349   9.591  0.2140 -0.0804 -0.2025
51360SOL    HW166059   8.209  12.294   9.667  0.0495  0.3826  0.1786
51360SOL    HW266060   8.275  12.394   9.573  0.2374 -0.1471 -0.2640
51361SOL     OW66061   5.993   8.820   3.010 -0.6099 -0.3081  0.0792
51361SOL    HW166062   6.016   8.834   3.102 -0.6046  0.3732 -0.0226
51361SOL    HW266063   6.007   8.726   2.996 -0.2624 -0.3503  0.6738
51362SOL     OW66064   1.735  11.579  11.449  0.0198  0.0108  0.3798
51362SOL    HW166065   1.695  11.639  11.512 -0.5404 -0.2855  0.3170
51362SOL    HW266066   1.785  11.517  11.502 -0.5141 -0.2851  0.5454
51363SOL     OW66067   5.652  13.105   1.867  0.1815 -0.4513  0.5094
51363SOL    HW166068   5.645  13.166   1.794  0.9268  0.0326  0.8326
51363SOL    HW266069   5.567  13.110   1.911 -0.0336 -0.2398  0.0765
51364SOL     OW66070   8.883   1.176  10.508  0.1052  0.2998 -0.7361
51364SOL    HW166071   8.833   1.247  10.468  0.0337  0.0838 -1.0277
51364SOL    HW266072   8.961   1.219  10.544  0.3228  0.4483 -1.3788
51365SOL     OW66073   7.417   1.058  10.016 -0.2438 -0.0209 -0.1965
51365SOL    HW166074   7.423   1.153  10.024 -2.5808  0.2810 -1.2332
51365SOL    HW266075   7.405   1.042   9.923  2.4136 -1.5720 -0.3768
51366SOL     OW66076   5.975   8.529   2.925  0.0737  0.3319  0.0662
51366SOL    HW166077   5.985   8.506   2.832 -1.7919 -2.0171  0.3462
51366SOL    HW266078   6.040   8.475   2.970 -1.5771 -1.5382  0.3692
51367SOL     OW66079   3.549   5.273  10.559  0.1158 -0.1970  0.0879
51367SOL    HW166080   3.636   5.312  10.550  0.3913 -0.2315  2.2832
51367SOL    HW266081   3.522   5.257  10.468  2.4038 -0.2440 -0.6675
51368SOL     OW66082  11.423   0.708   7.123 -0.5141 -0.8083  0.1532
51368SOL    HW166083  11.474   0.718   7.204  1.7496 -0.9569 -1.1581
51368SOL    HW266084  11.426   0.795   7.083 -0.3457 -1.0840 -0.4481
51369SOL     OW66085  11.116   5.771  13.375 -0.5056  0.2039 -0.4101
51369SOL    HW166086  11.099   5.831  13.448  0.3565 -0.3649  0.2799
51369SOL    HW266087  11.039   5.780  13.319 -0.2778  2.1524 -0.4817
51370SOL     OW66088  10.266   3.530   2.386 -0.3060  0.4552 -0.0365
51370SOL    HW166089  10.285   3.442   2.355  0.8521  0.1234  1.4413
51370SOL    HW266090  10.192   3.519   2.446  0.8972  0.1510  1.4638
51371SOL     OW66091   3.026   3.856  13.323 -0.0877 -0.4833  0.0385
51371SOL    HW166092   3.030   3.937  13.272  0.2056  0.3658  1.3599
51371SOL    HW266093   3.085   3.871  13.397 -0.3905 -1.7291  0.5594
51372SOL     OW66094   6.506   2.724  11.569  0.1304 -0.1349 -0.1890
51372SOL    HW166095   6.443   2.776  11.618  0.5475  1.4861 -1.2928
51372SOL    HW266096   6.463   2.640  11.557 -1.6947  0.8070 -0.6039
51373SOL     OW66097  10.803   9.949  10.004 -0.5060  0.0955  1.0498
51373SOL    HW166098  10.858   9.929   9.928 -1.7396  0.7653 -0.0511
51373SOL    HW266099  10.865   9.961  10.076  0.6670 -0.9261  0.2433
51374SOL     OW66100   6.426  12.714   0.354  0.4148 -0.5152 -0.4729
51374SOL    HW166101   6.504  12.712   0.410  0.8715 -0.3615 -1.0918
51374SOL    HW266102   6.387  12.627   0.365  0.1830 -0.3072  0.5070
51375SOL     OW66103  10.185   7.751   2.107  0.2153  0.2440 -0.0366
51375SOL    HW166104  10.177   7.680   2.043  2.0144  0.1716 -0.2415
51375SOL    HW266105  10.138   7.719   2.184  1.1330 -1.2910 -0.0600
51376SOL     OW66106  11.982   9.108  13.896 -0.2950  0.1096  0.2737
51376SOL    HW166107  12.061   9.140  13.940  0.5307  1.3061 -1.9455
51376SOL    HW266108  11.945   9.043  13.957  2.6835 -0.9231  1.1449
51377SOL     OW66109   6.258   6.257  10.364  0.1562  0.3216  0.9556
51377SOL    HW166110   6.192   6.220  10.305 -0.7501  1.2657  1.3578
51377SOL    HW266111   6.209   6.315  10.422  1.3111  0.8656  1.4210
51378SOL     OW66112   9.248   8.810   2.498 -0.1691 -0.4604 -0.3419
51378SOL    HW166113   9.325   8.849   2.456  0.1544 -1.2085 -0.4503
51378SOL    HW266114   9.229   8.733   2.445 -0.9174 -0.3587 -0.2317
51379SOL     OW66115   5.391   6.928   6.563  0.4313  0.0909 -0.5292
51379SOL    HW166116   5.459   6.881   6.516  0.7052  1.8062 -1.9320
51379SOL    HW266117   5.414   6.917   6.656  1.0233 -1.6468 -0.8539
51380SOL     OW66118   1.682   9.854  12.893  0.4708 -0.0858 -0.0126
51380SOL    HW166119   1.587   9.855  12.901  0.6114 -1.0236  3.0529
51380SOL    HW266120   1.711   9.933  12.939  1.2312  1.0395 -2.2270
51381SOL     OW66121  12.206   1.131  10.560  0.2199  0.1479 -0.3172
51381SOL    HW166122  12.244   1.069  10.623  1.0928  0.4600 -0.5242
51381SOL    HW266123  12.206   1.215  10.607 -1.2861 -0.0411  0.0933
51382SOL     OW66124   2.041  11.301   1.952 -0.1109  0.7877  0.0072
51382SOL    HW166125   1.979  11.341   2.013 -0.3515 -0.1429  0.4007
51382SOL    HW266126   2.072  11.222   1.998 -0.3496  0.0275 -1.1016
51383SOL     OW66127  10.369   1.789   3.268 -0.3722  0.1373 -0.4199
51383SOL    HW166128  10.399   1.804   3.357 -0.9478  0.8793 -0.3382
51383SOL    HW266129  10.445   1.810   3.213 -0.5222  1.3800 -0.1874
51384SOL     OW66130   8.828  13.798   7.056 -0.1681 -0.2570 -0.2110
51384SOL    HW166131   8.773  13.802   6.978  0.9429 -1.7347 -1.1162
51384SOL    HW266132   8.910  13.759   7.026 -0.4013 -2.7771  2.0543
51385SOL     OW66133   3.892   4.094   0.221  0.6827  0.4718 -0.4240
51385SOL    HW166134   3.846   4.177   0.233 -1.0038 -0.2063 -1.7409
51385SOL    HW266135   3.897   4.056   0.308 -1.0864  0.6928 -0.1942
51386SOL     OW66136   9.176  10.267   0.582 -0.2153  0.1016 -0.4552
51386SOL    HW166137   9.192  10.361   0.592  1.0832 -0.1031 -0.3740
51386SOL    HW266138   9.099  10.261   0.525 -1.0188  1.2145  0.4694
51387SOL     OW66139   6.291  13.001   1.919 -0.1532 -0.4807 -0.6923
51387SOL    HW166140   6.236  12.924   1.903 -0.1352 -0.6161 -0.1104
51387SOL    HW266141   6.230  13.075   1.911 -0.3443 -0.6074 -0.4236
51388SOL     OW66142   2.658   9.282   4.939 -0.0508 -0.6892  0.0498
51388SOL    HW166143   2.749   9.309   4.930 -0.2828 -0.4456 -2.1816
51388SOL    HW266144   2.653   9.240   5.025  2.2388 -1.0261  0.0652
51389SOL     OW66145   6.767   2.729   4.703  0.6086 -0.0919  0.3596
51389SOL    HW166146   6.746   2.643   4.668  1.9739  0.2457 -1.4131
51389SOL    HW266147   6.796   2.712   4.792 -0.8528 -1.2352  0.6612
51390SOL     OW66148   8.490   3.867  10.881 -0.3697  0.2066 -0.1913
51390SOL    HW166149   8.417   3.845  10.939 -0.5820  0.7972 -0.2327
51390SOL    HW266150   8.515   3.783  10.841 -1.8124  0.1837 -1.1012
51391SOL     OW66151   0.732  13.313  12.410  0.1342  0.2429  0.4849
51391SOL    HW166152   0.658  13.263  12.377  1.1992 -1.1624  0.1011
51391SOL    HW266153   0.709  13.334  12.501 -1.6813  1.8582 -0.2812
51392SOL     OW66154   5.479   2.653   8.885 -0.1625  0.4194 -0.4196
51392SOL    HW166155   5.386   2.661   8.904 -0.5491  0.7425 -2.2317
51392SOL    HW266156   5.523   2.693   8.959 -1.4422 -0.1810  0.6978
51393SOL     OW66157   1.274   7.139   3.324 -0.1972 -0.5445  0.8340
51393SOL    HW166158   1.334   7.154   3.251 -0.8318  1.3496  0.6551
51393SOL    HW266159   1.296   7.051   3.355  0.8203 -0.9589 -0.9268
51394SOL     OW66160   9.866  12.233  10.916 -0.0756  0.2239  0.5538
51394SOL    HW166161   9.828  12.171  10.854 -1.9900  1.4626  0.4147
51394SOL    HW266162   9.803  12.237  10.988  1.2238  0.1833  1.7411
51395SOL     OW66163  11.598   7.889   8.305  0.4968 -0.2184 -0.0253
51395SOL    HW166164  11.637   7.976   8.314 -0.7500  0.3695 -0.0896
51395SOL    HW266165  11.668   7.829   8.328  1.0720  0.8426  1.0964
51396SOL     OW66166   8.751   8.719   6.027 -0.2584  0.1089 -0.0530
51396SOL    HW166167   8.824   8.715   5.965 -0.3718 -0.9449 -0.1457
51396SOL    HW266168   8.745   8.811   6.052  1.4618  0.1430  0.3838
51397SOL     OW66169   5.502   2.909   3.477  0.0629 -0.0968  0.3005
51397SOL    HW166170   5.475   2.931   3.566 -3.8788 -1.6843 -0.2484
51397SOL    HW266171   5.469   2.981   3.424 -1.4200 -1.0919 -0.2022
51398SOL     OW66172   7.489   1.477   9.051  0.5679  0.3839 -0.1548
51398SOL    HW166173   7.424   1.410   9.072  0.3614  0.8456  0.7268
51398SOL    HW266174   7.563   1.459   9.109 -0.6664  2.6674  2.3442
51399SOL     OW66175   4.580   9.306   4.931  0.6633  0.3666  0.1047
51399SOL    HW166176   4.522   9.380   4.950  1.3361  0.8596  0.2869
51399SOL    HW266177   4.538   9.260   4.859 -0.8140 -0.2470  1.2977
51400SOL     OW66178   7.170  11.504   1.698  1.0128 -0.9127 -0.0192
51400SOL    HW166179   7.172  11.600   1.693  2.3879 -0.9587 -3.4619
51400SOL    HW266180   7.212  11.483   1.781  2.0552  1.4933  0.1420
51401SOL     OW66181  12.346  10.938   7.369  0.3983  0.3905  0.1395
51401SOL    HW166182  12.370  10.930   7.277 -0.6602  0.5865 -0.1738
51401SOL    HW266183  12.280  10.870   7.383 -1.8941  2.3974 -0.1545
51402SOL     OW66184  12.428   6.525   9.296  0.2145 -0.7786  0.6776
51402SOL    HW166185  12.474   6.489   9.221  0.1780  0.4677  0.0200
51402SOL    HW266186  12.342   6.481   9.295  0.5023 -1.3438  0.4695
51403SOL     OW66187   4.180   6.426   0.583  0.0842  0.1112 -0.2569
51403SOL    HW166188   4.263   6.383   0.604 -0.3501 -0.1945  0.9056
51403SOL    HW266189   4.182   6.509   0.632 -0.0093  0.4190 -0.7650
51404SOL     OW66190  10.092  13.263  10.125 -0.1947  0.4286 -0.0405
51404SOL    HW166191  10.062  13.351  10.148 -0.6540  0.3185 -0.2038
51404SOL    HW266192  10.060  13.249  10.036 -1.2375 -0.3974  0.4494
51405SOL     OW66193  12.701  12.508   7.542 -0.1184 -0.2855  0.6795
51405SOL    HW166194  12.708  12.601   7.563  0.8469 -0.1337 -0.2268
51405SOL    HW266195  12.672  12.467   7.623  1.0601  0.5852  1.5701
51406SOL     OW66196   3.918   9.121   2.327  0.5239 -0.6659 -0.0529
51406SOL    HW166197   3.948   9.163   2.246  1.6660  0.3167  0.8283
51406SOL    HW266198   3.968   9.165   2.396 -2.2028  0.3004  1.4696
51407SOL     OW66199  12.992   5.544  10.015 -0.2854 -0.1281  0.7061
51407SOL    HW166200  12.927   5.611  10.038 -1.0762 -0.9880  1.0720
51407SOL    HW266201  13.043   5.531  10.095 -0.2334 -0.0655  0.6820
51408SOL     OW66202   4.055   6.934   8.589 -0.0684  0.2575 -0.3236
51408SOL    HW166203   4.033   6.844   8.566 -0.5376  0.3060 -0.0723
51408SOL    HW266204   3.971   6.975   8.610  0.2479  0.4765  0.5464
51409SOL     OW66205  13.735   2.660  10.054 -0.5032 -0.1239 -0.0994
51409SOL    HW166206  13.718   2.670   9.960 -1.0449 -0.0917  0.0020
51409SOL    HW266207  13.780   2.576  10.062  1.8708  0.9984 -0.6765
51410SOL     OW66208   0.223   4.532   3.482  0.4432 -0.5487  0.0730
51410SOL    HW166209   0.253   4.442   3.485  0.8371 -0.4839 -1.3227
51410SOL    HW266210   0.266   4.570   3.405 -1.2020  0.2874 -0.4868
51411SOL     OW66211   1.543   3.222   3.611  0.4013 -0.2020  0.3998
51411SOL    HW166212   1.509   3.229   3.522  2.8453 -1.7654 -0.7754
51411SOL    HW266213   1.465   3.215   3.666 -1.1999 -1.6273 -1.8720
51412SOL     OW66214  10.291  11.439  11.617 -0.1305 -0.0156  0.1143
51412SOL    HW166215  10.293  11.437  11.713  1.7439  0.1337  0.1053
51412SOL    HW266216  10.277  11.347  11.591  0.1482 -0.1789  0.5329
51413SOL     OW66217   2.615   1.884   2.090  0.0883 -0.3140 -0.6363
51413SOL    HW166218   2.629   1.814   2.153 -0.1495  0.2915  0.1120
51413SOL    HW266219   2.566   1.951   2.139  1.4783  0.9595 -0.8963
51414SOL     OW66220  12.828   5.065   9.791  0.1694  0.0958 -0.0108
51414SOL    HW166221  12.903   5.112   9.827 -0.1238  1.2309 -0.8346
51414SOL    HW266222  12.867   4.988   9.749  0.7575  0.1094  0.4912
51415SOL     OW66223   8.069   5.175  14.013 -0.2568 -0.2377 -0.2883
51415SOL    HW166224   8.085   5.185  14.107 -0.7930  1.5166 -0.3346
51415SOL    HW266225   7.988   5.124  14.008 -0.0684 -0.5957  0.1894
51416SOL     OW66226  13.794   3.020   0.131  0.5193 -0.5603  0.1427
51416SOL    HW166227  13.712   3.049   0.170 -1.0206  0.0616 -3.1875
51416SOL    HW266228  13.807   2.932   0.164 -1.4011 -0.5980  0.9120
51417SOL     OW66229  11.153  12.202   4.950 -0.2322 -0.0097 -0.1214
51417SOL    HW166230  11.166  12.272   5.014  0.3545 -0.1424 -0.0874
51417SOL    HW266231  11.209  12.227   4.876  0.4775 -0.7490  0.1447
51418SOL     OW66232  11.366   2.531   0.620 -0.6466  0.5320 -0.7984
51418SOL    HW166233  11.365   2.624   0.595  1.4541  0.3397 -1.7989
51418SOL    HW266234  11.455   2.514   0.648 -1.0196 -1.1813 -0.5224
51419SOL     OW66235   6.953   5.054   7.983 -0.0973  0.2968  0.0541
51419SOL    HW166236   6.971   5.147   7.969  1.3191  0.4500  2.4258
51419SOL    HW266237   7.035   5.010   7.961  0.7534  0.1448  3.0170
51420SOL     OW66238   4.317   8.675   3.425  0.3826 -0.9730  0.1514
51420SOL    HW166239   4.370   8.687   3.504 -0.5007 -2.2896  0.9756
51420SOL    HW266240   4.380   8.687   3.353  1.1448  0.5237  1.0035
51421SOL     OW66241   4.082   0.862   2.659 -0.0070 -0.0490 -0.0069
51421SOL    HW166242   4.071   0.957   2.663  0.0504 -0.0645  0.8895
51421SOL    HW266243   4.100   0.837   2.750 -2.4676 -1.2219  0.2447
51422SOL     OW66244  12.957   1.842  10.898  0.2468 -0.2783 -0.4489
51422SOL    HW166245  12.992   1.898  10.828 -0.0261 -0.4810 -0.7525
51422SOL    HW266246  13.034   1.800  10.937  0.4498  0.2773 -0.2437
51423SOL     OW66247   2.716  13.937   0.484  0.4818  0.3988 -0.3819
51423SOL    HW166248   2.760  13.937   0.569  0.6873 -0.0873 -0.4864
51423SOL    HW266249   2.624  13.957   0.505  0.7460  1.4620 -0.1716
51424SOL     OW66250   4.344   5.821   3.772 -0.2490 -0.1104  0.0356
51424SOL    HW166251   4.324   5.747   3.830  1.0968  1.0081  2.0685
51424SOL    HW266252   4.326   5.788   3.684 -0.2398 -2.6590  0.8902
51425SOL     OW66253   0.757   6.135  12.194 -0.2582  0.4994 -0.2090
51425SOL    HW166254   0.737   6.046  12.164  2.2590 -0.1497 -0.1280
51425SOL    HW266255   0.808   6.173  12.123 -0.0994  1.3793  0.3688
51426SOL     OW66256   7.467   6.413  13.302 -0.1946 -0.7613  0.2511
51426SOL    HW166257   7.394   6.405  13.363 -0.3494 -1.3283 -0.0030
51426SOL    HW266258   7.531   6.348  13.332  1.0811  1.0363  1.6600
51427SOL     OW66259   4.132  13.565   4.718  0.2607  0.0104 -0.3498
51427SOL    HW166260   4.176  13.600   4.796  0.3560 -0.8949  0.0199
51427SOL    HW266261   4.044  13.602   4.722 -0.1576 -1.0392  0.9244
51428SOL     OW66262   5.565  10.728  12.572  0.4764  0.6044 -0.5613
51428SOL    HW166263   5.470  10.725  12.577  0.4229 -1.1237 -1.6898
51428SOL    HW266264   5.590  10.796  12.635 -1.3999  0.0602  0.8741
51429SOL     OW66265  10.736   5.258   7.523 -0.1767  0.0648 -0.3040
51429SOL    HW166266  10.645   5.277   7.500 -0.1347  0.5330 -0.1017
51429SOL    HW266267  10.752   5.171   7.487 -0.6893 -0.0010 -0.3853
51430SOL     OW66268   2.386  10.926   2.789 -0.3509 -0.2153  0.7780
51430SOL    HW166269   2.442  10.865   2.741  0.2143  1.4532 -0.8237
51430SOL    HW266270   2.297  10.896   2.771 -0.1500  0.1843 -1.2058
51431SOL     OW66271   8.347   8.175   9.265  0.5274 -0.0592  0.3165
51431SOL    HW166272   8.271   8.227   9.293 -0.2522 -1.3301  0.6750
51431SOL    HW266273   8.310   8.111   9.204  1.2555 -0.8704  0.7111
51432SOL     OW66274   0.361  12.529  10.696 -0.7338  0.9457 -0.7017
51432SOL    HW166275   0.266  12.520  10.704 -0.6890  1.0857  0.1190
51432SOL    HW266276   0.374  12.620  10.668 -0.8226  1.1396 -0.1333
51433SOL     OW66277  13.664   3.812   9.147 -0.6171 -0.1952  0.0661
51433SOL    HW166278  13.619   3.748   9.091  0.3905  0.0530 -1.0612
51433SOL    HW266279  13.654   3.895   9.101  0.3865 -0.0212  0.1470
51434SOL     OW66280   7.149  11.222  12.214  0.2723  0.0245  0.6409
51434SOL    HW166281   7.068  11.222  12.163  1.1573 -3.5611 -1.0199
51434SOL    HW266282   7.136  11.155  12.281  2.4241 -2.0333 -0.8508
51435SOL     OW66283   2.801   8.778   4.796  0.1736 -0.3240 -0.5663
51435SOL    HW166284   2.836   8.826   4.871  2.5992 -1.4142 -0.8822
51435SOL    HW266285   2.795   8.687   4.828 -0.4469 -0.4996 -1.1788
51436SOL     OW66286  10.065   6.540   6.503  0.1455 -0.1013  0.3734
51436SOL    HW166287  10.004   6.471   6.475  1.2091 -1.0190  0.2550
51436SOL    HW266288  10.146   6.493   6.524  0.8196  1.0954  0.5165
51437SOL     OW66289  10.668   0.954   2.937  0.0124 -0.6427  0.7447
51437SOL    HW166290  10.716   0.904   2.871  0.1640 -0.7849  0.9650
51437SOL    HW266291  10.734   1.008   2.980 -0.3174  0.6625 -0.3070
51438SOL     OW66292  10.045  13.208   2.898  0.3152 -0.3855  0.1820
51438SOL    HW166293  10.108  13.190   2.829  0.3070  0.0103  0.0712
51438SOL    HW266294   9.964  13.165   2.868  0.5455 -0.9630  0.3640
51439SOL     OW66295   9.400   2.705   8.053 -0.5510 -0.1880 -0.2563
51439SOL    HW166296   9.411   2.610   8.056  2.8784  0.1172  0.9153
51439SOL    HW266297   9.453   2.738   8.126 -1.8233  2.6549 -0.4573
51440SOL     OW66298   7.205  12.896  11.429  0.1603 -0.1572 -0.7588
51440SOL    HW166299   7.298  12.885  11.409  0.1694 -1.6718 -0.0073
51440SOL    HW266300   7.163  12.819  11.391 -0.8247  0.5188 -1.1117
51441SOL     OW66301  10.358   0.501   9.617  0.5589 -0.7074 -0.0056
51441SOL    HW166302  10.422   0.436   9.647  1.0540  0.0249  0.5388
51441SOL    HW266303  10.284   0.448   9.588  0.0080 -1.5132  2.5561
51442SOL     OW66304  10.998  13.130   6.039  0.4279  0.5042  0.0419
51442SOL    HW166305  10.967  13.200   6.096 -3.8490 -0.1345 -1.1407
51442SOL    HW266306  11.014  13.173   5.955  3.9945  0.9389  0.7564
51443SOL     OW66307   0.098   9.359  10.702  0.0185  0.1055  0.3293
51443SOL    HW166308   0.029   9.388  10.761 -1.5940 -2.0804 -0.3372
51443SOL    HW266309   0.110   9.432  10.641 -1.2229  0.7937  0.8787
51444SOL     OW66310   4.422   1.863   3.266  0.4295 -0.3284 -0.1720
51444SOL    HW166311   4.492   1.911   3.221 -0.8856  0.5125 -1.3835
51444SOL    HW266312   4.362   1.932   3.296  0.5338 -0.9748  1.6535
51445SOL     OW66313   8.535   3.894   1.021  0.4438  0.4727 -0.2176
51445SOL    HW166314   8.567   3.808   0.993 -1.4478 -0.3451 -0.0598
51445SOL    HW266315   8.514   3.939   0.939  1.0199  0.6125 -0.2892
51446SOL     OW66316   2.820   1.385   3.509  0.0326  0.4082  0.1165
51446SOL    HW166317   2.828   1.465   3.457  1.6497  1.2912  1.6134
51446SOL    HW266318   2.750   1.335   3.466 -0.1648  2.0423 -1.5884
51447SOL     OW66319  11.797   1.580   5.691 -0.0064  0.0888  0.0378
51447SOL    HW166320  11.865   1.639   5.723  0.2732  0.1895 -0.7246
51447SOL    HW266321  11.736   1.637   5.643 -0.8200  0.0555  1.0106
51448SOL     OW66322  10.468   7.542  13.891  0.2949  0.5542  0.6580
51448SOL    HW166323  10.451   7.514  13.981  1.3272  0.7023  0.9110
51448SOL    HW266324  10.549   7.497  13.867 -0.2008  0.1720 -0.3593
51449SOL     OW66325   7.406   1.895   3.612  0.2186 -0.2595 -0.0037
51449SOL    HW166326   7.490   1.853   3.630  0.8123  1.5536  1.7852
51449SOL    HW266327   7.406   1.974   3.666 -2.9581 -0.5420  0.6184
51450SOL     OW66328   8.515   8.429   0.220 -0.0743 -0.4408  0.1669
51450SOL    HW166329   8.466   8.414   0.300 -1.6693  0.1355 -0.6647
51450SOL    HW266330   8.586   8.488   0.246 -0.3776 -0.5107  1.2049
51451SOL     OW66331   4.520   9.402   2.060  0.1692  0.0907 -0.5974
51451SOL    HW166332   4.568   9.460   2.119 -0.7203  0.3074 -0.0771
51451SOL    HW266333   4.587   9.369   2.000  0.8606  0.8768 -0.2833
51452SOL     OW66334   8.164   3.587   9.532  0.1197 -0.3607  0.3408
51452SOL    HW166335   8.186   3.680   9.538  0.0527 -0.4251  1.9341
51452SOL    HW266336   8.074   3.582   9.563 -0.4011 -0.7995 -1.1224
51453SOL     OW66337   3.903   1.152  11.931 -0.5575  0.7935  0.2404
51453SOL    HW166338   3.901   1.080  11.994 -0.6061  1.3038  0.8274
51453SOL    HW266339   3.982   1.200  11.952 -1.1661  1.6295  0.6665
51454SOL     OW66340  12.836  12.468   6.445 -0.2680  0.1422  0.0424
51454SOL    HW166341  12.885  12.455   6.364  0.2774 -0.0623  0.3970
51454SOL    HW266342  12.876  12.545   6.485 -0.1546 -0.0957  0.3911
51455SOL     OW66343  13.043   9.761   6.553 -0.1387 -0.2861 -0.4943
51455SOL    HW166344  13.052   9.681   6.604 -0.1211 -0.0342 -0.0944
51455SOL    HW266345  13.007   9.825   6.615  2.0614  0.6882 -0.1291
51456SOL     OW66346   3.174  13.254   1.669  0.0740  0.1077  0.2230
51456SOL    HW166347   3.088  13.296   1.661 -0.3160 -0.4582  1.3028
51456SOL    HW266348   3.222  13.309   1.731 -0.3948 -0.9218  1.5481
51457SOL     OW66349   6.116   5.964   6.898  0.0069  0.3780 -0.5502
51457SOL    HW166350   6.163   5.962   6.814  0.4960  1.9088 -0.3339
51457SOL    HW266351   6.117   5.872   6.927 -2.1258 -0.6227 -3.2203
51458SOL     OW66352   6.114   6.859  10.360 -0.2367  0.0690 -0.1384
51458SOL    HW166353   6.042   6.796  10.350  1.0663 -1.5410  0.2502
51458SOL    HW266354   6.187   6.821  10.312  0.6664  1.2131  0.2718
51459SOL     OW66355   1.719   9.398  10.326  0.5601 -0.2501  0.3452
51459SOL    HW166356   1.767   9.479  10.341  1.2846 -0.7014  0.4906
51459SOL    HW266357   1.669   9.384  10.407 -0.0466  0.3608  0.0904
51460SOL     OW66358  11.080  12.140  11.507 -0.1479  0.7753  0.1316
51460SOL    HW166359  11.174  12.153  11.522 -0.0632 -1.8311  2.5818
51460SOL    HW266360  11.041  12.140  11.594 -2.3289  0.8633 -0.7852
51461SOL     OW66361   9.220   2.020  13.745  0.1430  0.1670  0.7820
51461SOL    HW166362   9.219   2.066  13.829 -0.6866  1.7231 -0.0401
51461SOL    HW266363   9.248   2.086  13.681  3.0435 -1.5450  0.0806
51462SOL     OW66364   0.128  11.096  10.657  0.7379  0.0117 -0.2085
51462SOL    HW166365   0.198  11.149  10.697 -1.2391  2.7729 -0.0951
51462SOL    HW266366   0.047  11.134  10.691 -0.8994 -2.1632 -1.4064
51463SOL     OW66367   8.582   3.982  11.557  0.0373  0.1926 -0.0098
51463SOL    HW166368   8.550   3.965  11.645  0.4314  0.7040  0.2323
51463SOL    HW266369   8.540   3.915  11.503 -1.2860  0.7139  0.3353
51464SOL     OW66370   0.729   6.537   8.391  0.2570  0.3128  0.0994
51464SOL    HW166371   0.760   6.449   8.413  1.6397  0.2028 -1.9942
51464SOL    HW266372   0.739   6.587   8.472 -0.1549 -1.3143  1.2105
51465SOL     OW66373   8.671   2.296   8.767 -0.2499 -0.2456 -0.0087
51465SOL    HW166374   8.608   2.368   8.768 -2.8635 -2.3756  0.9931
51465SOL    HW266375   8.618   2.217   8.753  2.3410 -2.1057 -0.1359
51466SOL     OW66376   3.057   0.141   0.089  0.5021  0.4474 -0.1423
51466SOL    HW166377   3.131   0.162   0.033  0.3327 -0.2839 -0.6690
51466SOL    HW266378   2.980   0.168   0.038  0.3807  0.5209  0.0801
51467SOL     OW66379   9.140  10.593   6.466 -0.1245 -0.0694 -0.6893
51467SOL    HW166380   9.073  10.527   6.447 -0.2908 -0.7143  1.7325
51467SOL    HW266381   9.092  10.675   6.471 -0.1982 -0.0146 -2.0233
51468SOL     OW66382   4.155  10.273   6.167  0.1835  0.1029 -0.2455
51468SOL    HW166383   4.078  10.325   6.188  0.0653 -0.5469  1.0368
51468SOL    HW266384   4.125  10.211   6.101 -0.3901 -0.0930  0.1876
51469SOL     OW66385   8.182  12.535  13.306 -0.0541  0.2396  0.2209
51469SOL    HW166386   8.244  12.462  13.307  0.2876  0.5323  0.9500
51469SOL    HW266387   8.112  12.506  13.248  0.9809  0.0762 -1.0001
51470SOL     OW66388   2.280  11.389   8.174 -0.0185  0.0450  0.2155
51470SOL    HW166389   2.271  11.303   8.135 -0.9470  0.0588  0.3796
51470SOL    HW266390   2.255  11.450   8.104 -3.1893  0.0208  1.1753
51471SOL     OW66391  10.301   8.853  12.736  0.0185 -0.8066  0.4260
51471SOL    HW166392  10.383   8.834  12.782  0.3359  1.4142  0.9129
51471SOL    HW266393  10.292   8.948  12.743 -1.9522 -0.8613 -0.7499
51472SOL     OW66394   1.249   1.317   6.209  0.5084 -0.0437 -0.0077
51472SOL    HW166395   1.333   1.322   6.163  0.2691  0.2399 -0.4187
51472SOL    HW266396   1.261   1.245   6.272  0.6811 -0.7661 -0.8476
51473SOL     OW66397  12.121  10.251  11.875  0.5592 -0.1306 -0.3005
51473SOL    HW166398  12.058  10.290  11.936 -0.5483  0.3817 -1.7241
51473SOL    HW266399  12.131  10.316  11.806  0.9797 -1.1189 -1.1938
51474SOL     OW66400   1.934   2.274   6.107 -0.0800 -0.1116 -0.6481
51474SOL    HW166401   1.901   2.189   6.137 -2.1099  0.5611 -0.8019
51474SOL    HW266402   2.016   2.253   6.062 -0.2826 -1.9223 -0.2763
51475SOL     OW66403  11.783   8.087   2.343  0.3194 -0.0954  0.0285
51475SOL    HW166404  11.744   8.174   2.354 -2.0263 -1.0344 -0.3252
51475SOL    HW266405  11.818   8.088   2.254  1.6295  0.9212  0.5152
51476SOL     OW66406  12.769   6.349  11.785  0.1122 -0.4078 -0.0096
51476SOL    HW166407  12.701   6.290  11.754 -1.1205 -0.6010  2.7928
51476SOL    HW266408  12.804   6.307  11.864  1.1359  1.2932  0.5072
51477SOL     OW66409  11.631   2.357   2.623  0.1007 -0.2994  0.0484
51477SOL    HW166410  11.637   2.263   2.642 -1.7740 -0.8010 -1.4849
51477SOL    HW266411  11.667   2.366   2.535 -0.6283  0.2424 -0.2031
51478SOL     OW66412  10.932  14.025   6.990  0.0060 -0.1247  0.1948
51478SOL    HW166413  10.958  14.079   7.065  2.1664  0.5957 -0.9844
51478SOL    HW266414  10.844  14.057   6.967  0.8632  2.4191  0.0620
51479SOL     OW66415   4.891  13.835  13.835 -0.5562  0.2719  0.0575
51479SOL    HW166416   4.891  13.921  13.793 -0.9071 -0.2997 -1.1605
51479SOL    HW266417   4.905  13.773  13.764  2.5846 -0.5660  1.2411
51480SOL     OW66418   7.024  13.287   6.107  0.6221 -0.7847 -0.5125
51480SOL    HW166419   7.032  13.199   6.143 -0.3952 -0.6946 -0.0403
51480SOL    HW266420   7.095  13.337   6.148  0.9388 -1.2644 -0.4645
51481SOL     OW66421   9.929   2.565  11.048 -0.5639  0.2608  0.7320
51481SOL    HW166422   9.865   2.610  11.103 -0.5402 -0.7259  1.5952
51481SOL    HW266423  10.006   2.621  11.051 -1.0946  1.0421  0.3516
51482SOL     OW66424   7.835   1.470  10.363 -0.5218  0.1622 -0.1972
51482SOL    HW166425   7.785   1.486  10.283  0.3096  0.9583 -0.5793
51482SOL    HW266426   7.873   1.383  10.351 -2.5414 -0.8726  0.5175
51483SOL     OW66427   3.114   3.329   6.345  0.0716  0.1856  0.3049
51483SOL    HW166428   3.143   3.328   6.436  1.8988 -0.2679 -0.2440
51483SOL    HW266429   3.021   3.354   6.349 -0.0013 -0.2809  2.3076
51484SOL     OW66430   5.178   3.479   0.450 -0.2615  0.1591 -0.1318
51484SOL    HW166431   5.136   3.415   0.508  1.1278 -1.9608 -1.3548
51484SOL    HW266432   5.265   3.444   0.434  0.1322  1.7512 -1.8712
51485SOL     OW66433   1.104  11.314   4.416 -0.1715  0.1174  0.3982
51485SOL    HW166434   1.055  11.321   4.334  1.6835  1.8452 -0.6556
51485SOL    HW266435   1.067  11.238   4.460  0.5984 -2.6609 -3.3163
51486SOL     OW66436  11.090   1.341   2.232 -0.2355  0.2706 -0.8142
51486SOL    HW166437  11.114   1.423   2.189 -1.6659  1.9777  1.4168
51486SOL    HW266438  11.004   1.320   2.196 -0.1963  0.1288 -0.8273
51487SOL     OW66439   5.276  12.493   6.504 -0.2392 -0.3968 -0.0166
51487SOL    HW166440   5.200  12.503   6.446 -1.6545 -1.7900  1.4970
51487SOL    HW266441   5.319  12.413   6.473 -0.9250 -1.0722  0.7188
51488SOL     OW66442   0.466   5.375   6.723  0.0758  0.0993 -0.9233
51488SOL    HW166443   0.413   5.306   6.685  1.5709 -1.4402 -0.3236
51488SOL    HW266444   0.474   5.351   6.816  0.5243  1.1471 -0.6731
51489SOL     OW66445  12.082   9.760  12.077  0.0599  0.3947 -0.2327
51489SOL    HW166446  12.138   9.776  12.001 -0.1529 -1.4320 -0.8136
51489SOL    HW266447  12.074   9.846  12.119  1.2197  1.1898 -1.5467
51490SOL     OW66448  10.461   0.064   7.498  0.5431 -0.2592 -0.8911
51490SOL    HW166449  10.423   0.049   7.584 -0.1589  1.2840 -0.9095
51490SOL    HW266450  10.528   0.131   7.513  2.3827 -1.9414 -1.0997
51491SOL     OW66451  11.398  12.187   6.740  0.2110 -0.6887  0.2641
51491SOL    HW166452  11.375  12.112   6.794 -1.2718  0.4828  1.3540
51491SOL    HW266453  11.330  12.190   6.673  0.6885 -0.7485 -0.2252
51492SOL     OW66454   1.034   0.338   7.603  0.8967 -0.2748  0.5844
51492SOL    HW166455   0.986   0.260   7.574 -0.7881  0.1678  2.0710
51492SOL    HW266456   0.969   0.408   7.603  2.4256  1.2673 -0.9558
51493SOL     OW66457  13.374   3.378  12.863 -0.6612  0.0120  0.0762
51493SOL    HW166458  13.335   3.347  12.944  0.0593  1.4055  0.9993
51493SOL    HW266459  13.420   3.301  12.827 -2.0664 -0.9563  0.2847
51494SOL     OW66460   4.995   2.447   8.728  0.1632 -0.3528  0.0356
51494SOL    HW166461   4.929   2.499   8.774  1.3030  1.5717 -0.4072
51494SOL    HW266462   4.944   2.397   8.663 -1.1126 -0.8845  1.3818
51495SOL     OW66463   3.020   6.036   7.983 -0.1997  0.0587  0.2303
51495SOL    HW166464   3.065   5.972   7.929 -1.0431 -0.2190 -0.1518
51495SOL    HW266465   2.931   6.038   7.950  0.1734  2.6030 -0.8252
51496SOL     OW66466   7.678   7.904   7.644  0.1164 -0.3546  0.1587
51496SOL    HW166467   7.582   7.903   7.643  0.1023 -1.1912 -1.6056
51496SOL    HW266468   7.701   7.931   7.733 -1.7514 -1.0695  0.9048
51497SOL     OW66469   5.495   1.703  10.752 -0.0230  0.1660 -0.2465
51497SOL    HW166470   5.462   1.731  10.837 -0.2131 -0.2046 -0.1926
51497SOL    HW266471   5.418   1.669  10.706  0.2139 -0.3513 -0.2682
51498SOL     OW66472  12.109  11.584   4.776 -0.2725 -0.0484  0.2229
51498SOL    HW166473  12.072  11.671   4.762 -0.1904 -0.3567 -2.4096
51498SOL    HW266474  12.200  11.600   4.801 -0.0083  0.6373 -1.1160
51499SOL     OW66475   2.241   5.850   2.537 -0.2436 -0.2651 -0.4076
51499SOL    HW166476   2.205   5.869   2.624 -0.7959  0.6247 -0.8129
51499SOL    HW266477   2.326   5.893   2.537  0.5098 -1.6906  0.2695
51500SOL     OW66478   9.694  11.777   7.725  0.1672 -0.4780 -0.1208
51500SOL    HW166479   9.727  11.731   7.648 -0.0080  0.6636 -0.8934
51500SOL    HW266480   9.609  11.812   7.698  0.6418  0.9571  0.1932
51501SOL     OW66481   3.784   2.535   2.450  0.2454  0.5008 -0.3045
51501SOL    HW166482   3.841   2.610   2.431 -0.7492  1.0219 -1.3940
51501SOL    HW266483   3.782   2.529   2.545  0.7090  1.5747 -0.2126
51502SOL     OW66484   1.046   9.947  11.883 -0.1033 -0.3070  0.3957
51502SOL    HW166485   1.063   9.944  11.977 -1.1784 -0.6964  0.5922
51502SOL    HW266486   1.116   9.894  11.845  1.1063  0.9109  0.8318
51503SOL     OW66487   4.129   8.019   9.137  0.6281 -0.1237 -0.1454
51503SOL    HW166488   4.117   8.110   9.164  2.9151  0.9232 -2.2262
51503SOL    HW266489   4.040   7.984   9.127 -0.3039  1.8930  0.6120
51504SOL     OW66490  11.943  12.368   5.340 -0.2589  0.2634  0.4234
51504SOL    HW166491  12.021  12.344   5.289 -0.9416 -0.3032 -0.3887
51504SOL    HW266492  11.932  12.461   5.323  0.8174  0.5905  1.3705
51505SOL     OW66493   2.267   3.899   2.487  0.1167  0.2542 -0.3556
51505SOL    HW166494   2.304   3.900   2.399 -2.2423 -0.6587 -1.4499
51505SOL    HW266495   2.273   3.989   2.517  2.2221  0.3210 -0.8500
51506SOL     OW66496  13.117   8.101   7.729  0.4315 -0.5178  0.1534
51506SOL    HW166497  13.107   8.075   7.638 -2.0887  1.5118 -0.2594
51506SOL    HW266498  13.193   8.161   7.728  0.6939 -0.8503 -0.5144
51507SOL     OW66499  13.631   1.080   0.907 -0.2046 -0.1314 -0.6588
51507SOL    HW166500  13.581   1.148   0.861 -0.0377  0.2580 -0.2730
51507SOL    HW266501  13.705   1.062   0.850 -0.0513  0.2801 -0.5965
51508SOL     OW66502   5.810  13.032   3.106  0.1546  0.3035  0.2185
51508SOL    HW166503   5.810  12.991   3.019  0.8597  0.7462  0.0028
51508SOL    HW266504   5.885  13.092   3.104  1.3643 -1.0772  1.7962
51509SOL     OW66505   5.715   1.181  10.879 -0.1327  0.7313 -0.3681
51509SOL    HW166506   5.689   1.097  10.919 -2.0356  0.7928 -1.3877
51509SOL    HW266507   5.655   1.245  10.916 -1.0229  1.0311 -2.2340
51510SOL     OW66508   1.214  11.141   5.596 -0.1592  0.0226  0.5192
51510SOL    HW166509   1.242  11.233   5.592  1.0638 -0.3115  0.9638
51510SOL    HW266510   1.174  11.125   5.511  0.7060  0.6411 -0.0217
51511SOL     OW66511   1.829  10.031   1.064 -1.1243 -0.9814  0.4726
51511SOL    HW166512   1.841   9.955   1.007  0.7975 -1.4199  1.3649
51511SOL    HW266513   1.829   9.994   1.153 -0.1297  0.0161  0.9281
51512SOL     OW66514   8.673   4.050   7.899 -0.4047  0.4955  0.0623
51512SOL    HW166515   8.645   4.035   7.808 -0.5299 -0.6015  0.2656
51512SOL    HW266516   8.610   4.114   7.933  0.5418  2.1091 -1.0480
51513SOL     OW66517   0.140   6.067  13.643  0.1200  0.6900  0.3157
51513SOL    HW166518   0.166   6.126  13.713  1.1160 -1.4293  1.8544
51513SOL    HW266519   0.089   5.999  13.687  2.2507 -1.6659 -0.6157
51514SOL     OW66520   1.949   8.478  11.390 -0.0214  0.6136 -0.1099
51514SOL    HW166521   1.907   8.516  11.313  3.3459  1.5722 -1.6980
51514SOL    HW266522   2.019   8.423  11.354  0.7466 -0.0815  2.2667
51515SOL     OW66523  12.118   4.434   0.635 -0.2846  0.2212 -0.0638
51515SOL    HW166524  12.200   4.425   0.586 -1.5820  2.4608 -2.9725
51515SOL    HW266525  12.060   4.367   0.598 -0.6965  0.6931 -0.2908
51516SOL     OW66526   8.492   7.900  10.900 -0.1925  0.7272  0.3476
51516SOL    HW166527   8.447   7.816  10.886  0.5966  0.4119 -0.3731
51516SOL    HW266528   8.555   7.882  10.970  1.0432  0.2749 -0.8319
51517SOL     OW66529   8.522   9.080   1.399 -0.0245  0.1034  0.3923
51517SOL    HW166530   8.461   9.099   1.470 -1.3769 -1.0836 -0.3975
51517SOL    HW266531   8.602   9.052   1.443 -0.0569  1.5666  1.4469
51518SOL     OW66532  13.545  13.987   6.614 -0.6077  0.1719  0.3454
51518SOL    HW166533  13.508  13.945   6.692  1.1529 -1.3672  0.4170
51518SOL    HW266534  13.571  13.915   6.557 -2.2754  1.2642 -1.9504
51519SOL     OW66535  13.540   1.547   4.381 -0.9201 -0.1087 -0.1548
51519SOL    HW166536  13.611   1.611   4.378  0.4286 -1.3754  1.8339
51519SOL    HW266537  13.474   1.586   4.438 -0.8883  0.2380 -0.3584
51520SOL     OW66538   7.082   9.756  11.833 -0.6084 -0.5858 -0.4458
51520SOL    HW166539   7.070   9.706  11.914  0.3760 -0.2810 -0.0996
51520SOL    HW266540   7.021   9.829  11.842  0.6174  0.3461  0.7892
51521SOL     OW66541   5.007   8.371   5.472  0.1022 -0.7111  0.3713
51521SOL    HW166542   5.005   8.422   5.391  2.2296 -0.4344  0.4536
51521SOL    HW266543   5.086   8.318   5.466  0.9348  0.1450  2.7441
51522SOL     OW66544  13.919   4.281  12.160  0.1312 -0.4500 -0.0713
51522SOL    HW166545  13.840   4.314  12.117  1.0527  0.0872 -1.4112
51522SOL    HW266546  13.991   4.309  12.103  1.3445 -0.4498  1.3922
51523SOL     OW66547  10.284   4.465  12.641 -0.2479  0.2274 -0.3960
51523SOL    HW166548  10.215   4.515  12.597 -1.0547  0.0153  0.6054
51523SOL    HW266549  10.364   4.486  12.591 -0.9918  0.5921 -1.4726
51524SOL     OW66550   2.940   5.541   5.355  0.1161 -0.0142 -0.9264
51524SOL    HW166551   2.900   5.459   5.384  0.4557 -0.0613 -0.5848
51524SOL    HW266552   2.888   5.609   5.398  1.5608 -0.1053  1.1027
51525SOL     OW66553  12.908   4.098   4.478  0.3504 -0.4011 -0.2550
51525SOL    HW166554  12.825   4.102   4.526  0.0680 -0.2497 -0.7372
51525SOL    HW266555  12.971   4.065   4.541 -0.2349 -1.2284 -0.0818
51526SOL     OW66556   3.294  12.206   2.985 -0.3221  0.4146 -0.3040
51526SOL    HW166557   3.300  12.129   3.042  1.8514  0.1389 -0.8191
51526SOL    HW266558   3.346  12.273   3.030 -1.2548  1.2374 -0.4195
51527SOL     OW66559   4.825   2.134  12.308  0.3126 -0.0719 -0.0757
51527SOL    HW166560   4.806   2.163  12.219  0.7406 -1.7191 -0.7337
51527SOL    HW266561   4.909   2.175  12.329  1.1622 -1.1666 -1.1869
51528SOL     OW66562  10.302   4.170   3.402  0.5775 -0.4169  0.0136
51528SOL    HW166563  10.393   4.167   3.375  1.2015 -0.2309  1.9295
51528SOL    HW266564  10.281   4.264   3.406  0.5125 -0.4391  0.2112
51529SOL     OW66565  13.430  13.460   5.671 -0.0765  0.1739 -0.1234
51529SOL    HW166566  13.451  13.512   5.593  1.3584 -1.2367 -0.7305
51529SOL    HW266567  13.334  13.464   5.676 -0.1127  1.4562 -1.1247
51530SOL     OW66568   0.729  12.872   9.471  0.1929  0.1556 -0.6035
51530SOL    HW166569   0.713  12.802   9.535  1.5534 -0.4755 -0.9097
51530SOL    HW266570   0.653  12.929   9.477 -0.4606 -0.7990  0.4018
51531SOL     OW66571   8.245   9.720  12.947 -0.0504 -0.3363  0.0187
51531SOL    HW166572   8.321   9.664  12.937  0.6471  0.5450  0.2285
51531SOL    HW266573   8.218   9.708  13.038  0.9355  0.6664  0.4739
51532SOL     OW66574  13.345   8.915  11.938 -0.1175  0.2542 -0.1549
51532SOL    HW166575  13.273   8.852  11.945 -0.9259  1.2229  0.4711
51532SOL    HW266576  13.314   8.982  11.878  0.9353 -0.1761 -1.2145
51533SOL     OW66577   3.036  10.926   2.891 -0.5149  0.6468  0.1868
51533SOL    HW166578   3.110  10.895   2.840  0.1350 -0.6468  1.8163
51533SOL    HW266579   3.075  10.984   2.957 -1.0133  0.3893  0.7154
51534SOL     OW66580   3.847   3.667   4.425 -0.4767 -0.2734 -0.0363
51534SOL    HW166581   3.930   3.623   4.445 -0.5670 -0.8577 -0.8842
51534SOL    HW266582   3.781   3.618   4.474 -0.2325  0.7669  1.3937
51535SOL     OW66583   8.978   6.381  12.119 -0.3837 -0.2277  0.2721
51535SOL    HW166584   8.976   6.319  12.192  1.4244 -0.8968 -0.2113
51535SOL    HW266585   9.019   6.334  12.047 -2.9606  0.0884 -1.5770
51536SOL     OW66586  12.205   7.454   2.296 -0.6126 -0.3489 -0.3464
51536SOL    HW166587  12.208   7.435   2.202 -1.3215  0.8329 -0.6339
51536SOL    HW266588  12.113   7.471   2.314 -0.3356  0.5185  0.3292
51537SOL     OW66589   3.763   2.053   1.740  0.5276 -0.1832 -0.5261
51537SOL    HW166590   3.701   2.120   1.772 -0.6537 -1.1898 -0.6368
51537SOL    HW266591   3.842   2.067   1.792 -0.1471  0.4702  0.3622
51538SOL     OW66592   0.607   0.817   9.111  0.3746 -0.3277 -0.1331
51538SOL    HW166593   0.577   0.837   9.022 -0.7651 -0.8933  0.0985
51538SOL    HW266594   0.623   0.902   9.151 -2.6514  0.1666  0.2724
51539SOL     OW66595   9.318   6.648   5.034 -0.2585 -0.1379 -0.3528
51539SOL    HW166596   9.402   6.603   5.037 -0.4821 -0.5871 -0.5914
51539SOL    HW266597   9.281   6.635   5.122  0.4381  1.0974  0.1360
51540SOL     OW66598   5.793   5.756  13.513 -0.7808 -0.3692  0.3939
51540SOL    HW166599   5.761   5.818  13.447  0.1903 -0.3410 -0.0796
51540SOL    HW266600   5.715   5.712  13.545 -1.4206  0.6283  0.2544
51541SOL     OW66601   9.681  11.189   1.319  0.0050 -0.3311  0.9688
51541SOL    HW166602   9.702  11.104   1.358  2.0801 -0.9820 -1.2853
51541SOL    HW266603   9.611  11.169   1.256  0.0332 -0.2394  0.9080
51542SOL     OW66604   2.548  12.224  10.652  0.5255 -0.0690  0.4192
51542SOL    HW166605   2.514  12.140  10.683 -0.9928  0.4532  0.2475
51542SOL    HW266606   2.619  12.245  10.712  1.2493 -1.6868  0.1787
51543SOL     OW66607  10.076  11.883   4.399  0.3632  0.5640  0.1891
51543SOL    HW166608  10.075  11.928   4.314  1.2879 -0.1896 -0.2356
51543SOL    HW266609  10.151  11.921   4.444 -0.2331  1.0939  0.7636
51544SOL     OW66610  10.368   5.822   1.352  0.2603 -0.1536 -0.3682
51544SOL    HW166611  10.295   5.819   1.414  1.0909  1.6565  0.7677
51544SOL    HW266612  10.335   5.876   1.280  0.3265  0.3591 -0.0230
51545SOL     OW66613   4.795   2.610   8.858 -0.3086  0.3818  0.0642
51545SOL    HW166614   4.736   2.540   8.831 -0.2130 -0.0228  0.8997
51545SOL    HW266615   4.780   2.680   8.793 -0.1881 -0.5059 -0.9526
51546SOL     OW66616   8.873   7.482  13.348 -0.5863  0.7028  0.9108
51546SOL    HW166617   8.965   7.505  13.334 -0.8840  1.4777  0.1722
51546SOL    HW266618   8.876   7.412  13.414  0.5370  0.5931  0.7650
51547SOL     OW66619   1.609   2.449  10.942  0.4877  0.0504 -0.1851
51547SOL    HW166620   1.636   2.366  10.983 -0.5564  0.3962  1.3065
51547SOL    HW266621   1.596   2.427  10.850 -1.3725 -1.8907  0.4355
51548SOL     OW66622  11.032   9.792   5.325 -0.0670 -0.5066 -0.0503
51548SOL    HW166623  11.111   9.823   5.369 -1.2470  2.3932  0.2445
51548SOL    HW266624  10.960   9.832   5.373 -1.5713 -0.1684 -2.3904
51549SOL     OW66625   2.885  10.967  13.733 -0.0079  0.0288 -0.7744
51549SOL    HW166626   2.875  10.876  13.705 -0.3922 -0.3959  0.6458
51549SOL    HW266627   2.813  11.013  13.692 -1.2566 -0.8013  0.3946
51550SOL     OW66628   3.964   9.532  13.055 -0.0378 -0.1897  0.1159
51550SOL    HW166629   3.924   9.597  13.113  1.7420 -0.0444  1.2609
51550SOL    HW266630   4.048   9.570  13.031  0.1197 -1.1520 -0.9497
51551SOL     OW66631   8.171   9.977   9.587 -0.3369  0.0258  0.4595
51551SOL    HW166632   8.232   9.999   9.658  0.8866 -1.9289  0.1038
51551SOL    HW266633   8.185   9.883   9.572 -1.1125  0.2172 -1.8379
51552SOL     OW66634   1.863   8.418  10.098 -0.0136 -0.2656  0.8154
51552SOL    HW166635   1.854   8.373  10.014  1.6235  1.1432 -0.1782
51552SOL    HW266636   1.899   8.352  10.157  2.3306 -0.3455 -0.6034
51553SOL     OW66637   6.157   9.620   2.991  0.3187 -0.0745 -0.1718
51553SOL    HW166638   6.203   9.697   3.024  0.3856  0.8226 -2.2602
51553SOL    HW266639   6.119   9.580   3.070  1.3797  1.3290  1.1164
51554SOL     OW66640   1.681   0.927  13.464 -0.1040  0.6484 -0.0148
51554SOL    HW166641   1.592   0.914  13.498 -0.1082  0.4293 -0.1060
51554SOL    HW266642   1.693   1.022  13.463  0.3329  0.6437  1.7464
51555SOL     OW66643   8.003   4.709   9.919 -0.4741 -0.4797  0.5791
51555SOL    HW166644   8.027   4.717  10.012  1.0159  1.0526  0.1118
51555SOL    HW266645   7.938   4.778   9.905 -0.1488 -0.2296  0.3129
51556SOL     OW66646   8.257   1.366   3.905  0.6479  0.0884 -0.2460
51556SOL    HW166647   8.340   1.409   3.888  1.1694 -0.9061 -0.3205
51556SOL    HW266648   8.281   1.283   3.946 -0.3343  0.0276  0.2462
51557SOL     OW66649   8.502   4.146  12.802 -0.1981 -0.1747  0.0569
51557SOL    HW166650   8.452   4.195  12.737  0.7678  0.0614 -0.5217
51557SOL    HW266651   8.435   4.103  12.856 -1.0593  1.2745  0.2133
51558SOL     OW66652  10.208   8.064   5.572  0.5572  0.3488 -0.5473
51558SOL    HW166653  10.187   7.983   5.526  0.0977  0.0322  0.2028
51558SOL    HW266654  10.270   8.038   5.640 -0.6802  0.3677  0.6102
51559SOL     OW66655   0.806   7.408   9.120  0.0022 -0.0942  0.4348
51559SOL    HW166656   0.798   7.324   9.075  0.7403 -0.7507  1.4844
51559SOL    HW266657   0.808   7.473   9.050  2.1512 -1.1558 -0.5976
51560SOL     OW66658  11.053  11.441   6.727 -0.4764  0.1132  0.0725
51560SOL    HW166659  11.140  11.401   6.738 -0.8585 -0.6642  0.3600
51560SOL    HW266660  11.057  11.482   6.641  0.5393  1.0454  0.5327
51561SOL     OW66661   3.438   2.995  13.126  0.4306  0.0522 -0.4696
51561SOL    HW166662   3.479   2.993  13.213  0.1822  0.6090 -0.3365
51561SOL    HW266663   3.439   2.904  13.097 -0.4210 -0.3040  0.5504
51562SOL     OW66664   2.547   7.111   8.635 -0.3032 -0.0279  0.1061
51562SOL    HW166665   2.458   7.114   8.672  0.0915 -1.4434  1.2578
51562SOL    HW266666   2.595   7.179   8.681 -0.4804 -0.0691  0.3516
51563SOL     OW66667   6.760   4.517  11.457  0.0847 -0.3558 -0.2625
51563SOL    HW166668   6.851   4.520  11.486  0.1222 -0.6214 -0.3545
51563SOL    HW266669   6.709   4.545  11.533  0.1905 -0.9499  0.0245
51564SOL     OW66670   7.072   4.248   2.817 -0.2413  0.3006  0.3900
51564SOL    HW166671   7.037   4.243   2.728 -0.5170  1.2713  0.4386
51564SOL    HW266672   7.046   4.334   2.848  1.8302  0.8845  0.6088
51565SOL     OW66673   4.719   6.762   8.997  0.0590 -0.0397 -0.6208
51565SOL    HW166674   4.641   6.707   9.008  0.8135 -1.1745 -0.8149
51565SOL    HW266675   4.684   6.848   8.976 -1.1781 -0.2199  0.5494
51566SOL     OW66676   3.899  10.963   4.931  0.2821 -0.1122  0.2479
51566SOL    HW166677   3.946  10.908   4.994 -1.6075  0.4478  2.2857
51566SOL    HW266678   3.811  10.925   4.925 -0.0847  0.8100 -0.7971
51567SOL     OW66679  12.852  12.283   6.676 -0.5374 -0.4553 -0.0291
51567SOL    HW166680  12.871  12.189   6.674 -1.0060 -0.6706  2.5255
51567SOL    HW266681  12.905  12.319   6.606  2.3869 -2.2037  1.0932
51568SOL     OW66682  10.018   2.480   7.481  0.2674  0.1820 -0.9713
51568SOL    HW166683  10.066   2.521   7.409  2.5846  1.3691  1.0983
51568SOL    HW266684  10.051   2.390   7.483  1.4429  0.6115 -0.4030
51569SOL     OW66685   9.428  12.791   8.799  0.2084 -0.3341  0.1632
51569SOL    HW166686   9.407  12.874   8.757  0.6740  0.5351  1.5681
51569SOL    HW266687   9.381  12.794   8.883 -0.5934 -1.9458 -0.1758
51570SOL     OW66688  11.979   3.684   3.904  0.1934 -0.1403 -0.1507
51570SOL    HW166689  12.016   3.596   3.904 -0.1943 -0.3268  0.8772
51570SOL    HW266690  11.896   3.674   3.951 -1.0333  0.3109 -2.1288
51571SOL     OW66691   3.194   6.573   6.062  0.1141  0.1562 -1.1653
51571SOL    HW166692   3.146   6.501   6.103  2.0212 -1.5972 -1.8752
51571SOL    HW266693   3.148   6.587   5.979  0.6953 -1.4400 -1.7957
51572SOL     OW66694   2.027   8.164   8.451  0.6438 -0.2272 -0.4712
51572SOL    HW166695   1.998   8.139   8.364 -1.4044  0.5880 -0.0827
51572SOL    HW266696   2.116   8.198   8.439  0.3083  0.0774 -2.2573
51573SOL     OW66697   0.216  12.040  10.452 -0.0061 -0.2967 -0.1816
51573SOL    HW166698   0.306  12.073  10.448 -0.5278  1.1805 -0.3980
51573SOL    HW266699   0.190  12.053  10.543 -0.7544  1.5218 -0.6001
51574SOL     OW66700   2.503  12.132   7.007  0.0191  0.0452 -0.1651
51574SOL    HW166701   2.544  12.045   7.002  0.6895  0.3773 -0.6914
51574SOL    HW266702   2.576  12.193   6.996 -0.4875  0.6686 -0.0949
51575SOL     OW66703   4.164  10.019   4.890  0.1397  0.2347 -0.4663
51575SOL    HW166704   4.074  10.050   4.894  0.0903 -0.0168  0.9265
51575SOL    HW266705   4.212  10.089   4.845  0.0027  2.3424  2.3749
51576SOL     OW66706   5.718   6.686   5.003 -0.0240 -0.3506  0.1356
51576SOL    HW166707   5.711   6.716   4.912 -1.2196  0.7624  0.5796
51576SOL    HW266708   5.660   6.610   5.007  0.7399 -0.9774 -0.2375
51577SOL     OW66709   8.024  13.519   1.247 -0.5729  0.1972 -0.1535
51577SOL    HW166710   8.092  13.528   1.314 -1.4649  0.0331  0.7937
51577SOL    HW266711   8.059  13.454   1.186  1.4517  2.2467 -1.4073
51578SOL     OW66712   7.774  10.041   1.703 -0.2350 -0.1947 -0.0466
51578SOL    HW166713   7.755   9.949   1.720 -1.4399  0.1299  0.4718
51578SOL    HW266714   7.695  10.075   1.660  0.1399  0.6345 -0.1100
51579SOL     OW66715   4.210   4.046   4.156 -0.3612  0.2847 -0.0522
51579SOL    HW166716   4.199   3.958   4.191 -1.8951 -0.1669 -1.5373
51579SOL    HW266717   4.295   4.045   4.113 -0.0869 -0.2538  0.4843
51580SOL     OW66718   0.549   1.957   3.377 -0.1450 -0.3188 -0.1987
51580SOL    HW166719   0.611   1.937   3.448 -0.7697 -2.4168 -0.1802
51580SOL    HW266720   0.537   1.874   3.332 -1.1894  0.5760 -1.6477
51581SOL     OW66721   5.076   2.233  12.349  0.2455 -0.2098  0.3467
51581SOL    HW166722   5.144   2.179  12.307 -0.7160 -1.2239  0.0561
51581SOL    HW266723   5.123   2.279  12.419  0.9878 -1.9803  1.0899
51582SOL     OW66724   1.957   1.212   2.733  0.0922 -0.1101 -0.3148
51582SOL    HW166725   1.917   1.259   2.660  0.0151  0.7566  0.2804
51582SOL    HW266726   1.907   1.239   2.810 -0.2253 -1.4910 -0.0132
51583SOL     OW66727   5.926   7.860   3.297  0.1283 -0.4515  0.4617
51583SOL    HW166728   5.869   7.937   3.306  0.1895 -0.2713 -0.4926
51583SOL    HW266729   5.994   7.888   3.236 -0.1398 -1.4158 -0.3166
51584SOL     OW66730   7.936  13.123   9.001  0.3523 -0.2979  0.1383
51584SOL    HW166731   7.883  13.197   8.971 -0.0209 -0.1095  1.1982
51584SOL    HW266732   7.900  13.102   9.088  0.6550 -1.5184 -0.0119
51585SOL     OW66733   1.737   4.102   0.003  0.4793 -0.3918 -0.3323
51585SOL    HW166734   1.742   4.058   0.088  1.2119 -2.3314 -1.3107
51585SOL    HW266735   1.793   4.179   0.012  0.2093 -0.3285  1.0424
51586SOL     OW66736   6.250   4.155  11.598  0.4325 -0.0198 -0.6259
51586SOL    HW166737   6.321   4.091  11.605  0.3267 -0.2961 -1.8550
51586SOL    HW266738   6.283   4.233  11.643 -0.2310 -1.5360  2.7225
51587SOL     OW66739  11.384   8.443   2.832  0.0113  0.0079  0.1650
51587SOL    HW166740  11.432   8.361   2.845 -0.0827  0.0294  0.6685
51587SOL    HW266741  11.379   8.453   2.737  1.2109  0.1351  0.1081
51588SOL     OW66742  13.023  12.073   7.047  0.2445 -0.4844 -0.3818
51588SOL    HW166743  13.005  12.086   7.140  0.0619 -1.2542 -0.3094
51588SOL    HW266744  13.107  12.116   7.033 -0.4326  0.9726 -0.1942
51589SOL     OW66745  10.370   3.739   6.647 -0.0021  0.4994 -0.1796
51589SOL    HW166746  10.426   3.675   6.603 -2.3632 -2.0296  0.1980
51589SOL    HW266747  10.293   3.688   6.675 -1.6545  3.3668  0.9179
51590SOL     OW66748   0.246  13.149   4.883 -0.3434 -0.3745  0.3569
51590SOL    HW166749   0.294  13.232   4.884 -1.5341  0.4224 -1.7140
51590SOL    HW266750   0.278  13.104   4.805 -1.6968 -0.5906 -0.0940
51591SOL     OW66751  10.312   7.914   6.119  0.2560  0.3503  0.3851
51591SOL    HW166752  10.295   7.847   6.052  1.4828  0.3211  0.0884
51591SOL    HW266753  10.396   7.952   6.095  0.9408  0.0662  2.1248
51592SOL     OW66754   3.780   9.760   9.929  0.3010  0.8654  0.1586
51592SOL    HW166755   3.811   9.715   9.851  1.6198  0.8116  0.6862
51592SOL    HW266756   3.819   9.712  10.002 -2.5392 -0.3353  0.9904
51593SOL     OW66757   5.783   5.086   7.990 -0.3257 -0.1239  0.0168
51593SOL    HW166758   5.806   5.176   8.014 -0.8195 -0.4945  2.0783
51593SOL    HW266759   5.716   5.096   7.922 -1.8601  1.1765  1.6060
51594SOL     OW66760   2.396   2.441  13.258 -0.2881 -0.1179  0.5917
51594SOL    HW166761   2.404   2.536  13.260  0.4165 -0.1487 -0.1473
51594SOL    HW266762   2.487   2.410  13.256 -0.5155 -0.7651 -0.4775
51595SOL     OW66763  12.845   1.779   8.017 -0.2991  0.1352 -0.2316
51595SOL    HW166764  12.884   1.716   8.079  2.6346  1.7932 -0.2191
51595SOL    HW266765  12.774   1.730   7.975  0.2699 -2.3738  1.4995
51596SOL     OW66766   0.449  11.853   9.171  0.1345  0.3052 -0.1461
51596SOL    HW166767   0.455  11.943   9.140  0.4662  0.2677 -0.1937
51596SOL    HW266768   0.477  11.800   9.097  2.3981  0.2851  0.6542
51597SOL     OW66769   5.445   2.699   3.781  0.1821 -0.1174  0.1024
51597SOL    HW166770   5.533   2.734   3.767  0.8575 -1.8611 -0.1897
51597SOL    HW266771   5.459   2.618   3.831 -1.3617  0.1912  1.1105
51598SOL     OW66772  10.264   4.007  11.721 -0.1478 -0.0135 -0.2192
51598SOL    HW166773  10.211   3.977  11.648 -0.1626 -1.0789  0.2094
51598SOL    HW266774  10.212   3.985  11.799  0.7710 -0.7800  0.1894
51599SOL     OW66775   1.008   8.874  12.452 -0.5207 -0.1413 -0.2982
51599SOL    HW166776   0.993   8.779  12.450 -0.3804 -0.1611 -0.4332
51599SOL    HW266777   0.926   8.910  12.483 -1.6371 -0.0876 -3.0594
51600SOL     OW66778  13.084   8.696   2.508  0.2993 -0.1295  0.1219
51600SOL    HW166779  13.073   8.611   2.465  0.3116 -0.1999  0.2597
51600SOL    HW266780  13.168   8.729   2.474 -0.7676  0.8721 -1.7198
51601SOL     OW66781   3.205   8.443   3.420  0.0308 -0.2928  0.2247
51601SOL    HW166782   3.197   8.369   3.480  0.5850 -1.0452 -0.5939
51601SOL    HW266783   3.134   8.502   3.444 -0.7041 -1.3062  0.6013
51602SOL     OW66784  12.603  13.884   8.679  0.4525  0.0099  0.2601
51602SOL    HW166785  12.583  13.965   8.727  0.4482  0.2327 -0.1107
51602SOL    HW266786  12.672  13.843   8.730 -0.0213 -0.0986  0.8260
51603SOL     OW66787   7.446   3.437   8.324 -0.6456 -0.2964 -0.4275
51603SOL    HW166788   7.446   3.531   8.341  0.2064 -0.0605 -1.6143
51603SOL    HW266789   7.451   3.430   8.228  0.8560 -1.5406 -0.2945
51604SOL     OW66790  12.148   3.297   2.995 -0.0557  0.1957 -0.0142
51604SOL    HW166791  12.133   3.384   2.958  1.3527  0.2608 -0.4879
51604SOL    HW266792  12.152   3.239   2.919  2.5104  0.2788 -0.0090
51605SOL     OW66793   4.644  11.404   7.537 -0.0125 -0.2118  0.1392
51605SOL    HW166794   4.586  11.480   7.544 -1.0130 -1.1234  3.7266
51605SOL    HW266795   4.731  11.439   7.550 -0.2915  0.5368  0.0215
51606SOL     OW66796  13.023   0.211   1.251  0.2539 -0.0628 -0.0694
51606SOL    HW166797  13.020   0.281   1.316 -1.2562  1.1828 -1.4084
51606SOL    HW266798  12.965   0.144   1.286  1.7907 -0.7516  1.2725
51607SOL     OW66799  13.364   1.394   6.851 -0.1857  0.3898 -0.9262
51607SOL    HW166800  13.383   1.352   6.935  2.0346  0.8564 -1.1347
51607SOL    HW266801  13.278   1.435   6.863  0.1407  0.5348  1.1523
51608SOL     OW66802   4.804   4.618   5.641 -0.2562 -0.3373  0.2092
51608SOL    HW166803   4.755   4.659   5.713  0.0372  1.8138 -0.7186
51608SOL    HW266804   4.743   4.619   5.567 -0.4021 -2.1053  0.2763
51609SOL     OW66805   0.825  13.259  13.442 -0.2406  0.2783  0.2737
51609SOL    HW166806   0.772  13.284  13.517 -0.9571  1.0473 -0.4572
51609SOL    HW266807   0.866  13.176  13.467  0.1069  0.8768  1.7735
51610SOL     OW66808  13.927   6.094   1.532  0.0416  0.2592 -0.7115
51610SOL    HW166809  13.993   6.073   1.599 -0.4332  0.4461 -0.1825
51610SOL    HW266810  13.939   6.187   1.513 -1.2192  0.7375  0.6794
51611SOL     OW66811   6.323   3.895   1.227 -0.1949 -0.3029 -0.5110
51611SOL    HW166812   6.386   3.963   1.251 -1.5733  1.3134 -1.2869
51611SOL    HW266813   6.297   3.918   1.137 -1.7826 -0.9944 -0.2561
51612SOL     OW66814   8.168  10.553  12.858  0.0713 -0.2264  0.1048
51612SOL    HW166815   8.244  10.497  12.873  0.6968 -0.0695 -2.0958
51612SOL    HW266816   8.203  10.642  12.858 -0.3555 -0.0554  0.4145
51613SOL     OW66817  12.004  13.149   5.968 -0.3131  0.0615 -0.3122
51613SOL    HW166818  12.058  13.123   6.042  1.2608  0.4168 -1.3090
51613SOL    HW266819  12.008  13.245   5.968 -0.2978  0.0644 -0.8584
51614SOL     OW66820   9.908   0.170  10.256 -0.1215 -0.5156 -0.6554
51614SOL    HW166821   9.987   0.219  10.233 -0.8921  1.6836  1.0214
51614SOL    HW266822   9.852   0.176  10.179  0.1939  0.4238 -0.8174
51615SOL     OW66823   6.749  10.430   6.205 -0.1569 -0.1056 -0.0190
51615SOL    HW166824   6.764  10.460   6.294  0.2171  2.0076 -0.7594
51615SOL    HW266825   6.830  10.448   6.158  0.0728 -2.2405 -0.5850
51616SOL     OW66826   9.204   2.287  11.633 -0.0047 -0.0765  0.3757
51616SOL    HW166827   9.192   2.197  11.663  1.4300 -0.6310 -0.5992
51616SOL    HW266828   9.151   2.292  11.553  0.8370 -0.4376 -0.2171
51617SOL     OW66829   3.536   2.150  11.155 -0.0412  0.1064 -0.9403
51617SOL    HW166830   3.605   2.214  11.136  0.6545 -0.8681 -1.8175
51617SOL    HW266831   3.505   2.122  11.069 -1.7707  0.7387 -0.5629
51618SOL     OW66832   8.900   2.398  11.431 -0.0469  0.0582  0.2972
51618SOL    HW166833   8.957   2.323  11.447  0.3408  0.3097  0.1147
51618SOL    HW266834   8.932   2.435  11.349  0.5576  1.1525  1.0097
51619SOL     OW66835  10.640   2.830   9.016 -0.1256  0.0535 -0.3481
51619SOL    HW166836  10.638   2.915   8.972  0.0511  0.3191  0.1498
51619SOL    HW266837  10.589   2.843   9.097  0.1063 -0.2443 -0.1503
51620SOL     OW66838   4.016   6.847   5.814 -0.1119 -0.3728  0.2874
51620SOL    HW166839   3.980   6.766   5.778 -0.5045  0.0624 -0.3099
51620SOL    HW266840   3.961   6.866   5.890 -0.0505 -0.6331  0.4008
51621SOL     OW66841   9.425   2.289  12.210  0.0888  0.3020 -0.3119
51621SOL    HW166842   9.487   2.347  12.166  0.0478  0.1093 -0.6222
51621SOL    HW266843   9.408   2.220  12.147  1.4755 -1.0049  0.6715
51622SOL     OW66844   9.176   5.164   4.488 -1.2391 -0.0034  0.2912
51622SOL    HW166845   9.265   5.172   4.523 -1.5957  0.2247  1.1770
51622SOL    HW266846   9.189   5.139   4.397 -0.2827 -1.1941  0.7284
51623SOL     OW66847  11.993   1.297   3.890 -0.1535  0.3818 -0.9802
51623SOL    HW166848  11.963   1.367   3.832  0.7009  1.8552  0.2774
51623SOL    HW266849  12.088   1.300   3.884 -0.1017 -1.1737 -1.4261
51624SOL     OW66850  11.959   1.198  10.727  0.4126  0.0970 -0.3859
51624SOL    HW166851  11.992   1.175  10.813  1.2356  0.7553 -0.5112
51624SOL    HW266852  11.973   1.120  10.674 -0.6048 -0.5021  0.2005
51625SOL     OW66853  10.912   7.470  13.807  0.1016 -0.0787 -0.1157
51625SOL    HW166854  10.869   7.517  13.879  0.7877 -0.7128  0.7369
51625SOL    HW266855  10.887   7.519  13.728 -2.5230 -0.6503  0.2494
51626SOL     OW66856   1.787   7.801   8.941 -0.6711  0.2428 -0.5624
51626SOL    HW166857   1.717   7.746   8.976 -1.0407  0.7733 -0.4692
51626SOL    HW266858   1.782   7.789   8.846 -0.6340 -0.0219 -0.5332
51627SOL     OW66859   2.133   8.812   2.600 -0.1196 -0.2352 -0.5101
51627SOL    HW166860   2.147   8.840   2.509 -2.0249  1.9237 -0.2142
51627SOL    HW266861   2.203   8.856   2.649  1.3130 -1.9124 -0.9234
51628SOL     OW66862   6.301  12.226  10.551  0.3636 -0.1291 -0.0968
51628SOL    HW166863   6.383  12.176  10.552  0.2763 -0.2977 -0.7218
51628SOL    HW266864   6.275  12.228  10.458  0.0387  0.5459  0.0032
51629SOL     OW66865   0.571   9.481   3.734 -0.1293  0.5601 -0.6202
51629SOL    HW166866   0.507   9.551   3.718 -1.0006 -0.6574 -2.9466
51629SOL    HW266867   0.645   9.504   3.677 -0.2741 -0.1997 -1.1247
51630SOL     OW66868   0.797   9.373  10.670 -0.7395 -0.2533 -0.2860
51630SOL    HW166869   0.856   9.330  10.608  1.2027  0.4117  1.0076
51630SOL    HW266870   0.837   9.458  10.686 -1.5318 -0.1489  1.3744
51631SOL     OW66871  10.533   2.081  13.674 -0.1401 -0.1651 -0.3146
51631SOL    HW166872  10.508   2.098  13.765  2.3376 -0.1272  0.4374
51631SOL    HW266873  10.617   2.126  13.663  0.9693 -2.3731 -1.7674
51632SOL     OW66874   3.949  11.675  13.842 -0.3632 -0.0366  0.1141
51632SOL    HW166875   4.036  11.658  13.806 -0.0719  0.7142  0.4464
51632SOL    HW266876   3.961  11.672  13.937 -0.3913  1.4651  0.1892
51633SOL     OW66877  10.563  13.351   6.829 -0.4856  0.0956 -0.0100
51633SOL    HW166878  10.639  13.293   6.819  0.0640  1.1242 -2.5781
51633SOL    HW266879  10.492  13.304   6.786 -0.1566  0.9857 -1.6446
51634SOL     OW66880  11.209   3.505   0.770  0.5375 -0.6033 -0.0901
51634SOL    HW166881  11.123   3.544   0.784  0.0731 -1.6462  0.0797
51634SOL    HW266882  11.191   3.412   0.756  1.6359 -0.8301 -0.0849
51635SOL     OW66883   5.851  12.639   1.513 -0.0620  0.8271  0.5192
51635SOL    HW166884   5.934  12.676   1.481  1.6576 -3.2460 -0.2639
51635SOL    HW266885   5.801  12.621   1.433  0.1097 -0.5249  0.7030
51636SOL     OW66886  12.061   2.119  13.108  0.2847 -0.4134  0.6532
51636SOL    HW166887  11.981   2.073  13.082 -0.0981 -0.5137  1.9450
51636SOL    HW266888  12.117   2.115  13.031 -0.5717 -1.1980  0.0519
51637SOL     OW66889   1.106   8.204   5.613  0.5365  0.1989  0.1893
51637SOL    HW166890   1.194   8.241   5.621  0.5836  0.4494 -1.1312
51637SOL    HW266891   1.058   8.237   5.689  1.2598  1.0325  0.3010
51638SOL     OW66892  13.301   7.835   4.258  0.2158 -0.7221  0.3530
51638SOL    HW166893  13.228   7.879   4.214  0.4290  0.5346  1.1871
51638SOL    HW266894  13.307   7.750   4.215 -0.1787  0.0742 -1.3771
51639SOL     OW66895   3.356   7.592  12.074  0.1960  0.7309  0.1658
51639SOL    HW166896   3.268   7.585  12.112 -0.7338  1.9167 -1.6113
51639SOL    HW266897   3.409   7.531  12.125 -1.8196 -0.5728  0.8479
51640SOL     OW66898   5.854   3.789   1.906  0.1425  0.2007  0.4484
51640SOL    HW166899   5.844   3.807   1.813  1.8737  0.6354  0.3189
51640SOL    HW266900   5.790   3.847   1.948 -0.6265  0.0273 -0.4438
51641SOL     OW66901   7.219  10.549  13.379 -0.5179 -0.1740  0.1553
51641SOL    HW166902   7.182  10.523  13.294  0.5249 -0.5759 -0.1983
51641SOL    HW266903   7.312  10.527  13.371 -0.5247 -0.8465  1.6560
51642SOL     OW66904  11.448   9.975   9.219  0.1917 -0.3162 -0.4229
51642SOL    HW166905  11.426   9.921   9.294 -1.3452  1.9308  0.8806
51642SOL    HW266906  11.518  10.033   9.251 -1.2508  1.4322 -0.2481
51643SOL     OW66907   7.691   3.075   4.166 -0.4551  0.4945  0.3957
51643SOL    HW166908   7.728   3.152   4.123  1.9810 -0.1907  1.1287
51643SOL    HW266909   7.659   3.107   4.250 -1.4998  1.0751 -0.2015
51644SOL     OW66910   9.250  11.472   2.998  0.1099  0.1824  0.7799
51644SOL    HW166911   9.209  11.441   3.079 -0.2795  0.5619  0.7273
51644SOL    HW266912   9.192  11.441   2.928  0.9311 -0.9519  0.5795
51645SOL     OW66913   1.783   1.902   1.741 -0.4675  0.4438 -0.6115
51645SOL    HW166914   1.801   1.865   1.655  0.5904  1.1389 -0.7001
51645SOL    HW266915   1.865   1.893   1.789 -0.5366  1.6046 -0.2473
51646SOL     OW66916   7.392   4.131  10.910 -0.1253 -0.0137  0.3967
51646SOL    HW166917   7.447   4.197  10.867 -0.3340  0.4181  0.7734
51646SOL    HW266918   7.426   4.127  11.000 -0.5489  0.0887  0.5679
51647SOL     OW66919  10.127   1.190  13.943  0.6151 -0.4564  0.4309
51647SOL    HW166920  10.175   1.250  14.000 -0.0106 -0.8313  1.3779
51647SOL    HW266921  10.035   1.209  13.960  0.4164 -1.0792  0.0724
51648SOL     OW66922   7.839   0.598   7.874 -0.1128  0.4181 -0.0151
51648SOL    HW166923   7.858   0.540   7.948 -0.2170  0.0078 -0.3100
51648SOL    HW266924   7.809   0.540   7.804 -0.8089  0.8886 -0.1179
51649SOL     OW66925   1.414   5.733   7.884  0.2995  0.6161  0.8619
51649SOL    HW166926   1.415   5.729   7.788  0.1937  2.4146  0.7560
51649SOL    HW266927   1.505   5.747   7.909  0.3174  0.2159  1.0258
51650SOL     OW66928   1.716   1.430   3.763 -0.1699  0.2062  0.1109
51650SOL    HW166929   1.677   1.344   3.775  0.5667 -0.0342  0.8547
51650SOL    HW266930   1.810   1.415   3.769 -0.0488  1.1383  0.7599
51651SOL     OW66931   0.999  13.515  11.616 -0.0562 -0.0362  0.2886
51651SOL    HW166932   0.985  13.499  11.523  0.8441  1.2311 -0.0988
51651SOL    HW266933   0.989  13.429  11.657 -2.8636 -0.2297 -0.6228
51652SOL     OW66934  12.843  12.769   0.210 -0.0309 -0.2842 -0.3166
51652SOL    HW166935  12.807  12.822   0.281 -1.1695 -1.8013  0.2966
51652SOL    HW266936  12.851  12.681   0.247  1.1280 -0.7160 -1.5165
51653SOL     OW66937   1.787   5.850  13.807 -0.1580  0.2542  0.3307
51653SOL    HW166938   1.791   5.843  13.712  0.5138 -0.0074  0.3692
51653SOL    HW266939   1.872   5.886  13.832  0.0932 -0.7126  0.9123
51654SOL     OW66940   0.880  10.658   7.280  0.2429  0.0123  0.3363
51654SOL    HW166941   0.888  10.704   7.363 -0.6983 -0.2432  0.5804
51654SOL    HW266942   0.934  10.709   7.219 -0.0267  0.8886  0.8161
51655SOL     OW66943   6.630   5.379   0.270 -0.1070 -0.5410  0.2222
51655SOL    HW166944   6.659   5.407   0.357 -0.2734 -0.6776  0.3212
51655SOL    HW266945   6.583   5.297   0.285 -0.3283 -0.4520  0.0332
51656SOL     OW66946  13.082   5.185   7.613  0.1563 -0.0797 -0.4116
51656SOL    HW166947  13.140   5.238   7.557 -0.9249 -1.2965 -2.8301
51656SOL    HW266948  13.041   5.248   7.672  3.0568  0.9638  0.6740
51657SOL     OW66949   4.367   8.735   8.508 -0.0496 -0.1851 -0.6036
51657SOL    HW166950   4.386   8.656   8.458 -0.0759 -0.0166 -0.8868
51657SOL    HW266951   4.301   8.781   8.456 -0.3479 -0.1853 -0.2252
51658SOL     OW66952  13.615  13.964   2.246  0.0440  0.3632 -0.3748
51658SOL    HW166953  13.613  14.039   2.186  0.3748  0.2913 -0.4778
51658SOL    HW266954  13.660  13.997   2.323 -0.4204  0.4692 -0.1453
51659SOL     OW66955   6.591  11.240   3.339  0.1655  0.3458 -0.5115
51659SOL    HW166956   6.601  11.315   3.397 -0.0532 -0.5050  0.6741
51659SOL    HW266957   6.664  11.182   3.363 -1.1888 -1.0285  0.5631
51660SOL     OW66958   2.427   1.097   0.528 -0.3321  0.3280 -0.1576
51660SOL    HW166959   2.344   1.142   0.510 -1.1033 -0.6620  0.7570
51660SOL    HW266960   2.429   1.025   0.465 -0.3947  0.0862  0.1142
51661SOL     OW66961  13.629  11.752   9.010  0.0928 -0.9194  0.6116
51661SOL    HW166962  13.581  11.824   8.970  0.8781 -0.7439 -0.0656
51661SOL    HW266963  13.721  11.777   9.000  0.3391 -1.4185  1.5284
51662SOL     OW66964   9.076   1.283   1.209  0.0011  0.0164  0.6491
51662SOL    HW166965   9.025   1.323   1.280  0.6434  1.1063  0.5041
51662SOL    HW266966   9.129   1.217   1.253 -0.8620 -0.5198  0.9248
51663SOL     OW66967   9.259   8.631  12.762  0.4978  0.0317 -0.6378
51663SOL    HW166968   9.318   8.666  12.828 -0.9077  1.1378  0.0752
51663SOL    HW266969   9.266   8.693  12.689 -1.3742  1.4375  0.3060
51664SOL     OW66970   9.591   5.441  11.843  0.0756 -0.0865 -0.1257
51664SOL    HW166971   9.531   5.374  11.875  0.5112 -0.1847  0.4952
51664SOL    HW266972   9.575   5.445  11.749 -1.0378  0.0242  0.0570
51665SOL     OW66973   0.926   3.594   2.115 -0.5577  0.0144 -0.4785
51665SOL    HW166974   0.917   3.633   2.202 -0.5306 -0.7538 -0.1271
51665SOL    HW266975   0.963   3.664   2.061 -2.7330  1.2708 -0.4622
51666SOL     OW66976   6.411   4.886  11.506  0.0828  0.3016 -0.1893
51666SOL    HW166977   6.390   4.941  11.431  0.9380  1.7768  0.5996
51666SOL    HW266978   6.460   4.944  11.565 -0.4007 -0.8597  1.4257
51667SOL     OW66979   9.093  12.081   1.053 -0.1054  0.0289  0.0875
51667SOL    HW166980   9.100  12.054   0.961 -2.1956  0.4504 -0.2468
51667SOL    HW266981   9.146  12.017   1.101 -0.1097 -1.0290 -1.2628
51668SOL     OW66982   0.492  13.945   0.287 -0.4699  0.0006 -0.2127
51668SOL    HW166983   0.543  13.993   0.221  1.5570 -0.4337  0.9494
51668SOL    HW266984   0.503  13.853   0.263 -2.1853 -0.0534 -0.9260
51669SOL     OW66985   9.977  11.118   0.701 -0.2055  0.3238  0.3827
51669SOL    HW166986  10.020  11.077   0.626 -0.9955 -1.1818  0.7125
51669SOL    HW266987  10.027  11.198   0.717  0.4068  0.3113 -1.2945
51670SOL     OW66988  13.187   9.344  13.537 -0.1355  0.6018  0.1950
51670SOL    HW166989  13.198   9.431  13.576 -1.1720  1.2503 -0.9057
51670SOL    HW266990  13.193   9.358  13.443 -0.5005 -0.4881 -0.0068
51671SOL     OW66991  10.483   4.041   5.039 -0.0595 -0.0673 -0.2421
51671SOL    HW166992  10.562   4.016   5.087  1.0483 -0.5809 -2.2091
51671SOL    HW266993  10.493   4.135   5.025  1.0081 -0.3641 -1.7552
51672SOL     OW66994   9.923   7.428   0.707  0.1067 -1.1804  0.0195
51672SOL    HW166995   9.980   7.385   0.643 -0.3446  1.2604 -2.1732
51672SOL    HW266996   9.982   7.482   0.759  0.2994 -2.1110  0.7963
51673SOL     OW66997   0.907   0.733   2.917 -0.2241 -0.2321  0.1962
51673SOL    HW166998   0.955   0.664   2.870  0.6795  0.9723 -0.7226
51673SOL    HW266999   0.976   0.785   2.958 -0.9719 -0.9673  2.5458
51674SOL     OW67000   4.562   4.123   6.656  0.8539  0.0378 -0.0930
51674SOL    HW167001   4.634   4.128   6.719  0.6163  0.8618  0.1376
51674SOL    HW267002   4.484   4.109   6.710  0.6537  0.7075 -0.1895
51675SOL     OW67003   6.290   4.129   6.641 -0.5401 -0.3530 -0.2229
51675SOL    HW167004   6.293   4.033   6.650 -0.5732 -0.2723  0.7689
51675SOL    HW267005   6.197   4.149   6.633 -0.8266 -0.1961  2.5549
51676SOL     OW67006   9.383   6.726   5.991  0.4658  0.4928  0.3614
51676SOL    HW167007   9.343   6.769   6.066  0.8692  0.0208  0.8510
51676SOL    HW267008   9.454   6.785   5.965 -0.4796  1.2984 -0.4694
51677SOL     OW67009   2.865   2.034   6.485  1.0596  0.0944  0.2144
51677SOL    HW167010   2.908   2.015   6.568  0.4361  0.8374  0.7288
51677SOL    HW267011   2.793   2.094   6.509 -0.0778 -0.8762 -0.6427
51678SOL     OW67012  10.315   4.680   2.836 -0.1400  0.7830 -0.0296
51678SOL    HW167013  10.376   4.675   2.762 -1.4719 -0.0554 -1.1214
51678SOL    HW267014  10.369   4.710   2.909  2.2859 -2.4720 -0.2397
51679SOL     OW67015   7.543   6.598  11.110  0.1381  0.3175  0.2953
51679SOL    HW167016   7.455   6.635  11.122 -0.2166 -0.6936  1.0134
51679SOL    HW267017   7.527   6.514  11.067  0.8088  0.3659 -0.0511
51680SOL     OW67018   5.075   0.365   3.818 -0.1728  0.3465  0.1685
51680SOL    HW167019   5.099   0.288   3.870 -0.9942  0.0560  0.1319
51680SOL    HW267020   4.993   0.340   3.775 -1.4206  1.8760  1.5480
51681SOL     OW67021   6.950  10.665   9.984  0.0290  0.4323 -0.6337
51681SOL    HW167022   6.969  10.752  10.019  0.8493  0.5616 -1.3502
51681SOL    HW267023   7.036  10.630   9.959 -0.3008 -0.5242 -0.5056
51682SOL     OW67024   7.113  12.722   6.382  0.1186 -0.2051 -0.2340
51682SOL    HW167025   7.156  12.796   6.339  0.9017 -0.2549  0.4324
51682SOL    HW267026   7.180  12.654   6.384  0.0474 -0.2474  0.9278
51683SOL     OW67027  11.228   6.777   3.881  0.5362 -0.3767  0.2919
51683SOL    HW167028  11.260   6.689   3.898 -0.1133 -0.4365  1.2843
51683SOL    HW267029  11.266   6.801   3.797  3.3454 -0.3592  1.4490
51684SOL     OW67030  12.116   7.222   3.125  0.0234 -0.0274  0.0885
51684SOL    HW167031  12.186   7.284   3.107  0.9919 -1.3843 -1.0435
51684SOL    HW267032  12.100   7.178   3.041 -0.4956 -1.3935  0.8635
51685SOL     OW67033   4.715   8.701  11.136  0.5186  0.5163 -0.2019
51685SOL    HW167034   4.771   8.768  11.097  3.4632 -2.5487 -1.7739
51685SOL    HW267035   4.647   8.685  11.070 -0.9502  2.5697  0.6853
51686SOL     OW67036   0.121   7.142   9.893 -0.1282  0.0802  0.4590
51686SOL    HW167037   0.204   7.116   9.853  0.4329  0.8537  1.0996
51686SOL    HW267038   0.055   7.124   9.825  0.2686 -2.4229  0.6249
51687SOL     OW67039  10.272   7.137   6.204 -0.1838 -0.1446  0.1265
51687SOL    HW167040  10.324   7.081   6.262  0.4162  0.9542  0.6825
51687SOL    HW267041  10.316   7.132   6.120  0.0395 -0.2626  0.2504
51688SOL     OW67042   8.068  10.417   5.486 -0.3157 -0.5051  0.1793
51688SOL    HW167043   8.020  10.490   5.526  1.2739  0.7091 -0.0239
51688SOL    HW267044   8.012  10.341   5.501 -2.7360  0.9549 -0.8442
51689SOL     OW67045   5.594   2.994   8.482 -0.6553 -0.0367 -0.0608
51689SOL    HW167046   5.506   2.959   8.495 -0.0832 -1.7814 -0.6069
51689SOL    HW267047   5.646   2.958   8.553 -0.4718  1.5070  0.6446
51690SOL     OW67048   8.074   4.650  11.868  0.2043 -0.2027 -0.1419
51690SOL    HW167049   8.030   4.566  11.856 -1.0640  0.4108  0.0207
51690SOL    HW267050   8.075   4.664  11.963 -0.7528  0.5230 -0.2134
51691SOL     OW67051   6.752   6.753  11.450 -0.1229  1.0847  0.0172
51691SOL    HW167052   6.790   6.666  11.456 -0.1602  1.0475 -0.2820
51691SOL    HW267053   6.663   6.743  11.483  0.3667  1.3354  1.4933
51692SOL     OW67054   8.343  12.665   0.123 -0.7161 -0.2227  0.0337
51692SOL    HW167055   8.249  12.645   0.125 -1.3972  2.5321  0.6384
51692SOL    HW267056   8.376  12.632   0.207 -1.1417 -1.1288 -0.1440
51693SOL     OW67057   4.371   3.792   9.794 -0.2204  0.5047 -0.1470
51693SOL    HW167058   4.374   3.792   9.698 -1.1687 -0.1448 -0.1892
51693SOL    HW267059   4.376   3.885   9.818 -2.6191  0.9407 -0.9735
51694SOL     OW67060   5.416  11.535   0.990 -0.2173 -0.5822  0.1684
51694SOL    HW167061   5.461  11.582   0.920 -2.3598 -1.5959 -2.0242
51694SOL    HW267062   5.326  11.570   0.988 -0.6793 -1.6258  1.4861
51695SOL     OW67063   6.003   7.741   3.535 -0.4609 -0.0843  0.0119
51695SOL    HW167064   5.910   7.744   3.559 -0.4450  0.6324  0.0062
51695SOL    HW267065   6.007   7.783   3.449 -0.2070 -0.6392 -0.2541
51696SOL     OW67066  11.832   9.904   0.507 -0.0532 -0.1806 -0.3755
51696SOL    HW167067  11.851   9.997   0.514 -2.4781  0.3367  0.4685
51696SOL    HW267068  11.884   9.863   0.576 -1.2298  1.0010  1.2898
51697SOL     OW67069  11.941  10.794   9.944 -0.4524 -0.2833  0.1368
51697SOL    HW167070  11.961  10.730  10.013 -0.7520  0.2248  0.6990
51697SOL    HW267071  11.901  10.741   9.874  1.0517 -1.0121 -0.2189
51698SOL     OW67072   1.200  13.361   8.439 -0.1949 -0.5017 -0.2149
51698SOL    HW167073   1.265  13.404   8.383  0.3342 -0.6457  0.2811
51698SOL    HW267074   1.129  13.338   8.379  0.2953 -0.5235 -0.8028
51699SOL     OW67075   1.906   8.055   8.221  0.1526  0.0717 -0.3929
51699SOL    HW167076   1.898   7.966   8.256  1.2285  0.5353  1.1075
51699SOL    HW267077   1.885   8.045   8.128  1.8103 -2.0684 -0.6223
51700SOL     OW67078   5.343   4.699   2.153  0.2880  0.2473  0.6271
51700SOL    HW167079   5.351   4.753   2.075  2.1918 -0.1021  0.5319
51700SOL    HW267080   5.249   4.685   2.163 -0.0379  0.8056 -1.2437
51701SOL     OW67081  12.028   8.527   7.489  0.0063  0.4128  0.1943
51701SOL    HW167082  12.065   8.478   7.562  0.7526  0.7499  0.0456
51701SOL    HW267083  12.011   8.460   7.422  2.8237  0.5411 -0.7606
51702SOL     OW67084   8.462   4.810   5.378 -0.0330 -0.4509  0.0521
51702SOL    HW167085   8.445   4.773   5.292  0.2265 -0.1337 -0.1394
51702SOL    HW267086   8.519   4.885   5.361 -1.7599  0.9720  0.2542
51703SOL     OW67087   5.446   2.604   5.256 -0.5164 -0.0994  0.1872
51703SOL    HW167088   5.366   2.592   5.306 -2.1761 -0.5498 -2.3527
51703SOL    HW267089   5.484   2.516   5.249 -0.6163 -0.1410  0.1649
51704SOL     OW67090   4.621  10.822   5.467  0.4868  0.2209 -0.2024
51704SOL    HW167091   4.534  10.827   5.507  0.6863  0.7473  0.1747
51704SOL    HW267092   4.618  10.886   5.396  0.5387  0.1613 -0.2585
51705SOL     OW67093   4.790   1.384   2.776  0.2424 -0.3431 -0.2134
51705SOL    HW167094   4.762   1.402   2.686  0.0446 -1.7739 -0.4615
51705SOL    HW267095   4.766   1.463   2.824 -0.0311  0.2858 -1.3356
51706SOL     OW67096  10.337  13.753   4.821 -0.6237  0.2418 -0.1291
51706SOL    HW167097  10.260  13.792   4.780 -1.6700 -1.3517  0.2394
51706SOL    HW267098  10.381  13.707   4.749 -1.2278 -0.6633  0.0639
51707SOL     OW67099   9.803   3.457  10.054  0.2328  0.1924  0.2711
51707SOL    HW167100   9.891   3.495  10.055 -1.1500  3.8374 -0.7554
51707SOL    HW267101   9.787   3.438   9.962 -0.6637  1.2456  0.1975
51708SOL     OW67102   6.295   7.101  12.335 -0.1596 -0.2013 -0.0919
51708SOL    HW167103   6.329   7.087  12.423 -0.2705  0.1159  0.0071
51708SOL    HW267104   6.210   7.144  12.349  0.0845  0.3843 -0.3627
51709SOL     OW67105   2.979  13.205   0.612  0.0236 -0.0888  0.0793
51709SOL    HW167106   2.934  13.211   0.697 -0.4688 -0.1141 -0.1746
51709SOL    HW267107   3.018  13.118   0.612 -0.3987 -0.2837  0.0789
51710SOL     OW67108  10.420   7.889  10.039 -0.4760  0.3925 -0.0047
51710SOL    HW167109  10.435   7.861  10.129 -2.2943 -0.0304  0.2060
51710SOL    HW267110  10.458   7.820   9.986 -1.6978 -0.7026  0.4909
51711SOL     OW67111  11.661  12.560   0.631  0.0793  0.0541 -0.0789
51711SOL    HW167112  11.739  12.517   0.666  0.6642  0.7972 -0.4326
51711SOL    HW267113  11.600  12.563   0.705  1.0259  0.9642  0.6899
51712SOL     OW67114  11.329  13.773   0.196 -0.4051  0.1688  0.5977
51712SOL    HW167115  11.294  13.695   0.239  0.3303 -0.6188 -0.1727
51712SOL    HW267116  11.323  13.753   0.102 -1.8476  1.7796  0.2881
51713SOL     OW67117  10.106  10.578   0.909 -0.6253 -0.0393 -0.3359
51713SOL    HW167118  10.046  10.601   0.838 -0.5572  3.0338  0.4400
51713SOL    HW267119  10.075  10.629   0.984  1.2600 -0.5868  0.8866
51714SOL     OW67120  13.729   5.984  13.204  0.3846  0.1881  0.5537
51714SOL    HW167121  13.633   5.991  13.210  0.2840 -0.7607  0.2096
51714SOL    HW267122  13.745   5.939  13.122  1.1455  0.4599  0.5443
51715SOL     OW67123   0.232   3.430  13.644 -0.0626 -0.4214  0.1542
51715SOL    HW167124   0.285   3.368  13.693 -1.1181 -0.8641  0.7652
51715SOL    HW267125   0.256   3.415  13.552  1.4671 -0.0153  0.4696
51716SOL     OW67126   5.966   3.647   5.126  0.2230 -0.4608 -0.3815
51716SOL    HW167127   5.951   3.603   5.209 -3.0677  0.5105 -0.3312
51716SOL    HW267128   6.053   3.618   5.098  0.7060 -2.1146  2.5420
51717SOL     OW67129   6.444  11.029   9.988  0.7632 -0.0122 -0.3394
51717SOL    HW167130   6.485  10.962  10.042 -0.0432 -0.8463 -0.7260
51717SOL    HW267131   6.364  11.052  10.034  0.5793  0.0122 -0.6653
51718SOL     OW67132   4.841   7.560   6.633 -0.2242  0.5094 -0.0264
51718SOL    HW167133   4.930   7.539   6.606  0.3750  1.7115  0.8996
51718SOL    HW267134   4.786   7.494   6.591  1.3124 -1.6263  1.1919
51719SOL     OW67135  11.085   8.747   7.566  0.6056  0.1957  0.1533
51719SOL    HW167136  11.049   8.802   7.635  0.6076  0.5473 -0.1242
51719SOL    HW267137  11.131   8.677   7.613  0.0004  0.0289  0.5060
51720SOL     OW67138   7.939  13.047   5.597 -0.2144  0.0857  0.4026
51720SOL    HW167139   7.988  12.968   5.619  0.7708  0.8209  0.9240
51720SOL    HW267140   7.861  13.015   5.552  0.1006 -1.1860  0.7233
51721SOL     OW67141   4.717   4.045   9.069 -0.4950 -0.1576  0.2860
51721SOL    HW167142   4.770   4.121   9.094 -1.5456  1.1692 -1.2815
51721SOL    HW267143   4.746   4.024   8.980 -0.7549 -1.1350  0.4195
51722SOL     OW67144   8.650   4.061  13.132 -0.0945  0.5265  0.1664
51722SOL    HW167145   8.686   3.975  13.110 -0.5085  0.2989  0.3555
51722SOL    HW267146   8.694   4.122  13.073 -0.0846  0.1288 -0.2374
51723SOL     OW67147  12.794   5.086   7.711 -0.2441  0.4472  0.1045
51723SOL    HW167148  12.884   5.055   7.704  0.0601  1.5401 -1.5757
51723SOL    HW267149  12.740   5.009   7.694  0.2927 -0.5189  2.4239
51724SOL     OW67150   3.615   6.847  10.305  0.0496  0.1360 -0.1975
51724SOL    HW167151   3.605   6.934  10.344 -0.6478 -0.1270  0.2414
51724SOL    HW267152   3.539   6.839  10.247 -0.8669 -0.8405  1.0804
51725SOL     OW67153   7.765   8.513  11.534 -0.4906 -0.0394 -0.1249
51725SOL    HW167154   7.734   8.425  11.555  0.3705 -0.1920  0.5495
51725SOL    HW267155   7.858   8.502  11.517 -0.0159  0.9650  1.5662
51726SOL     OW67156   7.826  11.671   5.405 -0.6112 -0.2952  0.0007
51726SOL    HW167157   7.854  11.580   5.401 -0.8739 -0.3315 -2.7177
51726SOL    HW267158   7.739  11.667   5.446 -0.6454 -1.2616 -0.1360
51727SOL     OW67159  12.121   3.731   7.217  0.2120 -0.6626 -0.2558
51727SOL    HW167160  12.111   3.652   7.271  1.5506 -0.5074  0.2564
51727SOL    HW267161  12.044   3.784   7.237  0.3513 -0.9101  1.0027
51728SOL     OW67162  10.619  13.769  10.928  0.1134 -0.4342 -0.1540
51728SOL    HW167163  10.706  13.801  10.952 -0.6306  0.5454  1.3719
51728SOL    HW267164  10.560  13.809  10.992 -1.2254 -2.7650  0.1635
51729SOL     OW67165   3.369   6.299   9.092  0.5253  0.5133  0.1766
51729SOL    HW167166   3.410   6.384   9.076  1.2485 -0.0282 -0.8980
51729SOL    HW267167   3.434   6.235   9.065  0.0050 -0.4005  1.0321
51730SOL     OW67168   3.994   6.708  10.957 -0.2048 -0.5223 -0.2465
51730SOL    HW167169   4.039   6.680  10.877 -1.2818  0.8729 -1.3908
51730SOL    HW267170   4.053   6.770  10.998 -0.2550 -0.1498 -0.7312
51731SOL     OW67171   7.495  10.644   5.006  0.2413 -0.9859 -0.2601
51731SOL    HW167172   7.478  10.686   5.091  0.3875 -0.8833 -0.2816
51731SOL    HW267173   7.585  10.670   4.984  0.7184 -2.1368  0.2147
51732SOL     OW67174  11.445   0.997  13.314  0.3036  0.3480 -0.2947
51732SOL    HW167175  11.517   0.951  13.357  0.8583  0.1138 -1.4423
51732SOL    HW267176  11.411   1.056  13.382  0.4076 -0.8134  0.8027
51733SOL     OW67177   9.067   6.863   8.837  0.7231  0.1933 -0.0595
51733SOL    HW167178   9.148   6.914   8.831 -0.6509  2.3626 -1.9523
51733SOL    HW267179   9.071   6.803   8.762  1.3539 -0.9978  0.9017
51734SOL     OW67180   2.965  10.113   0.535  0.2555 -0.1726  0.4379
51734SOL    HW167181   2.908  10.189   0.524 -0.0872 -0.3995  0.6292
51734SOL    HW267182   2.959  10.067   0.451 -0.8790 -0.8940  0.8840
51735SOL     OW67183   8.121   6.569   6.305 -0.5253 -0.2102 -0.0447
51735SOL    HW167184   8.192   6.526   6.352  0.9669  1.0370 -1.0283
51735SOL    HW267185   8.148   6.661   6.300 -2.1086  0.2625 -0.6745
51736SOL     OW67186  12.551   8.722  14.038  0.0188 -0.3224 -0.7354
51736SOL    HW167187  12.642   8.715  14.070 -0.0938 -1.2416 -0.5754
51736SOL    HW267188  12.550   8.668  13.959 -0.5507 -0.8660 -0.3615
51737SOL     OW67189   4.781  11.223  12.525  0.2034  0.2281 -0.4053
51737SOL    HW167190   4.810  11.314  12.519  1.3077 -0.1545 -1.4122
51737SOL    HW267191   4.747  11.203  12.438  0.1059 -0.3529 -0.2382
51738SOL     OW67192   3.126   6.468  12.503 -0.7130 -0.4707 -0.4767
51738SOL    HW167193   3.211   6.492  12.467 -0.6804 -1.1605 -0.8846
51738SOL    HW267194   3.122   6.511  12.588 -1.1359  1.8750 -1.6078
51739SOL     OW67195   3.463  11.820  11.559 -0.2013 -0.4792  0.1440
51739SOL    HW167196   3.523  11.851  11.492 -1.9314  1.4512 -0.6346
51739SOL    HW267197   3.484  11.873  11.636  0.0908 -0.8836  0.3452
51740SOL     OW67198   8.543  12.170   9.124 -0.2109  0.4002  0.0896
51740SOL    HW167199   8.448  12.170   9.135 -0.2519 -1.2381 -0.0439
51740SOL    HW267200   8.578  12.184   9.212 -0.5732  0.3234  0.2439
51741SOL     OW67201  13.159   1.976   5.751 -0.3669 -0.0533 -0.2933
51741SOL    HW167202  13.224   2.033   5.793 -2.2409  1.6753  0.4620
51741SOL    HW267203  13.158   2.003   5.660 -0.4554  0.3690 -0.1703
51742SOL     OW67204   0.467   7.915  11.879 -1.0336  0.0127  0.0998
51742SOL    HW167205   0.433   7.829  11.856  0.6464 -0.9937  1.1465
51742SOL    HW267206   0.507   7.903  11.965  2.3491  0.8752 -1.1736
51743SOL     OW67207  11.191  13.501   0.264 -0.4728 -0.3730  0.1440
51743SOL    HW167208  11.251  13.444   0.217  1.4757  1.1919  0.6344
51743SOL    HW267209  11.196  13.472   0.355  2.2258  1.8410  0.8082
51744SOL     OW67210   8.621   4.392   1.083 -0.2705 -0.4156 -0.3742
51744SOL    HW167211   8.675   4.374   1.160 -2.8007 -1.7409  1.2323
51744SOL    HW267212   8.642   4.323   1.021 -1.3149 -1.9751  0.9466
51745SOL     OW67213   8.074  12.010   8.628 -0.1140  0.1081 -0.4482
51745SOL    HW167214   8.006  12.063   8.587 -0.0674  1.6039  1.2650
51745SOL    HW267215   8.030  11.966   8.701  0.8844  1.9781  1.3921
51746SOL     OW67216  12.562   1.374   6.581 -0.0879 -0.0890 -0.3388
51746SOL    HW167217  12.593   1.421   6.504 -0.6822  0.3326 -0.3286
51746SOL    HW267218  12.633   1.314   6.604  0.8397  1.0822 -0.1114
51747SOL     OW67219   6.115  12.880  11.332  0.1358 -0.3518  0.3202
51747SOL    HW167220   6.164  12.841  11.260  0.2209  1.2724 -0.5231
51747SOL    HW267221   6.138  12.972  11.331 -1.8064  0.1872  0.8483
51748SOL     OW67222   6.644   7.770   6.440 -0.1292  0.2969  0.3359
51748SOL    HW167223   6.568   7.785   6.497  0.7566 -1.1958  2.0162
51748SOL    HW267224   6.688   7.694   6.478  1.4273  0.2388 -1.4359
51749SOL     OW67225   9.096  12.132  12.693  0.2871  0.7178  0.3772
51749SOL    HW167226   9.178  12.181  12.702  0.7467  0.0174  0.1161
51749SOL    HW267227   9.090  12.080  12.773  1.9380 -1.8970 -1.0252
51750SOL     OW67228   9.750  12.343  12.620  0.1155  0.4938 -0.3300
51750SOL    HW167229   9.687  12.282  12.581 -0.2169  0.9373 -0.4910
51750SOL    HW267230   9.748  12.419  12.563 -0.1822  1.0498  0.4125
51751SOL     OW67231   0.671   7.288   6.896  0.0432 -0.1824  0.2814
51751SOL    HW167232   0.611   7.327   6.959 -2.0235 -3.7211  0.8008
51751SOL    HW267233   0.618   7.274   6.817  1.4483  0.4160 -0.8278
51752SOL     OW67234  12.480   0.594   1.563 -0.2381  0.0506  0.1190
51752SOL    HW167235  12.559   0.568   1.516  0.5778  0.4950  1.2100
51752SOL    HW267236  12.493   0.563   1.652 -1.5191 -0.2948  0.2064
51753SOL     OW67237  12.887   4.048  11.370 -0.3604  0.2162  0.5503
51753SOL    HW167238  12.798   4.063  11.337 -0.6044 -1.1323  0.5384
51753SOL    HW267239  12.906   3.958  11.346  1.0655  0.5111  0.4783
51754SOL     OW67240   1.855   2.043   6.259 -0.2308  0.0260  0.5616
51754SOL    HW167241   1.847   1.950   6.278 -1.5038  0.0707  0.3751
51754SOL    HW267242   1.839   2.086   6.343 -1.2431  0.0964  0.3544
51755SOL     OW67243   2.557   4.667   9.232  0.1916  0.0449 -0.0627
51755SOL    HW167244   2.536   4.574   9.224 -0.9122  0.0430  2.0712
51755SOL    HW267245   2.492   4.711   9.176 -0.4066 -0.3866  0.2761
51756SOL     OW67246  13.407  13.393   9.370 -0.0703  0.2522 -0.0342
51756SOL    HW167247  13.325  13.357   9.338 -0.4668 -0.0091  1.2092
51756SOL    HW267248  13.472  13.369   9.304 -0.6761 -1.0759 -0.1597
51757SOL     OW67249   4.474  13.233   8.574  0.3865 -0.2725  0.1114
51757SOL    HW167250   4.397  13.266   8.528 -0.2718  1.2969  2.1868
51757SOL    HW267251   4.538  13.304   8.568  0.5339 -0.3154  0.9775
51758SOL     OW67252   9.977  11.059  13.731 -0.0134  0.0994 -0.1950
51758SOL    HW167253  10.018  10.980  13.694 -1.3993 -0.8537  0.1981
51758SOL    HW267254   9.901  11.075  13.674 -1.7843 -0.9873  1.6982
51759SOL     OW67255   8.687   8.009   3.772 -0.0504 -0.2850  0.1731
51759SOL    HW167256   8.694   8.073   3.843  0.6782 -0.8904  0.6549
51759SOL    HW267257   8.596   7.980   3.776 -0.5184  1.0579 -0.3552
51760SOL     OW67258  13.437   2.395  13.382 -0.4588 -0.4624  0.0284
51760SOL    HW167259  13.527   2.364  13.387 -0.9974 -2.1794 -0.1358
51760SOL    HW267260  13.419   2.401  13.288 -0.7513 -0.8853  0.0561
51761SOL     OW67261   8.562   6.150   0.902 -0.1428  1.2993  0.1845
51761SOL    HW167262   8.596   6.224   0.851 -0.1333  1.2923  0.1807
51761SOL    HW267263   8.576   6.176   0.993 -1.8555  2.1285  0.2438
51762SOL     OW67264  11.693  12.047   1.353 -0.1114 -0.1401 -0.0450
51762SOL    HW167265  11.646  12.108   1.297  1.1565  1.8042  0.9222
51762SOL    HW267266  11.745  11.993   1.293 -0.4986  0.3700 -0.8498
51763SOL     OW67267   1.649   1.520   8.388 -0.6608  0.7698 -0.1083
51763SOL    HW167268   1.644   1.614   8.374 -2.3887  0.6966 -0.2162
51763SOL    HW267269   1.614   1.507   8.476  2.1852  0.4423  1.0881
51764SOL     OW67270  10.557   2.253   3.848  0.7742  0.9602  0.2076
51764SOL    HW167271  10.470   2.292   3.833  0.4981  0.3399  0.1727
51764SOL    HW267272  10.543   2.192   3.920  0.8242 -0.3122 -0.8300
51765SOL     OW67273  13.740   0.874   5.712  0.3359  0.6285 -0.0743
51765SOL    HW167274  13.781   0.928   5.779 -0.5116  0.7368  0.3643
51765SOL    HW267275  13.699   0.937   5.653 -0.0982  0.4827  0.0744
51766SOL     OW67276   9.955   7.357  12.727 -0.8239  0.0453  0.1872
51766SOL    HW167277   9.998   7.442  12.728  2.1526 -1.3047 -1.1432
51766SOL    HW267278   9.931   7.343  12.636  0.5113 -1.2857 -0.0032
51767SOL     OW67279   5.521   7.013   0.188 -0.1716  0.0570  0.0405
51767SOL    HW167280   5.464   6.937   0.185  1.5007 -1.2307 -0.9449
51767SOL    HW267281   5.584   6.999   0.117 -0.3537  2.8359 -0.7698
51768SOL     OW67282   9.637   2.277   5.060  0.4395 -0.0458 -0.3218
51768SOL    HW167283   9.605   2.346   5.002  1.7987 -0.0905 -1.1704
51768SOL    HW267284   9.732   2.289   5.062  0.6326 -1.4228  0.1171
51769SOL     OW67285   3.654  10.940   0.973  0.1621 -0.4628  0.3082
51769SOL    HW167286   3.688  11.022   1.009 -1.8442 -0.4258  2.3059
51769SOL    HW267287   3.671  10.875   1.042 -2.3995 -0.7174  0.7807
51770SOL     OW67288   5.806   0.612   2.696  0.9604 -0.0279  0.2952
51770SOL    HW167289   5.726   0.594   2.746 -0.5476 -0.1229 -2.0293
51770SOL    HW267290   5.824   0.530   2.650  0.4635  0.9401 -1.7256
51771SOL     OW67291   3.559   7.592   0.088  0.0518 -0.2401  0.3118
51771SOL    HW167292   3.514   7.675   0.102 -0.8285 -0.5991 -0.2744
51771SOL    HW267293   3.627   7.589   0.155  1.3242  1.7960 -0.7773
51772SOL     OW67294   7.472   4.675   3.703  0.1514  0.2634 -0.5226
51772SOL    HW167295   7.416   4.599   3.716  1.4678 -0.6653 -0.1427
51772SOL    HW267296   7.503   4.668   3.613 -0.8231  1.1374 -0.9538
51773SOL     OW67297   0.594  13.667   4.057  0.6076 -0.4662 -0.4384
51773SOL    HW167298   0.622  13.596   3.999  1.2840 -0.2136 -0.4343
51773SOL    HW267299   0.608  13.633   4.145 -0.4732 -0.8699 -0.4117
51774SOL     OW67300  10.333   2.931   9.818  0.0593  0.3228 -0.3717
51774SOL    HW167301  10.334   2.842   9.853  0.0515 -0.0152 -1.2291
51774SOL    HW267302  10.279   2.926   9.740 -2.8858  1.7939  1.4050
51775SOL     OW67303   8.338   3.058   4.533 -0.2289 -0.0252  0.5813
51775SOL    HW167304   8.349   2.968   4.503  0.8150 -0.1990  1.4325
51775SOL    HW267305   8.243   3.073   4.532 -0.3161 -0.3759 -1.7043
51776SOL     OW67306   1.402  10.652   8.354  0.2276 -0.1559 -0.1697
51776SOL    HW167307   1.414  10.718   8.286 -1.5618  0.3781 -0.0395
51776SOL    HW267308   1.442  10.691   8.432  0.8004 -0.0331 -0.5216
51777SOL     OW67309   0.031   5.419   1.433 -0.1249  0.3073 -0.0167
51777SOL    HW167310   0.062   5.495   1.482 -0.6505  0.1297  0.5882
51777SOL    HW267311  -0.033   5.377   1.489 -0.7844  0.1308 -0.8775
51778SOL     OW67312   9.253   9.318  10.750 -0.0283  0.3758 -0.1494
51778SOL    HW167313   9.290   9.261  10.683  0.9345  1.7007 -0.7751
51778SOL    HW267314   9.233   9.259  10.823 -0.8195 -1.0436 -1.4563
51779SOL     OW67315  13.803   3.141   2.877  0.1647 -0.4227  0.1306
51779SOL    HW167316  13.835   3.068   2.824 -1.0785 -0.3534 -0.7441
51779SOL    HW267317  13.743   3.189   2.820  1.7318  1.9415  0.2967
51780SOL     OW67318   9.072   7.098   8.327 -0.0206 -0.0274 -0.2134
51780SOL    HW167319   9.066   7.006   8.302  0.6165 -0.1671  0.1172
51780SOL    HW267320   9.014   7.106   8.403  1.0045 -0.4978  0.6479
51781SOL     OW67321  12.934   3.436   7.920 -0.2736  0.2082  0.2807
51781SOL    HW167322  12.895   3.464   8.003  2.3329  0.7255  1.4189
51781SOL    HW267323  12.969   3.516   7.881  1.7169 -0.5074  0.4962
51782SOL     OW67324   6.657   8.052  11.559 -0.4051 -0.0310 -0.2217
51782SOL    HW167325   6.743   8.026  11.526  0.2782 -1.0723  2.1521
51782SOL    HW267326   6.669   8.141  11.591 -1.0103  0.8947 -2.4078
51783SOL     OW67327   7.092   1.461   3.445 -0.4242 -0.1614 -0.0662
51783SOL    HW167328   7.050   1.434   3.526 -1.0465  0.7498 -0.0597
51783SOL    HW267329   7.183   1.478   3.468 -0.6040  0.1103  0.4543
51784SOL     OW67330  11.768   1.028   6.769  0.0689 -0.5065  0.0684
51784SOL    HW167331  11.762   1.027   6.674 -0.5949 -1.4169  0.1096
51784SOL    HW267332  11.816   1.109   6.789 -0.8572  0.3296 -0.9651
51785SOL     OW67333   8.659  11.210   3.258  0.4702 -0.3268  0.3532
51785SOL    HW167334   8.568  11.181   3.252  0.4974 -0.1917 -1.3289
51785SOL    HW267335   8.674  11.225   3.351 -0.4740 -2.7264  0.9847
51786SOL     OW67336   2.588   5.809   8.570 -0.1074  0.2958  0.2720
51786SOL    HW167337   2.637   5.889   8.549 -0.3305  0.1244 -0.9382
51786SOL    HW267338   2.501   5.840   8.594 -0.0852  0.4439  0.1644
51787SOL     OW67339   2.915  10.122   3.775  0.5464 -0.5328 -0.0428
51787SOL    HW167340   2.845  10.148   3.834  1.6049  0.8393  0.6889
51787SOL    HW267341   2.885  10.148   3.689  0.3729  0.5436  0.3309
51788SOL     OW67342   5.789  11.120   6.280  0.6236  0.2777  0.0954
51788SOL    HW167343   5.871  11.159   6.309  0.3128  2.3937 -1.6655
51788SOL    HW267344   5.722  11.162   6.335  0.5705 -0.5027  0.6523
51789SOL     OW67345   9.951   0.321   1.146 -0.5211  0.1078  0.6181
51789SOL    HW167346   9.879   0.353   1.092  0.6921  0.9576 -0.5733
51789SOL    HW267347   9.930   0.229   1.162 -0.8822 -0.2135 -1.4163
51790SOL     OW67348   4.829   2.014   1.085 -0.3567 -0.1982 -0.1416
51790SOL    HW167349   4.915   2.006   1.045  0.6155  2.3111  1.1997
51790SOL    HW267350   4.798   2.101   1.059 -1.3768 -0.0648  1.3693
51791SOL     OW67351  13.011  12.407  12.287  0.5563 -0.3158 -0.4996
51791SOL    HW167352  13.017  12.333  12.348 -0.0534 -0.0236 -0.0733
51791SOL    HW267353  12.940  12.383  12.228 -2.8709  1.7997  2.3619
51792SOL     OW67354   7.575   5.322   7.594  0.1300 -0.1957 -0.1438
51792SOL    HW167355   7.594   5.416   7.599 -3.1099  0.5332  1.0890
51792SOL    HW267356   7.535   5.311   7.508 -1.0316 -0.0588  0.3616
51793SOL     OW67357  11.962   0.110   6.886 -0.0165  0.6197  0.1968
51793SOL    HW167358  11.946   0.203   6.904  0.9693  0.7625  0.3977
51793SOL    HW267359  12.009   0.110   6.803 -1.5267  0.1734 -0.6921
51794SOL     OW67360   5.060  13.250   6.292 -0.5100  0.6584 -0.1105
51794SOL    HW167361   5.010  13.188   6.346 -1.7064  1.4771 -0.2349
51794SOL    HW267362   5.135  13.274   6.347 -1.3061  0.9013  0.9022
51795SOL     OW67363   3.484   8.621  10.041  0.5947  0.3404  0.0874
51795SOL    HW167364   3.566   8.574  10.051  0.8806  0.9821  0.7744
51795SOL    HW267365   3.509   8.709  10.011  0.1272  0.3865 -0.1907
51796SOL     OW67366   9.211  13.200   7.995  0.2595 -0.2882  0.8593
51796SOL    HW167367   9.300  13.214   7.963  0.0371  0.3269  0.4991
51796SOL    HW267368   9.220  13.200   8.091  0.5172  0.7547  0.8529
51797SOL     OW67369   8.686   7.540  13.755  0.3306 -0.4444 -0.1747
51797SOL    HW167370   8.747   7.495  13.697  0.0490  0.3819 -1.1393
51797SOL    HW267371   8.682   7.630  13.721  2.4616  0.9737  2.8602
51798SOL     OW67372  13.086  10.882  14.003 -0.2922  0.0413 -0.3395
51798SOL    HW167373  13.014  10.922  14.052 -0.8315 -1.3055 -0.0024
51798SOL    HW267374  13.099  10.796  14.044  0.7433 -0.2006 -1.1317
51799SOL     OW67375   6.174   2.577  11.953  0.3813 -0.4497  0.2566
51799SOL    HW167376   6.112   2.560  12.024  0.0437 -0.9097 -0.1403
51799SOL    HW267377   6.131   2.542  11.875  1.0323 -0.5386 -0.0658
51800SOL     OW67378  13.053   8.685   5.089  0.0138 -0.0885 -0.4589
51800SOL    HW167379  13.083   8.759   5.036  1.9604 -1.6424 -1.6678
51800SOL    HW267380  13.132   8.633   5.105 -1.1575 -1.5326  0.9768
51801SOL     OW67381   5.869   8.633  10.398 -0.4106 -0.2910 -0.2485
51801SOL    HW167382   5.934   8.577  10.441  1.2027  2.4148  1.1747
51801SOL    HW267383   5.883   8.618  10.304  1.7769 -0.4076  0.0316
51802SOL     OW67384   6.225   9.760  13.818  0.2464 -0.0118 -0.0902
51802SOL    HW167385   6.133   9.733  13.819  0.5474 -1.3685 -2.4707
51802SOL    HW267386   6.236   9.806  13.735  1.5920  0.7078  0.4524
51803SOL     OW67387   4.997   7.473   1.291 -0.2658 -0.1842  0.0777
51803SOL    HW167388   4.906   7.478   1.318 -1.0164 -1.3186 -2.0679
51803SOL    HW267389   5.006   7.388   1.249  1.8520 -0.2017  0.4597
51804SOL     OW67390   7.090   3.965   8.362 -0.2184 -0.0096  0.2562
51804SOL    HW167391   7.027   4.023   8.405 -1.7755  0.5535 -2.5396
51804SOL    HW267392   7.035   3.903   8.313  1.4313 -2.2469  1.0741
51805SOL     OW67393  13.203   8.924   2.985  0.6157  0.9096 -0.5877
51805SOL    HW167394  13.178   8.857   3.048  1.5713  1.4816  0.4290
51805SOL    HW267395  13.155   9.002   3.011  2.2238  1.6064  0.4877
51806SOL     OW67396  11.197   9.159  11.266 -0.2599  0.3494  0.3794
51806SOL    HW167397  11.180   9.130  11.356  1.8804  0.7949  0.9691
51806SOL    HW267398  11.280   9.118  11.242  0.0494  1.5599 -0.7710
51807SOL     OW67399   6.549  11.678  13.659 -0.0120  0.5848  0.5703
51807SOL    HW167400   6.644  11.688  13.653  0.1237  0.1387  1.7630
51807SOL    HW267401   6.515  11.767  13.652  0.6722  1.0725  2.8728
51808SOL     OW67402   7.216  10.245   9.569  0.0690  0.1518 -0.9331
51808SOL    HW167403   7.306  10.273   9.585 -0.2270  0.3149  0.6172
51808SOL    HW267404   7.224  10.169   9.511  1.2963 -0.6704  0.2630
51809SOL     OW67405   7.423  11.649   6.380 -0.3688 -0.4076  0.3898
51809SOL    HW167406   7.382  11.650   6.467  1.1996  0.7731  1.1761
51809SOL    HW267407   7.359  11.693   6.323 -1.1256 -0.5807  1.0897
51810SOL     OW67408  13.370  11.076  13.479 -0.3329 -0.2504 -0.5945
51810SOL    HW167409  13.401  11.120  13.400 -1.3699  0.9897 -0.3334
51810SOL    HW267410  13.315  11.004  13.447  1.1067 -1.2008 -1.0145
51811SOL     OW67411   7.424   5.341   6.266 -0.2020  0.3216 -0.5505
51811SOL    HW167412   7.462   5.357   6.352 -0.5033 -1.8348  0.0520
51811SOL    HW267413   7.484   5.278   6.225  0.1851  1.6639 -2.1344
51812SOL     OW67414   2.462   4.376   9.441  0.0551  0.3310 -0.2671
51812SOL    HW167415   2.456   4.471   9.454  2.1920  0.4415  0.2086
51812SOL    HW267416   2.373   4.345   9.457 -0.9816  2.3638 -1.5783
51813SOL     OW67417  13.812   2.713   4.033 -0.5614  0.2581 -0.0340
51813SOL    HW167418  13.858   2.738   3.953  1.1015  0.2177  0.8753
51813SOL    HW267419  13.760   2.791   4.056  0.0901  0.7936 -0.3520
51814SOL     OW67420  10.704   2.199   2.849 -0.0463  0.1780 -0.5301
51814SOL    HW167421  10.649   2.177   2.773 -1.1230  0.9740 -0.0024
51814SOL    HW267422  10.647   2.182   2.924  1.1405 -0.9784  0.1336
51815SOL     OW67423   4.661   1.163   5.150 -0.2139  0.0318  0.3124
51815SOL    HW167424   4.610   1.173   5.069  1.6163 -1.2333 -1.0804
51815SOL    HW267425   4.620   1.224   5.211 -1.0892  1.7752 -1.8543
51816SOL     OW67426  13.950   6.354   8.399  0.4898  1.0572 -0.1362
51816SOL    HW167427  13.987   6.379   8.483 -1.4414  1.3669  0.6756
51816SOL    HW267428  14.000   6.404   8.334  2.0936  0.7087  0.7704
51817SOL     OW67429  11.527   2.535   3.003 -0.1519 -0.0280  0.5265
51817SOL    HW167430  11.554   2.615   3.049  0.5512 -0.7353  1.3598
51817SOL    HW267431  11.520   2.562   2.911  1.3279  0.6933  0.6012
51818SOL     OW67432  10.183   5.646   5.432 -0.0710 -0.7583 -0.0901
51818SOL    HW167433  10.239   5.672   5.505  0.1361 -0.3024 -0.3982
51818SOL    HW267434  10.101   5.693   5.446  0.4578  0.4652 -0.8831
51819SOL     OW67435   7.230   4.196  13.577  0.0063  0.5298 -0.2941
51819SOL    HW167436   7.271   4.208  13.662  0.0893 -0.8705 -0.1132
51819SOL    HW267437   7.240   4.280  13.533  0.2652  1.1643  0.9404
51820SOL     OW67438   1.635  12.472  13.180  0.0270 -0.4658  0.0270
51820SOL    HW167439   1.603  12.543  13.124  0.8899 -1.1298 -1.3975
51820SOL    HW267440   1.727  12.461  13.153  0.0434 -1.7907  0.5575
51821SOL     OW67441   6.458  12.198   4.154 -0.1650 -0.4452 -0.0884
51821SOL    HW167442   6.538  12.167   4.196  0.5111 -0.4696 -1.3626
51821SOL    HW267443   6.416  12.119   4.120 -1.1281 -0.5238  1.1629
51822SOL     OW67444   3.486   0.442   9.184 -0.0023  0.1134  0.1955
51822SOL    HW167445   3.428   0.396   9.245 -2.3539  1.0907 -1.1658
51822SOL    HW267446   3.505   0.525   9.227 -0.6818  0.3163  0.1114
51823SOL     OW67447  10.531   6.791   3.398 -0.3694  0.1396  0.3853
51823SOL    HW167448  10.600   6.809   3.462 -0.5642 -1.3453  1.0598
51823SOL    HW267449  10.572   6.807   3.314  0.9822 -1.1734  0.7497
51824SOL     OW67450   3.322   0.329   3.763  0.2343  0.1670  0.2926
51824SOL    HW167451   3.323   0.425   3.763 -0.6198  0.1966  1.4008
51824SOL    HW267452   3.374   0.304   3.839  1.6633 -0.3036 -0.8118
51825SOL     OW67453   7.930   4.121   4.371 -0.2042 -0.1218 -0.3449
51825SOL    HW167454   7.910   4.052   4.435 -0.4993 -0.2592 -0.5862
51825SOL    HW267455   7.878   4.099   4.294 -0.5208  0.5279 -0.3208
51826SOL     OW67456   0.235   6.015  10.478 -0.1763 -0.0076  0.1468
51826SOL    HW167457   0.212   5.984  10.565 -0.4148 -0.3369 -0.0363
51826SOL    HW267458   0.163   6.073  10.453  0.0024  0.2681  0.2607
51827SOL     OW67459   0.834  11.968  12.945  0.2815 -0.3016 -0.1278
51827SOL    HW167460   0.759  11.998  12.894 -0.7396  0.8469  1.9461
51827SOL    HW267461   0.795  11.921  13.019  1.6124  0.0187  0.8018
51828SOL     OW67462   9.057   2.123  12.051  0.2307  0.0875 -0.4217
51828SOL    HW167463   9.096   2.203  12.017  1.8387 -0.2209  0.6253
51828SOL    HW267464   9.072   2.126  12.145  1.4474 -1.9825 -0.4776
51829SOL     OW67465   9.021   9.251   0.355  0.3015 -0.2338  0.1019
51829SOL    HW167466   8.938   9.272   0.397  0.7300 -0.1746  0.9676
51829SOL    HW267467   9.055   9.177   0.406  0.2977 -0.9328 -0.8963
51830SOL     OW67468   0.181   9.442   9.699 -0.5444  0.4061  0.6585
51830SOL    HW167469   0.173   9.425   9.605 -3.1741  0.2281  0.8646
51830SOL    HW267470   0.107   9.397   9.739  0.8265 -0.0078  2.9290
51831SOL     OW67471   2.737  11.184   5.693  0.7179 -0.0906 -0.3514
51831SOL    HW167472   2.743  11.120   5.622  2.2286  0.6541 -0.9403
51831SOL    HW267473   2.758  11.268   5.652  0.5299  0.5212  0.7504
51832SOL     OW67474  11.591   2.265   5.287 -0.4750  0.1420 -0.3521
51832SOL    HW167475  11.643   2.238   5.362 -0.8698 -3.1323 -1.1138
51832SOL    HW267476  11.567   2.356   5.306  1.3881  0.1886  2.3124
51833SOL     OW67477  11.988   0.094   2.748 -0.3330 -0.0334 -0.0566
51833SOL    HW167478  12.005   0.176   2.794  0.5620  0.1151 -0.6299
51833SOL    HW267479  12.061   0.085   2.686 -0.5972 -1.0886 -0.2420
51834SOL     OW67480   4.126  12.647  11.441  0.0728 -0.1203 -0.4736
51834SOL    HW167481   4.182  12.722  11.457 -0.0674 -0.2788  0.8630
51834SOL    HW267482   4.166  12.602  11.367  0.7098  0.7337 -0.6583
51835SOL     OW67483  12.997   9.203  12.928  0.1267 -0.1176  0.3962
51835SOL    HW167484  13.022   9.174  13.016  1.6702  0.1222  0.0606
51835SOL    HW267485  13.009   9.125  12.874  1.3883  0.3001  0.0251
51836SOL     OW67486  13.475  10.179   5.895 -0.0899  1.0704  0.2286
51836SOL    HW167487  13.411  10.240   5.932 -0.7851  1.7126 -1.8798
51836SOL    HW267488  13.533  10.234   5.842  0.1500  0.0986 -0.5563
51837SOL     OW67489  13.436  10.040   9.148  0.0613  0.1217 -0.4444
51837SOL    HW167490  13.457  10.098   9.222  0.5794  0.6555 -1.0051
51837SOL    HW267491  13.359  10.080   9.108 -0.0826 -0.0438 -0.3355
51838SOL     OW67492  10.869   3.490   8.481  0.6414  0.2686 -0.4292
51838SOL    HW167493  10.797   3.550   8.500 -1.2365 -1.3966 -1.8458
51838SOL    HW267494  10.868   3.480   8.386  0.1988 -2.7229 -0.1933
51839SOL     OW67495   0.109   5.078   7.054  0.7631  0.5636 -0.0630
51839SOL    HW167496   0.082   4.997   7.012  1.9938 -0.2399  0.6322
51839SOL    HW267497   0.183   5.109   7.003  0.9939  0.6551  0.3187
51840SOL     OW67498   2.580   4.153  11.098 -0.4614  0.2471  0.5298
51840SOL    HW167499   2.515   4.151  11.028  1.8086 -0.0038 -1.7272
51840SOL    HW267500   2.614   4.243  11.097  1.6435 -0.4915 -0.8182
51841SOL     OW67501   1.629   7.087   7.244  0.0170 -1.0532 -0.7086
51841SOL    HW167502   1.599   7.145   7.174 -1.7463 -1.1899 -0.1129
51841SOL    HW267503   1.676   7.017   7.199  1.3186  0.2740 -1.5085
51842SOL     OW67504   8.429   6.556   4.690  0.3168 -0.3695  0.2597
51842SOL    HW167505   8.439   6.503   4.770 -1.2249 -0.8560  0.1687
51842SOL    HW267506   8.356   6.515   4.644 -0.0743  1.0908 -0.4549
51843SOL     OW67507  10.805   7.191   5.763 -0.3215 -0.2898 -0.0359
51843SOL    HW167508  10.891   7.228   5.786 -0.8130  0.8135  0.0896
51843SOL    HW267509  10.817   7.096   5.771  0.2964 -0.0951  2.0838
51844SOL     OW67510   3.918   0.599   0.648 -0.6520 -0.1840  0.2852
51844SOL    HW167511   3.879   0.623   0.732  0.3847 -0.0659  0.7466
51844SOL    HW267512   3.847   0.610   0.585 -0.5937  2.9841  0.6182
51845SOL     OW67513  11.799   5.253   2.823  0.0220 -0.3615 -0.2976
51845SOL    HW167514  11.870   5.192   2.843 -0.1301 -0.2182  0.7222
51845SOL    HW267515  11.843   5.328   2.784  0.3035 -0.7486 -0.7383
51846SOL     OW67516   6.626   4.828  11.073  0.4486  0.8732 -0.3779
51846SOL    HW167517   6.613   4.825  11.167  1.5240 -0.0107 -0.2436
51846SOL    HW267518   6.546   4.789  11.037  1.2300 -1.5282  0.3062
51847SOL     OW67519  12.425   8.135  13.063 -0.0227 -0.1177  0.1385
51847SOL    HW167520  12.340   8.128  13.018 -0.8353  0.4035  1.5353
51847SOL    HW267521  12.475   8.197  13.010  0.3157 -1.9803 -1.8773
51848SOL     OW67522   3.386  10.771   6.124 -0.1577 -0.1588 -0.0941
51848SOL    HW167523   3.383  10.693   6.180 -2.2746  0.4426  0.7091
51848SOL    HW267524   3.435  10.835   6.175 -0.0275 -0.3630  0.0395
51849SOL     OW67525   5.022   6.308   9.004 -0.2106  0.4007  0.5943
51849SOL    HW167526   5.107   6.306   9.050  0.9731  0.1850 -1.4885
51849SOL    HW267527   5.018   6.395   8.966 -1.1773  0.5788  1.0971
51850SOL     OW67528   1.945   4.051   5.090 -0.3917  0.1192  0.0280
51850SOL    HW167529   1.860   4.007   5.098 -0.5364  0.5516  1.0294
51850SOL    HW267530   2.009   3.980   5.086 -0.7474 -0.1997 -0.0427
51851SOL     OW67531   6.118  10.134  13.679  0.3098  0.2976 -0.5043
51851SOL    HW167532   6.128  10.186  13.599  4.1422  1.1439  0.2936
51851SOL    HW267533   6.162  10.051  13.660  2.1445  0.8721  0.9063
51852SOL     OW67534   1.081  11.309   2.526 -0.0983 -0.3029  0.9090
51852SOL    HW167535   1.044  11.222   2.538  1.0661 -1.2183 -1.5181
51852SOL    HW267536   1.011  11.360   2.486 -0.3666 -0.4776  1.1533
51853SOL     OW67537   8.634   4.336   1.857  0.4089  0.1148 -0.0400
51853SOL    HW167538   8.653   4.427   1.882  0.0272  0.4082 -0.7751
51853SOL    HW267539   8.692   4.319   1.783 -1.0113  0.5004 -1.2992
51854SOL     OW67540   9.993   7.369   0.264 -0.0478 -0.4893 -0.6377
51854SOL    HW167541   9.903   7.350   0.291  1.0388 -2.2689  2.2619
51854SOL    HW267542  10.033   7.283   0.251  1.3044  0.2580 -1.6430
51855SOL     OW67543   9.251  12.450  12.227  0.1931 -0.1652 -0.6110
51855SOL    HW167544   9.296  12.373  12.261  1.8193  0.6388 -0.8606
51855SOL    HW267545   9.286  12.523  12.277 -0.2688  0.5833 -1.3435
51856SOL     OW67546   8.783   2.066   1.017  0.1924 -0.0089  0.2520
51856SOL    HW167547   8.839   2.091   0.943 -0.0581 -1.3846 -0.4426
51856SOL    HW267548   8.821   2.111   1.093  1.0401  0.6518 -0.5484
51857SOL     OW67549   3.913   0.500   9.095 -0.5595 -0.4261  0.2338
51857SOL    HW167550   3.990   0.531   9.142  0.0242 -0.1566 -0.8769
51857SOL    HW267551   3.942   0.488   9.005 -1.4577 -1.6508  0.0718
51858SOL     OW67552   8.780   3.442   0.589  0.1029 -0.4133  0.1554
51858SOL    HW167553   8.852   3.437   0.651 -0.6817 -0.3536  1.1032
51858SOL    HW267554   8.821   3.438   0.503  1.2219 -0.3937  0.6783
51859SOL     OW67555   9.716   5.593   6.095 -0.1436 -0.0618  0.0579
51859SOL    HW167556   9.670   5.624   6.173 -1.1752 -0.9034 -0.1832
51859SOL    HW267557   9.746   5.672   6.051  0.2584  0.4298  1.1876
51860SOL     OW67558  13.533   7.714  14.006  0.0302  0.2123  0.7504
51860SOL    HW167559  13.470   7.745  14.071  0.9216  1.2541  1.1334
51860SOL    HW267560  13.479   7.670  13.940 -0.8792 -1.1057  2.2946
51861SOL     OW67561  11.789   9.039   7.547  0.0005 -0.0018  0.0279
51861SOL    HW167562  11.841   9.071   7.621 -0.4807 -0.5608  0.6263
51861SOL    HW267563  11.733   9.112   7.523  1.7757  0.9886 -1.3312
51862SOL     OW67564   4.995  10.508  11.270  0.6341 -0.1807 -0.1139
51862SOL    HW167565   5.084  10.475  11.286  0.8873  0.5924  0.1338
51862SOL    HW267566   4.975  10.481  11.180  0.5390 -1.6197  0.3099
51863SOL     OW67567   6.252   2.272   1.087 -0.3084 -1.0669 -0.0063
51863SOL    HW167568   6.333   2.224   1.105  0.0961 -0.1297  0.7540
51863SOL    HW267569   6.262   2.304   0.998  0.1458 -0.9721  0.0807
51864SOL     OW67570   3.725   8.136  12.127  0.0153  0.0316 -0.7018
51864SOL    HW167571   3.745   8.048  12.096  0.6035 -0.2925  0.5343
51864SOL    HW267572   3.707   8.125  12.221  0.7233  1.3054 -0.3852
51865SOL     OW67573   7.638   4.930   5.613  0.6108 -0.5015  0.4349
51865SOL    HW167574   7.724   4.970   5.625  0.2070 -0.0159  1.9755
51865SOL    HW267575   7.645   4.846   5.659 -0.2511  0.3313  2.1925
51866SOL     OW67576  13.952  11.322   5.065 -0.2427 -0.7106 -0.2993
51866SOL    HW167577  14.012  11.327   4.990 -2.1241 -0.0312 -1.8591
51866SOL    HW267578  13.971  11.238   5.105  1.4536 -0.7000 -0.9747
51867SOL     OW67579  10.382   1.532   9.078  0.7915  0.0344  0.6473
51867SOL    HW167580  10.445   1.603   9.091  2.4535 -1.6267  2.2460
51867SOL    HW267581  10.396   1.504   8.988  0.4603  1.3764  0.1548
51868SOL     OW67582   4.376  10.416   6.174 -0.2006  0.1883  0.3829
51868SOL    HW167583   4.388  10.456   6.088 -0.9498  1.0524  0.6709
51868SOL    HW267584   4.295  10.366   6.167  0.9382 -1.7186 -0.1080
51869SOL     OW67585   4.587   6.963  13.081 -0.2398  0.1775  0.0966
51869SOL    HW167586   4.664   6.917  13.048 -0.8625 -0.9935  0.2276
51869SOL    HW267587   4.513   6.917  13.042 -0.9292  0.1059  1.4379
51870SOL     OW67588   2.495  10.795  11.052  0.4976  0.5352  0.2825
51870SOL    HW167589   2.523  10.831  10.967  0.9264  0.1971  0.2755
51870SOL    HW267590   2.567  10.739  11.078 -0.7047 -1.4011 -0.3469
51871SOL     OW67591   1.705   6.896   1.664  0.0122 -0.5485 -0.2148
51871SOL    HW167592   1.761   6.819   1.667  0.0867 -0.5462 -1.1306
51871SOL    HW267593   1.626   6.866   1.618  0.5082  0.1879 -1.6060
51872SOL     OW67594   3.842   0.690   0.904  0.0943 -0.2441  0.1544
51872SOL    HW167595   3.848   0.620   0.969 -0.4089  0.1504  0.6393
51872SOL    HW267596   3.919   0.745   0.921  0.0680 -0.2485  0.2881
51873SOL     OW67597   4.541  13.850  11.705 -0.4809 -0.5367 -0.2466
51873SOL    HW167598   4.452  13.885  11.713  0.1019  0.8662  0.2104
51873SOL    HW267599   4.551  13.793  11.781 -0.9122 -0.5485 -0.1961
51874SOL     OW67600   7.536   3.124   0.651  0.0303  0.0128  0.4591
51874SOL    HW167601   7.620   3.111   0.606  0.5261 -0.0914  1.4072
51874SOL    HW267602   7.471   3.113   0.582  0.8689  2.7254 -0.9110
51875SOL     OW67603   1.355   8.665   0.995 -0.3103  0.0121  0.1962
51875SOL    HW167604   1.365   8.639   0.904  0.1715 -0.2768  0.3266
51875SOL    HW267605   1.391   8.753   0.999  0.8435 -0.4472  0.3503
51876SOL     OW67606   3.117   3.367   5.083  0.4078 -0.7230 -0.3637
51876SOL    HW167607   3.150   3.318   5.159  0.6742 -1.7205 -1.0977
51876SOL    HW267608   3.022   3.361   5.089  0.3274  1.0668  1.0599
51877SOL     OW67609   1.679   3.267  11.959  0.1314 -0.1076  0.0445
51877SOL    HW167610   1.605   3.311  11.916 -0.3296 -0.6339  0.2782
51877SOL    HW267611   1.749   3.333  11.961 -0.2706  0.3390 -0.3465
51878SOL     OW67612   4.255  11.054   7.525  0.5580 -0.1851  0.0787
51878SOL    HW167613   4.227  11.034   7.614  1.9764  0.6523  0.7462
51878SOL    HW267614   4.341  11.095   7.535 -0.5213  2.8081 -1.4061
51879SOL     OW67615   4.101   8.271  11.425  0.4537 -0.0526 -0.1407
51879SOL    HW167616   4.109   8.233  11.337 -0.1897 -0.5980  0.0239
51879SOL    HW267617   4.044   8.347  11.414 -1.1382 -1.1656  0.0748
51880SOL     OW67618   0.718   3.394   8.747 -0.6642  0.0075  0.3058
51880SOL    HW167619   0.743   3.303   8.760 -1.4627 -0.4397 -1.0502
51880SOL    HW267620   0.723   3.407   8.652 -0.6284  1.3631  0.4667
51881SOL     OW67621  11.092   3.890   1.984 -0.4933 -0.2433  0.1963
51881SOL    HW167622  11.059   3.942   1.911  0.0095 -1.8419 -1.2209
51881SOL    HW267623  11.149   3.825   1.944  1.7394  0.2914  2.2264
51882SOL     OW67624   6.157   1.226   9.476 -0.2632  0.1425  0.1293
51882SOL    HW167625   6.119   1.242   9.562  0.5792  0.7239  0.4085
51882SOL    HW267626   6.128   1.137   9.453  1.3796 -0.9746  2.0720
51883SOL     OW67627   4.093   6.457   7.834 -0.0315  0.0947 -0.9117
51883SOL    HW167628   4.129   6.481   7.749  0.9817 -2.1312 -1.1882
51883SOL    HW267629   4.022   6.395   7.815 -0.8058  0.7200 -0.1736
51884SOL     OW67630  11.382   2.866   4.030  0.0609 -0.3016  0.5432
51884SOL    HW167631  11.372   2.795   3.967 -1.1605  0.1328  0.2141
51884SOL    HW267632  11.293   2.887   4.057  0.3533  1.3242  0.3708
51885SOL     OW67633   9.010  10.162  12.675  0.0181 -0.4075  0.0856
51885SOL    HW167634   9.013  10.224  12.748 -2.6392 -1.2733  1.0126
51885SOL    HW267635   8.979  10.214  12.601  0.7361  0.0050  0.0578
51886SOL     OW67636  13.130   3.948   7.930 -0.0817  0.1631 -0.2144
51886SOL    HW167637  13.129   3.876   7.867  0.6340  0.5718 -0.7018
51886SOL    HW267638  13.038   3.969   7.944 -0.2994 -0.7960 -0.1183
51887SOL     OW67639   8.789   0.419   2.265 -0.6701 -0.0936  0.4484
51887SOL    HW167640   8.756   0.484   2.327  1.2733 -0.0136  1.4778
51887SOL    HW267641   8.798   0.339   2.317 -1.4267 -0.7339 -0.3848
51888SOL     OW67642   5.329   3.995  12.897 -0.8609  0.6339 -0.2371
51888SOL    HW167643   5.414   3.995  12.853  0.0090 -0.5680  1.3419
51888SOL    HW267644   5.268   3.957  12.833 -0.0723  0.8214 -1.1127
51889SOL     OW67645   0.584  10.381  11.890  0.5093 -0.1167  0.1729
51889SOL    HW167646   0.602  10.473  11.869  1.0446 -0.1275  0.5880
51889SOL    HW267647   0.664  10.334  11.865  0.0072 -0.5643 -0.6385
51890SOL     OW67648   4.157  10.318  13.206  0.0130  0.6486  0.1719
51890SOL    HW167649   4.176  10.302  13.298 -1.2857 -1.0050  0.1919
51890SOL    HW267650   4.072  10.278  13.191 -0.2951  1.7935 -1.5197
51891SOL     OW67651   4.545   5.108   9.303 -0.1760  0.3726  0.0864
51891SOL    HW167652   4.516   5.024   9.269 -0.9160  1.1434 -1.2644
51891SOL    HW267653   4.467   5.147   9.343  0.7564 -0.6853  3.1953
51892SOL     OW67654  12.389   7.291   2.979 -0.2131 -0.3233 -0.1752
51892SOL    HW167655  12.421   7.312   3.067 -1.7727 -0.3618  0.4407
51892SOL    HW267656  12.445   7.342   2.921 -2.0013  3.5376  1.1110
51893SOL     OW67657  13.021   1.182   4.526  0.1695  0.2042 -0.6340
51893SOL    HW167658  13.076   1.200   4.449  1.0725  3.3514  0.6303
51893SOL    HW267659  13.028   1.087   4.537  1.5521 -0.1175 -3.2750
51894SOL     OW67660   5.497  11.551  10.633  0.2066  0.0326  0.5354
51894SOL    HW167661   5.421  11.499  10.604 -0.0022 -0.8325  2.5240
51894SOL    HW267662   5.463  11.606  10.703  1.3989 -0.3757  1.4655
51895SOL     OW67663   9.225  11.174   7.828  0.0207  0.4936  0.0501
51895SOL    HW167664   9.272  11.098   7.859 -0.4601  0.1227 -0.1144
51895SOL    HW267665   9.289  11.222   7.774  0.5758  0.6674  0.8464
51896SOL     OW67666   7.160   8.787   7.009 -0.1425  0.2998 -0.4766
51896SOL    HW167667   7.214   8.725   6.961 -0.9564  0.5312 -1.7535
51896SOL    HW267668   7.137   8.742   7.090  1.3784 -0.0473 -0.2056
51897SOL     OW67669   0.600   8.639   8.950 -0.0035 -0.0624 -0.2711
51897SOL    HW167670   0.577   8.547   8.956 -0.4597  0.0840  0.4762
51897SOL    HW267671   0.695   8.641   8.959  0.1929 -0.5712 -1.9678
51898SOL     OW67672  12.076  10.614   0.567  0.2442  0.5190  0.3494
51898SOL    HW167673  12.107  10.585   0.481 -0.5117 -0.6528  0.4489
51898SOL    HW267674  12.149  10.665   0.603  1.2536 -0.4665 -0.2483
51899SOL     OW67675   3.097   9.856   8.804 -0.3847 -0.1377  0.0037
51899SOL    HW167676   3.070   9.854   8.896 -1.4424  0.3213 -0.2803
51899SOL    HW267677   3.138   9.771   8.789  2.5568  0.8330  1.6632
51900SOL     OW67678  12.589   6.068   0.413 -0.6502  0.3043  0.6169
51900SOL    HW167679  12.597   5.978   0.385  1.8438 -0.1720  2.4575
51900SOL    HW267680  12.517   6.104   0.362 -2.4641 -3.0013  0.6023
51901SOL     OW67681   2.311   4.586   9.028  0.0078  0.2033 -0.0301
51901SOL    HW167682   2.269   4.535   9.097 -0.7452 -0.9186 -1.2790
51901SOL    HW267683   2.239   4.631   8.983  0.2168 -0.7537 -1.3962
51902SOL     OW67684   0.327   8.533   3.842 -0.4973 -0.1863  0.1985
51902SOL    HW167685   0.371   8.558   3.924 -0.5185  0.9625 -0.1179
51902SOL    HW267686   0.234   8.542   3.861 -0.5415 -0.9673  0.3634
51903SOL     OW67687   9.877   9.960  12.011  0.1265  0.1491 -0.0636
51903SOL    HW167688   9.818   9.957  12.087  1.6192 -0.0795  1.1386
51903SOL    HW267689   9.878  10.052  11.985 -2.1310 -0.1005 -1.2844
51904SOL     OW67690  10.189  11.984   4.157 -0.0481  0.1228 -0.1413
51904SOL    HW167691  10.271  12.017   4.196 -0.6422  0.3823  0.9267
51904SOL    HW267692  10.217  11.910   4.103  0.6347 -1.8984  2.7043
51905SOL     OW67693   6.188   2.830   6.241  0.0207 -0.1727  0.4562
51905SOL    HW167694   6.207   2.827   6.147 -0.3086  0.6281  0.3618
51905SOL    HW267695   6.136   2.751   6.257 -0.3857 -0.0327 -0.1418
51906SOL     OW67696   8.960   2.602   7.218  0.0686  0.5916  0.1257
51906SOL    HW167697   8.871   2.633   7.234 -0.2271  0.5135 -1.2010
51906SOL    HW267698   8.966   2.520   7.267 -1.3804 -0.5479 -1.4533
51907SOL     OW67699   0.798  12.897  11.959 -0.5867  0.5974  0.7254
51907SOL    HW167700   0.857  12.851  12.020 -0.5023  2.1586  1.9096
51907SOL    HW267701   0.711  12.868  11.984 -0.5034  0.6726  1.1239
51908SOL     OW67702  10.649   1.175   4.725  0.1629 -0.1131 -0.0689
51908SOL    HW167703  10.592   1.249   4.706 -1.8155 -1.4492  0.3040
51908SOL    HW267704  10.668   1.182   4.819  0.4740  0.2192 -0.1527
51909SOL     OW67705  13.965   6.650  10.949  0.0722  0.9765 -0.1021
51909SOL    HW167706  13.895   6.664  11.013 -1.0904  0.9341 -1.3045
51909SOL    HW267707  13.924   6.671  10.865  1.4317  0.6436 -0.8730
51910SOL     OW67708  10.992   4.129   4.573  0.3496  0.4332  0.7082
51910SOL    HW167709  10.898   4.136   4.561  0.7051  1.6050 -2.2069
51910SOL    HW267710  11.029   4.163   4.492  3.2886 -0.6254  1.4793
51911SOL     OW67711   4.724  10.100  12.014 -0.2326  0.5889  0.7743
51911SOL    HW167712   4.775  10.128  12.090  0.1767  0.3668  0.5845
51911SOL    HW267713   4.778  10.033  11.972 -0.4616  0.6947  0.2980
51912SOL     OW67714   8.904   9.867  10.367  0.1158 -0.4410  0.1920
51912SOL    HW167715   8.819   9.833  10.339 -0.5855  1.3780 -0.0611
51912SOL    HW267716   8.885   9.913  10.449  0.3710  1.8214 -0.9482
51913SOL     OW67717  12.883   1.451   9.647  0.7084  0.0616 -0.3370
51913SOL    HW167718  12.939   1.528   9.656 -0.2238  0.8006 -0.7177
51913SOL    HW267719  12.905   1.397   9.723  2.0791  0.2193 -0.5881
51914SOL     OW67720  13.219  10.701  11.490  0.6056 -0.2086 -0.0195
51914SOL    HW167721  13.176  10.665  11.413 -0.8210  0.7230  0.3069
51914SOL    HW267722  13.228  10.795  11.472  1.0901 -0.1355  0.5573
51915SOL     OW67723   5.243   0.611   9.915 -0.6129  0.2498 -0.2854
51915SOL    HW167724   5.319   0.599   9.857 -0.3506  2.0861 -0.3786
51915SOL    HW267725   5.236   0.528   9.962  2.2573  0.4169  0.6380
51916SOL     OW67726  13.019   6.578   6.826  0.4667 -0.0058  0.1460
51916SOL    HW167727  12.938   6.612   6.863 -0.9046 -0.4024 -2.2847
51916SOL    HW267728  13.008   6.586   6.731  2.4129 -2.0023 -0.3407
51917SOL     OW67729  11.331   9.394   5.576 -0.5076  0.1632 -0.0746
51917SOL    HW167730  11.404   9.336   5.556  0.0202  0.1922  1.6667
51917SOL    HW267731  11.254   9.337   5.572 -0.0255 -0.6393  1.3050
51918SOL     OW67732  12.785  11.687  13.370 -0.3623 -0.1135 -0.8022
51918SOL    HW167733  12.847  11.719  13.304  1.1459 -0.9039  0.1816
51918SOL    HW267734  12.789  11.752  13.441 -0.7337 -0.1282 -0.7625
51919SOL     OW67735   5.116   4.716  12.384  0.3387  0.1925 -0.1291
51919SOL    HW167736   5.114   4.767  12.465  1.5990 -2.9860  2.0848
51919SOL    HW267737   5.199   4.738  12.344  0.1819  0.9993 -0.0294
51920SOL     OW67738   1.665  12.548   3.099 -0.0911  0.1744 -0.2839
51920SOL    HW167739   1.649  12.523   3.191 -0.5824  1.4469 -0.0046
51920SOL    HW267740   1.683  12.465   3.055  0.5739 -0.4235  1.0453
51921SOL     OW67741   1.802   4.047   4.637 -0.1826 -0.4305  0.3436
51921SOL    HW167742   1.742   3.977   4.665 -0.1343  0.4481  2.7993
51921SOL    HW267743   1.874   4.000   4.594 -0.7008 -1.8069  0.8993
51922SOL     OW67744   2.564   1.676   3.041  0.2469 -0.3572 -0.0807
51922SOL    HW167745   2.536   1.591   3.075 -1.6755 -0.1776 -1.0505
51922SOL    HW267746   2.574   1.662   2.947  1.1400  0.1977 -0.0778
51923SOL     OW67747   5.442  13.480  13.146  0.2661  0.0565 -0.0898
51923SOL    HW167748   5.459  13.439  13.231  0.2622 -0.1664 -0.1947
51923SOL    HW267749   5.366  13.536  13.162 -0.3831 -0.7791 -0.1912
51924SOL     OW67750   6.980   3.037   2.274 -0.5651 -0.1637  0.2949
51924SOL    HW167751   6.982   3.063   2.366 -2.3586  0.3604  0.2138
51924SOL    HW267752   6.930   2.955   2.274 -0.1256 -0.4396 -0.1744
51925SOL     OW67753   7.076   7.184   4.488  0.2812 -0.0868 -0.2382
51925SOL    HW167754   7.146   7.181   4.552 -0.1366  0.7673  0.2745
51925SOL    HW267755   7.110   7.137   4.412  1.4478  0.4344 -0.0472
51926SOL     OW67756   7.485   2.282   8.763 -0.6235 -0.0457  0.1038
51926SOL    HW167757   7.418   2.280   8.832 -0.5264  2.2974  0.3498
51926SOL    HW267758   7.495   2.375   8.741  2.5133 -0.2632  0.0477
51927SOL     OW67759   6.269   2.546   3.861 -0.6340  0.2501 -0.0911
51927SOL    HW167760   6.209   2.516   3.793  2.5284  1.4723 -3.7981
51927SOL    HW267761   6.259   2.641   3.862 -1.1743  0.2309  1.8984
51928SOL     OW67762   6.626   4.057   7.291 -0.5090  0.0393 -0.0207
51928SOL    HW167763   6.628   4.024   7.201 -0.6490 -0.2343  0.0782
51928SOL    HW267764   6.633   4.152   7.281  0.1604 -0.0306 -0.2918
51929SOL     OW67765   2.809  12.502   6.134 -1.0379 -0.3507 -0.0722
51929SOL    HW167766   2.902  12.493   6.114 -0.3740  3.6296  0.3618
51929SOL    HW267767   2.800  12.465   6.222  1.0365  2.2747  1.3905
51930SOL     OW67768   3.454   2.356  11.382  0.3116 -0.0276  0.3015
51930SOL    HW167769   3.413   2.435  11.418  0.4772  0.8202 -1.2613
51930SOL    HW267770   3.382   2.308  11.341  0.1662 -0.8484  1.4923
51931SOL     OW67771   2.101   6.923   4.467 -0.2433  0.0608 -0.2585
51931SOL    HW167772   2.070   6.834   4.482 -0.8882  0.3043 -0.1472
51931SOL    HW267773   2.147   6.947   4.548 -0.0346 -0.1809 -0.3050
51932SOL     OW67774   0.099   3.384   7.333  0.3889 -0.3391  0.6352
51932SOL    HW167775   0.071   3.336   7.411  1.1609 -0.0940  1.0694
51932SOL    HW267776   0.126   3.469   7.366 -1.2680  0.5558 -0.1605
51933SOL     OW67777   8.066   0.029   7.968 -0.2098  0.2690  0.0406
51933SOL    HW167778   8.107   0.009   7.883  1.1850  3.9009 -0.3230
51933SOL    HW267779   8.139   0.037   8.029 -1.1716 -1.8444  1.6114
51934SOL     OW67780  11.561   9.951   2.567  0.1138 -0.3922 -0.6215
51934SOL    HW167781  11.529  10.010   2.636  1.0738 -0.7569  0.1518
51934SOL    HW267782  11.622  10.005   2.516  0.5041 -0.5219 -0.2999
51935SOL     OW67783   1.582   7.052  12.075 -0.3899 -0.2023  0.0018
51935SOL    HW167784   1.570   7.018  11.986  0.0832 -1.1455  0.2784
51935SOL    HW267785   1.494   7.047  12.114 -0.8090  1.1794 -0.7160
51936SOL     OW67786   4.268   5.836  12.532 -0.5145  0.0012  0.0208
51936SOL    HW167787   4.259   5.913  12.476  2.4875 -1.1473 -2.2718
51936SOL    HW267788   4.343   5.856  12.589 -0.7124 -0.6465  0.5247
51937SOL     OW67789  11.132  13.025   1.731  0.0748  0.3131 -0.6314
51937SOL    HW167790  11.146  12.949   1.787  1.4815 -0.0097 -1.3634
51937SOL    HW267791  11.160  12.996   1.644  1.1265  1.7880 -0.8371
51938SOL     OW67792   6.039   2.857   5.999  0.0521 -0.4318 -0.4255
51938SOL    HW167793   6.006   2.886   5.914  1.3700 -0.5914 -1.0147
51938SOL    HW267794   5.966   2.808   6.037 -0.9173  0.5048 -1.0049
51939SOL     OW67795  13.259  13.424   4.952 -0.4611  0.6190 -0.1828
51939SOL    HW167796  13.261  13.482   5.028  1.4632 -0.2762  0.4993
51939SOL    HW267797  13.277  13.481   4.877 -2.4152  1.5128 -0.0373
51940SOL     OW67798  11.733   5.219   6.674 -0.1580  0.2176  0.0736
51940SOL    HW167799  11.700   5.187   6.590 -0.1999 -0.6257  0.3949
51940SOL    HW267800  11.781   5.299   6.652  0.5587 -0.4401 -0.8818
51941SOL     OW67801   2.182  13.882  13.970 -0.6126  0.6808 -0.3022
51941SOL    HW167802   2.144  13.963  14.004  0.3019  0.9638  0.0820
51941SOL    HW267803   2.210  13.903  13.882 -2.3470  0.1438 -1.0364
51942SOL     OW67804   1.347   2.708   5.187 -0.1012 -0.4891  0.1056
51942SOL    HW167805   1.287   2.772   5.226  0.2699  0.5521 -0.9763
51942SOL    HW267806   1.337   2.720   5.093 -0.5139 -2.5211 -0.1693
51943SOL     OW67807   7.353  10.350   8.581 -0.1378 -0.0008  0.0493
51943SOL    HW167808   7.296  10.307   8.644 -0.9900 -1.1357 -1.4122
51943SOL    HW267809   7.392  10.278   8.530 -0.2878  0.8796 -1.3807
51944SOL     OW67810   7.739   8.621  10.195 -0.2342 -0.1888 -0.0641
51944SOL    HW167811   7.665   8.606  10.136 -0.9767  2.6021  0.0224
51944SOL    HW267812   7.702   8.669  10.269  1.4584  0.2523  0.5403
51945SOL     OW67813  12.385   0.828   1.419 -0.2710 -0.5140  0.3162
51945SOL    HW167814  12.446   0.902   1.416  0.5412 -0.9254 -5.2799
51945SOL    HW267815  12.429   0.762   1.472  2.1209  0.7652  0.0705
51946SOL     OW67816   9.563   6.089  12.604  0.5887 -0.0433  0.6635
51946SOL    HW167817   9.599   6.065  12.689 -1.9765  1.7781  2.4049
51946SOL    HW267818   9.534   6.180  12.615 -0.9780 -0.1753 -1.7529
51947SOL     OW67819   6.544   1.368  13.031 -0.0664 -0.2017 -0.0609
51947SOL    HW167820   6.639   1.376  13.043 -0.2429  0.5234  0.9275
51947SOL    HW267821   6.533   1.357  12.936  0.8185  2.7439 -0.6088
51948SOL     OW67822   8.664   8.246  12.959 -0.1298  0.2421  0.1054
51948SOL    HW167823   8.618   8.307  12.901  1.8487  2.5311  0.7555
51948SOL    HW267824   8.651   8.282  13.047  2.3916  0.7319  0.3503
51949SOL     OW67825   5.157   9.527   9.405 -0.0343 -0.5830 -0.7822
51949SOL    HW167826   5.089   9.583   9.367 -0.1087 -0.0105  0.1813
51949SOL    HW267827   5.132   9.439   9.378 -1.0165 -0.3550 -0.6649
51950SOL     OW67828  13.779   4.654   1.869  0.2100  0.3964  0.5166
51950SOL    HW167829  13.821   4.634   1.953  0.9463 -0.7494 -0.0846
51950SOL    HW267830  13.694   4.610   1.874  0.1190  0.6003  0.7808
51951SOL     OW67831   0.108   9.743   0.511 -0.6995 -0.0070  0.2038
51951SOL    HW167832   0.026   9.792   0.509 -0.5531  0.3561  1.8874
51951SOL    HW267833   0.098   9.681   0.583  0.3528 -0.2429  0.1742
51952SOL     OW67834   0.464   4.225   0.838  0.0130  0.2078 -0.6091
51952SOL    HW167835   0.480   4.156   0.773 -0.0079  2.4210 -3.1353
51952SOL    HW267836   0.549   4.242   0.878  0.5711  0.5182 -1.9034
51953SOL     OW67837   2.629  12.064   3.016 -0.1418 -0.2085  0.5894
51953SOL    HW167838   2.677  11.981   3.016  0.0650 -0.0919  0.7995
51953SOL    HW267839   2.676  12.118   2.952 -1.0226 -0.6657 -0.4858
51954SOL     OW67840   3.906   5.493  11.459  0.0791 -0.3980  0.5285
51954SOL    HW167841   3.946   5.425  11.513 -1.0358 -0.6276  1.0836
51954SOL    HW267842   3.884   5.448  11.377  1.5089 -0.1161 -0.0485
51955SOL     OW67843   7.455   5.255   0.714  0.3309 -0.0678 -0.2110
51955SOL    HW167844   7.538   5.270   0.668 -0.4443  0.7417 -1.4013
51955SOL    HW267845   7.431   5.340   0.750  0.5386 -0.5330  1.0966
51956SOL     OW67846  10.529   4.502  12.903  0.3071 -0.3983 -0.6855
51956SOL    HW167847  10.482   4.418  12.906  0.3314 -0.4953 -2.0304
51956SOL    HW267848  10.554   4.519  12.993 -1.1747 -0.9984 -0.1289
51957SOL     OW67849  10.998   7.037   8.755 -0.0757  0.8945  0.0842
51957SOL    HW167850  10.918   6.984   8.761 -0.3407  1.1817 -0.8084
51957SOL    HW267851  10.990   7.100   8.827  0.1389 -0.1215  1.0157
51958SOL     OW67852   4.506   1.778   6.851  0.0713 -1.0061  0.3061
51958SOL    HW167853   4.460   1.790   6.934  0.8469  2.1776  0.3859
51958SOL    HW267854   4.440   1.799   6.785  0.6035  0.9669  0.3388
51959SOL     OW67855   9.429  10.338   4.232  0.0017  0.6798 -0.3111
51959SOL    HW167856   9.517  10.354   4.200  1.0827  0.0827  2.1144
51959SOL    HW267857   9.390  10.279   4.168  2.1329 -0.7516 -0.3794
51960SOL     OW67858  11.461   3.939   9.120 -0.3912 -0.1855 -0.2170
51960SOL    HW167859  11.417   3.905   9.198  0.8412 -0.1410  0.5350
51960SOL    HW267860  11.515   4.011   9.152 -1.4524  1.2180 -1.4769
51961SOL     OW67861  13.371   3.465  12.132  0.2360 -0.1642 -0.3843
51961SOL    HW167862  13.306   3.498  12.070 -0.0554 -0.0959 -0.0490
51961SOL    HW267863  13.332   3.480  12.218  1.5998  1.8894 -0.0412
51962SOL     OW67864   2.818  13.451   2.251 -0.1665  0.0921  0.0302
51962SOL    HW167865   2.904  13.489   2.270  0.5036 -1.2953 -0.0751
51962SOL    HW267866   2.773  13.518   2.199  0.9967  0.6998 -0.2334
51963SOL     OW67867   4.040   9.257  13.244 -0.1443  0.4220 -0.2965
51963SOL    HW167868   4.061   9.342  13.283 -0.7553  0.0028  0.9891
51963SOL    HW267869   3.982   9.278  13.172 -0.6847  1.0688  0.3153
51964SOL     OW67870   9.282   0.980  10.495 -0.3570  0.1226  0.3219
51964SOL    HW167871   9.257   0.888  10.490  0.0607  0.0149  0.1895
51964SOL    HW267872   9.225   1.024  10.433 -2.4836  0.3820  2.3345
51965SOL     OW67873   2.277  13.054   9.134 -0.1177  0.3635 -0.2742
51965SOL    HW167874   2.205  12.991   9.127  1.0147 -1.6198  3.0286
51965SOL    HW267875   2.291  13.063   9.229  3.1363  1.6193 -0.7380
51966SOL     OW67876   2.243   7.282  11.776 -0.9012  0.4627  0.6416
51966SOL    HW167877   2.210   7.371  11.790 -1.2226  0.5383 -0.4601
51966SOL    HW267878   2.194   7.250  11.700  0.8337  0.2322 -0.4477
51967SOL     OW67879  13.802  11.793  10.623 -0.2504  0.0974 -0.5096
51967SOL    HW167880  13.873  11.844  10.663 -1.0017  0.3289  0.5498
51967SOL    HW267881  13.842  11.755  10.545  1.3335 -0.6219  0.6078
51968SOL     OW67882   8.670   1.951   2.382  0.4473  0.2157  0.0257
51968SOL    HW167883   8.675   1.948   2.287 -4.0092  1.6876 -0.4661
51968SOL    HW267884   8.650   1.861   2.408  2.0660 -0.2707 -0.2968
51969SOL     OW67885   5.545   7.359  12.922  0.5213 -0.1288  0.2149
51969SOL    HW167886   5.567   7.332  13.011  1.2516 -0.4639 -0.0545
51969SOL    HW267887   5.620   7.413  12.895 -0.5166  1.4871  0.4398
51970SOL     OW67888   0.444  10.060   8.388 -0.0467 -0.7022  0.3702
51970SOL    HW167889   0.523  10.068   8.441  0.4083 -1.4696 -0.1702
51970SOL    HW267890   0.473  10.073   8.298 -0.2973 -2.1343  0.0483
51971SOL     OW67891   0.105   9.328  11.599  0.0424  0.2840 -0.0704
51971SOL    HW167892   0.069   9.325  11.511 -0.9650 -0.2398  0.3426
51971SOL    HW267893   0.037   9.372  11.651  1.9075  3.5600 -0.1110
51972SOL     OW67894   8.884   5.583   2.088 -0.4583 -0.0221 -0.0240
51972SOL    HW167895   8.922   5.666   2.058  0.4946 -0.5814 -0.4007
51972SOL    HW267896   8.947   5.550   2.151 -0.0103 -1.2362 -1.0669
51973SOL     OW67897   8.045   6.944   6.279 -0.2011  0.1842 -0.5375
51973SOL    HW167898   7.996   6.906   6.353 -0.1617  0.3055 -0.4486
51973SOL    HW267899   8.135   6.917   6.294  0.1357  1.7680  0.4857
51974SOL     OW67900   5.935  12.650  12.536  0.1500 -0.4665  0.6597
51974SOL    HW167901   5.957  12.620  12.448  1.2150 -2.8509  1.6245
51974SOL    HW267902   5.860  12.708  12.524  0.1404 -0.8665 -1.7721
51975SOL     OW67903   0.459   5.051  12.406 -0.5266  0.1594 -0.1497
51975SOL    HW167904   0.493   5.132  12.368  0.6924 -0.6837 -0.9537
51975SOL    HW267905   0.474   4.985  12.338 -0.6222 -0.9178  0.8421
51976SOL     OW67906  10.174  13.475  10.774 -0.3161 -0.0981  0.1102
51976SOL    HW167907  10.164  13.502  10.682 -1.3472 -1.9005 -0.3556
51976SOL    HW267908  10.190  13.557  10.821  1.1836  0.7900 -1.7787
51977SOL     OW67909   2.907   2.182  10.273 -0.4495 -0.1787  0.5356
51977SOL    HW167910   2.993   2.189  10.316  0.3390  0.1042 -1.0325
51977SOL    HW267911   2.850   2.236  10.327  1.0073  1.9862  0.0675
51978SOL     OW67912  12.750   0.306   9.584  0.0616 -0.1458 -0.6110
51978SOL    HW167913  12.686   0.241   9.612 -0.8740  0.9701 -0.1002
51978SOL    HW267914  12.801   0.324   9.663 -0.1193  0.2461 -0.5860
51979SOL     OW67915  10.180   4.328   9.219 -0.2239  0.2404  0.3380
51979SOL    HW167916  10.216   4.339   9.131  0.2034 -2.8780  0.0069
51979SOL    HW267917  10.089   4.355   9.212 -0.8836 -2.1408 -1.7777
51980SOL     OW67918  10.383  11.939   9.794 -0.2845  0.1568 -0.4420
51980SOL    HW167919  10.390  11.861   9.848  0.3013  0.6524  0.2324
51980SOL    HW267920  10.290  11.958   9.790 -0.4438 -0.6665 -0.7543
51981SOL     OW67921   2.514   1.045   3.538  0.3744  0.5252  0.1239
51981SOL    HW167922   2.448   1.086   3.593 -0.1844  0.9813 -0.8675
51981SOL    HW267923   2.577   1.008   3.600  0.6818  2.5004  1.0669
51982SOL     OW67924  12.808   5.582  12.002 -0.1616 -0.1892  0.0638
51982SOL    HW167925  12.731   5.527  12.017  1.5189 -2.6815  0.1293
51982SOL    HW267926  12.856   5.537  11.932  1.3278  1.1890  0.1582
51983SOL     OW67927   7.058   5.287   8.184 -0.2380  0.2095 -0.3086
51983SOL    HW167928   7.005   5.363   8.208 -2.9342 -1.8356  0.8105
51983SOL    HW267929   7.060   5.288   8.088 -1.6819  0.7793 -0.3552
51984SOL     OW67930   5.236   7.048   0.464  0.3354 -0.2642 -0.1272
51984SOL    HW167931   5.243   7.026   0.557  2.0953  0.7016  0.0078
51984SOL    HW267932   5.251   6.966   0.418  2.4688 -0.2475  0.4299
51985SOL     OW67933   7.680   3.588   7.281 -0.0675  0.3159 -0.3380
51985SOL    HW167934   7.745   3.519   7.270 -0.3175 -0.2799  1.6002
51985SOL    HW267935   7.597   3.542   7.291 -0.4677  0.9785 -0.5258
51986SOL     OW67936   2.767   9.117   8.992  0.3733 -0.3997 -0.5559
51986SOL    HW167937   2.739   9.030   8.963  1.1191 -0.3637 -1.4187
51986SOL    HW267938   2.690   9.172   8.976  0.4106 -0.5989 -1.4791
51987SOL     OW67939   5.560   7.633   9.779  0.4349 -0.0060  0.2408
51987SOL    HW167940   5.505   7.685   9.838 -0.4873  0.4930 -1.0188
51987SOL    HW267941   5.501   7.606   9.709  1.8448  0.8194 -1.3399
51988SOL     OW67942   3.707   1.865  10.579 -0.0923  0.0701 -0.7992
51988SOL    HW167943   3.773   1.931  10.555  1.1623 -0.1374  1.8007
51988SOL    HW267944   3.647   1.912  10.637 -0.4445 -0.5358 -0.6718
51989SOL     OW67945  12.146  10.446  11.681 -0.5917 -0.2967 -0.7533
51989SOL    HW167946  12.158  10.538  11.705 -1.1215 -0.3771 -0.1465
51989SOL    HW267947  12.071  10.446  11.622 -2.4871 -0.6263  1.5110
51990SOL     OW67948   6.471   5.223  13.796 -0.0402 -0.2581 -0.1831
51990SOL    HW167949   6.506   5.300  13.752 -1.3914 -0.0679 -0.9746
51990SOL    HW267950   6.523   5.215  13.876  1.9943 -0.1936 -1.4356
51991SOL     OW67951   8.440   3.215   6.802  0.6976  0.0649 -0.1803
51991SOL    HW167952   8.452   3.125   6.772 -1.9544 -1.6828  3.3151
51991SOL    HW267953   8.348   3.220   6.828  1.3615  2.9852  2.1962
51992SOL     OW67954   5.040   3.723   0.926  0.0513  0.3830  0.1013
51992SOL    HW167955   5.016   3.814   0.910  0.7095  0.6536  0.5944
51992SOL    HW267956   4.959   3.681   0.956 -0.7167  0.3334 -1.9314
51993SOL     OW67957  11.043   0.053  12.946  0.5737 -0.0376 -0.3451
51993SOL    HW167958  11.095   0.130  12.923  0.6302 -0.1792 -0.7050
51993SOL    HW267959  11.021   0.014  12.861  0.8797 -0.6392 -0.1493
51994SOL     OW67960   0.570   1.192  11.284  0.2028  0.5747 -0.2697
51994SOL    HW167961   0.592   1.140  11.206  1.1131 -0.2284  0.4992
51994SOL    HW267962   0.480   1.166  11.305  0.6968 -0.8619  0.2048
51995SOL     OW67963   9.596   9.084  10.114  0.2074  0.5675  0.1043
51995SOL    HW167964   9.541   9.073  10.191 -1.7921  1.3756 -1.1220
51995SOL    HW267965   9.556   9.157  10.066  2.7690  1.6460 -0.5414
51996SOL     OW67966   0.014  13.418   2.719 -0.3141  0.0882 -0.2302
51996SOL    HW167967  -0.071  13.409   2.676 -0.7142 -1.0483  0.7354
51996SOL    HW267968   0.021  13.341   2.775 -0.0569  1.6927  2.1256
51997SOL     OW67969  13.629  11.844  11.999 -0.0055  0.8240 -0.6083
51997SOL    HW167970  13.593  11.788  12.068  1.8726 -0.8622 -0.9039
51997SOL    HW267971  13.554  11.864  11.943 -0.8635 -0.9860 -0.1873
51998SOL     OW67972  12.445  11.462   4.207 -0.3310  0.2014  0.0137
51998SOL    HW167973  12.508  11.390   4.211  2.8973  2.7403 -0.6064
51998SOL    HW267974  12.446  11.499   4.296  2.1824  2.4856 -0.8004
51999SOL     OW67975   7.860  10.359  10.973  0.3133 -0.5051 -0.1424
51999SOL    HW167976   7.856  10.352  10.877  0.6671  0.8106 -0.2821
51999SOL    HW267977   7.889  10.273  11.003  0.3005 -0.9006 -1.2338
52000SOL     OW67978   5.553   0.030   4.126  0.3874 -0.3666  0.9307
52000SOL    HW167979   5.463   0.026   4.157  0.0252  1.5016  0.2605
52000SOL    HW267980   5.587   0.111   4.162  1.3938 -0.4130  0.1172
52001SOL     OW67981  10.670   2.663   4.891 -0.2957 -0.1551 -0.3994
52001SOL    HW167982  10.697   2.732   4.951  0.4912 -1.2795  0.5860
52001SOL    HW267983  10.729   2.672   4.816  0.3728 -0.2871  0.1051
52002SOL     OW67984   5.339   3.989   4.727  0.9607 -0.0865  0.2419
52002SOL    HW167985   5.270   3.923   4.716  1.9710 -1.2218  0.3946
52002SOL    HW267986   5.299   4.057   4.781  0.1268 -0.9822  0.7935
52003SOL     OW67987   4.178   3.317   0.516 -0.0259  0.7695 -0.3393
52003SOL    HW167988   4.118   3.341   0.445  1.0631 -0.5446 -1.7690
52003SOL    HW267989   4.122   3.276   0.582 -0.7385 -0.7004 -1.7682
52004SOL     OW67990  12.224   3.079  13.607  0.2719 -0.1994  0.0752
52004SOL    HW167991  12.268   3.157  13.641  1.2149 -0.3696 -0.7074
52004SOL    HW267992  12.131   3.095  13.624  0.2430  1.8708 -1.5161
52005SOL     OW67993   1.335  13.623   5.281 -0.0778 -0.5222  0.1210
52005SOL    HW167994   1.336  13.644   5.375  0.7770 -2.1505  0.5064
52005SOL    HW267995   1.344  13.528   5.278  0.3768 -0.4433 -1.6408
52006SOL     OW67996   3.102  11.693  11.862  0.6572 -0.5364 -0.3013
52006SOL    HW167997   3.028  11.753  11.851 -0.0260 -0.9784  1.4856
52006SOL    HW267998   3.171  11.746  11.901 -0.5426 -1.1688  2.9679
52007SOL     OW67999   9.668   6.337   6.100  0.1894 -0.1163 -0.5866
52007SOL    HW168000   9.587   6.382   6.077  0.7015 -0.8806 -4.4874
52007SOL    HW268001   9.734   6.406   6.100 -0.1678  0.2740  1.2034
52008SOL     OW68002   3.607   3.926   9.263 -0.1646 -0.4283 -0.1487
52008SOL    HW168003   3.695   3.938   9.299  0.1089 -0.6915 -0.7195
52008SOL    HW268004   3.573   3.848   9.306  1.6717 -3.1797 -3.2119
52009SOL     OW68005   8.352   4.874  13.450 -0.1411  0.0946  0.7624
52009SOL    HW168006   8.314   4.961  13.463 -0.4597 -0.0249  0.6622
52009SOL    HW268007   8.290   4.815  13.494  0.4310 -0.0214  1.4352
52010SOL     OW68008  12.900   3.360  13.882  0.3918  0.1470 -0.0053
52010SOL    HW168009  12.939   3.413  13.813 -1.3978  1.3167 -0.1551
52010SOL    HW268010  12.870   3.280  13.838  1.4002 -0.1902 -0.1115
52011SOL     OW68011   2.716   5.336  13.608 -0.9000 -0.5053 -0.4868
52011SOL    HW168012   2.629   5.333  13.647 -1.1070  2.9716 -0.3966
52011SOL    HW268013   2.701   5.330  13.514 -1.3447  0.6984 -0.5092
52012SOL     OW68014   1.063   7.938   0.884  0.1800  0.1640  0.4723
52012SOL    HW168015   0.994   7.890   0.929  0.6854 -0.3994  0.6604
52012SOL    HW268016   1.029   8.027   0.876 -0.9535 -0.3197 -0.2808
52013SOL     OW68017   1.214   6.893   9.946  0.5008  0.2094 -0.4429
52013SOL    HW168018   1.150   6.949   9.903  0.3132 -0.3113 -0.8589
52013SOL    HW268019   1.165   6.814   9.970  0.7749  0.1898  0.0696
52014SOL     OW68020   5.910   4.520   4.389 -0.0938  0.0106 -0.3597
52014SOL    HW168021   5.907   4.432   4.427 -0.0401  0.7575  1.4818
52014SOL    HW268022   5.999   4.529   4.356  0.7786  0.2953  1.9074
52015SOL     OW68023   0.256  13.431   9.452  0.0100  0.2565 -0.4709
52015SOL    HW168024   0.287  13.431   9.362  1.5048  0.5411  0.0081
52015SOL    HW268025   0.334  13.411   9.504 -0.8086  0.1630  0.7579
52016SOL     OW68026  10.245   3.296   1.519  0.3226 -0.3458  0.0242
52016SOL    HW168027  10.192   3.366   1.557 -0.9445 -1.5898  0.6258
52016SOL    HW268028  10.235   3.222   1.579  2.5411 -0.7344 -0.0017
52017SOL     OW68029   0.863  11.584  11.217 -0.6758  0.3528  0.2790
52017SOL    HW168030   0.837  11.554  11.304 -2.5941  2.3142  0.4925
52017SOL    HW268031   0.916  11.662  11.233 -1.2402  0.8705 -0.2794
52018SOL     OW68032   9.288   2.368   1.927 -0.4971  0.3528  0.6301
52018SOL    HW168033   9.314   2.326   1.845 -1.3776  2.4013 -0.7792
52018SOL    HW268034   9.276   2.295   1.988  1.0857 -1.1808 -0.7472
52019SOL     OW68035   5.283   0.062   1.409  0.1418  0.2292  0.2749
52019SOL    HW168036   5.276   0.027   1.320  1.6247  2.0869 -0.6548
52019SOL    HW268037   5.299   0.156   1.397  0.6833  0.4835  2.5003
52020SOL     OW68038   1.517   2.575   1.730 -0.4056 -0.5179 -0.1728
52020SOL    HW168039   1.426   2.554   1.752  0.0726 -1.1922  1.2366
52020SOL    HW268040   1.555   2.608   1.811 -0.1397  2.6109 -1.4335
52021SOL     OW68041   3.495   6.803  13.049  0.0733  0.4061 -0.0995
52021SOL    HW168042   3.546   6.846  12.980 -1.4305  0.5334 -1.1761
52021SOL    HW268043   3.466   6.721  13.009  0.3175 -0.1604  0.8672
52022SOL     OW68044   3.673   2.245   3.374 -0.0295 -0.8110 -0.7196
52022SOL    HW168045   3.710   2.289   3.297 -1.7907 -1.2967 -1.9324
52022SOL    HW268046   3.582   2.277   3.377 -0.1825 -1.3251  0.7824
52023SOL     OW68047   0.180  11.089   9.780  0.2051 -0.2847  0.1412
52023SOL    HW168048   0.275  11.083   9.791  0.1349  0.1194  1.0572
52023SOL    HW268049   0.156  11.170   9.825 -0.5540 -0.2938 -0.2375
52024SOL     OW68050  10.058   1.281   8.821 -0.2213  0.2816 -0.2123
52024SOL    HW168051   9.968   1.307   8.845 -0.1299 -0.0010  0.4772
52024SOL    HW268052  10.066   1.305   8.729 -0.3405  2.1777  0.2143
52025SOL     OW68053   5.736   3.830   6.282  0.2569  0.0216 -0.9943
52025SOL    HW168054   5.738   3.734   6.275  2.1132 -0.3584  2.4578
52025SOL    HW268055   5.820   3.858   6.245 -0.3254  0.3744 -2.0891
52026SOL     OW68056   0.343   6.514  11.751 -0.2150  0.7950  0.0925
52026SOL    HW168057   0.292   6.590  11.779  1.5059  1.4746  1.4839
52026SOL    HW268058   0.425   6.550  11.717  0.5857 -0.4299  0.6652
52027SOL     OW68059   5.629   8.213   0.008  0.2421 -0.4777  0.0079
52027SOL    HW168060   5.709   8.161   0.002 -0.1758 -1.0104 -3.2056
52027SOL    HW268061   5.558   8.148   0.003 -0.3172  0.1792 -0.9367
52028SOL     OW68062   8.402  10.653   1.018 -0.2020 -0.2393  0.4640
52028SOL    HW168063   8.444  10.570   1.040 -2.0454 -1.8361 -1.6071
52028SOL    HW268064   8.310  10.639   1.039 -0.6667  0.9907 -0.6496
52029SOL     OW68065   0.327  14.004   5.921 -0.5501  0.1115  0.3365
52029SOL    HW168066   0.359  14.071   5.861 -0.0178 -0.0664  0.4168
52029SOL    HW268067   0.401  13.985   5.978 -0.7752 -0.3577  0.4786
52030SOL     OW68068   1.909   6.098   7.306 -0.0993 -0.2461  0.3515
52030SOL    HW168069   1.832   6.144   7.273  1.1165  1.0981 -0.7674
52030SOL    HW268070   1.902   6.010   7.269  0.5481  0.8228 -2.6241
52031SOL     OW68071   5.778   6.433  12.484  0.3136 -0.1715  0.0486
52031SOL    HW168072   5.836   6.507  12.502 -0.7234  0.6443  0.1111
52031SOL    HW268073   5.700   6.450  12.537  0.7899 -2.2838  1.5627
52032SOL     OW68074   8.058   7.997   0.400 -0.0918  0.3539  0.9337
52032SOL    HW168075   7.967   7.985   0.375  0.2971 -0.9113  0.0150
52032SOL    HW268076   8.096   8.050   0.330  0.0748  0.1940  0.9037
52033SOL     OW68077   2.735   1.983   7.701 -0.5666 -0.5729 -0.8213
52033SOL    HW168078   2.641   1.971   7.687 -0.8116 -1.0716  1.0411
52033SOL    HW268079   2.748   2.078   7.693 -1.5316 -0.3071  0.4162
52034SOL     OW68080   4.240   4.470  10.187  0.3297 -0.2731 -0.4857
52034SOL    HW168081   4.303   4.398  10.180  0.0428 -0.4799 -1.0318
52034SOL    HW268082   4.203   4.477  10.099 -0.9454 -0.6414 -0.0009
52035SOL     OW68083   9.731  11.680   8.439 -0.1814 -0.7587 -0.0271
52035SOL    HW168084   9.661  11.640   8.387 -1.1793 -0.8769  1.3498
52035SOL    HW268085   9.811  11.637   8.408 -0.7391 -0.8946 -1.3719
52036SOL     OW68086   7.485   0.774   9.875 -0.7357  0.4801 -0.6451
52036SOL    HW168087   7.436   0.856   9.862  1.1539  1.6443 -0.7878
52036SOL    HW268088   7.494   0.766   9.970 -1.3868  0.1407 -0.6090
52037SOL     OW68089   5.788   2.465   4.898 -0.3472 -0.2689  0.0020
52037SOL    HW168090   5.749   2.426   4.976  0.2687  0.3810  0.6463
52037SOL    HW268091   5.859   2.520   4.931  2.0665 -2.4363 -1.1497
52038SOL     OW68092  14.023   0.310   7.446 -0.1276 -0.4125  0.6563
52038SOL    HW168093  14.100   0.261   7.473 -0.4920 -1.7161 -0.5407
52038SOL    HW268094  13.971   0.319   7.526  0.9594 -0.0470  1.3474
52039SOL     OW68095   4.360  13.521   4.875 -0.0827  0.1383  0.0557
52039SOL    HW168096   4.446  13.527   4.834 -0.2403 -0.2879 -0.3404
52039SOL    HW268097   4.309  13.464   4.817 -0.8025  0.8247 -0.0075
52040SOL     OW68098   0.864   8.121   1.002 -0.3140 -0.1394  0.2304
52040SOL    HW168099   0.836   8.208   1.030 -0.3245 -0.1504  0.2544
52040SOL    HW268100   0.808   8.102   0.927 -0.5463 -0.2670  0.4338
52041SOL     OW68101   1.201   7.741   4.791  0.2187 -0.1199 -0.0134
52041SOL    HW168102   1.260   7.671   4.764 -1.5882 -1.0131 -1.9043
52041SOL    HW268103   1.170   7.714   4.878  1.7304 -0.1610  0.5404
52042SOL     OW68104   9.094   1.947   0.699 -0.3985  0.1316 -0.3732
52042SOL    HW168105   9.082   1.955   0.604  1.6912 -1.0721 -0.8220
52042SOL    HW268106   9.100   1.853   0.715  0.9933  0.3596  0.6660
52043SOL     OW68107  12.233   0.435  12.187  0.9047  0.0114 -0.2241
52043SOL    HW168108  12.164   0.414  12.124  0.0872  2.9276 -0.4876
52043SOL    HW268109  12.211   0.384  12.265 -0.4782 -0.5240 -0.9347
52044SOL     OW68110  12.413   6.129   1.422  0.4701 -0.0569 -0.1847
52044SOL    HW168111  12.419   6.067   1.350 -0.0833  1.3942 -1.5452
52044SOL    HW268112  12.415   6.075   1.501  0.3822 -1.7466 -1.2904
52045SOL     OW68113  11.154   4.464   6.798  0.0747  0.9018  0.0897
52045SOL    HW168114  11.166   4.540   6.854  1.6214  1.3698 -0.8182
52045SOL    HW268115  11.060   4.462   6.780 -0.6467  0.2094  3.3386
52046SOL     OW68116  13.802   6.614   5.025  0.0523  0.2149 -0.1019
52046SOL    HW168117  13.819   6.670   5.101  0.8943 -0.8174  0.4975
52046SOL    HW268118  13.783   6.528   5.063 -1.8925  0.2066 -0.9703
52047SOL     OW68119   3.648   9.543  12.059  0.0980  0.2090 -0.8212
52047SOL    HW168120   3.726   9.594  12.040  0.9732 -0.7692  0.0339
52047SOL    HW268121   3.623   9.505  11.975  0.7501  0.2645 -1.0435
52048SOL     OW68122   3.772   8.204  10.607  0.4697 -0.9413 -0.0763
52048SOL    HW168123   3.691   8.254  10.619  1.4927  0.6871  0.3733
52048SOL    HW268124   3.756   8.151  10.529 -0.9188 -0.4006 -0.1842
52049SOL     OW68125   9.049   3.756   5.589  0.2785  0.2207  0.4707
52049SOL    HW168126   8.970   3.712   5.558  1.0868 -0.9325 -0.0393
52049SOL    HW268127   9.100   3.686   5.631  1.1591  0.8762  0.5344
52050SOL     OW68128  11.553   4.415   2.878 -0.1107  0.3498 -0.0012
52050SOL    HW168129  11.460   4.419   2.855 -0.0598 -0.5848 -0.4444
52050SOL    HW268130  11.587   4.502   2.857 -0.3694 -0.0324 -2.2843
52051SOL     OW68131   2.907  11.946   2.032 -0.0683 -0.1633  0.0997
52051SOL    HW168132   2.973  12.004   2.069  0.7407 -0.4774 -0.8332
52051SOL    HW268133   2.835  11.949   2.096  0.2490  1.2718  0.4309
52052SOL     OW68134   7.850  10.334  10.705 -0.4152 -0.1997 -0.2152
52052SOL    HW168135   7.933  10.338  10.657 -0.9134 -1.9217 -1.2939
52052SOL    HW268136   7.803  10.259  10.667 -1.6626 -0.4430  1.6537
52053SOL     OW68137   4.114  13.536   9.532  0.4605 -0.3056 -0.6332
52053SOL    HW168138   4.185  13.476   9.511  0.9401  0.3765 -1.0107
52053SOL    HW268139   4.077  13.561   9.448  0.0154 -0.3648 -0.4588
52054SOL     OW68140   3.144  12.859   5.944  0.4973 -0.2234 -0.3258
52054SOL    HW168141   3.237  12.846   5.964  0.5606 -1.4255 -1.2383
52054SOL    HW268142   3.098  12.817   6.017  0.6841 -0.5161 -0.3735
52055SOL     OW68143  11.541   7.276   0.944  0.1944 -0.2683  0.0376
52055SOL    HW168144  11.455   7.304   0.975 -0.0963  0.3516 -1.2571
52055SOL    HW268145  11.546   7.183   0.967 -0.5240 -0.1442  0.7346
52056SOL     OW68146   4.501   5.230   0.266 -0.6127 -0.4345 -0.0255
52056SOL    HW168147   4.448   5.306   0.292  0.0875 -0.1577  0.6181
52056SOL    HW268148   4.563   5.219   0.338  0.0481 -0.9058 -0.6640
52057SOL     OW68149  10.827   0.688   5.098 -0.1785 -0.4323 -0.1601
52057SOL    HW168150  10.797   0.776   5.122 -2.4495 -0.7138 -1.7164
52057SOL    HW268151  10.875   0.701   5.016  1.2770 -0.4442  0.6393
52058SOL     OW68152   1.886   2.933  13.414 -0.2285  0.5559  0.4165
52058SOL    HW168153   1.900   2.895  13.501  0.5639  0.3637  0.2149
52058SOL    HW268154   1.930   2.872  13.354 -3.8409 -1.3797 -0.5893
52059SOL     OW68155  14.001   2.465  11.867 -0.0460 -0.0446 -0.4105
52059SOL    HW168156  13.964   2.523  11.800 -1.1442  0.3013  0.4644
52059SOL    HW268157  13.952   2.486  11.947 -0.1190 -1.8055  0.0567
52060SOL     OW68158  12.812   2.373   9.818  0.1924  0.6707  0.2622
52060SOL    HW168159  12.894   2.362   9.866  0.5546 -2.7508 -0.9128
52060SOL    HW268160  12.838   2.375   9.726 -1.0113 -1.4008 -0.1932
52061SOL     OW68161  12.296   0.737  13.328 -0.4577 -0.5097 -0.3174
52061SOL    HW168162  12.275   0.644  13.337 -0.4060 -0.6759 -1.6843
52061SOL    HW268163  12.338   0.761  13.410  1.3881 -2.2127 -0.7079
52062SOL     OW68164  12.935   2.139   2.658 -0.1340  1.2027 -0.5986
52062SOL    HW168165  12.957   2.054   2.696 -0.9210  0.6476 -1.3361
52062SOL    HW268166  12.883   2.183   2.724  0.2212  1.0816 -0.2369
52063SOL     OW68167   5.003   9.945  10.045 -0.4020 -0.0194  0.3537
52063SOL    HW168168   4.942   9.872  10.032 -1.2127  0.7875 -0.5137
52063SOL    HW268169   4.964  10.018   9.997  0.7480  0.8040  0.6263
52064SOL     OW68170  12.857   1.557   6.006  0.0217 -0.5736  0.0637
52064SOL    HW168171  12.789   1.623   6.021 -0.6639 -0.7161 -2.1481
52064SOL    HW268172  12.815   1.474   6.027  0.0954 -0.5280  0.4064
52065SOL     OW68173   8.010  13.835   9.906 -0.6935 -0.5560  0.2086
52065SOL    HW168174   7.952  13.843   9.830 -0.4605 -1.4125 -0.0810
52065SOL    HW268175   8.038  13.924   9.925 -0.9640 -0.2994 -0.5554
52066SOL     OW68176   1.876   3.005   2.558  0.1761  0.2982  0.1679
52066SOL    HW168177   1.889   3.093   2.522 -2.3533  0.5124 -0.4379
52066SOL    HW268178   1.872   2.948   2.481 -0.9680  0.1014  0.3529
52067SOL     OW68179  13.809   6.807  13.835  0.2608  0.6899 -0.5505
52067SOL    HW168180  13.901   6.834  13.831  0.1284  1.0511 -1.4359
52067SOL    HW268181  13.779   6.813  13.744 -0.6869  0.7499 -0.2374
52068SOL     OW68182  12.760   2.087  10.820 -0.0892 -0.1805  0.1953
52068SOL    HW168183  12.821   2.055  10.754 -0.4374 -1.2770  0.3776
52068SOL    HW268184  12.778   2.181  10.827  0.2434 -0.1250 -1.1349
52069SOL     OW68185   4.515   0.252   4.738  0.1039  0.0669 -0.0552
52069SOL    HW168186   4.542   0.162   4.753 -2.3028 -0.8240 -0.5262
52069SOL    HW268187   4.551   0.274   4.652 -0.7849 -1.1243 -0.7569
52070SOL     OW68188   6.246  12.670   9.445  0.5274 -0.1214  0.0857
52070SOL    HW168189   6.151  12.677   9.448  0.5079 -0.4500  3.2060
52070SOL    HW268190   6.277  12.751   9.484  1.5115 -0.5163  0.1480
52071SOL     OW68191   2.529   1.894   1.580  0.0441  0.8534  0.1878
52071SOL    HW168192   2.604   1.839   1.601 -0.3412  0.2698  0.0816
52071SOL    HW268193   2.547   1.926   1.492  1.0570  2.2722  0.8655
52072SOL     OW68194  10.754  13.240   3.018 -0.2757  0.5966  0.5133
52072SOL    HW168195  10.730  13.324   3.058  0.1239  1.7703 -1.5312
52072SOL    HW268196  10.850  13.241   3.017 -0.2606 -0.2418  1.1706
52073SOL     OW68197   5.271   2.931   0.118 -0.1131  0.2318 -0.0374
52073SOL    HW168198   5.308   2.843   0.109  0.3647  0.5425 -1.1920
52073SOL    HW268199   5.320   2.970   0.191  1.2569  0.3158 -0.9625
52074SOL     OW68200   1.153   7.832   8.837 -0.7534  0.3701 -0.4478
52074SOL    HW168201   1.186   7.885   8.765 -0.2461 -0.0142 -0.5014
52074SOL    HW268202   1.220   7.766   8.851 -0.2490  1.1637  1.1774
52075SOL     OW68203   0.721  10.378  11.124 -0.6933  0.4352 -0.1639
52075SOL    HW168204   0.733  10.429  11.044 -0.8135  0.2342 -0.3078
52075SOL    HW268205   0.658  10.429  11.175 -0.3731  0.7279 -0.0553
52076SOL     OW68206   0.487   7.084   7.583  0.1993 -0.3524 -0.8073
52076SOL    HW168207   0.449   7.012   7.534 -0.4746 -0.0919 -0.6791
52076SOL    HW268208   0.567   7.048   7.621 -1.0670 -1.6040  0.8176
52077SOL     OW68209  11.307   8.944   5.690 -0.0949  0.3776  0.3987
52077SOL    HW168210  11.334   8.966   5.779 -0.5288 -1.0525  0.9090
52077SOL    HW268211  11.233   8.885   5.701 -0.9507  1.1413 -0.9386
52078SOL     OW68212   4.560   2.643   7.880 -0.6570  0.5386 -0.4002
52078SOL    HW168213   4.640   2.595   7.903  0.2035  1.5179 -1.2240
52078SOL    HW268214   4.500   2.625   7.951  0.3584 -0.1031  0.3215
52079SOL     OW68215   1.210   2.624   1.540 -0.1981 -0.1547  0.1861
52079SOL    HW168216   1.127   2.617   1.588 -0.2765 -0.4704  0.0093
52079SOL    HW268217   1.241   2.712   1.559 -1.0042  0.2821 -0.4275
52080SOL     OW68218   4.663   3.272  13.908 -0.1744 -0.4181 -0.2277
52080SOL    HW168219   4.672   3.318  13.991  0.6712 -1.4487  0.2814
52080SOL    HW268220   4.622   3.188  13.931 -3.2056  0.6116 -1.3391
52081SOL     OW68221   0.408  10.408   8.860  0.2179 -0.1326 -0.4015
52081SOL    HW168222   0.426  10.422   8.953  1.5294 -1.0547 -0.4848
52081SOL    HW268223   0.413  10.496   8.821  1.3977  0.0629  0.1384
52082SOL     OW68224   7.880   2.882   3.386 -0.5508 -0.7461 -0.2418
52082SOL    HW168225   7.958   2.881   3.443 -1.1943  0.0445  0.6895
52082SOL    HW268226   7.845   2.793   3.392 -1.4631 -0.3185  1.8684
52083SOL     OW68227   4.088  11.448   5.176 -0.2920  0.4222  0.4560
52083SOL    HW168228   4.169  11.409   5.208 -0.8146 -1.0478  0.0661
52083SOL    HW268229   4.019  11.405   5.226 -0.8862  0.9457  0.0993
52084SOL     OW68230   4.165  10.687   0.360 -0.0461  0.2449 -0.2200
52084SOL    HW168231   4.161  10.722   0.449 -0.2909  1.8933 -0.8238
52084SOL    HW268232   4.242  10.631   0.359 -0.3546 -0.2480  1.1648
52085SOL     OW68233  10.397  13.355   4.661 -0.6113  0.3247  0.4965
52085SOL    HW168234  10.400  13.288   4.593 -1.3692 -0.7931  1.5134
52085SOL    HW268235  10.338  13.422   4.627 -3.2233 -1.5098  1.0896
52086SOL     OW68236   0.477   1.917  11.491  0.2380  0.1107 -0.2615
52086SOL    HW168237   0.556   1.864  11.485  0.1206 -0.0729 -0.1949
52086SOL    HW268238   0.438   1.913  11.404  0.0794 -0.1442 -0.1770
52087SOL     OW68239   2.404   9.846   9.079 -0.1503 -0.3443 -0.1916
52087SOL    HW168240   2.436   9.883   8.997 -0.3407 -1.2759 -0.7027
52087SOL    HW268241   2.349   9.914   9.117  2.2723  1.2764  0.6633
52088SOL     OW68242   5.913   9.332  10.490 -0.1556  0.1587  0.2335
52088SOL    HW168243   5.830   9.379  10.479  0.5295  0.8454 -2.6182
52088SOL    HW268244   5.979   9.401  10.492  0.6415 -0.5351 -1.3142
52089SOL     OW68245   9.625   0.725  12.705  0.3153 -0.7368 -0.7460
52089SOL    HW168246   9.709   0.679  12.705 -0.5249 -2.3149 -0.6494
52089SOL    HW268247   9.567   0.669  12.655 -1.4875 -1.1878  1.7152
52090SOL     OW68248  11.885   0.085  12.195  0.5907  0.0274 -0.0401
52090SOL    HW168249  11.886   0.180  12.193 -1.7306  0.1087  0.6779
52090SOL    HW268250  11.898   0.059  12.104 -0.4095  1.0861 -0.5022
52091SOL     OW68251  10.548   9.061   3.358  0.2567 -0.1372  0.7511
52091SOL    HW168252  10.605   9.057   3.435  0.2000 -0.5999  0.7704
52091SOL    HW268253  10.602   9.026   3.286 -0.5772 -2.3111  1.1235
52092SOL     OW68254   0.010   5.110  10.360  0.2986  0.0160 -0.3406
52092SOL    HW168255   0.083   5.165  10.389  1.4179 -0.9928 -1.1729
52092SOL    HW268256   0.044   5.021  10.364 -1.6916 -0.7598  1.6769
52093SOL     OW68257  12.519   4.080  13.015  0.0480 -0.1003  0.4212
52093SOL    HW168258  12.490   4.144  12.950  0.0399  2.1593  2.4796
52093SOL    HW268259  12.464   4.097  13.092  1.9730 -0.6098  2.0136
52094SOL     OW68260  13.126   8.437   0.388 -0.0509 -0.7392  0.5232
52094SOL    HW168261  13.089   8.525   0.386  0.1352 -0.6138  1.5678
52094SOL    HW268262  13.202   8.445   0.446  0.0546 -1.5538  0.5112
52095SOL     OW68263   6.650   0.318  11.524 -0.3314  0.6693 -0.2406
52095SOL    HW168264   6.684   0.325  11.435 -0.5137  0.3740 -0.3369
52095SOL    HW268265   6.728   0.299  11.577 -0.5220 -1.8427 -0.7031
52096SOL     OW68266   3.010   6.715   8.979 -0.4822  0.5292 -0.2514
52096SOL    HW168267   3.013   6.794   9.033 -0.4749  0.5211 -0.2402
52096SOL    HW268268   2.932   6.668   9.008 -0.0135  0.1069  0.3436
52097SOL     OW68269  12.410  13.689   5.815 -0.1398 -0.0358 -0.4103
52097SOL    HW168270  12.329  13.735   5.797 -0.5172 -0.5775 -0.1196
52097SOL    HW268271  12.474  13.758   5.833 -0.9979  0.3554  1.3122
52098SOL     OW68272   8.415   3.347   0.887 -0.5449 -0.9148 -0.7786
52098SOL    HW168273   8.493   3.364   0.940 -0.3579 -0.5225 -1.1794
52098SOL    HW268274   8.374   3.432   0.875 -0.3515 -0.9281 -1.6285
52099SOL     OW68275  11.596  12.195   1.128 -0.3054 -0.7047  0.2187
52099SOL    HW168276  11.673  12.244   1.100 -1.9575  1.5599 -0.6235
52099SOL    HW268277  11.551  12.172   1.047 -0.8213 -1.5082  0.7217
52100SOL     OW68278   2.377   2.932   4.885  0.1290  0.0619  0.3249
52100SOL    HW168279   2.304   2.947   4.826  0.1373 -0.2455  0.2363
52100SOL    HW268280   2.341   2.950   4.972  0.8831  3.5267  0.0757
52101SOL     OW68281  12.808   5.251   0.718 -0.1078 -0.3217  0.2555
52101SOL    HW168282  12.884   5.248   0.776 -0.1442 -0.2408  0.3077
52101SOL    HW268283  12.746   5.189   0.757 -0.8884  1.0873  1.3821
52102SOL     OW68284  13.439   2.440   3.301  0.3799  0.4165  0.1660
52102SOL    HW168285  13.459   2.400   3.386 -0.3298  0.0748  0.1823
52102SOL    HW268286  13.361   2.494   3.318 -0.7895 -0.9628 -0.6201
52103SOL     OW68287   1.036  11.103  10.104 -0.1302 -0.0864 -0.2642
52103SOL    HW168288   0.954  11.107  10.153 -1.1011 -1.4794 -1.6716
52103SOL    HW268289   1.049  11.192  10.071 -1.6963 -0.0690 -0.9332
52104SOL     OW68290   2.066  12.646  12.933 -0.3931  0.6258  0.8275
52104SOL    HW168291   2.156  12.644  12.901 -0.4999  2.4437  0.2950
52104SOL    HW268292   2.014  12.602  12.865  0.0759 -0.4777  1.1655
52105SOL     OW68293   2.023  11.334   1.573  0.2189 -0.6454 -0.3719
52105SOL    HW168294   2.067  11.387   1.507 -1.2951  0.3956 -0.5980
52105SOL    HW268295   2.094  11.287   1.617  1.7920  2.1053  0.3261
52106SOL     OW68296   1.966   4.921   1.756 -0.1029  0.0890  0.0172
52106SOL    HW168297   1.952   4.832   1.786 -0.9205 -0.1695 -1.0767
52106SOL    HW268298   1.940   4.920   1.664  0.0303  1.4150 -0.0587
52107SOL     OW68299   6.099   9.563  10.428 -0.0010  0.0946  0.1448
52107SOL    HW168300   6.105   9.645  10.379 -0.3995 -0.0437 -0.1419
52107SOL    HW268301   6.171   9.568  10.491 -0.3427  0.8920  0.4838
52108SOL     OW68302   3.468   3.543   0.786  0.2006  0.0427  0.3010
52108SOL    HW168303   3.537   3.589   0.739 -0.6266  1.1023  0.0708
52108SOL    HW268304   3.455   3.594   0.866 -1.3718  0.8074 -0.3982
52109SOL     OW68305   3.791  13.775   3.442 -0.0089 -0.0097 -0.2423
52109SOL    HW168306   3.714  13.734   3.482  0.0597 -1.3569 -1.4249
52109SOL    HW268307   3.849  13.793   3.516 -0.6528 -0.7294  0.4636
52110SOL     OW68308   2.208   4.651   1.171 -0.5799 -0.2037  0.0284
52110SOL    HW168309   2.204   4.594   1.094 -1.8711 -0.4550  0.2552
52110SOL    HW268310   2.192   4.592   1.245  1.1220 -0.0442  0.5503
52111SOL     OW68311   3.128  13.255   7.553 -0.2944  0.6688  0.0965
52111SOL    HW168312   3.118  13.159   7.556  0.3053  0.5328 -1.3048
52111SOL    HW268313   3.115  13.277   7.461 -1.8366  2.1352  0.6200
52112SOL     OW68314   3.601   3.378  14.033  0.6858  0.4577  0.1226
52112SOL    HW168315   3.522   3.417  13.996  0.9575  1.5864  0.7022
52112SOL    HW268316   3.645   3.450  14.078  1.8574 -0.2357  0.1310
52113SOL     OW68317  11.154   2.162   4.624  0.1070  0.0087  0.1545
52113SOL    HW168318  11.165   2.246   4.669  0.1877  0.2712 -0.3491
52113SOL    HW268319  11.192   2.097   4.684  1.3559  0.5050 -0.0955
52114SOL     OW68320   0.681  13.877  13.624  0.4415  0.2901  0.3178
52114SOL    HW168321   0.719  13.801  13.581  1.4871 -0.2290  2.0678
52114SOL    HW268322   0.750  13.944  13.621  1.2515 -0.3311  2.6334
52115SOL     OW68323   2.412   1.604  12.986  0.2190 -0.1792  0.0377
52115SOL    HW168324   2.345   1.647  13.039  0.2760  0.2691 -0.2484
52115SOL    HW268325   2.458   1.548  13.047  2.0138  2.2745  1.1128
52116SOL     OW68326  10.729  13.579   6.686  0.4734  0.3511  0.1649
52116SOL    HW168327  10.795  13.522   6.725  0.1065 -0.1660  0.0521
52116SOL    HW268328  10.649  13.558   6.734  0.1658  0.1927 -0.4102
52117SOL     OW68329   3.118   7.278   5.583 -0.8855  0.0821 -0.4505
52117SOL    HW168330   3.045   7.318   5.630 -1.0318  0.2232 -0.7987
52117SOL    HW268331   3.096   7.185   5.578 -0.7536  0.0273 -0.0249
52118SOL     OW68332  10.277   6.064  11.209  0.1404 -0.3139  0.1032
52118SOL    HW168333  10.286   6.143  11.262  0.6086 -1.3719  1.6791
52118SOL    HW268334  10.367   6.036  11.190 -0.0169 -0.2255 -0.8640
52119SOL     OW68335   6.217   9.344  11.620  0.1723  0.0863 -0.4084
52119SOL    HW168336   6.288   9.313  11.564  0.2967 -0.7446  0.1818
52119SOL    HW268337   6.137   9.313  11.578  0.2460 -0.2129 -0.3355
52120SOL     OW68338   7.954   9.912   5.816  0.1754 -0.5025 -0.2303
52120SOL    HW168339   7.988   9.848   5.879 -0.8863  0.1497  1.0339
52120SOL    HW268340   7.932   9.859   5.738  0.5524 -1.4727  0.3046
52121SOL     OW68341  12.712   5.931   4.670 -0.2692 -0.1231  0.2400
52121SOL    HW168342  12.625   5.936   4.709 -1.2969  0.2607 -1.9375
52121SOL    HW268343  12.739   6.023   4.660 -1.1040 -0.0773 -2.0912
52122SOL     OW68344  11.848   3.396   9.058 -0.0294  0.0331 -0.4641
52122SOL    HW168345  11.943   3.388   9.066  0.1026  2.0876  0.6187
52122SOL    HW268346  11.815   3.375   9.145 -0.5517 -0.2724 -0.7326
52123SOL     OW68347   8.137  12.839   8.631  0.2780  0.1307 -0.1948
52123SOL    HW168348   8.114  12.851   8.539  0.3200 -2.2727 -0.5811
52123SOL    HW268349   8.082  12.902   8.678  1.5795  2.7577 -1.9128
52124SOL     OW68350   0.245   5.666   7.676 -0.0833  0.2584 -0.0432
52124SOL    HW168351   0.308   5.612   7.723 -1.4491 -1.6348 -0.2313
52124SOL    HW268352   0.176   5.684   7.740  0.2169  1.6011 -0.0681
52125SOL     OW68353   5.338   4.478   4.994 -0.0380 -0.3504 -0.3381
52125SOL    HW168354   5.275   4.542   4.962 -1.0791 -1.1550  0.0628
52125SOL    HW268355   5.359   4.508   5.083  1.7106  1.0370 -1.1523
52126SOL     OW68356   9.137   5.297  12.905 -0.2242 -0.0838 -0.0597
52126SOL    HW168357   9.191   5.220  12.924 -0.7912 -0.4514  0.0865
52126SOL    HW268358   9.144   5.350  12.984 -1.0981 -0.7417  0.4788
52127SOL     OW68359   3.818  12.639  12.248  0.6585 -0.3213  0.1114
52127SOL    HW168360   3.813  12.728  12.213 -1.3618 -0.7125 -0.7504
52127SOL    HW268361   3.727  12.610  12.251  1.1726 -1.9474  1.5130
52128SOL     OW68362   8.127  10.263   1.694 -0.2544 -0.1658 -0.5378
52128SOL    HW168363   8.070  10.187   1.685 -0.7583  0.1217  0.1371
52128SOL    HW268364   8.206  10.229   1.737 -0.3965 -0.3440 -0.4191
52129SOL     OW68365   1.818   2.432   4.243 -0.2957 -0.2942  0.4568
52129SOL    HW168366   1.809   2.526   4.229 -1.6150 -0.5289 -0.4251
52129SOL    HW268367   1.913   2.418   4.252 -0.1009  1.1394  0.9341
52130SOL     OW68368   1.822   4.217  11.499 -0.6307  1.2182 -0.7434
52130SOL    HW168369   1.806   4.218  11.405  2.4795  0.8500 -1.3865
52130SOL    HW268370   1.864   4.301  11.518  1.3110  0.2157 -0.3052
52131SOL     OW68371   3.355  11.073   0.241 -0.4575 -0.7874  0.5760
52131SOL    HW168372   3.410  11.096   0.316 -1.9202 -0.0979  1.4781
52131SOL    HW268373   3.272  11.045   0.280 -1.5926  0.5150 -0.7757
52132SOL     OW68374   0.980   4.712   7.853 -0.4444  0.4933 -0.1933
52132SOL    HW168375   0.981   4.807   7.865 -0.8367  0.5724 -0.7448
52132SOL    HW268376   1.072   4.686   7.860 -0.3695  0.8625  0.3018
52133SOL     OW68377  11.734   6.296  13.237  0.1901 -0.1822  0.2553
52133SOL    HW168378  11.639   6.295  13.220  0.1827 -1.7180  0.2318
52133SOL    HW268379  11.745   6.362  13.305 -0.9726 -0.3198  0.6022
52134SOL     OW68380  13.591  13.769  11.540 -0.1305 -0.0854  0.0162
52134SOL    HW168381  13.647  13.741  11.612  1.3603  0.4672 -0.8743
52134SOL    HW268382  13.638  13.743  11.461 -1.4767 -0.2183 -0.7844
52135SOL     OW68383   7.355   4.518  10.346  0.0186  0.1994 -0.1965
52135SOL    HW168384   7.380   4.609  10.332  1.6229  0.0056  1.0659
52135SOL    HW268385   7.397   4.471  10.274  0.4144  0.2909 -0.0277
52136SOL     OW68386  10.575   6.338   4.167 -0.2984  0.0789 -0.1272
52136SOL    HW168387  10.510   6.352   4.236 -0.3179 -0.2099 -0.0839
52136SOL    HW268388  10.657   6.321   4.215 -0.6420 -1.7938 -0.1255
52137SOL     OW68389  10.414  10.607  12.430 -0.0043 -0.5688  0.6028
52137SOL    HW168390  10.356  10.562  12.368 -0.4914 -0.0823  0.6902
52137SOL    HW268391  10.497  10.559  12.425  0.0185 -0.4495 -0.5446
52138SOL     OW68392   9.318   5.480   7.952 -0.4249 -0.1537 -0.3724
52138SOL    HW168393   9.272   5.437   7.880 -0.9142  1.8744 -1.3299
52138SOL    HW268394   9.407   5.447   7.947 -0.8978 -1.4431 -0.7272
52139SOL     OW68395  11.952   3.841   3.516 -0.0326 -0.7518  0.1972
52139SOL    HW168396  12.004   3.863   3.438 -0.0472  0.3569  0.4822
52139SOL    HW268397  11.862   3.861   3.491  0.1070  0.8969  0.9193
52140SOL     OW68398   7.721   1.264   6.053  0.0745  0.2116 -0.1857
52140SOL    HW168399   7.802   1.242   6.008  0.1268  0.7361 -0.3490
52140SOL    HW268400   7.681   1.179   6.073  0.1157 -0.0287 -1.0911
52141SOL     OW68401   9.550  11.449  10.357  0.2961 -0.8959  0.4928
52141SOL    HW168402   9.456  11.470  10.361  0.6116  0.9193 -0.4814
52141SOL    HW268403   9.560  11.399  10.276  0.4412  0.7723 -0.5687
52142SOL     OW68404   4.903   0.566   1.456  0.0504 -0.1692  0.7897
52142SOL    HW168405   4.840   0.637   1.469  0.3105  0.3417 -0.5054
52142SOL    HW268406   4.983   0.596   1.500  0.5066  0.8871 -0.6718
52143SOL     OW68407  11.056   3.386  11.158 -0.1451  0.2822 -0.4624
52143SOL    HW168408  11.008   3.429  11.228 -1.1889  0.1711 -1.0903
52143SOL    HW268409  11.102   3.314  11.201  0.1371  0.9039  0.2826
52144SOL     OW68410  10.829   3.909   0.376 -0.1955  0.6613 -0.5097
52144SOL    HW168411  10.824   4.004   0.384 -1.9772  0.4899  0.9846
52144SOL    HW268412  10.840   3.878   0.466 -0.7318 -0.5956 -0.8631
52145SOL     OW68413   7.149   6.917   1.692 -0.4519 -0.0115 -0.0699
52145SOL    HW168414   7.153   6.909   1.597 -0.0413  0.4059 -0.0892
52145SOL    HW268415   7.240   6.910   1.721 -0.3804  1.5415  0.1507
52146SOL     OW68416   1.919   5.615   7.457 -0.3476 -0.2949 -0.5773
52146SOL    HW168417   1.998   5.650   7.415 -0.3085 -0.4436 -0.6280
52146SOL    HW268418   1.946   5.530   7.491 -0.1910  0.1006  0.3414
52147SOL     OW68419   1.147   1.705  10.519 -0.3007  0.1586  0.1257
52147SOL    HW168420   1.196   1.703  10.601  2.1401 -2.7287 -1.1933
52147SOL    HW268421   1.195   1.766  10.463 -0.4153  0.1492  0.0164
52148SOL     OW68422   0.098   6.467   6.711  0.4023  0.7497  0.0327
52148SOL    HW168423   0.054   6.464   6.796  0.0195  1.6266 -0.1307
52148SOL    HW268424   0.042   6.522   6.656 -0.6026 -1.6514 -1.5223
52149SOL     OW68425   3.950   1.731   1.537  0.8832 -0.1664  0.2796
52149SOL    HW168426   3.985   1.652   1.495 -0.6704 -0.1109 -1.2371
52149SOL    HW268427   3.980   1.803   1.482  1.6505  0.2440  1.2218
52150SOL     OW68428  11.108   0.531   0.446  0.2192  0.0728  0.4853
52150SOL    HW168429  11.071   0.526   0.535  1.6564  2.1914  1.2818
52150SOL    HW268430  11.172   0.460   0.443  0.4912  0.2735  1.3124
52151SOL     OW68431   5.906   1.420   9.293 -0.4175 -0.1992  0.1820
52151SOL    HW168432   5.893   1.422   9.387 -1.2169  0.1586  0.0739
52151SOL    HW268433   5.818   1.407   9.256 -0.1695  0.0271 -0.5182
52152SOL     OW68434   5.081   0.046   5.678 -0.0521 -0.3565  0.6054
52152SOL    HW168435   5.045   0.035   5.766 -0.0233 -0.5194  0.5976
52152SOL    HW268436   5.014   0.009   5.620  0.2177 -0.8640  0.6061
52153SOL     OW68437   4.364   5.297   7.123 -0.4319  0.0233  0.4513
52153SOL    HW168438   4.318   5.306   7.207  0.0492 -1.1756  0.8714
52153SOL    HW268439   4.322   5.222   7.080 -0.7731  0.7241 -0.4645
52154SOL     OW68440   3.119   1.670   2.671  0.9486 -0.3543  0.1330
52154SOL    HW168441   3.156   1.742   2.722 -0.0712  1.1261 -1.1191
52154SOL    HW268442   3.168   1.671   2.589  1.2073 -1.3922  0.2608
52155SOL     OW68443   4.502  13.176   4.453 -0.1123 -0.4362 -0.2574
52155SOL    HW168444   4.565  13.246   4.436 -0.1931 -0.8505 -2.6094
52155SOL    HW268445   4.437  13.186   4.383 -0.6404 -2.2704 -0.0694
52156SOL     OW68446  13.158  11.739   9.631 -0.2610 -0.0805 -0.4002
52156SOL    HW168447  13.147  11.645   9.620 -1.4436 -0.0280  0.1385
52156SOL    HW268448  13.088  11.765   9.691  1.9151  0.6751  1.9802
52157SOL     OW68449   3.152   6.368   1.815  0.1527  0.0448 -0.2855
52157SOL    HW168450   3.071   6.374   1.865  0.6119  0.6068  0.4012
52157SOL    HW268451   3.221   6.379   1.880  0.7902 -0.5621 -0.8426
52158SOL     OW68452   7.071   2.674   0.490  0.2711  0.2808  0.5603
52158SOL    HW168453   7.014   2.751   0.486 -0.9603 -0.5845  0.7362
52158SOL    HW268454   7.072   2.641   0.400  2.3645  1.5549  0.0590
52159SOL     OW68455   3.261  12.653   7.130  0.0582 -0.6007  0.1477
52159SOL    HW168456   3.292  12.709   7.059 -1.0823 -0.5579 -0.3415
52159SOL    HW268457   3.275  12.564   7.097 -1.8463 -0.6004 -0.8219
52160SOL     OW68458   7.392   7.410  13.195 -0.4588  0.1879 -0.3565
52160SOL    HW168459   7.382   7.466  13.118  1.1014 -0.0137 -0.7522
52160SOL    HW268460   7.471   7.358  13.176 -0.1555 -0.0022  1.2931
52161SOL     OW68461  11.173   4.048   7.998  0.2735 -0.2706  0.1763
52161SOL    HW168462  11.132   3.963   8.012  4.0625 -2.5477 -0.8891
52161SOL    HW268463  11.147   4.074   7.910  0.2775 -1.1088 -0.0745
52162SOL     OW68464  12.097  10.202   9.571 -0.6645  0.2619  0.1627
52162SOL    HW168465  12.120  10.199   9.663 -1.8910  1.0884  0.5197
52162SOL    HW268466  12.168  10.156   9.527  0.6143  1.0169  1.3757
52163SOL     OW68467   5.935   6.119   3.244  0.3064 -0.0553  0.6221
52163SOL    HW168468   5.883   6.123   3.325 -0.5884  3.8642  0.0531
52163SOL    HW268469   6.017   6.164   3.267  1.7152 -2.3070  0.2912
52164SOL     OW68470   2.415   8.018   1.004  0.1473  0.1967 -0.0753
52164SOL    HW168471   2.493   8.070   0.986  0.5320 -1.1569 -2.8709
52164SOL    HW268472   2.357   8.077   1.053  1.2903  2.6089 -1.4506
52165SOL     OW68473   3.087   4.240   2.481  0.2137  0.3859 -0.0481
52165SOL    HW168474   3.122   4.155   2.508 -1.4899  0.1959  1.7891
52165SOL    HW268475   3.162   4.286   2.443  1.2182 -1.8370 -0.9212
52166SOL     OW68476   8.442  11.491  11.689 -0.4878  0.0168  0.0681
52166SOL    HW168477   8.350  11.475  11.666 -0.7899  0.6384  0.8020
52166SOL    HW268478   8.445  11.482  11.784 -0.0624  1.2675  0.1861
52167SOL     OW68479  11.752  10.985   4.278  1.0676 -0.5784  0.1351
52167SOL    HW168480  11.819  10.921   4.254  0.0119 -1.1766 -1.3680
52167SOL    HW268481  11.754  10.986   4.374  3.5061 -0.2242  0.1312
52168SOL     OW68482  13.110   4.642   8.736  0.0250  0.3393  0.2358
52168SOL    HW168483  13.043   4.615   8.673  1.5559 -0.4860 -1.1117
52168SOL    HW268484  13.146   4.723   8.700  0.1470  0.4788  0.6606
52169SOL     OW68485   4.650   9.739   1.896 -0.1629  0.6352 -0.6738
52169SOL    HW168486   4.668   9.815   1.951  0.6733  0.2454 -0.4004
52169SOL    HW268487   4.554   9.735   1.891 -0.3236 -0.0018  1.7238
52170SOL     OW68488   1.725   3.008   3.599 -0.3782  0.3726  0.0544
52170SOL    HW168489   1.762   2.999   3.687 -0.4425  0.7841  0.1283
52170SOL    HW268490   1.657   3.075   3.609  0.1619  1.0070 -0.4770
52171SOL     OW68491   8.130   6.264   2.651 -0.6830 -0.1304 -0.2211
52171SOL    HW168492   8.068   6.242   2.581 -3.1264 -1.4603  2.1370
52171SOL    HW268493   8.095   6.219   2.728  2.8726 -0.2688  1.4851
52172SOL     OW68494  11.353   6.959  11.999 -0.0291 -0.1273 -0.1366
52172SOL    HW168495  11.429   6.952  11.941 -0.0802  0.5153 -0.2924
52172SOL    HW268496  11.377   6.908  12.076  0.5189 -0.0287 -0.2377
52173SOL     OW68497   4.825  13.950   7.085 -0.1324 -0.8045 -0.3770
52173SOL    HW168498   4.905  13.900   7.100 -0.2496 -1.0240 -0.4637
52173SOL    HW268499   4.759  13.883   7.065 -0.5662 -0.7044  0.6664
52174SOL     OW68500   6.620   5.734   8.526  0.4431  0.6720  0.4183
52174SOL    HW168501   6.587   5.772   8.445  0.6979 -0.3262 -0.1676
52174SOL    HW268502   6.558   5.763   8.593  0.2072  1.4709 -0.1291
52175SOL     OW68503   2.068  10.707   5.445  0.1198  0.2614  0.3592
52175SOL    HW168504   2.035  10.696   5.356  1.0915  1.5641 -0.1900
52175SOL    HW268505   2.124  10.631   5.460 -1.8593 -1.1958  0.7634
52176SOL     OW68506   5.209   7.933   1.079  0.4948 -0.2825 -0.0766
52176SOL    HW168507   5.129   7.917   1.130  0.0174  0.0407 -0.7013
52176SOL    HW268508   5.209   7.864   1.012 -0.4797  1.0326 -1.4904
52177SOL     OW68509   2.792  13.392   2.775  0.4689 -0.4232 -0.1370
52177SOL    HW168510   2.835  13.460   2.827 -1.8928 -0.1940  1.6876
52177SOL    HW268511   2.797  13.424   2.684 -2.2163  3.3228  0.7804
52178SOL     OW68512   6.811  11.480  10.122 -0.1244  0.5619  0.0560
52178SOL    HW168513   6.765  11.425  10.185  0.5448 -0.5879 -0.4290
52178SOL    HW268514   6.747  11.547  10.097 -1.0195 -0.0985  0.5335
52179SOL     OW68515   6.945   6.131   0.236 -0.4778 -0.1744  0.5893
52179SOL    HW168516   6.927   6.037   0.239 -0.6912 -0.1155  1.1524
52179SOL    HW268517   7.037   6.136   0.210 -1.3853 -0.4651 -3.3255
52180SOL     OW68518   4.954   9.898   1.742  0.3459  0.0649 -0.1553
52180SOL    HW168519   4.910   9.828   1.694 -0.1395  1.1972 -1.4242
52180SOL    HW268520   5.046   9.891   1.715  0.2014  0.2560 -0.7017
52181SOL     OW68521  12.832  12.973  12.535 -0.3150  0.4730  0.1040
52181SOL    HW168522  12.803  13.040  12.473 -0.6462 -1.4008 -1.8621
52181SOL    HW268523  12.779  12.896  12.515  0.8935 -0.7829  1.4707
52182SOL     OW68524   5.062   4.671   8.981 -0.5832  0.7480  0.5242
52182SOL    HW168525   5.093   4.593   9.026  0.5947  0.5538 -0.5590
52182SOL    HW268526   5.098   4.663   8.892  2.0821  3.9022  1.1412
52183SOL     OW68527   6.744  11.825   0.696  0.0387  0.3950 -0.2922
52183SOL    HW168528   6.725  11.872   0.776 -0.3003 -0.7943  0.3556
52183SOL    HW268529   6.799  11.751   0.724 -1.3511 -0.9304 -0.8771
52184SOL     OW68530   5.878   1.367   2.218  0.1975 -0.9978  0.3042
52184SOL    HW168531   5.897   1.420   2.141 -1.4552  0.7340  1.0287
52184SOL    HW268532   5.918   1.282   2.199 -0.1936 -0.6418 -2.4737
52185SOL     OW68533   6.483   9.403   7.390  0.1776 -0.0050 -0.6037
52185SOL    HW168534   6.527   9.468   7.336 -0.0126 -0.0054 -0.7624
52185SOL    HW268535   6.549   9.373   7.452  0.8559 -1.1537 -1.8410
52186SOL     OW68536  13.043  13.549   7.536  0.2128  0.2295  0.1749
52186SOL    HW168537  12.961  13.549   7.486  0.5305  1.4642 -0.3855
52186SOL    HW268538  13.105  13.503   7.480 -0.3265 -1.6627  1.0580
52187SOL     OW68539   3.169   3.097   7.253 -0.4203 -0.2600 -0.3326
52187SOL    HW168540   3.080   3.130   7.263 -0.6050 -0.2469 -1.8257
52187SOL    HW268541   3.211   3.159   7.194  0.7900  0.0732  0.8367
52188SOL     OW68542  12.109   9.093   1.417  0.2198  0.1672  0.0175
52188SOL    HW168543  12.087   9.044   1.337  0.3189 -0.1360  0.1753
52188SOL    HW268544  12.141   9.177   1.385 -0.5311  0.3700 -0.2426
52189SOL     OW68545   9.082   7.457   7.417 -0.0823  0.0870  0.3839
52189SOL    HW168546   9.099   7.377   7.466 -0.0812  0.5086  1.0965
52189SOL    HW268547   9.048   7.428   7.333 -2.5811 -0.6430  1.5589
52190SOL     OW68548   3.360   3.816  11.397 -0.4171 -0.3523  0.4386
52190SOL    HW168549   3.330   3.789  11.484 -0.9549 -0.2998  0.2667
52190SOL    HW268550   3.400   3.902  11.412  0.0041 -0.5959  0.7325
52191SOL     OW68551   0.648  10.405   5.547 -0.4658  0.2808  0.0370
52191SOL    HW168552   0.680  10.326   5.503  0.1505  1.0203 -0.8657
52191SOL    HW268553   0.690  10.402   5.633  0.2137  0.0552 -0.2958
52192SOL     OW68554   8.414   3.390   3.757 -0.9655  0.5587 -0.2785
52192SOL    HW168555   8.404   3.470   3.808 -2.1283 -0.3853  1.0400
52192SOL    HW268556   8.473   3.335   3.810 -1.1314  0.0837 -0.5763
52193SOL     OW68557   9.911  11.093   9.841 -0.1637  0.2602 -0.3377
52193SOL    HW168558   9.819  11.110   9.824 -0.1224  1.4918  0.5335
52193SOL    HW268559   9.937  11.028   9.775 -1.4013  0.6045 -1.1811
52194SOL     OW68560   2.968   5.275  10.143  0.0695 -0.5592 -0.0194
52194SOL    HW168561   3.048   5.317  10.113 -0.8794  1.6703  0.3058
52194SOL    HW268562   2.926   5.244  10.063  1.2190 -1.7302 -0.1900
52195SOL     OW68563   8.192   3.644   6.565  0.4335  0.2916 -0.5172
52195SOL    HW168564   8.219   3.707   6.632  1.2038 -0.8543  0.2939
52195SOL    HW268565   8.138   3.581   6.612  0.5841 -0.2631 -1.0682
52196SOL     OW68566   7.623  10.252   1.965 -0.0555 -0.7071  0.3868
52196SOL    HW168567   7.670  10.332   1.939 -1.3843  0.3824  1.2240
52196SOL    HW268568   7.537  10.260   1.924 -0.4318 -1.3990  1.0233
52197SOL     OW68569   2.015   2.463   9.928 -0.0088  1.1588  0.2814
52197SOL    HW168570   2.106   2.455   9.959 -0.3326 -1.2238  0.7911
52197SOL    HW268571   2.023   2.481   9.835  0.9694  1.6766  0.4462
52198SOL     OW68572   8.716   7.663  13.484  0.1642 -0.1761  0.2064
52198SOL    HW168573   8.626   7.658  13.450  0.1505 -1.4811  0.3848
52198SOL    HW268574   8.763   7.596  13.434  1.2837  1.1252 -0.5484
52199SOL     OW68575   8.921  12.329   1.645 -0.2588 -0.1407  0.2313
52199SOL    HW168576   8.880  12.244   1.627 -0.4108 -0.5311  2.2185
52199SOL    HW268577   8.980  12.344   1.571 -1.5723 -1.1050 -1.0629
52200SOL     OW68578  13.486  11.969   8.888  0.1472  0.5452 -0.2067
52200SOL    HW168579  13.392  11.964   8.906 -0.5760 -1.9408 -3.6770
52200SOL    HW268580  13.495  12.041   8.826  0.3832  0.2848 -0.4786
52201SOL     OW68581   8.714   2.559   9.019 -0.1028  0.3363 -0.2917
52201SOL    HW168582   8.682   2.534   9.106 -1.1881 -0.3904 -0.8681
52201SOL    HW268583   8.668   2.501   8.959  3.2170 -1.6380 -1.1646
52202SOL     OW68584  11.420  13.229  12.807  0.8430  0.3879  0.2890
52202SOL    HW168585  11.373  13.266  12.733 -0.4311  1.6863  1.6948
52202SOL    HW268586  11.400  13.135  12.803  0.5152  0.4875 -0.7871
52203SOL     OW68587  10.651   0.340  10.263 -0.4341 -0.1217 -0.1494
52203SOL    HW168588  10.647   0.260  10.316  0.1011 -1.0969 -1.5390
52203SOL    HW268589  10.693   0.313  10.182 -1.1457  1.3731 -1.0490
52204SOL     OW68590   7.681  12.105   2.200 -0.0605 -0.2367 -0.0301
52204SOL    HW168591   7.617  12.125   2.268  0.1953 -2.2441  0.8618
52204SOL    HW268592   7.765  12.105   2.245  0.7013  2.5744 -1.2247
52205SOL     OW68593   6.056  10.403  13.026  0.4646 -0.1195 -0.4593
52205SOL    HW168594   6.085  10.465  12.958 -2.1464 -0.0250 -1.6397
52205SOL    HW268595   6.075  10.317  12.989  1.9154 -0.0657  0.1196
52206SOL     OW68596   9.256   0.059  10.789  0.9285  0.5883  0.5827
52206SOL    HW168597   9.229   0.098  10.872  1.0529  1.3533  0.2739
52206SOL    HW268598   9.177   0.018  10.754  0.4091  1.8567  0.2112
52207SOL     OW68599   8.789  11.865   5.086  0.2892  0.3544  0.5122
52207SOL    HW168600   8.823  11.795   5.031  2.3850  0.6017  1.4260
52207SOL    HW268601   8.802  11.945   5.035 -1.8954  0.2030 -0.4334
52208SOL     OW68602   5.387   1.988   6.889 -0.0634  0.0391  0.1975
52208SOL    HW168603   5.355   1.946   6.809  1.7696 -2.4815  0.6600
52208SOL    HW268604   5.423   2.072   6.859 -1.1844  0.0487 -1.2607
52209SOL     OW68605   8.755   6.757   7.934 -0.3276 -0.4234  0.3809
52209SOL    HW168606   8.719   6.704   8.005 -0.6203 -2.1516 -0.9687
52209SOL    HW268607   8.772   6.694   7.864 -1.5102  1.3833 -1.6600
52210SOL     OW68608  12.469   1.396   4.510 -0.3352  0.5055  0.0755
52210SOL    HW168609  12.497   1.378   4.600 -1.5688 -1.1644  0.1650
52210SOL    HW268610  12.399   1.334   4.494 -0.4442  1.0861 -1.9105
52211SOL     OW68611   6.951  12.270   8.578  0.6018  0.1799  0.3324
52211SOL    HW168612   6.977  12.343   8.522  0.8532 -0.2945 -0.1855
52211SOL    HW268613   6.856  12.277   8.584  0.6829  0.9297  0.8295
52212SOL     OW68614   0.971   1.388  13.754  0.5283  0.4443  0.0794
52212SOL    HW168615   0.980   1.446  13.679 -0.5693 -2.9327 -2.9767
52212SOL    HW268616   1.048   1.330  13.749 -0.6379 -1.1942  0.1528
52213SOL     OW68617  11.913   2.504   5.141 -0.1170 -0.1324  0.7708
52213SOL    HW168618  11.962   2.422   5.144  0.2049  0.0876  2.1004
52213SOL    HW268619  11.886   2.513   5.049  1.5990 -0.6827  0.1795
52214SOL     OW68620   9.844  10.393  11.063  0.7227 -0.2360  0.0082
52214SOL    HW168621   9.771  10.330  11.060  0.7891 -0.2743 -1.3425
52214SOL    HW268622   9.844  10.424  11.154 -1.5529  0.4344 -0.1622
52215SOL     OW68623   4.368  11.936  11.026  0.5477 -0.3629  0.3265
52215SOL    HW168624   4.440  11.993  11.053  0.3366 -0.1593  0.4643
52215SOL    HW268625   4.317  11.989  10.964  0.0052 -0.1757  0.9178
52216SOL     OW68626  13.700   3.720   4.725 -0.2082 -0.2384  0.0238
52216SOL    HW168627  13.678   3.805   4.763  2.2386  0.0363  1.0506
52216SOL    HW268628  13.697   3.660   4.800  0.8882 -0.4513 -0.0846
52217SOL     OW68629  11.657  11.965   4.041  0.4565 -0.5394 -0.0626
52217SOL    HW168630  11.677  11.982   3.949 -0.8530  1.3507 -0.0576
52217SOL    HW268631  11.633  11.872   4.043  0.7064 -0.6616 -1.5832
52218SOL     OW68632   2.460   6.364   7.483  0.0241  0.2313 -0.5746
52218SOL    HW168633   2.407   6.415   7.422 -3.2462 -3.0629 -0.8252
52218SOL    HW268634   2.509   6.303   7.428  1.1216  0.6348 -0.0935
52219SOL     OW68635  13.271   9.013  13.448  0.0735  0.3395 -0.0998
52219SOL    HW168636  13.230   8.937  13.489  0.0620  0.8140  0.7990
52219SOL    HW268637  13.259   9.084  13.512  1.7866  0.6249 -0.0349
52220SOL     OW68638   7.672   1.078   3.626 -0.5113  0.0863  0.3150
52220SOL    HW168639   7.666   0.982   3.628 -1.1099  0.1059  2.2159
52220SOL    HW268640   7.754   1.096   3.580 -0.7296 -1.3043 -0.6865
52221SOL     OW68641   4.828  10.067   7.581  0.4920 -0.0098 -0.3305
52221SOL    HW168642   4.916  10.029   7.583  0.2202 -0.5964  0.8405
52221SOL    HW268643   4.843  10.161   7.566  1.5555  0.4525  2.8226
52222SOL     OW68644   7.363   7.905  10.226  0.3487  0.0617 -0.3266
52222SOL    HW168645   7.428   7.837  10.208  0.0735 -0.2865 -0.0293
52222SOL    HW268646   7.389   7.942  10.310  0.8306  0.7271 -0.7590
52223SOL     OW68647   7.944   0.796   3.964  0.1378 -0.4531 -0.3591
52223SOL    HW168648   8.022   0.760   3.922  0.4613 -0.4623  0.2396
52223SOL    HW268649   7.907   0.855   3.898  0.6388 -0.4573 -0.6521
52224SOL     OW68650   3.858   7.248   2.910 -0.5321 -0.1943  0.0543
52224SOL    HW168651   3.899   7.323   2.868 -1.6825 -0.6895 -2.0547
52224SOL    HW268652   3.777   7.233   2.861 -1.5134 -1.3753  1.9040
52225SOL     OW68653   8.124  10.101  13.935 -0.4893 -0.0749  0.6217
52225SOL    HW168654   8.157  10.127  14.021 -1.9698  2.0033  0.6464
52225SOL    HW268655   8.121  10.183  13.885  0.1240 -1.1877 -1.3819
52226SOL     OW68656   4.368  13.425   1.252 -0.0751  0.0620  0.5602
52226SOL    HW168657   4.304  13.469   1.308 -1.6825 -1.2007 -0.2180
52226SOL    HW268658   4.355  13.465   1.166 -0.1082 -0.4969  0.3048
52227SOL     OW68659   9.022   8.899   2.846  0.2142  0.2351  0.0255
52227SOL    HW168660   9.118   8.893   2.848  0.3264  1.1907 -1.1007
52227SOL    HW268661   9.001   8.912   2.754 -1.1073 -1.1459  0.0983
52228SOL     OW68662   1.430  10.078   2.108 -0.4035 -0.0613 -0.0989
52228SOL    HW168663   1.411  10.143   2.176  2.6615  1.1685 -0.2476
52228SOL    HW268664   1.356  10.018   2.111 -2.5668  2.4332  1.2476
52229SOL     OW68665   2.379   2.845   6.644  0.2922  0.0672  0.2071
52229SOL    HW168666   2.440   2.832   6.572  0.5272 -0.0530  0.4257
52229SOL    HW268667   2.301   2.884   6.604  1.5015  2.8076  0.2945
52230SOL     OW68668   2.656   4.792   1.098  0.0128  0.6190 -0.6953
52230SOL    HW168669   2.707   4.727   1.147 -1.4737 -0.1175 -0.0551
52230SOL    HW268670   2.607   4.839   1.166 -1.1077  0.4496 -1.3644
52231SOL     OW68671   0.144   7.353   6.512 -0.6744  0.2196  0.4521
52231SOL    HW168672   0.233   7.326   6.489 -1.1190 -0.2130 -0.8563
52231SOL    HW268673   0.123   7.422   6.450 -1.1329  0.5673  0.9874
52232SOL     OW68674   1.322   0.564   5.141  0.4009 -0.7226 -0.1080
52232SOL    HW168675   1.416   0.554   5.154  0.5480  0.7496  0.1437
52232SOL    HW268676   1.296   0.486   5.092  1.4830 -1.8403  1.0383
52233SOL     OW68677   0.290   2.482   2.607  0.0255 -0.2750 -0.6036
52233SOL    HW168678   0.372   2.434   2.602 -1.2035 -2.7463  0.9945
52233SOL    HW268679   0.247   2.449   2.686 -2.3133  1.2612 -1.1223
52234SOL     OW68680   9.517   9.335  13.535  0.5494 -0.0710 -0.3780
52234SOL    HW168681   9.598   9.301  13.574  1.2573  1.8333 -0.0514
52234SOL    HW268682   9.453   9.334  13.606  0.6365 -0.4723 -0.3053
52235SOL     OW68683   5.951  11.087   9.578  0.2553 -0.6958 -0.2126
52235SOL    HW168684   5.978  11.111   9.667  0.2059 -0.8064 -0.1676
52235SOL    HW268685   6.027  11.108   9.523 -0.1018  0.3779 -0.3061
52236SOL     OW68686   9.523   1.489   5.790 -0.1805 -0.4675 -0.2669
52236SOL    HW168687   9.585   1.418   5.773 -0.8226 -1.4883  1.3699
52236SOL    HW268688   9.532   1.548   5.716  2.8066 -0.5383 -0.0630
52237SOL     OW68689  10.612  10.789   0.648 -0.4146  0.2656  0.0559
52237SOL    HW168690  10.549  10.785   0.577 -1.0924 -0.1804  0.6662
52237SOL    HW268691  10.559  10.782   0.728  0.3588  0.3718  0.5948
52238SOL     OW68692  12.608   1.224   1.879 -0.1759  0.3662 -0.1600
52238SOL    HW168693  12.531   1.269   1.846 -1.1422 -1.8040 -1.0659
52238SOL    HW268694  12.677   1.290   1.878 -2.2543  2.7512  1.9253
52239SOL     OW68695   7.812  11.912  11.533  0.3427  0.2160 -0.5766
52239SOL    HW168696   7.889  11.884  11.583  2.4774  1.5248 -2.8609
52239SOL    HW268697   7.798  11.842  11.469 -1.3911 -0.7215  0.7534
52240SOL     OW68698   4.941  12.146   0.470 -0.2315  0.0163  0.3490
52240SOL    HW168699   4.894  12.220   0.508 -0.0966  0.2313  0.1027
52240SOL    HW268700   4.974  12.179   0.387  0.9153  0.0799  0.8117
52241SOL     OW68701   4.012   9.019  12.471 -0.4324  0.6170 -0.5383
52241SOL    HW168702   4.018   9.007  12.377 -1.0148  2.9209 -0.9207
52241SOL    HW268703   4.086   9.075  12.494  0.7050 -1.2582  0.7120
52242SOL     OW68704   5.424   5.082  13.834  0.2127 -0.5232  0.2303
52242SOL    HW168705   5.441   5.168  13.794  1.5376 -0.8037  0.1770
52242SOL    HW268706   5.483   5.022  13.790  1.0183 -1.0313  1.9229
52243SOL     OW68707   9.788   5.832   2.162  0.6154 -0.1297  0.0864
52243SOL    HW168708   9.874   5.827   2.203  0.7381  1.6015  0.0830
52243SOL    HW268709   9.766   5.925   2.161 -1.0108 -0.4773 -0.4368
52244SOL     OW68710   2.430   4.688  10.883 -0.6080 -1.1118 -0.1876
52244SOL    HW168711   2.516   4.664  10.917 -0.4912 -2.5798 -1.4308
52244SOL    HW268712   2.373   4.614  10.905 -1.7880  0.1720  1.3084
52245SOL     OW68713   4.235   5.541   6.973  0.3640  0.5080  0.5219
52245SOL    HW168714   4.308   5.599   6.995  2.2259 -2.0996  1.8308
52245SOL    HW268715   4.262   5.455   7.006 -3.5134 -0.5464  1.4927
52246SOL     OW68716   5.653   1.333   9.297  0.0371 -0.0504  0.0834
52246SOL    HW168717   5.635   1.424   9.274  1.0506 -0.1802 -1.3863
52246SOL    HW268718   5.570   1.287   9.281 -0.5560  0.6332  1.0871
52247SOL     OW68719  10.363   1.022   0.908  0.0841  0.4105 -0.0046
52247SOL    HW168720  10.421   1.047   0.836  0.3986  0.4330  0.2572
52247SOL    HW268721  10.330   1.106   0.942 -0.1294  0.3962 -0.1761
52248SOL     OW68722   5.291  12.133  13.231  0.2298 -0.3773  0.4377
52248SOL    HW168723   5.243  12.073  13.174 -0.4478  0.8144 -0.2924
52248SOL    HW268724   5.224  12.190  13.268  0.9311  0.4333  0.5004
52249SOL     OW68725   8.278   3.820  11.090 -0.1630  0.0155  0.2266
52249SOL    HW168726   8.294   3.873  11.169  0.9239  0.1498 -0.0697
52249SOL    HW268727   8.335   3.744  11.100  0.0171  0.0572 -0.4522
52250SOL     OW68728   7.143   9.897   7.369 -0.2827  0.3612 -0.7002
52250SOL    HW168729   7.105   9.977   7.334  2.2501  0.7834 -2.7033
52250SOL    HW268730   7.156   9.841   7.293  2.2847 -0.0583 -0.0464
52251SOL     OW68731   1.055   8.050  12.736  0.4704  0.8429  0.0348
52251SOL    HW168732   0.962   8.031  12.726  0.6143 -1.0056  1.6199
52251SOL    HW268733   1.057   8.140  12.768 -0.7921  0.8509  0.1475
52252SOL     OW68734  11.506  10.522   4.008  0.2964 -0.3618 -0.2752
52252SOL    HW168735  11.431  10.582   4.002  2.0059  1.7814 -1.4891
52252SOL    HW268736  11.502  10.488   4.097 -1.4476  0.6110  0.0710
52253SOL     OW68737   8.430   8.599  10.784 -0.4622 -0.0862 -0.1915
52253SOL    HW168738   8.356   8.559  10.738 -1.5126 -0.4959  1.7731
52253SOL    HW268739   8.491   8.527  10.798 -1.2229 -0.5256  1.1003
52254SOL     OW68740   1.303   2.800   7.994  0.0699  0.1042  0.3159
52254SOL    HW168741   1.235   2.751   8.041 -0.7413  1.1080  0.2256
52254SOL    HW268742   1.364   2.732   7.964  0.1423 -0.6476  2.0219
52255SOL     OW68743   9.335   7.385   7.068  0.3789 -0.4017 -0.4672
52255SOL    HW168744   9.383   7.448   7.015 -1.5651  1.2792 -0.3736
52255SOL    HW268745   9.383   7.380   7.151  0.8909  0.4928 -0.7070
52256SOL     OW68746   8.088   9.091  12.987  0.4671  0.0508 -0.2562
52256SOL    HW168747   8.119   9.035  12.916 -0.8578  0.0614 -0.8749
52256SOL    HW268748   8.168   9.127  13.026  1.2480 -0.6093 -1.1993
52257SOL     OW68749   6.460   1.832  13.229  0.2527  0.3477  0.0493
52257SOL    HW168750   6.380   1.884  13.238 -0.1073 -0.0998 -0.5134
52257SOL    HW268751   6.440   1.749  13.272  0.8117  0.6403  0.9072
52258SOL     OW68752   4.051   6.108   1.169  0.2148  0.4746  0.7017
52258SOL    HW168753   4.058   6.041   1.237 -0.0148  1.0226  1.2732
52258SOL    HW268754   3.971   6.085   1.122  1.0647 -0.6738 -0.2470
52259SOL     OW68755   3.010   8.468   2.941 -0.0438  0.1455 -0.2943
52259SOL    HW168756   3.022   8.376   2.920 -1.2140  0.2518 -1.5764
52259SOL    HW268757   3.003   8.470   3.037 -1.6155 -1.3290 -0.3275
52260SOL     OW68758  13.500   1.510  10.505 -0.1012 -0.5435  0.0751
52260SOL    HW168759  13.573   1.569  10.485  0.5792 -1.5720 -0.5371
52260SOL    HW268760  13.438   1.523  10.433 -0.7445  0.6231  0.7970
52261SOL     OW68761   7.985   1.753   3.849  0.0212 -0.0829  0.4206
52261SOL    HW168762   7.996   1.798   3.766 -1.5804 -1.2685 -0.4999
52261SOL    HW268763   7.992   1.822   3.915  0.5706  0.9957 -0.7357
52262SOL     OW68764   1.435   6.276  12.047  0.5066  0.4455 -0.1632
52262SOL    HW168765   1.404   6.355  12.091 -0.1477  1.0016 -1.5627
52262SOL    HW268766   1.489   6.231  12.113  0.6133  1.8760  0.7611
52263SOL     OW68767   9.393  10.546  12.166  0.5422 -0.1791 -0.0219
52263SOL    HW168768   9.446  10.471  12.138  1.7010  0.6313 -0.0797
52263SOL    HW268769   9.456  10.609  12.201 -0.4508  0.5865  0.4634
52264SOL     OW68770   1.119   4.525   3.298  0.0535  0.5161 -0.2304
52264SOL    HW168771   1.214   4.516   3.298  0.2712  2.1708 -1.5164
52264SOL    HW268772   1.089   4.474   3.373  1.9501 -0.0126  0.2123
52265SOL     OW68773  12.552   9.606   7.539 -0.3460  0.0181  0.9251
52265SOL    HW168774  12.606   9.587   7.462 -0.7809 -1.7454  0.9907
52265SOL    HW268775  12.545   9.701   7.542 -0.0749  0.1306 -1.0446
52266SOL     OW68776  10.431   9.450   3.220 -0.4580 -0.5093  0.2270
52266SOL    HW168777  10.399   9.516   3.281  0.1215  0.3400 -0.3603
52266SOL    HW268778  10.513   9.420   3.257 -0.7407 -0.9407  0.5134
52267SOL     OW68779   8.454   9.227  13.914  0.0452 -0.4429  0.1999
52267SOL    HW168780   8.537   9.269  13.894  0.4160 -1.4070 -0.3390
52267SOL    HW268781   8.413   9.214  13.829 -0.7366  0.1562  0.4725
52268SOL     OW68782   9.526  11.705   4.652 -0.4976 -0.5566 -0.3344
52268SOL    HW168783   9.436  11.675   4.652 -0.1439 -1.6748 -0.4640
52268SOL    HW268784   9.566  11.662   4.728  0.1283 -0.7736 -0.7687
52269SOL     OW68785   2.737   5.435  10.257  0.0453  0.0155 -0.1961
52269SOL    HW168786   2.730   5.424  10.163  1.4250 -1.0083 -0.2202
52269SOL    HW268787   2.761   5.348  10.290 -1.6659  0.0294  1.2695
52270SOL     OW68788   3.116   9.681   7.410 -0.0774  0.7732  0.0979
52270SOL    HW168789   3.099   9.675   7.316 -0.5225 -0.2983  0.2302
52270SOL    HW268790   3.049   9.741   7.443 -1.0406 -0.2119 -0.0180
52271SOL     OW68791   2.648   4.630   2.967  0.1636 -0.3673  0.6690
52271SOL    HW168792   2.632   4.578   2.888 -0.3516 -1.4727  1.4738
52271SOL    HW268793   2.687   4.711   2.935  1.9699 -1.6483 -0.5555
52272SOL     OW68794   8.225   1.225  12.035 -0.3842 -0.1306 -0.7014
52272SOL    HW168795   8.169   1.284  12.085  0.2493  0.2017 -0.3816
52272SOL    HW268796   8.314   1.247  12.062 -0.0195  0.0916 -2.0159
52273SOL     OW68797   9.557   1.543  10.680 -0.4523  0.3701  0.0240
52273SOL    HW168798   9.565   1.609  10.749 -0.4166 -0.6696  1.0419
52273SOL    HW268799   9.647   1.523  10.656 -0.3054 -1.3805  1.7851
52274SOL     OW68800   6.470   9.845   0.946  0.0395 -0.0972  0.2108
52274SOL    HW168801   6.405   9.787   0.906  1.5478 -0.4266 -1.9064
52274SOL    HW268802   6.554   9.809   0.919  1.0831  1.4784  1.2013
52275SOL     OW68803   6.336  11.851   1.697 -0.2588 -0.0490 -0.2289
52275SOL    HW168804   6.339  11.913   1.623 -0.2750 -0.5093 -0.6202
52275SOL    HW268805   6.291  11.899   1.766 -1.9773 -0.2517 -1.1470
52276SOL     OW68806   2.057  13.748   5.560  0.1155 -0.3317  0.8938
52276SOL    HW168807   2.113  13.725   5.634  1.0007 -0.6531  0.1481
52276SOL    HW268808   1.997  13.674   5.551  0.3602 -0.5413  0.9634
52277SOL     OW68809   9.506  12.628   7.488 -0.1006 -0.7413  0.1679
52277SOL    HW168810   9.495  12.624   7.582 -1.2236  0.7181  0.1372
52277SOL    HW268811   9.596  12.598   7.472 -0.4141 -2.5495  1.5154
52278SOL     OW68812   4.218  11.633   2.320 -0.8232  0.5552 -0.3063
52278SOL    HW168813   4.191  11.648   2.230 -0.5897 -0.1139 -0.4883
52278SOL    HW268814   4.197  11.541   2.337  0.0182  0.4149  0.0059
52279SOL     OW68815   7.302   6.315   0.514  0.1780  0.1495  0.7429
52279SOL    HW168816   7.335   6.359   0.592  0.4364  0.4381  0.4737
52279SOL    HW268817   7.274   6.386   0.457  2.1208  0.0823 -0.3858
52280SOL     OW68818   1.374   3.625   4.169 -0.2212 -0.0256  0.4634
52280SOL    HW168819   1.344   3.588   4.252 -2.0182 -1.9967 -0.9513
52280SOL    HW268820   1.309   3.693   4.148  0.8232  1.2097  1.1385
52281SOL     OW68821  13.170   3.552   5.623 -0.0477 -0.1158 -0.2610
52281SOL    HW168822  13.079   3.571   5.646 -0.0933 -0.3346 -0.2628
52281SOL    HW268823  13.221   3.584   5.697 -0.1950 -0.8281  0.1474
52282SOL     OW68824  12.485   2.745  12.068  0.1853 -0.5629  0.4421
52282SOL    HW168825  12.479   2.697  11.986  0.6657  0.6626 -0.3389
52282SOL    HW268826  12.473   2.837  12.043  1.5026 -0.0543  1.5688
52283SOL     OW68827   9.026   7.651  13.777  0.5446  0.0701  0.1357
52283SOL    HW168828   8.959   7.636  13.710  1.1978  0.2015 -0.5547
52283SOL    HW268829   9.063   7.736  13.755 -0.1564  0.7661  1.4741
52284SOL     OW68830   2.494   6.589   4.140  0.2274  0.2382 -0.0416
52284SOL    HW168831   2.514   6.683   4.132 -2.2365  0.7048 -1.5609
52284SOL    HW268832   2.421   6.586   4.202  0.0246 -0.6404 -0.3217
52285SOL     OW68833   4.735   4.686  13.712 -0.2719  0.0986  0.0593
52285SOL    HW168834   4.717   4.668  13.805  0.1604 -2.6872 -0.2990
52285SOL    HW268835   4.709   4.606  13.667  1.1985  0.7046 -2.0203
52286SOL     OW68836   6.154  11.212  13.464  0.0386  0.0279 -0.5860
52286SOL    HW168837   6.105  11.143  13.509  1.0552 -1.8896 -2.2711
52286SOL    HW268838   6.226  11.233  13.524 -0.6091  0.0592  0.1943
52287SOL     OW68839   3.772   9.338   5.264 -0.2843 -0.1150  0.9390
52287SOL    HW168840   3.768   9.243   5.273  2.5541 -0.5417 -1.1694
52287SOL    HW268841   3.726   9.357   5.182 -0.5775  0.3407  1.1984
52288SOL     OW68842   1.662   1.860  11.553  0.1862  0.2545 -0.0015
52288SOL    HW168843   1.594   1.794  11.566 -0.9533  1.3182 -0.2632
52288SOL    HW268844   1.698   1.876  11.640 -1.5351  1.3136  0.5824
52289SOL     OW68845   6.460  13.256   9.385  0.1443 -0.5164 -0.5279
52289SOL    HW168846   6.473  13.350   9.397  0.5247 -0.6284 -0.0299
52289SOL    HW268847   6.365  13.244   9.389  0.1699 -0.4634  1.9977
52290SOL     OW68848  10.913  13.560   6.962 -0.4407 -0.3716  0.6148
52290SOL    HW168849  10.959  13.521   7.036 -0.6461 -0.3759  0.7386
52290SOL    HW268850  10.959  13.643   6.946 -0.1908 -0.5227  0.5367
52291SOL     OW68851   1.464   9.952  11.221 -0.3946  0.9374 -0.1799
52291SOL    HW168852   1.428  10.003  11.148  0.6348  1.0532 -0.6259
52291SOL    HW268853   1.552   9.987  11.233  1.0884 -1.9532 -1.7453
52292SOL     OW68854   2.501  11.635  13.135  0.7447  0.8727 -0.0665
52292SOL    HW168855   2.449  11.679  13.201 -3.1291  0.7528 -2.7162
52292SOL    HW268856   2.576  11.693  13.121 -0.1120  2.6014  1.9533
52293SOL     OW68857   9.006   6.246   1.829 -0.1079  0.3488  0.0885
52293SOL    HW168858   9.018   6.301   1.752  0.1980 -0.3059 -0.3416
52293SOL    HW268859   8.916   6.263   1.857  0.6093  2.6295  1.2243
52294SOL     OW68860  11.775   6.546  11.564  0.3625  0.2691  0.3949
52294SOL    HW168861  11.810   6.590  11.642  2.0442  0.7632 -0.5939
52294SOL    HW268862  11.792   6.453  11.579 -0.7062  0.1952  1.2685
52295SOL     OW68863  10.708   3.634   8.672 -0.2371 -0.3194  0.1590
52295SOL    HW168864  10.789   3.595   8.705 -0.7490 -1.1490  0.4573
52295SOL    HW268865  10.711   3.725   8.703  0.7454 -0.2386 -0.1464
52296SOL     OW68866   1.308  11.246  13.451  0.3613 -0.2230  0.0285
52296SOL    HW168867   1.318  11.152  13.433  2.1122  0.0751 -0.6856
52296SOL    HW268868   1.219  11.253  13.485 -0.3097 -1.9568 -1.1655
52297SOL     OW68869   8.565   6.830   2.612 -0.0169 -0.5667  0.5377
52297SOL    HW168870   8.525   6.812   2.527  0.4860 -1.8998  0.5657
52297SOL    HW268871   8.528   6.915   2.638  0.2475  0.1405 -1.2581
52298SOL     OW68872   0.699   7.512   4.630 -0.2529 -0.3485  0.3865
52298SOL    HW168873   0.641   7.553   4.693  1.0876  2.5285 -0.0898
52298SOL    HW268874   0.787   7.527   4.665  0.4250 -0.2973 -1.2510
52299SOL     OW68875  10.006  13.063   7.844  0.0170 -0.2450 -0.1136
52299SOL    HW168876  10.064  13.020   7.907  0.5023  1.0800  0.3705
52299SOL    HW268877  10.063  13.123   7.796 -0.7313  0.1749 -0.4861
52300SOL     OW68878  10.400   7.503   3.645 -0.2363 -0.3957 -0.1794
52300SOL    HW168879  10.489   7.494   3.678 -0.4760 -3.1766 -0.0881
52300SOL    HW268880  10.399   7.455   3.562 -1.5741 -0.1175 -0.3559
52301SOL     OW68881   9.792   5.736   4.971  0.1557 -0.4938  0.1515
52301SOL    HW168882   9.741   5.815   4.957  1.3319  0.0508 -1.3810
52301SOL    HW268883   9.762   5.676   4.902  2.1272  0.1635 -1.3634
52302SOL     OW68884  11.902   8.894   1.889 -0.4137  0.3263  0.0040
52302SOL    HW168885  11.903   8.942   1.806  0.6271  0.4243  0.0509
52302SOL    HW268886  11.852   8.950   1.948 -0.7579  0.4822 -0.4281
52303SOL     OW68887  10.384   4.944   3.920 -0.2205  0.1613 -0.5830
52303SOL    HW168888  10.454   4.884   3.945 -1.3127 -0.8711  0.0879
52303SOL    HW268889  10.368   4.926   3.828  0.1431  0.1369 -0.6415
52304SOL     OW68890  10.920   4.548   2.740  0.0754  0.6963  0.0691
52304SOL    HW168891  10.870   4.528   2.661  1.1356 -0.1259 -0.4200
52304SOL    HW268892  10.975   4.622   2.715  0.0310  0.7755  0.2061
52305SOL     OW68893   4.034   8.973  11.184  0.0941  0.1622 -0.3734
52305SOL    HW168894   4.016   9.015  11.100 -1.1503 -0.9767 -0.7181
52305SOL    HW268895   4.112   8.919  11.167  0.3393  0.5657 -0.5561
52306SOL     OW68896  13.566   3.974   6.870 -0.3727 -0.3096 -0.0200
52306SOL    HW168897  13.562   3.907   6.938 -1.3327 -0.3839 -0.1359
52306SOL    HW268898  13.475   4.002   6.858 -0.1640  0.0106 -0.9633
52307SOL     OW68899  12.674   4.835   7.637  0.4137 -0.0233  0.0962
52307SOL    HW168900  12.681   4.743   7.613 -0.0881  0.4813 -2.2725
52307SOL    HW268901  12.624   4.875   7.565  0.2887  2.0362  1.2320
52308SOL     OW68902   6.280   5.275  10.170  0.6181  0.2800  0.6454
52308SOL    HW168903   6.216   5.301  10.104 -0.3011 -1.6918  0.6889
52308SOL    HW268904   6.235   5.287  10.254  0.1568 -1.2925  0.6681
52309SOL     OW68905   4.642  10.415  12.088  0.6227 -0.0873  1.0600
52309SOL    HW168906   4.710  10.397  12.154  0.4069 -1.7945  0.8619
52309SOL    HW268907   4.563  10.374  12.123  0.2174  0.0054  0.2721
52310SOL     OW68908   7.915  10.642   9.913 -0.1552  0.1154  0.3182
52310SOL    HW168909   7.969  10.700   9.860  0.8815 -0.9712  0.1320
52310SOL    HW268910   7.975  10.606   9.978 -0.9412 -0.1644  0.9062
52311SOL     OW68911  10.381   4.379   3.124 -0.4023  0.1294 -0.3770
52311SOL    HW168912  10.443   4.402   3.055 -0.8068  0.7980 -0.5320
52311SOL    HW268913  10.425   4.403   3.205 -0.7935  1.4705 -0.5303
52312SOL     OW68914   5.903   1.480   1.967 -0.4139 -0.2531 -0.0177
52312SOL    HW168915   5.915   1.572   1.947 -4.0580  0.0754 -1.4609
52312SOL    HW268916   5.911   1.435   1.883 -0.1686 -1.0772  0.4278
52313SOL     OW68917   3.965   1.141   0.287  0.2766  0.5140  0.0254
52313SOL    HW168918   4.042   1.181   0.247  0.8739  0.3412  0.9697
52313SOL    HW268919   3.941   1.201   0.358 -0.4846  0.5849 -0.2818
52314SOL     OW68920   3.216   5.338   0.420 -0.0457  0.0844 -0.0457
52314SOL    HW168921   3.190   5.309   0.508 -0.0724 -0.2224 -0.1534
52314SOL    HW268922   3.198   5.263   0.364  0.7952 -0.0319 -0.1716
52315SOL     OW68923  11.464  13.465   9.153 -0.1201 -0.8208  0.2265
52315SOL    HW168924  11.472  13.552   9.193  0.0806  0.2149 -1.9486
52315SOL    HW268925  11.401  13.477   9.082  0.4128 -2.2972 -0.5358
52316SOL     OW68926   4.388  11.517   4.866 -0.0009 -0.3288  0.4643
52316SOL    HW168927   4.474  11.560   4.861 -1.5806  3.1016 -0.9956
52316SOL    HW268928   4.402  11.432   4.824  2.3401  0.8865 -1.5560
52317SOL     OW68929   1.185  12.715   1.928 -0.0447  0.1300  0.2492
52317SOL    HW168930   1.180  12.738   2.021  0.1164 -1.2819  0.6367
52317SOL    HW268931   1.235  12.786   1.888  2.3532 -0.5791  1.7590
52318SOL     OW68932   2.558   8.134   8.376 -0.2296 -0.1125  0.4541
52318SOL    HW168933   2.552   8.115   8.283 -1.4168  2.2296 -0.0076
52318SOL    HW268934   2.641   8.179   8.387 -0.7785  0.9641  0.2477
52319SOL     OW68935   8.775   6.217   6.386  0.0448  0.2855  0.1489
52319SOL    HW168936   8.823   6.278   6.330 -0.2041 -1.0991 -1.6786
52319SOL    HW268937   8.843   6.171   6.435  0.4804 -0.1458 -0.8164
52320SOL     OW68938  13.404  13.540  13.551 -0.6278  0.3451  0.1028
52320SOL    HW168939  13.326  13.487  13.535  0.0086 -0.0707 -2.0126
52320SOL    HW268940  13.374  13.630  13.544 -1.2237  0.2194  1.0033
52321SOL     OW68941   1.997   6.211   7.540  0.4432  0.1716  0.5384
52321SOL    HW168942   1.955   6.157   7.473  0.9990  0.6291 -0.1887
52321SOL    HW268943   2.090   6.211   7.516  0.5666  0.8015  0.9885
52322SOL     OW68944  11.581  11.087   8.442 -0.3154 -0.3680 -0.3439
52322SOL    HW168945  11.488  11.066   8.437 -0.2959 -0.4374 -0.4011
52322SOL    HW268946  11.601  11.088   8.535 -0.2050 -1.0718 -0.3548
52323SOL     OW68947   8.953   2.630   2.329  0.4942  0.2632  0.2341
52323SOL    HW168948   9.006   2.568   2.279  0.6425  0.2894  0.3587
52323SOL    HW268949   8.882   2.577   2.365  1.6269 -0.2088  1.8717
52324SOL     OW68950   6.923  11.416  10.823 -0.2518 -0.1833  0.2034
52324SOL    HW168951   7.011  11.446  10.798 -0.1196 -1.4199 -0.9343
52324SOL    HW268952   6.939  11.346  10.885 -0.2901 -1.8291 -1.5365
52325SOL     OW68953   6.685  12.697   4.270  0.1849  0.0627  0.3895
52325SOL    HW168954   6.679  12.618   4.323 -0.7267 -1.3023 -1.6038
52325SOL    HW268955   6.777  12.702   4.245  0.1823 -0.5986  0.2265
52326SOL     OW68956   0.073   3.515   0.618  0.1069  0.0648 -0.6443
52326SOL    HW168957   0.167   3.534   0.622  0.1979 -0.5332  1.6205
52326SOL    HW268958   0.068   3.419   0.624 -0.6699  0.1524  0.2163
52327SOL     OW68959   4.023   7.460   1.245 -0.3201  0.0329 -0.8827
52327SOL    HW168960   3.966   7.525   1.205 -1.5016  1.0787  2.1749
52327SOL    HW268961   4.106   7.467   1.197 -0.4057  3.7819 -0.7723
52328SOL     OW68962  13.306   3.745   7.471 -0.4180  0.0342 -0.0176
52328SOL    HW168963  13.311   3.661   7.425 -0.8984  0.5694 -1.0494
52328SOL    HW268964  13.326   3.811   7.405 -1.1967  0.8234  0.5101
52329SOL     OW68965   1.741   3.958   3.740  0.6208 -0.0652  0.2300
52329SOL    HW168966   1.719   3.919   3.825 -0.8270  0.1323 -0.0207
52329SOL    HW268967   1.733   3.886   3.678  0.2067  0.1086  0.0755
52330SOL     OW68968   5.915  10.363  11.018 -0.1526  0.0751 -0.0095
52330SOL    HW168969   5.910  10.420  11.095  1.4167  0.0906  0.1042
52330SOL    HW268970   5.950  10.280  11.052 -0.8317 -0.4153 -0.4703
52331SOL     OW68971  10.898   2.938   9.648  0.4110 -0.4052  0.0260
52331SOL    HW168972  10.822   2.963   9.699  0.2399  2.7684 -1.5626
52331SOL    HW268973  10.971   2.945   9.710 -0.2559 -0.9555  0.9061
52332SOL     OW68974   6.062   7.273   9.822  0.2275 -0.1609 -0.3483
52332SOL    HW168975   6.030   7.327   9.749 -2.1275 -0.9558  0.0094
52332SOL    HW268976   6.060   7.331   9.898 -1.7132 -0.5001 -0.0855
52333SOL     OW68977   5.724   0.418   3.140 -0.4368  0.0186 -0.2818
52333SOL    HW168978   5.653   0.422   3.204  0.6854 -0.0416  1.0354
52333SOL    HW268979   5.696   0.352   3.077 -0.2664 -2.4034  1.9617
52334SOL     OW68980   3.059   4.812   4.736  0.5413  0.0821 -0.0881
52334SOL    HW168981   2.989   4.829   4.798  1.4861  0.2700  0.9651
52334SOL    HW268982   3.015   4.776   4.659 -0.6598 -0.1263  0.6724
52335SOL     OW68983   7.611  11.088  11.952 -0.5213  0.1725  0.0425
52335SOL    HW168984   7.584  11.056  12.038 -0.5678 -0.0092 -0.0392
52335SOL    HW268985   7.694  11.044  11.935 -1.0653 -0.6603 -0.4967
52336SOL     OW68986   6.294   3.042  12.719  0.2268 -0.3786 -0.0083
52336SOL    HW168987   6.238   3.042  12.796  1.9651 -0.6480  1.2987
52336SOL    HW268988   6.249   2.984  12.657 -1.3720  0.1209  0.6381
52337SOL     OW68989  11.438  10.573  12.265  0.1864  0.2497  0.2541
52337SOL    HW168990  11.495  10.619  12.326  0.6342 -0.0893  0.0949
52337SOL    HW268991  11.360  10.628  12.259  0.0280  0.1577  1.3244
52338SOL     OW68992  13.264   7.227   5.545  0.7469  0.0777 -0.2616
52338SOL    HW168993  13.281   7.135   5.565 -0.0482 -0.3359 -1.3723
52338SOL    HW268994  13.170   7.239   5.561  0.9521  0.8701  0.4566
52339SOL     OW68995   7.820  10.026  10.977  0.4937  0.0489 -0.5748
52339SOL    HW168996   7.775   9.942  10.967 -0.8477  0.7323 -0.5177
52339SOL    HW268997   7.824  10.039  11.072  0.7537  0.0294 -0.5822
52340SOL     OW68998   8.364   6.411  13.660  0.1567 -0.5361 -0.6284
52340SOL    HW168999   8.311   6.401  13.581 -1.4930 -1.0919  0.4983
52340SOL    HW269000   8.354   6.328  13.706 -0.1160  0.2840  0.8594
52341SOL     OW69001  12.495   7.545   8.129  0.2514  0.4663  0.2781
52341SOL    HW169002  12.511   7.495   8.049  2.2148  2.3411 -0.6182
52341SOL    HW269003  12.404   7.528   8.151  0.4689 -2.4198 -0.6517
52342SOL     OW69004  13.632  13.197   5.924 -0.4674  0.0688  0.0173
52342SOL    HW169005  13.698  13.141   5.965  0.8312  1.8623  0.4860
52342SOL    HW269006  13.584  13.139   5.866  0.7995 -1.5310  0.5014
52343SOL     OW69007  13.569   9.668   8.116 -0.4600 -0.2153  0.0719
52343SOL    HW169008  13.499   9.686   8.053 -0.5746  1.8616  0.7075
52343SOL    HW269009  13.649   9.698   8.073 -0.4546  0.6238  0.6443
52344SOL     OW69010   8.687   2.430   3.492  0.0056 -0.8954 -0.2533
52344SOL    HW169011   8.693   2.519   3.526 -0.9032 -1.2984  1.0318
52344SOL    HW269012   8.771   2.415   3.449  0.8275 -0.0092  0.9938
52345SOL     OW69013   6.310  11.857  11.540 -0.2835  0.4181 -0.1428
52345SOL    HW169014   6.338  11.782  11.487 -1.1852  0.2876 -0.4492
52345SOL    HW269015   6.221  11.835  11.567  0.3414  0.2357  1.8973
52346SOL     OW69016   4.516   1.954  10.648  0.2627 -0.1798 -0.1835
52346SOL    HW169017   4.462   1.877  10.633  0.7600 -0.6089  0.1910
52346SOL    HW269018   4.575   1.929  10.719  0.0242  0.7565  0.3586
52347SOL     OW69019  12.472   9.614   4.433  0.4014  0.0448  0.1628
52347SOL    HW169020  12.450   9.597   4.341  1.4479 -0.7876  0.0492
52347SOL    HW269021  12.561   9.648   4.430  1.0127 -1.4196  0.9658
52348SOL     OW69022  11.538   7.772   4.390 -0.0484  0.1791  0.4305
52348SOL    HW169023  11.512   7.820   4.311  1.4817 -0.6660 -0.6279
52348SOL    HW269024  11.633   7.774   4.389  0.0117  0.2147  2.3298
52349SOL     OW69025   0.713  13.829   5.751  0.3909  0.9408  0.2196
52349SOL    HW169026   0.772  13.810   5.679  1.1225  0.3201  0.9631
52349SOL    HW269027   0.625  13.822   5.713  0.6957 -1.1524 -0.2262
52350SOL     OW69028  10.166  11.877  12.455  0.1487  0.4008 -0.9285
52350SOL    HW169029  10.179  11.879  12.361 -2.4559  0.5066 -1.3712
52350SOL    HW269030  10.175  11.969  12.483  1.5838  0.2768 -0.9343
52351SOL     OW69031  12.219   0.934   1.186  0.3003  0.7539  0.3259
52351SOL    HW169032  12.222   0.892   1.100 -0.4325  1.4834 -0.0733
52351SOL    HW269033  12.266   0.875   1.244 -1.2279 -0.9358 -0.0789
52352SOL     OW69034   5.894   2.556  10.432  0.5552 -0.1946  0.5507
52352SOL    HW169035   5.860   2.505  10.359 -0.7692  0.0721  0.9469
52352SOL    HW269036   5.825   2.620  10.450  1.9768  1.4637  0.3382
52353SOL     OW69037   8.200  10.826   4.595 -0.3691  0.4243 -0.4042
52353SOL    HW169038   8.154  10.743   4.581 -1.4227  0.9141  0.0449
52353SOL    HW269039   8.287  10.812   4.558 -1.2133 -0.1755 -2.3018
52354SOL     OW69040   3.436   9.605  14.039  0.2932  0.1342  0.3301
52354SOL    HW169041   3.383   9.680  14.064 -0.7856 -0.8228  1.0251
52354SOL    HW269042   3.452   9.558  14.121 -1.0646 -1.6439 -0.3409
52355SOL     OW69043   8.409   4.313  12.606  0.1931 -0.0085  0.0029
52355SOL    HW169044   8.408   4.358  12.521 -1.0919 -2.4383 -1.4103
52355SOL    HW269045   8.340   4.356  12.657 -0.4442  0.1867 -0.9946
52356SOL     OW69046   1.715   7.418   3.905 -0.4655  0.0062  0.5013
52356SOL    HW169047   1.743   7.495   3.856  2.5751 -2.2576 -1.6858
52356SOL    HW269048   1.747   7.433   3.994 -0.2445  1.3952  0.2066
52357SOL     OW69049   2.409  11.486  11.024 -0.0388 -0.0112 -0.0220
52357SOL    HW169050   2.433  11.533  10.944  2.9582  1.6918  1.6726
52357SOL    HW269051   2.459  11.405  11.020  0.1217  0.0798  0.1109
52358SOL     OW69052   0.949   2.798   2.002  0.3627 -0.0488 -0.3820
52358SOL    HW169053   0.971   2.844   1.921 -0.7344  1.6375  0.1989
52358SOL    HW269054   1.032   2.789   2.048  0.9078 -0.4961 -1.4273
52359SOL     OW69055   4.000   7.598   7.715 -0.0586  0.1728  0.3215
52359SOL    HW169056   4.047   7.679   7.733  0.6817 -0.4430  1.2462
52359SOL    HW269057   3.967   7.569   7.800 -0.4108 -0.4383 -0.0152
52360SOL     OW69058   3.004   6.822  13.517  0.5816  0.2258  0.1183
52360SOL    HW169059   3.066   6.808  13.588 -0.5540 -0.7407  0.9671
52360SOL    HW269060   3.047   6.885  13.459  2.2553 -0.2807  0.7613
52361SOL     OW69061  13.904   0.116   1.912 -0.1613  0.0203 -0.8504
52361SOL    HW169062  13.977   0.118   1.973 -1.7792 -0.0544  1.1978
52361SOL    HW269063  13.910   0.030   1.870  0.7663 -0.0860 -0.5179
52362SOL     OW69064   0.317   4.651   0.969 -0.1779 -0.7620  0.7891
52362SOL    HW169065   0.325   4.564   1.009 -0.0356 -0.3197  1.7478
52362SOL    HW269066   0.229   4.679   0.991 -0.8441 -1.3390 -0.9642
52363SOL     OW69067   5.077   8.324  11.990 -0.3223 -0.2155 -0.1641
52363SOL    HW169068   5.089   8.418  12.001 -0.1346 -0.3335  0.7225
52363SOL    HW269069   5.149   8.296  11.934  1.5359 -0.3200  2.1183
52364SOL     OW69070   8.397   6.117   8.236  0.4064 -0.6375 -0.2692
52364SOL    HW169071   8.434   6.144   8.320  0.6485 -0.2607 -0.4942
52364SOL    HW269072   8.448   6.039   8.212  0.3425 -0.7428 -0.0754
52365SOL     OW69073  13.992   0.297   1.518  0.3319 -0.1880 -0.2094
52365SOL    HW169074  13.916   0.244   1.493 -0.6590  0.9443  0.2869
52365SOL    HW269075  14.057   0.234   1.549 -0.0933 -1.2492 -1.3734
52366SOL     OW69076   4.178   5.581  10.679 -0.3374  0.2597  0.4968
52366SOL    HW169077   4.195   5.492  10.651  0.0741  0.3941  0.3186
52366SOL    HW269078   4.082   5.587  10.685 -0.5246  0.5438 -1.9601
52367SOL     OW69079  10.216  12.581   9.087  0.2900  0.1263 -0.1522
52367SOL    HW169080  10.236  12.619   9.002 -1.0934  0.2145 -0.4587
52367SOL    HW269081  10.123  12.602   9.102  0.3823 -0.2901  1.1595
52368SOL     OW69082   9.503   5.058   7.587  0.2912  0.2453  0.0114
52368SOL    HW169083   9.462   5.081   7.670 -1.3460  0.0323 -0.6949
52368SOL    HW269084   9.576   5.001   7.611 -0.6194 -0.4358  1.2651
52369SOL     OW69085   9.351   8.181   7.921 -0.0265 -0.1540 -0.2727
52369SOL    HW169086   9.368   8.088   7.903 -0.3333 -0.1659 -0.5143
52369SOL    HW269087   9.417   8.227   7.869  0.2217 -0.2420 -0.0364
52370SOL     OW69088   7.480  11.831   9.464 -0.5432 -0.5400  0.2213
52370SOL    HW169089   7.460  11.918   9.429  1.1973  0.0607  0.6163
52370SOL    HW269090   7.508  11.848   9.554  0.9292 -1.3614 -0.0509
52371SOL     OW69091   6.741   0.651   7.813  0.2066 -0.2647  0.0842
52371SOL    HW169092   6.772   0.576   7.863  3.2867 -0.6223 -2.1163
52371SOL    HW269093   6.762   0.727   7.868  2.3213 -0.7213 -0.0197
52372SOL     OW69094   5.641   7.505   6.139 -0.5854 -0.4568 -0.6054
52372SOL    HW169095   5.626   7.565   6.066 -0.7817 -0.3926 -0.5130
52372SOL    HW269096   5.632   7.418   6.101 -1.2303 -0.4206 -0.5480
52373SOL     OW69097  10.457   6.055   3.765 -0.7997 -0.0921  0.4142
52373SOL    HW169098  10.433   5.978   3.713 -0.4957  1.0389 -1.4869
52373SOL    HW269099  10.551   6.046   3.779 -0.8947 -0.4350  0.9010
52374SOL     OW69100  10.125   0.559   0.581 -0.6537  0.1604  0.4935
52374SOL    HW169101  10.061   0.619   0.619 -0.5270  0.0845  0.8276
52374SOL    HW269102  10.159   0.606   0.505 -0.4430  0.5800  0.8410
52375SOL     OW69103   4.989   1.832  11.473 -0.1379  0.0849  0.4751
52375SOL    HW169104   5.043   1.757  11.497 -1.7173 -0.7367  1.7246
52375SOL    HW269105   4.983   1.827  11.377  1.8294  0.1447  0.3096
52376SOL     OW69106   2.751   2.310   1.001  0.7262  0.5825  0.4113
52376SOL    HW169107   2.807   2.283   1.074  0.1727 -2.0926 -0.0641
52376SOL    HW269108   2.808   2.310   0.925  1.1466  2.7426  0.6432
52377SOL     OW69109   1.939   1.065  11.621 -0.3147 -0.1136  0.0689
52377SOL    HW169110   1.973   1.152  11.600  1.0448 -0.2798  1.4127
52377SOL    HW269111   1.889   1.078  11.702  1.1681 -0.7834  1.1536
52378SOL     OW69112   9.778   4.840  11.924 -0.0259  0.1973  0.1999
52378SOL    HW169113   9.696   4.865  11.881 -0.0201  0.2172  0.2000
52378SOL    HW269114   9.820   4.780  11.863 -0.0977  0.0927  0.2538
52379SOL     OW69115   2.206   5.225   8.307 -0.2577 -0.3717  0.5803
52379SOL    HW169116   2.122   5.180   8.316  0.3662 -1.7083  0.1178
52379SOL    HW269117   2.190   5.295   8.244 -1.1060 -0.3610  0.7987
52380SOL     OW69118  13.482   0.184  12.153 -0.2398  0.2907  0.2839
52380SOL    HW169119  13.553   0.213  12.095 -0.7516  0.6404 -0.1794
52380SOL    HW269120  13.433   0.264  12.173  0.1053  0.2220  1.4594
52381SOL     OW69121  10.095  11.397   1.950 -0.2620 -0.2937  0.9142
52381SOL    HW169122  10.091  11.476   1.896 -1.6833 -0.5930  0.5109
52381SOL    HW269123  10.171  11.409   2.007  0.7545  0.4364 -0.5433
52382SOL     OW69124  10.242   8.453   4.579 -0.4137  0.4636  0.7889
52382SOL    HW169125  10.201   8.401   4.510 -0.7141  0.6748  0.8079
52382SOL    HW269126  10.291   8.390   4.631 -0.8978  0.1811  0.8982
52383SOL     OW69127   0.815   3.917   6.738  0.2762  0.6707  0.5352
52383SOL    HW169128   0.813   3.996   6.793 -1.8776 -0.6269  2.4892
52383SOL    HW269129   0.772   3.944   6.657  0.7561  1.8241  0.6343
52384SOL     OW69130   7.676   5.254   4.580  0.4977  0.1142 -0.8176
52384SOL    HW169131   7.612   5.230   4.513 -1.0577  1.0443  0.2592
52384SOL    HW269132   7.630   5.239   4.663  2.1778 -0.4781  0.0478
52385SOL     OW69133   7.568   7.576  12.214  0.1354 -0.0288 -0.4347
52385SOL    HW169134   7.508   7.616  12.277  0.5117  0.5753 -0.4520
52385SOL    HW269135   7.548   7.482  12.217  1.3070 -0.2864  1.8651
52386SOL     OW69136  12.679  12.606   5.609 -0.2828  0.0724 -0.8751
52386SOL    HW169137  12.681  12.667   5.683 -1.9746  1.9434 -2.2619
52386SOL    HW269138  12.716  12.525   5.644 -0.7606  0.9475  1.9360
52387SOL     OW69139   7.985   7.385  13.383  0.2678 -0.2368 -0.0241
52387SOL    HW169140   7.983   7.335  13.301 -0.7175 -0.1280 -0.0789
52387SOL    HW269141   8.023   7.325  13.447  0.7567 -0.4305 -0.4874
52388SOL     OW69142   9.031   1.020   8.115  0.5002 -0.0624  0.3147
52388SOL    HW169143   9.003   0.949   8.173  0.0855  0.0033  0.1927
52388SOL    HW269144   9.105   0.983   8.067 -0.0839 -0.6161 -0.1761
52389SOL     OW69145   6.102   3.843  12.940  0.5169 -0.5282  0.1450
52389SOL    HW169146   6.147   3.778  12.996  1.1231 -2.4518 -2.3774
52389SOL    HW269147   6.139   3.927  12.967  1.0283 -1.3822  2.3487
52390SOL     OW69148   0.326  11.257   7.965  0.2001 -0.4708 -0.0960
52390SOL    HW169149   0.235  11.247   7.989 -0.1250 -0.7669 -1.3564
52390SOL    HW269150   0.342  11.352   7.967 -0.3521 -0.3632 -0.5913
52391SOL     OW69151  11.507  10.599  13.723  0.1167 -0.3948 -0.4799
52391SOL    HW169152  11.569  10.552  13.780  0.2945  1.3243  0.8502
52391SOL    HW269153  11.557  10.675  13.692 -1.0921  0.7019  0.1409
52392SOL     OW69154  13.293   6.641   1.073  0.4584 -0.2102 -0.0083
52392SOL    HW169155  13.248   6.561   1.045  0.3391 -0.2507  0.2936
52392SOL    HW269156  13.242   6.712   1.034 -0.1913 -0.2349  0.7698
52393SOL     OW69157   4.639   7.683   1.569 -0.1471 -0.4163 -0.1556
52393SOL    HW169158   4.715   7.736   1.591 -0.5738 -0.4083  1.4249
52393SOL    HW269159   4.583   7.742   1.518  0.7248 -0.3267 -1.0452
52394SOL     OW69160  10.095   3.432   8.619 -0.4082  0.4810  0.3619
52394SOL    HW169161  10.078   3.431   8.525 -0.8954 -2.7541  0.3879
52394SOL    HW269162  10.025   3.486   8.655 -1.1285  0.4861 -0.9681
52395SOL     OW69163  10.266   9.163   8.537  0.0725 -0.2252 -0.5065
52395SOL    HW169164  10.331   9.197   8.599  0.9374 -0.9715 -0.9710
52395SOL    HW269165  10.236   9.081   8.576 -1.5277  0.7138  0.2994
52396SOL     OW69166   6.895   2.738  12.066  0.0143  1.1071  0.3831
52396SOL    HW169167   6.988   2.756  12.080  0.0217  1.9859 -0.6873
52396SOL    HW269168   6.851   2.780  12.139  0.4858  0.0794  1.2942
52397SOL     OW69169   1.510   2.421   4.992  0.3500  0.3612 -0.0585
52397SOL    HW169170   1.431   2.455   4.951 -0.6447 -0.1807  1.3362
52397SOL    HW269171   1.484   2.401   5.082  1.2112 -2.7145 -0.3549
52398SOL     OW69172  13.722   9.576   8.699 -0.0692 -0.3129  0.4368
52398SOL    HW169173  13.637   9.618   8.709 -1.8301 -2.3220 -3.6284
52398SOL    HW269174  13.723   9.508   8.766 -1.1366  0.4330  1.2472
52399SOL     OW69175   6.684  11.779   2.418 -0.6480  0.5280 -0.1097
52399SOL    HW169176   6.673  11.839   2.492  3.4966  1.4281  0.0225
52399SOL    HW269177   6.779  11.771   2.407 -1.0346 -1.3331 -3.9590
52400SOL     OW69178   8.936   3.319  12.432  0.3893 -0.5898 -0.6227
52400SOL    HW169179   8.923   3.298  12.524 -0.9551  0.8440 -0.4345
52400SOL    HW269180   9.012   3.377  12.431  0.2190 -0.3599 -0.3740
52401SOL     OW69181   7.604   3.242   9.329  0.0370 -0.0090  0.0372
52401SOL    HW169182   7.581   3.327   9.292  0.4826 -0.0508 -0.3461
52401SOL    HW269183   7.601   3.255   9.423  3.1862  1.3376  0.0678
52402SOL     OW69184  13.082   3.545   3.253 -0.0521 -0.0133  0.1340
52402SOL    HW169185  13.161   3.493   3.241 -0.1203 -0.5678  1.8356
52402SOL    HW269186  13.083   3.570   3.346 -1.5170  0.5546  0.0330
52403SOL     OW69187   0.574  11.697   7.108 -0.0520 -0.1741 -0.5376
52403SOL    HW169188   0.606  11.608   7.095  0.9595 -0.2033  1.7819
52403SOL    HW269189   0.563  11.706   7.202  1.1873  2.5945 -0.5582
52404SOL     OW69190  10.121   5.200   8.494 -0.1455  0.1976  0.2186
52404SOL    HW169191  10.074   5.265   8.442  1.0174  1.2036  0.3701
52404SOL    HW269192  10.213   5.219   8.478  0.2199 -0.9770  0.8278
52405SOL     OW69193   4.152  10.682   0.084  0.5149 -0.1913  0.1048
52405SOL    HW169194   4.137  10.701   0.176  2.4857  2.5577  0.0244
52405SOL    HW269195   4.073  10.713   0.039 -0.4142 -1.4652  0.8236
52406SOL     OW69196  11.880   0.806   4.531 -0.6665 -0.0236 -0.2194
52406SOL    HW169197  11.870   0.712   4.548 -0.5519  0.0312  0.1538
52406SOL    HW269198  11.941   0.810   4.458  0.6673 -0.1916  0.8509
52407SOL     OW69199   9.362   0.976   3.131 -0.4364  0.2410 -0.1403
52407SOL    HW169200   9.350   0.881   3.131  0.9561  0.0431 -0.3253
52407SOL    HW269201   9.353   1.001   3.039 -0.8416  0.2946 -0.0863
52408SOL     OW69202   7.339  11.473   5.044 -0.7588  0.3860 -0.0884
52408SOL    HW169203   7.328  11.454   4.951  0.2441  1.2098 -0.4022
52408SOL    HW269204   7.371  11.391   5.082 -1.6413 -0.0948 -0.3688
52409SOL     OW69205   3.766  10.230   2.324  0.5408  0.2869  0.4017
52409SOL    HW169206   3.826  10.157   2.311  0.6076  0.3034  0.6126
52409SOL    HW269207   3.781  10.257   2.415 -0.1338 -0.0157  0.6064
52410SOL     OW69208   6.667   1.798  12.772 -0.3026 -0.2113 -0.3910
52410SOL    HW169209   6.680   1.721  12.827 -1.3961  0.1603  0.4219
52410SOL    HW269210   6.626   1.862  12.830  0.4468  0.9349 -1.0990
52411SOL     OW69211   9.083   6.375   7.314 -0.0041  0.3216  0.0232
52411SOL    HW169212   9.114   6.461   7.341 -1.2013  1.1107 -1.0153
52411SOL    HW269213   9.134   6.313   7.367 -0.2620  1.6889  1.9771
52412SOL     OW69214   8.086   8.325   3.085 -0.0300 -0.0466 -0.2677
52412SOL    HW169215   8.176   8.292   3.073 -0.3069 -0.8800 -0.1403
52412SOL    HW269216   8.038   8.250   3.120 -0.2643  1.0280  1.9137
52413SOL     OW69217  11.812   6.119   4.332 -0.0282 -0.2637 -0.1699
52413SOL    HW169218  11.834   6.103   4.240 -0.0964  1.7976 -0.5903
52413SOL    HW269219  11.891   6.095   4.381  0.9787  1.0999 -1.0554
52414SOL     OW69220   0.487   3.115   7.919 -0.0100 -0.2340  0.2223
52414SOL    HW169221   0.479   3.192   7.863  1.6328 -0.4226 -0.3265
52414SOL    HW269222   0.525   3.048   7.863  2.0305 -0.3200  1.5954
52415SOL     OW69223   7.723   8.009   9.537 -0.0334 -0.0660 -0.4032
52415SOL    HW169224   7.739   8.067   9.611 -0.6910  0.8228 -0.9384
52415SOL    HW269225   7.767   7.928   9.560  1.9254  1.0026 -0.1311
52416SOL     OW69226   0.065   5.339  11.972  0.0225 -0.1274 -0.0332
52416SOL    HW169227   0.022   5.298  11.897  0.6078  0.8363 -0.9142
52416SOL    HW269228   0.150   5.296  11.978  0.7354  1.0729 -1.1072
52417SOL     OW69229   8.641  13.961  12.726 -0.2728 -0.3441  0.5968
52417SOL    HW169230   8.594  13.951  12.643 -0.3133 -2.1484  0.8165
52417SOL    HW269231   8.577  14.005  12.783 -1.0906 -1.2062  0.3697
52418SOL     OW69232   1.032   6.494  12.729 -0.0349 -0.5251  0.3144
52418SOL    HW169233   1.029   6.532  12.641 -1.1733  0.1731  0.6360
52418SOL    HW269234   0.942   6.467  12.746 -0.0109  0.1843  1.6355
52419SOL     OW69235   0.753   5.853   4.544 -0.2622  0.3598 -0.4231
52419SOL    HW169236   0.799   5.904   4.611 -1.7128 -0.4943  1.3451
52419SOL    HW269237   0.790   5.765   4.552 -1.0207  0.0574 -0.1393
52420SOL     OW69238   7.892   7.529   3.797  0.5712 -0.1698 -0.1983
52420SOL    HW169239   7.866   7.585   3.870  2.1745  0.1120  0.1859
52420SOL    HW269240   7.941   7.587   3.739 -0.9705 -0.2962 -1.7176
52421SOL     OW69241   4.914   6.035  12.116  0.1119 -0.7155  0.7938
52421SOL    HW169242   4.942   6.124  12.137  1.6385 -1.4763  2.1335
52421SOL    HW269243   4.973   5.978  12.165  0.9227 -2.5614 -2.0830
52422SOL     OW69244   0.617   6.827   3.879 -0.6394 -0.2440 -0.4397
52422SOL    HW169245   0.693   6.822   3.937 -0.6140 -0.4759 -0.4879
52422SOL    HW269246   0.637   6.899   3.820  0.0435 -0.9767 -1.1410
52423SOL     OW69247   5.994   5.290   2.295  0.1232  0.2362  0.3401
52423SOL    HW169248   5.908   5.260   2.324 -0.6147 -1.5591 -3.2240
52423SOL    HW269249   5.993   5.384   2.313 -3.1098  0.5023 -0.5734
52424SOL     OW69250   2.099   0.184  10.112 -0.3251  0.3217 -0.0701
52424SOL    HW169251   2.052   0.262  10.143 -0.1511 -0.0976  1.3393
52424SOL    HW269252   2.037   0.113  10.122  0.3865 -0.1507  1.3022
52425SOL     OW69253   6.214   2.594   0.828  0.0707  0.3546  0.5728
52425SOL    HW169254   6.250   2.509   0.851 -0.2333  0.0663  0.0041
52425SOL    HW269255   6.290   2.652   0.821  0.3220  0.0125  0.4669
52426SOL     OW69256   6.396  12.384   9.612 -0.0534  0.1151 -0.0481
52426SOL    HW169257   6.355  12.298   9.604 -0.0070  0.0684  0.2213
52426SOL    HW269258   6.409  12.413   9.521  0.1403 -0.2580 -0.1417
52427SOL     OW69259  12.310  11.701  11.181  0.0285 -0.1881  0.4158
52427SOL    HW169260  12.336  11.753  11.257 -0.1332  0.2195  0.1891
52427SOL    HW269261  12.307  11.611  11.215  0.9444 -0.1459  0.6409
52428SOL     OW69262  12.090   4.165   8.979  0.1541 -0.9866  0.0236
52428SOL    HW169263  12.068   4.076   9.005 -0.2461 -1.2709 -1.2310
52428SOL    HW269264  12.174   4.182   9.020  0.4269 -2.0939 -0.0593
52429SOL     OW69265  11.935  13.126   0.027 -0.0380  0.0114  0.0368
52429SOL    HW169266  11.846  13.137   0.060 -0.2833 -1.5518 -0.0098
52429SOL    HW269267  11.936  13.177  -0.055 -0.8947  0.0520  0.0353
52430SOL     OW69268   3.358   8.230   8.641  0.3224 -0.5217 -0.7358
52430SOL    HW169269   3.315   8.248   8.558  3.4875  2.0712 -2.0296
52430SOL    HW269270   3.449   8.213   8.618  1.6440  1.7093  2.1952
52431SOL     OW69271   3.547   3.176   9.864  0.0796  0.2172 -0.2348
52431SOL    HW169272   3.489   3.125   9.807 -0.7330 -0.4997  1.1784
52431SOL    HW269273   3.572   3.114   9.933  0.5947  1.2240  0.4965
52432SOL     OW69274   2.403  12.946  10.354 -1.4930  0.4914 -0.1811
52432SOL    HW169275   2.395  12.925  10.261 -2.1416  0.2144 -0.0730
52432SOL    HW269276   2.476  12.892  10.384 -0.9963  0.9084 -0.6173
52433SOL     OW69277   6.984   6.445   5.334 -0.7181  0.1266 -0.0074
52433SOL    HW169278   7.008   6.367   5.284 -1.2262 -0.8171  1.1657
52433SOL    HW269279   7.068   6.484   5.358 -0.4674  0.8646 -1.9428
52434SOL     OW69280   9.921  13.716  14.007 -0.3287  0.0736  0.2470
52434SOL    HW169281   9.925  13.639  14.063  0.4192 -0.9485 -1.1566
52434SOL    HW269282   9.988  13.701  13.940  0.8495  2.5998  0.7394
52435SOL     OW69283   1.494   2.523   6.776 -0.1282  0.1199  0.1482
52435SOL    HW169284   1.453   2.520   6.863 -0.6472 -0.0046 -0.0999
52435SOL    HW269285   1.565   2.459   6.781 -0.4063 -0.1739  0.3570
52436SOL     OW69286  13.125   5.796  10.756  0.5264  0.5018 -0.4729
52436SOL    HW169287  13.190   5.864  10.737  1.0695 -0.2197 -1.2764
52436SOL    HW269288  13.177   5.717  10.772 -0.1392 -0.1421 -1.3754
52437SOL     OW69289   5.669  12.342   2.674 -0.1682 -0.2344 -0.0116
52437SOL    HW169290   5.675  12.340   2.578  0.2346  0.3292 -0.0004
52437SOL    HW269291   5.611  12.415   2.693 -0.1344 -0.2590  0.1837
52438SOL     OW69292   1.820   5.942  12.953 -0.2584 -0.2131  0.5619
52438SOL    HW169293   1.744   6.000  12.944 -1.1616 -0.7417  3.6719
52438SOL    HW269294   1.890   5.986  12.904 -1.5229  2.3790  0.9281
52439SOL     OW69295   3.980  10.061   7.404 -0.1259 -0.2884  0.2869
52439SOL    HW169296   3.941  10.139   7.443 -2.6019 -1.8147  1.1266
52439SOL    HW269297   4.008  10.009   7.480 -2.7621 -2.2000  0.0922
52440SOL     OW69298  11.428   7.255   8.086 -0.1203  0.6932  0.5930
52440SOL    HW169299  11.404   7.229   8.175  0.1404  0.2454  0.5303
52440SOL    HW269300  11.441   7.173   8.038  0.3700  0.9272  0.3120
52441SOL     OW69301  11.406   4.572   1.415  0.1395 -0.3870 -0.1608
52441SOL    HW169302  11.343   4.627   1.461 -0.5878 -1.7361  0.5341
52441SOL    HW269303  11.492   4.608   1.437 -0.1965 -0.7989  2.0729
52442SOL     OW69304   7.940   6.121   9.050 -0.0326  0.0569 -0.0603
52442SOL    HW169305   7.900   6.204   9.074  0.8137  0.4670 -0.0269
52442SOL    HW269306   7.948   6.073   9.132 -2.0110 -0.7472 -0.3015
52443SOL     OW69307   2.203   5.755   8.099 -0.2943  0.4242  0.5006
52443SOL    HW169308   2.290   5.787   8.073 -0.0161 -0.4846  0.2875
52443SOL    HW269309   2.161   5.832   8.138 -0.0258  1.3432 -0.9060
52444SOL     OW69310   1.806   6.118   4.951  0.2294  0.0049  0.3151
52444SOL    HW169311   1.899   6.142   4.941  1.1541 -2.5619  1.7722
52444SOL    HW269312   1.776   6.104   4.861  0.3201  3.6262 -0.4368
52445SOL     OW69313   9.854   3.756  10.482  0.0983  0.0865  0.0055
52445SOL    HW169314   9.784   3.700  10.447  0.1799  0.5982 -1.0168
52445SOL    HW269315   9.814   3.842  10.489  0.6032  0.3643 -0.5102
52446SOL     OW69316   8.658   4.387   0.066 -0.0382  0.0704  0.2952
52446SOL    HW169317   8.663   4.292   0.079 -0.4403  0.1250  0.9269
52446SOL    HW269318   8.676   4.423   0.153 -2.7906  0.4816  0.7819
52447SOL     OW69319   5.743   7.280   3.512  0.4281 -0.1155  0.6502
52447SOL    HW169320   5.753   7.220   3.586  0.0327 -0.7002  0.2369
52447SOL    HW269321   5.821   7.266   3.459 -1.0993 -2.6555 -1.1278
52448SOL     OW69322   8.194   0.788  13.221  0.0082  0.1713 -0.2200
52448SOL    HW169323   8.188   0.792  13.125 -1.6457 -2.2224 -0.3160
52448SOL    HW269324   8.185   0.695  13.241  0.0556  0.6518  2.2970
52449SOL     OW69325   7.578  10.945   4.401  0.5807 -0.4570 -0.2208
52449SOL    HW169326   7.646  10.900   4.451 -0.6302 -1.3265  0.7055
52449SOL    HW269327   7.499  10.936   4.454 -0.5531 -0.6066 -1.8587
52450SOL     OW69328   3.278   7.918  13.961 -0.1792  0.0223  0.1404
52450SOL    HW169329   3.215   7.952  13.897  0.0237  0.7900  0.3371
52450SOL    HW269330   3.295   7.828  13.932 -1.6941 -0.3589  0.3360
52451SOL     OW69331   6.689   7.630   1.767 -0.5812 -0.1935  0.1949
52451SOL    HW169332   6.733   7.565   1.823 -0.1324 -0.3770 -0.3628
52451SOL    HW269333   6.712   7.604   1.678  1.1748  1.7799 -0.0194
52452SOL     OW69334   8.220  10.523   1.617 -0.7431  0.5169 -0.7378
52452SOL    HW169335   8.221  10.575   1.697  1.4262  0.5591 -0.7463
52452SOL    HW269336   8.187  10.437   1.645  0.0351  0.5126  0.2095
52453SOL     OW69337   7.765   7.501   1.428  0.7609 -0.0275 -0.0263
52453SOL    HW169338   7.776   7.576   1.369  1.2485  0.1738  0.3137
52453SOL    HW269339   7.718   7.436   1.376  1.1306  0.1717 -0.6164
52454SOL     OW69340  12.499   6.201  13.141  0.3302 -0.5198 -0.6756
52454SOL    HW169341  12.454   6.283  13.160  1.6280  0.4804 -1.6997
52454SOL    HW269342  12.478   6.144  13.215 -0.3824  0.8348  0.2004
52455SOL     OW69343   6.040   0.547  10.005  0.0091 -0.3612 -0.6029
52455SOL    HW169344   6.024   0.498   9.924  1.5487  0.9876 -1.7818
52455SOL    HW269345   5.959   0.535  10.055 -0.4261 -2.4502 -1.6671
52456SOL     OW69346  13.635   4.029   3.330  0.0947  0.0204  0.4452
52456SOL    HW169347  13.612   3.938   3.346  1.2606 -0.3501  0.1218
52456SOL    HW269348  13.685   4.055   3.408 -1.7047  0.9429  1.3432
52457SOL     OW69349  13.776  10.950   3.622  0.3106  0.2617 -0.4529
52457SOL    HW169350  13.729  10.870   3.596 -2.1739  1.3878  0.3072
52457SOL    HW269351  13.773  11.005   3.544  0.9434  0.1024 -0.5927
52458SOL     OW69352   8.070   2.591   0.966  0.5758 -0.4873 -0.0036
52458SOL    HW169353   8.094   2.640   0.887 -0.3877 -0.5581 -0.3553
52458SOL    HW269354   8.153   2.575   1.011  1.1739 -0.6641 -1.1318
52459SOL     OW69355   1.731   7.526  13.732  0.5964  0.3003 -0.1442
52459SOL    HW169356   1.687   7.493  13.653 -1.2768 -1.2138  1.4238
52459SOL    HW269357   1.661   7.568  13.782  0.9414 -1.6013  2.1371
52460SOL     OW69358   3.885   6.426   9.506 -0.3141  0.6484 -0.0708
52460SOL    HW169359   3.912   6.514   9.533 -0.4771  0.7173 -0.1287
52460SOL    HW269360   3.962   6.388   9.465 -0.4390  1.0136 -0.6539
52461SOL     OW69361  13.436   9.678   3.973 -0.2045 -0.4641  0.5765
52461SOL    HW169362  13.461   9.634   3.891 -1.1901 -0.1482  0.0931
52461SOL    HW269363  13.421   9.608   4.035  0.7846 -0.7016  0.5616
52462SOL     OW69364   1.487  12.269   5.482  0.0054  0.1874 -0.1097
52462SOL    HW169365   1.521  12.280   5.393  0.2966 -0.5216 -0.1011
52462SOL    HW269366   1.492  12.174   5.497 -2.4045 -0.0205 -0.2546
52463SOL     OW69367  12.580   9.178   8.737  0.3490  0.3203 -0.0106
52463SOL    HW169368  12.626   9.137   8.664  1.0902  1.8771 -0.4861
52463SOL    HW269369  12.535   9.107   8.782  0.5039 -0.7768 -1.5364
52464SOL     OW69370   9.432   6.130   4.867  0.0450  0.3127 -0.2596
52464SOL    HW169371   9.517   6.137   4.824  0.5732 -0.7004  0.5858
52464SOL    HW269372   9.413   6.036   4.867 -0.0158  0.2856  1.5271
52465SOL     OW69373  12.326   2.348   2.460 -0.5805  0.1248 -0.3197
52465SOL    HW169374  12.233   2.367   2.472 -0.9836 -1.4402 -0.7155
52465SOL    HW269375  12.350   2.294   2.536  0.0955  0.7280 -0.0818
52466SOL     OW69376   2.105   2.719   5.862 -0.4957 -0.2633 -1.0894
52466SOL    HW169377   2.111   2.624   5.849 -2.0144 -0.5974  0.2922
52466SOL    HW269378   2.146   2.734   5.947 -1.2810  0.1296 -0.7639
52467SOL     OW69379  10.800   8.662  12.242 -0.5451  0.4437  0.3411
52467SOL    HW169380  10.840   8.700  12.320  0.1842  1.1705 -0.3747
52467SOL    HW269381  10.774   8.574  12.269  1.0246  0.1617  1.0075
52468SOL     OW69382   3.920   4.368  12.581 -0.2180 -0.3066  0.1306
52468SOL    HW169383   3.864   4.437  12.617 -0.2029 -0.0501 -0.3320
52468SOL    HW269384   3.983   4.349  12.651  1.7373  2.2842 -0.7576
52469SOL     OW69385   9.650   0.921   8.304  0.3855 -0.2522 -0.2191
52469SOL    HW169386   9.719   0.859   8.326 -0.0863 -0.3260  1.1297
52469SOL    HW269387   9.569   0.870   8.311  0.1717 -0.1793 -1.8054
52470SOL     OW69388   4.151   2.439   0.605  0.2791 -0.0464 -0.8081
52470SOL    HW169389   4.149   2.348   0.634  0.8390 -1.4215 -4.5217
52470SOL    HW269390   4.243   2.464   0.610 -0.0391  0.9010  1.5126
52471SOL     OW69391   5.709   2.757   2.209 -0.0969 -0.2211  0.6867
52471SOL    HW169392   5.652   2.831   2.186  1.7016  1.0616  0.0775
52471SOL    HW269393   5.696   2.694   2.138 -0.0516  0.4972  0.0181
52472SOL     OW69394  13.638  13.435  10.017  0.2842 -0.7492  0.5392
52472SOL    HW169395  13.664  13.512   9.967  3.9925 -2.2261 -0.1234
52472SOL    HW269396  13.656  13.458  10.108 -0.0919 -0.3278  0.5087
52473SOL     OW69397  13.190   5.073  10.281  0.5163 -0.4459  0.0430
52473SOL    HW169398  13.145   5.025  10.211 -1.2127  0.1757  0.6780
52473SOL    HW269399  13.178   5.165  10.259 -1.4057 -0.1733  1.8692
52474SOL     OW69400   3.072   1.497   4.282 -0.2717  0.4108  0.1872
52474SOL    HW169401   3.058   1.586   4.249 -1.5023  0.2867  0.3407
52474SOL    HW269402   3.140   1.461   4.225 -0.0181  1.3153 -0.1048
52475SOL     OW69403   8.500  12.552   9.917  0.2296  0.5509 -0.1454
52475SOL    HW169404   8.512  12.527  10.009 -1.5642  0.8235  0.1986
52475SOL    HW269405   8.446  12.482   9.881 -2.0721  2.1610 -0.0300
52476SOL     OW69406   8.343  13.251  13.715  0.3260  0.3899  0.7137
52476SOL    HW169407   8.288  13.229  13.790  0.6144 -1.7894  0.3489
52476SOL    HW269408   8.295  13.218  13.639  1.2793  0.1353  0.2081
52477SOL     OW69409   7.760  10.603   2.796 -0.0071  0.5616  0.3395
52477SOL    HW169410   7.735  10.690   2.827  0.4841  1.0654 -0.6202
52477SOL    HW269411   7.708  10.591   2.716 -0.9560 -0.5387  1.0808
52478SOL     OW69412  11.357   1.174  13.497 -0.3231 -0.6880 -0.5917
52478SOL    HW169413  11.380   1.267  13.504  0.5599 -0.8853 -0.7445
52478SOL    HW269414  11.262   1.172  13.507 -0.1883  0.0496  1.2804
52479SOL     OW69415   8.595   4.741   0.044  0.4106 -0.5662 -0.5539
52479SOL    HW169416   8.500   4.752   0.044  0.3085 -1.2744  0.2030
52479SOL    HW269417   8.611   4.666  -0.013  0.1796 -2.4618  1.6787
52480SOL     OW69418   2.930   1.269   8.738 -0.3616  0.0349  0.2683
52480SOL    HW169419   2.835   1.264   8.734 -0.4742  0.9512  1.3674
52480SOL    HW269420   2.949   1.314   8.820  1.0603 -1.1718  0.6627
52481SOL     OW69421  10.106   7.224   4.653 -0.5281  0.4375 -0.1891
52481SOL    HW169422  10.168   7.298   4.649 -0.3815  0.4467  1.6126
52481SOL    HW269423  10.156   7.153   4.693 -1.2016 -0.0759 -0.2458
52482SOL     OW69424   8.000   5.221   3.581  0.2978 -0.3188 -0.0835
52482SOL    HW169425   7.927   5.242   3.523 -0.0846  2.1558  1.1215
52482SOL    HW269426   7.959   5.201   3.665  0.9365 -1.3158  0.0037
52483SOL     OW69427   1.256  10.105   2.529 -0.1096  0.0266  0.2535
52483SOL    HW169428   1.227  10.159   2.603  0.8628  0.4513  0.3448
52483SOL    HW269429   1.263  10.017   2.566 -0.5248  0.0601  0.4209
52484SOL     OW69430   9.343   7.013  13.444 -0.1238  0.0401 -0.2978
52484SOL    HW169431   9.390   7.051  13.518  1.8283 -1.0235 -0.9323
52484SOL    HW269432   9.267   6.971  13.484 -0.1983  1.1773  0.8419
52485SOL     OW69433   0.193  13.567   7.044  0.1660 -0.0736  0.2323
52485SOL    HW169434   0.186  13.657   7.013 -3.2087  0.1438  1.2796
52485SOL    HW269435   0.153  13.568   7.131 -1.1529 -2.7942 -0.2256
52486SOL     OW69436   5.711   9.563   8.122 -0.1001  0.5685 -0.0781
52486SOL    HW169437   5.778   9.629   8.105  1.4278 -0.6101  1.1044
52486SOL    HW269438   5.713   9.506   8.045  1.8539 -0.7124  0.8470
52487SOL     OW69439  12.050   9.323   4.836 -0.1978 -0.2534  0.4835
52487SOL    HW169440  11.961   9.323   4.800  0.2403  0.8853 -0.7165
52487SOL    HW269441  12.040   9.352   4.926 -0.9738  0.8414  0.0686
52488SOL     OW69442   3.753   9.710   0.156  0.2216  0.1498 -0.0530
52488SOL    HW169443   3.676   9.767   0.161  0.8937  1.0738  0.1031
52488SOL    HW269444   3.807   9.736   0.231  0.0313 -1.5005  0.6954
52489SOL     OW69445   0.668  14.016  10.848  0.3684 -0.2061  0.3420
52489SOL    HW169446   0.732  13.977  10.789  0.0688 -1.0590  0.5731
52489SOL    HW269447   0.689  14.110  10.847  0.8505 -0.3135 -0.5118
52490SOL     OW69448  10.612   6.769   7.806 -0.4057  0.1374  0.0453
52490SOL    HW169449  10.606   6.704   7.876 -1.4203 -0.7803 -0.8460
52490SOL    HW269450  10.688   6.822   7.829 -0.9896  0.1768  2.0857
52491SOL     OW69451   5.293   6.826   6.123  0.1225  0.1506  0.2226
52491SOL    HW169452   5.305   6.767   6.197  0.1007 -0.7985 -0.5103
52491SOL    HW269453   5.327   6.777   6.048 -0.1200  0.9793 -0.4397
52492SOL     OW69454   7.040   9.677  10.855  0.2964  0.0483 -0.3576
52492SOL    HW169455   7.095   9.633  10.920 -0.0379 -0.0324 -0.1296
52492SOL    HW269456   7.056   9.771  10.870 -0.8737  0.0952  0.8230
52493SOL     OW69457  13.131   9.838   5.114 -0.1263  0.3176  0.3919
52493SOL    HW169458  13.138   9.778   5.189  1.0940 -0.3379 -0.2302
52493SOL    HW269459  13.147   9.784   5.038  1.2768  1.4802 -0.1743
52494SOL     OW69460   1.684  11.228   9.720 -0.1389 -0.2717 -0.0341
52494SOL    HW169461   1.719  11.243   9.633  3.0835  0.4596  1.2182
52494SOL    HW269462   1.681  11.315   9.760 -2.6855 -0.4408  0.2691
52495SOL     OW69463  12.794  12.307   0.729  0.0088 -0.3545  0.0065
52495SOL    HW169464  12.729  12.372   0.701 -0.0887 -0.6314 -0.4162
52495SOL    HW269465  12.775  12.230   0.676 -0.3811 -1.0046  1.0565
52496SOL     OW69466   7.767   8.993   5.024 -0.1421  0.4524 -0.5025
52496SOL    HW169467   7.778   8.929   4.954  0.7638  0.6221 -0.5233
52496SOL    HW269468   7.714   8.948   5.090  0.6827 -0.3953 -0.4139
52497SOL     OW69469   9.680   4.489  12.097 -0.2317  0.3148  0.3520
52497SOL    HW169470   9.601   4.543  12.093  0.4237  1.6153  2.9270
52497SOL    HW269471   9.694   4.475  12.190  0.0740 -3.7647 -0.1250
52498SOL     OW69472   3.139  13.856   7.689  0.0785  0.5181 -0.1551
52498SOL    HW169473   3.203  13.891   7.751 -0.0977 -0.0224  0.3432
52498SOL    HW269474   3.176  13.773   7.659 -0.4258  0.1555  0.2125
52499SOL     OW69475   7.810   7.951   3.910 -0.3493  0.5488 -0.0359
52499SOL    HW169476   7.744   8.020   3.916 -2.1220 -1.2149  2.9559
52499SOL    HW269477   7.893   7.996   3.929 -0.8758  2.4109 -1.7560
52500SOL     OW69478  13.165   1.217  11.069  0.0413  0.1432  0.3027
52500SOL    HW169479  13.221   1.275  11.121  0.9963 -0.8931  0.4543
52500SOL    HW269480  13.209   1.210  10.985  0.0173 -0.4780  0.3351
52501SOL     OW69481  12.218   8.409  10.747 -0.0271  0.0049 -0.3135
52501SOL    HW169482  12.233   8.453  10.664  0.4585  1.5523  0.5413
52501SOL    HW269483  12.251   8.320  10.734 -1.1080 -0.1768 -2.1323
52502SOL     OW69484   1.122   8.225   4.140 -0.4229  0.1701 -0.0494
52502SOL    HW169485   1.177   8.150   4.118 -1.0342 -0.1297 -0.5869
52502SOL    HW269486   1.167   8.267   4.214  1.0217  0.4660 -1.0367
52503SOL     OW69487   9.953   7.254   9.014  0.3036  0.0161 -0.1517
52503SOL    HW169488   9.888   7.224   9.078  1.2888 -0.1916  0.7803
52503SOL    HW269489   9.978   7.175   8.966 -0.1207  0.0968 -0.5138
52504SOL     OW69490  10.010   4.457   4.163  0.3611 -0.2050 -0.4095
52504SOL    HW169491  10.030   4.366   4.183 -0.4582 -0.5086 -0.9436
52504SOL    HW269492  10.091   4.504   4.185  0.7049 -1.0120  0.1171
52505SOL     OW69493  10.956   5.787   3.249  0.0457 -1.5342 -0.6079
52505SOL    HW169494  10.958   5.728   3.324  1.6546 -1.1787 -0.3347
52505SOL    HW269495  11.048   5.797   3.224 -0.1020  1.1299 -0.4098
52506SOL     OW69496   1.074   3.973   7.857  0.0996  0.4727 -0.1269
52506SOL    HW169497   1.108   3.993   7.944 -0.0963  0.5481 -0.0684
52506SOL    HW269498   1.147   3.928   7.813  0.8037  1.9123 -0.4879
52507SOL     OW69499  13.046  13.414   6.453  0.1071  0.0019 -0.6366
52507SOL    HW169500  12.969  13.392   6.401  1.1135  0.8403 -2.5998
52507SOL    HW269501  13.120  13.387   6.398  1.2670 -1.7204  1.6019
52508SOL     OW69502   8.750   2.622   1.420  0.0957 -0.3076  1.0072
52508SOL    HW169503   8.698   2.667   1.487 -0.2612 -1.6731  1.6880
52508SOL    HW269504   8.686   2.592   1.356  0.3852  0.5306  0.3090
52509SOL     OW69505   8.348   5.702  10.538  0.5704 -0.0412  0.6202
52509SOL    HW169506   8.389   5.788  10.547  0.5268  0.0795 -0.2310
52509SOL    HW269507   8.384   5.666  10.457  0.6146 -0.8467  0.9826
52510SOL     OW69508  10.363  11.337   6.636  0.2147  0.2012 -0.1675
52510SOL    HW169509  10.438  11.396   6.627  1.1802 -0.6667  1.5442
52510SOL    HW269510  10.402  11.250   6.638 -0.9101 -0.3072  0.1250
52511SOL     OW69511   6.289   0.693   7.034  0.2552  0.2035  0.0436
52511SOL    HW169512   6.312   0.759   7.100 -1.7324  0.2597  0.7333
52511SOL    HW269513   6.266   0.616   7.085  2.2449 -0.9801 -0.7529
52512SOL     OW69514  13.204   2.610   8.078  0.0438 -0.0671  0.1959
52512SOL    HW169515  13.164   2.688   8.119 -0.9449 -0.0545 -0.7610
52512SOL    HW269516  13.242   2.562   8.152 -0.7536  0.5015  1.0033
52513SOL     OW69517   4.485   9.733   6.748 -0.7376  0.0089 -0.8911
52513SOL    HW169518   4.535   9.810   6.720  0.4843 -0.9831 -1.5703
52513SOL    HW269519   4.495   9.670   6.676 -1.4486 -0.8984 -0.2278
52514SOL     OW69520   1.690   3.240  13.117  0.0059  0.3002  0.2727
52514SOL    HW169521   1.699   3.331  13.088 -1.1204  0.3743  0.1285
52514SOL    HW269522   1.757   3.231  13.186 -0.7119  1.6209  1.1927
52515SOL     OW69523   4.921   2.113   3.647  0.3302 -0.3484 -0.3123
52515SOL    HW169524   4.856   2.133   3.580 -2.4593  1.3247  2.5988
52515SOL    HW269525   4.982   2.186   3.644 -0.6411  0.4919 -0.1200
52516SOL     OW69526   1.699   8.725  11.130  0.0985  0.3788  0.5493
52516SOL    HW169527   1.699   8.630  11.129 -0.5210  0.3744  0.2651
52516SOL    HW269528   1.723   8.750  11.041  0.7280  0.4926  0.7495
52517SOL     OW69529  12.992   1.314   6.270  0.0053  0.0242  0.1801
52517SOL    HW169530  13.003   1.249   6.200  1.5265  1.3676 -0.9038
52517SOL    HW269531  13.060   1.379   6.253 -1.4886  1.9559  1.1588
52518SOL     OW69532   2.189   3.081   8.207  0.2775 -0.1587  0.1455
52518SOL    HW169533   2.225   3.142   8.143  1.3959 -0.8228  0.1105
52518SOL    HW269534   2.193   3.128   8.290  3.3948 -0.9279  0.5609
52519SOL     OW69535   5.279  13.862   6.728 -0.2899  0.6190  0.1537
52519SOL    HW169536   5.337  13.928   6.767  0.4360  0.2830 -0.3339
52519SOL    HW269537   5.254  13.806   6.802  0.4293  0.4684  0.2986
52520SOL     OW69538   8.372   7.744   6.040  0.1961 -0.0923  0.0617
52520SOL    HW169539   8.441   7.760   5.975 -0.2407  1.3095 -0.0854
52520SOL    HW269540   8.377   7.650   6.058  1.8055 -0.1085 -0.3261
52521SOL     OW69541   9.546   7.255  10.129  0.4168  0.0647  0.6758
52521SOL    HW169542   9.577   7.190  10.192 -1.7587 -0.1550  1.6294
52521SOL    HW269543   9.455   7.230  10.111  0.1790  1.6281 -0.5749
52522SOL     OW69544   3.109   0.676  10.921 -0.3863 -0.2046  0.0734
52522SOL    HW169545   3.114   0.758  10.873  1.1246 -1.2951 -1.7941
52522SOL    HW269546   3.087   0.611  10.855  1.3464 -1.7285  0.8917
52523SOL     OW69547   1.523  13.558   0.550  0.3336  0.8804  0.0618
52523SOL    HW169548   1.573  13.477   0.557 -0.3516  0.2276 -1.9063
52523SOL    HW269549   1.432  13.530   0.553  0.0866  1.6857  0.2715
52524SOL     OW69550  11.983  10.932   2.662 -0.6145 -0.3647 -0.6915
52524SOL    HW169551  12.014  10.845   2.685  0.8991  1.0924  3.8973
52524SOL    HW269552  12.062  10.979   2.633  0.1446  1.0670  3.1158
52525SOL     OW69553   1.204   1.141   8.549 -0.0018  0.3044  0.1182
52525SOL    HW169554   1.281   1.168   8.500 -0.0592  0.2126 -0.0227
52525SOL    HW269555   1.208   1.045   8.549  0.4584  0.3075  1.0145
52526SOL     OW69556   5.955  11.067  13.199  0.0898  0.2991  0.5801
52526SOL    HW169557   5.986  11.114  13.121 -0.2197  1.0109  0.8734
52526SOL    HW269558   5.916  11.136  13.254 -2.2172 -0.5309  0.1275
52527SOL     OW69559  12.430  11.118   0.900 -0.5073 -0.4225  0.4399
52527SOL    HW169560  12.517  11.088   0.872  0.1546  1.9665 -0.2821
52527SOL    HW269561  12.412  11.069   0.980  2.2881  0.2427  1.5816
52528SOL     OW69562  12.701   0.757  11.932  0.1810 -0.3778  0.1342
52528SOL    HW169563  12.674   0.692  11.867 -1.5154 -0.7049  1.0836
52528SOL    HW269564  12.629   0.820  11.932 -0.0110 -0.5668  1.9048
52529SOL     OW69565  10.748   2.780   6.208 -0.2876 -0.1276  0.0573
52529SOL    HW169566  10.659   2.745   6.202 -0.1419 -0.3458 -0.9474
52529SOL    HW269567  10.755   2.840   6.133  1.1946 -1.9351 -1.3526
52530SOL     OW69568   6.240   0.514   2.151 -0.4636 -0.1732  0.1163
52530SOL    HW169569   6.191   0.528   2.070  0.6616  1.4505 -0.3271
52530SOL    HW269570   6.318   0.567   2.141 -0.1245 -0.2241  2.1413
52531SOL     OW69571   4.875   0.758   6.402  0.2122 -0.1715 -0.0701
52531SOL    HW169572   4.868   0.771   6.308 -2.5042  0.1883  0.0766
52531SOL    HW269573   4.847   0.668   6.417  4.3457 -1.5905  0.1821
52532SOL     OW69574   9.818   1.505   8.505 -0.7089  0.1188 -0.2509
52532SOL    HW169575   9.786   1.432   8.558 -0.4841  0.4140  0.2999
52532SOL    HW269576   9.890   1.468   8.454  0.3736  0.2856  1.1015
52533SOL     OW69577   8.610  13.354  13.025  0.3356 -0.1425  0.2979
52533SOL    HW169578   8.570  13.295  12.960  0.9009  0.1326 -0.3228
52533SOL    HW269579   8.536  13.393  13.071 -0.1050  0.1722 -0.6498
52534SOL     OW69580  12.488   1.012  13.692  0.4207 -0.3849 -0.2903
52534SOL    HW169581  12.523   1.095  13.661 -2.4651  1.2706  0.5070
52534SOL    HW269582  12.435   0.980  13.618 -0.9418  0.1086  0.4353
52535SOL     OW69583   7.123   9.138   5.299  0.2465 -0.0091  0.3386
52535SOL    HW169584   7.192   9.119   5.235  0.0832 -2.0953  0.7368
52535SOL    HW269585   7.162   9.116   5.384 -0.5227 -0.0992  0.6709
52536SOL     OW69586   6.057  11.414   4.428  0.0755  0.2154  0.0788
52536SOL    HW169587   6.033  11.440   4.516 -0.1814  2.0628 -0.4917
52536SOL    HW269588   5.991  11.454   4.371  1.4967  1.0275 -1.1033
52537SOL     OW69589  13.447   8.156  10.995  0.2828 -0.1240 -0.0446
52537SOL    HW169590  13.481   8.123  10.912 -0.0846  2.2563 -1.2613
52537SOL    HW269591  13.460   8.085  11.057 -0.2551 -2.3768 -2.3151
52538SOL     OW69592  13.788   1.481  10.549  0.1507 -0.2733 -0.0190
52538SOL    HW169593  13.878   1.464  10.579  0.9931  2.5597 -0.6312
52538SOL    HW269594  13.776   1.425  10.473  0.3686 -2.6890  1.6407
52539SOL     OW69595   3.330   3.001   9.863  0.0244  0.3391  0.2547
52539SOL    HW169596   3.382   2.921   9.854 -0.2545  0.0305  1.2491
52539SOL    HW269597   3.279   3.005   9.782 -0.5935 -0.9776  0.5315
52540SOL     OW69598   8.669   9.009   8.938 -0.7428 -0.4955 -0.0594
52540SOL    HW169599   8.763   9.018   8.924 -0.7057 -1.6612 -0.6342
52540SOL    HW269600   8.635   9.099   8.930  0.0685 -0.3090 -1.7767
52541SOL     OW69601   1.583   3.921   5.292  0.5124 -0.0155  0.0609
52541SOL    HW169602   1.637   3.928   5.213  1.7009  0.6160  0.8848
52541SOL    HW269603   1.519   3.991   5.284  1.3755  0.8144  0.1789
52542SOL     OW69604   2.214   3.004   5.107 -0.0242 -0.1264 -0.1712
52542SOL    HW169605   2.219   3.047   5.193  0.6492  0.1511 -0.3476
52542SOL    HW269606   2.139   3.047   5.064 -0.3314 -0.2305  0.2528
52543SOL     OW69607  11.205   0.033  10.131  0.3649  0.6906  0.2687
52543SOL    HW169608  11.151   0.060  10.057 -1.5448  2.3921  2.1459
52543SOL    HW269609  11.143   0.001  10.196  1.9761 -0.7657  1.1620
52544SOL     OW69610   4.963   5.386  13.815 -0.0930 -0.5832 -0.2958
52544SOL    HW169611   5.039   5.347  13.772 -0.5877 -1.4021 -0.4504
52544SOL    HW269612   4.889   5.331  13.788 -0.8508  0.6199 -0.7099
52545SOL     OW69613   7.213   6.175  10.796 -0.0097  0.1432 -0.3544
52545SOL    HW169614   7.159   6.143  10.724 -0.9006  1.6948 -0.4270
52545SOL    HW269615   7.157   6.168  10.873 -0.4759  2.0226 -0.4742
52546SOL     OW69616   8.288  11.982   0.276  0.3325  0.3832 -0.1055
52546SOL    HW169617   8.364  11.979   0.218  0.1407  1.3904 -0.4187
52546SOL    HW269618   8.323  12.007   0.362  0.2636  1.7178 -0.4451
52547SOL     OW69619  10.827  10.354   4.381 -0.4639 -0.0429  0.3377
52547SOL    HW169620  10.830  10.329   4.473  1.7993  0.1836  0.3661
52547SOL    HW269621  10.828  10.271   4.333 -1.6842 -0.1616  0.4778
52548SOL     OW69622   1.829   3.690   1.466 -0.0564  0.7057 -0.2555
52548SOL    HW169623   1.751   3.702   1.521 -0.5630  1.6451 -1.1361
52548SOL    HW269624   1.808   3.738   1.386 -0.1240 -2.1338 -2.0697
52549SOL     OW69625  10.407   0.516   2.642 -0.2083 -0.0857 -0.0331
52549SOL    HW169626  10.351   0.467   2.581  1.7055 -1.4794 -0.7535
52549SOL    HW269627  10.392   0.474   2.727  0.4977 -1.1808 -0.4216
52550SOL     OW69628  11.935   7.341   5.714 -0.5364  0.3803 -0.1009
52550SOL    HW169629  11.998   7.410   5.734 -0.7862  0.0137  2.2700
52550SOL    HW269630  11.849   7.383   5.725 -0.6876 -0.0380  0.3692
52551SOL     OW69631   4.341  13.977   3.793 -0.2678 -0.1007 -0.3928
52551SOL    HW169632   4.306  13.926   3.720 -1.6896 -0.6559  0.6237
52551SOL    HW269633   4.304  13.936   3.871  1.7504  0.0620  0.7027
52552SOL     OW69634   8.554   7.107   2.245  0.5165  0.1737 -0.1640
52552SOL    HW169635   8.553   7.198   2.273 -0.7831  0.3847 -0.8282
52552SOL    HW269636   8.609   7.106   2.167  1.3811  0.1834  0.4274
52553SOL     OW69637  12.153   0.116   7.389  0.3451  0.0952  0.5149
52553SOL    HW169638  12.141   0.084   7.299 -0.7609 -0.4167  0.8261
52553SOL    HW269639  12.239   0.082   7.415 -0.4971 -2.1715  0.5996
52554SOL     OW69640  11.276   4.883   7.450 -0.1427  0.0673  0.3862
52554SOL    HW169641  11.356   4.932   7.432 -1.0908  1.2008 -0.8647
52554SOL    HW269642  11.216   4.948   7.487 -0.3036 -0.9145  1.9604
52555SOL     OW69643   7.569  13.894   2.318 -0.3918 -0.0413 -0.3155
52555SOL    HW169644   7.656  13.918   2.350 -0.2638  1.1978 -1.5058
52555SOL    HW269645   7.544  13.819   2.372  1.6871 -0.8441 -0.3528
52556SOL     OW69646  11.617   5.955   4.440  0.0503  0.1593 -0.1875
52556SOL    HW169647  11.687   5.893   4.459 -0.9978 -1.1190 -0.3389
52556SOL    HW269648  11.658   6.022   4.385  0.9598 -1.0053 -0.9748
52557SOL     OW69649  11.916   2.524   4.176  0.5111  0.3394  0.5664
52557SOL    HW169650  11.911   2.445   4.230  1.9232 -0.6777 -0.7408
52557SOL    HW269651  12.004   2.524   4.140  0.0211  1.6606 -0.7456
52558SOL     OW69652   9.739   8.360  10.150 -0.0834  0.0556 -0.0404
52558SOL    HW169653   9.752   8.283  10.095  0.0305 -1.1992  1.6536
52558SOL    HW269654   9.647   8.382  10.138 -1.1224 -2.5627  2.0448
52559SOL     OW69655   0.305   8.988   5.518 -0.0539 -0.0510  0.3467
52559SOL    HW169656   0.296   9.061   5.579 -1.0274 -0.1847  0.3773
52559SOL    HW269657   0.386   8.945   5.545  0.3473  0.8041  0.5507
52560SOL     OW69658  11.388  12.636  10.022  0.1966  0.4763  0.3681
52560SOL    HW169659  11.294  12.636  10.004  0.0186 -0.4567  1.2375
52560SOL    HW269660  11.423  12.564   9.969  0.6405  1.5882 -0.9151
52561SOL     OW69661   7.736   9.031   5.780  0.1342 -0.2251 -0.0427
52561SOL    HW169662   7.708   9.054   5.691 -0.6282  2.4468  0.7967
52561SOL    HW269663   7.831   9.042   5.779  0.2007 -0.7422 -0.6333
52562SOL     OW69664   8.595  12.949   0.726  0.2101  0.6169  0.4010
52562SOL    HW169665   8.516  12.902   0.754  1.8821 -1.1624  2.5557
52562SOL    HW269666   8.572  13.041   0.736 -1.9546  0.2137 -0.1811
52563SOL     OW69667  11.718  11.699   6.056 -0.5078  0.0929  0.7327
52563SOL    HW169668  11.658  11.625   6.060  0.1239 -0.7674 -2.3565
52563SOL    HW269669  11.805  11.659   6.050 -0.1462  1.0307 -0.9268
52564SOL     OW69670   5.386  14.003   7.467 -0.1601  0.0009  0.1207
52564SOL    HW169671   5.311  13.987   7.409 -0.3992  1.3900 -0.0031
52564SOL    HW269672   5.346  14.034   7.549  0.2615  0.7849  0.0386
52565SOL     OW69673   6.765   4.979  10.240 -0.0265  0.5638 -0.4981
52565SOL    HW169674   6.705   4.940  10.176  1.5572 -1.5355 -0.8096
52565SOL    HW269675   6.710   4.996  10.317 -0.7890 -3.3051  0.0506
52566SOL     OW69676   7.824   9.098  12.893 -0.1684 -0.2840 -0.1854
52566SOL    HW169677   7.916   9.097  12.918  0.2239  0.1184 -1.5307
52566SOL    HW269678   7.824   9.084  12.798 -1.5550 -1.3003 -0.0649
52567SOL     OW69679   6.577   8.732  11.274  0.2040  0.4931 -0.7052
52567SOL    HW169680   6.526   8.682  11.337  3.5560 -0.8438  1.2463
52567SOL    HW269681   6.548   8.701  11.189 -0.3366 -2.1873  0.3743
52568SOL     OW69682   1.706  13.698  13.853 -0.3787  0.1914  0.1598
52568SOL    HW169683   1.626  13.706  13.801 -0.6953  1.5873  0.8186
52568SOL    HW269684   1.686  13.742  13.935  1.0935  0.6275  0.3101
52569SOL     OW69685  13.746   3.719   7.450  0.1314 -0.1413  0.0068
52569SOL    HW169686  13.696   3.750   7.526 -0.9338 -0.0489 -0.7178
52569SOL    HW269687  13.780   3.634   7.477 -0.1412 -0.0587  0.6301
52570SOL     OW69688   0.364  11.238  10.810 -0.6723  0.0858  0.4857
52570SOL    HW169689   0.407  11.236  10.896  2.8156  2.7795 -0.9554
52570SOL    HW269690   0.424  11.191  10.752 -0.0156  3.0410 -1.4342
52571SOL     OW69691  13.961  12.596   5.000  0.8048  0.1032  0.8585
52571SOL    HW169692  14.036  12.575   5.056 -0.1585 -1.6321  1.5712
52571SOL    HW269693  13.895  12.531   5.023 -0.7087  1.2006 -0.2067
52572SOL     OW69694   2.240  11.992  12.223  0.5029  0.1937  0.7737
52572SOL    HW169695   2.282  12.012  12.306  2.4235 -0.6460  0.0764
52572SOL    HW269696   2.202  11.905  12.235 -0.4956  0.6689  1.1880
52573SOL     OW69697  12.785  13.309   0.404 -0.9452  0.3353  0.1844
52573SOL    HW169698  12.821  13.222   0.421 -1.2861  0.1766  0.0971
52573SOL    HW269699  12.760  13.342   0.491 -0.5743  0.4520  0.2465
52574SOL     OW69700   7.145   8.872   2.309  0.3978  0.1949  0.0489
52574SOL    HW169701   7.194   8.936   2.258  0.2489  0.2456 -0.0302
52574SOL    HW269702   7.154   8.790   2.261  1.9417 -0.2175  0.9839
52575SOL     OW69703   8.992  11.389   1.043  0.0125  0.2748  0.0870
52575SOL    HW169704   8.907  11.395   1.087  0.2605  2.1145  0.3891
52575SOL    HW269705   9.022  11.300   1.062 -1.1386  0.1028  1.3103
52576SOL     OW69706  10.627   2.662  11.799 -0.4132  0.1727  0.4135
52576SOL    HW169707  10.667   2.582  11.835 -0.0054  0.0834 -0.2354
52576SOL    HW269708  10.692   2.698  11.740 -1.3005 -0.0012 -0.7080
52577SOL     OW69709   3.519   7.091   3.174 -0.1172  0.1658  0.3650
52577SOL    HW169710   3.606   7.076   3.210  0.4867  1.1652 -0.6100
52577SOL    HW269711   3.478   7.004   3.171  1.3780 -0.5440 -0.4682
52578SOL     OW69712  11.051  13.292  11.429  0.0115  0.7628 -0.1538
52578SOL    HW169713  11.057  13.230  11.501  1.7545  1.0056 -0.0552
52578SOL    HW269714  10.989  13.359  11.460 -3.6725 -1.9001 -1.1053
52579SOL     OW69715  13.456   8.533   9.149 -0.0619 -0.3187 -0.2604
52579SOL    HW169716  13.391   8.531   9.079 -0.6643  2.1248  0.1323
52579SOL    HW269717  13.412   8.575   9.223  2.1348  2.4717 -0.3207
52580SOL     OW69718   6.599  10.647  10.770 -0.1041  0.1989  0.2347
52580SOL    HW169719   6.575  10.735  10.799 -1.2517 -0.0875  0.2053
52580SOL    HW269720   6.630  10.659  10.681  0.4615  0.6727  0.4923
52581SOL     OW69721   8.938  13.879   9.053 -0.0675  0.9333  0.4872
52581SOL    HW169722   8.986  13.857   9.133 -0.6308  0.3678  0.6779
52581SOL    HW269723   8.970  13.966   9.029 -0.3514  1.3970  1.7002
52582SOL     OW69724  10.963  12.419  11.819 -0.0046  0.1054  0.4571
52582SOL    HW169725  10.982  12.328  11.842 -0.5808 -0.1339  0.0019
52582SOL    HW269726  10.876  12.436  11.855 -0.2791  0.1951 -0.2454
52583SOL     OW69727   5.120   7.512  12.913  0.6973  0.0554  0.2904
52583SOL    HW169728   5.045   7.568  12.932 -0.8089 -2.2867  1.8864
52583SOL    HW269729   5.178   7.522  12.988  0.4957 -0.3725  0.5086
52584SOL     OW69730   1.816   6.113   1.620 -0.4549 -0.6473  0.1381
52584SOL    HW169731   1.789   6.021   1.621 -1.2650 -0.4464 -1.1647
52584SOL    HW269732   1.737   6.160   1.594  0.4461  0.2465 -1.0558
52585SOL     OW69733  12.341   2.660   6.399  0.0733 -0.0019  0.2457
52585SOL    HW169734  12.377   2.669   6.488  1.0586 -0.4139 -0.0951
52585SOL    HW269735  12.298   2.744   6.383  1.7882  0.9580  0.2991
52586SOL     OW69736  11.931  13.266   5.034 -0.2744 -0.5528 -0.6878
52586SOL    HW169737  12.001  13.327   5.060 -0.3451 -1.0164  0.6974
52586SOL    HW269738  11.964  13.180   5.060 -0.8485 -0.9215 -1.1581
52587SOL     OW69739  12.464   0.229   4.895 -0.1165 -0.0964 -0.3700
52587SOL    HW169740  12.529   0.160   4.877  0.3068  0.3509 -0.5920
52587SOL    HW269741  12.423   0.202   4.977  0.9913  0.0620  0.2642
52588SOL     OW69742   2.211   7.139   3.398 -0.1534  0.4714  0.3972
52588SOL    HW169743   2.163   7.066   3.358 -0.6317  0.6359  0.6711
52588SOL    HW269744   2.281   7.158   3.335 -0.7663  0.5825 -0.2630
52589SOL     OW69745   1.824   6.456   2.226 -0.3274 -0.1500 -0.4769
52589SOL    HW169746   1.895   6.411   2.180 -1.2661 -1.8039 -0.4076
52589SOL    HW269747   1.745   6.407   2.201 -0.9876 -0.5333  2.0999
52590SOL     OW69748   7.228   1.688   2.778 -1.1156 -0.3813  0.4676
52590SOL    HW169749   7.144   1.671   2.736 -0.2922 -3.4461 -0.2374
52590SOL    HW269750   7.233   1.622   2.847  0.7938 -0.4248  0.3298
52591SOL     OW69751   6.712   5.493   8.441 -0.1321 -0.3688 -0.5431
52591SOL    HW169752   6.681   5.579   8.470  0.1904 -0.4121 -0.0638
52591SOL    HW269753   6.704   5.496   8.345 -1.7697 -0.4404 -0.4293
52592SOL     OW69754  11.569   0.512   6.913 -0.8919 -0.0922  0.4252
52592SOL    HW169755  11.529   0.497   6.827 -1.0584 -2.2064  0.8316
52592SOL    HW269756  11.497   0.499   6.975 -0.6687  0.9919  0.9323
52593SOL     OW69757   7.555   4.451   1.111  0.6788 -0.5988 -0.0123
52593SOL    HW169758   7.538   4.411   1.026 -1.3912 -1.3439  0.6934
52593SOL    HW269759   7.524   4.386   1.174  1.8878  0.0717  1.3205
52594SOL     OW69760  11.645   3.111  11.610 -0.3279  0.9583  0.1441
52594SOL    HW169761  11.687   3.154  11.685  0.0946  2.9878 -1.1804
52594SOL    HW269762  11.716   3.077  11.558 -0.4321  1.8944 -0.6480
52595SOL     OW69763  12.096   6.028   0.180 -0.1610 -0.3370 -0.0253
52595SOL    HW169764  12.121   5.941   0.210  0.6956  0.1586  0.7418
52595SOL    HW269765  12.044   6.065   0.251 -1.2956 -0.5472 -0.7235
52596SOL     OW69766   7.079   3.659   4.826 -0.0811 -0.0542  0.0485
52596SOL    HW169767   7.031   3.577   4.839 -0.8298  0.4455  0.5351
52596SOL    HW269768   7.011   3.721   4.797  0.2119  0.7535  1.0681
52597SOL     OW69769  13.946   9.184   6.893  0.2423 -0.1207  1.1337
52597SOL    HW169770  13.910   9.100   6.863  1.0572 -0.3665  0.8291
52597SOL    HW269771  13.911   9.248   6.831  0.4425 -0.3813  0.7461
52598SOL     OW69772   6.483   9.763   1.636  0.2241  0.1074 -0.3613
52598SOL    HW169773   6.576   9.757   1.659  0.0263 -0.8846  0.2195
52598SOL    HW269774   6.480   9.737   1.544  0.5516  0.3668 -0.4468
52599SOL     OW69775  10.413   8.026  11.071  0.1523 -0.1757 -0.3922
52599SOL    HW169776  10.425   7.940  11.031  0.9581 -0.3112  0.0982
52599SOL    HW269777  10.414   8.008  11.165  0.8466  0.4241 -0.2789
52600SOL     OW69778   5.826  13.633  13.717  0.2875  0.0033  0.2349
52600SOL    HW169779   5.867  13.560  13.670  0.0816  0.0867 -0.0735
52600SOL    HW269780   5.892  13.702  13.717  0.6526 -0.3366  0.9169
52601SOL     OW69781   2.102  13.449  11.629  0.2527  0.1545 -0.2230
52601SOL    HW169782   2.010  13.424  11.622  0.4607 -1.5575  1.9364
52601SOL    HW269783   2.146  13.396  11.562  0.1143 -2.3090  1.4832
52602SOL     OW69784   7.596   7.826   8.080 -0.1870  0.0334  0.1991
52602SOL    HW169785   7.611   7.847   8.173 -2.0135  1.7107  0.1983
52602SOL    HW269786   7.627   7.904   8.033  1.3014 -1.0556 -0.6922
52603SOL     OW69787   9.509   0.119   6.468 -0.0881 -0.2574 -0.3819
52603SOL    HW169788   9.510   0.049   6.403  0.3312  2.4933 -3.6451
52603SOL    HW269789   9.429   0.105   6.517 -1.7060 -1.2733 -3.0823
52604SOL     OW69790  12.887   0.934  12.279 -0.3196  0.0108  0.0657
52604SOL    HW169791  12.879   0.883  12.359  0.7094  0.7584  0.6650
52604SOL    HW269792  12.954   0.889  12.227  0.4185  0.5913  0.4921
52605SOL     OW69793   2.032  12.607  14.020 -0.1119  0.1001  0.0060
52605SOL    HW169794   2.073  12.663  14.086 -1.0176  1.4247 -0.5093
52605SOL    HW269795   2.103  12.581  13.962  0.1701  1.6163 -0.3560
52606SOL     OW69796  13.752   9.376   6.683 -0.3172 -0.3391  0.2789
52606SOL    HW169797  13.705   9.457   6.663 -0.0329 -0.0806  0.6585
52606SOL    HW269798  13.692   9.327   6.740 -0.1037  0.0266  0.8284
52607SOL     OW69799   6.609   5.297   3.373 -0.3198  0.1427  0.1586
52607SOL    HW169800   6.555   5.238   3.321 -0.9905  1.1124 -0.2855
52607SOL    HW269801   6.688   5.247   3.392 -0.5170 -0.6030 -0.8957
52608SOL     OW69802  11.496   7.962   2.139  0.0967  0.3038  0.2307
52608SOL    HW169803  11.560   8.024   2.104 -0.2316 -0.1717 -1.2500
52608SOL    HW269804  11.518   7.956   2.232  1.7905  0.6608 -0.1101
52609SOL     OW69805   7.241   5.685   0.672 -0.2068  0.3353 -0.0398
52609SOL    HW169806   7.180   5.746   0.632  0.0141 -0.0031 -0.9305
52609SOL    HW269807   7.193   5.602   0.676  0.2210  0.0317 -0.8754
52610SOL     OW69808   1.687   1.172  13.387 -0.3507 -0.1345  0.1820
52610SOL    HW169809   1.753   1.234  13.420 -0.7618  0.1723  0.4375
52610SOL    HW269810   1.614   1.228  13.360 -0.1304 -0.3934 -1.0263
52611SOL     OW69811  13.281   6.394   6.200 -0.2446  0.4378 -0.5623
52611SOL    HW169812  13.285   6.298   6.206 -0.4796  0.5069  1.3761
52611SOL    HW269813  13.223   6.411   6.127 -0.9106 -0.9288 -0.3825
52612SOL     OW69814   8.921   6.278  11.846  0.2015  0.8194  0.3424
52612SOL    HW169815   8.946   6.334  11.773 -1.0668  1.0028  0.0240
52612SOL    HW269816   8.999   6.225  11.864  0.6296  0.9887 -0.9316
52613SOL     OW69817  13.287   8.524   8.938 -0.3627  0.3873 -0.0505
52613SOL    HW169818  13.234   8.603   8.926 -1.5559  0.1078  2.6504
52613SOL    HW269819  13.224   8.452   8.929  0.6708 -0.3353 -2.2976
52614SOL     OW69820  12.908   6.049  11.663 -0.0589  0.7138 -0.0150
52614SOL    HW169821  12.825   6.090  11.637 -1.0179 -1.1930 -0.1206
52614SOL    HW269822  12.886   5.957  11.679  1.9545  0.2535  0.4343
52615SOL     OW69823   1.371   2.146   9.493 -0.1051 -0.1591  0.1047
52615SOL    HW169824   1.448   2.140   9.437 -0.1461 -1.0254  0.1210
52615SOL    HW269825   1.399   2.197   9.569  0.3463 -0.1762 -0.0509
52616SOL     OW69826   5.722   4.859  14.008  0.2982 -0.5603 -0.0053
52616SOL    HW169827   5.815   4.871  14.026 -0.1012 -1.1909  3.1937
52616SOL    HW269828   5.684   4.946  14.017  0.6321 -0.1380 -2.2270
52617SOL     OW69829   4.485   1.011  10.749 -0.0455 -0.0870 -0.2878
52617SOL    HW169830   4.453   0.930  10.710  0.6425 -1.2583  1.5037
52617SOL    HW269831   4.431   1.025  10.826  0.7498  0.3899  0.2056
52618SOL     OW69832   1.120   8.638   0.478 -0.6266  1.0427  0.2121
52618SOL    HW169833   1.143   8.729   0.498  1.9084  0.6244 -0.5554
52618SOL    HW269834   1.051   8.616   0.541 -0.4410  3.0970  1.1912
52619SOL     OW69835   9.143   9.820   0.700  0.6212  0.3598 -0.6582
52619SOL    HW169836   9.118   9.905   0.736  1.5416  1.1339 -1.7755
52619SOL    HW269837   9.161   9.766   0.777 -1.1881  0.7609  0.1008
52620SOL     OW69838   5.743  10.086  12.265 -0.3437  0.3386 -0.4178
52620SOL    HW169839   5.686  10.017  12.232 -1.1817  1.4103 -1.2766
52620SOL    HW269840   5.694  10.126  12.337 -0.3517  0.7715 -0.6622
52621SOL     OW69841   4.084   3.508   2.086  0.0817 -0.1071  0.1619
52621SOL    HW169842   4.007   3.455   2.107  0.6048 -0.6420  0.7903
52621SOL    HW269843   4.068   3.592   2.128 -1.3069  0.6991 -1.8484
52622SOL     OW69844   3.988  13.262  13.854  0.1712  0.5268  0.1927
52622SOL    HW169845   3.931  13.289  13.925 -0.4351 -1.2193  0.4182
52622SOL    HW269846   4.076  13.286  13.883 -0.1794  0.7778  1.0631
52623SOL     OW69847  11.415   9.401  10.865 -0.2097  0.3306 -0.0977
52623SOL    HW169848  11.362   9.405  10.944  0.7077  2.0477  0.4878
52623SOL    HW269849  11.501   9.369  10.895  0.1866  1.1300 -0.3501
52624SOL     OW69850   0.570  13.724  13.842  0.2386  0.0636 -0.4313
52624SOL    HW169851   0.513  13.799  13.827  0.9578  0.4852 -1.1389
52624SOL    HW269852   0.629  13.724  13.767  0.5631 -0.9186 -0.1836
52625SOL     OW69853   9.218   7.010   0.971 -0.2388 -0.3914 -0.1382
52625SOL    HW169854   9.148   6.967   1.020 -1.6703  1.3422 -0.5777
52625SOL    HW269855   9.188   7.100   0.959  1.3206 -0.0297 -1.7931
52626SOL     OW69856   7.063   1.833  12.771 -0.1987  0.7899  0.4876
52626SOL    HW169857   7.122   1.838  12.847  0.9140 -0.5991 -0.2210
52626SOL    HW269858   7.116   1.863  12.697 -0.9012  1.0363  0.0742
52627SOL     OW69859  13.682  10.820   4.581 -0.4404 -0.2111 -0.0475
52627SOL    HW169860  13.672  10.852   4.491  0.1294  0.6671  0.1935
52627SOL    HW269861  13.768  10.850   4.608  0.5590 -2.7457 -0.1060
52628SOL     OW69862  13.307  10.295   1.913  0.2571  0.1375  0.0516
52628SOL    HW169863  13.399  10.309   1.937  0.4453  0.0005 -0.5502
52628SOL    HW269864  13.293  10.354   1.839 -0.1896  0.2733  0.2419
52629SOL     OW69865   3.879  10.447   7.268 -0.6104 -0.2016  0.9709
52629SOL    HW169866   3.895  10.389   7.193 -0.2441  0.6104  0.4155
52629SOL    HW269867   3.802  10.409   7.311  1.0963 -2.6542  2.1688
52630SOL     OW69868   0.407   8.867   5.749  0.4995 -0.2831  0.0226
52630SOL    HW169869   0.362   8.783   5.746  1.1138 -0.5901 -0.5099
52630SOL    HW269870   0.433   8.877   5.841  0.4096 -0.6566  0.0901
52631SOL     OW69871  10.800   5.584   1.198 -0.5617  0.5006 -0.1515
52631SOL    HW169872  10.709   5.605   1.217  0.0120  1.9080  1.2522
52631SOL    HW269873  10.811   5.493   1.226 -1.5194  0.3041 -0.3792
52632SOL     OW69874   1.910   3.334   0.423 -1.0027 -0.3415 -0.3581
52632SOL    HW169875   1.854   3.320   0.499 -2.6604  0.1927 -1.4230
52632SOL    HW269876   1.909   3.429   0.410  1.0137 -0.2053  0.1824
52633SOL     OW69877   1.230  12.645  13.787  0.0383 -0.2373 -0.3015
52633SOL    HW169878   1.180  12.680  13.713 -0.4194  0.0041  0.1105
52633SOL    HW269879   1.195  12.692  13.863  2.5732  1.8140 -0.2510
52634SOL     OW69880   5.566   5.023  13.043 -0.0810  0.1235  0.0134
52634SOL    HW169881   5.628   4.950  13.029  0.4543  0.7904 -1.2628
52634SOL    HW269882   5.619   5.091  13.086 -0.0238  0.5319 -0.6889
52635SOL     OW69883  10.383   9.138   1.494  0.9445  0.0311 -0.0108
52635SOL    HW169884  10.435   9.059   1.506 -0.1491 -0.8671 -0.9951
52635SOL    HW269885  10.293   9.109   1.504  0.5437  1.2633  0.0962
52636SOL     OW69886  13.450   9.110   8.115 -0.0232 -1.0049 -0.1514
52636SOL    HW169887  13.488   9.182   8.064 -2.5050  0.6292  0.1078
52636SOL    HW269888  13.526   9.058   8.143  1.5780 -2.0380 -5.2898
52637SOL     OW69889   3.272   0.222  11.417 -0.0421  0.2240 -0.0926
52637SOL    HW169890   3.206   0.166  11.457  0.4063  0.3112  0.7976
52637SOL    HW269891   3.266   0.203  11.323 -1.2886  0.2069 -0.0189
52638SOL     OW69892   2.493   9.122   5.600 -0.2992  0.0997  0.2321
52638SOL    HW169893   2.530   9.111   5.513 -1.3433  2.7831 -0.6597
52638SOL    HW269894   2.441   9.043   5.614 -0.8817  0.0200 -2.0029
52639SOL     OW69895  12.797   5.845   9.947  0.2788 -0.6845  0.6750
52639SOL    HW169896  12.848   5.843   9.866  0.8186 -1.5282  1.0162
52639SOL    HW269897  12.723   5.903   9.928  1.5052  0.8066  0.2423
52640SOL     OW69898   7.891   5.864  10.227  0.1833 -0.4420  0.0271
52640SOL    HW169899   7.949   5.938  10.208 -0.1338 -0.4208 -0.9146
52640SOL    HW269900   7.833   5.896  10.296  1.4731 -0.5668  1.2104
52641SOL     OW69901   1.928   3.051   8.070  0.0201 -0.4805 -0.4248
52641SOL    HW169902   1.994   3.120   8.081 -0.4382 -0.3176  1.9854
52641SOL    HW269903   1.949   3.010   7.987  0.8277  2.0166 -1.5467
52642SOL     OW69904   6.079   0.191  13.724 -0.0850 -0.1241  0.3292
52642SOL    HW169905   6.085   0.182  13.628  0.3821 -1.4864  0.4697
52642SOL    HW269906   6.012   0.258  13.737  0.8180  1.1216 -0.9749
52643SOL     OW69907  10.351   7.060   9.712 -0.2423  0.2941  0.2706
52643SOL    HW169908  10.420   7.123   9.733  0.3501 -0.0140 -0.7071
52643SOL    HW269909  10.392   6.974   9.724 -0.0999  0.1012 -1.2932
52644SOL     OW69910   7.718   9.207  12.220  0.0515  0.6835  0.3803
52644SOL    HW169911   7.732   9.118  12.251  1.1099  0.3588 -0.9423
52644SOL    HW269912   7.753   9.263  12.289 -2.6524  0.2095  2.2773
52645SOL     OW69913   1.050   1.523  11.948  0.4404 -0.1719  0.1390
52645SOL    HW169914   1.144   1.530  11.933  0.3484 -0.2379 -0.4858
52645SOL    HW269915   1.025   1.442  11.902  0.0740 -0.1319  0.2668
52646SOL     OW69916   1.541   5.323   0.464 -0.4618  0.0384  0.5690
52646SOL    HW169917   1.446   5.317   0.463 -0.3658 -1.9140 -0.5860
52646SOL    HW269918   1.567   5.328   0.372  0.5573  0.4279  0.8594
52647SOL     OW69919  11.184   3.348   4.811  0.0680 -0.1191  0.1850
52647SOL    HW169920  11.213   3.323   4.723  0.2473  0.2694  0.1321
52647SOL    HW269921  11.250   3.313   4.869  0.4949  0.5015  0.0863
52648SOL     OW69922   2.793  12.759   8.122 -0.0013  0.0003 -0.0817
52648SOL    HW169923   2.807  12.842   8.076 -0.4597 -0.1095 -0.4237
52648SOL    HW269924   2.789  12.693   8.053 -1.6175 -0.0496  0.0217
52649SOL     OW69925   4.843   2.414   9.430  0.2749  0.0334  0.2320
52649SOL    HW169926   4.799   2.493   9.401  2.0024  1.1160  0.4099
52649SOL    HW269927   4.936   2.436   9.427  0.8315 -2.1630 -0.2055
52650SOL     OW69928   7.143   8.968   4.899  0.3378 -0.1211 -0.2991
52650SOL    HW169929   7.118   8.877   4.882  0.2503  0.0078 -0.8898
52650SOL    HW269930   7.238   8.965   4.909  0.1470 -0.6204  1.9778
52651SOL     OW69931  13.605   1.094   0.114  0.1417  0.4011  0.8636
52651SOL    HW169932  13.603   1.003   0.083 -1.2257  0.7961 -0.3183
52651SOL    HW269933  13.698   1.117   0.114  0.3538 -0.1865 -1.4683
52652SOL     OW69934   2.583   7.960   3.557 -0.0678 -0.0536  0.0690
52652SOL    HW169935   2.526   7.981   3.482  1.4334 -0.8901 -1.3714
52652SOL    HW269936   2.657   8.020   3.548 -0.0191  0.0488  1.0827
52653SOL     OW69937   7.016   0.129  11.117  0.1250  0.2729 -0.6292
52653SOL    HW169938   7.017   0.084  11.202  1.8404 -1.1225 -1.3337
52653SOL    HW269939   7.108   0.135  11.092 -0.3917 -0.3451 -2.9004
52654SOL     OW69940  12.499  13.940   3.210  0.4928 -0.0792  0.1414
52654SOL    HW169941  12.574  13.999   3.216  0.0754  0.3371  1.6963
52654SOL    HW269942  12.535  13.854   3.227  1.0676 -0.2875 -1.9126
52655SOL     OW69943   2.093  10.396   5.937  0.0439 -0.0575 -0.5972
52655SOL    HW169944   2.072  10.316   5.986  0.5663 -0.2218 -0.6334
52655SOL    HW269945   2.173  10.374   5.889  1.0077  0.9505  0.4905
52656SOL     OW69946   0.236   2.555   6.756 -1.1964  0.5217 -0.0586
52656SOL    HW169947   0.321   2.566   6.798 -1.6662  1.2537  0.7413
52656SOL    HW269948   0.254   2.568   6.663 -0.0378 -1.7256 -0.2136
52657SOL     OW69949  11.576   1.770   1.073  0.6745  0.4958 -0.0262
52657SOL    HW169950  11.539   1.837   1.015  1.1478 -0.2157 -1.1741
52657SOL    HW269951  11.653   1.738   1.026  0.0651 -1.3604  0.1632
52658SOL     OW69952  13.698   9.804   6.381  0.6140 -0.2897 -0.2924
52658SOL    HW169953  13.706   9.851   6.463  1.7100  0.6336 -0.9117
52658SOL    HW269954  13.741   9.720   6.397 -1.7615 -1.3629  0.9624
52659SOL     OW69955   2.219  11.353  11.178 -0.5741 -0.4598  0.1494
52659SOL    HW169956   2.171  11.312  11.105  0.2200  0.4040 -0.8956
52659SOL    HW269957   2.301  11.383  11.139  0.4854 -1.1757  1.7237
52660SOL     OW69958  14.002  12.003  13.170 -0.1193 -0.6803  0.2713
52660SOL    HW169959  14.037  12.077  13.120  1.7605 -2.0409 -0.5094
52660SOL    HW269960  13.922  12.038  13.211  0.4890  1.6510 -0.3777
52661SOL     OW69961   9.261   7.996  11.342 -0.4865 -0.4948 -0.0459
52661SOL    HW169962   9.286   8.001  11.250  1.0162 -4.1578  0.0111
52661SOL    HW269963   9.165   8.000  11.341 -0.4762 -0.0561 -1.6915
52662SOL     OW69964   6.598   5.133   3.935 -0.0556  0.1886 -0.2248
52662SOL    HW169965   6.574   5.121   4.027 -0.2600 -1.1468 -0.4291
52662SOL    HW269966   6.692   5.147   3.936 -0.1432  0.7648  0.2312
52663SOL     OW69967   9.161   9.347   6.222  0.3829  0.0799 -0.1227
52663SOL    HW169968   9.193   9.388   6.303  0.8009  0.2917 -0.3902
52663SOL    HW269969   9.067   9.337   6.236  0.6454 -1.1669  0.9496
52664SOL     OW69970  13.943   7.349   2.315  0.1776  0.3198  0.1488
52664SOL    HW169971  13.939   7.372   2.408 -2.2423  2.1666 -0.3290
52664SOL    HW269972  14.000   7.415   2.276 -0.3523  0.6938  0.0135
52665SOL     OW69973  10.070  12.029   5.726  0.4380 -0.4986  0.5127
52665SOL    HW169974  10.031  11.962   5.669 -0.0307  1.0031 -1.0459
52665SOL    HW269975  10.013  12.031   5.803  0.7155 -2.1549  0.7922
52666SOL     OW69976  10.304  10.661   7.880  0.0804  0.2237  0.2475
52666SOL    HW169977  10.252  10.735   7.911  1.4510  0.6238  1.7278
52666SOL    HW269978  10.349  10.629   7.958 -0.3911 -2.1353 -0.3749
52667SOL     OW69979   6.184   4.768   5.981  0.0898  0.1284  0.6107
52667SOL    HW169980   6.127   4.841   5.958 -2.9055 -1.2366  2.9921
52667SOL    HW269981   6.224   4.794   6.064  1.2906  0.1646  0.0422
52668SOL     OW69982  12.206   2.639   8.987  0.3788  0.4937  0.1357
52668SOL    HW169983  12.231   2.607   8.900  1.3788  0.6293  0.3604
52668SOL    HW269984  12.207   2.561   9.042  0.9930  0.5934  0.2825
52669SOL     OW69985   4.908  12.843  12.530  0.4360  0.6129  0.1540
52669SOL    HW169986   4.963  12.803  12.462 -0.8633 -0.9420 -0.0453
52669SOL    HW269987   4.881  12.769  12.585 -2.0514  1.1794 -0.2122
52670SOL     OW69988   7.278   3.194   3.755 -0.2887  0.3046  0.2250
52670SOL    HW169989   7.358   3.160   3.715 -0.5764 -2.3775  1.6465
52670SOL    HW269990   7.290   3.289   3.757  2.4564  0.0549 -0.4003
52671SOL     OW69991   8.738   1.018  12.701 -0.6290  0.6802  0.7291
52671SOL    HW169992   8.750   1.019  12.795  1.1736 -0.1631  0.5467
52671SOL    HW269993   8.814   1.064  12.666 -0.5349 -0.2506 -0.3505
52672SOL     OW69994   9.580   4.165   6.953 -0.0595 -0.2718 -0.7123
52672SOL    HW169995   9.553   4.240   7.005  0.6059 -0.1923 -0.4721
52672SOL    HW269996   9.606   4.203   6.868  1.1685 -0.1046 -0.2805
52673SOL     OW69997   1.771  11.901  10.408  0.7364 -0.2272 -0.3269
52673SOL    HW169998   1.757  11.947  10.491  0.1501  0.8112 -0.9715
52673SOL    HW269999   1.854  11.856  10.419  0.1016 -1.0906  1.2496
52674SOL     OW70000  11.925   7.887   0.439 -0.0411 -0.7083 -0.2711
52674SOL    HW170001  11.972   7.838   0.506 -0.6659  0.0955  0.7908
52674SOL    HW270002  11.968   7.973   0.438 -0.8367 -0.2981  0.0093
52675SOL     OW70003  11.486   9.871  13.726  0.2691 -0.3833 -0.0599
52675SOL    HW170004  11.417   9.839  13.669 -0.8394 -0.5088  1.3030
52675SOL    HW270005  11.450   9.864  13.815  0.2078  3.7826  0.4642
52676SOL     OW70006   2.016  13.230   7.298  0.1525  0.7122 -0.4239
52676SOL    HW170007   1.940  13.285   7.315  0.9481  1.8534 -0.3846
52676SOL    HW270008   2.061  13.274   7.226  0.4796 -0.2565 -0.8254
52677SOL     OW70009  12.777   7.586   7.844 -0.0758 -0.0412  0.3220
52677SOL    HW170010  12.769   7.648   7.917 -0.6906 -0.5561  0.6957
52677SOL    HW270011  12.692   7.589   7.800 -0.7361 -1.9334  1.4066
52678SOL     OW70012   0.505   2.727   5.285  0.3264  0.1275 -0.0491
52678SOL    HW170013   0.433   2.762   5.337  1.0015  1.3559  0.1129
52678SOL    HW270014   0.510   2.635   5.310 -0.3924  0.3158  0.8686
52679SOL     OW70015   7.254   5.223   8.742  0.6068  0.2211  0.1873
52679SOL    HW170016   7.298   5.170   8.809  1.2300 -1.2094 -1.2864
52679SOL    HW270017   7.195   5.162   8.698 -0.5429  1.3832  0.0607
52680SOL     OW70018   4.051   2.290  12.931  0.3679  0.0409  0.2185
52680SOL    HW170019   3.985   2.323  12.870  0.8997  1.3156  0.3214
52680SOL    HW270020   4.000   2.246  13.000 -0.2817 -0.4093 -0.5306
52681SOL     OW70021   9.320   8.966   9.948  0.8978  0.1931 -0.0658
52681SOL    HW170022   9.342   8.917  10.027 -1.3915 -1.6237 -0.4628
52681SOL    HW270023   9.374   9.045   9.953  1.4712 -0.2867  2.8345
52682SOL     OW70024  10.868  10.144   4.156 -0.1061  0.0177  0.0325
52682SOL    HW170025  10.845  10.160   4.064  0.8509 -1.8865 -0.5983
52682SOL    HW270026  10.826  10.061   4.177  0.6047 -0.1168  0.9651
52683SOL     OW70027  12.488   1.208  12.484  0.0388 -0.5076  0.4157
52683SOL    HW170028  12.561   1.207  12.422 -0.3469 -3.4793 -0.1426
52683SOL    HW270029  12.530   1.204  12.570  0.5354  1.4000  0.3045
52684SOL     OW70030   9.472  12.042  13.461  0.1338 -0.7106 -0.3634
52684SOL    HW170031   9.543  11.979  13.469  1.6971  1.1211  1.3079
52684SOL    HW270032   9.435  12.048  13.549 -1.3914 -0.8298 -0.9709
52685SOL     OW70033   3.991   5.061  13.659  0.1345  0.5112  0.3705
52685SOL    HW170034   3.941   4.996  13.611  0.9735  0.3357 -0.2858
52685SOL    HW270035   4.040   5.010  13.724 -0.2499  0.6454  0.7750
52686SOL     OW70036   0.449   5.622  13.436  0.0243  0.1793  0.0250
52686SOL    HW170037   0.523   5.677  13.461  0.6960 -0.4782 -0.5052
52686SOL    HW270038   0.372   5.671  13.465  0.6968  0.3712  1.5740
52687SOL     OW70039   2.006   9.579   0.677  0.1464 -0.4151 -0.0181
52687SOL    HW170040   1.970   9.659   0.639  0.6288  0.1693  0.7253
52687SOL    HW270041   2.083   9.560   0.623  0.2656 -0.1517  0.0604
52688SOL     OW70042  10.530   5.626   5.850 -0.1774 -0.3121  0.4117
52688SOL    HW170043  10.589   5.558   5.882  0.1556 -1.0994 -1.7432
52688SOL    HW270044  10.516   5.683   5.926  0.4792 -2.0960  1.9436
52689SOL     OW70045   1.689   6.950  10.103 -1.0571 -0.0949  0.1127
52689SOL    HW170046   1.633   6.970  10.178 -2.3443  1.4104 -1.1854
52689SOL    HW270047   1.658   6.865  10.071 -0.7977 -0.5290  0.9818
52690SOL     OW70048   7.775   4.962  12.848 -0.3311  0.1721  0.1550
52690SOL    HW170049   7.781   4.960  12.943  4.0603 -0.4393  0.0365
52690SOL    HW270050   7.804   5.049  12.823 -1.9530  0.5148 -0.7217
52691SOL     OW70051  10.304   1.784   2.321 -0.6277  0.1174 -0.0446
52691SOL    HW170052  10.266   1.723   2.258  0.3938  0.4168 -0.9814
52691SOL    HW270053  10.398   1.766   2.319 -0.2304  2.0257 -0.7334
52692SOL     OW70054  11.784   7.627  13.960  0.2265  0.1754  0.0870
52692SOL    HW170055  11.850   7.566  13.994  1.0381  0.7493 -0.4289
52692SOL    HW270056  11.831   7.710  13.951 -0.6786  0.6953  0.0922
52693SOL     OW70057   2.036   9.571  12.369 -0.2897 -0.5530 -0.0883
52693SOL    HW170058   1.991   9.510  12.427 -0.4763  0.2998  0.7005
52693SOL    HW270059   1.966   9.626  12.334 -0.0869 -0.5605 -0.5028
52694SOL     OW70060   1.558   4.672   2.241  0.0846 -0.1021 -0.2852
52694SOL    HW170061   1.468   4.696   2.264  0.2492  0.7390 -0.4893
52694SOL    HW270062   1.600   4.655   2.326  0.3925  1.9394  0.0342
52695SOL     OW70063   6.028   7.986   2.429  0.3855  0.4550 -0.3264
52695SOL    HW170064   6.015   8.080   2.445 -1.2383  0.2368 -0.1269
52695SOL    HW270065   5.939   7.952   2.418  0.7947 -1.4263  1.6938
52696SOL     OW70066   2.869   3.356   8.140 -0.0297 -0.0797  0.0133
52696SOL    HW170067   2.873   3.260   8.146 -0.3761 -0.1506 -0.7426
52696SOL    HW270068   2.954   3.385   8.171  0.8048 -0.7439 -1.5076
52697SOL     OW70069   9.577   5.859  12.178  0.0959  0.2696 -0.0532
52697SOL    HW170070   9.505   5.858  12.115 -0.2661 -0.6528  0.3570
52697SOL    HW270071   9.651   5.893  12.128  0.1379 -1.5847 -1.3705
52698SOL     OW70072   8.690  13.825  12.975  0.0345 -0.2196  0.9291
52698SOL    HW170073   8.683  13.870  12.891  1.0844  1.2062  1.5672
52698SOL    HW270074   8.734  13.742  12.955 -1.7934 -0.9750 -0.2458
52699SOL     OW70075   4.172   5.112   0.204 -0.5523  0.0594  0.0836
52699SOL    HW170076   4.180   5.113   0.300 -2.7201  1.8201  0.3343
52699SOL    HW270077   4.248   5.161   0.174 -0.7713  1.0432  1.0521
52700SOL     OW70078   1.638   3.724   0.697 -0.0913 -0.0291 -0.1816
52700SOL    HW170079   1.557   3.685   0.666  0.1560 -0.8500  0.1706
52700SOL    HW270080   1.630   3.726   0.792 -0.2656  1.1789 -0.1995
52701SOL     OW70081  10.885  13.811   2.127 -0.2103 -0.1709 -0.5249
52701SOL    HW170082  10.812  13.851   2.174 -1.5612 -0.7637 -2.0039
52701SOL    HW270083  10.916  13.879   2.068  0.5786  0.1459  0.2503
52702SOL     OW70084   0.152   5.505  13.823 -0.2949 -0.2387  0.2658
52702SOL    HW170085   0.122   5.513  13.733 -0.1492  1.7725  0.3513
52702SOL    HW270086   0.084   5.548  13.875  0.8739  1.0587  0.8101
52703SOL     OW70087   4.112  13.370   6.002 -0.2112 -0.1937  0.7572
52703SOL    HW170088   4.084  13.303   6.064  0.0335 -1.6561 -0.6520
52703SOL    HW270089   4.196  13.339   5.969 -0.1961  0.6932 -0.0991
52704SOL     OW70090   8.299   6.171   7.052  0.0714  0.3156 -0.2247
52704SOL    HW170091   8.374   6.134   7.099 -0.2577 -1.1386 -0.7932
52704SOL    HW270092   8.323   6.163   6.960 -0.6459  0.1274 -0.4019
52705SOL     OW70093  13.939   3.558   8.188  0.1718 -0.0888 -0.4765
52705SOL    HW170094  14.024   3.531   8.156 -0.2872 -1.6839 -0.4584
52705SOL    HW270095  13.931   3.650   8.164  2.4731  0.5148  0.7878
52706SOL     OW70096   6.489   8.920   9.065 -0.2375  0.1180 -0.3909
52706SOL    HW170097   6.500   8.834   9.026 -1.5768  0.6306 -2.0121
52706SOL    HW270098   6.435   8.969   9.002 -0.7604  1.6683  1.1667
52707SOL     OW70099  11.059   6.429   6.666  0.0929  0.3746 -0.2558
52707SOL    HW170100  11.006   6.408   6.743 -0.9790  1.0732 -0.7828
52707SOL    HW270101  11.138   6.468   6.702  0.3285 -0.7812  0.5551
52708SOL     OW70102   6.597   8.874  10.778  0.2463  0.3545  0.0031
52708SOL    HW170103   6.578   8.944  10.841 -0.7838  0.1232 -0.0409
52708SOL    HW270104   6.588   8.793  10.829 -0.6842  0.1633 -0.4536
52709SOL     OW70105   9.220   1.347   4.737  0.1000 -0.3152  0.3878
52709SOL    HW170106   9.177   1.425   4.702 -0.8828 -0.5022  1.1302
52709SOL    HW270107   9.159   1.314   4.803  0.1901 -2.0840 -0.3486
52710SOL     OW70108   9.894  12.437   9.628 -0.4730  0.2634 -0.5336
52710SOL    HW170109   9.859  12.526   9.619 -0.5901  0.4681  1.4653
52710SOL    HW270110   9.979  12.440   9.584 -0.5499  1.3151 -0.6416
52711SOL     OW70111   1.667  12.651   8.141 -0.0695 -0.2982  0.3018
52711SOL    HW170112   1.705  12.586   8.082 -1.3891 -0.1168 -0.8016
52711SOL    HW270113   1.716  12.731   8.123 -0.8257 -0.0978 -1.0209
52712SOL     OW70114   1.029  13.041   8.472  0.7275  1.4069  0.1896
52712SOL    HW170115   0.940  13.073   8.456  0.2830 -0.4217 -1.4001
52712SOL    HW270116   1.046  13.061   8.564 -1.0259  2.4520  0.3250
52713SOL     OW70117  14.010   0.044   4.228 -0.5672 -0.2340  0.2111
52713SOL    HW170118  13.952   0.099   4.175  1.1610  1.9492  0.4000
52713SOL    HW270119  14.088   0.033   4.174  0.9780  1.5019  1.9010
52714SOL     OW70120   5.870   6.329   8.719  0.1319  0.0356 -0.5003
52714SOL    HW170121   5.929   6.402   8.702  0.7428 -0.0856  1.0241
52714SOL    HW270122   5.922   6.266   8.768 -1.0413 -0.4183  0.2018
52715SOL     OW70123  13.301   4.739   0.916 -0.3856  0.3494 -0.1139
52715SOL    HW170124  13.295   4.669   0.981 -1.6759  1.3757  0.9164
52715SOL    HW270125  13.373   4.794   0.948  0.5717 -0.4336 -0.8784
52716SOL     OW70126   0.888   5.273   3.614 -0.7062  0.1177 -0.2662
52716SOL    HW170127   0.947   5.251   3.541 -0.4936 -0.1705 -0.0062
52716SOL    HW270128   0.930   5.349   3.656  0.9891 -1.7290  1.6221
52717SOL     OW70129   7.283   2.273   6.840  0.1495  0.0534 -0.0123
52717SOL    HW170130   7.261   2.217   6.914 -1.0825 -0.4432 -0.7268
52717SOL    HW270131   7.341   2.219   6.785  1.1030  0.4388  0.5832
52718SOL     OW70132  13.746   4.902   1.147 -0.2843 -0.3824  0.4538
52718SOL    HW170133  13.654   4.895   1.172 -0.9502  1.4041 -1.1637
52718SOL    HW270134  13.767   4.995   1.160  1.5505 -0.8988  1.5231
52719SOL     OW70135   4.368   8.534  13.765  0.3747  0.4422 -0.1761
52719SOL    HW170136   4.361   8.445  13.797 -0.7627  0.2342 -0.9386
52719SOL    HW270137   4.403   8.584  13.839 -0.0094 -0.4354  0.6164
52720SOL     OW70138   9.407  13.800   2.402  0.4044 -0.1311 -0.1376
52720SOL    HW170139   9.329  13.854   2.420  0.8015  0.0331  1.1716
52720SOL    HW270140   9.418  13.746   2.480  0.8435 -1.1162 -0.8602
52721SOL     OW70141   2.292   6.770   3.197 -0.1597 -0.1578  0.1999
52721SOL    HW170142   2.265   6.846   3.147 -0.3630  0.1829  0.8159
52721SOL    HW270143   2.211   6.733   3.231  0.0552  0.2839  1.2223
52722SOL     OW70144   2.926   0.064   4.108  0.0228  1.3584  0.0582
52722SOL    HW170145   2.898   0.100   4.024 -1.3646  2.9771  1.1215
52722SOL    HW270146   3.014   0.099   4.121 -0.0665  1.7678 -0.3798
52723SOL     OW70147  13.012   3.523   7.293  0.0724  0.0014  0.0416
52723SOL    HW170148  13.004   3.527   7.198  1.4898  1.7912 -0.0605
52723SOL    HW270149  13.011   3.615   7.321 -1.6049 -0.5123  1.9149
52724SOL     OW70150   5.666   7.334  11.497  0.0300 -0.1137  0.1766
52724SOL    HW170151   5.653   7.415  11.448 -0.7722 -1.1625 -1.4247
52724SOL    HW270152   5.713   7.361  11.576 -1.8287  2.1655  0.6076
52725SOL     OW70153   1.839   4.166   3.870  0.1113 -0.2361 -0.0905
52725SOL    HW170154   1.932   4.144   3.860  0.2278  0.5221 -0.7403
52725SOL    HW270155   1.793   4.101   3.817  0.2569 -0.7105  0.3591
52726SOL     OW70156   3.109  12.950  11.066 -0.3932  0.2525 -0.0620
52726SOL    HW170157   3.021  12.985  11.078 -0.1759  1.5868 -1.9032
52726SOL    HW270158   3.095  12.864  11.028 -0.8896 -0.6325  1.9743
52727SOL     OW70159  12.707   9.774   7.134 -0.5302  0.3026 -0.0772
52727SOL    HW170160  12.799   9.798   7.122  0.5925 -3.7152 -0.9242
52727SOL    HW270161  12.672   9.768   7.045 -0.4542 -1.7478 -0.0204
52728SOL     OW70162   3.731   8.939   6.496  0.0882  0.6145 -0.8231
52728SOL    HW170163   3.680   8.864   6.526 -1.3437  1.2247 -1.6554
52728SOL    HW270164   3.799   8.900   6.441  1.4723 -0.3272  1.3676
52729SOL     OW70165   3.267   3.630   8.568  0.4090 -0.4302  1.1318
52729SOL    HW170166   3.240   3.619   8.477  2.7595 -1.2383  0.4511
52729SOL    HW270167   3.259   3.542   8.606  0.8342 -0.4106  1.2724
52730SOL     OW70168  12.642   9.780  10.563  0.1096 -0.6545 -0.1208
52730SOL    HW170169  12.559   9.738  10.586  0.1798  0.7333  3.1203
52730SOL    HW270170  12.708   9.728  10.608  0.5773  0.5623  0.6175
52731SOL     OW70171   0.576  11.896   8.834 -0.0359 -0.3192  0.4409
52731SOL    HW170172   0.614  11.970   8.787 -1.5766 -0.7362 -1.6130
52731SOL    HW270173   0.484  11.921   8.846  0.1298 -0.6018  2.5609
52732SOL     OW70174  12.970   1.512   4.323 -0.7461  0.3801 -0.0040
52732SOL    HW170175  12.970   1.418   4.306  0.5023  0.6889 -2.0599
52732SOL    HW270176  12.889   1.544   4.282 -0.4404  0.3971 -0.5930
52733SOL     OW70177   5.567   9.479  12.286  0.6645 -0.0056  0.1187
52733SOL    HW170178   5.621   9.557  12.274 -2.2911  1.7385 -3.6895
52733SOL    HW270179   5.483   9.512  12.317  0.3341 -2.1522  1.7459
52734SOL     OW70180  11.885   9.482  12.230  0.4525 -0.1765  0.7531
52734SOL    HW170181  11.907   9.426  12.305  0.9565  0.3392  0.9953
52734SOL    HW270182  11.803   9.445  12.196  0.3511 -0.5699  1.4027
52735SOL     OW70183   1.664  14.013   1.609  0.2746  0.3641 -0.0304
52735SOL    HW170184   1.607  14.028   1.685  0.7087 -0.5814  0.5123
52735SOL    HW270185   1.636  13.927   1.576  1.6191 -0.3114  0.5009
52736SOL     OW70186   1.815   5.891   5.879  0.1263 -0.0846  0.0588
52736SOL    HW170187   1.739   5.921   5.829  0.5735 -0.8422 -1.1040
52736SOL    HW270188   1.818   5.797   5.864  1.7763  0.0408 -0.6065
52737SOL     OW70189   0.343   0.215  12.016  0.2281  1.4817  0.0816
52737SOL    HW170190   0.410   0.155  12.049 -1.3135  0.2784  1.1723
52737SOL    HW270191   0.356   0.216  11.921  0.2064 -0.7341  0.0016
52738SOL     OW70192   2.605   1.059   0.216  0.2921  0.1928 -0.0546
52738SOL    HW170193   2.590   1.120   0.289 -1.5165 -0.6338  0.3379
52738SOL    HW270194   2.605   0.973   0.257 -0.7045 -0.2855 -0.9942
52739SOL     OW70195   0.774   8.942   9.506  0.0836  0.5553 -0.2099
52739SOL    HW170196   0.798   8.889   9.582 -0.2958  1.5014  0.5841
52739SOL    HW270197   0.849   8.934   9.447  0.1349 -0.6478  0.0053
52740SOL     OW70198   7.242   5.427   4.627  0.2130  0.1203 -0.0096
52740SOL    HW170199   7.223   5.333   4.633  1.8637 -0.1878  0.9362
52740SOL    HW270200   7.293   5.435   4.546 -1.3766  0.5100 -1.0233
52741SOL     OW70201  10.116  12.304   5.895 -0.1226  0.0514  0.3595
52741SOL    HW170202  10.209  12.325   5.882  0.1834 -1.0111  0.7306
52741SOL    HW270203  10.117  12.235   5.961 -1.2025  0.2113  0.5513
52742SOL     OW70204   7.082   4.988  13.073 -0.2900  0.1350 -0.2842
52742SOL    HW170205   7.000   5.028  13.046 -0.2846  0.3191 -0.0301
52742SOL    HW270206   7.096   4.916  13.011  0.6942  1.7322 -2.0455
52743SOL     OW70207   9.254   4.086   4.171  0.1379 -0.1000 -0.1063
52743SOL    HW170208   9.331   4.049   4.213 -0.9546 -1.1394  1.0672
52743SOL    HW270209   9.271   4.077   4.077  1.9283  0.7867  0.0874
52744SOL     OW70210   4.078   8.767   1.928 -0.2769  1.3010 -0.0204
52744SOL    HW170211   4.135   8.781   1.852 -1.8747 -0.5843 -1.6593
52744SOL    HW270212   4.096   8.677   1.956 -0.4555  1.6257  1.2352
52745SOL     OW70213   2.079   1.844   6.842  0.6736  0.5380  0.1264
52745SOL    HW170214   2.167   1.821   6.873  1.6768 -0.4406 -3.0598
52745SOL    HW270215   2.090   1.928   6.797 -0.0714  0.5106 -0.1263
52746SOL     OW70216   5.813  13.065   4.078 -0.1071  0.0184 -0.0673
52746SOL    HW170217   5.770  12.979   4.071 -0.7442  0.4631 -2.3564
52746SOL    HW270218   5.740  13.126   4.092  0.3573  0.2189  1.6987
52747SOL     OW70219   8.971  11.602   8.006  0.4500  0.4392 -1.0762
52747SOL    HW170220   8.906  11.541   8.041  0.4420  1.4224  0.7419
52747SOL    HW270221   9.055  11.567   8.036  0.5099  0.8742 -0.7415
52748SOL     OW70222   7.739   4.582  12.557  1.2134  0.1024  0.2413
52748SOL    HW170223   7.798   4.619  12.623 -0.2730  1.4958  0.8641
52748SOL    HW270224   7.750   4.487  12.565  1.8607  0.2807  1.7560
52749SOL     OW70225   5.253   9.127   6.167  0.2259  0.0243 -0.0562
52749SOL    HW170226   5.194   9.177   6.224  0.8281  1.2658 -0.4887
52749SOL    HW270227   5.278   9.189   6.099 -0.6921 -1.4829 -1.8716
52750SOL     OW70228  13.864  11.779  13.049  0.0219  0.2689 -0.0659
52750SOL    HW170229  13.953  11.747  13.033  0.2084  0.7001  0.0873
52750SOL    HW270230  13.876  11.858  13.102 -0.4280  0.5804 -0.4133
52751SOL     OW70231   5.796   6.048  12.478 -0.2321  0.0704 -0.7674
52751SOL    HW170232   5.833   5.983  12.538  0.0360 -0.3782 -1.3979
52751SOL    HW270233   5.853   6.124  12.486 -0.3795  0.1272 -0.2328
52752SOL     OW70234  12.948  12.074  12.016 -0.4315  0.4162  0.0451
52752SOL    HW170235  13.041  12.087  11.996 -0.3808  0.3270  0.2184
52752SOL    HW270236  12.926  11.991  11.973 -0.3368  0.2519  0.3123
52753SOL     OW70237   2.291  12.117   7.525 -0.0008  0.0178  0.2560
52753SOL    HW170238   2.290  12.154   7.436 -0.3620  0.5062  0.4505
52753SOL    HW270239   2.277  12.023   7.513 -0.5197  0.1452 -0.1850
52754SOL     OW70240  13.556   7.788   1.103  0.4347  0.4256  0.7661
52754SOL    HW170241  13.597   7.832   1.028  0.6763 -0.5324  0.3230
52754SOL    HW270242  13.472   7.832   1.113 -0.0784 -0.1483 -0.7703
52755SOL     OW70243  11.459   7.573   4.151 -0.9549 -0.0561  0.0658
52755SOL    HW170244  11.488   7.574   4.059  0.3833 -1.2845  0.4387
52755SOL    HW270245  11.538   7.594   4.201 -1.2321 -1.1199  0.9999
52756SOL     OW70246   8.830   4.273   7.778 -0.3923  0.0355  0.3662
52756SOL    HW170247   8.896   4.211   7.747 -0.5604 -0.6259  1.2952
52756SOL    HW270248   8.767   4.280   7.706  1.3898  1.7885 -1.1481
52757SOL     OW70249   2.692   7.246  13.502 -0.2027  0.2455 -0.0275
52757SOL    HW170250   2.732   7.333  13.505 -1.2916  0.7555 -0.1388
52757SOL    HW270251   2.626   7.252  13.434  0.3467 -0.9578 -0.6917
52758SOL     OW70252   3.984   9.238   0.822 -0.1097  0.2262  0.2478
52758SOL    HW170253   4.034   9.315   0.849  0.5448 -1.0575  3.0443
52758SOL    HW270254   3.892   9.264   0.833  0.0567  1.0566 -0.2571
52759SOL     OW70255   4.390   7.802  10.349 -0.7814  0.1650  0.3041
52759SOL    HW170256   4.355   7.883  10.385  0.5939  0.4661  1.0185
52759SOL    HW270257   4.368   7.735  10.414  0.1712  0.4078  0.9051
52760SOL     OW70258   7.756   5.495  12.374  0.8614 -0.3880  0.0398
52760SOL    HW170259   7.695   5.426  12.349  1.3338 -0.3035 -1.4341
52760SOL    HW270260   7.742   5.564  12.310  0.7885  0.6764  1.1633
52761SOL     OW70261  10.447  13.818   7.497  0.3988  0.1054  0.2894
52761SOL    HW170262  10.456  13.913   7.497  0.8781  0.0933  2.0713
52761SOL    HW270263  10.531  13.785   7.467  0.6532  0.2340  0.8554
52762SOL     OW70264   0.125   7.531   0.984  0.0309 -0.0694  0.0584
52762SOL    HW170265   0.062   7.500   0.919 -0.6578  1.1882  0.0970
52762SOL    HW270266   0.092   7.497   1.067 -0.5416  0.4726  0.0620
52763SOL     OW70267   8.388   2.965  11.339 -0.1735  0.2574  0.3637
52763SOL    HW170268   8.412   2.882  11.380  0.0341 -0.4852 -1.2157
52763SOL    HW270269   8.305   2.946  11.294  0.3488  0.6341 -0.7858
52764SOL     OW70270   9.742   3.479   0.435 -0.0421  0.0127  0.2980
52764SOL    HW170271   9.710   3.565   0.464  1.7223  1.2687 -1.2088
52764SOL    HW270272   9.835   3.479   0.459  0.4492 -0.6108 -1.4732
52765SOL     OW70273   3.894   4.037   2.127  0.3182 -0.2009  0.4232
52765SOL    HW170274   3.978   4.049   2.171  0.6860  0.2716 -0.3916
52765SOL    HW270275   3.912   4.057   2.036 -0.8853  0.7820  0.3808
52766SOL     OW70276   0.493   4.545  11.945 -0.4317  0.2298  0.0406
52766SOL    HW170277   0.490   4.504  12.032  2.9787 -0.7812 -0.1545
52766SOL    HW270278   0.493   4.639  11.963  0.1830  0.0370  1.1559
52767SOL     OW70279   3.141   2.992  13.953 -0.3068 -0.5016  0.3023
52767SOL    HW170280   3.229   3.002  13.988 -0.0404  0.4878 -0.5859
52767SOL    HW270281   3.122   2.899  13.961  1.0330 -0.8174  0.0261
52768SOL     OW70282  10.682   4.856  13.078 -0.2595 -0.0115 -0.1763
52768SOL    HW170283  10.639   4.828  12.998  0.8905  0.1601 -0.8737
52768SOL    HW270284  10.652   4.795  13.145  2.2546 -3.1489 -1.6417
52769SOL     OW70285   3.326   1.618   4.942  0.3985 -0.4633  0.0495
52769SOL    HW170286   3.352   1.668   4.865 -0.9853  0.6363  0.2482
52769SOL    HW270287   3.291   1.684   5.002 -0.6202 -1.5753  0.7071
52770SOL     OW70288   2.035   0.114   2.445  0.7638 -0.1723  0.0255
52770SOL    HW170289   1.973   0.144   2.379  0.8934  1.2000  0.4814
52770SOL    HW270290   1.983   0.063   2.507  0.1164  0.7675  0.2771
52771SOL     OW70291   9.982   0.800   0.095 -0.0271  0.1495 -0.0067
52771SOL    HW170292   9.941   0.737   0.153  0.6888 -2.0297 -1.7245
52771SOL    HW270293   9.927   0.801   0.017 -0.1268  1.8476  0.0393
52772SOL     OW70294   2.023   5.948   1.377  0.2875 -0.4479  0.1464
52772SOL    HW170295   2.058   5.871   1.333 -0.2488  0.2269 -1.5633
52772SOL    HW270296   1.936   5.960   1.339 -0.3968 -0.0746  1.7625
52773SOL     OW70297   6.865  12.584  12.839  0.0341 -0.7898  0.2042
52773SOL    HW170298   6.880  12.587  12.745 -0.7261 -1.6222  0.0323
52773SOL    HW270299   6.894  12.669  12.871 -1.0011  0.0651 -0.9939
52774SOL     OW70300   1.065  12.638   9.725 -0.8726 -0.4654  0.6838
52774SOL    HW170301   1.081  12.598   9.639  0.3108  1.6415 -0.1456
52774SOL    HW270302   1.108  12.579   9.787 -1.7416 -2.0282 -0.1369
52775SOL     OW70303   0.380   4.615   3.280  0.1891 -0.2632  0.0029
52775SOL    HW170304   0.443   4.671   3.326 -0.2044 -0.7399  1.1811
52775SOL    HW270305   0.339   4.673   3.216  1.9012  0.0127 -0.8976
52776SOL     OW70306   7.001   2.341   3.021 -0.3553  0.1776 -0.2058
52776SOL    HW170307   7.056   2.263   3.032 -1.4415 -0.6380 -0.4129
52776SOL    HW270308   6.961   2.354   3.107 -0.9467 -0.1042 -0.4309
52777SOL     OW70309  13.956  11.824  11.102  0.0205  0.6152 -0.0833
52777SOL    HW170310  13.872  11.807  11.059  0.4782 -0.6497 -0.5281
52777SOL    HW270311  13.965  11.919  11.101 -0.7862  0.6967 -1.2308
52778SOL     OW70312   0.522   7.523  12.147  0.1114 -0.4539  0.3962
52778SOL    HW170313   0.552   7.443  12.105 -0.1289 -0.8938  1.0374
52778SOL    HW270314   0.431   7.504  12.171  0.2110 -0.1806  1.0091
52779SOL     OW70315   2.185  11.230  11.880  0.1467 -0.0849  0.2175
52779SOL    HW170316   2.108  11.283  11.899  1.0479  1.2460  0.2695
52779SOL    HW270317   2.221  11.207  11.966  0.6211  0.5333  0.1899
52780SOL     OW70318  10.807   0.610   8.993  0.7351  0.3261 -0.5184
52780SOL    HW170319  10.884   0.640   9.041 -0.5173  1.4834  0.8511
52780SOL    HW270320  10.767   0.689   8.957 -1.6233  0.2261  1.6181
52781SOL     OW70321   8.689  11.540  13.784 -0.3758 -0.1354 -0.3733
52781SOL    HW170322   8.629  11.506  13.850 -0.5511 -1.5866 -1.2375
52781SOL    HW270323   8.709  11.465  13.728  1.4053  0.5522 -0.7540
52782SOL     OW70324   3.182   6.644  14.042  0.3935 -0.0100 -0.3851
52782SOL    HW170325   3.218   6.605  14.122 -3.9776 -1.9049  0.9322
52782SOL    HW270326   3.143   6.571  13.994  0.6992  1.4428 -3.0862
52783SOL     OW70327  10.049  10.508   8.848  0.1066  0.1006  0.3328
52783SOL    HW170328   9.961  10.478   8.872 -0.3965  1.3264  0.0842
52783SOL    HW270329  10.043  10.603   8.848  0.8710  0.2052 -1.6915
52784SOL     OW70330   1.521   0.504  12.353  0.1153  0.2028 -0.2572
52784SOL    HW170331   1.460   0.544  12.415  0.3220  0.9947 -0.5500
52784SOL    HW270332   1.591   0.468  12.407  0.7929  1.7434 -0.0598
52785SOL     OW70333   3.899  12.499   6.059  0.1235 -0.1821 -0.0751
52785SOL    HW170334   3.870  12.488   6.150  0.6191  0.1599  0.1323
52785SOL    HW270335   3.922  12.592   6.054  0.5466 -0.3055 -0.4180
52786SOL     OW70336   1.397   8.332   9.168  0.1548 -0.4224  0.2853
52786SOL    HW170337   1.476   8.289   9.198 -0.2670 -1.2541  0.2432
52786SOL    HW270338   1.415   8.426   9.175  1.2538 -0.6043 -0.0466
52787SOL     OW70339   0.634   5.830   0.995 -0.3130  0.2801 -0.3060
52787SOL    HW170340   0.539   5.820   0.999 -0.2262 -0.0921  1.4310
52787SOL    HW270341   0.669   5.755   1.042  0.8635  0.4055 -0.9232
52788SOL     OW70342   6.152   4.789   7.338 -0.1450  0.0480  0.3380
52788SOL    HW170343   6.230   4.844   7.348 -0.7489  1.3979 -1.6628
52788SOL    HW270344   6.105   4.799   7.421 -0.1448  2.5088  0.1320
52789SOL     OW70345  13.903  11.962   3.501 -0.6956  0.0358  0.3028
52789SOL    HW170346  13.881  11.948   3.409 -0.7756  1.1487  0.1339
52789SOL    HW270347  13.895  11.876   3.541 -0.9629 -0.4074 -0.6702
52790SOL     OW70348  10.264  12.753   7.520 -0.1688  0.3206  0.2041
52790SOL    HW170349  10.173  12.765   7.549  0.0179  1.1039  0.4767
52790SOL    HW270350  10.305  12.705   7.592 -0.5321 -0.6662 -0.2246
52791SOL     OW70351   8.209  11.497   2.451 -0.4734 -0.1225 -0.0104
52791SOL    HW170352   8.221  11.575   2.505 -2.1914 -0.2852  0.6921
52791SOL    HW270353   8.179  11.531   2.366 -2.5185  0.0095  0.6966
52792SOL     OW70354   2.510   3.001  13.674  0.1560  0.2496  0.0777
52792SOL    HW170355   2.457   3.075  13.645  0.1772  0.9718  1.7878
52792SOL    HW270356   2.600   3.033  13.673  0.0630  0.6228  1.8509
52793SOL     OW70357   0.127   8.573  10.553 -0.4012  0.2197 -0.0661
52793SOL    HW170358   0.174   8.560  10.470 -0.9446  1.8362 -0.6699
52793SOL    HW270359   0.133   8.668  10.569  1.9648 -0.3147  3.1272
52794SOL     OW70360   8.350  12.388  10.506 -0.7555 -0.1693 -0.5477
52794SOL    HW170361   8.266  12.415  10.468 -1.3831  1.0556  1.5665
52794SOL    HW270362   8.415  12.411  10.439 -1.8783  1.1171 -1.2394
52795SOL     OW70363  11.910  10.047  11.067  0.5407 -0.4089  0.0342
52795SOL    HW170364  11.824  10.014  11.093 -0.7372  0.1344 -3.0618
52795SOL    HW270365  11.898  10.141  11.054  1.5727 -0.3272 -0.4900
52796SOL     OW70366  12.622   6.454   0.549  0.9111 -0.3332  0.0424
52796SOL    HW170367  12.610   6.359   0.554 -0.7478 -0.1114  2.0544
52796SOL    HW270368  12.661   6.477   0.634  1.4243  0.7671 -0.4816
52797SOL     OW70369   4.209   4.205   3.350 -0.0271  0.8724 -0.3404
52797SOL    HW170370   4.191   4.270   3.418 -0.6265  0.9706 -0.5850
52797SOL    HW270371   4.216   4.122   3.397 -0.3644  0.9519 -0.1452
52798SOL     OW70372   0.710   7.133   8.863 -0.1545  0.7056  0.1573
52798SOL    HW170373   0.740   7.093   8.782 -0.7388 -1.2905  0.8749
52798SOL    HW270374   0.653   7.067   8.903 -0.0202  1.7010  2.1147
52799SOL     OW70375  12.611   1.966   7.652 -0.1657  0.0302 -0.2381
52799SOL    HW170376  12.644   2.039   7.704 -0.1763  0.6371 -1.0802
52799SOL    HW270377  12.520   1.988   7.633  0.0237  0.1228 -1.0576
52800SOL     OW70378  13.551   8.932  10.168 -0.2739 -0.1290 -0.0584
52800SOL    HW170379  13.456   8.925  10.162 -0.3997  1.7775 -0.8872
52800SOL    HW270380  13.571   8.908  10.259 -1.6444  0.3192  0.3937
52801SOL     OW70381   3.583   8.321   0.954  0.2135 -0.4203 -0.2641
52801SOL    HW170382   3.521   8.256   0.921  1.1685 -1.9190  0.7829
52801SOL    HW270383   3.668   8.279   0.944  0.9326  1.0301 -0.3540
52802SOL     OW70384   6.878  11.789  11.911 -0.0293 -0.2895  0.2431
52802SOL    HW170385   6.810  11.854  11.929 -0.8455 -0.9761 -0.2839
52802SOL    HW270386   6.959  11.840  11.909 -0.4408  0.4559  1.4671
52803SOL     OW70387  10.050  12.752   3.357 -0.3323 -0.2542  0.4134
52803SOL    HW170388  10.105  12.699   3.414 -0.9871 -0.1703  1.1323
52803SOL    HW270389  10.004  12.689   3.302  0.7549 -0.3123 -0.4709
52804SOL     OW70390   9.160  12.003   1.682  0.1295  0.5814 -0.0601
52804SOL    HW170391   9.195  12.089   1.661  0.7336  0.5523  0.7695
52804SOL    HW270392   9.112  11.977   1.604  0.7431  1.2528 -0.6791
52805SOL     OW70393   0.480   3.546   7.290 -0.6985  0.1540 -0.0798
52805SOL    HW170394   0.502   3.628   7.246 -1.1164  0.5893  0.5028
52805SOL    HW270395   0.484   3.567   7.384 -0.6214 -0.5430  0.0795
52806SOL     OW70396   9.089  10.073  10.312  0.0530  0.1237 -0.3060
52806SOL    HW170397   9.024  10.016  10.354 -0.2517  0.9779  0.4412
52806SOL    HW270398   9.144  10.014  10.261 -0.1947 -0.8413  0.5015
52807SOL     OW70399  14.028   2.826  12.046  0.0043 -0.0902 -0.2506
52807SOL    HW170400  14.022   2.858  12.136  0.1039 -0.9115  0.0487
52807SOL    HW270401  13.954   2.767  12.036  0.6852 -0.9614 -0.3054
52808SOL     OW70402   8.303   9.794  11.253  0.0807 -0.4894 -0.4125
52808SOL    HW170403   8.242   9.743  11.306  0.2417 -0.1729  0.0857
52808SOL    HW270404   8.380   9.804  11.308 -0.4803  1.5160  0.0942
52809SOL     OW70405   5.173   4.093   3.922  0.6068 -0.6839 -0.2042
52809SOL    HW170406   5.182   4.186   3.903 -0.5771 -0.3271  0.8492
52809SOL    HW270407   5.246   4.051   3.875  1.1485  0.7583 -0.6859
52810SOL     OW70408   6.962   0.146   7.370  0.3737 -0.2294 -0.3514
52810SOL    HW170409   7.017   0.214   7.332 -0.1275 -0.3553 -1.3480
52810SOL    HW270410   6.949   0.084   7.298 -0.4407 -0.5772  0.0875
52811SOL     OW70411   4.293   7.137   9.198 -0.5194  0.0188 -0.4371
52811SOL    HW170412   4.215   7.084   9.213 -0.6815  0.4887  0.4519
52811SOL    HW270413   4.289   7.160   9.105 -0.7906 -0.9576 -0.6812
52812SOL     OW70414   4.160  11.763   3.160  0.3899  0.2341 -0.0366
52812SOL    HW170415   4.077  11.750   3.206 -0.6543 -0.6690 -2.0728
52812SOL    HW270416   4.204  11.678   3.167  1.0230  0.6052  0.7229
52813SOL     OW70417   2.168   0.908   2.281  0.4188  0.4894  0.2893
52813SOL    HW170418   2.145   0.832   2.336  0.1853  1.0541  0.9888
52813SOL    HW270419   2.099   0.910   2.214  0.0191  0.4986  0.6913
52814SOL     OW70420   7.377   4.894   5.559  0.1446  0.2296  0.0925
52814SOL    HW170421   7.460   4.942   5.554 -0.0211  0.4892 -0.2141
52814SOL    HW270422   7.394   4.824   5.621  0.9943 -0.4986 -0.9256
52815SOL     OW70423   1.243   3.835   0.800  0.0353  0.5385 -0.2646
52815SOL    HW170424   1.200   3.843   0.885  1.1004  1.1795  0.2225
52815SOL    HW270425   1.203   3.757   0.761  1.7588 -1.7106  2.1563
52816SOL     OW70426   0.862   9.789   6.209  0.2526 -0.0335  0.0855
52816SOL    HW170427   0.799   9.814   6.276 -1.7630 -1.5051 -1.1559
52816SOL    HW270428   0.933   9.746   6.258 -0.1747  0.7135  1.4182
52817SOL     OW70429  11.070  13.137   8.353 -0.2270 -0.2379 -0.8775
52817SOL    HW170430  10.993  13.171   8.308  0.6091 -0.9754 -2.9883
52817SOL    HW270431  11.035  13.091   8.429 -1.6124  2.0365 -0.0285
52818SOL     OW70432   1.544   1.646  12.519  0.1790 -0.5464 -0.3262
52818SOL    HW170433   1.604   1.572  12.509  0.8588  0.0621 -0.8410
52818SOL    HW270434   1.506   1.634  12.606  1.3371 -0.7448  0.1745
52819SOL     OW70435   3.196  10.140   2.249 -0.3553  0.3735 -0.3104
52819SOL    HW170436   3.267  10.085   2.283 -1.5266 -0.8197  0.3148
52819SOL    HW270437   3.162  10.092   2.174 -2.5283 -0.7453  1.2662
52820SOL     OW70438   0.167   3.141  13.153 -0.4815 -0.3570  0.2530
52820SOL    HW170439   0.090   3.170  13.200 -0.3591 -1.2935  1.0589
52820SOL    HW270440   0.160   3.045  13.151  0.5046 -0.4376  0.0776
52821SOL     OW70441   1.544   8.036   5.916 -0.1292 -0.4862 -0.0109
52821SOL    HW170442   1.505   8.053   5.830  1.7559  1.1963 -0.6375
52821SOL    HW270443   1.477   8.061   5.979 -1.4744 -1.5561 -0.9551
52822SOL     OW70444   6.365  12.973   1.143 -0.1001  0.3220  0.6098
52822SOL    HW170445   6.309  12.948   1.070  0.0515  1.5482  0.0452
52822SOL    HW270446   6.454  12.969   1.108 -0.1416  2.8806  0.0634
52823SOL     OW70447   6.232   1.934   6.724 -0.6610 -0.4925 -0.3987
52823SOL    HW170448   6.138   1.939   6.703 -0.1226  0.9614 -3.0032
52823SOL    HW270449   6.275   1.935   6.638  1.7573 -2.3530  0.6768
52824SOL     OW70450   2.450   9.100   7.986 -0.3144 -0.0699  0.5835
52824SOL    HW170451   2.459   9.186   7.945 -0.1746 -0.5519 -0.4186
52824SOL    HW270452   2.438   9.040   7.913 -0.1066 -0.9462  1.2585
52825SOL     OW70453   2.833  12.108   6.385 -0.8689  0.6028 -0.4104
52825SOL    HW170454   2.921  12.106   6.346 -0.6751 -0.9860  0.0366
52825SOL    HW270455   2.776  12.131   6.312 -0.2821 -0.2438 -1.1656
52826SOL     OW70456   1.009   9.047   8.786 -0.7692 -0.2950  0.4171
52826SOL    HW170457   0.967   8.961   8.779  0.5357 -0.8940 -0.3092
52826SOL    HW270458   1.005   9.068   8.879  0.1190 -1.7901  0.8211
52827SOL     OW70459  11.116   8.429  10.363  0.2662 -0.7800 -0.4056
52827SOL    HW170460  11.127   8.357  10.425  1.2964 -1.1779 -1.0443
52827SOL    HW270461  11.059   8.491  10.410  1.4578 -0.8084  1.1666
52828SOL     OW70462  13.262   0.369   7.903 -0.5149 -0.4607 -0.1820
52828SOL    HW170463  13.309   0.412   7.974 -1.2580  0.0239  0.0272
52828SOL    HW270464  13.300   0.281   7.898  3.1341  0.9930 -2.5353
52829SOL     OW70465   9.553  10.901  11.090 -0.4139  0.9379 -0.4422
52829SOL    HW170466   9.577  10.991  11.109 -1.0553  1.0171  0.0500
52829SOL    HW270467   9.602  10.849  11.154 -1.4253  1.0909  0.4925
52830SOL     OW70468   1.819   0.967   8.848 -0.1876  0.0263 -0.0679
52830SOL    HW170469   1.914   0.971   8.837 -0.0736  3.7671  0.7030
52830SOL    HW270470   1.790   1.059   8.840 -3.6063 -0.8070  0.8522
52831SOL     OW70471   1.100  10.378   0.304  0.2055  0.2179  0.1800
52831SOL    HW170472   1.078  10.376   0.397 -0.7998  1.3348 -0.0006
52831SOL    HW270473   1.123  10.287   0.282  0.1554 -0.1135  1.4401
52832SOL     OW70474   8.295   5.889  12.863 -0.2606 -0.1968 -0.1453
52832SOL    HW170475   8.340   5.929  12.937 -0.2907 -0.7292  0.1718
52832SOL    HW270476   8.360   5.889  12.792  0.6843 -2.0307  0.6460
52833SOL     OW70477   2.702   1.251   8.290 -0.6361  0.2934  0.5433
52833SOL    HW170478   2.673   1.343   8.288  0.4689  0.6521 -1.3887
52833SOL    HW270479   2.790   1.255   8.328  0.0015  0.2553 -0.8735
52834SOL     OW70480   9.096  10.284  11.132 -0.0822 -0.6253  0.5439
52834SOL    HW170481   9.119  10.265  11.042  0.9672  0.6603  0.5089
52834SOL    HW270482   9.004  10.311  11.129  0.0694 -0.1847 -0.2053
52835SOL     OW70483   9.004   0.477  12.641 -0.0249 -0.1938  0.1841
52835SOL    HW170484   8.914   0.495  12.668  0.5074  1.8828  0.7234
52835SOL    HW270485   8.995   0.423  12.562 -1.8156  1.9919 -1.2241
52836SOL     OW70486   7.480   5.588   0.055  0.0271  0.0952  0.3729
52836SOL    HW170487   7.497   5.674   0.017  0.1399  0.6669  1.6431
52836SOL    HW270488   7.518   5.526  -0.007  0.8948  1.0208 -0.0489
52837SOL     OW70489   6.933   8.768  12.071 -0.2227 -0.0309 -0.3300
52837SOL    HW170490   7.011   8.818  12.094 -0.5486  0.7142 -0.7778
52837SOL    HW270491   6.901   8.810  11.991 -1.2554 -0.1183  0.0212
52838SOL     OW70492   5.907   1.610   0.060  0.0788 -0.3415  0.2946
52838SOL    HW170493   5.996   1.575   0.061 -0.3707 -1.5205  0.1459
52838SOL    HW270494   5.887   1.621  -0.033 -0.7712 -2.3521  0.1914
52839SOL     OW70495   5.733   1.998   8.250 -0.1904 -0.1566  0.3699
52839SOL    HW170496   5.709   1.931   8.186  0.9685 -1.1159  0.9026
52839SOL    HW270497   5.653   2.048   8.263 -1.1157 -1.4700 -0.0052
52840SOL     OW70498   1.973   8.091   4.852  0.4397 -0.6574  0.4153
52840SOL    HW170499   1.888   8.102   4.895  0.2964 -0.8452  0.1817
52840SOL    HW270500   1.959   8.020   4.789  0.5994 -0.2685 -0.0643
52841SOL     OW70501   2.361  12.945   9.420  0.1981  0.4553 -0.1033
52841SOL    HW170502   2.451  12.949   9.388  0.6981 -0.5189  1.1261
52841SOL    HW270503   2.369  12.918   9.511 -1.2296  2.4938  0.7016
52842SOL     OW70504   3.296   4.731  11.094 -0.0870 -0.1856 -0.1021
52842SOL    HW170505   3.322   4.744  11.185 -0.1124 -0.0844 -0.1094
52842SOL    HW270506   3.369   4.682  11.055 -0.0588 -0.1956 -0.0371
52843SOL     OW70507   2.852   1.101   0.419 -0.0536 -0.2575 -0.4869
52843SOL    HW170508   2.939   1.127   0.389 -0.2763  0.7559 -0.2841
52843SOL    HW270509   2.795   1.173   0.393 -0.4930  0.0084  1.1102
52844SOL     OW70510   6.463   5.481   7.217 -0.2035  0.9884  0.0066
52844SOL    HW170511   6.369   5.494   7.221 -0.4381  0.2669 -1.9844
52844SOL    HW270512   6.474   5.405   7.160  1.6212  1.6713 -0.6127
52845SOL     OW70513  10.376   7.923  13.521 -0.3252 -0.2212  1.0440
52845SOL    HW170514  10.470   7.905  13.520  0.1957  2.1953  0.7769
52845SOL    HW270515  10.359   7.964  13.437 -1.1690  1.2993  1.9212
52846SOL     OW70516   9.339   1.570   4.374 -0.5170 -0.5995 -0.0198
52846SOL    HW170517   9.379   1.487   4.400  0.9438  0.2539  0.5760
52846SOL    HW270518   9.367   1.632   4.441 -0.3503  0.7019 -1.2519
52847SOL     OW70519   1.673   5.835   3.466  0.5745  0.2055  0.1135
52847SOL    HW170520   1.589   5.792   3.482  1.1619 -0.7145  0.8527
52847SOL    HW270521   1.650   5.923   3.437 -0.6544 -0.4445 -0.9711
52848SOL     OW70522  11.974   7.195   9.372 -0.0836 -0.1788 -0.0065
52848SOL    HW170523  11.931   7.268   9.329  1.1422 -1.0266 -2.9084
52848SOL    HW270524  11.917   7.120   9.356  0.9460 -0.7312 -1.2745
52849SOL     OW70525   2.140   2.983   6.655  0.0422 -0.1614  0.0881
52849SOL    HW170526   2.050   2.995   6.687 -0.0876 -1.6618  0.3397
52849SOL    HW270527   2.189   3.056   6.694 -1.0121  0.5489  0.1308
52850SOL     OW70528   5.351   0.593   9.512 -0.2199 -0.3437 -0.5704
52850SOL    HW170529   5.370   0.619   9.602  0.2343 -0.3184 -0.6677
52850SOL    HW270530   5.391   0.506   9.504  1.2213  0.3408 -1.2286
52851SOL     OW70531   0.588   1.789  13.191  0.0197 -0.2702  0.0870
52851SOL    HW170532   0.597   1.884  13.180  1.3299 -0.5737 -1.7582
52851SOL    HW270533   0.508   1.767  13.144  0.3044 -0.2335 -0.4112
52852SOL     OW70534   5.530   4.970  12.286 -0.7336  0.0356  0.1794
52852SOL    HW170535   5.575   4.947  12.205  0.9102  0.8937  0.8029
52852SOL    HW270536   5.463   4.902  12.296 -1.1292  0.0297 -1.9821
52853SOL     OW70537   0.624  12.651   9.155  0.2314  0.4673  0.3414
52853SOL    HW170538   0.662  12.675   9.070 -0.2740  0.1563  0.0184
52853SOL    HW270539   0.601  12.735   9.195 -0.4732  0.5805 -0.2831
52854SOL     OW70540   7.889   6.769   2.702 -0.6526 -0.3495 -0.1814
52854SOL    HW170541   7.850   6.829   2.639 -0.3749 -0.3444 -0.3513
52854SOL    HW270542   7.906   6.689   2.652 -0.2888 -0.2916 -0.1507
52855SOL     OW70543   2.709  13.941   1.665 -0.0440 -0.7348  0.0846
52855SOL    HW170544   2.682  14.033   1.664 -0.5876 -0.8234 -2.7543
52855SOL    HW270545   2.647  13.899   1.725  0.4236  0.7550  1.6865
52856SOL     OW70546   9.849  13.248   0.503 -0.5422  0.2149 -0.6004
52856SOL    HW170547   9.905  13.191   0.450 -0.8008 -1.6850  1.0926
52856SOL    HW270548   9.905  13.276   0.575 -1.5975 -1.3928  0.9039
52857SOL     OW70549  13.731   8.810   6.571  0.0794  0.5376 -0.2603
52857SOL    HW170550  13.638   8.808   6.548 -0.0453  0.3396  0.2453
52857SOL    HW270551  13.774   8.766   6.498 -0.4204 -1.0363  0.3425
52858SOL     OW70552   5.010  10.350  12.662  0.0382  0.2913 -0.3871
52858SOL    HW170553   4.917  10.350  12.684  0.1963  0.6135  0.3065
52858SOL    HW270554   5.019  10.419  12.596 -0.1743  0.4058 -0.2973
52859SOL     OW70555  12.674   5.885   5.593  0.1382 -0.2920  0.6064
52859SOL    HW170556  12.607   5.951   5.575 -0.4480 -0.8104  0.8576
52859SOL    HW270557  12.740   5.898   5.525 -1.0941 -0.9480 -0.7731
52860SOL     OW70558   9.003   7.173  10.861  0.3948 -0.8088 -0.1959
52860SOL    HW170559   8.926   7.211  10.902  0.1938 -3.2544  1.9557
52860SOL    HW270560   9.073   7.236  10.877 -0.2989 -0.4172  1.5502
52861SOL     OW70561   3.104   5.478  13.323 -0.1683  0.6291 -0.4155
52861SOL    HW170562   3.149   5.393  13.317  0.5197  0.9500  0.0769
52861SOL    HW270563   3.050   5.482  13.244  1.4360  0.6569 -1.5675
52862SOL     OW70564   5.896   2.154   3.294 -0.0457  0.4225 -0.0525
52862SOL    HW170565   5.948   2.100   3.354 -0.3248 -0.3352 -0.4832
52862SOL    HW270566   5.940   2.239   3.295  0.3139  0.2419  0.7511
52863SOL     OW70567   8.944   4.739   8.437  0.6540  0.7650 -0.5075
52863SOL    HW170568   8.963   4.804   8.370 -1.0724  0.2476 -1.5745
52863SOL    HW270569   8.875   4.684   8.399  0.9440 -0.7205  0.9649
52864SOL     OW70570   4.394   8.194   1.958  0.3607 -0.0901  0.5956
52864SOL    HW170571   4.456   8.261   1.986 -0.2869  1.1372 -0.7421
52864SOL    HW270572   4.357   8.228   1.877 -0.9732 -1.4765  0.5677
52865SOL     OW70573   6.284   1.758  12.473  0.4973  0.4806 -0.0826
52865SOL    HW170574   6.265   1.775  12.566 -1.1816 -0.9433 -0.1156
52865SOL    HW270575   6.379   1.768  12.466  1.0548 -1.8653  2.3745
52866SOL     OW70576   1.203  11.618   9.804  0.6433 -0.0126  0.4564
52866SOL    HW170577   1.255  11.655   9.733 -0.4071 -2.0235 -1.5090
52866SOL    HW270578   1.139  11.562   9.759 -2.2383  1.1518  2.8046
52867SOL     OW70579   8.035  13.631   5.186  0.3747 -0.3072  0.7448
52867SOL    HW170580   8.119  13.667   5.215 -1.2668  2.2611  2.8013
52867SOL    HW270581   8.011  13.684   5.111  0.6717 -1.2220 -0.0136
52868SOL     OW70582   6.966   4.573  12.958  0.0150 -0.7007 -0.1048
52868SOL    HW170583   6.966   4.491  12.908 -1.7612 -1.1452  0.5454
52868SOL    HW270584   6.895   4.562  13.020  0.1374  1.1259  0.3918
52869SOL     OW70585  10.500  11.157   1.161  0.2125 -0.1077  0.0905
52869SOL    HW170586  10.418  11.127   1.201  0.9780 -1.5666  0.6233
52869SOL    HW270587  10.510  11.104   1.082  1.6240 -1.4037  1.0844
52870SOL     OW70588   4.984   2.783   5.760  0.5720 -0.6910  0.3552
52870SOL    HW170589   4.936   2.723   5.817 -0.0011  0.5056  1.1983
52870SOL    HW270590   5.065   2.801   5.807  0.0338  0.4132  0.9033
52871SOL     OW70591   9.391   9.969  11.438  0.6918 -0.5620 -0.4697
52871SOL    HW170592   9.349   9.922  11.510  1.0159 -2.4253 -1.4560
52871SOL    HW270593   9.320  10.016  11.395  0.4910  0.6117  1.0339
52872SOL     OW70594   9.152   6.752   3.090 -0.7736 -0.1873 -0.1736
52872SOL    HW170595   9.186   6.668   3.059  0.8480  1.1460 -2.4081
52872SOL    HW270596   9.058   6.737   3.103 -0.5634 -2.2755 -0.6702
52873SOL     OW70597   9.515   3.334   9.678 -0.3361  0.0730 -0.5517
52873SOL    HW170598   9.424   3.355   9.699 -0.1149  1.9376 -1.2217
52873SOL    HW270599   9.531   3.381   9.596  0.7810 -1.5050 -1.2718
52874SOL     OW70600   2.201   0.182   3.706 -0.2345  0.9398 -0.5620
52874SOL    HW170601   2.150   0.106   3.678  1.5911 -0.2849 -0.7015
52874SOL    HW270602   2.289   0.167   3.671  0.2916  2.9076 -0.2164
52875SOL     OW70603   9.697   5.871   1.214  0.3237  0.7722 -0.0504
52875SOL    HW170604   9.621   5.891   1.268  0.7723  0.2884  0.7732
52875SOL    HW270605   9.663   5.816   1.144  0.4512 -2.8593  2.4610
52876SOL     OW70606   5.762  11.681   0.168  0.3647 -0.7057 -0.0485
52876SOL    HW170607   5.681  11.632   0.179 -0.5457  0.8355  0.4501
52876SOL    HW270608   5.770  11.733   0.248  1.0667  0.2431 -0.7022
52877SOL     OW70609   3.645   8.466   7.027 -0.1582 -0.3007  0.2789
52877SOL    HW170610   3.563   8.509   7.051  1.7150  1.8145  3.9893
52877SOL    HW270611   3.698   8.536   6.988  1.1959 -0.4566  1.7105
52878SOL     OW70612  10.898   2.505   9.551  0.4434  0.5598 -0.3452
52878SOL    HW170613  10.903   2.410   9.558 -0.4891  0.5772  0.7378
52878SOL    HW270614  10.962   2.527   9.483  1.2746 -0.7560 -0.0240
52879SOL     OW70615   9.088   9.819   6.455  0.2674 -0.3988  0.1653
52879SOL    HW170616   9.106   9.913   6.450  0.1506 -0.3380  0.8246
52879SOL    HW270617   9.004   9.809   6.410  0.0148 -0.1083  0.5646
52880SOL     OW70618   2.566  11.993  12.854 -0.1434  0.3009 -0.6283
52880SOL    HW170619   2.527  11.997  12.941  1.1127  1.0966 -0.0746
52880SOL    HW270620   2.492  12.001  12.794 -0.9726  0.2600  0.3580
52881SOL     OW70621   6.825   5.636  11.649  0.1903 -0.3340 -0.3428
52881SOL    HW170622   6.872   5.655  11.730  2.2013 -0.2114 -1.4940
52881SOL    HW270623   6.857   5.700  11.586  0.1074 -1.6309 -1.7681
52882SOL     OW70624   5.622   5.847  11.229  0.2278  0.4275 -0.2359
52882SOL    HW170625   5.529   5.863  11.243  0.1027 -1.8614  2.4128
52882SOL    HW270626   5.625   5.783  11.157 -0.4640 -1.0616  1.0043
52883SOL     OW70627   4.732  13.410   7.895  0.5054  0.0396 -0.0237
52883SOL    HW170628   4.750  13.499   7.864  0.9468  0.2532  0.8036
52883SOL    HW270629   4.800  13.356   7.854  0.5714  0.1772 -0.0954
52884SOL     OW70630   9.388   7.844  13.909 -0.1161 -0.0590 -0.1337
52884SOL    HW170631   9.309   7.870  13.957 -1.1765  0.1632 -1.9163
52884SOL    HW270632   9.418   7.925  13.868 -0.4625 -0.6368 -1.5540
52885SOL     OW70633   6.448   8.594   3.664 -0.3377  0.4586 -0.0697
52885SOL    HW170634   6.520   8.657   3.662  1.9732 -2.0187 -0.7253
52885SOL    HW270635   6.405   8.603   3.580 -0.3892  1.5175  0.0634
52886SOL     OW70636  10.355  12.280   7.280  0.3517  0.0238  0.0971
52886SOL    HW170637  10.279  12.241   7.236 -0.4455  0.2415  1.2556
52886SOL    HW270638  10.318  12.343   7.341  1.4862  0.3232  0.4907
52887SOL     OW70639   4.057  10.092  12.150  0.0286 -0.7532 -0.2176
52887SOL    HW170640   4.086  10.056  12.066  0.4963 -0.2153 -0.2869
52887SOL    HW270641   4.132  10.140  12.183 -0.2481 -0.7189  0.3800
52888SOL     OW70642   9.904   0.689  10.035  0.1508  0.8764 -0.0170
52888SOL    HW170643   9.989   0.669  10.075  0.6275  1.6831 -0.6046
52888SOL    HW270644   9.867   0.757  10.091 -0.1560  0.4609  0.2914
52889SOL     OW70645   5.315   8.128   9.114  0.2898  0.5449 -0.0091
52889SOL    HW170646   5.286   8.039   9.133 -0.2753  0.2018 -2.1521
52889SOL    HW270647   5.409   8.119   9.096  0.0639  0.1854 -1.1021
52890SOL     OW70648  11.608   6.079   3.413 -0.0700  0.2519 -0.0151
52890SOL    HW170649  11.579   5.988   3.425  0.2388  0.2983  1.1881
52890SOL    HW270650  11.697   6.080   3.447  0.0542  0.9221 -0.3622
52891SOL     OW70651   1.731   4.848   3.438 -0.8483 -0.1363 -0.1996
52891SOL    HW170652   1.671   4.879   3.370 -1.5738  0.8469  0.8584
52891SOL    HW270653   1.814   4.834   3.392 -1.1368  1.1708 -1.1600
52892SOL     OW70654   2.611   2.535   6.157 -0.0517  0.2685 -0.2711
52892SOL    HW170655   2.607   2.610   6.216  0.9917  1.7527 -1.9718
52892SOL    HW270656   2.520   2.513   6.140 -0.3996  1.5092 -0.1310
52893SOL     OW70657   3.327   4.644  12.972 -0.1684 -0.2155  0.0906
52893SOL    HW170658   3.318   4.554  12.943  1.5163 -0.8377  1.2920
52893SOL    HW270659   3.321   4.639  13.068  4.2772  0.1594  0.6139
52894SOL     OW70660   1.097  11.818   2.921  0.6544  0.4169  0.5916
52894SOL    HW170661   1.008  11.825   2.955  0.3987  0.2917 -0.0367
52894SOL    HW270662   1.086  11.814   2.826  1.1258 -2.5270  0.5865
52895SOL     OW70663   0.402   9.286   6.695 -0.1134 -0.0808  0.2471
52895SOL    HW170664   0.324   9.322   6.736  0.0314  1.8939 -1.0275
52895SOL    HW270665   0.371   9.251   6.612  0.0736 -1.0700  0.5886
52896SOL     OW70666   4.840   0.698  10.167 -0.1527  0.5161  0.6605
52896SOL    HW170667   4.770   0.760  10.186 -1.0955 -0.2336 -0.2563
52896SOL    HW270668   4.902   0.709  10.239 -0.8050  1.7669  1.0634
52897SOL     OW70669   1.938   7.959  13.200  0.3486  0.4580  0.0332
52897SOL    HW170670   1.854   7.994  13.170  0.4203 -0.8484 -1.9378
52897SOL    HW270671   1.945   7.874  13.156  2.0291 -0.1336  1.3422
52898SOL     OW70672   2.791   3.827  11.570  1.0380  0.6519 -0.0640
52898SOL    HW170673   2.742   3.873  11.502  0.1611  0.2516  0.2848
52898SOL    HW270674   2.864   3.885  11.590  0.2794  1.6187 -0.0509
52899SOL     OW70675  10.653   2.726   3.146  0.2069  0.0280  0.5651
52899SOL    HW170676  10.592   2.734   3.219 -0.3645 -0.6921  0.1836
52899SOL    HW270677  10.701   2.645   3.163  1.1814  0.6584  0.9358
52900SOL     OW70678  12.758   4.725   1.568  0.2139 -0.4420  0.5192
52900SOL    HW170679  12.692   4.677   1.617  0.1272 -0.3275  0.5138
52900SOL    HW270680  12.710   4.796   1.525  0.5660  0.5001  1.6501
52901SOL     OW70681   5.747   4.278   8.937  0.7466 -0.2976  0.5498
52901SOL    HW170682   5.788   4.199   8.901  0.9979 -0.0434  0.2677
52901SOL    HW270683   5.816   4.344   8.933  0.0393  0.4125 -0.8672
52902SOL     OW70684   8.801   7.153   6.742  0.0507  0.1218  0.0702
52902SOL    HW170685   8.728   7.124   6.796  0.0845 -1.6281 -0.7263
52902SOL    HW270686   8.869   7.179   6.804 -0.7016  0.2993  0.8283
52903SOL     OW70687   9.431   3.410  10.217  0.1314 -0.2608 -0.2684
52903SOL    HW170688   9.507   3.352  10.209  0.1749 -0.2651  0.1579
52903SOL    HW270689   9.407   3.405  10.309 -1.6825 -1.9075 -0.7463
52904SOL     OW70690  11.620   0.550   8.248  0.1144  0.3082  0.6535
52904SOL    HW170691  11.671   0.618   8.293  1.9131  0.8240 -1.9376
52904SOL    HW270692  11.678   0.475   8.244 -0.3711 -0.0365  0.0099
52905SOL     OW70693  12.947   7.180   4.380  0.1229 -0.4538  0.5282
52905SOL    HW170694  13.007   7.236   4.429 -2.7852  2.0703  1.5526
52905SOL    HW270695  12.913   7.119   4.446 -2.3094  1.6547  1.3745
52906SOL     OW70696   8.828   6.161   9.111  0.0561  0.2487  0.0975
52906SOL    HW170697   8.811   6.081   9.061  0.0825  0.7724 -0.7764
52906SOL    HW270698   8.905   6.142   9.164  0.1657 -0.2435 -0.2403
52907SOL     OW70699   2.390   7.829  12.917  0.5273 -0.4971  0.4120
52907SOL    HW170700   2.418   7.848  13.007  1.7064 -1.2057  0.2095
52907SOL    HW270701   2.400   7.912  12.871 -0.6562  0.0254  1.0612
52908SOL     OW70702   3.688  10.697   1.159  0.3364  0.3498  0.6714
52908SOL    HW170703   3.747  10.632   1.121  0.2900 -0.1882  1.4803
52908SOL    HW270704   3.604  10.653   1.165 -0.2057  1.1676 -0.6109
52909SOL     OW70705  12.813   9.485  11.661 -0.1321  1.0701  0.3643
52909SOL    HW170706  12.874   9.552  11.690 -1.7671  3.0569 -0.5627
52909SOL    HW270707  12.836   9.470  11.569 -0.9352  1.7226  0.0524
52910SOL     OW70708   2.018   5.163   5.436 -0.6691  0.5070 -0.1116
52910SOL    HW170709   1.948   5.228   5.449 -1.3757 -0.3100  0.3065
52910SOL    HW270710   2.080   5.206   5.378 -1.2008  1.4982  0.0248
52911SOL     OW70711   5.986   8.808  13.517  0.2044  0.0468  0.3576
52911SOL    HW170712   6.024   8.742  13.460 -0.0409  0.8231 -0.7468
52911SOL    HW270713   5.900   8.826  13.478  0.2959  1.0529  0.5876
52912SOL     OW70714   9.685   6.558   2.105  0.6307  1.1536  0.0080
52912SOL    HW170715   9.773   6.591   2.118 -0.0824  3.1094  0.1891
52912SOL    HW270716   9.675   6.552   2.010  0.7270  1.5905 -0.0278
52913SOL     OW70717   5.719   6.862   1.853  0.3425 -0.3515 -0.1324
52913SOL    HW170718   5.695   6.771   1.871  0.0946 -0.1434  0.6051
52913SOL    HW270719   5.728   6.902   1.939 -0.6688  0.6227 -0.4634
52914SOL     OW70720  12.910   5.860   4.451 -0.1112 -0.3723  0.0144
52914SOL    HW170721  12.824   5.850   4.491 -0.5370  1.3503 -0.4059
52914SOL    HW270722  12.952   5.774   4.461 -2.3874 -1.6861 -1.0078
52915SOL     OW70723  12.605  10.886   9.797 -0.1157 -0.4515  0.0259
52915SOL    HW170724  12.533  10.949   9.800  0.4022  0.1402  0.3635
52915SOL    HW270725  12.684  10.940   9.810  0.4183 -1.0300 -0.7489
52916SOL     OW70726   3.512   7.182  12.031  0.7894 -0.3833 -0.1685
52916SOL    HW170727   3.521   7.245  11.959  1.4162 -1.0948 -0.7158
52916SOL    HW270728   3.421   7.192  12.060  0.5862  0.0352 -0.9340
52917SOL     OW70729  11.358  13.066   2.805  0.5934  0.6366 -0.3027
52917SOL    HW170730  11.350  13.051   2.899 -1.3459 -0.7345 -0.6312
52917SOL    HW270731  11.284  13.019   2.766  1.7858  0.4814 -2.5886
52918SOL     OW70732   3.733   4.964  12.103 -0.5397 -0.3265  0.2436
52918SOL    HW170733   3.734   4.883  12.053  0.4900  0.5515 -1.2332
52918SOL    HW270734   3.697   5.030  12.044 -0.1560  0.5532  0.9469
52919SOL     OW70735  11.056   6.125   5.588  0.3640  0.0164 -0.1174
52919SOL    HW170736  11.089   6.214   5.599  0.4666 -0.1820  1.2890
52919SOL    HW270737  11.111   6.071   5.644  0.2567 -0.9394 -0.8946
52920SOL     OW70738   1.190   4.295   6.978  0.1747  0.4258 -0.2764
52920SOL    HW170739   1.182   4.204   6.950 -0.5427  0.2814  0.3500
52920SOL    HW270740   1.246   4.291   7.055  0.0849  0.5050 -0.2074
52921SOL     OW70741   5.056   3.175   2.794 -1.1014 -0.5327  0.2796
52921SOL    HW170742   5.091   3.094   2.758  0.1574 -1.0902  2.5118
52921SOL    HW270743   5.073   3.168   2.888 -0.0972  2.7202  0.4571
52922SOL     OW70744   6.468   8.463   8.401 -0.0162  0.0673 -0.0758
52922SOL    HW170745   6.531   8.422   8.342  0.4837  0.1428  0.4002
52922SOL    HW270746   6.418   8.522   8.345  0.0302 -0.3321 -0.5436
52923SOL     OW70747   5.195   3.244  13.351 -0.1244 -0.2331 -0.3176
52923SOL    HW170748   5.144   3.322  13.369 -0.0910 -0.5290  1.1699
52923SOL    HW270749   5.158   3.177  13.409 -0.5519 -1.5169 -1.9732
52924SOL     OW70750   3.549  12.851  12.878 -0.3267  0.4001 -0.4077
52924SOL    HW170751   3.629  12.801  12.858 -0.3089 -0.3944  1.4290
52924SOL    HW270752   3.478  12.790  12.861 -0.3110 -0.2971  1.7018
52925SOL     OW70753  10.500   9.593   9.786 -0.0735  0.0802 -0.2227
52925SOL    HW170754  10.558   9.622   9.857  1.1732 -1.1166 -0.7086
52925SOL    HW270755  10.540   9.513   9.754 -2.5572 -1.3816  0.0656
52926SOL     OW70756  11.521  11.116   3.806 -0.1604  0.1954  0.0601
52926SOL    HW170757  11.540  11.202   3.842  0.0714 -0.2845  1.1143
52926SOL    HW270758  11.542  11.124   3.713  1.6557  0.7561  0.4824
52927SOL     OW70759   4.531   6.298   1.655 -0.3768  0.0636  0.4821
52927SOL    HW170760   4.554   6.247   1.577 -2.4460  1.1393 -0.9064
52927SOL    HW270761   4.615   6.332   1.687  0.8040 -2.3739  0.2159
52928SOL     OW70762   1.509   1.644  10.028  0.2546 -0.4482 -0.1089
52928SOL    HW170763   1.522   1.569   9.969 -0.4897 -1.8300  1.4155
52928SOL    HW270764   1.466   1.607  10.105  0.7770  1.3882  1.1247
52929SOL     OW70765   6.661   7.099   2.144  0.3310  0.2329 -0.1574
52929SOL    HW170766   6.728   7.065   2.204 -0.8331 -1.6028  0.1663
52929SOL    HW270767   6.684   7.062   2.059  0.3200  0.4809 -0.2705
52930SOL     OW70768  11.036   2.990   5.010  0.4642  0.2564  0.3812
52930SOL    HW170769  10.998   3.046   4.943  1.3421 -1.3152 -1.4976
52930SOL    HW270770  11.026   3.040   5.091 -0.5652  2.2381 -0.8979
52931SOL     OW70771   3.675   5.720  12.388  0.1334  0.6576  0.3483
52931SOL    HW170772   3.760   5.703  12.429 -0.5142 -2.3318  0.6903
52931SOL    HW270773   3.696   5.744  12.298  1.3983 -2.0631 -0.1917
52932SOL     OW70774   1.418   9.418   7.992  0.4587 -0.3805 -0.1344
52932SOL    HW170775   1.401   9.437   7.899  0.6994 -0.5302 -0.2124
52932SOL    HW270776   1.387   9.328   8.004  0.6463 -0.4451 -0.1303
52933SOL     OW70777   6.055   7.554   4.032  0.2183  0.5835  0.1845
52933SOL    HW170778   6.010   7.537   3.950 -0.4235  1.1109  0.4149
52933SOL    HW270779   6.125   7.616   4.009 -0.6177  1.5614  0.1917
52934SOL     OW70780   2.664  11.344  10.193 -0.0019 -0.6665 -0.2826
52934SOL    HW170781   2.598  11.338  10.124 -1.1364 -0.3284  0.7526
52934SOL    HW270782   2.714  11.423  10.172 -0.9020 -0.0784 -0.2370
52935SOL     OW70783   1.985  10.290   7.002 -0.3318  0.0800 -0.2005
52935SOL    HW170784   1.969  10.372   7.048 -0.1945  0.0575 -0.1135
52935SOL    HW270785   1.984  10.313   6.909 -0.6575  0.1163 -0.1892
52936SOL     OW70786   3.251   0.552   1.906 -0.8146  0.3940  0.1141
52936SOL    HW170787   3.178   0.560   1.845 -0.8457  0.2889  0.1384
52936SOL    HW270788   3.219   0.493   1.974 -0.9732  0.9236  0.5122
52937SOL     OW70789   0.302   4.285   6.317 -0.1922  0.2941 -0.6532
52937SOL    HW170790   0.336   4.342   6.387 -1.2216  0.2527 -0.1039
52937SOL    HW270791   0.291   4.200   6.360 -1.6125  0.4738 -0.6288
52938SOL     OW70792   1.346   1.697   6.999  0.1922 -0.1556  0.1197
52938SOL    HW170793   1.390   1.634   6.944  1.5977  1.1239 -0.2988
52938SOL    HW270794   1.353   1.780   6.952 -1.5163  0.3623  0.6831
52939SOL     OW70795  10.061  12.177   8.180  0.2141  0.1763  0.2119
52939SOL    HW170796  10.003  12.184   8.104 -0.4672  0.9676  0.7800
52939SOL    HW270797  10.141  12.223   8.154  0.5327 -0.7661 -0.5161
52940SOL     OW70798   2.334   8.165   2.401 -0.4652 -0.0908  0.8481
52940SOL    HW170799   2.291   8.250   2.414  0.1382  0.3183  0.2375
52940SOL    HW270800   2.331   8.151   2.306  0.0782 -0.4085  0.8745
52941SOL     OW70801   5.710   2.906   9.696 -0.0462  0.1336 -0.4502
52941SOL    HW170802   5.630   2.852   9.687 -0.4118  0.3924  0.9688
52941SOL    HW270803   5.679   2.996   9.684 -0.2902  0.3652  1.5190
52942SOL     OW70804  10.378  10.998   5.327  0.0331  0.0430 -0.2944
52942SOL    HW170805  10.316  11.007   5.399  1.2632 -1.0424  0.9663
52942SOL    HW270806  10.447  11.062   5.347 -0.3117  0.7328 -1.2850
52943SOL     OW70807   3.077   6.985   4.470  0.1558 -0.8421  0.4239
52943SOL    HW170808   2.986   6.966   4.493  0.4856 -0.3736  2.2978
52943SOL    HW270809   3.120   6.900   4.470 -0.5202 -1.2759 -1.9761
52944SOL     OW70810  13.057  12.872   3.742 -0.2631 -0.5250  0.2105
52944SOL    HW170811  13.118  12.932   3.701 -0.2029 -0.2301  0.7227
52944SOL    HW270812  13.036  12.912   3.826 -1.9253 -0.1230 -0.3540
52945SOL     OW70813   9.772  12.905   9.295  0.1632  0.6079  0.1130
52945SOL    HW170814   9.752  12.884   9.204  1.3847  0.7013 -0.1915
52945SOL    HW270815   9.769  13.001   9.299 -2.2926  0.5726  0.7712
52946SOL     OW70816   4.098  12.797   4.247  0.1603 -0.3219 -0.1012
52946SOL    HW170817   4.121  12.820   4.157 -2.4249 -1.2473 -1.1009
52946SOL    HW270818   4.047  12.872   4.278 -1.7978 -1.3292 -0.6787
52947SOL     OW70819   4.849   6.171   9.194  0.0639  0.0250  0.1356
52947SOL    HW170820   4.897   6.212   9.122  0.7174 -2.8428 -1.2045
52947SOL    HW270821   4.760   6.206   9.186  0.3067  0.3558 -1.6067
52948SOL     OW70822   6.809   5.715  13.844  0.6804 -0.6813 -0.0135
52948SOL    HW170823   6.799   5.688  13.752  1.3624  1.0675 -0.6535
52948SOL    HW270824   6.826   5.809  13.839 -0.3407 -0.3370  1.9908
52949SOL     OW70825  13.785  10.170   4.870 -0.2411  0.4911 -0.2848
52949SOL    HW170826  13.873  10.178   4.908 -0.4381  0.6572  0.1434
52949SOL    HW270827  13.789  10.219   4.788  0.6789 -1.2479 -1.3548
52950SOL     OW70828   9.562   9.813   5.710  0.0440  0.2381 -0.1541
52950SOL    HW170829   9.566   9.774   5.623 -1.0672  1.6181 -0.8667
52950SOL    HW270830   9.648   9.855   5.721  0.6617 -1.0292 -0.0233
52951SOL     OW70831   9.054   3.816   3.441 -0.0589 -0.5226  0.2347
52951SOL    HW170832   8.985   3.827   3.507  1.0087 -1.3080  1.5175
52951SOL    HW270833   9.073   3.905   3.411  0.5604  0.0433  2.1802
52952SOL     OW70834  12.452   5.347   3.515 -0.4105  0.4978  1.1567
52952SOL    HW170835  12.444   5.361   3.421 -1.2278 -0.5942  1.0438
52952SOL    HW270836  12.521   5.281   3.523 -1.6856 -0.8778  1.1697
52953SOL     OW70837  10.707   0.043   1.370  0.1328 -0.0913 -0.5987
52953SOL    HW170838  10.614   0.036   1.389  0.1863  0.0652 -0.2795
52953SOL    HW270839  10.750  -0.000   1.443  0.4116  2.2018  0.6615
52954SOL     OW70840   8.269   5.164   4.874  0.1083 -0.4578  0.3042
52954SOL    HW170841   8.269   5.194   4.783  0.1900  0.7033  0.6711
52954SOL    HW270842   8.270   5.068   4.868  2.6178 -0.4153 -0.9054
52955SOL     OW70843   1.491   8.462  10.907  0.4045 -0.4185 -0.0646
52955SOL    HW170844   1.402   8.429  10.897  0.3269 -0.2722  0.1304
52955SOL    HW270845   1.480   8.554  10.933  0.6130 -0.3564 -0.1892
52956SOL     OW70846   2.763   7.643  14.020 -0.2414  0.3573  0.2298
52956SOL    HW170847   2.768   7.610  13.931 -0.0779 -0.9212  0.6864
52956SOL    HW270848   2.846   7.688  14.034  0.1652 -0.3252  0.0619
52957SOL     OW70849  13.802  10.990   9.059 -0.6888 -0.2712 -0.2285
52957SOL    HW170850  13.844  10.934   8.995 -0.4366 -0.9220  0.4927
52957SOL    HW270851  13.794  10.936   9.137 -2.3719  0.0131 -0.1676
52958SOL     OW70852   2.852   2.170   1.574 -0.2330 -0.0614 -0.3007
52958SOL    HW170853   2.785   2.238   1.586  0.3790  0.2885  1.2942
52958SOL    HW270854   2.935   2.218   1.576  0.2132 -0.8497  0.9012
52959SOL     OW70855   4.429  11.444   2.567  0.1971 -0.0035  0.5004
52959SOL    HW170856   4.365  11.487   2.623 -0.5164  1.8137 -1.5433
52959SOL    HW270857   4.376  11.392   2.506  0.5708  1.4539 -1.1621
52960SOL     OW70858  12.166   1.056   9.787  0.3289  0.1913  0.1717
52960SOL    HW170859  12.154   0.962   9.774  1.7628  0.2668 -2.0357
52960SOL    HW270860  12.195   1.063   9.878  2.1405 -1.7211 -0.1859
52961SOL     OW70861   6.737   3.614   5.899  0.4462 -0.1525  0.2277
52961SOL    HW170862   6.649   3.593   5.868  0.5021 -1.7738  1.0861
52961SOL    HW270863   6.792   3.605   5.822 -0.1686  1.4582 -0.4626
52962SOL     OW70864  11.336   4.684   2.419 -0.0447  0.4103  0.0911
52962SOL    HW170865  11.403   4.664   2.485 -0.6282  1.1927  0.9520
52962SOL    HW270866  11.256   4.699   2.470 -1.1146 -1.3437 -0.9666
52963SOL     OW70867   5.451   3.108   3.202 -0.0940  0.2934 -0.4920
52963SOL    HW170868   5.432   3.202   3.199  1.4068  0.7859  2.0600
52963SOL    HW270869   5.535   3.099   3.157 -1.0378 -0.1636 -2.2528
52964SOL     OW70870   9.186   5.800   8.470 -0.1088  0.5101  0.3405
52964SOL    HW170871   9.249   5.731   8.450  0.7296  0.7227  2.0243
52964SOL    HW270872   9.114   5.787   8.408  0.5981 -1.0963 -0.1792
52965SOL     OW70873   9.783   4.035   1.012  0.3373 -0.2270  0.8976
52965SOL    HW170874   9.749   4.079   0.934  1.7901 -0.5264  0.0680
52965SOL    HW270875   9.705   4.003   1.057 -0.5264 -0.2499 -0.5496
52966SOL     OW70876   8.475   0.675   5.767  1.3138 -0.1744 -0.3651
52966SOL    HW170877   8.434   0.596   5.733  0.3763  0.3213 -0.4172
52966SOL    HW270878   8.519   0.647   5.848  1.3205 -0.8200 -0.5893
52967SOL     OW70879   3.199   0.391   1.228  0.7136  0.1908 -0.3874
52967SOL    HW170880   3.118   0.394   1.176  0.5954 -1.4204 -0.3532
52967SOL    HW270881   3.252   0.463   1.194 -0.3108  0.6256 -1.1249
52968SOL     OW70882   1.603   3.906   7.784 -0.1501  0.3012 -0.2185
52968SOL    HW170883   1.658   3.858   7.723 -0.6780  0.2476 -0.6628
52968SOL    HW270884   1.647   3.898   7.869  0.3188 -0.0548 -0.4943
52969SOL     OW70885   2.090   9.731  12.116  0.3591 -0.0671 -0.1433
52969SOL    HW170886   2.161   9.731  12.051 -0.9988  0.2122 -1.6764
52969SOL    HW270887   2.014   9.765  12.069 -1.1449 -1.5722  1.0835
52970SOL     OW70888  12.645  11.379  13.310 -0.8215 -0.5238  0.0439
52970SOL    HW170889  12.711  11.314  13.285 -0.1760 -1.0612  2.7977
52970SOL    HW270890  12.675  11.460  13.269  1.9234 -0.6486  1.5471
52971SOL     OW70891   4.066  10.049   2.274 -0.1599  0.0997  0.2762
52971SOL    HW170892   4.115   9.998   2.209  2.3416  2.3363  0.2374
52971SOL    HW270893   4.039   9.985   2.339  1.0124 -1.5797 -0.8042
52972SOL     OW70894   9.348   9.858   0.475  0.2417 -0.1534  0.4674
52972SOL    HW170895   9.293   9.846   0.552 -2.6119 -1.0433 -1.5453
52972SOL    HW270896   9.299   9.918   0.419  2.3953  0.7859 -0.5478
52973SOL     OW70897  13.495   9.631   4.357 -0.4703 -0.3761 -0.0319
52973SOL    HW170898  13.584   9.642   4.324 -0.5200  1.3674  0.3089
52973SOL    HW270899  13.448   9.587   4.287  0.1848  0.4917 -1.0428
52974SOL     OW70900   1.267  10.573   0.148  0.2614 -0.2122  0.1041
52974SOL    HW170901   1.251  10.518   0.071  0.5141 -0.3499  0.1457
52974SOL    HW270902   1.232  10.523   0.221  0.9530 -0.5606  0.2077
52975SOL     OW70903   6.742   5.654   7.037  0.3537  0.5390  0.2040
52975SOL    HW170904   6.700   5.570   7.020 -0.8791  1.0427  0.6643
52975SOL    HW270905   6.696   5.689   7.113  2.2258  0.7229  1.3045
52976SOL     OW70906  11.784   3.320   5.679 -0.0982 -0.9728  0.5041
52976SOL    HW170907  11.774   3.397   5.735 -0.3027 -1.2294  0.8245
52976SOL    HW270908  11.866   3.334   5.633 -2.0361  1.4505 -2.5820
52977SOL     OW70909   1.864   9.631   4.422  0.5639 -0.3983 -0.3813
52977SOL    HW170910   1.807   9.556   4.402  0.2192 -0.3817  0.4983
52977SOL    HW270911   1.910   9.606   4.502  0.7458  0.1706 -0.3038
52978SOL     OW70912   2.837   6.720   2.698 -0.2591  0.6271 -0.2394
52978SOL    HW170913   2.767   6.702   2.760  0.2240 -0.1406  0.1090
52978SOL    HW270914   2.808   6.796   2.649 -0.9770  0.7976  0.4386
52979SOL     OW70915   5.024   5.627   5.371 -0.7575 -0.1639 -0.3016
52979SOL    HW170916   5.075   5.622   5.452 -2.4147 -2.1441  0.7071
52979SOL    HW270917   4.967   5.703   5.383  0.4006  0.7486 -0.4980
52980SOL     OW70918  13.603  13.901  11.163  0.3040 -0.5193  0.3863
52980SOL    HW170919  13.576  13.932  11.077 -1.0556 -1.3961  0.4679
52980SOL    HW270920  13.695  13.877  11.152  1.0732  2.1858 -0.0159
52981SOL     OW70921   0.599   9.916   3.135 -0.2135  0.4466 -0.1279
52981SOL    HW170922   0.626   9.979   3.068 -0.2940 -0.0247 -0.6071
52981SOL    HW270923   0.586   9.834   3.087  1.1862 -0.2917  0.6863
52982SOL     OW70924   4.815   0.681   2.645 -0.0518 -0.2631  0.0420
52982SOL    HW170925   4.790   0.651   2.733 -0.5037 -1.0685 -0.3482
52982SOL    HW270926   4.739   0.728   2.613  0.3584  0.6133  0.3335
52983SOL     OW70927   0.329  11.477   9.968 -0.1376 -0.9553 -0.0819
52983SOL    HW170928   0.361  11.387   9.958  0.9906 -0.7418  1.3649
52983SOL    HW270929   0.329  11.492  10.062 -2.3626 -0.1363 -0.1548
52984SOL     OW70930   3.030   9.350   9.823  0.1225  0.1666 -0.1858
52984SOL    HW170931   3.092   9.300   9.771  0.6336 -0.5590  1.0629
52984SOL    HW270932   3.050   9.326   9.914 -0.2657  1.8922  0.4114
52985SOL     OW70933  13.940   5.717  13.955  0.0240 -0.3553 -0.3031
52985SOL    HW170934  13.938   5.732  14.049  2.0087 -3.1290  0.2858
52985SOL    HW270935  13.894   5.635  13.942  1.7375 -1.2091 -1.3975
52986SOL     OW70936   0.380   7.580   1.665 -0.0736  0.3555  0.3279
52986SOL    HW170937   0.309   7.518   1.649  1.1965 -0.8392 -0.9194
52986SOL    HW270938   0.378   7.639   1.590  0.0859  0.5018  0.4371
52987SOL     OW70939   2.561   2.724   1.794 -0.3089  0.4551 -0.8003
52987SOL    HW170940   2.570   2.640   1.839  0.6092  0.3274 -1.1992
52987SOL    HW270941   2.481   2.715   1.743  0.7912 -0.9487 -2.3875
52988SOL     OW70942  10.257   5.856  10.754 -0.2330  0.6532  0.0754
52988SOL    HW170943  10.271   5.932  10.810  0.9050  0.6072 -0.1368
52988SOL    HW270944  10.187   5.883  10.694  0.1257  1.5206  0.0327
52989SOL     OW70945   0.998   8.545  11.809 -0.0457  0.8814  0.3888
52989SOL    HW170946   1.026   8.614  11.869 -1.0433  1.0985  0.6291
52989SOL    HW270947   1.020   8.463  11.853  0.7478  1.0453  0.2967
52990SOL     OW70948   6.429  11.292  10.842 -0.0816 -0.1186 -0.2775
52990SOL    HW170949   6.390  11.219  10.891 -1.3225 -0.0192 -1.0794
52990SOL    HW270950   6.366  11.363  10.850  1.0018  0.8080  0.2733
52991SOL     OW70951   5.453   3.978   8.784 -0.0600  0.5493 -0.3016
52991SOL    HW170952   5.363   3.995   8.757 -0.5837  0.4031  1.2264
52991SOL    HW270953   5.482   4.059   8.826  0.6340  0.6867 -1.0065
52992SOL     OW70954  10.200  12.073   1.283 -0.1319 -0.3974 -0.3569
52992SOL    HW170955  10.193  12.129   1.360 -4.0270 -2.2558  0.8835
52992SOL    HW270956  10.165  12.126   1.212 -0.5428 -0.1038  0.0577
52993SOL     OW70957   9.949   1.463   4.674 -0.2081 -0.1543 -0.0919
52993SOL    HW170958   9.977   1.506   4.594  0.8807  0.4899  0.6104
52993SOL    HW270959  10.011   1.392   4.687  1.0787  1.1753  1.3840
52994SOL     OW70960   2.994   6.953   4.969  0.2508  0.5202  0.5008
52994SOL    HW170961   2.917   6.981   5.018 -0.6077 -1.4330  0.3580
52994SOL    HW270962   2.977   6.981   4.879 -0.6053 -0.4198  0.3530
52995SOL     OW70963  13.550   8.290   1.925  0.5116 -0.3013  0.2279
52995SOL    HW170964  13.560   8.341   2.006 -0.2551  0.0788  0.0943
52995SOL    HW270965  13.574   8.201   1.950  0.3031 -0.1820  0.8805
52996SOL     OW70966  12.379   6.213   7.250 -0.5237  0.1241  0.0689
52996SOL    HW170967  12.360   6.211   7.344 -0.1905  0.6737  0.1584
52996SOL    HW270968  12.371   6.122   7.222 -0.6158 -0.0509  0.6338
52997SOL     OW70969  11.565   4.600   9.955  0.1808 -0.0780 -0.6304
52997SOL    HW170970  11.528   4.652   9.883 -0.3429  0.5735  0.0937
52997SOL    HW270971  11.510   4.623  10.031  2.4176  1.3850  0.6515
52998SOL     OW70972   3.924   3.195   2.572  0.0528  0.1721 -0.1205
52998SOL    HW170973   3.839   3.195   2.618  0.3227  2.3445  0.4705
52998SOL    HW270974   3.978   3.136   2.624 -0.5755  0.1707  0.5578
52999SOL     OW70975   2.213  12.586  11.734 -0.4265  0.1686  0.2574
52999SOL    HW170976   2.256  12.501  11.727 -0.7398 -0.0263  0.6313
52999SOL    HW270977   2.256  12.641  11.668 -0.8814 -0.5622 -0.6791
53000SOL     OW70978   3.053   1.322   1.570  0.1380  0.5169 -0.1099
53000SOL    HW170979   3.002   1.316   1.489 -0.2608 -0.6856  0.2036
53000SOL    HW270980   2.988   1.312   1.640  0.8433 -2.1563  0.2929
53001SOL     OW70981  13.222   6.958   6.227  0.2420  0.0093  0.0390
53001SOL    HW170982  13.155   7.009   6.273 -1.9177 -0.4155 -2.3837
53001SOL    HW270983  13.295   7.019   6.216 -0.7900  1.3892  0.4842
53002SOL     OW70984   4.639   8.130   2.601 -0.3737 -0.0159  0.2799
53002SOL    HW170985   4.726   8.128   2.642  0.5483  0.4101 -1.5337
53002SOL    HW270986   4.586   8.071   2.654  0.8413  0.2229  1.8300
53003SOL     OW70987   5.715   7.605   6.962 -0.1974  0.2289 -0.6898
53003SOL    HW170988   5.744   7.627   6.873 -0.3679  0.4617 -0.6866
53003SOL    HW270989   5.672   7.684   6.994  1.6285  0.8427  0.3671
53004SOL     OW70990   3.862   5.581   4.102  0.2331  0.3713 -0.4513
53004SOL    HW170991   3.907   5.541   4.177 -4.0334 -1.6615  1.4195
53004SOL    HW270992   3.905   5.545   4.025  0.6732 -2.9514  1.1837
53005SOL     OW70993  11.875   1.126   4.534 -0.4544  0.2175  0.8053
53005SOL    HW170994  11.823   1.202   4.508  0.6258  0.0553 -2.2215
53005SOL    HW270995  11.859   1.062   4.466  1.0624 -1.1266  1.6474
53006SOL     OW70996   2.086   2.130  11.755 -0.0133 -0.6218 -0.1657
53006SOL    HW170997   2.084   2.169  11.668 -1.6682 -0.4532 -0.1017
53006SOL    HW270998   2.015   2.066  11.754  0.1466 -0.8444  0.9534
53007SOL     OW70999  13.282  11.835   8.725 -0.4418  0.2572  0.3056
53007SOL    HW171000  13.248  11.863   8.811 -1.9660  1.9129 -0.7621
53007SOL    HW271001  13.377  11.845   8.732 -0.6978  2.8875  1.0143
53008SOL     OW71002   6.022   6.789  12.326  0.2059 -0.3323  0.1170
53008SOL    HW171003   6.098   6.796  12.269 -0.8103 -0.7094 -1.3482
53008SOL    HW271004   5.956   6.846  12.285 -0.8992 -1.4418  0.3106
53009SOL     OW71005   4.696   4.883  12.465 -0.2647  0.1639  0.0584
53009SOL    HW171006   4.751   4.858  12.539 -1.0316 -3.1350 -0.3565
53009SOL    HW271007   4.747   4.859  12.387 -0.5113  1.2493 -0.4648
53010SOL     OW71008  11.646   9.157  14.030  0.0811 -0.4874 -0.2920
53010SOL    HW171009  11.566   9.190  14.071  0.1326 -0.2493 -0.3818
53010SOL    HW271010  11.616   9.110  13.952  0.1788  2.0091 -1.9357
53011SOL     OW71011   9.013  13.777   3.266 -0.4356  0.0094 -0.3935
53011SOL    HW171012   8.991  13.833   3.341  0.7888  0.9011 -0.6665
53011SOL    HW271013   8.970  13.818   3.191  1.1531  1.1306 -0.7410
53012SOL     OW71014   0.315   5.714   4.850 -0.1360  0.3393  0.5992
53012SOL    HW171015   0.283   5.745   4.935  1.5578  0.3630  1.2790
53012SOL    HW271016   0.365   5.635   4.871  0.1520  0.2426 -0.4092
53013SOL     OW71017   2.969   2.769   4.075  0.0088 -0.3475 -0.4447
53013SOL    HW171018   3.045   2.821   4.098 -0.5967  0.0238  0.8021
53013SOL    HW271019   2.899   2.833   4.059 -0.6694 -0.7356  0.8353
53014SOL     OW71020  11.903   1.660   1.994  0.5940 -0.0891  0.1609
53014SOL    HW171021  11.960   1.706   2.056 -0.9348  0.5813  1.1159
53014SOL    HW271022  11.871   1.729   1.936 -0.6242 -0.1544  0.7392
53015SOL     OW71023   8.020  12.768   4.049  0.0979 -0.6198 -0.0909
53015SOL    HW171024   8.085  12.833   4.073  0.3963 -0.6079 -0.9006
53015SOL    HW271025   8.058  12.684   4.075  0.0088 -0.5327  0.3256
53016SOL     OW71026   4.068   5.179   7.084  0.4725  0.5640  0.7473
53016SOL    HW171027   4.023   5.220   7.009 -0.7626 -0.7601  0.7251
53016SOL    HW271028   4.145   5.138   7.046  1.7054  2.7425  0.7562
53017SOL     OW71029   5.034   8.022   2.859 -0.1456  0.7025  0.2981
53017SOL    HW171030   4.995   8.102   2.823  0.6432  0.4348 -1.1827
53017SOL    HW271031   4.961   7.979   2.904 -1.2321  0.9655 -1.1317
53018SOL     OW71032  10.968  11.814   3.463  0.3708  0.4447  0.2760
53018SOL    HW171033  10.922  11.894   3.436  1.1227  0.8383  0.1526
53018SOL    HW271034  10.933  11.795   3.550 -0.5956  0.2974 -0.1320
53019SOL     OW71035   1.894   3.375   5.012  0.4529  0.3044 -0.2736
53019SOL    HW171036   1.872   3.447   4.953  0.3574  0.9526  0.5286
53019SOL    HW271037   1.968   3.331   4.971  0.7189  1.0637 -0.6066
53020SOL     OW71038   2.839   8.110  11.540 -0.3464 -0.8243 -0.2398
53020SOL    HW171039   2.838   8.093  11.634  2.1731  0.8272  0.1864
53020SOL    HW271040   2.912   8.171  11.528 -0.4521 -1.1714 -3.3068
53021SOL     OW71041   2.841   6.825  13.119 -0.6026 -0.5339 -0.3804
53021SOL    HW171042   2.775   6.768  13.079 -2.0910  0.1192  1.0406
53021SOL    HW271043   2.859   6.785  13.204 -0.3720  0.1941 -0.0787
53022SOL     OW71044  10.909   5.499   4.525 -0.1023 -0.1317  0.4074
53022SOL    HW171045  10.952   5.483   4.609  1.1225  3.5200  0.6641
53022SOL    HW271046  10.961   5.450   4.461  1.2811  0.0675  1.3483
53023SOL     OW71047   4.735   4.275   5.337 -0.6476  0.2743 -0.0905
53023SOL    HW171048   4.829   4.264   5.345 -0.7519 -0.3825  0.2898
53023SOL    HW271049   4.713   4.237   5.252 -0.6764 -0.2838  0.1654
53024SOL     OW71050   3.405  12.651   4.666 -0.7358 -0.1839  0.1109
53024SOL    HW171051   3.490  12.609   4.650 -0.4295 -0.3008  1.8421
53024SOL    HW271052   3.424  12.745   4.660 -0.7255 -0.2250 -0.5642
53025SOL     OW71053   3.673   0.783   4.153  0.4001  0.5747  0.3233
53025SOL    HW171054   3.596   0.835   4.178 -0.6149 -1.2338  1.1338
53025SOL    HW271055   3.711   0.755   4.236  0.3014 -0.8482 -0.0991
53026SOL     OW71056   2.948  13.859   6.577  0.1328 -0.3761  0.4178
53026SOL    HW171057   2.870  13.882   6.627  1.1174  0.3082  1.7053
53026SOL    HW271058   3.018  13.909   6.619  1.2127 -0.7605 -0.8831
53027SOL     OW71059   7.762   6.545   9.373  0.5812  0.6033  0.3459
53027SOL    HW171060   7.768   6.613   9.440 -4.3545 -0.3356  2.2354
53027SOL    HW271061   7.765   6.462   9.422 -1.9950 -0.1397 -0.5432
53028SOL     OW71062   4.642   4.892   4.934  0.4555 -0.8770 -0.3342
53028SOL    HW171063   4.579   4.857   4.997  0.2963 -1.3429 -0.7364
53028SOL    HW271064   4.650   4.823   4.868  0.3757 -0.2726 -0.9915
53029SOL     OW71065   3.824   7.721  12.936  0.4779  0.0687 -0.3414
53029SOL    HW171066   3.801   7.650  12.995 -1.4445  1.6356  0.9374
53029SOL    HW271067   3.894   7.768  12.981  0.2878  0.2040 -0.1882
53030SOL     OW71068  11.838   3.180  10.295 -0.0744  0.1558 -0.6368
53030SOL    HW171069  11.757   3.195  10.246  0.7171 -1.2539 -2.5246
53030SOL    HW271070  11.908   3.199  10.232  1.0051 -1.8343 -0.1175
53031SOL     OW71071   1.525   8.610   7.081 -0.0179  1.8510  0.0537
53031SOL    HW171072   1.434   8.599   7.108 -0.1524 -0.6244 -1.1049
53031SOL    HW271073   1.576   8.571   7.153 -0.0421  1.0917 -0.3226
53032SOL     OW71074   0.910   7.779   5.784  0.4204  0.0285 -0.3739
53032SOL    HW171075   0.941   7.723   5.855 -0.7180 -1.2641 -0.8612
53032SOL    HW271076   0.815   7.769   5.784  0.2914  1.0180 -1.2626
53033SOL     OW71077   3.706   4.285   0.819  0.6650  0.1141  0.3284
53033SOL    HW171078   3.758   4.206   0.801  0.5945 -0.0372  0.7505
53033SOL    HW271079   3.618   4.251   0.839  0.3643  0.3776 -0.5073
53034SOL     OW71080   6.613   3.563   9.633 -0.0533  0.3454  0.7372
53034SOL    HW171081   6.608   3.482   9.582  0.2914  1.5110 -1.2904
53034SOL    HW271082   6.700   3.597   9.614  0.2622  0.6195  2.5378
53035SOL     OW71083   2.074   6.619   5.617  0.2659 -0.5940  0.2524
53035SOL    HW171084   2.147   6.602   5.677 -0.8116 -1.0023  1.5006
53035SOL    HW271085   2.111   6.604   5.530  1.7672 -0.4164  0.8190
53036SOL     OW71086   6.538  10.030  13.217 -0.1871 -0.0945 -0.2868
53036SOL    HW171087   6.611  10.071  13.171  1.1633 -1.6073  0.4574
53036SOL    HW271088   6.513   9.956  13.161 -0.0788 -0.5395  0.2449
53037SOL     OW71089   5.267  13.002   4.353  0.7506  0.5815 -0.1954
53037SOL    HW171090   5.195  13.040   4.303 -0.0878 -1.2503 -0.4713
53037SOL    HW271091   5.251  12.907   4.350  3.0155  0.1281 -0.0345
53038SOL     OW71092   2.292   1.772   4.790  0.2842  0.4267  0.0796
53038SOL    HW171093   2.242   1.790   4.869  1.1724  1.9390  0.3484
53038SOL    HW271094   2.380   1.750   4.821  0.3542 -0.0582 -0.4478
53039SOL     OW71095  12.307  12.416   8.893 -0.3804 -0.1414 -0.0605
53039SOL    HW171096  12.284  12.507   8.873 -1.0120 -0.1913  0.3855
53039SOL    HW271097  12.328  12.417   8.987  3.2636  0.2457 -0.7451
53040SOL     OW71098   5.408  13.797   1.966 -0.2389  0.7442  0.2866
53040SOL    HW171099   5.362  13.727   2.012  1.4379 -0.2840  0.4957
53040SOL    HW271100   5.375  13.792   1.876  0.2644 -0.7173  0.1565
53041SOL     OW71101   3.912   5.293   5.607  0.4990 -0.2553 -0.1430
53041SOL    HW171102   3.873   5.237   5.674  1.4137  2.0028  2.4586
53041SOL    HW271103   4.007   5.281   5.617  0.7246  1.7358  0.5442
53042SOL     OW71104   8.251   3.100   9.459 -0.2254 -0.5296 -0.3795
53042SOL    HW171105   8.294   3.100   9.373 -1.1120  0.4461 -0.8642
53042SOL    HW271106   8.273   3.186   9.496  0.0006 -0.8766  0.2870
53043SOL     OW71107   4.275  13.871   5.432 -0.0229 -0.1794 -0.1137
53043SOL    HW171108   4.206  13.814   5.464 -0.8599  0.7512 -0.2054
53043SOL    HW271109   4.323  13.898   5.510 -1.0687  0.8205  0.1995
53044SOL     OW71110   2.170   3.670   4.887 -0.2022 -0.0698  0.2425
53044SOL    HW171111   2.139   3.583   4.909  0.2832 -0.3864 -0.2848
53044SOL    HW271112   2.168   3.719   4.970  0.1875 -0.7872  0.6862
53045SOL     OW71113   6.165   6.708  10.952  0.2139 -0.3122  0.2756
53045SOL    HW171114   6.172   6.793  10.995  0.7148 -0.1804 -0.0468
53045SOL    HW271115   6.099   6.720  10.884 -0.2963 -0.4124  0.7453
53046SOL     OW71116  10.187  13.021   1.325 -0.4046  0.0968 -0.1033
53046SOL    HW171117  10.251  13.020   1.396 -0.6704  1.3416  0.1778
53046SOL    HW271118  10.104  12.997   1.366  0.0154 -2.6788 -0.6777
53047SOL     OW71119   8.921  10.923   9.487 -0.7321 -0.3228  0.8301
53047SOL    HW171120   8.942  10.851   9.427 -0.8022 -0.4174  0.9178
53047SOL    HW271121   8.943  11.002   9.438  2.0768 -0.4227  1.7550
53048SOL     OW71122   1.455  12.690   0.402 -0.3858  0.4585 -0.3351
53048SOL    HW171123   1.458  12.730   0.488 -1.1594  0.0596 -0.1077
53048SOL    HW271124   1.379  12.632   0.406  1.0826 -1.5646 -0.4227
53049SOL     OW71125   9.380   3.192  12.076 -0.2260 -0.3777  0.1062
53049SOL    HW171126   9.398   3.099  12.061  0.1733 -0.0861 -1.2843
53049SOL    HW271127   9.284   3.198  12.077 -0.2560 -0.8357  0.4656
53050SOL     OW71128   2.233   0.894   7.415 -0.2355  0.3443  0.3295
53050SOL    HW171129   2.147   0.879   7.375 -0.2309 -0.3187  0.5566
53050SOL    HW271130   2.295   0.848   7.358 -0.4084 -2.1834  1.9831
53051SOL     OW71131   5.075   0.066   2.053 -0.2455 -0.7152  0.1644
53051SOL    HW171132   5.092   0.041   1.963  0.3624 -0.1754  0.1223
53051SOL    HW271133   5.140   0.133   2.072 -1.9261  0.9887  0.2007
53052SOL     OW71134  12.702   0.604   9.917 -0.0049  0.1049  0.1686
53052SOL    HW171135  12.749   0.550   9.981  0.3210 -1.8308 -1.6168
53052SOL    HW271136  12.635   0.547   9.881  0.7146  0.6364 -2.2056
53053SOL     OW71137  11.337  12.580   1.290  0.0874 -0.4078 -0.5341
53053SOL    HW171138  11.405  12.514   1.301 -0.5980 -1.4718 -2.1707
53053SOL    HW271139  11.296  12.587   1.376  1.2382 -0.9077  0.0728
53054SOL     OW71140   1.258   3.116   6.043 -0.1796  0.0376 -0.2621
53054SOL    HW171141   1.168   3.137   6.068  0.3785 -0.0402  1.9695
53054SOL    HW271142   1.265   3.021   6.054 -0.5416 -0.4047 -3.0819
53055SOL     OW71143   1.312   9.394  13.245  0.2294  0.1630  0.3835
53055SOL    HW171144   1.326   9.462  13.179 -0.2483 -0.5169 -0.4352
53055SOL    HW271145   1.218   9.399  13.266  0.4700  0.6973  1.3788
53056SOL     OW71146   7.047   2.706   7.901  0.1600  0.0986 -0.5539
53056SOL    HW171147   7.141   2.692   7.913  0.0441 -0.3676 -0.1382
53056SOL    HW271148   7.019   2.634   7.844 -0.3794 -1.2980  1.3234
53057SOL     OW71149  12.948   2.432   0.055  0.2681 -0.2639 -0.0280
53057SOL    HW171150  12.906   2.430   0.141 -0.2975  1.1941 -0.2501
53057SOL    HW271151  13.000   2.351   0.053  1.3403  0.2880  2.2036
53058SOL     OW71152   6.401  13.298  10.944  0.8368 -0.3710  0.5257
53058SOL    HW171153   6.316  13.336  10.926  0.8255 -0.3422  0.6383
53058SOL    HW271154   6.428  13.257  10.862  0.0938 -1.5874  0.8532
53059SOL     OW71155   9.105   4.560   5.371  0.3565  0.6106 -0.5330
53059SOL    HW171156   9.166   4.507   5.320 -0.1476  1.7389 -2.4004
53059SOL    HW271157   9.041   4.498   5.404  1.6839 -0.3970  0.2894
53060SOL     OW71158  10.859   5.082  13.027 -0.0254 -0.2560 -0.2996
53060SOL    HW171159  10.942   5.126  13.010  0.7985 -1.9948 -1.0159
53060SOL    HW271160  10.817   5.076  12.942 -0.6634  0.1429 -0.0198
53061SOL     OW71161   5.788   8.045   4.443  0.0150  0.0059 -0.2456
53061SOL    HW171162   5.778   8.136   4.471  2.6641  0.3009 -0.0068
53061SOL    HW271163   5.844   8.005   4.510  0.9526 -1.1121 -1.6184
53062SOL     OW71164   0.770  10.338   0.726 -0.2595  0.0043 -0.0038
53062SOL    HW171165   0.864  10.321   0.726 -0.7098 -2.9117 -0.5344
53062SOL    HW271166   0.744  10.332   0.818 -0.2678 -1.7077 -0.0895
53063SOL     OW71167   2.928   1.634   5.243  0.6889 -0.4227  0.9987
53063SOL    HW171168   2.983   1.575   5.192 -0.1441  0.3946 -0.9414
53063SOL    HW271169   2.987   1.705   5.268  0.6620  0.2379 -0.7014
53064SOL     OW71170   8.882   8.523   0.711 -0.0903 -0.2451 -0.2938
53064SOL    HW171171   8.898   8.589   0.777  2.0775 -0.6501 -0.3371
53064SOL    HW271172   8.969   8.490   0.688 -0.9520 -1.7169 -1.6927
53065SOL     OW71173  11.948   6.596  12.958  0.1095 -0.0313 -0.3681
53065SOL    HW171174  11.878   6.643  12.913  1.3475  1.8067 -0.4974
53065SOL    HW271175  11.949   6.509  12.917 -0.8698  0.5260 -1.6506
53066SOL     OW71176   7.097   8.709   4.054 -0.2107 -0.1555  0.0472
53066SOL    HW171177   7.165   8.642   4.045 -1.9140 -2.2749  1.7163
53066SOL    HW271178   7.140   8.782   4.098  0.9099 -1.6396  1.5212
53067SOL     OW71179   4.089   5.977   2.421  0.2004 -0.2981 -0.2958
53067SOL    HW171180   3.997   5.998   2.404 -0.5276 -1.9826  1.2526
53067SOL    HW271181   4.116   6.040   2.488  0.1604  0.1667 -0.7149
53068SOL     OW71182  13.429  13.194  12.893 -0.1754 -0.3383 -0.0190
53068SOL    HW171183  13.447  13.230  12.980  1.2733  3.3016 -1.5970
53068SOL    HW271184  13.494  13.125  12.882 -0.6899 -1.2137  1.8783
53069SOL     OW71185  10.555  10.631   1.188 -0.0490  0.1474 -0.3333
53069SOL    HW171186  10.627  10.692   1.203 -0.3255  0.5918 -0.7566
53069SOL    HW271187  10.476  10.684   1.198 -0.3305 -0.3890  0.3704
53070SOL     OW71188   6.660  10.261   7.313  0.5668  0.0185  0.1544
53070SOL    HW171189   6.645  10.327   7.245 -0.8909 -0.6417 -0.2094
53070SOL    HW271190   6.611  10.292   7.389 -0.4678 -0.8006 -0.1470
53071SOL     OW71191   5.722   7.461   2.338 -0.2113 -0.3306  0.0477
53071SOL    HW171192   5.761   7.535   2.291  0.5279 -0.1455  0.9241
53071SOL    HW271193   5.790   7.432   2.399 -1.2059 -0.4400  1.1429
53072SOL     OW71194   8.788  11.656  10.657  0.4409 -0.2032 -0.1879
53072SOL    HW171195   8.881  11.665  10.634  0.9120 -0.6877  1.3461
53072SOL    HW271196   8.751  11.743  10.640  1.6476  0.5998  0.9789
53073SOL     OW71197   8.962   3.240   5.542  0.6404 -0.6907  0.3129
53073SOL    HW171198   8.968   3.178   5.469  1.0461 -1.5408  1.0517
53073SOL    HW271199   9.002   3.194   5.616 -0.2993 -0.0784  1.2246
53074SOL     OW71200   9.426   5.178   1.834  0.3586  0.1730  0.3846
53074SOL    HW171201   9.398   5.089   1.815 -0.0351  0.1169  1.1718
53074SOL    HW271202   9.444   5.177   1.928 -0.9037  1.2422  0.6674
53075SOL     OW71203   8.910   3.433   6.433 -0.4844 -0.4028  0.4001
53075SOL    HW171204   8.954   3.489   6.368 -0.6937 -2.1148 -1.3128
53075SOL    HW271205   8.834   3.485   6.461 -0.6891  0.2091 -1.1483
53076SOL     OW71206  12.279   8.250  10.358  0.6062 -0.2485 -0.4853
53076SOL    HW171207  12.190   8.253  10.324  0.6279  0.5625 -0.4896
53076SOL    HW271208  12.269   8.251  10.453  0.5488 -2.4072 -0.4332
53077SOL     OW71209  11.598   0.225   2.730  0.2708  0.0016  0.3663
53077SOL    HW171210  11.607   0.309   2.775  0.3689  0.7521 -0.9950
53077SOL    HW271211  11.644   0.237   2.646  0.0233 -1.3067  0.0149
53078SOL     OW71212   2.610   7.775   2.464  0.2577 -0.1021 -0.3997
53078SOL    HW171213   2.635   7.747   2.376 -0.0862 -1.7921  0.0071
53078SOL    HW271214   2.558   7.703   2.499 -2.8048  2.0075 -0.1448
53079SOL     OW71215   4.114   4.417   4.575 -0.0900 -0.4778  0.5707
53079SOL    HW171216   4.178   4.350   4.553  1.5751  0.9628  0.7636
53079SOL    HW271217   4.146   4.455   4.657 -0.8848  0.6361  0.3943
53080SOL     OW71218   3.659   1.635   3.237  0.2030  0.0343 -0.6252
53080SOL    HW171219   3.705   1.557   3.269  1.1891 -0.4130 -2.9132
53080SOL    HW271220   3.708   1.661   3.159 -0.9753  2.1071 -0.7411
53081SOL     OW71221  10.708   6.590  12.086  0.8374 -0.3076 -0.1452
53081SOL    HW171222  10.791   6.576  12.040 -0.0992 -0.1181 -1.9737
53081SOL    HW271223  10.651   6.519  12.056 -0.1230  0.4017 -0.0471
53082SOL     OW71224   6.430   6.244   8.773  0.1413  0.0454  0.0985
53082SOL    HW171225   6.364   6.278   8.833  1.0846  0.9310  0.6565
53082SOL    HW271226   6.489   6.191   8.828  0.6553  0.3499 -0.1503
53083SOL     OW71227  14.035   5.519   5.365  0.4835  0.2523  0.5177
53083SOL    HW171228  13.978   5.468   5.423  0.4005  0.4184  0.5847
53083SOL    HW271229  13.976   5.556   5.300  0.5221  0.3772  0.5530
53084SOL     OW71230   7.259   8.418  12.800 -0.0079 -0.0659  0.1035
53084SOL    HW171231   7.282   8.510  12.791 -1.8650  0.4621  0.3635
53084SOL    HW271232   7.253   8.385  12.711  1.5465 -0.2106  0.0215
53085SOL     OW71233   1.588  11.811   9.655 -0.1777  0.8283 -0.4551
53085SOL    HW171234   1.604  11.895   9.610  0.4181  0.3546 -1.1535
53085SOL    HW271235   1.624  11.823   9.743  1.9750  0.5939 -1.2353
53086SOL     OW71236   1.203   6.352  10.621  0.2200  0.3236 -0.2372
53086SOL    HW171237   1.266   6.382  10.555  0.7904  0.6957  0.4629
53086SOL    HW271238   1.252   6.353  10.703 -0.7436  0.8050  0.3550
53087SOL     OW71239  13.917   8.675   1.850 -0.4120 -0.2042  0.2366
53087SOL    HW171240  13.958   8.746   1.800 -0.1411  0.8652  1.8797
53087SOL    HW271241  13.979   8.603   1.845 -0.1601  0.0546 -0.5384
53088SOL     OW71242  12.363   2.919   4.019 -1.2826 -0.5911  0.2993
53088SOL    HW171243  12.279   2.933   3.975  0.1702 -0.9296 -2.8655
53088SOL    HW271244  12.390   2.831   3.992  0.9001  0.2074 -0.3640
53089SOL     OW71245  10.016  13.156  13.122  1.0844 -0.0789  0.4508
53089SOL    HW171246  10.068  13.102  13.182 -0.4477 -2.5498 -0.2960
53089SOL    HW271247   9.932  13.169  13.168  1.1456  1.0519  0.2786
53090SOL     OW71248   5.829  12.758   6.843  0.0719 -0.1986 -0.5193
53090SOL    HW171249   5.802  12.671   6.813 -1.1066  0.3711 -1.1936
53090SOL    HW271250   5.771  12.776   6.917  2.6354 -1.3917  1.9516
53091SOL     OW71251  10.142   1.376   7.720 -0.4022  0.0267 -0.2166
53091SOL    HW171252  10.119   1.290   7.683 -2.3010  0.0614  0.7725
53091SOL    HW271253  10.076   1.391   7.787  0.2674  2.0122  0.0420
53092SOL     OW71254   3.106  11.097   1.119 -0.1751 -0.4419  0.1491
53092SOL    HW171255   3.162  11.085   1.041 -1.7638 -0.3167 -1.0482
53092SOL    HW271256   3.167  11.124   1.188  1.1704  0.1967 -1.2357
53093SOL     OW71257   9.101   5.055  13.608 -0.3591 -0.3767  0.1155
53093SOL    HW171258   9.049   5.116  13.660  1.7561  0.7628  1.0422
53093SOL    HW271259   9.152   5.006  13.672  0.6367 -0.5502 -0.7823
53094SOL     OW71260   6.353  11.740   4.184 -0.3874  0.0023 -0.4954
53094SOL    HW171261   6.259  11.734   4.169 -0.3867 -0.4775 -0.3395
53094SOL    HW271262   6.382  11.815   4.132 -0.7648 -0.1818 -0.9673
53095SOL     OW71263   9.163   8.017   1.707  0.0007 -0.0156 -0.2609
53095SOL    HW171264   9.176   8.099   1.756 -1.6282  0.7053 -0.9770
53095SOL    HW271265   9.082   8.031   1.658  1.5012 -0.6879 -3.1658
53096SOL     OW71266   9.631  10.535   9.070 -0.4715 -0.3089  0.1571
53096SOL    HW171267   9.714  10.545   9.116 -0.1463  0.7542 -0.6151
53096SOL    HW271268   9.608  10.624   9.042 -1.7223 -0.6285  0.1039
53097SOL     OW71269   8.308   5.479  13.912 -0.6116 -0.0528 -0.3347
53097SOL    HW171270   8.350   5.398  13.940 -0.1439  1.0125  2.3879
53097SOL    HW271271   8.223   5.479  13.957 -1.1911  0.3525 -1.3914
53098SOL     OW71272   1.739   5.761   8.800  0.2782  0.0278  0.0998
53098SOL    HW171273   1.678   5.742   8.729  0.6933  1.9213 -0.8110
53098SOL    HW271274   1.686   5.811   8.863  0.8836  1.8872 -0.8044
53099SOL     OW71275   1.616   0.011  11.643  0.0995  1.3277 -0.2303
53099SOL    HW171276   1.603   0.101  11.674 -0.4833  1.3887 -0.6274
53099SOL    HW271277   1.669  -0.031  11.711 -1.9779  1.1567  1.4030
53100SOL     OW71278   1.871  12.533   5.984 -0.1504  0.3016 -0.3453
53100SOL    HW171279   1.958  12.565   6.009 -0.1676 -0.4129  0.6866
53100SOL    HW271280   1.868  12.444   6.018 -0.8494 -0.0973 -1.4163
53101SOL     OW71281   3.622   1.942   5.364  0.1180  0.0368  0.6535
53101SOL    HW171282   3.647   1.870   5.421 -0.4955  0.3900  1.3890
53101SOL    HW271283   3.600   2.014   5.424 -1.4318  0.1247  0.0237
53102SOL     OW71284   6.548   8.996  11.355  0.2225 -0.0056  0.0286
53102SOL    HW171285   6.503   9.058  11.297  0.9066  0.7981  0.3482
53102SOL    HW271286   6.526   8.910  11.318  1.7772  0.5038 -2.3003
53103SOL     OW71287   2.707  11.492   8.154  0.0946 -0.1829 -0.5184
53103SOL    HW171288   2.646  11.447   8.213  1.9549 -1.9933  0.1122
53103SOL    HW271289   2.707  11.439   8.074 -0.8423  1.1242 -1.4488
53104SOL     OW71290  10.439   6.912  12.418 -0.4017 -0.5083  0.5727
53104SOL    HW171291  10.487   6.846  12.368 -3.3300 -1.5763 -1.1190
53104SOL    HW271292  10.347   6.886  12.409 -1.6280  3.1563  0.8396
53105SOL     OW71293  10.985   9.873  12.008  0.2028  0.7257  0.2138
53105SOL    HW171294  10.957   9.785  12.035  1.1440  0.1434 -0.6272
53105SOL    HW271295  10.917   9.931  12.040 -0.2903 -0.2841  1.0508
53106SOL     OW71296   3.597   5.740   5.944 -0.3801  0.4721 -0.2312
53106SOL    HW171297   3.546   5.665   5.915 -0.5943  0.7246 -0.5176
53106SOL    HW271298   3.584   5.806   5.876 -0.7275  1.0044  0.3430
53107SOL     OW71299   9.799   7.912   3.798  0.6319  0.3113  0.2240
53107SOL    HW171300   9.823   7.994   3.841 -1.1684  0.6993  0.5545
53107SOL    HW271301   9.860   7.847   3.834 -0.0418  0.8656  2.4528
53108SOL     OW71302  11.018  10.865   2.747 -0.4523  0.2031 -0.0944
53108SOL    HW171303  11.093  10.885   2.802 -0.3500 -0.8872  0.1770
53108SOL    HW271304  10.954  10.827   2.806 -0.3021 -1.0831 -0.7218
53109SOL     OW71305   9.933   7.884   7.800 -0.5059  0.6045 -0.1018
53109SOL    HW171306   9.876   7.810   7.779  0.1187  0.1530 -0.2214
53109SOL    HW271307   9.876   7.945   7.848 -1.3349  0.5908 -1.0426
53110SOL     OW71308   8.543   3.363  13.087  0.0493 -0.1613 -0.0400
53110SOL    HW171309   8.464   3.381  13.139 -0.1269 -1.9465  0.4079
53110SOL    HW271310   8.512   3.306  13.017  0.7466  0.0953 -0.5633
53111SOL     OW71311   2.204  10.213   1.452 -0.1466 -0.1094  0.0040
53111SOL    HW171312   2.162  10.128   1.442  0.4108 -0.4953  0.8220
53111SOL    HW271313   2.151  10.259   1.518 -0.4833  0.2078 -0.4816
53112SOL     OW71314   3.089  13.123   0.227  0.3421  0.3907 -0.0273
53112SOL    HW171315   3.038  13.194   0.266  0.1326  0.9500 -1.2784
53112SOL    HW271316   3.180  13.144   0.247  0.2200  0.4402  0.5054
53113SOL     OW71317   4.789   3.557   3.724  0.3625 -0.5876 -0.3974
53113SOL    HW171318   4.856   3.615   3.760 -0.2198  1.0817 -1.8686
53113SOL    HW271319   4.715   3.568   3.782  0.9929 -1.6362  0.6343
53114SOL     OW71320   9.345   8.038   4.563 -0.8610 -0.0374  0.4355
53114SOL    HW171321   9.379   8.118   4.603 -1.5491  0.1481  0.6665
53114SOL    HW271322   9.282   8.069   4.498 -0.2114 -0.3612 -0.3690
53115SOL     OW71323  10.501   8.352   8.630  0.0027  0.0534 -0.1319
53115SOL    HW171324  10.408   8.374   8.639 -0.0599 -0.9317  2.2138
53115SOL    HW271325  10.546   8.435   8.645 -0.4602  0.2801  0.0448
53116SOL     OW71326   5.957   1.023  13.165  0.1527  0.3862 -0.2804
53116SOL    HW171327   5.867   1.012  13.136  0.0749 -0.1162  0.1415
53116SOL    HW271328   5.987   0.935  13.185  1.2468  0.3522 -1.8778
53117SOL     OW71329   4.793   3.759   0.531 -0.0003 -0.0704  0.2527
53117SOL    HW171330   4.745   3.706   0.468 -0.3007 -0.4513  0.7893
53117SOL    HW271331   4.885   3.750   0.505 -0.3393  2.4523 -2.1242
53118SOL     OW71332   8.487  11.974  12.772 -0.5049  0.2105 -0.3625
53118SOL    HW171333   8.536  11.991  12.691  1.0245 -0.0396  0.4896
53118SOL    HW271334   8.409  11.926  12.742 -0.7225  1.3950 -1.8357
53119SOL     OW71335   6.220   7.216   7.785 -0.1140 -0.0247 -0.3988
53119SOL    HW171336   6.194   7.132   7.748  0.0407 -1.1978  1.9506
53119SOL    HW271337   6.315   7.218   7.777 -0.2635  1.0321 -2.5333
53120SOL     OW71338  13.880  10.852   9.312 -0.5291 -1.1210  0.1226
53120SOL    HW171339  13.954  10.836   9.370 -0.8003  0.6687  1.0235
53120SOL    HW271340  13.803  10.821   9.360 -0.7902  0.6446  0.9129
53121SOL     OW71341  10.897  12.292   8.539 -0.1652  0.2338  0.4032
53121SOL    HW171342  10.846  12.217   8.510 -1.7761  1.6747 -0.6931
53121SOL    HW271343  10.915  12.274   8.631  0.2448 -1.8657 -0.0409
53122SOL     OW71344   1.000   7.811   7.281 -0.1570 -0.5281  0.1339
53122SOL    HW171345   1.026   7.893   7.322  1.1094 -0.6157 -0.4325
53122SOL    HW271346   0.910   7.797   7.309 -1.2054  2.1760 -1.5441
53123SOL     OW71347   0.111   0.862   5.321 -0.3879 -0.1371 -0.2446
53123SOL    HW171348   0.028   0.892   5.357  1.0068  2.8367  0.8474
53123SOL    HW271349   0.149   0.808   5.390 -0.6678 -0.1074 -0.0665
53124SOL     OW71350   2.634   5.994   7.107  0.0816 -0.7017  0.1552
53124SOL    HW171351   2.712   5.940   7.120  1.7121  1.4697 -0.1186
53124SOL    HW271352   2.666   6.074   7.065 -2.5662 -0.4449 -1.6051
53125SOL     OW71353  13.370  13.858   7.798  0.0401  0.0535 -0.4629
53125SOL    HW171354  13.422  13.799   7.744  1.4715 -0.0041  0.9084
53125SOL    HW271355  13.383  13.944   7.758  1.5557  0.1052  0.0819
53126SOL     OW71356   5.308   5.550   3.002 -0.2252 -0.2844 -0.2954
53126SOL    HW171357   5.398   5.539   2.973 -1.0134 -0.8061 -2.7259
53126SOL    HW271358   5.294   5.645   3.003  0.5140 -0.1675  0.7583
53127SOL     OW71359  11.605   1.472   1.248  0.3339 -0.5803  0.3361
53127SOL    HW171360  11.659   1.393   1.248  0.2973 -0.6047  0.1382
53127SOL    HW271361  11.524   1.446   1.290  0.1518 -0.7629 -0.1224
53128SOL     OW71362   2.038   5.061   3.543  0.5234 -0.2509 -0.2648
53128SOL    HW171363   2.030   5.156   3.532  1.1249 -0.1422  0.2028
53128SOL    HW271364   2.057   5.028   3.455  0.7122  0.1107 -0.3604
53129SOL     OW71365   4.584   9.068   2.501  0.1150 -0.4411 -0.4147
53129SOL    HW171366   4.511   9.066   2.563 -0.2610  0.1633 -0.8285
53129SOL    HW271367   4.560   9.004   2.433 -0.1714 -0.0361 -0.6998
53130SOL     OW71368  12.086  13.169   8.252 -0.2843 -0.0097 -0.1654
53130SOL    HW171369  12.103  13.130   8.166  0.9033 -0.6311  0.3368
53130SOL    HW271370  12.173  13.180   8.291 -0.8068  0.3749  0.9196
53131SOL     OW71371  13.045  12.316  12.823 -0.3125  0.5760 -0.2013
53131SOL    HW171372  13.054  12.352  12.911 -2.0509 -2.3353  1.3107
53131SOL    HW271373  12.971  12.364  12.785 -2.3317 -0.9221  1.6067
53132SOL     OW71374  10.918   2.307   9.810 -0.1733  0.7302 -0.2033
53132SOL    HW171375  10.947   2.220   9.836  1.1794  0.8539 -1.1371
53132SOL    HW271376  10.831   2.294   9.772  0.5142 -0.4523 -1.4837
53133SOL     OW71377   3.323   2.971   9.549 -0.0458 -0.3409  0.3409
53133SOL    HW171378   3.293   2.881   9.543 -1.3818  0.0925  0.1248
53133SOL    HW271379   3.253   3.022   9.508  0.0037  0.9059  1.7084
53134SOL     OW71380   0.361  11.308   5.314 -0.3342 -0.3013  0.5479
53134SOL    HW171381   0.275  11.309   5.356 -0.3694 -0.0352  0.4688
53134SOL    HW271382   0.360  11.230   5.259 -1.9250  1.6160 -2.3796
53135SOL     OW71383  12.203   6.165   4.828  0.2280 -0.1892 -0.3119
53135SOL    HW171384  12.180   6.160   4.921 -0.2360  0.5516 -0.3792
53135SOL    HW271385  12.118   6.169   4.783  0.4536 -0.2611 -0.7469
53136SOL     OW71386   2.969  13.414  12.522  0.1547  0.3020 -0.2230
53136SOL    HW171387   3.047  13.465  12.545  1.5882 -1.9170  0.2109
53136SOL    HW271388   2.950  13.363  12.601 -1.1544  0.0801 -0.6563
53137SOL     OW71389  11.674   8.489   2.188 -0.5951  0.1120  0.0971
53137SOL    HW171390  11.690   8.440   2.269 -0.9719 -0.9239 -0.4352
53137SOL    HW271391  11.582   8.517   2.196 -0.5703  0.1867  0.1182
53138SOL     OW71392   5.549   5.161   1.259 -0.3643  0.0784  0.5045
53138SOL    HW171393   5.519   5.221   1.327  1.1127  0.0692  1.2138
53138SOL    HW271394   5.597   5.092   1.307  1.2437  0.4097 -0.5367
53139SOL     OW71395   0.571  13.589   1.617 -0.0895  0.2392  0.0985
53139SOL    HW171396   0.522  13.668   1.593  0.7577  0.9030  0.4670
53139SOL    HW271397   0.661  13.609   1.590 -0.1031 -1.1663 -1.0789
53140SOL     OW71398   8.627   7.119   7.839 -0.5160 -0.0067  0.5645
53140SOL    HW171399   8.616   7.056   7.768  0.8754  0.5705 -0.2200
53140SOL    HW271400   8.712   7.160   7.821 -0.7010  1.0248  1.8851
53141SOL     OW71401  11.886   4.616   5.451 -0.0959 -0.2281 -0.0344
53141SOL    HW171402  11.973   4.654   5.463  0.5462 -1.5014 -0.4277
53141SOL    HW271403  11.829   4.690   5.432  1.0344  0.5489 -0.4646
53142SOL     OW71404   6.247   9.671   0.847 -1.1631  0.8156  0.3119
53142SOL    HW171405   6.271   9.589   0.891 -0.0629  0.7267 -0.3998
53142SOL    HW271406   6.172   9.704   0.896 -2.6257 -1.3957 -0.2959
53143SOL     OW71407   9.626   0.364   5.242  0.8827  0.0558 -0.2410
53143SOL    HW171408   9.718   0.379   5.219  0.4165  1.2687 -1.3832
53143SOL    HW271409   9.593   0.449   5.270  0.2515 -0.5040  0.7995
53144SOL     OW71410   0.109   2.201   5.271 -0.5587  0.2314 -0.2871
53144SOL    HW171411   0.123   2.244   5.356 -1.3236 -0.8058  0.3797
53144SOL    HW271412   0.126   2.109   5.288 -0.0704  0.0988 -1.4362
53145SOL     OW71413  13.224  12.059   2.141  0.4430 -0.0092 -0.3675
53145SOL    HW171414  13.309  12.074   2.100  0.6735  0.5974  0.3156
53145SOL    HW271415  13.243  12.054   2.234 -0.2064 -0.4070 -0.2507
53146SOL     OW71416  13.871  13.305   9.496 -0.0338 -0.5934  0.7355
53146SOL    HW171417  13.892  13.251   9.420 -0.1818 -0.9761  0.9607
53146SOL    HW271418  13.781  13.281   9.519 -0.5122  0.5737  0.1624
53147SOL     OW71419   3.294  13.598   1.042  0.1852 -0.2310  0.1853
53147SOL    HW171420   3.234  13.623   1.112  0.2399 -0.3766  0.2856
53147SOL    HW271421   3.246  13.533   0.990 -0.4834  1.0964 -0.9058
53148SOL     OW71422  12.853   4.130   9.417  0.7282 -1.0422 -0.2558
53148SOL    HW171423  12.796   4.087   9.481  0.1428  0.9185  0.6317
53148SOL    HW271424  12.796   4.146   9.342  0.4782 -0.4101  0.0549
53149SOL     OW71425   6.429  11.161   8.885 -0.1474  0.2115  0.3417
53149SOL    HW171426   6.518  11.185   8.909 -0.3807  0.3120  1.1556
53149SOL    HW271427   6.383  11.245   8.878 -0.3491  0.1271  0.6410
53150SOL     OW71428   9.973   7.878   0.711 -0.1527 -0.7070 -0.0227
53150SOL    HW171429  10.052   7.932   0.710  0.1322 -1.0319  1.6187
53150SOL    HW271430   9.953   7.862   0.619 -0.0707  1.9151 -0.5743
53151SOL     OW71431  12.201   7.368   1.036  0.2927  0.7662  0.6163
53151SOL    HW171432  12.180   7.389   0.945  1.8610 -1.0038 -0.2110
53151SOL    HW271433  12.274   7.426   1.058  1.4348 -0.3605 -0.0653
53152SOL     OW71434   6.429   9.070   6.507  0.9704  0.1808 -0.4057
53152SOL    HW171435   6.498   9.011   6.538 -0.1941 -0.3693  1.2713
53152SOL    HW271436   6.371   9.014   6.455 -1.1531 -0.7713  2.6759
53153SOL     OW71437   6.663   0.438   2.183  0.6650  0.2002 -0.2806
53153SOL    HW171438   6.622   0.467   2.265 -0.3674  0.3830 -0.8366
53153SOL    HW271439   6.616   0.487   2.115  1.0631 -0.4311 -1.0259
53154SOL     OW71440  13.159  13.061   9.389  0.1376 -0.3294  0.4225
53154SOL    HW171441  13.135  13.142   9.434  2.0355  0.4072  0.1768
53154SOL    HW271442  13.191  13.090   9.303 -1.8580 -1.5859 -0.8503
53155SOL     OW71443   5.370   9.491   2.151 -0.3337 -0.0811 -0.0278
53155SOL    HW171444   5.343   9.490   2.243 -0.3866  0.5151 -0.0341
53155SOL    HW271445   5.334   9.411   2.115  1.3828 -1.3720  0.9452
53156SOL     OW71446  13.183   0.736   3.280 -0.4519 -0.2243 -0.1511
53156SOL    HW171447  13.231   0.804   3.327 -1.9277  0.6899  0.0746
53156SOL    HW271448  13.243   0.661   3.279 -0.0231 -0.0120  2.4296
53157SOL     OW71449   1.304   2.810   0.525  0.3198  0.0601  0.1618
53157SOL    HW171450   1.373   2.778   0.583  1.3624  0.4096 -0.8732
53157SOL    HW271451   1.348   2.870   0.465 -0.3819 -1.5550 -2.1081
53158SOL     OW71452   9.622   0.287   8.732  0.1180  0.3269  0.2768
53158SOL    HW171453   9.594   0.264   8.820 -2.6781  0.5032 -0.4794
53158SOL    HW271454   9.575   0.368   8.712 -1.5622 -1.1343 -2.3220
53159SOL     OW71455   5.827   4.303  13.139 -0.0496  0.2606 -0.3687
53159SOL    HW171456   5.844   4.318  13.232  0.7241  0.6600 -0.5671
53159SOL    HW271457   5.734   4.281  13.135  0.0579 -0.4609  0.5855
53160SOL     OW71458   6.856   4.745  12.012 -0.4094 -0.2536  0.5479
53160SOL    HW171459   6.857   4.841  12.010 -0.8076 -0.2564  0.0112
53160SOL    HW271460   6.785   4.720  11.954 -0.3450 -0.8801  0.7260
53161SOL     OW71461   5.178  10.359   0.614 -0.2980 -0.2826 -0.2152
53161SOL    HW171462   5.086  10.384   0.617 -0.7488 -1.8669  0.1963
53161SOL    HW271463   5.177  10.263   0.615  1.3347 -0.3424 -0.9009
53162SOL     OW71464   6.517   7.214   6.560 -0.8568 -0.5679 -0.5007
53162SOL    HW171465   6.470   7.264   6.627 -0.3353  1.7800 -1.7762
53162SOL    HW271466   6.450   7.190   6.496 -0.7426  0.6982 -1.1184
53163SOL     OW71467   5.128   8.802  12.257  0.2030 -0.4904 -0.0214
53163SOL    HW171468   5.032   8.801  12.252  0.0190 -3.3160  1.7012
53163SOL    HW271469   5.155   8.862  12.187 -2.8181  1.8416  0.6078
53164SOL     OW71470   1.725   0.463  11.163  0.5702  0.3074  0.3683
53164SOL    HW171471   1.658   0.529  11.182  0.7041 -0.0457  2.2884
53164SOL    HW271472   1.792   0.510  11.114 -1.7915  0.2923 -3.2090
53165SOL     OW71473   8.201   3.425   9.284  0.2226  0.4948  0.0149
53165SOL    HW171474   8.170   3.516   9.289 -3.0463 -0.3494 -1.7397
53165SOL    HW271475   8.147   3.379   9.348  1.5688 -0.3187  0.5923
53166SOL     OW71476   0.279   7.183   2.916  0.0061  0.3118 -0.0953
53166SOL    HW171477   0.231   7.164   2.996 -1.1103 -2.0846 -1.2025
53166SOL    HW271478   0.370   7.160   2.936 -0.0833  0.6741  0.7438
53167SOL     OW71479   0.086   2.113  12.417  0.3590  0.6706  0.5798
53167SOL    HW171480   0.158   2.084  12.473  0.3600 -0.5868 -0.0536
53167SOL    HW271481   0.035   2.034  12.401 -1.3087  1.5795  1.2098
53168SOL     OW71482   9.769   8.138   7.888  0.2418 -0.2939  0.0680
53168SOL    HW171483   9.820   8.128   7.968  0.1759  1.6175  0.3890
53168SOL    HW271484   9.700   8.200   7.910  0.8866  1.1826 -1.7116
53169SOL     OW71485   7.118   3.069   7.728 -0.1823  0.4562  0.4520
53169SOL    HW171486   7.034   3.087   7.771  0.2542  0.3508  1.3839
53169SOL    HW271487   7.141   2.981   7.758 -1.1095 -0.7404 -2.0802
53170SOL     OW71488   3.231   1.107  13.512  0.0579  0.1019 -0.4496
53170SOL    HW171489   3.165   1.038  13.511  1.4568 -1.3151 -0.0548
53170SOL    HW271490   3.182   1.188  13.524 -1.4992 -1.0010  0.9904
53171SOL     OW71491   6.442   3.960  12.603 -0.4188 -0.4146 -0.3496
53171SOL    HW171492   6.488   3.996  12.679 -0.6565  0.1774 -0.4789
53171SOL    HW271493   6.363   4.014  12.596  0.6644  1.0191 -2.3629
53172SOL     OW71494   4.610   4.727   6.098  0.1829  0.6113 -0.4459
53172SOL    HW171495   4.622   4.817   6.067 -1.3200  1.3752  1.0588
53172SOL    HW271496   4.589   4.736   6.191  2.3640 -1.4694  0.3443
53173SOL     OW71497   8.516   7.378  13.301  0.1055 -0.3013  0.2971
53173SOL    HW171498   8.421   7.377  13.292  0.2227  1.1792 -2.0727
53173SOL    HW271499   8.532   7.419  13.386 -1.4221  3.0451 -0.8789
53174SOL     OW71500   2.300   5.257  12.594  0.2513 -0.2152 -0.3268
53174SOL    HW171501   2.215   5.299  12.607 -0.4142 -1.6897  0.2420
53174SOL    HW271502   2.323   5.275  12.503 -0.1307  1.1340 -0.1730
53175SOL     OW71503   1.239   6.077   2.932 -0.2952 -0.1488 -0.5386
53175SOL    HW171504   1.242   6.116   2.844  0.5613  0.0142 -0.4480
53175SOL    HW271505   1.230   5.983   2.915  0.9140 -0.2315 -0.8455
53176SOL     OW71506  11.455  13.901  11.282 -0.2830  0.2621 -0.0694
53176SOL    HW171507  11.503  13.939  11.208 -0.7968 -0.4483 -0.7850
53176SOL    HW271508  11.523  13.867  11.340  0.1195  0.6565 -0.3050
53177SOL     OW71509  11.830   3.369   4.618  0.0928 -0.1242 -0.2625
53177SOL    HW171510  11.742   3.355   4.584  0.7222 -0.1732 -1.9233
53177SOL    HW271511  11.819   3.365   4.714 -1.5159 -1.1651 -0.4485
53178SOL     OW71512   3.661  10.669   8.071 -0.0588  0.2846  0.2785
53178SOL    HW171513   3.627  10.630   7.990 -0.2876  2.9203 -0.9994
53178SOL    HW271514   3.755  10.649   8.070 -0.3270 -1.0650  0.2217
53179SOL     OW71515   6.227  11.667   2.756 -0.1133  0.2246 -0.1084
53179SOL    HW171516   6.265  11.742   2.711  1.8649 -1.9714 -2.4206
53179SOL    HW271517   6.144  11.652   2.711  1.7258 -1.7939 -3.2112
53180SOL     OW71518  13.286   1.016   2.759 -0.2516  0.6930 -0.0474
53180SOL    HW171519  13.260   1.107   2.744 -0.1808  0.6819 -0.2406
53180SOL    HW271520  13.353   0.999   2.693 -1.4244 -0.0041 -1.1075
53181SOL     OW71521   0.941   8.326   4.833 -0.1940  1.2767 -0.2662
53181SOL    HW171522   0.924   8.232   4.829  0.2713  0.9442  2.9780
53181SOL    HW271523   1.025   8.336   4.788 -0.4364  0.2262 -1.0007
53182SOL     OW71524  12.321   5.094   9.594  0.5830 -0.3684 -0.0464
53182SOL    HW171525  12.319   5.182   9.633 -0.9624  0.0390 -0.9473
53182SOL    HW271526  12.409   5.087   9.557  0.4864  1.1403 -0.6592
53183SOL     OW71527  13.827   8.316  11.481 -0.1881  0.1433 -0.7821
53183SOL    HW171528  13.760   8.343  11.419 -2.4497 -0.8010  1.0995
53183SOL    HW271529  13.830   8.220  11.474  0.4152  0.1153 -0.2988
53184SOL     OW71530  11.935  10.294  10.164 -0.7325 -0.3611 -0.1122
53184SOL    HW171531  11.957  10.365  10.103 -3.0640  0.9533  0.4633
53184SOL    HW271532  11.980  10.217  10.128 -1.7250  0.4066 -3.3230
53185SOL     OW71533  13.217  13.896   1.542 -0.3408 -0.3237  0.0987
53185SOL    HW171534  13.186  13.818   1.588  0.2937 -0.6981 -0.0882
53185SOL    HW271535  13.218  13.964   1.610 -0.7283 -0.5197  0.3063
53186SOL     OW71536   1.740   2.005   5.415 -0.0800  0.4125  0.3331
53186SOL    HW171537   1.813   2.063   5.394 -0.0724  0.3594  0.2134
53186SOL    HW271538   1.738   1.942   5.343  0.6180 -0.4342  1.0247
53187SOL     OW71539  11.746  10.422   7.089  0.6606 -0.5455 -0.6279
53187SOL    HW171540  11.736  10.378   7.004  1.4881  0.3111 -1.1958
53187SOL    HW271541  11.657  10.430   7.122  0.2209 -0.1285 -1.8366
53188SOL     OW71542   3.811   9.388  11.371 -0.0075 -0.2598  0.3827
53188SOL    HW171543   3.803   9.296  11.348 -2.7483 -0.2140  0.8349
53188SOL    HW271544   3.816   9.434  11.287  0.3233 -0.7479  0.1366
53189SOL     OW71545   3.528   2.397   6.967  0.3391 -0.3137  0.6926
53189SOL    HW171546   3.586   2.456   6.918 -1.4834  0.3515 -0.8368
53189SOL    HW271547   3.495   2.451   7.039 -0.8426  0.3813 -0.3401
53190SOL     OW71548  12.372  13.926   9.137 -0.1948  0.4186  0.2451
53190SOL    HW171549  12.360  13.990   9.207 -0.9684 -0.5143  0.9875
53190SOL    HW271550  12.299  13.941   9.077 -0.8655 -0.3173  0.8639
53191SOL     OW71551  11.101   4.658  10.272  0.1325  0.0907 -0.1471
53191SOL    HW171552  11.173   4.682  10.329 -0.1851 -0.0126  0.3064
53191SOL    HW271553  11.049   4.595  10.323  0.6297 -1.1310 -1.0761
53192SOL     OW71554   0.308  13.808   6.590  0.9937 -0.2829 -0.4266
53192SOL    HW171555   0.327  13.893   6.552  0.1990 -0.0725 -0.3644
53192SOL    HW271556   0.390  13.782   6.633  1.2118  0.4824 -0.3738
53193SOL     OW71557   8.456   5.589   0.369  0.4892  0.2235  0.7436
53193SOL    HW171558   8.491   5.502   0.354 -0.1685 -0.3342  2.2160
53193SOL    HW271559   8.386   5.598   0.304  0.9739 -0.0819  0.1709
53194SOL     OW71560  12.336   9.473   0.860  0.0208 -0.0203 -0.2056
53194SOL    HW171561  12.363   9.445   0.948 -1.8499  1.0731  0.7835
53194SOL    HW271562  12.396   9.544   0.838  1.9242 -1.7181 -0.8299
53195SOL     OW71563   7.530   3.091   2.283  0.4558  0.2219 -0.1105
53195SOL    HW171564   7.591   3.019   2.296  0.1879 -0.0189 -0.1569
53195SOL    HW271565   7.456   3.051   2.237  1.6726  1.1470 -3.1150
53196SOL     OW71566   8.070  12.699   4.810 -0.4545  0.1833 -0.1383
53196SOL    HW171567   8.061  12.777   4.864  0.8931  0.4054 -0.1991
53196SOL    HW271568   8.163  12.695   4.789 -0.3101 -1.9810  0.6580
53197SOL     OW71569  11.671   1.079   2.643 -0.1154  0.6963 -0.6908
53197SOL    HW171570  11.702   1.160   2.685 -0.2353  0.0655  0.6846
53197SOL    HW271571  11.746   1.019   2.650 -0.0223  0.6713 -1.7153
53198SOL     OW71572   1.754  10.456  11.398 -0.1878 -0.2764 -0.0575
53198SOL    HW171573   1.839  10.490  11.428  1.1204 -1.8204 -1.7614
53198SOL    HW271574   1.691  10.487  11.463  1.7367  0.6191  1.4756
53199SOL     OW71575   5.040   9.968   2.026 -0.3014  0.1079 -0.5964
53199SOL    HW171576   4.992   9.927   2.098 -2.1797  0.0891 -1.7977
53199SOL    HW271577   5.007   9.924   1.947  1.4556  0.3549 -1.5329
53200SOL     OW71578   9.030   7.393   1.793 -0.5529 -0.0453 -0.2312
53200SOL    HW171579   9.006   7.306   1.827  0.1463 -0.3922 -0.6042
53200SOL    HW271580   8.977   7.402   1.714 -1.6779  0.4775  0.5593
53201SOL     OW71581   7.250   0.186   2.474  0.1965 -0.4632 -0.1265
53201SOL    HW171582   7.225   0.250   2.541  0.4203 -0.5457  0.0360
53201SOL    HW271583   7.288   0.113   2.523 -3.1442 -2.2868  0.0307
53202SOL     OW71584   4.517   9.678   1.076 -0.2101 -0.0075  0.6343
53202SOL    HW171585   4.505   9.755   1.021 -0.0579  0.2975  1.0272
53202SOL    HW271586   4.539   9.713   1.163  1.8065 -0.4915  0.3788
53203SOL     OW71587  13.914   2.725   0.943  0.7461  0.5514  0.3597
53203SOL    HW171588  13.888   2.642   0.904  0.9322  0.6871 -0.0659
53203SOL    HW271589  13.894   2.790   0.875 -0.1413  0.9508  0.9814
53204SOL     OW71590   6.056   4.719   9.340  0.1310 -0.6536  0.2019
53204SOL    HW171591   6.125   4.656   9.320 -0.4919 -0.4377 -3.1246
53204SOL    HW271592   6.076   4.795   9.286 -1.9757 -0.0542  0.1731
53205SOL     OW71593   8.252   2.112  12.079 -0.4245 -0.1749 -0.5161
53205SOL    HW171594   8.272   2.054  12.152 -1.0036 -2.0346 -1.7591
53205SOL    HW271595   8.338   2.138  12.044 -0.1546  0.4282  0.5668
53206SOL     OW71596   1.076   6.281   4.123 -0.2209 -0.0992 -0.4525
53206SOL    HW171597   1.080   6.332   4.203 -2.2202  0.1784 -0.4965
53206SOL    HW271598   1.052   6.344   4.055 -0.8247 -0.7358 -0.8455
53207SOL     OW71599  11.654   2.254   9.768  0.0261  0.2799  0.1385
53207SOL    HW171600  11.640   2.260   9.673 -0.7684 -0.5549  0.1934
53207SOL    HW271601  11.572   2.220   9.802  0.8751 -1.0562  0.9338
53208SOL     OW71602   8.734   3.226   6.525  0.0543  0.1862 -0.3552
53208SOL    HW171603   8.663   3.231   6.460 -1.5108  2.6755  1.3837
53208SOL    HW271604   8.805   3.279   6.487 -0.3487  0.5478 -0.6164
53209SOL     OW71605   4.942  12.495  10.072  0.0468 -0.3939  0.1807
53209SOL    HW171606   4.977  12.408  10.094 -1.7202 -1.4640 -0.9539
53209SOL    HW271607   4.875  12.511  10.138  0.1683 -0.0143  0.2134
53210SOL     OW71608   9.030   2.542   8.269  0.0996 -0.2385  0.0320
53210SOL    HW171609   8.944   2.578   8.292  0.5883  1.1752 -0.2234
53210SOL    HW271610   9.040   2.465   8.325 -1.5227 -0.6872 -0.2678
53211SOL     OW71611   2.476   7.857   4.852 -0.2823 -0.2092 -0.0245
53211SOL    HW171612   2.524   7.938   4.868 -0.5710  0.0575 -0.4652
53211SOL    HW271613   2.541   7.798   4.813 -0.4126  0.3256 -1.1116
53212SOL     OW71614  11.535  11.659   2.191 -0.0046 -0.9225  0.3421
53212SOL    HW171615  11.578  11.583   2.154 -1.1966 -0.9905 -0.9863
53212SOL    HW271616  11.595  11.732   2.173  0.4592 -1.3092  0.3081
53213SOL     OW71617   3.612   6.227   3.578  0.2580 -0.4764  0.0140
53213SOL    HW171618   3.569   6.226   3.663  0.7340  0.0134  0.2633
53213SOL    HW271619   3.699   6.262   3.595 -0.0251  0.6977 -0.8613
53214SOL     OW71620  12.204   7.215   5.222  0.0524 -0.2936  0.0874
53214SOL    HW171621  12.296   7.225   5.248  0.2146  0.3342 -0.7036
53214SOL    HW271622  12.159   7.286   5.267 -0.3279 -1.5065  1.7089
53215SOL     OW71623  13.267  10.387   6.877 -0.0262 -0.4074  0.0001
53215SOL    HW171624  13.319  10.467   6.870 -0.8107  0.0048 -1.6184
53215SOL    HW271625  13.329  10.316   6.858  0.2904 -0.0318 -0.3926
53216SOL     OW71626   6.936  12.847   0.573  0.5935 -0.3309  1.0591
53216SOL    HW171627   6.904  12.937   0.581  2.7436  0.5589  0.2718
53216SOL    HW271628   6.951  12.819   0.663  0.3955  0.2951  1.2960
53217SOL     OW71629   2.634   5.501   9.958 -0.3331  0.1000  0.5345
53217SOL    HW171630   2.689   5.556   9.902 -0.9725  0.3977  0.1856
53217SOL    HW271631   2.654   5.412   9.932 -0.9961  0.2453 -0.5573
53218SOL     OW71632   6.052   5.361  13.280 -0.3193 -0.1173  0.0066
53218SOL    HW171633   6.084   5.400  13.361 -0.9644 -1.8120  1.1382
53218SOL    HW271634   5.978   5.416  13.255  1.1239  1.6402 -0.6203
53219SOL     OW71635   4.439  13.670   2.286 -0.4174 -0.0661 -0.3691
53219SOL    HW171636   4.412  13.748   2.334 -0.8575 -0.2707 -0.2781
53219SOL    HW271637   4.494  13.704   2.215  0.8257  0.1843  0.6714
53220SOL     OW71638   3.904   7.923  10.634  0.4334 -0.9382  0.3680
53220SOL    HW171639   3.968   7.874  10.581  0.7353 -0.4209  0.2409
53220SOL    HW271640   3.820   7.903  10.594  0.7483  0.2934 -1.0337
53221SOL     OW71641   5.849  11.032   1.305  0.5232  0.5126 -0.1419
53221SOL    HW171642   5.787  10.980   1.254  0.0267  0.9865 -0.0248
53221SOL    HW271643   5.884  11.096   1.243 -0.6293  1.5708  0.2643
53222SOL     OW71644  10.862  11.421   3.836 -0.2838  0.1615  0.4521
53222SOL    HW171645  10.877  11.497   3.892 -1.1243  0.2085  0.6246
53222SOL    HW271646  10.856  11.347   3.896 -3.2208  0.4842  0.6614
53223SOL     OW71647   0.800   2.633   9.886 -0.3104 -0.6581 -0.5202
53223SOL    HW171648   0.774   2.552   9.930 -1.4296  0.4956  1.1057
53223SOL    HW271649   0.769   2.624   9.796  0.5965 -2.4505 -0.6895
53224SOL     OW71650   8.313  11.630  12.550 -0.5909  0.5672  0.6009
53224SOL    HW171651   8.267  11.694  12.604 -0.0381  0.6743  0.9479
53224SOL    HW271652   8.244  11.575  12.515 -0.8507 -0.7216  2.9443
53225SOL     OW71653  13.854  13.918   8.600 -0.1628 -0.1228  0.0207
53225SOL    HW171654  13.892  13.948   8.682 -0.9273 -0.0588  0.3600
53225SOL    HW271655  13.870  13.823   8.599 -1.2408 -0.3402  0.8559
53226SOL     OW71656  11.394   9.513  11.995  0.0197 -0.0979 -0.0405
53226SOL    HW171657  11.348   9.486  12.075 -0.7202  0.6750 -0.1928
53226SOL    HW271658  11.340   9.582  11.958  0.9088  0.2980 -0.6513
53227SOL     OW71659  11.580   4.509  11.055 -0.1259 -0.0140 -0.5123
53227SOL    HW171660  11.531   4.553  10.986 -0.0223  0.7443 -0.1068
53227SOL    HW271661  11.514   4.463  11.106 -0.6954  2.3393  1.0396
53228SOL     OW71662  11.872  12.664   0.918  0.8611 -0.4279  0.1297
53228SOL    HW171663  11.888  12.595   0.854 -0.3610 -2.7802  2.1635
53228SOL    HW271664  11.949  12.664   0.974  0.7060 -0.3943  0.3451
53229SOL     OW71665   5.461  11.713  13.561  0.5013  0.2154 -0.3227
53229SOL    HW171666   5.502  11.665  13.632 -0.4914  0.1993  0.2493
53229SOL    HW271667   5.493  11.803  13.571 -0.7577  0.5470  1.0539
53230SOL     OW71668   2.600   2.545   4.563  0.0238  0.1235  0.6765
53230SOL    HW171669   2.692   2.548   4.536 -0.4820 -0.9725 -1.3761
53230SOL    HW271670   2.584   2.632   4.600  1.3792  1.0524 -0.7591
53231SOL     OW71671   9.697   7.791   7.713 -0.6312  0.2830 -0.1224
53231SOL    HW171672   9.657   7.833   7.637  0.7820  1.2015 -0.3922
53231SOL    HW271673   9.770   7.742   7.676 -0.2897  0.2632  0.5797
53232SOL     OW71674  11.434   1.081  10.652  0.2686 -0.7124 -0.3411
53232SOL    HW171675  11.512   1.131  10.630 -0.2456  0.5046  0.4813
53232SOL    HW271676  11.362   1.129  10.612 -0.1488 -1.3253 -0.3472
53233SOL     OW71677   9.752   5.388   2.119 -0.2439 -0.0654  0.0692
53233SOL    HW171678   9.682   5.443   2.156  0.7215  0.8593  0.5676
53233SOL    HW271679   9.736   5.390   2.025 -2.9330 -2.7130  0.2974
53234SOL     OW71680  10.748   5.616   6.162  0.4838 -0.7389  0.0074
53234SOL    HW171681  10.791   5.690   6.121  0.0419  0.1050  1.0046
53234SOL    HW271682  10.777   5.619   6.253 -0.7567 -0.8266  0.4270
53235SOL     OW71683  10.857  11.608   4.021  0.1087 -0.2272 -0.6572
53235SOL    HW171684  10.771  11.612   4.065  0.4583  0.5188 -0.0095
53235SOL    HW271685  10.910  11.673   4.068  0.3804  0.8995 -2.4478
53236SOL     OW71686   2.097  12.370   3.428  0.0233  0.0859  0.7471
53236SOL    HW171687   2.117  12.321   3.348  1.5942 -3.0080  2.8141
53236SOL    HW271688   2.032  12.316   3.473 -1.0616  1.9135  1.4834
53237SOL     OW71689   2.160   0.775  11.935  0.0878  0.5214 -0.2436
53237SOL    HW171690   2.221   0.754  11.864  0.6234  0.9896  0.0716
53237SOL    HW271691   2.181   0.713  12.004 -0.6001 -0.0950 -0.5849
53238SOL     OW71692  10.023   0.529   4.159  0.5229  0.3293 -0.1695
53238SOL    HW171693  10.076   0.568   4.090  0.1818  0.5090 -0.3307
53238SOL    HW271694   9.941   0.506   4.117  0.7237 -0.6065 -0.0867
53239SOL     OW71695   9.048   1.971  13.052 -0.0676 -0.1840  0.5528
53239SOL    HW171696   9.098   2.023  13.115  2.4074  0.0315 -1.4355
53239SOL    HW271697   9.074   1.880  13.069 -0.1815 -0.2266  0.5043
53240SOL     OW71698   4.715   4.358   3.581  0.2791  0.7796 -0.4667
53240SOL    HW171699   4.628   4.326   3.557  1.0759 -2.1159  0.0464
53240SOL    HW271700   4.756   4.380   3.497 -0.8180  1.8617 -0.7352
53241SOL     OW71701   9.024  11.539  11.695  0.2839 -0.3170  0.8518
53241SOL    HW171702   8.968  11.617  11.698  0.1600 -0.2039 -1.8711
53241SOL    HW271703   9.113  11.572  11.707 -0.0300 -0.3487  3.9494
53242SOL     OW71704   4.816   1.652  11.744  0.6666  0.1342 -0.2836
53242SOL    HW171705   4.742   1.627  11.799  2.0803 -2.5206  0.5508
53242SOL    HW271706   4.876   1.697  11.804  0.6251  0.5061 -0.5150
53243SOL     OW71707   8.970   5.074  11.876 -0.1670  0.3312 -0.0165
53243SOL    HW171708   8.958   5.050  11.968 -2.2551  1.7674  0.1471
53243SOL    HW271709   9.016   4.999  11.837 -0.9389 -1.1433  1.7605
53244SOL     OW71710  10.870   2.948   3.182  0.2046  0.1030 -0.7066
53244SOL    HW171711  10.945   3.000   3.210 -1.0819  0.5871  2.1891
53244SOL    HW271712  10.890   2.859   3.211 -1.3404  0.6867  2.7088
53245SOL     OW71713   2.042  12.041   0.590 -0.0933 -0.0549 -0.6282
53245SOL    HW171714   2.064  11.957   0.631  0.8162  0.4001 -0.1457
53245SOL    HW271715   2.005  12.093   0.661 -0.0275  0.1823 -0.7668
53246SOL     OW71716  11.144   3.008  10.911 -0.6912 -0.4810  0.3979
53246SOL    HW171717  11.117   2.920  10.888  0.7625 -1.1859  1.2473
53246SOL    HW271718  11.074   3.040  10.969 -0.7634 -1.4330  0.8561
53247SOL     OW71719   8.424  11.867  11.611  0.0085  0.0089  0.0491
53247SOL    HW171720   8.422  11.956  11.576  3.9650  0.8598  1.4148
53247SOL    HW271721   8.500  11.827  11.569  0.1148 -1.6716  1.7271
53248SOL     OW71722   5.283  11.975   9.570  0.7846  0.3901 -0.1968
53248SOL    HW171723   5.198  11.971   9.527  2.2770 -0.7105 -3.3548
53248SOL    HW271724   5.294  11.888   9.609  0.2538  0.7292  0.7338
53249SOL     OW71725   9.844  10.823   5.771 -0.1241  0.0745  0.3735
53249SOL    HW171726   9.935  10.820   5.803 -0.4592  1.3078  1.5661
53249SOL    HW271727   9.847  10.780   5.685  2.0137  1.8779 -0.5579
53250SOL     OW71728   2.325   8.177   5.619  0.1954 -0.1896 -0.0351
53250SOL    HW171729   2.327   8.218   5.532  0.3307 -1.4432 -0.6605
53250SOL    HW271730   2.234   8.183   5.647 -0.0822 -0.7625 -0.7782
53251SOL     OW71731   7.071   1.193   8.698  0.0661 -0.3845 -0.3875
53251SOL    HW171732   7.131   1.205   8.771 -0.4360 -1.3185  0.1965
53251SOL    HW271733   7.116   1.134   8.638  0.0687 -0.4278 -0.3433
53252SOL     OW71734  12.932  13.360  13.617 -0.0673  0.1647 -0.0249
53252SOL    HW171735  12.901  13.359  13.527  1.0944 -0.6317 -0.4340
53252SOL    HW271736  13.001  13.427  13.618  0.8410 -0.7430 -0.0707
53253SOL     OW71737   3.311   1.601   4.012 -0.6269  0.9712 -0.0934
53253SOL    HW171738   3.368   1.526   3.998 -0.5194  0.8454  0.9391
53253SOL    HW271739   3.222   1.565   4.011 -0.5325  0.6385  1.4199
53254SOL     OW71740   4.824  14.036   8.649 -0.1942 -0.2332 -0.0002
53254SOL    HW171741   4.810  13.996   8.735 -1.0417 -0.3940 -0.2003
53254SOL    HW271742   4.877  13.972   8.602 -0.9515 -0.8320 -0.0777
53255SOL     OW71743  12.270   4.031  11.600  0.2509  0.4189  0.4068
53255SOL    HW171744  12.359   4.002  11.617  0.3233  1.2298  1.5478
53255SOL    HW271745  12.216   3.952  11.612  0.7742  0.0065  0.0638
53256SOL     OW71746   3.255  10.893   8.818  0.0423  0.1838  0.1591
53256SOL    HW171747   3.278  10.850   8.736 -0.8232 -1.9992  0.9856
53256SOL    HW271748   3.190  10.958   8.794 -0.8808 -1.0574 -0.7898
53257SOL     OW71749   1.444  10.660   7.584  0.0627 -0.2708  0.0231
53257SOL    HW171750   1.410  10.737   7.539 -0.2514 -0.9094 -0.8481
53257SOL    HW271751   1.366  10.614   7.615 -0.0457 -2.2847 -2.8614
53258SOL     OW71752  12.051   7.941   8.477 -0.0728 -0.1942 -0.1923
53258SOL    HW171753  12.109   8.013   8.452 -1.9472  1.0283 -1.2737
53258SOL    HW271754  11.986   7.982   8.534 -0.9185 -1.1230 -0.4649
53259SOL     OW71755   6.577   4.270  10.015  0.5775 -0.7392 -0.0374
53259SOL    HW171756   6.500   4.261   9.959  1.7475 -0.6149 -1.7732
53259SOL    HW271757   6.557   4.218  10.092 -0.8792 -1.4561 -0.8457
53260SOL     OW71758  11.573   2.033   3.071  0.8472  0.4654  0.2475
53260SOL    HW171759  11.482   2.038   3.042  1.3603 -0.7452 -1.6758
53260SOL    HW271760  11.605   2.123   3.063  0.4121  0.5217 -1.1437
53261SOL     OW71761   9.315   2.859   9.730  0.2052  0.2777 -1.1152
53261SOL    HW171762   9.246   2.802   9.762  0.2646  0.3519 -0.8575
53261SOL    HW271763   9.396   2.816   9.758  0.2357  1.5227  0.8801
53262SOL     OW71764   2.908  10.853   8.884  0.2965  0.0931 -0.2167
53262SOL    HW171765   2.896  10.828   8.976  1.5566  0.2408  0.0084
53262SOL    HW271766   2.931  10.946   8.887  1.3272 -0.1373 -0.5900
53263SOL     OW71767   1.673   6.015   2.035 -0.4448 -0.6229 -0.3898
53263SOL    HW171768   1.622   5.967   2.100  0.6756 -0.2767  0.7986
53263SOL    HW271769   1.693   5.950   1.968 -2.1567 -0.8334 -0.7295
53264SOL     OW71770   3.510  11.117   1.572  0.5562  0.1911 -0.8829
53264SOL    HW171771   3.443  11.078   1.629  1.1230 -0.7932 -0.8756
53264SOL    HW271772   3.500  11.212   1.586  0.0810  0.0076  0.1629
53265SOL     OW71773   8.688   4.332   2.299  0.0037 -1.0527  0.1363
53265SOL    HW171774   8.599   4.316   2.268 -0.1003 -2.0762  0.8723
53265SOL    HW271775   8.678   4.397   2.369  0.0964  0.3569 -1.1303
53266SOL     OW71776   6.369   4.446   0.486 -0.1107 -0.0773  0.1828
53266SOL    HW171777   6.435   4.513   0.471 -1.2671  0.8696 -0.9397
53266SOL    HW271778   6.410   4.383   0.545  0.8918  1.7787  1.5261
53267SOL     OW71779   6.442   2.593  12.304  0.7841 -0.3107  0.5062
53267SOL    HW171780   6.445   2.591  12.208 -0.0837  1.0965  0.4133
53267SOL    HW271781   6.532   2.575  12.331  1.3898  0.8026 -0.6385
53268SOL     OW71782   2.763  10.017   8.319 -1.0812 -0.2167 -0.0569
53268SOL    HW171783   2.744   9.981   8.232 -1.8438  0.8250 -0.3332
53268SOL    HW271784   2.845  10.065   8.307 -1.3853  0.2485 -0.3025
53269SOL     OW71785  11.656   8.287  13.234  0.2673 -0.2661  0.0293
53269SOL    HW171786  11.574   8.277  13.282  0.0301 -0.0067 -0.3200
53269SOL    HW271787  11.717   8.228  13.279 -0.3752 -1.2035 -0.3149
53270SOL     OW71788   9.096  11.691  11.383  0.0971  0.1244 -0.5286
53270SOL    HW171789   9.093  11.631  11.308 -1.2674  0.4345 -0.7496
53270SOL    HW271790   9.006  11.722  11.392  0.2657  0.2166  1.1546
53271SOL     OW71791   3.127  13.054   1.411  0.3374  0.4851 -0.8980
53271SOL    HW171792   3.182  13.105   1.471 -1.1257  1.5945 -0.4243
53271SOL    HW271793   3.112  13.113   1.337 -0.6113  0.4150 -0.7775
53272SOL     OW71794   0.424   9.243   5.951  0.0108  0.4978  0.3036
53272SOL    HW171795   0.465   9.165   5.988  2.5705  1.2139 -0.7572
53272SOL    HW271796   0.361   9.271   6.017  0.2652 -1.4733  1.4709
53273SOL     OW71797   0.977   0.808   1.549  0.2028 -0.0687  0.4528
53273SOL    HW171798   0.906   0.770   1.498 -0.4380  2.3727 -0.6299
53273SOL    HW271799   0.936   0.835   1.631  0.1124  0.2903  0.2949
53274SOL     OW71800  12.927   6.564  12.073  0.0329 -0.2654  0.1778
53274SOL    HW171801  12.838   6.564  12.108  0.0676  1.4757  0.3537
53274SOL    HW271802  12.983   6.556  12.150  0.0531 -1.6725  0.0429
53275SOL     OW71803   7.793   0.748  10.015 -0.3120  0.0729 -0.1532
53275SOL    HW171804   7.801   0.750   9.920 -1.1672 -0.1679 -0.2411
53275SOL    HW271805   7.754   0.662  10.033  3.0004 -1.4176  0.6824
53276SOL     OW71806  10.674   7.570   3.050 -0.2475  0.4418 -0.0847
53276SOL    HW171807  10.762   7.535   3.035  0.1161  0.2455  2.0972
53276SOL    HW271808  10.679   7.660   3.020  0.3641  0.1382 -0.9535
53277SOL     OW71809   8.003  10.799  10.255  0.0990 -0.5239  0.0920
53277SOL    HW171810   8.067  10.868  10.268 -1.5416  0.9020  0.9405
53277SOL    HW271811   7.966  10.816  10.168 -2.9576  2.1219  1.6832
53278SOL     OW71812  13.619   2.609   3.510  0.3242 -0.3175 -0.1330
53278SOL    HW171813  13.590   2.527   3.549 -0.4393  0.8047  1.7586
53278SOL    HW271814  13.543   2.642   3.462  1.1403 -1.4936 -2.4058
53279SOL     OW71815   2.547  10.540   0.604 -0.0956 -0.3195 -0.6858
53279SOL    HW171816   2.588  10.578   0.527  1.7698 -2.7691 -1.0036
53279SOL    HW271817   2.458  10.519   0.576 -0.4169  1.5427 -1.1913
53280SOL     OW71818   1.574   7.421   2.295  0.7152 -0.4092  0.1371
53280SOL    HW171819   1.633   7.385   2.229 -0.5112 -1.5422 -0.3821
53280SOL    HW271820   1.535   7.345   2.336 -0.7328  0.3181  0.1493
53281SOL     OW71821   2.151  13.386   7.540  0.3075  0.2787 -0.0575
53281SOL    HW171822   2.072  13.349   7.499  0.2404  1.3146 -0.9062
53281SOL    HW271823   2.126  13.402   7.631 -0.3695  0.3125 -0.2403
53282SOL     OW71824   3.718   5.140   1.964 -0.1537 -0.2329 -0.5211
53282SOL    HW171825   3.673   5.057   1.979  1.3795 -0.8975  0.6375
53282SOL    HW271826   3.671   5.203   2.018  0.3573 -0.9495  0.7959
53283SOL     OW71827   0.381   6.964   3.326  0.2506 -0.1147  0.1031
53283SOL    HW171828   0.351   6.911   3.252  0.3524 -0.3112  0.2001
53283SOL    HW271829   0.315   7.032   3.336  1.0207  0.8701 -1.1742
53284SOL     OW71830   3.686  12.164  11.050  0.1582  0.0321  0.0928
53284SOL    HW171831   3.622  12.190  11.116 -0.0692 -0.0274 -0.0999
53284SOL    HW271832   3.634  12.153  10.970  0.5888  1.2850 -0.3954
53285SOL     OW71833  12.026   5.925   5.454  0.3922  0.7572  0.3327
53285SOL    HW171834  12.017   5.907   5.548  3.4132 -1.4915  0.3490
53285SOL    HW271835  12.033   5.838   5.414 -0.1158  1.6847 -1.9090
53286SOL     OW71836  11.788   8.963   6.863  0.1597 -0.1273  0.7431
53286SOL    HW171837  11.828   8.879   6.842  2.5710  0.9715  0.6029
53286SOL    HW271838  11.822   8.985   6.949 -0.5574  0.6606  0.8404
53287SOL     OW71839   9.758  11.372   9.340 -0.0945  0.1145  0.4177
53287SOL    HW171840   9.782  11.409   9.255  0.7284  1.1282  1.0775
53287SOL    HW271841   9.832  11.392   9.397 -1.4086  1.0471  1.8510
53288SOL     OW71842   5.153   5.717   6.437 -0.2843  0.4725  0.6219
53288SOL    HW171843   5.082   5.754   6.489 -1.0139  2.0364 -1.3301
53288SOL    HW271844   5.233   5.755   6.474 -0.8567  2.2957  0.1098
53289SOL     OW71845  10.868  13.684  12.552  0.7705  0.6622 -0.3848
53289SOL    HW171846  10.844  13.776  12.551  0.6339  0.6238 -1.2655
53289SOL    HW271847  10.794  13.639  12.510  0.1938 -0.0173  1.2764
53290SOL     OW71848  11.299   7.084   8.854 -0.2364  0.1762  0.4506
53290SOL    HW171849  11.306   7.158   8.914 -3.5395  0.6623  0.4209
53290SOL    HW271850  11.208   7.085   8.826 -0.7844 -4.5626  1.3027
53291SOL     OW71851   7.109  10.159   9.807  0.4218  0.2321  0.5930
53291SOL    HW171852   7.119  10.206   9.724  0.6883  1.2265  1.1755
53291SOL    HW271853   7.198  10.150   9.840  0.3028 -0.0268  0.8445
53292SOL     OW71854  13.707   9.009  13.191 -0.1911  0.5675 -0.8365
53292SOL    HW171855  13.634   8.958  13.227  0.3025  0.1865 -0.3592
53292SOL    HW271856  13.725   9.075  13.257 -0.7648  1.3244 -1.4106
53293SOL     OW71857  11.214   8.863   1.067 -0.2580 -0.0200  0.2535
53293SOL    HW171858  11.249   8.951   1.082 -0.3102  0.2086 -0.8838
53293SOL    HW271859  11.119   8.876   1.060 -0.2424 -0.1398 -0.1577
53294SOL     OW71860  13.319  11.035   3.742 -0.1771 -0.1405  0.4571
53294SOL    HW171861  13.228  11.003   3.744 -1.3338  2.8761  0.6899
53294SOL    HW271862  13.318  11.112   3.798  2.2092  0.7856 -0.6624
53295SOL     OW71863   5.846   7.702   7.988  0.0763 -0.0409 -0.1415
53295SOL    HW171864   5.752   7.699   8.003  0.2264  0.4049  1.0419
53295SOL    HW271865   5.860   7.781   7.935 -0.0685  0.9106  1.1758
53296SOL     OW71866   5.342   5.739   7.702  1.1241  0.4836  0.5079
53296SOL    HW171867   5.315   5.830   7.714  2.0776  0.7818  0.5384
53296SOL    HW271868   5.316   5.695   7.783  1.5725  0.9695  0.9258
53297SOL     OW71869   1.384   5.834   7.579 -0.4555  0.4891 -0.6376
53297SOL    HW171870   1.381   5.899   7.508 -0.5188  0.6219 -0.5142
53297SOL    HW271871   1.414   5.754   7.537  2.2732  1.2274 -0.2935
53298SOL     OW71872  11.968   2.448   6.067 -0.0934 -0.4582 -0.0365
53298SOL    HW171873  11.886   2.425   6.111 -0.7145  0.6247 -0.5812
53298SOL    HW271874  11.962   2.405   5.982 -1.0257  1.2197 -0.8575
53299SOL     OW71875  12.682  13.602   1.489 -0.3775  0.0707  0.1198
53299SOL    HW171876  12.588  13.587   1.487 -0.4795  0.6500  0.4501
53299SOL    HW271877  12.708  13.608   1.397 -0.0597 -3.6189 -0.2004
53300SOL     OW71878   4.811   7.339   8.977  0.5548 -0.1079  0.7344
53300SOL    HW171879   4.791   7.286   9.055 -0.0821  0.1444  0.7463
53300SOL    HW271880   4.857   7.415   9.011 -1.3908  0.9652  1.1228
53301SOL     OW71881   1.638   4.418   3.703  0.0811  0.2252 -0.2369
53301SOL    HW171882   1.723   4.433   3.662  0.9028  1.3303  1.7727
53301SOL    HW271883   1.584   4.492   3.674  0.4266  0.6038  0.0866
53302SOL     OW71884   0.866  13.112   0.659 -0.5745 -0.2516  0.0019
53302SOL    HW171885   0.952  13.079   0.634 -0.2911  0.1879  0.3888
53302SOL    HW271886   0.814  13.109   0.579  0.7836  2.7312 -1.0858
53303SOL     OW71887  13.502   5.999   5.684  0.0052 -0.1384  0.0608
53303SOL    HW171888  13.551   6.078   5.705 -1.1082  0.7310 -0.5055
53303SOL    HW271889  13.569   5.936   5.657  0.8108  1.1257 -1.0532
53304SOL     OW71890   7.793   8.418   0.021 -0.0449 -0.3994 -0.1903
53304SOL    HW171891   7.868   8.371  -0.016  1.9694  2.2417  0.2543
53304SOL    HW271892   7.739   8.350   0.061  1.9723 -2.4453 -0.7531
53305SOL     OW71893   5.726  10.155   5.075  0.6742 -0.4681  0.0448
53305SOL    HW171894   5.716  10.229   5.016 -0.7506 -0.4818  0.2506
53305SOL    HW271895   5.767  10.086   5.022  1.5558  0.2809 -0.2722
53306SOL     OW71896  13.434   1.264  12.378  0.5911 -0.7786 -0.5044
53306SOL    HW171897  13.380   1.262  12.298 -1.3114  0.9759  0.6250
53306SOL    HW271898  13.516   1.304  12.350  0.8179 -2.1951 -1.9997
53307SOL     OW71899  10.082  13.478   5.052 -0.0979  0.2698 -0.2635
53307SOL    HW171900  10.045  13.480   4.964 -1.4190 -0.1010  0.2568
53307SOL    HW271901  10.006  13.467   5.109  0.9690 -3.5663  0.7134
53308SOL     OW71902   1.410   7.145   6.221  0.2663  0.4611 -0.0293
53308SOL    HW171903   1.347   7.122   6.289  1.8974 -0.2249  1.3184
53308SOL    HW271904   1.485   7.180   6.268  0.5821  2.1105 -1.6481
53309SOL     OW71905   4.669   2.171   4.387  0.5697 -0.3586 -0.3945
53309SOL    HW171906   4.718   2.254   4.388  0.3730 -0.2358 -0.6959
53309SOL    HW271907   4.708   2.119   4.457  0.7199 -0.0223 -0.2251
53310SOL     OW71908  12.972   5.052   5.008 -0.1917 -0.2412  0.0211
53310SOL    HW171909  12.889   5.031   4.965 -0.1154 -2.0172  0.6675
53310SOL    HW271910  12.959   5.141   5.042 -2.2386 -0.8523  1.0089
53311SOL     OW71911  13.046   2.136   1.306 -0.0919 -0.5556 -0.4515
53311SOL    HW171912  12.955   2.108   1.312 -1.2241  2.4995 -1.5928
53311SOL    HW271913  13.083   2.115   1.392 -1.7498 -2.0856 -0.0513
53312SOL     OW71914   2.398  12.458   3.243 -0.6394  0.0678  0.3428
53312SOL    HW171915   2.424  12.369   3.268 -1.9039 -0.4782 -0.2179
53312SOL    HW271916   2.480  12.499   3.214 -0.3958 -1.7196 -1.7622
53313SOL     OW71917  11.234   8.259   4.707 -0.0009  0.2129  0.6369
53313SOL    HW171918  11.319   8.216   4.715 -0.2740 -0.3569  0.4784
53313SOL    HW271919  11.204   8.238   4.619  0.3188  1.5838  0.1677
53314SOL     OW71920   1.661   0.496   8.453  0.3935  0.2708 -0.4388
53314SOL    HW171921   1.651   0.405   8.425  0.5102  0.3180 -0.6428
53314SOL    HW271922   1.722   0.534   8.389 -0.1799  0.6732 -0.7602
53315SOL     OW71923   6.703  12.627   9.422 -0.2926  0.5231 -0.2126
53315SOL    HW171924   6.613  12.596   9.426 -0.3413  0.6167 -0.5361
53315SOL    HW271925   6.740  12.585   9.344  0.1278  0.0101  0.2520
53316SOL     OW71926   6.602   8.744  11.919 -0.0813 -0.0095 -0.6131
53316SOL    HW171927   6.666   8.811  11.897  0.2451  0.4040  1.4365
53316SOL    HW271928   6.652   8.663  11.926  0.1699  0.2307  0.5355
53317SOL     OW71929   6.801   5.685   0.056 -0.2662 -0.1589  0.2005
53317SOL    HW171930   6.803   5.590   0.070 -0.6282  0.0764  2.0156
53317SOL    HW271931   6.806   5.694  -0.039  1.2491 -1.9417  0.0429
53318SOL     OW71932  12.198   1.239  13.389  0.0846 -0.5982  0.2978
53318SOL    HW171933  12.226   1.330  13.391 -0.9390 -0.2562 -0.0448
53318SOL    HW271934  12.117   1.240  13.338 -0.1224 -1.6494  0.5760
53319SOL     OW71935  12.617   8.641   9.929  0.0521 -0.3973 -0.3058
53319SOL    HW171936  12.710   8.624   9.947 -0.1988 -0.0798  1.4921
53319SOL    HW271937  12.618   8.712   9.864  1.0753  0.0167  0.1339
53320SOL     OW71938   3.002  13.111   8.774  0.7940 -0.0703 -0.7016
53320SOL    HW171939   3.023  13.197   8.810  2.4448 -0.7434  0.0391
53320SOL    HW271940   2.973  13.059   8.850  2.5752 -0.9696 -0.5764
53321SOL     OW71941   8.021   4.003  13.281 -0.0710 -0.1370 -0.1657
53321SOL    HW171942   7.992   4.010  13.372  0.3616 -0.1925 -0.0226
53321SOL    HW271943   7.962   4.061  13.233  0.2963  0.6318  0.2888
53322SOL     OW71944   4.969  11.944   7.705 -0.1149  0.4550  0.5642
53322SOL    HW171945   5.029  11.870   7.717 -0.0352  0.4517  0.1642
53322SOL    HW271946   4.919  11.921   7.627  0.6668  1.3157 -0.2187
53323SOL     OW71947  11.030   5.345  10.931 -0.4271 -0.6498  0.6037
53323SOL    HW171948  11.028   5.249  10.930  0.7212 -0.6865  0.8294
53323SOL    HW271949  10.960   5.371  10.871 -0.0999 -1.6355 -0.2156
53324SOL     OW71950   1.145  12.139   3.004  0.6135 -0.2645 -0.4798
53324SOL    HW171951   1.071  12.091   2.966  1.3039 -1.4743 -0.3512
53324SOL    HW271952   1.189  12.074   3.059  0.7223  0.9415  0.8944
53325SOL     OW71953   2.115  12.535   4.724  0.4860 -0.3209  0.2391
53325SOL    HW171954   2.170  12.529   4.646 -0.8563  2.3316 -1.0803
53325SOL    HW271955   2.157  12.602   4.778 -0.7705  0.9452 -0.2786
53326SOL     OW71956   1.868   3.665   8.053 -0.0644 -0.1750  0.0285
53326SOL    HW171957   1.835   3.755   8.049 -0.3085 -0.3042 -1.5672
53326SOL    HW271958   1.799   3.612   8.013 -0.0105 -1.1186  1.1294
53327SOL     OW71959   0.721   1.857  12.880  0.0698  0.2128  0.3639
53327SOL    HW171960   0.703   1.933  12.934  1.3291  0.5320  0.3515
53327SOL    HW271961   0.703   1.886  12.790  0.1673  0.3764  0.3974
53328SOL     OW71962  12.742   0.768  10.741  0.2811 -0.2522 -0.5160
53328SOL    HW171963  12.699   0.849  10.715  1.0956  0.2670 -0.2888
53328SOL    HW271964  12.683   0.699  10.712 -0.9289  0.4430  0.2192
53329SOL     OW71965   1.902  10.859   1.921 -0.5320 -0.1923 -0.0614
53329SOL    HW171966   1.885  10.886   2.012  0.1043 -0.6202  0.1936
53329SOL    HW271967   1.932  10.939   1.878 -0.9382  0.0360  0.0794
53330SOL     OW71968  12.701   1.859   4.225 -0.1543  0.3524 -0.4792
53330SOL    HW171969  12.688   1.899   4.310 -1.2020 -0.3927 -0.2620
53330SOL    HW271970  12.681   1.766   4.239 -2.4411  0.5351 -1.9568
53331SOL     OW71971   6.419   5.989  12.269 -0.3473 -0.3531  0.4994
53331SOL    HW171972   6.340   5.990  12.324 -0.8388  1.4585 -0.1354
53331SOL    HW271973   6.392   6.035  12.189  1.2088 -0.2075  0.0287
53332SOL     OW71974   0.151   1.956  11.932  0.4373 -0.1367  0.0848
53332SOL    HW171975   0.122   2.039  11.893  0.5648  0.4328  1.1452
53332SOL    HW271976   0.135   1.890  11.865  1.6417  0.9549 -1.3171
53333SOL     OW71977   2.249   5.025   5.580 -0.1890 -0.0125 -0.4022
53333SOL    HW171978   2.236   5.106   5.532 -0.3441 -0.1381 -0.5715
53333SOL    HW271979   2.172   4.972   5.561 -0.1192 -0.1765 -0.2426
53334SOL     OW71980   8.596   8.793  13.157  0.3672  0.0359 -0.0177
53334SOL    HW171981   8.512   8.837  13.171  0.3136  0.8355 -2.4338
53334SOL    HW271982   8.650   8.857  13.111  1.7204 -1.0441  0.0018
53335SOL     OW71983   5.751   4.449   7.903  0.1552  0.0148  0.7472
53335SOL    HW171984   5.794   4.424   7.822  0.2389  0.8323  0.5237
53335SOL    HW271985   5.822   4.463   7.965  0.2313  1.2393  0.4141
53336SOL     OW71986  11.116  13.514   7.133  0.2492  0.5660 -0.2607
53336SOL    HW171987  11.155  13.459   7.066 -1.8364  0.8316 -1.7904
53336SOL    HW271988  11.127  13.465   7.214 -1.1200 -1.9778 -1.4933
53337SOL     OW71989  12.780   1.736  13.614  0.5390  0.0703  0.6198
53337SOL    HW171990  12.760   1.689  13.534 -0.7914  1.6662 -0.0310
53337SOL    HW271991  12.871   1.713  13.634  0.0548 -2.4456  0.1677
53338SOL     OW71992   8.361   9.401   4.620  0.1556 -0.0787  0.2194
53338SOL    HW171993   8.409   9.461   4.677  0.1639 -0.3576  0.5079
53338SOL    HW271994   8.273   9.439   4.614 -0.3350 -0.9033  1.7436
53339SOL     OW71995  11.598  10.445   5.435 -0.4137  0.1665 -0.2796
53339SOL    HW171996  11.533  10.467   5.370 -1.9267  0.1816  1.1706
53339SOL    HW271997  11.570  10.361   5.471  1.4120 -0.7629 -0.8863
53340SOL     OW71998   6.606   3.113  13.896  0.1457 -0.3276  0.5647
53340SOL    HW171999   6.690   3.100  13.853 -0.9222 -0.2174 -1.7193
53340SOL    HW272000   6.588   3.030  13.940  0.9413 -0.7407  0.1364
53341SOL     OW72001   0.288  11.150  11.612 -0.2204 -0.3329  0.7098
53341SOL    HW172002   0.199  11.167  11.581 -0.3790 -2.7477 -0.3833
53341SOL    HW272003   0.280  11.069  11.664  1.3215 -0.5793  0.6019
53342SOL     OW72004  11.425   6.646  11.012  0.0520  0.3168 -0.1693
53342SOL    HW172005  11.511   6.687  11.021  0.1283 -0.1438  1.6804
53342SOL    HW272006  11.365   6.719  11.004  0.2459  0.8809  2.5303
53343SOL     OW72007   1.663   5.325   1.856 -0.1148 -0.1596  0.3563
53343SOL    HW172008   1.747   5.280   1.845  0.3535  0.4546  1.3447
53343SOL    HW272009   1.680   5.414   1.827 -0.5479 -0.1408  0.1543
53344SOL     OW72010  14.005   1.483  13.961  0.3208  0.4579  0.3223
53344SOL    HW172011  14.044   1.569  13.971 -1.0678  1.4513 -2.0110
53344SOL    HW272012  13.997   1.470  13.867  0.4113 -2.2136  0.6012
53345SOL     OW72013   9.927   7.630   1.660  0.3065 -0.8348 -0.0742
53345SOL    HW172014   9.926   7.574   1.738 -0.8887 -0.5686  0.1180
53345SOL    HW272015  10.019   7.657   1.651  0.5258 -1.1688  1.0271
53346SOL     OW72016  11.472   9.433  12.797  0.2097  0.5353  0.3908
53346SOL    HW172017  11.479   9.483  12.878  0.4603 -2.3278  2.2850
53346SOL    HW272018  11.381   9.400  12.797  0.1795  0.5984 -0.5545
53347SOL     OW72019  12.282   9.590   6.026  0.1347  0.3009 -0.2365
53347SOL    HW172020  12.289   9.544   5.943 -3.3926 -1.1365  0.1158
53347SOL    HW272021  12.350   9.551   6.081 -0.3259 -1.8844 -1.1206
53348SOL     OW72022  13.197   7.765   6.080 -0.8653  0.0327  0.2171
53348SOL    HW172023  13.199   7.837   6.143  0.6181  0.3226 -0.1255
53348SOL    HW272024  13.120   7.782   6.027 -1.3608  0.5407  1.0688
53349SOL     OW72025   4.314   1.389  10.604 -0.4040 -0.2315 -0.2066
53349SOL    HW172026   4.405   1.396  10.577  0.1223 -2.9210  0.5314
53349SOL    HW272027   4.317   1.388  10.700 -1.0581 -1.3715 -0.1808
53350SOL     OW72028  10.414   4.967   2.517  0.0634 -0.1330 -0.2204
53350SOL    HW172029  10.399   4.890   2.462  0.6958 -0.3065 -0.1596
53350SOL    HW272030  10.330   4.983   2.560 -0.5279  0.1698 -1.4341
53351SOL     OW72031   3.272  11.578  11.169  0.0196 -0.9031  0.1618
53351SOL    HW172032   3.234  11.527  11.241 -2.2794  1.3363  0.7076
53351SOL    HW272033   3.209  11.568  11.097 -1.8074  2.7608  1.0238
53352SOL     OW72034   5.359   4.106   6.997 -0.0912  0.1625  0.0334
53352SOL    HW172035   5.435   4.161   7.020  0.5461 -0.4456 -0.5690
53352SOL    HW272036   5.304   4.108   7.076  0.3126  0.9950  0.3121
53353SOL     OW72037  12.199   4.346   4.636  0.0668 -0.1800 -0.4722
53353SOL    HW172038  12.205   4.266   4.584 -0.7815  0.6980 -1.9582
53353SOL    HW272039  12.204   4.417   4.573  1.8830  1.0214  0.9116
53354SOL     OW72040   8.003   7.860   0.632  0.1237 -0.5026  0.1673
53354SOL    HW172041   8.004   7.937   0.690 -0.9441 -0.7473  0.5436
53354SOL    HW272042   8.017   7.896   0.545 -0.6846  0.1796  0.3017
53355SOL     OW72043  10.980   1.514   4.039 -0.1379 -0.1670 -0.0003
53355SOL    HW172044  11.072   1.511   4.014 -0.0375 -0.0088  0.3428
53355SOL    HW272045  10.977   1.469   4.124  0.1988  2.7701  1.6975
53356SOL     OW72046  10.307   1.371  10.844 -0.3106 -0.4235 -0.4026
53356SOL    HW172047  10.341   1.360  10.755  1.0581 -5.5215  0.4363
53356SOL    HW272048  10.374   1.421  10.890  0.9679 -1.2814 -1.2843
53357SOL     OW72049  10.088   1.883   0.556  0.2498 -0.1566 -0.1124
53357SOL    HW172050  10.001   1.898   0.592  0.2144 -1.8117  0.5750
53357SOL    HW272051  10.146   1.882   0.632  0.6833 -0.2848 -0.4408
53358SOL     OW72052   3.754  10.543   2.993 -0.1948  0.4866  0.3030
53358SOL    HW172053   3.812  10.571   3.065  0.0773  0.6742  0.0148
53358SOL    HW272054   3.677  10.600   3.002  0.7299  1.9765 -0.8084
53359SOL     OW72055   0.871   4.359   3.522  0.3011 -0.2546 -0.8489
53359SOL    HW172056   0.816   4.412   3.464  0.7819  1.0484 -0.1217
53359SOL    HW272057   0.930   4.313   3.462 -2.2234 -2.6097 -1.7893
53360SOL     OW72058   3.177  11.575  13.928  0.3361  0.2321  0.2153
53360SOL    HW172059   3.090  11.606  13.953 -1.6348 -2.9203 -1.9931
53360SOL    HW272060   3.197  11.505  13.991  0.1071 -0.6931 -0.7152
53361SOL     OW72061   0.639  10.078   6.787  0.0142  0.1077  0.5542
53361SOL    HW172062   0.585  10.085   6.708  0.4313  0.9613  0.3291
53361SOL    HW272063   0.709  10.142   6.774 -0.2988  0.7597  1.9215
53362SOL     OW72064   6.489   4.283   0.659 -0.0577  0.5061  0.0514
53362SOL    HW172065   6.585   4.280   0.654 -0.0298  1.7135 -0.6766
53362SOL    HW272066   6.467   4.227   0.733  1.1457 -0.5197 -0.3298
53363SOL     OW72067  13.132   6.127  10.468  0.5936 -0.0431 -0.5565
53363SOL    HW172068  13.092   6.161  10.388 -2.6270 -2.2750 -0.0829
53363SOL    HW272069  13.106   6.035  10.470  1.0469 -0.2121  2.7606
53364SOL     OW72070   5.434   6.593   1.660  0.0336  0.4820  0.5283
53364SOL    HW172071   5.433   6.514   1.713 -0.1788  0.0844 -0.0497
53364SOL    HW272072   5.449   6.562   1.571  0.4900  1.1417  0.3644
53365SOL     OW72073   4.189   0.437   4.077 -0.5080 -0.2011 -0.5670
53365SOL    HW172074   4.230   0.416   4.161  0.1190  0.4177 -0.7118
53365SOL    HW272075   4.260   0.471   4.023 -1.0211 -0.0507 -1.1581
53366SOL     OW72076   0.266   9.799   2.581  0.1155  0.2036  0.2858
53366SOL    HW172077   0.302   9.723   2.627 -0.5443  0.5517  1.4130
53366SOL    HW272078   0.340   9.835   2.532  1.3320  0.8784  2.4806
53367SOL     OW72079  11.620   0.189  11.442  0.3862 -0.2010  0.0582
53367SOL    HW172080  11.696   0.153  11.487  1.5705  2.5379  0.5058
53367SOL    HW272081  11.637   0.172  11.349  0.3668 -1.6144  0.2937
53368SOL     OW72082   8.905   4.931   9.242 -0.0120  0.5054 -0.0579
53368SOL    HW172083   8.892   5.004   9.302 -3.0717 -0.5381  0.7199
53368SOL    HW272084   8.914   4.854   9.299 -1.3015 -0.2806 -0.8706
53369SOL     OW72085  12.584   7.664  12.867 -0.2391 -0.6266 -0.3404
53369SOL    HW172086  12.630   7.587  12.902  1.0538  0.1781 -0.1918
53369SOL    HW272087  12.600   7.661  12.773  0.8691  0.1100 -0.1894
53370SOL     OW72088   4.186  11.353   7.412 -0.1685  0.3210 -0.4089
53370SOL    HW172089   4.138  11.319   7.488  0.1362  0.2132 -0.2595
53370SOL    HW272090   4.278  11.340   7.435 -0.0856 -0.8091 -1.2972
53371SOL     OW72091  13.712   2.192   5.142  0.3197 -0.2739  0.3988
53371SOL    HW172092  13.718   2.232   5.229 -0.4914 -0.3522  0.4933
53371SOL    HW272093  13.665   2.257   5.089 -0.7142 -0.9435  0.4711
53372SOL     OW72094   0.104   4.315   1.751 -0.2029  0.3446  0.0846
53372SOL    HW172095   0.026   4.263   1.772 -0.6109  1.3768  1.2888
53372SOL    HW272096   0.161   4.255   1.704 -1.2755 -0.7512  0.1216
53373SOL     OW72097   2.641  11.830   0.879  0.3150  0.0373 -0.4443
53373SOL    HW172098   2.688  11.756   0.840  0.1939  0.1062 -0.7282
53373SOL    HW272099   2.696  11.857   0.953 -0.1407 -0.9641  0.2829
53374SOL     OW72100   0.379   3.026  13.509  0.0009 -0.3178  0.4079
53374SOL    HW172101   0.423   3.080  13.575 -0.3356 -0.9868  1.1869
53374SOL    HW272102   0.299   3.075  13.488 -0.4535 -0.6448  1.3357
53375SOL     OW72103   4.873  10.820   4.666  0.6372 -0.0616 -0.0272
53375SOL    HW172104   4.856  10.914   4.657 -3.1226 -0.6884 -1.2441
53375SOL    HW272105   4.876  10.805   4.760 -1.3636  1.0029  0.2706
53376SOL     OW72106   3.395   8.797  11.528  0.5114 -0.1579 -0.3409
53376SOL    HW172107   3.394   8.709  11.491 -1.0129 -1.1662  1.8705
53376SOL    HW272108   3.441   8.788  11.612 -0.6109  0.8701  0.4265
53377SOL     OW72109  11.076  11.640   5.194  0.2193  0.6225 -0.1975
53377SOL    HW172110  10.989  11.671   5.222 -0.1351 -1.3689  1.1052
53377SOL    HW272111  11.137  11.694   5.244 -0.2584  1.5314 -0.5560
53378SOL     OW72112   1.324  12.230   6.335 -0.3816 -0.8610 -0.2663
53378SOL    HW172113   1.400  12.184   6.300  1.6499  2.3684 -0.5146
53378SOL    HW272114   1.307  12.188   6.419  2.2654 -1.2125  0.1903
53379SOL     OW72115   7.331   0.251   9.205  0.2475  0.1857  0.1322
53379SOL    HW172116   7.239   0.266   9.183  0.1049 -1.7258 -0.7838
53379SOL    HW272117   7.358   0.330   9.253 -1.9007  0.6905  0.5890
53380SOL     OW72118  13.616  12.303   7.488  0.0698  0.0543 -0.0505
53380SOL    HW172119  13.711  12.308   7.491  0.0819 -0.3152  0.4301
53380SOL    HW272120  13.587  12.393   7.476  0.4744  0.1949  0.0144
53381SOL     OW72121  11.877  13.743  11.893 -0.2785  0.5391  0.6454
53381SOL    HW172122  11.829  13.660  11.885  0.0143  0.0945  2.8893
53381SOL    HW272123  11.969  13.719  11.882 -0.2127  0.5850  1.0679
53382SOL     OW72124  10.739  11.158   4.572 -0.3746  0.4811  0.2016
53382SOL    HW172125  10.704  11.246   4.557 -0.4941  1.0087  3.0499
53382SOL    HW272126  10.831  11.173   4.595  0.1294 -0.3422 -1.2205
53383SOL     OW72127   5.784  11.995   6.565 -0.5789 -0.0284 -0.1103
53383SOL    HW172128   5.699  11.985   6.522  0.6720  1.2765 -3.2156
53383SOL    HW272129   5.822  11.907   6.564 -1.1668 -0.2826 -0.3973
53384SOL     OW72130   6.648   8.421   8.210 -0.3249  0.5505  0.5957
53384SOL    HW172131   6.698   8.367   8.149 -1.2796 -0.6802  0.8502
53384SOL    HW272132   6.629   8.501   8.162 -2.5332 -1.0367 -1.4797
53385SOL     OW72133  13.916  11.608  12.684  0.4761 -0.0242 -0.0799
53385SOL    HW172134  13.990  11.613  12.624  0.7445 -1.4248  0.0936
53385SOL    HW272135  13.888  11.698  12.695  1.4420  0.4192 -1.0350
53386SOL     OW72136   4.637   6.534   9.260 -0.0661  0.1442  0.1935
53386SOL    HW172137   4.649   6.441   9.236  2.8625  0.5636 -0.3912
53386SOL    HW272138   4.568   6.564   9.201 -0.4526 -1.4575 -0.2446
53387SOL     OW72139  12.364   1.977  13.059 -0.5210  0.2937 -0.2874
53387SOL    HW172140  12.429   1.981  12.989  0.6216 -2.6817  0.4495
53387SOL    HW272141  12.282   2.007  13.019  0.1304 -1.1757 -2.8732
53388SOL     OW72142  13.043   4.764   9.005  0.2661 -0.1687  0.1679
53388SOL    HW172143  12.970   4.734   8.950 -0.4150  0.0059  0.9544
53388SOL    HW272144  13.085   4.833   8.954 -0.7927  0.4807  0.1437
53389SOL     OW72145   5.784   7.816   6.031  0.3536 -0.2424 -0.3222
53389SOL    HW172146   5.795   7.754   5.959  0.5878 -1.3708  0.6483
53389SOL    HW272147   5.692   7.844   6.025  0.4831 -0.0081 -1.2882
53390SOL     OW72148   1.901   9.639   9.015  0.5141 -0.4508 -0.3786
53390SOL    HW172149   1.812   9.604   9.027  0.4257 -0.7747 -1.7479
53390SOL    HW272150   1.935   9.591   8.939  1.3187  0.6994 -0.7711
53391SOL     OW72151   7.822   5.930   5.613  0.1313 -0.4197 -0.2419
53391SOL    HW172152   7.821   6.023   5.591 -3.0084 -0.8155 -2.3669
53391SOL    HW272153   7.789   5.927   5.703 -0.3851  0.4971 -0.3805
53392SOL     OW72154   2.638   8.892   5.361  0.0449  0.2842 -0.3364
53392SOL    HW172155   2.570   8.959   5.353  1.0819  1.4196  0.1425
53392SOL    HW272156   2.665   8.875   5.271  0.8994  1.7231 -0.3876
53393SOL     OW72157   2.831  14.003   3.487  0.4690  0.4792  0.0495
53393SOL    HW172158   2.848  14.043   3.572 -1.2588 -1.0897  1.1987
53393SOL    HW272159   2.752  14.048   3.456 -0.1488 -0.4206  0.2928
53394SOL     OW72160   5.165  12.253   1.080  0.3761  0.2681  0.6736
53394SOL    HW172161   5.229  12.183   1.093  0.6899  0.2912 -0.5717
53394SOL    HW272162   5.087  12.223   1.127 -1.1019 -3.1936 -3.3255
53395SOL     OW72163   0.391   2.512   4.171 -0.3961 -0.2116 -0.4129
53395SOL    HW172164   0.464   2.452   4.157  0.4790  0.0204  2.6338
53395SOL    HW272165   0.323   2.459   4.213 -1.3046  0.0205 -1.5171
53396SOL     OW72166   1.575   1.790   3.254 -0.1997  0.5550  0.1379
53396SOL    HW172167   1.622   1.734   3.316  1.1748  1.1773 -0.2908
53396SOL    HW272168   1.643   1.847   3.217 -1.2169  1.1359 -0.9140
53397SOL     OW72169   0.880  11.787   5.782 -0.4388  1.1380  0.2965
53397SOL    HW172170   0.948  11.747   5.837 -1.4069 -1.3286 -0.1555
53397SOL    HW272171   0.918  11.869   5.752  1.4455  0.9078  1.8598
53398SOL     OW72172   9.394   7.049   4.214  0.3537 -0.2420 -0.3269
53398SOL    HW172173   9.400   7.108   4.139 -0.8595 -1.1582 -1.1857
53398SOL    HW272174   9.396   7.107   4.290 -1.2681  0.9790 -1.1494
53399SOL     OW72175   7.631  12.052   6.349 -0.2041  0.0582 -0.2840
53399SOL    HW172176   7.701  11.987   6.354 -1.1148 -0.9351 -0.1067
53399SOL    HW272177   7.629  12.077   6.256 -0.0663 -0.4248 -0.4232
53400SOL     OW72178   3.133  10.037  12.558  0.0607  0.1212 -0.1711
53400SOL    HW172179   3.091   9.955  12.583 -0.4042  1.6332  5.1373
53400SOL    HW272180   3.216  10.010  12.518 -0.3214 -2.9048  0.8194
53401SOL     OW72181  11.622  13.241   9.955 -0.3772  0.4845 -0.0197
53401SOL    HW172182  11.715  13.258   9.942 -0.4547  2.1556  1.2736
53401SOL    HW272183  11.586  13.235   9.866  0.8336  0.5971 -0.5315
53402SOL     OW72184   6.695  11.883   1.478 -0.0612  0.0982 -0.6726
53402SOL    HW172185   6.654  11.797   1.467  1.2234 -0.4558 -1.3663
53402SOL    HW272186   6.697  11.896   1.573  1.8010 -1.7304 -0.3686
53403SOL     OW72187  13.047   9.761  13.338 -0.5558 -0.7055  0.1752
53403SOL    HW172188  13.012   9.850  13.340  0.3852 -0.3348  0.4758
53403SOL    HW272189  12.971   9.706  13.316 -1.0797  0.1903 -0.2967
53404SOL     OW72190   0.732   1.089   2.398 -0.9285  0.1529 -0.1157
53404SOL    HW172191   0.800   1.101   2.465 -1.1136 -0.5906  0.2119
53404SOL    HW272192   0.692   1.176   2.390 -0.3986  0.4326  0.1891
53405SOL     OW72193   0.054  10.657   7.820  0.3374  0.0425 -0.1698
53405SOL    HW172194   0.101  10.728   7.776  0.9933 -0.6445 -0.6130
53405SOL    HW272195   0.077  10.665   7.912 -0.1569  0.8249 -0.1103
53406SOL     OW72196   7.617   8.119  13.551 -0.1090 -0.7418 -0.3236
53406SOL    HW172197   7.572   8.094  13.632 -1.8599  0.1237 -0.9951
53406SOL    HW272198   7.686   8.179  13.580 -1.1296  0.0618  0.4758
53407SOL     OW72199   3.897   3.637   3.743 -0.4433 -0.3410  0.4011
53407SOL    HW172200   3.894   3.731   3.761 -1.4737 -0.5210  1.2352
53407SOL    HW272201   3.909   3.597   3.829  1.8284 -0.9283 -0.1129
53408SOL     OW72202   3.980   3.336   4.496  0.4840  0.2994  0.9745
53408SOL    HW172203   3.911   3.341   4.562  0.7042 -0.2012  1.2403
53408SOL    HW272204   4.062   3.339   4.545  0.6680  1.1323  0.6443
53409SOL     OW72205  10.581  11.685   7.580  0.4900  0.1725 -0.4553
53409SOL    HW172206  10.655  11.641   7.624 -1.2810 -1.2521  1.3069
53409SOL    HW272207  10.546  11.618   7.520 -1.7999 -0.7696  1.7365
53410SOL     OW72208   0.773   0.395  13.054  0.1642  0.3011 -0.1889
53410SOL    HW172209   0.778   0.490  13.068 -3.0621  0.2928  2.1583
53410SOL    HW272210   0.690   0.382  13.008  0.0998 -1.4333  0.3424
53411SOL     OW72211   2.794  13.661   7.392  0.1070 -0.0064  0.2771
53411SOL    HW172212   2.718  13.709   7.426 -1.5180 -1.2863 -1.2895
53411SOL    HW272213   2.765  13.570   7.391  0.9572 -0.3106 -2.0692
53412SOL     OW72214   1.647   6.752   4.717  0.1302  0.3937 -0.7504
53412SOL    HW172215   1.677   6.805   4.643 -0.4097 -2.6034 -3.3484
53412SOL    HW272216   1.559   6.722   4.691  0.3108 -1.5287  0.6300
53413SOL     OW72217  11.632   8.508   4.218 -0.0904  0.6782 -0.0355
53413SOL    HW172218  11.653   8.439   4.155  0.4888  1.7969 -1.1064
53413SOL    HW272219  11.707   8.509   4.277  0.1140  0.6813 -0.2913
53414SOL     OW72220   5.618   8.919   0.064  0.0101  0.2372  0.2724
53414SOL    HW172221   5.552   8.967   0.116  1.7803 -0.6004  3.6187
53414SOL    HW272222   5.590   8.827   0.070 -0.8807  0.2733 -2.2186
53415SOL     OW72223   2.421  13.455  13.010 -0.1788 -0.3215 -0.0642
53415SOL    HW172224   2.492  13.466  12.947  0.0288  0.1279  0.2404
53415SOL    HW272225   2.415  13.361  13.024  0.5913 -0.3485  0.1615
53416SOL     OW72226  11.421   6.007  12.457  0.2486  0.0599 -0.6262
53416SOL    HW172227  11.456   6.073  12.397 -0.7781 -0.3421 -1.6927
53416SOL    HW272228  11.467   5.926  12.434 -1.2975 -0.4622 -2.0094
53417SOL     OW72229   6.957   8.544   9.060  0.2317  0.0730  0.1686
53417SOL    HW172230   6.920   8.565   9.146 -0.5081 -1.0297  0.1480
53417SOL    HW272231   7.029   8.485   9.078 -2.6535 -3.9255 -0.0472
53418SOL     OW72232  11.587  10.047  12.560 -0.0221  0.9623  0.3452
53418SOL    HW172233  11.508  10.070  12.511 -0.1284  0.5925  0.3398
53418SOL    HW272234  11.615  10.129  12.601  0.2463  1.3425 -0.5816
53419SOL     OW72235  10.039   9.227   9.801  0.3790 -1.1046 -0.7101
53419SOL    HW172236  10.014   9.286   9.871  0.9889 -1.2994 -0.3235
53419SOL    HW272237  10.127   9.256   9.775 -0.7169  0.5102 -3.0377
53420SOL     OW72238  13.207   5.370   0.306  0.0593 -0.1831  0.4205
53420SOL    HW172239  13.292   5.374   0.349  0.8337 -0.6457 -1.0209
53420SOL    HW272240  13.221   5.315   0.229 -1.3232  0.4662 -0.3296
53421SOL     OW72241   3.787  13.149   0.206 -0.1964  0.3260 -0.2472
53421SOL    HW172242   3.829  13.195   0.279  0.7538 -1.4070  0.3513
53421SOL    HW272243   3.853  13.087   0.175 -1.9899 -1.9223  0.1927
53422SOL     OW72244   9.135  11.340  10.113  0.1372  0.5883  0.0007
53422SOL    HW172245   9.154  11.419  10.163 -0.9806  0.6798  0.2990
53422SOL    HW272246   9.040  11.336  10.108  0.1422 -1.0449  0.4953
53423SOL     OW72247   5.467  10.819   5.452 -0.3339 -0.0996  0.0583
53423SOL    HW172248   5.479  10.830   5.358 -0.7271  0.0138  0.0179
53423SOL    HW272249   5.421  10.898   5.480  0.2427  0.1081  0.4391
53424SOL     OW72250   7.607   0.673   6.091  0.3015 -0.2141  0.8529
53424SOL    HW172251   7.679   0.657   6.152  0.0470 -0.4175  1.1102
53424SOL    HW272252   7.552   0.737   6.136  1.7439  2.1345 -0.5299
53425SOL     OW72253   4.918   1.058   7.914  0.0008  0.2261 -0.2431
53425SOL    HW172254   4.949   1.018   7.995  0.1871  0.5907 -0.1317
53425SOL    HW272255   4.840   1.008   7.891  2.8077 -3.5242 -2.7539
53426SOL     OW72256   3.316   3.434  10.634  0.0049 -0.3592 -0.0434
53426SOL    HW172257   3.235   3.386  10.650 -0.5688  0.6953  0.2962
53426SOL    HW272258   3.323   3.439  10.539  0.5384 -1.8515 -0.1100
53427SOL     OW72259   0.699   7.045   2.138  0.3882 -0.4602 -0.1038
53427SOL    HW172260   0.655   6.963   2.117 -0.9557  0.2892 -0.3317
53427SOL    HW272261   0.721   7.037   2.231 -0.9319 -0.5558  0.2186
53428SOL     OW72262   7.998   3.335   1.961  0.6549 -0.2332 -0.0334
53428SOL    HW172263   7.989   3.241   1.981 -0.3669 -0.4155 -1.2597
53428SOL    HW272264   8.042   3.371   2.038  1.8551 -1.8618  0.0999
53429SOL     OW72265  13.113  11.392  12.776 -0.0384 -0.1227 -0.1829
53429SOL    HW172266  13.150  11.480  12.785 -1.9005  0.7208 -0.1661
53429SOL    HW272267  13.018  11.407  12.769 -0.4243 -2.1542  0.1004
53430SOL     OW72268  10.348   4.217   8.768 -0.2023 -0.0656 -0.0982
53430SOL    HW172269  10.362   4.286   8.704 -1.3493  2.1274  1.8620
53430SOL    HW272270  10.348   4.136   8.716 -2.2609  1.6274 -3.0517
53431SOL     OW72271   6.869   3.179   5.155 -0.0823  0.6560 -0.2949
53431SOL    HW172272   6.880   3.251   5.093  0.2143 -0.0995 -1.1378
53431SOL    HW272273   6.840   3.221   5.235  1.1466  1.8422 -0.4329
53432SOL     OW72274   1.982  13.285   8.951 -0.0165 -0.2913  0.0694
53432SOL    HW172275   1.897  13.281   8.906  0.6157  0.1636 -1.2188
53432SOL    HW272276   1.966  13.246   9.037 -1.2588 -1.2483 -0.5720
53433SOL     OW72277  13.730   5.986  11.336  0.4303 -0.3375 -0.0243
53433SOL    HW172278  13.723   5.992  11.431 -0.8682 -1.1170 -0.0429
53433SOL    HW272279  13.824   5.989  11.318  0.6328  1.4961  1.1462
53434SOL     OW72280   5.232   5.547   7.905  0.1855 -0.5917  0.3788
53434SOL    HW172281   5.226   5.481   7.973  2.9107  0.1251  1.4415
53434SOL    HW272282   5.196   5.504   7.827  1.5246 -3.2204  1.0901
53435SOL     OW72283  13.418   7.716  10.385 -0.5350  0.1109  0.0741
53435SOL    HW172284  13.496   7.738  10.436 -0.5772  1.3173 -0.3456
53435SOL    HW272285  13.421   7.621  10.376  0.7168  0.1094  0.3394
53436SOL     OW72286   9.881   9.915  13.199 -0.8113  0.3618  0.0549
53436SOL    HW172287   9.925   9.873  13.273 -0.0939 -0.2474 -0.6980
53436SOL    HW272288   9.876   9.846  13.133 -0.1980  1.2669 -0.9627
53437SOL     OW72289   4.155  13.218  13.555 -0.0105  0.2580 -0.1952
53437SOL    HW172290   4.148  13.312  13.539 -0.6731  0.0918 -0.9313
53437SOL    HW272291   4.154  13.211  13.651 -2.0369  0.8813 -0.1185
53438SOL     OW72292   0.507   0.285   8.499 -0.3691 -0.1234 -0.3484
53438SOL    HW172293   0.551   0.219   8.445 -0.0987 -0.3286  0.1239
53438SOL    HW272294   0.479   0.237   8.577 -0.4472  0.2533 -0.1463
53439SOL     OW72295   6.793  11.659   4.846 -0.6333 -0.1277  0.1588
53439SOL    HW172296   6.766  11.586   4.901 -0.8039  1.3322  2.1110
53439SOL    HW272297   6.841  11.718   4.904 -0.1925  1.1574 -1.4118
53440SOL     OW72298   5.981   6.925   0.644 -0.2740 -0.0667 -0.0822
53440SOL    HW172299   5.978   6.907   0.550  0.5472 -1.4900  0.1427
53440SOL    HW272300   6.048   6.992   0.653 -0.2909  0.0126 -0.4959
53441SOL     OW72301   2.616   8.432   2.640  0.2828 -0.0536 -0.1160
53441SOL    HW172302   2.644   8.341   2.650 -0.1356 -0.2119 -0.3742
53441SOL    HW272303   2.678   8.482   2.693  0.3485 -0.5159  0.2503
53442SOL     OW72304   8.883   9.757   1.353  0.0332  0.4305 -0.3014
53442SOL    HW172305   8.882   9.823   1.422 -1.7415  0.8512 -0.6922
53442SOL    HW272306   8.916   9.678   1.396  3.4651  1.7803 -0.1139
53443SOL     OW72307  12.830  11.757   5.000 -0.3715  0.3776  0.0093
53443SOL    HW172308  12.845  11.784   5.091 -1.7620  2.3179 -0.2714
53443SOL    HW272309  12.831  11.661   5.003  1.0889  0.3822  1.7772
53444SOL     OW72310   7.054   1.524   1.186 -0.1252  0.0148  0.2339
53444SOL    HW172311   7.028   1.535   1.277  1.1142 -0.1843  0.6295
53444SOL    HW272312   7.056   1.614   1.151 -2.2282 -0.0268 -0.0967
53445SOL     OW72313   6.102   4.738   1.774 -0.0567 -0.3302  0.0245
53445SOL    HW172314   6.088   4.815   1.828  1.1759 -0.0444 -0.0350
53445SOL    HW272315   6.043   4.671   1.811  0.1708  0.1028  1.1918
53446SOL     OW72316   3.702   7.763   7.486 -0.1087 -0.0198 -0.0501
53446SOL    HW172317   3.621   7.785   7.439  0.2713 -0.1105 -0.7638
53446SOL    HW272318   3.763   7.737   7.417  0.1005 -1.3238  0.5873
53447SOL     OW72319   2.977   8.899   9.607 -0.0541 -0.1042  0.2263
53447SOL    HW172320   2.897   8.854   9.633 -0.4884  1.3880  1.6279
53447SOL    HW272321   3.048   8.850   9.649 -0.5524  0.7003  2.1097
53448SOL     OW72322   1.980   3.624  11.803  0.1332 -0.5364  0.0050
53448SOL    HW172323   1.994   3.639  11.710 -1.5423  0.8697 -0.0663
53448SOL    HW272324   1.941   3.705  11.835  0.8543 -0.9106  1.9928
53449SOL     OW72325  10.561   7.832  12.926 -0.1185 -0.0164 -0.1696
53449SOL    HW172326  10.607   7.911  12.952  0.3274 -0.3776  0.1369
53449SOL    HW272327  10.562   7.776  13.004  2.0490 -1.4943 -1.1506
53450SOL     OW72328   5.975   8.409  12.523  0.3532 -0.3296 -0.4675
53450SOL    HW172329   5.934   8.434  12.606  1.2318  0.1424 -0.1621
53450SOL    HW272330   6.045   8.473  12.510 -0.6426  0.4432 -2.2951
53451SOL     OW72331  12.267   0.456   0.660  0.0854  0.3613 -0.0094
53451SOL    HW172332  12.193   0.459   0.599  0.3993  0.2889 -0.3931
53451SOL    HW272333  12.231   0.413   0.738  0.3474 -2.0326 -1.0944
53452SOL     OW72334   3.461  14.022   3.571  0.4010  0.5821 -0.0496
53452SOL    HW172335   3.519  13.957   3.610 -0.0586  0.1547 -0.0690
53452SOL    HW272336   3.424  13.979   3.494 -2.1068 -0.2158  1.4914
53453SOL     OW72337  10.691   7.036   7.898 -0.0512  0.0789 -0.4603
53453SOL    HW172338  10.751   7.097   7.854  0.3564  0.8827  1.1404
53453SOL    HW272339  10.682   7.070   7.986 -1.8949 -0.7536 -0.2744
53454SOL     OW72340   6.588  12.115   6.726 -0.0326  0.0402 -0.4886
53454SOL    HW172341   6.560  12.029   6.757  1.6870 -0.7260 -0.9536
53454SOL    HW272342   6.627  12.156   6.803 -0.0454  0.0412 -0.4826
53455SOL     OW72343   8.327  11.498  12.838 -0.3988 -0.1500 -0.1400
53455SOL    HW172344   8.399  11.485  12.900 -1.9713 -0.9672  1.5959
53455SOL    HW272345   8.327  11.418  12.784  0.2274  0.0367 -0.4301
53456SOL     OW72346   9.973  12.591  11.721 -0.1975 -0.3325 -0.1368
53456SOL    HW172347  10.020  12.541  11.655  0.8093 -2.4701  2.0376
53456SOL    HW272348   9.882  12.591  11.691  0.1333 -1.7245 -1.2520
53457SOL     OW72349   1.407   4.815   6.346 -0.2191  0.6465 -0.3504
53457SOL    HW172350   1.433   4.816   6.254  0.7331  0.5937 -0.0883
53457SOL    HW272351   1.483   4.848   6.393 -0.9068  1.2101  0.3772
53458SOL     OW72352   5.596  12.570   5.874 -0.0572  0.0145  0.3001
53458SOL    HW172353   5.512  12.614   5.878  0.2480  0.5633  3.4551
53458SOL    HW272354   5.660  12.641   5.870  0.3058 -0.3158  0.2332
53459SOL     OW72355   5.429  11.151  10.573  0.2466  0.1751 -0.3011
53459SOL    HW172356   5.425  11.105  10.657 -3.7630  1.9847  0.7684
53459SOL    HW272357   5.412  11.243  10.596 -1.4583  0.6493 -3.0860
53460SOL     OW72358   5.274   4.260   1.526 -0.0327  0.4873  0.7732
53460SOL    HW172359   5.215   4.274   1.600  1.6976  1.0305  2.1407
53460SOL    HW272360   5.316   4.345   1.513  2.9708 -0.6255  2.2127
53461SOL     OW72361   4.347  11.928  11.456 -0.1556 -0.3598 -0.1514
53461SOL    HW172362   4.306  11.901  11.538  0.0576 -1.7598 -0.4859
53461SOL    HW272363   4.281  11.981  11.412 -1.1410 -1.5158 -0.0972
53462SOL     OW72364   8.169  13.049  11.426 -0.2296  0.1820 -0.3425
53462SOL    HW172365   8.214  13.083  11.349 -0.6749 -0.8016 -1.0643
53462SOL    HW272366   8.076  13.049  11.402 -0.5847  1.4953  0.8504
53463SOL     OW72367   6.837   7.069   5.798 -0.4514  0.0887 -0.1852
53463SOL    HW172368   6.756   7.089   5.845 -0.1504  1.0903 -0.0727
53463SOL    HW272369   6.838   7.131   5.725 -0.9352 -1.4593 -1.5822
53464SOL     OW72370   6.608  11.929  10.700 -0.0350  0.1646  0.1579
53464SOL    HW172371   6.561  11.943  10.782  1.9405  3.5428  0.9001
53464SOL    HW272372   6.654  11.846  10.711  0.8953  0.9686  2.8754
53465SOL     OW72373   6.742   9.420   4.193 -0.0848 -0.3665 -0.3114
53465SOL    HW172374   6.798   9.467   4.132  2.6897  0.4379  2.6075
53465SOL    HW272375   6.701   9.489   4.246  0.0168 -1.0727  0.7209
53466SOL     OW72376   3.070  11.082   9.073 -0.0151 -0.0288 -0.4473
53466SOL    HW172377   3.018  11.028   9.133 -0.4871  0.2125 -0.6347
53466SOL    HW272378   3.161  11.054   9.088  0.0649  1.0184  1.4351
53467SOL     OW72379   2.356   1.535  10.036 -0.2459 -0.6229 -0.3567
53467SOL    HW172380   2.291   1.593  10.075  1.1229 -0.5153  1.9664
53467SOL    HW272381   2.350   1.454  10.087  1.3242 -0.6562 -0.1809
53468SOL     OW72382   7.676   6.739  11.872  0.3147  0.3416 -0.5682
53468SOL    HW172383   7.719   6.655  11.889  0.4976  0.4441 -0.5313
53468SOL    HW272384   7.707   6.765  11.786  0.2723  0.3819 -0.5711
53469SOL     OW72385   9.062   6.048  11.183  0.8532  0.0865  0.0538
53469SOL    HW172386   9.152   6.074  11.165  0.9987  0.0308  0.6859
53469SOL    HW272387   9.065   6.009  11.270  0.0320  1.0551  0.5422
53470SOL     OW72388   1.361   5.963   6.685 -0.4660 -0.1211 -0.1264
53470SOL    HW172389   1.399   6.049   6.669  0.0865 -0.2179  0.6190
53470SOL    HW272390   1.403   5.932   6.765  0.3151 -1.6488 -1.0740
53471SOL     OW72391   5.894   0.450   7.997 -0.4516 -1.3675 -0.2749
53471SOL    HW172392   5.838   0.427   8.071 -2.7366 -2.4121 -2.2068
53471SOL    HW272393   5.875   0.542   7.980  0.0875 -1.1225  0.4266
53472SOL     OW72394   2.452  13.369  12.208 -0.0158  0.2515  0.2346
53472SOL    HW172395   2.445  13.342  12.116 -0.4372 -2.2913  0.9247
53472SOL    HW272396   2.543  13.396  12.219  0.4946 -1.0588 -0.5741
53473SOL     OW72397   2.772  11.099  10.943 -0.3580  0.2625  0.0737
53473SOL    HW172398   2.809  11.057  11.021 -1.6707 -2.1646 -0.4876
53473SOL    HW272399   2.848  11.124  10.891  0.5559 -1.1981  0.6157
53474SOL     OW72400   0.378  11.613   1.329  0.0601 -0.4188  0.2909
53474SOL    HW172401   0.364  11.688   1.271 -0.2501 -0.5314  0.2230
53474SOL    HW272402   0.471  11.620   1.354 -0.1545  0.4348  0.9060
53475SOL     OW72403   5.881   2.940   8.868  0.4631  0.1283  0.6023
53475SOL    HW172404   5.941   2.866   8.877 -0.1485 -0.4191  0.2911
53475SOL    HW272405   5.934   3.017   8.889  0.4182 -0.5961  3.9438
53476SOL     OW72406   2.655   3.611  13.311  0.1840 -0.2861 -0.1194
53476SOL    HW172407   2.573   3.616  13.262 -0.2358 -1.1617  0.4556
53476SOL    HW272408   2.713   3.674  13.269 -0.3778 -0.5478 -1.3196
53477SOL     OW72409  10.896  11.175  13.857  0.1866  0.6013  0.1648
53477SOL    HW172410  10.808  11.167  13.893  0.1118 -0.5210 -0.2435
53477SOL    HW272411  10.888  11.148  13.765  0.6149  2.2349 -0.4033
53478SOL     OW72412   7.686  11.024  11.331 -0.0179 -0.0760  0.4787
53478SOL    HW172413   7.728  11.087  11.389  0.1862 -0.6559  0.9724
53478SOL    HW272414   7.617  10.985  11.385  0.2185 -0.6714  0.3590
53479SOL     OW72415   3.621  12.054   4.250 -0.0325 -0.2440  0.3056
53479SOL    HW172416   3.597  11.980   4.194  2.0709 -0.0254 -0.9562
53479SOL    HW272417   3.632  12.128   4.190  2.3516 -0.0226  0.9097
53480SOL     OW72418  11.749   2.973   2.539  0.8744  0.0316 -0.0891
53480SOL    HW172419  11.682   2.907   2.558  1.4518 -0.4719  0.2204
53480SOL    HW272420  11.705   3.057   2.554  0.2867 -0.2918  0.0199
53481SOL     OW72421   1.360  10.925  11.209 -0.4617 -0.2152  0.2612
53481SOL    HW172422   1.353  10.894  11.119  0.5486 -1.2920  0.5267
53481SOL    HW272423   1.354  10.846  11.262  1.4504  0.0927  1.0067
53482SOL     OW72424   1.295  10.585   9.241  0.3724  0.7597 -0.2366
53482SOL    HW172425   1.361  10.607   9.307 -0.0674 -0.4630  0.6680
53482SOL    HW272426   1.218  10.637   9.265  1.2208  2.8059 -1.7784
53483SOL     OW72427  13.667   2.263  13.390  0.1622 -0.6291  0.4395
53483SOL    HW172428  13.754   2.294  13.369  0.4998  0.5884  3.1948
53483SOL    HW272429  13.682   2.180  13.436  0.1597  0.7501  3.1040
53484SOL     OW72430   2.740   7.043  10.394 -0.2830 -0.2143  0.6024
53484SOL    HW172431   2.776   7.129  10.373 -0.3717 -0.1070  0.8777
53484SOL    HW272432   2.658   7.063  10.440 -1.1492 -0.4501 -0.7769
53485SOL     OW72433   7.366   3.578   1.054 -0.2500 -0.1855  0.2585
53485SOL    HW172434   7.433   3.607   0.992 -0.3318  1.6016  0.9348
53485SOL    HW272435   7.328   3.500   1.014 -0.3675  0.9509 -2.0050
53486SOL     OW72436  10.158   9.980  10.432 -0.3040 -0.4599 -0.5088
53486SOL    HW172437  10.188   9.955  10.345  0.1158  2.1659 -1.2199
53486SOL    HW272438  10.214   9.932  10.492 -1.0623 -2.8625 -1.6079
53487SOL     OW72439   6.862   7.846  10.965 -0.1987  0.1363  0.5382
53487SOL    HW172440   6.855   7.751  10.970 -0.7425  0.1680  0.4237
53487SOL    HW272441   6.888   7.872  11.053 -1.5164 -0.0023  0.9868
53488SOL     OW72442   4.363   4.256   5.771  0.1223  0.3926 -0.0316
53488SOL    HW172443   4.302   4.232   5.700  0.1222  1.6147 -0.4597
53488SOL    HW272444   4.394   4.343   5.747  0.2380  0.7622  1.4054
53489SOL     OW72445   0.972   2.055  13.616  0.1639  0.5111 -0.2697
53489SOL    HW172446   0.920   1.975  13.612  1.1152 -0.1848  0.6286
53489SOL    HW272447   1.045   2.039  13.557  0.9624  0.2276  0.7574
53490SOL     OW72448   2.344   9.250   9.114 -0.6276 -0.0286 -0.7998
53490SOL    HW172449   2.278   9.311   9.148  0.3701 -0.0222  1.2929
53490SOL    HW272450   2.402   9.234   9.189  0.2575 -2.0442 -1.8507
53491SOL     OW72451   4.031   4.826   3.298  0.0366  0.0461  0.1422
53491SOL    HW172452   4.114   4.873   3.306 -0.4099  0.6966  1.1687
53491SOL    HW272453   3.971   4.873   3.356 -0.8087 -0.9541  0.1087
53492SOL     OW72454   2.542   3.614   6.099 -0.5025  0.4219 -0.4571
53492SOL    HW172455   2.589   3.639   6.178 -1.2335 -0.1364  0.1630
53492SOL    HW272456   2.600   3.640   6.027  0.0332  1.2040  0.2450
53493SOL     OW72457   1.718   8.370   8.141 -0.3622 -0.7798  0.1668
53493SOL    HW172458   1.661   8.343   8.213 -0.8542 -0.5538 -0.1286
53493SOL    HW272459   1.781   8.430   8.181  0.8284 -2.4033  0.8595
53494SOL     OW72460  10.347   0.334   6.479  0.1656 -0.2896 -0.3656
53494SOL    HW172461  10.326   0.425   6.459  1.2797 -0.0321 -0.4039
53494SOL    HW272462  10.368   0.295   6.394  2.2231  0.1056 -0.0832
53495SOL     OW72463  11.347   3.605  12.463  0.3072 -0.1405 -0.1533
53495SOL    HW172464  11.303   3.531  12.505  0.9223 -1.3059 -1.4546
53495SOL    HW272465  11.276   3.663  12.437 -0.2840 -0.7813 -0.0222
53496SOL     OW72466   8.544   9.793  13.087 -0.0454 -0.3533  0.3578
53496SOL    HW172467   8.539   9.698  13.077  1.5247 -0.7970  2.9476
53496SOL    HW272468   8.461   9.817  13.130  0.6715 -1.0071  2.1903
53497SOL     OW72469  10.715  13.745   3.009 -0.4049  0.4938  0.0985
53497SOL    HW172470  10.646  13.797   2.968 -0.8404  0.6508  0.9935
53497SOL    HW272471  10.788  13.748   2.948 -0.9406  0.9413 -0.5284
53498SOL     OW72472  12.402   4.622   7.593 -0.1744  0.4417  0.7817
53498SOL    HW172473  12.307   4.624   7.601 -0.5337 -1.2963 -1.8820
53498SOL    HW272474  12.427   4.534   7.619  0.6489  0.7303  1.0044
53499SOL     OW72475   6.385   2.258   1.598 -0.0306  0.4991 -1.0516
53499SOL    HW172476   6.307   2.311   1.614 -1.1355 -1.6345  1.5258
53499SOL    HW272477   6.446   2.284   1.667  0.8328  0.9030 -1.9583
53500SOL     OW72478   9.128  11.041  13.302 -0.2087 -0.1166 -0.3428
53500SOL    HW172479   9.107  11.135  13.305  0.7847  0.1758 -1.6956
53500SOL    HW272480   9.043  10.999  13.288 -0.5443  0.6640 -0.7389
53501SOL     OW72481   5.940  10.659   8.213  0.2358 -0.0769  0.0198
53501SOL    HW172482   6.031  10.689   8.207  0.3774 -0.5316 -0.0778
53501SOL    HW272483   5.909  10.658   8.123  0.2242 -0.2150  0.0261
53502SOL     OW72484   8.672  11.506   0.942 -0.1623 -0.8769  0.5152
53502SOL    HW172485   8.682  11.563   1.018 -0.5850 -1.9244  1.3852
53502SOL    HW272486   8.726  11.430   0.962  2.3685  0.1616 -1.6892
53503SOL     OW72487  13.108   3.370   4.298  0.5496 -0.7045 -0.1357
53503SOL    HW172488  13.078   3.432   4.365  0.4543 -1.7321  0.7958
53503SOL    HW272489  13.028   3.327   4.268  0.7759 -1.4876  0.3589
53504SOL     OW72490  10.215  12.865   3.021  0.3679  0.0583  0.0189
53504SOL    HW172491  10.248  12.863   2.932  0.5141  1.0089  0.0481
53504SOL    HW272492  10.154  12.939   3.024  0.0410 -0.2184  0.5972
53505SOL     OW72493   5.502   6.195  11.363  0.7773 -0.3813 -0.4998
53505SOL    HW172494   5.414   6.168  11.391  1.1284 -0.7884  0.2552
53505SOL    HW272495   5.519   6.143  11.284  1.0331 -1.6428  0.3603
53506SOL     OW72496  11.567   1.357   4.079  0.0228  0.5280  0.0386
53506SOL    HW172497  11.592   1.426   4.141  0.0916 -0.1632  0.7971
53506SOL    HW272498  11.563   1.278   4.132 -0.5444  0.0320 -0.7240
53507SOL     OW72499   9.831   4.504  11.289  0.6638  0.1668  0.3109
53507SOL    HW172500   9.903   4.560  11.316  0.3096  1.5193 -1.3716
53507SOL    HW272501   9.836   4.504  11.193 -0.8746 -0.6572  0.2030
53508SOL     OW72502   3.823   1.278  13.997 -0.5775 -0.1426  0.4897
53508SOL    HW172503   3.822   1.190  14.035 -0.8878 -0.4260 -0.1383
53508SOL    HW272504   3.854   1.264  13.907 -2.2656  0.1384 -0.1709
53509SOL     OW72505  10.805  12.301  10.123 -0.5658 -0.0647  0.2186
53509SOL    HW172506  10.786  12.352  10.202 -0.0859 -0.9974  0.9595
53509SOL    HW272507  10.820  12.212  10.155 -0.0693 -0.3979 -0.8919
53510SOL     OW72508   3.759  11.090  12.421 -0.0610  1.1007 -0.2280
53510SOL    HW172509   3.677  11.110  12.466 -0.3098 -0.8150  0.2601
53510SOL    HW272510   3.814  11.048  12.488  0.3303  0.0307 -1.1943
53511SOL     OW72511   6.219   3.613   5.354  0.0825  0.1347  0.3610
53511SOL    HW172512   6.225   3.582   5.263 -0.8884 -0.2142  0.4024
53511SOL    HW272513   6.125   3.618   5.371  0.2569  0.3900  1.2872
53512SOL     OW72514  12.277   0.215   7.743  0.2543 -0.0881 -1.3189
53512SOL    HW172515  12.314   0.204   7.831 -0.4505  0.5465 -0.9235
53512SOL    HW272516  12.186   0.243   7.759  0.4207  1.0784 -2.2382
53513SOL     OW72517   1.907   9.225  13.908  0.3841 -0.4733  0.5953
53513SOL    HW172518   1.912   9.315  13.875  0.4811 -0.8513 -0.4687
53513SOL    HW272519   1.836   9.185  13.857 -0.3961 -0.7062  1.8233
53514SOL     OW72520   0.887   6.892  11.269  0.3519  0.7439 -0.1035
53514SOL    HW172521   0.884   6.827  11.199  1.6783  1.2161 -0.6209
53514SOL    HW272522   0.978   6.891  11.299  0.4044  2.3667 -0.1268
53515SOL     OW72523  10.770  10.739   4.835  0.5969 -0.2920  0.5938
53515SOL    HW172524  10.815  10.790   4.903 -0.7272  0.5093  0.9249
53515SOL    HW272525  10.815  10.762   4.754  0.2904  1.1482  0.7925
53516SOL     OW72526   8.743   3.608   7.596 -0.6833 -0.4540 -0.2667
53516SOL    HW172527   8.752   3.535   7.658 -3.2010 -2.0578 -1.6028
53516SOL    HW272528   8.833   3.635   7.577  0.3157 -2.6430  0.9647
53517SOL     OW72529  10.358   8.359   6.878  0.6025 -0.2120 -0.2725
53517SOL    HW172530  10.420   8.390   6.944  1.7138 -1.4977 -0.6609
53517SOL    HW272531  10.409   8.355   6.797 -0.2918 -0.2258 -0.8542
53518SOL     OW72532  10.334   8.411  13.008  0.1880  0.0985  0.2379
53518SOL    HW172533  10.239   8.410  13.018  0.2959  2.0254  2.0903
53518SOL    HW272534  10.349   8.459  12.926 -0.3962 -1.5276 -0.8878
53519SOL     OW72535   8.481   5.116   7.832 -0.4611  0.5772  0.1292
53519SOL    HW172536   8.563   5.078   7.865 -1.3404 -0.8424  0.7648
53519SOL    HW272537   8.490   5.112   7.737 -0.5965 -1.4719  0.1646
53520SOL     OW72538  13.204  12.395   2.886 -0.0684 -0.3570  0.4310
53520SOL    HW172539  13.234  12.374   2.798 -0.4538  0.0593  0.1951
53520SOL    HW272540  13.275  12.448   2.924  0.1203 -0.5805  0.3909
53521SOL     OW72541  13.725   1.656   2.282 -0.0085 -0.3880 -0.2756
53521SOL    HW172542  13.736   1.744   2.318  0.5508  0.7047 -2.8506
53521SOL    HW272543  13.761   1.597   2.349  2.1523  1.5657  0.4021
53522SOL     OW72544   4.924  11.389   7.582  0.0777 -0.1511 -1.1096
53522SOL    HW172545   4.912  11.294   7.593 -0.1906 -0.0871 -0.8185
53522SOL    HW272546   4.960  11.399   7.494 -0.9626 -0.4467 -1.5799
53523SOL     OW72547   6.150   3.756   7.614  0.2875 -0.0757  0.6192
53523SOL    HW172548   6.119   3.783   7.528  0.4580  0.5521  0.7445
53523SOL    HW272549   6.073   3.716   7.656  0.0781  0.0470  0.3520
53524SOL     OW72550   9.282   0.772  11.039  0.1120 -0.2132  0.0740
53524SOL    HW172551   9.271   0.825  10.960 -0.4084 -0.4035  0.0210
53524SOL    HW272552   9.260   0.832  11.111  1.0874  0.1180  0.1218
53525SOL     OW72553  11.837  12.180   4.679  0.6144 -0.1952 -0.2167
53525SOL    HW172554  11.786  12.111   4.636  0.6300 -1.0032  1.0197
53525SOL    HW272555  11.926  12.145   4.682  0.0128 -1.8757  3.7199
53526SOL     OW72556   1.485   5.537   8.118  0.5093 -0.2290 -0.2958
53526SOL    HW172557   1.542   5.594   8.066  0.9522 -0.8761 -0.5437
53526SOL    HW272558   1.442   5.481   8.053  0.5466 -0.5851 -0.0164
53527SOL     OW72559   0.468   8.873  10.733  0.2677 -0.2009  0.3074
53527SOL    HW172560   0.535   8.926  10.777  0.5343 -0.0612 -0.2576
53527SOL    HW272561   0.459   8.795  10.789 -0.0991  0.4142  1.1196
53528SOL     OW72562   8.917  11.105  10.425  0.1901 -0.2773  0.4811
53528SOL    HW172563   8.968  11.035  10.465  1.8660  0.1894 -0.7327
53528SOL    HW272564   8.979  11.178  10.417 -0.5599  0.2165 -1.3344
53529SOL     OW72565   7.017   7.376  11.147  0.3756  0.4451 -0.1819
53529SOL    HW172566   7.092   7.432  11.160  0.2437  0.5700  0.0505
53529SOL    HW272567   7.053   7.294  11.114  0.4033  1.3620 -2.6703
53530SOL     OW72568   4.644   3.295  11.507 -0.2634 -0.6467 -0.0410
53530SOL    HW172569   4.635   3.308  11.412 -0.8511 -0.2747  0.0620
53530SOL    HW272570   4.738   3.306  11.524 -0.6133  3.9190  0.0756
53531SOL     OW72571  10.078  13.999   3.286  0.6085  0.1733 -0.1736
53531SOL    HW172572  10.157  13.949   3.266 -0.0441 -1.1121  0.3076
53531SOL    HW272573  10.042  13.955   3.363  0.2517  1.7073  0.5777
53532SOL     OW72574   6.829   8.139   9.185  0.4278 -0.3828  0.0406
53532SOL    HW172575   6.905   8.127   9.241  0.1509 -2.3263  0.0628
53532SOL    HW272576   6.822   8.057   9.136 -0.7750  0.3387 -1.0698
53533SOL     OW72577   5.472   2.806   1.490 -0.3138 -0.0744  0.3585
53533SOL    HW172578   5.538   2.746   1.526 -1.0851  0.5022  2.9484
53533SOL    HW272579   5.506   2.893   1.509 -0.1878  0.3328 -1.5197
53534SOL     OW72580   6.984   5.423   6.909  0.8981  0.1102 -0.9672
53534SOL    HW172581   6.899   5.466   6.918  0.5216 -0.7027 -0.4999
53534SOL    HW272582   7.009   5.399   6.998  0.6941 -1.3480 -1.2680
53535SOL     OW72583  12.916  11.116   1.431 -0.9128 -0.0430  0.0427
53535SOL    HW172584  12.919  11.183   1.499  0.6624 -2.4509  2.5877
53535SOL    HW272585  13.007  11.106   1.403 -0.9264 -1.7626  0.4966
53536SOL     OW72586   4.921   3.367  11.402 -0.3841  0.2074 -0.3274
53536SOL    HW172587   4.954   3.455  11.383 -0.0352  0.0711 -0.3643
53536SOL    HW272588   4.932   3.357  11.496 -0.0667  0.0635 -0.3771
53537SOL     OW72589   5.382   2.611   2.915 -0.2729 -0.1230 -0.2319
53537SOL    HW172590   5.289   2.613   2.941 -0.6719  0.3673 -1.6324
53537SOL    HW272591   5.424   2.673   2.975 -1.2212  1.2081 -0.8987
53538SOL     OW72592  12.189   5.398  13.216 -0.2699  0.6556 -0.9736
53538SOL    HW172593  12.210   5.491  13.204  0.8470  0.9205  2.0816
53538SOL    HW272594  12.093   5.396  13.223 -0.2519  2.4392  3.1482
53539SOL     OW72595  13.410   2.252  10.341  0.3419  0.0767  0.1654
53539SOL    HW172596  13.417   2.180  10.404  0.2071  0.0613  0.1637
53539SOL    HW272597  13.461   2.323  10.380  0.3971  0.0113  0.2131
53540SOL     OW72598  13.688   5.332   4.460 -0.3876  0.7095 -0.1580
53540SOL    HW172599  13.779   5.306   4.469 -0.3525 -0.6920 -3.1375
53540SOL    HW272600  13.646   5.256   4.419 -1.9486  2.7074 -2.5765
53541SOL     OW72601   3.158   9.543   1.171 -0.6333  0.3747  1.1303
53541SOL    HW172602   3.102   9.498   1.108  0.0920  0.6475  0.2703
53541SOL    HW272603   3.144   9.636   1.153  0.4687  0.4449  0.5501
53542SOL     OW72604   2.059   2.424   2.932  0.6022 -0.5343 -0.5939
53542SOL    HW172605   2.086   2.444   3.021  1.8240 -1.3227 -0.7606
53542SOL    HW272606   1.965   2.413   2.937  0.7651 -1.4921  0.7813
53543SOL     OW72607   7.907   6.728  11.099 -0.0078 -0.1796  0.4576
53543SOL    HW172608   7.876   6.682  11.178 -0.9183  0.0629  0.2477
53543SOL    HW272609   7.827   6.749  11.051  0.4608  0.8102  0.0941
53544SOL     OW72610   6.687   0.714   4.787 -0.1291  0.3308 -0.2534
53544SOL    HW172611   6.617   0.742   4.728  1.4652  1.8982 -1.5070
53544SOL    HW272612   6.678   0.772   4.863  0.2823  1.0798 -0.7676
53545SOL     OW72613  12.732   7.517   0.202 -0.3133 -0.2206 -0.1276
53545SOL    HW172614  12.702   7.512   0.293 -0.3846 -1.6547 -0.2111
53545SOL    HW272615  12.745   7.426   0.176 -0.9016  0.1285 -1.7606
53546SOL     OW72616  12.956   3.176   7.841  0.0229  0.2008 -0.0515
53546SOL    HW172617  12.899   3.127   7.900 -0.0979  0.0919 -0.2548
53546SOL    HW272618  12.946   3.267   7.869  2.1311 -0.0890  1.9387
53547SOL     OW72619   6.162   2.908   9.034  0.1683  0.0032  0.0611
53547SOL    HW172620   6.257   2.904   9.039  0.3886  1.9923 -1.4465
53547SOL    HW272621   6.139   2.845   8.966  0.3350 -0.9034  0.8298
53548SOL     OW72622  10.258  13.271  12.992  0.2015  0.0132  0.6616
53548SOL    HW172623  10.183  13.241  13.043 -0.1343 -0.2461  0.0311
53548SOL    HW272624  10.285  13.353  13.034 -1.5181  1.0404 -0.1058
53549SOL     OW72625   0.001   5.480   4.255 -0.4235 -0.5394 -0.2230
53549SOL    HW172626   0.029   5.571   4.260  2.4322 -1.3928  2.3414
53549SOL    HW272627  -0.054   5.476   4.176 -0.2240  3.2183 -0.7266
53550SOL     OW72628   9.732   3.573  11.737  0.0100 -0.8738  0.3190
53550SOL    HW172629   9.653   3.520  11.742 -1.1264  0.5779 -0.9672
53550SOL    HW272630   9.798   3.516  11.699 -0.7774 -1.7457  0.2391
53551SOL     OW72631   8.757  11.405  10.511  0.9242  0.2064  0.4138
53551SOL    HW172632   8.727  11.479  10.563  0.0336 -1.0726  1.8192
53551SOL    HW272633   8.844  11.386  10.545  0.2193 -0.8248  1.7355
53552SOL     OW72634   2.470   6.772   7.078  0.2327  0.3389 -0.4031
53552SOL    HW172635   2.537   6.809   7.020  0.3463  0.8767  0.0652
53552SOL    HW272636   2.510   6.694   7.115  0.0048 -0.2530 -1.3745
53553SOL     OW72637   0.298  12.081   0.113 -0.1513 -0.1758  0.2182
53553SOL    HW172638   0.348  12.156   0.145  2.2403 -1.4534 -0.2829
53553SOL    HW272639   0.332  12.065   0.025 -2.4879 -0.2877 -0.7321
53554SOL     OW72640   6.965  11.073  12.020 -0.0822  0.1723 -0.4179
53554SOL    HW172641   6.952  10.978  12.013  3.0645 -0.5629  1.7083
53554SOL    HW272642   7.005  11.098  11.937  0.7924 -0.7769 -0.3102
53555SOL     OW72643  12.641   9.672   8.562  0.1608  0.2632 -0.2646
53555SOL    HW172644  12.552   9.653   8.532  0.4122 -0.2946 -0.6710
53555SOL    HW272645  12.648   9.767   8.558 -0.0422  0.2456 -1.3227
53556SOL     OW72646  13.167   9.503   6.659  0.4219  0.1212 -0.3876
53556SOL    HW172647  13.178   9.449   6.581  0.3178 -0.6390  0.1084
53556SOL    HW272648  13.151   9.440   6.729  3.4154  0.5477  0.8172
53557SOL     OW72649   6.944   4.291   9.164  0.1503  0.1675 -0.2128
53557SOL    HW172650   6.908   4.273   9.077 -1.5409  3.3552 -0.3290
53557SOL    HW272651   7.037   4.306   9.149  0.5997 -2.6950 -0.8303
53558SOL     OW72652   6.848   6.667   5.252  0.0033 -0.2422  0.0593
53558SOL    HW172653   6.871   6.726   5.323  1.6297  0.5114 -1.0366
53558SOL    HW272654   6.909   6.594   5.260  1.0200  0.4337 -1.2459
53559SOL     OW72655  12.575   4.911   1.994 -0.3424 -0.2117  0.1919
53559SOL    HW172656  12.515   4.915   2.068 -2.4087  0.7537 -1.4142
53559SOL    HW272657  12.628   4.991   2.002  1.0712 -1.2526  1.8258
53560SOL     OW72658   8.767   5.982   0.265 -0.5226 -0.2621 -0.1005
53560SOL    HW172659   8.750   5.981   0.360 -1.0664 -0.8265 -0.1957
53560SOL    HW272660   8.861   6.002   0.258 -1.1241  3.4068  0.4264
53561SOL     OW72661   2.765   9.229   8.574 -1.1680 -0.1760 -0.4397
53561SOL    HW172662   2.686   9.177   8.557  0.8977 -2.7529 -3.3316
53561SOL    HW272663   2.800   9.248   8.487  0.6840  2.1181  0.7072
53562SOL     OW72664  10.238   5.145   4.919 -0.0297  0.1349  0.7623
53562SOL    HW172665  10.321   5.120   4.959  0.5947  0.9036 -0.0019
53562SOL    HW272666  10.181   5.070   4.933  1.4039 -1.2852 -0.4494
53563SOL     OW72667   8.861   6.529   7.818  0.5681  0.3789 -0.3701
53563SOL    HW172668   8.915   6.560   7.746  1.7216 -2.0599 -0.6519
53563SOL    HW272669   8.921   6.480   7.874 -0.4434  1.5325  1.9059
53564SOL     OW72670   2.067   9.870   5.645  0.3856  0.3642  0.3444
53564SOL    HW172671   2.051   9.844   5.736  2.2719  0.8562  0.8441
53564SOL    HW272672   1.983   9.855   5.602 -0.3318 -0.6509  1.9771
53565SOL     OW72673   9.870  12.377   1.926  0.5712 -0.5424  0.2475
53565SOL    HW172674   9.958  12.416   1.926 -0.2398  1.4754  2.0294
53565SOL    HW272675   9.825  12.420   1.854  0.8092 -1.0347 -0.2002
53566SOL     OW72676   8.200   6.541   7.049 -0.3411 -0.2055 -0.0875
53566SOL    HW172677   8.119   6.562   7.096  0.2994 -0.6696  1.2924
53566SOL    HW272678   8.236   6.626   7.023 -1.1378  0.0135 -0.4961
53567SOL     OW72679   8.538  11.171   0.026 -0.2168 -0.7463 -0.2074
53567SOL    HW172680   8.523  11.140   0.115 -1.7192 -0.2061 -0.2477
53567SOL    HW272681   8.482  11.115  -0.028 -1.0552  0.4116 -0.5504
53568SOL     OW72682   0.520   3.181   9.720  0.2124  0.6216 -0.2279
53568SOL    HW172683   0.563   3.237   9.784  0.8779  1.2187 -1.1745
53568SOL    HW272684   0.462   3.239   9.671 -0.4639  0.1298 -0.0341
53569SOL     OW72685   3.649   7.560  10.403 -0.3806 -0.5994 -0.2593
53569SOL    HW172686   3.724   7.575  10.460 -1.4656 -1.9321  1.6420
53569SOL    HW272687   3.593   7.636  10.416  0.1094 -0.1386 -0.8121
53570SOL     OW72688  12.575   0.121   7.839 -0.2187  0.2156 -0.3660
53570SOL    HW172689  12.584   0.149   7.748 -1.1241  1.4834 -0.0892
53570SOL    HW272690  12.594   0.200   7.890  0.5976 -0.5604  0.5643
53571SOL     OW72691   3.897   4.392   0.528 -0.5193 -0.5306 -0.0259
53571SOL    HW172692   3.905   4.341   0.609 -0.8329 -0.1939  0.2211
53571SOL    HW272693   3.978   4.443   0.524 -0.9325  0.2031  0.6067
53572SOL     OW72694   9.274   4.408   2.949  0.3753  0.1423 -0.2554
53572SOL    HW172695   9.226   4.397   2.867 -1.1414 -0.2414  0.6321
53572SOL    HW272696   9.328   4.329   2.957 -0.0910 -0.2033 -0.4945
53573SOL     OW72697   7.161   7.529  10.200  0.3196 -0.1673 -0.4093
53573SOL    HW172698   7.239   7.494  10.243  1.2284  1.9425 -0.2513
53573SOL    HW272699   7.134   7.603  10.255 -0.3600  0.6216 -1.7633
53574SOL     OW72700   6.140   9.284   0.681  0.5835  0.3556 -0.1599
53574SOL    HW172701   6.170   9.204   0.637  1.2873 -0.1107  1.1179
53574SOL    HW272702   6.179   9.355   0.629 -0.2350 -0.0898 -1.4436
53575SOL     OW72703  13.489   8.972   2.162 -0.1978  0.0994 -0.5187
53575SOL    HW172704  13.556   9.006   2.222 -1.4920  0.8807  0.5375
53575SOL    HW272705  13.475   9.043   2.100  0.6450 -0.4488 -1.3678
53576SOL     OW72706   0.894   1.434   6.685 -0.2920  0.2448 -0.1242
53576SOL    HW172707   0.816   1.409   6.636 -0.4257 -2.1491  1.1518
53576SOL    HW272708   0.946   1.354   6.692  0.7584  1.0014  1.7235
53577SOL     OW72709   3.632   8.660  13.151  0.0359  0.0432 -0.1870
53577SOL    HW172710   3.653   8.713  13.074 -0.0786 -0.3350 -0.4791
53577SOL    HW272711   3.705   8.676  13.211 -0.0165  0.5618 -0.2549
53578SOL     OW72712  14.004   4.792   7.507 -0.5494  0.4987  0.5027
53578SOL    HW172713  14.066   4.721   7.490 -3.2683 -1.8307 -0.5215
53578SOL    HW272714  14.036   4.834   7.587  2.2620 -0.5400  0.0441
53579SOL     OW72715   2.175   2.336   2.497 -0.4012  0.2526 -0.1433
53579SOL    HW172716   2.244   2.368   2.556 -1.2206  1.2498  0.3024
53579SOL    HW272717   2.106   2.306   2.555 -0.6143 -0.1314 -0.5931
53580SOL     OW72718   8.654   7.074   5.885  0.1075 -0.4929 -0.1815
53580SOL    HW172719   8.586   7.087   5.819 -0.7019  0.1598  0.7521
53580SOL    HW272720   8.651   6.980   5.905  1.5844 -1.0652 -2.3222
53581SOL     OW72721   7.224   4.862   8.144 -0.1676 -0.5005  1.0035
53581SOL    HW172722   7.216   4.931   8.210  2.7335  0.5099  0.4586
53581SOL    HW272723   7.313   4.873   8.109 -0.9872 -2.0789 -1.8617
53582SOL     OW72724   3.541   1.222   2.871  0.4117  0.1160 -0.2895
53582SOL    HW172725   3.507   1.141   2.833  0.7961  0.6163 -1.8014
53582SOL    HW272726   3.636   1.213   2.868  0.4914 -0.5520  2.2938
53583SOL     OW72727   7.250   9.016  11.369  0.2453  0.4439  0.1236
53583SOL    HW172728   7.325   9.071  11.393  1.1143 -1.6086  2.4125
53583SOL    HW272729   7.221   8.976  11.450  0.1926 -3.1322 -1.4700
53584SOL     OW72730  13.665   8.489   7.791  0.0967  0.3593 -0.5939
53584SOL    HW172731  13.743   8.453   7.748  0.2716 -0.1079  0.1019
53584SOL    HW272732  13.675   8.584   7.782  1.0685  0.3287  0.0306
53585SOL     OW72733   1.169   3.670   7.906  0.7106  0.2878  0.1156
53585SOL    HW172734   1.123   3.655   7.823 -0.6658  1.1073  0.6905
53585SOL    HW272735   1.204   3.759   7.898  0.6178  0.3502  0.3918
53586SOL     OW72736  11.226   2.844   8.393  0.2311 -0.2282 -0.3771
53586SOL    HW172737  11.145   2.886   8.362  1.2491  1.0092 -1.5103
53586SOL    HW272738  11.197   2.762   8.432 -1.5121 -0.1513 -1.3992
53587SOL     OW72739  10.171  10.977   4.354 -0.2951  0.0699  0.1583
53587SOL    HW172740  10.095  11.032   4.336  0.3676  0.3509 -2.0423
53587SOL    HW272741  10.195  10.941   4.269  2.0081 -0.0790  0.8156
53588SOL     OW72742  11.083  13.708  11.103 -0.7675  0.1623 -0.8084
53588SOL    HW172743  11.157  13.686  11.046 -0.4462  0.5045 -0.5295
53588SOL    HW272744  11.085  13.640  11.171 -0.8436  0.0459 -0.9223
53589SOL     OW72745   5.131  13.214   8.646 -0.2644  0.3197  0.0997
53589SOL    HW172746   5.215  13.175   8.670 -0.2075  0.3606 -0.0326
53589SOL    HW272747   5.133  13.302   8.683 -0.1227  0.4298 -0.1671
53590SOL     OW72748  12.221   6.666   6.219 -0.2535 -0.5366 -0.1127
53590SOL    HW172749  12.137   6.678   6.175  0.5795 -1.0452 -1.9408
53590SOL    HW272750  12.282   6.721   6.169  0.4048  0.2953  1.5530
53591SOL     OW72751  13.892   6.787   6.370 -0.5712  0.0550  0.0973
53591SOL    HW172752  13.852   6.713   6.325 -2.4603  2.1376 -1.9306
53591SOL    HW272753  13.862   6.780   6.461 -0.5014 -1.7403  0.0002
53592SOL     OW72754   8.581  13.685  13.920 -0.0170 -0.2799 -0.5011
53592SOL    HW172755   8.532  13.603  13.931 -3.3100  1.6585  0.6926
53592SOL    HW272756   8.595  13.691  13.825  0.3315 -2.1787 -0.6190
53593SOL     OW72757   0.792   1.937   6.587 -0.3433 -0.0893  0.4241
53593SOL    HW172758   0.717   1.948   6.528  0.1871  1.6441  0.0253
53593SOL    HW272759   0.753   1.935   6.675 -1.0166 -1.2873  0.1111
53594SOL     OW72760   7.538  12.407   3.059 -0.1202 -0.3245 -0.0011
53594SOL    HW172761   7.480  12.415   3.135  1.0908  0.4157  0.8964
53594SOL    HW272762   7.511  12.479   3.001  0.8253  0.9817  1.1044
53595SOL     OW72763   3.260  13.818   9.917 -0.1363  0.5711 -0.5296
53595SOL    HW172764   3.324  13.747   9.922 -2.4033 -1.5675  0.4642
53595SOL    HW272765   3.283  13.877   9.989  1.6176  0.7360 -1.1837
53596SOL     OW72766  11.558  11.806  10.007  0.3631 -0.0345  0.1050
53596SOL    HW172767  11.517  11.763  10.082 -1.2134 -1.6865 -1.5899
53596SOL    HW272768  11.570  11.736   9.943  1.8625  1.2716 -1.1303
53597SOL     OW72769   8.231   8.092   4.414 -0.1567  0.0479  0.6812
53597SOL    HW172770   8.324   8.090   4.435 -0.2884 -1.4241  1.2290
53597SOL    HW272771   8.187   8.071   4.497 -0.9022 -0.7221  0.1088
53598SOL     OW72772   4.362   1.052  12.332  0.0304 -0.5190  0.0947
53598SOL    HW172773   4.333   1.010  12.251 -2.3107  0.3084  0.4510
53598SOL    HW272774   4.361   1.146  12.311 -2.0814 -0.1813  1.4605
53599SOL     OW72775   6.540   3.732  12.284 -0.1357  0.0376  0.2072
53599SOL    HW172776   6.538   3.827  12.288 -0.9143 -0.0202  1.4976
53599SOL    HW272777   6.465   3.704  12.335  0.2649 -1.2813  0.1109
53600SOL     OW72778  10.245   1.171  12.942  0.2459 -0.0591  0.1663
53600SOL    HW172779  10.330   1.195  12.980  0.0549  0.0118  0.5480
53600SOL    HW272780  10.213   1.253  12.902 -0.1879  0.2139  1.0569
53601SOL     OW72781  10.794   2.068   4.626 -1.0335 -0.8486 -0.2024
53601SOL    HW172782  10.767   2.039   4.713 -0.5486 -0.8254 -0.0410
53601SOL    HW272783  10.844   2.148   4.642 -1.2098 -0.6709 -0.5298
53602SOL     OW72784   1.397   7.832  10.598  0.2619 -0.2224 -0.5187
53602SOL    HW172785   1.351   7.750  10.580 -0.1347 -0.2353  0.4883
53602SOL    HW272786   1.394   7.840  10.693 -1.3514  1.9131 -0.6999
53603SOL     OW72787  10.674   3.597   4.103 -0.4586  0.1503 -0.4149
53603SOL    HW172788  10.762   3.584   4.070  0.6799  0.8471  2.1198
53603SOL    HW272789  10.636   3.664   4.045  0.4389 -0.5490 -1.8526
53604SOL     OW72790   5.038   8.254   1.218 -0.3164  1.1011  0.6116
53604SOL    HW172791   4.981   8.269   1.143  1.8523  0.6835 -1.2096
53604SOL    HW272792   5.120   8.225   1.181  0.7927  0.6483  3.1944
53605SOL     OW72793   9.406   5.247   3.150 -0.8300 -0.1793  0.6809
53605SOL    HW172794   9.438   5.252   3.240 -0.3058 -0.2336  0.5023
53605SOL    HW272795   9.462   5.307   3.101 -1.0749 -0.1938  0.3756
53606SOL     OW72796   6.232   3.469   2.189  0.2358 -0.0643  0.3435
53606SOL    HW172797   6.190   3.395   2.145 -0.3443  0.2211  0.4016
53606SOL    HW272798   6.169   3.541   2.179 -1.0081 -0.5441  3.5777
53607SOL     OW72799   1.332   7.945   9.951  0.1697 -0.0031 -0.2455
53607SOL    HW172800   1.288   8.013   9.900  1.5313  0.6783 -0.5696
53607SOL    HW272801   1.297   7.863   9.917 -0.2767  0.4852 -1.0091
53608SOL     OW72802   2.808   3.350   5.921 -0.1160  0.5729  0.4121
53608SOL    HW172803   2.880   3.297   5.955 -0.1441 -0.2748 -0.7621
53608SOL    HW272804   2.730   3.296   5.933 -0.0864  0.0929 -1.1741
53609SOL     OW72805  13.519   3.139  12.826 -0.1769  0.1396 -0.2717
53609SOL    HW172806  13.597   3.125  12.772 -1.2205 -4.8357 -0.9729
53609SOL    HW272807  13.552   3.144  12.916  1.0349 -1.0409 -0.6229
53610SOL     OW72808   7.038  11.305   1.574  0.4095  0.3813  0.2388
53610SOL    HW172809   6.955  11.292   1.619 -0.5452  2.3291 -0.8489
53610SOL    HW272810   7.074  11.385   1.612  0.1505  1.4104 -1.5535
53611SOL     OW72811  11.625  12.324  13.364  0.3344  0.2951  0.7071
53611SOL    HW172812  11.536  12.343  13.395  0.6128  0.8642  1.1926
53611SOL    HW272813  11.613  12.284  13.278 -0.3683  1.1171  0.4076
53612SOL     OW72814   7.673   6.495   0.924  0.0596  0.0395  0.2456
53612SOL    HW172815   7.689   6.549   0.846  0.0323  0.0122  0.2208
53612SOL    HW272816   7.744   6.431   0.924  2.1629  2.1861  2.1791
53613SOL     OW72817   7.365   2.279   4.372 -0.2252  0.2234  0.7115
53613SOL    HW172818   7.437   2.228   4.409  1.9816  1.0283 -2.0673
53613SOL    HW272819   7.316   2.216   4.318  0.8978  0.3964 -0.5825
53614SOL     OW72820   9.227   8.120  11.942  0.2121 -0.5509 -0.2330
53614SOL    HW172821   9.186   8.080  12.019  0.8090  0.5560  0.6934
53614SOL    HW272822   9.306   8.162  11.976  0.0153  0.7438 -1.2811
53615SOL     OW72823   4.513   4.702  12.709  0.0167 -0.0883 -0.5257
53615SOL    HW172824   4.474   4.684  12.623 -1.5775 -1.1507  0.3776
53615SOL    HW272825   4.459   4.653  12.771  1.8894 -0.3650  0.9751
53616SOL     OW72826   2.179   7.900   5.617 -0.6799 -0.4120 -0.0824
53616SOL    HW172827   2.193   7.976   5.561  0.2200  0.4982  1.2968
53616SOL    HW272828   2.183   7.935   5.706 -0.9761 -1.9616  0.5803
53617SOL     OW72829   6.296  11.461   4.941 -0.1489  0.1808  0.1803
53617SOL    HW172830   6.374  11.425   4.985  0.6304  1.6962  0.1139
53617SOL    HW272831   6.306  11.436   4.850 -0.3654 -0.6588  0.3823
53618SOL     OW72832   0.550   4.614   8.823 -0.0360 -0.3698  0.6711
53618SOL    HW172833   0.570   4.527   8.790 -0.1165  0.0582 -0.5480
53618SOL    HW272834   0.533   4.667   8.745 -0.2435  0.6790  1.3953
53619SOL     OW72835  13.227   2.083  13.684  0.1792  0.3605  0.2159
53619SOL    HW172836  13.163   2.153  13.677  1.1380  1.2921  0.5096
53619SOL    HW272837  13.264   2.075  13.597 -0.3532 -0.2176  0.0319
53620SOL     OW72838  12.770   8.163  12.469 -0.0792 -0.1066 -0.7317
53620SOL    HW172839  12.807   8.137  12.554  3.0662  0.6016 -1.7601
53620SOL    HW272840  12.802   8.098  12.407 -1.3295  0.0685 -1.6114
53621SOL     OW72841   6.268   4.984   6.801  0.3133 -0.0498  0.5895
53621SOL    HW172842   6.206   5.051   6.773  1.0647  0.1085 -0.7779
53621SOL    HW272843   6.336   5.032   6.848  0.6148  0.0835  0.0157
53622SOL     OW72844   4.596   4.432  13.206 -0.0243 -0.1233 -0.0034
53622SOL    HW172845   4.639   4.416  13.290  2.4383  0.3892 -1.0875
53622SOL    HW272846   4.536   4.504  13.223  0.8002  0.3027  1.2292
53623SOL     OW72847   6.660  11.848  12.192  0.2245  0.4052  0.2362
53623SOL    HW172848   6.646  11.762  12.151 -2.2162  0.4963  0.7253
53623SOL    HW272849   6.671  11.908  12.119  1.2189 -0.1779 -0.1233
53624SOL     OW72850   2.845   5.931   2.112 -0.1114  0.2767 -0.3569
53624SOL    HW172851   2.830   5.844   2.148  0.6922 -0.0990 -0.8972
53624SOL    HW272852   2.761   5.976   2.120  0.2814  0.6388  3.0271
53625SOL     OW72853   1.009  11.627   1.199  0.0532 -0.4038  0.4671
53625SOL    HW172854   0.995  11.701   1.139  1.5673  0.2453  0.8766
53625SOL    HW272855   0.959  11.651   1.277  3.2207  1.9855  1.9831
53626SOL     OW72856   3.408   5.422   9.026 -0.4539  0.2415  0.0996
53626SOL    HW172857   3.430   5.416   9.119 -2.9748 -2.3151  0.6595
53626SOL    HW272858   3.400   5.516   9.010  0.9263  0.8084  2.1763
53627SOL     OW72859  12.495   2.072   4.408 -0.5459  0.4611 -0.1016
53627SOL    HW172860  12.549   2.010   4.457  0.6220  2.5867  1.4855
53627SOL    HW272861  12.418   2.085   4.463 -1.9702 -1.2742 -1.5594
53628SOL     OW72862  13.209   7.056  11.519 -0.2498 -0.7090 -0.4228
53628SOL    HW172863  13.293   7.009  11.518 -0.8762 -2.2312  2.8646
53628SOL    HW272864  13.219   7.119  11.590 -1.4806 -0.0392 -0.8272
53629SOL     OW72865   1.293   3.294   3.073 -0.4901 -0.0917  0.0277
53629SOL    HW172866   1.222   3.237   3.045 -1.5763  0.2883  1.8193
53629SOL    HW272867   1.327   3.252   3.153 -0.6380  1.2021  0.7954
53630SOL     OW72868   5.778   9.422   1.216 -0.0575  0.4701 -0.3824
53630SOL    HW172869   5.821   9.389   1.138  1.5030 -0.5289  0.8447
53630SOL    HW272870   5.707   9.360   1.233  1.0390 -0.6492  0.2566
53631SOL     OW72871   5.770   3.901   4.396  0.1147 -0.1560 -0.5630
53631SOL    HW172872   5.690   3.896   4.448  1.8382 -1.1313  2.2107
53631SOL    HW272873   5.759   3.834   4.328 -2.0490  0.8876 -1.3384
53632SOL     OW72874  14.005  11.710   9.665 -0.3075 -1.1702 -0.2161
53632SOL    HW172875  13.951  11.787   9.683 -0.1986 -0.9378 -0.8669
53632SOL    HW272876  14.082  11.722   9.721 -1.1520 -1.7726  1.1245
53633SOL     OW72877   8.365   5.241   2.694 -0.1881 -0.2277 -0.2766
53633SOL    HW172878   8.454   5.262   2.723 -0.4475 -1.5498  1.6741
53633SOL    HW272879   8.376   5.188   2.616  0.7567 -0.5352  0.0547
53634SOL     OW72880   3.718   9.188   4.940  0.7448  0.7748  0.6295
53634SOL    HW172881   3.721   9.132   5.018  0.2049 -0.7014 -0.3656
53634SOL    HW272882   3.807   9.183   4.904  0.1781 -1.3747 -0.6958
53635SOL     OW72883   0.077   9.213   1.408  0.0284 -0.0362 -0.6797
53635SOL    HW172884   0.020   9.259   1.470 -0.2497 -0.5745 -0.5292
53635SOL    HW272885   0.138   9.163   1.463 -2.8509 -3.9626 -0.6100
53636SOL     OW72886   2.715  11.692   2.813 -0.5012  0.7158  0.3962
53636SOL    HW172887   2.631  11.649   2.797  0.4155 -0.6514 -0.9547
53636SOL    HW272888   2.760  11.634   2.873 -0.2651  1.1271  0.6169
53637SOL     OW72889  11.660   2.469   6.214 -0.0576 -0.1449 -0.2771
53637SOL    HW172890  11.588   2.530   6.231  1.6965  1.8205  0.5336
53637SOL    HW272891  11.679   2.431   6.300  0.4194  0.0208 -0.3039
53638SOL     OW72892   4.201   0.847   2.280  0.0611  0.1748 -0.2375
53638SOL    HW172893   4.205   0.782   2.350 -0.2803 -1.7866 -1.9554
53638SOL    HW272894   4.207   0.796   2.199 -2.0605  2.1074 -1.7252
53639SOL     OW72895   1.917  14.035   4.380  0.0025 -0.0111  0.0772
53639SOL    HW172896   1.938  14.109   4.323  2.2559 -1.5465 -1.2363
53639SOL    HW272897   1.823  14.043   4.396  0.2139  3.3775  0.4393
53640SOL     OW72898  13.327   2.918  13.654  0.1244 -0.0343  0.2748
53640SOL    HW172899  13.238   2.944  13.632 -0.1944 -0.3802  1.1152
53640SOL    HW272900  13.341   2.838  13.604  0.0173  0.0981  0.0305
53641SOL     OW72901  10.141  13.822  10.235  0.3140 -0.0452 -0.2518
53641SOL    HW172902  10.196  13.836  10.158  1.5823 -1.9205  0.2611
53641SOL    HW272903  10.187  13.865  10.307  0.3868 -0.4085 -0.0803
53642SOL     OW72904   2.950  10.653   3.532  0.3399 -0.3083  0.3997
53642SOL    HW172905   2.913  10.613   3.611  1.9495  0.0572  1.3855
53642SOL    HW272906   2.915  10.742   3.532 -1.6543 -1.0453 -0.7053
53643SOL     OW72907   9.652  13.646  10.135  0.4638  0.7404  0.3488
53643SOL    HW172908   9.716  13.716  10.146  1.2003  0.1859 -0.3273
53643SOL    HW272909   9.687  13.592  10.065 -0.5835  0.2335  0.1979
53644SOL     OW72910   1.639  13.955   5.213 -0.2949 -0.2426  0.0635
53644SOL    HW172911   1.611  14.043   5.188 -0.0141 -0.8568 -2.7275
53644SOL    HW272912   1.708  13.968   5.278 -0.0584  1.6046 -0.5247
53645SOL     OW72913   0.563   7.438   7.112  0.5189 -0.0092  0.0062
53645SOL    HW172914   0.516   7.363   7.148 -1.1113  1.5448  1.3208
53645SOL    HW272915   0.635   7.453   7.172 -0.3633  0.6849  0.9175
53646SOL     OW72916  13.990   1.875  12.400  0.7908 -0.3331  0.1838
53646SOL    HW172917  13.930   1.902  12.330 -0.6494 -1.3838  0.9682
53646SOL    HW272918  14.012   1.785  12.378  2.0105 -0.0010 -0.0146
53647SOL     OW72919  13.942  11.588   1.918  0.5556 -0.2325 -0.2229
53647SOL    HW172920  13.981  11.557   2.000  1.1530 -0.5781 -0.6294
53647SOL    HW272921  13.926  11.508   1.868  0.7265  0.0145 -0.6713
53648SOL     OW72922   7.518   4.289   7.317 -0.2881  0.0479 -0.7680
53648SOL    HW172923   7.446   4.228   7.333 -0.5730 -0.0169 -2.1569
53648SOL    HW272924   7.476   4.367   7.280 -0.0341  1.4683  1.6953
53649SOL     OW72925   8.876   6.885   4.977 -0.1076 -0.2097 -0.5799
53649SOL    HW172926   8.880   6.859   5.069  2.4765  1.9440  0.0391
53649SOL    HW272927   8.842   6.975   4.980 -0.2541 -0.2132 -1.7571
53650SOL     OW72928  11.053   8.482   9.417  0.3580 -0.1114 -0.2316
53650SOL    HW172929  11.055   8.578   9.411  0.3136 -0.0689  0.3596
53650SOL    HW272930  11.144   8.457   9.432  0.6367 -0.2917 -2.0390
53651SOL     OW72931   1.915   4.008   6.648  0.0484  0.1163  0.7728
53651SOL    HW172932   1.889   4.045   6.732 -3.0780 -0.9901  0.4076
53651SOL    HW272933   1.874   4.065   6.583  2.0542  0.6971 -0.0546
53652SOL     OW72934   1.861  13.459   6.815 -0.2221  0.0441 -0.0235
53652SOL    HW172935   1.860  13.371   6.776  0.3581 -0.4077  0.9614
53652SOL    HW272936   1.770  13.475   6.840 -0.2832 -0.3720  0.0261
53653SOL     OW72937   3.052   9.058   8.012 -0.9054 -0.2246  0.2831
53653SOL    HW172938   3.102   9.058   8.094 -0.3257  0.4263 -0.0672
53653SOL    HW272939   3.047   8.966   7.988  0.0077 -0.3128  0.3953
53654SOL     OW72940   6.611   1.297   3.639 -0.0377 -0.0416 -0.9823
53654SOL    HW172941   6.657   1.380   3.624  0.6993 -0.3681 -0.6024
53654SOL    HW272942   6.672   1.246   3.692 -0.3242 -0.9825 -1.5462
53655SOL     OW72943  11.351  12.882   9.569 -0.2124 -0.3139  0.2490
53655SOL    HW172944  11.391  12.917   9.648 -0.9363  0.7453  0.1646
53655SOL    HW272945  11.424  12.848   9.518  0.7907  2.6059 -0.4324
53656SOL     OW72946   5.586   7.406   8.184  0.2800  0.0081  0.2063
53656SOL    HW172947   5.531   7.484   8.180  1.0244  0.5192 -0.1751
53656SOL    HW272948   5.539   7.341   8.132  0.4998  0.7400 -0.9250
53657SOL     OW72949   0.367   5.929   3.600 -0.3692 -0.4648  0.8429
53657SOL    HW172950   0.347   5.936   3.694  0.5594  0.8580  0.9700
53657SOL    HW272951   0.294   5.975   3.557 -1.1712 -1.6963  0.8525
53658SOL     OW72952   9.477   2.081   1.100 -0.5130  0.3495  0.4047
53658SOL    HW172953   9.462   1.986   1.100 -2.1571  0.5756  0.5644
53658SOL    HW272954   9.571   2.090   1.119 -0.3055 -1.2376  0.3186
53659SOL     OW72955   5.218   3.651   8.023  0.3144  0.9236 -0.1032
53659SOL    HW172956   5.148   3.609   8.073  1.6668 -1.1055  0.2074
53659SOL    HW272957   5.290   3.661   8.086  1.6530 -0.6605 -1.2996
53660SOL     OW72958   1.919  11.638   1.448  0.0692  0.1681  0.3430
53660SOL    HW172959   1.893  11.562   1.397  0.2945  0.9306 -0.9469
53660SOL    HW272960   2.013  11.626   1.462 -0.3120 -0.9835  2.2552
53661SOL     OW72961  13.545   6.369  11.611  0.6062 -0.0979  0.2969
53661SOL    HW172962  13.564   6.463  11.607 -0.3385  0.0982  0.1978
53661SOL    HW272963  13.631   6.327  11.612  1.0384  0.7706  0.3880
53662SOL     OW72964   5.864   2.680   6.321  0.4868 -0.0754 -0.2064
53662SOL    HW172965   5.836   2.690   6.230 -2.0382 -0.3154  0.4588
53662SOL    HW272966   5.844   2.589   6.343  0.3659  0.1728  0.7790
53663SOL     OW72967  12.744  12.534   1.241  0.6329  0.1170 -0.8332
53663SOL    HW172968  12.825  12.516   1.289 -0.1992  0.6982  0.8802
53663SOL    HW272969  12.690  12.456   1.255 -0.1062  0.8034  0.3132
53664SOL     OW72970   4.558  12.610  11.517 -0.3939  0.4800  0.1759
53664SOL    HW172971   4.531  12.672  11.584  2.0781  1.4334  0.3848
53664SOL    HW272972   4.524  12.646  11.435  0.4816  1.8379  0.3783
53665SOL     OW72973   9.286  11.560   4.756 -0.0606  0.2858 -0.3114
53665SOL    HW172974   9.239  11.501   4.697 -0.3259  0.4335 -0.2493
53665SOL    HW272975   9.228  11.636   4.764 -0.1614  0.1445  0.3637
53666SOL     OW72976   0.323   0.047   6.516  0.0614  0.1228 -0.1747
53666SOL    HW172977   0.238   0.085   6.540  0.4262  0.4392  0.6288
53666SOL    HW272978   0.350   0.096   6.439 -0.2206  0.4043 -0.0995
53667SOL     OW72979   9.183   1.389   2.843 -0.0365 -0.8158 -0.3449
53667SOL    HW172980   9.258   1.426   2.797 -0.1207 -0.6558 -0.3532
53667SOL    HW272981   9.107   1.433   2.805 -0.0118  0.6605  1.1858
53668SOL     OW72982   3.459   0.631   8.851  0.1779  0.0254 -0.2571
53668SOL    HW172983   3.491   0.653   8.938  1.3821 -1.5450 -0.2640
53668SOL    HW272984   3.464   0.713   8.802 -0.0061  0.8000  0.9909
53669SOL     OW72985  10.176   3.374   8.243 -0.3489  0.1368  0.0756
53669SOL    HW172986  10.235   3.431   8.293 -0.7122  2.0692 -1.5709
53669SOL    HW272987  10.089   3.411   8.260 -0.7756 -0.8907  0.1664
53670SOL     OW72988   8.494  13.656  11.102  0.4056 -0.1996 -0.1288
53670SOL    HW172989   8.555  13.629  11.033 -0.8113 -1.0018 -0.9163
53670SOL    HW272990   8.407  13.644  11.064 -0.2910 -0.4380  1.4651
53671SOL     OW72991   0.023  13.228   7.366 -0.1381 -0.2816  0.3068
53671SOL    HW172992   0.029  13.146   7.415 -1.8713  0.2240  1.4685
53671SOL    HW272993   0.010  13.200   7.275 -1.9594 -1.3529  0.8411
53672SOL     OW72994  12.413  12.097   5.197 -0.2532  0.1262 -0.6629
53672SOL    HW172995  12.437  12.007   5.216 -0.8717  0.3597  1.4529
53672SOL    HW272996  12.497  12.143   5.190  0.0585 -0.1169  1.0764
53673SOL     OW72997   4.085   6.382  13.487  0.0026  0.3217  0.3798
53673SOL    HW172998   4.072   6.416  13.576  0.7648 -1.0644  1.0514
53673SOL    HW272999   4.148   6.310  13.497 -0.2445 -0.1665 -1.2173
53674SOL     OW73000   8.559   4.980   7.013  0.7166 -0.6788  0.1596
53674SOL    HW173001   8.652   4.997   7.001  0.3965  0.1714 -1.3081
53674SOL    HW273002   8.542   4.901   6.963  0.9694 -1.8814  1.8957
53675SOL     OW73003  10.981   4.471   0.843  0.2843 -0.2234  0.3631
53675SOL    HW173004  10.944   4.433   0.923  0.6829 -0.9575  0.1993
53675SOL    HW273005  10.956   4.564   0.848 -0.9334 -0.5407  0.6322
53676SOL     OW73006  11.887  11.445   7.645  0.1971 -0.2945  0.0572
53676SOL    HW173007  11.889  11.407   7.558 -0.1149 -0.1248 -0.0248
53676SOL    HW273008  11.979  11.451   7.671  0.3940  1.0259 -0.8651
53677SOL     OW73009   8.080   2.333  10.228 -0.0963  0.2786 -0.2004
53677SOL    HW173010   8.102   2.315  10.319 -0.2203 -1.9212 -0.5611
53677SOL    HW273011   7.985   2.332  10.225 -0.0908  0.1631 -0.3845
53678SOL     OW73012   9.365  11.991  10.185  0.2176 -0.6159 -0.2461
53678SOL    HW173013   9.339  11.917  10.131  0.0658 -1.9565  1.5854
53678SOL    HW273014   9.459  11.999  10.169  0.1500 -0.8964 -0.8154
53679SOL     OW73015   6.885   2.768  11.175  0.3938  0.6515 -0.2869
53679SOL    HW173016   6.857   2.706  11.243  2.7767 -1.5041 -1.1272
53679SOL    HW273017   6.888   2.853  11.220  0.4245 -0.4327  1.8956
53680SOL     OW73018   7.452   8.415  11.474  0.3150 -0.1597  0.0879
53680SOL    HW173019   7.383   8.399  11.409  0.3727  1.3055 -0.3690
53680SOL    HW273020   7.497   8.331  11.483 -0.5907 -0.7471 -0.7070
53681SOL     OW73021   7.740   0.538   5.725  0.3453  0.2736  0.3500
53681SOL    HW173022   7.689   0.619   5.720  1.4882  0.9563 -0.5249
53681SOL    HW273023   7.761   0.518   5.634 -0.7652 -1.5861  0.4399
53682SOL     OW73024   7.662   2.240   9.040  0.3835 -0.1534 -0.0570
53682SOL    HW173025   7.694   2.172   8.981 -1.6000 -0.2810 -1.0895
53682SOL    HW273026   7.592   2.198   9.090 -1.0652  1.1357 -0.9115
53683SOL     OW73027  12.231  12.748  10.827  0.4650 -0.2963 -0.3822
53683SOL    HW173028  12.175  12.688  10.875 -0.0460  2.1203  2.3245
53683SOL    HW273029  12.182  12.768  10.747 -0.8593 -0.9791  0.2368
53684SOL     OW73030   8.798  11.269   3.023  0.4126  0.4125 -0.4492
53684SOL    HW173031   8.864  11.199   3.018  1.9076  1.6583  0.9377
53684SOL    HW273032   8.759  11.259   3.109  1.4721  1.9564  0.2449
53685SOL     OW73033   7.708  10.821   5.532 -0.5088 -0.1470 -0.0216
53685SOL    HW173034   7.727  10.898   5.477  0.9022 -0.2896  0.2237
53685SOL    HW273035   7.775  10.824   5.601 -0.2358 -1.7425 -0.1764
53686SOL     OW73036   7.433   1.246   3.655  0.0117 -0.0290  0.1521
53686SOL    HW173037   7.500   1.184   3.625  1.3358  1.5427 -0.3049
53686SOL    HW273038   7.419   1.223   3.747  0.8225 -0.6976  0.1233
53687SOL     OW73039   0.763   4.508   8.388  0.0549  0.0959  0.4562
53687SOL    HW173040   0.776   4.463   8.304 -3.7173 -1.2736  0.3956
53687SOL    HW273041   0.748   4.599   8.365  1.9581  0.3425  0.0109
53688SOL     OW73042  12.409   6.004   6.945  0.6393  0.0140 -0.3891
53688SOL    HW173043  12.414   5.984   7.039 -2.5071  0.4751 -0.0172
53688SOL    HW273044  12.412   5.918   6.902 -0.3383 -0.4109  0.3448
53689SOL     OW73045   4.853   3.857   6.743  0.3177 -0.2851 -0.0086
53689SOL    HW173046   4.761   3.852   6.716 -0.2516 -1.0004  1.8887
53689SOL    HW273047   4.864   3.947   6.774 -0.3849 -0.7648  1.7419
53690SOL     OW73048   1.214   0.184   1.169  0.2912 -0.5912 -0.0890
53690SOL    HW173049   1.214   0.197   1.074  2.4346  1.5630  0.1178
53690SOL    HW273050   1.179   0.266   1.205  0.6725 -0.8926  1.0097
53691SOL     OW73051  13.388   9.661   6.619 -0.0671 -0.0430  0.2483
53691SOL    HW173052  13.310   9.616   6.653 -0.8355  0.4079 -0.8651
53691SOL    HW273053  13.378   9.658   6.524  1.6273 -0.5698  0.0482
53692SOL     OW73054   9.941  12.997   3.458  0.7626 -0.0458 -0.0751
53692SOL    HW173055   9.971  12.908   3.439 -2.2913 -1.4516  0.9203
53692SOL    HW273056   9.925  13.036   3.372  2.3091 -0.3400 -0.5233
53693SOL     OW73057   7.236   8.079   8.424 -0.1465  0.1255 -0.6191
53693SOL    HW173058   7.250   8.085   8.330 -0.6190  1.3437 -0.6332
53693SOL    HW273059   7.308   8.025   8.456 -0.1745 -0.5861 -1.7117
53694SOL     OW73060   7.763  10.151  11.284  0.2266  0.5854 -0.2792
53694SOL    HW173061   7.770  10.056  11.293  0.2853  0.6975  1.1062
53694SOL    HW273062   7.683  10.165  11.233  0.1062 -0.2036 -0.3154
53695SOL     OW73063  12.640  11.067   8.696 -0.5332  0.1643  0.1000
53695SOL    HW173064  12.703  11.118   8.646 -0.4842  0.7258  0.7192
53695SOL    HW273065  12.692  10.997   8.736 -0.3434  0.4639  0.3858
53696SOL     OW73066   7.582   5.795   1.074 -0.1384  0.2078  0.6626
53696SOL    HW173067   7.535   5.725   1.119  0.5154  0.6131  2.0379
53696SOL    HW273068   7.667   5.758   1.054 -0.4674 -0.0104 -0.3962
53697SOL     OW73069   3.750  10.395  13.232  0.0792 -0.5503  0.2517
53697SOL    HW173070   3.674  10.359  13.278 -1.8286 -0.8290 -2.8532
53697SOL    HW273071   3.790  10.320  13.189  0.8207 -0.0664  0.0764
53698SOL     OW73072   1.314   6.096  13.042 -0.4529  0.0681  0.2108
53698SOL    HW173073   1.307   6.124  12.951  1.6700  0.0020 -0.0285
53698SOL    HW273074   1.290   6.003  13.040  1.1435 -0.3619 -0.6104
53699SOL     OW73075  10.167  11.413   0.010  0.0833  0.3559 -0.5823
53699SOL    HW173076  10.197  11.372   0.091 -0.0383  0.1284 -0.6528
53699SOL    HW273077  10.091  11.361  -0.016  3.1772 -3.1240 -3.7925
53700SOL     OW73078   6.414   8.734   5.772  0.7254 -0.5589 -0.3190
53700SOL    HW173079   6.376   8.817   5.802  1.2490 -0.4744  0.1205
53700SOL    HW273080   6.405   8.675   5.847  0.4235 -0.8798 -0.6047
53701SOL     OW73081   5.189   6.043   4.531 -0.3958 -0.1331  0.1550
53701SOL    HW173082   5.147   6.128   4.548  0.3074  0.3688 -0.5630
53701SOL    HW273083   5.272   6.048   4.578 -0.8029 -0.8497  0.9842
53702SOL     OW73084   2.049  13.834  11.125  0.3308  0.1532 -0.2029
53702SOL    HW173085   2.031  13.742  11.143 -1.0746  0.2409 -1.0234
53702SOL    HW273086   1.965  13.877  11.134  0.5809  1.0395 -1.6919
53703SOL     OW73087   4.847   7.897   9.220 -0.5726  0.0989 -0.2907
53703SOL    HW173088   4.867   7.858   9.304  0.1669  0.0452 -0.4784
53703SOL    HW273089   4.894   7.843   9.156 -0.5236  0.5676 -0.6635
53704SOL     OW73090   2.899  12.653  13.873  0.6701  0.3494  0.1832
53704SOL    HW173091   2.826  12.591  13.877  0.1553  0.9232 -0.3037
53704SOL    HW273092   2.962  12.618  13.937 -0.2348  0.1230  0.9872
53705SOL     OW73093   4.014   2.349   2.304 -1.0735 -0.0836 -0.2162
53705SOL    HW173094   4.014   2.404   2.225 -1.5671 -0.1204 -0.2460
53705SOL    HW273095   3.945   2.386   2.359  2.0405  2.6566  2.1525
53706SOL     OW73096   9.970   4.751   5.433  0.0313 -0.3074 -0.4028
53706SOL    HW173097  10.014   4.721   5.354 -1.1405 -1.8623 -0.5119
53706SOL    HW273098   9.969   4.675   5.491 -2.2798 -0.3171 -0.3385
53707SOL     OW73099  10.532   5.778   4.042  0.7461  0.4346  0.1880
53707SOL    HW173100  10.461   5.824   3.998 -0.6235 -1.3835  0.3673
53707SOL    HW273101  10.516   5.793   4.135 -0.4180 -1.2785  0.3094
53708SOL     OW73102   2.855  10.261   9.215 -0.4927  0.2433  0.4692
53708SOL    HW173103   2.802  10.202   9.268  0.1351 -0.0068  0.8161
53708SOL    HW273104   2.800  10.339   9.205 -1.7218 -0.7301 -0.7817
53709SOL     OW73105   5.357   1.458  13.264  0.5307 -0.1088 -0.2101
53709SOL    HW173106   5.291   1.485  13.200 -0.6288 -3.6078 -0.6779
53709SOL    HW273107   5.323   1.489  13.348 -1.0398 -0.6489 -0.6175
53710SOL     OW73108  10.662  13.897  11.197 -0.1751  0.2828  0.2552
53710SOL    HW173109  10.611  13.978  11.189 -0.7465  0.0976  1.6243
53710SOL    HW273110  10.629  13.857  11.278  0.3837 -1.1212 -0.1958
53711SOL     OW73111   5.370   9.977   7.549  0.2673 -0.2042 -0.2638
53711SOL    HW173112   5.397  10.016   7.466  0.1510 -3.4882 -2.0221
53711SOL    HW273113   5.451   9.952   7.592  0.2882 -0.7148 -0.5905
53712SOL     OW73114   7.329   4.969   0.169 -0.1864  0.0959  0.0635
53712SOL    HW173115   7.339   4.972   0.264  0.1614 -1.6354  0.1145
53712SOL    HW273116   7.394   5.030   0.136 -0.4431  0.8608  0.9376
53713SOL     OW73117  11.468  12.462  12.529 -0.0536  0.5932  0.6091
53713SOL    HW173118  11.449  12.370  12.515 -0.3740  0.5163  1.4731
53713SOL    HW273119  11.491  12.496  12.442 -0.8792 -0.0738  0.1204
53714SOL     OW73120   2.851   7.036   9.734  0.5767 -0.5732  0.5690
53714SOL    HW173121   2.793   7.107   9.764  1.2721 -0.2502  1.1883
53714SOL    HW273122   2.819   7.015   9.647  0.4156  0.5853  0.3268
53715SOL     OW73123   0.163   2.807   4.937 -0.0358 -0.4294  0.0908
53715SOL    HW173124   0.092   2.746   4.916 -1.4588  0.7721  1.1885
53715SOL    HW273125   0.224   2.755   4.989 -1.4989 -0.8412  1.4936
53716SOL     OW73126   0.080   5.280   6.794  0.0537  0.0093 -0.0582
53716SOL    HW173127   0.170   5.267   6.822  0.2282  1.4274  0.0914
53716SOL    HW273128   0.063   5.207   6.734  0.8561 -1.0114  0.9025
53717SOL     OW73129  10.173   5.410  13.677 -0.0644  0.1486  0.4457
53717SOL    HW173130  10.177   5.432  13.584  1.5809  0.7323  0.6129
53717SOL    HW273131  10.237   5.339  13.688 -1.5734 -1.2080  0.8385
53718SOL     OW73132   3.974   5.269  10.645  0.0835  0.0015 -0.1409
53718SOL    HW173133   4.060   5.288  10.606  0.1451 -2.0727 -1.1788
53718SOL    HW273134   3.911   5.296  10.578 -0.2527  3.0931  1.2784
53719SOL     OW73135   7.728   6.798   4.514 -0.3911  0.0536  0.6052
53719SOL    HW173136   7.738   6.893   4.502 -1.0324  0.3474  2.1812
53719SOL    HW273137   7.644   6.789   4.559  0.8739 -1.0413  2.8938
53720SOL     OW73138   9.571   8.173   1.402  0.0663 -0.0637 -0.0001
53720SOL    HW173139   9.530   8.169   1.316 -0.5812  0.7518  0.2583
53720SOL    HW273140   9.514   8.120   1.458  0.0851  0.0077  0.0866
53721SOL     OW73141   0.416  12.713   9.402  0.2698 -0.3636 -0.0995
53721SOL    HW173142   0.460  12.631   9.425  0.7882 -0.6035 -1.8187
53721SOL    HW273143   0.488  12.772   9.376 -0.1588  0.3962  0.4019
53722SOL     OW73144  12.476  10.440   3.719 -0.3173  0.0792  0.0682
53722SOL    HW173145  12.403  10.499   3.701  1.0330  0.7865 -4.0527
53722SOL    HW273146  12.550  10.499   3.737  0.4452 -0.3667 -1.4616
53723SOL     OW73147   0.048   8.143   6.731  0.8125 -0.1539 -0.1853
53723SOL    HW173148   0.045   8.202   6.806 -0.0703 -0.8788  0.3752
53723SOL    HW273149  -0.029   8.166   6.679 -0.3211 -1.6480  0.7327
53724SOL     OW73150   2.208   0.120   4.444 -0.1454 -0.2405  0.6719
53724SOL    HW173151   2.120   0.083   4.442 -0.5042  0.5978  0.6499
53724SOL    HW273152   2.230   0.136   4.352 -1.8700  3.8718  0.7622
53725SOL     OW73153  13.158   7.602  11.811 -0.5291  0.3290  0.5092
53725SOL    HW173154  13.141   7.511  11.787 -0.4986  0.3486  0.4094
53725SOL    HW273155  13.163   7.648  11.727 -1.6312  0.6170  0.5929
53726SOL     OW73156   2.009  12.805   1.427  0.0300  0.2236  0.0125
53726SOL    HW173157   1.961  12.827   1.507  0.8882 -0.6665  0.8022
53726SOL    HW273158   1.956  12.737   1.386 -0.1173  0.2659  0.1303
53727SOL     OW73159   3.678   8.963  11.892 -0.1903  0.3362 -0.1259
53727SOL    HW173160   3.765   8.985  11.924 -0.7607  1.0565  0.9884
53727SOL    HW273161   3.638   9.047  11.871 -0.9412  0.0924  0.2766
53728SOL     OW73162   4.671   8.780   0.828 -0.2177 -0.4168 -0.3165
53728SOL    HW173163   4.738   8.798   0.893  0.5813 -0.5009 -1.0900
53728SOL    HW273164   4.707   8.815   0.746 -1.8407  1.0547 -0.4557
53729SOL     OW73165   0.196   5.151  12.441 -0.4925 -0.1924  0.5051
53729SOL    HW173166   0.199   5.217  12.511  0.4131 -0.3186  0.6083
53729SOL    HW273167   0.278   5.102  12.452 -0.6512 -0.6358 -0.2420
53730SOL     OW73168   8.820   4.188   3.441 -0.3664  0.7305 -0.7530
53730SOL    HW173169   8.779   4.135   3.509  0.6571 -0.7344 -1.1952
53730SOL    HW273170   8.750   4.207   3.379 -0.4632 -1.9210 -1.6289
53731SOL     OW73171   6.569   2.595   8.890 -0.1887  0.0670  0.2451
53731SOL    HW173172   6.651   2.642   8.876 -1.0237  2.6498  3.0045
53731SOL    HW273173   6.590   2.529   8.957 -0.4162  1.1189  1.3884
53732SOL     OW73174   7.642   8.338   9.795 -0.1202 -0.1202  0.1993
53732SOL    HW173175   7.556   8.306   9.768  0.8976 -1.8445 -1.1623
53732SOL    HW273176   7.678   8.268   9.849 -0.0471  1.1525  1.9097
53733SOL     OW73177   2.111  11.832  13.788 -0.1176 -0.1048  0.1577
53733SOL    HW173178   2.128  11.780  13.867 -0.1890 -2.8961 -1.5179
53733SOL    HW273179   2.062  11.908  13.820  0.9201 -0.4630  2.9170
53734SOL     OW73180  11.329   9.996   1.515  0.1095 -0.1120 -0.0910
53734SOL    HW173181  11.372  10.011   1.431  2.0682 -0.1068  0.8672
53734SOL    HW273182  11.359   9.910   1.543 -0.3285 -0.0070  0.7373
53735SOL     OW73183   7.463   0.512   4.819 -0.0127 -0.5347  0.0564
53735SOL    HW173184   7.390   0.462   4.783 -1.4565  1.3154  0.2579
53735SOL    HW273185   7.438   0.604   4.806  1.4851  0.1670  1.7085
53736SOL     OW73186   0.753   9.988   2.217  0.2971  0.4481  0.3117
53736SOL    HW173187   0.739   9.936   2.138  0.6536  1.6440 -0.5698
53736SOL    HW273188   0.667  10.026   2.236  0.2306  0.2278  0.4538
53737SOL     OW73189   6.989  13.103  12.498  0.0348 -0.6678 -0.9886
53737SOL    HW173190   6.945  13.101  12.583 -1.0565  0.7184 -1.4724
53737SOL    HW273191   6.919  13.087  12.435  0.7402 -1.1794 -1.6459
53738SOL     OW73192   1.690   6.926   6.612 -0.5575 -0.3107  0.2241
53738SOL    HW173193   1.758   6.973   6.564 -0.0927 -0.9732  0.2152
53738SOL    HW273194   1.680   6.974   6.694 -0.4206  0.0703  0.0178
53739SOL     OW73195   0.208  10.946   7.070 -0.6075  0.3586 -0.3994
53739SOL    HW173196   0.246  10.954   7.158 -2.3075 -0.2349  0.4385
53739SOL    HW273197   0.282  10.957   7.011  1.0335 -1.4974  1.1450
53740SOL     OW73198   0.337   3.091   4.200  0.6292 -0.4808 -0.2664
53740SOL    HW173199   0.250   3.104   4.163  0.6435 -1.1481 -0.5456
53740SOL    HW273200   0.385   3.172   4.178 -0.8362  1.3368  2.6664
53741SOL     OW73201   5.774   4.933   4.164  0.1516 -0.3237  0.3353
53741SOL    HW173202   5.756   4.972   4.078 -1.0072 -0.2665  0.5897
53741SOL    HW273203   5.777   4.839   4.147  2.9721 -0.1928 -0.2829
53742SOL     OW73204  11.021  10.788   8.340  0.7441  0.3632  0.1815
53742SOL    HW173205  10.965  10.715   8.364 -0.3956  1.6254  1.5744
53742SOL    HW273206  11.110  10.756   8.354  0.2941 -0.9061  0.2592
53743SOL     OW73207   0.433   9.471   1.349 -0.3059 -0.1073 -0.2680
53743SOL    HW173208   0.517   9.518   1.345 -0.8432  0.9806  0.5114
53743SOL    HW273209   0.420   9.436   1.261  1.0660 -0.4907 -0.3393
53744SOL     OW73210   9.665  12.142   0.539  0.2169  0.3970 -0.4461
53744SOL    HW173211   9.666  12.128   0.445 -0.5064 -0.9114 -0.2819
53744SOL    HW273212   9.689  12.234   0.550 -1.4440  1.0783 -2.0040
53745SOL     OW73213  12.812  11.203   2.102 -0.0242  0.2992  0.1767
53745SOL    HW173214  12.779  11.117   2.127  0.4890  0.1619  0.3934
53745SOL    HW273215  12.851  11.237   2.182  1.6979 -0.1689 -0.4358
53746SOL     OW73216  10.004   3.860   6.663 -0.5089  0.1717  0.1531
53746SOL    HW173217   9.962   3.797   6.605 -0.6298  0.0125  0.4136
53746SOL    HW273218   9.936   3.925   6.682 -0.7981 -0.3557  0.9774
53747SOL     OW73219  10.498   7.530   2.544  0.1021  0.4872 -1.3966
53747SOL    HW173220  10.536   7.611   2.510  1.0781 -0.5838 -3.0205
53747SOL    HW273221  10.544   7.514   2.626  0.0427  1.4554 -1.1623
53748SOL     OW73222   2.727   1.560   6.117 -0.7535  0.2959  0.0213
53748SOL    HW173223   2.736   1.549   6.022 -0.1570  0.5426  0.0467
53748SOL    HW273224   2.633   1.550   6.133 -0.6278 -2.1618 -0.2893
53749SOL     OW73225   6.257   9.897   3.060 -0.1049  0.4781 -0.3464
53749SOL    HW173226   6.171   9.915   3.097 -0.3688  1.0982 -1.2363
53749SOL    HW273227   6.318   9.921   3.130 -0.5388  2.8122 -0.6620
53750SOL     OW73228   3.486  11.998  12.121  0.0071  0.0160  0.1484
53750SOL    HW173229   3.523  12.062  12.182  3.2726 -1.3668 -0.1466
53750SOL    HW273230   3.455  11.927  12.177  0.4421 -0.0454  0.3177
53751SOL     OW73231   2.698   8.792   5.614  0.1100 -0.1109 -0.3737
53751SOL    HW173232   2.678   8.821   5.525  1.1258  1.6751 -0.0784
53751SOL    HW273233   2.613   8.792   5.658  0.0104  2.6434 -0.3993
53752SOL     OW73234   6.428   9.151   1.294  0.0508  0.1475 -0.1596
53752SOL    HW173235   6.357   9.094   1.266  0.8288 -1.4437  0.9943
53752SOL    HW273236   6.427   9.145   1.390  1.0607  0.9494 -0.0842
53753SOL     OW73237   0.323   4.176  12.275  0.3551 -0.3336 -0.5432
53753SOL    HW173238   0.229   4.183  12.293  0.0956 -0.1729 -1.8900
53753SOL    HW273239   0.329   4.117  12.200  1.2919  0.0762 -0.8071
53754SOL     OW73240   3.104   5.035   0.363 -0.6160  0.4941 -0.3613
53754SOL    HW173241   3.176   5.000   0.311 -0.7332  0.5654 -0.5740
53754SOL    HW273242   3.033   4.972   0.353 -0.0683 -0.3854  1.1332
53755SOL     OW73243  11.432   9.323  13.174  0.3882 -0.1434  0.5650
53755SOL    HW173244  11.385   9.338  13.091  1.6294  1.6027  0.1208
53755SOL    HW273245  11.406   9.234  13.200 -1.2074 -0.1719 -0.9066
53756SOL     OW73246  13.328  12.286  13.153  0.1876  0.0436  0.3643
53756SOL    HW173247  13.249  12.231  13.160 -0.0300  0.4030  0.7897
53756SOL    HW273248  13.392  12.230  13.109 -0.4999 -0.0357 -0.5749
53757SOL     OW73249   8.361   8.309   4.909 -0.1686 -0.7267 -0.0386
53757SOL    HW173250   8.308   8.385   4.883  1.5495  0.7495  0.4989
53757SOL    HW273251   8.391   8.271   4.826  1.4404  1.1086 -0.3916
53758SOL     OW73252   6.198   0.034   0.902  0.3928  0.3334  0.7909
53758SOL    HW173253   6.166   0.086   0.976  0.1275  0.7626  0.3758
53758SOL    HW273254   6.225   0.099   0.837 -0.1261 -0.0432  0.1908
53759SOL     OW73255   9.690   1.884  11.714  0.2436  0.8324 -0.0870
53759SOL    HW173256   9.649   1.811  11.667 -1.2361  0.8653  1.1058
53759SOL    HW273257   9.676   1.960  11.658  1.8217  0.2483 -1.3567
53760SOL     OW73258  13.272   1.039   6.496 -0.6397  0.1209  0.2167
53760SOL    HW173259  13.191   1.089   6.502 -1.0385 -0.5540  0.6249
53760SOL    HW273260  13.308   1.041   6.585  0.0678  0.8519 -0.0752
53761SOL     OW73261  12.027   6.795   4.926 -0.3300 -0.0549  0.2291
53761SOL    HW173262  12.065   6.861   4.984  0.2029 -1.0399  1.0385
53761SOL    HW273263  11.934   6.817   4.921 -0.0023  1.3039 -0.2840
53762SOL     OW73264   9.200   4.129   7.432 -0.0909  0.1018 -0.1449
53762SOL    HW173265   9.192   4.170   7.346  1.6565 -0.3566 -0.5714
53762SOL    HW273266   9.122   4.075   7.440 -0.4733  0.4634 -1.2773
53763SOL     OW73267   2.789   1.538   7.443  0.0690  0.0728  0.3022
53763SOL    HW173268   2.857   1.546   7.511  1.4107 -1.3172 -0.8020
53763SOL    HW273269   2.752   1.451   7.456 -0.7938  0.4180  0.2240
53764SOL     OW73270  13.509  10.868   8.398 -0.0905 -0.1482 -0.5462
53764SOL    HW173271  13.576  10.834   8.339 -0.8432 -0.5948 -1.1585
53764SOL    HW273272  13.438  10.805   8.392 -0.4450  0.1546  0.3376
53765SOL     OW73273   8.532   4.381   4.176 -0.2920  0.1899 -0.1185
53765SOL    HW173274   8.534   4.291   4.142  0.0641 -0.7388  2.2183
53765SOL    HW273275   8.471   4.426   4.118 -0.7050 -1.6145 -1.1840
53766SOL     OW73276   1.647   9.201   0.223 -0.0864  0.7749 -0.6205
53766SOL    HW173277   1.611   9.267   0.282 -1.7225  0.7742 -1.5573
53766SOL    HW273278   1.714   9.248   0.173  1.5151  0.7093  1.3338
53767SOL     OW73279   6.949   5.502   7.444 -0.2814  0.4208 -0.0189
53767SOL    HW173280   6.984   5.421   7.480  0.2359  0.9408  0.6542
53767SOL    HW273281   6.889   5.535   7.511 -0.0509  0.8904 -0.0348
53768SOL     OW73282   6.093   7.566   7.933  0.3143  0.2222  0.2667
53768SOL    HW173283   6.011   7.615   7.945 -0.0096 -0.5226  1.2535
53768SOL    HW273284   6.161   7.633   7.928 -0.2740  0.8215  0.2047
53769SOL     OW73285   0.002   3.050  10.064 -0.1610 -0.1977 -0.2604
53769SOL    HW173286  -0.026   3.003   9.986 -2.5013 -2.2822  1.6202
53769SOL    HW273287  -0.061   3.123  10.072  0.4046  0.3326 -0.5750
53770SOL     OW73288  11.014  11.147   6.686  0.2723  0.3466  0.5647
53770SOL    HW173289  11.094  11.160   6.636  0.3237 -0.8702  0.3121
53770SOL    HW273290  10.982  11.236   6.703  1.2556  0.8238  0.0096
53771SOL     OW73291  10.210   5.539   3.974  0.1404 -0.5096  0.3905
53771SOL    HW173292  10.153   5.488   4.032 -0.0909 -0.9323 -0.1987
53771SOL    HW273293  10.160   5.618   3.955  0.0605 -0.5386  0.4785
53772SOL     OW73294   7.531   1.386   6.211  0.1644  0.5152 -0.0562
53772SOL    HW173295   7.599   1.360   6.149  0.1068 -0.0144  0.0961
53772SOL    HW273296   7.553   1.339   6.292 -0.1634  0.6384  0.1050
53773SOL     OW73297   2.623   4.074   2.370  0.0705 -0.0342  0.1540
53773SOL    HW173298   2.540   4.108   2.403 -0.4330 -0.9122 -0.1888
53773SOL    HW273299   2.690   4.126   2.415 -0.6527  0.3911  0.7510
53774SOL     OW73300   3.248   5.824  13.560  0.3427  0.5965  0.4147
53774SOL    HW173301   3.301   5.864  13.491  0.5989  1.7796  1.2775
53774SOL    HW273302   3.305   5.825  13.637  0.3958 -1.5350  0.4634
53775SOL     OW73303   6.896  11.167   0.675 -0.0503 -0.2686  0.2376
53775SOL    HW173304   6.863  11.188   0.588 -1.2483 -4.2415 -0.4697
53775SOL    HW273305   6.849  11.227   0.734 -0.1819  1.6119 -1.6769
53776SOL     OW73306   7.216  11.567   8.596 -0.1628 -0.2500  0.3264
53776SOL    HW173307   7.231  11.597   8.506  0.9401 -1.6400  0.0114
53776SOL    HW273308   7.191  11.646   8.644 -1.1736  0.4577 -1.2731
53777SOL     OW73309   5.044   4.131   6.906 -0.6456 -0.6303  0.0651
53777SOL    HW173310   5.000   4.203   6.861  0.0636  0.7783  1.5130
53777SOL    HW273311   5.132   4.128   6.867 -0.4248 -0.1842  0.5086
53778SOL     OW73312   3.964  13.537   4.373 -0.1164 -0.2621 -0.4197
53778SOL    HW173313   4.031  13.590   4.417 -0.7667 -0.4645  0.8346
53778SOL    HW273314   3.897  13.601   4.346 -0.4021 -0.3158  0.1625
53779SOL     OW73315  12.105   5.343   5.399  0.0313  0.0091  0.2989
53779SOL    HW173316  12.043   5.282   5.359 -1.0116  0.5141  1.1052
53779SOL    HW273317  12.158   5.288   5.458 -0.7374 -0.1651  0.8360
53780SOL     OW73318   4.010  10.336  13.714 -0.1008  0.3770 -0.3597
53780SOL    HW173319   4.009  10.421  13.757  1.2127  0.6235 -0.7707
53780SOL    HW273320   4.046  10.276  13.780 -1.3108  0.0623  0.0353
53781SOL     OW73321   2.201   8.270   1.352  0.3574  0.4382 -0.2959
53781SOL    HW173322   2.183   8.324   1.274  2.0050  3.0196  0.9560
53781SOL    HW273323   2.293   8.289   1.373  0.0177 -0.3067  2.1507
53782SOL     OW73324   8.527   0.122   5.117 -0.1811  0.0434 -0.2021
53782SOL    HW173325   8.549   0.086   5.203 -0.5414 -0.9728 -0.5205
53782SOL    HW273326   8.432   0.110   5.110 -0.2887  0.9264 -0.3885
53783SOL     OW73327   8.032   2.889   6.956 -0.7578  0.3324  0.0364
53783SOL    HW173328   8.055   2.797   6.962 -0.9203  0.1780 -1.4112
53783SOL    HW273329   8.065   2.927   7.037  1.6900 -0.5138 -0.4703
53784SOL     OW73330   4.621   0.786  13.181  0.6905  0.5574  0.0472
53784SOL    HW173331   4.595   0.823  13.096 -0.8969  0.6899  0.5599
53784SOL    HW273332   4.700   0.834  13.205  1.2428  0.4345 -1.4027
53785SOL     OW73333   8.469  10.289   9.993 -0.4383  0.5216  0.4578
53785SOL    HW173334   8.463  10.268   9.899  1.3295 -0.5380  0.5396
53785SOL    HW273335   8.400  10.236  10.034  0.1941 -0.7118 -0.0206
53786SOL     OW73336  13.505   7.649   9.851  0.1045 -0.4643 -0.1879
53786SOL    HW173337  13.454   7.671   9.928 -0.7497 -1.4202 -0.4635
53786SOL    HW273338  13.448   7.592   9.800  0.8441 -0.2525 -1.2844
53787SOL     OW73339   9.292   3.599   8.432  0.6712  0.4287 -0.0368
53787SOL    HW173340   9.378   3.631   8.406  1.1879 -0.4405  0.5571
53787SOL    HW273341   9.299   3.504   8.427 -0.9858  0.3310 -2.3274
53788SOL     OW73342   8.831   4.817   8.666  0.2917  0.5012  0.6750
53788SOL    HW173343   8.894   4.758   8.623  0.5248 -0.2803  2.0295
53788SOL    HW273344   8.784   4.858   8.594  2.9128  1.7734 -0.4422
53789SOL     OW73345  11.847  13.777  10.996 -0.1707  0.6138 -0.5345
53789SOL    HW173346  11.901  13.776  10.917 -0.8860  0.0898 -1.0215
53789SOL    HW273347  11.900  13.733  11.062  1.3358  2.9054 -0.0934
53790SOL     OW73348   4.264   0.769   0.052  0.2029 -0.0340 -0.2251
53790SOL    HW173349   4.348   0.723   0.045  0.4693  0.5495 -1.0056
53790SOL    HW273350   4.282   0.857   0.021 -0.4570  0.4294  0.6660
53791SOL     OW73351   7.706   7.247   8.903  0.6124 -0.9623 -0.3863
53791SOL    HW173352   7.704   7.284   8.991 -0.4352 -2.0033  0.0528
53791SOL    HW273353   7.749   7.314   8.850 -0.4670  0.5287  0.5315
53792SOL     OW73354   6.466   8.722   0.055  0.2209  0.1363  0.1884
53792SOL    HW173355   6.450   8.706   0.148  0.0123  1.2866  0.3615
53792SOL    HW273356   6.560   8.741   0.049  0.1389  0.5693  0.2446
53793SOL     OW73357   2.239   9.487   0.567 -0.2848 -0.0571  0.1828
53793SOL    HW173358   2.277   9.474   0.480 -0.9364  0.2642 -0.1569
53793SOL    HW273359   2.314   9.485   0.627 -0.0269 -2.4397 -0.1338
53794SOL     OW73360   4.029   0.357   4.749  0.1952 -0.0456  0.1691
53794SOL    HW173361   3.998   0.431   4.802 -0.7147 -0.1550 -0.1944
53794SOL    HW273362   3.949   0.320   4.711  0.7443 -0.5849 -0.4752
53795SOL     OW73363   4.418   7.159   8.326  0.3796 -0.0582  0.5662
53795SOL    HW173364   4.338   7.178   8.374  0.1652  2.1159 -0.5375
53795SOL    HW273365   4.412   7.212   8.247  1.6213 -2.0074 -0.9386
53796SOL     OW73366   0.949  12.382   0.035 -0.1185  0.4147  0.0140
53796SOL    HW173367   1.002  12.378  -0.044 -0.4773 -2.6086 -0.1946
53796SOL    HW273368   0.859  12.382   0.004 -0.3054 -2.1234  0.2795
53797SOL     OW73369   6.939  13.174   7.414 -0.3835  0.5220  0.3740
53797SOL    HW173370   6.887  13.195   7.492 -0.4750  0.1230  0.4233
53797SOL    HW273371   6.986  13.255   7.394 -0.5920  0.7171  0.6646
53798SOL     OW73372   2.714  11.653   7.817  0.1792  0.1870  0.0249
53798SOL    HW173373   2.695  11.568   7.857 -0.6512  0.1237 -0.4807
53798SOL    HW273374   2.782  11.634   7.752  0.3487  0.0025  0.2519
53799SOL     OW73375  11.026  14.039  13.619  0.4264  0.1026  0.1229
53799SOL    HW173376  11.056  13.951  13.643  0.9491  0.3317  0.3237
53799SOL    HW273377  10.931  14.031  13.611  0.1153  0.1634  2.9119
53800SOL     OW73378   9.459   5.917  10.967 -0.0017 -0.0074  0.1388
53800SOL    HW173379   9.548   5.944  10.990 -0.5530  1.5984  0.4513
53800SOL    HW273380   9.457   5.916  10.872  0.0988  0.8249  0.1286
53801SOL     OW73381   7.587  12.530   9.854  0.3505  0.9420 -0.4621
53801SOL    HW173382   7.553  12.440   9.856  0.1975  1.0059  0.7209
53801SOL    HW273383   7.681  12.520   9.841  0.3498  0.6056 -0.2218
53802SOL     OW73384   4.386  12.617  13.580  0.1745  0.0724 -0.4327
53802SOL    HW173385   4.341  12.692  13.541  1.0556  0.7377 -0.2170
53802SOL    HW273386   4.322  12.547  13.579 -0.6544  0.8168 -0.6880
53803SOL     OW73387   5.787   4.914   8.966 -0.0424 -0.4762 -0.1706
53803SOL    HW173388   5.835   4.995   8.979  0.2457 -1.0181  3.0490
53803SOL    HW273389   5.854   4.849   8.946  0.1791 -0.5327  0.6979
53804SOL     OW73390  11.253   5.663   2.931 -0.2011  0.6112  0.4263
53804SOL    HW173391  11.172   5.713   2.944 -0.1772  0.6273  0.5126
53804SOL    HW273392  11.259   5.607   3.008 -0.3050  0.3686  0.2573
53805SOL     OW73393   3.622  11.810   7.960 -0.2411 -0.0598 -0.1081
53805SOL    HW173394   3.569  11.730   7.961 -2.4656  1.3346 -1.2824
53805SOL    HW273395   3.584  11.864   8.029 -1.1719  1.4234 -1.7193
53806SOL     OW73396   6.924   7.493   4.913  0.4217 -0.3301  0.5812
53806SOL    HW173397   6.896   7.461   4.827  0.2831 -0.8369  0.8059
53806SOL    HW273398   6.848   7.540   4.947 -0.1274 -1.5274  1.1041
53807SOL     OW73399  11.996  10.332   7.509 -0.2021 -0.4489 -0.7781
53807SOL    HW173400  11.975  10.385   7.432 -0.8393 -0.2377 -0.4610
53807SOL    HW273401  12.043  10.256   7.473 -0.6839 -0.4584 -1.3967
53808SOL     OW73402   2.181   2.406   7.664 -0.5059  0.2065  0.4479
53808SOL    HW173403   2.146   2.364   7.585  0.9902 -0.2314 -0.0160
53808SOL    HW273404   2.229   2.482   7.631 -0.5652  0.4949  1.0111
53809SOL     OW73405   6.042  11.769   3.522  0.0714 -0.7051  0.1073
53809SOL    HW173406   5.953  11.760   3.555 -0.7079 -0.6163 -1.8311
53809SOL    HW273407   6.034  11.755   3.427  2.1819 -1.0778 -0.0674
53810SOL     OW73408   3.097   3.616   9.927 -1.0191  0.5391 -0.0805
53810SOL    HW173409   3.185   3.582   9.944 -1.3645 -0.0536  0.5773
53810SOL    HW273410   3.057   3.551   9.869 -1.6957 -0.2266  1.2101
53811SOL     OW73411  10.144   7.434  13.836  0.3352 -0.0728 -0.2942
53811SOL    HW173412  10.199   7.423  13.758 -1.0352 -2.0873 -1.0643
53811SOL    HW273413  10.180   7.371  13.899  0.2349  0.1577 -0.0052
53812SOL     OW73414   0.279   8.505  10.345  0.1523  0.0168 -0.1343
53812SOL    HW173415   0.236   8.463  10.270 -1.5849  0.1884  0.7056
53812SOL    HW273416   0.369   8.475  10.341  0.2563  0.4364 -2.5875
53813SOL     OW73417  11.650   3.691   4.402  0.3828 -0.2103  0.7961
53813SOL    HW173418  11.646   3.610   4.350 -0.7823 -0.8275  1.7788
53813SOL    HW273419  11.716   3.744   4.359  0.5858 -1.3529 -0.3714
53814SOL     OW73420   0.023   9.870  10.549  0.2183  0.1930 -0.3816
53814SOL    HW173421   0.043   9.917  10.469 -1.1309 -0.5882 -1.2203
53814SOL    HW273422   0.108   9.840  10.582  0.7014 -0.4467 -2.1384
53815SOL     OW73423   7.082   7.735  11.128  0.3840 -0.1135 -0.2246
53815SOL    HW173424   7.109   7.688  11.049  1.9767 -0.1342  0.3004
53815SOL    HW273425   7.158   7.788  11.151  0.5627 -1.2589  2.1444
53816SOL     OW73426   2.519   0.572   5.498 -0.1423  0.3327 -0.2779
53816SOL    HW173427   2.457   0.505   5.470 -1.7357  1.9156 -0.7202
53816SOL    HW273428   2.466   0.636   5.546  1.1375  1.7273 -0.6445
53817SOL     OW73429   4.812   6.967   1.148 -0.2785 -0.6900  0.2303
53817SOL    HW173430   4.784   7.054   1.120  0.6395 -0.2594  0.5950
53817SOL    HW273431   4.733   6.913   1.140 -0.5250 -0.1503 -1.2875
53818SOL     OW73432  10.880   5.368   9.253  0.5204  0.3685  0.1310
53818SOL    HW173433  10.832   5.332   9.178 -0.8697  1.3903  0.4810
53818SOL    HW273434  10.964   5.323   9.252  0.3658  0.0537 -1.7831
53819SOL     OW73435  11.526   9.513  13.338  0.0399  0.4496  0.1582
53819SOL    HW173436  11.582   9.469  13.402 -2.5382 -0.4062  1.9539
53819SOL    HW273437  11.505   9.445  13.274 -0.6212  0.1744  0.6576
53820SOL     OW73438  13.220   8.532   2.897  0.0361 -0.0395 -0.1512
53820SOL    HW173439  13.286   8.572   2.840  1.7428 -0.9909  1.0913
53820SOL    HW273440  13.235   8.438   2.890  1.1598 -0.1702  2.7778
53821SOL     OW73441   3.168   0.341  13.211  0.4734  0.7389 -0.3090
53821SOL    HW173442   3.252   0.386  13.212  0.1197  1.4085  0.5726
53821SOL    HW273443   3.186   0.257  13.169  1.3153  1.3748 -1.2649
53822SOL     OW73444  13.440   6.770  13.230  0.3582 -0.3755 -0.4424
53822SOL    HW173445  13.375   6.839  13.216  1.4122  1.0098  1.1611
53822SOL    HW273446  13.495   6.772  13.152  0.5330  0.8053 -0.3048
53823SOL     OW73447   7.453   1.094   1.741 -0.8973  0.0095 -0.1074
53823SOL    HW173448   7.479   1.004   1.721 -2.0385 -0.0310 -1.6048
53823SOL    HW273449   7.414   1.089   1.828  1.9844 -0.2985  1.2946
53824SOL     OW73450   5.444   0.695  10.754 -0.1197 -0.1364  0.3524
53824SOL    HW173451   5.498   0.756  10.704  1.3230 -0.5120  1.4002
53824SOL    HW273452   5.425   0.741  10.836 -0.6796 -0.3524  0.3524
53825SOL     OW73453  12.320   2.395   1.878  0.8317  0.1593  0.0549
53825SOL    HW173454  12.335   2.473   1.930  1.2208  0.2123 -0.1373
53825SOL    HW273455  12.245   2.352   1.920  1.2468  0.1137  0.7594
53826SOL     OW73456   0.533   4.313  10.702  0.4288 -0.9774  0.0675
53826SOL    HW173457   0.597   4.273  10.762 -0.0243 -2.5678 -0.4521
53826SOL    HW273458   0.467   4.351  10.760 -0.2319 -2.8653  0.6359
53827SOL     OW73459  11.154   5.574   9.797  0.1893  0.0328 -0.0866
53827SOL    HW173460  11.218   5.544   9.862 -0.2559 -1.2048 -0.1795
53827SOL    HW273461  11.072   5.582   9.845  0.1415  0.3830 -0.2271
53828SOL     OW73462   9.754   0.527  11.808  0.2889  0.3016  0.3695
53828SOL    HW173463   9.736   0.615  11.840 -0.2118 -0.0491  1.0814
53828SOL    HW273464   9.700   0.470  11.863 -0.6489 -0.3303 -1.1489
53829SOL     OW73465   9.939   6.864   2.245 -0.0893  0.1796  0.1822
53829SOL    HW173466   9.958   6.789   2.188  1.6560  0.2509  0.6001
53829SOL    HW273467   9.934   6.939   2.185  3.6864  0.5868  0.1383
53830SOL     OW73468  11.871   5.905  13.641  0.2574  0.0430  0.4750
53830SOL    HW173469  11.851   5.958  13.564  0.0910  0.2650  0.6737
53830SOL    HW273470  11.955   5.938  13.672  0.6425 -0.4693  0.0162
53831SOL     OW73471  11.481   0.323   2.404 -0.2182 -0.5745 -0.2860
53831SOL    HW173472  11.445   0.369   2.328 -0.1530  0.1697  0.1295
53831SOL    HW273473  11.440   0.236   2.401  0.3536 -0.8176 -1.5969
53832SOL     OW73474  12.333   2.363  10.758 -0.3620 -0.2818 -0.8401
53832SOL    HW173475  12.248   2.395  10.728  0.0039  2.9556  1.0656
53832SOL    HW273476  12.395   2.394  10.692 -0.3667  0.0231 -0.7033
53833SOL     OW73477   5.601   5.428   3.590 -0.1515  0.0499  0.8385
53833SOL    HW173478   5.624   5.516   3.618 -1.1507  0.9483 -0.9769
53833SOL    HW273479   5.659   5.409   3.516 -0.3540 -0.5635  0.8252
53834SOL     OW73480   8.536   1.792  10.698  0.2057 -0.0341  0.2950
53834SOL    HW173481   8.549   1.858  10.765 -0.1522 -0.7386  1.0792
53834SOL    HW273482   8.610   1.732  10.708  1.3645  1.0208 -1.4031
53835SOL     OW73483   1.073   9.812   2.562 -0.6101 -0.0294 -0.0196
53835SOL    HW173484   1.153   9.764   2.582 -1.1706 -0.7340  0.5763
53835SOL    HW273485   1.056   9.865   2.640  0.2185  1.4858 -0.8135
53836SOL     OW73486   6.653   8.415   6.163  0.5304  0.6616  0.4596
53836SOL    HW173487   6.613   8.329   6.178 -0.7665  1.4815  1.9567
53836SOL    HW273488   6.582   8.469   6.130  0.7244  1.7656  1.7642
53837SOL     OW73489  11.580  12.854   7.252 -0.5740  0.4081 -0.4581
53837SOL    HW173490  11.598  12.925   7.313 -1.2292  0.7640 -0.6774
53837SOL    HW273491  11.489  12.866   7.226 -0.5478 -0.2222 -0.8778
53838SOL     OW73492  13.485  12.808   0.053 -0.0282  0.0387 -0.1050
53838SOL    HW173493  13.576  12.838   0.049 -0.5509  1.8769  0.4898
53838SOL    HW273494  13.473  12.780   0.144  0.2944 -1.5460 -0.5197
53839SOL     OW73495   3.076  13.240   1.216 -0.6909 -0.0531  0.5464
53839SOL    HW173496   3.040  13.260   1.129  1.8056  1.0522 -0.3499
53839SOL    HW273497   3.079  13.325   1.260  0.5761 -0.1132  0.6247
53840SOL     OW73498  11.101  11.625  13.527  0.4610 -0.1434 -0.3358
53840SOL    HW173499  11.191  11.593  13.529  0.5411  0.0121 -1.1010
53840SOL    HW273500  11.107  11.713  13.564  0.5014 -0.3962  0.2749
53841SOL     OW73501  11.028   2.972   6.014 -0.2638  0.0799  0.3790
53841SOL    HW173502  11.015   3.013   5.929 -0.0988 -0.7089 -0.0331
53841SOL    HW273503  10.942   2.978   6.057 -1.3110 -2.4061 -1.1473
53842SOL     OW73504   5.183  13.410   9.857 -0.1690  0.2697  0.5423
53842SOL    HW173505   5.171  13.329   9.908 -0.0991  0.0205  0.1664
53842SOL    HW273506   5.107  13.414   9.800 -0.6084  0.9213  1.1543
53843SOL     OW73507   5.045   6.230  13.753 -0.0881 -0.1319  0.1999
53843SOL    HW173508   5.010   6.308  13.796  0.9191  0.7381 -0.5412
53843SOL    HW273509   5.055   6.255  13.662 -0.6420 -1.4462 -0.2427
53844SOL     OW73510   3.208  10.687   3.603 -0.8712 -0.2416  0.2202
53844SOL    HW173511   3.124  10.691   3.557 -0.8488 -2.7497 -0.1864
53844SOL    HW273512   3.210  10.599   3.641  1.4905 -0.1679  0.3856
53845SOL     OW73513  13.105   1.567   2.434  0.2516  0.1766  0.0247
53845SOL    HW173514  13.109   1.562   2.339 -1.4654  2.6073 -0.2700
53845SOL    HW273515  13.044   1.639   2.452  0.5780 -0.1488  2.9701
53846SOL     OW73516   4.202   1.203  13.673 -1.0162 -0.2845  0.1953
53846SOL    HW173517   4.251   1.167  13.599 -3.5078 -2.6984 -0.4979
53846SOL    HW273518   4.260   1.192  13.748 -0.5444 -3.5311 -0.4607
53847SOL     OW73519   6.346   4.708   3.183  0.8999 -0.1122  0.3507
53847SOL    HW173520   6.400   4.653   3.240 -0.3948 -2.3668 -0.4990
53847SOL    HW273521   6.408   4.771   3.146  2.7528 -1.8206  0.3642
53848SOL     OW73522   5.474   1.425   8.558  0.4885 -0.1693 -0.0082
53848SOL    HW173523   5.478   1.503   8.614 -0.5828 -0.8405  1.0439
53848SOL    HW273524   5.507   1.354   8.613  0.9911 -0.5597 -0.7908
53849SOL     OW73525   0.567  12.303   4.344 -0.0741 -0.1187  0.4134
53849SOL    HW173526   0.580  12.384   4.393  0.1518 -0.3321  0.7061
53849SOL    HW273527   0.572  12.234   4.409  0.1048 -0.3951  0.1105
53850SOL     OW73528   0.137   6.586   5.307 -0.7240 -0.6531 -0.1720
53850SOL    HW173529   0.226   6.601   5.274 -0.3224  1.8949  1.7326
53850SOL    HW273530   0.095   6.671   5.299 -1.2187 -0.3486  3.7770
53851SOL     OW73531   9.910   1.763   3.961 -0.6002  0.0523  0.2724
53851SOL    HW173532   9.928   1.845   3.916 -2.2451 -0.1004 -0.7540
53851SOL    HW273533   9.929   1.696   3.895 -1.1346 -0.2789  0.4488
53852SOL     OW73534   3.347   0.186   5.163 -0.2629  0.2069 -0.6576
53852SOL    HW173535   3.426   0.132   5.158 -0.8678 -1.0834  2.0979
53852SOL    HW273536   3.377   0.267   5.205 -0.4964 -0.6370  1.2227
53853SOL     OW73537   3.602   3.899   3.519 -0.2062  0.3627 -0.7184
53853SOL    HW173538   3.686   3.890   3.564 -0.1789  1.9419 -0.3889
53853SOL    HW273539   3.624   3.905   3.426 -0.2100 -2.1611 -0.9616
53854SOL     OW73540   3.189   8.759   1.935  0.3366 -0.6716  0.3257
53854SOL    HW173541   3.252   8.825   1.962  0.3659 -0.5702  0.0124
53854SOL    HW273542   3.203   8.750   1.841 -0.6671 -0.0676  0.1102
53855SOL     OW73543   0.483   5.386   5.446 -0.1512 -0.2856 -0.3495
53855SOL    HW173544   0.488   5.301   5.490 -0.4814  0.4638  1.2181
53855SOL    HW273545   0.391   5.411   5.453 -0.0750  0.1689 -0.8874
53856SOL     OW73546   4.238  12.887   1.514 -0.3269 -0.0156  0.2278
53856SOL    HW173547   4.308  12.948   1.535  0.3285 -0.1691 -1.3167
53856SOL    HW273548   4.196  12.924   1.436 -0.5140 -1.0525 -0.1904
53857SOL     OW73549   4.816   2.613  11.610 -0.2736 -0.3824  0.3466
53857SOL    HW173550   4.884   2.644  11.549 -0.9871  0.7166  0.0697
53857SOL    HW273551   4.864   2.565  11.677  1.2103  2.8358  1.7955
53858SOL     OW73552   7.856   6.260   7.511 -0.0101 -0.3014  0.0065
53858SOL    HW173553   7.923   6.196   7.488  0.6044 -0.2167  1.4418
53858SOL    HW273554   7.802   6.216   7.576 -1.7302 -0.5567 -1.5130
53859SOL     OW73555  12.355   4.124  12.122  0.1964 -0.2881 -0.4782
53859SOL    HW173556  12.353   4.193  12.055 -0.8678 -0.9349 -1.1379
53859SOL    HW273557  12.423   4.152  12.183  3.1472 -0.9181 -3.1956
53860SOL     OW73558   4.338  11.172  11.412 -0.7029 -0.1803 -0.0093
53860SOL    HW173559   4.388  11.219  11.479  0.1149 -2.4554  1.0965
53860SOL    HW273560   4.254  11.154  11.454 -0.3175 -1.3046  0.3135
53861SOL     OW73561   1.962  12.932   4.404  0.1326 -0.2345 -0.2590
53861SOL    HW173562   2.052  12.964   4.416  0.2359 -0.4736 -0.4008
53861SOL    HW273563   1.935  12.905   4.492  0.7090 -1.5005 -0.4483
53862SOL     OW73564   2.188   6.927  10.555  0.1222  0.9019  0.1097
53862SOL    HW173565   2.186   6.835  10.528 -2.1357  1.1553 -0.8279
53862SOL    HW273566   2.237   6.928  10.637  2.6275 -0.7060 -1.2692
53863SOL     OW73567  13.715   3.246   1.179 -0.3817  0.1221  0.1635
53863SOL    HW173568  13.648   3.305   1.213 -0.2086  0.2477  0.2885
53863SOL    HW273569  13.794   3.267   1.229 -0.1835  0.1469 -0.1512
53864SOL     OW73570   8.779  12.684   3.364  0.3868  0.4701  0.0117
53864SOL    HW173571   8.696  12.689   3.412  0.3309  2.8686 -0.1819
53864SOL    HW273572   8.813  12.773   3.368  2.1105 -0.0775 -1.4177
53865SOL     OW73573   0.203   3.636   1.322  0.2040 -0.2181 -0.2038
53865SOL    HW173574   0.136   3.617   1.388  0.3368 -1.0819 -0.3063
53865SOL    HW273575   0.282   3.595   1.356  0.9264  1.5308  0.3427
53866SOL     OW73576   0.792   6.814  10.373 -0.3269  0.3968 -0.5597
53866SOL    HW173577   0.721   6.866  10.410 -2.4639 -1.8414 -1.1976
53866SOL    HW273578   0.799   6.843  10.282 -0.6239  0.4683 -0.5601
53867SOL     OW73579  10.993   6.240   4.111  0.1279  0.3991  0.2049
53867SOL    HW173580  10.907   6.238   4.071  0.7856  1.5045 -1.3505
53867SOL    HW273581  11.028   6.152   4.098 -0.6414  0.0331  0.5861
53868SOL     OW73582  13.991   2.277   2.638 -0.1606 -0.3602  0.3194
53868SOL    HW173583  14.040   2.224   2.575 -1.3477 -1.3322  0.1679
53868SOL    HW273584  13.980   2.361   2.595  3.0038  0.6198  1.1343
53869SOL     OW73585   2.468  12.310   5.147 -0.0027  0.2033 -0.1285
53869SOL    HW173586   2.487  12.386   5.202  1.2133  0.4225 -0.8151
53869SOL    HW273587   2.445  12.241   5.209  1.3174  0.4414  0.6871
53870SOL     OW73588   2.626   2.403   2.824  0.2862 -0.1791 -0.3754
53870SOL    HW173589   2.684   2.451   2.764 -0.3152  2.3200  0.8998
53870SOL    HW273590   2.671   2.408   2.909 -0.2893 -1.0176 -0.0157
53871SOL     OW73591   4.380  13.955   7.145  0.1159 -0.1152 -0.1401
53871SOL    HW173592   4.359  13.984   7.057 -1.2458  2.0550  0.8135
53871SOL    HW273593   4.328  13.876   7.157  1.9040 -1.6713 -1.9228
53872SOL     OW73594  11.958   6.345  10.011  0.3037 -0.5251 -0.1711
53872SOL    HW173595  12.032   6.365   9.954  1.0262 -0.2071  0.8582
53872SOL    HW273596  11.973   6.397  10.090 -0.7443 -0.8563  0.2737
53873SOL     OW73597  11.370  13.735   4.109 -0.3026  0.4717  0.0852
53873SOL    HW173598  11.421  13.655   4.118 -1.3116 -0.1964  0.1476
53873SOL    HW273599  11.374  13.756   4.016  0.5998  0.7930  0.1899
53874SOL     OW73600   7.959   0.447   3.039 -0.8782  0.0002  0.0460
53874SOL    HW173601   7.942   0.370   3.094  0.5833 -1.7975 -1.8094
53874SOL    HW273602   8.029   0.494   3.085 -1.1140 -0.3140  0.7410
53875SOL     OW73603   9.585  12.177  11.348 -0.2960  0.4150 -0.0124
53875SOL    HW173604   9.577  12.083  11.332  0.0719  0.5479 -1.0205
53875SOL    HW273605   9.670  12.186  11.392  1.3664  0.5966 -3.0164
53876SOL     OW73606   4.739  13.380   6.139 -0.7022 -0.0276 -0.1917
53876SOL    HW173607   4.800  13.357   6.209  2.2231  0.9161 -2.1884
53876SOL    HW273608   4.748  13.475   6.130  0.4583 -0.2845 -2.8798
53877SOL     OW73609  13.651   1.292   9.516  0.2833 -0.1673 -0.2851
53877SOL    HW173610  13.721   1.227   9.525  1.7160  1.5102  1.3832
53877SOL    HW273611  13.593   1.254   9.450  1.6229 -2.6117 -0.1992
53878SOL     OW73612   7.462   4.971   9.922 -0.1222  0.5053  0.2406
53878SOL    HW173613   7.546   5.007   9.893 -0.1144 -0.8498 -1.6374
53878SOL    HW273614   7.486   4.899   9.981 -0.0313  1.0353  0.8641
53879SOL     OW73615   6.825   9.265   5.971 -0.3737  0.3410 -0.2946
53879SOL    HW173616   6.844   9.179   6.009 -0.4932  0.1275 -0.7077
53879SOL    HW273617   6.743   9.292   6.013 -0.0748  0.4804  0.2061
53880SOL     OW73618  10.232  12.406   7.482 -0.0564  0.2005  0.7358
53880SOL    HW173619  10.161  12.343   7.469  0.4497 -0.1538 -0.4356
53880SOL    HW273620  10.258  12.394   7.573 -0.3697 -0.8707  0.6998
53881SOL     OW73621   8.189  11.287   7.840  0.0045  0.7475  0.7378
53881SOL    HW173622   8.279  11.267   7.867 -0.1385 -4.4839 -1.5329
53881SOL    HW273623   8.187  11.269   7.746 -3.5681 -0.2678  0.8558
53882SOL     OW73624   5.148   6.874   7.068  0.0551  0.9292  0.1863
53882SOL    HW173625   5.095   6.907   6.996  0.1800 -0.4763 -0.5814
53882SOL    HW273626   5.116   6.921   7.145 -0.7936  1.6902 -0.6098
53883SOL     OW73627  11.179   6.052   2.957  0.0505 -0.7228  0.4239
53883SOL    HW173628  11.146   6.137   2.986 -0.7432 -0.6727 -0.5876
53883SOL    HW273629  11.254   6.072   2.901 -0.4143 -0.6559 -0.1835
53884SOL     OW73630   1.181   1.271   5.369 -0.0915  0.6348  0.2981
53884SOL    HW173631   1.265   1.225   5.379 -0.4591 -0.1844 -0.2373
53884SOL    HW273632   1.196   1.333   5.297 -0.4809 -0.8966 -1.1695
53885SOL     OW73633   3.462  11.743   7.206 -0.0582  0.2255  0.5811
53885SOL    HW173634   3.377  11.768   7.172  0.5991  0.4558 -0.9825
53885SOL    HW273635   3.452  11.651   7.233 -0.1803 -0.5762 -1.9600
53886SOL     OW73636   7.473   0.486   0.343 -0.3671 -0.2287  0.6612
53886SOL    HW173637   7.543   0.472   0.407 -1.0245 -1.9786  1.0417
53886SOL    HW273638   7.401   0.522   0.393 -0.1614  0.4237  0.4945
53887SOL     OW73639   5.718   4.538   1.288  0.0320  0.4664 -0.4416
53887SOL    HW173640   5.683   4.484   1.218  0.2383 -0.9578  0.5050
53887SOL    HW273641   5.762   4.476   1.346  2.1533  1.9055 -0.4022
53888SOL     OW73642   0.307  11.291   4.236  0.4820  0.4253  0.2605
53888SOL    HW173643   0.214  11.312   4.244 -0.0181 -0.1593 -2.7068
53888SOL    HW273644   0.309  11.195   4.232  1.4119  0.3596  1.8184
53889SOL     OW73645   1.173   6.510   4.743 -0.0287  0.2710 -0.1833
53889SOL    HW173646   1.177   6.565   4.821 -2.6052 -0.5862  0.6401
53889SOL    HW273647   1.198   6.423   4.774  0.0355  0.1463 -0.5817
53890SOL     OW73648   6.374   4.106  10.551  0.3309 -0.3070  0.3574
53890SOL    HW173649   6.296   4.159  10.566  0.7700  0.5958 -0.3949
53890SOL    HW273650   6.443   4.150  10.601  0.9011  0.4056 -0.9934
53891SOL     OW73651   5.121   5.222   0.486  0.1977 -0.0379  0.4124
53891SOL    HW173652   5.098   5.138   0.525 -0.4418  0.5177  1.2592
53891SOL    HW273653   5.100   5.211   0.393 -1.7901 -0.1994  0.8237
53892SOL     OW73654   5.595   0.650  12.432  0.3412 -0.2284  0.1768
53892SOL    HW173655   5.563   0.562  12.412 -0.3726  0.0503  0.0711
53892SOL    HW273656   5.687   0.648  12.406  0.7372 -1.3789  1.5398
53893SOL     OW73657  10.938   1.375   1.325 -0.4280 -0.7767  0.3212
53893SOL    HW173658  10.986   1.311   1.378 -0.4163 -1.2989 -0.3028
53893SOL    HW273659  10.999   1.448   1.314  1.2241 -2.4175 -2.4932
53894SOL     OW73660   2.515  12.713   2.682 -0.3406  0.1109  0.5219
53894SOL    HW173661   2.596  12.758   2.705 -0.3866 -0.7937  2.6861
53894SOL    HW273662   2.537  12.660   2.605  0.8362  0.6100  0.4972
53895SOL     OW73663   7.112   8.655  11.033 -0.4362  0.6501  0.3279
53895SOL    HW173664   7.048   8.691  10.972 -1.3312  0.7073  1.2672
53895SOL    HW273665   7.127   8.724  11.097  1.2177  0.9431 -0.3184
53896SOL     OW73666   0.406   4.728   4.840 -0.4702 -0.2275  0.5166
53896SOL    HW173667   0.329   4.757   4.888 -1.7460  0.7333 -1.9517
53896SOL    HW273668   0.419   4.637   4.867 -1.3105  0.1428  2.3274
53897SOL     OW73669  12.199  12.966  12.957 -0.1975  0.2051 -0.1872
53897SOL    HW173670  12.195  12.871  12.967 -3.0857  0.3833  1.2442
53897SOL    HW273671  12.153  12.983  12.875  1.4344  0.3545 -1.1172
53898SOL     OW73672   3.317   2.656   2.737 -0.4311  0.4796 -0.3160
53898SOL    HW173673   3.411   2.660   2.755 -0.3497  0.4356 -0.7047
53898SOL    HW273674   3.280   2.729   2.786  0.0783  1.7532 -1.7148
53899SOL     OW73675   7.502  11.626  13.191 -0.2042 -0.5213  0.4328
53899SOL    HW173676   7.544  11.564  13.250  1.1439  0.4660  0.5448
53899SOL    HW273677   7.478  11.574  13.114  2.4271 -0.9049 -0.2229
53900SOL     OW73678  11.450  10.637  11.056 -0.2359  0.2824 -0.6281
53900SOL    HW173679  11.518  10.570  11.064  0.1740  0.6446 -1.0312
53900SOL    HW273680  11.495  10.713  11.019 -0.6499  0.8494 -0.0019
53901SOL     OW73681   6.688   1.888   6.022  0.1776  0.5319  0.1335
53901SOL    HW173682   6.766   1.863   5.973  0.2462  0.0520  0.4853
53901SOL    HW273683   6.681   1.823   6.092 -2.3067 -1.4260 -1.7053
53902SOL     OW73684   5.213  11.665  12.022  0.3880 -0.2097  0.5226
53902SOL    HW173685   5.233  11.672  11.929  0.8034  0.5619  0.6620
53902SOL    HW273686   5.141  11.602  12.027 -1.0092  1.2365 -0.5203
53903SOL     OW73687  11.626   7.245   6.383  0.1152  0.0669  0.0922
53903SOL    HW173688  11.636   7.283   6.471  0.2068 -0.4854  0.3247
53903SOL    HW273689  11.713   7.248   6.345 -0.0357  0.8488 -0.2111
53904SOL     OW73690   5.524   9.619   1.957 -0.8624 -0.3476 -0.3405
53904SOL    HW173691   5.568   9.538   1.930 -0.5216 -0.1123 -0.4933
53904SOL    HW273692   5.464   9.591   2.026 -1.6152 -0.9292 -1.2065
53905SOL     OW73693   0.407   2.549  12.041  0.1344 -0.4774 -0.2581
53905SOL    HW173694   0.352   2.614  11.997  0.7941 -0.0763 -0.5167
53905SOL    HW273695   0.472   2.525  11.975  0.8418 -0.2382  0.3454
53906SOL     OW73696   9.111  12.308   1.436  0.7930  0.5867  0.2298
53906SOL    HW173697   9.184  12.246   1.429 -0.2547 -0.6918  0.3258
53906SOL    HW273698   9.077  12.317   1.347 -0.0735 -0.2500  0.4674
53907SOL     OW73699   9.388   2.087   5.185  0.3486 -0.6096 -0.1413
53907SOL    HW173700   9.420   2.057   5.100  1.2151 -2.5771  0.7887
53907SOL    HW273701   9.301   2.047   5.193 -0.2369  0.5508 -0.5691
53908SOL     OW73702   1.394  12.169   8.792 -0.0417 -1.2443  0.0869
53908SOL    HW173703   1.358  12.217   8.867 -0.9729 -3.6164  1.2536
53908SOL    HW273704   1.372  12.224   8.717  1.2336  1.4114  1.4870
53909SOL     OW73705   2.009  12.971   0.603  0.4184 -0.0464 -0.0817
53909SOL    HW173706   1.956  12.935   0.532  2.4344 -2.8886 -0.3214
53909SOL    HW273707   1.970  13.056   0.622 -3.3551 -1.3821 -1.0808
53910SOL     OW73708   4.288   4.635   3.599  0.4151 -0.2008  0.0045
53910SOL    HW173709   4.231   4.704   3.631  0.0455 -0.1935 -0.6574
53910SOL    HW273710   4.228   4.567   3.567  0.7719 -0.7149  0.3889
53911SOL     OW73711  12.339  11.524   1.373  0.0242  0.0955  0.1523
53911SOL    HW173712  12.307  11.561   1.456  0.3566  2.8762 -0.8645
53911SOL    HW273713  12.417  11.476   1.398 -0.1086  0.5221  1.5257
53912SOL     OW73714   9.701   1.427   3.886  0.1832 -0.0726  0.2922
53912SOL    HW173715   9.658   1.342   3.873 -0.6862  0.4857 -0.6445
53912SOL    HW273716   9.791   1.413   3.855 -0.1442 -0.4718 -0.5050
53913SOL     OW73717   0.356   2.670   5.063 -0.1784 -0.3165  0.3890
53913SOL    HW173718   0.405   2.701   5.139  1.1291 -0.5081 -0.3584
53913SOL    HW273719   0.423   2.647   4.999 -1.2435  1.7779 -1.5994
53914SOL     OW73720   4.602  10.350   6.428  0.0266  0.0085  0.1311
53914SOL    HW173721   4.564  10.437   6.442 -4.1400 -1.1686 -2.1284
53914SOL    HW273722   4.569  10.297   6.501 -1.2905 -0.5800 -0.8335
53915SOL     OW73723   5.595  10.563   8.278  0.3384  0.2663  0.2714
53915SOL    HW173724   5.524  10.611   8.235 -0.7071 -0.8137  0.7096
53915SOL    HW273725   5.670  10.574   8.221 -0.5276  0.4062 -0.8817
53916SOL     OW73726  14.001   2.079  11.276  0.3943  0.4221 -0.0979
53916SOL    HW173727  13.950   2.151  11.312 -1.2723 -0.0749 -1.3457
53916SOL    HW273728  13.960   2.000  11.311  0.6801  0.0265 -0.6340
53917SOL     OW73729   3.209   7.577  12.484  0.1248  0.1523  0.0581
53917SOL    HW173730   3.154   7.541  12.554  2.1379 -0.1725  1.5769
53917SOL    HW273731   3.282   7.619  12.530  0.3672  1.9444 -1.8181
53918SOL     OW73732   0.497   8.605   4.964  0.1512 -0.1076 -0.6032
53918SOL    HW173733   0.530   8.526   4.921  0.1109 -0.5200  0.1048
53918SOL    HW273734   0.555   8.618   5.039 -0.6202 -0.2175  0.0269
53919SOL     OW73735   8.301   5.910   9.752 -0.3624  0.0791 -0.2498
53919SOL    HW173736   8.250   5.867   9.821 -0.7427  1.6620  0.4856
53919SOL    HW273737   8.356   5.840   9.717 -0.6308 -0.9147  1.2008
53920SOL     OW73738   3.200   5.293  13.628  0.3601 -0.2277 -0.3309
53920SOL    HW173739   3.221   5.381  13.597 -0.0414  0.0407  0.1326
53920SOL    HW273740   3.250   5.234  13.571  0.3327  0.2832 -0.8901
53921SOL     OW73741   4.575   5.343   5.412  0.1705 -0.0202 -0.2186
53921SOL    HW173742   4.551   5.251   5.403 -0.4521  0.1979 -0.8337
53921SOL    HW273743   4.662   5.341   5.452 -0.5053 -0.8423  1.2817
53922SOL     OW73744   6.017   1.185   8.503  0.5943  0.2448  1.0303
53922SOL    HW173745   6.000   1.275   8.475 -1.4920 -0.1201  1.0210
53922SOL    HW273746   6.077   1.151   8.436 -0.0067  1.0817  0.0295
53923SOL     OW73747   1.749   6.393   1.159 -0.1399 -0.5475  0.2016
53923SOL    HW173748   1.831   6.356   1.126 -0.1788 -0.5870  0.1489
53923SOL    HW273749   1.771   6.481   1.187  0.1963 -0.9642  1.3054
53924SOL     OW73750   4.518   9.241  11.706 -0.3220  0.0028  0.5671
53924SOL    HW173751   4.476   9.185  11.640 -1.9019  1.5393  0.1905
53924SOL    HW273752   4.607   9.253  11.673 -1.5598  2.2764 -2.4690
53925SOL     OW73753   7.857   2.458   5.899 -0.0738 -0.3431  0.1976
53925SOL    HW173754   7.936   2.410   5.875  0.0548 -0.2944  0.5271
53925SOL    HW273755   7.883   2.550   5.896 -0.0096 -0.3438  0.6942
53926SOL     OW73756   2.393   0.699  11.615 -0.6272 -0.7103 -0.6503
53926SOL    HW173757   2.409   0.794  11.621 -1.1668 -0.5169 -1.9419
53926SOL    HW273758   2.298   0.691  11.619 -0.5808 -1.2092 -0.5556
53927SOL     OW73759   9.110   7.781  12.435  0.1989 -0.1861  0.0350
53927SOL    HW173760   9.068   7.866  12.437  0.4178 -0.0789  0.0822
53927SOL    HW273761   9.040   7.719  12.456 -0.9528 -0.4126 -3.7690
53928SOL     OW73762  13.901  13.976  13.085  0.0297  0.7890  0.2838
53928SOL    HW173763  13.826  13.918  13.077 -0.6949  1.4062  2.0396
53928SOL    HW273764  13.933  13.963  13.174  0.1013  2.7229  0.5951
53929SOL     OW73765   6.127   6.532   0.956 -0.2896  0.2089  0.0842
53929SOL    HW173766   6.162   6.603   1.010 -1.1644  0.6788  0.0588
53929SOL    HW273767   6.107   6.574   0.872 -0.3606 -0.1837 -0.0982
53930SOL     OW73768   0.398  10.203  11.114  0.4401 -0.3113  0.9697
53930SOL    HW173769   0.365  10.126  11.159  1.0944 -0.4565  1.2091
53930SOL    HW273770   0.437  10.257  11.183  2.3957 -1.0141  0.4888
53931SOL     OW73771   4.532   4.851   3.606  0.2324  0.3088  0.8782
53931SOL    HW173772   4.592   4.882   3.538 -0.2592 -1.2239 -0.3286
53931SOL    HW273773   4.571   4.769   3.637 -1.4659 -1.0947 -0.4310
53932SOL     OW73774   1.846   5.304   6.210 -0.4752 -0.2232  0.0735
53932SOL    HW173775   1.936   5.281   6.235 -0.4633 -0.3390 -0.0722
53932SOL    HW273776   1.847   5.399   6.202 -0.4031 -0.2119  0.2219
53933SOL     OW73777  12.038   5.208  10.538 -0.0237  0.2944 -0.8143
53933SOL    HW173778  12.003   5.252  10.616  0.8761  0.6758 -0.6089
53933SOL    HW273779  12.095   5.140  10.573 -1.8715 -1.5028 -1.1228
53934SOL     OW73780   4.436   9.593  12.157 -0.2491  0.3846 -0.0701
53934SOL    HW173781   4.344   9.579  12.179  0.0696  1.4830  2.3497
53934SOL    HW273782   4.436   9.673  12.104 -0.7394 -0.0304 -0.7066
53935SOL     OW73783   7.852   5.385   8.019 -0.6536  0.6585  0.3053
53935SOL    HW173784   7.861   5.309   7.962  2.1581  1.2245 -0.1709
53935SOL    HW273785   7.790   5.442   7.973 -0.3979 -0.0022 -0.8963
53936SOL     OW73786   5.756   2.857   4.555 -0.6223  0.1654 -0.0208
53936SOL    HW173787   5.721   2.872   4.468 -0.1872 -0.7949 -0.3643
53936SOL    HW273788   5.784   2.944   4.584  4.1797 -0.0411 -2.9723
53937SOL     OW73789  10.772  12.807   2.023  0.3175  0.2996  0.1825
53937SOL    HW173790  10.821  12.889   2.021 -0.4777  0.7808 -1.1900
53937SOL    HW273791  10.835  12.743   2.057  0.3704  1.7740  3.1460
53938SOL     OW73792   5.224   2.527   5.412  0.4567  0.4620 -0.4670
53938SOL    HW173793   5.150   2.584   5.432 -0.2109  0.2417 -2.1028
53938SOL    HW273794   5.184   2.440   5.403  1.2641 -0.0508  0.7497
53939SOL     OW73795   8.227  13.607  13.464  0.5414  0.1360 -0.0782
53939SOL    HW173796   8.312  13.563  13.455  0.0522 -0.9748  0.4425
53939SOL    HW273797   8.166  13.536  13.485 -0.5813  0.8716 -0.7746
53940SOL     OW73798   5.988   5.852   5.216  0.1358 -0.3774 -0.4736
53940SOL    HW173799   6.037   5.780   5.255 -1.5226 -0.4121  1.7272
53940SOL    HW273800   5.934   5.886   5.287 -1.0283  1.3899 -2.1004
53941SOL     OW73801   8.798  11.555  12.880  0.5336  0.1030 -0.2564
53941SOL    HW173802   8.725  11.608  12.847 -0.1142 -0.8202 -0.3608
53941SOL    HW273803   8.858  11.549  12.806 -0.5757 -1.3633 -1.0858
53942SOL     OW73804   4.142   1.389   5.602 -0.1142  0.0510  0.1219
53942SOL    HW173805   4.093   1.307   5.607 -0.1809 -0.0198 -1.2475
53942SOL    HW273806   4.228   1.367   5.637  0.4394 -1.1045 -1.8153
53943SOL     OW73807   6.138  11.643  11.108 -1.0503 -0.2107 -0.1161
53943SOL    HW173808   6.150  11.573  11.172 -2.4947  0.5080  1.0183
53943SOL    HW273809   6.154  11.723  11.158 -3.0439  0.4129 -0.3904
53944SOL     OW73810   8.737   3.179   6.796 -0.4482 -0.9356  0.7498
53944SOL    HW173811   8.740   3.217   6.708  0.3600  1.3341  1.6802
53944SOL    HW273812   8.644   3.163   6.812 -0.6019 -1.4383 -0.5224
53945SOL     OW73813  12.823   9.730   9.046  0.0929  0.1561  0.2220
53945SOL    HW173814  12.805   9.796   9.112 -1.6091 -0.5748  0.5589
53945SOL    HW273815  12.738   9.688   9.031  0.9148 -1.2683 -0.7017
53946SOL     OW73816  10.844  10.320  10.957 -0.1812  0.3342 -0.6152
53946SOL    HW173817  10.865  10.396  11.010 -1.1504  0.3031 -0.1536
53946SOL    HW273818  10.755  10.337  10.925 -1.4242 -1.6170  1.4632
53947SOL     OW73819   4.314   0.412   5.302  0.3360 -0.0255 -0.4063
53947SOL    HW173820   4.226   0.406   5.340  0.2012  0.7743 -0.5887
53947SOL    HW273821   4.351   0.492   5.338  0.9856 -0.3410 -0.3578
53948SOL     OW73822   2.078   0.496  11.227  0.3762  0.7696  0.3377
53948SOL    HW173823   2.083   0.531  11.138  0.3462 -0.5251 -0.1918
53948SOL    HW273824   2.168   0.477  11.251  0.3860  1.1304  0.5950
53949SOL     OW73825   1.916   0.805  13.488  0.2864 -0.5040 -0.4441
53949SOL    HW173826   1.967   0.886  13.485 -1.0067  0.4019  0.8288
53949SOL    HW273827   1.827   0.832  13.467 -0.1361 -1.6478 -0.2189
53950SOL     OW73828   0.129   8.731   7.602 -0.1478  0.0783 -0.0966
53950SOL    HW173829   0.184   8.805   7.627 -0.9759  0.5310  0.4524
53950SOL    HW273830   0.153   8.713   7.511 -0.0511  1.1512 -0.3061
53951SOL     OW73831   2.414  11.296   4.457  0.2804  0.6395 -0.1600
53951SOL    HW173832   2.330  11.307   4.414  0.5692 -1.1585 -1.2825
53951SOL    HW273833   2.479  11.317   4.389  0.7403 -0.0795  0.0469
53952SOL     OW73834   7.152   2.712   6.570  0.1885 -0.1463  0.1090
53952SOL    HW173835   7.219   2.778   6.589 -0.0835  0.0168  0.5153
53952SOL    HW273836   7.199   2.642   6.525  0.7195 -0.2379  0.7997
53953SOL     OW73837  12.979   2.699  13.993  0.4773 -0.3365 -0.2306
53953SOL    HW173838  13.072   2.722  13.989  0.7759 -1.6085 -1.1836
53953SOL    HW273839  12.976   2.618  14.045  0.3263 -2.1324 -2.8738
53954SOL     OW73840   1.922   0.190   8.209 -0.3283 -0.0861  0.1181
53954SOL    HW173841   1.992   0.136   8.247 -0.1031 -0.4727 -0.8141
53954SOL    HW273842   1.956   0.279   8.209 -0.3653 -0.0653  0.8819
53955SOL     OW73843   9.728   5.423   7.496 -0.2614 -0.0301 -0.1872
53955SOL    HW173844   9.808   5.474   7.491 -0.0467 -0.2477  0.7179
53955SOL    HW273845   9.758   5.334   7.517 -0.7908  0.3876  2.9197
53956SOL     OW73846   7.597   5.192   4.820  0.4112  0.5159 -0.2532
53956SOL    HW173847   7.565   5.122   4.876 -1.3267  0.0719 -1.7190
53956SOL    HW273848   7.677   5.223   4.863  0.3798 -1.3164  1.2180
53957SOL     OW73849   1.212   3.075   2.516 -0.3949 -0.0302 -0.3501
53957SOL    HW173850   1.259   3.157   2.501  0.9022 -0.4068  1.3663
53957SOL    HW273851   1.223   3.026   2.435  0.3623  0.7636 -0.7479
53958SOL     OW73852   7.579   0.193   4.297 -0.8177  0.4419  0.2867
53958SOL    HW173853   7.516   0.121   4.290  0.0554 -0.2844 -0.3237
53958SOL    HW273854   7.629   0.174   4.375 -0.7651  0.5397  0.2780
53959SOL     OW73855   4.198   8.036  12.927 -0.1721  0.3145 -0.2022
53959SOL    HW173856   4.191   7.979  12.849 -1.0129  0.6270 -0.3606
53959SOL    HW273857   4.176   8.123  12.895  0.7990  0.6948  0.1130
53960SOL     OW73858   1.931  11.069   0.128 -0.2801  0.4223  0.6554
53960SOL    HW173859   1.848  11.112   0.104  0.6453  2.7398  1.2910
53960SOL    HW273860   1.942  11.091   0.221  0.8925 -0.1227  0.6500
53961SOL     OW73861   6.555   0.106   8.379  0.0066  0.2600  0.2350
53961SOL    HW173862   6.461   0.114   8.391  0.0146  0.3134  0.2628
53961SOL    HW273863   6.566   0.031   8.320 -0.0631  0.3681  0.0827
53962SOL     OW73864   1.010   1.531  13.525 -0.0504  0.7842  0.4920
53962SOL    HW173865   0.948   1.604  13.522  0.1890  0.9659 -0.2176
53962SOL    HW273866   1.046   1.527  13.437 -0.2335 -0.3531  0.4592
53963SOL     OW73867   9.359  11.366  12.751  0.0249 -0.0136  0.0743
53963SOL    HW173868   9.371  11.285  12.799  0.5287  0.2276  0.3673
53963SOL    HW273869   9.266  11.367  12.728  0.2471 -1.2377 -0.9656
53964SOL     OW73870   1.837   9.976   6.007  0.4795 -0.2111 -0.4768
53964SOL    HW173871   1.747   9.951   5.985 -0.0939 -0.0871  1.4638
53964SOL    HW273872   1.852  10.058   5.960 -0.4805 -0.1564 -0.7119
53965SOL     OW73873   2.526   6.810   1.857  0.1053  0.4387  0.2474
53965SOL    HW173874   2.535   6.861   1.937  0.0690 -1.1882  1.3415
53965SOL    HW273875   2.434   6.820   1.832  0.3682  1.8217 -0.2287
53966SOL     OW73876  12.540  10.875   1.833 -0.1249  0.3081  0.1970
53966SOL    HW173877  12.501  10.955   1.798  0.4119 -0.4322 -2.2334
53966SOL    HW273878  12.632  10.897   1.848  0.1589  0.0091 -1.0313
53967SOL     OW73879   1.045  13.135   7.167  0.0321  0.1588 -0.4867
53967SOL    HW173880   1.076  13.074   7.234 -0.6272 -0.2871 -0.5672
53967SOL    HW273881   1.062  13.222   7.203 -2.2025 -0.0080  1.2433
53968SOL     OW73882   2.820   8.028   8.176 -0.2284 -0.1948 -0.0530
53968SOL    HW173883   2.807   8.120   8.199 -1.2054 -0.1272 -0.7778
53968SOL    HW273884   2.883   8.030   8.104  2.1989 -0.3514  1.9547
53969SOL     OW73885   7.634   0.491   7.384 -0.4132 -0.8455  0.2082
53969SOL    HW173886   7.593   0.424   7.438 -0.3727  0.2360  1.6482
53969SOL    HW273887   7.639   0.568   7.441  3.8591 -0.9366  0.3286
53970SOL     OW73888   4.821  10.326   0.398 -0.6459  0.1995  0.0346
53970SOL    HW173889   4.887  10.364   0.340 -0.9044  2.0950  0.8979
53970SOL    HW273890   4.854  10.344   0.487 -0.8824 -1.5043  0.5016
53971SOL     OW73891   4.400  13.764   8.446  0.5671 -0.0054  0.7446
53971SOL    HW173892   4.309  13.780   8.470  0.8044  2.4120  0.2979
53971SOL    HW273893   4.440  13.852   8.443  2.2502 -0.7430 -1.6263
53972SOL     OW73894  10.527   9.447   9.376  0.1854 -0.0911 -0.2802
53972SOL    HW173895  10.590   9.434   9.447  0.4640 -0.2245 -0.5510
53972SOL    HW273896  10.544   9.375   9.315 -2.0671 -1.8312  0.9675
53973SOL     OW73897  12.878   0.139  11.151  0.2178  0.5663 -0.7959
53973SOL    HW173898  12.854   0.099  11.067  1.4691  0.1501 -0.9722
53973SOL    HW273899  12.912   0.066  11.203  2.9026  1.3857 -1.2544
53974SOL     OW73900  13.866   5.963   4.064 -0.3710 -0.2576 -0.5383
53974SOL    HW173901  13.950   6.009   4.072  0.4361 -1.5546 -1.2127
53974SOL    HW273902  13.800   6.033   4.069  0.7336  0.7800  0.0839
53975SOL     OW73903   9.423   2.270   6.368 -0.4220 -0.6880  0.2563
53975SOL    HW173904   9.516   2.261   6.347 -0.4683 -0.0456 -0.2257
53975SOL    HW273905   9.422   2.310   6.455 -0.2385  1.1321 -0.5367
53976SOL     OW73906  11.882   0.716   4.164  0.2709  0.4231  0.2763
53976SOL    HW173907  11.859   0.770   4.088  1.5756 -1.1988 -1.3619
53976SOL    HW273908  11.803   0.664   4.181 -0.0102  0.7567  0.0003
53977SOL     OW73909   6.797  12.266   1.001  0.2206  0.4344 -0.1060
53977SOL    HW173910   6.815  12.189   0.948 -1.8391 -0.1797 -0.0110
53977SOL    HW273911   6.797  12.234   1.092  0.1220  0.6913 -0.0138
53978SOL     OW73912   1.117   6.314  11.498  0.4986  0.0825 -0.7582
53978SOL    HW173913   1.078   6.353  11.576  0.6102 -1.0013 -0.1449
53978SOL    HW273914   1.089   6.371  11.426 -1.7356 -0.3343 -0.2738
53979SOL     OW73915  10.129   9.866   0.844  0.2532  0.3546 -0.3051
53979SOL    HW173916  10.183   9.839   0.770 -0.6002  0.3596 -0.9463
53979SOL    HW273917  10.182   9.932   0.889  0.3688  1.1139 -1.5069
53980SOL     OW73918   5.648   1.784   8.502 -0.3501 -0.2599  0.1951
53980SOL    HW173919   5.597   1.730   8.561 -0.4397 -0.9857 -0.5228
53980SOL    HW273920   5.593   1.861   8.485 -1.5877 -1.3967 -1.1986
53981SOL     OW73921  12.962   5.910   6.945 -0.0820  0.0354 -0.2423
53981SOL    HW173922  12.867   5.922   6.936  0.2683  1.3971 -3.0801
53981SOL    HW273923  12.997   5.998   6.953  1.0186 -0.4154  0.1751
53982SOL     OW73924   3.912   9.628  12.501 -0.0776  0.3949  0.2931
53982SOL    HW173925   3.845   9.686  12.536 -1.1255 -0.5462 -0.0855
53982SOL    HW273926   3.989   9.644  12.555 -1.2461 -0.0662  2.1761
53983SOL     OW73927   9.363  13.029   8.652  0.4528  0.1663  0.3756
53983SOL    HW173928   9.401  13.109   8.615  1.6716 -0.7517 -0.4320
53983SOL    HW273929   9.269  13.045   8.650  0.6184  1.2128 -0.6791
53984SOL     OW73930   6.701   4.071  11.775 -0.3547 -0.4771 -0.2830
53984SOL    HW173931   6.718   4.164  11.793 -2.0247 -0.4659  1.5825
53984SOL    HW273932   6.782   4.040  11.734  1.6934  0.9655  2.3234
53985SOL     OW73933  12.977  12.073   9.050  0.7419  0.0814  0.0074
53985SOL    HW173934  12.927  12.135   8.997 -0.8445 -0.2391  1.0597
53985SOL    HW273935  13.029  12.128   9.108  0.2149  0.4415  0.1478
53986SOL     OW73936   5.092   9.134  12.501 -0.0275  0.5331 -0.3832
53986SOL    HW173937   5.037   9.125  12.423  0.4810 -0.5785 -0.6360
53986SOL    HW273938   5.162   9.069  12.489  2.5992  3.2358 -1.0955
53987SOL     OW73939  12.541  11.585   9.878 -0.3994  0.4956  0.2815
53987SOL    HW173940  12.492  11.506   9.854  0.1801  0.4501 -0.8056
53987SOL    HW273941  12.504  11.654   9.822  2.2544  0.0009 -2.3476
53988SOL     OW73942   7.150  12.631   1.648  0.6028  0.4782  0.3595
53988SOL    HW173943   7.055  12.640   1.644  0.5781  0.2725  0.5280
53988SOL    HW273944   7.177  12.630   1.556  0.2233 -1.8312  0.2146
53989SOL     OW73945   2.826   4.631   1.240  0.4104  0.0143 -0.5931
53989SOL    HW173946   2.897   4.589   1.192 -1.0895 -1.8951 -1.2340
53989SOL    HW273947   2.864   4.650   1.326  1.1392 -2.9874 -0.1344
53990SOL     OW73948   8.931   8.915   5.838 -0.3436 -0.4600  0.1961
53990SOL    HW173949   8.873   8.926   5.762 -1.0011 -0.9090  0.6267
53990SOL    HW273950   9.019   8.930   5.803 -0.1925 -4.2564 -1.5307
53991SOL     OW73951  11.771   2.033   3.777  0.0805 -0.5101 -0.4097
53991SOL    HW173952  11.817   2.097   3.832 -0.9868 -0.6998  0.7529
53991SOL    HW273953  11.833   2.012   3.708  1.6344 -0.5191  0.9182
53992SOL     OW73954  12.954  11.633   2.660  0.4736 -0.5718  0.0799
53992SOL    HW173955  12.963  11.568   2.729  1.1211 -0.5061  0.0607
53992SOL    HW273956  12.865  11.666   2.670  0.1406 -1.4544  0.0906
53993SOL     OW73957   7.433   7.498   8.967  0.1547 -0.1281  0.1090
53993SOL    HW173958   7.462   7.512   9.057 -0.7026 -2.4917  0.8161
53993SOL    HW273959   7.344   7.535   8.965 -0.3405 -1.2430  0.6486
53994SOL     OW73960  13.140  13.277  10.724 -0.5536 -0.0632  0.0398
53994SOL    HW173961  13.080  13.349  10.745  1.7878  1.7229  1.0634
53994SOL    HW273962  13.168  13.244  10.809 -1.4221 -2.1459 -0.4181
53995SOL     OW73963   4.219  12.604   6.049  0.4502  0.0744  0.2070
53995SOL    HW173964   4.226  12.586   5.955  0.9861  0.7484  0.1133
53995SOL    HW273965   4.142  12.660   6.057 -0.6051 -1.3381  0.3806
53996SOL     OW73966   3.041  10.056  13.190  0.0129  0.2343 -0.1391
53996SOL    HW173967   3.079   9.982  13.143 -0.4712  0.6017 -1.1485
53996SOL    HW273968   3.027  10.123  13.122 -2.4517  0.1130  0.1335
53997SOL     OW73969   5.300   9.153   3.898 -0.2199  0.0751 -0.1952
53997SOL    HW173970   5.252   9.219   3.849 -0.1462 -0.7230 -1.4123
53997SOL    HW273971   5.351   9.106   3.831  0.3090 -0.7185  0.7252
53998SOL     OW73972  13.362  10.608   0.133  0.0605  0.4169 -0.1419
53998SOL    HW173973  13.430  10.543   0.151 -0.5803 -0.4974 -0.8674
53998SOL    HW273974  13.397  10.691   0.165  0.3270 -0.5198  2.1751
53999SOL     OW73975  12.482   8.910  12.897 -0.0217  0.3912  0.3233
53999SOL    HW173976  12.558   8.937  12.846 -1.8935  0.7738 -2.4760
53999SOL    HW273977  12.463   8.821  12.868 -1.0967  0.5816  0.3966
54000SOL     OW73978   8.183   8.684   8.210 -0.2440 -0.1413  0.4320
54000SOL    HW173979   8.129   8.662   8.135 -1.5094 -1.5267  1.6760
54000SOL    HW273980   8.273   8.674   8.179 -0.7264 -0.0637 -1.0508
54001SOL     OW73981   9.812   9.047  13.388  0.1015 -0.0446  0.1545
54001SOL    HW173982   9.862   8.982  13.438 -0.7393 -0.1722  0.8581
54001SOL    HW273983   9.803   9.121  13.447  0.6212  0.5288 -0.4662
54002SOL     OW73984   5.538   2.172   7.679  0.9163  0.5169  0.1306
54002SOL    HW173985   5.515   2.237   7.746 -0.6285  0.5295 -0.3658
54002SOL    HW273986   5.457   2.161   7.628  2.0344  0.4673 -1.7109
54003SOL     OW73987   7.314  10.823  11.265 -0.3946 -0.2266 -0.3317
54003SOL    HW173988   7.244  10.807  11.328  0.2097 -0.4176  0.2870
54003SOL    HW273989   7.268  10.855  11.187 -1.0649  0.9315  0.5144
54004SOL     OW73990   6.625  11.080   2.943  0.4840  0.1615 -0.2976
54004SOL    HW173991   6.709  11.073   2.989 -0.3666 -0.5888  1.2348
54004SOL    HW273992   6.616  11.173   2.922  1.2218  0.4192  0.4807
54005SOL     OW73993   6.311   9.312  13.982  0.4072 -1.0561 -0.0641
54005SOL    HW173994   6.283   9.395  14.019 -0.0780  0.2305 -2.9915
54005SOL    HW273995   6.239   9.252  14.002 -0.9016  0.1801 -0.8542
54006SOL     OW73996   8.081   8.636   7.975 -0.4148 -0.1269  0.0862
54006SOL    HW173997   8.020   8.666   7.907 -1.7422  1.1346  1.7364
54006SOL    HW273998   8.166   8.670   7.948 -0.6689 -0.6569 -1.5180
54007SOL     OW73999   6.343   2.038  11.789 -0.7385  0.1290 -0.2065
54007SOL    HW174000   6.370   1.974  11.724  1.6256  1.1055 -0.2753
54007SOL    HW274001   6.424   2.068  11.829 -1.7233  3.0695 -0.1635
54008SOL     OW74002   1.741   7.385  10.574  0.1939  0.3499 -0.3467
54008SOL    HW174003   1.652   7.349  10.574  0.7935 -1.2500 -1.1449
54008SOL    HW274004   1.761   7.398  10.667 -0.5649 -0.1140 -0.1051
54009SOL     OW74005   0.471  10.822   1.101  0.9000  0.3482  0.5366
54009SOL    HW174006   0.421  10.745   1.075  2.5641 -0.4297 -0.5746
54009SOL    HW274007   0.405  10.889   1.117 -0.5407 -0.9801  0.4530
54010SOL     OW74008   0.209   7.272   8.392 -0.5973 -0.6475  0.5046
54010SOL    HW174009   0.183   7.208   8.457 -0.2504 -0.1986  1.0956
54010SOL    HW274010   0.304   7.282   8.404 -0.5238 -0.5714 -0.0774
54011SOL     OW74011  11.875   9.721   6.353 -0.3981 -0.7213  0.0715
54011SOL    HW174012  11.898   9.709   6.445  1.3099 -0.7187 -0.3317
54011SOL    HW274013  11.887   9.634   6.314 -0.6912 -0.6237 -0.2430
54012SOL     OW74014  13.536  11.955   5.945 -0.0350 -0.2965  0.5429
54012SOL    HW174015  13.475  11.986   5.879  0.3668 -0.5008  0.0711
54012SOL    HW274016  13.564  12.034   5.991  0.6375 -0.0012 -0.3551
54013SOL     OW74017   1.787  10.944   8.256 -0.0746  0.0008  0.7042
54013SOL    HW174018   1.870  10.898   8.258  0.0530  0.1399  4.6376
54013SOL    HW274019   1.805  11.029   8.296 -1.0758  2.3262 -3.2091
54014SOL     OW74020  12.204  10.730   8.575 -0.0306 -0.6626  0.2037
54014SOL    HW174021  12.294  10.761   8.570  0.3396 -1.6078  0.8279
54014SOL    HW274022  12.151  10.806   8.550  0.9247 -0.0525 -0.0071
54015SOL     OW74023   7.511   1.158  12.358 -0.3461  0.1531  0.2473
54015SOL    HW174024   7.581   1.126  12.301  0.5996  0.8956  0.9759
54015SOL    HW274025   7.520   1.106  12.438 -1.6613 -0.8746 -0.2260
54016SOL     OW74026   8.135  10.696  11.934  0.5082 -0.3999  0.1986
54016SOL    HW174027   8.125  10.762  11.865  1.3673  0.9871  1.3445
54016SOL    HW274028   8.113  10.613  11.891 -0.4007  0.5880 -1.3450
54017SOL     OW74029   3.875   3.523  12.757 -0.7746 -0.1682  0.1465
54017SOL    HW174030   3.950   3.493  12.706 -0.8484  2.8073 -2.0032
54017SOL    HW274031   3.906   3.524  12.848  1.6516  0.4865 -0.6177
54018SOL     OW74032  13.335   3.670   5.390 -0.2489  0.2292  0.1552
54018SOL    HW174033  13.377   3.589   5.361 -1.8469 -0.7683  0.5412
54018SOL    HW274034  13.267   3.642   5.451 -1.4606  1.7863 -0.4190
54019SOL     OW74035   4.808   2.176   9.239  0.0025  0.2736 -0.2881
54019SOL    HW174036   4.874   2.245   9.239  1.2107 -0.8230  1.2743
54019SOL    HW274037   4.786   2.163   9.331 -1.9976  0.1908 -0.7287
54020SOL     OW74038   8.182  10.959   9.317  0.1036 -0.3295  0.1098
54020SOL    HW174039   8.253  11.013   9.281  0.4963 -1.7421 -1.3447
54020SOL    HW274040   8.226  10.900   9.379 -0.3579  1.0838  1.8729
54021SOL     OW74041   9.737   2.849   0.299  0.0007 -0.4135 -0.2940
54021SOL    HW174042   9.798   2.812   0.363  0.4030  0.3088 -0.2468
54021SOL    HW274043   9.736   2.942   0.319 -1.0082 -0.3970 -0.3993
54022SOL     OW74044   9.028   0.625   3.564 -0.2461 -0.2716 -0.5333
54022SOL    HW174045   9.079   0.553   3.602 -0.8759 -1.2543 -1.5064
54022SOL    HW274046   9.011   0.684   3.638  1.1801 -0.5702  0.0634
54023SOL     OW74047  13.149  11.176   8.957  0.0199 -0.3178  0.3704
54023SOL    HW174048  13.181  11.262   8.986  0.6699  0.0465 -1.2827
54023SOL    HW274049  13.107  11.138   9.034  0.3126  1.2050  1.3167
54024SOL     OW74050  12.658   0.884  12.832 -0.1668 -0.1463  0.4228
54024SOL    HW174051  12.709   0.936  12.894 -0.1754  0.7104 -0.2685
54024SOL    HW274052  12.575   0.867  12.877  0.4322 -0.9145  1.2627
54025SOL     OW74053   8.700  11.913   8.226  0.1714  0.3523  0.1718
54025SOL    HW174054   8.619  11.881   8.186  0.5079 -1.9980  1.1870
54025SOL    HW274055   8.754  11.834   8.235  1.6211  1.4668  1.6846
54026SOL     OW74056   9.811   7.976   8.146 -0.1990 -0.1492  0.3464
54026SOL    HW174057   9.840   7.885   8.151  1.4109  0.3437  0.6235
54026SOL    HW274058   9.827   8.011   8.234 -0.5192  0.4685  0.1633
54027SOL     OW74059  12.064   2.899   0.848 -0.2183 -0.6427  0.1339
54027SOL    HW174060  12.151   2.911   0.811  0.1671 -2.0412  0.5286
54027SOL    HW274061  12.062   2.955   0.925 -0.4883  1.1199 -1.0958
54028SOL     OW74062   5.319   0.299   3.562  0.1578  0.0608  0.0150
54028SOL    HW174063   5.358   0.261   3.483 -4.1108  0.9435 -2.9196
54028SOL    HW274064   5.326   0.230   3.628  1.6540 -1.7727 -1.9013
54029SOL     OW74065   2.204   9.812   6.130  0.0567  0.0123 -0.6415
54029SOL    HW174066   2.262   9.869   6.181 -0.3672 -0.7850  0.7892
54029SOL    HW274067   2.258   9.736   6.109  0.0962  0.1390 -1.0047
54030SOL     OW74068   4.913   5.897   5.131  0.1807 -0.8269 -0.7013
54030SOL    HW174069   4.876   5.810   5.149  0.4647 -1.2621 -2.0712
54030SOL    HW274070   4.989   5.903   5.188  0.2650 -1.5529 -0.7292
54031SOL     OW74071  11.655   8.437   9.239  0.4674  0.0112  0.3056
54031SOL    HW174072  11.705   8.516   9.257  0.5232 -0.3738  1.9447
54031SOL    HW274073  11.567   8.456   9.269 -0.0019  0.0922 -1.0387
54032SOL     OW74074   1.564   4.433  10.270 -0.1926 -0.3251 -0.1190
54032SOL    HW174075   1.609   4.379  10.206 -1.0582 -0.6568 -0.4633
54032SOL    HW274076   1.557   4.519  10.228 -2.7260 -1.0968 -1.4615
54033SOL     OW74077  13.547   7.768   6.667  0.2144  0.2636 -0.0920
54033SOL    HW174078  13.498   7.715   6.730  0.0256  0.1192 -0.3592
54033SOL    HW274079  13.615   7.710   6.633  0.6560  0.4989  0.3663
54034SOL     OW74080  13.202   7.899   3.894  0.6929  0.4649 -0.2226
54034SOL    HW174081  13.166   7.943   3.971  0.5469  2.2672 -1.2689
54034SOL    HW274082  13.233   7.814   3.927  0.1611  0.9673  1.6956
54035SOL     OW74083  11.426   1.885   4.957 -0.6500 -0.0938  0.3002
54035SOL    HW174084  11.452   1.810   4.905 -0.6888 -0.7645  1.2268
54035SOL    HW274085  11.358   1.852   5.016 -0.0972  0.4571  1.2782
54036SOL     OW74086   9.227   4.959   9.795  0.0100 -0.2540 -0.4171
54036SOL    HW174087   9.188   4.953   9.708  1.3692 -1.2857 -1.0006
54036SOL    HW274088   9.273   5.043   9.795 -2.0790  0.9424  0.2571
54037SOL     OW74089  12.183   5.977   3.508 -0.4759 -0.4297  0.6455
54037SOL    HW174090  12.100   6.026   3.503  0.3502  1.3830  2.7722
54037SOL    HW274091  12.232   6.006   3.430 -1.2083 -0.2677  0.2326
54038SOL     OW74092   0.651   6.937  13.039  0.3876  0.2176 -0.4407
54038SOL    HW174093   0.732   6.886  13.032  1.6441  1.6779  2.1580
54038SOL    HW274094   0.679   7.028  13.044 -1.2966  0.7072  1.5064
54039SOL     OW74095  14.037  13.041   5.787  0.3319  0.1749  0.5257
54039SOL    HW174096  13.984  13.117   5.762 -2.3098 -0.6772  2.9835
54039SOL    HW274097  14.025  12.979   5.716 -0.6484  0.6182  0.2901
54040SOL     OW74098   0.121  11.716  11.193  0.5057  0.0504 -0.0953
54040SOL    HW174099   0.028  11.713  11.171  0.5295  0.2221 -0.2230
54040SOL    HW274100   0.160  11.771  11.125  0.5071  0.9737  0.6341
54041SOL     OW74101  10.954  12.915  13.420  0.1470 -0.0719 -0.2729
54041SOL    HW174102  10.885  12.976  13.394 -1.0072 -1.3712 -0.3461
54041SOL    HW274103  11.021  12.924  13.352  0.2261  1.4095 -0.0508
54042SOL     OW74104   9.698   8.565  10.814  0.5970  0.0775  0.1370
54042SOL    HW174105   9.657   8.508  10.880  0.2060  0.8016  0.5286
54042SOL    HW274106   9.637   8.638  10.804 -0.3745 -0.9616 -2.4977
54043SOL     OW74107   1.951   3.816  13.658 -0.0495 -0.2658  0.1038
54043SOL    HW174108   1.934   3.849  13.746 -0.5249 -0.9720  0.2856
54043SOL    HW274109   1.979   3.725  13.671  1.8060  0.2001 -0.3459
54044SOL     OW74110   5.554   6.512   7.100  0.0705 -0.0371  0.2060
54044SOL    HW174111   5.488   6.566   7.144  0.0410 -0.0922  0.2300
54044SOL    HW274112   5.579   6.562   7.023  2.0590  1.3278  1.6253
54045SOL     OW74113   9.495   2.063  10.851  0.1116 -0.2185 -0.2942
54045SOL    HW174114   9.422   2.110  10.891 -0.9184 -0.3857 -1.8655
54045SOL    HW274115   9.574   2.106  10.885 -0.7453  0.9199  0.3200
54046SOL     OW74116  10.056   9.687   6.844 -0.4761 -0.2874  0.4084
54046SOL    HW174117  10.024   9.656   6.759 -0.4993 -0.3245  0.4309
54046SOL    HW274118   9.978   9.694   6.899 -0.5518  0.3804  0.2260
54047SOL     OW74119   1.641   7.706   5.914 -0.1740  0.2388 -0.3190
54047SOL    HW174120   1.619   7.614   5.932  2.3669 -0.3966 -0.0696
54047SOL    HW274121   1.617   7.752   5.994 -0.7735 -0.3443 -0.1566
54048SOL     OW74122   9.594   1.890   3.313  0.6513  0.0735  0.0971
54048SOL    HW174123   9.592   1.873   3.219  0.4924  0.2143  0.0745
54048SOL    HW274124   9.636   1.975   3.322 -0.9576  0.9168  0.0237
54049SOL     OW74125  12.373   7.286   9.895  0.1427 -0.5720  0.4058
54049SOL    HW174126  12.286   7.282   9.855  0.2312 -3.6223  0.2838
54049SOL    HW274127  12.359   7.259   9.986  0.7334  0.8543  0.9537
54050SOL     OW74128   1.267  13.987   9.784  0.4208  0.3628  0.0879
54050SOL    HW174129   1.297  13.983   9.875  0.8506  1.3336  0.0003
54050SOL    HW274130   1.254  13.895   9.759  0.8055  0.0592  0.9582
54051SOL     OW74131   9.499   2.657   4.665 -0.1543  0.8435  0.2867
54051SOL    HW174132   9.485   2.745   4.631 -1.7353  0.8169  0.7986
54051SOL    HW274133   9.586   2.632   4.632  0.0320  2.3163 -0.4186
54052SOL     OW74134  13.644   8.536   9.427  0.1692  0.0166 -0.0828
54052SOL    HW174135  13.734   8.561   9.446 -0.3183  2.1441 -0.3329
54052SOL    HW274136  13.591   8.581   9.492 -0.8060 -0.2592 -0.6512
54053SOL     OW74137   2.342   7.945   3.707 -0.1501  0.5771  0.4946
54053SOL    HW174138   2.285   7.968   3.634 -0.2714  0.4938  0.5620
54053SOL    HW274139   2.429   7.937   3.668 -0.0492  1.4279  0.5149
54054SOL     OW74140  12.414   7.239   5.511  0.5259 -0.6681  0.1326
54054SOL    HW174141  12.423   7.288   5.430 -0.1024 -1.6218 -0.5297
54054SOL    HW274142  12.383   7.153   5.484 -2.5929 -0.1363  1.5937
54055SOL     OW74143  13.013   4.841   0.292 -0.8243 -0.3124  0.1754
54055SOL    HW174144  13.082   4.817   0.354 -0.2380  0.5434 -0.1348
54055SOL    HW274145  13.054   4.836   0.206 -0.9778  0.7378  0.0228
54056SOL     OW74146  12.734   7.880   1.022 -0.2655  0.2777  0.6289
54056SOL    HW174147  12.789   7.956   1.041 -0.6157  0.5102  0.7226
54056SOL    HW274148  12.796   7.810   1.001  0.0481  0.7502 -0.0639
54057SOL     OW74149   9.328   7.769   2.996  0.1579 -0.2538  0.1647
54057SOL    HW174150   9.387   7.845   2.994 -0.1728 -0.0079 -0.1768
54057SOL    HW274151   9.387   7.694   3.000  0.4835  0.0393  1.1168
54058SOL     OW74152   7.581   5.012  13.651 -0.2480  0.0526  0.3382
54058SOL    HW174153   7.623   5.016  13.737 -1.2749 -0.3240  0.8699
54058SOL    HW274154   7.654   5.005  13.589  0.4600 -0.7165  1.2373
54059SOL     OW74155  11.373   7.529   1.822 -0.1206 -0.1842 -0.1172
54059SOL    HW174156  11.336   7.581   1.751 -0.3788  1.2813  1.0506
54059SOL    HW274157  11.397   7.593   1.889  1.5707 -1.3885  0.4855
54060SOL     OW74158  13.366  11.316   7.930  0.4241  0.1340  0.0190
54060SOL    HW174159  13.317  11.248   7.884  0.4481 -0.0556  0.2743
54060SOL    HW274160  13.320  11.327   8.013 -0.3695  1.3568 -0.5427
54061SOL     OW74161   0.912  12.137   2.825  0.0766 -0.3883  0.1580
54061SOL    HW174162   0.883  12.190   2.751 -0.0915  1.2234  1.3216
54061SOL    HW274163   0.850  12.064   2.828  0.2972 -0.6930 -1.4648
54062SOL     OW74164   0.627   5.299   1.243 -0.0063  0.0279 -0.0975
54062SOL    HW174165   0.703   5.335   1.198  0.6175 -0.3858  0.5965
54062SOL    HW274166   0.552   5.338   1.199  0.6313  1.6558  0.1876
54063SOL     OW74167  10.379  13.128   3.085  0.0876 -0.3818  0.1128
54063SOL    HW174168  10.390  13.213   3.044  1.7578  0.3473  1.8717
54063SOL    HW274169  10.452  13.075   3.052 -0.1613 -0.6858  0.0439
54064SOL     OW74170  13.468   0.196   1.001 -0.0399 -0.5574  0.3918
54064SOL    HW174171  13.453   0.151   1.084  0.4722 -0.9060  0.2976
54064SOL    HW274172  13.407   0.154   0.940 -0.6456 -0.0863  0.6537
54065SOL     OW74173   0.046   4.523   6.452 -0.4315 -0.0248 -0.5995
54065SOL    HW174174  -0.035   4.473   6.442  0.6737 -1.6148 -2.1155
54065SOL    HW274175   0.050   4.578   6.374 -0.1303  0.1788 -0.4438
54066SOL     OW74176  11.884   6.253   1.664 -0.5140  0.1610 -0.3113
54066SOL    HW174177  11.864   6.215   1.750  0.3888 -0.8233 -0.5066
54066SOL    HW274178  11.929   6.182   1.617 -1.2256  0.5992 -1.6932
54067SOL     OW74179   7.281   6.092   4.425  0.4099  0.1270 -0.3044
54067SOL    HW174180   7.321   6.006   4.432  0.7898  0.3684  0.7283
54067SOL    HW274181   7.354   6.153   4.418  0.1664  0.4149 -0.4092
54068SOL     OW74182   2.656   9.901  12.724 -0.3445 -0.1357  0.9829
54068SOL    HW174183   2.615   9.822  12.760  0.5969 -1.5009 -0.7433
54068SOL    HW274184   2.738   9.910  12.773  0.1323 -0.9979  0.3839
54069SOL     OW74185  10.146  13.546   8.336 -0.8812  0.1615 -0.1337
54069SOL    HW174186  10.218  13.507   8.287 -2.0377 -2.2374 -0.0275
54069SOL    HW274187  10.089  13.584   8.269  0.1191  1.5575 -0.2488
54070SOL     OW74188   3.352   9.380   8.605 -0.2320  0.3135 -0.1644
54070SOL    HW174189   3.408   9.355   8.531  2.6242  0.3143  1.8428
54070SOL    HW274190   3.318   9.297   8.638 -1.2696  0.2869 -1.2308
54071SOL     OW74191   6.262   8.438  10.703  0.7152  0.3687 -0.0896
54071SOL    HW174192   6.319   8.515  10.699 -0.0925  0.9219 -2.1895
54071SOL    HW274193   6.315   8.368  10.666  0.7554  0.3780 -0.0509
54072SOL     OW74194   1.891   5.303  13.234  0.3739 -0.2529  0.3065
54072SOL    HW174195   1.983   5.314  13.209  0.3735  2.2601  1.0831
54072SOL    HW274196   1.842   5.343  13.162  0.1672  2.3462  1.7462
54073SOL     OW74197   0.635   8.882  12.040  0.6233  0.4665  0.3554
54073SOL    HW174198   0.689   8.921  11.971  1.8113  0.6630  1.3562
54073SOL    HW274199   0.695   8.824  12.087 -0.0651  0.5974  1.4291
54074SOL     OW74200   3.593   0.239   8.729 -0.0561 -0.2110 -1.0060
54074SOL    HW174201   3.686   0.260   8.717 -0.3616  0.6012 -2.1584
54074SOL    HW274202   3.560   0.228   8.640 -1.1865  0.0326 -0.6267
54075SOL     OW74203  10.324   6.118   4.201 -0.1815  0.2728  0.0178
54075SOL    HW174204  10.331   6.165   4.118 -2.1619 -0.5160 -0.6639
54075SOL    HW274205  10.335   6.185   4.268  1.5480  0.9070 -0.8382
54076SOL     OW74206   0.597   1.917   8.445  0.4960 -0.8692 -0.3430
54076SOL    HW174207   0.520   1.860   8.455 -0.2155  0.1024 -0.1659
54076SOL    HW274208   0.653   1.894   8.519 -0.0429 -0.9466  0.0506
54077SOL     OW74209  13.654  13.764   9.149 -0.1296 -0.0742  0.3854
54077SOL    HW174210  13.647  13.686   9.204  1.0306 -0.0367  0.6092
54077SOL    HW274211  13.746  13.768   9.124  0.1287  1.9073  1.4202
54078SOL     OW74212   4.565   0.358  12.720 -0.0028  0.5261 -0.5158
54078SOL    HW174213   4.655   0.377  12.746  0.0101  1.1988 -1.0281
54078SOL    HW274214   4.531   0.441  12.687 -0.9171  0.3621 -0.0438
54079SOL     OW74215  11.663   7.133   9.225 -0.8019  0.2539  0.2459
54079SOL    HW174216  11.672   7.038   9.227  0.4946  0.3382 -0.3827
54079SOL    HW274217  11.640   7.153   9.134  1.2925  0.6605 -0.2692
54080SOL     OW74218   1.666   4.283  10.050  0.3221 -0.0945 -0.6455
54080SOL    HW174219   1.722   4.262   9.975 -0.8489 -0.4292 -1.4715
54080SOL    HW274220   1.619   4.202  10.068  1.0359 -0.1894  0.8718
54081SOL     OW74221  10.423   1.172   4.411 -0.0989  0.1827  0.2997
54081SOL    HW174222  10.367   1.111   4.458 -1.0516  1.6781  1.1914
54081SOL    HW274223  10.400   1.258   4.446  1.7506  1.0009 -0.3334
54082SOL     OW74224   6.012   8.584   4.175 -0.0582  0.4432  0.6087
54082SOL    HW174225   6.076   8.642   4.135 -2.4645  0.1343 -4.4412
54082SOL    HW274226   6.035   8.497   4.143 -1.8683  0.0830  0.1671
54083SOL     OW74227   6.519   6.021   9.625 -0.2228  0.0734  0.0903
54083SOL    HW174228   6.447   5.969   9.588 -0.6533 -1.1365  2.4005
54083SOL    HW274229   6.579   6.035   9.552  0.1306 -4.1076 -0.6579
54084SOL     OW74230  10.727   4.646   5.683 -0.1036  0.1031  0.5806
54084SOL    HW174231  10.754   4.719   5.627 -0.2780  0.5381  1.0548
54084SOL    HW274232  10.755   4.672   5.771 -0.7692 -0.1033  0.8557
54085SOL     OW74233  13.018   5.983  10.992  0.4081 -0.3859 -0.4134
54085SOL    HW174234  13.034   5.925  10.917 -0.7659 -1.0516 -0.1765
54085SOL    HW274235  13.044   5.931  11.068  3.0990  0.8486 -0.3987
54086SOL     OW74236   0.731   7.671  11.869 -0.2327 -0.4176 -0.1434
54086SOL    HW174237   0.766   7.752  11.905  0.3514  0.8089 -3.1401
54086SOL    HW274238   0.780   7.601  11.913  1.5812  1.0065  0.2103
54087SOL     OW74239  12.278   4.018   8.447  0.3459 -0.1991 -0.4060
54087SOL    HW174240  12.204   4.002   8.505 -0.3850 -0.2462 -1.3162
54087SOL    HW274241  12.271   4.111   8.424  0.8236 -0.0986 -0.1639
54088SOL     OW74242   6.236   4.232  11.329 -0.6574 -0.4390 -0.3788
54088SOL    HW174243   6.195   4.161  11.280 -0.7029 -0.0835 -0.8609
54088SOL    HW274244   6.223   4.208  11.421 -1.7744 -0.4229 -0.5237
54089SOL     OW74245   7.714   1.976   1.132 -0.1255  0.1161  0.1295
54089SOL    HW174246   7.774   1.938   1.196 -0.7819 -1.1299  0.0226
54089SOL    HW274247   7.758   1.964   1.048 -0.6099 -0.9791  0.0293
54090SOL     OW74248   0.562   5.695   1.625  0.4513 -0.3014 -0.9290
54090SOL    HW174249   0.566   5.786   1.593  1.4450 -0.8885 -2.5522
54090SOL    HW274250   0.520   5.647   1.554 -0.0650 -1.1403 -0.0741
54091SOL     OW74251   3.662   5.686  10.310 -0.1459 -0.2623  0.4993
54091SOL    HW174252   3.675   5.609  10.366 -0.6375 -0.6234  0.1210
54091SOL    HW274253   3.725   5.750  10.343  0.8580 -1.1157  0.2840
54092SOL     OW74254   1.884   7.779   8.651 -0.5680 -0.1679  0.2450
54092SOL    HW174255   1.966   7.777   8.600 -0.5351 -1.3486  0.3236
54092SOL    HW274256   1.868   7.872   8.665  0.8020  0.0910  0.2853
54093SOL     OW74257   6.667   4.401   0.188 -0.4265  0.2617  0.2729
54093SOL    HW174258   6.624   4.470   0.239  0.7176  1.2745 -0.0685
54093SOL    HW274259   6.722   4.355   0.250 -0.0031  0.6762  0.2112
54094SOL     OW74260   4.450  11.585   2.077  0.2140 -0.0111  0.1308
54094SOL    HW174261   4.480  11.541   1.997  0.0181 -0.4246  0.2833
54094SOL    HW274262   4.354  11.585   2.070  0.0363 -2.2446  1.4890
54095SOL     OW74263   4.567  10.982  10.250 -0.0625 -0.2647 -0.0350
54095SOL    HW174264   4.537  10.911  10.307  0.5809 -0.1408  0.4763
54095SOL    HW274265   4.564  10.945  10.162 -1.5533 -0.2946  0.0038
54096SOL     OW74266   4.278  12.202   1.895 -0.0103  0.3777 -0.2396
54096SOL    HW174267   4.255  12.262   1.825 -3.0072 -1.0571 -0.6176
54096SOL    HW274268   4.195  12.164   1.924  1.2969 -0.5209  2.8114
54097SOL     OW74269   5.596  13.297   7.385  0.1899 -0.1693  0.1429
54097SOL    HW174270   5.502  13.291   7.366  0.1471 -1.6670  0.6656
54097SOL    HW274271   5.626  13.373   7.336 -0.8513 -0.9872 -1.8911
54098SOL     OW74272   4.854   2.845  11.233  0.4222  0.2450  0.0005
54098SOL    HW174273   4.800   2.902  11.179 -0.0769  0.2951  0.5395
54098SOL    HW274274   4.903   2.904  11.290 -0.6672  0.1394  1.0971
54099SOL     OW74275   3.804  11.902   2.440 -0.3261  0.0674  0.4310
54099SOL    HW174276   3.776  11.913   2.531 -1.1931 -1.6401  0.4190
54099SOL    HW274277   3.899  11.898   2.444 -0.4107 -2.0534  1.5746
54100SOL     OW74278  10.500   7.113   6.059  0.1899 -0.0604  0.3611
54100SOL    HW174279  10.567   7.115   6.127  1.4545 -0.6598 -0.8172
54100SOL    HW274280  10.527   7.181   5.996  0.2892 -1.0099 -0.6518
54101SOL     OW74281   5.662   5.705   8.680 -0.1240  0.6717  0.0673
54101SOL    HW174282   5.731   5.668   8.625 -0.1886  0.0064  0.4177
54101SOL    HW274283   5.707   5.738   8.757 -0.2684 -0.6846  0.7743
54102SOL     OW74284   2.984  12.211   1.288 -0.0316 -0.5276  0.3341
54102SOL    HW174285   2.974  12.266   1.210 -2.7333  1.9789  2.2291
54102SOL    HW274286   2.894  12.190   1.314  0.7793 -1.4498  2.6709
54103SOL     OW74287   9.251   3.256   3.920  0.3140  0.1750  0.0293
54103SOL    HW174288   9.212   3.251   4.008 -0.6658 -2.2839 -0.4592
54103SOL    HW274289   9.338   3.218   3.930  0.5666  0.7684  0.1065
54104SOL     OW74290  13.331  12.177   1.717 -0.1254 -0.4843 -0.2100
54104SOL    HW174291  13.347  12.096   1.764  2.3017  0.7118  1.2201
54104SOL    HW274292  13.256  12.216   1.761 -0.0090 -0.9941  0.4574
54105SOL     OW74293   1.170   4.728   9.535  0.1573  0.2641 -0.6723
54105SOL    HW174294   1.178   4.768   9.622 -1.8607  2.7084 -1.4737
54105SOL    HW274295   1.117   4.649   9.550  1.4038 -0.3847  0.5284
54106SOL     OW74296   6.292  12.704  10.624 -0.5175  0.0832 -0.1177
54106SOL    HW174297   6.241  12.737  10.549  0.7449 -1.0297 -1.5162
54106SOL    HW274298   6.226  12.679  10.688 -1.7566 -0.9231 -1.7105
54107SOL     OW74299   1.487  11.452  11.946  0.4698  0.4185  0.4317
54107SOL    HW174300   1.527  11.376  11.904 -0.5976 -1.0855  1.9818
54107SOL    HW274301   1.418  11.480  11.886 -0.3974 -1.0827  0.6913
54108SOL     OW74302   8.425   5.826   7.304  0.3085  0.2684 -1.0702
54108SOL    HW174303   8.353   5.763   7.299  0.3918  0.1558 -0.8470
54108SOL    HW274304   8.503   5.775   7.284  0.4570  0.1533 -0.2391
54109SOL     OW74305   6.923   6.309   7.160  0.0677  0.5048  0.3328
54109SOL    HW174306   6.969   6.367   7.100 -1.1497 -0.0268 -1.2073
54109SOL    HW274307   6.983   6.297   7.234  2.4193 -0.2220 -1.5818
54110SOL     OW74308   0.592  12.373   2.064 -0.0244  0.3548  0.4154
54110SOL    HW174309   0.616  12.314   1.992  1.6712  0.7387  0.6194
54110SOL    HW274310   0.533  12.437   2.024  1.9736  1.4065 -1.0225
54111SOL     OW74311   7.873  13.612   5.511  0.0040  0.7233 -0.0046
54111SOL    HW174312   7.880  13.566   5.427 -1.2004  0.3981  0.0450
54111SOL    HW274313   7.893  13.546   5.577 -1.1462  0.3876  0.0392
54112SOL     OW74314  11.148  11.254  13.476  0.4849  0.6198  0.0835
54112SOL    HW174315  11.097  11.192  13.423  1.1946 -1.9671  2.2241
54112SOL    HW274316  11.087  11.324  13.496 -0.8879 -0.1891 -1.0360
54113SOL     OW74317  13.721   1.118  12.357  0.2563  0.6031  0.2342
54113SOL    HW174318  13.688   1.194  12.309 -0.1375 -0.1275 -0.6752
54113SOL    HW274319  13.801   1.150  12.400 -0.0377  1.5902  0.0715
54114SOL     OW74320  10.503   5.058   8.774  1.4226  0.0877 -0.0179
54114SOL    HW174321  10.553   5.140   8.782  0.7219  0.4563  0.7441
54114SOL    HW274322  10.520   5.012   8.855  0.3949  0.3001  0.3302
54115SOL     OW74323   1.775   6.787   8.861 -0.1833 -0.3317  0.3016
54115SOL    HW174324   1.763   6.882   8.864  0.8587 -0.1710 -0.2008
54115SOL    HW274325   1.870   6.775   8.853 -0.2445 -1.4333  1.0057
54116SOL     OW74326   2.709   9.890  11.200 -0.1374 -0.3096 -0.2355
54116SOL    HW174327   2.654   9.914  11.274  0.2819  0.4279 -0.1504
54116SOL    HW274328   2.679   9.803  11.175 -0.7841 -0.2577  0.3249
54117SOL     OW74329   1.858   9.807   5.479  0.0933  0.5694 -0.6403
54117SOL    HW174330   1.797   9.878   5.461 -0.0023  0.8275  0.6598
54117SOL    HW274331   1.803   9.729   5.486  0.0891  0.5351 -1.0285
54118SOL     OW74332   2.282   4.771   6.998  0.2990  0.5504 -0.1352
54118SOL    HW174333   2.359   4.735   7.041  0.5608  0.5516 -0.5939
54118SOL    HW274334   2.208   4.736   7.047  0.6027  0.9801  0.6461
54119SOL     OW74335   8.233  13.908   7.515  0.2482 -0.0866 -0.2300
54119SOL    HW174336   8.222  13.822   7.475 -1.8968  0.2475 -0.4499
54119SOL    HW274337   8.260  13.965   7.442 -1.1780  0.0027 -0.7122
54120SOL     OW74338  12.819   2.078   1.692 -0.4877  0.3945 -0.1416
54120SOL    HW174339  12.860   2.149   1.741 -1.9204  0.0255  1.7029
54120SOL    HW274340  12.753   2.120   1.638  0.0794  0.6535 -0.6443
54121SOL     OW74341   7.959   6.843   9.218 -0.6385  0.2803 -0.2315
54121SOL    HW174342   7.947   6.938   9.208  0.1519  0.5060  0.9119
54121SOL    HW274343   7.980   6.830   9.310 -0.8809 -1.0383 -0.3373
54122SOL     OW74344  13.681   6.198   5.541  0.5026  0.2154 -0.3060
54122SOL    HW174345  13.629   6.269   5.502  0.0993 -0.8249 -1.7705
54122SOL    HW274346  13.757   6.189   5.484  0.1207 -1.0688 -0.6569
54123SOL     OW74347   1.287   2.773   9.895 -0.0644  0.6340  0.2136
54123SOL    HW174348   1.194   2.794   9.887 -0.2840 -0.9030 -3.3953
54123SOL    HW274349   1.330   2.833   9.834  0.8144 -0.9127 -0.7515
54124SOL     OW74350  10.870   6.330  12.756 -0.1869  0.0681 -0.2578
54124SOL    HW174351  10.940   6.318  12.819 -0.2948  0.2723 -0.0971
54124SOL    HW274352  10.857   6.244  12.717 -1.3163 -0.4876  1.2494
54125SOL     OW74353   8.930   2.643  10.623  0.4302  0.6926  0.1610
54125SOL    HW174354   8.926   2.632  10.718  1.6171 -0.1526  0.1286
54125SOL    HW274355   8.847   2.610  10.591  0.8874 -1.1267  0.7401
54126SOL     OW74356   1.137   7.104   2.959 -0.4467  0.2975 -0.2658
54126SOL    HW174357   1.173   7.031   2.910  0.7197  0.6495  0.0542
54126SOL    HW274358   1.174   7.182   2.918 -2.9307  0.8637 -1.6730
54127SOL     OW74359   7.692   2.420  13.460 -0.5970  0.0136 -0.6396
54127SOL    HW174360   7.617   2.407  13.518 -0.1435 -3.3405 -0.6181
54127SOL    HW274361   7.721   2.332  13.437  2.0979  1.1878 -2.3171
54128SOL     OW74362   6.725   2.172   9.123  0.3736 -0.4681 -0.3880
54128SOL    HW174363   6.808   2.170   9.169 -1.1756  0.9403  2.7640
54128SOL    HW274364   6.679   2.094   9.154  0.1805 -0.8283 -1.5196
54129SOL     OW74365  12.222   1.476  10.367 -0.0700 -0.6869  0.9446
54129SOL    HW174366  12.200   1.467  10.460  2.5085 -0.9289  1.6166
54129SOL    HW274367  12.279   1.553  10.364  1.0112 -1.4904 -0.1949
54130SOL     OW74368   0.832  12.805   9.764 -0.6449  0.2292 -0.1492
54130SOL    HW174369   0.787  12.766   9.689  0.2567  1.8935 -1.6016
54130SOL    HW274370   0.919  12.766   9.763 -0.6745  0.1535  0.1218
54131SOL     OW74371  10.206   2.554   8.363  0.7214 -0.3520  0.2791
54131SOL    HW174372  10.113   2.552   8.385 -0.1636 -1.7986 -2.9728
54131SOL    HW274373  10.235   2.641   8.390 -1.0381 -0.4874  3.0302
54132SOL     OW74374   3.612   7.087   9.455  0.1299 -0.6993  0.3417
54132SOL    HW174375   3.684   7.043   9.499  1.3706  1.4401  0.6355
54132SOL    HW274376   3.547   7.103   9.523  0.3884 -0.6595  0.5784
54133SOL     OW74377   1.594  13.909   3.036 -0.0489 -0.5920  0.0222
54133SOL    HW174378   1.561  13.847   3.101  0.5202  0.8399  1.7598
54133SOL    HW274379   1.668  13.864   2.996  0.5461 -0.9728  1.4583
54134SOL     OW74380   6.242  13.849   7.632 -0.1689  0.4906  0.1264
54134SOL    HW174381   6.185  13.805   7.569  1.2992 -3.1930  1.0838
54134SOL    HW274382   6.299  13.904   7.578  0.0684 -1.3836 -1.6682
54135SOL     OW74383   9.109   1.490   2.153 -0.0148  0.0113 -0.4604
54135SOL    HW174384   9.145   1.417   2.103  0.0132 -1.2054  1.2280
54135SOL    HW274385   9.022   1.505   2.115  0.5410  0.0650 -1.7422
54136SOL     OW74386   0.717  12.543  11.889  0.1798  0.0547 -0.5285
54136SOL    HW174387   0.743  12.454  11.867  0.8667 -0.7077  2.8065
54136SOL    HW274388   0.787  12.598  11.855  0.0072 -0.6925 -2.1696
54137SOL     OW74389   2.035  10.537   7.081  0.7290  0.3199  0.8397
54137SOL    HW174390   2.124  10.507   7.065  0.4746  0.1892 -0.3916
54137SOL    HW274391   2.022  10.609   7.020 -0.6051 -0.8279 -0.2898
54138SOL     OW74392  10.977   2.930   8.299 -0.1401 -0.3362 -0.1785
54138SOL    HW174393  10.933   2.960   8.220  0.2258 -0.9017 -0.6087
54138SOL    HW274394  10.906   2.905   8.358 -0.4183  0.2912 -0.2435
54139SOL     OW74395  13.333  11.526   1.599 -0.3252  0.2227 -0.1349
54139SOL    HW174396  13.248  11.537   1.641  0.5405 -0.3546  1.9131
54139SOL    HW274397  13.313  11.489   1.513 -2.0706 -1.7598  1.0257
54140SOL     OW74398   8.024   4.337   5.617 -0.3472 -0.4724 -0.5092
54140SOL    HW174399   8.077   4.261   5.641  0.1066  0.0443  0.1873
54140SOL    HW274400   8.067   4.411   5.660 -0.8566  0.1625 -1.0595
54141SOL     OW74401   0.815  13.029   6.743  0.1129 -0.1978 -0.5690
54141SOL    HW174402   0.739  13.033   6.801  1.8356 -0.9272  1.9092
54141SOL    HW274403   0.792  12.965   6.676 -1.9694  0.7020 -0.7704
54142SOL     OW74404   3.034   2.462   8.856  0.3744 -0.7155 -0.2164
54142SOL    HW174405   3.071   2.442   8.770 -0.4734  0.0492 -0.7803
54142SOL    HW274406   2.944   2.490   8.837  0.9769  2.0542  0.6483
54143SOL     OW74407   1.126   3.005   1.165 -0.0534  0.5131  0.6050
54143SOL    HW174408   1.212   3.012   1.125 -0.9627  1.2877 -1.3516
54143SOL    HW274409   1.099   3.095   1.180 -0.0230  0.2536  2.4373
54144SOL     OW74410   0.355   8.927  11.078 -0.0657  0.4369 -0.2758
54144SOL    HW174411   0.417   8.854  11.086  0.2582  0.5208 -1.8221
54144SOL    HW274412   0.405   8.996  11.034 -1.0083  0.8142 -0.7782
54145SOL     OW74413   4.022   3.642   6.799 -0.4640  0.0358  0.4756
54145SOL    HW174414   4.006   3.570   6.860  0.6213 -1.0539 -0.4620
54145SOL    HW274415   4.102   3.616   6.752 -0.4545  1.5159 -0.3904
54146SOL     OW74416   6.864  11.828  10.107 -0.4929  0.1886  0.0484
54146SOL    HW174417   6.864  11.923  10.113  1.9564  0.4484 -2.0491
54146SOL    HW274418   6.779  11.805  10.070 -1.6802  1.3570  1.9090
54147SOL     OW74419   5.218  12.718   3.322 -0.1251 -0.9031  0.9850
54147SOL    HW174420   5.158  12.744   3.391 -2.4601  0.5269 -1.3970
54147SOL    HW274421   5.202  12.781   3.252  1.7463 -2.5638 -1.0704
54148SOL     OW74422   7.072  10.594   7.460 -0.3435 -0.1121  0.3466
54148SOL    HW174423   6.987  10.626   7.431  0.0809  2.1562  1.4451
54148SOL    HW274424   7.055  10.502   7.483 -2.9539  0.6614  2.1174
54149SOL     OW74425   7.719   4.215   1.382  0.0209  0.4142 -0.4220
54149SOL    HW174426   7.779   4.182   1.315 -0.4972  0.1235 -0.7458
54149SOL    HW274427   7.703   4.140   1.439 -2.2506 -0.3507 -1.9431
54150SOL     OW74428   2.880  10.018   0.300  0.3234  0.2818 -0.5590
54150SOL    HW174429   2.808  10.076   0.278  0.4078  0.5274 -0.2016
54150SOL    HW274430   2.837   9.935   0.323  0.0446  0.7962  0.8978
54151SOL     OW74431   7.481   2.129   8.488  0.2092 -0.0598 -0.7575
54151SOL    HW174432   7.439   2.044   8.502 -1.7244  0.7444 -1.3161
54151SOL    HW274433   7.490   2.165   8.576 -0.7250 -0.0671 -0.6450
54152SOL     OW74434  13.489  12.987  10.800  0.2432 -0.0110  0.0972
54152SOL    HW174435  13.550  12.967  10.728  1.2941  1.6159  0.4789
54152SOL    HW274436  13.403  12.961  10.767  0.7734  0.2534 -1.5744
54153SOL     OW74437   4.384   0.774   9.830 -0.3747  0.7436  0.2648
54153SOL    HW174438   4.427   0.745   9.911 -0.4614  0.8048  0.3334
54153SOL    HW274439   4.362   0.866   9.847 -0.8343  0.6184  0.3558
54154SOL     OW74440   7.692  11.123  13.500 -0.0553  0.6303  0.2424
54154SOL    HW174441   7.751  11.050  13.487 -2.1991 -1.1888  0.0941
54154SOL    HW274442   7.746  11.201  13.489  2.1995 -0.9175 -0.1127
54155SOL     OW74443  13.707   5.477   6.706  0.0020  0.3631  0.5631
54155SOL    HW174444  13.789   5.526   6.715  0.0636  0.1713  1.1090
54155SOL    HW274445  13.736   5.388   6.684 -0.0728  0.3627  0.4668
54156SOL     OW74446   5.152   9.220   9.737  0.3833 -0.3272  0.5994
54156SOL    HW174447   5.181   9.145   9.789  1.3671  0.3185  1.0148
54156SOL    HW274448   5.147   9.292   9.800 -2.0912 -0.3619  0.5328
54157SOL     OW74449   3.842   3.420   2.907 -0.3904 -0.1510 -0.0606
54157SOL    HW174450   3.834   3.392   2.998  1.0062  0.9073  0.4218
54157SOL    HW274451   3.752   3.436   2.879 -0.8503 -0.6011  1.0843
54158SOL     OW74452   7.258   4.958  12.027  0.0728 -0.5095 -0.8095
54158SOL    HW174453   7.170   4.983  12.000  0.4276 -0.2968 -1.7934
54158SOL    HW274454   7.306   4.945  11.946  1.5494  1.4908 -0.3530
54159SOL     OW74455   8.155   1.410   3.622  0.7139  0.9453  0.3464
54159SOL    HW174456   8.105   1.478   3.577  0.1257  0.7963  0.7599
54159SOL    HW274457   8.150   1.433   3.714 -1.9827 -1.1752  0.8538
54160SOL     OW74458   9.030   4.105  13.591 -1.0322  0.1286 -0.4247
54160SOL    HW174459   9.031   4.013  13.618  1.0557  0.2318  0.0515
54160SOL    HW274460   9.048   4.103  13.497 -1.0400  0.0419 -0.4239
54161SOL     OW74461  12.215   3.518   0.545  0.1727  0.5095 -0.0588
54161SOL    HW174462  12.303   3.527   0.508 -0.1197  2.1676 -0.4197
54161SOL    HW274463  12.222   3.556   0.632  0.0512 -0.3390  0.3288
54162SOL     OW74464   3.883   2.052   5.655  0.1259 -0.3019 -0.1267
54162SOL    HW174465   3.861   1.960   5.666 -1.6536 -0.0915 -1.4891
54162SOL    HW274466   3.950   2.069   5.721  1.3657 -2.8468 -0.6327
54163SOL     OW74467  13.795   5.732  11.114  0.3230  0.5875 -0.1833
54163SOL    HW174468  13.720   5.769  11.161  1.0106  2.3055 -0.3719
54163SOL    HW274469  13.864   5.797  11.124  1.9525 -1.1423  0.3212
54164SOL     OW74470  11.125   2.662   0.154  0.4408  0.2900 -0.4537
54164SOL    HW174471  11.148   2.574   0.124 -2.7165 -0.4936 -0.9793
54164SOL    HW274472  11.136   2.659   0.249 -0.1348 -0.8538 -0.4118
54165SOL     OW74473   7.047   8.258  12.304  0.3930 -0.1177  0.7736
54165SOL    HW174474   7.097   8.301  12.373 -0.2761  1.1215  0.5103
54165SOL    HW274475   6.957   8.261  12.334 -0.2636  2.5512 -1.1069
54166SOL     OW74476   2.027   7.671   4.151 -0.2814 -0.0371  0.4231
54166SOL    HW174477   2.093   7.659   4.219 -0.9049  0.8070  1.2123
54166SOL    HW274478   2.069   7.641   4.070  0.3328 -1.4793  1.2347
54167SOL     OW74479   9.835   7.783  10.400  0.3858 -0.0478 -0.1743
54167SOL    HW174480   9.825   7.728  10.478 -0.6485  0.7182  0.2661
54167SOL    HW274481   9.783   7.739  10.333  3.0319 -1.9070 -1.1586
54168SOL     OW74482  13.822   5.359   9.665 -0.4534  0.1346 -0.0623
54168SOL    HW174483  13.779   5.444   9.654  0.3005  0.5266 -0.0413
54168SOL    HW274484  13.814   5.316   9.580  0.3767  0.8102 -0.4987
54169SOL     OW74485   9.354   2.353   5.452 -0.4656 -0.5701 -0.0758
54169SOL    HW174486   9.267   2.315   5.443 -1.2642  0.7065  1.7015
54169SOL    HW274487   9.339   2.447   5.452  0.9759 -0.3185 -0.1551
54170SOL     OW74488  13.394  10.029   0.477 -0.0104 -0.1318  0.2174
54170SOL    HW174489  13.323   9.966   0.464 -0.2328 -0.1473  1.3991
54170SOL    HW274490  13.471   9.975   0.494  0.3773 -0.1238 -1.3303
54171SOL     OW74491   9.571   5.443  11.209 -0.0354  0.3650 -0.0827
54171SOL    HW174492   9.539   5.413  11.124 -0.3055 -0.4435  0.2926
54171SOL    HW274493   9.525   5.526  11.224 -1.2180 -0.2816 -0.0061
54172SOL     OW74494   4.325   2.012   4.064  0.6314 -0.0162  0.3272
54172SOL    HW174495   4.410   1.971   4.051  0.1198 -0.8976 -0.3661
54172SOL    HW274496   4.345   2.098   4.102  1.6703 -1.6710  4.0050
54173SOL     OW74497   0.784   0.244   4.733 -0.5029  0.0507 -0.5837
54173SOL    HW174498   0.841   0.235   4.809 -0.5422  2.6311 -0.1881
54173SOL    HW274499   0.775   0.154   4.700  2.3537 -0.6903  0.3410
54174SOL     OW74500   9.297   9.380   4.368 -0.3165 -0.0464 -0.1173
54174SOL    HW174501   9.301   9.286   4.351  1.9976 -0.1585  0.7195
54174SOL    HW274502   9.388   9.409   4.366 -0.8915  2.0035  0.6240
54175SOL     OW74503   4.379   3.550   3.436  0.2321  0.0475 -0.4197
54175SOL    HW174504   4.422   3.465   3.437  1.3511  0.5965  0.2783
54175SOL    HW274505   4.300   3.536   3.384 -1.1965 -2.1831  2.1229
54176SOL     OW74506   8.713   1.448   4.473 -0.5061  0.5531 -0.2018
54176SOL    HW174507   8.721   1.362   4.433  0.6131  0.3082  0.4970
54176SOL    HW274508   8.678   1.432   4.560  2.9276  0.3523  1.2904
54177SOL     OW74509  13.640   6.314   2.220  0.4802 -0.0400  0.5351
54177SOL    HW174510  13.664   6.276   2.304  0.2301  1.3901  1.2667
54177SOL    HW274511  13.626   6.238   2.163  0.3856 -1.0289  1.8402
54178SOL     OW74512   8.554   3.566   0.009  0.4156 -0.5201  0.2812
54178SOL    HW174513   8.526   3.553   0.100  0.9414 -0.8207  0.4084
54178SOL    HW274514   8.557   3.661  -0.002 -1.6523 -0.4626 -0.0649
54179SOL     OW74515  13.888   7.156   7.667  0.2719 -0.9694 -0.5137
54179SOL    HW174516  13.820   7.215   7.699  0.4846 -1.7886  1.6048
54179SOL    HW274517  13.893   7.174   7.573 -1.2520  0.7232 -0.3269
54180SOL     OW74518   1.205   3.593   1.214 -0.1771 -0.4090  0.4746
54180SOL    HW174519   1.264   3.650   1.263  1.6259 -0.9378 -0.9489
54180SOL    HW274520   1.127   3.585   1.269  0.7999  0.8690  2.1252
54181SOL     OW74521   8.078   1.627   0.452 -0.8223 -0.3122  0.1279
54181SOL    HW174522   8.135   1.685   0.503 -0.0297 -0.5141 -0.4854
54181SOL    HW274523   8.125   1.543   0.450 -0.9527 -0.3803 -0.6882
54182SOL     OW74524  13.167   4.333   5.365  0.4717  0.0135 -0.6193
54182SOL    HW174525  13.186   4.410   5.419 -0.7502 -1.4019  2.0434
54182SOL    HW274526  13.087   4.356   5.318  0.9488  0.8872 -1.0246
54183SOL     OW74527  13.254   6.095  12.713 -0.7603 -0.9611  0.3110
54183SOL    HW174528  13.180   6.133  12.666 -0.8213 -1.4160  0.0397
54183SOL    HW274529  13.243   6.001  12.704 -1.2920 -1.0914  2.0490
54184SOL     OW74530   1.643   2.818   4.662 -0.2478 -0.0253  0.2385
54184SOL    HW174531   1.700   2.741   4.661 -2.1261 -1.4815  0.0911
54184SOL    HW274532   1.618   2.828   4.754 -2.5288 -1.6232 -0.1282
54185SOL     OW74533   2.900   4.403   3.922  0.6392 -0.5768 -0.0171
54185SOL    HW174534   2.946   4.469   3.974 -1.4094  0.8587  0.0494
54185SOL    HW274535   2.935   4.415   3.834  0.8648  0.0511  0.1494
54186SOL     OW74536   9.170   6.517   6.696  0.4327  0.5183 -0.3315
54186SOL    HW174537   9.081   6.483   6.699  0.0452  1.5419  0.4369
54186SOL    HW274538   9.183   6.545   6.606  0.3542 -0.5436 -0.6953
54187SOL     OW74539  13.035  10.307   7.414 -0.1126 -0.0797 -0.5104
54187SOL    HW174540  13.051  10.294   7.507  0.7907  0.0153 -0.6455
54187SOL    HW274541  12.965  10.246   7.393 -0.5784  0.1516  0.3030
54188SOL     OW74542   1.583  10.223   6.883 -0.1008 -0.2888  0.0319
54188SOL    HW174543   1.542  10.265   6.959  0.5596 -1.2356  0.9350
54188SOL    HW274544   1.635  10.293   6.843 -1.0515  0.4192 -0.0184
54189SOL     OW74545   8.563   7.265   5.626  0.0952  0.0861  0.2112
54189SOL    HW174546   8.631   7.232   5.568 -0.3420  0.8765 -0.7784
54189SOL    HW274547   8.528   7.187   5.669 -0.5460 -0.7262 -1.6627
54190SOL     OW74548  11.483   9.768  12.592 -0.1176  0.1613 -0.0502
54190SOL    HW174549  11.522   9.784  12.678  2.0388  1.3753 -1.1701
54190SOL    HW274550  11.503   9.847  12.541 -0.6686 -0.8111 -1.8816
54191SOL     OW74551  10.733   6.572  10.939  0.6689 -0.1794 -0.3088
54191SOL    HW174552  10.659   6.629  10.919  1.0856  0.0957 -1.1746
54191SOL    HW274553  10.769   6.607  11.021 -0.5728 -0.7715  0.5105
54192SOL     OW74554   2.174  10.437   9.003  0.1890  0.0021 -0.4044
54192SOL    HW174555   2.202  10.507   8.944 -1.4868  0.0743 -1.1775
54192SOL    HW274556   2.120  10.481   9.069  1.6512 -0.1479  0.9657
54193SOL     OW74557  10.721   8.283  13.468 -0.4782  0.1975  0.0974
54193SOL    HW174558  10.812   8.286  13.498 -0.9134  0.6274  1.4764
54193SOL    HW274559  10.677   8.229  13.533 -0.9839 -1.1045 -1.2767
54194SOL     OW74560   6.884  12.223   2.647  0.4764  0.2261  0.4013
54194SOL    HW174561   6.948  12.156   2.673  1.6971  0.9611 -0.5688
54194SOL    HW274562   6.904  12.240   2.555 -1.5790  0.0239 -0.1207
54195SOL     OW74563   8.237   1.192  11.096  0.5756  0.1719  0.4931
54195SOL    HW174564   8.206   1.282  11.092  1.8816  0.6975  1.3449
54195SOL    HW274565   8.318   1.192  11.044  1.1593 -0.2281  1.3620
54196SOL     OW74566  13.188   0.230   2.015  0.0808 -0.2998  0.2053
54196SOL    HW174567  13.245   0.284   2.070  0.9524 -0.8456 -0.1402
54196SOL    HW274568  13.174   0.150   2.066 -1.4759  0.3520  0.8575
54197SOL     OW74569  13.816   1.842  13.867 -0.1378 -0.1142  0.1870
54197SOL    HW174570  13.789   1.928  13.834  0.0086  0.9308  2.5617
54197SOL    HW274571  13.743   1.784  13.844 -1.1205  1.0692  0.1804
54198SOL     OW74572   0.944   8.656   7.032 -0.2718  0.2549 -0.6891
54198SOL    HW174573   0.959   8.723   6.965 -0.3237  1.2028  0.2208
54198SOL    HW274574   0.921   8.577   6.982  1.7906  0.3442 -1.8870
54199SOL     OW74575   2.452   5.898   6.923 -0.4115 -0.1963  0.3314
54199SOL    HW174576   2.512   5.972   6.927 -1.9368  1.0580  0.9996
54199SOL    HW274577   2.365   5.937   6.930 -1.3297 -1.9461 -0.6507
54200SOL     OW74578  13.180   6.395   0.958 -0.7078 -0.2181 -0.0997
54200SOL    HW174579  13.214   6.309   0.979 -0.8835 -0.0056  1.1384
54200SOL    HW274580  13.100   6.403   1.011 -0.3211  0.9550  0.3487
54201SOL     OW74581  12.073  13.261   6.962 -0.0293  0.1211 -0.2246
54201SOL    HW174582  12.118  13.178   6.945 -0.9290 -0.2150 -1.0226
54201SOL    HW274583  12.144  13.326   6.966  0.5068 -0.2117 -2.5580
54202SOL     OW74584   2.272   6.939  10.229  0.1460  0.1079 -0.4535
54202SOL    HW174585   2.303   6.892  10.306  0.0615  0.6642 -0.0788
54202SOL    HW274586   2.197   6.989  10.260 -0.1258  0.0386 -0.9848
54203SOL     OW74587   3.347   8.639  11.935 -0.2276 -0.4000 -0.1659
54203SOL    HW174588   3.326   8.575  11.867  2.1228 -1.4813  0.0106
54203SOL    HW274589   3.419   8.690  11.899  0.2818 -0.2114  1.0490
54204SOL     OW74590  11.293   8.170  13.167  0.3756  0.7512  0.3315
54204SOL    HW174591  11.313   8.150  13.075 -1.7961 -0.6013  0.0776
54204SOL    HW274592  11.377   8.194  13.205  1.3590  1.2779 -1.9809
54205SOL     OW74593   4.394   8.741  12.922 -0.4177 -0.0316 -0.0686
54205SOL    HW174594   4.440   8.809  12.873  0.9932  0.0466  1.2733
54205SOL    HW274595   4.431   8.658  12.890 -0.6450 -0.0574 -0.2614
54206SOL     OW74596   6.469   2.133   3.250  0.0318 -0.1394  0.2878
54206SOL    HW174597   6.382   2.164   3.225  0.2625 -0.4162 -0.9132
54206SOL    HW274598   6.523   2.212   3.250 -0.0277 -0.0980  0.1684
54207SOL     OW74599   7.719   2.252   5.757  0.4653 -0.4277 -0.6420
54207SOL    HW174600   7.721   2.303   5.677 -1.3910  0.4868 -0.1597
54207SOL    HW274601   7.787   2.290   5.812  2.0994 -1.3825 -1.9096
54208SOL     OW74602   8.992   6.883   1.089  0.2888  0.1276  0.2563
54208SOL    HW174603   9.024   6.793   1.084  2.3980  0.8562 -0.3209
54208SOL    HW274604   8.943   6.897   1.008 -0.5638 -0.6560  0.6216
54209SOL     OW74605   5.103  13.336   0.013  0.6993 -1.1105 -0.1961
54209SOL    HW174606   5.140  13.388  -0.059  0.1447 -2.4223 -1.4807
54209SOL    HW274607   5.050  13.399   0.062  1.2435 -0.1397 -0.8145
54210SOL     OW74608  13.141   8.468   9.539  0.2362 -0.2208  0.3272
54210SOL    HW174609  13.190   8.498   9.462  0.5216 -0.3538  0.4542
54210SOL    HW274610  13.059   8.518   9.537  0.3765  0.0026  0.1102
54211SOL     OW74611   1.356   0.816   1.154 -0.5592  0.0910  0.8649
54211SOL    HW174612   1.265   0.843   1.140 -1.0273  0.0107  3.3328
54211SOL    HW274613   1.406   0.898   1.151 -1.0026  0.3893  1.3819
54212SOL     OW74614   3.177   9.570   5.685 -0.2361  0.0264  0.3311
54212SOL    HW174615   3.101   9.580   5.629  0.0383 -0.1567 -0.0852
54212SOL    HW274616   3.246   9.622   5.643 -0.6876  1.9799  1.8387
54213SOL     OW74617   5.121   4.058   5.600  0.4372  0.0688 -0.2418
54213SOL    HW174618   5.127   4.150   5.574  0.5323 -0.2979 -1.6172
54213SOL    HW274619   5.173   4.051   5.680 -0.3379  1.3862  0.4143
54214SOL     OW74620  11.558   5.870   3.120  0.1706 -0.0261  0.5572
54214SOL    HW174621  11.500   5.946   3.124  0.8521  0.5318  0.1147
54214SOL    HW274622  11.604   5.880   3.036  0.5856 -0.6936  0.6997
54215SOL     OW74623   8.696  11.856  13.760 -0.5359 -0.6597  0.3229
54215SOL    HW174624   8.608  11.867  13.796 -0.6033 -1.7970  0.5550
54215SOL    HW274625   8.723  11.769  13.790 -0.2244 -1.2769 -1.6280
54216SOL     OW74626   0.900   3.374  12.926 -0.0489 -0.0933  0.4987
54216SOL    HW174627   0.971   3.333  12.977  0.2064  0.5666  0.6806
54216SOL    HW274628   0.891   3.461  12.964 -0.6351 -0.0008  0.1534
54217SOL     OW74629  11.940  12.443   8.653  0.5100 -0.1092  0.5361
54217SOL    HW174630  11.882  12.449   8.577 -0.2831  1.3016  1.2100
54217SOL    HW274631  12.028  12.450   8.616  0.1030  2.0138 -0.1705
54218SOL     OW74632   8.050   1.820   4.571  0.1675  0.6667 -0.2396
54218SOL    HW174633   8.100   1.886   4.524 -0.2757  0.3130 -1.2430
54218SOL    HW274634   8.106   1.742   4.570  0.1976  0.6861 -0.0956
54219SOL     OW74635  10.451  13.705   5.081  0.5412  0.1567  0.4891
54219SOL    HW174636  10.534  13.665   5.055  1.0838  1.0432  0.7996
54219SOL    HW274637  10.402  13.716   5.000  1.0906  0.4225  0.1929
54220SOL     OW74638   1.449   6.833   4.893 -0.3684  0.3852  0.1057
54220SOL    HW174639   1.454   6.928   4.883 -1.3058  0.4466  0.1378
54220SOL    HW274640   1.526   6.800   4.848  0.4113  1.2079  0.8062
54221SOL     OW74641   4.259   5.670   4.021  0.4702 -0.1059  0.6831
54221SOL    HW174642   4.200   5.742   4.043 -0.5390 -0.5017 -0.5428
54221SOL    HW274643   4.201   5.593   4.019  0.8719 -0.3922 -1.2452
54222SOL     OW74644  10.076  11.115   9.384  0.0847  0.1480 -0.5871
54222SOL    HW174645  10.010  11.145   9.323 -0.4163  0.0705 -0.0891
54222SOL    HW274646  10.080  11.020   9.372 -2.3576 -0.3458  1.7449
54223SOL     OW74647   0.460   5.222   7.824 -0.2675 -0.0349  0.1295
54223SOL    HW174648   0.470   5.197   7.916  0.0010  0.3425  0.2005
54223SOL    HW274649   0.544   5.201   7.784  0.1015  1.1058  0.2720
54224SOL     OW74650  13.769   7.566  10.971  0.4085  0.2531  0.0277
54224SOL    HW174651  13.846   7.558  11.028  0.1611 -0.4354  0.2838
54224SOL    HW274652  13.805   7.565  10.882  0.7224  0.3087  0.1515
54225SOL     OW74653   5.480   2.025   8.500  0.5421  0.2138  1.0772
54225SOL    HW174654   5.407   2.054   8.445 -0.9100 -0.5438  2.5280
54225SOL    HW274655   5.495   2.098   8.560  0.1626 -0.0835  1.5450
54226SOL     OW74656  11.885   1.881  11.369  0.3474  0.4233  0.0645
54226SOL    HW174657  11.849   1.833  11.444  0.6048  0.5288  0.2563
54226SOL    HW274658  11.901   1.969  11.402 -0.7897  0.8535 -0.4774
54227SOL     OW74659  12.346  12.449   3.161 -0.4017  0.3486  0.3403
54227SOL    HW174660  12.387  12.401   3.234  0.3069 -2.0073 -1.4579
54227SOL    HW274661  12.271  12.395   3.136 -1.5159  1.8863  0.2107
54228SOL     OW74662  13.631   8.101  12.119 -0.2168  0.5022  0.1459
54228SOL    HW174663  13.587   8.066  12.041 -0.9267 -0.2597  0.8589
54228SOL    HW274664  13.619   8.195  12.113  0.9112  0.5942 -1.3466
54229SOL     OW74665   4.464  13.426   8.895  0.4430  0.0725  0.1320
54229SOL    HW174666   4.459  13.352   8.835  1.0315  0.2664 -0.1600
54229SOL    HW274667   4.548  13.415   8.940  0.2611  0.2344  0.5217
54230SOL     OW74668   6.170   4.655   4.059  0.1016 -0.4140 -0.0168
54230SOL    HW174669   6.147   4.718   3.990 -2.1413 -0.9930  0.1030
54230SOL    HW274670   6.151   4.570   4.021 -2.6263 -0.6928  1.6920
54231SOL     OW74671   8.658   0.112   4.529 -0.5858 -0.5674 -0.2636
54231SOL    HW174672   8.712   0.075   4.598 -0.5333  0.5572  0.3163
54231SOL    HW274673   8.719   0.161   4.473 -1.1236  2.0838  1.3071
54232SOL     OW74674   7.221   3.767  11.922  0.6429  0.6979  0.0692
54232SOL    HW174675   7.207   3.676  11.897  2.4086  0.0918  1.1474
54232SOL    HW274676   7.259   3.808  11.844 -0.4405  0.6027 -0.5162
54233SOL     OW74677   6.157  13.410  10.980 -0.2189  0.1003  0.7930
54233SOL    HW174678   6.113  13.470  11.041 -1.5904 -0.9767  0.9142
54233SOL    HW274679   6.104  13.330  10.982  1.4547 -1.0722  0.4879
54234SOL     OW74680   7.658   8.194   6.749 -0.3386 -0.0421  1.1128
54234SOL    HW174681   7.718   8.227   6.681  0.2347 -0.3504  1.4615
54234SOL    HW274682   7.677   8.101   6.755  0.0178  0.0798  2.0867
54235SOL     OW74683  13.599   0.784   6.686 -0.1527 -0.2382 -0.5802
54235SOL    HW174684  13.520   0.737   6.658 -0.9976  0.2729  0.8001
54235SOL    HW274685  13.623   0.741   6.768 -1.7829  2.4964  1.5126
54236SOL     OW74686   8.676  13.621   3.053 -0.4938 -0.7119 -0.1073
54236SOL    HW174687   8.712  13.692   3.001 -0.3164 -0.2484  0.6437
54236SOL    HW274688   8.583  13.618   3.028 -0.8346  0.7173  0.8833
54237SOL     OW74689  12.138   6.376   6.502 -0.2497 -0.2778 -0.4201
54237SOL    HW174690  12.210   6.360   6.563  0.5156  0.9004 -0.9946
54237SOL    HW274691  12.160   6.326   6.424  0.2050  0.4533 -0.7727
54238SOL     OW74692  11.741  13.593  12.637 -0.7062  0.2773 -0.0181
54238SOL    HW174693  11.731  13.649  12.560 -2.3463  0.8219  0.5446
54238SOL    HW274694  11.729  13.652  12.712  2.4915  0.0992  0.7880
54239SOL     OW74695   4.789   4.356   1.739 -0.0244 -0.3967  0.3233
54239SOL    HW174696   4.744   4.425   1.690  1.1786 -0.3622 -0.7983
54239SOL    HW274697   4.766   4.372   1.830 -0.5417  0.9029 -0.0126
54240SOL     OW74698   3.601   7.664   5.166 -0.4165 -0.2611 -0.2724
54240SOL    HW174699   3.599   7.626   5.253  0.4006  0.9934  0.3233
54240SOL    HW274700   3.510   7.688   5.148 -0.4656  0.2172  0.5883
54241SOL     OW74701   1.675   8.372   5.683 -0.5161  0.8077  0.0063
54241SOL    HW174702   1.683   8.455   5.636  1.3755 -0.7783 -2.8069
54241SOL    HW274703   1.699   8.306   5.618 -0.7330 -1.8731  2.4587
54242SOL     OW74704  11.599   9.037   7.242 -0.1409 -0.2731  0.2394
54242SOL    HW174705  11.564   8.949   7.248 -0.6280 -0.1949 -1.0936
54242SOL    HW274706  11.564   9.083   7.318  1.0516 -1.5147  1.5832
54243SOL     OW74707   4.431   7.234  13.148 -0.2951 -0.0952 -0.0373
54243SOL    HW174708   4.470   7.262  13.066 -0.5933  0.4298 -0.0053
54243SOL    HW274709   4.480   7.155  13.173 -0.3407 -0.3755 -0.8161
54244SOL     OW74710   1.927   8.746   4.572 -0.0520  0.2569  0.0396
54244SOL    HW174711   1.838   8.777   4.557  0.1895  1.1177  0.3235
54244SOL    HW274712   1.981   8.800   4.514  0.3297  0.0349  0.1843
54245SOL     OW74713   4.515   4.992   8.027  0.0939 -0.3774  0.2233
54245SOL    HW174714   4.577   4.951   7.966  1.2015 -0.3320  1.2762
54245SOL    HW274715   4.511   4.931   8.100 -0.5580 -0.0163  0.4910
54246SOL     OW74716   4.313   7.623  10.561  0.3931 -0.2288  0.2027
54246SOL    HW174717   4.312   7.615  10.656 -0.5813  0.9243  0.3085
54246SOL    HW274718   4.377   7.558  10.532 -0.1252 -1.3725  1.5587
54247SOL     OW74719   6.713  12.618   4.810  0.1682  0.4773 -0.4778
54247SOL    HW174720   6.786  12.557   4.797 -0.3052 -0.1724 -0.0975
54247SOL    HW274721   6.649  12.593   4.743 -1.0537 -1.0291  1.1725
54248SOL     OW74722   8.909   8.713   2.324  0.1192 -0.7830  0.8645
54248SOL    HW174723   8.901   8.757   2.240  0.4525 -0.1162  1.1764
54248SOL    HW274724   8.910   8.784   2.388 -0.0140 -1.2777  1.4213
54249SOL     OW74725   5.499   9.770   5.109 -0.1538 -0.0002 -0.1273
54249SOL    HW174726   5.578   9.778   5.056 -0.3987 -0.5339 -0.5802
54249SOL    HW274727   5.530   9.740   5.195  0.0331 -1.2545 -0.6252
54250SOL     OW74728   4.186  13.271  11.279  0.4144  0.4390 -0.2182
54250SOL    HW174729   4.207  13.228  11.362 -2.1762  0.0846  0.3516
54250SOL    HW274730   4.146  13.202  11.227  0.6988  1.0199 -1.2180
54251SOL     OW74731   2.846   1.595   2.706 -0.1500  0.1422 -0.2931
54251SOL    HW174732   2.939   1.588   2.684  0.1484  0.4052  0.7796
54251SOL    HW274733   2.846   1.603   2.802 -1.3201 -0.5141 -0.2261
54252SOL     OW74734   2.073  12.883   9.125 -0.3391 -0.1078 -0.1878
54252SOL    HW174735   1.979  12.894   9.114 -0.4222  1.3630  1.4139
54252SOL    HW274736   2.082  12.822   9.199 -0.1378  1.7128  1.3652
54253SOL     OW74737   1.566   2.656  12.123  0.1843 -0.2194 -0.2684
54253SOL    HW174738   1.501   2.686  12.186 -0.8923 -1.5981 -0.6851
54253SOL    HW274739   1.647   2.648  12.175 -0.5407 -0.7933  0.8207
54254SOL     OW74740   5.789   2.705  12.104 -0.2401  0.4973  0.0259
54254SOL    HW174741   5.711   2.721  12.051 -1.4270 -1.5072  1.0070
54254SOL    HW274742   5.781   2.764  12.178 -0.1901  1.1398 -0.4773
54255SOL     OW74743   1.374  12.689  11.703  0.3152  0.7418 -0.2042
54255SOL    HW174744   1.317  12.747  11.754  0.7839 -1.1115  2.6216
54255SOL    HW274745   1.319  12.658  11.632 -1.5284  0.7112  1.1789
54256SOL     OW74746   8.618   3.650   0.947  0.1921 -0.6529 -0.2196
54256SOL    HW174747   8.592   3.654   0.854 -0.3173 -0.8512 -0.0898
54256SOL    HW274748   8.582   3.567   0.978 -1.6473  0.4358  0.7384
54257SOL     OW74749   5.960   4.495   5.161 -0.0391  0.4357  0.1630
54257SOL    HW174750   5.866   4.497   5.179 -0.0221 -0.5361  0.4426
54257SOL    HW274751   5.969   4.527   5.071 -0.7829 -0.7749 -0.3610
54258SOL     OW74752  12.775   9.616  13.558  1.1096  0.0200  0.7486
54258SOL    HW174753  12.805   9.654  13.476  0.4050  0.1038  0.5225
54258SOL    HW274754  12.712   9.680  13.593 -1.1670 -1.4712 -0.3202
54259SOL     OW74755   9.200  11.703   6.402  0.1901  0.8720  0.0673
54259SOL    HW174756   9.158  11.628   6.445  0.7955 -0.2293 -1.1768
54259SOL    HW274757   9.138  11.775   6.412 -0.7368  0.0105  0.6860
54260SOL     OW74758   5.680   9.441   8.420 -0.1713 -0.0107 -0.2008
54260SOL    HW174759   5.755   9.413   8.368  0.5181  1.7270 -0.2287
54260SOL    HW274760   5.639   9.509   8.367 -0.4215  0.6291  0.7906
54261SOL     OW74761   8.167   3.994   7.766 -0.2811 -0.0277  0.4004
54261SOL    HW174762   8.077   3.960   7.760 -0.5865  0.9710 -1.7149
54261SOL    HW274763   8.207   3.969   7.683  0.3876  2.2047 -0.0004
54262SOL     OW74764  12.433  13.023   7.430  0.2796 -0.6762  0.0166
54262SOL    HW174765  12.364  12.956   7.433  0.6743 -1.1953 -1.5542
54262SOL    HW274766  12.423  13.063   7.344  0.3440  1.0135  0.7536
54263SOL     OW74767   9.710   5.373   1.133 -0.3462 -0.1629 -0.4207
54263SOL    HW174768   9.802   5.352   1.149 -0.4995 -1.1754 -0.7888
54263SOL    HW274769   9.680   5.305   1.073 -0.6279  1.7054 -2.5278
54264SOL     OW74770   9.538  11.861  12.467  0.0856  0.2402  0.4876
54264SOL    HW174771   9.512  11.855  12.559 -0.7459 -1.3777  0.1844
54264SOL    HW274772   9.589  11.782  12.451 -1.8941 -0.8365 -1.0248
54265SOL     OW74773   9.372   1.002   9.026  0.0009 -0.1425  0.2043
54265SOL    HW174774   9.295   0.948   9.012 -1.4272  1.7571  0.2657
54265SOL    HW274775   9.390   0.996   9.120  0.0877 -0.7882  0.1456
54266SOL     OW74776  10.546   4.738  13.606 -0.1198 -0.2623  0.1866
54266SOL    HW174777  10.620   4.776  13.652  0.0399  0.4608 -0.6384
54266SOL    HW274778  10.572   4.740  13.513 -1.1909  0.0578 -0.1179
54267SOL     OW74779   4.203   7.516   3.140 -0.4362 -0.0146 -1.0734
54267SOL    HW174780   4.168   7.428   3.132  0.6622 -0.7796  1.5678
54267SOL    HW274781   4.298   7.503   3.151 -0.4555  1.3138  1.1813
54268SOL     OW74782   1.818   5.035   0.329  0.2590  0.1528  0.2108
54268SOL    HW174783   1.889   4.971   0.320 -0.7101 -0.7133 -2.0724
54268SOL    HW274784   1.787   5.024   0.419 -0.9405 -3.8527 -0.5020
54269SOL     OW74785  12.767   7.401   8.326  0.0864  0.0679 -0.3451
54269SOL    HW174786  12.853   7.383   8.364 -0.4439  0.1885  0.9433
54269SOL    HW274787  12.768   7.494   8.306 -0.0030  0.2301  0.3758
54270SOL     OW74788   4.575  11.552   7.090  0.0139  0.5987 -0.3884
54270SOL    HW174789   4.668  11.528   7.097 -0.3647 -0.6664  0.6534
54270SOL    HW274790   4.553  11.536   6.998  1.6194  4.1712 -1.5890
54271SOL     OW74791   6.513   6.795   2.118  0.1358  0.0239 -0.5308
54271SOL    HW174792   6.532   6.884   2.148 -1.9488  0.0447  0.9254
54271SOL    HW274793   6.472   6.806   2.032 -1.3294  0.6104  0.2121
54272SOL     OW74794   2.695   5.305   9.664 -0.2970 -0.0964  0.5446
54272SOL    HW174795   2.634   5.351   9.607  0.4198  1.8217  1.2274
54272SOL    HW274796   2.639   5.257   9.725 -1.1253  0.6980  0.4356
54273SOL     OW74797   8.676   4.534   2.487  0.3846 -0.4553 -0.4893
54273SOL    HW174798   8.734   4.601   2.523 -0.5423 -1.6485  3.7054
54273SOL    HW274799   8.590   4.554   2.523 -0.3677 -2.6073 -0.9538
54274SOL     OW74800   2.323   1.292   5.788  0.1785  0.0872 -0.1238
54274SOL    HW174801   2.397   1.257   5.737  0.1771  0.8804 -0.6887
54274SOL    HW274802   2.286   1.216   5.831  1.5082 -0.2934  0.4075
54275SOL     OW74803   2.864   1.430  11.865  0.1501 -0.7135  0.1859
54275SOL    HW174804   2.819   1.355  11.826 -0.1855 -0.3149 -0.2077
54275SOL    HW274805   2.935   1.450  11.805  0.0486 -0.5197  0.1307
54276SOL     OW74806   7.883  12.885  13.239 -0.1278  0.2875  0.7687
54276SOL    HW174807   7.859  12.824  13.309 -0.3877  0.4083  0.7864
54276SOL    HW274808   7.822  12.958  13.249  0.8071  1.0065  1.3515
54277SOL     OW74809   4.647   5.167   6.602 -0.5280 -0.0549  0.0341
54277SOL    HW174810   4.695   5.140   6.524 -0.2722 -0.5332  0.3558
54277SOL    HW274811   4.710   5.218   6.653 -1.2363  1.9153 -0.9571
54278SOL     OW74812  13.020   0.121   3.149  0.2917  0.6805  0.3658
54278SOL    HW174813  13.048   0.098   3.061  1.7215 -2.1994  1.4291
54278SOL    HW274814  13.056   0.208   3.164  0.2639  1.1170 -1.7448
54279SOL     OW74815   9.814   7.798   8.797  0.1730  0.3490  0.4384
54279SOL    HW174816   9.887   7.817   8.739 -0.6938 -0.0593 -0.8388
54279SOL    HW274817   9.790   7.707   8.777 -2.0046  1.1065 -0.7510
54280SOL     OW74818  12.865   6.040   0.491 -0.2240  0.2068 -0.0026
54280SOL    HW174819  12.770   6.043   0.479 -0.1387  0.0444 -0.7259
54280SOL    HW274820  12.877   6.046   0.586 -0.9522  0.3232  0.0865
54281SOL     OW74821   0.470   7.470   9.356  0.3114  0.2394 -0.2304
54281SOL    HW174822   0.499   7.542   9.300  1.6493  0.8876  1.2344
54281SOL    HW274823   0.546   7.412   9.361  0.2638  0.2754  1.0435
54282SOL     OW74824   8.980  11.840   6.639 -0.0992  0.4445  0.4805
54282SOL    HW174825   9.067  11.879   6.650 -1.2212  3.7452 -0.9242
54282SOL    HW274826   8.934  11.901   6.581 -3.4000 -1.1324  1.1979
54283SOL     OW74827   9.014   3.237   9.487  0.4954 -0.6589 -0.4138
54283SOL    HW174828   9.002   3.142   9.491 -0.5504 -0.5152  0.4697
54283SOL    HW274829   8.954   3.265   9.418 -1.2506 -0.3874  1.1395
54284SOL     OW74830   8.399   1.373  10.882 -0.1135 -1.0154  0.4322
54284SOL    HW174831   8.451   1.371  10.963 -2.3517 -2.0661  1.9849
54284SOL    HW274832   8.360   1.461  10.881 -0.8603 -1.3194  1.0933
54285SOL     OW74833   0.190   8.139   2.278 -0.2907 -0.3908 -0.5139
54285SOL    HW174834   0.188   8.044   2.286 -1.5701 -0.5662 -2.2874
54285SOL    HW274835   0.252   8.156   2.207 -1.6847 -0.1081 -1.7340
54286SOL     OW74836   8.765   5.642   0.563 -0.0818  0.2155  0.0723
54286SOL    HW174837   8.706   5.714   0.585  2.1138  2.4077 -0.7782
54286SOL    HW274838   8.758   5.633   0.468 -0.1160 -0.5337  0.1357
54287SOL     OW74839   9.069   3.329  13.211  0.2283 -0.4080 -0.3505
54287SOL    HW174840   9.118   3.274  13.150 -0.7806 -0.1364 -1.4404
54287SOL    HW274841   8.977   3.310  13.192 -0.1437 -1.2447  1.9488
54288SOL     OW74842   3.522   3.179   0.610 -0.1162 -0.2511  0.6860
54288SOL    HW174843   3.542   3.085   0.609  0.5706 -0.1119  1.0968
54288SOL    HW274844   3.474   3.194   0.528  0.9311 -0.7146 -0.0296
54289SOL     OW74845  13.313  12.059   5.774 -0.1696 -0.3108  0.3575
54289SOL    HW174846  13.223  12.061   5.744  0.4217  0.0809 -1.5049
54289SOL    HW274847  13.336  12.151   5.786  0.6786 -0.2486 -1.4838
54290SOL     OW74848   6.172   6.812   2.227  0.3492  0.0421  0.1523
54290SOL    HW174849   6.174   6.907   2.224  0.8142  0.0158 -1.3083
54290SOL    HW274850   6.175   6.785   2.135  0.8438 -1.3882  0.5591
54291SOL     OW74851   1.516   0.012  11.407 -0.8771  0.9729 -0.7716
54291SOL    HW174852   1.542  -0.071  11.367 -1.9679  0.7682 -1.0915
54291SOL    HW274853   1.556   0.010  11.494  1.2053  1.2516 -1.6588
54292SOL     OW74854   8.546   7.691   9.948  0.5302  0.1241  0.1322
54292SOL    HW174855   8.592   7.677  10.031  2.7358 -1.8169 -1.2754
54292SOL    HW274856   8.585   7.772   9.912  0.9995 -0.0982  0.1292
54293SOL     OW74857  11.378   6.639   8.977 -0.7033  0.4850  0.1774
54293SOL    HW174858  11.427   6.600   8.904  1.6548 -0.3624  2.0634
54293SOL    HW274859  11.407   6.730   8.979  1.9608 -0.2991  2.0361
54294SOL     OW74860   4.532   4.698  13.203  0.4716 -0.2393 -0.4410
54294SOL    HW174861   4.535   4.749  13.123  1.5684 -0.8233 -0.8052
54294SOL    HW274862   4.452   4.726  13.247  0.7069  1.3015 -0.9277
54295SOL     OW74863  13.010  13.168  13.301  0.0835  0.6717  0.2276
54295SOL    HW174864  13.078  13.236  13.296  0.8935 -0.1748 -0.5454
54295SOL    HW274865  12.942  13.198  13.241  0.3438  0.8955  0.0452
54296SOL     OW74866   6.286  10.122   3.443 -0.0127  1.1318 -0.7174
54296SOL    HW174867   6.206  10.085   3.481 -2.0950  3.9167 -2.0096
54296SOL    HW274868   6.328  10.168   3.516 -0.3019  0.7502 -0.3047
54297SOL     OW74869   7.808  10.611  11.840  0.1933 -0.0878  0.1036
54297SOL    HW174870   7.798  10.628  11.746 -0.2889  0.1059  0.1845
54297SOL    HW274871   7.853  10.527  11.845 -3.3690 -2.2659 -0.3564
54298SOL     OW74872  13.943  13.268  13.583  0.2794  0.0060  0.0420
54298SOL    HW174873  13.895  13.271  13.500 -0.9506  0.5581  0.7403
54298SOL    HW274874  13.982  13.180  13.586 -0.2591 -0.2679 -0.7945
54299SOL     OW74875  11.530   5.345   3.622 -0.3431  0.3900  0.2826
54299SOL    HW174876  11.535   5.269   3.563  0.7889  1.2574 -0.7873
54299SOL    HW274877  11.439   5.346   3.652 -1.1726  0.3586 -2.0634
54300SOL     OW74878   4.405   8.285   2.580 -0.3715 -0.2824  0.1979
54300SOL    HW174879   4.484   8.234   2.559 -0.7059 -0.7232 -0.0165
54300SOL    HW274880   4.438   8.368   2.612  0.1848 -0.4574  0.0938
54301SOL     OW74881  12.386  13.031   5.066  0.0168  0.3053  0.1820
54301SOL    HW174882  12.418  13.104   5.120  0.4117  1.0012 -0.9666
54301SOL    HW274883  12.291  13.035   5.075 -0.1516  2.3614 -1.5437
54302SOL     OW74884   0.298  13.251   7.436  0.3274 -0.4714  0.0676
54302SOL    HW174885   0.205  13.243   7.413  0.1011 -0.7085  0.9930
54302SOL    HW274886   0.318  13.170   7.483  1.4811 -1.2113 -1.6067
54303SOL     OW74887  13.362   6.384   9.873  1.0897 -0.2388 -0.2755
54303SOL    HW174888  13.413   6.381   9.953  0.7130  1.2011  0.0342
54303SOL    HW274889  13.352   6.292   9.848  1.8932 -0.6590  0.8724
54304SOL     OW74890   1.656   8.951   2.642  0.0270  0.0665 -0.3203
54304SOL    HW174891   1.610   9.012   2.584 -1.5205  0.8189  1.5759
54304SOL    HW274892   1.687   8.881   2.584 -0.1432  1.4986 -2.2248
54305SOL     OW74893  11.867  12.894   2.187  0.2227 -0.4662 -0.4919
54305SOL    HW174894  11.814  12.959   2.233  1.5552 -0.2829  0.8530
54305SOL    HW274895  11.957  12.915   2.211  1.0341 -0.2872 -3.2895
54306SOL     OW74896   4.613   2.673   8.414 -0.0967  0.0630 -0.2432
54306SOL    HW174897   4.700   2.710   8.396 -0.1222 -0.1920 -0.9432
54306SOL    HW274898   4.552   2.746   8.398 -0.0267  0.1976  0.0925
54307SOL     OW74899  13.984   4.678   2.734 -0.4040 -0.1364  0.2023
54307SOL    HW174900  13.932   4.732   2.674 -1.2481  1.4402  2.2097
54307SOL    HW274901  14.046   4.740   2.773  0.7573 -1.3190  0.2997
54308SOL     OW74902   3.839   9.988   6.663  0.2302  0.0963 -0.0235
54308SOL    HW174903   3.853  10.075   6.700  1.8278 -0.8763  1.8374
54308SOL    HW274904   3.928   9.954   6.650 -0.3321 -0.7221 -2.1388
54309SOL     OW74905   5.319   7.669  10.326  0.0744  0.0711  0.3497
54309SOL    HW174906   5.232   7.706  10.336 -0.2896 -0.7907  0.4592
54309SOL    HW274907   5.308   7.575  10.342  0.2857 -0.7899 -3.5744
54310SOL     OW74908   9.363   9.562   3.840 -0.2125 -0.7164 -0.6049
54310SOL    HW174909   9.367   9.491   3.776  0.9243 -2.1391  0.9582
54310SOL    HW274910   9.292   9.537   3.899  0.4573 -0.8062  0.1918
54311SOL     OW74911  10.546  10.610  11.616 -0.7094 -0.9802  0.5057
54311SOL    HW174912  10.471  10.593  11.673 -1.2232 -0.9124 -0.1336
54311SOL    HW274913  10.519  10.686  11.564 -0.4046 -1.2689 -0.0867
54312SOL     OW74914   5.014  10.841   2.777 -0.2147 -0.1574  0.0502
54312SOL    HW174915   5.082  10.833   2.711 -0.6131 -2.0113 -0.1760
54312SOL    HW274916   4.949  10.899   2.738 -0.6915 -1.6337 -1.4264
54313SOL     OW74917  12.085   9.038   6.696 -0.2346 -0.9479  0.4949
54313SOL    HW174918  12.075   8.944   6.688 -1.1770 -0.8213  0.0690
54313SOL    HW274919  12.024   9.064   6.765  0.9302 -0.7902  1.5153
54314SOL     OW74920   5.260  10.510   7.683  0.0530 -0.6826 -0.2484
54314SOL    HW174921   5.238  10.599   7.711 -1.3983 -1.0194 -0.2221
54314SOL    HW274922   5.340  10.519   7.633  0.4232  0.5146  0.5226
54315SOL     OW74923   6.664   5.121   0.645 -0.7494  0.6686 -0.1332
54315SOL    HW174924   6.659   5.138   0.739 -1.8415 -1.2326  0.2029
54315SOL    HW274925   6.573   5.112   0.617 -0.4072  0.4664 -1.2310
54316SOL     OW74926   7.708   4.718  10.551  0.1201 -0.3558  0.5183
54316SOL    HW174927   7.638   4.660  10.523  0.8000 -0.2257 -1.6079
54316SOL    HW274928   7.779   4.659  10.577  0.4894 -0.5247 -0.7946
54317SOL     OW74929   3.688  11.311   0.618  0.5656 -0.2492  0.0541
54317SOL    HW174930   3.780  11.291   0.597  0.5507  1.0720 -1.4669
54317SOL    HW274931   3.644  11.311   0.534 -0.5739  0.3779  0.6337
54318SOL     OW74932   3.072   2.409  11.495  0.1949  0.0062  0.3859
54318SOL    HW174933   2.983   2.414  11.529 -0.1442  0.5701 -0.5566
54318SOL    HW274934   3.125   2.388  11.572 -0.9341 -2.0676  0.6831
54319SOL     OW74935  11.341  13.231   8.526  0.0769 -0.3207  0.7023
54319SOL    HW174936  11.327  13.282   8.446 -1.1676  1.3472  1.9155
54319SOL    HW274937  11.254  13.222   8.565  0.6724 -0.9566  1.9521
54320SOL     OW74938   4.984   4.716   0.576 -0.0324  0.1681  0.0175
54320SOL    HW174939   4.934   4.669   0.643  0.3684 -0.4290 -0.0935
54320SOL    HW274940   5.001   4.650   0.508  1.9272 -0.0090  0.5971
54321SOL     OW74941   1.474  10.985  13.956  0.3022  0.0894 -0.1782
54321SOL    HW174942   1.429  10.900  13.958  2.9019 -1.4251 -1.2854
54321SOL    HW274943   1.459  11.021  14.044  0.6661 -2.4194  1.0305
54322SOL     OW74944   0.902   8.145   4.284 -0.2553  0.0439  0.0958
54322SOL    HW174945   0.929   8.147   4.376  0.0400 -2.5430  0.1533
54322SOL    HW274946   0.972   8.190   4.238  0.2267  0.2817  1.0305
54323SOL     OW74947   2.505   8.518   0.197 -0.2982  0.2175  0.4727
54323SOL    HW174948   2.440   8.580   0.232  0.0196  1.1869 -0.5931
54323SOL    HW274949   2.518   8.546   0.107  1.5630  0.0092  0.6522
54324SOL     OW74950  10.539   9.371  11.850  0.3656 -0.5024  0.2688
54324SOL    HW174951  10.582   9.403  11.770 -1.9908 -1.0939 -1.3140
54324SOL    HW274952  10.612   9.355  11.910  2.0609  4.6621  0.1560
54325SOL     OW74953   9.398   1.889  14.039 -0.2347 -0.0410 -0.1981
54325SOL    HW174954   9.307   1.914  14.055  0.4307  1.7344  1.0836
54325SOL    HW274955   9.441   1.971  14.014  0.6744 -1.1645 -2.6627
54326SOL     OW74956  12.058   5.986   7.060 -0.2140  0.2268 -0.2563
54326SOL    HW174957  12.092   5.906   7.020  0.2960 -0.7957  2.0314
54326SOL    HW274958  12.000   5.955   7.130 -1.2280  1.8977 -0.2949
54327SOL     OW74959  13.803   7.684  14.016  0.1788 -0.4920  0.4567
54327SOL    HW174960  13.808   7.604  13.965 -0.7371  0.3099 -0.9732
54327SOL    HW274961  13.715   7.717  14.000  0.8449  1.2827  0.2181
54328SOL     OW74962   2.300   4.308   6.464  0.3966 -0.4490  0.1185
54328SOL    HW174963   2.364   4.363   6.511 -0.2917  0.1509  0.3717
54328SOL    HW274964   2.246   4.270   6.533 -0.5602  0.3648 -0.1588
54329SOL     OW74965   5.208  12.672   2.435 -0.0805 -0.3188  0.4590
54329SOL    HW174966   5.174  12.663   2.524 -0.0529 -0.1100  0.4904
54329SOL    HW274967   5.265  12.749   2.438  0.1256 -0.4652  0.3239
54330SOL     OW74968   8.056   4.779   3.482  0.0425 -0.3770 -0.5091
54330SOL    HW174969   8.015   4.741   3.405  2.1971 -1.5777 -1.1618
54330SOL    HW274970   8.080   4.704   3.537 -0.0924  0.3677  0.5959
54331SOL     OW74971   5.391  11.983   6.872  0.3168 -0.5420 -0.4451
54331SOL    HW174972   5.400  11.889   6.857  0.4496 -0.3220 -1.9558
54331SOL    HW274973   5.302  12.003   6.843 -0.2441 -0.4120  1.2516
54332SOL     OW74974   8.652   4.824   9.166 -0.5915  0.0278  0.8118
54332SOL    HW174975   8.622   4.884   9.098  0.6934  0.3236  0.4673
54332SOL    HW274976   8.744   4.849   9.181 -0.4797 -0.8631  1.7486
54333SOL     OW74977  12.521   2.265  11.459  0.0944 -0.3041  0.0604
54333SOL    HW174978  12.599   2.263  11.515  0.2245  1.5772  0.0253
54333SOL    HW274979  12.464   2.331  11.499 -0.0505  0.6907 -1.6597
54334SOL     OW74980   7.124   0.099   2.127  0.0065  0.0813 -0.0160
54334SOL    HW174981   7.197   0.158   2.146 -1.3066  1.4898  0.9930
54334SOL    HW274982   7.079   0.140   2.053  1.3309 -1.8763 -2.0173
54335SOL     OW74983   9.453  11.416   0.346 -0.5554 -0.2930  0.1906
54335SOL    HW174984   9.439  11.496   0.396  0.6506 -0.5680  0.9974
54335SOL    HW274985   9.537  11.430   0.302  0.3255 -1.6213  1.3828
54336SOL     OW74986  11.439   2.796   0.603 -0.2559  0.3805  0.5545
54336SOL    HW174987  11.524   2.754   0.608  0.1048  0.9153 -0.6166
54336SOL    HW274988  11.411   2.808   0.694  0.6880 -0.2494  0.9283
54337SOL     OW74989   5.852   4.504  11.077 -0.0559  0.2287  0.2338
54337SOL    HW174990   5.849   4.459  11.162  1.3455 -0.8464 -0.2503
54337SOL    HW274991   5.778   4.565  11.080 -1.8663 -1.8747  1.0491
54338SOL     OW74992   6.229  10.104   7.854  0.2382 -0.8576  0.3453
54338SOL    HW174993   6.284  10.040   7.898 -0.3695 -1.8904 -0.3817
54338SOL    HW274994   6.177  10.143   7.925  1.2654 -0.4728  0.9123
54339SOL     OW74995   8.594  12.200   1.257  0.2057  0.2999  0.3632
54339SOL    HW174996   8.573  12.264   1.326  0.4985 -0.4494  1.1609
54339SOL    HW274997   8.687  12.182   1.269  0.2093  0.0015 -0.1040
54340SOL     OW74998   1.873  12.996   4.763 -0.6273 -0.0803  0.0637
54340SOL    HW174999   1.956  12.949   4.763  0.1361  1.2119  0.0906
54340SOL    HW275000   1.894  13.082   4.725 -1.1091  1.6505  3.3474
54341SOL     OW75001  12.999  11.475   0.312 -0.1547  0.2763  0.7925
54341SOL    HW175002  12.976  11.557   0.268 -0.7108  0.1009  0.7434
54341SOL    HW275003  12.955  11.480   0.397 -0.0737  0.0934  0.8462
54342SOL     OW75004   1.497   5.973  10.181 -0.3687 -0.0046  0.3446
54342SOL    HW175005   1.517   6.032  10.108 -2.5598  0.6204  0.1958
54342SOL    HW275006   1.460   6.030  10.248  0.2080 -0.8085  1.3736
54343SOL     OW75007  11.472  11.298   4.419 -0.1816  0.4022 -0.4951
54343SOL    HW175008  11.391  11.333   4.457  0.7620  1.1585  0.8910
54343SOL    HW275009  11.515  11.253   4.492  0.0179 -1.1891 -1.5515
54344SOL     OW75010   4.942   5.865   3.508  0.4710  0.1788  0.4994
54344SOL    HW175011   4.967   5.791   3.564 -1.6782  0.6937  2.2671
54344SOL    HW275012   4.892   5.923   3.566  0.2978  2.0062 -1.3720
54345SOL     OW75013   7.524   1.429   4.532 -0.2553 -0.4411  0.1782
54345SOL    HW175014   7.618   1.414   4.529 -0.2889 -0.6388  0.1093
54345SOL    HW275015   7.500   1.452   4.443 -0.2803 -0.4368  0.1861
54346SOL     OW75016   9.074   2.436   9.396 -0.4646 -0.0936  0.4480
54346SOL    HW175017   9.006   2.437   9.329 -0.1037 -0.3374  0.0820
54346SOL    HW275018   9.125   2.516   9.380 -1.2328  0.6007  1.3156
54347SOL     OW75019   3.667   3.598   9.919  0.2603  0.7921  0.5681
54347SOL    HW175020   3.723   3.553   9.855 -1.5449  0.9699 -1.2076
54347SOL    HW275021   3.722   3.668   9.953  1.7652 -0.2344  0.3726
54348SOL     OW75022   5.797   6.436  13.203  0.0872  0.4130  0.2306
54348SOL    HW175023   5.824   6.408  13.290 -0.3425 -0.2146  0.1687
54348SOL    HW275024   5.728   6.375  13.178 -0.8690  1.5265  0.0774
54349SOL     OW75025   8.417   5.193   9.990  0.3726  0.4648  0.0920
54349SOL    HW175026   8.343   5.232  10.035  0.2972  0.3522  0.0663
54349SOL    HW275027   8.409   5.223   9.899  0.4572  0.5957  0.1269
54350SOL     OW75028   3.378   8.119  11.377 -0.3836  0.0817 -0.4914
54350SOL    HW175029   3.359   8.041  11.324  0.1446 -0.7877  0.5542
54350SOL    HW275030   3.379   8.191  11.314 -1.1558 -0.7130 -1.4470
54351SOL     OW75031  10.593   5.429   4.760  0.0885 -0.0164  0.0992
54351SOL    HW175032  10.537   5.507   4.769  1.9795  1.6286 -1.3836
54351SOL    HW275033  10.607   5.421   4.666  0.7973 -1.5327  0.3202
54352SOL     OW75034   7.656   9.227   0.684  0.5055  0.2735 -0.0356
54352SOL    HW175035   7.617   9.315   0.689 -0.7664 -0.0946 -2.2515
54352SOL    HW275036   7.749   9.242   0.704 -0.3289  1.4054  3.8977
54353SOL     OW75037   1.400  13.694   2.317  0.2636 -0.2189  0.2634
54353SOL    HW175038   1.373  13.629   2.382  1.0935  0.4366  1.3036
54353SOL    HW275039   1.494  13.706   2.334  0.0717  1.4299  0.2735
54354SOL     OW75040  10.688   9.174  12.352 -0.6825 -0.3456 -0.7374
54354SOL    HW175041  10.676   9.264  12.382 -1.0164 -0.5180 -0.3383
54354SOL    HW275042  10.634   9.167  12.274 -1.6173 -0.5323 -0.0955
54355SOL     OW75043   5.332   5.108   9.292 -0.0133 -0.0727 -0.1807
54355SOL    HW175044   5.274   5.148   9.357 -0.8177 -1.8315  0.2326
54355SOL    HW275045   5.306   5.016   9.290  2.3727 -0.8125 -0.4117
54356SOL     OW75046   8.011  11.238  12.224  0.0617  0.5572  0.4495
54356SOL    HW175047   7.923  11.270  12.243 -1.0581 -2.3071  0.4532
54356SOL    HW275048   8.004  11.197  12.137  1.2579 -0.1882  0.6778
54357SOL     OW75049   3.318  11.751  10.564 -0.5388 -0.2071 -0.1386
54357SOL    HW175050   3.359  11.694  10.630 -0.9360 -1.2061 -0.7257
54357SOL    HW275051   3.342  11.839  10.590 -1.0879 -0.5421  1.6338
54358SOL     OW75052  12.143   8.626  11.613  0.4431 -0.0814 -0.2263
54358SOL    HW175053  12.154   8.594  11.703  0.9334 -1.9339 -0.9036
54358SOL    HW275054  12.117   8.549  11.563 -2.5338  1.4384 -1.2433
54359SOL     OW75055   8.974   3.734   7.518  0.1336 -0.2434 -0.0124
54359SOL    HW175056   8.941   3.806   7.464  0.1851 -1.2142 -1.3850
54359SOL    HW275057   9.068   3.750   7.522  0.1637 -0.2949 -0.4265
54360SOL     OW75058   8.371   0.470   2.206 -0.2038  0.3342 -0.9043
54360SOL    HW175059   8.310   0.446   2.276  1.4366 -0.2653  0.3968
54360SOL    HW275060   8.399   0.387   2.168  0.7225  0.5069 -0.6370
54361SOL     OW75061   1.484   8.013   8.013 -1.3244 -0.0737  0.2416
54361SOL    HW175062   1.512   8.036   7.924 -0.9027 -0.6804  0.2157
54361SOL    HW275063   1.388   8.018   8.010 -1.2774  1.1568  0.0961
54362SOL     OW75064   8.440  12.038   3.346  0.2116  0.2330 -0.0756
54362SOL    HW175065   8.406  12.101   3.410 -0.2362  0.2917 -0.3610
54362SOL    HW275066   8.534  12.051   3.347  0.2907 -0.3230  1.1541
54363SOL     OW75067   3.595   0.504   9.961  0.7302  0.1037 -0.1241
54363SOL    HW175068   3.631   0.421   9.930 -0.3330 -0.5326  0.3110
54363SOL    HW275069   3.577   0.489  10.054  2.4088  1.4830  0.4867
54364SOL     OW75070   9.691  13.879  12.656  0.4716  0.6547  0.0108
54364SOL    HW175071   9.597  13.871  12.645  0.1109 -0.6301  3.0327
54364SOL    HW275072   9.703  13.961  12.705  0.7456  0.0263  1.0170
54365SOL     OW75073   5.318   7.516   8.358 -0.2921 -0.3353  0.8361
54365SOL    HW175074   5.244   7.532   8.416  0.2912  2.0267  1.0518
54365SOL    HW275075   5.295   7.562   8.277  0.2498 -0.9408  0.3242
54366SOL     OW75076   3.581   9.884   5.510 -0.4184  0.1571  0.0404
54366SOL    HW175077   3.669   9.877   5.474 -0.1766  1.0649  0.4177
54366SOL    HW275078   3.582   9.967   5.558 -1.3885  0.0288  0.2951
54367SOL     OW75079   1.667   4.647  13.045 -0.1485 -0.1674 -0.1985
54367SOL    HW175080   1.732   4.627  13.112  1.4171  0.8724 -1.3241
54367SOL    HW275081   1.592   4.681  13.094 -0.3206 -2.3825  1.2136
54368SOL     OW75082   2.820   3.376   6.270 -0.4847  0.5218  0.0043
54368SOL    HW175083   2.797   3.345   6.357 -0.3385  0.8437  0.1574
54368SOL    HW275084   2.750   3.342   6.213 -0.8460  0.7272  0.3205
54369SOL     OW75085   2.340  10.833   3.702  0.0872 -0.5722 -0.1007
54369SOL    HW175086   2.346  10.815   3.608 -0.5702  1.9574 -0.7043
54369SOL    HW275087   2.246  10.844   3.718  0.2700 -0.0647  0.6468
54370SOL     OW75088   4.380  11.855  12.685  0.2439 -0.3327 -0.0159
54370SOL    HW175089   4.357  11.854  12.777  2.0213  0.5206  0.4777
54370SOL    HW275090   4.316  11.798  12.643 -3.1143  2.3129  1.1079
54371SOL     OW75091   7.155   2.288  10.468 -0.3368 -0.2784 -0.0660
54371SOL    HW175092   7.224   2.344  10.433  0.7157 -1.4127  0.1227
54371SOL    HW275093   7.175   2.201  10.434 -0.8880 -0.8755  1.0856
54372SOL     OW75094  13.697   9.434   2.434  0.4611 -0.1875  0.0070
54372SOL    HW175095  13.734   9.391   2.357  0.1932 -0.0518 -0.1980
54372SOL    HW275096  13.618   9.383   2.454 -0.2456  0.6252 -0.6582
54373SOL     OW75097   2.710   2.979  10.681 -0.1786  0.1010 -0.5512
54373SOL    HW175098   2.787   2.923  10.691 -1.0613 -1.0656 -0.0387
54373SOL    HW275099   2.722   3.020  10.595 -0.2792 -2.1737 -1.7314
54374SOL     OW75100   7.465   1.757   2.662  0.1613 -0.4058 -0.7994
54374SOL    HW175101   7.474   1.683   2.602  0.0583 -1.1205  0.0430
54374SOL    HW275102   7.381   1.742   2.705 -0.6981  1.1330 -1.8249
54375SOL     OW75103   6.697  12.176   2.844 -0.5342 -0.4571 -0.1614
54375SOL    HW175104   6.774  12.175   2.786  0.6069 -1.1486  1.2906
54375SOL    HW275105   6.686  12.268   2.867  1.4642 -0.5607  1.5614
54376SOL     OW75106   7.065  11.419  13.416 -0.2314 -0.0903 -0.7759
54376SOL    HW175107   7.148  11.456  13.388 -0.6056  0.6233 -0.9579
54376SOL    HW275108   7.070  11.327  13.391 -0.4263  0.4439 -2.9217
54377SOL     OW75109   2.841   6.740   6.536  0.3797  0.1879 -0.1964
54377SOL    HW175110   2.786   6.693   6.473  0.4917 -1.7578  1.0682
54377SOL    HW275111   2.780   6.784   6.595  0.2218 -0.2934 -0.0027
54378SOL     OW75112   2.077   3.190   4.226  0.7927  0.0109  0.3844
54378SOL    HW175113   2.144   3.256   4.211  2.0450 -1.1209  0.8227
54378SOL    HW275114   2.053   3.160   4.138  0.0150  1.1925  0.1643
54379SOL     OW75115   9.325  12.827   0.082 -0.4629 -0.9247  0.1360
54379SOL    HW175116   9.237  12.812   0.116 -0.3422  0.5244  1.1810
54379SOL    HW275117   9.382  12.816   0.158  0.0311  0.3059 -0.0373
54380SOL     OW75118   2.241  13.931   9.649  0.1446 -0.6000 -0.3709
54380SOL    HW175119   2.307  13.863   9.637 -0.2438 -0.9892 -0.2959
54380SOL    HW275120   2.158  13.888   9.629 -0.0490  0.0106 -0.9255
54381SOL     OW75121  12.569  11.859   5.854 -0.1892  0.8266 -0.2074
54381SOL    HW175122  12.498  11.922   5.865 -0.6664  0.1683  0.5931
54381SOL    HW275123  12.628  11.877   5.928  0.1418  0.9252 -0.4895
54382SOL     OW75124   1.550   9.674   7.993 -0.2556  0.8227 -0.5120
54382SOL    HW175125   1.532   9.712   7.907  0.6654  1.0779 -0.6015
54382SOL    HW275126   1.516   9.584   7.987 -1.3862  1.2433 -0.6879
54383SOL     OW75127  12.093   6.021  12.621  0.3497  0.1478 -0.1366
54383SOL    HW175128  12.124   6.003  12.709 -0.0439 -0.4236 -0.1048
54383SOL    HW275129  12.024   6.086  12.633 -0.0917 -0.3449  0.0436
54384SOL     OW75130   3.010   6.535   9.248  0.3095 -0.0516  0.0384
54384SOL    HW175131   3.087   6.560   9.299 -0.6068  0.9556  1.0167
54384SOL    HW275132   2.953   6.612   9.253 -0.8241 -0.8227 -0.5184
54385SOL     OW75133  10.451  12.355   4.080 -0.0729  0.4991 -0.0554
54385SOL    HW175134  10.381  12.366   4.016  0.3225  0.3672 -0.5184
54385SOL    HW275135  10.456  12.439   4.125 -1.5897  0.0271  1.0880
54386SOL     OW75136  12.209  12.066  13.875  0.3166 -0.0228 -0.4205
54386SOL    HW175137  12.196  12.017  13.793 -0.4878  1.2907 -1.1120
54386SOL    HW275138  12.208  11.999  13.943  1.5066 -1.2090 -1.5163
54387SOL     OW75139   0.482   9.079   2.662 -0.3444 -0.1975  0.7741
54387SOL    HW175140   0.512   9.170   2.651 -0.3295 -0.2442  0.4098
54387SOL    HW275141   0.454   9.053   2.574 -1.0496 -0.2987  1.0275
54388SOL     OW75142   0.589   7.444  10.513  0.2018 -0.7843  0.2132
54388SOL    HW175143   0.576   7.352  10.489 -1.3563 -0.3577 -0.7381
54388SOL    HW275144   0.604   7.442  10.608  1.1909 -2.0950  0.0517
54389SOL     OW75145  12.681  11.045   0.263  0.0878 -0.1869  0.3221
54389SOL    HW175146  12.699  11.105   0.335  1.7025 -1.7034  1.2640
54389SOL    HW275147  12.593  11.069   0.234 -0.1561  1.2312  2.0237
54390SOL     OW75148   6.913  13.881   3.096 -0.1406  0.0782 -0.1107
54390SOL    HW175149   7.006  13.879   3.118 -0.5668  1.3100  2.0555
54390SOL    HW275150   6.906  13.951   3.030  0.6583 -1.2565 -1.7047
54391SOL     OW75151  12.655   0.047   2.917  0.4623  0.8383  0.4977
54391SOL    HW175152  12.693   0.043   3.005  1.3977  1.0337  0.1127
54391SOL    HW275153  12.728   0.073   2.860  0.1566 -0.3735 -0.5099
54392SOL     OW75154  11.976  12.883  13.911  0.1074 -0.2106 -0.4320
54392SOL    HW175155  12.061  12.907  13.876 -0.0686  1.0124 -0.0406
54392SOL    HW275156  11.954  12.952  13.974 -0.3041 -1.5206  0.9240
54393SOL     OW75157   0.420  10.233   2.673  0.1674  0.2920  0.7622
54393SOL    HW175158   0.396  10.283   2.751  1.6039  0.1726  1.3088
54393SOL    HW275159   0.438  10.300   2.607 -0.1113  0.4180  0.8108
54394SOL     OW75160  12.052  13.388   0.563 -0.0709  0.3920 -0.0384
54394SOL    HW175161  12.127  13.330   0.579  1.0235  1.9152  0.6471
54394SOL    HW275162  12.090  13.463   0.517 -1.2462  1.0273 -0.0069
54395SOL     OW75163   1.496   5.369   2.457 -0.0420 -0.0859 -0.5070
54395SOL    HW175164   1.541   5.334   2.381  0.2333  0.6797 -0.7016
54395SOL    HW275165   1.499   5.464   2.446  1.3095  0.1260  1.1697
54396SOL     OW75166   5.109   7.580   1.960 -0.1231  0.2177  0.1121
54396SOL    HW175167   5.188   7.626   1.932  0.4692 -0.8422 -0.0166
54396SOL    HW275168   5.134   7.537   2.042 -0.1700 -1.0745 -0.5119
54397SOL     OW75169   7.932   4.028  13.852  0.2652  0.0031 -0.7965
54397SOL    HW175170   7.854   3.992  13.893  0.2992 -0.0009 -0.7372
54397SOL    HW275171   7.914   4.122  13.846  0.1152 -0.0399 -1.0854
54398SOL     OW75172  10.048   1.986   5.258 -0.1956  0.2075 -0.0270
54398SOL    HW175173  10.054   1.911   5.318  2.8376 -0.1894 -0.6347
54398SOL    HW275174   9.969   2.031   5.285  0.4784 -0.4536  3.7420
54399SOL     OW75175  10.530  11.233  12.873  0.5196  0.2946  0.2217
54399SOL    HW175176  10.459  11.296  12.873  1.3293  1.2332  0.5373
54399SOL    HW275177  10.610  11.286  12.869  1.2157 -0.7152  0.1852
54400SOL     OW75178   3.542   3.228   8.201  0.3079  0.2032  0.0837
54400SOL    HW175179   3.610   3.279   8.244 -0.0152  0.0404  0.7901
54400SOL    HW275180   3.489   3.193   8.272  1.6089 -2.7063 -0.2078
54401SOL     OW75181   4.660  12.181  13.164 -0.3256  0.5695  0.0575
54401SOL    HW175182   4.628  12.152  13.250  0.4910  0.1525  0.2356
54401SOL    HW275183   4.720  12.112  13.137 -1.7612 -0.1028 -1.5978
54402SOL     OW75184   4.215   9.841   6.037 -0.3463 -0.5019 -0.0519
54402SOL    HW175185   4.137   9.788   6.050 -0.8618  0.3103  0.2767
54402SOL    HW275186   4.222   9.894   6.117  0.2429 -0.1951 -0.2981
54403SOL     OW75187   0.358   4.667   1.422  0.1440  0.1969  0.1529
54403SOL    HW175188   0.339   4.605   1.492  1.3244  0.4432  0.7115
54403SOL    HW275189   0.337   4.620   1.342 -1.8262  0.1200  0.6619
54404SOL     OW75190  13.704   6.909  13.609  0.0843  0.3613  0.2880
54404SOL    HW175191  13.671   6.914  13.519 -2.8325  0.0153  1.2419
54404SOL    HW275192  13.691   6.997  13.644  2.8559  0.9965 -0.0630
54405SOL     OW75193   9.860   7.566   0.069  0.2063  0.3548 -0.2023
54405SOL    HW175194   9.778   7.518   0.084 -0.6025  1.8648  0.3968
54405SOL    HW275195   9.929   7.506   0.099 -0.9056  0.4827  2.9530
54406SOL     OW75196  11.677   4.357   3.467 -0.3415 -0.4193  0.6910
54406SOL    HW175197  11.749   4.304   3.499 -2.1223 -2.5469  1.4464
54406SOL    HW275198  11.691   4.444   3.506  1.1785 -1.0810  1.6977
54407SOL     OW75199   5.776   1.232   4.835  0.3640  0.2517 -0.4119
54407SOL    HW175200   5.771   1.290   4.759 -1.8562 -0.2465 -0.7250
54407SOL    HW275201   5.686   1.203   4.849  1.0575 -1.3748  1.1011
54408SOL     OW75202   1.677   1.920   5.910  0.5808 -0.7656  0.4598
54408SOL    HW175203   1.611   1.988   5.922  0.2370 -1.2567  1.4709
54408SOL    HW275204   1.703   1.927   5.818  1.3130  1.4258  0.7836
54409SOL     OW75205  13.107  10.751   9.081 -0.0045 -0.1476  0.1448
54409SOL    HW175206  13.035  10.717   9.027  0.1854  0.7523 -0.7097
54409SOL    HW275207  13.148  10.817   9.026  0.0929  0.9354  1.4865
54410SOL     OW75208  12.860   2.981   7.151 -0.1205  0.4617 -0.7161
54410SOL    HW175209  12.919   3.019   7.216  1.1493  0.5900 -1.8715
54410SOL    HW275210  12.904   2.900   7.124 -0.3001  0.7170 -1.8285
54411SOL     OW75211   1.575  12.172  12.007 -0.1810  0.0577 -0.0456
54411SOL    HW175212   1.607  12.224  11.933 -0.5713  0.3068 -0.0422
54411SOL    HW275213   1.632  12.095  12.008 -0.2989 -0.0468 -0.7367
54412SOL     OW75214  13.517   6.730  12.010 -0.0263 -0.1362 -0.0965
54412SOL    HW175215  13.527   6.824  12.023 -0.4424 -0.2017  0.7770
54412SOL    HW275216  13.605   6.694  12.022  0.0284  0.0788  0.1570
54413SOL     OW75217   9.884  12.652   8.781 -0.0298  0.5798  0.2374
54413SOL    HW175218   9.977  12.674   8.786  0.7146 -1.8761 -1.1999
54413SOL    HW275219   9.839  12.736   8.794  2.2914  1.6015  2.5118
54414SOL     OW75220   3.733   5.024  13.808 -0.3779 -0.3302  0.4315
54414SOL    HW175221   3.709   5.072  13.729  0.4566 -1.8331 -0.7988
54414SOL    HW275222   3.756   5.092  13.871 -1.7489  0.9378 -0.3487
54415SOL     OW75223   1.820   6.317   3.886  0.2869  0.2615  0.5716
54415SOL    HW175224   1.861   6.271   3.813  0.1465  1.8992 -0.5858
54415SOL    HW275225   1.793   6.401   3.850 -2.5016 -0.0181  1.7392
54416SOL     OW75226   4.318   5.095   4.177 -0.3559  0.0302  0.1836
54416SOL    HW175227   4.282   5.064   4.260 -2.2085 -2.0084 -1.2737
54416SOL    HW275228   4.380   5.027   4.151  2.2787  1.9228  1.0420
54417SOL     OW75229   3.610  12.486  13.066  0.0314  0.5002 -0.7477
54417SOL    HW175230   3.635  12.463  13.156 -0.5490  0.9076 -0.4751
54417SOL    HW275231   3.515  12.499  13.070 -0.0233  0.3293 -1.4654
54418SOL     OW75232   9.032   1.352   2.379  0.5278  0.6331 -0.0767
54418SOL    HW175233   9.053   1.405   2.302 -0.1484  0.4149 -0.4242
54418SOL    HW275234   8.977   1.409   2.433 -0.8277  0.0822 -0.7999
54419SOL     OW75235   0.742   4.047   3.159 -0.1606  0.3609  1.0097
54419SOL    HW175236   0.805   3.996   3.209  0.8306  1.2753  0.7242
54419SOL    HW275237   0.786   4.066   3.076 -1.6541 -0.8940 -0.1592
54420SOL     OW75238   6.083   6.017  13.107  0.1090 -0.2828  0.3180
54420SOL    HW175239   6.042   6.103  13.116 -0.8374 -0.6809 -0.0430
54420SOL    HW275240   6.164   6.024  13.158  0.3275  0.9892 -0.1524
54421SOL     OW75241  13.267  13.995   8.026 -0.3043  0.2456  0.5268
54421SOL    HW175242  13.217  14.074   8.045 -2.2581 -1.1673  1.5935
54421SOL    HW275243  13.326  13.986   8.101  1.0657  1.4680 -0.3407
54422SOL     OW75244  10.122   2.234   3.621 -0.1380 -1.1675 -0.1386
54422SOL    HW175245  10.130   2.319   3.664  0.7754 -0.8862 -0.8380
54422SOL    HW275246  10.155   2.171   3.686  0.1440 -0.8701  0.0089
54423SOL     OW75247   9.309   5.201  11.736 -0.4637 -0.0153 -0.0159
54423SOL    HW175248   9.328   5.270  11.672  0.7471  0.2631  0.6003
54423SOL    HW275249   9.386   5.145  11.733 -0.8292 -0.5498  0.5052
54424SOL     OW75250   0.300  11.461   3.640  0.0691  0.1059  0.6682
54424SOL    HW175251   0.317  11.529   3.575  1.2718  1.4405  2.2812
54424SOL    HW275252   0.272  11.509   3.718  0.3062 -1.3010  1.6572
54425SOL     OW75253   3.519   6.528  10.216 -0.2530 -0.4854 -0.6891
54425SOL    HW175254   3.507   6.435  10.236 -0.7180 -0.2319  0.2830
54425SOL    HW275255   3.430   6.563  10.210 -0.1005 -0.2632 -1.9353
54426SOL     OW75256   3.398  13.509   3.714  0.6111 -0.3885  0.0150
54426SOL    HW175257   3.312  13.500   3.674 -0.1882  0.7140  1.3935
54426SOL    HW275258   3.457  13.526   3.640 -0.1720 -2.0237 -1.0335
54427SOL     OW75259  11.571   5.808   3.508 -0.2610  0.2660  0.1427
54427SOL    HW175260  11.520   5.809   3.589 -0.1835  0.2525  0.1918
54427SOL    HW275261  11.581   5.715   3.488 -0.8175  0.2781 -0.2195
54428SOL     OW75262   4.860   8.628   9.406 -0.1211 -0.1966  0.4605
54428SOL    HW175263   4.877   8.665   9.319 -0.2879  1.7224  1.2042
54428SOL    HW275264   4.845   8.703   9.462 -1.3496 -1.4470  1.9082
54429SOL     OW75265  13.896   5.045   5.836 -0.1638  0.4395  0.6799
54429SOL    HW175266  13.878   5.019   5.926  2.5236  0.9334  1.4382
54429SOL    HW275267  13.815   5.086   5.806 -1.7992 -1.5373  2.1446
54430SOL     OW75268  13.090   8.752  12.638 -0.2187 -0.1426 -0.0321
54430SOL    HW175269  13.155   8.753  12.708  0.7593  0.8025 -0.9187
54430SOL    HW275270  13.132   8.704  12.566 -0.8342 -0.2811 -0.3083
54431SOL     OW75271  13.620   5.987   3.529  0.5380 -0.5692 -0.2401
54431SOL    HW175272  13.690   5.922   3.521 -0.1723 -1.2650 -0.8534
54431SOL    HW275273  13.630   6.043   3.452  2.5347  1.4836  1.3610
54432SOL     OW75274  10.689  11.085   1.335 -0.0115  0.3766 -0.4110
54432SOL    HW175275  10.633  11.124   1.268 -0.6536  0.7899  0.3507
54432SOL    HW275276  10.736  11.159   1.373 -0.0139  0.2047 -0.0719
54433SOL     OW75277  14.031  10.780   5.337  0.6860 -0.0438  0.4518
54433SOL    HW175278  13.959  10.721   5.313 -0.6129  1.2862  0.9575
54433SOL    HW275279  14.063  10.746   5.421 -0.3393  0.2016  0.9555
54434SOL     OW75280   5.453   6.567  13.472  0.3832  0.2286  0.2695
54434SOL    HW175281   5.484   6.635  13.413  0.1821 -0.4363 -0.6276
54434SOL    HW275282   5.509   6.575  13.549  0.8098  0.9613 -0.1028
54435SOL     OW75283   5.702   1.961   3.793  0.1560 -0.1561 -0.3450
54435SOL    HW175284   5.768   1.892   3.800 -2.3626 -2.5874  0.9357
54435SOL    HW275285   5.692   1.974   3.698  1.5584 -0.5963 -0.5813
54436SOL     OW75286  12.108   6.181   5.700  0.0424 -0.3791  0.4081
54436SOL    HW175287  12.055   6.101   5.711 -3.6017  1.7461 -0.0383
54436SOL    HW275288  12.064   6.229   5.630  1.4650  2.5182  1.3521
54437SOL     OW75289   0.095  12.226  12.788 -0.1302 -0.0551 -0.0812
54437SOL    HW175290   0.116  12.242  12.880 -2.1955 -1.1686  0.6548
54437SOL    HW275291   0.177  12.195  12.749  0.9664  1.1484  1.1714
54438SOL     OW75292   6.904   6.520   9.041 -0.2702  0.4493 -0.1683
54438SOL    HW175293   6.873   6.592   9.098 -0.2007  0.4922 -0.1852
54438SOL    HW275294   6.897   6.555   8.952  0.0040  0.5282 -0.1609
54439SOL     OW75295   0.835   9.333   6.496  0.0304 -0.2627  0.2287
54439SOL    HW175296   0.921   9.341   6.456  0.6556  0.2902  1.6091
54439SOL    HW275297   0.834   9.244   6.533  0.1987 -0.1156  0.5975
54440SOL     OW75298  11.040   4.377   3.792 -0.3254  0.1447  0.0053
54440SOL    HW175299  11.120   4.377   3.739 -0.8162  1.0556 -0.7646
54440SOL    HW275300  11.047   4.457   3.845  0.1019 -0.6903  1.2569
54441SOL     OW75301   2.844   7.199   0.694  0.3750  0.0201  0.3846
54441SOL    HW175302   2.825   7.135   0.763  0.8936 -0.5374  0.0225
54441SOL    HW275303   2.786   7.174   0.622  0.4801  0.0403  0.2925
54442SOL     OW75304   5.557   3.919   9.263  0.5965 -0.4136 -0.5586
54442SOL    HW175305   5.566   3.890   9.354  0.6929 -2.2668 -1.1241
54442SOL    HW275306   5.505   3.851   9.221  0.3692  0.5266 -1.8592
54443SOL     OW75307   5.278   1.677   7.866 -0.3823 -0.0804 -0.1868
54443SOL    HW175308   5.204   1.737   7.855 -1.3644 -0.7749  1.9898
54443SOL    HW275309   5.355   1.733   7.862 -1.2415  1.3095  1.2555
54444SOL     OW75310   0.209  12.864   8.114  0.6848  0.1181 -0.3659
54444SOL    HW175311   0.246  12.952   8.123 -2.1385  1.6447 -2.0612
54444SOL    HW275312   0.283  12.809   8.090  2.1747  2.6138 -1.9536
54445SOL     OW75313   2.488   5.009   1.810  0.0505 -0.7633 -0.0103
54445SOL    HW175314   2.400   4.976   1.791 -0.5842  1.2486 -0.8303
54445SOL    HW275315   2.543   4.972   1.740 -0.0046 -2.3687  0.7461
54446SOL     OW75316   7.467   2.449   9.647 -0.2328 -0.2898  0.4164
54446SOL    HW175317   7.482   2.488   9.733  0.6452 -1.0962  0.6458
54446SOL    HW275318   7.542   2.476   9.595  1.3224 -2.9543  1.0702
54447SOL     OW75319   7.582   4.014   1.102 -0.6297 -0.6927 -0.0389
54447SOL    HW175320   7.619   4.080   1.044 -0.0945 -1.0936 -0.1604
54447SOL    HW275321   7.568   3.938   1.045 -3.1175 -0.0833 -0.3775
54448SOL     OW75322  12.770   9.277   6.434 -0.4473  0.0909  0.2433
54448SOL    HW175323  12.798   9.269   6.342 -3.4709  0.3705 -0.8397
54448SOL    HW275324  12.693   9.333   6.430 -1.0082 -0.3726  2.9136
54449SOL     OW75325   0.041   1.436   3.486 -0.7645 -0.4293 -0.3013
54449SOL    HW175326  -0.052   1.456   3.472 -0.9503 -1.3091 -0.4252
54449SOL    HW275327   0.040   1.366   3.552 -0.1238  0.3730  0.5827
54450SOL     OW75328   6.082   5.519  13.954  0.3771 -0.3330 -0.0325
54450SOL    HW175329   6.098   5.613  13.961 -0.3780 -0.1468 -0.6541
54450SOL    HW275330   6.127   5.493  13.874  0.6919 -0.5246  0.2081
54451SOL     OW75331   9.935   5.193   6.046 -0.0566  0.6764 -0.0389
54451SOL    HW175332  10.010   5.139   6.074 -1.0306 -0.3856  0.5862
54451SOL    HW275333   9.948   5.276   6.092  0.4389  0.3057  0.5120
54452SOL     OW75334  12.348  12.694   9.105  0.2560 -0.7721 -0.5586
54452SOL    HW175335  12.279  12.630   9.121  0.4694 -1.0799 -0.8516
54452SOL    HW275336  12.420  12.643   9.069 -0.1158 -0.1537 -2.2887
54453SOL     OW75337   6.632   1.446   5.492  0.3822  0.1213 -0.0003
54453SOL    HW175338   6.624   1.397   5.574 -0.9736  0.1539 -0.0929
54453SOL    HW275339   6.700   1.400   5.443  1.3015  0.1712  1.1792
54454SOL     OW75340   3.336   9.442   2.916  0.8870 -0.1873  0.1448
54454SOL    HW175341   3.306   9.495   2.842 -0.5752  0.8710  1.4297
54454SOL    HW275342   3.291   9.358   2.905  1.4367 -0.3932 -0.6579
54455SOL     OW75343  11.771   7.905   7.130 -0.9728 -0.2338 -0.7120
54455SOL    HW175344  11.723   7.933   7.208  0.5834  0.9784 -0.1402
54455SOL    HW275345  11.760   7.977   7.068  1.2376  0.7778 -0.0330
54456SOL     OW75346   9.187   3.883   7.213  0.0337  0.0757 -0.1886
54456SOL    HW175347   9.185   3.793   7.180 -2.0092 -0.1996  0.5738
54456SOL    HW275348   9.107   3.923   7.180  0.3802  1.3083  0.3851
54457SOL     OW75349   7.595  12.596  12.540 -0.4219 -0.0770  0.8521
54457SOL    HW175350   7.587  12.556  12.453 -0.7928  0.6387  0.5442
54457SOL    HW275351   7.616  12.688  12.522  0.2297 -0.0753  1.5378
54458SOL     OW75352  12.989   5.348   1.374 -0.2987  0.6012 -0.1310
54458SOL    HW175353  13.040   5.410   1.427 -0.6599  0.2300  0.6686
54458SOL    HW275354  12.984   5.389   1.287  1.0413  0.8101 -0.1322
54459SOL     OW75355   8.575   2.926  13.543 -0.6271  0.2414 -0.0140
54459SOL    HW175356   8.646   2.963  13.490 -0.5677 -0.4209 -0.4201
54459SOL    HW275357   8.595   2.832  13.547 -1.0208  0.1771  0.5902
54460SOL     OW75358   7.789   2.177   7.897 -0.1771  0.1013  0.2241
54460SOL    HW175359   7.712   2.210   7.851  0.3171 -1.4172 -1.8834
54460SOL    HW275360   7.757   2.105   7.950 -0.6149  1.3313  1.7143
54461SOL     OW75361  13.302   5.340   6.946 -0.3570  0.0139 -0.3849
54461SOL    HW175362  13.225   5.342   7.004  0.2220 -0.5541  0.4178
54461SOL    HW275363  13.369   5.390   6.993  0.3855 -1.1631 -0.1649
54462SOL     OW75364   3.119   8.194  11.463  0.5784  0.3939  0.0717
54462SOL    HW175365   3.205   8.160  11.440  0.5879 -0.1509  0.8623
54462SOL    HW275366   3.135   8.252  11.537  0.2607  0.1665  0.3259
54463SOL     OW75367  11.162   3.962   5.740 -0.0904 -0.0514  0.1217
54463SOL    HW175368  11.233   3.900   5.756 -0.2359  0.3917  3.1781
54463SOL    HW275369  11.194   4.018   5.669  2.9565  0.5198  1.7686
54464SOL     OW75370   9.315   8.990  12.171  0.0047  0.9174  0.1726
54464SOL    HW175371   9.323   8.936  12.093 -2.2268  0.3928  0.2646
54464SOL    HW275372   9.401   8.983  12.213  0.7737  0.0279 -1.4439
54465SOL     OW75373  11.528   5.311  11.949  0.1416  0.4263  0.1410
54465SOL    HW175374  11.455   5.371  11.964 -1.0676 -0.5113 -1.5866
54465SOL    HW275375  11.576   5.351  11.876  0.2890  0.1294  0.0771
54466SOL     OW75376  11.908   4.172   9.620  0.2592  0.1629 -0.4553
54466SOL    HW175377  11.919   4.222   9.701 -2.2653 -0.5706  0.4286
54466SOL    HW275378  11.814   4.173   9.604  0.2833 -2.8057 -1.3664
54467SOL     OW75379   7.135   0.495   9.304  0.3283  0.2696 -0.0364
54467SOL    HW175380   7.113   0.571   9.359  1.6176  0.6701 -0.0398
54467SOL    HW275381   7.230   0.495   9.300  0.3142 -0.7700 -0.8774
54468SOL     OW75382   5.628  13.498   4.772  0.7037  0.6002 -0.5539
54468SOL    HW175383   5.636  13.463   4.861  2.0484  1.9562 -0.0848
54468SOL    HW275384   5.622  13.421   4.716 -0.5111 -0.2883  0.7117
54469SOL     OW75385   6.048  13.519   6.362 -0.0276  0.1927  0.6358
54469SOL    HW175386   5.975  13.471   6.400  1.0822 -0.2427  2.3179
54469SOL    HW275387   6.017  13.610   6.359 -0.8751 -0.0804  0.6769
54470SOL     OW75388   3.710   1.719   1.365 -0.1643 -0.0365  0.1836
54470SOL    HW175389   3.731   1.629   1.342  1.4443  0.2693  0.3389
54470SOL    HW275390   3.791   1.754   1.402 -0.9329  1.2992  0.6788
54471SOL     OW75391   2.824   5.210  12.657 -0.0258 -0.3355  0.2129
54471SOL    HW175392   2.832   5.269  12.733  0.3149  0.5984 -0.5284
54471SOL    HW275393   2.910   5.210  12.617 -0.4394 -0.1038 -0.6937
54472SOL     OW75394  12.678   5.256  11.748 -0.8503 -0.1927 -0.5496
54472SOL    HW175395  12.614   5.326  11.735 -1.7235 -0.8473  0.1034
54472SOL    HW275396  12.640   5.200  11.816  0.8087 -0.1436  0.4810
54473SOL     OW75397  10.792   6.662   5.340 -0.3510 -0.7140  1.0304
54473SOL    HW175398  10.853   6.721   5.384 -1.0623  0.3169  0.6851
54473SOL    HW275399  10.746   6.718   5.278 -1.6403 -1.4598  1.2793
54474SOL     OW75400   3.590   2.545   4.845  0.2188 -0.2195  0.8362
54474SOL    HW175401   3.647   2.522   4.918 -1.2678 -1.2961  1.6991
54474SOL    HW275402   3.557   2.632   4.867 -0.2867 -0.5710  1.5212
54475SOL     OW75403   3.342   1.104  11.332 -0.3443 -0.3235  0.5395
54475SOL    HW175404   3.378   1.016  11.343 -0.3116 -0.5479 -1.1284
54475SOL    HW275405   3.266   1.106  11.390  1.6829 -0.1480  3.4570
54476SOL     OW75406  11.648  11.007   8.035  0.3516 -0.5788 -0.0418
54476SOL    HW175407  11.627  11.099   8.051  1.7729  0.1967 -2.1860
54476SOL    HW275408  11.726  10.991   8.088  0.1265 -0.5558  0.3015
54477SOL     OW75409   4.733   4.608  10.415 -0.3257  0.0376 -0.1744
54477SOL    HW175410   4.763   4.617  10.325 -1.0889 -0.6168 -0.4963
54477SOL    HW275411   4.703   4.696  10.439 -0.1515  0.2069 -0.5661
54478SOL     OW75412   6.655  13.037   6.127  0.4138 -0.6441 -0.0387
54478SOL    HW175413   6.586  13.058   6.064  1.2566  1.1526 -0.4473
54478SOL    HW275414   6.641  13.099   6.198  1.0540 -0.8897  0.3029
54479SOL     OW75415  10.834   7.271   8.564 -0.4675  0.2050  0.0446
54479SOL    HW175416  10.882   7.210   8.620  2.5145  0.1833 -2.3029
54479SOL    HW275417  10.806   7.218   8.489 -3.2135  0.5261  0.7357
54480SOL     OW75418   5.302   4.805   6.873 -0.1647  0.4144 -0.3032
54480SOL    HW175419   5.391   4.797   6.839  0.2375  2.5691  0.0491
54480SOL    HW275420   5.250   4.833   6.798 -0.4077 -0.2018 -0.3645
54481SOL     OW75421   8.835   0.282   0.858 -0.4450 -0.2200  0.0383
54481SOL    HW175422   8.878   0.345   0.800 -2.1553  1.3502  0.3803
54481SOL    HW275423   8.749   0.267   0.818 -1.2957  0.1558  1.6211
54482SOL     OW75424  13.961  11.459   6.772  0.1537  0.1797 -0.5868
54482SOL    HW175425  13.891  11.523   6.762  1.3341  1.1716 -4.1427
54482SOL    HW275426  14.000  11.453   6.685  3.0275 -2.0339  0.6860
54483SOL     OW75427  10.575  10.927   4.138 -0.3513 -0.1633  0.4064
54483SOL    HW175428  10.647  10.866   4.152  1.4876  1.6384 -0.6344
54483SOL    HW275429  10.608  11.012   4.168 -1.3160  1.0766 -1.7791
54484SOL     OW75430   5.352   8.440   8.935  0.0900  0.4055  0.1805
54484SOL    HW175431   5.327   8.356   8.974  0.4883  0.2969  0.2001
54484SOL    HW275432   5.275   8.466   8.884 -1.9613  2.3284  3.8278
54485SOL     OW75433   4.983   4.258  10.930 -0.1354 -0.4565  0.7625
54485SOL    HW175434   4.897   4.221  10.907 -0.6818  1.5429 -0.6339
54485SOL    HW275435   4.964   4.348  10.956  1.5643  0.1068  0.1634
54486SOL     OW75436  12.592  13.687   0.336 -0.4822  0.1787 -0.4298
54486SOL    HW175437  12.517  13.746   0.340 -0.5748  0.0741 -0.5824
54486SOL    HW275438  12.654  13.722   0.399 -1.6407 -1.1188  1.5189
54487SOL     OW75439   8.394  10.832   2.499 -0.2637 -0.0026  0.5067
54487SOL    HW175440   8.361  10.804   2.414  0.6742  1.8752 -0.5321
54487SOL    HW275441   8.349  10.914   2.516  0.5184  0.2971  1.2067
54488SOL     OW75442  13.990   8.425   6.678 -0.0711  0.3026 -0.6351
54488SOL    HW175443  13.904   8.461   6.698 -0.7406 -1.8983  0.8793
54488SOL    HW275444  14.049   8.467   6.741 -0.6089 -0.3142  0.3064
54489SOL     OW75445   7.653   7.217  11.360 -0.3518 -0.1911  0.6165
54489SOL    HW175446   7.620   7.242  11.274  1.8028 -0.2536 -0.2799
54489SOL    HW275447   7.600   7.267  11.422 -1.5403  0.3134 -0.7657
54490SOL     OW75448  10.654   7.073   9.297  0.0960 -0.2128  0.4036
54490SOL    HW175449  10.642   6.995   9.242 -0.5393  0.5195 -0.5292
54490SOL    HW275450  10.598   7.056   9.373 -1.1620 -0.0764 -0.4570
54491SOL     OW75451   9.981  11.142  13.325 -0.4510 -0.6160 -0.4896
54491SOL    HW175452   9.939  11.068  13.368 -0.8332 -1.5533 -2.3603
54491SOL    HW275453  10.074  11.118  13.322 -0.8081 -2.0300 -2.8104
54492SOL     OW75454  11.866  12.291   1.065 -0.4395 -0.0105  0.4486
54492SOL    HW175455  11.895  12.236   0.993 -1.3020 -0.9561  0.7990
54492SOL    HW275456  11.929  12.274   1.135 -0.7491 -0.6237  0.5826
54493SOL     OW75457   2.151  10.410   1.652  0.6255 -0.2316 -0.7571
54493SOL    HW175458   2.220  10.463   1.613  0.2281 -0.1826 -1.4081
54493SOL    HW275459   2.168  10.414   1.746  0.2497  1.5591 -0.7287
54494SOL     OW75460   8.204  12.282  13.827 -0.4593 -0.4447  0.2021
54494SOL    HW175461   8.246  12.271  13.913 -0.3281 -0.0520  0.1916
54494SOL    HW275462   8.116  12.315  13.848  0.7700  3.3541  0.1300
54495SOL     OW75463   6.629  13.457  13.602  0.4476  0.4282 -0.1446
54495SOL    HW175464   6.546  13.441  13.556  0.7684 -0.1399 -0.5358
54495SOL    HW275465   6.653  13.371  13.637 -0.0482  0.9364  1.5479
54496SOL     OW75466   7.049  12.594   9.871  0.0125 -0.2691 -0.2147
54496SOL    HW175467   6.958  12.570   9.852 -0.5032  1.7035 -0.5618
54496SOL    HW275468   7.066  12.668   9.812  0.6234  1.6967  2.2438
54497SOL     OW75469   6.434   5.151   6.119 -0.1000 -0.0859  0.9236
54497SOL    HW175470   6.526   5.126   6.115 -0.0664  0.2626 -1.2216
54497SOL    HW275471   6.387   5.068   6.128  0.3936 -0.2510  2.2602
54498SOL     OW75472   4.385   9.763   9.581 -0.2153  0.2297 -0.0418
54498SOL    HW175473   4.321   9.695   9.601 -0.3260  0.1545 -0.6329
54498SOL    HW275474   4.371   9.782   9.488  1.3056 -0.5383 -0.4632
54499SOL     OW75475   1.644   2.427  10.647 -0.1489 -0.0716  0.6628
54499SOL    HW175476   1.558   2.468  10.639 -0.6210 -1.1978 -0.4564
54499SOL    HW275477   1.706   2.494  10.617 -0.8882 -0.1035 -1.0461
54500SOL     OW75478   5.999   5.842  11.549  0.2542  0.7129  0.2858
54500SOL    HW175479   5.979   5.754  11.518  1.5091 -0.3529  2.2470
54500SOL    HW275480   5.917   5.891  11.537 -0.2859 -0.5321 -1.4002
54501SOL     OW75481  12.960   4.738   4.836 -0.1346  0.3739  0.1143
54501SOL    HW175482  13.013   4.816   4.850  0.7943 -0.5816  2.3245
54501SOL    HW275483  13.021   4.672   4.803 -0.5390  0.0673 -0.0403
54502SOL     OW75484   6.381   3.273  11.852  0.2554 -0.2177  0.1469
54502SOL    HW175485   6.370   3.325  11.932 -0.2928  0.4722 -0.3619
54502SOL    HW275486   6.358   3.184  11.878 -1.6933  0.3009  0.3510
54503SOL     OW75487   6.424   7.227   4.543  0.3053 -0.3367 -0.1088
54503SOL    HW175488   6.417   7.262   4.632  1.7883 -1.9992  0.7106
54503SOL    HW275489   6.465   7.297   4.492  0.7409  0.1047  0.8416
54504SOL     OW75490   6.602   2.612   8.585  0.0691 -0.0870  0.0112
54504SOL    HW175491   6.609   2.623   8.490 -0.8143 -1.6694 -0.2568
54504SOL    HW275492   6.664   2.543   8.606 -0.6636 -0.6415  0.3928
54505SOL     OW75493  10.378   7.601   5.572 -0.6861  0.0720  0.3869
54505SOL    HW175494  10.430   7.521   5.562  0.9116  1.0897  0.0684
54505SOL    HW275495  10.421   7.649   5.643  0.3040  1.9822 -1.3639
54506SOL     OW75496   1.545  10.438   7.055 -0.1940 -0.3289 -0.1273
54506SOL    HW175497   1.567  10.477   7.140  0.4096  0.5744 -0.6834
54506SOL    HW275498   1.574  10.502   6.990 -2.6563  0.0128 -0.9995
54507SOL     OW75499  11.016  12.738  11.741  0.4830  0.3052 -0.0845
54507SOL    HW175500  10.977  12.781  11.665 -2.0637 -0.3267  0.7611
54507SOL    HW275501  10.943  12.694  11.783  2.4469 -2.3767  0.7620
54508SOL     OW75502   2.287   2.509  13.784 -0.2652  0.4124  0.7203
54508SOL    HW175503   2.219   2.575  13.770 -0.2823  0.4149  0.8193
54508SOL    HW275504   2.241   2.425  13.776  0.0382  0.3801 -0.9852
54509SOL     OW75505   4.204   4.465   1.449  0.1018 -0.2839 -0.3065
54509SOL    HW175506   4.162   4.548   1.472 -0.0953 -0.3061 -0.5830
54509SOL    HW275507   4.290   4.469   1.491  1.6247  1.6494 -3.2817
54510SOL     OW75508  11.825   8.591  12.231  0.0242  0.4899 -0.0459
54510SOL    HW175509  11.734   8.615  12.248 -0.4108 -1.4309  0.5796
54510SOL    HW275510  11.820   8.526  12.160  0.9032  0.2786  0.0718
54511SOL     OW75511  11.558   6.701   8.331  0.3683 -0.1398  0.2808
54511SOL    HW175512  11.653   6.708   8.319  0.1781 -0.4139 -1.7289
54511SOL    HW275513  11.544   6.608   8.350  0.5962  0.1209  1.7921
54512SOL     OW75514   3.792   1.146   6.171  0.2478  0.0203 -0.1461
54512SOL    HW175515   3.742   1.073   6.207  0.6310 -0.4697 -0.5815
54512SOL    HW275516   3.726   1.213   6.151  0.0468  0.4117  1.6487
54513SOL     OW75517   3.626  12.839   5.198 -0.6038  0.0277 -0.0058
54513SOL    HW175518   3.693  12.838   5.267 -2.4167 -0.4692  1.8261
54513SOL    HW275519   3.610  12.931   5.182 -0.4811  0.1567  0.5737
54514SOL     OW75520  11.972  11.044   3.388  0.2651  0.0200 -0.1176
54514SOL    HW175521  11.988  11.084   3.474 -0.1229  0.1035 -0.0799
54514SOL    HW275522  11.886  11.079   3.362  0.7325  0.6071 -0.8875
54515SOL     OW75523   1.053   1.804  13.960 -0.1455 -0.2595 -0.3655
54515SOL    HW175524   1.103   1.723  13.949 -1.0688 -0.6140 -2.2298
54515SOL    HW275525   1.099   1.868  13.905 -1.2483 -0.3843 -1.4611
54516SOL     OW75526  10.695  11.290   2.515  0.0396  0.2716 -0.3077
54516SOL    HW175527  10.774  11.254   2.555  0.1104  0.0574 -0.6300
54516SOL    HW275528  10.714  11.291   2.421 -0.5643 -0.3555 -0.4476
54517SOL     OW75529   7.807   8.881   9.958 -0.3625  0.5542 -0.1433
54517SOL    HW175530   7.749   8.835  10.018 -1.2809  0.5108 -1.0324
54517SOL    HW275531   7.835   8.814   9.895  0.8460  0.5226  0.3992
54518SOL     OW75532   0.076   4.448  10.148 -0.0165  0.2173  0.7063
54518SOL    HW175533   0.058   4.484  10.235 -0.1605  0.0419  0.7505
54518SOL    HW275534   0.162   4.406  10.157 -0.9125 -1.6087  1.3532
54519SOL     OW75535   2.353   5.268   2.203 -0.0113 -0.4150  0.3853
54519SOL    HW175536   2.377   5.199   2.265  0.7302  0.4720  1.1035
54519SOL    HW275537   2.429   5.326   2.200 -1.5684  1.8585  1.8570
54520SOL     OW75538   2.937   5.472   7.042 -0.3442 -0.5796 -0.1747
54520SOL    HW175539   2.943   5.437   6.954 -2.9710  0.2268 -0.7679
54520SOL    HW275540   2.954   5.566   7.031 -2.2135 -0.2065 -0.1346
54521SOL     OW75541   0.563   1.288   3.589  0.2111 -0.0575 -0.3967
54521SOL    HW175542   0.637   1.261   3.643  0.2272 -1.2804 -1.0141
54521SOL    HW275543   0.560   1.225   3.518 -1.0812  0.3117 -0.6969
54522SOL     OW75544   5.421   9.325   0.700  0.1305  0.7928 -0.0877
54522SOL    HW175545   5.483   9.348   0.632 -0.5120  1.3253 -0.5062
54522SOL    HW275546   5.458   9.363   0.780  1.0442 -0.1044 -0.0663
54523SOL     OW75547   2.226   7.973  11.612 -0.2883 -0.1769 -0.0244
54523SOL    HW175548   2.275   8.044  11.570 -0.5039  0.1870  0.3335
54523SOL    HW275549   2.139   8.009  11.624  0.0106  0.0585  1.5723
54524SOL     OW75550   7.455   5.818   7.362  0.0294 -0.1474 -0.0894
54524SOL    HW175551   7.389   5.854   7.421 -0.8449 -1.4290 -0.2490
54524SOL    HW275552   7.537   5.858   7.391 -0.7331  1.1503  0.3872
54525SOL     OW75553   3.596   5.590   3.727  0.2826 -0.9381  0.0320
54525SOL    HW175554   3.539   5.665   3.713  0.4442 -0.6984  0.6272
54525SOL    HW275555   3.597   5.578   3.822  2.2358 -0.1206  0.1631
54526SOL     OW75556   1.291  13.748  10.264 -0.0642  0.2841 -0.3577
54526SOL    HW175557   1.318  13.663  10.229  0.5414  0.5811 -0.6135
54526SOL    HW275558   1.320  13.746  10.355 -2.0465 -0.6737  0.3097
54527SOL     OW75559   3.588   9.023   4.406 -0.2567  0.4829 -0.1639
54527SOL    HW175560   3.571   9.013   4.500 -1.6311  0.0686 -0.4287
54527SOL    HW275561   3.564   9.114   4.387  2.3240  1.3365  0.2981
54528SOL     OW75562   7.574   5.434   4.140  0.7592  0.3622 -0.0448
54528SOL    HW175563   7.579   5.471   4.228 -0.2645 -0.4135  0.3565
54528SOL    HW275564   7.518   5.495   4.092 -1.1828 -0.7370  0.7018
54529SOL     OW75565   0.207  10.446   2.460  0.1513 -0.1288  0.0066
54529SOL    HW175566   0.163  10.467   2.378 -0.5958  2.4218  0.9527
54529SOL    HW275567   0.175  10.358   2.483 -2.2921  0.4898 -0.7530
54530SOL     OW75568   1.597  11.934  12.586 -0.1120 -0.1124 -0.1446
54530SOL    HW175569   1.687  11.954  12.560 -0.4144  1.4608 -0.0431
54530SOL    HW275570   1.604  11.911  12.679  0.0672  0.9598  0.1185
54531SOL     OW75571   4.905   9.981  11.659  0.3179  0.5553  0.1879
54531SOL    HW175572   4.864   9.923  11.724  0.9272 -1.3106 -1.0081
54531SOL    HW275573   4.907  10.067  11.702  1.2257 -0.6906  2.8710
54532SOL     OW75574   5.886   7.178  13.222  0.3529  0.0608 -0.3383
54532SOL    HW175575   5.886   7.122  13.300  0.1143  2.6243  1.6687
54532SOL    HW275576   5.822   7.246  13.242  1.3721  1.6427 -2.1322
54533SOL     OW75577   7.307   9.656   3.956 -0.0908  0.2925 -0.0877
54533SOL    HW175578   7.273   9.566   3.963 -1.1927  0.7374  0.7124
54533SOL    HW275579   7.401   9.646   3.943 -0.2338 -0.9839 -0.2318
54534SOL     OW75580  10.194   4.621   0.019 -0.0897  0.1188 -0.2751
54534SOL    HW175581  10.110   4.605  -0.022  0.2850  1.0886 -1.4955
54534SOL    HW275582  10.259   4.604  -0.050  0.5444  1.9131 -0.1879
54535SOL     OW75583   4.751   3.504   5.532  0.3646 -0.3246 -0.6790
54535SOL    HW175584   4.689   3.474   5.465  0.0716  0.1582 -0.6274
54535SOL    HW275585   4.800   3.426   5.556 -0.7791 -0.8868 -0.1213
54536SOL     OW75586  10.040   0.212   9.884 -0.2763  0.0373 -0.1633
54536SOL    HW175587  10.125   0.179   9.912 -0.0472 -0.1087 -1.0279
54536SOL    HW275588  10.002   0.250   9.964  0.3734 -0.3539  0.3400
54537SOL     OW75589   8.350   4.506   0.550  0.1538 -0.3904 -0.3338
54537SOL    HW175590   8.295   4.432   0.524  1.6281 -1.6504  0.0351
54537SOL    HW275591   8.291   4.581   0.547 -1.0236 -1.3202 -2.1395
54538SOL     OW75592   1.836   5.821   4.971  0.7697 -0.4083  0.3521
54538SOL    HW175593   1.810   5.898   4.920  0.1198 -0.5012  0.5354
54538SOL    HW275594   1.762   5.805   5.029  0.9947 -1.0432  0.4681
54539SOL     OW75595   5.004  11.805  10.596  0.1356  0.0292  0.1961
54539SOL    HW175596   4.998  11.899  10.577 -1.4455 -0.1552 -0.3719
54539SOL    HW275597   4.998  11.800  10.691  2.6145  0.6141  0.4611
54540SOL     OW75598   1.477  12.614   6.981 -0.0815 -0.0844 -0.3172
54540SOL    HW175599   1.483  12.614   7.077 -2.3047  1.5274 -0.0988
54540SOL    HW275600   1.545  12.676   6.953  1.6210 -1.6952  0.0379
54541SOL     OW75601   6.090  10.963   9.909 -0.5170 -0.2831  0.0507
54541SOL    HW175602   6.040  11.044   9.898 -0.5951 -0.2576  0.5550
54541SOL    HW275603   6.154  10.984   9.978  0.7943 -0.0357 -1.1862
54542SOL     OW75604   5.285   6.390  10.263 -0.0495 -0.1036  0.6981
54542SOL    HW175605   5.197   6.357  10.240  0.3169  0.1101 -1.2077
54542SOL    HW275606   5.293   6.472  10.214  0.9014  0.3125  1.5333
54543SOL     OW75607  10.317  12.154  10.385 -0.2179  0.1756  0.2356
54543SOL    HW175608  10.233  12.165  10.340  0.4805  1.9956 -0.7230
54543SOL    HW275609  10.381  12.146  10.313  0.5673  0.0027  0.9405
54544SOL     OW75610  10.591  12.042   3.228  0.5322  0.5236  0.5302
54544SOL    HW175611  10.589  11.995   3.144 -1.7590 -0.3319  0.9876
54544SOL    HW275612  10.523  12.108   3.219 -0.5464 -0.3206  2.0734
54545SOL     OW75613   3.622   6.468  13.550  0.3816 -0.1188 -0.2500
54545SOL    HW175614   3.551   6.529  13.532  0.2110 -0.2843 -0.1380
54545SOL    HW275615   3.594   6.419  13.628 -1.1307 -2.8397 -2.3232
54546SOL     OW75616  12.537   6.509   6.846 -0.6188  0.3412 -0.2801
54546SOL    HW175617  12.508   6.598   6.867 -0.2113  0.3563  0.2427
54546SOL    HW275618  12.476   6.452   6.892  0.2925  0.3743  1.0406
54547SOL     OW75619   6.998   2.914   7.259  0.2296  0.1385 -0.4897
54547SOL    HW175620   6.991   2.896   7.353 -0.1280 -2.7724 -0.9599
54547SOL    HW275621   6.927   2.976   7.241  0.1845  0.6015  1.1078
54548SOL     OW75622  10.104   5.042   6.658 -0.3456 -0.1448  0.2170
54548SOL    HW175623  10.128   5.124   6.615 -0.8671 -0.3506 -0.4929
54548SOL    HW275624  10.041   5.068   6.725 -0.9418 -0.0185 -0.3809
54549SOL     OW75625   9.829   5.912   4.580  0.1941 -0.3467  0.7018
54549SOL    HW175626   9.840   5.856   4.503  1.5477 -0.3678  0.9032
54549SOL    HW275627   9.877   5.992   4.559  2.1331 -1.0349  2.2026
54550SOL     OW75628  13.232   7.116  11.793 -0.2685  0.1098  0.2442
54550SOL    HW175629  13.318   7.076  11.805 -0.6759 -0.8687  0.0260
54550SOL    HW275630  13.170   7.043  11.804 -1.1055  0.9016  0.9917
54551SOL     OW75631   8.105  12.269  11.524  0.1628 -0.4235  1.2053
54551SOL    HW175632   8.166  12.251  11.595  0.1196 -1.0408  1.0971
54551SOL    HW275633   8.139  12.349  11.483 -0.3163  0.4539  2.4556
54552SOL     OW75634  13.632   9.068   1.084  0.3811  0.5974  0.5495
54552SOL    HW175635  13.653   9.005   1.153 -0.3026 -1.8998 -1.3919
54552SOL    HW275636  13.717   9.088   1.044  0.6375  1.1783  1.3587
54553SOL     OW75637  12.923  11.766  13.876 -0.4460 -0.6875  0.4595
54553SOL    HW175638  12.961  11.690  13.920 -0.6133 -0.8169  0.3829
54553SOL    HW275639  12.988  11.836  13.887  0.7270 -1.4160 -1.3652
54554SOL     OW75640  10.718   7.476  10.090  0.3076 -0.2101 -0.0995
54554SOL    HW175641  10.677   7.552  10.048  0.3254 -0.3708 -0.4169
54554SOL    HW275642  10.797   7.510  10.130  0.7503 -0.2039 -0.9446
54555SOL     OW75643   6.457  14.043   2.823  0.0199  0.3647  0.1887
54555SOL    HW175644   6.525  14.098   2.783 -1.8360  1.3966 -1.7892
54555SOL    HW275645   6.409  14.103   2.880 -0.7595  0.3349 -0.4116
54556SOL     OW75646   2.738   8.758  10.890 -0.4144  0.4965 -0.2171
54556SOL    HW175647   2.689   8.775  10.970 -1.2347 -1.2408 -0.3198
54556SOL    HW275648   2.675   8.771  10.820 -0.4310 -0.5652 -0.4154
54557SOL     OW75649  12.906   5.219   7.079 -0.1424  0.1058  0.0973
54557SOL    HW175650  12.887   5.212   6.986 -2.4206  1.0051  0.4364
54557SOL    HW275651  12.940   5.308   7.090 -0.1413  0.0956  0.1765
54558SOL     OW75652   7.818  12.312   0.288 -0.1856  0.2429  0.1058
54558SOL    HW175653   7.885  12.253   0.253  0.7783  0.6621  1.1646
54558SOL    HW275654   7.739  12.290   0.240  0.8114  0.0536 -1.5224
54559SOL     OW75655  12.785   6.641   3.230 -0.5577 -0.3949 -0.1889
54559SOL    HW175656  12.760   6.733   3.234 -0.7606 -0.4899  0.8034
54559SOL    HW275657  12.720   6.601   3.173 -0.7910 -0.0325 -0.1799
54560SOL     OW75658  12.867   7.663  13.811  0.7222  0.4746 -0.3624
54560SOL    HW175659  12.896   7.735  13.867  0.3422  0.7162 -0.4727
54560SOL    HW275660  12.796   7.700  13.759 -0.8693 -0.5295  1.0205
54561SOL     OW75661   1.260   0.754   4.931 -0.5993 -0.0401  0.7556
54561SOL    HW175662   1.278   0.716   5.017  0.0025  0.0434  0.6775
54561SOL    HW275663   1.264   0.849   4.945 -0.9805 -0.0187  0.7290
54562SOL     OW75664   6.018  13.893   1.156 -0.6767  0.2703 -0.0450
54562SOL    HW175665   6.022  13.967   1.095 -1.1590  0.5541  0.2541
54562SOL    HW275666   6.012  13.934   1.242  3.2342 -0.0782  0.5477
54563SOL     OW75667   7.544   3.208  11.434 -0.0571 -0.4506 -0.1495
54563SOL    HW175668   7.469   3.251  11.393  0.0067  1.6829  1.7562
54563SOL    HW275669   7.507   3.160  11.508  0.1831 -1.7314 -0.8266
54564SOL     OW75670   6.796   2.257   7.401 -0.5814  0.4395  0.2623
54564SOL    HW175671   6.869   2.196   7.388  0.5616  1.3074  2.1049
54564SOL    HW275672   6.718   2.204   7.391  0.3693 -1.5839  2.5322
54565SOL     OW75673   6.476   8.189   5.045 -0.4658  0.9357 -0.4544
54565SOL    HW175674   6.481   8.249   4.971 -2.2919  0.6860 -0.8456
54565SOL    HW275675   6.385   8.195   5.074  0.1223  0.7810  1.5824
54566SOL     OW75676  12.006   9.438   9.855 -0.1216  0.0920 -0.0995
54566SOL    HW175677  11.962   9.438   9.769  1.6674 -0.2130 -1.0608
54566SOL    HW275678  11.970   9.514   9.901 -0.7158  0.5834 -1.3302
54567SOL     OW75679  11.429   3.068  11.460 -0.2082 -0.0816 -0.7067
54567SOL    HW175680  11.453   3.000  11.398  0.2677  0.2965 -0.9481
54567SOL    HW275681  11.501   3.071  11.522  0.3704  0.9943 -1.3816
54568SOL     OW75682   3.085  10.986   2.049 -0.1244 -0.7114  0.7552
54568SOL    HW175683   3.020  10.968   1.981  1.6026  0.4767 -1.3064
54568SOL    HW275684   3.133  10.904   2.060 -1.4158 -1.3820  1.7797
54569SOL     OW75685   3.576  13.411  10.449  0.1735  0.1264  0.4367
54569SOL    HW175686   3.494  13.421  10.402  0.5143 -1.9707 -0.7631
54569SOL    HW275687   3.566  13.464  10.528 -1.4978  1.5641 -0.6745
54570SOL     OW75688   6.767   3.140  10.547  0.1826  0.1442  0.1159
54570SOL    HW175689   6.738   3.087  10.621  2.0740 -1.6510 -0.3284
54570SOL    HW275690   6.852   3.175  10.574  0.3306  0.4828 -0.7457
54571SOL     OW75691   7.999   0.005  13.858  0.2144  0.2957 -1.0096
54571SOL    HW175692   7.969   0.089  13.823 -1.8026 -0.6324 -1.6523
54571SOL    HW275693   7.990  -0.056  13.784 -1.1253 -1.0580  0.2087
54572SOL     OW75694   4.032  13.315  10.327 -0.0030 -0.3036 -0.6272
54572SOL    HW175695   3.944  13.326  10.291  0.0972  0.1162 -0.7487
54572SOL    HW275696   4.019  13.260  10.404 -0.4090 -0.0303 -0.4934
54573SOL     OW75697  12.411  13.331   6.996  0.4735 -0.1543  0.3943
54573SOL    HW175698  12.377  13.416   7.024  0.6313  0.3314 -0.8411
54573SOL    HW275699  12.496  13.323   7.040  1.0945  0.9671 -0.5375
54574SOL     OW75700   7.255   5.799  13.810 -0.0433  0.6268  0.5253
54574SOL    HW175701   7.261   5.740  13.736  0.6352  2.1205 -0.6751
54574SOL    HW275702   7.193   5.757  13.870  0.2427 -1.1393 -0.3602
54575SOL     OW75703   0.426   4.630   4.186  0.0621 -0.3635  0.0348
54575SOL    HW175704   0.509   4.662   4.149 -1.0238  1.0365 -1.2958
54575SOL    HW275705   0.382   4.588   4.112 -1.2867  0.7109  0.1994
54576SOL     OW75706   8.188   8.070   3.268  0.1960 -0.0060 -0.0804
54576SOL    HW175707   8.228   8.081   3.354  0.4095  0.3826 -0.2264
54576SOL    HW275708   8.255   8.101   3.207 -0.0690  0.0012 -0.3662
54577SOL     OW75709   1.099   9.957   3.287  0.4251  0.3521 -0.1924
54577SOL    HW175710   1.007   9.941   3.308  1.2307 -0.9465  3.0830
54577SOL    HW275711   1.111   9.922   3.199 -2.4605  1.9027 -1.3431
54578SOL     OW75712  12.194  12.348  12.603  0.0224  0.2050  0.2048
54578SOL    HW175713  12.159  12.374  12.688  0.7628 -0.4881  0.7292
54578SOL    HW275714  12.249  12.421  12.576 -1.2928  1.0403 -0.3450
54579SOL     OW75715  13.536  10.826   7.385  0.3174 -0.3668  0.0931
54579SOL    HW175716  13.563  10.831   7.477 -0.5495  1.0446  0.3044
54579SOL    HW275717  13.504  10.737   7.374  1.4569 -0.8949  0.8565
54580SOL     OW75718  12.116  11.509   0.127  0.3200  0.2421  0.0487
54580SOL    HW175719  12.055  11.445   0.091  0.6860  0.5595 -1.1800
54580SOL    HW275720  12.155  11.551   0.050  0.8261  1.2332  0.8210
54581SOL     OW75721   9.414   0.479   4.621  0.1568 -0.1659 -0.0513
54581SOL    HW175722   9.330   0.521   4.640 -0.2478 -0.5966 -0.8493
54581SOL    HW275723   9.411   0.396   4.670 -0.1648 -0.4814 -0.5933
54582SOL     OW75724   4.060   1.986   9.981  0.8575  0.3193  0.6581
54582SOL    HW175725   3.968   2.010   9.992  0.3672 -0.3165 -1.6139
54582SOL    HW275726   4.107   2.069   9.987  0.0546  0.7584  1.0375
54583SOL     OW75727   7.084   9.989  12.345 -0.2151  0.5447  0.0323
54583SOL    HW175728   7.016   9.924  12.327 -0.2796  0.5219  0.3595
54583SOL    HW275729   7.164   9.951  12.309 -0.1364  0.0128  0.7669
54584SOL     OW75730   3.555   9.432  10.404 -0.2161 -0.3210 -0.2439
54584SOL    HW175731   3.482   9.489  10.385  0.9509  0.8477 -1.4189
54584SOL    HW275732   3.633   9.485  10.387  0.9183 -1.6762  0.4525
54585SOL     OW75733   3.376   6.999   7.298  0.0144 -0.1731 -0.0653
54585SOL    HW175734   3.288   6.966   7.316  0.5017 -0.9981  0.9255
54585SOL    HW275735   3.385   7.075   7.354 -0.9684  1.5242 -2.0685
54586SOL     OW75736  10.067   6.723   5.569  0.0804  0.0558  0.7075
54586SOL    HW175737   9.995   6.756   5.623 -0.8279 -1.4387  0.4598
54586SOL    HW275738  10.047   6.630   5.555  0.2046  0.3539 -2.2614
54587SOL     OW75739   6.649  13.194   7.129 -0.1240 -0.1400 -0.3849
54587SOL    HW175740   6.563  13.191   7.171 -0.9268 -0.3512 -1.9906
54587SOL    HW275741   6.701  13.128   7.175 -0.5785  0.4444  1.0400
54588SOL     OW75742   8.949   3.443  10.217  0.1691  0.2042 -0.4710
54588SOL    HW175743   8.883   3.457  10.149  1.0852 -0.5606 -1.5553
54588SOL    HW275744   9.032   3.465  10.175  0.8132 -0.8237  0.2242
54589SOL     OW75745  12.952   7.599   6.049 -0.9243 -0.4207 -0.2788
54589SOL    HW175746  13.010   7.609   6.124  0.0211  0.6833 -1.1169
54589SOL    HW275747  12.926   7.689   6.027 -3.2077 -0.8838  0.2405
54590SOL     OW75748   2.856   4.265   2.120  0.4472  0.3603 -0.3352
54590SOL    HW175749   2.855   4.268   2.216  1.7621 -3.0955 -0.0656
54590SOL    HW275750   2.873   4.356   2.093 -0.8934  1.6115  2.6170
54591SOL     OW75751   4.882   5.966  10.277 -0.4569 -0.2936 -0.0305
54591SOL    HW175752   4.829   5.886  10.273 -1.5044  0.4081 -0.6560
54591SOL    HW275753   4.904   5.985  10.186 -0.4087  0.2572  0.0925
54592SOL     OW75754   2.475  13.700   2.779  0.5365 -0.2361 -0.5225
54592SOL    HW175755   2.566  13.674   2.793  0.1598 -1.0697  0.5344
54592SOL    HW275756   2.423  13.631   2.822 -0.5468  1.7681  1.6107
54593SOL     OW75757   5.662   5.874  13.877  0.2285 -0.1769  0.1720
54593SOL    HW175758   5.656   5.900  13.969 -2.1040  0.9188 -0.2088
54593SOL    HW275759   5.667   5.779  13.878 -1.2016 -0.2592  1.4230
54594SOL     OW75760   3.250   6.584   2.674 -0.3731  0.2692 -0.5611
54594SOL    HW175761   3.341   6.613   2.678 -0.4475  0.3579  1.0120
54594SOL    HW275762   3.250   6.513   2.610  1.0709 -0.6242  0.3826
54595SOL     OW75763  13.054   1.795   8.547  0.2300 -0.2204 -0.5675
54595SOL    HW175764  13.050   1.859   8.476 -0.6520 -1.6061 -1.8038
54595SOL    HW275765  13.089   1.716   8.506 -0.3184 -1.0543  0.5409
54596SOL     OW75766  12.319  13.087   3.777  0.2140 -0.1452 -0.2480
54596SOL    HW175767  12.294  13.009   3.826  2.8153 -1.4894 -0.8754
54596SOL    HW275768  12.291  13.160   3.832  0.2689 -1.5486  1.7311
54597SOL     OW75769   8.811   5.695   5.506  0.7097 -0.3370 -0.0163
54597SOL    HW175770   8.872   5.700   5.579 -0.0440  0.6233  0.5714
54597SOL    HW275771   8.853   5.745   5.436  0.9488 -0.3255  0.1353
54598SOL     OW75772   5.023   7.858   7.092 -0.3895 -0.2162  0.1649
54598SOL    HW175773   4.977   7.857   7.008 -0.1541  0.8910  0.0177
54598SOL    HW275774   5.031   7.950   7.115  0.0183 -0.4794  1.1536
54599SOL     OW75775   2.865   1.346   0.782 -0.4609 -0.0431 -0.5514
54599SOL    HW175776   2.793   1.284   0.791  1.1856 -2.0158 -0.1619
54599SOL    HW275777   2.837   1.406   0.714 -3.1423  0.3123  0.7486
54600SOL     OW75778  11.828   1.719  10.845 -0.2243  0.6321 -0.0262
54600SOL    HW175779  11.832   1.627  10.822 -1.7279  0.0406  1.7997
54600SOL    HW275780  11.918   1.742  10.870  0.1915 -0.2811 -0.6482
54601SOL     OW75781   5.034   6.881  12.376 -0.0998  0.0659  0.0900
54601SOL    HW175782   5.018   6.943  12.304 -0.9364  1.5367  1.4756
54601SOL    HW275783   5.098   6.926  12.432  0.4849 -1.0264  0.3403
54602SOL     OW75784   1.881   7.197   5.075 -0.2028  0.2604 -0.4086
54602SOL    HW175785   1.918   7.183   5.162  0.2781 -2.6619 -0.9621
54602SOL    HW275786   1.789   7.171   5.083  0.3838 -2.4225 -1.1735
54603SOL     OW75787   1.292   8.482   6.238  0.0532  0.2612 -0.0126
54603SOL    HW175788   1.234   8.542   6.191  0.4281  0.2917 -0.4426
54603SOL    HW275789   1.380   8.515   6.220  0.3181 -0.8797 -0.9060
54604SOL     OW75790   5.784  12.602   2.885  0.0350 -0.4063  0.2104
54604SOL    HW175791   5.699  12.639   2.908  1.0914  1.5150  1.2439
54604SOL    HW275792   5.795  12.623   2.793  0.7154  2.2819  0.8130
54605SOL     OW75793   7.350   9.838   8.834 -0.4779 -0.4755  0.0939
54605SOL    HW175794   7.316   9.838   8.923 -0.6167 -1.1281  0.0433
54605SOL    HW275795   7.441   9.808   8.843 -1.0043 -2.2879 -0.1569
54606SOL     OW75796   3.723   3.999  10.304  0.1901 -0.2756 -0.0450
54606SOL    HW175797   3.673   4.034  10.378 -0.0709  1.5218 -0.9930
54606SOL    HW275798   3.657   3.961  10.246  0.0334  0.9216 -0.6819
54607SOL     OW75799  13.891   4.224   5.006 -0.1588 -0.2380  0.5171
54607SOL    HW175800  13.856   4.304   4.966 -1.5816 -0.1957  1.7328
54607SOL    HW275801  13.939   4.181   4.936 -1.5619  0.4054 -0.9128
54608SOL     OW75802   4.122   0.881  13.605  0.4438  0.2440  0.3094
54608SOL    HW175803   4.158   0.956  13.556  1.2158  0.9209  1.8579
54608SOL    HW275804   4.029   0.902  13.614  0.1524 -0.1923 -1.3658
54609SOL     OW75805   2.562   3.664  13.580 -0.3859 -0.2193  0.4431
54609SOL    HW175806   2.603   3.659  13.494 -0.6929 -0.7008  0.3167
54609SOL    HW275807   2.531   3.754  13.587  0.8800  0.2101  0.6334
54610SOL     OW75808   4.509   3.611   3.925  0.2751  0.3228  0.2336
54610SOL    HW175809   4.462   3.528   3.929  0.0788  0.4669  1.2044
54610SOL    HW275810   4.449   3.670   3.881  0.3304  0.0035 -0.2711
54611SOL     OW75811   7.690   6.753   5.864 -0.1291 -0.0227  0.4501
54611SOL    HW175812   7.774   6.779   5.826 -0.2277  1.6657  1.3211
54611SOL    HW275813   7.695   6.657   5.868  0.8025 -0.1225 -1.6195
54612SOL     OW75814  12.361   9.272   8.574  0.3180  0.2698 -0.5416
54612SOL    HW175815  12.411   9.256   8.654 -1.3027 -1.2275  0.2274
54612SOL    HW275816  12.278   9.308   8.605 -0.5257 -0.7888 -1.4891
54613SOL     OW75817   4.257   5.111   6.913  0.1617 -0.1346  0.0206
54613SOL    HW175818   4.346   5.081   6.931  0.6903  1.6023  0.4228
54613SOL    HW275819   4.260   5.140   6.822 -0.2172 -0.7681 -0.2058
54614SOL     OW75820   2.329   2.364   3.435 -0.2289  0.6622  0.0092
54614SOL    HW175821   2.359   2.447   3.474  0.6370  1.5806 -2.3936
54614SOL    HW275822   2.234   2.375   3.427 -0.2534  0.9843  0.6928
54615SOL     OW75823   8.864  12.051   0.422  0.0398 -0.0466  0.2803
54615SOL    HW175824   8.919  12.012   0.490  0.0256 -0.7326 -0.0953
54615SOL    HW275825   8.853  12.142   0.450  2.2131  0.3980 -0.1677
54616SOL     OW75826  13.708   7.189  13.669  0.4129  0.4316  0.4978
54616SOL    HW175827  13.795   7.222  13.647  0.2915 -0.3654 -1.3379
54616SOL    HW275828  13.699   7.207  13.763  1.6883  2.4323  0.2979
54617SOL     OW75829   1.176   0.270  10.399 -0.1417 -0.6206  0.2744
54617SOL    HW175830   1.220   0.339  10.449 -2.3472 -0.4572  2.1899
54617SOL    HW275831   1.123   0.318  10.335  0.1117 -0.6630  0.0314
54618SOL     OW75832   6.805   9.190   4.047  0.0483 -0.6769  0.2180
54618SOL    HW175833   6.770   9.264   4.098 -0.3926 -0.2471 -0.6849
54618SOL    HW275834   6.738   9.123   4.053  0.4062 -0.9852  0.9576
54619SOL     OW75835  13.402   1.789   8.262 -0.2684 -0.3530 -0.1160
54619SOL    HW175836  13.371   1.877   8.241 -0.6133 -0.7343 -1.3132
54619SOL    HW275837  13.474   1.774   8.201  2.3590  0.4747  2.5304
54620SOL     OW75838   7.203   7.135  12.415 -0.6311 -1.0518  0.5477
54620SOL    HW175839   7.133   7.201  12.425  0.3787  0.1848 -0.1793
54620SOL    HW275840   7.178   7.086  12.337 -1.9590 -2.3222  1.7005
54621SOL     OW75841   4.045   5.710  11.231  0.8648  0.4759  0.1967
54621SOL    HW175842   4.061   5.645  11.300  0.7180  1.4931  1.2172
54621SOL    HW275843   4.037   5.793  11.278  1.1684  1.2580 -1.0973
54622SOL     OW75844   0.654   5.914  13.956 -0.4520 -0.4698 -0.1431
54622SOL    HW175845   0.637   5.926  14.049  0.2523 -0.7078  0.0243
54622SOL    HW275846   0.616   5.990  13.914  1.0641  0.7278  0.5528
54623SOL     OW75847  10.096  12.181   5.490  0.4644  0.0473  0.5418
54623SOL    HW175848  10.163  12.241   5.523  0.3991  0.1048  0.5675
54623SOL    HW275849  10.068  12.131   5.567  0.3082  0.1860  0.5746
54624SOL     OW75850   8.017  11.447   5.416 -0.0485 -0.4576 -0.6955
54624SOL    HW175851   8.010  11.379   5.349 -1.3053 -1.4863  0.4321
54624SOL    HW275852   8.088  11.417   5.473 -1.0500 -1.2362  0.1936
54625SOL     OW75853   7.146  12.786  12.658  0.5206  0.1859  0.3154
54625SOL    HW175854   7.202  12.727  12.608  0.2723 -1.5353  1.9721
54625SOL    HW275855   7.199  12.865  12.670  2.2378 -1.0136  0.9869
54626SOL     OW75856  13.015  11.085  13.562  0.4581 -0.7047 -0.1545
54626SOL    HW175857  13.069  11.007  13.576  2.3533  0.2356 -1.6907
54626SOL    HW275858  12.993  11.082  13.469 -0.2078  0.1211 -0.0346
54627SOL     OW75859   7.171   2.865   9.739  0.3976  0.1202  0.0345
54627SOL    HW175860   7.112   2.794   9.717  1.6822 -0.5138 -1.5911
54627SOL    HW275861   7.167   2.924   9.664  0.2388  1.1734  0.8451
54628SOL     OW75862   2.246   6.647   9.399 -0.0426 -0.0075 -0.0925
54628SOL    HW175863   2.295   6.614   9.474 -0.7519 -2.2918 -0.5622
54628SOL    HW275864   2.169   6.689   9.437  0.2108 -0.0762  0.5006
54629SOL     OW75865   2.604  11.820  13.534 -0.0504 -1.0342  0.3284
54629SOL    HW175866   2.613  11.893  13.595 -1.7453 -0.3868 -0.1525
54629SOL    HW275867   2.689  11.814  13.491  0.3565  0.1466  0.9269
54630SOL     OW75868  11.554  14.044  13.949 -0.1352  0.0562  0.0907
54630SOL    HW175869  11.585  14.134  13.946 -1.4410  0.5195 -0.1664
54630SOL    HW275870  11.632  13.992  13.969  0.6022  1.2523  0.4121
54631SOL     OW75871   6.850   7.245   1.216 -0.3752  0.7467  0.2366
54631SOL    HW175872   6.804   7.287   1.288 -1.1514  0.3717 -0.0275
54631SOL    HW275873   6.942   7.268   1.230 -0.6987  2.0069  0.4326
54632SOL     OW75874   6.193   5.232  13.659 -0.5708 -0.1965 -0.5180
54632SOL    HW175875   6.247   5.306  13.684 -0.8213  0.2969 -1.4183
54632SOL    HW275876   6.254   5.169  13.621 -0.3027 -0.6313  0.5862
54633SOL     OW75877   6.644   4.057   2.066 -0.1118  0.1709 -0.4859
54633SOL    HW175878   6.580   4.017   2.008  0.3187 -2.5346  0.7588
54633SOL    HW275879   6.704   3.985   2.089  2.3578  2.1576 -0.2112
54634SOL     OW75880   3.342   9.979  10.051  0.4356  0.1726 -0.2075
54634SOL    HW175881   3.413   9.920  10.077 -0.1687 -0.4121  0.1362
54634SOL    HW275882   3.386  10.049  10.002  1.2170 -0.3264 -0.2391
54635SOL     OW75883   8.991  11.248   4.245  0.1941 -0.4074 -0.5467
54635SOL    HW175884   9.041  11.179   4.201 -2.1100 -2.1556 -0.6023
54635SOL    HW275885   8.940  11.202   4.312  0.2917  1.6039  1.0110
54636SOL     OW75886   7.643   3.774  12.829  0.6395  0.0490 -0.2373
54636SOL    HW175887   7.701   3.700  12.812  0.8405  0.6848 -2.6507
54636SOL    HW275888   7.687   3.849  12.788 -1.7830  0.5574 -2.1739
54637SOL     OW75889   5.547   7.361  13.796 -0.3424 -0.1213  0.0404
54637SOL    HW175890   5.623   7.334  13.848  0.1373 -0.7847 -0.9521
54637SOL    HW275891   5.582   7.428  13.737 -0.9778  0.9463  0.8570
54638SOL     OW75892   5.289   4.349   6.562 -0.0699 -0.3743 -0.1861
54638SOL    HW175893   5.325   4.260   6.559  1.0256  0.0631 -0.5163
54638SOL    HW275894   5.221   4.349   6.494  0.9635 -0.5380 -1.2626
54639SOL     OW75895   0.463   4.285   5.265  0.0928  0.4136 -0.4410
54639SOL    HW175896   0.446   4.208   5.320  1.2020 -1.8421 -3.0351
54639SOL    HW275897   0.387   4.289   5.206  0.8588  0.2151 -1.4546
54640SOL     OW75898  11.655   9.545   0.579  0.0923 -0.0742 -0.2027
54640SOL    HW175899  11.708   9.552   0.499  0.7191 -0.1365  0.1945
54640SOL    HW275900  11.565   9.556   0.549  0.4133  1.2758 -0.7264
54641SOL     OW75901   8.955   6.652   9.126  0.1102 -0.5288  1.0822
54641SOL    HW175902   9.007   6.720   9.168  2.3443 -1.4964  0.0306
54641SOL    HW275903   8.904   6.614   9.198  0.1870  0.9947  2.0051
54642SOL     OW75904   2.460   4.655  10.187  0.2234 -0.6045 -0.1276
54642SOL    HW175905   2.439   4.669  10.095  0.5838 -2.1608 -0.4887
54642SOL    HW275906   2.472   4.560  10.194 -0.7273 -0.6301  1.7278
54643SOL     OW75907  13.350  12.530  13.306  0.0469 -0.1692 -0.0686
54643SOL    HW175908  13.374  12.529  13.398  0.5620  0.6344 -0.1810
54643SOL    HW275909  13.299  12.450  13.293 -0.5358  0.0023  1.0453
54644SOL     OW75910   7.361   9.952  10.775 -0.4221 -0.0753 -0.3824
54644SOL    HW175911   7.328   9.974  10.862 -2.0141 -0.6525 -0.8113
54644SOL    HW275912   7.456   9.953  10.785 -0.5489 -1.4016  1.7044
54645SOL     OW75913   6.267   0.166   4.483 -0.4136  0.0962  0.0048
54645SOL    HW175914   6.206   0.094   4.495 -0.9726  0.7516  1.1898
54645SOL    HW275915   6.252   0.224   4.557  3.0632 -0.7166  1.5645
54646SOL     OW75916   3.393  11.100   8.162  0.3416 -0.1338 -0.0691
54646SOL    HW175917   3.371  11.193   8.162  0.5657 -0.0802 -0.2398
54646SOL    HW275918   3.464  11.092   8.098 -0.9170 -0.7255 -1.4466
54647SOL     OW75919   1.656   3.767   3.525 -0.0946 -0.3980 -0.0408
54647SOL    HW175920   1.587   3.824   3.492  0.6127 -0.1095 -1.0968
54647SOL    HW275921   1.735   3.796   3.478  0.7354 -0.7530  1.0804
54648SOL     OW75922   2.658   4.429   4.458  0.5412  0.1721 -0.2890
54648SOL    HW175923   2.723   4.427   4.388  0.2565  1.2674 -0.5939
54648SOL    HW275924   2.580   4.389   4.420  0.4827  0.4855 -0.4953
54649SOL     OW75925  10.632  11.840   7.367 -0.0063  0.1076  0.4641
54649SOL    HW175926  10.632  11.766   7.428 -2.4333  0.5182  1.0581
54649SOL    HW275927  10.553  11.889   7.388  0.0978  1.3648 -1.7466
54650SOL     OW75928  12.671   2.056   1.980  0.1994 -0.4750  0.0910
54650SOL    HW175929  12.591   2.018   1.943 -0.4411  0.7319  0.2017
54650SOL    HW275930  12.680   2.012   2.064  0.5634 -1.7869 -0.6004
54651SOL     OW75931  11.210   5.855   3.131 -0.3364  0.4475 -0.2424
54651SOL    HW175932  11.287   5.805   3.104  0.1948  1.1945 -0.1427
54651SOL    HW275933  11.191   5.912   3.056 -1.5775 -0.6177 -0.7804
54652SOL     OW75934   1.028   8.597   8.771 -0.1497  0.2219  0.4170
54652SOL    HW175935   1.095   8.631   8.830 -0.7733 -0.6311  1.6632
54652SOL    HW275936   1.066   8.605   8.684  1.0957  0.8200  0.9932
54653SOL     OW75937   1.032   6.516   8.263 -0.1256 -0.4441 -0.4431
54653SOL    HW175938   0.970   6.474   8.323  0.0721  0.3773  0.3656
54653SOL    HW275939   1.074   6.443   8.217  0.5993 -1.2026  1.3012
54654SOL     OW75940   5.717   6.204   4.628  0.2699  0.2607  0.1083
54654SOL    HW175941   5.750   6.260   4.558 -2.0543 -0.6149 -1.8563
54654SOL    HW275942   5.770   6.226   4.704  1.4714  2.8529 -1.3556
54655SOL     OW75943   6.980  10.822   5.777 -0.3488 -0.1146  0.3195
54655SOL    HW175944   6.924  10.752   5.742  0.4606 -0.7131  0.2098
54655SOL    HW275945   7.011  10.869   5.700  0.7917 -0.9420  0.2505
54656SOL     OW75946   2.615   6.875  14.012 -0.6528 -0.9673  0.2334
54656SOL    HW175947   2.631   6.898  13.921  1.4028 -0.1433  0.7543
54656SOL    HW275948   2.626   6.957  14.060 -0.9331 -1.5384  1.3016
54657SOL     OW75949   8.247  12.673  11.077 -0.3047  0.2855 -0.2058
54657SOL    HW175950   8.211  12.587  11.057 -0.8322  0.4878 -0.1309
54657SOL    HW275951   8.172  12.732  11.075 -0.2633  0.4488  1.5600
54658SOL     OW75952  12.877   2.065  10.098  1.0805  0.0903 -0.0819
54658SOL    HW175953  12.851   2.004  10.029  1.8217  0.4015 -0.6562
54658SOL    HW275954  12.810   2.133  10.096 -0.0958 -0.9823  0.9765
54659SOL     OW75955   3.018   0.643   4.654  0.3257 -0.0650  0.0326
54659SOL    HW175956   3.058   0.575   4.599 -0.7906 -0.3188 -0.5046
54659SOL    HW275957   2.981   0.595   4.728  0.7208  0.1328  0.3639
54660SOL     OW75958   5.532   7.162   8.031 -0.1311  0.2815  0.0809
54660SOL    HW175959   5.449   7.148   8.077  0.3833  0.6630  1.1803
54660SOL    HW275960   5.518   7.241   7.979 -0.2527  0.7814  0.8421
54661SOL     OW75961   3.094   0.694   8.463 -0.6137  0.0468 -0.0622
54661SOL    HW175962   3.059   0.777   8.498 -0.6966 -0.2696  0.6282
54661SOL    HW275963   3.149   0.661   8.533  0.2937  0.0492 -0.7641
54662SOL     OW75964   1.724   9.100   2.333  0.2517 -0.2298  0.1181
54662SOL    HW175965   1.671   9.030   2.372 -0.1531  0.6650  1.2505
54662SOL    HW275966   1.678   9.181   2.357  1.1955  0.4750 -0.3791
54663SOL     OW75967  12.213  13.577   7.380  0.0517  0.3459 -0.5246
54663SOL    HW175968  12.168  13.649   7.425  1.5776  1.4979 -0.7605
54663SOL    HW275969  12.150  13.505   7.381 -0.2295  0.4869  2.9276
54664SOL     OW75970  10.557   2.571   6.220  0.4524 -0.2372 -0.3013
54664SOL    HW175971  10.465   2.583   6.194 -0.1630  1.5063  2.3112
54664SOL    HW275972  10.594   2.519   6.150 -1.9435  0.9418 -2.6625
54665SOL     OW75973   3.656   2.893   1.981 -0.1880 -0.2025  0.0844
54665SOL    HW175974   3.705   2.974   1.971 -1.7289  0.5994 -1.5252
54665SOL    HW275975   3.604   2.886   1.901 -0.8005 -2.3150  0.5894
54666SOL     OW75976   6.195   8.524  10.093 -0.4367 -0.6943  0.3043
54666SOL    HW175977   6.238   8.457  10.147 -0.1715 -0.8609 -0.1013
54666SOL    HW275978   6.119   8.479  10.056 -0.1597 -0.8376 -0.1115
54667SOL     OW75979   0.937  10.923   3.965 -0.2382 -0.3884  0.1910
54667SOL    HW175980   0.866  10.922   4.030 -1.0765 -2.1135 -0.6783
54667SOL    HW275981   0.900  10.878   3.889  1.0559  0.7017 -1.1298
54668SOL     OW75982  11.803  13.963  10.559 -0.1673 -0.3811  0.1143
54668SOL    HW175983  11.772  13.972  10.469  2.3751  1.2350 -0.7185
54668SOL    HW275984  11.888  13.919  10.551  1.4660  2.2713  1.3048
54669SOL     OW75985  13.015   7.330   8.448 -0.0312 -0.6807  0.6599
54669SOL    HW175986  13.014   7.424   8.468 -0.5410 -0.3202 -0.9269
54669SOL    HW275987  13.107   7.305   8.458  0.1668  0.0532  0.7692
54670SOL     OW75988   4.995  11.230   2.403  0.2217  0.2641 -0.1582
54670SOL    HW175989   4.940  11.276   2.339 -1.3863 -0.5742  0.5628
54670SOL    HW275990   4.933  11.186   2.461  1.6662 -2.0033 -0.2099
54671SOL     OW75991   7.415   2.503  10.736  0.3465 -0.0271  0.2963
54671SOL    HW175992   7.390   2.495  10.828 -1.1314 -3.1944 -0.2246
54671SOL    HW275993   7.335   2.529  10.691  0.6849  0.1009 -0.2405
54672SOL     OW75994   8.242   2.793   6.672  0.1777 -0.2487 -0.1467
54672SOL    HW175995   8.218   2.762   6.759  2.3351  1.6701  1.2585
54672SOL    HW275996   8.161   2.785   6.620 -1.9262  0.8947  2.7090
54673SOL     OW75997   1.002  12.569   2.900 -0.2507  0.1368 -0.0084
54673SOL    HW175998   1.037  12.636   2.842 -0.0333  0.8962  0.9720
54673SOL    HW275999   1.063  12.495   2.891 -0.2209  0.2454 -0.7270
54674SOL     OW76000  12.582  11.611   7.012 -0.1944  0.4840 -0.4422
54674SOL    HW176001  12.661  11.630   6.961  1.4056  0.0142  1.7226
54674SOL    HW276002  12.613  11.559   7.086 -2.1934  2.0151  1.6162
54675SOL     OW76003   7.024  12.325  13.017  0.2782  0.3767  0.2934
54675SOL    HW176004   6.996  12.373  12.939  1.4139  0.1839 -0.2441
54675SOL    HW276005   6.942  12.291  13.054 -0.2512  0.2361 -0.9634
54676SOL     OW76006   1.235  14.042   8.926 -0.6130  0.0078 -0.0157
54676SOL    HW176007   1.230  14.075   9.016  1.1836 -0.7638  0.3952
54676SOL    HW276008   1.258  13.950   8.935 -0.6180 -0.1355 -1.2802
54677SOL     OW76009   6.335   6.117   2.940 -0.5911  0.0586  0.1682
54677SOL    HW176010   6.333   6.112   2.844 -0.4208  0.6799  0.1242
54677SOL    HW276011   6.282   6.043   2.969 -2.5227  1.1111 -0.4567
54678SOL     OW76012   5.338   7.785  12.250 -0.3413 -0.6587  0.0409
54678SOL    HW176013   5.304   7.791  12.339  1.4300  3.5547  0.6145
54678SOL    HW276014   5.433   7.781  12.260 -0.1482 -1.3105 -1.6750
54679SOL     OW76015   1.775   2.720   4.221  0.4239  0.1073  0.1276
54679SOL    HW176016   1.808   2.727   4.131  0.0815 -0.8529 -0.0882
54679SOL    HW276017   1.706   2.786   4.226  0.1557 -0.1162 -0.4560
54680SOL     OW76018   1.567  10.665  11.014  0.0995  0.4173 -0.1971
54680SOL    HW176019   1.618  10.640  10.936  0.2184  2.2580 -0.7570
54680SOL    HW276020   1.611  10.744  11.046 -0.9647  0.6317  0.7527
54681SOL     OW76021   7.858   8.885   4.219 -0.3132  0.2830 -0.3582
54681SOL    HW176022   7.768   8.854   4.210 -0.4499  0.3947  0.4844
54681SOL    HW276023   7.906   8.811   4.257 -0.0490  0.2219 -0.8066
54682SOL     OW76024  10.882  12.047   5.530 -0.1520 -0.1814  0.2879
54682SOL    HW176025  10.950  11.980   5.540  1.6801  1.6323  0.6690
54682SOL    HW276026  10.853  12.065   5.620 -1.5675 -1.3156  0.0870
54683SOL     OW76027   8.491   0.691   6.868 -0.5234 -0.3374 -0.3404
54683SOL    HW176028   8.498   0.655   6.779 -0.0637 -1.6690  0.2070
54683SOL    HW276029   8.545   0.633   6.921  0.7222  1.5346  0.5151
54684SOL     OW76030   7.177  10.046  12.960  0.1128 -0.5505  0.0588
54684SOL    HW176031   7.232   9.978  12.999 -1.9295 -3.0871 -1.1534
54684SOL    HW276032   7.146  10.098  13.034  0.9563 -1.5520  1.1553
54685SOL     OW76033  10.321  10.464   1.720  0.2022  0.4060  0.0147
54685SOL    HW176034  10.299  10.456   1.627  0.8828 -1.2176 -0.0359
54685SOL    HW276035  10.293  10.552   1.743 -1.2853  0.3676 -1.3864
54686SOL     OW76036   8.255   8.211  10.327  0.5909  0.1866 -0.2148
54686SOL    HW176037   8.346   8.240  10.340  0.8323 -0.3040 -0.7476
54686SOL    HW276038   8.204   8.263  10.389  1.0030  1.7548 -1.1414
54687SOL     OW76039  13.311  10.868   9.360 -0.1278 -0.6832 -0.0345
54687SOL    HW176040  13.298  10.773   9.349 -3.3076 -0.2970 -0.3328
54687SOL    HW276041  13.291  10.884   9.452  0.5582 -0.2879  0.0509
54688SOL     OW76042   2.411  13.870   2.566  0.2278 -0.1346 -0.3610
54688SOL    HW176043   2.434  13.806   2.633 -1.0508  0.2083  0.4309
54688SOL    HW276044   2.364  13.819   2.499 -1.0893  0.0023  0.4303
54689SOL     OW76045  11.517  12.128  12.248 -0.3040 -0.2597 -0.9775
54689SOL    HW176046  11.547  12.108  12.160 -0.6653  0.9007 -1.3859
54689SOL    HW276047  11.540  12.051  12.300  3.5632  0.5640 -1.1725
54690SOL     OW76048  12.933  11.959   4.204 -0.0273 -0.6515  0.3358
54690SOL    HW176049  12.973  12.042   4.181  0.1943 -0.5590  1.0121
54690SOL    HW276050  12.964  11.942   4.293 -1.6247 -0.4827  0.9578
54691SOL     OW76051   5.630   5.315   5.197 -0.3547 -0.0510  0.3075
54691SOL    HW176052   5.550   5.336   5.149  0.2603 -0.7380 -1.0545
54691SOL    HW276053   5.684   5.394   5.189  0.1031 -0.4657 -0.9179
54692SOL     OW76054   5.229   5.030   4.497  0.1984  0.6726  0.0447
54692SOL    HW176055   5.137   5.054   4.510  0.3679  1.5282 -0.2251
54692SOL    HW276056   5.227   4.941   4.464 -0.5220  0.5834  0.3154
54693SOL     OW76057   6.323   6.615  11.829 -0.3819 -0.4586  0.3300
54693SOL    HW176058   6.377   6.693  11.816  0.8297 -1.1396  1.0590
54693SOL    HW276059   6.252   6.625  11.767  0.7837  0.2999 -0.9534
54694SOL     OW76060   5.204   7.180   1.732 -0.6939 -0.5469 -0.9310
54694SOL    HW176061   5.123   7.136   1.760 -0.9257 -0.2090 -1.0726
54694SOL    HW276062   5.269   7.152   1.797 -1.4307  0.9402  0.5343
54695SOL     OW76063   9.580  11.486   8.630 -0.2794 -0.4323 -0.0783
54695SOL    HW176064   9.648  11.441   8.579  0.7305  0.3139  0.5825
54695SOL    HW276065   9.576  11.574   8.593 -1.7079 -0.7826 -0.8523
54696SOL     OW76066   6.271   1.734   4.003 -0.1286 -0.3272 -0.2642
54696SOL    HW176067   6.258   1.666   3.937  0.1036 -1.0989  0.4696
54696SOL    HW276068   6.274   1.816   3.953 -0.9008 -0.7977 -1.1100
54697SOL     OW76069   8.055   8.663   0.174  0.0033 -0.2966 -0.3825
54697SOL    HW176070   8.009   8.691   0.254  1.7490  0.0952  0.5326
54697SOL    HW276071   7.985   8.641   0.113 -1.3976 -0.2812  1.1387
54698SOL     OW76072   9.676   1.599   8.933 -0.3405  0.0728  0.0028
54698SOL    HW176073   9.582   1.601   8.915 -0.4773  1.1586  0.8034
54698SOL    HW276074   9.683   1.612   9.028  0.7060  2.9047 -0.3728
54699SOL     OW76075   2.209   2.787   3.704  0.3557  0.0275 -0.1526
54699SOL    HW176076   2.273   2.719   3.684  0.1930 -0.9805  2.3234
54699SOL    HW276077   2.260   2.857   3.745  0.0812 -0.1301  0.4679
54700SOL     OW76078   7.128   4.530  11.474  0.0992 -0.2376 -0.4709
54700SOL    HW176079   7.167   4.469  11.411 -1.9802 -1.8110 -0.3475
54700SOL    HW276080   7.175   4.612  11.461  0.9974 -1.0418 -2.7560
54701SOL     OW76081  11.089   6.562   6.222 -0.2745 -0.5922 -0.4499
54701SOL    HW176082  11.042   6.645   6.220 -1.2866 -1.1555 -1.7763
54701SOL    HW276083  11.158   6.571   6.157 -0.0752 -0.6089 -0.2403
54702SOL     OW76084   9.558   0.962   5.492  0.1564 -0.1667  0.7103
54702SOL    HW176085   9.539   0.972   5.399  0.4316 -2.5533  0.3154
54702SOL    HW276086   9.494   1.019   5.536  1.2448  2.4758 -0.9134
54703SOL     OW76087   7.240   9.698   0.154 -0.0606 -0.1682  0.2638
54703SOL    HW176088   7.230   9.757   0.079  0.9314 -1.7963 -1.2254
54703SOL    HW276089   7.331   9.711   0.183 -0.7613  1.2669  1.9557
54704SOL     OW76090  10.158  12.882  11.982  0.1482 -0.0008 -0.4120
54704SOL    HW176091  10.069  12.849  11.979 -0.9219  2.5902 -0.1646
54704SOL    HW276092  10.148  12.977  11.977  2.8586  0.4157  0.4626
54705SOL     OW76093   0.043   1.991   5.066  0.3087  0.5397  0.3491
54705SOL    HW176094  -0.045   1.974   5.100  0.7061 -0.8255  0.7657
54705SOL    HW276095   0.097   1.922   5.104  1.6406  1.5578  0.3751
54706SOL     OW76096  11.345  13.591   2.061  0.2635 -0.0779  0.2760
54706SOL    HW176097  11.282  13.643   2.111  0.3733 -0.4814  0.8435
54706SOL    HW276098  11.429  13.605   2.105  0.4859  0.0633 -0.1785
54707SOL     OW76099   3.366   5.286   2.663  0.8352 -0.2824  0.0912
54707SOL    HW176100   3.354   5.373   2.701  2.0744 -0.6444  1.4111
54707SOL    HW276101   3.277   5.252   2.652  0.3527  0.9546  0.0052
54708SOL     OW76102   1.815   7.102   3.327 -0.3859  0.6093  0.1821
54708SOL    HW176103   1.832   7.147   3.244 -0.0487  0.7855  0.3450
54708SOL    HW276104   1.771   7.021   3.302  0.3360  0.3366 -0.2188
54709SOL     OW76105  12.621   4.782  13.362 -0.3020  0.2639 -0.0654
54709SOL    HW176106  12.578   4.707  13.322 -1.1401 -0.1527  1.5169
54709SOL    HW276107  12.568   4.858  13.337  0.8684  0.4685 -2.1403
54710SOL     OW76108   5.825   1.309   1.744  0.5924  0.4975 -0.7535
54710SOL    HW176109   5.763   1.371   1.705 -0.2644  0.1629  0.0152
54710SOL    HW276110   5.776   1.269   1.816  1.1767 -0.9525 -1.1241
54711SOL     OW76111   6.858   1.842   7.288  0.3490 -0.2993 -0.4610
54711SOL    HW176112   6.932   1.810   7.237  0.6616  0.9471 -0.8435
54711SOL    HW276113   6.784   1.788   7.260  0.5660  0.1761 -2.0819
54712SOL     OW76114   1.781   7.385  10.214 -0.2647 -0.1100 -0.7668
54712SOL    HW176115   1.861   7.332  10.208 -1.1621 -1.6536  0.1393
54712SOL    HW276116   1.788   7.430  10.299 -0.3303 -0.2112 -0.7073
54713SOL     OW76117  10.417   6.606   9.856 -0.1614 -0.2616 -0.2287
54713SOL    HW176118  10.422   6.690   9.901  1.0127 -0.4053 -0.0646
54713SOL    HW276119  10.376   6.627   9.771  0.3518  0.5231 -0.2978
54714SOL     OW76120  10.586   6.450   3.926 -0.5509 -0.3235  0.4951
54714SOL    HW176121  10.550   6.539   3.930 -1.2799 -0.6534  1.7206
54714SOL    HW276122  10.593   6.423   4.017  1.4171 -0.8579  0.2232
54715SOL     OW76123   2.592  12.434   2.947  0.1495  0.0008  0.1552
54715SOL    HW176124   2.638  12.456   3.028  0.2319  0.0818  0.0867
54715SOL    HW276125   2.531  12.506   2.933 -0.4965 -0.4505  0.6185
54716SOL     OW76126  11.791  12.114   8.394 -0.2789  0.3812 -0.2197
54716SOL    HW176127  11.812  12.024   8.417 -0.0636  0.2131 -1.0126
54716SOL    HW276128  11.702  12.110   8.358 -0.4916  0.5832  0.2785
54717SOL     OW76129   6.090   8.616   7.975 -0.1178 -0.6954 -0.0908
54717SOL    HW176130   6.014   8.622   7.916 -0.2465  0.8593  0.1911
54717SOL    HW276131   6.110   8.706   7.997  1.1527 -1.1525  0.7209
54718SOL     OW76132   3.152  13.425   3.632  0.1379  0.4912 -0.4513
54718SOL    HW176133   3.134  13.467   3.547  0.9522  0.0414 -0.8568
54718SOL    HW276134   3.110  13.339   3.625 -0.1532  0.6102 -0.2269
54719SOL     OW76135   0.329   8.230   2.997 -0.3921 -0.1215  0.4207
54719SOL    HW176136   0.340   8.222   3.092  0.0352 -2.1317  0.2447
54719SOL    HW276137   0.399   8.175   2.961 -2.3481 -1.8223 -0.9791
54720SOL     OW76138   7.727  13.516   9.834 -0.0916  0.0652 -0.6270
54720SOL    HW176139   7.807  13.540   9.789  0.0497  1.3648  0.2597
54720SOL    HW276140   7.683  13.455   9.774 -0.5009  2.6036 -3.1053
54721SOL     OW76141   0.952  11.236   0.459 -0.1967  0.6412  0.1423
54721SOL    HW176142   0.905  11.283   0.390 -0.0512  0.0109 -0.3964
54721SOL    HW276143   0.890  11.169   0.488 -0.3565  1.0767  0.8191
54722SOL     OW76144   4.675  13.537  11.765 -0.3270 -0.1488 -0.1074
54722SOL    HW176145   4.762  13.520  11.801  0.2103  0.5182 -1.0490
54722SOL    HW276146   4.633  13.594  11.830  0.9160  1.7004 -0.8357
54723SOL     OW76147   4.348  12.238   2.681  0.0782 -0.1656  0.1611
54723SOL    HW176148   4.325  12.240   2.588 -1.1669  1.5660  0.4380
54723SOL    HW276149   4.371  12.147   2.699 -0.8065 -0.7718 -1.5714
54724SOL     OW76150   4.182  13.523  12.470  0.4807 -0.2409 -0.2472
54724SOL    HW176151   4.245  13.474  12.416  2.1091  0.4541  0.9176
54724SOL    HW276152   4.148  13.458  12.531  0.6226 -0.4807 -0.4168
54725SOL     OW76153   6.259   0.130   0.628  0.1560  0.1803  0.0312
54725SOL    HW176154   6.300   0.215   0.619 -1.0985  0.8235  0.2017
54725SOL    HW276155   6.166   0.149   0.644  0.0300 -1.1886  1.1455
54726SOL     OW76156   8.530   3.064  13.848 -0.0450  0.0430  0.4954
54726SOL    HW176157   8.468   3.127  13.885 -0.8331 -0.1714 -0.4066
54726SOL    HW276158   8.547   3.096  13.759  1.4277  0.2873  0.8343
54727SOL     OW76159  11.671  13.554   3.145 -0.3809 -0.2864  0.0851
54727SOL    HW176160  11.707  13.569   3.232  0.5902 -0.9793 -0.1822
54727SOL    HW276161  11.653  13.642   3.111 -1.4938 -0.0385  1.2617
54728SOL     OW76162   8.930   1.823   3.903 -0.6367  0.2131  0.0826
54728SOL    HW176163   8.899   1.834   3.813 -0.1178 -3.3600 -0.6986
54728SOL    HW276164   9.020   1.855   3.901 -1.1301  1.6285 -0.2190
54729SOL     OW76165   6.837  11.522   6.985 -0.1498 -0.0270 -0.2256
54729SOL    HW176166   6.870  11.474   6.909 -0.9945  1.2150 -1.4255
54729SOL    HW276167   6.907  11.517   7.050  0.5092 -1.2789 -1.0018
54730SOL     OW76168   1.417   8.152  13.804  0.2393 -0.1660  0.0044
54730SOL    HW176169   1.346   8.134  13.743 -0.8393  1.2746  0.7457
54730SOL    HW276170   1.385   8.227  13.855  2.4833  0.8092  0.0681
54731SOL     OW76171   0.309   7.467   9.600 -0.1913 -0.4297  0.1168
54731SOL    HW176172   0.251   7.541   9.582  0.4015  0.0102  0.0236
54731SOL    HW276173   0.362   7.458   9.521 -0.1544 -0.8648  0.1848
54732SOL     OW76174   9.228   5.291   2.447  0.0775  0.2110 -0.2262
54732SOL    HW176175   9.249   5.250   2.531  0.1565  0.4262 -0.1407
54732SOL    HW276176   9.312   5.298   2.402  0.2510  1.3880  0.2589
54733SOL     OW76177  10.558   1.425   4.590  0.1227  0.1335  0.2811
54733SOL    HW176178  10.465   1.421   4.614  0.1304 -1.0969  0.1689
54733SOL    HW276179  10.558   1.460   4.501 -0.3734 -1.4210 -0.3677
54734SOL     OW76180   6.366   9.765   5.131  0.2173  0.4385 -0.4024
54734SOL    HW176181   6.455   9.773   5.164  0.3033 -0.8428 -0.2550
54734SOL    HW276182   6.346   9.851   5.095  2.2200  0.2615 -2.1639
54735SOL     OW76183  11.428   7.309  12.661  0.1050 -0.2885 -0.1755
54735SOL    HW176184  11.338   7.325  12.688 -0.6314 -0.9988 -2.0480
54735SOL    HW276185  11.464   7.252  12.730 -1.3991 -1.3245 -0.1907
54736SOL     OW76186   4.921   5.688   2.722  0.0193 -0.2646 -0.2493
54736SOL    HW176187   4.988   5.744   2.684  0.0834 -0.6747 -0.7448
54736SOL    HW276188   4.967   5.606   2.743  0.1655  0.1944  1.4009
54737SOL     OW76189  12.668   0.761   5.566 -0.0133  0.3264 -0.3265
54737SOL    HW176190  12.654   0.745   5.473  1.0179  0.3542 -0.5078
54737SOL    HW276191  12.620   0.841   5.585 -1.1052 -0.2573 -0.5811
54738SOL     OW76192  11.314   4.056   7.601 -0.0542  0.0334  0.2235
54738SOL    HW176193  11.292   4.095   7.516  0.6465  1.0976  0.5117
54738SOL    HW276194  11.365   4.124   7.646 -1.0244 -0.2352  1.7837
54739SOL     OW76195  11.812   3.105   2.263 -0.3799  0.3380 -0.1666
54739SOL    HW176196  11.746   3.175   2.261 -1.3887 -0.4743  2.0003
54739SOL    HW276197  11.840   3.101   2.354  2.8439  0.7171 -1.0212
54740SOL     OW76198   6.557  11.624   9.791  0.2764 -0.2032 -0.0687
54740SOL    HW176199   6.463  11.641   9.787  0.2928  0.0794  0.6810
54740SOL    HW276200   6.564  11.529   9.802  0.0842 -0.2398 -0.2588
54741SOL     OW76201   1.106   1.028   9.951 -0.3368  0.7777 -0.0953
54741SOL    HW176202   1.063   0.946   9.977  0.5107  0.3142 -0.1403
54741SOL    HW276203   1.178   1.001   9.895  0.4302  1.5094  0.5148
54742SOL     OW76204   6.492   4.211  11.381  0.1542 -0.5826 -0.8782
54742SOL    HW176205   6.397   4.202  11.375  0.1734 -1.3045 -0.2622
54742SOL    HW276206   6.522   4.215  11.290 -0.6842  2.4587 -1.1379
54743SOL     OW76207   7.563   4.101   2.122  0.6776  0.0864  0.0459
54743SOL    HW176208   7.489   4.136   2.172  2.4395  1.1649  2.0638
54743SOL    HW276209   7.567   4.157   2.044 -0.9658 -0.3942 -0.4336
54744SOL     OW76210   9.691   6.106   2.338  0.0854  0.0422 -0.1630
54744SOL    HW176211   9.724   6.175   2.280  0.7680  1.1143  1.4012
54744SOL    HW276212   9.740   6.119   2.420 -0.7612 -1.4600  0.6230
54745SOL     OW76213   6.635  13.625   9.494  0.9601  0.2169 -0.1421
54745SOL    HW176214   6.541  13.610   9.484  1.0029 -0.2560  0.0895
54745SOL    HW276215   6.672  13.537   9.498  1.7848  0.3075 -3.2879
54746SOL     OW76216   9.340   2.017   2.115  0.2724  0.3595 -0.2059
54746SOL    HW176217   9.284   2.014   2.192 -1.3242  1.4672 -1.2638
54746SOL    HW276218   9.428   2.035   2.149 -0.0061 -1.2072  1.4755
54747SOL     OW76219   6.102   7.907  13.354  0.7262  0.1787  0.0016
54747SOL    HW176220   6.071   7.962  13.425  0.5886  0.0090  0.0745
54747SOL    HW276221   6.085   7.817  13.384 -2.6640  0.1133 -1.7145
54748SOL     OW76222   9.767   0.655   1.291  0.7058 -0.3372  0.2934
54748SOL    HW176223   9.719   0.576   1.319  0.7050 -1.5003 -2.6382
54748SOL    HW276224   9.702   0.707   1.243  0.8797  1.1973  1.6397
54749SOL     OW76225   1.600   6.168   3.709  0.0971  0.3506  0.4125
54749SOL    HW176226   1.692   6.194   3.703 -0.0438  1.5440  2.6281
54749SOL    HW276227   1.603   6.078   3.741  0.4665 -0.4893 -1.7624
54750SOL     OW76228   1.668   9.900   9.642 -0.8393  0.0957 -0.1658
54750SOL    HW176229   1.745   9.870   9.592 -0.5165  1.3205 -0.4396
54750SOL    HW276230   1.658   9.835   9.711  1.0291  0.3773  0.4483
54751SOL     OW76231   0.768   4.105   9.984 -0.8335 -0.5427 -0.4450
54751SOL    HW176232   0.828   4.177   9.966  1.3596 -2.2441 -0.4448
54751SOL    HW276233   0.756   4.062   9.899  0.7747 -2.2093  0.1144
54752SOL     OW76234  10.960   0.364  10.982  0.3334 -0.6421  0.1052
54752SOL    HW176235  11.014   0.381  10.905 -0.5887  1.4088 -0.1650
54752SOL    HW276236  10.871   0.385  10.954 -0.0520 -0.0599  1.6355
54753SOL     OW76237   9.667   9.207   7.573  0.0121 -0.3929  0.0701
54753SOL    HW176238   9.646   9.247   7.658  0.3399 -3.0657  1.5315
54753SOL    HW276239   9.587   9.161   7.548 -0.0687  0.3456 -1.0895
54754SOL     OW76240  13.968   3.749   4.671 -0.7248 -0.0614 -0.1546
54754SOL    HW176241  14.012   3.679   4.718 -0.9692  0.2246  0.5182
54754SOL    HW276242  13.879   3.749   4.706 -0.6126  0.8483  0.1638
54755SOL     OW76243  12.988  12.594  10.025  0.2280  0.4193  0.0661
54755SOL    HW176244  12.982  12.539  10.104 -0.8589 -0.4105 -0.5605
54755SOL    HW276245  12.897  12.605   9.997  0.6502 -0.0122 -1.5489
54756SOL     OW76246   8.397  13.116  13.344  0.4992 -0.2780 -0.0944
54756SOL    HW176247   8.348  13.176  13.288 -0.1898  1.3513  2.0812
54756SOL    HW276248   8.336  13.093  13.414  1.7448 -1.0546  0.7866
54757SOL     OW76249   9.743   2.050   2.028 -0.0637  0.2288  0.1463
54757SOL    HW176250   9.785   2.016   2.107 -1.4170  0.1335  0.8681
54757SOL    HW276251   9.719   2.140   2.050 -0.3828  0.2287 -0.1761
54758SOL     OW76252   6.655  11.383   2.315  0.2928 -0.6913 -0.3907
54758SOL    HW176253   6.584  11.405   2.374 -0.3961 -2.5352 -0.4574
54758SOL    HW276254   6.726  11.355   2.372  1.0730  1.3072 -0.3170
54759SOL     OW76255   1.272  12.568   4.400  0.1824  0.2629  0.2717
54759SOL    HW176256   1.302  12.577   4.491 -0.5640 -0.3366  0.5813
54759SOL    HW276257   1.195  12.512   4.406  0.9046 -0.8950 -0.8770
54760SOL     OW76258   7.290   3.154   9.237  0.1506  0.4633 -0.2322
54760SOL    HW176259   7.274   3.209   9.161  2.3576  0.3802 -0.8312
54760SOL    HW276260   7.287   3.214   9.312  0.2944  0.9766 -0.6350
54761SOL     OW76261   7.578   9.738   9.931  0.0468 -0.0328 -0.2718
54761SOL    HW176262   7.551   9.647   9.939 -0.8627  0.2369 -0.1090
54761SOL    HW276263   7.512   9.778   9.873 -0.3436  0.8088  0.7071
54762SOL     OW76264  11.151   7.686   6.986 -0.5492  0.4834  0.1857
54762SOL    HW176265  11.157   7.777   6.958  0.1256  0.6789  0.9451
54762SOL    HW276266  11.219   7.676   7.052  0.0276 -0.8271 -0.5680
54763SOL     OW76267   5.844   1.498   7.298  0.4366 -0.3590  0.0746
54763SOL    HW176268   5.921   1.515   7.351  1.7610 -1.7108 -1.3096
54763SOL    HW276269   5.811   1.584   7.274  1.4325  0.2416  0.7944
54764SOL     OW76270  12.492  13.545   4.390  0.2832  0.2091  0.3801
54764SOL    HW176271  12.411  13.542   4.442  0.3225  0.0647  0.4346
54764SOL    HW276272  12.465  13.583   4.306  0.3566  1.0910  0.7486
54765SOL     OW76273   1.735   1.774   7.463  0.1496  0.5009  0.1612
54765SOL    HW176274   1.815   1.750   7.417 -1.4499 -1.5214 -1.8169
54765SOL    HW276275   1.747   1.866   7.486  2.9067  0.3237 -0.2714
54766SOL     OW76276   0.160  12.619  10.084 -0.0021 -0.0901 -0.3457
54766SOL    HW176277   0.138  12.701  10.039 -0.6637 -0.4384 -0.6676
54766SOL    HW276278   0.250  12.600  10.057 -0.1636  0.0534 -0.9852
54767SOL     OW76279   2.955   7.408  13.088 -0.0617  0.0975  0.4480
54767SOL    HW176280   2.933   7.342  13.154  0.7339 -0.2114  0.4210
54767SOL    HW276281   3.035   7.374  13.047  0.2436  0.9889  0.3015
54768SOL     OW76282  10.295  13.223  10.782  0.5065  0.7431  0.9872
54768SOL    HW176283  10.269  13.314  10.799  0.5440  0.8484  0.5077
54768SOL    HW276284  10.361  13.230  10.713 -1.4011  0.2100 -1.0163
54769SOL     OW76285   4.746   9.372   5.830 -0.1750  0.3572 -0.5110
54769SOL    HW176286   4.842   9.370   5.830 -0.1798 -1.6287 -0.6425
54769SOL    HW276287   4.720   9.290   5.872 -1.8518  1.6541  1.1731
54770SOL     OW76288  13.381  10.574   4.761  0.0404  0.0184 -0.6469
54770SOL    HW176289  13.469  10.563   4.726 -0.2295  0.4831 -1.5017
54770SOL    HW276290  13.392  10.626   4.841  0.7049 -1.3733  0.2074
54771SOL     OW76291  13.129   3.488   0.424  0.4230  0.3093 -0.0969
54771SOL    HW176292  13.198   3.475   0.489 -0.3605  1.2042  0.9419
54771SOL    HW276293  13.052   3.448   0.463  0.2673 -0.4223 -1.1224
54772SOL     OW76294   4.287   0.616   7.827 -0.3104  0.4508  0.2508
54772SOL    HW176295   4.375   0.651   7.810  0.6727 -1.2728  1.4835
54772SOL    HW276296   4.292   0.580   7.915 -2.1010 -0.2065  0.1228
54773SOL     OW76297   6.162   6.312   2.204  0.2389  0.7094  0.5545
54773SOL    HW176298   6.082   6.358   2.181 -1.1062 -1.0183  1.5837
54773SOL    HW276299   6.231   6.378   2.197 -1.2136  2.1652 -0.6044
54774SOL     OW76300   5.184   4.055  11.545  0.0626 -0.0705 -0.2984
54774SOL    HW176301   5.227   4.030  11.463 -1.3530 -1.8474 -0.5680
54774SOL    HW276302   5.255   4.086  11.601  1.2215  0.0897 -1.7974
54775SOL     OW76303   3.150  10.309   3.196  0.1699  0.0531  0.1694
54775SOL    HW176304   3.059  10.332   3.216  0.8172  1.0157  2.3038
54775SOL    HW276305   3.159  10.326   3.102 -1.7872  0.1170 -0.0469
54776SOL     OW76306   3.213   4.994   7.278  0.2381  0.2086 -0.4472
54776SOL    HW176307   3.205   4.912   7.230  0.2425  0.6097 -1.1616
54776SOL    HW276308   3.156   4.984   7.354 -0.4943 -0.1070 -1.0246
54777SOL     OW76309   3.289   0.613   4.358 -0.1680  0.5922 -0.2420
54777SOL    HW176310   3.368   0.620   4.413  1.3015  1.1888 -2.3146
54777SOL    HW276311   3.253   0.701   4.358  0.2758  0.7783 -0.8380
54778SOL     OW76312   7.724   6.009  13.868  0.2994 -0.6164  0.3322
54778SOL    HW176313   7.649   5.951  13.884  0.7415 -1.6398 -1.0280
54778SOL    HW276314   7.765   5.972  13.789  1.2848  0.8857  0.1133
54779SOL     OW76315   0.115   0.493   6.918  0.3555 -0.2086 -0.2923
54779SOL    HW176316   0.054   0.540   6.975  0.1582  1.6555 -1.9362
54779SOL    HW276317   0.073   0.492   6.833  1.4750 -1.2515 -0.8652
54780SOL     OW76318   6.101   8.857   9.296  0.3865  0.0736 -0.2444
54780SOL    HW176319   6.094   8.761   9.298  1.2974  0.0072  0.6898
54780SOL    HW276320   6.080   8.884   9.386  1.8841  0.5998 -0.0271
54781SOL     OW76321   4.899  12.921  11.834 -0.2250  0.2819 -0.4329
54781SOL    HW176322   4.947  12.854  11.883  0.4192  1.3581  0.4753
54781SOL    HW276323   4.808  12.891  11.835  0.0719 -0.6437 -0.1839
54782SOL     OW76324   4.589   2.949  10.599  0.0361  0.3886  0.0389
54782SOL    HW176325   4.622   2.914  10.682  1.0251 -0.3775 -0.6580
54782SOL    HW276326   4.500   2.914  10.592  0.1144  0.0789  0.5578
54783SOL     OW76327   6.453   8.148  12.783 -0.2645  0.0618 -0.5472
54783SOL    HW176328   6.380   8.210  12.790 -1.4731 -1.4400  1.1136
54783SOL    HW276329   6.465   8.115  12.872  2.8455  0.6223 -0.6608
54784SOL     OW76330  12.325   8.308   9.171  0.2638 -0.4473  0.3866
54784SOL    HW176331  12.377   8.309   9.091  0.3111  3.7276  0.2413
54784SOL    HW276332  12.389   8.309   9.242  0.3318  0.4074  0.3218
54785SOL     OW76333   8.906   4.941   4.042 -0.4777 -0.6802  0.1303
54785SOL    HW176334   8.860   5.017   4.079  0.4835  0.3007 -0.6289
54785SOL    HW276335   8.996   4.951   4.071 -0.4376 -1.8180  0.4237
54786SOL     OW76336  10.425   0.502   0.155 -0.0014 -0.0649 -0.0375
54786SOL    HW176337  10.367   0.565   0.113 -0.7358 -1.0357 -0.5275
54786SOL    HW276338  10.371   0.458   0.221 -0.2966 -1.9617 -1.4491
54787SOL     OW76339   2.406  11.259  11.688 -0.4994 -0.3425  0.3486
54787SOL    HW176340   2.326  11.252  11.741 -0.6909 -0.5293  0.0406
54787SOL    HW276341   2.412  11.351  11.665  0.8201  0.1928  2.5855
54788SOL     OW76342   4.078   8.653   0.989  0.3305  0.4546  0.2395
54788SOL    HW176343   4.132   8.712   1.042  2.0084 -0.7383 -0.0962
54788SOL    HW276344   4.104   8.672   0.898 -0.2488  0.2754  0.0319
54789SOL     OW76345   8.684   5.015   6.704 -0.0722  0.0904 -0.3861
54789SOL    HW176346   8.675   4.929   6.663  2.9779 -0.2029 -0.6934
54789SOL    HW276347   8.774   5.017   6.735 -0.2965  2.8971  0.3330
54790SOL     OW76348   0.189   7.395   4.429 -0.2839 -0.4749 -0.0044
54790SOL    HW176349   0.179   7.481   4.471 -0.9617 -0.6669  0.2457
54790SOL    HW276350   0.280   7.393   4.400  0.1481 -0.2357  1.2666
54791SOL     OW76351   2.846   2.264   2.139 -0.6618  0.0071 -0.8927
54791SOL    HW176352   2.765   2.217   2.158 -1.1981  1.5245  0.9074
54791SOL    HW276353   2.858   2.256   2.045 -2.6091 -0.6837 -1.1161
54792SOL     OW76354  10.582   4.281  10.653 -0.2065  0.1624 -0.0384
54792SOL    HW176355  10.526   4.284  10.576 -1.0542 -0.1189  0.5474
54792SOL    HW276356  10.537   4.222  10.713 -0.1252  1.1919  1.0915
54793SOL     OW76357  13.754   5.326   1.884  0.0303 -0.2499 -0.0334
54793SOL    HW176358  13.711   5.242   1.870  1.3815 -0.8275 -0.8954
54793SOL    HW276359  13.814   5.311   1.957  0.6754 -0.2013 -0.5444
54794SOL     OW76360   1.163  11.172  11.063  0.0643  0.1290 -0.3843
54794SOL    HW176361   1.198  11.139  11.145 -2.0967 -0.7386  0.2588
54794SOL    HW276362   1.218  11.133  10.996  0.5329 -0.8994  0.5734
54795SOL     OW76363   1.426  11.992   5.680 -0.3820  0.0793 -0.2467
54795SOL    HW176364   1.353  11.991   5.742  0.4533 -0.9044  0.7498
54795SOL    HW276365   1.503  12.006   5.734  0.7105 -3.6363 -0.6084
54796SOL     OW76366   7.656   6.913  11.412 -0.0860 -0.3503 -0.0044
54796SOL    HW176367   7.675   7.006  11.422  0.0948 -0.6349  4.0571
54796SOL    HW276368   7.564   6.909  11.386 -0.0500  0.9662 -0.3612
54797SOL     OW76369   4.440   2.272   4.108 -0.1693 -0.1296  0.7129
54797SOL    HW176370   4.515   2.305   4.059 -1.4191 -0.0802 -1.2877
54797SOL    HW276371   4.373   2.341   4.099 -1.9782 -2.0150 -1.4668
54798SOL     OW76372  12.949  12.510   0.758 -0.2438  0.3393 -0.6550
54798SOL    HW176373  12.894  12.432   0.756 -2.1594  1.6477 -1.8876
54798SOL    HW276374  12.976  12.523   0.667  0.1643  1.0593 -0.4391
54799SOL     OW76375  11.512   1.955   9.495  0.6057 -0.1487 -0.7489
54799SOL    HW176376  11.522   1.867   9.532 -1.5519  0.0391  0.4579
54799SOL    HW276377  11.437   1.947   9.436  2.2288  0.2492 -3.0132
54800SOL     OW76378   0.234   3.986   6.936 -0.9117 -0.0993  0.3285
54800SOL    HW176379   0.218   3.900   6.896  0.6574 -0.7957  1.1105
54800SOL    HW276380   0.149   4.012   6.972 -1.5589 -1.0177 -0.4872
54801SOL     OW76381   3.211  13.964   5.182  0.4514  0.0485 -0.6852
54801SOL    HW176382   3.257  14.047   5.177  1.5375 -0.3603  1.3861
54801SOL    HW276383   3.122  13.988   5.210  1.3238  0.4624  2.0247
54802SOL     OW76384   5.159   9.770   1.211  0.0890 -0.0681  0.0213
54802SOL    HW176385   5.211   9.750   1.133  1.5202  0.4964  0.7866
54802SOL    HW276386   5.075   9.728   1.195 -0.7467  2.4360 -3.1515
54803SOL     OW76387   4.474   5.734  12.835  0.0177 -0.4299 -0.1742
54803SOL    HW176388   4.489   5.817  12.881 -0.7881  0.6476 -1.7545
54803SOL    HW276389   4.554   5.720  12.784  1.0304 -1.7719  1.6604
54804SOL     OW76390  13.818   7.714  12.383 -0.0883  0.3165 -0.0318
54804SOL    HW176391  13.791   7.801  12.352  2.1828  0.8619 -0.6338
54804SOL    HW276392  13.772   7.653  12.325 -1.2796  1.0982  0.0358
54805SOL     OW76393   9.627   3.570   5.103 -0.0278 -0.1316  0.0348
54805SOL    HW176394   9.554   3.628   5.124 -0.1135  0.5057 -1.8383
54805SOL    HW276395   9.586   3.488   5.075  0.0596 -0.5741  1.1394
54806SOL     OW76396   4.690  12.580   9.956 -0.2550  0.1102 -0.2559
54806SOL    HW176397   4.599  12.590   9.926 -0.3225  1.5975  0.3462
54806SOL    HW276398   4.741  12.575   9.876 -0.6412  1.8943 -0.6593
54807SOL     OW76399   5.426   7.818   0.558 -0.3153 -0.2582  0.5175
54807SOL    HW176400   5.420   7.722   0.553  0.3835 -0.3835  1.7550
54807SOL    HW276401   5.515   7.838   0.531  0.5295 -0.2394  3.0641
54808SOL     OW76402   2.941  10.619   5.764 -0.1397  0.1523 -0.0164
54808SOL    HW176403   2.857  10.664   5.773 -0.2598  0.0179 -0.4236
54808SOL    HW276404   3.004  10.677   5.806 -0.5127  0.0069  0.7699
54809SOL     OW76405   2.487  12.918   8.992  0.0837 -0.6499 -0.2857
54809SOL    HW176406   2.408  12.958   9.027  0.6919  0.8050 -0.5087
54809SOL    HW276407   2.477  12.922   8.897 -0.7134 -2.8773 -0.3722
54810SOL     OW76408   6.616   5.061   9.228  0.5132 -0.3952 -0.4544
54810SOL    HW176409   6.691   5.105   9.266  1.3620 -0.1854 -2.2646
54810SOL    HW276410   6.639   5.050   9.136 -1.5890 -0.5235 -1.0104
54811SOL     OW76411   4.573  10.562   3.425 -0.1608 -0.5851 -0.1388
54811SOL    HW176412   4.498  10.575   3.366 -0.6522 -0.6562  0.4665
54811SOL    HW276413   4.587  10.648   3.465  0.4756 -0.4147 -0.6978
54812SOL     OW76414   6.811   8.133  13.676 -0.2309  0.7127 -0.1161
54812SOL    HW176415   6.894   8.149  13.630  0.3037 -2.4672 -0.4951
54812SOL    HW276416   6.766   8.069  13.620 -0.1931 -2.2416  2.9108
54813SOL     OW76417   1.579   0.480   5.232 -0.3057  0.3036 -0.7394
54813SOL    HW176418   1.575   0.534   5.312  0.1034 -1.6385  0.6663
54813SOL    HW276419   1.656   0.512   5.186 -0.1780  1.0555 -0.0412
54814SOL     OW76420   1.337  10.296  10.861 -0.4595 -0.6139  0.0400
54814SOL    HW176421   1.262  10.311  10.803 -0.1599  0.1408 -0.1628
54814SOL    HW276422   1.403  10.359  10.832 -0.0634 -0.6755  0.7769
54815SOL     OW76423   2.016  12.888   1.116  0.3543  0.2865 -0.5189
54815SOL    HW176424   2.016  12.792   1.122 -1.6197  0.1836 -1.3368
54815SOL    HW276425   2.073  12.907   1.041 -0.7820 -0.4045 -1.5934
54816SOL     OW76426   7.859   6.011   0.441  0.0699 -0.2523  0.1283
54816SOL    HW176427   7.835   5.929   0.484  0.9120 -0.1864  0.7511
54816SOL    HW276428   7.777   6.043   0.402 -0.3203 -1.2480  0.1066
54817SOL     OW76429  10.145   9.392  13.238  0.0758  0.0283 -0.2483
54817SOL    HW176430  10.225   9.435  13.268  1.4308 -1.6038 -1.3412
54817SOL    HW276431  10.108   9.352  13.317  0.1432  1.0186  0.3111
54818SOL     OW76432   7.386   8.925   3.109  0.1037  0.0812 -0.2662
54818SOL    HW176433   7.329   8.849   3.100  0.3288 -0.0240 -0.8099
54818SOL    HW276434   7.401   8.932   3.203 -0.7468  0.0690 -0.1188
54819SOL     OW76435   2.258   9.067   9.984  0.0822 -0.6603 -0.2080
54819SOL    HW176436   2.343   9.049  10.026  0.1383  2.0972  1.1193
54819SOL    HW276437   2.274   9.146   9.932 -1.6431 -0.0828  0.0792
54820SOL     OW76438   1.563   9.409   0.406  0.3461  0.1525  0.3661
54820SOL    HW176439   1.613   9.435   0.483  1.4805  0.2650 -0.3796
54820SOL    HW276440   1.502   9.481   0.391  0.5343  0.4038  0.7952
54821SOL     OW76441   1.735   2.027   0.998  0.1410 -0.1698  0.4671
54821SOL    HW176442   1.757   1.968   0.926  1.0600 -0.6662  1.1392
54821SOL    HW276443   1.649   2.061   0.975  0.8225  0.4641 -1.3735
54822SOL     OW76444  12.723   3.938   0.170  0.1993 -0.7270 -0.2767
54822SOL    HW176445  12.751   3.848   0.156 -0.6845 -1.5468  2.6431
54822SOL    HW276446  12.652   3.932   0.234 -0.1298  2.0339 -0.2575
54823SOL     OW76447   9.974   6.970   3.503 -0.1490 -0.4226  0.1510
54823SOL    HW176448  10.044   6.954   3.567  0.5175  0.9191 -0.1985
54823SOL    HW276449  10.020   6.994   3.422 -0.9873 -1.7099 -0.7416
54824SOL     OW76450  12.716   3.088   4.646 -0.4095 -0.3261  0.3363
54824SOL    HW176451  12.798   3.087   4.596  0.2224  0.3283  1.3131
54824SOL    HW276452  12.721   3.169   4.698 -1.6126 -0.3526  0.5225
54825SOL     OW76453   3.477   1.337  11.385 -0.0083  0.0812 -0.5480
54825SOL    HW176454   3.424   1.257  11.381  0.0742  0.0717 -1.7762
54825SOL    HW276455   3.560   1.312  11.345  0.8537  0.1786  1.0909
54826SOL     OW76456  14.014  13.185   4.668 -0.1030  0.1079 -0.1119
54826SOL    HW176457  13.934  13.236   4.673 -1.6998 -2.3036  1.3624
54826SOL    HW276458  13.995  13.115   4.605  0.9034 -0.3949  0.1078
54827SOL     OW76459   1.907   6.789  10.972 -0.0800  0.4047  0.0697
54827SOL    HW176460   1.871   6.852  10.910  1.4477  1.4882  0.2456
54827SOL    HW276461   1.991   6.763  10.935 -0.1370 -0.6151  0.6079
54828SOL     OW76462  11.113   2.481   0.781 -0.5162 -0.1612 -0.2256
54828SOL    HW176463  11.188   2.506   0.727 -0.2816  1.9027  0.9702
54828SOL    HW276464  11.046   2.547   0.762 -1.1367 -0.5411  0.5770
54829SOL     OW76465   3.076   1.679   6.340 -0.2508 -0.3086 -0.3281
54829SOL    HW176466   3.169   1.701   6.339  0.1879 -1.7989 -3.5150
54829SOL    HW276467   3.065   1.626   6.419  1.5035  0.1918  0.2965
54830SOL     OW76468   2.337   9.571  10.067 -0.0719 -0.4703  0.0592
54830SOL    HW176469   2.316   9.639  10.131 -0.1500  1.0534 -1.5307
54830SOL    HW276470   2.256   9.520  10.059 -0.7845  0.6963 -0.4355
54831SOL     OW76471  10.282   9.810   1.653 -0.0222  0.3210 -0.0331
54831SOL    HW176472  10.237   9.893   1.638 -0.2217  0.1612 -0.3112
54831SOL    HW276473  10.344   9.803   1.581  1.8909  1.5089  1.3939
54832SOL     OW76474  11.311  13.500   3.093 -0.7717 -0.6661  0.2338
54832SOL    HW176475  11.366  13.473   3.019  0.8126  1.3169  0.6025
54832SOL    HW276476  11.222  13.494   3.059 -0.1317 -0.5219 -1.6032
54833SOL     OW76477   4.891   9.392  12.671  0.7661  0.0912 -0.0401
54833SOL    HW176478   4.835   9.324  12.708  0.2806  0.1283 -0.6916
54833SOL    HW276479   4.867   9.471  12.719  1.4126 -0.2046  0.7980
54834SOL     OW76480   3.521   7.855   7.294  0.0853 -0.1363 -0.5367
54834SOL    HW176481   3.429   7.879   7.294  0.2290  0.4440  0.2405
54834SOL    HW276482   3.568   7.938   7.290  0.6599 -0.3863 -5.4122
54835SOL     OW76483   3.801  10.133   5.261  0.0156 -0.2390 -0.0436
54835SOL    HW176484   3.793  10.052   5.311  1.2909 -1.0764 -1.1131
54835SOL    HW276485   3.742  10.121   5.187  2.3970 -1.6127 -1.8838
54836SOL     OW76486   3.669  12.164  13.476 -0.5038 -0.3182  0.0627
54836SOL    HW176487   3.742  12.103  13.482  0.1147  0.3989  0.0691
54836SOL    HW276488   3.665  12.188  13.384 -1.3619 -1.0850 -0.1121
54837SOL     OW76489   6.112  10.941   7.131 -0.0001 -0.3172 -0.3805
54837SOL    HW176490   6.160  10.895   7.063  1.5556 -1.4536  1.3742
54837SOL    HW276491   6.169  11.014   7.156 -0.2862 -0.2378  0.0639
54838SOL     OW76492   5.305   6.892  11.064 -0.4940 -0.0117 -0.3901
54838SOL    HW176493   5.339   6.939  11.140  0.5852 -0.6623 -0.4375
54838SOL    HW276494   5.384   6.863  11.017 -1.1245 -1.1647 -0.7759
54839SOL     OW76495  11.879   4.860  10.673 -0.0956  0.2326 -0.7809
54839SOL    HW176496  11.854   4.922  10.741 -0.6261  0.1051 -0.8578
54839SOL    HW276497  11.832   4.890  10.595  1.0429  0.7914 -1.2776
54840SOL     OW76498   9.881   1.164  12.447  0.2693 -0.5322  0.1221
54840SOL    HW176499   9.845   1.125  12.527  0.7880 -0.1937  0.5320
54840SOL    HW276500   9.945   1.228  12.479  1.4197 -1.3016 -0.5824
54841SOL     OW76501   8.001  12.652  12.060 -0.4210 -0.7689 -0.6665
54841SOL    HW176502   7.959  12.734  12.034 -1.0836 -0.4886  1.0888
54841SOL    HW276503   7.998  12.597  11.982 -0.6587  0.5978 -1.6596
54842SOL     OW76504   2.452   7.266   1.383 -0.2634 -0.0354  0.1242
54842SOL    HW176505   2.513   7.231   1.448  0.1066 -0.2805 -0.3572
54842SOL    HW276506   2.406   7.189   1.349  0.3749 -0.0467 -0.7529
54843SOL     OW76507   0.061   5.588   4.860  0.0157  0.0147 -0.0057
54843SOL    HW176508   0.129   5.634   4.810 -0.9643  0.1623 -1.2643
54843SOL    HW276509  -0.021   5.628   4.831 -0.6433 -0.4592  1.1625
54844SOL     OW76510   5.500   7.471   2.526  0.2950  0.1517  0.3313
54844SOL    HW176511   5.576   7.466   2.467 -0.4050  0.8983 -0.6767
54844SOL    HW276512   5.425   7.479   2.467 -0.6672 -1.3153  1.2761
54845SOL     OW76513  13.443   7.687   1.931 -0.3763  0.2746  0.7546
54845SOL    HW176514  13.364   7.681   1.984 -0.6306  1.9192  0.6379
54845SOL    HW276515  13.419   7.747   1.860  0.4621 -0.5769 -0.2817
54846SOL     OW76516   7.645   8.199   8.418 -0.7397 -0.3671  0.0987
54846SOL    HW176517   7.700   8.198   8.340  1.4689  0.2151  1.5469
54846SOL    HW276518   7.686   8.135   8.477 -1.9007 -0.2530  1.0599
54847SOL     OW76519   3.398  11.746   8.167 -0.0074  0.2226 -0.2583
54847SOL    HW176520   3.308  11.757   8.136  0.1400 -0.5472 -0.9623
54847SOL    HW276521   3.388  11.728   8.261 -0.5384  0.9123 -0.1729
54848SOL     OW76522   7.772  13.532   3.561 -0.7095  0.4767  0.1571
54848SOL    HW176523   7.685  13.525   3.523 -0.9357 -0.4775  0.8188
54848SOL    HW276524   7.832  13.506   3.491 -1.0115  0.3566 -0.0570
54849SOL     OW76525   4.837   1.713   7.350  0.1940 -0.1232  0.6279
54849SOL    HW176526   4.786   1.786   7.384 -0.9094 -0.9783  0.8931
54849SOL    HW276527   4.895   1.752   7.285  0.1217  1.0777  1.2561
54850SOL     OW76528  12.019   6.822   6.097  0.1286 -0.3635 -0.5689
54850SOL    HW176529  11.989   6.876   6.024  0.9669  1.1474  0.1550
54850SOL    HW276530  12.018   6.882   6.172  0.4645 -1.5509  0.4074
54851SOL     OW76531   7.992   1.294   9.789  0.6009 -0.0900  0.4217
54851SOL    HW176532   8.032   1.247   9.716 -2.1627 -2.2950  0.1438
54851SOL    HW276533   7.927   1.233   9.823 -0.7533  2.2890  2.3792
54852SOL     OW76534  12.957   5.247   3.913  0.1494 -0.0014  0.2676
54852SOL    HW176535  12.932   5.156   3.926 -0.3613 -0.5468 -3.4794
54852SOL    HW276536  13.023   5.244   3.844  0.3306  2.4795  0.2513
54853SOL     OW76537   2.328   3.510   6.498  0.0549 -0.4304  0.4465
54853SOL    HW176538   2.333   3.425   6.456  1.6058 -0.3231  0.3573
54853SOL    HW276539   2.252   3.504   6.556 -2.7837 -0.2617 -2.9321
54854SOL     OW76540   0.889  13.207   9.200 -0.0239  0.4173 -0.5037
54854SOL    HW176541   0.916  13.299   9.208 -1.1185  0.7233  0.0600
54854SOL    HW276542   0.892  13.174   9.290  1.4155 -0.4430 -0.8400
54855SOL     OW76543   6.343   3.524  11.185 -0.1768  0.0823 -0.1244
54855SOL    HW176544   6.250   3.539  11.198 -0.4146 -1.1007 -0.3264
54855SOL    HW276545   6.349   3.433  11.156  1.0776  0.0087  0.2969
54856SOL     OW76546  11.191   1.636   6.956 -0.0269 -0.3814  0.2127
54856SOL    HW176547  11.195   1.605   6.865 -0.0858  0.4784 -0.0921
54856SOL    HW276548  11.107   1.682   6.962 -0.9871 -2.1622  1.2883
54857SOL     OW76549   2.654   0.507   3.603 -0.2594 -0.3087  0.2645
54857SOL    HW176550   2.669   0.588   3.554  0.2599 -0.2706  0.4846
54857SOL    HW276551   2.738   0.487   3.644 -0.5358 -0.6517  0.6759
54858SOL     OW76552   9.558  12.647  13.837  0.5103 -0.2376 -0.4705
54858SOL    HW176553   9.575  12.648  13.743  1.3800  0.0334 -0.3291
54858SOL    HW276554   9.578  12.737  13.866  2.4913 -0.8692  0.3106
54859SOL     OW76555   0.065  11.594   8.543 -0.0449 -0.2337  0.3455
54859SOL    HW176556   0.117  11.521   8.509 -0.1099  0.1578 -0.6328
54859SOL    HW276557   0.078  11.591   8.637  1.1512 -0.6054  0.1820
54860SOL     OW76558  11.983   5.714   3.788 -0.0671  0.7442  0.0845
54860SOL    HW176559  11.965   5.764   3.708  1.5502  0.4514 -0.5168
54860SOL    HW276560  11.964   5.623   3.763  0.5378  0.6407 -0.0056
54861SOL     OW76561   2.342  13.594  10.395  0.2439  0.3348 -0.0374
54861SOL    HW176562   2.274  13.592  10.327  0.5166 -0.9526 -0.2947
54861SOL    HW276563   2.372  13.685  10.396 -1.1902  0.8328 -0.2060
54862SOL     OW76564   2.813   4.059   1.194 -0.3988 -0.0370 -0.1559
54862SOL    HW176565   2.879   3.996   1.164 -0.8055 -0.5823  0.0649
54862SOL    HW276566   2.739   4.045   1.135 -0.5500  0.1296 -0.0044
54863SOL     OW76567  12.070   5.718  12.927  0.0671  0.6865 -0.1609
54863SOL    HW176568  11.983   5.727  12.966 -0.2830  2.1396 -1.1693
54863SOL    HW276569  12.103   5.808  12.922  0.9276  0.3368 -1.3012
54864SOL     OW76570   5.553   6.575   9.413 -0.0002  0.0451  0.3217
54864SOL    HW176571   5.644   6.602   9.416 -0.0214  0.4743 -1.6765
54864SOL    HW276572   5.555   6.484   9.385 -0.1815  0.1981 -0.2123
54865SOL     OW76573   5.057  11.485   3.774 -0.2292 -0.6022  0.2062
54865SOL    HW176574   5.118  11.535   3.827 -0.7490  0.5369 -0.2469
54865SOL    HW276575   5.027  11.415   3.832 -0.0267  0.0266  1.0825
54866SOL     OW76576  13.759   4.389   6.953 -0.2022  0.8935  0.1432
54866SOL    HW176577  13.728   4.463   7.005 -0.2448  1.3927 -0.5854
54866SOL    HW276578  13.841   4.419   6.915  1.5617 -0.6134  2.5082
54867SOL     OW76579   5.419   0.921   2.351 -0.5145  0.2278  0.2342
54867SOL    HW176580   5.393   0.888   2.265 -0.7440 -0.7483  0.6706
54867SOL    HW276581   5.340   0.912   2.405 -0.0837 -0.0986  0.8161
54868SOL     OW76582  12.997  11.693   6.133  0.0600  0.3130  0.0169
54868SOL    HW176583  12.983  11.733   6.219  0.1960 -0.0456  0.2091
54868SOL    HW276584  13.020  11.603   6.152  1.5970  0.6085 -0.3263
54869SOL     OW76585  12.237  13.364   5.855  0.4137  0.0449  0.2159
54869SOL    HW176586  12.275  13.278   5.834  2.7925  1.0096  0.2604
54869SOL    HW276587  12.285  13.393   5.932 -0.2721  1.4705  0.1261
54870SOL     OW76588   2.679  11.796   8.264 -0.7024 -0.0707  0.0591
54870SOL    HW176589   2.760  11.818   8.310 -1.2378  1.5164  0.3112
54870SOL    HW276590   2.657  11.708   8.294  0.8681 -0.4937  0.0447
54871SOL     OW76591  10.473   2.065  12.510  0.8033 -1.0071  0.3950
54871SOL    HW176592  10.425   2.084  12.591  1.5609 -1.2326  0.9076
54871SOL    HW276593  10.450   1.974  12.490 -0.3867 -0.5655 -0.3598
54872SOL     OW76594   0.921   3.867  12.891  0.1334  0.0327 -0.5394
54872SOL    HW176595   0.930   3.814  12.812 -2.8720 -0.1720 -0.8509
54872SOL    HW276596   0.893   3.953  12.860  0.2863  0.3770  0.2355
54873SOL     OW76597   3.091   9.791   4.520  0.0001  0.5820  0.6223
54873SOL    HW176598   3.037   9.856   4.474  0.4157  0.7493  0.3663
54873SOL    HW276599   3.028   9.733   4.562 -0.4649 -0.6898 -1.6587
54874SOL     OW76600   2.398   6.392  12.276 -0.3620 -0.4188 -0.2818
54874SOL    HW176601   2.328   6.327  12.286 -0.5165 -0.9129 -3.5713
54874SOL    HW276602   2.478   6.341  12.280 -0.2835 -0.2166  0.9696
54875SOL     OW76603   3.929  13.787  13.342  0.2294  0.0961 -0.0612
54875SOL    HW176604   3.942  13.879  13.319 -0.2523 -0.1781 -1.5506
54875SOL    HW276605   3.840  13.784  13.377  0.2873  0.2247  0.0954
54876SOL     OW76606  11.678   1.832   5.520  0.1398  0.1028 -0.2373
54876SOL    HW176607  11.717   1.757   5.476 -1.4576 -0.7523 -0.2924
54876SOL    HW276608  11.597   1.849   5.472 -0.9575  0.0224  1.4878
54877SOL     OW76609   3.767   3.957  10.896 -1.2575  0.3302  0.3014
54877SOL    HW176610   3.780   3.972  10.990 -1.0000  0.8371  0.1905
54877SOL    HW276611   3.706   4.026  10.869 -1.6139 -0.0327  0.1617
54878SOL     OW76612  13.930  13.475   4.103 -0.2397 -0.1653 -0.0908
54878SOL    HW176613  13.845  13.442   4.074 -0.3468 -0.8657  0.9690
54878SOL    HW276614  13.959  13.531   4.031 -1.6092  0.1201 -0.4589
54879SOL     OW76615   9.106   5.916   2.584  0.2965 -0.8700 -0.2033
54879SOL    HW176616   9.056   5.894   2.506 -0.1611  0.2585 -0.2416
54879SOL    HW276617   9.077   6.004   2.608  0.9028 -0.9375  0.8630
54880SOL     OW76618   9.049   2.220   9.563  0.0143 -0.0734 -0.2381
54880SOL    HW176619   9.137   2.183   9.574  0.3925  0.6064 -0.9043
54880SOL    HW276620   9.060   2.289   9.498 -1.0605 -0.1182 -0.4807
54881SOL     OW76621   6.511  13.943   6.403  0.2816 -0.4142 -0.4892
54881SOL    HW176622   6.420  13.973   6.399 -0.9084 -3.4925  0.1903
54881SOL    HW276623   6.563  14.022   6.415 -2.4497  1.3094  0.7492
54882SOL     OW76624   6.059   8.516   1.511  0.6946  0.3812  0.0246
54882SOL    HW176625   6.047   8.421   1.511 -1.2442  0.5774 -0.8036
54882SOL    HW276626   6.112   8.534   1.433  2.2309 -0.0953  0.9165
54883SOL     OW76627   8.384   8.763   9.281 -0.3030 -0.0134 -0.0350
54883SOL    HW176628   8.322   8.689   9.280 -1.8466  1.2103  0.0029
54883SOL    HW276629   8.394   8.783   9.374 -0.2077  0.0750 -0.0659
54884SOL     OW76630  12.346   5.012  13.939  0.5712 -0.1240  0.1113
54884SOL    HW176631  12.360   4.947  13.870 -0.6732 -0.1081 -0.1799
54884SOL    HW276632  12.272   4.978  13.988 -0.7564  1.5399 -0.6509
54885SOL     OW76633   7.404  12.003   4.423 -0.0028 -0.0893  0.0517
54885SOL    HW176634   7.371  11.920   4.456 -3.3191  0.7675 -0.6440
54885SOL    HW276635   7.350  12.069   4.466  0.0543  1.4431 -2.0401
54886SOL     OW76636   4.317  11.053  10.671 -0.9043  0.2297  0.6187
54886SOL    HW176637   4.282  11.015  10.751  0.6864 -1.9382  0.3594
54886SOL    HW276638   4.279  11.000  10.601  0.9727 -0.6772  0.2165
54887SOL     OW76639  13.358   0.408  13.531 -0.2307  0.2348 -0.2397
54887SOL    HW176640  13.342   0.503  13.532  0.3317  0.3369 -0.3688
54887SOL    HW276641  13.452   0.401  13.516 -0.3306 -0.3549 -0.5739
54888SOL     OW76642  12.257   2.133   8.195 -0.0226  0.5178 -0.3592
54888SOL    HW176643  12.263   2.070   8.123 -1.5452 -0.6633  0.4796
54888SOL    HW276644  12.321   2.201   8.173 -1.4467  0.9981 -3.5910
54889SOL     OW76645   2.118  12.260   9.829  0.3678  0.4043  0.0259
54889SOL    HW176646   2.050  12.233   9.767  0.0741  1.3112 -0.0656
54889SOL    HW276647   2.090  12.347   9.858  0.0920 -0.3211  2.0522
54890SOL     OW76648   1.919   5.869   7.168  0.0869 -0.2450  0.4040
54890SOL    HW176649   1.949   5.805   7.234  0.5574 -0.0096  0.4250
54890SOL    HW276650   1.999   5.892   7.120  0.2408  1.5408  1.4323
54891SOL     OW76651  11.367   5.366   7.804  0.6695 -0.6247  0.8136
54891SOL    HW176652  11.293   5.323   7.847 -1.1044  1.8396  0.3989
54891SOL    HW276653  11.335   5.453   7.782  2.8892 -0.3062 -1.6662
54892SOL     OW76654  10.984  10.535   9.310 -0.3326 -0.0422  0.1853
54892SOL    HW176655  10.899  10.559   9.347  0.3071  0.1108  1.6317
54892SOL    HW276656  11.027  10.619   9.292 -1.0986 -0.0830 -2.1445
54893SOL     OW76657   6.519   4.100  12.094  0.4618  0.2100 -0.3959
54893SOL    HW176658   6.593   4.041  12.079  1.7818  1.7733 -0.2570
54893SOL    HW276659   6.506   4.097  12.189  0.3363 -0.0540 -0.4188
54894SOL     OW76660   7.864   1.708  13.894  0.2572 -0.2646 -1.0307
54894SOL    HW176661   7.828   1.673  13.813 -1.4845 -0.6717 -0.1161
54894SOL    HW276662   7.815   1.665  13.963 -1.6227  3.4329  0.1898
54895SOL     OW76663  13.814   8.789  10.202 -0.1462 -0.1929  0.0009
54895SOL    HW176664  13.849   8.742  10.126 -1.6272  1.0181 -1.4805
54895SOL    HW276665  13.880   8.855  10.222  1.2076 -1.7857  1.1138
54896SOL     OW76666  10.212   3.995   4.983  0.3276 -0.0021 -0.2779
54896SOL    HW176667  10.303   4.020   5.002  0.2669  0.6458 -0.8198
54896SOL    HW276668  10.217   3.902   4.961  0.6887 -0.2784  0.8565
54897SOL     OW76669   6.276  13.185   0.741  0.3471  0.4015 -0.1256
54897SOL    HW176670   6.327  13.236   0.678 -0.8172  0.4552 -1.0533
54897SOL    HW276671   6.202  13.242   0.762 -0.6585 -0.6586 -0.7231
54898SOL     OW76672  13.859   0.350   6.392  0.1704  0.7105 -0.3400
54898SOL    HW176673  13.829   0.264   6.364  1.6534  0.1026 -0.1673
54898SOL    HW276674  13.950   0.336   6.419 -0.1786  1.8877  1.6932
54899SOL     OW76675  10.137  12.529  10.468  0.0936  0.4771 -0.1812
54899SOL    HW176676  10.106  12.547  10.379 -1.3807 -0.8302  0.0179
54899SOL    HW276677  10.228  12.559  10.469 -0.5089  2.5089 -1.4599
54900SOL     OW76678   3.004   5.877   0.286  0.1509 -0.0778  0.3216
54900SOL    HW176679   2.974   5.922   0.365  2.0966  1.9574 -0.0049
54900SOL    HW276680   3.014   5.785   0.313 -1.9280 -0.0101  1.5935
54901SOL     OW76681  13.386  12.520   6.613 -0.1915 -0.0283 -0.1318
54901SOL    HW176682  13.440  12.534   6.691  0.1944  1.8550 -0.6839
54901SOL    HW276683  13.325  12.594   6.613 -2.2507 -1.6216 -0.0116
54902SOL     OW76684   7.290   9.141  11.678 -0.2499  0.2277  0.5819
54902SOL    HW176685   7.375   9.108  11.648 -0.5184  2.2135 -2.9494
54902SOL    HW276686   7.233   9.065  11.677  0.3461 -0.2915 -2.1559
54903SOL     OW76687   2.754   2.627   9.015  0.0025  0.2291  0.1077
54903SOL    HW176688   2.720   2.596   8.931 -0.2062 -0.7033  0.5169
54903SOL    HW276689   2.676   2.649   9.066 -0.0065 -1.3468  0.8374
54904SOL     OW76690  10.202   1.112   5.968  0.0048  0.7673 -0.2468
54904SOL    HW176691  10.152   1.153   6.039  0.0708  1.7811 -0.7646
54904SOL    HW276692  10.171   1.022   5.966 -0.4694  0.8972  0.6462
54905SOL     OW76693  13.951   8.790   9.340  0.4969 -0.2024 -0.3147
54905SOL    HW176694  13.927   8.753   9.425  1.4816 -0.6862 -0.2376
54905SOL    HW276695  13.882   8.761   9.281 -0.0256 -0.1251  0.2516
54906SOL     OW76696   2.294  10.980   0.138 -0.5202  0.1547 -0.1052
54906SOL    HW176697   2.355  10.926   0.190  0.3618  0.6183 -0.6388
54906SOL    HW276698   2.265  11.048   0.199  2.3780  2.1732 -0.7562
54907SOL     OW76699   3.070  10.528  10.344  0.0796 -0.1086 -0.2669
54907SOL    HW176700   3.131  10.588  10.387  0.1050 -1.1239  1.2195
54907SOL    HW276701   2.996  10.583  10.319 -0.9763  0.2875  3.1473
54908SOL     OW76702   3.438   4.817   6.409  0.0624  0.5179 -0.2344
54908SOL    HW176703   3.463   4.810   6.501 -0.7790  0.8544  0.0369
54908SOL    HW276704   3.401   4.731   6.388  1.4213  0.0194 -0.6377
54909SOL     OW76705   2.749   7.677  11.856 -0.4152  0.5562  0.1095
54909SOL    HW176706   2.801   7.621  11.913  1.0814  1.0348 -0.7368
54909SOL    HW276707   2.704   7.616  11.797 -1.7216  0.0810  1.5310
54910SOL     OW76708   1.362   7.316   3.674  0.1696  0.2760  0.2839
54910SOL    HW176709   1.339   7.369   3.750  0.2086  0.2766  0.2947
54910SOL    HW276710   1.363   7.226   3.706  1.3892  0.3771  0.5647
54911SOL     OW76711  11.461   8.417  10.468  0.4615 -0.2255  0.4096
54911SOL    HW176712  11.523   8.426  10.540  1.4851  1.4079 -0.5998
54911SOL    HW276713  11.461   8.503  10.426 -1.5073 -0.5790 -0.4399
54912SOL     OW76714   3.115   2.280   0.054  0.3030  0.0408 -0.6710
54912SOL    HW176715   3.086   2.281  -0.037  0.5007  0.1203 -0.7341
54912SOL    HW276716   3.174   2.205   0.060  0.4178  0.1324 -0.6490
54913SOL     OW76717   6.416   0.864  10.270 -0.1829  0.2400 -0.3016
54913SOL    HW176718   6.473   0.872  10.347 -0.9364 -1.0010  0.4272
54913SOL    HW276719   6.466   0.809  10.209  0.1992  0.7912 -0.4916
54914SOL     OW76720  12.829  11.724  11.226  0.2690 -0.4693 -0.4254
54914SOL    HW176721  12.775  11.780  11.170 -1.2429 -0.9611  0.4663
54914SOL    HW276722  12.847  11.647  11.173  3.4290  1.2141 -2.1422
54915SOL     OW76723   6.917   1.033   4.864  0.0587  0.3977 -0.1844
54915SOL    HW176724   6.839   1.025   4.809 -0.7818 -1.3508  1.1817
54915SOL    HW276725   6.917   1.124   4.894 -0.9522  0.6444 -0.8972
54916SOL     OW76726  10.587   8.988  11.923  0.1231 -0.4003 -0.5729
54916SOL    HW176727  10.569   8.963  11.832 -1.6819  0.2841 -0.4520
54916SOL    HW276728  10.662   8.934  11.949 -1.3823 -3.0647 -1.4094
54917SOL     OW76729   6.258   4.617   7.790  0.0646 -0.2402 -0.1435
54917SOL    HW176730   6.286   4.697   7.746  2.0435 -0.8867 -0.1530
54917SOL    HW276731   6.179   4.590   7.743 -1.1970  2.1615  0.4565
54918SOL     OW76732   2.074   3.551   8.209  0.1544  0.2448  0.1635
54918SOL    HW176733   2.136   3.579   8.142  0.9292  1.1422  1.2077
54918SOL    HW276734   1.995   3.601   8.190  0.8509  1.6410  0.7647
54919SOL     OW76735   7.594   2.672  12.274  0.3017  0.2125  0.4859
54919SOL    HW176736   7.577   2.752  12.324  0.8461  0.1302  0.8044
54919SOL    HW276737   7.563   2.602  12.330  0.0901  0.1758  0.3261
54920SOL     OW76738  12.439   2.825   5.648 -0.1051  0.3470 -0.0531
54920SOL    HW176739  12.462   2.764   5.717  1.4568 -1.0463 -1.6843
54920SOL    HW276740  12.521   2.839   5.600 -0.9515  1.8379 -1.1818
54921SOL     OW76741   0.047   4.497   2.379 -0.4074  0.6662 -0.0823
54921SOL    HW176742   0.128   4.504   2.429 -1.3949  0.7837  1.5502
54921SOL    HW276743   0.062   4.551   2.301  0.6172  1.7063  0.8140
54922SOL     OW76744  10.686   3.133   4.843  0.0777 -0.3782 -0.1996
54922SOL    HW176745  10.682   3.164   4.933 -3.0192  1.3457 -0.7786
54922SOL    HW276746  10.772   3.161   4.811  0.5467  0.4858  1.7164
54923SOL     OW76747   4.839   6.554   9.783 -0.2473  0.1158 -0.5094
54923SOL    HW176748   4.784   6.569   9.860 -2.2150 -1.2134 -1.5697
54923SOL    HW276749   4.884   6.472   9.802 -0.6104 -0.1292 -0.7030
54924SOL     OW76750  13.840   0.268   0.537  0.5683  0.0079  0.2284
54924SOL    HW176751  13.835   0.317   0.619  1.3670  0.0696  0.2503
54924SOL    HW276752  13.749   0.245   0.517  0.3710 -0.1038  1.1862
54925SOL     OW76753   5.677  11.588   5.297 -0.3421  0.5923 -0.0489
54925SOL    HW176754   5.600  11.535   5.278 -0.5760  0.8941  0.0531
54925SOL    HW276755   5.750  11.527   5.289 -0.4407  0.6272 -1.6612
54926SOL     OW76756   6.868  13.835   8.236 -0.1272  0.3651 -0.3566
54926SOL    HW176757   6.798  13.890   8.201 -0.1437  1.4962  1.3216
54926SOL    HW276758   6.823  13.765   8.283 -0.1380  0.8363  0.3416
54927SOL     OW76759   9.868   9.876   3.217  0.1216  0.0720 -0.4102
54927SOL    HW176760   9.962   9.863   3.209 -0.0005 -1.6533  0.4203
54927SOL    HW276761   9.835   9.870   3.127  0.8878  1.7955 -0.8376
54928SOL     OW76762  10.413   2.958  12.155  0.1879 -0.4437 -0.4773
54928SOL    HW176763  10.380   3.045  12.134  0.2954 -0.1708  0.4423
54928SOL    HW276764  10.406   2.952  12.251 -1.7967 -2.2286 -0.6513
54929SOL     OW76765  13.336   5.351   6.072  0.3653 -0.2042 -0.0790
54929SOL    HW176766  13.318   5.376   6.163 -0.7984  1.2783 -0.6704
54929SOL    HW276767  13.253   5.365   6.026  1.0623 -0.4576 -1.4625
54930SOL     OW76768   1.818   3.110   2.839  0.5942 -0.0303  0.0407
54930SOL    HW176769   1.852   3.095   2.751 -0.2572  0.4062 -0.3787
54930SOL    HW276770   1.778   3.027   2.864 -1.5447  0.5754 -1.1035
54931SOL     OW76771   4.689   3.855   5.241  0.2990 -0.4814 -0.0401
54931SOL    HW176772   4.712   3.763   5.233 -2.1520 -1.1021 -0.9901
54931SOL    HW276773   4.606   3.855   5.289 -0.2164  1.1281 -0.8499
54932SOL     OW76774   7.905   6.025  10.443  0.4643 -0.0709  0.2470
54932SOL    HW176775   7.844   6.096  10.460 -0.3487 -0.8193  0.5439
54932SOL    HW276776   7.950   6.011  10.527  0.8364  0.2878  0.1080
54933SOL     OW76777   4.404   4.249  10.227  0.3983  0.2238 -0.0838
54933SOL    HW176778   4.375   4.157  10.231  0.9996  0.0272 -0.0810
54933SOL    HW276779   4.473   4.254  10.293  0.7210  0.5523 -0.4470
54934SOL     OW76780   2.446  13.763  13.907 -0.5592 -0.0875  0.3271
54934SOL    HW176781   2.372  13.809  13.946  0.9031  2.2800  0.4959
54934SOL    HW276782   2.507  13.749  13.980 -0.2508 -0.8246 -0.0583
54935SOL     OW76783  10.855   4.906   3.994 -0.3872 -0.1659  0.1179
54935SOL    HW176784  10.937   4.907   3.945 -1.3235 -1.8161 -1.6319
54935SOL    HW276785  10.823   4.996   3.990  0.8549  0.2868 -0.0152
54936SOL     OW76786   8.927   8.601  12.053  0.1646  0.1989 -0.1136
54936SOL    HW176787   8.907   8.585  12.145  1.4426 -1.2879 -0.0453
54936SOL    HW276788   8.950   8.694  12.049 -2.8877  1.1031  0.4350
54937SOL     OW76789   0.484   0.731  10.412  0.1738  0.0291  0.7686
54937SOL    HW176790   0.396   0.723  10.448 -0.7972  0.2069 -1.3714
54937SOL    HW276791   0.478   0.691  10.325  1.8742  1.1181  0.0864
54938SOL     OW76792   5.462   2.997   1.151 -0.0457  0.9665  0.1548
54938SOL    HW176793   5.531   2.941   1.115 -1.5423 -0.9810  0.1559
54938SOL    HW276794   5.392   2.936   1.176 -1.4490  2.7896  0.8916
54939SOL     OW76795  11.771   0.079   5.142 -0.3018 -0.6052 -0.5225
54939SOL    HW176796  11.691   0.133   5.143  0.1045  0.0291 -1.2418
54939SOL    HW276797  11.785   0.059   5.049  1.0779  0.3707 -0.5582
54940SOL     OW76798   2.494   0.567   0.736 -0.4093  0.0204 -0.9285
54940SOL    HW176799   2.453   0.484   0.713  0.3673  0.2330 -3.4257
54940SOL    HW276800   2.432   0.634   0.708 -1.8644  0.4039  2.7421
54941SOL     OW76801   1.686   2.400   9.574 -0.1610  0.1519  0.0529
54941SOL    HW176802   1.714   2.453   9.649 -0.8536  0.9839 -0.2576
54941SOL    HW276803   1.604   2.441   9.545 -0.2416 -0.5545 -0.7582
54942SOL     OW76804   2.341   2.522   6.085  0.4806  0.1545  0.6363
54942SOL    HW176805   2.372   2.611   6.070 -1.0917  0.4761 -1.0589
54942SOL    HW276806   2.258   2.533   6.131  0.4693 -0.4481  0.7693
54943SOL     OW76807  11.625   0.189   3.835  0.1289 -0.1356  0.2239
54943SOL    HW176808  11.610   0.228   3.921  0.4988 -0.0134  0.2354
54943SOL    HW276809  11.587   0.251   3.773  0.2970  0.0140  0.2703
54944SOL     OW76810   4.233  13.625  11.522 -0.5951  0.0026  0.3986
54944SOL    HW176811   4.290  13.554  11.553 -0.5714 -0.6152 -0.9965
54944SOL    HW276812   4.187  13.588  11.447 -0.4756  1.5124 -0.4572
54945SOL     OW76813   5.381  11.631   7.979  0.4642 -0.3368 -0.2874
54945SOL    HW176814   5.287  11.645   7.975  0.6453  0.9951 -0.4678
54945SOL    HW276815   5.392  11.536   7.977 -0.9584 -0.6097  1.8447
54946SOL     OW76816   6.967   7.467   6.099  0.1922 -0.2887 -0.3635
54946SOL    HW176817   6.973   7.437   6.008  0.2471  0.2869 -0.5563
54946SOL    HW276818   6.999   7.557   6.096  1.6133 -0.7541  0.4974
54947SOL     OW76819   3.857  10.810   5.583 -0.2065  0.5832  0.1149
54947SOL    HW176820   3.855  10.883   5.645  0.3138 -0.3285  1.2440
54947SOL    HW276821   3.929  10.831   5.524 -0.4599  1.2826  0.0471
54948SOL     OW76822   2.440  12.436   5.556  0.2537  0.4947 -0.1916
54948SOL    HW176823   2.485  12.476   5.482 -0.9741  1.0796 -0.6562
54948SOL    HW276824   2.419  12.510   5.613 -0.0068  0.2175  0.0765
54949SOL     OW76825   3.134   7.958   2.876  0.0296 -0.3864  0.4885
54949SOL    HW176826   3.161   7.869   2.854 -1.8063 -1.3577  1.8543
54949SOL    HW276827   3.216   8.008   2.877  0.9351 -1.6631 -1.8333
54950SOL     OW76828   9.512  12.746   2.143 -0.2010  0.4378  0.0764
54950SOL    HW176829   9.599  12.732   2.179 -0.9543 -2.0292  1.0869
54950SOL    HW276830   9.515  12.703   2.057 -0.0182  1.6707 -0.5618
54951SOL     OW76831   2.978   5.824  11.106 -0.6932  0.3218 -0.1435
54951SOL    HW176832   3.033   5.747  11.124  1.1662  0.7598 -3.2563
54951SOL    HW276833   3.012   5.892  11.164  0.2799 -0.1722 -0.1121
54952SOL     OW76834   5.306   6.889   3.250  0.0210  0.4147 -0.0282
54952SOL    HW176835   5.317   6.837   3.170  0.5431  1.1224 -0.4377
54952SOL    HW276836   5.386   6.941   3.255 -0.4129  1.0484  0.4568
54953SOL     OW76837  12.942   5.218  12.672  0.1219  0.2308 -0.3966
54953SOL    HW176838  12.970   5.246  12.760 -1.1817  0.4366 -0.0254
54953SOL    HW276839  12.979   5.285  12.614 -0.9462  1.4269  0.2480
54954SOL     OW76840  11.128   7.129  11.057 -0.2088  0.2133  0.2997
54954SOL    HW176841  11.061   7.186  11.094 -0.9289 -0.1919 -0.3458
54954SOL    HW276842  11.149   7.168  10.972  0.0650  0.1025  0.3149
54955SOL     OW76843  13.053  13.065   9.730  0.9192 -0.3176  0.4844
54955SOL    HW176844  12.983  13.091   9.669  0.9195  1.1973  1.0903
54955SOL    HW276845  13.080  12.979   9.699 -0.5568 -0.5248 -0.3536
54956SOL     OW76846   0.271  11.011   4.213 -0.3361 -0.0556  0.6497
54956SOL    HW176847   0.260  10.979   4.303  0.5058  0.7928  1.0869
54956SOL    HW276848   0.184  11.005   4.174 -1.0813  0.9713  2.0321
54957SOL     OW76849   1.190   8.477   4.714 -0.1125 -0.0931 -0.6710
54957SOL    HW176850   1.237   8.560   4.719  0.2475 -0.3602  2.1820
54957SOL    HW276851   1.099   8.501   4.694 -0.1185  1.0685  0.6139
54958SOL     OW76852   6.044   2.317   2.396 -0.0587 -0.1250  0.5205
54958SOL    HW176853   6.015   2.278   2.478  0.0840  0.4192  0.8315
54958SOL    HW276854   5.974   2.376   2.371 -0.7375 -1.3038 -0.4765
54959SOL     OW76855   4.611   5.338   5.881  0.2165 -0.6533  0.1392
54959SOL    HW176856   4.612   5.324   5.976 -0.6003 -2.2571 -0.0459
54959SOL    HW276857   4.683   5.285   5.849 -1.2460 -2.4815 -0.3446
54960SOL     OW76858   2.235   9.738   6.555 -0.1357 -0.1629  0.3631
54960SOL    HW176859   2.146   9.756   6.523 -0.6596  0.7563  2.2254
54960SOL    HW276860   2.224   9.718   6.647  1.4517 -1.6261  0.2758
54961SOL     OW76861  10.521   7.174   8.507 -0.2268  0.0322 -0.8503
54961SOL    HW176862  10.546   7.251   8.559 -0.7020 -0.4817  0.1565
54961SOL    HW276863  10.605   7.141   8.473  0.0878  0.3771 -0.4259
54962SOL     OW76864   1.297   9.961   7.921  1.6269  0.1286  0.0406
54962SOL    HW176865   1.240   9.892   7.887  0.2351  0.8598  0.7909
54962SOL    HW276866   1.272  10.039   7.871  0.2815  0.9867  1.9277
54963SOL     OW76867   3.512   8.500   9.317 -0.6154  0.4282  0.0875
54963SOL    HW176868   3.551   8.433   9.372 -0.5327  0.4040 -0.0014
54963SOL    HW276869   3.550   8.486   9.230 -1.4454 -0.1231 -0.1955
54964SOL     OW76870  13.672  12.050   5.328  0.0438 -0.6124 -0.6552
54964SOL    HW176871  13.736  12.006   5.272 -0.9566 -1.0960 -1.4387
54964SOL    HW276872  13.600  12.074   5.269 -0.6857 -0.4481  0.2783
54965SOL     OW76873  11.012  13.992   7.845 -0.2408  0.0538  0.0635
54965SOL    HW176874  11.070  13.918   7.826 -0.7501 -0.2897 -0.2236
54965SOL    HW276875  10.926  13.962   7.813 -0.3313  1.0110 -0.6386
54966SOL     OW76876   9.742  11.525   7.540 -0.1510  0.0602  0.4275
54966SOL    HW176877   9.646  11.524   7.545 -0.3509  0.0368 -2.0891
54966SOL    HW276878   9.760  11.553   7.451  2.2202 -0.2110  0.7736
54967SOL     OW76879   0.531   4.707  12.688 -0.0163 -0.2578  0.2913
54967SOL    HW176880   0.479   4.691  12.609  0.9988 -0.4911 -0.3447
54967SOL    HW276881   0.579   4.788  12.669 -0.6352  0.3361  1.1493
54968SOL     OW76882  13.086   6.979   3.806  0.2688 -0.1682  0.3066
54968SOL    HW176883  13.103   6.940   3.892  2.3210 -0.3841 -0.1538
54968SOL    HW276884  13.022   6.920   3.765  0.9825 -1.3276  0.8151
54969SOL     OW76885   2.229   9.306  12.805 -0.0318  0.0293 -0.3007
54969SOL    HW176886   2.264   9.218  12.790 -0.7301 -0.1886 -0.6714
54969SOL    HW276887   2.228   9.347  12.719  0.3245  0.4174 -0.1239
54970SOL     OW76888   1.487   3.222   0.214 -0.1669 -0.3896 -0.4493
54970SOL    HW176889   1.449   3.283   0.276 -0.6813 -0.0114 -1.1257
54970SOL    HW276890   1.528   3.277   0.147 -2.4818 -0.6979 -2.2385
54971SOL     OW76891   4.405   4.524  12.470 -0.4959  0.5024  0.4064
54971SOL    HW176892   4.337   4.564  12.524 -0.2019  1.1817  0.2883
54971SOL    HW276893   4.448   4.460  12.527 -1.2126  0.0890  0.4893
54972SOL     OW76894   8.265  11.931  10.167  0.0521  0.0734  0.6824
54972SOL    HW176895   8.303  11.903  10.084  0.0904 -0.2005  0.7884
54972SOL    HW276896   8.191  11.986  10.143 -0.1864 -0.3364  0.4618
54973SOL     OW76897   1.832  11.246  13.376  0.1395  0.3940  0.5757
54973SOL    HW176898   1.794  11.334  13.370 -0.0469  0.3154  0.5618
54973SOL    HW276899   1.907  11.248  13.317 -1.0564 -0.0546 -1.0518
54974SOL     OW76900   2.716  10.036  12.204 -0.0168 -0.1817 -0.2391
54974SOL    HW176901   2.650  10.043  12.134 -0.0301 -1.0618 -0.3186
54974SOL    HW276902   2.786   9.985  12.165  0.8992  1.0530 -0.2750
54975SOL     OW76903  14.005   7.183   1.573  0.2524  0.5943  0.7284
54975SOL    HW176904  13.924   7.220   1.609 -1.4495 -0.0595 -2.1472
54975SOL    HW276905  14.068   7.255   1.577 -1.6257  2.4296 -0.5253
54976SOL     OW76906   5.216  12.233   6.139 -0.2012 -0.4930 -0.4333
54976SOL    HW176907   5.126  12.265   6.144 -0.1314 -0.2165 -0.8504
54976SOL    HW276908   5.270  12.312   6.137  0.0664 -0.6600  0.0362
54977SOL     OW76909   6.109  11.382  11.267 -0.0052  0.6821 -0.1226
54977SOL    HW176910   6.200  11.354  11.277 -0.8869 -1.8532  1.9506
54977SOL    HW276911   6.098  11.449  11.335 -0.3639 -1.1603  1.7518
54978SOL     OW76912   1.458  12.535  13.638 -0.0071 -0.4169 -0.5361
54978SOL    HW176913   1.490  12.471  13.702 -1.0849  0.2111  0.6622
54978SOL    HW276914   1.379  12.572  13.677 -0.2774  0.5363 -1.9001
54979SOL     OW76915  13.203   8.630   3.855  0.6214 -0.1487 -0.3416
54979SOL    HW176916  13.254   8.594   3.783 -0.7280 -0.8635 -0.9763
54979SOL    HW276917  13.163   8.709   3.820  1.8486  0.8320  0.3879
54980SOL     OW76918   5.729  12.252   1.033  0.2610  0.0508 -0.0980
54980SOL    HW176919   5.757  12.188   0.968 -1.0031 -1.2750  0.6256
54980SOL    HW276920   5.776  12.228   1.112 -0.1986  0.0245  0.1697
54981SOL     OW76921   0.825   0.514   6.734  0.0292  0.0647 -0.6792
54981SOL    HW176922   0.769   0.592   6.734  1.0779  0.8537 -0.3185
54981SOL    HW276923   0.767   0.442   6.708 -0.5739  1.2325 -2.7857
54982SOL     OW76924   9.035   7.142  12.833 -0.6171  0.0082 -0.3316
54982SOL    HW176925   9.061   7.056  12.801  3.1200 -0.2913  2.7476
54982SOL    HW276926   9.012   7.128  12.925  0.7901  2.3061  0.4748
54983SOL     OW76927  13.636   6.670  11.630 -0.2162 -0.2094 -0.5384
54983SOL    HW176928  13.556   6.683  11.679 -0.0854 -0.2954 -0.3037
54983SOL    HW276929  13.692   6.744  11.655 -0.4317  0.1637 -1.1275
54984SOL     OW76930  13.118   2.448   0.660 -0.1670 -0.1802  0.0907
54984SOL    HW176931  13.080   2.459   0.572 -0.1631 -0.1884  0.0880
54984SOL    HW276932  13.164   2.364   0.656 -0.4305 -0.3305  0.1964
54985SOL     OW76933   7.469  10.516   4.528 -0.1470  0.3907 -0.0991
54985SOL    HW176934   7.469  10.506   4.433  2.4605  0.2068 -0.1501
54985SOL    HW276935   7.466  10.611   4.541  0.0851  0.4440 -0.4035
54986SOL     OW76936   3.330   8.287   7.903  0.5662  0.5239  0.0966
54986SOL    HW176937   3.255   8.264   7.957  0.7559 -1.3336 -0.3413
54986SOL    HW276938   3.373   8.358   7.949 -1.3117  1.4766  0.4749
54987SOL     OW76939  13.860   9.505   3.433 -0.6931 -0.2268 -0.0407
54987SOL    HW176940  13.832   9.498   3.341 -0.1623  1.3772 -0.3445
54987SOL    HW276941  13.939   9.451   3.437 -1.4571 -1.3997 -0.1780
54988SOL     OW76942   9.662   3.139   9.325  0.3035  0.4081  0.7481
54988SOL    HW176943   9.589   3.118   9.268  1.2163 -0.3040 -0.1946
54988SOL    HW276944   9.659   3.234   9.333 -1.0146  0.3551  1.1544
54989SOL     OW76945  10.794   6.524   6.449 -0.1139  0.2281 -0.1866
54989SOL    HW176946  10.842   6.466   6.508 -2.2329 -0.6197  0.8394
54989SOL    HW276947  10.832   6.509   6.363  0.7084 -1.1822  0.3978
54990SOL     OW76948   6.194   4.410  13.176  0.3211 -0.0388 -0.8034
54990SOL    HW176949   6.272   4.364  13.207  0.5649  0.9967  0.1736
54990SOL    HW276950   6.120   4.364  13.216  0.6359  1.4837  1.7664
54991SOL     OW76951   0.068   8.017   4.002 -0.0727 -0.4980  0.4135
54991SOL    HW176952   0.087   7.968   4.082  1.5611 -1.4669 -0.5041
54991SOL    HW276953   0.005   7.962   3.954 -1.9746  0.6386  1.5039
54992SOL     OW76954   0.501   4.492  10.419  0.0660  0.2392 -0.1159
54992SOL    HW176955   0.466   4.474  10.507  1.9989 -0.2902  0.5939
54992SOL    HW276956   0.484   4.585  10.405 -2.8775 -0.2345 -0.4616
54993SOL     OW76957  12.475   9.003  12.093 -0.4593  0.0051  0.0842
54993SOL    HW176958  12.527   9.050  12.158 -0.0422 -0.9691  0.4719
54993SOL    HW276959  12.462   8.916  12.131 -1.7297 -0.0172 -0.3482
54994SOL     OW76960   6.780  13.996   9.393 -0.1350 -0.5504  0.0114
54994SOL    HW176961   6.815  13.958   9.474  1.0844  1.8867  0.7033
54994SOL    HW276962   6.760  14.086   9.415  1.4567  0.5873 -2.7123
54995SOL     OW76963   2.521  12.293  12.427  0.4421 -0.4611 -0.6613
54995SOL    HW176964   2.467  12.299  12.348  1.3582  2.2392 -1.2004
54995SOL    HW276965   2.574  12.373  12.426 -0.0742  0.1081  3.1343
54996SOL     OW76966   4.244   3.522   2.401 -0.3721  0.9551 -0.4468
54996SOL    HW176967   4.176   3.544   2.465 -0.5886  2.2450 -1.0853
54996SOL    HW276968   4.205   3.545   2.317  0.1848 -0.0285 -0.9928
54997SOL     OW76969   9.311   5.016  13.453 -0.6867  0.7104  0.5666
54997SOL    HW176970   9.261   5.053  13.526 -0.0086 -0.0252  1.4321
54997SOL    HW276971   9.306   5.082  13.384 -2.0783  1.0368  0.9582
54998SOL     OW76972  10.447   1.322   6.595 -0.0374 -0.4391  0.1925
54998SOL    HW176973  10.370   1.291   6.644 -0.9469  3.1515  1.3812
54998SOL    HW276974  10.520   1.312   6.656 -0.5454  0.7329  1.0454
54999SOL     OW76975   2.468   0.333   3.203  0.2356  0.3526  0.2895
54999SOL    HW176976   2.476   0.282   3.122 -0.0290 -0.8457  0.9825
54999SOL    HW276977   2.516   0.414   3.186  0.7033 -0.1424 -0.8475
55000SOL     OW76978   4.289   7.225  13.466 -0.2559  0.2386 -0.0791
55000SOL    HW176979   4.370   7.276  13.469  0.7460 -1.2081 -1.0718
55000SOL    HW276980   4.264   7.214  13.557 -0.1188  1.8566  0.1866
55001SOL     OW76981  13.406   5.657   7.298 -0.5587 -0.3979 -0.6494
55001SOL    HW176982  13.436   5.661   7.389 -2.4178 -1.9566  0.1135
55001SOL    HW276983  13.314   5.682   7.302 -0.2276  1.3169 -2.4357
55002SOL     OW76984   5.824   3.078   7.964  0.0493 -0.4931  0.0547
55002SOL    HW176985   5.807   3.098   8.056 -1.3378 -0.9988 -0.0647
55002SOL    HW276986   5.742   3.039   7.932  0.1957  0.4879 -1.6344
55003SOL     OW76987  13.057  10.114   9.586  0.2029  0.1518  0.3407
55003SOL    HW176988  13.059  10.030   9.540 -0.3287 -0.4363  1.3620
55003SOL    HW276989  13.045  10.178   9.517  1.9746 -0.4693 -0.6164
55004SOL     OW76990   7.612  11.369  10.601  0.2020 -0.2151 -0.0618
55004SOL    HW176991   7.657  11.296  10.642  0.2927  1.1495  2.4985
55004SOL    HW276992   7.681  11.419  10.559  0.8586  0.6352  1.8889
55005SOL     OW76993   0.133  11.713   3.642 -0.1550 -0.8291 -0.7110
55005SOL    HW176994   0.208  11.735   3.697 -0.8229  1.4195 -0.6101
55005SOL    HW276995   0.057  11.729   3.697 -0.9250  3.1105 -2.6193
55006SOL     OW76996   5.821  13.639  11.916 -0.3555  0.8426  0.3823
55006SOL    HW176997   5.875  13.586  11.858  1.2742  1.8438  0.9144
55006SOL    HW276998   5.754  13.678  11.859  1.9502  2.8211 -1.1570
55007SOL     OW76999   3.903  12.434   7.002 -0.2822 -0.2310 -0.2127
55007SOL    HW177000   3.925  12.414   6.912 -1.8839 -2.0331 -0.2739
55007SOL    HW277001   3.982  12.414   7.052  0.1196 -0.7544 -1.0501
55008SOL     OW77002  10.256  14.021   8.506 -0.3692  0.1955  0.6383
55008SOL    HW177003  10.164  14.046   8.507 -0.8384 -1.4163  1.6703
55008SOL    HW277004  10.262  13.952   8.441  0.3923  1.1584 -0.3525
55009SOL     OW77005  12.602   5.218   3.872 -0.4766  0.1480 -0.1045
55009SOL    HW177006  12.652   5.171   3.939  1.5806  1.2986 -0.7534
55009SOL    HW277007  12.574   5.149   3.811  2.1072 -0.3986 -0.8177
55010SOL     OW77008   8.190   0.772  12.942 -0.0055 -0.1566 -0.1913
55010SOL    HW177009   8.170   0.729  12.859  0.2169 -0.4471 -0.0987
55010SOL    HW277010   8.193   0.865  12.921  2.0175 -0.3450 -0.9300
55011SOL     OW77011   5.861   6.879  11.837  0.2473  0.1869 -0.2760
55011SOL    HW177012   5.927   6.858  11.904  1.6765 -0.3957 -1.7939
55011SOL    HW277013   5.907   6.939  11.777 -0.6988  0.0134 -1.1993
55012SOL     OW77014  10.699   0.766  10.164 -0.3124 -0.5141 -0.1109
55012SOL    HW177015  10.616   0.801  10.132 -0.7530  0.9765  2.4064
55012SOL    HW277016  10.764   0.832  10.140 -0.0438 -1.0502 -0.9081
55013SOL     OW77017   0.389   9.811   4.845  0.4777  0.2119  0.0542
55013SOL    HW177018   0.476   9.771   4.837  0.6006  0.1163  1.5400
55013SOL    HW277019   0.402   9.882   4.909 -0.3534  0.7671 -0.3832
55014SOL     OW77020   1.293   5.554   4.822 -0.5378 -0.4025 -0.0024
55014SOL    HW177021   1.268   5.468   4.855 -0.1092 -0.4545  0.1854
55014SOL    HW277022   1.382   5.542   4.789  0.5437  0.5668  2.3666
55015SOL     OW77023   1.965   9.026   9.398  0.4218  0.4864 -0.2120
55015SOL    HW177024   2.008   8.944   9.375 -2.1506 -0.0545 -4.1860
55015SOL    HW277025   1.921   9.008   9.481 -1.1603 -2.7450 -1.5721
55016SOL     OW77026  12.637   1.872   5.684 -0.0982 -0.4413 -0.2143
55016SOL    HW177027  12.619   1.966   5.686  0.9505 -0.2381  0.6998
55016SOL    HW277028  12.685   1.859   5.602  1.7293  0.2296  0.7107
55017SOL     OW77029   8.923   2.516  11.819  0.0847 -0.0553 -0.1136
55017SOL    HW177030   8.871   2.513  11.899 -0.8376  1.5507 -0.6119
55017SOL    HW277031   8.859   2.513  11.748  0.5056  2.6520 -0.7505
55018SOL     OW77032   7.663   0.777  12.505  0.1751  0.7228  0.0824
55018SOL    HW177033   7.748   0.760  12.546  1.2025  3.3397 -0.7593
55018SOL    HW277034   7.658   0.713  12.434  1.5793  0.6667 -0.0108
55019SOL     OW77035   6.891   0.581  11.473  0.3053 -0.2123 -0.2587
55019SOL    HW177036   6.959   0.532  11.427  1.7183  0.0778  1.3911
55019SOL    HW277037   6.875   0.531  11.553  0.7361  1.2071  0.7696
55020SOL     OW77038  11.220   6.720   7.673  0.4788 -0.5063  0.0117
55020SOL    HW177039  11.139   6.771   7.669  0.1071 -1.0996 -0.1617
55020SOL    HW277040  11.228   6.682   7.585 -0.0037 -1.8774  0.5304
55021SOL     OW77041   0.256  13.526   3.898 -0.0934 -0.4149  0.4672
55021SOL    HW177042   0.191  13.545   3.831  0.0835 -0.8687  0.1590
55021SOL    HW277043   0.297  13.610   3.916 -1.8344  0.2073  1.8319
55022SOL     OW77044   2.148   7.324   3.658  0.3291  0.4234 -0.5078
55022SOL    HW177045   2.067   7.282   3.630  1.3178 -2.0180  0.0352
55022SOL    HW277046   2.208   7.309   3.585  0.7193  0.9136 -0.2905
55023SOL     OW77047   4.331  12.174   6.100 -0.1908 -0.0459  0.6671
55023SOL    HW177048   4.293  12.086   6.096  1.4246 -0.9007  2.5690
55023SOL    HW277049   4.327  12.197   6.193  2.1158  0.6220  0.6533
55024SOL     OW77050  12.877  10.342  10.424  0.1988 -0.5440  0.4793
55024SOL    HW177051  12.938  10.401  10.468  0.7680 -0.1778 -0.7594
55024SOL    HW277052  12.917  10.255  10.433  1.1252 -0.2514 -0.6684
55025SOL     OW77053   0.178   0.892   6.239 -0.0261 -0.6001 -0.1431
55025SOL    HW177054   0.196   0.822   6.177  0.1777 -1.4270  0.8261
55025SOL    HW277055   0.090   0.873   6.272  1.4373 -2.7345  3.0160
55026SOL     OW77056   5.672   1.203   3.548  0.2668  0.4844  0.4769
55026SOL    HW177057   5.669   1.109   3.564  0.8047 -0.2247 -2.8679
55026SOL    HW277058   5.580   1.230   3.549 -0.1894 -0.7670 -1.5673
55027SOL     OW77059  13.780   6.952  10.318 -0.7554 -0.3869  0.0933
55027SOL    HW177060  13.720   6.995  10.256 -0.5970 -3.0387 -2.0711
55027SOL    HW277061  13.863   6.999  10.308 -1.0979  0.0702 -0.6719
55028SOL     OW77062   2.328  10.634   3.303  0.0663  0.2843  0.3110
55028SOL    HW177063   2.249  10.580   3.297 -0.7471  1.4456  0.0546
55028SOL    HW277064   2.397  10.581   3.263 -0.8836 -0.2370 -0.6969
55029SOL     OW77065   7.659   0.491   5.027 -0.3620 -0.2826  0.3410
55029SOL    HW177066   7.740   0.468   4.982 -0.6292 -0.6797  0.0507
55029SOL    HW277067   7.594   0.498   4.957 -0.2802  1.4983  0.4038
55030SOL     OW77068   7.544   2.559   5.393 -0.0442 -0.6228 -0.6129
55030SOL    HW177069   7.475   2.546   5.459  0.3366 -2.6274 -0.5597
55030SOL    HW277070   7.597   2.630   5.429 -1.5354  0.3483 -0.2165
55031SOL     OW77071   5.141   5.016   7.902  0.1030  0.1236  0.5019
55031SOL    HW177072   5.206   5.082   7.880 -1.2041  1.7442  1.2817
55031SOL    HW277073   5.124   4.970   7.820 -0.8098  2.5046 -0.7482
55032SOL     OW77074   2.220  11.833   4.655  0.0602 -0.3891 -0.4274
55032SOL    HW177075   2.128  11.827   4.632  0.0517 -0.7579 -0.3082
55032SOL    HW277076   2.258  11.752   4.620  0.3368 -0.2404 -0.4754
55033SOL     OW77077  11.726   8.315  12.548  0.1306  0.1267 -0.0337
55033SOL    HW177078  11.794   8.379  12.571 -0.1233  0.2956  0.2527
55033SOL    HW277079  11.694   8.344  12.462  0.8286 -0.2966 -0.4413
55034SOL     OW77080   4.081   6.226   4.032  0.1623 -0.1345  0.5321
55034SOL    HW177081   4.119   6.167   3.967  2.0319 -0.0192  1.4700
55034SOL    HW277082   4.150   6.238   4.097 -0.9705  1.3249  1.5222
55035SOL     OW77083   9.276   9.222  10.368 -0.2684  0.6669  0.1865
55035SOL    HW177084   9.362   9.181  10.359 -0.2956  0.6124  0.1824
55035SOL    HW277085   9.230   9.168  10.432 -0.6322  0.1595 -0.4949
55036SOL     OW77086   1.840   1.646   3.117  0.4761  0.1323  0.3339
55036SOL    HW177087   1.863   1.731   3.080  1.8616 -0.4632 -0.2289
55036SOL    HW277088   1.751   1.629   3.085 -0.7034  2.2450  2.1083
55037SOL     OW77089  13.696   3.731  10.354  0.5540  0.1608  0.8128
55037SOL    HW177090  13.742   3.647  10.355  0.0789 -0.1098  2.4869
55037SOL    HW277091  13.717   3.770  10.439 -0.3917  1.0947  0.6291
55038SOL     OW77092   3.451  10.862   6.907 -0.7314  0.4548 -0.7971
55038SOL    HW177093   3.463  10.949   6.869  0.8474  0.6979  0.1842
55038SOL    HW277094   3.463  10.875   7.001  0.8585 -1.0319 -0.7517
55039SOL     OW77095  12.811   2.298   6.432 -0.0277 -0.5015 -0.0122
55039SOL    HW177096  12.856   2.243   6.368  2.2946  1.4981 -0.2372
55039SOL    HW277097  12.763   2.362   6.379  0.0384 -0.2259  0.2591
55040SOL     OW77098  10.202   1.682  13.802 -0.2822 -0.0485  0.3155
55040SOL    HW177099  10.276   1.742  13.796 -0.5495  0.1911 -0.6884
55040SOL    HW277100  10.240   1.595  13.788 -0.1745  0.0572 -0.0364
55041SOL     OW77101  11.913  13.184   4.218  0.3325  0.0702 -0.1941
55041SOL    HW177102  11.968  13.235   4.278  1.9180  0.1379 -1.6435
55041SOL    HW277103  11.824  13.216   4.235  0.6933 -0.0666  2.2321
55042SOL     OW77104  13.440   2.502   9.594 -0.6693  0.4218  0.2433
55042SOL    HW177105  13.497   2.429   9.570  0.3935  1.4973 -0.6211
55042SOL    HW277106  13.408   2.480   9.682 -0.8467 -1.3376 -0.2313
55043SOL     OW77107   6.525  13.951   9.563 -0.4070  0.7671 -0.0028
55043SOL    HW177108   6.484  13.945   9.477  1.0047 -0.9227 -0.6157
55043SOL    HW277109   6.605  13.899   9.556  0.5594  1.8864  1.8828
55044SOL     OW77110   8.342   1.951   3.692  0.3116 -0.1010  0.2534
55044SOL    HW177111   8.385   2.031   3.662  1.1801 -0.6351  0.0540
55044SOL    HW277112   8.308   1.910   3.613 -0.1066  0.0434  0.3523
55045SOL     OW77113  13.739  13.987   0.254  0.0837  0.1216 -0.2291
55045SOL    HW177114  13.698  13.997   0.168  0.5632  0.5568 -0.4094
55045SOL    HW277115  13.816  14.043   0.250 -0.0447  0.3643  0.5840
55046SOL     OW77116   0.518   3.446   0.081 -0.5306 -0.5056  0.4578
55046SOL    HW177117   0.595   3.420   0.032 -1.3174 -2.1629  0.0266
55046SOL    HW277118   0.552   3.474   0.166  0.7322  1.2737 -0.5506
55047SOL     OW77119  10.903  13.006   7.043 -0.3859  0.1435 -0.1207
55047SOL    HW177120  10.886  13.057   7.123  0.7282 -1.1168  0.9723
55047SOL    HW277121  10.997  12.986   7.047 -0.8491 -2.4157 -0.1909
55048SOL     OW77122   1.884   5.338   3.908  0.2941 -0.4143  0.3619
55048SOL    HW177123   1.901   5.253   3.867 -1.3122  0.0303 -1.3800
55048SOL    HW277124   1.965   5.387   3.895  0.3550 -0.8189 -1.0268
55049SOL     OW77125  10.308  12.067  13.811  0.1707 -0.2450  0.1961
55049SOL    HW177126  10.230  12.076  13.865  0.2722  0.4345  0.2392
55049SOL    HW277127  10.297  12.133  13.742 -0.0034 -1.1630 -0.6717
55050SOL     OW77128  10.439   0.731   6.795 -1.0615  1.2006  0.0019
55050SOL    HW177129  10.532   0.713   6.806 -1.5476 -2.5006 -0.8769
55050SOL    HW277130  10.436   0.815   6.747  1.9329  0.1510 -2.3001
55051SOL     OW77131  10.657   1.361   8.495  0.4911  0.3365  0.4102
55051SOL    HW177132  10.573   1.404   8.477  1.2510  1.2054 -1.3678
55051SOL    HW277133  10.635   1.269   8.507 -0.5340  0.1067 -2.4283
55052SOL     OW77134   1.087   4.531  13.159  0.3726 -0.0646 -0.5747
55052SOL    HW177135   0.995   4.558  13.153 -0.1371 -1.7133 -0.6616
55052SOL    HW277136   1.130   4.575  13.085 -0.7300 -0.6930 -1.6278
55053SOL     OW77137  12.332   2.114   6.422 -0.2772 -0.0819  0.2485
55053SOL    HW177138  12.284   2.187   6.381  0.8208  0.8627  0.5996
55053SOL    HW277139  12.270   2.078   6.485 -0.2840  1.6451  1.2961
55054SOL     OW77140   8.820   0.006   5.052  0.1953 -0.6321 -0.3213
55054SOL    HW177141   8.827   0.099   5.073  1.1067 -1.0552  1.4713
55054SOL    HW277142   8.764  -0.031   5.120  0.3378 -1.5095 -0.6569
55055SOL     OW77143   6.284   7.340  13.905 -0.2374  0.2306  0.2753
55055SOL    HW177144   6.335   7.410  13.944 -2.5977  2.7267 -0.8186
55055SOL    HW277145   6.296   7.266  13.964  2.7353  1.3551  1.2202
55056SOL     OW77146   1.362   1.702   9.463  0.2776  0.7981 -0.2641
55056SOL    HW177147   1.457   1.713   9.463  0.1767  2.0155 -1.7094
55056SOL    HW277148   1.329   1.776   9.514  0.0944  0.3459  0.2848
55057SOL     OW77149  10.928   1.284  13.120 -0.0532 -0.4460  0.2758
55057SOL    HW177150  10.834   1.271  13.127  0.1254 -2.2032 -0.0917
55057SOL    HW277151  10.942   1.309  13.028 -0.4787  3.6849  1.1568
55058SOL     OW77152   2.032   1.413   1.495  0.5163  0.1583  0.3308
55058SOL    HW177153   2.039   1.344   1.429 -2.6910  0.0024 -0.0203
55058SOL    HW277154   2.085   1.485   1.462  0.2772 -0.5102 -1.6039
55059SOL     OW77155   7.698   6.879  13.548 -0.0764  0.1953 -0.0187
55059SOL    HW177156   7.725   6.941  13.616 -0.7161  0.8926 -0.3871
55059SOL    HW277157   7.741   6.912  13.468 -1.4064  0.9116 -0.4699
55060SOL     OW77158  10.881   8.768   9.547 -0.0932  0.3711 -0.1290
55060SOL    HW177159  10.816   8.828   9.584 -0.8616 -0.1538 -0.6046
55060SOL    HW277160  10.897   8.704   9.616 -1.8890 -0.8934 -0.8344
55061SOL     OW77161  11.258  10.601  10.017  0.1244  0.4822 -0.4589
55061SOL    HW177162  11.304  10.644   9.944 -0.6967  0.1717 -1.1664
55061SOL    HW277163  11.264  10.665  10.089  2.9624 -0.1373 -0.0163
55062SOL     OW77164   7.006   4.400   0.324 -0.2840  0.5039 -0.5202
55062SOL    HW177165   6.996   4.476   0.267 -1.5729  1.7344  1.2786
55062SOL    HW277166   6.945   4.414   0.396 -0.2313 -2.0139  0.1340
55063SOL     OW77167  11.584   3.848   8.453 -0.1141 -0.3694 -0.1315
55063SOL    HW177168  11.555   3.758   8.438 -1.0639 -0.1277  0.1413
55063SOL    HW277169  11.600   3.883   8.366  1.5813 -1.1949 -0.1857
55064SOL     OW77170   9.705  13.255   3.065  0.4876 -0.2472  0.0673
55064SOL    HW177171   9.763  13.325   3.037 -0.1660  0.4713  0.4640
55064SOL    HW277172   9.618  13.281   3.032  0.2661 -0.9602  0.0603
55065SOL     OW77173   3.215  10.721  13.710  0.5203 -0.2686 -0.1857
55065SOL    HW177174   3.263  10.716  13.628  1.1928  1.9229  0.0210
55065SOL    HW277175   3.277  10.692  13.776  0.3329 -0.9893 -0.3212
55066SOL     OW77176   5.479   8.255  10.595 -0.5939  0.6967  0.1436
55066SOL    HW177177   5.414   8.198  10.634 -2.0196  2.2914  0.1953
55066SOL    HW277178   5.563   8.216  10.620 -1.4500  0.5897  3.1534
55067SOL     OW77179  11.922   3.166   1.832  0.8069  0.1108 -0.2740
55067SOL    HW177180  11.902   3.112   1.909 -0.0790  0.7713 -0.0295
55067SOL    HW277181  11.837   3.194   1.799  1.2376  1.5456 -0.2430
55068SOL     OW77182  12.707  12.089   5.729  0.2690  0.8137  0.1123
55068SOL    HW177183  12.651  12.044   5.666  0.0561 -2.1168  2.1881
55068SOL    HW277184  12.648  12.118   5.798  0.9549  0.1175  1.0220
55069SOL     OW77185   3.287   7.255  12.143  0.1433  0.3818  0.4259
55069SOL    HW177186   3.268   7.220  12.230 -0.1781  0.5757  0.4327
55069SOL    HW277187   3.232   7.333  12.136 -2.2397 -1.3124 -1.1665
55070SOL     OW77188  11.518   0.538   5.077 -0.3472 -0.4287  0.1682
55070SOL    HW177189  11.458   0.612   5.083 -1.0390 -1.0606  1.4230
55070SOL    HW277190  11.567   0.553   4.995 -1.7087  0.4639 -0.5131
55071SOL     OW77191   2.087   6.282   4.529  0.2885  0.0329  0.7803
55071SOL    HW177192   2.114   6.358   4.580 -1.7747  0.8491  0.7287
55071SOL    HW277193   2.041   6.319   4.454  1.4940 -1.2187 -0.6261
55072SOL     OW77194   8.939   8.049   7.260 -0.1282  0.0207 -0.6667
55072SOL    HW177195   8.922   8.096   7.179  1.9408  0.0181 -1.1597
55072SOL    HW277196   8.927   7.957   7.238 -0.2727  0.0656 -0.7764
55073SOL     OW77197   0.729   5.793   2.075 -0.3410 -0.2707 -0.4990
55073SOL    HW177198   0.675   5.863   2.037  0.2865 -0.1663 -1.2227
55073SOL    HW277199   0.666   5.732   2.112 -0.9346  0.1908 -0.7253
55074SOL     OW77200   5.679   2.851   8.175  0.1405  0.4455 -0.1710
55074SOL    HW177201   5.720   2.785   8.119 -1.9454 -0.9338 -0.1710
55074SOL    HW277202   5.706   2.827   8.264  1.5844  1.2673 -0.3573
55075SOL     OW77203   7.722  12.831  10.301 -0.3326  0.2557  0.2045
55075SOL    HW177204   7.689  12.749  10.335 -2.5301  0.6792 -0.7543
55075SOL    HW277205   7.768  12.871  10.374 -3.0646  0.1912  2.0925
55076SOL     OW77206   0.069   5.683   9.799 -0.2660 -0.2176 -0.0672
55076SOL    HW177207   0.150   5.661   9.753 -0.9851  0.1008 -1.5778
55076SOL    HW277208   0.031   5.598   9.823 -0.6060 -0.4800 -1.4377
55077SOL     OW77209   3.175   3.712   0.195 -0.1708 -0.0623 -0.4686
55077SOL    HW177210   3.142   3.751   0.114 -0.5990 -0.2776 -0.4038
55077SOL    HW277211   3.150   3.774   0.263 -1.1809 -0.6133 -0.3206
55078SOL     OW77212  12.458   6.016  13.672 -0.0939 -0.1764 -0.1813
55078SOL    HW177213  12.503   5.931  13.674 -1.5490 -0.9625  0.7509
55078SOL    HW277214  12.505   6.069  13.736 -0.2570 -0.8639  0.5205
55079SOL     OW77215  12.740   1.075   9.559  0.4095 -0.3317 -0.1594
55079SOL    HW177216  12.700   1.054   9.643  0.1496 -1.0563 -0.4529
55079SOL    HW277217  12.698   1.015   9.497 -1.5288  2.0622 -1.3624
55080SOL     OW77218   1.530   7.945   9.150 -0.0358 -0.6632 -0.5239
55080SOL    HW177219   1.532   8.041   9.158 -0.7164 -0.6543 -0.4037
55080SOL    HW277220   1.610   7.924   9.100 -0.3357  0.0453 -1.3331
55081SOL     OW77221   7.920  10.607   3.881 -0.4721 -0.1310  0.0859
55081SOL    HW177222   7.833  10.568   3.890 -0.3482  0.0558  3.7514
55081SOL    HW277223   7.929  10.664   3.958  2.5908  0.4897 -0.5821
55082SOL     OW77224   4.647  12.686   6.786  0.5660  0.1407  0.6347
55082SOL    HW177225   4.604  12.667   6.702  0.0234  0.2541  0.8849
55082SOL    HW277226   4.724  12.737   6.762  1.0387 -0.7951  0.1056
55083SOL     OW77227   3.155   9.704  13.484  0.7484  0.5107  0.5946
55083SOL    HW177228   3.064   9.734  13.478  0.1177 -0.9803  1.9468
55083SOL    HW277229   3.197   9.768  13.543  0.5007  1.0113  0.2369
55084SOL     OW77230  10.185   3.327   3.734  0.0325  0.2955  0.0628
55084SOL    HW177231  10.255   3.390   3.750  0.2267  0.1426 -0.1803
55084SOL    HW277232  10.107   3.381   3.722  0.2687  0.5142 -0.5356
55085SOL     OW77233   0.151  11.984   9.523 -0.8081 -0.6586  0.6961
55085SOL    HW177234   0.069  11.989   9.573 -1.1388  1.1217  0.0421
55085SOL    HW277235   0.219  12.005   9.587 -0.9182 -1.4321  1.0796
55086SOL     OW77236   4.889   4.694   2.949 -0.0386  0.4066  0.3027
55086SOL    HW177237   4.820   4.722   2.889 -0.0786  1.3282  0.7618
55086SOL    HW277238   4.957   4.658   2.892 -0.4358  0.4978 -0.2363
55087SOL     OW77239   0.418   6.256   9.874 -0.2251 -0.0481  0.4830
55087SOL    HW177240   0.403   6.249   9.968  0.4496  0.0265  0.6006
55087SOL    HW277241   0.444   6.168   9.848  0.9374  0.2493  0.6172
55088SOL     OW77242   6.027   4.015   7.006 -0.6563 -0.4728  0.9011
55088SOL    HW177243   6.105   3.988   7.055  0.9803  0.5581 -0.9648
55088SOL    HW277244   6.037   4.110   6.997 -1.6906 -0.4407 -0.1068
55089SOL     OW77245  12.761  11.232  12.253  0.0490 -0.1699 -0.0096
55089SOL    HW177246  12.680  11.258  12.297  0.5685  0.9162  0.3422
55089SOL    HW277247  12.733  11.202  12.166 -0.9228 -1.6784  0.7779
55090SOL     OW77248  13.911   3.498   2.751 -0.3178  0.0264  0.1124
55090SOL    HW177249  13.936   3.590   2.750 -0.9052  0.1885 -0.2571
55090SOL    HW277250  13.873   3.483   2.664  0.2645 -0.7059 -0.0282
55091SOL     OW77251   3.230   9.624   3.129  0.4987 -0.2201 -0.1273
55091SOL    HW177252   3.304   9.567   3.109 -0.8611 -1.6116 -1.4048
55091SOL    HW277253   3.172   9.617   3.053 -1.0142  0.7091  0.8800
55092SOL     OW77254   1.196   7.349  10.853  0.1968  0.9700 -0.9389
55092SOL    HW177255   1.150   7.390  10.780  1.0320 -1.6907 -3.1693
55092SOL    HW277256   1.288   7.353  10.828  0.3640 -1.5997 -1.0450
55093SOL     OW77257   2.945  13.794   6.305  0.4325  0.7786 -0.7398
55093SOL    HW177258   2.927  13.793   6.399 -1.7862 -2.5273 -0.9898
55093SOL    HW277259   3.040  13.791   6.298  0.6312 -0.8190  1.5194
55094SOL     OW77260   8.784  11.954   9.128  0.5475 -0.1598 -0.3806
55094SOL    HW177261   8.829  11.986   9.050  0.2274 -0.2748 -0.6146
55094SOL    HW277262   8.851  11.952   9.196  0.3335  2.2030 -0.0177
55095SOL     OW77263   6.116   3.678   3.701  0.3127 -0.1114  0.2941
55095SOL    HW177264   6.132   3.641   3.614  0.5369  2.8961 -1.0479
55095SOL    HW277265   6.196   3.656   3.750  0.7705 -0.6724 -0.6619
55096SOL     OW77266   2.682   6.120   9.051  0.2106 -0.2886  0.6648
55096SOL    HW177267   2.761   6.153   9.093 -0.5168  0.9308  1.1035
55096SOL    HW277268   2.702   6.028   9.033  2.0717  0.1942 -0.0724
55097SOL     OW77269  13.371   5.090   3.988 -0.0555  0.5983  0.0553
55097SOL    HW177270  13.373   5.121   3.897  1.0121 -0.1473 -0.1959
55097SOL    HW277271  13.280   5.064   4.002 -0.4979  1.8588 -0.3932
55098SOL     OW77272   5.958  12.437   6.068 -0.0377 -0.1944 -0.2232
55098SOL    HW177273   5.973  12.467   5.978 -1.3820 -1.2423 -0.8230
55098SOL    HW277274   6.041  12.397   6.094  0.7524  1.1564 -0.5382
55099SOL     OW77275   9.188   1.904   8.537  0.5513  1.1197 -0.5843
55099SOL    HW177276   9.277   1.895   8.503  0.5856 -0.8887 -0.1049
55099SOL    HW277277   9.199   1.943   8.624  1.1555 -0.4457  0.0918
55100SOL     OW77278   1.971  10.602  13.710 -0.3602 -0.1619  0.1420
55100SOL    HW177279   1.976  10.593  13.615  1.8812  1.7777 -0.0256
55100SOL    HW277280   2.041  10.546  13.743 -0.0965  0.3851  0.5240
55101SOL     OW77281   7.936   4.065   7.597  0.0603  0.6119 -0.5252
55101SOL    HW177282   8.000   4.135   7.607 -0.3854  1.0296 -0.5366
55101SOL    HW277283   7.855   4.111   7.573 -0.4710  0.1822  0.3985
55102SOL     OW77284   1.238   4.672   7.914  0.5772 -0.2364  0.0651
55102SOL    HW177285   1.300   4.737   7.948 -0.9426 -0.0221  2.7625
55102SOL    HW277286   1.271   4.588   7.947  0.1055 -0.2582  0.4960
55103SOL     OW77287   4.592  10.125  13.935 -0.2168  0.5174  0.5533
55103SOL    HW177288   4.508  10.087  13.909 -0.1487  1.1621 -0.6915
55103SOL    HW277289   4.570  10.215  13.962  0.2235  1.1885 -1.1839
55104SOL     OW77290   9.024   3.219   9.173  0.6650 -0.0935  0.0409
55104SOL    HW177291   8.936   3.184   9.166  0.6570 -0.0885  0.1283
55104SOL    HW277292   9.078   3.145   9.200  0.8449 -0.3231 -0.9134
55105SOL     OW77293   4.591   8.015  13.638 -0.0004  0.0318  0.2245
55105SOL    HW177294   4.665   8.075  13.627 -0.7485  1.0668  0.6890
55105SOL    HW277295   4.613   7.965  13.716 -0.2192  0.9982  0.9180
55106SOL     OW77296   2.062  11.380   6.292 -0.0340 -0.3652  0.3625
55106SOL    HW177297   2.112  11.299   6.299  1.9032  0.5801 -1.3105
55106SOL    HW277298   2.085  11.415   6.206 -0.9233  1.8623  0.9504
55107SOL     OW77299   4.528   5.936  12.595  0.3712 -0.0248  0.4026
55107SOL    HW177300   4.482   5.951  12.512  2.2992  0.9724 -0.5615
55107SOL    HW277301   4.586   5.862  12.576  3.1553  2.1622 -0.2733
55108SOL     OW77302  12.208  12.993   9.987  0.1749 -0.3600  0.1269
55108SOL    HW177303  12.211  12.899   9.967 -1.4083 -0.3889 -0.1423
55108SOL    HW277304  12.244  13.000  10.075 -0.3306 -1.3372  0.4298
55109SOL     OW77305  13.237   5.417   3.937  0.1082  0.0083 -0.0816
55109SOL    HW177306  13.277   5.337   3.970  1.7029  1.5573  1.9448
55109SOL    HW277307  13.243   5.409   3.841  0.2014 -2.2530  0.0588
55110SOL     OW77308  13.286   0.773   4.554 -0.6471  0.1472  0.5459
55110SOL    HW177309  13.337   0.695   4.574 -1.3262 -0.0896  1.3970
55110SOL    HW277310  13.352   0.841   4.536 -0.0571 -0.6247 -0.2964
55111SOL     OW77311   3.736   7.709   7.749 -0.0015  0.0454  0.2787
55111SOL    HW177312   3.832   7.710   7.750  0.0561  1.7111  2.9031
55111SOL    HW277313   3.713   7.739   7.661  1.9518  1.5987  0.2202
55112SOL     OW77314   6.966  12.945   6.646 -0.5591  0.1593  0.1946
55112SOL    HW177315   7.057  12.971   6.635 -0.2935 -0.1288  1.5601
55112SOL    HW277316   6.926  12.961   6.560  1.1092 -1.1229 -0.8933
55113SOL     OW77317   3.661  13.990   6.131 -0.3624 -0.0073 -0.6446
55113SOL    HW177318   3.698  14.042   6.059 -0.1168 -0.6935 -1.0321
55113SOL    HW277319   3.699  14.028   6.210  1.9646 -1.2324 -1.0748
55114SOL     OW77320  13.278  11.466  13.397 -0.5805 -0.1096 -0.1770
55114SOL    HW177321  13.327  11.394  13.438 -1.7476 -0.5476  0.4743
55114SOL    HW277322  13.186  11.443  13.408 -0.9831  1.3954 -0.1365
55115SOL     OW77323   6.958   3.161   8.476 -0.0591  0.1351 -0.4603
55115SOL    HW177324   6.997   3.241   8.440  1.4101  0.9396  2.5927
55115SOL    HW277325   7.026   3.095   8.467 -0.2856 -0.0825 -0.5823
55116SOL     OW77326  12.827   4.321   6.683  0.3343 -0.0127  0.4154
55116SOL    HW177327  12.765   4.329   6.611  0.6656  0.3269  0.1600
55116SOL    HW277328  12.860   4.410   6.696 -0.4510  0.1185  1.6475
55117SOL     OW77329  12.169   2.412   9.128 -0.0713 -0.2000  0.1912
55117SOL    HW177330  12.112   2.343   9.096 -1.6466  1.3108 -0.4016
55117SOL    HW277331  12.180   2.394   9.221  0.7643 -2.0406 -0.2279
55118SOL     OW77332   6.557   7.480   9.245 -0.0189 -0.0965  0.4415
55118SOL    HW177333   6.474   7.472   9.198  0.0924  1.7148 -0.1472
55118SOL    HW277334   6.532   7.483   9.337 -0.5291 -0.2808  0.3158
55119SOL     OW77335   0.544   0.614   7.015 -0.3457 -0.1658 -0.0919
55119SOL    HW177336   0.619   0.565   7.048 -0.2296 -0.2368 -0.4598
55119SOL    HW277337   0.486   0.548   6.978 -1.0607 -0.2216  1.0677
55120SOL     OW77338   9.361   5.597   0.345 -0.4092 -0.4697  0.2400
55120SOL    HW177339   9.269   5.569   0.351 -0.1154 -1.5310 -0.0253
55120SOL    HW277340   9.406   5.524   0.303  0.2855  0.6603 -1.0794
55121SOL     OW77341  10.800   3.232   8.081  0.0700 -0.1877  0.1590
55121SOL    HW177342  10.743   3.249   8.006 -0.8118  0.2601  0.9137
55121SOL    HW277343  10.863   3.167   8.049 -0.3830 -0.1139 -0.9197
55122SOL     OW77344   4.127   0.312   3.622 -0.2289  0.3625  0.5026
55122SOL    HW177345   4.039   0.290   3.593 -0.0867  1.7415 -1.1244
55122SOL    HW277346   4.181   0.237   3.597 -0.6515  0.2535 -0.0890
55123SOL     OW77347   3.870   3.342   3.178 -0.0173  0.1102 -0.7871
55123SOL    HW177348   3.843   3.265   3.229  1.8296 -0.2391 -0.2576
55123SOL    HW277349   3.812   3.412   3.209 -0.9459 -0.7763 -0.4256
55124SOL     OW77350   8.593   3.470  13.640  0.6463  0.8567  0.2326
55124SOL    HW177351   8.557   3.455  13.728 -0.5241 -0.0186 -0.3666
55124SOL    HW277352   8.651   3.396  13.625  2.4729  2.0528  1.0313
55125SOL     OW77353  12.690  13.435   3.631 -0.0085 -0.5112  0.1934
55125SOL    HW177354  12.715  13.460   3.542  0.3109 -0.2368  0.3594
55125SOL    HW277355  12.753  13.479   3.688  0.1604 -1.1607  0.5272
55126SOL     OW77356  10.138   5.946  13.946  0.4053  0.3223 -0.7565
55126SOL    HW177357  10.088   5.908  13.874 -1.6175  0.8287  0.3228
55126SOL    HW277358  10.117   6.040  13.943  2.2857  0.7759 -1.0084
55127SOL     OW77359   6.674   3.871  11.994 -0.1267  0.5907  0.1071
55127SOL    HW177360   6.720   3.933  11.938 -0.0212  1.6953  1.3798
55127SOL    HW277361   6.592   3.852  11.947  0.5567  0.4206 -1.0516
55128SOL     OW77362   0.726   2.940   9.791  0.0340 -0.3463  0.3784
55128SOL    HW177363   0.759   2.901   9.872 -1.3168 -2.3099  0.0258
55128SOL    HW277364   0.634   2.957   9.808 -0.7018 -2.3807 -1.2628
55129SOL     OW77365  13.668   1.648  10.065 -0.3303  0.4270 -0.0592
55129SOL    HW177366  13.575   1.631  10.078 -0.8263  2.2660 -0.8512
55129SOL    HW277367  13.672   1.740  10.039  1.7581  0.5056  0.3858
55130SOL     OW77368   1.286   3.126   4.111 -0.5952 -0.3244  0.8848
55130SOL    HW177369   1.296   3.201   4.169  0.2339  0.0316  0.2978
55130SOL    HW277370   1.376   3.098   4.092 -0.5469  2.0084 -3.3539
55131SOL     OW77371   4.201   2.106   1.428 -0.1040 -0.2692 -0.2302
55131SOL    HW177372   4.282   2.094   1.477 -1.5790 -2.4282  1.8558
55131SOL    HW277373   4.163   2.186   1.464 -0.0805 -0.6089  0.5633
55132SOL     OW77374  13.243   3.731  10.270 -0.4100 -0.9047  0.8025
55132SOL    HW177375  13.152   3.748  10.296 -0.3194  0.9658  0.0613
55132SOL    HW277376  13.284   3.817  10.271  0.0918 -0.8914 -3.6638
55133SOL     OW77377   1.697   1.485  11.450  0.4944 -0.0768  0.2412
55133SOL    HW177378   1.615   1.524  11.421  0.8037 -0.0108 -0.5781
55133SOL    HW277379   1.671   1.404  11.493  0.0465 -0.5808 -0.9124
55134SOL     OW77380   3.884   7.969   1.447  0.3602 -0.3581  0.3646
55134SOL    HW177381   3.969   8.013   1.445 -0.1820  0.7115 -0.0255
55134SOL    HW277382   3.905   7.875   1.443  1.4682 -0.1126 -3.4219
55135SOL     OW77383   1.650   1.821   8.066  0.6061  0.2296  0.0551
55135SOL    HW177384   1.687   1.737   8.037  1.2191  0.3030  0.5843
55135SOL    HW277385   1.708   1.887   8.028  0.0277  0.4286 -0.4993
55136SOL     OW77386   9.981  13.636  11.980  0.5344  0.1274  0.6007
55136SOL    HW177387  10.009  13.548  11.954  1.9467  0.5409  0.6762
55136SOL    HW277388   9.980  13.686  11.898  0.5260  0.2483  0.6744
55137SOL     OW77389  13.535   8.184  13.853  0.7277  0.8018  0.1609
55137SOL    HW177390  13.574   8.108  13.897 -3.0101 -0.4393  1.7296
55137SOL    HW277391  13.534   8.252  13.921  0.9687  1.1153 -0.1494
55138SOL     OW77392  13.877   6.873   8.909  0.4819  0.5720  0.3179
55138SOL    HW177393  13.852   6.956   8.866 -1.6070  0.2799  0.8664
55138SOL    HW277394  13.932   6.829   8.844  1.1765  2.1371 -0.2104
55139SOL     OW77395   0.207  10.094  11.667 -0.4918  0.2849 -0.3056
55139SOL    HW177396   0.155  10.055  11.596 -0.9893 -0.6631  0.5540
55139SOL    HW277397   0.233  10.180  11.633 -0.5980 -0.2016 -1.6857
55140SOL     OW77398   0.630   8.749   0.072 -0.0718 -0.0240 -0.1924
55140SOL    HW177399   0.556   8.807   0.051  1.4406  1.9856 -0.2778
55140SOL    HW277400   0.688   8.757  -0.004  2.1146  1.6901  1.5392
55141SOL     OW77401  10.353   6.897   6.337 -0.0163  0.1138  0.3726
55141SOL    HW177402  10.425   6.847   6.378 -0.8634 -0.0539  1.7184
55141SOL    HW277403  10.340   6.854   6.253  0.1186 -1.1554  0.9729
55142SOL     OW77404   8.955   1.481   5.914 -0.4156 -0.2716 -0.3871
55142SOL    HW177405   9.014   1.546   5.951  0.5906 -1.5982  0.4578
55142SOL    HW277406   9.001   1.398   5.926 -2.9415 -1.5263  1.4164
55143SOL     OW77407   4.340   8.222   9.007 -0.3209 -0.1216 -0.6733
55143SOL    HW177408   4.272   8.187   8.950  0.9432 -1.1480 -1.6024
55143SOL    HW277409   4.338   8.316   8.992 -2.0029 -0.0355 -0.1236
55144SOL     OW77410   2.609   9.947   2.505  0.1867 -0.0584  0.3140
55144SOL    HW177411   2.673  10.018   2.506  1.4685 -1.1559  0.2568
55144SOL    HW277412   2.524   9.990   2.518  1.0916  1.2825  2.1878
55145SOL     OW77413   6.390   5.232   2.865  0.0835  0.3779 -0.0677
55145SOL    HW177414   6.439   5.255   2.944 -0.0581  1.1010 -0.1831
55145SOL    HW277415   6.415   5.298   2.801 -2.5552  2.0571  0.4641
55146SOL     OW77416   6.928  12.253  10.668  0.1343 -0.2241 -0.4864
55146SOL    HW177417   6.857  12.222  10.612  0.0129  1.7442 -1.5274
55146SOL    HW277418   6.883  12.296  10.741  0.2511 -0.3058 -0.3683
55147SOL     OW77419  11.846   5.660  10.745 -0.1402  0.5008  0.3471
55147SOL    HW177420  11.807   5.712  10.675  1.5172  0.8528 -0.3631
55147SOL    HW277421  11.771   5.620  10.790 -1.2540  0.4270 -1.4791
55148SOL     OW77422   4.009   4.809   8.246 -0.1098 -0.7692  0.1049
55148SOL    HW177423   4.019   4.847   8.159 -0.5874 -1.8136 -0.4199
55148SOL    HW277424   3.990   4.884   8.303  2.4590  0.2281 -0.2414
55149SOL     OW77425   2.944  12.237  10.262 -0.5250 -0.3767  0.3445
55149SOL    HW177426   2.964  12.152  10.301 -0.1149 -0.2423  0.4388
55149SOL    HW277427   2.974  12.301  10.327 -0.4096 -0.1586  0.0822
55150SOL     OW77428   4.710   3.562  10.544  0.2117 -0.8069 -0.5870
55150SOL    HW177429   4.721   3.473  10.512 -0.8805 -1.4608  0.7592
55150SOL    HW277430   4.796   3.586  10.579  0.5052 -1.3246 -0.9398
55151SOL     OW77431   2.064  12.180   0.350  0.0232 -0.2932  0.1315
55151SOL    HW177432   2.041  12.126   0.426 -0.5630 -1.0287 -0.5497
55151SOL    HW277433   2.108  12.257   0.388  0.6978 -1.1377  1.1373
55152SOL     OW77434  10.283   4.308   1.012  0.0281 -0.4812  0.0272
55152SOL    HW177435  10.193   4.314   0.979 -0.0890 -1.6471  0.0791
55152SOL    HW277436  10.325   4.245   0.954  0.3443 -1.1532  0.9522
55153SOL     OW77437   8.602  12.597   1.273  0.6885  0.2417 -0.2793
55153SOL    HW177438   8.589  12.691   1.264  0.3363  0.2841  0.5784
55153SOL    HW277439   8.519  12.558   1.245  1.0627  0.1410 -1.2815
55154SOL     OW77440   6.527  14.024  10.278  0.5340 -0.5137 -0.1163
55154SOL    HW177441   6.501  13.989  10.363  0.3672 -1.7766 -0.6637
55154SOL    HW277442   6.465  14.096  10.262  2.2956  1.6990  2.0596
55155SOL     OW77443  10.462   5.923   2.889  0.6161  0.2177 -0.1718
55155SOL    HW177444  10.382   5.888   2.849 -1.1427  2.0601  1.5613
55155SOL    HW277445  10.488   5.855   2.951 -1.7538  1.0690  1.8901
55156SOL     OW77446   4.112   0.893   0.775 -0.3699  0.4108  0.1348
55156SOL    HW177447   4.137   0.843   0.853  0.2091  0.5363  0.0362
55156SOL    HW277448   4.055   0.962   0.809  1.1492  1.4414  0.7050
55157SOL     OW77449   2.461   4.831  10.406  0.3192 -0.0638  0.5331
55157SOL    HW177450   2.429   4.758  10.353  0.1675 -0.8690  1.6996
55157SOL    HW277451   2.472   4.903  10.343 -0.1538 -0.8850 -0.5268
55158SOL     OW77452  13.788   4.880   2.364 -0.0026 -0.1302 -0.0399
55158SOL    HW177453  13.856   4.896   2.429 -1.4407  0.8448  1.2928
55158SOL    HW277454  13.749   4.797   2.390 -0.9880  0.5585  0.7629
55159SOL     OW77455  12.620   2.936  12.724  0.7202 -0.7669 -0.2078
55159SOL    HW177456  12.698   2.900  12.765  0.0317 -2.1696 -0.0639
55159SOL    HW277457  12.560   2.954  12.797  1.1996  1.1856 -0.2213
55160SOL     OW77458   9.808  11.384  10.467 -0.4740  0.1029  0.3539
55160SOL    HW177459   9.865  11.438  10.413 -1.3635  0.8347  0.1287
55160SOL    HW277460   9.723  11.389  10.425 -0.4484 -2.0641 -0.0691
55161SOL     OW77461   9.986   2.757  13.990  0.1837 -0.4114 -0.2996
55161SOL    HW177462  10.075   2.769  14.025  0.1017 -0.2373 -0.1457
55161SOL    HW277463   9.998   2.746  13.896  0.1958  2.1191 -0.6651
55162SOL     OW77464   7.236  12.087  10.434 -0.0473  0.6170 -0.2388
55162SOL    HW177465   7.212  12.023  10.366 -0.6920 -0.3356  0.8543
55162SOL    HW277466   7.168  12.154  10.429 -2.1429 -1.2120  1.7153
55163SOL     OW77467   9.444  13.253  10.621 -0.2452 -0.3949  0.4851
55163SOL    HW177468   9.469  13.176  10.570  0.6306 -0.4281  0.9501
55163SOL    HW277469   9.357  13.232  10.655 -0.3710 -0.8258 -0.0880
55164SOL     OW77470   3.686   1.620  12.967  0.1129 -0.1220 -0.0385
55164SOL    HW177471   3.672   1.532  13.001  1.6084 -0.3653 -0.0287
55164SOL    HW277472   3.778   1.639  12.985  0.3715  0.6276 -1.9216
55165SOL     OW77473   3.327  12.772  11.002  0.5291 -0.1966 -0.1235
55165SOL    HW177474   3.341  12.850  11.056  0.1642 -0.4037  0.2758
55165SOL    HW277475   3.332  12.699  11.065  0.4562 -0.4651 -0.4285
55166SOL     OW77476   3.374   0.220   3.514  0.0224  0.5951  0.1731
55166SOL    HW177477   3.379   0.125   3.531  0.1862  0.5373 -0.1939
55166SOL    HW277478   3.357   0.258   3.600 -0.2742  0.2129  0.2894
55167SOL     OW77479   2.287   7.908   0.475 -0.1334 -0.0123 -0.2672
55167SOL    HW177480   2.324   7.827   0.441  0.1882  0.5946 -1.4021
55167SOL    HW277481   2.335   7.924   0.557 -1.0027 -1.5515  0.5953
55168SOL     OW77482  11.613   2.115   4.695 -0.0120  0.2151 -0.1397
55168SOL    HW177483  11.617   2.062   4.615 -0.1410  1.9797 -1.3766
55168SOL    HW277484  11.687   2.085   4.748  1.1466  0.1700 -1.7216
55169SOL     OW77485   0.171   4.102   1.585 -0.3138  0.5890 -0.2828
55169SOL    HW177486   0.117   4.114   1.507 -0.4725  0.0220 -0.2663
55169SOL    HW277487   0.255   4.142   1.563 -0.5427  0.9363 -0.5308
55170SOL     OW77488   3.102  10.842  12.512 -0.0939 -0.1484 -0.2084
55170SOL    HW177489   3.022  10.873  12.554 -0.5670 -1.8944  0.2485
55170SOL    HW277490   3.170  10.902  12.543 -0.3790 -1.3939  3.3145
55171SOL     OW77491   6.474   9.796   8.578 -0.3621 -0.3296 -0.2508
55171SOL    HW177492   6.509   9.737   8.511  1.9236  0.3758  0.2513
55171SOL    HW277493   6.389   9.758   8.600 -0.1190 -1.9363 -1.8110
55172SOL     OW77494  12.641   3.508   6.246  0.0025  0.1759  0.0353
55172SOL    HW177495  12.656   3.418   6.277 -0.4167  0.5592  1.3969
55172SOL    HW277496  12.723   3.532   6.202  0.8078 -0.2212  1.2887
55173SOL     OW77497   6.404   9.007   5.597 -0.0335 -0.2548  1.0561
55173SOL    HW177498   6.421   8.918   5.629 -2.1452 -1.1401 -0.1086
55173SOL    HW277499   6.454   9.014   5.516 -1.6298 -1.2860 -0.0827
55174SOL     OW77500  13.176  13.376   6.074  0.4018  0.0966 -0.1118
55174SOL    HW177501  13.250  13.364   6.015 -0.7761 -0.1649 -1.5998
55174SOL    HW277502  13.202  13.333   6.155  1.6204 -0.5351 -0.8176
55175SOL     OW77503   4.913   0.541   1.888 -0.0155 -0.0741 -0.6663
55175SOL    HW177504   4.910   0.450   1.917 -0.3280 -0.2945 -1.3644
55175SOL    HW277505   4.837   0.582   1.930 -0.1914 -0.2706 -0.7911
55176SOL     OW77506  10.279   4.653  11.612  0.0118  0.5258 -0.3566
55176SOL    HW177507  10.210   4.663  11.678  1.3651  0.3631  1.1326
55176SOL    HW277508  10.335   4.730  11.625  1.2754 -0.4171 -0.1059
55177SOL     OW77509  13.474  13.372   3.017 -0.0173  0.5009  0.2976
55177SOL    HW177510  13.550  13.314   3.029 -0.6214 -0.4593 -0.4321
55177SOL    HW277511  13.401  13.324   3.057 -0.4994  0.8256 -0.1853
55178SOL     OW77512   3.932   7.743   4.545  0.6572  0.0425 -1.0945
55178SOL    HW177513   3.886   7.699   4.617  1.8385  1.1051  0.3588
55178SOL    HW277514   3.924   7.836   4.564  3.2755  0.2957 -0.7880
55179SOL     OW77515  12.955  11.192  10.907 -0.2340 -0.0000  0.6191
55179SOL    HW177516  13.026  11.130  10.925 -1.2750 -1.0669  1.1374
55179SOL    HW277517  12.983  11.238  10.827  0.7982 -0.7627  0.5244
55180SOL     OW77518  11.887   8.218  10.438  0.4075  0.3857 -0.3000
55180SOL    HW177519  11.842   8.160  10.377 -0.5293  0.0455  0.6808
55180SOL    HW277520  11.934   8.159  10.498  1.0832  0.7046 -0.4948
55181SOL     OW77521  10.574   4.890  11.344 -0.0237  0.3068 -0.1669
55181SOL    HW177522  10.614   4.805  11.363 -0.8306 -0.5209 -1.9076
55181SOL    HW277523  10.496   4.893  11.400  0.4453  0.2893  0.5033
55182SOL     OW77524   4.133  11.060  13.876 -0.1797 -0.6208  0.3480
55182SOL    HW177525   4.228  11.074  13.869  0.4347 -3.2099  2.2648
55182SOL    HW277526   4.095  11.139  13.837  2.7623  1.5307  1.4347
55183SOL     OW77527  10.355  13.948   5.166 -0.8046  0.0183 -0.3680
55183SOL    HW177528  10.435  13.983   5.207 -1.7673  0.7610  0.9569
55183SOL    HW277529  10.373  13.854   5.155  0.6917  0.3668 -1.2194
55184SOL     OW77530   2.532   6.715  13.297 -0.3635  0.2348  0.1498
55184SOL    HW177531   2.539   6.620  13.285 -0.4260  0.3024 -0.4629
55184SOL    HW277532   2.613   6.739  13.343 -1.1589 -0.3554  1.9445
55185SOL     OW77533   8.492  10.257  11.457 -0.2847 -0.4281  0.1804
55185SOL    HW177534   8.398  10.250  11.445 -0.3106  0.3515 -0.1560
55185SOL    HW277535   8.520  10.322  11.392  0.3704 -0.1180  0.7515
55186SOL     OW77536   0.438   2.896   9.978 -0.5279 -0.2589  0.0329
55186SOL    HW177537   0.394   2.892  10.063 -0.8138 -1.9084 -0.1582
55186SOL    HW277538   0.435   2.988   9.953 -1.2485  0.1034  1.3906
55187SOL     OW77539   6.629   0.364   0.482 -0.1036 -0.5638  0.1571
55187SOL    HW177540   6.680   0.430   0.435 -1.2316 -0.2865 -0.7235
55187SOL    HW277541   6.593   0.307   0.414 -0.9004 -0.8032  0.7501
55188SOL     OW77542   0.112   6.752  13.915 -0.4058 -0.2196  0.3404
55188SOL    HW177543   0.169   6.762  13.839  1.5414 -1.1026  1.6222
55188SOL    HW277544   0.162   6.789  13.988 -1.4060 -1.1544  1.5350
55189SOL     OW77545   5.348   7.128   6.385  0.3731  0.7247 -0.3183
55189SOL    HW177546   5.350   7.215   6.426 -2.2743 -0.1770  2.0521
55189SOL    HW277547   5.360   7.067   6.458 -0.1490 -0.9380 -1.5700
55190SOL     OW77548   0.310  13.229   3.265 -0.4209  0.6470 -0.1084
55190SOL    HW177549   0.369  13.297   3.296  0.6987  1.5608 -3.7752
55190SOL    HW277550   0.235  13.276   3.229 -0.3620 -0.1031 -1.2827
55191SOL     OW77551   6.020   4.832   1.479  0.5661  0.2875 -0.7421
55191SOL    HW177552   5.938   4.786   1.495  2.3225 -2.9449 -0.2746
55191SOL    HW277553   6.059   4.841   1.566  2.2943 -1.5664 -1.2530
55192SOL     OW77554   7.194  11.589  11.158 -0.1596  0.2180 -0.1972
55192SOL    HW177555   7.107  11.623  11.177 -0.0340  0.0059  0.8177
55192SOL    HW277556   7.235  11.577  11.244  1.5185  1.9958 -0.6743
55193SOL     OW77557  12.986   7.577  12.895 -0.0967 -0.1482  0.0857
55193SOL    HW177558  13.036   7.646  12.852 -0.5764 -1.0165 -2.0009
55193SOL    HW277559  12.942   7.621  12.968  0.0939  1.6141 -0.8076
55194SOL     OW77560   9.567   4.966   9.634 -0.4010  0.0196 -0.0770
55194SOL    HW177561   9.538   4.913   9.559  0.6198  0.6072 -0.9226
55194SOL    HW277562   9.545   4.914   9.711 -0.9048 -0.8904 -0.8200
55195SOL     OW77563  10.409   0.925   8.069 -0.8504  0.0851 -0.3931
55195SOL    HW177564  10.467   0.854   8.098 -2.4547 -0.8111  0.8582
55195SOL    HW277565  10.385   0.901   7.980  0.1340  0.0931 -0.6688
55196SOL     OW77566   5.316  12.217   9.885  0.5648 -0.0954  0.1047
55196SOL    HW177567   5.252  12.162   9.842  2.6138 -1.8470 -0.8842
55196SOL    HW277568   5.314  12.300   9.837 -1.4409  0.1998  0.6143
55197SOL     OW77569   4.918   2.350   8.326  0.4842  0.0832  0.1885
55197SOL    HW177570   4.918   2.286   8.255 -2.3438  0.0661  0.0957
55197SOL    HW277571   4.894   2.432   8.284 -0.7683  0.1682  1.0212
55198SOL     OW77572   3.273   7.752   7.740  0.4512  0.5451  0.2504
55198SOL    HW177573   3.355   7.720   7.777  1.0153  0.5216 -0.9494
55198SOL    HW277574   3.291   7.843   7.717  0.4790  0.2566 -0.9305
55199SOL     OW77575   4.620  13.860   9.030  0.0125 -0.8987 -0.2226
55199SOL    HW177576   4.529  13.857   9.060 -0.8655 -0.4275 -2.5758
55199SOL    HW277577   4.671  13.878   9.109 -2.3407  3.1904  0.6517
55200SOL     OW77578   6.854  13.429   9.160  0.5122  0.1166 -0.2337
55200SOL    HW177579   6.877  13.336   9.161  1.0869  0.2495 -0.5914
55200SOL    HW277580   6.938  13.474   9.151  0.3214  0.7042  0.7526
55201SOL     OW77581   7.082   4.830   7.556 -0.2453  0.5377 -0.4994
55201SOL    HW177582   7.146   4.799   7.492 -0.3393  1.8562 -1.2702
55201SOL    HW277583   7.038   4.750   7.586 -0.1060 -0.1311 -1.9890
55202SOL     OW77584   4.154  13.924  12.306 -0.1485  0.1979  0.0583
55202SOL    HW177585   4.223  13.952  12.246  0.5637  1.0305  1.2163
55202SOL    HW277586   4.195  13.928  12.393 -1.1194 -1.0450  0.6098
55203SOL     OW77587   5.741   3.771  10.856  0.6255 -0.3398 -0.2878
55203SOL    HW177588   5.738   3.835  10.926  1.1882  0.3197 -0.8535
55203SOL    HW277589   5.789   3.697  10.892 -2.1838 -1.5932  1.2564
55204SOL     OW77590  11.459   5.014   9.758 -0.2938 -0.1629 -0.3512
55204SOL    HW177591  11.545   4.978   9.780 -0.3968 -0.7906 -0.9369
55204SOL    HW277592  11.474   5.108   9.750  0.4726 -0.3289 -1.0097
55205SOL     OW77593   2.505   2.570  13.514 -0.7203  0.3598 -0.4198
55205SOL    HW177594   2.511   2.655  13.470  2.2527  0.8627  0.7475
55205SOL    HW277595   2.533   2.507  13.448 -1.9558  0.3763 -0.9807
55206SOL     OW77596   7.607  10.246  13.932  0.5827 -0.1205  0.0101
55206SOL    HW177597   7.568  10.177  13.878  0.0285  0.0895  0.1351
55206SOL    HW277598   7.701  10.232  13.924  0.5400  0.2133 -1.4269
55207SOL     OW77599   7.249   2.394   1.994 -0.0485 -0.0365 -0.4824
55207SOL    HW177600   7.217   2.353   2.075 -0.7004  0.7622 -0.3159
55207SOL    HW277601   7.331   2.349   1.975  0.0046 -0.3880  0.5022
55208SOL     OW77602  10.630  12.750   4.848  0.1816 -0.5561 -0.1654
55208SOL    HW177603  10.676  12.684   4.796  0.0136 -1.3560  0.6703
55208SOL    HW277604  10.539  12.746   4.817 -0.3188 -2.3070  1.3614
55209SOL     OW77605  12.491   6.031  11.217  0.5283 -0.1027  0.3524
55209SOL    HW177606  12.446   6.097  11.271  2.1242 -0.5672  2.3712
55209SOL    HW277607  12.580   6.066  11.206  0.2357  0.0056 -2.1250
55210SOL     OW77608   8.854   4.067   8.955 -0.4042 -0.0070 -0.2601
55210SOL    HW177609   8.915   4.051   9.027 -0.9257 -0.9037 -0.0026
55210SOL    HW277610   8.828   3.979   8.925 -1.9902  0.3395 -0.0004
55211SOL     OW77611   7.258   5.101   4.492 -0.1682  0.1411  0.1181
55211SOL    HW177612   7.294   5.175   4.443 -0.2039  0.3008  0.3314
55211SOL    HW277613   7.332   5.065   4.541 -0.4071  0.8555  1.0456
55212SOL     OW77614   2.261   4.900   5.036  0.3501 -0.2690  0.0018
55212SOL    HW177615   2.312   4.859   4.966 -0.1567 -1.0134  0.0620
55212SOL    HW277616   2.325   4.953   5.084  1.0135 -0.9617 -0.0994
55213SOL     OW77617   7.102  12.759   2.998 -0.1242 -0.3239  0.0344
55213SOL    HW177618   7.098  12.664   2.995  1.1060 -0.4647  1.4475
55213SOL    HW277619   7.175  12.782   2.941 -0.9108 -0.1304 -0.9369
55214SOL     OW77620   0.910   0.716   6.033  0.0357 -0.2196 -0.3088
55214SOL    HW177621   0.890   0.648   6.097 -0.3462  0.4168  0.2576
55214SOL    HW277622   0.824   0.745   6.001  0.2039 -0.1291 -0.6837
55215SOL     OW77623  12.981  10.451   0.152  0.1571  0.1169 -0.8166
55215SOL    HW177624  13.033  10.519   0.109  1.4840 -0.6079 -0.4124
55215SOL    HW277625  12.941  10.403   0.080  1.0702 -0.0893 -1.1986
55216SOL     OW77626   0.629  11.238   7.279  0.2476  0.4346  0.6976
55216SOL    HW177627   0.626  11.223   7.185  0.7805 -0.2741  0.7872
55216SOL    HW277628   0.599  11.156   7.318 -0.4572  0.8896  1.1449
55217SOL     OW77629  13.863  12.428   2.645  0.2923  0.5723 -0.7004
55217SOL    HW177630  13.825  12.459   2.727 -1.9035 -0.9774 -1.0215
55217SOL    HW277631  13.927  12.361   2.672  1.2370  1.6456 -0.2139
55218SOL     OW77632   6.445   8.816  12.898 -0.3886 -0.2125 -0.0833
55218SOL    HW177633   6.504   8.744  12.876  0.7967  1.0824 -1.3876
55218SOL    HW277634   6.402   8.788  12.979 -0.1912 -2.4873 -0.6908
55219SOL     OW77635   2.961   9.131  13.099  0.2207  0.5555  0.0698
55219SOL    HW177636   2.981   9.184  13.176 -1.3184  0.1171  0.8059
55219SOL    HW277637   2.919   9.053  13.133 -0.4099  0.3006 -1.2153
55220SOL     OW77638   2.353   5.050   8.890 -0.4346  0.0637  0.0314
55220SOL    HW177639   2.282   4.988   8.873  1.3386 -2.3850  0.8915
55220SOL    HW277640   2.364   5.047   8.985  0.2691  1.0498 -0.0063
55221SOL     OW77641   4.834   4.546   9.668  0.0027 -1.1748 -0.0343
55221SOL    HW177642   4.893   4.471   9.669  1.5131 -0.0368  0.3505
55221SOL    HW277643   4.768   4.526   9.734  2.4681 -0.6365  2.8054
55222SOL     OW77644   5.911   9.756   7.980 -0.4421  0.1899  0.4270
55222SOL    HW177645   5.937   9.680   7.928  0.9513  0.9213 -0.0148
55222SOL    HW277646   5.985   9.769   8.040 -2.1033 -0.7859  2.8397
55223SOL     OW77647  13.474   9.010  13.992 -0.1939  0.4740 -0.3978
55223SOL    HW177648  13.476   9.054  13.907 -0.0527  0.9046 -0.1706
55223SOL    HW277649  13.561   8.970  14.000  0.3997  1.8547  0.2896
55224SOL     OW77650  12.847   7.622   5.331  0.6908  0.0702 -0.3640
55224SOL    HW177651  12.918   7.558   5.327 -0.0238 -0.9911  2.2069
55224SOL    HW277652  12.891   7.706   5.338  1.9019 -0.7034  3.6127
55225SOL     OW77653   5.064   7.687  10.344 -0.0039  0.6823 -0.0913
55225SOL    HW177654   4.993   7.628  10.369  0.0790 -0.0466 -1.4410
55225SOL    HW277655   5.041   7.771  10.383  0.5851 -0.5130  3.1393
55226SOL     OW77656  12.832  13.277   1.416  0.1516 -0.3153 -0.1161
55226SOL    HW177657  12.836  13.372   1.416 -1.2859 -0.2149  1.0281
55226SOL    HW277658  12.921  13.249   1.394  0.7972  1.2839  0.3006
55227SOL     OW77659   4.241  11.230   0.633  0.6553  0.5657 -0.3470
55227SOL    HW177660   4.281  11.302   0.681 -0.9471  0.0269  1.9808
55227SOL    HW277661   4.155  11.218   0.675  0.5205 -2.1304 -1.1934
55228SOL     OW77662   5.091   2.180   4.912 -0.6004  1.1895  0.4495
55228SOL    HW177663   5.171   2.206   4.865 -1.0667 -0.8516 -1.6784
55228SOL    HW277664   5.105   2.210   5.001  2.0571  1.8942 -0.1039
55229SOL     OW77665   5.290   3.703   0.826 -0.1410 -0.0888 -0.1040
55229SOL    HW177666   5.213   3.712   0.882  0.5004 -1.3404  1.0372
55229SOL    HW277667   5.299   3.609   0.812 -0.1583  0.1670 -2.1955
55230SOL     OW77668  10.682  11.801  13.468 -1.2407 -0.0804 -1.0039
55230SOL    HW177669  10.764  11.782  13.514 -0.8703 -1.8132 -2.2635
55230SOL    HW277670  10.670  11.895  13.479 -0.8251 -0.2519  1.9993
55231SOL     OW77671   9.310   6.175   0.462 -0.8845  0.2003  0.8721
55231SOL    HW177672   9.312   6.079   0.458  1.1503  0.1904  1.4833
55231SOL    HW277673   9.386   6.199   0.514 -0.0520  2.2619 -1.1433
55232SOL     OW77674   2.251  13.263  13.637 -0.8131 -0.1554  0.1874
55232SOL    HW177675   2.218  13.326  13.701  0.2607 -0.0885  0.6907
55232SOL    HW277676   2.203  13.182  13.655 -1.0093  0.0569  0.6148
55233SOL     OW77677   7.677   1.004   4.097 -0.4023  0.5061  0.3445
55233SOL    HW177678   7.712   1.079   4.145 -0.1560  0.3500  0.4094
55233SOL    HW277679   7.633   1.042   4.021  0.5717  0.6605 -0.1527
55234SOL     OW77680   0.431  12.512  10.372 -0.7148 -0.1488 -0.2946
55234SOL    HW177681   0.481  12.591  10.393  0.0775 -0.7447  0.1399
55234SOL    HW277682   0.457  12.490  10.283 -1.7837  0.6880 -0.8361
55235SOL     OW77683   0.813   9.580   4.929  0.0172 -0.0085 -0.1770
55235SOL    HW177684   0.819   9.617   5.017 -0.4932 -1.1328  0.3433
55235SOL    HW277685   0.898   9.599   4.889  0.0048  1.1340  0.2907
55236SOL     OW77686  13.305   9.020   8.440  0.0759 -0.1193 -0.1900
55236SOL    HW177687  13.273   9.026   8.350  0.8043 -0.1376 -0.4611
55236SOL    HW277688  13.345   8.933   8.446  3.0599  1.0467 -0.9308
55237SOL     OW77689   6.010   2.550  10.147 -0.3856  0.1926 -0.3385
55237SOL    HW177690   5.917   2.527  10.146 -0.5790  0.9576 -0.4400
55237SOL    HW277691   6.011   2.645  10.135  0.4038  0.2068 -0.1796
55238SOL     OW77692   4.438   9.585   1.379 -0.1556  0.3287 -0.1063
55238SOL    HW177693   4.350   9.622   1.388 -0.3666 -0.0253 -0.6333
55238SOL    HW277694   4.494   9.660   1.357  0.2363  1.0888  2.9983
55239SOL     OW77695  13.104  13.074  11.696  0.2530  0.4278 -0.1918
55239SOL    HW177696  13.190  13.072  11.737 -0.3740  0.2334  1.1746
55239SOL    HW277697  13.043  13.050  11.767 -0.7853 -0.9635 -1.4865
55240SOL     OW77698  13.685   5.562   3.886 -0.5838  0.7800  0.6797
55240SOL    HW177699  13.604   5.607   3.910 -2.0472 -1.6986  0.7971
55240SOL    HW277700  13.673   5.537   3.795 -0.3860 -0.3959  0.9569
55241SOL     OW77701   7.370   3.459   3.820 -0.4790 -0.3970  0.0817
55241SOL    HW177702   7.453   3.412   3.833  0.1845  0.8574  0.5315
55241SOL    HW277703   7.338   3.475   3.909 -0.9295 -0.3729 -0.0819
55242SOL     OW77704   2.485  11.059   4.572  0.0864 -0.2467 -0.1627
55242SOL    HW177705   2.488  11.146   4.531  1.3039  0.5239  1.4750
55242SOL    HW277706   2.575  11.026   4.565  0.3414 -0.0726  1.8636
55243SOL     OW77707   2.461   6.111  10.452  0.1149 -0.1620  0.3733
55243SOL    HW177708   2.409   6.036  10.484  1.1634 -0.6363  1.0284
55243SOL    HW277709   2.530   6.071  10.399  1.6340  0.1773  2.0127
55244SOL     OW77710  13.303  12.788   2.325 -0.1378 -0.1571 -0.5929
55244SOL    HW177711  13.216  12.772   2.362 -0.3752  0.6131 -0.7850
55244SOL    HW277712  13.361  12.795   2.400 -0.1898 -0.9318 -0.4718
55245SOL     OW77713  10.805  11.379   9.884  0.0991 -0.0605  0.4594
55245SOL    HW177714  10.830  11.355   9.973  0.7331 -2.1898 -0.2241
55245SOL    HW277715  10.857  11.457   9.864 -0.0821  0.4650  1.9396
55246SOL     OW77716   1.573  10.135  10.498  0.0917  0.3309 -0.0824
55246SOL    HW177717   1.499  10.111  10.554  1.2837 -1.1139  0.9524
55246SOL    HW277718   1.541  10.211  10.448 -2.2054 -0.4752  0.0150
55247SOL     OW77719   2.393   7.584   2.771  0.0199 -0.1862  0.0760
55247SOL    HW177720   2.316   7.590   2.828  0.8368  1.0768  1.1113
55247SOL    HW277721   2.468   7.591   2.831  0.9187  2.7132 -1.1873
55248SOL     OW77722   6.267  12.702  12.057 -0.0830  0.2827  0.5673
55248SOL    HW177723   6.224  12.663  12.133  0.1537  0.8314  0.9914
55248SOL    HW277724   6.348  12.741  12.092  0.1153  0.3914  0.0061
55249SOL     OW77725   9.404   0.719   9.658 -0.0474 -0.3636 -0.5666
55249SOL    HW177726   9.380   0.760   9.575 -1.1696  1.1240  0.4382
55249SOL    HW277727   9.324   0.724   9.711  0.4612 -1.8343  0.4174
55250SOL     OW77728   4.462   8.484  12.159  0.0199 -0.6596  0.2573
55250SOL    HW177729   4.557   8.483  12.148 -0.0433 -1.8508 -0.3937
55250SOL    HW277730   4.438   8.392  12.166 -1.2329 -0.4792 -1.0833
55251SOL     OW77731  10.704   5.453   7.260  0.1814  0.1184 -0.3748
55251SOL    HW177732  10.768   5.395   7.219 -0.9915 -0.1787 -1.8690
55251SOL    HW277733  10.747   5.484   7.339  2.0659 -0.2697 -1.1972
55252SOL     OW77734   0.009  13.610   9.807 -0.0325 -0.4597  0.2387
55252SOL    HW177735  -0.066  13.602   9.749 -0.8045 -0.2194  1.1822
55252SOL    HW277736  -0.002  13.695   9.850  1.0553 -0.1859  0.0152
55253SOL     OW77737  10.820   0.473  10.772 -0.3685 -0.5718 -0.0592
55253SOL    HW177738  10.846   0.428  10.692  0.5298 -0.0384 -0.0845
55253SOL    HW277739  10.831   0.566  10.752  1.2355 -0.4645  1.0984
55254SOL     OW77740   0.698   3.285   4.325 -0.0383 -0.7232 -0.2524
55254SOL    HW177741   0.727   3.320   4.241 -1.9163 -1.2795 -1.1910
55254SOL    HW277742   0.655   3.202   4.303 -3.9461  0.8571  0.6915
55255SOL     OW77743  12.402   8.689   8.010  0.5904  0.1323 -0.9785
55255SOL    HW177744  12.485   8.683   7.962 -0.2109  0.6076 -2.4646
55255SOL    HW277745  12.350   8.752   7.960 -0.7228 -0.2661 -0.1411
55256SOL     OW77746  10.115  12.377   1.658  0.5348 -0.2027 -0.4012
55256SOL    HW177747  10.096  12.394   1.566 -0.7278  0.1081 -0.0957
55256SOL    HW277748  10.144  12.462   1.693  0.7458 -0.2574 -0.4384
55257SOL     OW77749   2.448   0.324   1.722 -0.2295 -0.2401 -0.1798
55257SOL    HW177750   2.413   0.237   1.702  1.4391 -1.2888  1.1620
55257SOL    HW277751   2.540   0.319   1.697  0.2902  0.5769  1.4448
55258SOL     OW77752   0.687   7.953   4.422  0.0242  0.4546 -0.1435
55258SOL    HW177753   0.739   8.015   4.370 -2.1004  1.5360 -1.0940
55258SOL    HW277754   0.663   7.884   4.360 -1.6664  1.2216 -0.3846
55259SOL     OW77755  11.657  11.720   1.353  0.3090 -0.1032  0.2710
55259SOL    HW177756  11.645  11.771   1.272  0.1695  0.1442  0.4438
55259SOL    HW277757  11.745  11.685   1.347 -0.2103 -1.3114 -0.6679
55260SOL     OW77758   1.329   5.236  12.571  0.2863 -0.0218 -0.1779
55260SOL    HW177759   1.314   5.162  12.512 -0.5465  0.3586 -0.4624
55260SOL    HW277760   1.417   5.222  12.605  1.2745  0.3404 -2.3957
55261SOL     OW77761   1.174   4.079   3.897  0.0200  0.0418 -0.2492
55261SOL    HW177762   1.088   4.042   3.874 -0.4501  0.8246  0.2031
55261SOL    HW277763   1.155   4.140   3.969  0.8169  0.9005 -0.7505
55262SOL     OW77764  13.730   4.635   2.460 -0.4725 -0.9030 -0.0909
55262SOL    HW177765  13.699   4.597   2.378 -0.8839  0.9589 -0.8455
55262SOL    HW277766  13.795   4.573   2.492  1.0168 -0.8510 -2.7434
55263SOL     OW77767   2.843   6.584   3.906 -0.5749 -0.4647 -0.2534
55263SOL    HW177768   2.912   6.520   3.887  1.4909  1.1434  1.2707
55263SOL    HW277769   2.762   6.542   3.878  0.8421 -3.1101 -0.6681
55264SOL     OW77770  12.149   3.148  12.651 -0.4071  0.0553  0.2654
55264SOL    HW177771  12.154   3.243  12.643  2.2333  0.0591  0.9852
55264SOL    HW277772  12.083   3.133  12.718 -0.7157  1.3726  0.2813
55265SOL     OW77773   4.577   5.672   0.848  0.0331  0.7260  0.2813
55265SOL    HW177774   4.646   5.737   0.835 -1.0098  1.7774 -0.2232
55265SOL    HW277775   4.516   5.715   0.908 -0.3206 -0.0795  0.5086
55266SOL     OW77776   6.372   3.612   9.476  0.0843 -0.4114  0.1983
55266SOL    HW177777   6.431   3.587   9.547 -0.5509 -0.0145  0.8682
55266SOL    HW277778   6.307   3.669   9.517 -0.8683 -0.9688 -0.4989
55267SOL     OW77779  13.743   7.596   9.969 -0.3592  0.3931  0.1680
55267SOL    HW177780  13.744   7.668  10.032 -1.6295  0.2879  0.3476
55267SOL    HW277781  13.662   7.610   9.919 -0.5017 -0.7786  0.0559
55268SOL     OW77782  11.718  10.754  11.484 -0.6719 -0.4571 -0.1908
55268SOL    HW177783  11.643  10.813  11.484 -0.8305 -0.6237 -1.6272
55268SOL    HW277784  11.747  10.753  11.575 -0.7543  1.7007 -0.0871
55269SOL     OW77785  12.047  10.207   5.953 -0.3895 -0.0013  0.7880
55269SOL    HW177786  12.084  10.292   5.930  1.0870 -1.1304 -1.3244
55269SOL    HW277787  12.079  10.190   6.042  0.6758  0.9064  0.5997
55270SOL     OW77788   7.230   4.740  12.645 -0.2808  0.0556  0.2553
55270SOL    HW177789   7.261   4.823  12.607  0.7531 -1.0894 -1.5477
55270SOL    HW277790   7.162   4.711  12.585  0.2153 -0.9886  0.1885
55271SOL     OW77791  12.089   7.077   8.319  0.5529  0.2115  0.0241
55271SOL    HW177792  12.050   7.158   8.287  3.9230  2.5922  1.2506
55271SOL    HW277793  12.115   7.030   8.241 -0.6101  0.7708 -0.7249
55272SOL     OW77794   9.266   6.934   8.545 -0.6510 -0.9120 -0.7445
55272SOL    HW177795   9.238   6.843   8.559 -1.8532 -0.1500  2.9058
55272SOL    HW277796   9.184   6.983   8.537 -0.2358  0.3231  1.7166
55273SOL     OW77797   0.803   3.837   0.143 -0.2029  0.2578  0.0058
55273SOL    HW177798   0.816   3.878   0.058 -0.0272  0.1607 -0.0138
55273SOL    HW277799   0.758   3.755   0.124 -0.9163  0.6183  0.0773
55274SOL     OW77800  10.749   0.831   2.680  0.4474 -0.3431 -0.4279
55274SOL    HW177801  10.702   0.776   2.618  1.3748 -2.1925  0.4449
55274SOL    HW277802  10.836   0.843   2.642  0.8136 -0.9498  0.1961
55275SOL     OW77803   2.471   1.910   7.626  0.0647 -0.4424 -0.6231
55275SOL    HW177804   2.497   1.957   7.546  0.2651  0.7675  0.1291
55275SOL    HW277805   2.379   1.934   7.639  0.9900  2.5692  1.5658
55276SOL     OW77806   5.595  13.500  12.217  0.0356  0.1679 -0.3100
55276SOL    HW177807   5.505  13.528  12.200 -0.3316 -0.1653  1.0000
55276SOL    HW277808   5.587  13.409  12.246  0.7382  0.3081  0.3666
55277SOL     OW77809   0.591   3.802   6.243  0.8064 -0.3598  0.1884
55277SOL    HW177810   0.566   3.894   6.237  0.8589 -0.3578  0.0032
55277SOL    HW277811   0.651   3.789   6.170  0.8116 -0.5376  0.2252
55278SOL     OW77812   5.600   9.646   5.331  0.7502 -0.7178 -0.5365
55278SOL    HW177813   5.688   9.637   5.368 -0.0781 -1.3793  1.4119
55278SOL    HW277814   5.566   9.556   5.328  0.0220 -0.4420 -0.9785
55279SOL     OW77815   5.567   9.585   0.583  0.2377  0.7179 -0.1853
55279SOL    HW177816   5.622   9.507   0.595 -1.3293 -0.1684  1.6583
55279SOL    HW277817   5.613   9.654   0.632  0.4047  0.3390  0.1997
55280SOL     OW77818  11.507   6.385   6.751 -0.5084  0.1306  0.3642
55280SOL    HW177819  11.587   6.399   6.700 -0.4565 -1.3119  0.0129
55280SOL    HW277820  11.452   6.461   6.731  0.3421  0.6060 -0.2284
55281SOL     OW77821  10.434   0.069   1.403 -0.0616 -0.7426  0.1896
55281SOL    HW177822  10.403   0.115   1.325  1.4274 -2.2679 -1.3881
55281SOL    HW277823  10.429   0.134   1.473  1.5198  1.7139 -1.8083
55282SOL     OW77824   6.182   9.149   7.641 -0.4205 -0.0230 -0.4624
55282SOL    HW177825   6.224   9.071   7.606 -2.5034 -0.4085 -2.3071
55282SOL    HW277826   6.205   9.218   7.578 -0.3212  0.3685  0.0015
55283SOL     OW77827   1.929   8.430   2.465 -0.3607  0.2602 -0.0133
55283SOL    HW177828   1.939   8.513   2.418  0.8581 -0.3632 -0.9270
55283SOL    HW277829   1.834   8.418   2.473 -0.5785  2.2666  1.1600
55284SOL     OW77830   3.533   7.406  13.314 -0.0142 -0.6005 -0.0430
55284SOL    HW177831   3.610   7.358  13.345  1.0625  0.3360 -1.1485
55284SOL    HW277832   3.547   7.496  13.344  0.5869  0.1259 -2.3072
55285SOL     OW77833  11.628   4.441  10.446  0.0503  0.8604  0.3145
55285SOL    HW177834  11.686   4.512  10.417 -0.8145  1.4121 -0.1138
55285SOL    HW277835  11.559   4.485  10.496  0.9946  0.0171  2.4594
55286SOL     OW77836   9.434   6.292   8.896  0.0469 -0.2670  0.6670
55286SOL    HW177837   9.383   6.373   8.885  0.5871  0.0631  0.5222
55286SOL    HW277838   9.453   6.263   8.807  0.3310 -0.2453  0.7201
55287SOL     OW77839   9.292   3.707   3.229  0.3628 -0.0133 -0.0698
55287SOL    HW177840   9.321   3.772   3.165  0.9122 -0.2496 -0.0738
55287SOL    HW277841   9.324   3.623   3.194 -0.5692 -0.3269 -0.2045
55288SOL     OW77842   2.967   4.809  14.031  0.3610 -0.8001 -0.0599
55288SOL    HW177843   3.024   4.768  14.096  1.6486  0.6943 -0.1749
55288SOL    HW277844   3.013   4.890  14.007 -1.1772 -0.2102 -1.1722
55289SOL     OW77845   8.007   2.819  11.847  0.2283 -0.4859 -0.2723
55289SOL    HW177846   7.962   2.896  11.884 -0.9950 -0.2753 -2.1075
55289SOL    HW277847   7.992   2.825  11.753  1.6475 -2.0378 -0.6413
55290SOL     OW77848  10.550   3.983   6.731 -0.0235 -0.0963 -0.1444
55290SOL    HW177849  10.494   3.923   6.681  1.5875 -2.3126  0.5836
55290SOL    HW277850  10.565   4.056   6.671 -0.4055 -1.3615 -1.8930
55291SOL     OW77851   0.905   5.932   9.000 -0.3572 -0.3218  0.8347
55291SOL    HW177852   0.989   5.921   9.044 -0.2698 -1.0860  0.4857
55291SOL    HW277853   0.894   5.853   8.948 -1.9366 -0.9047  1.9440
55292SOL     OW77854   9.855   1.913  11.915  0.2869 -0.2480 -0.4790
55292SOL    HW177855   9.779   1.902  11.859  0.5827  0.8285 -1.1205
55292SOL    HW277856   9.864   2.008  11.925 -0.3306 -0.3995  2.1978
55293SOL     OW77857  12.652   6.802   7.523  0.3755 -0.1620  0.5577
55293SOL    HW177858  12.720   6.750   7.567 -0.8333 -1.8141  0.5699
55293SOL    HW277859  12.670   6.791   7.430  0.4573 -0.1351  0.5701
55294SOL     OW77860  13.370   6.041   9.260 -0.3563  0.4346  0.1174
55294SOL    HW177861  13.445   6.002   9.215 -1.4159 -1.3163 -0.1840
55294SOL    HW277862  13.385   6.021   9.352  0.2535  1.3748  0.2471
55295SOL     OW77863   1.137  13.408  13.761 -0.3115 -0.2619 -0.5482
55295SOL    HW177864   1.093  13.353  13.826 -0.4015  0.9614  0.4651
55295SOL    HW277865   1.167  13.484  13.810  2.0331 -0.5433 -1.4162
55296SOL     OW77866   5.659   5.422   0.556 -0.6007 -0.1252 -0.0350
55296SOL    HW177867   5.720   5.374   0.499 -1.8252  0.5403 -1.9968
55296SOL    HW277868   5.709   5.499   0.584  0.1984 -0.7392  0.2924
55297SOL     OW77869  13.650   7.813  11.076 -0.3840 -0.3228  0.3810
55297SOL    HW177870  13.720   7.841  11.017 -0.6817 -1.7590 -0.6968
55297SOL    HW277871  13.644   7.719  11.063 -1.2853 -0.4846  1.8327
55298SOL     OW77872   5.380   2.543   8.060 -0.2411 -0.3976  0.5705
55298SOL    HW177873   5.328   2.619   8.035  1.9156  0.5592 -1.3924
55298SOL    HW277874   5.406   2.559   8.150 -0.1054  1.0750  0.2929
55299SOL     OW77875  12.896   9.141   0.239 -0.3384  0.0039  0.0287
55299SOL    HW177876  12.967   9.143   0.304  1.5216 -1.7237 -1.8047
55299SOL    HW277877  12.888   9.232   0.210  0.0805  0.4833  1.3301
55300SOL     OW77878   6.469   4.335  12.949 -0.5447 -0.2721  0.0359
55300SOL    HW177879   6.470   4.331  13.045  2.2894  0.5734  0.1387
55300SOL    HW277880   6.378   4.322  12.926 -1.2318 -1.1367  2.8179
55301SOL     OW77881  12.287   5.713   9.240  0.4612  0.9243 -0.3718
55301SOL    HW177882  12.226   5.710   9.314  0.4404 -0.5551 -0.4025
55301SOL    HW277883  12.373   5.727   9.279  0.3621  0.8399 -0.1222
55302SOL     OW77884   6.522   4.661   7.682  0.3570  0.0596 -0.1018
55302SOL    HW177885   6.435   4.681   7.648  0.0147 -0.1162  0.6422
55302SOL    HW277886   6.520   4.567   7.698  0.3458  0.2156  0.8401
55303SOL     OW77887   7.926   1.703  11.763  0.9663 -0.0113 -0.3719
55303SOL    HW177888   7.872   1.638  11.719  1.8812 -1.0809  0.0372
55303SOL    HW277889   7.951   1.764  11.694 -0.2807  0.1881 -0.6707
55304SOL     OW77890   2.003  12.220   8.571  0.3155  0.0005 -0.5876
55304SOL    HW177891   1.928  12.279   8.570  0.5312  0.2997  0.3720
55304SOL    HW277892   1.969  12.139   8.607  0.9559  0.8846  2.2281
55305SOL     OW77893   3.536   8.158  13.198  0.2811  0.3183  0.1576
55305SOL    HW177894   3.560   8.161  13.291 -1.7291  1.6162  0.6985
55305SOL    HW277895   3.445   8.130  13.198  0.1748  0.5922 -1.4048
55306SOL     OW77896   4.616  11.077  10.963 -0.3137  0.3953  0.0589
55306SOL    HW177897   4.541  11.021  10.944 -0.6916  1.2930 -1.2861
55306SOL    HW277898   4.611  11.094  11.057 -0.6942 -1.0798  0.3202
55307SOL     OW77899   0.545   1.889   5.751 -0.4845  0.3442  0.0132
55307SOL    HW177900   0.492   1.811   5.742 -1.3332  0.9192 -0.0695
55307SOL    HW277901   0.502   1.955   5.696 -0.0603  1.0071  0.4520
55308SOL     OW77902  11.207  13.226   1.305  0.0278  0.6915  0.4079
55308SOL    HW177903  11.170  13.284   1.372 -1.4174  0.7619 -0.4124
55308SOL    HW277904  11.141  13.157   1.294  0.0568  0.9002 -1.2092
55309SOL     OW77905  12.966  10.696   0.605 -0.3791 -0.0777  0.0185
55309SOL    HW177906  12.873  10.705   0.586 -0.4177 -0.0744  0.2005
55309SOL    HW277907  12.974  10.719   0.698 -0.3980 -1.4224  0.3687
55310SOL     OW77908  10.701   7.058  12.494 -0.5338  0.1490  0.3156
55310SOL    HW177909  10.608   7.048  12.475 -0.3750 -0.5402 -0.1353
55310SOL    HW277910  10.706   7.060  12.589 -1.1526  1.7161  0.3600
55311SOL     OW77911  13.760   2.387   7.274  0.9069  0.2282 -0.4909
55311SOL    HW177912  13.733   2.317   7.216 -0.5754  1.2150 -1.0503
55311SOL    HW277913  13.738   2.356   7.362 -0.2435  0.1898 -0.7761
55312SOL     OW77914   2.894   4.555   5.575  0.0168 -0.0709  0.6931
55312SOL    HW177915   2.876   4.522   5.487  4.0718 -0.9111 -0.0099
55312SOL    HW277916   2.908   4.649   5.563 -1.7058  0.2559  0.9430
55313SOL     OW77917  11.079   3.859   3.449  0.0335  0.4769  0.1623
55313SOL    HW177918  10.999   3.890   3.406 -1.3534 -1.1986  1.3706
55313SOL    HW277919  11.133   3.824   3.378 -1.1405 -0.0495 -0.4985
55314SOL     OW77920   4.460   3.163   4.724  0.0147  0.1621  0.5089
55314SOL    HW177921   4.433   3.236   4.779  0.6865  2.3782 -1.9000
55314SOL    HW277922   4.556   3.168   4.722  0.0239 -0.2269 -0.3917
55315SOL     OW77923  13.367   6.794   2.640  0.1008 -0.1417  0.3648
55315SOL    HW177924  13.439   6.801   2.702  0.5296  1.3429 -0.2669
55315SOL    HW277925  13.288   6.794   2.695  0.5221 -1.2454  1.0226
55316SOL     OW77926   3.437  13.338  13.067  0.0471  0.3430 -0.0493
55316SOL    HW177927   3.462  13.262  13.015 -0.9659 -0.5326  0.6807
55316SOL    HW277928   3.428  13.409  13.004  0.3678 -0.3041 -0.8417
55317SOL     OW77929   8.723   1.391   0.201  0.0740 -0.3294 -0.2189
55317SOL    HW177930   8.763   1.347   0.126  0.1843  1.5752 -1.3313
55317SOL    HW277931   8.639   1.346   0.213  0.4241 -1.2106 -0.9466
55318SOL     OW77932  12.532  10.397   0.101 -0.3012  0.6012  0.2084
55318SOL    HW177933  12.606  10.371   0.156  0.7874 -0.3498 -1.6246
55318SOL    HW277934  12.520  10.490   0.121  0.8188  0.5715  1.1766
55319SOL     OW77935   2.102  11.087   2.118 -0.4344  0.3246 -0.1038
55319SOL    HW177936   2.036  11.022   2.142 -0.6146  0.8981  1.0194
55319SOL    HW277937   2.130  11.124   2.201  0.5206  0.8563 -0.6503
55320SOL     OW77938   7.800   0.455   4.774  0.2957 -0.2569  0.4962
55320SOL    HW177939   7.751   0.461   4.691  2.4043  0.0202 -0.8214
55320SOL    HW277940   7.827   0.364   4.780 -2.3853 -1.0101  2.5183
55321SOL     OW77941  11.264   4.061  14.008 -0.3761  0.1298 -0.4356
55321SOL    HW177942  11.173   4.031  14.007 -0.0372 -1.0631  0.9758
55321SOL    HW277943  11.275   4.105  14.092  0.6329 -0.7452 -0.0857
55322SOL     OW77944   3.927   5.831   4.616  0.1603 -0.3884  0.6151
55322SOL    HW177945   3.940   5.738   4.634  0.0713 -0.2855  1.2278
55322SOL    HW277946   3.865   5.860   4.682  0.4611  0.1878  0.6511
55323SOL     OW77947   3.966   8.479   2.162  0.5835  0.3642  0.0913
55323SOL    HW177948   3.981   8.401   2.215  0.6730  0.4674  0.2176
55323SOL    HW277949   3.875   8.471   2.134  1.0403 -0.5845 -1.2040
55324SOL     OW77950   9.628   3.841  12.652  0.2545  0.9551 -0.6239
55324SOL    HW177951   9.670   3.791  12.722  0.4253  0.4345 -1.0891
55324SOL    HW277952   9.535   3.840  12.674  0.4079  1.6132  0.1004
55325SOL     OW77953  13.263   0.585   1.022 -0.6002 -0.2140  0.3107
55325SOL    HW177954  13.292   0.674   1.041  2.1863 -1.2484  1.4915
55325SOL    HW277955  13.234   0.588   0.931 -0.3315  1.8284  0.2509
55326SOL     OW77956   6.962   6.082  12.552 -0.2825 -0.0060 -0.0930
55326SOL    HW177957   6.974   6.062  12.645  0.4105  1.3036  0.1180
55326SOL    HW277958   7.033   6.034  12.508  1.9157  2.4737  0.4999
55327SOL     OW77959  13.954   4.820   8.063  0.1385  0.0881 -0.4352
55327SOL    HW177960  13.883   4.758   8.079  0.7121 -0.3222  0.5932
55327SOL    HW277961  13.989   4.840   8.150 -0.5399  2.4840 -0.6385
55328SOL     OW77962  11.664   5.311   4.267  1.1208  0.0290 -0.0369
55328SOL    HW177963  11.694   5.401   4.277  0.5193  0.1478  0.8079
55328SOL    HW277964  11.734   5.258   4.306  0.2597  0.3111  2.0353
55329SOL     OW77965  12.632   4.361   6.476  0.4038 -0.4298  0.4929
55329SOL    HW177966  12.612   4.354   6.383  2.4228 -2.2544  0.0981
55329SOL    HW277967  12.591   4.442   6.504  0.4808  0.6324 -2.1933
55330SOL     OW77968   2.677  10.919   2.036 -0.4520  0.2085 -0.4452
55330SOL    HW177969   2.599  10.877   1.999 -0.5599 -0.4030  0.4413
55330SOL    HW277970   2.643  10.973   2.108  0.0421 -0.9686  0.7002
55331SOL     OW77971   8.976  11.583   6.746 -0.6175  0.4033 -0.1167
55331SOL    HW177972   8.959  11.675   6.727  1.2077  0.5615 -1.2180
55331SOL    HW277973   9.004  11.546   6.663  0.8204 -0.5993  0.7708
55332SOL     OW77974   2.689   4.978  11.707 -0.1776  0.4407  0.0214
55332SOL    HW177975   2.765   5.010  11.658 -0.3113  0.8097  0.0497
55332SOL    HW277976   2.727   4.940  11.787 -0.0334  0.8083  0.1332
55333SOL     OW77977   7.405  11.142   6.714 -0.4791 -0.3721  0.6483
55333SOL    HW177978   7.325  11.098   6.742 -0.9158  0.5117  0.8567
55333SOL    HW277979   7.374  11.215   6.660  0.3066 -1.6866 -1.7238
55334SOL     OW77980   1.327  11.766   9.608 -0.5857 -0.0004  0.2395
55334SOL    HW177981   1.421  11.780   9.622 -0.6651  0.7909  0.0524
55334SOL    HW277982   1.320  11.737   9.517 -0.4408 -1.0589  0.5536
55335SOL     OW77983   3.391   9.354   7.466 -0.1897  0.4181  0.6134
55335SOL    HW177984   3.359   9.401   7.543 -0.7323 -0.1193  0.7244
55335SOL    HW277985   3.404   9.421   7.400  2.7575  1.2916  1.9273
55336SOL     OW77986   1.559   9.062   1.651 -0.2878  0.2135 -0.5773
55336SOL    HW177987   1.566   9.157   1.660  0.9973  0.0305  0.6403
55336SOL    HW277988   1.515   9.034   1.732 -0.2219 -0.2725 -0.7111
55337SOL     OW77989   1.434   4.873  11.332 -0.1560  0.6182  0.2421
55337SOL    HW177990   1.507   4.884  11.272 -0.2688 -1.0708 -0.2706
55337SOL    HW277991   1.388   4.957  11.331  1.6930  1.6686  0.4917
55338SOL     OW77992   5.524   3.600   4.291  0.3169 -0.2968 -0.1121
55338SOL    HW177993   5.555   3.678   4.245 -1.3702  0.5913  0.1777
55338SOL    HW277994   5.564   3.527   4.243  1.7925  0.7079 -0.4941
55339SOL     OW77995   0.449   7.160  12.309  0.4763 -0.6952 -0.2822
55339SOL    HW177996   0.436   7.236  12.366 -2.1991 -0.5345 -0.9803
55339SOL    HW277997   0.407   7.088  12.356  0.7017 -1.1763 -0.8078
55340SOL     OW77998   2.934   1.340   9.423 -0.3027  0.2831  0.0060
55340SOL    HW177999   2.921   1.348   9.518 -1.7248 -1.4670  0.0109
55340SOL    HW278000   2.845   1.331   9.388  0.3332 -2.7874 -1.0622
55341SOL     OW78001   7.652   4.011   1.559  0.4596 -0.1399 -0.7331
55341SOL    HW178002   7.703   4.059   1.625  2.5867 -0.7549 -1.8564
55341SOL    HW278003   7.562   4.011   1.594  1.5371 -0.8232  2.4062
55342SOL     OW78004   7.423   7.892   8.547 -0.2968 -0.1277 -0.3464
55342SOL    HW178005   7.503   7.849   8.519  0.2781  0.5396  0.2193
55342SOL    HW278006   7.385   7.833   8.612 -0.8576 -0.9689 -1.4035
55343SOL     OW78007   9.473   7.349   7.301 -0.3469 -0.0339 -0.1019
55343SOL    HW178008   9.562   7.362   7.268 -0.1484  1.4055  0.9021
55343SOL    HW278009   9.450   7.261   7.273  1.0963 -0.1493 -1.0533
55344SOL     OW78010   9.099   4.472   4.522 -0.2802  0.2889 -0.4370
55344SOL    HW178011   9.079   4.460   4.615  1.4624 -1.0573 -0.1835
55344SOL    HW278012   9.134   4.561   4.517  0.5304  0.0310  0.3816
55345SOL     OW78013   4.498   0.810  12.155  0.0553 -0.3176 -0.1321
55345SOL    HW178014   4.457   0.761  12.226 -1.0362  0.3991 -0.2335
55345SOL    HW278015   4.424   0.848  12.107  0.8008 -0.1206 -1.1629
55346SOL     OW78016   2.061  12.525   9.937 -0.7186  0.0263  0.6732
55346SOL    HW178017   1.980  12.540   9.888 -1.0420 -2.1653  0.4500
55346SOL    HW278018   2.126  12.579   9.892 -1.7929  0.9715  0.1816
55347SOL     OW78019   2.847   1.183  13.556  0.7394 -0.0529  0.3349
55347SOL    HW178020   2.806   1.191  13.643 -0.8083  2.8417 -0.4971
55347SOL    HW278021   2.922   1.243  13.560 -1.2743  2.8517 -1.1513
55348SOL     OW78022   1.905   4.439   9.496 -0.0331  0.4054  0.0984
55348SOL    HW178023   1.848   4.379   9.449 -0.1592 -1.7626  2.7628
55348SOL    HW278024   1.994   4.409   9.476 -0.0391  0.3121  0.2105
55349SOL     OW78025   5.488  13.031   4.723  0.1055  0.9166 -0.0168
55349SOL    HW178026   5.576  13.021   4.758  0.0926 -0.0375 -0.2299
55349SOL    HW278027   5.501  13.054   4.631  0.1351  2.9065  0.4477
55350SOL     OW78028  12.303   2.702   9.366  0.0613 -0.3028 -0.2256
55350SOL    HW178029  12.377   2.670   9.314  0.2498 -0.7989  0.3353
55350SOL    HW278030  12.316   2.663   9.452 -0.8944 -0.4530 -0.1398
55351SOL     OW78031   8.881  12.403  12.392  0.2393  0.3399 -0.1651
55351SOL    HW178032   8.835  12.475  12.348 -0.9871 -0.0580  0.4229
55351SOL    HW278033   8.895  12.434  12.481 -1.4062 -0.5875  0.4519
55352SOL     OW78034   6.902   6.743   3.497 -0.5348  0.1030  0.2964
55352SOL    HW178035   6.921   6.811   3.431 -0.9067  0.5392  0.6317
55352SOL    HW278036   6.849   6.679   3.450  0.2020 -0.1951 -0.1506
55353SOL     OW78037  10.305   6.474   2.815  0.1118  0.2347 -0.3416
55353SOL    HW178038  10.312   6.379   2.825  0.6704  0.2280 -0.7726
55353SOL    HW278039  10.284   6.487   2.722 -1.0664  0.4858 -0.0600
55354SOL     OW78040  10.880   1.424  12.573 -0.0398 -0.1752  0.5278
55354SOL    HW178041  10.930   1.430  12.491  0.1638  2.5877  0.7706
55354SOL    HW278042  10.792   1.401  12.545  0.3159 -0.5264 -0.3440
55355SOL     OW78043   5.327   0.375  11.130 -0.0818  0.1088 -0.2048
55355SOL    HW178044   5.390   0.304  11.144  1.2846  0.7196 -2.6712
55355SOL    HW278045   5.244   0.331  11.118  0.2625 -0.8738  0.8080
55356SOL     OW78046   4.454  11.218   2.323  0.1616  0.0521 -0.0597
55356SOL    HW178047   4.462  11.122   2.320  2.9580  0.2187 -0.4041
55356SOL    HW278048   4.385  11.238   2.260 -1.1599 -1.7629  0.7146
55357SOL     OW78049  12.002   5.504   6.246  0.3591 -0.2546  0.3024
55357SOL    HW178050  12.013   5.575   6.182  0.8126  0.1854  0.8596
55357SOL    HW278051  11.910   5.481   6.241  0.1121  0.6683  0.4221
55358SOL     OW78052  10.680  10.283   9.384 -0.7460 -0.2186 -0.1866
55358SOL    HW178053  10.701  10.357   9.326 -1.3041 -0.5073 -0.7676
55358SOL    HW278054  10.584  10.279   9.383 -0.7168 -0.9604 -0.1702
55359SOL     OW78055   9.590   9.116   3.512 -0.1360 -0.7691 -0.4858
55359SOL    HW178056   9.496   9.105   3.527 -0.0586 -0.5047  0.2479
55359SOL    HW278057   9.610   9.202   3.549  0.6186 -1.3395  0.4943
55360SOL     OW78058   8.907   5.081  11.040  0.3342  0.1791  0.3944
55360SOL    HW178059   8.906   5.076  10.944  1.9250  1.7636  0.2399
55360SOL    HW278060   8.853   5.156  11.062  0.2929  0.0597  0.7097
55361SOL     OW78061   2.677   6.722  11.191 -0.9481  0.1370  0.4337
55361SOL    HW178062   2.663   6.628  11.199  0.9493 -0.0843  2.2894
55361SOL    HW278063   2.614   6.761  11.252 -1.5848  0.0764 -0.1740
55362SOL     OW78064  13.720   5.883  13.848 -0.0177 -0.0939 -0.4526
55362SOL    HW178065  13.696   5.933  13.926  0.7981 -0.4600  0.0466
55362SOL    HW278066  13.797   5.832  13.874  0.2832 -0.2128 -1.4966
55363SOL     OW78067   1.275  11.683   3.103  0.0793 -0.3639  0.0334
55363SOL    HW178068   1.320  11.654   3.023  0.8301 -0.0428  0.3296
55363SOL    HW278069   1.199  11.731   3.072 -0.7308 -1.9033 -0.4833
55364SOL     OW78070  13.882   3.751  11.330 -0.0615  0.3461 -0.3888
55364SOL    HW178071  13.892   3.833  11.378  0.8471  0.9169 -1.4901
55364SOL    HW278072  13.862   3.686  11.397 -1.4055  1.5635  0.4408
55365SOL     OW78073   1.510   9.854  10.059  0.6502  0.9818 -0.4864
55365SOL    HW178074   1.421   9.843  10.094  1.1328 -1.2597  0.1735
55365SOL    HW278075   1.557   9.902  10.126  0.6935 -0.4514  0.5645
55366SOL     OW78076   9.280   5.856   9.266  0.2477  0.1235  0.1082
55366SOL    HW178077   9.344   5.908   9.217  2.0246 -0.2031  1.9343
55366SOL    HW278078   9.207   5.916   9.282  0.1251  0.5623 -1.8897
55367SOL     OW78079   8.277   8.285  13.379  0.1064 -0.5167  0.0121
55367SOL    HW178080   8.312   8.231  13.450 -0.8029 -0.0013  0.8613
55367SOL    HW278081   8.246   8.365  13.422  0.3229  0.1811 -1.0765
55368SOL     OW78082   8.275   0.176   7.749  0.6630  0.3643 -0.7624
55368SOL    HW178083   8.302   0.209   7.664 -0.0795  1.9358 -0.4384
55368SOL    HW278084   8.303   0.244   7.811 -1.0519  0.4918 -0.0727
55369SOL     OW78085   7.611  10.330   4.998 -0.2222  0.4496  0.4710
55369SOL    HW178086   7.634  10.369   4.913  2.1764  2.1563  1.7977
55369SOL    HW278087   7.628  10.237   4.986 -0.7513  0.5295 -1.1622
55370SOL     OW78088  13.238   8.878   4.900 -0.1786  0.0505  0.7122
55370SOL    HW178089  13.266   8.801   4.851 -1.0671 -0.3909  0.8702
55370SOL    HW278090  13.164   8.912   4.851  0.6190  1.2068  0.2859
55371SOL     OW78091   1.470   1.309   0.900 -0.0486 -0.6015  0.2833
55371SOL    HW178092   1.463   1.367   0.975 -0.8941 -2.4869  1.7571
55371SOL    HW278093   1.563   1.285   0.897  0.1381  0.1226  0.2095
55372SOL     OW78094   1.995   4.671  10.335 -0.1285  0.2869 -0.5013
55372SOL    HW178095   2.034   4.623  10.262  0.0947  1.6739 -1.3268
55372SOL    HW278096   1.916   4.621  10.356  1.5868 -2.1548  0.7042
55373SOL     OW78097   8.869   4.808  11.526  0.2677  1.2665  0.2249
55373SOL    HW178098   8.884   4.846  11.439  1.7518 -1.7066 -0.9782
55373SOL    HW278099   8.801   4.863  11.564 -0.7286  2.5145 -2.9572
55374SOL     OW78100   0.760   7.807   0.708 -0.2671 -0.2735  0.4225
55374SOL    HW178101   0.666   7.824   0.705 -0.3688 -0.8305  0.4458
55374SOL    HW278102   0.768   7.712   0.700  0.2240 -0.3566  1.6172
55375SOL     OW78103  13.025  10.651   3.739  0.0351  0.5869 -0.0577
55375SOL    HW178104  13.022  10.646   3.643 -1.9915 -0.2230  0.0023
55375SOL    HW278105  13.028  10.560   3.767 -2.2873  0.6601  0.6416
55376SOL     OW78106   0.237   5.809   8.288 -0.4261  0.1319  0.6263
55376SOL    HW178107   0.208   5.882   8.342  1.6287  1.5693 -0.1065
55376SOL    HW278108   0.304   5.766   8.341  0.7198  0.8050 -0.2495
55377SOL     OW78109   1.184  13.084   5.489  0.0472 -0.1645  0.3033
55377SOL    HW178110   1.214  13.023   5.556 -0.4668 -0.0159  0.6762
55377SOL    HW278111   1.229  13.057   5.409  0.7296 -0.2830  0.7303
55378SOL     OW78112   7.224   5.369   9.648  0.1565  0.0251  0.4305
55378SOL    HW178113   7.143   5.335   9.686  0.4599 -2.2899 -0.7994
55378SOL    HW278114   7.281   5.386   9.723 -1.1255  0.8441  1.2622
55379SOL     OW78115  11.052   3.509   7.096  0.0836 -0.2148 -0.8138
55379SOL    HW178116  11.128   3.519   7.153 -0.4799  0.2553 -0.1315
55379SOL    HW278117  10.991   3.456   7.147 -0.6059  0.5872 -0.7860
55380SOL     OW78118   5.510   0.714   8.784  0.2319 -0.1144 -0.2372
55380SOL    HW178119   5.564   0.770   8.839  0.3920 -0.0198 -0.4894
55380SOL    HW278120   5.508   0.758   8.699 -0.5992  0.1143 -0.1138
55381SOL     OW78121   5.490   4.518   9.190  0.2963  0.4274 -0.7603
55381SOL    HW178122   5.514   4.593   9.244 -0.2697  0.0704  0.0105
55381SOL    HW278123   5.559   4.454   9.206 -0.5988 -0.2291  0.7010
55382SOL     OW78124   1.428   8.067   0.901 -0.1435 -0.7020 -0.3891
55382SOL    HW178125   1.445   8.069   0.995 -0.5685 -0.2331 -0.3208
55382SOL    HW278126   1.423   7.973   0.880  0.8279 -0.8274 -0.1158
55383SOL     OW78127  12.003   4.988  10.076  0.2276 -0.3582  0.3244
55383SOL    HW178128  11.964   5.032  10.151 -0.0472 -1.3676  0.7873
55383SOL    HW278129  11.940   4.919  10.053  1.3141 -1.4451  0.5302
55384SOL     OW78130  11.201   4.596  10.992 -0.2502 -0.3107  0.2420
55384SOL    HW178131  11.191   4.553  10.907  1.7537 -1.8198  0.6877
55384SOL    HW278132  11.262   4.668  10.975 -0.1647 -0.3649  0.3132
55385SOL     OW78133  12.460   5.125  11.882  0.2549  0.6608  0.4905
55385SOL    HW178134  12.397   5.056  11.864  0.2980  0.7456  0.0178
55385SOL    HW278135  12.426   5.169  11.960 -0.2903  0.7352  0.2089
55386SOL     OW78136  11.049   7.121  13.155  0.0085  0.6278  0.7009
55386SOL    HW178137  10.963   7.120  13.112  1.2884 -1.6994 -2.1846
55386SOL    HW278138  11.029   7.128  13.248 -3.2467  1.1073  0.0910
55387SOL     OW78139  13.716   1.535   6.348  0.3549  0.0979  0.3247
55387SOL    HW178140  13.740   1.539   6.441  0.3822  0.9277  0.2935
55387SOL    HW278141  13.644   1.598   6.340 -0.7387 -1.1354  0.0911
55388SOL     OW78142  13.474   1.477  12.989 -0.3861 -0.3141 -0.1022
55388SOL    HW178143  13.482   1.569  13.015 -3.1637 -0.3209  1.0345
55388SOL    HW278144  13.538   1.468  12.917  1.0949  2.0408  0.7735
55389SOL     OW78145   0.313  12.096   2.097 -0.4128 -0.1046 -0.3095
55389SOL    HW178146   0.301  12.133   2.009  0.5005  0.4568 -0.2090
55389SOL    HW278147   0.407  12.101   2.113 -0.8645  3.7063  2.3518
55390SOL     OW78148  13.583  11.344   9.874 -0.6693  0.6822 -0.0245
55390SOL    HW178149  13.595  11.429   9.917  0.6825  1.4919 -1.8675
55390SOL    HW278150  13.559  11.366   9.784 -0.1120 -0.8908 -0.5893
55391SOL     OW78151  11.601  10.637   6.396  0.1594  0.3709 -0.3727
55391SOL    HW178152  11.684  10.685   6.398  0.4638 -0.1678  0.4967
55391SOL    HW278153  11.627  10.545   6.388 -0.3327  0.1704  0.2259
55392SOL     OW78154   9.888   6.151   2.563  0.3009 -0.5215  0.5867
55392SOL    HW178155   9.977   6.170   2.593  0.0307  0.5894  0.7192
55392SOL    HW278156   9.858   6.080   2.620  0.6326 -0.0110  1.4177
55393SOL     OW78157  12.736   2.828   4.757 -0.2107 -0.0801  0.1229
55393SOL    HW178158  12.725   2.903   4.698 -0.0004  0.8145  1.1828
55393SOL    HW278159  12.647   2.798   4.774 -0.3376  0.3168  0.1677
55394SOL     OW78160   9.346   2.919  11.391  0.5454  0.0128  0.1759
55394SOL    HW178161   9.408   2.847  11.401  1.9376  1.3254  1.5891
55394SOL    HW278162   9.293   2.895  11.315  1.0017 -2.4310  0.5570
55395SOL     OW78163   9.900  14.022  11.827  0.2129  0.2957  0.6357
55395SOL    HW178164   9.957  13.952  11.857 -0.7792 -0.0211  1.8666
55395SOL    HW278165   9.900  14.086  11.898  0.4696  1.1644 -0.1300
55396SOL     OW78166   6.213   5.732   7.330  0.3252  0.2710 -0.3420
55396SOL    HW178167   6.141   5.671   7.314  0.7994 -0.6389  0.8509
55396SOL    HW278168   6.267   5.689   7.396  0.6349  2.0117  0.6143
55397SOL     OW78169  10.505   4.608   4.158 -0.0744 -0.1498  0.0567
55397SOL    HW178170  10.527   4.668   4.086 -1.9802  0.5056 -0.0314
55397SOL    HW278171  10.557   4.639   4.232  0.4062  0.3998 -0.4956
55398SOL     OW78172   2.644   0.650  12.948 -0.1927 -0.0919 -1.0083
55398SOL    HW178173   2.711   0.645  13.016  0.1676  2.0482 -1.1449
55398SOL    HW278174   2.693   0.664  12.867 -0.7223 -0.3463 -1.3799
55399SOL     OW78175   5.795   3.977   3.957  0.4073  0.1491 -0.5226
55399SOL    HW178176   5.883   3.956   3.927  1.0981  4.6834 -2.5726
55399SOL    HW278177   5.738   3.921   3.904  1.9596 -0.9961 -1.0632
55400SOL     OW78178   1.336   9.578  13.016  0.2870 -0.5665  0.1944
55400SOL    HW178179   1.246   9.602  12.995 -0.1983 -1.7870  0.7540
55400SOL    HW278180   1.385   9.597  12.937 -0.6639 -0.8696 -0.4873
55401SOL     OW78181   6.812   0.813   0.656 -0.5232 -0.6560  0.4926
55401SOL    HW178182   6.830   0.736   0.710 -1.1257 -0.4216  1.0404
55401SOL    HW278183   6.898   0.854   0.644  0.1597 -2.5343 -1.5924
55402SOL     OW78184   1.987   8.294   8.862  0.1844 -0.2884 -0.0932
55402SOL    HW178185   2.003   8.201   8.843 -1.7850 -0.5688 -0.5746
55402SOL    HW278186   2.056   8.340   8.814  1.6090 -1.5146  0.7120
55403SOL     OW78187   3.018   4.345   5.734 -0.0224 -0.7171 -0.3968
55403SOL    HW178188   3.076   4.298   5.674 -0.5090 -0.9285 -0.7082
55403SOL    HW278189   2.985   4.419   5.683 -0.4794 -0.9259 -0.4072
55404SOL     OW78190   3.599  13.493   8.329 -0.0285  0.2723  0.0164
55404SOL    HW178191   3.659  13.530   8.394 -0.6157  0.6963  0.3262
55404SOL    HW278192   3.631  13.528   8.245  0.2426  0.3829  0.1632
55405SOL     OW78193   6.515   1.770   7.039  0.6997 -0.6874  0.5008
55405SOL    HW178194   6.429   1.749   7.004  0.1678  1.5044  0.3457
55405SOL    HW278195   6.499   1.841   7.101  2.6449  1.7269 -1.5434
55406SOL     OW78196   9.860   8.405  13.515 -0.5313 -0.1195  0.3998
55406SOL    HW178197   9.916   8.343  13.562  1.4506  0.4928 -1.0062
55406SOL    HW278198   9.840   8.361  13.433  2.3668  1.5972 -1.4084
55407SOL     OW78199   2.743   2.290   6.103 -0.2749 -0.0667  0.3646
55407SOL    HW178200   2.711   2.378   6.122  2.7279  1.4618 -0.7807
55407SOL    HW278201   2.810   2.274   6.169 -0.8159 -1.5606  0.5896
55408SOL     OW78202   8.962   5.936   2.321 -0.5016 -0.3048 -0.1075
55408SOL    HW178203   8.911   5.901   2.394 -1.6571  0.4506 -0.5205
55408SOL    HW278204   8.913   5.911   2.242 -0.4649  0.7522 -0.4914
55409SOL     OW78205   2.148   6.960   8.310 -0.6091  0.0407  0.5024
55409SOL    HW178206   2.098   7.037   8.335 -1.3833  0.3102 -1.6779
55409SOL    HW278207   2.134   6.898   8.382 -2.4499  0.8404  0.8960
55410SOL     OW78208  10.958   4.232   2.276 -0.1536  0.4590 -0.0922
55410SOL    HW178209  10.895   4.303   2.261 -1.3921 -0.5390  0.2363
55410SOL    HW278210  10.969   4.230   2.371  2.2033  2.1256 -0.2494
55411SOL     OW78211   5.183   8.167   3.475  0.1685  0.1167  0.3141
55411SOL    HW178212   5.231   8.113   3.412  0.6840  1.5929 -0.6057
55411SOL    HW278213   5.139   8.233   3.421 -1.9741 -0.4701  1.2409
55412SOL     OW78214   8.523   6.269   2.758 -0.6494  0.7939  0.0951
55412SOL    HW178215   8.551   6.224   2.678 -1.6540  0.8611 -0.3160
55412SOL    HW278216   8.524   6.362   2.734 -0.2790  0.8613  0.3803
55413SOL     OW78217  12.251   9.795  13.899 -0.3600  0.5355  0.7845
55413SOL    HW178218  12.230   9.773  13.809 -0.0388  0.0741  0.8156
55413SOL    HW278219  12.215   9.723  13.950 -1.8099  1.4885  1.1764
55414SOL     OW78220   0.698   7.090   3.792  0.0639  0.2349  0.4798
55414SOL    HW178221   0.741   7.044   3.720 -1.8610 -1.4990  0.3476
55414SOL    HW278222   0.684   7.179   3.759 -1.5979 -0.7573 -1.7285
55415SOL     OW78223  11.006   4.186   5.720 -0.2344  0.1407 -0.0868
55415SOL    HW178224  10.995   4.281   5.725 -2.5964 -0.0835  0.0903
55415SOL    HW278225  10.947   4.158   5.650 -1.1419 -1.3638  1.2021
55416SOL     OW78226   4.247   7.855   0.501  0.4938  0.4651 -0.1259
55416SOL    HW178227   4.211   7.900   0.425  0.4063  1.7555  0.6362
55416SOL    HW278228   4.283   7.774   0.467 -1.8410 -0.2249 -1.1586
55417SOL     OW78229   2.200  12.451   7.521 -0.4543 -0.0868 -0.3367
55417SOL    HW178230   2.181  12.541   7.493 -1.4920 -0.5978 -1.3399
55417SOL    HW278231   2.292  12.439   7.498 -0.6102  0.3495 -1.2603
55418SOL     OW78232  10.933   5.693  14.002 -0.0459  0.1169  0.4639
55418SOL    HW178233  10.838   5.695  14.002 -0.0461  0.1334  0.3769
55418SOL    HW278234  10.956   5.609  13.962 -0.0406 -0.8052  2.2773
55419SOL     OW78235   2.454  12.390   6.500  0.1644  0.2303  0.4101
55419SOL    HW178236   2.426  12.481   6.505 -0.0468  0.1304  1.2628
55419SOL    HW278237   2.544  12.393   6.469 -0.4858  0.6078 -1.5822
55420SOL     OW78238   7.176   7.863   0.491 -0.6159 -0.0973 -0.7101
55420SOL    HW178239   7.201   7.951   0.461 -1.2120  0.3847  0.1560
55420SOL    HW278240   7.097   7.877   0.544  0.6042 -0.8255  1.4556
55421SOL     OW78241   3.364   8.554   7.109  0.0286 -0.0659  0.3305
55421SOL    HW178242   3.292   8.610   7.080 -0.2247 -1.1513 -1.2855
55421SOL    HW278243   3.372   8.572   7.203 -1.0539  1.5011  0.1629
55422SOL     OW78244  12.536   6.557   0.897  0.1246 -0.2695 -0.1881
55422SOL    HW178245  12.490   6.492   0.843  0.9191  0.0265 -1.2561
55422SOL    HW278246  12.479   6.634   0.896 -0.4817 -0.6843  0.5036
55423SOL     OW78247   5.941   7.023   5.073  0.1098  0.3958  0.3754
55423SOL    HW178248   5.921   7.116   5.062 -3.4144 -0.0541  1.6400
55423SOL    HW278249   6.010   7.020   5.138 -0.4532  2.1255  1.1067
55424SOL     OW78250   5.011  10.909   8.115  0.6222 -0.2396 -0.3691
55424SOL    HW178251   5.076  10.942   8.053  0.6421 -1.8848 -1.2605
55424SOL    HW278252   4.929  10.948   8.087  0.7407 -0.4661 -1.0476
55425SOL     OW78253   0.219   0.028   4.091  0.7205  0.2700  0.1823
55425SOL    HW178254   0.271  -0.043   4.051 -0.0235 -0.4372  0.4348
55425SOL    HW278255   0.184   0.077   4.017 -1.2534 -1.4695 -0.1319
55426SOL     OW78256   1.262   7.420   5.506  0.0935  0.3549 -0.2894
55426SOL    HW178257   1.222   7.359   5.568  0.6593  0.6197  0.3433
55426SOL    HW278258   1.220   7.504   5.526  0.9571  0.6447  0.4077
55427SOL     OW78259   1.120  11.779  13.975 -0.2432 -0.2004  0.2590
55427SOL    HW178260   1.191  11.840  13.991  1.2382 -2.2154  2.0266
55427SOL    HW278261   1.041  11.832  13.980  0.9641  1.6328  1.3402
55428SOL     OW78262   0.251   5.573   5.409 -0.0463 -0.2127  0.1257
55428SOL    HW178263   0.264   5.567   5.504  0.1043 -3.7377  0.0237
55428SOL    HW278264   0.158   5.555   5.396  0.1106 -0.6224 -0.4410
55429SOL     OW78265   9.846   8.400   1.866  0.4105  0.2549  0.2380
55429SOL    HW178266   9.763   8.399   1.914 -0.7334  1.3404 -1.5674
55429SOL    HW278267   9.911   8.427   1.931 -0.8662  0.5916  1.4287
55430SOL     OW78268   5.141   2.546  12.912  0.9388  0.3297 -0.2897
55430SOL    HW178269   5.131   2.472  12.972  0.6542  0.4487 -0.1870
55430SOL    HW278270   5.068   2.604  12.935 -1.3199 -1.1699 -3.0423
55431SOL     OW78271   0.787   5.510  12.495  0.0753 -0.7146  0.2888
55431SOL    HW178272   0.859   5.574  12.497  0.1182 -0.7894  1.4675
55431SOL    HW278273   0.802   5.460  12.414 -0.5344  1.4012 -1.2282
55432SOL     OW78274   3.398   3.308   7.266  0.0724 -0.0837  0.4926
55432SOL    HW178275   3.438   3.383   7.309  0.3932 -0.1381  0.2921
55432SOL    HW278276   3.452   3.233   7.292  0.2197 -0.1274  0.0668
55433SOL     OW78277   4.847   2.752   1.215 -0.4222 -0.2896 -0.1374
55433SOL    HW178278   4.867   2.783   1.303 -3.5291 -0.6302  0.8170
55433SOL    HW278279   4.753   2.731   1.218 -0.1315 -2.4891 -2.8894
55434SOL     OW78280   6.783   1.895   8.262 -0.0765  0.1037  0.5380
55434SOL    HW178281   6.877   1.895   8.241  0.2577  0.6462  1.9413
55434SOL    HW278282   6.759   1.802   8.263  0.7468 -0.1163  1.3593
55435SOL     OW78283  11.528  11.322  13.687 -0.0211 -0.1899  0.1656
55435SOL    HW178284  11.546  11.385  13.757 -0.9470  0.3471 -0.0703
55435SOL    HW278285  11.545  11.370  13.607  2.4255 -1.2154 -0.0176
55436SOL     OW78286   0.629   6.055   5.468  0.4585  0.2201  0.0816
55436SOL    HW178287   0.686   6.003   5.411 -0.0726 -0.3023  0.0212
55436SOL    HW278288   0.652   6.028   5.556  0.4164  0.1246  0.0638
55437SOL     OW78289   1.044  11.943   8.325 -0.1421  0.1647 -0.6018
55437SOL    HW178290   1.052  11.907   8.413 -0.4369 -0.4274 -0.8139
55437SOL    HW278291   0.952  11.969   8.318  0.3299  2.1812  0.0042
55438SOL     OW78292  12.257   4.865   1.033  0.1690  0.2813 -0.2333
55438SOL    HW178293  12.224   4.942   1.079  1.0953  1.3934 -1.3818
55438SOL    HW278294  12.207   4.862   0.952  0.3351 -0.1816 -0.3217
55439SOL     OW78295   6.969   8.623  12.998 -0.5738 -0.1786  0.1539
55439SOL    HW178296   6.891   8.662  13.039 -1.1015 -0.6671 -0.3566
55439SOL    HW278297   6.957   8.529  13.011 -0.4186 -0.2943 -0.5382
55440SOL     OW78298   6.219   7.957   2.948  0.5227 -0.0297  0.5919
55440SOL    HW178299   6.162   8.018   2.995 -0.4016  0.1249 -0.6727
55440SOL    HW278300   6.253   8.008   2.874  1.0114 -0.5957  0.4175
55441SOL     OW78301  13.928   7.356   2.795 -0.3241  0.0684  0.1331
55441SOL    HW178302  14.013   7.392   2.821 -0.0035 -0.0685 -0.6866
55441SOL    HW278303  13.911   7.287   2.859 -0.1616  0.5665  0.7280
55442SOL     OW78304  13.201   1.686   1.756  0.1179  0.0379 -0.3586
55442SOL    HW178305  13.148   1.610   1.781  1.2499 -0.4210  0.7451
55442SOL    HW278306  13.287   1.669   1.795  1.4873  0.1778 -3.0935
55443SOL     OW78307  10.881  13.812   5.452 -0.0435  0.4529 -0.7833
55443SOL    HW178308  10.830  13.841   5.528 -1.4162  1.7827 -2.1567
55443SOL    HW278309  10.824  13.752   5.406  0.3999  0.4144 -1.2889
55444SOL     OW78310   3.783   9.261   1.952 -0.2203 -0.0271  0.7467
55444SOL    HW178311   3.876   9.268   1.972  0.2078 -1.7455 -0.4367
55444SOL    HW278312   3.763   9.341   1.902  0.7635  0.0587  0.4779
55445SOL     OW78313   5.456   5.626   8.913 -0.2572 -0.0628 -0.3140
55445SOL    HW178314   5.509   5.561   8.867  0.2743 -1.1831  1.7605
55445SOL    HW278315   5.382   5.643   8.855 -2.0322 -4.7360  0.1856
55446SOL     OW78316  11.172  13.337  12.660  0.2472 -0.6854  0.8523
55446SOL    HW178317  11.119  13.354  12.738  0.3298 -1.0124  0.9791
55446SOL    HW278318  11.173  13.421  12.613 -0.1673 -0.6096  0.9787
55447SOL     OW78319   6.597   7.953  11.217  0.7168  0.5080 -0.4972
55447SOL    HW178320   6.563   7.869  11.248 -0.7482  0.5713 -1.7754
55447SOL    HW278321   6.692   7.942  11.216  0.8084  0.1132  2.6819
55448SOL     OW78322   8.101  12.387   1.690 -0.7013 -0.0843  0.4922
55448SOL    HW178323   8.187  12.416   1.659 -0.8428 -0.3067 -0.1430
55448SOL    HW278324   8.088  12.433   1.772  0.0994 -0.1782  0.6805
55449SOL     OW78325   2.916   8.799  10.425 -0.0558  0.9303  0.1507
55449SOL    HW178326   2.884   8.715  10.393 -0.7377  0.9773  0.6828
55449SOL    HW278327   2.995   8.777  10.475 -0.0816  0.6415  0.0679
55450SOL     OW78328   8.153   4.728   4.044 -0.9989  0.1475  0.3039
55450SOL    HW178329   8.238   4.714   4.002 -0.9195 -0.0647  0.5358
55450SOL    HW278330   8.134   4.646   4.089 -1.4078  0.1359  0.1170
55451SOL     OW78331   7.364   7.515  12.386 -0.3589 -0.1252 -0.1638
55451SOL    HW178332   7.389   7.451  12.319  0.0087 -0.7304  0.5452
55451SOL    HW278333   7.354   7.464  12.466  0.0545  0.7162  0.4372
55452SOL     OW78334   9.772   4.197  10.447 -0.0664  0.1766 -0.3367
55452SOL    HW178335   9.734   4.109  10.454 -1.3863  0.7079 -0.6399
55452SOL    HW278336   9.814   4.211  10.532  0.2531 -0.7911 -0.3261
55453SOL     OW78337   0.904  11.382   7.773  0.9373  0.4547 -0.4509
55453SOL    HW178338   0.826  11.404   7.825  0.3144  0.4791 -1.3744
55453SOL    HW278339   0.878  11.398   7.682  2.4580  1.7517 -0.7055
55454SOL     OW78340   3.111  10.354  13.606  0.8968  0.1604 -0.0596
55454SOL    HW178341   3.026  10.384  13.574  1.5125  2.9276  0.6192
55454SOL    HW278342   3.149  10.305  13.532 -0.2229  1.0915 -1.2926
55455SOL     OW78343  13.456   6.850   3.078  0.3160 -0.2318  0.2001
55455SOL    HW178344  13.442   6.851   3.172 -0.6999  1.1767  0.0699
55455SOL    HW278345  13.381   6.898   3.042  0.9990 -0.2023 -1.2725
55456SOL     OW78346   9.692   4.280   6.725 -0.4758 -0.0244 -0.3000
55456SOL    HW178347   9.781   4.278   6.690 -0.6526 -1.0758 -0.7172
55456SOL    HW278348   9.648   4.348   6.675 -0.0142  0.2349 -0.3544
55457SOL     OW78349   9.388   1.443   9.684 -0.0812 -0.0391 -0.1615
55457SOL    HW178350   9.471   1.456   9.639  1.1311 -2.5692  1.1220
55457SOL    HW278351   9.329   1.410   9.616  0.3068  0.6555 -0.8469
55458SOL     OW78352   2.023  11.514  10.825  0.0051  0.0503  0.0036
55458SOL    HW178353   1.932  11.542  10.832  0.4522  1.3681  0.7648
55458SOL    HW278354   2.070  11.591  10.794  0.7232 -0.9277 -1.4609
55459SOL     OW78355  11.307  13.796   8.692 -0.6669  0.2754  0.0322
55459SOL    HW178356  11.290  13.750   8.774  0.7329  0.0085  0.1992
55459SOL    HW278357  11.291  13.888   8.712 -1.0789  0.1301  0.3828
55460SOL     OW78358   4.871  14.005   4.654  0.3996  0.2078 -0.0854
55460SOL    HW178359   4.931  13.952   4.706 -0.0705  0.5542  0.8302
55460SOL    HW278360   4.928  14.058   4.598  0.8667 -1.5849 -1.3833
55461SOL     OW78361   4.984  11.314   9.649 -0.5679 -0.3656 -0.1945
55461SOL    HW178362   4.930  11.259   9.706  1.5673 -0.8331  1.4655
55461SOL    HW278363   4.936  11.315   9.566 -2.6342 -1.5147  0.8910
55462SOL     OW78364   0.298  10.986   2.144  0.2941 -0.2879 -0.2670
55462SOL    HW178365   0.337  10.939   2.071 -0.0381  1.4503 -1.6223
55462SOL    HW278366   0.214  11.018   2.110  1.0172  2.2693  0.1462
55463SOL     OW78367   6.567   9.938   4.041  0.1412  0.5278  0.0991
55463SOL    HW178368   6.535  10.013   3.991 -0.7825 -0.6485 -1.1630
55463SOL    HW278369   6.661   9.952   4.048 -0.0007  1.7341 -0.2179
55464SOL     OW78370   7.286   0.802  12.435  0.3328  0.3123 -0.3308
55464SOL    HW178371   7.325   0.841  12.514  0.8763 -0.1645 -0.3595
55464SOL    HW278372   7.198   0.840  12.431  0.7191  1.2584 -0.1596
55465SOL     OW78373   5.682   4.463   5.298  0.4972  0.6367  0.1112
55465SOL    HW178374   5.742   4.485   5.369 -1.3422  0.0445  1.9522
55465SOL    HW278375   5.684   4.368   5.293 -1.1916  0.5088  1.1067
55466SOL     OW78376   7.304   6.400   3.011 -0.1820  0.3688 -0.0797
55466SOL    HW178377   7.288   6.305   3.011 -0.7811  0.4627 -0.6832
55466SOL    HW278378   7.273   6.429   2.926 -1.0986  1.2926  0.5552
55467SOL     OW78379   2.218  13.045  12.799 -0.0204 -0.3043 -0.4535
55467SOL    HW178380   2.225  12.994  12.879 -0.0493  1.2877  0.6077
55467SOL    HW278381   2.293  13.104  12.800  0.3211 -0.6602 -1.9185
55468SOL     OW78382   1.644   4.969   1.882 -0.5011 -0.1957  0.7096
55468SOL    HW178383   1.727   4.937   1.846 -1.3420 -1.1096 -0.4712
55468SOL    HW278384   1.648   4.947   1.975  0.3214 -0.7859  0.5430
55469SOL     OW78385  13.705   3.611   7.722 -0.5412  0.3884  0.1133
55469SOL    HW178386  13.629   3.597   7.778 -1.9566  1.6755 -1.3661
55469SOL    HW278387  13.729   3.524   7.691 -1.5443 -0.0235  0.4643
55470SOL     OW78388   5.708   1.974   3.510 -0.5380  0.2763 -0.0392
55470SOL    HW178389   5.683   1.887   3.480 -1.7109  0.7457 -0.4703
55470SOL    HW278390   5.796   1.987   3.475 -0.6763 -0.4185 -0.6616
55471SOL     OW78391   0.944  13.442  10.134 -0.3872  0.6078 -0.1192
55471SOL    HW178392   1.005  13.439  10.060 -0.1127  1.2458  0.0782
55471SOL    HW278393   1.000  13.439  10.211 -0.6600  0.2215  0.0664
55472SOL     OW78394   8.636   2.903   3.596  1.1195  0.2137  0.1435
55472SOL    HW178395   8.627   2.996   3.616  0.2677 -0.0110  0.8350
55472SOL    HW278396   8.546   2.870   3.593  1.4593 -0.8759  1.2775
55473SOL     OW78397  11.542   7.907   3.001  0.6853  0.1598 -0.2432
55473SOL    HW178398  11.600   7.839   3.034 -0.2762 -0.3390  0.4968
55473SOL    HW278399  11.457   7.863   2.993  0.4319  0.8244 -1.4329
55474SOL     OW78400   1.669  12.441   1.636 -0.2629 -0.5223  0.2835
55474SOL    HW178401   1.593  12.480   1.593 -0.7700 -1.8007 -0.0411
55474SOL    HW278402   1.633  12.367   1.685  0.5773 -0.2276  1.3941
55475SOL     OW78403  12.614  10.641  10.752  0.4140 -0.2441  0.4017
55475SOL    HW178404  12.703  10.677  10.753 -0.8704  3.3126  0.7792
55475SOL    HW278405  12.589  10.643  10.659  0.4876 -0.6565  0.3702
55476SOL     OW78406  10.378   7.052  11.662  0.4234  0.0784 -0.1530
55476SOL    HW178407  10.468   7.055  11.695  0.9979  1.6003 -1.7403
55476SOL    HW278408  10.324   7.066  11.740  1.5541 -0.4230  0.7644
55477SOL     OW78409  12.560  13.929   5.829  0.1051  0.1559  0.1631
55477SOL    HW178410  12.503  13.994   5.789 -0.0149 -0.6315 -0.9935
55477SOL    HW278411  12.636  13.925   5.771 -1.0469 -2.6093 -1.3159
55478SOL     OW78412   0.918   3.416   8.119 -0.2478  0.0085 -0.1282
55478SOL    HW178413   0.845   3.477   8.134  0.5025  0.6945  0.9030
55478SOL    HW278414   0.892   3.335   8.162 -0.6412  0.0642 -0.2605
55479SOL     OW78415  10.066  10.373   4.906  0.1772  0.2778 -0.0081
55479SOL    HW178416  10.136  10.349   4.845 -0.3449 -0.8872 -0.1783
55479SOL    HW278417  10.097  10.344   4.991 -0.6522 -1.6061 -0.2764
55480SOL     OW78418   3.106   1.888  12.877  0.1432 -0.5334  0.2835
55480SOL    HW178419   3.081   1.843  12.958  0.5649 -1.5228 -0.1203
55480SOL    HW278420   3.024   1.906  12.833  0.0053 -2.0139 -0.1187
55481SOL     OW78421  10.186   8.674  10.525  0.1416 -0.6116 -0.2214
55481SOL    HW178422  10.152   8.763  10.517 -0.5270 -0.6002  1.9920
55481SOL    HW278423  10.217   8.651  10.437  1.8236  2.3779 -0.5439
55482SOL     OW78424   3.079   1.404   0.967  0.1399 -0.2168  0.0845
55482SOL    HW178425   3.023   1.394   0.890  0.6662  0.9378 -0.4664
55482SOL    HW278426   3.165   1.423   0.931  0.6917 -1.0030  0.9458
55483SOL     OW78427  14.026   0.220  13.307 -0.4299 -0.2311  0.4127
55483SOL    HW178428  13.932   0.228  13.297 -0.3133  2.7624  0.9499
55483SOL    HW278429  14.049   0.283  13.374  1.8544 -1.7670  1.2163
55484SOL     OW78430  14.045   0.654  13.662 -0.1359  0.0046 -0.4213
55484SOL    HW178431  14.132   0.684  13.637 -0.5876  1.5364 -0.2260
55484SOL    HW278432  14.059   0.607  13.745  0.6216 -0.5929 -0.8765
55485SOL     OW78433   1.852   9.737  11.470  0.5611  0.7193  0.5464
55485SOL    HW178434   1.860   9.733  11.374  0.4059 -0.1592  0.5669
55485SOL    HW278435   1.940   9.717  11.502 -0.0505 -2.2848  0.6322
55486SOL     OW78436   6.960   7.737   5.752  0.4936  0.7213 -0.4423
55486SOL    HW178437   7.025   7.807   5.762  0.0618  0.9362  1.0444
55486SOL    HW278438   6.885   7.767   5.803 -0.3543 -0.0609 -1.1927
55487SOL     OW78439  10.696  13.731  13.728  0.1826  0.4543  0.3771
55487SOL    HW178440  10.697  13.807  13.785 -0.2538  0.0849  0.8854
55487SOL    HW278441  10.725  13.659  13.783 -0.3879  0.0682  0.1846
55488SOL     OW78442   2.669   7.299   1.957 -0.5167 -0.1150  0.3909
55488SOL    HW178443   2.660   7.380   2.007 -0.7193  1.1769 -1.6163
55488SOL    HW278444   2.582   7.282   1.923 -0.5725 -1.4659  1.1610
55489SOL     OW78445   7.192   6.486   2.772  0.1105 -0.7694 -0.4580
55489SOL    HW178446   7.220   6.575   2.749  2.6548 -1.2471  0.4848
55489SOL    HW278447   7.156   6.450   2.690  0.2621  0.6663 -1.1824
55490SOL     OW78448   4.134   1.785   1.740  0.4673  0.0874 -0.4964
55490SOL    HW178449   4.078   1.805   1.665  1.3308  0.2965 -1.0968
55490SOL    HW278450   4.074   1.748   1.805 -0.3996  0.4757 -1.0491
55491SOL     OW78451   4.762   8.022   2.095  0.1830  0.6143 -0.2861
55491SOL    HW178452   4.727   8.017   2.006  0.7126 -1.5217 -0.4237
55491SOL    HW278453   4.735   8.109   2.126 -1.4835  0.7435 -1.9024
55492SOL     OW78454  11.003   0.368   4.265 -0.0691 -0.5350  0.1930
55492SOL    HW178455  10.921   0.417   4.270  0.9683  1.1478  1.6600
55492SOL    HW278456  11.066   0.430   4.230  1.1787 -0.9491  1.6070
55493SOL     OW78457  12.250   3.810  14.041 -0.5546 -0.7052  0.4428
55493SOL    HW178458  12.254   3.813  13.946 -2.5757 -0.5770  0.3123
55493SOL    HW278459  12.298   3.731  14.065  0.4663 -0.4322 -0.6295
55494SOL     OW78460   6.022   0.814  10.838 -0.5446  0.4238  0.1395
55494SOL    HW178461   5.982   0.731  10.864 -0.1285 -0.1793 -1.0451
55494SOL    HW278462   5.948   0.871  10.816 -1.0264  1.5566  4.0374
55495SOL     OW78463  11.506  10.143   0.572 -0.0809 -0.1752  0.6782
55495SOL    HW178464  11.526  10.060   0.527 -0.8230  1.3997 -2.9282
55495SOL    HW278465  11.576  10.202   0.546 -0.3519  0.7594  1.9903
55496SOL     OW78466   1.147  12.938  12.328  0.0965 -0.0970  0.1197
55496SOL    HW178467   1.105  12.867  12.378  2.0078 -0.3900  1.4444
55496SOL    HW278468   1.187  12.894  12.254 -1.1064  0.0532 -0.6455
55497SOL     OW78469  11.469  11.833  11.171 -0.2506 -0.0275  0.5477
55497SOL    HW178470  11.534  11.776  11.211 -2.7149 -2.4953  1.3444
55497SOL    HW278471  11.434  11.884  11.245  0.7627  1.3752  0.1061
55498SOL     OW78472   0.127  11.360  10.729  0.5685  0.2311  0.2188
55498SOL    HW178473   0.215  11.341  10.761  0.6085  2.1740  1.4004
55498SOL    HW278474   0.071  11.351  10.805 -0.0976  0.1468 -0.2724
55499SOL     OW78475   0.030   7.942   2.880  0.0333 -0.2259  0.4289
55499SOL    HW178476   0.088   7.985   2.818  0.3521 -0.7205  0.3784
55499SOL    HW278477   0.044   7.848   2.865  0.3440 -0.3538  1.4510
55500SOL     OW78478   9.570  10.328  12.113 -0.2121  0.3629  0.0630
55500SOL    HW178479   9.627  10.388  12.066  1.2750 -0.0704  1.2401
55500SOL    HW278480   9.552  10.258  12.050  1.7738 -0.2351  0.0859
55501SOL     OW78481   2.486   2.681   6.809  0.6148  0.1599 -0.4689
55501SOL    HW178482   2.415   2.621   6.832 -0.0221  0.7298 -0.9377
55501SOL    HW278483   2.445   2.748   6.755  1.2944  1.0778  0.1165
55502SOL     OW78484  12.454   2.252   2.987  0.2397 -0.5552 -0.4096
55502SOL    HW178485  12.372   2.204   3.004 -0.0797  0.3144  0.6666
55502SOL    HW278486  12.488   2.272   3.075  1.3473 -0.4688 -0.8489
55503SOL     OW78487   1.871   7.828   0.603 -0.5855 -0.2870  0.4844
55503SOL    HW178488   1.802   7.860   0.661  0.0565 -0.2194  1.2249
55503SOL    HW278489   1.942   7.892   0.612 -0.0779 -0.8274  0.4284
55504SOL     OW78490  13.423   0.326   0.422  0.5808  1.1163  0.1652
55504SOL    HW178491  13.442   0.337   0.515 -0.4498  1.6142  0.3381
55504SOL    HW278492  13.327   0.329   0.417  0.5797  0.0912 -0.7918
55505SOL     OW78493   1.154   7.529   4.047 -0.2057  0.2232  0.1469
55505SOL    HW178494   1.225   7.469   4.024  1.0313  1.7691 -0.2883
55505SOL    HW278495   1.184   7.614   4.016 -2.8906  0.7399 -1.2797
55506SOL     OW78496   7.470   3.671   5.860 -0.2604  0.1811 -0.5267
55506SOL    HW178497   7.376   3.684   5.870 -0.0956  1.1696 -0.1548
55506SOL    HW278498   7.510   3.746   5.904  0.7548 -0.9623  0.5961
55507SOL     OW78499   1.900   9.475  13.823  0.0050  0.5219 -0.5096
55507SOL    HW178500   1.883   9.501  13.732  0.8065 -0.7226 -1.0415
55507SOL    HW278501   1.988   9.507  13.841  0.7904 -1.2132 -0.9931
55508SOL     OW78502   4.327  12.012  13.372 -0.2906 -0.1427 -0.2626
55508SOL    HW178503   4.365  12.068  13.304  0.6891  1.4148  1.4865
55508SOL    HW278504   4.287  12.073  13.434  0.1319 -1.3987  1.3325
55509SOL     OW78505  11.002   0.361  12.382 -0.0586  0.3380  0.4979
55509SOL    HW178506  11.000   0.383  12.289  0.6640  0.9890  0.6240
55509SOL    HW278507  11.068   0.292  12.389 -0.2259  0.1791  0.5054
55510SOL     OW78508  12.169   4.377   9.748 -0.4502 -0.4142 -0.0090
55510SOL    HW178509  12.153   4.307   9.683  1.0655 -1.9725  1.2132
55510SOL    HW278510  12.102   4.363   9.814 -1.7321  0.9178 -0.9571
55511SOL     OW78511   9.222   3.163  10.451 -0.5972 -0.5535 -0.6473
55511SOL    HW178512   9.127   3.152  10.454 -1.0010  2.1693 -0.7753
55511SOL    HW278513   9.235   3.258  10.450  2.1875 -0.8120  0.7489
55512SOL     OW78514   7.163   5.464   5.709  0.0209 -0.0058  0.1896
55512SOL    HW178515   7.101   5.392   5.722  1.4963 -1.3917 -0.1812
55512SOL    HW278516   7.207   5.475   5.794  1.9722 -1.6954 -0.5250
55513SOL     OW78517   2.996   6.698   2.080  0.3802 -0.0066  0.4965
55513SOL    HW178518   2.958   6.640   2.014  0.8263 -1.0108  1.1148
55513SOL    HW278519   3.074   6.652   2.111  1.8848  1.7866 -0.4114
55514SOL     OW78520   2.332   7.237  13.888  0.3804  0.2153  0.8202
55514SOL    HW178521   2.288   7.165  13.933 -0.7626 -1.0363 -2.0584
55514SOL    HW278522   2.262   7.297  13.863  0.5619 -0.3925 -1.3677
55515SOL     OW78523   3.363  11.834  11.233  0.1681 -0.6459 -0.2528
55515SOL    HW178524   3.337  11.742  11.242  1.2085 -1.0942 -1.5884
55515SOL    HW278525   3.412  11.837  11.151  0.6344  0.9990  0.0618
55516SOL     OW78526  10.564   6.867   5.917  0.2696 -0.0519 -0.6553
55516SOL    HW178527  10.496   6.819   5.871  0.2508 -0.1687 -0.5070
55516SOL    HW278528  10.523   6.950   5.941  0.1113 -0.2055 -0.3840
55517SOL     OW78529   0.012   3.627   5.342 -0.4431 -0.1387 -0.3030
55517SOL    HW178530   0.024   3.710   5.388 -0.0454  0.0023 -0.6478
55517SOL    HW278531  -0.046   3.648   5.269  0.6252  0.1277 -1.1140
55518SOL     OW78532   6.740   6.148   1.645 -0.0469  0.1316 -0.8031
55518SOL    HW178533   6.747   6.052   1.639 -0.5039 -0.1392  1.7769
55518SOL    HW278534   6.795   6.180   1.574  1.3866 -2.0589 -0.7955
55519SOL     OW78535  10.221   7.899  12.227 -0.1588 -0.0984 -0.9854
55519SOL    HW178536  10.258   7.886  12.315  0.8753 -0.1589 -1.4187
55519SOL    HW278537  10.151   7.834  12.221  0.5408 -0.9100 -0.6346
55520SOL     OW78538   9.123   2.561   2.698  0.1864 -0.0055  0.2899
55520SOL    HW178539   9.114   2.509   2.618  0.1060  0.9216 -0.3252
55520SOL    HW278540   9.216   2.557   2.719  0.3404  0.3813 -0.2989
55521SOL     OW78541  11.205   6.083   3.492 -0.0055 -0.3032 -0.5741
55521SOL    HW178542  11.173   6.154   3.436 -1.9471 -0.2197  0.5755
55521SOL    HW278543  11.262   6.127   3.555  0.1504 -0.0272 -0.9016
55522SOL     OW78544  10.391   5.337   5.414  0.1201 -0.1396 -0.5419
55522SOL    HW178545  10.355   5.422   5.392 -1.8767 -0.4724  1.1483
55522SOL    HW278546  10.463   5.357   5.475  2.1016  0.4529 -2.9285
55523SOL     OW78547   9.923  11.989   4.815 -0.1517 -1.2150  0.6392
55523SOL    HW178548   9.837  11.948   4.825 -0.2996 -0.7817  1.1526
55523SOL    HW278549   9.927  12.015   4.723 -0.3562 -1.6966  0.4886
55524SOL     OW78550  13.064   0.546   7.151 -0.5039  0.3801 -0.1999
55524SOL    HW178551  13.122   0.480   7.115 -0.9253  0.5300 -1.1986
55524SOL    HW278552  13.068   0.534   7.246  1.4957  0.6829 -0.2146
55525SOL     OW78553   9.472   3.653  10.559  0.2881 -0.2357  0.4260
55525SOL    HW178554   9.521   3.646  10.477 -0.7223 -1.8778 -0.0998
55525SOL    HW278555   9.448   3.745  10.566  1.1964  0.0989 -0.6307
55526SOL     OW78556  10.227   5.401   0.421 -0.2105 -0.1035 -0.0522
55526SOL    HW178557  10.134   5.395   0.440 -0.4152 -0.6354 -1.1318
55526SOL    HW278558  10.238   5.487   0.379 -0.3018 -0.2329 -0.3445
55527SOL     OW78559  13.859   5.652   4.666 -0.0633  0.2591  0.1387
55527SOL    HW178560  13.788   5.704   4.702 -0.3013 -0.1975  0.3438
55527SOL    HW278561  13.834   5.637   4.574 -0.3563 -0.1034  0.2747
55528SOL     OW78562   8.596   7.831   2.823 -0.4991 -0.0631 -0.5985
55528SOL    HW178563   8.542   7.908   2.807 -0.0855 -0.1421 -2.7649
55528SOL    HW278564   8.540   7.757   2.799 -0.2361 -0.2969 -0.5040
55529SOL     OW78565   5.923   7.083   7.320 -0.8612 -0.0693 -0.4048
55529SOL    HW178566   5.922   7.157   7.260  1.5703 -0.1495 -0.6220
55529SOL    HW278567   6.015   7.073   7.345 -1.3476 -2.0486  0.8284
55530SOL     OW78568  13.311   4.743   1.472  0.3452  0.6232 -0.2386
55530SOL    HW178569  13.348   4.772   1.555 -1.7919  0.9634  0.6621
55530SOL    HW278570  13.253   4.815   1.445 -2.3013 -1.1673  0.2200
55531SOL     OW78571  11.792  10.951   3.641  0.2403 -0.1745 -0.0335
55531SOL    HW178572  11.883  10.971   3.665 -0.3309  2.3826  0.3921
55531SOL    HW278573  11.796  10.923   3.550  1.3912  1.0085 -0.3834
55532SOL     OW78574   6.076   4.679   8.865 -0.2764  0.6409  0.0245
55532SOL    HW178575   6.171   4.684   8.874  0.0503 -1.5254 -1.2529
55532SOL    HW278576   6.061   4.684   8.770 -1.3254 -0.0034  0.1347
55533SOL     OW78577   2.720   2.824   9.297 -0.1594 -0.2724 -0.7627
55533SOL    HW178578   2.731   2.803   9.390  0.8744  3.9301  0.2832
55533SOL    HW278579   2.809   2.822   9.262 -0.1796  0.8079 -0.9105
55534SOL     OW78580   1.288   7.185   4.193  0.5947  0.8680  0.9869
55534SOL    HW178581   1.220   7.183   4.125  0.1503  1.2800  1.4045
55534SOL    HW278582   1.342   7.260   4.171  0.4604  0.9915  1.0694
55535SOL     OW78583  10.400   7.230   7.808  0.5517  0.2262 -0.0470
55535SOL    HW178584  10.407   7.136   7.791  0.1615  0.0992  0.4815
55535SOL    HW278585  10.480   7.267   7.770  0.8365 -0.3497 -0.0201
55536SOL     OW78586  13.843  11.116   0.938  0.1822 -0.3045  0.2959
55536SOL    HW178587  13.830  11.100   0.844  1.5125 -1.6304  0.2942
55536SOL    HW278588  13.881  11.203   0.942 -1.4014  0.4397 -0.2488
55537SOL     OW78589  11.629   6.011   6.627 -0.1021  0.2320 -0.2342
55537SOL    HW178590  11.565   6.012   6.699 -0.8938 -1.5779 -0.8598
55537SOL    HW278591  11.609   5.931   6.579  2.2093 -0.0053 -0.8809
55538SOL     OW78592   7.244   4.752   6.493 -0.1248  0.5711  0.5808
55538SOL    HW178593   7.252   4.749   6.589 -0.9260  0.7735  0.6622
55538SOL    HW278594   7.333   4.770   6.462  0.4370 -0.9586  1.2027
55539SOL     OW78595   0.094   7.092   9.165  0.1037 -0.0190  0.2593
55539SOL    HW178596   0.014   7.105   9.216 -1.4264  2.0809 -2.4498
55539SOL    HW278597   0.159   7.148   9.208 -1.3508  2.2876 -0.4271
55540SOL     OW78598  12.617   1.304  13.174  0.0973 -0.7104  0.3243
55540SOL    HW178599  12.612   1.351  13.091  0.6622  0.4447  0.9127
55540SOL    HW278600  12.528   1.274  13.191 -0.0593 -0.7682 -0.5942
55541SOL     OW78601  11.689   5.222   7.896  0.6664  0.0123  0.0362
55541SOL    HW178602  11.747   5.296   7.878  0.9284 -0.2706 -0.3031
55541SOL    HW278603  11.624   5.256   7.957  2.4598 -0.2256  2.1920
55542SOL     OW78604   6.915   6.304  11.566 -0.4352  0.4583 -0.4768
55542SOL    HW178605   6.900   6.300  11.660 -0.2379  1.2072 -0.4030
55542SOL    HW278606   7.010   6.297  11.555 -0.4119  0.8772 -0.5784
55543SOL     OW78607   6.292  13.157   9.872 -0.3605  0.4757 -0.3855
55543SOL    HW178608   6.237  13.104   9.930  1.0014 -0.8647 -0.2589
55543SOL    HW278609   6.238  13.170   9.794 -1.5910  0.8975  0.5010
55544SOL     OW78610  11.595   6.591   5.505  0.5967  0.4452  0.2818
55544SOL    HW178611  11.535   6.653   5.463 -0.3395 -0.0796  0.8081
55544SOL    HW278612  11.587   6.610   5.599 -0.9696 -1.5090  0.6220
55545SOL     OW78613  10.567   3.234  12.671  0.3019  0.7521  0.2935
55545SOL    HW178614  10.508   3.164  12.700  0.4161 -0.1118 -1.4088
55545SOL    HW278615  10.511   3.310  12.658 -0.6139 -0.1634 -1.7061
55546SOL     OW78616  11.112   6.285  13.563 -0.2554  0.0223  0.2668
55546SOL    HW178617  11.190   6.267  13.510  1.3547  0.7446  2.2476
55546SOL    HW278618  11.110   6.380  13.569 -0.8471 -0.0249  0.8553
55547SOL     OW78619  11.491   4.553   4.319  0.3090  0.3576 -0.0773
55547SOL    HW178620  11.579   4.582   4.295 -0.0204  1.3310 -0.1601
55547SOL    HW278621  11.488   4.462   4.291  1.1112  0.4684 -0.5724
55548SOL     OW78622   8.197  10.972  10.298  0.2057 -0.2456  0.4761
55548SOL    HW178623   8.162  11.045  10.350 -0.5136 -0.3706  0.1775
55548SOL    HW278624   8.279  10.949  10.342  1.7225  2.3027 -0.7788
55549SOL     OW78625   8.413   2.961   2.778  0.5014  0.2105 -0.0666
55549SOL    HW178626   8.391   2.898   2.846 -0.6946  0.5644 -0.1115
55549SOL    HW278627   8.329   3.000   2.752  1.2486  2.1310  0.2541
55550SOL     OW78628   3.496  12.978   6.694  0.1551  0.3294 -0.6123
55550SOL    HW178629   3.451  13.031   6.628 -0.2903  1.2368  0.3892
55550SOL    HW278630   3.551  13.040   6.741 -0.8747  0.0498  1.0274
55551SOL     OW78631  13.881  13.503   8.100 -0.1592  0.4431 -0.3602
55551SOL    HW178632  13.857  13.511   8.007 -2.0497 -1.0662 -0.0366
55551SOL    HW278633  13.910  13.413   8.110 -0.5043  0.4335  0.6454
55552SOL     OW78634   6.635   2.750   8.009  0.2492 -0.2120 -0.3073
55552SOL    HW178635   6.564   2.808   7.982 -0.2386 -0.1662  0.9886
55552SOL    HW278636   6.607   2.663   7.982 -0.2059 -0.1646  0.0075
55553SOL     OW78637   0.634   0.262   8.927  0.1669 -0.2580  0.6572
55553SOL    HW178638   0.598   0.215   8.851 -1.8693  1.6117  0.3615
55553SOL    HW278639   0.720   0.292   8.897  0.3428 -1.4013 -0.0889
55554SOL     OW78640   0.635  12.616   2.346 -0.0051 -0.3386  0.1327
55554SOL    HW178641   0.669  12.604   2.257  1.6552 -3.7407  1.0231
55554SOL    HW278642   0.711  12.644   2.397 -0.5466  0.0327  0.7531
55555SOL     OW78643  11.375   9.272   9.011 -0.4007  0.1565 -0.2563
55555SOL    HW178644  11.286   9.293   9.038  0.1553  0.8340  1.1458
55555SOL    HW278645  11.398   9.340   8.948 -0.9091 -0.0983 -0.7278
55556SOL     OW78646   9.389   7.806  11.856  0.1134 -0.2792 -0.4014
55556SOL    HW178647   9.306   7.780  11.816 -0.5015  1.2867 -0.2075
55556SOL    HW278648   9.364   7.833  11.945  0.7956  0.3727 -0.4038
55557SOL     OW78649   6.377   6.770   9.822 -0.0700  0.4151  0.3386
55557SOL    HW178650   6.441   6.701   9.839 -0.6170  0.4794  2.9809
55557SOL    HW278651   6.297   6.724   9.796 -0.4142 -0.0092  2.0241
55558SOL     OW78652   4.227   3.577   9.567 -0.0244  0.1237  0.5881
55558SOL    HW178653   4.255   3.511   9.631  0.0494 -0.7560 -0.3181
55558SOL    HW278654   4.302   3.636   9.559  1.1586 -1.4540 -0.8340
55559SOL     OW78655  10.282   7.636   7.759 -0.3810  0.2757  0.0979
55559SOL    HW178656  10.314   7.559   7.712 -1.8442 -0.3649  0.1063
55559SOL    HW278657  10.270   7.605   7.849  1.3031  1.1841  0.6741
55560SOL     OW78658   1.618   0.528   8.880 -0.4145 -0.0232 -0.1782
55560SOL    HW178659   1.562   0.451   8.868 -0.2821  0.0920 -1.7490
55560SOL    HW278660   1.557   0.601   8.890 -0.6767  0.3515 -3.4865
55561SOL     OW78661   9.508   3.988   1.106 -0.1789  0.2037 -0.0275
55561SOL    HW178662   9.567   3.934   1.158  1.1980  1.9515  0.3422
55561SOL    HW278663   9.483   4.060   1.164 -0.8702  0.6901 -0.8884
55562SOL     OW78664   9.141   6.980   6.411 -0.5364  0.0337 -0.1396
55562SOL    HW178665   9.046   6.967   6.420 -1.2640  2.1236 -3.1530
55562SOL    HW278666   9.156   7.069   6.445  0.1916  0.0456 -0.4702
55563SOL     OW78667   6.702   8.132   1.009 -0.0605  0.4270  0.4333
55563SOL    HW178668   6.660   8.051   0.979  0.9845  0.0365 -0.0299
55563SOL    HW278669   6.653   8.156   1.087 -0.4432 -0.6148  0.5402
55564SOL     OW78670  10.626   7.725   2.387  0.3170 -0.0359  0.1548
55564SOL    HW178671  10.625   7.806   2.335 -1.2470 -0.9837 -1.4217
55564SOL    HW278672  10.719   7.708   2.403  1.0466 -0.2594 -3.4150
55565SOL     OW78673   0.496  10.553   5.834  0.0135  0.4974  0.5276
55565SOL    HW178674   0.574  10.601   5.808  0.2684  0.0335  0.4280
55565SOL    HW278675   0.430  10.621   5.851  0.3629  0.8763  0.3716
55566SOL     OW78676  12.529   6.247  12.706  0.5160 -0.6747  0.1244
55566SOL    HW178677  12.595   6.282  12.766  0.1584 -1.4345  0.9827
55566SOL    HW278678  12.528   6.310  12.633  2.9139 -1.1762 -0.4343
55567SOL     OW78679  12.551  10.535   4.904 -0.0652  0.1752 -0.4715
55567SOL    HW178680  12.613  10.508   4.972  0.6178  1.2638 -0.6459
55567SOL    HW278681  12.468  10.495   4.931 -0.3322  2.1593  2.1490
55568SOL     OW78682   3.117   9.325   6.681  0.2162  0.1382  0.2052
55568SOL    HW178683   3.140   9.342   6.772 -0.0114 -0.0327  0.2965
55568SOL    HW278684   3.030   9.284   6.685  0.4036 -0.2974 -0.0575
55569SOL     OW78685   5.382   2.746  13.180  0.0133 -0.0895  0.2870
55569SOL    HW178686   5.306   2.793  13.213 -0.3759  0.2784 -1.0690
55569SOL    HW278687   5.385   2.665  13.232 -0.8636  0.2285  0.8541
55570SOL     OW78688   1.340   7.946   9.451  0.1988 -0.6847  0.0990
55570SOL    HW178689   1.347   7.880   9.382  0.0101 -0.2660 -0.3312
55570SOL    HW278690   1.252   7.981   9.442  0.1192 -0.7314  0.6572
55571SOL     OW78691   9.800   3.747  11.953 -0.1595 -0.3201  0.1534
55571SOL    HW178692   9.792   3.707  11.867  0.4734  1.4109 -0.7328
55571SOL    HW278693   9.710   3.758  11.983 -0.3978 -0.5429 -0.4636
55572SOL     OW78694   5.844   4.817  12.567  1.0032 -0.4870  0.2976
55572SOL    HW178695   5.831   4.871  12.489 -1.9178 -0.3655  0.7571
55572SOL    HW278696   5.808   4.731  12.543  0.8720 -0.7002  1.2258
55573SOL     OW78697   8.306  13.752   6.032 -0.2798 -0.3513  0.4276
55573SOL    HW178698   8.400  13.752   6.050 -0.2564  1.8746  0.5207
55573SOL    HW278699   8.300  13.745   5.937  0.0641  1.0769  0.2793
55574SOL     OW78700   7.231   4.957  10.289  0.0580  0.3419  0.1761
55574SOL    HW178701   7.251   5.015  10.215  0.0111 -0.4085 -0.4429
55574SOL    HW278702   7.150   4.912  10.263  0.1139 -0.0238  0.6235
55575SOL     OW78703  13.995   0.178   4.546  0.2865 -0.1998  0.5628
55575SOL    HW178704  13.961   0.089   4.560  0.4438 -0.1588  1.2688
55575SOL    HW278705  13.941   0.214   4.476 -0.2964 -0.5805  0.8067
55576SOL     OW78706  12.626   8.769   8.674 -1.1971 -0.3224 -0.2471
55576SOL    HW178707  12.568   8.765   8.598 -1.5931 -2.5612  0.1029
55576SOL    HW278708  12.693   8.704   8.656 -0.7649 -0.2155  0.9104
55577SOL     OW78709  10.497   0.635  11.724  0.3694 -0.0245 -0.1104
55577SOL    HW178710  10.524   0.629  11.816 -1.6324 -1.2057  0.4546
55577SOL    HW278711  10.464   0.724  11.714 -0.2567 -0.1716  0.5796
55578SOL     OW78712   1.866   4.565   7.494  0.8576  0.1848 -0.0792
55578SOL    HW178713   1.940   4.523   7.538  0.4554  1.1880  1.6467
55578SOL    HW278714   1.805   4.494   7.476  2.1354 -0.6301 -1.3649
55579SOL     OW78715  12.863  13.896   7.682  0.0606 -0.1012 -0.0985
55579SOL    HW178716  12.797  13.921   7.747 -1.0987  0.5431 -1.4629
55579SOL    HW278717  12.834  13.938   7.601  1.8262 -0.3244 -0.8976
55580SOL     OW78718   0.882  10.902   4.719 -0.2577 -0.1331  0.1464
55580SOL    HW178719   0.946  10.955   4.766  1.0070 -1.6708  0.2450
55580SOL    HW278720   0.932  10.859   4.650 -0.9767 -2.0208  0.7426
55581SOL     OW78721   2.623   7.319   4.665  0.1423 -0.7774 -0.2842
55581SOL    HW178722   2.693   7.257   4.644 -0.9675 -2.1363 -0.0778
55581SOL    HW278723   2.568   7.273   4.728 -1.6444 -0.2430 -1.3744
55582SOL     OW78724   9.239   2.315  10.890  0.6081  0.9708  0.0790
55582SOL    HW178725   9.194   2.308  10.806  0.4546  0.1456  0.2270
55582SOL    HW278726   9.169   2.316  10.955  0.7663  0.3410  0.2682
55583SOL     OW78727  12.187   4.421   7.632  0.3191  0.0644  0.1125
55583SOL    HW178728  12.272   4.383   7.654  0.2364 -0.5130 -0.5368
55583SOL    HW278729  12.159   4.464   7.713 -0.4021 -2.7415  1.5106
55584SOL     OW78730   9.281   7.684   9.043  0.3886 -1.1559  0.1761
55584SOL    HW178731   9.347   7.636   9.093 -0.4299 -0.1782  2.3271
55584SOL    HW278732   9.287   7.774   9.076 -1.3427 -0.8460 -0.2845
55585SOL     OW78733   0.586   8.703  11.702  0.4630 -0.2689 -0.4337
55585SOL    HW178734   0.578   8.678  11.610  0.6529  0.2333 -0.5948
55585SOL    HW278735   0.633   8.630  11.743 -1.2155 -1.3301 -0.3381
55586SOL     OW78736   2.850   9.972  12.865  0.8771 -0.2184  0.4087
55586SOL    HW178737   2.843  10.036  12.935  2.2910  2.4186 -1.6707
55586SOL    HW278738   2.876  10.023  12.788 -0.8008 -2.8559 -2.1472
55587SOL     OW78739   0.822  13.088   4.434  0.1975 -0.4845 -0.1517
55587SOL    HW178740   0.812  13.165   4.490  0.3895 -0.7381  0.2340
55587SOL    HW278741   0.916  13.079   4.421  0.2915 -1.4936  1.0024
55588SOL     OW78742   3.695   7.881  10.117  0.0688 -0.3128 -0.3174
55588SOL    HW178743   3.752   7.817  10.073  1.0107  1.3003 -1.5456
55588SOL    HW278744   3.608   7.842  10.114  0.9015 -2.4104  0.7298
55589SOL     OW78745   9.204  10.742   1.862 -0.2647 -0.3083  0.2113
55589SOL    HW178746   9.108  10.741   1.856 -0.2933 -2.4089  0.2047
55589SOL    HW278747   9.222  10.748   1.956 -0.3912  0.1199  0.2110
55590SOL     OW78748   1.882   4.382   8.630  0.2009 -0.5179 -0.2357
55590SOL    HW178749   1.875   4.349   8.720  0.1395 -2.2647 -0.8320
55590SOL    HW278750   1.971   4.360   8.603  2.1299  4.4947  0.9617
55591SOL     OW78751   2.512   6.794  11.403 -0.1319  0.1864  0.0104
55591SOL    HW178752   2.427   6.797  11.361 -0.2068  0.7323  0.1951
55591SOL    HW278753   2.511   6.712  11.453 -0.5374  0.1805 -0.0065
55592SOL     OW78754   9.520  11.421   5.421 -0.3300  0.1249  0.3740
55592SOL    HW178755   9.572  11.444   5.344 -3.2666  1.2070 -1.4307
55592SOL    HW278756   9.488  11.504   5.455 -2.2745 -0.5613  0.3411
55593SOL     OW78757   3.695   0.677   2.069  0.1070 -0.1754  0.1873
55593SOL    HW178758   3.665   0.596   2.110 -0.1471 -0.9782 -1.5251
55593SOL    HW278759   3.647   0.746   2.115  1.5703 -0.7830  2.8275
55594SOL     OW78760   5.156  10.618  13.564 -0.5538  0.2220  0.2361
55594SOL    HW178761   5.129  10.633  13.474  0.9020 -0.4461 -0.3489
55594SOL    HW278762   5.167  10.706  13.601 -1.4947  0.4964 -0.1190
55595SOL     OW78763  13.611   3.186   4.318 -0.5400  0.0763  0.1133
55595SOL    HW178764  13.547   3.246   4.356  0.7155  0.3389  1.9460
55595SOL    HW278765  13.667   3.241   4.263 -0.0585  0.4050  0.9192
55596SOL     OW78766   6.529   2.539   7.489 -0.9166 -0.0149 -0.2960
55596SOL    HW178767   6.621   2.552   7.466 -0.7478 -1.2797 -0.4206
55596SOL    HW278768   6.494   2.627   7.501  0.9335  0.4936  2.2961
55597SOL     OW78769   4.985   8.793   8.154  0.4267 -0.2087 -0.5254
55597SOL    HW178770   5.079   8.779   8.153  0.5605  0.6167 -1.1627
55597SOL    HW278771   4.949   8.718   8.201  1.2760 -1.2763 -1.5358
55598SOL     OW78772  11.936  10.961   9.572 -0.4591 -0.7645  0.5729
55598SOL    HW178773  11.945  11.039   9.626 -3.5797  0.1904 -0.1114
55598SOL    HW278774  11.913  10.891   9.633 -2.2956 -0.0592  0.7485
55599SOL     OW78775   1.607   6.252   1.485 -0.0477  0.2700 -0.6945
55599SOL    HW178776   1.579   6.212   1.403 -1.3994  0.9921 -0.6080
55599SOL    HW278777   1.528   6.256   1.539  1.0055 -1.1964  1.1009
55600SOL     OW78778  12.821   5.557   0.698  0.3800 -0.6688  0.2744
55600SOL    HW178779  12.883   5.505   0.648 -0.0089 -0.3263 -0.5758
55600SOL    HW278780  12.749   5.497   0.718 -0.3153 -0.3410 -1.1579
55601SOL     OW78781   1.547  11.281   9.178  0.8448 -0.0471  0.3881
55601SOL    HW178782   1.467  11.242   9.143 -0.0618 -0.9204  3.1997
55601SOL    HW278783   1.518  11.328   9.256  2.9559  0.3830  0.9649
55602SOL     OW78784   7.618   1.574  10.655  0.2476  0.0778 -0.0915
55602SOL    HW178785   7.646   1.487  10.681  0.5569  0.2083  0.0215
55602SOL    HW278786   7.546   1.595  10.714 -0.0626 -0.2452 -0.3557
55603SOL     OW78787   0.134   5.991   1.424 -0.3165  0.8570  0.0565
55603SOL    HW178788   0.048   5.993   1.465  1.0564  0.5605  3.2675
55603SOL    HW278789   0.151   5.898   1.408  0.1875  0.7246  1.3085
55604SOL     OW78790   5.144  10.702  11.371 -0.3486  0.1265  0.7713
55604SOL    HW178791   5.087  10.639  11.327 -0.1590 -0.2496  1.0638
55604SOL    HW278792   5.098  10.786  11.363 -1.7092 -0.4243  2.3786
55605SOL     OW78793   0.748   1.204   8.622  0.3621 -0.1904 -0.1281
55605SOL    HW178794   0.692   1.157   8.560 -1.4674  2.6735 -0.8598
55605SOL    HW278795   0.829   1.220   8.574  0.1060 -0.5627 -0.6926
55606SOL     OW78796   1.587   0.989   0.314 -0.3436 -0.3966  0.0413
55606SOL    HW178797   1.553   1.077   0.331  0.1966  0.3701 -2.3632
55606SOL    HW278798   1.647   0.972   0.387 -1.2489  0.7677  1.1095
55607SOL     OW78799   2.598   4.529   9.889  0.8312 -0.5424 -0.2926
55607SOL    HW178800   2.542   4.498   9.960  1.7116 -1.2721  0.0967
55607SOL    HW278801   2.651   4.452   9.865  0.2355 -0.4535 -2.0423
55608SOL     OW78802   8.435   6.621   7.909 -0.5127 -0.1975 -0.0302
55608SOL    HW178803   8.466   6.549   7.854 -2.4018 -0.7507 -0.4419
55608SOL    HW278804   8.499   6.626   7.980  1.3589 -0.2287 -1.6103
55609SOL     OW78805  10.329   7.425   5.824 -0.0760  0.4493 -0.0828
55609SOL    HW178806  10.362   7.514   5.813  0.6838  0.1661 -0.1592
55609SOL    HW278807  10.402   7.377   5.862 -0.5446 -0.1027  0.1383
55610SOL     OW78808   0.313   2.988   0.780  0.6498  0.7150  0.2985
55610SOL    HW178809   0.383   3.052   0.797 -0.5291  1.4212  2.9185
55610SOL    HW278810   0.291   2.952   0.866 -1.0601 -0.7603 -0.6773
55611SOL     OW78811   5.055   6.164   3.109 -0.8766  0.2897  0.2934
55611SOL    HW178812   5.089   6.216   3.036 -0.6773  1.4027  1.1444
55611SOL    HW278813   5.055   6.225   3.183 -0.6364 -0.9397  1.3322
55612SOL     OW78814  11.478   7.399   0.150 -0.4864  0.0127 -0.2088
55612SOL    HW178815  11.404   7.370   0.204 -0.1515  0.6951  0.6449
55612SOL    HW278816  11.519   7.468   0.202  0.8573 -0.4651 -0.6090
55613SOL     OW78817  12.302   5.794   4.860 -0.0764  0.3086 -0.2902
55613SOL    HW178818  12.280   5.817   4.950  0.0876 -0.6100 -0.0008
55613SOL    HW278819  12.264   5.707   4.848  0.4330  0.1636 -0.9066
55614SOL     OW78820  11.435   4.986   6.671 -0.4337  0.1089 -0.2191
55614SOL    HW178821  11.504   4.989   6.605  1.3653 -1.1715  1.4700
55614SOL    HW278822  11.443   4.899   6.711 -2.8063  0.0627  0.3087
55615SOL     OW78823   6.452   2.063   1.185  0.1724 -0.3873 -0.2208
55615SOL    HW178824   6.384   2.018   1.235 -0.1256  2.1467  1.8458
55615SOL    HW278825   6.534   2.029   1.220 -0.0437 -0.1709  0.5139
55616SOL     OW78826   8.057   6.402   9.243  0.1769 -0.3302  0.8789
55616SOL    HW178827   8.104   6.321   9.265  2.0240  0.1726 -0.9489
55616SOL    HW278828   7.964   6.376   9.241  0.7935 -2.7224 -0.8195
55617SOL     OW78829   7.342  12.687   5.662 -0.3059  0.1631  0.3205
55617SOL    HW178830   7.377  12.776   5.654 -0.8371  0.3238 -0.2884
55617SOL    HW278831   7.409  12.631   5.622 -0.2004  0.3468  0.2386
55618SOL     OW78832   9.329  11.347   6.377  0.4731  0.6695 -0.2011
55618SOL    HW178833   9.255  11.380   6.429  1.4867  1.5495  0.7328
55618SOL    HW278834   9.328  11.252   6.393  1.4820  1.0378  2.4752
55619SOL     OW78835  12.664   4.875   5.606 -0.5801 -0.2338  0.2681
55619SOL    HW178836  12.720   4.899   5.533 -1.2852  0.7474  0.0290
55619SOL    HW278837  12.723   4.836   5.671  0.0423 -1.1665 -0.8281
55620SOL     OW78838   2.825   1.634  11.232 -0.5242 -0.2828  1.3886
55620SOL    HW178839   2.798   1.575  11.162  1.6804 -1.3325  1.3433
55620SOL    HW278840   2.752   1.634  11.293 -1.6337 -0.9920  0.1083
55621SOL     OW78841  12.564  13.478  12.089 -0.3763 -0.4141 -0.0413
55621SOL    HW178842  12.577  13.432  12.006  1.7233 -0.4437  0.2490
55621SOL    HW278843  12.650  13.513  12.111 -1.3768  1.6136  0.9811
55622SOL     OW78844   8.401  11.274   1.816 -0.3010  0.5398 -0.5679
55622SOL    HW178845   8.486  11.287   1.859 -0.8561 -1.6542  1.4101
55622SOL    HW278846   8.418  11.207   1.750 -0.0453  1.8448 -1.8651
55623SOL     OW78847   1.789   5.218  11.934  0.5663  0.3115  0.2500
55623SOL    HW178848   1.760   5.139  11.978 -0.9314  0.8306  0.2391
55623SOL    HW278849   1.755   5.290  11.987 -1.4036  0.9624 -1.7487
55624SOL     OW78850   7.975   4.481   5.215  0.1875 -0.3256 -0.4785
55624SOL    HW178851   8.046   4.416   5.211  0.1975 -0.3246 -0.3518
55624SOL    HW278852   7.990   4.538   5.140  0.9083  0.2773  0.1055
55625SOL     OW78853   5.582   0.324   1.598  0.0121 -0.4994  0.0151
55625SOL    HW178854   5.529   0.286   1.527  0.1915  0.8892 -0.8818
55625SOL    HW278855   5.529   0.396   1.631  1.5461  1.3328 -1.3223
55626SOL     OW78856   2.204   9.317  11.655  0.4389 -0.2164 -0.0458
55626SOL    HW178857   2.131   9.370  11.622  0.5517  1.0007  1.5130
55626SOL    HW278858   2.163   9.254  11.715  0.7176  1.4056  1.9631
55627SOL     OW78859   6.209   4.971   2.854  0.7719  0.4568 -0.1283
55627SOL    HW178860   6.297   4.974   2.891 -0.3531 -0.0261  2.7920
55627SOL    HW278861   6.152   5.009   2.921 -1.5585 -1.4237 -0.8706
55628SOL     OW78862   8.705   4.414   2.858 -0.6061  0.0958  0.0987
55628SOL    HW178863   8.745   4.500   2.853 -1.0601  0.2746 -0.6057
55628SOL    HW278864   8.760   4.365   2.919  1.9835 -0.3725 -2.4488
55629SOL     OW78865  10.186   9.022  12.345 -0.2915  0.4970 -0.1503
55629SOL    HW178866  10.274   9.057  12.358 -0.3830  0.4185  0.7299
55629SOL    HW278867  10.199   8.944  12.291  0.3311 -0.1843  0.9315
55630SOL     OW78868  11.598  12.533   0.363  0.4863 -0.1330  0.1283
55630SOL    HW178869  11.627  12.623   0.346 -1.2984  0.4116 -0.1716
55630SOL    HW278870  11.616  12.520   0.456  0.3782  0.6721  0.2710
55631SOL     OW78871  10.147   5.679  13.146  0.2449 -1.2255 -0.2926
55631SOL    HW178872  10.158   5.658  13.053 -0.4407  0.9231 -0.9306
55631SOL    HW278873  10.131   5.774  13.147  3.7455 -0.4511  2.2834
55632SOL     OW78874   1.688   2.883   1.430 -0.5662 -0.0665 -0.1084
55632SOL    HW178875   1.630   2.828   1.377 -1.1332 -0.3872  0.8219
55632SOL    HW278876   1.676   2.852   1.520 -0.6339  1.3285  0.4009
55633SOL     OW78877   2.581  12.510   5.351  0.1216 -0.0073  0.1452
55633SOL    HW178878   2.614  12.594   5.321  1.0267 -0.9409 -1.6940
55633SOL    HW278879   2.660  12.460   5.373 -0.3515 -0.6707  0.3686
55634SOL     OW78880   1.067   7.419   6.579  0.1593  0.4352  0.5721
55634SOL    HW178881   0.985   7.410   6.531  0.3561 -1.8980  0.5816
55634SOL    HW278882   1.049   7.489   6.642 -1.8574 -0.0361  0.6093
55635SOL     OW78883  11.308   9.871   9.846  0.3375  0.0758 -1.0022
55635SOL    HW178884  11.369   9.920   9.902  1.8123 -2.2061 -0.4841
55635SOL    HW278885  11.309   9.918   9.762  2.5641  0.3161 -0.8874
55636SOL     OW78886   0.575  13.976   7.177 -0.5771  0.1886  0.5744
55636SOL    HW178887   0.486  13.979   7.213 -0.7211 -0.3561  0.2595
55636SOL    HW278888   0.624  14.040   7.229 -0.7756 -0.6132  1.7884
55637SOL     OW78889   3.485   2.794   0.640  0.4325  0.3670 -0.5208
55637SOL    HW178890   3.517   2.855   0.574 -0.4687  1.3055 -0.1334
55637SOL    HW278891   3.501   2.839   0.723  0.3098 -0.1981 -0.1839
55638SOL     OW78892   3.020   3.492  12.028 -0.6940 -0.7036 -0.1799
55638SOL    HW178893   2.962   3.525  11.959 -0.4613 -0.8114 -0.4271
55638SOL    HW278894   3.011   3.555  12.099  1.4320  1.1830 -1.4544
55639SOL     OW78895  12.494   2.156  11.770  0.1119  0.9063 -0.3488
55639SOL    HW178896  12.436   2.102  11.715  0.8822 -1.1832  0.7724
55639SOL    HW278897  12.573   2.168  11.717  0.1868  0.3473 -0.3754
55640SOL     OW78898   3.371   0.789   3.436  0.4804  0.3803  0.0444
55640SOL    HW178899   3.452   0.741   3.423  0.0753 -0.2339 -0.2866
55640SOL    HW278900   3.322   0.774   3.355 -0.1299  0.3944  0.4060
55641SOL     OW78901   9.013  13.851   7.451 -0.7074  0.2396  0.3120
55641SOL    HW178902   8.949  13.798   7.405 -0.0853 -1.0932  0.9164
55641SOL    HW278903   9.069  13.788   7.496  1.9231  1.2525 -1.2986
55642SOL     OW78904   3.388  13.053   5.712 -0.5405  0.2804 -0.3352
55642SOL    HW178905   3.361  13.107   5.638  0.0794  2.5892  1.0346
55642SOL    HW278906   3.320  13.067   5.778  0.0137 -0.0362  0.3124
55643SOL     OW78907   6.928   6.528   9.926 -0.4299  0.7933  0.2727
55643SOL    HW178908   6.918   6.591   9.854  0.2994  0.3623 -0.2189
55643SOL    HW278909   6.860   6.462   9.909 -0.7890  1.1173  0.4395
55644SOL     OW78910   4.092  13.374   2.595  0.8526  0.1711 -0.0581
55644SOL    HW178911   4.005  13.359   2.559  0.1911  2.3708  0.4856
55644SOL    HW278912   4.099  13.312   2.668 -2.2766  2.9825  2.9936
55645SOL     OW78913   1.886   7.827   3.625  0.0040  0.2176 -0.2958
55645SOL    HW178914   1.967   7.789   3.590 -0.0238  0.8234 -1.0522
55645SOL    HW278915   1.914   7.892   3.689  0.1758  1.2050 -1.3403
55646SOL     OW78916   1.170   4.410   9.997 -0.6309  0.1437 -0.3623
55646SOL    HW178917   1.214   4.349  10.056 -0.2403  0.1855 -0.6040
55646SOL    HW278918   1.097   4.361   9.961 -0.8217  0.0928  0.0971
55647SOL     OW78919  11.876   4.453  13.916  0.1094  0.5169 -0.5978
55647SOL    HW178920  11.875   4.528  13.975 -0.7710 -0.6761  0.9758
55647SOL    HW278921  11.796   4.405  13.936  0.6594 -0.8651 -1.5439
55648SOL     OW78922   9.058   3.793   5.279 -0.3389 -0.1999  0.0912
55648SOL    HW178923   8.983   3.753   5.235 -0.4807  0.8357 -0.6483
55648SOL    HW278924   9.061   3.750   5.365 -1.7620 -0.2880  0.1248
55649SOL     OW78925   4.799   6.092   2.044  0.4768 -0.4171  0.4363
55649SOL    HW178926   4.889   6.064   2.031  0.5100 -0.8970  1.5473
55649SOL    HW278927   4.755   6.016   2.082 -1.0296 -1.0149 -2.2662
55650SOL     OW78928   6.703  11.068   3.820 -0.7156 -0.3437 -0.5341
55650SOL    HW178929   6.765  11.124   3.868 -1.3664  0.4685 -0.6048
55650SOL    HW278930   6.718  10.980   3.855 -0.4103  0.0511  0.3696
55651SOL     OW78931   6.164   9.405   9.163 -0.2757  0.6535  0.7287
55651SOL    HW178932   6.246   9.436   9.125 -0.1954  0.3158  0.6242
55651SOL    HW278933   6.185   9.318   9.197 -1.0767 -0.2959 -1.0661
55652SOL     OW78934   9.186   0.757   5.114  0.0601  0.3685 -0.1427
55652SOL    HW178935   9.199   0.712   5.197 -1.8138  0.5207  0.2753
55652SOL    HW278936   9.267   0.742   5.065  0.7665 -0.6250  1.2835
55653SOL     OW78937   4.066   8.827   0.317  0.3758 -0.2886 -0.0487
55653SOL    HW178938   4.029   8.915   0.316 -1.1065 -0.8884  0.1494
55653SOL    HW278939   4.141   8.833   0.377 -0.6350  0.4786  1.1719
55654SOL     OW78940   8.982  11.472  12.655 -0.2459 -0.3875 -0.1588
55654SOL    HW178941   9.042  11.407  12.692 -0.1908  0.1676  0.7403
55654SOL    HW278942   8.926  11.421  12.595  1.1253 -0.9064 -1.0405
55655SOL     OW78943  11.475   3.096   6.362 -0.3160  0.4019  0.3212
55655SOL    HW178944  11.491   3.082   6.269  0.6297  0.1714  0.5028
55655SOL    HW278945  11.394   3.049   6.381  0.0324 -0.4246 -0.1802
55656SOL     OW78946   3.282  10.053   3.155 -0.1777  0.3079 -0.0013
55656SOL    HW178947   3.232  10.120   3.203  0.0684  1.0300 -0.7231
55656SOL    HW278948   3.224   9.977   3.153  0.5485 -0.5184  3.1848
55657SOL     OW78949   2.862   0.429   8.882 -0.4772 -0.0256 -0.3110
55657SOL    HW178950   2.948   0.416   8.922  0.8595  1.7579 -2.3382
55657SOL    HW278951   2.854   0.359   8.817 -0.0507  0.3888 -0.8260
55658SOL     OW78952   4.227   9.006  11.834  0.4517  0.0054  0.1503
55658SOL    HW178953   4.176   8.926  11.820 -1.6630  1.2020  0.5751
55658SOL    HW278954   4.298   9.000  11.771 -0.7145 -1.3496 -1.1299
55659SOL     OW78955   0.761  13.848   8.879  0.0599 -0.1181 -0.3876
55659SOL    HW178956   0.776  13.808   8.964  0.3547 -0.4198 -0.5799
55659SOL    HW278957   0.742  13.774   8.821 -0.7637  0.1337 -0.4544
55660SOL     OW78958   8.697   5.611   0.264 -0.6375 -0.2182 -0.5350
55660SOL    HW178959   8.614   5.623   0.311 -1.3860 -2.8795 -1.0212
55660SOL    HW278960   8.670   5.587   0.175  0.7406  1.9069 -1.6096
55661SOL     OW78961   4.038   7.077  12.881  0.0864  0.0954  0.3611
55661SOL    HW178962   4.060   6.984  12.891  1.8892  0.6535  2.2737
55661SOL    HW278963   4.121   7.119  12.859 -0.3697  1.4395  1.1240
55662SOL     OW78964   9.819   4.360   2.991  0.1833 -0.0568 -0.1509
55662SOL    HW178965   9.825   4.402   2.906  3.1071 -2.3068 -1.2497
55662SOL    HW278966   9.897   4.390   3.039 -0.2936 -0.4492  0.9105
55663SOL     OW78967   7.853   3.249   3.799 -0.1185  0.5218  0.3526
55663SOL    HW178968   7.825   3.159   3.778 -0.3450  0.5714  0.4363
55663SOL    HW278969   7.882   3.285   3.716  0.0680  0.3350  0.3373
55664SOL     OW78970  12.917   4.785   9.745  0.3621 -0.3970  0.2462
55664SOL    HW178971  12.965   4.705   9.722  0.3785 -1.0989  2.4450
55664SOL    HW278972  12.871   4.762   9.826 -3.0451  0.5007 -1.2284
55665SOL     OW78973   2.663   7.990   1.556  0.1051  0.0549 -0.1945
55665SOL    HW178974   2.674   8.083   1.578  2.9535 -0.2145 -0.1667
55665SOL    HW278975   2.643   7.990   1.462 -0.5677  0.6897 -0.0671
55666SOL     OW78976   4.777   5.880  12.437  0.0541  0.2515  0.4848
55666SOL    HW178977   4.837   5.954  12.452  1.2757 -0.4010 -0.8747
55666SOL    HW278978   4.737   5.899  12.352  0.0393 -0.4308  0.3366
55667SOL     OW78979   2.326  11.252   6.804 -0.7718  0.6589 -0.3016
55667SOL    HW178980   2.359  11.334   6.767  0.7359  0.0736 -0.3632
55667SOL    HW278981   2.316  11.194   6.728 -0.2230  0.2826 -0.0971
55668SOL     OW78982   7.203   0.757   2.931 -0.5287  0.7599  0.4787
55668SOL    HW178983   7.141   0.821   2.897 -1.4516  0.5433  1.7069
55668SOL    HW278984   7.237   0.797   3.011  0.6712  0.7167  0.0207
55669SOL     OW78985   9.271   0.888  10.791  0.8950 -0.2838  0.4329
55669SOL    HW178986   9.194   0.944  10.779 -0.0745 -1.6263  0.1952
55669SOL    HW278987   9.344   0.941  10.759 -0.1776  0.3104 -1.1463
55670SOL     OW78988  10.991  13.541   9.884 -0.0700 -0.1969 -0.1088
55670SOL    HW178989  11.044  13.501   9.815 -0.4722 -1.0889  0.0897
55670SOL    HW278990  10.928  13.595   9.837 -0.8679 -1.4322 -0.4961
55671SOL     OW78991   5.415   4.218  13.916  0.2158  0.2633 -0.4666
55671SOL    HW178992   5.444   4.276  13.986 -0.6927  0.1361  0.0288
55671SOL    HW278993   5.344   4.167  13.955  1.0354 -1.2419 -0.8663
55672SOL     OW78994  12.837   4.589  13.343 -0.1976  0.0707  0.1322
55672SOL    HW178995  12.808   4.677  13.368 -0.5466 -0.5461  2.0443
55672SOL    HW278996  12.932   4.590  13.357 -0.1402  0.2416 -0.2386
55673SOL     OW78997   4.214   4.833   0.147  0.5071  0.1810 -0.2215
55673SOL    HW178998   4.197   4.926   0.163  0.2614  0.2769 -0.9990
55673SOL    HW278999   4.142   4.788   0.190  1.4608  0.2231  1.5661
55674SOL     OW79000  13.213   2.597   1.937  1.1135  0.1030  0.6321
55674SOL    HW179001  13.281   2.657   1.967  2.1901 -2.0533  2.8235
55674SOL    HW279002  13.142   2.606   2.001 -1.1086  2.7256 -1.9123
55675SOL     OW79003   2.004   0.340   0.029  0.7681 -0.5977 -1.2536
55675SOL    HW179004   2.013   0.431   0.057  0.1809 -0.3851 -1.7229
55675SOL    HW279005   2.067   0.330  -0.042  1.8869 -0.9887 -0.2304
55676SOL     OW79006   4.913   6.894   2.307  0.0963 -0.3067 -0.5464
55676SOL    HW179007   4.964   6.875   2.229  0.7418 -0.8190 -0.0151
55676SOL    HW279008   4.837   6.943   2.275 -0.2971 -1.5736 -1.6593
55677SOL     OW79009   6.360   4.195   7.179  0.2604  0.5139 -0.0479
55677SOL    HW179010   6.298   4.200   7.251  0.5186  1.4662  0.1269
55677SOL    HW279011   6.387   4.103   7.176 -0.4195  0.2936  0.4932
55678SOL     OW79012   0.056   2.011   3.091 -0.2213  0.1962  0.0453
55678SOL    HW179013  -0.036   1.989   3.076 -0.3447  0.3442  0.5502
55678SOL    HW279014   0.102   1.928   3.084 -0.5913 -0.1423  1.2357
55679SOL     OW79015  10.670   9.931   2.688  0.4656  0.1501  0.3611
55679SOL    HW179016  10.584   9.913   2.727  0.3279  1.5964  0.8075
55679SOL    HW279017  10.673   9.877   2.610 -1.3164  0.8381 -0.2443
55680SOL     OW79018   0.569   4.792   8.592 -0.9032 -0.5893 -0.1428
55680SOL    HW179019   0.514   4.759   8.521 -0.2021 -1.4525 -0.3077
55680SOL    HW279020   0.637   4.843   8.548 -1.5880  0.5388  0.0653
55681SOL     OW79021  11.180   3.678  11.317 -0.1812 -0.0929 -0.3323
55681SOL    HW179022  11.095   3.695  11.358  0.0221  0.7189 -0.2392
55681SOL    HW279023  11.169   3.707  11.227 -0.8343 -2.4644 -1.0962
55682SOL     OW79024  13.883   8.322  12.868 -0.2369 -0.1801  0.0930
55682SOL    HW179025  13.948   8.345  12.935 -1.4482  1.0693  0.8862
55682SOL    HW279026  13.823   8.262  12.911 -0.5693 -0.0024 -0.1140
55683SOL     OW79027   0.175   3.385   2.892 -0.2712 -0.3220  0.0319
55683SOL    HW179028   0.089   3.393   2.935 -0.2403 -0.6355  0.1550
55683SOL    HW279029   0.155   3.343   2.808 -0.1828 -0.8478  0.2675
55684SOL     OW79030   0.081  13.756   0.367 -0.4879  0.2478  0.2490
55684SOL    HW179031   0.072  13.850   0.351  0.8959  0.5684  1.1746
55684SOL    HW279032   0.095  13.748   0.461 -1.0059 -0.9405  0.2531
55685SOL     OW79033   1.655  12.241   2.635 -0.1616 -0.2853 -0.9430
55685SOL    HW179034   1.714  12.304   2.676 -2.1205  1.3453 -0.4358
55685SOL    HW279035   1.660  12.262   2.541  1.8255 -1.8118 -1.2502
55686SOL     OW79036   8.005   0.405  12.845  0.2727  0.4933  0.1040
55686SOL    HW179037   7.912   0.404  12.821  0.5366  0.2118 -0.9307
55686SOL    HW279038   8.033   0.314  12.834  0.7847  0.6677 -0.0322
55687SOL     OW79039  13.575   0.243   6.918  0.1840 -0.2771 -0.3783
55687SOL    HW179040  13.644   0.186   6.884 -0.0908 -0.7715 -0.1152
55687SOL    HW279041  13.582   0.234   7.013 -1.9979 -2.5066 -0.3291
55688SOL     OW79042   1.627  10.503   1.843 -1.0510 -0.4957  0.2880
55688SOL    HW179043   1.550  10.478   1.791 -0.6815  1.0423 -1.0742
55688SOL    HW279044   1.637  10.432   1.907 -2.3011 -1.8048 -0.9059
55689SOL     OW79045   2.685   5.288   8.553 -0.2013  0.3688 -0.0426
55689SOL    HW179046   2.605   5.265   8.599 -0.0353 -0.9263 -0.3675
55689SOL    HW279047   2.679   5.383   8.539 -1.1041  0.4719  0.9877
55690SOL     OW79048  11.355   0.374   1.364  0.4596 -0.4318  0.5267
55690SOL    HW179049  11.295   0.391   1.292 -0.7689  0.4884  1.7035
55690SOL    HW279050  11.430   0.431   1.347  0.0843 -0.0640  0.0825
55691SOL     OW79051  13.587   0.355   5.092  0.2960 -0.2025  0.2938
55691SOL    HW179052  13.552   0.327   5.007 -2.4121 -0.7554  1.4781
55691SOL    HW279053  13.630   0.277   5.127  2.7012  0.4074 -1.0660
55692SOL     OW79054  10.131   2.582   2.763 -0.6937  0.0317 -1.0348
55692SOL    HW179055  10.051   2.560   2.811  0.9015  1.0573  2.3799
55692SOL    HW279056  10.150   2.503   2.712 -1.2016 -2.2459  2.0077
55693SOL     OW79057   0.674   5.655   6.040 -0.3366  0.2398  0.3291
55693SOL    HW179058   0.638   5.736   6.004 -0.7594 -0.1875 -0.2291
55693SOL    HW279059   0.613   5.587   6.011 -0.3722 -0.1928  1.3795
55694SOL     OW79060  11.239   6.558  12.108  0.3376 -0.6852 -0.0292
55694SOL    HW179061  11.186   6.584  12.032 -1.6618  0.3678  1.6329
55694SOL    HW279062  11.329   6.562  12.077 -0.3623  0.6698 -2.0765
55695SOL     OW79063   5.713   4.492   3.194  0.0835 -0.1528  0.1905
55695SOL    HW179064   5.804   4.463   3.194  0.0750 -0.1838 -0.1827
55695SOL    HW279065   5.672   4.440   3.125 -0.3050 -0.4157  0.6141
55696SOL     OW79066   8.395  13.807  12.638 -0.3038  0.1159  0.0766
55696SOL    HW179067   8.405  13.867  12.564  1.1927  0.6275  0.6560
55696SOL    HW279068   8.417  13.721  12.601 -1.5513  0.0328 -0.5330
55697SOL     OW79069   3.186   5.217   0.649 -0.4765 -0.0794  0.0457
55697SOL    HW179070   3.177   5.122   0.635  0.0675 -0.3005  1.0909
55697SOL    HW279071   3.278   5.229   0.671 -0.6944  0.5888  0.6334
55698SOL     OW79072   3.389  11.329   7.534  0.8044  0.5156  0.1199
55698SOL    HW179073   3.333  11.345   7.610  1.4621  1.1492  0.4839
55698SOL    HW279074   3.366  11.398   7.472 -1.3746 -1.3071 -1.2624
55699SOL     OW79075  11.641   4.413   6.757 -0.2035 -0.0007 -0.4742
55699SOL    HW179076  11.679   4.331   6.787 -1.4773 -0.3653  0.1970
55699SOL    HW279077  11.578   4.437   6.825  0.1475  1.5418 -0.6553
55700SOL     OW79078  13.897  12.500   8.052 -0.0636 -0.7058  1.0867
55700SOL    HW179079  13.941  12.499   8.137  2.1618  1.1131  0.0743
55700SOL    HW279080  13.869  12.591   8.041 -0.6073 -0.9934  0.0286
55701SOL     OW79081  12.482  11.196   9.173 -0.0213  0.7012  0.6699
55701SOL    HW179082  12.482  11.102   9.154 -1.9819  0.8237 -0.1747
55701SOL    HW279083  12.404  11.209   9.227 -1.4021  2.2173 -1.5255
55702SOL     OW79084   2.013   9.859   4.966  0.5620 -0.0029 -0.2979
55702SOL    HW179085   1.988   9.876   4.875  0.4847  2.4222  0.1260
55702SOL    HW279086   1.942   9.806   5.001  0.0596 -0.0469 -1.3573
55703SOL     OW79087   6.823  10.527  10.888  0.2143 -0.5068  0.1813
55703SOL    HW179088   6.888  10.576  10.938 -0.5845  0.1437  0.6100
55703SOL    HW279089   6.751  10.589  10.874 -1.1508 -1.7319  1.3824
55704SOL     OW79090  10.709   0.983   9.188  0.2346 -0.8891 -0.0586
55704SOL    HW179091  10.774   1.034   9.141  0.6942  0.3622  1.8314
55704SOL    HW279092  10.687   1.036   9.265 -1.4452 -2.2338  0.4636
55705SOL     OW79093   3.415  13.796  13.943  0.5368  0.1506 -0.0167
55705SOL    HW179094   3.360  13.741  13.998 -0.4075  0.7885 -0.3009
55705SOL    HW279095   3.459  13.734  13.885 -0.4501 -0.3319 -0.2784
55706SOL     OW79096   7.700   1.739   7.860  0.4213  0.0321 -0.1723
55706SOL    HW179097   7.789   1.734   7.894  0.1136  0.0414  0.6563
55706SOL    HW279098   7.690   1.829   7.829  0.1578  0.5223  1.2821
55707SOL     OW79099  10.768  13.591   1.149  0.1764 -0.4506  0.1934
55707SOL    HW179100  10.809  13.676   1.165  0.5756 -0.3592 -1.1786
55707SOL    HW279101  10.832  13.527   1.179 -0.1455 -0.2801  1.2770
55708SOL     OW79102   7.711   8.634   7.663 -1.0065  0.3592 -0.2276
55708SOL    HW179103   7.679   8.716   7.626 -0.9030  0.1994 -0.6877
55708SOL    HW279104   7.732   8.654   7.754 -0.8231  0.8794 -0.3813
55709SOL     OW79105   9.548   8.371   0.320  0.2998 -0.0463 -0.4559
55709SOL    HW179106   9.573   8.307   0.254  0.9065  0.4003 -0.6724
55709SOL    HW279107   9.583   8.335   0.402  0.5744 -0.0312 -0.5647
55710SOL     OW79108   0.886   0.953   7.115  0.2729 -0.0932  0.1547
55710SOL    HW179109   0.892   1.047   7.130 -2.9633  0.1330  0.7560
55710SOL    HW279110   0.961   0.916   7.161 -0.5506  1.9121  3.3537
55711SOL     OW79111   0.310   3.716   1.602 -0.4859  0.2761  0.0233
55711SOL    HW179112   0.228   3.666   1.602  1.3620 -3.0119  0.3278
55711SOL    HW279113   0.370   3.664   1.549  1.7167  2.0943  0.5656
55712SOL     OW79114   9.471  12.939  12.653 -0.0107  0.2543 -0.6033
55712SOL    HW179115   9.377  12.921  12.663  0.3821 -1.9143 -0.3576
55712SOL    HW279116   9.513  12.856  12.673  2.0457  1.4458  0.2820
55713SOL     OW79117   0.747  13.523   5.932  0.5614  0.4483  0.6112
55713SOL    HW179118   0.750  13.591   5.864  1.7430  0.5017  0.6962
55713SOL    HW279119   0.810  13.553   5.998  2.7253 -1.7414 -0.3299
55714SOL     OW79120  12.868  13.703  13.741 -0.2956 -0.1880  0.1757
55714SOL    HW179121  12.951  13.703  13.694 -1.0503  2.5968 -1.4095
55714SOL    HW279122  12.879  13.771  13.808 -0.9519 -0.5615  0.6792
55715SOL     OW79123   3.998   3.207   3.839  0.0673 -0.4091 -0.4491
55715SOL    HW179124   4.053   3.256   3.777  1.0908  0.7296  1.2659
55715SOL    HW279125   3.923   3.265   3.855  1.0669  0.4973  1.2533
55716SOL     OW79126  10.321   7.691  12.939 -0.0832  0.2770 -0.2473
55716SOL    HW179127  10.387   7.748  12.899 -0.9616  2.4056  1.1219
55716SOL    HW279128  10.239   7.741  12.931 -0.6787 -0.2224  2.0581
55717SOL     OW79129   5.515   4.799   4.622  0.4631 -0.4111 -0.3390
55717SOL    HW179130   5.564   4.848   4.556 -1.0501  0.6542 -0.7372
55717SOL    HW279131   5.471   4.730   4.573  0.1095 -0.2198 -0.2959
55718SOL     OW79132   5.083   8.986   6.640 -0.3615  0.3105  0.2633
55718SOL    HW179133   5.084   8.908   6.585  2.0992  0.6925 -0.3461
55718SOL    HW279134   5.069   8.954   6.729  2.3610 -1.0939  0.2798
55719SOL     OW79135  11.798   3.614   5.837 -0.0488  0.2484  0.2962
55719SOL    HW179136  11.894   3.614   5.843  0.1920 -1.4231 -2.1958
55719SOL    HW279137  11.769   3.585   5.923  1.7721 -1.0601  0.5273
55720SOL     OW79138   3.421  11.792  13.146 -0.4791 -0.4126  0.2180
55720SOL    HW179139   3.473  11.802  13.226 -1.5238 -0.7596  0.9690
55720SOL    HW279140   3.399  11.881  13.120  1.0932 -0.2134 -0.5444
55721SOL     OW79141   6.232  13.846  13.026  0.3045  0.0247 -0.0984
55721SOL    HW179142   6.202  13.777  12.967 -1.7309 -0.3100  1.2162
55721SOL    HW279143   6.154  13.901  13.040  1.1151  0.9061  1.1355
55722SOL     OW79144   0.211  10.567  12.151  0.1669  0.0162 -0.5213
55722SOL    HW179145   0.141  10.561  12.215 -1.2089  1.3630 -1.8096
55722SOL    HW279146   0.239  10.659  12.155  3.2852 -0.8789  1.3334
55723SOL     OW79147   6.538   0.284  14.044  0.0885 -0.0008 -0.1987
55723SOL    HW179148   6.621   0.281  14.091 -0.1689 -1.5769  0.2366
55723SOL    HW279149   6.524   0.193  14.015 -0.7278  0.5486 -1.6175
55724SOL     OW79150   3.180   9.939   5.546  0.9942 -0.1983  0.5409
55724SOL    HW179151   3.152   9.965   5.633 -0.1365  1.3867 -0.2484
55724SOL    HW279152   3.106   9.962   5.489  1.4676 -1.7085 -0.7812
55725SOL     OW79153   9.680  10.200  13.611  0.0016 -0.1054 -0.1755
55725SOL    HW179154   9.598  10.165  13.576  0.5317  0.0069 -1.6259
55725SOL    HW279155   9.663  10.214  13.704 -1.9278  0.8040 -0.6186
55726SOL     OW79156  10.707   6.342   7.016  0.0129  0.3620 -0.0776
55726SOL    HW179157  10.708   6.317   7.108 -1.7425 -1.3312 -0.4546
55726SOL    HW279158  10.634   6.404   7.009 -0.8228 -0.6513 -0.5621
55727SOL     OW79159   8.264  13.268   4.212  0.2575 -0.1040  0.3757
55727SOL    HW179160   8.275  13.235   4.301  0.1799  1.2032  0.8967
55727SOL    HW279161   8.351  13.300   4.188  0.4499 -1.0912 -0.3133
55728SOL     OW79162   3.253  10.607   6.549  0.4282  0.6559 -0.2414
55728SOL    HW179163   3.189  10.536   6.554  2.6205 -1.4923 -0.5808
55728SOL    HW279164   3.271  10.630   6.640 -0.2369  0.7204 -0.1213
55729SOL     OW79165   0.565   4.476   5.503  0.0432 -0.2953  0.3598
55729SOL    HW179166   0.560   4.538   5.430 -1.9913 -0.3502  0.3981
55729SOL    HW279167   0.592   4.394   5.462  2.2391  0.4053  0.2329
55730SOL     OW79168   5.886   6.239   2.455 -0.1078 -0.1256  0.5911
55730SOL    HW179169   5.795   6.211   2.466 -0.2323 -0.1080 -0.3061
55730SOL    HW279170   5.884   6.299   2.380  0.5356  0.4096  0.9894
55731SOL     OW79171   6.566   4.672   7.215 -0.1062 -0.7155 -0.3786
55731SOL    HW179172   6.549   4.586   7.252 -0.8446 -0.2584  0.3650
55731SOL    HW279173   6.589   4.655   7.124 -1.6922 -1.5984 -0.6396
55732SOL     OW79174   9.600  13.059   6.128 -0.3155 -0.1624 -0.2963
55732SOL    HW179175   9.583  13.053   6.034  0.8863  2.5598 -0.7605
55732SOL    HW279176   9.688  13.094   6.135 -0.0734 -1.0347  1.9054
55733SOL     OW79177  12.193   7.416   7.193  0.8555  0.0143 -0.0914
55733SOL    HW179178  12.269   7.359   7.206 -0.3676 -1.7682 -0.5198
55733SOL    HW279179  12.195   7.437   7.099 -0.0429 -1.3785 -0.4577
55734SOL     OW79180   3.671   2.295   2.404  0.7249 -0.3661  0.4659
55734SOL    HW179181   3.727   2.368   2.429  1.3326 -0.5143 -0.4318
55734SOL    HW279182   3.591   2.336   2.372  1.4031 -0.0371 -0.8767
55735SOL     OW79183  13.634   7.416   6.633 -0.3615 -0.3190 -0.2317
55735SOL    HW179184  13.722   7.428   6.598 -0.9685  1.2459 -1.3526
55735SOL    HW279185  13.584   7.376   6.561 -1.0185  0.6603 -0.3551
55736SOL     OW79186   3.536  12.616   9.427 -0.2927  0.2053  0.0411
55736SOL    HW179187   3.559  12.700   9.468  0.7064 -0.2148  0.3701
55736SOL    HW279188   3.567  12.550   9.488  1.2592 -0.4439 -1.3622
55737SOL     OW79189   9.576   5.635   5.441 -0.9790 -0.4805 -0.1395
55737SOL    HW179190   9.661   5.675   5.427 -0.9041 -0.4499  0.3599
55737SOL    HW279191   9.595   5.542   5.456 -1.0961 -0.5954 -0.6791
55738SOL     OW79192   0.315  13.409   4.953 -0.5502  0.4534 -0.8996
55738SOL    HW179193   0.390  13.442   5.002 -1.5079  0.5814  0.5257
55738SOL    HW279194   0.239  13.431   5.006 -1.4122 -2.1606 -0.8905
55739SOL     OW79195   8.961   7.822   7.584 -0.1715 -0.5164 -0.0874
55739SOL    HW179196   8.887   7.879   7.564  0.9144  0.4309 -1.7132
55739SOL    HW279197   9.038   7.877   7.569  0.8869 -1.4841  1.4780
55740SOL     OW79198   9.850   3.521   1.055  0.1054 -0.2425 -0.4443
55740SOL    HW179199   9.858   3.566   1.139  0.3219 -0.0462 -0.5679
55740SOL    HW279200   9.821   3.433   1.077  0.4232 -0.2744 -0.1435
55741SOL     OW79201  13.463  12.321  12.620 -0.6570  0.1476  0.3421
55741SOL    HW179202  13.475  12.398  12.676  4.5904  0.1375 -0.2727
55741SOL    HW279203  13.471  12.354  12.531 -0.9117 -0.8114 -0.0505
55742SOL     OW79204   0.738   2.537   0.842 -0.6326 -0.0982  0.1613
55742SOL    HW179205   0.666   2.478   0.818 -0.8301  0.3963 -0.5064
55742SOL    HW279206   0.701   2.624   0.833 -0.1158  0.1462  0.3956
55743SOL     OW79207   2.122   0.938   8.826  0.0179 -0.3832 -0.8202
55743SOL    HW179208   2.151   1.021   8.864  2.9382 -0.5317 -2.4415
55743SOL    HW279209   2.115   0.879   8.901 -1.9400  1.1882  0.3367
55744SOL     OW79210   9.112   3.465   2.227 -0.3454  0.4991 -0.1176
55744SOL    HW179211   9.150   3.537   2.278 -1.6291  1.1094  0.0361
55744SOL    HW279212   9.111   3.497   2.137 -0.1059  0.3153 -0.1856
55745SOL     OW79213   1.181   9.780   0.053  0.1727  0.3436  0.2265
55745SOL    HW179214   1.110   9.841   0.036  0.2844  0.1592 -1.0312
55745SOL    HW279215   1.171   9.712  -0.014 -0.3454 -1.4115  1.9860
55746SOL     OW79216   3.692   1.536   5.191  0.1008  0.1520 -0.2425
55746SOL    HW179217   3.655   1.564   5.108  0.1921 -2.5448 -1.3008
55746SOL    HW279218   3.772   1.488   5.168 -0.2689 -1.3251  1.3005
55747SOL     OW79219   3.817   9.434  11.654 -0.4740 -0.3120 -0.1855
55747SOL    HW179220   3.860   9.361  11.697 -0.3053 -0.2683 -0.2808
55747SOL    HW279221   3.831   9.419  11.561 -0.1349  0.0260 -0.1930
55748SOL     OW79222  12.877   2.167   0.763 -0.0842 -0.0587  0.4678
55748SOL    HW179223  12.912   2.133   0.845  0.0435  0.6967  0.7409
55748SOL    HW279224  12.875   2.262   0.776  0.2493  0.0973 -0.5219
55749SOL     OW79225   7.251   5.040  10.580 -0.0616 -0.0469 -0.3921
55749SOL    HW179226   7.306   5.085  10.516 -0.1905  1.0854  0.2644
55749SOL    HW279227   7.168   5.025  10.535  0.2415 -0.3397 -0.8649
55750SOL     OW79228   3.031  11.461  12.003 -0.2464  0.0564 -0.2012
55750SOL    HW179229   3.052  11.538  11.950 -0.6116  0.6137  0.4509
55750SOL    HW279230   2.983  11.403  11.944  3.2480 -1.4224 -1.8719
55751SOL     OW79231  12.521   4.012   1.985 -0.1804  0.0286  0.1751
55751SOL    HW179232  12.602   3.973   2.018 -0.9589 -1.7901  0.0634
55751SOL    HW279233  12.515   3.981   1.895 -2.0068 -1.6372  0.7975
55752SOL     OW79234  11.849   6.243   6.749 -0.2280  0.4521  0.0292
55752SOL    HW179235  11.895   6.327   6.742  1.0575 -0.0852  1.4360
55752SOL    HW279236  11.824   6.237   6.841  0.6708 -1.1644  0.2053
55753SOL     OW79237  12.070  12.042   3.377 -0.1194 -0.0806 -0.1628
55753SOL    HW179238  11.978  12.063   3.360 -0.5684  0.6587  2.6691
55753SOL    HW279239  12.095  12.100   3.448  2.5128 -0.4513 -0.6789
55754SOL     OW79240  10.991   0.535   3.619  0.0526  0.5124 -0.0002
55754SOL    HW179241  10.939   0.454   3.620  0.4799  0.2189 -0.7762
55754SOL    HW279242  11.073   0.511   3.662 -0.3202  0.8901  0.9371
55755SOL     OW79243   7.493   5.845  11.196  0.3819  0.2094 -0.6215
55755SOL    HW179244   7.563   5.911  11.202  0.4346  0.1443 -0.4988
55755SOL    HW279245   7.438   5.874  11.124 -1.5909  2.3227  1.5732
55756SOL     OW79246   2.682   8.853   8.958 -0.3613 -0.4877 -0.1283
55756SOL    HW179247   2.707   8.807   9.038  1.2523 -2.4185 -1.5933
55756SOL    HW279248   2.593   8.823   8.939 -1.4277  1.2960  1.7383
55757SOL     OW79249  10.213   5.996   6.567  0.3300 -0.0135 -0.1757
55757SOL    HW179250  10.298   5.992   6.611 -0.4936 -2.6337  1.3508
55757SOL    HW279251  10.177   6.081   6.591  2.0129  0.6616  0.0729
55758SOL     OW79252  11.655  11.685  11.276 -0.0847  0.1623 -0.7268
55758SOL    HW179253  11.725  11.640  11.229 -1.1145 -0.8915 -1.2757
55758SOL    HW279254  11.701  11.737  11.342  1.2600  0.0831 -1.5621
55759SOL     OW79255   3.603   5.860   3.970  1.0025 -0.2840 -0.0935
55759SOL    HW179256   3.653   5.911   3.906  1.5336  1.2742  1.4594
55759SOL    HW279257   3.669   5.828   4.031  0.3115  0.1277  0.8904
55760SOL     OW79258  12.348   1.940  13.344  0.7530 -0.2968 -0.6957
55760SOL    HW179259  12.376   1.943  13.253  1.6085  0.4272 -0.4263
55760SOL    HW279260  12.281   2.007  13.351  2.0632  1.0246 -0.3732
55761SOL     OW79261   8.119   6.592  10.462  0.0547 -0.0009  0.3708
55761SOL    HW179262   8.079   6.679  10.466 -3.1228 -1.2460 -0.5754
55761SOL    HW279263   8.187   6.600  10.395 -0.0815  1.7982  0.4102
55762SOL     OW79264  12.222   1.438   2.760  0.0377 -0.6016 -0.3184
55762SOL    HW179265  12.274   1.502   2.809  0.0232  0.7519 -1.9552
55762SOL    HW279266  12.131   1.462   2.777  0.0328  0.4578 -1.6398
55763SOL     OW79267   1.957  11.059   9.860 -0.1281  0.2542 -0.1558
55763SOL    HW179268   1.946  10.964   9.864 -0.0883  0.1719 -1.6030
55763SOL    HW279269   1.872  11.092   9.830  0.0790  0.6152 -0.3541
55764SOL     OW79270   9.321   4.967   6.119 -0.1682  0.2367  0.3673
55764SOL    HW179271   9.269   5.025   6.176  0.8089  0.8802  0.6430
55764SOL    HW279272   9.411   4.995   6.133  0.3990 -1.6862  0.8687
55765SOL     OW79273  11.917   9.749  10.763  0.2281 -0.0557 -0.0350
55765SOL    HW179274  11.843   9.762  10.704  0.1675  0.4476  0.1404
55765SOL    HW279275  11.954   9.665  10.738  1.0699  0.7726 -1.7528
55766SOL     OW79276   6.730  13.234  11.698 -0.0320 -0.2350 -0.4775
55766SOL    HW179277   6.775  13.153  11.673 -1.9629 -0.5833 -3.4363
55766SOL    HW279278   6.798  13.289  11.737  1.8560 -2.3949 -0.5143
55767SOL     OW79279   1.490   4.828   1.310 -0.3469  0.2790 -0.4915
55767SOL    HW179280   1.564   4.886   1.293  1.3400 -1.7815 -0.6086
55767SOL    HW279281   1.470   4.841   1.403  1.9766 -1.0429  0.2527
55768SOL     OW79282   3.036   7.561   0.082 -0.2491  0.1041 -0.4879
55768SOL    HW179283   3.120   7.589   0.118  0.1231  0.8705 -1.8618
55768SOL    HW279284   3.059   7.524  -0.004 -1.2652 -0.0604 -0.7003
55769SOL     OW79285   4.562  11.392   1.442 -0.8461  0.2636  0.3333
55769SOL    HW179286   4.497  11.367   1.377 -1.0255 -0.4107  0.7694
55769SOL    HW279287   4.559  11.323   1.508 -0.9514  1.1307  1.2670
55770SOL     OW79288   6.185  13.321   1.487 -0.8125  0.3758  0.5670
55770SOL    HW179289   6.280  13.327   1.480 -0.6907 -1.8047 -0.4647
55770SOL    HW279290   6.166  13.228   1.473 -3.1856  0.9704 -0.5929
55771SOL     OW79291   6.319   0.120   5.397 -0.1720 -0.0532 -0.8833
55771SOL    HW179292   6.237   0.070   5.396  0.0351 -0.3832 -1.5186
55771SOL    HW279293   6.298   0.200   5.349 -0.0306 -0.2870 -1.3374
55772SOL     OW79294  10.358   3.075   7.900  0.2305 -0.4451 -0.0155
55772SOL    HW179295  10.334   3.079   7.808  1.7999 -0.9766 -0.4798
55772SOL    HW279296  10.334   3.160   7.936 -0.7870 -0.3908 -0.8099
55773SOL     OW79297   0.973   5.116   7.346 -0.6428  0.0640  0.3026
55773SOL    HW179298   1.003   5.040   7.395 -0.9636  1.5745  3.0207
55773SOL    HW279299   0.879   5.118   7.359 -0.9230 -0.0889 -1.3843
55774SOL     OW79300   1.560  10.404   9.563  0.4085 -0.8307 -0.3535
55774SOL    HW179301   1.622  10.469   9.531  0.3631 -1.0935 -0.9904
55774SOL    HW279302   1.611  10.323   9.569  0.0063 -1.1836 -1.4323
55775SOL     OW79303   3.219  12.353  13.877  0.4206  0.5721 -0.1840
55775SOL    HW179304   3.267  12.309  13.947  1.2894  0.5868 -0.7553
55775SOL    HW279305   3.176  12.426  13.920  2.0626  1.3998  0.1141
55776SOL     OW79306  12.792   4.188   1.798  0.4830  0.2020  0.2680
55776SOL    HW179307  12.885   4.178   1.778  0.3832 -1.4207  0.4620
55776SOL    HW279308  12.778   4.131   1.874 -0.8699 -0.3793 -0.3949
55777SOL     OW79309  12.088  10.740   7.330 -0.2405 -0.1967  0.0436
55777SOL    HW179310  12.134  10.714   7.250 -1.0699 -0.5254 -0.3439
55777SOL    HW279311  12.067  10.657   7.373 -0.0936 -0.0324  0.4396
55778SOL     OW79312   2.154  10.019   2.828 -0.4052 -0.0593  0.5533
55778SOL    HW179313   2.065  10.051   2.842 -0.0876  1.7514 -1.1925
55778SOL    HW279314   2.203  10.095   2.799  1.1602 -1.5157 -0.8576
55779SOL     OW79315   5.895   9.026   0.129  0.3337 -0.2816 -0.1942
55779SOL    HW179316   5.948   8.961   0.175  1.4657 -0.6417 -1.9464
55779SOL    HW279317   5.805   8.996   0.141  0.5654 -0.2738  1.8826
55780SOL     OW79318  10.225   8.702  11.226 -0.0515  0.3295  0.0748
55780SOL    HW179319  10.258   8.690  11.137 -0.0166  1.8089 -0.1378
55780SOL    HW279320  10.265   8.784  11.255 -1.4014  0.7630  0.8097
55781SOL     OW79321   7.591   3.217   7.920  0.0284 -0.1570  0.3483
55781SOL    HW179322   7.575   3.124   7.938  0.6568 -0.3520 -0.0763
55781SOL    HW279323   7.678   3.219   7.882 -0.0014  0.6087  0.3137
55782SOL     OW79324   7.048   5.256   7.567 -0.1598  0.4254 -0.9409
55782SOL    HW179325   7.088   5.280   7.651  0.5138  1.4901 -1.5387
55782SOL    HW279326   7.028   5.163   7.575 -1.8291  0.8784  1.0834
55783SOL     OW79327   0.272   0.363   9.901 -0.2781  0.0851  0.5280
55783SOL    HW179328   0.259   0.392   9.810 -1.5000  0.7530  0.8906
55783SOL    HW279329   0.199   0.303   9.917 -1.1524  1.4016  1.6336
55784SOL     OW79330   7.226   0.014  11.764  0.0374  0.7051  0.4937
55784SOL    HW179331   7.198  -0.071  11.729 -2.1171  0.8141  1.8000
55784SOL    HW279332   7.305   0.035  11.714  0.1288 -1.6312 -0.4882
55785SOL     OW79333   4.246   7.236  10.154 -0.4638  0.0389 -0.5750
55785SOL    HW179334   4.192   7.241  10.233  0.2722  3.7069 -0.1339
55785SOL    HW279335   4.313   7.171  10.174 -1.4330 -0.5064  1.0373
55786SOL     OW79336  12.325  12.475   5.878 -0.2033  0.0609  0.5574
55786SOL    HW179337  12.342  12.551   5.934 -1.8504 -0.7938  2.3024
55786SOL    HW279338  12.299  12.513   5.794  0.1183  1.4081  1.0414
55787SOL     OW79339  10.376   4.896  13.112  0.0278 -0.4682 -0.0198
55787SOL    HW179340  10.428   4.849  13.047  1.1118 -0.3895  0.7681
55787SOL    HW279341  10.286   4.893  13.077  0.4478 -1.1217 -1.1059
55788SOL     OW79342   2.191   5.710   5.385 -0.5146 -0.0814 -0.9288
55788SOL    HW179343   2.239   5.692   5.466 -3.3180 -1.2001  0.6340
55788SOL    HW279344   2.120   5.769   5.411 -1.2566 -0.1462 -2.6405
55789SOL     OW79345   3.845   2.422   5.412 -0.6180 -0.6247  0.2796
55789SOL    HW179346   3.891   2.377   5.342 -1.0142  1.4557 -1.3894
55789SOL    HW279347   3.908   2.485   5.447 -1.2046  0.0597  0.1153
55790SOL     OW79348   8.962   1.357   9.665  0.2590  0.2952  0.4499
55790SOL    HW179349   8.901   1.361   9.591 -0.0733 -0.0666  0.6993
55790SOL    HW279350   8.985   1.448   9.682 -0.0291  0.4171  0.2057
55791SOL     OW79351   1.723  12.054   9.066 -0.5315 -0.2879 -0.4284
55791SOL    HW179352   1.814  12.082   9.058 -1.6322  3.7470 -1.3905
55791SOL    HW279353   1.691  12.051   8.975 -1.7103 -0.1095 -0.0354
55792SOL     OW79354   8.657   6.393   7.309 -0.1003 -0.0719 -0.3115
55792SOL    HW179355   8.589   6.385   7.375 -0.2117 -0.0083 -0.4193
55792SOL    HW279356   8.729   6.437   7.354 -0.2771  0.2106 -0.3066
55793SOL     OW79357   1.061   4.597  13.698 -0.4037  0.0834 -0.1938
55793SOL    HW179358   0.998   4.618  13.767 -1.7322  1.4031 -1.7439
55793SOL    HW279359   1.079   4.503  13.711 -1.4098  0.0520  1.2701
55794SOL     OW79360  12.139   9.933   2.093  0.1953 -0.4911 -0.0931
55794SOL    HW179361  12.059   9.956   2.141  0.7668  0.2250  0.5427
55794SOL    HW279362  12.124   9.966   2.005  0.6126  1.5955  0.5533
55795SOL     OW79363   8.019   0.585   8.196  0.4382 -0.1345  0.1587
55795SOL    HW179364   7.966   0.657   8.162  1.2179  0.1724 -0.4223
55795SOL    HW279365   8.037   0.530   8.120 -0.8689 -1.4446  0.7379
55796SOL     OW79366   5.850  10.853   1.729 -0.3794 -0.4028  0.0608
55796SOL    HW179367   5.853  10.948   1.728 -1.5738 -0.3470  0.6513
55796SOL    HW279368   5.799  10.829   1.652  0.9177 -0.6343 -0.7574
55797SOL     OW79369   3.435  13.841   6.573 -0.2808  0.2364 -0.1112
55797SOL    HW179370   3.454  13.802   6.487  0.0568  1.0341 -0.4053
55797SOL    HW279371   3.474  13.928   6.569 -1.5283  0.8472  0.3188
55798SOL     OW79372   3.871   2.917   3.212 -0.2231 -0.1229 -0.0137
55798SOL    HW179373   3.855   2.853   3.282 -1.2073  0.6324  0.4778
55798SOL    HW279374   3.855   3.002   3.253 -1.9738  0.2966 -1.4237
55799SOL     OW79375   3.774   4.794   0.134 -0.0386  0.2237 -0.0495
55799SOL    HW179376   3.769   4.865   0.198 -0.4600 -0.0382  0.2142
55799SOL    HW279377   3.852   4.814   0.082 -0.2999  1.0127 -0.1463
55800SOL     OW79378   5.552   2.862   7.632  0.1397  0.2661 -0.5860
55800SOL    HW179379   5.574   2.775   7.666 -0.3760  1.2309  2.5094
55800SOL    HW279380   5.468   2.849   7.588 -0.2735 -0.6996  0.4241
55801SOL     OW79381   8.376   3.201  12.706  0.0479 -0.4843  0.4413
55801SOL    HW179382   8.388   3.165  12.618  0.9143 -1.8692  1.0829
55801SOL    HW279383   8.416   3.287  12.703 -0.7155 -0.1463 -0.7471
55802SOL     OW79384   7.832   8.369   1.158  0.3072 -0.0733 -0.3374
55802SOL    HW179385   7.778   8.366   1.237 -0.4328  2.3814 -0.6737
55802SOL    HW279386   7.922   8.364   1.190 -0.0167 -0.0993  0.5861
55803SOL     OW79387  13.461   2.006   8.459 -0.5579  0.2583  1.0689
55803SOL    HW179388  13.484   1.913   8.448  0.3026  0.3828  1.7813
55803SOL    HW279389  13.539   2.054   8.432 -1.6330  0.8935 -1.1939
55804SOL     OW79390   9.607  11.150   7.685 -0.1415  0.2622  0.2383
55804SOL    HW179391   9.676  11.181   7.625  0.5528 -1.0575  0.3009
55804SOL    HW279392   9.611  11.210   7.759  0.2998  0.7729 -0.1853
55805SOL     OW79393   5.590   3.808  12.061  0.3037 -0.4128 -0.2756
55805SOL    HW179394   5.668   3.756  12.078  1.4245  1.4318  0.5623
55805SOL    HW279395   5.604   3.890  12.108 -2.0490  0.0955 -0.2911
55806SOL     OW79396   7.788  13.626   6.393 -0.3819 -0.0705  0.0396
55806SOL    HW179397   7.774  13.685   6.468 -1.9374  2.3392 -1.9979
55806SOL    HW279398   7.712  13.569   6.393 -0.7154  0.3680 -0.0674
55807SOL     OW79399   2.496   0.185   3.746 -0.0058  0.1439 -0.2960
55807SOL    HW179400   2.458   0.237   3.817  0.9670  0.2640  0.1625
55807SOL    HW279401   2.524   0.249   3.681 -0.1099  0.0965 -0.3866
55808SOL     OW79402   6.946   1.813   0.318  0.0619  0.8462  0.1123
55808SOL    HW179403   6.855   1.840   0.336  0.1878  0.9873  0.5624
55808SOL    HW279404   6.989   1.892   0.289  0.6368  1.3792  2.2106
55809SOL     OW79405  10.614  13.249  12.343  0.4421 -0.0172 -0.3504
55809SOL    HW179406  10.538  13.233  12.287 -0.3405 -0.0780  0.6893
55809SOL    HW279407  10.580  13.306  12.413  1.5946  0.7580 -0.3986
55810SOL     OW79408   1.370  11.829   1.857  0.1245 -0.3786 -0.2858
55810SOL    HW179409   1.278  11.856   1.861  0.4050  0.4795  0.9435
55810SOL    HW279410   1.373  11.765   1.787 -1.3649 -0.2103 -0.5356
55811SOL     OW79411   2.132   2.821  12.824  0.6330  0.1865 -0.0482
55811SOL    HW179412   2.214   2.871  12.832  0.9185 -0.2220 -0.3667
55811SOL    HW279413   2.114   2.790  12.912  0.1495  1.3201  0.2712
55812SOL     OW79414   0.329   7.083   9.599  0.0447 -0.0015  0.5203
55812SOL    HW179415   0.398   7.112   9.538 -0.3543 -1.7852 -0.8889
55812SOL    HW279416   0.377   7.047   9.673  0.5507  1.9631  1.1978
55813SOL     OW79417   3.794   0.804  11.805 -0.5492 -0.3095  0.0570
55813SOL    HW179418   3.808   0.754  11.886  1.0568 -0.7829 -0.4809
55813SOL    HW279419   3.882   0.823  11.773 -1.1564  0.5796 -1.1700
55814SOL     OW79420   3.283  12.851   8.727  0.0675  0.3963  0.5834
55814SOL    HW179421   3.258  12.920   8.665 -0.3322 -0.6145 -0.4162
55814SOL    HW279422   3.338  12.792   8.676 -1.5630 -1.3218  0.7107
55815SOL     OW79423   3.404  12.280   8.103 -0.2824 -0.0029  0.0081
55815SOL    HW179424   3.433  12.364   8.139 -1.2717 -0.4543  1.9879
55815SOL    HW279425   3.407  12.220   8.177 -1.9274 -1.1245 -0.7804
55816SOL     OW79426  13.128   0.646   9.426  0.3607 -0.7257 -0.4067
55816SOL    HW179427  13.054   0.632   9.367 -0.2706 -0.7834  0.3957
55816SOL    HW279428  13.100   0.717   9.484  0.8724 -0.8539  0.0035
55817SOL     OW79429   2.928   4.206   0.216  0.4827  0.0073 -0.2292
55817SOL    HW179430   2.905   4.140   0.281  1.7091  0.1058  0.3312
55817SOL    HW279431   2.844   4.245   0.191 -0.0958 -0.6433  0.6294
55818SOL     OW79432   5.511   8.667   6.045 -0.3406 -0.4766 -0.4141
55818SOL    HW179433   5.450   8.632   5.980 -0.2337 -0.8015 -0.3421
55818SOL    HW279434   5.460   8.733   6.093  0.2151  1.4149 -2.2755
55819SOL     OW79435   4.511  14.029  10.468  0.1025 -0.3152  0.3420
55819SOL    HW179436   4.474  13.980  10.542  1.4917 -0.7238  0.7868
55819SOL    HW279437   4.469  14.115  10.473 -0.1637 -0.4954  1.3308
55820SOL     OW79438   0.413  13.873  13.547  0.1021 -0.7573 -0.0904
55820SOL    HW179439   0.507  13.885  13.553 -0.2130  2.0269  0.9268
55820SOL    HW279440   0.389  13.830  13.629  0.3874 -0.5293  0.1148
55821SOL     OW79441   0.378  10.050   0.464  0.4759  0.2782 -0.1622
55821SOL    HW179442   0.390   9.984   0.531 -3.2526  0.0959  0.5402
55821SOL    HW279443   0.387  10.133   0.510  0.9450  0.1971 -0.1088
55822SOL     OW79444   7.189  11.320   3.371  0.4759  0.6052  0.4329
55822SOL    HW179445   7.121  11.253   3.382  0.4701 -0.0051 -2.3561
55822SOL    HW279446   7.211  11.348   3.459 -0.5182 -2.0910  1.6367
55823SOL     OW79447   2.217  13.034   9.771  0.0576  0.0707 -0.2826
55823SOL    HW179448   2.293  12.999   9.817  0.7492  0.0834 -1.3801
55823SOL    HW279449   2.186  12.962   9.717 -0.9306 -0.0372  0.4043
55824SOL     OW79450   3.967   8.934  12.005 -0.0975  0.1883  0.1888
55824SOL    HW179451   3.983   9.028  12.018  0.8440  0.1521 -0.6058
55824SOL    HW279452   4.003   8.893  12.084  0.4995  0.4089  0.0358
55825SOL     OW79453   7.451   0.328   8.771 -0.1628  0.1662 -0.1768
55825SOL    HW179454   7.435   0.366   8.685  0.5939  0.8907 -0.0043
55825SOL    HW279455   7.382   0.363   8.826  0.1868  0.8493 -0.1586
55826SOL     OW79456  13.111   9.730  10.262  0.0659  0.2482 -0.2028
55826SOL    HW179457  13.040   9.722  10.326  2.0623  0.9492  2.2634
55826SOL    HW279458  13.120   9.642  10.226  0.3815 -0.8354  2.2925
55827SOL     OW79459   3.346   5.332   1.075 -0.1975 -0.6151 -0.6349
55827SOL    HW179460   3.389   5.360   1.156  0.7305 -1.3690 -0.8483
55827SOL    HW279461   3.366   5.401   1.012  1.3871 -1.3093 -0.9400
55828SOL     OW79462   9.038   0.256   3.674  0.6873  0.0485  0.2818
55828SOL    HW179463   8.975   0.300   3.731  0.3620 -0.4138  0.2794
55828SOL    HW279464   9.104   0.323   3.656 -0.2828  0.8430 -0.4821
55829SOL     OW79465   0.067  13.438  11.735 -0.1097 -0.2686 -0.4884
55829SOL    HW179466   0.133  13.457  11.802 -1.8668  0.0081  1.2586
55829SOL    HW279467   0.109  13.463  11.652  1.4702  1.2314  0.6834
55830SOL     OW79468  11.450   2.786  11.337 -0.5975 -0.1906 -0.1815
55830SOL    HW179469  11.387   2.757  11.270  1.6628 -0.8887 -2.1717
55830SOL    HW279470  11.453   2.713  11.399 -0.7899 -0.7247 -0.7854
55831SOL     OW79471   8.715   8.680  12.636  0.2609  0.5092 -0.1296
55831SOL    HW179472   8.790   8.644  12.683  0.2505 -1.8622 -1.7543
55831SOL    HW279473   8.640   8.656  12.689  0.5174  2.3479  1.1811
55832SOL     OW79474   8.944   0.966  11.345 -0.1403  0.1488 -0.0416
55832SOL    HW179475   8.944   0.939  11.437  0.9570 -1.4651 -0.4843
55832SOL    HW279476   8.855   0.997  11.330 -0.2515  0.7705  1.6368
55833SOL     OW79477   6.088   4.673   1.107  0.1459 -0.0022 -0.4925
55833SOL    HW179478   6.003   4.695   1.145  0.6477 -0.5122  1.0304
55833SOL    HW279479   6.129   4.617   1.173  2.3497  1.5963 -0.3957
55834SOL     OW79480   6.453   5.323   3.748  0.4030 -0.9284  0.5380
55834SOL    HW179481   6.457   5.228   3.757 -2.4789 -1.3674 -1.3987
55834SOL    HW279482   6.370   5.347   3.790  0.1208  0.4461 -0.7199
55835SOL     OW79483   2.987   0.346   1.959 -0.0327  0.2364  0.2924
55835SOL    HW179484   3.004   0.371   1.868  3.6402 -0.6457  0.5845
55835SOL    HW279485   2.963   0.253   1.955 -0.5386  0.3654  0.2121
55836SOL     OW79486   4.725   9.410   2.597 -0.5146 -0.1830  0.1129
55836SOL    HW179487   4.636   9.436   2.573 -0.3753  0.4542  0.2911
55836SOL    HW279488   4.723   9.314   2.591 -0.7045 -0.1130 -1.7093
55837SOL     OW79489   9.127   7.950  14.045  0.1766 -0.1420 -0.1476
55837SOL    HW179490   9.045   7.900  14.048 -0.2932  0.6648  1.1722
55837SOL    HW279491   9.100   8.037  14.015  0.6566 -0.0511 -0.3183
55838SOL     OW79492   4.855   8.284   0.270  0.3111 -0.4615  0.4196
55838SOL    HW179493   4.894   8.198   0.287  0.3383 -0.4079  0.6259
55838SOL    HW279494   4.788   8.294   0.337  1.3281  0.3308  1.3583
55839SOL     OW79495   9.416   6.086   8.681  0.4806  0.0345 -0.8557
55839SOL    HW179496   9.485   6.152   8.669  0.5629 -0.1489 -1.4152
55839SOL    HW279497   9.462   6.003   8.673  0.6987 -0.1490  1.5583
55840SOL     OW79498  13.581   6.740   2.341  0.2309  0.1358  0.1647
55840SOL    HW179499  13.661   6.742   2.395  0.8299  1.9599 -0.7080
55840SOL    HW279500  13.545   6.828   2.350 -1.1696 -0.3821 -0.2398
55841SOL     OW79501   9.902   8.566   1.378  0.2527 -0.1110  0.0115
55841SOL    HW179502   9.915   8.523   1.294  1.3227 -0.9364  0.5808
55841SOL    HW279503   9.876   8.496   1.438 -2.5354  0.7472 -0.0114
55842SOL     OW79504  12.823   0.409   2.226 -0.2945  0.5048 -0.3565
55842SOL    HW179505  12.833   0.315   2.208 -0.0048  0.4707 -0.0461
55842SOL    HW279506  12.905   0.448   2.194 -0.8140  0.7914 -1.3606
55843SOL     OW79507  13.469   3.321   8.631 -0.2082 -0.4333  0.3485
55843SOL    HW179508  13.437   3.309   8.720 -0.6596 -0.0232  0.2460
55843SOL    HW279509  13.427   3.402   8.601  1.9716  0.9287  0.7094
55844SOL     OW79510   5.140  13.632  12.888 -0.0009  0.1475 -0.2809
55844SOL    HW179511   5.057  13.676  12.906  0.0775  0.0269  0.4036
55844SOL    HW279512   5.207  13.688  12.927  0.2101  0.0475 -0.4895
55845SOL     OW79513   5.046   8.647   2.113  0.2450 -0.2788  0.2486
55845SOL    HW179514   4.997   8.662   2.032  1.9441 -0.3402 -0.8399
55845SOL    HW279515   5.018   8.718   2.171 -1.2064 -0.3981 -0.2485
55846SOL     OW79516   9.141   4.539  11.612  0.1665 -0.0074 -0.4589
55846SOL    HW179517   9.089   4.526  11.691 -1.1600 -0.0444 -1.3138
55846SOL    HW279518   9.159   4.633  11.610  0.6331 -0.0749  0.1283
55847SOL     OW79519   0.669  11.069   7.060  0.0663  0.6321  0.5792
55847SOL    HW179520   0.626  11.145   7.021 -0.9468  0.2386  0.9017
55847SOL    HW279521   0.733  11.041   6.995 -0.7547  0.7240 -0.2870
55848SOL     OW79522  13.150  12.891   5.090  0.0389 -0.2901  0.1447
55848SOL    HW179523  13.071  12.866   5.042 -0.2967  0.3742  0.3411
55848SOL    HW279524  13.145  12.987   5.097  1.4080 -0.1246 -0.7920
55849SOL     OW79525   1.655   0.707   5.803  0.0565  0.2249  0.0056
55849SOL    HW179526   1.735   0.731   5.755 -0.0130 -0.5340 -0.5008
55849SOL    HW279527   1.631   0.787   5.849  0.8419  0.6059 -0.2161
55850SOL     OW79528  12.599  10.173  11.832  0.3000 -0.1407  0.1077
55850SOL    HW179529  12.590  10.143  11.742  1.0759  1.5323 -0.5629
55850SOL    HW279530  12.544  10.251  11.838  1.1277  0.4262  0.7386
55851SOL     OW79531   9.471  10.348  10.101  0.0992 -0.1833  0.4139
55851SOL    HW179532   9.482  10.256  10.124  1.4508 -0.6069 -1.6483
55851SOL    HW279533   9.559  10.385  10.107 -0.1087  0.5090 -0.5703
55852SOL     OW79534  12.094   8.014   0.169  0.1903  0.0657 -0.5566
55852SOL    HW179535  12.134   8.067   0.100  1.4094 -0.0191  0.0551
55852SOL    HW279536  12.032   8.073   0.212  0.1363  0.4074 -1.0919
55853SOL     OW79537   4.593  11.495   8.171 -0.2458 -0.6211 -0.6755
55853SOL    HW179538   4.582  11.517   8.264 -3.8270  2.3685 -1.5815
55853SOL    HW279539   4.518  11.439   8.151  1.9092 -3.4823 -1.3405
55854SOL     OW79540   8.801  13.510   4.133 -0.1470  0.1523  0.0068
55854SOL    HW179541   8.721  13.479   4.176  0.6159 -0.6829  0.8674
55854SOL    HW279542   8.872  13.478   4.189  0.8147  0.3746 -1.0615
55855SOL     OW79543   6.715   3.469  13.572 -0.7215 -0.0265  0.0647
55855SOL    HW179544   6.742   3.387  13.531 -1.6987  0.7834 -2.4178
55855SOL    HW279545   6.789   3.528  13.559 -1.1816  0.3470 -0.9755
55856SOL     OW79546   8.241   1.113   0.404  0.1545 -0.2420  0.2624
55856SOL    HW179547   8.324   1.095   0.447  2.3527  0.0006 -3.4263
55856SOL    HW279548   8.210   1.028   0.374  0.0183 -0.1334  0.0861
55857SOL     OW79549   0.342   2.224   5.038  0.0632 -0.5327 -0.5122
55857SOL    HW179550   0.386   2.202   4.956  0.2477 -0.9116 -0.3109
55857SOL    HW279551   0.371   2.313   5.057 -1.4075  0.2797 -1.8134
55858SOL     OW79552   6.168   1.050   6.294  0.0064 -0.3119 -0.2276
55858SOL    HW179553   6.198   1.133   6.332  0.1139  0.4594 -1.9277
55858SOL    HW279554   6.098   1.021   6.353 -0.7070  1.4799 -0.1257
55859SOL     OW79555   0.063   2.657  10.728  0.7069 -0.2501  0.0286
55859SOL    HW179556   0.099   2.595  10.665  3.2335  0.4884  0.6280
55859SOL    HW279557   0.041   2.734  10.675  2.7512  0.3403 -0.0574
55860SOL     OW79558   2.903   8.385   1.874  0.2336 -0.1407 -0.1584
55860SOL    HW179559   2.977   8.414   1.821  0.1969 -0.0833 -0.1773
55860SOL    HW279560   2.872   8.464   1.918  0.9770 -0.3834  0.8300
55861SOL     OW79561   2.194   9.136   9.641 -0.2836 -0.0070  0.0356
55861SOL    HW179562   2.234   9.195   9.705  1.6202 -1.1057 -0.0535
55861SOL    HW279563   2.230   9.050   9.662  0.3183 -0.4371 -2.4117
55862SOL     OW79564   9.801   1.812  13.722  0.3002 -0.1937 -0.0458
55862SOL    HW179565   9.851   1.749  13.671 -2.0990 -3.0043  0.7702
55862SOL    HW279566   9.848   1.820  13.805 -0.2560 -2.4294  0.5389
55863SOL     OW79567  13.801  13.278  13.347 -0.0317  0.1163  0.3955
55863SOL    HW179568  13.729  13.226  13.382 -0.5274  1.2583  1.1256
55863SOL    HW279569  13.762  13.363  13.327  0.8572  0.3639 -0.3670
55864SOL     OW79570   0.822   5.434  13.903  0.0520 -0.1921  0.6294
55864SOL    HW179571   0.917   5.422  13.913 -0.1241 -0.6852  1.9116
55864SOL    HW279572   0.799   5.499  13.970 -0.9078 -2.1206  2.2756
55865SOL     OW79573  13.169   1.956  13.011  0.3764 -0.2310 -0.0712
55865SOL    HW179574  13.147   1.881  12.956  0.0592 -0.3687  0.2378
55865SOL    HW279575  13.244   1.996  12.968  0.0703 -0.2805 -0.6567
55866SOL     OW79576   3.598   9.897  11.703 -0.3737 -0.1591  0.6976
55866SOL    HW179577   3.668   9.940  11.752  0.6162  1.3845 -1.8842
55866SOL    HW279578   3.643   9.836  11.645 -1.5554 -2.3099  1.8982
55867SOL     OW79579   8.443   4.602   3.569  0.1940  0.1291  0.1096
55867SOL    HW179580   8.412   4.689   3.596 -0.8891 -0.2036 -0.0124
55867SOL    HW279581   8.507   4.578   3.636  0.6558  1.0993  0.0379
55868SOL     OW79582   8.553   2.706   2.919  0.3705  0.2858  0.8288
55868SOL    HW179583   8.571   2.637   2.982 -2.5665 -0.9458  0.4602
55868SOL    HW279584   8.504   2.772   2.968 -0.5772  0.0521  0.2260
55869SOL     OW79585   2.971   8.540   5.317 -0.3902 -0.0460 -0.1149
55869SOL    HW179586   2.974   8.463   5.373  1.1623  0.8964  1.1857
55869SOL    HW279587   2.958   8.504   5.229  0.3930 -1.8049  0.4308
55870SOL     OW79588   4.663  13.173  13.964 -0.2504  0.2728  0.3649
55870SOL    HW179589   4.630  13.250  14.010  0.3286  0.4565  0.4780
55870SOL    HW279590   4.738  13.204  13.914 -2.3667  0.6290 -2.8152
55871SOL     OW79591  10.849   9.809   4.009  0.4020 -0.3077  0.4053
55871SOL    HW179592  10.778   9.838   3.952  1.4787  1.6580 -0.0441
55871SOL    HW279593  10.823   9.835   4.097  0.4879  0.2939  0.2577
55872SOL     OW79594   4.029   8.035   6.353  0.1557 -0.4202  0.1507
55872SOL    HW179595   4.015   8.043   6.259 -0.8180  0.3582  0.3475
55872SOL    HW279596   3.964   7.970   6.381  0.4462 -0.6515  0.2972
55873SOL     OW79597   4.286   6.336  10.539 -0.6725  0.2128 -0.3472
55873SOL    HW179598   4.354   6.273  10.565  0.0347  0.8379 -0.6483
55873SOL    HW279599   4.226   6.338  10.613 -1.2912 -1.5968 -0.7459
55874SOL     OW79600  13.306   2.279  10.720 -0.0636  0.4966 -0.2952
55874SOL    HW179601  13.343   2.367  10.709 -1.4328  1.1103 -0.1710
55874SOL    HW279602  13.250   2.267  10.643  0.9064 -0.7102 -0.8502
55875SOL     OW79603   3.763   9.091   0.143  0.3626 -0.5845  0.0573
55875SOL    HW179604   3.722   9.010   0.173  2.3205 -1.6879 -0.0840
55875SOL    HW279605   3.777   9.142   0.223 -0.6475 -0.4512  0.1726
55876SOL     OW79606   9.135   3.564   4.193 -0.4299  0.0652 -0.0092
55876SOL    HW179607   9.159   3.632   4.256 -0.6231 -0.4160  0.5852
55876SOL    HW279608   9.151   3.605   4.107  1.4034  0.1622  0.3376
55877SOL     OW79609   2.821   7.292  12.562 -0.0252  0.5087  0.1071
55877SOL    HW179610   2.743   7.293  12.507 -1.8912  0.3369  2.5760
55877SOL    HW279611   2.823   7.379  12.602  0.2678  0.0789  1.0528
55878SOL     OW79612  11.983   1.133   1.010  0.2127  0.0513 -0.0287
55878SOL    HW179613  11.948   1.060   0.959 -1.3529  0.9568 -0.3082
55878SOL    HW279614  12.041   1.178   0.948 -0.4940  0.2680 -0.5523
55879SOL     OW79615   3.247  11.115   9.683  0.1976 -0.3439 -0.5680
55879SOL    HW179616   3.210  11.203   9.683  0.1006 -0.3761 -1.3888
55879SOL    HW279617   3.265  11.097   9.591  1.0180 -0.8510 -0.3120
55880SOL     OW79618   5.154   1.977   9.069 -0.1408 -0.6346  0.2051
55880SOL    HW179619   5.111   2.052   9.111  0.7439 -0.9436  1.7175
55880SOL    HW279620   5.183   2.011   8.984 -0.5272  0.4808  0.4991
55881SOL     OW79621  12.248  13.469  13.468  0.1582 -0.0407 -0.1413
55881SOL    HW179622  12.338  13.475  13.500  0.2963 -1.0894 -0.2858
55881SOL    HW279623  12.224  13.377  13.484 -1.3559  0.5398  1.1538
55882SOL     OW79624   9.502   1.254  10.368  0.2989 -0.2114  0.2874
55882SOL    HW179625   9.511   1.183  10.304 -1.3003 -1.3144  1.2085
55882SOL    HW279626   9.419   1.295  10.346 -0.1799 -0.4832  1.4979
55883SOL     OW79627   9.883   1.200  13.483 -0.2285  0.0685 -0.0730
55883SOL    HW179628   9.855   1.157  13.402  1.6615 -1.1685 -0.1173
55883SOL    HW279629   9.853   1.142  13.553  0.0557  0.0038 -0.0037
55884SOL     OW79630   5.482   9.866   2.762  0.5704 -0.3477  0.1279
55884SOL    HW179631   5.391   9.863   2.734  0.0241  0.1838  1.7339
55884SOL    HW279632   5.532   9.847   2.683 -0.9030  0.0592 -0.9437
55885SOL     OW79633  12.189   0.240   6.372  0.4639 -0.3179  0.4485
55885SOL    HW179634  12.198   0.316   6.315 -0.6965  0.2929  1.0453
55885SOL    HW279635  12.279   0.215   6.394  0.9724 -0.8038 -1.9200
55886SOL     OW79636   2.265   4.448   2.643  0.1201 -0.0506 -0.1477
55886SOL    HW179637   2.177   4.481   2.626 -0.6360 -2.1594 -0.6752
55886SOL    HW279638   2.271   4.444   2.739 -0.7692 -0.8693 -0.1138
55887SOL     OW79639   9.958   1.765   1.618 -0.4023 -0.3846  0.0486
55887SOL    HW179640   9.938   1.793   1.529  1.4384  1.4839  0.1302
55887SOL    HW279641   9.877   1.780   1.667 -0.7481  0.8680 -0.8577
55888SOL     OW79642   3.607   3.446   5.920  0.5198  0.3542 -0.2982
55888SOL    HW179643   3.608   3.416   6.011 -1.3139  2.2569  0.4472
55888SOL    HW279644   3.558   3.379   5.873 -0.0723  0.2198  0.4873
55889SOL     OW79645   0.027   6.883   4.401 -0.1517  0.2408  0.6136
55889SOL    HW179646   0.114   6.917   4.379 -0.1230  0.6611  1.3451
55889SOL    HW279647   0.042   6.791   4.421 -0.4029 -0.6070 -2.5325
55890SOL     OW79648   5.841   4.325   3.597 -0.3696  0.6760  0.1557
55890SOL    HW179649   5.861   4.293   3.509  0.6863  0.4262  0.4728
55890SOL    HW279650   5.919   4.375   3.623 -0.1560 -0.2428  1.4027
55891SOL     OW79651   7.184   6.827  12.888 -0.3720 -0.0351  0.2454
55891SOL    HW179652   7.251   6.847  12.823 -0.8571  1.1676  0.0958
55891SOL    HW279653   7.123   6.901  12.884 -0.6232 -0.1217  1.7878
55892SOL     OW79654   1.555   4.979   0.505 -0.1923 -0.3185  0.4365
55892SOL    HW179655   1.503   4.971   0.425  0.2102  1.0522  0.0034
55892SOL    HW279656   1.543   5.070   0.532  2.6788  0.3526 -0.2073
55893SOL     OW79657   4.130  10.494   1.033  0.1787  0.1300  0.0684
55893SOL    HW179658   4.052  10.492   0.977 -0.8427 -0.9347  1.4647
55893SOL    HW279659   4.153  10.586   1.039 -1.5658  0.5694  0.4010
55894SOL     OW79660  12.909  10.047  10.473 -0.2123  0.3413 -0.3131
55894SOL    HW179661  12.847  10.006  10.413  0.5468 -0.0393 -0.8585
55894SOL    HW279662  12.991  10.000  10.458 -0.2750 -0.6181  1.8903
55895SOL     OW79663   2.000   1.069  13.515  0.5373  0.8266 -0.1745
55895SOL    HW179664   2.080   1.084  13.466  1.2051 -0.1668  0.5722
55895SOL    HW279665   1.946   1.146  13.497  1.5280  1.3683 -0.9236
55896SOL     OW79666   1.004   3.225  10.499 -0.3425 -0.2288  0.0184
55896SOL    HW179667   1.040   3.310  10.525 -0.7976 -0.4162  1.3322
55896SOL    HW279668   0.950   3.244  10.422  0.8934  0.3772 -0.7320
55897SOL     OW79669   2.861   1.967  12.778  0.2220  0.2050 -0.2955
55897SOL    HW179670   2.845   2.002  12.690  0.7168  0.8033 -0.1526
55897SOL    HW279671   2.774   1.956  12.816 -0.0435 -0.9170 -1.1856
55898SOL     OW79672   8.158  10.022   5.276  0.1675 -0.1661 -0.1570
55898SOL    HW179673   8.202  10.000   5.358 -1.9417  0.0694  1.1224
55898SOL    HW279674   8.065  10.003   5.292 -0.3171 -0.2201 -2.5414
55899SOL     OW79675   5.715   5.695   0.639 -0.3710 -0.2289 -0.1042
55899SOL    HW179676   5.748   5.782   0.662 -2.3739  0.6080 -0.2696
55899SOL    HW279677   5.661   5.669   0.713 -0.6601 -0.8607 -0.5294
55900SOL     OW79678   9.217   1.773   3.770  0.3970  0.6728  0.1093
55900SOL    HW179679   9.287   1.782   3.835  1.4420  1.0416 -1.0147
55900SOL    HW279680   9.223   1.683   3.739  1.0753  0.9845 -0.7157
55901SOL     OW79681   1.683   7.829  10.577 -0.6849 -0.1729  0.6949
55901SOL    HW179682   1.708   7.879  10.500 -0.6036 -0.9266  0.2233
55901SOL    HW279683   1.587   7.839  10.581 -0.8596 -1.2080 -0.2881
55902SOL     OW79684   1.338  11.901   9.918  0.5809  0.0937 -0.4259
55902SOL    HW179685   1.248  11.874   9.934  0.6824 -0.9495 -1.4184
55902SOL    HW279686   1.389  11.821   9.931  1.3787  0.6937  0.2100
55903SOL     OW79687  10.564   0.373   1.819  0.6259 -0.5984  0.1112
55903SOL    HW179688  10.580   0.313   1.892  1.4009 -1.3836 -0.6792
55903SOL    HW279689  10.623   0.343   1.750 -0.6665 -0.3998 -1.1371
55904SOL     OW79690   1.377   2.356   6.276 -0.4549  0.4333  0.1410
55904SOL    HW179691   1.372   2.413   6.352 -0.8191 -1.9463  2.0228
55904SOL    HW279692   1.287   2.324   6.264 -0.5213  1.1492 -1.6713
55905SOL     OW79693  12.771   7.717   3.276  0.0767 -0.2288  0.0960
55905SOL    HW179694  12.763   7.745   3.367 -0.3110 -0.1334  0.0325
55905SOL    HW279695  12.819   7.634   3.281 -1.7240 -1.2943  0.5637
55906SOL     OW79696  12.653   3.972  12.786 -0.2354 -0.0514 -0.1669
55906SOL    HW179697  12.576   3.960  12.729  0.2958  0.0933 -0.9328
55906SOL    HW279698  12.616   3.995  12.871 -1.0654 -0.6978 -0.3411
55907SOL     OW79699   1.482   2.290  13.396  0.0886  0.2398  0.0986
55907SOL    HW179700   1.559   2.335  13.432  0.2644 -0.7537  1.0013
55907SOL    HW279701   1.431   2.360  13.355  0.5362  1.2064  1.1471
55908SOL     OW79702  11.885   4.953   6.096  0.5102  0.1120  0.4619
55908SOL    HW179703  11.969   4.969   6.052  0.0269  1.7277  0.0526
55908SOL    HW279704  11.910   4.930   6.186  1.4275  2.8867  1.0425
55909SOL     OW79705  13.910   4.291   9.514  0.3717 -0.7196 -0.1149
55909SOL    HW179706  13.844   4.312   9.447  1.9417 -0.8151 -1.7629
55909SOL    HW279707  13.935   4.376   9.550  1.0317 -0.4563 -1.1653
55910SOL     OW79708   4.071   7.534   0.188  0.0547  0.4369 -0.3244
55910SOL    HW179709   4.043   7.486   0.110  2.0198 -0.1862 -0.6833
55910SOL    HW279710   4.137   7.595   0.157  1.4720 -0.3855  0.9367
55911SOL     OW79711  11.361   0.972   4.104 -0.5909  0.1103  0.2018
55911SOL    HW179712  11.294   1.015   4.158 -1.7277  0.3211 -1.2962
55911SOL    HW279713  11.356   1.017   4.020 -1.3203 -2.4304 -1.2176
55912SOL     OW79714   5.624  12.900   2.488  0.2942 -1.0645 -0.4142
55912SOL    HW179715   5.617  12.847   2.408 -0.1175  0.9668 -1.7961
55912SOL    HW279716   5.557  12.864   2.546 -1.1231 -1.0596 -1.9570
55913SOL     OW79717   3.462  11.379   7.087  0.4261 -0.2176 -0.5588
55913SOL    HW179718   3.420  11.330   7.016  0.8451  0.5865 -1.3837
55913SOL    HW279719   3.537  11.325   7.111  0.7139 -0.1483 -1.2563
55914SOL     OW79720   4.404   3.738   5.444 -0.0418 -0.2145  0.1880
55914SOL    HW179721   4.370   3.763   5.358  1.0322  0.0052 -0.1850
55914SOL    HW279722   4.428   3.821   5.485 -1.6947 -0.1971  1.2298
55915SOL     OW79723   1.070   6.351   0.111 -0.2973  0.0155 -0.2026
55915SOL    HW179724   1.133   6.283   0.089 -0.2459  0.0730 -0.2331
55915SOL    HW279725   0.986   6.305   0.117 -0.0314 -0.3147  1.2413
55916SOL     OW79726   4.601  11.930  11.754 -0.2958 -0.2935  0.4479
55916SOL    HW179727   4.515  11.971  11.745 -0.5837 -1.1212 -0.8384
55916SOL    HW279728   4.663  11.997  11.723 -0.6189 -0.2508 -0.1184
55917SOL     OW79729  12.395  11.584  12.291 -0.6795 -0.2594  0.1080
55917SOL    HW179730  12.466  11.637  12.256 -1.3802  2.1641  2.0671
55917SOL    HW279731  12.373  11.523  12.220  2.1125  0.0896 -1.1865
55918SOL     OW79732  10.452   5.359  11.224 -0.7447 -0.4247 -0.9176
55918SOL    HW179733  10.490   5.350  11.136 -0.3651 -0.0865 -0.7903
55918SOL    HW279734  10.440   5.269  11.254  0.7440 -0.5511 -0.6295
55919SOL     OW79735   1.149   9.119   6.593  0.0375 -0.0277 -0.4899
55919SOL    HW179736   1.178   9.155   6.677 -0.8987  2.6196 -1.1924
55919SOL    HW279737   1.227   9.078   6.556  0.3922 -1.5034  1.7607
55920SOL     OW79738   6.997   3.294  11.451  0.3029  0.2894  0.2540
55920SOL    HW179739   6.919   3.271  11.401 -0.4486  0.0925  1.4804
55920SOL    HW279740   6.977   3.380  11.488  0.5335  0.0937  0.8396
55921SOL     OW79741   0.893  10.752  13.192 -0.4551 -0.6010 -0.5071
55921SOL    HW179742   0.837  10.792  13.126  0.8450  0.4026 -1.0517
55921SOL    HW279743   0.970  10.722  13.143  0.4901  0.0594  0.5164
55922SOL     OW79744   1.383   7.092   6.972 -0.3233 -0.4405 -0.7307
55922SOL    HW179745   1.319   7.069   7.040  0.4406  0.6890  0.4237
55922SOL    HW279746   1.435   7.162   7.011  2.1042 -1.7955 -1.3378
55923SOL     OW79747  13.645   7.458  10.177 -0.2642 -0.2666 -0.6738
55923SOL    HW179748  13.613   7.382  10.127 -2.7912  0.4777 -0.3444
55923SOL    HW279749  13.690   7.512  10.112 -0.1787 -1.1126 -1.3368
55924SOL     OW79750  10.601   0.357   7.037 -0.2470 -0.0646  0.7087
55924SOL    HW179751  10.634   0.362   7.127 -0.6458 -1.3358  0.9420
55924SOL    HW279752  10.516   0.314   7.045 -0.9019  1.0250 -0.1446
55925SOL     OW79753  11.804   0.256  13.662 -0.0300  0.3501 -0.2337
55925SOL    HW179754  11.732   0.207  13.622 -0.5544  0.9095  0.0016
55925SOL    HW279755  11.826   0.323  13.596  0.8946 -0.3888 -0.6888
55926SOL     OW79756   5.799  12.106   8.145 -0.2885 -0.5429  0.2884
55926SOL    HW179757   5.771  12.160   8.071  1.7872 -0.3829 -0.4437
55926SOL    HW279758   5.826  12.169   8.212  1.5612 -0.5994 -0.3408
55927SOL     OW79759   6.922   2.198   1.754 -0.1177  0.1441  0.3792
55927SOL    HW179760   6.877   2.158   1.680 -0.2323  1.2058 -0.1408
55927SOL    HW279761   6.855   2.205   1.822 -0.2679  0.0592  0.2406
55928SOL     OW79762  12.685   0.440   8.929 -0.4452  0.2470  0.2997
55928SOL    HW179763  12.716   0.397   9.008 -0.4117 -2.0618 -0.9069
55928SOL    HW279764  12.621   0.380   8.892 -0.5781  1.3378 -1.3695
55929SOL     OW79765  13.059   8.186  13.798 -0.5698 -0.2583 -0.0766
55929SOL    HW179766  13.084   8.266  13.752 -0.3656  0.2173  0.8570
55929SOL    HW279767  13.091   8.116  13.741 -0.1073  0.3233 -0.5506
55930SOL     OW79768  10.737   5.025  12.777 -0.3763  0.1195 -0.4324
55930SOL    HW179769  10.728   5.120  12.781  0.9486  0.2458 -0.1244
55930SOL    HW279770  10.647   4.993  12.779 -0.8523  1.3619 -0.6429
55931SOL     OW79771  11.514  13.494   8.825 -0.0184  0.0709 -0.1223
55931SOL    HW179772  11.431  13.543   8.825  0.0227  0.1576 -0.9231
55931SOL    HW279773  11.568  13.538   8.891 -0.5481  0.1267  0.2795
55932SOL     OW79774   3.423   2.502  13.976  0.2705  0.4463 -0.0406
55932SOL    HW179775   3.361   2.573  13.956  0.5198  0.6766 -0.0122
55932SOL    HW279776   3.409   2.437  13.908 -0.1297  0.4137  0.0707
55933SOL     OW79777   8.707  10.524   9.703 -0.4765  0.0224  0.2365
55933SOL    HW179778   8.615  10.505   9.687 -0.5179  0.3096  0.1368
55933SOL    HW279779   8.712  10.544   9.797 -0.4028 -0.6487  0.3768
55934SOL     OW79780   0.640   2.002   6.812 -0.6793 -0.1069  0.0948
55934SOL    HW179781   0.615   1.946   6.885 -0.7334  0.4583  0.5162
55934SOL    HW279782   0.579   1.979   6.742  0.0019 -1.3537 -0.1186
55935SOL     OW79783  10.808   4.947   8.504 -0.3207  0.2242  0.3493
55935SOL    HW179784  10.713   4.959   8.510 -0.3684  0.1881 -0.2376
55935SOL    HW279785  10.840   4.965   8.592 -0.8089  0.8426  0.4139
55936SOL     OW79786   8.313   4.351   1.586  0.0360 -0.2539  0.0672
55936SOL    HW179787   8.308   4.318   1.496  1.6685 -0.4306  0.0024
55936SOL    HW279788   8.262   4.289   1.638  1.6461 -1.9776 -0.3016
55937SOL     OW79789   3.160  11.812   9.276  0.6416  0.1397  0.0071
55937SOL    HW179790   3.131  11.873   9.344  2.6609  0.2764  0.8172
55937SOL    HW279791   3.139  11.856   9.194 -0.3121  0.7283  0.5470
55938SOL     OW79792  13.808   3.183   5.324 -0.2165 -0.2738 -0.2905
55938SOL    HW179793  13.803   3.180   5.420  1.9326 -2.6641 -0.1507
55938SOL    HW279794  13.836   3.273   5.305  0.2760 -0.0325  1.3884
55939SOL     OW79795   3.764   5.674   2.536 -1.3509 -0.1078 -0.6897
55939SOL    HW179796   3.859   5.667   2.547 -1.0783  1.0859 -1.9821
55939SOL    HW279797   3.728   5.646   2.620  0.2885  3.1853  1.3003
55940SOL     OW79798   8.070   9.740  11.428 -0.1565 -0.2572 -0.4566
55940SOL    HW179799   8.089   9.800  11.500  1.9998  0.2650 -1.3776
55940SOL    HW279800   8.021   9.668  11.468  0.8269  0.1070  1.4908
55941SOL     OW79801   0.112  10.634  13.402  0.4871  0.4642 -0.2990
55941SOL    HW179802   0.120  10.657  13.494 -2.0016 -0.2733  0.1639
55941SOL    HW279803   0.131  10.540  13.398  1.0294  0.5847 -0.6105
55942SOL     OW79804   1.263  12.106   0.804 -0.0499 -0.0506 -0.1703
55942SOL    HW179805   1.286  12.165   0.877 -0.5857 -0.1639  0.0935
55942SOL    HW279806   1.176  12.074   0.826 -0.1740 -0.1657 -0.8169
55943SOL     OW79807   0.512  10.443   8.515  0.2241  0.4112  0.0781
55943SOL    HW179808   0.516  10.437   8.420 -1.1144  1.3824 -0.0682
55943SOL    HW279809   0.422  10.469   8.534  0.4090  0.0512  1.6290
55944SOL     OW79810   2.193  12.238  11.148  0.1647  0.2409 -0.7360
55944SOL    HW179811   2.227  12.249  11.059  0.5812  1.1329 -0.4758
55944SOL    HW279812   2.153  12.151  11.147  0.6435  0.0130 -1.6404
55945SOL     OW79813  13.481  11.903   6.845 -0.3363 -0.5683  0.4692
55945SOL    HW179814  13.488  11.823   6.792 -0.1570  0.2584 -0.8092
55945SOL    HW279815  13.570  11.934   6.853 -0.6447  1.1537 -1.7574
55946SOL     OW79816   7.269   5.555  12.757  0.2613 -0.6681  0.4835
55946SOL    HW179817   7.253   5.484  12.820 -0.9145 -0.5127  0.3771
55946SOL    HW279818   7.307   5.511  12.681  0.7068 -1.0069  0.8976
55947SOL     OW79819   4.832  12.642   7.257  0.3782  0.1686  0.3548
55947SOL    HW179820   4.922  12.673   7.254  0.0806  1.0423 -2.1218
55947SOL    HW279821   4.795  12.667   7.172 -2.4442  0.5505  1.5766
55948SOL     OW79822   0.090   1.415   4.543  0.0842  0.2452 -0.2007
55948SOL    HW179823   0.147   1.360   4.491 -0.5167  1.4942 -2.2944
55948SOL    HW279824   0.018   1.357   4.569 -0.5665 -0.0195 -2.3950
55949SOL     OW79825  10.093   2.489   3.733  0.1563 -0.0386 -0.2826
55949SOL    HW179826  10.121   2.568   3.686  1.1964 -0.2763 -0.0844
55949SOL    HW279827  10.027   2.521   3.795  0.3690  0.6284 -0.3862
55950SOL     OW79828   9.033   8.057  11.778 -0.4050  0.0478 -0.1351
55950SOL    HW179829   9.036   8.132  11.719 -0.2220  1.3747  1.5107
55950SOL    HW279830   9.100   8.074  11.843 -1.2851 -0.8827  1.0617
55951SOL     OW79831  12.778   0.946   2.998 -0.2376 -0.6446  0.4591
55951SOL    HW179832  12.814   0.911   2.917 -1.8810 -1.7111  0.1345
55951SOL    HW279833  12.756   0.868   3.050 -0.5592 -0.0041  1.3119
55952SOL     OW79834   5.932   2.804   4.929  0.1206  0.4284  0.2179
55952SOL    HW179835   5.966   2.874   4.874  0.7627 -0.6663 -0.8335
55952SOL    HW279836   5.838   2.802   4.911 -0.0248  1.4827  0.8187
55953SOL     OW79837  11.953  13.229  12.208  0.0248 -0.1035 -0.1867
55953SOL    HW179838  12.004  13.165  12.157  0.5731  0.6143 -0.5667
55953SOL    HW279839  11.876  13.181  12.237  0.9157 -1.2281  0.3972
55954SOL     OW79840   7.408   4.108   1.770  0.2296 -0.3143  0.4912
55954SOL    HW179841   7.336   4.066   1.816  1.1482 -0.4632  1.8680
55954SOL    HW279842   7.441   4.173   1.832  1.1657 -0.1257 -0.1747
55955SOL     OW79843   4.609  10.601   9.067 -0.3917 -0.0356  0.2086
55955SOL    HW179844   4.681  10.664   9.065  0.0416 -0.4911 -2.3850
55955SOL    HW279845   4.530  10.654   9.069 -0.0205  0.6150 -1.2810
55956SOL     OW79846   0.440   7.639  11.889 -0.2686  0.4084  0.1067
55956SOL    HW179847   0.535   7.635  11.898 -0.3732  1.0309  1.8577
55956SOL    HW279848   0.409   7.557  11.927 -0.4391  0.3036 -0.2592
55957SOL     OW79849   3.075  13.935  12.041  0.4444  0.0208  0.2754
55957SOL    HW179850   3.081  14.013  11.985  0.5348  0.4659  0.8975
55957SOL    HW279851   3.166  13.914  12.062  0.7119 -2.2480 -2.5595
55958SOL     OW79852  11.460   7.346   0.511  0.1358  0.7316 -0.6374
55958SOL    HW179853  11.395   7.352   0.442  1.0473  1.0291 -1.4881
55958SOL    HW279854  11.517   7.274   0.484  0.6985  1.0742 -0.3750
55959SOL     OW79855   7.450   4.455  10.099 -0.5698 -0.1005  0.1303
55959SOL    HW179856   7.466   4.364  10.072 -1.5483 -0.6421  1.2549
55959SOL    HW279857   7.391   4.490  10.032  0.9430  0.2055 -1.1044
55960SOL     OW79858   8.955   3.161   7.713  0.2145  0.4177 -0.2906
55960SOL    HW179859   9.043   3.179   7.680 -0.0246  2.3176 -0.0047
55960SOL    HW279860   8.959   3.187   7.805 -0.5163  0.0614 -0.1572
55961SOL     OW79861   2.507   6.527  11.485  0.7275 -0.3726 -0.1488
55961SOL    HW179862   2.432   6.516  11.544  2.0894  2.2105  2.3033
55961SOL    HW279863   2.541   6.439  11.473  0.2862 -1.1051  2.9630
55962SOL     OW79864  12.070   8.201   5.010  0.0255  0.0236  0.0649
55962SOL    HW179865  12.048   8.292   5.032  0.5811 -0.0073  0.7802
55962SOL    HW279866  12.101   8.204   4.920 -0.8492  0.3993 -0.2285
55963SOL     OW79867   3.589   7.385   9.064 -0.2055  0.3397  0.0117
55963SOL    HW179868   3.561   7.301   9.099  1.3543  0.4206  1.6154
55963SOL    HW279869   3.648   7.362   8.991 -1.1817  0.1156 -0.7325
55964SOL     OW79870   8.369   2.653  12.466  0.0173  0.0942 -0.4630
55964SOL    HW179871   8.338   2.599  12.393 -1.4638 -0.4882  0.5601
55964SOL    HW279872   8.316   2.625  12.541 -1.7644  3.7906 -0.1162
55965SOL     OW79873   8.994  12.402   0.666 -0.5487  0.0582  0.8305
55965SOL    HW179874   8.979  12.491   0.697  2.3501  0.5780  0.9420
55965SOL    HW279875   9.020  12.353   0.744 -0.3497 -0.4440  0.4573
55966SOL     OW79876   1.776   6.989   6.170 -1.0861 -0.3611 -0.3440
55966SOL    HW179877   1.707   6.989   6.104  0.6530 -0.4573 -2.2379
55966SOL    HW279878   1.852   6.952   6.126  0.7844  1.6107  0.9996
55967SOL     OW79879  13.053  11.336  11.757 -0.5159  0.3409 -0.4813
55967SOL    HW179880  12.995  11.392  11.808  1.3541 -0.8655  3.3434
55967SOL    HW279881  13.116  11.396  11.718 -0.4209  1.1816  0.8976
55968SOL     OW79882   3.822   5.857   4.851 -0.2250  0.0123  0.1413
55968SOL    HW179883   3.831   5.766   4.880  1.0040  0.0545 -0.0710
55968SOL    HW279884   3.837   5.909   4.930  2.3637  0.1023 -0.3283
55969SOL     OW79885   4.488   1.344   9.828  0.0342 -0.2913 -0.8562
55969SOL    HW179886   4.424   1.414   9.819 -0.0794 -0.3410 -0.4442
55969SOL    HW279887   4.541   1.350   9.748 -1.1117 -0.9045 -1.6827
55970SOL     OW79888   7.303   6.724  11.108 -0.2847  0.0345  0.3580
55970SOL    HW179889   7.240   6.782  11.149  0.2406  0.4839  0.5428
55970SOL    HW279890   7.250   6.655  11.068 -0.8269 -0.1026  1.3071
55971SOL     OW79891   6.773  13.707   9.852 -0.5879  0.1899  0.4212
55971SOL    HW179892   6.792  13.764   9.926  0.6218  2.0040 -1.1705
55971SOL    HW279893   6.730  13.631   9.890  0.5360  0.7526  3.0353
55972SOL     OW79894   5.344  11.378   1.250 -0.2247 -0.5535  0.2557
55972SOL    HW179895   5.374  11.365   1.340  1.5736  0.0616 -0.2140
55972SOL    HW279896   5.313  11.468   1.247  2.6909  0.5523 -0.4245
55973SOL     OW79897  12.171   5.204   9.916  0.2279 -0.5155 -0.3122
55973SOL    HW179898  12.091   5.238   9.955  0.1436  0.0438 -0.9630
55973SOL    HW279899  12.235   5.275   9.926  0.2277 -0.3932 -1.0989
55974SOL     OW79900   4.358   7.938   2.119 -0.1806 -0.2588 -0.3759
55974SOL    HW179901   4.401   7.997   2.058 -0.4221  0.6520  0.3117
55974SOL    HW279902   4.378   7.974   2.206  1.3290 -2.3077  0.1860
55975SOL     OW79903  12.614   2.307   4.314 -0.4662 -0.2280  0.0329
55975SOL    HW179904  12.574   2.339   4.233  0.2256 -0.6827 -0.5089
55975SOL    HW279905  12.555   2.237   4.344 -0.2097 -0.7504 -0.6431
55976SOL     OW79906  12.801   8.812  13.302 -0.2078  0.7414 -0.4814
55976SOL    HW179907  12.809   8.860  13.220  0.0133  2.8185  0.6834
55976SOL    HW279908  12.763   8.875  13.363  0.2201 -0.5385  1.1758
55977SOL     OW79909   7.803   0.446  12.649  0.1560  0.6016  0.0716
55977SOL    HW179910   7.711   0.448  12.622 -0.2012 -0.6940  1.0934
55977SOL    HW279911   7.828   0.355  12.639  1.7793  1.1798 -1.5405
55978SOL     OW79912   1.695   3.566  11.524 -0.2933  0.3138  0.3107
55978SOL    HW179913   1.662   3.578  11.435 -0.8500 -2.2968  0.0812
55978SOL    HW279914   1.790   3.566  11.515 -0.3456 -1.2403 -0.5528
55979SOL     OW79915   1.068   4.681  11.518 -0.3910 -0.1149  0.3727
55979SOL    HW179916   1.017   4.662  11.596  0.3550 -3.2169  0.2537
55979SOL    HW279917   1.036   4.617  11.453  0.5102  0.9311 -1.1702
55980SOL     OW79918   6.114   0.192   4.008  1.0263  0.0175  0.0258
55980SOL    HW179919   6.143   0.101   4.000  1.4660  0.0756  0.8231
55980SOL    HW279920   6.067   0.195   4.091 -0.5141  0.1444 -0.8118
55981SOL     OW79921   8.866   5.467   6.714 -0.5931  0.2149 -0.4166
55981SOL    HW179922   8.936   5.438   6.656 -0.2369  1.7148 -0.7986
55981SOL    HW279923   8.816   5.388   6.734 -0.1718 -0.4929 -2.0226
55982SOL     OW79924  10.607   4.297   1.976 -0.2265  1.1035 -0.4382
55982SOL    HW179925  10.597   4.361   1.906  1.0536  3.0683  1.0527
55982SOL    HW279926  10.613   4.350   2.056  1.6669 -0.8097  0.8101
55983SOL     OW79927  11.589   6.931   0.350 -0.0613  0.4247 -0.4491
55983SOL    HW179928  11.644   6.997   0.308  3.4145 -1.1957  1.2007
55983SOL    HW279929  11.620   6.928   0.440 -2.4031 -1.1756  0.3821
55984SOL     OW79930   4.296   9.020   9.055  0.2593  0.0066  0.2915
55984SOL    HW179931   4.222   9.048   9.110  1.0988  0.1978  1.3506
55984SOL    HW279932   4.264   8.940   9.012 -1.4803  1.4718 -1.3156
55985SOL     OW79933   9.700  13.565  13.392 -0.0202  0.0925  0.2907
55985SOL    HW179934   9.722  13.619  13.468 -1.2357  1.6029 -0.3746
55985SOL    HW279935   9.673  13.627  13.325 -0.9236 -1.3143 -0.7190
55986SOL     OW79936   7.252   0.685   8.489  0.4563  0.1734  0.2161
55986SOL    HW179937   7.226   0.777   8.489  0.0073  0.1110  2.9430
55986SOL    HW279938   7.172   0.637   8.511  0.8123 -0.8665 -0.6333
55987SOL     OW79939   4.434  13.443  10.311  0.2836  0.5209  0.3434
55987SOL    HW179940   4.500  13.511  10.296  1.1392 -0.0118  1.5128
55987SOL    HW279941   4.358  13.491  10.345  0.8737  0.9205  1.1479
55988SOL     OW79942  11.364   1.191   2.618  0.2601 -0.3197  0.4778
55988SOL    HW179943  11.446   1.143   2.631 -1.0789 -2.6428  0.7993
55988SOL    HW279944  11.302   1.125   2.588 -1.8694  1.0820  1.5717
55989SOL     OW79945  13.199  13.672  13.306 -0.9262  0.0238 -0.1015
55989SOL    HW179946  13.189  13.767  13.307 -0.2631  0.1082 -0.8669
55989SOL    HW279947  13.197  13.648  13.213  1.1743 -0.4408 -0.0743
55990SOL     OW79948   9.487   8.401  13.358  0.7595 -0.1100  0.0992
55990SOL    HW179949   9.546   8.365  13.424 -0.7523 -0.7883  1.1278
55990SOL    HW279950   9.460   8.325  13.306 -0.2034 -0.0164  0.4491
55991SOL     OW79951  11.123  11.255  10.971 -0.0632  0.6033  0.4265
55991SOL    HW179952  11.135  11.342  11.009 -0.1904  1.1166 -0.6739
55991SOL    HW279953  11.212  11.220  10.962 -0.0697  0.1004  1.9807
55992SOL     OW79954   1.874   6.368   1.929  0.2411  0.3222  0.4879
55992SOL    HW179955   1.950   6.389   1.875  0.9599  0.9755  1.7113
55992SOL    HW279956   1.838   6.454   1.954  1.7288  0.1701  3.4988
55993SOL     OW79957   8.101  10.564   1.363 -0.3727 -0.3711 -0.2232
55993SOL    HW179958   8.144  10.546   1.446  0.7826 -1.8086 -1.0822
55993SOL    HW279959   8.155  10.519   1.298 -1.8273 -0.1656 -1.6325
55994SOL     OW79960   2.332   6.841   0.098  0.8993  0.8333  0.1707
55994SOL    HW179961   2.376   6.839   0.182  1.7023  3.1259 -0.1303
55994SOL    HW279962   2.402   6.841   0.033  0.2919 -1.8309 -0.6108
55995SOL     OW79963   7.730   0.227   6.005 -0.6156 -0.0237  0.0302
55995SOL    HW179964   7.814   0.197   5.968  0.3357  1.0104  1.2675
55995SOL    HW279965   7.719   0.315   5.969 -0.0130  0.7313  1.5865
55996SOL     OW79966   0.515   4.058  13.548  0.2391  0.3347  0.1814
55996SOL    HW179967   0.430   4.018  13.567  0.0052 -0.0046 -1.4287
55996SOL    HW279968   0.534   4.112  13.625 -0.8703 -0.5009  1.0739
55997SOL     OW79969   6.484   1.389   8.274 -0.1588  0.0131  1.0852
55997SOL    HW179970   6.500   1.346   8.190 -1.4571  1.7696 -0.1497
55997SOL    HW279971   6.481   1.318   8.338  0.2714 -1.4353 -0.4268
55998SOL     OW79972  11.537   8.614   2.632  0.0991  0.3037  0.4025
55998SOL    HW179973  11.620   8.640   2.592 -0.4046  1.5554  0.1476
55998SOL    HW279974  11.506   8.542   2.577 -0.5856  1.9888 -1.5566
55999SOL     OW79975  11.900   5.151  13.634 -0.1305  0.0951  0.0137
55999SOL    HW179976  11.810   5.130  13.609  0.0695  0.7672 -1.4090
55999SOL    HW279977  11.936   5.196  13.557  1.7257 -0.9994  0.1727
56000SOL     OW79978   7.702  11.197   4.456 -0.1981 -0.0732  0.1734
56000SOL    HW179979   7.652  11.189   4.537 -1.7679  0.1976 -0.7110
56000SOL    HW279980   7.683  11.116   4.408  0.0335  0.1291 -0.2715
56001SOL     OW79981  13.992   1.568   8.177 -0.1087  0.6255  0.0654
56001SOL    HW179982  14.029   1.489   8.138  0.1837  0.1276  1.3105
56001SOL    HW279983  14.068   1.624   8.193 -0.0531  0.2903  1.0784
56002SOL     OW79984   8.848   8.676   5.082 -0.2452 -0.2041  0.2390
56002SOL    HW179985   8.871   8.734   5.155 -1.3755 -0.0917  0.5256
56002SOL    HW279986   8.795   8.608   5.122  0.9436 -1.3865 -0.1287
56003SOL     OW79987  13.967   1.274   0.575 -0.5062  0.2934  0.1588
56003SOL    HW179988  13.892   1.318   0.614 -0.9925  1.5483 -2.0323
56003SOL    HW279989  14.037   1.339   0.577  0.0194 -0.2713  0.5911
56004SOL     OW79990   8.830   0.609   5.314 -0.1832 -0.1569  0.1721
56004SOL    HW179991   8.918   0.580   5.337 -0.5785 -1.0749  0.5603
56004SOL    HW279992   8.810   0.565   5.232 -0.0019  0.6461 -0.3198
56005SOL     OW79993   2.228   6.514   8.513  0.1814  0.1534  0.1616
56005SOL    HW179994   2.161   6.455   8.480  0.2651 -0.0561  0.3609
56005SOL    HW279995   2.267   6.467   8.587  1.2366 -0.1702 -0.5767
56006SOL     OW79996   1.637   4.591   1.200  0.2819 -0.3150  0.3320
56006SOL    HW179997   1.599   4.577   1.113  0.4991 -0.0153  0.1875
56006SOL    HW279998   1.598   4.673   1.229  0.9675  0.1006  0.0988
56007SOL     OW79999   3.457  11.962   5.433  0.1818  0.3437  0.0439
56007SOL    HW180000   3.492  11.952   5.522  1.3756 -1.0890 -0.5317
56007SOL    HW280001   3.497  11.889   5.384  0.6713  1.8916 -1.9926
56008SOL     OW80002   9.226  11.219   0.293 -0.2865  0.2503 -0.4123
56008SOL    HW180003   9.285  11.144   0.299 -1.4309 -0.6483 -0.1082
56008SOL    HW280004   9.282  11.291   0.266  1.2604 -0.2042  1.4036
56009SOL     OW80005   1.303  12.081   8.360 -0.1867 -0.0649  0.6079
56009SOL    HW180006   1.231  12.038   8.315 -0.6044 -0.7187  1.8415
56009SOL    HW280007   1.346  12.011   8.408  0.6063  0.5073  0.7527
56010SOL     OW80008   5.126   3.808   4.719 -0.4864  0.0148 -0.3966
56010SOL    HW180009   5.162   3.724   4.690 -0.6581  0.0695 -0.7779
56010SOL    HW280010   5.040   3.786   4.755 -0.6873  0.0760 -0.8402
56011SOL     OW80011  12.115   5.778   0.915  0.3394  0.2000 -0.1880
56011SOL    HW180012  12.081   5.711   0.974  0.7820  0.0166 -0.1389
56011SOL    HW280013  12.044   5.793   0.853  0.0467  0.0565  0.1092
56012SOL     OW80014  12.272   9.194   0.594 -0.5492  0.8959 -0.7396
56012SOL    HW180015  12.201   9.132   0.580 -1.2548  1.7858 -1.1724
56012SOL    HW280016  12.242   9.249   0.666 -0.8424  2.0359 -1.7053
56013SOL     OW80017   1.890   3.824  13.391  0.0808  0.0582 -0.3950
56013SOL    HW180018   1.864   3.808  13.482 -2.4264 -0.9300 -1.2023
56013SOL    HW280019   1.835   3.766  13.340  1.3151  0.7185 -2.5991
56014SOL     OW80020   5.970  11.676   3.275  0.8031  0.0194 -0.3878
56014SOL    HW180021   5.990  11.583   3.267 -0.8310 -0.4487  0.4337
56014SOL    HW280022   5.916  11.696   3.198  1.7315  0.4854 -0.9367
56015SOL     OW80023   3.134   9.738  11.565 -0.3919  0.2436  0.0929
56015SOL    HW180024   3.222   9.707  11.546  0.7015  1.6534  2.3786
56015SOL    HW280025   3.129   9.825  11.525 -0.1782  0.7684  1.1590
56016SOL     OW80026   2.926  13.673   5.486  0.2437 -0.7061  0.3507
56016SOL    HW180027   3.004  13.664   5.431 -1.3360 -1.8840 -1.8323
56016SOL    HW280028   2.916  13.767   5.498  2.5575 -0.5412  1.6407
56017SOL     OW80029  10.994   4.598  10.721 -0.2258  0.0513  0.3409
56017SOL    HW180030  10.987   4.506  10.748 -2.0516  0.2173  0.5480
56017SOL    HW280031  10.969   4.648  10.798  1.0335  0.7496  0.3098
56018SOL     OW80032   4.407   1.208  11.961 -0.5270  0.2479  0.1727
56018SOL    HW180033   4.315   1.226  11.938 -0.9159  0.3243  1.6982
56018SOL    HW280034   4.455   1.228  11.881 -2.0699 -2.1124 -1.4828
56019SOL     OW80035   5.725   6.104  11.539 -0.1215 -0.8189  0.0618
56019SOL    HW180036   5.696   6.123  11.450 -0.4257  1.6403  0.6443
56019SOL    HW280037   5.793   6.169  11.556 -1.3728 -0.0020  2.2686
56020SOL     OW80038   2.447  12.864  13.007 -0.0378 -0.4386 -0.1067
56020SOL    HW180039   2.417  12.793  12.950  0.2457 -0.3129 -0.4153
56020SOL    HW280040   2.372  12.882  13.063  0.0772 -1.3742  0.3693
56021SOL     OW80041   9.894   8.879   5.260  0.1791 -0.2080  0.7187
56021SOL    HW180042   9.933   8.796   5.233  1.8946  0.2729  1.5535
56021SOL    HW280043   9.800   8.863   5.261  0.4340 -1.9189  0.1799
56022SOL     OW80044   6.305   1.735   6.440 -0.0847 -0.2391 -0.0450
56022SOL    HW180045   6.349   1.817   6.419 -1.0459 -0.1584 -1.9556
56022SOL    HW280046   6.375   1.674   6.463  0.9239  0.2474 -1.7113
56023SOL     OW80047  10.776   5.865   3.064 -0.7156 -0.1958 -0.7619
56023SOL    HW180048  10.825   5.818   3.132  0.6459 -0.8613 -2.1338
56023SOL    HW280049  10.705   5.806   3.040 -3.4317  1.4963  2.4750
56024SOL     OW80050   9.421   4.139   5.205  0.3766  0.0418 -0.0065
56024SOL    HW180051   9.478   4.074   5.246  1.8681  0.9053 -0.6225
56024SOL    HW280052   9.340   4.136   5.255  1.2928 -0.5810  1.4827
56025SOL     OW80053  12.190  13.622   2.534 -0.2745  0.0133 -0.2238
56025SOL    HW180054  12.117  13.684   2.529 -1.0662 -0.7969  0.8591
56025SOL    HW280055  12.179  13.578   2.618  0.9088 -0.8186 -0.4737
56026SOL     OW80056   2.780  12.006   9.592  0.6208 -0.1594 -0.0677
56026SOL    HW180057   2.804  12.041   9.678  0.4556  0.6201 -0.3368
56026SOL    HW280058   2.739  11.921   9.611 -2.6259  1.4630  0.9511
56027SOL     OW80059   1.410  11.048   3.579  0.5423  0.0479 -0.7606
56027SOL    HW180060   1.425  10.954   3.588  0.5698  0.2014  1.1734
56027SOL    HW280061   1.337  11.067   3.638  1.7596  1.5210  0.3733
56028SOL     OW80062   4.521  13.535   8.601 -0.6315  0.3252  0.0701
56028SOL    HW180063   4.459  13.587   8.550 -1.0610  1.9651  2.1171
56028SOL    HW280064   4.472  13.511   8.680  0.8024  0.2371  0.9661
56029SOL     OW80065   2.483   9.807  11.383  0.1403  0.2064 -0.0068
56029SOL    HW180066   2.460   9.823  11.292  1.6861  3.2363 -0.0027
56029SOL    HW280067   2.445   9.881  11.430 -1.0062 -1.5169  1.9499
56030SOL     OW80068   1.387  10.923   8.781 -0.1866 -0.6486  0.3335
56030SOL    HW180069   1.343  11.001   8.748  0.3476 -0.0550  1.0030
56030SOL    HW280070   1.316  10.868   8.814 -0.5175 -0.1723  0.4246
56031SOL     OW80071   7.197   5.001   6.723 -0.5181 -0.1294  0.7175
56031SOL    HW180072   7.226   4.910   6.732  0.5356  0.2008  0.8704
56031SOL    HW280073   7.272   5.046   6.684 -0.5332  0.9134  1.8063
56032SOL     OW80074   1.477  13.020   5.128 -0.1937 -0.3110  0.2703
56032SOL    HW180075   1.529  12.967   5.067 -0.0347 -0.3068  0.4012
56032SOL    HW280076   1.538  13.041   5.199 -0.1127  0.4796 -0.0334
56033SOL     OW80077   4.374   4.104  10.730  0.3864 -0.4771 -0.0986
56033SOL    HW180078   4.440   4.153  10.779  0.6449 -1.3176  0.4042
56033SOL    HW280079   4.314   4.172  10.697  0.8788  0.1973  0.3635
56034SOL     OW80080   9.463  12.116   6.773  0.0099 -0.4341 -0.2470
56034SOL    HW180081   9.461  12.064   6.853  1.8498 -1.3972 -0.7892
56034SOL    HW280082   9.541  12.170   6.781  0.0033 -0.2636 -1.2186
56035SOL     OW80083   5.335   8.276  10.376 -0.0405  0.5431  0.1601
56035SOL    HW180084   5.399   8.268  10.447 -0.9903  2.6175  1.3330
56035SOL    HW280085   5.314   8.186  10.352  1.7090 -0.1860  1.2033
56036SOL     OW80086   8.687   6.622   8.595 -0.1014  0.2565 -0.0481
56036SOL    HW180087   8.741   6.663   8.528 -1.1545  1.7608 -0.0334
56036SOL    HW280088   8.722   6.653   8.678  0.4935 -0.7003  0.0750
56037SOL     OW80089  11.826   6.888   7.431  0.2674  0.2251  0.1091
56037SOL    HW180090  11.803   6.879   7.523  2.0227 -0.5683  0.5085
56037SOL    HW280091  11.813   6.981   7.412 -0.3759  0.3472  1.0685
56038SOL     OW80092   3.797  12.910  12.072 -0.1616 -0.2746  0.1558
56038SOL    HW180093   3.703  12.894  12.074 -0.2784  0.3844 -0.0071
56038SOL    HW280094   3.807  12.992  12.026  0.4085  0.3026  1.2556
56039SOL     OW80095   0.756   2.550   8.611 -0.4072  0.0689 -0.0083
56039SOL    HW180096   0.751   2.631   8.560  0.6529 -0.2228 -0.6117
56039SOL    HW280097   0.765   2.580   8.702 -2.1310  0.5902  0.0124
56040SOL     OW80098   2.395  13.398   4.674  0.1888  0.3706  0.0429
56040SOL    HW180099   2.399  13.461   4.601  2.4297 -0.1927 -0.3860
56040SOL    HW280100   2.386  13.313   4.631  0.1543  0.1446  0.4959
56041SOL     OW80101   8.299  11.535   8.070 -0.3569  0.5459  0.1180
56041SOL    HW180102   8.253  11.508   8.149  0.0638  0.8498  0.4751
56041SOL    HW280103   8.233  11.583   8.019 -0.8071 -0.2023 -0.0256
56042SOL     OW80104  14.017   6.828   8.024  0.8502  0.1288 -0.1132
56042SOL    HW180105  13.943   6.835   8.084 -0.1769  0.8152 -1.4135
56042SOL    HW280106  14.021   6.913   7.979  0.6510 -0.8203 -2.0528
56043SOL     OW80107   7.602   6.186  13.653  0.6775  0.0901  0.3811
56043SOL    HW180108   7.623   6.155  13.741 -1.5486 -0.7210  0.6898
56043SOL    HW280109   7.529   6.246  13.665 -0.0837 -0.5193 -0.9343
56044SOL     OW80110   0.387   8.323  13.977  0.2329 -0.1323 -0.8877
56044SOL    HW180111   0.474   8.306  14.014 -0.9771 -2.0681  1.3255
56044SOL    HW280112   0.404   8.379  13.902  3.3344  0.0958 -0.1638
56045SOL     OW80113  12.354   2.047   2.152 -0.8352 -0.3777 -0.2878
56045SOL    HW180114  12.391   1.981   2.094 -0.8504 -0.5097 -0.1483
56045SOL    HW280115  12.361   2.009   2.240 -2.3423 -0.9064 -0.3564
56046SOL     OW80116   8.710   3.812   9.177 -0.3953 -0.1140 -0.1687
56046SOL    HW180117   8.708   3.745   9.246  1.8559 -0.6736 -0.5723
56046SOL    HW280118   8.760   3.771   9.106 -1.4618  0.9739 -1.6007
56047SOL     OW80119  10.551   0.076   0.954 -0.0580  0.5281 -0.6424
56047SOL    HW180120  10.548  -0.008   0.999  0.5795  0.4607 -0.7249
56047SOL    HW280121  10.460   0.092   0.929 -0.3431  0.3244  0.2154
56048SOL     OW80122  11.838   5.650  13.606  0.2427  0.4105  0.0194
56048SOL    HW180123  11.751   5.640  13.567  0.0359  1.1530  0.2640
56048SOL    HW280124  11.848   5.745  13.615  1.3113  0.3620 -0.5259
56049SOL     OW80125   5.446  10.881   7.946 -0.0524  0.8084 -0.3371
56049SOL    HW180126   5.484  10.836   7.871  1.4484  1.0838  0.2301
56049SOL    HW280127   5.517  10.935   7.980 -0.3673 -0.0773  1.9009
56050SOL     OW80128  12.142   1.513   8.222 -0.1926 -0.1384  0.2828
56050SOL    HW180129  12.101   1.522   8.136 -0.2734 -0.5957  0.2698
56050SOL    HW280130  12.196   1.592   8.231  1.7536 -1.1803 -1.2496
56051SOL     OW80131   0.841   3.285  10.263 -0.0835  0.4504  0.2798
56051SOL    HW180132   0.849   3.378  10.244 -1.1683  0.2586 -1.2662
56051SOL    HW280133   0.788   3.249  10.192  0.9435 -1.5072  0.4156
56052SOL     OW80134   6.630   8.188   4.064  0.0527 -0.3560 -0.0159
56052SOL    HW180135   6.651   8.272   4.023 -1.5142  0.7584  1.3270
56052SOL    HW280136   6.612   8.130   3.990  0.2139  0.7628 -0.9662
56053SOL     OW80137   2.689   7.661   0.812  0.0059  0.3270 -0.7015
56053SOL    HW180138   2.676   7.680   0.905 -0.0217 -1.8391 -0.2168
56053SOL    HW280139   2.771   7.613   0.808 -0.3590 -0.2436 -1.6927
56054SOL     OW80140   0.664   4.836   0.013 -0.0839  0.6306  0.0774
56054SOL    HW180141   0.571   4.858   0.013 -0.0148  1.1905 -2.2281
56054SOL    HW280142   0.666   4.740   0.014 -0.7740  0.5759 -1.3211
56055SOL     OW80143   5.107   7.595   8.504  0.2712  0.3309 -0.5327
56055SOL    HW180144   5.074   7.566   8.588 -0.1073 -0.4996 -0.9605
56055SOL    HW280145   5.096   7.690   8.505 -3.2176  0.0701 -1.0849
56056SOL     OW80146  11.600   6.692   3.294  0.4795  0.5026 -0.1684
56056SOL    HW180147  11.599   6.747   3.372 -0.1187  0.5465 -0.2004
56056SOL    HW280148  11.693   6.683   3.272  0.7384 -0.5625  1.2777
56057SOL     OW80149   8.532  12.647  12.324 -0.2904 -0.1747 -0.0310
56057SOL    HW180150   8.474  12.573  12.303 -1.0865  0.6330 -0.7756
56057SOL    HW280151   8.616  12.623  12.285 -0.8338 -0.2285 -1.2049
56058SOL     OW80152   1.780  11.767  10.661 -0.3747 -0.1326  0.6027
56058SOL    HW180153   1.716  11.838  10.665 -0.4102 -0.0120 -1.0769
56058SOL    HW280154   1.736  11.699  10.609  0.3049 -0.6734  0.7227
56059SOL     OW80155   4.304  12.846   5.794 -0.3115  0.1144 -0.3953
56059SOL    HW180156   4.244  12.772   5.797 -0.1294 -0.0196  0.1268
56059SOL    HW280157   4.331  12.852   5.703 -0.7560 -0.1167 -0.5426
56060SOL     OW80158   2.650   3.028   8.393 -0.2789 -1.0569 -0.7869
56060SOL    HW180159   2.581   3.087   8.425 -0.1309 -1.5024  0.4052
56060SOL    HW280160   2.696   3.000   8.472 -0.7399 -3.2549 -1.2322
56061SOL     OW80161   3.866  13.992   5.739  0.3523  0.4267 -0.0013
56061SOL    HW180162   3.893  14.024   5.653 -2.8424 -1.6498 -1.9499
56061SOL    HW280163   3.927  13.920   5.758 -0.2832 -0.5941 -1.6738
56062SOL     OW80164  10.247  13.224  11.716  0.1462 -0.3423  0.0167
56062SOL    HW180165  10.259  13.130  11.702  0.7034  0.0003 -2.1559
56062SOL    HW280166  10.155  13.240  11.697  0.4390 -0.2042 -1.3548
56063SOL     OW80167  11.796   9.666  13.015 -0.1777  0.2869 -0.3126
56063SOL    HW180168  11.845   9.643  13.094  2.9240  2.2676 -1.4809
56063SOL    HW280169  11.799   9.586  12.961 -0.1358 -0.2813  0.5158
56064SOL     OW80170   2.974   2.662   8.506 -0.8324  0.8838  0.7756
56064SOL    HW180171   2.963   2.695   8.595 -1.1233  1.4711  0.5305
56064SOL    HW280172   2.909   2.711   8.454  0.1270  1.4211  0.0311
56065SOL     OW80173   7.355  12.366   2.412  0.7310  0.0795  0.1721
56065SOL    HW180174   7.429  12.316   2.376  0.7469  1.1128 -1.3052
56065SOL    HW280175   7.378  12.458   2.397 -0.4515  0.4525  0.5141
56066SOL     OW80176   0.070   6.952  11.152  0.0941 -0.4753 -0.5896
56066SOL    HW180177  -0.010   6.952  11.099  0.5080 -1.6959 -1.2478
56066SOL    HW280178   0.056   6.882  11.216 -0.1276  0.5557  0.5371
56067SOL     OW80179   6.641  12.511   7.532 -0.0421 -0.2585  0.0247
56067SOL    HW180180   6.597  12.502   7.616  2.9709  0.7374  1.8477
56067SOL    HW280181   6.689  12.593   7.538  1.7346 -1.0502 -1.9453
56068SOL     OW80182   4.385  13.047  10.358 -0.0758 -0.1575 -0.2013
56068SOL    HW180183   4.339  13.087  10.284 -1.9046 -0.2487  0.8231
56068SOL    HW280184   4.340  13.082  10.435  0.0921 -2.0524  0.7999
56069SOL     OW80185  10.028   7.032  13.123 -0.3573 -0.4056 -0.6457
56069SOL    HW180186  10.056   6.941  13.128  0.8659 -0.0315 -0.3820
56069SOL    HW280187  10.011   7.057  13.214 -1.3864 -0.5570 -0.7775
56070SOL     OW80188  10.208   6.513   5.423 -0.4396 -0.0007 -0.0990
56070SOL    HW180189  10.180   6.444   5.483  2.4648 -1.2111  0.0419
56070SOL    HW280190  10.226   6.468   5.341 -0.6211  0.9904 -0.7017
56071SOL     OW80191  13.959   2.287   8.768  0.1665 -0.3965  0.3186
56071SOL    HW180192  13.980   2.220   8.703 -0.9489 -0.2949 -0.1780
56071SOL    HW280193  14.025   2.276   8.837 -0.5563 -2.6451  0.7155
56072SOL     OW80194   4.490   8.351   7.069 -0.2094 -0.8880 -0.2993
56072SOL    HW180195   4.406   8.344   7.023 -0.4042  0.8302 -0.2619
56072SOL    HW280196   4.554   8.321   7.004 -0.7691 -1.4744 -0.5991
56073SOL     OW80197   9.580   3.607   8.412 -0.0460 -0.4795  0.2384
56073SOL    HW180198   9.645   3.613   8.342 -0.7465  2.1005 -0.3088
56073SOL    HW280199   9.620   3.551   8.478  1.3041 -1.6860 -1.5080
56074SOL     OW80200  11.065   1.446  10.652  0.7870  0.1664 -0.1880
56074SOL    HW180201  10.987   1.486  10.612 -0.4455 -1.4831  0.4467
56074SOL    HW280202  11.108   1.519  10.697 -1.3411  0.8748  0.8887
56075SOL     OW80203   5.508   3.402   1.926 -0.0689  0.2700 -0.2707
56075SOL    HW180204   5.592   3.439   1.900  0.7805 -0.4753  1.2384
56075SOL    HW280205   5.508   3.407   2.022 -2.3986  1.5976 -0.2575
56076SOL     OW80206   5.901   5.598   9.761 -0.1685  0.0608  0.1871
56076SOL    HW180207   5.870   5.683   9.791 -2.5897 -1.0656  1.1089
56076SOL    HW280208   5.917   5.548   9.841  1.7462 -0.2629 -0.3261
56077SOL     OW80209   7.542   1.840  10.324 -0.1678  0.4079 -0.3653
56077SOL    HW180210   7.467   1.781  10.321  0.7970 -0.8467 -0.5538
56077SOL    HW280211   7.601   1.807  10.256  1.7942 -0.3692  1.6191
56078SOL     OW80212   6.490   3.626   5.765  0.5608 -0.4546  0.8453
56078SOL    HW180213   6.446   3.606   5.683  1.8437  3.1664 -0.9870
56078SOL    HW280214   6.420   3.652   5.825 -0.2040  0.3010 -0.3362
56079SOL     OW80215   4.170   7.990   4.973 -0.2367  0.2882 -0.0012
56079SOL    HW180216   4.120   7.966   4.895 -0.2577  0.3713 -0.0133
56079SOL    HW280217   4.117   7.961   5.047 -1.6736  2.8740  0.0998
56080SOL     OW80218   4.735   0.259  10.560  0.2363  0.3841  0.0459
56080SOL    HW180219   4.700   0.195  10.622 -0.4530 -0.4473 -1.1588
56080SOL    HW280220   4.712   0.344  10.598 -2.2574 -0.1105 -0.1662
56081SOL     OW80221   6.546   7.695  12.704  0.0908  0.4064  0.0605
56081SOL    HW180222   6.568   7.772  12.755  0.4346 -0.1025  0.6945
56081SOL    HW280223   6.629   7.649  12.692  0.1292  0.7939 -1.4577
56082SOL     OW80224  11.047   7.352  10.737  0.3233 -0.1265 -0.5566
56082SOL    HW180225  11.003   7.268  10.728  3.7127 -1.9021 -2.3102
56082SOL    HW280226  11.020   7.402  10.660 -1.2409  0.2358  0.1870
56083SOL     OW80227   2.909   4.388   4.879 -0.2931  0.1909  0.0428
56083SOL    HW180228   2.968   4.389   4.954  2.5116 -0.3209 -2.0071
56083SOL    HW280229   2.905   4.296   4.854 -2.5140  0.1209  0.4332
56084SOL     OW80230   6.530   7.711  10.266  0.1342 -0.2164 -0.0578
56084SOL    HW180231   6.460   7.749  10.319  0.8365  1.4118 -0.2275
56084SOL    HW280232   6.514   7.617  10.268 -1.1533  0.0022  1.1713
56085SOL     OW80233   8.233   8.822   2.894  0.1944  0.4156 -0.8238
56085SOL    HW180234   8.252   8.819   2.987  0.6070  0.5389 -0.9042
56085SOL    HW280235   8.241   8.731   2.865  0.3267  0.4184 -0.7933
56086SOL     OW80236   3.915   1.847   9.624  0.6183  0.0828 -0.0262
56086SOL    HW180237   3.905   1.801   9.541  0.4982 -0.3687  0.2329
56086SOL    HW280238   3.944   1.779   9.685 -0.5320  0.1284  0.6001
56087SOL     OW80239   3.343   5.100  13.486 -0.1279  0.0016  0.4522
56087SOL    HW180240   3.276   5.086  13.420 -0.4225 -0.3428  0.8182
56087SOL    HW280241   3.409   5.033  13.469 -0.5574 -0.5629  0.9494
56088SOL     OW80242   6.487   4.761   9.096 -0.1337 -0.2201  0.1080
56088SOL    HW180243   6.536   4.836   9.132 -3.6537  1.4900  1.8160
56088SOL    HW280244   6.555   4.697   9.074  3.1254  3.3682 -1.4173
56089SOL     OW80245   5.541   4.427   5.774  0.2228 -0.1421 -0.5340
56089SOL    HW180246   5.489   4.419   5.694 -0.8434 -0.2207  0.1443
56089SOL    HW280247   5.591   4.346   5.779 -1.5047 -1.2218  0.0958
56090SOL     OW80248   1.594   1.094   6.469 -0.1809 -0.1894  0.2076
56090SOL    HW180249   1.607   1.165   6.406 -0.0401  0.6281  1.1278
56090SOL    HW280250   1.518   1.046   6.435 -1.5456  1.5756  0.5694
56091SOL     OW80251   4.470   4.764   1.665 -0.1097 -0.2580 -0.6983
56091SOL    HW180252   4.430   4.813   1.736  0.0398 -0.3927 -0.5182
56091SOL    HW280253   4.425   4.794   1.586  1.2460  1.5472 -0.8439
56092SOL     OW80254   6.271   6.046   8.657 -0.3720  0.5415 -0.3080
56092SOL    HW180255   6.325   6.123   8.674 -0.6885  1.4471 -2.9494
56092SOL    HW280256   6.272   6.037   8.562 -1.1677 -2.1541 -0.1315
56093SOL     OW80257  11.383   1.603  10.287 -0.7879  0.5544 -0.1167
56093SOL    HW180258  11.447   1.533  10.273 -2.3441 -0.6985 -1.2676
56093SOL    HW280259  11.433   1.684  10.273  0.5788 -0.3820 -0.8202
56094SOL     OW80260   3.616   1.141  12.520 -0.5540  0.1703  0.1351
56094SOL    HW180261   3.664   1.218  12.550  0.0795 -0.3927  0.5872
56094SOL    HW280262   3.632   1.137  12.426  1.2738 -0.6516  0.4300
56095SOL     OW80263   8.406   3.235   9.848 -0.5020 -0.7548  0.1473
56095SOL    HW180264   8.401   3.151   9.802  0.8202 -0.9739  0.3612
56095SOL    HW280265   8.331   3.234   9.908 -0.2003 -2.0267  0.5382
56096SOL     OW80266  11.159   2.055  12.003 -0.5572  0.5038 -0.0418
56096SOL    HW180267  11.242   2.013  11.980 -1.0862 -1.1498  0.8846
56096SOL    HW280268  11.093   2.002  11.958 -1.2594  0.1882  1.3055
56097SOL     OW80269  13.015  13.788   6.211  0.0141 -0.5282  0.1514
56097SOL    HW180270  13.026  13.883   6.221  0.1033 -0.2551 -2.1188
56097SOL    HW280271  13.102  13.752   6.229  0.4856  0.0345 -0.8979
56098SOL     OW80272  11.523  12.324  11.384 -0.2353 -0.7592 -0.0472
56098SOL    HW180273  11.459  12.395  11.380 -1.5657 -1.9577 -1.0412
56098SOL    HW280274  11.480  12.250  11.341  0.7826 -2.4407  1.6720
56099SOL     OW80275  11.321  12.902   9.964  0.5120  0.7626 -0.7192
56099SOL    HW180276  11.245  12.896   9.905 -0.7166  2.0421  0.6406
56099SOL    HW280277  11.344  12.811   9.982  1.3420  0.3032 -3.5976
56100SOL     OW80278   3.220   0.303  10.313  0.0717 -0.3349 -0.0744
56100SOL    HW180279   3.208   0.289  10.407  1.1525  1.4355  0.3798
56100SOL    HW280280   3.144   0.357  10.288  0.6016  0.5466  0.1603
56101SOL     OW80281   3.862  11.423   7.549 -0.0797  0.2530  0.2683
56101SOL    HW180282   3.845  11.500   7.494 -1.8934 -0.8538 -0.8159
56101SOL    HW280283   3.909  11.458   7.625 -0.9488  2.4630 -0.1333
56102SOL     OW80284  13.334   4.303   0.094  0.3465  1.0233  0.2989
56102SOL    HW180285  13.325   4.334   0.184  0.9615  2.6019 -0.1571
56102SOL    HW280286  13.292   4.371   0.041  0.8361  0.5847 -0.6742
56103SOL     OW80287  13.454  13.518   8.917 -0.2877 -0.0571 -0.3552
56103SOL    HW180288  13.383  13.578   8.895  0.6880  1.1300 -0.3376
56103SOL    HW280289  13.495  13.497   8.833 -0.4729 -0.5249 -0.3343
56104SOL     OW80290  12.850   5.819   6.624  1.0916 -0.7144  0.1675
56104SOL    HW180291  12.925   5.813   6.565  0.9696  0.4518 -0.1448
56104SOL    HW280292  12.806   5.900   6.597 -0.0963 -1.2132  0.5571
56105SOL     OW80293   8.926   1.780   2.700 -0.5380 -0.6960 -0.2846
56105SOL    HW180294   8.901   1.818   2.785  0.3673  0.7265 -0.6106
56105SOL    HW280295   9.021   1.769   2.706 -0.6590 -2.0588 -0.5702
56106SOL     OW80296   5.000   9.123   6.410  0.0740 -0.2400  0.8743
56106SOL    HW180297   5.044   9.208   6.408  1.8223 -1.0223 -2.8093
56106SOL    HW280298   5.040   9.076   6.483  1.2000  1.0919  1.1578
56107SOL     OW80299   5.479  11.814   4.502 -0.3046  0.5338 -0.0154
56107SOL    HW180300   5.457  11.756   4.574  1.0672  0.1833  0.1499
56107SOL    HW280301   5.399  11.818   4.449 -0.8991 -0.2755  0.7892
56108SOL     OW80302  12.396   8.821   1.954 -0.0545  0.2392  0.4430
56108SOL    HW180303  12.372   8.733   1.984  0.1878 -0.0393 -0.1652
56108SOL    HW280304  12.314   8.870   1.956 -1.7854 -1.6454 -5.0485
56109SOL     OW80305  10.326   7.651   1.167  0.0169  0.0989 -1.2585
56109SOL    HW180306  10.240   7.640   1.207  0.3388 -0.2057 -0.6332
56109SOL    HW280307  10.308   7.688   1.080 -0.6552  1.3807 -0.6012
56110SOL     OW80308   7.948   3.114  10.832 -0.7234  0.2414 -0.2167
56110SOL    HW180309   7.908   3.166  10.902  1.4703  2.1495 -0.2339
56110SOL    HW280310   7.982   3.036  10.875 -1.4074  0.2734  0.3969
56111SOL     OW80311   5.099  12.392   7.500  0.0303 -0.1505 -0.1819
56111SOL    HW180312   5.061  12.332   7.564  0.3105 -0.7558 -0.5775
56111SOL    HW280313   5.131  12.466   7.553  0.5559 -0.7916  0.4150
56112SOL     OW80314   7.398   1.774   5.333 -0.3194  0.4990 -0.4714
56112SOL    HW180315   7.407   1.763   5.238  1.4165 -1.5337 -0.1378
56112SOL    HW280316   7.456   1.847   5.354  1.6637 -0.9157 -0.6870
56113SOL     OW80317   7.463   2.785   3.159 -0.3568  0.6368 -0.1102
56113SOL    HW180318   7.543   2.837   3.150  0.5812 -0.8025 -0.4167
56113SOL    HW280319   7.392   2.849   3.148  0.7272  1.9666  0.2755
56114SOL     OW80320   8.256  13.215  11.230 -0.3627  0.0598  0.3722
56114SOL    HW180321   8.346  13.183  11.235 -1.4784 -3.5272  0.2906
56114SOL    HW280322   8.228  13.193  11.142 -1.6711  0.0233  0.7826
56115SOL     OW80323  10.335   9.775   0.397  0.4266 -0.8900 -0.3148
56115SOL    HW180324  10.288   9.853   0.426  2.1430  0.1126 -0.0697
56115SOL    HW280325  10.308   9.706   0.458  1.0320  0.2436  1.2938
56116SOL     OW80326  11.935   2.716  13.598  0.4440 -0.2265 -0.4297
56116SOL    HW180327  12.029   2.724  13.585  0.7763 -2.1988  0.3344
56116SOL    HW280328  11.925   2.706  13.693 -0.6422  0.9319 -0.4021
56117SOL     OW80329   4.086   1.328   0.064  0.4000  0.0535 -0.0930
56117SOL    HW180330   3.995   1.306   0.042  0.6509  0.1213 -1.2463
56117SOL    HW280331   4.084   1.423   0.080  0.4218  0.2084 -0.9686
56118SOL     OW80332  13.462  12.120   8.650 -0.3191  0.2575 -0.1112
56118SOL    HW180333  13.370  12.103   8.632 -0.1460  0.5994 -1.4068
56118SOL    HW280334  13.507  12.040   8.625 -0.1691  0.4201 -0.3647
56119SOL     OW80335   3.489   9.882   2.704  0.2668  0.0828  0.1220
56119SOL    HW180336   3.416   9.921   2.751  1.0359 -0.5859  2.0021
56119SOL    HW280337   3.520   9.950   2.645 -3.0332 -0.2451 -2.2203
56120SOL     OW80338  11.027   5.837   2.894 -0.3060 -0.5978 -0.1445
56120SOL    HW180339  11.064   5.925   2.898  0.1241 -0.7884  0.1013
56120SOL    HW280340  10.940   5.845   2.934 -0.3432 -0.2490 -0.2961
56121SOL     OW80341   3.494  11.085  12.980  0.3667 -0.1821 -0.6107
56121SOL    HW180342   3.449  11.168  12.996  1.2072  0.9148 -3.2747
56121SOL    HW280343   3.438  11.019  13.020 -0.2372  1.6533  1.7511
56122SOL     OW80344  12.284   0.098  12.838  0.1697  0.2646 -0.0641
56122SOL    HW180345  12.325   0.053  12.912 -1.5314 -1.4179 -0.0961
56122SOL    HW280346  12.289   0.036  12.766  2.1496  2.0195 -1.5825
56123SOL     OW80347   8.468   1.501  11.899  0.1267 -0.2535  0.0356
56123SOL    HW180348   8.384   1.516  11.856  0.4055 -1.3340 -0.9395
56123SOL    HW280349   8.449   1.439  11.969  0.0141  0.0050  0.2387
56124SOL     OW80350  11.495  10.916  11.027 -0.4937  0.1276  0.3508
56124SOL    HW180351  11.480  10.949  11.116  1.7174 -0.0901  0.8641
56124SOL    HW280352  11.589  10.897  11.024 -1.0151 -2.6942 -1.0910
56125SOL     OW80353   7.184   7.641   7.077 -1.0049 -0.4142 -0.0604
56125SOL    HW180354   7.102   7.640   7.028  0.1461  0.4603 -2.1716
56125SOL    HW280355   7.159   7.670   7.165 -2.9199 -0.0356 -0.6766
56126SOL     OW80356  11.397   2.357   9.397 -0.7072 -0.2455 -0.1605
56126SOL    HW180357  11.373   2.333   9.308 -0.4838  1.5744 -0.7439
56126SOL    HW280358  11.343   2.301   9.453  0.1668 -2.4190 -1.3921
56127SOL     OW80359   9.652   6.351   0.979  0.4550 -0.1877 -0.1920
56127SOL    HW180360   9.733   6.314   1.017  0.5747  0.7403  0.4749
56127SOL    HW280361   9.596   6.275   0.966  1.7712 -0.9909 -1.5561
56128SOL     OW80362   7.994   4.290  12.444 -0.0750  0.9480  0.6072
56128SOL    HW180363   7.918   4.299  12.502 -0.3165  2.8572  0.0720
56128SOL    HW280364   8.053   4.231  12.490  0.3254  3.3393  3.4895
56129SOL     OW80365   4.198   2.435   2.113  0.2892  0.3758 -0.5956
56129SOL    HW180366   4.186   2.405   2.024 -1.3561  1.6057 -0.8408
56129SOL    HW280367   4.273   2.386   2.146 -0.2392 -1.4656 -2.0145
56130SOL     OW80368   6.981   5.259  11.256  0.2781  0.2594  0.4340
56130SOL    HW180369   7.038   5.183  11.271 -0.4238 -0.5017 -0.6438
56130SOL    HW280370   7.041   5.334  11.259  1.0400 -0.3563  1.1777
56131SOL     OW80371   3.907   6.367  11.630  0.1866 -0.0793  0.1143
56131SOL    HW180372   3.929   6.449  11.676  0.3617  0.8100 -1.4699
56131SOL    HW280373   3.814   6.376  11.608  0.0674 -0.5629  0.4122
56132SOL     OW80374   8.154   6.460  12.738  0.3129  0.9281 -0.0385
56132SOL    HW180375   8.218   6.527  12.714  0.1582  1.6357  1.3765
56132SOL    HW280376   8.197   6.408  12.806 -1.5594  3.4326  3.4084
56133SOL     OW80377   3.499   5.304   6.996  0.0150 -0.2550 -0.5336
56133SOL    HW180378   3.491   5.240   7.066  2.0391 -1.1181 -1.0109
56133SOL    HW280379   3.567   5.268   6.939  0.2552  1.6723 -1.5379
56134SOL     OW80380   0.678  11.425   9.333  0.1684 -0.0673  0.5714
56134SOL    HW180381   0.676  11.520   9.340  1.8092  0.2451 -1.9037
56134SOL    HW280382   0.698  11.395   9.421  0.7532  1.9478  1.1762
56135SOL     OW80383   5.065  11.771   0.745  0.4162 -0.1500  0.1394
56135SOL    HW180384   5.137  11.826   0.714 -0.7806  1.8591  0.7333
56135SOL    HW280385   4.986  11.817   0.716 -0.6488 -1.7650  0.3764
56136SOL     OW80386  11.708   5.902   2.878 -0.1196 -0.1841  0.1640
56136SOL    HW180387  11.766   5.919   2.803  0.6006 -0.2098  0.7049
56136SOL    HW280388  11.625   5.877   2.838  0.0572  0.4389 -0.6315
56137SOL     OW80389   8.576   0.078   8.554 -0.6578 -0.3379  0.1456
56137SOL    HW180390   8.658   0.033   8.572  0.8458  1.2521 -2.1435
56137SOL    HW280391   8.571   0.146   8.622 -1.4449 -1.9972  1.8199
56138SOL     OW80392   2.619  11.220  10.624  0.0182  0.1999 -0.2617
56138SOL    HW180393   2.671  11.167  10.564 -0.1607 -0.8245  0.4617
56138SOL    HW280394   2.545  11.165  10.648  0.4093  0.3146  1.3772
56139SOL     OW80395   9.522   0.356   6.718 -0.1088 -0.0556  0.0766
56139SOL    HW180396   9.432   0.342   6.747  0.1721 -0.9817  0.5341
56139SOL    HW280397   9.515   0.368   6.623 -0.6412 -0.9119  0.0001
56140SOL     OW80398   8.019  12.855   7.662 -0.4622  0.1334 -0.7856
56140SOL    HW180399   8.079  12.839   7.734 -2.6512 -1.9904  0.7561
56140SOL    HW280400   8.052  12.800   7.591 -0.1975 -0.4956 -0.1879
56141SOL     OW80401   7.300   4.643   7.487  0.1251 -0.4007 -0.2430
56141SOL    HW180402   7.235   4.596   7.435 -0.0218 -0.8623  0.3416
56141SOL    HW280403   7.381   4.595   7.474 -0.1036 -1.0508  0.6419
56142SOL     OW80404  13.243   5.724  10.436 -0.4852  0.2377  0.2748
56142SOL    HW180405  13.237   5.650  10.495  1.5940  0.5670  0.9835
56142SOL    HW280406  13.277   5.796  10.490 -0.0645  1.0022 -0.9566
56143SOL     OW80407   6.253   2.478   7.741  0.1464  0.0429  0.5636
56143SOL    HW180408   6.185   2.455   7.677  0.1506 -0.2626  0.6703
56143SOL    HW280409   6.274   2.570   7.721  1.1809 -0.4571 -0.8281
56144SOL     OW80410   5.903   9.174   0.723 -0.1074 -0.0090  0.1830
56144SOL    HW180411   5.959   9.252   0.713 -0.5923  0.1849 -1.0645
56144SOL    HW280412   5.954   9.103   0.685  0.1881 -0.2542  1.0118
56145SOL     OW80413   9.177   1.621   8.598 -0.0373  0.4925 -0.4870
56145SOL    HW180414   9.187   1.714   8.577  0.2181  0.1546 -2.0162
56145SOL    HW280415   9.151   1.581   8.515 -1.0978 -0.6698  0.3644
56146SOL     OW80416   8.968   0.648   2.480 -0.1942 -0.3556 -0.3118
56146SOL    HW180417   9.023   0.642   2.401 -1.2333 -0.2251 -1.0616
56146SOL    HW280418   9.028   0.679   2.548  0.3834  1.1420 -1.4362
56147SOL     OW80419   5.038   4.408   6.069  0.2307 -0.4987  0.5389
56147SOL    HW180420   4.957   4.406   6.119  1.4254  0.6321  2.6446
56147SOL    HW280421   5.010   4.389   5.979 -2.4859  0.7140  1.0056
56148SOL     OW80422   7.761   2.975  12.131 -0.2330 -0.0534 -0.3761
56148SOL    HW180423   7.809   3.046  12.173  0.5765 -0.1716 -1.0682
56148SOL    HW280424   7.743   3.007  12.043  0.9448 -1.0306 -1.0037
56149SOL     OW80425   7.490   2.087   4.840 -0.2208 -0.4437  0.1631
56149SOL    HW180426   7.423   2.073   4.773 -0.4639 -0.6664  0.4499
56149SOL    HW280427   7.527   2.173   4.819 -1.0031 -0.0508  0.3489
56150SOL     OW80428  11.077   6.121   2.112  0.2990 -0.0334 -0.0063
56150SOL    HW180429  11.079   6.135   2.017  0.5434 -1.5978 -0.2630
56150SOL    HW280430  11.012   6.053   2.125  1.7946 -1.4098  0.6857
56151SOL     OW80431   3.975  13.662  11.897 -0.6042 -0.1322  0.0979
56151SOL    HW180432   4.057  13.695  11.859 -0.0112 -0.3943  1.1276
56151SOL    HW280433   3.906  13.705  11.845  0.1362 -1.5561 -2.2548
56152SOL     OW80434   4.623   7.616   3.577 -0.2539 -0.6307 -0.3632
56152SOL    HW180435   4.544   7.590   3.625 -0.6588 -1.3713 -1.3742
56152SOL    HW280436   4.595   7.690   3.523  0.2640  0.3631  0.6858
56153SOL     OW80437   2.497   3.645   7.192 -0.6557  0.1611  0.3445
56153SOL    HW180438   2.576   3.698   7.203 -1.8943  2.1710  0.1610
56153SOL    HW280439   2.519   3.584   7.122  0.6446  0.8896  0.0710
56154SOL     OW80440   3.025   2.185   8.677  0.2366  0.2746 -0.2668
56154SOL    HW180441   2.945   2.175   8.729  0.8072 -0.5358  0.4934
56154SOL    HW280442   3.081   2.240   8.731  0.1587  0.9459 -0.8570
56155SOL     OW80443   3.323   3.315   0.775 -0.6262  0.3042  0.0507
56155SOL    HW180444   3.351   3.406   0.782  1.3019 -0.2782  0.6745
56155SOL    HW280445   3.401   3.269   0.742 -0.9681 -1.3872  1.4667
56156SOL     OW80446  13.627   7.869   9.741 -0.1842  0.5741 -0.4616
56156SOL    HW180447  13.570   7.943   9.723 -0.8934  0.3162  0.5875
56156SOL    HW280448  13.568   7.799   9.768  0.4319 -0.5269 -1.8157
56157SOL     OW80449   5.110  10.390  12.925  0.3219  0.6105  0.5931
56157SOL    HW180450   5.042  10.364  12.987  0.0532 -1.4919 -0.4734
56157SOL    HW280451   5.067  10.388  12.840  1.7322 -1.1971 -0.1593
56158SOL     OW80452  10.162  10.430   0.423  0.7248 -0.2350 -0.2347
56158SOL    HW180453  10.119  10.384   0.495  2.2686 -1.2215  0.1032
56158SOL    HW280454  10.139  10.522   0.437 -3.0892 -0.8290 -1.3711
56159SOL     OW80455   2.307   7.312   1.041 -0.3363  0.3989  0.4999
56159SOL    HW180456   2.370   7.300   0.970  0.0172 -0.6522  0.9645
56159SOL    HW280457   2.336   7.391   1.086  1.6251 -0.9190  1.6654
56160SOL     OW80458   4.751   4.958   0.784  0.3698 -0.1201 -0.1989
56160SOL    HW180459   4.829   4.941   0.838  0.0634  1.0019  0.6437
56160SOL    HW280460   4.765   5.045   0.748 -0.9091  0.5019  0.7401
56161SOL     OW80461  13.358   8.057   7.924  0.1815 -0.5068  0.3312
56161SOL    HW180462  13.370   8.115   7.999  2.6831 -0.0564 -0.3503
56161SOL    HW280463  13.416   7.983   7.942 -0.9769 -1.5495 -0.0767
56162SOL     OW80464   7.614  13.989   5.966 -0.4768 -0.4114 -0.1502
56162SOL    HW180465   7.704  13.969   5.991 -0.4134  0.7358  0.6253
56162SOL    HW280466   7.620  14.076   5.926 -1.2386 -0.3210 -0.0708
56163SOL     OW80467   1.941   6.641   9.937  0.1702  0.0628 -0.0851
56163SOL    HW180468   1.964   6.591  10.015  1.2010 -1.9956 -1.6287
56163SOL    HW280469   2.007   6.711   9.933 -0.0344  0.3405  0.9614
56164SOL     OW80470   2.332  12.733   4.040  0.3437 -0.1918  0.1342
56164SOL    HW180471   2.258  12.705   3.987  2.7878 -4.1141 -1.6661
56164SOL    HW280472   2.395  12.767   3.977  1.6948 -0.9998  0.9879
56165SOL     OW80473   7.636   2.247   0.224 -0.6061  0.1923 -0.2519
56165SOL    HW180474   7.648   2.227   0.132 -1.6816 -0.7690 -0.2053
56165SOL    HW280475   7.648   2.342   0.230 -2.2915  0.5516 -1.6931
56166SOL     OW80476   6.488   8.393  10.969 -0.8261  0.4902  0.4892
56166SOL    HW180477   6.402   8.398  10.927 -0.0243 -0.8930 -1.5245
56166SOL    HW280478   6.498   8.300  10.989  0.4733  0.5088 -0.0029
56167SOL     OW80479   0.585   5.756   9.067 -0.2151  0.0877 -0.2092
56167SOL    HW180480   0.649   5.701   9.111  0.4454  0.6162 -0.4840
56167SOL    HW280481   0.574   5.715   8.981 -0.2517 -0.0117 -0.1571
56168SOL     OW80482   0.766   1.094  11.878 -0.8045 -0.0133 -0.2916
56168SOL    HW180483   0.822   1.062  11.808  1.0496  1.0423  0.6176
56168SOL    HW280484   0.731   1.016  11.919  0.4824 -0.7543 -0.5478
56169SOL     OW80485   7.718   0.352   5.278  0.0441  0.1301  0.5777
56169SOL    HW180486   7.758   0.393   5.201  1.7961 -1.0341  0.8063
56169SOL    HW280487   7.717   0.420   5.345  1.4606  0.2568  0.4824
56170SOL     OW80488   8.133  10.724   3.787 -0.5362  0.4532  0.2754
56170SOL    HW180489   8.152  10.748   3.878 -0.6108  1.2270  0.0967
56170SOL    HW280490   8.045  10.687   3.790 -1.4832  2.5524  0.2212
56171SOL     OW80491  11.944  13.738   9.030  0.7375 -0.4389  0.2669
56171SOL    HW180492  12.010  13.700   8.972  1.1434  0.5860  0.0293
56171SOL    HW280493  11.990  13.808   9.076 -0.4515  1.0977 -0.7685
56172SOL     OW80494   2.554  11.353   4.230 -0.0104 -0.5061  0.2725
56172SOL    HW180495   2.541  11.396   4.146 -1.6682 -0.4018  0.5380
56172SOL    HW280496   2.644  11.374   4.254 -0.0309  0.8600 -0.6927
56173SOL     OW80497  10.686   0.291   7.291 -0.4260  0.5097  0.3296
56173SOL    HW180498  10.744   0.216   7.301 -1.7257 -0.4905  0.7434
56173SOL    HW280499  10.659   0.312   7.381 -0.3184  1.2679  0.1864
56174SOL     OW80500   7.551  11.667  10.083 -0.3661  0.7100 -0.0424
56174SOL    HW180501   7.594  11.725  10.021 -0.3849 -1.6172 -2.3973
56174SOL    HW280502   7.574  11.579  10.054 -1.4374 -0.5437  2.5363
56175SOL     OW80503   9.391   2.663   1.952 -0.2301  0.2832  0.1890
56175SOL    HW180504   9.357   2.577   1.930  2.2553 -0.7260 -0.0042
56175SOL    HW280505   9.386   2.713   1.871  0.5718 -0.5067 -0.3696
56176SOL     OW80506   1.979   0.635  11.438  0.6371 -0.4815 -0.4707
56176SOL    HW180507   2.029   0.569  11.390 -0.2013 -2.7492  1.5612
56176SOL    HW280508   1.900   0.648  11.386 -0.0738 -2.6047 -0.0332
56177SOL     OW80509   8.807   6.131   3.623 -0.4651  0.0109  0.6521
56177SOL    HW180510   8.859   6.206   3.594 -4.1691  2.5976 -0.0955
56177SOL    HW280511   8.795   6.078   3.544 -0.7695  0.6390  0.2621
56178SOL     OW80512  11.646  12.442   1.741 -0.2953  0.4116  0.3195
56178SOL    HW180513  11.650  12.453   1.646 -0.9503  0.2323  0.2650
56178SOL    HW280514  11.636  12.348   1.754 -2.1098  0.5798  0.4693
56179SOL     OW80515   0.592   1.907   2.277 -0.1878  0.6160  0.6508
56179SOL    HW180516   0.648   1.891   2.353 -1.1557  0.9511  1.4459
56179SOL    HW280517   0.520   1.960   2.310 -1.1173 -0.0062 -0.3153
56180SOL     OW80518   2.101   3.926   0.079 -0.3576  0.1001  0.5234
56180SOL    HW180519   2.069   3.836   0.087  0.5736 -0.2009  0.9825
56180SOL    HW280520   2.027   3.980   0.108 -1.6703 -0.3822 -1.6905
56181SOL     OW80521   9.175  11.599   1.011 -0.0275 -0.2919  0.7102
56181SOL    HW180522   9.113  11.535   1.047 -1.6496  1.3767  1.0360
56181SOL    HW280523   9.148  11.610   0.920  0.7254 -0.5913  0.4401
56182SOL     OW80524  13.577  11.070   5.992  0.6327  0.5435  0.3033
56182SOL    HW180525  13.573  11.162   6.018  1.5600  0.1654  1.9558
56182SOL    HW280526  13.670  11.048   5.999  0.5104 -0.3546 -0.7151
56183SOL     OW80527  13.131   5.271  12.211 -0.3536  0.2716  0.0293
56183SOL    HW180528  13.209   5.316  12.179 -0.1039 -1.0560 -1.3270
56183SOL    HW280529  13.162   5.218  12.284 -0.5253  1.7136  1.2008
56184SOL     OW80530  11.885   4.991   3.542 -0.0779  0.0508  0.3040
56184SOL    HW180531  11.945   4.942   3.598 -0.5331  0.4959  1.1936
56184SOL    HW280532  11.799   4.979   3.582 -0.4896 -0.0324 -0.5887
56185SOL     OW80533   6.623   9.904   6.807  0.1159 -0.0821 -0.5292
56185SOL    HW180534   6.550   9.842   6.807 -1.6094  1.8354 -0.5229
56185SOL    HW280535   6.688   9.865   6.748 -0.9759 -1.7749 -0.6761
56186SOL     OW80536   7.105   5.220   3.198 -0.1666  0.2449 -0.5593
56186SOL    HW180537   7.103   5.136   3.244 -0.2469  1.3979  1.7011
56186SOL    HW280538   7.191   5.224   3.157  1.0264  0.2216  1.7748
56187SOL     OW80539   0.690   0.868   5.482  0.0920 -0.2529 -0.2371
56187SOL    HW180540   0.637   0.841   5.407  0.3594 -0.6309 -0.2944
56187SOL    HW280541   0.629   0.917   5.537 -0.3768 -0.8566 -0.2009
56188SOL     OW80542   8.623   1.744   4.580  0.0288 -0.0282 -0.6799
56188SOL    HW180543   8.599   1.810   4.645  0.9290  0.7102 -1.0774
56188SOL    HW280544   8.695   1.783   4.531  0.8661 -1.4713 -0.6624
56189SOL     OW80545  13.813   0.834   5.192  0.4607  0.1589  0.2309
56189SOL    HW180546  13.736   0.801   5.147  1.2288 -0.4561 -0.6623
56189SOL    HW280547  13.804   0.802   5.282 -0.3911  0.2391  0.1833
56190SOL     OW80548   4.395  10.825   0.070 -0.0130 -0.0461  0.0205
56190SOL    HW180549   4.439  10.742   0.085  1.9276  0.9753  0.4348
56190SOL    HW280550   4.303  10.803   0.060  0.4708 -2.2390 -0.0548
56191SOL     OW80551   5.752   2.288   6.685 -0.5585 -0.3826  0.0233
56191SOL    HW180552   5.674   2.274   6.631 -0.8980 -0.1980  0.4585
56191SOL    HW280553   5.719   2.293   6.774  0.1054 -1.6406  0.3556
56192SOL     OW80554   3.962   0.135   6.642 -0.0104 -0.4971 -0.2472
56192SOL    HW180555   4.043   0.093   6.614  1.6356  1.9745  0.4978
56192SOL    HW280556   3.967   0.223   6.605 -2.0068 -0.0320  0.4676
56193SOL     OW80557   1.495  12.626   6.368 -0.1607  0.0727  0.0464
56193SOL    HW180558   1.518  12.714   6.398  1.0242 -0.1946 -0.0204
56193SOL    HW280559   1.524  12.568   6.439 -0.8244 -0.2779  0.0389
56194SOL     OW80560   4.399   6.214   8.188 -0.3875 -0.1612 -0.1466
56194SOL    HW180561   4.414   6.131   8.144 -2.9352 -0.8603  0.1553
56194SOL    HW280562   4.388   6.191   8.280  0.5320  0.7623  0.2292
56195SOL     OW80563  13.396   5.476   1.135  0.3251  0.8123  0.6540
56195SOL    HW180564  13.483   5.479   1.173  0.1401  0.5485  1.1015
56195SOL    HW280565  13.406   5.422   1.057  0.0289 -1.5397  2.1536
56196SOL     OW80566   1.533   9.262  11.431  0.5671 -0.3123  0.5242
56196SOL    HW180567   1.446   9.279  11.469  1.8788  0.4168  3.5012
56196SOL    HW280568   1.588   9.243  11.507  3.3822  0.8493 -1.1092
56197SOL     OW80569   8.088  11.475  10.510 -0.1359  0.1506  0.7222
56197SOL    HW180570   8.155  11.408  10.524  0.0432 -0.0681 -0.9851
56197SOL    HW280571   8.132  11.544  10.460 -0.4869  1.2787  1.9166
56198SOL     OW80572   6.418   7.868   6.982 -0.3415  0.1274  0.3670
56198SOL    HW180573   6.360   7.918   7.039 -0.4718  1.2777 -0.7529
56198SOL    HW280574   6.468   7.933   6.934  0.0219 -0.8202 -0.5885
56199SOL     OW80575  12.860   4.811   0.902  0.0406 -0.2906 -0.4328
56199SOL    HW180576  12.831   4.828   0.812  0.6814 -0.5166 -0.6886
56199SOL    HW280577  12.930   4.875   0.917 -0.0226 -0.2956 -0.1137
56200SOL     OW80578   2.303   2.103   4.313 -0.3134  0.0152 -0.1793
56200SOL    HW180579   2.343   2.188   4.297 -2.9469  1.5531  0.6651
56200SOL    HW280580   2.274   2.107   4.404 -1.0708 -1.5156 -0.3162
56201SOL     OW80581   8.812  12.313  10.227 -0.0394  0.2721 -0.0012
56201SOL    HW180582   8.847  12.355  10.148  0.7681 -1.7296 -0.7660
56201SOL    HW280583   8.719  12.335  10.226  0.1114  0.9210 -1.0929
56202SOL     OW80584  13.596  11.562   3.008  0.2899  0.1362 -0.5240
56202SOL    HW180585  13.598  11.510   2.927  2.1316 -0.0221 -0.4224
56202SOL    HW280586  13.667  11.625   2.997  3.6383 -2.6268  2.6659
56203SOL     OW80587  12.195  11.251  12.056 -0.3061  0.1486 -0.3928
56203SOL    HW180588  12.137  11.191  12.103 -0.4143 -0.5593 -1.3849
56203SOL    HW280589  12.141  11.328  12.038 -0.1634  0.5657  0.9081
56204SOL     OW80590   6.378   5.826  10.859  0.0383  0.2147 -0.3586
56204SOL    HW180591   6.342   5.851  10.774  0.6758 -0.3419 -0.8054
56204SOL    HW280592   6.427   5.903  10.888  2.5558 -0.5929 -2.0356
56205SOL     OW80593   8.403   3.523   8.034  0.4064  0.1233 -0.9020
56205SOL    HW180594   8.410   3.510   7.940  0.3006 -0.1548 -0.8739
56205SOL    HW280595   8.334   3.463   8.061  0.4271  0.2125 -0.6498
56206SOL     OW80596   0.912   2.351   4.315  0.2528  0.3163  0.1176
56206SOL    HW180597   1.004   2.368   4.332 -0.0002  0.0899  1.9196
56206SOL    HW280598   0.866   2.429   4.347 -0.2933 -0.3058  0.9098
56207SOL     OW80599   9.624  11.837   8.911  0.2114 -0.3210 -0.3560
56207SOL    HW180600   9.596  11.748   8.932 -2.6369  0.6183  0.2080
56207SOL    HW280601   9.599  11.849   8.820 -0.5871  0.2727 -0.0736
56208SOL     OW80602  11.857   6.213   1.271 -0.6676  0.1046  0.0393
56208SOL    HW180603  11.860   6.164   1.354 -1.2525 -0.3398 -0.1929
56208SOL    HW280604  11.775   6.186   1.231 -0.5859  0.6403 -0.4948
56209SOL     OW80605   2.758   0.996   9.609 -0.1084  0.2116  0.2671
56209SOL    HW180606   2.680   0.946   9.587 -0.4742  1.4349 -1.4124
56209SOL    HW280607   2.827   0.931   9.619  0.2524 -0.6719 -5.1441
56210SOL     OW80608   1.496   1.920   4.584  0.3388 -0.5068 -0.2191
56210SOL    HW180609   1.574   1.935   4.531  1.6168 -0.7240  1.5283
56210SOL    HW280610   1.466   1.833   4.558  1.7919 -1.2238  0.4033
56211SOL     OW80611   2.567   0.386   8.926  0.1362 -0.1960  0.1574
56211SOL    HW180612   2.656   0.398   8.892 -0.0596  1.6027  0.1788
56211SOL    HW280613   2.578   0.334   9.005  1.0838 -0.6209 -0.2428
56212SOL     OW80614  12.033   8.283   0.689  0.1107 -0.3458 -0.0565
56212SOL    HW180615  12.088   8.325   0.623  0.0674 -0.0101  0.1186
56212SOL    HW280616  11.962   8.345   0.705  0.3109 -0.2631  0.5589
56213SOL     OW80617   7.027  10.378   8.905 -0.5935 -0.0005  0.5123
56213SOL    HW180618   6.997  10.289   8.887 -0.4812 -0.0145  0.3900
56213SOL    HW280619   7.006  10.427   8.825 -2.7999  0.6504  1.4138
56214SOL     OW80620   8.188   4.679  13.586  0.1907  0.1107  0.1696
56214SOL    HW180621   8.237   4.644  13.660 -0.2437 -0.0432  0.3904
56214SOL    HW280622   8.111   4.622  13.579  1.3227 -1.2897 -1.8000
56215SOL     OW80623   8.863  11.640   4.918 -0.7992  0.0996 -0.1724
56215SOL    HW180624   8.902  11.669   4.836 -1.2066  1.7554  0.1786
56215SOL    HW280625   8.881  11.546   4.921 -1.5583 -0.1992 -2.5725
56216SOL     OW80626  12.979   3.302   8.530  0.2339 -0.3007  0.0455
56216SOL    HW180627  12.933   3.355   8.595  0.5938  0.4175 -0.2785
56216SOL    HW280628  12.924   3.224   8.519  1.0730 -1.3526  2.5921
56217SOL     OW80629   9.141   1.245   7.034 -0.0214  0.0056 -0.2784
56217SOL    HW180630   9.153   1.314   6.968 -1.7086  2.0293  1.3923
56217SOL    HW280631   9.062   1.270   7.081  0.0328 -2.4244  1.2783
56218SOL     OW80632  12.374  11.332   0.277  0.3867  0.1572 -0.3054
56218SOL    HW180633  12.447  11.393   0.288 -0.4619  1.0828  0.2852
56218SOL    HW280634  12.317  11.348   0.352  0.0144 -1.1902 -0.2682
56219SOL     OW80635   2.852   0.952   1.068  0.0087  0.1848  0.3070
56219SOL    HW180636   2.884   0.897   1.140  2.9020  1.7676  0.3808
56219SOL    HW280637   2.853   0.894   0.992  0.9346 -0.4617  0.7813
56220SOL     OW80638  10.197  12.199   5.240 -0.2229 -0.2037 -0.7035
56220SOL    HW180639  10.179  12.121   5.188  0.8275 -0.9867  0.0685
56220SOL    HW280640  10.158  12.181   5.325  1.1882 -0.5025 -0.0842
56221SOL     OW80641  14.002   2.376  10.311 -0.2742  0.4576 -0.8461
56221SOL    HW180642  13.951   2.417  10.241 -0.4230  3.0564  0.6559
56221SOL    HW280643  14.092   2.378  10.279 -0.6158 -0.6511 -1.9421
56222SOL     OW80644   7.807   6.730   0.923  0.1846 -0.1623  0.3050
56222SOL    HW180645   7.724   6.775   0.905  0.9017  0.7844 -0.7592
56222SOL    HW280646   7.789   6.677   1.001 -1.4291 -0.0037  0.0811
56223SOL     OW80647   7.392  12.367   3.315 -0.0011  0.4795 -0.0260
56223SOL    HW180648   7.317  12.419   3.345 -0.0175  0.9314 -0.8269
56223SOL    HW280649   7.362  12.276   3.322  0.3688  0.4903  2.3081
56224SOL     OW80650   1.863   3.009   8.342 -1.0064 -0.2737 -0.6374
56224SOL    HW180651   1.949   3.016   8.385 -1.0146  3.2653 -0.9487
56224SOL    HW280652   1.882   3.025   8.249 -1.9556  0.0209 -0.7829
56225SOL     OW80653   8.277   7.263   8.100 -0.5114 -0.1473  0.0668
56225SOL    HW180654   8.324   7.287   8.020 -0.0478 -1.2298 -0.0013
56225SOL    HW280655   8.195   7.225   8.069 -0.7042  0.2098  0.1358
56226SOL     OW80656   6.470   9.192   1.019 -0.3220  0.0440 -0.1209
56226SOL    HW180657   6.488   9.175   1.111  0.9430  1.2297 -0.1112
56226SOL    HW280658   6.551   9.167   0.974  0.1076  2.0063 -0.5474
56227SOL     OW80659   9.070  11.186  11.026 -0.4813 -0.2308  0.0501
56227SOL    HW180660   9.143  11.142  11.069 -0.8258  0.5504  1.5132
56227SOL    HW280661   9.064  11.145  10.940  2.7089  0.7652 -0.7871
56228SOL     OW80662   6.470   6.992  13.569  0.4470  0.7509 -0.5889
56228SOL    HW180663   6.424   7.053  13.627 -0.5857  0.4591 -1.0658
56228SOL    HW280664   6.539   6.954  13.623 -1.1185 -0.2804  0.7828
56229SOL     OW80665  12.614   6.861   1.987  0.8120  0.0664 -0.1298
56229SOL    HW180666  12.537   6.834   1.937 -0.3621  1.1654  0.9728
56229SOL    HW280667  12.671   6.903   1.923 -0.1986  0.5576 -0.7361
56230SOL     OW80668   0.493   2.605  12.747 -0.1415  0.3321  0.3917
56230SOL    HW180669   0.407   2.626  12.783  0.6923  1.4534  1.8228
56230SOL    HW280670   0.549   2.679  12.773  1.4991 -0.8599  0.4022
56231SOL     OW80671   6.276   5.334   6.256  0.4688 -0.3808  0.1709
56231SOL    HW180672   6.316   5.369   6.335  0.1030 -0.1415  0.2511
56231SOL    HW280673   6.349   5.295   6.207  0.4270 -2.2603  1.5120
56232SOL     OW80674   0.239   1.137   6.910 -0.2668  0.4004  0.1527
56232SOL    HW180675   0.236   1.223   6.951 -2.2891  0.5744 -0.2579
56232SOL    HW280676   0.210   1.077   6.979  0.9730  0.0378  0.3873
56233SOL     OW80677   6.784  13.779  10.128  0.7998  0.6365  0.1190
56233SOL    HW180678   6.848  13.710  10.145  0.7981 -0.0208 -2.1740
56233SOL    HW280679   6.830  13.861  10.148  1.7274  0.0862  0.2888
56234SOL     OW80680   8.214   2.365   4.561  0.0369 -0.1328 -0.2695
56234SOL    HW180681   8.255   2.283   4.586  0.9924  0.7355  1.1690
56234SOL    HW280682   8.277   2.432   4.586 -0.6545  1.0503 -1.5346
56235SOL     OW80683   9.281   5.775   7.924  0.6179 -0.0525 -0.0352
56235SOL    HW180684   9.281   5.679   7.929  0.2386 -0.2026 -1.9947
56235SOL    HW280685   9.368   5.800   7.955 -0.2251 -0.7595  3.2984
56236SOL     OW80686   5.864   7.356  11.308  0.6885 -0.0669 -0.1236
56236SOL    HW180687   5.796   7.307  11.354  0.1115  0.3438 -0.5244
56236SOL    HW280688   5.828   7.444  11.299  0.6470 -0.2075 -1.6318
56237SOL     OW80689   4.621  11.347   2.743 -0.1139  0.1335  0.3976
56237SOL    HW180690   4.552  11.385   2.689 -0.0154 -1.3847 -0.8603
56237SOL    HW280691   4.575  11.291   2.805 -0.0621 -0.9854 -0.5284
56238SOL     OW80692   6.311   3.942   4.194 -0.1917 -0.3324 -0.2227
56238SOL    HW180693   6.358   3.950   4.278 -0.3559 -2.4212  0.1245
56238SOL    HW280694   6.367   3.885   4.141  1.1616  2.8907 -2.5764
56239SOL     OW80695   6.140  12.811   2.268  0.0164 -0.8353  0.2814
56239SOL    HW180696   6.100  12.890   2.306 -0.9511 -1.2514  0.1416
56239SOL    HW280697   6.232  12.834   2.258 -0.3002  0.3773 -0.0072
56240SOL     OW80698   6.372   4.439   5.192 -0.1939  0.1677  0.0163
56240SOL    HW180699   6.346   4.349   5.174 -1.2193  0.3240  0.6557
56240SOL    HW280700   6.306   4.472   5.252  0.3312  1.2623  0.0233
56241SOL     OW80701   4.769   8.090   3.455 -0.0292 -0.3078 -0.5297
56241SOL    HW180702   4.760   8.116   3.547 -0.1993 -0.7028 -0.4325
56241SOL    HW280703   4.795   8.170   3.410 -2.7761  0.6455 -0.6156
56242SOL     OW80704  13.113   7.386  13.961  0.5700 -0.1429 -0.2843
56242SOL    HW180705  13.119   7.474  13.997  1.1436  0.2461 -1.3009
56242SOL    HW280706  13.019   7.374  13.944  0.4493  0.1441  0.1621
56243SOL     OW80707   8.542   7.183  11.825 -0.0240  0.2008 -0.1851
56243SOL    HW180708   8.616   7.229  11.863  0.1178 -0.3652  0.2367
56243SOL    HW280709   8.477   7.179  11.895 -1.3144  2.4766 -1.1316
56244SOL     OW80710   4.680  10.820   1.974 -0.4006 -0.5767 -0.8554
56244SOL    HW180711   4.633  10.738   1.985  0.5469 -1.1752 -1.2069
56244SOL    HW280712   4.767  10.795   1.943 -0.3852  0.5993 -1.8688
56245SOL     OW80713  13.511   5.650  13.985  0.5242 -0.6204  0.1384
56245SOL    HW180714  13.427   5.678  13.949  0.6738 -0.4148 -0.0544
56245SOL    HW280715  13.562   5.624  13.909  0.9758  0.1698  0.1636
56246SOL     OW80716   6.866   6.940  10.970 -0.2248  0.0738 -0.4479
56246SOL    HW180717   6.796   6.894  11.015 -0.6342  1.5448  0.4974
56246SOL    HW280718   6.852   7.032  10.992  0.3898  0.7083 -2.4773
56247SOL     OW80719   2.080   4.824   8.286  0.2869 -0.2120  0.9484
56247SOL    HW180720   2.149   4.779   8.336  0.8153 -1.3546 -0.7322
56247SOL    HW280721   2.096   4.799   8.195 -0.1291  2.4833  0.0569
56248SOL     OW80722   7.077   6.872  11.192  0.2614 -0.1840  0.2381
56248SOL    HW180723   7.031   6.878  11.108  1.2090 -0.1610 -0.2925
56248SOL    HW280724   7.028   6.930  11.250 -1.5054 -1.5802  0.2421
56249SOL     OW80725   4.668   7.638   9.253  0.3737 -0.1515  0.3471
56249SOL    HW180726   4.596   7.657   9.193 -1.6154 -0.5164  2.4681
56249SOL    HW280727   4.747   7.646   9.199 -1.1063  1.8293 -1.7307
56250SOL     OW80728   1.133  11.488   7.879 -0.1300  0.0043 -0.7157
56250SOL    HW180729   1.060  11.449   7.832 -0.7307  0.2833 -0.0247
56250SOL    HW280730   1.133  11.580   7.853 -0.3471  0.1178 -0.3198
56251SOL     OW80731  13.985   8.536   8.372 -0.8836  0.2278 -0.4699
56251SOL    HW180732  13.940   8.566   8.451 -1.3629 -0.2123 -0.5727
56251SOL    HW280733  13.933   8.573   8.300 -0.3943  0.7091 -0.5851
56252SOL     OW80734   9.006  13.856   8.743  0.3063 -0.5053 -0.7539
56252SOL    HW180735   8.971  13.788   8.801  1.3394 -0.9946 -0.6835
56252SOL    HW280736   9.038  13.924   8.802 -0.3632 -0.1247 -0.8146
56253SOL     OW80737   8.239   3.393  13.209 -0.9280  0.2019 -0.2492
56253SOL    HW180738   8.178   3.467  13.213  0.2962  1.3589 -1.5466
56253SOL    HW280739   8.206   3.339  13.137  0.4610  1.7762 -2.1969
56254SOL     OW80740   2.536  12.882   4.254 -0.4986  0.3338  0.4828
56254SOL    HW180741   2.518  12.817   4.321 -1.6407  2.7357  2.6773
56254SOL    HW280742   2.566  12.959   4.302  0.3984  1.6069 -1.9390
56255SOL     OW80743   1.762  13.462   6.242 -0.1350 -0.2743 -0.2819
56255SOL    HW180744   1.714  13.420   6.170  1.5625 -1.1911 -0.9464
56255SOL    HW280745   1.844  13.413   6.248  0.6141  1.0445  0.9805
56256SOL     OW80746   5.293   7.633   9.497 -0.0081 -0.0754 -0.1261
56256SOL    HW180747   5.299   7.569   9.568  1.4580  0.7072  0.4932
56256SOL    HW280748   5.237   7.703   9.532 -2.2895 -1.3175 -1.0951
56257SOL     OW80749   4.176  10.607   4.134 -0.3342 -0.3960 -0.3387
56257SOL    HW180750   4.264  10.595   4.170 -1.5746 -1.1823  2.7165
56257SOL    HW280751   4.164  10.702   4.132 -0.2613 -0.3073  1.6605
56258SOL     OW80752   1.883  13.195  13.006  0.1329  0.2202 -0.1017
56258SOL    HW180753   1.879  13.226  12.915 -1.6764  2.0241  0.5059
56258SOL    HW280754   1.963  13.233  13.041  0.5858 -0.0779 -0.7994
56259SOL     OW80755  13.169  10.056   7.392 -0.3475 -0.2659  0.1716
56259SOL    HW180756  13.164  10.150   7.377 -2.9864 -0.1080  1.2964
56259SOL    HW280757  13.256  10.030   7.362  0.1043  2.3556 -1.0096
56260SOL     OW80758   6.216   8.406   0.819  0.0472  0.0563  0.1498
56260SOL    HW180759   6.256   8.490   0.838 -1.4636  0.4901  1.6392
56260SOL    HW280760   6.126   8.413   0.853 -0.7092 -1.5172 -1.3222
56261SOL     OW80761   1.239   5.982   0.301  0.4640 -0.3163 -0.3955
56261SOL    HW180762   1.201   5.994   0.214 -0.3857 -0.1564 -0.0192
56261SOL    HW280763   1.307   5.916   0.289  0.0776 -0.6004 -1.1041
56262SOL     OW80764   9.934   3.124   9.232 -0.1653 -0.1511 -0.0820
56262SOL    HW180765   9.871   3.121   9.305  1.8840  1.5656  1.9226
56262SOL    HW280766   9.946   3.217   9.215  2.3363 -0.3465  0.1761
56263SOL     OW80767   8.925   9.999  10.824  0.1286  0.7539  0.4938
56263SOL    HW180768   8.895   9.996  10.734  0.4198 -1.6915  0.4050
56263SOL    HW280769   8.862   9.945  10.873  1.3747 -0.1056  1.2359
56264SOL     OW80770   7.010   4.856  10.746  0.0388 -0.5026  0.4312
56264SOL    HW180771   6.958   4.818  10.816  1.0636 -2.0316  0.4003
56264SOL    HW280772   7.066   4.921  10.790 -2.1086  1.4713  0.4037
56265SOL     OW80773   0.183  10.959  11.393 -0.1109 -0.0355 -0.2035
56265SOL    HW180774   0.209  10.909  11.316 -0.5996 -2.0486  0.8723
56265SOL    HW280775   0.265  10.980  11.437  0.0388 -2.4436  0.8160
56266SOL     OW80776   9.258  14.004   5.249  0.0295  0.1681 -0.4600
56266SOL    HW180777   9.265  14.066   5.176 -0.5682  1.5281  0.6101
56266SOL    HW280778   9.168  14.012   5.279 -0.6963 -2.7267 -1.5545
56267SOL     OW80779  11.675   3.481   4.192  0.1530 -0.7930  0.2539
56267SOL    HW180780  11.746   3.467   4.255  0.0297 -0.6152  0.4369
56267SOL    HW280781  11.641   3.394   4.174  2.6069 -1.3546 -2.4617
56268SOL     OW80782   7.788   5.009   2.485 -0.3615 -0.4969 -0.6791
56268SOL    HW180783   7.813   4.982   2.397  1.3534 -0.4635 -0.2467
56268SOL    HW280784   7.820   5.099   2.493  0.6925 -0.9244  0.3769
56269SOL     OW80785   0.710   9.595   1.838 -0.1926 -0.4697  0.6384
56269SOL    HW180786   0.625   9.561   1.865 -0.1776 -0.2157  1.0194
56269SOL    HW280787   0.692   9.645   1.758 -0.7464  1.1653  1.7190
56270SOL     OW80788   8.670   3.643   7.280  0.0573 -0.1662 -0.5195
56270SOL    HW180789   8.611   3.631   7.354  0.3933 -0.6130 -0.3191
56270SOL    HW280790   8.672   3.558   7.236  1.0288 -0.3406 -0.1596
56271SOL     OW80791   2.681   9.073   2.583  0.0621  0.6906 -0.1037
56271SOL    HW180792   2.700   9.014   2.657 -0.5048  0.4346 -0.1580
56271SOL    HW280793   2.723   9.032   2.508  0.3834  0.7936  0.0196
56272SOL     OW80794   6.449   3.009   7.062  0.0273 -0.3746  0.2562
56272SOL    HW180795   6.416   2.960   7.136 -0.9190  0.1050  0.1671
56272SOL    HW280796   6.430   3.101   7.083  1.4496 -0.0579  0.2661
56273SOL     OW80797  12.425   7.989   2.949 -0.3495  0.3021  0.6633
56273SOL    HW180798  12.410   8.050   3.022  1.3876  0.1977  1.1569
56273SOL    HW280799  12.493   8.032   2.896  0.8953 -1.1569  1.0154
56274SOL     OW80800   1.108   4.213   4.116 -0.3837 -0.4265  0.1328
56274SOL    HW180801   1.120   4.242   4.206  1.6288 -1.5732  0.2900
56274SOL    HW280802   1.103   4.294   4.065  3.5213  0.3648  0.7265
56275SOL     OW80803   1.419   3.881   1.111  0.2959  0.4680  0.4796
56275SOL    HW180804   1.492   3.924   1.067  0.1581  0.5417  0.3185
56275SOL    HW280805   1.382   3.948   1.168  0.6963  0.2652  0.9792
56276SOL     OW80806   6.416   7.073   4.310 -0.5241 -0.5437  0.4099
56276SOL    HW180807   6.413   7.118   4.395  0.4706 -0.7175  0.5487
56276SOL    HW280808   6.494   7.109   4.267  0.9824 -2.9311  0.9933
56277SOL     OW80809   2.440   3.455   7.872  0.1210 -0.2957 -0.2168
56277SOL    HW180810   2.520   3.455   7.925  0.3912 -1.0141 -0.6183
56277SOL    HW280811   2.470   3.448   7.782 -0.4093 -1.2377 -0.3369
56278SOL     OW80812   2.744  13.814  10.749  0.2068 -0.2714  0.1941
56278SOL    HW180813   2.727  13.751  10.679  1.0533  0.6975 -0.9154
56278SOL    HW280814   2.666  13.868  10.752  0.5861  0.3479 -0.7414
56279SOL     OW80815  12.079  10.041  11.515  0.2896  0.1975  0.0055
56279SOL    HW180816  12.054   9.978  11.448 -0.5123  1.1151 -0.5787
56279SOL    HW280817  11.996  10.078  11.545  0.5238 -0.9902  2.3377
56280SOL     OW80818  13.275   8.964   9.890  0.0150 -1.0133  0.2892
56280SOL    HW180819  13.259   8.981   9.983  4.3095  0.3548  0.9996
56280SOL    HW280820  13.276   9.051   9.850  0.9308 -1.3638 -0.4769
56281SOL     OW80821   6.780   1.126   3.750  0.1864  0.2563 -0.4368
56281SOL    HW180822   6.707   1.088   3.800  0.9810 -0.3061  0.3299
56281SOL    HW280823   6.853   1.067   3.767  1.4635  2.0891  0.7176
56282SOL     OW80824  10.590   3.573  10.014  0.2365  0.3106 -0.3463
56282SOL    HW180825  10.528   3.519   9.965  1.5804 -0.3037 -1.4308
56282SOL    HW280826  10.650   3.607   9.948  1.2421  0.6402  0.6980
56283SOL     OW80827  10.521  12.779   3.498 -0.3500  0.3195  0.2708
56283SOL    HW180828  10.459  12.760   3.428  0.7206 -0.7908 -0.4102
56283SOL    HW280829  10.474  12.760   3.579 -0.8238 -0.7361 -0.2496
56284SOL     OW80830  14.018   6.603  11.650 -0.4132  0.3803 -0.6781
56284SOL    HW180831  14.078   6.544  11.604 -0.0583 -0.4292  0.7480
56284SOL    HW280832  14.041   6.690  11.619  0.7612 -0.0171 -0.9653
56285SOL     OW80833  12.215   1.548   3.919 -0.1600 -0.2487 -0.2568
56285SOL    HW180834  12.261   1.582   3.842  1.4396 -0.6367  0.4773
56285SOL    HW280835  12.235   1.454   3.918 -0.1472 -0.2577  0.5973
56286SOL     OW80836   2.869   1.117  12.224 -0.2799  0.2910 -0.9299
56286SOL    HW180837   2.822   1.162  12.294  0.4350  0.9057 -0.8416
56286SOL    HW280838   2.961   1.142  12.236  0.0332 -0.6101 -1.3186
56287SOL     OW80839  13.770   5.470   2.855 -0.0020 -0.8399  0.0925
56287SOL    HW180840  13.828   5.396   2.838  0.6599 -0.4374  0.5043
56287SOL    HW280841  13.739   5.456   2.945  0.8271 -0.1891  0.5044
56288SOL     OW80842  12.525  10.449   0.979 -0.1380  0.2603  0.6549
56288SOL    HW180843  12.563  10.464   1.065  0.4143 -0.3119  0.5145
56288SOL    HW280844  12.516  10.354   0.972 -0.8817  0.3414  0.3770
56289SOL     OW80845  13.861  11.836   1.801 -0.7030  0.1811  0.0645
56289SOL    HW180846  13.946  11.875   1.783 -0.5829 -0.8916 -2.1253
56289SOL    HW280847  13.881  11.750   1.837 -0.8621  0.1871  0.1657
56290SOL     OW80848   8.312  10.392  11.990  0.3327  0.3480 -0.6284
56290SOL    HW180849   8.228  10.408  11.949  1.2829  0.3847 -2.6851
56290SOL    HW280850   8.327  10.468  12.046 -2.0891 -0.8201  1.8219
56291SOL     OW80851   2.781   7.861  10.742  0.7831 -0.1335  0.3017
56291SOL    HW180852   2.855   7.846  10.683  1.1603 -0.2928  0.7967
56291SOL    HW280853   2.715   7.798  10.715 -0.5860  2.2276 -2.3687
56292SOL     OW80854   1.468  13.801  12.942 -1.1143  0.2796  0.1808
56292SOL    HW180855   1.386  13.789  12.991 -0.9388 -2.3088 -0.0377
56292SOL    HW280856   1.536  13.775  13.004 -0.4572  1.6633  0.0888
56293SOL     OW80857   4.021   2.247  13.749  0.0628  0.3468  0.5561
56293SOL    HW180858   4.022   2.152  13.739 -0.0189  0.4177 -0.1860
56293SOL    HW280859   3.947   2.265  13.807 -2.2562  0.1809 -2.1589
56294SOL     OW80860  11.699   5.576   8.495 -0.4677  0.6775  0.6732
56294SOL    HW180861  11.782   5.579   8.544  1.4594  1.4970 -2.3620
56294SOL    HW280862  11.644   5.641   8.538  0.9199  1.0146  2.0480
56295SOL     OW80863   1.702  10.403  13.347 -0.2219 -0.2815 -0.2968
56295SOL    HW180864   1.696  10.361  13.432  0.1364  0.4111  0.0799
56295SOL    HW280865   1.763  10.348  13.297  2.2466  1.0701  1.0140
56296SOL     OW80866   0.845  12.439  12.823 -0.0254  0.0645  0.5668
56296SOL    HW180867   0.912  12.396  12.771 -0.3489 -0.6027  0.6906
56296SOL    HW280868   0.857  12.532  12.805  1.1224 -0.0139  0.8115
56297SOL     OW80869   5.208   7.746   0.899 -0.2338  0.2818  0.1456
56297SOL    HW180870   5.131   7.693   0.875 -0.9378  0.2967  2.1676
56297SOL    HW280871   5.280   7.706   0.850 -1.3125 -0.4615 -0.9195
56298SOL     OW80872  10.680  11.724   0.183 -0.0614  0.5688  0.5082
56298SOL    HW180873  10.639  11.641   0.159 -0.3522  0.7501  0.3708
56298SOL    HW280874  10.769  11.718   0.149 -0.3437  0.6597 -0.2561
56299SOL     OW80875  10.075   4.408   9.748  0.4875  0.4234 -0.4462
56299SOL    HW180876  10.124   4.489   9.764  1.4643 -0.0386 -1.0135
56299SOL    HW280877  10.037   4.386   9.833  0.3912  1.3502 -0.2354
56300SOL     OW80878   2.890  10.549  10.060  0.0150 -0.1750 -0.1627
56300SOL    HW180879   2.982  10.575  10.054  1.1447 -3.6581  0.1214
56300SOL    HW280880   2.855  10.562   9.972  1.1538 -0.0346 -0.6030
56301SOL     OW80881  10.574  10.688   9.434  0.2862  0.2410 -0.0920
56301SOL    HW180882  10.586  10.613   9.375 -1.2096  0.1710 -0.3420
56301SOL    HW280883  10.644  10.748   9.409  1.4973 -1.0251  0.0848
56302SOL     OW80884   0.720   1.204   9.953 -0.2091  0.1406 -0.1409
56302SOL    HW180885   0.785   1.191  10.022 -0.5765  0.3547  0.2524
56302SOL    HW280886   0.756   1.159   9.877  0.7358  0.8443 -0.1349
56303SOL     OW80887   4.118   1.652   6.039 -0.1883  0.0812  0.1321
56303SOL    HW180888   4.139   1.686   5.952 -1.2643  0.6744  0.0851
56303SOL    HW280889   4.203   1.627   6.076  0.3148  0.0947 -0.9668
56304SOL     OW80890  13.730   3.578   3.613 -0.1841  0.1323 -0.4926
56304SOL    HW180891  13.824   3.576   3.597 -0.1304  0.0978 -0.1638
56304SOL    HW280892  13.698   3.496   3.575 -0.1505  0.3642 -1.0275
56305SOL     OW80893   3.918  13.386   8.849  0.3298 -0.8308  0.8403
56305SOL    HW180894   3.834  13.403   8.805  0.1774  0.2313  1.4829
56305SOL    HW280895   3.974  13.348   8.782 -0.0252  0.3741 -0.1663
56306SOL     OW80896   2.587   0.102   1.463 -0.0029 -0.1102 -0.1680
56306SOL    HW180897   2.504   0.078   1.423  1.0217 -0.6273 -2.1388
56306SOL    HW280898   2.653   0.056   1.410  1.5599  0.5828  1.0841
56307SOL     OW80899   2.051  10.080   5.376  0.3575  0.2021  0.1929
56307SOL    HW180900   1.986  10.010   5.387  0.8036 -0.0518  1.4769
56307SOL    HW280901   2.125  10.039   5.332  2.0887 -1.2174  3.9602
56308SOL     OW80902   2.000   7.732   2.076 -0.1818  0.0079  0.3848
56308SOL    HW180903   1.981   7.759   2.166 -0.5710  0.4201  0.1881
56308SOL    HW280904   1.975   7.808   2.023 -0.0242 -0.2584 -0.0770
56309SOL     OW80905  11.453   0.110   8.531  0.5589  0.5524 -0.2700
56309SOL    HW180906  11.396   0.089   8.457  1.0042 -0.4326 -0.3573
56309SOL    HW280907  11.498   0.028   8.550  2.2188  1.3861 -0.4459
56310SOL     OW80908   0.268   6.358   1.690  0.1039  0.3437  0.6022
56310SOL    HW180909   0.313   6.363   1.606 -0.8679  0.3484  0.0659
56310SOL    HW280910   0.338   6.363   1.755  0.8285  0.8933 -0.1929
56311SOL     OW80911   1.642   3.864   7.458  0.8553  0.1874 -0.2558
56311SOL    HW180912   1.714   3.868   7.521 -0.3419 -0.7775  1.2370
56311SOL    HW280913   1.665   3.789   7.402  1.3039  0.2492 -0.1618
56312SOL     OW80914   2.944   7.276   6.674 -0.6019 -0.0063 -0.4849
56312SOL    HW180915   2.969   7.328   6.751 -0.4821  0.7881 -1.0442
56312SOL    HW280916   2.999   7.198   6.679 -0.5285  0.0846  0.1884
56313SOL     OW80917   0.207   9.566   1.712 -0.6608 -0.2285  0.6073
56313SOL    HW180918   0.153   9.488   1.697  0.3783 -0.6317 -1.4755
56313SOL    HW280919   0.205   9.613   1.628  1.2153  0.3502  0.8327
56314SOL     OW80920  11.371   1.127   5.700 -0.1165 -0.3554  0.1619
56314SOL    HW180921  11.444   1.083   5.657 -0.2301 -0.0205 -0.3948
56314SOL    HW280922  11.334   1.184   5.632  1.2684  2.1469  1.3459
56315SOL     OW80923   3.365   7.746  10.771  0.1915  0.4276 -0.0847
56315SOL    HW180924   3.357   7.686  10.845  2.2383 -0.8149 -0.7693
56315SOL    HW280925   3.457   7.772  10.771  0.8822 -1.3900 -3.4150
56316SOL     OW80926  11.407   4.215   1.264 -0.4504 -0.4258  0.2292
56316SOL    HW180927  11.415   4.280   1.194  0.5404  0.6512  1.2787
56316SOL    HW280928  11.430   4.132   1.223 -2.9319 -0.3669 -1.4495
56317SOL     OW80929   7.941   0.086   1.532 -0.4083  0.3035 -0.0303
56317SOL    HW180930   7.952   0.014   1.594 -1.3903 -0.5065 -0.7564
56317SOL    HW280931   7.960   0.047   1.447  3.1402  1.9262 -0.1314
56318SOL     OW80932   3.436   5.642   2.884  0.3564 -0.0166 -0.9117
56318SOL    HW180933   3.388   5.630   2.966 -0.4533 -0.3167 -1.4157
56318SOL    HW280934   3.491   5.719   2.900  4.1323 -2.8748  1.7009
56319SOL     OW80935   5.948   6.467  13.704  0.5935  0.5137 -0.2689
56319SOL    HW180936   5.951   6.373  13.723  0.5151  0.4867 -0.3886
56319SOL    HW280937   5.959   6.509  13.789 -0.0888  0.3921 -0.1145
56320SOL     OW80938   2.299   0.113   2.077 -0.0349 -0.4694  0.5985
56320SOL    HW180939   2.327   0.189   2.026 -0.1988 -0.2706  0.8038
56320SOL    HW280940   2.328   0.132   2.166 -0.4573 -0.4500  0.7326
56321SOL     OW80941  12.464   8.101   6.216  0.2117  0.1575  0.0202
56321SOL    HW180942  12.541   8.044   6.220 -0.5200 -0.9372 -0.9613
56321SOL    HW280943  12.443   8.108   6.123 -1.4355 -0.3813  0.3053
56322SOL     OW80944   7.307  11.582  12.023 -0.9738 -0.5380 -0.6733
56322SOL    HW180945   7.322  11.647  12.091  0.4268 -1.3303 -0.1925
56322SOL    HW280946   7.281  11.633  11.946 -0.0379  0.5766 -0.2774
56323SOL     OW80947   7.614   1.370   2.827  0.2361 -0.1228  0.0375
56323SOL    HW180948   7.580   1.326   2.904 -3.3882 -0.5924 -1.6069
56323SOL    HW280949   7.616   1.463   2.850 -1.6805 -0.1610  0.4731
56324SOL     OW80950   3.823  13.050   4.518 -0.3692 -0.4150  0.0494
56324SOL    HW180951   3.815  13.145   4.526 -2.6895 -0.4944 -0.6306
56324SOL    HW280952   3.845  13.020   4.607 -1.1191  0.6460  0.6159
56325SOL     OW80953   1.292   4.403   8.465 -0.3462  0.3041 -0.1467
56325SOL    HW180954   1.368   4.459   8.446 -0.3518  0.4085  0.1389
56325SOL    HW280955   1.280   4.352   8.385 -0.3168  0.6821 -0.3940
56326SOL     OW80956   2.794  10.312   5.393 -0.2633 -0.5794  0.6621
56326SOL    HW180957   2.861  10.294   5.327 -0.6559 -0.4878  0.2352
56326SOL    HW280958   2.787  10.231   5.442 -0.7804 -1.0277 -0.1353
56327SOL     OW80959   0.932   0.979  13.822 -0.5602  0.2674  0.7401
56327SOL    HW180960   1.018   0.964  13.862 -1.2949 -0.7642  2.0480
56327SOL    HW280961   0.937   0.937  13.736 -0.2706 -1.3422  1.4956
56328SOL     OW80962   4.854  13.995   1.164 -0.2777  0.1032  0.5100
56328SOL    HW180963   4.813  13.963   1.084 -0.5977 -0.0020  0.7099
56328SOL    HW280964   4.823  13.934   1.232 -2.2232  1.7171  1.1898
56329SOL     OW80965   8.151   9.221   9.015  0.0980 -0.0185 -0.1480
56329SOL    HW180966   8.235   9.239   8.971  0.1217 -0.2492 -0.1975
56329SOL    HW280967   8.163   9.256   9.103 -0.6958  2.4134 -0.9365
56330SOL     OW80968   5.268   6.375   9.783 -0.1163 -0.4994  0.4816
56330SOL    HW180969   5.177   6.381   9.813  0.2596  2.0604  1.3988
56330SOL    HW280970   5.321   6.377   9.862  0.7649  0.3293 -0.0935
56331SOL     OW80971   2.994  13.259  10.168 -0.4599  0.0444 -0.0993
56331SOL    HW180972   2.939  13.202  10.222 -0.2104  0.1781  0.2981
56331SOL    HW280973   3.053  13.200  10.122  0.3252  0.0326  0.9118
56332SOL     OW80974   4.387  13.457   0.017  0.5061  0.2124  0.0990
56332SOL    HW180975   4.345  13.473   0.101  0.3745 -0.6941  0.2189
56332SOL    HW280976   4.445  13.532   0.004  0.4848  0.3877  0.9708
56333SOL     OW80977   8.583  10.950   6.719  0.5059 -0.3294 -0.0517
56333SOL    HW180978   8.605  10.874   6.772  0.7738  0.7724  1.4913
56333SOL    HW280979   8.635  11.021   6.757 -0.9243  0.9663 -0.4039
56334SOL     OW80980  13.992   7.742   9.193  0.0845 -0.1910 -0.2599
56334SOL    HW180981  13.943   7.823   9.196 -0.4634 -0.4211 -2.0210
56334SOL    HW280982  14.074   7.765   9.150 -0.2344 -0.6350 -1.1208
56335SOL     OW80983   9.634   4.587  10.869  0.4701  0.3211 -0.3063
56335SOL    HW180984   9.561   4.559  10.924  0.0883 -0.7472 -1.3184
56335SOL    HW280985   9.601   4.581  10.779  2.1439 -1.3795 -0.8870
56336SOL     OW80986   8.669  13.049   8.450  0.2261  0.1409  0.5639
56336SOL    HW180987   8.613  13.051   8.528 -0.4003  1.3429  0.1104
56336SOL    HW280988   8.728  13.124   8.461  0.3021  0.1675  0.0120
56337SOL     OW80989  11.438  12.205   0.562  0.2730  0.4683 -0.1454
56337SOL    HW180990  11.376  12.177   0.629 -0.3202  1.1933 -0.3748
56337SOL    HW280991  11.401  12.286   0.527  0.2941 -0.1585 -1.7207
56338SOL     OW80992   2.118   5.343   2.055  0.4945  0.2035 -0.0259
56338SOL    HW180993   2.172   5.291   2.115  1.0779 -0.6200 -1.2263
56338SOL    HW280994   2.163   5.428   2.049  0.9653 -0.0420 -0.0325
56339SOL     OW80995   3.300  12.494   0.861  0.0102  0.1216 -0.2361
56339SOL    HW180996   3.237  12.463   0.796  0.8662  0.4281 -1.2468
56339SOL    HW280997   3.379  12.443   0.844  0.6986  1.2110 -0.3891
56340SOL     OW80998   0.993  10.394   1.122  0.0271 -0.1711  0.4892
56340SOL    HW180999   1.082  10.401   1.156  0.0883  2.0198 -0.0002
56340SOL    HW281000   0.940  10.450   1.179 -0.6205  0.3130 -0.5535
56341SOL     OW81001   5.544   0.240  11.602 -0.0204 -0.2868 -0.1961
56341SOL    HW181002   5.591   0.198  11.675  0.3177 -1.1458 -0.8972
56341SOL    HW281003   5.461   0.192  11.597 -0.1614 -0.0419 -0.1991
56342SOL     OW81004  11.399  11.534  11.395  0.3114  0.1227 -0.4751
56342SOL    HW181005  11.339  11.594  11.439 -0.4863 -0.7913 -0.2728
56342SOL    HW281006  11.462  11.591  11.350 -0.2084  1.0927 -0.0087
56343SOL     OW81007   4.604   5.866  10.078 -0.0520 -0.1395 -0.2260
56343SOL    HW181008   4.656   5.809  10.135 -0.1561  0.1557  0.1635
56343SOL    HW281009   4.562   5.806  10.017 -0.2367 -0.4898  0.2430
56344SOL     OW81010   4.501   3.442   0.055  0.0391  0.4218 -0.2327
56344SOL    HW181011   4.532   3.473  -0.031  0.0352 -0.1527 -0.4469
56344SOL    HW281012   4.579   3.403   0.095 -0.3224 -0.8155 -0.6749
56345SOL     OW81013   9.183   6.672   7.013 -0.4122  0.2594 -0.0381
56345SOL    HW181014   9.272   6.690   7.043 -0.0942 -1.1763 -0.0505
56345SOL    HW281015   9.174   6.721   6.931 -0.4747  2.2995  1.1230
56346SOL     OW81016   3.240   3.657   2.409  0.4903  0.0310  0.0743
56346SOL    HW181017   3.216   3.716   2.338  1.6317  0.1017 -0.2761
56346SOL    HW281018   3.271   3.578   2.366  0.1329 -0.3610  0.5207
56347SOL     OW81019   7.957   6.765   1.298 -0.6726  0.2188  0.6500
56347SOL    HW181020   7.997   6.841   1.340 -0.1418 -0.8457  2.1620
56347SOL    HW281021   7.958   6.697   1.365 -0.6272 -1.3059 -0.8174
56348SOL     OW81022   0.410  13.363   0.507 -1.0492 -0.3316  0.1537
56348SOL    HW181023   0.370  13.411   0.435  0.1728  1.1739  0.4205
56348SOL    HW281024   0.504  13.381   0.499 -0.9269  0.4594  2.4843
56349SOL     OW81025   2.105   2.895   4.294  0.0580 -0.0826  0.2850
56349SOL    HW181026   2.082   2.988   4.302  3.6870  0.9540  0.3498
56349SOL    HW281027   2.114   2.881   4.200 -0.9882 -0.5705  0.2400
56350SOL     OW81028   4.361  13.251  12.666  0.2250 -0.2231 -0.0187
56350SOL    HW181029   4.277  13.277  12.704  0.3570  0.4866 -0.1950
56350SOL    HW281030   4.339  13.185  12.601 -0.3409  0.9039 -0.9990
56351SOL     OW81031   0.133   1.103   0.593 -0.8600  0.1244  0.1009
56351SOL    HW181032   0.158   1.112   0.501  0.1432  1.9960  0.5045
56351SOL    HW281033   0.067   1.170   0.608 -0.9579 -0.1039  0.7624
56352SOL     OW81034  12.011   9.970  13.928 -0.0340  0.2743 -0.1213
56352SOL    HW181035  11.961   9.891  13.908  0.2770  0.4577 -1.8329
56352SOL    HW281036  12.103   9.941  13.925  0.0961  0.7532 -1.1196
56353SOL     OW81037  13.899   1.788   2.112  0.1868  0.5133  0.1672
56353SOL    HW181038  13.835   1.730   2.154 -1.1579 -0.0560 -2.4800
56353SOL    HW281039  13.874   1.876   2.140 -2.0431  0.3339 -1.0579
56354SOL     OW81040  11.379   4.229   5.830 -0.1897 -0.8708  0.1692
56354SOL    HW181041  11.340   4.167   5.890  2.1903 -0.0237  2.7989
56354SOL    HW281042  11.454   4.183   5.792  0.3597 -0.2983  0.5337
56355SOL     OW81043   0.210   2.856   9.710  0.2382 -0.4377  0.3847
56355SOL    HW181044   0.252   2.892   9.788  0.3136 -1.5343  0.8637
56355SOL    HW281045   0.213   2.927   9.646  0.4738  0.3596  1.2718
56356SOL     OW81046   2.685   9.379  11.693  0.5918 -0.0972 -0.4755
56356SOL    HW181047   2.605   9.345  11.654  0.7279  0.6425 -1.4246
56356SOL    HW281048   2.703   9.460  11.645 -0.2308  1.8948  2.3068
56357SOL     OW81049   0.698  10.267   0.442  0.3966 -0.0452  0.2915
56357SOL    HW181050   0.714  10.309   0.526  1.6092 -0.1926  0.1478
56357SOL    HW281051   0.728  10.177   0.453  2.6170  0.4870 -0.9098
56358SOL     OW81052   5.916   6.430   2.252 -0.0533  0.0896  0.0845
56358SOL    HW181053   5.895   6.488   2.326 -1.1765 -0.2966  0.0980
56358SOL    HW281054   5.902   6.484   2.174 -0.8035 -0.0622  0.1060
56359SOL     OW81055  11.608  11.579   9.877 -0.0156 -0.1679 -0.7369
56359SOL    HW181056  11.587  11.593   9.784  2.1675 -1.5755 -1.5000
56359SOL    HW281057  11.561  11.499   9.900 -1.6331  0.8865 -0.1883
56360SOL     OW81058   3.362   0.671   8.085 -0.2913  0.1684 -0.4199
56360SOL    HW181059   3.286   0.646   8.032  0.3796  1.6408 -2.1966
56360SOL    HW281060   3.356   0.767   8.091  0.3873  0.1387  1.0856
56361SOL     OW81061   7.935   9.615   7.449 -0.4403 -0.3067  0.2131
56361SOL    HW181062   7.919   9.564   7.370 -2.1483  2.0552 -1.0699
56361SOL    HW281063   7.848   9.631   7.485  0.1071  1.0442  0.9951
56362SOL     OW81064  13.181   6.830   8.693 -0.3632 -0.4238  0.0903
56362SOL    HW181065  13.123   6.765   8.733 -0.8263 -0.2789 -0.3273
56362SOL    HW281066  13.157   6.913   8.734 -0.2213 -0.4152  0.1567
56363SOL     OW81067  12.966  10.779   6.393  0.0308 -0.1784 -0.0223
56363SOL    HW181068  13.014  10.793   6.312  0.2820  0.5040  0.2343
56363SOL    HW281069  12.978  10.686   6.413  1.1558 -0.0458 -0.0249
56364SOL     OW81070   4.694   2.201  11.185 -0.3270  0.3444  0.5866
56364SOL    HW181071   4.617   2.240  11.226  0.0590  0.6276  1.0500
56364SOL    HW281072   4.768   2.237  11.233  0.0963  0.0195  0.1914
56365SOL     OW81073  13.633   0.923  13.077 -0.6544 -0.0202  1.0494
56365SOL    HW181074  13.593   0.870  13.146 -2.1453  1.0985  1.0756
56365SOL    HW281075  13.561   0.975  13.042  0.2871  0.1760 -0.6730
56366SOL     OW81076   4.878   3.296   3.680 -1.1406  0.0571 -0.2271
56366SOL    HW181077   4.842   3.234   3.742 -2.5497  0.4358 -0.6257
56366SOL    HW281078   4.852   3.382   3.714 -0.6155  0.3418 -0.5362
56367SOL     OW81079   8.698   0.970   3.523  0.3311 -0.2363  0.3365
56367SOL    HW181080   8.681   1.033   3.594 -0.5882 -0.9455  0.7712
56367SOL    HW281081   8.727   1.024   3.450 -1.4690  0.8376  0.3466
56368SOL     OW81082   2.017   8.067  11.071 -0.0427 -0.0589  0.2195
56368SOL    HW181083   1.923   8.082  11.083  0.4389  1.1248  3.5218
56368SOL    HW281084   2.032   7.979  11.105  0.1220 -0.1227 -0.0085
56369SOL     OW81085   8.548   2.157  11.999 -0.1242  0.0995  0.1940
56369SOL    HW181086   8.582   2.070  11.976 -0.0138  0.3346 -0.5549
56369SOL    HW281087   8.604   2.186  12.071 -0.0101 -0.3464  0.2896
56370SOL     OW81088   8.441  11.579   0.196  0.3177  0.2629  0.2454
56370SOL    HW181089   8.357  11.625   0.194  0.9584  1.5427  0.9623
56370SOL    HW281090   8.424  11.499   0.245 -1.1354 -0.9920 -2.1486
56371SOL     OW81091   3.938   5.606   0.398  0.0001  0.2418  0.3261
56371SOL    HW181092   3.880   5.591   0.324  0.1102  0.3048  0.2269
56371SOL    HW281093   3.883   5.651   0.463 -1.3774 -3.5155  2.0502
56372SOL     OW81094   5.630  13.518   4.206  0.0958  0.4610 -0.2336
56372SOL    HW181095   5.566  13.536   4.274  0.9621 -3.3326  1.9140
56372SOL    HW281096   5.611  13.428   4.179  2.8313  0.1261 -1.4164
56373SOL     OW81097   8.935   5.499  11.704 -0.1450 -0.0151  0.0092
56373SOL    HW181098   8.968   5.465  11.787  0.5928 -0.4551 -0.4457
56373SOL    HW281099   8.850   5.457  11.693 -0.4962  0.4591  0.7851
56374SOL     OW81100  10.934   9.328   5.724 -0.0300 -0.2287 -0.0294
56374SOL    HW181101  11.013   9.275   5.708  0.5086 -0.1789  2.0716
56374SOL    HW281102  10.962   9.418   5.708  0.9423 -0.0260  2.3937
56375SOL     OW81103   8.671   9.055   7.706 -0.3989  0.0523 -0.3957
56375SOL    HW181104   8.720   9.026   7.629 -1.5656  0.9578 -1.5277
56375SOL    HW281105   8.680   9.150   7.705 -1.6679  0.1871 -0.2890
56376SOL     OW81106  14.021   2.409   6.449 -0.1287 -0.0315 -0.5746
56376SOL    HW181107  14.065   2.462   6.382  0.9763 -0.3515 -0.1241
56376SOL    HW281108  13.934   2.392   6.413 -0.7187  2.4875 -0.5334
56377SOL     OW81109   5.885   6.312  11.583 -0.0528 -0.0272  0.0506
56377SOL    HW181110   5.883   6.402  11.616 -0.9885  0.0140 -0.0984
56377SOL    HW281111   5.975   6.283  11.598 -0.4756 -0.1591  2.9974
56378SOL     OW81112   0.527  11.391   1.770 -0.1406  0.1897 -0.3190
56378SOL    HW181113   0.525  11.335   1.848  2.3584  0.2045 -0.1467
56378SOL    HW281114   0.469  11.464   1.791  0.7376  0.3700  1.7245
56379SOL     OW81115  11.575  11.564   3.696  0.2870  0.4383  0.0907
56379SOL    HW181116  11.499  11.542   3.643  0.5947  1.2805 -0.7336
56379SOL    HW281117  11.588  11.488   3.753  1.8580 -2.0555 -3.2206
56380SOL     OW81118   7.867  10.716   2.513 -0.4168  0.0320  0.0527
56380SOL    HW181119   7.853  10.657   2.587 -1.0277  0.5718  0.3732
56380SOL    HW281120   7.814  10.679   2.443  0.2503 -0.5431 -0.1595
56381SOL     OW81121   7.387  11.681   5.204 -0.0500  0.5456 -0.3879
56381SOL    HW181122   7.355  11.610   5.148  1.6177 -0.8003  0.2555
56381SOL    HW281123   7.458  11.721   5.154 -1.3963  2.2685 -1.0261
56382SOL     OW81124   7.042   3.230  10.623  0.5177 -0.5046  0.3873
56382SOL    HW181125   7.125   3.267  10.593  1.4090 -1.0687  2.0659
56382SOL    HW281126   7.032   3.264  10.712 -1.0797 -0.4393  0.2108
56383SOL     OW81127   2.311   8.720  12.593  0.2697 -0.8742 -0.2447
56383SOL    HW181128   2.378   8.718  12.525  0.6234 -0.0231  0.0797
56383SOL    HW281129   2.239   8.668  12.556  0.6872 -0.9153 -1.0236
56384SOL     OW81130   9.745   8.554  12.330 -0.0578  0.0635  0.0049
56384SOL    HW181131   9.784   8.639  12.354 -0.9157  0.6935 -0.7789
56384SOL    HW281132   9.799   8.490  12.376  0.2290  1.0624  1.1247
56385SOL     OW81133   8.240  13.811   2.093  0.2245  0.2010 -0.9276
56385SOL    HW181134   8.234  13.718   2.116  0.9344  0.4813  0.5134
56385SOL    HW281135   8.216  13.814   2.001  1.8890 -1.6519 -1.4909
56386SOL     OW81136  13.382  12.283  10.083  0.0571 -0.5545 -0.0256
56386SOL    HW181137  13.310  12.238  10.127  1.8062 -1.4888  2.0440
56386SOL    HW281138  13.436  12.213  10.046  0.7240  0.0229 -0.1741
56387SOL     OW81139   9.216   3.009   6.977  0.3126 -0.0436  0.2057
56387SOL    HW181140   9.190   2.968   7.060 -0.0291  0.6957  0.4694
56387SOL    HW281141   9.157   2.971   6.912 -1.3404  1.4367  0.7554
56388SOL     OW81142  12.066   1.627  13.448 -0.0607 -0.3686  0.1553
56388SOL    HW181143  12.160   1.611  13.446  0.2877  1.5371 -1.5286
56388SOL    HW281144  12.051   1.691  13.379 -2.7451 -1.3061 -0.2492
56389SOL     OW81145  13.254   1.881   7.379 -0.0361  0.0838 -0.7460
56389SOL    HW181146  13.174   1.873   7.327 -1.9585  1.5060  1.7581
56389SOL    HW281147  13.263   1.796   7.423 -0.6867  0.2194 -0.3485
56390SOL     OW81148   8.358   4.740   2.754  0.2664  0.1571  0.7390
56390SOL    HW181149   8.413   4.811   2.788  0.5592 -0.3182  1.2778
56390SOL    HW281150   8.377   4.666   2.812  2.6491 -1.4566 -1.8467
56391SOL     OW81151   4.799   5.002  12.847  0.2657  0.3145 -0.5542
56391SOL    HW181152   4.821   4.963  12.932 -0.1993  2.3483  0.5887
56391SOL    HW281153   4.762   4.930  12.795 -2.0889 -0.4705  1.9615
56392SOL     OW81154   9.550   3.023  11.778 -0.4851  0.2065  0.0982
56392SOL    HW181155   9.626   2.974  11.745 -0.2223  0.3618  0.4676
56392SOL    HW281156   9.475   2.983  11.734 -0.0707  1.0205 -1.4272
56393SOL     OW81157   1.954   5.317  12.847  0.0255 -0.4603 -0.4581
56393SOL    HW181158   1.888   5.249  12.829 -0.1243  0.0480 -2.0225
56393SOL    HW281159   1.993   5.335  12.761  0.3436  1.1390 -0.0097
56394SOL     OW81160   9.572   5.098  11.650  0.4788  0.6321 -0.1569
56394SOL    HW181161   9.576   5.161  11.578 -0.2347  1.1333  0.2264
56394SOL    HW281162   9.660   5.061  11.655  0.3399 -0.0057 -1.8162
56395SOL     OW81163  10.104  12.563   4.790 -0.4479  0.1829 -0.4313
56395SOL    HW181164  10.193  12.577   4.759 -0.5547  0.9300 -0.4118
56395SOL    HW281165  10.107  12.478   4.835  0.0607 -0.1801 -1.1248
56396SOL     OW81166   6.859   6.368  12.312 -0.0408  0.5321  0.5654
56396SOL    HW181167   6.878   6.320  12.393 -1.6650 -0.5491  0.3502
56396SOL    HW281168   6.765   6.386  12.317 -0.0861  0.7577 -0.9104
56397SOL     OW81169   9.327   3.055   6.576  0.1202  0.1830 -0.1351
56397SOL    HW181170   9.330   3.029   6.483  1.8625  2.1039 -0.6866
56397SOL    HW281171   9.405   3.015   6.615 -1.0163 -1.2621  0.7314
56398SOL     OW81172   7.198   7.555   3.566 -0.2398  0.0148 -0.0793
56398SOL    HW181173   7.264   7.617   3.532 -0.7890  0.1894 -0.8637
56398SOL    HW281174   7.238   7.469   3.553 -1.0269 -0.0494 -2.6988
56399SOL     OW81175   2.633  10.829   7.821 -0.0146  0.0392 -0.0440
56399SOL    HW181176   2.699  10.781   7.871  0.5772  0.6638 -0.2123
56399SOL    HW281177   2.588  10.762   7.770 -1.5079 -0.8094  2.2422
56400SOL     OW81178   4.926   4.339   0.456  1.0072 -0.3413  0.2826
56400SOL    HW181179   4.980   4.411   0.424 -0.2844  0.4551 -0.1421
56400SOL    HW281180   4.882   4.305   0.378 -1.9170  1.3969  1.0222
56401SOL     OW81181   5.522  14.040  13.440 -0.0071  0.1021  0.0216
56401SOL    HW181182   5.605  14.044  13.488  0.8766  1.3778 -1.5318
56401SOL    HW281183   5.541  13.986  13.364 -0.7605 -0.0141 -0.0951
56402SOL     OW81184   7.457   7.956  10.470 -0.4679  0.0649  0.1294
56402SOL    HW181185   7.539   7.949  10.519 -0.1535 -0.5127 -0.4543
56402SOL    HW281186   7.411   7.874  10.488 -1.0378  0.4941  0.6553
56403SOL     OW81187   8.174  13.276  13.234  0.0973 -0.1546  0.2127
56403SOL    HW181188   8.134  13.294  13.319  3.0364  1.3304  1.4069
56403SOL    HW281189   8.178  13.361  13.190  0.9963 -0.4355 -0.2810
56404SOL     OW81190   5.623   8.843   1.026 -0.3131  0.1612  0.5456
56404SOL    HW181191   5.595   8.755   1.003 -1.6480  0.4850  0.8499
56404SOL    HW281192   5.567   8.868   1.099 -0.1615  1.3737  0.2689
56405SOL     OW81193   4.856   7.666  12.588 -0.7652  0.2551  0.2065
56405SOL    HW181194   4.799   7.617  12.528 -1.7529  0.6665  0.7806
56405SOL    HW281195   4.909   7.600  12.631 -2.2467 -0.3699  1.1471
56406SOL     OW81196   0.511  10.526  13.500  0.1150 -0.1375 -0.2963
56406SOL    HW181197   0.540  10.600  13.555  2.6984 -1.1249 -0.1626
56406SOL    HW281198   0.462  10.470  13.560 -2.4644  1.6795 -0.5474
56407SOL     OW81199   1.251   7.600  13.371 -0.4971 -0.3092 -0.1620
56407SOL    HW181200   1.164   7.570  13.343 -0.3328 -0.7461 -0.2134
56407SOL    HW281201   1.312   7.539  13.329 -0.0893  0.7405 -1.1665
56408SOL     OW81202   0.523   2.912   8.648 -0.2971  0.1354  0.2235
56408SOL    HW181203   0.597   2.915   8.709  1.4474  0.4330 -1.7589
56408SOL    HW281204   0.495   3.003   8.640 -0.4544  0.1109  0.4965
56409SOL     OW81205   2.317   9.490   2.519 -0.4294  0.8690 -0.1476
56409SOL    HW181206   2.296   9.407   2.475  0.2307  0.1271  0.8933
56409SOL    HW281207   2.262   9.489   2.597 -0.3690  1.3930 -0.0997
56410SOL     OW81208   5.149  11.244   2.131 -0.0810  0.1304 -0.1076
56410SOL    HW181209   5.191  11.194   2.202 -0.7344 -2.2361 -1.2699
56410SOL    HW281210   5.070  11.193   2.111 -1.3697  2.2539 -0.7157
56411SOL     OW81211   5.728   3.741   6.719 -0.3494 -0.2459  0.3155
56411SOL    HW181212   5.821   3.724   6.705 -0.7438 -2.2872 -0.0847
56411SOL    HW281213   5.727   3.818   6.776  1.5707 -0.1680  0.3345
56412SOL     OW81214   9.005   8.040  11.427  0.2779  0.0610 -0.1655
56412SOL    HW181215   9.018   7.980  11.501 -3.8290 -0.9397 -0.0224
56412SOL    HW281216   9.031   8.126  11.461  1.8718 -0.8993  1.1785
56413SOL     OW81217   8.577  12.662   9.572  0.3620  0.1350  0.3191
56413SOL    HW181218   8.669  12.688   9.574  0.5712 -0.3499 -1.2297
56413SOL    HW281219   8.528  12.744   9.565  0.8707  0.3087 -1.8735
56414SOL     OW81220  10.058   0.568   6.502  0.2991 -0.0616  0.0066
56414SOL    HW181221   9.970   0.560   6.539  0.5455 -1.2492  0.3849
56414SOL    HW281222  10.115   0.576   6.579  0.7272 -1.5597 -0.1381
56415SOL     OW81223   4.011   9.377   4.212 -0.3264  0.0634 -0.4854
56415SOL    HW181224   3.995   9.295   4.260  0.4859 -0.4056 -0.9963
56415SOL    HW281225   4.010   9.445   4.280  1.8311 -0.6933  0.4002
56416SOL     OW81226   0.297   8.954  13.357  0.2327 -0.7090 -0.5113
56416SOL    HW181227   0.314   8.907  13.275 -0.9956  1.9222 -2.4257
56416SOL    HW281228   0.299   9.047  13.332 -1.2001  0.1711  2.2399
56417SOL     OW81229  10.863  13.197   1.704 -0.6178 -0.4711 -0.0545
56417SOL    HW181230  10.906  13.131   1.758 -1.1304 -0.2464  0.6382
56417SOL    HW281231  10.918  13.275   1.712 -0.3492 -0.6278 -0.3713
56418SOL     OW81232  13.910   3.995  10.214 -0.7966  0.2460 -0.3434
56418SOL    HW181233  13.910   4.043  10.297 -1.3993  0.4377 -0.4557
56418SOL    HW281234  13.959   4.051  10.154  0.4727 -0.3242  0.1232
56419SOL     OW81235  11.855  13.999   3.671 -0.4566 -0.4720  0.2411
56419SOL    HW181236  11.805  13.917   3.675  0.0570 -0.9290 -1.6672
56419SOL    HW281237  11.818  14.046   3.597  0.8831 -0.0958 -0.2077
56420SOL     OW81238  11.449  11.444  11.670  0.6065  0.4458 -0.0343
56420SOL    HW181239  11.453  11.478  11.581  0.9544 -1.4739 -0.8195
56420SOL    HW281240  11.355  11.428  11.686  0.2848  2.9175  0.8633
56421SOL     OW81241   9.638   5.349   5.444  0.0922  0.2697 -0.2706
56421SOL    HW181242   9.614   5.270   5.493 -0.4813  0.1497 -0.7359
56421SOL    HW281243   9.729   5.334   5.419 -0.5526 -1.1243 -2.0038
56422SOL     OW81244  10.543   4.059   0.243  0.6948 -0.0433 -0.4739
56422SOL    HW181245  10.606   4.123   0.275  0.8913 -0.1309 -0.6850
56422SOL    HW281246  10.590   3.976   0.243  0.3575 -0.2403  0.0559
56423SOL     OW81247   3.112   1.360  10.205 -0.5105 -0.0074  0.3157
56423SOL    HW181248   3.111   1.424  10.276 -1.6531 -0.4733  0.7372
56423SOL    HW281249   3.050   1.293  10.232  1.5394 -1.9581  0.4445
56424SOL     OW81250   5.078   8.676   9.917  0.2566  0.5079 -0.0339
56424SOL    HW181251   5.118   8.732   9.850 -1.9849  0.6030 -1.4007
56424SOL    HW281252   5.054   8.736   9.987  1.4863  0.5988  0.3350
56425SOL     OW81253   3.781   9.953   1.388 -0.3001  0.3603  0.2196
56425SOL    HW181254   3.871   9.929   1.409  0.1666  1.6096 -0.2447
56425SOL    HW281255   3.782   9.968   1.294 -1.2315 -0.5344  0.0540
56426SOL     OW81256   5.964   7.576   3.215  0.3143  0.2301  0.1658
56426SOL    HW181257   5.990   7.599   3.125  1.9594 -0.2424  0.4902
56426SOL    HW281258   5.961   7.660   3.261 -0.4065  0.4609 -0.2805
56427SOL     OW81259   4.531   3.467  13.410  0.1735 -0.0950 -0.1740
56427SOL    HW181260   4.437   3.453  13.399  0.2870  0.2629 -1.7855
56427SOL    HW281261   4.556   3.406  13.480 -1.2367 -0.2039  0.2667
56428SOL     OW81262   6.996   5.053   2.945 -0.2065 -0.2120  0.0672
56428SOL    HW181263   6.915   5.066   2.896 -0.0203 -1.7892 -0.7603
56428SOL    HW281264   7.025   5.141   2.968 -1.5482  0.4463 -0.6154
56429SOL     OW81265   9.901   4.386   8.166 -0.5347 -0.6995 -0.5604
56429SOL    HW181266   9.909   4.411   8.258  0.4417  0.9087 -1.0233
56429SOL    HW281267   9.843   4.452   8.128  0.6488 -0.1437 -1.4722
56430SOL     OW81268  12.341   3.301  10.711 -0.5142  0.2892 -0.2312
56430SOL    HW181269  12.360   3.234  10.644  2.4871 -2.5259  3.0193
56430SOL    HW281270  12.296   3.253  10.780  0.3524  1.9813  1.5962
56431SOL     OW81271   7.174  12.543   3.280  0.3457  1.2308 -0.3253
56431SOL    HW181272   7.204  12.634   3.272  0.0587  1.3044 -0.5516
56431SOL    HW281273   7.149  12.518   3.192  1.4258  0.5788 -0.4636
56432SOL     OW81274   6.419   5.309   4.928  0.2104 -0.4198 -0.1192
56432SOL    HW181275   6.374   5.226   4.914 -0.1967 -0.1328 -0.5083
56432SOL    HW281276   6.500   5.302   4.877  0.0338 -0.4532 -0.3897
56433SOL     OW81277   9.324  12.598  12.907  0.1891 -0.1790  0.3233
56433SOL    HW181278   9.262  12.562  12.844 -0.9892  2.6006 -0.2842
56433SOL    HW281279   9.270  12.624  12.982  0.8622  0.6938  0.5281
56434SOL     OW81280   7.506   7.857   3.269  0.3808 -0.4725 -0.2100
56434SOL    HW181281   7.598   7.842   3.290  0.3867 -0.8993 -0.5192
56434SOL    HW281282   7.503   7.856   3.173  0.2115  0.5495 -0.2230
56435SOL     OW81283  13.166  13.342   5.402 -0.5386 -0.7935 -0.1590
56435SOL    HW181284  13.161  13.398   5.480  0.8779 -0.2365 -0.4481
56435SOL    HW281285  13.257  13.348   5.374 -0.9763 -1.1660 -1.7371
56436SOL     OW81286  13.180  12.362   2.071  0.2727  0.8271  0.4586
56436SOL    HW181287  13.264  12.319   2.057  0.6080  1.6281 -0.0402
56436SOL    HW281288  13.138  12.310   2.140  0.4992 -0.5089 -0.3758
56437SOL     OW81289  12.651   9.248   2.933 -0.3086  0.3700 -0.3815
56437SOL    HW181290  12.710   9.275   3.003 -0.3835 -1.6106  0.5159
56437SOL    HW281291  12.564   9.277   2.961 -0.2619  0.0550  0.1000
56438SOL     OW81292  10.381   2.872   4.876  0.4444 -0.1882 -0.3417
56438SOL    HW181293  10.469   2.882   4.840  0.5188 -0.9483 -0.3735
56438SOL    HW281294  10.378   2.782   4.909 -0.4936 -0.3487 -0.8271
56439SOL     OW81295   5.642   7.248   5.445 -0.2986  0.6161 -0.2662
56439SOL    HW181296   5.595   7.327   5.472  1.0222  1.6082 -0.7615
56439SOL    HW281297   5.651   7.198   5.526 -1.1733  0.9507  0.0572
56440SOL     OW81298  11.853   4.094   2.651  0.1466  0.6117 -0.2491
56440SOL    HW181299  11.764   4.069   2.677 -0.1357  1.9710  0.1830
56440SOL    HW281300  11.876   4.033   2.581 -0.5335 -0.7334  0.6588
56441SOL     OW81301   1.926   2.345   9.412 -0.5615 -0.2140 -0.0467
56441SOL    HW181302   1.910   2.332   9.319  0.8585  0.8365 -0.4600
56441SOL    HW281303   1.844   2.381   9.446 -0.7273  0.4348 -1.1097
56442SOL     OW81304  12.290   3.026   0.027 -0.2485  0.5076 -0.3501
56442SOL    HW181305  12.360   3.090   0.039  0.8117 -0.6944  0.1593
56442SOL    HW281306  12.314   2.953   0.084 -1.0627 -0.6277 -1.3983
56443SOL     OW81307   7.029   8.381   7.312  0.2670 -0.1747  0.4208
56443SOL    HW181308   7.112   8.375   7.266  0.5356 -0.4050  0.9363
56443SOL    HW281309   6.967   8.409   7.244  0.8878  0.6615  0.1776
56444SOL     OW81310   5.874   6.043   9.439 -0.6429 -0.2658 -0.2692
56444SOL    HW181311   5.908   6.070   9.524 -0.5918  0.6141 -0.5618
56444SOL    HW281312   5.782   6.070   9.440 -0.9692 -1.3337 -0.0414
56445SOL     OW81313   7.654  14.015  10.798  0.7286 -0.1200  0.1886
56445SOL    HW181314   7.695  14.060  10.872  1.2604  1.4131 -0.9706
56445SOL    HW281315   7.582  13.966  10.837  0.4780  1.2944  1.6423
56446SOL     OW81316  10.364   1.200   5.755  0.1439 -0.0977 -0.2353
56446SOL    HW181317  10.298   1.151   5.805 -1.4067  0.9399 -1.1681
56446SOL    HW281318  10.325   1.287   5.742  1.0727  0.1022 -2.0564
56447SOL     OW81319   3.226   8.076   0.419  0.8617 -0.0628  0.1272
56447SOL    HW181320   3.152   8.137   0.421  1.2843  0.4489  0.6181
56447SOL    HW281321   3.198   8.006   0.360 -0.9403 -1.0595  2.0218
56448SOL     OW81322  13.910   0.318   7.696  0.3783  0.3413  0.4840
56448SOL    HW181323  13.854   0.252   7.738  0.5697  0.2750  0.6389
56448SOL    HW281324  13.865   0.401   7.713  0.1508  0.2555  0.3115
56449SOL     OW81325   9.586  12.837   2.889  1.0274  0.0354  0.1289
56449SOL    HW181326   9.665  12.857   2.839 -0.0738  0.0704 -1.6866
56449SOL    HW281327   9.514  12.859   2.829 -0.3659  0.0916  1.7539
56450SOL     OW81328   1.769  10.364   2.561 -0.1881  0.1461  0.4682
56450SOL    HW181329   1.814  10.284   2.535 -2.5288 -0.9776 -0.4450
56450SOL    HW281330   1.759  10.356   2.656 -0.0058 -0.4281  0.4425
56451SOL     OW81331   1.589   8.362   6.674  0.2180  0.1084  0.0543
56451SOL    HW181332   1.585   8.343   6.767  0.5224  0.3716  0.1203
56451SOL    HW281333   1.672   8.326   6.644 -0.4012 -1.0321 -0.3613
56452SOL     OW81334   5.624  13.293   4.608 -0.1732 -0.2403  0.6005
56452SOL    HW181335   5.576  13.255   4.535 -0.9311 -0.3045  1.1240
56452SOL    HW281336   5.708  13.247   4.607 -0.3127 -0.4961 -0.0076
56453SOL     OW81337  12.316  13.589   0.853  0.1950 -0.1286 -0.5074
56453SOL    HW181338  12.321  13.529   0.927  0.9757  1.0986  0.4685
56453SOL    HW281339  12.331  13.534   0.776 -1.2385 -1.5422  0.1562
56454SOL     OW81340   6.472   9.803  10.562 -0.0872  0.0849  0.2955
56454SOL    HW181341   6.547   9.750  10.538 -0.7009 -1.7201  2.0944
56454SOL    HW281342   6.469   9.873  10.496  2.1426 -0.7523 -0.7624
56455SOL     OW81343   1.213   8.144   9.088  0.3161 -0.3988 -0.8274
56455SOL    HW181344   1.299   8.174   9.119 -0.6626  1.0695  0.5796
56455SOL    HW281345   1.221   8.145   8.992  1.5945  0.5499 -0.7449
56456SOL     OW81346  10.510   0.476   9.078 -0.0067  0.3803  0.0358
56456SOL    HW181347  10.432   0.429   9.048  1.4317 -1.1927 -1.4716
56456SOL    HW281348  10.537   0.430   9.157  0.4936 -0.4045 -0.5652
56457SOL     OW81349   2.930  12.305   6.949 -0.4241 -0.0932  0.1600
56457SOL    HW181350   2.989  12.291   6.875 -0.4134  1.0863 -0.0710
56457SOL    HW281351   2.911  12.217   6.981  3.2200 -0.5001  1.6647
56458SOL     OW81352   6.042   9.111   4.393 -0.2582  0.5499 -0.2429
56458SOL    HW181353   5.951   9.139   4.396 -0.2978  0.3464  1.1869
56458SOL    HW281354   6.091   9.183   4.434  0.1838  0.5330 -0.7369
56459SOL     OW81355  12.784   6.303   8.450 -0.7084  0.2768 -0.1621
56459SOL    HW181356  12.786   6.353   8.368  0.3590  0.7081  0.1034
56459SOL    HW281357  12.696   6.266   8.453 -1.3777  1.7290 -0.6130
56460SOL     OW81358   6.100   6.680  11.685  0.4895  0.2450  0.6805
56460SOL    HW181359   6.006   6.669  11.672  0.8049 -1.0319 -0.7084
56460SOL    HW281360   6.108   6.766  11.727 -1.1637  1.3598 -1.1181
56461SOL     OW81361   5.120   1.537  12.317 -0.5287  0.0668  0.2241
56461SOL    HW181362   5.089   1.459  12.270 -1.9248  0.5608  0.2827
56461SOL    HW281363   5.107   1.516  12.409 -1.2355  0.4949  0.2261
56462SOL     OW81364   8.764  11.337  12.545 -0.1513 -0.0271 -0.9335
56462SOL    HW181365   8.671  11.347  12.569 -0.3781 -3.1649 -0.0798
56462SOL    HW281366   8.779  11.243  12.547  3.4227  0.4209  0.3009
56463SOL     OW81367  13.300   1.997  12.736  0.3184 -0.0061 -0.4340
56463SOL    HW181368  13.211   1.964  12.748  0.4544 -0.0991  0.4136
56463SOL    HW281369  13.345   1.928  12.688  0.0699 -0.1845 -0.4141
56464SOL     OW81370  13.757   1.387   0.701  0.1352 -0.1836 -0.5561
56464SOL    HW181371  13.677   1.335   0.707 -0.0898  0.0639 -1.3133
56464SOL    HW281372  13.790   1.390   0.791  0.2537 -1.7808 -0.5109
56465SOL     OW81373   1.608   3.761  10.826  0.1085 -0.0406  0.4907
56465SOL    HW181374   1.701   3.746  10.807  0.6544 -0.1232  2.9477
56465SOL    HW281375   1.584   3.833  10.768  1.8459  0.3085  0.1342
56466SOL     OW81376   0.741   9.367  12.800 -0.3528  0.3022  0.1510
56466SOL    HW181377   0.818   9.396  12.848 -1.1939  0.6430  1.3563
56466SOL    HW281378   0.773   9.344  12.713  1.0749  0.5261  0.6023
56467SOL     OW81379   9.931   7.693  10.915  0.1654 -0.0383 -0.2090
56467SOL    HW181380   9.988   7.659  10.846  0.0070 -0.1259 -0.2976
56467SOL    HW281381   9.965   7.780  10.933  0.2266 -0.0266 -0.3774
56468SOL     OW81382   4.197   3.338  11.484 -0.1183 -0.0184  0.2671
56468SOL    HW181383   4.232   3.272  11.424 -0.2063  1.8561 -1.9816
56468SOL    HW281384   4.274   3.387  11.513 -0.3109  0.5983 -0.2521
56469SOL     OW81385  13.834  11.705  11.860  0.0441  0.3786 -0.1750
56469SOL    HW181386  13.894  11.776  11.885  1.1460 -0.0252 -1.5283
56469SOL    HW281387  13.756  11.721  11.912  1.5523  0.5216  2.2353
56470SOL     OW81388   1.521   6.692   6.004  0.4664 -0.0863  0.7621
56470SOL    HW181389   1.517   6.787   6.019 -0.0224  0.0047  0.0986
56470SOL    HW281390   1.466   6.655   6.073  1.9650 -0.0140  2.0298
56471SOL     OW81391   1.253   0.492   0.365 -0.2527  0.9071 -1.0268
56471SOL    HW181392   1.199   0.419   0.398  1.4570 -0.4327 -1.0527
56471SOL    HW281393   1.327   0.449   0.322  2.2932  2.6549  1.3329
56472SOL     OW81394   4.255   0.252   4.616 -0.4198 -0.3157 -0.1007
56472SOL    HW181395   4.338   0.265   4.661  0.6609 -0.5096 -1.9556
56472SOL    HW281396   4.193   0.306   4.665  0.7416 -0.2882  1.4147
56473SOL     OW81397   7.349   3.002  10.586  0.2831 -0.0090  0.0996
56473SOL    HW181398   7.286   3.071  10.565  0.6403  0.0803 -0.7243
56473SOL    HW281399   7.434   3.043  10.573  0.5008 -0.5336 -0.1376
56474SOL     OW81400   5.778  12.853   4.366  0.4701 -0.0846 -0.1938
56474SOL    HW181401   5.848  12.893   4.418 -0.0975 -0.1971  0.6649
56474SOL    HW281402   5.819  12.776   4.327  0.5916 -0.6823  1.0616
56475SOL     OW81403  12.938   9.093   7.786 -0.0933  0.0068 -0.2380
56475SOL    HW181404  12.948   9.180   7.825  0.9880 -1.0136  1.9882
56475SOL    HW281405  13.018   9.081   7.734 -1.6651  1.4843 -3.2949
56476SOL     OW81406  13.455   7.990   0.081  0.6263  0.5910 -0.1965
56476SOL    HW181407  13.509   7.933   0.135  1.0288 -0.2224 -1.4248
56476SOL    HW281408  13.441   8.068   0.135  1.3397 -0.0311  0.9158
56477SOL     OW81409  11.336  10.902   6.577  0.3533  0.0447 -0.8106
56477SOL    HW181410  11.384  10.977   6.542 -0.6386  1.7144  1.2428
56477SOL    HW281411  11.402  10.833   6.583  1.7267  1.2813 -1.1055
56478SOL     OW81412   0.304  13.635   2.966  0.2774  0.2961 -0.1596
56478SOL    HW181413   0.337  13.722   2.990  0.3723  0.0749  0.5378
56478SOL    HW281414   0.374  13.576   2.993 -0.6596 -0.1839  1.3270
56479SOL     OW81415   1.908   8.358   4.534 -0.5539  0.1480 -0.3718
56479SOL    HW181416   1.980   8.379   4.475  0.2832 -1.2545  0.1049
56479SOL    HW281417   1.855   8.296   4.485 -0.9037  0.4159 -0.3386
56480SOL     OW81418  10.104  11.402  12.869  0.2651  0.2316 -0.1874
56480SOL    HW181419  10.072  11.322  12.910 -0.9749  1.4105  1.2112
56480SOL    HW281420  10.087  11.389  12.775 -0.1832 -1.0203  0.0527
56481SOL     OW81421   4.453   6.018  12.981 -0.1035 -0.0008 -0.2204
56481SOL    HW181422   4.358   6.010  12.987 -0.0626  0.2638  0.8224
56481SOL    HW281423   4.484   6.011  13.071  0.5235  4.1083  0.1129
56482SOL     OW81424  13.544   1.609   3.699 -0.3586  0.5035 -0.1833
56482SOL    HW181425  13.469   1.655   3.660 -1.0600  0.3880  0.9733
56482SOL    HW281426  13.589   1.569   3.625  0.1071  2.7645 -1.2333
56483SOL     OW81427  10.056   6.153  11.467 -0.2691  0.2839  0.4636
56483SOL    HW181428  10.108   6.078  11.493  0.1106  0.7452  1.0680
56483SOL    HW281429  10.094   6.227  11.515 -0.6984  0.8422 -0.0351
56484SOL     OW81430   2.030   1.220   3.598 -0.3122  0.1224  0.3978
56484SOL    HW181431   2.093   1.201   3.529  1.6107 -0.4179  2.2063
56484SOL    HW281432   2.038   1.146   3.659 -2.3222  0.3039  0.9734
56485SOL     OW81433   2.339   8.618  13.918 -0.0093 -0.5250  0.3533
56485SOL    HW181434   2.260   8.637  13.969  0.0244 -0.9625  0.5791
56485SOL    HW281435   2.381   8.703  13.906 -1.1690 -0.1029 -0.8796
56486SOL     OW81436  11.885   4.033   0.958  0.3805 -0.2327  0.3458
56486SOL    HW181437  11.834   4.113   0.963 -1.6712 -1.4768  0.7234
56486SOL    HW281438  11.854   3.980   1.031  2.1777 -1.1249  0.5237
56487SOL     OW81439  12.646   5.579  12.733  0.3379 -0.3583  0.1247
56487SOL    HW181440  12.620   5.660  12.777 -0.4119 -1.5967  2.1198
56487SOL    HW281441  12.741   5.576  12.742  0.4286  0.5189 -0.4123
56488SOL     OW81442  10.184   2.227   4.875 -0.0597  0.4922 -0.0133
56488SOL    HW181443  10.265   2.187   4.907 -0.5012  0.0143  0.5319
56488SOL    HW281444  10.166   2.299   4.935 -0.5671 -0.0303  0.4798
56489SOL     OW81445   7.781   1.346  10.686 -0.2764  0.3874 -0.0642
56489SOL    HW181446   7.752   1.302  10.765 -1.1060  0.9320 -0.0501
56489SOL    HW281447   7.768   1.282  10.616  0.9654 -0.2837  0.2970
56490SOL     OW81448   4.675   2.616  10.500  0.6347 -0.2439 -0.3333
56490SOL    HW181449   4.638   2.552  10.561  1.1450 -0.4904 -0.2759
56490SOL    HW281450   4.686   2.568  10.418  0.5923 -0.1029 -0.4226
56491SOL     OW81451   3.448   4.585  10.934 -0.3323 -0.4937 -0.5870
56491SOL    HW181452   3.367   4.534  10.942 -0.6507 -0.2015 -1.6739
56491SOL    HW281453   3.462   4.591  10.839  1.5876 -1.5041 -0.4143
56492SOL     OW81454   3.563   5.570   6.742 -0.1942  0.4180 -0.7753
56492SOL    HW181455   3.654   5.545   6.722 -0.6677 -1.0804 -1.1904
56492SOL    HW281456   3.561   5.578   6.837 -0.0578 -1.5198 -0.5648
56493SOL     OW81457   0.095   1.656   0.257  0.1335  0.3029  0.4655
56493SOL    HW181458   0.073   1.656   0.164  1.7853 -0.5477  0.0282
56493SOL    HW281459   0.115   1.747   0.277  2.4621  0.1458 -0.7696
56494SOL     OW81460   1.710   7.669   0.230 -0.3241 -0.2329  0.0702
56494SOL    HW181461   1.622   7.648   0.260 -0.3152 -0.1576  0.1498
56494SOL    HW281462   1.755   7.584   0.225  0.5668 -0.0422  3.0590
56495SOL     OW81463   2.722   6.437   2.920  0.1973  0.2985 -0.0709
56495SOL    HW181464   2.646   6.394   2.880 -0.2961  1.9642 -1.0158
56495SOL    HW281465   2.775   6.465   2.845  0.8779  0.6685  0.5417
56496SOL     OW81466   6.361   7.739  13.813 -0.5007  0.1421  0.9758
56496SOL    HW181467   6.284   7.697  13.775 -0.0472  0.3337 -0.2070
56496SOL    HW281468   6.407   7.668  13.858  0.7590 -0.9725 -1.7924
56497SOL     OW81469   2.677   9.993   7.035  0.9775  0.7167  0.6983
56497SOL    HW181470   2.654  10.066   7.093  1.7679  0.0728  1.8578
56497SOL    HW281471   2.642   9.916   7.080 -0.2145  0.3931 -0.7123
56498SOL     OW81472   0.624   8.125   4.904  0.1107 -0.4534  0.2352
56498SOL    HW181473   0.569   8.076   4.965 -0.3183  0.0892  0.2910
56498SOL    HW281474   0.713   8.101   4.928  0.0132  0.6475  1.8656
56499SOL     OW81475   6.633  10.437   2.686  0.5936 -0.1410  0.0526
56499SOL    HW181476   6.635  10.462   2.593 -2.4859 -0.0884 -0.0842
56499SOL    HW281477   6.633  10.341   2.684 -0.2368 -0.1407 -0.0438
56500SOL     OW81478   7.706  13.311   6.561 -0.3789  0.3413 -0.0130
56500SOL    HW181479   7.767  13.278   6.494 -0.4757 -1.3335  0.6635
56500SOL    HW281480   7.664  13.386   6.520  3.2779  2.6764  0.0804
56501SOL     OW81481  11.878   7.594   1.262 -0.1634 -0.5938 -0.1012
56501SOL    HW181482  11.903   7.507   1.234  1.1630  0.2301 -1.6170
56501SOL    HW281483  11.787   7.603   1.234 -0.2958 -1.4484  0.0284
56502SOL     OW81484  11.032   8.203  13.224 -0.4070 -0.0019 -0.0198
56502SOL    HW181485  11.120   8.240  13.235 -1.0967  1.4136  1.0327
56502SOL    HW281486  11.031   8.168  13.135  1.6927 -1.3891  0.4298
56503SOL     OW81487  10.644   9.923  12.317  0.0567  0.2276  0.0235
56503SOL    HW181488  10.681   9.975  12.246 -0.2019  0.0957 -0.2098
56503SOL    HW281489  10.570   9.877  12.277 -0.5327  0.6972  0.5413
56504SOL     OW81490   9.120   1.192   6.451  0.0191 -0.4979 -0.1328
56504SOL    HW181491   9.188   1.246   6.491  0.0351 -0.3894 -0.3063
56504SOL    HW281492   9.049   1.190   6.516 -0.4868  0.7399 -0.6309
56505SOL     OW81493  13.050  14.032   4.086 -0.2882 -0.2581  0.1431
56505SOL    HW181494  13.005  14.072   4.160  0.7469  0.5020  0.3874
56505SOL    HW281495  12.999  14.058   4.009  0.2640  1.4167  0.3166
56506SOL     OW81496   4.855  12.310  12.525 -0.3762  0.0617 -0.0835
56506SOL    HW181497   4.916  12.258  12.473  0.7134  0.3819  0.8429
56506SOL    HW281498   4.850  12.394  12.480  1.1599  0.6089  0.6890
56507SOL     OW81499   9.753  12.489   1.716  0.0684  0.1466  0.4350
56507SOL    HW181500   9.694  12.481   1.641 -0.5121 -1.1537  0.9949
56507SOL    HW281501   9.761  12.583   1.730 -1.9930  0.3733  0.4315
56508SOL     OW81502   4.692   5.128   2.303  0.1320 -0.4117  0.2928
56508SOL    HW181503   4.663   5.073   2.376  1.0411  1.0028  1.7991
56508SOL    HW281504   4.758   5.075   2.258 -0.5959 -1.3912  0.3298
56509SOL     OW81505   1.686  10.612   6.934 -0.1895  0.2540  0.3322
56509SOL    HW181506   1.644  10.694   6.910 -0.8486 -0.5190 -1.2844
56509SOL    HW281507   1.776  10.636   6.956 -0.0931  1.3029 -1.0828
56510SOL     OW81508   2.762   6.911   5.705  0.1430  0.3348 -0.1108
56510SOL    HW181509   2.788   6.819   5.696  1.7286  0.5125  1.8488
56510SOL    HW281510   2.697   6.911   5.775 -1.5175  0.5021 -1.5906
56511SOL     OW81511   7.834  12.500  10.524 -0.0839  0.3812  0.4793
56511SOL    HW181512   7.751  12.538  10.495 -0.4875 -0.1848  0.8652
56511SOL    HW281513   7.874  12.566  10.580  0.4615  1.2831 -0.9164
56512SOL     OW81514  11.981  11.204   3.601 -0.4103 -0.3328 -0.0499
56512SOL    HW181515  11.912  11.270   3.589  0.1666  0.8180  2.3724
56512SOL    HW281516  11.976  11.181   3.694  1.9994 -0.7345  0.0377
56513SOL     OW81517   2.269  11.106   7.732 -0.1938  0.8016 -0.2945
56513SOL    HW181518   2.176  11.106   7.755 -0.4858 -0.7414 -1.2845
56513SOL    HW281519   2.310  11.049   7.797 -0.4730 -0.8954 -1.5324
56514SOL     OW81520  12.414  11.249   2.430  0.3587 -0.1916  0.4538
56514SOL    HW181521  12.398  11.286   2.517 -0.1896  0.6327  0.0106
56514SOL    HW281522  12.439  11.158   2.447  0.9290  0.1414  1.5148
56515SOL     OW81523   7.654   6.750  10.895  0.3252  0.3149  0.1514
56515SOL    HW181524   7.603   6.831  10.900 -0.2232 -0.0352  0.2979
56515SOL    HW281525   7.606   6.688  10.951  0.5673 -0.2025 -0.2039
56516SOL     OW81526   5.811   4.019   0.845  0.0297  0.4096 -0.4346
56516SOL    HW181527   5.857   3.961   0.906  0.4200  0.1659 -0.9509
56516SOL    HW281528   5.719   4.011   0.869  0.0039 -0.9299 -0.9114
56517SOL     OW81529   1.075   7.608  13.782  0.5186  0.5968  0.4516
56517SOL    HW181530   1.153   7.636  13.736  0.5538 -0.6045 -0.2612
56517SOL    HW281531   1.091   7.630  13.874  0.7200  2.4097  0.0048
56518SOL     OW81532   3.908   8.715   3.767 -0.0067  0.1283  0.3003
56518SOL    HW181533   3.914   8.666   3.685 -1.4588  0.8418 -0.2700
56518SOL    HW281534   3.946   8.657   3.832 -0.3886 -1.1763 -0.5922
56519SOL     OW81535   9.608   8.871  13.232 -0.3767 -0.2562  0.4078
56519SOL    HW181536   9.557   8.952  13.226  0.7214  0.4311  0.0086
56519SOL    HW281537   9.673   8.889  13.300 -1.4816 -1.6106  1.8962
56520SOL     OW81538   6.536  11.552   0.945  0.3475 -0.0867  0.0177
56520SOL    HW181539   6.456  11.541   0.995  1.7631 -0.6313  2.2930
56520SOL    HW281540   6.525  11.493   0.870 -1.4313 -0.0050  0.1702
56521SOL     OW81541  10.582   7.652   2.026 -0.5724  0.3273 -0.1581
56521SOL    HW181542  10.529   7.609   2.094  1.4460 -0.1541  1.1963
56521SOL    HW281543  10.651   7.697   2.074  0.5279  0.5469 -1.8734
56522SOL     OW81544   4.003   9.118   9.216 -0.5481 -0.3290 -0.2433
56522SOL    HW181545   3.933   9.178   9.242 -0.2824 -0.6927  1.4207
56522SOL    HW281546   3.962   9.032   9.219 -0.4280 -0.4084 -0.7902
56523SOL     OW81547   2.332   8.601  11.672  0.1780  0.5634  0.0290
56523SOL    HW181548   2.415   8.597  11.625  0.6508 -2.0779  0.9152
56523SOL    HW281549   2.277   8.536  11.629 -0.5332  0.4647  1.0624
56524SOL     OW81550   2.814   1.891   3.319 -0.1440 -0.1991  0.1265
56524SOL    HW181551   2.830   1.883   3.225 -0.9929  2.2600 -0.2996
56524SOL    HW281552   2.788   1.982   3.331  0.9438 -0.1746  2.9290
56525SOL     OW81553   8.749   9.816  12.029 -0.1717  0.1308  0.0246
56525SOL    HW181554   8.705   9.752  11.973 -0.7031  1.7673 -1.5566
56525SOL    HW281555   8.740   9.899  11.981  1.7166  1.1393  1.2867
56526SOL     OW81556   9.589   3.652   9.788  0.0356  0.3534 -0.3905
56526SOL    HW181557   9.501   3.638   9.755 -0.3881 -0.5188  1.0409
56526SOL    HW281558   9.642   3.585   9.744 -0.0025  0.8854 -1.2583
56527SOL     OW81559   4.965   9.722   2.194  0.1105  0.0339  0.9770
56527SOL    HW181560   5.029   9.711   2.264  0.2016  1.3014  1.1273
56527SOL    HW281561   5.007   9.685   2.117  0.1129 -1.1504  1.5291
56528SOL     OW81562   4.820   8.218  11.834  0.3674 -0.4377  0.5344
56528SOL    HW181563   4.880   8.220  11.909  0.7255  0.0006  0.2466
56528SOL    HW281564   4.873   8.183  11.762 -0.3685 -2.2069  0.8055
56529SOL     OW81565   6.573   6.515   4.265  0.4978  0.2978  0.0307
56529SOL    HW181566   6.587   6.599   4.308  0.8466  0.5742 -0.5991
56529SOL    HW281567   6.631   6.454   4.310  1.8469  0.8653 -0.8640
56530SOL     OW81568   4.542  12.131   9.393 -0.2875  0.1289 -0.0748
56530SOL    HW181569   4.635  12.119   9.371 -0.3316  1.2765 -0.9349
56530SOL    HW281570   4.505  12.042   9.389  0.4767 -0.1575 -1.1275
56531SOL     OW81571  10.866   8.986  12.455 -0.1960 -0.2783  0.4096
56531SOL    HW181572  10.802   9.049  12.421 -0.8981 -0.4708  1.3252
56531SOL    HW281573  10.858   8.994  12.550  1.5116  0.0506  0.5485
56532SOL     OW81574   5.812   3.102   4.005  0.2845  0.7126 -0.5610
56532SOL    HW181575   5.769   3.049   3.938  1.7651  0.1266 -1.0886
56532SOL    HW281576   5.854   3.039   4.062  1.7653  1.2799 -0.9857
56533SOL     OW81577   2.207   4.850  13.241  0.1520 -0.2727 -0.1237
56533SOL    HW181578   2.214   4.944  13.255 -0.5651  0.1356 -2.2386
56533SOL    HW281579   2.290   4.825  13.200  0.1475 -0.4731 -0.0138
56534SOL     OW81580   7.088   1.297   3.211 -0.2120  0.3866  0.0644
56534SOL    HW181581   7.041   1.340   3.282  1.4265 -2.9918  3.5706
56534SOL    HW281582   7.176   1.335   3.214  0.4726 -1.1310  1.4465
56535SOL     OW81583   0.627  11.644   1.388 -0.0306  0.0000 -0.3469
56535SOL    HW181584   0.688  11.646   1.463  0.1570  0.4148 -0.5072
56535SOL    HW281585   0.675  11.597   1.320  0.7288  1.6674 -0.9939
56536SOL     OW81586   4.699   7.748   8.895  0.5860  0.5018 -0.1342
56536SOL    HW181587   4.734   7.837   8.893  1.0548  0.3708  1.1938
56536SOL    HW281588   4.753   7.703   8.959 -1.4449  0.0313  1.3398
56537SOL     OW81589   8.903   2.156  13.685 -0.8297 -0.3282 -0.0496
56537SOL    HW181590   8.951   2.086  13.641 -0.9287  1.0655 -2.5357
56537SOL    HW281591   8.954   2.173  13.764  0.5858 -1.4913 -0.6602
56538SOL     OW81592  10.925   2.138   4.131 -0.2633 -0.6585 -0.1400
56538SOL    HW181593  10.950   2.225   4.099 -0.1542 -0.5333  0.2789
56538SOL    HW281594  10.918   2.149   4.226  2.0120 -1.6363  0.2001
56539SOL     OW81595  10.489   3.353   9.207 -0.1422  0.3834 -0.6754
56539SOL    HW181596  10.497   3.339   9.301  1.4252 -2.0096 -1.0687
56539SOL    HW281597  10.440   3.278   9.175  0.2338  0.6309 -1.8983
56540SOL     OW81598  12.719   6.250   9.300  0.0146 -0.3303  0.4287
56540SOL    HW181599  12.630   6.219   9.315 -0.3325  0.3369 -0.2234
56540SOL    HW281600  12.758   6.255   9.388 -0.2197 -1.6543  0.6406
56541SOL     OW81601   2.137   1.583  10.261 -0.0157 -0.5329 -0.1707
56541SOL    HW181602   2.082   1.603  10.337  1.3895  1.4527  0.3720
56541SOL    HW281603   2.077   1.538  10.201 -1.1023 -2.4530  2.1602
56542SOL     OW81604   2.858   8.105  13.443 -0.2326  0.0524 -0.0686
56542SOL    HW181605   2.916   8.074  13.513 -0.5572  2.4391  1.3556
56542SOL    HW281606   2.905   8.179  13.404 -0.5463 -0.5711 -1.7071
56543SOL     OW81607   4.983  13.174  12.003  0.1973  0.6716 -0.0644
56543SOL    HW181608   4.944  13.096  11.964  1.7206  0.7269 -1.8481
56543SOL    HW281609   4.954  13.173  12.094  1.9142 -3.1717  0.6056
56544SOL     OW81610  12.489  10.042  10.908  0.3913 -0.7367 -0.4628
56544SOL    HW181611  12.522  10.080  10.989 -0.8031 -1.4708  0.4117
56544SOL    HW281612  12.508  10.108  10.841 -1.9896  1.6849  1.0369
56545SOL     OW81613   2.633   5.780   2.275  0.2943 -0.2147  0.3438
56545SOL    HW181614   2.596   5.788   2.363 -1.4750 -0.0174 -0.3825
56545SOL    HW281615   2.660   5.869   2.252  2.1233 -0.4950  1.2037
56546SOL     OW81616   9.996   5.905  13.714  0.2410 -0.8592 -0.2310
56546SOL    HW181617  10.043   5.942  13.639  1.5537  1.2852  1.5234
56546SOL    HW281618   9.916   5.957  13.721  0.5293 -0.4690  0.3101
56547SOL     OW81619   1.365   8.247   7.222  0.4227 -0.6923 -0.0685
56547SOL    HW181620   1.344   8.335   7.255  1.9126 -0.4303  0.2359
56547SOL    HW281621   1.319   8.241   7.139  1.8832  1.1654 -1.0893
56548SOL     OW81622   3.204   5.989   9.430  0.7442 -0.5143 -0.2431
56548SOL    HW181623   3.171   6.056   9.370 -0.9123  0.1576  1.3047
56548SOL    HW281624   3.281   6.029   9.471 -0.4353  0.6662  0.9311
56549SOL     OW81625   0.369   3.337   0.850 -0.3104 -0.0540 -0.0507
56549SOL    HW181626   0.415   3.270   0.901  1.2534 -0.1517 -1.4977
56549SOL    HW281627   0.278   3.330   0.877 -0.0496 -2.2310  0.4169
56550SOL     OW81628   7.273   4.240   8.370 -0.6170 -0.5688  0.0758
56550SOL    HW181629   7.358   4.214   8.406 -0.7596 -2.3832 -0.7875
56550SOL    HW281630   7.276   4.212   8.279 -0.9228  2.3486 -0.9335
56551SOL     OW81631   0.108   0.443  12.423  0.6550  0.5321  0.1572
56551SOL    HW181632   0.140   0.374  12.366  0.2939  1.3224 -1.0303
56551SOL    HW281633   0.181   0.462  12.482  1.1548 -0.0458 -0.2699
56552SOL     OW81634   6.901   8.997   2.282 -0.2071 -0.5335  0.0760
56552SOL    HW181635   6.983   8.947   2.282  0.7131  0.7293 -2.6934
56552SOL    HW281636   6.838   8.938   2.241 -0.2443 -0.8896  0.6327
56553SOL     OW81637   9.858   5.668  11.650  0.2106 -0.3059  0.3062
56553SOL    HW181638   9.849   5.638  11.740 -1.0655 -0.0906  0.2806
56553SOL    HW281639   9.909   5.600  11.606 -0.7122 -1.3338  0.7787
56554SOL     OW81640   9.088  10.548  13.043  0.0160 -0.5631  0.2786
56554SOL    HW181641   9.183  10.541  13.042 -0.1432 -4.4655 -0.5045
56554SOL    HW281642   9.066  10.561  13.136  1.2339  1.2169  0.3823
56555SOL     OW81643   2.548   4.659   7.039  0.0282  0.2265 -0.2249
56555SOL    HW181644   2.594   4.667   6.956 -1.9770  1.3672 -1.2873
56555SOL    HW281645   2.531   4.565   7.048 -1.3009  0.2213 -2.0770
56556SOL     OW81646   8.061  10.999   8.257  0.5582 -0.4871  0.3658
56556SOL    HW181647   8.132  11.046   8.212  1.0422 -1.9391 -0.4436
56556SOL    HW281648   8.008  11.068   8.296  1.3499  0.7222 -0.6249
56557SOL     OW81649   9.329   9.268   4.090  0.6438  0.0855 -0.3002
56557SOL    HW181650   9.292   9.327   4.024  1.0392  1.6453  0.8194
56557SOL    HW281651   9.263   9.266   4.159  0.3096 -1.4045 -0.6131
56558SOL     OW81652  10.822   6.984   0.977 -0.0653 -0.2984  0.2046
56558SOL    HW181653  10.797   7.070   0.942  0.1477 -0.2193  0.2429
56558SOL    HW281654  10.859   7.003   1.063  0.5336 -0.3593 -0.0309
56559SOL     OW81655   2.989   8.235   0.408  0.8194  0.0448 -0.2616
56559SOL    HW181656   2.906   8.199   0.377  0.1081  2.3230 -1.2739
56559SOL    HW281657   2.973   8.257   0.500  1.0661 -1.5391  0.1840
56560SOL     OW81658   1.598  13.290   6.625  0.1043  0.0725 -0.3237
56560SOL    HW181659   1.542  13.234   6.678  0.6513  0.6166  0.8562
56560SOL    HW281660   1.537  13.333   6.564 -0.8377  0.9296  1.1783
56561SOL     OW81661  13.548   8.593   2.951  0.5670  0.2250 -0.0158
56561SOL    HW181662  13.630   8.615   2.905  0.7458  0.5847  0.4709
56561SOL    HW281663  13.573   8.590   3.043  0.5222 -1.8544 -0.0169
56562SOL     OW81664   3.308   3.922   2.001  1.3181 -0.0802 -0.0378
56562SOL    HW181665   3.384   3.881   2.044  0.9911 -0.9241 -0.2504
56562SOL    HW281666   3.344   4.000   1.958  1.8996  0.0221  0.6099
56563SOL     OW81667   3.854   1.028   0.084 -0.1828  0.4076 -0.3791
56563SOL    HW181668   3.874   1.064   0.171 -3.5048  0.3533  0.5277
56563SOL    HW281669   3.880   0.936   0.091 -0.3517  0.4138  0.5649
56564SOL     OW81670   8.370  12.565   5.662  0.6628  0.6888 -0.3309
56564SOL    HW181671   8.304  12.635   5.665  0.8777  0.8576  0.9602
56564SOL    HW281672   8.329  12.491   5.707  1.4104  0.8620  0.6697
56565SOL     OW81673  12.651   1.844   7.064  0.6090  0.3860 -0.1130
56565SOL    HW181674  12.575   1.787   7.057  1.9911 -1.6220  0.4637
56565SOL    HW281675  12.661   1.882   6.977 -0.5256  0.0090 -0.4244
56566SOL     OW81676   3.066   8.800   5.314 -0.1897  0.2401 -0.1911
56566SOL    HW181677   3.032   8.711   5.310  1.4336 -0.5137  1.5531
56566SOL    HW281678   3.004   8.847   5.370 -0.0460 -0.2967  0.4229
56567SOL     OW81679  10.901   9.370   1.144  0.2727  0.1296 -0.2551
56567SOL    HW181680  10.912   9.430   1.218  0.5516 -0.0489 -0.1529
56567SOL    HW281681  10.892   9.283   1.184  0.7855 -0.0158 -0.4473
56568SOL     OW81682  13.339  13.250   1.808  0.3721  0.2395 -0.2665
56568SOL    HW181683  13.316  13.244   1.901 -2.0439 -0.4167 -0.8565
56568SOL    HW281684  13.287  13.323   1.775  1.5337  0.7498 -1.0695
56569SOL     OW81685  12.417   9.347   0.418 -0.3302  0.0668 -0.6514
56569SOL    HW181686  12.469   9.423   0.444 -0.0911 -0.2623 -0.1505
56569SOL    HW281687  12.375   9.318   0.499  0.2258 -0.8255 -0.6664
56570SOL     OW81688   0.515  11.721  12.689  0.1293  0.4439 -0.0297
56570SOL    HW181689   0.532  11.634  12.725  1.3955  1.3190  1.6165
56570SOL    HW281690   0.487  11.773  12.764  2.2157  2.1764 -0.3764
56571SOL     OW81691   8.990   3.965  10.599  0.1919 -0.0200 -0.3256
56571SOL    HW181692   8.996   4.043  10.655  2.6261 -0.5973  0.3327
56571SOL    HW281693   9.010   3.998  10.511 -1.4359  0.4998 -0.5430
56572SOL     OW81694  12.859  10.805   4.062  0.2807  0.3562 -0.8155
56572SOL    HW181695  12.845  10.810   4.156 -2.8731 -0.6669 -1.1124
56572SOL    HW281696  12.948  10.771   4.052  0.9187  1.0882  1.7411
56573SOL     OW81697   0.689   1.546   1.145 -0.2370  0.1666 -0.4337
56573SOL    HW181698   0.690   1.582   1.234  0.5553  2.7452 -1.3795
56573SOL    HW281699   0.768   1.492   1.140 -0.2855  0.0017  0.4081
56574SOL     OW81700   4.299  11.938   0.314  0.6639 -0.4977  0.0063
56574SOL    HW181701   4.253  11.877   0.371  1.5642 -1.5061 -0.3107
56574SOL    HW281702   4.238  12.010   0.302 -0.4284 -1.3264  0.3979
56575SOL     OW81703   8.843  13.739   7.304 -0.8045 -0.1373  0.1899
56575SOL    HW181704   8.831  13.645   7.309  0.3031 -0.2735  0.6811
56575SOL    HW281705   8.831  13.761   7.212  0.7916 -1.0583 -0.2730
56576SOL     OW81706  11.353   7.234   5.390 -0.3252  0.1907 -0.3208
56576SOL    HW181707  11.364   7.213   5.297  1.7939 -1.4152  0.2127
56576SOL    HW281708  11.425   7.294   5.410  0.3781 -0.9209  0.6449
56577SOL     OW81709   0.562   2.146   5.930 -0.0925 -0.0501 -0.1416
56577SOL    HW181710   0.606   2.192   6.002 -1.2814 -0.2297  0.7309
56577SOL    HW281711   0.470   2.145   5.955 -0.6458  0.4988 -2.0227
56578SOL     OW81712   2.908   3.083   2.275  0.2112  0.4551  0.1911
56578SOL    HW181713   2.999   3.078   2.246 -0.0677  1.9215 -1.0511
56578SOL    HW281714   2.861   3.022   2.219  0.3133  0.2411  0.3379
56579SOL     OW81715   0.443   8.244   5.216 -0.0886  0.2457 -0.2422
56579SOL    HW181716   0.446   8.155   5.182  1.3476  0.0019  0.4512
56579SOL    HW281717   0.397   8.294   5.149  0.1788 -0.7749 -1.2080
56580SOL     OW81718   3.313  12.304   5.596  0.7114  0.0176 -0.1618
56580SOL    HW181719   3.266  12.375   5.639 -0.3988 -1.0301  0.4031
56580SOL    HW281720   3.392  12.292   5.649  0.4294  0.1994  0.3078
56581SOL     OW81721   2.840   3.041   0.950  0.1207  0.1432 -0.4342
56581SOL    HW181722   2.904   3.004   0.890  0.1752  0.6689 -0.7077
56581SOL    HW281723   2.776   3.084   0.894 -1.2923 -1.5905 -0.2515
56582SOL     OW81724   9.508   1.621   0.657  0.5116  0.2905 -0.5347
56582SOL    HW181725   9.423   1.579   0.671  0.6088 -0.0099 -0.8477
56582SOL    HW281726   9.551   1.617   0.742  0.8744 -1.0235 -0.7607
56583SOL     OW81727   1.500  10.245   8.580  0.0794 -0.1701  0.2132
56583SOL    HW181728   1.467  10.161   8.548  1.2077 -0.7230  0.4702
56583SOL    HW281729   1.536  10.287   8.502 -0.7230  0.2085  0.0331
56584SOL     OW81730   1.898   2.713   9.251  0.1584 -0.2374 -0.9447
56584SOL    HW181731   1.889   2.782   9.185  1.0760 -0.1292 -0.9780
56584SOL    HW281732   1.865   2.634   9.208 -0.8397  0.1599 -0.9300
56585SOL     OW81733   8.453   4.383   7.112 -0.0603  0.3627  0.1462
56585SOL    HW181734   8.457   4.332   7.193 -0.2610 -0.6605 -0.4702
56585SOL    HW281735   8.534   4.361   7.066 -1.4123 -1.6684 -1.4182
56586SOL     OW81736  13.952   7.141  12.408 -0.1637  0.0725 -0.1668
56586SOL    HW181737  14.029   7.170  12.359  0.9336 -0.1972  1.3367
56586SOL    HW281738  13.883   7.134  12.342  1.3342 -0.6041 -1.7370
56587SOL     OW81739   1.226   2.780  12.182  0.2625 -0.5171 -0.2717
56587SOL    HW181740   1.174   2.742  12.111 -1.6834  0.4066  0.5846
56587SOL    HW281741   1.223   2.714  12.251  0.3719 -0.5380 -0.2873
56588SOL     OW81742   0.253  12.211   1.873  0.1249  0.0198  0.0351
56588SOL    HW181743   0.183  12.269   1.844 -1.0719 -1.1299  0.5190
56588SOL    HW281744   0.310  12.201   1.797  0.6865  2.2450  0.1138
56589SOL     OW81745   8.934  12.596  10.248  0.1331  0.2097  0.4318
56589SOL    HW181746   9.020  12.555  10.257  0.2889  0.7771  1.9169
56589SOL    HW281747   8.881  12.555  10.317 -0.6476  0.2384 -0.1332
56590SOL     OW81748  11.743  12.339   4.137 -0.0663 -0.0455  0.0204
56590SOL    HW181749  11.690  12.375   4.209  0.3608 -0.9756  0.8209
56590SOL    HW281750  11.679  12.313   4.071 -0.6534 -1.1933  0.9934
56591SOL     OW81751  11.830  12.233  10.076  0.4975  0.1849  0.4898
56591SOL    HW181752  11.765  12.281  10.128 -0.3228 -0.7490  0.3555
56591SOL    HW281753  11.915  12.264  10.108  0.0042  0.1041  1.9394
56592SOL     OW81754  11.628   4.955   7.962  0.1922  0.0690  0.2478
56592SOL    HW181755  11.719   4.924   7.969 -0.1403 -0.9569  0.2066
56592SOL    HW281756  11.635   5.050   7.962  1.3188  0.0053 -0.3801
56593SOL     OW81757  10.972  12.238   8.794 -0.3301  0.3135  0.2472
56593SOL    HW181758  10.943  12.161   8.843 -0.3564  0.4572  0.4603
56593SOL    HW281759  10.976  12.307   8.860 -0.8059  0.6211 -0.0406
56594SOL     OW81760   6.176  12.051  13.677 -0.6751  0.3714  0.0145
56594SOL    HW181761   6.255  12.002  13.696 -1.6847 -0.5304  2.1982
56594SOL    HW281762   6.158  12.033  13.584  1.9491  1.1357 -0.7295
56595SOL     OW81763   0.748   4.481   4.822 -0.0890  0.1473  0.1930
56595SOL    HW181764   0.842   4.465   4.811  0.2411  1.0257  1.5423
56595SOL    HW281765   0.721   4.519   4.739  0.6166 -0.6489 -0.4242
56596SOL     OW81766   3.715   0.196   2.102 -0.5746  0.6044  0.3119
56596SOL    HW181767   3.689   0.265   2.163 -0.1938  0.4708  0.6278
56596SOL    HW281768   3.709   0.237   2.015  1.0768  1.5180  0.5825
56597SOL     OW81769   6.978   8.767   3.354  0.1472 -0.3184  0.7645
56597SOL    HW181770   7.025   8.688   3.330  0.5260  0.0677  0.1949
56597SOL    HW281771   6.913   8.739   3.418 -1.7278 -1.6580 -1.5413
56598SOL     OW81772   1.894   0.881   7.116 -0.0480 -0.2613 -0.4083
56598SOL    HW181773   1.837   0.954   7.093 -1.1668 -1.2620 -0.9497
56598SOL    HW281774   1.877   0.815   7.048  0.9145 -1.0364  0.0738
56599SOL     OW81775   1.602   3.837   1.583  0.1806 -0.0670  0.0372
56599SOL    HW181776   1.518   3.793   1.599  1.4704 -3.3736 -1.4134
56599SOL    HW281777   1.579   3.913   1.530 -1.8889 -1.2702 -0.9258
56600SOL     OW81778  10.934   4.946  12.067 -0.0919 -1.0592 -0.4634
56600SOL    HW181779  10.966   5.006  11.999 -0.2765 -0.2981  0.1039
56600SOL    HW281780  10.861   4.993  12.108  1.6468 -0.2985  2.0087
56601SOL     OW81781   0.744   8.445   6.271  0.5898 -0.1757 -0.0105
56601SOL    HW181782   0.777   8.534   6.258 -3.1902  1.6471  1.4505
56601SOL    HW281783   0.694   8.426   6.191 -1.1528  0.3514  0.9132
56602SOL     OW81784  12.626   7.341   7.260  0.1191 -0.5505  0.0894
56602SOL    HW181785  12.606   7.282   7.332 -0.4949 -1.8434 -1.1101
56602SOL    HW281786  12.602   7.428   7.293 -2.8347 -1.4238  0.4681
56603SOL     OW81787   5.790  11.753   4.766 -0.4290  0.6382 -0.4329
56603SOL    HW181788   5.744  11.743   4.850 -1.2860  0.7436 -0.8816
56603SOL    HW281789   5.746  11.693   4.707 -0.8070  1.6565 -1.1999
56604SOL     OW81790   3.899   5.175   4.447  0.2923 -0.2244  0.7441
56604SOL    HW181791   3.871   5.126   4.370  0.3031  0.6283  0.1813
56604SOL    HW281792   3.950   5.113   4.499  0.7402 -0.6639 -0.2025
56605SOL     OW81793  11.389   1.015  10.171 -0.5246 -0.4609  0.3567
56605SOL    HW181794  11.402   1.058  10.087  1.8901  0.1208  0.9501
56605SOL    HW281795  11.365   0.925  10.149  1.8481 -0.8472 -1.0502
56606SOL     OW81796   5.146   8.764  13.003  0.2104  0.6461 -0.2797
56606SOL    HW181797   5.078   8.762  13.070 -0.0620  1.1656 -0.5310
56606SOL    HW281798   5.153   8.857  12.979 -0.1876  0.3885 -1.4489
56607SOL     OW81799   6.689   3.747   1.246 -0.2386  0.2006  0.0152
56607SOL    HW181800   6.714   3.688   1.317  1.1047 -0.7689 -1.2131
56607SOL    HW281801   6.599   3.721   1.225 -0.0072 -0.7576  0.1437
56608SOL     OW81802   9.891   3.071  12.301  0.1139  0.6328 -0.2846
56608SOL    HW181803   9.799   3.045  12.293  0.4811 -1.4238  1.1694
56608SOL    HW281804   9.922   3.074  12.211 -0.5440 -2.2092 -0.7077
56609SOL     OW81805   5.724   8.756  13.383  0.4031 -0.4732 -0.2409
56609SOL    HW181806   5.670   8.822  13.339 -0.6147 -0.3530  1.1456
56609SOL    HW281807   5.729   8.684  13.320  1.4531  0.8380 -1.7519
56610SOL     OW81808  10.162   4.140   8.392  0.0717  0.2938  0.0328
56610SOL    HW181809  10.190   4.194   8.318  0.4298 -0.3782 -0.3323
56610SOL    HW281810  10.234   4.078   8.405 -0.4116 -0.2133  0.3283
56611SOL     OW81811   4.237   4.398   4.169 -0.0113  0.4804 -0.2742
56611SOL    HW181812   4.254   4.341   4.094 -1.8584  1.2250 -1.3117
56611SOL    HW281813   4.162   4.359   4.213 -0.1949  1.1521  0.0285
56612SOL     OW81814   7.399   8.871   0.441  0.0761 -0.5431 -0.1665
56612SOL    HW181815   7.443   8.890   0.524  1.2871 -1.9331 -0.4433
56612SOL    HW281816   7.307   8.859   0.464  0.2561 -0.0955  0.8409
56613SOL     OW81817  13.238   2.560   1.653 -0.3530  0.5360  0.2225
56613SOL    HW181818  13.242   2.548   1.748 -1.1749 -2.1727  0.0103
56613SOL    HW281819  13.286   2.485   1.617 -1.4412  0.6061 -1.5037
56614SOL     OW81820  11.222   2.390   3.858 -0.1782  0.0181  0.9080
56614SOL    HW181821  11.152   2.397   3.923  1.0554 -0.0091  2.2777
56614SOL    HW281822  11.298   2.359   3.907  1.0471  0.8913 -0.3529
56615SOL     OW81823  11.229   2.939   7.333 -0.3824 -0.0488  0.5219
56615SOL    HW181824  11.298   2.876   7.313 -0.9678 -0.3011 -0.7742
56615SOL    HW281825  11.231   3.001   7.260 -2.4483 -0.8771 -0.3167
56616SOL     OW81826  11.963   7.904   6.376  0.3872  0.0158  0.2464
56616SOL    HW181827  12.052   7.938   6.390 -0.3394  1.8606  0.5683
56616SOL    HW281828  11.929   7.954   6.302  0.2822 -2.0819 -1.2226
56617SOL     OW81829   8.371   7.402   6.906 -0.4148  0.0920  0.2759
56617SOL    HW181830   8.295   7.347   6.927 -0.7195  0.2387 -0.4146
56617SOL    HW281831   8.333   7.485   6.877 -0.2822 -1.1779 -4.4000
56618SOL     OW81832   7.383   2.860   5.426  0.1719  0.2720 -0.2019
56618SOL    HW181833   7.349   2.836   5.340  2.2425  0.3716 -1.0855
56618SOL    HW281834   7.344   2.795   5.485 -1.5406  0.3989 -1.1050
56619SOL     OW81835  13.463   9.316   2.475 -0.4856  0.2329 -0.5423
56619SOL    HW181836  13.406   9.391   2.458 -1.8931 -1.2905 -3.1835
56619SOL    HW281837  13.406   9.240   2.467  1.3070 -1.2340 -0.0904
56620SOL     OW81838   9.542   0.002   3.092 -0.5674  0.2499  0.1236
56620SOL    HW181839   9.573  -0.071   3.146  0.4916  0.7434  0.2144
56620SOL    HW281840   9.519  -0.038   3.008 -0.7093 -0.2986  0.4227
56621SOL     OW81841   5.850  13.424   9.000 -0.0851 -0.5281  0.4677
56621SOL    HW181842   5.888  13.511   8.984  0.4778 -1.1019 -1.6481
56621SOL    HW281843   5.770  13.442   9.050 -0.2839  1.2814 -0.3859
56622SOL     OW81844   4.664   9.981  13.658 -0.3004  0.1983 -0.2417
56622SOL    HW181845   4.627  10.033  13.730 -1.4994  0.8279 -1.2672
56622SOL    HW281846   4.732  10.037  13.621 -0.8482  0.6106 -0.6517
56623SOL     OW81847   9.087   9.524   0.316  0.3910  0.4760 -0.3636
56623SOL    HW181848   9.166   9.514   0.370  1.2085 -1.5536 -1.7941
56623SOL    HW281849   9.038   9.444   0.330 -0.1094  0.5643 -1.4824
56624SOL     OW81850   4.150   2.884  12.622  0.2627  0.1702 -0.1713
56624SOL    HW181851   4.194   2.920  12.700  0.1310  0.9599 -0.4474
56624SOL    HW281852   4.084   2.950  12.600  0.0988 -0.1918 -0.7734
56625SOL     OW81853   3.682   1.112   6.763  0.6594 -0.4285 -0.1728
56625SOL    HW181854   3.701   1.102   6.856  0.7226 -0.3991 -0.1822
56625SOL    HW281855   3.766   1.137   6.724  0.5725 -0.1639 -0.1934
56626SOL     OW81856  12.536   6.098  10.417  0.0233  0.3240  0.2045
56626SOL    HW181857  12.610   6.132  10.468 -0.8315  0.8810  1.1109
56626SOL    HW281858  12.575   6.066  10.336  1.2329  0.7766  0.5897
56627SOL     OW81859  10.820   5.455   0.476  0.6269  0.0675 -0.1650
56627SOL    HW181860  10.782   5.368   0.463  0.8158 -0.6674  3.2516
56627SOL    HW281861  10.767   5.512   0.421 -1.6303 -1.7893 -0.0924
56628SOL     OW81862   1.070  12.941   5.084  0.6742 -0.5320 -0.5553
56628SOL    HW181863   1.015  12.920   5.159  0.1718  1.4869 -0.2885
56628SOL    HW281864   1.014  12.996   5.028  2.0836  0.7539 -0.7582
56629SOL     OW81865   8.533   2.420   4.103  0.1188  0.2199  0.2395
56629SOL    HW181866   8.464   2.398   4.041  0.2345 -0.3803  0.3205
56629SOL    HW281867   8.614   2.396   4.058  0.1565 -1.1815  0.9996
56630SOL     OW81868   6.137   2.810   6.749 -0.3289 -0.3172 -0.0069
56630SOL    HW181869   6.153   2.814   6.843 -0.6952 -0.6691  0.0751
56630SOL    HW281870   6.137   2.716   6.728 -1.3678 -0.3005 -0.1475
56631SOL     OW81871   4.922  11.171   1.751  0.2252 -0.0460  0.2161
56631SOL    HW181872   4.892  11.127   1.671 -1.5032 -0.3509  0.9779
56631SOL    HW281873   4.951  11.257   1.721  1.3219 -0.7864 -0.9643
56632SOL     OW81874   6.457   4.916   0.913 -0.4668 -0.0175 -0.3421
56632SOL    HW181875   6.398   4.973   0.865 -0.2436  0.5456  0.0383
56632SOL    HW281876   6.406   4.885   0.988 -0.3098  0.4023 -0.0591
56633SOL     OW81877   8.951   2.232   1.371 -0.0178 -0.2324 -0.2901
56633SOL    HW181878   8.862   2.215   1.402  0.3647 -1.6929  0.0646
56633SOL    HW281879   8.940   2.300   1.304 -1.4242 -0.5678 -0.4351
56634SOL     OW81880   4.140  10.406  11.799  0.5553 -0.2640 -0.3851
56634SOL    HW181881   4.128  10.356  11.718 -0.3183  0.4681 -0.7230
56634SOL    HW281882   4.221  10.455  11.785  0.3902 -0.1156 -0.8377
56635SOL     OW81883   3.463  13.529  12.675 -0.1195 -0.1965 -0.2126
56635SOL    HW181884   3.538  13.524  12.734  0.4288  1.3590 -0.7389
56635SOL    HW281885   3.411  13.451  12.696  0.1035  0.2314  2.2514
56636SOL     OW81886   2.616   4.124   3.159 -0.1889 -0.4304 -0.4861
56636SOL    HW181887   2.546   4.113   3.094 -0.1574  0.0473 -0.6098
56636SOL    HW281888   2.573   4.165   3.234 -0.6608 -2.8276  0.6305
56637SOL     OW81889   4.416   3.507  12.662 -0.3017 -0.3267  0.4440
56637SOL    HW181890   4.439   3.573  12.726  0.0747 -2.5682  2.7772
56637SOL    HW281891   4.482   3.439  12.672  0.3380 -0.4066 -3.0607
56638SOL     OW81892   7.005   4.828   2.449 -0.1433  0.1350  0.0223
56638SOL    HW181893   7.081   4.868   2.490  0.0453 -1.1535  0.9698
56638SOL    HW281894   6.930   4.859   2.500  0.0796 -1.3624  1.3501
56639SOL     OW81895   2.588   5.037   5.783  0.3974 -0.0090  0.2974
56639SOL    HW181896   2.503   4.995   5.796  0.8243 -0.4044  2.2491
56639SOL    HW281897   2.652   4.971   5.810  1.3875  0.1281 -1.5629
56640SOL     OW81898   0.088  11.226   1.349 -0.0497 -0.0764  0.1811
56640SOL    HW181899   0.142  11.278   1.409 -0.8853 -0.4116  1.2759
56640SOL    HW281900   0.091  11.273   1.266  0.0206  1.1827  0.8687
56641SOL     OW81901   9.432   6.292  13.265  0.1513  0.2486 -0.2577
56641SOL    HW181902   9.428   6.201  13.235 -2.1535 -0.2068  1.1810
56641SOL    HW281903   9.496   6.291  13.336  1.8042  0.2761 -1.6774
56642SOL     OW81904  13.883  11.995   4.876 -0.1316  0.3925 -0.2539
56642SOL    HW181905  13.964  11.947   4.858 -0.9192 -1.5880  1.1915
56642SOL    HW281906  13.913  12.084   4.897  1.6422 -0.1870 -0.1144
56643SOL     OW81907  12.238   9.897   2.975 -0.4612  0.3761  0.4158
56643SOL    HW181908  12.163   9.846   2.944 -0.2778 -1.0542  2.1963
56643SOL    HW281909  12.223   9.985   2.940 -2.8017  0.0525  0.4758
56644SOL     OW81910   5.031   0.590   4.266 -0.2682 -0.0496  0.0171
56644SOL    HW181911   5.021   0.506   4.219 -0.3277  0.2015 -0.4284
56644SOL    HW281912   4.943   0.628   4.265  0.2744  1.3574 -2.3592
56645SOL     OW81913  13.519   5.319   4.093  0.2076  0.3415  0.1808
56645SOL    HW181914  13.482   5.251   4.038  0.0210  0.8290 -0.3063
56645SOL    HW281915  13.461   5.323   4.169  0.2876 -0.1139  0.2682
56646SOL     OW81916  11.269  13.255   1.748  0.1647 -0.0882 -0.5622
56646SOL    HW181917  11.317  13.258   1.830 -1.7888  4.0591  0.7217
56646SOL    HW281918  11.209  13.181   1.757  0.7096 -0.3407  1.3054
56647SOL     OW81919   9.280   5.850   4.497  0.4394 -0.8927 -0.5629
56647SOL    HW181920   9.366   5.841   4.457 -0.1209 -1.2555 -1.7645
56647SOL    HW281921   9.278   5.784   4.566  1.5326 -0.0703  0.2841
56648SOL     OW81922  12.153  11.323   4.746  0.1023 -0.6021  0.0442
56648SOL    HW181923  12.124  11.414   4.748  1.1220 -0.2677  0.0888
56648SOL    HW281924  12.183  11.309   4.656 -1.2910 -1.3107 -0.3415
56649SOL     OW81925   1.979   5.462   0.532 -0.2654  0.3916  0.6309
56649SOL    HW181926   1.920   5.404   0.483 -0.0559  0.0267  0.8082
56649SOL    HW281927   2.063   5.453   0.488 -0.0858  0.0939  1.0268
56650SOL     OW81928   0.863   1.761   7.741 -0.7150 -0.3097 -0.3935
56650SOL    HW181929   0.846   1.852   7.715 -0.9700 -0.5446 -1.0676
56650SOL    HW281930   0.954   1.746   7.715 -0.2894  0.1103  0.7868
56651SOL     OW81931   8.973  10.404   1.784  0.3029 -0.1493 -0.0946
56651SOL    HW181932   9.049  10.454   1.755  0.4539  0.2178  0.8865
56651SOL    HW281933   8.990  10.315   1.754  0.5527  0.1646 -0.9070
56652SOL     OW81934  11.857  12.095   6.137  0.5908  0.3608  0.1919
56652SOL    HW181935  11.939  12.045   6.134  0.9744  1.0056 -0.3323
56652SOL    HW281936  11.825  12.094   6.047 -1.4076 -2.1682  0.8308
56653SOL     OW81937   0.464   7.664  11.142 -0.2906  0.2534 -0.2187
56653SOL    HW181938   0.500   7.712  11.218  0.8825 -0.7877 -0.0824
56653SOL    HW281939   0.541   7.628  11.099 -1.0383 -0.0431 -1.3236
56654SOL     OW81940   0.614   9.744   2.504 -0.1359  0.7605  0.4573
56654SOL    HW181941   0.594   9.698   2.585  0.4608 -0.7680 -0.2300
56654SOL    HW281942   0.706   9.722   2.486 -0.9492 -1.0339 -1.9269
56655SOL     OW81943  10.168   3.428  13.982  0.0051  0.3065 -0.0552
56655SOL    HW181944  10.261   3.411  14.000 -0.2055 -1.5488 -0.4490
56655SOL    HW281945  10.168   3.481  13.903  0.7316  0.6138  0.1386
56656SOL     OW81946   2.930  10.284   2.222 -0.3818  0.0427 -0.2483
56656SOL    HW181947   2.898  10.195   2.216  0.4797 -0.5634  2.6484
56656SOL    HW281948   3.009  10.285   2.167  0.3061 -1.3884  0.6557
56657SOL     OW81949  12.500   2.262   0.600  0.0501  0.6507  0.1317
56657SOL    HW181950  12.443   2.318   0.547  0.3411 -0.0874 -1.0086
56657SOL    HW281951  12.582   2.311   0.606  0.7854 -0.1603 -2.0453
56658SOL     OW81952   7.420  13.503   2.848  0.4015  0.2767 -0.0108
56658SOL    HW181953   7.393  13.557   2.921  0.5636  0.4415 -0.0698
56658SOL    HW281954   7.363  13.529   2.776  1.0159  0.9605 -0.2655
56659SOL     OW81955   6.748   6.648   3.784 -0.1125  0.2469 -0.2489
56659SOL    HW181956   6.816   6.694   3.833 -1.0384  1.0188  0.3230
56659SOL    HW281957   6.677   6.634   3.846 -0.4486 -0.6680 -0.8063
56660SOL     OW81958  12.936  13.179   0.841 -0.6579  0.0603 -0.5054
56660SOL    HW181959  12.851  13.168   0.798 -1.0896 -0.3749  0.4225
56660SOL    HW281960  12.941  13.107   0.903  0.2972  0.2183 -0.3799
56661SOL     OW81961   6.853   4.417   3.809 -0.1588 -0.0492  0.0474
56661SOL    HW181962   6.782   4.384   3.865  2.0646 -0.6153  2.7469
56661SOL    HW281963   6.909   4.341   3.794  3.0119  1.3776  3.1545
56662SOL     OW81964   2.590   6.985   6.949 -1.0858  0.5207  0.0186
56662SOL    HW181965   2.656   7.048   6.919 -0.5405  0.1055  0.3130
56662SOL    HW281966   2.535   7.033   7.010 -1.7327  1.1700 -1.0573
56663SOL     OW81967   7.493   0.287   8.021 -0.5219  0.0414 -0.0466
56663SOL    HW181968   7.551   0.231   7.969 -0.0019  0.2645  0.2839
56663SOL    HW281969   7.478   0.237   8.101  1.1523  0.9706  0.9081
56664SOL     OW81970   6.418  11.799  12.918  0.1688  0.0252  0.0827
56664SOL    HW181971   6.412  11.892  12.898 -0.0093 -0.1843 -0.8792
56664SOL    HW281972   6.507  11.774  12.892 -0.0429 -0.2351 -0.4154
56665SOL     OW81973   8.079  13.244  12.821 -0.2597  0.9454  1.0472
56665SOL    HW181974   8.030  13.235  12.903 -0.6508  0.6778  0.7908
56665SOL    HW281975   8.151  13.303  12.842 -0.7898  1.4812  1.3952
56666SOL     OW81976   3.475  10.014   4.557 -0.2796 -0.7367  0.2291
56666SOL    HW181977   3.522  10.087   4.597 -1.8011  1.0705 -1.1676
56666SOL    HW281978   3.543   9.968   4.507  0.5304  0.2302  0.3966
56667SOL     OW81979   6.026   4.846   8.635  0.1759  0.0509 -0.0830
56667SOL    HW181980   6.036   4.783   8.564 -0.1409  1.0945 -1.0846
56667SOL    HW281981   5.936   4.878   8.626  0.6646  1.4083 -0.2535
56668SOL     OW81982  13.252  10.933  12.640  0.7559  0.8148  0.0496
56668SOL    HW181983  13.223  10.983  12.716  0.9812  1.0325 -0.0084
56668SOL    HW281984  13.341  10.963  12.623  1.0980 -0.0032  0.3517
56669SOL     OW81985   7.618  12.283   4.628 -0.2501 -0.1887  0.0289
56669SOL    HW181986   7.685  12.350   4.616 -2.0062  1.4370 -1.4359
56669SOL    HW281987   7.652  12.227   4.698  2.1666  1.0774 -0.0134
56670SOL     OW81988   1.875   8.042   3.849 -0.2703  0.1455 -0.0376
56670SOL    HW181989   1.946   8.106   3.843 -1.3585  1.4652  0.6002
56670SOL    HW281990   1.895   7.989   3.926  0.4219 -0.0166 -0.3246
56671SOL     OW81991   6.035  10.267   2.938 -0.7229  0.0111 -0.3023
56671SOL    HW181992   6.074  10.259   3.026 -0.3890  3.1852 -0.0348
56671SOL    HW281993   5.943  10.247   2.951 -0.7202  0.6574  0.8332
56672SOL     OW81994   0.067   2.493   4.692  0.2000  0.1044  0.3109
56672SOL    HW181995   0.123   2.469   4.766  0.6446  0.3752  0.0644
56672SOL    HW281996   0.022   2.412   4.668 -0.8665  0.2593  1.6516
56673SOL     OW81997   6.872   6.980  13.546  0.4968 -0.1011  0.0286
56673SOL    HW181998   6.868   6.884  13.546  1.9612 -0.1906 -0.5180
56673SOL    HW281999   6.880   7.003  13.453  2.1670  0.4001  0.2543
56674SOL     OW82000   9.749   6.173   9.970  0.3634  0.7196  0.2138
56674SOL    HW182001   9.828   6.156   9.919  0.4045  2.3303 -0.3025
56674SOL    HW282002   9.780   6.223  10.046 -0.2954  2.7191 -0.7677
56675SOL     OW82003  13.044   4.002   2.909 -0.1587  0.3808  0.0302
56675SOL    HW182004  12.988   4.036   2.840  2.3903  1.3172 -1.7202
56675SOL    HW282005  13.076   3.918   2.876  0.3027  0.3616  0.5003
56676SOL     OW82006   8.113   2.113   5.391 -0.1630 -0.2937 -0.0275
56676SOL    HW182007   8.052   2.185   5.406 -0.4866  0.1418 -2.8251
56676SOL    HW282008   8.173   2.116   5.465 -1.0363  1.9377  0.6677
56677SOL     OW82009   2.435  13.712   6.000  0.2863 -0.1474  0.0207
56677SOL    HW182010   2.426  13.804   5.973  1.3485 -0.0191  0.0505
56677SOL    HW282011   2.411  13.713   6.093  0.7885  0.2027  0.1521
56678SOL     OW82012   2.787   0.760  10.760 -0.4391 -0.3666  0.2145
56678SOL    HW182013   2.835   0.812  10.824 -0.3888  1.8848 -1.5254
56678SOL    HW282014   2.696   0.763  10.791 -0.6276  1.7641 -0.4084
56679SOL     OW82015   9.581   8.525  11.497 -0.2064 -0.0345  0.4397
56679SOL    HW182016   9.644   8.453  11.507 -1.2407 -0.9805  0.3644
56679SOL    HW282017   9.503   8.494  11.543 -0.1161  1.7996  1.9858
56680SOL     OW82018   7.540   6.501   3.688  0.1468 -0.0583 -0.6367
56680SOL    HW182019   7.495   6.512   3.772 -0.1552  1.0018 -0.9205
56680SOL    HW282020   7.616   6.447   3.708  1.8843  2.7503  0.9895
56681SOL     OW82021   2.483   9.762   2.284 -0.1958  1.0277  0.5045
56681SOL    HW182022   2.492   9.855   2.307 -1.3592  1.1311  0.6145
56681SOL    HW282023   2.573   9.728   2.284  0.3627  2.3887 -0.5372
56682SOL     OW82024   5.014   2.256   6.201  0.0536  0.3437  0.1260
56682SOL    HW182025   5.059   2.275   6.283  0.1011 -1.6392  0.6121
56682SOL    HW282026   5.025   2.335   6.148 -0.0440  1.6999  2.0379
56683SOL     OW82027  10.018   7.817  12.473 -0.0779 -0.3415 -1.0537
56683SOL    HW182028   9.953   7.749  12.490 -1.3619  0.6582 -1.8782
56683SOL    HW282029   9.968   7.898  12.467  1.5584  1.0585  1.7138
56684SOL     OW82030   7.086   6.647   2.185 -0.0295  0.2880 -0.2279
56684SOL    HW182031   7.112   6.556   2.200 -1.7455 -0.4034 -1.1147
56684SOL    HW282032   7.127   6.696   2.256  1.0269 -1.1531  0.1955
56685SOL     OW82033   5.928   2.986  13.929 -0.7540  0.3215 -0.5399
56685SOL    HW182034   5.965   2.899  13.916  1.4492  1.4161 -2.6386
56685SOL    HW282035   5.903   2.989  14.021  0.6573 -1.9539 -0.0056
56686SOL     OW82036   7.860  12.272   1.223  0.0583  0.1285  0.4640
56686SOL    HW182037   7.947  12.284   1.259  1.6379 -1.2929 -2.5020
56686SOL    HW282038   7.810  12.230   1.293  1.5928  1.2809  2.3501
56687SOL     OW82039   7.499   3.537  11.077  0.1194  0.0639 -0.2625
56687SOL    HW182040   7.513   3.443  11.073 -0.2998 -0.1520  2.0235
56687SOL    HW282041   7.574   3.571  11.125  1.7079  1.3588 -3.3656
56688SOL     OW82042   7.742  11.077  13.080  0.4157  0.2298  0.1564
56688SOL    HW182043   7.760  11.015  13.009  2.1626  1.1542 -0.2865
56688SOL    HW282044   7.816  11.138  13.077 -1.4854  2.6984  0.2041
56689SOL     OW82045  12.791   5.404   3.351 -0.1894  0.2161  0.1758
56689SOL    HW182046  12.697   5.401   3.334 -0.1123 -0.3071 -0.1767
56689SOL    HW282047  12.802   5.480   3.408 -0.8754  0.0421  0.5576
56690SOL     OW82048  11.609   6.170  11.555  0.0815 -0.0291 -0.5568
56690SOL    HW182049  11.557   6.209  11.625  2.8242  0.1921  1.5166
56690SOL    HW282050  11.617   6.239  11.489 -0.6284  0.5611 -0.0469
56691SOL     OW82051  12.652   9.041  10.983  0.2687  0.1775 -0.6150
56691SOL    HW182052  12.684   9.016  11.069  1.0135  0.5296 -0.7817
56691SOL    HW282053  12.559   9.018  10.984  0.0325  1.0652  0.6253
56692SOL     OW82054   8.273   7.260   5.822 -0.0290 -0.7877  0.3888
56692SOL    HW182055   8.185   7.277   5.855 -0.3151  0.8606 -1.0928
56692SOL    HW282056   8.331   7.276   5.897 -0.7363  1.6905  0.4625
56693SOL     OW82057   1.067  11.035   4.507  0.3750  0.5101  0.2878
56693SOL    HW182058   0.996  11.045   4.444 -2.2381 -0.4752  2.8527
56693SOL    HW282059   1.117  10.959   4.476 -1.8583 -1.0102  0.2088
56694SOL     OW82060   3.591  10.628   5.127  0.2525 -0.4013 -0.0914
56694SOL    HW182061   3.574  10.627   5.033 -0.0470 -0.6135 -0.0383
56694SOL    HW282062   3.608  10.536   5.149 -0.3594 -0.4584  0.1759
56695SOL     OW82063   9.451   3.379  12.296 -0.3464  0.9901  0.3409
56695SOL    HW182064   9.532   3.335  12.322  0.5698  1.7944 -1.0565
56695SOL    HW282065   9.398   3.309  12.257 -0.3519  0.4569  1.2745
56696SOL     OW82066  10.650  11.503  10.896  0.1274  0.4451 -0.1184
56696SOL    HW182067  10.725  11.496  10.955 -0.1382  1.0582  0.3006
56696SOL    HW282068  10.679  11.564  10.828  0.3666 -0.1169 -0.5341
56697SOL     OW82069   1.742   6.514   8.508  0.3987 -0.3141  0.2584
56697SOL    HW182070   1.774   6.424   8.511 -1.7545 -1.1532 -0.1221
56697SOL    HW282071   1.714   6.527   8.417 -0.0093  0.4660  0.4803
56698SOL     OW82072  10.829  10.624  11.903 -0.4087  0.1567  0.0133
56698SOL    HW182073  10.917  10.609  11.868 -0.4604  0.1816 -0.1247
56698SOL    HW282074  10.844  10.665  11.988 -0.2864  0.1405 -0.0006
56699SOL     OW82075   0.099  12.522  10.754 -0.2365  1.0578 -0.4730
56699SOL    HW182076   0.044  12.587  10.798 -1.5040 -0.1785 -0.1513
56699SOL    HW282077   0.037  12.471  10.701  0.7570  0.2527 -0.8867
56700SOL     OW82078  11.792   8.775  10.926 -0.0729  0.0612 -0.5735
56700SOL    HW182079  11.839   8.723  10.990  0.7020  1.0240 -0.3510
56700SOL    HW282080  11.854   8.841  10.897 -0.9547  0.7160 -1.0383
56701SOL     OW82081   1.524  12.667  13.020 -0.4622  0.1082 -0.3837
56701SOL    HW182082   1.458  12.650  12.953 -0.3180 -0.0272 -0.4929
56701SOL    HW282083   1.589  12.722  12.978 -0.3886  0.0519 -0.3458
56702SOL     OW82084  10.324  11.089   7.225  0.5531  0.1203 -0.0939
56702SOL    HW182085  10.373  11.097   7.144 -1.4721 -0.5647 -1.4622
56702SOL    HW282086  10.241  11.049   7.199 -0.7553  1.2454  2.0851
56703SOL     OW82087   9.552   4.971  11.229  0.4851 -0.6740 -0.3080
56703SOL    HW182088   9.482   5.013  11.278 -0.2206 -0.3938 -1.5159
56703SOL    HW282089   9.606   4.928  11.295  0.8937  1.6074  0.9223
56704SOL     OW82090   3.906   6.565  13.623 -0.0549 -0.3198 -0.3286
56704SOL    HW182091   3.940   6.488  13.668 -0.6252  0.9306  2.4438
56704SOL    HW282092   3.812   6.550  13.616  0.0983 -0.7676 -1.7514
56705SOL     OW82093   7.835  12.711   6.808  0.0164  0.9544  0.3646
56705SOL    HW182094   7.784  12.752   6.737 -1.5836 -0.0395  0.8972
56705SOL    HW282095   7.838  12.778   6.877 -0.8231  0.9281  0.4369
56706SOL     OW82096   8.015   3.525  12.128  0.3783 -0.4015 -0.1037
56706SOL    HW182097   7.967   3.456  12.174 -1.0161  0.0872 -0.7886
56706SOL    HW282098   8.087   3.547  12.187  0.2195 -1.6836  0.6066
56707SOL     OW82099  12.682  12.757   5.013  0.2574 -0.5316  0.3777
56707SOL    HW182100  12.641  12.841   4.991  0.5388 -0.2513  0.9265
56707SOL    HW282101  12.668  12.747   5.107  1.2448 -0.5433  0.5337
56708SOL     OW82102  10.897  10.346  10.629  0.4653  0.2298  0.4964
56708SOL    HW182103  10.897  10.386  10.716  1.2486  2.2661 -0.3818
56708SOL    HW282104  10.845  10.406  10.575 -0.0079 -1.0010 -0.4729
56709SOL     OW82105   1.020   4.997   6.421  0.2394  1.0548 -0.0111
56709SOL    HW182106   0.943   5.011   6.366  1.2436  1.4379 -1.3583
56709SOL    HW282107   0.994   5.030   6.507 -0.6828  2.3430 -0.7472
56710SOL     OW82108   2.047   5.645   0.938 -0.1334  0.1220 -0.5359
56710SOL    HW182109   2.002   5.583   0.881 -1.8429  0.8186 -0.0086
56710SOL    HW282110   2.066   5.595   1.017  0.7507 -0.3895 -1.0569
56711SOL     OW82111   0.889   3.142  11.799 -0.6323  0.3009  0.1315
56711SOL    HW182112   0.955   3.171  11.863  2.2962 -1.9421 -1.6174
56711SOL    HW282113   0.898   3.205  11.727 -0.7029  0.2365  0.0673
56712SOL     OW82114   7.845  11.329   4.278 -0.2015 -0.2507  0.0974
56712SOL    HW182115   7.823  11.423   4.275  0.9576  0.0261 -0.8597
56712SOL    HW282116   7.795  11.295   4.351  0.0938  1.3298  1.0919
56713SOL     OW82117   8.423   4.886  10.947 -0.0725  0.8243  0.0722
56713SOL    HW182118   8.416   4.910  11.040  2.7309  3.8528 -0.3157
56713SOL    HW282119   8.469   4.802  10.946 -0.8997  0.3279  1.3798
56714SOL     OW82120   4.307   2.029   1.726  0.0427  0.4500  0.2125
56714SOL    HW182121   4.393   1.993   1.708  0.2049  0.6741  0.5350
56714SOL    HW282122   4.247   1.956   1.712  0.3308  0.1660  0.4428
56715SOL     OW82123   2.930   6.469  13.481 -0.3132 -0.1516 -0.2058
56715SOL    HW182124   3.005   6.454  13.424 -0.7129  0.3009 -0.8729
56715SOL    HW282125   2.958   6.440  13.568  1.1196  1.2971 -0.1410
56716SOL     OW82126  10.554   2.336   0.946 -0.1425  0.8836 -0.1343
56716SOL    HW182127  10.519   2.321   0.858  0.5386 -1.5358 -0.0782
56716SOL    HW282128  10.476   2.347   1.001 -0.7396 -0.6729 -0.5939
56717SOL     OW82129   4.740   8.416   5.690 -0.3720 -0.5032 -0.0318
56717SOL    HW182130   4.778   8.499   5.718 -1.7058 -0.2358  1.1167
56717SOL    HW282131   4.725   8.426   5.596 -0.3743  0.5109  0.0749
56718SOL     OW82132   6.364   9.898  14.022 -0.2312  0.3189  0.0088
56718SOL    HW182133   6.325   9.848  13.951  0.5518  0.4375 -0.5254
56718SOL    HW282134   6.327   9.861  14.102 -1.0530  0.1209 -0.4520
56719SOL     OW82135   8.376   2.939   7.547  0.3951  0.3360  0.1706
56719SOL    HW182136   8.305   2.877   7.528  0.5768  0.4423 -0.8767
56719SOL    HW282137   8.364   3.009   7.483  2.4585 -0.4729 -1.1829
56720SOL     OW82138   0.366  13.017   2.361 -0.1238 -0.0665  0.5455
56720SOL    HW182139   0.371  12.940   2.418 -0.5457 -0.6258 -0.1584
56720SOL    HW282140   0.414  12.991   2.282 -0.5766  0.2689  0.1592
56721SOL     OW82141  10.258   0.644   4.041  0.3924  0.1405  0.3421
56721SOL    HW182142  10.312   0.680   3.970  0.3533  1.9191  1.1657
56721SOL    HW282143  10.321   0.601   4.099  0.4373 -1.2433 -0.6622
56722SOL     OW82144  10.027   3.314  10.787  0.0261  0.3079  0.8787
56722SOL    HW182145  10.109   3.361  10.803 -0.0533  0.1478  1.8009
56722SOL    HW282146  10.052   3.221  10.789  0.2553  0.2743 -1.3262
56723SOL     OW82147  13.696   7.876   7.041  0.2566 -0.3672 -0.2292
56723SOL    HW182148  13.605   7.847   7.034 -0.3806  0.9261  1.7785
56723SOL    HW282149  13.690   7.971   7.050  1.6935 -0.3659  1.1915
56724SOL     OW82150   4.054   3.067   4.501 -0.6908  0.1817 -0.6862
56724SOL    HW182151   4.134   3.072   4.449 -1.2479 -1.6876 -1.7952
56724SOL    HW282152   4.011   3.152   4.487  1.2512  1.3715  0.2616
56725SOL     OW82153   0.044  13.046  13.578  0.8754  0.3695  0.1305
56725SOL    HW182154   0.055  12.993  13.657 -0.9494 -1.2811 -0.6269
56725SOL    HW282155   0.078  12.990  13.507 -1.3347  0.0091 -0.7199
56726SOL     OW82156  10.466   4.258   7.440 -0.0317 -0.9660  0.1054
56726SOL    HW182157  10.375   4.256   7.412 -0.1815  0.5753  0.4268
56726SOL    HW282158  10.499   4.169   7.421 -1.6222 -1.5891  0.1447
56727SOL     OW82159  11.542   6.486  11.423  0.3742 -0.4778  0.4887
56727SOL    HW182160  11.629   6.495  11.464 -0.4381 -0.4478  2.3218
56727SOL    HW282161  11.558   6.434  11.344  1.9923 -0.9212  1.0595
56728SOL     OW82162   4.047   9.517  13.722  0.4069 -0.6076  0.4300
56728SOL    HW182163   4.021   9.464  13.646  1.3367  0.4892 -0.6992
56728SOL    HW282164   4.134   9.550  13.699  0.8495 -0.5075  2.1341
56729SOL     OW82165   0.858  13.612   1.645 -0.3116 -0.1485  0.0309
56729SOL    HW182166   0.859  13.658   1.729 -1.3664  0.1181 -0.0847
56729SOL    HW282167   0.880  13.680   1.580 -2.9274  0.5125 -0.2557
56730SOL     OW82168   6.574   6.062  10.004  0.1735 -0.7497 -0.2099
56730SOL    HW182169   6.549   6.079  10.095 -0.8231  1.0333 -0.7624
56730SOL    HW282170   6.508   6.110   9.953  2.1719  0.4010 -1.8325
56731SOL     OW82171   7.962   0.786   3.501 -0.2064 -0.0532 -0.1494
56731SOL    HW182172   8.025   0.779   3.430 -0.3497 -1.1892 -0.1882
56731SOL    HW282173   7.879   0.807   3.458 -0.0074  0.7291 -0.1652
56732SOL     OW82174   6.337  12.584  13.816 -0.0043 -0.1514  0.7257
56732SOL    HW182175   6.376  12.518  13.758 -0.5060  1.5121 -1.6552
56732SOL    HW282176   6.365  12.558  13.903  0.9662 -2.7018 -0.2356
56733SOL     OW82177   2.794   1.361   5.364  0.4996  0.1616  0.0421
56733SOL    HW182178   2.829   1.423   5.300  0.9639  0.4105  0.5239
56733SOL    HW282179   2.717   1.323   5.322 -0.5245  1.9593  0.1888
56734SOL     OW82180   0.633   9.716   6.369 -0.2664  0.0518 -0.2698
56734SOL    HW182181   0.658   9.629   6.338  0.1345  0.0775 -0.0361
56734SOL    HW282182   0.553   9.737   6.321 -0.5903 -0.6140 -0.0421
56735SOL     OW82183  11.059  12.368  10.132  0.5186 -0.6401 -0.2076
56735SOL    HW182184  10.966  12.348  10.119  0.1366  0.6701  0.3512
56735SOL    HW282185  11.104  12.313  10.068 -0.6097 -1.5513 -0.2626
56736SOL     OW82186   0.561   0.889   3.563 -0.0672 -0.2612 -0.3384
56736SOL    HW182187   0.546   0.950   3.635  0.8087 -0.2203 -0.1784
56736SOL    HW282188   0.602   0.813   3.604 -1.1383 -0.9723 -0.5353
56737SOL     OW82189   6.124  12.978  13.944  0.0374 -0.3185  0.2134
56737SOL    HW182190   6.215  13.002  13.925 -0.2134  0.9360  0.5153
56737SOL    HW282191   6.112  12.894  13.900  0.9304  0.1588 -0.9928
56738SOL     OW82192  12.658  10.234   4.650  0.0481  0.1478 -0.1037
56738SOL    HW182193  12.691  10.271   4.569 -1.9232  0.8280 -0.6611
56738SOL    HW282194  12.712  10.157   4.666  1.2225  0.6695 -1.4203
56739SOL     OW82195   1.573  13.727  13.417  0.0238  0.0620  0.4461
56739SOL    HW182196   1.666  13.748  13.404 -0.1727  1.0337  0.5396
56739SOL    HW282197   1.548  13.681  13.337 -0.0279  2.0341 -0.7428
56740SOL     OW82198  13.705   4.032   4.346  0.1055 -0.1687  0.3016
56740SOL    HW182199  13.631   4.080   4.383  0.0642 -1.3888  1.9387
56740SOL    HW282200  13.710   3.952   4.399  3.2914  0.3771  1.0341
56741SOL     OW82201   1.715  10.684   0.300 -0.0106 -0.2776 -0.5007
56741SOL    HW182202   1.728  10.650   0.389 -0.7904 -0.0669 -0.2999
56741SOL    HW282203   1.644  10.631   0.264 -0.7632  0.6730 -0.4345
56742SOL     OW82204   5.166   2.390   9.468 -0.3048  0.4388  0.7889
56742SOL    HW182205   5.176   2.295   9.477  1.1114  0.5918  1.0063
56742SOL    HW282206   5.146   2.420   9.556  1.8433  0.6063  1.2711
56743SOL     OW82207   2.944   2.997   1.673 -0.1083 -0.1665 -0.4307
56743SOL    HW182208   2.891   2.917   1.680  0.2414 -0.4939 -1.3848
56743SOL    HW282209   2.880   3.067   1.660 -0.4000 -0.3315  0.0838
56744SOL     OW82210   2.937   5.213  13.699 -0.1454 -0.4724  0.3076
56744SOL    HW182211   3.013   5.243  13.649 -0.1549 -1.0928 -0.0912
56744SOL    HW282212   2.862   5.250  13.654 -0.1321 -0.7141  0.0821
56745SOL     OW82213   3.392   6.819  12.340  0.1915  0.3105 -0.9155
56745SOL    HW182214   3.452   6.838  12.268 -0.4271 -1.6691 -1.9979
56745SOL    HW282215   3.313   6.868  12.320  0.5972  1.0811 -0.6862
56746SOL     OW82216   2.745   6.934   9.479  0.0900 -0.3875 -0.4663
56746SOL    HW182217   2.797   6.857   9.460  0.3015 -0.2797 -0.3257
56746SOL    HW282218   2.754   6.990   9.402 -0.3977 -0.6834 -0.7421
56747SOL     OW82219   2.812   1.632   5.514 -0.3138  0.0842  0.2530
56747SOL    HW182220   2.832   1.608   5.424 -1.9947  0.3316 -0.2216
56747SOL    HW282221   2.810   1.727   5.514  1.5657  0.1591  1.0222
56748SOL     OW82222  10.332  10.607   2.716  0.2932 -0.1931 -0.0254
56748SOL    HW182223  10.333  10.520   2.757  1.1464  0.2185  0.8911
56748SOL    HW282224  10.240  10.626   2.702 -0.1471 -0.0512  2.4808
56749SOL     OW82225   7.917   9.559   5.424  0.7265 -0.2847 -0.1599
56749SOL    HW182226   7.955   9.479   5.460  0.8150  0.6846  2.0317
56749SOL    HW282227   7.853   9.528   5.359  0.2563 -2.1651  1.1280
56750SOL     OW82228  13.159   1.500   0.805  0.5145 -0.0288  0.0441
56750SOL    HW182229  13.099   1.472   0.736  1.0625  0.7327 -0.7678
56750SOL    HW282230  13.214   1.567   0.764  1.6964 -0.4536  0.8576
56751SOL     OW82231  13.969   7.704  12.080  0.2004 -0.1491 -0.7362
56751SOL    HW182232  14.027   7.723  12.154  0.5063  2.3302 -1.4929
56751SOL    HW282233  13.882   7.699  12.118  0.4171  0.5418 -0.1245
56752SOL     OW82234   1.471   1.560   2.554 -0.7262 -0.0947  0.0396
56752SOL    HW182235   1.449   1.476   2.595  0.3068 -1.3977 -1.9212
56752SOL    HW282236   1.386   1.599   2.532 -1.2075 -0.8496  0.5330
56753SOL     OW82237   6.370   6.045   6.265  0.4033  0.2330  0.0590
56753SOL    HW182238   6.288   6.024   6.221 -0.0509  0.0956  0.9320
56753SOL    HW282239   6.381   6.139   6.254 -0.9278  0.6168  1.6089
56754SOL     OW82240   0.943   4.237   8.706 -0.0022  0.0011  0.0243
56754SOL    HW182241   0.999   4.199   8.773  2.9816  1.1541 -1.6134
56754SOL    HW282242   0.925   4.326   8.737  0.3610  0.1270 -0.1161
56755SOL     OW82243   4.967   3.788  10.328  0.0876 -0.1058  0.7266
56755SOL    HW182244   4.923   3.841  10.394  0.0920  0.7020  0.1013
56755SOL    HW282245   4.924   3.811  10.246 -0.6274 -1.8731  0.5725
56756SOL     OW82246   9.665  13.000   7.011 -0.4614  0.3341 -0.0808
56756SOL    HW182247   9.642  12.909   6.991 -1.0600  0.7069 -1.1627
56756SOL    HW282248   9.599  13.052   6.965  0.7016  1.3549 -0.6367
56757SOL     OW82249   7.747   3.643  13.916 -0.3036 -0.5600  0.3471
56757SOL    HW182250   7.728   3.704  13.845 -2.7313  0.8044  2.0385
56757SOL    HW282251   7.838   3.662  13.941 -0.3138  0.8257 -0.6071
56758SOL     OW82252   7.430   2.286   3.093 -0.4219  0.0529 -0.4450
56758SOL    HW182253   7.393   2.374   3.087  1.2634  0.9044  0.9245
56758SOL    HW282254   7.356   2.231   3.118 -1.0667  1.4572  0.8759
56759SOL     OW82255  11.813   3.273   3.913 -0.1338 -0.2037  0.1073
56759SOL    HW182256  11.785   3.207   3.977 -1.5656  1.2452  1.0423
56759SOL    HW282257  11.883   3.321   3.958 -0.5211  0.2358  0.2458
56760SOL     OW82258  11.497   3.107  11.978  0.2721 -0.2862  0.7339
56760SOL    HW182259  11.575   3.053  11.989  0.8912  0.4375  0.0767
56760SOL    HW282260  11.505   3.175  12.045  0.3498 -0.0699  0.5106
56761SOL     OW82261  13.311   6.818   3.668 -0.5059 -0.7010 -0.0166
56761SOL    HW182262  13.390   6.867   3.647 -0.0464 -0.9587  1.0599
56761SOL    HW282263  13.246   6.885   3.689 -0.1625 -0.5273  0.4927
56762SOL     OW82264   1.490   7.948  13.975  0.2075  0.2856 -0.2031
56762SOL    HW182265   1.557   7.971  14.039  0.1229  0.4594 -0.1747
56762SOL    HW282266   1.473   8.030  13.928  0.6584  0.0344 -0.8159
56763SOL     OW82267   9.434   2.251   7.442  0.0750  0.5384  0.0582
56763SOL    HW182268   9.414   2.191   7.370 -0.2633  0.8168 -0.0789
56763SOL    HW282269   9.395   2.210   7.519 -0.4185  0.7386 -0.0886
56764SOL     OW82270   6.107   7.058  13.083  0.2880  0.1375 -0.2317
56764SOL    HW182271   6.063   7.122  13.138  0.6384  0.6779 -0.5667
56764SOL    HW282272   6.118   7.102  12.999  0.0543 -0.5538 -0.6387
56765SOL     OW82273   6.626  11.964   7.909 -0.0675  0.5120 -0.1755
56765SOL    HW182274   6.609  11.933   7.820  0.2436 -0.5701  0.1210
56765SOL    HW282275   6.632  12.059   7.901  0.8875  0.3673 -1.4709
56766SOL     OW82276  14.014   7.761   4.357  0.2485  0.0703 -0.5040
56766SOL    HW182277  13.979   7.727   4.439 -1.6819  1.4513 -0.6708
56766SOL    HW282278  13.958   7.722   4.290 -1.2956  2.5553 -0.7677
56767SOL     OW82279   8.980   3.738   2.069 -0.0786 -0.0191 -0.0429
56767SOL    HW182280   8.911   3.728   2.134  0.5627 -0.5682  0.5667
56767SOL    HW282281   9.035   3.809   2.102  0.2739 -0.3280  0.0457
56768SOL     OW82282   8.519   0.712   0.091 -0.1808 -0.0727  0.3485
56768SOL    HW182283   8.502   0.618   0.096 -2.1428  0.1263 -1.0931
56768SOL    HW282284   8.450   0.745   0.034  1.6622  1.9374 -0.9055
56769SOL     OW82285  12.323  10.452   6.778 -0.0308 -0.0935  0.0943
56769SOL    HW182286  12.237  10.412   6.787  0.4299 -1.1849 -0.1811
56769SOL    HW282287  12.384  10.379   6.787  0.8198  0.4657 -0.9445
56770SOL     OW82288   8.632   3.864   6.383 -0.2159 -0.8101 -0.0831
56770SOL    HW182289   8.689   3.903   6.317  0.3301 -1.8314 -0.2292
56770SOL    HW282290   8.627   3.772   6.359 -1.5290 -0.8458  0.2222
56771SOL     OW82291   7.688  13.066  13.188 -0.0097 -0.2666 -0.2061
56771SOL    HW182292   7.649  13.091  13.104 -1.2891  0.7347  0.6602
56771SOL    HW282293   7.614  13.041  13.243  0.8075 -0.8671  0.6628
56772SOL     OW82294  13.386   3.428   3.374 -0.1379 -0.7963  0.6455
56772SOL    HW182295  13.430   3.351   3.340  0.2849 -0.4488  0.3879
56772SOL    HW282296  13.363   3.406   3.464 -2.5925 -2.2916 -0.2424
56773SOL     OW82297   8.575   0.389  11.081  0.1823  0.1969 -0.5720
56773SOL    HW182298   8.535   0.471  11.108  0.0449 -0.6661  2.1255
56773SOL    HW282299   8.669   0.402  11.095  0.4213  0.5927 -2.2937
56774SOL     OW82300   6.941  11.992  11.368 -0.2614  0.6186 -0.7098
56774SOL    HW182301   6.898  11.907  11.379  0.3545  0.4204  0.3606
56774SOL    HW282302   6.999  11.980  11.293  1.5657 -0.7032  0.7952
56775SOL     OW82303  13.732   2.965   9.465 -0.3044  0.4102 -0.2317
56775SOL    HW182304  13.662   2.985   9.528 -1.9560 -2.7002 -0.8759
56775SOL    HW282305  13.800   2.923   9.517  1.0121  3.0208  0.3143
56776SOL     OW82306  10.215   6.512   1.264  0.1393  0.2735 -0.0223
56776SOL    HW182307  10.248   6.470   1.343  1.7668  1.0623 -0.2467
56776SOL    HW282308  10.122   6.490   1.262  0.4904 -1.4382  1.0168
56777SOL     OW82309   5.615  12.246  12.705 -0.6336 -0.3704 -0.5391
56777SOL    HW182310   5.541  12.251  12.645 -0.3097 -1.4106 -1.0415
56777SOL    HW282311   5.647  12.336  12.710 -1.9849  0.1095 -0.2306
56778SOL     OW82312   7.526  12.914   2.317  0.9393 -0.0907 -0.1664
56778SOL    HW182313   7.445  12.961   2.334  1.3759  0.5894  0.0873
56778SOL    HW282314   7.573  12.969   2.254  0.9012 -0.8226 -0.8424
56779SOL     OW82315   9.065   3.700  13.947  0.5703  0.3983  0.1974
56779SOL    HW182316   8.990   3.680  13.890 -1.0212  0.8987  1.9819
56779SOL    HW282317   9.138   3.713  13.887 -0.8868  0.3859 -1.6899
56780SOL     OW82318   3.940   6.450   9.848  0.3138  0.4690 -0.2368
56780SOL    HW182319   3.960   6.369   9.802 -0.7533 -0.7122  1.3135
56780SOL    HW282320   3.989   6.517   9.799  2.6412 -1.3069 -0.5308
56781SOL     OW82321   3.249   0.334  12.846 -0.2907  0.1221 -0.4955
56781SOL    HW182322   3.288   0.251  12.874 -1.6654 -0.8822 -1.3683
56781SOL    HW282323   3.312   0.369  12.783 -0.1345 -0.7769 -0.8680
56782SOL     OW82324   2.940  10.064   5.121  0.0115 -0.2618  0.2334
56782SOL    HW182325   2.990  10.008   5.062  0.8420 -1.8859  2.3643
56782SOL    HW282326   2.849  10.037   5.108  0.2867 -1.2911  0.3783
56783SOL     OW82327   6.796   6.485   3.585  0.5102 -0.4567  0.2233
56783SOL    HW182328   6.754   6.531   3.659 -0.7233 -0.7958 -0.2298
56783SOL    HW282329   6.772   6.538   3.508 -1.0477 -1.8775 -0.3235
56784SOL     OW82330   4.925   7.924   6.257  0.0571  0.0303 -0.1449
56784SOL    HW182331   4.872   7.876   6.321  0.7319 -1.4242 -0.6240
56784SOL    HW282332   4.887   8.012   6.255 -0.2755 -0.0347  1.8754
56785SOL     OW82333   9.940   1.814   9.912  0.3877 -0.4676  0.4618
56785SOL    HW182334   9.902   1.842   9.829  0.3259  0.6411  0.8506
56785SOL    HW282335   9.882   1.851   9.979  0.0975 -1.8433  1.0144
56786SOL     OW82336   3.120  13.274  12.193 -0.0904 -0.3852  0.0021
56786SOL    HW182337   3.205  13.296  12.232 -0.5755 -0.0394  0.9205
56786SOL    HW282338   3.073  13.229  12.263 -0.6267 -0.6638 -0.5309
56787SOL     OW82339   6.122   2.916   0.467  0.1139  0.1363  0.1387
56787SOL    HW182340   6.167   2.863   0.533  0.3354  1.6400  1.2519
56787SOL    HW282341   6.055   2.964   0.517 -1.2951 -0.4507 -1.1392
56788SOL     OW82342   9.959   3.675   9.000  0.0656 -0.5492  0.0516
56788SOL    HW182343  10.037   3.699   8.949  0.2988 -2.6338 -0.6766
56788SOL    HW282344   9.988   3.680   9.091  0.9790 -0.9943 -0.2011
56789SOL     OW82345   9.214   6.827   1.800  0.1611 -0.1957  0.6218
56789SOL    HW182346   9.215   6.770   1.723 -0.9275 -0.4428  0.7655
56789SOL    HW282347   9.201   6.766   1.874  0.3283  0.1150  0.9074
56790SOL     OW82348   1.327  12.035   9.114 -0.0746  0.0163 -0.1708
56790SOL    HW182349   1.304  11.987   9.034 -2.1980  1.4690 -0.5104
56790SOL    HW282350   1.294  11.980   9.185 -2.5028  0.8802 -0.5561
56791SOL     OW82351  10.719   3.251   9.141 -0.2942  0.3276 -0.4890
56791SOL    HW182352  10.642   3.295   9.178 -0.3720  0.7291 -1.1053
56791SOL    HW282353  10.691   3.221   9.055 -0.4047 -1.4486  0.1256
56792SOL     OW82354   3.058   5.214   2.404 -0.1218 -0.8332  0.1076
56792SOL    HW182355   3.066   5.306   2.432 -2.1761 -0.7030  0.4381
56792SOL    HW282356   2.990   5.216   2.335 -1.6461 -2.3117  1.4736
56793SOL     OW82357   5.133  12.504   7.806 -0.3878 -0.1926 -0.1679
56793SOL    HW182358   5.116  12.437   7.872  0.8546 -0.9638 -0.5769
56793SOL    HW282359   5.076  12.576   7.829 -1.6832 -1.3454  0.3776
56794SOL     OW82360  10.105  12.938   8.607 -0.1970  0.4695 -0.0311
56794SOL    HW182361  10.195  12.939   8.639  0.6391  2.0336 -2.1973
56794SOL    HW282362  10.083  13.031   8.595 -1.9157  0.0874 -0.0549
56795SOL     OW82363  12.597   1.813  11.889  0.1967  0.6374 -0.0546
56795SOL    HW182364  12.658   1.884  11.868  0.4152  0.4403 -0.0837
56795SOL    HW282365  12.605   1.752  11.816  2.3723 -1.0148  1.4267
56796SOL     OW82366   6.555   5.950   1.092  0.2896  0.1950 -0.5007
56796SOL    HW182367   6.494   6.012   1.053  0.1605  0.7029  0.4847
56796SOL    HW282368   6.499   5.882   1.130  0.3375  0.5616  0.2361
56797SOL     OW82369   7.427   7.775   5.574  0.0096 -0.0898 -0.3978
56797SOL    HW182370   7.458   7.865   5.587  0.0236 -0.4496  3.1723
56797SOL    HW282371   7.365   7.761   5.646  0.8449 -3.2478 -0.1317
56798SOL     OW82372   2.448  12.007  11.182  0.0984  0.0469  0.3394
56798SOL    HW182373   2.402  11.950  11.119  0.6728  0.0899 -0.1298
56798SOL    HW282374   2.412  11.982  11.267  0.0903 -0.7769  0.1068
56799SOL     OW82375   7.251   4.337   0.058  0.2913 -0.2413 -0.0273
56799SOL    HW182376   7.159   4.364   0.064  0.1059 -0.9062  0.1157
56799SOL    HW282377   7.294   4.381   0.132  0.3650  1.1282 -0.8415
56800SOL     OW82378   4.027   1.445   6.504 -0.4497  0.1935 -0.1076
56800SOL    HW182379   3.960   1.386   6.471  0.8012 -1.8218  0.7536
56800SOL    HW282380   4.023   1.521   6.446 -2.2792 -0.6129 -1.1227
56801SOL     OW82381   1.647   0.455   6.883  0.1079  0.2709  0.2155
56801SOL    HW182382   1.698   0.376   6.868  0.3264  0.1112  1.7091
56801SOL    HW282383   1.639   0.495   6.796  0.2830 -1.2001 -0.5035
56802SOL     OW82384  10.390   2.657  11.645 -0.3823  0.1246  0.2006
56802SOL    HW182385  10.478   2.652  11.683 -0.8309  2.5965  1.8176
56802SOL    HW282386  10.357   2.568  11.649  0.9939 -0.3804  2.3129
56803SOL     OW82387  12.133   2.575   3.842 -0.3814  0.8769 -0.2285
56803SOL    HW182388  12.146   2.569   3.937  0.1163 -2.8233 -0.3548
56803SOL    HW282389  12.039   2.589   3.831 -0.4797  1.0954  0.8278
56804SOL     OW82390   3.603   1.711  13.928 -0.2087 -0.0123 -0.4542
56804SOL    HW182391   3.643   1.627  13.905 -0.5261  0.3797 -2.7435
56804SOL    HW282392   3.659   1.746  13.997  0.7123 -1.4951 -0.3991
56805SOL     OW82393  12.472   3.674   9.469  0.1805  0.0921 -0.7593
56805SOL    HW182394  12.437   3.647   9.384 -0.5678  0.7817 -0.6805
56805SOL    HW282395  12.405   3.648   9.532 -0.2983  1.5631 -0.6213
56806SOL     OW82396   5.871   8.063   5.937  0.1971 -0.2389 -0.1465
56806SOL    HW182397   5.840   8.127   6.001 -1.4483 -0.2049 -0.9378
56806SOL    HW282398   5.828   7.981   5.962 -0.6866 -0.1620 -1.3336
56807SOL     OW82399  10.442   7.414   3.098 -0.4400 -0.0050 -0.2384
56807SOL    HW182400  10.383   7.485   3.072 -0.8217 -0.4116 -0.5050
56807SOL    HW282401  10.528   7.441   3.065 -0.9807 -0.7146 -2.3753
56808SOL     OW82402   9.865   1.763   6.494 -0.1061 -0.4559  0.3117
56808SOL    HW182403   9.879   1.825   6.565  0.3666  0.1293 -0.2851
56808SOL    HW282404   9.906   1.803   6.417 -1.4805 -0.5825 -0.5455
56809SOL     OW82405   9.721  12.597   0.802 -0.0424  0.5294  0.1551
56809SOL    HW182406   9.810  12.624   0.778 -0.3072  3.0616  1.6503
56809SOL    HW282407   9.664  12.666   0.766 -1.7084 -2.0073 -2.4538
56810SOL     OW82408   3.661   0.987  10.896 -0.4331  0.8720  0.4696
56810SOL    HW182409   3.683   0.898  10.925 -0.4199  1.3196  1.8815
56810SOL    HW282410   3.700   0.994  10.809  0.2930 -0.2108  0.6918
56811SOL     OW82411   9.465  11.298  13.272  0.2341 -0.0588  0.1023
56811SOL    HW182412   9.479  11.238  13.199  0.3400 -0.6957  0.6382
56811SOL    HW282413   9.523  11.372  13.253  2.0600 -1.2502  0.6769
56812SOL     OW82414   1.219   2.568   1.271 -0.1184 -0.1167  0.4547
56812SOL    HW182415   1.134   2.606   1.249 -0.7889 -2.3702 -1.1819
56812SOL    HW282416   1.240   2.604   1.357 -1.6416  2.2259 -0.0759
56813SOL     OW82417   4.994   3.504  11.671  0.2062  0.4389 -0.3425
56813SOL    HW182418   5.028   3.592  11.690  0.3300 -0.0752  2.2035
56813SOL    HW282419   5.070   3.456  11.638  0.3607  1.0417 -0.8755
56814SOL     OW82420   0.209   5.765  13.456 -0.4098 -0.1852 -0.0329
56814SOL    HW182421   0.205   5.782  13.362  1.6421 -3.8404 -0.9728
56814SOL    HW282422   0.169   5.842  13.496  0.2957  2.3969 -3.7900
56815SOL     OW82423   7.933  12.316   5.505 -0.0643  0.3296 -0.3912
56815SOL    HW182424   7.918  12.288   5.414  1.5195 -1.2752 -0.1979
56815SOL    HW282425   7.982  12.398   5.497 -1.9098  1.4594 -0.9403
56816SOL     OW82426   0.576   5.049   8.776 -0.8321  0.1466 -0.3029
56816SOL    HW182427   0.570   4.963   8.735  0.9821 -0.1256 -0.1110
56816SOL    HW282428   0.626   5.034   8.856  0.9186  1.5851 -1.0537
56817SOL     OW82429  12.947   6.287   4.382 -0.2951  0.0657 -0.3628
56817SOL    HW182430  13.019   6.280   4.320  0.7521  1.1567  0.6824
56817SOL    HW282431  12.944   6.380   4.405 -0.6093 -0.3244  1.2684
56818SOL     OW82432   6.715   0.643   9.765  0.5554 -0.3662 -0.0226
56818SOL    HW182433   6.653   0.716   9.763 -0.2667 -1.0527 -1.1131
56818SOL    HW282434   6.706   0.607   9.854 -1.1004 -0.8258 -0.3315
56819SOL     OW82435  10.921   5.605   5.767  0.2814 -0.1469  0.3386
56819SOL    HW182436  10.883   5.551   5.837  1.1835 -0.0857  0.9052
56819SOL    HW282437  10.863   5.680   5.759 -0.1573 -0.4541  0.6082
56820SOL     OW82438   7.097   5.653   8.345 -0.1518 -0.0738  0.3031
56820SOL    HW182439   7.097   5.735   8.393 -0.7443  0.1711 -0.0999
56820SOL    HW282440   7.189   5.626   8.343 -0.2553 -0.8605  2.8540
56821SOL     OW82441   0.477   9.779  11.264  0.2527 -0.5530 -0.0684
56821SOL    HW182442   0.533   9.839  11.313  0.0471 -0.5667  0.1864
56821SOL    HW282443   0.525   9.761  11.183 -0.1536  0.7776 -0.6312
56822SOL     OW82444  13.889  10.243   8.913  0.4008  0.8184  0.3949
56822SOL    HW182445  13.880  10.184   8.838 -0.0467  0.3696  0.7933
56822SOL    HW282446  13.865  10.329   8.879 -0.2534  0.5367  0.1364
56823SOL     OW82447  11.463  11.588   4.576  0.0922  0.4235  0.2862
56823SOL    HW182448  11.516  11.508   4.578  0.3658  0.5717 -0.6796
56823SOL    HW282449  11.468  11.618   4.485  1.4089  2.4629  0.9433
56824SOL     OW82450   6.438   1.216   7.713 -0.2947 -0.0054  0.1854
56824SOL    HW182451   6.426   1.276   7.639 -0.4111 -0.0627  0.1584
56824SOL    HW282452   6.435   1.128   7.673 -0.1718 -0.0317  0.2321
56825SOL     OW82453  11.396   0.058   4.129  0.2255  0.8061  0.0727
56825SOL    HW182454  11.447   0.138   4.115 -1.9036  2.1261 -0.7426
56825SOL    HW282455  11.412   0.005   4.052  2.8892 -0.3419  1.3287
56826SOL     OW82456   8.944   9.796   9.809  0.0283  0.1495 -0.3764
56826SOL    HW182457   8.893   9.861   9.857  1.6501  0.1549  1.5044
56826SOL    HW282458   8.974   9.841   9.730 -0.2322  1.1466  0.0848
56827SOL     OW82459   7.983   1.658   4.279  0.0673  0.4235 -0.3407
56827SOL    HW182460   8.041   1.608   4.337 -0.4348 -0.7138 -0.7939
56827SOL    HW282461   8.036   1.676   4.201  0.2772  0.6944 -0.1400
56828SOL     OW82462   7.493   7.563   9.210 -0.6058 -0.3181 -0.0204
56828SOL    HW182463   7.520   7.543   9.300  0.7298  1.8488  0.1301
56828SOL    HW282464   7.435   7.638   9.218  1.2680  1.3298 -1.0510
56829SOL     OW82465   6.840   8.801   4.497  0.2870  0.0124 -0.1549
56829SOL    HW182466   6.922   8.846   4.516 -0.3688  0.9204  0.5798
56829SOL    HW282467   6.786   8.867   4.455 -0.1238 -0.5456 -0.5131
56830SOL     OW82468  13.022   6.843   1.761  0.6003  0.1403  0.1082
56830SOL    HW182469  13.056   6.774   1.703  1.5796  0.1304  0.6645
56830SOL    HW282470  13.084   6.845   1.833  0.4078  1.4021  0.2505
56831SOL     OW82471   8.453  13.767   7.085  0.0143 -0.3025 -0.3243
56831SOL    HW182472   8.542  13.786   7.056 -0.1723  1.9886  0.4033
56831SOL    HW282473   8.461  13.759   7.181 -0.5184 -0.3431 -0.2830
56832SOL     OW82474  11.800   7.164   7.412  0.4992  0.7743 -0.6542
56832SOL    HW182475  11.894   7.178   7.414  0.6069  0.0837 -0.0689
56832SOL    HW282476  11.764   7.239   7.365  1.3480  0.9981 -0.9484
56833SOL     OW82477   2.733  10.539   9.839  0.0685 -0.1525  0.0552
56833SOL    HW182478   2.639  10.559   9.846  0.0379 -0.3785  0.2965
56833SOL    HW282479   2.736  10.446   9.818  0.2360 -0.0972 -0.1772
56834SOL     OW82480   5.261  13.711  10.066 -0.2051 -0.0463 -0.3060
56834SOL    HW182481   5.206  13.784  10.095 -2.2806 -0.9382 -1.7740
56834SOL    HW282482   5.264  13.720   9.971  1.7679 -0.3662 -0.3020
56835SOL     OW82483   5.079   7.130   2.314 -0.2398 -0.3378 -0.3343
56835SOL    HW182484   5.050   7.050   2.269  3.0286 -2.5212  1.0566
56835SOL    HW282485   5.037   7.126   2.400 -1.6145  0.5645 -0.9282
56836SOL     OW82486   9.401   5.280   0.606 -0.5866  0.5250 -0.2712
56836SOL    HW182487   9.474   5.222   0.625  0.1972  1.7508  0.5645
56836SOL    HW282488   9.406   5.295   0.511 -1.6390 -1.8005 -0.7876
56837SOL     OW82489   7.019  13.113   2.571 -0.3061  0.0136 -0.1260
56837SOL    HW182490   6.974  13.060   2.638 -1.1432 -0.1966 -0.8390
56837SOL    HW282491   6.949  13.164   2.530  0.5405  2.1809  0.9463
56838SOL     OW82492   1.679   1.094  10.931  0.0497 -0.3476  0.6625
56838SOL    HW182493   1.666   1.056  10.844 -0.0005  2.0015 -0.4565
56838SOL    HW282494   1.691   1.188  10.914  1.7521 -0.0479  3.0759
56839SOL     OW82495  11.907   5.445   6.665 -0.2906 -0.2441 -0.5287
56839SOL    HW182496  11.888   5.509   6.734 -3.2163 -1.1185 -0.3781
56839SOL    HW282497  12.000   5.456   6.647  0.2639  1.0459  2.4980
56840SOL     OW82498   6.785   1.685   4.873  0.5449  0.4139 -0.3711
56840SOL    HW182499   6.705   1.633   4.868 -0.8982  2.0001  2.7096
56840SOL    HW282500   6.770   1.758   4.813  0.3618 -0.1178 -0.9726
56841SOL     OW82501  13.889   0.654   9.244  0.0770 -0.1288  0.2175
56841SOL    HW182502  13.982   0.633   9.258  0.4593  2.0510  1.4579
56841SOL    HW282503  13.842   0.590   9.298  0.9473 -0.4232  0.6501
56842SOL     OW82504   8.343  13.750   9.218  0.2930  0.1364  0.3093
56842SOL    HW182505   8.300  13.822   9.173  1.1456 -0.2785 -1.2285
56842SOL    HW282506   8.324  13.765   9.311  0.6974  2.4846  0.0740
56843SOL     OW82507   1.493   8.149   9.329 -0.2905  0.2252  0.0617
56843SOL    HW182508   1.568   8.128   9.384 -0.2590  0.8093  0.2450
56843SOL    HW282509   1.422   8.096   9.364 -0.1113  0.1164  0.2599
56844SOL     OW82510   6.916   9.964  10.157  0.0060  0.1884 -0.0690
56844SOL    HW182511   6.902  10.020  10.234 -1.3377 -0.7415  0.4025
56844SOL    HW282512   6.912   9.875  10.191 -0.0785 -0.2294 -1.1439
56845SOL     OW82513   0.793   3.160   3.126 -0.0518  0.1481 -0.0207
56845SOL    HW182514   0.884   3.151   3.099  0.4613  1.7323  1.0787
56845SOL    HW282515   0.751   3.204   3.052  0.6669  1.6944  0.4502
56846SOL     OW82516   3.331   0.523  13.097  0.2019  0.3799 -0.5875
56846SOL    HW182517   3.403   0.564  13.049  0.2188  2.8497  1.3713
56846SOL    HW282518   3.285   0.471  13.031  1.8489  1.3694 -2.6202
56847SOL     OW82519   3.567  12.705   0.323 -0.1660  0.3555  0.0583
56847SOL    HW182520   3.624  12.628   0.323 -0.5730  0.0135 -1.9101
56847SOL    HW282521   3.622  12.775   0.360  0.7892 -0.4757  0.2588
56848SOL     OW82522   7.213  13.291  11.382  0.1165  0.0335  0.2777
56848SOL    HW182523   7.157  13.230  11.430 -0.2350 -1.0458 -1.4177
56848SOL    HW282524   7.154  13.360  11.353  0.3091  0.6300  1.2688
56849SOL     OW82525  11.678   0.317  12.755 -0.0317 -0.2619  0.0532
56849SOL    HW182526  11.617   0.243  12.758 -0.5915  0.1894 -0.1196
56849SOL    HW282527  11.722   0.308  12.670 -0.4066 -0.1528 -0.1530
56850SOL     OW82528   5.102   5.735  13.748 -0.2975 -0.1651  0.3955
56850SOL    HW182529   5.045   5.704  13.678 -1.5178  0.6307  1.0006
56850SOL    HW282530   5.056   5.811  13.784  0.6668 -0.1210  1.5781
56851SOL     OW82531  10.106   9.259   7.329  0.7611 -0.4449  0.0071
56851SOL    HW182532  10.194   9.249   7.365  0.9487  0.6193 -0.1207
56851SOL    HW282533  10.118   9.257   7.234  0.5947 -0.6720 -0.0108
56852SOL     OW82534   4.943  10.926  11.583 -0.5320  0.1335 -0.6474
56852SOL    HW182535   4.895  10.997  11.625  1.9481  0.9263  1.0158
56852SOL    HW282536   4.895  10.847  11.609 -2.6880  1.0171 -1.6333
56853SOL     OW82537   0.844  10.252  11.805  0.3086  0.0715 -0.2610
56853SOL    HW182538   0.848  10.347  11.810  0.3920  0.0059  2.4388
56853SOL    HW282539   0.922  10.227  11.755 -0.5677  1.4137 -2.4706
56854SOL     OW82540  12.975   2.622   2.620 -0.3328  0.1162 -0.2716
56854SOL    HW182541  12.944   2.610   2.710 -0.0511  0.1749 -0.1649
56854SOL    HW282542  13.071   2.616   2.627 -0.3393 -0.5091 -0.6611
56855SOL     OW82543   0.675   2.428   4.623  0.5814 -0.0667  0.2509
56855SOL    HW182544   0.722   2.478   4.556  0.1345 -0.4115 -0.3280
56855SOL    HW282545   0.732   2.433   4.700  0.0808  2.1529  0.5257
56856SOL     OW82546   7.430  13.216   2.263  0.1241  0.4998 -0.2138
56856SOL    HW182547   7.511  13.266   2.254 -0.5142  1.3037 -2.2048
56856SOL    HW282548   7.398  13.207   2.173 -1.7460 -0.2207  0.4741
56857SOL     OW82549   2.787   3.497   6.652 -0.0660  0.3018 -0.1088
56857SOL    HW182550   2.868   3.486   6.702 -0.2288 -1.6518 -0.2288
56857SOL    HW282551   2.717   3.473   6.714 -0.2843 -1.9322 -1.1487
56858SOL     OW82552   8.113   5.958  11.244 -0.4240 -0.3309  0.4884
56858SOL    HW182553   8.057   5.887  11.276 -0.5494 -1.3704 -1.7751
56858SOL    HW282554   8.184   5.964  11.307 -1.6977 -0.7757  2.0294
56859SOL     OW82555   4.059   6.114   0.656 -0.3731  0.3220  0.0531
56859SOL    HW182556   4.104   6.070   0.728  1.2989  0.1736 -1.0543
56859SOL    HW282557   3.967   6.089   0.667  0.3267 -2.4903  0.1733
56860SOL     OW82558   3.478   5.622  13.465 -0.2812  0.0094 -0.2598
56860SOL    HW182559   3.398   5.575  13.488  0.6627 -2.5009 -1.6609
56860SOL    HW282560   3.510   5.656  13.548 -2.4013  0.4749  0.4283
56861SOL     OW82561   6.559   4.115  12.799  0.4847 -0.7329 -0.5383
56861SOL    HW182562   6.619   4.078  12.864 -1.3279  0.2082  1.8433
56861SOL    HW282563   6.517   4.188  12.845 -1.8721 -0.8413 -2.3263
56862SOL     OW82564   8.211   1.793   5.291  0.3631  0.1836  0.9780
56862SOL    HW182565   8.298   1.826   5.267  0.0181  0.9728  0.7815
56862SOL    HW282566   8.153   1.868   5.280 -0.6864 -0.8212 -0.7625
56863SOL     OW82567   0.465  10.806   9.202  0.1989  0.3770  0.1536
56863SOL    HW182568   0.475  10.861   9.279 -1.6361  0.9554  0.0171
56863SOL    HW282569   0.553  10.770   9.187  1.3187  2.6962  0.6514
56864SOL     OW82570   7.160   7.354   7.991  0.3741  0.1189  0.1584
56864SOL    HW182571   7.205   7.280   7.951  0.1813 -0.1962  0.5123
56864SOL    HW282572   7.173   7.342   8.085  0.6350  0.7248  0.2023
56865SOL     OW82573   9.359  12.591   1.699  0.7963 -0.3643 -0.2549
56865SOL    HW182574   9.327  12.680   1.682 -0.0463 -0.1788  1.9865
56865SOL    HW282575   9.286  12.549   1.744  2.2767 -1.2396  1.3966
56866SOL     OW82576  12.580   5.236   2.935 -0.1110 -0.0251 -0.5885
56866SOL    HW182577  12.637   5.273   3.002 -3.2917  0.7670  1.8921
56866SOL    HW282578  12.583   5.301   2.864 -0.1828  1.4914  0.7309
56867SOL     OW82579   0.455   0.351   2.291 -0.1222 -0.1364  0.8226
56867SOL    HW182580   0.462   0.328   2.199 -1.0611 -0.4301  0.8172
56867SOL    HW282581   0.464   0.268   2.338 -1.1754 -0.2194  0.9097
56868SOL     OW82582   2.643   7.010  11.898  0.0209  0.1030  0.0347
56868SOL    HW182583   2.705   7.000  11.826 -0.0249 -2.7732  0.2668
56868SOL    HW282584   2.585   7.081  11.871 -0.5452 -1.4233 -3.2129
56869SOL     OW82585   0.535  10.365   4.142 -0.2262 -0.1058 -0.3835
56869SOL    HW182586   0.628  10.347   4.154  0.0915  1.2670 -0.6615
56869SOL    HW282587   0.500  10.286   4.101  1.1920  0.0432 -1.9563
56870SOL     OW82588  13.496   2.593  11.381  0.7408 -0.2148 -0.0417
56870SOL    HW182589  13.560   2.532  11.345 -0.9589 -0.8860 -2.1441
56870SOL    HW282590  13.513   2.676  11.336 -1.0943 -0.9380 -2.2781
56871SOL     OW82591   4.902  12.169   0.863 -0.2642  0.4172  0.2141
56871SOL    HW182592   4.984  12.146   0.820 -1.2017 -0.0597 -1.3908
56871SOL    HW282593   4.898  12.111   0.940  1.0019  0.6420  0.4606
56872SOL     OW82594   3.241  12.969   7.642 -0.2970  0.0581 -0.3141
56872SOL    HW182595   3.267  12.906   7.575  0.8290 -1.1559  1.2029
56872SOL    HW282596   3.320  12.982   7.695 -1.7406 -1.0057  2.2953
56873SOL     OW82597   4.279  13.326  13.823  0.1100 -0.2624  0.4662
56873SOL    HW182598   4.292  13.419  13.845 -0.7609 -0.0186  0.0191
56873SOL    HW282599   4.337  13.311  13.749  0.4383 -0.1440  0.6956
56874SOL     OW82600   2.290  13.602  13.385 -0.3425  0.1283  0.1787
56874SOL    HW182601   2.208  13.558  13.365  0.5960 -1.8654  0.5228
56874SOL    HW282602   2.283  13.626  13.478  0.2989 -2.1019  0.8656
56875SOL     OW82603   1.815  10.494   2.134  0.2628 -0.3613  0.8483
56875SOL    HW182604   1.779  10.407   2.147  1.0759 -0.7393  0.6070
56875SOL    HW282605   1.757  10.552   2.185 -1.7291 -0.7019 -0.9099
56876SOL     OW82606  10.630   3.737   4.556 -0.1344  0.2322 -0.2795
56876SOL    HW182607  10.613   3.645   4.537 -0.5903  0.5271 -1.4350
56876SOL    HW282608  10.698   3.762   4.493 -0.7582  0.9364 -0.6926
56877SOL     OW82609   5.262  13.765   6.994  0.2363  0.0356  0.7231
56877SOL    HW182610   5.280  13.672   6.986 -1.9807 -0.4064  0.4040
56877SOL    HW282611   5.189  13.771   7.056 -1.1079  1.3759 -0.8988
56878SOL     OW82612   2.295  12.957  13.307  0.1560  0.3959  0.2457
56878SOL    HW182613   2.390  12.954  13.317  0.1672 -0.1399 -0.0323
56878SOL    HW282614   2.262  12.928  13.392  0.2550 -1.6984 -0.3738
56879SOL     OW82615   2.257  10.325   7.819  0.3573  0.1519  0.1965
56879SOL    HW182616   2.342  10.318   7.775 -0.7828  0.6608 -2.2712
56879SOL    HW282617   2.203  10.257   7.777 -0.7882  0.6046  0.8894
56880SOL     OW82618   5.026   8.082   7.843 -0.6504  0.3222 -0.2884
56880SOL    HW182619   4.968   8.133   7.900 -0.8063 -0.5765  0.3704
56880SOL    HW282620   5.000   7.991   7.857  1.9268 -0.2595  1.1898
56881SOL     OW82621  12.354  11.749   7.832  0.2286 -0.1078  0.3344
56881SOL    HW182622  12.439  11.727   7.793  0.7624  0.5627  1.0957
56881SOL    HW282623  12.350  11.844   7.829  0.6551  0.0356  2.6298
56882SOL     OW82624   0.787   3.826  12.243  0.2893  0.3023 -0.1951
56882SOL    HW182625   0.847   3.900  12.253 -0.7061  1.2887 -1.2034
56882SOL    HW282626   0.762   3.803  12.332  1.6066  0.3158  0.2047
56883SOL     OW82627   1.685   2.813   7.961 -0.2472  0.4961  0.0414
56883SOL    HW182628   1.761   2.827   8.018  0.0324  0.5627 -0.3491
56883SOL    HW282629   1.642   2.736   7.997 -0.0569  0.5241  0.3303
56884SOL     OW82630   2.851   8.683   7.225  0.0711 -0.3355 -0.5101
56884SOL    HW182631   2.899   8.687   7.308 -0.6746 -4.7349  0.3444
56884SOL    HW282632   2.786   8.615   7.237 -3.4999  2.1891 -3.1875
56885SOL     OW82633  12.118   8.136   4.723 -0.3706 -0.5524  0.6740
56885SOL    HW182634  12.036   8.107   4.682 -0.3007 -0.1361  0.2348
56885SOL    HW282635  12.159   8.055   4.754 -0.8766 -0.7785  0.7561
56886SOL     OW82636   5.324   6.537   2.083 -0.4701 -0.1158 -0.2693
56886SOL    HW182637   5.334   6.628   2.055  2.2369 -0.1243  0.4723
56886SOL    HW282638   5.229   6.522   2.081 -0.8702  2.1648 -2.0487
56887SOL     OW82639   8.350   8.716  10.455 -0.6617 -0.7742 -0.1766
56887SOL    HW182640   8.292   8.644  10.481  1.0500 -2.1998 -0.1207
56887SOL    HW282641   8.351   8.713  10.359 -0.8380 -0.6186 -0.1834
56888SOL     OW82642   1.550   7.488   6.250 -0.4905  0.1513  0.5696
56888SOL    HW182643   1.583   7.458   6.335  0.5178  0.2835  0.2408
56888SOL    HW282644   1.455   7.485   6.258 -0.4067 -0.8227  1.3626
56889SOL     OW82645   5.168   9.272  13.329  0.6274 -0.1240  0.1003
56889SOL    HW182646   5.151   9.271  13.235  0.0111 -0.0371  0.2110
56889SOL    HW282647   5.094   9.227  13.367  0.5744  0.3761  0.5976
56890SOL     OW82648   4.874   9.463   4.501  0.0045  0.2047  0.6535
56890SOL    HW182649   4.806   9.488   4.437  0.2551  1.7639  0.9640
56890SOL    HW282650   4.926   9.396   4.455 -0.9924 -0.1191 -0.0437
56891SOL     OW82651   0.282   5.701  12.540 -0.6654 -0.3604 -0.3564
56891SOL    HW182652   0.370   5.665  12.550  0.3762  2.0662 -0.1398
56891SOL    HW282653   0.256   5.675  12.451  1.4119  1.0789 -1.4771
56892SOL     OW82654   2.271   6.074  13.454  0.0473  0.2003  0.6325
56892SOL    HW182655   2.220   6.148  13.421  1.0277  0.7598  0.3482
56892SOL    HW282656   2.275   6.014  13.379 -0.1478  0.1695  0.6448
56893SOL     OW82657   2.717   6.795   4.902  0.4143  0.0327 -0.2607
56893SOL    HW182658   2.667   6.722   4.866  1.6355 -0.3682 -1.2154
56893SOL    HW282659   2.778   6.753   4.964  2.0408  0.0137 -1.7874
56894SOL     OW82660   6.890  11.315   2.451  0.3878 -0.6069 -0.5351
56894SOL    HW182661   6.977  11.277   2.463 -0.1886 -1.2082  2.7466
56894SOL    HW282662   6.894  11.398   2.498 -0.6440 -0.3766 -0.8339
56895SOL     OW82663   3.859   4.814   1.421  0.0945 -0.1864 -0.1584
56895SOL    HW182664   3.852   4.910   1.415  0.4147  0.0465  2.1842
56895SOL    HW282665   3.800   4.791   1.492  0.1246 -1.7341 -0.6138
56896SOL     OW82666   7.826   9.490   4.941 -0.1352 -0.0950  0.5840
56896SOL    HW182667   7.848   9.431   5.013  1.6208  0.8326  0.8504
56896SOL    HW282668   7.820   9.433   4.865 -1.5370 -1.0261  1.3388
56897SOL     OW82669   2.106   6.691  10.171 -0.2309 -0.5406  0.7999
56897SOL    HW182670   2.170   6.634  10.128 -0.8772 -1.0151  0.4650
56897SOL    HW282671   2.146   6.778  10.167  0.4052 -0.8341  0.6113
56898SOL     OW82672   3.819   5.457   5.826 -0.0225 -0.3983 -0.0205
56898SOL    HW182673   3.807   5.491   5.915  0.3958  1.5444 -0.6484
56898SOL    HW282674   3.913   5.446   5.817  0.2112  1.7634 -0.9515
56899SOL     OW82675  12.735   3.911   7.250  0.3985  0.2252  0.1145
56899SOL    HW182676  12.803   3.875   7.307  0.9085  1.7291  0.4852
56899SOL    HW282677  12.726   3.846   7.180  1.0152 -0.7988  0.9540
56900SOL     OW82678   1.139   0.095   8.434 -0.3070 -0.0213 -0.1166
56900SOL    HW182679   1.161   0.058   8.348  2.5129 -2.6248  1.5085
56900SOL    HW282680   1.125   0.018   8.490 -2.7300  1.5998  1.6645
56901SOL     OW82681   5.256   3.340   6.619 -0.1772  0.1233 -0.1104
56901SOL    HW182682   5.191   3.323   6.551  0.8296  0.0527 -1.0724
56901SOL    HW282683   5.322   3.394   6.577  1.0196 -0.8164  0.4837
56902SOL     OW82684  13.500   6.704  11.406  0.2489 -0.6443  0.1785
56902SOL    HW182685  13.554   6.670  11.478 -1.0109  0.2461  1.6142
56902SOL    HW282686  13.438   6.763  11.449 -1.7521 -1.4605 -1.3956
56903SOL     OW82687   6.238  10.957  11.167 -0.0149  0.3053 -0.1511
56903SOL    HW182688   6.143  10.962  11.167 -0.2193 -1.4177 -3.1189
56903SOL    HW282689   6.259  10.891  11.234 -0.6786  2.0723  1.8976
56904SOL     OW82690   8.251   5.663   6.959 -0.2937 -0.0369  0.0317
56904SOL    HW182691   8.210   5.737   6.915 -0.0249  0.1039  0.0155
56904SOL    HW282692   8.238   5.680   7.052 -0.4679 -0.1071  0.0201
56905SOL     OW82693   5.823  11.202   7.061  0.3818  0.1888 -0.5492
56905SOL    HW182694   5.814  11.113   7.094  2.3160  0.4045  0.6938
56905SOL    HW282695   5.757  11.253   7.108  1.2334 -0.0517  0.9381
56906SOL     OW82696   6.866   6.938   7.045 -0.0711  0.1782  0.1277
56906SOL    HW182697   6.779   6.900   7.056  0.2639 -0.7484 -0.3682
56906SOL    HW282698   6.851   7.033   7.050 -1.1355  0.0396 -0.1963
56907SOL     OW82699   3.387   5.784   1.099 -0.3714 -0.1377 -0.2228
56907SOL    HW182700   3.480   5.760   1.092  0.2503  2.3294 -1.6865
56907SOL    HW282701   3.371   5.791   1.193  1.0730 -0.1334  0.0584
56908SOL     OW82702   6.244   0.573   0.848  0.3571  0.2998  0.2163
56908SOL    HW182703   6.306   0.579   0.776  0.2616 -0.9223 -0.0046
56908SOL    HW282704   6.284   0.622   0.919  0.9325  0.6667 -0.3479
56909SOL     OW82705  10.881   2.115   5.565  0.5294  0.1662  0.2682
56909SOL    HW182706  10.922   2.148   5.485 -0.2235  2.5160  0.7729
56909SOL    HW282707  10.789   2.140   5.557  0.2665 -0.3308  1.4769
56910SOL     OW82708   9.471  12.073   1.166 -0.0256 -0.1147 -0.2326
56910SOL    HW182709   9.479  11.983   1.197  0.9181 -0.2140 -0.7470
56910SOL    HW282710   9.511  12.073   1.080  2.0148  1.2578  0.6387
56911SOL     OW82711   6.111   2.953  11.362 -0.1254  0.5014 -0.0891
56911SOL    HW182712   6.063   2.902  11.427 -1.2510 -0.1528 -1.3861
56911SOL    HW282713   6.203   2.943  11.385 -0.3145 -2.0635 -0.2427
56912SOL     OW82714  10.028   1.700   6.890  0.7159 -0.1100  0.4094
56912SOL    HW182715  10.084   1.643   6.837 -0.1408  0.3279 -1.0131
56912SOL    HW282716  10.010   1.650   6.969  1.6007 -1.0000  0.0566
56913SOL     OW82717   6.911  13.935   0.245  0.6722 -0.3485  0.4214
56913SOL    HW182718   6.991  13.974   0.280  0.7627 -0.4233  0.2994
56913SOL    HW282719   6.841  13.992   0.276  0.5709 -1.2875  2.0825
56914SOL     OW82720   5.717   4.654   4.209 -0.4248  0.5218  0.2490
56914SOL    HW182721   5.741   4.614   4.293 -0.1530 -1.3137 -0.6347
56914SOL    HW282722   5.621   4.655   4.210 -0.4420 -0.2082  0.2962
56915SOL     OW82723   2.711   8.891  12.010  0.3704  0.3632  0.2455
56915SOL    HW182724   2.689   8.800  12.027 -0.9884  0.4466 -0.8334
56915SOL    HW282725   2.783   8.888  11.948  0.7916  0.0373  0.7451
56916SOL     OW82726   0.680   2.234   0.563 -0.2641 -0.1684  0.5054
56916SOL    HW182727   0.628   2.157   0.543  0.7945 -1.2390  1.7109
56916SOL    HW282728   0.751   2.232   0.499  0.5171 -0.9911  1.3589
56917SOL     OW82729   3.867   0.088   4.157 -0.1002 -0.5257  0.5067
56917SOL    HW182730   3.876   0.178   4.187 -1.0225 -0.6443  1.2016
56917SOL    HW282731   3.772   0.073   4.157  0.0533 -1.5323  0.5250
56918SOL     OW82732  10.394   2.621   3.439  0.0305 -0.0389  0.4429
56918SOL    HW182733  10.393   2.526   3.454  0.1435 -0.2328 -0.6815
56918SOL    HW282734  10.323   2.655   3.493 -0.8267 -0.9203 -0.1012
56919SOL     OW82735  13.215   6.163   8.804 -0.0363  0.0943 -0.0821
56919SOL    HW182736  13.277   6.185   8.874 -2.2000  0.5382  1.7911
56919SOL    HW282737  13.141   6.221   8.818 -0.2940  0.7131 -3.2589
56920SOL     OW82738  13.571   1.535   7.023 -0.1157  0.9129 -0.0691
56920SOL    HW182739  13.514   1.612   7.025  1.5186  2.1687  1.5728
56920SOL    HW282740  13.513   1.462   7.043 -1.4658  1.8894 -0.2332
56921SOL     OW82741  12.285  11.036   8.835 -0.3314  0.1388 -0.8873
56921SOL    HW182742  12.199  11.073   8.815 -0.5862 -0.2048 -0.4389
56921SOL    HW282743  12.345  11.112   8.834 -1.0267  0.7911  1.1472
56922SOL     OW82744   5.838   2.455   2.267 -0.2952 -0.1079  0.4683
56922SOL    HW182745   5.817   2.502   2.348  2.9829  1.6618  0.4865
56922SOL    HW282746   5.894   2.515   2.219 -0.3615 -1.9806 -2.1391
56923SOL     OW82747   1.209   6.976   6.043 -0.3256 -0.2179 -0.0427
56923SOL    HW182748   1.147   7.045   6.064 -0.5804  0.0950 -1.6890
56923SOL    HW282749   1.280   6.987   6.106 -1.8659 -0.5309  1.8116
56924SOL     OW82750   8.824   0.163   3.518  0.5710  0.1085 -0.0565
56924SOL    HW182751   8.788   0.219   3.449  1.3413 -0.6588 -1.1207
56924SOL    HW282752   8.888   0.219   3.564  0.0456  0.6280  0.0513
56925SOL     OW82753  11.918   8.534  10.750 -0.2839  0.5442  0.0343
56925SOL    HW182754  11.939   8.550  10.842  1.4159  2.3908 -0.5869
56925SOL    HW282755  11.993   8.485  10.717 -0.7226  0.1963 -0.4620
56926SOL     OW82756   0.287   8.000   8.440  0.1246  0.1874 -0.0993
56926SOL    HW182757   0.239   8.082   8.448 -0.2384 -0.1449  1.6662
56926SOL    HW282758   0.223   7.932   8.463  1.4438 -0.2354  2.8938
56927SOL     OW82759  12.170   8.897   3.488  0.6042  0.1765  0.2605
56927SOL    HW182760  12.178   8.955   3.564 -0.1986  0.2684  0.2855
56927SOL    HW282761  12.086   8.852   3.501  0.1725  0.6185 -0.8593
56928SOL     OW82762   8.654  12.909   1.343  0.3922 -0.5721  0.2671
56928SOL    HW182763   8.629  12.957   1.422  0.3274 -1.0035  0.5113
56928SOL    HW282764   8.739  12.871   1.364  0.9143  0.2600 -0.2875
56929SOL     OW82765   9.615   4.701   1.301 -0.0104 -0.1382  0.3236
56929SOL    HW182766   9.672   4.713   1.377  0.1288 -1.5659  0.4783
56929SOL    HW282767   9.623   4.608   1.280  1.3237  0.4947 -2.5410
56930SOL     OW82768   4.477   2.680   9.462  0.3402  0.1474 -0.2046
56930SOL    HW182769   4.565   2.713   9.444  0.2201  0.3813 -0.3644
56930SOL    HW282770   4.422   2.719   9.394  0.3073 -0.8908 -0.7999
56931SOL     OW82771   1.565   1.070   2.908 -0.3260  0.2265  0.0630
56931SOL    HW182772   1.487   1.092   2.959 -0.1554 -2.2672  1.5464
56931SOL    HW282773   1.630   1.135   2.935 -1.5419  1.7380 -0.4753
56932SOL     OW82774   9.036   5.978   4.985  0.5205 -0.0293 -0.6933
56932SOL    HW182775   8.985   5.908   4.944  1.3778  0.0762 -1.9944
56932SOL    HW282776   9.004   5.981   5.075 -0.2829 -1.3748 -0.9025
56933SOL     OW82777   7.016   6.256  11.816  0.7487  0.1170  0.2288
56933SOL    HW182778   6.959   6.276  11.891  1.1870  0.7693  0.3975
56933SOL    HW282779   7.086   6.321  11.822  0.4256  0.6309 -1.1540
56934SOL     OW82780   6.254  13.333   8.481 -0.6750  0.3935  0.5631
56934SOL    HW182781   6.221  13.325   8.571 -1.7463 -0.1211  0.1432
56934SOL    HW282782   6.211  13.411   8.447  0.1067  0.8684  0.6389
56935SOL     OW82783  11.863   4.540   8.056  0.2488  0.1458 -0.4332
56935SOL    HW182784  11.916   4.535   7.977  0.0304 -1.0090 -0.5167
56935SOL    HW282785  11.926   4.557   8.126  0.8906 -1.9691 -0.4186
56936SOL     OW82786  11.628   9.136   0.398 -0.0287  0.2193 -0.1536
56936SOL    HW182787  11.563   9.130   0.468  0.4827  1.2051  0.4252
56936SOL    HW282788  11.626   9.228   0.371  0.3821  0.0253 -0.8522
56937SOL     OW82789   4.849   1.031   6.062  0.1048  0.2781 -0.2503
56937SOL    HW182790   4.869   0.940   6.087 -2.2203 -0.0441  0.6159
56937SOL    HW282791   4.930   1.062   6.021  1.3964 -1.7630  0.5728
56938SOL     OW82792   3.123   5.319   8.855 -0.2363  0.4753  0.1956
56938SOL    HW182793   3.074   5.298   8.775  0.6115  2.1804 -0.8238
56938SOL    HW282794   3.074   5.389   8.896  0.0971  0.5778  0.4213
56939SOL     OW82795   1.339   2.314   4.401  0.6092 -0.3831 -0.5648
56939SOL    HW182796   1.301   2.378   4.341 -0.4182 -1.3669 -0.9980
56939SOL    HW282797   1.434   2.326   4.393  0.4415  1.1182 -0.5776
56940SOL     OW82798   7.880   2.475  13.628 -0.1703 -0.0358 -0.3854
56940SOL    HW182799   7.939   2.549  13.617 -1.0078  0.7137  0.0200
56940SOL    HW282800   7.817   2.483  13.556 -2.2191  1.5829  1.4426
56941SOL     OW82801   5.088   8.228   9.226  0.0137 -0.0606 -0.0138
56941SOL    HW182802   5.037   8.161   9.272 -1.6105  0.1859 -1.3342
56941SOL    HW282803   5.160   8.180   9.186  0.6250 -0.4942  1.5347
56942SOL     OW82804   4.190   5.084  12.015 -0.2721 -0.0992 -0.4112
56942SOL    HW182805   4.175   4.989  12.019  1.1234 -0.3427 -0.4586
56942SOL    HW282806   4.263   5.099  12.075  1.7699  0.4215 -2.8500
56943SOL     OW82807   1.932   3.415  10.162 -0.7667  0.3326  0.6029
56943SOL    HW182808   2.008   3.358  10.162 -0.8118  0.2725  0.5618
56943SOL    HW282809   1.888   3.396  10.245 -2.0082 -1.3380 -0.3720
56944SOL     OW82810   6.408  11.990   3.965 -0.4520  0.2278  0.0211
56944SOL    HW182811   6.318  11.987   3.997 -0.6023  2.1957 -0.0605
56944SOL    HW282812   6.399  12.001   3.870 -0.0806 -1.2220 -0.1994
56945SOL     OW82813   7.387   9.779  11.137  0.1801  0.4827  0.1769
56945SOL    HW182814   7.343   9.852  11.094  1.1851  0.8655 -0.2138
56945SOL    HW282815   7.396   9.807  11.228 -2.5848 -0.6135  0.8973
56946SOL     OW82816  11.779  10.141   8.685  0.4485  0.3078 -0.1171
56946SOL    HW182817  11.790  10.233   8.708 -0.7603  0.3236  0.4676
56946SOL    HW282818  11.694  10.117   8.722  0.1722 -0.7106 -1.3584
56947SOL     OW82819   2.895   0.190   7.263  0.0848 -0.3051  0.2019
56947SOL    HW182820   2.904   0.129   7.336 -0.6903 -0.4254  0.2058
56947SOL    HW282821   2.868   0.272   7.303  2.0860  0.3618  0.3088
56948SOL     OW82822   6.828   8.596   0.401  0.1044  0.0356  0.0438
56948SOL    HW182823   6.909   8.579   0.353 -0.4793 -0.5908 -0.7348
56948SOL    HW282824   6.808   8.512   0.443  0.3912  0.4657  1.0763
56949SOL     OW82825   4.621   0.362  11.323 -0.2022 -0.1355  0.1108
56949SOL    HW182826   4.620   0.439  11.381  0.1176  0.6399 -0.8769
56949SOL    HW282827   4.572   0.391  11.246  1.1018 -0.4618 -0.8527
56950SOL     OW82828   1.491   2.945  12.277  0.2675 -0.2576 -0.4571
56950SOL    HW182829   1.398   2.962  12.266  0.7183  2.1880 -1.1748
56950SOL    HW282830   1.528   2.958  12.190  1.4790  0.5824  0.1461
56951SOL     OW82831   0.612   0.795   4.212  0.3560  0.4274 -0.4555
56951SOL    HW182832   0.608   0.702   4.236 -1.5229  1.0888  2.2854
56951SOL    HW282833   0.636   0.795   4.119  0.5026 -2.7686 -0.5291
56952SOL     OW82834   1.720  12.355  12.461 -0.5397  0.2240 -0.8097
56952SOL    HW182835   1.815  12.346  12.471 -0.5210  0.5220 -0.6911
56952SOL    HW282836   1.703  12.332  12.370 -0.3438  0.2444 -0.8517
56953SOL     OW82837  10.361  10.003   2.313 -0.3367  0.3206 -0.8649
56953SOL    HW182838  10.413  10.072   2.273 -0.9004  0.9039 -0.5999
56953SOL    HW282839  10.407   9.922   2.290  0.1292  0.7531 -1.4754
56954SOL     OW82840   1.247   4.660   4.634  0.1898 -0.4464 -0.0183
56954SOL    HW182841   1.151   4.662   4.632  0.2101  0.5396 -0.6112
56954SOL    HW282842   1.268   4.619   4.718 -0.7733  1.4961  1.2575
56955SOL     OW82843   3.554  11.534   2.927 -0.1260 -0.0752  0.0952
56955SOL    HW182844   3.527  11.594   2.857 -0.2994  0.9186  0.9759
56955SOL    HW282845   3.496  11.556   3.000 -0.7725 -1.9314  0.1837
56956SOL     OW82846   8.090  12.888   0.321  0.1549  0.3123 -0.2695
56956SOL    HW182847   8.018  12.925   0.371 -0.7589  0.6443 -1.7626
56956SOL    HW282848   8.066  12.796   0.308  0.0063  0.4074 -0.7111
56957SOL     OW82849   2.661   9.425  13.955 -0.1622  0.0910  0.5816
56957SOL    HW182850   2.735   9.453  13.903  1.2053 -1.2458  1.7068
56957SOL    HW282851   2.585   9.441  13.900  1.1773 -1.0155 -1.7149
56958SOL     OW82852  13.833  13.522  13.857  0.5854 -0.0747  0.3601
56958SOL    HW182853  13.865  13.502  13.945 -0.9891 -2.8194  0.4210
56958SOL    HW282854  13.762  13.460  13.843  0.5075  0.5579 -2.7126
56959SOL     OW82855  10.736   1.214   5.652  0.4042  0.1497 -1.2521
56959SOL    HW182856  10.770   1.225   5.740 -0.8158  2.6322 -0.9980
56959SOL    HW282857  10.798   1.261   5.596  0.7249 -0.7016 -1.6266
56960SOL     OW82858   0.693   3.245   8.243 -0.0299  0.0467 -0.1205
56960SOL    HW182859   0.724   3.171   8.191  0.0342  1.4412 -2.1856
56960SOL    HW282860   0.633   3.292   8.185  0.6651  2.1498  0.7658
56961SOL     OW82861   6.668   3.588   1.924 -0.2512  0.4209 -0.2731
56961SOL    HW182862   6.610   3.616   1.995  0.5183  0.1505  0.4848
56961SOL    HW282863   6.636   3.635   1.847 -1.1126  0.7157  0.2470
56962SOL     OW82864  13.160   6.895   1.174  0.5175  0.3974  0.0844
56962SOL    HW182865  13.217   6.911   1.100  1.0674 -0.7377  0.2320
56962SOL    HW282866  13.094   6.964   1.170  2.3819  2.2659  0.4277
56963SOL     OW82867   2.274   6.050   7.786 -0.0448 -0.4036  0.6581
56963SOL    HW182868   2.182   6.029   7.801 -0.2780  1.3363  2.0863
56963SOL    HW282869   2.272   6.134   7.739  0.7859  0.0386  1.3639
56964SOL     OW82870  11.715  10.571   9.166 -0.3995 -0.0746  0.3933
56964SOL    HW182871  11.712  10.602   9.256  2.4768 -1.8692  1.2581
56964SOL    HW282872  11.777  10.630   9.123 -0.3989 -0.2949  0.0867
56965SOL     OW82873   1.471   7.396   1.873  0.3673 -0.5471  0.0037
56965SOL    HW182874   1.510   7.348   1.945 -0.4004 -0.8605  0.2192
56965SOL    HW282875   1.377   7.398   1.892  0.3838  1.1905  0.0933
56966SOL     OW82876   3.264   9.990  10.393 -0.0729 -0.6962 -0.5171
56966SOL    HW182877   3.240   9.998  10.486  0.6068 -1.4098 -0.2653
56966SOL    HW282878   3.217   9.912  10.363  1.5168 -1.8432 -0.1372
56967SOL     OW82879   1.552   2.090   6.125  0.2778  0.0710  0.1926
56967SOL    HW182880   1.625   2.032   6.146  1.4198  0.5721 -2.0588
56967SOL    HW282881   1.580   2.176   6.157 -0.1630 -0.0686  0.9767
56968SOL     OW82882   5.273   2.671  14.008 -0.8081  0.1612 -0.0228
56968SOL    HW182883   5.199   2.637  13.957 -0.1268 -0.0780 -0.8664
56968SOL    HW282884   5.297   2.598  14.065 -1.5285  0.4067  0.6153
56969SOL     OW82885  12.086   5.573  13.918  0.1222 -0.6902  0.1373
56969SOL    HW182886  12.028   5.504  13.886 -0.2404 -0.3340  0.0157
56969SOL    HW282887  12.161   5.527  13.955 -0.8722 -1.2241  1.5726
56970SOL     OW82888  13.511   0.791  13.315  0.4615 -0.4343  0.0692
56970SOL    HW182889  13.558   0.710  13.295  0.2111 -0.4492 -0.4758
56970SOL    HW282890  13.576   0.845  13.360  1.6071  0.2398 -2.2225
56971SOL     OW82891   9.644   5.647   8.615 -0.4870 -0.2574 -0.2001
56971SOL    HW182892   9.557   5.608   8.622 -0.8971  0.7740  0.7449
56971SOL    HW282893   9.703   5.578   8.646 -1.0444 -0.6719 -0.0419
56972SOL     OW82894   4.980   9.922   2.499 -0.5828  0.0748 -0.6082
56972SOL    HW182895   5.048   9.872   2.453  0.2791 -1.0907  1.7708
56972SOL    HW282896   4.914   9.856   2.523 -1.1644  0.7039 -0.4456
56973SOL     OW82897   3.675   6.927  10.960 -0.0826 -0.5780  0.1642
56973SOL    HW182898   3.634   7.005  10.997 -1.0254 -1.4058  0.8921
56973SOL    HW282899   3.691   6.950  10.868 -1.8058 -0.0900 -0.0413
56974SOL     OW82900   7.916  12.342  13.833 -0.0169  0.2958 -0.0614
56974SOL    HW182901   7.884  12.258  13.800  0.5596 -0.0748  0.3332
56974SOL    HW282902   7.901  12.403  13.760 -0.9539 -0.0218 -0.1447
56975SOL     OW82903  13.456  10.101  12.809 -0.2366 -0.1096  0.3460
56975SOL    HW182904  13.549  10.108  12.829 -0.6779  0.8690  2.3497
56975SOL    HW282905  13.431  10.014  12.841 -0.0221 -0.3482 -0.1341
56976SOL     OW82906   5.199   9.279  11.268  0.2413  0.1357  0.3160
56976SOL    HW182907   5.129   9.309  11.325 -1.2483  0.9823 -1.8224
56976SOL    HW282908   5.269   9.343  11.281 -1.4072  2.4221 -1.2659
56977SOL     OW82909   2.388   2.476   9.060 -0.0676 -0.0001 -0.3452
56977SOL    HW182910   2.465   2.421   9.074  0.4089  0.8058  0.2787
56977SOL    HW282911   2.423   2.564   9.047 -0.8858  0.4187  0.1580
56978SOL     OW82912   2.553  11.054   1.167 -0.0708  0.3010 -0.1592
56978SOL    HW182913   2.636  11.098   1.150  0.2716 -0.0307  0.5990
56978SOL    HW282914   2.492  11.092   1.104  1.1580 -0.9917 -2.2843
56979SOL     OW82915   5.436   0.736  12.212  0.3554  0.4266  0.1929
56979SOL    HW182916   5.500   0.672  12.243  1.7859  0.8608 -1.7021
56979SOL    HW282917   5.424   0.717  12.119 -0.8046  1.5834  0.0659
56980SOL     OW82918   1.302   8.031   5.489 -0.1756  0.1346  0.0860
56980SOL    HW182919   1.384   8.013   5.535 -0.7021 -1.3252  0.5195
56980SOL    HW282920   1.234   7.990   5.543 -1.2366  1.5279 -0.1268
56981SOL     OW82921   1.062  10.551   5.464 -0.5369  0.0722  0.1368
56981SOL    HW182922   1.055  10.475   5.521 -1.7271  0.6593  0.8194
56981SOL    HW282923   0.979  10.552   5.415  0.0617  0.1260 -0.9141
56982SOL     OW82924   3.618   4.142  13.207  0.1108 -0.1779 -0.4398
56982SOL    HW182925   3.702   4.155  13.164 -0.0561  0.0001 -0.7111
56982SOL    HW282926   3.640   4.119  13.297  0.5042 -1.6393 -0.8762
56983SOL     OW82927   4.150   1.569  11.957 -0.3666  0.0658 -0.0734
56983SOL    HW182928   4.144   1.664  11.947  0.3472  0.1260 -0.0084
56983SOL    HW282929   4.188   1.557  12.045 -0.0323 -0.2603 -0.2580
56984SOL     OW82930   4.378   1.956  12.863 -0.8998  0.1285 -0.2321
56984SOL    HW182931   4.465   1.994  12.870 -0.3868 -1.1780  0.9684
56984SOL    HW282932   4.338   1.971  12.949 -0.6001 -2.1257  0.3648
56985SOL     OW82933   8.753  10.984   1.628  0.1667 -0.1866  0.8666
56985SOL    HW182934   8.841  11.008   1.601 -0.1034 -0.1039  0.0223
56985SOL    HW282935   8.728  10.913   1.569 -0.8679  0.7618  0.0923
56986SOL     OW82936   9.201   4.135   4.797 -0.0387 -0.7698  1.0543
56986SOL    HW182937   9.127   4.195   4.806  0.8349  0.8589 -1.3913
56986SOL    HW282938   9.272   4.179   4.844  1.0038  1.0450 -1.9609
56987SOL     OW82939   5.631   1.221  11.920  0.1299  0.1617 -0.4107
56987SOL    HW182940   5.545   1.262  11.908  0.8953  1.6922 -0.9060
56987SOL    HW282941   5.683   1.287  11.965  1.6375  0.0732 -1.9242
56988SOL     OW82942   2.415   5.540   8.291  0.4373 -0.0075  0.1513
56988SOL    HW182943   2.476   5.589   8.236 -0.2260  0.6414 -0.0271
56988SOL    HW282944   2.331   5.545   8.245  0.3094 -1.1721  0.2254
56989SOL     OW82945   2.058   1.494   7.934 -0.0353  0.1535  0.5396
56989SOL    HW182946   2.025   1.404   7.930 -0.9055  0.5172 -2.2717
56989SOL    HW282947   2.143   1.490   7.889 -0.0189  0.7247  0.5105
56990SOL     OW82948   3.482   5.798   7.810 -0.2236  0.4354  0.5684
56990SOL    HW182949   3.393   5.820   7.839 -1.5779 -0.4111 -2.5110
56990SOL    HW282950   3.517   5.881   7.776 -1.1936  0.1599 -1.2398
56991SOL     OW82951  10.205  12.682  13.852 -0.4914  0.4467  0.4835
56991SOL    HW182952  10.163  12.730  13.781  0.2294  0.5770  0.1397
56991SOL    HW282953  10.201  12.741  13.927  0.7850  1.2381 -0.0491
56992SOL     OW82954  13.888   2.254   0.029  0.0929  0.3503 -0.8809
56992SOL    HW182955  13.817   2.302   0.073  0.2439 -0.4585  0.2939
56992SOL    HW282956  13.844   2.206  -0.041 -1.1124 -2.2811  1.4442
56993SOL     OW82957   2.758   0.349  11.219 -0.7043  0.0034 -0.3952
56993SOL    HW182958   2.833   0.343  11.278  1.2127 -0.5850 -2.7261
56993SOL    HW282959   2.706   0.421  11.254  0.8147  0.2938  1.4436
56994SOL     OW82960   2.459   9.438   7.746 -0.3447 -0.2273 -0.0833
56994SOL    HW182961   2.425   9.428   7.835  1.1194 -0.7414  0.4415
56994SOL    HW282962   2.423   9.522   7.716 -0.9003 -0.0740  0.9603
56995SOL     OW82963  10.699  10.143   8.792 -0.6345 -0.0121  0.4859
56995SOL    HW182964  10.650  10.138   8.710 -0.1649  2.0543  0.0422
56995SOL    HW282965  10.655  10.211   8.842  1.8811  2.1685 -0.0557
56996SOL     OW82966  11.308   6.449   2.867 -0.0993 -0.0910 -0.5347
56996SOL    HW182967  11.254   6.399   2.928 -0.1275 -0.2358 -0.6803
56996SOL    HW282968  11.377   6.486   2.921 -0.6065  0.4778 -0.2613
56997SOL     OW82969  11.259   3.060  11.833 -0.2167  0.1310  0.3987
56997SOL    HW182970  11.343   3.061  11.879  1.1086  3.6728 -1.7320
56997SOL    HW282971  11.274   3.002  11.758 -0.1778 -0.3159  0.7413
56998SOL     OW82972  10.844   0.328   2.025  0.2421  0.3749 -0.0920
56998SOL    HW182973  10.922   0.384   2.030  1.0274 -0.6765 -0.2461
56998SOL    HW282974  10.807   0.345   1.938 -0.0338  1.2898  0.1947
56999SOL     OW82975   6.115   3.222  10.211  0.7346 -0.8751  0.4242
56999SOL    HW182976   6.145   3.131  10.205  0.7762 -0.7953 -0.7581
56999SOL    HW282977   6.068   3.237  10.129  0.9619  0.2536  0.4899
57000SOL     OW82978   0.561  13.521  11.445 -0.1979 -0.1977 -0.4803
57000SOL    HW182979   0.603  13.600  11.480 -1.5150  0.6597 -0.7978
57000SOL    HW282980   0.584  13.521  11.352 -0.7596  0.2007 -0.6264
57001SOL     OW82981   8.106   2.174   9.283 -0.3070 -0.0848 -0.2202
57001SOL    HW182982   8.140   2.181   9.372 -0.2788  2.4003 -0.3807
57001SOL    HW282983   8.013   2.153   9.294  0.2300 -2.5009  0.2843
57002SOL     OW82984  13.193   8.157   2.936 -0.2156  0.4143 -0.0772
57002SOL    HW182985  13.253   8.105   2.990  1.0523  1.5314 -0.3641
57002SOL    HW282986  13.212   8.129   2.846 -1.4226 -0.5186 -0.0683
57003SOL     OW82987  11.195  11.233   2.804  0.1809 -0.3051 -0.1971
57003SOL    HW182988  11.213  11.182   2.725  0.3513 -0.6667  0.0681
57003SOL    HW282989  11.160  11.316   2.773  1.3716  0.0313 -0.7116
57004SOL     OW82990   4.252   1.839   4.491  0.3239  0.2815  0.2867
57004SOL    HW182991   4.329   1.896   4.485  1.3668 -1.1111 -0.1784
57004SOL    HW282992   4.210   1.865   4.573  1.9891  0.2752  1.2014
57005SOL     OW82993   0.460   7.262   2.218 -0.1010 -0.7594 -0.2008
57005SOL    HW182994   0.367   7.241   2.218  0.0087 -1.2817 -0.5142
57005SOL    HW282995   0.503   7.179   2.195  0.2837  0.1712 -3.2422
57006SOL     OW82996   6.688  11.972  11.957  0.4571 -0.0752  0.1614
57006SOL    HW182997   6.701  12.063  11.983  0.9527  0.6783 -2.4932
57006SOL    HW282998   6.606  11.972  11.908  0.1928 -1.2027  0.5518
57007SOL     OW82999  13.782   3.357   8.861 -0.2179  0.6995 -0.2247
57007SOL    HW183000  13.731   3.387   8.786  0.1778 -0.7086 -1.0777
57007SOL    HW283001  13.782   3.432   8.921  0.4798  2.2875 -2.1170
57008SOL     OW83002   3.827   7.772   0.508  0.2931  0.2253  0.3313
57008SOL    HW183003   3.851   7.839   0.572  1.3397 -1.8649  2.2666
57008SOL    HW283004   3.783   7.820   0.438  1.2849  2.9398  1.4537
57009SOL     OW83005  11.416   2.583   1.053 -0.2041  0.0807  0.5348
57009SOL    HW183006  11.458   2.573   1.138  0.7814 -0.0396  0.0454
57009SOL    HW283007  11.354   2.510   1.048  0.3498 -0.4108  0.7903
57010SOL     OW83008  12.981   3.360  10.276  0.5975  0.0433  0.0704
57010SOL    HW183009  12.964   3.447  10.312 -1.0484 -0.0706 -0.3524
57010SOL    HW283010  13.076   3.350  10.281  0.6252  0.8216  2.5115
57011SOL     OW83011   1.406  13.256   3.278  0.4488 -0.0580  0.5517
57011SOL    HW183012   1.388  13.203   3.356 -0.0474 -0.0990  0.4154
57011SOL    HW283013   1.328  13.311   3.269  0.6708  0.2182  0.3025
57012SOL     OW83014   8.214   1.278   7.543  0.0201  0.2154 -0.1285
57012SOL    HW183015   8.276   1.324   7.486  1.3298  0.6073  1.5411
57012SOL    HW283016   8.144   1.251   7.484  1.3633  0.4875 -1.9471
57013SOL     OW83017  11.838   0.025   6.620 -0.5472 -0.4751 -0.1751
57013SOL    HW183018  11.774   0.048   6.688  0.2108 -0.8085  0.6624
57013SOL    HW283019  11.915   0.077   6.642 -0.4908 -0.1343 -1.1395
57014SOL     OW83020   0.480   2.494   1.020  0.0021  0.0685  0.0995
57014SOL    HW183021   0.508   2.439   0.947 -0.1180 -0.8459  0.7273
57014SOL    HW283022   0.556   2.500   1.077 -0.7527 -1.7122  1.3775
57015SOL     OW83023   4.160   5.926   0.267 -0.0594 -0.4437 -0.1952
57015SOL    HW183024   4.228   5.863   0.291  0.2590 -0.3791 -0.8939
57015SOL    HW283025   4.182   6.005   0.316  0.4173 -0.4026 -0.4666
57016SOL     OW83026   8.760   2.132  11.348  0.3385  0.2003 -0.2348
57016SOL    HW183027   8.738   2.046  11.383  2.3163 -0.3873 -0.3609
57016SOL    HW283028   8.704   2.193  11.397 -1.0461 -1.1180 -0.1085
57017SOL     OW83029   0.774   3.747   6.031  0.5936  0.0238  0.0329
57017SOL    HW183030   0.726   3.737   5.948 -0.3256 -2.4661  0.7738
57017SOL    HW283031   0.850   3.800   6.008  0.4423 -0.7076 -2.4477
57018SOL     OW83032   8.256   5.989  13.222 -0.6001  0.6365 -0.7115
57018SOL    HW183033   8.173   5.985  13.269  0.3627  0.1751  1.0314
57018SOL    HW283034   8.253   6.072  13.175 -0.5936  2.3920  2.2075
57019SOL     OW83035   4.726   2.381   5.096 -0.2279 -0.1376 -0.3431
57019SOL    HW183036   4.725   2.465   5.050  0.8419 -1.5263 -3.1322
57019SOL    HW283037   4.642   2.341   5.074  0.6786 -1.2174 -2.0417
57020SOL     OW83038   8.572   2.323   7.407  0.2560 -0.0383  0.1229
57020SOL    HW183039   8.566   2.410   7.369 -0.8647 -0.5017 -0.8069
57020SOL    HW283040   8.607   2.338   7.495 -0.9367  1.4559  0.3869
57021SOL     OW83041   9.165   5.001  11.034 -0.1329 -0.1458  0.0655
57021SOL    HW183042   9.078   5.035  11.054 -0.2201  0.0416 -0.6052
57021SOL    HW283043   9.176   5.019  10.941  0.6508 -0.1099  0.1629
57022SOL     OW83044   8.532   7.092   0.236 -0.4869  0.0889 -0.6400
57022SOL    HW183045   8.611   7.118   0.190 -0.0118  1.7161  0.9864
57022SOL    HW283046   8.462   7.144   0.196 -0.2847  0.5910 -0.3441
57023SOL     OW83047   3.227   2.072   3.851 -0.0283 -0.3398  0.2450
57023SOL    HW183048   3.283   2.066   3.929 -1.1007 -0.8449  0.9961
57023SOL    HW283049   3.224   1.983   3.817  1.7019  0.1270 -1.3413
57024SOL     OW83050   1.842   9.435   8.423  0.3523 -0.4186 -0.1095
57024SOL    HW183051   1.880   9.517   8.455 -2.6251  0.7610  0.7904
57024SOL    HW283052   1.839   9.445   8.328  1.7284 -0.3382 -0.1635
57025SOL     OW83053  11.017   0.762   5.910 -0.1869 -0.0544 -0.0040
57025SOL    HW183054  11.094   0.818   5.910 -0.4075  0.2537  0.4278
57025SOL    HW283055  11.043   0.685   5.858  0.5037 -0.0894  0.3761
57026SOL     OW83056   6.133  11.011   5.689 -0.0117  0.4382  0.3488
57026SOL    HW183057   6.202  11.056   5.737 -0.7124  0.7025  1.1280
57026SOL    HW283058   6.151  10.917   5.703 -0.3829  0.5081  1.4066
57027SOL     OW83059   3.597  11.440   5.074 -0.3141 -0.3319 -0.5697
57027SOL    HW183060   3.506  11.462   5.097  0.1192 -0.0243  0.9486
57027SOL    HW283061   3.607  11.349   5.100 -0.1424 -0.3287 -0.6262
57028SOL     OW83062   0.745   2.330  11.177  0.2136 -0.0214 -0.1073
57028SOL    HW183063   0.826   2.316  11.225  0.5115  1.2936 -0.1964
57028SOL    HW283064   0.772   2.344  11.086 -0.1530 -0.0900 -0.2303
57029SOL     OW83065   3.058   3.417   0.804  0.5317  0.0498 -0.1407
57029SOL    HW183066   3.149   3.396   0.784  0.2999 -2.1776  0.7225
57029SOL    HW283067   3.008   3.372   0.736  0.0584  0.8529 -0.3253
57030SOL     OW83068  12.102   7.222   0.295 -0.2373  0.2380 -0.5580
57030SOL    HW183069  12.068   7.311   0.286 -0.9103 -0.1503 -2.2186
57030SOL    HW283070  12.159   7.226   0.372 -2.5708  1.3710  1.2634
57031SOL     OW83071   7.975  10.076   9.420 -0.6864  0.0925 -0.6582
57031SOL    HW183072   7.990  10.031   9.337 -1.0353  0.8646 -1.1440
57031SOL    HW283073   8.036  10.034   9.481 -0.9995 -1.0235 -1.0986
57032SOL     OW83074   8.563   3.733   4.833  0.6011 -0.7483  0.5837
57032SOL    HW183075   8.580   3.803   4.771  1.3882  0.3575  1.9844
57032SOL    HW283076   8.616   3.659   4.803  0.6295 -0.3782 -0.2884
57033SOL     OW83077  10.034  12.276  10.525  0.1800 -0.5614 -0.4460
57033SOL    HW183078  10.035  12.220  10.447  0.8303 -1.9543  0.5109
57033SOL    HW283079  10.083  12.354  10.501  2.3342 -1.9414 -0.7809
57034SOL     OW83080   4.318   8.699   1.274 -0.0771 -0.3086  0.1541
57034SOL    HW183081   4.355   8.784   1.296  2.9911 -1.4426 -0.0985
57034SOL    HW283082   4.248   8.719   1.212  1.0000  2.0194 -0.4373
57035SOL     OW83083   4.649   8.310   5.190  0.0801 -0.0201 -0.1241
57035SOL    HW183084   4.637   8.374   5.261  1.1253 -0.9779  0.9528
57035SOL    HW283085   4.711   8.352   5.130  1.1839 -0.2031  0.8491
57036SOL     OW83086   4.459   5.243  10.745  0.5047  0.1145 -0.5172
57036SOL    HW183087   4.494   5.327  10.775  0.3265  0.2166 -0.5899
57036SOL    HW283088   4.489   5.180  10.810  0.3351  0.2943 -0.2601
57037SOL     OW83089   2.357   4.657   6.033 -0.7200 -0.1087  0.0645
57037SOL    HW183090   2.377   4.738   6.079 -4.6683  0.8125  0.4721
57037SOL    HW283091   2.350   4.591   6.102  1.6581 -0.7437 -0.1943
57038SOL     OW83092   2.327   7.710   5.460 -0.3402 -0.0093  0.0357
57038SOL    HW183093   2.298   7.762   5.535 -0.8035 -0.8311  0.4388
57038SOL    HW283094   2.253   7.653   5.440  0.1359 -0.4717 -0.4356
57039SOL     OW83095   3.881  13.882   5.235  0.1028  0.1710  0.9233
57039SOL    HW183096   3.910  13.831   5.159  0.7377 -1.1742  2.0320
57039SOL    HW283097   3.802  13.837   5.266  0.5145  0.0044  1.7511
57040SOL     OW83098   7.632   7.578   8.823 -0.2827  0.3024 -0.2204
57040SOL    HW183099   7.697   7.510   8.839 -0.5881  0.2723  0.9656
57040SOL    HW283100   7.552   7.546   8.866 -0.2712  1.6455  0.8769
57041SOL     OW83101  13.092   4.848   4.238  0.0270 -0.3882  0.3068
57041SOL    HW183102  13.123   4.831   4.149  0.6152 -1.4462  0.6971
57041SOL    HW283103  13.109   4.941   4.252  1.3316 -0.5371 -0.1570
57042SOL     OW83104   1.904  11.266  11.327 -0.2999 -0.3681  0.1748
57042SOL    HW183105   1.981  11.316  11.352  0.0813 -0.7387 -0.2305
57042SOL    HW283106   1.845  11.330  11.286  0.2334 -0.2693 -0.4529
57043SOL     OW83107  12.870   4.917   1.161 -0.0213 -0.2938  0.0719
57043SOL    HW183108  12.850   4.827   1.185 -0.3920 -0.4102 -0.6260
57043SOL    HW283109  12.831   4.928   1.074 -3.5619  1.7152  1.6532
57044SOL     OW83110  11.986   1.307  11.502 -0.2400  0.5235  0.0503
57044SOL    HW183111  11.950   1.377  11.557  1.5271 -0.5288  2.7503
57044SOL    HW283112  12.078   1.300  11.529 -0.3331 -2.7760 -0.1034
57045SOL     OW83113   1.729   9.843   4.540 -0.6600 -0.4122 -0.6223
57045SOL    HW183114   1.810   9.796   4.521 -0.4149  0.4085 -1.7618
57045SOL    HW283115   1.663   9.798   4.487 -0.6071 -0.0592 -0.9936
57046SOL     OW83116  10.199   2.856   1.875  0.1690  0.1871 -0.5064
57046SOL    HW183117  10.231   2.914   1.945  1.0086 -0.8574  0.0014
57046SOL    HW283118  10.206   2.768   1.911 -1.3979 -0.2407 -1.1536
57047SOL     OW83119   6.003   7.126   9.103 -0.5787  0.2294  0.3058
57047SOL    HW183120   5.923   7.082   9.132 -0.1484 -0.4715  0.4682
57047SOL    HW283121   6.023   7.086   9.018  0.5991 -0.9720  1.0967
57048SOL     OW83122   7.328   3.709   6.555 -0.3590  0.2460  0.1082
57048SOL    HW183123   7.237   3.680   6.560 -0.0879 -0.7582 -0.4436
57048SOL    HW283124   7.377   3.630   6.532  0.8248  0.4984  1.6515
57049SOL     OW83125   2.430   9.324   1.692  0.4560 -0.0630  0.0785
57049SOL    HW183126   2.516   9.316   1.651  1.0910  0.5077  1.2446
57049SOL    HW283127   2.426   9.414   1.724 -1.0944  0.3164 -1.0209
57050SOL     OW83128  10.311   0.355   5.675 -0.5822  0.2969  0.1045
57050SOL    HW183129  10.345   0.347   5.586  1.7495 -1.7085  1.0630
57050SOL    HW283130  10.255   0.279   5.687 -1.0610  0.6729  0.3142
57051SOL     OW83131   2.319   1.917  13.552 -0.1066 -0.4221 -0.1884
57051SOL    HW183132   2.245   1.903  13.494  0.4767  0.6666 -1.2301
57051SOL    HW283133   2.311   2.008  13.580  1.3358 -0.0078 -1.0484
57052SOL     OW83134   9.705  11.003   8.297  0.0791 -0.1150  0.1838
57052SOL    HW183135   9.684  11.093   8.322 -1.2702 -0.0774 -0.9564
57052SOL    HW283136   9.770  11.012   8.227  1.7720 -0.1376  1.6903
57053SOL     OW83137   1.337   8.724   4.687 -0.1807 -0.3330 -0.2525
57053SOL    HW183138   1.377   8.808   4.664  0.8609 -0.5575  0.6562
57053SOL    HW283139   1.278   8.745   4.759  0.3617 -0.4247  0.2279
57054SOL     OW83140  13.507   8.730   4.635  0.3900 -0.4363 -0.5234
57054SOL    HW183141  13.493   8.714   4.542 -1.8001  3.9844 -1.2035
57054SOL    HW283142  13.439   8.679   4.679 -0.5697 -0.1448 -1.6448
57055SOL     OW83143  12.700   2.839   0.435  0.4103  0.6636 -0.3474
57055SOL    HW183144  12.725   2.827   0.526 -0.7806 -2.0407 -0.2651
57055SOL    HW283145  12.752   2.775   0.387  0.1130  1.1778 -1.3939
57056SOL     OW83146  10.501   6.718   0.627  0.5331  0.2183 -0.1976
57056SOL    HW183147  10.548   6.785   0.576  2.6824 -1.2423 -0.2618
57056SOL    HW283148  10.454   6.768   0.694  0.3905  1.9315 -1.5140
57057SOL     OW83149   7.180  12.705   2.213  0.1387 -0.1088  0.2907
57057SOL    HW183150   7.190  12.667   2.126 -0.5380 -0.2436  0.2677
57057SOL    HW283151   7.205  12.797   2.202 -0.1720 -0.0711 -0.0982
57058SOL     OW83152   3.195   9.531  10.618  0.1326  0.1164  0.3079
57058SOL    HW183153   3.100   9.523  10.626  0.2271 -0.1210  1.3561
57058SOL    HW283154   3.223   9.567  10.702  0.8830  1.0879 -0.3362
57059SOL     OW83155   3.193   6.611   1.604  0.7195  0.3691  0.3237
57059SOL    HW183156   3.180   6.530   1.654  0.5975  0.4589  0.4371
57059SOL    HW283157   3.263   6.590   1.542 -0.9214 -0.6001 -1.2974
57060SOL     OW83158   6.078  10.835  10.222  0.2825  0.5913 -0.2228
57060SOL    HW183159   6.001  10.791  10.258 -1.1971 -0.5024 -4.1602
57060SOL    HW283160   6.046  10.920  10.191  0.4174 -0.0529 -2.3032
57061SOL     OW83161   8.245   7.287   2.240  0.0882  0.0603  0.1221
57061SOL    HW183162   8.320   7.262   2.187  0.1620  0.0505  0.2301
57061SOL    HW283163   8.282   7.338   2.312 -0.1141  0.9087 -0.3643
57062SOL     OW83164   4.385   9.544  10.471 -0.1787  0.0783  0.1157
57062SOL    HW183165   4.341   9.589  10.542 -0.7688 -1.6798  0.9198
57062SOL    HW283166   4.438   9.477  10.514  2.0185  1.0542 -0.9279
57063SOL     OW83167   7.874   6.270  10.855 -0.8913  0.3891  0.0407
57063SOL    HW183168   7.857   6.344  10.797  2.0053  1.0979 -0.0637
57063SOL    HW283169   7.904   6.310  10.936  1.6610 -0.5848 -0.3378
57064SOL     OW83170  11.557   8.953  13.616 -0.5567  0.1838 -0.3990
57064SOL    HW183171  11.483   8.892  13.621 -1.1869  1.0201  1.2207
57064SOL    HW283172  11.634   8.897  13.618 -1.0396 -0.8252 -3.6671
57065SOL     OW83173   8.571   0.414   8.926  0.0079 -0.0335 -0.1493
57065SOL    HW183174   8.489   0.410   8.976 -0.1875  0.1521 -0.4568
57065SOL    HW283175   8.614   0.330   8.945 -0.1390 -0.0310  0.2033
57066SOL     OW83176  12.865   9.943  13.457 -0.2538  0.1184  0.5126
57066SOL    HW183177  12.771   9.944  13.436 -0.1262  0.5331 -0.0820
57066SOL    HW283178  12.894  10.032  13.437  0.4826 -0.2981 -0.3663
57067SOL     OW83179   2.824  10.380   9.577 -0.4275  0.2432 -0.2309
57067SOL    HW183180   2.855  10.465   9.608 -2.3117  0.4457  1.2469
57067SOL    HW283181   2.735  10.372   9.611 -0.3356 -2.3091 -0.3522
57068SOL     OW83182   8.902   2.167   8.885 -0.4529 -0.0428  0.2076
57068SOL    HW183183   8.848   2.243   8.866  0.3238  0.6769  0.7848
57068SOL    HW283184   8.990   2.193   8.855 -0.4682 -1.2967 -1.0031
57069SOL     OW83185  12.336   7.706   0.651  0.4622 -0.2735 -0.3373
57069SOL    HW183186  12.359   7.798   0.664 -0.0448 -0.2891  0.7875
57069SOL    HW283187  12.419   7.659   0.663  0.9241  0.0918 -1.9146
57070SOL     OW83188   4.058   0.055   4.703  0.3588  0.2822  0.4746
57070SOL    HW183189   4.088   0.043   4.794 -0.0772  3.0556  1.0684
57070SOL    HW283190   4.126   0.109   4.663 -1.5261  2.8719  0.5315
57071SOL     OW83191   5.924   8.199  10.230  0.0299  0.3327 -0.2941
57071SOL    HW183192   5.894   8.122  10.278 -0.8838 -0.3787 -1.9326
57071SOL    HW283193   6.013   8.213  10.261 -0.4571 -0.1759  1.4672
57072SOL     OW83194   1.442   1.374   7.245 -0.4798  0.5083  0.1267
57072SOL    HW183195   1.425   1.279   7.246 -0.6218  0.5306 -0.0457
57072SOL    HW283196   1.533   1.382   7.272 -0.9193  0.4369  1.7287
57073SOL     OW83197   2.418  11.829   3.850  1.2356 -0.1392  0.0779
57073SOL    HW183198   2.424  11.828   3.946  0.3049 -0.5264  0.1387
57073SOL    HW283199   2.324  11.835   3.832  1.4810  1.6457 -0.8084
57074SOL     OW83200  13.241  13.524   0.559  0.2048  0.3306  0.1619
57074SOL    HW183201  13.175  13.458   0.583  0.3825  0.4572  1.0322
57074SOL    HW283202  13.256  13.509   0.466  1.4494 -1.9871  0.6397
57075SOL     OW83203   0.379   7.801   8.654  0.3102  0.6246  0.8332
57075SOL    HW183204   0.316   7.787   8.583  1.0210  1.9450 -0.0840
57075SOL    HW283205   0.463   7.770   8.619  0.7607  1.7209  0.9110
57076SOL     OW83206   4.204   5.607   0.315  0.3896 -0.6530 -0.0777
57076SOL    HW183207   4.205   5.599   0.220  0.5194 -1.2278 -0.0319
57076SOL    HW283208   4.112   5.625   0.337  0.4504 -0.0022 -0.3475
57077SOL     OW83209   2.075   2.940   8.508  0.2446 -0.3817  0.1292
57077SOL    HW183210   2.128   2.864   8.484 -1.8626 -1.7738 -0.3964
57077SOL    HW283211   2.022   2.909   8.582  0.1042  0.9532  0.6199
57078SOL     OW83212   5.231  13.410   9.330 -0.0620 -0.2571  0.1026
57078SOL    HW183213   5.272  13.393   9.415  1.2409 -1.1607 -0.6796
57078SOL    HW283214   5.137  13.401   9.347  0.1504 -0.1629  1.4907
57079SOL     OW83215  13.779   6.112   5.078 -0.5083 -0.5755 -0.0880
57079SOL    HW183216  13.809   6.058   5.004  0.0884 -0.5105  0.0949
57079SOL    HW283217  13.835   6.190   5.075 -0.8961 -0.2894  0.0668
57080SOL     OW83218  12.596   5.521  11.685  0.1698 -0.0589  0.1169
57080SOL    HW183219  12.690   5.513  11.667  0.1569  2.7610 -1.8516
57080SOL    HW283220  12.588   5.602  11.735 -1.1261 -1.3599  2.1922
57081SOL     OW83221   7.474   6.674  13.198  0.3823  0.2395 -0.3854
57081SOL    HW183222   7.454   6.743  13.262  1.8117  1.1080 -0.8232
57081SOL    HW283223   7.485   6.595  13.251 -1.3904  0.2695  0.1193
57082SOL     OW83224   8.444  10.037   9.592 -0.6454  0.0894 -0.2753
57082SOL    HW183225   8.468   9.958   9.640 -3.0962  0.6023  2.0174
57082SOL    HW283226   8.511  10.101   9.616 -0.7200 -0.2453  0.8560
57083SOL     OW83227  11.026  10.964   4.244 -0.1703 -0.3593 -0.8513
57083SOL    HW183228  10.938  10.930   4.228 -0.9688  0.6378  0.9706
57083SOL    HW283229  11.017  11.059   4.233 -0.3755  0.2253  2.9097
57084SOL     OW83230   7.393   5.117   5.912  0.2215  0.4267  0.0103
57084SOL    HW183231   7.425   5.028   5.927 -0.8811  0.0225  0.0638
57084SOL    HW283232   7.424   5.140   5.824  0.2143 -0.1421 -0.1410
57085SOL     OW83233  10.854  12.870   4.973  0.4999 -0.2216  0.3670
57085SOL    HW183234  10.897  12.790   5.003 -0.6688 -0.8299  0.4727
57085SOL    HW283235  10.775  12.840   4.929  2.3440  0.5376 -3.9541
57086SOL     OW83236  10.006  12.239   7.370 -0.0859 -0.6655  0.5066
57086SOL    HW183237   9.999  12.298   7.295 -1.6337  0.7387  1.6782
57086SOL    HW283238   9.917  12.204   7.382  0.2063 -1.1275  1.4614
57087SOL     OW83239  12.333   2.951   0.736  0.1862  0.2636  0.3713
57087SOL    HW183240  12.388   2.989   0.805 -2.0358  0.4112  2.1913
57087SOL    HW283241  12.329   3.018   0.668  0.1913  1.3091  1.3744
57088SOL     OW83242   3.021  10.500   1.763 -0.3265 -0.6486  0.2824
57088SOL    HW183243   3.011  10.426   1.703  0.9000 -0.0353 -0.7308
57088SOL    HW283244   3.038  10.575   1.706 -2.6636  0.6691  1.2243
57089SOL     OW83245   2.945   5.250   3.249 -0.4118  0.4325  0.1760
57089SOL    HW183246   2.912   5.294   3.327 -1.1973  0.8373 -0.3653
57089SOL    HW283247   2.919   5.307   3.176  0.8264  0.3580 -0.3405
57090SOL     OW83248  10.229  13.590   2.769  0.5217 -0.7788  0.1939
57090SOL    HW183249  10.306  13.646   2.754 -1.2355  2.0815  1.0578
57090SOL    HW283250  10.206  13.606   2.860 -1.7422 -0.6256 -0.3452
57091SOL     OW83251   8.650   1.067   8.238 -0.3586 -0.3487  0.1294
57091SOL    HW183252   8.614   1.053   8.326 -0.3080  0.1965  0.2404
57091SOL    HW283253   8.713   1.138   8.249  0.6505 -1.1817 -0.0967
57092SOL     OW83254   4.155   3.441   6.188 -0.4313  0.1484 -0.0662
57092SOL    HW183255   4.240   3.443   6.144 -0.4678 -0.3123 -0.1565
57092SOL    HW283256   4.094   3.409   6.121 -0.1263 -2.7496  0.9189
57093SOL     OW83257   0.927   8.833   2.531 -0.2212 -0.3404  0.3310
57093SOL    HW183258   0.909   8.821   2.624  0.2700  0.8966  0.6078
57093SOL    HW283259   0.847   8.872   2.495 -1.0409 -2.3270 -0.1427
57094SOL     OW83260   4.732   8.955   1.893 -0.2740  0.1010 -0.3762
57094SOL    HW183261   4.639   8.947   1.870 -1.0365 -0.8699  2.5783
57094SOL    HW283262   4.734   9.021   1.962  0.7767 -1.6887  1.4330
57095SOL     OW83263   1.184   1.191  10.549 -0.4017  0.0744  0.2850
57095SOL    HW183264   1.092   1.168  10.560 -0.5187  0.6270  0.4908
57095SOL    HW283265   1.185   1.252  10.475 -0.2596  0.4483  0.5949
57096SOL     OW83266   2.726   9.999   7.622  0.3692  0.0883  0.1512
57096SOL    HW183267   2.771  10.082   7.636  0.9052 -0.1141 -0.3232
57096SOL    HW283268   2.638  10.013   7.655  0.6638  0.6220  0.7314
57097SOL     OW83269  13.113  12.726  12.246 -0.0770  0.0968 -0.5025
57097SOL    HW183270  13.142  12.636  12.261 -1.5508 -0.3144  0.0435
57097SOL    HW283271  13.120  12.769  12.331  1.1224  0.6835 -0.8669
57098SOL     OW83272   7.617   9.719   8.926  0.3584  0.5161 -0.1647
57098SOL    HW183273   7.676   9.658   8.882 -0.2203 -0.8856  0.9249
57098SOL    HW283274   7.675   9.778   8.974  0.9572 -1.2379  1.4135
57099SOL     OW83275  10.155  11.583   9.869  0.2348  0.4807 -0.1792
57099SOL    HW183276  10.093  11.511   9.855 -0.3981  1.1960 -1.1612
57099SOL    HW283277  10.099  11.658   9.889  0.8543  0.8761  0.0767
57100SOL     OW83278   4.342   1.140   2.536 -0.3589  0.3855 -0.1872
57100SOL    HW183279   4.358   1.048   2.556 -0.3421  0.6124  0.9334
57100SOL    HW283280   4.387   1.187   2.606  0.9944  1.3145 -1.6156
57101SOL     OW83281   5.445   8.976  13.427 -0.5814  0.1671  0.3038
57101SOL    HW183282   5.492   9.059  13.412  0.6970 -0.4275  0.8536
57101SOL    HW283283   5.391   8.965  13.349  1.1812  0.2508 -0.9811
57102SOL     OW83284  12.971   7.561  10.121  0.3016 -0.4528  0.2391
57102SOL    HW183285  13.044   7.530  10.174  1.7804  0.9823 -0.8729
57102SOL    HW283286  12.959   7.652  10.148 -0.2159 -0.2948 -0.5117
57103SOL     OW83287   9.871  12.976   7.221 -0.2572 -0.1410  0.4120
57103SOL    HW183288   9.884  12.882   7.234  1.5452 -0.3184 -2.0092
57103SOL    HW283289   9.796  12.982   7.162 -0.5964 -0.0044  0.8470
57104SOL     OW83290  10.485   8.889   9.074 -0.0128  0.4389 -0.3231
57104SOL    HW183291  10.476   8.915   9.165  1.2186  1.4122 -0.4534
57104SOL    HW283292  10.437   8.806   9.067  0.4202  0.0300  1.3441
57105SOL     OW83293  13.879   3.381   9.781 -0.3313  0.5229 -0.1402
57105SOL    HW183294  13.800   3.434   9.775 -1.0067 -0.3369  0.7800
57105SOL    HW283295  13.881   3.350   9.872  1.9325  1.7941  0.3388
57106SOL     OW83296   9.664   6.340  13.043 -0.5003 -0.3641 -0.3183
57106SOL    HW183297   9.668   6.411  13.107  1.1395 -0.3942 -0.3274
57106SOL    HW283298   9.720   6.371  12.971  1.4009 -2.1855  0.2802
57107SOL     OW83299  11.285   6.754   3.029  0.2553 -0.4723  0.2064
57107SOL    HW183300  11.215   6.748   2.963  1.2578 -2.3929 -0.7787
57107SOL    HW283301  11.366   6.751   2.978  1.0636 -1.6218  1.4782
57108SOL     OW83302   0.282  13.191   6.326  0.2431 -0.4860  0.8443
57108SOL    HW183303   0.228  13.135   6.270 -0.3285  0.2005  0.6873
57108SOL    HW283304   0.351  13.134   6.359 -0.4102 -1.3053  0.8057
57109SOL     OW83305   9.324   4.605   9.220  0.0096 -0.0648 -0.4493
57109SOL    HW183306   9.267   4.554   9.277  2.1697 -0.7805  1.1873
57109SOL    HW283307   9.268   4.631   9.147 -2.1618 -1.4107  0.6520
57110SOL     OW83308   1.414   8.728   9.380  0.2761  0.4142  1.0588
57110SOL    HW183309   1.398   8.698   9.469 -0.7876  1.5458  1.2751
57110SOL    HW283310   1.458   8.813   9.390  1.1434  0.0478  0.4883
57111SOL     OW83311   9.671   5.352   5.793  0.5562 -0.3308 -0.5483
57111SOL    HW183312   9.672   5.326   5.700  2.3998  0.4051 -0.7729
57111SOL    HW283313   9.654   5.446   5.792 -0.5636 -0.5039 -0.0385
57112SOL     OW83314   0.804   1.923  13.344  0.6402  0.0651 -0.7968
57112SOL    HW183315   0.711   1.898  13.341  0.2403  0.9073  1.6151
57112SOL    HW283316   0.845   1.856  13.399  1.5601 -0.4173 -2.0167
57113SOL     OW83317   1.010   3.466  12.459  0.2676  0.0291 -0.7600
57113SOL    HW183318   1.063   3.491  12.534  2.5617 -0.9374 -1.9532
57113SOL    HW283319   0.932   3.425  12.496  0.9949  0.2300  1.0651
57114SOL     OW83320   0.196   4.563  13.631  0.2365  0.1953 -0.4366
57114SOL    HW183321   0.160   4.497  13.690 -1.3258  1.3667 -0.0111
57114SOL    HW283322   0.164   4.537  13.544  0.9287 -0.4494 -0.5098
57115SOL     OW83323   7.930   3.132   3.201  0.6209 -0.1289  0.3653
57115SOL    HW183324   7.894   3.051   3.237 -0.5131 -0.4652 -1.3938
57115SOL    HW283325   7.910   3.199   3.267 -1.3716 -0.7062  0.4143
57116SOL     OW83326   6.243   5.262  14.003 -0.0504 -0.0183  0.3586
57116SOL    HW183327   6.193   5.254  13.922 -0.8602 -0.3943  0.8848
57116SOL    HW283328   6.265   5.172  14.027  0.2333  0.0943  0.5289
57117SOL     OW83329   4.180   7.396  12.404  0.3679 -0.1967  0.4643
57117SOL    HW183330   4.172   7.446  12.322  0.8441  0.1451  0.6250
57117SOL    HW283331   4.123   7.442  12.466  0.6664  0.0413  0.5616
57118SOL     OW83332   4.435  12.893   2.477  0.2870 -0.2432 -0.1598
57118SOL    HW183333   4.513  12.920   2.526  0.0315 -2.1325  1.3913
57118SOL    HW283334   4.401  12.975   2.440  2.2742  0.7971  0.1567
57119SOL     OW83335   4.761   9.528  11.795  0.2386 -0.6867  0.6629
57119SOL    HW183336   4.770   9.454  11.735 -0.2481 -0.0192 -0.2615
57119SOL    HW283337   4.800   9.497  11.876 -0.9414 -2.3505  0.6538
57120SOL     OW83338   3.469  10.507  10.206 -0.0980 -0.3611  0.4181
57120SOL    HW183339   3.457  10.553  10.124 -1.3730  0.3438  0.9696
57120SOL    HW283340   3.521  10.430  10.183  0.5812  0.4378 -0.8182
57121SOL     OW83341   5.317  11.888   9.910 -0.2525 -0.5842  0.3712
57121SOL    HW183342   5.260  11.888   9.988 -0.6452 -0.5873  0.0863
57121SOL    HW283343   5.258  11.908   9.837  0.0857 -0.7403  0.0525
57122SOL     OW83344   4.114   1.513  13.635  0.6269 -0.1696  0.8439
57122SOL    HW183345   4.159   1.521  13.552 -0.6781  0.3114  0.1491
57122SOL    HW283346   4.117   1.420  13.656 -0.1468 -0.5019 -0.4178
57123SOL     OW83347   1.812  10.521  10.851  0.4227  0.2148 -0.3380
57123SOL    HW183348   1.793  10.447  10.793 -0.6603 -0.1570  0.4496
57123SOL    HW283349   1.857  10.482  10.926  0.6663  0.4970 -0.3361
57124SOL     OW83350   4.875   2.842   4.538  0.0153  0.2587 -0.3112
57124SOL    HW183351   4.905   2.752   4.549 -1.6193 -0.1898  0.8699
57124SOL    HW283352   4.795   2.835   4.486 -1.6328  0.6655  1.9787
57125SOL     OW83353   8.167  13.224  10.991 -0.0986 -0.0028 -0.0649
57125SOL    HW183354   8.193  13.264  10.908 -2.7527  0.6542 -0.6809
57125SOL    HW283355   8.106  13.155  10.965 -2.0158  1.0786  1.3131
57126SOL     OW83356   0.650   6.209   5.769  0.1210  0.0528  0.2194
57126SOL    HW183357   0.736   6.249   5.780 -0.1066  0.5554  0.1795
57126SOL    HW283358   0.589   6.282   5.768 -0.1895 -0.2042 -1.0744
57127SOL     OW83359   7.782   6.540  10.747  0.2591 -0.0711  0.0517
57127SOL    HW183360   7.737   6.563  10.666  1.4478  1.0572 -0.3120
57127SOL    HW283361   7.739   6.594  10.814 -1.3035 -1.6248  0.3822
57128SOL     OW83362  10.869   1.597  10.492  0.3552  0.0438  0.0591
57128SOL    HW183363  10.823   1.513  10.497  0.0645  0.1339 -1.0270
57128SOL    HW283364  10.808   1.659  10.533  0.7972 -0.3466  1.3601
57129SOL     OW83365   4.007  11.726   9.952 -0.4684 -0.0506 -0.4153
57129SOL    HW183366   3.950  11.653   9.977  0.8581 -1.2830 -0.8285
57129SOL    HW283367   4.088  11.684   9.923  0.6034  1.6230 -0.0038
57130SOL     OW83368   1.241   5.404   2.108  0.0365 -0.0463 -0.0320
57130SOL    HW183369   1.228   5.313   2.084 -1.7709 -0.1695  1.2789
57130SOL    HW283370   1.285   5.443   2.032  0.9888 -2.0137 -0.5379
57131SOL     OW83371   9.320   8.302  10.575  0.0161 -0.5761 -0.7830
57131SOL    HW183372   9.319   8.256  10.492 -1.0476 -0.0823 -1.0557
57131SOL    HW283373   9.238   8.278  10.618 -1.4002  2.2607 -1.6491
57132SOL     OW83374  11.024  13.207   3.002 -0.3907  0.2623  0.2745
57132SOL    HW183375  11.108  13.175   3.035 -0.0608  1.4596  0.6651
57132SOL    HW283376  11.040  13.300   2.984 -1.0015  0.0058 -1.8417
57133SOL     OW83377  10.478  12.948  11.882  0.3593 -0.1897 -0.3094
57133SOL    HW183378  10.426  12.958  11.962  0.2458 -2.3796 -0.0504
57133SOL    HW283379  10.416  12.966  11.811  0.2739  1.0389  0.0492
57134SOL     OW83380   2.803   8.686   1.708 -0.1979 -0.0901  0.2198
57134SOL    HW183381   2.760   8.606   1.739 -0.0671  0.1649  1.0799
57134SOL    HW283382   2.767   8.700   1.621 -0.9051 -0.5805  0.4232
57135SOL     OW83383   3.807   4.396  12.966 -0.7634 -0.1573 -0.1538
57135SOL    HW183384   3.794   4.435  12.879  3.3789  0.2646 -0.7949
57135SOL    HW283385   3.837   4.468  13.021  0.8593 -1.1642  0.3636
57136SOL     OW83386   0.589  11.753   3.812  1.1062 -0.0393 -0.8440
57136SOL    HW183387   0.611  11.763   3.720  1.9347  1.0405 -0.5493
57136SOL    HW283388   0.618  11.664   3.834  0.9792 -0.2736 -1.5794
57137SOL     OW83389   7.697   9.661  13.078 -0.2229  0.3890  0.3590
57137SOL    HW183390   7.793   9.663  13.067 -0.0411 -2.7929  0.4239
57137SOL    HW283391   7.663   9.662  12.988 -0.1172  0.7046  0.3188
57138SOL     OW83392  10.215   9.168  12.833 -0.3271 -0.0153  0.8055
57138SOL    HW183393  10.160   9.230  12.786  0.2696 -1.0518 -1.3790
57138SOL    HW283394  10.153   9.116  12.884 -0.9439  1.4748  1.6720
57139SOL     OW83395   4.047   2.716   6.424  0.2808  0.5622  0.0810
57139SOL    HW183396   4.064   2.811   6.424  2.3217  0.2578 -0.7740
57139SOL    HW283397   4.008   2.699   6.509 -0.4125  2.2077  0.1424
57140SOL     OW83398  13.668  12.964   0.999 -0.1497  0.0297  0.9145
57140SOL    HW183399  13.600  13.008   0.948  0.7166  1.1240  0.6391
57140SOL    HW283400  13.718  13.036   1.038  2.7281 -0.5317 -1.3499
57141SOL     OW83401  12.678   9.527   3.576  0.1286 -0.3094  0.4571
57141SOL    HW183402  12.701   9.540   3.484 -1.6828  2.4690  0.2912
57141SOL    HW283403  12.739   9.583   3.624 -0.6573  0.3633  0.6942
57142SOL     OW83404   4.400  12.152  13.663  0.5435  0.2512 -0.8936
57142SOL    HW183405   4.414  12.062  13.635  0.4370  0.7225 -2.5561
57142SOL    HW283406   4.485  12.181  13.697  0.6583 -0.3538 -0.6564
57143SOL     OW83407   3.881   1.663  13.708 -0.2173 -0.1546 -0.3546
57143SOL    HW183408   3.874   1.632  13.798  0.0339  1.0616  0.1055
57143SOL    HW283409   3.954   1.613  13.671  0.5129  0.2229  0.5249
57144SOL     OW83410   3.278   8.370  12.219 -0.3856  0.4367  0.0238
57144SOL    HW183411   3.372   8.378  12.200 -0.0665  1.1336  1.7442
57144SOL    HW283412   3.246   8.460  12.221 -0.8655  0.2610  0.4542
57145SOL     OW83413  10.777   0.124  12.743  0.0590  0.1691  0.1492
57145SOL    HW183414  10.802   0.217  12.739 -3.4171  1.3356  1.5886
57145SOL    HW283415  10.724   0.111  12.665 -1.5776  0.1977  1.2122
57146SOL     OW83416   7.665   2.683   5.637 -0.5703 -0.2913  0.1902
57146SOL    HW183417   7.605   2.758   5.630  0.6428  0.7673  0.6508
57146SOL    HW283418   7.649   2.646   5.723 -1.9559 -1.2955 -0.4571
57147SOL     OW83419   0.062  10.232  10.569  0.2629  0.6372 -0.5072
57147SOL    HW183420   0.083  10.325  10.565  1.4838  0.4107  0.1397
57147SOL    HW283421   0.100  10.196  10.489 -1.1400  0.8415 -1.2980
57148SOL     OW83422   5.651   5.610   6.311  0.3845  0.3012 -0.2463
57148SOL    HW183423   5.640   5.555   6.388 -1.8084  0.0756 -0.6543
57148SOL    HW283424   5.726   5.572   6.265  1.5225  0.2305  1.5529
57149SOL     OW83425   2.979   3.372   9.820 -0.4700 -0.1804 -0.1753
57149SOL    HW183426   3.054   3.314   9.808  0.4488  1.0536 -0.5667
57149SOL    HW283427   2.903   3.317   9.800  0.0152 -2.3210  3.0027
57150SOL     OW83428   4.662   3.657  10.904  0.1964 -0.3050  0.2854
57150SOL    HW183429   4.657   3.726  10.837  0.3765  0.8211  1.3891
57150SOL    HW283430   4.737   3.604  10.877  0.9674  0.7972  0.1853
57151SOL     OW83431  13.008   7.994   6.761  0.1384 -0.3787 -0.1782
57151SOL    HW183432  13.016   8.051   6.837  0.7973  0.0184 -0.5436
57151SOL    HW283433  13.049   8.042   6.689 -0.7746 -0.6014 -0.8737
57152SOL     OW83434   2.203   7.137   4.787  0.1503  0.8412 -0.1269
57152SOL    HW183435   2.270   7.072   4.766  0.0525 -0.0115  1.9759
57152SOL    HW283436   2.241   7.188   4.858  0.2803  3.2535 -1.8325
57153SOL     OW83437   0.877  13.082   1.644  0.2762 -0.1159  0.1197
57153SOL    HW183438   0.852  13.172   1.621 -1.4524  0.0005  2.1771
57153SOL    HW283439   0.972  13.086   1.655  0.1182  1.7538  1.2635
57154SOL     OW83440   5.035   3.089  11.339  0.3384  0.1128  0.5081
57154SOL    HW183441   5.128   3.076  11.357  0.5597  1.9892  0.9026
57154SOL    HW283442   5.019   3.181  11.358 -1.0055  0.5123 -2.0642
57155SOL     OW83443   6.055   5.721   1.849 -0.3653  0.0549 -0.0563
57155SOL    HW183444   6.014   5.770   1.778 -0.2304 -1.2917 -1.1166
57155SOL    HW283445   6.032   5.769   1.929 -1.1870  1.1603 -0.9336
57156SOL     OW83446   2.928   5.267   7.858 -0.3798 -0.1625 -0.4433
57156SOL    HW183447   2.970   5.350   7.837  0.3162 -0.2496  0.5107
57156SOL    HW283448   2.837   5.277   7.828 -0.3174  0.9597 -0.2860
57157SOL     OW83449   0.476   6.247  10.870  0.1963 -0.4397 -0.8890
57157SOL    HW183450   0.479   6.234  10.775  1.9775  1.4627 -1.1548
57157SOL    HW283451   0.567   6.238  10.898 -0.0125  0.9135  0.3357
57158SOL     OW83452   2.537   3.587   3.427 -0.3734 -0.5435 -0.1470
57158SOL    HW183453   2.458   3.635   3.400  1.5479  2.4986 -0.8069
57158SOL    HW283454   2.589   3.581   3.347  1.4955  0.5600  0.9165
57159SOL     OW83455   4.225   0.012   0.707  0.1316 -0.1236 -0.2109
57159SOL    HW183456   4.234   0.088   0.650 -0.2748 -0.7901 -1.1956
57159SOL    HW283457   4.239  -0.063   0.650  2.0975 -0.7921  1.0438
57160SOL     OW83458  13.256   2.328  11.673  0.5772  0.0630  0.2195
57160SOL    HW183459  13.258   2.262  11.603 -1.1067 -0.8868  0.9897
57160SOL    HW283460  13.278   2.280  11.752 -0.7930  0.3693  0.8125
57161SOL     OW83461  12.344   7.130   3.679 -0.2032  0.7597  0.4561
57161SOL    HW183462  12.300   7.046   3.664 -0.8006  1.1541 -0.0140
57161SOL    HW283463  12.274   7.189   3.707  0.2271  1.0906  0.8424
57162SOL     OW83464  13.165  13.370   4.571 -0.3708  0.1760  0.0916
57162SOL    HW183465  13.104  13.299   4.592 -0.8152  0.4529 -0.2417
57162SOL    HW283466  13.120  13.450   4.597 -0.0040  0.3632  0.1652
57163SOL     OW83467  12.712   6.554   0.306 -0.2923  0.1638  0.1900
57163SOL    HW183468  12.692   6.519   0.393  0.6010 -1.2209 -0.1252
57163SOL    HW283469  12.805   6.575   0.309  0.1660 -1.4771 -0.8844
57164SOL     OW83470   5.923   3.300   2.364  0.8002 -0.5853  0.2577
57164SOL    HW183471   5.997   3.272   2.419  1.6089 -0.5990 -0.8091
57164SOL    HW283472   5.963   3.320   2.280 -0.1723  1.1231  0.1742
57165SOL     OW83473   9.537   8.006   0.322 -0.0299  0.5480  0.5741
57165SOL    HW183474   9.500   8.070   0.382  0.0937  0.8449  0.3414
57165SOL    HW283475   9.601   8.056   0.270 -0.4568  0.4025 -0.1077
57166SOL     OW83476   7.576   4.281   9.734 -0.2891 -0.4932 -0.9346
57166SOL    HW183477   7.490   4.300   9.772 -0.4651 -1.4686 -0.8203
57166SOL    HW283478   7.578   4.332   9.653 -0.3207  0.8010 -0.1590
57167SOL     OW83479  11.312   3.251   6.887  0.1733  0.7013  0.0098
57167SOL    HW183480  11.386   3.298   6.927  0.6227  0.8100 -0.9277
57167SOL    HW283481  11.239   3.312   6.896  0.4699  1.0842 -0.1029
57168SOL     OW83482  13.067   1.562   1.044  0.0187 -0.5612  0.2317
57168SOL    HW183483  13.091   1.553   0.952 -0.7817 -2.0532  0.1256
57168SOL    HW283484  13.143   1.530   1.092  0.3704  0.0560  0.0992
57169SOL     OW83485   4.194   5.553   1.600 -0.1414 -0.8668  0.7750
57169SOL    HW183486   4.216   5.462   1.579 -0.8767 -0.6234 -1.3473
57169SOL    HW283487   4.109   5.567   1.557  0.3157  1.0202  0.3997
57170SOL     OW83488  13.347   6.951  12.253 -0.8392  0.1671 -0.4428
57170SOL    HW183489  13.405   6.980  12.182 -1.6397  1.3200 -0.6574
57170SOL    HW283490  13.284   6.893  12.210 -0.8961  0.3031 -0.5437
57171SOL     OW83491   7.790   9.477   2.813  0.0417  0.1776  0.0433
57171SOL    HW183492   7.831   9.560   2.837  0.9989 -0.0074 -0.8920
57171SOL    HW283493   7.705   9.502   2.777  0.0048  0.6910  0.4718
57172SOL     OW83494   8.316   1.683   5.809  0.7068  0.3079  0.2954
57172SOL    HW183495   8.309   1.626   5.886 -0.8361 -0.2766 -0.2521
57172SOL    HW283496   8.247   1.748   5.821 -0.9121 -0.9778 -1.5268
57173SOL     OW83497  13.712  10.980   0.740 -0.5292 -0.0679  0.4378
57173SOL    HW183498  13.747  10.998   0.652  1.5162  2.3310  1.6369
57173SOL    HW283499  13.748  10.894   0.762  0.6707  0.2309 -0.2646
57174SOL     OW83500   5.202  10.992   1.760 -0.4820 -0.3198  0.5433
57174SOL    HW183501   5.115  10.994   1.719 -1.1979 -1.6086  1.9069
57174SOL    HW283502   5.218  11.083   1.784 -1.3947 -0.0371  0.1555
57175SOL     OW83503   6.117  11.884   8.029  0.0799 -0.4663 -0.1164
57175SOL    HW183504   6.034  11.919   7.997 -0.3318 -0.9152  0.4545
57175SOL    HW283505   6.131  11.805   7.978  0.4942 -0.0395 -0.6774
57176SOL     OW83506  12.845   2.259   2.886  0.5240  0.1063  0.4573
57176SOL    HW183507  12.792   2.334   2.858  1.5380  0.5776 -0.2532
57176SOL    HW283508  12.784   2.205   2.937 -1.1572 -0.3243 -1.8703
57177SOL     OW83509   9.367   6.699   9.685  0.4736  0.4789 -0.4487
57177SOL    HW183510   9.448   6.747   9.670  0.3030  0.8344 -0.2765
57177SOL    HW283511   9.394   6.610   9.705  0.8375  0.6644 -0.1076
57178SOL     OW83512   6.186  13.476   4.794 -0.0023  0.6919  0.2132
57178SOL    HW183513   6.276  13.466   4.824  0.0806  1.0588  0.0950
57178SOL    HW283514   6.151  13.387   4.791  0.3194  0.5602  0.3735
57179SOL     OW83515   2.874   7.428   8.653 -0.0121 -0.3594 -0.4564
57179SOL    HW183516   2.786   7.429   8.689  0.4250  0.6238  0.6769
57179SOL    HW283517   2.864   7.451   8.561 -0.7581  2.0624  0.1792
57180SOL     OW83518  13.101   0.696   2.598 -0.2744  0.1134 -0.1045
57180SOL    HW183519  13.138   0.624   2.649 -0.5496  0.7654  1.0590
57180SOL    HW283520  13.038   0.738   2.657  0.0897  1.4835 -0.6484
57181SOL     OW83521   7.005   9.725  13.377 -0.2528  0.3306 -0.1591
57181SOL    HW183522   7.007   9.782  13.453 -0.7059  0.0469  0.0683
57181SOL    HW283523   7.097   9.697  13.365 -0.3721 -0.6749  1.0882
57182SOL     OW83524   3.814   6.973  10.708  0.2081  0.1943 -0.2527
57182SOL    HW183525   3.876   7.000  10.640  1.0599 -0.8064  0.1029
57182SOL    HW283526   3.807   6.878  10.698 -1.7333  0.3249 -0.6423
57183SOL     OW83527   6.423  14.020   0.481 -0.3708  0.0760 -0.0217
57183SOL    HW183528   6.355  14.060   0.535  0.2842  0.1527  0.7558
57183SOL    HW283529   6.437  13.934   0.520 -0.5367 -0.2411 -0.6351
57184SOL     OW83530  11.077   5.459   3.757  0.0328 -0.3135  0.4125
57184SOL    HW183531  11.080   5.394   3.827  0.6381  0.7068  1.3927
57184SOL    HW283532  10.993   5.503   3.769 -0.0896 -0.4818  0.1692
57185SOL     OW83533  11.332   9.055  13.232 -0.2732  0.1754 -0.4467
57185SOL    HW183534  11.405   8.998  13.209 -0.3522 -0.1201  0.0190
57185SOL    HW283535  11.263   9.032  13.170  0.4839  1.4769 -1.8612
57186SOL     OW83536  12.985   3.641  13.397  0.0999 -0.0365 -0.1385
57186SOL    HW183537  12.941   3.708  13.451  0.6783 -0.0952  0.4067
57186SOL    HW283538  12.928   3.633  13.320 -1.2130 -0.5823  0.8417
57187SOL     OW83539   9.207   5.571   9.544  0.7195  0.1019 -0.0643
57187SOL    HW183540   9.220   5.662   9.570 -0.3282  0.4875 -0.8266
57187SOL    HW283541   9.243   5.520   9.617  1.0510  1.1185  0.5073
57188SOL     OW83542   0.287  10.925   3.756  0.4019  0.2991 -0.1030
57188SOL    HW183543   0.222  10.953   3.691 -0.1532  0.2691  0.4299
57188SOL    HW283544   0.315  10.838   3.727  2.1005  1.3052 -1.7491
57189SOL     OW83545   3.111   5.161  12.240 -0.1483 -0.5775 -0.0611
57189SOL    HW183546   3.103   5.238  12.184 -1.1117  0.3147  1.2354
57189SOL    HW283547   3.042   5.172  12.305  1.1398 -1.3762  1.5111
57190SOL     OW83548   9.232   6.959   9.707  0.5164  0.3111  0.5638
57190SOL    HW183549   9.235   6.864   9.701  0.5469  0.1837  2.1398
57190SOL    HW283550   9.153   6.977   9.758 -0.4379  1.2434 -1.1393
57191SOL     OW83551   4.261   0.955   8.457  0.0338  0.1676 -0.0539
57191SOL    HW183552   4.208   1.023   8.497  0.3044 -0.5332  1.5699
57191SOL    HW283553   4.351   0.978   8.480  0.2353 -0.0179 -0.6325
57192SOL     OW83554   1.607   6.898   0.274  0.4554  1.1829  0.9817
57192SOL    HW183555   1.576   6.900   0.183  1.5620  2.9327  0.5864
57192SOL    HW283556   1.529   6.882   0.326 -0.3693  1.1393 -0.2261
57193SOL     OW83557  10.079   2.410   2.142 -0.3384 -0.5935  0.2584
57193SOL    HW183558  10.047   2.364   2.065  1.1970 -0.2820 -0.6023
57193SOL    HW283559  10.168   2.378   2.155  0.5556  1.5590  0.0159
57194SOL     OW83560  11.397  13.660  11.138  0.3627  0.3258  0.0302
57194SOL    HW183561  11.372  13.635  11.227  0.9954 -0.8716 -0.0919
57194SOL    HW283562  11.453  13.737  11.149  0.9080 -0.1566  0.7284
57195SOL     OW83563   2.430   1.759   7.196  0.6667 -0.6774  0.3860
57195SOL    HW183564   2.510   1.812   7.202 -0.6777  1.6337 -0.7912
57195SOL    HW283565   2.394   1.760   7.284  2.5683 -2.9554  1.2941
57196SOL     OW83566  10.354   4.059  12.526 -0.5646  0.0129 -0.3505
57196SOL    HW183567  10.277   4.035  12.577 -1.9763  0.2076 -2.2912
57196SOL    HW283568  10.381   4.143  12.562 -0.9470 -0.2831  0.6649
57197SOL     OW83569   8.341   0.956   8.755 -0.1323  0.0614  0.1551
57197SOL    HW183570   8.386   0.995   8.830  1.8242 -0.4029 -0.6897
57197SOL    HW283571   8.248   0.959   8.777  0.3907 -0.1757  2.6420
57198SOL     OW83572  12.391  12.047   9.596 -0.8614 -0.0951 -0.4051
57198SOL    HW183573  12.424  12.040   9.506  0.9095 -1.6292  0.3051
57198SOL    HW283574  12.350  12.133   9.600 -0.6725  0.1500 -2.5790
57199SOL     OW83575   5.270   0.671   6.988 -0.2931  0.3714 -0.0753
57199SOL    HW183576   5.331   0.744   6.998 -0.4875  0.6674 -0.9545
57199SOL    HW283577   5.305   0.620   6.915 -0.4630 -0.1150  0.1773
57200SOL     OW83578  13.557   6.448   3.682  0.3171  0.2006 -0.1158
57200SOL    HW183579  13.590   6.385   3.618  0.8055  0.8131 -0.4716
57200SOL    HW283580  13.542   6.528   3.632  0.2099  0.5311  0.4345
57201SOL     OW83581   8.060   7.629  11.031  0.4854  0.0109 -0.5471
57201SOL    HW183582   8.138   7.632  10.975  0.4026  0.1858 -0.6562
57201SOL    HW283583   8.050   7.536  11.053  0.9555  0.0426 -0.2005
57202SOL     OW83584  13.136   8.029   4.139  0.1181  0.0350 -0.5838
57202SOL    HW183585  13.132   8.111   4.090 -0.6248  1.1772  1.2626
57202SOL    HW283586  13.102   8.052   4.226  0.8199 -2.0154  0.2875
57203SOL     OW83587   2.612   1.329  10.210 -0.2647 -0.5725  0.5254
57203SOL    HW183588   2.534   1.373  10.244  0.5874 -0.3069  2.2969
57203SOL    HW283589   2.654   1.292  10.288  1.8318  0.0575 -0.2381
57204SOL     OW83590   6.959   4.594  13.354  0.1539  0.3991 -0.7293
57204SOL    HW183591   6.897   4.541  13.303  0.2418 -1.9681  1.4235
57204SOL    HW283592   6.907   4.633  13.424  0.5195  1.2690 -0.9242
57205SOL     OW83593   6.251   8.324   8.523  0.0167  0.3570 -0.2498
57205SOL    HW183594   6.333   8.371   8.508  1.0101 -0.6927  1.5887
57205SOL    HW283595   6.239   8.326   8.618 -1.7955 -0.0358 -0.4324
57206SOL     OW83596   6.853   7.792  10.533 -0.1388 -0.2886 -0.2954
57206SOL    HW183597   6.762   7.820  10.537 -0.0880 -0.1502 -0.0703
57206SOL    HW283598   6.851   7.701  10.562 -0.3684 -0.6752 -1.4906
57207SOL     OW83599   9.943  13.882  13.431 -0.0378  0.0829  0.9082
57207SOL    HW183600   9.997  13.828  13.374  0.6007  1.2913  0.3584
57207SOL    HW283601   9.888  13.818  13.478 -0.6136 -0.9434 -1.0381
57208SOL     OW83602  13.705   6.697   7.719 -0.6384  0.4556  0.3677
57208SOL    HW183603  13.781   6.675   7.774 -1.5214 -2.2455  0.6250
57208SOL    HW283604  13.667   6.774   7.761  1.8014  1.7750  0.3327
57209SOL     OW83605  12.178   7.853   2.966 -0.2323 -0.3105  0.0442
57209SOL    HW183606  12.200   7.760   2.971  0.4049 -0.3153 -1.9311
57209SOL    HW283607  12.262   7.896   2.946 -0.5729  0.6573  0.6418
57210SOL     OW83608   6.756   3.456  10.743  0.2529  0.2341  0.0017
57210SOL    HW183609   6.812   3.514  10.691  1.3744 -1.8776 -1.2801
57210SOL    HW283610   6.817   3.409  10.801 -0.7549  1.0386  1.8237
57211SOL     OW83611   4.589  11.700   4.859 -0.3710 -0.5448  0.2313
57211SOL    HW183612   4.566  11.745   4.778 -0.5575 -1.3548 -0.1721
57211SOL    HW283613   4.624  11.769   4.915 -0.5445  0.0824 -0.4157
57212SOL     OW83614   3.315   1.831  10.316 -0.2092 -0.8620 -0.2241
57212SOL    HW183615   3.338   1.779  10.392 -0.0012  0.1978  0.4587
57212SOL    HW283616   3.388   1.817  10.254  0.4792 -0.3990  0.4614
57213SOL     OW83617   1.932  11.604   9.631 -0.0552  0.1141 -0.0528
57213SOL    HW183618   1.989  11.673   9.596  1.1438 -1.1306 -0.6898
57213SOL    HW283619   1.939  11.613   9.726  0.9257  0.2245 -0.1243
57214SOL     OW83620   5.562   4.203   5.333  0.1945 -0.5709 -0.5761
57214SOL    HW183621   5.584   4.209   5.240 -1.3266 -0.3464 -0.9415
57214SOL    HW283622   5.537   4.112   5.347 -0.9553 -0.2968 -0.7336
57215SOL     OW83623   4.794   3.202   1.170 -0.0983 -0.3490  0.4561
57215SOL    HW183624   4.861   3.255   1.127  1.0904 -2.7947 -0.9093
57215SOL    HW283625   4.818   3.202   1.262  0.1244  1.0555  0.4175
57216SOL     OW83626  10.004   0.300  10.727  0.3985  0.0929 -0.3135
57216SOL    HW183627  10.001   0.340  10.640 -1.6391 -0.2174 -0.4463
57216SOL    HW283628  10.036   0.211  10.711  0.3063  0.1281 -0.7200
57217SOL     OW83629   4.986   1.063   2.293  0.5900  0.2989  0.9092
57217SOL    HW183630   5.056   1.082   2.231 -0.4710  1.5710  0.0354
57217SOL    HW283631   4.941   1.146   2.305 -1.7645 -0.7824  0.1799
57218SOL     OW83632   9.953  10.046   6.871 -0.5449  0.6506  0.3065
57218SOL    HW183633   9.913   9.975   6.820 -0.5741  0.3777  0.7049
57218SOL    HW283634   9.978  10.005   6.954 -0.6248  1.1213  0.5676
57219SOL     OW83635   5.945   0.058  12.609  0.4156 -0.1395  0.2047
57219SOL    HW183636   5.855   0.064  12.577 -0.2172 -0.9577  1.7127
57219SOL    HW283637   5.999   0.074  12.532 -1.0135 -0.8394 -1.0021
57220SOL     OW83638   6.183  13.365   3.770 -0.1969 -0.2884  0.3757
57220SOL    HW183639   6.099  13.331   3.802  0.6602 -2.6432  0.3124
57220SOL    HW283640   6.159  13.436   3.710 -1.9986  1.0419  2.5193
57221SOL     OW83641   8.659   5.895   9.606  0.6514 -0.2819 -0.0342
57221SOL    HW183642   8.606   5.941   9.541  1.1786 -0.0579 -0.3160
57221SOL    HW283643   8.667   5.805   9.571 -0.6225 -0.6801  0.6641
57222SOL     OW83644  10.703  13.334   9.039  0.4384 -0.1094 -0.0746
57222SOL    HW183645  10.791  13.363   9.016  1.1418 -0.5926  1.7848
57222SOL    HW283646  10.705  13.239   9.027  1.2332 -0.5627  2.8878
57223SOL     OW83647   5.894   1.945   3.067  0.6259 -0.6403 -0.9040
57223SOL    HW183648   5.901   2.028   3.115 -0.6242 -0.6489 -0.6856
57223SOL    HW283649   5.904   1.878   3.134 -0.8626 -0.6519 -0.6680
57224SOL     OW83650   7.687  12.559  11.049 -0.3014  0.3997 -0.4956
57224SOL    HW183651   7.729  12.487  11.095 -0.5748  1.0445  0.8337
57224SOL    HW283652   7.647  12.519  10.972  1.0547 -0.5475 -0.7330
57225SOL     OW83653   7.803   6.196  12.161 -0.1578  0.0949  0.4617
57225SOL    HW183654   7.849   6.202  12.077  0.3297  1.4206  0.8075
57225SOL    HW283655   7.822   6.278  12.205 -2.3486  0.4274  0.9046
57226SOL     OW83656   5.379   1.371   4.369 -0.3619  0.5568  0.2780
57226SOL    HW183657   5.352   1.427   4.441 -2.9706  1.5693 -1.3617
57226SOL    HW283658   5.359   1.422   4.290 -0.4265 -1.6777 -1.2341
57227SOL     OW83659   2.486  11.805  13.786 -0.4776  0.0058  0.4432
57227SOL    HW183660   2.474  11.796  13.691  1.0651  0.6767  0.1458
57227SOL    HW283661   2.570  11.762  13.803 -0.3666  0.5685  1.3803
57228SOL     OW83662   4.980   3.998   3.147 -0.0465 -0.2030 -0.1080
57228SOL    HW183663   4.888   3.979   3.163  0.4999 -2.9558  0.2288
57228SOL    HW283664   4.985   4.016   3.054 -0.6791 -2.0362 -0.5366
57229SOL     OW83665   4.639   3.741  10.029 -0.3277 -0.3858 -0.5014
57229SOL    HW183666   4.563   3.693  10.062  0.2099 -0.1751  1.1221
57229SOL    HW283667   4.714   3.696  10.067  0.2348  1.0993  0.2394
57230SOL     OW83668   5.413  13.140  11.866 -0.6879 -0.4693 -0.3013
57230SOL    HW183669   5.448  13.175  11.785 -0.5894  0.3679  0.0910
57230SOL    HW283670   5.490  13.123  11.920 -0.7990 -0.1149 -0.0277
57231SOL     OW83671   1.930   3.542   0.898 -0.5543 -0.0717  0.2291
57231SOL    HW183672   1.973   3.569   0.979  1.0791 -1.0288 -0.2732
57231SOL    HW283673   1.973   3.592   0.830 -2.6395  1.5221 -0.0144
57232SOL     OW83674   5.959  10.711  11.806  0.0846  0.0288 -0.1553
57232SOL    HW183675   5.871  10.678  11.788 -0.2258  1.3733 -1.2620
57232SOL    HW283676   5.968  10.703  11.901 -0.0729 -2.8463 -0.2727
57233SOL     OW83677   3.414  10.536  10.795 -0.1214  0.1658 -0.7497
57233SOL    HW183678   3.377  10.480  10.726 -1.2150  0.2248 -0.2273
57233SOL    HW283679   3.392  10.491  10.876  0.3604  0.5611 -0.3977
57234SOL     OW83680   7.627   2.855   5.000  0.2096  0.2460 -0.0932
57234SOL    HW183681   7.636   2.948   4.981  0.2221  0.3917  0.5970
57234SOL    HW283682   7.693   2.838   5.067  0.0598 -0.2096 -0.0592
57235SOL     OW83683   6.204  10.728   8.196 -0.3722  0.7341 -0.3113
57235SOL    HW183684   6.282  10.685   8.163 -1.0668 -0.8214 -0.0321
57235SOL    HW283685   6.230  10.819   8.211  1.1813  0.3933 -0.8208
57236SOL     OW83686   1.951   3.207  13.249 -0.1102  0.0799 -0.4676
57236SOL    HW183687   1.943   3.123  13.295  1.1809  0.6143  0.7941
57236SOL    HW283688   1.999   3.186  13.169  0.0013 -0.4200 -0.2716
57237SOL     OW83689   4.368   3.479   5.523 -0.0827 -0.0703 -0.8786
57237SOL    HW183690   4.401   3.569   5.523  2.1907 -0.8276 -0.3619
57237SOL    HW283691   4.356   3.459   5.430 -1.6858  1.0806 -0.9592
57238SOL     OW83692   2.945   6.549   2.331  0.0667 -0.6399  0.0058
57238SOL    HW183693   2.852   6.528   2.322 -0.5510  1.9494 -0.4867
57238SOL    HW283694   2.947   6.644   2.345  2.6543 -0.6231  0.0360
57239SOL     OW83695  12.476  10.277   8.143 -0.3628 -0.3204 -0.2146
57239SOL    HW183696  12.385  10.287   8.168 -0.4971  1.1469 -1.1815
57239SOL    HW283697  12.521  10.350   8.186  0.2867 -0.7826 -0.0885
57240SOL     OW83698   9.355  12.046  13.151 -0.0501 -0.0619  0.4578
57240SOL    HW183699   9.387  12.132  13.123 -0.0084  0.4866  2.0518
57240SOL    HW283700   9.434  11.998  13.175 -0.2113  0.7848  3.0159
57241SOL     OW83701   7.928   5.339  13.401  0.3993  0.0809  0.0997
57241SOL    HW183702   7.858   5.399  13.424  0.4491  0.2032 -0.0632
57241SOL    HW283703   7.966   5.377  13.322  0.6670  0.0291  0.2048
57242SOL     OW83704   1.069   1.408  11.349  0.0924  0.6172 -0.1129
57242SOL    HW183705   1.142   1.357  11.383  1.1383  1.0826 -1.5488
57242SOL    HW283706   1.012   1.422  11.425  2.2757  1.6091  1.4557
57243SOL     OW83707  13.143  13.107   9.084  0.1765 -0.4752 -0.5468
57243SOL    HW183708  13.223  13.116   9.136 -1.4288  2.8778  1.6626
57243SOL    HW283709  13.084  13.175   9.117 -3.3216 -2.1636 -2.6598
57244SOL     OW83710  13.230  11.123   8.364  0.3660 -0.2036 -0.3420
57244SOL    HW183711  13.224  11.093   8.455 -0.9095 -0.5819 -0.5274
57244SOL    HW283712  13.185  11.208   8.364  1.3808  0.3479 -0.4030
57245SOL     OW83713  11.032  10.819   5.760  0.4016  0.4016 -0.0757
57245SOL    HW183714  10.995  10.903   5.784  2.4585  1.3409  0.0037
57245SOL    HW283715  10.998  10.802   5.672 -0.4784  1.0208  0.1311
57246SOL     OW83716   6.742   1.442   1.388 -0.2433 -0.0548 -0.4522
57246SOL    HW183717   6.801   1.370   1.368 -1.2298 -0.6057 -1.5160
57246SOL    HW283718   6.699   1.462   1.304 -0.8348  0.9831  0.0721
57247SOL     OW83719   0.871   2.031   2.476  0.0457 -0.4674  0.7635
57247SOL    HW183720   0.786   2.040   2.520 -0.2976 -0.7813  0.1651
57247SOL    HW283721   0.888   1.937   2.477  0.6233 -0.3643  1.3161
57248SOL     OW83722   2.749   1.635   8.823  0.1713 -0.2136 -0.9508
57248SOL    HW183723   2.654   1.645   8.833  0.4849  2.0268  0.7164
57248SOL    HW283724   2.782   1.725   8.821  2.3533 -0.9338 -0.3974
57249SOL     OW83725   0.117   3.662   4.377 -0.0132  0.4280  0.1079
57249SOL    HW183726   0.052   3.650   4.446  0.0197  0.5243  0.1542
57249SOL    HW283727   0.066   3.658   4.296 -0.1321  0.9059  0.1595
57250SOL     OW83728  11.096  12.812   7.695 -0.0313  0.1344 -0.1922
57250SOL    HW183729  11.032  12.783   7.630  1.1211 -0.7541 -0.9745
57250SOL    HW283730  11.181  12.785   7.659  0.6530 -0.3245  1.6393
57251SOL     OW83731   9.402   7.239   4.007  0.3912 -0.1804 -0.4051
57251SOL    HW183732   9.441   7.232   3.920  0.9579  0.7319 -0.2428
57251SOL    HW283733   9.322   7.290   3.993  0.1144 -0.6375 -0.4941
57252SOL     OW83734   6.457   1.660   5.750 -0.0358  0.3871 -0.1916
57252SOL    HW183735   6.429   1.643   5.660 -1.1002  0.9080  0.0214
57252SOL    HW283736   6.442   1.754   5.762 -2.2956 -0.0823  1.2975
57253SOL     OW83737   0.379   5.238   9.146  0.0873 -0.0290 -0.2308
57253SOL    HW183738   0.297   5.197   9.173  1.1407 -1.8938  0.3152
57253SOL    HW283739   0.360   5.276   9.060 -1.1068 -1.1867 -0.5020
57254SOL     OW83740   0.613  12.219   4.955  0.8575 -0.1919  0.3217
57254SOL    HW183741   0.701  12.225   4.918  1.0362  1.1520  0.9106
57254SOL    HW283742   0.583  12.132   4.931  1.5645  0.0530 -1.6304
57255SOL     OW83743  10.388   9.536   3.977 -0.1752 -0.3539 -0.4158
57255SOL    HW183744  10.359   9.614   3.931 -1.6140 -0.7446 -0.2293
57255SOL    HW283745  10.403   9.564   4.067  1.5434  0.1705 -0.8369
57256SOL     OW83746   4.337  12.736  13.281 -0.7381 -0.0624 -0.3403
57256SOL    HW183747   4.418  12.712  13.237 -0.6741  0.1229 -0.3262
57256SOL    HW283748   4.281  12.771  13.212 -0.6868  0.1043 -0.2996
57257SOL     OW83749   1.218   1.777   8.484 -0.2513  0.1286  0.0164
57257SOL    HW183750   1.240   1.803   8.573 -2.2053  1.0409  0.2860
57257SOL    HW283751   1.214   1.681   8.487 -0.7449  0.1681  1.0567
57258SOL     OW83752   4.293  13.966   5.699  0.1593 -0.2774 -0.5807
57258SOL    HW183753   4.262  13.973   5.789 -0.1651  2.2344 -0.8059
57258SOL    HW283754   4.269  14.050   5.659 -0.9793 -1.8161 -3.4364
57259SOL     OW83755   3.873   1.102  12.327  0.2811 -0.4674 -0.6680
57259SOL    HW183756   3.798   1.161  12.327  2.2699  2.3019  0.3271
57259SOL    HW283757   3.944   1.155  12.291  2.0619 -2.5120 -0.3246
57260SOL     OW83758   6.571   4.631   3.341 -0.1005 -0.2763 -0.2436
57260SOL    HW183759   6.554   4.554   3.395 -2.0774  0.0728 -0.2856
57260SOL    HW283760   6.618   4.597   3.265 -1.5203 -1.6059 -0.5909
57261SOL     OW83761  13.302   9.099   7.357  0.7579  0.2835 -0.2445
57261SOL    HW183762  13.378   9.156   7.370  1.3697 -0.6651  0.3961
57261SOL    HW283763  13.295   9.049   7.438 -1.3377  1.2344  0.2265
57262SOL     OW83764  11.323   6.692   5.891 -0.1145  0.2509  0.0928
57262SOL    HW183765  11.329   6.623   5.825 -1.3879 -0.8951  1.0984
57262SOL    HW283766  11.412   6.702   5.925  0.2137 -0.3937 -0.5652
57263SOL     OW83767  10.849  10.235   5.648 -0.2051 -0.1858 -0.4832
57263SOL    HW183768  10.941  10.253   5.666 -0.1811  0.3957 -1.1030
57263SOL    HW283769  10.820  10.178   5.719  0.7720 -0.8055 -0.5678
57264SOL     OW83770   6.208   5.436   7.679 -0.3781 -0.0856 -0.0406
57264SOL    HW183771   6.275   5.501   7.657  0.2122 -1.0755 -1.3047
57264SOL    HW283772   6.148   5.483   7.737 -1.7082  2.6444 -3.2473
57265SOL     OW83773   6.723   0.216   9.462 -0.0066 -0.4338  0.5631
57265SOL    HW183774   6.771   0.289   9.501  1.9559 -0.5745 -1.3990
57265SOL    HW283775   6.652   0.258   9.413 -0.2325 -0.0159  1.2400
57266SOL     OW83776   3.541  10.319   0.308 -0.2780  0.4305 -0.1119
57266SOL    HW183777   3.601  10.389   0.281  1.8635 -0.5242  1.8084
57266SOL    HW283778   3.490  10.299   0.229  1.7282  1.5325 -1.7870
57267SOL     OW83779  12.512  13.017  11.995 -0.0802  0.3846 -0.7829
57267SOL    HW183780  12.420  13.020  12.019 -0.1745 -0.0546 -1.0900
57267SOL    HW283781  12.537  12.925  12.003 -0.0708  0.2330 -2.1803
57268SOL     OW83782   6.549   1.287   2.097  0.0720  0.4280  0.4686
57268SOL    HW183783   6.559   1.358   2.033  1.5761 -0.2027 -0.0468
57268SOL    HW283784   6.479   1.232   2.060 -0.1791  0.9275  0.1884
57269SOL     OW83785   6.013   0.765   0.519 -0.1693  1.2640  0.3165
57269SOL    HW183786   6.069   0.807   0.583  0.5635 -0.9170  1.1971
57269SOL    HW283787   5.984   0.684   0.561 -2.6179  1.4654 -0.7584
57270SOL     OW83788   0.100   5.134   5.060  0.4985 -0.2545 -0.3276
57270SOL    HW183789   0.075   5.059   5.006 -1.4386 -0.3427  0.5918
57270SOL    HW283790   0.038   5.203   5.036  0.6974  0.2472  0.5644
57271SOL     OW83791   9.275   6.926   9.443 -0.2600  0.1957  0.6164
57271SOL    HW183792   9.229   6.939   9.526 -3.1856  0.1345 -0.8925
57271SOL    HW283793   9.300   7.014   9.414 -0.2383  0.3168  1.0021
57272SOL     OW83794   2.505  10.665   2.901 -0.1816 -0.4559  0.1584
57272SOL    HW183795   2.508  10.651   2.806  0.7424  0.2350  0.0625
57272SOL    HW283796   2.424  10.623   2.930 -1.8830  1.5947 -1.3224
57273SOL     OW83797  10.480   6.618  10.721  0.1346 -0.2292  0.0948
57273SOL    HW183798  10.447   6.605  10.810 -0.5169 -1.4138 -0.2886
57273SOL    HW283799  10.445   6.544  10.672  2.8535 -1.2556 -0.5022
57274SOL     OW83800   0.517   8.634   4.394  0.4111  0.5145  0.3801
57274SOL    HW183801   0.489   8.715   4.436  0.7344  0.4287  0.7720
57274SOL    HW283802   0.569   8.589   4.461  2.1185  0.9974 -0.5480
57275SOL     OW83803   4.846  11.153   5.038 -0.0608  0.6249  0.2366
57275SOL    HW183804   4.813  11.066   5.013  2.1074 -0.7073  1.6439
57275SOL    HW283805   4.781  11.214   5.002 -0.9317 -1.4532 -2.0806
57276SOL     OW83806   5.746  10.737   0.870 -0.4009  0.2274  0.5044
57276SOL    HW183807   5.808  10.809   0.871 -1.5198  1.2183  1.5826
57276SOL    HW283808   5.665  10.774   0.905 -0.9886 -1.5520  1.1590
57277SOL     OW83809   8.731   6.014   1.699  0.4599  0.0460 -0.2341
57277SOL    HW183810   8.649   6.062   1.706 -1.0098 -2.1970 -1.0494
57277SOL    HW283811   8.767   6.041   1.614  0.3772  0.7467 -0.0481
57278SOL     OW83812   4.707  13.101   8.765  0.2462 -0.4593  0.2066
57278SOL    HW183813   4.733  13.090   8.674  0.6792 -0.2900  0.3101
57278SOL    HW283814   4.625  13.051   8.773  0.7012 -1.2652 -0.0356
57279SOL     OW83815   1.371  10.166   8.961 -0.0934 -0.0600 -0.2264
57279SOL    HW183816   1.280  10.163   8.934 -0.4202  4.1389 -0.2260
57279SOL    HW283817   1.368  10.196   9.052  1.2825  0.2184 -0.2500
57280SOL     OW83818   1.098  10.184  11.738  0.1049  0.5331 -0.2993
57280SOL    HW183819   1.073  10.105  11.786 -0.9326  0.0010 -1.6706
57280SOL    HW283820   1.180  10.161  11.695  1.4792  1.2704  1.7421
57281SOL     OW83821   8.935  10.156   3.185 -0.5343  0.5865  0.3332
57281SOL    HW183822   9.028  10.135   3.178 -0.0819  2.5492 -0.2651
57281SOL    HW283823   8.898  10.135   3.100 -0.7044 -0.3696  0.6294
57282SOL     OW83824   4.550   6.747   9.848 -0.3731 -1.0965 -0.0064
57282SOL    HW183825   4.613   6.797   9.899  2.8606 -2.9965 -1.7681
57282SOL    HW283826   4.510   6.812   9.790 -1.7067  0.5052  2.5211
57283SOL     OW83827   7.674  13.651   7.858 -0.5084 -0.1228  0.5713
57283SOL    HW183828   7.730  13.582   7.894 -2.1554  0.0926  3.8786
57283SOL    HW283829   7.699  13.730   7.906 -0.0835  1.2242 -1.7082
57284SOL     OW83830  12.297  11.077   3.451 -0.0078 -0.2925 -0.0537
57284SOL    HW183831  12.305  11.099   3.544  1.8096 -0.1768 -0.2054
57284SOL    HW283832  12.235  11.141   3.417  0.0810  0.3093  0.8784
57285SOL     OW83833  13.208   3.718   4.735  0.0755 -0.1251  0.0288
57285SOL    HW183834  13.205   3.630   4.699  1.4041 -1.1185  2.0954
57285SOL    HW283835  13.286   3.758   4.695  0.5982 -0.6311  0.5111
57286SOL     OW83836  12.482  13.477  13.599  0.1905 -0.3865 -0.4362
57286SOL    HW183837  12.541  13.500  13.670  1.6547  0.6750 -1.9003
57286SOL    HW283838  12.523  13.401  13.557  0.5937  0.4074 -1.5149
57287SOL     OW83839   6.581  12.794  10.336 -0.3163  0.5033 -1.0212
57287SOL    HW183840   6.650  12.856  10.313  0.0774  0.7388  0.6491
57287SOL    HW283841   6.575  12.799  10.432  1.0135 -3.3149 -0.5287
57288SOL     OW83842   3.818   3.558   3.454 -0.6122 -0.1914  0.3485
57288SOL    HW183843   3.730   3.521   3.449  0.4743 -3.2647  1.4417
57288SOL    HW283844   3.831   3.576   3.547 -0.3041  0.8603  0.1079
57289SOL     OW83845   9.392  10.317  12.538 -0.0497 -0.1209 -0.0750
57289SOL    HW183846   9.364  10.272  12.618  2.1354  1.0887  1.4652
57289SOL    HW283847   9.486  10.305  12.535  0.5456  3.3892 -0.0908
57290SOL     OW83848   8.688   4.361   9.580 -0.0374 -0.4698 -0.0721
57290SOL    HW183849   8.734   4.395   9.657  0.2281 -0.3148 -0.2980
57290SOL    HW283850   8.604   4.328   9.614  0.2465 -0.7710  0.3458
57291SOL     OW83851   9.452  10.408   7.678  0.0220  0.1959  0.1065
57291SOL    HW183852   9.525  10.363   7.721 -0.4233 -0.6158  0.0357
57291SOL    HW283853   9.443  10.490   7.726 -0.0929 -0.4387  1.1896
57292SOL     OW83854  11.047   6.933   4.963  0.5102  0.2622  0.3785
57292SOL    HW183855  11.083   6.936   4.874 -0.0364 -1.6973  0.0546
57292SOL    HW283856  10.952   6.938   4.951  0.4715  1.5663  0.9938
57293SOL     OW83857  12.542   7.348   8.489 -0.1695 -0.2091  0.1789
57293SOL    HW183858  12.481   7.325   8.420 -0.5534  0.8852  0.1389
57293SOL    HW283859  12.625   7.367   8.444 -0.2851  0.0174  0.0591
57294SOL     OW83860  10.192   9.966   9.818  0.0247 -0.1970  0.0642
57294SOL    HW183861  10.212   9.891   9.873 -1.3970  0.9113  2.2769
57294SOL    HW283862  10.274   9.987   9.774  0.6017 -2.5930 -0.1190
57295SOL     OW83863   4.859   6.886  12.975  0.0423 -0.1461  0.1711
57295SOL    HW183864   4.904   6.804  12.995  0.2511  0.2325  1.3578
57295SOL    HW283865   4.908   6.952  13.025 -0.0479  0.7239 -0.8613
57296SOL     OW83866  10.252   2.589   8.788 -0.1301 -0.3607  0.2051
57296SOL    HW183867  10.263   2.516   8.728 -3.1490  0.1973 -1.2127
57296SOL    HW283868  10.285   2.665   8.740  1.0295 -0.4203  0.8529
57297SOL     OW83869  11.237   6.753   7.012 -0.2792  0.0836  0.3088
57297SOL    HW183870  11.278   6.678   6.969 -1.1606 -0.9139  1.1393
57297SOL    HW283871  11.308   6.816   7.023  1.1856 -1.7394  2.1007
57298SOL     OW83872   1.675  11.918   9.284 -0.2933  0.4487 -0.1611
57298SOL    HW183873   1.690  11.973   9.207 -1.2458  0.8162 -0.0887
57298SOL    HW283874   1.627  11.842   9.250 -2.4817  1.5481  0.3684
57299SOL     OW83875   7.780  11.335  12.305  0.0646  0.2130  0.0226
57299SOL    HW183876   7.765  11.427  12.328 -0.1854  0.2545 -0.2907
57299SOL    HW283877   7.692  11.298  12.297  0.1634 -0.5096  1.9036
57300SOL     OW83878  12.560   1.688   2.225  0.2698 -0.1015  0.1395
57300SOL    HW183879  12.614   1.647   2.292  0.4575 -1.6027 -0.8811
57300SOL    HW283880  12.571   1.632   2.148 -1.2260  0.6515 -0.6610
57301SOL     OW83881   8.257   4.385   5.252  0.3278 -0.3683 -0.7421
57301SOL    HW183882   8.274   4.433   5.333 -1.3110 -1.0472  0.0502
57301SOL    HW283883   8.327   4.414   5.192  1.2137  0.6132  0.6882
57302SOL     OW83884   5.208   0.673  12.849 -0.5024 -0.1492 -0.8622
57302SOL    HW183885   5.187   0.591  12.806 -0.8170 -0.8405  0.5549
57302SOL    HW283886   5.279   0.652  12.909 -0.0363  0.7963 -1.0539
57303SOL     OW83887   5.513   7.719   6.747 -0.4067 -0.3743  0.3675
57303SOL    HW183888   5.495   7.753   6.835  0.1596 -0.2597  0.4446
57303SOL    HW283889   5.491   7.792   6.688  0.2422 -0.0666  0.4929
57304SOL     OW83890  13.042   6.734   9.119 -0.1174  0.8223 -0.0298
57304SOL    HW183891  13.090   6.651   9.116 -0.8669  0.3139  1.0160
57304SOL    HW283892  12.991   6.735   9.038 -0.9422 -0.3073  0.4359
57305SOL     OW83893   9.457   1.987   6.200  0.0846 -0.0887 -0.1202
57305SOL    HW183894   9.412   2.060   6.244  0.1314  0.5688 -1.1218
57305SOL    HW283895   9.405   1.972   6.120 -0.5611 -1.9043  0.5976
57306SOL     OW83896  11.062   6.369   8.672  0.2236  0.7954  0.4364
57306SOL    HW183897  10.981   6.346   8.626  1.1743 -1.3023 -0.3281
57306SOL    HW283898  11.062   6.314   8.750  0.7981  0.9561  0.5552
57307SOL     OW83899  12.109   5.100   3.143  0.6440  0.2848 -0.2799
57307SOL    HW183900  12.069   5.015   3.162  1.6322 -0.1445 -0.0557
57307SOL    HW283901  12.203   5.085   3.157  0.9047  1.1981 -1.0383
57308SOL     OW83902  10.690   0.895  13.756  0.3040  0.1496  0.3285
57308SOL    HW183903  10.686   0.879  13.662  1.2229  0.4969  0.2204
57308SOL    HW283904  10.649   0.981  13.768  1.4014  0.7314  0.0598
57309SOL     OW83905   7.938  10.152   4.392 -0.2186 -0.1016 -0.0878
57309SOL    HW183906   7.943  10.242   4.423  1.2568 -0.5359  1.0276
57309SOL    HW283907   7.982  10.153   4.308 -0.1032  0.1990 -0.0247
57310SOL     OW83908   5.494   8.278  11.467 -0.0616 -0.4029 -0.0735
57310SOL    HW183909   5.555   8.220  11.422 -0.5054  0.2904 -1.6516
57310SOL    HW283910   5.429   8.300  11.401 -2.2596 -1.3781  1.6376
57311SOL     OW83911  12.009   3.526  11.677 -0.0602 -0.1717  0.1520
57311SOL    HW183912  12.060   3.483  11.745  1.0637 -0.0943 -0.6156
57311SOL    HW283913  11.996   3.458  11.610  0.5514  0.2815 -0.4421
57312SOL     OW83914   0.813  13.352   4.146 -0.3380 -0.3313 -0.7032
57312SOL    HW183915   0.805  13.369   4.240  2.0374 -0.1235 -0.4767
57312SOL    HW283916   0.854  13.431   4.111 -1.9340 -0.0743 -2.0925
57313SOL     OW83917   2.258   6.686  13.856 -0.0879 -0.0190  0.4795
57313SOL    HW183918   2.219   6.764  13.818  1.1657  0.4243  0.0744
57313SOL    HW283919   2.350   6.690  13.832  0.1054 -1.3581  0.8931
57314SOL     OW83920   2.861   2.872   2.080  0.2546 -0.4604  0.2725
57314SOL    HW183921   2.904   2.824   2.009 -0.0747 -0.9513  0.4018
57314SOL    HW283922   2.770   2.882   2.051  0.6917  1.6701 -0.5739
57315SOL     OW83923   1.709  10.674   4.221 -0.4402 -0.0243  0.1076
57315SOL    HW183924   1.644  10.666   4.152 -1.7847  0.1205  1.3248
57315SOL    HW283925   1.776  10.609   4.199 -0.7910  0.0809 -1.3509
57316SOL     OW83926   2.104  10.352   2.698 -0.5200  0.2571 -0.4654
57316SOL    HW183927   2.056  10.282   2.654 -2.5150  0.3942  1.3058
57316SOL    HW283928   2.195  10.341   2.670 -1.0025 -2.1790 -1.2943
57317SOL     OW83929  12.548  11.071   2.736  0.7225 -0.6188  0.1926
57317SOL    HW183930  12.591  10.987   2.727 -1.7391 -1.9793  0.2787
57317SOL    HW283931  12.494  11.079   2.657 -0.5796 -0.0952  1.0885
57318SOL     OW83932   2.266   7.594  12.451 -0.3037 -0.0317 -0.4745
57318SOL    HW183933   2.248   7.688  12.451 -1.4719 -0.2047  1.4767
57318SOL    HW283934   2.353   7.586  12.412  1.0759  2.1392  1.9202
57319SOL     OW83935   3.719   4.621   5.289  0.0155  0.2403  0.2593
57319SOL    HW183936   3.751   4.709   5.305  0.9353  0.1534 -0.9709
57319SOL    HW283937   3.627   4.633   5.263  0.8281  1.1671 -2.5866
57320SOL     OW83938  13.969   9.189   0.742 -0.4107 -0.6662  0.2594
57320SOL    HW183939  13.932   9.238   0.669  0.5912 -0.2680 -0.0087
57320SOL    HW283940  13.907   9.201   0.814  0.0863  1.5741  0.4059
57321SOL     OW83941   5.835  10.861  12.077 -0.8697  0.3694  0.1617
57321SOL    HW183942   5.770  10.821  12.019  0.1502 -1.4787  0.2208
57321SOL    HW283943   5.822  10.816  12.161  0.0971  0.3769  0.3215
57322SOL     OW83944   0.982   6.475   7.884 -0.0758 -0.1764 -0.0455
57322SOL    HW183945   0.969   6.403   7.823  0.2126 -0.1674 -0.1171
57322SOL    HW283946   1.025   6.435   7.960  0.4540 -0.0040 -0.2531
57323SOL     OW83947  10.693   0.197  10.017  0.8483 -1.1805 -0.7636
57323SOL    HW183948  10.737   0.201   9.932 -0.8226 -0.5007 -1.6179
57323SOL    HW283949  10.678   0.103  10.030  1.2677 -1.3068 -1.1228
57324SOL     OW83950  11.720   4.634   3.531 -0.3169  0.1744 -0.9880
57324SOL    HW183951  11.719   4.715   3.479 -1.5783  0.9208  0.1299
57324SOL    HW283952  11.668   4.655   3.609 -0.5615 -1.6791 -0.6014
57325SOL     OW83953  11.448  12.063  10.014 -0.2604 -0.5304 -0.2358
57325SOL    HW183954  11.464  11.970   9.998 -0.8622 -0.5361 -0.8743
57325SOL    HW283955  11.480  12.078  10.102  1.2420 -0.9895 -0.6787
57326SOL     OW83956  11.481  12.823   8.707  0.1297  0.5748 -0.7439
57326SOL    HW183957  11.427  12.874   8.768 -1.5134 -0.7744 -0.9913
57326SOL    HW283958  11.507  12.886   8.640 -1.5873  1.2046 -0.8781
57327SOL     OW83959   5.989   2.604   6.857  0.0728 -0.4487  0.7544
57327SOL    HW183960   5.905   2.562   6.878 -0.5854  0.9366  1.0354
57327SOL    HW283961   5.991   2.681   6.913  0.6818  0.5548 -0.6029
57328SOL     OW83962   5.094   8.035   6.056 -0.2188 -0.2997  0.3890
57328SOL    HW183963   5.056   7.982   6.127 -0.1183  0.3880  0.9677
57328SOL    HW283964   5.136   8.108   6.101  0.4686 -0.2336 -0.3444
57329SOL     OW83965   2.395   0.410   2.278  0.5412  0.0609  0.5181
57329SOL    HW183966   2.390   0.505   2.293 -0.2967  0.1329 -0.1270
57329SOL    HW283967   2.428   0.402   2.188 -0.5507 -0.2254  0.1297
57330SOL     OW83968  12.645   3.100  11.088  0.2147  0.1849 -0.3283
57330SOL    HW183969  12.605   3.186  11.074  1.5759  1.1037  1.1312
57330SOL    HW283970  12.683   3.077  11.003 -0.6840  0.7186 -0.8944
57331SOL     OW83971   9.084   7.316  12.456  0.2617 -0.2045  0.3039
57331SOL    HW183972   9.041   7.319  12.541 -1.0769  1.2439 -0.3652
57331SOL    HW283973   9.074   7.226  12.427  0.8691 -0.7570  1.7188
57332SOL     OW83974   2.253  10.136   2.248  0.4146 -0.6808  1.0279
57332SOL    HW183975   2.175  10.191   2.236  0.3339 -0.6925  1.4741
57332SOL    HW283976   2.296  10.136   2.163 -1.5105 -2.8909 -0.0754
57333SOL     OW83977   7.447   4.247   8.749 -0.2437  0.4058 -0.0625
57333SOL    HW183978   7.454   4.226   8.656 -0.6708  1.4025 -0.3301
57333SOL    HW283979   7.391   4.324   8.752 -1.6284 -0.6085  1.1556
57334SOL     OW83980   0.779   8.819   8.507  0.4813  0.3278 -0.7360
57334SOL    HW183981   0.724   8.820   8.585  1.2011 -0.0900 -0.2135
57334SOL    HW283982   0.811   8.909   8.499  4.0904 -0.4476  2.1534
57335SOL     OW83983   4.516   5.417   2.793  0.1313  0.5899 -0.5390
57335SOL    HW183984   4.499   5.503   2.755  0.3778 -0.0558 -2.2148
57335SOL    HW283985   4.485   5.355   2.727  0.9006 -0.6055  0.1753
57336SOL     OW83986   0.356   2.809   0.390  0.2238 -0.0450 -0.3746
57336SOL    HW183987   0.404   2.786   0.310  1.2491  0.4254  0.0824
57336SOL    HW283988   0.347   2.726   0.437  1.7372  0.0355  0.1211
57337SOL     OW83989  12.976   2.787  10.435 -0.1740  0.2155 -0.0307
57337SOL    HW183990  12.973   2.719  10.367 -0.2477 -0.5198  0.6851
57337SOL    HW283991  13.059   2.771  10.479  0.6656  1.7478 -0.9909
57338SOL     OW83992  12.404   0.360   5.875 -0.3304  0.1109 -0.1568
57338SOL    HW183993  12.420   0.411   5.795 -1.1828  0.9289  0.1728
57338SOL    HW283994  12.321   0.316   5.860 -0.7255  0.6237  0.4305
57339SOL     OW83995   2.899   2.416  13.286 -0.2388  0.3843 -0.0088
57339SOL    HW183996   2.973   2.356  13.274  0.5873  1.8288 -3.2767
57339SOL    HW283997   2.932   2.482  13.348  1.1602  0.8167 -1.1482
57340SOL     OW83998  12.402  12.519   9.387  0.0628 -0.2290  0.0805
57340SOL    HW183999  12.432  12.464   9.315 -1.6186  0.4568 -1.2145
57340SOL    HW284000  12.405  12.608   9.352  1.7979  0.4843  1.8054
57341SOL     OW84001   1.581   9.455  10.613  0.3086 -0.3497 -0.7796
57341SOL    HW184002   1.510   9.516  10.631  1.1677  0.5331 -0.3328
57341SOL    HW284003   1.637   9.458  10.691  0.0086 -2.2436 -0.4250
57342SOL     OW84004  10.203  11.933   6.397  0.2810  0.6332 -0.0352
57342SOL    HW184005  10.191  11.902   6.486 -1.5348 -0.1778 -0.5090
57342SOL    HW284006  10.253  12.014   6.405 -0.1000  0.7172  1.7316
57343SOL     OW84007   1.047   7.561   1.976  0.4450 -0.7634 -0.3628
57343SOL    HW184008   1.018   7.618   1.905  0.4341  0.4470  0.5820
57343SOL    HW284009   0.974   7.560   2.038  0.3066 -2.1096 -0.5244
57344SOL     OW84010   2.057   1.075  10.715 -0.3576 -0.4314  0.1053
57344SOL    HW184011   2.011   1.029  10.785  1.2737 -2.2510  0.0670
57344SOL    HW284012   2.129   1.120  10.758 -0.5705  0.1802 -0.1658
57345SOL     OW84013   1.900   8.345   6.979  0.7361  0.2038  0.2412
57345SOL    HW184014   1.847   8.385   6.911 -0.4506 -0.2837  0.8590
57345SOL    HW284015   1.953   8.417   7.013  0.1487  0.7974 -0.0843
57346SOL     OW84016  11.717  13.489  10.532  0.0293 -1.0307  0.5841
57346SOL    HW184017  11.762  13.451  10.608 -0.1913  1.4255  2.0317
57346SOL    HW284018  11.666  13.561  10.568 -0.3737  0.0146 -1.8844
57347SOL     OW84019   5.299   1.108   3.901  0.0739 -0.3971 -0.3836
57347SOL    HW184020   5.250   1.147   3.973  0.2070  2.8922 -1.9070
57347SOL    HW284021   5.234   1.092   3.833  0.3881 -0.5899 -0.6421
57348SOL     OW84022   1.942   9.174   5.211 -0.2919  0.0209  0.3096
57348SOL    HW184023   2.010   9.175   5.278 -0.6690  0.9342  0.7005
57348SOL    HW284024   1.881   9.243   5.238 -2.9177 -2.5520  1.5597
57349SOL     OW84025   2.554   4.414  11.127 -0.2385  0.6391 -0.0428
57349SOL    HW184026   2.584   4.492  11.080  2.0506 -0.6099 -0.8221
57349SOL    HW284027   2.611   4.409  11.204 -0.3413 -0.2773 -0.0174
57350SOL     OW84028   8.455   7.864  13.760  0.1255 -0.2503  0.5190
57350SOL    HW184029   8.366   7.828  13.770  0.0789 -0.0946  0.6554
57350SOL    HW284030   8.484   7.830  13.675  0.8725 -2.3497  1.5362
57351SOL     OW84031   2.516   0.862   5.026  0.2488 -0.3995  0.2051
57351SOL    HW184032   2.481   0.942   4.987  1.0429  0.1389  0.5589
57351SOL    HW284033   2.611   0.878   5.032  0.4811 -1.5476 -0.1342
57352SOL     OW84034   0.223  10.054   3.369  0.0464 -0.1435  0.3015
57352SOL    HW184035   0.163  10.018   3.434 -0.7736 -1.8584 -1.2973
57352SOL    HW284036   0.170  10.114   3.317  0.8008  1.5418  1.4140
57353SOL     OW84037   5.445  12.703   6.575  0.1970  0.0212  0.5749
57353SOL    HW184038   5.389  12.632   6.545  1.6216 -1.2182  0.7289
57353SOL    HW284039   5.409  12.728   6.660 -0.2289 -0.6059  0.5822
57354SOL     OW84040   8.445   2.603   2.407  0.0318 -0.0796 -0.0574
57354SOL    HW184041   8.451   2.657   2.487 -0.4214 -1.1619  0.7306
57354SOL    HW284042   8.430   2.666   2.337 -2.3471  0.7323  1.0708
57355SOL     OW84043   6.434   8.148  13.069 -0.0489  0.2202  0.5934
57355SOL    HW184044   6.419   8.072  13.125 -0.3855  0.6322  1.0669
57355SOL    HW284045   6.356   8.202  13.080  0.2099  0.6625  0.2968
57356SOL     OW84046   7.244   4.181   7.557 -0.0117 -0.2039 -0.3321
57356SOL    HW184047   7.279   4.225   7.634 -2.2533  2.0802 -0.4798
57356SOL    HW284048   7.235   4.089   7.584  2.1724 -0.0971  0.9902
57357SOL     OW84049  12.677   9.608   7.800  0.0657  0.2358  0.6481
57357SOL    HW184050  12.647   9.606   7.709 -1.4847  1.0269  1.0969
57357SOL    HW284051  12.684   9.701   7.821 -1.0613  0.0992  1.7600
57358SOL     OW84052   2.537   3.945  11.521 -0.0660 -0.1065  0.2177
57358SOL    HW184053   2.587   4.025  11.505  1.0387 -0.1846  2.8724
57358SOL    HW284054   2.480   3.966  11.595 -1.3327 -1.1574 -0.4172
57359SOL     OW84055  12.609   8.068   0.855  0.3200 -0.4347 -0.0627
57359SOL    HW184056  12.589   8.147   0.906 -1.0209  0.7875 -2.2955
57359SOL    HW284057  12.629   8.001   0.920 -1.1272  1.0473  2.0288
57360SOL     OW84058   9.623   0.470  13.521 -0.4390 -0.0949 -0.4366
57360SOL    HW184059   9.657   0.519  13.446 -0.8703 -0.4016 -0.8364
57360SOL    HW284060   9.549   0.420  13.486 -0.2671 -0.7137  0.0544
57361SOL     OW84061   6.402  13.524  10.082 -0.2331  0.0441 -0.3392
57361SOL    HW184062   6.448  13.603  10.109  1.0564 -0.8548  0.2183
57361SOL    HW284063   6.313  13.553  10.062  0.7160  1.9561 -2.0988
57362SOL     OW84064   0.703   0.658   7.564  0.1324 -0.1475 -0.8629
57362SOL    HW184065   0.724   0.564   7.568  0.7149 -0.0021 -0.3288
57362SOL    HW284066   0.742   0.694   7.643  0.8722  0.7318 -1.6022
57363SOL     OW84067   9.907   6.621   7.433 -0.1254 -0.1970 -0.3496
57363SOL    HW184068   9.962   6.577   7.498 -0.5486 -0.7284 -0.3432
57363SOL    HW284069   9.934   6.583   7.349  1.4144  1.4936 -0.6793
57364SOL     OW84070   1.232   5.528   6.782  0.3412  0.3121  0.2296
57364SOL    HW184071   1.241   5.434   6.767 -1.4833 -0.0301  1.0214
57364SOL    HW284072   1.210   5.536   6.874  0.1233  1.4919  0.0904
57365SOL     OW84073  13.272   4.561  11.988 -0.3070  0.4870  0.0171
57365SOL    HW184074  13.188   4.520  11.965 -0.4027  1.3644 -1.3036
57365SOL    HW284075  13.279   4.635  11.928  1.3811  0.4735  0.1677
57366SOL     OW84076   5.072   7.876   8.948 -0.0166  0.2710  0.3946
57366SOL    HW184077   5.065   7.792   8.992 -3.0415  1.1907  1.9725
57366SOL    HW284078   5.152   7.915   8.982  0.0237 -0.8846  1.6892
57367SOL     OW84079  11.762  13.770   8.726 -0.0969 -0.9165  0.0177
57367SOL    HW184080  11.702  13.718   8.780  0.3597 -1.8079 -0.3072
57367SOL    HW284081  11.705  13.831   8.679 -0.6693 -1.2517  0.2680
57368SOL     OW84082  10.120  13.851   2.590  0.0136  0.1119  0.0184
57368SOL    HW184083  10.128  13.904   2.510  0.3913 -0.5439 -0.3817
57368SOL    HW284084  10.076  13.771   2.562  1.3553 -0.7084  0.1907
57369SOL     OW84085   3.798  13.251  11.077 -0.1995  0.2869  0.3359
57369SOL    HW184086   3.709  13.222  11.098  0.0739 -0.1651  0.8799
57369SOL    HW284087   3.802  13.246  10.981  0.0015 -2.0264  0.4067
57370SOL     OW84088  10.620  10.005  10.828  0.1698  0.1718 -0.6005
57370SOL    HW184089  10.714   9.988  10.815 -0.1677 -1.2488 -1.4020
57370SOL    HW284090  10.598  10.069  10.760  0.8991  1.9227  0.7300
57371SOL     OW84091  12.481  13.252   5.218  0.0551 -0.0581  0.3330
57371SOL    HW184092  12.534  13.204   5.282 -2.2985 -0.0723  2.4198
57371SOL    HW284093  12.539  13.321   5.186  1.4726 -0.2933  2.2117
57372SOL     OW84094   6.946   0.961   0.312 -1.0645  0.1260 -0.6460
57372SOL    HW184095   6.903   0.892   0.261  0.3355 -1.1543 -0.1621
57372SOL    HW284096   6.889   1.037   0.300 -2.0366 -0.7603 -2.1775
57373SOL     OW84097   6.237   3.148   8.837 -0.2424 -0.1253 -0.3289
57373SOL    HW184098   6.238   3.052   8.848  2.0750 -0.2293 -0.8940
57373SOL    HW284099   6.301   3.179   8.901 -0.1859  0.9484 -0.8967
57374SOL     OW84100  10.742   0.948   5.167 -0.1124 -0.0631 -0.2816
57374SOL    HW184101  10.768   0.990   5.085  2.4486  0.9290  0.9525
57374SOL    HW284102  10.811   0.970   5.229 -1.6018 -1.3710  1.9957
57375SOL     OW84103   0.364  13.859  10.142  0.2652 -0.2335  0.5488
57375SOL    HW184104   0.369  13.837  10.050  0.1646  1.9937 -0.0540
57375SOL    HW284105   0.439  13.816  10.182  0.0731 -1.5708 -0.4696
57376SOL     OW84106   5.878   0.630  12.340 -0.2596  0.5560  0.3877
57376SOL    HW184107   5.919   0.665  12.420 -0.2433  2.8191 -0.5406
57376SOL    HW284108   5.952   0.617  12.280 -0.6251  2.9646 -0.6817
57377SOL     OW84109   4.386  11.998  12.440 -0.0369  0.4333 -0.8232
57377SOL    HW184110   4.387  11.907  12.411  0.4408  0.5637 -1.2379
57377SOL    HW284111   4.449  12.001  12.511  0.6340  0.6215 -1.4109
57378SOL     OW84112  12.657   2.637   7.534 -0.4393  0.3987 -0.1362
57378SOL    HW184113  12.671   2.731   7.524  0.2936  0.1317 -2.1423
57378SOL    HW284114  12.566   2.623   7.507 -0.9283  0.6419  1.2957
57379SOL     OW84115   0.548   1.411   5.838 -0.0061 -0.7707 -0.2662
57379SOL    HW184116   0.483   1.343   5.855 -0.2865 -0.3683  0.2800
57379SOL    HW284117   0.500   1.480   5.792 -0.7297  0.8567  2.6891
57380SOL     OW84118  13.206   3.181   8.012 -0.6514 -0.0158 -0.2300
57380SOL    HW184119  13.136   3.144   7.958  0.1324 -2.0857  0.0910
57380SOL    HW284120  13.168   3.185   8.100 -1.0887  1.0225 -0.4439
57381SOL     OW84121  13.058   1.522   9.152 -0.3980 -0.8580  0.1608
57381SOL    HW184122  13.082   1.494   9.241 -0.6850 -2.9046 -0.3573
57381SOL    HW284123  12.986   1.583   9.165 -0.0126 -0.6220  1.3691
57382SOL     OW84124  12.935   0.640  11.042 -0.1111 -0.6743 -0.0523
57382SOL    HW184125  12.967   0.730  11.030 -1.0550 -0.2919  0.2027
57382SOL    HW284126  12.952   0.622  11.134 -1.0433 -0.2928  0.2042
57383SOL     OW84127   4.759   0.891   8.891 -0.3054  0.0018 -0.9810
57383SOL    HW184128   4.722   0.979   8.886 -0.5392 -0.1170 -1.3938
57383SOL    HW284129   4.683   0.834   8.903 -0.3157 -0.2828 -2.2486
57384SOL     OW84130   1.859   5.461  10.583  0.1316 -0.7146  0.0750
57384SOL    HW184131   1.896   5.510  10.656 -0.0022 -0.2914 -0.1373
57384SOL    HW284132   1.898   5.500  10.505 -0.1302 -0.8114 -0.1067
57385SOL     OW84133   6.851  11.150  12.258 -0.3551  0.1249  0.6231
57385SOL    HW184134   6.897  11.131  12.176  0.7337  3.4475  0.3230
57385SOL    HW284135   6.883  11.084  12.319  0.2775 -1.2470 -1.0922
57386SOL     OW84136   7.280   4.863  11.551  0.1102  0.0290 -0.5356
57386SOL    HW184137   7.333   4.940  11.528  0.3346 -0.3170 -1.2016
57386SOL    HW284138   7.257   4.824  11.467  0.4670 -0.9518 -0.1906
57387SOL     OW84139   6.302  11.213   6.624 -0.3539  0.1926 -0.2357
57387SOL    HW184140   6.326  11.247   6.710 -0.3285  1.4025 -0.6965
57387SOL    HW284141   6.356  11.263   6.563 -0.8108 -0.2260 -1.0025
57388SOL     OW84142  13.240   1.512   0.502  0.5212  0.0439  0.1632
57388SOL    HW184143  13.183   1.487   0.430  2.4415  0.6808 -1.7003
57388SOL    HW284144  13.285   1.431   0.528 -2.1366 -0.8052  2.6918
57389SOL     OW84145   7.865   3.543   2.238 -0.3777  0.1763  0.6636
57389SOL    HW184146   7.907   3.560   2.322 -0.2058  2.0744  0.2342
57389SOL    HW284147   7.828   3.455   2.247  1.6671 -0.6341  1.8705
57390SOL     OW84148   3.384  11.098  12.048  0.4510 -0.1300  0.4319
57390SOL    HW184149   3.335  11.069  11.971  0.0995 -0.1045  0.6428
57390SOL    HW284150   3.403  11.017  12.096 -0.4723 -0.0412  0.9866
57391SOL     OW84151   0.882   6.984   6.365  0.5053 -0.0069  0.3430
57391SOL    HW184152   0.969   6.950   6.343  0.8769  1.2346 -0.2001
57391SOL    HW284153   0.891   7.018   6.454  0.2680 -0.8602  0.6996
57392SOL     OW84154   1.245   7.327   7.199 -0.4398  0.2299 -0.0741
57392SOL    HW184155   1.329   7.362   7.170 -0.6716  1.6133  0.8221
57392SOL    HW284156   1.188   7.404   7.206 -1.4228 -0.5231  0.5142
57393SOL     OW84157   9.321   6.345   9.942  0.3331  0.3161  0.3973
57393SOL    HW184158   9.273   6.306   9.868 -1.4759  0.0409  1.6529
57393SOL    HW284159   9.413   6.331   9.920 -0.0314  1.8571 -2.6764
57394SOL     OW84160   5.192   8.251   9.551 -0.2368  0.0773 -0.3450
57394SOL    HW184161   5.124   8.317   9.561 -0.2691 -0.2034  1.6263
57394SOL    HW284162   5.149   8.178   9.505 -1.6439 -0.5559  1.8511
57395SOL     OW84163  11.934  11.331   4.415  0.1987  0.5669  0.2921
57395SOL    HW184164  11.855  11.338   4.363  0.7491  0.2028 -0.6118
57395SOL    HW284165  11.995  11.394   4.377  0.3911  0.7587  0.8986
57396SOL     OW84166   3.953   8.184   5.140 -0.7315 -0.2457 -0.1239
57396SOL    HW184167   3.866   8.204   5.108 -0.5731 -0.2369 -0.5546
57396SOL    HW284168   3.960   8.089   5.132 -0.9528 -0.3232  0.5590
57397SOL     OW84169  12.577  10.272  10.770 -0.0914  0.7999  0.4873
57397SOL    HW184170  12.673  10.265  10.774  0.0314  0.8910 -1.3593
57397SOL    HW284171  12.555  10.332  10.841  0.9264 -1.2167  2.6534
57398SOL     OW84172   5.901   1.689   9.997 -0.1886 -0.2647  0.2284
57398SOL    HW184173   5.825   1.744  10.017 -0.3356 -0.8585  1.4504
57398SOL    HW284174   5.883   1.607  10.043  1.8372  0.0779  1.7801
57399SOL     OW84175   6.982   4.078   1.031  0.2612  0.3086 -0.2080
57399SOL    HW184176   6.926   4.061   1.106  0.7327  2.0235  0.5892
57399SOL    HW284177   6.928   4.129   0.971 -0.2676 -1.4668 -1.2972
57400SOL     OW84178  13.933   0.322  12.540  0.3179  0.1429  0.2103
57400SOL    HW184179  13.971   0.234  12.538 -0.3807 -0.1678 -1.7704
57400SOL    HW284180  13.997   0.377  12.496 -0.9785 -0.2171 -2.3320
57401SOL     OW84181  13.303   1.758   1.534  0.2984  0.3577  0.3492
57401SOL    HW184182  13.264   1.737   1.619 -0.6628  2.0670  0.3860
57401SOL    HW284183  13.365   1.828   1.553 -0.5140  1.3178 -0.4344
57402SOL     OW84184   0.316   1.142   2.996 -0.2403 -0.2251  0.2185
57402SOL    HW184185   0.296   1.099   2.913 -0.8361 -0.4774  0.4867
57402SOL    HW284186   0.378   1.211   2.973 -1.0713  0.2803 -0.5791
57403SOL     OW84187   3.525   0.512   0.714  0.3059 -0.3309 -0.3606
57403SOL    HW184188   3.542   0.524   0.620 -0.6598 -1.3553 -0.6987
57403SOL    HW284189   3.568   0.429   0.735 -0.1086 -0.4732 -0.0738
57404SOL     OW84190  10.999   6.623   4.765  0.4170  0.9383 -0.2602
57404SOL    HW184191  11.003   6.713   4.733 -2.4679  0.7687 -1.3363
57404SOL    HW284192  11.086   6.587   4.745  1.6542  3.4360  0.2333
57405SOL     OW84193  10.871   6.302   8.194 -0.0328  0.1572  0.4737
57405SOL    HW184194  10.820   6.250   8.132  2.0551 -1.1293 -0.2673
57405SOL    HW284195  10.848   6.393   8.174  0.1890 -0.2340 -1.8716
57406SOL     OW84196  13.175  12.801   5.819 -0.5248  0.3516  0.1182
57406SOL    HW184197  13.183  12.871   5.884 -0.8995 -0.1873  0.7458
57406SOL    HW284198  13.108  12.832   5.758 -1.3279  0.1706  0.8864
57407SOL     OW84199  12.490   3.839   8.453 -0.2838 -0.2378 -0.1389
57407SOL    HW184200  12.497   3.806   8.363 -0.5020 -1.0475  0.1318
57407SOL    HW284201  12.428   3.912   8.447  0.6584  0.5244 -0.8492
57408SOL     OW84202  11.451  13.934  13.552 -0.5765  0.1035  0.0410
57408SOL    HW184203  11.526  13.994  13.548 -0.9873  0.5680 -2.8240
57408SOL    HW284204  11.375  13.991  13.541 -1.0268 -0.7833 -1.7355
57409SOL     OW84205  12.194   5.661  10.405  0.0830 -0.2876 -0.4865
57409SOL    HW184206  12.243   5.596  10.456  1.9168 -0.0044 -1.7935
57409SOL    HW284207  12.122   5.611  10.365  1.0648 -1.3928 -0.9396
57410SOL     OW84208  11.112   2.913  11.403  0.1472 -0.1688 -0.2333
57410SOL    HW184209  11.040   2.898  11.342 -2.1797  2.7644  1.5277
57410SOL    HW284210  11.078   2.977  11.465  2.8106 -1.8587  3.3441
57411SOL     OW84211   7.479  10.595   8.605 -0.2785 -0.2289 -0.2265
57411SOL    HW184212   7.407  10.643   8.646  0.8383 -0.1086  1.7012
57411SOL    HW284213   7.445  10.507   8.591 -1.3275  0.2667 -0.9082
57412SOL     OW84214   9.913   3.680   6.491 -0.1261  0.2496  0.2047
57412SOL    HW184215   9.826   3.690   6.453  0.0701 -0.9193 -0.5999
57412SOL    HW284216   9.973   3.710   6.423  0.1273  0.7333  0.6304
57413SOL     OW84217  11.418   8.804  10.073  0.1260 -0.2120 -0.4048
57413SOL    HW184218  11.472   8.830  10.148 -0.3578  0.4305 -0.2644
57413SOL    HW284219  11.338   8.770  10.112  0.7416 -1.9435 -0.5944
57414SOL     OW84220   2.791   5.827   7.618 -0.2349 -0.1230 -0.3895
57414SOL    HW184221   2.782   5.901   7.679 -4.2357 -0.6784  0.0180
57414SOL    HW284222   2.875   5.787   7.640  0.2202  1.9449  2.1231
57415SOL     OW84223   1.682  13.503   8.541 -0.2776  0.5597  0.0296
57415SOL    HW184224   1.604  13.457   8.571 -1.5429  1.3553 -1.8305
57415SOL    HW284225   1.749  13.435   8.536 -1.8592 -1.0140 -1.8810
57416SOL     OW84226   8.608   3.867   9.647 -0.4539  0.1659 -0.4878
57416SOL    HW184227   8.588   3.866   9.740  0.7588 -1.6909 -0.2066
57416SOL    HW284228   8.557   3.795   9.610 -0.6534  0.6650 -1.2257
57417SOL     OW84229   3.623   4.804   9.175 -0.1076 -0.0317 -0.2405
57417SOL    HW184230   3.537   4.833   9.204 -0.4622 -0.7762 -0.5080
57417SOL    HW284231   3.683   4.872   9.205 -0.9342  1.1765 -1.2099
57418SOL     OW84232   4.570  11.751  11.176 -0.0199 -0.0671  0.2468
57418SOL    HW184233   4.598  11.829  11.128  0.2274 -0.0432  0.4321
57418SOL    HW284234   4.536  11.693  11.108 -1.0420  0.5538  0.1921
57419SOL     OW84235   8.731  13.805   1.670  0.0250  0.0577  0.0192
57419SOL    HW184236   8.764  13.721   1.637 -1.4918 -0.5805  0.0860
57419SOL    HW284237   8.734  13.863   1.594 -0.4841 -0.5320 -0.4612
57420SOL     OW84238   2.655  12.440  13.854 -0.1497  0.2045  0.6554
57420SOL    HW184239   2.588  12.421  13.788  0.8999 -1.8860  0.0936
57420SOL    HW284240   2.613  12.419  13.938 -0.8307  0.8817  0.4949
57421SOL     OW84241  12.922   2.583   6.089 -0.5179 -0.1443  0.3732
57421SOL    HW184242  12.854   2.612   6.150 -1.6641  0.2942 -1.0659
57421SOL    HW284243  12.920   2.488   6.094 -1.7306 -0.1629 -0.1403
57422SOL     OW84244  12.193   5.012  10.689  0.4107 -0.0598  0.1618
57422SOL    HW184245  12.145   4.997  10.771 -1.9300  3.0501 -0.4681
57422SOL    HW284246  12.280   5.041  10.718  0.2089 -0.6929  1.4829
57423SOL     OW84247   6.275   6.069   2.656  0.0801 -0.9762  0.2385
57423SOL    HW184248   6.314   6.122   2.586 -0.7944  2.9678  2.3977
57423SOL    HW284249   6.181   6.079   2.644 -0.0883 -1.3482  1.1961
57424SOL     OW84250   2.729   0.146  11.061  0.1474  0.0500 -0.7551
57424SOL    HW184251   2.747   0.220  11.119 -3.1390  0.6868 -0.3450
57424SOL    HW284252   2.750   0.069  11.113 -0.2301  0.6670  0.3411
57425SOL     OW84253  11.178   2.464   4.225  0.1074 -0.1064  0.5337
57425SOL    HW184254  11.144   2.499   4.307  0.7683  0.6085  0.5212
57425SOL    HW284255  11.261   2.422   4.250 -0.0817 -0.5889  0.3549
57426SOL     OW84256   8.610   9.531   0.536  0.4742 -0.5124 -0.0040
57426SOL    HW184257   8.544   9.483   0.586  0.5658 -0.4965  0.1329
57426SOL    HW284258   8.592   9.623   0.555  1.4607 -0.5576  1.2134
57427SOL     OW84259   3.489   6.726  10.588 -0.6746  0.3961 -0.1782
57427SOL    HW184260   3.414   6.711  10.531  0.6430  2.5399 -2.6827
57427SOL    HW284261   3.490   6.821  10.602  0.7037  0.2322  1.0859
57428SOL     OW84262   4.012   1.109  11.396  0.0243 -0.0977 -0.6287
57428SOL    HW184263   4.037   1.202  11.397 -0.1991 -0.0374 -0.5753
57428SOL    HW284264   3.971   1.096  11.311 -1.5206  0.2811  0.0201
57429SOL     OW84265   7.306   3.174   3.347  0.0303  0.1765  0.2690
57429SOL    HW184266   7.267   3.261   3.352 -0.7233 -0.0334 -1.4744
57429SOL    HW284267   7.256   3.122   3.410 -0.2971  0.6999  0.4488
57430SOL     OW84268   4.539   4.957   0.161 -0.1314  0.0676 -0.0646
57430SOL    HW184269   4.470   4.897   0.188 -0.6749  0.2259 -1.0408
57430SOL    HW284270   4.504   5.044   0.181  0.2725  0.1140  0.4902
57431SOL     OW84271   1.967  11.281  13.913  0.4559  0.1014  0.1974
57431SOL    HW184272   1.954  11.313  14.003 -0.4466 -0.4413  0.2661
57431SOL    HW284273   1.892  11.225  13.896  1.3681 -1.0005 -0.3664
57432SOL     OW84274   8.309   9.524   7.996 -0.5237 -0.0326  0.0236
57432SOL    HW184275   8.290   9.469   8.072 -0.5976  1.8576  1.4268
57432SOL    HW284276   8.224   9.534   7.952 -1.2137  1.6322  1.6372
57433SOL     OW84277   8.289   2.005   8.586 -0.5269  0.2880 -0.2350
57433SOL    HW184278   8.359   1.941   8.594 -1.1664 -0.2381  1.6918
57433SOL    HW284279   8.255   1.993   8.497  3.7264  2.6653 -2.5108
57434SOL     OW84280   5.276   4.247   6.036 -0.1250 -0.4210  0.1299
57434SOL    HW184281   5.354   4.300   6.020  0.9237 -0.4908  3.9869
57434SOL    HW284282   5.204   4.310   6.038 -0.0227 -0.1612 -1.9883
57435SOL     OW84283   9.626   1.440   9.157 -0.5677 -1.2368 -0.2228
57435SOL    HW184284   9.589   1.380   9.091 -0.2898 -0.1590 -1.4103
57435SOL    HW284285   9.672   1.383   9.218  2.1600 -2.1199 -2.8844
57436SOL     OW84286   6.532  10.423   6.057 -0.1506  0.1204 -0.1263
57436SOL    HW184287   6.482  10.352   6.096 -0.0189 -0.3864 -0.8561
57436SOL    HW284288   6.613  10.428   6.108  0.3053 -0.9628 -0.7093
57437SOL     OW84289   5.195  13.642   6.299  0.0664 -0.0496 -0.0527
57437SOL    HW184290   5.238  13.596   6.227 -0.6254 -0.4717 -0.2095
57437SOL    HW284291   5.104  13.612   6.295 -0.1899  0.6518  0.4088
57438SOL     OW84292   5.406   6.676  11.962 -0.1995  0.6838  0.2733
57438SOL    HW184293   5.499   6.695  11.948 -0.1532  0.4049  0.1926
57438SOL    HW284294   5.403   6.581  11.976 -0.4120  0.7703  0.8037
57439SOL     OW84295   5.925   4.696   0.513 -0.1207 -0.5233 -0.3549
57439SOL    HW184296   5.862   4.763   0.539  0.5869  1.1656 -2.6367
57439SOL    HW284297   5.891   4.615   0.551 -2.9773  0.5180 -0.4164
57440SOL     OW84298   6.682  13.193   5.479 -0.1158 -0.9744 -0.4659
57440SOL    HW184299   6.684  13.210   5.574 -1.6683 -0.0572 -0.5626
57440SOL    HW284300   6.774  13.191   5.453  0.3128  0.3475  0.8132
57441SOL     OW84301   3.536   6.261   4.078 -0.4315 -0.0230  0.2707
57441SOL    HW184302   3.628   6.253   4.053 -0.8646  0.1447 -1.5173
57441SOL    HW284303   3.524   6.195   4.146  1.0008 -0.0652  0.5144
57442SOL     OW84304  13.918  12.587  10.416  0.3186  0.2008 -0.0442
57442SOL    HW184305  13.856  12.589  10.344  0.7862 -0.6915 -0.4925
57442SOL    HW284306  14.003  12.603  10.375  0.3419  2.0393  0.6449
57443SOL     OW84307  11.807   1.574   9.421  0.3059 -0.1967 -0.6827
57443SOL    HW184308  11.836   1.486   9.445 -0.7332 -0.1010  1.0930
57443SOL    HW284309  11.885   1.629   9.432  0.2487 -0.4213  1.2024
57444SOL     OW84310   6.720   1.139   2.249  0.6010 -0.3712  0.4119
57444SOL    HW184311   6.715   1.174   2.338  0.4227  0.3526  0.1247
57444SOL    HW284312   6.658   1.191   2.199 -1.4103 -2.5798  0.4029
57445SOL     OW84313   8.395   9.154   3.324 -0.1307 -0.5034 -0.1970
57445SOL    HW184314   8.392   9.188   3.414  0.3085  0.2930 -0.4747
57445SOL    HW284315   8.348   9.071   3.329  3.3988 -2.6417  1.7133
57446SOL     OW84316  13.751  10.680   5.679  0.7470  0.0641 -0.6569
57446SOL    HW184317  13.782  10.770   5.668  0.2516  0.2640 -0.4387
57446SOL    HW284318  13.688  10.685   5.751  1.6598 -0.6852  0.2102
57447SOL     OW84319   6.595   7.763   2.790 -0.4432  0.0153  0.3050
57447SOL    HW184320   6.643   7.780   2.709  0.3228 -0.9320  0.5488
57447SOL    HW284321   6.503   7.773   2.765 -0.2229 -0.2470 -0.6800
57448SOL     OW84322  10.484   2.411   1.827  0.0636  0.5418 -0.3976
57448SOL    HW184323  10.546   2.370   1.766  0.1498  2.5922 -1.8149
57448SOL    HW284324  10.536   2.479   1.871 -0.5130  0.4113  0.5076
57449SOL     OW84325   4.677   4.838   6.845 -0.0224 -0.6064 -0.7064
57449SOL    HW184326   4.688   4.750   6.880  0.8945 -0.3389 -0.2941
57449SOL    HW284327   4.766   4.870   6.831 -0.3261  0.4500 -0.3474
57450SOL     OW84328   9.350   0.843  12.695 -0.2682 -0.1005 -0.5353
57450SOL    HW184329   9.379   0.754  12.715 -0.3054  0.2001  0.9824
57450SOL    HW284330   9.255   0.835  12.682  0.0187 -0.6164 -2.6767
57451SOL     OW84331   3.640  13.989   3.263  0.6389 -0.0303  0.3913
57451SOL    HW184332   3.547  13.971   3.251  0.2336  1.2149  1.4822
57451SOL    HW284333   3.675  13.909   3.304 -0.3252  0.1541  1.6179
57452SOL     OW84334   1.676   8.806   4.124 -0.3330 -0.4321  0.3531
57452SOL    HW184335   1.642   8.819   4.036  0.0832 -0.0324  0.2465
57452SOL    HW284336   1.601   8.825   4.181 -0.6115 -0.7183  0.0866
57453SOL     OW84337   5.530   3.122   4.088  0.2826 -0.4896 -0.4859
57453SOL    HW184338   5.616   3.125   4.129  0.3563  1.2515 -0.7097
57453SOL    HW284339   5.488   3.204   4.112 -1.9959 -1.9545  0.9460
57454SOL     OW84340   9.055  11.357  11.280 -0.1402 -0.2456  0.1791
57454SOL    HW184341   8.980  11.413  11.301  0.3744  0.5345 -0.0779
57454SOL    HW284342   9.049  11.343  11.186  1.9218  2.6235 -0.5021
57455SOL     OW84343   1.688   8.750   2.122 -0.0115 -0.2835  0.4938
57455SOL    HW184344   1.688   8.664   2.080 -1.9352 -0.2288  0.2983
57455SOL    HW284345   1.705   8.811   2.050 -0.6090 -0.3684  0.2795
57456SOL     OW84346   4.479  13.364  10.562 -0.3676 -0.0527  0.5675
57456SOL    HW184347   4.484  13.386  10.469  0.2608 -0.2582  0.5501
57456SOL    HW284348   4.400  13.410  10.593 -0.2966  0.4351  0.0499
57457SOL     OW84349   0.041   4.953   1.614 -0.1556 -0.1874 -0.1749
57457SOL    HW184350   0.054   4.859   1.633  1.3373 -0.0510 -0.4001
57457SOL    HW284351   0.010   4.989   1.697  0.7602 -0.6329  0.3931
57458SOL     OW84352   0.893  10.275   5.732 -0.0570  0.1983 -0.2444
57458SOL    HW184353   0.982  10.281   5.696  0.1594  1.2647  0.4053
57458SOL    HW284354   0.905  10.290   5.825 -1.0495  1.7150 -0.3334
57459SOL     OW84355  11.302   9.707   3.094 -0.2855  0.1241  0.2699
57459SOL    HW184356  11.388   9.715   3.134 -0.4659 -0.8939  0.9085
57459SOL    HW284357  11.320   9.671   3.007 -0.0199  0.5845  0.1336
57460SOL     OW84358   0.964  11.964   3.817  0.2451 -0.2067  0.7686
57460SOL    HW184359   0.919  12.048   3.830  1.2691  0.5787 -0.5467
57460SOL    HW284360   0.929  11.907   3.886 -0.3345  1.3482  1.8080
57461SOL     OW84361  13.089   0.303  11.138  0.2820  0.1586  0.4940
57461SOL    HW184362  13.010   0.250  11.148  0.1683  0.3845  0.7805
57461SOL    HW284363  13.058   0.390  11.114  0.3709  0.5616  1.7600
57462SOL     OW84364   0.200  11.121   8.698 -0.3486  0.5562 -0.2258
57462SOL    HW184365   0.175  11.036   8.663 -0.8880  0.0634  1.2547
57462SOL    HW284366   0.285  11.107   8.739  0.7227  1.3488 -2.0397
57463SOL     OW84367   4.633  13.987  12.904 -0.5232 -0.1842  0.9861
57463SOL    HW184368   4.645  14.064  12.959 -0.1453 -1.0325  2.1387
57463SOL    HW284369   4.687  14.004  12.827 -0.3805  0.6613  1.2628
57464SOL     OW84370   8.653  13.462   7.468 -0.6960 -0.0275 -0.3580
57464SOL    HW184371   8.740  13.503   7.471 -0.8336  0.2450 -0.0817
57464SOL    HW284372   8.638  13.431   7.557 -2.1875  2.6493  0.4230
57465SOL     OW84373  12.214  13.404  11.209  0.1720 -0.1494  0.5845
57465SOL    HW184374  12.246  13.341  11.274 -1.1522  0.8578  2.2928
57465SOL    HW284375  12.206  13.354  11.128  1.4283 -1.5616  1.2920
57466SOL     OW84376  10.420  12.550  12.015  0.2750  0.2335 -0.5463
57466SOL    HW184377  10.372  12.596  11.946  2.2395  0.5489 -1.7903
57466SOL    HW284378  10.404  12.457  11.998 -0.7926  0.3465 -0.2243
57467SOL     OW84379  11.480   8.334   3.762  0.4345  0.7212 -0.2919
57467SOL    HW184380  11.446   8.248   3.788 -0.5701  0.5335 -2.0886
57467SOL    HW284381  11.429   8.397   3.813  0.9667  0.2846  0.8059
57468SOL     OW84382   4.178   7.825   5.322  0.5336 -0.4340  0.0329
57468SOL    HW184383   4.202   7.739   5.289  0.0853 -0.9620  1.0641
57468SOL    HW284384   4.083   7.829   5.310  0.5972  0.0771 -0.3572
57469SOL     OW84385  13.750  13.099   7.511 -0.2299 -0.2964 -0.4013
57469SOL    HW184386  13.788  13.103   7.423  3.4578  0.2105  1.0307
57469SOL    HW284387  13.789  13.022   7.550  0.8588  1.2758  1.8092
57470SOL     OW84388   5.552  10.723  12.300  0.3715  0.1007 -0.4259
57470SOL    HW184389   5.456  10.721  12.302  0.3036 -1.0410 -2.4723
57470SOL    HW284390   5.578  10.698  12.388 -1.2066  0.7492  0.2590
57471SOL     OW84391  13.466   1.773   2.581 -0.3591  0.4771  0.1667
57471SOL    HW184392  13.452   1.803   2.491 -0.0849  1.8841  0.5657
57471SOL    HW284393  13.402   1.822   2.633  0.5536  0.8759  0.9354
57472SOL     OW84394   4.978  13.726   2.327  0.7984  0.2033 -0.1880
57472SOL    HW184395   5.059  13.764   2.360  2.0388 -1.1272 -1.5630
57472SOL    HW284396   4.980  13.635   2.357  0.2424 -0.0784 -0.9713
57473SOL     OW84397   5.170   8.742  11.713  0.2152  0.2359  0.6109
57473SOL    HW184398   5.245   8.684  11.699  0.3240  0.4910  0.1119
57473SOL    HW284399   5.131   8.751  11.626  1.4395  2.6087  0.2307
57474SOL     OW84400   1.832   0.644  10.981 -0.5666 -0.2789 -0.0274
57474SOL    HW184401   1.927   0.645  10.990 -0.4116 -1.0213 -1.3922
57474SOL    HW284402   1.815   0.683  10.895 -1.5231  0.0566  0.2897
57475SOL     OW84403  13.709   7.569   9.404  0.4141  0.4900  0.1233
57475SOL    HW184404  13.743   7.656   9.425  3.1484 -0.3274 -0.4433
57475SOL    HW284405  13.778   7.529   9.350 -1.2957 -1.5906 -0.6608
57476SOL     OW84406  13.502   4.338   5.009 -0.7145 -0.4974  0.0901
57476SOL    HW184407  13.430   4.299   5.059 -0.5364  0.5785  1.2353
57476SOL    HW284408  13.472   4.427   4.990 -0.5886 -0.7464 -1.3678
57477SOL     OW84409   5.531   8.555   9.508 -0.4477 -0.1713 -0.3271
57477SOL    HW184410   5.475   8.600   9.571  0.2526 -0.4271  0.4996
57477SOL    HW284411   5.470   8.506   9.453 -1.0831  0.1532  0.0720
57478SOL     OW84412   1.745  11.306  10.969  0.5391 -0.3894 -0.0703
57478SOL    HW184413   1.714  11.238  11.028  1.9983 -0.9312  0.1148
57478SOL    HW284414   1.778  11.375  11.027  0.2461 -0.0888 -0.2568
57479SOL     OW84415   8.062   9.188  11.623  0.0603  0.4690 -0.0036
57479SOL    HW184416   8.121   9.115  11.643 -0.1662 -0.0346 -1.0856
57479SOL    HW284417   8.063   9.242  11.701  1.7744  0.3481  0.0996
57480SOL     OW84418   0.694   2.806   8.472 -0.0122 -0.4451 -0.1185
57480SOL    HW184419   0.621   2.839   8.523  0.1423  0.4869 -0.4773
57480SOL    HW284420   0.756   2.879   8.468  1.3671 -1.5019  0.9512
57481SOL     OW84421   6.803   1.522  12.519  0.0982  0.1715 -0.4720
57481SOL    HW184422   6.779   1.466  12.446  1.3590 -0.3673 -0.4980
57481SOL    HW284423   6.833   1.461  12.587  0.0975  0.7364  0.0427
57482SOL     OW84424   5.483   5.441   8.297 -0.1916  0.1454  0.0634
57482SOL    HW184425   5.570   5.480   8.307 -0.1630 -0.0235  0.4902
57482SOL    HW284426   5.492   5.380   8.223 -0.6369  2.0594 -1.6474
57483SOL     OW84427   8.833   2.867   7.747 -0.8827 -0.5096 -0.5608
57483SOL    HW184428   8.863   2.945   7.700  1.4654 -0.7934  0.3285
57483SOL    HW284429   8.791   2.900   7.826  3.3563  0.0457  1.7553
57484SOL     OW84430   8.946   9.773   0.433 -0.5301  0.2222 -0.0848
57484SOL    HW184431   8.926   9.744   0.344  1.7582  3.2091 -1.7689
57484SOL    HW284432   9.016   9.716   0.462 -1.0622 -0.5578 -0.3085
57485SOL     OW84433  13.272   9.732   9.607 -0.4960  0.6487  0.1792
57485SOL    HW184434  13.278   9.694   9.695  0.1874  0.3783  0.0150
57485SOL    HW284435  13.293   9.660   9.548 -1.2943  0.7403 -0.2308
57486SOL     OW84436   2.062   0.318   5.095  0.0439 -0.7085  0.3775
57486SOL    HW184437   2.048   0.413   5.092  1.6869 -0.4451  0.0170
57486SOL    HW284438   2.157   0.309   5.103 -0.2124 -2.3088  2.0624
57487SOL     OW84439  11.707   2.138  12.073 -0.6004 -0.2732  0.0960
57487SOL    HW184440  11.758   2.215  12.048 -0.6744  0.1737  1.2400
57487SOL    HW284441  11.621   2.174  12.098 -0.4186 -0.6323  1.2893
57488SOL     OW84442  13.644   3.175  13.071  0.8656  0.0218 -0.0434
57488SOL    HW184443  13.692   3.235  13.129  2.6392 -1.3585  0.0316
57488SOL    HW284444  13.612   3.106  13.129 -1.6850  1.1270 -0.0372
57489SOL     OW84445  13.467  12.482  13.566 -0.4411 -0.3060  0.6104
57489SOL    HW184446  13.454  12.482  13.660 -0.1780 -1.7470  0.6670
57489SOL    HW284447  13.559  12.461  13.554 -0.1730  1.0646  0.0299
57490SOL     OW84448   5.788   4.365   6.947 -0.1321  0.0917  0.3622
57490SOL    HW184449   5.844   4.371   7.024  0.0361  2.0115  0.1553
57490SOL    HW284450   5.848   4.367   6.873 -0.3872  1.1271  0.1605
57491SOL     OW84451  13.189   7.721  13.278  0.1811  0.0775 -0.3330
57491SOL    HW184452  13.261   7.724  13.341 -1.1307  2.6852  1.2310
57491SOL    HW284453  13.111   7.709  13.332 -0.9680  2.0885 -1.4110
57492SOL     OW84454   8.327  12.462   7.439 -0.1554  0.0466 -0.3121
57492SOL    HW184455   8.257  12.452   7.503 -0.4645 -0.0890 -0.6657
57492SOL    HW284456   8.292  12.422   7.359  0.6731 -0.8605 -0.2438
57493SOL     OW84457   3.685   1.287  12.289  0.4409  0.0529 -0.2937
57493SOL    HW184458   3.657   1.254  12.203 -2.1136  1.3592 -0.0807
57493SOL    HW284459   3.682   1.382  12.279  1.0173  0.2192  0.9994
57494SOL     OW84460   7.862   4.749   0.112  0.1463 -0.3530  0.5072
57494SOL    HW184461   7.905   4.736   0.027 -1.2604  0.5134 -0.3960
57494SOL    HW284462   7.774   4.779   0.089  0.0133  0.7725  2.2927
57495SOL     OW84463   5.173   2.844  13.716  0.6981 -0.1370 -0.8996
57495SOL    HW184464   5.195   2.900  13.791  0.4929 -0.5752 -0.5072
57495SOL    HW284465   5.115   2.777  13.753  1.1969 -0.7956 -1.3024
57496SOL     OW84466  12.655   2.107   3.675 -0.5173 -0.1614 -0.5731
57496SOL    HW184467  12.690   2.159   3.748  0.6292 -1.2738 -0.2943
57496SOL    HW284468  12.610   2.034   3.718  0.7274 -1.1885 -0.9319
57497SOL     OW84469   0.243   2.937   0.124  0.7702 -0.1041 -0.1351
57497SOL    HW184470   0.163   2.910   0.168 -0.7241  3.2087 -0.5718
57497SOL    HW284471   0.233   2.903   0.035 -0.0298  0.0688 -0.1172
57498SOL     OW84472   9.410  10.976   0.233  0.3625 -0.8242  0.4794
57498SOL    HW184473   9.453  10.924   0.165  1.8867 -1.9118  2.1978
57498SOL    HW284474   9.357  10.912   0.282 -1.3558  0.0829 -0.1173
57499SOL     OW84475   1.974   2.289  13.934  0.0677 -0.7002  0.0211
57499SOL    HW184476   2.062   2.318  13.958  0.1045 -0.6241 -0.2028
57499SOL    HW284477   1.988   2.210  13.882  0.2188  1.2303 -3.0667
57500SOL     OW84478  13.094   9.006   3.334  0.8000  0.1973 -0.1297
57500SOL    HW184479  13.182   9.034   3.356  0.5420 -0.2909  1.6149
57500SOL    HW284480  13.059   9.077   3.280  1.1475  1.9357  1.8394
57501SOL     OW84481   6.134   6.347   0.012  0.2751 -0.4664 -0.1721
57501SOL    HW184482   6.174   6.393  -0.061  1.8207 -3.0499 -1.0609
57501SOL    HW284483   6.201   6.348   0.081 -0.0712 -0.5143  0.1695
57502SOL     OW84484   5.299   5.185   1.738  0.1451 -0.4179 -0.2181
57502SOL    HW184485   5.205   5.181   1.717  0.1287  2.0212 -0.9243
57502SOL    HW284486   5.337   5.110   1.692 -1.3838 -1.1423 -0.3505
57503SOL     OW84487   5.698   8.502  12.094 -0.3749 -0.2693  0.6781
57503SOL    HW184488   5.711   8.592  12.066  2.5637 -0.4513  1.1250
57503SOL    HW284489   5.702   8.451  12.013 -3.5800 -0.0079  0.2176
57504SOL     OW84490  10.270   7.023   4.721  0.3284 -0.5768  0.3800
57504SOL    HW184491  10.329   7.007   4.648 -0.0176  1.5465 -0.4250
57504SOL    HW284492  10.327   7.052   4.792  0.8265 -3.8033  1.5035
57505SOL     OW84493   4.986   5.494  12.461  0.0215  0.2412 -0.2370
57505SOL    HW184494   4.965   5.517  12.552 -2.2230  0.9878 -0.8637
57505SOL    HW284495   5.041   5.566  12.430 -0.7250  0.9428  0.0260
57506SOL     OW84496  13.358  12.647   8.105 -0.5679 -0.5487  0.5806
57506SOL    HW184497  13.386  12.713   8.168 -0.4027 -1.3430  1.3623
57506SOL    HW284498  13.417  12.573   8.120 -0.8448 -0.9351 -0.1730
57507SOL     OW84499   1.503   2.952   7.036 -0.5410  0.4228  0.3800
57507SOL    HW184500   1.465   2.900   6.965 -1.6780 -0.2468  1.4405
57507SOL    HW284501   1.569   3.007   6.993  0.2609 -1.4339 -0.8723
57508SOL     OW84502   0.774   8.354   3.867 -0.0466 -0.0465  0.3735
57508SOL    HW184503   0.749   8.445   3.877  0.3233 -0.0185  1.1631
57508SOL    HW284504   0.869   8.354   3.877 -0.0588 -0.5363  0.5472
57509SOL     OW84505   9.980   6.275  11.229 -0.5915 -0.2280  0.1065
57509SOL    HW184506  10.028   6.223  11.294  0.7838  0.9562  0.0658
57509SOL    HW284507   9.900   6.301  11.275 -1.1855 -2.0767  0.2307
57510SOL     OW84508   3.892   6.871  11.948 -0.1359 -0.0685 -0.6959
57510SOL    HW184509   3.976   6.914  11.934 -0.5003  1.4108  1.1611
57510SOL    HW284510   3.856   6.914  12.026 -2.0665 -1.4983 -0.7184
57511SOL     OW84511   5.114   9.574   3.643 -0.2712  0.0866 -0.3743
57511SOL    HW184512   5.033   9.551   3.689 -0.1135  0.5932  0.1727
57511SOL    HW284513   5.153   9.643   3.697 -0.4220  1.1764 -1.6367
57512SOL     OW84514   2.803   2.449   9.249  0.2672  0.9793 -0.0175
57512SOL    HW184515   2.887   2.450   9.294 -0.3237 -0.1953  1.1533
57512SOL    HW284516   2.815   2.510   9.176  2.0750  0.9480  0.2044
57513SOL     OW84517  13.428  10.746  10.438  0.1971  0.3160 -0.3821
57513SOL    HW184518  13.402  10.660  10.405 -1.6668  0.9397 -0.6354
57513SOL    HW284519  13.488  10.779  10.371 -0.0590 -0.2704 -0.9255
57514SOL     OW84520   1.231  11.691   0.348  0.3658  0.3789  0.0978
57514SOL    HW184521   1.319  11.718   0.323  0.1685 -0.7128 -1.9528
57514SOL    HW284522   1.178  11.771   0.343  0.8093  0.6238 -0.8210
57515SOL     OW84523   8.754   9.023   1.126 -0.0050  0.0755  0.6529
57515SOL    HW184524   8.659   9.036   1.121  0.0932  0.3945 -1.4827
57515SOL    HW284525   8.766   8.940   1.171 -1.2629  0.3690  1.5624
57516SOL     OW84526  12.090   3.853   6.694  0.1453 -0.0184 -0.5759
57516SOL    HW184527  12.046   3.774   6.663  2.3731 -2.0467  1.0768
57516SOL    HW284528  12.162   3.866   6.633  1.1724 -0.6948  0.4542
57517SOL     OW84529   3.379  10.470   3.196  0.0272 -0.1961 -0.2437
57517SOL    HW184530   3.298  10.423   3.217 -0.6051  0.3879 -1.2580
57517SOL    HW284531   3.444  10.401   3.185 -0.7976 -0.8531 -1.3199
57518SOL     OW84532  10.010   1.796  11.037 -0.0024  0.3486  0.1954
57518SOL    HW184533  10.065   1.774  11.112  0.0259  2.6742  0.9216
57518SOL    HW284534  10.054   1.754  10.963  0.8189 -0.7133  1.2386
57519SOL     OW84535   7.896   7.379   4.384  0.4900 -0.3707 -0.5895
57519SOL    HW184536   7.848   7.298   4.369  1.7560 -1.2858  0.1280
57519SOL    HW284537   7.988   7.357   4.365  0.9963  0.6013  0.6009
57520SOL     OW84538   4.961  13.944   5.916 -0.1142  0.5098  1.0731
57520SOL    HW184539   5.027  13.878   5.937 -0.5986 -0.0800  0.7927
57520SOL    HW284540   4.878  13.904   5.945 -0.4301  0.9296  0.7537
57521SOL     OW84541   4.803  10.076   7.196  0.2987  0.1842 -0.1293
57521SOL    HW184542   4.829  10.004   7.253  0.7642  0.7359  0.3772
57521SOL    HW284543   4.853  10.151   7.229  0.0115  0.6773 -0.8025
57522SOL     OW84544   7.904   6.739   1.781  0.3727 -0.2754  0.2644
57522SOL    HW184545   7.855   6.767   1.859  0.4155  1.3796 -0.2754
57522SOL    HW284546   7.993   6.722   1.814 -0.1740 -2.0037  0.9980
57523SOL     OW84547   0.318  11.617   7.545  1.0586 -0.2637  0.8064
57523SOL    HW184548   0.308  11.623   7.640 -2.9866 -0.5368  0.5555
57523SOL    HW284549   0.356  11.530   7.531 -1.5252 -1.7367  2.1796
57524SOL     OW84550  11.714   5.688   6.132 -0.5289 -0.2812 -0.6163
57524SOL    HW184551  11.727   5.634   6.054 -2.3648  0.6235 -1.6301
57524SOL    HW284552  11.621   5.677   6.153 -0.7018  1.5658 -0.2022
57525SOL     OW84553   9.497   4.917   4.679  0.6800 -0.1944 -0.2735
57525SOL    HW184554   9.545   4.972   4.742  0.2044 -0.6974  0.5560
57525SOL    HW284555   9.430   4.873   4.732 -0.1845 -0.1139 -1.2676
57526SOL     OW84556  14.000   7.110   0.544  0.4938 -0.1628  0.4063
57526SOL    HW184557  14.071   7.149   0.492  0.3779  0.1898  0.5126
57526SOL    HW284558  13.993   7.166   0.621 -0.5337  0.3646 -0.0556
57527SOL     OW84559   0.426   8.340   5.471  0.5594  0.2657  0.0899
57527SOL    HW184560   0.437   8.306   5.382  1.8908  1.2033 -0.1389
57527SOL    HW284561   0.401   8.432   5.459 -0.0375  0.1887  0.6860
57528SOL     OW84562   8.884  13.723   2.180 -0.2049 -0.1619  0.1034
57528SOL    HW184563   8.832  13.713   2.260  0.5029  0.1022  0.6120
57528SOL    HW284564   8.964  13.673   2.197 -0.1466 -0.2946 -0.5326
57529SOL     OW84565   1.790   8.719   1.511 -0.0759 -0.6454 -0.3518
57529SOL    HW184566   1.824   8.656   1.447  0.5274 -0.6971  0.0158
57529SOL    HW284567   1.709   8.679   1.542  1.0585 -2.0088  1.0089
57530SOL     OW84568   1.992  11.500   7.860 -0.6073 -0.1526 -0.0830
57530SOL    HW184569   1.963  11.586   7.828  1.9881  0.8656  0.0315
57530SOL    HW284570   2.022  11.454   7.781 -0.2808 -0.2356  0.0913
57531SOL     OW84571  11.098   9.298   9.058  0.3762 -0.7060  0.0161
57531SOL    HW184572  11.090   9.204   9.041  0.7368 -0.6464 -0.5249
57531SOL    HW284573  11.057   9.311   9.143  0.3320 -1.3551  0.0982
57532SOL     OW84574  13.275   7.045   7.465 -0.1547 -0.2776 -0.0335
57532SOL    HW184575  13.179   7.045   7.459 -0.1407 -0.0614 -0.2642
57532SOL    HW284576  13.300   7.137   7.457 -0.0458 -0.0571  2.2236
57533SOL     OW84577   0.835   7.452   6.770  0.2417 -0.3550 -0.5105
57533SOL    HW184578   0.837   7.381   6.707  0.4685 -1.8024  1.0491
57533SOL    HW284579   0.784   7.418   6.844  0.3760  1.0857  0.2929
57534SOL     OW84580   7.059   6.243  12.844  0.3727  0.1489 -0.0857
57534SOL    HW184581   7.139   6.201  12.813  0.3665 -0.4995  0.7504
57534SOL    HW284582   7.073   6.336  12.828  1.5961  0.1202  0.6967
57535SOL     OW84583  13.511   8.129   7.669  0.5095 -0.0330 -0.2775
57535SOL    HW184584  13.492   8.102   7.759  2.2610 -0.0398  0.1127
57535SOL    HW284585  13.480   8.219   7.664 -0.9349 -0.4833 -0.1399
57536SOL     OW84586   5.657   0.794   7.225  0.4392  0.6316 -0.3333
57536SOL    HW184587   5.567   0.765   7.237 -0.0028  2.7944  2.6676
57536SOL    HW284588   5.650   0.886   7.200  1.8012  0.8845  0.1084
57537SOL     OW84589   3.241   5.178  13.248  0.5145  0.1969 -0.2845
57537SOL    HW184590   3.220   5.201  13.157  1.8577 -0.2379 -0.7219
57537SOL    HW284591   3.336   5.171  13.250  0.8282  3.1365  1.8637
57538SOL     OW84592   3.124  12.972   6.929  0.3337  0.2049  0.4187
57538SOL    HW184593   3.066  12.898   6.949  0.4820  0.3611  1.4759
57538SOL    HW284594   3.123  13.026   7.008  2.4709 -0.1519  0.7599
57539SOL     OW84595   3.242  12.268  11.254  0.4190  0.3609  0.3576
57539SOL    HW184596   3.236  12.265  11.350  0.9650  0.4476  0.3996
57539SOL    HW284597   3.151  12.274  11.224  0.1513 -0.9187  0.8206
57540SOL     OW84598   3.613   0.239  12.493 -0.1204 -0.2081  0.2082
57540SOL    HW184599   3.686   0.226  12.554  0.8106  0.7346 -0.6371
57540SOL    HW284600   3.563   0.311  12.531  0.2374  0.1200  0.0668
57541SOL     OW84601  10.710   3.132   6.354  0.1684 -0.2051 -0.1559
57541SOL    HW184602  10.786   3.164   6.305  0.4977 -3.0213 -1.6784
57541SOL    HW284603  10.745   3.064   6.411 -1.0305 -0.8368 -0.1344
57542SOL     OW84604  11.812   2.390  12.074  0.3236 -0.3332 -0.6109
57542SOL    HW184605  11.838   2.397  11.982  0.7833  1.3433 -0.3706
57542SOL    HW284606  11.803   2.480  12.104 -2.1204 -0.8233  0.3631
57543SOL     OW84607   0.451   7.599  10.867  0.1324  0.5535  0.2157
57543SOL    HW184608   0.477   7.678  10.819 -0.7568  0.6418 -0.1447
57543SOL    HW284609   0.432   7.631  10.956 -0.7228  0.8511 -0.0606
57544SOL     OW84610   4.079   0.040  13.855  0.7414  0.4792  0.2690
57544SOL    HW184611   4.114   0.059  13.942  4.7068 -2.5503 -0.3884
57544SOL    HW284612   4.105   0.115  13.802 -0.4674  1.6899  1.2838
57545SOL     OW84613   3.602   0.050  10.095 -0.4343 -0.1966  0.3919
57545SOL    HW184614   3.524   0.085  10.138 -1.4903 -2.0369  0.0981
57545SOL    HW284615   3.612  -0.038  10.131  2.1220  0.3048  1.1363
57546SOL     OW84616   7.126   2.601   3.687  0.4399  0.1183  0.0243
57546SOL    HW184617   7.116   2.684   3.733 -1.3541  0.3911 -0.7321
57546SOL    HW284618   7.150   2.626   3.597 -0.5923 -0.1223 -0.3356
57547SOL     OW84619   1.697   1.288  10.078  1.2350 -0.4085  0.6422
57547SOL    HW184620   1.613   1.310  10.038  1.2869 -0.9836  0.2013
57547SOL    HW284621   1.735   1.373  10.101  1.9791  0.1441 -2.1425
57548SOL     OW84622  10.792  12.571  12.165 -0.1660  0.1814  0.0651
57548SOL    HW184623  10.809  12.537  12.253  0.4500  0.3484  0.0099
57548SOL    HW284624  10.748  12.499  12.120 -0.6759  0.1615  0.5669
57549SOL     OW84625   1.933   3.488  12.403 -0.3761 -0.6529  0.0192
57549SOL    HW184626   1.852   3.495  12.353 -1.2546  1.0295  1.5683
57549SOL    HW284627   1.905   3.465  12.492  0.6757  1.4324  0.9588
57550SOL     OW84628   0.447   7.821   3.873  1.1376  0.5399  0.5867
57550SOL    HW184629   0.493   7.745   3.907  0.4902  0.3961  1.1568
57550SOL    HW284630   0.502   7.852   3.801  1.8097  0.0141  0.8632
57551SOL     OW84631  11.668  14.044   7.869 -0.3319 -0.7689 -0.0283
57551SOL    HW184632  11.588  14.097   7.873 -0.4021 -0.6066 -2.2408
57551SOL    HW284633  11.650  13.978   7.802  2.0532  0.5757 -2.1822
57552SOL     OW84634  11.257   8.426   4.148  0.1546 -0.2010  0.2698
57552SOL    HW184635  11.163   8.417   4.158  0.1381  0.8856  1.2698
57552SOL    HW284636  11.279   8.509   4.191  1.2390  0.8282 -2.0966
57553SOL     OW84637   2.378   3.992  12.659  1.1944 -0.2754  0.4301
57553SOL    HW184638   2.293   3.986  12.616  0.0504  1.6003  2.2884
57553SOL    HW284639   2.359   3.988  12.753  3.1007  0.5830  0.9191
57554SOL     OW84640   0.464  10.816   2.697 -0.2755  0.0373  0.7987
57554SOL    HW184641   0.460  10.878   2.624 -1.3277 -0.7254  0.1805
57554SOL    HW284642   0.526  10.855   2.759  0.5164  0.7852 -0.4232
57555SOL     OW84643  10.465   0.204   7.946  0.3561 -0.8678 -0.2346
57555SOL    HW184644  10.448   0.297   7.930 -1.6997 -1.4748 -2.1850
57555SOL    HW284645  10.557   0.192   7.922  0.5520  0.6111 -0.3008
57556SOL     OW84646  11.513   0.773   5.254 -0.0313  0.7363  0.2197
57556SOL    HW184647  11.537   0.773   5.347 -1.3935 -0.3590  0.6190
57556SOL    HW284648  11.580   0.827   5.212  0.6635  1.2052  1.8188
57557SOL     OW84649   7.850   8.496  11.968  0.1063 -0.3357  0.2543
57557SOL    HW184650   7.840   8.415  12.018 -1.4282  0.4453  1.2668
57557SOL    HW284651   7.767   8.508  11.923 -0.4903  1.6883  1.7316
57558SOL     OW84652   5.543   9.474  13.389 -0.3800 -0.1698 -0.0848
57558SOL    HW184653   5.638   9.465  13.397 -0.2595  1.0977  0.1258
57558SOL    HW284654   5.511   9.484  13.478 -0.4967  1.1487 -0.2544
57559SOL     OW84655   5.984   4.026  12.741 -0.2412  0.0304  0.1232
57559SOL    HW184656   5.896   4.060  12.756 -0.5073 -0.3853 -0.4837
57559SOL    HW284657   5.996   3.959  12.809 -0.8071 -0.6598 -0.4399
57560SOL     OW84658   1.357   6.710   1.260  0.3445  0.1455  0.4121
57560SOL    HW184659   1.332   6.728   1.169 -2.9769 -0.8232  1.0223
57560SOL    HW284660   1.402   6.626   1.256 -1.8982 -1.1108 -0.1545
57561SOL     OW84661   2.457  11.150  12.994  0.1919  0.7076  0.0750
57561SOL    HW184662   2.389  11.104  12.944  2.0210  0.3210 -2.2550
57561SOL    HW284663   2.540  11.117  12.958  1.7435  0.2179  3.6395
57562SOL     OW84664   9.151   2.877  12.324  0.6164 -0.0277  0.2467
57562SOL    HW184665   9.146   2.839  12.236 -0.1613  0.0081  0.2738
57562SOL    HW284666   9.174   2.803  12.381  1.4410  0.0096 -0.0242
57563SOL     OW84667   9.793   0.182   0.017  0.3432  0.3332 -0.2783
57563SOL    HW184668   9.827   0.217   0.099  0.6878 -2.4063  0.8368
57563SOL    HW284669   9.796   0.087   0.027  0.3395 -0.1404 -3.4521
57564SOL     OW84670   2.270   9.892   8.697  0.5792 -0.0387  0.0686
57564SOL    HW184671   2.220   9.958   8.744  3.6150  2.7442 -0.2520
57564SOL    HW284672   2.254   9.911   8.605 -0.5458 -1.4843 -0.0558
57565SOL     OW84673   7.847   8.260  13.644  0.0044 -0.2253 -0.2720
57565SOL    HW184674   7.890   8.313  13.577 -2.2809 -0.2329 -1.8602
57565SOL    HW284675   7.801   8.323  13.699 -0.1964 -0.3708 -0.2721
57566SOL     OW84676   8.484   3.824  11.351 -0.2874  0.7062 -0.4983
57566SOL    HW184677   8.452   3.738  11.379  0.1177  1.0250  1.0656
57566SOL    HW284678   8.405   3.878  11.345 -0.3838  0.6539  0.1887
57567SOL     OW84679   9.780   5.118   0.955 -0.1649 -0.1678 -0.3766
57567SOL    HW184680   9.727   5.038   0.957  0.4322 -0.6520 -2.1621
57567SOL    HW284681   9.747   5.167   0.879  3.7015 -1.8617 -3.5150
57568SOL     OW84682   3.715   4.645   6.310  0.1201  0.5903  0.0918
57568SOL    HW184683   3.761   4.568   6.274 -0.8073 -0.2947  0.7523
57568SOL    HW284684   3.704   4.624   6.403  0.8237  2.0252  0.5266
57569SOL     OW84685   2.923   6.969   0.401  0.3135 -0.3837 -0.7284
57569SOL    HW184686   2.920   7.064   0.410  1.3464 -0.4987  1.5487
57569SOL    HW284687   3.017   6.948   0.395  0.1151 -1.2824 -0.9218
57570SOL     OW84688   9.621   2.227  10.533  0.1726 -0.3590 -0.9771
57570SOL    HW184689   9.554   2.293  10.548 -1.4939 -1.3517 -3.3591
57570SOL    HW284690   9.637   2.230  10.438  1.2546 -2.2123 -0.9174
57571SOL     OW84691   4.690   1.032   6.891 -0.2931 -0.1049  0.2107
57571SOL    HW184692   4.632   0.975   6.941  1.0446 -1.4700  0.2780
57571SOL    HW284693   4.711   0.982   6.812  0.8241  0.3279  0.2159
57572SOL     OW84694   2.365  12.892   2.983  0.3152  0.0333  0.4175
57572SOL    HW184695   2.361  12.967   3.042 -1.5483 -0.4498  0.9729
57572SOL    HW284696   2.299  12.911   2.917  0.3721 -0.7775  0.1219
57573SOL     OW84697   2.293  12.849   5.119  0.0668  0.4050 -0.0426
57573SOL    HW184698   2.209  12.803   5.111 -0.1138  0.7804 -0.3090
57573SOL    HW284699   2.345  12.792   5.176 -0.8651  0.8878  1.3411
57574SOL     OW84700  10.174   2.090   3.838  0.2442 -0.4197  0.1228
57574SOL    HW184701  10.249   2.031   3.830  2.1430  1.9075 -0.0953
57574SOL    HW284702  10.172   2.113   3.931 -0.2047 -0.4605  0.1244
57575SOL     OW84703   8.318  13.949   4.196  0.4346  0.2676  0.2624
57575SOL    HW184704   8.251  14.001   4.152 -0.7494 -1.3372  0.0716
57575SOL    HW284705   8.371  14.012   4.244 -2.0204  1.4993  1.5090
57576SOL     OW84706   8.954   2.917  10.450  0.5104 -0.0093 -0.5655
57576SOL    HW184707   8.905   2.993  10.417 -0.9695 -1.1277 -1.0691
57576SOL    HW284708   8.901   2.841  10.425  2.2105 -1.2707 -0.5599
57577SOL     OW84709   4.444  11.177   3.097 -0.2270  0.8070 -0.3247
57577SOL    HW184710   4.510  11.246   3.107 -0.6158  1.3349 -1.2358
57577SOL    HW284711   4.490  11.097   3.123  0.7736  1.1650 -0.9007
57578SOL     OW84712   9.617   8.556  10.543  0.1180 -0.2340 -0.3187
57578SOL    HW184713   9.563   8.544  10.621  0.0599  0.3588 -0.2673
57578SOL    HW284714   9.622   8.469  10.504 -0.7234 -0.3250 -0.2238
57579SOL     OW84715   8.770   2.717  10.997  0.2996 -0.5012  0.0187
57579SOL    HW184716   8.714   2.774  10.945  1.9298  0.3561 -0.8445
57579SOL    HW284717   8.726   2.711  11.082 -1.1330  0.0552 -0.6585
57580SOL     OW84718   6.932   2.460   7.266  0.0226  0.7150 -0.3923
57580SOL    HW184719   6.870   2.394   7.297  0.4592 -0.3344 -1.6664
57580SOL    HW284720   6.891   2.543   7.289 -0.7121  0.0293  0.9225
57581SOL     OW84721   4.889   5.239  11.464  0.2062  0.0343  0.1208
57581SOL    HW184722   4.955   5.248  11.532  1.3217 -0.2550 -0.8857
57581SOL    HW284723   4.841   5.321  11.466  0.1651 -0.0057  1.2968
57582SOL     OW84724  13.545   4.413   7.654 -0.0957  0.4715 -0.4349
57582SOL    HW184725  13.624   4.364   7.676  0.0773  0.4482 -1.1026
57582SOL    HW284726  13.507   4.366   7.579 -1.6646 -0.5241  0.9099
57583SOL     OW84727   6.129   6.830   3.395  0.8395  0.1441  0.3608
57583SOL    HW184728   6.037   6.852   3.380  0.1972 -0.8550  2.3660
57583SOL    HW284729   6.161   6.798   3.311 -0.5049  0.9631 -0.4851
57584SOL     OW84730  13.479   7.348   1.897 -0.2185 -0.2386  0.2209
57584SOL    HW184731  13.456   7.345   1.804 -1.4225 -0.6437  0.5119
57584SOL    HW284732  13.455   7.436   1.926 -2.4559 -0.9580  0.7463
57585SOL     OW84733  12.132   1.278  12.293  0.0021  0.1283 -0.0230
57585SOL    HW184734  12.132   1.275  12.197 -1.5056 -1.0013 -0.0299
57585SOL    HW284735  12.056   1.332  12.315  0.0708  0.0088  0.5243
57586SOL     OW84736  11.496  11.092  11.285  0.2042 -0.2516 -0.4321
57586SOL    HW184737  11.439  11.161  11.251  0.4366 -0.0039 -0.3226
57586SOL    HW284738  11.585  11.127  11.274  0.2602  0.3344  1.4794
57587SOL     OW84739   1.949  12.468   6.856 -0.2663 -0.2239  0.0977
57587SOL    HW184740   2.041  12.491   6.841 -0.2220 -1.0666 -1.0303
57587SOL    HW284741   1.900  12.543   6.820 -0.0393 -0.1464 -0.0551
57588SOL     OW84742   6.472  12.822   9.106  0.1440  0.0256  0.3657
57588SOL    HW184743   6.519  12.835   9.024  2.2679  2.6205  1.8361
57588SOL    HW284744   6.407  12.893   9.108  1.0344  0.8531  1.4677
57589SOL     OW84745  12.721   7.602   6.627  0.3118 -0.0197  0.1187
57589SOL    HW184746  12.697   7.691   6.652  1.6673  0.5730 -0.5843
57589SOL    HW284747  12.779   7.572   6.697  0.4424 -0.0817 -0.0155
57590SOL     OW84748   9.702   2.146  12.563  0.0485  0.4223  0.0448
57590SOL    HW184749   9.647   2.068  12.557 -0.9292  1.0364  0.7187
57590SOL    HW284750   9.774   2.120  12.621  0.5634 -0.4334 -0.9528
57591SOL     OW84751   2.306   3.489  12.116 -0.5295  0.3091 -0.4662
57591SOL    HW184752   2.237   3.426  12.133 -0.9903  1.0856  0.6723
57591SOL    HW284753   2.315   3.490  12.021 -0.1620 -1.8085 -0.5107
57592SOL     OW84754  10.098   0.443   0.931  0.5481 -0.2894 -0.3970
57592SOL    HW184755  10.015   0.477   0.896  0.5353  0.2733  0.1547
57592SOL    HW284756  10.078   0.420   1.022  1.3505  1.3106  0.2242
57593SOL     OW84757   4.097   6.641  10.731  0.1643  0.0718  0.1619
57593SOL    HW184758   4.077   6.666  10.641  2.1857 -0.2118 -0.4108
57593SOL    HW284759   4.100   6.545  10.728 -2.1058 -0.1016  1.1165
57594SOL     OW84760  12.900   8.648   3.128  0.3124 -0.3511 -0.1176
57594SOL    HW184761  12.847   8.671   3.204  0.7811  0.9606 -0.1693
57594SOL    HW284762  12.845   8.670   3.052  0.5522  0.0886 -0.1652
57595SOL     OW84763   6.668   5.492   8.108  0.4352  0.2665  0.6812
57595SOL    HW184764   6.755   5.518   8.138 -0.4761  1.7403  2.2731
57595SOL    HW284765   6.653   5.543   8.028  1.9283 -1.8576 -1.0741
57596SOL     OW84766   0.995   9.205   8.252 -0.0333  0.4524  0.1718
57596SOL    HW184767   0.907   9.177   8.276  0.0608  0.4365  0.4994
57596SOL    HW284768   1.024   9.141   8.187 -0.2106  0.3811  0.1635
57597SOL     OW84769  12.930  13.128   4.563  0.0325  0.3359  0.1700
57597SOL    HW184770  13.004  13.071   4.540 -0.4810 -1.2342  2.1820
57597SOL    HW284771  12.854  13.087   4.521 -0.2053  0.0168  0.9024
57598SOL     OW84772  11.775   0.606   2.318  0.1468 -0.0934  0.2620
57598SOL    HW184773  11.847   0.551   2.349 -0.3865 -0.3422  1.0887
57598SOL    HW284774  11.775   0.595   2.223  1.6577  0.4857  0.1671
57599SOL     OW84775   0.189  10.298   4.228  0.5043 -0.1378 -0.4574
57599SOL    HW184776   0.150  10.222   4.185 -0.3293  0.4844 -0.8306
57599SOL    HW284777   0.187  10.367   4.162 -1.6976  1.1190  0.8110
57600SOL     OW84778   6.603   6.049   6.434 -0.1303 -0.5413 -0.1676
57600SOL    HW184779   6.640   5.960   6.431  1.9133  0.2714 -1.8511
57600SOL    HW284780   6.531   6.046   6.371  2.4461 -0.1475 -3.4900
57601SOL     OW84781   1.598   9.122  12.882  0.0001  0.5190  0.3710
57601SOL    HW184782   1.528   9.058  12.898 -0.3234  0.8508  0.2904
57601SOL    HW284783   1.670   9.070  12.847 -0.9147  0.4363 -1.5132
57602SOL     OW84784  10.788   3.579  13.305  0.1904  0.0058 -0.2139
57602SOL    HW184785  10.786   3.578  13.400  4.3445 -0.4714  0.0530
57602SOL    HW284786  10.728   3.649  13.280  1.2888  2.3172  2.9596
57603SOL     OW84787   2.176   5.559  10.184 -0.3879  0.2084  0.1706
57603SOL    HW184788   2.182   5.582  10.277  0.5911  1.5283 -0.1725
57603SOL    HW284789   2.265   5.575  10.150 -0.2014 -2.0989 -0.6200
57604SOL     OW84790   7.859   3.911  12.021  0.3234  0.3312  0.1568
57604SOL    HW184791   7.878   3.903  12.114  3.3571  1.3031 -0.2752
57604SOL    HW284792   7.874   3.824  11.985 -0.6353  0.0082  0.5044
57605SOL     OW84793   1.923   3.018  12.751  0.4793  0.3405  0.6109
57605SOL    HW184794   1.943   3.066  12.671 -0.6318  0.5343  0.4300
57605SOL    HW284795   2.004   2.971  12.772  1.4402  1.9172  0.5427
57606SOL     OW84796   9.654   5.235   6.833 -0.0987 -0.3713  0.3819
57606SOL    HW184797   9.568   5.198   6.814 -0.0338 -0.9287  1.1350
57606SOL    HW284798   9.655   5.319   6.787 -1.7146  0.4630  1.7757
57607SOL     OW84799  12.140   7.242  13.465 -0.4356 -0.0457 -0.0540
57607SOL    HW184800  12.127   7.154  13.499 -0.9550 -0.0110 -0.1593
57607SOL    HW284801  12.236   7.251  13.456 -0.3154 -0.1713  1.0499
57608SOL     OW84802   7.522  10.560   0.563 -0.3311  0.2079  0.1678
57608SOL    HW184803   7.546  10.629   0.501 -2.5466 -0.3568 -1.4569
57608SOL    HW284804   7.431  10.579   0.586 -0.3229 -0.9953  1.3066
57609SOL     OW84805   3.249  13.082   2.097 -0.4783 -0.3910 -0.1942
57609SOL    HW184806   3.285  13.033   2.023  2.2322  1.1874 -0.0259
57609SOL    HW284807   3.254  13.174   2.070 -4.2955  0.0217 -0.0165
57610SOL     OW84808   0.044  13.410   2.124  0.5370  0.1872  0.2019
57610SOL    HW184809   0.053  13.370   2.210 -1.8376 -0.9269  0.0341
57610SOL    HW284810  -0.038  13.460   2.130  0.2851  0.0203 -1.4003
57611SOL     OW84811   8.264  13.264   0.877 -0.4567 -0.2067  0.0276
57611SOL    HW184812   8.301  13.178   0.895 -1.1190 -0.2576  1.2682
57611SOL    HW284813   8.289  13.282   0.786 -0.5145 -1.8104 -0.3494
57612SOL     OW84814  11.258  10.017   1.019  0.0565  0.1260 -0.7468
57612SOL    HW184815  11.169   9.984   1.023  0.4666 -0.9496  0.3537
57612SOL    HW284816  11.305   9.956   0.963  0.0939  0.7377 -1.3958
57613SOL     OW84817   8.810   3.712  10.623  0.7942 -0.7584 -0.0933
57613SOL    HW184818   8.854   3.629  10.604  1.2621 -0.5179 -0.0672
57613SOL    HW284819   8.880   3.776  10.627  0.4267 -0.3497 -0.1571
57614SOL     OW84820   2.898   6.343   3.105 -0.2296  0.0149 -0.4787
57614SOL    HW184821   2.955   6.401   3.054  0.6556 -1.1328 -0.8477
57614SOL    HW284822   2.810   6.358   3.070  0.2145 -0.0027 -1.6723
57615SOL     OW84823  10.371   8.750   8.267 -0.1873  0.4236 -0.1824
57615SOL    HW184824  10.376   8.654   8.263  0.5938  0.3231  1.8819
57615SOL    HW284825  10.437   8.775   8.331 -2.0282  2.1311  1.1998
57616SOL     OW84826   7.578  11.656  12.678  0.3622  0.2631 -0.4320
57616SOL    HW184827   7.484  11.667  12.688  0.5343  1.5079 -0.0652
57616SOL    HW284828   7.587  11.573  12.630 -0.8139 -1.4373  2.0337
57617SOL     OW84829  11.366  11.947   3.070  0.0846  0.9665 -0.3435
57617SOL    HW184830  11.409  12.029   3.046  0.9554  0.1495 -1.7214
57617SOL    HW284831  11.434  11.881   3.057 -1.1693 -0.2037 -1.1399
57618SOL     OW84832  13.102   3.808  13.917 -0.1582 -0.1567  0.0777
57618SOL    HW184833  13.166   3.864  13.875  0.1437 -0.2508  0.4095
57618SOL    HW284834  13.107   3.725  13.869  0.4266 -0.3761  0.5156
57619SOL     OW84835   3.875  11.883  11.265  0.1654 -0.0733  0.1506
57619SOL    HW184836   3.817  11.869  11.191 -1.2936 -1.7615  1.5457
57619SOL    HW284837   3.957  11.840  11.240  0.0730  0.3372 -0.9030
57620SOL     OW84838  12.672  12.190  10.848  0.1925  0.5408 -0.2007
57620SOL    HW184839  12.713  12.217  10.766  1.3225 -0.3298  0.0534
57620SOL    HW284840  12.614  12.118  10.823 -0.1712  0.8905 -0.3676
57621SOL     OW84841   1.801   9.054   7.195 -0.0398  0.5736  0.3103
57621SOL    HW184842   1.726   9.104   7.163 -0.0925  0.7347  0.6752
57621SOL    HW284843   1.842   9.112   7.259 -0.3318 -0.0014  1.0382
57622SOL     OW84844  10.881   3.271   6.181 -0.5744  0.0206  0.0954
57622SOL    HW184845  10.884   3.259   6.087  0.1246 -0.9322  0.2292
57622SOL    HW284846  10.972   3.266   6.209 -0.8629 -0.7821  0.9407
57623SOL     OW84847   9.998   6.500  13.348  0.5903 -0.5857  0.2342
57623SOL    HW184848  10.086   6.485  13.314  0.6007 -0.2451  0.1054
57623SOL    HW284849   9.997   6.455  13.433  0.7829 -0.8605  0.0941
57624SOL     OW84850   6.895   6.026   7.723 -0.5176 -0.2015 -0.0728
57624SOL    HW184851   6.941   6.009   7.641 -1.4453  1.0558 -0.8992
57624SOL    HW284852   6.953   6.085   7.772 -0.3439 -0.2694 -0.1979
57625SOL     OW84853   8.253   5.643   3.812 -0.2466 -0.4213 -0.2064
57625SOL    HW184854   8.229   5.725   3.770 -0.3123 -0.9043 -1.1494
57625SOL    HW284855   8.345   5.630   3.789 -0.8866 -1.8590 -2.2874
57626SOL     OW84856  12.076  12.619   7.888  0.4045  0.0289  0.1479
57626SOL    HW184857  12.017  12.652   7.957  0.5001  2.3935 -0.7987
57626SOL    HW284858  12.017  12.587   7.820  0.1789  1.7173 -0.4864
57627SOL     OW84859   6.012   2.223   6.682 -0.0063  0.5736 -0.3807
57627SOL    HW184860   5.920   2.246   6.684  0.1164  1.0354  0.5054
57627SOL    HW284861   6.053   2.290   6.627 -0.3544 -0.2985 -1.7500
57628SOL     OW84862   5.423   4.857   7.497 -0.1540 -0.1893  0.1036
57628SOL    HW184863   5.381   4.817   7.573  1.2961  0.0914  1.0949
57628SOL    HW284864   5.409   4.951   7.508  0.3857 -0.1232  0.2180
57629SOL     OW84865  13.663  11.715   8.164 -0.0870  0.2912  0.4732
57629SOL    HW184866  13.745  11.665   8.169  1.1307  2.1592  0.3820
57629SOL    HW284867  13.689  11.798   8.125 -2.1555  0.7582 -0.0109
57630SOL     OW84868   2.682  11.677  12.840  0.0324 -0.1650 -1.0358
57630SOL    HW184869   2.602  11.650  12.794 -1.1161  0.0357  0.7370
57630SOL    HW284870   2.650  11.732  12.911  1.7927  0.1219 -0.4376
57631SOL     OW84871   9.886  10.680   5.547 -0.0422 -0.5357  0.2650
57631SOL    HW184872   9.796  10.688   5.514  0.3554  0.1395 -0.7267
57631SOL    HW284873   9.916  10.596   5.513 -0.2059 -0.6275  0.3476
57632SOL     OW84874   3.349   0.590   3.806  0.8800 -0.3150 -0.0434
57632SOL    HW184875   3.419   0.652   3.783  2.3988 -1.2557  1.7145
57632SOL    HW284876   3.338   0.602   3.900 -2.2374  0.6148 -0.4343
57633SOL     OW84877   0.943   5.965   2.071 -0.4631  0.6378 -0.1805
57633SOL    HW184878   0.874   5.898   2.077  0.1197  0.1299  1.3701
57633SOL    HW284879   0.999   5.935   1.999 -0.3732 -0.4021  0.3056
57634SOL     OW84880   7.265  13.379   3.327 -0.1262 -0.4160  0.1977
57634SOL    HW184881   7.277  13.471   3.304 -1.0479  0.0998  1.6507
57634SOL    HW284882   7.308  13.331   3.256  1.6931  1.1327  0.1565
57635SOL     OW84883   4.806   1.883   7.663 -0.7301  0.3214 -0.3108
57635SOL    HW184884   4.833   1.791   7.656  1.4910  0.7931  1.1819
57635SOL    HW284885   4.804   1.914   7.572  0.3223 -0.7151 -0.7141
57636SOL     OW84886   0.324   5.261  11.259 -0.0875  0.2954  0.4427
57636SOL    HW184887   0.295   5.264  11.168  0.0060 -0.2482  0.3881
57636SOL    HW284888   0.360   5.348  11.276 -0.0474  0.3793 -0.0616
57637SOL     OW84889   7.583   6.801   0.014  0.4308 -0.0802 -0.6634
57637SOL    HW184890   7.632   6.864   0.066 -0.4622 -0.6578  0.9215
57637SOL    HW284891   7.513   6.853  -0.026  0.8590  0.2819 -0.9555
57638SOL     OW84892   0.804   0.753   4.561 -0.4616 -0.3124 -0.7913
57638SOL    HW184893   0.869   0.785   4.624 -0.9126 -0.9992  0.0459
57638SOL    HW284894   0.828   0.795   4.479  0.3950  0.2834 -0.2571
57639SOL     OW84895   5.926   2.337   4.308  0.0506  0.2844 -0.8227
57639SOL    HW184896   5.949   2.304   4.395  0.1482  0.7519 -0.6665
57639SOL    HW284897   5.844   2.385   4.321  0.6293  1.2913 -0.7661
57640SOL     OW84898   0.062   4.443   1.251 -0.1462 -0.1987  0.4547
57640SOL    HW184899   0.130   4.375   1.252  0.4859  0.4312  1.2454
57640SOL    HW284900  -0.019   4.395   1.265  0.4444 -0.6597  2.5641
57641SOL     OW84901   6.384   9.553   6.544  0.4682 -0.2532  0.0870
57641SOL    HW184902   6.477   9.544   6.527  0.4493 -0.5014  0.1133
57641SOL    HW284903   6.342   9.490   6.485  0.3120 -0.0950  0.0256
57642SOL     OW84904   3.823   9.065  13.379 -0.4766 -0.0291 -0.2828
57642SOL    HW184905   3.752   9.009  13.411  0.0561  0.1453  1.2965
57642SOL    HW284906   3.782   9.119  13.311 -1.1867 -1.7882 -1.3204
57643SOL     OW84907   8.232   6.091   3.063  0.0460 -0.7497  0.2032
57643SOL    HW184908   8.153   6.143   3.073  0.4314 -0.0648 -0.2436
57643SOL    HW284909   8.225   6.024   3.131 -1.6494 -1.6602 -0.7952
57644SOL     OW84910   9.982   9.710  12.026 -0.3578 -0.1896  0.5338
57644SOL    HW184911   9.997   9.666  11.942 -0.8852  0.0403  0.3106
57644SOL    HW284912   9.910   9.770  12.009  0.1442  0.5360  0.9222
57645SOL     OW84913   9.586  13.691   6.990 -0.1034 -0.6043  0.0331
57645SOL    HW184914   9.526  13.740   7.046  1.4677  1.1643  0.2859
57645SOL    HW284915   9.673  13.722   7.015  0.8123 -1.7478 -1.5322
57646SOL     OW84916  10.786   3.062  14.024  0.5666  0.1859 -0.2099
57646SOL    HW184917  10.719   3.018  13.973 -0.6474  2.2665 -0.5051
57646SOL    HW284918  10.773   3.155  14.007  2.1673  0.7784  1.4023
57647SOL     OW84919  12.400   9.826   6.151  0.2995 -0.2586 -0.1790
57647SOL    HW184920  12.347   9.761   6.104 -1.3812 -0.0713  1.3241
57647SOL    HW284921  12.467   9.775   6.196  2.1119 -0.4234 -2.8339
57648SOL     OW84922   1.296  13.950  10.043  0.5603  0.1621  0.3570
57648SOL    HW184923   1.276  14.028  10.096  0.5714 -0.5376  1.4181
57648SOL    HW284924   1.328  13.886  10.107  0.7381 -0.6477 -0.5359
57649SOL     OW84925  12.877   5.459   0.269 -0.5343  0.4668  0.2752
57649SOL    HW184926  12.965   5.430   0.293 -1.0993 -0.7942  0.9197
57649SOL    HW284927  12.824   5.440   0.346 -1.3162  1.5549  0.0245
57650SOL     OW84928  11.413  14.037   2.670  0.4489 -0.1521 -0.3368
57650SOL    HW184929  11.474  14.100   2.707 -0.6903  1.6868 -1.4224
57650SOL    HW284930  11.331  14.087   2.660  0.2303 -1.0042 -3.7132
57651SOL     OW84931   9.282   4.845   4.840  0.2038 -0.1688 -0.1826
57651SOL    HW184932   9.236   4.905   4.782  1.3023  1.0699  0.1739
57651SOL    HW284933   9.240   4.760   4.826 -1.2505  0.6308 -0.8566
57652SOL     OW84934  10.998  13.928   8.148  0.1359 -0.2529  0.9756
57652SOL    HW184935  11.037  13.987   8.084 -0.6393  0.0876  0.7972
57652SOL    HW284936  10.914  13.969   8.170 -0.3448 -1.1968  0.9698
57653SOL     OW84937   7.477   5.196   2.919 -0.4111  0.0094 -0.0578
57653SOL    HW184938   7.432   5.210   3.002  1.1958 -3.0310  1.4887
57653SOL    HW284939   7.447   5.111   2.889  0.4693  0.2045 -1.6037
57654SOL     OW84940  13.905   8.827  10.719  0.3822 -0.0744  0.3389
57654SOL    HW184941  13.996   8.798  10.711  0.4719 -0.2594  1.7294
57654SOL    HW284942  13.907   8.891  10.790 -0.2607  1.3964 -0.9262
57655SOL     OW84943  11.227   7.945   6.821  0.1421 -0.4025  0.2037
57655SOL    HW184944  11.239   8.028   6.775  2.1536 -0.3902  0.6732
57655SOL    HW284945  11.312   7.926   6.859 -0.3589 -2.5446  0.3764
57656SOL     OW84946   2.428   6.262  12.594 -0.0409 -0.2834 -0.0708
57656SOL    HW184947   2.427   6.355  12.572 -0.6595 -0.0178  0.9971
57656SOL    HW284948   2.371   6.255  12.671  2.0455 -1.1190  1.5030
57657SOL     OW84949   5.842   9.718  13.419 -0.0454  0.2273  0.0031
57657SOL    HW184950   5.920   9.772  13.408  0.2872 -0.0841  0.7679
57657SOL    HW284951   5.816   9.732  13.511 -0.2483 -0.5163  0.0662
57658SOL     OW84952  11.856   5.396   7.101 -0.0702  0.6210  0.2816
57658SOL    HW184953  11.870   5.334   7.028 -0.5288  0.5792  0.2235
57658SOL    HW284954  11.943   5.425   7.125  0.0789  0.7486 -0.3923
57659SOL     OW84955  11.339  11.223   4.870 -0.1643 -0.0782  0.3542
57659SOL    HW184956  11.433  11.240   4.868 -0.5121  2.2198 -0.0986
57659SOL    HW284957  11.302  11.303   4.908 -1.8108 -1.6998  2.3694
57660SOL     OW84958  10.134   4.391   1.337 -0.8383  0.0227 -0.4688
57660SOL    HW184959  10.168   4.408   1.424 -1.2805 -0.7271 -0.1391
57660SOL    HW284960  10.187   4.318   1.304 -1.8676 -0.9331 -0.0808
57661SOL     OW84961   1.826   4.177  12.490  0.2893 -0.3997  0.0547
57661SOL    HW184962   1.732   4.197  12.485  0.5870  0.8700 -0.9913
57661SOL    HW284963   1.854   4.165  12.400  1.4553  0.9281  0.2021
57662SOL     OW84964   1.317   9.969   5.252  0.1271 -0.9835  0.8171
57662SOL    HW184965   1.394  10.024   5.268  0.5687 -1.3952  0.1412
57662SOL    HW284966   1.245  10.019   5.290  0.6114 -0.2309  0.7813
57663SOL     OW84967   6.973  11.251  12.906  0.0780 -0.2426 -0.4102
57663SOL    HW184968   7.016  11.320  12.956  2.0391 -1.4987 -0.2536
57663SOL    HW284969   6.949  11.293  12.823  0.8211  0.7484 -0.1476
57664SOL     OW84970   0.717   6.777   0.359 -0.2455 -0.1766 -0.1418
57664SOL    HW184971   0.675   6.820   0.433 -1.2184 -0.7095 -0.3677
57664SOL    HW284972   0.747   6.849   0.303 -1.5721  0.2367 -0.3615
57665SOL     OW84973  10.262   9.445   6.282  0.2789  0.2824 -0.0364
57665SOL    HW184974  10.185   9.419   6.332  0.7221 -0.3834  0.3068
57665SOL    HW284975  10.315   9.366   6.275  0.9601  0.7425 -0.2264
57666SOL     OW84976   7.638   5.297   6.972  0.3358  0.0731  0.2474
57666SOL    HW184977   7.714   5.353   6.985 -0.8544  1.8408 -0.1484
57666SOL    HW284978   7.673   5.220   6.927  1.6795  1.4963 -1.2940
57667SOL     OW84979   5.651   5.588   0.002 -0.3090 -0.3152 -0.4460
57667SOL    HW184980   5.666   5.544   0.086 -0.2026 -0.2110 -0.4107
57667SOL    HW284981   5.556   5.580  -0.012 -0.4323  0.3000  0.0349
57668SOL     OW84982   9.472  13.876   2.896 -0.1401  0.1348  0.0662
57668SOL    HW184983   9.481  13.784   2.873  0.0409  0.5811 -1.8058
57668SOL    HW284984   9.495  13.923   2.816 -0.7316  1.8003  0.8288
57669SOL     OW84985   5.889   1.890   8.694 -0.5606  0.5792  0.3340
57669SOL    HW184986   5.965   1.834   8.683 -0.6287  0.3172  1.1457
57669SOL    HW284987   5.814   1.833   8.680 -0.6298  0.4567  1.1662
57670SOL     OW84988  11.622  11.706  13.753  0.4325  0.2163  0.3941
57670SOL    HW184989  11.617  11.782  13.811  0.8092  0.4615  0.1098
57670SOL    HW284990  11.716  11.690  13.744  0.4856  1.5199 -1.9025
57671SOL     OW84991   4.536   6.969   8.974 -0.0995 -0.0409 -0.1408
57671SOL    HW184992   4.461   6.967   9.033 -0.4079 -1.7132 -0.5291
57671SOL    HW284993   4.536   7.057   8.937 -1.8660 -0.0118 -0.1328
57672SOL     OW84994   1.773   4.775   5.227 -0.3025  0.2852 -0.0895
57672SOL    HW184995   1.749   4.862   5.258 -1.0902  0.4209 -1.0360
57672SOL    HW284996   1.726   4.715   5.285 -0.2438  0.5039  0.1833
57673SOL     OW84997  10.288   7.955   7.157  0.0031  0.1677 -0.1524
57673SOL    HW184998  10.300   8.026   7.094 -0.4660 -0.2545 -0.7280
57673SOL    HW284999  10.316   7.877   7.110 -1.3903 -0.3064 -0.2366
57674SOL     OW85000   2.400  12.022  10.260 -0.8494 -0.0204 -0.3444
57674SOL    HW185001   2.478  11.986  10.302 -0.7009  2.0740  1.3692
57674SOL    HW285002   2.383  11.964  10.186  1.9418 -0.9088 -0.3915
57675SOL     OW85003  11.410   5.400   9.256  0.2735  0.2995  0.7873
57675SOL    HW185004  11.432   5.436   9.170  1.7165 -0.6174  0.7266
57675SOL    HW285005  11.450   5.460   9.319 -0.6522  0.8870  0.8382
57676SOL     OW85006   2.440   4.901   7.858  0.4803  0.4527  0.3206
57676SOL    HW185007   2.399   4.817   7.839  5.4959 -1.9931 -1.4228
57676SOL    HW285008   2.415   4.920   7.949 -1.1349 -2.7280  0.6758
57677SOL     OW85009   0.147  14.003   2.301 -0.2080 -0.4387  0.5848
57677SOL    HW185010   0.113  14.056   2.373  2.4157  2.1044  0.1105
57677SOL    HW285011   0.096  14.031   2.225 -0.7493 -0.6883  0.8538
57678SOL     OW85012  13.473   2.075   1.148  0.0198 -0.4570 -0.4246
57678SOL    HW185013  13.539   2.024   1.100 -1.0077 -1.9149 -0.3606
57678SOL    HW285014  13.499   2.066   1.240 -0.1320 -0.8600 -0.4169
57679SOL     OW85015  10.338   2.834   4.608  0.3191 -0.1536  0.0203
57679SOL    HW185016  10.277   2.865   4.674  0.8688  0.4241  0.2724
57679SOL    HW285017  10.423   2.869   4.635  0.7241 -0.7442 -0.4484
57680SOL     OW85018  13.362   3.098  12.470  0.1029 -0.2037 -0.2118
57680SOL    HW185019  13.379   3.066  12.559 -1.1878  0.9856  0.5100
57680SOL    HW285020  13.268   3.086  12.458  0.0478  0.8302 -0.9153
57681SOL     OW85021   1.897   7.605   6.306 -0.1971 -0.4932 -0.3640
57681SOL    HW185022   1.860   7.527   6.264  0.3417 -1.3679  0.7368
57681SOL    HW285023   1.947   7.648   6.237 -0.8124 -0.9077 -1.0874
57682SOL     OW85024  12.803   1.867   1.051 -0.1632  0.5175 -0.4117
57682SOL    HW185025  12.811   1.846   1.144 -0.9084  0.0661 -0.4361
57682SOL    HW285026  12.886   1.908   1.028  0.0107  0.6766  0.4635
57683SOL     OW85027  13.757   7.287   3.348 -0.3401  0.7226 -0.6309
57683SOL    HW185028  13.840   7.333   3.364 -0.1511  0.4788 -0.8973
57683SOL    HW285029  13.708   7.346   3.290 -0.3055  0.8162 -0.5647
57684SOL     OW85030   9.079   8.888  10.734 -0.6112 -0.0711  0.2671
57684SOL    HW185031   8.984   8.895  10.720 -0.9000 -1.5629  1.2332
57684SOL    HW285032   9.098   8.795  10.718  0.5744  0.0838  0.7031
57685SOL     OW85033   5.200   3.061  13.894  0.5026  0.0658  0.2872
57685SOL    HW185034   5.115   3.095  13.924  0.6593  0.7582 -0.0330
57685SOL    HW285035   5.235   3.016  13.971  0.0841  0.2440  0.5907
57686SOL     OW85036  13.207  12.147   3.279  0.4565  0.0727  0.5184
57686SOL    HW185037  13.121  12.188   3.274  0.9498  1.1244  0.3674
57686SOL    HW285038  13.195  12.061   3.240 -0.4878  0.2637  0.3604
57687SOL     OW85039  13.750   6.122  10.694 -0.3719  0.2518 -0.1139
57687SOL    HW185040  13.688   6.058  10.728 -0.0516 -0.0967 -0.1747
57687SOL    HW285041  13.773   6.176  10.769  1.2485 -1.2536  0.5548
57688SOL     OW85042   6.244   4.186  11.925 -0.7846  0.3600  0.3342
57688SOL    HW185043   6.248   4.245  11.850 -0.7013  0.0586  0.1029
57688SOL    HW285044   6.334   4.160  11.940 -0.7134  0.9261  0.9444
57689SOL     OW85045   7.963   0.189   2.695 -0.2311 -0.2936  0.4858
57689SOL    HW185046   7.904   0.114   2.700 -0.3905 -0.1503  0.8009
57689SOL    HW285047   7.961   0.215   2.603  0.3149 -1.0594  0.2533
57690SOL     OW85048   5.149   4.175   9.739 -0.1596 -0.7683 -0.6254
57690SOL    HW185049   5.151   4.080   9.728 -0.5328 -0.8074 -0.3656
57690SOL    HW285050   5.241   4.201   9.733  0.0127 -1.2211 -0.0723
57691SOL     OW85051  12.270  10.069   4.972  0.2854 -0.0902  0.6961
57691SOL    HW185052  12.274   9.981   5.012  0.7974 -1.0213 -1.3013
57691SOL    HW285053  12.253  10.053   4.879 -1.7104  2.0391  0.5885
57692SOL     OW85054   0.473   5.759   5.217 -0.4098 -0.3207 -0.1512
57692SOL    HW185055   0.481   5.849   5.184  0.0489  0.4776  1.9642
57692SOL    HW285056   0.557   5.719   5.195  0.8147  0.9225  1.9463
57693SOL     OW85057  11.841  12.725  12.185  0.0077 -0.3202  0.0189
57693SOL    HW185058  11.936  12.723  12.196  0.0476  0.4123 -0.1695
57693SOL    HW285059  11.807  12.714  12.274  0.2899  1.2438  0.3429
57694SOL     OW85060   3.148  12.906   6.611 -0.5458  0.1540 -0.1372
57694SOL    HW185061   3.056  12.897   6.635 -0.4680 -0.3356  0.0009
57694SOL    HW285062   3.176  12.990   6.647 -0.8026  0.0662  0.2602
57695SOL     OW85063  13.803   8.618   2.870  0.2450 -0.7586  0.1537
57695SOL    HW185064  13.856   8.620   2.791 -0.3341 -1.1965 -0.2478
57695SOL    HW285065  13.836   8.542   2.919  0.7116 -0.3941  0.4213
57696SOL     OW85066   4.819   7.127  12.831 -0.0716  0.3208 -0.1807
57696SOL    HW185067   4.805   7.076  12.911 -0.0336 -0.6183 -0.7504
57696SOL    HW285068   4.911   7.110  12.807 -0.1077  0.5201 -0.4688
57697SOL     OW85069   0.677   7.714   1.140  0.1876  0.1219 -0.0862
57697SOL    HW185070   0.769   7.721   1.115 -0.5484  2.8369 -2.5658
57697SOL    HW285071   0.662   7.620   1.151  3.1737 -0.4049  0.2035
57698SOL     OW85072  13.698   6.787   2.956 -0.3992  0.5696 -0.0025
57698SOL    HW185073  13.624   6.834   2.993 -1.8000 -1.5703  0.0786
57698SOL    HW285074  13.669   6.762   2.868 -0.5036 -1.7285  0.6256
57699SOL     OW85075   0.530   4.671   2.340  0.0439 -0.2683  0.0733
57699SOL    HW185076   0.616   4.644   2.373 -0.5254 -1.0573  0.9749
57699SOL    HW285077   0.542   4.763   2.315  1.4900 -0.7461 -1.1217
57700SOL     OW85078  10.765  13.319   0.378  0.2749 -0.0355 -0.1268
57700SOL    HW185079  10.742  13.226   0.375 -1.3369  0.3397 -0.8339
57700SOL    HW285080  10.860  13.321   0.386  0.1445 -1.7311  3.1377
57701SOL     OW85081   6.184  12.844   5.975 -0.3130 -0.2013 -0.5354
57701SOL    HW185082   6.093  12.828   5.999  0.4541  0.3105  3.3601
57701SOL    HW285083   6.222  12.756   5.966 -1.0509 -0.4140 -1.7699
57702SOL     OW85084   4.872  10.014   1.491 -0.1294  0.0089 -0.1699
57702SOL    HW185085   4.881  10.035   1.584  0.5723  0.4053 -0.3208
57702SOL    HW285086   4.778  10.018   1.475 -0.1350  1.7137  0.1196
57703SOL     OW85087   1.854   0.966   2.470 -0.1231 -0.2420  0.6290
57703SOL    HW185088   1.924   0.901   2.466  0.1732  0.1158 -2.1567
57703SOL    HW285089   1.776   0.919   2.440 -0.4195  0.1112  0.8445
57704SOL     OW85090  12.037   7.510   0.335  0.0894 -0.2816  0.1905
57704SOL    HW185091  12.123   7.529   0.374 -0.6475  2.1726  0.7754
57704SOL    HW285092  12.038   7.555   0.251 -0.5097 -0.5104  0.0535
57705SOL     OW85093  10.796   4.540   0.112  0.1130 -0.3334  0.0457
57705SOL    HW185094  10.806   4.472   0.045  0.9249 -0.2293  0.0469
57705SOL    HW285095  10.886   4.560   0.138 -0.0758  1.2065 -0.4172
57706SOL     OW85096   2.800  13.108   6.011  0.4153 -0.0581  0.7685
57706SOL    HW185097   2.831  13.166   5.942 -0.9995 -1.7667 -1.4052
57706SOL    HW285098   2.817  13.020   5.979 -0.6099 -0.9288  2.4553
57707SOL     OW85099   6.271   0.292   1.889  0.4305  0.2210  0.2071
57707SOL    HW185100   6.243   0.374   1.929  0.7689  0.2230  0.4402
57707SOL    HW285101   6.318   0.246   1.958  0.1487 -0.2177  0.1077
57708SOL     OW85102  13.806   0.753   3.836  0.1683 -0.0198 -0.0998
57708SOL    HW185103  13.746   0.785   3.770 -0.5261 -1.0806 -0.0050
57708SOL    HW285104  13.867   0.825   3.850 -0.2184  0.5483 -1.2286
57709SOL     OW85105   9.307  10.688   1.615  0.1208 -0.0352 -0.0694
57709SOL    HW185106   9.261  10.733   1.685  1.5230  0.1904  0.7516
57709SOL    HW285107   9.277  10.597   1.621 -0.4844  0.1772  0.1974
57710SOL     OW85108  13.311  11.254   3.180  0.2117  0.5874  0.5426
57710SOL    HW185109  13.320  11.300   3.096  0.1344 -1.1336 -0.4550
57710SOL    HW285110  13.400  11.223   3.200 -0.0806 -0.4673  0.2194
57711SOL     OW85111   8.428   6.584   9.281 -0.4746  0.2270 -0.6756
57711SOL    HW185112   8.348   6.571   9.333 -0.7432 -0.8145 -1.3170
57711SOL    HW285113   8.430   6.510   9.221  1.4786 -0.3242 -0.0344
57712SOL     OW85114   0.842   5.974   1.759 -0.5866 -0.0471  0.1419
57712SOL    HW185115   0.855   5.933   1.673 -0.5907  0.3140 -0.0346
57712SOL    HW285116   0.927   5.969   1.801 -0.6700 -0.5353  0.2537
57713SOL     OW85117  13.262  10.456   4.300 -0.1092 -0.4341  0.4612
57713SOL    HW185118  13.332  10.520   4.286 -1.0509  0.3286 -0.9759
57713SOL    HW285119  13.307  10.374   4.318  1.1729 -0.1154 -1.1324
57714SOL     OW85120   5.426   8.406  12.015  0.6759  0.1107  0.7422
57714SOL    HW185121   5.410   8.385  11.923 -5.1153 -3.3885  1.9772
57714SOL    HW285122   5.501   8.351  12.039 -0.3282 -2.2494 -1.1031
57715SOL     OW85123   8.735   8.465   4.753  0.3639  0.0374 -0.1211
57715SOL    HW185124   8.643   8.454   4.728 -0.1743  2.4562  0.5713
57715SOL    HW285125   8.764   8.541   4.703  1.5660  0.1915  0.7772
57716SOL     OW85126   7.802   1.054   2.607  0.2106 -0.5183  0.2027
57716SOL    HW185127   7.724   1.109   2.600 -0.6490 -1.7266 -0.1814
57716SOL    HW285128   7.858   1.099   2.670 -0.3768  0.8524 -0.2087
57717SOL     OW85129   1.354   8.213   6.725  0.5977 -0.1078 -0.0784
57717SOL    HW185130   1.400   8.279   6.672  0.3885  2.8463  3.0373
57717SOL    HW285131   1.264   8.245   6.728  0.7211  0.1553  2.3851
57718SOL     OW85132   7.538   6.605   5.559  0.1285  0.1299  0.1308
57718SOL    HW185133   7.470   6.569   5.502 -0.1100  1.7622 -0.6535
57718SOL    HW285134   7.491   6.663   5.619  0.7748  1.0630 -0.2417
57719SOL     OW85135  13.111   8.094   8.138 -0.7149 -0.1250  0.3624
57719SOL    HW185136  13.084   8.058   8.053 -0.0815 -1.1219  0.5660
57719SOL    HW285137  13.161   8.023   8.179  1.8595  1.4707  0.1847
57720SOL     OW85138  10.151   5.701   9.402  0.1952 -0.7522  0.1694
57720SOL    HW185139  10.130   5.652   9.323  1.1487 -1.4342  0.3134
57720SOL    HW285140  10.142   5.637   9.473  0.6236 -0.5024  0.4554
57721SOL     OW85141   2.797  13.351   1.409 -0.4790 -0.3391  0.4139
57721SOL    HW185142   2.885  13.385   1.428 -0.3497 -1.5444  2.3750
57721SOL    HW285143   2.812  13.279   1.348 -0.3708  0.8329 -0.9701
57722SOL     OW85144   7.353   8.804   6.308  0.1711  0.1029  0.6486
57722SOL    HW185145   7.339   8.720   6.263  3.6787 -0.8125  0.9889
57722SOL    HW285146   7.327   8.787   6.399  2.1439 -1.1506  1.0362
57723SOL     OW85147   0.201   0.753   7.206  0.6500  0.0397  0.6820
57723SOL    HW185148   0.164   0.821   7.263 -2.3149 -0.3544 -0.5606
57723SOL    HW285149   0.196   0.673   7.257 -0.7009 -0.0734  0.4081
57724SOL     OW85150   5.191   0.529   5.383 -0.2432 -0.3639 -0.9219
57724SOL    HW185151   5.270   0.578   5.405 -0.1616 -0.1932 -1.5652
57724SOL    HW285152   5.159   0.496   5.466 -0.1040  0.4880 -0.5171
57725SOL     OW85153   7.435   6.927  12.306 -0.3655  0.0396  0.3694
57725SOL    HW185154   7.466   7.013  12.335 -0.7346  0.3554 -0.1516
57725SOL    HW285155   7.477   6.865  12.365 -0.1120  0.5814  0.7652
57726SOL     OW85156   1.802   0.938   1.548 -0.0758 -0.1483 -0.5729
57726SOL    HW185157   1.793   0.854   1.592  0.5437  0.6245  1.1481
57726SOL    HW285158   1.825   0.916   1.458  1.3686 -1.8168  0.1472
57727SOL     OW85159  13.906   1.577   3.848 -0.2802 -0.2752  0.0412
57727SOL    HW185160  13.880   1.651   3.793 -1.1930 -0.1956  0.5717
57727SOL    HW285161  13.831   1.561   3.904  0.8342  0.0066  1.6816
57728SOL     OW85162   5.465   9.637  12.743 -0.1141  0.3648 -0.2244
57728SOL    HW185163   5.480   9.689  12.822  0.6151  0.7918 -0.6333
57728SOL    HW285164   5.496   9.550  12.766  2.4548  1.0343 -0.7848
57729SOL     OW85165  10.785   6.018   9.480 -0.3087  0.0795  0.1987
57729SOL    HW185166  10.725   6.090   9.496  1.7104  1.5615  1.7403
57729SOL    HW285167  10.782   6.004   9.385 -1.3835  1.6176 -0.0273
57730SOL     OW85168  11.405   5.913   9.635 -0.3034  0.9973 -0.4934
57730SOL    HW185169  11.363   5.894   9.719  0.2131  2.1367  0.0463
57730SOL    HW285170  11.367   5.997   9.608  1.3957  1.9313 -0.1098
57731SOL     OW85171   7.656   0.233   6.803  0.0970 -0.0417  0.0031
57731SOL    HW185172   7.648   0.208   6.895  1.3756 -1.5145 -0.2535
57731SOL    HW285173   7.719   0.171   6.766 -0.0952  0.7598 -1.7830
57732SOL     OW85174   7.204  13.881   5.997 -1.0668  0.5658  0.3729
57732SOL    HW185175   7.123  13.856   6.040 -0.4498  0.0221  1.2505
57732SOL    HW285176   7.237  13.955   6.049  0.8387 -1.5072  2.3382
57733SOL     OW85177  13.926   3.694   0.937  0.3672 -0.2190  0.5142
57733SOL    HW185178  13.860   3.763   0.945  0.6976  0.1627  0.0129
57733SOL    HW285179  14.009   3.741   0.936  0.6221 -0.6626  0.6755
57734SOL     OW85180  11.467   0.304   5.799 -0.0650 -0.3576 -0.1233
57734SOL    HW185181  11.458   0.253   5.879  0.3530 -0.1142  0.0773
57734SOL    HW285182  11.545   0.269   5.756  0.9559  0.9086  0.6132
57735SOL     OW85183   7.007   0.826  12.011  0.4329  0.0149  0.5942
57735SOL    HW185184   6.939   0.797  11.950  0.5287 -0.1932  0.5875
57735SOL    HW285185   6.972   0.907  12.048 -0.7191 -1.0780  2.0425
57736SOL     OW85186  13.468   1.479  11.931 -0.0269 -0.3786 -0.0108
57736SOL    HW185187  13.485   1.563  11.974 -1.9131 -0.2909  0.6282
57736SOL    HW285188  13.554   1.453  11.897  0.7092  1.5303  0.2318
57737SOL     OW85189   4.191  10.554  12.315  0.3871  0.2868  0.2016
57737SOL    HW185190   4.190  10.458  12.309 -1.2573  0.2144  1.1533
57737SOL    HW285191   4.118  10.583  12.261  0.8802  1.0301 -0.0927
57738SOL     OW85192   5.028   5.242   6.576  0.2894  0.0691 -0.0601
57738SOL    HW185193   5.008   5.300   6.649  1.6281  0.1725  0.2565
57738SOL    HW285194   5.116   5.269   6.547  1.2885 -2.2564  0.5881
57739SOL     OW85195   2.380   4.953   4.605 -0.4971  0.1176 -0.1794
57739SOL    HW185196   2.453   4.899   4.635 -2.6250 -2.1804  1.3179
57739SOL    HW285197   2.406   4.982   4.518  1.3083 -2.4766 -0.6317
57740SOL     OW85198  10.216   9.101   2.816  0.4231 -0.5309 -0.5373
57740SOL    HW185199  10.249   9.190   2.807 -2.6961  0.7961 -0.0896
57740SOL    HW285200  10.190   9.075   2.728  1.2720 -1.0178 -0.6577
57741SOL     OW85201   5.482   7.899   6.506 -0.3587 -0.1044 -0.0855
57741SOL    HW185202   5.400   7.889   6.457 -1.4997  0.0061  1.7123
57741SOL    HW285203   5.476   7.985   6.547  0.9650  0.1707 -0.4097
57742SOL     OW85204  12.069   3.810   0.406  0.1230  0.1454 -0.3213
57742SOL    HW185205  11.988   3.772   0.372  0.0035  0.2136 -0.1151
57742SOL    HW285206  12.103   3.862   0.333 -1.3241  2.1675  0.3459
57743SOL     OW85207   0.180   9.350   8.188  0.4970 -0.1286 -0.3643
57743SOL    HW185208   0.136   9.431   8.160  0.0359  0.3194  1.5150
57743SOL    HW285209   0.109   9.290   8.207  0.7738 -0.2331  0.3471
57744SOL     OW85210  11.197   4.486   3.058  0.2825 -0.0158 -0.8703
57744SOL    HW185211  11.147   4.566   3.070  1.3075  0.4833  0.2866
57744SOL    HW285212  11.207   4.477   2.963 -4.2177 -1.6012 -1.4063
57745SOL     OW85213   6.266  12.681   3.686 -0.0081 -0.2233 -0.0353
57745SOL    HW185214   6.240  12.693   3.778  0.5193 -1.8443  0.3516
57745SOL    HW285215   6.184  12.683   3.637 -0.3302  0.2717  0.5042
57746SOL     OW85216   7.777   8.130   1.037 -0.4329 -0.1267  0.4012
57746SOL    HW185217   7.708   8.145   0.973 -0.9256 -0.3582  0.8729
57746SOL    HW285218   7.806   8.217   1.064 -0.6205 -0.0307  0.2874
57747SOL     OW85219   8.530   3.127   1.401  0.0180 -0.0552  0.1276
57747SOL    HW185220   8.526   3.120   1.497  1.6972 -0.7953  0.1703
57747SOL    HW285221   8.593   3.197   1.385  0.3311 -0.4633 -0.4328
57748SOL     OW85222   9.665  10.529   5.446 -0.7357 -0.2237 -0.9083
57748SOL    HW185223   9.661  10.435   5.464  0.2291 -0.5788 -2.3645
57748SOL    HW285224   9.675  10.535   5.351 -2.2759  1.4231 -1.0141
57749SOL     OW85225   3.169   2.174   1.295  0.2271  0.0060  0.2105
57749SOL    HW185226   3.220   2.098   1.322 -0.1036  0.1379  1.2698
57749SOL    HW285227   3.227   2.223   1.236  1.1317 -0.1183  0.9756
57750SOL     OW85228  12.575  12.261   7.481  0.3459 -0.3393  0.3170
57750SOL    HW185229  12.562  12.355   7.468  0.2209 -0.5038 -0.8487
57750SOL    HW285230  12.487  12.225   7.486  0.2724 -0.7605 -2.3202
57751SOL     OW85231  11.024  12.089   1.620 -0.2713  0.2377  0.5937
57751SOL    HW185232  10.989  12.177   1.609 -1.2520  0.0428  1.9675
57751SOL    HW285233  11.117  12.098   1.600 -0.4706  1.4547  0.1399
57752SOL     OW85234   3.258  13.788   1.451 -0.2838 -0.2682  0.1595
57752SOL    HW185235   3.247  13.787   1.546  0.2265 -0.3139  0.2198
57752SOL    HW285236   3.233  13.877   1.425 -3.1262 -1.0120 -0.0139
57753SOL     OW85237   5.743   1.604   6.006  0.4104 -0.7493  0.0361
57753SOL    HW185238   5.809   1.657   5.961  0.3686  0.7729  1.6505
57753SOL    HW285239   5.700   1.555   5.936  0.2349  1.6094 -1.6385
57754SOL     OW85240   4.410   6.194   6.313 -0.1625 -0.2749  0.0780
57754SOL    HW185241   4.408   6.099   6.325  0.6104 -0.5472 -1.6719
57754SOL    HW285242   4.329   6.215   6.267 -0.1241 -0.1506  0.0658
57755SOL     OW85243   5.305   0.563   7.486  0.1464  0.3145  0.1904
57755SOL    HW185244   5.280   0.596   7.572  0.4493  1.2476 -0.0635
57755SOL    HW285245   5.386   0.514   7.501  1.0174  1.7063  0.2381
57756SOL     OW85246  10.952  10.820  11.079 -0.2993  0.5302 -0.0863
57756SOL    HW185247  10.959  10.883  11.007 -0.1627 -0.0478 -0.5841
57756SOL    HW285248  11.040  10.783  11.087 -0.8648 -1.1481 -1.2259
57757SOL     OW85249   3.913   9.709   9.084  0.0935  0.1820 -0.0515
57757SOL    HW185250   3.943   9.794   9.117  1.0346  1.2585 -3.2491
57757SOL    HW285251   3.818   9.717   9.078  0.2086  1.2423 -0.7588
57758SOL     OW85252   5.012   2.396  10.168  0.2802  0.3624 -0.2242
57758SOL    HW185253   4.978   2.307  10.160 -2.6427  1.3344  0.2310
57758SOL    HW285254   5.045   2.416  10.080 -0.5952 -0.5809 -0.8018
57759SOL     OW85255   2.893   5.050   6.654 -0.6638 -0.1306 -0.1345
57759SOL    HW185256   2.820   5.053   6.593 -0.7993  1.8246  0.0682
57759SOL    HW285257   2.862   4.993   6.725 -2.0089  0.6393 -0.0646
57760SOL     OW85258  10.776   0.503   9.411  0.0463 -0.3618  0.1292
57760SOL    HW185259  10.779   0.598   9.422 -1.7090 -0.0529 -1.4777
57760SOL    HW285260  10.859   0.472   9.446  1.4135  1.9547 -0.8421
57761SOL     OW85261  12.859  13.795  11.492 -0.3237 -0.0949 -0.3387
57761SOL    HW185262  12.801  13.871  11.490  0.0398  0.1951  0.0349
57761SOL    HW285263  12.851  13.756  11.405 -1.5037 -0.3836 -0.1165
57762SOL     OW85264   6.987   2.226   0.984 -0.2716 -0.5155  0.2154
57762SOL    HW185265   7.004   2.153   0.925 -0.1930 -0.8538  0.6484
57762SOL    HW285266   6.892   2.229   0.992 -0.2409 -1.1600  0.9148
57763SOL     OW85267   3.024  13.836  10.760  0.6406  0.1064  0.1627
57763SOL    HW185268   3.002  13.911  10.705  1.3741 -0.6766 -1.2817
57763SOL    HW285269   2.942  13.787  10.768  0.3860  0.5551  0.2714
57764SOL     OW85270  10.369  12.700   9.925 -0.1524  0.1644 -0.3532
57764SOL    HW185271  10.440  12.763   9.914  1.1067 -1.1389 -0.0280
57764SOL    HW285272  10.306  12.743   9.983  0.9215  0.9161  0.2810
57765SOL     OW85273   5.851   0.355  13.675  0.2271 -0.5370 -0.2294
57765SOL    HW185274   5.853   0.450  13.684 -1.5263 -0.6034  1.3271
57765SOL    HW285275   5.760   0.331  13.689  0.7028 -2.4984 -0.2123
57766SOL     OW85276   9.881   2.318   5.601 -0.5131  0.2459 -0.0256
57766SOL    HW185277   9.931   2.325   5.682  0.1491  1.6826 -0.5349
57766SOL    HW285278   9.795   2.286   5.630 -0.0249 -0.1069  1.1248
57767SOL     OW85279   5.047   5.396   7.409 -0.2497 -0.1117  0.0015
57767SOL    HW185280   5.031   5.474   7.356 -0.6700  0.2489  0.6474
57767SOL    HW285281   5.136   5.370   7.387  0.0636  0.8297  0.1244
57768SOL     OW85282   2.242   1.656   6.173  0.6445 -0.3948  0.1028
57768SOL    HW185283   2.232   1.607   6.091 -0.1207  2.3586 -1.5787
57768SOL    HW285284   2.311   1.720   6.154  1.1251 -0.2974  1.9671
57769SOL     OW85285   1.879  12.192   0.141 -0.2159 -0.1355 -0.1007
57769SOL    HW185286   1.891  12.258   0.073 -0.7501  0.8306  0.7203
57769SOL    HW285287   1.951  12.206   0.202 -0.6033  0.0034  0.3276
57770SOL     OW85288   9.625   0.339   7.667  0.2800 -0.1271  0.3401
57770SOL    HW185289   9.675   0.393   7.606 -0.4485  0.9037  0.6428
57770SOL    HW285290   9.626   0.251   7.627  1.8052 -0.0008  0.0427
57771SOL     OW85291   6.780   9.587   9.650  0.0586 -0.5210 -0.4677
57771SOL    HW185292   6.808   9.631   9.730 -0.4318  0.1897 -0.6803
57771SOL    HW285293   6.760   9.658   9.589 -2.8620 -0.9227 -0.1272
57772SOL     OW85294  11.961  12.481   4.068 -0.2314 -0.0835  0.4781
57772SOL    HW185295  11.894  12.413   4.079 -0.7159  0.5171  1.3957
57772SOL    HW285296  11.932  12.552   4.125  0.7161  0.5552  0.1812
57773SOL     OW85297   3.759   9.140  10.311 -0.0130  0.1734  0.6279
57773SOL    HW185298   3.838   9.194  10.298  0.2487 -0.8048 -2.5994
57773SOL    HW285299   3.791   9.050  10.310 -1.1174 -0.2328 -0.6268
57774SOL     OW85300   2.295   8.904   7.201 -0.3787  0.5137  0.2890
57774SOL    HW185301   2.310   8.813   7.229  0.0171  0.4626 -0.0629
57774SOL    HW285302   2.215   8.899   7.148  0.1598  0.1801 -0.5318
57775SOL     OW85303   5.895   1.924  13.034  0.6350  0.2936  0.3750
57775SOL    HW185304   5.854   1.970  13.107  0.1385 -0.6170  0.6851
57775SOL    HW285305   5.872   1.977  12.957  0.5794  0.8782  0.7866
57776SOL     OW85306   6.323   8.308   0.250  0.5237  0.2563 -0.4435
57776SOL    HW185307   6.266   8.262   0.312 -0.5084  1.3674 -0.5410
57776SOL    HW285308   6.318   8.255   0.170  1.3367 -0.8164  0.1953
57777SOL     OW85309  13.160   1.694  11.028 -0.4321 -0.2876  0.4108
57777SOL    HW185310  13.201   1.727  10.948 -2.1626  0.5780 -0.1806
57777SOL    HW285311  13.230   1.649  11.075  0.8327 -0.0377 -1.1642
57778SOL     OW85312  12.919   9.561   4.857  0.4814 -0.0468  0.0975
57778SOL    HW185313  12.919   9.469   4.830  0.2325  0.0115 -0.1098
57778SOL    HW285314  12.839   9.597   4.819 -0.0853 -0.0589  1.2226
57779SOL     OW85315   2.255   9.032   0.045  0.2228 -0.3861  0.1326
57779SOL    HW185316   2.179   9.040   0.102 -1.3804  1.7209 -2.1076
57779SOL    HW285317   2.324   9.081   0.089 -0.6173  0.1919  0.8323
57780SOL     OW85318   6.239   4.382   6.774  0.1813  0.2872 -0.0795
57780SOL    HW185319   6.320   4.360   6.729 -0.4002 -0.3039 -0.8865
57780SOL    HW285320   6.245   4.475   6.792  2.0273 -0.1360  1.9433
57781SOL     OW85321   5.791  10.836   3.246 -0.4408  0.4168  0.5957
57781SOL    HW185322   5.817  10.791   3.327  1.7622  0.6100  0.0590
57781SOL    HW285323   5.865  10.892   3.225  0.0241 -1.1578 -2.6835
57782SOL     OW85324  12.211   5.949   3.791  0.7029 -0.1557  0.5417
57782SOL    HW185325  12.194   6.005   3.715 -2.0358 -0.2656  0.9780
57782SOL    HW285326  12.215   5.860   3.756 -1.1327 -0.2653  0.5437
57783SOL     OW85327   9.341  13.367   2.202  0.0354 -0.0311  0.0698
57783SOL    HW185328   9.271  13.431   2.217 -1.1858 -1.4429  0.5651
57783SOL    HW285329   9.411  13.394   2.261  0.2982  1.9098 -1.0420
57784SOL     OW85330   6.860   2.549  11.003  0.4627  0.6621 -0.0072
57784SOL    HW185331   6.853   2.624  11.062  1.1142  0.2307  0.6373
57784SOL    HW285332   6.843   2.473  11.059  2.6967  0.1229  0.0362
57785SOL     OW85333  12.830   3.142  11.664  0.2673 -0.0973 -0.7572
57785SOL    HW185334  12.861   3.077  11.727  0.1430 -0.6529 -1.2536
57785SOL    HW285335  12.758   3.098  11.618 -0.5903  0.8080 -0.3233
57786SOL     OW85336  13.079  10.787   1.637  0.3601  0.5090 -0.3978
57786SOL    HW185337  13.082  10.874   1.678  0.8210  0.4057 -0.2111
57786SOL    HW285338  12.995  10.750   1.666 -0.7647  1.6205 -1.9862
57787SOL     OW85339   3.255   3.391   2.865 -0.2495  0.3232  1.0361
57787SOL    HW185340   3.232   3.484   2.860 -2.4209 -0.2205 -0.6673
57787SOL    HW285341   3.282   3.367   2.776 -1.2484 -0.9920  1.0459
57788SOL     OW85342   9.957   1.762   3.021  0.3354  0.1320 -0.0448
57788SOL    HW185343   9.948   1.800   3.108  0.5639  0.0977 -0.0056
57788SOL    HW285344  10.045   1.724   3.020  0.0790 -0.4706 -0.0501
57789SOL     OW85345   8.549  10.554   8.242  0.1786  0.6955  0.3137
57789SOL    HW185346   8.461  10.524   8.263  0.1762 -0.7571 -1.4538
57789SOL    HW285347   8.604  10.522   8.313 -0.2356 -1.4547 -0.2646
57790SOL     OW85348   6.739   0.434   4.408  0.6235 -0.3805 -0.1908
57790SOL    HW185349   6.674   0.499   4.381 -0.2988  0.5763  3.6824
57790SOL    HW285350   6.823   0.472   4.382 -0.1107  0.2051 -1.8746
57791SOL     OW85351   0.866   5.084   2.443  0.0389 -0.4055  0.3128
57791SOL    HW185352   0.937   5.147   2.433 -0.9215  0.7302  0.3629
57791SOL    HW285353   0.786   5.136   2.429 -0.7613 -1.7579 -0.2985
57792SOL     OW85354  11.317   8.649   3.023 -0.3092 -0.1647  0.5458
57792SOL    HW185355  11.324   8.631   3.117 -1.2451 -0.7659  0.5117
57792SOL    HW285356  11.355   8.572   2.981  1.5440  0.7698  0.4106
57793SOL     OW85357   5.290   6.877   1.440  0.7338 -0.1326  0.1852
57793SOL    HW185358   5.232   6.870   1.516  0.3322  1.4352  0.0671
57793SOL    HW285359   5.314   6.969   1.437  1.0216 -0.2269 -1.3900
57794SOL     OW85360   5.001   3.727  10.985  0.0028  0.0974 -0.0038
57794SOL    HW185361   4.951   3.672  10.924 -0.1904  1.1811 -0.8645
57794SOL    HW285362   4.949   3.728  11.065  0.0937 -1.0918  0.0770
57795SOL     OW85363   0.263  13.152  11.329 -0.0443 -0.4327  0.0111
57795SOL    HW185364   0.263  13.225  11.267  2.0330 -1.9304 -1.9335
57795SOL    HW285365   0.200  13.178  11.397 -0.2781  2.5799 -1.1925
57796SOL     OW85366  13.601   3.779   2.463 -0.2798 -0.1916  0.0034
57796SOL    HW185367  13.526   3.832   2.490 -0.2396  0.3620 -0.9162
57796SOL    HW285368  13.671   3.805   2.522 -0.3257  0.6232 -0.2845
57797SOL     OW85369   5.195  13.216   0.934 -0.0043  0.5250 -0.1229
57797SOL    HW185370   5.230  13.235   0.847 -1.7568 -0.0500 -1.0176
57797SOL    HW285371   5.176  13.122   0.932 -0.9632  0.6892  0.5053
57798SOL     OW85372   2.579   0.615   4.963  0.0345  0.5368 -0.1558
57798SOL    HW185373   2.516   0.550   4.995 -0.0368 -0.4779 -2.1900
57798SOL    HW285374   2.541   0.699   4.986 -0.8199 -0.0866  0.8411
57799SOL     OW85375  11.647   4.820   4.650  0.4829  0.6179 -0.6899
57799SOL    HW185376  11.580   4.754   4.667  1.5671 -0.5854 -0.9055
57799SOL    HW285377  11.620   4.860   4.567  0.6804 -0.7488 -1.4566
57800SOL     OW85378  10.944   4.877  10.147  0.5901 -0.7031  0.4974
57800SOL    HW185379  11.035   4.849  10.157  1.5007  1.5527 -0.7400
57800SOL    HW285380  10.924   4.923  10.228  1.6632  1.4311 -0.3598
57801SOL     OW85381   8.781   4.730   6.923 -0.2414 -0.4696 -0.0132
57801SOL    HW185382   8.834   4.776   6.857 -1.4084  1.1629  0.1177
57801SOL    HW285383   8.836   4.728   7.001 -0.0529  0.4565 -0.1142
57802SOL     OW85384   6.281   9.592  10.621  0.2721  0.0851 -0.1698
57802SOL    HW185385   6.357   9.626  10.574  0.4902  0.8941  0.7170
57802SOL    HW285386   6.258   9.662  10.682 -0.5945 -0.5393  0.2439
57803SOL     OW85387   3.975   5.878   3.829  0.2230  0.4115  0.1301
57803SOL    HW185388   4.015   5.809   3.775 -0.4618  0.4977 -0.5077
57803SOL    HW285389   4.029   5.881   3.908 -0.2538 -1.4807  0.5804
57804SOL     OW85390  13.437   2.876   5.465  0.2281 -0.7740 -0.0127
57804SOL    HW185391  13.490   2.942   5.511 -1.2127  0.3016  0.1746
57804SOL    HW285392  13.348   2.891   5.497 -0.3757 -1.7946 -1.1599
57805SOL     OW85393   3.101   7.543   4.790 -0.7847  0.1686 -0.5724
57805SOL    HW185394   3.032   7.501   4.843 -1.7083  1.4695 -0.6925
57805SOL    HW285395   3.083   7.514   4.701 -0.7000 -0.1108 -0.5006
57806SOL     OW85396   9.520   7.681  10.512  0.1278 -0.4208 -0.2331
57806SOL    HW185397   9.513   7.596  10.468 -0.2700 -0.7166  0.3934
57806SOL    HW285398   9.604   7.676  10.558  0.6837  0.0001 -1.1677
57807SOL     OW85399  10.725   5.904  10.221  0.1580  0.1426 -0.1465
57807SOL    HW185400  10.663   5.886  10.291 -0.3438  1.5846 -0.1885
57807SOL    HW285401  10.809   5.914  10.265 -0.0051  0.2191  0.1479
57808SOL     OW85402  10.091  11.593  13.073 -0.5221  0.4710  0.1944
57808SOL    HW185403  10.111  11.513  13.026  0.5711 -0.2165  1.7565
57808SOL    HW285404   9.998  11.608  13.057 -1.6706 -3.0288  2.5966
57809SOL     OW85405   9.023   0.284  12.178 -0.3496 -0.1635 -0.3460
57809SOL    HW185406   8.972   0.307  12.100 -0.1042  2.2162  0.1328
57809SOL    HW285407   9.113   0.276  12.146 -0.3048  0.4526 -0.3919
57810SOL     OW85408  12.018   8.104   9.808  0.0689 -0.0207  0.2725
57810SOL    HW185409  12.102   8.100   9.854 -0.0572  0.1165  0.5151
57810SOL    HW285410  12.040   8.083   9.717  0.6950  1.9465 -0.0818
57811SOL     OW85411  12.119   7.196   2.135  0.5846 -0.0301  0.0189
57811SOL    HW185412  12.125   7.280   2.089  2.0429  0.6826  1.4130
57811SOL    HW285413  12.169   7.136   2.081  0.3278  0.2271 -0.5102
57812SOL     OW85414  11.229   8.584   5.511  0.5098  0.0280 -0.1009
57812SOL    HW185415  11.288   8.524   5.558  0.3109 -0.0131  0.0949
57812SOL    HW285416  11.186   8.635   5.580  0.7422  0.4584 -0.2697
57813SOL     OW85417   5.696  12.809  10.494  0.2668  0.4477  0.7294
57813SOL    HW185418   5.606  12.778  10.484  0.2941  0.9632 -1.6990
57813SOL    HW285419   5.746  12.731  10.516 -0.5087 -0.1985  0.2449
57814SOL     OW85420  12.698  12.984   5.679  0.3933 -0.3944 -0.4745
57814SOL    HW185421  12.622  12.929   5.701 -0.2458 -0.2194 -2.1366
57814SOL    HW285422  12.684  13.064   5.730  1.1037 -1.5283  1.6297
57815SOL     OW85423   7.727   6.915   5.519 -0.3579  0.1402  0.7644
57815SOL    HW185424   7.642   6.900   5.560 -0.6519  0.7239  0.3861
57815SOL    HW285425   7.761   6.827   5.501  0.3270 -0.2054  3.3098
57816SOL     OW85426  13.881  13.978   4.554  0.4240  0.0271 -0.5762
57816SOL    HW185427  13.839  13.908   4.604 -1.8415  0.3497 -1.8882
57816SOL    HW285428  13.927  13.932   4.483 -2.4910 -0.2292 -2.4862
57817SOL     OW85429   1.343  11.820   8.502 -0.6806  0.2221 -0.1651
57817SOL    HW185430   1.298  11.869   8.571 -0.0123  0.1631  0.3303
57817SOL    HW285431   1.333  11.728   8.527 -1.3044  0.1372 -0.7002
57818SOL     OW85432   8.224   8.985  13.994 -0.4734 -0.1536  0.0582
57818SOL    HW185433   8.153   8.981  14.058 -1.5937  1.9185 -0.9738
57818SOL    HW285434   8.255   9.075  13.998  0.3138 -0.3296 -1.4128
57819SOL     OW85435  13.156   0.010   2.162  0.4242 -0.2154 -0.0075
57819SOL    HW185436  13.141  -0.080   2.133 -0.8335 -0.0861  0.1647
57819SOL    HW285437  13.209   0.002   2.241  0.0003 -0.8293  0.2176
57820SOL     OW85438   1.652   3.864  11.325  0.3576 -0.0824  0.2374
57820SOL    HW185439   1.605   3.946  11.343  0.5792  0.5423 -1.7772
57820SOL    HW285440   1.584   3.800  11.308  0.2067  0.1723 -0.1141
57821SOL     OW85441   4.521  10.633   1.699  0.2514 -0.6642  0.8504
57821SOL    HW185442   4.477  10.565   1.646 -0.2950  1.1749 -1.1942
57821SOL    HW285443   4.453  10.699   1.713  1.4833  0.7052  0.4778
57822SOL     OW85444   6.298   5.891  13.689  0.2453  0.0833 -0.1903
57822SOL    HW185445   6.247   5.912  13.611  1.1196  1.7883 -0.3500
57822SOL    HW285446   6.361   5.825  13.660  0.9686  1.1557 -1.0926
57823SOL     OW85447   3.108   9.281   8.392  0.6120 -0.2830 -0.0542
57823SOL    HW185448   3.113   9.370   8.425  1.9064 -0.6051  0.6484
57823SOL    HW285449   3.014   9.264   8.383  0.3354  0.8621  0.5790
57824SOL     OW85450  13.714   8.623  10.660  0.4565  0.1671  0.3160
57824SOL    HW185451  13.769   8.547  10.680  2.1207  1.1141 -0.4695
57824SOL    HW285452  13.772   8.699  10.672 -0.2575  1.1425 -1.8969
57825SOL     OW85453   6.781   2.794   2.306 -0.1549  0.0094  0.1134
57825SOL    HW185454   6.702   2.818   2.259  0.5755  0.9070 -0.6888
57825SOL    HW285455   6.750   2.757   2.388 -1.4108 -0.0583 -0.3753
57826SOL     OW85456   3.669   4.396   5.485  0.1816  0.5419 -0.4948
57826SOL    HW185457   3.733   4.442   5.431  1.7884 -1.6762 -0.5846
57826SOL    HW285458   3.690   4.420   5.575  1.5823 -0.6335 -0.4813
57827SOL     OW85459   0.448   1.878   6.980  0.1573  0.3885  0.1038
57827SOL    HW185460   0.424   1.815   7.048  1.8562  1.1290  1.4820
57827SOL    HW285461   0.379   1.871   6.915 -1.4372 -0.5269  1.8002
57828SOL     OW85462   3.747   3.793  13.501 -0.4152 -0.8851  0.0225
57828SOL    HW185463   3.697   3.817  13.579 -0.5485 -0.4271 -0.1981
57828SOL    HW285464   3.681   3.756  13.442 -0.4834 -0.3676 -0.2325
57829SOL     OW85465  11.449   8.582  11.916  0.2998 -0.5169 -0.7044
57829SOL    HW185466  11.518   8.589  11.849 -0.1014  1.1662 -0.9833
57829SOL    HW285467  11.493   8.604  11.998  0.0570  0.9374 -0.9342
57830SOL     OW85468  10.533   7.882  13.936  0.0203 -0.5101 -0.7488
57830SOL    HW185469  10.569   7.927  14.012 -0.3705  0.5880 -1.2012
57830SOL    HW285470  10.466   7.824  13.971 -0.0860 -0.0871 -0.2493
57831SOL     OW85471   2.189   7.371   5.653 -0.5841 -0.3019  0.5408
57831SOL    HW185472   2.213   7.388   5.562  1.2726 -0.5848  0.9415
57831SOL    HW285473   2.162   7.456   5.687  0.8454  0.2729  0.3037
57832SOL     OW85474   5.009   4.268   8.870 -0.4974  0.3243  0.2392
57832SOL    HW185475   5.012   4.250   8.964 -0.9408  1.2722  0.4386
57832SOL    HW285476   4.929   4.318   8.857 -0.6346 -0.1160 -0.7087
57833SOL     OW85477   2.197   4.124   9.218  0.1537  0.0610  0.3027
57833SOL    HW185478   2.192   4.195   9.283  1.5886  1.7385 -1.2994
57833SOL    HW285479   2.265   4.065   9.252  1.2260  1.1669  0.1527
57834SOL     OW85480   5.736   6.961   9.517  0.6691 -0.3959 -0.0200
57834SOL    HW185481   5.751   7.044   9.563  0.3267  0.0279 -0.6525
57834SOL    HW285482   5.779   6.895   9.571  2.6970  0.4367 -0.5280
57835SOL     OW85483   3.870   6.597   0.528  0.1133  0.3950 -0.0414
57835SOL    HW185484   3.955   6.558   0.507 -1.1574 -1.5121 -2.0162
57835SOL    HW285485   3.852   6.657   0.456 -0.5682  0.1875 -0.0476
57836SOL     OW85486   6.095   7.977  12.666 -0.3396 -0.8352  0.2191
57836SOL    HW185487   6.097   8.039  12.593 -1.2742 -1.4213 -0.3221
57836SOL    HW285488   6.002   7.956  12.678 -0.0614 -2.0162  0.4855
57837SOL     OW85489  12.500  11.161   7.020 -0.2820  0.1014  0.0245
57837SOL    HW185490  12.412  11.145   6.988  0.2986 -0.5191 -1.3066
57837SOL    HW285491  12.487  11.202   7.106 -1.8469 -0.8635  0.2750
57838SOL     OW85492  12.539   1.022   2.269 -0.0301  0.1838  0.0146
57838SOL    HW185493  12.590   0.981   2.339 -1.6610  0.8850  1.6972
57838SOL    HW285494  12.456   0.975   2.270  0.0691 -0.0980 -1.8164
57839SOL     OW85495   6.249   4.511   0.745 -0.3223  0.2316 -0.5060
57839SOL    HW185496   6.220   4.603   0.742 -0.5500  0.1780 -0.0896
57839SOL    HW285497   6.264   4.487   0.654 -1.9660  0.1485 -0.7837
57840SOL     OW85498   1.851   0.262   2.714 -0.0345  0.1841 -0.7266
57840SOL    HW185499   1.883   0.281   2.625  0.4752 -0.3400 -0.6649
57840SOL    HW285500   1.917   0.301   2.771 -1.8831  3.2930 -0.4640
57841SOL     OW85501   4.596  13.722   7.031 -0.0666  0.1359  0.2193
57841SOL    HW185502   4.539  13.799   7.033  1.1271  1.0553 -0.0011
57841SOL    HW285503   4.557  13.664   6.966 -1.7779 -0.1024  1.4035
57842SOL     OW85504   5.698   5.629  11.071 -0.0995 -0.3996 -0.0929
57842SOL    HW185505   5.634   5.558  11.078  0.3846 -0.8033  0.3163
57842SOL    HW285506   5.780   5.591  11.103  0.4434 -0.0048 -0.9675
57843SOL     OW85507  10.741   4.587  12.182  0.0727  0.2202 -0.2206
57843SOL    HW185508  10.684   4.659  12.153  1.1766  1.7889  1.3255
57843SOL    HW285509  10.823   4.601  12.135 -0.6405 -1.9089 -2.2755
57844SOL     OW85510  13.858   7.505   9.204  0.8498  0.2809  0.1434
57844SOL    HW185511  13.915   7.581   9.195  1.2707 -0.0224  0.1891
57844SOL    HW285512  13.885   7.447   9.133  0.3028  0.3175 -0.0975
57845SOL     OW85513   8.070   7.350  11.965 -0.1879 -0.9887 -0.5584
57845SOL    HW185514   8.077   7.375  12.057 -0.2153  0.4795 -0.9261
57845SOL    HW285515   8.156   7.370  11.928 -0.4425 -0.7505 -1.0279
57846SOL     OW85516  12.964  12.081   1.279 -0.1197 -0.5242 -0.0862
57846SOL    HW185517  12.889  12.053   1.227 -1.3269  1.1015  0.7317
57846SOL    HW285518  12.992  12.001   1.324 -0.8300 -1.3243 -1.0120
57847SOL     OW85519   5.978  11.531   7.287 -0.5589  0.6584  0.6377
57847SOL    HW185520   6.058  11.479   7.285  0.0487  1.5606  0.8081
57847SOL    HW285521   6.008  11.621   7.273 -1.5164  1.0373  0.9778
57848SOL     OW85522   8.386   6.649   2.264 -0.1568  0.0752 -0.6820
57848SOL    HW185523   8.394   6.741   2.289 -1.2373 -0.0112  0.0332
57848SOL    HW285524   8.340   6.608   2.338 -1.0395 -0.7334 -1.6538
57849SOL     OW85525   2.425   0.478  12.930 -0.0527  0.0864 -0.1490
57849SOL    HW185526   2.495   0.542  12.939 -0.3582  0.6273 -1.3938
57849SOL    HW285527   2.469   0.393  12.925  0.3803  0.2248  1.0395
57850SOL     OW85528  10.094  11.178   8.534 -0.0933 -0.0724 -0.1193
57850SOL    HW185529  10.017  11.123   8.549 -0.2802 -0.0240 -0.8959
57850SOL    HW285530  10.114  11.214   8.621 -0.4824 -0.6847  0.2310
57851SOL     OW85531  12.456   0.278   6.520  0.2825 -0.8795 -0.1424
57851SOL    HW185532  12.443   0.193   6.478 -1.2922 -0.6618 -0.1553
57851SOL    HW285533  12.510   0.327   6.459 -0.9725 -0.9890 -1.3938
57852SOL     OW85534   3.916   6.921   6.395  0.4963  0.0854 -0.0664
57852SOL    HW185535   3.915   6.832   6.430  0.6651 -1.2949 -3.2447
57852SOL    HW285536   4.009   6.943   6.387  0.4566  0.4193  0.3186
57853SOL     OW85537   7.898   9.961   8.034  0.2909  0.1268  0.0072
57853SOL    HW185538   7.852  10.045   8.033  1.3350  0.7224  0.2157
57853SOL    HW285539   7.837   9.901   8.077 -0.5359  0.7344 -0.2872
57854SOL     OW85540  13.983   4.108  12.852  0.0047 -0.2577  0.2989
57854SOL    HW185541  14.070   4.141  12.830 -0.1134  0.7387  1.2160
57854SOL    HW285542  13.924   4.182  12.837 -0.5961 -0.7333  0.2646
57855SOL     OW85543  13.948  13.540   1.043 -0.5229  0.4832  0.3117
57855SOL    HW185544  13.979  13.630   1.054 -0.0998  0.0540  3.9122
57855SOL    HW285545  13.853  13.546   1.044 -0.5130  0.9233 -0.4067
57856SOL     OW85546   9.583  13.294   1.416  0.3622 -0.1334 -0.0541
57856SOL    HW185547   9.504  13.341   1.389  1.2101  1.6372  0.3730
57856SOL    HW285548   9.560  13.201   1.409 -1.1839  0.3081 -1.6020
57857SOL     OW85549  13.709   7.615  12.112  0.4846  0.0169 -0.0610
57857SOL    HW185550  13.712   7.625  12.017  1.4012  2.1457  0.1449
57857SOL    HW285551  13.650   7.685  12.142 -0.9596 -1.5225  0.8616
57858SOL     OW85552   1.507   8.894   7.536 -0.1245 -0.1645 -0.5538
57858SOL    HW185553   1.480   8.815   7.583  1.0464 -0.0704  0.3296
57858SOL    HW285554   1.501   8.870   7.443 -0.7270 -0.9606 -0.3206
57859SOL     OW85555  14.030   1.402  10.666  0.6324 -0.1662 -0.0046
57859SOL    HW185556  14.059   1.368  10.581  0.4675 -0.7118  0.1531
57859SOL    HW285557  14.090   1.363  10.729  0.3754 -0.2468  0.1910
57860SOL     OW85558   4.956   2.221   6.702 -0.6017  0.2656 -0.4804
57860SOL    HW185559   4.888   2.288   6.713 -0.4240  1.0370 -3.3821
57860SOL    HW285560   4.951   2.169   6.783 -2.1966  2.4424  0.9397
57861SOL     OW85561   0.026   9.573  10.995 -0.0773 -0.2400 -0.0322
57861SOL    HW185562   0.100   9.596  10.939  0.2468 -2.2943 -0.5277
57861SOL    HW285563   0.066   9.548  11.078 -0.5424  2.6141  1.1875
57862SOL     OW85564   4.707   2.976   7.153 -0.1755  0.2142 -0.0336
57862SOL    HW185565   4.621   3.011   7.130  0.7754  1.7307 -1.5074
57862SOL    HW285566   4.743   3.038   7.215  0.9416  1.1877 -1.5692
57863SOL     OW85567  11.319   5.543   4.025  0.2580 -0.3302  0.4976
57863SOL    HW185568  11.409   5.530   3.995  0.1448 -3.5122  1.1611
57863SOL    HW285569  11.272   5.573   3.948  1.4880 -0.7404 -0.4475
57864SOL     OW85570   0.490   2.017   1.351 -0.6785 -0.3261 -0.1757
57864SOL    HW185571   0.446   1.992   1.433  0.5121 -0.6247  0.3987
57864SOL    HW285572   0.444   2.096   1.322 -0.7550  0.1263  1.0967
57865SOL     OW85573   0.472   8.977   6.722 -0.1832  0.2984 -0.1396
57865SOL    HW185574   0.504   9.019   6.643 -1.2520  1.2848 -0.0702
57865SOL    HW285575   0.405   9.037   6.756 -0.5813 -0.6767  0.8572
57866SOL     OW85576   4.982  10.537   1.619  0.3805  0.2527  0.3117
57866SOL    HW185577   4.969  10.498   1.533 -0.0269 -0.8411  0.8441
57866SOL    HW285578   4.936  10.478   1.679  0.1642  1.3033  1.2121
57867SOL     OW85579   7.901   7.181   0.747  0.1743 -0.5344 -0.0560
57867SOL    HW185580   7.861   7.118   0.688  0.5541 -2.3860  1.5601
57867SOL    HW285581   7.919   7.131   0.827 -1.2038  2.0143  2.0370
57868SOL     OW85582  13.160   1.694   2.869 -0.0005  0.0776 -0.1380
57868SOL    HW185583  13.075   1.666   2.904  0.8747 -0.6750  1.4412
57868SOL    HW285584  13.221   1.684   2.941  1.3601  1.1353 -1.0902
57869SOL     OW85585   3.920  13.643  13.707 -0.1847  0.0004  0.0922
57869SOL    HW185586   3.966  13.698  13.644 -1.0795  0.6732  0.0044
57869SOL    HW285587   3.946  13.554  13.684  1.7894  0.3831  0.6320
57870SOL     OW85588   4.860   5.895   7.908 -0.2830 -0.3898  0.3562
57870SOL    HW185589   4.955   5.910   7.908 -0.4821  1.0829  0.2747
57870SOL    HW285590   4.850   5.800   7.909  1.1957 -0.5720  0.0394
57871SOL     OW85591  10.933   9.714  10.613  0.1009  0.4376 -0.1221
57871SOL    HW185592  10.952   9.620  10.623 -1.4494 -0.0002 -0.9282
57871SOL    HW285593  10.915   9.743  10.703 -0.0249 -0.1959  0.0711
57872SOL     OW85594   0.749   5.795   6.946 -0.0595 -0.1986  0.3119
57872SOL    HW185595   0.789   5.881   6.933  0.0009 -0.4244 -1.1348
57872SOL    HW285596   0.786   5.741   6.877  0.4435 -1.5946  1.6251
57873SOL     OW85597  13.433   6.013   1.414  0.0945 -0.5288  0.3875
57873SOL    HW185598  13.374   6.004   1.489 -1.2714 -1.0577 -0.6839
57873SOL    HW285599  13.374   6.025   1.339  1.4373  2.8236 -0.3064
57874SOL     OW85600  11.479  14.015  11.647  0.1613  0.4163  0.0737
57874SOL    HW185601  11.517  13.957  11.712  0.9420  1.2569  0.3976
57874SOL    HW285602  11.526  13.995  11.566 -0.9659 -0.7870 -0.3088
57875SOL     OW85603  12.423   0.658  11.881 -0.3675 -0.0942  0.6641
57875SOL    HW185604  12.413   0.613  11.798  1.8874  0.2785  0.1315
57875SOL    HW285605  12.358   0.728  11.879 -0.6109 -0.3477 -0.5969
57876SOL     OW85606   5.336   6.679   4.618 -0.0855  0.0008  0.3300
57876SOL    HW185607   5.368   6.762   4.653 -0.2530 -0.1299  0.8115
57876SOL    HW285608   5.350   6.616   4.690  0.8376 -0.5685 -0.3354
57877SOL     OW85609   8.837   0.322   3.861 -0.5954  0.3207  0.0058
57877SOL    HW185610   8.800   0.410   3.873 -0.7501  0.1927  0.4997
57877SOL    HW285611   8.793   0.268   3.927 -0.7762 -0.2169 -0.5473
57878SOL     OW85612   5.883  10.162   0.729  0.1334  0.2465  0.2079
57878SOL    HW185613   5.910  10.249   0.759  0.1365 -0.4847  2.4898
57878SOL    HW285614   5.951  10.103   0.763 -1.7305 -1.0571  1.8870
57879SOL     OW85615   0.380   8.794   1.103  0.7813 -0.2059 -0.0649
57879SOL    HW185616   0.324   8.808   1.180  0.3704 -0.7881 -0.2425
57879SOL    HW285617   0.328   8.827   1.029  0.1393 -1.8113 -0.3811
57880SOL     OW85618   4.298   2.204  11.838  0.2634 -0.3438 -0.6388
57880SOL    HW185619   4.273   2.270  11.903  0.2050 -0.9553 -0.0295
57880SOL    HW285620   4.266   2.239  11.755 -3.2302 -1.3469  0.1181
57881SOL     OW85621   2.956   9.530   3.362  0.5323 -0.5635 -0.5499
57881SOL    HW185622   2.997   9.578   3.290 -1.4023  0.1335 -1.2466
57881SOL    HW285623   2.892   9.473   3.319 -1.5828  0.7837  0.6407
57882SOL     OW85624   4.995   1.669   7.992  0.0903 -0.1960  0.5315
57882SOL    HW185625   5.064   1.698   8.051 -0.7253  1.5500  0.7079
57882SOL    HW285626   4.987   1.739   7.927 -1.2413 -0.5287  0.2927
57883SOL     OW85627  11.701  11.385   7.000 -0.3192 -0.3967 -0.1134
57883SOL    HW185628  11.774  11.326   7.017  0.5602  0.0826 -1.9501
57883SOL    HW285629  11.727  11.468   7.041  0.2512 -0.1948 -0.8591
57884SOL     OW85630  12.044   9.152   5.123  0.3622  0.1915 -0.2185
57884SOL    HW185631  12.004   9.239   5.124 -0.0644  0.0249  2.2061
57884SOL    HW285632  12.123   9.161   5.176 -0.8425 -1.3360  1.9951
57885SOL     OW85633  12.411   1.755   1.444 -0.3207  0.0759  0.2524
57885SOL    HW185634  12.338   1.718   1.393 -0.3431 -1.3275  1.2542
57885SOL    HW285635  12.389   1.848   1.453 -0.4098  0.3486 -2.1093
57886SOL     OW85636  12.436  11.611   2.793  0.0997  0.1142 -0.3847
57886SOL    HW185637  12.360  11.669   2.794  0.3669  0.4797 -0.9106
57886SOL    HW285638  12.459  11.600   2.885 -1.5349 -1.2592 -0.0907
57887SOL     OW85639   0.712   8.951  11.778  0.4045  0.0536 -0.0574
57887SOL    HW185640   0.660   9.029  11.759 -0.2541 -0.7672 -1.8433
57887SOL    HW285641   0.650   8.878  11.769  0.9793 -0.7099  1.6562
57888SOL     OW85642   8.027   5.170  11.382 -0.2392  0.1587 -0.4192
57888SOL    HW185643   8.025   5.076  11.403 -1.9286  0.2798  0.1172
57888SOL    HW285644   8.118   5.196  11.397  0.2105 -1.3478 -0.3735
57889SOL     OW85645   4.279   0.203   9.508 -0.2588  0.7766 -0.2486
57889SOL    HW185646   4.364   0.218   9.548 -0.8723  2.2053  0.5900
57889SOL    HW285647   4.263   0.281   9.455  0.2284 -0.7549 -2.8541
57890SOL     OW85648   4.910   0.321   6.989 -0.4583  0.2056 -0.4251
57890SOL    HW185649   4.904   0.394   6.927 -2.3707  0.5806  0.1311
57890SOL    HW285650   5.001   0.323   7.019 -0.1686  1.6226 -1.2873
57891SOL     OW85651  12.618   0.687   9.088 -0.9688  0.0746  0.3730
57891SOL    HW185652  12.547   0.666   9.149 -0.2041 -0.4278  1.1038
57891SOL    HW285653  12.630   0.606   9.038  0.3863 -0.5137  1.5833
57892SOL     OW85654   7.176   8.960   6.137 -0.2299  0.4324  0.3375
57892SOL    HW185655   7.201   9.052   6.130 -0.3352  0.3680 -1.2212
57892SOL    HW285656   7.255   8.917   6.171 -0.3059  1.1214  1.4628
57893SOL     OW85657   1.322   1.091   0.822  0.4014 -0.3388 -0.2999
57893SOL    HW185658   1.408   1.049   0.814  0.4847 -0.1182 -0.6033
57893SOL    HW285659   1.341   1.179   0.857  0.4203  0.1280 -1.4399
57894SOL     OW85660  12.950   1.327  11.954  0.3890  0.3635  0.7436
57894SOL    HW185661  12.991   1.382  11.887  0.3013  0.6441  0.9176
57894SOL    HW285662  12.966   1.237  11.925 -1.8065  0.4432 -1.0210
57895SOL     OW85663  10.946   5.068   9.236  0.3643 -0.0644  0.2916
57895SOL    HW185664  10.899   5.081   9.319  0.3339 -0.0913  0.2781
57895SOL    HW285665  11.032   5.108   9.252  0.9300 -1.4415  0.8744
57896SOL     OW85666   6.754  12.299  12.525  0.1485 -0.6372  0.1822
57896SOL    HW185667   6.776  12.206  12.533 -2.4300 -1.3706 -0.3171
57896SOL    HW285668   6.714  12.306  12.438  0.3879  0.9674  0.1845
57897SOL     OW85669   9.714  11.379   3.014  0.2014 -0.1484 -0.0056
57897SOL    HW185670   9.681  11.377   3.104  0.0204  0.1578 -0.0641
57897SOL    HW285671   9.651  11.432   2.966  0.1188 -0.5859 -0.3888
57898SOL     OW85672   9.198  10.424  10.027  0.4654 -0.1884  0.4201
57898SOL    HW185673   9.284  10.394  10.057  0.7272  0.0265 -0.0903
57898SOL    HW285674   9.195  10.396   9.935 -0.8982 -2.1071  0.9908
57899SOL     OW85675   1.652   6.870   7.771 -0.3334 -1.0540  0.2485
57899SOL    HW185676   1.617   6.942   7.824 -1.5507  0.7705 -2.7842
57899SOL    HW285677   1.718   6.912   7.715  0.6509 -2.8141  0.0295
57900SOL     OW85678  11.642  13.156   8.153  0.1500 -0.1164  0.0863
57900SOL    HW185679  11.613  13.198   8.234  1.9637 -0.4638  0.9712
57900SOL    HW285680  11.563  13.120   8.114 -0.6905 -0.3716  1.9610
57901SOL     OW85681   8.816   3.567   1.513 -0.0703 -0.3940 -0.2480
57901SOL    HW185682   8.821   3.660   1.533  2.8739 -0.2748 -1.0861
57901SOL    HW285683   8.877   3.526   1.574 -1.1969 -1.7991 -0.0022
57902SOL     OW85684  12.549   2.896   6.500 -0.1194 -0.0116 -0.2836
57902SOL    HW185685  12.545   2.886   6.405  0.4603  1.0126 -0.4287
57902SOL    HW285686  12.564   2.807   6.532  0.3645 -0.2779 -1.1978
57903SOL     OW85687   5.799   9.578  12.508  0.1187 -0.0658 -0.3050
57903SOL    HW185688   5.787   9.612  12.420 -0.7638  2.8341  0.8263
57903SOL    HW285689   5.711   9.576  12.546  0.5708 -0.5495  0.7740
57904SOL     OW85690   8.964   5.452   9.449 -0.3772 -0.3374 -0.1132
57904SOL    HW185691   8.998   5.377   9.498 -0.7164 -0.5470 -0.1970
57904SOL    HW285692   9.033   5.519   9.456  0.2589 -0.9211 -0.6751
57905SOL     OW85693  10.297   4.047   5.416  0.6699 -0.0173 -0.5315
57905SOL    HW185694  10.393   4.039   5.422  1.1198 -0.4103 -5.0247
57905SOL    HW285695  10.265   3.963   5.450  2.0438 -0.5743 -0.5172
57906SOL     OW85696   9.178   2.260   8.832 -0.1193  1.1091  0.4380
57906SOL    HW185697   9.219   2.301   8.908 -1.9581  1.4308  1.3143
57906SOL    HW285698   9.204   2.316   8.758  1.2786  1.0768  0.8719
57907SOL     OW85699   0.188   5.806   6.030 -0.2595 -0.2759 -0.1062
57907SOL    HW185700   0.156   5.896   6.036  0.5666 -0.0069  0.5246
57907SOL    HW285701   0.182   5.784   5.937  0.2560  0.7102 -0.3867
57908SOL     OW85702   6.468   4.286   9.623  0.0620 -0.2493  0.2915
57908SOL    HW185703   6.475   4.211   9.564 -1.7464 -0.8281  0.7673
57908SOL    HW285704   6.414   4.256   9.696 -0.2089  1.3433  0.8076
57909SOL     OW85705  10.910   4.963   7.507 -0.0506  0.0894 -0.0407
57909SOL    HW185706  10.980   5.004   7.558  2.2236 -1.2100 -1.9239
57909SOL    HW285707  10.881   4.889   7.561 -0.7921  1.2715  1.2357
57910SOL     OW85708  13.620   1.097   8.231 -0.1420  0.2009  0.2234
57910SOL    HW185709  13.695   1.152   8.207 -0.5775 -0.2765 -2.4918
57910SOL    HW285710  13.551   1.121   8.170 -1.1994 -1.5522  0.6440
57911SOL     OW85711   3.640   6.765   6.735 -0.4714 -0.0557 -0.4069
57911SOL    HW185712   3.725   6.764   6.778 -0.8116  1.5842  0.3689
57911SOL    HW285713   3.644   6.692   6.673  0.5816 -1.5494  1.3281
57912SOL     OW85714   7.940   4.625   4.724 -0.3999  0.0715  0.1362
57912SOL    HW185715   7.936   4.714   4.687 -0.8513 -0.0090 -0.0126
57912SOL    HW285716   7.934   4.568   4.647  0.9215 -0.0966  0.1260
57913SOL     OW85717  10.801   3.070   2.778 -0.1470 -0.2362 -0.2276
57913SOL    HW185718  10.830   3.151   2.735  0.6292 -0.9623 -1.1107
57913SOL    HW285719  10.729   3.039   2.723  0.7371 -1.0751 -0.9639
57914SOL     OW85720   5.521   1.855  11.922  0.2337 -0.3610  0.0380
57914SOL    HW185721   5.522   1.772  11.969 -1.6970 -0.2289  0.3977
57914SOL    HW285722   5.446   1.848  11.863  0.5101  0.8374 -0.4852
57915SOL     OW85723   8.667   2.078   9.071 -0.5269  0.5050  0.0438
57915SOL    HW185724   8.717   2.098   8.992 -0.1073 -1.5026 -0.2626
57915SOL    HW285725   8.729   2.088   9.143 -0.3451  0.3976 -0.0960
57916SOL     OW85726   0.925   3.459   1.679 -0.4968 -0.3151  0.1933
57916SOL    HW185727   0.906   3.464   1.586 -3.1863 -0.1700  0.6748
57916SOL    HW285728   0.842   3.478   1.722  1.1616  2.0696  2.7009
57917SOL     OW85729   4.712  13.155  10.889 -0.4115 -0.4934 -0.1469
57917SOL    HW185730   4.632  13.104  10.875  0.0838 -1.2738 -0.1832
57917SOL    HW285731   4.728  13.197  10.804 -2.0885  1.6350  0.4894
57918SOL     OW85732   3.224   4.473   3.794  0.0140 -0.4988 -0.0448
57918SOL    HW185733   3.257   4.472   3.704  2.2286 -1.3111  0.7155
57918SOL    HW285734   3.162   4.546   3.796  1.8723  1.2389 -1.5733
57919SOL     OW85735   5.712  12.606   2.521 -0.5743 -0.5047  0.1316
57919SOL    HW185736   5.642  12.657   2.563 -1.1560 -1.4532  0.3411
57919SOL    HW285737   5.702  12.625   2.428 -2.9451 -2.7631 -0.1710
57920SOL     OW85738  10.610   9.563   0.709  0.3625 -0.1590  0.2340
57920SOL    HW185739  10.535   9.506   0.692 -0.5975  1.4665 -1.3408
57920SOL    HW285740  10.570   9.647   0.734  1.6797  0.4402  0.3720
57921SOL     OW85741   6.354   4.889  12.989  0.4630 -0.0652 -0.1624
57921SOL    HW185742   6.350   4.832  13.065 -0.4323  0.4582  0.2016
57921SOL    HW285743   6.361   4.829  12.914 -0.0787 -0.6428  0.2398
57922SOL     OW85744   8.285   5.398   8.657  0.3964 -0.1512  0.0466
57922SOL    HW185745   8.202   5.440   8.631  0.5778  0.5982  0.6443
57922SOL    HW285746   8.344   5.415   8.584  0.5161  0.8068  0.3498
57923SOL     OW85747   8.195   7.357  12.237  0.4408  0.0786 -0.4518
57923SOL    HW185748   8.266   7.384  12.295 -0.2353  1.3666 -0.1894
57923SOL    HW285749   8.139   7.302  12.291  0.8688 -0.3624 -0.4578
57924SOL     OW85750   2.292   1.758   2.172 -0.4853 -0.2504 -0.0103
57924SOL    HW185751   2.290   1.751   2.268 -1.4451  0.6890  0.0658
57924SOL    HW285752   2.385   1.749   2.150 -0.2615 -0.6232  0.9955
57925SOL     OW85753   7.027   2.722  10.214 -0.1656 -0.0112  0.4409
57925SOL    HW185754   7.017   2.698  10.306 -0.0879 -0.9338  0.2192
57925SOL    HW285755   7.053   2.815  10.216 -0.3629  0.0342  1.3308
57926SOL     OW85756   1.733  13.158   1.010  0.5905  0.4120  0.5343
57926SOL    HW185757   1.741  13.132   1.102  0.2336  0.6654  0.6381
57926SOL    HW285758   1.642  13.138   0.988  0.6887  0.3104  0.2229
57927SOL     OW85759  12.606   4.117  14.040 -0.1449  0.1491  1.0133
57927SOL    HW185760  12.522   4.092  14.079  0.5883 -1.2126  1.7807
57927SOL    HW285761  12.668   4.054  14.075  1.3885  1.6838  1.1774
57928SOL     OW85762   4.778   2.086   3.913 -0.7474 -0.0872  0.4948
57928SOL    HW185763   4.807   2.082   3.822 -0.5665  1.0758  0.4843
57928SOL    HW285764   4.852   2.053   3.964 -0.8628 -0.7744  0.2236
57929SOL     OW85765   2.938   6.553   9.711  0.1593  0.1356  0.1258
57929SOL    HW185766   2.856   6.554   9.759  1.0391  0.6770  1.6989
57929SOL    HW285767   2.921   6.498   9.635 -1.8475  0.8029  0.0395
57930SOL     OW85768  12.046  12.304  11.212 -0.7174  0.0866  0.2099
57930SOL    HW185769  11.999  12.224  11.234  0.8033 -0.8662  0.1513
57930SOL    HW285770  11.980  12.373  11.216 -2.4048 -1.3658 -1.2179
57931SOL     OW85771   9.949   6.751  10.856 -0.2005  0.3902 -0.1632
57931SOL    HW185772   9.874   6.735  10.915  0.2425 -0.6657  0.1368
57931SOL    HW285773   9.985   6.664  10.839  1.4933  0.9460  0.3924
57932SOL     OW85774   8.918   8.171   2.458 -0.0592 -0.3510 -0.0013
57932SOL    HW185775   8.943   8.143   2.371  1.9301 -1.2804  0.7999
57932SOL    HW285776   8.907   8.266   2.451 -0.9979 -0.5363 -1.4493
57933SOL     OW85777   1.161   8.415   6.907 -0.0301 -0.4730  0.4144
57933SOL    HW185778   1.196   8.331   6.936 -1.1874 -1.1163  0.0294
57933SOL    HW285779   1.066   8.405   6.915 -0.4049 -0.4791 -2.9576
57934SOL     OW85780   0.679  10.655   8.484 -0.2118 -0.3461 -0.4357
57934SOL    HW185781   0.606  10.671   8.424 -1.5024  0.2453  1.2119
57934SOL    HW285782   0.661  10.568   8.520 -1.5747  0.7707  1.8241
57935SOL     OW85783  11.747   2.523   4.647 -0.0975 -0.1932 -0.3430
57935SOL    HW185784  11.788   2.592   4.699 -0.7177  0.2689 -0.4624
57935SOL    HW285785  11.816   2.457   4.637 -0.0502 -0.4327  1.3033
57936SOL     OW85786   2.645  12.016  13.724 -0.2875 -0.3311 -0.1027
57936SOL    HW185787   2.575  11.982  13.780  1.1545  0.2561  2.2093
57936SOL    HW285788   2.655  12.107  13.751  0.6911 -0.1171 -1.1162
57937SOL     OW85789  13.498   2.514   7.498 -0.7338  0.1532 -0.2210
57937SOL    HW185790  13.427   2.550   7.445 -0.7511  0.5311  0.0524
57937SOL    HW285791  13.577   2.556   7.465 -0.5743 -0.6021 -0.8242
57938SOL     OW85792  10.051   5.287  10.252  0.0504 -0.2902 -0.2102
57938SOL    HW185793  10.069   5.208  10.302  0.1424 -0.0314  0.1723
57938SOL    HW285794  10.105   5.354  10.294 -0.8743  0.2285  0.1938
57939SOL     OW85795   0.227  13.007  10.907 -0.1414 -0.0479 -0.4944
57939SOL    HW185796   0.257  12.922  10.938 -0.8555  0.5714  2.1631
57939SOL    HW285797   0.133  12.996  10.894 -0.0421  0.0332 -1.3269
57940SOL     OW85798  13.894   1.866  13.509 -0.6668 -0.1358  0.2086
57940SOL    HW185799  13.812   1.903  13.540 -0.8165 -0.9411  0.8192
57940SOL    HW285800  13.961   1.911  13.560 -0.7412  0.3360 -0.1048
57941SOL     OW85801  12.370   3.236   3.243  0.2121 -0.2443 -0.2117
57941SOL    HW185802  12.398   3.230   3.152  1.4275 -1.1675  0.2002
57941SOL    HW285803  12.357   3.329   3.259  0.0602 -0.0695 -1.3024
57942SOL     OW85804   3.734   3.507   7.560 -0.1237  1.0092  0.1324
57942SOL    HW185805   3.825   3.533   7.543  0.3454 -1.6268 -2.1486
57942SOL    HW285806   3.737   3.465   7.645  1.0603  0.0450 -0.3563
57943SOL     OW85807  10.065  13.205   8.560 -0.1201  0.1659  0.4474
57943SOL    HW185808   9.993  13.263   8.536  0.3816 -0.4266 -2.8975
57943SOL    HW285809  10.143  13.249   8.529  0.5161 -1.1242  0.1465
57944SOL     OW85810  13.848   6.496   8.123  0.5817 -0.5536 -0.3872
57944SOL    HW185811  13.758   6.518   8.146  1.2934  1.3473  0.7438
57944SOL    HW285812  13.866   6.415   8.171 -0.2417 -0.4853  0.0507
57945SOL     OW85813   0.480  12.746   7.221  0.0982  0.0782 -0.0729
57945SOL    HW185814   0.503  12.686   7.292 -0.1314 -0.9464 -0.8352
57945SOL    HW285815   0.386  12.732   7.208  0.4678 -1.2160 -1.8369
57946SOL     OW85816   2.001   2.668  11.561 -0.6143 -0.2203 -0.0156
57946SOL    HW185817   2.035   2.578  11.568 -0.4277 -0.0211  2.2992
57946SOL    HW285818   2.076   2.724  11.583 -0.9347  0.4851 -0.6828
57947SOL     OW85819  13.124   4.457  14.035 -0.0114  0.0482 -1.1856
57947SOL    HW185820  13.174   4.518  14.090 -0.3840 -0.7683  0.1031
57947SOL    HW285821  13.037   4.498  14.027 -0.8144 -1.0627  1.1224
57948SOL     OW85822   4.299   6.619   9.976  0.2955  0.3985 -0.0312
57948SOL    HW185823   4.335   6.624   9.888 -1.2726 -0.3362 -0.7432
57948SOL    HW285824   4.231   6.686   9.979 -0.4050 -0.3060  0.2437
57949SOL     OW85825   1.080  10.425   6.918 -0.1993  0.0855  0.0955
57949SOL    HW185826   1.092  10.424   6.823 -0.0605 -0.1712  0.1157
57949SOL    HW285827   0.992  10.391   6.931 -0.5077  0.8278  0.0180
57950SOL     OW85828  11.365   9.966   5.040 -0.5940  0.2199 -0.0229
57950SOL    HW185829  11.413   9.979   4.958 -0.8274  0.9621 -0.0485
57950SOL    HW285830  11.430   9.931   5.101 -0.6077 -1.1440 -0.7522
57951SOL     OW85831   5.703   4.887  13.366  0.7404  0.6096  0.3758
57951SOL    HW185832   5.744   4.892  13.279 -0.2465  0.8475 -0.1005
57951SOL    HW285833   5.761   4.936  13.423  1.2508  0.7157 -0.2233
57952SOL     OW85834   6.601   9.136  12.566  0.4412  0.1238 -0.2144
57952SOL    HW185835   6.677   9.169  12.613 -0.1811  1.5162 -0.1304
57952SOL    HW285836   6.540   9.110  12.635  0.5365 -0.2762 -0.2780
57953SOL     OW85837   1.729  13.471   2.050  0.7709  0.5137  0.0096
57953SOL    HW185838   1.809  13.524   2.055  0.5753  0.8220 -0.1462
57953SOL    HW285839   1.712  13.444   2.141  1.8614 -0.7620 -0.1274
57954SOL     OW85840  11.736   8.063  13.040  0.5698  0.2593  0.2704
57954SOL    HW185841  11.714   8.034  13.129  0.7645 -0.7687 -0.0085
57954SOL    HW285842  11.691   8.147  13.031 -1.7646 -0.9109  0.3626
57955SOL     OW85843   2.490   0.211   2.432  0.0673 -0.4740 -0.1666
57955SOL    HW185844   2.438   0.133   2.411 -1.4465  0.3016  0.5567
57955SOL    HW285845   2.452   0.281   2.379 -0.7850  0.4781  1.6126
57956SOL     OW85846   7.218   0.538   9.953 -0.2621  0.3148  0.1331
57956SOL    HW185847   7.184   0.451   9.975 -1.8050  0.6870 -0.6528
57956SOL    HW285848   7.312   0.526   9.945 -0.2848 -0.9723  1.4632
57957SOL     OW85849   2.683   2.702   3.849  0.3985  0.1093  0.2145
57957SOL    HW185850   2.645   2.718   3.935 -0.9365 -0.5075 -0.2380
57957SOL    HW285851   2.608   2.699   3.789  1.1309 -1.3564 -0.6927
57958SOL     OW85852   7.385  11.215   8.366 -0.5741 -0.0173  0.1001
57958SOL    HW185853   7.478  11.211   8.388 -0.6789 -0.1851  0.5226
57958SOL    HW285854   7.342  11.235   8.449 -1.0200 -1.1725  0.1689
57959SOL     OW85855   9.294   0.406  11.256 -0.2609  0.7065 -0.0316
57959SOL    HW185856   9.228   0.455  11.205 -1.0219  0.4183  0.6501
57959SOL    HW285857   9.339   0.352  11.191 -1.3914  0.1475 -0.3829
57960SOL     OW85858   5.378   7.330  13.502  0.0005  0.1562  0.0026
57960SOL    HW185859   5.347   7.283  13.580 -0.0201 -2.4733 -1.4849
57960SOL    HW285860   5.359   7.422  13.521 -1.7619 -0.5778  2.3062
57961SOL     OW85861  10.257   2.487   5.457 -0.1890  0.4491  0.1593
57961SOL    HW185862  10.310   2.542   5.515 -1.0413  0.6976  0.7277
57961SOL    HW285863  10.167   2.509   5.479 -0.5409  0.2384 -0.9821
57962SOL     OW85864   8.006   8.564   7.022 -0.2607  0.0743 -0.1840
57962SOL    HW185865   7.936   8.537   6.963  0.0015  1.3932 -1.1344
57962SOL    HW285866   8.087   8.541   6.975 -0.0573  0.4340 -0.0141
57963SOL     OW85867  12.189   7.334   7.861 -0.1052 -0.4434  0.2169
57963SOL    HW185868  12.147   7.372   7.784  0.5739 -0.3793 -0.1372
57963SOL    HW285869  12.171   7.241   7.854 -0.6365 -0.3549  0.3604
57964SOL     OW85870   1.022   5.533   0.631 -0.5216  0.2038 -0.0384
57964SOL    HW185871   1.070   5.455   0.658  0.7419  0.7111 -0.7189
57964SOL    HW285872   1.061   5.604   0.682 -0.6130  0.6117 -0.5245
57965SOL     OW85873   1.854  13.324   2.959  0.3096  0.2560  0.0790
57965SOL    HW185874   1.791  13.311   3.031  0.8253 -0.1382  0.4687
57965SOL    HW285875   1.934  13.282   2.990  0.4245 -0.2713 -0.9034
57966SOL     OW85876   0.015   1.793  11.173 -0.3016  0.2607  0.2563
57966SOL    HW185877   0.082   1.860  11.183 -0.8497  0.9035 -0.3045
57966SOL    HW285878  -0.059   1.825  11.225 -0.7085  0.2937 -0.3334
57967SOL     OW85879   8.985  11.941  10.038 -0.0570 -0.3658 -0.2017
57967SOL    HW185880   8.897  11.976  10.053  0.0823 -0.6507  1.4173
57967SOL    HW285881   8.998  11.949   9.943 -2.0709 -0.8879 -0.5725
57968SOL     OW85882   2.439   6.939   0.347  0.0478 -1.1923  0.0519
57968SOL    HW185883   2.514   6.879   0.349 -0.0466 -1.3000  0.3521
57968SOL    HW285884   2.455   6.994   0.270  0.5718 -1.0355  0.2660
57969SOL     OW85885  11.466   3.427   9.447 -0.3940  0.0477  0.2467
57969SOL    HW185886  11.473   3.478   9.527  1.4150  1.3801 -0.6884
57969SOL    HW285887  11.384   3.457   9.406 -1.3101 -0.6207  1.5078
57970SOL     OW85888   5.964   7.274   2.232  0.6963 -0.4838  0.7611
57970SOL    HW185889   5.962   7.310   2.321  0.6407 -0.5566  0.7889
57970SOL    HW285890   5.872   7.258   2.211  0.7765 -1.3692  1.0529
57971SOL     OW85891   4.746  13.223   7.262 -0.7210 -0.2961  0.4541
57971SOL    HW185892   4.693  13.195   7.186  0.7388  0.1878 -0.7930
57971SOL    HW285893   4.742  13.149   7.322 -2.8727 -0.2449  0.4639
57972SOL     OW85894  12.359  13.108   5.921  0.0904 -0.1754 -0.0632
57972SOL    HW185895  12.447  13.133   5.893 -0.0136 -0.4409 -0.6480
57972SOL    HW285896  12.340  13.165   5.996  1.0906 -0.6962  0.6145
57973SOL     OW85897   5.684  12.170   4.454  0.3346 -0.2466  0.0310
57973SOL    HW185898   5.715  12.084   4.426  0.9953 -0.3687  1.1134
57973SOL    HW285899   5.721  12.230   4.389 -1.6895 -0.9211 -1.8648
57974SOL     OW85900  11.908   5.644   7.996  0.4146  0.7327 -0.3109
57974SOL    HW185901  11.865   5.698   8.062  0.2410  0.4988 -0.2356
57974SOL    HW285902  11.973   5.593   8.044 -0.7686 -0.6040 -0.0615
57975SOL     OW85903  10.234   1.179  10.255  0.1561  0.2467  0.1228
57975SOL    HW185904  10.151   1.154  10.295 -0.0587  3.3456  1.9325
57975SOL    HW285905  10.214   1.256  10.202  1.7099  0.3988 -0.3080
57976SOL     OW85906   1.178   2.184   6.466 -0.0748 -0.2764 -0.0565
57976SOL    HW185907   1.168   2.259   6.524  1.0953 -0.5575  0.5491
57976SOL    HW285908   1.165   2.108   6.523 -0.3093 -0.5430 -0.4603
57977SOL     OW85909   2.334  12.226   4.875  0.3287 -0.7357 -0.4943
57977SOL    HW185910   2.332  12.311   4.919  0.3114 -0.6279 -0.7049
57977SOL    HW285911   2.338  12.163   4.947 -0.9034 -0.6051 -0.2951
57978SOL     OW85912  10.289   7.007   7.519  0.5795  0.4923  0.2893
57978SOL    HW185913  10.219   6.975   7.576  0.0430 -1.3971 -1.3055
57978SOL    HW285914  10.351   6.935   7.513  0.4785  0.5117 -1.7027
57979SOL     OW85915  10.543   2.978  10.601  0.1511 -0.7616  0.3690
57979SOL    HW185916  10.480   3.047  10.580 -0.5314 -1.6969 -0.7539
57979SOL    HW285917  10.622   3.002  10.553  0.5336  0.1662  1.4118
57980SOL     OW85918   7.833   0.555  11.106 -0.3809 -0.4494 -0.0935
57980SOL    HW185919   7.912   0.501  11.115 -0.0868  0.0917  0.5783
57980SOL    HW285920   7.835   0.584  11.014  0.6086  0.1827  0.1205
57981SOL     OW85921   8.116   4.582   1.600 -0.2057 -0.0600  0.4125
57981SOL    HW185922   8.094   4.587   1.507 -1.1314 -1.7713  0.5011
57981SOL    HW285923   8.207   4.554   1.601  0.5471  2.1716  0.0569
57982SOL     OW85924   3.102   1.236   0.125  0.1302 -0.2037  0.0117
57982SOL    HW185925   3.012   1.204   0.129  0.5431 -1.4107  3.7036
57982SOL    HW285926   3.143   1.185   0.056 -1.9975  0.5824 -1.9616
57983SOL     OW85927   5.256  11.188   6.952 -0.3812 -0.1350  0.8489
57983SOL    HW185928   5.279  11.096   6.938  0.0083  0.1982 -0.9814
57983SOL    HW285929   5.223  11.217   6.866  1.2303  1.9199  0.8676
57984SOL     OW85930   3.847   9.640   1.705 -0.2868 -0.0933  0.9826
57984SOL    HW185931   3.856   9.590   1.624 -0.1892 -0.0837  0.9871
57984SOL    HW285932   3.882   9.726   1.683 -0.4334 -0.0330  0.9813
57985SOL     OW85933  12.855   5.524   2.276 -0.3653  0.4075  0.0772
57985SOL    HW185934  12.876   5.484   2.192  0.5478  1.1950 -0.0964
57985SOL    HW285935  12.883   5.460   2.341 -1.0113 -0.1766 -0.2150
57986SOL     OW85936   6.619   1.751  11.184  0.0970  0.1763 -0.0503
57986SOL    HW185937   6.601   1.844  11.175  1.0459  0.2687 -1.1621
57986SOL    HW285938   6.645   1.722  11.096 -1.1153 -1.3482  0.0517
57987SOL     OW85939   1.581   4.025   2.170  0.1864  0.0655  0.6748
57987SOL    HW185940   1.660   4.073   2.194  0.9968 -0.2983 -1.1295
57987SOL    HW285941   1.588   3.942   2.218 -0.9398  1.3829  3.3522
57988SOL     OW85942   3.108  11.238   5.214  0.1771 -0.0270 -0.1034
57988SOL    HW185943   3.065  11.322   5.195  0.8301  0.9007  2.2300
57988SOL    HW285944   3.083  11.218   5.304  1.5647 -1.4123  0.0119
57989SOL     OW85945   9.643   9.478   7.000 -0.8294  0.3750 -0.2338
57989SOL    HW185946   9.695   9.558   6.995 -0.8850  0.3758 -0.9747
57989SOL    HW285947   9.704   9.412   7.033 -0.6389  0.6060 -0.1190
57990SOL     OW85948   9.612   7.311   1.717  0.5134 -0.3337 -0.4005
57990SOL    HW185949   9.600   7.236   1.775  2.2836  1.1171  2.0342
57990SOL    HW285950   9.705   7.307   1.691  0.9351  1.5147  0.6477
57991SOL     OW85951   3.249  11.347   0.409  0.0864 -0.3744 -0.0639
57991SOL    HW185952   3.177  11.388   0.456 -2.9407 -0.8917 -3.7862
57991SOL    HW285953   3.269  11.268   0.459 -1.3663  0.1859  1.4891
57992SOL     OW85954  12.251   3.106   0.517  0.1051  0.0560 -0.6790
57992SOL    HW185955  12.220   3.055   0.443  2.4406 -0.0396 -1.6918
57992SOL    HW285956  12.218   3.194   0.502 -0.1936 -0.1705 -1.3597
57993SOL     OW85957   0.824   4.808  12.553 -0.0354 -0.3653 -0.2661
57993SOL    HW185958   0.785   4.885  12.595  1.9694  0.8377 -0.4798
57993SOL    HW285959   0.775   4.799  12.471 -0.8161  0.1896  0.1239
57994SOL     OW85960  10.819   5.864   5.826  0.3141  0.1256  0.0420
57994SOL    HW185961  10.821   5.895   5.736 -1.1910 -0.6785 -0.3014
57994SOL    HW285962  10.772   5.933   5.874 -1.8770 -0.9058 -0.4769
57995SOL     OW85963   4.920   3.227   1.428 -0.5698 -0.0887 -0.4640
57995SOL    HW185964   4.978   3.290   1.471 -0.4284  0.7084 -1.7837
57995SOL    HW285965   4.845   3.219   1.487  1.1854 -1.7953  1.7137
57996SOL     OW85966  13.929   0.768  12.480 -0.6113  0.2252  0.2103
57996SOL    HW185967  13.938   0.725  12.566 -1.7770 -0.9004 -0.1861
57996SOL    HW285968  13.979   0.712  12.421  0.1614  0.9823  0.1371
57997SOL     OW85969   6.513   8.098   3.014  0.6060 -0.2985  0.6482
57997SOL    HW185970   6.438   8.140   2.973  0.1721  0.8907  2.5834
57997SOL    HW285971   6.588   8.152   2.989  0.5872 -0.4918  0.1548
57998SOL     OW85972  13.577   0.914   1.133  0.1446 -0.5372 -0.2438
57998SOL    HW185973  13.619   0.928   1.048 -0.5783 -0.6053 -0.6263
57998SOL    HW285974  13.587   0.998   1.179  1.5606 -0.8642  0.0750
57999SOL     OW85975   6.015   6.456   5.685 -0.4081  0.0646  0.9286
57999SOL    HW185976   5.927   6.434   5.715 -0.2427 -1.6456  0.2496
57999SOL    HW285977   6.014   6.437   5.591  1.0062 -1.1163  1.1182
58000SOL     OW85978   8.303   9.918  13.203 -0.0417  0.8912 -0.8493
58000SOL    HW185979   8.291   9.941  13.295  0.3781  0.8126 -0.7733
58000SOL    HW285980   8.214   9.902  13.170 -0.1793  0.7607 -0.4170
58001SOL     OW85981  13.367   6.529  12.861 -0.1697 -0.7589  0.1888
58001SOL    HW185982  13.282   6.569  12.842  0.9245  2.0066  0.6593
58001SOL    HW285983  13.369   6.521  12.956 -0.2506 -1.7152  0.1196
58002SOL     OW85984   2.046  13.536  12.528 -0.6548 -0.4537 -0.8570
58002SOL    HW185985   2.085  13.452  12.502 -0.5044 -0.3347 -1.0208
58002SOL    HW285986   1.959  13.535  12.489 -0.9282 -0.8465 -0.2449
58003SOL     OW85987  10.613   2.898   4.684  0.5335  0.5724 -0.7089
58003SOL    HW185988  10.680   2.831   4.670 -0.5319 -0.9196  0.9247
58003SOL    HW285989  10.659   2.969   4.730  1.5430  0.7611 -1.9627
58004SOL     OW85990   7.690   6.524   4.768  0.4925 -0.1695 -0.5676
58004SOL    HW185991   7.760   6.585   4.744  1.0980 -1.2742 -1.7829
58004SOL    HW285992   7.624   6.578   4.810  1.0853  1.2976 -1.4435
58005SOL     OW85993   2.502   3.306  10.414 -0.0371  0.1070 -0.0447
58005SOL    HW185994   2.421   3.315  10.464  1.1892  2.0583  1.7607
58005SOL    HW285995   2.545   3.391  10.422  2.0354 -0.7368 -1.2398
58006SOL     OW85996  12.894   0.689  12.818 -0.4606  0.6736  0.0639
58006SOL    HW185997  12.815   0.743  12.820  0.6780  2.4095  1.0420
58006SOL    HW285998  12.878   0.621  12.884 -1.5001  0.4238 -0.4217
58007SOL     OW85999  10.639  12.153   7.792  0.2245  0.7043  0.0503
58007SOL    HW186000  10.670  12.088   7.730  0.7161  1.5570 -0.6208
58007SOL    HW286001  10.705  12.222   7.790 -1.1801  2.1093 -0.6852
58008SOL     OW86002   8.017   9.937   3.032 -0.5956 -0.0797  0.0016
58008SOL    HW186003   8.055  10.009   3.082 -1.0269  0.9657 -1.1237
58008SOL    HW286004   7.961   9.892   3.094  2.0114 -1.3794  1.5811
58009SOL     OW86005  12.999  11.016   9.539 -0.4781 -0.4659  0.1802
58009SOL    HW186006  13.043  10.979   9.463 -0.8021 -0.0004 -0.2398
58009SOL    HW286007  12.906  11.011   9.519 -0.5516  3.7941 -1.5458
58010SOL     OW86008   3.390   4.806  10.089 -0.3900  0.3136  0.4797
58010SOL    HW186009   3.354   4.750  10.158 -1.3602 -1.0782 -1.0884
58010SOL    HW286010   3.483   4.783  10.085 -0.9162 -1.8835 -0.6897
58011SOL     OW86011   8.353   3.598  10.238 -0.0732  0.0711 -0.8851
58011SOL    HW186012   8.357   3.515  10.190 -1.1058  0.9405 -2.5544
58011SOL    HW286013   8.441   3.608  10.276  0.6840 -0.8208 -2.3229
58012SOL     OW86014   4.415  13.732  10.656  0.3684 -0.4098 -0.0742
58012SOL    HW186015   4.363  13.766  10.583  0.5905  1.3272  0.5439
58012SOL    HW286016   4.364  13.658  10.689 -1.9731  1.4746  0.7893
58013SOL     OW86017   8.587   0.520   4.564 -0.4557  0.5031 -0.1871
58013SOL    HW186018   8.533   0.509   4.486 -0.3728 -1.4177 -0.0362
58013SOL    HW286019   8.675   0.536   4.530 -0.5285  0.2792 -0.4890
58014SOL     OW86020  12.186  13.747  10.517 -0.4107 -0.3389  0.4272
58014SOL    HW186021  12.167  13.804  10.443 -1.1493 -0.4775  0.5048
58014SOL    HW286022  12.167  13.799  10.595  1.6446  0.2718  0.5859
58015SOL     OW86023  12.479  13.896   2.944 -0.2116 -0.2716  0.1602
58015SOL    HW186024  12.466  13.921   3.036  1.8297  0.2088  0.3671
58015SOL    HW286025  12.533  13.966   2.908  0.9708 -1.6171 -0.7748
58016SOL     OW86026  12.702   2.756   4.333 -0.1283  0.1481  0.3104
58016SOL    HW186027  12.691   2.747   4.238  1.9092  0.8324 -0.0566
58016SOL    HW286028  12.727   2.669   4.363 -1.3334 -0.2048  0.3386
58017SOL     OW86029   9.864   0.007   9.820 -0.0387 -0.1306 -0.2414
58017SOL    HW186030   9.919   0.079   9.851  0.7812 -0.3501 -1.1254
58017SOL    HW286031   9.924  -0.067   9.814 -0.8000 -0.8065  0.3165
58018SOL     OW86032   0.638   3.712   2.302  0.2108  0.1774 -0.2107
58018SOL    HW186033   0.681   3.764   2.234  0.6258  1.5634  1.0559
58018SOL    HW286034   0.710   3.674   2.352 -0.0053  1.4331  1.1178
58019SOL     OW86035  13.814   3.034  11.205 -0.6027  0.2212 -0.3308
58019SOL    HW186036  13.807   3.110  11.147 -1.5507  1.9586  1.9436
58019SOL    HW286037  13.891   3.051  11.259  1.6429 -2.4420 -2.3508
58020SOL     OW86038   4.270   4.636   9.281  0.2457 -0.1653  0.1969
58020SOL    HW186039   4.241   4.627   9.372  1.4463 -0.5842  0.5493
58020SOL    HW286040   4.282   4.546   9.250  2.2403 -0.0262  0.4361
58021SOL     OW86041   3.301   5.451   4.521 -0.3523 -0.1736 -0.1564
58021SOL    HW186042   3.236   5.440   4.590 -1.0499 -3.3263 -1.1299
58021SOL    HW286043   3.288   5.540   4.488 -1.0364  0.8452  2.6535
58022SOL     OW86044   4.027   2.572   5.566 -0.2185 -0.0483 -0.0034
58022SOL    HW186045   3.953   2.593   5.623  0.5243  1.2535  0.5123
58022SOL    HW286046   4.047   2.481   5.585 -0.1348  0.2925  1.6530
58023SOL     OW86047   8.161   5.935   3.280  0.4054  0.4727  0.4374
58023SOL    HW186048   8.229   5.996   3.309  0.3309  1.4799 -1.3190
58023SOL    HW286049   8.163   5.864   3.344  1.7885  1.4068  1.5001
58024SOL     OW86050  12.105   8.232   4.463  0.5585 -0.2967  0.0547
58024SOL    HW186051  12.053   8.311   4.476  2.3026  0.6904  1.4312
58024SOL    HW286052  12.090   8.180   4.542  1.9996  0.2252  0.6905
58025SOL     OW86053   3.679   3.608  11.015  0.5718  0.0595 -0.1506
58025SOL    HW186054   3.620   3.553  10.964  1.3153 -1.2762  0.3866
58025SOL    HW286055   3.621   3.657  11.074 -0.2043  0.8351 -1.5213
58026SOL     OW86056   9.623  10.392  13.043 -0.3930 -0.2783  0.3480
58026SOL    HW186057   9.559  10.330  13.007 -0.5649 -0.3900  0.8390
58026SOL    HW286058   9.683  10.409  12.971  0.1212 -1.6174  0.4250
58027SOL     OW86059   7.308   0.672   9.707  0.6292 -0.9232 -0.2303
58027SOL    HW186060   7.384   0.724   9.731 -0.3898 -0.3214  1.9385
58027SOL    HW286061   7.253   0.672   9.785 -1.6247 -1.3041 -1.7162
58028SOL     OW86062   7.690  11.551   4.530  0.4254 -0.2908  0.0881
58028SOL    HW186063   7.663  11.629   4.481 -0.8324 -1.0277 -0.4416
58028SOL    HW286064   7.785  11.562   4.542  0.4148  0.9059 -0.7145
58029SOL     OW86065  12.510   6.488   7.672  0.2283 -0.2352 -0.2515
58029SOL    HW186066  12.491   6.570   7.718  0.9793  0.7323 -1.6316
58029SOL    HW286067  12.565   6.513   7.599 -1.5969 -1.5915 -2.2185
58030SOL     OW86068   1.048  10.160  13.737  0.3737  0.5602  0.2932
58030SOL    HW186069   1.113  10.191  13.673 -0.6186  0.2889 -0.8784
58030SOL    HW286070   1.098  10.103  13.796  1.2277  0.4424 -0.5172
58031SOL     OW86071   3.189   5.754  10.924  0.3635 -0.6131 -0.7093
58031SOL    HW186072   3.262   5.774  10.864  0.6841 -1.8865 -0.7740
58031SOL    HW286073   3.215   5.794  11.007  0.7318 -0.3357 -0.9528
58032SOL     OW86074   1.766   4.686  12.457  0.0239  0.0907  0.4934
58032SOL    HW186075   1.832   4.689  12.389 -0.6375  0.1816 -0.1558
58032SOL    HW286076   1.816   4.682  12.539  0.9108 -4.0401 -0.0522
58033SOL     OW86077   1.038   5.738   4.388  0.1018 -0.2612 -0.4807
58033SOL    HW186078   0.998   5.825   4.380  0.8084  0.1564  0.2788
58033SOL    HW286079   1.119   5.744   4.336  0.9238  0.0603  0.7711
58034SOL     OW86080   8.020   4.458   9.838  0.4035  0.8773  0.2772
58034SOL    HW186081   8.024   4.551   9.857  0.5269  1.5654 -2.6047
58034SOL    HW286082   7.931   4.432   9.863 -0.1788  2.1701 -0.3648
58035SOL     OW86083   6.962  11.522  13.717 -0.1671 -0.2077  0.1965
58035SOL    HW186084   6.906  11.540  13.793 -0.0987  2.2223 -0.2454
58035SOL    HW286085   7.050  11.542  13.748  0.0767 -0.8505 -0.0627
58036SOL     OW86086  11.196  10.235   2.033  0.5096  0.1360  0.0219
58036SOL    HW186087  11.270  10.221   2.093  0.7084  0.6837 -0.0925
58036SOL    HW286088  11.188  10.152   1.986  1.2253  0.1596 -0.1528
58037SOL     OW86089   8.510  14.010   9.183  0.4240  0.3721  0.3959
58037SOL    HW186090   8.424  14.049   9.171  0.8958  1.1338 -0.6949
58037SOL    HW286091   8.508  13.930   9.130  0.0201 -0.2103  1.2783
58038SOL     OW86092  13.116  10.483  10.590  0.4349 -0.5743 -0.3743
58038SOL    HW186093  13.164  10.420  10.536  0.9215  0.7644 -1.5548
58038SOL    HW286094  13.171  10.494  10.667  2.6730  1.6697 -2.1320
58039SOL     OW86095   1.221   8.374   7.938  0.1621  0.4755  0.1170
58039SOL    HW186096   1.250   8.320   8.012 -1.4821  1.2114  1.3592
58039SOL    HW286097   1.168   8.315   7.884 -0.7693  0.5547  0.9194
58040SOL     OW86098   3.293   0.460   5.255  0.7346 -0.6691 -0.1229
58040SOL    HW186099   3.212   0.433   5.212  0.1450  2.3511 -1.1267
58040SOL    HW286100   3.351   0.487   5.183  0.9951  1.2371  0.7384
58041SOL     OW86101   5.754   9.016   3.342 -0.7091 -0.0162 -0.1309
58041SOL    HW186102   5.724   8.928   3.366  0.7011 -0.7930 -1.0471
58041SOL    HW286103   5.753   9.065   3.424 -1.8414 -0.7739  0.3378
58042SOL     OW86104  11.713  13.867   1.370 -0.1474 -0.1354  0.0716
58042SOL    HW186105  11.625  13.861   1.408  0.6019  0.2211  2.0038
58042SOL    HW286106  11.707  13.941   1.309 -1.2426 -0.2646 -0.0066
58043SOL     OW86107   6.666   2.125   4.088  0.8398 -0.2414 -0.5111
58043SOL    HW186108   6.639   2.141   4.178 -0.5131  0.8528 -1.0716
58043SOL    HW286109   6.716   2.044   4.092  0.7555 -0.2458  1.2072
58044SOL     OW86110   1.416   4.415   2.162  0.4468  0.1972 -0.2618
58044SOL    HW186111   1.394   4.480   2.230  1.1578 -0.6134  0.7670
58044SOL    HW286112   1.500   4.378   2.190  0.9729  0.1559 -1.8346
58045SOL     OW86113  12.415  12.631   7.645 -0.5672  0.3839 -0.1097
58045SOL    HW186114  12.486  12.605   7.703  0.2084  0.2371 -1.0964
58045SOL    HW286115  12.407  12.726   7.658 -0.0633  0.4302 -0.1269
58046SOL     OW86116  12.233  10.829   2.513  0.8606  0.3002  0.1258
58046SOL    HW186117  12.243  10.760   2.447  1.7133 -0.2728  0.8312
58046SOL    HW286118  12.216  10.782   2.594  1.2690  0.9318  0.5803
58047SOL     OW86119  13.453   6.519   7.732  0.3064  0.0463 -0.6918
58047SOL    HW186120  13.455   6.509   7.827  1.6647  1.2713 -0.5509
58047SOL    HW286121  13.525   6.579   7.713 -0.0385 -0.0533 -2.4884
58048SOL     OW86122  11.807   9.422   8.154  0.2559 -0.4437  0.4569
58048SOL    HW186123  11.862   9.418   8.232  1.2822 -1.0634 -0.2894
58048SOL    HW286124  11.738   9.358   8.171 -0.0853  0.1147  1.2574
58049SOL     OW86125  12.330  12.861   9.420  0.2804 -0.1379  0.8117
58049SOL    HW186126  12.248  12.879   9.373  1.8792 -1.6201 -2.9755
58049SOL    HW286127  12.380  12.943   9.411  0.0995 -0.0006  1.0464
58050SOL     OW86128   6.525  11.963  11.179 -0.4830 -0.5956  0.2440
58050SOL    HW186129   6.456  12.029  11.176  1.4714  1.6431  1.3176
58050SOL    HW286130   6.604  12.011  11.201  1.2256 -3.2270  0.3872
58051SOL     OW86131   7.139  11.656  12.881  0.7707  0.0057  0.0605
58051SOL    HW186132   7.060  11.602  12.889  1.2806 -0.6780  0.5702
58051SOL    HW286133   7.128  11.702  12.797  1.0424 -2.1072 -1.2049
58052SOL     OW86134  12.581  13.360  11.860 -0.1878 -0.6108  0.2056
58052SOL    HW186135  12.596  13.338  11.768 -1.6122 -0.7743 -0.0122
58052SOL    HW286136  12.617  13.286  11.909  2.5924  0.4380 -0.0362
58053SOL     OW86137   3.703  10.354   7.578 -0.5362  0.2800  0.2067
58053SOL    HW186138   3.710  10.450   7.580 -0.8610  0.2989  0.5003
58053SOL    HW286139   3.652  10.336   7.499  0.5032  0.2801 -0.4922
58054SOL     OW86140  12.941   3.642  10.240 -0.0447 -0.2136 -0.3073
58054SOL    HW186141  12.880   3.716  10.241  1.4728  1.0996  0.1408
58054SOL    HW286142  12.966   3.633  10.148  0.3833  0.3922 -0.2575
58055SOL     OW86143   1.944   8.042  12.781 -0.3017  0.0529  0.2988
58055SOL    HW186144   1.891   7.973  12.820  1.3354 -1.8094 -0.6340
58055SOL    HW286145   1.905   8.057  12.695 -2.8652  2.9711  1.7529
58056SOL     OW86146   6.543   4.173   4.950 -0.0790  0.1602 -0.0235
58056SOL    HW186147   6.465   4.170   5.006  0.2863 -2.0934  0.4723
58056SOL    HW286148   6.509   4.157   4.862 -0.1907 -1.2729  0.2487
58057SOL     OW86149   0.389  13.073   0.522 -0.0418 -0.0412 -0.3410
58057SOL    HW186150   0.354  13.077   0.610  0.3592 -0.1863 -0.1705
58057SOL    HW286151   0.372  13.160   0.486  0.3784  0.2347  0.1126
58058SOL     OW86152   3.587   1.065   0.504 -0.1127 -1.1233 -0.5722
58058SOL    HW186153   3.569   0.975   0.477  3.7359 -1.7482 -1.6366
58058SOL    HW286154   3.656   1.057   0.570 -0.3555  1.0091  0.0059
58059SOL     OW86155   6.206  10.612   3.932  0.1345  0.0700  0.1521
58059SOL    HW186156   6.269  10.666   3.981 -1.9336  2.1790  0.6519
58059SOL    HW286157   6.206  10.529   3.979  1.0671  0.7162  1.3763
58060SOL     OW86158  11.270   8.548   8.983 -0.5955 -0.7072  0.1405
58060SOL    HW186159  11.178   8.523   8.970 -1.9816  2.5424  2.4435
58060SOL    HW286160  11.301   8.488   9.050 -2.3215  0.4237  2.0800
58061SOL     OW86161   8.619   8.742   7.238 -0.5033  0.0736  0.7046
58061SOL    HW186162   8.691   8.802   7.217  0.4362 -0.6504  1.7478
58061SOL    HW286163   8.595   8.702   7.154  0.1224  0.5226  0.3086
58062SOL     OW86164   3.475   0.561  11.751  0.0691  0.3955  0.4204
58062SOL    HW186165   3.406   0.511  11.706 -0.3558  1.4462 -0.1304
58062SOL    HW286166   3.527   0.600  11.680  1.6180 -0.8546  0.8151
58063SOL     OW86167  11.992   5.115   9.463  0.1237 -0.3861  0.5504
58063SOL    HW186168  11.986   5.210   9.471 -0.8632 -0.5173  1.5485
58063SOL    HW286169  12.079   5.100   9.424  0.2703  0.9107  0.3302
58064SOL     OW86170   8.746   1.411  12.182 -0.0114 -0.5542 -0.6249
58064SOL    HW186171   8.749   1.415  12.278 -0.6091 -0.7948 -0.5924
58064SOL    HW286172   8.758   1.502  12.154 -1.3468 -0.2490 -0.2696
58065SOL     OW86173   2.978   6.072  13.177  0.4698 -0.0727 -0.4397
58065SOL    HW186174   2.994   6.053  13.270 -2.3900  0.9867  0.3710
58065SOL    HW286175   3.054   6.124  13.150  1.1841 -0.0646  1.4208
58066SOL     OW86176   3.130   5.887   3.095  0.4754  0.2782  0.1084
58066SOL    HW186177   3.075   5.944   3.149  0.1232  1.4282 -1.4053
58066SOL    HW286178   3.215   5.887   3.139  0.0254  0.6507  1.0058
58067SOL     OW86179   4.765   6.204   2.750  0.2036  0.5596  0.5834
58067SOL    HW186180   4.701   6.137   2.724 -0.2817  0.6366  1.5194
58067SOL    HW286181   4.786   6.182   2.841  1.1266  0.8444  0.4480
58068SOL     OW86182  12.757   0.739   7.305  0.2039  0.1872 -0.3282
58068SOL    HW186183  12.734   0.702   7.390  0.5901  0.0732 -0.2715
58068SOL    HW286184  12.847   0.770   7.316  0.7716 -1.1002 -1.0992
58069SOL     OW86185  12.236   0.998   0.276 -0.3997 -0.6254  0.1898
58069SOL    HW186186  12.168   1.010   0.341  0.2721  1.6787  0.5261
58069SOL    HW286187  12.286   1.079   0.277  0.3684 -0.9741 -2.3576
58070SOL     OW86188   5.332   0.493   6.179  0.4515 -0.0838 -0.6645
58070SOL    HW186189   5.304   0.470   6.090  0.4246  1.5372 -1.1075
58070SOL    HW286190   5.254   0.530   6.220  0.8904  0.7398 -0.5503
58071SOL     OW86191   6.987   0.727   1.679  0.4162  0.6672  0.1838
58071SOL    HW186192   6.992   0.669   1.754  1.5571  2.1477  1.3284
58071SOL    HW286193   6.926   0.685   1.619 -0.3349 -0.6800  1.8235
58072SOL     OW86194   2.976  13.229   3.519 -0.0523  0.4349  0.1968
58072SOL    HW186195   2.914  13.188   3.578  0.2944 -4.2561 -2.2348
58072SOL    HW286196   2.928  13.242   3.437  0.4656  3.2836  0.2280
58073SOL     OW86197   4.894   3.200   7.280  0.0105 -0.1850  0.3173
58073SOL    HW186198   4.875   3.290   7.306  0.6571  0.1356 -0.2706
58073SOL    HW286199   4.904   3.204   7.185  2.0276 -0.4688  0.4567
58074SOL     OW86200  13.092   8.715   7.035  0.2230 -0.0504 -0.2092
58074SOL    HW186201  13.103   8.726   6.941 -1.8162 -2.5849 -0.8723
58074SOL    HW286202  13.163   8.658   7.062  0.6982  0.5263 -0.2158
58075SOL     OW86203   2.202   8.794   5.015  0.2422  0.0855  0.0821
58075SOL    HW186204   2.211   8.829   4.926 -0.2568 -0.1370 -0.0639
58075SOL    HW286205   2.202   8.699   5.002 -2.3603  0.0219  0.0114
58076SOL     OW86206  11.119   8.810   5.252 -0.4182  0.7625 -0.0790
58076SOL    HW186207  11.105   8.725   5.210 -2.1626 -0.6409  3.0192
58076SOL    HW286208  11.208   8.805   5.288 -0.8528 -0.1444  0.8861
58077SOL     OW86209   0.883   4.640   1.865  0.1148  0.6001  0.2792
58077SOL    HW186210   0.844   4.613   1.782 -0.1217  0.3945  0.4572
58077SOL    HW286211   0.911   4.559   1.906 -0.4782  0.6379  0.7554
58078SOL     OW86212  10.556   5.738   1.558 -0.1231 -0.2825  0.2877
58078SOL    HW186213  10.504   5.768   1.483  2.5718  1.5949 -1.0078
58078SOL    HW286214  10.493   5.733   1.630 -2.3528  0.3836 -1.4837
58079SOL     OW86215   5.829   5.937   8.070 -0.3119  0.7516 -0.5265
58079SOL    HW186216   5.821   5.991   7.992 -0.0924  0.5251 -0.7090
58079SOL    HW286217   5.919   5.902   8.066 -0.2252  0.9092 -0.0640
58080SOL     OW86218   0.375   7.286   8.998  0.1342  0.0899 -0.4586
58080SOL    HW186219   0.350   7.289   8.906 -1.6776  1.0170  0.0190
58080SOL    HW286220   0.379   7.378   9.025  1.3066 -0.1409  0.2454
58081SOL     OW86221   5.228  12.875   1.253  0.1520 -0.1533 -0.0895
58081SOL    HW186222   5.239  12.783   1.230  1.1866 -0.1989  0.5061
58081SOL    HW286223   5.182  12.914   1.179 -0.7841 -1.2605 -0.1080
58082SOL     OW86224  11.249   4.678   9.281 -0.2956  0.5110 -0.7411
58082SOL    HW186225  11.208   4.599   9.317 -1.5934  0.7899 -1.5473
58082SOL    HW286226  11.176   4.731   9.250  0.5962  1.7572 -0.7867
58083SOL     OW86227   7.212   8.407   2.887 -0.2662 -0.3511  0.1664
58083SOL    HW186228   7.134   8.415   2.833 -1.7908 -2.3746  1.8968
58083SOL    HW286229   7.262   8.486   2.868 -1.9010  0.2250 -2.2498
58084SOL     OW86230   2.368   3.557   2.899 -0.2417 -0.1901  0.0533
58084SOL    HW186231   2.276   3.540   2.919 -0.2129  1.3939  1.7742
58084SOL    HW286232   2.365   3.608   2.817 -0.7158 -2.0286 -1.1295
58085SOL     OW86233   3.565   7.894   9.413  0.2902 -0.2248 -0.0409
58085SOL    HW186234   3.533   7.825   9.470 -0.5398  0.3818  0.2498
58085SOL    HW286235   3.508   7.890   9.336  1.1193 -0.7507 -0.6474
58086SOL     OW86236   2.012   6.109  11.594 -0.2498 -0.2746 -0.3186
58086SOL    HW186237   1.995   6.016  11.610 -1.8313  0.3360  2.0250
58086SOL    HW286238   1.957   6.131  11.518  0.0910 -1.2031 -0.8542
58087SOL     OW86239   9.188   0.825   7.972 -0.2832  0.2562  0.0761
58087SOL    HW186240   9.193   0.803   7.879 -1.6709 -1.0562  0.2700
58087SOL    HW286241   9.279   0.824   8.001  0.1448  0.2969 -1.1761
58088SOL     OW86242  10.560   8.832   0.463  0.3400 -0.1136  0.5374
58088SOL    HW186243  10.502   8.852   0.389 -1.8455  1.0180  2.4399
58088SOL    HW286244  10.648   8.849   0.429 -0.5729  0.3123 -1.8152
58089SOL     OW86245   1.361  10.840   5.765 -0.1589  0.2452  0.3798
58089SOL    HW186246   1.393  10.927   5.740  1.0265 -0.3151 -0.1099
58089SOL    HW286247   1.326  10.804   5.684 -0.6515  0.2480  0.5848
58090SOL     OW86248   2.742   4.844   5.889 -0.1990 -0.1626  0.3758
58090SOL    HW186249   2.790   4.804   5.961 -1.8484 -0.8202  1.1405
58090SOL    HW286250   2.674   4.781   5.867 -1.1931  1.0714 -0.1833
58091SOL     OW86251   1.116   4.195   0.700 -0.0840 -0.2228 -0.4816
58091SOL    HW186252   1.066   4.137   0.757  0.6803 -2.3372 -1.8574
58091SOL    HW286253   1.175   4.242   0.758 -1.6361  0.1844  0.8257
58092SOL     OW86254  10.935   1.051  12.400 -0.2571 -0.3305 -0.2725
58092SOL    HW186255  11.024   1.076  12.378  0.4385 -1.1597  1.3763
58092SOL    HW286256  10.880   1.115  12.355  1.1459  0.1258 -1.4159
58093SOL     OW86257  11.613   5.061   6.473  0.3444  0.2826 -0.0347
58093SOL    HW186258  11.535   5.062   6.417 -0.6204 -1.4218  1.2148
58093SOL    HW286259  11.682   5.027   6.417 -0.5604 -1.1927 -0.3122
58094SOL     OW86260   2.108   6.095   9.643  0.1356 -0.1267  0.0447
58094SOL    HW186261   2.050   6.132   9.576 -1.9760  0.6684  2.2022
58094SOL    HW286262   2.116   6.163   9.709  4.4397  0.1978 -0.5155
58095SOL     OW86263   2.395  10.976  10.694 -0.1245  0.5272 -0.2966
58095SOL    HW186264   2.336  10.996  10.767 -0.5291 -1.6133  0.0350
58095SOL    HW286265   2.482  10.967  10.735 -0.0162  1.1638 -0.3818
58096SOL     OW86266   3.058   1.007   3.635 -0.2860 -0.2580 -0.3261
58096SOL    HW186267   3.022   1.042   3.554 -1.5220  0.4537  0.5084
58096SOL    HW286268   2.994   1.030   3.702  0.9427 -0.4071  0.9444
58097SOL     OW86269   3.739   6.390   5.182  0.2964 -0.2414 -0.0834
58097SOL    HW186270   3.678   6.337   5.131 -0.7288  1.0249 -0.2350
58097SOL    HW286271   3.693   6.473   5.194  1.9464  0.6922 -0.0533
58098SOL     OW86272   5.854  12.716  12.955  0.0269 -0.0360  0.2127
58098SOL    HW186273   5.949  12.702  12.950 -0.1569 -0.7439 -2.0225
58098SOL    HW286274   5.819  12.631  12.983 -0.0472 -0.1648 -0.2678
58099SOL     OW86275   6.330  11.263   1.227  0.1689 -0.3619 -1.3165
58099SOL    HW186276   6.380  11.246   1.147  0.3825  0.0949 -1.2878
58099SOL    HW286277   6.257  11.203   1.224  0.3522 -0.5655 -1.7025
58100SOL     OW86278   4.805   5.830   2.176  0.1322 -0.4022  0.7038
58100SOL    HW186279   4.766   5.745   2.199 -1.2791 -0.1684 -0.6199
58100SOL    HW286280   4.831   5.820   2.084 -0.7290  0.8063  0.3037
58101SOL     OW86281   2.699   0.934   3.699 -0.4428 -0.3116  0.4050
58101SOL    HW186282   2.641   0.874   3.746  1.2876 -1.7599  0.7578
58101SOL    HW286283   2.746   0.981   3.768  0.7012 -1.0495  0.1481
58102SOL     OW86284   9.808   3.272  12.703 -0.7508  0.2270  0.0704
58102SOL    HW186285   9.865   3.278  12.780 -0.9962 -1.2179  0.3940
58102SOL    HW286286   9.782   3.362  12.685  2.3686  1.1141 -0.6680
58103SOL     OW86287  12.096  13.535   6.399  0.2368 -0.2416 -0.5342
58103SOL    HW186288  12.020  13.537   6.458 -0.1796 -0.6957 -1.0403
58103SOL    HW286289  12.141  13.618   6.415 -0.4927  0.1347 -0.3873
58104SOL     OW86290   8.983  13.619   8.928 -0.0584 -0.0473  0.2924
58104SOL    HW186291   8.900  13.570   8.927 -0.6672  0.9256  0.8315
58104SOL    HW286292   9.010  13.617   9.019  0.9935 -1.1144 -0.0290
58105SOL     OW86293   2.619   6.907   5.953 -0.5399 -0.0803 -0.7150
58105SOL    HW186294   2.553   6.855   5.998 -2.4030  2.6195 -0.0608
58105SOL    HW286295   2.702   6.884   5.996 -1.8168  0.0954  2.0382
58106SOL     OW86296  12.809   7.810   8.007  0.1054  0.3284  0.2501
58106SOL    HW186297  12.902   7.826   7.989  0.3688 -0.1362  1.1377
58106SOL    HW286298  12.765   7.891   7.980  0.7137  0.3951 -0.5719
58107SOL     OW86299   9.403   8.010   1.535  0.2081  0.0203  0.1348
58107SOL    HW186300   9.380   8.049   1.620 -0.1119  0.5706 -0.1980
58107SOL    HW286301   9.319   7.980   1.499  0.0820  1.3303 -0.7363
58108SOL     OW86302  12.258   3.008   1.374  0.0829 -0.0845  0.1607
58108SOL    HW186303  12.165   2.983   1.371 -0.2162  0.7478  1.7248
58108SOL    HW286304  12.304   2.924   1.367 -0.8415 -0.7650  1.5846
58109SOL     OW86305  13.047   6.093   1.697  0.0421  0.4359 -0.0946
58109SOL    HW186306  13.029   6.022   1.758 -1.6747 -0.3158 -1.3921
58109SOL    HW286307  13.103   6.153   1.746 -1.7964  0.2305  2.4532
58110SOL     OW86308   4.978   3.841  12.955  0.0191 -0.1608 -0.0493
58110SOL    HW186309   5.061   3.844  12.908  0.0439 -1.7145 -0.1567
58110SOL    HW286310   4.912   3.856  12.888  0.1996  2.4280  0.2375
58111SOL     OW86311  12.129  10.648   1.591 -0.1271 -0.2014 -0.0696
58111SOL    HW186312  12.158  10.565   1.630 -1.7430 -0.6463  0.2723
58111SOL    HW286313  12.129  10.632   1.497 -0.4885 -0.6250 -0.0007
58112SOL     OW86314   0.502  12.409   8.403 -0.3198  0.4082  0.1152
58112SOL    HW186315   0.477  12.402   8.495  0.3543 -2.1052  0.1763
58112SOL    HW286316   0.571  12.344   8.391 -1.8753 -0.9284 -2.6373
58113SOL     OW86317   6.127  13.346  10.391  0.1616 -0.3486  0.1620
58113SOL    HW186318   6.098  13.392  10.312 -0.4953 -2.1530 -0.7043
58113SOL    HW286319   6.179  13.411  10.438  0.7275  0.7565 -1.8376
58114SOL     OW86320   6.572   3.994  12.371 -0.6025  0.2854  0.1224
58114SOL    HW186321   6.662   3.968  12.391 -0.2647  1.4491  0.1665
58114SOL    HW286322   6.529   3.999  12.457 -0.3511  1.0131  0.2041
58115SOL     OW86323   1.188   3.445   8.239 -0.5391 -0.0025 -0.4083
58115SOL    HW186324   1.098   3.433   8.207 -1.5063 -1.1595  2.4484
58115SOL    HW286325   1.178   3.470   8.331  2.0765  2.3865 -0.6248
58116SOL     OW86326   6.296   9.978   4.951 -0.2057  0.8708 -0.2483
58116SOL    HW186327   6.202   9.975   4.933 -0.8564  0.9975  2.6980
58116SOL    HW286328   6.318  10.071   4.945 -0.2134  0.8209 -1.1277
58117SOL     OW86329  10.030  11.192  11.794  0.3690  0.0846 -0.3139
58117SOL    HW186330  10.092  11.129  11.829 -0.5332 -1.1656 -0.8665
58117SOL    HW286331  10.056  11.204  11.703 -0.5022 -0.8787 -0.7073
58118SOL     OW86332   5.030   3.341   9.094  0.1652 -0.0424  0.2948
58118SOL    HW186333   5.038   3.370   9.003 -0.9161 -1.3452 -0.2614
58118SOL    HW286334   5.084   3.262   9.099  0.8418  0.4531  1.0110
58119SOL     OW86335   1.365  13.063   6.097 -0.0523  0.0492  0.4612
58119SOL    HW186336   1.358  12.969   6.082 -0.3681 -0.0058  0.9358
58119SOL    HW286337   1.396  13.098   6.014 -0.1358 -0.4461  0.2159
58120SOL     OW86338   7.219   1.808   1.028  0.0813 -0.2603 -0.6729
58120SOL    HW186339   7.198   1.833   1.118  0.7097  0.5937 -0.7537
58120SOL    HW286340   7.307   1.773   1.032 -0.6657 -2.2635 -0.6213
58121SOL     OW86341   1.356  12.267   7.585  0.5333  0.7475 -0.0402
58121SOL    HW186342   1.315  12.306   7.508 -0.5619  1.4590  0.8780
58121SOL    HW286343   1.396  12.186   7.553 -2.7284 -0.7182 -0.7585
58122SOL     OW86344   7.119   2.751   2.919  0.0241  0.1450 -0.0467
58122SOL    HW186345   7.137   2.814   2.988 -0.2090  1.6791 -1.3117
58122SOL    HW286346   7.026   2.763   2.899 -0.1469 -0.9735  0.0296
58123SOL     OW86347  12.424  10.196   7.545  0.2365 -0.0094  0.2715
58123SOL    HW186348  12.447  10.183   7.453  0.7840 -0.6159  0.4844
58123SOL    HW286349  12.342  10.245   7.543  0.2809  0.0448 -0.5373
58124SOL     OW86350   4.864   6.574   1.950 -0.1637  0.8503 -0.0630
58124SOL    HW186351   4.796   6.606   2.008 -2.1495 -2.4651 -0.2930
58124SOL    HW286352   4.935   6.546   2.008 -0.3735  1.3506  0.4322
58125SOL     OW86353   2.081   4.964   2.078  0.3045 -0.2036  0.3421
58125SOL    HW186354   2.078   4.897   2.147  0.3667 -0.8023 -0.2228
58125SOL    HW286355   2.008   5.022   2.098  2.0143  1.3535  2.6091
58126SOL     OW86356   3.173  11.582  13.647  0.0119  0.1245  0.5575
58126SOL    HW186357   3.160  11.563  13.740  0.0232 -1.2478  0.3079
58126SOL    HW286358   3.268  11.577  13.635 -0.0417 -0.4004  0.3410
58127SOL     OW86359   3.965   0.942  12.115  0.8355 -0.4120 -0.0066
58127SOL    HW186360   3.920   0.992  12.185  0.9921 -0.6968  0.2990
58127SOL    HW286361   3.930   0.853  12.124  0.4288 -0.3246 -0.6639
58128SOL     OW86362   9.408  13.380  11.692 -0.0863 -0.2220 -0.7402
58128SOL    HW186363   9.450  13.466  11.703 -0.9054 -0.0218  1.0275
58128SOL    HW286364   9.376  13.382  11.601  1.3191  0.6708 -1.2638
58129SOL     OW86365   7.717   3.478   3.515 -0.1554  0.5077 -0.3323
58129SOL    HW186366   7.745   3.477   3.423  1.5533 -1.3081  0.1464
58129SOL    HW286367   7.644   3.417   3.519 -0.1627  0.5085 -0.4638
58130SOL     OW86368   0.139  13.500   6.290  1.0508 -0.0841  0.4543
58130SOL    HW186369   0.231  13.507   6.266  1.3965 -1.0877  1.4366
58130SOL    HW286370   0.138  13.448   6.370 -0.4136 -0.5856  0.1494
58131SOL     OW86371  11.868   8.090   2.072 -0.3902 -0.5079  0.2923
58131SOL    HW186372  11.783   8.093   2.027  0.3237  0.2089 -1.0584
58131SOL    HW286373  11.912   8.013   2.035 -0.4155 -0.8439  0.9458
58132SOL     OW86374   7.412   4.468  11.128  0.0556  0.6230  0.3568
58132SOL    HW186375   7.460   4.539  11.084  2.1958 -1.6525 -1.2064
58132SOL    HW286376   7.475   4.432  11.191  0.7837 -2.7711 -2.1028
58133SOL     OW86377  11.493   5.549   0.023 -0.0178  0.2080  0.3670
58133SOL    HW186378  11.405   5.518   0.046 -0.5153  1.7278  0.6578
58133SOL    HW286379  11.540   5.471  -0.005 -1.4830 -0.6287  0.1542
58134SOL     OW86380   2.525   5.443   0.450 -0.4682 -0.4035 -0.2567
58134SOL    HW186381   2.536   5.490   0.532  0.3670 -1.6866  0.3994
58134SOL    HW286382   2.583   5.488   0.388 -0.2685 -0.0997  0.1510
58135SOL     OW86383   1.499   7.379   3.005 -0.0027 -0.1130 -0.0327
58135SOL    HW186384   1.533   7.457   2.961 -2.9585  1.2443 -0.1922
58135SOL    HW286385   1.514   7.395   3.098 -2.1202  1.5897  0.0889
58136SOL     OW86386  12.822   5.897   1.397  0.8075  0.3699  0.5417
58136SOL    HW186387  12.773   5.855   1.327  1.4549  0.6455 -0.0872
58136SOL    HW286388  12.771   5.880   1.476 -1.6193  2.7233 -0.4069
58137SOL     OW86389   8.209   6.947  12.300 -0.1403 -0.8368 -0.2231
58137SOL    HW186390   8.227   6.889  12.226  0.0696 -1.3279  0.2056
58137SOL    HW286391   8.116   6.968  12.293 -0.7021 -2.8156  0.7229
58138SOL     OW86392   1.567   8.958   9.369  0.4527  0.6292  0.1978
58138SOL    HW186393   1.539   9.048   9.355  0.9446  0.6191 -0.9943
58138SOL    HW286394   1.625   8.939   9.295  0.2775 -0.6945  0.3661
58139SOL     OW86395  10.065   2.806   4.442  0.1901 -0.3609  0.7068
58139SOL    HW186396  10.118   2.855   4.504  1.2023  0.0428 -0.4338
58139SOL    HW286397  10.102   2.718   4.442 -0.3256 -0.5858  1.2519
58140SOL     OW86398   2.131   7.066   1.990 -0.0082 -0.0019  0.2461
58140SOL    HW186399   2.170   7.145   2.027  0.3311 -0.1826  0.2886
58140SOL    HW286400   2.044   7.061   2.029 -0.1870  0.5641 -0.0648
58141SOL     OW86401   5.592  10.198   0.747  0.3563  0.2449  0.1022
58141SOL    HW186402   5.685  10.186   0.731  0.3811  0.2199  0.2630
58141SOL    HW286403   5.584  10.200   0.842  0.2296  0.5406  0.0862
58142SOL     OW86404   7.881   4.567   1.321 -0.1764 -0.9069 -0.0309
58142SOL    HW186405   7.810   4.550   1.382  0.1806 -1.0133  0.3582
58142SOL    HW286406   7.887   4.663   1.317 -0.6151 -0.8923 -0.3891
58143SOL     OW86407   1.631   6.479   3.042 -0.5728 -0.0727 -0.1353
58143SOL    HW186408   1.620   6.384   3.045 -0.2872 -0.0761  2.3462
58143SOL    HW286409   1.543   6.514   3.056 -0.6113  0.0546 -0.6518
58144SOL     OW86410   4.752  13.834   2.444 -0.2794  0.5300  0.2517
58144SOL    HW186411   4.820  13.795   2.389 -1.4743 -1.6893  0.2099
58144SOL    HW286412   4.718  13.907   2.393  0.8338  0.5531 -0.4995
58145SOL     OW86413   7.841   0.185  10.672  0.2068 -0.1169  0.4213
58145SOL    HW186414   7.907   0.173  10.741  0.2859  1.0999  0.5744
58145SOL    HW286415   7.759   0.201  10.720 -0.2239 -1.6384  0.2309
58146SOL     OW86416  10.857  12.473   7.236 -0.4498 -0.2048  0.0295
58146SOL    HW186417  10.847  12.475   7.331 -0.9446  1.7742 -0.0345
58146SOL    HW286418  10.817  12.554   7.205  0.2243 -0.5253 -1.8252
58147SOL     OW86419   9.427  10.800   5.561  0.6325 -0.2383  0.2010
58147SOL    HW186420   9.488  10.814   5.489  0.8002 -1.1185  0.1593
58147SOL    HW286421   9.341  10.822   5.525  0.9579  1.4784  0.4063
58148SOL     OW86422  13.337   3.677   5.836  0.4014  0.2272 -0.3285
58148SOL    HW186423  13.430   3.658   5.847  0.5296  1.6229  1.6558
58148SOL    HW286424  13.335   3.763   5.794 -0.0785 -0.9833 -2.9477
58149SOL     OW86425   7.938   4.743   7.748 -0.3739  0.2601  0.2299
58149SOL    HW186426   7.911   4.767   7.836 -0.1082 -0.5170  0.5297
58149SOL    HW286427   7.861   4.759   7.694 -0.2183  1.7270  0.4120
58150SOL     OW86428  12.432   8.038   6.479  0.0468  0.4794 -0.4134
58150SOL    HW186429  12.407   7.945   6.471 -0.7990  0.5931  0.7634
58150SOL    HW286430  12.418   8.073   6.391 -2.2548  0.0917 -0.2839
58151SOL     OW86431   2.472   6.032  11.699  0.1788 -0.2631  0.2722
58151SOL    HW186432   2.428   6.010  11.617 -0.0526 -1.0069  0.5866
58151SOL    HW286433   2.565   6.023  11.679  0.3147  2.2986 -0.6864
58152SOL     OW86434   9.899  12.349   4.487  0.1445  0.0999  0.1876
58152SOL    HW186435   9.877  12.356   4.580  1.2162 -0.8438  0.5269
58152SOL    HW286436   9.866  12.431   4.449 -0.8620  0.2274  1.2695
58153SOL     OW86437   6.599   1.318  13.794  0.8523 -0.2114  0.1062
58153SOL    HW186438   6.567   1.258  13.862  0.4845 -0.9770 -0.7308
58153SOL    HW286439   6.682   1.352  13.830  0.2733  0.0306  1.2873
58154SOL     OW86440   6.011   0.492   7.469  0.4488  0.1846 -0.7187
58154SOL    HW186441   6.020   0.555   7.541  0.4449  0.8625 -1.2970
58154SOL    HW286442   6.030   0.407   7.508 -3.2465 -0.0409  1.0184
58155SOL     OW86443   6.157  13.971   5.955 -0.0068 -0.4246  0.0964
58155SOL    HW186444   6.090  13.934   6.013 -0.5246 -1.2703 -1.0049
58155SOL    HW286445   6.119  13.963   5.868  0.3497  1.7131 -0.2987
58156SOL     OW86446   9.712   5.134  11.070  0.2535 -0.2089 -0.1718
58156SOL    HW186447   9.637   5.091  11.111  0.3771 -1.1139 -0.8693
58156SOL    HW286448   9.675   5.213  11.030 -0.7525 -1.6454 -2.2384
58157SOL     OW86449  13.139   0.470   6.807  0.3062 -0.1722  0.4413
58157SOL    HW186450  13.043   0.469   6.806  0.2948  0.7674  0.0554
58157SOL    HW286451  13.164   0.405   6.742 -0.0311 -2.1522  2.1841
58158SOL     OW86452  12.900   9.872  12.445 -0.1714 -0.1473  0.2090
58158SOL    HW186453  12.861   9.785  12.438  1.1587 -0.9340  1.9120
58158SOL    HW286454  12.882   9.913  12.360 -1.2135 -1.8899 -0.4730
58159SOL     OW86455  11.819   6.059  10.439 -0.2117 -0.4331 -0.3995
58159SOL    HW186456  11.732   6.090  10.464  0.1174  1.0198 -0.9779
58159SOL    HW286457  11.866   6.138  10.412  0.7891 -1.4063 -1.5885
58160SOL     OW86458   4.360  12.236  13.200  0.2951  0.2441  0.3069
58160SOL    HW186459   4.401  12.240  13.114 -0.2592  0.3577  0.0495
58160SOL    HW286460   4.371  12.324  13.236 -2.1780  1.1239 -0.9024
58161SOL     OW86461   1.180  11.889   5.027 -0.3341 -0.7922 -0.5040
58161SOL    HW186462   1.140  11.829   5.090 -0.7646 -0.8682 -0.8402
58161SOL    HW286463   1.271  11.861   5.020 -0.4464 -1.1856 -0.3958
58162SOL     OW86464  13.803   5.089   8.108 -0.2894  0.0236  0.0987
58162SOL    HW186465  13.843   5.005   8.088 -2.0125 -1.3687  2.0101
58162SOL    HW286466  13.849   5.152   8.053  2.1733 -1.9059 -0.2184
58163SOL     OW86467  13.940   5.194   4.111  0.1124  0.4430 -0.1128
58163SOL    HW186468  13.872   5.260   4.097  0.6813  0.7827 -1.3657
58163SOL    HW286469  13.946   5.187   4.207 -1.7834  0.2748  0.0412
58164SOL     OW86470  13.838   2.773   1.199  0.1734 -0.4961 -0.4738
58164SOL    HW186471  13.860   2.730   1.117 -0.4751 -1.2485 -0.2579
58164SOL    HW286472  13.789   2.851   1.173 -1.4077 -1.5529 -0.7614
58165SOL     OW86473   9.600   4.800   2.640  0.0127  0.1347  0.2092
58165SOL    HW186474   9.675   4.857   2.658  0.1623  0.2702 -0.7858
58165SOL    HW286475   9.632   4.740   2.573 -1.2326  1.2012 -1.3930
58166SOL     OW86476   3.759   7.458  11.155 -0.0382 -0.4532  0.1064
58166SOL    HW186477   3.802   7.462  11.241 -0.4863  0.5148  0.3028
58166SOL    HW286478   3.823   7.495  11.094 -0.2957  0.3239  0.2864
58167SOL     OW86479   2.047   4.258   7.798  0.1249 -0.7561  0.4216
58167SOL    HW186480   1.970   4.264   7.855  1.2337  0.5660  1.8676
58167SOL    HW286481   2.116   4.222   7.855  1.0734 -0.0913 -0.2842
58168SOL     OW86482   0.708  11.368   0.328  0.1849 -0.7869  0.2789
58168SOL    HW186483   0.662  11.446   0.361 -0.0547 -1.4992  1.7093
58168SOL    HW286484   0.718  11.384   0.234 -2.1829 -0.1923  0.0585
58169SOL     OW86485   7.181  13.956   9.592 -0.0517  0.3154 -0.0879
58169SOL    HW186486   7.091  13.938   9.619  0.1289  0.1670  0.4146
58169SOL    HW286487   7.196  14.047   9.618 -0.6072  0.8980 -1.6759
58170SOL     OW86488   3.630  13.857   3.708  0.1568 -0.4726 -0.4724
58170SOL    HW186489   3.615  13.897   3.793  0.4100 -1.2470 -0.0493
58170SOL    HW286490   3.725  13.846   3.703  0.2911  0.8826 -1.4803
58171SOL     OW86491   9.725  10.000   6.572  0.0476 -0.6983 -0.7017
58171SOL    HW186492   9.748   9.954   6.653 -1.3300  0.9305  0.6962
58171SOL    HW286493   9.795  10.064   6.559  1.0018 -1.8676 -1.6383
58172SOL     OW86494   9.585   9.371   4.080 -0.2038 -0.5336 -0.2031
58172SOL    HW186495   9.572   9.384   3.986 -0.3250 -0.4356 -0.1726
58172SOL    HW286496   9.497   9.360   4.116 -0.0867 -4.7626 -0.6740
58173SOL     OW86497   0.296   0.389   4.815 -0.1231  0.1361  0.3999
58173SOL    HW186498   0.388   0.367   4.802  0.2035  2.3631 -1.8120
58173SOL    HW286499   0.248   0.310   4.789  1.1103 -0.1024 -1.2979
58174SOL     OW86500   9.896   9.566   4.020 -0.0801 -0.3493  0.6249
58174SOL    HW186501   9.820   9.570   4.078  1.0552 -2.3170  2.3664
58174SOL    HW286502   9.971   9.553   4.078  1.1352 -2.2057 -1.2047
58175SOL     OW86503   1.889   4.046   2.902 -0.7269 -0.0908  0.1372
58175SOL    HW186504   1.875   4.024   2.810 -0.1502 -0.8962  0.2356
58175SOL    HW286505   1.971   4.002   2.925 -0.5680  0.5665  0.8849
58176SOL     OW86506   6.390   5.687  11.538 -0.1275 -0.6164 -0.0547
58176SOL    HW186507   6.301   5.662  11.563  0.0896 -0.7489  0.6199
58176SOL    HW286508   6.381   5.773  11.497 -0.2609  0.8252  2.7454
58177SOL     OW86509   2.301  10.330   8.498  0.0766  0.1211  0.2843
58177SOL    HW186510   2.243  10.335   8.422  0.6795  2.1171 -0.1136
58177SOL    HW286511   2.357  10.254   8.480  1.9219  1.9359 -2.6574
58178SOL     OW86512   3.296   2.340   6.728 -0.0809 -0.2719  0.4992
58178SOL    HW186513   3.229   2.306   6.789  1.5929 -3.3065  0.8609
58178SOL    HW286514   3.246   2.374   6.654 -2.0907  0.9289  2.2822
58179SOL     OW86515   1.698   1.239   4.903 -0.1604 -0.4588  0.3368
58179SOL    HW186516   1.757   1.164   4.894  1.0472  0.3407  1.1145
58179SOL    HW286517   1.723   1.298   4.832 -0.6695 -0.5252  0.1038
58180SOL     OW86518   5.461  12.701   2.630  0.1179 -0.2445 -0.5462
58180SOL    HW186519   5.473  12.694   2.725  2.7607  0.5944 -0.7150
58180SOL    HW286520   5.396  12.769   2.619  1.7527  1.6436  0.7253
58181SOL     OW86521   9.091   2.178  10.252 -0.7572 -0.4252  0.4230
58181SOL    HW186522   8.998   2.166  10.269 -1.4170  2.2018 -0.8510
58181SOL    HW286523   9.109   2.120  10.178 -1.1522 -1.5366  1.1755
58182SOL     OW86524   6.050  10.303   5.541 -0.0912  0.3033  0.7854
58182SOL    HW186525   6.086  10.230   5.492 -0.0882  0.4274  0.6037
58182SOL    HW286526   6.045  10.271   5.632  0.3061  0.2268  0.7802
58183SOL     OW86527   8.551   5.028   3.257 -0.0222 -0.3663 -0.1543
58183SOL    HW186528   8.646   5.026   3.244  0.2373 -0.2483  1.5214
58183SOL    HW286529   8.536   5.105   3.313 -0.9625 -1.0388  0.5554
58184SOL     OW86530  13.408  12.063  10.355  0.1883  0.0432  0.5765
58184SOL    HW186531  13.484  12.024  10.312  0.7047  1.5557  0.0409
58184SOL    HW286532  13.340  12.064  10.288  0.9603  2.3023 -0.2861
58185SOL     OW86533   6.472   3.162   8.995 -0.4319  0.1079 -0.1934
58185SOL    HW186534   6.426   3.115   9.066  1.0179 -1.0876  0.0092
58185SOL    HW286535   6.527   3.095   8.955  1.6063  1.5935 -0.0169
58186SOL     OW86536  10.493   7.663   8.910  0.0794 -0.7277  0.3494
58186SOL    HW186537  10.459   7.715   8.984 -0.4187  0.2730 -0.5596
58186SOL    HW286538  10.490   7.573   8.942 -3.8392 -0.8030  0.2450
58187SOL     OW86539   0.833   1.025   0.979 -0.1840 -0.0582 -0.5139
58187SOL    HW186540   0.762   1.015   0.916  0.0086  1.3095 -0.9815
58187SOL    HW286541   0.815   0.960   1.047 -1.2267 -0.5244 -1.2206
58188SOL     OW86542   6.321   5.135   9.146  0.8426 -0.1419 -0.2593
58188SOL    HW186543   6.411   5.120   9.176  0.9648  1.1857  0.0715
58188SOL    HW286544   6.329   5.194   9.071  0.2604 -0.2991 -0.4558
58189SOL     OW86545   3.683  12.508   3.272  0.0367  0.5690  0.2007
58189SOL    HW186546   3.696  12.595   3.233  0.5330  1.3604  2.0185
58189SOL    HW286547   3.605  12.474   3.229 -0.2890  1.9992 -0.4086
58190SOL     OW86548   2.367   7.335   6.569  0.2332  0.4067  0.2853
58190SOL    HW186549   2.420   7.255   6.575  2.4367  1.5037 -2.3489
58190SOL    HW286550   2.295   7.310   6.511  1.4885  0.4784 -1.4100
58191SOL     OW86551  13.544   4.088   1.984 -0.5252 -0.4616  0.4002
58191SOL    HW186552  13.468   4.147   1.982 -0.3201 -0.1893  0.6367
58191SOL    HW286553  13.548   4.058   2.074 -0.2996 -0.4073  0.4084
58192SOL     OW86554   2.301   1.077   3.720 -0.0566  0.8433 -0.0649
58192SOL    HW186555   2.295   0.982   3.727 -2.4476  0.7545 -1.7818
58192SOL    HW286556   2.223   1.109   3.766 -0.0978  1.8550 -0.8031
58193SOL     OW86557  11.729   4.677   8.782 -0.4849 -0.1253  0.2719
58193SOL    HW186558  11.650   4.640   8.742 -1.7844 -0.0757  2.6093
58193SOL    HW286559  11.741   4.626   8.862  0.4632  1.4255  1.1596
58194SOL     OW86560  11.927   0.980   1.887 -0.3473  0.2074  0.1894
58194SOL    HW186561  12.021   1.001   1.884 -0.4672  0.6306 -1.8287
58194SOL    HW286562  11.885   1.064   1.906 -0.3613  0.0935  0.6889
58195SOL     OW86563   6.527  12.291   6.549  1.0895  0.2863  0.1352
58195SOL    HW186564   6.550  12.222   6.611  2.1715  1.8294  1.5367
58195SOL    HW286565   6.449  12.258   6.504 -0.3554 -0.5328  2.9910
58196SOL     OW86566   3.983  13.351  13.228  0.2408 -0.1740  0.2431
58196SOL    HW186567   3.897  13.362  13.188  1.5349  0.7439 -2.6008
58196SOL    HW286568   3.990  13.257  13.247 -0.8689 -0.4772 -0.7615
58197SOL     OW86569   9.727   3.222   7.862 -0.3764  0.5446  0.6195
58197SOL    HW186570   9.716   3.160   7.934 -0.4579 -0.7828 -0.5065
58197SOL    HW286571   9.672   3.296   7.886 -3.3299 -1.3777  0.2769
58198SOL     OW86572   3.216  10.860   2.363  0.1311  0.1572  0.0369
58198SOL    HW186573   3.310  10.870   2.382 -0.0715 -1.2892  2.2677
58198SOL    HW286574   3.190  10.785   2.417 -2.2846  0.4086 -0.6940
58199SOL     OW86575   6.677   2.415  11.705  0.0552 -0.0135 -0.4702
58199SOL    HW186576   6.588   2.447  11.691  0.7348  1.8417 -0.7778
58199SOL    HW286577   6.689   2.347  11.638 -0.5368  0.9587 -1.5877
58200SOL     OW86578   8.043  13.353   3.169  0.2205 -0.5608  0.1755
58200SOL    HW186579   8.089  13.270   3.187  0.7191 -0.0016  1.6617
58200SOL    HW286580   8.009  13.343   3.080 -0.2869 -2.6223  0.5399
58201SOL     OW86581   4.644  12.947  12.635  0.4454 -0.8276  0.1177
58201SOL    HW186582   4.587  12.993  12.573 -1.1658 -0.2732  1.9393
58201SOL    HW286583   4.728  12.941  12.589 -0.2709  0.8354 -1.5477
58202SOL     OW86584   9.886   5.159   5.163 -0.0289 -0.5752  1.2004
58202SOL    HW186585   9.944   5.106   5.108 -0.6910 -0.6700  0.5768
58202SOL    HW286586   9.860   5.100   5.234 -2.9156 -2.1050 -0.8992
58203SOL     OW86587   1.378  10.673  13.618 -0.5853 -0.3090  0.2398
58203SOL    HW186588   1.438  10.599  13.611  0.9605  0.8007  1.0651
58203SOL    HW286589   1.424  10.745  13.575 -2.0331  0.2117 -0.5064
58204SOL     OW86590   7.857   6.664   5.420  0.3524 -0.0206  0.2125
58204SOL    HW186591   7.949   6.682   5.404 -0.1798  1.4237 -1.6532
58204SOL    HW286592   7.856   6.609   5.498  2.6770  1.3501  1.3098
58205SOL     OW86593  13.415   2.250   2.181  0.0002  0.2321  0.1793
58205SOL    HW186594  13.330   2.229   2.141 -0.0775  2.3924 -0.9053
58205SOL    HW286595  13.392   2.287   2.266 -0.1010  0.1819  0.1749
58206SOL     OW86596  12.587   8.405   3.062  0.6863 -0.0634 -0.4027
58206SOL    HW186597  12.680   8.395   3.046  0.6844 -1.1133  0.1525
58206SOL    HW286598  12.580   8.440   3.151  0.5705  1.1984 -0.8897
58207SOL     OW86599   7.951   8.572   8.941 -0.2306 -0.1933  0.0838
58207SOL    HW186600   8.031   8.520   8.932 -0.5802 -0.6640 -0.3846
58207SOL    HW286601   7.954   8.607   9.030  0.5256 -0.1601  0.0480
58208SOL     OW86602  10.423   3.871   8.124  0.5337 -0.3135  0.2936
58208SOL    HW186603  10.462   3.786   8.102 -2.1110 -0.9211 -2.6507
58208SOL    HW286604  10.462   3.932   8.061 -0.9771 -0.3382 -0.7007
58209SOL     OW86605   4.230  13.401   8.471  0.0102  0.2642  0.0831
58209SOL    HW186606   4.154  13.397   8.528  0.1770 -0.7027  0.2675
58209SOL    HW286607   4.195  13.386   8.383 -0.0339 -0.1024  0.1593
58210SOL     OW86608   3.144   5.741   9.812  0.2303 -0.3242  0.2787
58210SOL    HW186609   3.064   5.791   9.798  0.6030  0.7827  1.8559
58210SOL    HW286610   3.162   5.700   9.727 -1.1707  0.6154 -0.5091
58211SOL     OW86611  13.915   1.199  11.874  0.1990  0.1378 -0.5909
58211SOL    HW186612  13.870   1.127  11.920 -0.5691  2.7566  3.1845
58211SOL    HW286613  14.006   1.194  11.904  0.7032 -0.5496 -2.1465
58212SOL     OW86614   7.972  13.902  13.160  0.3803 -0.0160 -0.0180
58212SOL    HW186615   7.922  13.823  13.139  1.0534  0.1670 -2.6887
58212SOL    HW286616   8.061  13.871  13.178  0.6081  0.0900 -0.9140
58213SOL     OW86617   9.496   0.683  11.669 -0.0492 -0.2900 -0.2739
58213SOL    HW186618   9.412   0.639  11.658 -1.5906  2.1501  0.8735
58213SOL    HW286619   9.540   0.673  11.585 -1.2180 -2.1276 -0.7107
58214SOL     OW86620   5.450   8.161   9.565  0.3546 -0.2148 -0.3140
58214SOL    HW186621   5.368   8.210   9.569  0.5189  0.1304 -0.9381
58214SOL    HW286622   5.489   8.186   9.481 -0.0055 -2.1536 -1.1165
58215SOL     OW86623  10.687   2.592   0.861 -0.1160 -0.3435 -0.6005
58215SOL    HW186624  10.777   2.617   0.838  0.3528 -0.0386  1.3376
58215SOL    HW286625  10.696   2.505   0.901 -0.4836  0.2085  0.7339
58216SOL     OW86626   1.539   3.767   9.422 -0.2827 -0.0639  0.7525
58216SOL    HW186627   1.575   3.812   9.498  1.4177 -1.9255  1.1523
58216SOL    HW286628   1.539   3.674   9.447  1.4890 -0.9091 -1.8570
58217SOL     OW86629   2.047   7.429   9.206 -0.3023 -0.0836 -0.0280
58217SOL    HW186630   2.075   7.383   9.284  0.6413  0.2910 -0.1345
58217SOL    HW286631   2.047   7.522   9.231  0.8015  0.1152 -0.6854
58218SOL     OW86632   9.760   3.856   1.608  0.1289 -0.0332 -0.2911
58218SOL    HW186633   9.788   3.892   1.692  0.4340 -0.9158 -0.0042
58218SOL    HW286634   9.674   3.895   1.593 -0.4634 -0.7696  1.0122
58219SOL     OW86635   8.645   7.174   9.215  0.2515 -0.4217  0.5118
58219SOL    HW186636   8.673   7.252   9.264 -1.6038  0.4605  0.2283
58219SOL    HW286637   8.704   7.105   9.246  1.5629  0.9398  1.2165
58220SOL     OW86638   0.084   2.203   9.923  0.0188  0.0492  0.5581
58220SOL    HW186639   0.111   2.128   9.869  0.2412  0.6796 -0.2245
58220SOL    HW286640   0.052   2.267   9.860 -0.4336  0.5129  1.2466
58221SOL     OW86641   4.089   2.818   9.834 -0.3448  0.1227 -0.0665
58221SOL    HW186642   4.181   2.846   9.833 -0.8170  1.7478 -0.4439
58221SOL    HW286643   4.066   2.807   9.742 -0.5053 -0.3979  0.0337
58222SOL     OW86644   9.441   5.655   9.383  0.5863  0.7706  0.6852
58222SOL    HW186645   9.380   5.710   9.333  0.9163  0.5475  0.0204
58222SOL    HW286646   9.386   5.611   9.447  0.1025  0.8364  0.3234
58223SOL     OW86647   0.003   3.125   3.436  0.6199  0.2813  0.5846
58223SOL    HW186648  -0.076   3.147   3.389 -0.0179 -1.2857  0.8435
58223SOL    HW286649   0.067   3.191   3.409 -1.0017  2.1563  1.1018
58224SOL     OW86650   4.569   1.964  10.305  0.3051  0.1474 -0.0979
58224SOL    HW186651   4.631   2.028  10.340 -1.6167  1.3281  1.3413
58224SOL    HW286652   4.574   1.976  10.210  2.0360  0.3748 -0.0224
58225SOL     OW86653   2.782   4.794   9.594 -0.0672 -0.3553 -0.3865
58225SOL    HW186654   2.778   4.770   9.501 -2.3853 -0.5150 -0.3178
58225SOL    HW286655   2.807   4.887   9.594  2.0246 -0.8776 -1.0178
58226SOL     OW86656   3.580  11.074   7.774 -0.5430 -0.8057 -0.1125
58226SOL    HW186657   3.625  11.131   7.712 -0.2474 -0.3050  0.5533
58226SOL    HW286658   3.568  10.992   7.726 -1.4005 -0.0418 -1.2334
58227SOL     OW86659  11.089   0.315   5.404  0.2783  0.0452 -0.1435
58227SOL    HW186660  11.159   0.351   5.349  1.1592 -1.4644 -0.0736
58227SOL    HW286661  11.133   0.293   5.487 -0.8771  1.6157  0.9342
58228SOL     OW86662  13.132   3.690   4.193 -0.0784 -0.4220  0.2566
58228SOL    HW186663  13.220   3.707   4.228 -0.0754 -1.7123  0.9589
58228SOL    HW286664  13.147   3.665   4.102  0.2221 -0.0474  0.1986
58229SOL     OW86665   9.975  11.763   6.645 -0.2085  0.7192 -0.2245
58229SOL    HW186666   9.948  11.850   6.674 -1.3043  0.5359 -0.6182
58229SOL    HW286667   9.898  11.729   6.600  0.1723 -0.5061  0.0281
58230SOL     OW86668  11.135   1.383  11.695  0.2140  0.4864  0.1771
58230SOL    HW186669  11.109   1.321  11.627  0.9571 -0.6361  0.8959
58230SOL    HW286670  11.057   1.439  11.707 -0.1971  0.1942 -1.0100
58231SOL     OW86671   5.866   5.646  10.511  0.2523 -0.4811  0.4558
58231SOL    HW186672   5.960   5.632  10.519  0.6396  1.2362 -0.5706
58231SOL    HW286673   5.831   5.626  10.598  1.7361  0.0739  1.2185
58232SOL     OW86674  13.674   0.414  10.816  0.2542  0.3885 -0.0860
58232SOL    HW186675  13.720   0.370  10.744  0.7551  0.7639 -0.0006
58232SOL    HW286676  13.637   0.492  10.776 -0.7067 -0.1427 -0.2556
58233SOL     OW86677  12.009  12.847   9.298 -0.1250  0.5636 -0.0347
58233SOL    HW186678  11.997  12.769   9.352  1.1965  1.5405  1.8022
58233SOL    HW286679  11.956  12.831   9.220  0.1983 -2.2060  0.2099
58234SOL     OW86680   6.374   0.002  11.146 -1.2311  0.6693 -0.4727
58234SOL    HW186681   6.317   0.029  11.074 -0.8660 -1.5438 -1.6742
58234SOL    HW286682   6.460   0.039  11.125 -1.1611  0.1488 -1.1062
58235SOL     OW86683   0.006   6.012  10.828  0.5305 -0.2087  0.3006
58235SOL    HW186684   0.040   6.100  10.814  1.9668 -0.9078 -0.8307
58235SOL    HW286685  -0.085   6.016  10.798 -0.6152  1.7514  3.5580
58236SOL     OW86686   4.560   2.032  13.644 -0.2056  0.2778 -0.0442
58236SOL    HW186687   4.553   1.937  13.650  1.4712  0.1262  0.1274
58236SOL    HW286688   4.483   2.065  13.690 -0.6427 -1.0002  0.1817
58237SOL     OW86689   4.304   6.135  13.942 -0.2036 -0.4737  0.2870
58237SOL    HW186690   4.276   6.046  13.918 -0.0105 -0.1207 -1.3934
58237SOL    HW286691   4.293   6.186  13.861 -0.4917  1.0863  1.2701
58238SOL     OW86692   4.576   0.241   8.171 -0.0269 -0.8337  0.1270
58238SOL    HW186693   4.506   0.267   8.111 -1.1838 -0.5582  1.5498
58238SOL    HW286694   4.569   0.146   8.177  2.2561 -1.3226 -2.7031
58239SOL     OW86695  11.551   5.430   1.115 -0.5367 -0.6705  0.8664
58239SOL    HW186696  11.634   5.470   1.142 -1.3232  0.3324  1.8350
58239SOL    HW286697  11.578   5.358   1.057  0.9405  0.9846 -0.6449
58240SOL     OW86698   8.234   2.373   7.591 -0.2945  0.2047  0.6054
58240SOL    HW186699   8.257   2.410   7.676 -1.8231  1.6745  0.4309
58240SOL    HW286700   8.139   2.382   7.585 -0.0832  1.8219 -1.9333
58241SOL     OW86701   1.111   0.231   3.434 -0.4594  0.3203 -0.1762
58241SOL    HW186702   1.198   0.271   3.429 -1.0893  1.6046 -1.1234
58241SOL    HW286703   1.082   0.224   3.343 -1.7453  0.7841  0.1786
58242SOL     OW86704  13.124  11.403   3.769 -0.3911  0.1712 -0.2707
58242SOL    HW186705  13.094  11.477   3.822 -1.0372 -0.6569  0.5727
58242SOL    HW286706  13.169  11.347   3.832  0.3791  0.0050 -0.9678
58243SOL     OW86707   1.097   7.149   3.624  0.6133 -0.5462  0.2747
58243SOL    HW186708   1.157   7.215   3.659  0.0047 -1.3305  3.0480
58243SOL    HW286709   1.154   7.080   3.589  1.4211 -1.1182  2.5589
58244SOL     OW86710  13.532  14.012  11.411  0.4033 -0.1418 -0.2574
58244SOL    HW186711  13.564  13.976  11.328  0.3504  0.7929 -0.7012
58244SOL    HW286712  13.513  13.936  11.465  0.7449 -0.7589 -0.9922
58245SOL     OW86713   2.003  11.134   7.815  0.0129 -0.1697  0.3527
58245SOL    HW186714   1.946  11.172   7.748 -0.4893 -0.5434  0.5595
58245SOL    HW286715   1.964  11.049   7.833  0.4705 -0.3027  0.7146
58246SOL     OW86716   9.552  10.584   5.681 -0.6448  0.2705  0.6860
58246SOL    HW186717   9.510  10.659   5.640 -2.5714 -0.7074  0.7682
58246SOL    HW286718   9.599  10.541   5.609 -0.5269  0.8787  0.3944
58247SOL     OW86719  12.674  10.455   0.742  0.1643  0.1252  0.1550
58247SOL    HW186720  12.745  10.404   0.781  1.6683  1.9608 -0.0674
58247SOL    HW286721  12.614  10.472   0.814  1.7441  1.5017  1.2243
58248SOL     OW86722   9.666  12.484   1.280 -0.2611 -0.6101 -0.2284
58248SOL    HW186723   9.725  12.409   1.283 -0.1385 -0.5312 -0.5707
58248SOL    HW286724   9.597  12.457   1.219  0.1159 -0.2143 -0.8432
58249SOL     OW86725   8.726  10.869   8.859 -1.0711 -0.1210  0.0897
58249SOL    HW186726   8.728  10.780   8.892 -1.3485 -0.8098 -1.6576
58249SOL    HW286727   8.815  10.901   8.871 -0.6623 -1.0628 -0.3917
58250SOL     OW86728   0.832   3.715   9.973  0.0630  0.1020  0.2548
58250SOL    HW186729   0.752   3.765   9.958  0.4756  0.1232 -2.2333
58250SOL    HW286730   0.902   3.773   9.944  0.8500 -0.5950  0.7185
58251SOL     OW86731   5.313   4.326   8.192  0.2197 -0.0823 -0.0929
58251SOL    HW186732   5.298   4.239   8.228 -2.1006 -0.7066 -2.2934
58251SOL    HW286733   5.367   4.312   8.114  0.7487  0.5942  0.1360
58252SOL     OW86734   6.815   7.526  13.693  0.2828  0.4683 -0.4382
58252SOL    HW186735   6.819   7.605  13.748  0.6129  0.6490 -0.7266
58252SOL    HW286736   6.761   7.552  13.618 -0.7950  0.0091  0.1413
58253SOL     OW86737   1.876   2.100   8.224 -0.3787 -0.4515 -0.3298
58253SOL    HW186738   1.800   2.093   8.282 -0.6650 -3.1864 -0.8999
58253SOL    HW286739   1.952   2.094   8.283 -0.6507 -1.0100 -0.0250
58254SOL     OW86740   6.271   1.135   1.685 -0.4792  0.2692 -0.1553
58254SOL    HW186741   6.213   1.110   1.757 -0.3345 -0.3587 -0.2489
58254SOL    HW286742   6.355   1.095   1.707 -0.0337  1.2889  0.0481
58255SOL     OW86743   7.665   5.134  11.378 -0.2597  0.2493  0.4010
58255SOL    HW186744   7.676   5.180  11.295 -1.8406 -0.1037 -0.0203
58255SOL    HW286745   7.748   5.088  11.391  0.3966  1.1606 -0.4352
58256SOL     OW86746  12.745  13.588   6.828 -0.6524  0.9341 -0.0169
58256SOL    HW186747  12.717  13.625   6.913  0.3116 -1.1918  1.2956
58256SOL    HW286748  12.669  13.602   6.771 -2.2042  0.5079  1.8075
58257SOL     OW86749  11.796   2.184   7.738 -0.4598 -0.6058 -0.2607
58257SOL    HW186750  11.774   2.216   7.826 -0.1781 -2.5755  0.5710
58257SOL    HW286751  11.860   2.247   7.706  1.1948 -1.0519  1.9042
58258SOL     OW86752   6.560   7.298  12.141 -0.4200  0.1290 -0.1081
58258SOL    HW186753   6.614   7.356  12.195 -0.6668 -0.3401  0.6613
58258SOL    HW286754   6.470   7.326  12.159 -0.5484 -0.5608  0.3627
58259SOL     OW86755   5.592  11.594   1.585  0.4742 -0.5747  0.2484
58259SOL    HW186756   5.546  11.650   1.522  1.3001  0.6452  0.6959
58259SOL    HW286757   5.629  11.524   1.531  0.9232  0.2907 -0.5953
58260SOL     OW86758  10.382  13.043   3.581  0.3578  0.6396  0.2071
58260SOL    HW186759  10.375  13.104   3.508 -0.3706 -0.8095 -0.9763
58260SOL    HW286760  10.457  12.988   3.559  0.5805  0.6546  0.9124
58261SOL     OW86761  10.115  13.961  11.135 -0.6175 -0.7620  0.2515
58261SOL    HW186762  10.126  13.908  11.214 -0.3865 -1.6097 -0.3453
58261SOL    HW286763  10.032  14.007  11.149  0.3620  0.6460  1.8593
58262SOL     OW86764   9.569  13.692   4.809  0.3056  0.2246 -0.3264
58262SOL    HW186765   9.567  13.732   4.723  0.6897 -0.0245 -0.4577
58262SOL    HW286766   9.595  13.601   4.793  0.4867  0.2037  0.0579
58263SOL     OW86767  11.700  11.857   3.213  0.6319  0.2416 -0.1785
58263SOL    HW186768  11.699  11.772   3.257  2.6535  1.1683  1.8609
58263SOL    HW286769  11.621  11.902   3.245  0.3210 -0.3275 -0.1433
58264SOL     OW86770  12.668   4.763  10.475  0.1086 -0.0462  0.6157
58264SOL    HW186771  12.619   4.711  10.412  2.9019 -2.3526  0.1177
58264SOL    HW286772  12.754   4.776  10.435  1.4989 -0.2631  3.2540
58265SOL     OW86773   7.628   1.829  11.740  0.2227  0.1010 -0.3770
58265SOL    HW186774   7.693   1.791  11.799  0.1059 -0.1465 -0.4039
58265SOL    HW286775   7.545   1.789  11.767  0.0080  0.7518 -0.0539
58266SOL     OW86776   5.371   8.081  13.747  0.0023  0.0651  0.0615
58266SOL    HW186777   5.419   8.156  13.711  0.1020 -0.1520 -0.2607
58266SOL    HW286778   5.396   8.078  13.839  1.1234 -0.4399 -0.2456
58267SOL     OW86779   0.917   6.094   7.440  0.1439  0.2616 -0.0305
58267SOL    HW186780   1.005   6.131   7.435  0.7822 -0.8657  1.7689
58267SOL    HW286781   0.895   6.071   7.350  1.8620  0.1606 -0.4497
58268SOL     OW86782  12.110  10.297   2.207  0.1159 -0.2994  0.5472
58268SOL    HW186783  12.034  10.279   2.151 -0.7010  3.0823  0.3359
58268SOL    HW286784  12.181  10.317   2.146  0.6382 -1.4547  0.7557
58269SOL     OW86785  11.521  13.271   9.406 -0.1547 -0.6644  0.1446
58269SOL    HW186786  11.562  13.186   9.421 -0.7087 -0.7496  1.3298
58269SOL    HW286787  11.567  13.308   9.331  0.5947 -1.6856  0.0881
58270SOL     OW86788   8.244   1.591   4.509 -0.2936 -0.2515  0.5464
58270SOL    HW186789   8.305   1.635   4.450  2.1474 -1.3635  2.0767
58270SOL    HW286790   8.257   1.498   4.493 -0.4277 -0.5524  2.0128
58271SOL     OW86791   2.087   1.310   6.916  0.3330  0.2484 -0.3539
58271SOL    HW186792   2.021   1.290   6.982  1.6294 -0.7522  0.6938
58271SOL    HW286793   2.049   1.278   6.834 -0.6851  0.1665  0.1310
58272SOL     OW86794   8.764   8.019   7.496  0.3011  0.8559  0.3246
58272SOL    HW186795   8.819   8.032   7.419  1.4893 -0.6042  0.8826
58272SOL    HW286796   8.675   8.038   7.466  0.6853 -0.0607 -1.5286
58273SOL     OW86797   7.104   5.321   9.375 -0.3254  0.0792 -0.2771
58273SOL    HW186798   7.124   5.339   9.467  0.0857  2.1409 -0.7299
58273SOL    HW286799   7.180   5.272   9.343 -0.3927 -0.5015  0.4060
58274SOL     OW86800   9.197   0.969  11.210 -0.4921  0.5430 -0.0115
58274SOL    HW186801   9.170   1.025  11.137 -1.9295 -0.5347 -0.3405
58274SOL    HW286802   9.128   0.979  11.275 -0.7573 -0.8137 -0.0642
58275SOL     OW86803   5.315   7.474   9.713  0.4999 -0.0302 -0.1825
58275SOL    HW186804   5.245   7.474   9.778  0.4712 -1.5352 -0.1878
58275SOL    HW286805   5.373   7.403   9.740  0.9966 -0.0555 -1.2645
58276SOL     OW86806   3.868   6.119   2.652 -0.0668 -0.0320 -0.3329
58276SOL    HW186807   3.858   6.031   2.689 -1.0705  0.0499 -0.3786
58276SOL    HW286808   3.940   6.158   2.702  0.5002 -0.9272 -0.4246
58277SOL     OW86809   1.372   6.666   3.339  0.4276  0.0862  0.7618
58277SOL    HW186810   1.286   6.637   3.367  0.2326 -0.5668 -0.4509
58277SOL    HW286811   1.433   6.624   3.400 -0.1000  0.6666  1.7130
58278SOL     OW86812  11.447   2.628   6.279  0.2717 -0.9929  0.8755
58278SOL    HW186813  11.408   2.716   6.279 -4.2298 -2.5750 -2.3428
58278SOL    HW286814  11.453   2.605   6.371 -2.8582  1.1166  1.8058
58279SOL     OW86815   6.345   1.108  11.140 -0.6756 -0.6839 -0.0569
58279SOL    HW186816   6.402   1.059  11.199 -0.7484 -1.2450 -0.4425
58279SOL    HW286817   6.285   1.042  11.104 -1.7091 -0.0700  0.4912
58280SOL     OW86818   2.331   6.774   8.886  0.1547 -0.0359 -0.5141
58280SOL    HW186819   2.357   6.782   8.978 -0.2308  0.3430 -0.4393
58280SOL    HW286820   2.393   6.710   8.849  1.1262  0.7588 -0.3027
58281SOL     OW86821  12.386   0.064  12.251  0.0368 -0.2710 -0.2732
58281SOL    HW186822  12.332   0.124  12.302 -2.9559  0.0467 -3.4393
58281SOL    HW286823  12.331  -0.014  12.239  1.8204 -1.5708 -0.5354
58282SOL     OW86824   0.025   9.796  13.198  0.0080  0.2419 -0.2817
58282SOL    HW186825   0.068   9.827  13.119  1.7071  0.0201  0.5027
58282SOL    HW286826   0.010   9.875  13.249 -0.7632  0.3466 -0.6638
58283SOL     OW86827   2.238   0.832   8.597  0.0706 -0.2593 -0.2436
58283SOL    HW186828   2.328   0.851   8.623  0.2200 -1.3641  0.1084
58283SOL    HW286829   2.184   0.869   8.668  0.2420  0.3580 -0.4304
58284SOL     OW86830  12.176   7.300   4.962  0.2320  0.2235  0.1549
58284SOL    HW186831  12.178   7.265   5.051 -1.9880 -1.4747 -0.3724
58284SOL    HW286832  12.101   7.360   4.961 -1.0816 -1.3384 -1.0109
58285SOL     OW86833  12.225   8.402   4.051  0.1306 -0.5117 -0.0475
58285SOL    HW186834  12.240   8.496   4.042  0.6409 -0.4800  0.9293
58285SOL    HW286835  12.280   8.377   4.126  2.0009 -2.0497 -1.8081
58286SOL     OW86836   6.730   0.759  12.979 -0.1459  0.3835  0.0007
58286SOL    HW186837   6.724   0.720  13.067 -1.3601  0.1224 -0.1796
58286SOL    HW286838   6.732   0.684  12.920  0.3116  0.5664 -0.2184
58287SOL     OW86839   2.600   2.012   4.902  0.5729 -0.3208  0.3155
58287SOL    HW186840   2.646   2.094   4.882  0.3277 -0.1833  0.3154
58287SOL    HW286841   2.508   2.030   4.882  0.0618  0.2857  2.8969
58288SOL     OW86842  12.713   7.009   5.669  0.2102  0.3017  0.5270
58288SOL    HW186843  12.678   7.071   5.733  0.0324 -0.5564  1.2829
58288SOL    HW286844  12.635   6.963   5.637  0.5415 -1.1550  1.7224
58289SOL     OW86845   2.923  11.174   4.394 -0.0100  0.3427  0.4235
58289SOL    HW186846   2.946  11.185   4.486 -1.0936 -0.9043  0.8737
58289SOL    HW286847   2.911  11.263   4.362  1.6100  0.8529  1.1312
58290SOL     OW86848  12.545   7.643  10.176 -0.1432 -0.4507  0.5347
58290SOL    HW186849  12.593   7.574  10.130  1.1111 -0.2529  1.4813
58290SOL    HW286850  12.504   7.598  10.251 -1.2642 -0.5689 -0.1228
58291SOL     OW86851   8.173   4.770   9.576 -0.4612 -0.0734  0.4471
58291SOL    HW186852   8.088   4.725   9.582 -1.7590  1.8077 -2.1185
58291SOL    HW286853   8.224   4.716   9.515 -0.0545 -0.7408  1.3382
58292SOL     OW86854  13.089   6.354   4.146 -0.7521 -0.0519 -0.3864
58292SOL    HW186855  13.146   6.430   4.161  0.5928 -1.3367  1.3423
58292SOL    HW286856  13.147   6.286   4.113 -1.2251 -1.3704  1.3519
58293SOL     OW86857  10.220   8.858  10.826 -0.1592  0.2575  0.0088
58293SOL    HW186858  10.264   8.914  10.763  0.1177  0.4412  0.3649
58293SOL    HW286859  10.137   8.835  10.783  1.2122 -1.9902 -1.6781
58294SOL     OW86860  11.452   0.157  12.688  0.1759  0.1432  0.3045
58294SOL    HW186861  11.440   0.247  12.658  1.6939  0.0506 -0.6658
58294SOL    HW286862  11.400   0.105  12.628  1.0116  0.1999 -0.4797
58295SOL     OW86863  13.289   9.079   3.895  0.1969 -0.4786  0.4224
58295SOL    HW186864  13.198   9.092   3.923  0.6350  0.9709  1.3092
58295SOL    HW286865  13.336   9.059   3.976  0.5965 -1.7422 -0.1020
58296SOL     OW86866  11.814   8.917   1.252  0.2301 -0.1516  0.0487
58296SOL    HW186867  11.898   8.903   1.207 -0.0007 -0.4676 -0.2883
58296SOL    HW286868  11.829   8.993   1.308  0.7763 -0.2704  0.0675
58297SOL     OW86869   6.615  12.984  10.013 -0.0848 -0.1772 -0.2225
58297SOL    HW186870   6.571  12.901   9.998 -2.6443  1.1005 -0.2308
58297SOL    HW286871   6.583  13.042   9.944 -0.6331  1.6123  1.4454
58298SOL     OW86872   5.060  13.193  10.865  0.8261  0.0993 -0.2939
58298SOL    HW186873   5.107  13.123  10.910  0.7288  0.1436 -0.1243
58298SOL    HW286874   5.045  13.159  10.776  0.3111 -0.3113 -0.0594
58299SOL     OW86875   1.121  11.885   2.557 -0.3879 -0.1196 -0.0374
58299SOL    HW186876   1.074  11.861   2.477 -2.1648  1.6153  0.3841
58299SOL    HW286877   1.115  11.808   2.613 -2.4931 -0.1181 -0.1611
58300SOL     OW86878   7.341   4.883   0.956 -0.1560 -0.3930  0.3133
58300SOL    HW186879   7.320   4.882   0.863  0.2108 -1.1650  0.2283
58300SOL    HW286880   7.421   4.832   0.963 -0.2529 -0.4518  1.0694
58301SOL     OW86881  11.164   0.902   6.393  0.1957  0.3121  0.1879
58301SOL    HW186882  11.187   0.989   6.424 -0.7937  0.7742 -0.3276
58301SOL    HW286883  11.083   0.914   6.343  0.3960 -0.7909 -0.4607
58302SOL     OW86884   9.530   2.106  13.974  0.4476 -0.9694 -0.1198
58302SOL    HW186885   9.506   2.162  13.900 -0.7612 -3.2681 -1.5723
58302SOL    HW286886   9.625   2.096  13.965  0.6897  0.7732  0.1619
58303SOL     OW86887   7.627   1.476  11.303 -0.0962  0.3929  0.0508
58303SOL    HW186888   7.585   1.391  11.315  2.4611 -0.6190  2.9084
58303SOL    HW286889   7.561   1.539  11.331 -1.1699 -0.8080  0.3215
58304SOL     OW86890   9.351  11.930  10.648  0.8177 -0.2831  0.3437
58304SOL    HW186891   9.365  12.020  10.676  1.9785 -0.6415  1.0163
58304SOL    HW286892   9.302  11.937  10.566 -2.2078  0.8160  2.0894
58305SOL     OW86893   0.467   3.015  12.702  0.3040 -0.3255 -0.8457
58305SOL    HW186894   0.546   3.064  12.684  0.3523 -0.6048 -1.4262
58305SOL    HW286895   0.395   3.074  12.679  0.3328  0.0164 -0.0845
58306SOL     OW86896   0.175   7.106  10.415  0.6779 -0.0382 -0.5641
58306SOL    HW186897   0.187   7.110  10.320  1.7613  0.1440 -0.4346
58306SOL    HW286898   0.239   7.168  10.450  0.4601 -0.2813  0.3043
58307SOL     OW86899   3.277   3.908   6.826  0.0974  0.3204  0.0984
58307SOL    HW186900   3.237   3.869   6.904  1.6586 -0.5302  0.5020
58307SOL    HW286901   3.247   3.853   6.754 -3.4607  2.5760 -0.3860
58308SOL     OW86902  10.937  11.333   4.636  0.0682  0.7824 -0.0067
58308SOL    HW186903  11.009  11.276   4.662  0.1339  0.8867  0.0404
58308SOL    HW286904  10.924  11.391   4.711 -1.1237 -0.2740  0.6618
58309SOL     OW86905   1.547  10.354  12.754 -0.2188  0.0067  0.5842
58309SOL    HW186906   1.516  10.376  12.666 -1.0036  1.1303  1.1272
58309SOL    HW286907   1.522  10.429  12.808  1.9791  0.2065  1.4033
58310SOL     OW86908  10.884   3.093  11.044 -0.3601  0.1970  0.4532
58310SOL    HW186909  10.837   3.142  11.111  0.9817  1.7443  0.3384
58310SOL    HW286910  10.891   3.153  10.970  1.2849 -0.1502  0.2699
58311SOL     OW86911   0.764   3.333   6.574  0.5802 -0.1982 -0.9198
58311SOL    HW186912   0.787   3.417   6.535 -1.4741 -0.0939 -2.0182
58311SOL    HW286913   0.733   3.354   6.662  2.7436 -0.1639 -0.0980
58312SOL     OW86914   2.396  10.884  12.322 -0.0718  0.2098 -0.3162
58312SOL    HW186915   2.461  10.818  12.299 -0.7088 -0.4073 -0.3973
58312SOL    HW286916   2.445  10.951  12.370  0.6209 -0.2272 -0.3996
58313SOL     OW86917  12.479  10.419   3.341 -0.1117 -0.8674 -0.0184
58313SOL    HW186918  12.485  10.343   3.283  0.7512  0.0285 -1.1301
58313SOL    HW286919  12.555  10.411   3.399 -1.1753 -1.9657  1.3074
58314SOL     OW86920  12.342   3.531   3.204  0.4890  0.1506 -0.2055
58314SOL    HW186921  12.389   3.561   3.126 -2.2310  2.1476 -1.2724
58314SOL    HW286922  12.376   3.585   3.275  0.0774  1.3405 -0.8849
58315SOL     OW86923   0.831  13.842   2.608  0.1240  0.3338 -0.2284
58315SOL    HW186924   0.821  13.881   2.521 -2.0198  0.2772 -0.0373
58315SOL    HW286925   0.756  13.873   2.658 -0.8295 -2.6901  0.4218
58316SOL     OW86926   9.862   5.017   0.579 -0.0600  0.1965  0.4911
58316SOL    HW186927   9.870   4.922   0.570 -1.8054  0.0296  0.5249
58316SOL    HW286928   9.876   5.050   0.490 -0.5017 -0.1661  0.2854
58317SOL     OW86929   3.888   8.575   9.247  0.6192  0.4022 -0.0872
58317SOL    HW186930   3.849   8.613   9.327  0.1618 -0.0251 -0.1046
58317SOL    HW286931   3.814   8.560   9.189  0.8071 -0.4619 -0.1071
58318SOL     OW86932  12.731  10.373   3.472  0.0999 -0.2546 -0.3145
58318SOL    HW186933  12.747  10.442   3.537 -0.1324  0.2191 -0.7512
58318SOL    HW286934  12.800  10.386   3.406 -0.8044  0.4863 -1.1403
58319SOL     OW86935   8.731   4.182   3.879 -0.0181  0.1665 -0.1154
58319SOL    HW186936   8.659   4.165   3.940 -1.1687 -0.3587 -1.5561
58319SOL    HW286937   8.810   4.154   3.926 -0.7632  0.5188  1.4118
58320SOL     OW86938   1.045   5.291   4.374  0.1045 -0.7038  0.0140
58320SOL    HW186939   1.091   5.209   4.394 -1.3197 -1.3286  0.8742
58320SOL    HW286940   1.112   5.359   4.383  0.6363 -1.4623  2.3270
58321SOL     OW86941   1.516   0.623  13.483 -0.6670 -0.0498  0.6333
58321SOL    HW186942   1.609   0.611  13.503 -0.3413  0.8931 -0.2043
58321SOL    HW286943   1.470   0.574  13.550  0.4517 -0.9879  0.7450
58322SOL     OW86944   9.795   6.630   6.834  0.0748  0.2570  0.2564
58322SOL    HW186945   9.840   6.679   6.765  1.2612  2.9528  2.7733
58322SOL    HW286946   9.747   6.696   6.884 -1.6890 -1.7513  1.4101
58323SOL     OW86947   3.893   9.614  10.135 -0.5048 -0.3183 -0.7092
58323SOL    HW186948   3.869   9.527  10.104 -0.4490 -0.3406 -0.6900
58323SOL    HW286949   3.868   9.614  10.228  1.3761 -1.0230 -0.1554
58324SOL     OW86950  11.894   1.511   8.931  0.1782 -0.0733 -0.0032
58324SOL    HW186951  11.831   1.580   8.951  2.3878  2.1861 -0.3028
58324SOL    HW286952  11.877   1.444   8.997 -2.3044  0.5412  0.0812
58325SOL     OW86953  10.659  12.491   8.776 -0.0920  0.0837 -0.2867
58325SOL    HW186954  10.585  12.476   8.717 -1.2666  0.5026  1.0245
58325SOL    HW286955  10.620  12.492   8.864  1.2528  1.6083  0.3572
58326SOL     OW86956   0.125  13.690   7.447  0.2757 -0.5239  0.4985
58326SOL    HW186957   0.119  13.722   7.537  1.3690  0.1023  0.3762
58326SOL    HW286958   0.201  13.736   7.411 -2.0885  1.8767 -1.8494
58327SOL     OW86959   5.487   3.923   3.892 -0.1706  0.0068  0.0982
58327SOL    HW186960   5.414   3.873   3.854  0.8269 -1.6239  0.2357
58327SOL    HW286961   5.556   3.918   3.827  0.7810 -0.9014  1.1439
58328SOL     OW86962   9.165  10.051   4.334  0.7146 -0.8145 -0.2786
58328SOL    HW186963   9.216  10.121   4.293 -1.1197  0.8021  0.0613
58328SOL    HW286964   9.159   9.983   4.267  1.9176 -0.3606 -0.8825
58329SOL     OW86965   6.135   8.584  13.432  0.3122 -0.2804  0.2470
58329SOL    HW186966   6.229   8.594  13.449  0.7179  1.7169 -2.5268
58329SOL    HW286967   6.131   8.534  13.351 -0.7981  2.2776 -1.3959
58330SOL     OW86968   0.586   8.981   4.266  0.2062 -0.7834 -0.4912
58330SOL    HW186969   0.504   9.029   4.257  0.4914  0.1343  1.2083
58330SOL    HW286970   0.621   9.010   4.351  1.8623 -1.7924 -0.7806
58331SOL     OW86971  10.255   2.912  10.145  0.4692 -0.6120 -0.1844
58331SOL    HW186972  10.248   2.819  10.163 -0.7464 -0.8000 -1.5225
58331SOL    HW286973  10.344   2.935  10.174  0.0247 -1.6530  2.3141
58332SOL     OW86974  10.066   0.625   9.229  0.3647 -0.3595 -0.2850
58332SOL    HW186975  10.123   0.645   9.303  1.4683  0.5388 -1.3278
58332SOL    HW286976  10.121   0.642   9.152 -1.0311 -0.3805 -1.3128
58333SOL     OW86977  14.042   8.780  11.708 -0.1768 -0.7882  0.3645
58333SOL    HW186978  14.032   8.713  11.640  0.6091 -0.1867 -0.3630
58333SOL    HW286979  14.128   8.764  11.746  1.0436  1.1389 -1.3610
58334SOL     OW86980   7.278  11.020   8.146  0.5064 -0.4038 -0.2076
58334SOL    HW186981   7.306  11.099   8.191  1.1570  0.1500 -1.5429
58334SOL    HW286982   7.291  10.950   8.210  1.1974  0.3819  0.5245
58335SOL     OW86983   3.574   2.352   3.012  0.2828  0.4617 -0.3518
58335SOL    HW186984   3.611   2.415   3.074  1.2859  1.6419 -2.0598
58335SOL    HW286985   3.479   2.367   3.017  0.5120  2.5374 -1.0587
58336SOL     OW86986   3.800  11.568   6.415  0.1882  0.4919 -0.3170
58336SOL    HW186987   3.786  11.660   6.393 -0.4454  0.0876 -1.7337
58336SOL    HW286988   3.867  11.569   6.483  1.2790  1.9309 -1.3540
58337SOL     OW86989   5.051   9.283   4.357  0.1255 -0.8447  0.2381
58337SOL    HW186990   5.066   9.276   4.263 -0.3076 -0.5461  0.1487
58337SOL    HW286991   5.007   9.201   4.380  0.2250 -0.9147  0.1840
58338SOL     OW86992  10.490   5.455   0.072 -0.1236 -0.0855 -0.3620
58338SOL    HW186993  10.496   5.484  -0.019  0.2324  1.2423  0.0629
58338SOL    HW286994  10.443   5.371   0.068 -0.4293  0.1346 -1.7201
58339SOL     OW86995   9.890  12.458   6.028  0.7361 -0.2695 -0.0510
58339SOL    HW186996   9.859  12.377   6.069 -0.9904  0.4542  0.1683
58339SOL    HW286997   9.977  12.436   5.994  2.1755 -1.0332  3.6662
58340SOL     OW86998  13.534   2.432   1.952  0.2526 -0.4670  0.0139
58340SOL    HW186999  13.562   2.361   2.009  1.1253  1.3211  1.9573
58340SOL    HW287000  13.561   2.512   1.998 -1.1848  1.1600 -1.7814
58341SOL     OW87001   1.199   9.864  13.115  0.1693  0.5861  0.0285
58341SOL    HW187002   1.139   9.930  13.149 -1.1395 -0.2783 -0.5514
58341SOL    HW287003   1.234   9.821  13.193 -0.6635  0.4846  0.3501
58342SOL     OW87004   9.700   2.610   3.300  0.3336  0.2685  0.7610
58342SOL    HW187005   9.617   2.633   3.342  0.2898  2.2669 -0.2892
58342SOL    HW287006   9.764   2.609   3.371 -0.0118  2.0583  1.1324
58343SOL     OW87007   1.360   5.138   4.114  0.5100  0.3047  0.3147
58343SOL    HW187008   1.373   5.121   4.208  1.6629  1.0406  0.3146
58343SOL    HW287009   1.432   5.092   4.071 -1.9619 -3.0672 -0.6126
58344SOL     OW87010   4.194  12.554   4.894  0.4733 -0.0366  0.4176
58344SOL    HW187011   4.217  12.640   4.858 -1.3240 -0.2089 -1.3327
58344SOL    HW287012   4.123  12.571   4.955 -0.4776 -0.3153 -0.5741
58345SOL     OW87013   4.425   8.093   6.361 -0.3369 -0.0552  0.2377
58345SOL    HW187014   4.446   8.126   6.273 -0.4248  0.2130  0.3151
58345SOL    HW287015   4.510   8.078   6.402 -0.1462  3.2448  1.3868
58346SOL     OW87016   4.310  11.023   5.734  0.2443 -0.7923 -0.5790
58346SOL    HW187017   4.339  11.042   5.823 -2.1759  2.3272 -0.2826
58346SOL    HW287018   4.330  11.102   5.685  0.2578 -1.9249 -2.4943
58347SOL     OW87019  13.930   5.156   4.740  0.2779  0.0307 -0.1178
58347SOL    HW187020  13.905   5.212   4.814 -0.3091 -1.5795  0.9674
58347SOL    HW287021  13.940   5.216   4.666  1.3996  1.7714  1.3645
58348SOL     OW87022  12.433   9.770   1.819  0.1171  0.0467 -0.0015
58348SOL    HW187023  12.423   9.691   1.872  0.6086  0.7367  1.1392
58348SOL    HW287024  12.346   9.784   1.781  0.0408 -1.0776 -0.2904
58349SOL     OW87025   4.305   3.651   3.008  0.2492  0.1606 -0.7807
58349SOL    HW187026   4.211   3.641   3.023  0.5074  0.4027  1.1449
58349SOL    HW287027   4.328   3.732   3.053  1.7296 -0.8915  0.4486
58350SOL     OW87028   9.113   5.487   6.409  0.7459 -0.4240 -0.0547
58350SOL    HW187029   9.165   5.448   6.338  1.6513  0.1699  0.2685
58350SOL    HW287030   9.050   5.543   6.363 -0.3474 -1.9709 -0.5044
58351SOL     OW87031  13.545   0.152   6.079 -0.2188 -0.2078  0.0135
58351SOL    HW187032  13.596   0.115   6.007  2.8069  1.8879  0.8334
58351SOL    HW287033  13.527   0.078   6.137 -1.6890 -1.7177 -2.2345
58352SOL     OW87034   3.729   8.774   0.304 -0.2361 -0.3006  0.1935
58352SOL    HW187035   3.713   8.819   0.221  1.2447  0.4880  0.3117
58352SOL    HW287036   3.791   8.704   0.283 -0.4685 -0.6083  0.5054
58353SOL     OW87037   9.973   4.156   4.722 -0.0514 -0.4265 -0.1559
58353SOL    HW187038   9.904   4.198   4.672 -0.1852 -1.1563 -0.5925
58353SOL    HW287039   9.976   4.205   4.804 -2.0377 -1.2362  0.4544
58354SOL     OW87040   9.177  11.806  11.741 -0.5812  0.0100 -0.3818
58354SOL    HW187041   9.222  11.890  11.751  2.1802 -1.3104 -0.5740
58354SOL    HW287042   9.106  11.809  11.804 -0.1168  2.2033  0.1223
58355SOL     OW87043   7.831   8.105  10.524  0.2898 -0.3675  0.9844
58355SOL    HW187044   7.790   8.028  10.563  1.5971 -0.1023  3.0785
58355SOL    HW287045   7.925   8.092  10.540  0.6585  0.9614  0.0340
58356SOL     OW87046   6.406   1.869   8.764 -0.2181 -0.0549 -0.0014
58356SOL    HW187047   6.470   1.915   8.709  2.4641 -2.4789  0.8691
58356SOL    HW287048   6.397   1.783   8.725 -1.3776 -0.4772  1.1052
58357SOL     OW87049   1.574   5.893   8.989  0.1781 -0.6583 -0.0520
58357SOL    HW187050   1.535   5.954   8.927 -0.1118 -0.7265  0.0634
58357SOL    HW287051   1.519   5.899   9.067 -0.0784 -1.3472 -0.1726
58358SOL     OW87052  11.345   1.766  11.339 -0.7841  0.1864 -0.4110
58358SOL    HW187053  11.437   1.741  11.348 -0.6909 -0.2967 -2.3050
58358SOL    HW287054  11.297   1.688  11.367 -0.5954  0.1021 -0.3189
58359SOL     OW87055  12.513  13.658   3.666 -0.5434  0.5862 -0.2285
58359SOL    HW187056  12.553  13.571   3.674  0.4547  1.0068 -0.5642
58359SOL    HW287057  12.423  13.640   3.637  0.6298 -0.2782 -3.9397
58360SOL     OW87058   7.081  12.201  10.099 -0.7818  0.1659 -0.6442
58360SOL    HW187059   7.012  12.161  10.046  1.4435 -2.2851 -1.9128
58360SOL    HW287060   7.057  12.180  10.189 -1.6801 -0.6159 -1.0415
58361SOL     OW87061   9.193   8.640  13.969 -0.7986 -0.1662  0.0269
58361SOL    HW187062   9.103   8.611  13.953  0.0153 -2.1018 -1.4726
58361SOL    HW287063   9.190   8.735  13.956 -2.5368 -0.2377 -0.3887
58362SOL     OW87064   0.375   2.608   7.094  0.4148 -0.0508 -0.3779
58362SOL    HW187065   0.292   2.654   7.109  0.2950 -0.3638 -0.0738
58362SOL    HW287066   0.433   2.640   7.163 -0.0732 -1.3362  0.6716
58363SOL     OW87067   0.727  11.156   1.244  0.1629 -0.3435  0.2436
58363SOL    HW187068   0.704  11.183   1.333  1.4453 -0.9167  0.7702
58363SOL    HW287069   0.726  11.061   1.246  2.5447 -0.4207  0.3298
58364SOL     OW87070  11.255   2.792   3.176 -0.0496 -0.1770 -0.5615
58364SOL    HW187071  11.246   2.877   3.132  0.2138  0.8356  1.2712
58364SOL    HW287072  11.349   2.775   3.176  0.1644  0.8219  1.3547
58365SOL     OW87073  11.627   2.501   9.933  0.1055 -0.0175 -0.2826
58365SOL    HW187074  11.660   2.422   9.889  0.1418  0.1210 -0.5053
58365SOL    HW287075  11.534   2.482   9.948  0.8648 -1.8239  3.3685
58366SOL     OW87076  10.166   5.728   2.020 -0.2821  0.0623 -0.2316
58366SOL    HW187077  10.105   5.676   1.968  0.5117 -1.8564  0.6696
58366SOL    HW287078  10.167   5.684   2.105  3.0611 -0.5779 -0.4843
58367SOL     OW87079  10.818   1.252  10.301  0.1900 -0.3990  0.1515
58367SOL    HW187080  10.774   1.311  10.362 -1.5566 -0.6546 -0.8053
58367SOL    HW287081  10.803   1.165  10.337 -0.4896 -0.5186 -0.4018
58368SOL     OW87082   6.800   0.602   3.606 -0.3238 -0.3048 -0.7574
58368SOL    HW187083   6.792   0.526   3.664  2.3168 -0.2419 -0.1487
58368SOL    HW287084   6.726   0.658   3.629  0.5881 -0.2538  2.7316
58369SOL     OW87085  12.733   6.451  12.327  0.1222 -0.8142 -0.5819
58369SOL    HW187086  12.758   6.538  12.356 -1.1794 -1.5003  3.1838
58369SOL    HW287087  12.689   6.465  12.243  0.6437  2.0381 -0.4614
58370SOL     OW87088   5.010   9.849   5.084  0.3165  0.4368  0.0053
58370SOL    HW187089   5.013   9.833   5.178  0.9106 -1.0433 -0.2410
58370SOL    HW287090   5.065   9.780   5.046 -0.3139  0.7094 -1.4596
58371SOL     OW87091   9.585   2.996   2.116  0.5051 -0.0615 -0.3383
58371SOL    HW187092   9.674   3.029   2.124  0.3259  0.2978  0.2120
58371SOL    HW287093   9.535   3.044   2.182  0.5324 -2.4362  1.5544
58372SOL     OW87094   3.626   6.372   7.385  0.5306 -0.5519  0.1613
58372SOL    HW187095   3.646   6.464   7.367 -1.0539 -0.6967 -3.0926
58372SOL    HW287096   3.556   6.375   7.450  0.2519  0.6036 -0.1672
58373SOL     OW87097   6.419   9.323  12.875 -0.2331 -0.7127  0.2289
58373SOL    HW187098   6.473   9.402  12.876  0.2883 -1.0594  1.4810
58373SOL    HW287099   6.370   9.328  12.793  0.4042  0.4905 -0.0960
58374SOL     OW87100   1.481   0.832  10.812 -0.3614  0.3898 -0.2501
58374SOL    HW187101   1.432   0.833  10.730  0.1819 -1.9896 -0.6780
58374SOL    HW287102   1.439   0.765  10.864  0.1690  0.9125  0.8836
58375SOL     OW87103   9.041   9.333   5.139  0.7953 -0.8791  0.0329
58375SOL    HW187104   8.997   9.394   5.081 -0.0552  1.0610  2.5179
58375SOL    HW287105   9.006   9.247   5.115 -0.6142  0.0144 -1.3066
58376SOL     OW87106   3.290   6.728  10.371 -0.0817  0.1622 -0.0090
58376SOL    HW187107   3.284   6.822  10.353  0.3859  0.3742  0.8523
58376SOL    HW287108   3.211   6.691  10.334  0.4552  0.6543 -1.7396
58377SOL     OW87109   5.177   1.193   8.694  0.3635  0.0196 -0.1048
58377SOL    HW187110   5.109   1.196   8.627  1.1059  0.0943 -0.8741
58377SOL    HW287111   5.166   1.274   8.744 -0.1541 -0.0070 -0.1673
58378SOL     OW87112   4.314  11.095   0.925  0.1800 -0.1565  0.0008
58378SOL    HW187113   4.248  11.147   0.970  1.3767  0.9037  0.6146
58378SOL    HW287114   4.384  11.158   0.905  1.4872 -1.4461  0.3480
58379SOL     OW87115   5.894   4.507   8.939  0.1708  0.0134  0.0428
58379SOL    HW187116   5.975   4.552   8.914  1.4953 -1.9683  0.5302
58379SOL    HW287117   5.865   4.554   9.017  1.9176 -0.3729  0.9801
58380SOL     OW87118  12.898   8.271   0.246 -0.0553  0.3609 -0.6371
58380SOL    HW187119  12.808   8.303   0.247  0.2892  1.3246  0.4040
58380SOL    HW287120  12.914   8.248   0.154 -2.3842 -2.8847 -0.4139
58381SOL     OW87121  13.617   6.569   8.222  0.1235  0.0776  0.3873
58381SOL    HW187122  13.563   6.648   8.228 -0.1244  0.0480 -1.0524
58381SOL    HW287123  13.570   6.504   8.274 -1.5614 -0.1017 -1.2360
58382SOL     OW87124  13.483   7.257  12.067 -0.4042 -0.3079 -0.2009
58382SOL    HW187125  13.509   7.334  12.016 -0.3574  0.1375  0.4912
58382SOL    HW287126  13.467   7.290  12.155 -0.4827 -1.0745  0.0831
58383SOL     OW87127   6.694   0.127   3.690  0.3165  0.3284  0.7172
58383SOL    HW187128   6.637   0.123   3.614 -0.4347  2.5372  1.0897
58383SOL    HW287129   6.674   0.048   3.740  0.7632 -1.1317 -1.2651
58384SOL     OW87130  13.484  11.501   3.258 -0.0316 -0.5041  0.1390
58384SOL    HW187131  13.395  11.467   3.260 -0.3943  0.4214  0.4947
58384SOL    HW287132  13.502  11.518   3.165 -0.0340 -1.1443  0.0154
58385SOL     OW87133   0.357   6.840   1.586  0.3796 -0.2405 -0.3128
58385SOL    HW187134   0.354   6.778   1.513 -0.6520 -2.0416  1.1571
58385SOL    HW287135   0.379   6.787   1.662 -0.0136  1.3019  0.9407
58386SOL     OW87136   0.926   9.516   2.419 -1.0691 -0.1550  0.1110
58386SOL    HW187137   0.904   9.608   2.403  0.2087  0.0408 -0.6400
58386SOL    HW287138   0.871   9.491   2.493  0.5348  2.0584  2.2127
58387SOL     OW87139   5.677  11.380   3.013 -0.4374 -0.4341  0.4781
58387SOL    HW187140   5.713  11.465   2.988  0.0413 -0.6721  0.3457
58387SOL    HW287141   5.726  11.316   2.960 -1.1992 -0.7488  0.1422
58388SOL     OW87142   1.973  10.066  12.992 -0.3156 -0.4578  0.4215
58388SOL    HW187143   2.046  10.126  12.982  0.0854 -0.5553  2.3585
58388SOL    HW287144   1.907  10.097  12.930  0.4137  1.1291  0.4003
58389SOL     OW87145   7.998   0.891   9.129  0.0175  0.7008 -0.9932
58389SOL    HW187146   8.044   0.946   9.065  1.1416  0.6707 -0.2440
58389SOL    HW287147   7.973   0.813   9.080  1.2459  0.4872 -1.3245
58390SOL     OW87148   2.983  12.889  12.534 -0.0491 -0.1940 -0.6645
58390SOL    HW187149   2.964  12.803  12.571  0.7999 -0.1241 -0.0312
58390SOL    HW287150   2.908  12.909  12.479 -1.6069 -0.0968  1.3769
58391SOL     OW87151   6.877   1.133   9.055 -0.0524  0.0621 -0.3244
58391SOL    HW187152   6.815   1.169   9.118 -0.7062  0.0376 -0.9334
58391SOL    HW287153   6.851   1.171   8.971  2.1071  1.7760 -0.3078
58392SOL     OW87154  12.091   8.708  13.597 -0.3602  0.6870 -0.7577
58392SOL    HW187155  12.109   8.733  13.688 -0.2467 -2.7762  0.3262
58392SOL    HW287156  11.997   8.726  13.585 -0.9590 -0.9482  0.9336
58393SOL     OW87157   8.546   1.525   4.236  0.4104 -0.1947 -0.1703
58393SOL    HW187158   8.614   1.500   4.300  0.6262  1.8631  0.5012
58393SOL    HW287159   8.509   1.605   4.272 -0.1629  0.4885 -2.1630
58394SOL     OW87160   7.074   0.826   4.955  0.0255  0.1822  0.2266
58394SOL    HW187161   7.102   0.885   5.025  0.3609  0.9175 -0.5061
58394SOL    HW287162   7.017   0.880   4.900  0.7084 -0.0373 -0.7140
58395SOL     OW87163  10.152   4.281   5.393 -0.0609  0.2801  0.8907
58395SOL    HW187164  10.211   4.208   5.414 -0.3830 -0.2722 -0.0564
58395SOL    HW287165  10.172   4.302   5.302 -2.4768 -1.0585 -0.0332
58396SOL     OW87166   9.685  11.567   0.250  0.3348  0.7468  0.4395
58396SOL    HW187167   9.776  11.537   0.260 -0.2757 -1.5579 -0.3104
58396SOL    HW287168   9.693  11.653   0.209  2.1810  0.0312 -0.8412
58397SOL     OW87169  13.018   2.638  10.166 -0.3041  0.0738  0.4916
58397SOL    HW187170  12.987   2.716  10.120  1.7619  0.7339  0.1231
58397SOL    HW287171  13.113   2.649  10.171 -0.1019 -1.7778  1.6482
58398SOL     OW87172   8.410   2.660  12.053 -0.4820 -0.6107  0.3091
58398SOL    HW187173   8.387   2.600  12.125 -0.6505 -1.3730 -0.3658
58398SOL    HW287174   8.327   2.677  12.009 -0.0034 -2.4178 -1.4117
58399SOL     OW87175  12.173   8.035   4.286  0.0565 -0.3826  0.1830
58399SOL    HW187176  12.200   7.976   4.357  1.5555  0.9134  0.7572
58399SOL    HW287177  12.161   8.120   4.329  1.3939  0.5259 -1.1456
58400SOL     OW87178  11.599  13.950   3.245 -0.6943  0.7435  0.0540
58400SOL    HW187179  11.564  13.890   3.311 -0.7290  1.6928  0.9220
58400SOL    HW287180  11.574  13.911   3.161 -1.2623 -0.1181  0.6131
58401SOL     OW87181   9.160   5.453   6.679 -0.1238  0.2177 -0.3061
58401SOL    HW187182   9.225   5.385   6.694  1.3352  2.0273  2.3782
58401SOL    HW287183   9.148   5.454   6.584  0.3800 -3.1550 -0.5167
58402SOL     OW87184  12.673   4.094   4.604 -0.0882 -0.3992  0.3160
58402SOL    HW187185  12.614   4.026   4.636 -1.9924  0.3275 -1.4212
58402SOL    HW287186  12.667   4.163   4.670 -0.8486 -0.5232  0.3878
58403SOL     OW87187   0.577   3.386   4.808  0.3004  0.3266  0.0050
58403SOL    HW187188   0.616   3.331   4.740 -0.4426 -1.2377  0.7842
58403SOL    HW287189   0.618   3.472   4.796 -0.0202  0.1939 -2.5791
58404SOL     OW87190   1.118   1.541   0.545  0.1925 -0.4493  0.7906
58404SOL    HW187191   1.136   1.611   0.607  1.3151 -1.6553  1.8653
58404SOL    HW287192   1.175   1.469   0.571  0.0908 -1.3009 -1.1338
58405SOL     OW87193  13.572  12.176   1.182  0.2544  0.5036  0.2929
58405SOL    HW187194  13.507  12.106   1.179  1.8484 -1.1151  0.9822
58405SOL    HW287195  13.551  12.224   1.262 -0.1367  0.0380  0.4765
58406SOL     OW87196  13.528  12.128  12.771  0.7925 -0.0793  0.3495
58406SOL    HW187197  13.601  12.115  12.710 -0.6475  0.9512 -1.7303
58406SOL    HW287198  13.477  12.199  12.732 -1.7706 -1.3152  1.2151
58407SOL     OW87199   2.862   3.161   7.286  0.6156 -0.6853  0.6417
58407SOL    HW187200   2.794   3.134   7.349  0.6427 -0.5997  0.7074
58407SOL    HW287201   2.880   3.081   7.236 -0.9111 -0.2631 -0.6863
58408SOL     OW87202   6.456   0.562   4.363 -0.4421  0.3999  0.6165
58408SOL    HW187203   6.438   0.650   4.328  0.8149  0.2850 -0.3754
58408SOL    HW287204   6.371   0.533   4.398 -0.7770  2.1791  1.4017
58409SOL     OW87205  10.798   2.204   7.398  0.7149 -0.0006 -0.2409
58409SOL    HW187206  10.720   2.260   7.408  0.4511 -0.4407  0.2745
58409SOL    HW287207  10.762   2.118   7.374  1.1711  0.2468 -1.9345
58410SOL     OW87208   4.407  12.744   8.015 -0.3004  0.0006  0.2670
58410SOL    HW187209   4.365  12.819   7.973 -1.6175 -0.9444 -0.1594
58410SOL    HW287210   4.336  12.682   8.031  0.5541 -0.6661  1.7327
58411SOL     OW87211   6.626   5.650   1.599 -0.0948 -0.2302 -0.0660
58411SOL    HW187212   6.665   5.568   1.627  0.3200  0.5553  1.8046
58411SOL    HW287213   6.615   5.641   1.504  2.5341 -1.3493 -0.3341
58412SOL     OW87214   4.744  10.191   0.666 -0.4295 -0.0491 -0.3437
58412SOL    HW187215   4.830  10.185   0.707 -0.2150 -0.2797 -0.8222
58412SOL    HW287216   4.723  10.102   0.638 -0.6109  0.0874 -0.6572
58413SOL     OW87217   5.794   3.484   0.603 -0.3423  0.2444 -0.2094
58413SOL    HW187218   5.874   3.466   0.653 -1.8994 -0.5879  2.1494
58413SOL    HW287219   5.753   3.556   0.649 -2.5387 -1.4667  0.6675
58414SOL     OW87220  13.947   3.229   9.493 -0.3269 -0.3045 -0.0257
58414SOL    HW187221  14.040   3.249   9.509 -0.8653  3.1219 -0.5176
58414SOL    HW287222  13.905   3.240   9.578 -0.7094  1.5207 -0.4017
58415SOL     OW87223   1.686   1.265  11.222  0.1684  0.4649  0.3589
58415SOL    HW187224   1.633   1.341  11.197 -0.7608  0.2711  1.6792
58415SOL    HW287225   1.663   1.248  11.313  2.6723  0.5136  1.0851
58416SOL     OW87226   0.510   9.828   9.104  0.3793  0.3181 -0.3243
58416SOL    HW187227   0.428   9.876   9.087  1.3419  2.5101  0.7650
58416SOL    HW287228   0.527   9.781   9.022 -1.8692 -0.0727 -0.6295
58417SOL     OW87229   6.731  11.529   1.809  0.7559  0.0398  0.3853
58417SOL    HW187230   6.665  11.472   1.769  0.3433  0.9451 -0.2753
58417SOL    HW287231   6.798  11.540   1.742  0.7935  0.3815  0.4755
58418SOL     OW87232  12.527   6.647  12.684  0.3061 -0.3294 -0.1956
58418SOL    HW187233  12.561   6.719  12.632  2.6076 -1.5967 -0.5716
58418SOL    HW287234  12.432   6.649  12.670  0.5599  1.2324 -1.9517
58419SOL     OW87235   3.129  13.350  11.893 -0.4220 -0.0702  0.0158
58419SOL    HW187236   3.203  13.299  11.859 -0.5816  0.0930 -0.5763
58419SOL    HW287237   3.133  13.336  11.988  2.0864  2.2155  0.3794
58420SOL     OW87238   6.136  11.607  11.817  0.3387 -0.3149 -0.0797
58420SOL    HW187239   6.098  11.530  11.776 -0.0613  0.3192 -0.9480
58420SOL    HW287240   6.107  11.680  11.762  1.9468  0.3026 -0.1689
58421SOL     OW87241  13.272   1.200   5.078 -0.4068 -0.2714 -0.1766
58421SOL    HW187242  13.326   1.260   5.025  0.5251 -1.1870 -0.3017
58421SOL    HW287243  13.185   1.238   5.076  0.3238  1.5520  0.4485
58422SOL     OW87244   1.190   4.685   4.337 -0.1879  0.1415 -0.3903
58422SOL    HW187245   1.263   4.744   4.317  1.1007 -1.1273  0.3755
58422SOL    HW287246   1.210   4.651   4.424 -1.6860 -0.2649 -0.1834
58423SOL     OW87247  12.888   0.156   2.142  0.5358 -0.5151 -0.3885
58423SOL    HW187248  12.901   0.194   2.055  0.3685 -0.4148 -0.3702
58423SOL    HW287249  12.968   0.105   2.158  1.2608  0.7171  0.0482
58424SOL     OW87250  10.757  11.371  12.928  0.4379  0.2826  0.2609
58424SOL    HW187251  10.774  11.464  12.939 -0.2855  0.3952  0.4953
58424SOL    HW287252  10.840  11.334  12.897  0.4366  1.1773 -0.8925
58425SOL     OW87253  11.977  11.301   7.907  1.0326  0.1185  0.0345
58425SOL    HW187254  11.986  11.365   7.837 -2.5840  0.4102 -0.3244
58425SOL    HW287255  11.899  11.328   7.956  1.3330 -2.1168  1.9619
58426SOL     OW87256   7.177   4.528  13.862 -0.2213  0.1767  0.2313
58426SOL    HW187257   7.107   4.513  13.926  0.0786 -0.0312  0.5134
58426SOL    HW287258   7.166   4.620  13.836 -0.6054  0.1426  0.2609
58427SOL     OW87259  12.482  12.830  13.242  0.1843  0.4639 -0.9310
58427SOL    HW187260  12.531  12.757  13.280 -2.2388 -0.0715  1.5225
58427SOL    HW287261  12.534  12.908  13.262  1.2074 -0.2747 -0.6390
58428SOL     OW87262   3.993  12.356   7.683 -0.3541  0.2582  0.3107
58428SOL    HW187263   3.981  12.261   7.693 -0.8369  0.1425 -1.1402
58428SOL    HW287264   4.087  12.366   7.666 -0.0864  0.1732  1.6381
58429SOL     OW87265   0.365   8.860  12.788 -0.1758 -0.0061  0.6809
58429SOL    HW187266   0.459   8.878  12.795 -0.1328 -0.0078  0.1664
58429SOL    HW287267   0.337   8.906  12.708 -0.7027  0.3516  1.0647
58430SOL     OW87268   8.435  10.385  12.991  0.5277  0.0998  0.7775
58430SOL    HW187269   8.474  10.451  12.933 -0.4287 -1.0029 -1.2360
58430SOL    HW287270   8.505  10.362  13.051  1.6162  1.2451  0.0125
58431SOL     OW87271  12.662   0.773   3.459  0.4911 -0.4500 -0.8586
58431SOL    HW187272  12.663   0.868   3.475 -0.3351 -0.4655 -0.6436
58431SOL    HW287273  12.748   0.743   3.488 -0.1863 -0.1555  1.7744
58432SOL     OW87274   1.958   8.467   3.881  0.5922 -0.2451  0.7566
58432SOL    HW187275   1.864   8.481   3.887  0.7772  0.6313  2.2842
58432SOL    HW287276   1.988   8.470   3.972  1.9840 -1.4159  0.3738
58433SOL     OW87277   7.266  12.857   2.797 -0.2733  0.1322  0.1769
58433SOL    HW187278   7.253  12.800   2.721 -0.7780 -0.2313  0.5241
58433SOL    HW287279   7.305  12.937   2.762 -0.2867 -0.1279 -0.4297
58434SOL     OW87280   7.386   5.435   0.270 -0.2388  0.0247  0.1052
58434SOL    HW187281   7.379   5.480   0.354 -0.3333  0.1195  0.0472
58434SOL    HW287282   7.420   5.501   0.210  0.0517 -0.1086  0.1207
58435SOL     OW87283   9.389   8.999   1.427 -0.4186 -0.3731  0.1401
58435SOL    HW187284   9.478   8.983   1.397  0.1343  1.4805  0.6547
58435SOL    HW287285   9.372   8.930   1.491  1.8557  0.9543  2.3625
58436SOL     OW87286   8.569  12.293   0.810 -0.1380  0.3729  0.3805
58436SOL    HW187287   8.537  12.259   0.727 -1.6178  0.1804  1.0029
58436SOL    HW287288   8.663  12.271   0.810 -0.1261  0.3303 -1.1894
58437SOL     OW87289   4.733   2.447   2.476 -0.0268  0.3693 -0.1149
58437SOL    HW187290   4.766   2.358   2.467  1.3887  0.8607 -0.0664
58437SOL    HW287291   4.808   2.503   2.457 -0.5145  1.5480  1.1996
58438SOL     OW87292   1.921  13.954   2.591  0.1177  0.0834  0.3587
58438SOL    HW187293   1.868  13.899   2.650  1.0820 -2.4963 -0.9961
58438SOL    HW287294   1.987  13.894   2.556  0.1718  1.7099 -2.6358
58439SOL     OW87295  12.505   0.499   6.080  0.3205  0.3891 -0.2932
58439SOL    HW187296  12.482   0.449   6.001 -0.5098 -0.0605  0.2249
58439SOL    HW287297  12.525   0.587   6.047 -0.5302  0.3504 -0.9555
58440SOL     OW87298   8.731   6.757  12.786  0.2398  0.5418  0.1512
58440SOL    HW187299   8.772   6.748  12.701  1.3269  2.6767  0.3619
58440SOL    HW287300   8.684   6.841  12.781 -0.4339  0.2655  1.3502
58441SOL     OW87301   6.643   8.519   1.424  0.1538  0.7241  0.4069
58441SOL    HW187302   6.687   8.578   1.363  0.6352 -2.1027 -2.1979
58441SOL    HW287303   6.550   8.543   1.419  0.0756  0.1029 -2.0643
58442SOL     OW87304   5.248  12.822  11.561  0.0136  0.3631 -0.4257
58442SOL    HW187305   5.188  12.897  11.559 -0.6993 -0.1890  0.0508
58442SOL    HW287306   5.323  12.853  11.613 -0.8727  0.3280  0.9164
58443SOL     OW87307   6.570  12.953   5.777 -0.0491  0.0342  0.4485
58443SOL    HW187308   6.605  12.870   5.811 -2.5528 -1.6469 -0.7833
58443SOL    HW287309   6.588  12.949   5.683 -2.6019 -0.4968 -0.0820
58444SOL     OW87310   5.308   0.985   5.983  0.0967 -0.2574 -0.1750
58444SOL    HW187311   5.257   0.909   5.957  0.2704 -0.1555 -0.8326
58444SOL    HW287312   5.365   0.952   6.053 -0.1381 -0.6185 -0.1486
58445SOL     OW87313   0.182   6.867   6.989  0.5665  0.7322  0.0283
58445SOL    HW187314   0.252   6.927   6.962  1.2598 -1.4038 -3.5522
58445SOL    HW287315   0.106   6.893   6.937 -0.6130  1.3325  1.9279
58446SOL     OW87316   7.053  10.238   0.798  0.4409  0.3531  0.0184
58446SOL    HW187317   7.108  10.302   0.753  0.7657  0.8509  1.1085
58446SOL    HW287318   7.110  10.199   0.864 -0.0220 -0.4033 -0.0141
58447SOL     OW87319  13.297   4.053  10.936  0.0994  0.3807 -0.0387
58447SOL    HW187320  13.202   4.060  10.946  0.2965  1.6592  1.4168
58447SOL    HW287321  13.319   4.124  10.876  0.2543  1.0499  0.7805
58448SOL     OW87322  13.656   8.136   3.376 -0.2096 -0.2542 -0.2737
58448SOL    HW187323  13.746   8.148   3.347  0.2861  1.6311  1.7471
58448SOL    HW287324  13.647   8.042   3.392  1.5377 -0.4213 -0.1075
58449SOL     OW87325   5.847   4.222   3.337 -0.0283  0.4816  0.3820
58449SOL    HW187326   5.756   4.242   3.356 -0.6197 -2.6430  1.4205
58449SOL    HW287327   5.848   4.127   3.322  2.9932  0.4692  0.0187
58450SOL     OW87328   4.764   2.814   8.219 -0.1334  0.3143 -0.1457
58450SOL    HW187329   4.751   2.909   8.213 -0.4342  0.1887 -2.4833
58450SOL    HW287330   4.688   2.777   8.174  1.2243 -0.9512 -1.4825
58451SOL     OW87331  13.875   4.840   1.381 -0.4880 -0.3530 -0.2811
58451SOL    HW187332  13.938   4.773   1.402 -0.1858  0.1888  0.5840
58451SOL    HW287333  13.830   4.808   1.302  0.6205 -0.8899 -0.7033
58452SOL     OW87334   0.458  13.208   0.128  0.2724  0.0232 -0.4574
58452SOL    HW187335   0.390  13.142   0.143 -0.7371  0.9612 -0.8078
58452SOL    HW287336   0.438  13.243   0.041  0.8212  0.7752 -0.2865
58453SOL     OW87337   2.923   4.329   0.777 -0.4033 -0.1941  0.0608
58453SOL    HW187338   2.929   4.245   0.823 -1.0694  0.5719  1.6000
58453SOL    HW287339   2.841   4.368   0.807  0.0844  1.1922 -0.3248
58454SOL     OW87340   6.658   7.444  12.342  0.4068 -0.8273 -0.3346
58454SOL    HW187341   6.582   7.502  12.346 -1.1578 -2.7070 -0.8584
58454SOL    HW287342   6.665   7.407  12.430  2.8162  1.6993  0.6800
58455SOL     OW87343   5.257  11.755   4.796 -0.4293  0.0334  0.1412
58455SOL    HW187344   5.167  11.724   4.810 -0.6282  0.4095 -0.2555
58455SOL    HW287345   5.291  11.697   4.728 -0.3207 -0.2103  0.4072
58456SOL     OW87346  11.606  11.342   9.612  0.2733 -0.1409  0.5059
58456SOL    HW187347  11.584  11.434   9.624 -1.1578 -0.4747  0.6044
58456SOL    HW287348  11.550  11.313   9.540  0.6520 -0.9637  0.5329
58457SOL     OW87349   6.594   1.020   3.535 -0.2481 -0.0103  0.3578
58457SOL    HW187350   6.621   1.016   3.444  1.0831  0.0048  0.7277
58457SOL    HW287351   6.575   1.113   3.551  0.0805  0.0768  0.2439
58458SOL     OW87352   7.602   1.616   8.088 -0.1314  0.0991  0.0983
58458SOL    HW187353   7.628   1.656   8.006  1.4529 -0.7455  0.1419
58458SOL    HW287354   7.512   1.588   8.074  1.5951 -5.2680 -3.6388
58459SOL     OW87355   3.496   2.775   7.640  0.3980  0.2262 -0.2416
58459SOL    HW187356   3.478   2.809   7.552  1.4196  0.7925 -0.2523
58459SOL    HW287357   3.588   2.797   7.655  1.0394 -2.2408 -0.1124
58460SOL     OW87358  11.290  12.782   8.230 -0.2195 -0.4394  0.1075
58460SOL    HW187359  11.196  12.767   8.217 -0.5731 -0.1506  1.9767
58460SOL    HW287360  11.297  12.877   8.240  0.4624 -0.3411 -1.1203
58461SOL     OW87361   9.943   2.924  11.998 -0.5023  0.1768  0.3146
58461SOL    HW187362  10.024   2.886  12.032 -1.7954 -1.4272  1.7849
58461SOL    HW287363   9.971   2.977  11.923  2.1096  1.2361  1.8995
58462SOL     OW87364   3.318  13.885   3.350  0.3093  0.6477 -0.0411
58462SOL    HW187365   3.345  13.883   3.258  0.0714 -3.5973 -0.2348
58462SOL    HW287366   3.227  13.914   3.347  0.4973  1.2019 -1.0506
58463SOL     OW87367   0.165  13.379   9.727  0.1973  0.5043 -0.4651
58463SOL    HW187368   0.260  13.375   9.720  0.3858 -1.3907  2.0881
58463SOL    HW287369   0.145  13.473   9.722  2.1754  0.9480 -0.8295
58464SOL     OW87370   8.022   7.279  10.184  0.5598  0.3037  0.3028
58464SOL    HW187371   8.053   7.370  10.188  1.5506 -0.0433  1.0111
58464SOL    HW287372   8.067   7.242  10.107  0.1426  0.4134  0.0035
58465SOL     OW87373  10.835   1.958   7.573  0.1685  0.5074 -0.7615
58465SOL    HW187374  10.912   1.954   7.630 -0.3544 -0.1226 -0.0729
58465SOL    HW287375  10.866   1.931   7.487  0.6315 -0.1246 -0.3998
58466SOL     OW87376   9.994  10.521   6.637 -0.6671 -0.2534 -0.0308
58466SOL    HW187377   9.972  10.509   6.544 -1.1370  0.4038 -0.0164
58466SOL    HW287378  10.086  10.550   6.636 -0.8529  0.3547 -0.3429
58467SOL     OW87379   5.577   9.669   0.278  0.1651  0.1460  0.1118
58467SOL    HW187380   5.511   9.733   0.305 -2.0267 -1.4691 -1.0578
58467SOL    HW287381   5.576   9.603   0.348 -0.5243 -0.5842 -0.5665
58468SOL     OW87382   1.056  13.705   4.300  0.2382  0.0441  0.4730
58468SOL    HW187383   1.146  13.717   4.330 -0.2653  1.8057  1.3624
58468SOL    HW287384   1.026  13.626   4.346  1.0974 -0.1851  0.6630
58469SOL     OW87385   8.628   4.934  10.717  0.0325  0.0861 -0.4514
58469SOL    HW187386   8.555   4.876  10.739 -1.5630  1.2861 -2.3258
58469SOL    HW287387   8.643   4.919  10.624  0.1786  2.0250 -0.7717
58470SOL     OW87388   6.241   8.535  12.140 -0.3197  0.0089 -0.1603
58470SOL    HW187389   6.198   8.550  12.225  0.0313 -0.4577  0.1011
58470SOL    HW287390   6.168   8.519  12.080 -0.6088  0.9309 -0.0805
58471SOL     OW87391  10.410  12.001   9.233  0.0208  0.1410  0.0118
58471SOL    HW187392  10.422  12.063   9.304 -2.1477 -0.3115  0.8582
58471SOL    HW287393  10.317  12.009   9.209  0.6940  0.4695 -2.9706
58472SOL     OW87394  11.287   8.539  12.921  0.0023 -0.5350 -0.3301
58472SOL    HW187395  11.280   8.579  13.008  2.2289  0.5067 -0.5617
58472SOL    HW287396  11.199   8.509  12.901 -0.8593  0.4748  1.6851
58473SOL     OW87397   9.447  11.913   4.000  0.2226  0.5063  0.6892
58473SOL    HW187398   9.522  11.972   4.008  0.3511  0.6730 -1.2365
58473SOL    HW287399   9.393  11.933   4.076  1.4096  1.4244  1.3280
58474SOL     OW87400  12.868   4.359   7.089 -0.0628  0.2868 -0.2807
58474SOL    HW187401  12.824   4.275   7.078 -0.4164  0.5099 -0.6162
58474SOL    HW287402  12.813   4.421   7.040  1.0525  0.4298 -1.4153
58475SOL     OW87403   1.152   4.125   8.869 -0.0072 -0.6407  0.9383
58475SOL    HW187404   1.242   4.133   8.839 -0.3223 -1.6072 -0.3594
58475SOL    HW287405   1.143   4.033   8.893 -1.6236 -1.5377 -2.5163
58476SOL     OW87406   8.904   0.619  13.570  0.1266  0.3453 -0.1759
58476SOL    HW187407   8.957   0.544  13.597 -0.6815 -0.1279  0.1279
58476SOL    HW287408   8.956   0.696  13.595  1.0982 -0.0994 -0.7581
58477SOL     OW87409   5.344  13.013   7.388  0.2253  0.2725 -0.0718
58477SOL    HW187410   5.268  13.021   7.330  0.7305  0.1197 -0.7669
58477SOL    HW287411   5.337  12.926   7.427  0.5280 -0.1132 -0.8494
58478SOL     OW87412  11.245   1.970  10.261  0.5605 -0.1947  0.1239
58478SOL    HW187413  11.213   1.910  10.328 -0.1482 -1.4701 -1.3132
58478SOL    HW287414  11.199   1.945  10.181  0.0471  2.4237 -0.5007
58479SOL     OW87415  13.379  12.662   5.424  0.3394 -0.5350  0.2887
58479SOL    HW187416  13.453  12.626   5.375 -0.3981  0.7068 -1.8786
58479SOL    HW287417  13.301  12.630   5.379 -0.5383 -2.0213  2.6766
58480SOL     OW87418  12.943   4.097   5.465 -0.4285 -0.0382  0.3155
58480SOL    HW187419  12.955   4.179   5.513  1.5874 -0.1842  0.1278
58480SOL    HW287420  13.004   4.036   5.505 -1.2834 -1.2219 -0.1242
58481SOL     OW87421   0.312   9.484   2.596  0.2162  0.0948  0.0618
58481SOL    HW187422   0.338   9.512   2.509  1.5387  0.9688  0.7089
58481SOL    HW287423   0.250   9.413   2.581 -2.1030  2.2993 -1.6447
58482SOL     OW87424   6.219   8.861   6.980  0.0364  0.9579 -0.3320
58482SOL    HW187425   6.237   8.955   6.977  3.5799  0.4826  0.8133
58482SOL    HW287426   6.246   8.830   6.893 -0.2663  0.8869 -0.3999
58483SOL     OW87427  13.769  12.735   1.872 -0.2782  0.5416  0.8973
58483SOL    HW187428  13.822  12.789   1.813 -0.2349 -0.7475 -0.2802
58483SOL    HW287429  13.680  12.769   1.862 -0.1126  0.9844  0.8745
58484SOL     OW87430   7.171   6.713  11.529  0.1258  0.6232 -0.1031
58484SOL    HW187431   7.188   6.797  11.486  0.8694  1.1157  1.1209
58484SOL    HW287432   7.256   6.669  11.531  0.5912  1.5040  2.6982
58485SOL     OW87433   2.434   7.626   0.641  0.0635  0.5088  0.1489
58485SOL    HW187434   2.398   7.686   0.706  0.1010  0.7504 -0.0489
58485SOL    HW287435   2.528   7.645   0.641  0.1150  0.2559  0.2829
58486SOL     OW87436   4.562   0.428   5.889  0.1194 -0.2731  0.2198
58486SOL    HW187437   4.562   0.463   5.978 -1.0441  0.5124 -0.0693
58486SOL    HW287438   4.562   0.333   5.901  2.2317 -0.2111  1.0209
58487SOL     OW87439   5.076  12.972  11.183  0.7308  0.2164 -0.3277
58487SOL    HW187440   5.001  12.998  11.238  1.1356  0.9603 -0.1167
58487SOL    HW287441   5.134  12.925  11.243  0.3784 -0.4896 -0.5249
58488SOL     OW87442   1.823   3.416  12.644 -0.6010 -0.1455  0.0065
58488SOL    HW187443   1.786   3.498  12.677 -0.7367 -0.7301  1.3604
58488SOL    HW287444   1.757   3.350  12.663 -0.4989 -0.5924 -1.0989
58489SOL     OW87445   2.596   4.844   3.531 -0.0412 -0.0974  0.4262
58489SOL    HW187446   2.618   4.794   3.453 -1.4194  0.3882 -0.3139
58489SOL    HW287447   2.604   4.936   3.505 -2.3483  0.1140  0.1974
58490SOL     OW87448   6.126   0.135  10.534  0.1803 -0.0268  0.1639
58490SOL    HW187449   6.035   0.141  10.563 -0.0644  0.2759 -0.6611
58490SOL    HW287450   6.164   0.221  10.555 -0.1093  0.3361 -0.7824
58491SOL     OW87451   0.756  11.488   1.230 -0.2419 -0.2572 -0.1276
58491SOL    HW187452   0.841  11.458   1.197  0.3866  0.7452  0.5281
58491SOL    HW287453   0.696  11.475   1.157  0.5920 -0.4743 -0.7899
58492SOL     OW87454   8.898   5.618   7.104 -0.1664 -0.2316  0.0914
58492SOL    HW187455   8.917   5.524   7.096  0.9688 -0.0677  0.6441
58492SOL    HW287456   8.938   5.657   7.026 -1.6162 -0.3196 -0.7255
58493SOL     OW87457   5.814   5.251   3.846  0.7461  0.0747 -0.0142
58493SOL    HW187458   5.903   5.237   3.877  0.7735 -0.2849 -0.2605
58493SOL    HW287459   5.771   5.166   3.854  0.4038  0.2585  0.1640
58494SOL     OW87460   7.034   0.332   0.475  0.1273 -0.2835 -0.2831
58494SOL    HW187461   7.074   0.419   0.472 -1.7378  0.6249 -0.8250
58494SOL    HW287462   7.097   0.277   0.521 -0.3618  2.3063  3.9939
58495SOL     OW87463  12.023  13.823   3.381  0.2932  0.3183 -0.2731
58495SOL    HW187464  12.051  13.784   3.298  1.7443 -1.3495  0.9326
58495SOL    HW287465  12.073  13.776   3.448 -0.6986  1.7356  1.5537
58496SOL     OW87466   4.584   4.739  11.088  0.0682 -0.1561 -0.2440
58496SOL    HW187467   4.531   4.773  11.016  3.3751  0.7628 -2.4725
58496SOL    HW287468   4.609   4.651  11.059  0.6113 -0.1729  0.2677
58497SOL     OW87469  11.332   5.326  13.798 -0.5190  0.5110  0.3664
58497SOL    HW187470  11.282   5.404  13.777 -1.8789 -0.4166  0.0083
58497SOL    HW287471  11.270   5.268  13.841  0.7432  0.0417  1.6574
58498SOL     OW87472  13.606  13.034   1.900  0.1258  0.6485  0.1691
58498SOL    HW187473  13.594  13.036   1.995  2.4681 -1.1752  0.5789
58498SOL    HW287474  13.547  12.965   1.870 -1.3603  1.8924  0.1019
58499SOL     OW87475   9.995   1.826  13.889 -0.2637  0.6565 -0.0830
58499SOL    HW187476  10.051   1.881  13.945  0.9123 -1.5865  1.0776
58499SOL    HW287477  10.055   1.764  13.849 -1.8326 -1.9886  1.3758
58500SOL     OW87478   6.819  13.261   3.643  0.1231  0.7274  0.6484
58500SOL    HW187479   6.743  13.317   3.628  0.1725  0.4594 -0.6498
58500SOL    HW287480   6.890  13.302   3.594  0.3656 -0.0033  0.3757
58501SOL     OW87481  12.695   3.988   7.733 -0.2682 -0.8826 -0.5772
58501SOL    HW187482  12.753   3.968   7.807  0.5527 -0.2698 -1.0416
58501SOL    HW287483  12.715   3.922   7.667 -0.1728 -0.7313 -0.6999
58502SOL     OW87484  12.571  10.088   2.346 -0.0769 -0.3541 -0.3110
58502SOL    HW187485  12.592  10.008   2.394  0.6526 -0.4238 -0.7314
58502SOL    HW287486  12.569  10.062   2.254  3.5038  0.6533 -0.8622
58503SOL     OW87487  13.828   2.229   3.106 -0.7506  0.2312  0.2840
58503SOL    HW187488  13.891   2.241   3.177 -0.1036 -0.8056 -0.0755
58503SOL    HW287489  13.864   2.279   3.033 -1.1091  0.8220  0.5101
58504SOL     OW87490   0.305  12.967   4.251  0.3230 -0.3624 -0.0342
58504SOL    HW187491   0.296  12.958   4.346 -0.2244  0.2835 -0.0197
58504SOL    HW287492   0.395  12.996   4.238  0.7094 -1.3800  0.2136
58505SOL     OW87493  11.089  12.280   4.179 -0.0881 -0.0681 -0.1128
58505SOL    HW187494  10.995  12.295   4.183  0.2165  1.9284  1.6946
58505SOL    HW287495  11.111  12.243   4.265  0.7869 -0.4878 -0.5014
58506SOL     OW87496  12.036   5.484  10.668 -0.0774 -0.3433 -0.1578
58506SOL    HW187497  12.078   5.496  10.753 -0.4924 -0.0115  0.0078
58506SOL    HW287498  11.957   5.539  10.672  0.1090  0.0018 -0.9094
58507SOL     OW87499   8.122   5.036   7.859 -0.0905 -0.3533 -0.2056
58507SOL    HW187500   8.035   5.033   7.900 -0.5929  1.8630 -0.9606
58507SOL    HW287501   8.183   5.037   7.933 -0.8288  0.4970  0.4204
58508SOL     OW87502   7.779   2.031  11.892  0.5772 -0.2880 -0.3468
58508SOL    HW187503   7.728   1.992  11.821  0.0448  1.2970 -0.8760
58508SOL    HW287504   7.809   2.115  11.857  0.3163  0.5298  1.2962
58509SOL     OW87505   3.443   3.205   4.640  0.0979  0.7452 -0.1602
58509SOL    HW187506   3.400   3.272   4.587  0.3197 -0.3192 -1.7372
58509SOL    HW287507   3.413   3.122   4.604  1.8938 -0.0188 -0.0250
58510SOL     OW87508  13.713   7.640   5.560 -0.2201  0.3427  0.2685
58510SOL    HW187509  13.684   7.549   5.558 -0.6596  0.4764  0.5300
58510SOL    HW287510  13.809   7.635   5.564 -0.2300 -0.1038 -0.0044
58511SOL     OW87511   1.212   9.941  12.177  0.0439  0.5736 -0.6830
58511SOL    HW187512   1.263   9.860  12.179  0.5273  0.8719 -0.5945
58511SOL    HW287513   1.212   9.971  12.268  0.2533  0.9072 -0.7915
58512SOL     OW87514   4.949  13.195   9.893 -0.3887 -0.2592  0.4142
58512SOL    HW187515   4.957  13.233   9.806  1.0847 -0.3634  0.4760
58512SOL    HW287516   4.883  13.249   9.937 -1.0103 -0.0914 -0.6859
58513SOL     OW87517   2.354   0.070   2.729 -0.2602 -0.3702 -0.4549
58513SOL    HW187518   2.283   0.027   2.777 -0.4402 -0.6360 -0.9514
58513SOL    HW287519   2.377   0.008   2.659 -0.4261  0.2785 -1.0975
58514SOL     OW87520   2.677   3.270   4.646  0.2329  0.7481  0.4067
58514SOL    HW187521   2.634   3.288   4.729 -1.8045  0.5599 -0.5453
58514SOL    HW287522   2.663   3.176   4.631  1.5227  0.5430  0.3337
58515SOL     OW87523   3.389  13.724   8.659  0.5066  0.0778 -0.0087
58515SOL    HW187524   3.370  13.670   8.583 -0.1525 -0.6865  0.6756
58515SOL    HW287525   3.373  13.814   8.630  1.5038 -0.0773 -1.1288
58516SOL     OW87526   6.575  13.136  10.297  0.1979 -0.0107  0.4152
58516SOL    HW187527   6.645  13.071  10.285 -0.2558 -0.6647  1.1855
58516SOL    HW287528   6.542  13.151  10.209  1.4042  0.4236  0.0186
58517SOL     OW87529   2.277   3.903   6.623 -0.2406 -0.2329 -0.2932
58517SOL    HW187530   2.354   3.952   6.592  0.1457  0.2959  1.3989
58517SOL    HW287531   2.234   3.873   6.543  0.4738  1.4102 -1.3488
58518SOL     OW87532   7.324   1.478  13.991 -0.4276 -0.4316  0.0137
58518SOL    HW187533   7.363   1.467  14.078  0.6596  1.0682 -0.2433
58518SOL    HW287534   7.353   1.402  13.941  2.5380  0.7546 -0.2570
58519SOL     OW87535   9.702   2.327   2.053  0.2955  0.1682 -0.2425
58519SOL    HW187536   9.669   2.416   2.067  0.2893 -0.0632  1.3534
58519SOL    HW287537   9.797   2.336   2.060  0.2518 -0.0872  0.9449
58520SOL     OW87538   6.310  13.796  13.498 -0.2645  0.3527  0.1075
58520SOL    HW187539   6.298  13.852  13.420  0.2016  0.8885  0.4103
58520SOL    HW287540   6.285  13.853  13.571 -1.2097 -0.3188  0.3198
58521SOL     OW87541   4.476   8.656   7.516 -0.3598  0.0152 -0.7871
58521SOL    HW187542   4.453   8.599   7.442 -0.7774  0.8587 -1.3270
58521SOL    HW287543   4.517   8.733   7.475  0.7051 -0.1323 -0.0361
58522SOL     OW87544  13.621  13.455  12.613  0.2048 -0.5932  0.1743
58522SOL    HW187545  13.576  13.422  12.535 -2.8603  2.5868  0.3365
58522SOL    HW287546  13.620  13.381  12.674  0.0968 -2.2865 -1.7721
58523SOL     OW87547  11.116   4.221   1.757 -0.0332  0.3361 -0.0330
58523SOL    HW187548  11.193   4.217   1.700  1.2008 -1.4850  1.6330
58523SOL    HW287549  11.144   4.275   1.831 -0.7192  0.5062  0.1109
58524SOL     OW87550   1.546  13.868   7.602 -0.1124  0.2527  0.5629
58524SOL    HW187551   1.614  13.816   7.560 -0.0023  0.7539  0.1042
58524SOL    HW287552   1.594  13.934   7.652 -0.2272  1.7627 -1.2189
58525SOL     OW87553   6.996   4.716   8.078 -0.0504  0.1177 -0.5030
58525SOL    HW187554   7.060   4.787   8.073  0.2710 -0.2164 -1.1198
58525SOL    HW287555   7.033   4.654   8.140 -0.1286  0.2736 -0.2971
58526SOL     OW87556   2.204   7.449   7.084  0.9678  0.0910  0.7074
58526SOL    HW187557   2.293   7.482   7.094  0.4046  3.0799 -2.2324
58526SOL    HW287558   2.187   7.455   6.990 -3.4936  3.4721  1.3833
58527SOL     OW87559  12.626   5.166   5.214  0.7078  0.5742  0.0423
58527SOL    HW187560  12.624   5.235   5.148  0.8746 -0.3031 -0.8986
58527SOL    HW287561  12.709   5.120   5.198  0.0948 -0.5222 -0.0612
58528SOL     OW87562   9.581   1.367  13.784  0.2697 -0.3587 -0.5405
58528SOL    HW187563   9.555   1.451  13.821  0.3063 -0.5114 -0.1639
58528SOL    HW287564   9.501   1.332  13.745 -0.0520 -0.7189  0.4066
58529SOL     OW87565   3.954  13.329   0.761  0.1984  0.8316  0.2966
58529SOL    HW187566   4.027  13.313   0.821  0.4868  0.6426 -0.1055
58529SOL    HW287567   3.924  13.241   0.736  0.8156  0.8971 -0.7321
58530SOL     OW87568  10.455   6.711  11.515  0.4015  0.1209 -0.2371
58530SOL    HW187569  10.411   6.796  11.516  2.5401  1.3650 -1.8741
58530SOL    HW287570  10.499   6.705  11.599  1.1878  1.2248 -0.5497
58531SOL     OW87571  10.283   4.706  13.699  0.4483 -0.7320  0.2281
58531SOL    HW187572  10.259   4.618  13.669  0.1358 -0.2828 -0.8956
58531SOL    HW287573  10.363   4.726  13.651 -0.0826  0.0208 -0.3766
58532SOL     OW87574   0.369  10.526  12.516 -0.1570  0.4261  0.1328
58532SOL    HW187575   0.404  10.499  12.431 -0.0829 -1.3786  0.6860
58532SOL    HW287576   0.422  10.601  12.542  1.2891 -0.3661 -0.4329
58533SOL     OW87577   0.312   6.146   3.043  0.0995 -1.0334  0.0675
58533SOL    HW187578   0.400   6.111   3.059  0.1606 -0.3366  1.4109
58533SOL    HW287579   0.288   6.112   2.957  3.3071  1.9926 -2.2860
58534SOL     OW87580   1.392   3.484   9.370  0.5134  0.0800  0.4049
58534SOL    HW187581   1.298   3.488   9.352  0.5930  1.1939  0.1650
58534SOL    HW287582   1.433   3.507   9.287  0.9936 -0.0757  0.5985
58535SOL     OW87583   2.132   4.224   6.666 -0.1093  0.2124 -0.1115
58535SOL    HW187584   2.053   4.256   6.710  0.2444  0.3845  0.4046
58535SOL    HW287585   2.129   4.129   6.677 -0.6518  0.1453 -0.7875
58536SOL     OW87586  12.642   9.882   4.989 -0.0043  0.0866  0.0704
58536SOL    HW187587  12.565   9.896   4.935 -0.5628  0.1198  0.8554
58536SOL    HW287588  12.608   9.872   5.078  0.7742 -1.3572  0.2395
58537SOL     OW87589  10.440   6.325  13.814 -0.0933 -0.2934 -0.4666
58537SOL    HW187590  10.430   6.320  13.719 -2.4368  1.6143 -0.4008
58537SOL    HW287591  10.493   6.403  13.829  1.0884 -1.1164 -0.1791
58538SOL     OW87592   9.409  10.327   2.336  0.1020 -0.5163 -1.1683
58538SOL    HW187593   9.415  10.231   2.334  0.2073 -0.5262 -0.4682
58538SOL    HW287594   9.315  10.344   2.343  0.0076 -0.5401 -2.1559
58539SOL     OW87595   5.844  11.629   8.342  0.3254  0.3592  0.4341
58539SOL    HW187596   5.851  11.550   8.288 -1.6247 -0.4206  1.2129
58539SOL    HW287597   5.814  11.697   8.281 -2.3463 -0.6292  0.4887
58540SOL     OW87598   7.993  13.047  10.905  0.0933  0.6156 -0.1415
58540SOL    HW187599   7.910  13.064  10.861 -1.1978  0.8537  2.2033
58540SOL    HW287600   8.004  12.952  10.901 -0.0459  0.6266 -0.8567
58541SOL     OW87601   7.912   7.169   9.252 -0.0698 -0.4410  0.3532
58541SOL    HW187602   7.981   7.175   9.186  0.8114  2.2565  1.3555
58541SOL    HW287603   7.959   7.156   9.335 -1.0139 -1.6139  0.7426
58542SOL     OW87604  11.764  10.236   7.631 -0.5164  0.0047 -0.4099
58542SOL    HW187605  11.831  10.303   7.617 -0.5787  0.6010  1.7500
58542SOL    HW287606  11.784  10.168   7.568  1.9317  0.3210 -0.0543
58543SOL     OW87607   5.680   4.659  11.509  0.7079 -1.1618 -0.5832
58543SOL    HW187608   5.696   4.747  11.542  1.1110 -0.5645 -2.2378
58543SOL    HW287609   5.683   4.602  11.586  0.4188  0.2673  0.5090
58544SOL     OW87610  13.010   4.467  11.982  0.1344  0.0866 -0.5095
58544SOL    HW187611  12.955   4.388  11.978  1.8804 -1.1559 -1.4148
58544SOL    HW287612  12.995   4.502  12.069 -3.1068  0.6140 -1.1408
58545SOL     OW87613   8.364   2.006   4.162 -0.2150 -0.1730  0.3070
58545SOL    HW187614   8.343   2.089   4.206 -0.7390  0.3179 -0.8243
58545SOL    HW287615   8.460   2.006   4.156 -0.2142  0.4110  0.2279
58546SOL     OW87616  13.239   9.205   4.372  0.2985 -0.1132  0.0775
58546SOL    HW187617  13.229   9.129   4.429 -1.1295  1.0397  1.4377
58546SOL    HW287618  13.311   9.255   4.411  1.4188 -0.8447 -0.9703
58547SOL     OW87619  11.623  12.098  13.590  0.2791  0.6176 -0.2591
58547SOL    HW187620  11.701  12.050  13.562  0.0581  0.6895 -1.0396
58547SOL    HW287621  11.642  12.189  13.568  0.2209  0.7221  0.1188
58548SOL     OW87622   4.082   8.738   6.533  1.1329 -0.0338 -0.2108
58548SOL    HW187623   4.026   8.767   6.461  1.1204  0.6776  0.0786
58548SOL    HW287624   4.107   8.649   6.509  0.5797 -0.0488 -0.7631
58549SOL     OW87625   6.950   1.226   1.265  0.8851 -0.7670 -0.2868
58549SOL    HW187626   7.005   1.271   1.202 -0.3412 -1.1166 -1.6406
58549SOL    HW287627   6.996   1.143   1.282  0.6828 -1.1502 -1.5659
58550SOL     OW87628   5.972   1.448   6.155  0.1357  0.3536  0.1339
58550SOL    HW187629   5.902   1.502   6.118  0.1225  0.1204 -0.1836
58550SOL    HW287630   5.957   1.452   6.250 -1.1843 -0.8374  0.0196
58551SOL     OW87631   6.344  10.907  12.143 -0.7236 -0.8222 -0.0386
58551SOL    HW187632   6.373  10.824  12.182  1.3441  0.2203  0.7953
58551SOL    HW287633   6.345  10.890  12.048  0.5469 -1.4973  0.0759
58552SOL     OW87634  12.242  11.953   8.121 -0.4279  0.0472  0.1550
58552SOL    HW187635  12.189  11.999   8.055 -0.7899 -1.1201 -0.3870
58552SOL    HW287636  12.183  11.944   8.196 -0.5041  0.0597  0.0975
58553SOL     OW87637   9.745   1.412  13.574  0.1441  1.1204 -0.2699
58553SOL    HW187638   9.724   1.376  13.659 -1.1224  1.3985 -0.4432
58553SOL    HW287639   9.800   1.345  13.532  0.6103  0.8971  0.6607
58554SOL     OW87640   0.275   0.594   7.732  0.1682  0.1945 -0.0392
58554SOL    HW187641   0.322   0.641   7.663  1.1799 -0.2629  0.3274
58554SOL    HW287642   0.223   0.661   7.776  1.3567  0.9370  0.2863
58555SOL     OW87643   5.440   9.341   3.145  0.4636  0.0032  0.2502
58555SOL    HW187644   5.496   9.349   3.222  1.4013 -0.8282 -0.3134
58555SOL    HW287645   5.482   9.395   3.079  0.1123  0.0626  0.0736
58556SOL     OW87646  10.360  10.656   9.620 -0.3858  0.0748  0.2516
58556SOL    HW187647  10.307  10.609   9.556  2.1772 -1.5192 -0.8805
58556SOL    HW287648  10.441  10.676   9.574  2.1876 -2.3351  3.2339
58557SOL     OW87649  10.517   2.222   8.932 -0.1481  0.0554 -0.0331
58557SOL    HW187650  10.463   2.301   8.938 -2.6905 -1.3962 -1.9341
58557SOL    HW287651  10.527   2.207   8.838  1.0623 -1.4311  0.2930
58558SOL     OW87652   0.390  14.005   6.953 -0.0882  0.6996  0.6951
58558SOL    HW187653   0.392  14.100   6.967 -0.1353  0.7931  0.1048
58558SOL    HW287654   0.478  13.975   6.977  0.3014  1.0647 -0.2080
58559SOL     OW87655   8.623  10.285   1.755 -0.1059 -0.2521  0.2900
58559SOL    HW187656   8.581  10.331   1.682 -1.2411 -1.0509  0.4028
58559SOL    HW287657   8.696  10.238   1.714 -0.5609 -0.4688 -0.2889
58560SOL     OW87658   6.806   5.953  13.224 -0.3943 -0.2078  0.1548
58560SOL    HW187659   6.813   5.996  13.139 -0.5617  1.3742  0.8901
58560SOL    HW287660   6.885   5.979  13.271 -0.2825 -1.0969  0.4665
58561SOL     OW87661  13.517   5.179   1.630 -0.0611 -0.2138  0.3112
58561SOL    HW187662  13.592   5.121   1.644 -0.9220 -0.9523  2.3928
58561SOL    HW287663  13.547   5.242   1.565  1.2871 -2.3284 -1.2370
58562SOL     OW87664   0.160  11.840   4.912  0.2808  0.3231 -0.1531
58562SOL    HW187665   0.254  11.832   4.896  0.2153 -2.1828  0.2813
58562SOL    HW287666   0.119  11.808   4.832 -0.1990  0.9613 -0.1681
58563SOL     OW87667  11.582   3.522   7.877  0.6109  0.0777 -0.5056
58563SOL    HW187668  11.630   3.474   7.809  1.2755  1.5869 -1.1360
58563SOL    HW287669  11.648   3.574   7.922 -0.0183  0.0410  0.4998
58564SOL     OW87670   2.615  11.467  11.347 -0.1433 -0.3293  0.1023
58564SOL    HW187671   2.660  11.530  11.403  0.1617 -1.5554  1.2631
58564SOL    HW287672   2.538  11.515  11.316  0.2530  0.7252  0.6873
58565SOL     OW87673   3.520   2.184   0.387  0.8623 -0.0022 -0.0957
58565SOL    HW187674   3.582   2.165   0.458 -0.4539 -0.6310  0.9299
58565SOL    HW287675   3.485   2.271   0.409 -0.5844 -0.7797  0.8665
58566SOL     OW87676   4.721   8.035   9.603 -0.1852 -0.1455 -0.2025
58566SOL    HW187677   4.696   7.953   9.560  1.9127 -0.3711 -1.1231
58566SOL    HW287678   4.814   8.024   9.622 -0.2178  1.4511  1.0509
58567SOL     OW87679  10.086  13.628   7.728  0.5006  0.5546  0.3138
58567SOL    HW187680  10.177  13.615   7.702  1.3593  0.6011  3.0372
58567SOL    HW287681  10.069  13.559   7.792 -0.8783  1.4961  1.0274
58568SOL     OW87682  11.923   9.516   0.881  0.7865  0.0743  0.2937
58568SOL    HW187683  11.900   9.600   0.842  0.2660 -0.4446 -0.5467
58568SOL    HW287684  11.863   9.453   0.841  1.5849 -0.8062  0.4279
58569SOL     OW87685   7.908   2.430   6.839  0.0599 -0.1707 -0.3067
58569SOL    HW187686   7.944   2.361   6.783 -0.8283 -1.5935  0.8086
58569SOL    HW287687   7.984   2.463   6.888  0.1731 -2.0320  0.8568
58570SOL     OW87688   9.598  10.711   4.063 -0.1937 -0.2149  0.3917
58570SOL    HW187689   9.538  10.762   4.009 -0.4781 -2.5148 -1.6568
58570SOL    HW287690   9.685  10.744   4.041 -0.3549 -0.7047 -1.0891
58571SOL     OW87691  12.489  13.680   2.736  0.3421  0.3413  0.1089
58571SOL    HW187692  12.573  13.690   2.690 -0.2826  1.2252 -0.8880
58571SOL    HW287693  12.500  13.729   2.817  0.2278  2.0023 -0.8223
58572SOL     OW87694   6.915   0.395  13.934  0.1225  0.6179 -0.0063
58572SOL    HW187695   6.869   0.329  13.986  1.2185  0.3536  0.6619
58572SOL    HW287696   6.885   0.381  13.844  2.3056 -2.6186 -0.3829
58573SOL     OW87697   0.624   6.070   8.196 -0.2610 -0.2746  0.0158
58573SOL    HW187698   0.599   6.122   8.119  1.5883 -0.3316 -0.6596
58573SOL    HW287699   0.654   5.987   8.160  0.4116 -0.3900  0.8272
58574SOL     OW87700  11.641   5.496  12.553 -0.0117 -0.1837  0.7095
58574SOL    HW187701  11.672   5.425  12.609 -0.0235 -0.8635 -0.1135
58574SOL    HW287702  11.561   5.462  12.514  0.3232  0.0189 -0.1823
58575SOL     OW87703   7.650   6.601   7.890  0.2738  0.3374  0.0808
58575SOL    HW187704   7.571   6.553   7.913 -0.1726  0.9803 -0.0851
58575SOL    HW287705   7.692   6.547   7.823  1.2733 -1.2368  1.8857
58576SOL     OW87706  13.719   0.013   6.858 -0.1510  0.3631 -0.4291
58576SOL    HW187707  13.813  -0.002   6.844  0.2493  3.0428 -1.2784
58576SOL    HW287708  13.681   0.009   6.770 -0.7756 -0.2676 -0.1373
58577SOL     OW87709   2.713  12.094   9.251  0.1946 -0.5837 -1.0182
58577SOL    HW187710   2.749  12.151   9.319  0.9600 -0.8628 -1.1834
58577SOL    HW287711   2.623  12.124   9.240  0.1796 -0.2836 -0.1549
58578SOL     OW87712   7.448   5.796   8.934  0.4615 -0.0919 -0.3763
58578SOL    HW187713   7.511   5.849   8.981  0.3904 -1.3142  1.1974
58578SOL    HW287714   7.455   5.709   8.974  0.0735 -1.0989 -2.3634
58579SOL     OW87715   5.340   1.941   3.205 -0.1228 -0.0662  0.1586
58579SOL    HW187716   5.292   1.966   3.283 -0.7346  2.0337 -0.8277
58579SOL    HW287717   5.376   1.854   3.225 -0.9868  0.0489  2.4001
58580SOL     OW87718   8.179   6.846   4.818 -0.4712  0.7599  0.0548
58580SOL    HW187719   8.108   6.849   4.753 -0.3636  1.3676 -0.0463
58580SOL    HW287720   8.259   6.843   4.766 -0.4342 -0.5755  0.1703
58581SOL     OW87721   2.382   9.209   6.457 -0.1102  0.0620  0.1349
58581SOL    HW187722   2.367   9.303   6.464 -0.3531  0.1376 -1.1816
58581SOL    HW287723   2.334   9.182   6.379 -0.2379 -1.2053  0.6249
58582SOL     OW87724   1.340   9.048  12.558 -0.4329 -0.5981  0.6981
58582SOL    HW187725   1.310   9.109  12.625 -1.1353  0.9739 -0.9422
58582SOL    HW287726   1.411   8.999  12.599  0.0593  1.2340  2.1706
58583SOL     OW87727   3.915  12.284   8.299 -1.0942 -0.5785 -0.0848
58583SOL    HW187728   3.931  12.330   8.217 -1.0287 -0.0417  0.2254
58583SOL    HW287729   3.993  12.230   8.311 -1.2617 -0.9347 -0.5534
58584SOL     OW87730  11.965   8.515   2.353 -0.2917 -0.2563 -0.3596
58584SOL    HW187731  12.038   8.500   2.414 -0.7973 -1.7623 -0.0781
58584SOL    HW287732  11.956   8.432   2.306  0.4971  1.0571 -2.9970
58585SOL     OW87733   7.850  13.001   5.925  0.6805 -0.7008 -0.3185
58585SOL    HW187734   7.783  13.008   5.993  0.7105 -1.3009 -0.2149
58585SOL    HW287735   7.818  13.057   5.854 -0.6545 -2.0227 -0.8263
58586SOL     OW87736   3.606   0.952   6.242  0.0571  0.7646 -0.0691
58586SOL    HW187737   3.531   0.971   6.299 -0.2752 -0.6498  0.0034
58586SOL    HW287738   3.603   0.857   6.230  0.8789  0.8852 -1.4052
58587SOL     OW87739   1.231   7.829   1.943 -0.0278 -0.0512  0.0913
58587SOL    HW187740   1.247   7.769   2.016 -0.0673  0.3765  0.4559
58587SOL    HW287741   1.318   7.843   1.904  0.3718  1.4392  1.4161
58588SOL     OW87742  10.771  12.654   9.205 -0.2164  0.2372  0.3899
58588SOL    HW187743  10.825  12.720   9.250  0.6157 -0.1153 -0.0569
58588SOL    HW287744  10.787  12.574   9.255  1.0275 -0.2493 -0.7212
58589SOL     OW87745   2.207  10.595  10.581  0.6551  0.4099 -0.1386
58589SOL    HW187746   2.138  10.660  10.593 -2.1601 -2.4294  0.6230
58589SOL    HW287747   2.235  10.572  10.669  1.0090  0.0206 -0.3477
58590SOL     OW87748   9.735   0.943   6.722 -0.6805  0.1806 -0.5346
58590SOL    HW187749   9.779   1.026   6.704  0.2807 -0.2065  0.0049
58590SOL    HW287750   9.717   0.945   6.816 -0.2733 -0.4040 -0.4412
58591SOL     OW87751   0.927   6.503  13.323  0.1013 -0.4549 -0.1970
58591SOL    HW187752   0.990   6.470  13.259  1.3443 -0.9413  1.2216
58591SOL    HW287753   0.844   6.462  13.298  0.3441  0.0682 -1.9995
58592SOL     OW87754   5.471   9.486   5.896  0.2030 -0.1577  0.0086
58592SOL    HW187755   5.552   9.448   5.931 -0.1071 -0.9452 -0.1110
58592SOL    HW287756   5.468   9.454   5.806  0.3585  0.8406 -0.3686
58593SOL     OW87757   0.263  12.673   8.413  0.1331 -0.5431  0.0862
58593SOL    HW187758   0.291  12.656   8.323  1.0802 -0.1898  0.2933
58593SOL    HW287759   0.293  12.763   8.430  0.0245 -0.6312  0.7707
58594SOL     OW87760   3.506   4.021  11.491  0.0658  0.1113  0.3148
58594SOL    HW187761   3.550   3.971  11.560  2.6824 -0.6908 -1.7424
58594SOL    HW287762   3.537   4.110  11.502 -1.4104  0.5039  1.5491
58595SOL     OW87763   6.909  10.977  10.911 -0.0151  0.0278 -0.1847
58595SOL    HW187764   6.901  11.014  10.824 -0.6967  0.2138 -0.0459
58595SOL    HW287765   7.003  10.974  10.928  0.0580  1.5112 -0.2763
58596SOL     OW87766   8.251   4.570   2.136  0.6843 -0.6745 -0.1000
58596SOL    HW187767   8.209   4.582   2.221  0.2331 -1.4284 -0.2086
58596SOL    HW287768   8.343   4.592   2.151  0.5667 -0.6077  0.5343
58597SOL     OW87769   1.121   4.078  10.803  0.7225  0.1833 -0.1119
58597SOL    HW187770   1.039   4.112  10.768  1.8067  2.3262 -0.7353
58597SOL    HW287771   1.184   4.088  10.732  1.6238 -1.1348  0.4526
58598SOL     OW87772   5.480   2.095   6.247  0.5188  0.2761  0.3901
58598SOL    HW187773   5.507   2.026   6.185  1.3436  0.1196  0.9181
58598SOL    HW287774   5.469   2.173   6.192  1.2399  0.1382  0.0300
58599SOL     OW87775   3.090  12.221   0.894 -0.5290  0.2157 -0.0927
58599SOL    HW187776   3.175  12.178   0.902  0.3514  1.4247 -2.1068
58599SOL    HW287777   3.073  12.256   0.982 -0.7205 -3.0156  1.3015
58600SOL     OW87778   3.053   2.337  13.851  0.4571 -0.7167 -0.3836
58600SOL    HW187779   2.977   2.394  13.865  0.8997  0.0977 -1.1672
58600SOL    HW287780   3.025   2.278  13.781  0.7203 -0.0406 -1.0793
58601SOL     OW87781   4.261   5.920   0.993 -0.4400  0.1617  0.0309
58601SOL    HW187782   4.293   6.006   1.020 -0.3304  0.0332  0.3083
58601SOL    HW287783   4.171   5.935   0.966  0.0699  0.6747 -1.4863
58602SOL     OW87784  13.114  11.730   3.937 -0.0252 -0.0497 -0.1032
58602SOL    HW187785  13.054  11.733   4.012  0.3422  0.8282  0.1694
58602SOL    HW287786  13.056  11.730   3.860 -0.3885 -0.1346  0.1664
58603SOL     OW87787  13.455  13.559   2.814  0.0604 -0.2936  0.1463
58603SOL    HW187788  13.426  13.642   2.853  1.8913  0.1639  0.6314
58603SOL    HW287789  13.467  13.501   2.889  0.1165 -0.5547 -0.0666
58604SOL     OW87790  13.850  12.007   6.072 -0.4196 -0.5101  0.1961
58604SOL    HW187791  13.881  12.015   5.981 -1.1230 -1.2923 -0.1235
58604SOL    HW287792  13.763  12.047   6.072 -0.2484 -0.1345  0.6231
58605SOL     OW87793   4.622   9.964   2.062 -0.1881  0.6448 -0.0662
58605SOL    HW187794   4.701   9.985   2.112 -0.0832  0.6861 -0.2484
58605SOL    HW287795   4.551   9.968   2.126 -0.2052  1.8071 -0.1336
58606SOL     OW87796   9.899   9.240   0.270  0.0478  0.1920 -0.0935
58606SOL    HW187797   9.872   9.330   0.254 -1.1221 -0.1918 -0.4071
58606SOL    HW287798   9.990   9.246   0.299  0.4778  1.3537 -1.5848
58607SOL     OW87799   8.488   3.851   0.350  0.2253 -0.0693  0.1997
58607SOL    HW187800   8.564   3.870   0.297  0.3456  0.4158  0.5441
58607SOL    HW287801   8.510   3.884   0.437  0.0497 -0.8835  0.5702
58608SOL     OW87802   9.574  13.591  11.537  0.2891 -0.4393 -0.0717
58608SOL    HW187803   9.534  13.664  11.585  2.1420  1.4689 -1.2084
58608SOL    HW287804   9.549  13.607  11.445  2.7281  0.2724 -0.6767
58609SOL     OW87805  10.827   7.970   3.757 -0.4053 -0.4463  0.5719
58609SOL    HW187806  10.871   7.902   3.706  0.2498  0.7986 -0.5726
58609SOL    HW287807  10.899   8.025   3.790 -0.9107 -0.3918  1.6238
58610SOL     OW87808   9.524   2.710   8.327  0.5227  1.1281 -0.7853
58610SOL    HW187809   9.508   2.634   8.383  0.8155  1.2655 -0.5087
58610SOL    HW287810   9.611   2.694   8.290  0.8664  1.6363 -0.2143
58611SOL     OW87811   1.942   4.631   0.085 -0.0282 -0.0434 -0.5040
58611SOL    HW187812   2.001   4.684   0.032  0.5574 -1.3049 -1.1492
58611SOL    HW287813   1.994   4.555   0.111 -0.4464  0.3084  1.5198
58612SOL     OW87814   6.770   2.182  10.622 -0.2019  0.8672 -0.0838
58612SOL    HW187815   6.716   2.107  10.598 -0.3935  0.6874  0.8473
58612SOL    HW287816   6.760   2.189  10.717 -1.4248  3.0245 -0.2981
58613SOL     OW87817  11.837   1.245  13.744 -0.2823  0.8617  0.1857
58613SOL    HW187818  11.808   1.298  13.670  0.5343 -0.6369 -1.2826
58613SOL    HW287819  11.757   1.206  13.779 -0.5371  0.2186 -1.0474
58614SOL     OW87820   6.362   5.425   0.596 -0.6995 -0.0771  0.1682
58614SOL    HW187821   6.332   5.447   0.684  0.0931 -0.5548  0.5763
58614SOL    HW287822   6.389   5.333   0.602  0.4386  0.2091 -0.2628
58615SOL     OW87823   3.009   6.321   3.845 -0.0217 -0.3560 -0.5585
58615SOL    HW187824   3.039   6.265   3.917  1.3519 -0.2942 -1.0541
58615SOL    HW287825   3.069   6.395   3.846  0.3603 -0.6307 -2.1248
58616SOL     OW87826  10.669   8.840   1.991 -0.0758  0.8412 -0.2302
58616SOL    HW187827  10.741   8.892   2.027  0.1555  0.0770  0.4539
58616SOL    HW287828  10.627   8.898   1.928  0.4707  1.6809  0.1506
58617SOL     OW87829   5.021  13.388  12.970  0.1721  0.4848 -0.0430
58617SOL    HW187830   4.936  13.418  13.003 -0.3965  0.5854 -1.5091
58617SOL    HW287831   5.068  13.468  12.948  0.6876  0.4313  0.8351
58618SOL     OW87832   2.992   1.302   9.935 -0.5309 -0.4494  0.1461
58618SOL    HW187833   3.046   1.227   9.908  1.9704  1.9027 -2.0823
58618SOL    HW287834   3.033   1.333  10.015 -0.8630 -0.7729  0.4456
58619SOL     OW87835  11.906   2.977  11.495  0.3188 -0.3491  0.5193
58619SOL    HW187836  11.915   2.952  11.403 -1.5796 -0.3417  0.2833
58619SOL    HW287837  11.981   2.936  11.539  2.1080  0.8927 -1.2225
58620SOL     OW87838  12.492   9.106   5.051  0.4558  0.5418 -0.5315
58620SOL    HW187839  12.462   9.033   5.104 -1.8088  2.2018  0.6476
58620SOL    HW287840  12.417   9.128   4.995  1.0597  1.9529 -0.8428
58621SOL     OW87841  10.806  13.871   7.773  0.1510 -0.6107  0.0551
58621SOL    HW187842  10.790  13.776   7.774  0.2099 -0.6197  0.9522
58621SOL    HW287843  10.806  13.894   7.680  1.2755 -1.6823 -0.2391
58622SOL     OW87844   3.177   4.631   1.185  0.5274  0.2243  0.0299
58622SOL    HW187845   3.107   4.565   1.175  2.0593 -1.5592  0.4261
58622SOL    HW287846   3.144   4.708   1.139 -1.1557 -0.9730 -0.9020
58623SOL     OW87847   2.448   6.368   1.506 -0.2398 -0.9513 -0.0241
58623SOL    HW187848   2.457   6.287   1.556 -0.3081 -0.6528  0.4812
58623SOL    HW287849   2.355   6.372   1.484 -0.3369 -0.7469  0.4102
58624SOL     OW87850   5.268   6.039  10.009 -0.0891 -0.3452  0.7057
58624SOL    HW187851   5.176   6.013  10.010  0.3453 -2.0138  0.3805
58624SOL    HW287852   5.267   6.131  10.037 -1.9954  0.2341 -0.9877
58625SOL     OW87853  10.757  13.182   2.624 -0.2143  0.5445 -0.6530
58625SOL    HW187854  10.671  13.172   2.584 -1.0840  1.6767  0.8027
58625SOL    HW287855  10.739  13.184   2.718  1.6356 -1.1432 -0.1809
58626SOL     OW87856   6.294   6.473  13.841  0.7014 -0.3682 -0.1805
58626SOL    HW187857   6.283   6.412  13.769 -1.2216 -0.1678 -0.0907
58626SOL    HW287858   6.385   6.503  13.833  0.6772 -0.7029 -2.2094
58627SOL     OW87859  13.568  11.458   2.740 -0.4250 -0.0501  0.0157
58627SOL    HW187860  13.500  11.520   2.714 -1.3184 -0.5932  0.9993
58627SOL    HW287861  13.635  11.466   2.672 -1.2633  0.8180 -0.7294
58628SOL     OW87862  10.982   0.872  13.507 -0.1677  0.1458  0.2792
58628SOL    HW187863  10.942   0.953  13.476  1.6008  0.9523 -0.0230
58628SOL    HW287864  11.025   0.835  13.430  0.1447 -0.3964  0.7004
58629SOL     OW87865   7.912  10.793  12.219  0.2341  0.3692 -0.1312
58629SOL    HW187866   7.926  10.699  12.206 -0.0490  0.1413  1.0501
58629SOL    HW287867   7.838  10.797  12.280 -2.2439  1.4193 -2.9562
58630SOL     OW87868   3.900  13.485  11.110  0.2543  0.2167 -0.1077
58630SOL    HW187869   3.858  13.399  11.104 -0.4127  0.5375 -0.1811
58630SOL    HW287870   3.835  13.545  11.075  0.1806  0.9114  1.1552
58631SOL     OW87871   6.590   8.433  12.983  0.0966 -0.0765  0.4772
58631SOL    HW187872   6.531   8.391  13.046  0.0078 -0.9045 -0.1394
58631SOL    HW287873   6.648   8.362  12.954  0.6804  0.4835  0.2487
58632SOL     OW87874   0.977  11.569   3.228  0.4080 -0.7793  0.3752
58632SOL    HW187875   1.041  11.640   3.237  0.9453 -1.2636  0.4501
58632SOL    HW287876   0.893  11.610   3.246  0.8143 -0.3861  1.4290
58633SOL     OW87877   3.262   9.682  10.880  0.0420 -0.5529  0.7028
58633SOL    HW187878   3.253   9.649  10.970 -0.8713 -0.6276  0.5976
58633SOL    HW287879   3.305   9.766  10.890  0.2478 -0.7095  1.1835
58634SOL     OW87880   9.357   4.480   3.566  0.1579  0.2488 -0.0458
58634SOL    HW187881   9.424   4.415   3.547  0.2582  0.6948 -1.3081
58634SOL    HW287882   9.274   4.436   3.549  0.1626  0.0492  0.4191
58635SOL     OW87883   9.222   0.999   6.932  0.5374 -0.9788  0.7560
58635SOL    HW187884   9.208   1.088   6.966 -0.7349 -0.6195 -0.5924
58635SOL    HW287885   9.295   0.965   6.984  0.7129  0.6551  1.6657
58636SOL     OW87886   9.502   8.089   8.977  0.3871  0.3059  0.3234
58636SOL    HW187887   9.430   8.032   9.005 -0.4015  0.2037 -1.6932
58636SOL    HW287888   9.523   8.142   9.053 -1.0894 -0.4274  1.2845
58637SOL     OW87889   5.155   2.862  13.240  0.3735  0.2141 -0.0873
58637SOL    HW187890   5.092   2.818  13.296  0.1838 -0.9349 -1.1714
58637SOL    HW287891   5.175   2.944  13.287 -0.2920 -0.3772  1.2962
58638SOL     OW87892  11.420   0.137   0.809 -0.1730  0.0367  0.2568
58638SOL    HW187893  11.500   0.143   0.757 -0.4564 -0.9532 -0.3240
58638SOL    HW287894  11.436   0.193   0.885  0.5236  0.9291 -0.5372
58639SOL     OW87895  12.572   6.982   9.265 -0.0497  0.3230 -0.3348
58639SOL    HW187896  12.537   6.898   9.237 -2.5117  0.9604  0.6215
58639SOL    HW287897  12.570   7.037   9.187 -0.4570  0.1284 -0.4606
58640SOL     OW87898  10.550   2.229   8.635 -0.0716 -0.3630  0.0913
58640SOL    HW187899  10.542   2.145   8.589  1.9805 -0.2260 -0.6356
58640SOL    HW287900  10.567   2.293   8.566 -1.6508  0.7053  0.6321
58641SOL     OW87901   2.033   3.159  13.740  0.1842  0.1440  0.0390
58641SOL    HW187902   1.951   3.207  13.725 -0.2063 -0.6857 -0.5645
58641SOL    HW287903   2.007   3.068  13.747  0.9988 -0.0683  0.4733
58642SOL     OW87904   8.041   6.560  10.726  0.0688  0.2738 -0.3217
58642SOL    HW187905   7.947   6.549  10.712  0.2922 -0.7960 -1.0505
58642SOL    HW287906   8.079   6.561  10.638  0.8674 -0.4984  0.0020
58643SOL     OW87907   5.019  12.597   1.289  0.9679  0.1993  0.1665
58643SOL    HW187908   4.991  12.632   1.374  2.2534  1.8459 -0.0132
58643SOL    HW287909   4.973  12.514   1.280  1.1280 -0.2558  2.6839
58644SOL     OW87910   5.239  11.305  12.089  0.0571 -0.2792 -0.2398
58644SOL    HW187911   5.314  11.319  12.032  0.4584 -0.9492  0.1112
58644SOL    HW287912   5.166  11.349  12.044  0.0907 -1.8149 -1.9215
58645SOL     OW87913   6.855   9.303   8.484 -0.1031  0.6093 -0.1257
58645SOL    HW187914   6.842   9.374   8.421 -1.3452 -0.6668 -1.3822
58645SOL    HW287915   6.855   9.224   8.431  1.2875 -0.3668  1.2430
58646SOL     OW87916  11.380  10.929   5.668 -0.3752  0.1932  0.1203
58646SOL    HW187917  11.370  10.839   5.699  2.1966 -0.6912 -1.3589
58646SOL    HW287918  11.464  10.958   5.705  0.0441  1.0736 -1.4336
58647SOL     OW87919   4.448   0.250   6.465 -0.3659 -0.4954 -0.3972
58647SOL    HW187920   4.464   0.274   6.374 -0.9653 -0.7219 -0.5699
58647SOL    HW287921   4.532   0.218   6.497 -0.3102 -1.0534 -1.0714
58648SOL     OW87922   0.072  12.340   1.667 -0.3741 -0.4135 -0.1119
58648SOL    HW187923  -0.001  12.387   1.708 -0.2049  1.9894 -2.2935
58648SOL    HW287924   0.045  12.330   1.576  1.7921  0.1394 -0.8698
58649SOL     OW87925   3.313   4.421  13.684  0.2021 -0.3209  0.7886
58649SOL    HW187926   3.347   4.463  13.763  0.3689  0.3282  0.3808
58649SOL    HW287927   3.265   4.490  13.638  0.4812 -0.5617  0.1077
58650SOL     OW87928   7.170   2.639   1.844  0.0412 -0.1363  0.2471
58650SOL    HW187929   7.159   2.609   1.754 -1.9343  0.4898  0.2350
58650SOL    HW287930   7.197   2.560   1.892 -1.2672 -1.0602 -0.4714
58651SOL     OW87931  11.331   5.728   5.789  0.2700 -0.1639  0.0450
58651SOL    HW187932  11.266   5.783   5.744 -1.0629 -1.0360  0.8565
58651SOL    HW287933  11.412   5.742   5.739  0.0347  2.5950  0.2732
58652SOL     OW87934   8.019  12.087  13.081 -0.0419 -0.1209 -0.2946
58652SOL    HW187935   7.979  12.062  13.165  2.2828 -1.0944  0.6270
58652SOL    HW287936   8.011  12.008  13.027 -1.5811  0.5222 -1.0607
58653SOL     OW87937   7.149   3.636   6.990  0.1041 -0.0324 -0.0789
58653SOL    HW187938   7.144   3.719   6.942  2.2340  0.3263  0.2331
58653SOL    HW287939   7.073   3.586   6.959 -1.3461  2.0762 -0.1318
58654SOL     OW87940   4.687   6.699  13.147 -0.1349 -0.4568 -0.4556
58654SOL    HW187941   4.649   6.761  13.210 -1.6105  1.3483 -2.9254
58654SOL    HW287942   4.781   6.701  13.166 -0.4464  0.5702  1.2181
58655SOL     OW87943   8.478   6.304   0.040  0.3317  0.1073 -0.3931
58655SOL    HW187944   8.414   6.235   0.055  0.3690 -0.2640 -1.7950
58655SOL    HW287945   8.545   6.264  -0.015  0.6544  1.0991 -0.7575
58656SOL     OW87946  12.506   3.565   4.979  0.1705 -0.0334  0.0382
58656SOL    HW187947  12.436   3.627   4.960 -1.2157 -1.5296  0.0020
58656SOL    HW287948  12.462   3.491   5.021  1.7773 -0.9116  0.2661
58657SOL     OW87949   9.266   9.562   1.145 -0.0463 -0.3430  0.0916
58657SOL    HW187950   9.243   9.612   1.067 -1.0267 -1.5800 -0.4415
58657SOL    HW287951   9.347   9.516   1.122 -1.1553 -1.9286 -0.8009
58658SOL     OW87952   4.273   2.592   1.610  0.3157  0.9369  0.0367
58658SOL    HW187953   4.267   2.676   1.657  1.1267 -0.0475  2.0013
58658SOL    HW287954   4.183   2.571   1.586 -0.0040  1.8992  0.3600
58659SOL     OW87955   7.080  11.796  13.501 -0.0807 -0.4671  0.1593
58659SOL    HW187956   7.129  11.751  13.431 -1.0763 -1.9450  0.3628
58659SOL    HW287957   7.148  11.821  13.564  0.5594 -1.5326 -0.0637
58660SOL     OW87958  11.637  13.638   6.658  0.9511 -0.0538  0.1122
58660SOL    HW187959  11.606  13.711   6.604  0.1664 -0.5896 -0.1883
58660SOL    HW287960  11.634  13.671   6.748  0.7301  0.3270 -0.0329
58661SOL     OW87961   0.406   1.586  11.082  0.2970  0.1672  0.0350
58661SOL    HW187962   0.438   1.620  11.166 -0.5034  1.3285 -0.1058
58661SOL    HW287963   0.311   1.589  11.090  0.1888  1.4631 -1.3491
58662SOL     OW87964   5.008  12.964   5.086 -0.0324 -0.3443 -0.2922
58662SOL    HW187965   5.062  13.040   5.108  1.9305 -1.9511  0.7760
58662SOL    HW287966   5.029  12.945   4.995  2.0064 -1.4854  0.3601
58663SOL     OW87967   6.044  11.962   4.403 -0.0303 -0.5437  0.5958
58663SOL    HW187968   6.010  11.915   4.479 -0.0515  1.1822  1.6962
58663SOL    HW287969   6.136  11.978   4.423  0.0445 -0.3533  0.1229
58664SOL     OW87970  13.011   0.829  10.247  0.1350 -0.2349  0.3393
58664SOL    HW187971  12.928   0.877  10.250  0.4541  0.2961  1.2350
58664SOL    HW287972  13.006   0.768  10.321  0.0544 -1.0695 -0.3318
58665SOL     OW87973   9.770   4.355   7.128  0.0872  0.2488  0.6616
58665SOL    HW187974   9.830   4.281   7.118 -0.2432  0.2864 -2.9667
58665SOL    HW287975   9.815   4.415   7.187  2.0747 -1.2021  0.7091
58666SOL     OW87976  13.243   0.109  11.228 -0.4840  0.5313  0.2939
58666SOL    HW187977  13.229   0.139  11.318  0.4237 -0.4720  0.7795
58666SOL    HW287978  13.199   0.176  11.175  1.1859  2.6031  1.3385
58667SOL     OW87979  13.046   4.883  11.083 -0.6259  0.0180 -0.2901
58667SOL    HW187980  12.953   4.895  11.064 -0.4261  1.0270 -0.6838
58667SOL    HW287981  13.089   4.960  11.046  0.4214 -0.6201 -0.4712
58668SOL     OW87982   2.914   7.840   3.275 -0.6995  0.5794  0.3085
58668SOL    HW187983   3.006   7.868   3.271 -0.8608  1.0880  0.0522
58668SOL    HW287984   2.871   7.888   3.204 -1.3607  1.0796  1.0382
58669SOL     OW87985   9.861  13.750   4.735 -0.4919 -0.6129 -0.2431
58669SOL    HW187986   9.798  13.779   4.800  1.4607  1.6141  0.8119
58669SOL    HW287987   9.827  13.784   4.652 -2.4710 -2.5978 -0.3311
58670SOL     OW87988   0.733   5.449  11.395  0.0730  0.1928  0.7196
58670SOL    HW187989   0.796   5.377  11.399  1.7987  1.5694 -0.0425
58670SOL    HW287990   0.763   5.503  11.321 -1.9812  0.9595  0.3826
58671SOL     OW87991  10.596  12.679   6.390 -0.0599 -0.1070 -0.4266
58671SOL    HW187992  10.505  12.652   6.405 -0.3856  0.5137 -1.2438
58671SOL    HW287993  10.616  12.736   6.464 -0.0203 -0.9777  0.2498
58672SOL     OW87994   6.262  11.958   4.806 -0.4430  0.4747  0.2317
58672SOL    HW187995   6.270  11.878   4.859 -1.0797 -0.0854 -0.4857
58672SOL    HW287996   6.341  11.958   4.752  1.0435  1.9079  2.2411
58673SOL     OW87997  13.976   4.561   4.673 -0.1417 -0.1253 -0.4046
58673SOL    HW187998  13.923   4.624   4.625 -0.6645  0.0253  0.3557
58673SOL    HW287999  13.985   4.598   4.761  1.2447 -0.1416 -0.5109
58674SOL     OW88000   5.263   9.535   4.233 -0.4025  0.1632  0.2441
58674SOL    HW188001   5.307   9.487   4.163 -0.0793  0.6369  0.1226
58674SOL    HW288002   5.234   9.616   4.192 -0.7804  0.1610  0.4984
58675SOL     OW88003   4.269  12.943   3.756  0.4955  0.2581 -0.0057
58675SOL    HW188004   4.327  13.014   3.727 -0.9242  1.5261  0.1403
58675SOL    HW288005   4.181  12.981   3.751 -0.5163 -2.1207 -1.7830
58676SOL     OW88006   3.574   8.795   5.654  0.5784 -0.0933  0.4091
58676SOL    HW188007   3.566   8.886   5.626 -2.3990 -0.9700 -2.1699
58676SOL    HW288008   3.513   8.787   5.727 -0.7421 -0.3777 -0.6756
58677SOL     OW88009   4.866  11.300   7.985  0.5239 -0.1989  0.2567
58677SOL    HW188010   4.814  11.257   7.918  0.0875  1.0167 -0.2153
58677SOL    HW288011   4.957  11.289   7.957  0.4582 -1.2608  0.4361
58678SOL     OW88012  12.144  11.152   8.067 -0.0184  0.1560 -0.3209
58678SOL    HW188013  12.082  11.086   8.099 -1.4675  0.1080 -2.9446
58678SOL    HW288014  12.097  11.196   7.996  2.6867  0.6298 -1.9407
58679SOL     OW88015   8.205   3.233   4.807 -0.2597 -0.2349 -0.0245
58679SOL    HW188016   8.198   3.327   4.795 -1.3343 -0.2941  0.0169
58679SOL    HW288017   8.187   3.196   4.721 -0.1638 -0.4130  0.0305
58680SOL     OW88018   6.949   4.408  14.025 -0.0621 -0.0639 -0.0495
58680SOL    HW188019   6.888   4.475  14.056  0.5762  1.1047 -1.2141
58680SOL    HW288020   6.909   4.375  13.944  0.5327  0.2897 -0.4979
58681SOL     OW88021   9.465   4.856   5.057  0.6837  0.0748  0.5671
58681SOL    HW188022   9.403   4.837   4.986  2.7842 -0.4636 -1.2486
58681SOL    HW288023   9.456   4.950   5.072  0.8387  0.3929 -1.1361
58682SOL     OW88024   8.893   8.335   5.273 -0.0296  0.6732  0.4888
58682SOL    HW188025   8.903   8.324   5.178  1.1308 -2.9783  0.9114
58682SOL    HW288026   8.801   8.360   5.284 -0.4465  0.2423 -1.5609
58683SOL     OW88027   6.750   1.340   9.804  0.1845  0.1877 -0.5917
58683SOL    HW188028   6.677   1.374   9.751  0.1469  0.2431 -0.5054
58683SOL    HW288029   6.715   1.337   9.893  0.6945  1.3964 -0.3413
58684SOL     OW88030   0.130   8.323   4.337  0.6303  0.0390 -0.0078
58684SOL    HW188031   0.141   8.307   4.431  1.6829 -1.9953 -0.4250
58684SOL    HW288032   0.046   8.281   4.315 -0.5911  2.1812  0.3267
58685SOL     OW88033   6.018   4.127   6.612  0.0705 -0.1293  0.2040
58685SOL    HW188034   6.005   4.213   6.653  3.4517  1.4559 -1.5964
58685SOL    HW288035   5.937   4.111   6.564 -0.8681  1.8367  1.0154
58686SOL     OW88036   6.219   6.200   7.426 -0.0994  0.1011  0.1267
58686SOL    HW188037   6.172   6.121   7.451  2.4207 -2.0542 -1.4072
58686SOL    HW288038   6.256   6.233   7.508 -0.8394 -0.5164  0.7206
58687SOL     OW88039   2.543  10.110   2.999  0.5489 -0.5794 -0.4977
58687SOL    HW188040   2.472  10.141   3.056  1.0295 -2.6977  1.4125
58687SOL    HW288041   2.502  10.100   2.913 -0.7928  0.6404 -0.0390
58688SOL     OW88042   8.704  12.553  11.607  0.4359 -0.2773 -0.4504
58688SOL    HW188043   8.734  12.582  11.521 -0.5910 -1.0643 -1.1089
58688SOL    HW288044   8.715  12.458  11.605 -3.5384 -0.9205 -1.4507
58689SOL     OW88045   8.488  13.383  12.221 -0.3289 -0.1242  0.4427
58689SOL    HW188046   8.508  13.292  12.241 -0.3116 -0.2251 -0.0299
58689SOL    HW288047   8.435  13.380  12.142  1.2317  0.3606 -0.6841
58690SOL     OW88048   4.774   1.075  10.675  0.5943  0.3823 -0.1915
58690SOL    HW188049   4.702   1.030  10.630 -0.6861  1.3916  0.7856
58690SOL    HW288050   4.823   1.005  10.718  0.1566 -0.3129 -0.7922
58691SOL     OW88051   2.586   1.651   9.960  0.1553 -0.0810 -0.0086
58691SOL    HW188052   2.573   1.665   9.866 -1.3975 -0.5562  0.1076
58691SOL    HW288053   2.549   1.564   9.977  0.0867  0.1494  1.1009
58692SOL     OW88054   0.633  10.183  13.486  0.2334  0.1565  0.5097
58692SOL    HW188055   0.673  10.223  13.564 -0.6387 -0.2173  1.1636
58692SOL    HW288056   0.595  10.102  13.518 -1.3295  0.6442 -0.0132
58693SOL     OW88057   3.350   3.322   1.731  0.1281 -0.0694  0.1223
58693SOL    HW188058   3.264   3.300   1.697  0.1508 -0.8838  0.5635
58693SOL    HW288059   3.399   3.240   1.727  0.8736  0.3799 -0.0962
58694SOL     OW88060   2.191  12.491   0.307 -0.2507 -0.4756  0.5923
58694SOL    HW188061   2.274  12.482   0.354  1.6095 -1.4350 -2.5889
58694SOL    HW288062   2.188  12.582   0.279  1.1150 -0.9877 -1.4431
58695SOL     OW88063  10.780   6.060   3.280 -0.0016  0.2965 -0.5802
58695SOL    HW188064  10.781   6.143   3.232  0.0918 -0.4605 -1.9612
58695SOL    HW288065  10.796   5.994   3.212 -1.9734 -1.0100  0.1363
58696SOL     OW88066   9.998  13.652   5.984 -0.0461  0.1962  0.4365
58696SOL    HW188067   9.903  13.658   5.988 -0.2440 -2.3281  2.3540
58696SOL    HW288068  10.015  13.575   5.931  1.1383  2.0115 -2.0425
58697SOL     OW88069   1.506   6.136   2.405  0.7016  0.1895 -0.4276
58697SOL    HW188070   1.426   6.157   2.357  0.3075 -2.3369 -1.0305
58697SOL    HW288071   1.545   6.064   2.356  1.9161 -0.4390  1.3548
58698SOL     OW88072  13.270   3.002   3.641  0.3665  0.0646 -0.4742
58698SOL    HW188073  13.248   3.051   3.562 -1.8519  0.5995  0.4118
58698SOL    HW288074  13.199   2.939   3.651  0.4858  0.1491  1.1992
58699SOL     OW88075  12.270   5.038   4.696  0.4280  0.1297 -0.3761
58699SOL    HW188076  12.275   5.111   4.633  0.9539  0.2034 -0.2592
58699SOL    HW288077  12.359   5.004   4.699  0.2361 -0.3610 -0.2360
58700SOL     OW88078  12.966   9.044   8.185  0.1232  0.3280 -0.0872
58700SOL    HW188079  13.057   9.020   8.205 -0.4186 -1.4116  0.4329
58700SOL    HW288080  12.952   9.015   8.095 -0.1338 -0.0731  0.0814
58701SOL     OW88081  10.010   4.139   3.450 -0.2824  0.0977 -0.1592
58701SOL    HW188082  10.005   4.235   3.449 -0.7125  0.1026  1.0787
58701SOL    HW288083  10.103   4.120   3.458 -0.2744  0.4383  0.6051
58702SOL     OW88084  11.479   3.893   7.763 -0.3897  0.2413  0.8202
58702SOL    HW188085  11.528   3.931   7.836  1.2040 -1.1517  0.5374
58702SOL    HW288086  11.450   3.969   7.712  2.9601  1.1941  0.0842
58703SOL     OW88087   5.985   3.858   6.765  0.1736  0.1070 -0.1487
58703SOL    HW188088   5.996   3.936   6.711  2.0860  0.0860  0.1286
58703SOL    HW288089   5.987   3.891   6.855 -0.1658 -0.1402 -0.0493
58704SOL     OW88090  12.462   5.494   3.045  0.3101 -0.0410 -0.0009
58704SOL    HW188091  12.542   5.535   3.011  1.2312 -1.1738  0.7399
58704SOL    HW288092  12.410   5.567   3.079  0.7318  0.7772 -1.0602
58705SOL     OW88093   2.191   4.656   8.481 -0.8288 -0.1570 -0.4166
58705SOL    HW188094   2.267   4.610   8.515 -2.4020 -1.5959  1.3497
58705SOL    HW288095   2.155   4.702   8.556 -0.2941  2.7113 -1.7697
58706SOL     OW88096   0.428   0.736   2.657  0.2994 -0.0126  0.5002
58706SOL    HW188097   0.432   0.691   2.573 -0.0853  0.8644 -0.0116
58706SOL    HW288098   0.515   0.725   2.695  0.8135  0.4678 -0.4943
58707SOL     OW88099   5.183   1.028   3.468  0.2573 -0.0172 -0.0729
58707SOL    HW188100   5.203   1.117   3.498  0.9271 -0.5500  1.1550
58707SOL    HW288101   5.265   0.998   3.428 -0.1889  0.1630 -1.1464
58708SOL     OW88102  13.251   1.002   0.838 -0.1885 -0.1229  0.0525
58708SOL    HW188103  13.278   0.976   0.927 -0.8164  0.8982  0.5587
58708SOL    HW288104  13.260   1.097   0.838  1.0650 -0.2083 -1.4173
58709SOL     OW88105   8.468   2.939  12.764 -0.5551  0.2704  0.2429
58709SOL    HW188106   8.466   3.034  12.762 -1.9007  0.2513 -0.8941
58709SOL    HW288107   8.379   2.913  12.787 -0.1473 -0.7186  0.7638
58710SOL     OW88108  11.804  13.627   7.561  0.0316  0.0007 -0.1376
58710SOL    HW188109  11.752  13.595   7.635  2.4379 -1.1770  1.1467
58710SOL    HW288110  11.757  13.596   7.484 -0.9847 -1.3229  0.9605
58711SOL     OW88111  11.524  11.098  10.278 -0.2562 -0.0870  0.5824
58711SOL    HW188112  11.535  11.035  10.207  0.6407  0.9376 -0.2133
58711SOL    HW288113  11.552  11.050  10.357 -1.2657 -1.2284  0.2732
58712SOL     OW88114   1.327   1.589  13.415 -0.2394  0.2025  0.4542
58712SOL    HW188115   1.368   1.675  13.425 -1.2048  1.1636 -2.6770
58712SOL    HW288116   1.253   1.605  13.357 -1.1692 -2.5907  0.7321
58713SOL     OW88117   1.285   3.860   8.596 -0.1879 -0.2427  0.2847
58713SOL    HW188118   1.304   3.850   8.503  0.2965  2.0637  0.0641
58713SOL    HW288119   1.193   3.885   8.599 -0.0300  0.3601  0.3393
58714SOL     OW88120   3.907   1.809   3.535  0.2572 -0.7741  0.3017
58714SOL    HW188121   3.935   1.737   3.591  1.5081 -1.4696 -1.1488
58714SOL    HW288122   3.953   1.794   3.453  1.2497  2.1919  0.2227
58715SOL     OW88123   4.618  12.634   9.201  0.5364  0.1258  0.0493
58715SOL    HW188124   4.632  12.539   9.204  0.0777  0.0751  1.1533
58715SOL    HW288125   4.577  12.650   9.116 -1.0013 -0.9242  0.5388
58716SOL     OW88126  12.897  12.547   4.629 -0.2144 -0.3355 -0.0595
58716SOL    HW188127  12.965  12.589   4.681  1.2973 -3.7026  0.9597
58716SOL    HW288128  12.901  12.591   4.544  3.6075 -0.6761 -0.2091
58717SOL     OW88129   1.503   2.649  11.325  0.0073 -0.2300 -0.4052
58717SOL    HW188130   1.581   2.638  11.379  1.1607  2.3374 -1.3526
58717SOL    HW288131   1.469   2.561  11.311  0.8250 -1.1472  2.7403
58718SOL     OW88132  11.857   1.489  11.696  0.3377 -0.3581  0.3460
58718SOL    HW188133  11.880   1.578  11.671 -2.1849 -0.3127 -2.2643
58718SOL    HW288134  11.820   1.498  11.784 -1.7179  1.5871 -0.6252
58719SOL     OW88135  10.547   6.815   6.973 -0.2959  0.8185  0.3561
58719SOL    HW188136  10.621   6.850   6.922  1.0471 -0.3637  1.3888
58719SOL    HW288137  10.551   6.720   6.957 -1.7363  0.7562  0.2817
58720SOL     OW88138   1.360   9.693   3.203 -0.0421  0.0097  0.3019
58720SOL    HW188139   1.379   9.723   3.292  0.7001 -0.2507  0.2390
58720SOL    HW288140   1.427   9.735   3.148  0.5777 -1.1566  0.1174
58721SOL     OW88141   0.888   7.063   3.990 -0.6368 -0.1098  0.1483
58721SOL    HW188142   0.890   6.978   4.034 -1.3944 -0.5857 -0.7087
58721SOL    HW288143   0.811   7.059   3.933  0.0751  0.6518 -0.8950
58722SOL     OW88144  13.324   5.190   1.842 -0.0937 -0.3545 -0.4447
58722SOL    HW188145  13.397   5.216   1.786  0.0137 -0.6042 -0.4212
58722SOL    HW288146  13.266   5.140   1.784  0.8231 -2.0360  0.0539
58723SOL     OW88147  12.748   2.215  11.600  0.3902  0.2698  0.1203
58723SOL    HW188148  12.810   2.168  11.655 -0.8020  0.2507  1.4966
58723SOL    HW288149  12.793   2.297  11.577  1.1536 -0.0208  0.5685
58724SOL     OW88150   5.371  13.402   4.004 -0.1339  0.1863 -0.4891
58724SOL    HW188151   5.340  13.389   4.094 -0.5509  0.2481 -0.6256
58724SOL    HW288152   5.302  13.452   3.961  0.5778  1.1864 -0.5191
58725SOL     OW88153   8.361   1.973  13.507  0.1693 -0.5802  1.1094
58725SOL    HW188154   8.386   1.939  13.421 -1.2039  1.4568 -0.1819
58725SOL    HW288155   8.406   2.058  13.513 -2.5849  1.0142  0.7179
58726SOL     OW88156  12.094   0.341   7.047 -0.6507  0.1483 -0.3079
58726SOL    HW188157  12.112   0.420   7.099 -1.6632  1.1188 -1.3725
58726SOL    HW288158  12.004   0.318   7.069 -0.7168 -0.0765 -0.8164
58727SOL     OW88159   3.314   6.047   4.553  0.3991 -0.0841  0.0613
58727SOL    HW188160   3.385   6.109   4.571  0.9813 -0.4367 -0.9764
58727SOL    HW288161   3.274   6.078   4.472 -1.8176  1.1371  1.5281
58728SOL     OW88162   8.574   4.076   4.934 -0.3875  0.0790 -0.1871
58728SOL    HW188163   8.620   4.076   5.018  1.7359  1.1678 -1.2805
58728SOL    HW288164   8.642   4.064   4.869 -2.0000 -0.8147 -1.8016
58729SOL     OW88165   5.901   9.277   0.212  0.6473  0.1514 -0.4463
58729SOL    HW188166   5.951   9.281   0.293  0.4073 -1.8623 -0.1479
58729SOL    HW288167   5.903   9.185   0.186 -2.2261  0.0895 -0.8304
58730SOL     OW88168   4.684  12.053   8.525 -0.0225  0.5972  0.5420
58730SOL    HW188169   4.762  12.093   8.487 -0.2230 -1.6049 -2.5714
58730SOL    HW288170   4.613  12.079   8.467 -0.7411 -1.2332  0.5505
58731SOL     OW88171   5.803  13.318   7.549 -0.2217  0.9154 -0.5411
58731SOL    HW188172   5.724  13.327   7.496 -0.1427 -0.7771 -1.0292
58731SOL    HW288173   5.784  13.244   7.606  0.2548  1.8047  0.8047
58732SOL     OW88174   0.993   5.724   2.395 -0.2311  0.3966 -0.6700
58732SOL    HW188175   0.899   5.739   2.396 -0.3160 -0.0605  1.0060
58732SOL    HW288176   1.005   5.657   2.327 -1.2644 -0.2965 -0.2069
58733SOL     OW88177   1.750  13.871   3.664 -0.0244 -0.2013  0.4384
58733SOL    HW188178   1.749  13.793   3.608  0.9373  0.0538  0.0499
58733SOL    HW288179   1.826  13.858   3.721 -1.5825 -0.9628  2.4523
58734SOL     OW88180   8.356   0.610   9.102 -0.4056  0.1648  0.1021
58734SOL    HW188181   8.329   0.587   9.191  1.1733 -1.3790  0.2331
58734SOL    HW288182   8.329   0.536   9.048  0.3011  0.2421 -0.3728
58735SOL     OW88183   7.560   0.659   9.086 -0.5582 -0.2597  0.2831
58735SOL    HW188184   7.537   0.653   8.993  1.0221 -2.0413 -0.0426
58735SOL    HW288185   7.599   0.746   9.095 -0.5385 -0.1404 -0.7682
58736SOL     OW88186  10.419   1.369   9.568 -0.2242 -0.6445  0.3007
58736SOL    HW188187  10.360   1.434   9.607 -2.5602 -2.0965 -0.5697
58736SOL    HW288188  10.396   1.370   9.475  1.8577 -0.6158 -0.2632
58737SOL     OW88189   9.032  11.403   5.416 -0.2739 -0.3289 -0.5803
58737SOL    HW188190   8.982  11.426   5.338  1.2332  1.2303 -1.1466
58737SOL    HW288191   9.108  11.355   5.382 -1.3164 -2.7845  0.2725
58738SOL     OW88192   3.519  11.515   4.541  0.4309  0.2231 -0.0734
58738SOL    HW188193   3.556  11.486   4.624  1.6811  0.5754 -0.4930
58738SOL    HW288194   3.505  11.434   4.491 -3.3932 -0.3806  1.6026
58739SOL     OW88195   3.503   2.564  12.694 -0.0819 -0.2303  0.2947
58739SOL    HW188196   3.407   2.564  12.693 -0.0909 -0.0645 -1.2676
58739SOL    HW288197   3.526   2.485  12.743 -1.0487 -1.7535 -1.5638
58740SOL     OW88198   4.160   9.477   0.842 -0.4666 -0.3956 -0.1039
58740SOL    HW188199   4.158   9.554   0.785 -2.0077 -1.4500 -1.5997
58740SOL    HW288200   4.249   9.443   0.834 -0.6796 -0.6084 -2.1156
58741SOL     OW88201   8.638   2.012   7.916  0.1963  0.1155 -0.2893
58741SOL    HW188202   8.717   1.982   7.871  1.0305 -0.5720  1.5215
58741SOL    HW288203   8.636   1.961   7.998 -0.4447  2.3116  1.1432
58742SOL     OW88204   7.500  10.009   9.576  0.1166 -0.2358 -1.0098
58742SOL    HW188205   7.459  10.048   9.499 -1.2206  0.6994  0.1250
58742SOL    HW288206   7.531  10.084   9.627 -0.1874 -0.7667 -0.0206
58743SOL     OW88207   0.694  12.873  12.776 -0.3988  0.0645 -0.3324
58743SOL    HW188208   0.725  12.963  12.768 -2.5340  1.1962  2.4169
58743SOL    HW288209   0.757  12.829  12.832 -0.8017  0.7196  0.6529
58744SOL     OW88210  10.589  12.732  12.468  0.0621 -0.1557 -0.4043
58744SOL    HW188211  10.543  12.731  12.384 -0.5632  0.7888 -0.0892
58744SOL    HW288212  10.612  12.824  12.482  2.9114 -0.6966 -0.9892
58745SOL     OW88213   6.542   5.081   9.696 -0.6381  0.0440  0.7739
58745SOL    HW188214   6.512   5.058   9.784  1.5865 -1.9927  1.0961
58745SOL    HW288215   6.472   5.051   9.638 -0.7459 -1.5747  1.6804
58746SOL     OW88216   2.594   5.465   3.522 -0.0772 -0.4330 -0.9099
58746SOL    HW188217   2.645   5.433   3.597  0.0752 -0.6818 -1.1189
58746SOL    HW288218   2.561   5.386   3.480 -0.3385 -0.2850 -0.9843
58747SOL     OW88219   7.584   5.352   1.209  0.3757  0.3108 -0.5276
58747SOL    HW188220   7.547   5.439   1.217 -1.0739 -0.2799 -0.5121
58747SOL    HW288221   7.671   5.359   1.248 -0.1746  1.4518  0.5496
58748SOL     OW88222   3.285   1.152   0.818 -0.0825 -0.2049  0.2179
58748SOL    HW188223   3.197   1.151   0.854  0.1892  0.7496  0.9161
58748SOL    HW288224   3.305   1.244   0.804  0.5765 -0.4455 -0.5178
58749SOL     OW88225   2.848   1.243   6.932 -0.1746  0.0549  0.1334
58749SOL    HW188226   2.871   1.288   7.013  0.4728  0.9944 -0.5509
58749SOL    HW288227   2.768   1.286   6.902 -1.5435 -1.5811  1.2401
58750SOL     OW88228   0.261   1.377   7.039 -0.4242 -0.3038  0.4804
58750SOL    HW188229   0.275   1.442   6.970  3.5171  0.2203  1.5495
58750SOL    HW288230   0.204   1.422   7.102  0.7610  1.4918  0.3518
58751SOL     OW88231   3.645  12.543   9.190 -0.1046  0.3952 -0.7148
58751SOL    HW188232   3.589  12.587   9.126 -1.5315 -0.5062 -0.1374
58751SOL    HW288233   3.603  12.560   9.274 -0.0101 -1.0233 -0.3562
58752SOL     OW88234   3.728  10.647   4.328 -0.1515  0.3079 -0.4961
58752SOL    HW188235   3.678  10.572   4.359  0.6339 -0.1436 -0.3086
58752SOL    HW288236   3.731  10.707   4.403 -1.3957  0.8715 -0.8681
58753SOL     OW88237   7.861  12.365  11.645  0.1466  0.2410  0.4212
58753SOL    HW188238   7.793  12.337  11.584  0.1685 -1.4399  1.0857
58753SOL    HW288239   7.941  12.323  11.613  1.0034  2.4517 -0.5385
58754SOL     OW88240  10.028   4.861   3.141  0.5800 -0.0995  0.4393
58754SOL    HW188241   9.972   4.787   3.165  0.1030 -0.3510 -1.3126
58754SOL    HW288242  10.091   4.867   3.213  1.0145 -2.5793  0.3714
58755SOL     OW88243   7.710   3.203   2.453  0.5365  0.1884 -0.9155
58755SOL    HW188244   7.626   3.178   2.414 -0.6714  0.8637  1.1126
58755SOL    HW288245   7.765   3.125   2.443 -0.9301 -0.9148 -0.6859
58756SOL     OW88246  11.504   1.856  10.285  0.2917  1.0728  0.3918
58756SOL    HW188247  11.444   1.930  10.294 -0.1094  0.6708  1.1453
58756SOL    HW288248  11.540   1.845  10.373 -0.6291 -0.4431  0.6058
58757SOL     OW88249  13.187   8.505   8.610  0.4235  0.2830  0.3381
58757SOL    HW188250  13.185   8.498   8.705 -0.3674  1.1797  0.4050
58757SOL    HW288251  13.231   8.425   8.581 -4.0415 -2.8969  1.1687
58758SOL     OW88252  13.926   4.088   5.522  0.0162 -0.4555 -0.1758
58758SOL    HW188253  13.944   4.142   5.445 -0.8836  1.1814  0.7005
58758SOL    HW288254  13.833   4.103   5.541  0.3710 -0.2544  1.6258
58759SOL     OW88255  12.356   7.101   1.829 -0.5354  0.3354 -0.3647
58759SOL    HW188256  12.313   7.066   1.907  0.7929  0.2339  0.3550
58759SOL    HW288257  12.422   7.035   1.808  1.0600  1.7088  0.1679
58760SOL     OW88258   6.327  11.767   9.457  0.4321 -0.2286  0.9886
58760SOL    HW188259   6.299  11.839   9.401  0.0958 -0.8250  0.3793
58760SOL    HW288260   6.321  11.801   9.546 -0.5303  0.2199  0.7546
58761SOL     OW88261   6.636   7.771  13.292 -0.7516  0.4462  0.9155
58761SOL    HW188262   6.641   7.710  13.365  0.5218 -0.2519  0.2810
58761SOL    HW288263   6.703   7.740  13.230 -2.0577  0.7804 -0.7328
58762SOL     OW88264   5.256   3.943   5.368 -0.5762 -0.1329  0.2725
58762SOL    HW188265   5.200   3.956   5.445 -0.7117  0.1469  0.1300
58762SOL    HW288266   5.340   3.980   5.393 -0.3384 -0.9149  0.6290
58763SOL     OW88267   9.522   6.568   4.674 -0.2160 -0.3009 -0.5947
58763SOL    HW188268   9.445   6.596   4.723 -0.0528 -1.1397  0.1625
58763SOL    HW288269   9.588   6.550   4.740 -1.1801 -5.3501 -0.6013
58764SOL     OW88270   4.783  13.850   1.402 -0.4626  0.0065  0.3495
58764SOL    HW188271   4.733  13.790   1.457 -1.0945  0.2065  0.0004
58764SOL    HW288272   4.830  13.906   1.464 -0.0457 -0.6879  0.6793
58765SOL     OW88273   8.137   7.031   0.573  0.2647  0.2297 -0.0257
58765SOL    HW188274   8.157   7.100   0.636  3.3630  1.5410 -2.1863
58765SOL    HW288275   8.066   7.066   0.520 -2.1311 -0.7465  2.3241
58766SOL     OW88276   8.267   7.041  11.337 -0.1138 -0.0010 -0.1346
58766SOL    HW188277   8.184   7.004  11.307 -0.0596  0.1928 -0.5286
58766SOL    HW288278   8.299   6.977  11.401  0.0708 -0.7402 -0.9483
58767SOL     OW88279   9.950  11.367   5.072 -0.0147 -0.8255 -0.2223
58767SOL    HW188280  10.013  11.439   5.070 -0.2976 -0.5785 -1.8353
58767SOL    HW288281  10.004  11.289   5.085  0.4028 -0.4312  0.4688
58768SOL     OW88282   1.171   0.022   3.793  0.2148  0.3749  0.1332
58768SOL    HW188283   1.159   0.038   3.887  1.0395 -2.8869  0.9434
58768SOL    HW288284   1.261   0.050   3.775  0.9858 -1.3873  1.0228
58769SOL     OW88285   3.992   0.502   7.741 -0.2864  0.0329  0.0465
58769SOL    HW188286   3.959   0.451   7.815 -0.4696  0.3347  0.1728
58769SOL    HW288287   4.086   0.512   7.759 -0.0326 -1.1540 -0.5065
58770SOL     OW88288  13.526  10.806   4.083 -0.5065  0.7033 -0.1199
58770SOL    HW188289  13.453  10.837   4.030 -0.3546 -0.2673 -0.9308
58770SOL    HW288290  13.599  10.797   4.021 -0.4857 -1.0207  0.0998
58771SOL     OW88291   9.153   5.038  10.733  0.7040  0.1242 -0.0136
58771SOL    HW188292   9.186   5.013  10.647 -0.0862  0.0511 -0.3021
58771SOL    HW288293   9.059   5.054  10.720  0.4675 -0.3921  0.9386
58772SOL     OW88294  11.467  13.838  13.145  0.4608 -0.0154  0.3223
58772SOL    HW188295  11.520  13.905  13.102  0.9192 -0.7343 -0.2523
58772SOL    HW288296  11.376  13.868  13.133  0.5522 -0.4147 -1.5329
58773SOL     OW88297  12.147   3.300   8.718 -0.1492 -0.6202 -0.5822
58773SOL    HW188298  12.209   3.291   8.790  0.2568  0.8001 -0.7279
58773SOL    HW288299  12.156   3.219   8.668  1.1835 -0.6798 -0.2792
58774SOL     OW88300   6.097   0.758   6.696  0.2861 -0.2216  0.0269
58774SOL    HW188301   6.070   0.840   6.653  0.7284 -0.7739 -1.3459
58774SOL    HW288302   6.190   0.750   6.677  0.0857 -1.4356 -0.5225
58775SOL     OW88303   6.938  10.973   3.006 -0.2204 -0.6643  0.0498
58775SOL    HW188304   6.934  10.878   3.011 -2.2741 -0.6796 -0.7026
58775SOL    HW288305   6.972  10.992   2.919  0.2202 -0.6964  0.2118
58776SOL     OW88306   6.492  12.831  12.167 -0.0548  0.3691 -0.1329
58776SOL    HW188307   6.549  12.888  12.116 -0.2364 -1.1253 -2.1451
58776SOL    HW288308   6.549  12.791  12.233  0.6928  0.6901 -0.5789
58777SOL     OW88309  12.796   9.723   2.019  0.7206 -0.5717 -0.0412
58777SOL    HW188310  12.885   9.748   1.996  1.0557 -1.6377  0.0272
58777SOL    HW288311  12.806   9.670   2.098  0.3906 -3.2341 -1.6482
58778SOL     OW88312   5.242   0.433  12.056  0.2978 -0.0092 -0.1176
58778SOL    HW188313   5.255   0.522  12.024 -0.1251  0.3849  0.7721
58778SOL    HW288314   5.271   0.435  12.147  1.4306 -1.0934 -0.4281
58779SOL     OW88315   3.602  12.127  13.765  0.0980 -0.0048  0.7033
58779SOL    HW188316   3.507  12.136  13.763  0.0063 -0.2366  2.6641
58779SOL    HW288317   3.622  12.069  13.691 -1.1455  0.8633 -0.3685
58780SOL     OW88318   4.199   8.917   8.360 -0.2942  0.8181  0.0507
58780SOL    HW188319   4.147   8.929   8.280 -1.2461  3.1951  0.9356
58780SOL    HW288320   4.203   9.004   8.399  2.4722  0.2685  1.2371
58781SOL     OW88321  13.702   1.995  10.790  0.1377 -0.0823 -0.1112
58781SOL    HW188322  13.773   1.982  10.853 -0.7272 -0.0179  0.9174
58781SOL    HW288323  13.656   2.072  10.822 -1.3903 -1.0853  0.2387
58782SOL     OW88324  13.412   6.006  13.249 -0.1415 -0.0145  0.0006
58782SOL    HW188325  13.324   6.037  13.228 -0.0758  0.7380  0.8217
58782SOL    HW288326  13.443   6.065  13.318  1.4088  0.3930 -0.9927
58783SOL     OW88327   8.159   6.209  10.041  0.0961  0.4369 -0.4771
58783SOL    HW188328   8.206   6.235  10.121  0.5500  0.3254 -0.7050
58783SOL    HW288329   8.079   6.167  10.073  0.3203  0.3091 -0.0748
58784SOL     OW88330   4.376   4.866  11.248 -0.7868  0.6198 -0.1208
58784SOL    HW188331   4.418   4.904  11.171  1.4687 -0.4391  0.5079
58784SOL    HW288332   4.400   4.926  11.320  1.9862 -1.2962  0.7026
58785SOL     OW88333   6.731   1.620   1.595  0.7587  0.2156 -0.6111
58785SOL    HW188334   6.666   1.580   1.653 -0.2290  2.0284 -0.3767
58785SOL    HW288335   6.730   1.565   1.517 -1.2241  0.2832 -0.6921
58786SOL     OW88336  10.461   8.573   0.458  0.5565 -0.2554 -0.1648
58786SOL    HW188337  10.497   8.661   0.451  1.1401 -0.3462  1.1916
58786SOL    HW288338  10.369   8.585   0.479  0.2438  0.0059 -1.6437
58787SOL     OW88339  10.038   6.670   3.265 -0.0232  1.0224  0.2400
58787SOL    HW188340  10.113   6.692   3.320  0.2749 -0.1069  0.3100
58787SOL    HW288341  10.068   6.596   3.212  0.2162  2.9106 -2.5158
58788SOL     OW88342  11.775   3.402   9.962 -0.0436 -0.0969  0.1811
58788SOL    HW188343  11.805   3.312   9.968  1.8197  0.4706  0.1007
58788SOL    HW288344  11.725   3.416  10.042  0.2109 -1.0113  0.5150
58789SOL     OW88345   0.908  10.988  11.433 -0.4999 -0.1947  0.5894
58789SOL    HW188346   0.824  11.020  11.400  0.2262  0.3973 -0.7785
58789SOL    HW288347   0.942  10.933  11.362  1.7254  2.1648 -0.3332
58790SOL     OW88348   3.079  10.030   7.649 -0.3387  0.0084  0.0437
58790SOL    HW188349   3.142  10.033   7.578 -0.0002 -2.1591  0.1907
58790SOL    HW288350   3.016  10.099   7.629  1.0024  0.9284 -1.1247
58791SOL     OW88351   4.284  11.178  11.142 -0.8787  0.7055 -0.0228
58791SOL    HW188352   4.288  11.212  11.231  0.4633 -0.1597  0.2650
58791SOL    HW288353   4.313  11.251  11.087  0.0149  0.6847  0.4071
58792SOL     OW88354   8.853  12.868  10.760  0.1677 -0.6686  0.5091
58792SOL    HW188355   8.874  12.930  10.829  0.5442  0.6738 -0.7700
58792SOL    HW288356   8.757  12.864  10.760  0.1694 -0.9574  1.3194
58793SOL     OW88357  12.200   1.556  11.708  0.3135 -0.2648  0.2365
58793SOL    HW188358  12.214   1.533  11.616  1.8078 -1.3897  0.7152
58793SOL    HW288359  12.288   1.571  11.743 -0.2500  0.3695  1.4455
58794SOL     OW88360   7.845   8.876   2.222 -0.4470 -0.1218 -0.4269
58794SOL    HW188361   7.893   8.903   2.300 -1.7939 -0.6279  0.6166
58794SOL    HW288362   7.890   8.919   2.150  0.9514  0.2086  0.6006
58795SOL     OW88363   3.830   7.059   9.870 -0.0737  0.3249 -0.7940
58795SOL    HW188364   3.851   7.025   9.783 -1.9737 -0.7285 -0.8839
58795SOL    HW288365   3.824   6.981   9.925  0.7154  0.9527  0.2224
58796SOL     OW88366   4.755  11.004   8.040  0.9648  0.2906 -0.5513
58796SOL    HW188367   4.672  10.961   8.062  0.2305  2.6404  1.7098
58796SOL    HW288368   4.740  11.040   7.952 -0.5280  0.8705 -0.0922
58797SOL     OW88369   8.759  11.000   2.570  0.6492 -0.5604  0.0493
58797SOL    HW188370   8.748  10.909   2.541 -1.3537 -0.6346  0.9069
58797SOL    HW288371   8.694  11.050   2.521 -0.3929 -0.1301  1.7955
58798SOL     OW88372  13.050   6.761   0.832 -0.9593 -0.2795 -0.8855
58798SOL    HW188373  13.058   6.701   0.757 -0.9010 -1.5456  0.1054
58798SOL    HW288374  13.003   6.710   0.898 -0.0240  0.4297  0.3579
58799SOL     OW88375  12.066   0.435   0.473 -0.4624 -0.0612  0.6601
58799SOL    HW188376  11.973   0.424   0.490 -1.1933 -0.6479 -3.0643
58799SOL    HW288377  12.100   0.346   0.466 -0.2852  0.0983 -0.8410
58800SOL     OW88378   0.512   5.124  10.011  0.0781  0.1533  0.3164
58800SOL    HW188379   0.454   5.159   9.943  0.4648 -1.0061 -0.6616
58800SOL    HW288380   0.557   5.200  10.046 -0.4848  0.8331 -0.3941
58801SOL     OW88381  10.626   9.270  10.664  0.1293 -0.2499 -0.3764
58801SOL    HW188382  10.707   9.251  10.711 -0.5742  1.8096  1.8733
58801SOL    HW288383  10.654   9.307  10.581  1.4911 -0.0233  0.1527
58802SOL     OW88384   4.043   3.894   5.373  0.1490 -0.4346 -0.0319
58802SOL    HW188385   4.018   3.900   5.281 -2.1840  0.0136  0.5706
58802SOL    HW288386   3.989   3.823   5.409  0.5922 -0.2227  1.1152
58803SOL     OW88387  10.263   1.087   9.957  0.2891 -0.2617 -0.0027
58803SOL    HW188388  10.258   1.092  10.053  0.7393  0.4949 -0.0198
58803SOL    HW288389  10.314   1.163   9.931  1.6534 -1.3703 -0.7292
58804SOL     OW88390   1.138  12.789   9.452  0.4300 -0.9465  0.3493
58804SOL    HW188391   1.057  12.797   9.402  0.5305  1.2260  0.4617
58804SOL    HW288392   1.141  12.696   9.478 -1.0349 -1.4880 -1.2485
58805SOL     OW88393  12.246   7.873   6.099 -0.1814  0.0418 -0.1472
58805SOL    HW188394  12.323   7.817   6.097 -0.0168  0.2773 -0.5161
58805SOL    HW288395  12.276   7.957   6.064  0.3219  1.3493  3.0603
58806SOL     OW88396   3.849  10.240   4.078 -0.3017  0.0902 -0.7780
58806SOL    HW188397   3.888  10.309   4.131  1.1952 -0.9757 -0.4465
58806SOL    HW288398   3.883  10.158   4.114 -0.4565 -0.7433 -2.4020
58807SOL     OW88399   7.837  13.886  12.592 -0.0396 -0.1443 -0.2249
58807SOL    HW188400   7.758  13.888  12.537  0.0005  1.3236 -0.2615
58807SOL    HW288401   7.803  13.870  12.680 -0.2835 -0.4916 -0.3769
58808SOL     OW88402   7.105  12.146   1.176 -0.1522 -0.6790  0.0560
58808SOL    HW188403   7.069  12.125   1.089  0.4782 -1.6324  0.0169
58808SOL    HW288404   7.059  12.087   1.235 -2.0649  1.3125  0.7222
58809SOL     OW88405  12.645   9.423   1.638  0.8040 -0.6881 -0.4938
58809SOL    HW188406  12.686   9.478   1.705 -0.3949 -1.4272  0.9184
58809SOL    HW288407  12.631   9.480   1.563  1.4189  0.3832  0.1929
58810SOL     OW88408   4.151   6.223   6.223 -0.5543 -0.3097  0.1939
58810SOL    HW188409   4.097   6.232   6.302 -0.3534  2.1371  0.1420
58810SOL    HW288410   4.091   6.190   6.157 -1.4461  0.3054  0.6802
58811SOL     OW88411   5.335   5.172   7.726 -0.2740  0.2476 -0.4179
58811SOL    HW188412   5.342   5.162   7.631  0.7303  2.0587 -0.5705
58811SOL    HW288413   5.304   5.262   7.739  1.1290  0.5777  0.9738
58812SOL     OW88414   1.266  13.219   2.135 -0.2812  0.6152 -1.0334
58812SOL    HW188415   1.233  13.286   2.194  0.2132 -0.0569  0.0310
58812SOL    HW288416   1.189  13.192   2.084 -1.1250 -0.0249  0.5222
58813SOL     OW88417   0.059   5.029   4.407  0.0500  0.1363  0.2500
58813SOL    HW188418   0.096   4.978   4.478 -1.5521  0.3345  1.2697
58813SOL    HW288419   0.135   5.072   4.366  0.9656  0.3751  2.1077
58814SOL     OW88420   9.019   7.269   8.555  0.3425 -0.1888 -0.3353
58814SOL    HW188421   9.071   7.315   8.489 -0.3683 -0.2077 -0.9221
58814SOL    HW288422   9.008   7.332   8.626 -2.6965  1.5470 -2.1474
58815SOL     OW88423   1.657   9.105   5.149  0.0520  0.2275  0.1425
58815SOL    HW188424   1.626   9.028   5.100  0.2552 -0.4582  1.0577
58815SOL    HW288425   1.753   9.100   5.142  0.0678  0.3295  0.2901
58816SOL     OW88426  10.017   7.922  13.134 -0.4740  0.3766  0.2706
58816SOL    HW188427  10.078   7.909  13.062 -0.8053 -0.6358  0.1534
58816SOL    HW288428   9.939   7.872  13.108 -2.0354  2.9587 -0.3697
58817SOL     OW88429   4.551  11.868   6.969 -0.0177 -0.5252 -0.2641
58817SOL    HW188430   4.483  11.831   7.025 -0.5931 -2.1665 -1.9127
58817SOL    HW288431   4.509  11.875   6.883  1.3178  0.3059 -0.8755
58818SOL     OW88432   4.262  13.156   1.762 -0.1786 -0.1277 -0.8138
58818SOL    HW188433   4.186  13.109   1.797  0.1386  0.3251  0.5405
58818SOL    HW288434   4.335  13.131   1.819  0.0920  1.6206 -0.3144
58819SOL     OW88435   1.226  11.910  11.143  0.0115  0.2181 -0.1346
58819SOL    HW188436   1.259  11.831  11.100  2.0463  1.3559 -0.8212
58819SOL    HW288437   1.193  11.965  11.072 -1.5937 -0.0555  0.3568
58820SOL     OW88438   8.230   1.552  11.795  0.3683  0.1527  0.1373
58820SOL    HW188439   8.174   1.574  11.720  1.5979  1.3408 -0.4703
58820SOL    HW288440   8.168   1.520  11.862 -1.4233  3.7161  0.4131
58821SOL     OW88441   7.613   1.507  11.038  0.2125 -0.1918 -0.4593
58821SOL    HW188442   7.653   1.594  11.033 -0.9583  0.3574 -0.9599
58821SOL    HW288443   7.616   1.483  11.130  0.6339  0.3453 -0.3331
58822SOL     OW88444  11.514   6.635   1.194 -0.8084  0.5252  0.2386
58822SOL    HW188445  11.570   6.576   1.144 -0.7914  0.1984  0.6387
58822SOL    HW288446  11.563   6.718   1.196 -0.3173  0.2338  0.6080
58823SOL     OW88447   2.094   7.342   5.240 -0.2796  0.5921 -0.1105
58823SOL    HW188448   2.062   7.261   5.280  0.6663  0.3514  0.1684
58823SOL    HW288449   2.036   7.356   5.165 -0.9090  0.0551  0.2684
58824SOL     OW88450   0.767   1.645   1.378 -0.3710 -0.3660  0.2348
58824SOL    HW188451   0.740   1.736   1.389  0.0503 -0.1231 -0.6125
58824SOL    HW288452   0.794   1.618   1.465 -1.7625 -0.1090  0.7673
58825SOL     OW88453   7.254   5.749   1.374 -0.3338 -0.2090 -0.0457
58825SOL    HW188454   7.276   5.839   1.347 -1.4003  0.1587  0.2614
58825SOL    HW288455   7.276   5.746   1.467 -3.3081  0.8153  0.8092
58826SOL     OW88456  12.806   9.317   4.060  0.5379  0.1949 -0.5679
58826SOL    HW188457  12.865   9.264   4.114 -0.5047 -1.2309 -0.7608
58826SOL    HW288458  12.853   9.327   3.977  0.8897 -0.1589 -0.4161
58827SOL     OW88459   1.002  12.780  11.525  0.0860  0.3248  0.4544
58827SOL    HW188460   1.068  12.711  11.525 -0.3361 -0.1315 -1.5554
58827SOL    HW288461   1.045  12.854  11.569  1.0960 -0.6882  1.2334
58828SOL     OW88462  12.942   7.687  12.344  0.5636 -1.0631  0.2564
58828SOL    HW188463  12.923   7.598  12.372  0.8302 -0.3506  3.0095
58828SOL    HW288464  13.038   7.691  12.338  0.6971 -0.5572  1.9780
58829SOL     OW88465   9.218   5.467   3.585 -0.3978 -0.9391  0.0026
58829SOL    HW188466   9.144   5.527   3.581 -0.7823 -1.3410  0.9269
58829SOL    HW288467   9.273   5.492   3.510 -1.3850 -0.5488 -0.6119
58830SOL     OW88468   3.936   7.936   8.595 -0.0547 -0.0981 -1.0381
58830SOL    HW188469   3.932   7.860   8.654  0.4081 -0.1634 -1.0856
58830SOL    HW288470   3.922   7.900   8.508  1.6756 -0.3660 -1.2332
58831SOL     OW88471   0.264  11.005  13.522 -0.0249 -0.8555  0.3405
58831SOL    HW188472   0.206  11.074  13.556  0.7133 -0.6793  1.2735
58831SOL    HW288473   0.218  10.972  13.445  0.0794  1.3839 -0.7716
58832SOL     OW88474  12.672   0.847  10.116  0.2309 -0.0563  0.1923
58832SOL    HW188475  12.577   0.837  10.124  0.2684 -0.6665 -0.0589
58832SOL    HW288476  12.698   0.781  10.051  0.7902  0.2986  0.0481
58833SOL     OW88477   0.112   3.027   2.882  0.6284  0.2211 -0.2109
58833SOL    HW188478   0.043   2.978   2.927 -0.8426  0.9571 -1.5555
58833SOL    HW288479   0.075   3.045   2.795  3.5323 -1.6230 -1.9845
58834SOL     OW88480   5.772   1.914   5.414 -0.3723 -0.2638  0.2273
58834SOL    HW188481   5.781   1.901   5.319 -0.5414  0.4191  0.1150
58834SOL    HW288482   5.861   1.937   5.443 -0.2994 -0.5700  0.2552
58835SOL     OW88483  12.978  13.894   7.992  0.1187 -0.1654 -0.0115
58835SOL    HW188484  12.950  13.824   8.051 -0.2915 -2.5655 -2.8124
58835SOL    HW288485  12.896  13.939   7.968  0.4025  1.5505  1.9431
58836SOL     OW88486   0.884   5.006   5.142 -0.3746  0.0601  0.7720
58836SOL    HW188487   0.818   5.063   5.181 -1.0934  0.3319 -0.7810
58836SOL    HW288488   0.835   4.930   5.111 -0.1774  0.7215 -1.3143
58837SOL     OW88489   4.742  13.601   0.683 -0.0819 -0.1762 -0.2401
58837SOL    HW188490   4.698  13.686   0.672  0.0588 -0.2028 -1.0129
58837SOL    HW288491   4.719  13.575   0.772 -1.2670  0.0345 -0.4563
58838SOL     OW88492  12.443   1.950  10.257  0.0815 -0.2964 -0.3620
58838SOL    HW188493  12.364   1.907  10.289 -0.8412  1.6115  0.0945
58838SOL    HW288494  12.515   1.893  10.284 -1.0151 -1.2144  0.7147
58839SOL     OW88495   3.845   2.598   0.250  0.2690 -0.2139  0.2489
58839SOL    HW188496   3.836   2.503   0.244 -3.0291 -0.0297  0.4222
58839SOL    HW288497   3.870   2.614   0.341  1.6210 -0.8838  0.0262
58840SOL     OW88498   5.708   8.075   6.206 -0.3601 -0.1116  0.0390
58840SOL    HW188499   5.638   8.011   6.191 -0.0784 -0.3474 -0.2890
58840SOL    HW288500   5.769   8.031   6.264 -0.9945  0.4743  1.1837
58841SOL     OW88501   3.357   3.446   2.232  0.0662  0.4117  0.8421
58841SOL    HW188502   3.374   3.452   2.138 -1.0580  1.8052  0.6845
58841SOL    HW288503   3.292   3.377   2.240  1.5773 -1.0802  0.8532
58842SOL     OW88504   0.205   0.704   0.484  0.0511  0.2821 -0.0312
58842SOL    HW188505   0.272   0.661   0.537 -1.8209 -0.5477  1.7595
58842SOL    HW288506   0.153   0.632   0.447 -1.1677  0.9290  0.3761
58843SOL     OW88507   7.700  13.281   1.841 -0.1736  0.6268  0.6686
58843SOL    HW188508   7.718  13.328   1.922  1.1690 -0.3880  0.9919
58843SOL    HW288509   7.781  13.286   1.791 -0.9300  1.1028 -0.5677
58844SOL     OW88510  11.886  13.736   5.107 -0.3607  0.0753  0.2460
58844SOL    HW188511  11.839  13.659   5.076  0.9568 -1.0585  0.9906
58844SOL    HW288512  11.962  13.743   5.049 -0.0035  0.2963  0.7360
58845SOL     OW88513  10.115  12.081  13.470 -0.0510  0.3939  0.1579
58845SOL    HW188514  10.121  11.988  13.495 -0.1635 -0.0874 -1.4804
58845SOL    HW288515  10.181  12.091  13.403 -0.6295  1.2952 -0.2860
58846SOL     OW88516  13.794   3.045   4.101  0.6452 -0.2313  0.0683
58846SOL    HW188517  13.855   2.993   4.154  0.4540 -0.8864 -0.3564
58846SOL    HW288518  13.734   3.084   4.165  0.8983 -0.3835  0.4002
58847SOL     OW88519   2.406  12.248   2.825  0.0095 -0.3693 -0.2945
58847SOL    HW188520   2.392  12.176   2.886 -0.3146  0.0153  0.0962
58847SOL    HW288521   2.453  12.314   2.876  2.6333 -1.3016 -1.3603
58848SOL     OW88522   3.606   4.872   1.926  0.0759  0.2486  0.3414
58848SOL    HW188523   3.552   4.815   1.982 -1.1739  0.8968 -0.1543
58848SOL    HW288524   3.681   4.818   1.902 -1.1224 -1.2529 -0.2020
58849SOL     OW88525   0.156   9.151   8.420 -0.0459  0.9211 -0.4383
58849SOL    HW188526   0.181   9.070   8.376  0.3267  0.2151  1.0161
58849SOL    HW288527   0.086   9.187   8.366 -2.2714 -1.8449  0.3339
58850SOL     OW88528   9.434   0.588   4.995  0.1288 -0.1972  0.0333
58850SOL    HW188529   9.388   0.507   5.018  0.8823 -0.6113  0.0982
58850SOL    HW288530   9.482   0.612   5.074  0.2131  0.1092 -0.1081
58851SOL     OW88531   6.028   3.531   6.680 -0.3489 -0.4663 -0.1205
58851SOL    HW188532   6.066   3.605   6.728 -1.1191  0.7802 -1.3789
58851SOL    HW288533   6.102   3.490   6.636 -0.0300  0.0339 -0.0532
58852SOL     OW88534   9.855   9.258  13.628  0.3527 -0.3366 -0.5651
58852SOL    HW188535   9.902   9.204  13.691  1.0162  0.2291 -0.5670
58852SOL    HW288536   9.916   9.327  13.604  0.7757 -1.4732 -3.1323
58853SOL     OW88537   1.808   6.844   5.755  0.2820  0.4545  0.2411
58853SOL    HW188538   1.713   6.841   5.749  0.2909 -0.0194  0.2926
58853SOL    HW288539   1.828   6.813   5.843  0.5366 -0.7974 -0.2297
58854SOL     OW88540   5.265   5.346   9.973 -0.4196  0.3761  0.2646
58854SOL    HW188541   5.302   5.308  10.053 -2.3291  0.3805  1.2031
58854SOL    HW288542   5.281   5.279   9.906  0.1584 -0.1473  0.9063
58855SOL     OW88543   2.533   7.121   4.876 -0.0819 -1.2749  0.7815
58855SOL    HW188544   2.457   7.142   4.930 -0.1245  0.3684  0.1385
58855SOL    HW288545   2.601   7.096   4.939 -0.2743  0.1243  1.5862
58856SOL     OW88546  10.566  13.155   1.332  0.1250 -0.3723  0.3354
58856SOL    HW188547  10.636  13.195   1.281  0.0242  0.4780  0.8473
58856SOL    HW288548  10.576  13.061   1.317  2.2803 -0.3878  1.5092
58857SOL     OW88549   5.992   4.795   5.041 -0.0884  0.0314  0.0669
58857SOL    HW188550   5.950   4.810   5.126  0.4576 -1.0582  0.5563
58857SOL    HW288551   5.920   4.783   4.980 -0.5184  2.0050  0.1126
58858SOL     OW88552  12.798   8.087   3.989  0.0127  0.0034  0.0585
58858SOL    HW188553  12.712   8.092   4.030  0.1227 -1.7462  0.5848
58858SOL    HW288554  12.802   7.998   3.953  2.4470 -0.7954  2.0444
58859SOL     OW88555   5.108   5.648   9.021  0.0252  0.1785 -0.0204
58859SOL    HW188556   5.018   5.668   8.994 -0.4495 -0.4699  1.0605
58859SOL    HW288557   5.153   5.627   8.939 -0.2187  2.6174 -0.8711
58860SOL     OW88558   2.650   8.878  13.600  0.4771 -0.3014 -0.3462
58860SOL    HW188559   2.686   8.858  13.686  0.3048  0.2222 -0.1453
58860SOL    HW288560   2.671   8.802  13.546 -0.6771 -1.2745  0.5318
58861SOL     OW88561   0.297   3.433  12.925  0.2314 -0.2061  0.1074
58861SOL    HW188562   0.296   3.491  13.001 -1.7308  0.7608 -0.5861
58861SOL    HW288563   0.353   3.360  12.951  1.1674  1.0290  1.7424
58862SOL     OW88564  10.447   3.032  12.430  0.3249  0.4050  0.0295
58862SOL    HW188565  10.421   3.120  12.403  1.1173  0.4335 -0.6747
58862SOL    HW288566  10.378   3.004  12.490 -0.3128  1.2122 -0.3137
58863SOL     OW88567  12.572   7.647   8.657  0.5582 -0.0704  0.2403
58863SOL    HW188568  12.639   7.705   8.622  0.6769 -0.2875  0.1021
58863SOL    HW288569  12.524   7.615   8.581 -1.1630  1.7963  0.4652
58864SOL     OW88570   2.945   1.682   4.524  0.1303  0.2303  0.1834
58864SOL    HW188571   2.882   1.676   4.596  0.7811 -3.3979  0.6482
58864SOL    HW288572   2.892   1.702   4.447 -1.1514  0.2110  1.0366
58865SOL     OW88573   0.633   2.796   2.532 -0.3690 -0.1704  1.0867
58865SOL    HW188574   0.661   2.888   2.531 -1.1829  0.0897  1.2852
58865SOL    HW288575   0.714   2.746   2.530  0.1043  0.5596  1.5105
58866SOL     OW88576  11.703  10.294   0.502 -0.6253  0.3172  0.5301
58866SOL    HW188577  11.790  10.270   0.535 -1.5281  0.7944  3.4868
58866SOL    HW288578  11.715  10.381   0.465  0.5809 -0.5588 -1.3476
58867SOL     OW88579   4.566   5.981   9.667 -0.1728 -0.3880 -0.2148
58867SOL    HW188580   4.634   6.030   9.621  2.4579 -0.8001  2.8580
58867SOL    HW288581   4.564   6.020   9.755 -0.7602 -3.2344  1.1296
58868SOL     OW88582   4.531   2.312   6.446 -0.1269  0.0341  0.5301
58868SOL    HW188583   4.512   2.292   6.354  0.6763  0.4221  0.2724
58868SOL    HW288584   4.478   2.390   6.464  0.0001  0.1782  0.2864
58869SOL     OW88585   4.290   2.153  13.785  0.2319 -0.0659 -0.0413
58869SOL    HW188586   4.225   2.221  13.768  2.0188  1.7738  0.0071
58869SOL    HW288587   4.314   2.166  13.877 -0.3478 -1.6806  0.3666
58870SOL     OW88588   1.009  12.741   0.400 -0.3624  0.5154  0.4473
58870SOL    HW188589   1.100  12.731   0.428 -0.1402  3.2279  0.9244
58870SOL    HW288590   0.972  12.653   0.408  1.6606 -0.2645  2.2744
58871SOL     OW88591   7.149   9.780   4.164  0.3373  0.0665  0.2056
58871SOL    HW188592   7.201   9.754   4.087 -1.1577  2.1249 -1.5998
58871SOL    HW288593   7.118   9.697   4.200  1.3248 -0.9775 -1.2226
58872SOL     OW88594  10.008   7.424   7.756  0.4187 -0.5217  0.0445
58872SOL    HW188595  10.050   7.351   7.711 -1.5295 -1.7297  0.0627
58872SOL    HW288596  10.063   7.440   7.833  1.1677 -1.6217 -0.2415
58873SOL     OW88597   8.658   7.697   9.472 -0.0883 -0.5444 -0.3058
58873SOL    HW188598   8.654   7.609   9.434 -1.7842 -0.6265 -0.0479
58873SOL    HW288599   8.601   7.750   9.415  0.8418  0.3857 -0.4090
58874SOL     OW88600   6.045   7.572   1.638 -0.2223 -0.1907  0.0645
58874SOL    HW188601   5.998   7.627   1.576  1.5043  0.3846 -0.7866
58874SOL    HW288602   5.976   7.525   1.686 -1.7423  2.5148  0.6952
58875SOL     OW88603   8.961  13.482   7.423 -0.4737 -0.0975 -0.0071
58875SOL    HW188604   8.968  13.395   7.463 -2.1052 -0.8073 -1.1542
58875SOL    HW288605   9.012  13.476   7.342  0.0338  0.2768  0.2754
58876SOL     OW88606   5.042  13.690   1.638  0.2859 -0.2141  0.0688
58876SOL    HW188607   5.039  13.701   1.543  0.4073 -0.4887  0.0301
58876SOL    HW288608   5.080  13.603   1.650  0.4760 -0.0895  0.3735
58877SOL     OW88609  11.904  13.486   3.364 -0.4753  0.1000  0.3648
58877SOL    HW188610  11.944  13.551   3.422 -1.2836  1.6315 -0.7022
58877SOL    HW288611  11.952  13.495   3.281 -0.8479 -0.3898  0.0912
58878SOL     OW88612   2.233   7.062  11.911 -0.3088 -0.0211 -0.2353
58878SOL    HW188613   2.233   7.153  11.883 -0.7297  0.5637  1.5245
58878SOL    HW288614   2.309   7.055  11.969  0.2884 -1.0604 -1.1079
58879SOL     OW88615  11.170   5.082  13.305 -0.0142 -0.1248 -0.1290
58879SOL    HW188616  11.125   5.050  13.227 -0.0347  0.9915 -0.5993
58879SOL    HW288617  11.260   5.052  13.296 -0.0574 -0.1436 -0.5023
58880SOL     OW88618  12.453   3.296  12.656  0.2841  0.1918  0.2701
58880SOL    HW188619  12.383   3.231  12.659 -0.1007  0.6133  0.6939
58880SOL    HW288620  12.516   3.262  12.593 -0.7392  0.2411 -0.7980
58881SOL     OW88621   2.170   1.772  11.252 -0.3446  0.1637 -0.4309
58881SOL    HW188622   2.106   1.734  11.191  0.3773 -0.7308 -0.6579
58881SOL    HW288623   2.199   1.698  11.305  0.3756  0.5894 -0.2186
58882SOL     OW88624   4.308   0.007   4.948 -0.7418 -0.0708 -0.0035
58882SOL    HW188625   4.277   0.097   4.939  1.2159  0.6667  0.0755
58882SOL    HW288626   4.271  -0.024   5.031 -0.4517  1.0956  0.5714
58883SOL     OW88627   9.482  12.813  12.199 -0.5446 -0.2394 -0.8873
58883SOL    HW188628   9.468  12.908  12.202  0.0880 -0.1648  1.1028
58883SOL    HW288629   9.401  12.776  12.234 -0.2329 -0.3597 -0.2894
58884SOL     OW88630   0.548  10.338   2.182  0.0740  0.3009 -0.1472
58884SOL    HW188631   0.629  10.389   2.182  1.5160 -1.8281  1.5084
58884SOL    HW288632   0.500  10.370   2.258 -0.4155  1.1197 -0.7700
58885SOL     OW88633   2.584  13.353   9.954 -0.1183  0.4009 -0.0442
58885SOL    HW188634   2.638  13.279   9.925  1.4423  1.0640  1.0248
58885SOL    HW288635   2.509  13.353   9.894 -0.3900 -2.2863  0.1857
58886SOL     OW88636   2.465  11.608   2.933  0.0102  0.1907 -0.2018
58886SOL    HW188637   2.417  11.526   2.936  1.1407 -0.4502  1.6210
58886SOL    HW288638   2.426  11.662   3.002  0.8400  0.2757  0.2084
58887SOL     OW88639   9.062  13.011   5.813  0.3676  0.2606 -0.3410
58887SOL    HW188640   9.107  12.986   5.893  1.0374  0.8929 -0.5137
58887SOL    HW288641   9.011  12.933   5.789  0.3425 -0.0139  0.5604
58888SOL     OW88642   8.440   8.972   5.812 -0.3388 -0.3935 -0.4509
58888SOL    HW188643   8.439   9.012   5.898 -1.7185  2.1055 -1.5208
58888SOL    HW288644   8.495   9.030   5.759 -0.3686 -1.2999 -1.5254
58889SOL     OW88645   7.778  12.018  10.092 -0.3123  0.3323  0.2580
58889SOL    HW188646   7.715  12.090  10.090  0.2195  0.8101  0.5792
58889SOL    HW288647   7.781  11.992  10.185 -0.2940  0.0813  0.1881
58890SOL     OW88648   8.843  12.337   0.434 -0.1573 -0.0906 -0.1966
58890SOL    HW188649   8.897  12.372   0.505  0.8905 -1.3686 -0.3376
58890SOL    HW288650   8.802  12.414   0.396 -0.0577  0.7075  1.2358
58891SOL     OW88651   5.128   7.760  11.641  0.7501 -1.0632 -0.3654
58891SOL    HW188652   5.137   7.765  11.737  1.6067  2.5812 -0.4754
58891SOL    HW288653   5.185   7.687  11.616  3.0175 -0.2008  1.7655
58892SOL     OW88654   0.964   7.752   1.078  0.0993  0.2899 -0.2804
58892SOL    HW188655   1.045   7.715   1.042 -0.0851  0.2584 -0.6669
58892SOL    HW288656   0.992   7.802   1.154  0.2025 -2.0005  1.2948
58893SOL     OW88657  10.638   8.580   8.739  0.7154  0.0851  0.7147
58893SOL    HW188658  10.578   8.654   8.753 -1.5560 -1.4055 -0.4803
58893SOL    HW288659  10.678   8.564   8.824 -1.2081  0.6682  1.7844
58894SOL     OW88660   1.058   7.762   6.190  0.3200 -0.4229  0.0924
58894SOL    HW188661   1.085   7.761   6.282 -0.3194 -0.9568  0.2834
58894SOL    HW288662   0.973   7.717   6.190  1.3378 -2.4831 -1.0682
58895SOL     OW88663   8.921  13.489   4.831  0.3011 -0.4107 -0.1358
58895SOL    HW188664   8.927  13.419   4.767 -1.5776 -1.0465  0.3125
58895SOL    HW288665   9.011  13.518   4.845  0.7223  0.3205 -3.6242
58896SOL     OW88666  11.410   6.430   2.581 -0.0797 -0.3988  0.5696
58896SOL    HW188667  11.454   6.347   2.565 -1.1845 -0.8247 -0.4543
58896SOL    HW288668  11.382   6.426   2.672  2.8149  0.3216  1.5959
58897SOL     OW88669   9.892   8.743   3.370 -0.4567  0.1337  0.0945
58897SOL    HW188670   9.842   8.818   3.404 -0.8274 -0.4661  0.9184
58897SOL    HW288671   9.972   8.781   3.334  0.7315  0.7131  3.0585
58898SOL     OW88672   7.068   2.340  10.706 -0.1067 -0.0949 -0.0165
58898SOL    HW188673   7.049   2.249  10.726  0.6568 -0.1823  0.3710
58898SOL    HW288674   7.103   2.339  10.616  1.0705 -0.3679  0.4211
58899SOL     OW88675   9.246   4.295  11.669  0.0045  0.3867  0.0747
58899SOL    HW188676   9.211   4.362  11.611  1.3280  0.3433 -0.8189
58899SOL    HW288677   9.317   4.339  11.717 -1.9003  0.8293  2.7546
58900SOL     OW88678   4.344   9.615   7.691 -0.3448 -0.2866 -0.1789
58900SOL    HW188679   4.292   9.641   7.766 -0.9380 -0.3945 -0.5455
58900SOL    HW288680   4.349   9.693   7.636  1.0965  0.1429  0.5280
58901SOL     OW88681   8.254   1.960   7.401  0.3420 -0.3551 -0.5588
58901SOL    HW188682   8.335   1.987   7.358 -0.3770  1.1489 -1.0427
58901SOL    HW288683   8.185   1.996   7.346 -0.7427 -3.1062 -1.1493
58902SOL     OW88684   2.256   1.121   3.334 -0.4101  0.1583 -0.5076
58902SOL    HW188685   2.323   1.104   3.268  0.3025 -0.1767  0.2905
58902SOL    HW288686   2.294   1.188   3.391  0.0446 -1.3378  1.0390
58903SOL     OW88687   1.656   0.042   1.177 -0.0140  0.8375  0.5522
58903SOL    HW188688   1.735  -0.007   1.155  0.5398  1.3942  1.2444
58903SOL    HW288689   1.682   0.098   1.250 -0.3173  2.8899 -0.8197
58904SOL     OW88690  12.748  10.644   3.856 -0.3491 -0.2644  0.1041
58904SOL    HW188691  12.824  10.635   3.799 -1.1985  0.4631 -1.2001
58904SOL    HW288692  12.776  10.706   3.923  0.2594 -0.0889 -0.3016
58905SOL     OW88693   1.817  13.795   2.862 -0.5316 -0.1770  0.4090
58905SOL    HW188694   1.896  13.742   2.854 -0.0253  0.7448 -1.2542
58905SOL    HW288695   1.744  13.735   2.846 -0.0266 -0.6098 -0.3033
58906SOL     OW88696   9.539   0.938  12.514  0.2706 -0.0050 -0.1171
58906SOL    HW188697   9.465   0.928  12.574  0.0516 -0.7777 -0.4954
58906SOL    HW288698   9.604   0.875  12.546 -0.2273 -1.1447 -1.2206
58907SOL     OW88699   0.104  12.647   1.748 -0.1695  0.5052 -0.0172
58907SOL    HW188700   0.101  12.653   1.843 -0.4244 -0.2002  0.0236
58907SOL    HW288701   0.155  12.568   1.730 -1.8856 -0.5904 -0.4121
58908SOL     OW88702   4.862  10.225   1.091 -0.0241 -0.5289  0.4819
58908SOL    HW188703   4.905  10.310   1.094  2.5406 -1.6999 -0.2889
58908SOL    HW288704   4.917  10.168   1.145 -1.2718 -1.8666  0.4160
58909SOL     OW88705   4.198   6.083   1.672  0.1019  0.4276 -0.1616
58909SOL    HW188706   4.258   6.038   1.732 -0.9533 -1.0869 -0.1691
58909SOL    HW288707   4.233   6.172   1.666  1.5897 -0.0311  0.8350
58910SOL     OW88708   2.881   2.983   6.195 -0.4090 -0.6215  0.0092
58910SOL    HW188709   2.893   2.894   6.164 -0.0990 -0.3879 -0.5627
58910SOL    HW288710   2.786   2.996   6.193 -0.5232 -1.2416  0.9897
58911SOL     OW88711   9.900  13.397   8.428 -0.3041 -0.0636  0.1269
58911SOL    HW188712   9.838  13.414   8.357  1.0435  0.2156 -1.0386
58911SOL    HW288713   9.978  13.447   8.404  0.2916 -0.2225  1.6596
58912SOL     OW88714   6.383   4.824  10.917  0.4987  0.1031  0.0863
58912SOL    HW188715   6.358   4.731  10.921 -2.8100  0.8395 -0.5047
58912SOL    HW288716   6.434   4.832  10.837  1.3586 -1.2826  0.4626
58913SOL     OW88717   3.371   5.759   1.381  0.3532 -0.6491  0.3454
58913SOL    HW188718   3.313   5.799   1.445 -1.2309  0.7904 -1.8480
58913SOL    HW288719   3.339   5.669   1.372  0.3789 -0.7593  1.2845
58914SOL     OW88720   4.156   0.733   3.797 -0.1118  0.6181  0.4410
58914SOL    HW188721   4.101   0.808   3.822  0.1322  0.5793  1.1230
58914SOL    HW288722   4.094   0.661   3.785 -0.7509  1.5974 -3.3255
58915SOL     OW88723   7.985   8.691  12.985  0.0539 -0.7226 -0.3059
58915SOL    HW188724   7.930   8.616  12.967  0.6147 -0.9904 -0.9495
58915SOL    HW288725   7.924   8.760  13.012 -0.4347 -1.4914  0.6119
58916SOL     OW88726  10.926  10.396   7.153  0.6285  0.0031  0.1303
58916SOL    HW188727  10.894  10.479   7.119  1.8007 -0.0560 -1.2042
58916SOL    HW288728  10.866  10.330   7.118  1.7117 -0.0369 -1.7963
58917SOL     OW88729   4.586   1.725  11.115  0.0520 -0.4455 -0.0615
58917SOL    HW188730   4.500   1.767  11.102  1.2682  1.7510 -1.5415
58917SOL    HW288731   4.635   1.788  11.168  1.3130 -0.8980 -0.6727
58918SOL     OW88732   0.342  10.246  13.486 -0.0746  0.2776  0.0345
58918SOL    HW188733   0.398  10.169  13.490  1.5385  1.3822 -0.4370
58918SOL    HW288734   0.364  10.296  13.566 -0.1686  0.8504 -0.2919
58919SOL     OW88735   9.140   9.902   8.691 -0.5021  0.1307 -0.9296
58919SOL    HW188736   9.221   9.952   8.703 -0.4675 -0.3220  1.0572
58919SOL    HW288737   9.078   9.964   8.655  0.0744  1.1194 -0.2507
58920SOL     OW88738   9.517   5.119   2.891 -0.0325  0.0199  0.0316
58920SOL    HW188739   9.556   5.202   2.920 -0.0789  0.3526 -0.8219
58920SOL    HW288740   9.477   5.082   2.970 -0.4666  1.0701  0.3162
58921SOL     OW88741  10.796   8.998   7.032 -0.1036 -0.2981  0.0685
58921SOL    HW188742  10.717   8.956   6.999 -1.7032  2.6246 -0.1954
58921SOL    HW288743  10.808   8.962   7.120 -1.4761 -1.1048 -0.0429
58922SOL     OW88744   4.773   3.016   9.663 -0.4509 -0.1879 -0.2740
58922SOL    HW188745   4.817   3.055   9.739  1.5547  0.5391 -1.6941
58922SOL    HW288746   4.686   3.055   9.663  0.3701  1.8161  0.2459
58923SOL     OW88747   0.452   6.497  11.249 -0.0797 -0.4556  0.5015
58923SOL    HW188748   0.423   6.405  11.249 -1.9145  0.0635  2.0749
58923SOL    HW288749   0.494   6.508  11.164  0.7887 -2.9235  0.5214
58924SOL     OW88750   6.372   6.939  13.134  0.5320 -0.0084  0.1944
58924SOL    HW188751   6.422   6.904  13.061 -1.5258 -2.6548 -0.1178
58924SOL    HW288752   6.291   6.972  13.094  0.7508  1.5620  0.9726
58925SOL     OW88753   5.040   6.939  13.954  0.0174  0.3752  0.0691
58925SOL    HW188754   5.097   6.940  14.031 -0.1323 -0.6091  0.2101
58925SOL    HW288755   5.100   6.923  13.881  0.1227  1.0214  0.0067
58926SOL     OW88756   9.735   5.284  13.313  0.1425  0.2262  0.1583
58926SOL    HW188757   9.808   5.345  13.324 -0.2668  0.9436 -0.8986
58926SOL    HW288758   9.658   5.341  13.309 -0.5013 -0.5217  1.3090
58927SOL     OW88759  11.539   2.509   1.321 -0.7468  0.3515  0.1589
58927SOL    HW188760  11.468   2.562   1.358  0.6657  2.9328 -0.5126
58927SOL    HW288761  11.619   2.555   1.348  0.4963 -0.2606 -2.1930
58928SOL     OW88762   5.277   4.028   2.456  0.5970  0.4865 -0.1942
58928SOL    HW188763   5.245   3.968   2.388  1.3599 -2.0035  1.5159
58928SOL    HW288764   5.201   4.081   2.478 -1.7385 -3.2079  1.6368
58929SOL     OW88765   8.810   5.081  10.129 -0.4816 -0.3659 -0.0784
58929SOL    HW188766   8.903   5.067  10.114 -0.1365  1.0330  0.6115
58929SOL    HW288767   8.794   5.171  10.103 -1.3716 -0.1942  0.9637
58930SOL     OW88768   9.488   5.962   7.033 -0.8090  0.4670 -0.5329
58930SOL    HW188769   9.494   6.023   6.960  1.7825  1.2134  0.2081
58930SOL    HW288770   9.405   5.983   7.076 -1.0823  1.8276 -1.6722
58931SOL     OW88771   0.757  11.938   4.198 -0.2973 -0.3848  0.3631
58931SOL    HW188772   0.773  11.894   4.114  0.0850 -1.7424  1.1369
58931SOL    HW288773   0.662  11.950   4.201 -0.2062  1.1192 -0.9463
58932SOL     OW88774   9.860   5.576   4.470  0.6264 -0.0918  0.1772
58932SOL    HW188775   9.900   5.502   4.424 -1.2716 -0.0634 -1.7180
58932SOL    HW288776   9.869   5.650   4.409  0.5592  0.6924  1.0861
58933SOL     OW88777  13.428   3.165   1.294 -0.8727  0.1715  0.8321
58933SOL    HW188778  13.359   3.101   1.312 -0.1659 -0.6667  0.6432
58933SOL    HW288779  13.496   3.146   1.359 -0.6406  0.7231  0.7602
58934SOL     OW88780   0.423   1.535   8.011 -0.2576  0.5321 -0.3878
58934SOL    HW188781   0.509   1.574   8.028 -0.8600  1.8119 -0.1327
58934SOL    HW288782   0.422   1.520   7.916  0.1579  0.7516 -0.4317
58935SOL     OW88783   4.407   1.621   8.134  0.1359  0.0108  0.5861
58935SOL    HW188784   4.325   1.571   8.129  0.7111 -0.8969 -0.0103
58935SOL    HW288785   4.404   1.661   8.221 -0.2172 -1.3138  1.2186
58936SOL     OW88786   5.699   4.295  10.677  0.3920 -0.3328  0.1553
58936SOL    HW188787   5.642   4.368  10.651  0.7612 -1.1476 -3.3963
58936SOL    HW288788   5.762   4.335  10.738 -0.6628  1.8059 -0.0452
58937SOL     OW88789   4.673   4.841   1.162 -0.0120  0.2798  0.2192
58937SOL    HW188790   4.692   4.895   1.085  0.0603  1.6046  1.1441
58937SOL    HW288791   4.743   4.775   1.163  0.6291  0.9466 -0.2075
58938SOL     OW88792  13.704   0.226  13.773 -0.0513 -0.0895  0.3179
58938SOL    HW188793  13.629   0.185  13.730  0.9626 -1.1021 -0.5382
58938SOL    HW288794  13.715   0.176  13.854 -0.3494  0.1076  0.4793
58939SOL     OW88795  12.524  11.108   4.333  0.0314 -0.7277 -0.2835
58939SOL    HW188796  12.613  11.132   4.359  0.4257 -1.8757 -0.5149
58939SOL    HW288797  12.526  11.108   4.237 -0.3316 -0.3767 -0.2951
58940SOL     OW88798   7.550  10.231  11.136  0.1373  0.0277  0.0684
58940SOL    HW188799   7.473  10.174  11.139  1.4106 -1.7193  1.0785
58940SOL    HW288800   7.525  10.307  11.190 -0.8356 -0.5866  0.5127
58941SOL     OW88801   8.655  11.269  12.298  0.1956 -0.1647  0.3603
58941SOL    HW188802   8.684  11.314  12.377  0.7592  0.9740 -0.4735
58941SOL    HW288803   8.562  11.289  12.292 -0.0797 -1.0892  1.2587
58942SOL     OW88804   1.764   9.574  12.909  0.1499  0.0696  0.5196
58942SOL    HW188805   1.772   9.662  12.872  1.5563 -1.0968 -2.3014
58942SOL    HW288806   1.741   9.588  13.001  1.5275  3.4102  0.5027
58943SOL     OW88807  13.755   5.241   9.104  0.2809  0.2451 -0.1229
58943SOL    HW188808  13.702   5.312   9.070  0.6357  1.3905  1.5425
58943SOL    HW288809  13.843   5.279   9.113  0.7533 -0.7656 -0.2817
58944SOL     OW88810   2.229  11.648   2.219  0.5129  0.2978  0.3473
58944SOL    HW188811   2.281  11.599   2.155 -0.4719 -0.3398  0.0225
58944SOL    HW288812   2.177  11.709   2.165 -0.3286 -0.2503  0.5250
58945SOL     OW88813   3.294  13.404   8.238 -0.0827  0.3350 -0.9069
58945SOL    HW188814   3.318  13.332   8.180 -0.7753  0.5970 -1.5360
58945SOL    HW288815   3.344  13.388   8.318  0.7486 -0.1407 -1.5016
58946SOL     OW88816   7.673  13.621   7.580 -0.3019 -0.1314 -0.8770
58946SOL    HW188817   7.607  13.667   7.529  0.0848  1.1728 -0.2451
58946SOL    HW288818   7.669  13.661   7.667  0.0831 -1.2715 -0.3109
58947SOL     OW88819   7.251   1.690  10.763 -0.3897  0.0926 -0.1787
58947SOL    HW188820   7.173   1.667  10.814 -0.5921  1.0709 -0.0265
58947SOL    HW288821   7.316   1.624  10.787 -1.2646 -0.9506 -0.5652
58948SOL     OW88822   1.852  10.125  13.886  1.0105  0.3243  0.4817
58948SOL    HW188823   1.930  10.072  13.870  0.8390 -0.1566  1.1756
58948SOL    HW288824   1.881  10.192  13.948  1.0708  0.6589  0.0963
58949SOL     OW88825   5.484  13.267   0.160  0.0553  0.8109  0.4194
58949SOL    HW188826   5.497  13.253   0.254 -0.0188  0.7803  0.4251
58949SOL    HW288827   5.428  13.344   0.155 -1.5992 -0.3370  0.4587
58950SOL     OW88828   6.791   9.172   6.933  0.3496 -0.5227  0.5604
58950SOL    HW188829   6.814   9.231   6.862 -0.1597 -0.4370  0.4636
58950SOL    HW288830   6.866   9.113   6.941  1.0163  0.3669  0.9131
58951SOL     OW88831   0.048   0.120  11.816 -0.2520 -0.2218 -0.2164
58951SOL    HW188832   0.109   0.053  11.847 -1.0006 -0.9940 -0.3713
58951SOL    HW288833  -0.016   0.072  11.764 -1.1114  0.5362  0.1180
58952SOL     OW88834   9.252  12.619   8.661 -0.4601 -0.7317  0.2945
58952SOL    HW188835   9.336  12.643   8.701  0.1066 -1.6077 -0.3269
58952SOL    HW288836   9.199  12.698   8.669  0.7952  0.2167 -0.2751
58953SOL     OW88837   1.970  10.012  11.004 -0.3616 -0.2256 -0.2842
58953SOL    HW188838   1.945   9.919  11.001  1.3900 -0.7563 -3.2999
58953SOL    HW288839   1.895  10.058  10.967 -0.1842 -0.8039 -1.4146
58954SOL     OW88840   0.150   6.060   9.840  0.3062 -0.3835  0.3702
58954SOL    HW188841   0.064   6.048   9.881  0.8584 -0.9482  1.4212
58954SOL    HW288842   0.143   6.143   9.793 -0.8019 -0.4082  0.4646
58955SOL     OW88843   9.259  13.623  13.499  0.4151  0.2668 -0.1928
58955SOL    HW188844   9.293  13.545  13.544 -1.5994 -0.1053  0.7882
58955SOL    HW288845   9.298  13.619  13.412  2.1600 -0.5744  0.5785
58956SOL     OW88846  10.026   8.540   7.644 -0.2128  0.0933 -0.0619
58956SOL    HW188847  10.087   8.470   7.667  1.6147  1.5314 -0.3562
58956SOL    HW288848  10.026   8.599   7.720 -1.3220  0.0890 -0.0352
58957SOL     OW88849   3.748   4.962  11.708  0.1236  0.4572 -0.4032
58957SOL    HW188850   3.842   4.944  11.713  0.2763  0.1341 -3.0291
58957SOL    HW288851   3.742   5.043  11.658 -1.0304 -0.0174 -1.0672
58958SOL     OW88852  12.296   0.346   8.026  0.3796 -0.3399  0.4258
58958SOL    HW188853  12.304   0.265   8.077  0.7140 -2.4195 -2.6301
58958SOL    HW288854  12.385   0.369   8.003  0.2881  0.9925  1.3513
58959SOL     OW88855   7.013   4.192   7.750  0.1669 -0.8122 -0.3467
58959SOL    HW188856   7.084   4.256   7.747 -1.3379  0.9638 -0.0141
58959SOL    HW288857   6.950   4.222   7.685 -0.6701 -1.8727 -0.0616
58960SOL     OW88858   7.783  10.197   7.437  0.0069  0.4643 -0.1438
58960SOL    HW188859   7.696  10.195   7.478  0.6066  0.4501  1.1674
58960SOL    HW288860   7.806  10.105   7.424 -0.2190  0.4704 -0.6199
58961SOL     OW88861  13.842   1.078   5.893  0.0124 -0.1943 -0.1582
58961SOL    HW188862  13.817   1.160   5.851 -1.7181 -1.4433 -1.7231
58961SOL    HW288863  13.795   1.079   5.977 -0.0197  0.4082 -0.1796
58962SOL     OW88864   3.520   5.884   5.730 -0.2239 -0.3511  0.1559
58962SOL    HW188865   3.483   5.805   5.689 -1.6477  1.2011 -1.7403
58962SOL    HW288866   3.547   5.939   5.656 -1.5648  2.0160  1.3157
58963SOL     OW88867  13.237   3.035   6.319 -0.2760  0.0728 -0.3642
58963SOL    HW188868  13.252   2.998   6.406 -0.6618  2.4113  0.7756
58963SOL    HW288869  13.304   3.102   6.309 -0.7588  0.4158 -1.5289
58964SOL     OW88870  12.669  12.278   7.235  0.1242  0.4800 -0.5266
58964SOL    HW188871  12.626  12.193   7.226 -2.7876  1.9711 -2.6768
58964SOL    HW288872  12.663  12.299   7.328  1.4610 -1.8354  0.1594
58965SOL     OW88873  13.577   1.648   2.786 -0.0554 -0.7858  0.3264
58965SOL    HW188874  13.537   1.700   2.716 -0.1487 -1.5541 -0.2053
58965SOL    HW288875  13.528   1.566   2.786  0.5344 -1.1439  0.6951
58966SOL     OW88876  12.252   8.895  12.297 -0.0493  0.6719  0.1767
58966SOL    HW188877  12.188   8.936  12.238  1.7603  0.3683 -2.1629
58966SOL    HW288878  12.209   8.814  12.325 -0.3436 -0.1076 -2.2589
58967SOL     OW88879   6.009   1.449  10.567  0.1163 -0.6521 -0.6707
58967SOL    HW188880   5.922   1.431  10.602 -0.4086 -0.8694 -2.0120
58967SOL    HW288881   6.068   1.395  10.620 -0.0660  1.9745  2.5288
58968SOL     OW88882   3.430  10.348   3.586  0.1274  0.2231  0.1855
58968SOL    HW188883   3.501  10.285   3.574  0.2556  0.1288  1.2930
58968SOL    HW288884   3.354  10.309   3.542  0.3887 -0.3699  0.2611
58969SOL     OW88885   9.151   9.551   6.490  0.1762  0.1274 -0.4753
58969SOL    HW188886   9.121   9.642   6.496  0.1135  0.0538  0.5199
58969SOL    HW288887   9.071   9.499   6.487  0.1519 -0.0189  1.3796
58970SOL     OW88888  10.740  11.651   7.173 -0.0573  0.2155  0.3034
58970SOL    HW188889  10.698  11.725   7.216 -0.5341 -1.1291  2.2549
58970SOL    HW288890  10.817  11.688   7.130 -0.1608  1.7922  1.4324
58971SOL     OW88891   5.981   2.152   4.101  0.1423 -0.7673 -0.1235
58971SOL    HW188892   5.969   2.191   4.187 -0.3854 -2.7545  0.7449
58971SOL    HW288893   5.981   2.058   4.116 -2.2291 -1.2772 -2.5492
58972SOL     OW88894   3.059   1.085  13.102  0.4586 -0.6796 -0.2786
58972SOL    HW188895   3.114   1.135  13.041 -1.2208  2.0914  0.3116
58972SOL    HW288896   3.010   1.024  13.047  1.6649 -0.8634 -1.1922
58973SOL     OW88897   1.861  12.917  13.728  0.2966 -0.0944 -0.0236
58973SOL    HW188898   1.922  12.990  13.718 -2.1550  2.7039  3.0397
58973SOL    HW288899   1.778  12.951  13.692 -1.2145 -0.7709  2.5776
58974SOL     OW88900   2.880   5.653   0.794 -0.4255 -0.3140 -0.2762
58974SOL    HW188901   2.906   5.743   0.771  0.1187 -0.4471 -0.1997
58974SOL    HW288902   2.846   5.660   0.883 -1.2282 -0.0342 -0.5970
58975SOL     OW88903   9.677  13.091   8.633 -0.5129  0.4662  0.7605
58975SOL    HW188904   9.694  13.184   8.647  0.4857  0.2358  1.1689
58975SOL    HW288905   9.584  13.080   8.654 -0.5943  1.3344  0.8862
58976SOL     OW88906   4.023   3.791   9.229  0.1501  0.3971  0.2784
58976SOL    HW188907   4.065   3.877   9.228  0.2145  0.3686  0.4808
58976SOL    HW288908   3.956   3.799   9.297  0.2315  0.2521  0.3753
58977SOL     OW88909   7.063   6.508   7.853 -0.5281 -0.0191  0.1810
58977SOL    HW188910   7.056   6.414   7.868  0.4638 -0.0998  0.2239
58977SOL    HW288911   7.132   6.516   7.786 -1.0785  0.6370 -0.3199
58978SOL     OW88912   4.344   2.475   6.214  0.0349 -0.6409  0.2426
58978SOL    HW188913   4.432   2.509   6.196  0.3023 -1.9874 -1.2292
58978SOL    HW288914   4.285   2.546   6.190  0.6583 -0.3963 -0.6203
58979SOL     OW88915  12.682  13.511  13.809  0.0200 -0.3003 -0.0069
58979SOL    HW188916  12.735  13.438  13.841  0.8149  0.2340 -0.0714
58979SOL    HW288917  12.744  13.583  13.800 -0.6890  0.2865 -0.2770
58980SOL     OW88918   3.922   5.626  12.478 -0.0442  0.4194  1.0910
58980SOL    HW188919   3.964   5.610  12.563 -0.4995 -3.5278  0.7640
58980SOL    HW288920   3.916   5.540  12.438 -2.2865  1.7676 -1.8565
58981SOL     OW88921   9.311   8.866   9.092  0.2855  0.1404  0.0943
58981SOL    HW188922   9.387   8.875   9.034  1.2832  0.7030  1.4484
58981SOL    HW288923   9.235   8.872   9.033  1.2207  2.1490 -1.0012
58982SOL     OW88924   8.908   1.544   1.989 -0.3226  0.0254 -0.2133
58982SOL    HW188925   8.818   1.542   1.957  0.0727 -0.4517 -1.3424
58982SOL    HW288926   8.937   1.634   1.974 -1.0814  0.6177  1.5877
58983SOL     OW88927   3.579   9.206  11.794  0.3034 -0.4664  0.0540
58983SOL    HW188928   3.604   9.297  11.807  2.4383 -0.8517 -0.8314
58983SOL    HW288929   3.500   9.210  11.740  1.3319  0.8739 -1.4478
58984SOL     OW88930   4.386   0.767   3.630  0.1685 -0.9171  0.1871
58984SOL    HW188931   4.308   0.762   3.686  0.5067 -0.8939  0.6571
58984SOL    HW288932   4.433   0.685   3.646  0.4143 -0.7829  0.1537
58985SOL     OW88933   8.771   2.568   8.320  0.2449  0.1925 -0.0850
58985SOL    HW188934   8.703   2.523   8.370  0.1306 -0.4242 -0.7926
58985SOL    HW288935   8.723   2.623   8.258  0.3506  2.2345  1.5295
58986SOL     OW88936  13.576   5.685   6.231  0.1801  0.0768 -0.4067
58986SOL    HW188937  13.530   5.752   6.180 -1.9094 -0.5178  0.5747
58986SOL    HW288938  13.575   5.607   6.175 -2.5797 -0.7300  0.5936
58987SOL     OW88939  13.112   6.802  11.442  0.4249 -0.1278  0.1249
58987SOL    HW188940  13.097   6.733  11.506 -0.5499  1.4971  1.7417
58987SOL    HW288941  13.118   6.883  11.494  1.3166  1.0571 -1.6913
58988SOL     OW88942   9.558  13.192  12.656  0.2966  0.2185 -0.1786
58988SOL    HW188943   9.639  13.197  12.605  0.5331  2.0227  0.3152
58988SOL    HW288944   9.524  13.104  12.638  1.6188 -0.0615 -1.5205
58989SOL     OW88945   5.867  11.349   0.818 -0.7830  0.2048 -0.3185
58989SOL    HW188946   5.799  11.306   0.766 -0.2509 -1.8550  0.5928
58989SOL    HW288947   5.949  11.323   0.778 -0.4500  1.4590 -0.5069
58990SOL     OW88948   7.301  11.147   1.327  0.5819 -0.1651  0.5931
58990SOL    HW188949   7.393  11.142   1.302  0.5387 -1.2064  0.5974
58990SOL    HW288950   7.274  11.235   1.301  1.0295 -0.5626 -1.3596
58991SOL     OW88951   3.378   6.580   9.643 -0.6700 -0.4741  0.3197
58991SOL    HW188952   3.465   6.541   9.653 -0.0642  0.4659 -1.0390
58991SOL    HW288953   3.326   6.540   9.713  1.4614  0.7589  2.7594
58992SOL     OW88954   3.103   2.593   9.078  0.2660 -0.4068  0.0928
58992SOL    HW188955   3.085   2.516   9.024 -0.3509  0.1295 -0.4830
58992SOL    HW288956   3.134   2.659   9.016 -2.5866  0.9496 -0.0221
58993SOL     OW88957  13.910   8.836   4.898 -0.1567 -0.1934  0.1283
58993SOL    HW188958  13.865   8.920   4.902 -1.0374 -0.6419  0.0977
58993SOL    HW288959  13.844   8.776   4.861  0.3207 -0.9730  0.5208
58994SOL     OW88960   6.733  12.240   7.895  0.0373  0.2170  0.0183
58994SOL    HW188961   6.774  12.276   7.974  0.1594 -0.3956  0.2391
58994SOL    HW288962   6.805  12.233   7.832 -0.3731  2.3574 -0.7682
58995SOL     OW88963  13.154   3.831   5.278 -0.4013 -0.4853 -0.0817
58995SOL    HW188964  13.204   3.795   5.350  1.5561  2.4242  0.1821
58995SOL    HW288965  13.218   3.843   5.207 -0.4385  3.4579  0.3064
58996SOL     OW88966  12.789   1.068   4.044 -0.4163 -0.3565  0.2372
58996SOL    HW188967  12.731   1.008   3.997  0.6766  0.2208 -1.9817
58996SOL    HW288968  12.755   1.155   4.023  0.9284 -0.0306 -0.7665
58997SOL     OW88969   9.106   4.287   5.180  0.0707  0.2058  0.1353
58997SOL    HW188970   9.012   4.297   5.166  0.2602 -0.9776 -2.6398
58997SOL    HW288971   9.146   4.323   5.101  1.9202 -0.1022  0.8771
58998SOL     OW88972  12.810   6.847   9.811  0.3119 -0.1388  0.1420
58998SOL    HW188973  12.881   6.829   9.750  2.7563  2.5779  1.9109
58998SOL    HW288974  12.775   6.932   9.783 -1.3654 -0.7918  0.1252
58999SOL     OW88975  12.148   0.654   1.255  0.0979 -0.2289 -0.0380
58999SOL    HW188976  12.064   0.615   1.231 -0.7658  1.7987 -0.5571
58999SOL    HW288977  12.174   0.704   1.177  1.4473 -0.2843  0.3586
59000SOL     OW88978   9.082  13.694   9.650 -0.4979 -0.1824 -0.2671
59000SOL    HW188979   9.152  13.720   9.709 -0.3709  0.1842 -0.5749
59000SOL    HW288980   9.122  13.629   9.592 -0.8238 -1.1141  0.5240
59001SOL     OW88981   0.846   9.301  11.838  0.7728  0.0429 -0.0713
59001SOL    HW188982   0.756   9.298  11.804  1.5497 -0.0307 -2.2866
59001SOL    HW288983   0.862   9.394  11.852 -0.0747 -0.0400  1.6558
59002SOL     OW88984   5.404   3.419   0.041  0.7380  0.0350  0.4243
59002SOL    HW188985   5.443   3.372   0.115 -1.9012 -2.3933  0.4446
59002SOL    HW288986   5.472   3.417  -0.027  1.2115 -2.9706  0.8212
59003SOL     OW88987   8.817   8.349   7.390 -0.4603  0.0894  0.1108
59003SOL    HW188988   8.831   8.407   7.316  0.5952  1.7940  1.5651
59003SOL    HW288989   8.778   8.270   7.352 -1.3817  1.4834 -2.0252
59004SOL     OW88990   1.037   6.539   9.748 -0.6736  0.1100 -0.1409
59004SOL    HW188991   1.060   6.446   9.743 -0.4897  0.1754 -0.5770
59004SOL    HW288992   1.120   6.585   9.735 -0.9644  0.3422 -1.3019
59005SOL     OW88993   1.096   9.601   8.883  0.1376 -0.0057 -0.6426
59005SOL    HW188994   1.176   9.653   8.892  0.2121 -0.3826  1.0662
59005SOL    HW288995   1.054   9.636   8.804  0.7026  1.9468 -0.1231
59006SOL     OW88996   4.694   4.575   6.972  0.6463  0.3092  0.2608
59006SOL    HW188997   4.624   4.565   7.036  1.0051  0.4077  0.6742
59006SOL    HW288998   4.775   4.560   7.022  0.9257  0.3144 -0.1813
59007SOL     OW88999  11.440   3.594   8.449  0.3091 -0.1960 -0.0927
59007SOL    HW189000  11.347   3.605   8.431  0.4656  0.8796 -0.2977
59007SOL    HW289001  11.460   3.504   8.421 -0.2338  0.2159 -1.9011
59008SOL     OW89002   8.948   3.598   3.671  0.1423 -0.1778 -0.0797
59008SOL    HW189003   8.859   3.571   3.647 -0.8602  0.3771  2.6964
59008SOL    HW289004   9.000   3.518   3.662 -0.8143 -0.7468 -0.8164
59009SOL     OW89005  12.522   1.981   1.207  0.3029 -0.1279  0.1964
59009SOL    HW189006  12.500   1.898   1.164 -0.0436 -0.1200  0.3561
59009SOL    HW289007  12.465   1.984   1.284  0.1644  0.3569  0.0784
59010SOL     OW89008   1.587   6.362   2.132  0.5632 -0.1314  0.2984
59010SOL    HW189009   1.494   6.357   2.153  0.0536  3.4002 -0.4356
59010SOL    HW289010   1.593   6.327   2.043  0.1246 -1.0895  0.6233
59011SOL     OW89011  10.920   2.136  13.057 -0.5261  0.5520 -0.7434
59011SOL    HW189012  10.983   2.167  13.121  0.1973 -0.7918 -0.7580
59011SOL    HW289013  10.973   2.092  12.990 -1.3118  1.3497 -1.9294
59012SOL     OW89014   8.716   8.412  10.086  0.3088  0.2301  0.1591
59012SOL    HW189015   8.767   8.348  10.136  0.8730 -1.0220 -1.8726
59012SOL    HW289016   8.665   8.358  10.025 -2.4239  1.5206  1.1427
59013SOL     OW89017   5.084   3.523  11.202  0.0227 -0.2475 -0.6745
59013SOL    HW189018   5.066   3.596  11.142  0.1794  0.9991  0.7228
59013SOL    HW289019   5.096   3.447  11.145  3.4767  1.4558 -2.5347
59014SOL     OW89020   1.062   9.098   7.108  0.3726 -0.1972  0.2104
59014SOL    HW189021   1.046   9.181   7.153 -1.1066 -0.5067  0.3093
59014SOL    HW289022   1.131   9.056   7.158  0.9588  0.8528  0.3132
59015SOL     OW89023   0.949  11.312   8.775 -0.0004  0.2014  0.3743
59015SOL    HW189024   0.921  11.224   8.747  0.8593 -0.3354  1.1616
59015SOL    HW289025   1.043  11.304   8.787 -0.2890  0.3441  3.5098
59016SOL     OW89026   3.849   7.685   9.440  0.3962  0.2881 -0.2586
59016SOL    HW189027   3.832   7.600   9.481  0.4298  0.0211 -0.7978
59016SOL    HW289028   3.822   7.675   9.349 -1.3212  1.4172  0.0905
59017SOL     OW89029  13.762  12.439  11.235  0.1367 -0.3756  0.3144
59017SOL    HW189030  13.724  12.388  11.163 -1.0597 -0.5515  1.0485
59017SOL    HW289031  13.751  12.530  11.208  0.4185 -0.4551 -0.0797
59018SOL     OW89032   5.011  11.340  11.710  0.3735 -0.2583  0.2502
59018SOL    HW189033   5.016  11.427  11.671  0.5448 -0.2897  0.2016
59018SOL    HW289034   5.101  11.307  11.709  0.6373  0.2904  1.9264
59019SOL     OW89035   0.145   4.869   1.990 -0.9774 -0.0307 -0.1826
59019SOL    HW189036   0.208   4.806   2.024 -0.3541 -0.0409 -1.2947
59019SOL    HW289037   0.086   4.886   2.063  0.9007  0.7410  1.2532
59020SOL     OW89038  12.240   8.510   8.923  0.3892  0.1925  0.4316
59020SOL    HW189039  12.274   8.441   8.867 -0.3481  0.8242 -0.8296
59020SOL    HW289040  12.225   8.467   9.008  0.1409 -1.1450 -0.2671
59021SOL     OW89041   4.196   1.329   8.472  0.5812  0.1183  0.7368
59021SOL    HW189042   4.128   1.279   8.518 -0.8407  0.6263 -0.7041
59021SOL    HW289043   4.225   1.271   8.402 -0.0820  0.7634 -0.0916
59022SOL     OW89044   4.476   1.763  13.708  0.0299  0.4494 -0.0073
59022SOL    HW189045   4.458   1.669  13.716  0.2337  0.2685 -1.5005
59022SOL    HW289046   4.392   1.801  13.684 -0.1986  0.7636  1.2002
59023SOL     OW89047  12.712   8.947   0.935 -0.0452  0.5850 -0.2464
59023SOL    HW189048  12.758   8.915   1.013  1.7523  0.1879 -1.3869
59023SOL    HW289049  12.742   8.889   0.865 -0.7591  1.6049 -1.4393
59024SOL     OW89050   2.483   5.950   4.800 -0.3388  0.4448  0.4492
59024SOL    HW189051   2.534   6.025   4.768 -0.4814  0.4175  0.1507
59024SOL    HW289052   2.393   5.969   4.772 -0.1124 -0.6602 -1.1707
59025SOL     OW89053  12.041   1.522  12.439 -0.0372 -0.1405 -0.1404
59025SOL    HW189054  12.044   1.617  12.426 -0.2967  0.2945  2.4016
59025SOL    HW289055  12.131   1.493  12.424  0.7778  1.0362  1.9390
59026SOL     OW89056   8.665   2.987   3.986  0.1646 -0.1566  0.3610
59026SOL    HW189057   8.576   2.953   3.997 -0.2952  0.9399  0.1032
59026SOL    HW289058   8.715   2.913   3.950 -1.0396 -0.2850 -1.1206
59027SOL     OW89059  10.205   6.032   7.055 -0.3308  0.0137  0.3664
59027SOL    HW189060  10.156   5.956   7.024 -1.3623 -0.3877  2.7228
59027SOL    HW289061  10.263   5.997   7.122 -1.5004  1.3495  2.1925
59028SOL     OW89062  11.091   5.409   4.728 -0.4468 -0.0104  0.3807
59028SOL    HW189063  11.084   5.390   4.821  0.9496 -1.8582  0.1707
59028SOL    HW289064  11.092   5.323   4.686 -1.8346  0.7859 -1.4390
59029SOL     OW89065  10.148   5.877   5.698  0.2717  0.1292 -0.0812
59029SOL    HW189066  10.183   5.820   5.767 -0.9349  0.2175  0.6430
59029SOL    HW289067  10.194   5.959   5.709  0.5212 -0.0520  0.2352
59030SOL     OW89068   3.013   9.099   7.568 -0.0720  0.5423  0.1984
59030SOL    HW189069   2.920   9.106   7.543  0.1784 -1.2468 -1.3983
59030SOL    HW289070   3.049   9.185   7.546 -1.4055  1.4113  1.2154
59031SOL     OW89071   6.974   8.452   0.752  1.0085  0.2562 -0.5927
59031SOL    HW189072   6.891   8.462   0.706  0.8747  0.7477 -0.2507
59031SOL    HW289073   6.956   8.388   0.821  0.8772  0.4617 -0.4353
59032SOL     OW89074   8.181   5.444   9.867 -0.0433  0.4871 -0.7485
59032SOL    HW189075   8.213   5.430   9.956 -1.5406  1.7389  0.0564
59032SOL    HW289076   8.177   5.357   9.828  2.1656  0.0900 -0.1712
59033SOL     OW89077   2.683  12.168   6.175  0.0843  0.7721  0.0680
59033SOL    HW189078   2.613  12.113   6.209 -1.3003  1.1725 -1.9400
59033SOL    HW289079   2.641  12.222   6.109  2.5057  0.0797 -2.2283
59034SOL     OW89080   5.576  13.248  12.384 -0.3099  0.5041 -0.1572
59034SOL    HW189081   5.485  13.253  12.412 -0.9273 -1.3770 -1.5966
59034SOL    HW289082   5.612  13.174  12.432  0.1306  0.5380 -0.4235
59035SOL     OW89083  12.854   3.991   8.013 -0.0324  0.1713  0.3802
59035SOL    HW189084  12.880   4.066   8.066  0.0919  0.2794  0.1693
59035SOL    HW289085  12.772   3.961   8.052  0.3325 -0.0789  0.9543
59036SOL     OW89086   1.704   5.009   7.726 -0.2312  0.5550  0.4283
59036SOL    HW189087   1.650   5.081   7.694  1.5088  1.5524 -0.4154
59036SOL    HW289088   1.706   4.947   7.654 -1.5229 -0.2679  1.0632
59037SOL     OW89089   6.597   3.229   7.803  0.5522 -0.0897 -0.6439
59037SOL    HW189090   6.584   3.318   7.771  0.4913  0.3009  0.4246
59037SOL    HW289091   6.528   3.178   7.761 -0.4691  0.7083  0.0329
59038SOL     OW89092   0.227  11.374   1.845 -0.0285 -0.7550 -0.1232
59038SOL    HW189093   0.208  11.348   1.935  0.3782 -0.0333  0.1714
59038SOL    HW289094   0.226  11.291   1.796 -3.6205 -0.8970 -0.1128
59039SOL     OW89095  11.345   7.060   5.588 -0.1391  0.3486  0.5410
59039SOL    HW189096  11.437   7.077   5.608  0.9699 -3.0470 -0.8496
59039SOL    HW289097  11.332   7.100   5.503 -0.3368  1.8154  1.2353
59040SOL     OW89098  12.882  10.668   8.872  0.1275 -0.0113 -0.0055
59040SOL    HW189099  12.821  10.738   8.895 -0.2719  0.3019 -1.8836
59040SOL    HW289100  12.839  10.588   8.904 -1.5901  0.1461 -1.7405
59041SOL     OW89101   5.875   4.003   9.908 -0.0063  0.2419  0.0870
59041SOL    HW189102   5.856   4.060   9.833 -0.0512  1.7871  1.2353
59041SOL    HW289103   5.963   4.029   9.937 -1.2717  2.0907  2.6199
59042SOL     OW89104   7.712   9.418  10.832  0.3976  0.0719 -0.9033
59042SOL    HW189105   7.789   9.458  10.871  0.8867 -0.1936 -1.5774
59042SOL    HW289106   7.638   9.468  10.866  0.8922  0.5436 -0.5221
59043SOL     OW89107   6.109   9.152   3.092 -0.4376 -0.1174 -0.1725
59043SOL    HW189108   6.179   9.099   3.053 -1.2082 -1.6237  0.4170
59043SOL    HW289109   6.142   9.177   3.178  0.2801  1.1621 -0.7811
59044SOL     OW89110   8.431   3.597  11.105 -0.0261 -0.6241 -0.0927
59044SOL    HW189111   8.428   3.535  11.032  0.8039 -1.9186  0.9216
59044SOL    HW289112   8.451   3.543  11.181  0.4610  0.8786  0.8880
59045SOL     OW89113   7.859  12.527  12.927 -0.0042 -0.2004  0.4663
59045SOL    HW189114   7.873  12.533  12.833 -0.7879  0.7723  0.3956
59045SOL    HW289115   7.861  12.618  12.958  0.0760 -0.4911  1.3660
59046SOL     OW89116   4.152   3.577   4.476 -0.1348  0.2208  0.2728
59046SOL    HW189117   4.152   3.483   4.495 -1.1289  0.4631  1.5930
59046SOL    HW289118   4.236   3.592   4.433  0.0459 -1.2724  0.0438
59047SOL     OW89119   2.327   1.714   6.954  0.3878  0.0090 -0.0263
59047SOL    HW189120   2.295   1.628   6.980  1.7871 -0.5788 -0.1414
59047SOL    HW289121   2.384   1.741   7.026 -0.3301  1.0290  0.1851
59048SOL     OW89122   4.372   7.135   4.065  0.1551  0.7111 -0.2646
59048SOL    HW189123   4.427   7.092   4.130 -2.4078  0.7111  2.0671
59048SOL    HW289124   4.387   7.228   4.079  1.4510  0.7198 -1.4565
59049SOL     OW89125   2.311  10.351   5.179 -0.2926 -0.2668 -0.2343
59049SOL    HW189126   2.371  10.280   5.201  0.3495 -0.0055 -1.0940
59049SOL    HW289127   2.301  10.346   5.084 -1.8844 -0.4960 -0.0676
59050SOL     OW89128  13.282   4.633  10.356 -0.0202  0.3405 -0.2999
59050SOL    HW189129  13.366   4.660  10.318  0.3981  2.1637  1.7586
59050SOL    HW289130  13.220   4.639  10.283  0.9894  2.3706 -1.0768
59051SOL     OW89131   7.063   6.780   0.176 -0.0545 -0.4504  0.3215
59051SOL    HW189132   7.099   6.730   0.250 -0.7994 -0.1047  0.9366
59051SOL    HW289133   7.074   6.722   0.101 -0.6606 -1.4626  0.9748
59052SOL     OW89134  10.066  13.115   9.247  0.9530  0.2981  0.0758
59052SOL    HW189135  10.043  13.207   9.261 -0.6402  0.0006 -0.4529
59052SOL    HW289136  10.099  13.086   9.332 -2.5863  0.2245  1.5833
59053SOL     OW89137   1.190   4.137  13.272  0.5340 -0.1225 -0.1758
59053SOL    HW189138   1.097   4.154  13.284  0.6000  0.4768 -0.4794
59053SOL    HW289139   1.234   4.213  13.310  0.8461  0.3610 -1.4594
59054SOL     OW89140   8.330  11.673   4.345  0.7989 -0.3508 -0.1345
59054SOL    HW189141   8.346  11.603   4.409  0.7265  0.6578  1.0168
59054SOL    HW289142   8.236  11.673   4.331  0.7732 -0.3315  0.0416
59055SOL     OW89143   8.572  11.321   5.577 -0.3370 -0.6874  0.0781
59055SOL    HW189144   8.575  11.411   5.610  2.7692 -0.9777  0.8609
59055SOL    HW289145   8.598  11.329   5.485 -1.7784 -0.6536 -0.3508
59056SOL     OW89146   6.720  10.017   2.170 -0.3605 -0.0089  0.3472
59056SOL    HW189147   6.644   9.998   2.116 -0.0118 -2.2575  0.5324
59056SOL    HW289148   6.684  10.035   2.257 -0.7345 -0.4427  0.2888
59057SOL     OW89149   5.837  11.010  12.488  0.3601  0.1839 -0.2503
59057SOL    HW189150   5.894  11.077  12.450  0.0820  1.8834  2.0569
59057SOL    HW289151   5.749  11.038  12.463  0.2720  0.4674  0.3510
59058SOL     OW89152  10.450  13.446   3.495 -0.0457  0.1118 -0.5614
59058SOL    HW189153  10.508  13.500   3.442 -1.9140  1.1698 -1.6460
59058SOL    HW289154  10.465  13.475   3.585  0.0291  1.4316 -0.9812
59059SOL     OW89155   4.141   6.634   2.102  0.1425  0.5273  0.6240
59059SOL    HW189156   4.149   6.543   2.132  0.2428  0.8795  1.7158
59059SOL    HW289157   4.150   6.686   2.182  0.0073  1.4980  0.0195
59060SOL     OW89158   1.309   8.147   4.525 -0.0840  0.1064  0.0985
59060SOL    HW189159   1.394   8.192   4.527 -0.1367  0.3259 -1.5000
59060SOL    HW289160   1.314   8.089   4.449 -0.0566 -2.6184  2.0533
59061SOL     OW89161  13.182  13.609  10.814 -0.6501 -0.5062  0.3903
59061SOL    HW189162  13.263  13.565  10.787 -1.8692 -1.1225 -2.6139
59061SOL    HW289163  13.113  13.566  10.763 -2.5168  1.8327  0.7914
59062SOL     OW89164   3.015   3.640   8.790  0.3930  0.0532  0.0844
59062SOL    HW189165   3.081   3.613   8.726  1.0664  0.9951  0.3633
59062SOL    HW289166   3.064   3.691   8.855 -0.5418  0.4413  0.4989
59063SOL     OW89167  10.550   6.276   1.736 -0.1513  0.0573  0.0962
59063SOL    HW189168  10.624   6.273   1.675  1.2733  2.1503  1.5524
59063SOL    HW289169  10.531   6.185   1.755  2.1164 -0.5715 -0.3117
59064SOL     OW89170   8.956   2.300  13.213  0.0115 -0.2080 -0.1654
59064SOL    HW189171   8.882   2.286  13.271  0.4120  0.8071  0.6168
59064SOL    HW289172   9.018   2.230  13.236 -0.4208 -0.6684 -0.3810
59065SOL     OW89173   7.182   3.671   5.535  0.5222 -0.4695 -0.1336
59065SOL    HW189174   7.156   3.629   5.453  1.1915 -0.4620 -0.3591
59065SOL    HW289175   7.268   3.709   5.516  0.3959  0.0957  0.3808
59066SOL     OW89176  12.067  12.698   8.806  0.2320  0.5056 -0.4707
59066SOL    HW189177  11.975  12.724   8.819  0.1496  1.5762 -2.7936
59066SOL    HW289178  12.062  12.616   8.757  0.4617  1.4881 -2.2098
59067SOL     OW89179   9.499   8.078  13.814  0.6008 -0.7614  0.2108
59067SOL    HW189180   9.577   8.072  13.870  1.0198 -0.8871 -0.3733
59067SOL    HW289181   9.496   8.171  13.788 -0.1704 -0.4836  1.2342
59068SOL     OW89182   5.999   9.481   7.311  0.1955  0.4723 -0.1441
59068SOL    HW189183   5.986   9.570   7.346  2.2028  0.8463 -0.2638
59068SOL    HW289184   6.007   9.494   7.217  0.5548  0.1677 -0.1549
59069SOL     OW89185  11.387   3.923   9.840  0.7029  0.3669 -0.5914
59069SOL    HW189186  11.369   4.016   9.830 -0.2191  0.4683  1.5322
59069SOL    HW289187  11.315   3.880   9.795 -1.2992  0.7602  2.0395
59070SOL     OW89188  12.072   5.001   9.752 -0.3472 -0.1705 -0.1593
59070SOL    HW189189  12.110   4.949   9.681  1.3379 -2.1217  2.0092
59070SOL    HW289190  12.121   5.083   9.750  0.1759 -0.4847 -0.8067
59071SOL     OW89191   0.067   4.382  13.822 -0.1643 -0.0731 -0.4477
59071SOL    HW189192  -0.020   4.343  13.817 -0.9240  1.4835  0.1781
59071SOL    HW289193   0.065   4.436  13.901  1.1902  0.4329 -0.7320
59072SOL     OW89194   0.744   8.932  10.918 -0.3830 -0.0063  0.1977
59072SOL    HW189195   0.769   8.974  10.835  1.9715 -1.1706  0.2553
59072SOL    HW289196   0.767   8.996  10.985 -3.1865  1.3570  0.0468
59073SOL     OW89197   9.459  11.930   7.690 -0.3776 -0.1684  0.5236
59073SOL    HW189198   9.416  11.924   7.775  2.0955 -0.5639  1.8380
59073SOL    HW289199   9.409  11.871   7.633 -1.0774 -1.1925  2.1453
59074SOL     OW89200   0.442   9.677  10.408  0.5345 -0.4540  0.2164
59074SOL    HW189201   0.419   9.749  10.467  1.8751 -0.2076  0.4761
59074SOL    HW289202   0.459   9.719  10.324 -0.0606 -0.6429  0.0004
59075SOL     OW89203   9.767   6.330   4.371  0.2710 -0.1182  0.0797
59075SOL    HW189204   9.684   6.286   4.354 -0.5478 -0.3409  3.8123
59075SOL    HW289205   9.802   6.350   4.284 -3.6644  0.0153 -1.6934
59076SOL     OW89206   5.470   0.626   9.765 -0.1399 -0.4046 -0.4336
59076SOL    HW189207   5.542   0.587   9.715  0.6586 -2.5738  2.1598
59076SOL    HW289208   5.511   0.660   9.845 -1.7663 -0.2199  0.3787
59077SOL     OW89209   3.903  11.342   4.659  0.3318  0.1287 -0.2853
59077SOL    HW189210   3.958  11.413   4.693  0.4968  0.0799 -0.4472
59077SOL    HW289211   3.815  11.361   4.693  0.4041  0.3328 -0.2114
59078SOL     OW89212   7.243   8.297   4.818 -0.9643 -0.1181  0.1214
59078SOL    HW189213   7.214   8.349   4.743  0.2483 -0.1631 -0.4113
59078SOL    HW289214   7.339   8.301   4.813 -0.8146 -2.4210  0.0537
59079SOL     OW89215  12.604   0.410   6.308  0.3327 -0.0981  0.0941
59079SOL    HW189216  12.550   0.433   6.233  0.5266 -0.5399 -0.1898
59079SOL    HW289217  12.694   0.426   6.279  0.4152 -0.3860  0.1870
59080SOL     OW89218   4.010   6.402   1.136 -0.0109 -0.1434 -0.1518
59080SOL    HW189219   4.028   6.341   1.208  0.7525 -2.7676 -2.3916
59080SOL    HW289220   4.097   6.429   1.105 -0.3116  2.9964  1.3632
59081SOL     OW89221   5.855  10.466  12.093 -0.0129  0.0641 -0.1338
59081SOL    HW189222   5.882  10.408  12.021  0.1497  2.9511 -2.5645
59081SOL    HW289223   5.937  10.499  12.129 -0.1062 -1.1590  1.3222
59082SOL     OW89224  10.924   5.770  12.181 -0.4871 -0.1390  0.0603
59082SOL    HW189225  10.873   5.718  12.244 -0.6145 -0.8206 -0.5928
59082SOL    HW289226  11.007   5.786  12.225 -1.1038  0.6490  0.9855
59083SOL     OW89227   9.370   7.399   9.513 -0.5935  0.4160 -0.1655
59083SOL    HW189228   9.328   7.467   9.462  1.8555  1.6595 -0.6748
59083SOL    HW289229   9.457   7.434   9.533 -0.5641 -1.0037  2.8161
59084SOL     OW89230   2.450   8.315   1.471 -0.9061 -0.3094 -0.0848
59084SOL    HW189231   2.465   8.393   1.523 -1.1722  0.3810 -1.0262
59084SOL    HW289232   2.538   8.279   1.456 -0.8524 -0.7116  1.1105
59085SOL     OW89233   3.364   4.102   4.788 -0.0497 -0.2508  0.5500
59085SOL    HW189234   3.404   4.084   4.872  1.2369 -1.2832 -0.2461
59085SOL    HW289235   3.426   4.160   4.743  0.5703 -1.7477 -0.6395
59086SOL     OW89236   4.646   9.046  14.044  0.2510 -0.2588  0.0868
59086SOL    HW189237   4.602   9.055  13.960  0.0774 -0.3247  0.1706
59086SOL    HW289238   4.635   9.132  14.086  1.7560  0.3184 -0.6380
59087SOL     OW89239   6.377   2.857  12.480 -0.1817 -0.0720 -0.0296
59087SOL    HW189240   6.461   2.896  12.504 -0.3848  0.4832 -0.1944
59087SOL    HW289241   6.398   2.795  12.410  0.5320 -2.3084  2.0416
59088SOL     OW89242   0.607   1.876  12.340 -0.3604 -0.3047  0.1995
59088SOL    HW189243   0.678   1.903  12.281 -2.9763  1.0732 -2.5935
59088SOL    HW289244   0.576   1.794  12.304 -1.6740  0.2984 -0.0990
59089SOL     OW89245  10.909   9.137   1.287 -0.2899  0.1158  0.1375
59089SOL    HW189246  10.866   9.076   1.227 -1.7656  0.5476  0.7082
59089SOL    HW289247  10.980   9.087   1.327  0.5387 -0.2683 -1.7196
59090SOL     OW89248  13.378   8.246   3.703  0.3765  0.4331 -0.0816
59090SOL    HW189249  13.367   8.157   3.668 -0.8318  1.2592 -1.9644
59090SOL    HW289250  13.442   8.287   3.646 -0.2764  1.2619 -0.2336
59091SOL     OW89251  12.384  13.097  12.806  0.1482 -0.1202  0.4485
59091SOL    HW189252  12.344  13.058  12.885 -0.1203 -1.9171 -0.5302
59091SOL    HW289253  12.456  13.039  12.784  0.9143  0.9778 -0.0324
59092SOL     OW89254   1.655   4.671   4.338 -0.0366 -0.1917  0.6163
59092SOL    HW189255   1.704   4.684   4.419  0.0972  2.4501  0.1855
59092SOL    HW289256   1.571   4.713   4.353 -0.1798 -0.0548 -0.4503
59093SOL     OW89257   0.358  11.448   3.279  0.0667 -0.0823 -0.2082
59093SOL    HW189258   0.341  11.531   3.325  2.0109 -0.7033  1.7820
59093SOL    HW289259   0.380  11.475   3.190  0.8028  1.5778  0.4290
59094SOL     OW89260   0.832   6.634   4.372  0.2641  0.3291 -0.3710
59094SOL    HW189261   0.840   6.689   4.295 -0.8762 -0.2777 -0.9465
59094SOL    HW289262   0.852   6.692   4.446 -0.1698  1.3056 -1.0057
59095SOL     OW89263   3.040   0.720   3.198  0.0443 -0.0217 -0.4757
59095SOL    HW189264   3.110   0.785   3.197  0.2412 -0.1939  0.7589
59095SOL    HW289265   3.085   0.635   3.197 -0.2002 -0.1480 -1.6013
59096SOL     OW89266  11.375   8.152   6.452  0.1224  0.3976 -0.1089
59096SOL    HW189267  11.450   8.118   6.502  0.5309  1.5388  0.0834
59096SOL    HW289268  11.415   8.196   6.376 -0.3053  1.5743  0.3319
59097SOL     OW89269   2.094   8.701   0.619  0.9960  0.4303 -0.1070
59097SOL    HW189270   2.157   8.648   0.667  0.5747  0.3250  0.3334
59097SOL    HW289271   2.011   8.653   0.627  0.8744  0.5202 -0.7565
59098SOL     OW89272   9.755   0.457   3.386  0.6489 -0.0691 -0.0771
59098SOL    HW189273   9.732   0.372   3.348 -1.0133  0.0961  0.4506
59098SOL    HW289274   9.782   0.510   3.312 -0.4586 -0.4022 -0.7442
59099SOL     OW89275   9.696   0.874  11.154 -0.1665 -0.4614  0.2936
59099SOL    HW189276   9.707   0.798  11.096  2.1092  1.1709 -1.6288
59099SOL    HW289277   9.707   0.839  11.242 -0.7475 -2.6023 -0.4328
59100SOL     OW89278   5.085   5.652   0.633  0.1970  0.0211  0.1654
59100SOL    HW189279   5.102   5.688   0.546 -1.9702  0.0571 -0.3001
59100SOL    HW289280   4.991   5.634   0.634  0.2369 -0.3915  2.3598
59101SOL     OW89281  11.158   7.102   3.824 -0.0527 -0.4194 -0.1252
59101SOL    HW189282  11.247   7.088   3.855  0.0046 -1.1099 -0.5765
59101SOL    HW289283  11.104   7.041   3.874 -0.1019 -0.8289 -0.6719
59102SOL     OW89284   8.687   5.609   9.261 -0.0083  0.3663  0.1949
59102SOL    HW189285   8.673   5.550   9.335  1.8327  0.9720  1.0909
59102SOL    HW289286   8.604   5.610   9.214 -0.4525 -1.9694  0.8427
59103SOL     OW89287  10.237   1.523  13.200 -0.1807  0.4989 -0.1486
59103SOL    HW189288  10.215   1.495  13.111 -0.6744  1.0550 -0.2113
59103SOL    HW289289  10.264   1.615  13.189 -0.2607  0.5718  0.2760
59104SOL     OW89290   9.253  12.245   4.835  0.0835  0.1689 -0.1636
59104SOL    HW189291   9.201  12.257   4.914  1.5711  0.9957  0.7343
59104SOL    HW289292   9.282  12.333   4.811 -0.7474  0.0038 -1.9546
59105SOL     OW89293   8.127   5.434   9.173  0.1192  0.1354 -0.1095
59105SOL    HW189294   8.200   5.374   9.156  0.3075  0.7471 -1.6705
59105SOL    HW289295   8.050   5.389   9.138 -0.0047  0.1454  0.1438
59106SOL     OW89296  10.364   6.435  11.689 -0.0323 -0.2646 -0.0311
59106SOL    HW189297  10.369   6.444  11.594  0.0435 -0.4295 -0.0441
59106SOL    HW289298  10.328   6.518  11.720 -0.6242 -0.4288 -0.2559
59107SOL     OW89299   1.486   6.384  12.398  0.5821  0.0397  0.4495
59107SOL    HW189300   1.514   6.475  12.405 -0.9935  0.7580 -1.4971
59107SOL    HW289301   1.560   6.338  12.359  0.1169  1.3439 -2.1682
59108SOL     OW89302   2.920   9.544  10.677  0.4308  0.7501 -0.7041
59108SOL    HW189303   2.934   9.550  10.771  0.9576  1.5091 -0.8237
59108SOL    HW289304   2.897   9.634  10.650  0.3514  0.5556 -1.3058
59109SOL     OW89305  13.660  12.569   6.004  0.2109 -0.3879 -0.1738
59109SOL    HW189306  13.667  12.477   5.982  2.2771 -0.1253 -0.8880
59109SOL    HW289307  13.750  12.602   5.996 -0.2349  1.3799  1.4143
59110SOL     OW89308   7.203   5.172   0.667 -0.4361 -0.0738  0.2311
59110SOL    HW189309   7.299   5.176   0.668 -0.4602  0.7568  1.3725
59110SOL    HW289310   7.179   5.208   0.582  0.2672 -1.2321 -0.5062
59111SOL     OW89311  12.919   2.301   3.333  0.1601  0.3359  0.4709
59111SOL    HW189312  12.916   2.227   3.271  0.0951  1.2445 -0.6455
59111SOL    HW289313  12.968   2.267   3.408  2.2706 -0.1253 -1.0182
59112SOL     OW89314   0.887   6.469   1.039  0.1847  0.3817 -0.4687
59112SOL    HW189315   0.931   6.441   1.119  1.1328  0.5392 -0.9181
59112SOL    HW289316   0.835   6.393   1.012  1.9082 -0.6378 -1.0977
59113SOL     OW89317   7.994   1.962   6.580  0.4549 -0.6744 -0.6602
59113SOL    HW189318   7.980   2.057   6.576  2.0182 -0.3786  0.2080
59113SOL    HW289319   8.031   1.940   6.494 -0.1608 -0.5537 -0.9629
59114SOL     OW89320   0.513   1.439  10.585  0.0768  0.3099 -0.4543
59114SOL    HW189321   0.507   1.485  10.669  1.5665  0.0825 -0.1868
59114SOL    HW289322   0.501   1.507  10.520  0.7224  0.8263 -0.0516
59115SOL     OW89323   9.769   6.691  11.078  0.1141 -0.1039  0.1184
59115SOL    HW189324   9.675   6.703  11.089 -0.4046 -3.2696  0.0194
59115SOL    HW289325   9.804   6.691  11.167  0.1179  1.3736  0.1413
59116SOL     OW89326   3.833   9.368  12.840 -0.4091  0.0893 -0.3367
59116SOL    HW189327   3.860   9.343  12.751 -1.1954  1.3386 -0.9523
59116SOL    HW289328   3.912   9.403  12.881 -0.7158  2.6116 -1.7101
59117SOL     OW89329  10.425  11.610   3.350  0.4104 -0.6568  0.3453
59117SOL    HW189330  10.506  11.594   3.399  1.2328  2.6598  0.2563
59117SOL    HW289331  10.370  11.659   3.410 -0.1589  0.0647 -0.7479
59118SOL     OW89332  12.502   6.654   4.696 -0.8133  0.7739  0.5098
59118SOL    HW189333  12.512   6.663   4.602  0.2640  1.1089  0.6434
59118SOL    HW289334  12.418   6.610   4.707 -0.1148 -0.9672 -0.6789
59119SOL     OW89335   4.260  12.452  12.293 -0.1647  0.2253  0.3442
59119SOL    HW189336   4.269  12.536  12.339 -0.5683  1.5921 -1.8884
59119SOL    HW289337   4.178  12.460  12.245 -0.3266 -1.5780  0.2504
59120SOL     OW89338   7.099   3.880  11.302  0.0669  0.2497  0.2341
59120SOL    HW189339   7.043   3.956  11.319 -1.2500 -0.7981  0.6895
59120SOL    HW289340   7.045   3.822  11.249  0.9906 -0.4649  0.0632
59121SOL     OW89341   9.698  13.926   1.818 -0.1415  0.2409  0.8278
59121SOL    HW189342   9.667  13.848   1.864 -5.0901  0.2836 -1.7943
59121SOL    HW289343   9.730  13.893   1.734 -2.0878  0.8418 -0.2194
59122SOL     OW89344  12.425  11.556   4.480 -0.0701  0.4403 -0.8045
59122SOL    HW189345  12.495  11.526   4.539 -1.2127  0.4907  0.6419
59122SOL    HW289346  12.411  11.647   4.503 -0.0701  0.6624 -1.6562
59123SOL     OW89347  13.681  10.254  13.299 -0.4128 -1.1364  0.2587
59123SOL    HW189348  13.587  10.240  13.307 -0.6228  0.2065  0.4519
59123SOL    HW289349  13.699  10.245  13.205 -0.5976 -2.0982  0.3099
59124SOL     OW89350   5.042   1.291   3.235  0.4065 -0.1992  0.1114
59124SOL    HW189351   5.022   1.384   3.226 -0.8462 -0.4625 -0.0460
59124SOL    HW289352   5.134   1.284   3.211 -0.0524  0.6769 -2.1396
59125SOL     OW89353  13.145  12.245   9.157  0.4252  0.0084  0.3343
59125SOL    HW189354  13.228  12.282   9.129  0.6695  0.9328  2.1255
59125SOL    HW289355  13.165  12.196   9.237 -0.1921 -2.7306 -1.0603
59126SOL     OW89356   8.437  10.219   1.399  0.5985  0.1581 -0.4347
59126SOL    HW189357   8.408  10.234   1.309 -0.7032 -0.3008 -0.1150
59126SOL    HW289358   8.449  10.307   1.436 -0.4665  0.3818 -0.5773
59127SOL     OW89359   9.245   7.356   2.640 -0.3254  0.2670  0.0373
59127SOL    HW189360   9.309   7.366   2.570 -0.3482  0.6352  0.0695
59127SOL    HW289361   9.246   7.262   2.660  1.3108  0.4527  1.0805
59128SOL     OW89362  11.657   6.629   2.392 -0.0027  0.4829 -0.6448
59128SOL    HW189363  11.697   6.646   2.306 -0.1399  1.8880 -0.4562
59128SOL    HW289364  11.716   6.566   2.433  1.3417  1.5241 -0.8880
59129SOL     OW89365  13.190  13.864   1.946 -0.5596  0.2305  0.6746
59129SOL    HW189366  13.196  13.955   1.917  1.2786  0.0526  0.3589
59129SOL    HW289367  13.193  13.813   1.865 -1.0617 -0.1244  0.8773
59130SOL     OW89368  13.897   0.616   5.372 -0.1560  0.5375 -0.2490
59130SOL    HW189369  13.824   0.555   5.369 -0.0355  0.3847 -0.0872
59130SOL    HW289370  13.926   0.614   5.463  0.6757 -0.1362 -0.5261
59131SOL     OW89371  13.163   2.554  11.553 -0.1722  0.1122 -0.0058
59131SOL    HW189372  13.159   2.472  11.601  0.0976 -0.4320 -0.8850
59131SOL    HW289373  13.177   2.621  11.620 -0.2268 -0.5749  0.7006
59132SOL     OW89374   8.400   8.305  11.306 -0.1742  0.8534 -0.4739
59132SOL    HW189375   8.459   8.332  11.376 -0.3603  1.3774 -0.5146
59132SOL    HW289376   8.457   8.269  11.239 -0.0664 -0.5975  0.3647
59133SOL     OW89377   8.402   6.389   0.814  0.2906  0.0514 -0.5817
59133SOL    HW189378   8.366   6.456   0.871  0.3765 -0.9727  0.7177
59133SOL    HW289379   8.440   6.324   0.873 -1.6612 -2.2403 -1.6532
59134SOL     OW89380   9.490   2.970   1.343  0.5128  0.3287  0.1876
59134SOL    HW189381   9.477   2.891   1.291  1.1362 -0.3380  1.0256
59134SOL    HW289382   9.546   3.026   1.288  0.2168  0.1252 -0.3276
59135SOL     OW89383  10.955   0.419   1.658 -0.0911  0.3374 -0.5704
59135SOL    HW189384  10.946   0.477   1.582 -2.2968  0.6580 -0.1331
59135SOL    HW289385  10.995   0.474   1.725  1.3547  0.2141 -1.3084
59136SOL     OW89386   3.470   2.337  11.860 -0.2736 -0.1259 -0.4064
59136SOL    HW189387   3.531   2.405  11.830 -1.1189  1.8125  1.9773
59136SOL    HW289388   3.525   2.276  11.909 -0.0164  0.9285  0.6577
59137SOL     OW89389  10.152   9.997   0.436 -0.0355  0.3495 -0.2477
59137SOL    HW189390  10.108  10.074   0.402  0.5728  1.5365  1.5008
59137SOL    HW289391  10.082   9.943   0.474 -0.4124  0.2420 -1.0859
59138SOL     OW89392  14.031  10.407   8.063 -0.0127  0.3090  0.1210
59138SOL    HW189393  14.047  10.315   8.046  0.7543  0.2477  1.0868
59138SOL    HW289394  13.949  10.427   8.016 -0.8587 -1.1578  0.9294
59139SOL     OW89395   0.752   9.759   7.706  0.5689 -0.1285 -0.0980
59139SOL    HW189396   0.719   9.698   7.771 -0.0596 -0.5732 -0.8126
59139SOL    HW289397   0.820   9.808   7.751 -2.2194  2.0992  2.0540
59140SOL     OW89398   5.167  13.295  11.850  0.2612 -0.0091 -0.2970
59140SOL    HW189399   5.254  13.257  11.865  1.0235  1.9589  0.5866
59140SOL    HW289400   5.110  13.248  11.912  0.9876 -0.3078  0.1647
59141SOL     OW89401   1.497  10.881   1.626 -0.0782  0.1713  0.6446
59141SOL    HW189402   1.582  10.869   1.583 -0.1491 -1.4139  0.8940
59141SOL    HW289403   1.442  10.923   1.559  0.7487  0.7619  0.3167
59142SOL     OW89404   4.409   4.067   2.558 -0.1335 -0.0711 -0.0337
59142SOL    HW189405   4.479   4.039   2.499  0.7454 -0.4436  1.1405
59142SOL    HW289406   4.379   4.150   2.522 -0.6521 -0.9873 -1.8312
59143SOL     OW89407   0.469   7.448   5.056 -0.1185 -1.0433  1.1368
59143SOL    HW189408   0.409   7.494   4.997  2.5692  0.8770 -0.2894
59143SOL    HW289409   0.519   7.390   4.999  1.0242 -0.7840  1.8376
59144SOL     OW89410   0.257   2.724   4.111  0.2886 -0.5574  0.3069
59144SOL    HW189411   0.298   2.638   4.116  0.3290 -0.4985  1.1716
59144SOL    HW289412   0.235   2.735   4.018 -0.8623 -2.0405  0.3669
59145SOL     OW89413   3.126   2.596  10.024 -0.2466  0.0655 -0.1500
59145SOL    HW189414   3.104   2.689  10.018  0.2251  0.1568 -0.5401
59145SOL    HW289415   3.198   2.585   9.961 -0.8426 -0.7300 -0.7080
59146SOL     OW89416   2.766   5.432   7.579  0.0432 -0.2902  0.3851
59146SOL    HW189417   2.718   5.351   7.559  2.0960 -1.0705 -1.8351
59146SOL    HW289418   2.723   5.498   7.525  0.9358 -0.8455 -1.0708
59147SOL     OW89419   3.621   0.049   5.146 -0.4769 -0.1791  0.5622
59147SOL    HW189420   3.584   0.040   5.059 -0.4049  2.2718  0.2224
59147SOL    HW289421   3.702  -0.002   5.143 -0.5866 -0.3020 -0.7213
59148SOL     OW89422  12.536   5.267   3.222  0.5363  0.0426 -0.1308
59148SOL    HW189423  12.512   5.324   3.148  0.8494  0.5663  0.1644
59148SOL    HW289424  12.474   5.195   3.217 -0.3703  0.7990 -0.0620
59149SOL     OW89425   9.184   9.163   5.966 -0.0794 -0.6189  0.1395
59149SOL    HW189426   9.208   9.255   5.955 -0.3317 -0.4972  0.5957
59149SOL    HW289427   9.089   9.164   5.977 -0.6001 -1.2516 -3.3333
59150SOL     OW89428   6.937  11.538   7.756  0.1632  0.2172  0.0496
59150SOL    HW189429   6.891  11.538   7.840 -0.1748  0.3978 -0.1329
59150SOL    HW289430   6.987  11.620   7.757 -1.6963  1.4357 -0.9133
59151SOL     OW89431   3.545   4.415   9.804 -0.1891  0.3653  0.0816
59151SOL    HW189432   3.522   4.508   9.816 -1.3420  0.3978 -1.9031
59151SOL    HW289433   3.623   4.417   9.749  0.3688  0.1435  0.8491
59152SOL     OW89434   5.924   8.475  11.747  0.5862 -0.0586 -0.3257
59152SOL    HW189435   5.886   8.413  11.684 -1.0539  2.4525 -2.0396
59152SOL    HW289436   5.854   8.538  11.763  1.8364  0.8348  2.1042
59153SOL     OW89437   9.837   4.386   3.301 -0.5053 -0.5353 -0.0680
59153SOL    HW189438   9.756   4.346   3.330 -0.3445 -0.7981  0.0179
59153SOL    HW289439   9.896   4.378   3.375 -0.5869  0.1931  0.0880
59154SOL     OW89440   9.096   3.040  10.161  0.0345 -0.6530  0.4403
59154SOL    HW189441   9.076   3.079  10.246  0.8839  0.3904  0.1732
59154SOL    HW289442   9.150   3.105  10.117  0.7176 -1.7512 -0.3777
59155SOL     OW89443   5.024   1.398   0.799 -0.1407 -0.0044  0.2224
59155SOL    HW189444   4.957   1.330   0.801 -0.6148  0.2960 -2.2899
59155SOL    HW289445   5.061   1.393   0.711  0.9185  1.9695  0.4913
59156SOL     OW89446  10.700   9.865  13.630  0.2935  0.2828 -0.2087
59156SOL    HW189447  10.736   9.948  13.599  1.1242 -0.5694 -1.6618
59156SOL    HW289448  10.639   9.889  13.699  1.5032  2.0053  0.3246
59157SOL     OW89449  11.551  12.171   6.984  0.0562  0.3856 -0.0222
59157SOL    HW189450  11.568  12.203   7.072  2.6051  1.9455 -0.9708
59157SOL    HW289451  11.607  12.094   6.975  0.0263  0.4053 -0.3885
59158SOL     OW89452   9.167   5.445   4.584 -0.6248  0.5341  0.2623
59158SOL    HW189453   9.177   5.350   4.582  2.1326  0.7505 -0.8953
59158SOL    HW289454   9.212   5.472   4.664 -1.0538  0.9142  0.3800
59159SOL     OW89455  13.245  10.272   5.094  0.6390  0.0924  0.2161
59159SOL    HW189456  13.211  10.206   5.033 -0.6963 -0.1289  1.1629
59159SOL    HW289457  13.242  10.230   5.179 -1.4324  1.7481  1.0376
59160SOL     OW89458   1.778   8.682   2.842 -0.0525  0.2407 -0.1024
59160SOL    HW189459   1.874   8.677   2.843  0.0692  1.3735 -2.1952
59160SOL    HW289460   1.758   8.769   2.875 -0.2685  0.5974 -1.1434
59161SOL     OW89461  10.154   5.672   7.963 -0.2450  0.3577 -0.4840
59161SOL    HW189462  10.172   5.762   7.937 -1.6867  0.6677 -0.4760
59161SOL    HW289463  10.140   5.677   8.057  2.1572 -0.3097 -0.0340
59162SOL     OW89464   5.174   6.709   9.443  0.2393 -0.1177  0.0191
59162SOL    HW189465   5.258   6.748   9.466  0.1756 -0.9268  1.7950
59162SOL    HW289466   5.185   6.615   9.460 -0.3147 -0.6090 -1.9964
59163SOL     OW89467   4.785   7.402   0.909  0.2836 -0.6581 -0.1053
59163SOL    HW189468   4.755   7.390   0.999 -0.6475 -2.4490 -0.6168
59163SOL    HW289469   4.766   7.319   0.866  2.4614 -0.5061 -1.4922
59164SOL     OW89470  11.678   0.714   3.284  0.1544  0.2699 -0.2307
59164SOL    HW189471  11.681   0.809   3.296 -3.9219  0.6352 -0.7666
59164SOL    HW289472  11.699   0.678   3.371  1.7487  1.5884 -0.0263
59165SOL     OW89473   0.920   5.101  13.266 -0.3198 -0.3648 -0.3862
59165SOL    HW189474   0.851   5.147  13.315 -1.7674  0.9587 -3.4364
59165SOL    HW289475   0.889   5.011  13.260 -0.7501 -0.2483  0.0312
59166SOL     OW89476   4.361   4.317   3.941  0.4609 -0.0602 -0.1461
59166SOL    HW189477   4.369   4.235   3.891 -0.0256 -0.5575  0.5689
59166SOL    HW289478   4.375   4.386   3.877  0.1832 -0.6910 -0.8985
59167SOL     OW89479   3.635  13.547  12.893  0.7375  0.7542 -0.5584
59167SOL    HW189480   3.730  13.554  12.889  0.9426 -0.1258  1.3855
59167SOL    HW289481   3.610  13.607  12.963 -0.0018  0.0995 -0.2467
59168SOL     OW89482   8.797   7.419  12.936  0.1308 -0.0762  0.0385
59168SOL    HW189483   8.780   7.492  12.995  0.5601 -0.2810  0.4176
59168SOL    HW289484   8.793   7.341  12.991 -1.2438 -0.4468 -0.5187
59169SOL     OW89485   3.432   5.129   7.179 -0.5720  0.0652  0.2628
59169SOL    HW189486   3.472   5.186   7.245  1.0498 -2.6860  1.8597
59169SOL    HW289487   3.354   5.094   7.221 -0.9457  0.2287 -0.2820
59170SOL     OW89488  13.787   4.887   8.986 -0.0702  0.0752  0.3497
59170SOL    HW189489  13.719   4.946   8.953  0.0825 -0.4837 -1.0398
59170SOL    HW289490  13.777   4.807   8.934  2.0006  0.1794 -0.2819
59171SOL     OW89491   9.862  13.104   3.220 -0.0200  0.0348 -0.6206
59171SOL    HW189492   9.952  13.134   3.206  0.1351 -0.7293 -1.4435
59171SOL    HW289493   9.809  13.160   3.164  0.2354 -0.9892 -1.9388
59172SOL     OW89494   0.285   9.580   6.989  0.2713  0.3179 -0.9906
59172SOL    HW189495   0.369   9.572   6.944  1.1906 -2.6026  0.9738
59172SOL    HW289496   0.227   9.521   6.941  0.5354 -0.8404  0.0958
59173SOL     OW89497   5.272   6.170   1.696 -0.1257  0.4415 -0.2345
59173SOL    HW189498   5.307   6.207   1.616  2.2871 -1.3250 -0.1081
59173SOL    HW289499   5.205   6.108   1.666 -1.7579  2.2852 -0.6037
59174SOL     OW89500   7.920   2.482   0.658  0.0089  0.2214  0.4251
59174SOL    HW189501   7.940   2.548   0.592  0.0350 -0.8394 -0.6526
59174SOL    HW289502   8.005   2.448   0.684 -0.0952 -1.8842 -1.6689
59175SOL     OW89503   1.792   4.664   2.795 -0.3340  0.6756  0.6368
59175SOL    HW189504   1.790   4.628   2.883 -1.4239 -3.2918 -0.7964
59175SOL    HW289505   1.852   4.607   2.746  0.9897  3.3172 -1.0448
59176SOL     OW89506  10.600   9.561   8.686 -0.4955 -0.3828 -0.5142
59176SOL    HW189507  10.536   9.499   8.650 -0.9038  0.9059 -2.1479
59176SOL    HW289508  10.667   9.568   8.619 -0.3747  0.7946 -0.2933
59177SOL     OW89509  11.721  13.722   0.175 -0.1091  0.2318 -0.7686
59177SOL    HW189510  11.686  13.719   0.264  0.0880 -0.8555 -0.7095
59177SOL    HW289511  11.690  13.641   0.134  2.4887 -0.9398 -0.6179
59178SOL     OW89512  13.472   0.969   2.969 -0.2266  0.2406 -0.0607
59178SOL    HW189513  13.526   1.043   2.942 -0.3382 -0.1201 -1.3010
59178SOL    HW289514  13.388   0.981   2.925 -1.0360  0.5429  1.4844
59179SOL     OW89515   4.754  11.928  13.076  0.1297  0.4363 -0.3185
59179SOL    HW189516   4.782  11.848  13.030  0.7992  1.0444 -1.0144
59179SOL    HW289517   4.659  11.931  13.064 -0.0189 -0.6967  0.4580
59180SOL     OW89518   6.668  11.452   6.629  0.1657 -0.6959 -0.4704
59180SOL    HW189519   6.727  11.500   6.571  0.6819  0.4736  0.9550
59180SOL    HW289520   6.593  11.429   6.574  1.3607 -1.0927 -1.9905
59181SOL     OW89521   1.232  11.039   2.985 -0.2527 -0.8797 -0.2726
59181SOL    HW189522   1.279  11.021   2.904  3.0487 -2.0599  1.6919
59181SOL    HW289523   1.273  11.118   3.019 -2.2248  0.1393 -0.1116
59182SOL     OW89524  10.805   1.872  13.396 -0.4687  0.2830  0.3337
59182SOL    HW189525  10.863   1.923  13.339 -0.0123 -1.6529 -1.0389
59182SOL    HW289526  10.719   1.913  13.385 -0.1072  0.7899 -0.7099
59183SOL     OW89527   0.569   4.916   4.122 -0.6789  0.4038  0.0152
59183SOL    HW189528   0.591   5.002   4.086  0.7285 -0.1754 -0.5740
59183SOL    HW289529   0.474   4.911   4.115 -0.8179  2.0663  0.4190
59184SOL     OW89530   2.482   6.187   6.914 -0.4950 -0.0833  0.8737
59184SOL    HW189531   2.466   6.181   6.820  0.8809 -3.6110  0.6962
59184SOL    HW289532   2.570   6.222   6.922 -0.0799 -1.0708  0.7424
59185SOL     OW89533  10.184   3.048  10.406  0.3552 -0.3203  0.2471
59185SOL    HW189534  10.177   3.026  10.313  0.1909 -1.9694  0.6158
59185SOL    HW289535  10.153   2.969  10.451  0.0850  0.5889  1.6980
59186SOL     OW89536   8.221  11.299   4.780  0.8040  0.0150 -0.3418
59186SOL    HW189537   8.275  11.233   4.824  1.1418 -0.5995 -1.6375
59186SOL    HW289538   8.222  11.374   4.840  2.3436 -0.3130  0.0898
59187SOL     OW89539   3.730   4.839   8.240  0.8197  0.5874 -0.7754
59187SOL    HW189540   3.799   4.895   8.206  0.0041  1.7746 -0.5553
59187SOL    HW289541   3.684   4.894   8.304  0.5933 -0.6648  0.1681
59188SOL     OW89542  10.706   5.728  12.754  0.4097  0.0276 -0.0734
59188SOL    HW189543  10.701   5.633  12.749  2.2239 -0.0983 -0.1123
59188SOL    HW289544  10.639   5.752  12.818 -1.9273 -1.0035 -1.9758
59189SOL     OW89545   8.068  12.377  10.056 -0.0898 -0.1887  0.3833
59189SOL    HW189546   8.163  12.371  10.049 -0.1838 -0.0193 -1.4199
59189SOL    HW289547   8.042  12.434   9.984 -1.5153  0.3410  1.2685
59190SOL     OW89548   0.868   9.926   4.044 -0.8560 -0.5645  0.4793
59190SOL    HW189549   0.849   9.833   4.034  0.1308 -0.8051  0.6770
59190SOL    HW289550   0.866   9.962   3.955  0.0857 -1.0664  0.2385
59191SOL     OW89551  13.412   0.529   5.560 -0.3965  0.7026 -0.5093
59191SOL    HW189552  13.321   0.546   5.584 -0.6044  0.5315 -1.1460
59191SOL    HW289553  13.463   0.569   5.629 -0.9776 -0.5678  0.7042
59192SOL     OW89554   8.774   3.130   9.095  0.3050  0.3560 -0.1509
59192SOL    HW189555   8.742   3.150   9.183 -0.7937 -0.3422 -0.3630
59192SOL    HW289556   8.733   3.197   9.040 -2.5720 -1.7079 -0.7166
59193SOL     OW89557   1.134  10.690   3.893 -0.4747  0.0439 -0.0681
59193SOL    HW189558   1.063  10.725   3.839  1.4119  1.2631 -1.8902
59193SOL    HW289559   1.119  10.595   3.892 -0.5859  0.0201 -2.6996
59194SOL     OW89560   2.829   4.218   1.671 -0.3759  0.5121  0.1975
59194SOL    HW189561   2.746   4.262   1.690 -1.0639 -1.2143  1.4900
59194SOL    HW289562   2.808   4.158   1.600 -0.4748 -0.5040  1.0621
59195SOL     OW89563  12.224   4.026   1.683 -0.4364  0.0217 -0.3837
59195SOL    HW189564  12.209   4.003   1.591 -1.0272  0.9844 -0.5488
59195SOL    HW289565  12.306   3.984   1.706 -0.8069 -1.1055 -1.0449
59196SOL     OW89566   6.237   4.619   2.052  0.3299 -0.3035  0.1737
59196SOL    HW189567   6.171   4.550   2.043  1.5256 -1.8867  2.6321
59196SOL    HW289568   6.215   4.664   2.133  0.8760  0.7921 -0.2559
59197SOL     OW89569   2.546   2.171  13.055  0.2858 -0.0934 -0.1778
59197SOL    HW189570   2.550   2.120  12.974  0.3546  0.2023 -0.3611
59197SOL    HW289571   2.605   2.125  13.114  1.4374  0.5530 -0.7881
59198SOL     OW89572   0.061   3.766  10.097  0.2135 -0.0977 -0.2109
59198SOL    HW189573   0.104   3.769  10.011 -0.2409  0.2682 -0.4308
59198SOL    HW289574  -0.030   3.789  10.079  0.0819 -0.1592  0.3540
59199SOL     OW89575   6.771  13.864   2.212 -0.1163 -0.3998  0.5825
59199SOL    HW189576   6.776  13.809   2.290  2.4674 -1.3411 -0.1378
59199SOL    HW289577   6.726  13.809   2.148  0.5306 -0.8595  0.5116
59200SOL     OW89578   5.110   2.304   0.438 -0.1213  0.3140 -0.2193
59200SOL    HW189579   5.204   2.287   0.447  0.1476  0.5033 -2.2942
59200SOL    HW289580   5.104   2.374   0.374 -1.6735  0.7882  0.4055
59201SOL     OW89581   3.995   4.923   5.022 -0.0330  0.0971 -0.0627
59201SOL    HW189582   3.952   4.975   5.090 -1.4076 -0.6907 -0.2918
59201SOL    HW289583   3.923   4.893   4.966  1.1157  1.2959 -2.2962
59202SOL     OW89584   7.325  11.477  10.270 -0.0494 -0.2610 -0.2359
59202SOL    HW189585   7.385  11.403  10.260 -0.2524 -0.7695  1.7627
59202SOL    HW289586   7.358  11.523  10.348 -3.2208 -1.6100  2.0830
59203SOL     OW89587   5.625  10.316   4.870 -0.3077 -0.2931 -0.9322
59203SOL    HW189588   5.533  10.323   4.897  0.3276  1.2078  1.0628
59203SOL    HW289589   5.648  10.405   4.841  0.4779 -0.7089 -1.6374
59204SOL     OW89590   1.807   5.546  13.870  0.1473  0.4118  0.4569
59204SOL    HW189591   1.807   5.551  13.774 -0.9258  1.8084  0.5005
59204SOL    HW289592   1.721   5.581  13.896  0.1841 -0.4852  1.9104
59205SOL     OW89593  12.863   8.660   5.283  0.3579 -0.4095 -0.4086
59205SOL    HW189594  12.823   8.746   5.295  1.3341 -0.0361  0.3915
59205SOL    HW289595  12.926   8.673   5.212 -0.2023 -0.7341 -0.9731
59206SOL     OW89596   2.248  13.224   3.357 -0.1107  0.5077  0.5180
59206SOL    HW189597   2.159  13.208   3.324  0.2249  1.8153 -1.1719
59206SOL    HW289598   2.238  13.295   3.420 -0.5904 -1.1816  2.4354
59207SOL     OW89599  10.186  12.520   9.828  0.4496  0.1035  0.1364
59207SOL    HW189600  10.268  12.567   9.842  1.4736 -1.5142 -0.2194
59207SOL    HW289601  10.171  12.475   9.911  2.0966 -2.7803 -0.9853
59208SOL     OW89602  12.411  12.177   5.476  0.2024  0.3609 -0.0170
59208SOL    HW189603  12.384  12.168   5.385  2.1430  1.1172 -0.7271
59208SOL    HW289604  12.444  12.090   5.500 -0.9828 -0.0357  0.2220
59209SOL     OW89605   4.505   5.976  11.850  0.4997 -0.3005 -0.1464
59209SOL    HW189606   4.461   6.052  11.811  0.1581 -0.0711  0.6722
59209SOL    HW289607   4.598   5.992  11.836  0.3979 -0.0355 -0.5261
59210SOL     OW89608   9.284   1.593   8.044 -0.3035  0.5748 -0.2062
59210SOL    HW189609   9.370   1.599   8.085 -0.0430  2.3361 -0.9576
59210SOL    HW289610   9.299   1.547   7.962 -0.4113 -0.6558  0.4218
59211SOL     OW89611   5.749   7.508  10.151  0.2938  0.6970  0.6693
59211SOL    HW189612   5.764   7.492  10.057 -1.1395 -0.3007  0.5861
59211SOL    HW289613   5.671   7.564  10.154 -0.0575  0.1865  1.2773
59212SOL     OW89614   0.482   2.906   7.718  0.7132  0.4605  0.0346
59212SOL    HW189615   0.518   2.883   7.632 -1.1006 -1.2738 -0.3500
59212SOL    HW289616   0.422   2.834   7.738 -0.7791  2.0705  1.6392
59213SOL     OW89617   9.603  13.140   0.871  0.2008 -0.7774 -0.0304
59213SOL    HW189618   9.522  13.107   0.911  0.3974  0.3987  1.3991
59213SOL    HW289619   9.577  13.222   0.828  0.6382 -0.3826  0.4538
59214SOL     OW89620  13.556   9.359   1.017  0.3032 -0.4864 -0.0502
59214SOL    HW189621  13.541   9.434   0.959  1.7620 -0.1141 -0.0057
59214SOL    HW289622  13.643   9.328   0.992 -0.4617 -2.4979 -0.4013
59215SOL     OW89623   6.104   2.590   0.576 -0.1591 -0.0025  0.6818
59215SOL    HW189624   6.126   2.604   0.668  0.0497 -0.1550  0.6576
59215SOL    HW289625   6.188   2.598   0.530 -0.3866  0.8726  0.4111
59216SOL     OW89626   9.607   7.387   2.065 -0.1289  0.7370 -0.0664
59216SOL    HW189627   9.599   7.383   1.969 -1.6711 -0.5898  0.0714
59216SOL    HW289628   9.638   7.300   2.090 -2.1414  0.2166  0.7933
59217SOL     OW89629   2.658   5.648   7.798 -0.7624  0.5570  0.1165
59217SOL    HW189630   2.685   5.661   7.708 -2.7862 -0.3431 -0.6725
59217SOL    HW289631   2.572   5.689   7.804 -0.7686  0.3900  1.5628
59218SOL     OW89632   0.979   0.477   4.059  0.4145 -0.5268 -0.5835
59218SOL    HW189633   0.940   0.507   4.142  1.4664 -0.8489  0.0420
59218SOL    HW289634   0.904   0.456   4.004 -0.4292  2.7636 -0.9025
59219SOL     OW89635   8.162  10.488   4.287 -0.3427 -0.6873  0.1162
59219SOL    HW189636   8.146  10.506   4.379  0.7009 -0.5846  0.2941
59219SOL    HW289637   8.215  10.561   4.257 -1.2274 -0.3814 -0.7520
59220SOL     OW89638   3.678  10.890   5.400 -0.3948 -0.1419  0.0828
59220SOL    HW189639   3.742  10.863   5.466 -0.1751 -2.5933 -1.0208
59220SOL    HW289640   3.599  10.909   5.450  0.1242 -0.7072  1.1600
59221SOL     OW89641   6.722   2.081  11.320 -0.1945 -0.0538  0.2678
59221SOL    HW189642   6.697   2.108  11.231  0.0024 -0.1228  0.1899
59221SOL    HW289643   6.794   2.140  11.343  1.2278 -1.4084 -0.4677
59222SOL     OW89644   8.748   3.054   0.940 -0.5017  0.2054  0.1555
59222SOL    HW189645   8.695   3.064   0.860 -1.3025 -1.2033  0.4601
59222SOL    HW289646   8.725   2.966   0.972 -0.2058  0.7395  1.9388
59223SOL     OW89647   1.570  11.818   7.130  0.1481  0.2900  0.6627
59223SOL    HW189648   1.651  11.776   7.102 -0.0758  0.9923 -1.2348
59223SOL    HW289649   1.501  11.768   7.086 -0.1857  1.8855 -0.7452
59224SOL     OW89650   5.166   5.123  13.391 -0.0915  0.2940 -0.0219
59224SOL    HW189651   5.138   5.041  13.430  0.4587 -0.9375 -2.0674
59224SOL    HW289652   5.251   5.142  13.431  0.6235 -1.1166 -0.7859
59225SOL     OW89653   6.546   1.958   3.451 -0.3263 -0.5582  0.3834
59225SOL    HW189654   6.638   1.934   3.452 -0.0099  0.5785  1.3037
59225SOL    HW289655   6.538   2.020   3.378 -1.0968 -3.0844 -1.8536
59226SOL     OW89656   3.350  13.795  10.521 -0.2093  0.2386 -0.5330
59226SOL    HW189657   3.407  13.735  10.473  0.2267 -0.6257  0.9951
59226SOL    HW289658   3.267  13.748  10.528 -0.2321  0.3048 -0.3514
59227SOL     OW89659   0.733   2.134  11.474  0.2839 -0.5508 -0.0002
59227SOL    HW189660   0.774   2.088  11.400  0.2791 -0.7784  0.1372
59227SOL    HW289661   0.704   2.063  11.532  0.4558 -0.3656  0.3092
59228SOL     OW89662   4.633   6.728   2.511  0.3351 -0.2714  0.6731
59228SOL    HW189663   4.644   6.821   2.493  1.7533 -0.4808  0.3663
59228SOL    HW289664   4.611   6.723   2.604  0.7135  0.3384  0.7967
59229SOL     OW89665   8.745   3.292   5.232  1.2459 -0.2953 -0.0095
59229SOL    HW189666   8.813   3.225   5.225  1.7028  0.0643  0.9360
59229SOL    HW289667   8.737   3.309   5.326  0.4149  0.2493 -0.1686
59230SOL     OW89668   0.143   3.697  13.512  0.1085  0.0169  0.2429
59230SOL    HW189669   0.061   3.736  13.482 -0.1913 -1.0796 -0.4251
59230SOL    HW289670   0.120   3.653  13.594  0.0612 -0.1758  0.1262
59231SOL     OW89671   3.697   7.144  11.775  0.5987  0.1187  0.2013
59231SOL    HW189672   3.630   7.140  11.706  1.0709 -1.3800 -0.2146
59231SOL    HW289673   3.652   7.111  11.853  0.4574  0.4590  0.2631
59232SOL     OW89674   4.369   0.616   3.030 -0.6732  0.1185  0.5409
59232SOL    HW189675   4.333   0.686   3.085 -0.4534 -1.3802  2.7093
59232SOL    HW289676   4.455   0.598   3.068 -1.3676 -2.3967  1.1371
59233SOL     OW89677   0.978  10.889   6.569  0.3789 -0.1840  0.2929
59233SOL    HW189678   0.891  10.922   6.546 -0.4403 -1.0737  1.9783
59233SOL    HW289679   1.020  10.961   6.615  0.4539  0.1591 -0.3024
59234SOL     OW89680   2.841   8.219   8.396 -0.4578  0.0166  0.1690
59234SOL    HW189681   2.864   8.307   8.367  1.3968  0.0903  1.6637
59234SOL    HW289682   2.921   8.168   8.383 -0.6976 -0.8120  1.7002
59235SOL     OW89683  10.771  13.800   0.025 -0.1020  0.3517  0.5927
59235SOL    HW189684  10.806  13.822  -0.061 -0.6484  0.5291  0.4158
59235SOL    HW289685  10.847  13.808   0.084  0.3715 -0.2111  0.0692
59236SOL     OW89686   4.923  10.686  12.899  0.0338  0.0760  0.4333
59236SOL    HW189687   4.862  10.615  12.919  1.0835 -0.8436  0.4163
59236SOL    HW289688   4.917  10.744  12.975  1.8300 -1.8994  2.2380
59237SOL     OW89689  13.863   0.951   7.967 -0.3452  0.0784 -0.5449
59237SOL    HW189690  13.868   1.040   7.933 -1.5202  0.5205  0.3801
59237SOL    HW289691  13.853   0.896   7.889  0.2719  0.7463 -1.1122
59238SOL     OW89692   8.552   7.631  12.143 -0.5820 -0.2102 -0.4629
59238SOL    HW189693   8.601   7.705  12.179 -1.3483  1.0701 -1.9623
59238SOL    HW289694   8.546   7.569  12.216 -1.1224  1.7962  1.2807
59239SOL     OW89695   3.164   8.537  10.393  0.5226 -0.6543 -0.1498
59239SOL    HW189696   3.090   8.508  10.446  1.1947 -0.0427  1.1690
59239SOL    HW289697   3.180   8.627  10.423  0.0633  0.2334 -2.3657
59240SOL     OW89698   5.053   6.033   6.295 -0.1204  0.5371 -0.2904
59240SOL    HW189699   5.110   5.969   6.336  0.0876  0.3636 -0.8308
59240SOL    HW289700   5.078   6.117   6.333  0.7129  0.5023 -0.7429
59241SOL     OW89701   9.339  12.397   7.555 -0.0173 -0.1057 -0.3432
59241SOL    HW189702   9.364  12.305   7.545 -1.3242 -0.5438  0.2130
59241SOL    HW289703   9.415  12.446   7.522  1.6627 -1.3278  1.4434
59242SOL     OW89704   2.869   9.137   1.580 -0.4615  0.3870  0.5821
59242SOL    HW189705   2.947   9.099   1.540  0.1259  2.2399 -0.1326
59242SOL    HW289706   2.844   9.074   1.648 -0.7517 -2.2291 -1.7795
59243SOL     OW89707  10.919  12.585   1.805  0.2899  0.6394  0.2002
59243SOL    HW189708  10.831  12.586   1.767  1.0079  0.8940 -1.5540
59243SOL    HW289709  10.941  12.677   1.819  0.3219  0.5791  0.5667
59244SOL     OW89710   9.754   0.339   9.702  0.0179  0.5705 -0.8105
59244SOL    HW189711   9.675   0.376   9.742  0.0142 -0.7564  0.5143
59244SOL    HW289712   9.814   0.324   9.776  0.2661 -1.3680 -1.3333
59245SOL     OW89713   4.213   3.056   0.384 -0.0144 -0.4062  0.4602
59245SOL    HW189714   4.236   3.133   0.435 -2.4608 -0.6413  2.0761
59245SOL    HW289715   4.251   3.072   0.297  0.1744  2.2674  0.9576
59246SOL     OW89716   8.677   6.110   3.880 -0.1662 -0.1897  0.3020
59246SOL    HW189717   8.714   6.118   3.792 -1.8332 -0.0200 -0.4199
59246SOL    HW289718   8.725   6.037   3.920  2.5076  1.4195  0.2977
59247SOL     OW89719   8.397  11.461  10.518  0.2626  0.0033  0.5529
59247SOL    HW189720   8.432  11.519  10.451  0.0343 -0.8074 -0.2851
59247SOL    HW289721   8.380  11.518  10.593 -0.5497  1.1406 -0.4567
59248SOL     OW89722   0.026   6.034   2.419 -0.0842  0.2476 -0.3561
59248SOL    HW189723   0.000   6.009   2.508 -0.0358  0.4277 -0.2922
59248SOL    HW289724   0.116   6.064   2.428 -0.3752  1.1415 -0.3054
59249SOL     OW89725   0.582   4.363  14.015  0.0914 -0.0958 -0.1977
59249SOL    HW189726   0.500   4.412  14.005 -1.8367 -2.9319  0.7206
59249SOL    HW289727   0.560   4.273  13.992  2.7727 -1.1245  0.8376
59250SOL     OW89728   6.295   0.161   8.103  0.3113 -0.3244  0.0245
59250SOL    HW189729   6.359   0.228   8.078  1.0862 -0.7187  0.8643
59250SOL    HW289730   6.278   0.178   8.195 -0.5756 -0.4245 -0.1119
59251SOL     OW89731  10.886   6.742  10.501  0.3195 -0.3800  0.6048
59251SOL    HW189732  10.913   6.753  10.410  0.1746  0.3755  0.6537
59251SOL    HW289733  10.834   6.662  10.501  1.9767 -1.5269  0.3926
59252SOL     OW89734  10.941   0.216   9.418 -0.4082  0.0504 -0.3984
59252SOL    HW189735  11.012   0.151   9.414  0.1587  0.6735 -0.7281
59252SOL    HW289736  10.865   0.167   9.450  0.6405 -0.2162  1.8371
59253SOL     OW89737   3.753   3.007   7.631 -0.6202 -0.3657 -0.3185
59253SOL    HW189738   3.795   2.929   7.668 -0.4283 -0.6588 -1.1185
59253SOL    HW289739   3.815   3.038   7.565 -0.1142  1.2413  0.8666
59254SOL     OW89740  11.920  11.719   4.424  0.4871  0.5267  0.3363
59254SOL    HW189741  11.977  11.643   4.412 -0.7429 -0.5018  0.7637
59254SOL    HW289742  11.959  11.787   4.370  0.8105 -0.8629 -1.2784
59255SOL     OW89743  11.729   2.173  13.241 -0.0074  0.1704 -0.6832
59255SOL    HW189744  11.676   2.165  13.161 -0.4887 -0.0534 -0.3448
59255SOL    HW289745  11.773   2.257  13.231 -1.4368  0.9997 -0.3798
59256SOL     OW89746   5.029   5.663   8.121  0.1521 -0.0483 -0.0519
59256SOL    HW189747   5.114   5.633   8.090  1.3201  0.4946  2.3953
59256SOL    HW289748   4.992   5.589   8.169 -0.0846  0.1733  0.1200
59257SOL     OW89749   4.838  10.745   7.573  0.4880  0.5713 -0.3957
59257SOL    HW189750   4.764  10.684   7.581 -0.0879  1.3014 -0.0398
59257SOL    HW289751   4.911  10.690   7.544  0.1926 -0.4486  0.7040
59258SOL     OW89752  11.069   4.688  13.369 -0.2298  0.0759 -0.1328
59258SOL    HW189753  11.015   4.765  13.382  0.8008  0.7549  0.2377
59258SOL    HW289754  11.159   4.720  13.372  0.2446 -1.2151  0.6636
59259SOL     OW89755   5.318  10.553   1.918 -0.2595  0.1489  0.5542
59259SOL    HW189756   5.315  10.641   1.879 -0.3518 -0.5872 -1.1481
59259SOL    HW289757   5.338  10.495   1.845  0.1565 -1.2302  1.7275
59260SOL     OW89758   0.373   9.505  11.035  0.8152  0.2090 -0.0380
59260SOL    HW189759   0.465   9.529  11.032  1.3632 -1.8233 -0.9850
59260SOL    HW289760   0.336   9.538  10.953  0.6683  1.0381  0.3496
59261SOL     OW89761   7.000  10.243   4.818  0.3794  0.7332  0.5784
59261SOL    HW189762   7.079  10.277   4.778  2.1904 -2.1395  1.4088
59261SOL    HW289763   7.016  10.250   4.913 -0.5332  0.4710  0.7655
59262SOL     OW89764   8.043   4.884   4.912 -0.4158  0.2738 -0.0210
59262SOL    HW189765   8.138   4.895   4.902 -0.3147 -0.7789 -0.4177
59262SOL    HW289766   8.010   4.878   4.823 -0.6211 -0.9571  0.1083
59263SOL     OW89767   9.267  10.441   8.776 -0.3422  0.1863  0.3572
59263SOL    HW189768   9.247  10.440   8.869 -0.9428 -2.4454  0.2891
59263SOL    HW289769   9.320  10.362   8.762  1.8257  1.7890 -1.1622
59264SOL     OW89770   5.907   6.012  10.438 -0.6555  0.4600 -0.4337
59264SOL    HW189771   5.949   6.053  10.514 -1.4743  0.3804  0.0689
59264SOL    HW289772   5.973   5.952  10.403  0.4612  1.9333 -0.9842
59265SOL     OW89773   5.395   5.703   8.573  0.0745  0.0846 -0.2805
59265SOL    HW189774   5.477   5.687   8.620 -0.8759 -0.5222  1.2524
59265SOL    HW289775   5.393   5.798   8.560  1.0028  0.1087 -0.3065
59266SOL     OW89776   0.206   0.905  10.332  0.3986 -0.2070  0.4486
59266SOL    HW189777   0.241   0.835  10.387  0.0548 -0.8643 -0.1389
59266SOL    HW289778   0.282   0.958  10.309  1.0113 -1.4829 -0.6280
59267SOL     OW89779  13.318   0.850   1.075  0.0835 -0.1183 -0.7505
59267SOL    HW189780  13.394   0.885   1.122 -0.3054  2.1888 -1.7068
59267SOL    HW289781  13.242   0.885   1.122 -0.3157  1.9836 -2.7830
59268SOL     OW89782  12.209   6.873  11.099 -0.0778 -0.2104  0.6539
59268SOL    HW189783  12.124   6.883  11.057  0.3752 -1.3391 -0.6284
59268SOL    HW289784  12.208   6.783  11.133  0.5614 -0.2036  0.7012
59269SOL     OW89785   4.832   4.673  10.172 -0.6660  0.7290  0.0585
59269SOL    HW189786   4.769   4.710  10.110 -1.0349 -0.0059 -0.0142
59269SOL    HW289787   4.885   4.747  10.199 -1.4859  1.3372  0.0272
59270SOL     OW89788   2.306   2.947  10.732  0.5585  0.8569 -0.7598
59270SOL    HW189789   2.232   2.950  10.671  0.8163  1.5225 -1.0556
59270SOL    HW289790   2.283   2.879  10.795  0.1348  0.3949 -1.4081
59271SOL     OW89791   2.820   0.016   4.350 -0.4400  0.8076 -0.5993
59271SOL    HW189792   2.874   0.069   4.410 -0.8044  0.3574  0.1386
59271SOL    HW289793   2.867   0.020   4.267  0.7297  0.4493  0.0186
59272SOL     OW89794   5.739   7.519   3.654 -0.2430  0.6359 -0.0556
59272SOL    HW189795   5.654   7.562   3.643  0.2031  1.3303 -0.8984
59272SOL    HW289796   5.737   7.446   3.592 -1.0379 -0.6747  1.4416
59273SOL     OW89797   0.387  13.419   6.193  0.2904 -0.5900 -0.1493
59273SOL    HW189798   0.360  13.341   6.240  1.1141  0.1391  1.6203
59273SOL    HW289799   0.460  13.390   6.138  2.1145 -0.6800  2.1875
59274SOL     OW89800   3.952  13.906  13.650  0.4723  0.4220  0.0231
59274SOL    HW189801   3.870  13.933  13.608  0.5786 -0.4442 -0.7771
59274SOL    HW289802   3.954  13.956  13.732  0.8789  3.1403 -1.5128
59275SOL     OW89803   4.039  10.941  11.998  0.0346 -0.5839 -0.3675
59275SOL    HW189804   4.005  10.938  12.087 -0.3427  0.3467 -0.4702
59275SOL    HW289805   4.108  10.875  11.996  1.0156  0.3499  1.0294
59276SOL     OW89806   2.906   2.021  11.633 -0.1138 -0.0640 -0.0392
59276SOL    HW189807   2.983   2.048  11.583  0.7141  0.9928  1.7136
59276SOL    HW289808   2.866   2.104  11.661 -1.1905 -0.6218  0.1274
59277SOL     OW89809   6.467   2.605   8.262  1.0542 -0.0623  0.1254
59277SOL    HW189810   6.418   2.678   8.224  0.5777 -0.5216 -0.1578
59277SOL    HW289811   6.556   2.638   8.272  0.3338  1.3975  2.3165
59278SOL     OW89812   2.383   0.721   1.638  0.8256  0.0691 -0.5419
59278SOL    HW189813   2.445   0.654   1.608  1.5909  0.8852 -0.8355
59278SOL    HW289814   2.298   0.678   1.634  1.4351 -1.3420  0.6195
59279SOL     OW89815  13.814  10.627   1.406  0.0698  0.0612 -0.3661
59279SOL    HW189816  13.870  10.614   1.482  0.8554  0.0824 -0.9307
59279SOL    HW289817  13.749  10.692   1.435  0.0165 -0.3492  0.4520
59280SOL     OW89818   3.464  10.639   2.305  0.1289 -0.1999 -0.1286
59280SOL    HW189819   3.555  10.608   2.299  0.6236  0.9552  0.8482
59280SOL    HW289820   3.412  10.560   2.319  1.0453 -0.8266 -0.1663
59281SOL     OW89821   7.490   5.242   4.366 -0.4507  0.5055  0.2290
59281SOL    HW189822   7.457   5.331   4.380  0.5703  0.9032  0.1436
59281SOL    HW289823   7.465   5.220   4.276  0.5182  1.2472 -0.2279
59282SOL     OW89824  12.369   1.723   5.133 -0.1632 -0.6101  0.3902
59282SOL    HW189825  12.383   1.735   5.227 -1.6458  1.6029  0.3973
59282SOL    HW289826  12.295   1.662   5.127 -0.6346 -0.0769  0.6995
59283SOL     OW89827   2.176   8.352   1.661 -0.2375  0.8983 -0.0102
59283SOL    HW189828   2.216   8.439   1.663 -1.5606  1.5099  1.0900
59283SOL    HW289829   2.201   8.317   1.575  0.9404  2.0483 -0.1698
59284SOL     OW89830  11.747  12.483   6.444 -0.1500  0.0933  0.1138
59284SOL    HW189831  11.689  12.458   6.516  1.0389  0.4924  1.2559
59284SOL    HW289832  11.694  12.542   6.390 -1.2599 -0.7000  0.3094
59285SOL     OW89833  13.767  13.706  13.642 -0.0653  0.1313  0.3557
59285SOL    HW189834  13.766  13.648  13.718 -0.8636 -0.9850 -0.4847
59285SOL    HW289835  13.690  13.761  13.652 -0.6636 -0.6102 -0.0720
59286SOL     OW89836   2.224   6.459   0.162 -0.0176  0.0606 -0.0129
59286SOL    HW189837   2.176   6.533   0.125  0.2039  0.1754 -0.0692
59286SOL    HW289838   2.176   6.438   0.243  0.6508  1.0736  0.6728
59287SOL     OW89839  13.915   1.184  13.842  0.2143 -0.8029 -0.3799
59287SOL    HW189840  13.901   1.133  13.922 -0.8871  0.3387  0.1857
59287SOL    HW289841  13.827   1.205  13.810  0.6390 -1.3785 -2.0016
59288SOL     OW89842   7.968   8.766   5.100  0.5642 -0.1823  0.1796
59288SOL    HW189843   8.001   8.853   5.121  1.0115 -0.6338  1.4765
59288SOL    HW289844   8.046   8.712   5.090  0.2757 -0.6090  0.1927
59289SOL     OW89845   8.801  12.690  11.248  0.0035 -0.4547 -0.2305
59289SOL    HW189846   8.780  12.614  11.193  1.5807  1.1763 -3.3495
59289SOL    HW289847   8.735  12.755  11.223  1.0441  0.4790 -0.5949
59290SOL     OW89848   5.817   4.790   1.008 -0.1656 -0.1436  0.3099
59290SOL    HW189849   5.828   4.707   0.961 -1.9687 -0.5729  0.5805
59290SOL    HW289850   5.723   4.799   1.020  0.1253  0.7870  2.3906
59291SOL     OW89851   1.004   1.635   7.096  0.3574 -0.0405  0.2146
59291SOL    HW189852   0.987   1.676   7.012 -0.6067 -3.5063 -1.4955
59291SOL    HW289853   1.086   1.587   7.083  1.2175  0.8670  1.9531
59292SOL     OW89854  13.615  11.624   4.185  0.4444 -0.0484 -1.0120
59292SOL    HW189855  13.527  11.640   4.150  1.0928  0.6544 -2.3879
59292SOL    HW289856  13.604  11.630   4.280 -0.8733  0.6278 -1.1848
59293SOL     OW89857   4.718   9.841   2.811 -0.5062  0.6999 -0.2954
59293SOL    HW189858   4.752   9.787   2.740  1.7258  0.4704  0.8611
59293SOL    HW289859   4.623   9.831   2.805 -0.2657 -3.2242 -0.2939
59294SOL     OW89860   3.619  13.987   0.362  0.3323 -0.0446  0.4478
59294SOL    HW189861   3.579  13.900   0.360 -0.1822  0.1948  0.2308
59294SOL    HW289862   3.584  14.032   0.285  1.3035  0.0484  0.0419
59295SOL     OW89863  11.215   2.763   2.401  0.6785 -0.2690 -0.1293
59295SOL    HW189864  11.212   2.667   2.406  0.4283 -0.4402 -2.5222
59295SOL    HW289865  11.237   2.782   2.310 -0.8972  1.9774 -0.1279
59296SOL     OW89866  11.777   5.201   7.608 -0.3316 -0.1596  0.5854
59296SOL    HW189867  11.806   5.220   7.697 -0.3339 -0.0827  0.5701
59296SOL    HW289868  11.696   5.252   7.598 -2.3390 -2.8788  1.7424
59297SOL     OW89869  13.388   3.580   8.565 -0.1859  0.1806 -0.1209
59297SOL    HW189870  13.293   3.586   8.551  0.0264  0.3030 -1.6785
59297SOL    HW289871  13.426   3.617   8.485  1.1779  0.0192  0.4346
59298SOL     OW89872  12.321   4.512   2.959 -0.2299  0.5649  0.0462
59298SOL    HW189873  12.239   4.473   2.989 -0.0895 -0.2340 -0.5831
59298SOL    HW289874  12.388   4.448   2.981  0.2438  1.2597  0.6429
59299SOL     OW89875   9.903   6.587   2.448  0.2068  0.4107 -0.4390
59299SOL    HW189876   9.981   6.574   2.395  2.1046  0.4994  2.1588
59299SOL    HW289877   9.929   6.649   2.515 -1.8402 -0.1777  1.0154
59300SOL     OW89878   3.172   3.900   2.993 -0.2198  0.0560  0.1826
59300SOL    HW189879   3.084   3.928   3.017 -0.1967 -1.5467  2.3775
59300SOL    HW289880   3.209   3.864   3.073  2.3819  0.4613 -0.7368
59301SOL     OW89881   5.238   1.672  12.989 -0.4149  0.5929 -0.2086
59301SOL    HW189882   5.195   1.621  12.920  0.3039 -0.1595 -0.1233
59301SOL    HW289883   5.304   1.723  12.944 -0.7282  0.9982 -0.2157
59302SOL     OW89884   6.663   8.419   8.634  0.0023  0.2776 -0.3570
59302SOL    HW189885   6.597   8.447   8.571 -0.6545 -0.9460 -0.2390
59302SOL    HW289886   6.743   8.408   8.582 -0.3709 -0.0902 -0.8544
59303SOL     OW89887  12.016  10.777   3.931  0.3875 -0.2318  0.0490
59303SOL    HW189888  12.061  10.823   3.860  0.8627  0.4983  0.8069
59303SOL    HW289889  11.929  10.759   3.896  0.2221  1.1616 -0.3142
59304SOL     OW89890   9.415   9.241   6.694  0.1162 -0.0099  0.2526
59304SOL    HW189891   9.443   9.180   6.762  1.7113  0.7738  0.3550
59304SOL    HW289892   9.419   9.327   6.735  1.5073  0.5232 -0.9019
59305SOL     OW89893   3.877   9.907   0.311 -0.4375 -0.2610 -0.0565
59305SOL    HW189894   3.955   9.879   0.358 -0.3448 -0.5794 -0.3952
59305SOL    HW289895   3.815   9.931   0.380 -0.2426 -0.5558  0.2241
59306SOL     OW89896   3.668  12.618  11.697  0.1601 -0.0919  0.5462
59306SOL    HW189897   3.740  12.660  11.651  0.9187 -1.3457  0.5621
59306SOL    HW289898   3.593  12.675  11.680  1.0593  1.0456  0.2397
59307SOL     OW89899  11.530  13.060   4.812  0.2314 -0.1892 -0.0712
59307SOL    HW189900  11.491  12.979   4.844 -0.9066  1.0388  1.8611
59307SOL    HW289901  11.607  13.074   4.868  2.0286 -1.2109 -2.1186
59308SOL     OW89902   4.138   2.367   3.665  0.2848  0.3089 -0.1956
59308SOL    HW189903   4.163   2.300   3.602 -1.0189 -0.9529  0.5652
59308SOL    HW289904   4.060   2.408   3.627 -1.0208 -1.0337  0.9100
59309SOL     OW89905   6.013   2.058   7.149 -0.4366 -0.2538 -0.2231
59309SOL    HW189906   6.088   2.104   7.186 -0.8035  1.1804 -1.1402
59309SOL    HW289907   5.938   2.092   7.198 -0.5205 -1.6007  0.6204
59310SOL     OW89908   0.978  13.023   9.480  0.5231  0.2237 -0.0914
59310SOL    HW189909   1.052  12.963   9.484  0.4827  0.1334 -0.7016
59310SOL    HW289910   0.901  12.967   9.471  0.6077  0.3818 -2.3531
59311SOL     OW89911   1.645   5.618  12.869 -0.0467 -0.0494 -0.0307
59311SOL    HW189912   1.600   5.703  12.879 -3.1327 -1.3998 -1.2578
59311SOL    HW289913   1.613   5.566  12.943 -0.5071 -1.0591 -0.9284
59312SOL     OW89914   5.267  13.565  10.686  0.3323  1.0107  0.2164
59312SOL    HW189915   5.345  13.573  10.741  0.5201  0.8143 -0.0207
59312SOL    HW289916   5.198  13.607  10.737  0.2004 -0.3214  1.2137
59313SOL     OW89917   4.016   5.605   7.933 -0.0970  0.5972 -0.3082
59313SOL    HW189918   3.995   5.675   7.871  1.5759  0.7917 -0.7101
59313SOL    HW289919   4.095   5.635   7.977  1.1415 -1.3616 -1.0521
59314SOL     OW89920   4.862   5.819   5.511  0.4188  0.2549  0.1590
59314SOL    HW189921   4.835   5.758   5.580  0.3821 -0.9457 -0.8770
59314SOL    HW289922   4.793   5.886   5.510  0.1778  0.0324  0.9577
59315SOL     OW89923   7.989   7.852   2.985 -0.5693 -0.5854  0.1632
59315SOL    HW189924   8.036   7.800   3.049  0.6390 -0.7535 -0.8165
59315SOL    HW289925   8.055   7.912   2.949 -1.7005  1.0165  0.6061
59316SOL     OW89926   4.340   8.287   2.316 -0.3935  0.8191  0.2415
59316SOL    HW189927   4.349   8.277   2.411  0.4562 -0.5718  0.0429
59316SOL    HW289928   4.352   8.381   2.301  2.7043  0.6875  1.2348
59317SOL     OW89929   0.966   8.027   1.657 -0.0300 -0.4305 -0.2995
59317SOL    HW189930   0.925   8.012   1.571  0.2182  2.2128 -0.9803
59317SOL    HW289931   0.978   7.940   1.693 -0.4273 -1.6410 -2.8254
59318SOL     OW89932  12.203  10.072   0.557  0.5527  0.2530  0.5121
59318SOL    HW189933  12.189  10.021   0.477 -1.1173  0.6225  0.5335
59318SOL    HW289934  12.292  10.106   0.549 -0.2498  2.0132 -2.2208
59319SOL     OW89935   6.843   1.510  10.930  1.0473 -0.0115 -0.0299
59319SOL    HW189936   6.925   1.548  10.961  0.5333  0.9327  0.2237
59319SOL    HW289937   6.833   1.429  10.979  0.1020  1.5825  2.5902
59320SOL     OW89938   3.778  12.019   3.959 -0.2841 -0.0121  0.0262
59320SOL    HW189939   3.770  12.021   3.864 -1.1284 -1.5331  0.0345
59320SOL    HW289940   3.717  12.087   3.990 -0.6830 -0.1295 -0.4941
59321SOL     OW89941   8.238  11.664   8.965 -0.3485  0.0294 -0.6457
59321SOL    HW189942   8.250  11.604   9.038  3.5347 -1.2910 -2.1013
59321SOL    HW289943   8.207  11.745   9.006  0.0979 -1.1235  2.2335
59322SOL     OW89944  10.164   3.924   4.366  0.7773  0.0302 -0.1005
59322SOL    HW189945  10.223   3.997   4.385  0.2749 -0.2767  3.2504
59322SOL    HW289946  10.077   3.963   4.364  0.5517 -0.3618  1.2299
59323SOL     OW89947  11.603   9.350   3.096  0.1794  0.5570 -0.2177
59323SOL    HW189948  11.639   9.294   3.165  0.1325 -0.8655 -1.2942
59323SOL    HW289949  11.509   9.352   3.114  0.3001  1.0938  0.3770
59324SOL     OW89950   1.949  12.193   1.655  0.9873  0.2544  0.4101
59324SOL    HW189951   2.034  12.163   1.688  0.6399  1.0582  2.1646
59324SOL    HW289952   1.938  12.280   1.693 -0.4716  0.3115 -0.0828
59325SOL     OW89953   5.415  11.650   9.528  0.2819 -0.7549  0.0389
59325SOL    HW189954   5.495  11.665   9.578 -0.3106 -0.0874  0.8107
59325SOL    HW289955   5.426  11.563   9.489  1.5757 -0.4747 -0.2549
59326SOL     OW89956   6.865   5.613  12.375 -0.4204 -0.2304 -0.3615
59326SOL    HW189957   6.947   5.565  12.362 -1.0706 -1.2520 -0.8222
59326SOL    HW289958   6.881   5.667  12.452  1.3463  1.0723 -1.5600
59327SOL     OW89959   4.032  10.252   9.681  0.1046  0.3966  0.5380
59327SOL    HW189960   4.044  10.297   9.597  2.1368 -0.6152  0.2151
59327SOL    HW289961   4.098  10.291   9.738 -0.8716  0.6587  1.5201
59328SOL     OW89962   9.900   3.034   8.405 -0.1677 -0.7050 -0.2010
59328SOL    HW189963   9.908   3.012   8.498 -0.1527 -0.8746 -0.2425
59328SOL    HW289964   9.989   3.059   8.379 -0.3948  0.4984  0.1183
59329SOL     OW89965  12.673   4.736   3.015  0.1303 -0.0452  0.9950
59329SOL    HW189966  12.690   4.829   2.999 -0.2741 -0.3275 -1.5069
59329SOL    HW289967  12.735   4.691   2.957 -0.9246 -1.2903  0.7990
59330SOL     OW89968  11.065  12.149  11.041 -0.7001  0.2917  0.1037
59330SOL    HW189969  11.069  12.245  11.043  2.2406  0.2536  0.9263
59330SOL    HW289970  11.017  12.126  11.120 -0.6116  1.0707  0.3976
59331SOL     OW89971   2.610   8.398   5.200  0.2838 -0.2352  0.0579
59331SOL    HW189972   2.642   8.448   5.275 -0.5818  0.2040  0.1529
59331SOL    HW289973   2.622   8.306   5.225  0.1244 -0.0892  0.6867
59332SOL     OW89974   4.706   0.993  10.179  0.4908  0.5196  1.0961
59332SOL    HW189975   4.790   1.031  10.205  1.1881  0.5677 -1.0260
59332SOL    HW289976   4.667   1.060  10.123  1.0537 -1.1862 -1.4878
59333SOL     OW89977   8.080   8.771  11.489 -0.9028  0.3119 -0.3512
59333SOL    HW189978   8.041   8.741  11.407  1.2294  0.2951 -1.4432
59333SOL    HW289979   8.131   8.695  11.520 -0.7837  0.6810  0.3797
59334SOL     OW89980   9.087  12.240   6.550 -0.8190 -0.1354  0.5050
59334SOL    HW189981   9.164  12.290   6.577  1.1938 -2.5104 -0.3918
59334SOL    HW289982   9.038  12.226   6.631  0.6130  0.0192  1.4436
59335SOL     OW89983  12.999   1.976  11.438  0.1081 -0.1395  0.4318
59335SOL    HW189984  13.081   1.944  11.400  1.4022 -0.5698  3.2993
59335SOL    HW289985  12.963   1.901  11.485 -2.9519 -0.4661 -2.1211
59336SOL     OW89986  13.344   7.278   8.914 -0.2568 -0.3272 -0.0832
59336SOL    HW189987  13.317   7.223   8.988 -0.5624  0.4472  0.3851
59336SOL    HW289988  13.421   7.325   8.945 -1.4607  1.3825  0.4108
59337SOL     OW89989   2.358   7.190  10.161 -0.1413 -0.1931 -0.0186
59337SOL    HW189990   2.359   7.100  10.193 -0.1885  0.0236  0.6052
59337SOL    HW289991   2.355   7.182  10.066 -0.5759 -0.8558  0.0445
59338SOL     OW89992   6.527   1.067   1.672  0.0520  0.2317  0.4491
59338SOL    HW189993   6.575   1.149   1.663  0.4483  0.0875  1.1094
59338SOL    HW289994   6.587   1.011   1.722 -0.8281  0.0631  1.3363
59339SOL     OW89995   7.153  12.061   8.395 -0.9201 -0.8854  0.3103
59339SOL    HW189996   7.202  11.981   8.419  1.0533  0.3091  0.5230
59339SOL    HW289997   7.115  12.091   8.477  1.6390  0.4617  1.1203
59340SOL     OW89998   7.382   7.081  11.715  0.0108  0.1545  0.4945
59340SOL    HW189999   7.306   7.069  11.772 -0.4014 -0.9312 -0.2577
59340SOL    HW290000   7.407   6.993  11.689  2.1559  0.4152  1.4933
59341SOL     OW90001   0.495   6.462   1.107 -0.1392 -0.0733 -0.3883
59341SOL    HW190002   0.487   6.556   1.091  1.7229 -0.2460 -3.3129
59341SOL    HW290003   0.516   6.455   1.200 -2.2234  2.1845  0.3726
59342SOL     OW90004   1.003   2.982   9.318 -0.1563  0.0802 -0.0055
59342SOL    HW190005   0.984   3.076   9.322  0.4989  0.2376 -0.4189
59342SOL    HW290006   0.937   2.942   9.375 -0.0320  0.8537  0.7121
59343SOL     OW90007   1.803   2.026   7.966 -0.0531  0.0727 -0.1447
59343SOL    HW190008   1.807   2.042   8.060  1.2989  1.5994 -0.4158
59343SOL    HW290009   1.835   2.107   7.926 -1.1795 -0.3081 -1.9517
59344SOL     OW90010  11.561   8.601   7.344  0.4276  0.1835  0.2391
59344SOL    HW190011  11.627   8.653   7.391  0.5613  1.4152 -1.2089
59344SOL    HW290012  11.520   8.664   7.285 -1.6779 -0.6932  0.7020
59345SOL     OW90013   5.491   1.848   5.824  0.1208 -0.0227 -0.3166
59345SOL    HW190014   5.459   1.858   5.735  0.3267  0.3781 -0.3489
59345SOL    HW290015   5.422   1.800   5.870  0.0116 -0.2188 -0.6880
59346SOL     OW90016   0.094   7.910   7.740 -0.9510 -0.7571 -0.6982
59346SOL    HW190017   0.106   7.909   7.835 -1.1486  1.0703 -0.6363
59346SOL    HW290018  -0.001   7.903   7.728 -1.0134  0.0534 -0.7179
59347SOL     OW90019   8.793  10.437   2.250  0.5814  0.0197  0.2505
59347SOL    HW190020   8.805  10.366   2.187  1.4969  2.9293 -3.1514
59347SOL    HW290021   8.711  10.479   2.222  0.8561  1.2231  1.2063
59348SOL     OW90022  12.718   0.262   4.702 -0.2738 -0.4255  0.0927
59348SOL    HW190023  12.770   0.275   4.781 -0.1361 -1.1191  0.1176
59348SOL    HW290024  12.637   0.311   4.719 -1.4196 -2.7333  1.8138
59349SOL     OW90025   8.462  13.406   8.414  0.2992 -0.4619 -0.0259
59349SOL    HW190026   8.409  13.454   8.350  0.3827  1.2339  1.1096
59349SOL    HW290027   8.549  13.444   8.407 -0.2306  1.6388  2.7538
59350SOL     OW90028   0.907  13.306   1.930  0.5952 -0.4123  0.0374
59350SOL    HW190029   0.968  13.233   1.923 -0.1494 -0.8905 -2.5781
59350SOL    HW290030   0.963  13.384   1.938  1.5443 -0.9314 -1.2454
59351SOL     OW90031  12.184  11.880  11.806 -0.6212  0.6425  0.3808
59351SOL    HW190032  12.121  11.913  11.742 -0.6863  0.1544  0.1881
59351SOL    HW290033  12.161  11.788  11.817 -0.8328  0.8009  1.3737
59352SOL     OW90034   2.717  13.431   8.092  0.6990  0.9822  0.0166
59352SOL    HW190035   2.730  13.525   8.104  0.2769  0.7748  2.6920
59352SOL    HW290036   2.716  13.395   8.181 -3.5974 -0.9604 -0.5609
59353SOL     OW90037   5.260  12.202  10.539 -0.0245  0.2066 -0.5482
59353SOL    HW190038   5.192  12.269  10.542 -1.0124 -0.7787  0.0077
59353SOL    HW290039   5.221  12.130  10.489 -0.0727 -1.0652  1.2060
59354SOL     OW90040   2.550  10.780  13.962  0.0469  0.1297 -0.0363
59354SOL    HW190041   2.544  10.824  14.047  1.8990 -0.2799  0.3395
59354SOL    HW290042   2.547  10.850  13.897  0.2844  0.5899  0.4494
59355SOL     OW90043  13.988   1.925  10.006 -0.1817  0.3573  0.5624
59355SOL    HW190044  13.942   2.002   9.972  0.0526  0.9251  1.4990
59355SOL    HW290045  14.057   1.908   9.942 -1.5382 -0.4050 -0.7826
59356SOL     OW90046  12.891   1.817  13.943  0.3315 -0.2267 -0.2004
59356SOL    HW190047  12.830   1.744  13.952  1.0101 -0.6744  1.1742
59356SOL    HW290048  12.964   1.794  14.001 -0.2702  2.3679  1.7797
59357SOL     OW90049   9.903   9.340   7.879  0.2400  0.2512 -0.2029
59357SOL    HW190050   9.935   9.250   7.871 -0.7333 -0.2251  0.9505
59357SOL    HW290051   9.816   9.337   7.841  0.2479  0.7350 -0.2564
59358SOL     OW90052   0.754  12.381   2.953 -0.3578 -0.0044  0.5071
59358SOL    HW190053   0.670  12.340   2.972 -0.3772 -1.5160 -2.3105
59358SOL    HW290054   0.799  12.319   2.896  1.7106  1.7943  0.0225
59359SOL     OW90055  11.926  11.607  11.253  0.2122 -0.0692 -0.4727
59359SOL    HW190056  12.010  11.652  11.240  0.3961 -0.6914 -1.5381
59359SOL    HW290057  11.949  11.528  11.302 -0.2071  1.2631  2.0633
59360SOL     OW90058   8.988   5.575   3.327  0.4625 -0.1644  0.0818
59360SOL    HW190059   8.997   5.486   3.293 -0.0193 -0.0889 -0.2553
59360SOL    HW290060   8.999   5.565   3.422 -1.1488 -0.8355  0.2295
59361SOL     OW90061   3.898   9.690   1.260  0.0464 -0.0583 -0.3062
59361SOL    HW190062   3.902   9.641   1.179  0.7973 -0.6101  0.0555
59361SOL    HW290063   3.974   9.748   1.257 -0.7594  1.0227 -0.6734
59362SOL     OW90064   9.222  12.522  11.970  0.2395  0.0317  0.1348
59362SOL    HW190065   9.251  12.529  12.061 -0.9738 -0.8241  0.6216
59362SOL    HW290066   9.287  12.465  11.928  0.0937 -0.6486  0.8132
59363SOL     OW90067   2.480   1.480   4.885 -0.3063  0.3582  0.0248
59363SOL    HW190068   2.432   1.442   4.958  0.5393  2.5873  1.8416
59363SOL    HW290069   2.476   1.574   4.899 -0.9142  0.9825 -3.3761
59364SOL     OW90070   6.272   0.907  12.961 -0.9058 -0.1429 -0.4451
59364SOL    HW190071   6.228   0.981  13.003 -0.3557  0.8139 -1.4741
59364SOL    HW290072   6.206   0.839  12.956 -2.3090  1.2216 -1.8641
59365SOL     OW90073   6.522   3.594   9.013 -0.2916  0.5268  0.5069
59365SOL    HW190074   6.510   3.654   9.087 -0.6962  0.5107  0.4538
59365SOL    HW290075   6.496   3.644   8.936 -0.2432  0.4144  0.4159
59366SOL     OW90076   7.977   3.807   5.394  0.2105  0.5733 -0.3149
59366SOL    HW190077   7.969   3.727   5.341  0.0657  0.8060 -0.6547
59366SOL    HW290078   7.918   3.793   5.468  1.9485 -0.6274  0.9313
59367SOL     OW90079  12.177  12.622   4.553  0.1029 -0.1985 -0.2845
59367SOL    HW190080  12.134  12.554   4.605 -0.6771  0.5430  0.0575
59367SOL    HW290081  12.213  12.574   4.478  0.4974 -1.1460  0.4855
59368SOL     OW90082   6.045  13.777  10.907  0.7529 -0.2432 -0.1239
59368SOL    HW190083   6.061  13.729  10.989  0.6735 -1.1091 -0.6017
59368SOL    HW290084   5.978  13.842  10.930  0.4880 -0.6979  0.4217
59369SOL     OW90085   3.989  11.223   3.433  0.4077 -0.0443 -0.2928
59369SOL    HW190086   4.011  11.309   3.469  0.1589 -0.4280  0.8238
59369SOL    HW290087   3.926  11.242   3.363  0.9480  0.7333 -0.5806
59370SOL     OW90088  10.376   5.107   3.126 -0.6201  0.2635  0.2371
59370SOL    HW190089  10.299   5.132   3.177 -0.5910 -0.3630  0.5957
59370SOL    HW290090  10.390   5.181   3.066 -0.2878  1.3212  1.5520
59371SOL     OW90091  13.396   4.267  11.589 -0.3248 -0.0169 -0.0900
59371SOL    HW190092  13.390   4.312  11.505 -0.0607 -0.1594 -0.1862
59371SOL    HW290093  13.312   4.284  11.632  0.3208  1.8569  0.5242
59372SOL     OW90094  12.599   4.171   7.544 -0.3394 -0.2010 -0.3265
59372SOL    HW190095  12.536   4.118   7.494 -0.0271 -0.3367 -0.5806
59372SOL    HW290096  12.633   4.111   7.610  0.3276 -0.4535 -0.8804
59373SOL     OW90097  13.979   7.018   6.254  0.3225 -0.2824 -0.6623
59373SOL    HW190098  14.067   6.987   6.233  0.0814 -1.5105  0.0625
59373SOL    HW290099  13.944   6.953   6.315 -0.6097  0.8728  0.0832
59374SOL     OW90100   0.054  13.599  11.323  0.5156  0.0431 -0.2172
59374SOL    HW190101   0.134  13.549  11.307  1.0358  0.4900  0.9217
59374SOL    HW290102   0.059  13.673  11.263  1.7530  0.9454  0.9646
59375SOL     OW90103   5.128   4.350   3.385 -0.3711  0.6673  0.6408
59375SOL    HW190104   5.141   4.422   3.323 -0.9072  0.3617  0.1562
59375SOL    HW290105   5.196   4.362   3.450  1.3810 -0.0305 -0.9769
59376SOL     OW90106   7.523   7.445   3.297 -0.3318  0.2958  0.1078
59376SOL    HW190107   7.474   7.368   3.269  0.5514  0.0493 -0.8000
59376SOL    HW290108   7.459   7.517   3.293 -1.2719 -0.4371  1.3748
59377SOL     OW90109   4.851   6.015  10.666 -0.2697  0.4034 -0.4624
59377SOL    HW190110   4.818   5.927  10.688 -0.2207  0.7792  1.2590
59377SOL    HW290111   4.944   6.012  10.687 -0.6694  1.4630  1.7412
59378SOL     OW90112   7.377   1.372   0.874  0.8031 -0.4240  0.2565
59378SOL    HW190113   7.327   1.375   0.955 -0.2496 -1.1870 -0.3394
59378SOL    HW290114   7.458   1.328   0.897  1.2774  0.9108  1.2561
59379SOL     OW90115   4.526  11.823   0.277  0.0239  0.4892 -0.4908
59379SOL    HW190116   4.442  11.869   0.280 -0.1050  0.6035 -3.1676
59379SOL    HW290117   4.566  11.840   0.362 -1.6107  2.4827 -0.0452
59380SOL     OW90118   9.628   4.564  10.315  0.5092  0.1197 -0.1596
59380SOL    HW190119   9.573   4.549  10.392 -1.9974  0.0018 -1.8491
59380SOL    HW290120   9.690   4.632  10.342 -1.1690  1.0507  1.5884
59381SOL     OW90121  10.135  10.909   2.205 -0.2220  0.0690  0.1847
59381SOL    HW190122  10.119  11.003   2.212 -0.6987  0.1034 -1.0147
59381SOL    HW290123  10.058  10.868   2.244 -0.9197  0.2122 -0.9789
59382SOL     OW90124   7.556  13.925   9.296  0.2278 -0.1808 -0.0075
59382SOL    HW190125   7.516  13.950   9.213 -0.2702 -0.6825  0.0799
59382SOL    HW290126   7.510  13.978   9.361  0.0060 -0.4350  0.0440
59383SOL     OW90127  11.501  12.524   2.190 -0.2103  0.0178 -0.0706
59383SOL    HW190128  11.514  12.441   2.144 -1.4825 -1.1332  1.5100
59383SOL    HW290129  11.590  12.559   2.201  0.5149 -1.7832  0.3091
59384SOL     OW90130   2.403  11.665   7.123  0.1601  0.1348 -0.1225
59384SOL    HW190131   2.474  11.603   7.139 -0.7637 -1.0703 -0.5129
59384SOL    HW290132   2.344  11.618   7.064 -0.2456  1.6486 -0.9799
59385SOL     OW90133   5.979   2.088  10.952 -0.0050 -0.3648  0.1120
59385SOL    HW190134   6.029   2.010  10.976  0.3480 -0.5047 -1.0274
59385SOL    HW290135   5.910   2.056  10.894 -0.4867  0.0407  0.4468
59386SOL     OW90136   4.675   4.087  10.246 -0.2699 -0.2940 -0.3807
59386SOL    HW190137   4.718   4.018  10.297 -0.4269 -0.0392  0.1108
59386SOL    HW290138   4.744   4.120  10.188  0.5565  0.8485  1.1469
59387SOL     OW90139   7.663  12.969   0.440 -0.0912 -0.2521 -0.0015
59387SOL    HW190140   7.695  12.940   0.354 -1.1859  0.6650 -0.7486
59387SOL    HW290141   7.660  13.064   0.433 -2.5304 -0.2522  0.1521
59388SOL     OW90142  10.636   4.722   5.311  0.4003  0.6074  0.0012
59388SOL    HW190143  10.718   4.771   5.311  0.5259  0.4953  2.5046
59388SOL    HW290144  10.660   4.634   5.340 -0.8360  1.1998  3.2081
59389SOL     OW90145   9.579   0.065  11.149 -0.1452  0.4411  0.1009
59389SOL    HW190146   9.574   0.084  11.056 -3.3751  0.6092  0.1645
59389SOL    HW290147   9.539   0.142  11.191  0.2437 -0.1080  1.5345
59390SOL     OW90148  13.894   3.653   6.274 -0.1825 -0.0314  0.0850
59390SOL    HW190149  13.946   3.604   6.339 -0.0312  0.4430  0.3217
59390SOL    HW290150  13.936   3.738   6.269  3.1793 -1.5720 -4.5229
59391SOL     OW90151   5.894   1.495   5.427  0.1741  0.5153 -0.6707
59391SOL    HW190152   5.868   1.421   5.481  0.3577  0.8137 -0.1645
59391SOL    HW290153   5.818   1.552   5.426  0.5808  1.0952  0.3002
59392SOL     OW90154   7.876   0.698   7.457 -0.6898  0.4216 -0.2220
59392SOL    HW190155   7.954   0.712   7.405 -0.7222 -0.9591 -0.6981
59392SOL    HW290156   7.908   0.666   7.542 -0.6739  1.8092  0.3150
59393SOL     OW90157  10.139   7.156   0.914  0.2994  0.0168 -0.3541
59393SOL    HW190158  10.111   7.241   0.950 -0.7261 -1.6109  3.1947
59393SOL    HW290159  10.234   7.161   0.911  0.2666  1.2160  0.0737
59394SOL     OW90160   2.957   9.441  12.347 -0.2557 -0.4933  0.8837
59394SOL    HW190161   2.910   9.389  12.281 -0.0050 -0.4656  0.6818
59394SOL    HW290162   2.983   9.377  12.413 -0.6805 -0.4914  1.0597
59395SOL     OW90163   6.722   5.448   9.688 -0.5758 -0.5135 -0.2086
59395SOL    HW190164   6.658   5.511   9.655 -0.4852  0.3826  1.2058
59395SOL    HW290165   6.700   5.439   9.781  0.2705 -1.5502 -0.0863
59396SOL     OW90166   5.891  12.711   5.686 -0.4026  0.1566  0.1204
59396SOL    HW190167   5.963  12.752   5.639  2.0064 -1.9699  1.7056
59396SOL    HW290168   5.850  12.653   5.621 -0.4910  1.1033 -0.6913
59397SOL     OW90169  10.589   3.200   8.255  0.2920 -1.0097  0.6173
59397SOL    HW190170  10.659   3.230   8.197 -1.6528  0.2074 -1.2565
59397SOL    HW290171  10.583   3.106   8.240  2.5404 -1.4532  2.0572
59398SOL     OW90172   3.495  12.355   5.808  0.1631 -0.6033  0.1028
59398SOL    HW190173   3.429  12.315   5.864 -0.4945  0.1554 -0.1034
59398SOL    HW290174   3.525  12.432   5.857 -1.2293  0.7178 -0.9981
59399SOL     OW90175   6.882   0.856   8.969  0.4287  0.1297 -0.3791
59399SOL    HW190176   6.877   0.935   9.022 -1.1169  0.0655 -0.3844
59399SOL    HW290177   6.866   0.886   8.880 -0.6569 -0.2263 -0.3211
59400SOL     OW90178   9.547  13.515   5.458 -0.1165  0.5631 -0.3040
59400SOL    HW190179   9.510  13.525   5.546  2.5350  0.6289  0.8839
59400SOL    HW290180   9.605  13.590   5.447  2.9055 -1.5647 -0.2654
59401SOL     OW90181  10.877   7.847   0.569 -0.1277 -0.0859  0.4232
59401SOL    HW190182  10.967   7.881   0.567  1.0244 -2.9313 -0.1198
59401SOL    HW290183  10.834   7.890   0.495  1.5971 -0.6268 -0.9620
59402SOL     OW90184   1.257  13.037   2.321 -0.2925  0.0953  0.6205
59402SOL    HW190185   1.273  13.076   2.235  0.6096 -0.8184  0.3616
59402SOL    HW290186   1.337  13.054   2.371  0.4452 -2.0373  0.2512
59403SOL     OW90187   0.973  13.443  11.363  0.0227 -0.0283  0.0558
59403SOL    HW190188   1.034  13.402  11.301 -1.2991  0.8670 -1.9321
59403SOL    HW290189   0.902  13.380  11.372 -1.0706  0.9252 -1.4849
59404SOL     OW90190   5.335   8.393   0.585  0.5947  0.3923  0.6414
59404SOL    HW190191   5.375   8.362   0.503  0.2539 -0.8565  0.9197
59404SOL    HW290192   5.301   8.480   0.564  0.3569  0.0221 -0.5983
59405SOL     OW90193  11.467   1.667   4.760 -0.5938 -0.0413 -0.2540
59405SOL    HW190194  11.499   1.600   4.820  1.7308 -0.7001 -2.1058
59405SOL    HW290195  11.394   1.626   4.713  1.0969 -1.5045 -1.6912
59406SOL     OW90196   7.424  12.837  13.114 -0.5079  0.2152  0.4020
59406SOL    HW190197   7.501  12.824  13.057 -0.8869 -2.1620  0.3191
59406SOL    HW290198   7.399  12.749  13.140 -2.1259  1.0708  1.9357
59407SOL     OW90199   8.588   2.483   9.991  0.3920 -0.2211  0.0857
59407SOL    HW190200   8.511   2.533  10.018  1.3228  1.8770 -0.9237
59407SOL    HW290201   8.612   2.432  10.069 -0.8127  0.6357  1.0566
59408SOL     OW90202   8.021  11.670  11.954  0.1580 -0.6164  0.4126
59408SOL    HW190203   8.103  11.712  11.930  0.7676 -2.6354 -1.3417
59408SOL    HW290204   8.047  11.584  11.988 -1.0891 -0.1213  2.8866
59409SOL     OW90205  12.987  13.617   0.960  0.6342 -0.5442  0.3040
59409SOL    HW190206  13.079  13.644   0.962  0.7058 -0.8001  1.6664
59409SOL    HW290207  12.954  13.638   1.047 -1.4495  2.2834 -0.9945
59410SOL     OW90208   2.412  11.270   2.872  0.1676  0.0935  0.2685
59410SOL    HW190209   2.467  11.283   2.949  0.3984 -0.0360  0.1289
59410SOL    HW290210   2.466  11.218   2.813  0.9416  2.1505 -0.9772
59411SOL     OW90211   9.892   6.534   6.152  0.1542 -0.0848 -0.4456
59411SOL    HW190212   9.984   6.534   6.177 -0.3035 -1.7918  1.4657
59411SOL    HW290213   9.894   6.526   6.056  1.9694  0.5060 -0.4982
59412SOL     OW90214   3.104   3.030   5.781  0.1394 -0.1036 -0.0721
59412SOL    HW190215   3.053   3.063   5.855  1.5508 -1.0932  1.4215
59412SOL    HW290216   3.042   2.979   5.729 -0.9352  0.8288  0.2603
59413SOL     OW90217   6.711  10.403  11.369  0.0601 -0.6476  0.3912
59413SOL    HW190218   6.791  10.369  11.410  0.5041 -0.5986 -0.4211
59413SOL    HW290219   6.740  10.479  11.318 -0.6533 -0.0830  0.7983
59414SOL     OW90220  13.701   4.649   4.930  1.0528  0.1410  0.0933
59414SOL    HW190221  13.664   4.721   4.879  1.3751  0.1615 -0.1166
59414SOL    HW290222  13.792   4.675   4.947  0.4538  0.9934  2.2886
59415SOL     OW90223   1.492   7.468   8.712 -0.3276 -0.4057  0.6106
59415SOL    HW190224   1.576   7.444   8.674 -0.5964  0.0243 -0.2825
59415SOL    HW290225   1.457   7.536   8.654 -1.8895 -1.4947  0.1977
59416SOL     OW90226   2.134  13.044  13.768 -0.5090  0.1166  0.2647
59416SOL    HW190227   2.172  13.015  13.851 -0.3637  0.5902  0.3658
59416SOL    HW290228   2.157  12.975  13.706 -0.6647 -0.2651  0.6294
59417SOL     OW90229   3.588   5.581   8.708  0.4635 -0.1639  0.1180
59417SOL    HW190230   3.637   5.623   8.779  0.5875 -2.0426  1.2000
59417SOL    HW290231   3.519   5.644   8.687  0.9538  0.8175  1.3035
59418SOL     OW90232  11.646   6.915   2.663  0.1590  0.1263  0.1391
59418SOL    HW190233  11.672   7.004   2.641 -0.4048 -0.0239 -1.1931
59418SOL    HW290234  11.698   6.860   2.605 -0.3466 -0.3485  0.1327
59419SOL     OW90235   0.807   5.796   1.355  0.3920 -0.3828  0.8038
59419SOL    HW190236   0.890   5.839   1.337  0.7217 -1.4572 -0.4721
59419SOL    HW290237   0.763   5.852   1.419  1.6843  0.6952  0.7818
59420SOL     OW90238   2.601   0.587   9.310 -0.6194 -0.2022  0.6586
59420SOL    HW190239   2.509   0.595   9.284 -0.2941  0.0051 -0.4985
59420SOL    HW290240   2.618   0.493   9.308 -1.1882 -0.3647  2.3325
59421SOL     OW90241  10.003  11.767   8.040  0.3571  0.2555 -0.2130
59421SOL    HW190242  10.063  11.737   7.973  0.4324  0.6777 -0.3389
59421SOL    HW290243   9.995  11.693   8.101 -0.2863 -0.3969 -1.0693
59422SOL     OW90244   9.422  10.765   2.735  0.1486 -0.1586  0.8909
59422SOL    HW190245   9.500  10.731   2.691  0.1412  1.6388 -0.6306
59422SOL    HW290246   9.451  10.782   2.825  1.3452 -0.0406  0.5036
59423SOL     OW90247   1.274   6.850  10.410  0.0600 -0.1031  0.6359
59423SOL    HW190248   1.318   6.827  10.492  0.0148 -1.8884  0.1936
59423SOL    HW290249   1.191   6.803  10.413  0.3280 -0.7105 -0.6899
59424SOL     OW90250  11.630   5.916   5.114 -0.3914  0.1307 -0.0335
59424SOL    HW190251  11.578   5.925   5.034 -0.3827  1.9045  0.1152
59424SOL    HW290252  11.616   5.826   5.142  0.6355 -0.9817 -2.7419
59425SOL     OW90253   0.819  10.416  13.170 -0.3865 -0.0236  0.3794
59425SOL    HW190254   0.792  10.451  13.085  1.3025 -1.1648 -0.6890
59425SOL    HW290255   0.851  10.492  13.218  0.2717  0.3919 -0.6766
59426SOL     OW90256  12.238  13.901  12.107  0.3534 -0.0257  0.0465
59426SOL    HW190257  12.332  13.884  12.106  0.4503  0.5415 -0.1448
59426SOL    HW290258  12.215  13.922  12.017  0.4506  2.0681  0.4779
59427SOL     OW90259   1.953   7.218  13.292  0.1651 -0.1994  0.6043
59427SOL    HW190260   1.870   7.172  13.277  1.3091 -2.2351  0.0893
59427SOL    HW290261   1.929   7.311  13.294 -1.9659 -0.6544 -0.5624
59428SOL     OW90262   2.332   4.952   2.713 -0.0518  0.3011 -0.1623
59428SOL    HW190263   2.237   4.952   2.703 -0.1499  1.3194  0.5679
59428SOL    HW290264   2.352   5.036   2.755  1.5371  1.7382 -3.4469
59429SOL     OW90265   3.649   4.176   9.510  0.0220 -0.2812  0.0177
59429SOL    HW190266   3.622   4.104   9.567  1.8270 -2.0270 -1.1679
59429SOL    HW290267   3.718   4.221   9.559  0.0517 -0.4211  0.1060
59430SOL     OW90268   4.973   8.488   0.561 -0.4948 -0.1423  1.0389
59430SOL    HW190269   5.057   8.525   0.533 -1.2602  1.0408  0.2398
59430SOL    HW290270   4.994   8.437   0.640  0.9918 -0.0191  0.7460
59431SOL     OW90271  13.931   6.927   2.397  0.0844 -0.0549  0.0301
59431SOL    HW190272  13.897   6.955   2.312  0.4037 -0.7077 -0.3206
59431SOL    HW290273  13.993   6.995   2.423  0.3843 -0.1165 -0.5159
59432SOL     OW90274   7.280   7.296   3.519 -0.5568  0.0229 -0.1338
59432SOL    HW190275   7.197   7.289   3.471 -0.2482  0.1153 -0.6996
59432SOL    HW290276   7.346   7.264   3.457 -0.4582 -2.7793  1.2620
59433SOL     OW90277  12.454   1.784   1.048 -0.4652 -0.1612 -0.3599
59433SOL    HW190278  12.465   1.715   1.114  1.4967  2.1315  1.9269
59433SOL    HW290279  12.523   1.766   0.984 -1.1535 -1.3006 -0.8275
59434SOL     OW90280   8.555   8.297   5.349  0.0551 -0.5241 -0.5528
59434SOL    HW190281   8.580   8.206   5.362 -0.8037 -1.0727 -2.3607
59434SOL    HW290282   8.471   8.292   5.303 -1.0754  1.2100  1.1581
59435SOL     OW90283   7.688  10.222   1.359  0.6395  0.1207  0.1596
59435SOL    HW190284   7.707  10.223   1.265  1.2326 -2.3828  0.1714
59435SOL    HW290285   7.767  10.260   1.399  0.9291  0.0082 -0.2924
59436SOL     OW90286   3.068   2.991   6.612  0.5398  0.0249  0.9037
59436SOL    HW190287   3.020   3.074   6.606 -0.2864 -0.5111 -1.0753
59436SOL    HW290288   3.012   2.935   6.666 -0.2821 -0.0468  0.0223
59437SOL     OW90289   4.658  11.102   8.623  0.2856 -0.1877 -0.1762
59437SOL    HW190290   4.689  11.079   8.535 -0.8335 -0.9394 -0.3977
59437SOL    HW290291   4.586  11.041   8.639  0.5600 -0.1445  1.3241
59438SOL     OW90292   2.946  11.646   8.000  0.5297 -0.0080 -0.0149
59438SOL    HW190293   2.876  11.655   7.935 -0.1241  0.3160  0.7298
59438SOL    HW290294   2.912  11.583   8.063  0.1227  1.5398  1.3696
59439SOL     OW90295   0.168  10.450  13.072  0.1516 -0.0643 -0.0759
59439SOL    HW190296   0.106  10.418  13.138 -1.6708  0.9034 -1.2418
59439SOL    HW290297   0.247  10.471  13.122 -0.6183 -0.8572  1.5524
59440SOL     OW90298   4.830  11.849  10.388  0.4412 -0.4049 -0.0695
59440SOL    HW190299   4.830  11.806  10.474 -1.6143 -0.4048 -0.0107
59440SOL    HW290300   4.760  11.805  10.340 -0.2213  1.3479 -0.7956
59441SOL     OW90301   9.412   4.637   2.387  0.1149 -0.2382  0.0075
59441SOL    HW190302   9.351   4.622   2.314  0.3857  1.6869 -0.6517
59441SOL    HW290303   9.387   4.571   2.452 -1.9786 -0.2046 -0.6754
59442SOL     OW90304  12.444   9.482   2.856 -0.1643 -0.3470  0.2216
59442SOL    HW190305  12.486   9.426   2.921  0.5064  0.9473  0.9401
59442SOL    HW290306  12.352   9.486   2.883 -0.1470 -0.8088  0.3584
59443SOL     OW90307  13.030   2.783   0.636 -0.2737  0.6009 -0.4007
59443SOL    HW190308  13.093   2.837   0.682  0.6884  1.1576 -2.2966
59443SOL    HW290309  13.081   2.738   0.568 -1.5986 -0.2822 -0.8551
59444SOL     OW90310   3.787  10.129  13.586  0.1924  0.1523  0.0428
59444SOL    HW190311   3.712  10.188  13.587 -0.0772  0.1227 -3.7878
59444SOL    HW290312   3.863  10.187  13.591 -0.0657  1.0372 -3.6510
59445SOL     OW90313  13.454   1.199   8.019  0.2381  0.4126 -0.1184
59445SOL    HW190314  13.378   1.172   8.071 -0.4838  0.9623 -0.8590
59445SOL    HW290315  13.447   1.294   8.012 -0.7839  0.2462 -2.7743
59446SOL     OW90316   2.841   2.635   6.469  0.4582 -0.1384  0.2797
59446SOL    HW190317   2.853   2.543   6.490  0.0578 -0.5389 -1.1228
59446SOL    HW290318   2.804   2.674   6.548 -0.9297 -1.5198  0.3427
59447SOL     OW90319  12.945  11.037   9.168 -0.6980  0.0503  0.1101
59447SOL    HW190320  12.962  10.976   9.240  0.1093  1.9817  1.6407
59447SOL    HW290321  12.887  11.103   9.206 -2.0517 -0.0246 -1.6769
59448SOL     OW90322   4.161   7.224  10.995 -0.2572  0.5107  0.3620
59448SOL    HW190323   4.066   7.212  10.986 -0.3161 -0.4075  1.9041
59448SOL    HW290324   4.199   7.144  10.960 -0.0770  0.6371  0.2658
59449SOL     OW90325  13.390   1.480   6.432 -0.2907 -0.0534 -0.0256
59449SOL    HW190326  13.359   1.436   6.353 -3.1198  0.0431  0.9241
59449SOL    HW290327  13.323   1.461   6.498  0.9700  1.5066  1.8078
59450SOL     OW90328   6.878   4.183   2.643 -0.4490 -0.1143 -0.2186
59450SOL    HW190329   6.791   4.154   2.615  0.4310  0.1065 -3.6349
59450SOL    HW290330   6.924   4.101   2.664 -1.6168 -0.1886  2.5243
59451SOL     OW90331  13.180  10.437   7.874  0.3815 -0.0322  0.2661
59451SOL    HW190332  13.173  10.402   7.963 -0.9831 -1.1523 -0.2505
59451SOL    HW290333  13.179  10.532   7.886 -0.3164 -0.1643  1.4379
59452SOL     OW90334  12.039   4.471  12.719 -0.2542  0.3609  0.3964
59452SOL    HW190335  12.049   4.413  12.644  0.0334  1.4916 -0.4630
59452SOL    HW290336  11.944   4.482  12.729 -0.3163 -0.3854  0.6807
59453SOL     OW90337   5.471  11.737   1.370 -0.0835 -0.1102  0.1717
59453SOL    HW190338   5.405  11.797   1.335  1.1340  0.9467 -0.3714
59453SOL    HW290339   5.539  11.734   1.304 -1.2587 -4.2870 -1.1472
59454SOL     OW90340   1.047   2.579   3.662  0.4639  0.1188 -0.6180
59454SOL    HW190341   1.140   2.557   3.661  0.2859 -0.7282  0.4213
59454SOL    HW290342   1.044   2.667   3.700  0.7755 -0.1974  0.1464
59455SOL     OW90343   5.712   9.752  12.329  0.4596 -0.3498  0.6578
59455SOL    HW190344   5.640   9.767  12.391  0.1520  1.3538 -0.0612
59455SOL    HW290345   5.688   9.803  12.252  2.2063 -0.1711  0.2091
59456SOL     OW90346  11.159  12.928   3.314 -0.2099  0.3694 -0.3975
59456SOL    HW190347  11.184  13.020   3.320 -1.2393  0.6884 -0.8021
59456SOL    HW290348  11.075  12.929   3.267 -0.4793 -0.7284  0.0368
59457SOL     OW90349   3.777   6.742  11.755  0.2159  0.4176  0.0054
59457SOL    HW190350   3.798   6.792  11.835 -2.9800  0.5422  0.9096
59457SOL    HW290351   3.851   6.682  11.744  1.0436  0.7824  2.7797
59458SOL     OW90352   0.015   1.938   0.520  0.6615 -0.3171 -0.2998
59458SOL    HW190353  -0.073   1.975   0.516  0.3642 -0.4141  2.9436
59458SOL    HW290354   0.045   1.938   0.429 -3.1672 -1.5491 -1.7705
59459SOL     OW90355   5.976   2.559  13.026 -0.0931 -0.5636  0.6464
59459SOL    HW190356   5.956   2.596  12.941  0.4205 -0.1282  0.7099
59459SOL    HW290357   5.894   2.565  13.076 -0.1893 -0.1384  0.4321
59460SOL     OW90358   5.830   2.280   5.700 -0.1058 -0.3525  0.1175
59460SOL    HW190359   5.747   2.311   5.661 -1.1002 -0.1657  2.2556
59460SOL    HW290360   5.809   2.193   5.733  0.7048 -0.4910  0.2681
59461SOL     OW90361   8.846   4.829  10.267 -0.1365 -0.1874  0.1235
59461SOL    HW190362   8.824   4.898  10.204 -0.5379 -1.6425 -1.4123
59461SOL    HW290363   8.914   4.777  10.223 -0.0674 -0.9473  1.0990
59462SOL     OW90364   4.689   0.588  13.675 -0.4169  0.1332  0.0449
59462SOL    HW190365   4.769   0.537  13.685 -0.8440 -0.4273  0.7030
59462SOL    HW290366   4.707   0.647  13.602  0.9031  0.6187  0.7250
59463SOL     OW90367  13.256   7.650   0.052  0.1394 -0.0827 -0.2639
59463SOL    HW190368  13.243   7.682  -0.037  0.5447 -0.7069 -0.5583
59463SOL    HW290369  13.168   7.632   0.084  0.0484 -1.1722 -1.0514
59464SOL     OW90370   8.674   9.686  12.686 -0.3130 -0.2463 -0.0610
59464SOL    HW190371   8.585   9.651  12.685 -0.2121 -0.5636  0.9431
59464SOL    HW290372   8.668   9.767  12.737  0.3898 -1.5857  2.3348
59465SOL     OW90373   1.653   3.781  13.773  0.4940  0.0121 -0.2054
59465SOL    HW190374   1.639   3.873  13.749  0.6869 -0.3076 -1.5961
59465SOL    HW290375   1.724   3.784  13.837  0.5813  0.8190 -0.3259
59466SOL     OW90376  11.489   7.830   0.499 -0.2299 -0.6073  0.6030
59466SOL    HW190377  11.545   7.760   0.533  0.2347  0.7787  2.8664
59466SOL    HW290378  11.437   7.858   0.574 -1.8542  0.1787 -0.7404
59467SOL     OW90379   4.153   0.234   7.735  0.7955  0.2574 -0.0895
59467SOL    HW190380   4.178   0.151   7.775 -0.0747  0.2324  0.4323
59467SOL    HW290381   4.061   0.247   7.761  0.8461  1.2658 -0.3560
59468SOL     OW90382   7.843   6.975   0.582 -0.6467  0.0467  0.0057
59468SOL    HW190383   7.888   6.891   0.594 -0.9392 -0.1327 -0.1495
59468SOL    HW290384   7.874   7.008   0.497 -1.7317 -0.6676 -0.6994
59469SOL     OW90385  13.658   8.317   1.169  0.0119 -0.3329 -0.3117
59469SOL    HW190386  13.740   8.275   1.145 -1.0431 -1.8146 -1.4648
59469SOL    HW290387  13.640   8.286   1.258 -0.3526 -1.7302 -0.8533
59470SOL     OW90388   2.903  12.162   8.750 -0.2701  0.4313  0.1239
59470SOL    HW190389   2.987  12.117   8.749 -0.2826  0.2582  2.1666
59470SOL    HW290390   2.860  12.134   8.669  1.5504  0.4196 -0.8920
59471SOL     OW90391  10.173   0.210   9.624 -0.0235  0.8814 -1.0912
59471SOL    HW190392  10.111   0.283   9.635 -1.4350 -0.3931 -0.1115
59471SOL    HW290393  10.185   0.176   9.713  1.2354  0.4030 -1.4312
59472SOL     OW90394   6.440   9.790  13.063  0.4142  0.2341  0.2761
59472SOL    HW190395   6.391   9.741  13.129 -0.3759  0.1700 -0.3411
59472SOL    HW290396   6.525   9.747  13.059 -0.0603 -0.7123  0.1788
59473SOL     OW90397   9.926   1.287   5.489  0.3910 -0.0198 -0.3930
59473SOL    HW190398   9.963   1.208   5.529  3.5050  1.0735 -0.8698
59473SOL    HW290399   9.969   1.294   5.404 -0.2330  1.9070 -0.6076
59474SOL     OW90400   5.337   3.697  10.063  0.1057  0.2494 -0.2748
59474SOL    HW190401   5.398   3.759  10.023  0.4280 -0.2853 -0.6128
59474SOL    HW290402   5.392   3.623  10.090 -0.4526 -0.4290 -0.9692
59475SOL     OW90403   3.675   4.637  13.436  0.2250 -0.1364  0.4368
59475SOL    HW190404   3.671   4.594  13.351  0.7108  0.9956 -0.1788
59475SOL    HW290405   3.603   4.598  13.486  1.4470 -2.6230  0.4178
59476SOL     OW90406   0.778   2.279  10.571  0.0337 -0.2711 -0.4355
59476SOL    HW190407   0.743   2.315  10.490  1.1873 -1.1493 -1.3674
59476SOL    HW290408   0.748   2.188  10.572 -0.5069 -0.0957  0.4571
59477SOL     OW90409   9.395   4.178   2.537  0.1506  0.1563 -0.3789
59477SOL    HW190410   9.392   4.108   2.471 -0.2010  0.1004 -0.3029
59477SOL    HW290411   9.485   4.177   2.568  0.0263 -0.5881 -0.0257
59478SOL     OW90412   8.488   8.862  11.866 -0.2635  0.2324 -0.0380
59478SOL    HW190413   8.420   8.859  11.933 -0.7603 -0.0282 -0.5405
59478SOL    HW290414   8.568   8.836  11.912 -0.5970  0.0486  0.4485
59479SOL     OW90415   1.947   7.868   1.633 -0.4228  0.3787  0.2011
59479SOL    HW190416   2.024   7.817   1.662  0.1624  1.5109  0.6964
59479SOL    HW290417   1.957   7.873   1.538 -0.0163  0.3089  0.2358
59480SOL     OW90418   2.637  13.150  12.282 -0.1942  0.4141  0.1856
59480SOL    HW190419   2.616  13.095  12.207  1.5717  1.7487 -1.3678
59480SOL    HW290420   2.555  13.193  12.305 -0.5148  0.9951 -1.8732
59481SOL     OW90421  13.599   0.461   0.777  0.3701  0.2964  0.2550
59481SOL    HW190422  13.579   0.492   0.866  2.5771  0.9132  0.5862
59481SOL    HW290423  13.653   0.529   0.739  1.6217 -1.1246 -0.6246
59482SOL     OW90424   7.987   6.693  13.431  0.1926 -0.2245 -0.7597
59482SOL    HW190425   7.990   6.774  13.379 -1.0173 -0.7791 -1.7546
59482SOL    HW290426   7.999   6.721  13.521 -0.0840  1.0557 -1.1059
59483SOL     OW90427  11.501   1.740  12.776 -0.3524 -0.8758  0.8982
59483SOL    HW190428  11.584   1.724  12.732  1.0713  2.2311  2.1047
59483SOL    HW290429  11.438   1.751  12.705  0.4138 -2.4298 -0.0757
59484SOL     OW90430   8.637   2.618  10.628  0.4433  0.1379  0.3425
59484SOL    HW190431   8.620   2.712  10.641  0.4775  0.3204 -0.8562
59484SOL    HW290432   8.568   2.589  10.569  0.4456 -0.6005  0.6966
59485SOL     OW90433   2.094  11.398   5.034  0.1055 -0.2941 -0.5442
59485SOL    HW190434   2.071  11.373   4.945 -0.4161 -0.9911 -0.2240
59485SOL    HW290435   2.111  11.315   5.079 -1.4897 -0.0888  0.5025
59486SOL     OW90436   8.927   1.546  13.662 -0.1122 -0.3609 -0.0687
59486SOL    HW190437   8.962   1.474  13.610  0.5640 -2.0314  2.5452
59486SOL    HW290438   8.863   1.505  13.720 -0.6676  1.3762  0.6276
59487SOL     OW90439  10.143   5.528   8.650  0.5533 -0.2525 -0.0493
59487SOL    HW190440  10.157   5.570   8.565 -0.4785 -0.4409 -0.3236
59487SOL    HW290441  10.227   5.538   8.696  0.9237  0.3992 -0.8476
59488SOL     OW90442   2.713   1.002   7.410  0.1731  0.3831 -0.1512
59488SOL    HW190443   2.746   1.021   7.323 -0.9742  0.0847 -0.6689
59488SOL    HW290444   2.774   1.046   7.469  0.6024  1.1276 -1.1248
59489SOL     OW90445   7.484   0.082  12.370 -0.0003 -0.3863 -0.1689
59489SOL    HW190446   7.419   0.132  12.420 -0.3571  0.5645 -1.5390
59489SOL    HW290447   7.525   0.146  12.313  1.0514 -1.2812 -0.4409
59490SOL     OW90448   4.916   4.390   0.757 -0.7405 -0.0416  0.3404
59490SOL    HW190449   4.981   4.358   0.819 -2.1537 -0.3865  1.6881
59490SOL    HW290450   4.906   4.482   0.778 -0.4245  0.1032 -0.1251
59491SOL     OW90451   5.251   1.884   9.319  0.1064 -0.0861  0.2105
59491SOL    HW190452   5.257   1.897   9.224  0.1450 -0.2549  0.1912
59491SOL    HW290453   5.174   1.828   9.330  0.5133 -0.6509  0.2291
59492SOL     OW90454   5.093   0.097  13.684 -0.3100 -0.1461 -0.6022
59492SOL    HW190455   5.185   0.089  13.658  0.4692 -0.7834  2.0376
59492SOL    HW290456   5.094   0.157  13.758 -1.8043 -1.2556  0.3903
59493SOL     OW90457   3.561  12.377   0.851 -0.5535  0.6965 -0.2391
59493SOL    HW190458   3.621  12.413   0.916 -0.1830  0.0367 -0.2029
59493SOL    HW290459   3.617  12.326   0.793 -1.0393  0.3365 -0.3929
59494SOL     OW90460   1.732   7.089   5.521  0.0670 -0.3932 -0.6534
59494SOL    HW190461   1.738   7.175   5.563 -0.9177 -0.5632 -0.1314
59494SOL    HW290462   1.719   7.027   5.593 -0.1784 -0.8638 -1.0926
59495SOL     OW90463   5.325   5.888  13.313  0.0861  0.1503 -0.0547
59495SOL    HW190464   5.412   5.848  13.314  0.0955  0.1754  0.4663
59495SOL    HW290465   5.334   5.966  13.260  1.1637  1.8742  2.4766
59496SOL     OW90466   2.104  10.165   6.099 -0.6767  0.4968  0.3000
59496SOL    HW190467   2.098  10.135   6.190 -0.6590  0.4305  0.2797
59496SOL    HW290468   2.159  10.099   6.056  0.0228  0.9800  0.4394
59497SOL     OW90469   9.616  11.729  13.967 -0.1374  0.4135 -0.5313
59497SOL    HW190470   9.574  11.694  14.045 -1.4627  0.6643 -1.0995
59497SOL    HW290471   9.602  11.823  13.972 -1.4213  0.3302 -1.6834
59498SOL     OW90472   8.851  10.346  10.959 -0.0521  0.1433 -0.5506
59498SOL    HW190473   8.826  10.398  11.036 -0.0523 -1.1131  0.3155
59498SOL    HW290474   8.767  10.316  10.923  0.0249 -0.8736  0.1000
59499SOL     OW90475   2.506   9.067   0.403 -0.0701 -0.2787 -0.0867
59499SOL    HW190476   2.580   9.021   0.443  1.0027  1.5380  0.1607
59499SOL    HW290477   2.459   9.106   0.477  0.3402  0.8291 -0.3833
59500SOL     OW90478   6.847   2.723   3.206  0.9651 -0.3289  0.1392
59500SOL    HW190479   6.781   2.654   3.215 -0.8860  1.2735 -0.6253
59500SOL    HW290480   6.839   2.775   3.285  0.4304  0.5743 -0.4881
59501SOL     OW90481  11.395  12.172   8.627  0.2489  0.2444  0.0189
59501SOL    HW190482  11.347  12.096   8.594  0.9686 -0.7961  1.2995
59501SOL    HW290483  11.387  12.167   8.722  1.0947  1.2562  0.1649
59502SOL     OW90484   0.764  10.253   3.358  0.3834  0.1109  0.4864
59502SOL    HW190485   0.682  10.247   3.309  1.1365 -0.3397 -0.7506
59502SOL    HW290486   0.774  10.346   3.376 -0.9762  0.0668  1.6974
59503SOL     OW90487   9.401   9.535   3.399  0.1129 -0.0426  0.2968
59503SOL    HW190488   9.306   9.543   3.410  0.1338 -0.1125  0.5326
59503SOL    HW290489   9.434   9.622   3.421  0.4033 -0.8288  3.6345
59504SOL     OW90490  10.648  11.152  13.452  0.0862 -0.4261  0.4962
59504SOL    HW190491  10.658  11.201  13.371 -1.3338 -1.8834 -0.6193
59504SOL    HW290492  10.554  11.147  13.467  0.2577 -1.4683  1.4069
59505SOL     OW90493  13.026  13.061   1.998  0.3515  0.1896  0.2220
59505SOL    HW190494  12.981  13.141   1.971  1.1234  1.5513  2.6622
59505SOL    HW290495  12.991  13.042   2.085  2.3757 -0.3362  0.9794
59506SOL     OW90496   3.947   0.250  13.053  0.3986 -0.0162 -0.5071
59506SOL    HW190497   3.968   0.340  13.079 -0.3455 -0.1374  0.5723
59506SOL    HW290498   3.952   0.251  12.957  0.1665  1.2387 -0.5215
59507SOL     OW90499   1.759   4.021   8.347 -0.3450  0.0676 -0.3423
59507SOL    HW190500   1.738   3.957   8.415 -0.7102 -0.5325 -1.0063
59507SOL    HW290501   1.733   4.105   8.384 -0.6216 -0.2644  0.2222
59508SOL     OW90502  13.049   4.470   8.020  0.3072 -1.1467 -0.4609
59508SOL    HW190503  13.075   4.410   7.950  1.6543 -0.1879 -0.8431
59508SOL    HW290504  13.119   4.462   8.085 -0.3773 -1.2273  0.2784
59509SOL     OW90505   0.930   4.091   9.170 -0.4231  0.0431 -0.6126
59509SOL    HW190506   0.878   4.115   9.093  0.6682 -0.9567 -1.7000
59509SOL    HW290507   0.876   4.028   9.217 -1.6475  1.5957  0.1918
59510SOL     OW90508   9.194  13.585   0.011  0.0756  0.4595 -0.3408
59510SOL    HW190509   9.187  13.674  -0.024  0.6898  0.0070 -1.6622
59510SOL    HW290510   9.270  13.588   0.069  1.5721  0.2642 -2.1958
59511SOL     OW90511   2.554  13.358   2.906 -0.2095 -0.4572 -0.1512
59511SOL    HW190512   2.644  13.365   2.875  0.0967 -0.7648  0.6490
59511SOL    HW290513   2.522  13.276   2.867 -0.5737  0.2583 -1.4473
59512SOL     OW90514   2.452  11.541   6.305  0.2769 -0.0285  0.4024
59512SOL    HW190515   2.471  11.619   6.253  1.7147 -1.5252 -1.4196
59512SOL    HW290516   2.395  11.488   6.250  1.3125 -1.3689  0.5823
59513SOL     OW90517   8.432   3.381   8.601  0.2831  0.3573 -0.1960
59513SOL    HW190518   8.341   3.372   8.571  0.4209 -1.2480 -0.2026
59513SOL    HW290519   8.445   3.476   8.610 -2.1300  0.5753  2.1382
59514SOL     OW90520   4.496   9.901  10.274  0.0702  0.1259  0.0200
59514SOL    HW190521   4.413   9.870  10.311  0.3433 -1.4754 -0.6274
59514SOL    HW290522   4.471   9.937  10.188 -0.0930  0.6536  0.2847
59515SOL     OW90523  13.054   2.080   6.544 -0.5399 -0.0860  0.1077
59515SOL    HW190524  13.128   2.023   6.522 -1.5354 -1.3649  0.0186
59515SOL    HW290525  13.064   2.098   6.637  1.0977  1.5880 -0.3077
59516SOL     OW90526  11.766  11.945  10.213 -0.1011  0.0411 -0.4455
59516SOL    HW190527  11.742  11.881  10.146 -1.2809 -0.7880  0.7309
59516SOL    HW290528  11.706  12.019  10.199 -0.6116 -0.2962 -0.0807
59517SOL     OW90529  13.411  12.535  11.974 -0.4137 -0.1480 -0.7357
59517SOL    HW190530  13.354  12.602  11.937  0.1094 -0.6169 -2.5184
59517SOL    HW290531  13.456  12.578  12.047 -2.8800  0.2783  0.6506
59518SOL     OW90532   3.397   1.985  12.009 -0.7765 -0.5908 -0.2672
59518SOL    HW190533   3.367   1.953  12.094  0.6205  2.1642  1.4107
59518SOL    HW290534   3.317   2.012  11.963 -1.4121  1.0650  1.6582
59519SOL     OW90535   5.195   4.946   9.588  0.3663  0.1233  0.1160
59519SOL    HW190536   5.212   5.039   9.572  1.1059 -0.4132 -2.8900
59519SOL    HW290537   5.112   4.929   9.543 -0.3438 -0.4734  1.6031
59520SOL     OW90538   6.607   6.634   6.124 -0.7011  0.4113  0.3778
59520SOL    HW190539   6.532   6.692   6.137  0.5474  1.9930  0.8977
59520SOL    HW290540   6.678   6.692   6.097 -0.0398 -1.2409 -1.7347
59521SOL     OW90541  10.258   7.665   2.515  0.1431 -0.3240 -0.4981
59521SOL    HW190542  10.267   7.724   2.590 -1.4033 -0.4685 -0.1534
59521SOL    HW290543  10.332   7.605   2.523 -1.4591 -2.1439  2.6354
59522SOL     OW90544  13.369   7.722  11.337  0.1578  0.1088 -0.0810
59522SOL    HW190545  13.409   7.665  11.403 -0.7143  0.3878  0.7138
59522SOL    HW290546  13.359   7.666  11.260  0.8120 -0.3414  0.1501
59523SOL     OW90547   7.874   7.406   1.147  0.1729  0.8324 -0.0083
59523SOL    HW190548   7.789   7.371   1.174  0.5838 -0.3542 -0.1847
59523SOL    HW290549   7.854   7.461   1.071 -0.6806  2.2450  1.1858
59524SOL     OW90550   9.121   2.404  13.662 -0.1730 -0.2880 -0.5941
59524SOL    HW190551   9.111   2.491  13.624  1.3466  0.1250 -0.1113
59524SOL    HW290552   9.065   2.405  13.739 -0.5508  0.0736 -0.8662
59525SOL     OW90553   3.789  11.886  12.885  0.4825  0.2245 -0.2229
59525SOL    HW190554   3.792  11.809  12.942  0.6089  0.4316  0.0484
59525SOL    HW290555   3.794  11.850  12.796  2.0865  0.0042 -0.0704
59526SOL     OW90556   3.437   6.035  12.334  0.2936 -0.5452 -0.0552
59526SOL    HW190557   3.516   6.069  12.377 -0.6515  2.6920 -0.5710
59526SOL    HW290558   3.413   5.959  12.386  1.0924  1.1848  3.1450
59527SOL     OW90559  10.784   9.610   7.848  0.1445  0.1608  0.6014
59527SOL    HW190560  10.726   9.557   7.903 -0.8758  0.2512 -0.3543
59527SOL    HW290561  10.755   9.700   7.862 -1.0829  0.0712 -1.1338
59528SOL     OW90562   0.848   6.279  11.621  0.0463 -0.2662 -0.1135
59528SOL    HW190563   0.833   6.345  11.553 -2.9711  0.3594  0.9897
59528SOL    HW290564   0.904   6.324  11.685  0.4829  0.1596 -0.7780
59529SOL     OW90565  10.491   5.971   9.296 -0.2604  0.1793  0.0369
59529SOL    HW190566  10.542   5.902   9.254 -1.3781 -0.0807 -0.9401
59529SOL    HW290567  10.512   5.963   9.389  1.5355  0.1581 -0.3468
59530SOL     OW90568  12.317   2.563   0.566 -0.5519 -0.7719 -0.6152
59530SOL    HW190569  12.305   2.484   0.514 -1.4480 -0.4199 -0.9517
59530SOL    HW290570  12.367   2.622   0.509  0.4182 -1.2051 -0.2384
59531SOL     OW90571  12.735   6.992   4.308 -0.0057 -0.0645 -0.7368
59531SOL    HW190572  12.645   6.980   4.336  0.9307 -1.0042  2.1682
59531SOL    HW290573  12.763   7.073   4.351  0.5383  0.2949 -1.7187
59532SOL     OW90574   4.587  13.710  13.042 -0.8841  0.7440  0.4317
59532SOL    HW190575   4.565  13.800  13.017 -1.4799 -0.0253 -2.0295
59532SOL    HW290576   4.541  13.655  12.979 -0.2511 -1.3118  1.6593
59533SOL     OW90577   9.784  11.186   5.278 -0.3147  0.0252 -0.1700
59533SOL    HW190578   9.763  11.244   5.204  0.1039  2.6302  1.6185
59533SOL    HW290579   9.858  11.133   5.246 -0.6047  0.5615 -1.8472
59534SOL     OW90580   0.317   4.137   8.087  0.1373  0.1399 -0.1805
59534SOL    HW190581   0.241   4.149   8.143  1.2002  0.4671  1.2654
59534SOL    HW290582   0.349   4.226   8.070 -0.2369  0.0446 -1.4044
59535SOL     OW90583   6.754   7.988  13.450 -0.2679  0.4191  0.1429
59535SOL    HW190584   6.827   8.000  13.389 -1.7877  1.4861 -1.6046
59535SOL    HW290585   6.704   7.916  13.412 -0.4219  0.0447  1.0319
59536SOL     OW90586   6.798  13.257   7.626  0.0041 -0.1245  0.2689
59536SOL    HW190587   6.734  13.324   7.601  0.2580 -0.6078 -1.8174
59536SOL    HW290588   6.774  13.235   7.716 -2.2633  0.2973 -0.1608
59537SOL     OW90589   5.405  10.957   2.133  0.1614 -0.5630 -0.0435
59537SOL    HW190590   5.399  10.983   2.225  1.2891  0.5154 -0.2412
59537SOL    HW290591   5.315  10.941   2.107 -0.3001  0.3253  0.9221
59538SOL     OW90592  14.010   6.185   0.706  0.8807 -0.2672 -0.3126
59538SOL    HW190593  13.995   6.278   0.689  3.2773  0.0922 -0.7665
59538SOL    HW290594  13.985   6.141   0.624 -0.8431 -0.1440  0.1063
59539SOL     OW90595   6.481   9.655  13.740 -0.2984  0.1004 -0.1998
59539SOL    HW190596   6.520   9.727  13.690  1.8475  1.0722  2.5732
59539SOL    HW290597   6.399   9.691  13.773 -0.2869  0.5071 -0.5936
59540SOL     OW90598   2.847   0.150  13.908 -0.3973  0.5424  0.0793
59540SOL    HW190599   2.865   0.063  13.872 -1.1878  0.1270  0.6647
59540SOL    HW290600   2.886   0.211  13.845  0.5146 -0.2439 -0.1349
59541SOL     OW90601   5.742  13.816   3.255  0.0516  0.0304  0.6922
59541SOL    HW190602   5.781  13.779   3.334  1.1355  0.8520  0.5743
59541SOL    HW290603   5.746  13.746   3.190 -2.2343 -1.1673  1.7394
59542SOL     OW90604   8.160   4.861   0.830 -0.4072  0.7534  0.3767
59542SOL    HW190605   8.152   4.773   0.795  1.0163  0.2697  1.2355
59542SOL    HW290606   8.137   4.918   0.756 -1.1805 -0.3053 -0.2260
59543SOL     OW90607   8.356   1.759   2.340  0.3026 -0.1391  0.2103
59543SOL    HW190608   8.273   1.787   2.301  1.2012  3.1698  0.3589
59543SOL    HW290609   8.336   1.747   2.433 -0.3522 -1.0660 -0.0408
59544SOL     OW90610   1.641   4.615  10.606 -0.2310 -0.3567  0.5806
59544SOL    HW190611   1.639   4.685  10.541  2.6849 -0.3983  0.2937
59544SOL    HW290612   1.579   4.643  10.674  0.2085  2.0807  0.0750
59545SOL     OW90613  12.479  10.564   5.975  0.0005 -0.1897 -0.0438
59545SOL    HW190614  12.550  10.550   5.912 -0.4145 -0.1441 -0.5346
59545SOL    HW290615  12.506  10.516   6.053  0.6178 -0.0836 -0.1873
59546SOL     OW90616   6.263  13.623   5.073  0.4830  0.6714  0.1497
59546SOL    HW190617   6.317  13.610   5.151  0.4765 -0.7556 -0.0555
59546SOL    HW290618   6.181  13.579   5.094  0.5671  0.0688 -0.7473
59547SOL     OW90619   4.416   6.066   2.460 -0.4176  0.1980  0.0276
59547SOL    HW190620   4.441   6.098   2.373 -0.5922 -0.8551 -0.4127
59547SOL    HW290621   4.332   6.024   2.447 -1.4188  1.7767  1.1016
59548SOL     OW90622   2.532   2.452  10.199 -0.0471  0.1107  0.6080
59548SOL    HW190623   2.484   2.415  10.272 -1.5646  0.0574 -0.3653
59548SOL    HW290624   2.488   2.417  10.121  0.7767  1.0703 -0.3225
59549SOL     OW90625   3.464   8.518   8.009  0.3477  0.1658  0.4434
59549SOL    HW190626   3.464   8.599   7.959  0.2736  0.8688  1.5542
59549SOL    HW290627   3.537   8.467   7.973 -1.0667 -0.3645 -1.9173
59550SOL     OW90628  11.288   1.858   9.333 -0.0279 -0.0153  0.3047
59550SOL    HW190629  11.322   1.837   9.246  0.4361 -0.0877  0.5022
59550SOL    HW290630  11.201   1.895   9.316 -0.7395 -1.7751 -0.0768
59551SOL     OW90631  13.877   3.325   3.985 -0.2581 -0.2505  0.0291
59551SOL    HW190632  13.857   3.232   4.000 -0.8163  0.1163  1.8678
59551SOL    HW290633  13.817   3.371   4.043 -0.4062  1.3075 -1.3080
59552SOL     OW90634   2.080  13.650   5.857  0.4591  0.5370 -0.0381
59552SOL    HW190635   2.171  13.626   5.843  0.3497  0.9058 -1.4908
59552SOL    HW290636   2.081  13.745   5.868  0.1009  0.7295 -1.5402
59553SOL     OW90637   7.000  12.265   3.591 -0.3673  0.1800  0.5077
59553SOL    HW190638   6.987  12.203   3.519 -1.3570  0.3129  0.5609
59553SOL    HW290639   6.970  12.349   3.556 -0.4540  0.3307  0.9376
59554SOL     OW90640  10.375  12.758   0.565  0.3419 -0.0481 -0.3288
59554SOL    HW190641  10.455  12.780   0.519  1.5398  0.2485  1.7411
59554SOL    HW290642  10.321  12.837   0.560  0.9795  0.4026 -0.2008
59555SOL     OW90643   5.928   2.974   1.421 -0.5139 -0.3413 -0.3379
59555SOL    HW190644   5.844   3.013   1.444 -0.4578  1.2303 -2.5680
59555SOL    HW290645   5.992   3.042   1.438 -0.3801  0.6488 -3.9850
59556SOL     OW90646  12.175   0.532   8.264 -0.3059  0.3412 -0.0257
59556SOL    HW190647  12.097   0.587   8.255  0.4371  1.3257 -0.6923
59556SOL    HW290648  12.210   0.525   8.176  1.1642  1.1613  0.4554
59557SOL     OW90649   5.592  11.315   1.078 -0.4060  0.4179  0.0799
59557SOL    HW190650   5.617  11.401   1.042  1.0952 -0.3023 -0.6867
59557SOL    HW290651   5.508  11.331   1.121  0.0859  2.3930  0.4163
59558SOL     OW90652   3.965   4.371  11.835  0.1611 -0.2563  0.1556
59558SOL    HW190653   3.883   4.371  11.885 -0.2266 -0.1978 -0.4636
59558SOL    HW290654   4.032   4.396  11.898 -0.5589  1.5257  0.2820
59559SOL     OW90655  13.708  11.500   0.212 -0.2922 -0.0559 -0.2195
59559SOL    HW190656  13.797  11.469   0.193  0.1222  1.7341 -1.5092
59559SOL    HW290657  13.667  11.508   0.126 -0.9549  1.1541  0.1832
59560SOL     OW90658   1.957   0.116  12.102  0.0401  0.3854 -0.8215
59560SOL    HW190659   1.984   0.205  12.079  3.5476 -0.5952 -1.0971
59560SOL    HW290660   1.936   0.122  12.196  0.1699  1.4961 -0.8429
59561SOL     OW90661   0.183  12.398  10.474  0.3043  0.2002 -0.2027
59561SOL    HW190662   0.136  12.481  10.481  0.0004 -0.1001  2.1505
59561SOL    HW290663   0.270  12.422  10.442 -0.4030  1.1567 -1.4586
59562SOL     OW90664   3.074   7.309   3.985 -0.3190 -0.5424  0.8053
59562SOL    HW190665   3.017   7.335   3.912  0.2713 -1.1015  0.1289
59562SOL    HW290666   3.014   7.269   4.048 -0.6805 -1.2191  0.0561
59563SOL     OW90667   1.994  13.198   5.179  0.3561 -0.2625 -0.0666
59563SOL    HW190668   1.931  13.225   5.244 -2.0998 -0.9119 -2.0161
59563SOL    HW290669   2.048  13.276   5.163 -2.1095  1.4324 -0.6638
59564SOL     OW90670   1.486   3.603   7.245  0.6225 -0.9847 -0.5067
59564SOL    HW190671   1.409   3.551   7.220  0.8736 -0.4320 -2.6081
59564SOL    HW290672   1.498   3.665   7.173  1.4712  0.7465  1.0393
59565SOL     OW90673  10.824   3.627   7.961 -0.3315 -0.3334  0.3520
59565SOL    HW190674  10.736   3.642   7.996 -1.0649 -1.3356 -0.9526
59565SOL    HW290675  10.859   3.556   8.014 -0.2303  0.1931  0.9974
59566SOL     OW90676   9.061  12.494   2.331  0.1455  0.2705  0.2092
59566SOL    HW190677   9.040  12.501   2.238  2.2590 -1.9951 -0.5422
59566SOL    HW290678   9.119  12.569   2.348  1.1674 -0.2501 -0.8090
59567SOL     OW90679   4.874   3.535   0.277  0.1188  0.0567 -0.1796
59567SOL    HW190680   4.956   3.518   0.323 -0.1372  0.1281  0.3106
59567SOL    HW290681   4.901   3.561   0.190  0.6159 -0.0129 -0.0526
59568SOL     OW90682   9.648   7.578   8.426 -0.0562  0.3019  0.0717
59568SOL    HW190683   9.584   7.584   8.355 -0.1718  1.4127  0.2564
59568SOL    HW290684   9.671   7.669   8.446  1.4169 -0.0563  0.1658
59569SOL     OW90685   7.546   6.946   9.961  0.0520 -0.1663  0.0690
59569SOL    HW190686   7.465   6.962   9.912  0.2114  1.3626  0.2603
59569SOL    HW290687   7.516   6.920  10.048 -0.2498  0.9731  0.3172
59570SOL     OW90688   7.439  11.873  11.139  0.0324 -0.0857  0.0535
59570SOL    HW190689   7.500  11.909  11.203 -0.1859  0.4485 -0.0348
59570SOL    HW290690   7.430  11.942  11.073 -1.6638  0.3813  0.7210
59571SOL     OW90691  12.713   5.822   3.166  0.0695 -0.4265  0.3909
59571SOL    HW190692  12.649   5.763   3.207 -1.0907  2.0756  2.4569
59571SOL    HW290693  12.661   5.883   3.116  0.8985  0.9447  1.1418
59572SOL     OW90694   4.582   1.841  11.642  0.6606 -0.2539 -0.1411
59572SOL    HW190695   4.554   1.790  11.718  0.6772  0.8331  0.6300
59572SOL    HW290696   4.624   1.778  11.584  0.2961 -1.1778  0.5833
59573SOL     OW90697   5.533   8.855  10.684 -0.9244 -0.3803 -0.6567
59573SOL    HW190698   5.447   8.870  10.723 -1.1883  1.0816 -1.7128
59573SOL    HW290699   5.540   8.921  10.614  0.8993 -0.7046 -0.8383
59574SOL     OW90700  11.526   4.786  10.185 -0.3827  0.5665 -0.0905
59574SOL    HW190701  11.541   4.880  10.191 -0.3766  0.5438  0.2508
59574SOL    HW290702  11.431   4.776  10.179 -0.5133  0.5124  1.5706
59575SOL     OW90703   2.636   8.225   3.784 -0.2278 -0.2974 -0.5028
59575SOL    HW190704   2.628   8.187   3.872 -0.5949  0.1675 -0.3316
59575SOL    HW290705   2.547   8.247   3.759  0.0111  0.8034 -0.4349
59576SOL     OW90706   1.778  12.902  11.483 -0.4528 -0.2096 -0.5821
59576SOL    HW190707   1.868  12.870  11.489 -0.2408  0.5743  0.7564
59576SOL    HW290708   1.724  12.825  11.501 -0.0740 -0.7502 -1.6733
59577SOL     OW90709  12.675  10.078   2.815 -0.1125  0.2806  0.3555
59577SOL    HW190710  12.725  10.036   2.745  0.5018 -0.2503  1.0993
59577SOL    HW290711  12.586  10.083   2.781  0.0207 -0.6680 -0.1619
59578SOL     OW90712  10.483  10.863   3.610 -0.5698  0.7016 -0.6610
59578SOL    HW190713  10.537  10.801   3.561 -0.6761  0.3520 -0.3406
59578SOL    HW290714  10.493  10.836   3.702  0.4935  2.0204 -0.3691
59579SOL     OW90715   4.749   5.876  11.541 -0.0298  0.4220 -0.1816
59579SOL    HW190716   4.676   5.926  11.507 -0.2277 -0.6008 -1.3130
59579SOL    HW290717   4.717   5.841  11.625 -0.2118  1.3787  0.1622
59580SOL     OW90718   4.182  12.923  11.412  0.0135  0.3259 -0.1641
59580SOL    HW190719   4.134  12.884  11.339  1.4307 -2.4995  0.2582
59580SOL    HW290720   4.115  12.967  11.465 -1.4436 -0.0100 -1.6677
59581SOL     OW90721   3.989   3.346   6.018 -0.7647  1.1729  0.6531
59581SOL    HW190722   3.930   3.279   6.051  0.5862 -0.1788  0.4754
59581SOL    HW290723   3.943   3.386   5.944 -0.1553 -2.3869 -1.9461
59582SOL     OW90724  14.043  12.327  11.904  1.1779 -0.3928  0.0031
59582SOL    HW190725  14.047  12.266  11.977 -0.3024 -0.6559 -0.1006
59582SOL    HW290726  13.952  12.358  11.904  1.4007  0.3069 -1.1509
59583SOL     OW90727   5.499  12.233   6.654  0.4717  0.5329 -0.0172
59583SOL    HW190728   5.505  12.197   6.565 -1.3420  3.5897 -1.5747
59583SOL    HW290729   5.439  12.175   6.700 -0.0702 -0.1011 -1.4524
59584SOL     OW90730   0.764   0.743  10.401 -0.2962 -0.2065  0.1779
59584SOL    HW190731   0.671   0.764  10.414  0.2712  4.4717 -1.3682
59584SOL    HW290732   0.775   0.744  10.306  1.2267 -1.6980  0.2966
59585SOL     OW90733  13.838  13.651   5.938 -0.2934  0.1362 -0.3773
59585SOL    HW190734  13.897  13.683   5.869 -0.7815 -0.7424 -1.2387
59585SOL    HW290735  13.848  13.556   5.935  0.0721  0.1078  1.1478
59586SOL     OW90736   6.327   9.941   9.175  0.8320  0.2530  0.4027
59586SOL    HW190737   6.362  10.005   9.238  0.6225  0.2677  0.5031
59586SOL    HW290738   6.389   9.944   9.102  1.3774 -0.1582  0.8378
59587SOL     OW90739   7.690   3.880  10.583 -0.3600  0.0687  0.0837
59587SOL    HW190740   7.736   3.958  10.554 -1.4781  0.0239 -1.9637
59587SOL    HW290741   7.597   3.903  10.576 -0.6966 -0.9548  0.8826
59588SOL     OW90742   9.602   2.325   5.324  0.1507  0.3794  0.3884
59588SOL    HW190743   9.600   2.303   5.231 -0.0971 -0.3958  0.5670
59588SOL    HW290744   9.511   2.346   5.345  0.0109 -0.4573  0.6740
59589SOL     OW90745   8.546   9.875  11.361  0.0093  0.0545 -0.1587
59589SOL    HW190746   8.637   9.849  11.345 -0.4656 -0.8146 -1.6314
59589SOL    HW290747   8.550   9.930  11.439  1.7815 -0.0692 -0.1276
59590SOL     OW90748   6.972   5.851  11.520  0.2051 -0.4858  0.6079
59590SOL    HW190749   7.014   5.907  11.585 -1.2805 -0.1476  1.3198
59590SOL    HW290750   7.004   5.883  11.436  1.4303 -0.3253  1.1264
59591SOL     OW90751   1.139   5.711   7.631  0.5357 -0.3411  0.0967
59591SOL    HW190752   1.230   5.738   7.625  0.3446  0.0300 -2.1298
59591SOL    HW290753   1.109   5.707   7.540 -1.7436 -0.1893  0.7730
59592SOL     OW90754   8.442  10.667   7.538 -0.1577 -0.4507  0.2451
59592SOL    HW190755   8.418  10.583   7.497  0.4238  0.5812 -2.4478
59592SOL    HW290756   8.537  10.661   7.549 -0.3817 -0.9498  2.1211
59593SOL     OW90757   1.871   5.222   5.087  0.5198 -0.1438 -0.8222
59593SOL    HW190758   1.796   5.227   5.028  0.3101 -1.1755 -0.6621
59593SOL    HW290759   1.925   5.151   5.052 -0.7745 -2.4720  1.4625
59594SOL     OW90760   0.654   6.775   2.295  0.3905 -0.0822 -0.2196
59594SOL    HW190761   0.683   6.848   2.350  1.5627 -0.7147  0.0226
59594SOL    HW290762   0.731   6.750   2.244 -1.0752  1.6620 -3.5997
59595SOL     OW90763  10.536   4.151  11.173 -0.0275 -0.8329 -0.2713
59595SOL    HW190764  10.579   4.098  11.106  0.3076 -0.4407 -0.3678
59595SOL    HW290765  10.540   4.240  11.139  1.4413 -0.4106  0.9123
59596SOL     OW90766   5.482   6.590   2.309  0.5485 -0.1160  0.1176
59596SOL    HW190767   5.456   6.662   2.367  0.8626  0.7288 -0.7600
59596SOL    HW290768   5.418   6.593   2.238  0.1059 -1.2068  0.4452
59597SOL     OW90769   8.986   0.935   5.037 -0.0170 -0.6903  0.0160
59597SOL    HW190770   9.053   0.884   5.083  0.5773 -0.8347 -0.9855
59597SOL    HW290771   8.991   1.022   5.077  0.8162 -0.6787 -0.0844
59598SOL     OW90772  10.190   7.346   6.778  0.1510  0.7748 -0.0870
59598SOL    HW190773  10.150   7.274   6.730 -0.1410  0.9707 -0.1413
59598SOL    HW290774  10.170   7.328   6.870  1.3315  0.0155  0.0307
59599SOL     OW90775   8.533  11.201   3.751 -0.7333 -0.8002 -0.2073
59599SOL    HW190776   8.525  11.284   3.797  0.8537  0.8565 -2.6115
59599SOL    HW290777   8.449  11.189   3.707 -1.6778 -1.5751  1.7031
59600SOL     OW90778   7.131   4.517   7.315  0.2150  0.4594  0.0259
59600SOL    HW190779   7.053   4.545   7.267  0.6742 -0.6007 -1.4255
59600SOL    HW290780   7.115   4.424   7.332  0.4046  0.6516  1.2727
59601SOL     OW90781  11.755  10.051   6.490 -0.1549 -0.1072  0.4921
59601SOL    HW190782  11.817  10.047   6.416  0.7595  2.8198  0.9741
59601SOL    HW290783  11.796   9.998   6.558  2.0858  1.9124  0.8662
59602SOL     OW90784   8.912   7.764   2.611 -0.9994 -0.3752  0.4041
59602SOL    HW190785   8.959   7.688   2.578  0.1313  0.3484  0.3186
59602SOL    HW290786   8.960   7.791   2.688 -1.6890 -0.0358  0.7263
59603SOL     OW90787   6.551   1.127   8.128  0.0898  0.2416 -0.3949
59603SOL    HW190788   6.533   1.185   8.054 -1.1237  0.4506  0.0362
59603SOL    HW290789   6.501   1.048   8.108  0.9570 -0.2905 -0.5097
59604SOL     OW90790   4.811   5.714  10.244  0.0434 -0.3263  0.6683
59604SOL    HW190791   4.852   5.702  10.159  0.6527  0.0136  0.9151
59604SOL    HW290792   4.787   5.625  10.271 -0.9298 -0.3579 -0.2290
59605SOL     OW90793  10.133   0.801   8.963 -0.1458  0.6250 -0.2324
59605SOL    HW190794  10.228   0.804   8.970 -0.2388  0.9258  1.3332
59605SOL    HW290795  10.116   0.783   8.870  1.4594 -1.4882 -0.2024
59606SOL     OW90796   0.626  12.173  13.617  0.8668  0.2573  0.1779
59606SOL    HW190797   0.635  12.106  13.548 -0.1361 -0.5106  0.7646
59606SOL    HW290798   0.566  12.237  13.581  1.8393  0.8761 -0.3916
59607SOL     OW90799  10.164   4.092   6.163  0.4243 -0.5175  0.0945
59607SOL    HW190800  10.071   4.076   6.180  0.5306 -0.8597  0.3463
59607SOL    HW290801  10.165   4.139   6.079  0.1040 -1.7222 -0.6031
59608SOL     OW90802  12.281  13.582  13.757 -0.5952 -0.4439 -0.1734
59608SOL    HW190803  12.326  13.545  13.833 -0.4867 -0.3376 -0.1837
59608SOL    HW290804  12.327  13.546  13.682 -0.4173 -0.2046 -0.1827
59609SOL     OW90805  12.573  11.265  11.141 -0.0695 -0.3434  0.0835
59609SOL    HW190806  12.517  11.198  11.181 -2.1512  0.6877 -0.9331
59609SOL    HW290807  12.661  11.227  11.143 -0.8806 -2.3430  1.1244
59610SOL     OW90808   5.322  11.515  13.441  0.1079  0.3258 -0.0732
59610SOL    HW190809   5.335  11.598  13.486  1.9148 -0.8946  1.7969
59610SOL    HW290810   5.357  11.529  13.353  2.3447  0.9924  0.8624
59611SOL     OW90811   7.546   0.165  10.612  0.2968 -0.2171  0.1164
59611SOL    HW190812   7.515   0.151  10.522  2.0956 -0.3278 -0.5320
59611SOL    HW290813   7.581   0.080  10.639  0.5679  0.0386  0.5832
59612SOL     OW90814  12.720  13.565   4.634  0.0003  0.0999 -0.6525
59612SOL    HW190815  12.641  13.515   4.654 -0.2966  0.7132 -0.2612
59612SOL    HW290816  12.695  13.621   4.560 -0.0287  0.5097 -0.3388
59613SOL     OW90817   3.131   0.365   8.983  0.1607 -0.3919 -0.0213
59613SOL    HW190818   3.109   0.291   9.039 -1.2546 -0.5716 -0.7510
59613SOL    HW290819   3.213   0.341   8.942  0.3243 -1.0205  0.6504
59614SOL     OW90820   1.324   7.085   3.790  0.3760 -0.5249  1.2219
59614SOL    HW190821   1.250   7.097   3.849 -1.3469  0.2710 -0.9732
59614SOL    HW290822   1.336   6.991   3.785  1.1582 -0.6067  3.4529
59615SOL     OW90823  13.491  11.720   9.227 -0.2089  0.6918 -0.5535
59615SOL    HW190824  13.554  11.737   9.157  1.3975 -1.5427  0.2603
59615SOL    HW290825  13.410  11.698   9.181  0.0288  1.9072 -1.6260
59616SOL     OW90826   8.759   3.765   6.919 -0.1909 -0.6230  0.6346
59616SOL    HW190827   8.821   3.733   6.984  0.2572  1.0057  1.0608
59616SOL    HW290828   8.763   3.701   6.848  0.8521 -1.3436  1.3185
59617SOL     OW90829   5.054  12.548   6.362  0.0210 -0.6520 -0.0561
59617SOL    HW190830   5.080  12.581   6.276  0.4334 -1.8377 -0.4044
59617SOL    HW290831   5.031  12.456   6.347  0.0479 -0.8620  1.0901
59618SOL     OW90832  13.310   2.868   7.885  0.3894 -0.9913 -0.4887
59618SOL    HW190833  13.231   2.869   7.939 -1.1228 -1.3795 -2.5734
59618SOL    HW290834  13.382   2.865   7.948 -1.2588 -1.3579  1.4804
59619SOL     OW90835   6.242   4.390  10.372  0.4272 -0.3675 -0.3464
59619SOL    HW190836   6.207   4.334  10.441  0.4599  0.4338  0.3389
59619SOL    HW290837   6.248   4.333  10.296  2.5300 -1.9243  0.8597
59620SOL     OW90838  10.284   4.562  11.943  0.5982  0.1953 -0.1459
59620SOL    HW190839  10.330   4.628  11.995  2.4826  0.1268 -1.5788
59620SOL    HW290840  10.249   4.500  12.007 -2.3834  3.1671  1.3327
59621SOL     OW90841   9.719   2.672   9.004 -0.0277 -0.6172  0.0988
59621SOL    HW190842   9.658   2.667   8.931 -0.1045 -0.8201  0.1754
59621SOL    HW290843   9.674   2.628   9.076 -0.1086 -0.0785  0.3805
59622SOL     OW90844   2.999   6.670   5.038 -0.3505 -0.3133 -0.1106
59622SOL    HW190845   3.005   6.763   5.017  1.0281 -0.3252  0.1464
59622SOL    HW290846   3.041   6.626   4.965  0.2933 -0.6412  0.4525
59623SOL     OW90847  12.118   4.217   1.029 -0.3171  0.6199  0.3383
59623SOL    HW190848  12.040   4.180   0.987 -0.2694  0.1574  0.6581
59623SOL    HW290849  12.191   4.179   0.981 -0.2818  1.0501  0.0424
59624SOL     OW90850  10.427   7.954  11.338 -0.0451  0.2356 -0.6766
59624SOL    HW190851  10.518   7.966  11.366 -1.5457  2.2138  4.3895
59624SOL    HW290852  10.413   7.859  11.345  1.2404  0.0536 -0.2056
59625SOL     OW90853   9.825   9.110   9.382  0.5080  0.2317  0.3220
59625SOL    HW190854   9.810   9.146   9.469  0.2319  2.3322 -0.5340
59625SOL    HW290855   9.758   9.150   9.327  0.8121 -0.8691 -0.9184
59626SOL     OW90856   7.468   1.678  13.183  0.0818 -0.3774  0.1168
59626SOL    HW190857   7.435   1.610  13.242 -2.1951 -0.6245 -1.3371
59626SOL    HW290858   7.453   1.642  13.095  1.9319  0.6387 -0.6743
59627SOL     OW90859   8.304  11.214   2.283 -0.1797 -0.3021 -0.2223
59627SOL    HW190860   8.261  11.133   2.254 -0.3259  0.1799 -1.3805
59627SOL    HW290861   8.312  11.203   2.378  0.4920 -2.0046 -0.4393
59628SOL     OW90862  11.378  12.047  11.796  0.3241 -0.2373 -0.3448
59628SOL    HW190863  11.469  12.032  11.772  0.0093 -0.5573 -1.3963
59628SOL    HW290864  11.335  12.071  11.713 -0.6511 -0.6186  0.0338
59629SOL     OW90865   9.209   4.945  11.817  0.4440 -0.7718  0.4206
59629SOL    HW190866   9.222   5.039  11.832 -0.1543 -0.3379 -1.4772
59629SOL    HW290867   9.246   4.903  11.895 -1.9543  1.1223  2.7808
59630SOL     OW90868   2.008   6.004   0.160 -0.4510 -0.0499 -0.2569
59630SOL    HW190869   2.033   5.972   0.247  0.6075 -0.1360 -0.5826
59630SOL    HW290870   2.090   6.010   0.112 -0.8959  1.0460 -0.9178
59631SOL     OW90871   4.438   1.208   9.422  0.2236  0.3499 -0.5115
59631SOL    HW190872   4.452   1.196   9.328 -3.4825 -0.7557 -1.0852
59631SOL    HW290873   4.494   1.142   9.464  0.3804 -0.5584 -2.0825
59632SOL     OW90874   8.160   3.921  13.983 -0.0352 -0.5178  0.3224
59632SOL    HW190875   8.086   3.970  13.948  0.7612  1.4147  1.1887
59632SOL    HW290876   8.220   3.912  13.909  1.2172  2.7187  0.7444
59633SOL     OW90877   7.325  13.517   2.196 -0.5723 -0.3170  0.3658
59633SOL    HW190878   7.354  13.603   2.165 -1.2223 -0.5543 -0.9772
59633SOL    HW290879   7.383  13.498   2.270  0.0701  0.9414  0.2239
59634SOL     OW90880   2.172   7.808   1.803  0.1606 -0.2244 -0.0543
59634SOL    HW190881   2.152   7.888   1.852 -0.8815  0.2059 -1.1150
59634SOL    HW290882   2.244   7.767   1.851 -1.1327 -0.1045  2.0942
59635SOL     OW90883   0.643   2.774  13.614 -0.1822 -0.2180 -0.0738
59635SOL    HW190884   0.664   2.690  13.657 -1.1199 -0.6558 -0.4464
59635SOL    HW290885   0.547   2.776  13.610 -0.1801  1.0001  0.1552
59636SOL     OW90886  10.568   1.932  10.847 -0.1991 -0.0476 -0.4443
59636SOL    HW190887  10.535   2.019  10.869  3.0881  1.5077 -1.0021
59636SOL    HW290888  10.581   1.889  10.932  0.8714  1.1901  0.0486
59637SOL     OW90889   0.891  10.199   9.914 -0.5967  0.8479  0.2681
59637SOL    HW190890   0.963  10.257   9.892 -0.3569  1.1511  1.6983
59637SOL    HW290891   0.816  10.257   9.925 -0.9615  0.5854 -0.7846
59638SOL     OW90892  12.141  11.538   4.343 -0.7388  0.0345  0.9035
59638SOL    HW190893  12.225  11.500   4.370 -1.6537 -2.3789  0.5931
59638SOL    HW290894  12.165  11.615   4.292  1.2779 -0.3803  1.1475
59639SOL     OW90895   7.139  13.275   0.559  0.2818 -0.1584 -0.2784
59639SOL    HW190896   7.230  13.284   0.529  0.2963  2.1274  0.3045
59639SOL    HW290897   7.107  13.364   0.568 -1.1089 -0.8048  2.3653
59640SOL     OW90898  10.184   4.144   9.714 -0.1924 -0.3142 -0.1204
59640SOL    HW190899  10.169   4.237   9.731  0.4974 -0.3761  0.9497
59640SOL    HW290900  10.201   4.107   9.801  0.8242 -1.1877 -0.6798
59641SOL     OW90901   3.332   8.286  11.175  0.1448 -0.1717 -0.1305
59641SOL    HW190902   3.420   8.299  11.138  0.6519 -1.1264  0.6762
59641SOL    HW290903   3.275   8.277  11.098  1.3786 -3.5161 -0.8314
59642SOL     OW90904   6.021   5.411   1.674 -0.1216 -0.2674  0.0774
59642SOL    HW190905   5.944   5.450   1.714 -0.6449  0.0589 -1.1871
59642SOL    HW290906   5.986   5.353   1.606  0.7221 -0.9353  0.1976
59643SOL     OW90907   9.868   8.815  10.179  0.0312  0.7471 -0.2395
59643SOL    HW190908   9.856   8.900  10.222  0.0964  0.3088  0.6774
59643SOL    HW290909   9.858   8.751  10.250  1.1463  0.0447 -0.6885
59644SOL     OW90910   3.391   4.445   7.221  0.1150 -0.3535 -0.1933
59644SOL    HW190911   3.392   4.377   7.155 -2.3057  1.5646 -2.4288
59644SOL    HW290912   3.468   4.499   7.202 -0.3157 -0.0773 -1.2018
59645SOL     OW90913   1.924   9.005  11.308 -0.4197  0.3385  0.6017
59645SOL    HW190914   1.888   8.918  11.325 -2.2360  1.1540  1.1773
59645SOL    HW290915   1.901   9.056  11.386 -0.0842  1.5443 -0.0679
59646SOL     OW90916   1.185   9.355   8.347 -0.4665 -0.3648  0.0580
59646SOL    HW190917   1.167   9.375   8.438 -3.3399 -0.1972 -0.4382
59646SOL    HW290918   1.124   9.285   8.325  1.2166 -1.4708 -1.3687
59647SOL     OW90919   6.484  12.954   4.509 -0.2464 -0.5341 -0.0544
59647SOL    HW190920   6.567  12.966   4.555  0.5103 -1.3055 -1.1389
59647SOL    HW290921   6.486  13.019   4.439  0.6308 -2.1282 -1.6044
59648SOL     OW90922  10.876   5.039   9.517 -0.4099  0.1572  0.3383
59648SOL    HW190923  10.967   5.014   9.534 -0.0578  2.0858  1.6118
59648SOL    HW290924  10.830   4.955   9.505  1.1006 -0.9896  2.0230
59649SOL     OW90925  10.508  11.481   9.135  0.4391  0.0480 -0.7341
59649SOL    HW190926  10.581  11.420   9.138 -0.8599 -1.5337  0.6444
59649SOL    HW290927  10.540  11.559   9.180  1.4984 -0.3357 -0.8071
59650SOL     OW90928   9.181  11.917  13.464  0.6151  0.6042 -0.6319
59650SOL    HW190929   9.142  11.848  13.411  0.6021  0.0485  0.0932
59650SOL    HW290930   9.217  11.978  13.400 -0.5659  0.6338 -1.3062
59651SOL     OW90931   5.727  10.610   8.020  0.0719 -0.0181 -0.9558
59651SOL    HW190932   5.784  10.604   7.943  0.4617 -1.0815 -0.5963
59651SOL    HW290933   5.646  10.566   7.994  0.2674 -0.5263 -0.6953
59652SOL     OW90934   7.097   0.931  13.006 -0.1753 -0.1576  0.3669
59652SOL    HW190935   7.012   0.974  13.014 -0.1413 -0.0501  0.1640
59652SOL    HW290936   7.157   1.002  12.980  0.0510 -0.1543  0.8845
59653SOL     OW90937  10.732  10.137  13.576 -0.3051  0.0558 -0.6729
59653SOL    HW190938  10.776  10.216  13.606 -0.0011 -0.9119  1.6266
59653SOL    HW290939  10.640  10.151  13.597 -0.1031 -0.5880  0.7842
59654SOL     OW90940   3.004   8.006  13.222  0.2518  0.0885  0.0678
59654SOL    HW190941   2.983   8.058  13.144  0.0669 -1.7834 -1.1940
59654SOL    HW290942   2.954   8.047  13.293  0.4501  1.8554 -0.7691
59655SOL     OW90943  12.561  12.885   7.009 -0.2668 -0.7062 -0.1570
59655SOL    HW190944  12.521  12.944   7.073  1.2775  1.0862 -0.7595
59655SOL    HW290945  12.492  12.871   6.944 -0.5842  0.6846 -0.1465
59656SOL     OW90946  11.334   2.275   9.111 -0.2201  0.4332 -0.9516
59656SOL    HW190947  11.400   2.213   9.079  1.2355  0.4717  1.6629
59656SOL    HW290948  11.262   2.220   9.141 -0.7540  0.2972 -2.4173
59657SOL     OW90949  10.275   0.687   7.380  0.5112 -0.1311  0.1587
59657SOL    HW190950  10.219   0.668   7.305  0.9939  0.8578 -0.4818
59657SOL    HW290951  10.214   0.706   7.451  0.0414 -0.4601 -0.1505
59658SOL     OW90952   9.187   0.081   7.062 -0.1211  0.0462  0.1775
59658SOL    HW190953   9.168   0.033   7.143 -0.9395  0.6001  0.3260
59658SOL    HW290954   9.213   0.168   7.092 -2.1024  0.8101 -0.1869
59659SOL     OW90955   0.070   0.114   2.089  0.0437 -0.6379 -0.1101
59659SOL    HW190956   0.103   0.204   2.094 -0.7025 -0.1263 -2.7079
59659SOL    HW290957   0.146   0.061   2.065 -0.0921 -0.1513 -1.7415
59660SOL     OW90958   1.704   8.253  14.018 -0.2366  0.2628  0.0587
59660SOL    HW190959   1.690   8.242  13.923 -1.3548  0.6161  0.1697
59660SOL    HW290960   1.799   8.257  14.028 -0.0775 -0.4693 -0.9748
59661SOL     OW90961  11.132  12.485  12.465 -0.0391 -0.4662 -0.2656
59661SOL    HW190962  11.225  12.476  12.441  0.1682 -0.6988  0.6062
59661SOL    HW290963  11.127  12.451  12.554 -0.6594  1.0717  0.3095
59662SOL     OW90964   9.537   3.797   5.577  0.0443  0.3896 -0.1088
59662SOL    HW190965   9.529   3.840   5.492 -1.9919  1.8391  0.7343
59662SOL    HW290966   9.609   3.735   5.566  0.3735  1.1128 -2.6230
59663SOL     OW90967   7.265   5.981   9.721 -0.3490  0.1532 -0.1219
59663SOL    HW190968   7.241   5.897   9.760  1.5234  0.2247  1.3231
59663SOL    HW290969   7.232   5.975   9.631 -1.0193 -1.7595  0.1846
59664SOL     OW90970   5.306  10.943   6.863 -0.6887  0.4375  0.2163
59664SOL    HW190971   5.334  10.974   6.777 -1.2470  1.1605  0.2807
59664SOL    HW290972   5.311  10.848   6.858 -1.5381  0.4372 -0.9067
59665SOL     OW90973   6.466   1.327   7.973  0.1885 -0.1701 -0.5060
59665SOL    HW190974   6.488   1.419   7.963 -1.1063  0.5338  2.1423
59665SOL    HW290975   6.465   1.292   7.884  5.4313  1.0933 -1.3871
59666SOL     OW90976   2.727   2.336  10.417  0.0878  0.5860 -0.4456
59666SOL    HW190977   2.634   2.328  10.434 -0.0623  0.1691 -1.4621
59666SOL    HW290978   2.749   2.425  10.447 -1.0085  1.3795 -1.8671
59667SOL     OW90979   9.613   4.947   1.153 -0.3928  0.4474  0.0586
59667SOL    HW190980   9.521   4.974   1.144 -0.5559  0.2201  0.8865
59667SOL    HW290981   9.607   4.857   1.186  0.1119  0.6806  0.8198
59668SOL     OW90982   8.618  12.346  13.668 -0.0116 -0.2017 -0.7474
59668SOL    HW190983   8.683  12.285  13.704 -1.1173 -1.0759 -0.1970
59668SOL    HW290984   8.571  12.294  13.603  0.9516  0.9207 -2.4232
59669SOL     OW90985  13.648   6.670   1.485  0.2383  0.3720  0.8500
59669SOL    HW190986  13.692   6.734   1.429 -1.7119  2.1694  1.2412
59669SOL    HW290987  13.568   6.647   1.437  0.2083 -0.7054  1.3793
59670SOL     OW90988   2.299  12.603   0.601  0.1407  0.3816  0.1007
59670SOL    HW190989   2.236  12.664   0.564  0.6212  0.6821 -0.2308
59670SOL    HW290990   2.377  12.655   0.619 -1.0655  1.0296  4.6498
59671SOL     OW90991   0.305   9.937  10.321  0.0197 -0.3752  0.4449
59671SOL    HW190992   0.219   9.897  10.308  0.7602 -1.9073  0.0899
59671SOL    HW290993   0.288  10.031  10.322 -1.6161 -0.6482  0.0906
59672SOL     OW90994   5.820   8.932   9.282  0.3600 -0.0048 -0.1221
59672SOL    HW190995   5.771   8.923   9.364 -0.6320 -0.5353 -0.7540
59672SOL    HW290996   5.832   8.842   9.251 -1.6319  0.2661 -1.8922
59673SOL     OW90997   7.094   4.988   1.689  0.5313  0.3325  0.8124
59673SOL    HW190998   7.152   5.024   1.622  1.0205 -1.7601  0.0216
59673SOL    HW290999   7.017   4.958   1.640  0.5179 -0.4544  1.3039
59674SOL     OW91000   0.783   0.511  11.335  0.7649  0.6731 -0.8216
59674SOL    HW191001   0.693   0.482  11.321  0.9092  0.3018 -1.0106
59674SOL    HW291002   0.791   0.592  11.283 -0.4116  2.5882  1.7671
59675SOL     OW91003   3.885  10.229  10.616  0.3780  0.2274 -0.0912
59675SOL    HW191004   3.855  10.187  10.536  1.2518 -1.4625  0.4259
59675SOL    HW291005   3.927  10.159  10.666  1.4406  1.6106  1.0471
59676SOL     OW91006   3.764  12.851   9.301  0.2457 -0.0330  0.1194
59676SOL    HW191007   3.835  12.903   9.263  0.5761 -1.9762 -2.1645
59676SOL    HW291008   3.730  12.800   9.228 -0.8356 -2.1451  1.9781
59677SOL     OW91009  10.679   7.824  11.928  0.2940 -0.8535  0.1137
59677SOL    HW191010  10.670   7.839  11.834 -1.6605  1.0515  0.5130
59677SOL    HW291011  10.590   7.830  11.962  1.1052  0.0986  2.2710
59678SOL     OW91012   7.022   5.732   6.641 -0.3544  0.1164 -0.0709
59678SOL    HW191013   6.946   5.676   6.624  0.0421  0.0238 -1.6604
59678SOL    HW291014   7.093   5.671   6.659 -0.2822  0.1542 -0.2277
59679SOL     OW91015  10.919   6.181   7.838  0.0976 -0.3871 -0.1266
59679SOL    HW191016  11.001   6.178   7.790  0.5077 -3.3338  0.5532
59679SOL    HW291017  10.919   6.101   7.891 -3.4007 -0.7535 -0.4317
59680SOL     OW91018  12.686  11.389  11.424  0.0490  0.4201 -0.3195
59680SOL    HW191019  12.645  11.309  11.391  2.3401 -0.9201 -0.0723
59680SOL    HW291020  12.693  11.446  11.347  0.3369 -0.4700 -0.9629
59681SOL     OW91021  10.913   7.083   6.747  0.4096  0.5918 -0.1906
59681SOL    HW191022  10.852   7.089   6.821  1.2598 -0.8612  0.6618
59681SOL    HW291023  10.986   7.032   6.780  2.0297  2.1018 -1.2639
59682SOL     OW91024   3.499   7.369   3.529  0.1462 -0.4954  0.6642
59682SOL    HW191025   3.484   7.332   3.443 -1.7356  1.0553  0.2482
59682SOL    HW291026   3.521   7.461   3.512  1.8986 -0.6492  1.7798
59683SOL     OW91027  10.747  11.109   4.285  0.0231  0.4831  0.3251
59683SOL    HW191028  10.743  11.052   4.361  1.9651 -1.0909 -0.6694
59683SOL    HW291029  10.800  11.184   4.313 -1.1326  1.0211  1.1367
59684SOL     OW91030  11.655   9.197   5.913  0.1455  0.9301 -0.1079
59684SOL    HW191031  11.694   9.263   5.856  1.0831 -1.0101 -1.8479
59684SOL    HW291032  11.561   9.210   5.903  0.3090  1.6075 -0.8900
59685SOL     OW91033   6.235   4.492   4.455  0.2397 -0.3730  0.0986
59685SOL    HW191034   6.259   4.425   4.390  3.2764 -0.2745  0.9854
59685SOL    HW291035   6.289   4.472   4.531  0.2202  2.2799  0.8990
59686SOL     OW91036   1.467   0.615   9.251  0.1373 -0.0551 -0.2056
59686SOL    HW191037   1.526   0.540   9.250 -0.7036 -0.8143  1.8321
59686SOL    HW291038   1.525   0.691   9.258  0.9453 -0.5736 -1.0295
59687SOL     OW91039  11.367   6.558   3.332 -0.0798 -0.7095 -0.3064
59687SOL    HW191040  11.433   6.503   3.372 -0.1921  0.2667  1.3004
59687SOL    HW291041  11.417   6.625   3.285  0.0759 -2.5881 -3.0599
59688SOL     OW91042   2.644   6.100  11.231  0.1396  0.2123 -0.1493
59688SOL    HW191043   2.609   6.165  11.292  0.4870 -1.8436  2.4106
59688SOL    HW291044   2.574   6.088  11.166 -1.4172  0.5120  1.3959
59689SOL     OW91045   1.518  11.637   1.214 -0.4693 -0.2161 -0.0356
59689SOL    HW191046   1.594  11.693   1.198 -0.8844  0.6486  0.8990
59689SOL    HW291047   1.443  11.690   1.187 -0.7416 -1.1597 -1.1991
59690SOL     OW91048   3.488   8.633   0.281  0.4453 -0.4542 -0.5097
59690SOL    HW191049   3.421   8.701   0.270  0.7824 -0.1241 -0.5535
59690SOL    HW291050   3.571   8.678   0.263  0.7214 -0.7424  0.0328
59691SOL     OW91051   2.585  13.045   8.143  0.7252 -0.4834  0.1591
59691SOL    HW191052   2.651  13.037   8.075  0.0867 -1.1130 -0.4049
59691SOL    HW291053   2.633  13.072   8.221  1.7991 -1.9140  0.0246
59692SOL     OW91054  10.380   6.779   5.314 -0.0451 -0.2585  0.1873
59692SOL    HW191055  10.362   6.685   5.313  0.4075 -0.3606 -1.3678
59692SOL    HW291056  10.377   6.805   5.222  2.1567  0.7757  0.3279
59693SOL     OW91057   9.087   6.009  13.347 -0.2802  0.5416 -0.3578
59693SOL    HW191058   9.022   6.076  13.365 -0.5394  0.2972 -0.3859
59693SOL    HW291059   9.117   6.028  13.258  1.5836  2.2379  0.5385
59694SOL     OW91060   5.347   5.609   0.427  0.2778 -0.3165 -0.1221
59694SOL    HW191061   5.405   5.682   0.447  0.2434  0.0360 -1.2796
59694SOL    HW291062   5.351   5.553   0.505  1.2024  0.3258  0.2988
59695SOL     OW91063  13.825  11.033   9.851 -0.8750 -0.0959 -0.0038
59695SOL    HW191064  13.778  11.004   9.773 -1.4461 -1.5639  0.8500
59695SOL    HW291065  13.838  11.127   9.837 -0.8891 -0.3322 -1.8841
59696SOL     OW91066   6.955  13.425  12.289  0.5869 -0.1354  0.1791
59696SOL    HW191067   6.982  13.424  12.197  0.2985 -0.1609  0.0938
59696SOL    HW291068   6.872  13.473  12.289 -0.0144 -1.1500  0.2647
59697SOL     OW91069   1.307  11.133   9.047 -0.2188 -0.3589  0.0465
59697SOL    HW191070   1.286  11.141   8.953 -0.1908 -0.2568  0.0495
59697SOL    HW291071   1.242  11.189   9.091 -0.4043 -0.6224  0.1085
59698SOL     OW91072   9.562   0.256   8.003 -0.1608  0.3196 -0.5912
59698SOL    HW191073   9.506   0.234   8.078  0.8451  0.9362  0.3836
59698SOL    HW291074   9.572   0.351   8.008  1.6850  0.1479 -0.1652
59699SOL     OW91075  10.544  12.990   6.869  0.3335  0.2560 -0.0828
59699SOL    HW191076  10.523  13.051   6.799  1.8959  1.3017  0.2964
59699SOL    HW291077  10.618  13.030   6.914  1.8467 -2.2134 -0.1830
59700SOL     OW91078   3.686   9.285   7.861 -0.0083  0.3556  0.0671
59700SOL    HW191079   3.593   9.299   7.877  0.1777  0.6787  0.9001
59700SOL    HW291080   3.723   9.269   7.948  0.3531 -2.0051 -0.4336
59701SOL     OW91081   7.486  11.326   2.363  0.0904 -0.1614 -0.0211
59701SOL    HW191082   7.425  11.294   2.429 -0.4395 -0.5491 -0.6741
59701SOL    HW291083   7.435  11.326   2.282  0.9263 -0.3775 -0.5615
59702SOL     OW91084   5.558   5.251  10.655 -0.2823 -0.0050 -0.1757
59702SOL    HW191085   5.627   5.215  10.711 -1.0937 -0.8662  0.3031
59702SOL    HW291086   5.604   5.279  10.576  0.7542  0.3754  0.5329
59703SOL     OW91087   7.745  11.160  12.728  0.6538  0.0282  0.5071
59703SOL    HW191088   7.825  11.108  12.721  0.5104 -0.1082 -0.2130
59703SOL    HW291089   7.775  11.250  12.741  0.9081 -0.1551  1.2142
59704SOL     OW91090   9.381   5.188   2.646  0.1732 -0.6469 -0.5771
59704SOL    HW191091   9.406   5.172   2.737 -1.5071  0.2272  0.0960
59704SOL    HW291092   9.352   5.102   2.614  1.0127 -1.0117 -0.3734
59705SOL     OW91093  12.908   7.083   6.375  0.3547 -0.2646  0.6601
59705SOL    HW191094  12.952   7.048   6.452  1.9663  1.8384  0.7610
59705SOL    HW291095  12.867   7.164   6.405 -0.2781 -0.1854 -0.3676
59706SOL     OW91096   2.434   0.518   4.037  0.0063 -0.1149  0.0024
59706SOL    HW191097   2.374   0.489   3.968  0.1508 -0.4789  0.0298
59706SOL    HW291098   2.401   0.478   4.117  0.7858 -1.0439 -0.1198
59707SOL     OW91099   5.371   3.208  13.719  1.0293 -0.1003  0.1487
59707SOL    HW191100   5.317   3.160  13.783  0.9785 -1.2741 -0.7488
59707SOL    HW291101   5.434   3.144  13.687  1.3439  0.5963 -0.6707
59708SOL     OW91102   7.181  13.005  11.865  0.1446  0.4136 -0.2186
59708SOL    HW191103   7.224  12.922  11.889  0.9517  0.9223  0.1255
59708SOL    HW291104   7.252  13.069  11.863 -0.4193  1.0317 -0.8411
59709SOL     OW91105  10.073   4.236  11.621 -0.3148  0.6228 -0.3904
59709SOL    HW191106  10.169   4.237  11.614 -0.2573 -0.1483  0.2141
59709SOL    HW291107  10.055   4.270  11.708 -0.7405  3.5120 -1.4716
59710SOL     OW91108  13.583  10.679   1.982  0.4100  0.5216 -0.5154
59710SOL    HW191109  13.629  10.759   2.005  0.2818  1.0238 -1.9574
59710SOL    HW291110  13.492  10.706   1.971 -0.1534 -0.3221  1.5518
59711SOL     OW91111   9.215   0.162   0.408  0.3059  0.2370  0.2852
59711SOL    HW191112   9.146   0.113   0.365 -0.0064  0.5590  0.4187
59711SOL    HW291113   9.257   0.098   0.466 -0.3667  0.2289  0.7678
59712SOL     OW91114  11.444   3.923   5.492 -0.0305 -0.5146  0.2063
59712SOL    HW191115  11.430   3.902   5.584 -0.4992 -0.2639  0.1931
59712SOL    HW291116  11.366   3.973   5.466  1.1004  1.4133  0.2851
59713SOL     OW91117  12.249   3.118   4.956 -0.1053 -0.5181 -0.1916
59713SOL    HW191118  12.163   3.106   4.916 -0.5372  0.0303  0.5554
59713SOL    HW291119  12.308   3.132   4.882  0.1836 -4.9963 -1.1504
59714SOL     OW91120  12.055  12.311  11.815  0.4941  0.1367 -0.1306
59714SOL    HW191121  12.044  12.403  11.793  0.8355  0.5238  1.2162
59714SOL    HW291122  12.049  12.308  11.910  1.9075 -1.0341 -0.0434
59715SOL     OW91123   1.612   7.763  13.130  0.4492  0.8138  0.3747
59715SOL    HW191124   1.569   7.690  13.085  3.4979  0.3093 -2.0280
59715SOL    HW291125   1.544   7.798  13.189 -2.0458 -2.0352 -0.5539
59716SOL     OW91126  13.193   3.724   1.100 -0.7296  0.2173  0.7257
59716SOL    HW191127  13.140   3.651   1.133 -0.3873 -0.1648  0.4370
59716SOL    HW291128  13.196   3.786   1.173 -1.7781  0.3600  0.6599
59717SOL     OW91129   0.238  11.593   7.275  0.1600 -0.3551  0.7205
59717SOL    HW191130   0.296  11.612   7.349  1.8499 -1.2029 -0.3215
59717SOL    HW291131   0.200  11.507   7.296 -0.6046  0.1149  1.3142
59718SOL     OW91132   2.312  12.048   3.005  0.0519 -0.2562 -0.1337
59718SOL    HW191133   2.243  11.982   3.013  0.1611 -0.2683  0.9601
59718SOL    HW291134   2.393  12.000   3.023  0.2371 -0.0394 -0.3884
59719SOL     OW91135   0.601   7.085   1.308  0.1516 -0.0114 -0.0810
59719SOL    HW191136   0.677   7.029   1.327  0.2225 -0.7699 -2.3648
59719SOL    HW291137   0.556   7.042   1.236 -0.3310  2.3705 -1.3265
59720SOL     OW91138  11.888   3.636  12.027 -0.2762 -0.3074  0.5833
59720SOL    HW191139  11.955   3.696  11.995  0.1492 -0.5086  1.0956
59720SOL    HW291140  11.807   3.667  11.985  0.5288 -1.7476 -2.3589
59721SOL     OW91141   5.958  12.099  10.616  0.5748 -0.2897 -0.0234
59721SOL    HW191142   6.004  12.103  10.699  1.5964 -0.8637 -0.5508
59721SOL    HW291143   5.873  12.061  10.637  0.2729  0.9004  0.9776
59722SOL     OW91144  13.222   4.512   8.939  0.0683 -0.1836 -0.2477
59722SOL    HW191145  13.231   4.545   8.850  1.0903  0.5185  0.0968
59722SOL    HW291146  13.160   4.572   8.981 -1.2113 -1.1090 -0.7463
59723SOL     OW91147   5.813   6.414   1.537 -0.0367  0.5051  0.5160
59723SOL    HW191148   5.856   6.340   1.581  0.9644  1.1480  0.6789
59723SOL    HW291149   5.875   6.440   1.468 -0.9752  0.3700 -0.3963
59724SOL     OW91150   3.142  10.131  13.443  0.2472  0.0720  0.1909
59724SOL    HW191151   3.054  10.136  13.481  0.0579 -1.8184  0.1242
59724SOL    HW291152   3.127  10.103  13.352  0.8599  1.1843 -0.2665
59725SOL     OW91153  10.448   5.683   8.414 -0.1996 -0.9818  0.5986
59725SOL    HW191154  10.472   5.671   8.322 -1.2674 -0.2221  0.2017
59725SOL    HW291155  10.357   5.655   8.418 -0.7901  0.8510  0.9824
59726SOL     OW91156  10.734   2.125   7.768 -0.3895  0.0985 -0.1755
59726SOL    HW191157  10.742   2.046   7.715  1.7928  0.5150 -0.5789
59726SOL    HW291158  10.795   2.188   7.728  0.0820  0.9961  1.8031
59727SOL     OW91159  10.653   7.946   2.953  0.2708 -0.0768  0.1796
59727SOL    HW191160  10.617   7.946   2.865  1.4232  0.0259 -0.3063
59727SOL    HW291161  10.577   7.937   3.010 -0.5697  0.6782 -0.7843
59728SOL     OW91162   7.801  10.984   4.821  0.0215  0.4192  0.3711
59728SOL    HW191163   7.896  10.996   4.826  0.1287 -0.4609  0.5987
59728SOL    HW291164   7.766  11.073   4.824  0.8229  0.7391  0.6317
59729SOL     OW91165  13.620   5.613   8.400 -0.1691 -0.3850 -0.5887
59729SOL    HW191166  13.699   5.660   8.428 -0.1484  0.2487 -1.6546
59729SOL    HW291167  13.652   5.526   8.374 -0.0890 -0.7380  0.6175
59730SOL     OW91168   9.765   1.960  10.557 -0.6824 -0.1306  0.0496
59730SOL    HW191169   9.780   1.931  10.647  0.1106  0.3950  0.0874
59730SOL    HW291170   9.703   2.032  10.565  0.4605  0.8509  0.3134
59731SOL     OW91171   1.999   0.786   7.349 -0.2232  0.3889  0.5408
59731SOL    HW191172   1.994   0.691   7.346 -3.0144  0.4375  0.8419
59731SOL    HW291173   1.974   0.814   7.260  0.4614  0.8456  0.4862
59732SOL     OW91174   2.243   3.353  10.222 -0.0549 -0.1754  1.5750
59732SOL    HW191175   2.240   3.352  10.318  2.9186  0.7518  1.7912
59732SOL    HW291176   2.297   3.278  10.200 -1.1081 -0.6514  0.5600
59733SOL     OW91177   0.785   8.091   8.377  0.1217 -0.3755  0.2196
59733SOL    HW191178   0.702   8.125   8.345  1.9791  2.6260 -1.8733
59733SOL    HW291179   0.806   8.145   8.454 -0.2167 -1.7539  1.3350
59734SOL     OW91180   1.842   9.483  10.820 -0.5566  0.2937  0.0847
59734SOL    HW191181   1.884   9.399  10.802 -0.4887 -0.2765  2.5217
59734SOL    HW291182   1.914   9.546  10.821 -0.5477  0.3363 -1.2734
59735SOL     OW91183   8.654   2.704  12.875  0.1799 -0.1398 -0.6211
59735SOL    HW191184   8.587   2.751  12.827 -0.7664  2.1084  2.5556
59735SOL    HW291185   8.608   2.631  12.917 -0.0648  0.6286  0.4968
59736SOL     OW91186   6.411  12.167   8.662  0.0585  0.0014 -0.2045
59736SOL    HW191187   6.386  12.080   8.692  0.8896 -1.5999 -3.6855
59736SOL    HW291188   6.506  12.160   8.646 -0.1003  1.0805 -1.8039
59737SOL     OW91189   0.947   1.968  10.124  0.4159  0.0808 -0.0341
59737SOL    HW191190   0.919   2.059  10.128  0.5455  0.2357 -1.9288
59737SOL    HW291191   1.016   1.961  10.190 -1.1698  0.7257  1.7588
59738SOL     OW91192   3.000   3.363   1.845  0.0516 -0.2193  0.2750
59738SOL    HW191193   2.919   3.367   1.794 -0.3790  0.4773  0.9745
59738SOL    HW291194   3.062   3.315   1.790 -0.2880  0.7906 -1.0422
59739SOL     OW91195  13.601   2.128   1.715 -0.3043 -0.5816  0.4652
59739SOL    HW191196  13.554   2.045   1.719  0.2840 -0.8747  2.5761
59739SOL    HW291197  13.535   2.194   1.739 -0.5943 -0.5019 -0.5126
59740SOL     OW91198  13.438  12.797  12.379  0.0200  0.0100  0.1027
59740SOL    HW191199  13.413  12.728  12.441  0.5025  1.0382  1.4920
59740SOL    HW291200  13.431  12.878  12.430  0.0641  0.9252 -1.3181
59741SOL     OW91201   6.228   7.389   3.555 -0.7521 -0.1134  0.0025
59741SOL    HW191202   6.281   7.346   3.488  0.5815 -0.7515  1.4091
59741SOL    HW291203   6.185   7.318   3.601  1.0383  0.0076  1.9964
59742SOL     OW91204   7.220   2.130   4.142 -0.2404  0.0440  0.0265
59742SOL    HW191205   7.179   2.052   4.103 -0.3991  1.1514 -2.1766
59742SOL    HW291206   7.150   2.170   4.194 -0.2728 -1.0433  0.8464
59743SOL     OW91207  11.089   1.365   3.034 -0.1046  0.1265  0.4134
59743SOL    HW191208  11.082   1.273   3.059  0.0423 -0.3751 -1.3196
59743SOL    HW291209  11.182   1.385   3.042 -0.1455  0.1606  0.8563
59744SOL     OW91210   7.581   5.523   9.791 -0.1231 -0.0197  0.2365
59744SOL    HW191211   7.553   5.600   9.743  0.3953  1.0052  1.4871
59744SOL    HW291212   7.639   5.476   9.731  1.6705  1.9745  0.2610
59745SOL     OW91213   4.976   8.488   9.163  0.5659 -0.7214  0.5114
59745SOL    HW191214   5.010   8.405   9.197 -0.0767 -2.1147 -2.0203
59745SOL    HW291215   4.882   8.475   9.158  0.5117 -0.0221 -0.3742
59746SOL     OW91216   2.838   9.695  12.398 -0.1672  0.3260  0.6600
59746SOL    HW191217   2.850   9.606  12.366  0.4529  0.1306  1.4026
59746SOL    HW291218   2.883   9.751  12.335  2.2231 -0.1577  1.8225
59747SOL     OW91219   2.948   8.498  10.831  0.0325 -0.2543 -0.1625
59747SOL    HW191220   2.937   8.578  10.882  0.1651 -1.3775  1.7390
59747SOL    HW291221   2.964   8.430  10.897  2.5477 -1.4255 -1.8276
59748SOL     OW91222   4.341   6.038   6.988 -1.2609  0.5038  0.2178
59748SOL    HW191223   4.317   6.020   7.079  0.6638  1.9641  1.0819
59748SOL    HW291224   4.269   6.090   6.954 -2.0182 -0.0796  0.8738
59749SOL     OW91225   8.697   0.137   8.996  0.3872  0.2997  0.8628
59749SOL    HW191226   8.773   0.080   8.992  0.6292  0.6523  0.2860
59749SOL    HW291227   8.628   0.089   8.950  1.1642  1.3087 -1.4916
59750SOL     OW91228  12.463  10.743  11.447 -0.4258 -0.1389 -0.0579
59750SOL    HW191229  12.412  10.680  11.395 -1.2674 -0.3265  0.9581
59750SOL    HW291230  12.551  10.706  11.449 -0.4740 -0.3353 -1.0031
59751SOL     OW91231  11.696  10.712  12.378 -0.7015 -0.2190  0.4040
59751SOL    HW191232  11.682  10.795  12.425  0.2040 -0.6745  1.5313
59751SOL    HW291233  11.695  10.645  12.446 -1.0914 -1.1140 -0.4555
59752SOL     OW91234   7.196   7.102  11.913  0.3869  0.2065  0.4159
59752SOL    HW191235   7.239   7.035  11.967  0.3290  1.1363  1.6741
59752SOL    HW291236   7.214   7.184  11.959 -1.2346  0.8266  0.0132
59753SOL     OW91237   0.667   3.124   1.322  0.3309  0.0735  0.2473
59753SOL    HW191238   0.700   3.042   1.358  0.1227 -0.8959 -1.6589
59753SOL    HW291239   0.583   3.102   1.281  0.7946  0.9455 -1.2927
59754SOL     OW91240   1.679   6.171   8.745 -0.0090 -0.0763 -0.2690
59754SOL    HW191241   1.620   6.126   8.805  0.0727  0.1389 -0.0261
59754SOL    HW291242   1.660   6.264   8.757 -0.2278 -0.0436 -0.8217
59755SOL     OW91243  11.676   9.710  12.237  0.4253 -0.0923  0.2146
59755SOL    HW191244  11.692   9.692  12.144 -2.6854  1.8087 -0.7985
59755SOL    HW291245  11.636   9.629  12.270 -1.0285  0.1668 -0.8432
59756SOL     OW91246  11.968   7.115  11.428 -0.0799 -0.1041 -0.5212
59756SOL    HW191247  11.995   7.137  11.517  0.0215 -0.3593 -0.4866
59756SOL    HW291248  12.042   7.067  11.392 -0.7824 -1.5218 -0.1538
59757SOL     OW91249   7.184   1.418   6.464  0.3077 -0.4380 -0.3544
59757SOL    HW191250   7.236   1.481   6.513  0.3418  0.0482 -0.9998
59757SOL    HW291251   7.188   1.337   6.515  2.2432 -0.6119 -0.7075
59758SOL     OW91252  12.059   4.928  13.779  0.0399  0.2520 -0.1848
59758SOL    HW191253  12.028   4.983  13.708  1.1885  1.4751  0.2192
59758SOL    HW291254  12.147   4.901  13.752  0.5024  0.7594  0.7606
59759SOL     OW91255   0.726  13.726  12.915 -0.1736 -0.0418 -0.3880
59759SOL    HW191256   0.646  13.700  12.870 -0.3702 -1.4658  0.7141
59759SOL    HW291257   0.700  13.797  12.973 -0.8930 -1.1801  0.7255
59760SOL     OW91258   4.909   7.677  13.006 -0.0055  0.7353  0.1231
59760SOL    HW191259   4.865   7.760  12.992  0.2926  0.7699 -0.6875
59760SOL    HW291260   4.839   7.614  13.023 -0.2557  1.0669  0.3227
59761SOL     OW91261   0.679   2.192   3.615  0.1360 -0.2179  0.4014
59761SOL    HW191262   0.753   2.232   3.662  0.4629  0.7534 -0.8895
59761SOL    HW291263   0.698   2.208   3.523 -2.3094  1.2040  0.0661
59762SOL     OW91264  10.827   8.356   1.892 -0.1572  0.4666 -0.0377
59762SOL    HW191265  10.833   8.443   1.853  0.2918  1.2390  1.6497
59762SOL    HW291266  10.736   8.331   1.880 -0.0674  0.7288 -1.4154
59763SOL     OW91267  10.760  10.528   8.896  0.1378 -0.4213 -0.0832
59763SOL    HW191268  10.733  10.549   8.986  2.5627 -1.7532  1.0691
59763SOL    HW291269  10.687  10.477   8.860 -0.4626 -0.7579  1.5133
59764SOL     OW91270   0.498   8.878   1.517 -0.1321 -0.0073 -0.6960
59764SOL    HW191271   0.568   8.924   1.471 -0.6985 -0.0689 -1.6476
59764SOL    HW291272   0.532   8.790   1.532  0.5042  0.3570  0.0758
59765SOL     OW91273  10.802   6.337   2.142 -0.1246 -0.1034 -0.3085
59765SOL    HW191274  10.854   6.265   2.107 -3.4468 -2.2681 -1.3176
59765SOL    HW291275  10.776   6.387   2.065 -0.2987  0.3807  0.0647
59766SOL     OW91276   2.766   8.421   8.939 -0.4062 -0.1910 -0.2391
59766SOL    HW191277   2.836   8.425   8.874 -0.3474 -3.0000 -0.4851
59766SOL    HW291278   2.812   8.418   9.023 -0.3654  0.4754 -0.2307
59767SOL     OW91279  10.445   4.431  12.236  0.6877 -0.4083 -0.1311
59767SOL    HW191280  10.459   4.525  12.236  1.2925 -0.4632 -1.3891
59767SOL    HW291281  10.367   4.418  12.183  1.0668 -0.6490 -0.6430
59768SOL     OW91282  10.615   5.511   8.232 -0.1424  0.2386  0.2181
59768SOL    HW191283  10.594   5.457   8.309  1.7593 -1.3935 -0.3097
59768SOL    HW291284  10.653   5.449   8.170 -0.2662  1.7878 -1.4720
59769SOL     OW91285   2.481   5.204   0.319  0.0570  0.2290  0.5780
59769SOL    HW191286   2.499   5.296   0.338  0.3368  0.4211 -0.5438
59769SOL    HW291287   2.412   5.179   0.382 -0.4341  1.3592  0.5100
59770SOL     OW91288   0.880  11.096   9.283  0.0628  0.3807 -0.4255
59770SOL    HW191289   0.861  11.138   9.199  0.3585  3.0361  0.7416
59770SOL    HW291290   0.793  11.080   9.321 -0.0498  0.4042 -0.6687
59771SOL     OW91291   3.831  11.905   4.487  0.2319  0.3194  0.1437
59771SOL    HW191292   3.839  11.991   4.529 -0.1382 -0.6411  2.3314
59771SOL    HW291293   3.911  11.896   4.435  0.8846  1.4910  0.8999
59772SOL     OW91294  13.395   2.894   9.968  1.0083  0.1787  0.5359
59772SOL    HW191295  13.419   2.822   9.909  1.0809  0.4504  0.2255
59772SOL    HW291296  13.305   2.916   9.943  0.8127 -0.1247  0.9637
59773SOL     OW91297   8.272   2.270   8.055 -0.0674 -0.3845 -0.1428
59773SOL    HW191298   8.264   2.191   8.002  0.0031  0.5384 -1.5931
59773SOL    HW291299   8.361   2.301   8.038 -0.6936  1.0062 -1.1286
59774SOL     OW91300   3.749   7.238   7.562 -0.0651  0.1622  0.2291
59774SOL    HW191301   3.682   7.280   7.508  0.8074 -0.8580 -1.7356
59774SOL    HW291302   3.745   7.146   7.538  0.6571 -0.2560  1.6236
59775SOL     OW91303   0.684   9.082   9.096 -0.9086 -0.0973 -0.3050
59775SOL    HW191304   0.639   9.152   9.144  1.0101  0.6201  0.5665
59775SOL    HW291305   0.676   9.005   9.153 -0.3783  0.2365  0.2388
59776SOL     OW91306   1.504   6.789   6.430 -0.0186 -0.1310 -0.2202
59776SOL    HW191307   1.566   6.825   6.493  1.0077 -1.6663 -0.3004
59776SOL    HW291308   1.495   6.858   6.364  1.2013  0.3312  0.0615
59777SOL     OW91309  13.048   6.078   8.226 -0.4262  0.4601 -0.1369
59777SOL    HW191310  13.077   5.987   8.233  0.1359  0.2506 -3.7305
59777SOL    HW291311  13.112   6.128   8.277  1.6445 -0.8121 -1.3652
59778SOL     OW91312  10.116   1.128   1.629  0.1612 -0.3107  0.1608
59778SOL    HW191313  10.153   1.194   1.571 -0.3623  0.2838  0.5013
59778SOL    HW291314  10.190   1.098   1.682 -0.1999  2.6896  2.6256
59779SOL     OW91315  13.243   0.327   2.982 -0.2992  0.2174 -0.1830
59779SOL    HW191316  13.179   0.396   2.999  0.6778  1.5443 -1.6148
59779SOL    HW291317  13.201   0.271   2.916 -0.1611  0.8428 -0.8091
59780SOL     OW91318  10.823   3.634  10.249  0.4591  0.9657  0.0366
59780SOL    HW191319  10.906   3.613  10.292 -0.6259  1.0371  2.3318
59780SOL    HW291320  10.829   3.728  10.232  1.1418  0.8300 -0.5184
59781SOL     OW91321   0.952   6.619   0.129 -0.3400  0.2881  0.1031
59781SOL    HW191322   1.004   6.555   0.081 -0.4491  0.3602 -0.1144
59781SOL    HW291323   0.954   6.698   0.074 -0.3809  0.4023  0.2658
59782SOL     OW91324   4.548   5.644   8.169  0.0074  0.2102  0.2926
59782SOL    HW191325   4.607   5.569   8.161 -0.3026  0.0931 -1.0303
59782SOL    HW291326   4.602   5.714   8.206  0.9579  0.0800 -0.8165
59783SOL     OW91327   8.781   5.492   0.779  0.0634 -0.0220 -0.0515
59783SOL    HW191328   8.748   5.559   0.840 -3.3558 -1.0662 -0.4997
59783SOL    HW291329   8.762   5.527   0.692 -0.2261 -0.8172 -0.3249
59784SOL     OW91330   0.232   8.914   8.311 -0.1925 -0.2271 -0.4926
59784SOL    HW191331   0.180   8.937   8.234 -0.0836  1.8672 -0.0235
59784SOL    HW291332   0.192   8.834   8.345 -2.5072  0.7433 -0.7396
59785SOL     OW91333  10.754  11.803   5.654 -0.4019  0.2211  0.0108
59785SOL    HW191334  10.763  11.883   5.602 -2.6066  1.9265  2.0245
59785SOL    HW291335  10.784  11.733   5.595  1.4264  2.4382 -1.9210
59786SOL     OW91336   2.913  11.686   9.221 -0.1450  0.7042  0.5296
59786SOL    HW191337   2.885  11.763   9.171  1.4660 -0.2370 -2.0213
59786SOL    HW291338   3.008  11.683   9.210 -0.1745 -1.7083  0.3982
59787SOL     OW91339   5.829  12.951   8.372  0.3488  0.2197 -0.5785
59787SOL    HW191340   5.860  12.869   8.334  0.1010 -0.6656  1.0697
59787SOL    HW291341   5.735  12.952   8.352  0.6530  0.9726 -2.1011
59788SOL     OW91342   0.884   3.034   0.162 -0.0028 -0.2723  0.3358
59788SOL    HW191343   0.801   3.043   0.209 -0.7441 -3.1440 -0.2546
59788SOL    HW291344   0.950   3.028   0.230 -0.5899 -0.5398  0.8847
59789SOL     OW91345   6.267   7.205  12.859 -0.6045  0.3337 -0.4119
59789SOL    HW191346   6.273   7.229  12.766 -1.7308  1.6900 -0.1769
59789SOL    HW291347   6.357   7.192  12.886 -0.2791 -0.5336 -1.7941
59790SOL     OW91348   7.235   6.120  10.299 -0.3781  0.2939 -0.2730
59790SOL    HW191349   7.227   6.083  10.211 -0.6566 -0.2988 -0.0114
59790SOL    HW291350   7.298   6.063  10.343 -1.2753 -0.2740  0.3291
59791SOL     OW91351   6.133  11.321   9.629 -0.1765  0.4122 -0.1964
59791SOL    HW191352   6.086  11.396   9.592 -0.3999  0.9188  1.0409
59791SOL    HW291353   6.221  11.328   9.593 -0.3726  0.8960 -0.6009
59792SOL     OW91354   7.446   3.371   6.298  0.5676  0.0055 -0.1153
59792SOL    HW191355   7.532   3.369   6.340 -0.0298  0.2910  1.1694
59792SOL    HW291356   7.450   3.446   6.238  0.8861  0.6512  0.6959
59793SOL     OW91357   7.287  10.863  12.262  0.6360 -0.2204 -0.1227
59793SOL    HW191358   7.216  10.892  12.319 -0.1320 -1.9844 -0.1038
59793SOL    HW291359   7.300  10.935  12.200 -0.6625  0.4392  0.3310
59794SOL     OW91360  11.153  11.770   7.650  0.7485  0.1069  0.2712
59794SOL    HW191361  11.106  11.851   7.670  3.6915  2.1114 -0.2827
59794SOL    HW291362  11.126  11.747   7.561 -2.6614 -1.5942  1.5739
59795SOL     OW91363   5.952   1.894   0.110  0.0971  0.1599 -0.0869
59795SOL    HW191364   5.932   1.987   0.120 -0.1663  0.0177  0.8007
59795SOL    HW291365   6.028   1.892   0.052  0.7867  0.9884  0.7457
59796SOL     OW91366   1.276   1.754  12.387  0.0667  0.1711 -0.1649
59796SOL    HW191367   1.270   1.787  12.477 -0.1962  0.7363 -0.3822
59796SOL    HW291368   1.353   1.697  12.387  0.3421  0.5382  0.3027
59797SOL     OW91369   5.759   8.405   9.429  0.2473  0.1083  0.0074
59797SOL    HW191370   5.681   8.460   9.428  0.3148  0.2160  0.3231
59797SOL    HW291371   5.804   8.430   9.510  0.2963 -0.3899  0.1368
59798SOL     OW91372  11.298   7.157   6.989  0.5647  0.4689  0.0575
59798SOL    HW191373  11.208   7.186   7.008 -0.8020 -2.7592 -0.7565
59798SOL    HW291374  11.314   7.188   6.900  0.4072  1.3322  0.3187
59799SOL     OW91375  13.579   3.805  12.313 -0.2107  0.2356 -0.3437
59799SOL    HW191376  13.514   3.869  12.342 -0.3986  0.4550 -1.2275
59799SOL    HW291377  13.663   3.850  12.325 -0.1814 -0.1485  1.0613
59800SOL     OW91378   6.276   0.745   7.486 -0.3401  0.0719 -0.6276
59800SOL    HW191379   6.296   0.653   7.465 -0.7985  0.2819 -2.0690
59800SOL    HW291380   6.310   0.794   7.411  0.2298  1.1349  0.3026
59801SOL     OW91381  11.126   3.275   8.592  0.2514  0.1898  0.0479
59801SOL    HW191382  11.176   3.210   8.543  0.9531 -0.3586  1.4369
59801SOL    HW291383  11.192   3.341   8.617 -0.4155  1.3865 -1.2071
59802SOL     OW91384  11.918   0.849  13.410  0.0670  0.1181 -0.3069
59802SOL    HW191385  11.937   0.825  13.320  0.5426 -1.8473  0.2726
59802SOL    HW291386  12.004   0.851  13.452 -0.2142  0.2492  0.2708
59803SOL     OW91387   9.938   3.481  12.043  0.0685  0.0361 -0.4611
59803SOL    HW191388   9.964   3.560  11.995  0.6451 -0.3023 -0.7184
59803SOL    HW291389   9.874   3.512  12.107  1.2967  0.9442  0.3808
59804SOL     OW91390   7.845   3.596  12.803 -0.1805  0.1561  0.1119
59804SOL    HW191391   7.904   3.535  12.845  0.9865  1.1214 -0.0702
59804SOL    HW291392   7.879   3.606  12.714 -1.1197  0.0841 -0.2705
59805SOL     OW91393   4.247   2.649  11.826 -0.5638  0.0106  0.2568
59805SOL    HW191394   4.330   2.666  11.872  0.3490 -0.3950 -1.1743
59805SOL    HW291395   4.214   2.736  11.804 -0.3909  0.1713  0.6158
59806SOL     OW91396  12.093   3.728   6.295  0.0030 -0.5920  0.6223
59806SOL    HW191397  12.057   3.744   6.208 -0.6943  0.7989  1.1434
59806SOL    HW291398  12.149   3.651   6.284 -1.7746 -1.7757 -0.5912
59807SOL     OW91399  11.486   9.049   3.785  0.8080  0.1226  0.3622
59807SOL    HW191400  11.521   9.027   3.699 -0.3479  0.2207 -0.1565
59807SOL    HW291401  11.518   9.137   3.802  0.3573  0.4373 -0.3628
59808SOL     OW91402   9.941   3.767   5.763  0.9111  0.4090 -0.0318
59808SOL    HW191403   9.988   3.684   5.765  0.5453  0.1939  2.4073
59808SOL    HW291404   9.877   3.757   5.692  3.4580  0.1766 -2.4693
59809SOL     OW91405  10.776  11.698   5.345  0.0570  0.2134 -0.0852
59809SOL    HW191406  10.688  11.679   5.378 -0.2952  0.9559 -0.5795
59809SOL    HW291407  10.773  11.790   5.319  0.1097 -0.4445 -2.7604
59810SOL     OW91408   0.848   3.594   3.162  0.2357 -0.2676  0.5059
59810SOL    HW191409   0.891   3.680   3.161 -0.8383  0.2872  0.0383
59810SOL    HW291410   0.772   3.605   3.105 -1.0867 -0.9136  2.0813
59811SOL     OW91411  13.248   6.383   9.472 -0.2245 -0.0325 -0.2020
59811SOL    HW191412  13.201   6.410   9.550 -0.5295  0.3943 -0.5270
59811SOL    HW291413  13.339   6.410   9.487 -0.3710  0.4580 -0.1866
59812SOL     OW91414  13.852   2.226   1.438 -0.6454  0.6718 -0.1093
59812SOL    HW191415  13.902   2.304   1.464 -0.6188  0.3362  0.8842
59812SOL    HW291416  13.897   2.194   1.359  0.5111  0.5770  0.5714
59813SOL     OW91417   3.977   3.441   0.093 -1.0879  0.1738 -0.2423
59813SOL    HW191418   4.066   3.418   0.120 -0.4844  2.7589  0.2576
59813SOL    HW291419   3.983   3.451  -0.002 -0.4617  1.5944 -0.0827
59814SOL     OW91420   1.368   6.321   9.871 -0.1479  0.2478 -0.3162
59814SOL    HW191421   1.373   6.241   9.922  0.7992  0.8156  0.5275
59814SOL    HW291422   1.300   6.305   9.806 -0.2237 -1.0932  0.0782
59815SOL     OW91423   1.940   4.582   4.840 -0.2948 -0.5188  0.4881
59815SOL    HW191424   1.934   4.502   4.786  1.8631 -0.0017 -0.6634
59815SOL    HW291425   2.015   4.565   4.898 -0.6189  0.1865  1.1194
59816SOL     OW91426   9.785   2.763   4.670  0.3093  0.1992  0.9709
59816SOL    HW191427   9.860   2.709   4.693  1.2607  1.3093  0.5680
59816SOL    HW291428   9.774   2.823   4.743  2.2054  2.5238 -0.5137
59817SOL     OW91429   2.872   3.691   3.645 -0.0115  0.2634 -0.4466
59817SOL    HW191430   2.812   3.617   3.647 -0.5142  0.6516 -0.7457
59817SOL    HW291431   2.851   3.742   3.723  0.6068 -0.1077 -0.0254
59818SOL     OW91432   7.674  12.363   3.402  0.0847  0.3978  0.3044
59818SOL    HW191433   7.692  12.450   3.365  1.0303 -0.6223 -1.7670
59818SOL    HW291434   7.585  12.344   3.372 -0.2810  0.7910  1.1048
59819SOL     OW91435   4.711   5.608   2.324 -0.5494 -0.1785 -0.0003
59819SOL    HW191436   4.728   5.520   2.290  0.2211 -1.1360  2.6530
59819SOL    HW291437   4.617   5.620   2.312 -0.4176 -0.6744 -1.8358
59820SOL     OW91438   3.465  10.224   9.011 -0.4591 -0.2063  0.7041
59820SOL    HW191439   3.506  10.143   9.041 -0.1758 -0.4979 -0.4268
59820SOL    HW291440   3.372  10.204   9.005 -0.6498  0.1009  2.1148
59821SOL     OW91441   2.636   9.257   7.133  0.3578  0.2920 -0.1177
59821SOL    HW191442   2.591   9.202   7.197 -0.0547  0.3727 -0.3354
59821SOL    HW291443   2.594   9.236   7.050 -0.2472  1.4127 -0.1044
59822SOL     OW91444   0.506   1.664   6.200  0.0251  0.1898 -0.0460
59822SOL    HW191445   0.426   1.616   6.177 -0.0417 -0.6438  1.7556
59822SOL    HW291446   0.477   1.737   6.253  0.3679  0.6650 -0.4955
59823SOL     OW91447   2.323   9.914  13.776 -0.0947 -0.5832  0.2434
59823SOL    HW191448   2.415   9.886  13.776 -0.2617 -1.1494  0.2389
59823SOL    HW291449   2.315   9.969  13.697  0.9872  2.1115  1.8683
59824SOL     OW91450   5.136   9.708   2.402 -0.1254  0.2311  0.1128
59824SOL    HW191451   5.229   9.733   2.408  0.0522 -0.3451 -0.1927
59824SOL    HW291452   5.137   9.612   2.407 -0.7155  0.2280  0.1877
59825SOL     OW91453  11.693  12.925  11.159 -0.2443  0.0205 -0.0726
59825SOL    HW191454  11.652  12.985  11.096  0.1725 -0.9768 -1.3461
59825SOL    HW291455  11.629  12.855  11.171 -2.7871  2.6221  4.8701
59826SOL     OW91456  10.172   4.892   7.488  1.1042 -0.6232 -0.0009
59826SOL    HW191457  10.178   4.976   7.443 -0.9314  0.6336  1.8852
59826SOL    HW291458  10.254   4.885   7.537  0.9563  0.7052  0.4715
59827SOL     OW91459   2.942  13.108   4.540 -0.2187  0.0864  0.3445
59827SOL    HW191460   2.922  13.197   4.569  0.6182  0.0427  1.1047
59827SOL    HW291461   3.028  13.115   4.498 -1.1973  0.0607 -1.8143
59828SOL     OW91462  13.109   0.048   4.520 -0.1207  0.3460 -0.0515
59828SOL    HW191463  13.026   0.054   4.471  0.6134  1.2190 -1.2542
59828SOL    HW291464  13.107   0.123   4.579 -1.8886 -1.7777  2.8185
59829SOL     OW91465   2.316   8.273  11.828  0.4963 -0.0827 -0.3084
59829SOL    HW191466   2.247   8.218  11.865  0.9121 -1.0139 -0.8770
59829SOL    HW291467   2.286   8.363  11.844 -1.4988 -0.4349 -1.7115
59830SOL     OW91468  14.030   9.272   9.823  0.2614 -0.8778  0.9128
59830SOL    HW191469  13.969   9.328   9.871 -0.1475 -0.1686 -0.3867
59830SOL    HW291470  14.031   9.190   9.872 -2.2851 -1.1745  0.6044
59831SOL     OW91471   0.623   7.802  10.757  0.1866 -0.1182  0.3921
59831SOL    HW191472   0.643   7.883  10.710 -0.1694  0.4534  1.2035
59831SOL    HW291473   0.673   7.735  10.711  0.4289  0.5444 -0.3404
59832SOL     OW91474  10.348   7.218   1.914  0.5052  0.4724 -1.1908
59832SOL    HW191475  10.398   7.157   1.858 -0.3909 -1.6062  0.1486
59832SOL    HW291476  10.317   7.163   1.986  1.9143  3.0746  1.6213
59833SOL     OW91477  11.013   0.749   7.136  0.1046 -0.5265  0.3991
59833SOL    HW191478  11.081   0.714   7.079 -0.9148 -2.2997  0.2057
59833SOL    HW291479  11.060   0.796   7.204  1.4950 -1.3558  0.0352
59834SOL     OW91480   8.151   6.863   8.367  0.6686  0.2679 -0.1238
59834SOL    HW191481   8.222   6.815   8.324  0.8170  1.9396 -1.8991
59834SOL    HW291482   8.187   6.950   8.381  0.0849  0.1929  2.1276
59835SOL     OW91483   3.042   3.028   9.761 -0.0405 -0.0333 -0.3892
59835SOL    HW191484   2.991   3.024   9.680  1.5829  0.0914 -1.4697
59835SOL    HW291485   3.058   2.936   9.784 -1.4232 -0.0903  0.4292
59836SOL     OW91486  11.475   5.563   2.334 -0.3333  0.4198 -0.4525
59836SOL    HW191487  11.522   5.614   2.400 -2.0797  0.5893  0.7337
59836SOL    HW291488  11.543   5.522   2.282  1.2223 -1.2770  2.6199
59837SOL     OW91489   5.804   5.911  10.729 -0.0029  0.2545  0.1733
59837SOL    HW191490   5.734   5.971  10.753  0.7534  0.7658  1.1958
59837SOL    HW291491   5.761   5.826  10.719 -0.8509  0.6696  0.2266
59838SOL     OW91492   2.594   9.253   6.623  0.3230 -0.2664  0.1869
59838SOL    HW191493   2.582   9.345   6.602  2.4453 -0.2223 -1.1574
59838SOL    HW291494   2.542   9.206   6.558 -0.5020 -0.0413  0.6734
59839SOL     OW91495  13.778   6.309   1.082 -0.1151 -0.0462  0.2050
59839SOL    HW191496  13.871   6.319   1.062 -0.3428  0.1715 -0.7972
59839SOL    HW291497  13.754   6.390   1.126 -0.4609  1.1764 -2.0926
59840SOL     OW91498   0.345   7.226   8.727  0.6529  0.6491 -0.5278
59840SOL    HW191499   0.268   7.182   8.689  0.5798  0.5813 -0.3003
59840SOL    HW291500   0.348   7.311   8.681  0.2301  0.7995 -0.2839
59841SOL     OW91501   7.975   0.153   0.456  0.1308 -0.2425 -0.4067
59841SOL    HW191502   7.893   0.203   0.447 -0.4093 -0.5524  2.0781
59841SOL    HW291503   8.025   0.175   0.378 -1.6295  1.2821 -1.1854
59842SOL     OW91504   8.117   0.725   7.331 -0.2803  0.1639 -0.4970
59842SOL    HW191505   8.185   0.769   7.382 -0.6383  0.2721 -0.1112
59842SOL    HW291506   8.108   0.778   7.252 -0.0122  0.2214 -0.4920
59843SOL     OW91507   6.773   4.973  11.376 -0.9933  0.5333  0.1205
59843SOL    HW191508   6.710   4.903  11.361 -0.7142 -0.1829  2.0341
59843SOL    HW291509   6.853   4.944  11.331 -1.5363  0.7493 -1.0357
59844SOL     OW91510   4.096   1.219   5.358 -0.0319  0.1825 -0.3703
59844SOL    HW191511   4.033   1.181   5.419  1.6985 -1.4422  0.5357
59844SOL    HW291512   4.059   1.203   5.272 -1.0854 -0.2656  0.1516
59845SOL     OW91513  13.501  12.134   0.709  0.0869 -0.1095 -0.2683
59845SOL    HW191514  13.555  12.167   0.780  1.3868 -3.7121  0.6401
59845SOL    HW291515  13.452  12.210   0.679  2.3111  2.3873  1.8885
59846SOL     OW91516   0.071   2.684  11.163 -0.1700  0.2254  0.4535
59846SOL    HW191517   0.082   2.778  11.153 -0.3588  0.2393  0.3770
59846SOL    HW291518   0.138   2.645  11.107  0.9866  0.3203  1.7330
59847SOL     OW91519   7.022   6.025  13.799  0.0492  0.3781  0.4016
59847SOL    HW191520   6.928   6.020  13.812 -0.2408  2.9918 -0.1516
59847SOL    HW291521   7.050   5.935  13.787 -1.8832 -0.8177  3.6899
59848SOL     OW91522   6.189   5.399   3.517 -0.1102  0.0268 -0.1078
59848SOL    HW191523   6.104   5.384   3.559 -0.3445 -0.8089 -0.8388
59848SOL    HW291524   6.252   5.356   3.575 -0.0348  1.5189  0.9720
59849SOL     OW91525   0.789  10.887   8.215  0.0672 -0.6153 -0.4716
59849SOL    HW191526   0.801  10.962   8.273  0.8174  0.8666 -2.4108
59849SOL    HW291527   0.695  10.874   8.210 -0.0935  0.4294 -0.3351
59850SOL     OW91528   0.742   7.715  12.600 -0.2826  0.0125 -0.2382
59850SOL    HW191529   0.783   7.791  12.559  1.2527 -0.1660  0.8499
59850SOL    HW291530   0.733   7.651  12.530  2.8383 -0.5213 -0.3377
59851SOL     OW91531   0.769  10.373   7.629 -0.1922 -0.3900  0.0492
59851SOL    HW191532   0.688  10.351   7.674 -0.0582 -0.0119  0.4887
59851SOL    HW291533   0.757  10.340   7.540 -1.3417  0.7638 -0.2639
59852SOL     OW91534   7.044  11.043   3.423 -0.6005 -0.3138  0.5514
59852SOL    HW191535   7.028  11.104   3.494 -0.1798  1.1049 -0.5234
59852SOL    HW291536   6.999  11.082   3.347  1.8401  0.0873 -0.7927
59853SOL     OW91537  13.866   3.386  13.098  0.3854 -0.0282  0.5103
59853SOL    HW191538  13.814   3.452  13.145  1.2171  0.8138  0.2698
59853SOL    HW291539  13.936   3.436  13.057  1.7470 -1.2290  1.3166
59854SOL     OW91540  10.393  13.646   0.871 -0.3957  0.3914 -0.2980
59854SOL    HW191541  10.473  13.596   0.889  0.9049  2.1639 -0.9096
59854SOL    HW291542  10.400  13.723   0.926 -0.4607  1.7592 -2.1192
59855SOL     OW91543   3.909  12.776  10.574 -0.0939  0.0516 -0.2938
59855SOL    HW191544   3.969  12.803  10.505  1.5079  0.5237  1.2170
59855SOL    HW291545   3.965  12.759  10.650 -1.9020  1.2521  1.4144
59856SOL     OW91546   5.773   3.370   5.484  0.3226  0.6186  0.0503
59856SOL    HW191547   5.801   3.285   5.519 -1.4400 -0.1386 -0.2626
59856SOL    HW291548   5.703   3.398   5.543 -0.6377  0.7552 -1.1184
59857SOL     OW91549   1.889  11.590   8.547 -0.2864 -0.0695 -0.0983
59857SOL    HW191550   1.931  11.676   8.549 -0.6814  0.1620 -1.0214
59857SOL    HW291551   1.912  11.549   8.631  1.5015  0.1638 -0.4326
59858SOL     OW91552  11.530   7.114   1.682 -0.0788 -0.3325 -0.2312
59858SOL    HW191553  11.546   7.060   1.604 -0.4093 -1.1935  0.2807
59858SOL    HW291554  11.529   7.204   1.649  0.9696 -0.5922 -1.0300
59859SOL     OW91555   2.575   5.137  12.557  0.1977  0.0926  0.6442
59859SOL    HW191556   2.660   5.176  12.577 -0.7278  1.4466  2.1868
59859SOL    HW291557   2.520   5.211  12.533 -0.2569 -0.9009 -1.6314
59860SOL     OW91558   1.531  12.827  11.180 -0.5363 -0.1626  0.2591
59860SOL    HW191559   1.477  12.827  11.101 -1.1510 -0.0030  0.6799
59860SOL    HW291560   1.470  12.846  11.251  0.3279  1.7448  0.5605
59861SOL     OW91561   3.493  10.136   0.851  0.3984 -0.1046 -0.2577
59861SOL    HW191562   3.463  10.118   0.762 -1.0446 -0.3605  0.2607
59861SOL    HW291563   3.495  10.050   0.893  4.5973 -0.6012 -0.9867
59862SOL     OW91564  12.651   0.708   6.424  0.4954  0.0575  0.1667
59862SOL    HW191565  12.681   0.747   6.506  1.2780 -2.0285  0.9176
59862SOL    HW291566  12.578   0.652   6.449  0.4068 -0.2021 -0.6397
59863SOL     OW91567   2.009   6.226  12.971 -0.5248  0.2785 -0.2406
59863SOL    HW191568   1.960   6.203  13.051  0.7864  1.0872  0.8318
59863SOL    HW291569   1.968   6.308  12.941 -0.4886  0.4094  0.0656
59864SOL     OW91570   9.949  10.614   0.680  0.1955  0.0515  0.0072
59864SOL    HW191571  10.009  10.642   0.610  0.0663  0.5678  0.0986
59864SOL    HW291572   9.865  10.601   0.635  0.1760  0.1277  0.0214
59865SOL     OW91573   6.597   1.297  11.537  0.3962 -0.6491 -0.3115
59865SOL    HW191574   6.592   1.292  11.442  0.7362 -0.3113 -0.3522
59865SOL    HW291575   6.667   1.360  11.554 -0.9827  0.8295  0.1468
59866SOL     OW91576   2.423  11.580   9.949 -0.1237 -0.4400 -0.0187
59866SOL    HW191577   2.399  11.630   9.871 -0.7197 -2.9809 -1.6078
59866SOL    HW291578   2.401  11.490   9.927  1.0482 -1.4764  2.5886
59867SOL     OW91579   2.435  13.566  11.557 -0.0848  0.2212 -0.4595
59867SOL    HW191580   2.464  13.499  11.619  0.7007  2.1050  1.3021
59867SOL    HW291581   2.516  13.596  11.515  0.0306  2.2059  1.0564
59868SOL     OW91582   8.428   7.302   6.644 -0.0381 -0.0427  0.0636
59868SOL    HW191583   8.332   7.300   6.640 -0.1500  2.7097 -0.7882
59868SOL    HW291584   8.448   7.331   6.733 -0.0480  0.4522 -0.0935
59869SOL     OW91585  10.979  13.292   0.990  0.2570 -0.2007 -0.5833
59869SOL    HW191586  11.061  13.267   1.032 -0.4354 -1.4282  0.0879
59869SOL    HW291587  10.976  13.387   0.998  0.6876 -0.3032  1.1514
59870SOL     OW91588  11.441   5.455   0.298 -0.2207  0.8377 -0.6933
59870SOL    HW191589  11.387   5.440   0.376  0.8378 -0.5731 -0.1811
59870SOL    HW291590  11.408   5.537   0.261 -1.9322  0.6136  0.2298
59871SOL     OW91591   1.731   2.641  10.481  0.1378  0.0952 -0.3743
59871SOL    HW191592   1.821   2.656  10.452 -0.0036  0.7471 -0.5096
59871SOL    HW291593   1.688   2.726  10.468  0.2184  0.6404  2.3616
59872SOL     OW91594   9.518  13.437   2.414 -0.1477  0.2571  0.1245
59872SOL    HW191595   9.443  13.424   2.471 -0.2315 -0.0621 -0.0574
59872SOL    HW291596   9.573  13.500   2.461  0.3636 -0.8880  1.1095
59873SOL     OW91597  11.127  13.921  13.870  0.0993  0.1079  0.1778
59873SOL    HW191598  11.203  13.972  13.842  0.3334  0.0813  0.7402
59873SOL    HW291599  11.164  13.853  13.926 -0.3281  0.0163  0.3460
59874SOL     OW91600  13.914   9.171   2.757  0.1596  0.2535  0.0783
59874SOL    HW191601  13.965   9.242   2.795 -0.4306  0.0360  1.2962
59874SOL    HW291602  13.974   9.096   2.756  0.7778  0.7299 -1.1938
59875SOL     OW91603  12.528   0.499   1.822 -0.3939  0.0318 -0.4739
59875SOL    HW191604  12.550   0.421   1.771 -0.1417 -0.5212  0.4623
59875SOL    HW291605  12.459   0.470   1.882  1.9030 -0.4293  2.1758
59876SOL     OW91606   6.961  11.993   2.076 -0.2610  0.2733 -0.1967
59876SOL    HW191607   7.022  12.047   2.126 -1.0578  2.5064 -1.5232
59876SOL    HW291608   6.876  12.036   2.086 -1.4720 -2.1124  0.6504
59877SOL     OW91609   3.569   0.748   3.734 -0.3803 -0.5289 -0.3736
59877SOL    HW191610   3.560   0.833   3.777  0.9824 -0.3226 -0.4639
59877SOL    HW291611   3.566   0.768   3.641 -1.1480 -0.7259 -0.4012
59878SOL     OW91612   3.117  12.541   9.179 -0.3651 -0.6354  0.4223
59878SOL    HW191613   3.021  12.543   9.184 -0.3822  0.4989 -0.0415
59878SOL    HW291614   3.138  12.596   9.104  0.7227  0.6250  1.5908
59879SOL     OW91615   3.273   7.043   1.247  0.4010 -0.4220  0.3157
59879SOL    HW191616   3.350   7.096   1.227  1.4786 -2.2849 -0.7553
59879SOL    HW291617   3.302   6.985   1.318 -0.2658 -0.6124  0.4385
59880SOL     OW91618   8.266   1.686   6.569 -0.3716 -0.3152 -0.1667
59880SOL    HW191619   8.305   1.622   6.510 -0.7635 -0.7665  0.0636
59880SOL    HW291620   8.217   1.634   6.633 -1.2703  0.2313 -0.3897
59881SOL     OW91621   7.193  12.870  10.506  0.3042  0.2767  0.6633
59881SOL    HW191622   7.219  12.952  10.549 -1.2262  0.3503  1.5124
59881SOL    HW291623   7.190  12.806  10.578  1.5477 -0.5771  0.0010
59882SOL     OW91624  10.092  11.326   0.796 -0.1531 -0.0557 -0.5976
59882SOL    HW191625  10.089  11.421   0.797 -0.0625 -0.0486  1.0835
59882SOL    HW291626  10.173  11.304   0.841 -1.5350 -0.9365  1.6042
59883SOL     OW91627   2.390  12.968   1.755  0.3572 -0.2356 -0.0186
59883SOL    HW191628   2.370  12.876   1.776  0.8178  0.0593  1.8979
59883SOL    HW291629   2.459  12.992   1.816 -0.3357  1.6441  0.0869
59884SOL     OW91630   7.540  12.005  11.557  0.3271 -0.9392  0.3814
59884SOL    HW191631   7.515  12.023  11.466 -1.4917 -0.6126  0.9138
59884SOL    HW291632   7.635  11.994  11.554  0.4407  0.2065 -1.3667
59885SOL     OW91633   1.752   6.997   8.430 -0.1047  0.1997  1.0038
59885SOL    HW191634   1.656   6.989   8.436 -0.2531  1.2424  0.2382
59885SOL    HW291635   1.784   6.911   8.456 -1.1897  0.2600  2.6947
59886SOL     OW91636  13.472   0.322  11.236 -0.2059  0.0700  0.6393
59886SOL    HW191637  13.542   0.306  11.172 -0.8690  1.3101 -0.4592
59886SOL    HW291638  13.413   0.248  11.227 -0.7785  0.6842 -0.8945
59887SOL     OW91639  11.521  10.286   3.125  0.2522  0.0202 -0.6050
59887SOL    HW191640  11.470  10.206   3.140 -0.5204  0.0222 -2.8249
59887SOL    HW291641  11.524  10.329   3.211 -0.3055 -1.7972  0.3843
59888SOL     OW91642   1.620  13.574  12.196  0.0811 -0.3002 -0.8355
59888SOL    HW191643   1.622  13.660  12.239  0.9475 -0.9871  0.5507
59888SOL    HW291644   1.601  13.513  12.267 -1.0322 -1.2273 -1.8967
59889SOL     OW91645  12.623   5.777  13.556  0.3031 -0.2951  0.3536
59889SOL    HW191646  12.642   5.711  13.490 -0.2811  0.5251 -0.6663
59889SOL    HW291647  12.700   5.835  13.555 -0.7637  1.2194 -1.5342
59890SOL     OW91648   0.448   5.318  13.694 -0.3561  0.0131  0.6349
59890SOL    HW191649   0.420   5.331  13.603  0.1278 -0.1432  0.4579
59890SOL    HW291650   0.544   5.316  13.689 -0.3464 -1.7171  0.9117
59891SOL     OW91651  13.410   4.984  11.195  0.2804  0.0546 -0.6662
59891SOL    HW191652  13.409   4.973  11.290 -0.5202  1.1850 -0.5203
59891SOL    HW291653  13.477   5.051  11.179 -0.1663  0.4709 -0.8148
59892SOL     OW91654   0.027   9.204   0.268  0.0710 -0.4964  0.2499
59892SOL    HW191655  -0.055   9.163   0.296 -1.1622  0.0757 -2.2662
59892SOL    HW291656   0.068   9.137   0.213  1.2538 -0.7014  1.3345
59893SOL     OW91657  12.787   2.630   9.886 -0.3996 -0.0179  0.4432
59893SOL    HW191658  12.830   2.619   9.802  0.1133 -0.5983  0.7729
59893SOL    HW291659  12.789   2.543   9.926  0.5318  0.4890  1.6007
59894SOL     OW91660   1.419  10.402   1.580 -0.3195  0.0695  0.4720
59894SOL    HW191661   1.429  10.458   1.504 -0.0071  0.3799  0.7369
59894SOL    HW291662   1.502  10.355   1.587 -0.5755 -0.4247  0.2569
59895SOL     OW91663   3.847   2.783   3.467  0.0455  0.2338 -0.2601
59895SOL    HW191664   3.774   2.797   3.527  1.5900  0.2263  1.7221
59895SOL    HW291665   3.907   2.856   3.483  1.0364 -0.3791 -0.9731
59896SOL     OW91666  12.527  11.064   3.243 -0.1766  0.0515  0.1708
59896SOL    HW191667  12.602  11.016   3.210  0.2603  1.1053 -0.4096
59896SOL    HW291668  12.529  11.051   3.338 -0.6084 -1.8134 -0.0401
59897SOL     OW91669   0.974  10.526   7.989  0.4317  0.5099 -0.1420
59897SOL    HW191670   0.986  10.600   8.049 -1.1576 -0.5713  1.6411
59897SOL    HW291671   0.991  10.449   8.043 -0.6013 -0.5033 -1.2112
59898SOL     OW91672   7.653   0.843  11.045 -0.0805  0.2205 -0.3537
59898SOL    HW191673   7.717   0.819  11.113  0.9194  0.2359 -1.2584
59898SOL    HW291674   7.702   0.899  10.985 -1.1224  0.7254 -0.7574
59899SOL     OW91675   1.133  11.957   0.311  0.0751 -0.3805 -0.0909
59899SOL    HW191676   1.060  11.973   0.371  0.6692  2.4105  0.0564
59899SOL    HW291677   1.115  12.013   0.235  1.7534 -0.0489 -0.2944
59900SOL     OW91678   6.943  13.644  13.670  0.2339 -0.1618  0.1900
59900SOL    HW191679   6.957  13.736  13.648 -0.3531  0.3226  1.6998
59900SOL    HW291680   7.031  13.610  13.685  0.4052  0.4093  0.5224
59901SOL     OW91681  11.203  13.049  12.145  0.0079 -0.9887 -0.1939
59901SOL    HW191682  11.203  12.956  12.165 -1.6884 -0.8509  0.6025
59901SOL    HW291683  11.254  13.089  12.216  1.6837 -1.3628 -1.1158
59902SOL     OW91684   4.916   3.574  10.056  0.0266 -0.6521 -0.0683
59902SOL    HW191685   4.968   3.557  10.134  1.6123  1.6578 -0.4944
59902SOL    HW291686   4.968   3.638  10.006 -2.0596 -0.1717 -1.8027
59903SOL     OW91687   6.948  10.234  12.660 -0.1981 -0.4955  0.0898
59903SOL    HW191688   6.883  10.304  12.665 -0.2251 -0.3396 -1.6570
59903SOL    HW291689   6.921  10.171  12.727  0.1854  1.3912  2.1517
59904SOL     OW91690   4.777   2.340   4.603  0.7496  0.4608 -0.2226
59904SOL    HW191691   4.810   2.338   4.692  2.7339  0.1591 -0.9297
59904SOL    HW291692   4.712   2.269   4.600  0.0118  1.0351  1.1699
59905SOL     OW91693  12.996   8.035  11.555  0.3526 -0.4157  0.0209
59905SOL    HW191694  13.059   8.018  11.485 -0.0598  0.8836 -0.6892
59905SOL    HW291695  12.979   7.948  11.593  0.7697 -1.1108 -1.3181
59906SOL     OW91696   6.093   5.634  11.391 -0.3403 -0.0081  0.1665
59906SOL    HW191697   6.121   5.605  11.478  0.0154  0.7572  0.3175
59906SOL    HW291698   6.173   5.636  11.339 -0.3119  0.8841  0.2216
59907SOL     OW91699  12.015  12.579  11.813  0.3448 -0.1171  0.0529
59907SOL    HW191700  11.933  12.600  11.858  0.3700 -0.0521  0.0687
59907SOL    HW291701  12.057  12.664  11.799  1.1790 -0.2804  1.4887
59908SOL     OW91702   0.627   8.412   3.261 -0.3443 -0.5266 -0.1298
59908SOL    HW191703   0.703   8.406   3.202  1.0593 -0.5620  1.5877
59908SOL    HW291704   0.566   8.469   3.216  0.7067 -0.4816 -1.5800
59909SOL     OW91705   5.716   4.973  11.508 -0.2824  0.4529  0.0389
59909SOL    HW191706   5.715   4.950  11.601 -0.5087 -1.8080 -0.4499
59909SOL    HW291707   5.630   5.012  11.492  0.5948  3.0788  1.1940
59910SOL     OW91708   0.905  13.314   8.020  0.0482  0.3576 -0.6944
59910SOL    HW191709   0.919  13.375   8.093  1.4013 -0.0565 -0.5842
59910SOL    HW291710   0.813  13.287   8.029  0.2631  0.0766  1.0490
59911SOL     OW91711  11.968  14.042  12.709  0.1558  1.2301  0.3823
59911SOL    HW191712  12.045  13.985  12.706 -1.1115 -0.5437  0.1415
59911SOL    HW291713  11.903  13.998  12.654 -0.9816  2.7667  0.4451
59912SOL     OW91714   0.210   6.519  11.488  0.0362  0.0899 -0.0276
59912SOL    HW191715   0.243   6.499  11.575 -0.1926 -2.3499 -0.4258
59912SOL    HW291716   0.206   6.434  11.443 -1.0811  1.0837 -1.9848
59913SOL     OW91717  13.053   5.375  10.602  0.4104  0.0635 -0.3959
59913SOL    HW191718  13.079   5.289  10.635 -1.4184 -0.7308 -0.8598
59913SOL    HW291719  13.039   5.361  10.508 -1.2940  0.4639 -0.2341
59914SOL     OW91720  13.660   9.219   9.669  1.2611 -0.5106  0.0699
59914SOL    HW191721  13.581   9.214   9.615  0.5455  1.1122  0.9066
59914SOL    HW291722  13.637   9.279   9.740  3.0985 -0.3745  0.5996
59915SOL     OW91723   6.920   2.760   2.065 -0.6036 -0.0575  0.3889
59915SOL    HW191724   6.869   2.773   2.146  1.3469 -0.2135  1.7086
59915SOL    HW291725   6.953   2.671   2.072 -1.6114 -0.6082 -1.3461
59916SOL     OW91726   3.865   1.290   0.471  0.1511  0.1393 -0.2139
59916SOL    HW191727   3.784   1.296   0.521  0.1196  1.2449 -0.3651
59916SOL    HW291728   3.921   1.357   0.510  1.7042 -1.8056  1.1155
59917SOL     OW91729  10.567   6.722  11.753 -0.2172  0.3925 -0.1834
59917SOL    HW191730  10.503   6.692  11.818  0.1660  0.3132  0.1582
59917SOL    HW291731  10.652   6.707  11.794 -0.0008  1.4329 -0.2265
59918SOL     OW91732   0.192   5.465   7.489  0.5016 -0.4796 -0.5876
59918SOL    HW191733   0.189   5.477   7.394 -0.2534 -0.3620 -0.5480
59918SOL    HW291734   0.189   5.554   7.524  0.1638 -0.5508 -0.4371
59919SOL     OW91735   3.356  12.358   1.190  0.2489  0.6994 -0.1680
59919SOL    HW191736   3.446  12.381   1.215  0.6322 -1.3026  0.4728
59919SOL    HW291737   3.320  12.439   1.154  2.4202  1.4829 -0.7673
59920SOL     OW91738   0.049   6.795   3.156 -0.3368 -0.2310 -0.4670
59920SOL    HW191739   0.143   6.802   3.136  0.2972  2.7600  2.6362
59920SOL    HW291740   0.046   6.762   3.245 -2.3308 -0.8633 -0.7248
59921SOL     OW91741   2.865   1.099   3.816  0.0352 -0.7382  0.0639
59921SOL    HW191742   2.788   1.156   3.824  0.2861  0.1904 -2.8944
59921SOL    HW291743   2.873   1.057   3.902 -2.3530  0.9054  1.2013
59922SOL     OW91744   9.505   5.801   8.886 -0.3932 -0.2855 -0.0721
59922SOL    HW191745   9.585   5.773   8.842 -0.1544  0.1930  0.0554
59922SOL    HW291746   9.534   5.834   8.970 -0.4376  2.0883 -0.9248
59923SOL     OW91747   9.964   1.683   7.768 -0.4070 -0.1219  0.2385
59923SOL    HW191748  10.025   1.728   7.709 -0.0355 -1.2625 -0.2803
59923SOL    HW291749   9.927   1.613   7.714 -1.2183 -0.2353  0.9256
59924SOL     OW91750  10.450   3.567   9.521  0.0476  0.4210  0.2224
59924SOL    HW191751  10.392   3.616   9.579  0.3142  1.2069 -0.1605
59924SOL    HW291752  10.467   3.626   9.448  1.8051  0.4724  0.6078
59925SOL     OW91753   6.571   4.917   1.586  0.0156 -0.0579 -0.2002
59925SOL    HW191754   6.583   4.967   1.667 -0.0719 -1.1110  0.4843
59925SOL    HW291755   6.582   4.981   1.516 -0.9511  1.0831  0.6603
59926SOL     OW91756   8.436   9.229   4.288 -0.0138  0.0495 -0.2689
59926SOL    HW191757   8.479   9.263   4.367 -1.6626  1.4770  0.0767
59926SOL    HW291758   8.508   9.209   4.228  1.2098  0.1702  1.1159
59927SOL     OW91759   4.953   5.130   7.412  0.0031  0.3050 -0.4685
59927SOL    HW191760   4.953   5.224   7.392 -0.3908  0.3001 -0.4906
59927SOL    HW291761   4.910   5.124   7.497 -0.9205  0.0445 -0.9423
59928SOL     OW91762   5.796   8.044  12.431  0.4830  0.0007 -0.1795
59928SOL    HW191763   5.779   8.043  12.525 -0.3436  0.2865 -0.3242
59928SOL    HW291764   5.875   8.099  12.422  1.0489 -0.6950  0.4107
59929SOL     OW91765  13.708   9.639   4.611  0.0108  0.0240 -0.6902
59929SOL    HW191766  13.707   9.622   4.517  1.2971 -0.9731 -0.5511
59929SOL    HW291767  13.784   9.591   4.643 -0.5724  0.1139  0.9092
59930SOL     OW91768   4.837  13.880   2.061 -0.1212  0.2157 -0.1442
59930SOL    HW191769   4.811  13.931   2.138  2.1712  0.5386  0.5015
59930SOL    HW291770   4.896  13.939   2.013 -2.5643  0.5717 -2.9888
59931SOL     OW91771   6.133   6.180  12.744 -0.5444 -0.4339 -0.3209
59931SOL    HW191772   6.163   6.262  12.782 -1.2184 -0.6989  0.8127
59931SOL    HW291773   6.073   6.206  12.674 -3.1943  0.0945  1.9870
59932SOL     OW91774   9.748  13.412  11.651 -0.0472  0.2238  0.3970
59932SOL    HW191775   9.700  13.481  11.606  0.1692 -0.3120 -0.6952
59932SOL    HW291776   9.700  13.332  11.629  1.2327 -0.3012 -0.5936
59933SOL     OW91777  13.817   8.638   9.944  0.2071  0.8413 -0.6590
59933SOL    HW191778  13.759   8.579   9.895  2.5077 -0.6601 -1.7233
59933SOL    HW291779  13.905   8.608   9.924  1.3800  1.2938  2.9722
59934SOL     OW91780   1.457   6.631  13.197  0.0790 -0.4673 -0.0808
59934SOL    HW191781   1.418   6.567  13.137 -0.8304  0.1351 -0.1440
59934SOL    HW291782   1.398   6.632  13.272  0.1158  0.2517 -0.0576
59935SOL     OW91783   9.683   0.324   6.400  0.2047  0.0633  0.6343
59935SOL    HW191784   9.614   0.384   6.426  0.0106  0.4634 -0.7444
59935SOL    HW291785   9.641   0.238   6.399 -0.6595  0.4510 -1.3979
59936SOL     OW91786  13.295   7.616   2.907  0.4500  0.5355  0.2651
59936SOL    HW191787  13.288   7.567   2.825 -0.9019  0.9203  0.1156
59936SOL    HW291788  13.379   7.589   2.944  0.2590 -1.0380 -0.3545
59937SOL     OW91789  13.230   1.532   5.812  0.5791  0.5095  0.4427
59937SOL    HW191790  13.203   1.616   5.849  1.0273  1.0811 -0.4854
59937SOL    HW291791  13.195   1.532   5.723  2.0332  0.4788 -0.1582
59938SOL     OW91792  12.934   2.429   5.773  0.2965 -0.0121  0.0347
59938SOL    HW191793  12.987   2.482   5.833  1.2411 -2.3416  1.4193
59938SOL    HW291794  12.994   2.405   5.703  0.0443  0.2467 -0.2714
59939SOL     OW91795   9.777   5.822   8.928 -0.3904 -0.3220 -0.1355
59939SOL    HW191796   9.848   5.846   8.989  0.2925 -0.4700 -0.8531
59939SOL    HW291797   9.823   5.789   8.851 -1.2029  1.0923 -1.2641
59940SOL     OW91798   4.594   8.283   5.905 -0.0579 -0.3146 -0.3523
59940SOL    HW191799   4.546   8.213   5.860  0.0294 -0.7797  0.2517
59940SOL    HW291800   4.632   8.336   5.835 -1.3149 -0.0327 -0.8425
59941SOL     OW91801   5.584  13.000   8.289 -0.2845  0.5210 -0.2991
59941SOL    HW191802   5.489  12.991   8.296 -0.0640 -0.7177  1.7647
59941SOL    HW291803   5.597  13.047   8.207 -2.5055 -2.8503 -2.8583
59942SOL     OW91804   6.094   3.930   5.182  0.1502  0.3416 -0.5032
59942SOL    HW191805   6.147   3.875   5.124 -0.0763  0.1494 -0.5303
59942SOL    HW291806   6.012   3.882   5.191 -0.4705  1.1981 -1.4138
59943SOL     OW91807   7.235   6.364   8.051  0.1065  0.1895 -0.3125
59943SOL    HW191808   7.300   6.315   8.101 -0.1791  0.2786  0.1528
59943SOL    HW291809   7.154   6.352   8.100  0.0676  1.2693 -0.0957
59944SOL     OW91810   0.179   7.495  11.733  0.1588 -0.2325  0.2871
59944SOL    HW191811   0.116   7.517  11.802 -0.9070  0.8400 -0.9719
59944SOL    HW291812   0.145   7.415  11.695  1.0215 -1.1051  1.2904
59945SOL     OW91813   2.684   2.530   5.019  0.7732 -0.0307  0.1032
59945SOL    HW191814   2.744   2.530   4.945 -3.1932  1.3204 -3.5188
59945SOL    HW291815   2.651   2.620   5.023 -0.9271 -0.6620  1.9764
59946SOL     OW91816   4.966   5.439   8.442  0.2642  0.7408 -0.2691
59946SOL    HW191817   5.059   5.456   8.457  0.2942 -1.1791  2.3878
59946SOL    HW291818   4.955   5.446   8.347  2.8017  2.3203 -0.5346
59947SOL     OW91819  11.456   9.425   0.890 -0.3178 -0.4753  0.3747
59947SOL    HW191820  11.438   9.502   0.835  1.7819 -1.7148 -2.2745
59947SOL    HW291821  11.376   9.372   0.882 -0.3806 -0.2323 -0.8415
59948SOL     OW91822   8.916  13.523  13.973 -0.0743  0.4233 -0.4509
59948SOL    HW191823   8.912  13.586  14.045  0.5287 -1.4982  1.3695
59948SOL    HW291824   8.988  13.555  13.917  0.7087  0.9600  0.8230
59949SOL     OW91825   0.197   2.996   1.057 -0.3678  0.5764  0.2739
59949SOL    HW191826   0.170   3.081   1.021 -0.6228  0.6565  0.6557
59949SOL    HW291827   0.142   2.984   1.134  0.5001  0.6182  0.9132
59950SOL     OW91828   1.904   6.805  13.716 -0.0706  0.4219 -0.2780
59950SOL    HW191829   1.939   6.717  13.725  0.5884  0.8769  2.3080
59950SOL    HW291830   1.965   6.861  13.764 -1.3562  2.0534 -0.4311
59951SOL     OW91831   0.399   0.898   2.204 -0.2201 -0.0046 -0.3657
59951SOL    HW191832   0.384   0.808   2.173 -1.1733  0.6371 -1.8728
59951SOL    HW291833   0.482   0.893   2.251 -0.2022 -1.6592 -0.5066
59952SOL     OW91834  11.853  13.056   4.605  0.2954  0.6599 -0.0333
59952SOL    HW191835  11.766  13.022   4.624 -0.2472  2.5453  1.1936
59952SOL    HW291836  11.909  12.979   4.599 -1.5237 -0.6284 -1.3288
59953SOL     OW91837   2.453   1.373  11.158  0.1975  0.2522  0.3151
59953SOL    HW191838   2.412   1.451  11.119 -0.1370  0.6043  1.3369
59953SOL    HW291839   2.528   1.407  11.207  0.8265 -0.2266 -0.2956
59954SOL     OW91840   4.807   7.116   2.204  0.0844 -0.0136 -0.3430
59954SOL    HW191841   4.805   7.176   2.129 -1.0967  0.0765 -0.2556
59954SOL    HW291842   4.806   7.172   2.281  0.5626 -0.1279 -0.2441
59955SOL     OW91843   3.771   2.479   0.887 -0.2992  0.2452  0.0006
59955SOL    HW191844   3.852   2.448   0.847 -0.4146 -0.3131  0.2044
59955SOL    HW291845   3.708   2.480   0.814 -0.0273  1.0226 -0.2391
59956SOL     OW91846   2.528   7.658  12.706  0.3080 -0.1592 -0.4228
59956SOL    HW191847   2.613   7.632  12.670  0.7508  1.1518 -0.3819
59956SOL    HW291848   2.482   7.699  12.632  0.5241  0.9515  0.0353
59957SOL     OW91849   5.834  10.925   6.574 -0.5217 -0.0819  0.0407
59957SOL    HW191850   5.846  11.017   6.597  0.9585  0.0960 -1.2773
59957SOL    HW291851   5.917  10.883   6.595 -1.4110 -1.2999  1.3120
59958SOL     OW91852  10.856   0.955   4.923 -0.0527  0.1597  0.4573
59958SOL    HW191853  10.913   0.881   4.902 -1.5434 -1.5205  1.8939
59958SOL    HW291854  10.913   1.032   4.920  1.5019 -0.9842 -1.3806
59959SOL     OW91855   7.837   6.726   9.580  0.4878  0.4133 -0.0008
59959SOL    HW191856   7.844   6.737   9.675  0.8602 -0.4265  0.0823
59959SOL    HW291857   7.921   6.757   9.546  0.2232  1.0442 -0.0999
59960SOL     OW91858   9.055   0.736   1.302 -0.2024 -0.5459  0.2923
59960SOL    HW191859   9.017   0.818   1.334  1.3093  0.1776  0.3403
59960SOL    HW291860   9.071   0.685   1.381  1.0403  0.1202  0.4947
59961SOL     OW91861  12.100   4.189  11.017 -0.1031  0.1134 -0.0703
59961SOL    HW191862  12.193   4.178  10.996 -0.3937  0.1181 -1.4092
59961SOL    HW291863  12.057   4.112  10.980 -0.6222 -0.0041  0.7379
59962SOL     OW91864  11.872  10.471   3.927 -0.2609 -0.0195 -0.0059
59962SOL    HW191865  11.870  10.412   4.002 -1.3579  0.6593  0.5103
59962SOL    HW291866  11.822  10.548   3.954 -0.9397  0.1243 -1.5308
59963SOL     OW91867   1.625  10.015   3.270 -0.0542 -0.3017  0.3496
59963SOL    HW191868   1.609  10.062   3.188  0.6312  0.3992  0.5970
59963SOL    HW291869   1.648   9.926   3.243 -0.8812 -0.3692 -0.1561
59964SOL     OW91870   5.799  13.085   7.688 -0.1690 -0.5234 -0.2080
59964SOL    HW191871   5.706  13.098   7.705 -0.1186 -2.1469  1.5936
59964SOL    HW291872   5.806  12.994   7.659  0.9334 -0.6408  0.3856
59965SOL     OW91873   1.767   2.015   3.853  0.5503 -0.3642 -0.4928
59965SOL    HW191874   1.722   2.052   3.777 -1.8383 -0.5098  0.7453
59965SOL    HW291875   1.796   2.092   3.903  1.3792 -0.2674 -1.0991
59966SOL     OW91876   5.570   8.999  11.037 -0.0596 -0.1183  0.4859
59966SOL    HW191877   5.551   8.963  11.123  1.0501  0.6215  1.0585
59966SOL    HW291878   5.662   9.024  11.041 -0.0060  0.0008 -0.8906
59967SOL     OW91879   3.063   9.970   8.238  0.2630  0.7739  0.3176
59967SOL    HW191880   3.011   9.894   8.211 -0.1140  0.9584  0.5037
59967SOL    HW291881   3.129   9.979   8.171  1.3443 -0.7046  1.1234
59968SOL     OW91882  10.852   1.352   4.578  0.1872  0.3847 -0.6833
59968SOL    HW191883  10.919   1.350   4.646 -0.7586  0.5422  0.2833
59968SOL    HW291884  10.770   1.342   4.626 -0.5781  1.5777 -1.6858
59969SOL     OW91885  11.299   7.006   2.584 -0.1804  0.4246 -0.3685
59969SOL    HW191886  11.303   7.033   2.676 -1.0013  1.2668 -0.5531
59969SOL    HW291887  11.364   7.062   2.540  0.5954 -0.3543 -0.2256
59970SOL     OW91888  12.152   3.965   6.921  0.3888 -0.1403  0.1976
59970SOL    HW191889  12.146   3.927   6.833 -0.3057 -0.5206  0.4014
59970SOL    HW291890  12.202   3.902   6.971  0.0996 -0.3074  0.2777
59971SOL     OW91891   2.603  13.244  11.248  0.8349 -0.4055  0.3525
59971SOL    HW191892   2.581  13.290  11.167 -0.6809  0.0325  0.9828
59971SOL    HW291893   2.648  13.311  11.301  0.3961 -0.2220  0.4955
59972SOL     OW91894   0.849   9.952   3.341  0.4369 -0.4080  0.0141
59972SOL    HW191895   0.766   9.929   3.298 -0.0636  1.2928 -0.0081
59972SOL    HW291896   0.829   9.948   3.435  0.5318 -0.6430  0.0265
59973SOL     OW91897   0.104   4.896   5.239  0.2667 -0.4944 -0.1626
59973SOL    HW191898   0.013   4.923   5.255 -0.3535 -2.2183 -0.5679
59973SOL    HW291899   0.157   4.968   5.274 -1.2206 -0.2247  1.6767
59974SOL     OW91900   8.664   2.704  11.961  0.7924 -0.2498 -0.5059
59974SOL    HW191901   8.709   2.623  11.985  2.0676  0.5703 -0.0192
59974SOL    HW291902   8.575   2.693  11.994  0.3330 -2.2581 -2.2252
59975SOL     OW91903   6.892   8.202   6.675  0.0281 -0.2303 -0.3550
59975SOL    HW191904   6.888   8.297   6.684  3.0071 -0.1078  0.7552
59975SOL    HW291905   6.959   8.187   6.609  2.0259 -1.5041  1.8097
59976SOL     OW91906  10.786   3.245   4.397 -0.1637 -0.1264  0.7205
59976SOL    HW191907  10.772   3.154   4.372 -1.6834  0.2056  0.2498
59976SOL    HW291908  10.849   3.279   4.333  0.1482 -0.7422  0.6963
59977SOL     OW91909   9.113   8.164   7.439 -0.3992 -0.2631 -0.3584
59977SOL    HW191910   9.202   8.158   7.403  0.0629 -1.3427  0.8556
59977SOL    HW291911   9.058   8.117   7.376 -0.2302  0.9275 -1.4215
59978SOL     OW91912   6.336   7.159   2.755  0.4583 -0.4858  0.0500
59978SOL    HW191913   6.343   7.091   2.687  0.4817 -1.3220  0.8742
59978SOL    HW291914   6.291   7.231   2.711 -1.5025 -1.8319 -0.2675
59979SOL     OW91915   0.159   0.572   3.487  0.0299  0.1626  0.0114
59979SOL    HW191916   0.245   0.601   3.454 -1.0699  1.4528 -1.8891
59979SOL    HW291917   0.144   0.488   3.443  1.2257 -1.2410  2.0782
59980SOL     OW91918  11.726   4.808   0.363 -0.3181 -0.4658 -0.4126
59980SOL    HW191919  11.663   4.816   0.292  1.1134  1.7783 -1.5436
59980SOL    HW291920  11.801   4.860   0.335  0.6612 -0.1781  2.3673
59981SOL     OW91921   4.929   5.757   1.930 -0.2255 -0.5090  0.0935
59981SOL    HW191922   5.014   5.721   1.907  0.8775  1.9853 -0.0171
59981SOL    HW291923   4.871   5.728   1.859  1.3055  0.4067 -1.6205
59982SOL     OW91924  13.207   2.336   6.234 -0.1254  0.3700  0.0013
59982SOL    HW191925  13.229   2.364   6.323  2.2020  1.1506 -0.7452
59982SOL    HW291926  13.285   2.358   6.182 -1.4929  0.1254 -2.2783
59983SOL     OW91927   2.195   2.252   6.026 -0.3394  0.1189 -1.5155
59983SOL    HW191928   2.252   2.321   6.059 -1.8026  0.4564  0.4717
59983SOL    HW291929   2.224   2.173   6.070 -1.2093  0.2469 -0.6836
59984SOL     OW91930   3.983  10.688   3.396  0.1050 -0.7107  0.1949
59984SOL    HW191931   3.912  10.642   3.442 -0.2158 -0.6330 -0.2117
59984SOL    HW291932   3.982  10.650   3.308 -0.2293  0.1347 -0.1801
59985SOL     OW91933  12.205   5.229   9.070  0.1687 -0.0456 -0.2964
59985SOL    HW191934  12.130   5.218   9.011  0.0399  1.0783 -0.3613
59985SOL    HW291935  12.166   5.256   9.153  0.4401 -0.4579 -0.0291
59986SOL     OW91936   7.578   9.501   3.600 -0.5270  0.2784  0.1457
59986SOL    HW191937   7.587   9.474   3.691 -0.7177  0.6751  0.2810
59986SOL    HW291938   7.518   9.437   3.562 -2.2057  1.3540  0.8452
59987SOL     OW91939   2.491  13.159   1.331  0.7270  0.6352  0.1786
59987SOL    HW191940   2.457  13.074   1.304  1.3759  0.0681  1.0839
59987SOL    HW291941   2.446  13.177   1.414  0.5046  1.2398 -0.0647
59988SOL     OW91942   6.047   2.017   5.444 -0.5211  0.1120  0.0785
59988SOL    HW191943   6.071   2.082   5.510  0.3127 -0.7281  0.6304
59988SOL    HW291944   6.064   1.932   5.487  0.1302 -0.4469 -1.2372
59989SOL     OW91945   6.704  12.139   2.050  0.4031  0.2077 -0.0721
59989SOL    HW191946   6.634  12.079   2.026  0.7444 -0.1534 -0.1783
59989SOL    HW291947   6.679  12.222   2.010  0.5766 -0.1918 -1.0276
59990SOL     OW91948   4.347  11.405   9.355  0.0058 -0.5887  0.3952
59990SOL    HW191949   4.311  11.371   9.437  1.1592 -0.2911  1.0433
59990SOL    HW291950   4.279  11.464   9.322  0.9837  2.3846  3.1334
59991SOL     OW91951   9.424   7.381   6.422  0.9956  0.0573 -0.1087
59991SOL    HW191952   9.339   7.354   6.455  0.6293 -0.3363 -1.3472
59991SOL    HW291953   9.407   7.465   6.378  1.5040  0.6418  0.7671
59992SOL     OW91954   7.220   5.374  13.392  0.2083  0.2092  1.0204
59992SOL    HW191955   7.220   5.310  13.322 -0.5097  1.4365 -0.1505
59992SOL    HW291956   7.258   5.328  13.467 -0.1483 -1.5087  0.1928
59993SOL     OW91957  10.996   2.613   1.517 -0.5330 -0.0888 -0.5660
59993SOL    HW191958  10.907   2.580   1.502 -0.6918  0.0130  0.1187
59993SOL    HW291959  11.050   2.535   1.524 -0.8039 -0.1943  0.4161
59994SOL     OW91960   8.701   2.406   7.650  0.6442  0.4680 -0.3825
59994SOL    HW191961   8.697   2.488   7.600 -0.8696  1.4560  1.2292
59994SOL    HW291962   8.709   2.435   7.741  1.7831 -1.2399  0.1005
59995SOL     OW91963   3.284  13.967   3.838 -0.4378  0.2574  0.0353
59995SOL    HW191964   3.210  14.016   3.875 -1.8470 -2.4076  1.0043
59995SOL    HW291965   3.361  14.019   3.860 -1.8372  2.1689  0.7066
59996SOL     OW91966   8.281   7.085   1.174 -0.1441 -0.2058  0.5530
59996SOL    HW191967   8.187   7.097   1.162  0.0081  0.1692 -0.3036
59996SOL    HW291968   8.311   7.043   1.093  0.5045  0.1244  0.6138
59997SOL     OW91969   5.394   8.917   8.643 -0.5540  0.8009 -0.8649
59997SOL    HW191970   5.363   8.860   8.714  1.1288  0.2844 -0.4985
59997SOL    HW291971   5.319   8.973   8.623 -1.0364  1.0839  1.4425
59998SOL     OW91972   0.283  11.918   4.583 -0.2503 -0.1422 -0.1612
59998SOL    HW191973   0.329  11.878   4.509  0.6612  0.2248  0.1917
59998SOL    HW291974   0.203  11.866   4.593 -1.4101  1.0026 -2.6546
59999SOL     OW91975  12.179   8.273   2.844 -0.1527 -0.4650 -0.3598
59999SOL    HW191976  12.262   8.316   2.863 -0.1768 -0.8354  0.6245
59999SOL    HW291977  12.197   8.221   2.765  0.2588  0.2228 -0.7361
60000SOL     OW91978   6.564   1.134   4.423  0.5144  0.1066  0.4283
60000SOL    HW191979   6.492   1.161   4.366  0.7857  0.6953  0.3527
60000SOL    HW291980   6.589   1.214   4.469  2.5421  0.4347 -1.1252
60001SOL     OW91981  12.405  10.529   3.103  0.4432  0.0148 -0.2068
60001SOL    HW191982  12.393  10.619   3.132  0.6445 -0.3997  1.2246
60001SOL    HW291983  12.425  10.480   3.183  0.3103 -1.3066 -0.9527
60002SOL     OW91984   5.362   8.446   9.332 -0.7424  0.9727 -0.0329
60002SOL    HW191985   5.302   8.511   9.295 -3.1854  0.3437  2.4312
60002SOL    HW291986   5.304   8.384   9.377  1.6169 -1.7241 -0.4318
60003SOL     OW91987   2.332   0.760  13.988 -0.2549  0.0155  0.6042
60003SOL    HW191988   2.308   0.772  13.896 -0.9819  0.2418  0.8129
60003SOL    HW291989   2.392   0.832  14.007  1.4963 -1.1653 -0.2159
60004SOL     OW91990   7.190   0.429   4.899 -0.2004 -0.4699  0.1883
60004SOL    HW191991   7.147   0.436   4.814 -0.4350 -0.4334  0.3067
60004SOL    HW291992   7.133   0.479   4.958  1.2157  1.5723 -0.0927
60005SOL     OW91993  13.333   7.959   1.047 -0.4363  0.2707  0.9791
60005SOL    HW191994  13.383   8.041   1.045 -1.4341  0.9036  1.2192
60005SOL    HW291995  13.246   7.983   1.014 -0.0068 -1.2394 -1.5358
60006SOL     OW91996  13.588   4.500   9.683  0.7361  0.0241 -0.2072
60006SOL    HW191997  13.631   4.578   9.718 -1.1715  0.9221  0.2663
60006SOL    HW291998  13.653   4.430   9.696  2.0533  1.2914  0.4109
60007SOL     OW91999  13.969  10.908   6.214 -0.2102 -0.3027  0.3287
60007SOL    HW192000  14.048  10.874   6.171  0.6241  1.8409  0.0305
60007SOL    HW292001  13.994  10.915   6.306  1.4575  3.8215 -0.1999
60008SOL     OW92002   6.230  10.762   5.708 -0.2736 -0.2044  0.1582
60008SOL    HW192003   6.198  10.709   5.781 -0.0051 -1.3405 -0.5159
60008SOL    HW292004   6.204  10.712   5.630 -0.2894  0.8263 -0.5157
60009SOL     OW92005   2.497  10.338  12.980 -0.6157  0.2509 -0.2528
60009SOL    HW192006   2.542  10.265  12.937 -0.0025 -0.2181  1.1505
60009SOL    HW292007   2.421  10.355  12.923  0.4438  0.0171 -1.8076
60010SOL     OW92008  11.129   7.201   4.540 -0.0147  0.2769  0.0571
60010SOL    HW192009  11.108   7.167   4.453  0.2420  0.0805  0.0714
60010SOL    HW292010  11.212   7.248   4.528  0.3804 -0.3386  0.3379
60011SOL     OW92011   5.073   9.736   9.016 -0.0398 -0.6585 -0.7295
60011SOL    HW192012   4.985   9.771   9.001  0.2969  0.3071 -0.5469
60011SOL    HW292013   5.060   9.641   9.023 -0.7456 -0.8185 -3.1090
60012SOL     OW92014   7.789   9.299   5.821  0.2052  0.0060 -0.3084
60012SOL    HW192015   7.780   9.315   5.727  1.1777 -1.6818 -0.7293
60012SOL    HW292016   7.735   9.223   5.839 -0.1332  0.4304  0.5684
60013SOL     OW92017  11.114   8.109   2.800  0.5144  0.0575  0.0270
60013SOL    HW192018  11.138   8.082   2.711  0.7060 -0.2974  0.1853
60013SOL    HW292019  11.019   8.114   2.799  0.3970 -1.6628  0.2844
60014SOL     OW92020   5.592   8.029  10.817  0.5957  0.3269  0.2150
60014SOL    HW192021   5.516   8.026  10.760  0.5417  3.5841 -0.0553
60014SOL    HW292022   5.649   7.959  10.785 -0.5324  0.4114 -2.1817
60015SOL     OW92023   8.745  13.909  13.241 -0.5406  0.0924 -0.2171
60015SOL    HW192024   8.667  13.937  13.290 -1.9507 -0.9178 -1.7600
60015SOL    HW292025   8.730  13.940  13.152  2.2727  2.4536  0.0079
60016SOL     OW92026   3.855  13.421   2.835  0.1274 -0.4993  0.2437
60016SOL    HW192027   3.891  13.489   2.893  0.9549 -1.2562  0.6426
60016SOL    HW292028   3.854  13.461   2.749  0.0442  0.2285  0.5779
60017SOL     OW92029  11.888   3.348   7.345 -0.0843  0.0636  0.1851
60017SOL    HW192030  11.841   3.416   7.392  3.4501  1.5347  1.9199
60017SOL    HW292031  11.882   3.373   7.253 -0.0101  1.9599  0.6699
60018SOL     OW92032   6.235  13.626   8.626  0.2295  0.2367 -0.4420
60018SOL    HW192033   6.245  13.647   8.533  0.1043 -0.2387 -0.5673
60018SOL    HW292034   6.152  13.579   8.630  0.5216 -0.2602 -0.1785
60019SOL     OW92035   9.424   8.645   8.842 -0.5904  0.6439 -0.0760
60019SOL    HW192036   9.410   8.598   8.924 -0.4697  0.1993 -0.3131
60019SOL    HW292037   9.451   8.733   8.870 -0.0904  0.3572  0.3580
60020SOL     OW92038   1.419   7.787   6.415  0.3090  0.2558 -0.3076
60020SOL    HW192039   1.443   7.716   6.475  0.6598  0.9210  0.3539
60020SOL    HW292040   1.471   7.862   6.444 -0.0864  0.8030 -0.9717
60021SOL     OW92041  11.751  10.176   7.357 -0.3864 -0.1638 -0.2959
60021SOL    HW192042  11.799  10.131   7.287  0.1832 -0.4453  0.2589
60021SOL    HW292043  11.804  10.254   7.377 -0.4743 -0.1527 -0.1006
60022SOL     OW92044   7.053  11.940   9.499  0.0078  1.0098 -0.1318
60022SOL    HW192045   7.130  11.942   9.556  0.4584  0.4493 -0.7000
60022SOL    HW292046   7.085  11.969   9.414 -0.8454  2.6804  0.0760
60023SOL     OW92047  12.370   1.416   9.953  0.2680  0.5347  0.2912
60023SOL    HW192048  12.324   1.410   9.869  1.3768  0.3946 -0.3325
60023SOL    HW292049  12.448   1.468   9.933  1.1208 -0.4423  0.9650
60024SOL     OW92050  10.026   9.152  11.425  0.1372  0.0783  0.2415
60024SOL    HW192051   9.998   9.119  11.339  0.7446  1.3323 -0.4743
60024SOL    HW292052  10.058   9.240  11.407  0.7513  0.1790  1.6885
60025SOL     OW92053   7.311  11.109   3.661 -0.1902  0.6094  0.1891
60025SOL    HW192054   7.379  11.177   3.665 -1.2380  1.7170 -0.0506
60025SOL    HW292055   7.229  11.158   3.667 -1.0107 -0.5134 -1.3190
60026SOL     OW92056   8.066   7.015   6.013 -0.1441 -0.4168 -0.0248
60026SOL    HW192057   8.065   6.991   6.106  2.4938  1.9293  0.7462
60026SOL    HW292058   8.144   6.972   5.978  0.6056  1.1606 -0.3493
60027SOL     OW92059   2.441   1.705   5.219 -0.3494  0.3504  0.7343
60027SOL    HW192060   2.528   1.742   5.234 -0.9891  1.5539  1.6655
60027SOL    HW292061   2.394   1.721   5.301 -1.5935  0.1418  0.0837
60028SOL     OW92062   7.052  11.068   1.437 -0.5689  0.1871  0.4087
60028SOL    HW192063   7.116  11.079   1.367 -2.0989  1.7485 -0.8371
60028SOL    HW292064   7.058  11.148   1.488 -1.0562  0.0463  0.6954
60029SOL     OW92065   1.629   0.971   8.300 -0.2539 -0.2608  0.2469
60029SOL    HW192066   1.658   0.971   8.208 -1.0731  1.7287 -0.0649
60029SOL    HW292067   1.546   0.924   8.299 -0.5834  0.3087 -0.1765
60030SOL     OW92068   7.071  10.930   1.667 -0.0448  0.5132 -0.4917
60030SOL    HW192069   7.109  11.000   1.721 -0.8280  0.3048  0.3647
60030SOL    HW292070   7.066  10.967   1.579  2.2470  0.4943 -0.6754
60031SOL     OW92071   5.849   1.750   1.079  0.6479 -0.3070 -0.2053
60031SOL    HW192072   5.866   1.798   1.161  0.7431  0.6709 -0.7814
60031SOL    HW292073   5.757   1.723   1.085 -0.0908  1.8980 -0.8220
60032SOL     OW92074   7.340   3.074  13.665 -0.0470 -0.2536  0.1150
60032SOL    HW192075   7.341   3.015  13.590 -0.4103 -1.6254  1.1493
60032SOL    HW292076   7.423   3.122  13.659 -1.5266  2.3687 -3.1310
60033SOL     OW92077   6.698   8.332  12.219  0.0797 -0.7145 -0.5422
60033SOL    HW192078   6.623   8.363  12.270  0.5223  0.0663 -0.3416
60033SOL    HW292079   6.668   8.251  12.179 -1.0817 -0.1184 -0.9392
60034SOL     OW92080   8.033   9.301  10.755 -0.2066  0.6616 -0.2008
60034SOL    HW192081   8.114   9.344  10.727 -0.8746  2.1302  0.0267
60034SOL    HW292082   7.987   9.368  10.806 -0.6287 -0.8066  1.4259
60035SOL     OW92083   8.251   8.665   2.604 -0.3298 -0.7051  0.4618
60035SOL    HW192084   8.310   8.740   2.599 -0.6011 -0.5751 -1.7489
60035SOL    HW292085   8.271   8.624   2.688  0.6735  1.1269  1.1768
60036SOL     OW92086   8.832  12.188   0.778 -0.2766 -0.0673  0.0504
60036SOL    HW192087   8.874  12.262   0.733 -1.0951 -0.2270 -1.0032
60036SOL    HW292088   8.903  12.125   0.791  0.4283  0.8740  0.9482
60037SOL     OW92089   1.477  10.792   6.988 -0.5139  0.0811  0.5206
60037SOL    HW192090   1.445  10.877   7.018  1.9839  1.0313  0.6820
60037SOL    HW292091   1.427  10.774   6.909 -0.5790  2.0564  0.0726
60038SOL     OW92092   6.395  10.473   0.742 -0.2243  0.1729 -0.4547
60038SOL    HW192093   6.380  10.510   0.655 -0.2174 -0.3648 -0.6900
60038SOL    HW292094   6.326  10.407   0.752  1.3839 -1.7517 -1.2190
60039SOL     OW92095   4.408  11.482   0.648 -0.4202 -0.1691  0.1910
60039SOL    HW192096   4.477  11.461   0.711  0.3153  0.3953 -0.4088
60039SOL    HW292097   4.398  11.577   0.653 -1.9292 -0.3309  1.0389
60040SOL     OW92098  10.088   2.052  14.012 -0.1089 -0.5720  0.1080
60040SOL    HW192099  10.045   2.115  14.070 -0.6813 -0.4055 -0.4820
60040SOL    HW292100  10.181   2.077  14.014 -0.4760  1.0385 -0.9988
60041SOL     OW92101  10.281   6.464  10.611 -0.6028 -0.4349 -0.0006
60041SOL    HW192102  10.231   6.544  10.595 -0.0661 -0.3039 -1.1317
60041SOL    HW292103  10.228   6.415  10.674 -0.4367  1.2540  1.5085
60042SOL     OW92104   5.843  13.627   1.589 -0.0488 -0.0164  0.3332
60042SOL    HW192105   5.887  13.605   1.507  0.2013 -0.9312  0.7053
60042SOL    HW292106   5.888  13.706   1.620 -0.1337  0.3278 -0.3923
60043SOL     OW92107   5.913   0.379  10.918  0.3623  0.6601 -0.6492
60043SOL    HW192108   5.994   0.413  10.881 -0.3217  1.1036 -1.7944
60043SOL    HW292109   5.866   0.342  10.843  0.3212 -1.3192  0.2753
60044SOL     OW92110   5.261   6.477  12.271  0.0907  0.0193  0.2213
60044SOL    HW192111   5.316   6.539  12.223 -1.3836  0.8832 -0.4022
60044SOL    HW292112   5.298   6.476  12.360 -0.3538  2.4607  0.4825
60045SOL     OW92113   1.790   2.317  11.759  0.3079  0.4669  0.5808
60045SOL    HW192114   1.799   2.412  11.764  1.4707  0.3100  2.0389
60045SOL    HW292115   1.697   2.303  11.742 -0.2797  1.8459  2.3579
60046SOL     OW92116   2.218  12.011   6.579  0.1226 -0.1608 -0.4974
60046SOL    HW192117   2.242  12.038   6.490 -0.0257 -0.7855 -0.7330
60046SOL    HW292118   2.206  12.093   6.627 -1.3849  0.2449 -1.4784
60047SOL     OW92119   6.873   4.779  10.961 -0.2981 -0.0524 -0.0943
60047SOL    HW192120   6.782   4.780  10.993 -0.6175  1.1929 -0.9552
60047SOL    HW292121   6.911   4.859  10.998 -0.0410  0.2727 -1.0379
60048SOL     OW92122   1.080   5.091  10.681  0.0020 -0.3963 -0.3400
60048SOL    HW192123   1.029   5.059  10.755  0.3178 -0.3186 -0.0868
60048SOL    HW292124   1.072   5.022  10.615  0.1173 -0.6869 -0.0524
60049SOL     OW92125   3.014   1.387  11.553  0.3058  0.1573 -0.6124
60049SOL    HW192126   2.932   1.343  11.533 -0.6100  0.8363  1.3566
60049SOL    HW292127   3.080   1.317  11.556 -0.9663 -1.0554  1.6994
60050SOL     OW92128  10.144   3.582  11.729 -0.4374 -0.5795  0.0943
60050SOL    HW192129  10.082   3.652  11.750 -0.8507 -1.4494  2.0072
60050SOL    HW292130  10.088   3.508  11.704 -0.0384 -0.5747 -0.8674
60051SOL     OW92131  12.242   2.102   3.671 -0.2391  0.2269  0.0286
60051SOL    HW192132  12.293   2.181   3.655 -0.5570  0.5156  0.4471
60051SOL    HW292133  12.292   2.054   3.737 -1.2632  1.2302  1.5673
60052SOL     OW92134  11.378   6.486   7.252  0.2711  0.0446  0.5198
60052SOL    HW192135  11.392   6.490   7.157 -1.9505  1.5609  0.1730
60052SOL    HW292136  11.354   6.395   7.269  0.5368 -0.2082 -0.4111
60053SOL     OW92137   7.500   0.225   3.668  0.0201  0.1904 -0.2905
60053SOL    HW192138   7.439   0.163   3.628  2.2638 -1.9004 -0.7251
60053SOL    HW292139   7.534   0.178   3.745  1.5601  1.0011 -0.4412
60054SOL     OW92140  12.453   8.871   7.480 -0.3387 -0.0780 -0.1524
60054SOL    HW192141  12.509   8.926   7.425  0.6346 -0.7240  0.1713
60054SOL    HW292142  12.514   8.816   7.529 -1.2774 -1.3591 -0.3773
60055SOL     OW92143  10.733   1.277  11.844  0.5938 -0.1487  0.0827
60055SOL    HW192144  10.757   1.345  11.782 -0.7017  1.3978  1.1739
60055SOL    HW292145  10.815   1.249  11.883  1.0709  1.9163  0.6846
60056SOL     OW92146   3.316   6.226  13.808 -0.0219 -0.1534 -0.5345
60056SOL    HW192147   3.389   6.212  13.748  1.2236 -1.1020  1.1122
60056SOL    HW292148   3.281   6.139  13.825 -0.9093  0.1915 -0.5130
60057SOL     OW92149   4.238  13.961  12.563  0.2315 -0.4570  0.6509
60057SOL    HW192150   4.213  13.961  12.656  0.3147 -1.3698  0.6859
60057SOL    HW292151   4.324  14.002  12.561  1.1745 -2.2741  1.2772
60058SOL     OW92152  10.540  13.520   9.903 -0.2050  0.0416 -0.3693
60058SOL    HW192153  10.535  13.445   9.962  2.9762  0.5017  0.6797
60058SOL    HW292154  10.528  13.482   9.815  1.0441 -1.6862  0.1530
60059SOL     OW92155   2.787  12.915  12.363  0.6050 -0.0487  0.0545
60059SOL    HW192156   2.754  12.997  12.328  1.0382 -0.6451 -1.8472
60059SOL    HW292157   2.737  12.847  12.318  0.0086 -0.8785  1.8409
60060SOL     OW92158   7.095  11.083   9.403 -0.0988  0.2537 -0.4181
60060SOL    HW192159   7.079  11.046   9.490  2.3520  0.0759  0.0303
60060SOL    HW292160   7.063  11.173   9.409 -2.5200 -0.5317 -0.2839
60061SOL     OW92161  13.510   3.764  11.871 -0.5813  0.1325  0.0977
60061SOL    HW192162  13.586   3.771  11.930 -0.9048  1.2478  0.3941
60061SOL    HW292163  13.453   3.836  11.896 -1.4899 -0.3536 -0.5101
60062SOL     OW92164   4.558  10.160   1.078  0.4115 -0.4004  0.3800
60062SOL    HW192165   4.523  10.228   1.020 -1.1456 -1.2829  0.1957
60062SOL    HW292166   4.649  10.185   1.093  0.0658  1.3563 -0.1912
60063SOL     OW92167   8.762   9.399   5.534 -0.0767 -0.4084  0.1732
60063SOL    HW192168   8.758   9.387   5.439  3.0076 -1.2588  0.0349
60063SOL    HW292169   8.714   9.324   5.569  0.4946 -1.2451 -0.7600
60064SOL     OW92170  13.522   6.721   5.308 -0.1689 -0.4019 -0.4746
60064SOL    HW192171  13.596   6.688   5.359 -0.1053  0.8593  0.3035
60064SOL    HW292172  13.445   6.691   5.356 -0.1176  0.1002 -0.0641
60065SOL     OW92173   8.026   5.041   5.339  0.1670 -0.1636 -0.4386
60065SOL    HW192174   8.047   4.960   5.292 -0.3339 -1.1867  1.0444
60065SOL    HW292175   8.080   5.107   5.297  0.8434 -1.3241 -1.4694
60066SOL     OW92176   7.310  14.035   1.556  0.2009 -0.3272  0.2100
60066SOL    HW192177   7.331  14.071   1.470 -0.0292 -0.8061 -0.0477
60066SOL    HW292178   7.309  13.940   1.543 -3.0161 -0.3632 -0.0098
60067SOL     OW92179   4.573   1.316   6.444 -1.0098  0.7785 -0.9523
60067SOL    HW192180   4.604   1.270   6.522 -0.7948  0.6530 -1.1129
60067SOL    HW292181   4.481   1.335   6.464 -1.0715  0.3839 -0.8346
60068SOL     OW92182   4.257   6.852  13.473  0.0267  0.3597  0.7791
60068SOL    HW192183   4.185   6.792  13.456  0.1566 -0.0780  1.6924
60068SOL    HW292184   4.252   6.917  13.403 -0.2828 -0.5627 -0.0778
60069SOL     OW92185   2.222   6.970   2.979 -0.0491  0.2701 -0.5947
60069SOL    HW192186   2.152   6.950   2.917 -0.6500 -2.6247  0.8229
60069SOL    HW292187   2.303   6.950   2.930 -0.5263 -2.5314 -0.4371
60070SOL     OW92188   9.390   5.106  12.888 -1.4481  0.0987  0.3043
60070SOL    HW192189   9.463   5.150  12.932  0.7675 -1.6674 -1.3653
60070SOL    HW292190   9.396   5.015  12.918 -1.0225 -0.7386 -2.0855
60071SOL     OW92191  11.071   8.436   5.315  0.0358 -0.5298  0.5815
60071SOL    HW192192  11.122   8.502   5.363  1.3256 -1.5610  0.6943
60071SOL    HW292193  11.069   8.468   5.225  1.0160 -0.5206  0.5478
60072SOL     OW92194   5.716   2.117   9.940  0.1682  0.2477  0.2325
60072SOL    HW192195   5.724   2.099   9.846 -0.8353  0.1363  0.1618
60072SOL    HW292196   5.675   2.039   9.976  0.1483  0.4701  0.7006
60073SOL     OW92197   9.671  10.229   1.532  0.0375 -0.1442  0.0695
60073SOL    HW192198   9.637  10.163   1.472  0.3354 -0.5412  0.3300
60073SOL    HW292199   9.667  10.311   1.483  2.4859 -0.7901 -1.3947
60074SOL     OW92200  12.246   1.216   6.193 -0.1035 -0.9194  0.4805
60074SOL    HW192201  12.287   1.204   6.107  1.1654  0.2325  0.8786
60074SOL    HW292202  12.309   1.179   6.255  0.7161  1.4146  1.1523
60075SOL     OW92203  13.868   2.422  10.044  0.3230  0.1038 -0.2026
60075SOL    HW192204  13.916   2.403   9.963 -0.7218 -2.3544 -0.3594
60075SOL    HW292205  13.797   2.357  10.044 -1.4481  1.9302  1.2661
60076SOL     OW92206   0.678  11.801   3.565  0.5262  0.2505 -0.2879
60076SOL    HW192207   0.685  11.896   3.556  1.0506  0.1535 -1.0092
60076SOL    HW292208   0.769  11.772   3.574  0.3871 -0.2036 -0.3402
60077SOL     OW92209   4.155   0.584   0.353 -0.0613 -0.4321 -0.2849
60077SOL    HW192210   4.186   0.624   0.434 -0.4635 -1.2220  0.2691
60077SOL    HW292211   4.234   0.548   0.312  0.2901  0.8084 -0.7438
60078SOL     OW92212   1.877   8.552   0.683 -0.0232 -0.3384  0.2479
60078SOL    HW192213   1.813   8.557   0.754 -1.1458 -2.3461 -0.5313
60078SOL    HW292214   1.830   8.587   0.607  0.4490 -0.1598  0.0324
60079SOL     OW92215   7.460   6.716   0.580  0.4622 -0.1791 -0.5750
60079SOL    HW192216   7.365   6.713   0.567  0.2770 -0.2399  0.6303
60079SOL    HW292217   7.491   6.784   0.520 -0.5048  0.6983 -0.1074
60080SOL     OW92218   5.821   9.240   8.878 -0.1691 -0.1373  0.5405
60080SOL    HW192219   5.870   9.178   8.823 -0.2571 -0.2671  0.6069
60080SOL    HW292220   5.733   9.201   8.885 -0.6646  0.7092 -0.6045
60081SOL     OW92221   4.205  12.141   1.510 -0.3987  0.1115  0.5375
60081SOL    HW192222   4.239  12.067   1.562 -0.2705 -0.6180 -0.5514
60081SOL    HW292223   4.255  12.216   1.540 -0.6925 -0.1777  1.8446
60082SOL     OW92224   4.716   2.875  10.821 -0.1003  0.1681  0.1000
60082SOL    HW192225   4.700   2.782  10.839  0.5193 -0.0066 -0.2368
60082SOL    HW292226   4.677   2.921  10.896  1.0023 -0.4628  1.0947
60083SOL     OW92227   3.625   2.279   8.724  0.5107 -0.5880 -0.4220
60083SOL    HW192228   3.660   2.347   8.781 -1.2838 -0.0828  0.1384
60083SOL    HW292229   3.684   2.278   8.649  0.8298  1.2752 -0.2471
60084SOL     OW92230  11.533  10.021   7.292 -0.0687  0.5651  0.1193
60084SOL    HW192231  11.606  10.046   7.350 -0.0375  0.6868  0.0280
60084SOL    HW292232  11.561  10.051   7.205  1.3778 -2.5306 -0.6045
60085SOL     OW92233  12.016  11.885  11.284  0.0871  0.5765  0.3608
60085SOL    HW192234  12.086  11.924  11.337  0.4005  0.1275  0.2808
60085SOL    HW292235  11.946  11.951  11.285 -0.0568  0.4318  1.6326
60086SOL     OW92236   2.387   5.615   4.502 -1.0586  0.6499 -0.1657
60086SOL    HW192237   2.355   5.577   4.584  1.8941 -3.6900 -0.7339
60086SOL    HW292238   2.462   5.669   4.529 -1.3969  0.9910  0.1138
60087SOL     OW92239   7.713  11.822   9.912  0.5761  0.0680  0.3286
60087SOL    HW192240   7.764  11.833   9.832 -2.2514  0.4665 -1.5366
60087SOL    HW292241   7.749  11.887   9.972  1.4302  1.2203 -1.3489
60088SOL     OW92242  10.345   3.912   6.302  0.1837 -0.2271 -0.0415
60088SOL    HW192243  10.394   3.975   6.355 -0.3339  0.2533 -0.1246
60088SOL    HW292244  10.303   3.965   6.235 -0.6938 -0.5875  0.2098
60089SOL     OW92245   4.190  12.319   8.826 -0.3231 -0.2214  0.0869
60089SOL    HW192246   4.121  12.328   8.892 -0.8148 -3.5159  0.1595
60089SOL    HW292247   4.148  12.275   8.753  0.8983  0.9386 -1.3844
60090SOL     OW92248   0.304   2.140   5.721 -0.1784  0.1402  0.1056
60090SOL    HW192249   0.323   2.204   5.653 -2.4443  1.6746  0.7758
60090SOL    HW292250   0.303   2.056   5.676 -0.9912  1.0341 -1.6546
60091SOL     OW92251  10.666  13.027   3.177  0.7522 -0.0917  0.5096
60091SOL    HW192252  10.694  13.100   3.121  0.1893 -0.5305 -0.3707
60091SOL    HW292253  10.609  13.067   3.242 -0.2991  0.1518 -0.5194
60092SOL     OW92254  11.288   8.731  11.150  0.0658 -0.0614  0.0503
60092SOL    HW192255  11.304   8.643  11.185 -0.4101  0.4820  1.7600
60092SOL    HW292256  11.272   8.718  11.057  1.9537 -1.5563 -0.1232
60093SOL     OW92257  13.321   2.708   3.726 -0.4372  0.1999 -0.3053
60093SOL    HW192258  13.306   2.733   3.818 -1.3876 -0.9026 -0.1344
60093SOL    HW292259  13.360   2.786   3.686  1.0237  0.3473  1.2847
60094SOL     OW92260   7.642   6.089   0.677 -0.3786 -0.2440 -0.2588
60094SOL    HW192261   7.714   6.152   0.671 -1.7515  1.4309 -0.1338
60094SOL    HW292262   7.602   6.090   0.590 -0.9591 -0.2501  0.0028
60095SOL     OW92263   1.275  12.453  12.544 -0.8145 -0.4323  0.3797
60095SOL    HW192264   1.291  12.529  12.488 -0.5083 -0.1555  0.8364
60095SOL    HW292265   1.357  12.441  12.593 -0.9158 -0.9551  0.4280
60096SOL     OW92266  13.579   5.106   9.631  0.2854  0.4154 -0.4944
60096SOL    HW192267  13.580   5.135   9.722  1.1589 -0.1831 -0.3049
60096SOL    HW292268  13.545   5.181   9.582 -1.6632  0.2339  0.4845
60097SOL     OW92269  13.353  13.767   8.832 -0.7991  0.0799 -1.0986
60097SOL    HW192270  13.409  13.821   8.776 -1.2130  0.7395 -0.8897
60097SOL    HW292271  13.326  13.826   8.903 -0.0539 -0.8335 -0.0378
60098SOL     OW92272   5.010   5.894   9.220 -0.3404 -0.2621 -0.6552
60098SOL    HW192273   5.021   5.989   9.222 -1.6543 -0.0886  0.2284
60098SOL    HW292274   5.098   5.860   9.205  0.1985  1.0820 -0.7436
60099SOL     OW92275   9.054   0.522   9.919 -0.1259  0.6739 -0.2041
60099SOL    HW192276   9.122   0.564   9.971 -0.0860 -0.0542  0.3507
60099SOL    HW292277   9.101   0.480   9.847  0.1088 -0.3467  0.5128
60100SOL     OW92278   8.662  10.117   7.105 -0.0398 -0.3633  0.1713
60100SOL    HW192279   8.633  10.164   7.027  0.6463  0.2941  0.2972
60100SOL    HW292280   8.667  10.026   7.077  2.2181  0.1081 -1.2175
60101SOL     OW92281   7.530   7.446  13.849 -0.3044  0.6077 -0.1455
60101SOL    HW192282   7.573   7.413  13.928  1.4586  0.6069 -1.0689
60101SOL    HW292283   7.601   7.468  13.790 -1.5762 -0.3336 -2.1428
60102SOL     OW92284   7.807   2.632   4.290 -0.1720  0.2942  0.1715
60102SOL    HW192285   7.714   2.642   4.271 -0.4214 -1.9996 -0.1320
60102SOL    HW292286   7.810   2.597   4.379  0.1032 -2.8096 -0.9169
60103SOL     OW92287   9.984   5.917   5.460  0.2888  0.2586  0.3125
60103SOL    HW192288   9.990   5.987   5.395 -0.1478  1.6616  1.7175
60103SOL    HW292289  10.075   5.895   5.480  0.4287  0.4572 -0.0826
60104SOL     OW92290   6.851   8.581   4.306 -0.8138  0.4212 -0.2608
60104SOL    HW192291   6.854   8.633   4.226 -1.5792  0.0678 -0.5260
60104SOL    HW292292   6.847   8.645   4.377  1.6067  0.8002 -0.3621
60105SOL     OW92293   8.410   2.226  10.280  0.1057  0.3842 -0.1827
60105SOL    HW192294   8.367   2.177  10.209 -0.5731  1.7016 -0.7251
60105SOL    HW292295   8.383   2.181  10.360  1.7125 -1.7634 -0.7470
60106SOL     OW92296   4.265   1.652  11.699  0.2753  0.1080  0.2500
60106SOL    HW192297   4.231   1.590  11.764  0.8702  0.3810  0.8269
60106SOL    HW292298   4.333   1.602  11.653  0.6091  0.2611  0.5737
60107SOL     OW92299   2.494  13.747  10.183 -0.1949  0.0783  0.1424
60107SOL    HW192300   2.405  13.713  10.177  0.3578 -1.1018 -2.2881
60107SOL    HW292301   2.549  13.669  10.189  0.8375  0.6593 -1.3002
60108SOL     OW92302  13.183   2.616   9.844  0.5856  0.4885 -0.3373
60108SOL    HW192303  13.268   2.573   9.857 -0.7746 -2.2932  0.1812
60108SOL    HW292304  13.127   2.579   9.913 -1.0525  2.3254 -0.5839
60109SOL     OW92305   2.162   2.062   5.036  0.2823 -0.1247 -0.4740
60109SOL    HW192306   2.228   2.080   5.103  1.7682 -0.1932 -1.8850
60109SOL    HW292307   2.150   1.967   5.040  1.6206 -0.3575 -1.4108
60110SOL     OW92308   1.837   3.185   4.361 -0.2031 -1.0411 -0.4475
60110SOL    HW192309   1.824   3.090   4.362 -1.0242 -0.9336 -0.0930
60110SOL    HW292310   1.913   3.198   4.304 -0.5728 -1.8583 -1.1592
60111SOL     OW92311   4.344  11.630   3.576 -0.1547 -0.3681  0.0914
60111SOL    HW192312   4.278  11.697   3.562 -0.0798 -0.1923  0.5409
60111SOL    HW292313   4.329  11.601   3.666  0.2846 -0.4307  0.1458
60112SOL     OW92314  11.070   1.951   6.789 -0.2513  0.0676 -0.2750
60112SOL    HW192315  10.985   1.918   6.758 -1.0857  1.3100  0.6116
60112SOL    HW292316  11.127   1.945   6.712 -0.9197 -1.4700 -0.6890
60113SOL     OW92317   6.837   0.338  13.686 -0.0651 -0.0879 -0.3309
60113SOL    HW192318   6.878   0.351  13.601  1.1946 -0.2835  0.2228
60113SOL    HW292319   6.772   0.269  13.671  1.6666 -1.7440 -0.7155
60114SOL     OW92320  13.779   9.621   9.329  0.0213 -0.4942  0.2004
60114SOL    HW192321  13.711   9.684   9.305 -1.5372 -2.3146 -0.3364
60114SOL    HW292322  13.774   9.553   9.263  3.0264 -0.2785 -0.3765
60115SOL     OW92323  13.651   9.844   9.949 -0.2795  0.6548  0.4474
60115SOL    HW192324  13.735   9.823   9.908 -0.2607  1.4732  0.0489
60115SOL    HW292325  13.653   9.797  10.032  0.7723  1.0191  0.6488
60116SOL     OW92326   9.312  11.381   0.902 -0.2106 -0.6511 -0.1436
60116SOL    HW192327   9.404  11.357   0.915 -0.7477 -1.1099  4.3332
60116SOL    HW292328   9.312  11.477   0.905  0.0771 -0.6683  0.6698
60117SOL     OW92329   1.652   0.916   0.024  0.2316  0.1053  0.0522
60117SOL    HW192330   1.620   0.953   0.107  1.2425 -0.1233  0.5580
60117SOL    HW292331   1.615   0.828   0.021  0.4388  0.0038  0.4132
60118SOL     OW92332  11.801   4.708   7.728  0.0908 -0.4453  0.3932
60118SOL    HW192333  11.827   4.754   7.648  2.0712 -2.0483  0.0249
60118SOL    HW292334  11.820   4.770   7.799  1.4091 -0.1508 -0.1818
60119SOL     OW92335   4.858   0.907   7.082 -0.5286 -0.2846  0.6830
60119SOL    HW192336   4.813   0.824   7.097 -2.1733  0.3117 -0.6964
60119SOL    HW292337   4.807   0.951   7.015  0.8206  1.4776  0.7268
60120SOL     OW92338   3.121   2.485   5.099  0.5125  0.6938  0.4067
60120SOL    HW192339   3.079   2.406   5.133 -0.2356  0.2651 -1.3893
60120SOL    HW292340   3.214   2.465   5.098  0.3479 -0.0850  0.2147
60121SOL     OW92341  13.345  13.089   2.771 -0.2398 -0.1797  0.2343
60121SOL    HW192342  13.399  13.061   2.845 -0.8907 -0.3109  0.6726
60121SOL    HW292343  13.365  13.027   2.701  0.7128  0.2070  0.1416
60122SOL     OW92344   3.173   8.444   5.615 -0.3656 -0.2081 -0.0689
60122SOL    HW192345   3.268   8.450   5.600 -0.5292  1.4223 -0.7128
60122SOL    HW292346   3.139   8.409   5.533 -0.4247  0.4249 -0.3232
60123SOL     OW92347   1.260   7.332   9.214  0.1953 -0.3421  0.0401
60123SOL    HW192348   1.338   7.280   9.193  0.0986 -0.0437 -1.1244
60123SOL    HW292349   1.199   7.269   9.251  1.6019 -0.2833  2.7599
60124SOL     OW92350   9.359  13.880   4.866  0.4825 -0.7497 -0.3040
60124SOL    HW192351   9.451  13.851   4.863  0.5985 -0.5015  0.4830
60124SOL    HW292352   9.346  13.928   4.784  1.0575 -0.7831 -0.4222
60125SOL     OW92353   0.933   6.808   8.984  0.2400  0.1395 -0.1577
60125SOL    HW192354   0.894   6.752   8.918 -1.1276  0.5000  0.3196
60125SOL    HW292355   0.984   6.873   8.934 -0.3799  0.1170 -0.8266
60126SOL     OW92356   8.681   4.444   8.073  0.0874 -0.5784 -0.1849
60126SOL    HW192357   8.648   4.516   8.020 -0.8058 -0.7770  0.0764
60126SOL    HW292358   8.763   4.419   8.032  0.0016  0.0587 -0.7537
60127SOL     OW92359  11.454   6.143   8.345  0.8675  0.2401 -0.3917
60127SOL    HW192360  11.491   6.150   8.257  0.0626  2.1380 -0.6330
60127SOL    HW292361  11.438   6.234   8.371 -0.2335 -0.3569  1.1423
60128SOL     OW92362   4.015   4.960   8.470  0.0233 -0.2482  0.2184
60128SOL    HW192363   3.999   4.890   8.534  0.3934 -0.6860 -0.1613
60128SOL    HW292364   3.983   5.039   8.513 -3.0134 -1.0182 -0.3973
60129SOL     OW92365   9.063   5.246  13.340 -0.3180  0.2963  0.4026
60129SOL    HW192366   9.070   5.207  13.427  1.4542 -2.0188 -0.6528
60129SOL    HW292367   9.007   5.185  13.291 -1.1432  1.4606 -0.1536
60130SOL     OW92368   5.042   3.434   0.746  0.3589 -0.0853 -0.2863
60130SOL    HW192369   5.042   3.375   0.821  0.8868 -0.2149 -0.3897
60130SOL    HW292370   5.011   3.517   0.782  0.6381 -0.1370  0.0832
60131SOL     OW92371   8.443   5.261   5.213 -0.1848  0.0069 -0.3197
60131SOL    HW192372   8.466   5.345   5.252 -1.0671  0.4034 -0.6336
60131SOL    HW292373   8.528   5.221   5.191  0.2422  0.7629 -0.0876
60132SOL     OW92374   4.664   0.688   1.197  0.1669  0.4195  0.0287
60132SOL    HW192375   4.729   0.666   1.130  0.5115 -0.2265  0.5528
60132SOL    HW292376   4.649   0.781   1.186 -0.2483  0.2110 -1.3394
60133SOL     OW92377   3.991  13.385   5.757  0.3041  0.6242  0.2643
60133SOL    HW192378   4.028  13.382   5.845 -0.4733 -1.0905  0.5729
60133SOL    HW292379   3.909  13.434   5.767 -0.1214 -0.1436  0.6563
60134SOL     OW92380   6.046   0.312   8.211 -0.0130  0.4324 -0.1255
60134SOL    HW192381   5.974   0.261   8.248  1.2864 -1.3111  0.1258
60134SOL    HW292382   6.009   0.354   8.134 -1.5104  0.2312  0.4606
60135SOL     OW92383   4.819   1.700   0.291 -0.6607 -0.3601  0.2144
60135SOL    HW192384   4.750   1.688   0.226  1.1070 -0.5147 -1.7329
60135SOL    HW292385   4.828   1.795   0.300 -1.1295 -0.3402  0.4786
60136SOL     OW92386   9.669   9.678   8.647 -0.2327  0.2796 -0.1551
60136SOL    HW192387   9.578   9.698   8.626 -0.4471 -0.9294 -0.4538
60136SOL    HW292388   9.667   9.586   8.676  0.9300  0.1403 -0.4642
60137SOL     OW92389   1.471   8.813  13.444  0.6713 -0.4685  0.1076
60137SOL    HW192390   1.381   8.796  13.417  0.4324 -1.3284  1.3751
60137SOL    HW292391   1.522   8.806  13.363 -0.4638  0.7295 -0.7451
60138SOL     OW92392   1.872  13.559   9.894 -0.1924  0.5440 -0.2018
60138SOL    HW192393   1.922  13.640   9.899  0.6827 -0.0089  0.3041
60138SOL    HW292394   1.841  13.555   9.804  2.4008 -0.0703 -1.1669
60139SOL     OW92395   0.427   7.410   6.044 -0.4517  0.3397  0.0159
60139SOL    HW192396   0.353   7.427   6.102 -0.2155 -0.2837  0.5037
60139SOL    HW292397   0.471   7.495   6.036 -0.1751  0.3189  1.1879
60140SOL     OW92398   9.814   3.866   8.808 -0.6898 -0.1069 -0.5273
60140SOL    HW192399   9.890   3.893   8.859  0.1876  0.9074 -2.2623
60140SOL    HW292400   9.780   3.789   8.853  0.6332  0.1410  0.9669
60141SOL     OW92401   2.910   7.499   0.767 -0.1581  0.3496 -0.1376
60141SOL    HW192402   2.996   7.493   0.726  0.8150 -0.2233  1.8474
60141SOL    HW292403   2.887   7.409   0.788 -1.4780  0.4509 -1.0378
60142SOL     OW92404   9.076  10.634  10.277  0.0585 -0.1678  0.2589
60142SOL    HW192405   9.111  10.667  10.194  0.5368  1.6275  1.1209
60142SOL    HW292406   9.056  10.542  10.260  3.0278 -0.7211 -0.9989
60143SOL     OW92407   3.697   5.178   4.726  0.4463 -0.1944  0.0575
60143SOL    HW192408   3.668   5.101   4.776  0.5801 -0.3564 -0.1121
60143SOL    HW292409   3.791   5.183   4.742 -0.0317  2.1163  3.0931
60144SOL     OW92410  12.108  10.824   5.185 -0.2993 -0.4930  0.2343
60144SOL    HW192411  12.199  10.840   5.211  0.2269 -0.8373 -1.3207
60144SOL    HW292412  12.060  10.818   5.268  0.9608  0.4046  1.0634
60145SOL     OW92413   2.603   9.766   7.195 -0.0064 -0.1647  0.2689
60145SOL    HW192414   2.665   9.713   7.244 -1.1337 -1.1956  0.6246
60145SOL    HW292415   2.524   9.766   7.249  0.3531  3.0826  1.0090
60146SOL     OW92416   2.766  12.289  13.417  0.7478  0.0454 -0.9297
60146SOL    HW192417   2.859  12.305  13.401  1.2805 -1.3602  0.4725
60146SOL    HW292418   2.761  12.269  13.511 -1.0917  0.8122 -0.8207
60147SOL     OW92419   5.243   5.223  14.008  0.2943 -0.1624  0.1840
60147SOL    HW192420   5.323   5.239  13.956  0.5244  0.7076  0.7931
60147SOL    HW292421   5.172   5.254  13.952  0.4347 -0.3044 -0.0800
60148SOL     OW92422   9.564   6.812  13.730 -0.3382  0.5454  0.2767
60148SOL    HW192423   9.473   6.801  13.757  0.4525  0.0159  3.0415
60148SOL    HW292424   9.568   6.774  13.642 -2.5433 -0.4272  0.5297
60149SOL     OW92425  12.881   5.604   2.990  0.4549 -0.0417 -0.4460
60149SOL    HW192426  12.823   5.662   2.939  0.2387  0.9484  0.8794
60149SOL    HW292427  12.831   5.523   3.000 -0.6819  0.7554  0.5634
60150SOL     OW92428   0.091   1.884   4.692  0.0376  0.0816 -0.0475
60150SOL    HW192429   0.175   1.871   4.737  0.6063 -1.0595 -1.3939
60150SOL    HW292430   0.113   1.885   4.599 -1.4838 -0.5325 -0.4404
60151SOL     OW92431   9.874   4.302   6.311  0.0538  0.2608  0.0404
60151SOL    HW192432   9.902   4.334   6.225 -0.6822 -0.1404 -0.3602
60151SOL    HW292433   9.810   4.234   6.291 -0.4321  0.4490  0.9182
60152SOL     OW92434  12.653  12.148   9.166  0.2681 -0.7020  0.0101
60152SOL    HW192435  12.574  12.147   9.111 -0.5241  1.2336  1.0216
60152SOL    HW292436  12.725  12.157   9.103 -0.5550  0.5489 -0.8046
60153SOL     OW92437   7.717   9.176   8.853 -0.0601  0.4472 -0.2837
60153SOL    HW192438   7.703   9.193   8.760 -1.2597 -0.4839 -0.3008
60153SOL    HW292439   7.685   9.255   8.897 -1.6133  0.0299 -0.5735
60154SOL     OW92440   8.334   8.223   5.564  0.0024 -0.3923  0.0048
60154SOL    HW192441   8.391   8.247   5.490 -0.0614 -1.8605 -0.5609
60154SOL    HW292442   8.245   8.241   5.533 -0.0192 -0.9378 -0.2732
60155SOL     OW92443  13.989  13.849  10.858  0.0072  0.2645 -0.2749
60155SOL    HW192444  13.942  13.829  10.777 -0.4837  2.6405 -0.6632
60155SOL    HW292445  14.076  13.875  10.829 -0.1310  0.9985 -0.0653
60156SOL     OW92446   4.073   5.871  11.016 -0.2794  0.4192 -0.0175
60156SOL    HW192447   4.138   5.841  10.952  0.1722  1.6262 -0.1520
60156SOL    HW292448   4.069   5.801  11.081  0.8883  0.1630 -0.2020
60157SOL     OW92449   7.147   4.359  11.053  0.5849 -0.1424  0.2387
60157SOL    HW192450   7.237   4.387  11.070  0.4277 -0.9411  2.9001
60157SOL    HW292451   7.154   4.301  10.978  1.9438  1.4344 -0.9322
60158SOL     OW92452  13.009  10.266  11.060 -0.1798 -0.1818 -0.4755
60158SOL    HW192453  12.983  10.191  11.005  1.1976 -0.6185 -0.5732
60158SOL    HW292454  12.928  10.315  11.073 -1.6441 -2.8496  1.4392
60159SOL     OW92455  12.617   4.153  11.787 -0.4763 -0.3829  0.3920
60159SOL    HW192456  12.556   4.215  11.826 -0.8854 -0.0924 -0.6734
60159SOL    HW292457  12.625   4.181  11.696  2.9274  0.9279  0.9366
60160SOL     OW92458   4.635   6.632  12.325 -0.5488  0.2683 -0.0231
60160SOL    HW192459   4.562   6.680  12.286 -1.3572 -1.0973 -0.2481
60160SOL    HW292460   4.684   6.698  12.374 -3.2892  0.8723  2.1449
60161SOL     OW92461   0.642   0.614   9.607 -1.2070  0.1481  0.4828
60161SOL    HW192462   0.559   0.566   9.613 -0.8553 -0.5639 -0.1713
60161SOL    HW292463   0.694   0.565   9.543  0.2997 -0.2667  1.9563
60162SOL     OW92464   0.947   0.027  12.195  0.0693  0.1863  0.2308
60162SOL    HW192465   1.006   0.087  12.149  0.6276 -0.0560  0.6346
60162SOL    HW292466   0.942   0.061  12.284  0.1054 -0.1625  0.3665
60163SOL     OW92467   9.425   6.520  12.079  0.0894 -0.3594  0.2850
60163SOL    HW192468   9.367   6.523  12.155 -0.5556  1.6448 -0.2305
60163SOL    HW292469   9.506   6.562  12.109 -0.4772  1.2513 -0.3307
60164SOL     OW92470  13.890   0.191  12.965 -0.1712  0.2487 -0.0279
60164SOL    HW192471  13.825   0.190  12.894  0.4082  0.2720 -0.5726
60164SOL    HW292472  13.910   0.098  12.980 -2.0491  0.0764  1.7806
60165SOL     OW92473  10.879  12.361   3.088 -0.2694  0.0748  0.5242
60165SOL    HW192474  10.870  12.273   3.050 -1.3107  0.5859 -0.4606
60165SOL    HW292475  10.917  12.414   3.018 -1.6466  0.8880  0.3622
60166SOL     OW92476  11.063   4.968   7.210  0.2621 -0.2558  0.2155
60166SOL    HW192477  11.030   4.900   7.268 -0.1579 -0.6969 -0.5218
60166SOL    HW292478  11.151   4.939   7.186 -0.0517 -0.7319 -0.3822
60167SOL     OW92479   9.310   7.261   1.720 -0.2101  0.2828  0.0983
60167SOL    HW192480   9.240   7.317   1.686  0.6346 -1.5541 -5.7714
60167SOL    HW292481   9.389   7.314   1.716  0.0018 -0.0997 -1.9641
60168SOL     OW92482   5.362   5.815   6.572 -0.0243  0.2958  0.4236
60168SOL    HW192483   5.425   5.793   6.640 -1.4527  0.3566  1.8443
60168SOL    HW292484   5.381   5.906   6.551  1.3984 -0.1586 -0.3943
60169SOL     OW92485  11.377   1.852   1.922 -0.3726 -0.6452  0.1517
60169SOL    HW192486  11.378   1.757   1.919  2.9917 -0.7188 -2.3203
60169SOL    HW292487  11.288   1.876   1.898 -0.4856 -3.2446 -2.5709
60170SOL     OW92488  10.115   1.611  12.365 -0.0759 -0.4421  0.5250
60170SOL    HW192489  10.085   1.696  12.333  1.0396  0.1741  1.0776
60170SOL    HW292490  10.179   1.582  12.300 -0.4717 -0.9009  0.3216
60171SOL     OW92491   9.625   5.535   1.322  0.0909 -0.7065  0.0747
60171SOL    HW192492   9.647   5.466   1.259 -0.3260  0.9876 -2.0805
60171SOL    HW292493   9.688   5.605   1.303 -0.3846  0.0541  1.2293
60172SOL     OW92494   4.857   2.679   6.227 -0.2406  0.2987  0.0237
60172SOL    HW192495   4.762   2.685   6.237 -0.3953 -0.2141 -0.9775
60172SOL    HW292496   4.884   2.616   6.293 -0.4743  1.0689  0.8754
60173SOL     OW92497   1.484   7.088   3.026  0.3128 -0.0777 -0.1972
60173SOL    HW192498   1.496   7.183   3.017 -0.3606 -0.0199 -0.5519
60173SOL    HW292499   1.472   7.057   2.936  1.3689 -0.6276 -0.1637
60174SOL     OW92500   6.185  14.030   3.119 -0.9350 -0.3825  0.2157
60174SOL    HW192501   6.134  14.019   3.039  0.9068 -2.3027 -0.7724
60174SOL    HW292502   6.252  14.094   3.097  0.2860 -1.7629 -0.1868
60175SOL     OW92503   2.823   8.180  10.553 -0.5065 -0.5136  0.0642
60175SOL    HW192504   2.729   8.180  10.533 -0.4341 -1.0059 -0.2907
60175SOL    HW292505   2.864   8.151  10.472 -0.3025 -4.2772  1.3328
60176SOL     OW92506  13.972  10.420   9.347 -0.4395  0.4947  0.4615
60176SOL    HW192507  13.897  10.463   9.390 -1.4959 -1.3336  0.5331
60176SOL    HW292508  13.932  10.360   9.284  0.9970 -0.1806  0.1589
60177SOL     OW92509   0.212   3.802   3.965 -0.7176 -0.1091 -0.1913
60177SOL    HW192510   0.172   3.889   3.959 -1.1638 -0.1605  1.6051
60177SOL    HW292511   0.282   3.812   4.030  0.5925 -0.6307 -1.4693
60178SOL     OW92512   0.274  13.900   1.593 -0.1352  0.2741  0.2116
60178SOL    HW192513   0.205  13.888   1.528 -1.1069  0.5600  1.1638
60178SOL    HW292514   0.254  13.836   1.662 -1.3738  2.4860  2.0440
60179SOL     OW92515   8.562   6.053  13.372  0.2533 -0.2353  0.0840
60179SOL    HW192516   8.475   6.088  13.354 -0.3925 -2.6659 -2.1592
60179SOL    HW292517   8.614   6.076  13.296  1.3820  0.4315  1.0167
60180SOL     OW92518   7.796   3.106   9.200 -0.1255 -0.2161 -0.2043
60180SOL    HW192519   7.880   3.119   9.243 -0.8498  1.5393  0.8051
60180SOL    HW292520   7.736   3.166   9.246 -1.6854 -0.6561 -1.5585
60181SOL     OW92521  13.205   2.199   8.013 -0.2505  0.4476 -0.4731
60181SOL    HW192522  13.275   2.137   8.034 -2.0521 -1.5150  0.0278
60181SOL    HW292523  13.243   2.255   7.945  1.7474 -0.6288 -0.3268
60182SOL     OW92524  11.747  12.724  10.036 -0.5663  0.5924  0.0434
60182SOL    HW192525  11.681  12.788  10.062  0.5887  1.5125  0.8008
60182SOL    HW292526  11.803  12.714  10.113 -0.7430 -1.3956 -0.0260
60183SOL     OW92527   8.354   3.386  12.107 -0.2618 -0.4828  0.5716
60183SOL    HW192528   8.359   3.409  12.200  2.3577  0.1566  0.3451
60183SOL    HW292529   8.441   3.353  12.085 -1.8138 -4.0808 -0.8731
60184SOL     OW92530  13.117   8.107   2.626 -0.7921  0.1876 -0.2084
60184SOL    HW192531  13.034   8.073   2.592 -1.9402  2.5906 -0.0241
60184SOL    HW292532  13.095   8.193   2.661  1.8288  0.9845 -0.2863
60185SOL     OW92533   8.822   1.569   9.897 -0.2509 -0.2218  0.0692
60185SOL    HW192534   8.799   1.534   9.811 -0.2972  0.6901 -0.3096
60185SOL    HW292535   8.744   1.558   9.950 -0.4912 -0.0575 -0.2510
60186SOL     OW92536   2.065   8.266   3.384  0.1796 -0.0797 -0.1794
60186SOL    HW192537   2.124   8.327   3.340  0.9839  0.2366  1.2471
60186SOL    HW292538   2.001   8.321   3.428  0.1320 -0.3209  0.0570
60187SOL     OW92539   6.562   4.096   1.216 -0.0005  0.1152  0.3897
60187SOL    HW192540   6.531   4.181   1.247  1.8330  0.8214  0.4365
60187SOL    HW292541   6.613   4.062   1.290 -0.4682 -0.9073  0.2577
60188SOL     OW92542  10.785   7.262  10.683  0.3822 -0.2066 -0.6182
60188SOL    HW192543  10.749   7.346  10.653  0.4378 -0.2964 -0.9466
60188SOL    HW292544  10.767   7.202  10.611  0.9608 -0.3123 -0.6807
60189SOL     OW92545   6.928   4.692   1.681  0.0002  1.2057 -0.7585
60189SOL    HW192546   6.899   4.731   1.763 -1.9162  1.7330 -1.6199
60189SOL    HW292547   6.848   4.687   1.628  0.8202 -0.8665 -1.8986
60190SOL     OW92548   9.407  12.939   0.921 -0.2923 -0.3467  0.0419
60190SOL    HW192549   9.443  12.886   0.850  1.5803  1.7161 -0.6610
60190SOL    HW292550   9.325  12.974   0.886 -0.2476 -0.7227 -0.4519
60191SOL     OW92551   6.089   3.315   7.746 -0.5775  0.4289  0.1242
60191SOL    HW192552   6.145   3.361   7.810 -0.1907  0.6005 -0.3312
60191SOL    HW292553   6.143   3.310   7.667 -0.9284 -0.0879 -0.0842
60192SOL     OW92554   0.641   4.248   6.647  0.2179  0.3250  0.7135
60192SOL    HW192555   0.712   4.209   6.699  0.1495 -0.3580  0.3193
60192SOL    HW292556   0.562   4.204   6.678  0.2760 -0.7587 -0.5386
60193SOL     OW92557   0.599  12.979   7.308  0.6305  0.2932  0.2712
60193SOL    HW192558   0.518  12.974   7.258  0.9798 -0.4287 -0.2434
60193SOL    HW292559   0.658  12.916   7.265  1.1837  0.2044  1.1321
60194SOL     OW92560   5.916   3.216   0.280 -0.8001  0.0976 -0.2375
60194SOL    HW192561   5.976   3.239   0.351 -2.2542 -0.3153  1.1928
60194SOL    HW292562   5.891   3.300   0.241  0.3949  0.2939 -0.6040
60195SOL     OW92563   2.583   9.789  12.470  0.2511 -0.1214 -0.2393
60195SOL    HW192564   2.608   9.827  12.554 -1.0148  0.4985 -0.1175
60195SOL    HW292565   2.658   9.735  12.444  0.8797  0.1276  1.0113
60196SOL     OW92566  10.819  10.806  13.440 -0.0912  0.5137 -0.0680
60196SOL    HW192567  10.863  10.727  13.408 -0.2512  0.5200 -0.3029
60196SOL    HW292568  10.776  10.843  13.362  0.1454  0.9377  0.0014
60197SOL     OW92569   5.829   7.098  13.518 -1.2201 -0.2148 -0.2687
60197SOL    HW192570   5.883   7.111  13.596 -0.6464 -0.9212 -0.5341
60197SOL    HW292571   5.796   7.009  13.527 -1.8068 -0.0163 -0.4427
60198SOL     OW92572   4.387  10.961   7.117  0.1957 -0.1445 -0.3859
60198SOL    HW192573   4.413  10.902   7.046  0.2731  0.5867 -0.9804
60198SOL    HW292574   4.418  11.047   7.089 -0.3752  0.2682  0.2235
60199SOL     OW92575   5.123  10.942   9.991  0.0319 -0.0820  0.0563
60199SOL    HW192576   5.094  10.853  10.010  0.5723  0.3089  3.3578
60199SOL    HW292577   5.061  10.998  10.037  1.4997  1.0683  0.7552
60200SOL     OW92578   7.553   7.032  12.577 -0.2383  0.2456  0.3607
60200SOL    HW192579   7.578   6.940  12.563  1.6795  0.5125  1.6753
60200SOL    HW292580   7.585   7.077  12.499  1.0067  0.1466  0.7948
60201SOL     OW92581   6.997   3.375  11.802  0.1123  0.5546 -0.7656
60201SOL    HW192582   6.924   3.314  11.790  0.6821 -0.2521 -0.2322
60201SOL    HW292583   6.955   3.459  11.819 -0.6951  0.4569 -2.1085
60202SOL     OW92584   9.119  11.245  12.747 -0.2188 -0.8668 -0.5653
60202SOL    HW192585   9.101  11.187  12.673 -2.2466 -0.7421 -0.2092
60202SOL    HW292586   9.107  11.191  12.824 -2.9600  0.1130 -0.1892
60203SOL     OW92587   5.560   0.663  10.011 -0.7545 -0.1164  0.4295
60203SOL    HW192588   5.541   0.743  10.061  0.4700 -0.1639  0.9938
60203SOL    HW292589   5.564   0.594  10.077 -0.1280 -0.3563  0.1435
60204SOL     OW92590   1.563   8.629   9.156 -0.6008 -0.1643 -0.4799
60204SOL    HW192591   1.520   8.667   9.232  1.6384  1.2849  0.1707
60204SOL    HW292592   1.607   8.551   9.190 -2.6203 -1.6785 -1.1533
60205SOL     OW92593   3.476  12.723  13.322 -0.4354 -0.0052 -0.0357
60205SOL    HW192594   3.541  12.758  13.262 -0.2477  1.6226  1.0739
60205SOL    HW292595   3.515  12.641  13.354  1.4285  1.2411  1.1007
60206SOL     OW92596  12.547   4.620   5.622 -0.2475 -0.3768  0.4886
60206SOL    HW192597  12.480   4.660   5.567 -0.9810 -0.6645  1.1670
60206SOL    HW292598  12.595   4.695   5.659  1.1285 -0.1772 -1.5578
60207SOL     OW92599   7.522   2.337   4.025  0.3017  0.0782  0.0304
60207SOL    HW192600   7.616   2.357   4.026  0.6807 -1.3372 -1.8156
60207SOL    HW292601   7.512   2.262   4.084 -0.6008  3.1421  4.2855
60208SOL     OW92602   9.316   6.374  13.853  0.2172  0.8184 -0.2219
60208SOL    HW192603   9.357   6.287  13.854 -0.0909  0.6802  0.7944
60208SOL    HW292604   9.390   6.434  13.839  0.3316  0.3654 -1.8215
60209SOL     OW92605   5.303   2.330   3.601  0.3191  0.0112  0.0751
60209SOL    HW192606   5.395   2.306   3.610  0.8354  1.2463 -1.3700
60209SOL    HW292607   5.289   2.335   3.506 -1.3533 -0.5277  0.2589
60210SOL     OW92608   3.715   1.343   1.938 -0.4390  0.1349  0.3817
60210SOL    HW192609   3.789   1.394   1.970  1.2605 -0.8713 -1.7183
60210SOL    HW292610   3.752   1.258   1.916 -1.9431  0.0006 -1.9343
60211SOL     OW92611  13.305  10.980  12.330 -0.1632  0.1122 -0.4131
60211SOL    HW192612  13.303  10.884  12.330 -0.5638  0.0913  1.2590
60211SOL    HW292613  13.396  11.002  12.344  0.5385  0.0805 -3.9984
60212SOL     OW92614   8.555   0.257   0.784 -0.3174 -0.0171  0.6147
60212SOL    HW192615   8.539   0.163   0.776  0.6362 -0.0409 -2.4683
60212SOL    HW292616   8.472   0.298   0.759 -0.2323 -0.0635  0.2492
60213SOL     OW92617  13.259   7.149   8.441 -0.3350 -0.3370 -0.3988
60213SOL    HW192618  13.327   7.205   8.404 -0.2326 -0.3471 -0.2241
60213SOL    HW292619  13.240   7.189   8.526  1.0904 -1.6625  0.5813
60214SOL     OW92620   5.419   9.500   7.448 -0.3772 -0.0401 -0.7817
60214SOL    HW192621   5.341   9.544   7.415 -1.3063 -2.2111 -1.6425
60214SOL    HW292622   5.477   9.495   7.372  0.7171  1.6936 -0.1107
60215SOL     OW92623   3.587   1.760   6.656  0.1136  0.2094 -0.2330
60215SOL    HW192624   3.575   1.719   6.571 -0.7808  0.4324 -0.2171
60215SOL    HW292625   3.574   1.853   6.641  0.5692  0.3212  0.0332
60216SOL     OW92626  11.385   0.339   0.450 -0.0268  0.5230  0.0990
60216SOL    HW192627  11.406   0.249   0.475 -0.2568  0.8936  1.8117
60216SOL    HW292628  11.470   0.379   0.429  0.3850  0.5057  1.5868
60217SOL     OW92629   9.125   5.292   7.157 -0.0498 -0.4203  0.7296
60217SOL    HW192630   9.068   5.306   7.232  0.4210  1.7401  0.7602
60217SOL    HW292631   9.079   5.332   7.084 -0.0260 -1.5628  0.0689
60218SOL     OW92632  11.371   0.569   3.948  0.6667 -0.2253  0.4212
60218SOL    HW192633  11.427   0.637   3.910 -0.4591 -0.2102 -1.2926
60218SOL    HW292634  11.350   0.602   4.036  1.8702  0.6003  0.4295
60219SOL     OW92635   9.979   2.859   1.689  0.1540 -0.1373  0.1493
60219SOL    HW192636  10.013   2.808   1.616 -1.6913  1.5620 -2.0672
60219SOL    HW292637  10.054   2.872   1.747  0.8796 -4.5843  0.5169
60220SOL     OW92638   0.460  11.913  11.427  0.0702 -0.3408 -0.5348
60220SOL    HW192639   0.367  11.920  11.405  0.3689 -1.9265 -2.5694
60220SOL    HW292640   0.471  11.825  11.461  1.0176 -0.6024 -1.4568
60221SOL     OW92641   8.196   7.711  13.802  0.0199 -0.1076 -0.0611
60221SOL    HW192642   8.238   7.628  13.825  0.1997 -0.0012 -0.0005
60221SOL    HW292643   8.117   7.686  13.754 -1.3338 -0.4128  2.1506
60222SOL     OW92644  13.800  11.725   4.733 -0.1494 -0.7631  0.3833
60222SOL    HW192645  13.767  11.671   4.661 -1.1112 -2.3919  1.9447
60222SOL    HW292646  13.809  11.664   4.806  0.8227  0.8152  1.6502
60223SOL     OW92647  11.205  10.737  11.177  0.0184  0.5525 -0.3467
60223SOL    HW192648  11.284  10.723  11.124 -0.6959  0.5307 -1.4325
60223SOL    HW292649  11.195  10.833  11.180 -0.0871  0.5464 -0.4819
60224SOL     OW92650   2.902   0.498   9.667  0.7985 -0.1602  0.3949
60224SOL    HW192651   2.851   0.419   9.651  1.3622 -0.2884 -0.9019
60224SOL    HW292652   2.838   0.563   9.697 -0.3008 -0.0797 -1.9487
60225SOL     OW92653   8.321   8.107   7.536  0.0545  0.1247  0.1073
60225SOL    HW192654   8.268   8.179   7.502 -0.5838  0.1409  1.1065
60225SOL    HW292655   8.315   8.116   7.631  2.5000  0.6001  0.2713
60226SOL     OW92656   3.501   9.608  13.409 -0.1869  0.0379 -0.0948
60226SOL    HW192657   3.573   9.562  13.364  1.4342  2.4705 -0.1493
60226SOL    HW292658   3.444   9.637  13.338  0.3671  0.6268 -0.3109
60227SOL     OW92659  13.659   4.747  13.434 -0.1434  0.2849  0.5519
60227SOL    HW192660  13.626   4.676  13.489 -1.6256  0.5074 -0.0070
60227SOL    HW292661  13.671   4.820  13.494 -1.8686  0.5625  0.6245
60228SOL     OW92662   6.057   5.293   4.036  0.6923  0.3098  0.0105
60228SOL    HW192663   6.027   5.209   4.072  0.2749  0.1804 -0.6295
60228SOL    HW292664   6.005   5.359   4.081  1.3754  0.2731  0.8902
60229SOL     OW92665  12.770  13.629   7.721  0.0301 -0.1385 -0.5931
60229SOL    HW192666  12.697  13.620   7.659  0.3885 -1.4777 -0.8344
60229SOL    HW292667  12.812  13.712   7.696 -0.6293 -0.0030 -1.2806
60230SOL     OW92668   8.224   1.349   9.982 -0.2505  0.0147  0.1290
60230SOL    HW192669   8.144   1.311   9.946 -0.5825  0.6781  0.1580
60230SOL    HW292670   8.244   1.423   9.925  0.3314 -0.1247  0.1408
60231SOL     OW92671  13.765   0.207   3.295 -0.8084 -0.3333 -0.1203
60231SOL    HW192672  13.803   0.291   3.321 -0.4637 -0.7463  0.7665
60231SOL    HW292673  13.732   0.222   3.207  0.0330  0.4836 -0.3150
60232SOL     OW92674  13.912   8.235   6.467 -0.7678  0.2841 -0.2363
60232SOL    HW192675  13.979   8.248   6.399 -0.7377  1.2505 -0.0296
60232SOL    HW292676  13.924   8.308   6.527 -1.7956  0.2852 -0.0130
60233SOL     OW92677   3.988   0.286   2.411  0.3773 -0.1798 -0.0153
60233SOL    HW192678   4.050   0.214   2.398  1.0575 -0.0900  2.2982
60233SOL    HW292679   3.913   0.245   2.454  0.0011  0.1834 -0.3281
60234SOL     OW92680  12.543  12.469  12.758 -0.2515 -0.2806 -0.2013
60234SOL    HW192681  12.548  12.387  12.709  1.0941  0.4252 -1.3455
60234SOL    HW292682  12.472  12.518  12.716 -0.4265 -0.4812 -0.1389
60235SOL     OW92683   7.251  11.307  13.196 -0.4203 -0.1365 -0.1043
60235SOL    HW192684   7.270  11.218  13.224 -1.5600 -0.3426  0.0662
60235SOL    HW292685   7.302  11.318  13.116 -0.3516 -0.9793 -0.1846
60236SOL     OW92686   6.492  10.765  13.809  0.7293 -0.2388 -0.1248
60236SOL    HW192687   6.438  10.720  13.743  0.5717 -1.6748  0.9366
60236SOL    HW292688   6.452  10.851  13.817  0.2804 -0.2990 -1.3458
60237SOL     OW92689   3.302   8.252  13.483  0.2295  0.8606  0.0849
60237SOL    HW192690   3.233   8.278  13.544  0.7972 -0.4506  1.3609
60237SOL    HW292691   3.294   8.157  13.476  0.5447  0.9167 -1.4715
60238SOL     OW92692   0.313  11.801  13.810 -0.2907 -0.6017 -0.2940
60238SOL    HW192693   0.253  11.854  13.758  0.1299  0.8076  0.6083
60238SOL    HW292694   0.271  11.795  13.896 -0.5070 -2.0801 -0.4723
60239SOL     OW92695   4.448   8.139  10.138 -0.5932  0.0882  0.2282
60239SOL    HW192696   4.386   8.186  10.083 -1.6529  1.2152  2.2763
60239SOL    HW292697   4.532   8.180  10.118 -1.2883  1.9700  0.9737
60240SOL     OW92698   0.173   6.197   3.258 -0.1175 -0.1191 -0.5580
60240SOL    HW192699   0.227   6.167   3.185  1.6577 -0.8241  0.9810
60240SOL    HW292700   0.185   6.130   3.326 -0.4092  1.3389  0.9899
60241SOL     OW92701  13.341   2.949  12.951  0.3971 -0.0867  0.6039
60241SOL    HW192702  13.384   3.025  12.911  1.2424 -0.7312  0.2713
60241SOL    HW292703  13.405   2.879  12.946 -0.1296 -0.6565  1.5297
60242SOL     OW92704   0.957   1.892   8.534 -0.0843 -0.2669  0.2791
60242SOL    HW192705   1.039   1.843   8.520 -0.0976 -0.3934  0.6377
60242SOL    HW292706   0.985   1.983   8.542  0.0977 -0.3790  1.0431
60243SOL     OW92707   7.280   3.203   6.612  0.0119  0.1953  0.1596
60243SOL    HW192708   7.189   3.177   6.602  0.7983 -2.4037 -1.2169
60243SOL    HW292709   7.313   3.148   6.684  0.5847  0.8186  0.3845
60244SOL     OW92710   6.990   8.532   6.546 -0.0343 -0.3793 -0.4224
60244SOL    HW192711   7.024   8.541   6.457 -1.2932  1.3220 -0.7634
60244SOL    HW292712   6.895   8.530   6.536 -0.1973 -0.2072  0.8831
60245SOL     OW92713   2.958   8.550   2.285 -0.4590  0.3404  0.0936
60245SOL    HW192714   2.912   8.536   2.202  0.9618 -0.5407 -0.5801
60245SOL    HW292715   2.896   8.523   2.352 -0.8403 -1.0969 -0.7999
60246SOL     OW92716   3.749   4.361   1.907  0.1170 -0.0146  0.3516
60246SOL    HW192717   3.738   4.426   1.977  1.9219 -0.7004  1.3301
60246SOL    HW292718   3.832   4.318   1.926  0.3049 -0.7573 -1.8165
60247SOL     OW92719   6.001   1.344   8.896 -0.6409 -0.0888 -0.2892
60247SOL    HW192720   5.906   1.343   8.883 -0.7684 -1.5620  0.5565
60247SOL    HW292721   6.015   1.292   8.974  0.7431  1.6986  0.7209
60248SOL     OW92722   1.438  12.997   1.997  0.4071 -0.4992 -0.1110
60248SOL    HW192723   1.511  13.010   2.059  0.3152 -1.2602  0.1658
60248SOL    HW292724   1.421  13.085   1.962 -0.0574  0.0997  1.5269
60249SOL     OW92725  13.891   5.980   6.223  0.0236 -0.1605  0.1378
60249SOL    HW192726  13.975   5.983   6.177 -0.4980 -2.1981 -1.0804
60249SOL    HW292727  13.900   5.907   6.285 -0.3472  0.5916  1.1007
60250SOL     OW92728   8.115   6.049   1.305  0.7222 -0.6987  0.2185
60250SOL    HW192729   8.045   6.111   1.324  1.1071  0.0366 -0.6567
60250SOL    HW292730   8.070   5.967   1.283 -0.0379  0.2992 -2.4031
60251SOL     OW92731   9.011   8.450   9.032 -0.0854  0.1595  0.5343
60251SOL    HW192732   9.027   8.394   8.956  1.8713 -0.3163  1.2401
60251SOL    HW292733   8.925   8.423   9.064  0.3074 -1.6650  0.1698
60252SOL     OW92734   1.680  11.618   4.617  0.3816  0.0722 -0.0930
60252SOL    HW192735   1.704  11.645   4.529  1.4782  1.8760  0.6922
60252SOL    HW292736   1.603  11.671   4.638  0.5387  0.1604  0.2721
60253SOL     OW92737   3.874   4.271   4.629  0.5020 -0.4524 -0.1726
60253SOL    HW192738   3.841   4.276   4.719 -2.0383  1.2861 -1.0986
60253SOL    HW292739   3.945   4.335   4.626 -0.2137  0.3774  0.2947
60254SOL     OW92740   3.085   7.740   1.842  0.3816 -0.3949  0.1008
60254SOL    HW192741   3.135   7.736   1.761 -0.3571 -1.9561 -0.3090
60254SOL    HW292742   2.993   7.734   1.815 -0.2021  3.2595  0.7664
60255SOL     OW92743   8.011  10.044   1.573  0.1518 -0.4485  0.0293
60255SOL    HW192744   7.933  10.031   1.626  0.2641 -2.5931 -0.2709
60255SOL    HW292745   7.978  10.057   1.484  0.1216 -1.2828 -0.0860
60256SOL     OW92746   6.761   9.036  11.023 -0.4790 -0.2104  0.1500
60256SOL    HW192747   6.765   9.131  11.030 -0.8271 -0.1465 -0.4582
60256SOL    HW292748   6.804   9.004  11.103 -1.7217  0.4438  1.1209
60257SOL     OW92749   8.564   2.786   4.477 -0.8640  0.0465  0.0602
60257SOL    HW192750   8.589   2.788   4.569  1.4423  2.6912 -0.5054
60257SOL    HW292751   8.622   2.721   4.437  1.2363  1.9657 -0.1920
60258SOL     OW92752   4.440  13.423   6.693 -0.5268 -0.3487 -0.1325
60258SOL    HW192753   4.428  13.329   6.705 -0.4173 -0.2785  0.6061
60258SOL    HW292754   4.497  13.430   6.616 -0.9737 -0.8624 -0.5122
60259SOL     OW92755   6.652   9.196   2.958 -0.1817  0.2804 -0.2081
60259SOL    HW192756   6.567   9.198   3.002 -0.5580  1.1596 -0.9599
60259SOL    HW292757   6.715   9.182   3.029 -0.9934 -1.1469  0.2711
60260SOL     OW92758   6.656   5.705  12.053  0.2211 -0.2374 -0.1278
60260SOL    HW192759   6.727   5.648  12.083  0.8851  0.9521  0.6322
60260SOL    HW292760   6.676   5.790  12.092 -1.4353  0.2085 -0.1864
60261SOL     OW92761   8.715   6.627   1.747 -0.0027 -0.1913 -0.0882
60261SOL    HW192762   8.653   6.665   1.685 -0.1616  0.8720  0.6954
60261SOL    HW292763   8.786   6.691   1.753 -0.9267  0.7069  2.2963
60262SOL     OW92764   4.296   6.636  12.584 -0.2946 -0.1080 -0.2902
60262SOL    HW192765   4.352   6.709  12.610 -0.2664 -0.2038 -0.0774
60262SOL    HW292766   4.349   6.558  12.602 -1.1991 -0.3025  1.7731
60263SOL     OW92767   5.846   0.887  13.432 -0.3916 -0.2111  0.0252
60263SOL    HW192768   5.851   0.845  13.346 -2.0348 -0.8447  0.2068
60263SOL    HW292769   5.895   0.969  13.421  1.7786 -1.5250 -0.6883
60264SOL     OW92770   3.133   6.168  13.552 -0.5275 -0.9380  0.3865
60264SOL    HW192771   3.163   6.234  13.489 -2.3049 -0.7351 -0.3162
60264SOL    HW292772   3.187   6.091  13.533  0.4017 -0.2235  0.0529
60265SOL     OW92773  12.256   5.245  13.704 -0.2506  0.2752 -0.3726
60265SOL    HW192774  12.309   5.168  13.683 -2.1029 -1.2225  0.1158
60265SOL    HW292775  12.281   5.267  13.794  1.0246  0.9165 -0.8661
60266SOL     OW92776   7.511  12.005  12.047 -0.3466  0.1772 -0.3117
60266SOL    HW192777   7.547  12.003  11.958  1.5593 -0.1903  0.4105
60266SOL    HW292778   7.490  12.097  12.062 -0.6335  0.2551 -1.1116
60267SOL     OW92779  11.718   6.077  12.494  0.1910 -0.2917 -0.2315
60267SOL    HW192780  11.688   6.021  12.565 -0.1904  1.2357  0.8620
60267SOL    HW292781  11.641   6.089  12.439  0.1753 -0.5223 -0.2622
60268SOL     OW92782   5.063   4.835  11.349  0.2385 -0.7306  0.4200
60268SOL    HW192783   5.040   4.878  11.431 -0.6429 -0.8796  0.2641
60268SOL    HW292784   5.047   4.742  11.366  2.3155 -1.0579  0.8219
60269SOL     OW92785  13.241   7.124  12.830  0.1979  0.2625 -0.1909
60269SOL    HW192786  13.325   7.089  12.800  0.9215  2.0324 -0.3275
60269SOL    HW292787  13.233   7.092  12.920  0.9081 -0.1090 -0.2518
60270SOL     OW92788   7.455   0.827   6.331  0.6904 -0.5366 -0.0231
60270SOL    HW192789   7.388   0.796   6.271 -0.1583 -1.4501  1.3377
60270SOL    HW292790   7.436   0.921   6.342  1.4690 -0.1138 -1.8867
60271SOL     OW92791   3.739   6.820  13.588 -0.5251 -0.1198 -0.0660
60271SOL    HW192792   3.811   6.878  13.561 -1.2158  0.8397  0.1096
60271SOL    HW292793   3.710   6.779  13.507 -0.6017  0.4478 -0.3320
60272SOL     OW92794   1.934   8.765  11.819  0.7900 -0.1718  0.4608
60272SOL    HW192795   1.870   8.808  11.876  0.4715  1.8561 -1.2873
60272SOL    HW292796   1.885   8.743  11.740  1.4934 -1.8111  0.4539
60273SOL     OW92797  10.952  10.452  10.261  0.4974 -0.2680  0.4773
60273SOL    HW192798  10.927  10.363  10.236  0.7695 -0.6435  1.4890
60273SOL    HW292799  11.040  10.443  10.296  1.3606  0.7437 -1.3152
60274SOL     OW92800   5.012  11.794  10.112 -0.2188  0.3959 -0.2663
60274SOL    HW192801   5.063  11.760  10.185  0.2510  0.9945 -0.3030
60274SOL    HW292802   4.952  11.724  10.089 -0.3766  0.2027  0.7028
60275SOL     OW92803   2.740   0.194  10.614 -0.1646 -0.1176  0.1569
60275SOL    HW192804   2.722   0.255  10.543  2.6146  0.0776 -0.4779
60275SOL    HW292805   2.746   0.108  10.570  0.3412 -0.1772  0.3409
60276SOL     OW92806   0.696  10.049   3.580 -0.6818 -0.0768  0.0573
60276SOL    HW192807   0.613  10.076   3.619  0.8244  1.8623  2.1986
60276SOL    HW292808   0.710  10.113   3.510 -1.0347 -0.4950 -0.4028
60277SOL     OW92809  11.901  12.329   9.474 -0.3157  0.4451  0.1298
60277SOL    HW192810  11.855  12.258   9.517 -1.1768 -0.4696 -2.1578
60277SOL    HW292811  11.962  12.286   9.414  0.2999  1.6509 -0.1551
60278SOL     OW92812  11.738  12.946   4.237  0.6779  0.5441 -0.1101
60278SOL    HW192813  11.733  12.929   4.143  1.6944  0.6351 -0.1893
60278SOL    HW292814  11.730  13.041   4.246 -0.2046  0.4688 -0.0373
60279SOL     OW92815   2.188  13.839   0.886 -0.1175 -0.6564  0.1830
60279SOL    HW192816   2.101  13.852   0.923 -0.0125 -0.6957  0.4478
60279SOL    HW292817   2.210  13.748   0.906  0.1523 -0.5288  0.4797
60280SOL     OW92818  12.303  13.013   1.238 -0.6255 -0.1297 -0.7221
60280SOL    HW192819  12.232  12.962   1.199  0.1946  0.0833 -2.5956
60280SOL    HW292820  12.377  13.000   1.179  0.4953  0.7917  0.4251
60281SOL     OW92821   0.785   7.859   3.444  0.3445  0.6162 -0.3060
60281SOL    HW192822   0.860   7.837   3.499  0.9251  1.3615 -0.7922
60281SOL    HW292823   0.776   7.954   3.452 -0.8523  0.4869  0.1289
60282SOL     OW92824  13.036   6.354  13.659 -0.1919  0.4467  0.4500
60282SOL    HW192825  13.030   6.299  13.737 -2.1699  0.1978  0.1770
60282SOL    HW292826  12.948   6.389  13.647  0.4530  1.7739 -0.7661
60283SOL     OW92827   5.231   6.699   8.344 -0.8461  0.2359  0.2715
60283SOL    HW192828   5.264   6.628   8.290 -0.4595 -1.3856  2.4801
60283SOL    HW292829   5.135   6.692   8.337 -0.8561 -1.4214  1.4739
60284SOL     OW92830   7.786  11.583   4.209  0.0404 -0.8260 -0.1962
60284SOL    HW192831   7.741  11.651   4.260  1.6178 -0.6106  0.9765
60284SOL    HW292832   7.722  11.558   4.142 -1.2594  0.5063  0.4723
60285SOL     OW92833   5.192  12.036  12.329 -0.3575  0.1344 -0.7111
60285SOL    HW192834   5.198  12.077  12.415 -2.0520 -1.4877  0.2741
60285SOL    HW292835   5.106  12.063  12.296 -1.4786 -2.3393 -0.0839
60286SOL     OW92836  13.484   4.922   1.350  0.0732 -0.1411 -0.4010
60286SOL    HW192837  13.426   4.940   1.424  1.0457  0.6663  0.1916
60286SOL    HW292838  13.424   4.901   1.278 -1.0909  2.5333 -0.3378
60287SOL     OW92839   3.628  11.433   4.776 -0.2388 -0.0077 -0.7412
60287SOL    HW192840   3.672  11.473   4.850  0.1221 -0.3048 -0.7895
60287SOL    HW292841   3.538  11.420   4.804 -0.1272 -0.0220 -0.3930
60288SOL     OW92842   6.044   8.087   0.506 -0.0891  0.7596  0.2330
60288SOL    HW192843   5.957   8.048   0.497  1.2695 -2.5465 -0.2888
60288SOL    HW292844   6.090   8.029   0.568  1.8493  2.1784  0.2333
60289SOL     OW92845  12.264   1.984   5.894  0.0698  0.0981 -0.1725
60289SOL    HW192846  12.225   2.052   5.949  0.8587 -0.5802  1.2884
60289SOL    HW292847  12.325   2.031   5.837  0.8101  0.6155  1.0040
60290SOL     OW92848   5.411   7.059   6.135 -0.4988  0.0254  1.1947
60290SOL    HW192849   5.394   7.093   6.223 -2.0076  1.5989  0.3771
60290SOL    HW292850   5.359   6.979   6.129 -2.5778  1.3145  0.9316
60291SOL     OW92851   2.735  12.416   7.618  0.0090 -0.5615  0.0502
60291SOL    HW192852   2.758  12.395   7.709 -0.7736  0.6783  0.5477
60291SOL    HW292853   2.739  12.331   7.573  3.7565 -0.7771  0.4237
60292SOL     OW92854   8.679  12.033  13.406 -0.0564  0.2400 -0.4034
60292SOL    HW192855   8.726  12.040  13.489  1.0565 -0.0309 -0.9955
60292SOL    HW292856   8.683  11.940  13.384  0.3799  0.4286 -1.1608
60293SOL     OW92857   8.118  12.891   4.417  0.5050 -0.3721 -0.0692
60293SOL    HW192858   8.163  12.964   4.460 -0.9769 -0.2251  1.3365
60293SOL    HW292859   8.084  12.928   4.336 -1.3548  0.9529  1.2238
60294SOL     OW92860   7.293   1.265   9.431 -0.3910  0.0270  0.2560
60294SOL    HW192861   7.339   1.350   9.433 -1.0542  0.4190 -0.6592
60294SOL    HW292862   7.255   1.257   9.518  0.7442  0.0614  0.7765
60295SOL     OW92863   9.250   4.063   0.968 -0.6290 -0.2402 -0.1391
60295SOL    HW192864   9.343   4.040   0.964 -0.3341  0.6468  1.1365
60295SOL    HW292865   9.216   4.038   0.882  0.6714 -1.0465 -0.4549
60296SOL     OW92866   6.511  11.858  11.763 -0.5057  0.3969  0.0737
60296SOL    HW192867   6.492  11.767  11.787  1.0235  0.0430  0.0459
60296SOL    HW292868   6.468  11.869  11.678 -0.4292 -0.4144 -0.0818
60297SOL     OW92869   4.461   0.200   2.192 -0.3019 -0.1241 -0.0978
60297SOL    HW192870   4.425   0.122   2.233 -0.4834  0.6912  1.3635
60297SOL    HW292871   4.445   0.270   2.255  1.2175  0.8179 -0.6935
60298SOL     OW92872   4.011   5.168  11.479 -0.1737 -0.1507  0.1986
60298SOL    HW192873   4.080   5.228  11.507  1.8950 -1.5949 -1.4678
60298SOL    HW292874   4.030   5.150  11.386 -0.9848 -2.9287  0.4591
60299SOL     OW92875   5.128   1.615  11.454  0.4428  0.0245 -0.2371
60299SOL    HW192876   5.220   1.590  11.452  0.4994  0.1895  0.1264
60299SOL    HW292877   5.097   1.602  11.365  1.2510  1.6038 -0.7810
60300SOL     OW92878   5.628  10.331   9.795  0.4798 -0.7078  0.2976
60300SOL    HW192879   5.602  10.322   9.887  2.2185  0.5368  0.9553
60300SOL    HW292880   5.548  10.314   9.746 -0.6062 -0.9144  2.0545
60301SOL     OW92881  12.091   5.023   5.918  0.6199  0.1392  0.4109
60301SOL    HW192882  12.033   5.077   5.864 -0.6169  0.0956  1.6520
60301SOL    HW292883  12.100   4.941   5.869  2.9215  1.5286 -1.7493
60302SOL     OW92884   0.797   3.072  13.926  0.2478  0.2227 -0.1918
60302SOL    HW192885   0.731   3.131  13.963 -1.7491 -1.9560 -0.0331
60302SOL    HW292886   0.861   3.060  13.996 -1.3528 -0.7031  1.1872
60303SOL     OW92887   0.185   0.188   7.526  0.6018  0.6652  0.3722
60303SOL    HW192888   0.197   0.093   7.528  1.8716  0.5107 -4.2093
60303SOL    HW292889   0.255   0.222   7.582  1.8075 -1.0940  0.0113
60304SOL     OW92890   0.941   5.181   0.993 -0.2398  0.0863  0.0031
60304SOL    HW192891   0.932   5.271   1.026  0.8775  0.6540 -1.1600
60304SOL    HW292892   0.930   5.126   1.071  0.6428  1.2937  1.0274
60305SOL     OW92893  14.000  12.664   7.083 -0.2594  0.6678 -0.4308
60305SOL    HW192894  14.008  12.626   6.995  1.0566  1.0211 -0.4913
60305SOL    HW292895  13.980  12.757   7.066  0.4517  0.8348 -0.3771
60306SOL     OW92896   3.237   9.124   8.204 -0.6978 -0.1934  0.5401
60306SOL    HW192897   3.332   9.128   8.198 -0.8225  0.5672 -1.6723
60306SOL    HW292898   3.213   9.201   8.256 -0.1497  0.1520  0.2881
60307SOL     OW92899   0.879  11.880  12.210 -0.2941  0.0756  0.4160
60307SOL    HW192900   0.908  11.803  12.258  0.3878 -1.8058 -2.7005
60307SOL    HW292901   0.924  11.874  12.125 -2.4275  2.3363 -1.0279
60308SOL     OW92902   7.363   8.237   0.630  0.1539  0.0539 -0.6515
60308SOL    HW192903   7.437   8.176   0.635 -0.4045 -0.6316 -0.6572
60308SOL    HW292904   7.312   8.219   0.709 -0.8128 -0.5463 -1.3789
60309SOL     OW92905  10.858   7.791   8.243  0.2061  0.7111 -0.0358
60309SOL    HW192906  10.943   7.776   8.285  0.4882 -0.6931 -1.0411
60309SOL    HW292907  10.876   7.851   8.171  0.7210 -0.9022 -1.3180
60310SOL     OW92908   5.817   2.001   4.502 -0.0487  0.2025  0.1973
60310SOL    HW192909   5.857   1.964   4.580 -0.9576 -0.5675  0.3140
60310SOL    HW292910   5.768   1.929   4.463 -0.4812  0.8528 -0.4974
60311SOL     OW92911   4.524   8.826   0.473  0.0446 -0.9634  0.2015
60311SOL    HW192912   4.529   8.905   0.419 -0.1663 -2.1605 -1.6461
60311SOL    HW292913   4.613   8.791   0.471 -0.6137 -2.7158 -2.1302
60312SOL     OW92914   3.883  12.673   1.384  0.2905  0.0220  0.2859
60312SOL    HW192915   3.851  12.702   1.298 -1.5109 -0.9091  0.5899
60312SOL    HW292916   3.808  12.686   1.443  1.8241  1.6648  1.9974
60313SOL     OW92917  10.649  10.906  10.802  0.6611  0.3787  0.6700
60313SOL    HW192918  10.669  10.964  10.876  0.7484  0.0851  0.8852
60313SOL    HW292919  10.716  10.838  10.808  0.5847  0.2788  0.3997
60314SOL     OW92920   7.690   8.296   0.369 -0.1042  0.6697  0.5867
60314SOL    HW192921   7.641   8.251   0.438 -1.9635  2.7959  0.7922
60314SOL    HW292922   7.667   8.389   0.380  1.0421  1.3147 -1.7240
60315SOL     OW92923   2.718   4.934   3.096 -0.1256 -0.4561 -0.0902
60315SOL    HW192924   2.754   4.923   3.184 -1.3895  1.5666  0.7525
60315SOL    HW292925   2.636   4.885   3.098 -0.9322  0.8405  0.4432
60316SOL     OW92926   1.119   8.767  13.071 -0.0302 -0.0564  0.2110
60316SOL    HW192927   1.188   8.777  13.006 -0.1299  1.1060  0.2665
60316SOL    HW292928   1.159   8.714  13.141 -0.4110 -2.7556 -1.4492
60317SOL     OW92929  10.204  12.756  10.778 -0.2035  0.4840 -0.3255
60317SOL    HW192930  10.185  12.742  10.685  1.7368 -1.8274 -0.4633
60317SOL    HW292931  10.131  12.715  10.824 -1.1367  1.5775 -0.7928
60318SOL     OW92932   4.182   4.432   2.747  0.0171 -0.7183 -0.0992
60318SOL    HW192933   4.160   4.521   2.774 -0.9933 -0.8968 -0.2712
60318SOL    HW292934   4.255   4.407   2.804 -0.8855 -0.4335  1.2544
60319SOL     OW92935   1.714  11.309   0.491  0.2300  0.4676 -0.3507
60319SOL    HW192936   1.782  11.250   0.458 -0.3496  0.6366 -1.9542
60319SOL    HW292937   1.724  11.307   0.586  1.6865 -0.4420 -0.4932
60320SOL     OW92938   1.392   2.371   5.232  0.7160  0.5721  0.1934
60320SOL    HW192939   1.339   2.292   5.241 -0.2636  1.3206  1.3892
60320SOL    HW292940   1.446   2.372   5.311  3.2413 -0.6350 -1.4083
60321SOL     OW92941   4.455   3.950   1.770  0.2091 -0.0383  0.2570
60321SOL    HW192942   4.463   3.856   1.757  0.5683 -0.0207  0.3472
60321SOL    HW292943   4.517   3.989   1.708 -1.5444  0.2429 -1.4251
60322SOL     OW92944  12.532   6.184   8.461  0.2843 -0.1116 -0.0516
60322SOL    HW192945  12.541   6.093   8.431 -1.1430 -0.2120 -0.2719
60322SOL    HW292946  12.479   6.226   8.393 -0.7858  0.3434  1.0123
60323SOL     OW92947  10.442   9.314   0.688  0.0300  0.0847  0.5048
60323SOL    HW192948  10.376   9.381   0.669 -0.9480 -0.6445  1.2544
60323SOL    HW292949  10.404   9.261   0.758  0.6987 -1.3881 -0.2028
60324SOL     OW92950  10.739   7.121   5.124  0.5930  0.0337 -0.3285
60324SOL    HW192951  10.743   7.047   5.063 -0.4312  1.0356 -1.6603
60324SOL    HW292952  10.827   7.158   5.124  0.7238 -0.2660 -0.8176
60325SOL     OW92953   8.167   7.040   5.691  0.0934  0.0645 -0.1080
60325SOL    HW192954   8.080   7.064   5.658  0.6447  1.4607 -0.6046
60325SOL    HW292955   8.197   7.117   5.737  0.9758 -0.5054  0.2904
60326SOL     OW92956   0.391  12.135   7.074 -0.2132 -0.0320 -0.8154
60326SOL    HW192957   0.336  12.107   7.001 -1.2092  1.5394 -0.7150
60326SOL    HW292958   0.354  12.219   7.101  0.9966  0.0858  0.6004
60327SOL     OW92959  12.510  13.455   5.961  0.0192 -0.5137 -0.5852
60327SOL    HW192960  12.502  13.481   6.053  1.3616 -1.2957 -0.2276
60327SOL    HW292961  12.480  13.531   5.912 -2.8683 -0.8289  0.4839
60328SOL     OW92962   2.728   4.044   7.327 -0.2073 -0.2930 -0.4087
60328SOL    HW192963   2.816   4.082   7.327  0.0270 -0.6875  1.7325
60328SOL    HW292964   2.740   3.959   7.283  0.6694 -0.6428  0.4447
60329SOL     OW92965  10.436   2.765   4.024 -0.1599  0.5701  0.0546
60329SOL    HW192966  10.342   2.760   4.005  0.0254  1.3385 -1.2297
60329SOL    HW292967  10.451   2.697   4.089 -1.1567 -1.3306 -1.5918
60330SOL     OW92968   1.260   1.907   3.418  0.3043  0.3887  0.0793
60330SOL    HW192969   1.169   1.916   3.390  0.4521  1.6384 -0.0444
60330SOL    HW292970   1.272   1.812   3.431 -0.3877 -0.0321 -2.0043
60331SOL     OW92971   0.570  11.903  12.103 -0.5435 -0.0428 -0.2038
60331SOL    HW192972   0.533  11.874  12.187  0.4384 -1.3073 -0.1748
60331SOL    HW292973   0.660  11.927  12.124  1.1487 -4.3181 -1.4609
60332SOL     OW92974  10.891   7.155  11.551  0.0670 -0.0502 -0.3131
60332SOL    HW192975  10.907   7.061  11.541  2.1295  0.2867 -0.6686
60332SOL    HW292976  10.889   7.169  11.646 -1.6226 -0.6171 -0.2330
60333SOL     OW92977   4.429   6.793   6.206  0.0839  0.5131 -0.1948
60333SOL    HW192978   4.487   6.725   6.173  0.3564  0.0515  1.1601
60333SOL    HW292979   4.447   6.869   6.151  0.1902 -0.3266 -1.3563
60334SOL     OW92980   5.172   4.169   1.299 -0.1133 -0.2383  0.0508
60334SOL    HW192981   5.190   4.220   1.378 -0.6399  1.7876 -1.0543
60334SOL    HW292982   5.094   4.118   1.321 -3.7479  4.3674 -0.6805
60335SOL     OW92983  11.737   5.549   1.348 -0.5111 -0.0628  0.0530
60335SOL    HW192984  11.722   5.623   1.289 -0.4658  1.2603  1.6259
60335SOL    HW292985  11.811   5.502   1.309  0.4142  1.5641 -0.2295
60336SOL     OW92986   6.704   8.116   6.494 -0.4845 -0.4127 -0.2086
60336SOL    HW192987   6.621   8.136   6.537 -0.3122  0.0348 -0.0767
60336SOL    HW292988   6.764   8.094   6.566 -0.0531  0.8427 -0.1642
60337SOL     OW92989   2.077  12.240  12.636 -0.0310  0.2209  0.5475
60337SOL    HW192990   2.091  12.147  12.657  1.0029  0.2787  0.1729
60337SOL    HW292991   2.023  12.239  12.557  0.8154 -0.0976 -0.0505
60338SOL     OW92992   8.614   2.004   2.926 -0.1539  0.5764  0.2604
60338SOL    HW192993   8.692   2.041   2.886  0.7081 -0.8133  0.5841
60338SOL    HW292994   8.554   1.990   2.853  1.3617 -1.8444 -0.6415
60339SOL     OW92995   9.626  13.501   2.776  0.2955  0.3395  0.1392
60339SOL    HW192996   9.710  13.477   2.815  0.9264 -0.9606 -1.8536
60339SOL    HW292997   9.561  13.478   2.842  1.2102 -2.9351  0.0533
60340SOL     OW92998   6.711   4.301   2.929  0.4393  0.0277 -0.3907
60340SOL    HW192999   6.644   4.233   2.928 -0.0733  0.5335 -0.4393
60340SOL    HW293000   6.779   4.268   2.870 -0.5530  0.3018 -1.7258
60341SOL     OW93001  10.472   6.172  13.113  0.0896 -0.8728  0.4455
60341SOL    HW193002  10.514   6.126  13.040  0.7452  0.7734 -0.2559
60341SOL    HW293003  10.537   6.170  13.183 -0.2334 -1.7652  0.7351
60342SOL     OW93004   2.352  10.744   6.379 -1.0124 -0.4475  0.5044
60342SOL    HW193005   2.336  10.738   6.473 -2.4390  0.0448  0.3196
60342SOL    HW293006   2.404  10.666   6.359 -1.4152 -1.0143  1.5630
60343SOL     OW93007   8.601  11.395   4.974 -0.5937 -0.0400 -0.7965
60343SOL    HW193008   8.637  11.479   4.945  0.2320 -0.2126 -0.3042
60343SOL    HW293009   8.526  11.419   5.027  0.0423  0.4358 -0.0885
60344SOL     OW93010   0.195  11.793  12.684 -0.1106 -0.5532  0.4842
60344SOL    HW193011   0.219  11.835  12.767  0.6695  1.7108 -0.8151
60344SOL    HW293012   0.255  11.719  12.677  0.6451 -0.0488  1.3683
60345SOL     OW93013  11.226   0.326   9.869 -0.4617 -0.4601 -0.3779
60345SOL    HW193014  11.268   0.327   9.955 -0.9419  0.7727 -0.1432
60345SOL    HW293015  11.272   0.257   9.821 -0.3353 -1.3100  0.9304
60346SOL     OW93016   8.435   4.154   1.794  0.0528 -0.6791  0.3235
60346SOL    HW193017   8.469   4.091   1.730 -1.4018 -0.8522 -0.3228
60346SOL    HW293018   8.511   4.208   1.817  0.4137  0.1099 -2.3776
60347SOL     OW93019  11.670  11.348   7.779 -0.1579 -0.5017 -0.4281
60347SOL    HW193020  11.731  11.404   7.731 -0.7916  0.0593 -0.5871
60347SOL    HW293021  11.659  11.271   7.723 -1.2912  0.3665 -1.4650
60348SOL     OW93022   7.508   4.650   3.454  0.9172 -0.0464 -0.1908
60348SOL    HW193023   7.585   4.599   3.430  0.8073  0.3978 -1.6052
60348SOL    HW293024   7.436   4.607   3.408  0.6806  0.8208 -0.6516
60349SOL     OW93025   8.513   3.811   2.981 -0.0279 -0.3062 -0.2647
60349SOL    HW193026   8.447   3.781   3.044 -1.2519 -0.4792 -1.5910
60349SOL    HW293027   8.582   3.849   3.036 -0.5641 -1.3855  1.2304
60350SOL     OW93028  13.829   6.743  10.176 -0.5674  0.0834 -0.2699
60350SOL    HW193029  13.861   6.830  10.200 -0.4309 -0.4492  1.5913
60350SOL    HW293030  13.738   6.742  10.208 -0.6204 -0.4086 -0.4400
60351SOL     OW93031   4.923   1.537   6.218 -0.2401 -0.3847 -0.3479
60351SOL    HW193032   4.926   1.618   6.269 -1.4215 -0.5805  0.0694
60351SOL    HW293033   4.829   1.522   6.202 -0.0148 -1.4402 -0.7684
60352SOL     OW93034   0.386   0.630   3.123  0.0584  0.3777  0.4607
60352SOL    HW193035   0.340   0.677   3.054  1.0630 -1.3829 -1.5340
60352SOL    HW293036   0.381   0.687   3.200 -2.2651  1.8159 -0.6731
60353SOL     OW93037  10.751   8.218   7.511 -0.6456  0.2823 -0.5104
60353SOL    HW193038  10.807   8.228   7.588  1.1334  0.3314 -1.7602
60353SOL    HW293039  10.767   8.128   7.481 -2.9331 -0.4892  0.3203
60354SOL     OW93040   6.976   6.599   1.921  0.3203  0.0704  0.6342
60354SOL    HW193041   7.023   6.611   2.004 -1.2113  0.1524  1.5364
60354SOL    HW293042   6.886   6.629   1.940 -0.0163  0.2840 -1.1223
60355SOL     OW93043  13.489   7.313   8.373  0.2225  0.5917 -0.0482
60355SOL    HW193044  13.517   7.238   8.424  0.5980  0.6507 -0.1662
60355SOL    HW293045  13.568   7.366   8.362  0.1101  0.6653 -0.5377
60356SOL     OW93046  10.244   4.681   7.104  0.2116 -0.0522 -0.6400
60356SOL    HW193047  10.250   4.626   7.182  3.5785  1.2125  0.2026
60356SOL    HW293048  10.245   4.619   7.031  2.8658 -1.2513  0.2840
60357SOL     OW93049   2.667   5.439   7.999 -0.6528  0.9460  0.1678
60357SOL    HW193050   2.572   5.432   8.006 -0.5956 -1.0537 -0.4748
60357SOL    HW293051   2.683   5.479   7.913 -0.9340 -2.7720 -1.7970
60358SOL     OW93052   1.651   9.847   0.314 -0.1955  0.3042  0.0102
60358SOL    HW193053   1.568   9.812   0.281  0.3100  1.3069 -2.4986
60358SOL    HW293054   1.715   9.779   0.295  0.0518  0.7719 -0.8609
60359SOL     OW93055   8.196   2.046   5.834 -0.3161 -0.3219 -0.2008
60359SOL    HW193056   8.276   2.075   5.878  2.0319 -3.0400 -2.2826
60359SOL    HW293057   8.169   1.968   5.882 -0.5492 -0.5432 -0.6815
60360SOL     OW93058  10.303   0.014   6.387 -0.2226 -0.0447  0.4223
60360SOL    HW193059  10.310   0.098   6.341  0.1795  1.3464  2.8464
60360SOL    HW293060  10.394  -0.009   6.407 -0.4572  1.2373  3.4849
60361SOL     OW93061  10.200  13.761   1.737 -0.4050 -0.0532  0.1016
60361SOL    HW193062  10.163  13.766   1.648 -0.8388  1.4846  0.3420
60361SOL    HW293063  10.176  13.844   1.778  0.0872 -0.5948  1.5583
60362SOL     OW93064   0.142  11.826   7.526  0.7969 -0.6925  0.3821
60362SOL    HW193065   0.144  11.876   7.608 -2.0572 -1.7989  1.2640
60362SOL    HW293066   0.211  11.761   7.535  2.4292  0.9910  0.5948
60363SOL     OW93067   3.237   3.313   2.496  0.0747  0.3309 -1.0235
60363SOL    HW193068   3.174   3.343   2.430 -2.9917 -0.9804  1.0545
60363SOL    HW293069   3.193   3.241   2.540  2.8918 -0.3318  1.0021
60364SOL     OW93070  10.538   2.926   5.482 -0.8858  0.3246 -0.0166
60364SOL    HW193071  10.631   2.924   5.459 -0.8750 -0.4355  0.0338
60364SOL    HW293072  10.538   2.919   5.578 -0.9788  1.1609  0.0477
60365SOL     OW93073  12.106   4.816   8.039  0.2791 -0.1030 -0.6837
60365SOL    HW193074  12.143   4.894   8.080  0.7745 -0.0894 -1.1439
60365SOL    HW293075  12.085   4.758   8.112  1.5235 -0.2441 -0.4145
60366SOL     OW93076  13.498   0.806   9.465 -0.0590 -0.3581  0.1279
60366SOL    HW193077  13.574   0.854   9.497  0.0304 -0.1768 -0.3405
60366SOL    HW293078  13.433   0.874   9.447  0.0908 -0.4000 -0.6014
60367SOL     OW93079   2.572   3.861  13.098 -0.1014  0.1535  0.1754
60367SOL    HW193080   2.576   3.916  13.020 -2.2277 -0.3530 -0.3459
60367SOL    HW293081   2.618   3.912  13.165 -0.4044  1.7321 -0.7674
60368SOL     OW93082   9.739   1.198   8.610 -0.1792  0.5245  0.0306
60368SOL    HW193083   9.645   1.196   8.591  0.1634  0.5346 -1.8730
60368SOL    HW293084   9.747   1.257   8.684 -1.7455 -0.1475  0.8000
60369SOL     OW93085  13.681   3.361   3.443 -0.2006  0.0378 -0.4959
60369SOL    HW193086  13.683   3.269   3.416 -0.4495  0.1757 -0.9756
60369SOL    HW293087  13.741   3.405   3.383  0.8097  0.0048  0.4436
60370SOL     OW93088   1.619  12.950  12.273  0.1357  0.7618  0.4051
60370SOL    HW193089   1.543  13.006  12.284 -0.2134  0.0049  2.1163
60370SOL    HW293090   1.694  13.009  12.280 -0.2522  1.4359 -0.7982
60371SOL     OW93091   4.312   6.400  12.949  0.5739  0.3214  0.4046
60371SOL    HW193092   4.277   6.328  12.896  0.0199  1.5123 -0.9096
60371SOL    HW293093   4.405   6.405  12.925  0.2060  1.2163 -0.9348
60372SOL     OW93094   6.238   3.639  13.601  0.2465  0.1587  0.1099
60372SOL    HW193095   6.177   3.706  13.634 -0.4269 -0.0297 -0.7275
60372SOL    HW293096   6.188   3.558  13.605  0.6151 -0.0776 -0.1282
60373SOL     OW93097  11.622  10.411   0.033  0.3234  0.4845 -0.4446
60373SOL    HW193098  11.685  10.445  -0.031 -0.4861 -0.5284 -1.8527
60373SOL    HW293099  11.557  10.480   0.042 -0.1041  0.2500 -1.5423
60374SOL     OW93100  13.671   6.551   0.574 -0.3480 -0.0463  0.3334
60374SOL    HW193101  13.631   6.630   0.536 -3.3857 -0.2220  2.7720
60374SOL    HW293102  13.673   6.488   0.502 -1.0173  1.2029 -0.8171
60375SOL     OW93103   9.428   7.564   4.093  0.5521  0.0455  0.1252
60375SOL    HW193104   9.450   7.531   4.180 -2.0523  0.0338  0.8727
60375SOL    HW293105   9.458   7.496   4.032  0.2564 -1.0809  1.2127
60376SOL     OW93106  10.890   7.661   2.099 -0.0800 -0.2263  0.3129
60376SOL    HW193107  10.918   7.623   2.015 -1.1024  0.1501 -0.2158
60376SOL    HW293108  10.840   7.739   2.075 -0.0162  0.1293  1.2962
60377SOL     OW93109   9.764   1.355   8.835 -0.2203  0.1335  0.3326
60377SOL    HW193110   9.736   1.443   8.858 -0.4850  0.2168 -0.3073
60377SOL    HW293111   9.731   1.300   8.906 -1.3044  0.3426 -0.0004
60378SOL     OW93112   6.730  10.536   3.140  0.3854 -0.3968  0.4367
60378SOL    HW193113   6.746  10.615   3.089  0.0745 -0.4505  0.2564
60378SOL    HW293114   6.669  10.564   3.209  0.0403 -0.5426  0.1956
60379SOL     OW93115   1.650  12.518   2.287  0.6017 -0.4359  0.3610
60379SOL    HW193116   1.637  12.478   2.201 -0.1756  1.7792 -0.6116
60379SOL    HW293117   1.731  12.567   2.279 -0.4445  1.3753  0.1740
60380SOL     OW93118   0.294   2.303   2.250 -0.1300 -0.5086 -0.0098
60380SOL    HW193119   0.216   2.342   2.289 -0.1021 -0.5611  0.0992
60380SOL    HW293120   0.366   2.359   2.279  0.0565 -1.2749  1.0899
60381SOL     OW93121   0.545   0.342   5.838 -0.1014  0.0806 -0.4734
60381SOL    HW193122   0.596   0.296   5.905 -1.1968  0.5996  0.7511
60381SOL    HW293123   0.599   0.418   5.814 -0.5820  1.0507  1.3590
60382SOL     OW93124  13.054   9.285   2.129  0.3683  0.1257  0.6809
60382SOL    HW193125  13.100   9.364   2.103 -1.0992  0.3999 -1.2872
60382SOL    HW293126  13.063   9.282   2.224  2.7233  1.1781  0.5569
60383SOL     OW93127   5.821   3.188   3.700 -0.1463  0.0244  0.2975
60383SOL    HW193128   5.744   3.233   3.736 -0.0544 -0.3661  1.0094
60383SOL    HW293129   5.785   3.131   3.632 -0.5732 -0.5726  1.0063
60384SOL     OW93130   6.466  13.338  13.840  0.7724 -0.3256  0.2842
60384SOL    HW193131   6.415  13.341  13.759  1.3960 -1.0407 -0.1440
60384SOL    HW293132   6.416  13.280  13.897  2.1048 -2.7360 -0.8729
60385SOL     OW93133   9.508   9.999   5.030 -0.0905  0.5491 -0.1611
60385SOL    HW193134   9.467   9.960   4.952  1.5508 -1.0854 -0.2646
60385SOL    HW293135   9.487   9.938   5.101  0.2524  0.9040  0.2478
60386SOL     OW93136   0.991   0.274  12.027 -0.0202  0.5322  0.3085
60386SOL    HW193137   1.008   0.363  12.060  2.1716  0.9132 -1.6198
60386SOL    HW293138   0.990   0.284  11.932 -1.5072 -1.2734  0.0869
60387SOL     OW93139   9.045  14.037  10.439 -0.4499 -0.0711  0.6484
60387SOL    HW193140   9.127  13.997  10.469 -0.3390  0.0650  0.5298
60387SOL    HW293141   9.070  14.126  10.413 -0.3398 -0.4826 -0.7714
60388SOL     OW93142   4.100   1.077  10.590 -0.4955  0.0219  0.2862
60388SOL    HW193143   4.016   1.116  10.564 -1.0654 -1.4399 -0.1336
60388SOL    HW293144   4.156   1.090  10.514 -0.8774 -0.5428 -0.0949
60389SOL     OW93145   5.885   7.304   3.014  0.0217 -0.3240 -0.0582
60389SOL    HW193146   5.815   7.346   3.064  3.0078  1.3275  3.2128
60389SOL    HW293147   5.915   7.232   3.070  1.6530 -0.2417 -0.7669
60390SOL     OW93148   8.789  13.072   3.781  0.1244 -0.2286 -0.0990
60390SOL    HW193149   8.841  13.020   3.842 -0.0594  0.5836  0.7661
60390SOL    HW293150   8.705  13.084   3.825  0.2389  0.9733 -0.1800
60391SOL     OW93151   1.202   7.251  11.735 -0.3073  0.7463  0.1001
60391SOL    HW193152   1.154   7.216  11.659  1.5491 -0.6038 -0.5446
60391SOL    HW293153   1.158   7.213  11.811  0.2624 -1.2742 -0.5082
60392SOL     OW93154   8.223   7.382  11.589  0.2107  0.4797  0.0306
60392SOL    HW193155   8.291   7.399  11.655 -0.5201  0.3251  0.8314
60392SOL    HW293156   8.186   7.468  11.570 -0.1686  0.4205  0.4767
60393SOL     OW93157   1.087   3.732   2.408  0.1220  0.9565 -0.7203
60393SOL    HW193158   1.085   3.819   2.368 -2.4302  1.7184  0.9001
60393SOL    HW293159   1.138   3.744   2.488 -0.1788  0.9278 -0.5272
60394SOL     OW93160  11.721   9.224   3.348 -0.4232  0.1085 -0.2960
60394SOL    HW193161  11.702   9.143   3.396  1.1239 -0.1276 -0.0260
60394SOL    HW293162  11.793   9.200   3.290  1.2396  1.7002  0.9980
60395SOL     OW93163   9.627  13.578   6.348  0.9698 -0.5498  0.1597
60395SOL    HW193164   9.603  13.637   6.418  1.5888  1.3524 -1.1502
60395SOL    HW293165   9.582  13.496   6.368 -3.1237  1.4557  0.0626
60396SOL     OW93166   0.416   3.669  13.522  0.1652  0.1532 -0.1624
60396SOL    HW193167   0.326   3.664  13.490  0.2745  2.0936 -0.9314
60396SOL    HW293168   0.407   3.698  13.613  0.0118  2.4772 -0.8635
60397SOL     OW93169  11.124   5.590  12.850  0.8140  0.5951 -0.5080
60397SOL    HW193170  11.155   5.602  12.940 -0.2498  3.0844 -0.3729
60397SOL    HW293171  11.038   5.550  12.859  1.2679 -0.4078 -0.5211
60398SOL     OW93172   8.267   9.119   6.244 -0.1260  0.0214 -0.0353
60398SOL    HW193173   8.256   9.030   6.210 -0.7886  0.7210 -1.7570
60398SOL    HW293174   8.257   9.109   6.339  1.4494 -1.9728  0.0063
60399SOL     OW93175   2.116   5.608   9.559 -0.2140  0.3304  0.1675
60399SOL    HW193176   2.111   5.681   9.497 -1.1816  0.1544  0.0266
60399SOL    HW293177   2.150   5.647   9.640  0.2260  0.7306 -0.2023
60400SOL     OW93178   4.796   2.205  12.031 -0.3528  0.6245 -0.3671
60400SOL    HW193179   4.737   2.188  11.958 -1.0515  0.7736  0.1507
60400SOL    HW293180   4.876   2.156  12.009 -0.7765  0.1652 -0.9320
60401SOL     OW93181   7.730  12.535  12.270  0.4043 -0.0363 -0.0785
60401SOL    HW193182   7.795  12.605  12.281  0.3413  0.3160 -1.7299
60401SOL    HW293183   7.659  12.576  12.220 -0.1574 -0.9792 -0.0680
60402SOL     OW93184   4.185  10.210   7.942  0.7021  0.1631 -0.5486
60402SOL    HW193185   4.134  10.276   7.895  1.4405 -0.0350 -1.6664
60402SOL    HW293186   4.231  10.162   7.873 -0.7419 -2.3535  0.1011
60403SOL     OW93187   4.272   5.269   1.530  0.0984  0.4484  0.3540
60403SOL    HW193188   4.204   5.203   1.546  0.1654  0.0095 -1.0517
60403SOL    HW293189   4.354   5.220   1.538  0.1266  0.0246 -1.8833
60404SOL     OW93190  13.848  11.083   6.020 -0.3315 -0.5571  0.0635
60404SOL    HW193191  13.877  11.036   6.098 -0.6027  2.3509  2.0965
60404SOL    HW293192  13.928  11.114   5.979 -0.2266 -0.7934  0.0908
60405SOL     OW93193  12.001   4.491   1.089 -0.3628 -0.3445  0.0727
60405SOL    HW193194  11.970   4.494   0.998 -2.1449 -1.2352  0.5981
60405SOL    HW293195  12.071   4.426   1.088  0.8195  0.8798 -0.9493
60406SOL     OW93196   4.455  12.354  11.609  0.6376 -0.3339 -0.3248
60406SOL    HW193197   4.499  12.298  11.546  1.3776  1.7095 -1.7433
60406SOL    HW293198   4.463  12.442  11.573 -2.1582  0.4987  0.7886
60407SOL     OW93199  13.130   3.659   1.819  0.4345  0.4408  0.1351
60407SOL    HW193200  13.088   3.666   1.733 -1.1014  0.4136  0.8480
60407SOL    HW293201  13.057   3.647   1.880  1.4840  0.6405  1.4671
60408SOL     OW93202   0.256   5.357   2.952 -0.5656 -0.0522  0.3344
60408SOL    HW193203   0.230   5.417   2.882 -1.1081 -2.5163 -1.7464
60408SOL    HW293204   0.351   5.363   2.956 -0.6306  1.1911  0.4755
60409SOL     OW93205   7.811   4.807   3.617 -0.9244 -0.0119 -0.2679
60409SOL    HW193206   7.791   4.716   3.598 -0.7071 -0.2029  0.3642
60409SOL    HW293207   7.907   4.809   3.625 -1.0268 -0.0573  1.2409
60410SOL     OW93208   2.767  12.303   0.254  0.5748 -0.1543 -0.7568
60410SOL    HW193209   2.742  12.276   0.166  1.2704  0.2363 -1.0817
60410SOL    HW293210   2.689  12.285   0.307 -0.4448  1.0945 -1.7539
60411SOL     OW93211   6.843   1.397   3.945 -0.2078  0.1907  0.4223
60411SOL    HW193212   6.934   1.378   3.921  0.1520  1.3317  0.8129
60411SOL    HW293213   6.850   1.459   4.018 -1.2972 -0.5705  1.2003
60412SOL     OW93214  13.829  10.547   2.960  0.2815 -0.1401  0.1284
60412SOL    HW193215  13.759  10.560   3.023 -1.3721  0.7751 -1.7799
60412SOL    HW293216  13.893  10.615   2.981  1.0135 -1.3754  2.2829
60413SOL     OW93217   1.982   1.621   6.993 -0.0910  0.1397  0.5340
60413SOL    HW193218   2.070   1.583   6.993 -0.3344 -0.4706  1.6930
60413SOL    HW293219   1.989   1.697   6.936  0.7663 -0.8430 -0.7531
60414SOL     OW93220   7.548   9.126  12.868 -0.0375 -0.2275 -0.7690
60414SOL    HW193221   7.642   9.109  12.878 -0.6498 -2.5905  2.1367
60414SOL    HW293222   7.543   9.222  12.860  2.5763  0.0070 -0.7312
60415SOL     OW93223  12.681  12.825   2.520  0.0375 -0.1960  0.0380
60415SOL    HW193224  12.679  12.884   2.595  1.5810  0.2268 -0.2220
60415SOL    HW293225  12.765  12.781   2.526 -0.2931 -0.9911 -0.8302
60416SOL     OW93226   3.369   1.311  12.467  0.3639  0.1462 -0.4378
60416SOL    HW193227   3.453   1.267  12.456  0.9389  1.0889  0.1012
60416SOL    HW293228   3.353   1.356  12.384  0.0439 -0.5907 -0.7877
60417SOL     OW93229   3.262  13.078  12.906  0.4245  0.3776  0.2406
60417SOL    HW193230   3.251  13.029  12.825  0.9787  0.7008 -0.0396
60417SOL    HW293231   3.355  13.102  12.907  0.4267  0.3596  0.9797
60418SOL     OW93232   1.972   8.665   2.299 -0.3113 -1.2601 -0.0774
60418SOL    HW193233   1.951   8.684   2.208  0.7449 -1.3993 -0.3562
60418SOL    HW293234   2.061   8.699   2.311  0.0890 -2.4773  0.5113
60419SOL     OW93235   2.471   6.273  10.702  0.3833  0.0460  0.1432
60419SOL    HW193236   2.481   6.213  10.629  1.3181  0.6331 -0.2283
60419SOL    HW293237   2.527   6.238  10.771 -0.3932 -0.4325  0.5493
60420SOL     OW93238   2.357   4.340   9.755 -0.1889  0.4196  0.6362
60420SOL    HW193239   2.284   4.334   9.693 -0.3788 -0.7390  0.9568
60420SOL    HW293240   2.384   4.432   9.750 -0.6936  0.5304 -0.5956
60421SOL     OW93241  11.134   3.471   9.648 -0.3576  0.5541 -0.7051
60421SOL    HW193242  11.070   3.400   9.649 -0.0784  0.2813  1.4418
60421SOL    HW293243  11.156   3.482   9.556 -0.9068 -1.6702 -1.1467
60422SOL     OW93244   8.234   2.999   1.105 -0.0051 -0.0657  0.1060
60422SOL    HW193245   8.252   3.042   1.188  1.2512  0.0142 -0.1835
60422SOL    HW293246   8.199   2.913   1.129  0.2609 -0.0095  0.7048
60423SOL     OW93247  13.389   5.833  12.325  0.3456 -0.2388  0.3836
60423SOL    HW193248  13.336   5.757  12.303 -1.2227  1.0949 -0.6522
60423SOL    HW293249  13.444   5.847  12.247  0.3764 -0.0918  0.4315
60424SOL     OW93250  13.881   0.627   1.807 -0.1853 -0.2343  0.4287
60424SOL    HW193251  13.829   0.657   1.881 -1.5637  0.2445 -0.6796
60424SOL    HW293252  13.864   0.533   1.801 -0.3581 -0.2061  0.4898
60425SOL     OW93253   2.873   4.001   8.143 -0.2711  0.1077  0.0097
60425SOL    HW193254   2.962   4.002   8.177 -0.0398  0.6915 -0.5912
60425SOL    HW293255   2.818   3.983   8.219  0.4114 -1.1098  0.2451
60426SOL     OW93256   3.731   9.135   9.097 -0.2082  0.0747 -0.3933
60426SOL    HW193257   3.707   9.198   9.165 -3.6360 -0.5960 -0.8083
60426SOL    HW293258   3.685   9.055   9.122  0.6582 -0.9945 -2.0796
60427SOL     OW93259   4.679  11.556   3.318  0.2655 -0.5370  0.3701
60427SOL    HW193260   4.665  11.464   3.297  2.6363 -1.1765  1.2244
60427SOL    HW293261   4.686  11.559   3.413 -0.8664  0.7378  0.4433
60428SOL     OW93262  12.364   9.873   5.596 -0.6809  1.0000 -0.8248
60428SOL    HW193263  12.293   9.893   5.657 -1.3448 -0.2314 -1.1517
60428SOL    HW293264  12.441   9.914   5.634 -1.3787  1.5179  0.0629
60429SOL     OW93265  10.658   7.207   0.661  0.0515  0.0074  0.3067
60429SOL    HW193266  10.701   7.268   0.602  1.2889 -0.9560  0.1583
60429SOL    HW293267  10.638   7.131   0.607 -1.5943  0.3090  0.4506
60430SOL     OW93268  10.317  11.082  12.788  0.4021 -0.1576 -0.6044
60430SOL    HW193269  10.276  11.117  12.709 -0.1753 -0.7794 -0.5824
60430SOL    HW293270  10.406  11.117  12.785 -0.1414  1.2819 -0.5910
60431SOL     OW93271   0.307   4.457   0.668  0.0532 -0.4207 -0.8559
60431SOL    HW193272   0.336   4.527   0.610  0.3077  1.4263  1.3422
60431SOL    HW293273   0.383   4.398   0.674  1.6542  1.6650  0.8774
60432SOL     OW93274  13.538   6.506   1.010 -0.4550  0.2013  0.0281
60432SOL    HW193275  13.459   6.554   1.036  0.2967  1.5387 -0.0881
60432SOL    HW293276  13.539   6.429   1.067 -2.0450 -0.0671 -0.2425
60433SOL     OW93277   7.883  12.093   0.127 -0.4813 -0.3930  0.1445
60433SOL    HW193278   7.917  12.132   0.047 -1.3998 -0.7014 -0.4196
60433SOL    HW293279   7.844  12.010   0.098 -0.3722 -0.7504  0.9920
60434SOL     OW93280   1.046   2.885   1.767 -0.3827 -0.5033 -0.2990
60434SOL    HW193281   1.007   2.972   1.757  0.7372 -0.0559 -1.0389
60434SOL    HW293282   1.068   2.859   1.678 -0.4825 -1.4472 -0.0508
60435SOL     OW93283   6.931   4.456   2.930  0.1193  0.2260  0.5286
60435SOL    HW193284   6.838   4.437   2.937 -0.0336  1.0649  0.8814
60435SOL    HW293285   6.936   4.544   2.892  0.7192  0.7437  1.7423
60436SOL     OW93286   1.994   3.921   0.944  0.1168  0.0632  0.2732
60436SOL    HW193287   2.053   3.997   0.951 -0.3341  0.3670  0.9367
60436SOL    HW293288   1.965   3.921   0.853  0.3528  0.5144  0.1935
60437SOL     OW93289   2.923   1.780   7.763  0.1993 -0.0124 -0.2010
60437SOL    HW193290   3.017   1.770   7.781  0.3115 -0.1270 -0.8119
60437SOL    HW293291   2.905   1.872   7.783 -0.0167 -0.4504  1.8529
60438SOL     OW93292   5.032   8.216  12.545  0.4019  0.0573  0.2658
60438SOL    HW193293   5.061   8.305  12.523 -0.9175  0.7025  1.0156
60438SOL    HW293294   4.963   8.197  12.481  0.4415 -0.2934  0.3284
60439SOL     OW93295  12.308   0.018  13.105 -0.0557  0.0281  0.4705
60439SOL    HW193296  12.261  -0.055  13.066 -0.5090  0.3431  0.4138
60439SOL    HW293297  12.289   0.012  13.199 -3.6704  2.4759  0.1127
60440SOL     OW93298  11.262   0.210  11.980 -0.3347  0.4245 -0.1212
60440SOL    HW193299  11.238   0.118  11.986 -3.9091  0.9447 -2.6809
60440SOL    HW293300  11.337   0.213  11.920  1.3358 -0.8540  1.7993
60441SOL     OW93301  10.473   7.620   6.859 -0.3020  1.1281  0.1901
60441SOL    HW193302  10.455   7.545   6.802  0.4276  1.6040 -0.6844
60441SOL    HW293303  10.387   7.642   6.897 -0.7558  0.6514 -0.5248
60442SOL     OW93304   1.776  11.585  10.889  0.2709 -0.1078 -0.2654
60442SOL    HW193305   1.685  11.558  10.874  0.1212 -0.1725  0.6759
60442SOL    HW293306   1.770  11.647  10.962  1.1405 -1.2826  0.8419
60443SOL     OW93307   8.838  10.768   0.332 -0.4976  0.6109  0.0469
60443SOL    HW193308   8.878  10.682   0.347  0.4879  1.3692  2.0655
60443SOL    HW293309   8.887  10.804   0.258 -0.9756 -0.5582 -0.8812
60444SOL     OW93310  12.595  12.441   6.677  0.9700 -0.1536 -0.2824
60444SOL    HW193311  12.668  12.468   6.621  0.7564 -0.8475 -0.9210
60444SOL    HW293312  12.517  12.461   6.626  0.6427  1.3845  0.7494
60445SOL     OW93313   2.038   5.779   1.903 -0.2850  0.5393 -0.0141
60445SOL    HW193314   2.074   5.700   1.942 -0.7158 -0.2447 -1.1734
60445SOL    HW293315   2.086   5.789   1.820 -3.1071 -0.9607 -2.0019
60446SOL     OW93316   0.469  11.025  12.308 -0.1655 -0.2517 -0.0871
60446SOL    HW193317   0.382  11.044  12.343  0.6307  2.6984  0.5764
60446SOL    HW293318   0.495  11.106  12.264  1.9235 -1.3421 -0.9871
60447SOL     OW93319   0.290   0.722   0.129 -0.1772  0.0632  0.4521
60447SOL    HW193320   0.322   0.654   0.069  0.4039  1.0934 -0.4354
60447SOL    HW293321   0.294   0.803   0.078  0.2583  0.9651  1.8644
60448SOL     OW93322   5.651  10.300   7.375  0.0678  0.2331  0.0610
60448SOL    HW193323   5.603  10.374   7.411 -0.6373  0.2849 -0.9405
60448SOL    HW293324   5.740  10.333   7.360 -0.2279  0.8484 -0.3300
60449SOL     OW93325  13.545  13.768  10.414 -0.0552 -0.3350  0.4639
60449SOL    HW193326  13.627  13.787  10.370 -0.0781  0.9832  0.9293
60449SOL    HW293327  13.498  13.709  10.355  1.4359 -1.5564  0.4529
60450SOL     OW93328   8.781  10.310   1.974  0.1605  0.0628 -0.0708
60450SOL    HW193329   8.852  10.355   1.928  0.1629 -0.8924 -1.0233
60450SOL    HW293330   8.713  10.298   1.907 -0.5706  0.2271  0.6247
60451SOL     OW93331   9.858   3.592   8.647 -0.9604  0.1117 -0.2847
60451SOL    HW193332   9.800   3.529   8.607 -1.2292  1.7429 -2.6657
60451SOL    HW293333   9.802   3.642   8.706 -1.7548  0.8408 -1.6045
60452SOL     OW93334   0.227   6.466   2.456  0.0473 -0.2897  0.1074
60452SOL    HW193335   0.194   6.553   2.434  1.2123  0.3157  0.6596
60452SOL    HW293336   0.251   6.471   2.548  1.5666 -0.7041 -0.2216
60453SOL     OW93337   1.645  11.094  10.420  0.1114  0.2881  0.1319
60453SOL    HW193338   1.654  11.028  10.489 -1.2349  0.5971  0.6307
60453SOL    HW293339   1.720  11.079  10.363  0.2242 -1.1997  0.6271
60454SOL     OW93340   3.007  12.388  11.715  0.0158  0.2410 -0.0324
60454SOL    HW193341   2.922  12.386  11.671 -1.4244  0.0023  2.5315
60454SOL    HW293342   3.010  12.473  11.758  0.1464 -0.4793  1.4691
60455SOL     OW93343   5.701  13.958   8.469  0.2890  0.2385  0.1679
60455SOL    HW193344   5.752  13.877   8.476 -1.0224 -0.5839  0.6215
60455SOL    HW293345   5.688  13.986   8.560 -1.4092 -0.4800  0.1955
60456SOL     OW93346  12.536   3.147   4.125  0.0685  0.1961 -0.2065
60456SOL    HW193347  12.556   3.135   4.218  0.1501  0.1715 -0.2271
60456SOL    HW293348  12.484   3.069   4.102 -1.5464  1.0876  0.2633
60457SOL     OW93349   1.275  10.169   5.857 -0.3905 -0.5861  0.2982
60457SOL    HW193350   1.223  10.146   5.933  1.7168  0.9920  2.3796
60457SOL    HW293351   1.327  10.090   5.838 -2.3748 -1.6850 -0.9217
60458SOL     OW93352  10.700   3.287  10.301 -0.9273  0.8782  0.3493
60458SOL    HW193353  10.718   3.208  10.351 -1.5787 -0.1779 -1.0327
60458SOL    HW293354  10.762   3.352  10.336  1.0000 -0.7782  0.2077
60459SOL     OW93355   3.903  10.599   4.795  0.2724  0.0790 -0.5662
60459SOL    HW193356   3.973  10.557   4.745 -0.4021  0.6234 -2.0427
60459SOL    HW293357   3.948  10.662   4.851  1.0803 -0.8196 -0.1817
60460SOL     OW93358   2.489   7.313  13.289  0.4700 -0.1200  0.0284
60460SOL    HW193359   2.412   7.331  13.234  0.1678 -1.8322 -0.1732
60460SOL    HW293360   2.528   7.235  13.250  0.9951 -0.6182  1.4880
60461SOL     OW93361   0.503   0.144   6.342 -0.5852  0.0893  0.1589
60461SOL    HW193362   0.462   0.218   6.296  2.9303  2.6465  0.6781
60461SOL    HW293363   0.500   0.072   6.279  0.9344  2.4456 -2.8708
60462SOL     OW93364  10.999  11.723   5.864  0.5770  0.3756  0.1545
60462SOL    HW193365  11.052  11.779   5.920 -0.1487  0.1607  1.0947
60462SOL    HW293366  10.910  11.733   5.898  0.0822  0.3614 -1.0800
60463SOL     OW93367  13.374   5.133   5.412 -0.4813  0.3300  0.4121
60463SOL    HW193368  13.343   5.194   5.345 -0.9936 -0.0122  0.3326
60463SOL    HW293369  13.357   5.177   5.495 -0.8609  0.2964  0.3548
60464SOL     OW93370   0.133   7.979  10.326 -0.5053  0.2991  0.6975
60464SOL    HW193371   0.209   8.035  10.342 -0.4222  0.4280 -0.0951
60464SOL    HW293372   0.066   8.013  10.386 -0.2632  0.8565  0.6602
60465SOL     OW93373   7.175   7.550   8.898  0.7292 -0.0468  0.0749
60465SOL    HW193374   7.094   7.601   8.902  0.9412  0.3439 -0.4560
60465SOL    HW293375   7.146   7.459   8.900  0.3817  0.0578  1.7913
60466SOL     OW93376  10.308   1.324   7.070  0.5078 -0.3065  0.1737
60466SOL    HW193377  10.384   1.273   7.096  0.8454 -0.5646 -1.2007
60466SOL    HW293378  10.234   1.264   7.075  0.3402 -0.0193  1.6398
60467SOL     OW93379   4.467   2.336   3.560  0.4893 -0.0832 -0.0672
60467SOL    HW193380   4.424   2.388   3.493 -0.8299 -0.0529  0.7520
60467SOL    HW293381   4.447   2.381   3.642  0.0608 -1.3864  0.5691
60468SOL     OW93382   4.762  13.728   5.633 -0.3182 -0.6675  0.0006
60468SOL    HW193383   4.795  13.685   5.712 -1.5871  1.1008  1.5811
60468SOL    HW293384   4.669  13.743   5.651 -0.3536  0.9442 -1.2948
60469SOL     OW93385   7.420   1.214   8.614  0.3744 -0.4011 -0.0126
60469SOL    HW193386   7.353   1.150   8.593  0.0423 -0.4203  1.0231
60469SOL    HW293387   7.465   1.176   8.690  2.0052 -0.7114 -1.0835
60470SOL     OW93388  10.895   5.206   8.304  0.0115  0.5159  0.6432
60470SOL    HW193389  10.844   5.226   8.383 -1.7773  1.2192 -0.6062
60470SOL    HW293390  10.968   5.268   8.307  0.1843  0.2762  1.9232
60471SOL     OW93391   8.017   0.151   9.632 -0.2451  0.1566 -0.3208
60471SOL    HW193392   7.998   0.233   9.677 -1.3099 -0.1719 -0.1448
60471SOL    HW293393   7.936   0.129   9.587  0.3074 -0.3543 -1.0808
60472SOL     OW93394   4.288   2.115   8.283  0.2131  0.1733 -0.1711
60472SOL    HW193395   4.308   2.041   8.225  1.5521  0.7626 -0.4865
60472SOL    HW293396   4.322   2.191   8.237  2.3231  0.5501  1.8522
60473SOL     OW93397   6.039   8.193   9.970 -1.0323 -0.7058 -0.2016
60473SOL    HW193398   5.982   8.122   9.998 -0.5815 -1.2518 -0.6421
60473SOL    HW293399   6.115   8.149   9.931 -0.0255 -0.0198  0.8999
60474SOL     OW93400   7.819  11.685   7.262  0.0275  0.1444  0.5103
60474SOL    HW193401   7.827  11.757   7.324 -1.1436 -0.0372  0.8971
60474SOL    HW293402   7.741  11.637   7.290  1.0380 -1.5607  0.5453
60475SOL     OW93403   0.305   7.413   3.764 -0.0280 -0.6620  0.0646
60475SOL    HW193404   0.221   7.429   3.807  0.3499 -1.7731  1.2937
60475SOL    HW293405   0.292   7.332   3.716 -0.8312  1.1876 -3.0997
60476SOL     OW93406   0.815   8.028   9.138  0.6437 -0.0513  0.9918
60476SOL    HW193407   0.897   7.992   9.104  0.3103  0.0189  0.0913
60476SOL    HW293408   0.803   8.110   9.091 -0.4334 -0.5278  0.4061
60477SOL     OW93409   6.932  12.324   8.087  0.5456 -0.0400 -0.0790
60477SOL    HW193410   6.868  12.361   8.148  0.9020  1.0928 -0.3788
60477SOL    HW293411   7.015  12.326   8.135  1.0073  1.6875 -0.8650
60478SOL     OW93412   0.162   9.254   6.034 -0.1532 -0.5654 -0.7122
60478SOL    HW193413   0.133   9.227   5.946 -0.3821 -1.3698 -0.3992
60478SOL    HW293414   0.110   9.200   6.094  0.0061 -0.0222 -0.0801
60479SOL     OW93415   7.536  13.429  10.260 -0.1859 -0.2933  0.3979
60479SOL    HW193416   7.523  13.486  10.184 -1.1960 -3.7403 -2.2597
60479SOL    HW293417   7.618  13.384  10.242  0.1606 -0.3463  1.9902
60480SOL     OW93418  13.605   3.805   0.766 -0.0877  0.2190 -0.5707
60480SOL    HW193419  13.600   3.896   0.737 -0.2773  0.5004  0.3111
60480SOL    HW293420  13.514   3.780   0.781 -0.1645 -0.5864 -2.1576
60481SOL     OW93421   3.108   3.452  13.092  0.3245  0.6376  0.2473
60481SOL    HW193422   3.175   3.384  13.096  0.4524  0.7194 -0.4375
60481SOL    HW293423   3.112   3.494  13.178 -0.6848 -1.0932  1.1880
60482SOL     OW93424   9.552   7.933   3.036 -0.2777  0.0757 -0.0834
60482SOL    HW193425   9.535   7.976   2.952 -1.2429  1.4884  0.7984
60482SOL    HW293426   9.599   7.998   3.088  0.6476 -0.9143  0.3701
60483SOL     OW93427  11.405  11.599   1.642 -0.0003  0.2153 -0.3609
60483SOL    HW193428  11.359  11.672   1.600 -2.1391 -1.0612 -0.4292
60483SOL    HW293429  11.447  11.552   1.570  1.5406  1.4203 -0.2959
60484SOL     OW93430   0.829   1.595  10.740 -0.0574 -0.3434  0.1947
60484SOL    HW193431   0.814   1.652  10.665  1.1533 -1.2793 -0.8153
60484SOL    HW293432   0.783   1.637  10.812 -0.6158  0.9891 -0.8923
60485SOL     OW93433   5.470   0.521   0.426 -0.8061 -0.8476  0.0942
60485SOL    HW193434   5.532   0.591   0.405 -1.4525 -0.8113 -1.9126
60485SOL    HW293435   5.444   0.539   0.516  0.9112  0.0266  0.4695
60486SOL     OW93436   7.840  11.479   0.945 -0.0972  0.0362 -0.6424
60486SOL    HW193437   7.752  11.517   0.957  0.2043  0.2778  1.0353
60486SOL    HW293438   7.850  11.472   0.850 -1.0985  1.9809 -0.9419
60487SOL     OW93439   4.328   4.559   6.318  0.1487  0.6856  0.1040
60487SOL    HW193440   4.412   4.601   6.333  2.1735 -2.1978 -1.8727
60487SOL    HW293441   4.281   4.618   6.258  2.2010  0.9028 -1.3754
60488SOL     OW93442   8.514   8.000   7.373  0.1222  0.6633 -0.0187
60488SOL    HW193443   8.474   7.922   7.335 -0.0738  0.8444 -0.1918
60488SOL    HW293444   8.451   8.029   7.439 -0.1370  1.0664 -0.4322
60489SOL     OW93445   9.830   7.532   1.413 -0.4628  1.2751  0.2297
60489SOL    HW193446   9.852   7.534   1.506 -0.3693 -2.6718  0.4858
60489SOL    HW293447   9.735   7.518   1.410 -0.2397 -0.4494 -0.1036
60490SOL     OW93448   1.571  13.373   3.583 -0.4352 -0.2735 -0.0211
60490SOL    HW193449   1.599  13.334   3.665 -1.1541 -0.4606  0.1427
60490SOL    HW293450   1.652  13.385   3.533 -0.1031 -1.1509  0.2808
60491SOL     OW93451  13.821   8.595  13.121  0.1628 -0.7637 -0.5725
60491SOL    HW193452  13.765   8.543  13.064  0.4557 -1.3899 -0.3076
60491SOL    HW293453  13.843   8.673  13.070 -1.5569 -0.1253 -0.3906
60492SOL     OW93454   5.102   4.581   9.399  0.2295  0.3787 -0.3011
60492SOL    HW193455   5.045   4.621   9.464 -0.0192 -0.6939  0.1609
60492SOL    HW293456   5.062   4.496   9.381  0.7017  0.3556 -1.3102
60493SOL     OW93457   8.071  11.963  11.729  0.9379  0.2348  0.4122
60493SOL    HW193458   8.125  11.886  11.710  0.4036  0.0986 -0.6404
60493SOL    HW293459   8.127  12.038  11.709  2.1426  0.2192  3.2873
60494SOL     OW93460  11.010  11.728   7.153 -0.5614  0.0785 -0.0088
60494SOL    HW193461  11.041  11.805   7.104 -0.4042  0.3279  0.4733
60494SOL    HW293462  11.081  11.665   7.147  1.2531  1.5381  3.1797
60495SOL     OW93463   8.300   6.318   0.558 -0.2501 -0.4611  0.0545
60495SOL    HW193464   8.218   6.327   0.510 -0.8603 -0.8629  0.9972
60495SOL    HW293465   8.302   6.394   0.616  0.6781  0.2378 -0.8355
60496SOL     OW93466   7.099   9.704  10.185  0.5157  0.1933  0.1605
60496SOL    HW193467   7.123   9.790  10.150 -1.3161  0.4967 -0.4293
60496SOL    HW293468   7.091   9.649  10.108 -0.1203 -0.0349  0.3872
60497SOL     OW93469   8.921   7.365   0.115 -0.0005 -0.6034 -0.1658
60497SOL    HW193470   8.999   7.381   0.062 -1.3891  1.5687 -1.7261
60497SOL    HW293471   8.890   7.452   0.140 -1.8300 -1.4020  0.5528
60498SOL     OW93472   1.487  10.508  13.185  0.1472 -0.1267  0.3102
60498SOL    HW193473   1.422  10.536  13.249  1.0756  0.0534  1.2078
60498SOL    HW293474   1.560  10.475  13.238  1.4632  1.1802 -0.6193
60499SOL     OW93475   9.962   6.326   7.637 -0.2377  0.1201 -0.1521
60499SOL    HW193476   9.875   6.287   7.632 -0.7156  1.1706 -0.2212
60499SOL    HW293477  10.009   6.271   7.700 -1.6356  0.7842  1.5540
60500SOL     OW93478   7.462  10.063   0.696  0.0290 -0.0169  0.0327
60500SOL    HW193479   7.435  10.069   0.604  1.7004 -2.7381 -0.7447
60500SOL    HW293480   7.486   9.971   0.708 -0.3279  0.1988  3.3047
60501SOL     OW93481   1.018  11.435   1.912  0.0091  0.2932  0.3039
60501SOL    HW193482   0.945  11.396   1.865  0.5085  0.9490 -1.0438
60501SOL    HW293483   1.031  11.520   1.872  1.0102  0.5191  1.0521
60502SOL     OW93484  11.748   0.071   3.420 -0.2443  0.1468  0.1473
60502SOL    HW193485  11.840   0.076   3.395  0.0669 -2.2974  0.5859
60502SOL    HW293486  11.708   0.014   3.354 -1.5869  1.5618 -0.3255
60503SOL     OW93487  13.698   9.441   8.211  0.1736  0.0242 -0.2881
60503SOL    HW193488  13.660   9.522   8.177 -1.2746 -0.3711  0.3015
60503SOL    HW293489  13.699   9.381   8.135  0.1256  0.2053 -0.4324
60504SOL     OW93490   8.922   1.140   6.175  0.0856  0.0035 -0.2290
60504SOL    HW193491   8.872   1.190   6.110  0.2525 -0.6513 -0.8765
60504SOL    HW293492   8.949   1.061   6.129 -1.2252 -1.2918  1.1239
60505SOL     OW93493  11.095   3.608   6.150  0.5833  0.1209  0.2791
60505SOL    HW193494  11.172   3.665   6.139  0.2708  0.3807 -0.6050
60505SOL    HW293495  11.056   3.637   6.232  0.9656  0.5469  0.3139
60506SOL     OW93496   1.273   2.447   1.792  0.1822 -0.0101  0.1122
60506SOL    HW193497   1.268   2.352   1.795 -1.1021  0.0316 -0.2931
60506SOL    HW293498   1.206   2.473   1.729  0.1705  1.1877  0.5871
60507SOL     OW93499   2.444   1.269   8.569 -0.5021 -0.4016  0.0853
60507SOL    HW193500   2.386   1.328   8.616  0.0139  1.0571 -1.0290
60507SOL    HW293501   2.404   1.260   8.482  0.4121 -0.1271 -0.3815
60508SOL     OW93502   2.823   3.232  13.950 -0.9709  0.5542  0.0718
60508SOL    HW193503   2.875   3.245  14.029 -0.0491 -1.1818 -0.1965
60508SOL    HW293504   2.755   3.170  13.975  0.0883 -1.0337 -0.7134
60509SOL     OW93505  10.764   5.750   7.675 -0.4548  0.0612 -0.1978
60509SOL    HW193506  10.830   5.817   7.657  1.4686 -1.8992 -0.8017
60509SOL    HW293507  10.813   5.669   7.686 -2.7286 -1.3946  0.0222
60510SOL     OW93508  11.452  13.173   7.170  0.2385 -0.0120  0.0692
60510SOL    HW193509  11.507  13.119   7.113  1.1470  1.4223 -0.4717
60510SOL    HW293510  11.413  13.111   7.232  0.6719 -1.3672 -0.9623
60511SOL     OW93511   2.386   0.799  10.694  0.0624  0.0455  0.7348
60511SOL    HW193512   2.305   0.751  10.712  0.2288 -0.3163  0.5241
60511SOL    HW293513   2.440   0.737  10.645  0.1743  0.5429  0.2291
60512SOL     OW93514   6.079   8.191   2.620 -0.0779  0.1977  0.3690
60512SOL    HW193515   6.019   8.138   2.672 -0.8934  0.3676 -0.3704
60512SOL    HW293516   6.161   8.142   2.620 -0.2043 -0.0389  1.3889
60513SOL     OW93517   2.039  13.778  13.688  0.1384 -0.6537 -0.2131
60513SOL    HW193518   2.129  13.750  13.669  0.1750 -1.2001  0.7150
60513SOL    HW293519   1.987  13.699  13.676  0.0882 -0.8824  1.3456
60514SOL     OW93520   6.220   4.379   9.353 -0.1926  0.3450  0.2346
60514SOL    HW193521   6.258   4.293   9.369  0.6879  0.7571  0.3990
60514SOL    HW293522   6.291   4.431   9.316 -0.6873  1.0356  0.2256
60515SOL     OW93523   1.703   4.414  10.955 -0.8220 -0.0634 -0.0139
60515SOL    HW193524   1.767   4.426  11.025 -1.3432  0.3583  0.4019
60515SOL    HW293525   1.753   4.378  10.882 -0.1028  0.3002  0.2908
60516SOL     OW93526  13.248   7.667  13.829 -0.2397  0.1803 -0.2548
60516SOL    HW193527  13.186   7.660  13.756  0.5201  0.3605 -0.9416
60516SOL    HW293528  13.331   7.639  13.791  0.0257 -0.4233  0.7513
60517SOL     OW93529   9.869   3.559  13.761 -0.4162 -0.0179  0.4428
60517SOL    HW193530   9.859   3.498  13.688 -1.4530  0.2994  0.3007
60517SOL    HW293531   9.790   3.547  13.814 -0.7298  1.2998  0.3218
60518SOL     OW93532   8.851   0.543   4.282  0.3115  0.1115  0.2392
60518SOL    HW193533   8.915   0.596   4.329 -0.3822  1.1027  0.1015
60518SOL    HW293534   8.790   0.606   4.245 -1.1382 -0.8054  0.9364
60519SOL     OW93535   0.065  10.666   6.279  0.1329  0.1926 -0.0470
60519SOL    HW193536  -0.017  10.632   6.314  0.5169 -0.4778  0.2087
60519SOL    HW293537   0.097  10.725   6.348  1.5804 -2.1580  1.4520
60520SOL     OW93538   3.032  10.092   9.351 -0.4987  0.4514  0.1112
60520SOL    HW193539   2.997  10.106   9.439 -1.7925 -0.5126 -0.2191
60520SOL    HW293540   2.988  10.157   9.296  1.0311  1.7053  0.3104
60521SOL     OW93541   1.130   0.217   6.848  0.6558 -0.2675 -0.1398
60521SOL    HW193542   1.145   0.137   6.898 -0.1609 -1.0039 -1.0214
60521SOL    HW293543   1.204   0.221   6.787  0.4897 -0.5905 -0.3702
60522SOL     OW93544   0.798  12.913   1.186  0.2314 -0.5916  0.4603
60522SOL    HW193545   0.788  12.919   1.091  2.2669 -0.4975  0.2019
60522SOL    HW293546   0.776  13.001   1.217  1.0122 -0.1716 -0.1145
60523SOL     OW93547   2.375   2.290   2.776 -0.1564 -0.1981  1.1969
60523SOL    HW193548   2.449   2.348   2.796 -0.0359  0.2639 -0.4566
60523SOL    HW293549   2.316   2.344   2.724  1.0058 -2.1205 -2.3915
60524SOL     OW93550  13.003   4.184  12.857  0.0192 -0.3807 -0.3675
60524SOL    HW193551  12.987   4.255  12.795  2.3748  0.8305  0.2983
60524SOL    HW293552  13.007   4.228  12.942 -1.7349 -1.8102  0.5178
60525SOL     OW93553   7.317  13.121   2.569 -0.2827 -0.0250 -0.4506
60525SOL    HW193554   7.282  13.142   2.655  0.8613  0.0367  0.0203
60525SOL    HW293555   7.240  13.114   2.512 -0.9487  1.7001  0.1810
60526SOL     OW93556   3.823   1.734   4.395 -0.0341 -0.1592 -0.2009
60526SOL    HW193557   3.915   1.736   4.366 -0.0602 -1.0429 -0.3803
60526SOL    HW293558   3.775   1.777   4.325  0.3170  0.9237  0.2082
60527SOL     OW93559   0.366   8.845   3.237  0.8676  0.5732 -0.0372
60527SOL    HW193560   0.361   8.913   3.305  0.3401 -1.3719  1.9841
60527SOL    HW293561   0.444   8.867   3.187  0.7368  2.6288  0.5598
60528SOL     OW93562   0.209   3.272   6.180  1.0641  0.2572  0.2895
60528SOL    HW193563   0.166   3.240   6.259  1.9561  0.4742  0.8819
60528SOL    HW293564   0.284   3.214   6.168  0.9701  0.2627 -0.3683
60529SOL     OW93565   3.689   3.887   4.352 -0.0250  0.3797 -0.2300
60529SOL    HW193566   3.755   3.818   4.367  0.6242  0.8411 -0.9049
60529SOL    HW293567   3.696   3.943   4.430  0.6214  0.6007 -0.4325
60530SOL     OW93568  13.999   4.682   4.905  0.4879  0.0870  0.1536
60530SOL    HW193569  14.041   4.767   4.894  0.8639 -0.0937  0.1978
60530SOL    HW293570  14.042   4.644   4.981 -0.9917  0.6557  1.3411
60531SOL     OW93571   6.539   2.832  11.283  0.3661  0.5208  0.5604
60531SOL    HW193572   6.473   2.785  11.233 -0.4951  2.3991 -0.1699
60531SOL    HW293573   6.541   2.788  11.368 -0.6063 -0.6053  0.0254
60532SOL     OW93574  11.155   5.542  13.691  0.3231  0.6914  0.6345
60532SOL    HW193575  11.090   5.567  13.626  0.2709  1.6836  1.0397
60532SOL    HW293576  11.104   5.525  13.770  0.0026 -3.6906 -0.2773
60533SOL     OW93577   1.721  12.588  12.298  0.3096  0.8142  0.2322
60533SOL    HW193578   1.764  12.529  12.236  0.1729  0.9141  0.0403
60533SOL    HW293579   1.731  12.545  12.383 -1.5354 -0.5095 -0.1626
60534SOL     OW93580  12.717  13.022   4.435  0.4083  0.4375 -0.0948
60534SOL    HW193581  12.724  12.928   4.453  0.7150  0.3372 -0.7255
60534SOL    HW293582  12.717  13.028   4.340 -1.5301  0.9334 -0.0954
60535SOL     OW93583  13.162  10.774   7.681  0.0388  0.2917 -0.6730
60535SOL    HW193584  13.092  10.834   7.655 -0.3702 -1.0172 -2.9035
60535SOL    HW293585  13.120  10.713   7.741  0.1657  1.4578  0.6642
60536SOL     OW93586  13.267   6.856   1.508  0.4668  0.3861  0.4137
60536SOL    HW193587  13.185   6.810   1.490 -0.4107 -0.1265  4.6306
60536SOL    HW293588  13.334   6.802   1.466 -1.0341 -1.6065  0.4153
60537SOL     OW93589   5.956   8.433  10.048 -0.2294  0.2153  0.3017
60537SOL    HW193590   5.864   8.446  10.025 -0.3825 -0.6706  0.3528
60537SOL    HW293591   5.973   8.341  10.025  0.5037  0.2296  0.7603
60538SOL     OW93592  11.157  12.714   5.532 -0.3834 -0.1820  0.4162
60538SOL    HW193593  11.183  12.792   5.579  0.3457 -0.5332  0.6089
60538SOL    HW293594  11.085  12.677   5.583  0.1727 -0.3710  1.0749
60539SOL     OW93595  12.310   7.692   1.515 -0.3128 -0.0224 -0.4584
60539SOL    HW193596  12.302   7.710   1.609  1.2378 -0.2875 -0.2574
60539SOL    HW293597  12.233   7.638   1.495  1.2642 -3.3093  1.5358
60540SOL     OW93598   3.353   5.755   3.223 -0.2620 -0.0696 -0.2946
60540SOL    HW193599   3.448   5.766   3.216 -0.1699  0.0113  0.9227
60540SOL    HW293600   3.341   5.660   3.228 -0.1711 -0.0465  0.4224
60541SOL     OW93601   9.768   5.005   2.787 -0.2975  0.2127  0.3514
60541SOL    HW193602   9.789   4.928   2.841 -1.1866 -0.2435  0.0684
60541SOL    HW293603   9.679   5.029   2.814  0.4606  2.0054  1.4248
60542SOL     OW93604   0.183   9.048   9.602  0.8289  0.4683  0.4556
60542SOL    HW193605   0.136   9.131   9.596 -1.2063 -0.7083 -0.9992
60542SOL    HW293606   0.131   8.995   9.662  1.4774 -0.1590  0.4829
60543SOL     OW93607   6.230  10.614   6.428  0.1063 -0.0990 -0.6653
60543SOL    HW193608   6.156  10.652   6.474  0.7947  0.7466 -0.2234
60543SOL    HW293609   6.197  10.532   6.392 -1.1790  0.4973 -0.9037
60544SOL     OW93610   4.691   4.138  11.281 -0.3144 -0.1037  0.2675
60544SOL    HW193611   4.781   4.138  11.248 -0.2937 -0.6865  0.3130
60544SOL    HW293612   4.697   4.180  11.367  0.6259 -3.4644  2.0557
60545SOL     OW93613  13.840   9.050   7.621 -0.1188  0.3330  0.1826
60545SOL    HW193614  13.770   9.089   7.569  0.7766  0.6730 -0.7965
60545SOL    HW293615  13.797   8.979   7.669 -0.7320 -0.8426 -1.9777
60546SOL     OW93616  12.432  12.529  11.269  0.2377  0.0902 -0.0131
60546SOL    HW193617  12.376  12.577  11.208 -1.0024  1.1685  1.8351
60546SOL    HW293618  12.508  12.586  11.281 -0.0769  0.4563  0.3061
60547SOL     OW93619   1.407   6.641   4.625 -0.0423 -0.2437 -0.3488
60547SOL    HW193620   1.325   6.602   4.656  1.3518 -1.1403  2.5692
60547SOL    HW293621   1.380   6.724   4.586 -2.3266 -0.2177  1.0886
60548SOL     OW93622  13.681   9.664   0.446 -0.1861 -0.0336 -0.1048
60548SOL    HW193623  13.727   9.629   0.522  1.1294  0.8477 -0.4631
60548SOL    HW293624  13.670   9.757   0.465 -0.4449  0.0642 -0.7003
60549SOL     OW93625   5.652  12.270   4.921  0.0124  0.4579  0.2553
60549SOL    HW193626   5.718  12.300   4.983  1.8255  0.1202 -1.4168
60549SOL    HW293627   5.670  12.318   4.840 -0.4262 -1.1732 -0.8764
60550SOL     OW93628   8.974  10.877   4.317  0.8460 -0.7676 -0.1312
60550SOL    HW193629   9.059  10.919   4.326  0.1358  1.3093 -2.1465
60550SOL    HW293630   8.920  10.916   4.386  0.7445  0.2138 -0.7441
60551SOL     OW93631  12.344   3.501   6.147 -0.2315  0.0190 -0.0906
60551SOL    HW193632  12.419   3.528   6.200 -0.9683  1.2899  0.3812
60551SOL    HW293633  12.382   3.467   6.066  0.8608  0.4713  0.2099
60552SOL     OW93634   1.268  11.795  11.754  0.5253  0.4101 -0.4731
60552SOL    HW193635   1.289  11.759  11.840 -0.7456  0.5337 -0.0868
60552SOL    HW293636   1.243  11.719  11.702 -1.1778  0.5603  0.0476
60553SOL     OW93637   1.043  13.761   7.655 -0.1122 -0.1976  0.5983
60553SOL    HW193638   1.121  13.806   7.623 -0.9213  0.5187 -0.4893
60553SOL    HW293639   1.017  13.704   7.583  0.0721 -1.3361  1.4138
60554SOL     OW93640   6.487   0.521  12.406  0.2726 -0.1884 -0.3764
60554SOL    HW193641   6.541   0.565  12.472  0.3491 -1.6642  0.6118
60554SOL    HW293642   6.418   0.583  12.384  1.2801  1.0086 -0.2385
60555SOL     OW93643  10.569   5.159  11.532 -0.3659 -0.6506 -0.1449
60555SOL    HW193644  10.493   5.215  11.520  0.0718 -0.0457 -0.1335
60555SOL    HW293645  10.537   5.086  11.585 -0.2016  1.3003  2.9379
60556SOL     OW93646  13.936   0.880  13.278  0.4574  0.1602 -0.0523
60556SOL    HW193647  13.941   0.796  13.323 -2.4980 -0.4372 -0.6056
60556SOL    HW293648  13.964   0.862  13.188  0.3585 -0.1058 -0.0301
60557SOL     OW93649  13.083   5.090  13.353  0.6042 -0.0647  0.0375
60557SOL    HW193650  13.062   4.997  13.344  0.8001 -0.0281 -0.8555
60557SOL    HW293651  13.167   5.100  13.308  0.3878  0.6245 -0.2218
60558SOL     OW93652   0.502   0.300   3.517 -0.1817 -0.4482 -0.3706
60558SOL    HW193653   0.483   0.339   3.432 -0.4824  0.8697  0.2775
60558SOL    HW293654   0.453   0.218   3.517 -0.2325 -0.4317 -1.4310
60559SOL     OW93655   0.442   4.198  13.308  0.3779 -0.4378  0.8731
60559SOL    HW193656   0.465   4.165  13.395  0.5049  2.0061  1.8320
60559SOL    HW293657   0.378   4.135  13.276 -0.1704 -1.0856  3.0196
60560SOL     OW93658  12.412   6.690   7.293 -0.0452  0.2080  0.3602
60560SOL    HW193659  12.384   6.599   7.296  1.2179 -0.1958  1.0003
60560SOL    HW293660  12.349   6.736   7.349 -0.2779 -0.4004  0.6138
60561SOL     OW93661   2.463   2.680   7.538  0.2296 -0.0590 -0.3522
60561SOL    HW193662   2.533   2.743   7.551  0.0182  0.0093  0.5267
60561SOL    HW293663   2.388   2.733   7.511  0.1118  0.0579  0.1781
60562SOL     OW93664   7.817   4.851   6.581  0.0907  0.5897 -0.2136
60562SOL    HW193665   7.733   4.853   6.628 -0.0391 -0.0016 -0.4109
60562SOL    HW293666   7.877   4.808   6.641  0.0677  0.3483 -0.3637
60563SOL     OW93667   3.685   4.047  13.438 -0.6453 -0.3839 -0.2265
60563SOL    HW193668   3.719   4.069  13.525 -3.2654 -0.0835  0.7906
60563SOL    HW293669   3.706   3.954  13.427 -0.9958 -0.6454  1.1028
60564SOL     OW93670   1.547   2.152  11.085  0.2739  0.2939  0.1812
60564SOL    HW193671   1.601   2.140  11.007 -0.9235  4.5904 -1.6358
60564SOL    HW293672   1.460   2.121  11.059  0.4818 -0.9244  0.8939
60565SOL     OW93673  11.937   2.645  13.250  0.3022  0.5424  0.2650
60565SOL    HW193674  11.873   2.644  13.179  2.2201 -1.4472 -1.5772
60565SOL    HW293675  11.902   2.584  13.315  0.6310 -1.1981 -1.1099
60566SOL     OW93676  11.465   0.911   5.517  0.6676 -0.3482 -0.0474
60566SOL    HW193677  11.405   0.837   5.521 -0.9868  0.8725 -1.1361
60566SOL    HW293678  11.441   0.957   5.436  2.0015  1.0825  0.3254
60567SOL     OW93679   7.409   1.503   9.390  0.3134  0.1386  0.2144
60567SOL    HW193680   7.431   1.565   9.460  0.1174  0.2941  0.1388
60567SOL    HW293681   7.328   1.537   9.353  0.0645 -0.3001  0.3415
60568SOL     OW93682   7.746   8.830   9.157  0.6348  0.5202  0.0711
60568SOL    HW193683   7.832   8.803   9.190  1.5303 -0.4332 -2.7070
60568SOL    HW293684   7.701   8.748   9.139  0.0956  0.9810 -0.7260
60569SOL     OW93685  13.666   8.181   6.368  0.4975 -0.2039 -0.5475
60569SOL    HW193686  13.755   8.180   6.403  0.7367  1.3229 -1.0348
60569SOL    HW293687  13.667   8.252   6.303 -0.9236 -0.5448 -0.9642
60570SOL     OW93688   2.433  10.023  11.662  0.3259  0.1830 -0.6998
60570SOL    HW193689   2.380  10.083  11.713  0.1490 -1.7305  1.5163
60570SOL    HW293690   2.370   9.960  11.626  0.8605 -1.6646  1.3349
60571SOL     OW93691   8.182  10.606   0.337 -0.5791 -0.0990 -0.3860
60571SOL    HW193692   8.106  10.663   0.340  0.4402  1.3661 -1.0926
60571SOL    HW293693   8.233  10.629   0.415  0.2397  0.5918 -1.0969
60572SOL     OW93694   9.450   4.563  11.090  0.4880  0.1141 -0.0838
60572SOL    HW193695   9.377   4.623  11.077  1.1219  1.0428  0.4804
60572SOL    HW293696   9.496   4.598  11.167  2.1326  0.1858 -1.0537
60573SOL     OW93697   3.416   2.900  10.470 -0.4399  0.0247  0.1542
60573SOL    HW193698   3.359   2.858  10.534 -0.5855  0.9821  0.6817
60573SOL    HW293699   3.471   2.959  10.522  0.7419 -0.5615 -0.3968
60574SOL     OW93700   6.127  11.401   8.156  0.8740  0.1238  0.5846
60574SOL    HW193701   6.199  11.443   8.108  1.5850 -0.7301  0.8867
60574SOL    HW293702   6.122  11.448   8.239  0.2569  0.9922  0.0727
60575SOL     OW93703   3.450   6.055   0.352 -0.2804  0.0342 -0.7788
60575SOL    HW193704   3.450   5.976   0.300 -0.4090  1.1813 -2.6000
60575SOL    HW293705   3.540   6.086   0.349 -0.0373 -0.4365  0.6296
60576SOL     OW93706   8.651   6.705   3.500  0.4366  0.4874 -0.2690
60576SOL    HW193707   8.601   6.628   3.528 -1.1051  2.1003  1.7077
60576SOL    HW293708   8.585   6.764   3.463  0.9887  2.2538  1.4302
60577SOL     OW93709   1.970   6.860   5.508  0.2503  0.2008 -0.4009
60577SOL    HW193710   2.023   6.784   5.532 -0.7981 -0.7669 -1.0469
60577SOL    HW293711   1.900   6.862   5.572 -1.1069 -0.8813 -1.7531
60578SOL     OW93712   9.405   7.417   9.823 -0.0904  0.0036  0.6870
60578SOL    HW193713   9.438   7.328   9.811  0.4703  0.3456 -0.3677
60578SOL    HW293714   9.482   7.472   9.820 -0.7400  1.0104 -3.6930
60579SOL     OW93715   6.493   4.199   2.253  0.0992  0.3373 -0.4648
60579SOL    HW193716   6.526   4.131   2.194 -0.2442 -0.7857  0.5985
60579SOL    HW293717   6.448   4.261   2.195  1.6525  0.4651 -1.6193
60580SOL     OW93718   7.807   0.656   7.180 -0.1236 -0.5050 -0.3467
60580SOL    HW193719   7.799   0.574   7.131 -2.3562 -1.5019  1.4667
60580SOL    HW293720   7.810   0.628   7.272 -0.1607  1.4374  0.2920
60581SOL     OW93721  11.400  11.607  10.792 -0.8031  0.1205 -0.0419
60581SOL    HW193722  11.349  11.591  10.713 -0.1184 -1.9608 -0.1060
60581SOL    HW293723  11.490  11.586  10.767 -0.1083  2.0966  0.5578
60582SOL     OW93724   7.543   2.760   9.125  0.5007 -0.1778 -0.2629
60582SOL    HW193725   7.550   2.683   9.068  1.2030 -0.1756 -0.1801
60582SOL    HW293726   7.463   2.804   9.096  1.0670  0.0469 -1.5250
60583SOL     OW93727  13.716  10.882   2.096  0.0211 -0.2932 -0.2465
60583SOL    HW193728  13.672  10.955   2.140  0.5322 -0.1890  0.1066
60583SOL    HW293729  13.765  10.838   2.166  0.9227 -0.0633 -0.7070
60584SOL     OW93730   0.893   2.077   4.596 -0.0180  0.2328 -0.2860
60584SOL    HW193731   0.941   2.160   4.593 -1.0382  0.8945  0.8216
60584SOL    HW293732   0.840   2.078   4.517 -0.4043  0.8957 -0.0305
60585SOL     OW93733  11.747   5.877   1.793 -0.2037  0.3160 -0.1241
60585SOL    HW193734  11.741   5.875   1.889 -0.2168 -1.2233 -0.1237
60585SOL    HW293735  11.839   5.900   1.776  0.2541 -1.0762  0.3132
60586SOL     OW93736   5.632   7.006  11.691  0.1666  0.3404  0.1696
60586SOL    HW193737   5.676   7.066  11.631 -0.4329  0.1929 -0.4324
60586SOL    HW293738   5.701   6.946  11.720  0.1336 -0.7089 -1.7858
60587SOL     OW93739   9.726  10.920   1.391 -0.1858 -0.2855  0.2122
60587SOL    HW193740   9.822  10.919   1.395 -0.1547  1.3214  0.7322
60587SOL    HW293741   9.704  10.855   1.325  1.2843 -0.4251 -0.1830
60588SOL     OW93742   1.829  12.168  11.237  1.1292  0.1561 -0.0247
60588SOL    HW193743   1.882  12.138  11.162 -1.1975  0.3229 -1.8703
60588SOL    HW293744   1.741  12.136  11.217  0.3594  0.5104  2.5351
60589SOL     OW93745   0.743   3.445   3.745 -0.0101 -0.0013  0.1993
60589SOL    HW193746   0.701   3.478   3.665  0.6369  1.4069  0.4093
60589SOL    HW293747   0.826   3.407   3.715  0.2460  0.5528  0.2001
60590SOL     OW93748  10.838   5.529   6.922 -0.2325  0.3219 -0.2263
60590SOL    HW193749  10.846   5.444   6.966 -2.1666 -1.2804 -2.7047
60590SOL    HW293750  10.798   5.587   6.988 -0.9279 -1.3081  0.8464
60591SOL     OW93751   5.011  11.164   9.306 -0.2979 -0.1093 -0.2446
60591SOL    HW193752   5.031  11.095   9.369  0.3817 -0.2219 -0.5669
60591SOL    HW293753   5.038  11.127   9.222 -1.1410  0.0563 -0.6010
60592SOL     OW93754  12.709   9.417   8.757  0.0310 -0.3918 -0.2240
60592SOL    HW193755  12.777   9.430   8.690  0.7994  0.0853  0.6214
60592SOL    HW293756  12.658   9.342   8.726 -0.7247  0.8744 -2.2211
60593SOL     OW93757   1.359   5.946  12.205  0.0644  0.2628 -0.0690
60593SOL    HW193758   1.359   5.949  12.301 -0.2955 -3.5991  0.2082
60593SOL    HW293759   1.276   5.986  12.180 -0.3785  0.2819  1.3272
60594SOL     OW93760   8.463   7.836  11.613  0.1739  0.5387  0.0229
60594SOL    HW193761   8.511   7.809  11.692  0.0912 -0.1713 -0.1647
60594SOL    HW293762   8.480   7.767  11.550 -1.3585  0.0949  0.0540
60595SOL     OW93763   5.783   2.678   9.881 -0.3039 -0.4111 -0.4873
60595SOL    HW193764   5.766   2.588   9.907 -1.4118  0.1563  0.9174
60595SOL    HW293765   5.700   2.708   9.845 -0.1312  0.2153 -0.3766
60596SOL     OW93766   5.050  12.475  10.953 -0.5910 -0.3118  0.7722
60596SOL    HW193767   5.038  12.561  10.994 -0.6092  0.2466 -0.3402
60596SOL    HW293768   4.977  12.469  10.890 -0.9715 -1.4358  1.3029
60597SOL     OW93769   2.380  12.005   8.232 -0.0746  0.1329 -0.3086
60597SOL    HW193770   2.326  12.058   8.173 -0.2378 -0.4581 -0.7110
60597SOL    HW293771   2.351  12.029   8.320  0.6962  1.5762 -0.4232
60598SOL     OW93772  13.615   2.289   2.820  0.2737  0.5838  0.0198
60598SOL    HW193773  13.619   2.319   2.911 -1.2189  0.3576  0.1868
60598SOL    HW293774  13.597   2.367   2.769 -0.5245  0.4582  0.1063
60599SOL     OW93775  12.124   9.712   2.615 -0.0180  0.3182  0.1967
60599SOL    HW193776  12.072   9.658   2.556  0.5775  0.4174 -0.4319
60599SOL    HW293777  12.204   9.661   2.629 -0.2515  0.1913  1.1091
60600SOL     OW93778  12.862   1.673   4.972 -0.1005 -0.1776  0.0461
60600SOL    HW193779  12.850   1.758   5.016 -0.3920 -0.8829  1.3786
60600SOL    HW293780  12.937   1.686   4.916  0.3760  0.7450  0.8631
60601SOL     OW93781   1.197   7.218   7.952  0.0980  0.4979  0.2391
60601SOL    HW193782   1.187   7.302   7.997 -0.9913  1.0284 -0.9231
60601SOL    HW293783   1.287   7.218   7.920  0.2284  1.0439  0.5958
60602SOL     OW93784   1.332   7.330  13.299  0.1021 -0.3938  1.1260
60602SOL    HW193785   1.351   7.276  13.376  0.4667 -0.6592  0.8518
60602SOL    HW293786   1.375   7.284  13.226 -1.4823 -0.9446  0.5035
60603SOL     OW93787   8.900   5.221   1.396 -0.1222  0.3036 -0.0384
60603SOL    HW193788   8.910   5.136   1.439  0.5757  1.2198  1.6871
60603SOL    HW293789   8.808   5.244   1.409 -0.5221 -0.5099 -1.2134
60604SOL     OW93790   5.474   6.606   9.686 -0.1662 -0.3371  0.0246
60604SOL    HW193791   5.498   6.588   9.595 -2.9313  1.4113 -1.1515
60604SOL    HW293792   5.399   6.550   9.702 -0.7076  0.5611  0.6758
60605SOL     OW93793  11.989  12.632  10.898 -0.0744 -0.3751  0.2325
60605SOL    HW193794  11.924  12.695  10.866  1.3800  1.2367  0.2766
60605SOL    HW293795  11.964  12.617  10.989  0.6033  1.7014  0.8315
60606SOL     OW93796   0.230   1.382   6.374  0.0190 -0.1364 -0.0414
60606SOL    HW193797   0.266   1.332   6.447 -0.6640 -2.0638 -0.9697
60606SOL    HW293798   0.151   1.423   6.409 -1.3215 -2.5252 -0.1152
60607SOL     OW93799   2.984   6.986   6.599 -0.5317  0.0162  0.2309
60607SOL    HW193800   2.918   7.024   6.541 -0.4525  0.4973  0.4488
60607SOL    HW293801   2.958   6.894   6.608 -0.6545 -0.0154 -0.4070
60608SOL     OW93802  12.122   4.833   1.616 -0.3401 -0.2255  0.2447
60608SOL    HW193803  12.110   4.844   1.522 -0.8662  0.6105  0.4009
60608SOL    HW293804  12.180   4.757   1.624  0.7898  0.4967 -0.7840
60609SOL     OW93805   4.354  12.057   4.386 -0.3574 -0.0795  0.0434
60609SOL    HW193806   4.367  11.982   4.327  0.1670 -2.2735  2.7124
60609SOL    HW293807   4.298  12.117   4.337 -0.0395 -1.7758 -2.5986
60610SOL     OW93808   5.353   7.923  13.220  0.2939  0.5870  0.5150
60610SOL    HW193809   5.366   7.996  13.158  0.4209 -0.5561 -0.8664
60610SOL    HW293810   5.426   7.864  13.202 -0.6881 -0.6435  0.4702
60611SOL     OW93811   7.521   1.128   0.881 -0.4429 -0.4833 -0.4700
60611SOL    HW193812   7.430   1.099   0.890 -0.9930  1.0832 -0.7109
60611SOL    HW293813   7.533   1.142   0.787  0.2471 -1.2443 -0.5087
60612SOL     OW93814   9.860   8.011  11.715 -0.2209  0.3452 -0.1895
60612SOL    HW193815   9.863   7.941  11.780  0.7263  0.2996 -0.2592
60612SOL    HW293816   9.910   8.083  11.756  0.3809  0.3137 -0.8521
60613SOL     OW93817   6.949   2.890  13.465 -0.0839  0.0511 -0.2863
60613SOL    HW193818   6.873   2.831  13.460  0.7808 -1.0867 -0.2546
60613SOL    HW293819   6.991   2.882  13.379  0.8960 -0.5774  0.2341
60614SOL     OW93820   8.079  13.380  13.495  0.1450  0.0697  0.1795
60614SOL    HW193821   7.997  13.424  13.475  0.3226  0.6043  0.6301
60614SOL    HW293822   8.060  13.327  13.572  0.6610  1.4968  1.3167
60615SOL     OW93823   9.571   7.576  10.862 -0.4417 -0.3040  0.2719
60615SOL    HW193824   9.563   7.592  10.956 -1.3709  1.5663 -0.0682
60615SOL    HW293825   9.590   7.663  10.825  1.3839 -1.2393 -1.1454
60616SOL     OW93826  10.890   9.552   2.209 -0.1012 -0.0011  0.0149
60616SOL    HW193827  10.980   9.523   2.194 -0.9729 -1.4909 -3.2734
60616SOL    HW293828  10.899   9.644   2.236  2.3847  0.2168 -1.2040
60617SOL     OW93829  10.580   1.118  13.995 -0.0726 -0.5188 -0.3023
60617SOL    HW193830  10.518   1.076  14.054 -0.9525 -1.5110 -1.8653
60617SOL    HW293831  10.526   1.162  13.929  0.8523 -0.6542 -1.1884
60618SOL     OW93832   9.970   8.243   3.705  0.2023 -0.0667 -0.2984
60618SOL    HW193833   9.949   8.185   3.778 -2.4142 -0.1642 -1.0358
60618SOL    HW293834   9.926   8.325   3.726  1.4122  0.7214 -0.6849
60619SOL     OW93835   7.958   4.088  13.521  0.2350 -0.0162  0.2161
60619SOL    HW193836   7.869   4.122  13.526  0.4182  0.7696 -1.2413
60619SOL    HW293837   7.996   4.106  13.607 -1.3002 -1.2892  1.2167
60620SOL     OW93838   5.875  10.958   0.893 -0.0627 -0.5460 -0.3664
60620SOL    HW193839   5.839  10.995   0.973  1.7819 -0.3563  0.4149
60620SOL    HW293840   5.868  11.028   0.828  1.2039  0.3554  0.4552
60621SOL     OW93841   4.902  13.245   6.581 -0.2252  0.5583 -0.2594
60621SOL    HW193842   4.814  13.278   6.598 -0.4934  0.1346 -0.8276
60621SOL    HW293843   4.889  13.165   6.531  0.4937  0.7241 -0.7284
60622SOL     OW93844   4.811  10.311   1.960  0.2155  0.4993 -0.5093
60622SOL    HW193845   4.805  10.242   1.893 -0.1734 -0.3822  0.4098
60622SOL    HW293846   4.785  10.391   1.914 -1.3312 -0.3050 -1.1066
60623SOL     OW93847   3.918   5.381  12.294  0.0503 -0.0089  0.0298
60623SOL    HW193848   3.999   5.332  12.305 -0.5042 -0.6488  1.5863
60623SOL    HW293849   3.889   5.358  12.205  0.7478 -1.0515  0.0441
60624SOL     OW93850   9.757   7.658  12.463 -0.1888  0.2334  0.0942
60624SOL    HW193851   9.704   7.612  12.527 -0.0745 -0.7779 -0.5219
60624SOL    HW293852   9.756   7.749  12.492 -0.3837 -0.1558  1.3532
60625SOL     OW93853   6.038   7.417  13.787  0.6105 -0.2305 -0.4630
60625SOL    HW193854   5.996   7.349  13.735 -0.2126 -1.4137  1.6274
60625SOL    HW293855   6.114   7.375  13.825  0.4339  0.1909  0.3721
60626SOL     OW93856   6.938   2.991   9.517  0.0183 -0.3316  0.3610
60626SOL    HW193857   7.021   2.984   9.471 -0.6480  0.3284 -1.0308
60626SOL    HW293858   6.934   3.083   9.547 -1.5703  0.6613 -2.4959
60627SOL     OW93859   2.007   2.934   7.032 -0.7826  0.2043 -0.2194
60627SOL    HW193860   2.102   2.937   7.030 -0.7360  0.8521 -3.8202
60627SOL    HW293861   1.986   2.872   7.101  2.1752  0.7329  1.3106
60628SOL     OW93862   3.431  12.825   5.996 -0.1698  0.1474  0.4873
60628SOL    HW193863   3.488  12.843   6.071  0.5254  1.3987 -0.3125
60628SOL    HW293864   3.467  12.744   5.959  1.1625  0.9692 -0.0558
60629SOL     OW93865   0.049   4.618  11.063 -0.2267 -0.0157  0.0165
60629SOL    HW193866   0.031   4.525  11.070 -0.9010  0.0826 -0.2599
60629SOL    HW293867  -0.004   4.658  11.133 -0.5081  0.2154 -0.3190
60630SOL     OW93868   6.269   7.398  12.139 -0.4780 -0.0194 -0.2600
60630SOL    HW193869   6.212   7.326  12.112 -1.3385 -0.4896  2.4459
60630SOL    HW293870   6.251   7.468  12.077 -1.5150 -1.2779 -1.4489
60631SOL     OW93871   1.644   0.097  10.844 -0.0309  0.5898  0.7677
60631SOL    HW193872   1.732   0.115  10.811  0.3182  0.5105  1.6274
60631SOL    HW293873   1.591   0.085  10.766  1.1019 -1.1806  0.2337
60632SOL     OW93874   6.625   0.376  12.623  0.0004  0.4603 -0.0022
60632SOL    HW193875   6.696   0.403  12.681  0.5179 -0.9021  0.0384
60632SOL    HW293876   6.578   0.309  12.672 -2.4588  2.5482  0.6964
60633SOL     OW93877   7.329  12.245   0.609 -0.6375  0.3338 -0.4570
60633SOL    HW193878   7.329  12.267   0.702 -2.0438 -0.5368 -0.2164
60633SOL    HW293879   7.354  12.326   0.565  1.6530  0.3523  0.7241
60634SOL     OW93880   4.853  10.734   5.549  0.1694 -0.3217  0.0018
60634SOL    HW193881   4.938  10.777   5.537  0.5510 -1.3387 -1.1518
60634SOL    HW293882   4.789  10.802   5.528  0.7116  0.2451  0.1432
60635SOL     OW93883  12.309   6.394   0.791 -0.3253  0.1404 -1.0623
60635SOL    HW193884  12.282   6.313   0.835  0.1487  1.0359  1.0175
60635SOL    HW293885  12.229   6.444   0.781 -0.2039  0.7954  0.7745
60636SOL     OW93886   4.512   5.983   4.882 -0.0359 -0.2661 -0.3800
60636SOL    HW193887   4.569   6.060   4.885 -0.3550 -0.0349 -0.1826
60636SOL    HW293888   4.490   5.966   4.974 -0.6406 -0.0874 -0.4869
60637SOL     OW93889   4.381   6.410   2.255 -0.1523  0.3147  0.1390
60637SOL    HW193890   4.409   6.500   2.267 -0.1212  0.2710  0.4006
60637SOL    HW293891   4.351   6.406   2.164  1.1715  0.2354 -0.3119
60638SOL     OW93892   8.109   1.571  11.553 -0.1858  0.2849 -0.0991
60638SOL    HW193893   8.103   1.477  11.533  0.8457  0.4472 -1.3532
60638SOL    HW293894   8.030   1.608  11.513 -0.1935  0.0587 -0.3005
60639SOL     OW93895   7.925   4.769   6.819  0.2422  0.7369  0.4835
60639SOL    HW193896   7.868   4.811   6.883 -1.3994 -2.2952  1.2329
60639SOL    HW293897   7.982   4.713   6.872  0.6225  0.1219 -0.5571
60640SOL     OW93898  10.216  10.795  11.569 -0.0640 -0.7075 -0.0549
60640SOL    HW193899  10.257  10.876  11.600 -2.1615 -0.3309  1.9488
60640SOL    HW293900  10.247  10.786  11.479  2.9460  0.4562  0.7375
60641SOL     OW93901   4.594   5.825  13.388 -0.1259  0.5092  0.2666
60641SOL    HW193902   4.650   5.748  13.374  0.5553  1.3547 -2.1474
60641SOL    HW293903   4.587   5.832  13.483  1.4544 -1.3429  0.5971
60642SOL     OW93904   6.159  11.783   0.992 -0.0303 -0.2032 -0.3674
60642SOL    HW193905   6.154  11.740   1.078 -0.0957  0.3455 -0.0920
60642SOL    HW293906   6.068  11.787   0.962 -0.3983  2.1653  0.8368
60643SOL     OW93907   0.411   9.023   8.594 -0.2710 -0.5148 -0.1683
60643SOL    HW193908   0.397   9.118   8.595  2.6853  0.0381 -0.3219
60643SOL    HW293909   0.482   9.010   8.658 -0.2524 -2.5530 -0.5573
60644SOL     OW93910   4.960  13.433   1.423  0.1260 -0.0883  0.2929
60644SOL    HW193911   5.032  13.420   1.485  1.4118  1.8890 -0.7040
60644SOL    HW293912   4.991  13.396   1.341 -1.1120 -1.6290  0.4619
60645SOL     OW93913   7.488   1.595   7.555  0.2031  0.3106  0.0813
60645SOL    HW193914   7.534   1.679   7.563 -0.3892  0.6862 -0.3573
60645SOL    HW293915   7.465   1.589   7.462  0.9777 -0.7392 -0.0564
60646SOL     OW93916   5.552   8.570   2.501 -0.4927  0.1136  0.3069
60646SOL    HW193917   5.642   8.590   2.525 -1.1357  1.1058  2.0865
60646SOL    HW293918   5.545   8.598   2.410  0.9360  0.1805  0.1961
60647SOL     OW93919  11.645   8.336   8.977 -0.2317 -0.0644 -0.5860
60647SOL    HW193920  11.634   8.373   9.064  0.3655  1.2705 -1.0512
60647SOL    HW293921  11.557   8.311   8.950 -0.5645  0.4691 -0.0060
60648SOL     OW93922   8.293   3.185  10.281  0.1113 -0.0168  0.4063
60648SOL    HW193923   8.237   3.173  10.205 -0.7006  2.7263  0.4517
60648SOL    HW293924   8.382   3.174  10.248 -0.2667  0.2607 -0.7414
60649SOL     OW93925   4.703   6.415  11.522  0.7832  0.6893  0.5349
60649SOL    HW193926   4.668   6.379  11.604 -0.3750 -2.2489 -1.0937
60649SOL    HW293927   4.705   6.509  11.536 -0.5402  0.3869  3.4959
60650SOL     OW93928   2.120   8.191   3.815 -0.2700 -0.6228 -0.9280
60650SOL    HW193929   2.193   8.214   3.873 -1.8672 -0.0436  0.9698
60650SOL    HW293930   2.096   8.274   3.774 -0.4866 -0.6206 -0.7964
60651SOL     OW93931  10.579   4.136  12.136 -0.4467 -0.4112  0.4671
60651SOL    HW193932  10.576   4.210  12.197 -0.2613 -0.3260  0.3744
60651SOL    HW293933  10.492   4.097  12.141 -0.7069  0.1138  0.1389
60652SOL     OW93934   3.577   2.462   9.573 -0.2586 -0.5247 -0.2018
60652SOL    HW193935   3.482   2.472   9.579 -0.2393 -0.7290  0.5729
60652SOL    HW293936   3.590   2.377   9.531 -0.4210 -0.5065 -0.2877
60653SOL     OW93937  11.746   1.237   1.204 -0.5505  0.3809  0.0868
60653SOL    HW193938  11.793   1.242   1.287 -1.2954  0.8001  0.4893
60653SOL    HW293939  11.807   1.273   1.140 -0.3820  1.0871  0.6282
60654SOL     OW93940  10.856   2.284   1.755 -0.4355 -1.3011  0.3736
60654SOL    HW193941  10.841   2.289   1.850 -3.4824  0.3166 -0.0606
60654SOL    HW293942  10.887   2.194   1.741  0.7118 -1.4091  2.9157
60655SOL     OW93943  12.273   5.560  12.786  0.2511  0.2497  0.2510
60655SOL    HW193944  12.328   5.621  12.737 -0.3867  1.1559  0.6122
60655SOL    HW293945  12.198   5.614  12.814 -0.6257 -0.8463  0.0847
60656SOL     OW93946   5.847   7.256   6.546 -0.1839  0.4670 -0.0561
60656SOL    HW193947   5.790   7.209   6.486  0.1092  2.0362 -1.6313
60656SOL    HW293948   5.809   7.343   6.553  0.8752  0.9022  0.5200
60657SOL     OW93949   2.154  12.761   9.372 -0.3952  0.3888  1.0166
60657SOL    HW193950   2.108  12.778   9.454  0.2131 -0.0348  1.4458
60657SOL    HW293951   2.229  12.821   9.374 -1.0706  1.3111  0.1704
60658SOL     OW93952  13.613   7.583   4.068 -0.4895 -0.2408  0.7740
60658SOL    HW193953  13.636   7.575   3.976 -0.7539  0.7971  0.6108
60658SOL    HW293954  13.611   7.492   4.100  3.1208 -0.4761  0.6538
60659SOL     OW93955  12.511  10.782   6.163 -0.0732 -0.1382  0.2760
60659SOL    HW193956  12.453  10.857   6.152  1.4919  0.9028 -1.6152
60659SOL    HW293957  12.495  10.727   6.086  1.3635  0.1524 -0.2579
60660SOL     OW93958   4.542   5.152  13.607 -0.3511  0.1133  0.1220
60660SOL    HW193959   4.543   5.068  13.561 -0.6160 -0.2309  0.7343
60660SOL    HW293960   4.459   5.193  13.581 -0.3474  0.0670  0.0367
60661SOL     OW93961   5.611   5.041   2.901 -0.6529 -0.3300  0.8642
60661SOL    HW193962   5.601   5.110   2.967 -0.9063  0.0057  0.4848
60661SOL    HW293963   5.578   4.962   2.943 -0.9424 -0.0901  1.0914
60662SOL     OW93964   3.016   3.267   1.092  0.6273  1.0506 -1.1476
60662SOL    HW193965   2.990   3.187   1.139 -0.9066  2.1234 -0.0433
60662SOL    HW293966   2.973   3.260   1.007 -0.4325  1.1838 -0.6385
60663SOL     OW93967  11.375   5.294   8.657 -0.0281  0.4500  0.4998
60663SOL    HW193968  11.385   5.381   8.697  0.4791  0.6306 -0.0144
60663SOL    HW293969  11.379   5.310   8.563 -1.6009  0.0814  0.3293
60664SOL     OW93970   1.306   1.324   6.829  0.1059  0.4457  0.0661
60664SOL    HW193971   1.264   1.335   6.914  0.4543 -1.0677  0.4627
60664SOL    HW293972   1.279   1.237   6.800  0.9326  0.4755 -0.8332
60665SOL     OW93973  13.274   7.423   1.306 -0.2470  0.3183 -0.6845
60665SOL    HW193974  13.231   7.364   1.368  0.6498  0.6832  0.3062
60665SOL    HW293975  13.311   7.364   1.239  2.3013 -0.4908  1.2912
60666SOL     OW93976   4.880  13.901   0.564 -0.2109  0.2311  0.2686
60666SOL    HW193977   4.949  13.938   0.619 -1.1626  0.3809  1.4231
60666SOL    HW293978   4.808  13.883   0.625 -1.3755  0.5342 -0.9519
60667SOL     OW93979   4.100   2.685  10.251  0.0241 -0.4381  0.4055
60667SOL    HW193980   4.022   2.708  10.302 -1.6378  0.5905 -2.3931
60667SOL    HW293981   4.159   2.760  10.263 -0.0653 -0.4891  1.2602
60668SOL     OW93982   0.394   6.492   9.731  0.0039  0.6987  0.3057
60668SOL    HW193983   0.302   6.510   9.711 -0.3159 -0.4322  0.6772
60668SOL    HW293984   0.394   6.402   9.764  1.4432  0.1167 -1.1443
60669SOL     OW93985   8.809   6.074   5.225 -0.3368 -0.2661 -0.2552
60669SOL    HW193986   8.724   6.073   5.183 -0.3777  0.1445 -0.1839
60669SOL    HW293987   8.803   6.005   5.292 -1.1160  0.6968  0.7188
60670SOL     OW93988   3.075   1.581  10.372 -0.1132 -0.2050 -0.1112
60670SOL    HW193989   3.035   1.650  10.425  2.6170  0.7586  0.8771
60670SOL    HW293990   3.152   1.554  10.422 -0.5715 -3.4135 -0.9042
60671SOL     OW93991   7.355   1.166  12.125  0.0950  0.0579  0.6366
60671SOL    HW193992   7.350   1.073  12.104  0.1637 -0.3377  2.2658
60671SOL    HW293993   7.402   1.170  12.208 -0.1121  1.5305  0.7099
60672SOL     OW93994   3.511   8.692   8.915  0.2944  0.0956  0.2639
60672SOL    HW193995   3.522   8.766   8.855 -0.9348  1.4486  1.6214
60672SOL    HW293996   3.440   8.718   8.973  0.6490 -1.6532  1.5818
60673SOL     OW93997   5.217  10.795   4.863 -0.2834 -0.0149 -0.8519
60673SOL    HW193998   5.182  10.872   4.818  0.1041  0.3030 -0.6178
60673SOL    HW293999   5.294  10.770   4.812  0.8978  1.0957  0.2888
60674SOL     OW94000   6.258   0.293   5.200  0.1277  0.1813  0.4214
60674SOL    HW194001   6.339   0.277   5.152 -0.2275 -1.5076  0.3393
60674SOL    HW294002   6.192   0.304   5.131 -0.5464 -3.0788  0.3754
60675SOL     OW94003   6.222   5.302  11.054  0.3338 -0.0292 -0.1301
60675SOL    HW194004   6.224   5.210  11.081  3.4753 -0.4748 -1.4688
60675SOL    HW294005   6.185   5.300  10.966  1.2870 -0.1629 -0.5360
60676SOL     OW94006  13.574  12.069   7.281  0.3120  0.4346  0.7100
60676SOL    HW194007  13.607  12.094   7.367 -0.1171 -1.4304  1.4685
60676SOL    HW294008  13.626  11.992   7.257 -0.3413  0.2488 -0.1848
60677SOL     OW94009   8.275   5.921   5.342 -0.4656  0.6392  0.5402
60677SOL    HW194010   8.269   5.857   5.271 -0.0773  1.3344 -0.1379
60677SOL    HW294011   8.243   6.003   5.303 -1.5599  0.7340  1.5714
60678SOL     OW94012   7.874   2.569   1.383 -0.0885 -0.3235  0.1488
60678SOL    HW194013   7.788   2.588   1.345  0.9463 -1.3681 -3.0656
60678SOL    HW294014   7.931   2.638   1.350  0.5318 -0.2023  1.4232
60679SOL     OW94015   3.001   5.876   0.692 -0.0978 -0.1255 -0.6929
60679SOL    HW194016   3.081   5.901   0.645 -0.7793  1.7436 -0.9576
60679SOL    HW294017   3.008   5.919   0.777  0.3014 -2.0327  0.2981
60680SOL     OW94018   8.129   6.436   6.072 -0.1676  0.0232  0.4689
60680SOL    HW194019   8.217   6.399   6.082  0.5914  1.8046  0.6515
60680SOL    HW294020   8.127   6.509   6.133 -2.3322 -0.9055  1.5861
60681SOL     OW94021   5.233   1.286   2.517 -0.6566  0.0403 -0.2288
60681SOL    HW194022   5.325   1.294   2.542 -0.7149  0.6508 -0.1824
60681SOL    HW294023   5.232   1.300   2.422 -0.7987  0.9754 -0.1010
60682SOL     OW94024  12.751   5.270  10.200  0.6770  0.6107 -0.0558
60682SOL    HW194025  12.722   5.328  10.130 -0.7615  1.0319  0.8485
60682SOL    HW294026  12.833   5.308  10.231  2.3123 -0.5464 -2.6008
60683SOL     OW94027   8.677  11.667   8.527 -0.7266 -0.1358  0.0795
60683SOL    HW194028   8.706  11.710   8.607 -1.9633  0.6593  0.1234
60683SOL    HW294029   8.756  11.657   8.474 -0.3385  1.8076  0.2494
60684SOL     OW94030  12.344   0.108   0.759  0.9972  0.6649 -0.0119
60684SOL    HW194031  12.427   0.154   0.747  1.7574 -0.9185 -1.2489
60684SOL    HW294032  12.293   0.128   0.680  0.6604  0.7363  0.2226
60685SOL     OW94033   1.831   8.070   8.652  0.1610 -0.0516 -0.3421
60685SOL    HW194034   1.882   8.056   8.732 -1.7160  0.0197  0.9204
60685SOL    HW294035   1.895   8.103   8.589  1.6277  0.2861  1.2354
60686SOL     OW94036   7.966   7.445   2.498  0.6809  0.1140  0.5416
60686SOL    HW194037   7.893   7.441   2.560 -2.3183  1.4070 -2.5273
60686SOL    HW294038   7.988   7.354   2.481 -0.1287 -0.3162  1.6704
60687SOL     OW94039   3.783   8.825   2.708  0.0803  0.0574  0.1293
60687SOL    HW194040   3.693   8.795   2.698 -0.6907  2.4038 -0.6496
60687SOL    HW294041   3.814   8.840   2.618  0.2238  1.9368  0.4504
60688SOL     OW94042  14.028  12.861  10.765  0.0290 -0.0988  0.0016
60688SOL    HW194043  13.992  12.844  10.678  0.7240 -0.8730 -0.1606
60688SOL    HW294044  13.991  12.792  10.820  0.3732 -0.2262  0.0814
60689SOL     OW94045   3.164   8.563  13.737  0.0886  0.1020 -0.3452
60689SOL    HW194046   3.163   8.474  13.703  0.8794 -0.4186  0.9203
60689SOL    HW294047   3.219   8.612  13.675 -0.2558 -0.3092 -0.9831
60690SOL     OW94048   6.365   5.792  13.282 -0.3012  0.4440 -0.4966
60690SOL    HW194049   6.421   5.836  13.218 -0.5586  0.5911 -0.6166
60690SOL    HW294050   6.301   5.744  13.230  0.9195 -1.3593 -0.4274
60691SOL     OW94051   9.994   3.548   8.394  0.1255 -1.0570  0.3762
60691SOL    HW194052   9.983   3.614   8.325 -0.7257 -1.4743  0.0936
60691SOL    HW294053   9.938   3.578   8.465 -0.3568 -1.5178  0.2022
60692SOL     OW94054  13.371  13.952   5.025 -0.0136  0.7569  0.2420
60692SOL    HW194055  13.419  13.982   5.102  2.1958  0.8371 -1.0986
60692SOL    HW294056  13.290  14.004   5.027 -0.8769 -0.4696  3.3998
60693SOL     OW94057   7.603   2.337  10.646 -0.0961 -0.3143  0.0590
60693SOL    HW194058   7.532   2.275  10.630 -1.0864  0.9066 -0.4467
60693SOL    HW294059   7.559   2.416  10.680  0.7392  1.1631 -2.0497
60694SOL     OW94060   4.780   8.202  13.292  0.2042 -0.4726  0.1689
60694SOL    HW194061   4.698   8.180  13.336  0.6089 -0.8460  0.7354
60694SOL    HW294062   4.846   8.202  13.361  0.9659 -1.7057 -0.5326
60695SOL     OW94063   7.349   2.106   9.249 -0.0859 -0.5003  0.1413
60695SOL    HW194064   7.342   2.116   9.154  1.2479  0.1622  0.0813
60695SOL    HW294065   7.385   2.189   9.279 -2.6809  0.2388  1.5571
60696SOL     OW94066  13.144   1.242   4.280 -0.4397 -0.3930 -0.5808
60696SOL    HW194067  13.219   1.298   4.259 -0.3310 -1.1228 -2.3363
60696SOL    HW294068  13.178   1.153   4.268 -1.2093 -0.7724  0.0134
60697SOL     OW94069   5.808   2.160   5.011  0.3030 -0.0075  0.0192
60697SOL    HW194070   5.823   2.107   4.933  1.6706  0.3980 -0.0200
60697SOL    HW294071   5.876   2.132   5.073  0.7462  1.3364  0.1766
60698SOL     OW94072   9.264  11.933   8.753 -0.0774 -0.6749  0.0847
60698SOL    HW194073   9.284  11.981   8.833  2.4803 -0.9891 -0.2945
60698SOL    HW294074   9.212  11.995   8.700  0.5950  0.5630  0.8323
60699SOL     OW94075   2.172   1.859   0.908 -0.1283  0.0893  0.4054
60699SOL    HW194076   2.087   1.820   0.889  0.0437 -0.0176 -0.1533
60699SOL    HW294077   2.152   1.936   0.961 -0.6262  0.5155 -0.3942
60700SOL     OW94078  11.846  11.593   5.497  0.3719  0.1063 -0.1288
60700SOL    HW194079  11.864  11.528   5.429  1.5142  1.0152 -0.7290
60700SOL    HW294080  11.852  11.544   5.579  0.5995 -0.6711 -0.5936
60701SOL     OW94081   7.078  13.185   1.751  0.5406 -0.3557  0.0737
60701SOL    HW194082   7.000  13.184   1.696  0.3385  1.6671  0.2438
60701SOL    HW294083   7.148  13.213   1.691  0.4684  1.0712  0.6092
60702SOL     OW94084   1.049   9.683  12.976  0.7267 -0.3499  0.0819
60702SOL    HW194085   1.068   9.719  12.890  1.4116 -0.9513 -0.0294
60702SOL    HW294086   1.098   9.739  13.036 -2.7298  2.5040  0.5285
60703SOL     OW94087  13.468  11.224  12.633 -0.4617 -0.2477 -0.2133
60703SOL    HW194088  13.515  11.141  12.621  1.1688  0.4045  1.2198
60703SOL    HW294089  13.507  11.263  12.712 -1.8177  1.4569 -0.3204
60704SOL     OW94090  11.398   5.447   2.587 -0.1057 -0.7558 -0.2692
60704SOL    HW194091  11.396   5.451   2.491  1.4388 -1.2783 -0.3488
60704SOL    HW294092  11.313   5.480   2.614 -0.5328 -0.5101 -1.8227
60705SOL     OW94093   6.814  10.164   6.226  0.5377  0.3307 -0.0626
60705SOL    HW194094   6.749  10.146   6.158  0.9326 -0.0693 -0.3393
60705SOL    HW294095   6.762  10.169   6.307  0.2637 -1.0323 -0.1214
60706SOL     OW94096   6.161  11.153  11.505  0.1686 -0.5181 -0.1393
60706SOL    HW194097   6.075  11.182  11.475  0.4912 -0.1021 -0.6551
60706SOL    HW294098   6.150  11.142  11.600  0.5201  3.0330  0.4195
60707SOL     OW94099   8.123   0.207   7.373 -0.1214  0.0349 -0.6600
60707SOL    HW194100   8.065   0.281   7.391 -0.6837 -0.4241 -0.5713
60707SOL    HW294101   8.207   0.233   7.411 -0.2470  0.7319 -0.8498
60708SOL     OW94102   1.544   3.091  10.095  0.8468  0.2914  0.3095
60708SOL    HW194103   1.465   3.040  10.111  1.9779 -0.8633  2.9415
60708SOL    HW294104   1.531   3.171  10.146  0.4095  1.2557 -1.2469
60709SOL     OW94105   0.491   2.596   6.828 -0.5349 -0.0004  0.3538
60709SOL    HW194106   0.477   2.621   6.919 -1.4620 -3.9089  1.4554
60709SOL    HW294107   0.584   2.576   6.823 -0.5456 -0.0851  0.5077
60710SOL     OW94108   5.061  11.886   5.891  0.3503 -0.0960  0.3957
60710SOL    HW194109   4.991  11.943   5.923  1.6002  1.8898 -0.2948
60710SOL    HW294110   5.080  11.917   5.803  1.1672 -1.5134  0.0405
60711SOL     OW94111   5.382  11.685  13.881 -0.4811  0.7793  0.2452
60711SOL    HW194112   5.471  11.665  13.854  0.0660  2.3232  0.8056
60711SOL    HW294113   5.344  11.730  13.806 -1.3624 -1.2112 -0.6022
60712SOL     OW94114  11.298  10.168  12.695  0.2661 -0.2265 -0.2357
60712SOL    HW194115  11.314  10.093  12.640 -2.0435 -1.3436  0.4840
60712SOL    HW294116  11.273  10.131  12.780 -1.0363  1.3180  0.1073
60713SOL     OW94117   6.615  11.569   9.073 -0.0582 -0.0742 -0.0600
60713SOL    HW194118   6.614  11.566   9.168 -0.4489  0.0251 -0.0578
60713SOL    HW294119   6.643  11.658   9.052 -2.0454  0.6158 -0.0091
60714SOL     OW94120  12.761   6.018   1.840  0.5047  0.3868 -0.4516
60714SOL    HW194121  12.831   6.000   1.903 -0.3281  0.5138  0.5498
60714SOL    HW294122  12.784   6.101   1.800  1.2014  0.1549 -0.5427
60715SOL     OW94123   8.607  12.532   4.895  0.3060 -0.5942 -0.1806
60715SOL    HW194124   8.600  12.597   4.965 -3.7986 -0.7365 -0.2418
60715SOL    HW294125   8.620  12.449   4.941 -1.8199 -0.6151  0.4694
60716SOL     OW94126   7.705  12.714  13.810 -0.5057  0.2496  0.2574
60716SOL    HW194127   7.793  12.708  13.773 -0.3706  0.0125  0.6121
60716SOL    HW294128   7.714  12.775  13.883 -0.1424 -1.4428  1.6924
60717SOL     OW94129   1.138   4.033  13.698 -0.2437  0.2759 -0.3838
60717SOL    HW194130   1.223   3.994  13.718  1.2123  2.1457 -2.4664
60717SOL    HW294131   1.107   3.986  13.621 -0.9439 -0.1364  0.1380
60718SOL     OW94132   6.079  11.988  13.406 -0.4477 -0.1708 -0.3507
60718SOL    HW194133   6.069  11.894  13.388 -0.0928 -0.0594 -1.2113
60718SOL    HW294134   6.153  12.014  13.351  0.3209  0.3412  0.8962
60719SOL     OW94135   2.869   0.266   6.143  0.2365  0.0190 -0.4677
60719SOL    HW194136   2.815   0.200   6.187 -0.1826  0.2442 -0.6394
60719SOL    HW294137   2.904   0.221   6.066 -2.0224  0.6543 -1.9677
60720SOL     OW94138  10.017  12.226   4.290 -0.2395  0.7168 -0.0696
60720SOL    HW194139  10.097  12.190   4.329  0.0629  1.6518  0.2073
60720SOL    HW294140   9.960  12.245   4.365  0.2775  2.3699 -0.0390
60721SOL     OW94141  11.695   2.974   9.172 -0.5992 -0.1570 -0.1728
60721SOL    HW194142  11.746   2.903   9.132  1.4548  2.2403 -2.1754
60721SOL    HW294143  11.636   3.003   9.103 -0.1506  1.1777 -0.0274
60722SOL     OW94144   2.545   5.724   3.558 -0.7330 -0.0745  0.0192
60722SOL    HW194145   2.546   5.629   3.563 -0.0171 -0.1347 -1.0212
60722SOL    HW294146   2.454   5.747   3.541 -0.5691 -0.7166 -1.8883
60723SOL     OW94147   1.428   4.701  10.785 -0.2077 -0.7084 -0.3019
60723SOL    HW194148   1.376   4.628  10.752 -0.0019 -0.8237 -0.3730
60723SOL    HW294149   1.364   4.761  10.823 -0.4185 -0.7100 -0.6566
60724SOL     OW94150   3.571   3.551  13.758  0.6008 -0.4204  0.0979
60724SOL    HW194151   3.593   3.644  13.761  1.4400 -0.5470 -1.2425
60724SOL    HW294152   3.497   3.542  13.818 -1.3397  1.6686 -1.7778
60725SOL     OW94153   0.373   2.152   0.792  0.7093 -0.4158 -0.0828
60725SOL    HW194154   0.299   2.104   0.830  0.9531  0.0128  0.9677
60725SOL    HW294155   0.414   2.090   0.732 -0.9283 -0.4246 -1.2619
60726SOL     OW94156   4.348   7.958  10.854  0.1987  0.4112 -0.3596
60726SOL    HW194157   4.423   7.919  10.810  0.5427 -0.0903  0.6495
60726SOL    HW294158   4.327   7.898  10.926 -1.0735  0.6159 -0.5258
60727SOL     OW94159  11.125   1.079   8.998 -0.2275  0.6477 -0.5099
60727SOL    HW194160  11.186   1.010   8.971  1.3554  2.2265 -1.0831
60727SOL    HW294161  11.159   1.159   8.960 -2.6430  1.6361 -0.7906
60728SOL     OW94162  11.738   3.859  13.248  0.3377  0.6776  0.0318
60728SOL    HW194163  11.727   3.818  13.334  2.1215 -3.1371 -1.3237
60728SOL    HW294164  11.665   3.824  13.196  0.3341  1.4526 -0.4958
60729SOL     OW94165   5.586  12.552   8.443  0.1208  0.0225 -0.2624
60729SOL    HW194166   5.679  12.566   8.464  0.1148  0.8961 -0.7680
60729SOL    HW294167   5.587  12.498   8.365  0.1732 -1.1231  0.5054
60730SOL     OW94168   0.403   3.953  12.860 -0.0917 -0.0877  0.4202
60730SOL    HW194169   0.458   3.875  12.848  0.8304  0.6383 -0.2063
60730SOL    HW294170   0.329   3.938  12.801  0.1043 -0.4723  0.2630
60731SOL     OW94171  12.351   9.471   6.689  0.4145 -0.0273 -0.3063
60731SOL    HW194172  12.284   9.407   6.666  0.4264 -0.0430 -0.2971
60731SOL    HW294173  12.303   9.553   6.701  0.4705  0.0982 -0.9015
60732SOL     OW94174   4.680   8.606   3.365 -0.3701 -0.1667 -0.1329
60732SOL    HW194175   4.659   8.658   3.443  0.4564  1.5903 -1.0141
60732SOL    HW294176   4.623   8.642   3.297  0.9304  0.3045 -1.0075
60733SOL     OW94177   4.220  11.912  12.008  0.2196  0.2905  0.2663
60733SOL    HW194178   4.167  11.900  11.929  0.2108  2.5315 -0.1226
60733SOL    HW294179   4.286  11.843  12.003  0.4343  0.5871 -1.9156
60734SOL     OW94180   1.065   3.993   1.797  0.3151  0.1113  0.1836
60734SOL    HW194181   1.093   4.014   1.708 -1.5049  0.7165 -0.3009
60734SOL    HW294182   1.089   4.070   1.848 -0.9625  0.9007 -0.3559
60735SOL     OW94183   0.174   9.240  12.740 -0.3012  0.1033 -0.2240
60735SOL    HW194184   0.263   9.219  12.713 -0.4960  0.3920 -1.1242
60735SOL    HW294185   0.162   9.193  12.822 -0.0076 -1.6411 -1.1287
60736SOL     OW94186   0.727  10.509   0.010 -0.0876 -0.4671 -0.1464
60736SOL    HW194187   0.631  10.510   0.003 -0.0235  0.7606 -1.0611
60736SOL    HW294188   0.752  10.425  -0.029 -0.8190 -1.0819  0.6682
60737SOL     OW94189   9.936   8.380   6.192 -0.1114 -0.1053  0.0401
60737SOL    HW194190  10.003   8.444   6.167 -1.5776  0.8933 -1.5401
60737SOL    HW294191   9.977   8.295   6.179  1.9705  0.4269  2.4093
60738SOL     OW94192   9.262   1.029   2.587  0.3142  0.0743 -0.1769
60738SOL    HW194193   9.278   1.109   2.637  1.3107 -1.4012  2.0361
60738SOL    HW294194   9.324   1.033   2.514  1.1915  0.7884  0.5837
60739SOL     OW94195   8.657   0.534   3.610 -0.0208 -0.0911 -0.5975
60739SOL    HW194196   8.733   0.587   3.636 -0.3679  0.0939  0.0484
60739SOL    HW294197   8.590   0.598   3.585 -0.5552 -0.1994  0.4973
60740SOL     OW94198   4.166   0.418   3.060 -0.6791 -0.0260 -0.0674
60740SOL    HW194199   4.213   0.501   3.054  2.7295 -1.0262  5.5500
60740SOL    HW294200   4.089   0.437   3.114 -0.9980 -0.2185 -0.4487
60741SOL     OW94201   7.619   3.689  12.125 -1.0397 -0.6037  0.1941
60741SOL    HW194202   7.562   3.615  12.142 -1.7603  0.1566  1.2557
60741SOL    HW294203   7.630   3.731  12.211 -0.6910  0.5367 -0.3863
60742SOL     OW94204  10.365  13.757   8.042 -0.6300  0.0091 -0.1521
60742SOL    HW194205  10.312  13.797   7.973 -0.5179 -0.6588 -0.6363
60742SOL    HW294206  10.454  13.787   8.024 -0.7701  0.7476  0.3784
60743SOL     OW94207   9.937   6.946  13.657  0.1497 -0.5485 -0.5364
60743SOL    HW194208   9.904   6.869  13.703  1.8093 -1.0734 -0.1623
60743SOL    HW294209   9.979   6.911  13.578  0.0092  0.0663 -0.8911
60744SOL     OW94210   2.395  10.096   7.295 -0.0816  0.0833 -0.1142
60744SOL    HW194211   2.384  10.142   7.378  0.2282  1.6648 -0.8968
60744SOL    HW294212   2.488  10.077   7.290 -0.0262  0.4001 -0.3005
60745SOL     OW94213   5.205   3.329   7.309 -0.1377  0.5861 -0.6226
60745SOL    HW194214   5.241   3.350   7.396 -0.1305  0.2377 -0.5412
60745SOL    HW294215   5.112   3.349   7.316  0.0137  1.3966 -0.8029
60746SOL     OW94216   5.276  10.709   8.888  0.1290  0.6497 -0.1322
60746SOL    HW194217   5.362  10.718   8.847  0.5460 -2.6761 -0.3049
60746SOL    HW294218   5.225  10.783   8.855  2.4334  1.8150 -1.2945
60747SOL     OW94219  11.914   3.106   7.485  0.4298 -0.2041  0.2598
60747SOL    HW194220  11.938   3.056   7.407  0.1122 -0.6395  0.4387
60747SOL    HW294221  11.867   3.182   7.451  0.4858 -0.2788  0.0156
60748SOL     OW94222   0.168   6.216   6.758 -0.4159 -0.0329  0.0015
60748SOL    HW194223   0.142   6.302   6.727 -0.3368  0.1866  0.5330
60748SOL    HW294224   0.089   6.162   6.752 -0.5322  0.1469 -0.0680
60749SOL     OW94225  13.880   5.784  10.102  0.0949  0.0735  0.5094
60749SOL    HW194226  13.878   5.688  10.102  0.1342  0.0056 -1.6137
60749SOL    HW294227  13.961   5.807  10.146  2.4464 -1.1176 -2.7412
60750SOL     OW94228   5.127   8.849   3.729  0.0962  0.1509  0.1129
60750SOL    HW194229   5.197   8.793   3.763  0.5836  0.1932 -0.8000
60750SOL    HW294230   5.050   8.824   3.780  0.6981 -0.1095  0.9241
60751SOL     OW94231   9.920   0.870   5.796 -0.0481 -0.8131 -0.3501
60751SOL    HW194232   9.976   0.869   5.874  0.3851  1.8256 -0.5615
60751SOL    HW294233   9.967   0.815   5.733  1.3903 -0.1334  0.0884
60752SOL     OW94234   1.249  11.036   6.048  0.3413  0.4067 -0.1681
60752SOL    HW194235   1.339  11.060   6.023  0.3904  0.8377  0.4047
60752SOL    HW294236   1.194  11.084   5.987  0.4854  0.6396 -0.1168
60753SOL     OW94237   7.671   9.903  11.348  0.2717  0.0495 -0.9127
60753SOL    HW194238   7.577   9.889  11.362  0.3437 -2.1222 -2.0170
60753SOL    HW294239   7.692   9.848  11.272  2.1289  1.8100 -1.7706
60754SOL     OW94240   9.093   4.704  13.145 -0.1887 -0.2432 -0.2264
60754SOL    HW194241   9.173   4.703  13.196  1.4054  0.9550 -2.5013
60754SOL    HW294242   9.064   4.796  13.148 -0.8514 -0.4488 -0.2799
60755SOL     OW94243  10.476   3.693   0.743 -0.3514 -0.4206  0.2504
60755SOL    HW194244  10.498   3.601   0.736 -0.2910 -0.4050  0.2344
60755SOL    HW294245  10.554   3.739   0.712  0.4685 -0.3195  2.2873
60756SOL     OW94246  13.106   3.246   6.193 -0.6655 -0.1384  0.0691
60756SOL    HW194247  13.191   3.208   6.214 -0.2117  0.3046 -0.8566
60756SOL    HW294248  13.086   3.304   6.267  0.9416  1.5011 -0.6857
60757SOL     OW94249   6.908   2.571   0.686 -0.5060 -0.0600  0.1516
60757SOL    HW194250   6.974   2.623   0.640  0.3384 -1.7582 -0.6370
60757SOL    HW294251   6.825   2.613   0.662 -0.0317 -0.2938 -2.2201
60758SOL     OW94252   8.049   4.827   4.330  0.0798 -0.0179  0.2266
60758SOL    HW194253   8.019   4.747   4.286  0.2492 -0.3442  0.6984
60758SOL    HW294254   7.982   4.844   4.396  0.3736 -0.1376  0.5592
60759SOL     OW94255   1.352   5.309   9.386  0.0064 -0.1408  0.2869
60759SOL    HW194256   1.260   5.326   9.405  0.3172  0.6560  1.1746
60759SOL    HW294257   1.353   5.276   9.296 -1.2075 -0.8489  0.5180
60760SOL     OW94258   4.013  12.955   7.013  0.3800 -0.2416 -0.4364
60760SOL    HW194259   3.977  13.016   6.948 -0.6062 -1.1559 -0.7792
60760SOL    HW294260   3.973  12.981   7.096  0.4250 -0.0532 -0.4737
60761SOL     OW94261   7.581   7.017   4.218  0.0620 -0.3494  0.0780
60761SOL    HW194262   7.503   7.064   4.246 -0.1244 -0.7474  0.2419
60761SOL    HW294263   7.653   7.056   4.267  0.1629  0.8939 -1.0232
60762SOL     OW94264   2.387   5.861  10.689 -0.3796  0.4003  0.5476
60762SOL    HW194265   2.433   5.834  10.768  1.1560  1.2658 -0.0205
60762SOL    HW294266   2.443   5.833  10.617 -0.6223  1.6455 -0.1607
60763SOL     OW94267   7.138   9.980   5.780  0.5309 -0.1225  0.1516
60763SOL    HW194268   7.046  10.001   5.772  0.3979 -0.8926 -0.4913
60763SOL    HW294269   7.166  10.023   5.861 -0.1786  0.8097 -0.0900
60764SOL     OW94270   5.732  10.401   0.489 -0.2468 -0.1668 -0.0826
60764SOL    HW194271   5.786  10.477   0.513  1.5218 -1.7382  1.2525
60764SOL    HW294272   5.788  10.325   0.507 -1.4760 -1.7955 -2.5014
60765SOL     OW94273   4.577  10.952   4.104  0.4410  0.4769  0.0594
60765SOL    HW194274   4.516  10.992   4.043 -0.7611 -0.6203  0.5068
60765SOL    HW294275   4.545  10.978   4.191  0.5259 -0.1978  0.2993
60766SOL     OW94276   4.866  12.773   8.616 -0.5685  0.0827  0.1219
60766SOL    HW194277   4.871  12.713   8.542 -0.9138 -0.8507  0.8439
60766SOL    HW294278   4.783  12.820   8.603 -1.3892 -1.1477  0.6874
60767SOL     OW94279  12.808   4.869   9.144 -0.0040 -0.2102  0.5403
60767SOL    HW194280  12.841   4.833   9.226  1.4491  0.1513  0.1393
60767SOL    HW294281  12.858   4.824   9.076  0.8734  1.5255 -0.0213
60768SOL     OW94282  11.790   1.024  13.192  0.3806  0.1536  0.2848
60768SOL    HW194283  11.733   0.951  13.168 -2.0755  1.8902  0.5437
60768SOL    HW294284  11.803   1.013  13.287 -2.0278  1.3235  0.8135
60769SOL     OW94285  11.582   8.419   6.067 -0.2775  0.2912  0.0387
60769SOL    HW194286  11.675   8.438   6.080 -0.7533  2.3547  0.8617
60769SOL    HW294287  11.565   8.438   5.975 -0.3995  2.7029  0.4898
60770SOL     OW94288   4.531  10.171  13.376  0.4249  0.7197  0.0613
60770SOL    HW194289   4.550  10.264  13.363  0.7148  0.5876 -0.4751
60770SOL    HW294290   4.596  10.125  13.322  0.4603  0.1980  0.5338
60771SOL     OW94291   9.028  12.828   4.987  0.2410  0.2616 -0.1036
60771SOL    HW194292   9.078  12.907   5.008 -0.4353  0.6910 -0.0662
60771SOL    HW294293   8.941  12.844   5.023 -0.8822  0.8622 -2.7794
60772SOL     OW94294   3.713  13.639  10.979 -0.4774 -0.4810 -0.3500
60772SOL    HW194295   3.639  13.648  11.039 -1.2988 -0.1330 -1.3815
60772SOL    HW294296   3.746  13.728  10.968  0.2685 -0.6664  0.2958
60773SOL     OW94297  13.945   8.320   4.046 -0.3888 -0.1665 -0.1833
60773SOL    HW194298  13.899   8.399   4.073  0.0411 -0.3836  1.2249
60773SOL    HW294299  13.896   8.248   4.086 -2.2672 -0.9036 -3.3905
60774SOL     OW94300   6.241   7.824   4.978  0.3872 -0.5167 -0.0556
60774SOL    HW194301   6.299   7.767   4.928 -0.6778 -0.0088 -1.9551
60774SOL    HW294302   6.173   7.764   5.011 -0.1987 -0.5301 -1.2345
60775SOL     OW94303   3.454   5.894  10.866  1.0090 -0.9152 -0.2329
60775SOL    HW194304   3.490   5.890  10.954 -0.9099  0.6866  0.6910
60775SOL    HW294305   3.448   5.987  10.845 -0.3734 -1.1871 -1.2461
60776SOL     OW94306   9.229   1.321   8.790  0.4167  0.3040  0.0099
60776SOL    HW194307   9.249   1.413   8.773  1.6390  0.4178  1.7627
60776SOL    HW294308   9.148   1.324   8.842 -0.5337  0.2494 -1.4205
60777SOL     OW94309   5.977   6.612  10.315  0.0904 -0.5137 -0.8209
60777SOL    HW194310   5.888   6.575  10.311 -0.6048  0.8523  1.0477
60777SOL    HW294311   6.028   6.546  10.362 -0.5181 -0.2982  0.1684
60778SOL     OW94312  12.712   2.729   9.542 -0.0275 -0.3770  0.2049
60778SOL    HW194313  12.751   2.644   9.560  1.1613 -0.6580 -3.1053
60778SOL    HW294314  12.781   2.792   9.561 -0.5056 -0.1871  1.4516
60779SOL     OW94315   4.410   6.999  10.267  0.0167  0.6020 -0.4530
60779SOL    HW194316   4.450   6.913  10.257  2.1086  1.5426 -0.6732
60779SOL    HW294317   4.473   7.049  10.319 -0.7264  2.2660 -1.0867
60780SOL     OW94318   6.954   2.931   0.569  0.0176 -0.5554 -0.5204
60780SOL    HW194319   6.879   2.973   0.610  0.4575  0.7468 -1.0001
60780SOL    HW294320   6.945   2.951   0.476 -0.2110 -2.2766 -0.9018
60781SOL     OW94321   8.319   7.658  10.903 -0.7218  0.3366 -0.1281
60781SOL    HW194322   8.311   7.608  10.822  0.0043  0.9439 -0.5872
60781SOL    HW294323   8.396   7.620  10.947  0.6829  1.9029 -1.1297
60782SOL     OW94324  12.914   0.708   3.499 -0.1353  0.0425 -0.1564
60782SOL    HW194325  12.923   0.622   3.540 -1.0366 -0.8152 -1.6882
60782SOL    HW294326  13.003   0.742   3.496  0.6257 -1.8622 -1.5945
60783SOL     OW94327   6.346   5.065  11.317 -0.0799 -0.2625  0.4276
60783SOL    HW194328   6.307   5.033  11.236 -1.7679 -0.3871  1.2453
60783SOL    HW294329   6.441   5.059  11.302 -0.3040 -3.0578 -0.4484
60784SOL     OW94330   9.391   3.325   8.394  0.0118  0.1911 -0.4765
60784SOL    HW194331   9.406   3.288   8.307  2.1632  1.9473 -0.9449
60784SOL    HW294332   9.467   3.298   8.445 -0.5257  0.3705  0.4396
60785SOL     OW94333   0.131   9.554   0.720 -0.1498 -0.0322  0.3216
60785SOL    HW194334   0.101   9.481   0.774  1.9158 -0.1909  1.3809
60785SOL    HW294335   0.226   9.540   0.712  0.0699  1.7298 -0.6950
60786SOL     OW94336  12.645  11.196   7.770  0.1332 -0.1143 -0.3206
60786SOL    HW194337  12.692  11.221   7.691 -1.8553 -0.0155 -1.5334
60786SOL    HW294338  12.593  11.119   7.745 -1.2741  0.4904  0.5834
60787SOL     OW94339   1.893   1.696  11.028 -0.1943 -0.0157  0.3478
60787SOL    HW194340   1.876   1.648  11.109 -0.8882  2.0400  1.4832
60787SOL    HW294341   1.899   1.628  10.961  1.9796 -1.9518  2.3123
60788SOL     OW94342   1.375   4.537   4.909 -0.3098  0.1160 -0.0793
60788SOL    HW194343   1.459   4.511   4.872 -0.9110 -2.1703  0.0119
60788SOL    HW294344   1.397   4.608   4.970  1.5038 -0.2146 -0.2865
60789SOL     OW94345   5.132   9.327  13.010 -0.5569 -0.4611 -0.0093
60789SOL    HW194346   5.108   9.322  12.918 -1.1109  0.7951  0.0464
60789SOL    HW294347   5.159   9.418  13.023 -1.2174 -0.4189  1.2333
60790SOL     OW94348  11.841   4.893   1.133 -0.4626  0.1527  0.6746
60790SOL    HW194349  11.826   4.871   1.041  2.4551 -0.0266  0.1590
60790SOL    HW294350  11.793   4.825   1.181 -0.8866 -0.6041 -0.7331
60791SOL     OW94351  10.847   6.123   6.266 -0.1106  0.0361  0.4382
60791SOL    HW194352  10.937   6.142   6.294 -0.4881 -0.4583  2.0945
60791SOL    HW294353  10.818   6.203   6.222  0.8666  0.5076  0.6248
60792SOL     OW94354   9.272   7.842  12.908 -0.3592  0.1812  0.0029
60792SOL    HW194355   9.271   7.747  12.896  1.3210  0.1256  0.0374
60792SOL    HW294356   9.232   7.876  12.828  1.7725 -0.5086 -1.4561
60793SOL     OW94357  13.848   8.171  13.261 -0.6894 -0.4696  0.5784
60793SOL    HW194358  13.820   8.166  13.170 -1.8693  2.2267  0.7033
60793SOL    HW294359  13.889   8.086  13.278 -1.1576 -1.3553 -2.1918
60794SOL     OW94360   7.937   8.021   5.517  0.1509  0.6731  0.1558
60794SOL    HW194361   7.981   8.047   5.436 -0.1462  0.2462 -0.1476
60794SOL    HW294362   7.976   8.077   5.585  1.6703 -0.1460  0.0128
60795SOL     OW94363   8.440   9.990   0.678  0.0959 -0.2613 -0.3597
60795SOL    HW194364   8.432  10.062   0.741 -0.2725  1.6573 -2.4529
60795SOL    HW294365   8.417  10.030   0.594  0.2969 -2.7647 -1.6844
60796SOL     OW94366  11.519  13.536   5.254  0.3176 -0.1708  0.2382
60796SOL    HW194367  11.468  13.477   5.198 -0.0974  1.0657 -0.7308
60796SOL    HW294368  11.519  13.619   5.207  1.7093  0.3567  1.1005
60797SOL     OW94369   3.623   3.394   9.726  0.1822  0.1273 -0.0749
60797SOL    HW194370   3.593   3.314   9.768 -2.1002  0.9927  0.0453
60797SOL    HW294371   3.568   3.463   9.762  1.4111  1.6342 -0.9237
60798SOL     OW94372  12.101  13.884   4.368  0.6338  0.1732 -0.7612
60798SOL    HW194373  12.047  13.908   4.293  0.7906 -0.1961 -0.9936
60798SOL    HW294374  12.139  13.967   4.398  0.0929  0.4070 -0.7091
60799SOL     OW94375   2.476   8.457  10.707  0.2194  0.1269  0.6168
60799SOL    HW194376   2.531   8.452  10.629 -1.1362 -1.5697 -0.3287
60799SOL    HW294377   2.530   8.421  10.777 -0.4140 -4.3489 -0.8621
60800SOL     OW94378  11.484  13.015   1.382 -0.6539  0.3554  0.1657
60800SOL    HW194379  11.529  13.074   1.321 -2.2324  0.0566 -1.3867
60800SOL    HW294380  11.446  12.948   1.325 -3.4660  0.8701  1.3083
60801SOL     OW94381  11.439   1.086   9.185  0.6641  0.5004 -0.2686
60801SOL    HW194382  11.394   1.021   9.131 -1.4373 -1.2201  3.1349
60801SOL    HW294383  11.372   1.152   9.202  0.4828 -0.1560  1.8798
60802SOL     OW94384  12.123  11.113   1.289 -0.4821  0.1275 -0.3837
60802SOL    HW194385  12.030  11.089   1.294 -0.9583  1.4837 -1.7021
60802SOL    HW294386  12.148  11.131   1.380 -1.1653 -1.3897  0.1268
60803SOL     OW94387   3.184   4.523   5.520 -0.5941  0.2366 -0.3618
60803SOL    HW194388   3.161   4.595   5.579 -0.1697 -1.3998  1.9458
60803SOL    HW294389   3.266   4.551   5.478  1.1441  0.0199  2.6453
60804SOL     OW94390   3.150   3.786   1.653  0.3451 -0.6268 -0.0059
60804SOL    HW194391   3.059   3.805   1.629 -0.5860 -5.1247 -1.0012
60804SOL    HW294392   3.202   3.833   1.588 -1.3899 -0.0081 -1.0255
60805SOL     OW94393  13.642   5.266   0.736 -0.0319  0.4430 -0.0573
60805SOL    HW194394  13.673   5.305   0.654 -1.8511 -1.0696 -1.5458
60805SOL    HW294395  13.714   5.210   0.765 -0.4538 -1.4237 -2.3442
60806SOL     OW94396   9.253   2.634  12.462  0.5695 -0.5696  0.5053
60806SOL    HW194397   9.347   2.619  12.476  0.1613 -2.3692  1.6540
60806SOL    HW294398   9.223   2.556  12.417 -0.2804  0.2925 -0.4691
60807SOL     OW94399   1.825   1.505   4.824 -0.1765 -0.8080  0.0627
60807SOL    HW194400   1.755   1.546   4.774 -0.5146 -1.5735 -0.1014
60807SOL    HW294401   1.903   1.557   4.805 -0.8095  0.4182  0.7160
60808SOL     OW94402   1.333   1.093   2.091 -0.0355  0.0376 -0.5988
60808SOL    HW194403   1.256   1.037   2.082  1.0576 -1.9874  1.6532
60808SOL    HW294404   1.298   1.177   2.121 -1.4449 -0.5059 -0.6453
60809SOL     OW94405  11.585   4.047   1.140 -0.3682  0.2050  0.0007
60809SOL    HW194406  11.624   4.117   1.087  0.8220 -0.7601 -0.4419
60809SOL    HW294407  11.541   3.990   1.077 -2.4149  1.1690  0.4766
60810SOL     OW94408  13.306  11.049   5.898  0.2242 -0.0054  0.4160
60810SOL    HW194409  13.289  10.962   5.933 -0.4623  0.2448  0.7412
60810SOL    HW294410  13.401  11.054   5.888  0.2428 -0.9347 -0.0016
60811SOL     OW94411   1.846   9.547  12.596  0.0734  0.0686  0.1994
60811SOL    HW194412   1.932   9.533  12.636  0.4890  0.3894 -0.5646
60811SOL    HW294413   1.825   9.638  12.616  0.8309  0.6021 -1.3040
60812SOL     OW94414   2.630   6.496  12.629  0.1240  0.0865  0.3768
60812SOL    HW194415   2.703   6.436  12.612  0.3186  0.4768 -0.1904
60812SOL    HW294416   2.641   6.566  12.565 -2.5223 -1.3474 -1.8535
60813SOL     OW94417   3.396   6.540   4.435  0.5878  0.0969 -0.3007
60813SOL    HW194418   3.400   6.625   4.390  1.8016  0.6224  0.7575
60813SOL    HW294419   3.454   6.484   4.384  2.1050  0.7427  0.6457
60814SOL     OW94420  13.434   7.095  10.532  0.0108  0.2920 -0.0217
60814SOL    HW194421  13.446   7.127  10.443  0.4975  0.3401  0.0580
60814SOL    HW294422  13.360   7.035  10.527 -0.8068  1.2911 -0.2074
60815SOL     OW94423   1.672   8.398   6.363  0.5559 -0.0691  0.0058
60815SOL    HW194424   1.713   8.316   6.334 -0.1673 -0.3773 -0.1738
60815SOL    HW294425   1.614   8.372   6.435  0.7776  0.3798  0.3471
60816SOL     OW94426   3.493   7.925   4.383 -0.7948  0.4778  0.0003
60816SOL    HW194427   3.496   8.015   4.415 -1.2433 -0.1072  1.7759
60816SOL    HW294428   3.404   7.896   4.402 -0.8568 -0.1377 -1.1708
60817SOL     OW94429   9.862   1.342   2.770 -0.3452 -0.2523  0.0489
60817SOL    HW194430   9.895   1.261   2.729 -0.1577 -0.0486 -0.2059
60817SOL    HW294431   9.820   1.312   2.850  0.0088 -0.5735  0.1188
60818SOL     OW94432  10.209   3.990   0.850  0.4533 -0.1174 -0.0794
60818SOL    HW194433  10.284   4.043   0.876  0.0318  0.4720 -0.0562
60818SOL    HW294434  10.149   3.995   0.924  1.0352 -1.8525  0.5580
60819SOL     OW94435   5.652   9.158  13.409 -0.3759 -0.4899  0.3925
60819SOL    HW194436   5.677   9.223  13.475 -0.4614 -0.2037  0.1400
60819SOL    HW294437   5.736   9.128  13.373 -0.1065 -2.5801  2.4439
60820SOL     OW94438   0.055   7.612   5.922 -0.1936  0.0312 -0.1266
60820SOL    HW194439   0.092   7.573   6.001  0.9945 -0.4143 -0.8814
60820SOL    HW294440   0.052   7.706   5.941 -0.9089 -0.1628  0.8271
60821SOL     OW94441   9.670   4.626   6.102 -1.1440  0.1918 -0.1188
60821SOL    HW194442   9.714   4.586   6.027 -0.5195 -0.8149  0.7472
60821SOL    HW294443   9.584   4.652   6.069 -1.3998 -1.4684 -0.8473
60822SOL     OW94444  13.637  12.269  13.252  0.4294  0.0551 -0.0849
60822SOL    HW194445  13.591  12.221  13.184 -0.5137 -0.4053  0.8429
60822SOL    HW294446  13.618  12.220  13.332  0.5439  1.2411  0.6864
60823SOL     OW94447  12.591  12.372  12.414  0.1141  0.4483  0.2069
60823SOL    HW194448  12.504  12.392  12.378  0.0720 -1.0075 -0.5821
60823SOL    HW294449  12.575  12.304  12.479  0.9020 -1.9362 -1.9497
60824SOL     OW94450   5.626  11.737   7.997 -0.5448 -0.0191 -0.0627
60824SOL    HW194451   5.540  11.699   7.979 -0.3965 -0.0673 -0.7042
60824SOL    HW294452   5.686  11.687   7.941 -0.1592  0.2900  0.0701
60825SOL     OW94453   4.125  12.674  11.877 -0.0511 -0.0543 -0.0231
60825SOL    HW194454   4.089  12.616  11.809  0.4139  0.2220 -0.5171
60825SOL    HW294455   4.169  12.615  11.938 -2.1616 -0.5121  1.1539
60826SOL     OW94456  11.394  12.674   2.423 -0.4692  0.3717 -0.2523
60826SOL    HW194457  11.325  12.608   2.415  0.7094 -0.7266 -2.6077
60826SOL    HW294458  11.475  12.623   2.429  0.3673  1.5913 -0.7540
60827SOL     OW94459   7.532  13.476   0.906 -0.0862 -0.4008 -0.5883
60827SOL    HW194460   7.482  13.394   0.898 -2.4922  1.1566 -3.9156
60827SOL    HW294461   7.465  13.544   0.906  1.8646  1.6834  1.7505
60828SOL     OW94462   3.116   9.273  13.594 -0.0676 -0.2250 -0.1870
60828SOL    HW194463   3.099   9.257  13.687  0.3470 -1.6662 -0.3310
60828SOL    HW294464   3.063   9.350  13.573  0.9536  1.0581  1.5748
60829SOL     OW94465   1.125   4.661  12.386  0.1836  0.7911 -0.4062
60829SOL    HW194466   1.070   4.626  12.457 -0.1743  1.9409 -0.0925
60829SOL    HW294467   1.078   4.738  12.355  1.5976  1.8028 -0.1415
60830SOL     OW94468   2.110   3.220   8.515 -0.0787 -0.0318  0.2751
60830SOL    HW194469   2.035   3.263   8.474 -0.6525  1.3049  2.5382
60830SOL    HW294470   2.085   3.127   8.519 -2.3858  0.5720  2.3517
60831SOL     OW94471   5.020  11.095   6.550  0.3395  0.0719 -0.4258
60831SOL    HW194472   5.062  11.010   6.534  0.7018  0.0892  0.3852
60831SOL    HW294473   4.927  11.078   6.537  0.5554 -0.0117 -2.0855
60832SOL     OW94474   5.984   5.548   3.736  0.1561 -0.6760  0.5004
60832SOL    HW194475   5.909   5.570   3.791 -3.3080  0.1799 -3.9200
60832SOL    HW294476   5.957   5.469   3.689  2.2245 -0.5816 -1.0044
60833SOL     OW94477  12.964   2.194   7.783  0.1455  0.3212  0.0479
60833SOL    HW194478  12.949   2.236   7.868 -0.5668 -2.7819  1.5888
60833SOL    HW294479  13.000   2.109   7.805  2.0438  0.2158 -2.9221
60834SOL     OW94480   4.038  13.109  11.088  0.0683 -0.1327  0.2755
60834SOL    HW194481   4.003  13.028  11.051 -0.4566 -0.6724  1.8631
60834SOL    HW294482   3.970  13.174  11.072 -0.8411 -0.7195  1.5908
60835SOL     OW94483   3.732  13.207   7.404 -1.5776 -0.0577  0.0968
60835SOL    HW194484   3.673  13.197   7.330 -1.1178 -3.1918  0.0036
60835SOL    HW294485   3.677  13.191   7.481 -1.3427 -0.5755  0.1632
60836SOL     OW94486  13.217   3.077   4.371 -0.5695  0.4586 -0.0613
60836SOL    HW194487  13.293   3.069   4.314 -0.7661  0.4416 -0.3190
60836SOL    HW294488  13.165   3.148   4.334 -1.3236 -0.3554 -0.6374
60837SOL     OW94489   3.293   4.733   7.185  0.3089  0.2576 -0.1505
60837SOL    HW194490   3.377   4.721   7.229 -0.8087  1.8408  2.6559
60837SOL    HW294491   3.238   4.661   7.216 -0.1989  0.8483  0.3691
60838SOL     OW94492   7.652  12.533  10.132  0.2990 -0.0154 -0.0329
60838SOL    HW194493   7.734  12.561  10.091 -0.0656  0.1190 -0.6723
60838SOL    HW294494   7.585  12.554  10.068 -0.2182 -0.3121  0.4105
60839SOL     OW94495   4.472   7.421   6.294 -0.3551 -0.2574  0.3584
60839SOL    HW194496   4.474   7.351   6.230 -1.4871 -0.0466  0.0698
60839SOL    HW294497   4.391   7.406   6.344 -0.2596  0.4424  0.7462
60840SOL     OW94498   3.852   0.498  11.567 -0.1774 -0.3710  0.5541
60840SOL    HW194499   3.825   0.410  11.590  0.7232 -0.8044  0.0123
60840SOL    HW294500   3.944   0.504  11.595 -0.5469  0.7785  1.5981
60841SOL     OW94501   4.360   9.914   5.810  0.3172  0.7039  0.5102
60841SOL    HW194502   4.300   9.886   5.879 -1.0624 -0.2493 -0.9872
60841SOL    HW294503   4.302   9.940   5.738  1.6983  2.1596 -0.1259
60842SOL     OW94504   0.574   3.397  10.521  0.3485 -0.0726 -0.2916
60842SOL    HW194505   0.511   3.433  10.458  0.8887 -0.3507 -1.0015
60842SOL    HW294506   0.627   3.336  10.470 -0.4817 -1.8388  0.8711
60843SOL     OW94507   9.330  12.357   6.374  0.2666  0.7936  0.1057
60843SOL    HW194508   9.336  12.386   6.465  0.1519 -0.2446  0.4469
60843SOL    HW294509   9.339  12.262   6.378 -0.0766  0.7095 -0.9375
60844SOL     OW94510  10.832   8.310   6.243 -0.3227 -0.4639  0.0132
60844SOL    HW194511  10.880   8.227   6.247 -0.4447 -0.4756  2.3794
60844SOL    HW294512  10.749   8.292   6.287 -0.7061  0.7010 -0.1939
60845SOL     OW94513   8.845   2.021   0.171 -0.2331 -0.2313  0.2547
60845SOL    HW194514   8.852   1.976   0.087  0.8739  1.3644 -0.5759
60845SOL    HW294515   8.888   2.105   0.156  0.1765  0.0147  2.5008
60846SOL     OW94516   0.905   2.522   3.153  0.1410  0.0474  0.6936
60846SOL    HW194517   0.840   2.488   3.091  0.2603 -0.2056  0.7062
60846SOL    HW294518   0.859   2.591   3.201 -0.4382 -0.8418  1.4373
60847SOL     OW94519   8.977  11.512   8.436 -0.1212  0.0470 -0.1753
60847SOL    HW194520   9.033  11.503   8.513  0.0393 -0.2396 -0.3290
60847SOL    HW294521   8.993  11.434   8.384  0.3197  0.5882 -0.8655
60848SOL     OW94522   1.538   7.810   1.954 -0.0863 -0.4167  0.0326
60848SOL    HW194523   1.567   7.894   1.991 -0.7370 -0.5406  0.8428
60848SOL    HW294524   1.610   7.784   1.896  1.0896 -0.3476  1.4174
60849SOL     OW94525   4.366  11.608   5.173  0.3133  0.1597 -0.2793
60849SOL    HW194526   4.298  11.573   5.230  0.5196  0.6638  0.2878
60849SOL    HW294527   4.318  11.641   5.097 -0.0827  0.4824  0.1031
60850SOL     OW94528   0.219   0.194   4.484  0.2448 -0.6546  0.2122
60850SOL    HW194529   0.250   0.116   4.438 -1.1407  0.5297 -3.0753
60850SOL    HW294530   0.125   0.180   4.495 -0.0928  0.6064 -0.7586
60851SOL     OW94531   9.913   5.752   9.793  0.3522 -0.3177 -0.1063
60851SOL    HW194532   9.982   5.819   9.790  0.7575 -0.7289 -0.1537
60851SOL    HW294533   9.832   5.801   9.781  0.6667  0.1288 -0.5009
60852SOL     OW94534   5.511   0.741   1.767  0.5899  0.0747  0.9714
60852SOL    HW194535   5.491   0.816   1.823 -0.6222  0.3907  0.1388
60852SOL    HW294536   5.604   0.751   1.747  0.2532  1.8957  0.1231
60853SOL     OW94537   5.232  11.306   5.891  0.0712  0.0604  0.1942
60853SOL    HW194538   5.227  11.341   5.802 -0.0438 -0.5620 -0.0519
60853SOL    HW294539   5.297  11.360   5.935 -0.1795  0.6450 -0.1420
60854SOL     OW94540  12.729  11.557   2.226  0.0443  0.1229 -0.4832
60854SOL    HW194541  12.635  11.539   2.217  0.1432  0.3579 -2.5498
60854SOL    HW294542  12.734  11.650   2.245 -0.1595 -0.2410  1.6423
60855SOL     OW94543   5.358   6.396  13.028 -0.5477 -0.6848  0.7816
60855SOL    HW194544   5.293   6.402  12.958 -1.5482 -1.8273  1.5694
60855SOL    HW294545   5.367   6.485  13.061  0.1870 -0.0672 -0.9998
60856SOL     OW94546   7.134   9.943  12.060 -0.0879  0.5240 -0.0750
60856SOL    HW194547   7.096   9.975  11.978  0.7797  0.7776 -0.3900
60856SOL    HW294548   7.065   9.889  12.098 -1.1455  1.8084 -0.1024
60857SOL     OW94549   3.940  10.024   2.792  0.4164 -0.1250  0.3889
60857SOL    HW194550   3.922  10.028   2.698 -0.9921  2.1785  0.6897
60857SOL    HW294551   3.861   9.988   2.831  1.5186 -2.4585  0.6473
60858SOL     OW94552   5.834   1.717   4.521 -0.6713  0.2501  0.1206
60858SOL    HW194553   5.848   1.697   4.428 -3.6432 -0.7202 -0.2441
60858SOL    HW294554   5.903   1.670   4.567  1.6090  1.7192 -1.5896
60859SOL     OW94555   8.963  13.703   5.711 -0.3427  0.2380 -0.3151
60859SOL    HW194556   8.901  13.689   5.639  0.9754  0.3165 -1.5053
60859SOL    HW294557   8.987  13.795   5.704  0.0416  0.1660  0.0321
60860SOL     OW94558   2.824  13.697   9.381  0.3255  0.4749  0.2776
60860SOL    HW194559   2.888  13.684   9.310  1.8645  1.8422  1.3327
60860SOL    HW294560   2.876  13.734   9.453 -1.2849 -0.4050  1.9560
60861SOL     OW94561   7.213   3.628   4.587  0.1611  0.0923  0.3131
60861SOL    HW194562   7.289   3.578   4.618 -0.3931  0.9543  3.3298
60861SOL    HW294563   7.160   3.643   4.665 -0.9802  3.2114 -0.9103
60862SOL     OW94564   2.789  11.346   1.708  0.4983  0.0828 -0.0365
60862SOL    HW194565   2.810  11.403   1.782  2.7665 -1.3803  0.5492
60862SOL    HW294566   2.728  11.282   1.744  0.0561  0.5264  0.0185
60863SOL     OW94567   8.344  11.303  13.558 -0.6611 -0.1996 -0.2214
60863SOL    HW194568   8.357  11.395  13.534 -0.7967 -0.5379 -1.7394
60863SOL    HW294569   8.383  11.254  13.486  1.0837 -1.3965  1.4516
60864SOL     OW94570   1.405  13.827   0.070  0.3204  0.0464 -0.4740
60864SOL    HW194571   1.497  13.803   0.055  0.1208 -1.3259  0.2894
60864SOL    HW294572   1.397  13.832   0.165  0.3097  3.3231 -0.5267
60865SOL     OW94573   3.275  11.672   3.360  0.0704  0.4682 -0.1319
60865SOL    HW194574   3.277  11.594   3.415  0.3662  0.1344 -0.6054
60865SOL    HW294575   3.224  11.736   3.410 -0.9964 -0.3369 -0.1448
60866SOL     OW94576   8.449   5.945  10.519 -0.2520  0.3717  0.1766
60866SOL    HW194577   8.501   5.981  10.591  0.0395  1.9028 -0.7609
60866SOL    HW294578   8.433   6.020  10.462 -0.5449 -0.7927 -1.3127
60867SOL     OW94579  11.348  10.381   1.305 -0.3460  0.1204 -0.5661
60867SOL    HW194580  11.430  10.425   1.329 -0.6825 -0.3181  1.5210
60867SOL    HW294581  11.376  10.297   1.269  0.1544  0.5223 -1.1372
60868SOL     OW94582   6.970   3.733   3.275 -0.1490 -0.4130  0.2172
60868SOL    HW194583   7.049   3.723   3.327 -2.3097 -0.5547  3.7941
60868SOL    HW294584   6.965   3.827   3.256  0.1986 -0.2030  1.1540
60869SOL     OW94585  11.703  11.924   8.082 -0.4189 -0.3461 -0.2210
60869SOL    HW194586  11.717  11.915   7.988  1.5642 -0.7671  0.0693
60869SOL    HW294587  11.762  11.861   8.122  0.8765  1.7208  1.3819
60870SOL     OW94588   5.642  12.923   1.526  0.1052  0.0223  0.4516
60870SOL    HW194589   5.733  12.937   1.552 -0.3394 -0.0503  2.1687
60870SOL    HW294590   5.634  12.828   1.519  0.7196  0.0887 -2.0078
60871SOL     OW94591   2.494   4.074   6.479  0.4313 -0.6414 -0.7218
60871SOL    HW194592   2.499   4.005   6.412 -0.8067  0.2247 -1.7684
60871SOL    HW294593   2.432   4.138   6.443 -1.8440 -1.0509  2.0538
60872SOL     OW94594  12.579   4.830  11.934 -0.0733 -0.2569 -0.1065
60872SOL    HW194595  12.500   4.776  11.937 -1.0064  1.0693 -0.2240
60872SOL    HW294596  12.547   4.920  11.928  1.4358  0.4087  1.1256
60873SOL     OW94597   7.815   0.673  12.750  0.0422 -0.1263  0.0451
60873SOL    HW194598   7.835   0.593  12.701  1.1848 -1.2533  2.1726
60873SOL    HW294599   7.744   0.648  12.809  1.7801 -0.2797  2.1899
60874SOL     OW94600   6.080   5.044  12.674 -0.9379  0.6170 -0.2056
60874SOL    HW194601   5.993   5.011  12.693  0.0842 -2.2333  0.0965
60874SOL    HW294602   6.097   5.017  12.584 -0.3068  1.0173 -0.2141
60875SOL     OW94603  10.191   2.845   6.196  0.1195  0.4673  0.4937
60875SOL    HW194604  10.163   2.933   6.224 -0.3837  0.2485  0.6983
60875SOL    HW294605  10.286   2.849   6.197  0.1106  1.1976 -0.0762
60876SOL     OW94606   6.149   6.642   1.945  0.2236 -0.3945 -0.3939
60876SOL    HW194607   6.069   6.597   1.972  0.9758 -1.6589 -0.1649
60876SOL    HW294608   6.129   6.678   1.859 -1.0621  0.6145  0.2889
60877SOL     OW94609   7.382   8.560   8.121 -0.0685 -0.5284 -0.1756
60877SOL    HW194610   7.435   8.633   8.088 -0.4320 -1.0338 -1.9866
60877SOL    HW294611   7.428   8.482   8.092 -0.8276 -0.9927 -0.1540
60878SOL     OW94612   9.810   4.756   2.902  0.8805  0.0543 -0.4472
60878SOL    HW194613   9.744   4.697   2.867  1.1738 -0.3850 -0.2650
60878SOL    HW294614   9.831   4.721   2.989  1.2985  0.2334 -0.4719
60879SOL     OW94615  11.034  10.004   4.750 -0.5707 -0.1785 -0.0806
60879SOL    HW194616  10.947   9.983   4.718 -1.5864  1.2982  1.5765
60879SOL    HW294617  11.046   9.946   4.826 -1.7481  2.1800  2.0369
60880SOL     OW94618   0.374  12.608   2.274 -0.2701  0.1301  0.1695
60880SOL    HW194619   0.461  12.595   2.313 -0.3863 -1.3120 -0.0014
60880SOL    HW294620   0.389  12.606   2.180 -0.7068 -2.0386  0.1089
60881SOL     OW94621   4.862   5.550   8.667 -0.2638  0.3560 -0.0944
60881SOL    HW194622   4.884   5.510   8.583  1.7970 -1.0000  1.0097
60881SOL    HW294623   4.892   5.640   8.660 -0.0935  0.2469 -0.7968
60882SOL     OW94624   3.275  10.539   9.233  0.4892 -0.1887  0.3153
60882SOL    HW194625   3.226  10.458   9.216 -2.2632  1.0395  1.7297
60882SOL    HW294626   3.263  10.555   9.326  1.2317  1.7081  0.1292
60883SOL     OW94627  11.005   1.085   9.290  0.5052  0.0369  0.4101
60883SOL    HW194628  10.991   1.119   9.201 -0.9135 -0.6943  0.3153
60883SOL    HW294629  11.048   1.001   9.277 -0.9864 -0.7489  0.2847
60884SOL     OW94630   1.008   8.304   9.093  0.0336  0.1287 -0.1763
60884SOL    HW194631   1.084   8.248   9.104 -0.4073 -0.3701  0.4501
60884SOL    HW294632   0.978   8.322   9.182 -1.6460 -1.2032 -0.4140
60885SOL     OW94633   4.975   0.111  11.871  0.2443 -0.2891  0.1177
60885SOL    HW194634   4.913   0.056  11.824  0.2853  0.3975 -0.7589
60885SOL    HW294635   5.013   0.167  11.804 -0.5390  1.5232  1.1206
60886SOL     OW94636   5.450   6.760  11.547 -0.7471 -0.5321 -0.0348
60886SOL    HW194637   5.429   6.737  11.456 -0.8246 -0.5162 -0.0211
60886SOL    HW294638   5.523   6.821  11.539  0.1943 -1.6097 -0.0236
60887SOL     OW94639   8.100  11.783   0.457 -0.4987  0.2344  0.2375
60887SOL    HW194640   8.171  11.805   0.517  1.0187 -0.6046 -1.1715
60887SOL    HW294641   8.055  11.866   0.440  0.9711  1.0355  0.1556
60888SOL     OW94642   2.195   0.320  11.761 -0.2638  1.4801  0.2246
60888SOL    HW194643   2.202   0.236  11.806  0.6668  2.6230  2.4430
60888SOL    HW294644   2.227   0.304  11.673 -1.4787 -0.7694  0.1459
60889SOL     OW94645   4.368   4.353   6.624 -0.3376 -0.0678  0.1512
60889SOL    HW194646   4.365   4.264   6.660 -0.8534 -0.4570 -0.8089
60889SOL    HW294647   4.332   4.344   6.536  2.2600  0.5648 -1.0684
60890SOL     OW94648   7.841   8.761   5.595 -0.2009  0.0270  0.2624
60890SOL    HW194649   7.875   8.706   5.666  0.3124  0.3175  0.2414
60890SOL    HW294650   7.749   8.733   5.586  0.2136 -1.2733 -0.1827
60891SOL     OW94651  12.289  14.032  13.387  0.0994  0.2769 -0.2008
60891SOL    HW194652  12.367  14.035  13.443 -0.0346  0.6421 -0.0273
60891SOL    HW294653  12.250  13.947  13.405  0.7477 -0.1338 -0.6901
60892SOL     OW94654  13.447  10.549   7.364  0.6732 -0.4907  0.0524
60892SOL    HW194655  13.497  10.494   7.424  0.6220 -1.3000 -0.6414
60892SOL    HW294656  13.359  10.550   7.401  0.5136 -1.4192 -0.2894
60893SOL     OW94657   8.791   2.762   6.333 -0.0265  0.6480 -0.3891
60893SOL    HW194658   8.877   2.782   6.296 -0.2569  1.6848 -0.3876
60893SOL    HW294659   8.775   2.831   6.397 -0.1542 -0.4604  0.8166
60894SOL     OW94660   5.617   3.214   6.389 -0.6894  0.0107 -0.0055
60894SOL    HW194661   5.651   3.258   6.467  0.5242 -1.1890  0.1819
60894SOL    HW294662   5.633   3.121   6.405 -0.8221 -0.2924 -1.4915
60895SOL     OW94663   4.403   2.968   3.875 -0.2012  0.0218  0.0076
60895SOL    HW194664   4.468   3.030   3.843 -1.1817  0.3741 -1.3975
60895SOL    HW294665   4.449   2.885   3.880  0.3331  0.2327 -1.1006
60896SOL     OW94666  13.409   2.651   6.612 -0.3412 -0.1806 -0.2129
60896SOL    HW194667  13.490   2.622   6.655 -0.0243 -0.5556 -1.0391
60896SOL    HW294668  13.432   2.660   6.520 -0.2910  3.2359  0.0134
60897SOL     OW94669   9.998  13.551   5.578 -0.1236  0.1241  0.0496
60897SOL    HW194670  10.062  13.597   5.525 -0.3112  0.2854 -0.0362
60897SOL    HW294671   9.913  13.584   5.549 -0.2446 -0.0506  0.1978
60898SOL     OW94672  11.544   7.721   6.407 -0.5435  0.3058  0.3883
60898SOL    HW194673  11.468   7.664   6.412 -0.2217 -0.2595 -0.8067
60898SOL    HW294674  11.515   7.796   6.354 -0.5533  0.5750  0.7698
60899SOL     OW94675   0.667   0.738  13.696  0.3185 -0.3262  0.0593
60899SOL    HW194676   0.590   0.691  13.729  0.6430 -0.2952  0.8767
60899SOL    HW294677   0.733   0.670  13.683 -0.0773 -0.4679 -1.4043
60900SOL     OW94678   8.444   9.046   8.736  0.3098 -0.0997  0.6261
60900SOL    HW194679   8.419   9.111   8.802  0.9405  0.1882  0.5862
60900SOL    HW294680   8.528   9.012   8.767 -0.0586 -0.9786  0.7003
60901SOL     OW94681   3.343  11.828   1.006 -0.3875 -0.2816  0.4210
60901SOL    HW194682   3.299  11.792   0.929 -1.1131  0.5430  0.4385
60901SOL    HW294683   3.288  11.801   1.080 -1.4360  1.5220  0.3685
60902SOL     OW94684   3.174   0.623  13.329  0.3289  0.1960 -0.4167
60902SOL    HW194685   3.201   0.569  13.255 -0.7389 -0.3121 -0.4523
60902SOL    HW294686   3.171   0.712  13.295  1.5427  0.2118 -0.5104
60903SOL     OW94687   4.660  11.657  11.817 -0.2834 -0.3441 -0.2461
60903SOL    HW194688   4.568  11.632  11.818 -0.8413  1.4599 -0.9079
60903SOL    HW294689   4.661  11.742  11.773  1.1943  1.5781  3.0925
60904SOL     OW94690  10.848   0.272   3.660  0.1609  0.1862 -0.6635
60904SOL    HW194691  10.822   0.215   3.732  1.1303 -0.4401 -0.7922
60904SOL    HW294692  10.769   0.277   3.605 -0.8099  1.2345  0.7636
60905SOL     OW94693   5.522   0.253   9.998  0.7446  0.4803  0.0599
60905SOL    HW194694   5.570   0.269  10.079  0.8486  0.4404  0.0061
60905SOL    HW294695   5.559   0.173   9.963  0.7934  0.5717 -0.0984
60906SOL     OW94696   2.082   2.703  13.811 -0.3587  0.0693  0.9668
60906SOL    HW194697   2.143   2.770  13.782  0.8125 -1.7009 -0.9687
60906SOL    HW294698   2.098   2.694  13.905  0.7878  1.1409  0.8941
60907SOL     OW94699  10.105  12.514   1.954 -0.0411 -0.1651  0.1588
60907SOL    HW194700  10.146  12.564   2.025  0.8847 -0.5218 -0.1037
60907SOL    HW294701  10.135  12.558   1.874  0.0990 -0.6321 -0.0490
60908SOL     OW94702   5.763   7.820  11.043 -0.0592 -0.1604 -0.4627
60908SOL    HW194703   5.814   7.883  11.093 -0.4440 -0.6009  0.5028
60908SOL    HW294704   5.823   7.791  10.974  0.3941  0.6390 -0.4262
60909SOL     OW94705   5.694   8.865   5.813 -0.8870  0.5806 -0.1807
60909SOL    HW194706   5.775   8.906   5.781 -0.6541 -1.0232 -1.8188
60909SOL    HW294707   5.624   8.918   5.775 -0.6474  1.6878  0.8477
60910SOL     OW94708   3.447   3.680   3.970 -0.6183 -0.6200 -0.1588
60910SOL    HW194709   3.457   3.775   3.974 -0.5073 -0.6748  1.1526
60910SOL    HW294710   3.384   3.666   3.899 -1.5492  0.5043  0.4116
60911SOL     OW94711   5.854   9.603  11.014  0.2673  0.0572  0.7555
60911SOL    HW194712   5.849   9.681  11.070  2.2341  0.8962 -0.1560
60911SOL    HW294713   5.868   9.531  11.076  0.7079  0.7412  1.4820
60912SOL     OW94714   0.965   6.983   1.550  0.0760  0.2482  0.4192
60912SOL    HW194715   0.871   6.980   1.569 -0.5088  1.3050 -1.8807
60912SOL    HW294716   0.995   6.893   1.558 -1.4482 -0.3301 -0.1566
60913SOL     OW94717  13.727  10.657   0.478 -0.4702 -0.1623 -0.1906
60913SOL    HW194718  13.747  10.620   0.564 -1.1193  2.0923  1.0074
60913SOL    HW294719  13.788  10.731   0.469 -1.7304  0.8430 -0.7553
60914SOL     OW94720  10.281   0.341   4.429 -0.8793  0.1649 -0.2822
60914SOL    HW194721  10.265   0.295   4.347  2.7141  0.7844 -1.5345
60914SOL    HW294722  10.319   0.275   4.487  1.7764  0.7925 -1.1623
60915SOL     OW94723   6.857   3.205   2.916 -0.2794 -0.2374  0.0195
60915SOL    HW194724   6.790   3.167   2.973 -1.1127  0.1374 -0.6897
60915SOL    HW294725   6.821   3.196   2.828  0.6951 -0.1950 -0.3957
60916SOL     OW94726   8.490   4.211   9.758  0.4187 -0.3450 -0.7792
60916SOL    HW194727   8.427   4.190   9.827 -0.3768 -0.5015 -1.5414
60916SOL    HW294728   8.575   4.184   9.793  0.3650  1.6031  1.0526
60917SOL     OW94729   0.287   8.982   7.954  0.3816 -0.2974 -0.1880
60917SOL    HW194730   0.294   8.984   7.858  0.3502  2.3040 -0.2194
60917SOL    HW294731   0.322   9.067   7.982 -1.7070 -0.0262  1.9458
60918SOL     OW94732   3.338  12.092   9.924 -0.1274  0.2782 -0.0900
60918SOL    HW194733   3.396  12.101   9.849  1.2433 -0.5301  0.8305
60918SOL    HW294734   3.278  12.166   9.917 -0.5417 -0.2077 -2.3824
60919SOL     OW94735   1.960   0.700   9.434  0.0602  0.2864  0.1476
60919SOL    HW194736   1.975   0.678   9.342 -0.7625 -0.0860  0.0933
60919SOL    HW294737   1.996   0.625   9.482 -0.1221  0.1647  0.0953
60920SOL     OW94738   9.487   3.574   8.714  0.4609  0.1554 -0.1212
60920SOL    HW194739   9.530   3.505   8.663  1.9916  0.0654  1.2047
60920SOL    HW294740   9.397   3.576   8.681  0.7046 -1.6373 -1.0126
60921SOL     OW94741   1.426   4.545   6.616 -0.6040  0.4164 -0.5024
60921SOL    HW194742   1.428   4.449   6.611  0.5291  0.3590  0.6266
60921SOL    HW294743   1.409   4.573   6.526  0.6994 -0.8127 -1.1628
60922SOL     OW94744  11.733  10.145  11.361  0.4066 -0.7348  0.8119
60922SOL    HW194745  11.762  10.124  11.450 -0.5196 -1.8277  0.8710
60922SOL    HW294746  11.725  10.061  11.317 -2.3360 -0.5028  0.7159
60923SOL     OW94747  10.991  12.806  10.159 -0.1093 -0.1081  0.5134
60923SOL    HW194748  11.067  12.798  10.217  0.0924 -2.3352  0.0112
60923SOL    HW294749  10.997  12.730  10.101 -2.0434  0.3636 -0.3708
60924SOL     OW94750   9.432  11.271   5.831 -0.3867 -0.4320  0.1745
60924SOL    HW194751   9.449  11.186   5.792  1.2716 -0.1380  0.2134
60924SOL    HW294752   9.348  11.298   5.794 -1.7493 -2.7438  1.3428
60925SOL     OW94753   1.271   5.374  11.484 -0.3281 -0.3657  0.0757
60925SOL    HW194754   1.209   5.376  11.411  0.1117 -0.7330 -0.3189
60925SOL    HW294755   1.235   5.435  11.548  1.1328  2.9461 -1.9789
60926SOL     OW94756   3.663   0.727   3.444 -0.0593 -0.1004  0.0981
60926SOL    HW194757   3.706   0.655   3.491 -1.3748 -1.7029 -1.0701
60926SOL    HW294758   3.676   0.707   3.351 -0.0338  1.4502 -0.2633
60927SOL     OW94759   1.178  13.180  12.695 -0.1486  0.2939 -0.3716
60927SOL    HW194760   1.167  13.239  12.769 -0.7863  0.2296 -0.4153
60927SOL    HW294761   1.150  13.095  12.728 -1.5270  0.4748 -1.0102
60928SOL     OW94762  12.842   9.497  10.414  0.3446  0.4118 -0.2185
60928SOL    HW194763  12.776   9.470  10.477  0.6012  0.2197 -0.0325
60928SOL    HW294764  12.858   9.419  10.361  0.1156  0.5784 -0.5346
60929SOL     OW94765  12.524   7.430  10.840  0.6482  0.0431  0.4922
60929SOL    HW194766  12.599   7.490  10.844  0.1494  0.6181  2.0141
60929SOL    HW294767  12.504   7.411  10.932  0.4419 -2.0531  0.0554
60930SOL     OW94768   0.210   2.578   4.437 -0.0943 -0.5768  0.1180
60930SOL    HW194769   0.208   2.576   4.533 -2.3287  1.1064  0.1766
60930SOL    HW294770   0.283   2.636   4.416 -1.0801  1.0213  0.9118
60931SOL     OW94771   9.961  10.398   2.389  0.1982  0.4122  0.0551
60931SOL    HW194772   9.953  10.396   2.294  1.2853  1.7988 -0.1052
60931SOL    HW294773   9.871  10.408   2.421 -0.2775 -1.0840 -0.7565
60932SOL     OW94774   8.791  13.083   2.945 -0.5343 -0.0153  0.5914
60932SOL    HW194775   8.700  13.110   2.958 -0.8854 -1.7364  2.2366
60932SOL    HW294776   8.786  12.988   2.933  0.9823 -0.0048 -0.3502
60933SOL     OW94777   8.740   3.216  13.938 -0.3433 -0.0667  0.0056
60933SOL    HW194778   8.660   3.176  13.972 -0.3223 -0.0358  0.0900
60933SOL    HW294779   8.778   3.260  14.013  0.4688 -1.2276  0.3054
60934SOL     OW94780   9.392  13.064   2.981  0.0777 -0.1504 -0.0408
60934SOL    HW194781   9.425  12.976   2.997 -2.6149 -1.1969  0.3866
60934SOL    HW294782   9.314  13.071   3.037 -0.8539  1.7841 -1.4505
60935SOL     OW94783  13.021   2.828  12.706  0.5299 -0.0269  0.4429
60935SOL    HW194784  12.953   2.790  12.649 -2.9509  3.7823  1.5870
60935SOL    HW294785  13.038   2.759  12.771 -1.5160 -1.5412 -0.4916
60936SOL     OW94786  11.219   8.108   9.178  0.1082  0.4917  0.2825
60936SOL    HW194787  11.288   8.043   9.169  0.4226  0.8611 -0.0172
60936SOL    HW294788  11.195   8.106   9.270  0.2494  0.0945  0.3121
60937SOL     OW94789   4.108   3.157   8.694 -0.5133 -0.0493  0.0645
60937SOL    HW194790   4.149   3.120   8.772  0.0522 -0.7941 -0.5715
60937SOL    HW294791   4.106   3.252   8.711 -0.1501 -0.1788  0.8629
60938SOL     OW94792   7.009   0.837   6.378  0.0977 -0.1817 -0.6949
60938SOL    HW194793   6.964   0.814   6.459 -0.6321  2.0650 -0.4086
60938SOL    HW294794   7.010   0.755   6.327 -1.9409 -0.9448  0.3937
60939SOL     OW94795   4.736   9.094   4.977 -0.3683 -0.4536 -0.2255
60939SOL    HW194796   4.681   9.167   4.947  0.6102 -0.3555 -1.9278
60939SOL    HW294797   4.712   9.081   5.068 -2.0905  0.6089 -0.4856
60940SOL     OW94798  12.557  10.033  10.468  0.0063  0.0366  0.3684
60940SOL    HW194799  12.601  10.063  10.388 -0.0502  2.7459  1.2253
60940SOL    HW294800  12.609   9.958  10.497  1.5630  0.5588 -0.8798
60941SOL     OW94801  11.876   1.367   2.558 -0.3132 -0.4902  0.7653
60941SOL    HW194802  11.783   1.383   2.570 -0.2308  0.5947  0.0979
60941SOL    HW294803  11.919   1.418   2.627 -0.2560 -2.2269  2.0624
60942SOL     OW94804   3.502   4.003   8.663 -0.3220 -0.2376 -0.0231
60942SOL    HW194805   3.445   4.063   8.711  0.6261 -0.3119  1.2331
60942SOL    HW294806   3.585   4.050   8.655 -0.8947  0.4449 -3.0685
60943SOL     OW94807   9.743   6.695  12.866 -0.3522  0.3998 -0.4013
60943SOL    HW194808   9.823   6.646  12.851 -0.5985 -0.0253 -0.3371
60943SOL    HW294809   9.758   6.740  12.950  0.5312  1.7900 -1.2604
60944SOL     OW94810  13.725   4.385   5.897  0.4517 -0.0141 -0.1571
60944SOL    HW194811  13.689   4.297   5.893  1.3149 -0.5008  1.8844
60944SOL    HW294812  13.794   4.386   5.831  0.2098 -0.7403 -0.4317
60945SOL     OW94813  13.053  11.783   8.350  0.2185  0.0802  0.1685
60945SOL    HW194814  13.143  11.772   8.378 -0.1001 -0.4024  1.0323
60945SOL    HW294815  13.013  11.697   8.360 -0.6675  0.5650  1.0370
60946SOL     OW94816   1.584  13.539   6.796  0.5445  0.0623  0.4086
60946SOL    HW194817   1.584  13.460   6.741 -0.2029  0.8771 -0.7999
60946SOL    HW294818   1.557  13.507   6.882  1.1244 -1.1447  0.1745
60947SOL     OW94819   9.850   7.672   0.523  0.0259  0.0396  0.0814
60947SOL    HW194820   9.830   7.593   0.573 -0.7549 -0.2369 -0.6489
60947SOL    HW294821   9.769   7.691   0.475  0.2028  1.2913  0.2561
60948SOL     OW94822   2.907   9.738   1.905 -0.0281 -0.3437  0.6989
60948SOL    HW194823   2.945   9.652   1.887  2.2805  0.5143  1.0742
60948SOL    HW294824   2.982   9.793   1.925 -1.4224  1.8087  0.3441
60949SOL     OW94825   6.794   9.547   8.348 -0.1365  0.1681  0.3567
60949SOL    HW194826   6.707   9.586   8.336  0.1210  0.4412 -0.8415
60949SOL    HW294827   6.838   9.563   8.264  0.5599 -1.2616  0.4272
60950SOL     OW94828   7.643   1.216   3.270  0.1477 -0.1565 -0.0685
60950SOL    HW194829   7.734   1.205   3.296  0.3454  1.7483  0.2146
60950SOL    HW294830   7.607   1.127   3.270  1.7196 -0.8393  0.8251
60951SOL     OW94831   4.757   0.514   0.298 -0.1973  0.6704 -0.6290
60951SOL    HW194832   4.796   0.492   0.383 -0.4668  2.6787  0.0576
60951SOL    HW294833   4.780   0.440   0.242  0.3924 -0.4890  1.0539
60952SOL     OW94834   9.701   4.949   2.126  0.4255 -0.2737 -0.2755
60952SOL    HW194835   9.616   4.944   2.170 -0.0132 -0.1723 -1.0884
60952SOL    HW294836   9.701   4.874   2.067  0.3984  0.3942 -1.1382
60953SOL     OW94837   5.413  12.877   6.071  0.9439 -0.4001 -0.6867
60953SOL    HW194838   5.343  12.909   6.128 -2.4210 -5.1339 -1.5877
60953SOL    HW294839   5.480  12.845   6.131  0.0919 -0.1578  0.4316
60954SOL     OW94840   5.264   1.694   3.787  0.1153  0.3123  0.5759
60954SOL    HW194841   5.301   1.610   3.814 -0.3047 -0.1513 -0.2567
60954SOL    HW294842   5.334   1.757   3.805  1.7479 -0.6474 -1.7684
60955SOL     OW94843   4.574  11.493   5.598 -0.0745  0.7248  0.6092
60955SOL    HW194844   4.579  11.432   5.672 -0.7822 -0.3928 -0.2194
60955SOL    HW294845   4.482  11.517   5.593  0.3346  2.6705  1.5015
60956SOL     OW94846   7.313   9.319   0.524  0.1544 -0.1757 -0.0916
60956SOL    HW194847   7.245   9.254   0.542 -0.2871 -0.0853 -1.3816
60956SOL    HW294848   7.265   9.394   0.487  0.7808  0.4845  0.4098
60957SOL     OW94849   7.749   0.063   7.304 -0.4828  0.3777 -0.2089
60957SOL    HW194850   7.825   0.030   7.351  0.5154  2.7857 -0.0041
60957SOL    HW294851   7.688   0.091   7.372  0.2671  2.3211 -0.2655
60958SOL     OW94852   5.101   7.806   6.695 -0.4456 -0.0121 -0.3238
60958SOL    HW194853   5.093   7.712   6.679  2.1134 -0.3422 -0.1410
60958SOL    HW294854   5.133   7.842   6.612 -1.5891  0.7681 -0.4513
60959SOL     OW94855   0.667   7.742  14.012  0.0630  0.2248 -0.2181
60959SOL    HW194856   0.611   7.790  14.074  0.4738  0.1397  0.2264
60959SOL    HW294857   0.755   7.752  14.048  0.0154 -1.9931  0.6472
60960SOL     OW94858   9.750  11.279  12.708 -0.1466  0.4204  0.2491
60960SOL    HW194859   9.760  11.350  12.771  1.8456  1.3267 -0.9721
60960SOL    HW294860   9.686  11.312  12.645 -0.7825  0.2536  0.7953
60961SOL     OW94861  11.029   5.901  13.154  0.0309 -0.7562  0.4658
60961SOL    HW194862  10.981   5.924  13.075  0.4724  0.8702  0.6312
60961SOL    HW294863  11.041   5.984  13.200  3.2903 -0.9788  0.2513
60962SOL     OW94864   1.193   1.381   5.685  0.2119  0.0581 -0.1188
60962SOL    HW194865   1.164   1.290   5.682 -0.8601  0.4059 -1.7449
60962SOL    HW294866   1.224   1.393   5.775 -0.2123 -1.7218  0.3177
60963SOL     OW94867   5.413   0.290   9.420 -0.0940 -1.0141  0.3357
60963SOL    HW194868   5.370   0.205   9.426 -0.2729 -0.8253  2.3293
60963SOL    HW294869   5.506   0.270   9.428 -0.1668 -0.9846  1.2552
60964SOL     OW94870   1.322   5.597   3.145  0.0888  1.0185  0.2571
60964SOL    HW194871   1.414   5.616   3.125 -0.3235  1.9418 -0.8342
60964SOL    HW294872   1.320   5.501   3.153  0.8770  0.8370 -1.2291
60965SOL     OW94873   8.997  12.038   9.745 -0.4992 -0.2040 -0.5364
60965SOL    HW194874   9.032  12.102   9.806 -1.1906 -1.0611  0.8080
60965SOL    HW294875   9.064  12.030   9.677  0.7697  0.0166  0.6420
60966SOL     OW94876  12.624   2.448   2.866  0.1095 -0.5322  0.6903
60966SOL    HW194877  12.570   2.380   2.906  0.8564 -1.4144  0.2559
60966SOL    HW294878  12.569   2.483   2.796 -0.0391 -1.1932  0.4595
60967SOL     OW94879  10.201   3.252   2.148 -0.4385  0.1510  0.2308
60967SOL    HW194880  10.168   3.163   2.159 -0.0852  0.1707  1.6468
60967SOL    HW294881  10.292   3.241   2.122 -0.5171  0.1060 -0.0282
60968SOL     OW94882  13.457   5.349   8.629  0.7344  0.0188 -0.2919
60968SOL    HW194883  13.414   5.322   8.711 -0.1395 -0.6994 -0.9635
60968SOL    HW294884  13.439   5.443   8.623 -0.4158 -0.1824 -0.3385
60969SOL     OW94885   0.283  13.735   6.074  0.0995 -0.4601 -0.6995
60969SOL    HW194886   0.287  13.781   6.158 -1.2427 -1.0617 -0.2701
60969SOL    HW294887   0.228  13.791   6.019  0.5555 -0.3199 -1.0208
60970SOL     OW94888   0.316   5.262   5.972  0.0333  0.1891  0.4894
60970SOL    HW194889   0.252   5.226   5.909 -0.4452  0.0970  1.0159
60970SOL    HW294890   0.291   5.354   5.981 -0.1754  0.0957  0.8747
60971SOL     OW94891  10.223   5.541   3.682 -0.6213  0.0352 -0.0096
60971SOL    HW194892  10.254   5.630   3.698  1.3784 -0.8414  1.3522
60971SOL    HW294893  10.200   5.507   3.768 -0.0885 -1.1909 -0.3276
60972SOL     OW94894   5.338  11.074   1.407 -0.1403  0.2781 -0.2145
60972SOL    HW194895   5.294  11.124   1.338 -1.4345 -1.2516 -0.5607
60972SOL    HW294896   5.307  11.114   1.488  0.4649  1.3312 -0.4815
60973SOL     OW94897   5.816  10.334   8.107 -0.2911  0.6107  0.6118
60973SOL    HW194898   5.859  10.419   8.099  1.0044  0.1585  2.1225
60973SOL    HW294899   5.827  10.293   8.021  2.2236  0.5940  0.8596
60974SOL     OW94900   8.056  11.684   4.253  0.0631 -0.4120  0.0103
60974SOL    HW194901   8.037  11.773   4.284 -0.6980 -0.8550  0.8812
60974SOL    HW294902   7.970  11.648   4.232  0.0271 -1.8224  2.1935
60975SOL     OW94903   4.195  10.775   5.302 -0.2963 -0.0789 -0.2134
60975SOL    HW194904   4.268  10.765   5.364  1.2036  0.1030 -1.8758
60975SOL    HW294905   4.163  10.863   5.319 -0.1317 -0.1473  0.5245
60976SOL     OW94906   9.435  11.935   4.775  0.3776  0.0347 -0.4619
60976SOL    HW194907   9.479  11.862   4.731  0.4029  0.3702 -1.0186
60976SOL    HW294908   9.365  11.960   4.715 -2.9700 -2.7313  1.9277
60977SOL     OW94909  13.453  12.882   9.755  0.1741  0.1978 -0.0384
60977SOL    HW194910  13.541  12.918   9.747  1.3126 -2.4415 -0.5256
60977SOL    HW294911  13.414  12.896   9.668 -0.3018  2.1949  0.4463
60978SOL     OW94912  11.006  10.689  12.542  0.2924 -0.0986  0.1504
60978SOL    HW194913  10.988  10.782  12.525  2.5818  0.6463  1.3529
60978SOL    HW294914  10.923  10.653  12.571 -0.5935  1.6587 -0.0855
60979SOL     OW94915  11.307   4.654   4.132  0.5485  0.4043  0.4914
60979SOL    HW194916  11.229   4.608   4.163  1.2028 -0.7968  0.4051
60979SOL    HW294917  11.378   4.621   4.187  1.3683 -0.1735 -0.8503
60980SOL     OW94918   4.670   7.074   4.549  0.1915  0.3789  0.1528
60980SOL    HW194919   4.668   7.069   4.453 -0.9323 -1.6304  0.2267
60980SOL    HW294920   4.754   7.035   4.573 -0.3346 -0.8807  0.0191
60981SOL     OW94921   1.205   7.403   8.933  0.5997  0.2560  0.1704
60981SOL    HW194922   1.201   7.377   9.025 -0.3577  2.2972  0.7834
60981SOL    HW294923   1.208   7.321   8.884  0.2982 -0.8908  1.9927
60982SOL     OW94924   5.023  13.998  10.562  0.1586  0.4213  0.3545
60982SOL    HW194925   5.072  13.924  10.529 -0.2568 -0.6075  1.9013
60982SOL    HW294926   4.949  14.008  10.502  0.3055 -0.3319  0.0479
60983SOL     OW94927   8.830  13.403   0.618 -0.1117  1.0739 -0.2042
60983SOL    HW194928   8.771  13.369   0.551 -1.0696  0.5742  0.8598
60983SOL    HW294929   8.797  13.490   0.638  0.1604  1.2144 -0.3711
60984SOL     OW94930   9.600   9.577  13.643  0.1286 -0.4151 -0.2748
60984SOL    HW194931   9.514   9.604  13.674  0.7286 -0.6608  1.7023
60984SOL    HW294932   9.583   9.499  13.590 -0.8913 -0.2056 -0.2780
60985SOL     OW94933  12.675   9.522   3.288  0.2590 -0.7808 -0.1096
60985SOL    HW194934  12.734   9.450   3.267  1.3345  0.0083  0.1401
60985SOL    HW294935  12.712   9.597   3.242 -0.6561 -0.3012 -0.0856
60986SOL     OW94936   1.682   3.021  12.890  0.1229  0.1030  0.7369
60986SOL    HW194937   1.762   3.060  12.855  0.1511 -0.4047  0.2306
60986SOL    HW294938   1.666   2.944  12.835 -1.8051  1.2729 -0.4414
60987SOL     OW94939  10.608   5.720  11.017  0.2843  0.0934 -0.4902
60987SOL    HW194940  10.553   5.692  11.090  0.7456  2.2654  0.7640
60987SOL    HW294941  10.696   5.694  11.042  0.5342  1.4078  0.0772
60988SOL     OW94942   8.495   3.476   6.687 -0.2189  0.1664 -0.0567
60988SOL    HW194943   8.584   3.482   6.722  0.1895 -3.1376 -0.2277
60988SOL    HW294944   8.460   3.395   6.724 -3.4469  1.6502  0.4670
60989SOL     OW94945   2.231   7.314  12.527 -0.3057  0.1189  0.0684
60989SOL    HW194946   2.202   7.405  12.518 -2.5018 -0.4894  0.5502
60989SOL    HW294947   2.324   7.317  12.504 -0.2141  2.5418  0.4834
60990SOL     OW94948   4.824   5.184  12.325  0.0005  0.6452  0.1392
60990SOL    HW194949   4.772   5.172  12.404 -1.2853 -0.6817 -0.8385
60990SOL    HW294950   4.915   5.174  12.354 -0.4718 -0.4334  1.3567
60991SOL     OW94951  12.571   9.314  11.687  0.6599 -0.3676  0.0652
60991SOL    HW194952  12.657   9.354  11.677  0.4625 -0.0214 -0.3081
60991SOL    HW294953  12.525   9.335  11.605  0.2029 -0.5050  0.2788
60992SOL     OW94954   7.321  10.640   0.761  0.0479 -0.0396 -0.2246
60992SOL    HW194955   7.368  10.631   0.844  0.5317  1.8492 -0.2461
60992SOL    HW294956   7.244  10.693   0.782  0.4189  0.8602 -1.0376
60993SOL     OW94957   2.981   5.321   8.251 -0.0995 -0.4300 -0.5184
60993SOL    HW194958   3.074   5.332   8.231 -0.2028 -0.5241 -1.0702
60993SOL    HW294959   2.962   5.230   8.230 -0.0961 -0.6867  0.5393
60994SOL     OW94960   2.644   2.344  10.939  0.3440 -0.0091 -0.2719
60994SOL    HW194961   2.708   2.291  10.892  1.0301 -0.8512  1.5071
60994SOL    HW294962   2.559   2.314  10.906  0.7120 -2.2899  0.6755
60995SOL     OW94963  13.929  13.774   3.659 -0.4746  0.3212 -0.1693
60995SOL    HW194964  13.962  13.738   3.577  0.1262 -1.1840  0.6818
60995SOL    HW294965  13.842  13.808   3.638 -1.0920 -1.6743 -1.0799
60996SOL     OW94966   2.230  11.498   1.814  0.2119 -0.1359  0.3981
60996SOL    HW194967   2.219  11.416   1.863  2.1840 -1.2948 -0.9691
60996SOL    HW294968   2.320  11.496   1.783  0.3403  2.6264  0.3560
60997SOL     OW94969   7.929   1.267   1.403  0.2060 -0.2151  0.3284
60997SOL    HW194970   8.011   1.218   1.401 -0.6700 -1.8227  1.4091
60997SOL    HW294971   7.885   1.244   1.321 -1.2511 -3.3008  1.8137
60998SOL     OW94972   8.668  13.422   3.739 -0.0752 -0.3080 -0.2798
60998SOL    HW194973   8.666  13.358   3.667  2.4330  0.5341 -1.2133
60998SOL    HW294974   8.634  13.503   3.700  0.7878  0.0126 -0.3829
60999SOL     OW94975   2.297   8.948   6.771  0.1564  0.3368  0.2197
60999SOL    HW194976   2.355   8.912   6.703 -0.2025  0.0791  0.0499
60999SOL    HW294977   2.355   8.963   6.845  0.7197  1.4032 -0.4162
61000SOL     OW94978   2.594   9.040   8.496 -0.2573  0.2222  0.6252
61000SOL    HW194979   2.566   8.950   8.482 -2.7676  0.8056  1.3756
61000SOL    HW294980   2.587   9.082   8.410 -0.3804  0.0297  0.5422
61001SOL     OW94981   9.754  10.339  10.409 -0.4683  0.1724 -0.1498
61001SOL    HW194982   9.776  10.247  10.419  2.7858  0.7155 -0.9958
61001SOL    HW294983   9.738  10.350  10.315  0.5797  0.6431 -0.3013
61002SOL     OW94984   4.620   5.439   7.350 -0.3976 -0.5182 -0.8624
61002SOL    HW194985   4.646   5.401   7.434  0.4296  1.1984 -0.2940
61002SOL    HW294986   4.525   5.447   7.355 -0.3005  0.0519  0.1275
61003SOL     OW94987   1.069  13.907  10.324 -0.3010  0.4083 -0.1840
61003SOL    HW194988   1.129  13.874  10.256 -0.0236 -0.0622  0.2803
61003SOL    HW294989   1.017  13.974  10.279 -0.1810  0.0459 -0.8851
61004SOL     OW94990   2.504   9.226   6.878 -1.0098 -0.1465  0.0999
61004SOL    HW194991   2.417   9.265   6.877  0.2462  3.0272 -0.3928
61004SOL    HW294992   2.534   9.231   6.787 -0.6213 -2.1094  0.0723
61005SOL     OW94993  10.759   3.945   4.174 -0.5061  0.0493  0.0001
61005SOL    HW194994  10.668   3.917   4.181 -0.9622  1.2150 -0.8937
61005SOL    HW294995  10.803   3.903   4.247 -1.4891 -1.5583 -0.2929
61006SOL     OW94996   0.960   3.962   7.046  0.3852 -0.1254 -0.1492
61006SOL    HW194997   0.898   4.034   7.056 -0.8135 -1.3628  2.0629
61006SOL    HW294998   0.998   3.952   7.133  2.5983 -0.4234 -1.0867
61007SOL     OW94999  13.796  11.217   5.558 -0.0182  0.7241 -0.4721
61007SOL    HW195000  13.746  11.278   5.612 -2.4095 -0.8893 -0.7302
61007SOL    HW295001  13.810  11.264   5.476  0.5821  1.8941  0.2714
61008SOL     OW95002   4.863  10.190   3.585 -0.3898 -0.3075  0.4641
61008SOL    HW195003   4.921  10.126   3.627 -1.4231 -1.2695  0.4759
61008SOL    HW295004   4.919  10.235   3.522  1.0940  0.8662  2.5064
61009SOL     OW95005   5.138   0.269   7.862 -0.0922  0.0030 -0.2258
61009SOL    HW195006   5.202   0.333   7.893 -2.1563  2.1347  0.0330
61009SOL    HW295007   5.117   0.297   7.772  1.3277 -2.3805 -1.3967
61010SOL     OW95008  10.864   0.972   3.181  0.3865  0.2018 -0.2516
61010SOL    HW195009  10.818   1.055   3.169  1.1714  0.7981  0.7226
61010SOL    HW295010  10.957   0.995   3.170  0.6244 -0.5013  0.2631
61011SOL     OW95011   7.173   7.696   1.254  0.2802  0.7836 -0.0138
61011SOL    HW195012   7.257   7.651   1.259 -0.1611 -0.2040 -1.0239
61011SOL    HW295013   7.163   7.739   1.339  1.5119  0.4014  0.3363
61012SOL     OW95014   2.389  10.213   8.956 -0.0888 -0.3858 -0.0881
61012SOL    HW195015   2.365  10.245   9.043  0.2231 -1.6842  0.5002
61012SOL    HW295016   2.484  10.217   8.954 -0.1359  1.3689 -1.0864
61013SOL     OW95017   9.195   1.716   2.682  0.5437  0.4788 -0.2951
61013SOL    HW195018   9.250   1.768   2.625  0.5111  1.1484  0.2700
61013SOL    HW295019   9.204   1.626   2.650  2.1277  0.5373 -0.0865
61014SOL     OW95020  13.868   6.687   4.277  0.3589  0.8721 -0.3468
61014SOL    HW195021  13.943   6.638   4.311  0.5812  1.6160  0.2850
61014SOL    HW295022  13.892   6.779   4.290 -0.8494  1.1233  0.3046
61015SOL     OW95023  10.302   8.048   1.276 -0.2264 -0.6418 -0.0890
61015SOL    HW195024  10.337   8.001   1.201  1.0585  0.7787 -0.4161
61015SOL    HW295025  10.286   8.136   1.244  1.5682  0.3740  1.5883
61016SOL     OW95026   8.478   6.088  11.812 -0.1291 -0.2014  0.2742
61016SOL    HW195027   8.429   6.164  11.777  1.6985  0.7552 -0.3378
61016SOL    HW295028   8.542   6.126  11.871 -0.9344 -1.5553  2.1084
61017SOL     OW95029  13.442   4.825   1.710 -0.1604  0.3289 -0.0313
61017SOL    HW195030  13.423   4.743   1.756  3.7099 -3.3007 -3.9729
61017SOL    HW295031  13.526   4.853   1.746 -0.4242  1.3798 -0.2144
61018SOL     OW95032  11.765   9.708   0.765 -0.2121  0.3176  0.4522
61018SOL    HW195033  11.704   9.679   0.698 -0.8333  0.2544  1.0303
61018SOL    HW295034  11.844   9.735   0.717 -0.3466 -0.4750 -0.2304
61019SOL     OW95035   1.578  10.724  11.653  0.2650  0.3029  0.1842
61019SOL    HW195036   1.596  10.639  11.693 -0.2673 -0.4182 -1.0306
61019SOL    HW295037   1.664  10.764  11.642  0.5734 -0.3137  0.2999
61020SOL     OW95038   0.229   7.333   9.261 -0.5707  0.7319 -0.3525
61020SOL    HW195039   0.295   7.367   9.322 -0.1194  0.1186 -0.4930
61020SOL    HW295040   0.279   7.305   9.185 -1.1151  1.3250 -0.9440
61021SOL     OW95041   0.325  11.726   9.429  0.1099 -0.2045 -0.2534
61021SOL    HW195042   0.243  11.769   9.452 -0.0088 -0.5686  0.0025
61021SOL    HW295043   0.365  11.784   9.364  0.4214  0.8124  0.8156
61022SOL     OW95044   6.620   9.153   4.651  0.0390 -0.1620 -0.6709
61022SOL    HW195045   6.603   9.215   4.581 -0.6707  0.1873 -0.2105
61022SOL    HW295046   6.624   9.207   4.730 -1.4498 -0.7540 -0.1453
61023SOL     OW95047   0.818   1.719  13.839  0.0504 -0.1886 -0.3146
61023SOL    HW195048   0.874   1.767  13.900  2.1925 -0.7214 -1.7430
61023SOL    HW295049   0.848   1.628  13.844 -1.1790 -0.6442 -0.6384
61024SOL     OW95050   3.089   5.738   5.613  0.7172  0.2316  0.1103
61024SOL    HW195051   3.024   5.793   5.567 -0.3103 -0.3957  0.7690
61024SOL    HW295052   3.154   5.718   5.546  0.6726  1.5513 -0.3677
61025SOL     OW95053  12.118   3.985   8.006 -0.4599  0.0183  0.3760
61025SOL    HW195054  12.024   3.984   8.025 -0.2225 -0.9034  1.6479
61025SOL    HW295055  12.126   3.937   7.923 -0.9636 -1.5271  1.1787
61026SOL     OW95056   1.403   2.104   3.516  0.3452  0.1952 -0.1682
61026SOL    HW195057   1.341   2.040   3.482  0.3151  0.3516 -0.4091
61026SOL    HW295058   1.362   2.189   3.497  0.9089  0.3166 -0.8672
61027SOL     OW95059  12.320   4.674   4.541  0.1844  0.3861 -0.0629
61027SOL    HW195060  12.241   4.716   4.575 -0.4797  1.2513 -2.4684
61027SOL    HW295061  12.391   4.706   4.596 -0.8293  1.5629  0.5938
61028SOL     OW95062   3.497   9.932   1.208  0.1429  0.0932  0.2396
61028SOL    HW195063   3.522  10.002   1.268 -0.8727  0.6376  0.0530
61028SOL    HW295064   3.419   9.965   1.163  0.1145 -0.8324 -0.4359
61029SOL     OW95065   7.709   2.555   8.461 -0.0427  0.0224  0.0618
61029SOL    HW195066   7.799   2.526   8.447  0.0394  0.4215 -0.2715
61029SOL    HW295067   7.690   2.612   8.386 -0.1938  0.8275  0.6961
61030SOL     OW95068  12.065   8.255   5.546  0.6343 -0.0879 -0.1027
61030SOL    HW195069  12.108   8.175   5.516  1.4392 -0.3089  1.5248
61030SOL    HW295070  12.136   8.317   5.559  0.0074  0.9523 -1.4180
61031SOL     OW95071  12.403   5.883   1.665  0.0926 -0.0463 -0.3766
61031SOL    HW195072  12.326   5.836   1.632  0.6275  0.3090 -2.2546
61031SOL    HW295073  12.366   5.958   1.713 -0.7422 -0.5375 -0.2287
61032SOL     OW95074   5.312   8.324   0.856 -0.1121 -0.0051  0.1220
61032SOL    HW195075   5.298   8.347   0.764 -1.5625  1.9303  0.7579
61032SOL    HW295076   5.406   8.308   0.862  0.1153  0.4695 -1.5690
61033SOL     OW95077   0.984  12.307   8.582 -0.1486  0.2766 -0.8347
61033SOL    HW195078   0.994  12.322   8.488  1.7564 -0.1050 -0.7398
61033SOL    HW295079   1.046  12.367   8.622 -2.0824  1.6094  0.3203
61034SOL     OW95080   2.093  11.857   3.050  0.2648  0.4931  0.1527
61034SOL    HW195081   2.127  11.832   2.964 -0.5583 -0.2013  0.0141
61034SOL    HW295082   1.999  11.840   3.045  0.4201 -1.1542  1.7179
61035SOL     OW95083   8.428  14.046   5.386 -0.9721 -0.1197 -0.1040
61035SOL    HW195084   8.411  13.958   5.420  3.6659 -0.3598  2.3456
61035SOL    HW295085   8.418  14.104   5.461 -0.7862  0.9616 -0.8883
61036SOL     OW95086   2.580   4.017   6.055 -0.0660 -0.0322 -0.1785
61036SOL    HW195087   2.552   3.963   6.128  0.5304  0.1734  0.2116
61036SOL    HW295088   2.531   4.099   6.066 -0.1020 -0.0639 -0.1032
61037SOL     OW95089   9.610  11.377  10.085 -0.1141  0.0776  0.2371
61037SOL    HW195090   9.564  11.376  10.001 -0.8416  0.8396  0.6172
61037SOL    HW295091   9.702  11.363  10.062 -0.3645 -0.1788 -0.6441
61038SOL     OW95092   0.191   9.565   1.997  0.0665  0.2941  0.1120
61038SOL    HW195093   0.258   9.610   1.944 -1.2965 -0.3224 -2.2818
61038SOL    HW295094   0.135   9.636   2.028  0.6176  0.6276  0.3818
61039SOL     OW95095   6.222   2.828  12.061  0.5539 -0.3579 -0.5289
61039SOL    HW195096   6.241   2.852  12.152  2.0545 -0.3346 -0.8231
61039SOL    HW295097   6.214   2.732  12.063  1.1331 -0.4135 -0.4412
61040SOL     OW95098   8.746  13.684   9.099  0.2544 -0.2335  0.9240
61040SOL    HW195099   8.662  13.680   9.053 -0.0695 -0.3675  1.5070
61040SOL    HW295100   8.796  13.751   9.052  0.5621 -1.4873 -0.5952
61041SOL     OW95101   4.155   7.597  12.184 -0.0181 -0.2374 -0.1087
61041SOL    HW195102   4.180   7.670  12.129  1.5052 -0.0451  0.7787
61041SOL    HW295103   4.082   7.631  12.237  1.4144  1.1006  1.1334
61042SOL     OW95104   6.826  12.430  11.320 -0.3343 -0.0155 -0.6895
61042SOL    HW195105   6.796  12.499  11.378  1.7856  1.1677 -0.9192
61042SOL    HW295106   6.883  12.474  11.257  1.0435 -1.9179 -0.8784
61043SOL     OW95107  11.655  11.610   6.742 -0.1365 -0.1700  0.1154
61043SOL    HW195108  11.626  11.644   6.826  1.9340  0.8114  0.4950
61043SOL    HW295109  11.632  11.677   6.678 -0.1903 -0.1519  0.1545
61044SOL     OW95110   2.842  10.428   2.878 -0.3061  0.1739 -0.0516
61044SOL    HW195111   2.796  10.362   2.930 -1.2916  1.7987  1.2514
61044SOL    HW295112   2.863  10.497   2.941 -0.1101  1.5067 -1.5309
61045SOL     OW95113   1.665  13.807   6.832  0.1921 -0.2747 -0.6549
61045SOL    HW195114   1.577  13.844   6.841 -0.2967 -1.6331  0.6042
61045SOL    HW295115   1.652  13.713   6.841  1.7035 -0.5593 -1.2128
61046SOL     OW95116   1.489   6.451   5.625  0.3413 -0.1869 -0.2751
61046SOL    HW195117   1.521   6.396   5.697 -1.4602 -1.2105 -0.1761
61046SOL    HW295118   1.546   6.528   5.625  1.5639 -1.0528  1.0144
61047SOL     OW95119   5.139   7.536   6.590 -0.7041 -0.1008 -0.4595
61047SOL    HW195120   5.194   7.461   6.568 -0.0590  0.9573 -2.8004
61047SOL    HW295121   5.201   7.608   6.603 -1.3246  0.1392  1.4736
61048SOL     OW95122   9.238   0.498  12.792 -0.4036  0.5510 -0.1993
61048SOL    HW195123   9.161   0.520  12.739  0.0821  0.8525 -0.7881
61048SOL    HW295124   9.312   0.522  12.737  0.1244 -0.4583  0.0645
61049SOL     OW95125   8.561  11.103   0.668 -0.0832 -0.0587 -0.0018
61049SOL    HW195126   8.545  11.194   0.692 -2.0866 -0.4719  0.4384
61049SOL    HW295127   8.613  11.107   0.588 -2.0394  1.5370 -1.2960
61050SOL     OW95128  13.321   4.481   2.807  0.6448  0.5007  0.3362
61050SOL    HW195129  13.391   4.537   2.773  1.0606 -0.7616 -0.9552
61050SOL    HW295130  13.287   4.435   2.731  0.7500 -1.4920  1.4250
61051SOL     OW95131   7.939  13.907   4.130 -0.7623  0.4267 -0.0807
61051SOL    HW195132   7.855  13.916   4.175  0.8642  0.3525  3.2596
61051SOL    HW295133   7.985  13.990   4.146 -0.0111  0.3458 -1.5513
61052SOL     OW95134  11.982   7.837  10.969  0.0046 -0.4140  0.1622
61052SOL    HW195135  11.952   7.746  10.972 -0.1646 -0.3356  3.2248
61052SOL    HW295136  12.073   7.831  10.943  0.4471 -1.6472  1.8470
61053SOL     OW95137  12.234  13.080  13.291  0.3036  0.0345 -0.1910
61053SOL    HW195138  12.274  13.028  13.221 -1.8045 -0.9242 -0.7725
61053SOL    HW295139  12.146  13.044  13.300 -0.4335  1.9754  1.0443
61054SOL     OW95140   4.631   7.856  12.611 -0.5374 -0.6837 -0.2902
61054SOL    HW195141   4.686   7.777  12.606  0.7137  0.2122 -1.8801
61054SOL    HW295142   4.694   7.927  12.623 -1.4051  0.3071 -1.4767
61055SOL     OW95143   5.256   5.520   8.432 -0.4299  0.1356  0.3840
61055SOL    HW195144   5.284   5.589   8.492  0.6916  0.6141 -0.6648
61055SOL    HW295145   5.336   5.474   8.409 -1.0597 -1.0328  0.4528
61056SOL     OW95146  10.223   9.418  10.401 -0.0714  0.3358  0.0815
61056SOL    HW195147  10.249   9.430  10.492  0.7510  1.3053 -0.2515
61056SOL    HW295148  10.250   9.329  10.379 -0.7654 -0.0902  0.9325
61057SOL     OW95149   8.142   3.279   6.570  0.0500 -0.3212  0.0399
61057SOL    HW195150   8.229   3.308   6.544 -0.0073 -0.1799  0.0047
61057SOL    HW295151   8.087   3.296   6.494 -0.6951  2.6052  1.0928
61058SOL     OW95152   2.016  12.135   9.018  0.0497  0.3478  0.0356
61058SOL    HW195153   2.036  12.158   9.109 -1.9169 -1.4060  0.9835
61058SOL    HW295154   2.092  12.083   8.990  0.2560  0.1018  0.9917
61059SOL     OW95155   0.898   4.173  13.225  0.5476  0.0382 -0.2824
61059SOL    HW195156   0.924   4.187  13.133  1.2762 -0.5513 -0.1772
61059SOL    HW295157   0.815   4.125  13.219 -0.5566  1.8849 -0.6274
61060SOL     OW95158  11.930   5.435  12.219 -0.2423  0.9032 -0.4321
61060SOL    HW195159  12.004   5.496  12.225 -0.2828  1.1765 -2.2170
61060SOL    HW295160  11.944   5.388  12.137 -1.1757 -0.2467  0.0288
61061SOL     OW95161   6.319   3.052   4.035 -0.0526 -0.2485  0.5010
61061SOL    HW195162   6.363   3.087   3.958  1.1455 -2.4045  0.1034
61061SOL    HW295163   6.330   3.119   4.103  1.1803  0.5714 -0.4761
61062SOL     OW95164   4.018  10.281   5.244  0.4332 -0.5249 -0.4019
61062SOL    HW195165   3.929  10.249   5.234  0.1780  0.2468 -0.7230
61062SOL    HW295166   4.039  10.320   5.159  0.8839 -0.2390 -0.1639
61063SOL     OW95167   4.827  10.141   7.869  0.4473  1.0416  0.3533
61063SOL    HW195168   4.762  10.198   7.910  0.7108  1.5883  0.0238
61063SOL    HW295169   4.794  10.124   7.781  0.0393  0.1284  0.6733
61064SOL     OW95170   3.999  13.321   3.787  0.0788 -0.0590 -0.3366
61064SOL    HW195171   4.039  13.348   3.869 -1.5856 -0.2658  0.5895
61064SOL    HW295172   4.059  13.352   3.719  1.0676  0.8534  0.9169
61065SOL     OW95173  12.996   2.893  10.708  0.4250 -0.4865 -0.0938
61065SOL    HW195174  12.945   2.847  10.642  0.6463  1.6022 -1.8230
61065SOL    HW295175  13.086   2.889  10.675  0.8080 -0.8723  0.9720
61066SOL     OW95176   2.705  13.245   0.759 -0.2075  0.1625 -0.2689
61066SOL    HW195177   2.654  13.215   0.683  1.1318  1.0950 -1.5995
61066SOL    HW295178   2.741  13.165   0.797  1.4852 -0.2193 -2.4237
61067SOL     OW95179  10.725  11.192   7.179 -0.7006  0.8189 -0.1356
61067SOL    HW195180  10.812  11.215   7.211 -1.5797  1.3723  2.0276
61067SOL    HW295181  10.698  11.267   7.126 -0.3457  1.1761  0.1873
61068SOL     OW95182   8.797   9.040   6.053 -0.0211  0.3319 -0.1360
61068SOL    HW195183   8.823   9.127   6.021 -0.3396  0.0060 -1.3507
61068SOL    HW295184   8.839   8.979   5.992 -0.7148 -0.3306  0.0360
61069SOL     OW95185   2.048   7.826   0.118  0.4650  0.4324 -0.6094
61069SOL    HW195186   2.063   7.752   0.060 -0.9363 -0.3543 -0.0117
61069SOL    HW295187   2.128   7.832   0.170  0.7090 -0.4774 -0.8696
61070SOL     OW95188   4.189  13.061  13.247 -0.5088  0.4024  0.2273
61070SOL    HW195189   4.245  13.071  13.324 -1.5092  0.0252  1.0164
61070SOL    HW295190   4.230  12.991  13.197 -0.9278 -0.7316  1.4141
61071SOL     OW95191   6.864   5.772   9.205 -0.3975 -0.4115 -0.4856
61071SOL    HW195192   6.915   5.693   9.222  0.0939 -0.0477 -0.2558
61071SOL    HW295193   6.814   5.787   9.285 -2.5237 -1.9607 -1.4277
61072SOL     OW95194   1.088  10.352   0.018 -0.0753  0.3837  0.3647
61072SOL    HW195195   1.074  10.335   0.111 -1.5794  1.5693  0.3980
61072SOL    HW295196   1.016  10.307  -0.026 -0.2205  1.0374 -0.0860
61073SOL     OW95197   0.676   8.793   9.928 -0.4327 -0.4332  0.2027
61073SOL    HW195198   0.646   8.703   9.931 -1.7162 -0.0115  1.2149
61073SOL    HW295199   0.597   8.845   9.946  0.7515  0.7560  2.4995
61074SOL     OW95200   3.673   9.639   9.330  0.0486 -0.1678  0.8395
61074SOL    HW195201   3.603   9.575   9.317 -0.0353  0.0046  0.4281
61074SOL    HW295202   3.669   9.695   9.253  2.3122 -1.7374 -0.5686
61075SOL     OW95203   0.992  12.631   7.908  0.3253 -0.6186  0.2836
61075SOL    HW195204   1.081  12.658   7.883  0.8091 -2.2031  0.1658
61075SOL    HW295205   0.947  12.713   7.928  1.1999  0.3944 -1.6175
61076SOL     OW95206  10.959   3.810  11.421  0.3832  0.3215 -0.2667
61076SOL    HW195207  10.959   3.884  11.360  0.5980 -0.1866 -0.8959
61076SOL    HW295208  10.869   3.805  11.453  0.7112  1.8687  1.0549
61077SOL     OW95209  13.751   2.854  10.711  0.2234  0.1104  0.5154
61077SOL    HW195210  13.822   2.891  10.659 -2.2030  0.6857 -2.6729
61077SOL    HW295211  13.779   2.764  10.729  1.7806  0.3579 -0.5148
61078SOL     OW95212  10.027   2.215   1.251  0.7991 -0.4632  0.0170
61078SOL    HW195213   9.999   2.220   1.343  2.1737  0.3464  0.4051
61078SOL    HW295214  10.023   2.305   1.220  1.0750 -0.6303 -0.5021
61079SOL     OW95215   9.761   1.739  11.201  0.2796 -0.0424 -0.7368
61079SOL    HW195216   9.852   1.720  11.220 -0.1739 -1.8819 -0.1731
61079SOL    HW295217   9.763   1.810  11.138  2.0667  0.5436 -0.0536
61080SOL     OW95218  11.137  11.945   9.819 -0.4308 -0.7678 -0.1111
61080SOL    HW195219  11.221  11.977   9.785 -0.2516 -1.8763 -0.7286
61080SOL    HW295220  11.114  11.872   9.762 -1.4744 -0.9221  0.4939
61081SOL     OW95221   2.665  10.493   4.294  0.1601  0.2109 -0.2921
61081SOL    HW195222   2.638  10.410   4.254 -0.7544 -0.6755  1.9938
61081SOL    HW295223   2.683  10.471   4.385  1.3820  2.2754  0.0336
61082SOL     OW95224   4.601   6.967   0.664 -0.2853  0.0111 -0.4402
61082SOL    HW195225   4.560   7.000   0.744  0.4658 -1.8147  0.7603
61082SOL    HW295226   4.530   6.962   0.601 -0.3963  4.3060 -0.9526
61083SOL     OW95227   5.221   1.853  13.792  0.3340 -0.3313  0.3142
61083SOL    HW195228   5.174   1.796  13.853 -0.0682 -0.6243 -0.2597
61083SOL    HW295229   5.313   1.829  13.802  0.2691 -0.4171  0.7557
61084SOL     OW95230   0.753   6.624  10.642  0.3195  0.2437 -0.1401
61084SOL    HW195231   0.845   6.598  10.632  0.4379  0.8234 -0.6071
61084SOL    HW295232   0.746   6.706  10.593 -0.3125  0.5014  0.3702
61085SOL     OW95233   3.228   8.586   5.844 -0.0894  0.2878  0.0575
61085SOL    HW195234   3.168   8.576   5.918  0.0431  1.8009  0.4033
61085SOL    HW295235   3.186   8.539   5.772 -1.1731  0.4359  0.5817
61086SOL     OW95236   9.587  13.131   0.215 -0.3688 -0.0095  0.0986
61086SOL    HW195237   9.571  13.171   0.301 -2.5165 -0.6030  0.0363
61086SOL    HW295238   9.565  13.038   0.227 -0.5786 -0.1265 -1.0503
61087SOL     OW95239   6.450   8.038   9.622 -0.5457  0.2127 -0.0651
61087SOL    HW195240   6.504   8.117   9.612  0.2090 -0.4467 -1.5663
61087SOL    HW295241   6.436   8.008   9.532 -2.4204 -0.3220  0.3681
61088SOL     OW95242   1.374   2.951  12.694 -0.7659  0.4439 -0.5938
61088SOL    HW195243   1.419   2.930  12.613  0.8287 -2.2068  0.8265
61088SOL    HW295244   1.296   2.894  12.694  0.7984 -1.9008  0.9162
61089SOL     OW95245   8.841   0.513   7.074 -0.1676 -0.1543  0.3993
61089SOL    HW195246   8.812   0.602   7.092  0.0779  0.2972 -1.2744
61089SOL    HW295247   8.797   0.460   7.141 -2.8541  0.8284 -0.4606
61090SOL     OW95248   9.640  12.913  11.750 -0.0458  0.0331  0.0389
61090SOL    HW195249   9.701  12.892  11.680 -0.6211 -1.9776  0.0866
61090SOL    HW295250   9.590  12.987  11.716  0.0799 -0.5186 -1.4369
61091SOL     OW95251   5.465   2.205   1.052  0.6571 -0.1323 -0.0396
61091SOL    HW195252   5.553   2.195   1.016  2.4918 -0.2840  3.9525
61091SOL    HW295253   5.448   2.299   1.046  0.8691 -0.1558 -1.2346
61092SOL     OW95254  13.447   9.882  11.133 -0.7934 -0.0825  0.0648
61092SOL    HW195255  13.425   9.968  11.098  1.7194  0.8263  0.5731
61092SOL    HW295256  13.496   9.839  11.063 -1.6555 -0.9742 -0.0225
61093SOL     OW95257  10.886   8.542   6.470 -0.0872  0.4605 -0.4229
61093SOL    HW195258  10.891   8.496   6.387 -1.7220  1.4889 -1.1454
61093SOL    HW295259  10.854   8.477   6.532 -0.6270  0.1491 -1.0209
61094SOL     OW95260   4.656   9.703  10.311 -0.4281  0.1095  0.6965
61094SOL    HW195261   4.600   9.779  10.294 -1.1830 -0.0852  2.1248
61094SOL    HW295262   4.741   9.728  10.275 -1.1623  0.8037 -0.6495
61095SOL     OW95263   5.121   1.900  10.730 -0.6083  0.2468  0.2111
61095SOL    HW195264   5.139   1.844  10.654 -1.5639  0.9219 -0.5354
61095SOL    HW295265   5.081   1.979  10.693  2.0602  2.1550  1.0397
61096SOL     OW95266  13.138   4.372  13.548 -0.2223  0.6304  0.0231
61096SOL    HW195267  13.117   4.445  13.605 -1.5977  1.0165 -0.9322
61096SOL    HW295268  13.218   4.335  13.585  1.0235  3.1384  0.0341
61097SOL     OW95269   0.562   9.574   7.405 -0.1995 -0.1073 -0.3801
61097SOL    HW195270   0.552   9.661   7.445 -1.0607 -0.6756  0.6878
61097SOL    HW295271   0.482   9.563   7.354 -1.1497 -1.1217  1.2273
61098SOL     OW95272  13.353  10.300   4.786  0.1577  0.3731 -0.4182
61098SOL    HW195273  13.374  10.394   4.785  1.2181  0.1497 -0.0756
61098SOL    HW295274  13.350  10.278   4.879 -0.7399  0.1990 -0.4816
61099SOL     OW95275   0.248  10.648   9.287  0.5019 -0.6206  0.0257
61099SOL    HW195276   0.214  10.597   9.214  1.6077  0.1098 -1.0448
61099SOL    HW295277   0.308  10.711   9.247 -1.0505  1.7821  1.2426
61100SOL     OW95278   1.148   8.592   1.187 -0.5299 -0.3554 -0.9288
61100SOL    HW195279   1.076   8.652   1.203  1.4700  1.7089  1.0700
61100SOL    HW295280   1.189   8.623   1.107  0.4856  1.0573  0.0896
61101SOL     OW95281   4.813   5.041  10.929 -0.6659  0.3787 -0.0186
61101SOL    HW195282   4.860   5.003  11.002 -1.7367  1.2388  1.1655
61101SOL    HW295283   4.789   4.966  10.874  1.1575 -0.1569 -0.1306
61102SOL     OW95284   0.802   0.533   9.234 -0.3816 -0.0340  0.6700
61102SOL    HW195285   0.890   0.550   9.201 -0.0311 -1.0501  1.0423
61102SOL    HW295286   0.744   0.583   9.176  0.2843 -0.9913 -0.8910
61103SOL     OW95287  10.564   7.919  10.671  0.2977 -0.0556 -0.2044
61103SOL    HW195288  10.605   8.003  10.653 -1.5874  0.7304 -1.1290
61103SOL    HW295289  10.493   7.912  10.606  0.8120 -2.6812 -0.6174
61104SOL     OW95290   7.082  11.884   0.703 -0.1082 -0.6216  0.1475
61104SOL    HW195291   7.043  11.833   0.633 -0.8655  2.2833 -1.7231
61104SOL    HW295292   7.176  11.885   0.683 -0.4377  1.0185 -1.4872
61105SOL     OW95293   8.094  12.240   4.616  0.1635  0.1753  0.2468
61105SOL    HW195294   8.150  12.179   4.664  0.5699 -2.0352 -2.7485
61105SOL    HW295295   8.151  12.314   4.596  0.6996 -0.0338  0.9653
61106SOL     OW95296   7.236   1.965  13.192 -0.4949 -0.5057 -0.3211
61106SOL    HW195297   7.176   1.904  13.236  0.0500 -0.8890 -0.1021
61106SOL    HW295298   7.282   2.009  13.263  0.8311 -1.5676 -0.4705
61107SOL     OW95299   7.385   2.842   4.181 -0.2902  0.3370  0.3294
61107SOL    HW195300   7.299   2.862   4.145 -0.9397 -0.8023  1.2194
61107SOL    HW295301   7.380   2.751   4.209  1.8089 -0.3747 -1.3029
61108SOL     OW95302  12.511   0.741   5.822  0.1221 -0.1824  0.3440
61108SOL    HW195303  12.499   0.715   5.731 -0.0734  2.4309 -0.4536
61108SOL    HW295304  12.604   0.763   5.828  0.0679 -0.0479  0.6935
61109SOL     OW95305   1.194   4.085   4.824 -0.2671 -0.3448  0.7271
61109SOL    HW195306   1.203   4.154   4.758  0.7278 -2.0892 -1.0465
61109SOL    HW295307   1.101   4.064   4.825  0.0541 -2.6929 -2.8359
61110SOL     OW95308   2.802  10.458   1.914  0.0070  0.2614 -0.0264
61110SOL    HW195309   2.722  10.470   1.863 -0.3551 -0.8064  0.2657
61110SOL    HW295310   2.872  10.458   1.850 -0.3428  0.0099 -0.4126
61111SOL     OW95311   6.349  13.514   3.522 -0.2270  0.0589  0.5470
61111SOL    HW195312   6.351  13.420   3.538  0.4396  0.1173  0.8475
61111SOL    HW295313   6.257  13.538   3.531 -0.5649 -0.7370 -0.6406
61112SOL     OW95314   0.695   4.770   8.297 -0.3135 -0.2336  0.0819
61112SOL    HW195315   0.749   4.848   8.295 -0.1115 -0.3748 -0.0254
61112SOL    HW295316   0.665   4.759   8.206 -3.4836  1.8776  0.7089
61113SOL     OW95317   9.195   5.597   6.985 -0.2153 -0.5421  0.0626
61113SOL    HW195318   9.184   5.648   7.065  0.1841 -1.7096  0.8944
61113SOL    HW295319   9.278   5.627   6.949 -0.0858 -0.4518  0.4295
61114SOL     OW95320   4.953  10.961   2.239  0.1258 -0.1994  0.2353
61114SOL    HW195321   4.888  11.022   2.205 -0.6124 -1.0627  0.0473
61114SOL    HW295322   4.940  10.961   2.334  0.4393  0.2714  0.2808
61115SOL     OW95323   4.667   2.562   5.676  0.3874  0.1173  0.0293
61115SOL    HW195324   4.661   2.533   5.585  1.2512 -0.5573  0.1639
61115SOL    HW295325   4.605   2.507   5.723 -0.2073  0.6057 -0.1783
61116SOL     OW95326  13.466   2.280   8.955 -0.2334 -0.2205  0.0019
61116SOL    HW195327  13.407   2.264   8.881 -0.9316 -0.1648  0.5390
61116SOL    HW295328  13.447   2.209   9.016  1.0602 -0.8564 -0.2932
61117SOL     OW95329   9.946   7.668   3.110 -0.3362  0.2536  0.0613
61117SOL    HW195330   9.952   7.584   3.156  0.1893 -0.8203 -1.8276
61117SOL    HW295331  10.037   7.690   3.089 -0.5435  0.8223 -0.2632
61118SOL     OW95332   3.339  10.583  10.439 -0.2588  0.0005  0.0636
61118SOL    HW195333   3.338  10.530  10.518 -0.2486 -0.9669 -0.5632
61118SOL    HW295334   3.384  10.528  10.374  2.4196  1.9019  0.1446
61119SOL     OW95335   0.839   0.756   0.566  0.1473  0.6899  0.0295
61119SOL    HW195336   0.922   0.718   0.538  0.2897 -0.3021  1.6434
61119SOL    HW295337   0.785   0.758   0.487  1.1953 -0.0493 -0.7290
61120SOL     OW95338   9.720   7.747  13.482 -0.7802  0.1889  0.3893
61120SOL    HW195339   9.751   7.717  13.567  0.0457 -2.0784 -0.6161
61120SOL    HW295340   9.700   7.666  13.434  0.2408  1.2794 -2.0793
61121SOL     OW95341   4.051   4.629   1.663  0.3325 -0.0041 -0.2565
61121SOL    HW195342   4.065   4.562   1.730  0.2437 -0.8841 -1.0943
61121SOL    HW295343   4.042   4.710   1.712 -3.2200 -1.0393  1.1343
61122SOL     OW95344   5.742   6.580   6.405  0.3373  0.4938 -0.3312
61122SOL    HW195345   5.748   6.531   6.323 -1.2436 -0.1751 -0.0899
61122SOL    HW295346   5.691   6.523   6.463 -0.8482  2.0588  0.2404
61123SOL     OW95347   4.160   7.626   8.052 -0.0486 -0.1124  0.3658
61123SOL    HW195348   4.163   7.571   8.130 -0.1988  0.3148  0.6751
61123SOL    HW295349   4.128   7.567   7.983 -1.2708 -0.1482  0.9307
61124SOL     OW95350   1.649   1.426   0.463  0.7704 -0.4988  0.4095
61124SOL    HW195351   1.590   1.494   0.430 -1.0357 -0.6209  3.1117
61124SOL    HW295352   1.737   1.458   0.439 -0.1430  1.6180 -0.4059
61125SOL     OW95353  12.846  11.181  11.153  0.3514  0.0381 -0.2047
61125SOL    HW195354  12.933  11.212  11.180  0.4716 -0.5120  0.0541
61125SOL    HW295355  12.853  11.173  11.058  0.3421  0.7203 -0.2706
61126SOL     OW95356  14.032   5.540   0.793  0.2992  0.1802  0.0569
61126SOL    HW195357  13.940   5.526   0.813  0.6435 -1.0380  0.8629
61126SOL    HW295358  14.053   5.475   0.726  1.2466 -1.5348  1.9099
61127SOL     OW95359  12.732   9.215   5.607 -0.2574  0.0231 -0.2119
61127SOL    HW195360  12.809   9.215   5.663  0.9287 -4.0109 -1.5169
61127SOL    HW295361  12.747   9.288   5.546 -0.2091  2.6490  2.6657
61128SOL     OW95362   5.970   8.460   3.662  0.7102 -0.0998 -0.4747
61128SOL    HW195363   6.045   8.410   3.694  0.7490 -0.6974 -1.4410
61128SOL    HW295364   6.007   8.543   3.633  0.8855 -0.1022 -0.2597
61129SOL     OW95365   2.728   7.939  11.978  0.1871 -0.1366  0.0520
61129SOL    HW195366   2.793   7.997  11.939  0.4411 -0.2377  0.3269
61129SOL    HW295367   2.720   7.867  11.916 -0.0986  0.1689 -0.2696
61130SOL     OW95368   2.940   1.841   3.963  0.3660 -0.3247  0.1666
61130SOL    HW195369   2.903   1.766   3.917  1.4568 -1.4303  1.0453
61130SOL    HW295370   2.876   1.912   3.948 -1.6789 -1.9056  0.8704
61131SOL     OW95371   5.286  13.001  12.767  0.1315 -0.3309 -0.7231
61131SOL    HW195372   5.305  13.080  12.818  2.1568 -0.3944 -1.2896
61131SOL    HW295373   5.371  12.976  12.731 -0.2445 -3.3530  0.2549
61132SOL     OW95374   1.822   8.899   1.690 -0.0479  0.1290 -0.0877
61132SOL    HW195375   1.740   8.895   1.739  0.9202  1.9919  1.7830
61132SOL    HW295376   1.813   8.828   1.626 -3.1301  0.2961 -0.0359
61133SOL     OW95377   4.820  13.618   4.951 -0.0373  0.0830  0.8972
61133SOL    HW195378   4.748  13.680   4.967 -0.7506 -1.0185  2.1800
61133SOL    HW295379   4.899  13.669   4.971 -0.4071  1.3488 -0.6446
61134SOL     OW95380   3.059   8.205   3.023  0.4553 -0.1799  0.3286
61134SOL    HW195381   3.059   8.185   3.117 -0.5072 -0.1519  0.3488
61134SOL    HW295382   3.085   8.123   2.981  0.2396 -0.3917  0.5984
61135SOL     OW95383   0.991   6.082  12.972 -0.0228 -0.2229 -0.0278
61135SOL    HW195384   1.008   6.015  13.038  2.2659  0.3661  0.0580
61135SOL    HW295385   1.018   6.041  12.889 -1.3205 -0.3699 -0.4029
61136SOL     OW95386   8.614   1.848   1.369  0.7188  0.2705 -0.3829
61136SOL    HW195387   8.671   1.788   1.418  0.2379 -1.6248 -2.0017
61136SOL    HW295388   8.635   1.832   1.277 -0.1503  1.8941 -0.9019
61137SOL     OW95389  10.999  10.330  13.203  0.3071 -0.3490 -0.0790
61137SOL    HW195390  10.973  10.407  13.254 -0.8213 -0.1401 -0.9418
61137SOL    HW295391  11.089  10.349  13.177  0.7695 -0.2851  1.4920
61138SOL     OW95392   1.491   1.978   3.962 -0.5985  0.4077  0.8775
61138SOL    HW195393   1.581   1.954   3.938 -0.3174  0.5157  1.7850
61138SOL    HW295394   1.468   1.917   4.032 -1.3076  0.2565  0.5185
61139SOL     OW95395   9.560  11.735   1.970  0.0168 -0.2518  0.2155
61139SOL    HW195396   9.630  11.770   1.915 -0.1025  1.9306  1.3681
61139SOL    HW295397   9.479  11.771   1.932 -0.3815 -1.4512 -0.1367
61140SOL     OW95398   9.844  12.029   2.150 -0.4247  0.0708 -0.2008
61140SOL    HW195399   9.924  11.991   2.185 -0.0572 -0.9134 -1.9824
61140SOL    HW295400   9.828  12.106   2.204  1.2892 -0.1360  0.6598
61141SOL     OW95401   3.840   0.771   8.928  0.7215  0.6562 -0.3136
61141SOL    HW195402   3.861   0.689   8.882  1.4743  0.4169  0.4458
61141SOL    HW295403   3.766   0.807   8.879  0.7842 -0.1640 -1.0344
61142SOL     OW95404   0.832   4.795  10.237  0.2622  0.4268  0.3997
61142SOL    HW195405   0.758   4.854  10.227 -1.0996 -1.2911  0.0165
61142SOL    HW295406   0.795   4.708  10.234  2.4751 -0.5636 -1.3895
61143SOL     OW95407   1.672  11.560   4.908 -0.6294  0.5055 -0.3809
61143SOL    HW195408   1.692  11.560   4.815  0.1042 -1.3890 -0.2596
61143SOL    HW295409   1.591  11.510   4.916 -0.0490 -0.3765  0.1008
61144SOL     OW95410   4.459  13.496   5.124 -0.1280 -0.0470  0.4959
61144SOL    HW195411   4.406  13.501   5.044 -0.5426 -1.6510  0.6357
61144SOL    HW295412   4.469  13.587   5.152 -1.8782  0.3870 -0.1585
61145SOL     OW95413   5.138   8.043  13.333 -0.2155  0.7574  0.6017
61145SOL    HW195414   5.113   8.083  13.250  1.9296  2.3301  0.5969
61145SOL    HW295415   5.226   8.009  13.318 -1.1240 -2.2102  1.2659
61146SOL     OW95416   1.496   5.284   4.988 -0.0708  0.8192 -0.4661
61146SOL    HW195417   1.418   5.306   4.937  0.1726  0.0908 -1.1943
61146SOL    HW295418   1.561   5.261   4.921  0.8080  1.5350  0.1235
61147SOL     OW95419   2.792   4.323   9.847 -0.3428 -0.3992 -0.6159
61147SOL    HW195420   2.773   4.230   9.838 -1.2454 -0.3517  0.5845
61147SOL    HW295421   2.870   4.326   9.901 -0.3536 -0.4585 -0.5970
61148SOL     OW95422   5.942   7.045   9.897  0.5848 -0.1483  0.1504
61148SOL    HW195423   5.964   7.132   9.862  1.4185  1.3499  3.9566
61148SOL    HW295424   6.023   7.014   9.937 -0.0196 -2.2344 -0.1120
61149SOL     OW95425  10.049   7.494   3.319  0.3514 -0.0535 -0.0402
61149SOL    HW195426  10.083   7.410   3.287  0.0344 -0.8140  1.5483
61149SOL    HW295427  10.112   7.521   3.386  0.6316  1.1721 -0.7647
61150SOL     OW95428   5.245   1.756   9.636  0.6670  0.3538 -0.0377
61150SOL    HW195429   5.253   1.851   9.633  0.1692  0.4355  0.9804
61150SOL    HW295430   5.189   1.738   9.711  1.2849 -0.7770  0.1867
61151SOL     OW95431   4.744   4.224   1.161  0.2808  0.0041  0.4586
61151SOL    HW195432   4.657   4.248   1.129  1.1845  0.2711 -2.0222
61151SOL    HW295433   4.750   4.130   1.144  0.6788  0.0917  0.1215
61152SOL     OW95434  13.656   7.633  12.714  0.1208  0.6251  0.5433
61152SOL    HW195435  13.631   7.717  12.677 -1.9038 -0.2540 -0.2635
61152SOL    HW295436  13.661   7.648  12.808 -1.3304  1.4280  0.5167
61153SOL     OW95437   7.056   4.721   8.472  0.3171 -0.0411  0.4306
61153SOL    HW195438   7.048   4.813   8.500  0.2141  0.1139 -0.0852
61153SOL    HW295439   6.970   4.684   8.490 -0.6605  0.7660 -2.1020
61154SOL     OW95440  12.841   5.351   5.826  0.0693 -0.5547  0.5208
61154SOL    HW195441  12.777   5.316   5.888 -2.1674  0.1653 -1.2460
61154SOL    HW295442  12.862   5.278   5.768 -0.6905 -0.2920 -0.0933
61155SOL     OW95443   1.352   4.089   1.265  0.3113  0.1082  0.6870
61155SOL    HW195444   1.364   4.182   1.245 -0.4571  0.8538  3.2159
61155SOL    HW295445   1.413   4.073   1.338  2.0614 -2.0144 -1.1186
61156SOL     OW95446   9.447   2.027   7.641 -0.2153  0.4167 -0.2908
61156SOL    HW195447   9.371   1.984   7.602 -1.0414  0.8843  0.7495
61156SOL    HW295448   9.410   2.093   7.699  0.9684 -0.2764  1.3120
61157SOL     OW95449  11.479   2.949  11.031 -0.2324 -0.5178 -0.0293
61157SOL    HW195450  11.404   2.891  11.031  0.4703 -1.5582 -2.5411
61157SOL    HW295451  11.446   3.031  10.995 -0.6682 -0.1008  1.2427
61158SOL     OW95452   8.904   8.740   9.060 -0.2459 -0.2431  0.3358
61158SOL    HW195453   8.844   8.711   9.130  0.7359 -0.7622  0.9923
61158SOL    HW295454   8.944   8.659   9.028 -0.0774  0.0763 -0.2737
61159SOL     OW95455   6.166   9.351  11.109 -0.2110  0.3878 -0.2075
61159SOL    HW195456   6.255   9.335  11.078 -0.0702 -1.0336  0.8209
61159SOL    HW295457   6.177   9.413  11.182 -0.2480  1.4230 -1.0551
61160SOL     OW95458  13.303  11.512  11.211 -0.3265  0.5541  0.4030
61160SOL    HW195459  13.360  11.584  11.240  0.7452  0.5053 -1.4122
61160SOL    HW295460  13.346  11.433  11.244 -0.4509  0.6379  0.7634
61161SOL     OW95461   3.111   7.640   6.630 -0.3666  0.4163 -0.2264
61161SOL    HW195462   3.041   7.592   6.585  0.0753  0.9708 -1.5286
61161SOL    HW295463   3.065   7.700   6.688 -0.9598  0.2293 -0.4927
61162SOL     OW95464   4.876  11.944   0.625 -0.1116  0.0282  0.1675
61162SOL    HW195465   4.815  11.980   0.690 -1.4860 -0.5776 -0.7430
61162SOL    HW295466   4.895  12.018   0.567  1.0473  0.5483  1.1537
61163SOL     OW95467  12.022  11.553   9.319 -0.1005  0.1142  0.2837
61163SOL    HW195468  12.012  11.476   9.375 -0.6847  1.0518  1.5038
61163SOL    HW295469  12.101  11.535   9.268 -0.4993 -1.4985  0.1922
61164SOL     OW95470   3.175  13.593  12.585  0.0010  0.3788 -0.3385
61164SOL    HW195471   3.250  13.542  12.614 -0.8617 -1.0933 -0.5806
61164SOL    HW295472   3.190  13.680  12.620  1.1351 -0.2361  0.7898
61165SOL     OW95473  11.741   4.620   1.760  0.0875  0.0078 -0.3090
61165SOL    HW195474  11.701   4.537   1.734 -0.5705  0.0342  0.5598
61165SOL    HW295475  11.692   4.647   1.838  1.5414  0.2630  0.5491
61166SOL     OW95476  11.001   0.454  11.536 -0.2022 -0.1418  0.5069
61166SOL    HW195477  10.923   0.438  11.590 -0.5453 -0.2604 -0.0171
61166SOL    HW295478  10.984   0.408  11.454  2.3185 -4.0099  1.9102
61167SOL     OW95479  12.933   6.036   2.225  0.0577 -0.3966 -0.3463
61167SOL    HW195480  12.944   5.944   2.200 -0.7330 -0.4165 -0.6526
61167SOL    HW295481  12.838   6.048   2.231  0.1698  0.2372  0.3080
61168SOL     OW95482   3.601   3.944   2.066 -0.3391 -0.4461 -0.1203
61168SOL    HW195483   3.570   4.033   2.048 -3.8505 -0.7622  3.0835
61168SOL    HW295484   3.680   3.956   2.119 -1.4642  0.9157  1.3594
61169SOL     OW95485   0.596   3.397   9.855  0.4698  0.4210  0.3352
61169SOL    HW195486   0.534   3.403   9.928  0.4480 -0.9836  0.4605
61169SOL    HW295487   0.682   3.406   9.896  0.4255  0.5428  0.4039
61170SOL     OW95488   7.124  10.876   0.486  0.3262  0.2015 -0.1672
61170SOL    HW195489   7.104  10.968   0.469  1.6585  0.7284  0.9517
61170SOL    HW295490   7.088  10.859   0.573 -0.8707 -0.6750 -0.8057
61171SOL     OW95491   2.599   2.979  12.971  0.0414 -0.2912 -0.3814
61171SOL    HW195492   2.669   2.943  13.025  0.3968  0.4355 -0.3386
61171SOL    HW295493   2.642   3.005  12.890  0.0159  0.9980 -0.0086
61172SOL     OW95494  10.730  10.250   0.602  0.8721  0.1202  0.0566
61172SOL    HW195495  10.700  10.341   0.607 -3.1335 -0.9873 -0.7814
61172SOL    HW295496  10.691  10.207   0.678 -1.6893 -1.8838 -2.2098
61173SOL     OW95497   7.452   5.001  11.834 -0.4780  0.7109  0.2124
61173SOL    HW195498   7.502   4.977  11.756 -0.9432 -2.9566  0.8853
61173SOL    HW295499   7.518   5.018  11.901 -0.0498 -0.5077  0.1301
61174SOL     OW95500  12.085  12.036   4.603  0.6137 -0.3414  0.6400
61174SOL    HW195501  12.099  12.042   4.509 -0.9213  1.0798  0.4459
61174SOL    HW295502  12.163  12.074   4.642  1.5931 -1.6232 -0.0018
61175SOL     OW95503  13.876   0.123   3.580 -0.3375 -0.2275 -0.1558
61175SOL    HW195504  13.810   0.192   3.575  0.0635  0.1075 -1.2687
61175SOL    HW295505  13.900   0.107   3.488 -0.1753 -1.6094  0.1114
61176SOL     OW95506   7.537  13.001  10.165  0.0294  0.8431 -0.6195
61176SOL    HW195507   7.463  12.963  10.116 -0.2541  0.2654  0.2318
61176SOL    HW295508   7.569  12.929  10.219 -0.5568  1.8000  1.0783
61177SOL     OW95509   5.571   4.459   2.415  0.1665 -0.5237  0.4680
61177SOL    HW195510   5.484   4.500   2.413  0.1239 -0.6086  0.5518
61177SOL    HW295511   5.555   4.368   2.391  0.3733 -0.3001 -0.5567
61178SOL     OW95512   0.085   2.283  13.966  0.3156  0.2028 -0.0625
61178SOL    HW195513  -0.003   2.263  13.997 -0.5610  2.1397 -1.1241
61178SOL    HW295514   0.117   2.350  14.025  1.0413 -0.3923  0.2344
61179SOL     OW95515  14.030   4.020   7.032 -0.5737 -0.0028 -0.4204
61179SOL    HW195516  13.936   4.029   7.050 -0.2671 -0.1656  1.5046
61179SOL    HW295517  14.041   3.929   7.005 -1.1763  0.4528 -2.3407
61180SOL     OW95518   8.446   6.566   9.928 -0.0096 -0.4818 -0.5341
61180SOL    HW195519   8.479   6.574   9.838 -1.8009  0.3134 -1.1646
61180SOL    HW295520   8.389   6.642   9.939 -0.5241 -1.0611  0.9751
61181SOL     OW95521   3.247   7.320  10.719  0.2226  0.0689  0.2477
61181SOL    HW195522   3.299   7.367  10.654  0.5763  0.5693  0.8813
61181SOL    HW295523   3.165   7.369  10.725 -0.3745 -0.7646 -0.8080
61182SOL     OW95524   0.195   4.849  11.774  0.0359  0.1453  0.4563
61182SOL    HW195525   0.150   4.933  11.765 -0.5872 -0.0397  1.5730
61182SOL    HW295526   0.173   4.820  11.863 -0.1879 -1.4412 -0.0812
61183SOL     OW95527  12.669   8.869   9.128 -0.0523 -0.0359  0.0885
61183SOL    HW195528  12.585   8.835   9.158  0.3979 -1.8792 -0.5943
61183SOL    HW295529  12.721   8.879   9.208 -0.0069 -1.6245  0.2969
61184SOL     OW95530   2.563  10.468   5.737 -0.7124  0.7461 -0.1147
61184SOL    HW195531   2.474  10.455   5.703 -0.3059  1.5162 -1.5668
61184SOL    HW295532   2.577  10.562   5.731 -0.2866  0.8086  1.4545
61185SOL     OW95533  12.254   3.164   6.479  0.1500 -0.2602 -0.4120
61185SOL    HW195534  12.200   3.085   6.479  1.0893 -0.9104 -0.5911
61185SOL    HW295535  12.285   3.173   6.569  1.4434 -1.0913 -0.7438
61186SOL     OW95536  13.133  10.278   7.665 -0.0487 -0.4474  0.5349
61186SOL    HW195537  13.204  10.216   7.651  1.0992  1.2614 -1.8924
61186SOL    HW295538  13.154  10.319   7.749  1.3364 -0.6100  0.2891
61187SOL     OW95539  10.970   4.705   9.258  0.2704 -0.2528  0.1645
61187SOL    HW195540  10.970   4.782   9.315 -1.3541 -1.7030  2.3181
61187SOL    HW295541  10.901   4.648   9.295  2.6301 -3.5829 -0.0867
61188SOL     OW95542  10.390   7.556  10.805  0.0248 -0.3198 -0.0792
61188SOL    HW195543  10.470   7.518  10.770  1.0516  0.6743  1.0976
61188SOL    HW295544  10.328   7.483  10.805  0.8384 -1.0591 -1.2063
61189SOL     OW95545   3.078   3.600   6.978  0.4113 -0.4168  0.1924
61189SOL    HW195546   3.167   3.631   6.961  0.2624 -0.1815 -0.1819
61189SOL    HW295547   3.058   3.629   7.067 -0.1237  1.5353 -0.5154
61190SOL     OW95548  11.918   6.802   8.606 -0.2362 -0.1963  0.6022
61190SOL    HW195549  12.002   6.833   8.637 -0.1631 -1.2386  1.4999
61190SOL    HW295550  11.853   6.856   8.651 -0.0751  0.3705  0.1740
61191SOL     OW95551   7.003  13.502   0.020 -0.1181  0.0814  0.5862
61191SOL    HW195552   6.967  13.471  -0.063  1.4886 -1.0570  0.2552
61191SOL    HW295553   6.947  13.464   0.087  0.2610 -1.4246  0.0895
61192SOL     OW95554   4.625  11.568   9.806 -0.0395 -0.0199 -0.0734
61192SOL    HW195555   4.695  11.596   9.747 -1.2594  0.6960 -1.2303
61192SOL    HW295556   4.640  11.475   9.818  0.0325 -0.2784 -1.8564
61193SOL     OW95557   9.891  11.296  11.354  0.3187  0.1899  0.4651
61193SOL    HW195558   9.884  11.344  11.271  1.1135 -1.4429 -0.6025
61193SOL    HW295559   9.858  11.357  11.420 -1.1128  1.2487 -1.1480
61194SOL     OW95560   3.701  13.355  12.505  0.2533  0.1092  0.1242
61194SOL    HW195561   3.757  13.421  12.546 -1.5382  1.8085 -0.0148
61194SOL    HW295562   3.632  13.338  12.569  0.1692 -0.9455 -0.2246
61195SOL     OW95563  12.828  13.149   2.808  0.0032 -0.4265 -0.0857
61195SOL    HW195564  12.922  13.140   2.791 -0.1273  0.0027 -1.0977
61195SOL    HW295565  12.798  13.211   2.742 -0.5911  1.2012  1.6540
61196SOL     OW95566   2.571  12.562   7.807  0.1659 -0.2615  1.0496
61196SOL    HW195567   2.612  12.576   7.722 -0.9061 -2.1067  0.1715
61196SOL    HW295568   2.630  12.606   7.869  0.8066  1.4199 -0.6241
61197SOL     OW95569   6.028   5.813   7.864  0.6850 -0.3819  0.1506
61197SOL    HW195570   6.105   5.808   7.921  0.0662 -1.1347  0.9516
61197SOL    HW295571   5.999   5.722   7.856 -0.1789 -0.0890 -0.0722
61198SOL     OW95572   3.441   9.502   9.262  0.3942 -0.3462 -0.4527
61198SOL    HW195573   3.373   9.496   9.196  1.4100 -0.0655 -1.5472
61198SOL    HW295574   3.480   9.415   9.264  0.2133 -0.4224 -0.0358
61199SOL     OW95575   3.581   0.747  12.164  0.4412 -0.9020  0.0907
61199SOL    HW195576   3.533   0.712  12.089  0.3698  0.9103 -0.7521
61199SOL    HW295577   3.674   0.739  12.140  0.4092  1.9191 -1.3642
61200SOL     OW95578  11.308   3.919   2.593  0.4004  0.0067 -0.6597
61200SOL    HW195579  11.259   3.849   2.548  0.2328 -0.3252  0.0268
61200SOL    HW295580  11.340   3.877   2.673  0.0433  0.8003 -0.0925
61201SOL     OW95581   1.592   8.072   0.175 -0.4287 -0.2019 -0.1949
61201SOL    HW195582   1.621   8.003   0.235 -0.1009  0.2734  0.1989
61201SOL    HW295583   1.670   8.124   0.158 -0.2751 -0.8858 -1.8113
61202SOL     OW95584   7.120   6.091   3.226 -0.1958  0.1696  0.5664
61202SOL    HW195585   7.178   6.079   3.151 -0.6774  0.0094  0.2116
61202SOL    HW295586   7.157   6.037   3.295  1.0667  1.4184  0.9168
61203SOL     OW95587  11.327   4.608  12.873  0.0842 -0.3047 -0.0139
61203SOL    HW195588  11.285   4.639  12.953 -2.8850 -1.6015 -0.9185
61203SOL    HW295589  11.342   4.514  12.889  1.9412 -0.0649 -0.0750
61204SOL     OW95590   4.822   3.950   2.103 -0.1913  0.0959  0.4513
61204SOL    HW195591   4.734   3.913   2.096 -0.0829  0.1533 -2.2660
61204SOL    HW295592   4.880   3.878   2.080  0.4333  0.2930  1.3757
61205SOL     OW95593   1.005   3.323   0.179  0.1601  0.0517  0.3420
61205SOL    HW195594   0.983   3.373   0.101  0.7193 -1.4221 -0.8133
61205SOL    HW295595   0.967   3.236   0.163 -0.1916 -0.1311  1.9694
61206SOL     OW95596  11.513   7.961   3.472 -0.1737  0.6317  0.4647
61206SOL    HW195597  11.557   7.937   3.553 -0.5714  2.2042  1.1861
61206SOL    HW295598  11.546   7.899   3.407  1.2445  0.2556  1.5027
61207SOL     OW95599   9.175  13.205   0.187 -0.0773 -0.4773  1.0076
61207SOL    HW195600   9.097  13.261   0.190 -0.3681 -0.6953 -0.8764
61207SOL    HW295601   9.248  13.267   0.178 -0.4725 -0.2721 -2.1038
61208SOL     OW95602   4.169   6.074  13.005  0.3805 -0.4612  0.0012
61208SOL    HW195603   4.171   6.141  12.937  1.2716  1.6097  1.9794
61208SOL    HW295604   4.076   6.057  13.019  0.1603 -0.0493 -0.8656
61209SOL     OW95605   7.980   1.443   2.023  0.3483  0.0650 -0.5383
61209SOL    HW195606   7.894   1.478   2.000 -0.2401 -0.6708  0.4628
61209SOL    HW295607   8.001   1.383   1.951 -0.5738 -0.7150 -0.1912
61210SOL     OW95608   0.665   3.034   2.049  0.5154 -0.0769  0.3933
61210SOL    HW195609   0.648   2.953   2.097 -2.0574 -0.5376 -1.0777
61210SOL    HW295610   0.647   3.011   1.958  2.3214  1.5323 -0.4300
61211SOL     OW95611   9.594   6.761  11.452 -0.0847 -0.5764 -0.0404
61211SOL    HW195612   9.535   6.808  11.393  0.2235  0.6108  0.5513
61211SOL    HW295613   9.549   6.678  11.470 -0.9208 -0.2812 -0.6840
61212SOL     OW95614  11.863   8.481   3.397 -0.5516 -0.1202 -0.2790
61212SOL    HW195615  11.927   8.411   3.400 -0.5529 -0.3442 -3.1574
61212SOL    HW295616  11.901   8.551   3.450  0.1185 -1.7121  1.4216
61213SOL     OW95617   5.339   3.292   3.814 -0.4630 -0.6777 -0.1500
61213SOL    HW195618   5.341   3.386   3.798 -0.7931 -0.3390  1.5611
61213SOL    HW295619   5.253   3.264   3.781  1.1206 -1.2232 -4.3991
61214SOL     OW95620  11.007   1.875  13.205  0.5197  0.2498 -0.0299
61214SOL    HW195621  10.966   1.863  13.119 -0.2516 -4.8543  0.7554
61214SOL    HW295622  11.096   1.843  13.194  1.3864  2.3263  0.5020
61215SOL     OW95623   7.585   2.676  13.350  0.1903  0.0881  0.0535
61215SOL    HW195624   7.490   2.680  13.361  0.3169  0.6479  1.0651
61215SOL    HW295625   7.610   2.592  13.389 -0.1415 -1.3080 -2.5191
61216SOL     OW95626  12.856   6.455   2.729 -0.3512  0.1810 -0.0578
61216SOL    HW195627  12.852   6.469   2.824  2.2380 -1.3910  0.3919
61216SOL    HW295628  12.923   6.515   2.698  0.8663 -1.2542 -0.3546
61217SOL     OW95629  10.735   7.883   1.248  0.6668  0.1237  0.0743
61217SOL    HW195630  10.680   7.811   1.278  0.7409 -0.1506 -0.4361
61217SOL    HW295631  10.689   7.919   1.173  0.2446  1.1148  0.7882
61218SOL     OW95632  12.454   1.302   2.316  0.0656 -0.1299  0.1799
61218SOL    HW195633  12.408   1.292   2.399 -0.7704 -0.8700 -0.3514
61218SOL    HW295634  12.465   1.212   2.284  0.0770  0.1645 -0.6694
61219SOL     OW95635  10.969  12.251   1.161  0.3022 -0.1217  0.4340
61219SOL    HW195636  11.051  12.298   1.147 -1.1970  2.3724 -0.7606
61219SOL    HW295637  10.923  12.304   1.226 -0.7738 -0.9289  0.3512
61220SOL     OW95638  10.781  10.617  13.645 -0.1413  0.1935 -0.3115
61220SOL    HW195639  10.724  10.635  13.719 -0.0051  0.6234 -0.3076
61220SOL    HW295640  10.794  10.702  13.603 -1.5954 -0.3077 -1.8503
61221SOL     OW95641  10.175  12.033   0.739 -0.2603  0.0730  0.0205
61221SOL    HW195642  10.227  11.953   0.734 -0.5484 -0.0308 -3.3518
61221SOL    HW295643  10.240  12.104   0.730 -0.2242  0.1831  1.0004
61222SOL     OW95644   0.786   5.236  13.468 -0.8990 -0.6511 -0.1304
61222SOL    HW195645   0.757   5.309  13.523  0.9478 -0.3460  0.5183
61222SOL    HW295646   0.737   5.161  13.501 -1.7913  0.0260  0.1403
61223SOL     OW95647   0.336  13.848   7.403 -0.2960 -0.4983  0.5972
61223SOL    HW195648   0.364  13.935   7.374  1.0989 -0.1923  2.5978
61223SOL    HW295649   0.410  13.791   7.381 -0.2754 -0.7291  1.2441
61224SOL     OW95650  12.293  12.093  12.578  0.0905  0.0766  0.7001
61224SOL    HW195651  12.270  12.185  12.594  0.7048  0.4709 -0.5252
61224SOL    HW295652  12.384  12.086  12.607  0.1741 -0.0345  0.4113
61225SOL     OW95653  11.915  11.695   1.864 -0.5597  0.0293 -0.6079
61225SOL    HW195654  11.972  11.739   1.927 -0.5984 -0.4765 -0.2119
61225SOL    HW295655  11.917  11.751   1.786 -1.0211  0.9970  0.0556
61226SOL     OW95656  10.515   2.155   1.369 -0.1330  0.0564 -0.9137
61226SOL    HW195657  10.549   2.185   1.453 -1.1496 -2.0090  0.3150
61226SOL    HW295658  10.451   2.222   1.344 -0.0408  0.5537  0.1170
61227SOL     OW95659   5.890   7.756  10.809  0.0415  0.0295  0.1291
61227SOL    HW195660   5.866   7.722  10.723  0.9161 -1.3200  0.3826
61227SOL    HW295661   5.981   7.784  10.798  0.6453 -1.4942  0.9462
61228SOL     OW95662  12.857   2.442  11.498 -0.1708 -0.1692 -0.3603
61228SOL    HW195663  12.896   2.368  11.452 -1.1436 -0.9591  0.0442
61228SOL    HW295664  12.796   2.480  11.435  0.6031  0.5354 -0.6979
61229SOL     OW95665  10.779   9.792   3.092 -0.3165  0.3444 -0.1428
61229SOL    HW195666  10.862   9.776   3.047 -0.8835 -1.0013 -0.7759
61229SOL    HW295667  10.769   9.887   3.091  0.6684  0.4565 -1.0638
61230SOL     OW95668   0.821   9.327   4.443 -0.3769 -0.4212  0.0118
61230SOL    HW195669   0.844   9.396   4.381  0.7988 -1.5121 -0.8062
61230SOL    HW295670   0.885   9.337   4.514 -0.2531 -0.6391 -0.0713
61231SOL     OW95671   6.316  12.020   4.410  0.3930  0.1335  0.0023
61231SOL    HW195672   6.376  11.996   4.340 -0.5904 -1.7600 -0.2443
61231SOL    HW295673   6.370  12.021   4.489  0.4107 -4.2868  0.2715
61232SOL     OW95674  12.698  11.239  12.889 -0.2958 -0.3548 -0.0225
61232SOL    HW195675  12.746  11.313  12.927  0.5965 -0.8130 -0.2497
61232SOL    HW295676  12.644  11.279  12.820  0.1142  0.0981 -0.0848
61233SOL     OW95677  10.605   6.464   6.660 -0.7936 -0.0850 -0.0949
61233SOL    HW195678  10.580   6.476   6.568  0.6172  0.4726 -0.4343
61233SOL    HW295679  10.650   6.379   6.661  2.2199  1.3403 -0.6885
61234SOL     OW95680  13.337   6.138   6.339  0.2442  0.4376 -0.1722
61234SOL    HW195681  13.283   6.096   6.272 -0.4698 -0.6820  1.0392
61234SOL    HW295682  13.399   6.069   6.366  0.9551  1.0781 -0.1368
61235SOL     OW95683   8.134   8.190   1.501 -0.0651 -0.0394 -0.3370
61235SOL    HW195684   8.130   8.095   1.486  0.9837  0.1036 -1.6578
61235SOL    HW295685   8.171   8.198   1.589 -1.2212 -0.8545  0.2538
61236SOL     OW95686   2.272  10.299   6.766  0.0452 -0.1829 -0.5271
61236SOL    HW195687   2.184  10.334   6.758 -0.2338 -0.7332  0.1184
61236SOL    HW295688   2.276  10.230   6.700 -0.6014 -1.3388  0.6022
61237SOL     OW95689   8.379  10.054  11.144  0.0591 -0.1807  0.6155
61237SOL    HW195690   8.300  10.000  11.149 -0.0241 -0.0906  0.3169
61237SOL    HW295691   8.430  10.031  11.222  0.3399 -1.1835  0.1391
61238SOL     OW95692  11.430  10.818   5.220 -0.0187  0.6141 -0.3323
61238SOL    HW195693  11.416  10.736   5.267  0.0786  0.7733 -0.0223
61238SOL    HW295694  11.344  10.841   5.185  0.0067  0.2513 -0.6303
61239SOL     OW95695  10.635   4.965   5.869  1.1249  0.1268 -0.0384
61239SOL    HW195696  10.610   4.979   5.960  2.2128  0.8676  0.1575
61239SOL    HW295697  10.725   4.998   5.863  1.4120 -0.7912 -1.1505
61240SOL     OW95698   2.091   1.066   4.736 -0.7508  0.6532  0.2326
61240SOL    HW195699   2.011   1.041   4.782  1.0034  1.3665  4.0190
61240SOL    HW295700   2.091   1.161   4.735 -0.2376  0.6589 -0.3647
61241SOL     OW95701   3.517   9.826  13.061 -0.3996 -0.3788 -0.0892
61241SOL    HW195702   3.508   9.893  13.128  0.5719 -0.6899  0.3620
61241SOL    HW295703   3.482   9.867  12.982 -1.0474  0.1820  0.4768
61242SOL     OW95704   8.291   0.309   0.747  0.1670 -0.5728 -0.5171
61242SOL    HW195705   8.303   0.253   0.670 -0.4201  0.0689 -1.0962
61242SOL    HW295706   8.230   0.377   0.717 -3.0904 -2.3503  1.5177
61243SOL     OW95707  11.478  10.474   8.981 -0.3776  0.2549 -0.3050
61243SOL    HW195708  11.550  10.445   9.036 -0.1690 -0.0023 -0.7032
61243SOL    HW295709  11.399  10.453   9.030 -0.2085 -0.4057 -0.3074
61244SOL     OW95710   8.651  13.656  12.005  0.3237 -0.1907 -0.4266
61244SOL    HW195711   8.595  13.590  11.965  0.9766 -1.5361  0.7425
61244SOL    HW295712   8.592  13.726  12.032 -0.3239 -0.0518 -2.1501
61245SOL     OW95713   2.068   6.688   3.102  1.2197  0.0729  0.5621
61245SOL    HW195714   2.064   6.746   3.026  0.0974  2.1662  2.1321
61245SOL    HW295715   2.028   6.606   3.072 -1.3847  1.6203 -0.5050
61246SOL     OW95716   6.233   2.077   1.479  0.5451 -0.4395  0.3029
61246SOL    HW195717   6.147   2.118   1.482  0.2734 -0.8789 -0.8134
61246SOL    HW295718   6.288   2.131   1.536  0.0824  1.1767 -0.6996
61247SOL     OW95719  11.157   4.551  12.647  0.8006 -0.5998  0.4126
61247SOL    HW195720  11.207   4.610  12.703 -0.4477 -0.2549  1.2124
61247SOL    HW295721  11.145   4.599  12.565  1.7325 -0.6833  0.2144
61248SOL     OW95722  10.995   5.083   2.601  0.4812  0.0726  0.8795
61248SOL    HW195723  11.090   5.085   2.590  0.4222 -0.4378  0.2179
61248SOL    HW295724  10.979   5.128   2.684  1.1786  1.6550  0.2008
61249SOL     OW95725   2.480   0.936   8.722  0.1797 -0.1399 -0.2663
61249SOL    HW195726   2.469   0.980   8.806 -0.7789 -0.0124 -0.4496
61249SOL    HW295727   2.517   0.851   8.745  0.7238  0.2130  0.2061
61250SOL     OW95728   1.380   2.727   9.133  0.1466 -0.0593  0.1962
61250SOL    HW195729   1.310   2.792   9.131  0.2671  0.0675 -0.9475
61250SOL    HW295730   1.460   2.776   9.115  0.3649 -0.3715  0.3039
61251SOL     OW95731   1.671   1.044   3.202  0.2953  0.2031  0.0127
61251SOL    HW195732   1.670   1.021   3.295 -0.4438  0.4438  0.0762
61251SOL    HW295733   1.578   1.055   3.179  0.4258 -0.6246 -0.9555
61252SOL     OW95734   0.117   3.413  12.712 -0.0156  0.3157  0.2143
61252SOL    HW195735   0.171   3.466  12.653  0.0795 -0.6857 -0.6332
61252SOL    HW295736   0.174   3.394  12.787  0.5070  0.0532 -0.2396
61253SOL     OW95737   3.413   1.240   8.027 -0.1774 -0.3304  0.1468
61253SOL    HW195738   3.474   1.293   7.975  0.7909 -1.3370  0.2025
61253SOL    HW295739   3.395   1.293   8.105  1.2208 -0.2944  0.4751
61254SOL     OW95740   1.456   3.568   3.499 -0.5470  0.0861  0.8568
61254SOL    HW195741   1.368   3.602   3.489 -0.4157 -0.0990 -1.3741
61254SOL    HW295742   1.511   3.646   3.508 -0.6030  0.3715 -1.0160
61255SOL     OW95743   8.460   7.267   0.842 -0.4541 -0.1055  0.2083
61255SOL    HW195744   8.552   7.271   0.870  0.0866 -0.0244 -1.4865
61255SOL    HW295745   8.428   7.357   0.852  1.0341  1.0188 -3.4280
61256SOL     OW95746   1.312   9.175  10.344 -0.3182  0.1453  0.4067
61256SOL    HW195747   1.261   9.241  10.391 -1.7606 -0.3801 -0.3757
61256SOL    HW295748   1.339   9.113  10.412  0.5863  1.2224  1.0585
61257SOL     OW95749  13.501   6.028  11.203 -0.2701  0.2462 -0.3952
61257SOL    HW195750  13.458   6.109  11.229  0.8168  0.5436  0.5324
61257SOL    HW295751  13.592   6.039  11.230 -0.2635 -1.6112  0.5110
61258SOL     OW95752   3.636   2.553   3.557 -0.3452  0.1466 -0.4118
61258SOL    HW195753   3.624   2.631   3.612  0.3823  1.2326 -1.7371
61258SOL    HW295754   3.567   2.493   3.585 -0.8987  1.2492  0.6640
61259SOL     OW95755   2.048   6.928  11.380 -0.2373  0.7716 -0.0836
61259SOL    HW195756   1.996   6.974  11.314  1.4146  1.3496 -1.0213
61259SOL    HW295757   2.123   6.893  11.332 -0.1912 -0.8419  1.0666
61260SOL     OW95758   2.231   1.687   9.843  0.3110 -0.1362  0.2750
61260SOL    HW195759   2.310   1.697   9.896  0.6250  0.7935 -0.3390
61260SOL    HW295760   2.175   1.759   9.870 -0.8222 -1.4287  1.4976
61261SOL     OW95761   7.078  10.374  12.934  0.3899  0.6402  0.2711
61261SOL    HW195762   7.062  10.463  12.903 -1.9389  0.3777  0.5537
61261SOL    HW295763   7.112  10.328  12.858 -3.1643  0.5524 -1.4544
61262SOL     OW95764   9.035   6.618   7.637  0.2791 -0.4771 -0.4116
61262SOL    HW195765   9.079   6.693   7.597 -0.0309 -1.5924 -3.0730
61262SOL    HW295766   9.095   6.545   7.623 -0.8892 -1.3581 -1.0263
61263SOL     OW95767   5.222   2.210   6.518 -0.0957 -0.8641 -0.4917
61263SOL    HW195768   5.230   2.235   6.610  1.2098 -1.5851 -0.3783
61263SOL    HW295769   5.183   2.286   6.476 -1.8120 -0.9502  0.8367
61264SOL     OW95770   5.459   5.349   7.529 -0.0012 -0.0545  0.2129
61264SOL    HW195771   5.482   5.259   7.552  0.2295  0.1652  0.8773
61264SOL    HW295772   5.539   5.399   7.544  0.0572  0.1594 -0.7789
61265SOL     OW95773   0.988   8.285   7.560  0.4752  0.1087  0.0548
61265SOL    HW195774   0.979   8.309   7.468  2.8937  2.1265  0.2370
61265SOL    HW295775   1.022   8.196   7.559 -0.5279 -0.2731 -0.9480
61266SOL     OW95776   8.002  13.560   6.741 -0.4525 -0.0654 -0.1780
61266SOL    HW195777   7.914  13.524   6.756 -0.6720  0.2259 -0.7333
61266SOL    HW295778   7.987  13.653   6.723  0.0637  0.2053  0.7049
61267SOL     OW95779  11.958   4.163  13.524  0.1413 -0.1644  0.3918
61267SOL    HW195780  11.935   4.148  13.616  2.8986  2.3887  1.6713
61267SOL    HW295781  11.950   4.257  13.512  2.0789 -0.1333 -1.2636
61268SOL     OW95782  12.323  13.504   8.459 -0.1636 -0.6014  0.4454
61268SOL    HW195783  12.351  13.559   8.386 -0.5873 -0.2602  0.5384
61268SOL    HW295784  12.228  13.497   8.448  0.0298 -2.4853 -0.3871
61269SOL     OW95785   3.270   7.512   9.894  0.3026  0.2346  0.4885
61269SOL    HW195786   3.207   7.549   9.832  0.6167 -1.3081 -0.8077
61269SOL    HW295787   3.220   7.505   9.976 -0.8507  0.1982 -0.1847
61270SOL     OW95788  13.700   1.453   0.409  0.1222  0.2485  0.1317
61270SOL    HW195789  13.646   1.387   0.366 -0.6165 -1.6111  3.5623
61270SOL    HW295790  13.731   1.410   0.489  2.5401  2.9587  0.8116
61271SOL     OW95791  10.686  10.654  13.057  0.0829 -0.0330  0.2573
61271SOL    HW195792  10.655  10.603  13.132  2.9778 -0.3940  1.3636
61271SOL    HW295793  10.622  10.637  12.988 -1.7817 -1.0648  2.1007
61272SOL     OW95794   6.476   5.064   8.767 -0.0488 -0.1321  0.3565
61272SOL    HW195795   6.381   5.060   8.755 -0.3134  1.5850  1.5644
61272SOL    HW295796   6.500   5.153   8.744  1.3754 -0.6686 -0.3707
61273SOL     OW95797   8.696   5.587   3.476 -0.0096 -0.0749 -0.3397
61273SOL    HW195798   8.604   5.559   3.472 -0.1699  0.5259 -0.8113
61273SOL    HW295799   8.715   5.622   3.389 -0.2686  2.7062  0.6219
61274SOL     OW95800   7.715  10.893   1.211 -0.2691 -0.3406 -0.8203
61274SOL    HW195801   7.752  10.835   1.145  1.5980 -0.2207  0.0494
61274SOL    HW295802   7.779  10.891   1.283 -1.1490  1.2225  0.0596
61275SOL     OW95803   9.800  12.326  10.154  0.4530 -0.1787  0.6868
61275SOL    HW195804   9.793  12.260  10.223  1.5674  0.3586  1.3535
61275SOL    HW295805   9.877  12.377  10.179 -0.1121  1.0756 -0.0673
61276SOL     OW95806   8.744   7.448   4.862 -0.1787  0.2141 -0.2434
61276SOL    HW195807   8.652   7.463   4.840  0.2173  0.9453 -1.4836
61276SOL    HW295808   8.752   7.353   4.871 -0.8942  0.0878 -0.8932
61277SOL     OW95809   9.800   0.693  12.435  0.4325 -0.5147  0.2146
61277SOL    HW195810   9.828   0.618  12.381 -0.6057 -1.2392  0.6472
61277SOL    HW295811   9.826   0.770  12.385  0.8470 -1.1737 -0.6024
61278SOL     OW95812  10.425  12.999  12.923 -0.1193 -0.2533 -0.1519
61278SOL    HW195813  10.393  12.909  12.918 -0.3542 -0.1485 -0.5685
61278SOL    HW295814  10.352  13.052  12.891 -0.1519  0.1268  0.5213
61279SOL     OW95815   0.769  11.449   7.995  0.0454 -0.2089  0.5323
61279SOL    HW195816   0.721  11.513   8.048 -0.6196 -0.2859  0.0345
61279SOL    HW295817   0.826  11.405   8.058 -1.5447 -1.0791  1.4283
61280SOL     OW95818   8.622   0.407   6.752 -0.2713 -0.1837  0.4422
61280SOL    HW195819   8.697   0.459   6.724 -0.3327 -0.3086  0.0321
61280SOL    HW295820   8.561   0.412   6.679 -1.1707  0.8636  1.2338
61281SOL     OW95821  10.782  13.614   7.452 -0.5115 -0.1189 -0.3294
61281SOL    HW195822  10.794  13.598   7.359  1.1875  0.3484 -0.2148
61281SOL    HW295823  10.829  13.695   7.469  0.0626 -0.7214  1.1246
61282SOL     OW95824  11.684   5.658   0.238  0.4931  0.7081 -0.0654
61282SOL    HW195825  11.625   5.685   0.309 -0.0447  0.5599 -0.4584
61282SOL    HW295826  11.627   5.644   0.163  1.2853  3.4203 -1.3111
61283SOL     OW95827   1.173  10.859  13.772  0.1089  1.0613  0.4350
61283SOL    HW195828   1.243  10.821  13.824  1.6618  1.0653 -1.5420
61283SOL    HW295829   1.186  10.823  13.684 -2.0221  1.5282 -0.1376
61284SOL     OW95830   7.344  12.618   0.656 -0.0087  0.0905  0.0052
61284SOL    HW195831   7.375  12.707   0.638 -0.6903  0.3177 -0.0858
61284SOL    HW295832   7.389  12.563   0.591  1.5344  0.1425  0.9896
61285SOL     OW95833   7.688   8.031   2.358  0.4062 -0.0480 -0.0006
61285SOL    HW195834   7.701   7.937   2.372  0.4240  0.0248  0.5074
61285SOL    HW295835   7.598   8.039   2.328  0.7734 -0.3372 -1.2317
61286SOL     OW95836   8.479   1.642   8.943 -0.6526  0.7596  0.6119
61286SOL    HW195837   8.515   1.729   8.960 -0.3682  0.4376  1.6977
61286SOL    HW295838   8.384   1.653   8.956 -0.3492  0.1863  4.2264
61287SOL     OW95839   9.206  11.863   1.124  0.1010  0.3105  0.6157
61287SOL    HW195840   9.272  11.833   1.186  0.4695  1.4809  0.8203
61287SOL    HW295841   9.179  11.784   1.078  2.9449  0.0046 -0.7476
61288SOL     OW95842   3.432  12.333   8.808  0.3555  0.3291 -0.3465
61288SOL    HW195843   3.457  12.300   8.894  1.5909  1.4076 -0.2504
61288SOL    HW295844   3.351  12.381   8.822  0.4307  0.3042  0.1755
61289SOL     OW95845   1.416   9.753   0.191 -0.2040  0.5855 -0.1234
61289SOL    HW195846   1.379   9.698   0.122  0.8042 -0.7932  0.3832
61289SOL    HW295847   1.382   9.841   0.172 -1.0629 -0.0065 -1.5457
61290SOL     OW95848   6.530   3.843   7.896  0.4731  0.2464  0.3126
61290SOL    HW195849   6.471   3.824   7.968  2.4576 -1.1072  1.7002
61290SOL    HW295850   6.576   3.923   7.923  1.3505 -0.3643  0.6924
61291SOL     OW95851  12.394   2.663   3.888  0.3905  0.0099  0.3391
61291SOL    HW195852  12.450   2.588   3.869 -0.3684  0.0242 -2.2261
61291SOL    HW295853  12.305   2.627   3.890  0.2393  0.3422  2.3561
61292SOL     OW95854   3.986   9.868   6.389  0.2847 -0.9115  0.0338
61292SOL    HW195855   4.066   9.918   6.370 -0.0584 -0.4269 -0.1613
61292SOL    HW295856   3.918   9.935   6.396 -0.1286 -1.3364  0.0526
61293SOL     OW95857   0.692   3.757   8.283 -0.0785  0.3558 -0.0057
61293SOL    HW195858   0.640   3.733   8.360  0.0099 -0.0414 -0.0677
61293SOL    HW295859   0.649   3.836   8.250 -0.8394 -0.1421 -0.2403
61294SOL     OW95860  11.405   8.216   8.913  0.2438  0.5017  0.2677
61294SOL    HW195861  11.401   8.128   8.877  1.2637 -1.3300  4.0355
61294SOL    HW295862  11.314   8.237   8.935  0.0845 -0.0320  0.1405
61295SOL     OW95863   8.330   2.997   6.394  0.1072  0.6063 -0.4385
61295SOL    HW195864   8.252   2.966   6.442  0.9811  1.8844  2.0044
61295SOL    HW295865   8.393   2.926   6.403  1.0138  1.6268  2.3923
61296SOL     OW95866  10.672   3.197  11.505 -0.2465 -0.2668  0.2019
61296SOL    HW195867  10.632   3.276  11.541  0.5278 -0.4689  1.5754
61296SOL    HW295868  10.641   3.126  11.562 -0.0361 -0.7953 -0.3291
61297SOL     OW95869   8.495  13.606   7.746 -0.3145 -0.6069  0.8728
61297SOL    HW195870   8.554  13.559   7.804  2.5404  0.0603 -1.2819
61297SOL    HW295871   8.535  13.693   7.736 -0.6303 -0.7071 -2.0437
61298SOL     OW95872   6.069   6.440  10.537  0.0524  0.1028 -0.4370
61298SOL    HW195873   6.149   6.471  10.580  0.2517 -0.0514 -0.6877
61298SOL    HW295874   6.057   6.351  10.571  0.0281  0.1006 -0.4519
61299SOL     OW95875   0.063   2.966  10.730 -0.2110 -0.2970 -0.9744
61299SOL    HW195876  -0.001   2.969  10.801  1.3440  1.3264  0.4510
61299SOL    HW295877   0.045   3.044  10.678  1.8551  1.3731  0.6694
61300SOL     OW95878  13.692   9.036   8.661 -0.5611  0.2731  0.5230
61300SOL    HW195879  13.721   8.996   8.743  0.6275 -3.2937 -1.3964
61300SOL    HW295880  13.769   9.083   8.628 -0.3220 -0.1762  0.4319
61301SOL     OW95881  11.190   9.972   7.776  0.0615  0.2765 -0.2314
61301SOL    HW195882  11.158   9.928   7.697 -0.3225  0.2574 -0.0671
61301SOL    HW295883  11.183   9.906   7.845 -0.4623  0.5751  0.0046
61302SOL     OW95884  11.469   8.775   4.462  0.4124 -0.0618 -0.0673
61302SOL    HW195885  11.501   8.705   4.518 -0.8794 -2.8976 -2.5830
61302SOL    HW295886  11.471   8.739   4.373 -2.0175  2.4278 -1.3332
61303SOL     OW95887  13.906   9.625   2.410 -0.1384 -0.1275  0.0194
61303SOL    HW195888  13.964   9.549   2.416  0.9487  0.6049 -0.8639
61303SOL    HW295889  13.926   9.677   2.487  0.5140  0.2167 -0.3831
61304SOL     OW95890   9.951  13.668   0.532 -0.0988  0.1830 -0.3754
61304SOL    HW195891   9.965  13.721   0.610 -1.4464 -0.2065  0.1629
61304SOL    HW295892  10.031  13.617   0.522 -0.3431 -0.6211  1.4448
61305SOL     OW95893  11.945  12.109   1.840  0.1417  0.3616  0.5362
61305SOL    HW195894  12.038  12.101   1.862 -0.0088 -0.6936  0.8578
61305SOL    HW295895  11.902  12.043   1.894 -0.5314 -0.6895 -1.1867
61306SOL     OW95896   9.834   2.509  10.762  0.2340 -0.3872  0.5221
61306SOL    HW195897   9.817   2.578  10.698 -2.4231 -1.1469  0.2711
61306SOL    HW295898   9.838   2.555  10.846  1.7020  0.3894  0.0477
61307SOL     OW95899   7.545   3.160   9.069 -0.7347  0.0939 -0.4989
61307SOL    HW195900   7.482   3.197   9.132  0.8075  3.0401 -0.5145
61307SOL    HW295901   7.620   3.136   9.123 -0.6991 -0.5600 -0.8392
61308SOL     OW95902   8.421   1.835  13.879 -0.0780 -1.1370 -0.4241
61308SOL    HW195903   8.440   1.776  13.806 -0.0522  0.0935 -1.4421
61308SOL    HW295904   8.481   1.909  13.866 -1.0156 -0.2736  0.0573
61309SOL     OW95905  10.166  12.713   7.981 -0.0151  0.0481  0.3990
61309SOL    HW195906  10.203  12.799   7.963  0.0021  0.2109  1.1745
61309SOL    HW295907  10.115  12.691   7.902  1.0474  0.1778 -0.3386
61310SOL     OW95908   4.687   4.285   2.226 -0.0468 -0.6564 -0.0203
61310SOL    HW195909   4.742   4.332   2.289 -1.0586  0.2886  0.1937
61310SOL    HW295910   4.640   4.221   2.279  1.4984 -2.1397 -0.3453
61311SOL     OW95911   6.790   3.206   9.124  0.2825  0.3723  0.9441
61311SOL    HW195912   6.709   3.163   9.154 -0.8752  0.7563 -1.3965
61311SOL    HW295913   6.759   3.281   9.074  2.0370  0.0061 -0.7867
61312SOL     OW95914  12.801  11.855   8.956  0.0774  0.1482 -0.3919
61312SOL    HW195915  12.862  11.923   8.985 -0.5383  0.0880  1.1598
61312SOL    HW295916  12.765  11.819   9.037  0.2028 -1.8872 -1.1833
61313SOL     OW95917   8.898   1.337   7.099  1.2588 -0.1369 -0.1255
61313SOL    HW195918   8.876   1.430   7.092  2.2572  0.2179  0.9495
61313SOL    HW295919   8.824   1.291   7.060 -0.3084  1.0494  1.3176
61314SOL     OW95920   1.251  11.255  12.154 -0.2792  0.1493  0.3891
61314SOL    HW195921   1.345  11.234  12.153 -0.4030 -0.4015 -0.4896
61314SOL    HW295922   1.208  11.174  12.127 -0.9736  0.5541  0.2572
61315SOL     OW95923   8.958   2.431   5.624  0.3950 -0.1117  0.2550
61315SOL    HW195924   9.049   2.462   5.629  0.9510 -1.5261 -0.5415
61315SOL    HW295925   8.939   2.398   5.712  1.1402 -1.0525  0.0800
61316SOL     OW95926  12.091   6.577   9.284  0.6019 -0.1971  0.5887
61316SOL    HW195927  12.124   6.500   9.239 -0.3181 -0.2968  0.0653
61316SOL    HW295928  12.090   6.645   9.217 -1.4523 -0.5307  0.2216
61317SOL     OW95929   0.070  11.951   9.068 -0.0059  0.8376 -0.0309
61317SOL    HW195930  -0.010  11.907   9.038  0.2325 -0.7031  1.4230
61317SOL    HW295931   0.043  11.998   9.146  0.4570  0.4399  0.3759
61318SOL     OW95932   5.036   7.045  10.147 -0.2466 -0.3474 -0.3471
61318SOL    HW195933   4.988   6.971  10.185 -1.1850 -0.6680 -2.0531
61318SOL    HW295934   5.124   7.038  10.185 -0.3342 -2.2965 -0.3893
61319SOL     OW95935  12.143   1.911   8.014  0.0335  0.2120  0.6181
61319SOL    HW195936  12.048   1.905   8.001 -0.2528  1.6315  1.7890
61319SOL    HW295937  12.162   1.842   8.079 -0.0673 -0.5246 -0.1197
61320SOL     OW95938   8.401   0.042   1.700 -0.5840 -0.6980 -0.1200
61320SOL    HW195939   8.348   0.091   1.762 -1.2503  0.8786 -1.8442
61320SOL    HW295940   8.490   0.047   1.735 -1.0496 -0.4388  1.0481
61321SOL     OW95941   1.314   4.626  11.451  0.5073  0.1746  0.3866
61321SOL    HW195942   1.358   4.675  11.382 -1.3017 -0.9072 -1.6829
61321SOL    HW295943   1.237   4.679  11.473 -0.4071 -0.7671 -0.4579
61322SOL     OW95944  10.886   4.323   3.349  0.3466 -0.4381 -0.0271
61322SOL    HW195945  10.891   4.380   3.425  0.4468  0.0411 -0.3908
61322SOL    HW295946  10.856   4.239   3.384  1.6526 -0.6030  0.7447
61323SOL     OW95947   2.201  13.427   5.143  0.5344  0.6095  0.3344
61323SOL    HW195948   2.187  13.451   5.051 -1.4648  1.1851  0.7292
61323SOL    HW295949   2.181  13.508   5.191  2.0761  0.4656  1.2648
61324SOL     OW95950  13.184   0.048   6.783 -0.1364 -0.0727  0.0517
61324SOL    HW195951  13.167  -0.029   6.729  1.3322  0.2220 -0.9086
61324SOL    HW295952  13.175   0.122   6.723 -0.8607  0.4668  0.8005
61325SOL     OW95953  10.852   7.792  13.411  0.1737 -0.0692 -0.1642
61325SOL    HW195954  10.833   7.739  13.333  0.7137  1.5231 -1.4301
61325SOL    HW295955  10.939   7.828  13.395  0.3005  0.2842  1.2040
61326SOL     OW95956   0.060   6.769   9.195  0.1486  0.1490  0.2600
61326SOL    HW195957   0.140   6.742   9.239 -0.3018 -2.0863 -0.1649
61326SOL    HW295958   0.005   6.805   9.264 -0.4675 -3.0877  1.6349
61327SOL     OW95959   6.710   4.865  13.445 -0.2353 -0.4576 -0.5172
61327SOL    HW195960   6.797   4.893  13.417  0.2068 -0.2875  0.9450
61327SOL    HW295961   6.651   4.907  13.382  0.7065 -0.3371 -1.3566
61328SOL     OW95962   3.600   3.400   7.937  0.1295 -0.1030  0.3720
61328SOL    HW195963   3.526   3.384   7.878 -1.8029  2.1689  1.9892
61328SOL    HW295964   3.579   3.349   8.015 -1.2277  2.4891  1.8540
61329SOL     OW95965   2.727  12.041  11.284 -0.0960 -0.2326 -0.3720
61329SOL    HW195966   2.781  11.967  11.258 -0.4072 -1.2962  1.7828
61329SOL    HW295967   2.640  12.021  11.247 -0.0338 -0.6613 -0.2949
61330SOL     OW95968   0.533  12.239   1.220 -0.1277 -0.0596 -0.0412
61330SOL    HW195969   0.564  12.155   1.184 -1.9739 -0.2962 -1.2155
61330SOL    HW295970   0.563  12.304   1.156  1.8043  0.3111  1.1608
61331SOL     OW95971   4.746   7.330   8.051  0.4786 -0.0626  0.0683
61331SOL    HW195972   4.787   7.398   8.105  0.7295 -0.5174  0.4521
61331SOL    HW295973   4.732   7.257   8.111  0.8369 -0.6032 -0.4961
61332SOL     OW95974   5.197   6.752   4.228  0.2429  0.0410 -0.1133
61332SOL    HW195975   5.159   6.817   4.287 -1.0832  0.3355 -1.2487
61332SOL    HW295976   5.284   6.787   4.207  0.4809  0.2471  1.1300
61333SOL     OW95977   4.541   1.678  10.011 -0.0865  0.2178 -0.5631
61333SOL    HW195978   4.469   1.716   9.960 -0.0934 -0.6876 -1.2545
61333SOL    HW295979   4.606   1.747  10.016 -0.8742  0.9471 -0.1959
61334SOL     OW95980  12.160   3.451   5.266 -0.2315 -0.6296  0.1119
61334SOL    HW195981  12.142   3.542   5.291  0.8569  0.2163 -1.9071
61334SOL    HW295982  12.075   3.417   5.237 -1.1499 -1.0927  3.0542
61335SOL     OW95983   8.862   7.881   0.849  0.5817 -0.2885  0.2713
61335SOL    HW195984   8.798   7.835   0.795  0.9959  1.6812 -2.0895
61335SOL    HW295985   8.946   7.839   0.828  0.5399 -0.5865  0.6810
61336SOL     OW95986   0.224  12.216  11.801 -0.4531 -0.0799 -0.0209
61336SOL    HW195987   0.141  12.260  11.819  0.3565  1.9687 -0.9868
61336SOL    HW295988   0.261  12.264  11.726  1.8618 -0.5728  0.7281
61337SOL     OW95989   1.437   9.141   7.653  0.1739  0.2383 -0.3961
61337SOL    HW195990   1.382   9.084   7.707  0.0223  0.8817  0.1523
61337SOL    HW295991   1.471   9.084   7.584 -1.6025 -0.0608 -1.0650
61338SOL     OW95992   7.197   7.185   2.064  0.1488 -0.7425 -0.4477
61338SOL    HW195993   7.286   7.203   2.034 -0.7367  1.2444 -2.1025
61338SOL    HW295994   7.207   7.161   2.156  2.4117 -0.9658 -0.6951
61339SOL     OW95995   2.096   4.729   6.009 -0.3424 -0.2737 -0.0106
61339SOL    HW195996   2.034   4.661   6.033 -0.0557 -0.2898  0.7156
61339SOL    HW295997   2.182   4.688   6.017 -0.1771  0.1188  0.2722
61340SOL     OW95998  13.398   3.263   0.210  0.2585  0.7606  0.0273
61340SOL    HW195999  13.336   3.263   0.136 -1.6434 -1.2205  1.4962
61340SOL    HW296000  13.399   3.354   0.239 -0.7227  1.1468 -1.0501
61341SOL     OW96001   2.028   6.837   2.833 -0.3746  0.1733  0.2444
61341SOL    HW196002   1.968   6.776   2.789 -3.0942  1.4711  1.8865
61341SOL    HW296003   2.016   6.920   2.786  1.3940  0.1267 -0.3731
61342SOL     OW96004   7.428   3.523   9.612 -0.2508  0.5789 -0.0773
61342SOL    HW196005   7.492   3.491   9.674  0.5063  0.6828 -0.7855
61342SOL    HW296006   7.424   3.617   9.627 -0.1454  0.5895 -0.1190
61343SOL     OW96007   1.308   4.215   1.594  0.3985  0.1238 -0.2126
61343SOL    HW196008   1.301   4.201   1.688  0.6636  0.7840 -0.0880
61343SOL    HW296009   1.220   4.239   1.566  0.3283 -0.0338 -0.1237
61344SOL     OW96010  13.378   6.364  13.366  0.5355  0.0633  0.4548
61344SOL    HW196011  13.458   6.339  13.412  1.2654 -0.6124 -1.1215
61344SOL    HW296012  13.323   6.285  13.370  1.0586 -0.3820 -0.7566
61345SOL     OW96013  12.704  13.910   2.080 -0.4629 -0.1310 -0.0974
61345SOL    HW196014  12.643  13.845   2.046 -0.4876  0.4187 -1.1606
61345SOL    HW296015  12.662  13.994   2.061 -1.3591  0.2566  2.9613
61346SOL     OW96016   5.623   3.876   9.517 -0.3053  0.0649  0.3787
61346SOL    HW196017   5.690   3.891   9.584 -1.9526  1.6602  1.7814
61346SOL    HW296018   5.579   3.796   9.546  0.9213 -0.9804 -0.5388
61347SOL     OW96019  12.394   3.807   2.634  0.1506 -0.0608 -0.3048
61347SOL    HW196020  12.338   3.741   2.592 -0.8805  1.2383 -1.0323
61347SOL    HW296021  12.419   3.767   2.717 -2.0416 -0.6364  0.1355
61348SOL     OW96022   9.275   6.516   8.854  0.1662 -0.0842  0.4626
61348SOL    HW196023   9.339   6.563   8.907 -0.6259  1.2208  0.3086
61348SOL    HW296024   9.216   6.475   8.917 -0.1760  0.6099  0.5936
61349SOL     OW96025   3.255   3.527  11.444 -0.1507 -0.1215 -0.5774
61349SOL    HW196026   3.265   3.619  11.420  2.0675  0.0217  0.6398
61349SOL    HW296027   3.240   3.528  11.539  2.0141 -1.0475 -0.1800
61350SOL     OW96028   1.470   1.262  10.261  0.3640 -0.1112  0.2697
61350SOL    HW196029   1.399   1.198  10.255 -0.4722  0.4384  2.8760
61350SOL    HW296030   1.542   1.223  10.211 -0.7485 -2.1691  0.1613
61351SOL     OW96031  13.727   7.756  10.521 -0.0079  0.0317  0.8513
61351SOL    HW196032  13.765   7.677  10.561  0.7871  0.4281  0.8989
61351SOL    HW296033  13.746   7.826  10.584 -1.2836  0.1588  1.1242
61352SOL     OW96034  10.433   0.106   9.538 -0.2636 -0.2705  0.2078
61352SOL    HW196035  10.343   0.138   9.542 -0.3556 -0.4874 -0.0970
61352SOL    HW296036  10.433   0.043   9.466  0.7121  1.6269 -1.5687
61353SOL     OW96037   3.501   3.952  11.044 -0.2988 -0.3913  0.0439
61353SOL    HW196038   3.516   3.902  11.124 -1.6424  0.3344  0.7943
61353SOL    HW296039   3.576   4.011  11.038 -0.4996  0.0152  1.1692
61354SOL     OW96040  12.871  13.285   5.959 -0.2760 -0.2265  0.0229
61354SOL    HW196041  12.934  13.214   5.946  0.8733  0.2011  2.7289
61354SOL    HW296042  12.911  13.360   5.915  0.1694 -0.4290  0.0741
61355SOL     OW96043  12.551  10.584   2.448  0.3353 -0.5257  0.3621
61355SOL    HW196044  12.463  10.593   2.411 -1.1221 -3.6168  2.6211
61355SOL    HW296045  12.581  10.497   2.419  2.3008  0.0912  0.3768
61356SOL     OW96046   3.117   5.563   3.012  0.5194  0.3699 -0.3139
61356SOL    HW196047   3.154   5.536   3.096  0.6251  1.0920 -0.1160
61356SOL    HW296048   3.056   5.493   2.989  1.5735 -0.5591 -0.3692
61357SOL     OW96049  13.202  12.674   8.768 -0.0767 -0.9560  0.2323
61357SOL    HW196050  13.212  12.603   8.704 -0.8007 -0.6638 -0.2134
61357SOL    HW296051  13.281  12.727   8.757 -1.3393  0.6007 -2.3442
61358SOL     OW96052   5.987   8.049   4.923  0.3084 -0.2758  0.4725
61358SOL    HW196053   5.991   7.988   4.850  0.7275 -1.1439  1.2001
61358SOL    HW296054   5.970   7.994   4.999  0.8067  0.5010  1.1653
61359SOL     OW96055   9.164  13.930   9.405 -0.0254  0.5799  0.6466
61359SOL    HW196056   9.206  13.936   9.491 -1.0995 -3.5577  1.6862
61359SOL    HW296057   9.085  13.878   9.421 -0.8875  0.6738 -2.6812
61360SOL     OW96058   8.466   7.856  12.786  0.6830  0.0581 -0.2416
61360SOL    HW196059   8.422   7.929  12.830  0.5700 -1.2777  2.0056
61360SOL    HW296060   8.559   7.882  12.785  0.4870  0.7625 -0.6022
61361SOL     OW96061   0.226   2.776  13.916  0.3199 -0.3320  0.5362
61361SOL    HW196062   0.189   2.690  13.899  0.1823  0.1558 -1.8685
61361SOL    HW296063   0.318   2.769  13.889  0.0477  0.5307 -0.6861
61362SOL     OW96064   0.281  12.507  11.084 -0.2082  0.4810  0.0454
61362SOL    HW196065   0.303  12.458  11.005 -1.9430  1.6927 -1.2628
61362SOL    HW296066   0.245  12.441  11.144 -0.2471 -0.2307 -0.7428
61363SOL     OW96067  10.515   0.639  12.909  0.1066  0.1028 -0.2139
61363SOL    HW196068  10.441   0.647  12.848 -1.2481  0.6894  1.4340
61363SOL    HW296069  10.542   0.730  12.925 -0.2290  0.0273  0.8280
61364SOL     OW96070  13.342   1.763   0.453  0.0247  0.9401 -0.1557
61364SOL    HW196071  13.294   1.690   0.490 -1.8312  1.2731 -1.7085
61364SOL    HW296072  13.426   1.764   0.499 -0.7311 -0.8399  1.3510
61365SOL     OW96073   7.554  12.596   6.188 -0.2049 -0.0649 -0.0736
61365SOL    HW196074   7.563  12.546   6.269  0.2604 -1.4715 -0.9573
61365SOL    HW296075   7.460  12.599   6.172 -0.3915  1.2187  1.0884
61366SOL     OW96076   0.764   1.931  11.697 -0.3621 -0.0186  0.2334
61366SOL    HW196077   0.727   1.970  11.776 -0.8355 -0.3583  0.1883
61366SOL    HW296078   0.757   1.836  11.712  1.2523 -0.1062  0.5704
61367SOL     OW96079  12.112   4.693   0.250  0.0506  0.4830 -0.3432
61367SOL    HW196080  12.164   4.724   0.324 -0.4979 -2.9392  1.6706
61367SOL    HW296081  12.025   4.729   0.265 -0.2346 -0.7381  1.1368
61368SOL     OW96082   2.830   7.730   9.682  0.0283 -0.0713  0.4340
61368SOL    HW196083   2.766   7.754   9.748 -0.4896  0.2418 -0.1739
61368SOL    HW296084   2.832   7.804   9.621  0.8022 -0.1730  0.3207
61369SOL     OW96085  12.594   1.417  13.594 -0.3098 -0.2564  0.3048
61369SOL    HW196086  12.604   1.325  13.568  2.5836  0.0158  0.1840
61369SOL    HW296087  12.611   1.467  13.514  0.8345  0.4090  0.9420
61370SOL     OW96088   0.297   5.196  12.010  0.0640 -0.1635  0.6774
61370SOL    HW196089   0.335   5.215  12.096  0.4080  1.2336  0.2462
61370SOL    HW296090   0.373   5.180  11.954 -0.1425 -0.7085  0.5521
61371SOL     OW96091   1.973   7.707  11.700 -0.1431  0.4376  0.4137
61371SOL    HW196092   2.007   7.632  11.651 -0.4906 -0.1574  1.0622
61371SOL    HW296093   1.907   7.745  11.642  1.1551  1.2394 -0.5986
61372SOL     OW96094   6.181  10.136   0.071 -0.6021  0.1130  0.0131
61372SOL    HW196095   6.131  10.182   0.004 -0.8128 -1.6504 -1.0863
61372SOL    HW296096   6.250  10.091   0.023 -1.9946 -2.8982  0.6176
61373SOL     OW96097  11.644   4.026   0.568 -0.0493  0.1576  0.4927
61373SOL    HW196098  11.564   3.995   0.524  0.5994 -1.1752  0.2032
61373SOL    HW296099  11.629   4.119   0.581 -0.3764  0.6111 -2.3814
61374SOL     OW96100  12.742  10.611   3.576 -0.3304  0.5030 -0.2454
61374SOL    HW196101  12.728  10.676   3.507 -0.7486  0.5390 -0.1343
61374SOL    HW296102  12.738  10.662   3.657 -0.2008  0.4062 -0.1793
61375SOL     OW96103  13.139   7.185   3.662  0.0672  0.3051  0.4613
61375SOL    HW196104  13.052   7.221   3.644 -0.3033 -0.8275 -0.1430
61375SOL    HW296105  13.126   7.123   3.734 -0.1756 -1.7650 -1.2455
61376SOL     OW96106   6.224   1.474   2.876  0.0844  0.8244  0.0998
61376SOL    HW196107   6.227   1.379   2.891  1.7833  0.7338 -0.6013
61376SOL    HW296108   6.131   1.492   2.862 -0.6921 -0.2239  3.1210
61377SOL     OW96109  10.586  10.641  13.836 -0.1175 -0.0545 -0.3242
61377SOL    HW196110  10.559  10.731  13.857 -0.1656 -0.5803  2.1446
61377SOL    HW296111  10.504  10.592  13.833  0.0260 -0.3237  0.0809
61378SOL     OW96112   2.007   5.588   2.385 -0.1628  0.2469 -0.4893
61378SOL    HW196113   2.055   5.661   2.346  1.0254 -0.7987 -1.0670
61378SOL    HW296114   1.937   5.629   2.435 -0.3748  1.7243 -1.9178
61379SOL     OW96115  12.299   9.053   1.668  0.3913 -0.1666  0.5712
61379SOL    HW196116  12.357   9.096   1.605 -0.3710  0.0969  0.0446
61379SOL    HW296117  12.226   9.113   1.679  0.0497 -0.6458  0.9907
61380SOL     OW96118   2.274  12.710   1.353  0.3478  0.0965  0.1320
61380SOL    HW196119   2.239  12.639   1.301 -0.4341 -1.8191  3.0268
61380SOL    HW296120   2.196  12.758   1.383  0.7973  1.3564 -0.6290
61381SOL     OW96121   0.019   1.222   4.307 -0.2370  0.5391  0.2433
61381SOL    HW196122   0.107   1.236   4.343 -0.8837  2.6090  1.1832
61381SOL    HW296123   0.017   1.129   4.283  2.1349  0.4109  0.3497
61382SOL     OW96124   1.837   3.504   2.155 -0.1747 -0.8700  0.0074
61382SOL    HW196125   1.855   3.494   2.062 -1.2885  1.3233 -0.5118
61382SOL    HW296126   1.825   3.415   2.187  1.5125 -1.7637 -1.6287
61383SOL     OW96127   2.980   0.360  12.774 -0.1166 -0.0020  0.2842
61383SOL    HW196128   3.067   0.342  12.807  0.3390  0.7326 -0.4685
61383SOL    HW296129   2.981   0.328  12.683 -1.1839 -1.5518  0.7705
61384SOL     OW96130   0.522   8.991   0.307  0.1139  0.4893  0.2747
61384SOL    HW196131   0.570   8.948   0.237  0.9786  0.1131  1.0784
61384SOL    HW296132   0.490   9.072   0.268  0.0569  0.0145 -0.7179
61385SOL     OW96133   9.995   9.427   5.451 -0.5163  0.2759  0.9002
61385SOL    HW196134  10.071   9.459   5.499 -0.0416 -0.4221  0.6180
61385SOL    HW296135   9.949   9.507   5.424  0.3053  0.7119  0.7723
61386SOL     OW96136   0.888   1.351   6.145 -0.5329  0.6939 -0.2226
61386SOL    HW196137   0.880   1.297   6.067  2.4328  1.3995 -1.1227
61386SOL    HW296138   0.832   1.427   6.128 -1.4192 -0.0506 -0.7531
61387SOL     OW96139  13.747   2.610   8.593  0.2403 -0.1952  0.7728
61387SOL    HW196140  13.692   2.540   8.626 -1.2341  1.1996  1.4384
61387SOL    HW296141  13.702   2.640   8.514  1.4176 -0.6533 -0.1059
61388SOL     OW96142   4.461   4.555  10.767  0.5048 -0.3414 -0.3789
61388SOL    HW196143   4.480   4.550  10.673 -2.6116  1.0156 -1.1879
61388SOL    HW296144   4.428   4.643  10.780  0.2442 -0.7195  1.8966
61389SOL     OW96145   4.950   7.554   3.115 -0.0792 -0.5151  0.3370
61389SOL    HW196146   4.972   7.646   3.131 -0.9860 -0.2541  0.1054
61389SOL    HW296147   5.034   7.513   3.095  0.2812  0.3458  0.0488
61390SOL     OW96148  11.352   5.708   7.343  0.2447 -0.2459 -0.1164
61390SOL    HW196149  11.337   5.685   7.251 -0.3216 -1.9500  0.3672
61390SOL    HW296150  11.442   5.678   7.360 -1.0167 -3.9904  0.9560
61391SOL     OW96151  10.204  12.537   3.502 -0.1932  0.4081  0.3468
61391SOL    HW196152  10.215  12.598   3.576  0.0746 -0.9440  1.4701
61391SOL    HW296153  10.170  12.457   3.542 -1.8152  0.2262 -1.2829
61392SOL     OW96154   0.235   4.082   6.115  0.0052  0.1250 -0.9113
61392SOL    HW196155   0.243   4.005   6.172  0.2208 -1.0007 -2.4154
61392SOL    HW296156   0.288   4.149   6.158  2.0020 -1.3743 -0.9135
61393SOL     OW96157   4.908   0.578   7.238  0.9651  0.7652 -0.2676
61393SOL    HW196158   4.949   0.500   7.199  0.5390  0.4171 -0.0375
61393SOL    HW296159   4.943   0.581   7.327 -1.6872 -1.3128  1.0367
61394SOL     OW96160   4.981   4.685   1.766  0.3689  0.7202  0.1371
61394SOL    HW196161   4.904   4.629   1.768  1.0387 -0.2491 -0.1688
61394SOL    HW296162   4.996   4.702   1.672  2.2263 -1.6076 -0.0949
61395SOL     OW96163   5.472   5.193   8.988 -0.0903  0.2239 -0.1217
61395SOL    HW196164   5.407   5.254   8.952 -1.2485 -0.9690 -0.1261
61395SOL    HW296165   5.529   5.173   8.915 -1.2702 -0.6775 -0.8324
61396SOL     OW96166   6.270   0.650   1.321 -0.1903  0.4750 -0.1006
61396SOL    HW196167   6.357   0.637   1.358  0.2733 -1.8078 -1.7964
61396SOL    HW296168   6.210   0.618   1.388  0.4346 -0.5203  0.0028
61397SOL     OW96169   3.791  12.881  10.020  0.3540 -0.2904 -0.2642
61397SOL    HW196170   3.785  12.942   9.946  1.7338  0.2797  0.0513
61397SOL    HW296171   3.884  12.856  10.022  0.7132  0.9603  2.2262
61398SOL     OW96172   7.327   8.105   7.415 -0.0233 -0.3283 -0.1930
61398SOL    HW196173   7.328   8.044   7.341 -2.1603 -1.2726  0.4647
61398SOL    HW296174   7.371   8.058   7.486 -1.4664 -1.0933  0.2450
61399SOL     OW96175   6.578   5.090  11.209  0.4740 -0.4086 -0.1437
61399SOL    HW196176   6.658   5.114  11.255  0.2776  0.9039 -0.4625
61399SOL    HW296177   6.608   5.041  11.132  0.9964  0.3783 -0.4462
61400SOL     OW96178   4.158   9.414   3.941 -0.1182 -0.1745 -0.4488
61400SOL    HW196179   4.217   9.340   3.955  1.1868  1.0676  0.9684
61400SOL    HW296180   4.097   9.410   4.016 -0.0268  0.2069 -0.3549
61401SOL     OW96181   5.450   5.029   5.267  0.0561  0.2668 -0.9701
61401SOL    HW196182   5.492   5.079   5.337 -1.2777 -1.0963  0.9083
61401SOL    HW296183   5.420   5.095   5.205 -1.1104  1.7988  1.1114
61402SOL     OW96184   8.393   2.776   3.589  0.3356 -0.1042  0.3426
61402SOL    HW196185   8.400   2.711   3.659  1.3848 -0.3594  0.0098
61402SOL    HW296186   8.299   2.797   3.587  0.2254 -0.3459  1.5804
61403SOL     OW96187  13.924   4.434  13.103 -0.0393 -0.4052  0.0726
61403SOL    HW196188  13.972   4.382  13.039 -0.0405 -1.1761  0.6789
61403SOL    HW296189  13.913   4.375  13.178 -2.3754 -0.4590 -0.2258
61404SOL     OW96190   5.483   0.643   2.638 -0.1915  0.3476 -0.4536
61404SOL    HW196191   5.392   0.618   2.651  0.6898 -2.1672  1.7298
61404SOL    HW296192   5.531   0.594   2.704  2.6518  2.5432 -0.7167
61405SOL     OW96193  13.257  12.970   7.086  0.0945 -0.4031  0.2501
61405SOL    HW196194  13.292  12.991   7.000  0.1455  1.6772  0.7264
61405SOL    HW296195  13.332  12.981   7.146 -0.6643  1.4795  0.9376
61406SOL     OW96196  12.180  12.387   6.272  0.0430  0.0464  0.1168
61406SOL    HW196197  12.221  12.324   6.331  0.6882 -0.8149 -1.1994
61406SOL    HW296198  12.089  12.358   6.265  0.2918 -0.6610 -0.3344
61407SOL     OW96199   7.369  10.813   4.127 -0.1474 -0.5405 -0.2776
61407SOL    HW196200   7.320  10.809   4.045  0.7479 -0.2194 -0.8446
61407SOL    HW296201   7.437  10.879   4.111 -0.7657  0.4996  1.1820
61408SOL     OW96202   8.347   9.930   2.254  0.3949 -0.2471 -0.1509
61408SOL    HW196203   8.357  10.003   2.315 -3.2193  0.8209 -0.5989
61408SOL    HW296204   8.360   9.969   2.167 -2.2541  0.1835 -0.4394
61409SOL     OW96205  12.478   0.897  12.227  0.4039  0.4288 -0.3063
61409SOL    HW196206  12.430   0.823  12.191 -1.8832  1.9861 -0.6247
61409SOL    HW296207  12.447   0.905  12.317  0.4489  1.1323 -0.3466
61410SOL     OW96208  12.588   6.970   0.185 -0.6477  0.0977 -0.1407
61410SOL    HW196209  12.659   7.026   0.216 -0.1962 -1.0028  0.9314
61410SOL    HW296210  12.588   6.896   0.246 -1.9055 -0.5430 -0.8722
61411SOL     OW96211   8.013   9.418   5.948 -0.2565  0.4439 -0.0450
61411SOL    HW196212   8.059   9.481   5.893 -0.0500  1.3928  1.1688
61411SOL    HW296213   7.958   9.368   5.887 -0.2065  1.5983 -1.0661
61412SOL     OW96214  13.304   3.757   8.781 -0.1609 -0.0043 -0.2815
61412SOL    HW196215  13.356   3.734   8.704 -1.4725 -0.5189 -1.0499
61412SOL    HW296216  13.289   3.851   8.772  1.0482  0.2556  0.2291
61413SOL     OW96217   2.388   8.867   4.413  0.0063  0.3244 -0.2216
61413SOL    HW196218   2.394   8.886   4.319 -0.8130 -0.3903 -0.4405
61413SOL    HW296219   2.341   8.783   4.417  2.3837 -1.0684  0.7097
61414SOL     OW96220   4.949   2.357   3.453  0.1981 -0.2819  0.2766
61414SOL    HW196221   4.858   2.358   3.424  0.1609 -0.8566  0.3692
61414SOL    HW296222   5.000   2.354   3.372  0.1605  0.7351  0.1996
61415SOL     OW96223  13.961   1.604  13.650 -0.2842 -0.0117  0.1231
61415SOL    HW196224  13.969   1.694  13.617 -0.8117 -0.4491 -1.2605
61415SOL    HW296225  14.052   1.577  13.667 -0.1820  1.0982  1.4881
61416SOL     OW96226   7.050   5.423   1.334  0.2354 -0.0813 -0.8390
61416SOL    HW196227   6.960   5.392   1.325 -0.2477  0.7192  0.8632
61416SOL    HW296228   7.054   5.501   1.279 -0.2967  0.2437 -0.4214
61417SOL     OW96229   5.729   1.261   7.631 -0.1389 -0.2421 -0.2698
61417SOL    HW196230   5.818   1.252   7.662 -0.3229 -0.7902  0.1024
61417SOL    HW296231   5.735   1.325   7.559  0.4400  0.2244  0.1848
61418SOL     OW96232   0.593  12.005  11.187  0.3301  0.2350 -0.3206
61418SOL    HW196233   0.531  11.976  11.254 -2.5007 -0.1463 -2.8783
61418SOL    HW296234   0.609  11.927  11.134 -0.9204  1.3703 -2.5107
61419SOL     OW96235  13.787  10.818  11.235 -0.1484  0.0680 -0.0282
61419SOL    HW196236  13.718  10.879  11.209  0.1727  0.8832  0.9557
61419SOL    HW296237  13.839  10.867  11.298  2.2003 -0.0161 -1.7686
61420SOL     OW96238   1.518  13.496  11.954 -0.2381  0.1403 -0.0678
61420SOL    HW196239   1.551  13.517  12.041 -0.5589 -0.7741  0.2928
61420SOL    HW296240   1.440  13.443  11.970 -0.0498 -0.4161 -0.9110
61421SOL     OW96241  10.760   3.629  11.562 -0.7622 -0.3560  0.2911
61421SOL    HW196242  10.782   3.536  11.560 -0.5521 -0.2881 -0.6043
61421SOL    HW296243  10.680   3.636  11.511 -0.5596  0.0153  0.0201
61422SOL     OW96244   0.302   5.229  13.926  0.2039  0.1837  0.4007
61422SOL    HW196245   0.316   5.139  13.898  1.3183  0.6030 -0.4486
61422SOL    HW296246   0.320   5.228  14.020  0.7211 -0.3821  0.3001
61423SOL     OW96247   7.683   9.259   8.152  0.2229 -0.5414  0.3488
61423SOL    HW196248   7.660   9.348   8.175  1.3205 -0.3720  0.8530
61423SOL    HW296249   7.771   9.246   8.188  0.3804 -1.5811 -0.3354
61424SOL     OW96250   5.728   5.528   8.399  0.0133  0.0297  0.3177
61424SOL    HW196251   5.789   5.553   8.329  0.1977  1.1138  0.8457
61424SOL    HW296252   5.774   5.550   8.480 -0.7808  0.1442  0.7471
61425SOL     OW96253  13.515   0.729   4.888  0.6030 -0.0416 -0.2785
61425SOL    HW196254  13.427   0.760   4.908  0.5915 -1.0741  1.5052
61425SOL    HW296255  13.555   0.800   4.839 -1.0403  0.6702 -0.6364
61426SOL     OW96256   7.054  13.925   0.846 -0.5706  0.2338  0.1667
61426SOL    HW196257   7.028  14.015   0.868  0.1659  0.2399  1.0940
61426SOL    HW296258   6.971  13.880   0.830 -0.9102  1.3103 -1.3502
61427SOL     OW96259   2.561   5.031  10.042 -0.2167 -0.3348 -0.8466
61427SOL    HW196260   2.619   4.960  10.014  0.4703  0.0176 -0.3541
61427SOL    HW296261   2.539   5.078   9.962  0.1789 -0.4791 -1.0432
61428SOL     OW96262   9.615   3.653  10.305  1.0079 -0.0977  0.3076
61428SOL    HW196263   9.653   3.695  10.228  2.1515 -0.3792  0.7063
61428SOL    HW296264   9.595   3.563  10.276 -0.6131  0.4061 -0.2808
61429SOL     OW96265  13.011   3.274   1.835  0.8735  0.0918 -0.1196
61429SOL    HW196266  12.934   3.237   1.793 -1.0321 -0.1136  3.2015
61429SOL    HW296267  13.082   3.213   1.815 -0.1369 -0.5477 -1.9682
61430SOL     OW96268   0.878   2.142  12.853  0.3736  0.2129 -0.4447
61430SOL    HW196269   0.918   2.061  12.823 -0.6935 -0.0973 -1.1159
61430SOL    HW296270   0.853   2.125  12.944  0.2492 -0.1873 -0.5512
61431SOL     OW96271   4.999   3.908   0.039  0.3675 -0.3578 -0.4273
61431SOL    HW196272   4.956   3.894   0.123  0.7245 -1.4848 -0.4179
61431SOL    HW296273   5.058   3.833   0.029 -0.0640 -0.5228 -1.9260
61432SOL     OW96274   8.938  10.659  11.904  0.1833  0.6600  0.1419
61432SOL    HW196275   8.886  10.736  11.879  1.4888  2.1803  1.8120
61432SOL    HW296276   8.973  10.681  11.991 -0.0528 -2.2030  1.0679
61433SOL     OW96277  11.229  12.939   1.499  0.1081 -0.3206 -0.1512
61433SOL    HW196278  11.317  12.973   1.478 -0.4261  0.4356 -1.2992
61433SOL    HW296279  11.192  12.916   1.413 -2.2603  3.0341 -0.2532
61434SOL     OW96280   2.481   9.237  12.400 -0.5626 -0.0335 -0.1922
61434SOL    HW196281   2.482   9.333  12.405 -0.5180 -0.0003 -0.8303
61434SOL    HW296282   2.566   9.210  12.434 -0.0616  0.2150 -1.2190
61435SOL     OW96283   7.213   4.000   4.724 -0.2716  0.4713  0.2291
61435SOL    HW196284   7.129   4.032   4.758 -0.1468  0.3236  0.6780
61435SOL    HW296285   7.199   3.995   4.629 -0.3715  1.6185  0.1733
61436SOL     OW96286  10.267   9.523  10.937  0.0895 -0.3419  0.0922
61436SOL    HW196287  10.279   9.616  10.920 -0.1464 -0.2331  0.4951
61436SOL    HW296288  10.354   9.492  10.962  0.4399 -0.5120 -1.3020
61437SOL     OW96289   6.624  13.453   8.588  0.1712 -0.5449 -0.0667
61437SOL    HW196290   6.712  13.425   8.615 -0.0837 -0.8345  0.4961
61437SOL    HW296291   6.638  13.530   8.534  0.7534 -0.4064  0.2779
61438SOL     OW96292  13.564   7.780   1.608 -0.4488 -0.0940 -0.4278
61438SOL    HW196293  13.558   7.694   1.567  0.9358  0.2805 -1.5088
61438SOL    HW296294  13.522   7.839   1.545 -0.6931  0.1337 -0.0544
61439SOL     OW96295   5.500   9.986  12.701 -0.1806  0.4850 -0.0542
61439SOL    HW196296   5.432  10.053  12.714 -0.1769  0.6763 -0.9224
61439SOL    HW296297   5.545   9.981  12.785 -0.6039  1.1067  0.2231
61440SOL     OW96298  10.193  12.736   8.869 -0.1583  0.5063 -0.1602
61440SOL    HW196299  10.157  12.817   8.905 -1.5222 -0.3325  0.4626
61440SOL    HW296300  10.241  12.764   8.791 -0.7657  1.8933 -0.0732
61441SOL     OW96301  10.860   3.745  12.029  0.3538 -0.2549  0.7091
61441SOL    HW196302  10.784   3.691  12.051  0.4374 -0.1774  1.1925
61441SOL    HW296303  10.921   3.684  11.988  0.5548 -0.5915  1.4926
61442SOL     OW96304   9.691   2.001   5.062 -0.6750 -0.4200 -0.4904
61442SOL    HW196305   9.638   2.080   5.066  0.7611  0.5661  0.2228
61442SOL    HW296306   9.727   1.991   5.150  0.1381 -1.1622 -0.8804
61443SOL     OW96307   4.494   8.034   1.272  0.4265  0.1106  0.0030
61443SOL    HW196308   4.466   8.068   1.187  0.0621  1.0021  0.4655
61443SOL    HW296309   4.576   7.988   1.253 -0.0608 -0.4018 -0.9587
61444SOL     OW96310   7.386   4.489   7.190  0.0475 -0.7808  0.0428
61444SOL    HW196311   7.398   4.570   7.141  1.1394  1.0225  2.9812
61444SOL    HW296312   7.297   4.495   7.224  0.3262 -0.4835  0.7408
61445SOL     OW96313   9.293   3.427   6.144 -0.9416 -0.5809  0.2332
61445SOL    HW196314   9.335   3.399   6.226 -0.1836  4.0770  1.7487
61445SOL    HW296315   9.362   3.419   6.078 -0.4489 -1.0649  0.7863
61446SOL     OW96316   8.834   5.913  12.542 -0.0814  0.7045  0.8315
61446SOL    HW196317   8.869   6.003  12.545 -0.7882  1.0562 -0.5402
61446SOL    HW296318   8.877   5.874  12.466  0.4647 -0.2599  1.6118
61447SOL     OW96319   0.419   4.265   9.521 -0.0801  0.1657  0.2495
61447SOL    HW196320   0.366   4.192   9.554  1.1500 -0.0710  1.8078
61447SOL    HW296321   0.474   4.290   9.595 -0.0535  2.3098 -0.4349
61448SOL     OW96322  10.679   2.836  10.055  0.0157  0.2075  0.2349
61448SOL    HW196323  10.773   2.819  10.045 -0.1522 -0.5245 -0.2357
61448SOL    HW296324  10.639   2.788   9.983 -0.8166 -0.5177  1.1477
61449SOL     OW96325  13.977   9.511   7.534  0.5741 -0.2425  0.0907
61449SOL    HW196326  13.925   9.492   7.612 -2.3739 -1.2161 -1.9822
61449SOL    HW296327  14.008   9.601   7.548 -0.8125  0.0190  1.8876
61450SOL     OW96328   2.833  11.909   0.554 -0.2414 -0.2508  0.4539
61450SOL    HW196329   2.838  11.949   0.641 -2.2277  0.0808  0.4536
61450SOL    HW296330   2.890  11.963   0.499  1.3079 -0.6563  1.5810
61451SOL     OW96331   9.395   0.888  11.381 -0.2011  0.8111 -0.2940
61451SOL    HW196332   9.336   0.920  11.313  0.0218  1.3241 -0.2547
61451SOL    HW296333   9.362   0.801  11.403 -1.4623  1.4212  0.3414
61452SOL     OW96334  12.222   0.643   5.655  0.1823 -0.4914  0.2520
61452SOL    HW196335  12.271   0.569   5.620 -0.0839 -0.2585 -0.6378
61452SOL    HW296336  12.199   0.695   5.578 -1.0149 -0.3256  0.7071
61453SOL     OW96337   8.353  11.941   8.304 -0.7023 -0.0176  0.5903
61453SOL    HW196338   8.380  11.916   8.393  3.0270  2.5125  0.3869
61453SOL    HW296339   8.401  12.021   8.286 -2.0810  0.1154 -3.4121
61454SOL     OW96340   8.388  13.263   8.623 -0.1637  0.1570  0.4598
61454SOL    HW196341   8.430  13.302   8.546  0.0534  0.5643  0.7824
61454SOL    HW296342   8.411  13.322   8.695  2.0153 -1.6810  1.3989
61455SOL     OW96343   0.505  11.963   5.377  0.4136  0.0032 -0.0866
61455SOL    HW196344   0.525  11.984   5.468  2.9160  0.1796 -0.6174
61455SOL    HW296345   0.481  12.046   5.337  0.7487  0.1767  0.0723
61456SOL     OW96346   4.362   1.518   4.882  0.3434  0.4226  0.6235
61456SOL    HW196347   4.402   1.605   4.889 -0.7639  1.0743 -0.7206
61456SOL    HW296348   4.384   1.489   4.794 -1.2928  0.3829  0.1992
61457SOL     OW96349   4.100   0.690  12.198  0.2367 -0.3663  0.0049
61457SOL    HW196350   4.104   0.730  12.285 -1.2735  0.1572 -0.1305
61457SOL    HW296351   4.124   0.598  12.213 -1.6157 -0.7053  1.3001
61458SOL     OW96352   9.542  11.482   0.681 -0.1116 -0.2271  0.1749
61458SOL    HW196353   9.611  11.437   0.632  0.4055  0.6847  0.0391
61458SOL    HW296354   9.565  11.468   0.773  1.0602  1.2213  0.1373
61459SOL     OW96355   2.360   0.263   1.296  0.1766 -0.1944  0.0837
61459SOL    HW196356   2.381   0.176   1.328  0.8914  0.0415  0.2817
61459SOL    HW296357   2.345   0.252   1.202 -1.8787 -0.8822  0.4346
61460SOL     OW96358   7.883  13.399   2.539 -0.5464  0.2609  0.3503
61460SOL    HW196359   7.799  13.421   2.579  0.5549  2.2958  1.7373
61460SOL    HW296360   7.936  13.367   2.613  0.5640  1.0849 -0.0701
61461SOL     OW96361   3.698   7.315   1.076 -0.1224 -0.7650  0.3025
61461SOL    HW196362   3.758   7.312   1.001  0.4508 -1.2246  0.7707
61461SOL    HW296363   3.678   7.408   1.087  0.8041 -0.5635  0.3717
61462SOL     OW96364   5.620  11.914   2.917  0.0248 -0.4548  0.3962
61462SOL    HW196365   5.637  11.935   2.825 -1.4084 -0.8062  0.0260
61462SOL    HW296366   5.667  11.833   2.933 -1.2875 -1.4513 -0.6128
61463SOL     OW96367  13.968  13.097   3.525 -0.3144  0.1699  0.3477
61463SOL    HW196368  13.933  13.172   3.575 -0.1788  0.0177  0.6760
61463SOL    HW296369  14.063  13.102   3.538 -0.1519  0.8999 -0.9885
61464SOL     OW96370  11.202   9.424   6.344 -0.1611  0.1798  0.1010
61464SOL    HW196371  11.143   9.349   6.346 -0.4532  0.3594 -1.1719
61464SOL    HW296372  11.284   9.390   6.381  0.6475 -1.6507 -2.9705
61465SOL     OW96373  11.357   9.042   5.966 -0.4860 -0.1199 -1.1095
61465SOL    HW196374  11.332   9.024   6.057 -1.9520 -2.3477 -1.8525
61465SOL    HW296375  11.370   9.136   5.962 -1.9636  0.2373  1.0457
61466SOL     OW96376   7.192   7.391   6.219 -0.5114  0.2015 -0.3139
61466SOL    HW196377   7.159   7.386   6.309  0.7363  1.7441  0.2683
61466SOL    HW296378   7.118   7.424   6.168 -1.7730 -2.2393 -0.2324
61467SOL     OW96379   7.647   2.213   0.988 -0.2169 -0.1642 -0.5932
61467SOL    HW196380   7.658   2.202   0.894 -0.2619  1.1678 -0.7726
61467SOL    HW296381   7.643   2.124   1.023  0.4339 -0.6649 -1.7711
61468SOL     OW96382   6.105  10.544  12.188 -0.4891 -0.5700  0.6836
61468SOL    HW196383   6.147  10.614  12.238 -0.6975 -0.2862  0.4685
61468SOL    HW296384   6.177  10.493  12.152 -0.2569 -2.5826  3.6768
61469SOL     OW96385   9.992   7.045  10.219 -0.1530  0.8496  0.2223
61469SOL    HW196386  10.065   7.029  10.159  0.8066  2.5091  0.8643
61469SOL    HW296387   9.950   7.125  10.186 -0.5818  0.9009  0.8576
61470SOL     OW96388   6.238   3.929   6.090  0.1911 -0.3111  0.1450
61470SOL    HW196389   6.276   3.985   6.157  0.3734 -0.6703  0.3448
61470SOL    HW296390   6.286   3.952   6.010  0.7015 -0.6241  0.3567
61471SOL     OW96391   4.553   7.297   7.390 -0.3562  0.0787 -0.5024
61471SOL    HW196392   4.524   7.231   7.453 -1.2268  0.0227 -0.9406
61471SOL    HW296393   4.553   7.251   7.306  2.5899 -0.3759 -0.3446
61472SOL     OW96394  10.259   5.340  12.744 -0.2825 -0.0885  0.2131
61472SOL    HW196395  10.300   5.369  12.825 -0.6018 -0.5097  0.5276
61472SOL    HW296396  10.169   5.373  12.749  0.2395  1.6286 -0.8890
61473SOL     OW96397   3.138   6.243   4.268  0.0986 -0.4546 -0.1208
61473SOL    HW196398   3.058   6.219   4.316  1.2219 -0.6133  1.7639
61473SOL    HW296399   3.148   6.337   4.286  0.6645 -0.5712  0.1895
61474SOL     OW96400   2.921  12.423  12.882 -0.1967 -0.5277  0.4390
61474SOL    HW196401   2.939  12.338  12.922 -1.8221 -1.6713 -1.0996
61474SOL    HW296402   2.829  12.418  12.855 -1.1735  2.6974  2.5730
61475SOL     OW96403   5.199   9.596  10.725  0.0271 -0.4761  0.3094
61475SOL    HW196404   5.246   9.654  10.666  0.7676 -0.7018  0.6641
61475SOL    HW296405   5.264   9.571  10.791 -1.3701  1.7665  2.7406
61476SOL     OW96406   9.842  11.725   9.297  0.0334  0.4009 -0.4825
61476SOL    HW196407   9.885  11.809   9.283  1.3749 -0.0171  0.9130
61476SOL    HW296408   9.857  11.676   9.217  2.2973  0.2408 -0.0181
61477SOL     OW96409   4.632   1.082  12.965 -0.1138  0.3067 -0.0547
61477SOL    HW196410   4.610   0.992  12.940  1.8854 -0.1319 -0.3801
61477SOL    HW296411   4.625   1.132  12.884 -2.1834  0.7018  0.3050
61478SOL     OW96412  11.105   9.592  13.755 -0.3458 -0.1871  0.2509
61478SOL    HW196413  11.059   9.524  13.705  0.8919 -0.3774 -0.6561
61478SOL    HW296414  11.034   9.645  13.792 -1.3209 -0.5030 -1.0658
61479SOL     OW96415  12.357  13.249   6.742  0.0367  0.2586  0.3803
61479SOL    HW196416  12.378  13.267   6.834 -0.1164 -0.5381  0.5798
61479SOL    HW296417  12.285  13.307   6.722 -0.5667 -0.2350  1.0608
61480SOL     OW96418   3.473   0.013  14.024  0.2732  0.2981  0.2817
61480SOL    HW196419   3.561   0.021  14.062 -0.1598  1.3414  1.1239
61480SOL    HW296420   3.469  -0.077  13.992  0.9616 -0.4040  2.0337
61481SOL     OW96421   9.965  13.147   0.935  0.5187  0.6354 -0.1251
61481SOL    HW196422   9.955  13.241   0.926 -2.4770  0.7487  2.7131
61481SOL    HW296423  10.044  13.136   0.988  0.9889  1.4781 -0.6276
61482SOL     OW96424   4.470   4.156   3.748  0.0362 -0.3900  0.0772
61482SOL    HW196425   4.525   4.163   3.669 -1.0627  1.6394 -0.5991
61482SOL    HW296426   4.427   4.072   3.740  1.3371 -1.0354 -0.5258
61483SOL     OW96427  13.905  12.583   5.742  0.2986  0.1936  0.5531
61483SOL    HW196428  13.910  12.550   5.832 -0.7814 -0.1018  0.5235
61483SOL    HW296429  13.826  12.542   5.707  0.7243  0.2991 -0.5394
61484SOL     OW96430  11.253   1.430   3.954 -0.0252 -0.3075 -0.2971
61484SOL    HW196431  11.324   1.490   3.974  1.4366 -2.6158  1.9041
61484SOL    HW296432  11.241   1.439   3.859  1.6188  1.7533 -0.3994
61485SOL     OW96433   6.188   9.470  13.535  0.3402  0.3551 -0.0466
61485SOL    HW196434   6.145   9.447  13.617  1.1607 -2.4622 -0.3304
61485SOL    HW296435   6.280   9.446  13.548  0.6476  0.6372 -1.5095
61486SOL     OW96436   8.729   8.880   9.508  0.5100 -0.0066 -0.1571
61486SOL    HW196437   8.677   8.820   9.454  0.9382 -0.7684  0.2711
61486SOL    HW296438   8.764   8.826   9.578 -0.8041  1.1414  1.4609
61487SOL     OW96439   4.041  12.897   5.587  0.0057 -0.5515 -0.3431
61487SOL    HW196440   4.098  12.969   5.562 -0.9008  0.0390 -0.8033
61487SOL    HW296441   4.043  12.838   5.511 -0.6283 -0.1081 -0.7229
61488SOL     OW96442   6.681   2.743  12.894 -0.3299 -0.4805 -0.4153
61488SOL    HW196443   6.608   2.738  12.833 -1.4405  0.3235  0.7936
61488SOL    HW296444   6.752   2.781  12.844 -1.6322  1.4559 -0.8711
61489SOL     OW96445  12.359  10.713   2.790  0.0680  0.5128  0.4944
61489SOL    HW196446  12.350  10.735   2.883 -1.6160 -0.7570  0.6834
61489SOL    HW296447  12.379  10.619   2.790  0.3629  0.5703 -0.4209
61490SOL     OW96448   7.229  10.549  13.885  0.2353  0.0247  0.7096
61490SOL    HW196449   7.193  10.634  13.861  0.2729 -0.3645 -0.8369
61490SOL    HW296450   7.211  10.541  13.979 -1.5318  0.8813  0.4889
61491SOL     OW96451   9.573   0.816   7.345  0.0520 -0.0111  0.2587
61491SOL    HW196452   9.602   0.755   7.413 -0.1421  1.4570  1.7277
61491SOL    HW296453   9.504   0.868   7.386  0.1427  1.1371 -0.9461
61492SOL     OW96454   9.503   2.512  10.640  0.0305  0.0549  0.8767
61492SOL    HW196455   9.561   2.548  10.573  0.1413  1.3502  1.6353
61492SOL    HW296456   9.433   2.469  10.591 -0.2287  1.5115 -0.0695
61493SOL     OW96457   1.229   0.223   9.866 -0.4895  0.3860 -0.3750
61493SOL    HW196458   1.171   0.245   9.939  0.1526  0.5922  0.0780
61493SOL    HW296459   1.243   0.128   9.874 -1.3046  0.2118 -0.8933
61494SOL     OW96460  10.555   1.171   9.356  0.1326 -0.1705 -0.0385
61494SOL    HW196461  10.466   1.151   9.385  0.2468  0.6296  0.8991
61494SOL    HW296462  10.547   1.189   9.262 -1.1255  2.3175  0.4680
61495SOL     OW96463  13.454   9.219  12.660 -0.0835 -0.5600 -0.3216
61495SOL    HW196464  13.491   9.239  12.746  1.1603  0.6703 -1.1096
61495SOL    HW296465  13.397   9.293  12.640  0.2970 -0.4174 -0.9132
61496SOL     OW96466   8.426   4.855   3.718 -0.1801  0.3326  0.2236
61496SOL    HW196467   8.359   4.922   3.706  0.8879  1.0957 -2.1582
61496SOL    HW296468   8.434   4.845   3.812 -1.5086  2.4220  0.6102
61497SOL     OW96469   6.990   3.744   1.110 -0.4118  0.4982 -0.6352
61497SOL    HW196470   7.061   3.805   1.090  0.9192 -0.4451  0.9876
61497SOL    HW296471   7.024   3.690   1.181 -1.1232 -2.7785 -2.5665
61498SOL     OW96472  11.229   5.840   3.390  0.0294 -0.0199  0.6862
61498SOL    HW196473  11.236   5.925   3.434 -1.2325 -0.3043  1.4771
61498SOL    HW296474  11.229   5.862   3.296  0.8563  0.7446  0.8539
61499SOL     OW96475   1.441   6.117   3.461 -0.5650 -1.0559  0.0284
61499SOL    HW196476   1.501   6.169   3.515 -0.4175  1.5627 -2.4136
61499SOL    HW296477   1.360   6.113   3.512 -0.1834  0.5948  0.8430
61500SOL     OW96478  11.570   6.079   1.704 -0.1402  0.0615 -0.2428
61500SOL    HW196479  11.579   6.098   1.611  2.1183 -0.1245 -0.1304
61500SOL    HW296480  11.605   5.990   1.714 -0.1927  0.1395  0.7928
61501SOL     OW96481  12.372   3.248   8.865 -0.1326  0.1409 -0.3552
61501SOL    HW196482  12.409   3.325   8.907  0.7207 -0.8151  0.7451
61501SOL    HW296483  12.429   3.231   8.790  0.7563 -0.4093  0.4197
61502SOL     OW96484   6.242  12.205   8.295  0.3660  0.2263  0.7360
61502SOL    HW196485   6.243  12.195   8.390 -0.7047 -0.4930  0.6965
61502SOL    HW296486   6.331  12.186   8.267  0.1285 -2.1302  1.3895
61503SOL     OW96487   5.495  12.392   9.266 -0.5699 -0.1156  0.1863
61503SOL    HW196488   5.419  12.337   9.279  0.0522 -0.4031  3.4356
61503SOL    HW296489   5.546  12.348   9.197 -2.4419 -0.8318 -0.7968
61504SOL     OW96490  12.993   6.757   3.696  0.1660 -0.2390  0.0109
61504SOL    HW196491  12.918   6.738   3.639 -0.5401 -0.7317  1.0640
61504SOL    HW296492  13.069   6.729   3.646 -0.4957 -1.3722 -0.4131
61505SOL     OW96493   6.492   2.967   2.842 -0.1094 -0.7742 -0.4304
61505SOL    HW196494   6.488   2.888   2.788  0.6631 -0.2225 -1.3288
61505SOL    HW296495   6.494   2.934   2.932  0.0266 -1.7678 -0.7787
61506SOL     OW96496  13.638  10.014  11.305  0.1334 -0.3361 -0.0574
61506SOL    HW196497  13.613  10.001  11.396  1.9418  0.5263  0.6280
61506SOL    HW296498  13.578   9.959  11.255  0.3323 -2.3834  1.7881
61507SOL     OW96499   9.252   4.253  12.521 -0.3251 -0.6513 -0.4314
61507SOL    HW196500   9.167   4.285  12.493  0.1230 -0.0434 -1.1218
61507SOL    HW296501   9.314   4.290  12.459  0.6732  0.5137  1.1770
61508SOL     OW96502   8.195   2.759   1.199  0.1485 -0.0104  0.2713
61508SOL    HW196503   8.199   2.666   1.179  1.7451  0.1148 -0.1442
61508SOL    HW296504   8.113   2.770   1.247 -1.2020 -1.2124 -1.6585
61509SOL     OW96505   7.178   4.382  12.526  0.0021  0.1165 -0.0827
61509SOL    HW196506   7.174   4.472  12.494 -0.6119  0.2573  0.3826
61509SOL    HW296507   7.088   4.350  12.520  0.0690 -0.1945  0.5099
61510SOL     OW96508  10.029  12.221   0.025 -0.1211  0.4669 -0.2243
61510SOL    HW196509  10.107  12.276   0.024 -0.8340  1.5839  1.4016
61510SOL    HW296510  10.000  12.221   0.116 -0.6575 -1.9199 -0.3292
61511SOL     OW96511   6.267   7.237   1.811  0.1525  0.4238 -0.1888
61511SOL    HW196512   6.255   7.302   1.880 -0.0906  0.8620 -0.6290
61511SOL    HW296513   6.286   7.289   1.733  0.0080 -0.0401 -0.5390
61512SOL     OW96514   0.727   9.305  13.838  0.3113  0.5310 -0.6332
61512SOL    HW196515   0.656   9.240  13.837 -1.1682  2.0742 -0.3453
61512SOL    HW296516   0.807   9.253  13.829 -0.7040 -1.4583  0.8936
61513SOL     OW96517   7.485  12.881  11.450  0.1882 -0.3371 -0.0131
61513SOL    HW196518   7.517  12.799  11.412  1.2858 -0.1408  0.4437
61513SOL    HW296519   7.539  12.893  11.529 -1.1222 -0.0562  0.8757
61514SOL     OW96520   3.527   4.054  11.903  0.0209 -0.1882  0.5799
61514SOL    HW196521   3.620   4.074  11.900 -0.0159 -0.0567 -1.1125
61514SOL    HW296522   3.521   3.962  11.877 -0.2852 -0.3979  1.3574
61515SOL     OW96523   9.245   6.644  11.881 -0.1839  0.6638 -1.1012
61515SOL    HW196524   9.273   6.661  11.791  0.0551  0.1536 -1.1244
61515SOL    HW296525   9.314   6.590  11.919 -0.8775 -0.1629 -0.9956
61516SOL     OW96526  13.795  11.832   9.507  0.5361  0.1148  0.4508
61516SOL    HW196527  13.710  11.865   9.477 -0.0827 -0.9091  1.0323
61516SOL    HW296528  13.840  11.806   9.427 -0.2936 -0.7147  0.2372
61517SOL     OW96529   9.879  12.064   3.541  0.0742  0.0539  0.2738
61517SOL    HW196530   9.825  12.133   3.501 -0.2069  0.5862  1.5329
61517SOL    HW296531   9.899  12.096   3.628  2.1388 -0.3142 -0.0191
61518SOL     OW96532   3.756   6.702   2.545 -0.1499 -0.3263 -0.0434
61518SOL    HW196533   3.821   6.663   2.487 -0.4872 -0.1880 -0.5237
61518SOL    HW296534   3.763   6.796   2.529 -1.5561 -0.3922 -1.3091
61519SOL     OW96535  12.450   1.719  13.525  0.5019  0.0007  0.2925
61519SOL    HW196536  12.409   1.805  13.527  2.0083  0.7784 -0.8794
61519SOL    HW296537  12.465   1.698  13.618 -0.1032  0.8755  0.5997
61520SOL     OW96538   6.556  13.660   4.103 -0.1501  0.2387  0.5322
61520SOL    HW196539   6.500  13.655   4.026 -0.2512 -0.5011  0.6492
61520SOL    HW296540   6.496  13.663   4.177 -0.0495  0.5765  0.6000
61521SOL     OW96541  11.820   5.467   7.374 -0.2680 -0.1861  0.0095
61521SOL    HW196542  11.906   5.431   7.397 -1.0627 -2.4508 -0.2443
61521SOL    HW296543  11.814   5.456   7.279 -0.2183  1.5178 -0.2235
61522SOL     OW96544   7.390   8.435   0.892 -0.8010 -0.1435 -0.1158
61522SOL    HW196545   7.324   8.487   0.846  0.9213 -0.8148 -3.6903
61522SOL    HW296546   7.364   8.345   0.878  0.3563 -0.3913 -0.7843
61523SOL     OW96547  12.896  10.108  10.049  0.3058  0.1522 -0.2627
61523SOL    HW196548  12.829  10.100  10.116  0.0437 -2.2305 -0.7233
61523SOL    HW296549  12.878  10.193  10.007 -0.9111  0.6405  1.1713
61524SOL     OW96550   9.933   3.865   2.004 -0.5580  0.3167 -0.4489
61524SOL    HW196551   9.953   3.798   2.070  0.3241  1.0630  0.0561
61524SOL    HW296552   9.974   3.832   1.924  0.9180  0.7960  0.0760
61525SOL     OW96553   3.914   1.326   9.901  0.6851 -0.0900  0.0040
61525SOL    HW196554   4.007   1.301   9.906  0.6993 -0.3286 -1.0730
61525SOL    HW296555   3.911   1.393   9.833  0.4223  1.8890  1.8505
61526SOL     OW96556   5.637  12.549   7.413  0.0012  0.4391 -0.6820
61526SOL    HW196557   5.597  12.571   7.497 -1.8561 -1.7892 -0.8923
61526SOL    HW296558   5.666  12.634   7.377  0.0424  1.5316  1.7683
61527SOL     OW96559   1.445   7.616   9.758  0.0686 -0.0482 -0.4468
61527SOL    HW196560   1.433   7.548   9.691 -1.9303 -0.1982 -0.0013
61527SOL    HW296561   1.507   7.579   9.820 -0.0905 -0.9868 -0.8354
61528SOL     OW96562   1.828  11.314   9.182 -0.0545  0.0273 -0.1380
61528SOL    HW196563   1.744  11.269   9.174 -0.2083  0.3041 -0.1125
61528SOL    HW296564   1.809  11.390   9.238 -0.0366  0.7080 -1.0417
61529SOL     OW96565  10.030  11.721   8.709 -0.5514 -0.2185  0.3080
61529SOL    HW196566   9.959  11.772   8.669  0.2128  0.5192 -0.1602
61529SOL    HW296567  10.087  11.699   8.635  0.7250  0.8989  0.9117
61530SOL     OW96568   4.024   0.157  10.293 -0.3121 -0.3717 -0.3006
61530SOL    HW196569   3.942   0.188  10.256  0.2851 -0.3495 -1.6652
61530SOL    HW296570   4.090   0.179  10.228  0.4720 -2.3094 -0.2290
61531SOL     OW96571   0.143   7.742   5.009 -0.1490 -0.1268  0.0266
61531SOL    HW196572   0.116   7.739   5.101  1.4273 -0.7978  0.5103
61531SOL    HW296573   0.148   7.835   4.988  0.8433  0.0838  1.0816
61532SOL     OW96574   7.871  10.925  13.435  0.0229 -0.0139 -0.1117
61532SOL    HW196575   7.860  10.842  13.481 -0.8618 -0.2612 -0.7340
61532SOL    HW296576   7.850  10.905  13.343 -1.0184  1.0407 -0.1420
61533SOL     OW96577  11.388   7.761  13.811  0.2579 -0.6292 -0.1709
61533SOL    HW196578  11.316   7.720  13.763 -0.3537 -0.5797  0.6803
61533SOL    HW296579  11.464   7.706  13.793 -0.4833 -1.9913  0.7318
61534SOL     OW96580  11.246  13.733   0.829  0.0045 -0.1103 -0.0814
61534SOL    HW196581  11.338  13.714   0.812  0.5606  0.2659  2.1951
61534SOL    HW296582  11.245  13.823   0.863 -1.0431 -0.4675  0.9164
61535SOL     OW96583   2.113   4.517   7.982 -0.5655 -0.0383 -0.7782
61535SOL    HW196584   2.189   4.513   8.041 -0.3718  3.0621 -0.6564
61535SOL    HW296585   2.047   4.463   8.025  0.8695 -1.0684  0.2194
61536SOL     OW96586  12.638   0.304  11.798  0.1293 -0.4064 -0.3666
61536SOL    HW196587  12.696   0.280  11.725  1.5742 -1.1373  0.9488
61536SOL    HW296588  12.626   0.399  11.788  1.6406 -0.2128 -0.6560
61537SOL     OW96589  13.909  11.942   9.952  0.7407  0.1465 -0.4909
61537SOL    HW196590  13.999  11.913   9.961  0.9482  0.4184 -1.5647
61537SOL    HW296591  13.879  11.954  10.042  1.5861 -0.4872 -0.1049
61538SOL     OW96592   1.289  10.989   6.555 -0.4048 -0.3672 -0.0770
61538SOL    HW196593   1.260  10.907   6.596 -0.2210 -0.3741  0.0419
61538SOL    HW296594   1.257  10.984   6.465 -0.8032 -0.3608  0.0590
61539SOL     OW96595   7.431   4.398   5.045  0.1751 -0.3789  0.2137
61539SOL    HW196596   7.363   4.428   5.105 -0.0479 -1.9937  0.8017
61539SOL    HW296597   7.405   4.309   5.022  1.2536 -0.4503 -0.8276
61540SOL     OW96598  13.861   5.199  10.549  0.1487  0.0073 -0.8457
61540SOL    HW196599  13.934   5.177  10.607 -0.4976  3.3396  1.5588
61540SOL    HW296600  13.896   5.186  10.461  3.0372 -0.2548  0.2067
61541SOL     OW96601   7.509   7.452   1.798 -0.1715  0.0250  0.5738
61541SOL    HW196602   7.444   7.470   1.730  0.6974  1.1837  0.0252
61541SOL    HW296603   7.476   7.497   1.876  0.0190  0.7086  0.2651
61542SOL     OW96604   6.207  12.388   5.095  0.6405 -0.5758 -0.3704
61542SOL    HW196605   6.189  12.431   5.011 -0.5263  1.1887  0.7169
61542SOL    HW296606   6.302  12.394   5.105  0.4986  2.7574  0.1463
61543SOL     OW96607   4.264  11.308  10.665 -0.5354 -0.3947  0.6917
61543SOL    HW196608   4.312  11.229  10.642  0.5219 -0.0194  1.5278
61543SOL    HW296609   4.182  11.277  10.703 -1.0116 -1.0489 -0.8109
61544SOL     OW96610  12.528  12.783   4.052  0.2203 -0.3671 -0.7467
61544SOL    HW196611  12.532  12.712   4.116 -3.0051  0.1437  0.2032
61544SOL    HW296612  12.476  12.747   3.980  2.0279 -0.2273 -2.2019
61545SOL     OW96613   1.864   6.458   0.346  0.0323  0.0239 -0.2655
61545SOL    HW196614   1.856   6.554   0.347  1.8593  0.2147 -0.0117
61545SOL    HW296615   1.777   6.427   0.368 -1.1922  1.5551 -2.5254
61546SOL     OW96616   3.399   6.298   1.255 -0.4818 -0.3167  0.3417
61546SOL    HW196617   3.394   6.292   1.160  3.3180  1.8952 -0.1875
61546SOL    HW296618   3.407   6.207   1.285 -0.4115 -0.9636 -1.5456
61547SOL     OW96619   5.015   7.526   0.824 -0.7055  0.5175 -0.0705
61547SOL    HW196620   4.975   7.577   0.754 -1.9114 -2.5876 -1.8601
61547SOL    HW296621   4.942   7.478   0.863  0.6071 -2.1629 -0.6368
61548SOL     OW96622   5.960  13.923   6.867 -0.0092 -0.3397  0.4706
61548SOL    HW196623   5.930  13.948   6.955  0.3742  1.5733  0.0820
61548SOL    HW296624   6.047  13.886   6.882 -1.2038 -3.1207  1.2380
61549SOL     OW96625   8.334   1.730  11.150  0.0480 -0.0445  0.0039
61549SOL    HW196626   8.319   1.682  11.232 -0.8092  1.8076  0.9922
61549SOL    HW296627   8.266   1.698  11.091 -0.5679  0.0081  0.6684
61550SOL     OW96628   3.600   6.827  11.251 -0.3429  0.8270 -0.5428
61550SOL    HW196629   3.659   6.792  11.318 -1.2708 -0.6218 -0.4354
61550SOL    HW296630   3.647   6.901  11.214 -0.0060  2.0203  2.0617
61551SOL     OW96631   1.451   8.972  13.833  0.9982  0.2967 -0.0739
61551SOL    HW196632   1.484   8.956  13.922 -0.3347  0.2355  0.4231
61551SOL    HW296633   1.444   9.067  13.827  0.6477  0.2779  0.0487
61552SOL     OW96634  10.389   8.904  11.262 -0.0248 -0.4987  1.0066
61552SOL    HW196635  10.374   8.962  11.187  0.9955  0.0880  1.2353
61552SOL    HW296636  10.480   8.876  11.252 -0.6678 -2.6472  0.5158
61553SOL     OW96637   5.866   5.082   1.878 -0.8112 -0.2045 -0.4115
61553SOL    HW196638   5.862   4.989   1.898 -0.9447 -0.2809 -0.7840
61553SOL    HW296639   5.921   5.120   1.947  0.3464 -0.7614 -1.0115
61554SOL     OW96640   3.855  11.268  13.500  0.4392  0.2275 -0.2912
61554SOL    HW196641   3.846  11.354  13.459  1.1381  0.6057  0.3188
61554SOL    HW296642   3.930  11.227  13.456  0.2544  0.0312 -0.4229
61555SOL     OW96643   1.491  10.045  13.624 -0.0926 -0.1477 -0.7529
61555SOL    HW196644   1.412   9.990  13.623 -1.9560  2.3098  0.6525
61555SOL    HW296645   1.544  10.011  13.551 -2.9333 -1.2363 -2.4925
61556SOL     OW96646  13.296  12.061   7.623  0.4884  0.3724  0.0347
61556SOL    HW196647  13.263  12.014   7.700  0.7042  0.8182  0.4065
61556SOL    HW296648  13.390  12.067   7.638  0.4181  1.2282  0.1657
61557SOL     OW96649   2.211   1.548   3.118 -0.3610 -0.6471  0.2235
61557SOL    HW196650   2.274   1.598   3.170 -0.6984 -0.2774  0.2779
61557SOL    HW296651   2.263   1.510   3.047 -0.2439  0.4738 -0.3147
61558SOL     OW96652   6.648   1.698  10.904 -0.1765  0.2870  0.3732
61558SOL    HW196653   6.709   1.768  10.883 -0.7457  0.3790 -1.0728
61558SOL    HW296654   6.703   1.621  10.917  0.3195  0.5781  0.0302
61559SOL     OW96655  10.668  12.605  10.028  0.4555 -0.3907 -0.2166
61559SOL    HW196656  10.642  12.548  10.101  0.9502 -0.0908  0.2017
61559SOL    HW296657  10.601  12.591   9.961  1.4819 -2.8457 -0.8489
61560SOL     OW96658  13.229   7.268   6.260  0.1192  0.1077 -0.0035
61560SOL    HW196659  13.217   7.255   6.166  0.6621  0.8178 -0.1763
61560SOL    HW296660  13.217   7.361   6.274 -0.0544 -0.0074  0.6486
61561SOL     OW96661   4.658   6.386   5.600 -0.9021 -0.0158  0.0992
61561SOL    HW196662   4.623   6.378   5.511 -1.2212 -1.2533  0.3185
61561SOL    HW296663   4.695   6.300   5.620  0.4879  0.6564  0.6380
61562SOL     OW96664   9.977   8.722   5.885 -0.0558 -0.2439 -0.2469
61562SOL    HW196665   9.911   8.774   5.930  0.4983 -1.2416  1.8744
61562SOL    HW296666   9.938   8.635   5.877 -0.0850 -0.1199 -1.6297
61563SOL     OW96667   9.379   7.618   5.070  0.0438 -0.1607 -0.7648
61563SOL    HW196668   9.374   7.527   5.100 -1.4857 -0.1217 -0.8250
61563SOL    HW296669   9.306   7.662   5.114  0.6600  1.0033 -0.8657
61564SOL     OW96670   1.394   7.991   4.344 -0.2665  0.2908 -0.3262
61564SOL    HW196671   1.393   7.916   4.403 -0.8536 -0.1999 -0.9380
61564SOL    HW296672   1.476   7.984   4.295  0.5420  1.0734  0.8813
61565SOL     OW96673   1.246   5.081   1.577 -0.0644 -0.4040 -0.4664
61565SOL    HW196674   1.336   5.048   1.585  0.4577  1.1177  0.5180
61565SOL    HW296675   1.192   5.014   1.618  1.1893  0.8292  3.6579
61566SOL     OW96676  11.103  13.125   5.444  0.2911  0.1863  0.1592
61566SOL    HW196677  11.185  13.101   5.487  0.8700  0.1327 -0.9381
61566SOL    HW296678  11.127  13.197   5.384 -0.8541  1.5742  1.2888
61567SOL     OW96679  10.157   4.006   7.420  0.0598 -0.4793  0.1022
61567SOL    HW196680  10.065   4.032   7.416  0.1944 -0.0535 -0.4090
61567SOL    HW296681  10.171   3.956   7.339  0.3319 -0.3383  0.0604
61568SOL     OW96682   4.291  13.870   2.390  0.2434 -0.6441 -0.0545
61568SOL    HW196683   4.254  13.783   2.406 -0.0650 -0.9199 -1.9425
61568SOL    HW296684   4.244  13.901   2.312  0.7342  0.9960  0.2752
61569SOL     OW96685   4.804   3.930   8.814 -0.2935 -0.2706  0.4511
61569SOL    HW196686   4.731   3.872   8.834 -0.3172 -0.0962  0.8666
61569SOL    HW296687   4.879   3.871   8.802 -0.0647 -0.3224  2.0162
61570SOL     OW96688  11.081   1.877   2.585  0.4513  0.8699  0.0089
61570SOL    HW196689  11.072   1.863   2.490  2.3497 -0.4186 -0.0149
61570SOL    HW296690  11.010   1.825   2.623  0.5183  0.2859 -0.6424
61571SOL     OW96691   4.849  12.807   5.976 -0.8430  0.1233  0.4527
61571SOL    HW196692   4.852  12.902   5.963 -1.4069  0.2434  1.1260
61571SOL    HW296693   4.788  12.776   5.909  1.1279 -0.0850 -1.3416
61572SOL     OW96694  11.544   0.621   9.826 -0.1140  0.1106  0.1681
61572SOL    HW196695  11.514   0.573   9.904 -2.1150 -0.1918 -0.7287
61572SOL    HW296696  11.470   0.678   9.803  0.9525  1.1584 -0.7610
61573SOL     OW96697  12.759  11.720   0.463 -0.5749 -0.1968  0.5364
61573SOL    HW196698  12.812  11.742   0.387 -0.1837 -1.8427  0.2942
61573SOL    HW296699  12.822  11.714   0.535 -0.6041 -0.9028  0.5087
61574SOL     OW96700  13.133   7.056   8.819  0.5487 -0.2459 -0.3024
61574SOL    HW196701  13.215   7.100   8.801  0.4958  0.6367  1.4043
61574SOL    HW296702  13.113   7.077   8.910 -2.0811  0.4089 -0.9327
61575SOL     OW96703  13.640  12.620  13.300 -0.3414 -0.0279  0.1317
61575SOL    HW196704  13.695  12.549  13.334  0.2350  0.5738  0.5078
61575SOL    HW296705  13.581  12.578  13.238  0.6700 -0.6822 -0.4300
61576SOL     OW96706  11.788   8.380   8.226 -0.1682  0.1781  0.0515
61576SOL    HW196707  11.871   8.414   8.194 -0.2200  0.4604  0.2091
61576SOL    HW296708  11.801   8.286   8.230 -0.2092  0.1223 -0.9253
61577SOL     OW96709  13.163   5.525   7.879 -0.5583  0.2055 -0.2503
61577SOL    HW196710  13.107   5.594   7.844 -0.5332 -0.0864 -0.8701
61577SOL    HW296711  13.228   5.572   7.932 -1.1982  0.5689  0.2314
61578SOL     OW96712   8.426  11.532  12.201  0.3534  0.4327  0.4967
61578SOL    HW196713   8.481  11.573  12.268 -0.7872  0.6595  1.3283
61578SOL    HW296714   8.380  11.462  12.247 -0.1304  0.3168 -0.1474
61579SOL     OW96715   1.048   0.554   1.685  0.1136  0.7896 -0.1098
61579SOL    HW196716   1.043   0.646   1.658 -0.5182  1.3711  1.7887
61579SOL    HW296717   0.998   0.506   1.620  1.4030  1.6054 -1.7787
61580SOL     OW96718   6.533  11.269   5.891  0.1556 -0.0297  0.7218
61580SOL    HW196719   6.567  11.230   5.811 -0.6570  0.8082 -0.0523
61580SOL    HW296720   6.580  11.352   5.899  1.4602 -0.8447  2.0479
61581SOL     OW96721  12.281   6.351  10.032 -0.0354 -0.3139  0.1917
61581SOL    HW196722  12.305   6.273  10.083 -1.1261 -0.1529  0.9710
61581SOL    HW296723  12.242   6.411  10.096  1.1161  1.0432 -0.3323
61582SOL     OW96724   8.704  10.730   1.913 -0.5930  0.3053 -0.4593
61582SOL    HW196725   8.756  10.721   1.833 -2.0503  0.5508 -1.4844
61582SOL    HW296726   8.767  10.723   1.984  0.7496  0.0755 -1.6322
61583SOL     OW96727   6.717  11.413  13.653 -0.1306  0.3150  0.7735
61583SOL    HW196728   6.719  11.323  13.686 -0.0621  0.0641  0.1161
61583SOL    HW296729   6.632  11.447  13.679 -0.4910 -0.2232  0.3248
61584SOL     OW96730   0.793   3.589  12.693 -0.7674 -1.0392  0.2575
61584SOL    HW196731   0.733   3.635  12.752 -1.0518 -0.9462 -0.0964
61584SOL    HW296732   0.766   3.498  12.699 -0.4706 -1.1001  0.6498
61585SOL     OW96733   9.164   8.410   6.264  0.0961  0.1911  0.2798
61585SOL    HW196734   9.132   8.499   6.253  0.5245  0.2049 -1.0372
61585SOL    HW296735   9.194   8.406   6.355 -0.2303  1.2839  0.4483
61586SOL     OW96736   8.849   6.443   0.922  0.6018 -0.2358 -0.4256
61586SOL    HW196737   8.859   6.422   1.015 -0.7017 -0.0117 -0.2121
61586SOL    HW296738   8.789   6.518   0.921 -0.9027 -1.3931 -1.5119
61587SOL     OW96739   9.775   4.202   9.208  0.7390  0.1426  0.3053
61587SOL    HW196740   9.826   4.123   9.227 -2.1072 -2.3612 -1.5813
61587SOL    HW296741   9.802   4.228   9.120 -0.9860 -1.1762 -0.6904
61588SOL     OW96742   2.230  11.170   6.335  0.1445  0.4240  0.5328
61588SOL    HW196743   2.280  11.212   6.265 -1.1057  1.2428  0.0796
61588SOL    HW296744   2.201  11.087   6.298  1.0797 -0.0129  0.7682
61589SOL     OW96745   2.926   0.731   4.252 -0.0322  0.0421 -0.4984
61589SOL    HW196746   2.836   0.709   4.276  0.1441 -0.5760 -0.3678
61589SOL    HW296747   2.971   0.646   4.250  0.8645  0.4649  0.7593
61590SOL     OW96748  12.874   9.705  13.000  0.3319  0.2536  0.4760
61590SOL    HW196749  12.937   9.633  13.006  1.0548  0.9765  2.4890
61590SOL    HW296750  12.927   9.784  13.005 -0.4567  0.9813 -1.6779
61591SOL     OW96751   9.507   1.490   6.402 -0.2063 -0.7928 -0.0811
61591SOL    HW196752   9.496   1.584   6.387 -0.0866 -0.8188 -0.3371
61591SOL    HW296753   9.422   1.453   6.377  0.0100 -0.8423 -0.7660
61592SOL     OW96754   2.386  12.060   1.114 -0.4994  0.1459  0.1153
61592SOL    HW196755   2.451  11.990   1.128 -0.5787  0.0163 -0.1617
61592SOL    HW296756   2.391  12.112   1.194  0.5476  0.6283 -0.2403
61593SOL     OW96757   3.737   2.972   8.304  0.7460 -0.4784  0.3056
61593SOL    HW196758   3.737   2.992   8.210  0.7605 -0.5215  0.2963
61593SOL    HW296759   3.712   2.880   8.308  1.7967 -0.7835  0.2730
61594SOL     OW96760   6.331   0.943   3.061  0.2872 -0.0498  0.0514
61594SOL    HW196761   6.353   0.920   3.152  2.9671 -1.1614 -0.7617
61594SOL    HW296762   6.289   1.029   3.068 -0.1280 -0.3597  2.3668
61595SOL     OW96763   3.075   4.498   2.643  0.0381 -0.0036 -0.3408
61595SOL    HW196764   3.082   4.405   2.622  0.7290  0.5081 -2.7704
61595SOL    HW296765   3.162   4.523   2.672 -0.3730 -0.2567  1.1970
61596SOL     OW96766   1.825   7.290   2.443  0.0793 -0.4441  0.3736
61596SOL    HW196767   1.734   7.264   2.457 -0.5153  1.4921  0.3645
61596SOL    HW296768   1.875   7.211   2.463 -1.6325 -1.8980 -0.6919
61597SOL     OW96769   6.146   1.370   1.770 -0.3400 -0.3566 -0.1649
61597SOL    HW196770   6.221   1.336   1.721  1.1870 -0.7363  2.2487
61597SOL    HW296771   6.077   1.306   1.755  0.7836 -1.6314 -0.1069
61598SOL     OW96772   7.590   4.859   0.028 -0.0763  0.9314  0.2854
61598SOL    HW196773   7.530   4.934   0.029 -0.8714  0.3619 -1.1935
61598SOL    HW296774   7.535   4.785   0.056 -0.1685  0.3578 -1.3215
61599SOL     OW96775   7.665   3.805   8.854  0.2891  0.0220  0.5265
61599SOL    HW196776   7.639   3.731   8.908 -0.4642 -0.0559  0.0810
61599SOL    HW296777   7.644   3.777   8.764  2.0750 -0.1050  0.1018
61600SOL     OW96778   7.084  11.729  13.138  0.0378 -0.1226 -0.5960
61600SOL    HW196779   7.046  11.815  13.155  0.9048  0.2407 -0.4732
61600SOL    HW296780   7.120  11.735  13.050  0.8766 -0.0752 -0.2533
61601SOL     OW96781   0.332   9.262  13.024 -0.6255  0.2628 -0.0565
61601SOL    HW196782   0.239   9.279  13.013 -0.8694 -0.7172  0.4069
61601SOL    HW296783   0.336   9.188  13.086  0.4995  1.3397  1.2140
61602SOL     OW96784  12.708   7.074   0.492  0.3924  0.1188 -0.7358
61602SOL    HW196785  12.798   7.075   0.524  0.4633  0.1798 -0.9344
61602SOL    HW296786  12.711   7.124   0.411  0.6734 -1.9804 -2.0872
61603SOL     OW96787  10.039   4.730  11.119  0.3136  0.3730 -0.4828
61603SOL    HW196788  10.103   4.696  11.057 -0.1880  0.9824 -1.3558
61603SOL    HW296789   9.955   4.725  11.073 -0.1123  0.5944  0.2394
61604SOL     OW96790   8.703  13.653  10.938  0.6422  0.2038  0.0959
61604SOL    HW196791   8.722  13.739  10.901  0.4639 -0.7972 -2.5477
61604SOL    HW296792   8.760  13.593  10.889  0.7090 -1.2217  1.8186
61605SOL     OW96793   7.434   8.938   6.676  0.0186 -0.0963 -0.3171
61605SOL    HW196794   7.472   8.913   6.761 -0.5413 -0.9923 -0.3253
61605SOL    HW296795   7.394   8.858   6.643  2.1955 -0.3812 -2.5164
61606SOL     OW96796  10.833   0.799   4.439  0.3387  0.1916  0.1937
61606SOL    HW196797  10.771   0.735   4.405 -0.1788 -0.2960  1.9529
61606SOL    HW296798  10.779   0.876   4.459  0.8407  0.9417 -1.2261
61607SOL     OW96799   6.963   6.514  13.508 -0.0921  0.4003 -0.1937
61607SOL    HW196800   7.042   6.546  13.465  0.1555  1.1432  0.7517
61607SOL    HW296801   6.939   6.435  13.461  2.3606 -0.9894  0.6983
61608SOL     OW96802   6.351   4.977  10.341 -0.4740 -0.5268  0.2545
61608SOL    HW196803   6.404   4.909  10.383  1.0147  0.7888  0.5739
61608SOL    HW296804   6.407   5.054  10.339 -2.0096  0.6273 -0.3912
61609SOL     OW96805   3.673   4.226   8.984  0.6471 -0.3586 -0.3094
61609SOL    HW196806   3.694   4.314   9.018  2.5147 -0.5050 -0.9514
61609SOL    HW296807   3.743   4.208   8.921  1.0385 -2.8093  0.7105
61610SOL     OW96808   4.953  13.713   3.738 -0.6871 -0.0262  0.0702
61610SOL    HW196809   4.898  13.715   3.816  0.4906  2.5882  0.9301
61610SOL    HW296810   5.030  13.662   3.765  0.1630  1.6773  1.0134
61611SOL     OW96811  12.826  11.543   8.212 -0.5182 -0.0437  0.2082
61611SOL    HW196812  12.770  11.569   8.285 -1.0097 -0.0064 -0.1760
61611SOL    HW296813  12.802  11.451   8.196 -2.2137  0.6219 -1.4862
61612SOL     OW96814   9.866   6.283  10.771  0.3858  0.0768 -0.5376
61612SOL    HW196815   9.829   6.355  10.821 -0.1138 -0.2356 -0.4527
61612SOL    HW296816   9.799   6.262  10.706  0.2246 -0.7731 -0.1086
61613SOL     OW96817  11.935   8.469   0.208  0.0545 -0.0516 -0.0680
61613SOL    HW196818  11.955   8.381   0.242 -1.5223  0.3298  2.0839
61613SOL    HW296819  12.000   8.526   0.249 -0.7024  0.1510  0.8882
61614SOL     OW96820   0.485   1.467  13.833 -0.7147 -0.3412  0.0914
61614SOL    HW196821   0.447   1.405  13.770 -0.3371  0.5208 -1.0246
61614SOL    HW296822   0.535   1.412  13.893  0.9048 -1.0710 -1.7826
61615SOL     OW96823   1.412   9.103   4.713 -0.0660  0.1139  0.7385
61615SOL    HW196824   1.351   9.170   4.743 -1.7904 -1.2290  0.3640
61615SOL    HW296825   1.386   9.085   4.623  0.1486 -1.2740  0.9234
61616SOL     OW96826   0.662  14.040   1.275 -0.0652  0.3016  0.3349
61616SOL    HW196827   0.597  14.110   1.272 -0.1919  0.2125 -2.3724
61616SOL    HW296828   0.671  14.013   1.183  3.6321  0.1298  0.6003
61617SOL     OW96829   3.775   6.645  11.422 -0.0628 -0.0559 -0.6872
61617SOL    HW196830   3.740   6.597  11.498  0.1756 -1.5579 -1.4959
61617SOL    HW296831   3.847   6.591  11.390  1.8349  2.0405 -0.2233
61618SOL     OW96832   3.731   1.506  10.592 -0.0915 -0.3801  0.3406
61618SOL    HW196833   3.793   1.454  10.643  0.9965  0.7050  0.1654
61618SOL    HW296834   3.768   1.508  10.504 -0.5887 -0.0603  0.1366
61619SOL     OW96835   7.976   9.381   8.889  0.0215 -0.3851  0.2808
61619SOL    HW196836   8.033   9.311   8.920 -1.8530 -1.2255  2.1362
61619SOL    HW296837   7.981   9.447   8.958  1.0459  0.9287 -1.0084
61620SOL     OW96838   5.581   6.476   1.433 -0.0049  0.2435 -0.3019
61620SOL    HW196839   5.589   6.567   1.403  3.0479 -0.2204 -1.1814
61620SOL    HW296840   5.661   6.459   1.482 -0.1700 -2.1889 -0.7359
61621SOL     OW96841   9.818   2.860   4.937  0.3241 -0.2148 -0.1444
61621SOL    HW196842   9.817   2.956   4.927 -0.9742 -0.1553  0.3944
61621SOL    HW296843   9.907   2.841   4.967  0.8562  0.7284 -1.0356
61622SOL     OW96844   0.575   2.049  13.200  0.6559  0.0187  0.9313
61622SOL    HW196845   0.622   2.113  13.253  2.5773 -0.0825 -0.5331
61622SOL    HW296846   0.563   2.092  13.115  0.1996 -0.8386  0.5444
61623SOL     OW96847   1.260   6.037   1.294 -0.5864  0.2537  0.8951
61623SOL    HW196848   1.217   6.069   1.215  2.0007 -0.2257 -0.8442
61623SOL    HW296849   1.298   5.953   1.268 -0.3208 -0.3006  2.9119
61624SOL     OW96850   1.323   9.425   3.612  0.2843  0.2632 -0.4953
61624SOL    HW196851   1.235   9.460   3.629  0.2048 -0.0556 -0.2332
61624SOL    HW296852   1.349   9.464   3.529 -0.9677 -1.2046 -1.6561
61625SOL     OW96853  12.447   9.112  11.313 -0.3953 -0.7149  0.2121
61625SOL    HW196854  12.538   9.091  11.293  0.4053  0.1383  2.6276
61625SOL    HW296855  12.420   9.172  11.244  2.1426  2.0445  1.4170
61626SOL     OW96856   9.554   3.878  11.819  0.3688  0.2556 -0.2306
61626SOL    HW196857   9.460   3.871  11.803  0.5282 -1.4134 -0.7210
61626SOL    HW296858   9.592   3.894  11.732  0.5961 -0.2569 -0.2349
61627SOL     OW96859   8.998  13.946   1.959  0.2453 -0.7184  0.2901
61627SOL    HW196860   8.938  13.877   1.987  0.2772 -0.6082  0.6316
61627SOL    HW296861   9.026  13.988   2.040  0.1637 -0.2475  0.0739
61628SOL     OW96862   9.444   6.411  10.973  0.4849  0.6675 -0.4429
61628SOL    HW196863   9.376   6.418  11.040  0.2022 -0.3489 -0.6008
61628SOL    HW296864   9.417   6.336  10.920  2.6810 -1.0298  0.6462
61629SOL     OW96865   2.897   9.824   2.596 -0.8017 -0.3296 -0.2345
61629SOL    HW196866   2.841   9.881   2.544 -1.5724 -1.9871 -1.3015
61629SOL    HW296867   2.930   9.758   2.534 -0.9584 -1.7860  1.1507
61630SOL     OW96868   1.747   1.734  12.795 -0.3394  0.1092 -0.1438
61630SOL    HW196869   1.714   1.792  12.863 -1.4810  0.4278 -0.9480
61630SOL    HW296870   1.675   1.675  12.775 -0.4469  0.7510 -1.8637
61631SOL     OW96871  12.570  12.665  13.607  0.0830 -0.0739  0.1985
61631SOL    HW196872  12.647  12.717  13.584  0.6952  0.2081  2.5831
61631SOL    HW296873  12.510  12.727  13.649 -0.3146 -0.7796  0.6971
61632SOL     OW96874   6.995  12.159  10.347  0.5418 -0.2066  0.1170
61632SOL    HW196875   6.944  12.233  10.380  0.7115  0.4023 -0.9541
61632SOL    HW296876   6.960  12.083  10.394  1.2060  0.6824  2.1699
61633SOL     OW96877  11.684   8.343   9.518  0.0082 -0.0389 -0.1797
61633SOL    HW196878  11.775   8.324   9.541 -0.3442 -1.4368  0.1284
61633SOL    HW296879  11.685   8.353   9.423  0.4493 -0.2472 -0.2017
61634SOL     OW96880   7.056   2.053   8.446 -0.1296 -0.4196  0.4316
61634SOL    HW196881   7.132   2.097   8.483  0.8648 -0.2050 -1.6941
61634SOL    HW296882   6.983   2.114   8.462  0.8454  1.1184 -0.6798
61635SOL     OW96883   9.210   9.963   7.579  0.5772  0.4981  0.0023
61635SOL    HW196884   9.170  10.040   7.620  0.6282  0.7002 -0.3241
61635SOL    HW296885   9.294   9.952   7.625  0.7317  0.8525 -0.1914
61636SOL     OW96886   4.845   9.603   4.216  0.3607  0.2253 -0.1303
61636SOL    HW196887   4.768   9.547   4.227 -0.2038  0.9432 -0.3224
61636SOL    HW296888   4.913   9.545   4.184 -0.0449 -0.4650  0.2471
61637SOL     OW96889  10.335   3.221   6.248  0.1666  0.4183 -0.1531
61637SOL    HW196890  10.373   3.230   6.335 -0.8531 -0.5895  0.4131
61637SOL    HW296891  10.263   3.160   6.259 -0.4087  0.8007 -1.5821
61638SOL     OW96892   9.250   3.435   4.943 -0.5048  0.0646 -0.0710
61638SOL    HW196893   9.155   3.420   4.946 -0.7306  1.2225 -0.7774
61638SOL    HW296894   9.268   3.486   5.022 -0.7050  0.9650 -0.5905
61639SOL     OW96895   1.133   8.725   7.495  0.0218 -0.2646 -0.4159
61639SOL    HW196896   1.147   8.807   7.543 -3.2729 -0.9138  2.0225
61639SOL    HW296897   1.149   8.657   7.559  0.5900 -1.4926 -1.8046
61640SOL     OW96898  10.808  13.120  13.338 -0.1379  0.0407 -1.1920
61640SOL    HW196899  10.742  13.159  13.395 -0.1230 -1.3233 -0.1893
61640SOL    HW296900  10.758  13.079  13.268 -0.4627 -1.6652 -0.0191
61641SOL     OW96901   5.148   8.494  13.488  0.7454 -0.1626  0.2975
61641SOL    HW196902   5.116   8.407  13.512 -0.6212 -0.3957 -2.0998
61641SOL    HW296903   5.238   8.479  13.457  2.0116 -0.0527  3.4879
61642SOL     OW96904   5.715  12.198   6.300  0.0933 -0.5168 -0.7601
61642SOL    HW196905   5.692  12.117   6.346  2.2234 -1.4945 -1.2575
61642SOL    HW296906   5.675  12.188   6.213 -1.0333 -0.2563 -0.2819
61643SOL     OW96907   6.142   6.955  12.559  0.6564  0.3902 -0.3661
61643SOL    HW196908   6.058   6.997  12.577  1.3053  2.0859 -1.0503
61643SOL    HW296909   6.120   6.879  12.506 -0.5151  0.2131  0.3303
61644SOL     OW96910  13.448   0.154  12.968 -0.4891  0.1959  0.5811
61644SOL    HW196911  13.468   0.246  12.950  0.8455 -0.1524  0.1858
61644SOL    HW296912  13.382   0.130  12.903 -2.7509  1.5235  2.2347
61645SOL     OW96913   1.970   0.904  13.751 -0.0515 -0.2551 -0.0929
61645SOL    HW196914   1.955   0.950  13.668 -0.9009 -1.2974 -0.5275
61645SOL    HW296915   2.062   0.877  13.747 -0.2493 -0.8243 -0.9655
61646SOL     OW96916   7.071   1.370   7.789  0.0898 -0.5347  0.3842
61646SOL    HW196917   7.086   1.372   7.883 -1.5267  3.1486  0.7255
61646SOL    HW296918   7.129   1.436   7.753  0.0172 -1.2375 -1.1161
61647SOL     OW96919   8.241   3.170   0.818  0.2237  0.1813 -0.0215
61647SOL    HW196920   8.257   3.197   0.728  1.4006 -0.2083  0.0512
61647SOL    HW296921   8.313   3.208   0.868  0.1916 -0.5075  0.5726
61648SOL     OW96922   6.244   9.558   6.234 -0.0644  0.4469  0.0437
61648SOL    HW196923   6.242   9.464   6.217  1.5340  0.2520  0.7237
61648SOL    HW296924   6.228   9.599   6.149 -0.4998 -0.4292 -0.3056
61649SOL     OW96925   1.665   3.342   9.358 -0.1943  0.1747 -0.2109
61649SOL    HW196926   1.605   3.401   9.313 -0.2761 -0.6975 -1.2968
61649SOL    HW296927   1.624   3.326   9.443 -0.1368  1.7064  0.1279
61650SOL     OW96928   9.586   2.389   1.773  0.0350  0.4867 -0.2009
61650SOL    HW196929   9.595   2.394   1.868 -1.2426 -0.3819 -0.0146
61650SOL    HW296930   9.663   2.435   1.740  0.8085  0.3033  1.2445
61651SOL     OW96931  10.321  10.070   6.377  0.3165  0.2329 -0.1671
61651SOL    HW196932  10.268  10.013   6.321  0.9476 -1.0774  0.5064
61651SOL    HW296933  10.396  10.093   6.322  1.0133 -1.1760  0.1312
61652SOL     OW96934  10.238   8.241   5.903 -0.0772 -0.0778  0.2194
61652SOL    HW196935  10.285   8.177   5.852  0.9838  0.9229 -0.1059
61652SOL    HW296936  10.218   8.312   5.842  0.5523  0.8017  0.9981
61653SOL     OW96937   5.686   4.679  12.813  0.5105  0.5932  0.4674
61653SOL    HW196938   5.780   4.699  12.815  0.5424  0.4667  0.2775
61653SOL    HW296939   5.651   4.735  12.744  0.6857 -0.3501 -0.4041
61654SOL     OW96940  11.014   2.239   0.858  0.8344  0.6584 -0.2013
61654SOL    HW196941  11.019   2.334   0.846 -1.4371  0.6837 -1.3273
61654SOL    HW296942  11.103   2.208   0.839  1.8227  2.5804  0.9161
61655SOL     OW96943   0.521  10.015   5.448 -0.3726 -0.2629 -0.6117
61655SOL    HW196944   0.441  10.058   5.417 -1.3823 -0.2950  1.6958
61655SOL    HW296945   0.505   9.922   5.433 -1.7817 -0.4833  1.7034
61656SOL     OW96946   3.579   6.497   0.582  0.0479  0.0346  0.2447
61656SOL    HW196947   3.584   6.488   0.677  0.0141 -1.6637  0.1225
61656SOL    HW296948   3.670   6.503   0.554  0.1050 -0.4489  0.3188
61657SOL     OW96949   4.265  13.493   5.337  0.0833 -0.0250  0.0761
61657SOL    HW196950   4.319  13.520   5.412  0.5971 -2.8388  0.8203
61657SOL    HW296951   4.326  13.490   5.263  0.5059 -1.1615  0.4577
61658SOL     OW96952   3.292  12.985   9.242  0.0527  0.0048 -0.3380
61658SOL    HW196953   3.386  13.000   9.249  0.0582  0.3333 -1.0516
61658SOL    HW296954   3.272  12.997   9.149 -0.8502  0.8834 -0.0492
61659SOL     OW96955   9.288  13.802   6.582 -0.2644  0.5308  0.0553
61659SOL    HW196956   9.310  13.709   6.581 -0.7296  0.4176 -0.0814
61659SOL    HW296957   9.204  13.807   6.537 -2.0967  0.5294  3.1431
61660SOL     OW96958  10.242   0.459   5.911  0.3651 -0.0359 -0.5416
61660SOL    HW196959  10.231   0.380   5.963  0.4208 -0.4108 -1.0830
61660SOL    HW296960  10.280   0.428   5.829  0.0345  0.5048 -0.9073
61661SOL     OW96961   9.398  13.042  11.309 -0.1060 -0.4077  0.1636
61661SOL    HW196962   9.353  12.963  11.280 -0.8122  0.7373 -2.1174
61661SOL    HW296963   9.468  13.055  11.245 -1.3906  1.9598 -0.8910
61662SOL     OW96964   0.916   6.089   1.250  0.4687  0.0996  0.2490
61662SOL    HW196965   0.825   6.071   1.226  0.8652 -2.4390  0.3717
61662SOL    HW296966   0.959   6.106   1.167  0.3644 -1.3086 -0.1221
61663SOL     OW96967   0.908  13.091   5.516 -0.3664  0.7380 -0.9275
61663SOL    HW196968   1.003  13.085   5.510 -0.4542 -0.1672 -1.4869
61663SOL    HW296969   0.891  13.185   5.529  0.6100  0.8649 -0.4750
61664SOL     OW96970   0.126   1.826  12.195 -0.4111 -0.2935  0.0688
61664SOL    HW196971   0.121   1.904  12.139 -0.4072 -1.0599 -1.0311
61664SOL    HW296972   0.165   1.858  12.276 -1.9509  1.2010  0.2961
61665SOL     OW96973   4.070  11.903   7.381 -0.1904 -0.1238 -0.2415
61665SOL    HW196974   4.111  11.817   7.393 -0.1995 -0.3403 -1.5693
61665SOL    HW296975   4.034  11.925   7.466  1.9440 -0.3098  0.7843
61666SOL     OW96976   2.251  12.671   9.767 -0.4196 -0.1565  0.0356
61666SOL    HW196977   2.268  12.608   9.698  1.3778  0.7375 -0.3977
61666SOL    HW296978   2.276  12.756   9.730 -2.2521  0.7700  0.7787
61667SOL     OW96979   5.656   5.128   8.728  0.0577  0.0420 -0.1616
61667SOL    HW196980   5.586   5.067   8.748 -0.6534  0.1883 -2.0416
61667SOL    HW296981   5.624   5.178   8.653  1.6246  1.0386 -0.2105
61668SOL     OW96982   1.037   0.572   9.963  0.1703  0.0325  0.0220
61668SOL    HW196983   0.996   0.594   9.879 -2.0538 -0.4265  0.9058
61668SOL    HW296984   0.993   0.629  10.026  0.9511 -0.4664  1.0377
61669SOL     OW96985   4.048  13.747   5.794 -0.8523  0.1351 -0.0570
61669SOL    HW196986   4.053  13.776   5.703 -2.0131 -0.9817 -0.5024
61669SOL    HW296987   4.115  13.680   5.802 -0.1084  0.8872  0.1924
61670SOL     OW96988   8.359  13.492   5.001 -0.3958  0.4457  0.1190
61670SOL    HW196989   8.293  13.548   4.961  0.4023  1.6963  0.5256
61670SOL    HW296990   8.412  13.550   5.055 -0.2963 -0.9036  1.5424
61671SOL     OW96991   1.215   8.955   5.317  0.3553 -0.3527 -0.1763
61671SOL    HW196992   1.125   8.944   5.348  0.1826 -1.7314 -1.0558
61671SOL    HW296993   1.254   8.868   5.327  0.4372 -0.7804 -3.2222
61672SOL     OW96994  11.403   6.298   1.787 -0.2124 -0.6924  0.0836
61672SOL    HW196995  11.428   6.233   1.723 -3.3962 -0.1915 -1.9021
61672SOL    HW296996  11.341   6.253   1.845  1.2196 -0.6379  1.7488
61673SOL     OW96997   4.720   6.911   0.391  0.5583 -0.4203  0.3477
61673SOL    HW196998   4.707   6.971   0.465  2.0081  0.9086 -0.3964
61673SOL    HW296999   4.706   6.824   0.428 -1.6800  0.3246  1.4735
61674SOL     OW97000   1.544  10.871  13.545  0.6575 -0.5053 -0.3231
61674SOL    HW197001   1.596  10.938  13.590  0.9245 -1.0499  0.2007
61674SOL    HW297002   1.607  10.801  13.525  0.2580 -0.8830 -0.2743
61675SOL     OW97003  11.990   3.426   4.063  0.4593 -0.0828  0.2136
61675SOL    HW197004  12.021   3.344   4.102  0.7110 -0.7226 -1.2849
61675SOL    HW297005  12.049   3.493   4.096  1.2668 -0.7579  0.1577
61676SOL     OW97006  11.660   9.650   5.015 -0.3932  0.2099  0.2828
61676SOL    HW197007  11.674   9.663   4.922  0.1757 -1.0324  0.1810
61676SOL    HW297008  11.677   9.736   5.054  1.4064  0.2700 -0.5498
61677SOL     OW97009   3.233   6.674   3.643 -0.1636  0.3177  0.1569
61677SOL    HW197010   3.289   6.599   3.621 -3.5532 -2.7505  0.9881
61677SOL    HW297011   3.181   6.689   3.565 -0.7323  0.6422  0.5916
61678SOL     OW97012   2.557  10.156   1.805 -0.4892 -0.1531 -0.1164
61678SOL    HW197013   2.562  10.243   1.768  0.7490  0.4076  1.2437
61678SOL    HW297014   2.579  10.168   1.898 -0.7231 -1.8411  0.1987
61679SOL     OW97015   5.974   0.194   0.767  0.3481  0.3680 -0.3955
61679SOL    HW197016   6.005   0.172   0.855  2.7720 -3.0476 -1.8838
61679SOL    HW297017   5.879   0.202   0.777  0.3602 -1.3333  2.3195
61680SOL     OW97018   8.536   7.176   7.476 -0.7085  0.0782  0.2901
61680SOL    HW197019   8.563   7.228   7.400  1.8666 -0.1557  0.9641
61680SOL    HW297020   8.543   7.085   7.446 -0.7825  0.0072  0.4863
61681SOL     OW97021   2.485   6.658   5.140  0.8067 -0.1804  0.1006
61681SOL    HW197022   2.433   6.578   5.148  2.3022 -1.3239 -1.0315
61681SOL    HW297023   2.469   6.689   5.051  1.0505  0.2153  0.1900
61682SOL     OW97024  11.961  12.267   0.130  0.0693 -0.5937  0.6139
61682SOL    HW197025  11.990  12.257   0.039  0.5810  0.3932  0.6576
61682SOL    HW297026  11.988  12.355   0.155  0.2814 -0.9746  1.8466
61683SOL     OW97027   1.387   1.009   9.186  0.6391  0.2586  0.5761
61683SOL    HW197028   1.456   1.035   9.125 -1.0759  0.3153 -1.4970
61683SOL    HW297029   1.331   1.087   9.192 -0.9798 -0.7706 -0.4333
61684SOL     OW97030   1.931   9.198   4.652 -0.0710  0.3159 -0.6279
61684SOL    HW197031   2.018   9.158   4.658 -0.5415 -0.7246 -0.5332
61684SOL    HW297032   1.920   9.216   4.559 -0.0702 -0.3020 -0.7552
61685SOL     OW97033  13.554  11.710   6.655 -0.2381 -0.5048  0.4525
61685SOL    HW197034  13.568  11.757   6.573 -0.7929 -1.5670 -0.2788
61685SOL    HW297035  13.547  11.618   6.629  3.2315 -1.3998  2.0735
61686SOL     OW97036   8.930  12.694   3.137  0.4309  0.1247  0.6797
61686SOL    HW197037   8.888  12.678   3.221  0.7048 -1.2328  0.5950
61686SOL    HW297038   8.868  12.748   3.088 -0.2956 -0.1367  1.3012
61687SOL     OW97039   0.817   9.838  14.034  0.3320 -0.5455  0.2911
61687SOL    HW197040   0.741   9.788  14.005  0.8084  0.4593 -3.0839
61687SOL    HW297041   0.881   9.827  13.964  1.8120  1.8109  1.1699
61688SOL     OW97042   9.127  12.951  12.091 -0.9523 -0.1709  0.3006
61688SOL    HW197043   9.203  12.978  12.040 -2.3093  2.4834 -0.4646
61688SOL    HW297044   9.074  12.900  12.030 -0.5248 -0.7346  0.3900
61689SOL     OW97045   8.766   7.937   2.470  0.1853  0.1195  0.1423
61689SOL    HW197046   8.820   7.871   2.513  0.1504  1.2382  2.0562
61689SOL    HW297047   8.821   8.016   2.471 -0.1255  0.3779 -1.2343
61690SOL     OW97048  13.883  11.459   7.113  0.3709  0.0950  0.3417
61690SOL    HW197049  13.851  11.428   7.198 -0.0812  0.9325  0.4902
61690SOL    HW297050  13.825  11.533   7.091  0.1172 -0.4683 -0.9705
61691SOL     OW97051   5.875   2.640   1.113  0.7780 -0.1076 -0.2956
61691SOL    HW197052   5.804   2.702   1.097  1.9935  1.3969 -0.0746
61691SOL    HW297053   5.946   2.669   1.056  1.6064 -0.8947  0.3024
61692SOL     OW97054   2.721  12.634   7.210  0.1574 -0.4051 -0.2925
61692SOL    HW197055   2.738  12.663   7.299  1.8249  0.8954 -0.9681
61692SOL    HW297056   2.630  12.660   7.193 -0.5560 -1.6954  1.3574
61693SOL     OW97057   3.623   8.012   4.755  0.0751 -0.6264 -0.2684
61693SOL    HW197058   3.534   7.994   4.725 -0.8228  1.5218  0.8272
61693SOL    HW297059   3.660   8.070   4.688 -0.0425 -0.0310  0.1735
61694SOL     OW97060  13.588   2.630   0.065 -0.0107  0.4679 -0.6504
61694SOL    HW197061  13.518   2.614   0.128  0.2674  1.1379 -0.1708
61694SOL    HW297062  13.566   2.573  -0.009 -0.6954  0.1700 -0.2307
61695SOL     OW97063   5.624   3.807   4.136  0.2612  0.2734  0.0174
61695SOL    HW197064   5.584   3.854   4.063  2.0169 -0.2775 -1.3725
61695SOL    HW297065   5.715   3.793   4.109  1.0434  0.2154  2.4002
61696SOL     OW97066   6.722   6.584  13.642  0.1815  0.1959 -0.0129
61696SOL    HW197067   6.809   6.567  13.605 -0.0236  0.5901 -0.7066
61696SOL    HW297068   6.666   6.516  13.605  0.1875 -0.0228  0.3861
61697SOL     OW97069  11.159   0.949   1.140  0.1134  0.4222 -0.2237
61697SOL    HW197070  11.076   0.993   1.122  0.4826  1.4851  0.5669
61697SOL    HW297071  11.222   1.021   1.154  0.9241 -0.3561  0.2535
61698SOL     OW97072  13.515  11.219  13.660 -0.0184 -0.0990 -0.7046
61698SOL    HW197073  13.462  11.156  13.611  0.6197  0.2698 -1.9260
61698SOL    HW297074  13.572  11.165  13.715 -0.0487 -0.5633 -1.1270
61699SOL     OW97075   1.260  13.202  11.745  0.1660 -0.1467 -0.2409
61699SOL    HW197076   1.290  13.271  11.686  0.4593  1.5251  1.7016
61699SOL    HW297077   1.171  13.229  11.770 -0.2469 -1.2281 -0.5114
61700SOL     OW97078   4.956   8.931   2.132  0.1910  0.0433  0.3563
61700SOL    HW197079   5.029   8.983   2.097  0.8731 -0.8159  0.4873
61700SOL    HW297080   4.881   8.991   2.130  1.2746  1.5435  1.9340
61701SOL     OW97081   4.187   4.386   1.163 -0.5800  0.8774  0.2497
61701SOL    HW197082   4.270   4.343   1.183 -0.2108  0.3789 -2.1059
61701SOL    HW297083   4.141   4.389   1.247 -0.4510 -3.7312  0.7280
61702SOL     OW97084   7.093   0.357   8.436  0.4935  0.2005 -0.5372
61702SOL    HW197085   7.074   0.426   8.500  1.7578  0.3678 -0.3109
61702SOL    HW297086   7.046   0.385   8.357  0.7071  1.1571 -0.3448
61703SOL     OW97087   3.175  10.338   6.199  0.3178 -0.2292 -0.4890
61703SOL    HW197088   3.137  10.253   6.176 -0.1277  0.0715 -0.8788
61703SOL    HW297089   3.155  10.394   6.125  1.5519 -0.0585 -0.7160
61704SOL     OW97090   5.284   0.624   4.348 -0.3341  0.1699 -0.3055
61704SOL    HW197091   5.196   0.602   4.317 -0.3067 -0.8927  0.3331
61704SOL    HW297092   5.322   0.541   4.376  0.0200  0.9106  1.6080
61705SOL     OW97093   2.916  10.762  13.026  0.1205 -0.2117  0.3964
61705SOL    HW197094   2.955  10.753  12.940  0.5717  0.0082  0.5700
61705SOL    HW297095   2.985  10.734  13.087 -0.8532 -2.2923  0.6219
61706SOL     OW97096   2.446  13.426   6.907  0.7766  0.0060  0.4857
61706SOL    HW197097   2.456  13.402   6.999 -1.3511 -1.4824  0.4010
61706SOL    HW297098   2.365  13.383   6.880  2.3489 -1.2578 -2.6641
61707SOL     OW97099   7.412   9.015  12.216  0.1360 -0.5537  0.6602
61707SOL    HW197100   7.323   8.982  12.206 -0.6000  1.6085 -0.5895
61707SOL    HW297101   7.467   8.950  12.172 -1.3158  0.0378 -2.2943
61708SOL     OW97102   4.686  11.735   8.950 -0.2434 -0.1845 -0.0654
61708SOL    HW197103   4.712  11.807   9.008  0.6160 -1.2467  0.9255
61708SOL    HW297104   4.690  11.773   8.862 -2.0837  1.6178  0.5485
61709SOL     OW97105  11.608   6.979   3.108  0.4632 -0.3350 -0.0986
61709SOL    HW197106  11.587   7.000   3.199 -1.4702 -1.3619 -0.2528
61709SOL    HW297107  11.634   7.063   3.070  0.2663  0.3153  1.1357
61710SOL     OW97108   5.091   0.157   8.559  0.8588  0.4111 -0.3443
61710SOL    HW197109   5.042   0.223   8.609  0.2955 -0.3378  0.1137
61710SOL    HW297110   5.024   0.112   8.508  1.1047 -0.4151  0.0440
61711SOL     OW97111   7.606   6.080   1.433 -0.0786  0.2742 -0.0957
61711SOL    HW197112   7.550   6.018   1.480  0.0539 -0.0135 -0.3174
61711SOL    HW297113   7.598   6.162   1.482  1.8809 -0.5969  1.8153
61712SOL     OW97114   9.027   9.173   0.734  0.3491  0.1979 -0.2449
61712SOL    HW197115   8.995   9.119   0.806 -2.4288  0.9066 -0.8138
61712SOL    HW297116   9.004   9.124   0.655  0.9626  0.6407 -0.7128
61713SOL     OW97117   6.067   4.047   0.464 -0.0337  0.2241  0.4227
61713SOL    HW197118   6.085   4.021   0.373  0.1519  0.4425  0.3956
61713SOL    HW297119   6.111   3.980   0.517 -0.4048 -0.0751  0.3499
61714SOL     OW97120  10.851   6.942   4.202  0.6188 -0.4035  0.0870
61714SOL    HW197121  10.856   6.995   4.122 -0.1917  0.8587  0.8440
61714SOL    HW297122  10.842   6.852   4.170  1.5457 -0.0758 -1.2332
61715SOL     OW97123   8.534  13.162   2.997  0.5896 -0.0886 -0.2740
61715SOL    HW197124   8.488  13.142   3.078  0.1830  0.8899 -0.2612
61715SOL    HW297125   8.480  13.228   2.953  1.1504 -0.1107 -1.0221
61716SOL     OW97126   3.772   6.891  11.514 -0.5237 -0.6654  0.0996
61716SOL    HW197127   3.807   6.808  11.481 -0.7149 -1.0246  0.7941
61716SOL    HW297128   3.728   6.869  11.596 -2.6134 -0.2777 -0.8465
61717SOL     OW97129  13.479   9.016   6.059  0.2588  0.4586  0.3065
61717SOL    HW197130  13.399   9.034   6.009  0.3565 -0.0288 -0.0343
61717SOL    HW297131  13.452   9.024   6.151  0.1389  1.6089  0.1843
61718SOL     OW97132  12.232  11.547   7.012 -0.2933 -0.1454 -0.0435
61718SOL    HW197133  12.298  11.584   6.954 -0.5121 -0.2599 -0.3718
61718SOL    HW297134  12.276  11.537   7.096 -0.4873  1.7567  0.3305
61719SOL     OW97135   4.792   2.357  11.400 -0.6562 -0.1115  0.1669
61719SOL    HW197136   4.797   2.329  11.492 -1.6248  0.7550  0.5022
61719SOL    HW297137   4.713   2.411  11.396  1.6065  3.5299 -0.1850
61720SOL     OW97138  12.437  11.504   1.978 -0.0888  0.1528 -0.2901
61720SOL    HW197139  12.515  11.463   1.940 -0.1212 -1.2109  1.0119
61720SOL    HW297140  12.449  11.495   2.072 -2.1812 -0.8175 -0.0627
61721SOL     OW97141  10.740   1.170   9.572 -0.2054  0.2601 -0.0318
61721SOL    HW197142  10.696   1.177   9.657  0.3563  0.1946  0.2644
61721SOL    HW297143  10.668   1.156   9.510 -0.5339 -0.9088  0.5780
61722SOL     OW97144   4.410   9.159  13.504 -0.2848 -0.2976  0.6889
61722SOL    HW197145   4.438   9.210  13.580  0.3152  0.8990 -0.3107
61722SOL    HW297146   4.486   9.106  13.481  0.3845  1.1408 -0.5310
61723SOL     OW97147   8.565  10.208  10.583 -0.0221 -0.3232 -0.0017
61723SOL    HW197148   8.582  10.191  10.676  1.0422 -0.8999 -0.2862
61723SOL    HW297149   8.603  10.295  10.568 -1.2822  0.3171  0.3639
61724SOL     OW97150   2.349   6.242   3.576 -0.8164  0.7018 -0.1903
61724SOL    HW197151   2.350   6.193   3.494 -0.9929 -0.2957  0.3869
61724SOL    HW297152   2.441   6.250   3.601 -0.8506 -0.6326  0.4460
61725SOL     OW97153   8.327  10.428   8.329  0.4038  0.2733  0.2786
61725SOL    HW197154   8.268  10.453   8.258 -0.9230  2.4794  1.9837
61725SOL    HW297155   8.268  10.404   8.401  1.6810 -1.6238  0.7649
61726SOL     OW97156  13.198   7.323   9.636  0.4140  0.0495 -0.1536
61726SOL    HW197157  13.233   7.315   9.725  2.7049  1.8194 -0.7958
61726SOL    HW297158  13.110   7.361   9.648  1.8981  3.4755  1.3525
61727SOL     OW97159   0.601   1.020  12.740 -0.1439 -0.1507 -0.3004
61727SOL    HW197160   0.670   1.057  12.795  0.4483  0.6479 -1.5443
61727SOL    HW297161   0.567   1.094  12.690 -0.7056 -0.8431 -0.9768
61728SOL     OW97162   8.701  11.570   7.229 -0.5646  0.1167  0.2649
61728SOL    HW197163   8.777  11.513   7.216 -1.2602 -1.0581  1.1297
61728SOL    HW297164   8.731  11.657   7.201  0.3567 -0.7535 -1.6833
61729SOL     OW97165   8.723   3.000   0.540  0.1187 -0.1474 -0.2991
61729SOL    HW197166   8.652   3.016   0.603  0.8713 -1.7782  1.0782
61729SOL    HW297167   8.800   3.039   0.581  0.5556 -0.9479 -0.3435
61730SOL     OW97168   8.221   5.646   6.420  0.3179 -0.0575 -0.0115
61730SOL    HW197169   8.287   5.603   6.473  1.8464 -0.6132 -2.2121
61730SOL    HW297170   8.189   5.577   6.361  1.3405  1.2452 -2.2216
61731SOL     OW97171   0.185   9.914   2.883 -0.0189 -0.4502  0.2674
61731SOL    HW197172   0.114   9.946   2.827 -2.0345  0.1567  2.9645
61731SOL    HW297173   0.210   9.989   2.937 -0.4695 -1.7347  2.4023
61732SOL     OW97174  10.121   1.536   7.381 -0.1490  0.2020  0.0264
61732SOL    HW197175  10.152   1.484   7.307 -1.1163 -0.2662 -0.0613
61732SOL    HW297176  10.144   1.485   7.458 -2.8334 -1.3882 -0.1207
61733SOL     OW97177   0.608   6.363   6.217 -0.0371 -0.0053  0.2079
61733SOL    HW197178   0.685   6.319   6.181 -0.5419 -1.1861  0.5231
61733SOL    HW297179   0.611   6.451   6.181  1.0113 -0.2960 -0.4362
61734SOL     OW97180   0.981   8.222  13.870  0.2461  0.4419 -0.1554
61734SOL    HW197181   1.033   8.197  13.947 -0.9121 -1.5078  0.0700
61734SOL    HW297182   0.993   8.149  13.808 -0.4512  1.0167 -0.9847
61735SOL     OW97183   4.005   0.559  13.374 -0.1866 -0.4134 -0.1821
61735SOL    HW197184   4.081   0.584  13.426  0.0332 -0.3255 -0.5389
61735SOL    HW297185   3.930   0.594  13.422  0.0785  0.5564 -0.4464
61736SOL     OW97186   5.369   4.345   8.567 -0.1248 -0.1790 -0.3217
61736SOL    HW197187   5.439   4.339   8.632 -1.6639 -3.1891  1.2459
61736SOL    HW297188   5.398   4.289   8.495 -1.5657 -3.0590  1.1687
61737SOL     OW97189  13.444   2.511  10.725 -0.1686 -0.1210  0.2378
61737SOL    HW197190  13.532   2.498  10.759  1.6647  3.6601 -2.3202
61737SOL    HW297191  13.407   2.582  10.778 -0.5468  0.1681 -0.3909
61738SOL     OW97192   0.794  11.759   6.090 -0.2459  0.8894  0.0126
61738SOL    HW197193   0.774  11.840   6.137  1.1376  2.0507 -1.3167
61738SOL    HW297194   0.820  11.788   6.003 -1.0023 -1.0926 -0.9304
61739SOL     OW97195   6.035  11.150   6.860  0.1193 -0.3398  0.3167
61739SOL    HW197196   6.011  11.199   6.939  0.3828  0.3902 -0.0469
61739SOL    HW297197   5.973  11.180   6.794  0.6412 -0.0740 -0.0536
61740SOL     OW97198   2.277   1.989   5.298 -0.3005 -0.3504 -0.3329
61740SOL    HW197199   2.182   1.985   5.295 -0.2969 -0.9781  0.2282
61740SOL    HW297200   2.302   1.926   5.366  0.5404 -0.6187 -0.8692
61741SOL     OW97201   4.703   4.813  10.811  0.1601  0.1335  0.1137
61741SOL    HW197202   4.609   4.793  10.809  0.0906  0.4896 -0.7296
61741SOL    HW297203   4.745   4.735  10.776  0.0600  0.5422 -0.9450
61742SOL     OW97204  12.775   6.470  13.561  0.1397 -0.1766 -0.0900
61742SOL    HW197205  12.787   6.515  13.645  0.8995 -1.4566  0.5221
61742SOL    HW297206  12.684   6.487  13.537  0.0853  0.7241  0.6693
61743SOL     OW97207   2.077   8.161   5.713  0.6470  0.0966 -0.2558
61743SOL    HW197208   2.056   8.228   5.779 -2.3999 -1.3128  0.4145
61743SOL    HW297209   2.035   8.082   5.746  1.8515 -1.4964 -2.3344
61744SOL     OW97210  10.016   6.108   5.247 -0.2225 -0.2754 -0.0922
61744SOL    HW197211   9.974   6.074   5.168  0.1497 -1.1145  0.0489
61744SOL    HW297212  10.037   6.199   5.227  1.3352 -0.9063 -1.6045
61745SOL     OW97213   6.591   0.682   1.626  0.9541 -0.2390  0.2455
61745SOL    HW197214   6.549   0.639   1.553  2.0579 -0.1280 -0.4842
61745SOL    HW297215   6.520   0.707   1.685 -0.0708  0.6713 -1.3241
61746SOL     OW97216  13.356  11.612   2.635  0.4208  0.0386  0.0226
61746SOL    HW197217  13.339  11.659   2.553 -1.0502 -0.6370 -0.0952
61746SOL    HW297218  13.305  11.531   2.627 -0.5466  0.4003  1.9994
61747SOL     OW97219  11.416  11.145   1.780  0.6888 -0.4669  0.0670
61747SOL    HW197220  11.430  11.129   1.687  1.6860  1.2992 -0.1169
61747SOL    HW297221  11.497  11.186   1.810 -0.1826  0.3577  1.3890
61748SOL     OW97222  10.808   3.918  13.260 -0.4118 -0.2727  0.1568
61748SOL    HW197223  10.884   3.860  13.267  0.5830  0.9052 -0.5148
61748SOL    HW297224  10.826   3.989  13.323 -2.0004 -1.0590  1.5711
61749SOL     OW97225   0.952   4.036   6.301  0.6727 -0.8643  0.2764
61749SOL    HW197226   0.901   4.085   6.236 -1.6670 -0.8114  2.0215
61749SOL    HW297227   1.018   4.098   6.331 -1.2210  0.7887  1.2751
61750SOL     OW97228   4.412  13.153  10.746  0.2676 -0.4639  0.0356
61750SOL    HW197229   4.344  13.089  10.726  2.7320 -2.9332 -1.0989
61750SOL    HW297230   4.436  13.189  10.661 -0.4282  1.3667  0.5656
61751SOL     OW97231   8.867   0.907   4.251 -0.1544 -0.4774 -0.2314
61751SOL    HW197232   8.860   0.979   4.313  1.5115 -1.2307  0.8935
61751SOL    HW297233   8.894   0.832   4.304 -0.0313 -1.4863 -1.6573
61752SOL     OW97234   4.356   5.230   2.595 -0.2726  0.2444 -0.4778
61752SOL    HW197235   4.276   5.217   2.544  0.4234 -1.9586 -1.1096
61752SOL    HW297236   4.422   5.254   2.530 -0.2898  1.7401  0.0057
61753SOL     OW97237   3.276   9.317   4.203  0.1604  0.0257 -0.2594
61753SOL    HW197238   3.188   9.280   4.192  0.1755 -0.5439  1.3630
61753SOL    HW297239   3.262   9.396   4.255  0.8067 -1.2237  1.9001
61754SOL     OW97240  11.636  11.281   4.913 -0.4931 -0.5719  0.4650
61754SOL    HW197241  11.717  11.299   4.865 -0.9355 -1.0336 -0.4881
61754SOL    HW297242  11.639  11.341   4.988  1.1288 -1.1758  0.9324
61755SOL     OW97243   5.111  11.676  13.638  0.6108  0.1550  0.7980
61755SOL    HW197244   5.149  11.761  13.660 -0.1490  0.9109 -0.6407
61755SOL    HW297245   5.109  11.675  13.542 -0.7015 -0.8918  0.8082
61756SOL     OW97246   8.383   2.758   8.533  0.2262  0.8357  0.3257
61756SOL    HW197247   8.388   2.834   8.590 -0.3545  2.3019 -1.4789
61756SOL    HW297248   8.412   2.790   8.447 -1.5614 -0.5192 -0.8625
61757SOL     OW97249   4.478   7.624   8.051 -0.4112 -0.7871  0.3888
61757SOL    HW197250   4.394   7.651   8.014 -1.6067 -2.7049  1.5467
61757SOL    HW297251   4.456   7.580   8.133  1.7835 -0.9052  0.9947
61758SOL     OW97252  10.268  11.873   1.465  0.1189 -0.0086  0.0304
61758SOL    HW197253  10.266  11.942   1.398 -0.2543  0.1507  0.2058
61758SOL    HW297254  10.277  11.921   1.547  0.6997 -0.2103  0.0925
61759SOL     OW97255   2.893   4.821   2.391  0.2139 -0.0468  0.1345
61759SOL    HW197256   2.973   4.862   2.423  0.6756 -1.4612  0.8825
61759SOL    HW297257   2.834   4.822   2.466 -0.5716  1.1738 -0.4702
61760SOL     OW97258   1.326  11.618  10.539 -0.3721 -0.3533 -0.1512
61760SOL    HW197259   1.362  11.707  10.544 -0.4809 -0.3431  0.5572
61760SOL    HW297260   1.384  11.572  10.479  0.4479 -0.1555  0.4734
61761SOL     OW97261   2.995   0.484   6.127 -0.1586  0.0232  0.3184
61761SOL    HW197262   3.050   0.497   6.050  1.4906 -1.1666  1.2246
61761SOL    HW297263   2.961   0.395   6.117  0.7715 -0.4692  1.3498
61762SOL     OW97264  13.636  10.794   9.396  0.2445  0.1820 -0.2717
61762SOL    HW197265  13.571  10.857   9.364  0.2462  0.7275  0.7626
61762SOL    HW297266  13.587  10.711   9.403 -0.6519  0.8159  1.4894
61763SOL     OW97267   6.222   0.708   5.598 -0.1715 -0.1186  0.2397
61763SOL    HW197268   6.281   0.684   5.669  0.0094  1.0731  0.5222
61763SOL    HW297269   6.144   0.654   5.611 -0.0240 -0.1125  1.1733
61764SOL     OW97270   6.006   6.823   2.534 -0.4109 -0.1444  0.4086
61764SOL    HW197271   6.089   6.775   2.532  0.4111  1.2104 -1.4113
61764SOL    HW297272   6.032   6.916   2.532 -1.9649  0.3678  1.6688
61765SOL     OW97273   7.968   0.852   0.325  0.3776  0.4417  0.0356
61765SOL    HW197274   8.060   0.873   0.312  0.2314  0.7075 -0.6038
61765SOL    HW297275   7.968   0.769   0.373  0.9457  0.3474 -0.1305
61766SOL     OW97276   9.058  12.269  12.096  0.7816 -0.1686 -0.4612
61766SOL    HW197277   9.022  12.309  12.017  1.4628  1.2575 -0.0879
61766SOL    HW297278   9.118  12.335  12.131  1.2638 -1.1773  0.6989
61767SOL     OW97279   1.632   9.551   1.038 -0.2117 -0.4907 -0.5207
61767SOL    HW197280   1.717   9.552   0.994 -0.1439  0.6889 -0.4013
61767SOL    HW297281   1.646   9.601   1.118 -0.8105 -1.0310 -0.0668
61768SOL     OW97282   9.613   3.730  12.347  0.6015 -0.3265 -0.1609
61768SOL    HW197283   9.543   3.674  12.379  0.6122  0.4227  1.2554
61768SOL    HW297284   9.597   3.737  12.253  0.1664 -2.0534 -0.2534
61769SOL     OW97285   7.576  11.066   2.793 -0.3272 -0.1251 -0.3226
61769SOL    HW197286   7.495  11.111   2.772 -0.4468  0.3146  0.9570
61769SOL    HW297287   7.641  11.102   2.732 -0.7632  0.6471 -0.3325
61770SOL     OW97288   1.474   9.134   1.026  0.3542 -0.2078  0.2872
61770SOL    HW197289   1.536   9.145   0.954  0.7581 -1.6015  0.3725
61770SOL    HW297290   1.476   9.217   1.074  1.4131  0.1129 -0.2935
61771SOL     OW97291  10.122   2.611   0.413 -0.4658  0.8980 -0.3238
61771SOL    HW197292  10.129   2.527   0.368  2.7540  1.7390 -1.5864
61771SOL    HW297293  10.184   2.604   0.486 -1.6149  1.5386  0.7548
61772SOL     OW97294  10.105   0.132  11.405  0.0723 -0.1039 -0.4382
61772SOL    HW197295  10.092   0.094  11.318  0.3528  0.2437 -0.6339
61772SOL    HW297296  10.036   0.093  11.459 -1.4336  1.2345 -1.3093
61773SOL     OW97297   3.078  13.468   4.730  0.0264  0.1957 -0.3582
61773SOL    HW197298   3.086  13.376   4.705  1.0958  0.3706 -0.7152
61773SOL    HW297299   2.986  13.479   4.754 -0.2294 -0.8349 -0.8310
61774SOL     OW97300   9.047   9.254  13.248  0.1309 -0.1469 -0.0279
61774SOL    HW197301   9.101   9.176  13.232  2.4566  1.4536 -0.3681
61774SOL    HW297302   8.963   9.218  13.275  0.4950 -2.8180 -1.9594
61775SOL     OW97303   9.263  13.428   9.961  0.1235  0.7350  0.3327
61775SOL    HW197304   9.276  13.473  10.045 -0.5167  2.4745 -0.4491
61775SOL    HW297305   9.312  13.480   9.898  2.2348 -1.6486 -0.1422
61776SOL     OW97306   0.484  12.113   7.535  0.1199 -0.1505  0.1366
61776SOL    HW197307   0.401  12.064   7.530  0.8664 -1.4445  0.0364
61776SOL    HW297308   0.501  12.140   7.445  0.2449 -0.6552  0.0041
61777SOL     OW97309  12.599   8.690   2.695 -0.3810  0.5051 -0.1756
61777SOL    HW197310  12.520   8.681   2.749  0.9535 -2.0026  1.5182
61777SOL    HW297311  12.574   8.653   2.610 -0.8449 -1.0127  0.5860
61778SOL     OW97312  13.588  11.867   8.579  0.3281  0.1946  0.0396
61778SOL    HW197313  13.649  11.794   8.569 -2.3506 -2.3024  0.4962
61778SOL    HW297314  13.515  11.845   8.521 -1.9874  0.7803  2.5376
61779SOL     OW97315   3.380   0.666  11.965 -0.0360  0.2411  0.8891
61779SOL    HW197316   3.286   0.649  11.961 -0.3933  2.1561 -0.0840
61779SOL    HW297317   3.417   0.614  11.893 -0.7236  1.4649 -0.3831
61780SOL     OW97318  10.815   8.877   1.568 -0.0013 -0.2560  0.1263
61780SOL    HW197319  10.840   8.879   1.661  1.0578 -1.0258 -0.1216
61780SOL    HW297320  10.897   8.862   1.522 -0.1790  2.0107 -1.0968
61781SOL     OW97321  10.947  12.393   2.567 -0.1603  0.2918  0.8996
61781SOL    HW197322  10.915  12.458   2.629  0.0830  0.0237  1.3084
61781SOL    HW297323  10.984  12.323   2.621  0.3983  0.2323  0.4579
61782SOL     OW97324   9.801  12.628   6.237  0.3564  0.2354  0.1865
61782SOL    HW197325   9.836  12.595   6.154  1.3595  0.7813  0.3824
61782SOL    HW297326   9.739  12.696   6.212 -1.3445 -1.3593 -0.2037
61783SOL     OW97327  10.049   6.227   6.668  0.2458  0.1494  0.2992
61783SOL    HW197328  10.111   6.239   6.739  0.4544  0.5792  0.0499
61783SOL    HW297329   9.974   6.184   6.708  1.5074 -2.2859  0.2036
61784SOL     OW97330   8.311   0.360   6.824 -0.8394  0.5154  1.1951
61784SOL    HW197331   8.372   0.385   6.894 -0.9857  0.0136  1.5065
61784SOL    HW297332   8.361   0.372   6.744 -0.4722  0.5326  1.4223
61785SOL     OW97333  11.376  13.946   9.916  0.0182 -0.6421 -0.2042
61785SOL    HW197334  11.308  13.907   9.972 -0.8584 -1.3346 -1.6866
61785SOL    HW297335  11.406  14.023   9.964 -1.2247 -0.8045  0.8749
61786SOL     OW97336  12.385   6.326  10.532 -0.3635  0.0446  0.2936
61786SOL    HW197337  12.298   6.290  10.550 -0.7050 -1.1311 -3.0658
61786SOL    HW297338  12.444   6.271  10.582 -1.3849 -0.7250  0.6937
61787SOL     OW97339  13.939   3.429   4.440  0.1516 -0.4629 -0.0527
61787SOL    HW197340  13.952   3.336   4.421  0.3932 -0.1368 -1.6350
61787SOL    HW297341  13.974   3.440   4.528 -0.0416 -1.8981  0.2302
61788SOL     OW97342  10.084  13.746   6.487  1.0176  0.0624 -0.1019
61788SOL    HW197343  10.019  13.719   6.422 -0.6223 -0.3767  1.6343
61788SOL    HW297344  10.077  13.842   6.489 -1.2980 -0.0533  1.6441
61789SOL     OW97345   2.148   7.587   6.617 -0.6470 -0.5535  0.5466
61789SOL    HW197346   2.202   7.545   6.683  1.7452 -0.4630 -1.2156
61789SOL    HW297347   2.075   7.526   6.603 -0.6467 -1.0492  2.4596
61790SOL     OW97348  10.241   8.677   5.856 -0.0332  0.0304  0.2016
61790SOL    HW197349  10.159   8.724   5.870  0.8210  1.8632 -0.6413
61790SOL    HW297350  10.279   8.717   5.778  1.4213 -1.1474  0.2534
61791SOL     OW97351   2.260   8.351   5.418  0.2229  0.3515  0.1731
61791SOL    HW197352   2.269   8.382   5.328 -0.4765 -1.1345 -0.4437
61791SOL    HW297353   2.175   8.384   5.446 -0.2848 -0.5195 -0.2970
61792SOL     OW97354   3.127   0.445  12.124 -0.1598  0.6097  0.6834
61792SOL    HW197355   3.100   0.510  12.188 -1.4698 -0.5340  1.3437
61792SOL    HW297356   3.152   0.495  12.047 -0.4874  1.9058  1.4036
61793SOL     OW97357  12.723   3.974   8.385 -0.6609  0.6039 -0.1717
61793SOL    HW197358  12.664   3.902   8.408  0.6045 -0.0815  1.0764
61793SOL    HW297359  12.694   4.047   8.440  0.9718 -0.3856  2.1558
61794SOL     OW97360   6.305  13.280  12.844  0.1610  0.0614 -0.4100
61794SOL    HW197361   6.282  13.348  12.908  0.1974 -1.2546  1.0655
61794SOL    HW297362   6.241  13.211  12.858  1.3054 -1.0501 -0.4798
61795SOL     OW97363   5.243   3.818   4.201 -0.4886 -0.0403  0.2578
61795SOL    HW197364   5.318   3.877   4.213 -0.1053  0.1035 -2.1595
61795SOL    HW297365   5.166   3.874   4.212 -0.1322  0.8172 -1.2257
61796SOL     OW97366   2.938  11.138   7.965 -0.1101  0.1937 -0.1291
61796SOL    HW197367   2.858  11.130   8.017  0.8012  0.4750  1.3814
61796SOL    HW297368   2.974  11.049   7.964  1.1905  0.6167  2.0041
61797SOL     OW97369  12.941   7.830  10.226  0.1417 -0.3057  0.5823
61797SOL    HW197370  13.008   7.897  10.213 -0.8986  0.9319  1.3531
61797SOL    HW297371  12.867   7.860  10.172 -0.5339 -0.5299  1.3686
61798SOL     OW97372   0.742  12.831   6.556  0.5493 -0.0265 -0.2608
61798SOL    HW197373   0.772  12.818   6.466 -0.7542  1.0983 -0.8859
61798SOL    HW297374   0.646  12.830   6.549  0.4279 -0.4071  1.2022
61799SOL     OW97375   9.512  10.742   8.554 -0.0212  0.1305 -0.2927
61799SOL    HW197376   9.441  10.679   8.544  0.9481 -0.8231 -1.4369
61799SOL    HW297377   9.574  10.701   8.615 -0.6196  1.1599  1.0813
61800SOL     OW97378   9.810   2.717  11.277 -0.1026 -0.2565 -0.9375
61800SOL    HW197379   9.846   2.790  11.327  1.5821 -2.0073  0.5834
61800SOL    HW297380   9.719   2.742  11.260  0.0974  1.6903  0.4819
61801SOL     OW97381   3.312   0.572   4.694 -0.3522  0.6924  1.0118
61801SOL    HW197382   3.364   0.557   4.772 -0.1607  2.7098  1.3345
61801SOL    HW297383   3.257   0.494   4.686  0.8781 -0.3373  2.1188
61802SOL     OW97384  11.279  10.332   9.147 -0.8713 -0.3985  0.1106
61802SOL    HW197385  11.237  10.247   9.155 -0.9218 -0.5450 -1.4768
61802SOL    HW297386  11.352  10.328   9.209 -0.7649 -1.6634 -0.0715
61803SOL     OW97387   8.561  11.261  11.315 -1.0104 -0.8623 -0.0180
61803SOL    HW197388   8.570  11.198  11.386 -1.7814 -0.8096  0.1307
61803SOL    HW297389   8.638  11.317  11.322 -0.0037 -2.1236 -0.4979
61804SOL     OW97390  13.893  13.754  13.268  0.1525 -0.0876 -0.7488
61804SOL    HW197391  13.868  13.824  13.329  1.7322 -0.2342  0.1396
61804SOL    HW297392  13.989  13.758  13.266  0.1857 -0.9941 -2.1873
61805SOL     OW97393  13.177   8.352   3.306  0.2345 -0.0827  0.5840
61805SOL    HW197394  13.190   8.430   3.253  0.7587 -0.0646  0.7286
61805SOL    HW297395  13.262   8.306   3.302 -0.7918 -2.0156 -1.6879
61806SOL     OW97396   1.506   9.747   4.381  0.0771  0.3743  0.1241
61806SOL    HW197397   1.495   9.699   4.299 -1.2068  0.4212  0.2400
61806SOL    HW297398   1.478   9.836   4.360 -1.8679  0.0232  0.9698
61807SOL     OW97399   2.801   8.921   4.348  0.1242 -0.1486  0.4322
61807SOL    HW197400   2.734   8.954   4.408  1.0876  0.8945  0.9889
61807SOL    HW297401   2.877   8.976   4.366  0.3950  0.3256 -1.9222
61808SOL     OW97402   7.246   7.423   1.065 -0.1356 -0.0100  0.0925
61808SOL    HW197403   7.329   7.395   1.025  0.4991 -0.1191  1.4081
61808SOL    HW297404   7.273   7.489   1.130 -1.2905  1.3721 -0.7850
61809SOL     OW97405  12.838   4.912   4.387  0.7425 -0.1017  0.0536
61809SOL    HW197406  12.755   4.887   4.345 -0.0588  1.6037  0.5439
61809SOL    HW297407  12.905   4.893   4.321 -0.3159  0.9884 -1.4096
61810SOL     OW97408  10.490  10.288  11.138  0.1871 -0.2439  0.1147
61810SOL    HW197409  10.430  10.339  11.083 -0.4931 -0.1620  0.9221
61810SOL    HW297410  10.509  10.209  11.087 -0.3340 -0.1121 -0.2862
61811SOL     OW97411   5.604   8.420  13.143 -0.5676  0.4530  0.6503
61811SOL    HW197412   5.542   8.479  13.185  0.1579  0.5447  1.6447
61811SOL    HW297413   5.575   8.414  13.052 -2.7758 -0.5237  1.3592
61812SOL     OW97414   6.755   0.522   8.506 -0.2602 -0.0702  0.5219
61812SOL    HW197415   6.676   0.545   8.554  0.1181 -1.0530  1.6614
61812SOL    HW297416   6.745   0.429   8.485  0.2085  0.0056 -0.0974
61813SOL     OW97417   5.191   0.734  10.626  0.0746  0.3375 -0.0237
61813SOL    HW197418   5.280   0.732  10.662 -1.1527 -0.2076  3.3494
61813SOL    HW297419   5.166   0.642  10.620 -0.2276  0.4786 -1.1932
61814SOL     OW97420   0.640   3.660   0.790 -0.0471 -0.6704 -0.3436
61814SOL    HW197421   0.713   3.719   0.810 -0.4197 -0.6549  1.0915
61814SOL    HW297422   0.632   3.604   0.867 -3.3845  1.2487  0.9469
61815SOL     OW97423   3.826   1.829   4.736  0.3280 -0.0522 -0.0496
61815SOL    HW197424   3.768   1.900   4.710  1.4470  0.5741 -0.9541
61815SOL    HW297425   3.914   1.862   4.718  0.9068 -1.4624  0.0140
61816SOL     OW97426   2.227   0.820   3.424 -0.3224  0.1547 -0.1779
61816SOL    HW197427   2.271   0.904   3.431  1.2500 -0.5985 -0.7125
61816SOL    HW297428   2.265   0.767   3.494  0.9179 -1.0396 -1.6768
61817SOL     OW97429   7.719   2.759   4.758  0.3197  0.0141 -0.2978
61817SOL    HW197430   7.668   2.831   4.720  2.9151  1.7745 -0.7253
61817SOL    HW297431   7.699   2.764   4.852 -0.0809  0.8657 -0.4117
61818SOL     OW97432   2.461   4.763  11.600  0.5230 -0.0352  0.4204
61818SOL    HW197433   2.548   4.803  11.595  0.1409  0.7196 -0.8114
61818SOL    HW297434   2.462   4.696  11.532 -0.1174  0.5558 -0.1934
61819SOL     OW97435   4.521   3.829   7.887  0.0581 -0.2317 -0.3182
61819SOL    HW197436   4.605   3.807   7.928 -0.2333 -1.1111 -0.1726
61819SOL    HW297437   4.545   3.886   7.814  0.5507  1.6969  1.2639
61820SOL     OW97438  12.655   6.590  11.812 -0.0224 -0.3067 -0.3608
61820SOL    HW197439  12.701   6.507  11.810 -0.1576 -0.3630 -1.6715
61820SOL    HW297440  12.674   6.631  11.728 -1.7823 -0.0297 -0.6708
61821SOL     OW97441   8.483   1.094   0.503  0.2573  0.3125 -0.2523
61821SOL    HW197442   8.472   1.081   0.597  0.8791  0.5528 -0.1396
61821SOL    HW297443   8.573   1.064   0.485 -0.9749 -3.2268 -1.4188
61822SOL     OW97444   8.951   9.017   2.342  0.6452  0.2965  0.4092
61822SOL    HW197445   9.041   9.028   2.313  0.6222 -0.9929 -0.2125
61822SOL    HW297446   8.900   9.075   2.286  0.8459 -0.5894 -0.7067
61823SOL     OW97447  10.830  13.564  12.817 -0.1194 -0.3972 -0.6533
61823SOL    HW197448  10.783  13.481  12.816 -0.1883 -0.3620 -2.1382
61823SOL    HW297449  10.866  13.572  12.729 -0.4749  1.3575 -0.6653
61824SOL     OW97450   3.727   5.816   8.797 -0.1565  0.1685  0.4815
61824SOL    HW197451   3.714   5.845   8.707 -1.8775  0.7271  0.8642
61824SOL    HW297452   3.778   5.885   8.838  0.7557 -0.1564 -0.0911
61825SOL     OW97453   3.236  10.169   0.632  0.0468  0.3644 -0.1308
61825SOL    HW197454   3.151  10.136   0.600  0.9750 -2.1592 -0.2028
61825SOL    HW297455   3.214  10.218   0.711 -1.2834 -2.9077  1.7104
61826SOL     OW97456   2.577  13.773  11.212  0.2548  0.0722 -0.6195
61826SOL    HW197457   2.606  13.853  11.255  2.1327  0.6613 -2.7755
61826SOL    HW297458   2.507  13.801  11.153 -1.9681 -0.6488  1.5149
61827SOL     OW97459   5.248  11.227  11.668  0.1041 -0.3921 -1.1186
61827SOL    HW197460   5.341  11.214  11.686 -0.0939 -1.6873 -0.9225
61827SOL    HW297461   5.225  11.156  11.607 -0.8638 -0.4238 -0.7376
61828SOL     OW97462   4.439  12.508   8.578  0.0704 -0.2061  0.5626
61828SOL    HW197463   4.439  12.472   8.489 -0.1023  0.2161  0.3921
61828SOL    HW297464   4.441  12.430   8.634  0.2189 -0.4768  0.1927
61829SOL     OW97465   0.650   2.875   6.770 -0.3785  0.2018  0.1078
61829SOL    HW197466   0.612   2.885   6.858  0.8875 -0.0128  0.7077
61829SOL    HW297467   0.594   2.811   6.727 -0.8780  0.1231  0.8592
61830SOL     OW97468   4.386   6.614   6.625  0.2556  0.6950  0.1905
61830SOL    HW197469   4.378   6.702   6.661  0.4793  0.8744 -0.1935
61830SOL    HW297470   4.447   6.570   6.684  1.6316  1.3806 -0.6533
61831SOL     OW97471  11.747   0.371   1.496  0.0773  0.3504  0.1248
61831SOL    HW197472  11.708   0.458   1.501 -0.4811  0.1922 -1.1552
61831SOL    HW297473  11.836   0.386   1.464 -0.1934  0.4218 -0.6133
61832SOL     OW97474   1.027   0.470   0.761  0.0684 -0.0096  0.1050
61832SOL    HW197475   0.934   0.483   0.746 -0.0877 -2.0370 -1.0647
61832SOL    HW297476   1.067   0.554   0.737 -1.3836  0.6870  0.0042
61833SOL     OW97477   1.828   4.452   6.622  0.0629 -0.4450 -0.7584
61833SOL    HW197478   1.872   4.537   6.614 -0.9741  0.1979  0.1758
61833SOL    HW297479   1.835   4.429   6.715 -3.9129  1.0355  0.0950
61834SOL     OW97480   7.193  11.768   0.168 -0.0432  0.1348  0.0358
61834SOL    HW197481   7.269  11.823   0.185 -0.2459 -0.2032  2.4407
61834SOL    HW297482   7.227  11.696   0.114  0.8817  0.9997 -0.5660
61835SOL     OW97483   7.757   2.216  14.006  0.3923  0.5923 -0.0404
61835SOL    HW197484   7.841   2.259  14.025  0.8745 -0.0685 -0.6171
61835SOL    HW297485   7.780   2.145  13.946 -0.2074 -1.2294  1.7752
61836SOL     OW97486   7.965   9.637   3.915 -0.7520 -0.5453  0.1201
61836SOL    HW197487   7.900   9.567   3.927 -0.2192 -1.4731 -1.9196
61836SOL    HW297488   8.045   9.590   3.893 -0.2592  0.6982 -0.8213
61837SOL     OW97489  13.090   0.507   1.790 -0.3582  0.2213 -0.0218
61837SOL    HW197490  13.168   0.507   1.734 -2.2708  0.1765 -2.9441
61837SOL    HW297491  13.041   0.585   1.763 -0.9199  0.7759  2.4070
61838SOL     OW97492   3.354  12.189  14.044 -0.4666 -0.3228 -0.4042
61838SOL    HW197493   3.437  12.236  14.041 -0.9009  0.4479 -0.9656
61838SOL    HW297494   3.373  12.108  14.091  0.8031 -0.5629 -1.2652
61839SOL     OW97495   8.331   8.109  13.881 -0.0388 -0.4972  0.1306
61839SOL    HW197496   8.349   8.146  13.968 -1.3677 -2.7664  1.4821
61839SOL    HW297497   8.373   8.023  13.883  0.2620 -0.4187 -1.6707
61840SOL     OW97498  10.447   7.049   1.198  0.6977 -0.9060 -0.2021
61840SOL    HW197499  10.410   7.128   1.239 -0.9815 -1.6848 -0.1243
61840SOL    HW297500  10.420   6.978   1.255  1.1953 -1.6625 -0.8945
61841SOL     OW97501   5.805   3.452   0.967  0.7964 -0.2947  0.2704
61841SOL    HW197502   5.807   3.364   0.929  1.2733 -0.4349  0.6079
61841SOL    HW297503   5.711   3.471   0.979  0.5511  0.3129 -2.2011
61842SOL     OW97504   1.037   2.249   9.188 -0.0722  0.2603  0.1023
61842SOL    HW197505   0.966   2.305   9.156 -1.2344 -0.5429  1.1744
61842SOL    HW297506   1.110   2.309   9.203 -0.9187  1.3006  0.1586
61843SOL     OW97507   0.960  12.710  10.642  0.3440  0.2271  0.2474
61843SOL    HW197508   0.984  12.617  10.635  1.4094  0.4108  1.2175
61843SOL    HW297509   0.876  12.709  10.689 -0.0859 -0.2790 -0.5120
61844SOL     OW97510  12.172   3.794   4.618  0.2323 -0.3090  0.2547
61844SOL    HW197511  12.094   3.742   4.599  0.0622  0.4443 -1.2701
61844SOL    HW297512  12.144   3.854   4.688 -1.2214  1.2759 -1.5670
61845SOL     OW97513   1.282  11.741   3.940  0.0658  0.8350 -0.5963
61845SOL    HW197514   1.233  11.741   4.022  0.6328  1.2747 -0.2437
61845SOL    HW297515   1.264  11.656   3.900  0.2531  0.3822  0.2702
61846SOL     OW97516   5.072   7.947  10.453  0.1820 -0.1831  0.1374
61846SOL    HW197517   5.006   8.006  10.488  0.1688  0.2190 -0.5456
61846SOL    HW297518   5.151   7.965  10.504 -0.0662 -0.2182  0.5316
61847SOL     OW97519   6.789   7.997  12.144  0.1473 -0.2518  0.2882
61847SOL    HW197520   6.860   8.003  12.208  0.2304 -1.2776  0.3065
61847SOL    HW297521   6.718   7.953  12.190 -0.0675 -0.3081 -0.0944
61848SOL     OW97522   0.550  10.654   8.890  0.7346 -0.2374  0.3773
61848SOL    HW197523   0.504  10.732   8.919  1.6275  0.2790  0.4539
61848SOL    HW297524   0.600  10.682   8.814  0.4292 -0.9456 -0.0979
61849SOL     OW97525   0.338   1.561   1.438 -0.4207 -0.0013  0.6962
61849SOL    HW197526   0.318   1.600   1.523 -0.1414 -0.4095  0.9551
61849SOL    HW297527   0.341   1.635   1.377 -2.0873  0.1558  0.7567
61850SOL     OW97528  11.725   4.473   3.978 -0.6009 -0.5660  0.0330
61850SOL    HW197529  11.748   4.561   4.008 -2.9046 -0.3265  1.3500
61850SOL    HW297530  11.806   4.438   3.941  0.5418  1.8574  0.0515
61851SOL     OW97531  13.420   7.695  10.107 -0.1152  0.4048 -0.0584
61851SOL    HW197532  13.386   7.606  10.119 -0.9513  0.5946 -0.8475
61851SOL    HW297533  13.417   7.734  10.194 -1.7688  0.3345 -0.0563
61852SOL     OW97534   9.438   6.151  10.370 -0.0985  0.0692  0.2174
61852SOL    HW197535   9.385   6.159  10.291  0.8836  1.5272 -0.3280
61852SOL    HW297536   9.469   6.239  10.388 -0.0212 -0.2948  2.0571
61853SOL     OW97537   3.726   0.634   8.258  0.3422 -0.1219  0.0938
61853SOL    HW197538   3.759   0.617   8.346 -0.2199 -0.9255  0.1587
61853SOL    HW297539   3.676   0.556   8.236 -1.8030  1.1755  0.1240
61854SOL     OW97540   2.211  13.837   0.335 -0.4715  0.7335  0.3122
61854SOL    HW197541   2.181  13.784   0.409  0.7483  0.5894  0.7313
61854SOL    HW297542   2.177  13.793   0.257 -0.7220  0.1788  0.7385
61855SOL     OW97543  11.241  13.955   2.252 -0.2299 -0.1658 -0.4169
61855SOL    HW197544  11.330  13.932   2.225  0.1226  0.3147  0.3077
61855SOL    HW297545  11.242  13.947   2.347 -0.5016  1.3798 -0.2592
61856SOL     OW97546   6.305   1.471   4.211 -0.0229  0.6494  0.3023
61856SOL    HW197547   6.232   1.495   4.154 -0.4269 -1.0250  0.0824
61856SOL    HW297548   6.371   1.435   4.153  0.1057  0.1711  0.7347
61857SOL     OW97549   8.414   0.923   7.831 -0.0586  0.2035  0.3618
61857SOL    HW197550   8.323   0.948   7.817  0.2622  1.3147  0.1487
61857SOL    HW297551   8.431   0.945   7.923  0.4445  1.5729 -0.0287
61858SOL     OW97552   2.786   6.370   4.714  0.2139  0.2428 -0.5291
61858SOL    HW197553   2.879   6.348   4.720  0.9050  2.5346 -1.6178
61858SOL    HW297554   2.779   6.424   4.635 -2.1604 -0.3330 -0.7889
61859SOL     OW97555   0.682   0.397   4.537 -0.3572 -0.5611 -0.3374
61859SOL    HW197556   0.594   0.358   4.536 -1.0648  0.9384  0.7851
61859SOL    HW297557   0.731   0.343   4.600 -0.6133 -1.0754 -0.5681
61860SOL     OW97558   3.680   8.230   5.111 -0.4261 -0.4313 -0.5233
61860SOL    HW197559   3.616   8.208   5.044 -1.8689  0.6483  0.4385
61860SOL    HW297560   3.669   8.324   5.125  3.6945  0.6224 -2.6623
61861SOL     OW97561  10.561  12.455  10.626  0.0491 -0.5352 -0.1604
61861SOL    HW197562  10.483  12.402  10.643 -0.8317  0.5250 -0.7993
61861SOL    HW297563  10.550  12.487  10.536  1.2955 -0.4783 -0.3174
61862SOL     OW97564   2.468   5.782   2.819  0.7615  0.4139 -0.0618
61862SOL    HW197565   2.375   5.771   2.838  0.8230  1.5904  1.0642
61862SOL    HW297566   2.489   5.868   2.854  2.6284 -0.4686  1.1364
61863SOL     OW97567   2.903   1.958   4.880 -0.0799  0.0710 -0.0932
61863SOL    HW197568   2.954   2.038   4.887  0.7882 -0.5057  0.3069
61863SOL    HW297569   2.812   1.988   4.870 -0.1284  1.1177  2.6720
61864SOL     OW97570  10.821   9.237  12.682 -0.2319 -0.1221  0.1178
61864SOL    HW197571  10.759   9.213  12.752 -0.1505 -2.3895 -0.5122
61864SOL    HW297572  10.765   9.258  12.607 -0.2793  0.2091  0.2456
61865SOL     OW97573   7.718   3.398   1.931 -0.4662 -0.0661  0.2445
61865SOL    HW197574   7.707   3.435   1.844 -1.1588 -0.2145  0.2629
61865SOL    HW297575   7.810   3.370   1.935 -0.4576 -0.1402 -0.4636
61866SOL     OW97576   5.203   6.446  11.223  0.2190 -0.3057  0.3161
61866SOL    HW197577   5.125   6.501  11.230  0.9477  0.8663 -0.4580
61866SOL    HW297578   5.175   6.373  11.167  0.8295  2.5499 -4.2438
61867SOL     OW97579   7.047  13.591   2.125  0.1037 -0.2142  0.1234
61867SOL    HW197580   7.118  13.647   2.157  0.0623 -0.9227  1.5494
61867SOL    HW297581   6.990  13.650   2.075  2.4389  0.1116 -2.4349
61868SOL     OW97582   7.856   2.314  12.111 -0.5659 -0.2926  0.1698
61868SOL    HW197583   7.871   2.269  12.028  2.8541  1.3987 -0.3025
61868SOL    HW297584   7.761   2.328  12.114 -0.8175 -0.2319 -3.5624
61869SOL     OW97585   2.547  12.219   3.253  0.7135  0.1957 -0.0040
61869SOL    HW197586   2.590  12.139   3.281  0.8097  0.0420 -0.5691
61869SOL    HW297587   2.522  12.202   3.162 -0.5439  0.2802  0.3088
61870SOL     OW97588  13.145  13.596  11.608  0.4339  0.0006  0.1917
61870SOL    HW197589  13.208  13.668  11.614  0.4738  0.1601 -1.7089
61870SOL    HW297590  13.175  13.533  11.674  0.1710  1.8483  2.1852
61871SOL     OW97591   2.087   7.630   2.671 -0.0006  0.6100 -0.0630
61871SOL    HW197592   2.105   7.582   2.752  1.2409  1.8420  0.4355
61871SOL    HW297593   2.089   7.722   2.697 -1.1192  0.9894 -1.2249
61872SOL     OW97594   9.708   2.332   6.530 -0.0684 -0.2005  0.3550
61872SOL    HW197595   9.660   2.405   6.570  0.1066  0.0903  0.0409
61872SOL    HW297596   9.751   2.371   6.454 -1.0718 -0.9141 -0.6128
61873SOL     OW97597   9.672   2.631   1.981 -0.3339  0.2222 -0.0323
61873SOL    HW197598   9.577   2.645   1.984 -0.3050  0.3068  0.5208
61873SOL    HW297599   9.704   2.668   2.063  0.1825  0.2135 -0.2293
61874SOL     OW97600   2.843   9.798  10.689  0.3501 -0.8560 -0.2455
61874SOL    HW197601   2.832   9.797  10.784  0.5565  0.9379 -0.1647
61874SOL    HW297602   2.857   9.890  10.668 -2.3472 -0.8199 -2.3409
61875SOL     OW97603  10.903   3.251   7.800  0.1342 -0.6351 -0.0675
61875SOL    HW197604  10.810   3.227   7.805 -0.2283  0.0839 -2.2395
61875SOL    HW297605  10.903   3.345   7.785  1.3210 -0.3228  1.6060
61876SOL     OW97606   9.531  10.943   7.537 -0.3152 -0.1480 -0.2438
61876SOL    HW197607   9.557  11.014   7.596 -0.0356  0.5721 -1.2262
61876SOL    HW297608   9.488  10.880   7.595 -0.7470  0.8982  0.6228
61877SOL     OW97609  10.901   0.828   0.052  0.3517 -0.1132  0.2260
61877SOL    HW197610  10.881   0.921   0.042  1.2201 -0.1468 -2.3985
61877SOL    HW297611  10.898   0.813   0.147  0.1171  2.5505  0.7052
61878SOL     OW97612   4.181   6.280   0.968  0.0818  0.4576  0.0278
61878SOL    HW197613   4.149   6.288   0.879 -0.4984  0.0725  0.1952
61878SOL    HW297614   4.103   6.270   1.022  0.4085  1.0063  0.6207
61879SOL     OW97615   0.986   3.170  12.165 -0.0139 -0.3398  0.0607
61879SOL    HW197616   0.900   3.139  12.135  1.2902 -1.8515 -2.5128
61879SOL    HW297617   0.966   3.233  12.234 -3.1236 -1.6789  0.5582
61880SOL     OW97618   7.480   6.229  12.702 -0.2666  1.1415 -0.1559
61880SOL    HW197619   7.426   6.303  12.730 -2.1584  0.2321 -1.1730
61880SOL    HW297620   7.430   6.152  12.729 -0.0600  0.2613 -2.1066
61881SOL     OW97621   6.297   6.925   8.660  0.1876  0.2309 -1.0234
61881SOL    HW197622   6.299   6.984   8.736  0.1425  0.0541 -0.8853
61881SOL    HW297623   6.212   6.940   8.620 -0.8483 -1.4708  0.3857
61882SOL     OW97624   7.783   8.626   5.241  0.4939 -0.2221  0.6942
61882SOL    HW197625   7.842   8.674   5.184  0.4279  0.6573  1.3480
61882SOL    HW297626   7.836   8.555   5.277  0.0952 -1.9049 -1.7869
61883SOL     OW97627  12.205   6.022   6.419  0.1563 -0.0154 -0.0627
61883SOL    HW197628  12.250   6.015   6.503 -0.9691  0.0437  0.5631
61883SOL    HW297629  12.248   6.095   6.375 -0.0968  0.8203  1.0278
61884SOL     OW97630   2.133   5.638  12.737 -0.2291  0.2281  0.5508
61884SOL    HW197631   2.114   5.693  12.662 -0.1890 -0.1985  0.2240
61884SOL    HW297632   2.049   5.628  12.782 -0.7503 -1.3482 -0.6837
61885SOL     OW97633   9.441   6.308   2.896 -0.4952  0.7229 -0.6185
61885SOL    HW197634   9.368   6.247   2.907  0.4748 -0.3064  0.4600
61885SOL    HW297635   9.419   6.359   2.818 -1.6878 -0.5192 -1.1267
61886SOL     OW97636   2.255   4.946  12.115  0.4840  0.4322 -0.3713
61886SOL    HW197637   2.307   5.024  12.134  1.7037 -0.3446 -0.4234
61886SOL    HW297638   2.313   4.873  12.134 -1.0208 -0.5100  0.8128
61887SOL     OW97639   3.413  12.763   0.083 -0.5583 -0.3899  0.2799
61887SOL    HW197640   3.464  12.842   0.100 -0.8502 -0.2331  0.4279
61887SOL    HW297641   3.450  12.697   0.142 -1.4593  0.1038  1.4266
61888SOL     OW97642   7.084   8.337   4.588 -0.1307  0.2466  0.2857
61888SOL    HW197643   6.989   8.331   4.601 -0.1268  0.7918  0.5828
61888SOL    HW297644   7.097   8.420   4.542 -0.0601 -1.1446 -2.4347
61889SOL     OW97645   0.919   8.681  12.892 -0.4164 -0.5851 -0.1790
61889SOL    HW197646   0.977   8.697  12.818 -1.0369 -2.4762 -1.1446
61889SOL    HW297647   0.976   8.681  12.968  0.7890 -1.7692 -1.0333
61890SOL     OW97648   3.361   2.547   7.563 -0.4304 -0.0674 -0.2644
61890SOL    HW197649   3.374   2.538   7.469 -1.9855 -0.5322 -0.4493
61890SOL    HW297650   3.419   2.620   7.588  2.0853 -1.6647 -1.0595
61891SOL     OW97651   1.249   2.020   4.296 -0.1426 -0.3423  0.1613
61891SOL    HW197652   1.217   2.098   4.340  0.3588 -0.2916  0.4479
61891SOL    HW297653   1.343   2.036   4.285  0.1614 -1.3497  1.1675
61892SOL     OW97654  10.502   1.015   3.535  0.3919 -0.1200 -0.0354
61892SOL    HW197655  10.504   0.955   3.610 -1.3785  0.4330  0.5110
61892SOL    HW297656  10.457   1.093   3.569 -0.9738 -0.0810 -1.8305
61893SOL     OW97657   6.931   4.629   0.203  0.0218  0.0957  0.5014
61893SOL    HW197658   7.003   4.687   0.179  0.0817 -0.5973 -1.1321
61893SOL    HW297659   6.858   4.657   0.148 -0.5691 -0.0731  1.1835
61894SOL     OW97660   2.554   9.274   8.933 -0.5532 -0.1878 -0.0813
61894SOL    HW197661   2.475   9.269   8.987 -1.8604  2.4663 -1.5277
61894SOL    HW297662   2.528   9.326   8.857  2.6826  1.1593 -0.4582
61895SOL     OW97663   6.877   3.878   8.174  0.1294 -0.0955 -0.1787
61895SOL    HW197664   6.840   3.964   8.153  1.9250  1.1294  1.2506
61895SOL    HW297665   6.802   3.825   8.201 -1.0419  0.9494 -1.2456
61896SOL     OW97666   1.315   2.939   7.380  0.0641 -0.1098 -0.0314
61896SOL    HW197667   1.309   2.998   7.304 -1.3126 -0.9873 -0.6324
61896SOL    HW297668   1.394   2.888   7.363 -0.0987 -0.1360 -0.7762
61897SOL     OW97669   2.156   2.723   7.601 -0.0155 -0.9316 -0.7035
61897SOL    HW197670   2.136   2.814   7.580 -2.4165 -1.2414 -0.0471
61897SOL    HW297671   2.174   2.724   7.695  0.7506 -1.0265 -0.8450
61898SOL     OW97672   9.386  13.571  13.248 -0.1563  0.1830  1.3310
61898SOL    HW197673   9.409  13.480  13.228  1.2533  0.5670  1.1156
61898SOL    HW297674   9.401  13.618  13.165 -2.1971  0.3999  1.0426
61899SOL     OW97675   9.177   5.179   3.023 -0.4569  0.1145  0.2324
61899SOL    HW197676   9.273   5.172   3.019 -0.3762  1.5961 -1.5537
61899SOL    HW297677   9.161   5.232   3.101  0.1740  0.0160  0.4407
61900SOL     OW97678   0.540   9.060   8.848 -0.1453 -0.4263  0.0452
61900SOL    HW197679   0.540   9.083   8.941 -2.1470  0.5125 -0.1429
61900SOL    HW297680   0.618   9.104   8.813 -1.3634  2.4173  0.6247
61901SOL     OW97681   1.143   6.790   7.836 -0.0949  0.5749 -0.0880
61901SOL    HW197682   1.194   6.838   7.902  0.2913  0.2249 -0.1306
61901SOL    HW297683   1.106   6.716   7.885  1.6102 -0.6882 -0.6116
61902SOL     OW97684   7.132   1.905   7.061 -0.3476 -0.5817  0.3475
61902SOL    HW197685   7.072   1.948   7.000 -1.1310 -1.8767  0.1500
61902SOL    HW297686   7.082   1.830   7.094  1.4644 -2.2394 -0.5205
61903SOL     OW97687   2.404   9.074   5.009 -1.1373  0.0424  0.2401
61903SOL    HW197688   2.423   9.022   4.931 -0.0002  0.9361 -0.1007
61903SOL    HW297689   2.384   9.162   4.975  2.2449  1.2735  0.9976
61904SOL     OW97690   8.552   5.201  10.606 -1.1416 -0.3275 -0.2385
61904SOL    HW197691   8.551   5.115  10.647 -0.5723  0.1314  0.7956
61904SOL    HW297692   8.487   5.196  10.536 -2.0835 -1.1886  0.6714
61905SOL     OW97693  10.727   2.527   5.948  0.0233  0.1112 -0.4063
61905SOL    HW197694  10.751   2.555   5.859  0.4006  0.7929 -0.0981
61905SOL    HW297695  10.801   2.554   6.002 -0.1366 -0.4420  0.0960
61906SOL     OW97696  12.536   6.521   3.163 -0.2843 -0.1986  0.0413
61906SOL    HW197697  12.537   6.425   3.165 -0.8834 -0.1925  0.9098
61906SOL    HW297698  12.502   6.542   3.076 -0.9875 -0.7841  0.1628
61907SOL     OW97699   6.122  11.885   0.103 -0.0410 -0.1966 -0.2289
61907SOL    HW197700   6.148  11.912   0.015  3.3778  1.7188  1.1701
61907SOL    HW297701   6.174  11.807   0.120  0.8337  0.5622  0.7148
61908SOL     OW97702  11.565   5.726   5.589 -0.1674 -0.0905 -0.4884
61908SOL    HW197703  11.529   5.814   5.579 -0.2510  0.0081  0.5972
61908SOL    HW297704  11.547   5.684   5.505 -0.0174  0.9591 -1.0624
61909SOL     OW97705   8.853   8.267   5.907  0.1497  0.3731 -0.0540
61909SOL    HW197706   8.806   8.340   5.868 -0.3601  0.7574  1.2224
61909SOL    HW297707   8.868   8.294   5.998  2.2403 -0.0255 -0.2280
61910SOL     OW97708  10.844   7.534   8.672  0.3929 -0.2353  0.7816
61910SOL    HW197709  10.920   7.549   8.616 -1.4043  2.4452 -1.2225
61910SOL    HW297710  10.822   7.442   8.659  3.3302 -1.1556  1.6331
61911SOL     OW97711   3.115   0.497   2.168 -0.2001  0.0851 -0.0258
61911SOL    HW197712   3.052   0.453   2.110 -0.4452  1.0926 -0.5311
61911SOL    HW297713   3.067   0.510   2.250 -1.1053  1.9719 -0.8088
61912SOL     OW97714   2.421   3.657  13.179 -0.1989  0.8050  0.4860
61912SOL    HW197715   2.466   3.716  13.119 -0.5543  1.5774  0.9631
61912SOL    HW297716   2.329   3.683  13.173 -0.5873 -0.6850 -0.3986
61913SOL     OW97717   5.087   2.351   5.136  0.6665 -0.9523 -0.3953
61913SOL    HW197718   5.098   2.325   5.228 -1.9843  0.6158  0.4796
61913SOL    HW297719   5.145   2.426   5.126  1.2307 -1.3434 -0.1213
61914SOL     OW97720   7.025   9.038   6.958  0.2811 -0.0846  0.3074
61914SOL    HW197721   7.078   8.960   6.972  0.0923 -0.3300 -0.3343
61914SOL    HW297722   7.082   9.111   6.982 -0.0400 -0.4625  2.4277
61915SOL     OW97723  10.606   9.107  10.104  0.4764 -0.2098  0.2396
61915SOL    HW197724  10.624   9.175  10.039  0.7778 -0.7332 -0.2321
61915SOL    HW297725  10.632   9.146  10.188 -1.4638  1.0988  0.3085
61916SOL     OW97726   7.477   7.106   1.131  0.0478  0.5558  0.2770
61916SOL    HW197727   7.477   7.123   1.037  1.3152  0.3917  0.2294
61916SOL    HW297728   7.390   7.071   1.149 -0.1142  0.3193 -0.8926
61917SOL     OW97729  10.047  14.029   6.463 -0.2098 -0.1355 -0.7747
61917SOL    HW197730  10.140  14.051   6.452 -0.5022  0.8962 -1.2189
61917SOL    HW297731  10.000  14.110   6.446 -1.0890  0.0250  1.8495
61918SOL     OW97732   1.928   1.193   5.311 -0.3317  0.1610 -0.2683
61918SOL    HW197733   2.010   1.163   5.273 -1.4752 -2.0220 -1.1840
61918SOL    HW297734   1.905   1.270   5.259  0.9673  0.6274 -0.1872
61919SOL     OW97735   4.892   5.181   1.380  0.2427  0.3778  0.4301
61919SOL    HW197736   4.884   5.215   1.291 -0.4670 -1.2428 -0.1590
61919SOL    HW297737   4.948   5.105   1.372 -1.7907 -1.2590  0.8977
61920SOL     OW97738   4.983   2.447   3.694 -0.2446 -0.3135 -0.1951
61920SOL    HW197739   5.065   2.494   3.682 -0.8589  0.7643 -0.3622
61920SOL    HW297740   4.964   2.407   3.609  1.1795 -2.4432  0.4111
61921SOL     OW97741   6.707   8.980   4.324 -0.3846 -0.3096  0.1639
61921SOL    HW197742   6.658   8.939   4.253 -0.5119 -2.6270  1.5189
61921SOL    HW297743   6.679   9.072   4.323  0.9477  0.2516 -3.8847
61922SOL     OW97744  11.369   1.657   9.983 -0.1058 -0.0349 -0.0597
61922SOL    HW197745  11.332   1.711  10.053  0.3515  0.3571 -0.1157
61922SOL    HW297746  11.322   1.686   9.904  0.6380  0.8016 -0.2117
61923SOL     OW97747  10.101   3.279   2.469  0.3400  0.6562 -0.1467
61923SOL    HW197748  10.067   3.368   2.481  1.4517  0.9337  1.1577
61923SOL    HW297749  10.022   3.225   2.458 -0.3199  1.9321 -2.2886
61924SOL     OW97750   3.368   9.116  11.489 -0.3438  0.4611  0.4858
61924SOL    HW197751   3.350   9.074  11.573  0.3806  0.2489  0.5458
61924SOL    HW297752   3.294   9.175  11.474 -2.2708 -2.0494 -0.4139
61925SOL     OW97753   3.828  13.201  12.893  0.3989 -0.0578  0.2374
61925SOL    HW197754   3.922  13.185  12.896  0.6348  1.0253 -0.6497
61925SOL    HW297755   3.808  13.243  12.977  0.2793 -2.2368  1.3638
61926SOL     OW97756  11.338  11.131   1.288 -0.0862  0.4160 -0.2513
61926SOL    HW197757  11.361  11.102   1.199 -0.9188 -0.0788 -0.3219
61926SOL    HW297758  11.243  11.131   1.289 -0.1002 -0.5452  0.9385
61927SOL     OW97759   2.840   4.136   8.545  0.8404 -0.2524  0.4875
61927SOL    HW197760   2.811   4.202   8.482  1.4713 -0.4798 -0.0506
61927SOL    HW297761   2.799   4.162   8.628 -1.6528 -1.0752 -0.4092
61928SOL     OW97762   9.572   1.148   3.217  0.0807 -0.0804  0.2428
61928SOL    HW197763   9.635   1.089   3.260  0.4993 -0.0615 -0.3370
61928SOL    HW297764   9.508   1.090   3.177 -1.0493 -0.0843  1.9455
61929SOL     OW97765   2.831   0.834   5.002 -0.2377 -0.5480 -0.6325
61929SOL    HW197766   2.796   0.774   4.936  1.6701 -1.3740 -0.9604
61929SOL    HW297767   2.914   0.865   4.966  0.1996  0.0411  0.7856
61930SOL     OW97768   8.487  13.499  13.468 -0.3929 -0.1721  0.1119
61930SOL    HW197769   8.579  13.524  13.475  0.3448 -1.8481 -2.2461
61930SOL    HW297770   8.475  13.428  13.531  0.7969 -1.9187 -1.5146
61931SOL     OW97771  14.024   4.732   3.245 -0.6790  0.5653  0.8980
61931SOL    HW197772  14.077   4.768   3.317  1.1888  3.4335 -1.6334
61931SOL    HW297773  13.942   4.782   3.249 -0.3827  1.0743  0.7803
61932SOL     OW97774  10.998   6.519   0.998  0.0359 -0.0951 -0.5789
61932SOL    HW197775  11.031   6.474   0.920  1.1054  1.9112 -1.3391
61932SOL    HW297776  11.048   6.600   1.002 -0.4880  0.1856  1.8213
61933SOL     OW97777   2.805   0.792   4.583 -0.3318  0.4530  0.2469
61933SOL    HW197778   2.885   0.743   4.601 -0.5202 -0.1345 -0.4608
61933SOL    HW297779   2.825   0.882   4.610  0.6582  0.3781 -0.1992
61934SOL     OW97780  12.461   4.194   3.815  0.2350  0.0581 -0.1841
61934SOL    HW197781  12.498   4.111   3.785  0.9522  0.1771  0.3558
61934SOL    HW297782  12.437   4.240   3.734 -0.2396 -0.6974 -0.4866
61935SOL     OW97783  10.084   2.400  13.901 -0.5104 -0.1732  0.2299
61935SOL    HW197784  10.006   2.349  13.924  0.1048 -1.3203 -0.1645
61935SOL    HW297785  10.050   2.474  13.850 -1.2996 -0.9792 -0.4403
61936SOL     OW97786   7.243   8.162   5.899 -0.4564  0.4097  0.0153
61936SOL    HW197787   7.295   8.198   5.826  1.7305 -2.1306  0.1634
61936SOL    HW297788   7.308   8.134   5.963 -2.2262  0.0693  1.7660
61937SOL     OW97789   7.679  12.269   5.605  0.2092  0.1555 -0.3308
61937SOL    HW197790   7.760  12.291   5.560  0.0270  0.5240 -0.4840
61937SOL    HW297791   7.694  12.296   5.696  0.2330  0.2946 -0.3751
61938SOL     OW97792   7.787  12.301  10.697 -0.1052 -0.3230  0.2517
61938SOL    HW197793   7.880  12.283  10.716 -0.1945 -0.9513  0.1127
61938SOL    HW297794   7.789  12.365  10.626  0.2178 -0.2994  0.2784
61939SOL     OW97795  10.567  11.192  10.857  0.1516 -0.2674  0.5816
61939SOL    HW197796  10.619  11.185  10.776 -0.4421 -1.7981  0.2944
61939SOL    HW297797  10.630  11.173  10.927  0.3166 -0.6201  0.3446
61940SOL     OW97798  13.581  10.479  10.167 -0.6114  0.1650 -0.2043
61940SOL    HW197799  13.598  10.548  10.231 -1.0314 -1.5593  1.8766
61940SOL    HW297800  13.642  10.497  10.096  3.4031 -0.4696  2.7647
61941SOL     OW97801  10.865  12.910   1.641 -0.0618  0.4084 -0.0252
61941SOL    HW197802  10.938  12.961   1.679 -0.1499  0.4978  0.0252
61941SOL    HW297803  10.892  12.894   1.551  0.4273 -0.3337  0.2457
61942SOL     OW97804   7.983   0.160   3.849 -0.2801 -0.2532  0.1712
61942SOL    HW197805   7.913   0.167   3.914  0.3052  1.5770  0.6744
61942SOL    HW297806   7.939   0.170   3.765 -0.5899  1.5269  0.5144
61943SOL     OW97807   0.320   5.281   0.447  0.0915  0.1618 -0.1004
61943SOL    HW197808   0.295   5.202   0.495  0.3625 -1.3008 -2.2361
61943SOL    HW297809   0.238   5.330   0.436 -0.3274 -0.4922  0.0807
61944SOL     OW97810  13.952   3.510   2.060 -0.2542  0.0301 -0.5088
61944SOL    HW197811  13.977   3.442   2.123 -1.8157 -1.2522 -1.2322
61944SOL    HW297812  14.035   3.543   2.027  0.6157  0.3878  1.8092
61945SOL     OW97813  12.331   5.828  13.884 -0.0691  0.2744  0.1650
61945SOL    HW197814  12.317   5.838  13.790  0.8950 -0.0046 -0.0187
61945SOL    HW297815  12.293   5.908  13.922 -0.3926  0.4303 -0.4619
61946SOL     OW97816   1.538   8.925   8.415 -0.6239 -0.3896  0.4517
61946SOL    HW197817   1.446   8.902   8.409 -1.1121  0.9489  1.9451
61946SOL    HW297818   1.543   8.987   8.489  1.3455  0.1380 -0.0429
61947SOL     OW97819   6.510  11.963   1.954  0.6267  0.5611  0.3193
61947SOL    HW197820   6.418  11.960   1.928  0.8065 -0.4386 -0.2169
61947SOL    HW297821   6.518  11.898   2.024  0.9140  0.7055  0.4231
61948SOL     OW97822   8.577  11.680  12.740 -0.5626  0.3348  0.4024
61948SOL    HW197823   8.635  11.727  12.681 -0.2166 -1.1779 -0.5187
61948SOL    HW297824   8.491  11.682  12.697 -0.5117  0.0049  0.2814
61949SOL     OW97825   1.202  10.861  13.183  0.2817  0.7749 -0.3407
61949SOL    HW197826   1.283  10.906  13.160  1.0476 -0.8595 -1.0027
61949SOL    HW297827   1.182  10.807  13.106 -0.5729 -0.0425  0.4224
61950SOL     OW97828  10.869   1.762   7.826 -0.3024 -0.4127 -0.0263
61950SOL    HW197829  10.937   1.828   7.813 -0.2359 -0.2378  1.1296
61950SOL    HW297830  10.906   1.681   7.790  0.7270 -0.4295  1.0291
61951SOL     OW97831   2.479   8.968  12.511  0.1604  0.2121 -0.3747
61951SOL    HW197832   2.564   8.930  12.530 -0.6282 -1.6338 -0.2903
61951SOL    HW297833   2.467   9.035  12.578  1.0394 -0.3531  0.3702
61952SOL     OW97834   8.269   1.018   1.079  0.0645  0.9957  0.6576
61952SOL    HW197835   8.340   0.973   1.033 -1.5936 -1.7835  0.5372
61952SOL    HW297836   8.222   1.065   1.010  0.6253  1.1635  0.3905
61953SOL     OW97837   4.913   9.418  11.151  0.2422  1.0234  0.5566
61953SOL    HW197838   4.990   9.463  11.186 -0.0546  0.9492  1.3294
61953SOL    HW297839   4.865   9.389  11.229  0.7820 -1.2646  0.1286
61954SOL     OW97840   2.812   4.766   8.848 -0.2770 -0.5789  0.2279
61954SOL    HW197841   2.823   4.861   8.845  0.6744 -0.5959  1.7391
61954SOL    HW297842   2.719   4.752   8.866 -0.7447 -0.0067 -1.6174
61955SOL     OW97843   3.747  13.511   0.673  0.5050  0.2081 -0.2476
61955SOL    HW197844   3.805  13.540   0.602  0.4920 -0.2264 -0.4410
61955SOL    HW297845   3.799  13.449   0.723  1.5992  2.7458  1.9896
61956SOL     OW97846  11.693   0.198   5.687 -0.1159  0.4813 -0.1196
61956SOL    HW197847  11.724   0.115   5.650 -1.3376  0.3955 -1.0070
61956SOL    HW297848  11.742   0.265   5.640  0.0062  0.3060 -0.2460
61957SOL     OW97849   5.696   4.404  12.862 -0.0485  0.6225  0.1940
61957SOL    HW197850   5.696   4.499  12.852  3.0417  0.7742  0.6588
61957SOL    HW297851   5.765   4.374  12.803 -0.8484 -1.3454  0.1774
61958SOL     OW97852   9.181   1.109   0.219  0.0836  0.4223 -0.1607
61958SOL    HW197853   9.124   1.178   0.253  1.0493  1.4875 -0.6281
61958SOL    HW297854   9.247   1.097   0.287 -0.8311 -1.0285  0.5173
61959SOL     OW97855  12.455   7.831  13.469  0.5608  0.0142 -0.4083
61959SOL    HW197856  12.368   7.793  13.463  1.0001 -1.5637  1.7727
61959SOL    HW297857  12.497   7.809  13.386 -0.5797 -0.6766 -0.8206
61960SOL     OW97858  11.145  12.326   6.775 -0.0427  0.3776  0.2633
61960SOL    HW197859  11.179  12.347   6.688 -1.4976  1.9498  0.0047
61960SOL    HW297860  11.187  12.390   6.833 -0.7772  0.8352  0.3115
61961SOL     OW97861   3.335   5.565   4.826  0.1496  0.3973  0.3394
61961SOL    HW197862   3.349   5.654   4.792 -2.4952  0.2692 -1.3969
61961SOL    HW297863   3.278   5.577   4.902  0.2488  0.2119  0.4439
61962SOL     OW97864  10.229   0.711   0.353 -0.0315 -0.1547  0.5811
61962SOL    HW197865  10.190   0.725   0.267  1.2584 -0.4363 -0.0823
61962SOL    HW297866  10.319   0.745   0.345  0.1780 -0.3770  1.7453
61963SOL     OW97867   1.426   4.517   0.659  0.2529  0.0600 -0.0712
61963SOL    HW197868   1.428   4.609   0.633 -1.0429  0.2984  0.6091
61963SOL    HW297869   1.386   4.471   0.585 -1.0936  0.3704  0.4459
61964SOL     OW97870  10.722  12.830   2.777 -0.1110  0.1517  0.2656
61964SOL    HW197871  10.668  12.779   2.717 -0.0965 -1.6315  1.6740
61964SOL    HW297872  10.805  12.842   2.731 -0.1929 -0.9429 -0.1886
61965SOL     OW97873   8.363   7.414   0.324 -0.0971 -0.0596  0.1810
61965SOL    HW197874   8.324   7.474   0.387 -2.0141 -0.8483 -0.1729
61965SOL    HW297875   8.337   7.327   0.354 -0.5735 -0.4884 -1.3683
61966SOL     OW97876   2.149   5.253   1.517 -0.0842  0.2078 -0.2438
61966SOL    HW197877   2.115   5.245   1.606  2.4155 -0.9261  0.6982
61966SOL    HW297878   2.166   5.164   1.489 -0.0968  0.5993 -1.5908
61967SOL     OW97879   0.320  12.038   9.728  0.0329  0.5869 -0.1676
61967SOL    HW197880   0.410  12.017   9.752 -0.5794 -0.5529  1.2374
61967SOL    HW297881   0.269  12.023   9.807 -1.9969 -2.7699 -1.8681
61968SOL     OW97882   5.104  10.860  13.698  0.2470  0.2008 -0.4241
61968SOL    HW197883   5.140  10.943  13.730  0.4647  0.8131 -2.1443
61968SOL    HW297884   5.015  10.881  13.670  0.3832 -0.0631 -1.0931
61969SOL     OW97885   9.464   1.229   1.609 -0.2223 -0.0974 -0.2746
61969SOL    HW197886   9.540   1.272   1.647  0.2450 -0.9937 -0.1677
61969SOL    HW297887   9.394   1.294   1.616  0.1066  0.1291  1.1948
61970SOL     OW97888   9.372   5.069   7.848 -0.2276  0.4738  0.3882
61970SOL    HW197889   9.371   5.154   7.894  1.7290  1.4022 -1.1149
61970SOL    HW297890   9.404   5.007   7.914 -0.7009  1.1019  1.2257
61971SOL     OW97891   5.645  11.877  11.521  0.7184 -0.1423  0.3126
61971SOL    HW197892   5.733  11.911  11.540  0.2399  1.0532  0.4649
61971SOL    HW297893   5.589  11.954  11.522  0.1508 -0.4074 -2.9637
61972SOL     OW97894   6.789   9.665   8.620  0.2762  0.0203  0.0216
61972SOL    HW197895   6.745   9.633   8.698 -0.1411  1.1021  0.2400
61972SOL    HW297896   6.740   9.627   8.547 -1.4458  1.6632  0.2447
61973SOL     OW97897   3.773   4.148  12.527  0.7117 -0.5613 -0.1982
61973SOL    HW197898   3.817   4.227  12.560 -0.5813  0.5165 -0.9442
61973SOL    HW297899   3.799   4.143  12.435  2.7971 -2.4883  0.4111
61974SOL     OW97900   6.885   1.378  11.622  0.2022  0.3963  0.4308
61974SOL    HW197901   6.941   1.337  11.688 -1.8366 -0.7461  1.5881
61974SOL    HW297902   6.878   1.469  11.649  2.3266  0.8430 -0.3837
61975SOL     OW97903   1.491  11.994  10.940  0.7697  0.2595 -0.2859
61975SOL    HW197904   1.531  12.021  10.856 -1.2069  0.3840 -1.2301
61975SOL    HW297905   1.475  11.901  10.930  1.0595  0.1561  0.1977
61976SOL     OW97906   8.567  10.037   4.038 -0.2072  0.3011 -0.2247
61976SOL    HW197907   8.540  10.034   4.130  0.3782 -1.0172 -0.0727
61976SOL    HW297908   8.644  10.094   4.038  0.7878 -1.0009  0.4015
61977SOL     OW97909   0.970  11.370   4.103 -0.2343  0.3237  0.4771
61977SOL    HW197910   1.042  11.329   4.055 -1.7287 -0.6924 -1.0000
61977SOL    HW297911   1.001  11.459   4.121  0.8939  0.3480 -1.2907
61978SOL     OW97912   3.326  11.910   2.615  0.0351 -0.2170  0.1419
61978SOL    HW197913   3.252  11.900   2.556  1.3285 -1.6978 -1.3519
61978SOL    HW297914   3.376  11.983   2.578  0.6709 -0.9273 -0.4298
61979SOL     OW97915   4.451   2.577  13.752  0.0636 -0.4874 -0.0321
61979SOL    HW197916   4.477   2.509  13.814 -0.6482 -1.5501 -0.8551
61979SOL    HW297917   4.460   2.535  13.666  1.1395  0.9871 -0.6777
61980SOL     OW97918   5.990   8.573   0.460  0.0553 -0.5186 -0.3876
61980SOL    HW197919   6.043   8.634   0.510  0.1176 -0.7730 -0.1384
61980SOL    HW297920   6.040   8.491   0.463  0.9223 -0.1197 -2.3066
61981SOL     OW97921   9.700   8.457   8.276 -0.2604  0.7133  0.6498
61981SOL    HW197922   9.660   8.372   8.290 -0.6378  0.9839  1.2777
61981SOL    HW297923   9.790   8.448   8.307  0.0981  0.1856 -0.4931
61982SOL     OW97924  13.135   7.884   1.639 -0.6233 -0.4667 -0.2172
61982SOL    HW197925  13.051   7.867   1.682 -0.9521  0.0355 -0.6547
61982SOL    HW297926  13.191   7.917   1.709 -0.5787 -1.4153  0.2204
61983SOL     OW97927   1.829   7.223   3.073 -0.7478 -0.0164 -0.3253
61983SOL    HW197928   1.854   7.161   3.005  0.1616  0.6832 -0.6490
61983SOL    HW297929   1.812   7.305   3.025 -2.7083 -0.1892 -0.0057
61984SOL     OW97930   9.935   1.089  11.418 -0.1158  0.1642  0.4332
61984SOL    HW197931   9.961   0.998  11.405 -0.8727  0.0969 -0.7195
61984SOL    HW297932   9.841   1.085  11.435 -0.0726  0.7016  0.8383
61985SOL     OW97933  10.477   3.593   7.395  0.5463  0.0283 -0.0509
61985SOL    HW197934  10.538   3.564   7.462 -0.6844 -1.5686  0.4425
61985SOL    HW297935  10.433   3.670   7.433  0.8259 -0.0351  0.4016
61986SOL     OW97936   1.557   2.488   3.145 -0.0322  0.9011  0.1706
61986SOL    HW197937   1.514   2.413   3.103 -0.2281  1.1901 -0.1499
61986SOL    HW297938   1.500   2.562   3.125  1.3544  1.5812 -1.5373
61987SOL     OW97939   9.335  12.525  12.527 -0.0570  0.3578 -0.2812
61987SOL    HW197940   9.277  12.530  12.604 -0.7549  0.4973 -0.8103
61987SOL    HW297941   9.366  12.434  12.527 -1.5976 -0.2035 -0.9317
61988SOL     OW97942   5.495   7.844   1.270 -0.0164 -0.1017 -0.5571
61988SOL    HW197943   5.432   7.825   1.201  0.0032  0.3138 -0.6917
61988SOL    HW297944   5.445   7.833   1.351 -0.1361 -0.2327 -0.6472
61989SOL     OW97945   4.126  11.045   7.115 -0.1534 -0.6453  0.3652
61989SOL    HW197946   4.147  11.138   7.113 -2.1979 -0.1247  0.5617
61989SOL    HW297947   4.208  11.002   7.139  0.8723  1.0761  0.0868
61990SOL     OW97948   0.022   8.484   1.732  0.1525 -0.4896  0.5629
61990SOL    HW197949   0.006   8.402   1.777 -1.9924 -0.6331 -0.3472
61990SOL    HW297950  -0.050   8.492   1.669  1.2661  1.2374 -0.5957
61991SOL     OW97951   7.132  12.040   3.233 -0.2089  0.1678  0.1783
61991SOL    HW197952   7.200  12.078   3.287  0.5383  1.1216 -1.3614
61991SOL    HW297953   7.179  11.992   3.165 -1.1170 -1.8922  0.8959
61992SOL     OW97954   4.807  11.178  11.717  0.0045 -0.0383  0.8259
61992SOL    HW197955   4.748  11.211  11.784 -0.2134 -0.7582  0.9940
61992SOL    HW297956   4.889  11.225  11.732  1.0985 -2.5640  3.8069
61993SOL     OW97957  13.356   2.745  12.318 -0.3938  0.1114  0.3713
61993SOL    HW197958  13.272   2.752  12.273  0.9638  1.4367 -2.2107
61993SOL    HW297959  13.336   2.760  12.410 -2.9532  0.5647 -0.1993
61994SOL     OW97960  13.942   9.693   4.070 -0.0267  0.4582  0.2584
61994SOL    HW197961  13.918   9.627   4.006 -2.7222  2.1491 -0.6396
61994SOL    HW297962  13.894   9.669   4.149 -0.5747  1.0105  0.1006
61995SOL     OW97963  11.883   0.966   8.744  0.6066 -0.1194  0.2375
61995SOL    HW197964  11.852   1.054   8.720  1.6572  0.2070  0.0130
61995SOL    HW297965  11.810   0.908   8.723  0.2942  0.5688 -0.6505
61996SOL     OW97966  12.362   2.196   9.083 -0.4842 -0.4720 -0.0932
61996SOL    HW197967  12.343   2.138   9.157  0.5093 -1.0307 -0.2518
61996SOL    HW297968  12.299   2.267   9.091 -0.2193 -0.3739  1.4498
61997SOL     OW97969   0.986  10.768   9.953 -0.9980 -0.5464  0.3732
61997SOL    HW197970   1.003  10.675   9.938  0.5778 -0.5910  2.0936
61997SOL    HW297971   0.909  10.769  10.010 -1.8974 -0.7088 -0.8106
61998SOL     OW97972   0.899   8.069  11.218 -0.2319  0.2130 -0.1353
61998SOL    HW197973   0.894   8.109  11.305  0.9029 -0.0879  0.0808
61998SOL    HW297974   0.834   7.999  11.221 -0.9397  0.8604  0.1067
61999SOL     OW97975  11.910  11.636   7.861 -0.4144  0.0149 -0.2740
61999SOL    HW197976  11.974  11.652   7.792  0.2386 -0.7309  0.1459
61999SOL    HW297977  11.829  11.616   7.814  0.6649 -3.3366 -0.9529
62000SOL     OW97978   2.009   7.080   2.474 -0.4364 -0.5651  0.1043
62000SOL    HW197979   2.079   7.133   2.436 -0.4952 -0.0846  0.6460
62000SOL    HW297980   1.999   7.006   2.414 -0.0865 -0.1627 -0.4552
62001SOL     OW97981   6.502  10.884   5.325 -0.1026 -0.3412  0.1086
62001SOL    HW197982   6.561  10.839   5.385  0.8308 -1.2496 -1.4247
62001SOL    HW297983   6.421  10.833   5.326  0.3247 -1.0282 -0.2840
62002SOL     OW97984  10.113   2.103  11.379 -0.1529 -0.2517 -0.3338
62002SOL    HW197985  10.023   2.127  11.400 -0.4755 -1.1789 -0.6301
62002SOL    HW297986  10.126   2.135  11.290  0.5494  1.8483  0.4628
62003SOL     OW97987   0.025   8.238   1.852 -0.2203 -0.3810 -0.5980
62003SOL    HW197988  -0.044   8.182   1.889 -1.5605  0.6610 -1.4043
62003SOL    HW297989   0.080   8.178   1.801 -0.2864 -1.3014  0.3867
62004SOL     OW97990  13.491   4.374   6.239  0.5897 -0.7675 -0.4856
62004SOL    HW197991  13.564   4.313   6.246  0.4381 -1.1201 -1.8470
62004SOL    HW297992  13.415   4.319   6.223  0.3038 -0.2878 -0.7841
62005SOL     OW97993  12.271   9.930   6.494  0.3568 -0.1704  0.5835
62005SOL    HW197994  12.241   9.875   6.567  1.1832 -1.6448 -0.1279
62005SOL    HW297995  12.236   9.887   6.416 -0.9990  1.7033  0.0813
62006SOL     OW97996   5.643   8.277   1.168  0.3260  0.0275 -0.3980
62006SOL    HW197997   5.720   8.334   1.175  0.3285  0.2636 -1.9446
62006SOL    HW297998   5.651   8.217   1.242  3.1064 -1.2728 -1.6166
62007SOL     OW97999   2.581  11.890   7.390  0.0873 -0.0835  0.0762
62007SOL    HW198000   2.615  11.934   7.468 -0.8483 -0.4984  0.7356
62007SOL    HW298001   2.640  11.817   7.375  0.3787  0.1093  0.2822
62008SOL     OW98002   3.030   7.260   0.908  0.2677 -0.0346 -0.1294
62008SOL    HW198003   3.106   7.203   0.922  1.4538  1.0690 -1.7916
62008SOL    HW298004   2.961   7.201   0.876  0.6874 -0.9019  0.5240
62009SOL     OW98005   6.316  12.508   0.903  0.0505  1.2927  0.1337
62009SOL    HW198006   6.405  12.473   0.896 -0.3925 -0.1463  1.3464
62009SOL    HW298007   6.272  12.477   0.824 -0.3341 -0.9883  1.1823
62010SOL     OW98008  13.967   9.548   4.684  0.0501 -0.0199 -0.1476
62010SOL    HW198009  14.026   9.559   4.759 -0.0264 -2.2635  0.3155
62010SOL    HW298010  14.016   9.584   4.610  0.7002  0.9897  0.7469
62011SOL     OW98011  10.410   8.037   1.735  0.5990 -0.0915 -0.1092
62011SOL    HW198012  10.350   8.103   1.770  0.3986  0.7695 -1.9506
62011SOL    HW298013  10.407   7.965   1.799 -0.2111  1.1021  1.2580
62012SOL     OW98014   4.340   6.541  11.026  0.0517 -0.1767  0.4864
62012SOL    HW198015   4.290   6.459  11.021 -0.8784  0.4290 -0.6317
62012SOL    HW298016   4.429   6.514  11.048 -0.6540 -1.3294  2.1184
62013SOL     OW98017   0.225   0.089   9.010  0.1362  0.0217  0.1303
62013SOL    HW198018   0.294   0.056   9.068  0.6381  0.2375 -0.3405
62013SOL    HW298019   0.195   0.011   8.962 -1.3557 -0.4666  1.7452
62014SOL     OW98020   0.262  12.344   1.201 -0.1169 -0.1855  0.1787
62014SOL    HW198021   0.231  12.271   1.147 -1.5741 -0.6865  1.6032
62014SOL    HW298022   0.355  12.324   1.217  0.0512 -0.5948 -1.1669
62015SOL     OW98023   7.810  12.867   3.902  0.5264 -0.0316 -0.3942
62015SOL    HW198024   7.821  12.791   3.958 -0.4091  0.8508  1.0370
62015SOL    HW298025   7.898  12.903   3.892  1.0473 -1.5013 -1.4438
62016SOL     OW98026  11.947   7.911   4.174  0.3106  0.1327  0.1358
62016SOL    HW198027  12.008   7.977   4.205  1.2516 -1.0623  0.9251
62016SOL    HW298028  12.002   7.845   4.133 -0.7743  0.9402 -2.9079
62017SOL     OW98029   6.248  13.972   8.011  0.1506 -0.2244  0.1463
62017SOL    HW198030   6.283  14.054   8.046  2.2988 -1.8571  2.1532
62017SOL    HW298031   6.324  13.929   7.971 -0.6934 -1.6712  0.0256
62018SOL     OW98032   8.909   2.390   3.350 -0.1760  0.0950  0.3965
62018SOL    HW198033   8.981   2.341   3.390 -0.8882 -0.1787  1.3663
62018SOL    HW298034   8.951   2.467   3.311  0.7553 -0.5142  0.1625
62019SOL     OW98035  10.637   2.452   0.147  0.2947 -0.4259 -0.7170
62019SOL    HW198036  10.699   2.385   0.118  0.1405  0.3700 -3.1409
62019SOL    HW298037  10.631   2.513   0.073 -0.1373  1.8742  1.0683
62020SOL     OW98038   1.706   0.970  12.913  0.3750  0.1328  0.0753
62020SOL    HW198039   1.746   0.997  12.996 -1.7745  0.2143  1.1448
62020SOL    HW298040   1.657   1.047  12.884 -0.0340 -0.3545 -0.5502
62021SOL     OW98041   8.677   1.242   9.881  0.2067 -0.0932  0.1444
62021SOL    HW198042   8.639   1.320   9.921 -1.3972 -0.7621  0.0176
62021SOL    HW298043   8.662   1.253   9.788  1.5837  0.2488 -0.0557
62022SOL     OW98044   5.366  11.218   0.188 -0.4822 -0.2670  0.2113
62022SOL    HW198045   5.311  11.140   0.194 -1.6012  0.5710  1.6583
62022SOL    HW298046   5.319  11.284   0.240  2.5530  0.1155  2.7483
62023SOL     OW98047  10.543   0.523  10.036  0.1284 -0.4088  0.0811
62023SOL    HW198048  10.469   0.549   9.980  1.0365 -0.4317 -1.1785
62023SOL    HW298049  10.547   0.591  10.103 -0.4090  0.1658 -0.4531
62024SOL     OW98050  10.479   4.040  10.731  0.2599  0.1226  0.3478
62024SOL    HW198051  10.486   3.946  10.715 -1.0406  0.0542  0.0822
62024SOL    HW298052  10.388   4.053  10.760 -0.7296  1.7470 -2.9837
62025SOL     OW98053   9.276  13.079  14.012  0.2769 -0.4494  0.1154
62025SOL    HW198054   9.298  12.989  14.037 -0.0972 -0.1647  1.5878
62025SOL    HW298055   9.250  13.121  14.094  0.5550  1.0433 -0.5184
62026SOL     OW98056   0.132  12.124   5.724  0.4554 -0.4460 -0.1797
62026SOL    HW198057   0.078  12.137   5.646  0.4212 -0.1211 -0.1022
62026SOL    HW298058   0.150  12.030   5.725 -1.2160 -0.7868  0.5262
62027SOL     OW98059   0.657   7.435   1.106  0.8140 -0.6126 -0.4631
62027SOL    HW198060   0.583   7.383   1.138 -0.8478  2.6905  1.6475
62027SOL    HW298061   0.720   7.433   1.178  0.8064  0.0908 -0.4288
62028SOL     OW98062   2.649  12.215  10.160 -0.4101 -0.1286 -0.3162
62028SOL    HW198063   2.741  12.237  10.169 -0.1153 -1.3423 -0.2566
62028SOL    HW298064   2.605  12.268  10.226 -0.0013  1.7886 -1.5137
62029SOL     OW98065   2.816  13.776  12.863  0.2202 -0.1814 -0.0572
62029SOL    HW198066   2.723  13.763  12.846 -0.0849 -0.4511  1.6705
62029SOL    HW298067   2.852  13.688  12.869 -0.1082 -0.1884  2.6875
62030SOL     OW98068   3.853   8.754  14.032 -0.4494  0.1896 -0.3906
62030SOL    HW198069   3.899   8.708  13.962  2.0619  2.7064 -0.5855
62030SOL    HW298070   3.815   8.685  14.086  1.3513 -1.9693 -1.7353
62031SOL     OW98071   1.479   4.292  13.833 -0.3144  0.8350  0.6748
62031SOL    HW198072   1.466   4.197  13.831 -2.5536  1.0844  0.9667
62031SOL    HW298073   1.574   4.303  13.826 -0.0147 -1.4051  0.3856
62032SOL     OW98074   7.356   4.678   4.045  0.6344  0.2070  0.0880
62032SOL    HW198075   7.321   4.649   4.129  0.2772 -0.2746 -0.2252
62032SOL    HW298076   7.297   4.642   3.980  1.3755 -0.1306 -0.4175
62033SOL     OW98077   9.097   2.082  12.798  0.4233 -0.4331  0.2150
62033SOL    HW198078   9.088   2.177  12.810 -0.4747 -0.2007 -1.8159
62033SOL    HW298079   9.075   2.045  12.883 -1.9185  1.1027  0.3761
62034SOL     OW98080   5.183   2.493   4.085 -0.3218 -0.0864 -0.4014
62034SOL    HW198081   5.131   2.415   4.066  0.1973 -0.4700 -0.2745
62034SOL    HW298082   5.130   2.566   4.053 -0.6526 -0.5190 -0.8499
62035SOL     OW98083  13.695   7.697  11.813  0.2025  0.3232  0.1816
62035SOL    HW198084  13.746   7.711  11.733 -0.4638 -0.9253 -0.4986
62035SOL    HW298085  13.605   7.720  11.788  0.0920  0.5022  0.7465
62036SOL     OW98086   7.249   6.001   1.265 -0.1339 -0.8613  1.1499
62036SOL    HW198087   7.336   6.042   1.258 -0.8072  0.5916  0.9293
62036SOL    HW298088   7.205   6.051   1.333 -1.1885 -0.8749  0.4896
62037SOL     OW98089  12.483  13.923   0.770 -0.2339  0.6721 -0.2062
62037SOL    HW198090  12.566  13.971   0.771  0.3072 -0.2165 -1.0843
62037SOL    HW298091  12.416  13.991   0.765  0.4709  1.3722 -0.2565
62038SOL     OW98092   7.489   6.497   3.950 -0.3245 -0.6827 -0.1322
62038SOL    HW198093   7.467   6.533   4.036 -0.3041  0.6956 -0.6880
62038SOL    HW298094   7.556   6.432   3.969 -0.9779 -1.0663  0.9911
62039SOL     OW98095  13.482   1.243   5.298  0.5380  0.1505  0.2749
62039SOL    HW198096  13.535   1.323   5.300 -0.6109  1.0344 -1.7826
62039SOL    HW298097  13.446   1.241   5.210  0.1020 -2.3921  0.4470
62040SOL     OW98098   8.353   9.177  13.059 -0.4921 -0.3246  0.5472
62040SOL    HW198099   8.432   9.181  13.006 -1.4486 -0.3648 -0.9405
62040SOL    HW298100   8.383   9.192  13.149  1.0417  0.8286 -0.1236
62041SOL     OW98101  10.326   6.424  11.175 -0.5611 -0.0239 -0.3093
62041SOL    HW198102  10.338   6.492  11.109 -0.1720  0.7816  0.5702
62041SOL    HW298103  10.354   6.343  11.132 -0.0552  0.5296 -1.0307
62042SOL     OW98104   1.943   9.310   4.926  0.7150  0.0590 -0.1395
62042SOL    HW198105   2.031   9.308   4.963  1.3442  1.7221 -1.4175
62042SOL    HW298106   1.947   9.252   4.850  0.4620 -0.5281  0.2940
62043SOL     OW98107   1.055   0.494   3.697 -0.5178 -0.0683  0.2591
62043SOL    HW198108   1.004   0.479   3.617 -0.6473 -1.2051  0.5390
62043SOL    HW298109   1.141   0.457   3.678  0.2813  1.9348 -0.2477
62044SOL     OW98110   5.767   6.775   1.583  0.0140 -0.2384  0.6526
62044SOL    HW198111   5.827   6.704   1.605  0.9230  0.5428  0.7611
62044SOL    HW298112   5.710   6.782   1.660 -1.2069 -1.9344 -0.0275
62045SOL     OW98113   7.300  13.178  11.137  0.0158 -0.4592  0.0075
62045SOL    HW198114   7.284  13.206  11.227 -0.5197  0.8089 -0.4495
62045SOL    HW298115   7.370  13.113  11.144  0.8349  0.5056  1.2285
62046SOL     OW98116  11.895   1.418   9.799 -0.0010 -0.4646  0.0360
62046SOL    HW198117  11.893   1.324   9.818  1.1813 -0.2501  1.4740
62046SOL    HW298118  11.957   1.453   9.863 -0.7164  1.3568 -0.2216
62047SOL     OW98119   8.535   5.003  10.190 -0.5186 -0.3136  0.0845
62047SOL    HW198120   8.628   5.022  10.177 -0.3215  0.0535  1.7901
62047SOL    HW298121   8.490   5.058  10.126  0.3392  1.5442  1.0092
62048SOL     OW98122  10.302  12.133  13.299  0.4055  0.1363 -0.1293
62048SOL    HW198123  10.251  12.090  13.231 -1.8610 -1.6538  2.5288
62048SOL    HW298124  10.283  12.227  13.287  0.0709 -0.1066 -1.8766
62049SOL     OW98125   2.058  10.708  11.285  0.1243 -0.2935  0.4525
62049SOL    HW198126   1.968  10.727  11.262  0.4388  0.1547 -0.4454
62049SOL    HW298127   2.056  10.690  11.379 -0.9255 -0.5069  0.3912
62050SOL     OW98128  10.109   3.996  12.114 -0.0796  0.3128  0.3639
62050SOL    HW198129  10.075   4.076  12.154  1.5600  1.0843  0.3011
62050SOL    HW298130  10.196   3.985  12.152  0.9052  0.2154 -1.7624
62051SOL     OW98131  12.897   7.035   4.605 -0.4414  0.2493  0.2226
62051SOL    HW198132  12.819   6.981   4.611  0.6123 -1.3148  0.4428
62051SOL    HW298133  12.949   7.010   4.682  0.5612  0.7920 -0.2605
62052SOL     OW98134   5.711   7.167  11.078  0.2098  0.5856 -0.1707
62052SOL    HW198135   5.722   7.194  10.987  1.0651  1.0231  0.0486
62052SOL    HW298136   5.790   7.116  11.097 -1.7525 -3.0333 -0.8601
62053SOL     OW98137   3.899   6.286   7.953  0.6669 -0.5170  0.1698
62053SOL    HW198138   3.872   6.207   7.906 -0.9515 -1.2886  2.2269
62053SOL    HW298139   3.826   6.347   7.939  1.8647  0.6406 -1.3330
62054SOL     OW98140   2.336   9.740   0.049  0.2708  0.7712  0.1188
62054SOL    HW198141   2.400   9.729  -0.021 -2.1906  0.8747 -2.3114
62054SOL    HW298142   2.340   9.833   0.071  0.2158  1.0039 -0.8061
62055SOL     OW98143   4.646   7.812   9.473 -0.1618  0.0628 -0.3877
62055SOL    HW198144   4.689   7.745   9.526  2.0548  1.3199 -0.5101
62055SOL    HW298145   4.645   7.776   9.384  0.9025  0.1241 -0.4338
62056SOL     OW98146   1.982  11.498   6.556 -0.5014  0.0897 -0.0380
62056SOL    HW198147   2.016  11.480   6.468 -2.4435  2.1152 -1.2993
62056SOL    HW298148   1.891  11.470   6.553 -0.3540 -0.6672  1.6572
62057SOL     OW98149   7.420   4.643  11.674 -0.1154  0.0316 -0.1191
62057SOL    HW198150   7.392   4.734  11.684 -0.8454 -0.2565  0.6213
62057SOL    HW298151   7.451   4.636  11.584  0.8035  1.2384  0.0939
62058SOL     OW98152  11.229   7.514   7.281  0.0188  0.2360 -0.0822
62058SOL    HW198153  11.269   7.428   7.291 -0.0030  0.1668 -0.5971
62058SOL    HW298154  11.161   7.516   7.349  1.1691  0.5359  1.0972
62059SOL     OW98155   5.400   1.963   0.525  0.4161 -0.2994  0.0613
62059SOL    HW198156   5.460   1.977   0.598  1.4873  0.8213 -0.9988
62059SOL    HW298157   5.444   2.001   0.450 -1.7338  0.8069 -0.7225
62060SOL     OW98158   8.310   8.339   2.300  0.5065  0.3313  0.4358
62060SOL    HW198159   8.227   8.378   2.275 -0.7746 -2.1497  0.5601
62060SOL    HW298160   8.288   8.277   2.369  2.7363  0.7720  1.6722
62061SOL     OW98161   8.288   8.984   8.048  0.2622 -0.0540 -0.0227
62061SOL    HW198162   8.205   9.027   8.027  0.0030 -0.4916  0.0847
62061SOL    HW298163   8.289   8.905   7.994  1.5648  0.9816 -1.5962
62062SOL     OW98164   6.844   2.183  13.255 -0.2470 -0.3391 -0.1410
62062SOL    HW198165   6.785   2.116  13.291 -0.3047  0.1608  0.6973
62062SOL    HW298166   6.874   2.233  13.331 -0.6202  0.9358 -0.8065
62063SOL     OW98167   4.188   8.385   1.036  0.2590  0.0958  0.3223
62063SOL    HW198168   4.261   8.377   0.975 -0.1287 -1.2476 -0.0039
62063SOL    HW298169   4.152   8.472   1.019  0.6947  0.0804 -0.7509
62064SOL     OW98170   6.187   7.215  10.079  0.0400  0.0311 -0.0489
62064SOL    HW198171   6.139   7.287  10.038 -2.4519 -1.4008  0.1685
62064SOL    HW298172   6.231   7.172  10.005 -1.8411 -0.6443 -0.8306
62065SOL     OW98173   1.815  13.976   7.004 -0.2959 -0.5982 -0.0626
62065SOL    HW198174   1.763  13.923   6.944  0.1328 -2.0992  0.8284
62065SOL    HW298175   1.890  13.921   7.026  0.5553  0.6729  0.3604
62066SOL     OW98176   1.447   9.588   2.259  1.3505 -0.0239  0.1872
62066SOL    HW198177   1.501   9.661   2.230  1.2767 -0.9863 -2.7286
62066SOL    HW298178   1.360   9.626   2.274  2.1962  1.1125  2.6454
62067SOL     OW98179   7.993  10.058   6.093 -0.0314  0.2623  0.3766
62067SOL    HW198180   8.069  10.086   6.041  1.0297  0.1235  1.7874
62067SOL    HW298181   7.919  10.065   6.033  0.6897  2.8731 -0.3110
62068SOL     OW98182  12.737  11.365   2.521  0.3274 -0.0128 -0.0944
62068SOL    HW198183  12.722  11.455   2.549 -1.9956 -0.9489  2.1534
62068SOL    HW298184  12.763  11.372   2.430 -0.3773  2.9099 -0.1714
62069SOL     OW98185   8.573   0.670   8.870 -1.0054  0.3395 -0.2149
62069SOL    HW198186   8.582   0.718   8.952  1.5721 -0.1446 -0.1457
62069SOL    HW298187   8.572   0.578   8.896 -0.8490  0.2010 -0.6921
62070SOL     OW98188  12.795   7.571  11.419  0.3906 -0.2724  0.4257
62070SOL    HW198189  12.834   7.581  11.506  0.2475 -2.3667  0.8008
62070SOL    HW298190  12.701   7.570  11.435  0.1844  2.3613 -0.1840
62071SOL     OW98191  14.043   0.376   3.068 -0.4384  0.0611  0.0167
62071SOL    HW198192  14.066   0.369   3.161  1.9449  0.3692 -0.5008
62071SOL    HW298193  14.009   0.465   3.059  2.0963  1.1208  0.1140
62072SOL     OW98194   5.149   0.313   0.949 -0.0237 -0.1541 -0.2643
62072SOL    HW198195   5.102   0.281   1.026 -0.0079  1.0322  0.2716
62072SOL    HW298196   5.218   0.249   0.934 -0.9532 -1.1906 -0.2187
62073SOL     OW98197   5.890  13.143   4.972 -0.1174  0.3135 -0.1395
62073SOL    HW198198   5.830  13.093   4.917 -0.7902  2.6035 -1.5969
62073SOL    HW298199   5.946  13.190   4.911 -1.4932  3.6757  0.9567
62074SOL     OW98200  12.838  13.156   4.067  0.1979  0.2867  0.1547
62074SOL    HW198201  12.748  13.141   4.094 -0.2690  0.4958 -1.2597
62074SOL    HW298202  12.871  13.222   4.129 -1.5567  2.4698 -1.1245
62075SOL     OW98203  10.219  12.456   3.056 -0.0944 -0.0344 -0.4863
62075SOL    HW198204  10.166  12.501   2.990 -1.1890 -2.1421 -1.1155
62075SOL    HW298205  10.303  12.503   3.055 -0.2053  0.2355 -3.0989
62076SOL     OW98206   9.555   5.704   7.431  0.4642 -0.5368 -0.3479
62076SOL    HW198207   9.480   5.687   7.487  0.8442  0.5680  0.5530
62076SOL    HW298208   9.610   5.626   7.440  0.2175 -0.6385  0.3131
62077SOL     OW98209   6.694   9.070   1.797  0.0176  0.5363  0.9689
62077SOL    HW198210   6.640   9.068   1.876  1.1126 -0.4513  1.7286
62077SOL    HW298211   6.684   8.982   1.759 -1.9040  1.5001 -1.0382
62078SOL     OW98212   0.567   6.833   5.356 -0.0027 -0.1181 -0.0684
62078SOL    HW198213   0.620   6.774   5.302  0.7385 -0.5589  1.0766
62078SOL    HW298214   0.512   6.880   5.294  1.7460  0.3694 -1.3219
62079SOL     OW98215   9.835   4.591  10.096  0.1115 -0.4669 -0.6086
62079SOL    HW198216   9.765   4.537  10.133  0.2433  0.6296  1.4103
62079SOL    HW298217   9.916   4.548  10.125  0.2301  1.4113  2.1967
62080SOL     OW98218   8.576   8.473  13.148 -0.3805  0.0976  0.1560
62080SOL    HW198219   8.540   8.559  13.170 -0.4288  0.0894  0.1122
62080SOL    HW298220   8.664   8.474  13.184  0.5474  1.0963 -1.9537
62081SOL     OW98221   5.627  12.370  11.831  0.6124  0.9584 -0.4108
62081SOL    HW198222   5.580  12.292  11.859 -0.7016  2.6767  2.6366
62081SOL    HW298223   5.719  12.346  11.837  0.2353 -0.6422 -0.6117
62082SOL     OW98224   4.783   3.855   1.568 -0.2541  0.0193  0.2468
62082SOL    HW198225   4.797   3.925   1.632  0.5468  1.4531 -1.4216
62082SOL    HW298226   4.691   3.862   1.545 -0.0138  1.0388 -0.4545
62083SOL     OW98227  13.006   2.103  13.406  0.0592  0.4978  0.1576
62083SOL    HW198228  12.977   2.192  13.385  0.2201  0.6281  0.4719
62083SOL    HW298229  12.933   2.065  13.456 -0.5293  0.0175 -1.0351
62084SOL     OW98230  11.488   0.438   3.695 -0.2540 -0.0897  0.2422
62084SOL    HW198231  11.408   0.441   3.747  0.2618 -0.6939  1.0927
62084SOL    HW298232  11.557   0.463   3.756  0.3706 -0.8596 -0.1326
62085SOL     OW98233  10.150  10.635   5.335  0.4449  0.1163  0.2313
62085SOL    HW198234  10.230  10.618   5.286  0.2701 -0.0276 -0.0030
62085SOL    HW298235  10.118  10.719   5.300 -0.7066 -0.8946 -1.2727
62086SOL     OW98236   0.498   3.843   1.996  0.1077  0.0138 -1.0193
62086SOL    HW198237   0.547   3.905   2.050  1.7926 -0.1501 -2.2841
62086SOL    HW298238   0.470   3.893   1.920 -0.7504 -0.1828 -0.8499
62087SOL     OW98239   6.605   4.457   3.956 -0.5683 -1.0334 -0.3523
62087SOL    HW198240   6.558   4.454   4.039  1.4217  0.6863  0.9192
62087SOL    HW298241   6.575   4.537   3.914  3.0927  1.7978  1.8417
62088SOL     OW98242  13.319  11.698  13.255 -0.2586  0.7031 -0.7421
62088SOL    HW198243  13.340  11.634  13.187  2.9862 -0.4879  1.1797
62088SOL    HW298244  13.273  11.647  13.322 -0.9643  1.2555 -0.7906
62089SOL     OW98245   5.608   9.032  13.086 -0.2181 -0.0871  0.4664
62089SOL    HW198246   5.545   8.977  13.039  0.6829 -1.4049  0.7429
62089SOL    HW298247   5.558   9.111  13.109 -0.1776  1.8978 -4.7884
62090SOL     OW98248   1.813  11.866   3.063  0.2159 -0.4141  0.5342
62090SOL    HW198249   1.781  11.893   3.149  1.9906  0.9549  0.8456
62090SOL    HW298250   1.740  11.820   3.022 -0.8730 -0.5340  2.5207
62091SOL     OW98251   8.554  10.110   3.599 -0.0748 -0.0702 -0.2985
62091SOL    HW198252   8.574  10.194   3.641  0.0114 -1.0087  1.6372
62091SOL    HW298253   8.638  10.082   3.562 -0.0910  0.6507 -0.9113
62092SOL     OW98254  11.214   9.058   2.809  0.4294 -0.1781 -0.1130
62092SOL    HW198255  11.229   9.003   2.885 -0.9473 -1.0058 -0.3990
62092SOL    HW298256  11.288   9.040   2.751  0.8912 -0.4072  0.5343
62093SOL     OW98257   4.173   5.164  12.767  0.1234 -0.0477  0.1636
62093SOL    HW198258   4.268   5.150  12.774 -0.0345 -0.7700  1.0284
62093SOL    HW298259   4.152   5.141  12.676  0.6650 -0.6346  0.1767
62094SOL     OW98260  13.625   6.530   4.301 -0.0233 -0.4485 -0.6507
62094SOL    HW198261  13.708   6.577   4.288  0.9728 -1.9523 -0.0271
62094SOL    HW298262  13.609   6.535   4.395 -0.0096 -1.1826 -0.6087
62095SOL     OW98263   5.020   0.606   7.504  0.4289 -0.2573 -0.1652
62095SOL    HW198264   5.017   0.645   7.591  0.5938  0.0769 -0.3083
62095SOL    HW298265   5.110   0.573   7.495  0.7694  0.7645 -0.6600
62096SOL     OW98266   0.097   0.978  10.941 -0.1657 -0.1424 -0.3196
62096SOL    HW198267   0.152   0.938  11.008 -0.0168  2.0163  0.9345
62096SOL    HW298268   0.114   1.072  10.949 -0.5735  0.2354 -3.0267
62097SOL     OW98269   1.770   9.179  11.146 -0.2805 -0.1750  0.3269
62097SOL    HW198270   1.823   9.162  11.068 -0.1505 -0.2294  0.4284
62097SOL    HW298271   1.808   9.124  11.214 -0.3820 -0.1110  0.4355
62098SOL     OW98272   5.012  12.050   6.335  0.1305  0.4985  0.5872
62098SOL    HW198273   4.984  11.977   6.279  0.3513 -0.6058  1.8705
62098SOL    HW298274   4.997  12.128   6.282  0.9333 -0.5406 -1.2637
62099SOL     OW98275   8.257   0.714  10.005  0.3725  0.1645  0.4058
62099SOL    HW198276   8.326   0.653  10.027  1.9062  1.6310 -0.1349
62099SOL    HW298277   8.244   0.704   9.911 -0.0671 -0.0163  0.4844
62100SOL     OW98278   0.260  12.174   9.999 -0.5460  0.6039 -0.2180
62100SOL    HW198279   0.255  12.248   9.938  2.2289  1.4035  0.4033
62100SOL    HW298280   0.233  12.211  10.083  1.0572  1.0346  0.1387
62101SOL     OW98281  10.869  13.694   2.481 -0.3840 -0.0401 -0.5452
62101SOL    HW198282  10.855  13.667   2.390  2.1369 -2.4993 -0.3406
62101SOL    HW298283  10.811  13.638   2.532 -0.6378  0.2209 -0.5472
62102SOL     OW98284  12.465   5.202   2.292  0.1585 -0.2489  0.0765
62102SOL    HW198285  12.510   5.223   2.373  0.3950 -1.7889  0.3816
62102SOL    HW298286  12.528   5.152   2.241  0.2240  1.2054 -1.3589
62103SOL     OW98287  11.687   4.296  12.552  0.4559 -0.0566 -0.2372
62103SOL    HW198288  11.694   4.371  12.611  0.8316 -1.3475  1.4538
62103SOL    HW298289  11.657   4.333  12.469  2.4879  2.2366 -0.0776
62104SOL     OW98290   7.205   5.554  10.680 -0.1227  0.1612  0.1109
62104SOL    HW198291   7.282   5.506  10.651 -0.8480 -0.7918 -0.3146
62104SOL    HW298292   7.230   5.591  10.765  1.1415  0.7740 -0.5013
62105SOL     OW98293   7.117   6.134   9.879  0.4493  0.1927  0.5389
62105SOL    HW198294   7.131   6.081   9.800  0.8064  1.2600 -0.1328
62105SOL    HW298295   7.190   6.111   9.936 -0.4998 -1.5457  1.1361
62106SOL     OW98296   2.555   3.195   1.207 -0.5603 -0.1299 -0.0356
62106SOL    HW198297   2.551   3.279   1.253 -2.1916 -0.5675  0.6750
62106SOL    HW298298   2.627   3.148   1.249 -1.3943 -0.1363  1.4394
62107SOL     OW98299   2.116   4.832   8.679 -0.8389  0.1589 -0.2872
62107SOL    HW198300   2.052   4.890   8.721  0.1462  0.5433  0.7430
62107SOL    HW298301   2.158   4.887   8.613  0.2656  0.7287  0.8551
62108SOL     OW98302   5.361  12.821  13.683 -0.2778 -0.1828  0.6687
62108SOL    HW198303   5.428  12.873  13.638 -1.3833 -0.9824 -2.0970
62108SOL    HW298304   5.406  12.740  13.706 -0.2057 -0.6699 -1.0619
62109SOL     OW98305   6.321   4.833   1.158  0.3898  0.4345  0.7643
62109SOL    HW198306   6.239   4.798   1.122  1.2330  0.1800 -1.0178
62109SOL    HW298307   6.294   4.877   1.239 -1.4942  0.2544  0.2935
62110SOL     OW98308   6.924   4.621   7.583 -0.0928 -0.8028  1.0143
62110SOL    HW198309   6.881   4.537   7.598 -0.6934 -1.0517 -1.6918
62110SOL    HW298310   6.855   4.677   7.549  0.7647  0.1750  0.8507
62111SOL     OW98311   8.315  10.001   8.796 -0.0003 -0.4334  0.6809
62111SOL    HW198312   8.406   9.988   8.768 -0.2507 -0.5677 -0.0793
62111SOL    HW298313   8.314   9.973   8.888  0.2981 -2.3320  0.1436
62112SOL     OW98314   6.730   2.187   1.114 -0.1135 -0.0490 -0.5113
62112SOL    HW198315   6.747   2.107   1.162 -1.0977 -0.0437 -0.1316
62112SOL    HW298316   6.637   2.183   1.092  0.1292  0.3366 -1.7096
62113SOL     OW98317  12.191   9.009  10.508 -0.4400 -0.5076 -0.7809
62113SOL    HW198318  12.159   8.942  10.569 -0.5960 -0.7096 -1.0804
62113SOL    HW298319  12.230   8.959  10.437 -0.7027 -0.2767 -1.0853
62114SOL     OW98320   7.861   4.791   7.986 -0.4179  0.4292  0.2983
62114SOL    HW198321   7.842   4.885   7.988 -1.5500  0.2064  2.6282
62114SOL    HW298322   7.792   4.752   8.039  0.5131 -1.6485  0.0469
62115SOL     OW98323  12.485   1.012   4.657  0.4782 -0.5792 -0.0345
62115SOL    HW198324  12.432   1.069   4.601 -0.6300 -1.0084  0.5376
62115SOL    HW298325  12.466   1.041   4.746 -0.2128 -1.8906  0.2759
62116SOL     OW98326   7.522  13.746  12.149 -0.1828  0.2455  0.0343
62116SOL    HW198327   7.606  13.761  12.191  0.3145 -0.8093 -0.5415
62116SOL    HW298328   7.458  13.755  12.220  0.3148  1.8781  0.3145
62117SOL     OW98329   9.549   1.188   3.683 -0.2838  0.2648  0.0604
62117SOL    HW198330   9.545   1.252   3.613  0.3630  0.7055  0.4280
62117SOL    HW298331   9.457   1.163   3.697 -0.4547  0.4459 -0.6749
62118SOL     OW98332  12.074   4.484   2.437  0.2871  0.3935 -0.1971
62118SOL    HW198333  12.120   4.417   2.386  1.0563  0.8057 -0.0567
62118SOL    HW298334  11.983   4.454   2.439  0.6131 -0.6398 -0.1489
62119SOL     OW98335   6.317   6.708  10.261 -0.0513  0.8319 -0.0629
62119SOL    HW198336   6.362   6.656  10.327 -0.7473  2.1690  1.5336
62119SOL    HW298337   6.330   6.660  10.179  2.9313  0.3935  0.5743
62120SOL     OW98338   7.265  11.199  10.589 -0.7671 -0.1596  0.6021
62120SOL    HW198339   7.218  11.125  10.626  0.1711 -1.6357 -1.0007
62120SOL    HW298340   7.200  11.245  10.536 -0.7629 -1.5454 -0.6943
62121SOL     OW98341  13.290   9.949   1.832  0.4837 -0.3515 -0.3982
62121SOL    HW198342  13.234   9.937   1.755  0.9584  0.8743 -0.9641
62121SOL    HW298343  13.239   9.915   1.905 -1.6625  2.0376 -0.6496
62122SOL     OW98344  12.381   4.936  13.310  0.4128 -0.6389  0.1003
62122SOL    HW198345  12.319   4.881  13.262 -0.9923 -0.7846  1.9520
62122SOL    HW298346  12.365   5.025  13.277  1.1154 -0.9935 -1.2937
62123SOL     OW98347   3.659   2.563   6.792  0.2334 -0.1145 -0.2457
62123SOL    HW198348   3.564   2.551   6.797  0.1487  0.7357  0.5885
62123SOL    HW298349   3.671   2.641   6.738  0.4850 -0.5183 -0.7771
62124SOL     OW98350  12.518   4.888   7.887  0.3252  0.4546  1.0649
62124SOL    HW198351  12.550   4.894   7.797 -0.1177  2.4838  0.9887
62124SOL    HW298352  12.437   4.837   7.881 -0.3169  1.5301  0.0891
62125SOL     OW98353   8.805   1.905  10.191  0.1025 -0.0262 -0.5960
62125SOL    HW198354   8.714   1.874  10.190  0.1633 -0.2682 -2.9241
62125SOL    HW298355   8.849   1.851  10.126  1.6065  1.0380 -0.5015
62126SOL     OW98356   9.714  12.604   9.896  0.1485  0.1680  0.3585
62126SOL    HW198357   9.797  12.632   9.858  0.0620 -0.1708 -0.1062
62126SOL    HW298358   9.705  12.654   9.976  0.5099  0.6561  0.0985
62127SOL     OW98359  10.256   4.727  10.948 -0.1576 -0.0951 -0.3728
62127SOL    HW198360  10.286   4.677  10.872  1.1031  3.0393 -2.1489
62127SOL    HW298361  10.312   4.699  11.020  0.5224 -1.1882 -1.3031
62128SOL     OW98362   6.708   2.180   0.590  0.1023  0.0062 -0.4214
62128SOL    HW198363   6.640   2.113   0.602  0.0268  0.2033  0.3018
62128SOL    HW298364   6.788   2.140   0.623  0.0075  0.3518  0.2515
62129SOL     OW98365   3.299   2.418   9.568  0.0798  0.3004 -0.3171
62129SOL    HW198366   3.270   2.351   9.506  0.9436 -0.0604 -0.3520
62129SOL    HW298367   3.239   2.409   9.643 -1.0822  0.8639 -1.1553
62130SOL     OW98368   7.240  12.730  10.761 -0.1938  0.0932 -0.2700
62130SOL    HW198369   7.283  12.645  10.755 -1.0570 -0.2970 -1.1298
62130SOL    HW298370   7.246  12.753  10.853  1.6122 -0.0661 -0.3054
62131SOL     OW98371   1.935  12.571   8.665  0.0275 -0.2502 -0.7037
62131SOL    HW198372   1.932  12.647   8.723  0.1887 -0.3332 -0.5840
62131SOL    HW298373   2.025  12.539   8.672 -0.7516 -2.3504  1.7782
62132SOL     OW98374   1.150   6.202  10.926  0.3959  0.0463  0.1194
62132SOL    HW198375   1.151   6.138  10.855 -1.4876  1.8108 -1.6025
62132SOL    HW298376   1.134   6.150  11.004  2.1228 -1.9089 -0.7184
62133SOL     OW98377   8.252   2.059   6.845  0.1455 -0.6301  0.7236
62133SOL    HW198378   8.333   2.072   6.796 -0.0373  3.7035  1.2503
62133SOL    HW298379   8.184   2.052   6.778  0.4920 -0.0170  0.3032
62134SOL     OW98380   5.323  12.826  11.182  0.1284 -0.1908 -0.1685
62134SOL    HW198381   5.353  12.913  11.206  0.5902  0.2533 -2.1673
62134SOL    HW298382   5.386  12.795  11.117 -1.6060 -0.7548 -1.7095
62135SOL     OW98383   8.267   3.062   4.218  0.1494  0.0850 -0.1701
62135SOL    HW198384   8.222   3.036   4.137 -1.6944  0.6477  0.6224
62135SOL    HW298385   8.304   3.148   4.199 -2.3135  1.3242  0.2378
62136SOL     OW98386   5.217   1.656   6.431 -0.4050 -0.3481 -0.3992
62136SOL    HW198387   5.239   1.578   6.381  1.0102 -0.2774  0.0800
62136SOL    HW298388   5.220   1.727   6.368 -1.7032 -0.6520 -0.8392
62137SOL     OW98389   2.374  10.913   3.303 -0.1892 -0.4475 -0.3684
62137SOL    HW198390   2.351  10.821   3.291 -0.2612 -0.3510 -0.9770
62137SOL    HW298391   2.376  10.950   3.215 -1.7540  0.5347 -0.0313
62138SOL     OW98392   7.640  10.567  10.415  0.6921 -0.2374 -0.1782
62138SOL    HW198393   7.669  10.657  10.406  2.0084 -0.3747  1.9966
62138SOL    HW298394   7.639  10.532  10.326 -1.3512  2.2943 -1.2818
62139SOL     OW98395   9.850  12.481  14.039  0.3438  0.2040  0.1644
62139SOL    HW198396   9.821  12.444  13.955  0.7853  0.2802 -0.0211
62139SOL    HW298397   9.769  12.510  14.081  0.2070  1.1981 -0.7296
62140SOL     OW98398   1.813   7.588   6.740  0.4477 -0.2266 -0.3431
62140SOL    HW198399   1.762   7.615   6.816 -2.7235  0.9307 -2.6602
62140SOL    HW298400   1.791   7.496   6.727  2.8984 -1.1508  1.4016
62141SOL     OW98401  10.588   1.362   7.184 -0.0448  0.4963  0.0762
62141SOL    HW198402  10.561   1.399   7.268  1.3716  1.1764  0.2756
62141SOL    HW298403  10.583   1.268   7.196 -1.8042  0.5794  0.2328
62142SOL     OW98404  12.219   0.038   9.950 -0.2171 -0.1903 -0.5817
62142SOL    HW198405  12.201   0.106   9.886  2.2793  0.8193 -0.3169
62142SOL    HW298406  12.295  -0.009   9.914  2.0456  1.1622  2.0408
62143SOL     OW98407   4.914   5.861   4.865 -0.3583 -0.3294 -0.0438
62143SOL    HW198408   4.933   5.874   4.958  1.6753 -2.3994 -0.0687
62143SOL    HW298409   4.917   5.949   4.828 -2.7476  0.7353  2.0207
62144SOL     OW98410   2.367  10.188   0.979 -0.5451  0.2900 -0.4843
62144SOL    HW198411   2.337  10.270   1.018 -2.6999 -1.0213  0.8209
62144SOL    HW298412   2.290  10.131   0.980  0.3984 -1.1966 -3.0070
62145SOL     OW98413  11.466  13.400   5.501  0.1958 -0.1424  0.3636
62145SOL    HW198414  11.381  13.362   5.524 -0.8366  2.0806  0.4664
62145SOL    HW298415  11.464  13.408   5.406  0.5643 -0.6779  0.3084
62146SOL     OW98416   9.997   0.201   5.541  0.0893 -0.6407 -0.0730
62146SOL    HW198417   9.928   0.260   5.570 -0.0990 -1.3304  0.9182
62146SOL    HW298418  10.038   0.170   5.621  2.0752  0.3174 -0.6435
62147SOL     OW98419   3.782  13.116   5.881 -0.4194 -0.3297  0.2976
62147SOL    HW198420   3.765  13.136   5.974 -1.7766 -0.3157  0.0652
62147SOL    HW298421   3.791  13.202   5.840 -1.2753 -0.3007  0.1659
62148SOL     OW98422  12.193   6.945  10.360  0.6690 -0.5254  0.5994
62148SOL    HW198423  12.164   6.950  10.269  0.3282 -2.4437  0.5526
62148SOL    HW298424  12.257   7.016  10.369  0.1687  0.1531 -0.9203
62149SOL     OW98425   2.701   9.093   9.278  0.4399  0.1580  0.0768
62149SOL    HW198426   2.703   9.095   9.182  1.7066 -0.7004  0.0556
62149SOL    HW298427   2.709   9.000   9.300 -2.5370  0.0037  1.0232
62150SOL     OW98428   2.288   4.140   2.616 -0.5821  0.0313 -0.0389
62150SOL    HW198429   2.330   4.206   2.561  0.6138  0.2326  1.0718
62150SOL    HW298430   2.232   4.190   2.675  0.2049  0.0675  0.6988
62151SOL     OW98431  13.643   6.925  12.622  0.0568 -0.0849  0.0173
62151SOL    HW198432  13.636   7.003  12.677  0.8762  1.2849 -1.7244
62151SOL    HW298433  13.591   6.858  12.668 -2.7422  2.1462  0.4035
62152SOL     OW98434  11.523  11.285  13.338  0.0936 -0.5566 -0.6613
62152SOL    HW198435  11.574  11.363  13.358 -0.9445  0.5923 -2.3140
62152SOL    HW298436  11.548  11.222  13.406  2.7130  0.3767 -0.6698
62153SOL     OW98437   5.384  11.543   3.796  0.3553 -0.3923 -1.0159
62153SOL    HW198438   5.361  11.572   3.884 -2.3506 -1.1434 -1.3807
62153SOL    HW298439   5.381  11.623   3.743  1.8471  0.0368 -0.4922
62154SOL     OW98440   3.624   0.516   9.562  0.0472 -0.0494 -0.4225
62154SOL    HW198441   3.541   0.468   9.562  0.4608 -0.8157  1.2574
62154SOL    HW298442   3.690   0.449   9.546  0.3650  0.5955 -1.9968
62155SOL     OW98443   0.011   2.225   4.066 -0.0604  0.6146 -0.4123
62155SOL    HW198444  -0.077   2.189   4.058  0.4954 -0.5146 -1.6519
62155SOL    HW298445   0.026   2.230   4.161 -1.0752 -0.1092 -0.1960
62156SOL     OW98446   0.460  12.763   7.594  0.4458  0.5012 -0.2044
62156SOL    HW198447   0.488  12.726   7.678 -0.3382 -0.9001 -0.5235
62156SOL    HW298448   0.475  12.693   7.531 -0.2429  1.0504 -1.0018
62157SOL     OW98449   8.943   3.786  10.309  0.2849 -0.0044 -0.0619
62157SOL    HW198450   8.903   3.762  10.226 -0.8478 -1.3259  0.8212
62157SOL    HW298451   8.868   3.804  10.367  0.9929 -0.7213  1.1176
62158SOL     OW98452   5.510   3.040   2.453 -0.0170 -0.4118  0.3566
62158SOL    HW198453   5.592   3.009   2.414  0.6391 -0.9393  2.0724
62158SOL    HW298454   5.445   2.975   2.427 -0.0755  0.3653 -1.5855
62159SOL     OW98455  12.533   5.318   1.065  0.0166  0.9658 -0.2332
62159SOL    HW198456  12.521   5.249   1.131 -1.2873  0.5974 -0.8159
62159SOL    HW298457  12.622   5.350   1.080  0.4118 -0.3729  0.5060
62160SOL     OW98458   0.821   7.202   1.935  0.5790 -0.0309 -0.1680
62160SOL    HW198459   0.785   7.155   2.010  0.3537 -0.4380 -0.5285
62160SOL    HW298460   0.786   7.156   1.859  0.7436  0.4293 -0.5229
62161SOL     OW98461   8.071   7.213   4.589  0.0010 -0.3596  0.2872
62161SOL    HW198462   8.038   7.285   4.642 -0.5445  0.3838 -1.0076
62161SOL    HW298463   7.993   7.175   4.549  0.5545  1.1031 -2.4196
62162SOL     OW98464  12.815   7.378   5.800 -0.3836  0.0142 -0.2979
62162SOL    HW198465  12.756   7.341   5.865  0.3050 -1.9092 -0.6766
62162SOL    HW298466  12.760   7.438   5.749 -1.0648  1.1315  1.6322
62163SOL     OW98467   1.313   2.905   1.894  0.0943  0.3718  0.8586
62163SOL    HW198468   1.335   2.965   1.823 -0.8584  0.0287  0.2538
62163SOL    HW298469   1.225   2.874   1.874  0.0222 -0.1682  1.8960
62164SOL     OW98470   2.265   6.983  11.014  0.2293 -0.3084  0.2395
62164SOL    HW198471   2.210   6.978  10.936 -1.3875 -1.1703  1.3837
62164SOL    HW298472   2.285   6.892  11.035  2.5137 -0.0214 -0.3706
62165SOL     OW98473   4.330   3.359  13.082  0.2796 -0.2727 -0.1897
62165SOL    HW198474   4.344   3.286  13.143  1.3085 -1.3025 -1.5881
62165SOL    HW298475   4.267   3.324  13.018 -0.0751  0.4711 -0.2589
62166SOL     OW98476   3.590  12.421  11.886 -0.0476  0.1524  0.3076
62166SOL    HW198477   3.608  12.331  11.857 -1.5520 -0.6986  1.8358
62166SOL    HW298478   3.621  12.476  11.814  0.0412 -1.6292 -1.0955
62167SOL     OW98479  12.999  13.567   4.670  0.3473 -0.1899  0.2546
62167SOL    HW198480  13.008  13.600   4.759 -1.1860  0.0089  0.3550
62167SOL    HW298481  12.904  13.563   4.655  0.5714  0.7564 -1.7243
62168SOL     OW98482   5.720  12.839  10.169 -0.1717 -0.4466  0.0626
62168SOL    HW198483   5.756  12.780  10.103 -0.4823 -1.2671  0.6041
62168SOL    HW298484   5.775  12.825  10.246 -0.4131 -0.2329  0.2744
62169SOL     OW98485   9.748   3.626   5.507 -0.7788  0.5705  0.5717
62169SOL    HW198486   9.766   3.622   5.413  0.4128  0.6731  0.7819
62169SOL    HW298487   9.765   3.537   5.538  2.9953  1.3702  1.3493
62170SOL     OW98488   7.541   7.951  11.078  0.2319 -0.2661 -0.3384
62170SOL    HW198489   7.621   7.903  11.101 -0.7307 -0.9377  1.8571
62170SOL    HW298490   7.557   8.040  11.108  1.6187  0.7119 -3.5051
62171SOL     OW98491   2.486   8.971  11.679  0.1706  0.4683  0.2282
62171SOL    HW198492   2.558   8.909  11.688 -0.6413 -0.3844  1.1158
62171SOL    HW298493   2.407   8.919  11.695 -0.4987  1.8642  1.7823
62172SOL     OW98494  11.206  13.427   2.353 -1.1963  0.0369  0.3276
62172SOL    HW198495  11.173  13.508   2.316 -1.4764 -0.1105  0.2549
62172SOL    HW298496  11.128  13.378   2.378 -1.0183  0.0449  0.9169
62173SOL     OW98497   2.364   7.236  13.001 -0.1022  0.2075 -0.6349
62173SOL    HW198498   2.273   7.219  13.026 -0.1705 -0.1409 -1.0913
62173SOL    HW298499   2.396   7.151  12.969  0.3265  0.3707 -0.6481
62174SOL     OW98500   1.787  12.999   2.649 -0.1130 -0.1871  0.1777
62174SOL    HW198501   1.834  12.980   2.730  1.3036  0.8526 -0.3688
62174SOL    HW298502   1.772  12.913   2.610 -0.8457 -0.7098  1.5254
62175SOL     OW98503   8.636   4.213   4.474 -0.5179 -0.7434  0.2649
62175SOL    HW198504   8.639   4.303   4.442 -2.0761 -0.3121  1.1872
62175SOL    HW298505   8.590   4.219   4.558 -2.0473 -2.5475 -0.3468
62176SOL     OW98506   4.255   3.042   3.666  0.9647  0.2503 -0.3710
62176SOL    HW198507   4.200   2.965   3.655  0.0112  0.8110  0.3515
62176SOL    HW298508   4.299   3.029   3.751  2.3596 -0.4211 -1.1534
62177SOL     OW98509   6.922   5.527   8.191  0.3619 -0.5623  0.4080
62177SOL    HW198510   6.952   5.547   8.103  1.9115  0.4437  1.1322
62177SOL    HW298511   6.946   5.604   8.243  0.1873 -1.4655  1.8761
62178SOL     OW98512   9.199  13.891   6.899 -0.0566  0.1652  0.0412
62178SOL    HW198513   9.216  13.981   6.928 -0.3137  0.1833  0.1421
62178SOL    HW298514   9.144  13.902   6.822 -0.7217  0.0800  0.4933
62179SOL     OW98515   8.995   5.995  10.475 -0.4926  0.3232  0.0553
62179SOL    HW198516   8.932   5.931  10.508 -1.7221  0.6879 -1.4221
62179SOL    HW298517   8.940   6.063  10.434  0.8599  0.5742 -1.4492
62180SOL     OW98518  10.933   0.347  11.261 -0.5437 -0.6321  0.1865
62180SOL    HW198519  10.940   0.256  11.291  0.1719 -1.5364 -2.4480
62180SOL    HW298520  10.962   0.345  11.170  0.2659  2.4161  0.2599
62181SOL     OW98521   3.808   2.179   6.931  0.3560  0.0182  0.0588
62181SOL    HW198522   3.802   2.207   6.840 -0.6103 -0.0778  0.0800
62181SOL    HW298523   3.889   2.218   6.963  0.4960  0.3875 -0.7274
62182SOL     OW98524   6.082  12.640   0.814  0.1235 -0.7556  0.0163
62182SOL    HW198525   6.119  12.675   0.733 -0.7373  0.6450  0.1950
62182SOL    HW298526   6.158  12.630   0.872  0.7349 -1.7216 -0.9320
62183SOL     OW98527  13.965   7.509   6.875  0.1586  0.5498  0.2497
62183SOL    HW198528  13.960   7.599   6.907 -2.0498  0.6429 -0.1924
62183SOL    HW298529  13.960   7.455   6.954  0.8902  0.7876  0.4685
62184SOL     OW98530   6.440   4.087   8.815  0.8182  0.4320 -0.4350
62184SOL    HW198531   6.462   4.007   8.862 -2.3864 -0.5700 -0.4124
62184SOL    HW298532   6.412   4.058   8.728 -0.0937  1.5534 -0.5415
62185SOL     OW98533   9.695   2.962  13.188 -0.0314  0.1574 -0.5104
62185SOL    HW198534   9.735   2.876  13.194 -0.8313 -0.1197  1.5250
62185SOL    HW298535   9.680   2.988  13.278 -2.8196  0.9827 -1.1095
62186SOL     OW98536   9.380   0.194  11.383  0.0055  0.7254 -0.2742
62186SOL    HW198537   9.334   0.137  11.322  1.8909  0.7035 -1.7586
62186SOL    HW298538   9.357   0.283  11.355 -0.2884  0.7136 -0.0743
62187SOL     OW98539   2.384  12.138  11.874 -0.0347 -0.3098 -0.3914
62187SOL    HW198540   2.467  12.184  11.889  0.7451 -1.8409  0.1579
62187SOL    HW298541   2.335  12.150  11.955 -0.8951  1.6118 -1.1446
62188SOL     OW98542   6.895   5.915  12.851 -0.1798  0.0873  0.4795
62188SOL    HW198543   6.986   5.885  12.857 -0.0783 -0.0788 -1.3600
62188SOL    HW298544   6.883   5.972  12.927  0.9557 -1.1637  1.6333
62189SOL     OW98545   8.870  13.002   1.656  0.7266  0.0982  0.1044
62189SOL    HW198546   8.790  12.957   1.685  0.2346  0.8319 -0.0871
62189SOL    HW298547   8.913  12.939   1.598  0.5799 -0.5198  0.6600
62190SOL     OW98548   3.345   3.926   4.140 -0.3595  0.0556 -1.0001
62190SOL    HW198549   3.382   3.980   4.070  1.2736 -0.2248 -0.3793
62190SOL    HW298550   3.303   3.989   4.199  0.2019  0.5040 -1.0731
62191SOL     OW98551   1.455  12.053  13.986 -0.7105 -0.1099  0.1438
62191SOL    HW198552   1.433  11.968  14.026 -0.3413  0.0364  0.6673
62191SOL    HW298553   1.399  12.058  13.908 -0.9280 -0.7169  0.2544
62192SOL     OW98554   8.667   5.864   0.730 -0.2210  0.1493  0.0768
62192SOL    HW198555   8.607   5.835   0.661 -0.5862  1.2380 -0.0772
62192SOL    HW298556   8.704   5.945   0.696  1.2212 -0.4106  0.2491
62193SOL     OW98557  10.570  10.958   0.234 -0.3768  0.2464  0.7295
62193SOL    HW198558  10.504  10.979   0.168  1.8445 -0.6009 -1.9352
62193SOL    HW298559  10.591  11.042   0.274 -1.6946  0.8050  0.3151
62194SOL     OW98560  12.359  10.038   7.161  0.2018 -0.3219 -0.7484
62194SOL    HW198561  12.273  10.010   7.128 -0.5667  0.3782  0.5881
62194SOL    HW298562  12.421   9.978   7.120 -0.8879 -0.6354 -2.0003
62195SOL     OW98563   2.248   7.222   2.460 -0.5494 -0.2769 -0.2851
62195SOL    HW198564   2.299   7.143   2.482  0.6621  0.3481 -0.7426
62195SOL    HW298565   2.273   7.285   2.528 -0.7511  0.0190 -0.4873
62196SOL     OW98566  11.273  11.375  13.228  0.1525 -0.2494 -0.4873
62196SOL    HW198567  11.224  11.357  13.308  0.4833 -1.9820 -0.6293
62196SOL    HW298568  11.364  11.381  13.256  0.0347  1.8887 -0.3818
62197SOL     OW98569  11.090   2.463  12.506 -0.0167  0.0923 -0.3303
62197SOL    HW198570  11.116   2.555  12.507 -0.0447  0.0984 -0.0140
62197SOL    HW298571  11.114   2.432  12.418 -1.8845  0.9265 -1.1963
62198SOL     OW98572  11.068   4.030   8.675  0.4957 -0.2107 -0.8705
62198SOL    HW198573  11.129   3.966   8.640  0.4065 -1.5512  1.2426
62198SOL    HW298574  11.027   4.069   8.598  3.2075 -0.0204 -2.3210
62199SOL     OW98575  13.285   6.566  12.508  0.0718  0.3665  0.0794
62199SOL    HW198576  13.306   6.635  12.571  0.2002  0.1318  0.2940
62199SOL    HW298577  13.341   6.584  12.433  0.4733  0.1981  0.3372
62200SOL     OW98578  12.873   3.242   4.210 -0.1907 -0.0276 -0.0053
62200SOL    HW198579  12.865   3.156   4.167  0.3974 -0.2430  0.3047
62200SOL    HW298580  12.878   3.304   4.137  1.1416 -0.4229 -0.2811
62201SOL     OW98581   4.118   8.301   4.756 -0.3106  0.4701  0.0731
62201SOL    HW198582   4.110   8.370   4.821 -1.0381  1.5980 -1.1655
62201SOL    HW298583   4.073   8.226   4.794 -0.8263  1.1472  0.8100
62202SOL     OW98584  11.545   6.873   9.145  0.1274  0.1644  0.0828
62202SOL    HW198585  11.471   6.826   9.184  0.7344 -0.6352  0.2899
62202SOL    HW298586  11.621   6.818   9.164  0.5045 -0.0820 -1.8883
62203SOL     OW98587   1.729   2.072   6.515  0.5145  0.1773 -0.4810
62203SOL    HW198588   1.646   2.120   6.517  0.7090  0.4974  0.3952
62203SOL    HW298589   1.723   2.010   6.587  0.9480  0.0411 -0.5583
62204SOL     OW98590   3.661   7.085  10.478  0.7273 -0.0897 -0.6102
62204SOL    HW198591   3.679   7.167  10.525  0.4993  0.7347 -1.9173
62204SOL    HW298592   3.747   7.054  10.450  0.6546  0.7611 -1.8158
62205SOL     OW98593   5.174   4.878   0.209  0.2260  0.1240 -0.6730
62205SOL    HW198594   5.203   4.912   0.124  1.4502 -0.1594 -0.3820
62205SOL    HW298595   5.253   4.843   0.250 -0.4548 -0.2899  0.3401
62206SOL     OW98596  13.879   1.405   5.429  0.2826  0.1668  0.1257
62206SOL    HW198597  13.861   1.320   5.391  0.9813 -0.4664  1.1494
62206SOL    HW298598  13.971   1.422   5.407  0.0571  0.7970 -0.3398
62207SOL     OW98599   7.467   7.037  12.848 -0.1887  0.0378 -0.3092
62207SOL    HW198600   7.408   7.112  12.854 -1.2277 -0.7248 -0.6560
62207SOL    HW298601   7.502   7.041  12.759 -0.5205 -0.0883 -0.4455
62208SOL     OW98602   6.583   6.064   0.423  0.0289 -0.8981  0.4029
62208SOL    HW198603   6.640   6.065   0.501  0.4238  2.4372  0.2034
62208SOL    HW298604   6.625   6.001   0.365  3.6716  1.3349  0.2839
62209SOL     OW98605  11.854  12.779   9.789  0.3218 -0.2734 -0.6223
62209SOL    HW198606  11.934  12.727   9.800 -0.2901 -1.2562 -0.6583
62209SOL    HW298607  11.803  12.761   9.867 -0.6754 -1.1487 -1.4478
62210SOL     OW98608  11.138   7.636   1.069 -0.3925  0.1771  0.5308
62210SOL    HW198609  11.087   7.606   1.144 -0.1173 -0.9641  0.2895
62210SOL    HW298610  11.089   7.709   1.033 -0.3658  0.9363  1.9994
62211SOL     OW98611   4.886   6.681   4.488 -0.0368  0.0394 -0.3967
62211SOL    HW198612   4.947   6.619   4.448  0.8445 -0.2616  1.3035
62211SOL    HW298613   4.826   6.626   4.539  0.7893  0.5244  1.1742
62212SOL     OW98614   3.855  11.900   5.236  0.6671 -0.3145  0.2335
62212SOL    HW198615   3.888  11.850   5.311 -0.9235 -0.0771  1.1142
62212SOL    HW298616   3.776  11.854   5.209  0.8515 -0.0021 -0.8941
62213SOL     OW98617  12.948  10.485   4.782 -0.5059 -0.5017 -0.4514
62213SOL    HW198618  12.990  10.400   4.767  1.3280  0.3947 -0.7549
62213SOL    HW298619  13.007  10.548   4.739 -1.3227  1.0070  0.5538
62214SOL     OW98620  10.877   3.056   8.608 -0.1432  0.4851 -0.1204
62214SOL    HW198621  10.915   2.993   8.669 -0.8594  0.2128  0.0557
62214SOL    HW298622  10.830   3.003   8.544 -0.1498  0.8090 -0.3867
62215SOL     OW98623   8.067   0.531   7.576 -0.1716 -0.4186 -0.5032
62215SOL    HW198624   8.152   0.534   7.532 -0.2568 -1.5051 -0.7773
62215SOL    HW298625   8.074   0.458   7.637 -1.3250 -1.3841 -1.4770
62216SOL     OW98626  12.750   6.251   1.630  0.1535 -0.2360 -0.4197
62216SOL    HW198627  12.743   6.202   1.548  0.1489 -2.7230  0.9666
62216SOL    HW298628  12.677   6.312   1.628  0.7139  0.4698 -2.6469
62217SOL     OW98629   5.900  12.913   2.521  0.3883 -0.4562 -0.1080
62217SOL    HW198630   5.812  12.876   2.515  0.4495 -0.7673  0.9024
62217SOL    HW298631   5.887  13.003   2.549  0.4212 -0.6449  0.5107
62218SOL     OW98632   4.636   1.597   0.114 -0.2388  0.0363 -0.7299
62218SOL    HW198633   4.624   1.520   0.168  2.1376  0.6526  0.8322
62218SOL    HW298634   4.676   1.564   0.033 -1.4180 -0.5858 -1.0848
62219SOL     OW98635   9.597   0.759   5.657  0.0217  0.1424 -0.2218
62219SOL    HW198636   9.612   0.832   5.597  1.3411  0.4105  0.3975
62219SOL    HW298637   9.654   0.689   5.624  0.5215  0.1892  0.5257
62220SOL     OW98638   1.061   8.393   0.346  0.5520 -0.5785  0.6653
62220SOL    HW198639   1.113   8.398   0.266 -2.8696  0.5483 -1.6807
62220SOL    HW298640   1.078   8.476   0.391  2.7258 -1.3458  1.3825
62221SOL     OW98641  10.898  11.065  11.548 -0.3241  0.6242  0.2908
62221SOL    HW198642  10.945  11.004  11.490  0.1854  1.3365 -0.0514
62221SOL    HW298643  10.954  11.072  11.625  0.8559  2.5341 -0.6813
62222SOL     OW98644   1.339  11.933   5.423  0.4569  0.2310 -0.0252
62222SOL    HW198645   1.407  11.880   5.380  0.3561  1.3134 -1.5974
62222SOL    HW298646   1.382  11.969   5.501  0.2718 -2.7869  1.6113
62223SOL     OW98647   1.926   1.973  10.642 -0.1464  0.2196  0.0235
62223SOL    HW198648   1.992   2.029  10.600  0.2221  2.2095  2.9661
62223SOL    HW298649   1.842   2.013  10.620 -0.3253 -1.1289 -2.0269
62224SOL     OW98650  13.003   1.449   1.389  0.1046  0.0680 -0.0102
62224SOL    HW198651  12.926   1.412   1.432 -0.3244  1.6172  0.6275
62224SOL    HW298652  12.986   1.544   1.388  0.9605  0.2332 -1.9399
62225SOL     OW98653   3.222   5.852   6.440 -0.2036  0.0644  0.1485
62225SOL    HW198654   3.233   5.938   6.400 -0.8463 -0.1916 -0.6140
62225SOL    HW298655   3.135   5.855   6.480 -0.2538 -0.2452  0.0657
62226SOL     OW98656   1.460   9.896   6.501 -0.0124 -0.6104  0.0506
62226SOL    HW198657   1.467   9.977   6.551 -4.0358 -0.0595  0.0800
62226SOL    HW298658   1.377   9.904   6.454  1.5644 -2.8552 -3.5747
62227SOL     OW98659   6.667  11.993  13.687  0.4258  0.0355 -0.0922
62227SOL    HW198660   6.584  11.988  13.640  0.5104  0.2654 -0.2658
62227SOL    HW298661   6.695  12.084  13.677  0.2274  0.2009  0.7737
62228SOL     OW98662  13.094   8.029   0.243 -0.0388  0.5624 -0.2422
62228SOL    HW198663  13.101   7.940   0.278 -0.4507  0.3011 -0.8131
62228SOL    HW298664  13.130   8.023   0.155  1.7650  1.3997  0.3943
62229SOL     OW98665  12.286   9.203   5.270 -0.5997  0.4602  0.2668
62229SOL    HW198666  12.351   9.167   5.330  2.0969 -0.6284 -2.9912
62229SOL    HW298667  12.307   9.297   5.265  0.0904  0.3022  0.0439
62230SOL     OW98668  12.655   1.201   2.929 -0.6312 -0.0352 -1.2486
62230SOL    HW198669  12.678   1.192   2.837  1.2252 -2.0093 -0.6943
62230SOL    HW298670  12.709   1.136   2.973 -3.4240 -1.0701  0.9564
62231SOL     OW98671   0.170  13.741  11.717  0.3607  0.4006  0.0425
62231SOL    HW198672   0.177  13.783  11.802  1.7583 -2.9654  1.7699
62231SOL    HW298673   0.261  13.723  11.692 -0.0803  0.4945 -1.7607
62232SOL     OW98674   5.664   8.626   1.836 -0.1804 -0.2620  0.1684
62232SOL    HW198675   5.669   8.715   1.869 -1.6702  0.2080 -0.8038
62232SOL    HW298676   5.704   8.630   1.749 -1.1448 -0.3233 -0.2822
62233SOL     OW98677   6.005   4.422   7.459  0.1010  0.1606 -0.4927
62233SOL    HW198678   5.997   4.517   7.465 -0.2939  0.0981  0.0841
62233SOL    HW298679   5.968   4.401   7.373 -1.0916  0.4114 -0.0696
62234SOL     OW98680  11.645   2.499   7.084  0.8602  0.4115  0.3403
62234SOL    HW198681  11.648   2.416   7.131  2.1325  0.1778 -0.1196
62234SOL    HW298682  11.554   2.527   7.090  0.2949 -1.2862  0.0337
62235SOL     OW98683  12.894   8.536   3.774  0.0551  0.5446  0.1866
62235SOL    HW198684  12.988   8.546   3.759  0.6406  0.1667  3.0570
62235SOL    HW298685  12.881   8.441   3.779 -0.8577  0.5074 -1.9349
62236SOL     OW98686   8.347   8.996  10.455  0.4497 -0.0182  0.2190
62236SOL    HW198687   8.345   8.974  10.362  0.7919 -1.1567  0.4664
62236SOL    HW298688   8.351   8.912  10.500 -0.9194  0.4691  1.3181
62237SOL     OW98689   7.435  10.286  10.908 -0.0759 -0.3290 -0.1360
62237SOL    HW198690   7.383  10.205  10.905  0.0931 -0.4495  0.0923
62237SOL    HW298691   7.502  10.268  10.974  1.3528 -0.8402 -1.6761
62238SOL     OW98692  11.416   1.085   8.473 -0.4322 -0.5340  0.6269
62238SOL    HW198693  11.393   1.010   8.528  1.1758 -1.8209 -0.3631
62238SOL    HW298694  11.512   1.084   8.470 -0.4496 -0.0796 -1.5795
62239SOL     OW98695   3.362   4.592   4.350 -0.1406 -0.7425  0.2072
62239SOL    HW198696   3.311   4.511   4.344 -1.6984  0.1931  0.1852
62239SOL    HW298697   3.312   4.647   4.410  1.5246 -0.2181  1.1930
62240SOL     OW98698   7.351   0.803   3.443 -0.4163 -0.4126  0.1325
62240SOL    HW198699   7.294   0.730   3.464 -2.9502  0.1149 -3.8279
62240SOL    HW298700   7.328   0.871   3.506 -0.7257 -1.7209  1.4904
62241SOL     OW98701   4.976   3.270   4.612  0.1295 -0.3220 -0.1508
62241SOL    HW198702   4.966   3.296   4.521 -1.7519 -0.0629  0.1020
62241SOL    HW298703   4.947   3.346   4.662  1.6331 -0.2692  0.6973
62242SOL     OW98704  10.029   5.531   1.399 -0.2188 -0.8172  0.3900
62242SOL    HW198705  10.030   5.611   1.345 -1.5514 -2.1902 -1.8204
62242SOL    HW298706  10.115   5.491   1.385 -0.5220 -1.1171 -0.7073
62243SOL     OW98707   6.164   0.454  10.847 -0.1784 -0.5288  0.3490
62243SOL    HW198708   6.232   0.439  10.912 -1.2835  1.0051  1.9406
62243SOL    HW298709   6.206   0.434  10.763  2.3831  0.8012  1.2155
62244SOL     OW98710  12.254   9.293   4.011  0.3291  0.4159 -0.1796
62244SOL    HW198711  12.326   9.351   3.989  1.1340 -0.0493  1.1666
62244SOL    HW298712  12.192   9.348   4.059  0.7597  0.3420  0.4696
62245SOL     OW98713  13.139   2.397   3.717  0.1242 -0.5387 -0.0227
62245SOL    HW198714  13.130   2.407   3.812 -0.5000 -2.0481  0.0943
62245SOL    HW298715  13.233   2.401   3.701  0.1812  0.7069  0.5254
62246SOL     OW98716  11.448   6.955  13.683 -0.1048 -0.2193 -0.6255
62246SOL    HW198717  11.362   6.962  13.642 -0.7522  0.4700  0.7769
62246SOL    HW298718  11.468   6.861  13.681 -0.5307 -0.2931 -1.6643
62247SOL     OW98719   1.761   1.619   0.919 -0.4255 -0.6308 -0.1896
62247SOL    HW198720   1.844   1.638   0.875 -1.6970  1.0792 -1.9950
62247SOL    HW298721   1.698   1.677   0.877 -2.2227 -0.6079  2.3436
62248SOL     OW98722  13.450   2.959   4.263 -0.0213 -0.0549  0.2291
62248SOL    HW198723  13.521   2.898   4.279 -0.4420 -0.2950  1.2561
62248SOL    HW298724  13.490   3.046   4.272  0.6032 -0.1423 -1.3590
62249SOL     OW98725   1.005  10.854   5.790  0.3119  0.0906 -0.4783
62249SOL    HW198726   0.941  10.869   5.721  0.2652  0.7950 -0.2927
62249SOL    HW298727   1.090  10.869   5.747  0.3254 -0.2713 -0.5805
62250SOL     OW98728   3.741   3.837   7.419 -0.2043  0.6307  0.3966
62250SOL    HW198729   3.756   3.854   7.326 -2.1839 -0.4359 -0.1712
62250SOL    HW298730   3.805   3.769   7.442 -0.3112  0.2424 -0.4298
62251SOL     OW98731   1.791   4.851   8.321  0.2118  0.1714 -0.5797
62251SOL    HW198732   1.771   4.758   8.326  2.4971 -0.3142  2.2251
62251SOL    HW298733   1.886   4.854   8.304  0.5422  1.8966  1.2644
62252SOL     OW98734  12.920   9.666   8.411 -0.5219  0.5451 -0.0929
62252SOL    HW198735  12.887   9.610   8.340 -0.8667  0.1633  0.3581
62252SOL    HW298736  12.857   9.653   8.482  0.6828 -0.3039  0.8506
62253SOL     OW98737   3.484   5.798   9.597 -0.2299  0.6171  0.1441
62253SOL    HW198738   3.466   5.848   9.677  4.4631  0.8370  1.3690
62253SOL    HW298739   3.529   5.719   9.628 -0.3873 -0.4991 -2.2324
62254SOL     OW98740  10.096   7.106   1.734 -0.1899 -0.1974  0.3029
62254SOL    HW198741  10.050   7.096   1.817 -1.1819 -1.0360 -0.3169
62254SOL    HW298742  10.073   7.027   1.684  0.5100  0.2135 -0.7120
62255SOL     OW98743   8.612   6.284  10.624 -0.2227  0.1356  0.0498
62255SOL    HW198744   8.613   6.312  10.533  0.3819 -1.3680 -0.4291
62255SOL    HW298745   8.686   6.330  10.664  0.6163 -0.5532 -0.6647
62256SOL     OW98746   0.439  10.101   4.006 -0.5899 -0.4452  0.6761
62256SOL    HW198747   0.370  10.080   3.943 -0.7705 -0.4502  0.8748
62256SOL    HW298748   0.424  10.042   4.079 -1.4533  0.7512  1.4906
62257SOL     OW98749  13.662  13.165   3.122 -0.1546 -0.4299 -0.0775
62257SOL    HW198750  13.751  13.139   3.144  0.3956  1.6368  0.3146
62257SOL    HW298751  13.642  13.238   3.180 -1.4092  0.3541 -1.4116
62258SOL     OW98752  11.509   0.421   4.628  0.1519 -0.1868 -0.2756
62258SOL    HW198753  11.476   0.475   4.700 -1.8695 -1.6550 -0.0210
62258SOL    HW298754  11.537   0.340   4.670 -1.0697 -1.0737 -1.0829
62259SOL     OW98755   0.652   0.434  11.963  0.0040  0.2023 -0.0882
62259SOL    HW198756   0.708   0.462  11.890  1.8317  0.9153  1.4907
62259SOL    HW298757   0.682   0.346  11.983  0.9276  0.7442  1.0398
62260SOL     OW98758   4.321   1.196  13.004  0.0120 -0.4961  0.2885
62260SOL    HW198759   4.407   1.163  12.979 -0.5948 -1.9858  0.0568
62260SOL    HW298760   4.261   1.154  12.943 -0.8893  0.4677  0.4894
62261SOL     OW98761  10.096   9.606   9.364 -0.2072 -0.4635 -0.5778
62261SOL    HW198762  10.185   9.624   9.336  1.3200 -2.1355  2.6469
62261SOL    HW298763  10.088   9.511   9.360 -1.3388 -0.4431  0.5470
62262SOL     OW98764   8.505   4.911   2.895  0.0923  0.0781 -0.5156
62262SOL    HW198765   8.455   4.979   2.941 -0.5536 -0.3141 -0.6166
62262SOL    HW298766   8.537   4.853   2.964 -0.6257 -0.3443 -0.5260
62263SOL     OW98767   4.461   7.468   3.178 -0.0651  0.1465 -0.4375
62263SOL    HW198768   4.454   7.378   3.148  1.7350  0.0573 -0.6673
62263SOL    HW298769   4.539   7.502   3.135 -1.1380  2.0847 -0.9836
62264SOL     OW98770   1.333   7.287   5.994  0.3264 -0.1455  0.5200
62264SOL    HW198771   1.267   7.355   5.986  0.1788 -0.2684  0.6895
62264SOL    HW298772   1.336   7.266   6.087  0.7726  0.0255  0.5483
62265SOL     OW98773  11.299  14.017   3.553 -0.4390  0.3834 -0.3902
62265SOL    HW198774  11.319  14.086   3.616  0.2653 -0.2370  0.0911
62265SOL    HW298775  11.270  14.063   3.475 -2.2521  1.1550  0.6798
62266SOL     OW98776  11.732   6.778   1.751 -0.5016  0.0054  0.0975
62266SOL    HW198777  11.759   6.810   1.838  0.8064  0.4025 -0.4273
62266SOL    HW298778  11.659   6.719   1.769 -0.2655  0.0914  1.4722
62267SOL     OW98779  13.997   5.179   7.841  0.5202  0.1072 -0.1331
62267SOL    HW198780  14.067   5.137   7.892 -0.1470  0.3335  1.0149
62267SOL    HW298781  13.995   5.269   7.873 -0.2683  0.1073 -0.1713
62268SOL     OW98782   4.426   5.019   2.224  0.5857 -0.3472 -0.1179
62268SOL    HW198783   4.336   4.985   2.223 -0.8772  3.1303 -1.0058
62268SOL    HW298784   4.468   4.973   2.298 -2.5864 -0.5657  1.7374
62269SOL     OW98785  12.062   3.603   5.865  0.3383  0.4387  0.4002
62269SOL    HW198786  12.114   3.679   5.894  0.9136  1.0954 -2.1356
62269SOL    HW298787  12.052   3.616   5.771 -2.1774 -1.0954  0.3885
62270SOL     OW98788   5.255   8.770   8.170 -0.0175  0.2389  0.1105
62270SOL    HW198789   5.303   8.852   8.182  0.5283  0.0145 -0.4718
62270SOL    HW298790   5.283   8.715   8.243 -0.2558  0.5001  0.4065
62271SOL     OW98791  10.825   9.735   9.756 -0.4581  0.3939 -0.2735
62271SOL    HW198792  10.729   9.740   9.761 -0.6006  0.0553 -2.1231
62271SOL    HW298793  10.855   9.819   9.792 -1.4095  0.2890  0.8247
62272SOL     OW98794  11.363  12.007   6.454 -0.0681 -0.0963  0.2542
62272SOL    HW198795  11.328  11.995   6.365  0.0192 -3.0009  0.5122
62272SOL    HW298796  11.317  12.084   6.488 -0.4738  0.7733 -2.1036
62273SOL     OW98797   1.582  12.062   3.007  0.0610  0.2918 -0.0956
62273SOL    HW198798   1.491  12.041   3.027  0.1082 -0.0552 -0.2402
62273SOL    HW298799   1.615  11.985   2.961  0.3975  0.4587 -0.1375
62274SOL     OW98800   0.980   7.101   5.177  0.1152  0.2065 -0.0055
62274SOL    HW198801   0.979   7.082   5.083 -0.0695  0.7729 -0.1238
62274SOL    HW298802   0.946   7.190   5.184  0.0593  0.1446  0.6070
62275SOL     OW98803  10.770   0.808   5.683  0.6009  0.3751  0.1624
62275SOL    HW198804  10.855   0.775   5.657  0.6756  0.0353  0.8166
62275SOL    HW298805  10.788   0.867   5.756 -0.0310 -3.2989  3.6207
62276SOL     OW98806   0.388   9.662   7.725  0.0409 -0.1530  0.5343
62276SOL    HW198807   0.329   9.618   7.664  0.1743  0.3187  0.0593
62276SOL    HW298808   0.449   9.711   7.669  1.1907 -1.0084  0.9854
62277SOL     OW98809  10.086   0.478   5.508 -0.4644 -0.1520  0.2360
62277SOL    HW198810  10.147   0.424   5.559 -0.1462  1.4353  1.6233
62277SOL    HW298811  10.137   0.507   5.432 -0.5070 -1.3708 -0.2922
62278SOL     OW98812   6.894   8.109   2.202  0.5503 -0.3404  0.1455
62278SOL    HW198813   6.939   8.189   2.228  0.2107  0.1539 -0.7380
62278SOL    HW298814   6.844   8.083   2.280  1.1665 -0.0551  0.6400
62279SOL     OW98815   7.442   8.386   6.408 -0.1350 -0.4104  0.0119
62279SOL    HW198816   7.426   8.449   6.337 -1.3439  1.3000  1.7073
62279SOL    HW298817   7.378   8.409   6.475  0.6790 -2.2567  1.4956
62280SOL     OW98818   6.010   2.229  11.269  0.5227  0.2422  0.0474
62280SOL    HW198819   6.022   2.150  11.323  1.5066  0.8104  0.6923
62280SOL    HW298820   5.918   2.226  11.242  0.5043 -1.0443  0.1870
62281SOL     OW98821  10.174   3.146   8.394 -0.5933 -0.1662 -0.2711
62281SOL    HW198822  10.175   3.193   8.478 -1.1823 -1.0668  0.2577
62281SOL    HW298823  10.196   3.213   8.329 -0.5404  0.6426  0.5548
62282SOL     OW98824   4.181  11.367   2.205 -0.0047  0.3571 -0.5632
62282SOL    HW198825   4.152  11.277   2.194  0.8998  0.0094 -0.2231
62282SOL    HW298826   4.162  11.409   2.121  0.2355 -0.3522 -0.9844
62283SOL     OW98827  13.976   4.896   8.342  0.8220  0.5371  1.0371
62283SOL    HW198828  14.042   4.836   8.375 -0.1632 -1.7259 -0.7984
62283SOL    HW298829  13.893   4.849   8.352  0.2593  0.4450 -2.6571
62284SOL     OW98830   9.019  11.799   6.005 -0.1369 -0.2165  0.0093
62284SOL    HW198831   9.048  11.713   5.973 -1.0293 -1.1637  1.6217
62284SOL    HW298832   8.964  11.833   5.934 -0.2656 -1.2370 -0.4086
62285SOL     OW98833   1.755   8.476  11.102 -0.6849  0.3286 -0.2484
62285SOL    HW198834   1.799   8.430  11.030  0.3174 -1.2224  1.2704
62285SOL    HW298835   1.682   8.420  11.126 -0.4752  0.3676  0.5157
62286SOL     OW98836  11.671   8.653   5.687  0.1797  0.4400 -0.6418
62286SOL    HW198837  11.658   8.738   5.731 -0.2055  0.2176 -0.3221
62286SOL    HW298838  11.729   8.673   5.614  3.3934  0.3099  1.6614
62287SOL     OW98839   4.382   7.966   8.233  0.2719 -0.4974  0.2468
62287SOL    HW198840   4.330   7.960   8.153  2.0133 -0.5630 -0.9341
62287SOL    HW298841   4.357   7.889   8.284 -1.5383  0.0374  0.2335
62288SOL     OW98842  13.591   3.605   8.944  0.1519  0.3013  0.0665
62288SOL    HW198843  13.496   3.600   8.951  0.2442 -2.3995  0.7034
62288SOL    HW298844  13.608   3.622   8.852 -0.9575  0.0342 -0.2010
62289SOL     OW98845   5.716   0.092   3.670  0.3209  0.4186 -0.3941
62289SOL    HW198846   5.650   0.068   3.606 -1.5049  0.7965  1.2529
62289SOL    HW298847   5.799   0.086   3.622 -0.8036 -0.7590 -2.3375
62290SOL     OW98848   4.914   3.000   0.960  0.3381  0.0871  0.2428
62290SOL    HW198849   4.937   2.925   0.906  0.8126  1.2037 -1.1742
62290SOL    HW298850   4.861   2.964   1.031 -0.2855 -1.4307 -0.9478
62291SOL     OW98851  13.623  10.183   0.716 -0.5468  0.4415  0.0023
62291SOL    HW198852  13.537  10.224   0.721 -0.9048 -0.2118 -0.7280
62291SOL    HW298853  13.684  10.254   0.735 -1.2087  1.0745 -0.2018
62292SOL     OW98854   4.807  10.627  13.474 -0.0731 -0.1675 -0.6689
62292SOL    HW198855   4.890  10.613  13.427  2.8432  0.3757  3.7750
62292SOL    HW298856   4.794  10.546  13.523 -2.1270 -0.1130 -1.0463
62293SOL     OW98857   7.584   4.874   6.712 -0.2637 -1.0048  0.1818
62293SOL    HW198858   7.522   4.947   6.704  0.5118 -0.4626 -1.5500
62293SOL    HW298859   7.601   4.867   6.806  0.6440  1.9829  0.3573
62294SOL     OW98860  13.235  11.891   5.330  0.4083 -0.1022  0.2430
62294SOL    HW198861  13.271  11.906   5.243  0.9936 -0.2780  0.4527
62294SOL    HW298862  13.290  11.943   5.389  0.1889 -0.2059  0.5452
62295SOL     OW98863   0.550   3.372   5.643 -0.5903 -0.0341  0.4017
62295SOL    HW198864   0.563   3.307   5.573  0.8812  1.2092 -0.5431
62295SOL    HW298865   0.592   3.451   5.610 -0.1891  0.7170  2.5545
62296SOL     OW98866   3.243  11.621   5.568  0.5625  0.6852  0.2796
62296SOL    HW198867   3.206  11.663   5.490  1.0305  1.1661  0.3131
62296SOL    HW298868   3.223  11.681   5.639 -0.0617  0.1379  0.5772
62297SOL     OW98869  11.797   2.098  10.513  0.1350 -0.7935 -0.0907
62297SOL    HW198870  11.749   2.052  10.582 -2.2314 -0.9017 -1.6721
62297SOL    HW298871  11.871   2.041  10.493 -0.8486 -2.2720  0.2914
62298SOL     OW98872   1.976  12.058  10.626 -0.1107  0.5459  0.1624
62298SOL    HW198873   1.885  12.075  10.652 -0.6343  0.6439 -1.6251
62298SOL    HW298874   2.000  12.131  10.571 -0.0447 -0.9741 -1.9458
62299SOL     OW98875   5.177   4.615   4.122 -0.3624 -0.2704 -0.1860
62299SOL    HW198876   5.143   4.541   4.172 -0.1753  0.5363  1.1989
62299SOL    HW298877   5.123   4.617   4.042 -1.0125 -1.2911  0.2059
62300SOL     OW98878   6.493   8.878   2.502 -0.3767 -0.0648  0.4014
62300SOL    HW198879   6.585   8.886   2.477 -0.6506  0.3733 -0.4968
62300SOL    HW298880   6.447   8.941   2.446 -1.1521  0.1398  1.2513
62301SOL     OW98881   6.407  13.097   1.613 -0.0478  0.5432 -0.3970
62301SOL    HW198882   6.422  13.016   1.661 -2.1433  0.2311 -0.1632
62301SOL    HW298883   6.397  13.070   1.522  3.2864  1.0683 -1.0606
62302SOL     OW98884  13.677  11.577  13.988 -0.0390  0.2221 -0.2499
62302SOL    HW198885  13.762  11.570  13.944  0.6927  0.6786  1.0110
62302SOL    HW298886  13.614  11.547  13.924  1.0520  0.1467 -1.3305
62303SOL     OW98887  12.412   3.742   7.334 -0.4405  0.3128  0.2253
62303SOL    HW198888  12.378   3.685   7.403  0.3399  0.5589  0.8180
62303SOL    HW298889  12.391   3.696   7.253 -0.6627 -0.3604  0.6572
62304SOL     OW98890   7.406   8.087   1.689 -0.0944  0.1449  0.0216
62304SOL    HW198891   7.349   8.010   1.697  0.7934 -0.4455  0.8868
62304SOL    HW298892   7.363   8.142   1.623 -2.1665  0.1884  1.3185
62305SOL     OW98893  11.602  10.365   8.521  0.2939  0.6300  0.5548
62305SOL    HW198894  11.651  10.349   8.602  0.3482 -1.7113  0.1297
62305SOL    HW298895  11.518  10.322   8.535  0.0488  0.7743 -0.3984
62306SOL     OW98896   9.105   0.498   9.569 -0.2821 -0.1819 -0.9745
62306SOL    HW198897   9.140   0.587   9.570  1.7496 -0.8226  2.5231
62306SOL    HW298898   9.123   0.466   9.481  3.9537  1.2089 -0.8578
62307SOL     OW98899  13.227  13.641   7.959 -0.3517 -0.3967 -0.0742
62307SOL    HW198900  13.200  13.588   7.884  1.2030  0.0614 -1.0161
62307SOL    HW298901  13.271  13.580   8.018  0.3265 -0.3949 -0.5670
62308SOL     OW98902   5.591  12.190   7.405  0.7981 -0.1337  0.4381
62308SOL    HW198903   5.540  12.147   7.336  1.6881  0.2429 -0.4847
62308SOL    HW298904   5.651  12.248   7.357  1.2470  0.3385  1.5523
62309SOL     OW98905   8.107   3.439  14.013  0.2833  0.7375  0.0189
62309SOL    HW198906   8.030   3.386  13.995  0.4764  0.2767  0.5335
62309SOL    HW298907   8.172   3.410  13.949 -0.6644  2.7411 -2.0127
62310SOL     OW98908  12.184  12.381   0.936  0.0933 -0.6556  0.0837
62310SOL    HW198909  12.163  12.309   0.995 -2.7301  0.9375  1.2559
62310SOL    HW298910  12.121  12.372   0.864 -0.5277  0.7309  0.4078
62311SOL     OW98911   1.047   6.516  11.355  0.1098 -0.4368  0.1461
62311SOL    HW198912   1.104   6.593  11.360 -0.4121 -0.0348 -0.0564
62311SOL    HW298913   0.961   6.552  11.335  0.0607 -1.1535 -0.9730
62312SOL     OW98914   8.678   4.447   1.363 -0.1189  0.3287  0.4921
62312SOL    HW198915   8.609   4.513   1.361 -0.0396  0.5115  2.0845
62312SOL    HW298916   8.724   4.463   1.446  1.4024 -0.2256 -0.2080
62313SOL     OW98917   6.289   9.812   7.258  0.1345 -0.6379 -0.6079
62313SOL    HW198918   6.375   9.817   7.216  0.8171 -1.8946  0.5705
62313SOL    HW298919   6.243   9.889   7.226  0.8411 -1.1664 -3.1291
62314SOL     OW98920   3.677   1.256   9.312 -0.4620  0.5119 -0.5212
62314SOL    HW198921   3.605   1.299   9.358  0.2080  1.1583 -0.0655
62314SOL    HW298922   3.746   1.321   9.309 -0.1624  0.1604 -1.6449
62315SOL     OW98923   4.967   5.323   9.098 -0.5883  0.0571 -0.5651
62315SOL    HW198924   4.944   5.309   9.007  0.7964 -0.0809 -0.9173
62315SOL    HW298925   4.994   5.415   9.102 -1.0781  0.1862 -0.2003
62316SOL     OW98926   8.393   2.511  13.961 -0.1119  0.0670 -0.8270
62316SOL    HW198927   8.476   2.470  13.936 -0.3862 -0.4333 -0.9430
62316SOL    HW298928   8.345   2.521  13.879 -0.3848 -0.1478 -0.6946
62317SOL     OW98929   6.780   6.294  10.091 -0.0715 -0.0809  0.0496
62317SOL    HW198930   6.859   6.283  10.144  1.0145 -0.6496 -1.5838
62317SOL    HW298931   6.714   6.326  10.152  1.2295 -0.2429  1.6172
62318SOL     OW98932  12.590   7.083   9.751  0.4410  0.2739  0.0552
62318SOL    HW198933  12.525   7.123   9.810  0.5512  0.0872  0.3069
62318SOL    HW298934  12.543   7.071   9.669  0.4717  1.1425 -0.1022
62319SOL     OW98935   3.765  12.254   1.756  0.3719 -0.6101 -0.2567
62319SOL    HW198936   3.742  12.194   1.827  1.1810  0.1211  0.6578
62319SOL    HW298937   3.690  12.314   1.751  1.7264  1.5029  2.4179
62320SOL     OW98938   9.722  11.553  11.302  0.4412  0.0120  0.2322
62320SOL    HW198939   9.646  11.545  11.360  0.5452 -0.7493  0.2839
62320SOL    HW298940   9.732  11.647  11.287 -0.0812  0.1623  0.7942
62321SOL     OW98941   4.981   7.538   8.735 -0.5292  0.1191 -0.1962
62321SOL    HW198942   4.975   7.552   8.829  1.0944 -2.1737  0.3200
62321SOL    HW298943   4.907   7.480   8.715 -1.1074  0.9214 -0.4302
62322SOL     OW98944   0.376   8.334  11.709 -0.5661  0.2347  0.3606
62322SOL    HW198945   0.439   8.351  11.639 -0.0659  2.3247  1.2192
62322SOL    HW298946   0.332   8.253  11.683  2.5892 -1.4388 -0.1485
62323SOL     OW98947   5.841   6.433   1.012  0.7109 -0.7191 -0.7441
62323SOL    HW198948   5.836   6.366   0.945 -0.3790  1.3387 -2.8540
62323SOL    HW298949   5.924   6.479   0.994  0.0394  0.3381 -1.2360
62324SOL     OW98950   0.929   7.931   4.071 -0.2006 -0.3874 -0.2576
62324SOL    HW198951   1.023   7.938   4.086 -0.3223  1.0376  0.0062
62324SOL    HW298952   0.895   8.019   4.089 -1.6536 -0.9935  0.1699
62325SOL     OW98953  10.557   4.067   5.484 -0.0602 -0.3517 -0.4329
62325SOL    HW198954  10.597   4.126   5.419  1.1073 -1.2226 -0.5362
62325SOL    HW298955  10.573   4.110   5.568 -0.0087 -0.0899 -0.5736
62326SOL     OW98956   2.122   3.619   0.250  0.0119  1.0753  0.2012
62326SOL    HW198957   2.137   3.554   0.318  0.8959  0.8836 -0.1638
62326SOL    HW298958   2.200   3.675   0.253  1.5321 -0.6351 -2.5341
62327SOL     OW98959   2.387   0.341   0.075  0.3344  0.4705  0.1308
62327SOL    HW198960   2.471   0.350   0.031  0.1799  0.4447 -0.1692
62327SOL    HW298961   2.327   0.308   0.008 -0.1488  1.4077  0.0808
62328SOL     OW98962   8.516  12.252   9.780  0.7216 -0.3709 -0.5051
62328SOL    HW198963   8.499  12.165   9.817  3.5227  0.1102  2.3734
62328SOL    HW298964   8.609  12.251   9.758  0.9594  2.0300  0.1487
62329SOL     OW98965   0.967  13.114  11.935  0.0496  0.0346 -0.1451
62329SOL    HW198966   0.926  13.028  11.940 -1.6040  0.8286  1.0171
62329SOL    HW298967   1.034  13.114  12.002 -1.1311  0.1971  1.0791
62330SOL     OW98968   9.624  12.934   1.649  0.1237 -0.1491 -0.3487
62330SOL    HW198969   9.646  12.978   1.567 -0.1724  0.0362 -0.3333
62330SOL    HW298970   9.532  12.909   1.638  0.2216 -0.5507 -0.2613
62331SOL     OW98971   1.597   8.130   0.502  0.2035 -0.9466  0.4426
62331SOL    HW198972   1.688   8.136   0.473  0.4795 -0.1988  1.4304
62331SOL    HW298973   1.582   8.036   0.514  0.6012 -1.1342 -0.4308
62332SOL     OW98974   3.986   8.359   8.893  0.1383  0.1869  0.1910
62332SOL    HW198975   3.927   8.314   8.955 -1.1699  0.4730 -0.7965
62332SOL    HW298976   3.949   8.339   8.807  1.6643  0.1768 -0.4852
62333SOL     OW98977  12.917  11.295   9.806 -0.2170 -0.8787 -0.2370
62333SOL    HW198978  12.849  11.237   9.841 -0.1668 -0.3094  0.8415
62333SOL    HW298979  12.999  11.251   9.827 -0.1335  0.0025  1.4617
62334SOL     OW98980   1.094   1.318   9.583 -0.0704  0.4769 -0.3765
62334SOL    HW198981   1.053   1.381   9.642  1.0682  0.8236  0.0800
62334SOL    HW298982   1.022   1.261   9.555 -1.3061  2.4354 -1.4335
62335SOL     OW98983  13.776   1.585   0.129 -0.3206  0.3483 -0.2428
62335SOL    HW198984  13.859   1.606   0.085 -0.6686  0.7602 -0.7114
62335SOL    HW298985  13.771   1.489   0.127 -1.2030  0.3839 -2.7912
62336SOL     OW98986   0.957   7.994   1.229  0.6825 -0.1434  0.3802
62336SOL    HW198987   0.957   8.047   1.150  1.3176 -1.0509 -0.2483
62336SOL    HW298988   0.908   8.046   1.293  1.8854  1.5247  0.0124
62337SOL     OW98989   9.555   8.329   7.802  0.1678  0.1454 -0.5800
62337SOL    HW198990   9.599   8.343   7.885 -0.8578 -0.7119  0.1201
62337SOL    HW298991   9.557   8.415   7.760 -1.4411  1.2402  1.3964
62338SOL     OW98992  11.429   3.413   6.379  0.1767  0.5795  0.2036
62338SOL    HW198993  11.500   3.358   6.411 -0.0045  0.1641 -0.1104
62338SOL    HW298994  11.418   3.388   6.288 -0.6767  0.3169  0.3732
62339SOL     OW98995  10.621  10.813   5.352 -0.2249 -0.3408  0.6036
62339SOL    HW198996  10.537  10.860   5.347  0.6762  1.4826  1.3725
62339SOL    HW298997  10.656  10.818   5.264  1.3642  3.6018  1.2265
62340SOL     OW98998  10.157  13.060  13.328 -0.6292 -0.2024 -0.5649
62340SOL    HW198999  10.102  13.106  13.392 -0.9601 -2.7665  1.1510
62340SOL    HW299000  10.247  13.081  13.353 -0.7385  1.4870 -1.4312
62341SOL     OW99001   6.738   9.757  11.176 -0.0334  0.1499 -0.0777
62341SOL    HW199002   6.648   9.729  11.159 -0.9432  0.7905  2.9797
62341SOL    HW299003   6.737   9.851  11.156 -0.1581  0.2268  0.2814
62342SOL     OW99004   1.377   9.395   3.217 -0.6313 -0.3613  0.4813
62342SOL    HW199005   1.467   9.393   3.250  0.0743  0.1273 -1.3068
62342SOL    HW299006   1.351   9.486   3.223 -1.1466 -0.5435  1.2556
62343SOL     OW99007   4.135   8.998   2.022  0.1360  0.0618  0.5139
62343SOL    HW199008   4.199   9.025   1.956  0.9794 -1.3624  0.7079
62343SOL    HW299009   4.092   8.921   1.984  0.7518 -0.8841  1.6528
62344SOL     OW99010   0.680  13.742   7.072  0.4123  0.6813  0.0605
62344SOL    HW199011   0.654  13.810   7.134 -0.7796  0.5839 -0.2904
62344SOL    HW299012   0.770  13.763   7.048 -0.0445  2.3410 -0.3067
62345SOL     OW99013   4.034   8.671  10.947 -0.0964  0.9408  0.6204
62345SOL    HW199014   3.989   8.632  11.022 -0.5000  0.8880  0.3544
62345SOL    HW299015   3.966   8.681  10.881  0.8606 -2.1272 -0.9997
62346SOL     OW99016   8.144   2.834   4.584  0.4527 -0.0568 -0.0729
62346SOL    HW199017   8.065   2.873   4.547  0.3774  1.4995  1.6233
62346SOL    HW299018   8.118   2.802   4.670  1.8058  1.2070  0.8590
62347SOL     OW99019   8.827   5.839   2.555  0.7097  0.9056  0.5423
62347SOL    HW199020   8.762   5.784   2.512  0.1638  0.7271  1.5437
62347SOL    HW299021   8.848   5.791   2.636 -0.0041  2.2860  1.5825
62348SOL     OW99022   1.816  10.418   6.221 -0.2234  0.0138  0.1664
62348SOL    HW199023   1.759  10.344   6.199  1.5551 -1.0494 -1.1407
62348SOL    HW299024   1.796  10.436   6.313 -1.9558 -0.9219  0.0289
62349SOL     OW99025  10.591  13.878   2.802 -0.4160 -0.1376  0.1518
62349SOL    HW199026  10.655  13.901   2.734  1.0886 -2.2376  0.7599
62349SOL    HW299027  10.510  13.862   2.754  0.0823  0.3471 -0.9093
62350SOL     OW99028   3.131  13.139   5.889  0.6781  0.7853 -0.5470
62350SOL    HW199029   3.150  13.050   5.919  2.3890  0.8625 -1.2561
62350SOL    HW299030   3.043  13.134   5.851  1.3015 -0.9800 -1.8973
62351SOL     OW99031   9.498   8.410   9.552  0.2469 -0.2643 -0.0900
62351SOL    HW199032   9.488   8.504   9.541 -1.0896 -0.5471 -1.5660
62351SOL    HW299033   9.526   8.400   9.643 -1.3434  1.4553  0.6640
62352SOL     OW99034   7.798   5.610  13.308 -0.3011  0.2828  0.0167
62352SOL    HW199035   7.800   5.540  13.243 -1.6138 -0.3044  0.5728
62352SOL    HW299036   7.706   5.638  13.311 -0.1999  0.5621  1.3158
62353SOL     OW99037   3.567   4.384  10.548  0.0473  0.4708 -0.2647
62353SOL    HW199038   3.653   4.405  10.511  0.2364  0.1723  0.0030
62353SOL    HW299039   3.504   4.425  10.488  0.1458 -2.8669 -2.9922
62354SOL     OW99040   3.195   3.311   9.618  0.1220 -0.1028 -0.3701
62354SOL    HW199041   3.174   3.234   9.566 -2.0108 -0.5268  1.0144
62354SOL    HW299042   3.232   3.277   9.699  1.0120  0.4441 -0.5275
62355SOL     OW99043  13.096   6.800  13.438  0.0296 -0.6876  0.5547
62355SOL    HW199044  13.136   6.714  13.426  0.4919 -0.1701 -2.6615
62355SOL    HW299045  13.139   6.855  13.372 -1.0485  1.7290  1.7630
62356SOL     OW99046   5.327   5.073  10.614  0.3285 -0.4068 -0.8662
62356SOL    HW199047   5.391   5.141  10.634 -1.1744  0.9842 -0.5158
62356SOL    HW299048   5.246   5.122  10.595 -0.2031 -1.9732 -3.0855
62357SOL     OW99049  10.770   3.949   1.318  0.4184 -0.1094  0.4837
62357SOL    HW199050  10.837   3.943   1.386  1.0327 -0.7795 -0.1579
62357SOL    HW299051  10.814   3.920   1.238 -0.5139 -0.1176 -0.0464
62358SOL     OW99052  10.064   9.761  11.238 -0.3031 -0.0144 -0.9380
62358SOL    HW199053  10.074   9.767  11.333 -0.7444  1.0735 -0.9365
62358SOL    HW299054   9.973   9.734  11.226  0.0474 -1.2037 -1.0542
62359SOL     OW99055  13.619   9.150   1.519 -0.4450  0.4157 -0.2003
62359SOL    HW199056  13.674   9.076   1.495 -2.0135 -0.6036 -0.7900
62359SOL    HW299057  13.582   9.180   1.437  0.0434  1.7825  0.0513
62360SOL     OW99058  12.782   6.239   9.037 -0.3916  0.4577 -0.0356
62360SOL    HW199059  12.771   6.243   9.133 -1.5523  1.3478 -0.1801
62360SOL    HW299060  12.745   6.154   9.013 -1.8327  0.9952  0.1427
62361SOL     OW99061   8.846   2.631  13.276 -0.0245 -0.0769 -0.5710
62361SOL    HW199062   8.818   2.617  13.367  0.1868  0.4044 -0.4299
62361SOL    HW299063   8.825   2.549  13.232  0.0628 -0.3901 -0.0369
62362SOL     OW99064   7.191   5.039  12.763  0.8445  0.7680  0.3867
62362SOL    HW199065   7.190   5.006  12.673 -0.6203 -0.1791  0.7088
62362SOL    HW299066   7.108   5.009  12.800  1.9751  0.0025  2.4588
62363SOL     OW99067   1.833   4.111  12.192 -0.3607  0.2651 -0.6115
62363SOL    HW199068   1.891   4.167  12.139 -0.7525  0.1695 -1.1468
62363SOL    HW299069   1.884   4.031  12.205  1.9782  2.1086  3.6533
62364SOL     OW99070   5.657   7.638  12.978 -0.7456 -0.3235  0.5804
62364SOL    HW199071   5.591   7.623  12.909 -0.2402 -0.8914  0.2042
62364SOL    HW299072   5.719   7.566  12.966 -0.7635 -0.5465  1.7719
62365SOL     OW99073   1.956   9.765   4.172  0.6014 -0.2883 -0.7854
62365SOL    HW199074   1.937   9.710   4.248  1.2039 -0.3150 -0.6529
62365SOL    HW299075   1.911   9.848   4.191  1.2951 -0.0599 -0.0922
62366SOL     OW99076  13.234  12.682   7.140  0.1413 -0.1788  0.4447
62366SOL    HW199077  13.260  12.683   7.232 -0.5011 -0.0153  0.6260
62366SOL    HW299078  13.272  12.761   7.103 -0.6481  0.4097  0.8671
62367SOL     OW99079   6.482   4.508  11.160 -0.2549  0.0513 -0.6450
62367SOL    HW199080   6.557   4.561  11.131  0.0674 -0.0524 -0.0048
62367SOL    HW299081   6.509   4.418  11.143 -0.1032 -0.0047 -0.1249
62368SOL     OW99082   3.215  12.247   2.672 -0.4225 -0.2912 -0.4960
62368SOL    HW199083   3.220  12.214   2.761  0.2988 -0.5431 -0.6260
62368SOL    HW299084   3.210  12.342   2.682 -1.6141 -0.3723 -0.1546
62369SOL     OW99085   8.221   3.265   2.993  0.2157  0.8282 -0.0825
62369SOL    HW199086   8.236   3.271   2.899 -1.2870 -1.4064 -0.5625
62369SOL    HW299087   8.126   3.274   3.003  0.4592  2.2250  1.3901
62370SOL     OW99088   1.376  11.529   8.880 -0.1029 -0.0112 -0.0130
62370SOL    HW199089   1.454  11.474   8.883  0.2836  0.5398  0.4005
62370SOL    HW299090   1.318  11.493   8.947  0.8266  1.0472  1.4153
62371SOL     OW99091   7.115   3.508   9.672  0.0768  0.2104 -0.1550
62371SOL    HW199092   7.059   3.480   9.745  0.5082  0.2386  0.1917
62371SOL    HW299093   7.200   3.525   9.712  0.0278  1.3126 -0.4797
62372SOL     OW99094  10.175   2.859   8.350 -1.0903 -0.9200  0.1608
62372SOL    HW199095  10.140   2.869   8.262  0.3986  0.4071 -0.3074
62372SOL    HW299096  10.210   2.945   8.373  1.3880 -2.0036  0.7905
62373SOL     OW99097   9.684   7.838   8.482 -0.3534  0.2090 -0.1499
62373SOL    HW199098   9.737   7.905   8.440  0.7316 -0.7347 -0.3364
62373SOL    HW299099   9.655   7.878   8.564 -0.7502  1.3201 -0.8213
62374SOL     OW99100  11.649  12.489   3.118  0.2152 -0.6664 -0.4498
62374SOL    HW199101  11.660  12.428   3.045 -0.1942  1.9140 -2.8380
62374SOL    HW299102  11.737  12.498   3.153  1.0270  0.1349 -2.5115
62375SOL     OW99103   2.869  13.533   1.108  0.3087 -0.1310 -0.0271
62375SOL    HW199104   2.917  13.569   1.182 -1.1106 -1.6988  1.7520
62375SOL    HW299105   2.790  13.587   1.102 -0.0819 -0.6546  0.3067
62376SOL     OW99106   0.393  13.292   8.544  0.4852  0.4714  0.4752
62376SOL    HW199107   0.488  13.281   8.543  0.3828 -0.7304  1.2734
62376SOL    HW299108   0.373  13.341   8.465  1.8775  1.6984  0.8399
62377SOL     OW99109   5.270  11.926  13.688  0.3995  0.3907  0.5521
62377SOL    HW199110   5.361  11.956  13.688  0.0188  1.8211  2.8043
62377SOL    HW299111   5.221  12.002  13.656 -0.0498 -0.3062 -0.4605
62378SOL     OW99112  12.861   1.831   7.628 -0.0804  0.3245 -0.5857
62378SOL    HW199113  12.783   1.863   7.671  1.1585  0.1803  1.9233
62378SOL    HW299114  12.832   1.753   7.580 -1.1547 -0.8886  1.8972
62379SOL     OW99115   9.427   3.012  10.363  0.4216  0.7060  0.0480
62379SOL    HW199116   9.496   3.063  10.406  0.7894  1.6220 -1.5147
62379SOL    HW299117   9.345   3.051  10.393  0.5706  0.0681  1.3689
62380SOL     OW99118   8.313   6.659   0.624  0.9933 -0.3086  0.0291
62380SOL    HW199119   8.294   6.705   0.706 -1.5500 -1.6887  0.3330
62380SOL    HW299120   8.274   6.715   0.556 -0.1742 -0.9238  0.1746
62381SOL     OW99121   4.321   8.291  13.825 -0.0192  0.6762 -0.0917
62381SOL    HW199122   4.287   8.248  13.746 -1.2971 -0.2275  0.9181
62381SOL    HW299123   4.244   8.304  13.880  1.0524 -0.1115  1.6688
62382SOL     OW99124   1.799   9.520   8.742  0.3636  0.0918 -0.3737
62382SOL    HW199125   1.823   9.557   8.657  0.1121 -0.3115 -0.6271
62382SOL    HW299126   1.881   9.486   8.778  0.5269  0.5381 -0.3108
62383SOL     OW99127   8.665   4.204  13.872  0.1807 -0.1492 -0.2107
62383SOL    HW199128   8.755   4.172  13.863 -0.6077 -2.0917 -1.9033
62383SOL    HW299129   8.625   4.147  13.936 -1.0359 -2.3688 -2.7418
62384SOL     OW99130  13.154  13.174  12.553  0.0162 -0.0871 -0.3514
62384SOL    HW199131  13.085  13.137  12.607  1.5092 -3.1787 -0.2958
62384SOL    HW299132  13.190  13.246  12.604  0.5396 -2.0830  2.3020
62385SOL     OW99133   0.480   2.304  11.510 -0.5098 -0.4406 -0.0827
62385SOL    HW199134   0.533   2.226  11.498  1.0633  0.6588 -0.5563
62385SOL    HW299135   0.411   2.277  11.571  1.1855 -1.6392  1.4150
62386SOL     OW99136   6.254   7.078   4.892 -0.1186  0.1131  0.0109
62386SOL    HW199137   6.249   7.081   4.988  1.0455  1.4331  0.0586
62386SOL    HW299138   6.185   7.015   4.867  0.6992 -1.6157  1.7884
62387SOL     OW99139   3.219   4.768   0.362  0.0346 -0.4553 -0.0583
62387SOL    HW199140   3.305   4.751   0.400  0.3890 -2.1902 -1.5239
62387SOL    HW299141   3.227   4.741   0.271 -1.6987  0.6272 -0.5803
62388SOL     OW99142  11.189   6.821   5.662 -0.9161  0.4876  0.0519
62388SOL    HW199143  11.230   6.908   5.659 -1.1289  0.5904  0.1004
62388SOL    HW299144  11.231   6.777   5.736 -1.1743  0.7370  0.3501
62389SOL     OW99145   0.532   2.575   4.871  0.3247 -0.2880 -0.0756
62389SOL    HW199146   0.545   2.496   4.818 -1.0003  0.0553 -0.9552
62389SOL    HW299147   0.587   2.640   4.828  1.0632 -0.6004  0.3783
62390SOL     OW99148   9.858  13.138  11.842  0.1155 -0.7795 -0.5124
62390SOL    HW199149   9.806  13.058  11.844 -1.3747  0.1491  0.0719
62390SOL    HW299150   9.802  13.204  11.884  2.4236 -0.1005  1.7725
62391SOL     OW99151   6.631   9.817   7.431 -0.1183 -0.1915  1.1859
62391SOL    HW199152   6.703   9.786   7.376 -0.8477 -1.7507  1.0513
62391SOL    HW299153   6.668   9.824   7.519  0.3161 -0.5217  1.0279
62392SOL     OW99154  10.618   3.210   7.849  0.5093  0.1417 -0.3807
62392SOL    HW199155  10.563   3.286   7.828  0.5160  0.5865  1.1334
62392SOL    HW299156  10.556   3.138   7.859  0.3078  0.3972  0.2116
62393SOL     OW99157  12.862   8.304   4.425 -0.2049  0.5231 -0.6503
62393SOL    HW199158  12.913   8.223   4.430 -0.1747  0.4966 -1.2832
62393SOL    HW299159  12.795   8.294   4.493 -2.7647 -1.8852 -3.2193
62394SOL     OW99160   3.394   2.315   9.917 -0.4863  0.2150  0.4639
62394SOL    HW199161   3.488   2.334   9.910 -0.3554 -0.6832 -0.4176
62394SOL    HW299162   3.389   2.220   9.918 -1.4772  0.2009 -1.4437
62395SOL     OW99163   6.853   5.011   1.223  0.2438 -0.0274  0.4885
62395SOL    HW199164   6.790   5.082   1.210  0.2004 -0.1710 -0.1007
62395SOL    HW299165   6.846   4.958   1.144 -1.0173 -1.7122  1.6498
62396SOL     OW99166   7.855   9.591   6.201 -0.0233  0.3271 -0.6275
62396SOL    HW199167   7.901   9.565   6.121 -0.3370  0.0932 -0.7335
62396SOL    HW299168   7.919   9.578   6.271  0.4229  1.0221 -0.8991
62397SOL     OW99169   9.758   5.285   8.493 -0.2897 -0.2363  0.0172
62397SOL    HW199170   9.829   5.252   8.439 -0.6021  2.9921 -2.7245
62397SOL    HW299171   9.683   5.292   8.434 -2.2558 -1.2688  2.2026
62398SOL     OW99172  11.023   3.193   9.426 -0.5643  1.0122  0.3673
62398SOL    HW199173  11.023   3.237   9.341 -0.8459 -0.3932 -0.3861
62398SOL    HW299174  11.081   3.118   9.415  0.8610  1.8093  1.9859
62399SOL     OW99175  10.231   2.131   4.438  0.0688  0.0764 -0.5873
62399SOL    HW199176  10.224   2.078   4.517 -0.4968  2.3967  1.0537
62399SOL    HW299177  10.322   2.124   4.412 -0.1618 -2.2840 -0.9402
62400SOL     OW99178   0.619   3.884   1.400 -0.4178  0.7466  0.4510
62400SOL    HW199179   0.615   3.807   1.456 -0.0835 -1.1139 -1.9319
62400SOL    HW299180   0.529   3.897   1.369 -0.5576  1.6079  1.1961
62401SOL     OW99181   0.303   2.615   6.436  0.3031  0.3098 -0.0750
62401SOL    HW199182   0.293   2.521   6.424 -0.2193  0.2873  0.4877
62401SOL    HW299183   0.298   2.651   6.348 -0.0205 -0.1410 -0.2471
62402SOL     OW99184  10.007   5.802  13.462  0.0591  0.2599 -0.2657
62402SOL    HW199185   9.987   5.814  13.369  0.2938 -0.2262 -0.3815
62402SOL    HW299186   9.937   5.848  13.508  0.3312  1.1023 -0.6844
62403SOL     OW99187   9.234   0.398   1.708  0.1329 -0.1829 -0.4521
62403SOL    HW199188   9.198   0.340   1.775  1.5427  0.8794  1.2938
62403SOL    HW299189   9.322   0.366   1.693  0.6360  0.9609 -0.0732
62404SOL     OW99190   6.663   2.693  10.747 -0.7303  0.5734  0.1204
62404SOL    HW199191   6.618   2.622  10.793 -0.4441 -0.2187 -0.7807
62404SOL    HW299192   6.744   2.653  10.714  0.1520  1.6986  0.8274
62405SOL     OW99193   4.567   6.582  10.527  0.1746 -0.3125  0.1013
62405SOL    HW199194   4.557   6.672  10.496 -0.2268 -0.0006  1.0843
62405SOL    HW299195   4.478   6.551  10.541  0.3458 -0.2715  1.3777
62406SOL     OW99196   1.260   6.202   9.015  0.1900 -0.4042 -0.3310
62406SOL    HW199197   1.247   6.241   8.929  1.3113  1.8445  0.4294
62406SOL    HW299198   1.350   6.225   9.038 -0.1103 -0.8561  1.4634
62407SOL     OW99199   2.685   9.395   1.149  0.2666 -0.0692  0.0562
62407SOL    HW199200   2.731   9.325   1.195  1.0820  0.0667 -0.5215
62407SOL    HW299201   2.733   9.475   1.172  0.6000  0.0214 -0.8911
62408SOL     OW99202   2.996   9.603  13.191 -0.0940 -0.0824  0.5470
62408SOL    HW199203   2.969   9.623  13.281 -0.1750  0.9672  0.2988
62408SOL    HW299204   2.938   9.532  13.165 -0.1549 -0.3157  1.2827
62409SOL     OW99205   2.635   2.757   5.965  0.1123 -0.3442 -0.1789
62409SOL    HW199206   2.678   2.684   6.010  0.9115  0.8807  1.1451
62409SOL    HW299207   2.574   2.792   6.030 -1.2675 -0.6366 -1.2675
62410SOL     OW99208   0.858  11.946   9.307 -0.3359 -0.1675  0.2683
62410SOL    HW199209   0.837  11.968   9.216 -0.3430 -0.7466  0.1295
62410SOL    HW299210   0.867  12.031   9.350  0.3273  0.1314 -0.4233
62411SOL     OW99211   7.811   2.338  10.231 -0.0509 -0.4201 -0.3888
62411SOL    HW199212   7.795   2.375  10.318 -0.6674  1.5356 -1.2732
62411SOL    HW299213   7.724   2.323  10.195  0.1999 -1.6132 -0.5400
62412SOL     OW99214  13.385  11.328  10.617  0.2737 -0.1724 -0.0349
62412SOL    HW199215  13.419  11.354  10.532  1.7022 -1.8947 -0.0639
62412SOL    HW299216  13.339  11.245  10.601 -0.3972  0.0416  0.6942
62413SOL     OW99217   3.091  13.155   8.315  0.2523  0.0588 -0.3161
62413SOL    HW199218   3.183  13.175   8.331  0.0781  0.0652  0.7417
62413SOL    HW299219   3.092  13.091   8.244  1.1537 -1.0523  0.6543
62414SOL     OW99220  11.946  11.266   7.426 -0.0115 -0.6504 -0.7113
62414SOL    HW199221  11.860  11.223   7.429  0.3088 -1.2443  1.9418
62414SOL    HW299222  12.006  11.203   7.464  1.2511  0.5507 -0.6317
62415SOL     OW99223  13.435   3.416   1.392  0.5313 -0.6494  0.2967
62415SOL    HW199224  13.396   3.336   1.357  0.6138 -0.8562  0.6629
62415SOL    HW299225  13.360   3.473   1.410  0.3235 -1.2492  1.5037
62416SOL     OW99226   5.655  11.056   1.644 -0.0509 -0.2468 -0.2510
62416SOL    HW199227   5.603  11.053   1.725  0.8169 -0.7120  0.3114
62416SOL    HW299228   5.606  11.002   1.582 -0.8066  0.2357 -0.0895
62417SOL     OW99229   1.070   9.760   1.422 -0.3288  0.2699 -0.2284
62417SOL    HW199230   0.990   9.721   1.386  0.3879 -1.5569  0.0182
62417SOL    HW299231   1.091   9.832   1.363 -1.1204 -0.4429 -1.4160
62418SOL     OW99232   5.779   9.243   1.528 -0.2840 -0.5607  0.9724
62418SOL    HW199233   5.766   9.336   1.546  1.9163 -0.1287  0.5463
62418SOL    HW299234   5.823   9.210   1.606 -0.5029 -1.1200  0.8605
62419SOL     OW99235  11.522   9.506   9.345 -0.1695 -0.1009 -0.1861
62419SOL    HW199236  11.466   9.578   9.317  0.1787  0.4543  0.5022
62419SOL    HW299237  11.594   9.505   9.282 -0.1137  0.2393 -0.1301
62420SOL     OW99238   4.088  12.009   7.125 -0.3921 -0.5892 -0.0710
62420SOL    HW199239   4.090  12.104   7.108  1.2120 -1.0001 -2.9383
62420SOL    HW299240   4.103  12.001   7.219 -1.4733  1.9915  0.4197
62421SOL     OW99241   8.571  11.713   5.510  0.1468 -0.2684  0.2383
62421SOL    HW199242   8.650  11.746   5.466 -1.0236  2.3624 -0.0262
62421SOL    HW299243   8.499  11.763   5.472 -1.7529 -2.7217  0.3472
62422SOL     OW99244   9.195   6.596   7.897  0.6369  1.1630 -0.5186
62422SOL    HW199245   9.126   6.558   7.843  0.7241  0.4379 -0.1338
62422SOL    HW299246   9.150   6.661   7.952  0.0127 -0.2019  0.6385
62423SOL     OW99247  13.304  12.650  12.963  0.4913 -0.2909 -0.1534
62423SOL    HW199248  13.228  12.662  13.020 -1.0499 -1.1930 -1.9314
62423SOL    HW299249  13.364  12.597  13.015  0.7477  1.8544  1.9520
62424SOL     OW99250   8.164   8.476  10.398  0.0437 -0.0211 -0.6334
62424SOL    HW199251   8.194   8.501  10.311  0.8569 -0.4201 -0.4761
62424SOL    HW299252   8.069   8.471  10.390  0.0975  0.1186 -1.4504
62425SOL     OW99253  13.680   1.459  11.126  0.4491 -0.3294  0.3873
62425SOL    HW199254  13.753   1.424  11.076  1.3681  1.5162  0.3606
62425SOL    HW299255  13.629   1.510  11.063  0.3946  0.2268  0.8742
62426SOL     OW99256   1.398   3.597   6.392 -0.0712 -0.3689 -0.2110
62426SOL    HW199257   1.430   3.642   6.470  0.4339 -2.1455  0.6628
62426SOL    HW299258   1.400   3.504   6.416 -0.6511 -0.8983 -2.0775
62427SOL     OW99259   3.187   5.499   3.259  0.1132 -0.0069  0.0949
62427SOL    HW199260   3.100   5.522   3.292  1.7490  2.7042  2.9920
62427SOL    HW299261   3.230   5.455   3.332  1.6769  0.0217 -0.7711
62428SOL     OW99262  13.242  12.026   3.797  0.3349  0.0815 -1.0146
62428SOL    HW199263  13.283  12.112   3.796  0.1843  0.1504 -1.7959
62428SOL    HW299264  13.154  12.043   3.831  0.9510 -0.0861  0.7845
62429SOL     OW99265   6.369   2.961   1.629 -0.1601 -0.1060 -0.0214
62429SOL    HW199266   6.331   3.048   1.639 -0.2570  0.0033 -1.2192
62429SOL    HW299267   6.301   2.902   1.663 -0.4332  0.2329  0.0298
62430SOL     OW99268   6.219   7.456   6.181  0.0985 -0.6266  0.3247
62430SOL    HW199269   6.128   7.475   6.203  0.4183 -1.0336  2.1447
62430SOL    HW299270   6.269   7.526   6.222  0.5528  0.7074 -2.2596
62431SOL     OW99271   0.487   6.143   7.220  0.0160 -0.2854  0.5791
62431SOL    HW199272   0.430   6.073   7.188  2.8836 -3.0037  0.9047
62431SOL    HW299273   0.433   6.222   7.217 -2.6403 -1.9982 -2.2576
62432SOL     OW99274  12.106  11.350   6.665  0.8849  0.3377  0.0032
62432SOL    HW199275  12.165  11.384   6.598 -0.1416 -0.1454 -1.1863
62432SOL    HW299276  12.151  11.274   6.701  1.9007  1.2073  0.6172
62433SOL     OW99277   6.713   3.329   6.771 -0.9787  0.0055 -0.2239
62433SOL    HW199278   6.619   3.340   6.757 -0.8354 -1.5227 -3.1684
62433SOL    HW299279   6.753   3.351   6.687  0.9630 -2.5340 -0.0957
62434SOL     OW99280   4.636  13.946   5.336 -0.0292  0.4525  0.4894
62434SOL    HW199281   4.647  14.020   5.276  2.6988  0.0687  0.3823
62434SOL    HW299282   4.689  13.970   5.412 -0.3052 -0.7551  1.0796
62435SOL     OW99283   0.904   6.271   6.667 -0.2800 -0.0502 -0.0251
62435SOL    HW199284   0.986   6.316   6.686 -0.5752  0.1840  0.7150
62435SOL    HW299285   0.896   6.205   6.736 -1.5633  1.0797  0.9643
62436SOL     OW99286   4.333  13.430   9.990 -0.6292 -0.4084  0.4057
62436SOL    HW199287   4.261  13.475   9.946 -0.7171 -0.1599  0.7998
62436SOL    HW299288   4.316  13.442  10.084 -0.2224 -0.5762  0.5057
62437SOL     OW99289   2.899   2.541  11.978 -0.1536  0.1068  0.6787
62437SOL    HW199290   2.878   2.601  11.907  0.4949  0.4392  0.7565
62437SOL    HW299291   2.814   2.515  12.014 -0.4605  0.4453  0.2043
62438SOL     OW99292   6.272  10.340  10.993 -0.3510  0.2947  0.0006
62438SOL    HW199293   6.275  10.245  11.002  1.0738  0.2536 -0.6777
62438SOL    HW299294   6.364  10.366  10.991 -0.7182  1.7635  0.8530
62439SOL     OW99295   7.022  13.115  11.465 -0.4391  0.4644 -0.0266
62439SOL    HW199296   6.998  13.107  11.557 -2.3040 -1.1434 -0.5798
62439SOL    HW299297   7.049  13.027  11.440  1.4036  1.1830 -0.7054
62440SOL     OW99298   3.375   8.627   3.654 -0.5011  0.1783  0.2480
62440SOL    HW199299   3.387   8.537   3.626  1.1798  0.9273 -1.6635
62440SOL    HW299300   3.280   8.642   3.647 -0.6110 -0.9477 -1.0863
62441SOL     OW99301   9.735   1.254  12.248 -0.5246  0.7524 -0.3921
62441SOL    HW199302   9.783   1.221  12.324 -0.0420  0.7386 -0.6964
62441SOL    HW299303   9.644   1.261  12.278 -0.5299 -0.2627 -0.1418
62442SOL     OW99304   4.087  12.443  10.914  0.2507  0.0494  0.1479
62442SOL    HW199305   4.056  12.528  10.944 -0.5070  0.3222 -1.3064
62442SOL    HW299306   4.023  12.381  10.947 -0.8917  0.4094 -1.2749
62443SOL     OW99307   1.102   6.598  10.100 -0.2865 -0.8716 -0.2872
62443SOL    HW199308   1.093   6.626  10.192  1.2084 -3.8567  0.8896
62443SOL    HW299309   1.013   6.598  10.067 -0.8285  0.6723  0.9990
62444SOL     OW99310   5.889   5.880   1.979  0.3575 -0.3801  0.3551
62444SOL    HW199311   5.858   5.856   2.067 -0.4375 -1.0907 -0.1035
62444SOL    HW299312   5.817   5.855   1.921  0.5494  0.8262 -0.4239
62445SOL     OW99313   6.970   6.068   8.365  0.8991 -0.1973  0.0466
62445SOL    HW199314   6.913   6.144   8.375 -0.3969 -1.0808 -0.4218
62445SOL    HW299315   6.944   6.009   8.435  1.8341 -0.2722  0.3471
62446SOL     OW99316   4.801  13.810  11.174  0.1772  0.5010  0.0402
62446SOL    HW199317   4.742  13.793  11.247  1.6764  0.3140  1.2684
62446SOL    HW299318   4.865  13.738  11.178  1.9322  1.9848  0.3501
62447SOL     OW99319   8.778   1.960   4.161  0.2457 -0.5527 -0.3121
62447SOL    HW199320   8.692   1.926   4.138  0.8891 -2.0742 -0.6000
62447SOL    HW299321   8.821   1.975   4.077  0.9935 -1.8144 -0.1736
62448SOL     OW99322   9.971   7.656   5.278  0.3604  0.3795  0.4221
62448SOL    HW199323  10.013   7.696   5.202 -0.9173  0.6892 -0.1423
62448SOL    HW299324   9.962   7.564   5.255 -0.3416  0.5400  0.0502
62449SOL     OW99325   3.429   9.213  12.078  0.2627  0.2178 -0.4199
62449SOL    HW199326   3.470   9.188  11.995  0.4211  0.6438 -0.4726
62449SOL    HW299327   3.382   9.135  12.106  2.3896 -0.8198  0.4601
62450SOL     OW99328   2.538   9.725  10.758  0.0729 -0.0219  0.2364
62450SOL    HW199329   2.555   9.796  10.819 -1.4032  0.1294  0.5119
62450SOL    HW299330   2.473   9.670  10.802 -1.2628  0.2557 -1.2881
62451SOL     OW99331  11.065   4.741   6.018  0.1686 -0.4246 -0.2311
62451SOL    HW199332  10.985   4.757   6.067  0.8202 -1.6819  1.3366
62451SOL    HW299333  11.083   4.648   6.031  2.4263  0.0276  0.3754
62452SOL     OW99334   2.816   7.069   6.411 -0.9917  0.2957 -0.2885
62452SOL    HW199335   2.766   7.004   6.362 -0.9349 -0.6553  0.8893
62452SOL    HW299336   2.776   7.153   6.386 -1.1408 -0.1748 -1.7219
62453SOL     OW99337   4.484   5.494   3.062 -0.1600  0.7434 -0.5402
62453SOL    HW199338   4.398   5.509   3.101 -0.5108 -0.6085 -0.7700
62453SOL    HW299339   4.467   5.438   2.987  1.1303 -1.2516  0.5837
62454SOL     OW99340   7.056  10.909   3.962 -0.4890 -0.1023 -0.8119
62454SOL    HW199341   7.124  10.928   3.898  0.2076 -0.7747 -0.2978
62454SOL    HW299342   6.996  10.850   3.916  1.1004 -2.2815 -0.2933
62455SOL     OW99343   1.915   5.427   0.802  0.0270  0.5032 -0.0265
62455SOL    HW199344   1.911   5.438   0.707 -2.3043 -0.0109 -0.0407
62455SOL    HW299345   1.949   5.339   0.815 -0.6139  0.1924 -0.4220
62456SOL     OW99346  10.191  10.433   9.929  0.4713  0.4412  0.1158
62456SOL    HW199347  10.220  10.493   9.998  0.8606  1.2799 -0.7588
62456SOL    HW299348  10.100  10.457   9.912  0.0415 -0.4540  1.0356
62457SOL     OW99349   6.206   3.254  13.884  0.5612 -0.8044 -0.0507
62457SOL    HW199350   6.212   3.179  13.826 -0.4061 -2.5950  2.0120
62457SOL    HW299351   6.257   3.229  13.961 -0.5826  0.2030  1.0958
62458SOL     OW99352  13.831   0.901   4.484 -0.2234 -0.9611  0.2172
62458SOL    HW199353  13.918   0.928   4.454 -0.2094 -1.1540  0.0803
62458SOL    HW299354  13.839   0.894   4.579 -0.1598 -0.7267  0.2298
62459SOL     OW99355   0.802   5.169  11.957  0.6766 -0.1108  0.9924
62459SOL    HW199356   0.843   5.085  11.978  1.1302 -0.2939 -0.5382
62459SOL    HW299357   0.865   5.212  11.899  0.2572  1.1091  1.4186
62460SOL     OW99358   0.442   0.615  12.364  0.0863 -0.3212  0.3279
62460SOL    HW199359   0.510   0.572  12.313 -0.0279 -1.5767  1.1860
62460SOL    HW299360   0.361   0.595  12.317  0.0118 -1.2571  0.8170
62461SOL     OW99361  10.131   2.289   0.905 -0.0299  0.5613 -0.1851
62461SOL    HW199362  10.050   2.332   0.932 -0.7455 -0.6418 -0.3259
62461SOL    HW299363  10.180   2.356   0.858 -0.0176  1.8969  1.6408
62462SOL     OW99364   0.651  10.051   0.003  0.4011 -0.0407  0.1302
62462SOL    HW199365   0.702   9.970   0.007 -2.0023 -1.7027 -0.9061
62462SOL    HW299366   0.617  10.062   0.092  0.9988  0.0638  0.3559
62463SOL     OW99367  11.634  14.023   1.007 -0.1752 -0.4300  0.2461
62463SOL    HW199368  11.586  14.072   0.940  0.2017  0.2052  0.4328
62463SOL    HW299369  11.704  13.978   0.959 -0.7256 -1.0765  0.0248
62464SOL     OW99370   3.672   1.201   1.217 -0.2056 -0.5816  0.2216
62464SOL    HW199371   3.688   1.176   1.126 -0.7926 -1.0247  0.2266
62464SOL    HW299372   3.622   1.127   1.253  1.0662 -0.9712  1.2553
62465SOL     OW99373   3.059   9.298  11.870  0.5995 -0.3704 -0.2948
62465SOL    HW199374   3.066   9.390  11.845  1.4304 -0.5909 -0.9349
62465SOL    HW299375   3.110   9.291  11.950  1.3175 -0.4446 -0.7490
62466SOL     OW99376   2.681   0.734   0.549  0.5839 -0.2862  0.7814
62466SOL    HW199377   2.656   0.678   0.623  2.3326 -2.6506 -0.2897
62466SOL    HW299378   2.747   0.793   0.585 -0.2321  0.1642  1.5911
62467SOL     OW99379  11.145   6.242   7.686 -0.3341 -0.2372  0.3221
62467SOL    HW199380  11.171   6.236   7.594  0.9316 -0.5581  0.6818
62467SOL    HW299381  11.171   6.330   7.712  1.8302 -1.0231  1.0651
62468SOL     OW99382   6.375   9.100  10.113 -0.0557 -0.4706  0.0587
62468SOL    HW199383   6.380   9.086  10.208  0.6273 -1.9992 -0.1705
62468SOL    HW299384   6.381   9.012  10.076  0.7325  0.1798 -1.4318
62469SOL     OW99385  10.763   6.211   5.870  0.1159  0.0453 -0.1681
62469SOL    HW199386  10.750   6.217   5.776 -1.9874 -0.2327  0.0496
62469SOL    HW299387  10.746   6.300   5.902 -2.0004 -0.4244  0.1754
62470SOL     OW99388  10.374   0.344  10.991 -0.8684  0.1771  0.0711
62470SOL    HW199389  10.281   0.364  10.996 -0.2139  3.9174  0.0868
62470SOL    HW299390  10.411   0.375  11.073  0.5037 -0.7912 -0.1339
62471SOL     OW99391  10.783   0.567  10.343 -0.3355  0.1880  0.1044
62471SOL    HW199392  10.752   0.485  10.304 -0.3173  0.3174 -0.1855
62471SOL    HW299393  10.748   0.635  10.286  0.5141  0.3364 -0.2566
62472SOL     OW99394   6.786   4.751  10.611 -0.2536 -0.6216  0.0265
62472SOL    HW199395   6.876   4.770  10.638 -0.8602  2.2214  0.2861
62472SOL    HW299396   6.787   4.759  10.516 -0.0955 -1.4685 -0.0582
62473SOL     OW99397   8.306   5.711   7.577 -0.2211 -0.1632 -0.2291
62473SOL    HW199398   8.294   5.628   7.532 -2.1772  0.5137 -1.0337
62473SOL    HW299399   8.270   5.697   7.665 -1.4006  0.0678 -0.6589
62474SOL     OW99400  12.198   4.762   5.048 -0.0839  0.3439  0.2401
62474SOL    HW199401  12.140   4.707   5.101 -2.3051  2.1117 -0.1835
62474SOL    HW299402  12.274   4.778   5.104 -0.7024 -0.7609  1.4578
62475SOL     OW99403   4.431   9.971   9.997  0.3568  0.0137 -0.4330
62475SOL    HW199404   4.525   9.983   9.984  0.1922  1.8970 -0.1714
62475SOL    HW299405   4.391  10.000   9.915 -0.0745  1.0484  0.1212
62476SOL     OW99406   6.777   2.964   9.780 -0.2186 -0.5096  0.0248
62476SOL    HW199407   6.843   2.990   9.717  0.1065 -1.7250 -0.1613
62476SOL    HW299408   6.808   2.881   9.815 -0.8838 -0.3399  1.0673
62477SOL     OW99409  13.291   5.544   9.670  0.2887  0.3330  0.1656
62477SOL    HW199410  13.249   5.617   9.625  2.1467  1.3249 -0.0098
62477SOL    HW299411  13.329   5.491   9.600 -1.3883 -1.1135  0.2507
62478SOL     OW99412   6.472  13.815  11.301  0.1417  0.2570 -0.4311
62478SOL    HW199413   6.456  13.898  11.256  1.7317 -0.2043 -1.9327
62478SOL    HW299414   6.545  13.834  11.360 -0.7265  0.3741  0.6415
62479SOL     OW99415  10.969   6.762   9.146 -0.4578 -0.0535  0.3267
62479SOL    HW199416  10.960   6.737   9.238  2.4156  0.6268  0.8753
62479SOL    HW299417  10.985   6.679   9.100 -0.4271 -0.2364  0.6645
62480SOL     OW99418   4.780   4.512   5.097 -0.2357 -0.1523 -0.3443
62480SOL    HW199419   4.806   4.471   5.180 -0.7545  0.0320 -0.0908
62480SOL    HW299420   4.801   4.604   5.108 -1.2541  0.0488 -0.0286
62481SOL     OW99421   1.938   6.715   5.257 -0.7368  0.6293 -0.1392
62481SOL    HW199422   1.901   6.740   5.341 -1.3550 -0.5770 -0.0377
62481SOL    HW299423   1.869   6.733   5.193 -0.5543  0.8125 -0.2855
62482SOL     OW99424  10.310  11.294   9.191 -0.6456  0.4383  0.2568
62482SOL    HW199425  10.382  11.356   9.183  0.0423  0.2780  3.6398
62482SOL    HW299426  10.235  11.347   9.215 -1.1140  0.3321 -0.8874
62483SOL     OW99427   5.604   6.008   9.359  0.4473  0.0052  0.7506
62483SOL    HW199428   5.541   6.056   9.305  0.6304 -1.0469 -0.4485
62483SOL    HW299429   5.589   6.040   9.448 -1.5748 -0.0106  0.4601
62484SOL     OW99430   4.286   3.837   6.985 -0.4648 -0.1052 -0.1094
62484SOL    HW199431   4.319   3.752   6.955 -1.6520 -0.3677 -0.7405
62484SOL    HW299432   4.191   3.832   6.972 -0.4561  1.7560 -1.2954
62485SOL     OW99433   5.793   6.120   6.469 -0.8661  0.4989  0.2058
62485SOL    HW199434   5.734   6.049   6.444 -0.7637  0.5553 -0.1900
62485SOL    HW299435   5.853   6.129   6.396  1.5632 -1.5459  1.7885
62486SOL     OW99436   6.070   8.616  11.403 -0.0083  0.1496 -0.5413
62486SOL    HW199437   6.012   8.540  11.407  0.4876 -0.2925 -1.3824
62486SOL    HW299438   6.114   8.618  11.487  1.3948 -1.6634 -1.1843
62487SOL     OW99439  12.240   7.696   6.712 -0.0370  0.4275 -0.3662
62487SOL    HW199440  12.195   7.769   6.756  2.5798 -0.1022  3.7329
62487SOL    HW299441  12.329   7.728   6.700  0.2369 -0.8714 -1.9572
62488SOL     OW99442   5.675   4.290  10.261 -0.0694 -0.3926  0.3610
62488SOL    HW199443   5.625   4.369  10.281 -0.6001 -0.8723  0.9700
62488SOL    HW299444   5.629   4.251  10.187  0.3612  0.0029 -0.1306
62489SOL     OW99445   8.208  11.321   2.670  0.3101 -0.1868  1.3915
62489SOL    HW199446   8.145  11.362   2.729  0.4593  1.0673  0.7289
62489SOL    HW299447   8.206  11.377   2.592  0.6816 -1.3589  0.5201
62490SOL     OW99448   0.513   2.064   2.023  1.3185 -0.0811  0.2300
62490SOL    HW199449   0.419   2.060   2.007  1.4634 -1.2753 -0.4343
62490SOL    HW299450   0.531   2.157   2.038  0.3675  0.4840 -1.7621
62491SOL     OW99451  10.331  12.347   7.775  0.2657  0.4281 -0.3511
62491SOL    HW199452  10.416  12.304   7.779 -0.1365 -0.4788 -1.1929
62491SOL    HW299453  10.271  12.287   7.819 -0.2622  0.2194 -1.3356
62492SOL     OW99454   4.530  11.153  12.666 -0.2279 -0.0900  0.2028
62492SOL    HW199455   4.573  11.093  12.606  0.3160 -0.0705  0.5629
62492SOL    HW299456   4.549  11.240  12.630 -1.2253 -0.1203 -0.4573
62493SOL     OW99457   5.250   5.136   3.645  0.0222  0.0647  0.0840
62493SOL    HW199458   5.276   5.133   3.553 -1.8585 -0.6256 -0.4596
62493SOL    HW299459   5.316   5.193   3.686 -0.3671  2.2840 -2.1125
62494SOL     OW99460   5.397   7.914   2.382 -0.1852  0.1505 -0.0174
62494SOL    HW199461   5.431   7.845   2.324  0.3049 -0.4541  0.9640
62494SOL    HW299462   5.460   7.917   2.454 -0.9982  0.6125  0.6863
62495SOL     OW99463  12.194   1.526  11.422  0.5901  0.1298 -0.1913
62495SOL    HW199464  12.233   1.608  11.451  0.0774 -0.0395  1.0086
62495SOL    HW299465  12.121   1.552  11.366  0.5238  0.4902  0.0612
62496SOL     OW99466  10.165   2.581   2.452  0.0678  0.2216  0.1897
62496SOL    HW199467  10.154   2.676   2.457 -1.8704  0.2929 -2.8166
62496SOL    HW299468  10.238   2.568   2.393 -1.3972 -0.0345 -1.6739
62497SOL     OW99469  10.534   6.151   6.858  0.0302  0.1019 -0.0096
62497SOL    HW199470  10.594   6.219   6.892  1.6973  1.3139 -4.6058
62497SOL    HW299471  10.562   6.071   6.902 -0.0072  1.8058  3.4355
62498SOL     OW99472   3.165  10.284   8.843 -1.0910  0.2134 -0.6678
62498SOL    HW199473   3.179  10.243   8.928 -2.7470  1.2971  0.1933
62498SOL    HW299474   3.243  10.337   8.828 -1.9179  2.2493  1.5793
62499SOL     OW99475   8.735   3.164   1.758 -0.2105  0.3717 -0.3600
62499SOL    HW199476   8.665   3.129   1.704 -0.1294 -1.5195  0.6653
62499SOL    HW299477   8.698   3.242   1.799 -1.8158 -0.6929  0.2958
62500SOL     OW99478   8.991   0.729  10.391  0.2318  0.4695  0.0397
62500SOL    HW199479   8.912   0.705  10.439  0.4214 -0.1244  0.0705
62500SOL    HW299480   9.058   0.739  10.459  0.3772  0.1451 -0.0544
62501SOL     OW99481   1.201   7.367   2.341 -0.0554  0.0801  0.1894
62501SOL    HW199482   1.188   7.443   2.285  1.4430  1.5793  1.7474
62501SOL    HW299483   1.214   7.294   2.280  2.5579  1.7936 -1.5176
62502SOL     OW99484   1.075   7.094  10.286 -0.3964 -0.4666  0.5415
62502SOL    HW199485   1.049   7.024  10.226 -0.0515  0.0338 -0.1945
62502SOL    HW299486   1.142   7.143  10.239 -0.9693  0.6461  0.8695
62503SOL     OW99487  11.615   5.772   4.849  0.2112  0.7848 -0.7957
62503SOL    HW199488  11.694   5.826   4.861  0.6148  0.0641 -0.0568
62503SOL    HW299489  11.646   5.695   4.801 -0.5356  1.5869 -2.6434
62504SOL     OW99490   7.475  12.974  11.159 -0.0166 -0.0018 -0.4070
62504SOL    HW199491   7.486  12.944  11.250 -0.6750  0.9491 -0.0006
62504SOL    HW299492   7.558  13.015  11.137 -0.3723  1.1640  0.3248
62505SOL     OW99493   4.731  10.203  10.152 -0.9535 -0.5237  0.5088
62505SOL    HW199494   4.722  10.110  10.131  0.3467 -0.2856 -1.3724
62505SOL    HW299495   4.824  10.215  10.169 -0.0300  1.1677 -4.1328
62506SOL     OW99496   6.639  12.150  12.936 -0.0907 -0.1873 -0.0398
62506SOL    HW199497   6.624  12.236  12.896  2.9540  0.8596  0.7455
62506SOL    HW299498   6.640  12.089  12.863  1.3057  1.0590 -1.1321
62507SOL     OW99499   8.875  12.297   3.001 -0.0422 -0.4250  0.2008
62507SOL    HW199500   8.962  12.260   3.017  0.4235  0.7163  0.3974
62507SOL    HW299501   8.889  12.360   2.930 -0.5609  0.2953  0.7312
62508SOL     OW99502  13.396   2.387   9.868 -0.3871 -0.6150 -0.1037
62508SOL    HW199503  13.482   2.344   9.877  0.8357  1.5783 -0.6598
62508SOL    HW299504  13.353   2.370   9.952 -0.3537 -3.5364 -0.5473
62509SOL     OW99505  13.911  12.836   5.117 -0.2068  0.0460  0.2841
62509SOL    HW199506  13.902  12.914   5.062 -1.8981  0.0152  0.4623
62509SOL    HW299507  13.922  12.764   5.055  0.3991  0.2985  0.0882
62510SOL     OW99508   6.328   6.547   8.858 -0.0409  0.2190 -0.1736
62510SOL    HW199509   6.240   6.584   8.851 -0.2535 -0.2519 -0.0512
62510SOL    HW299510   6.325   6.493   8.938  0.4138  0.3500 -0.0624
62511SOL     OW99511  11.502  11.283   2.834 -0.5837  0.5479  0.1410
62511SOL    HW199512  11.410  11.269   2.852 -0.5099 -3.0198 -1.4978
62511SOL    HW299513  11.504  11.341   2.758 -1.4571  0.4171  0.0193
62512SOL     OW99514   9.913   5.540  13.319  0.0823  0.0421  0.0450
62512SOL    HW199515   9.879   5.625  13.294 -1.7751 -1.6396 -3.9997
62512SOL    HW299516   9.987   5.525  13.260 -0.0423 -1.3906  0.2179
62513SOL     OW99517  12.960  11.766   0.688  0.0434  0.2396  1.0862
62513SOL    HW199518  13.051  11.742   0.705 -0.1238 -0.0110  1.6570
62513SOL    HW299519  12.909  11.703   0.738 -0.4280  1.0188  1.6168
62514SOL     OW99520  10.917  13.316   7.939  0.0104  0.0663  0.6307
62514SOL    HW199521  10.887  13.405   7.921 -0.7244 -0.0724  1.1309
62514SOL    HW299522  10.888  13.265   7.863 -0.9414 -0.0417  1.0506
62515SOL     OW99523   1.365  12.909  11.384 -0.6154 -0.3145  0.2848
62515SOL    HW199524   1.299  12.934  11.449 -0.8631 -1.8078  0.6404
62515SOL    HW299525   1.429  12.858  11.433  0.4906  0.5863 -0.1899
62516SOL     OW99526   6.922   8.434  13.208 -0.0119 -0.4175  0.1084
62516SOL    HW199527   6.852   8.369  13.202  0.7420 -1.1920 -0.5349
62516SOL    HW299528   6.914   8.471  13.296 -1.0015 -0.7455  0.1667
62517SOL     OW99529  13.436  13.335   0.896  0.5610  0.2578 -0.3114
62517SOL    HW199530  13.432  13.391   0.818 -0.4532  2.4688  1.2089
62517SOL    HW299531  13.352  13.350   0.939  1.6550  0.2601  1.9267
62518SOL     OW99532   9.902  11.137   9.172  0.4094  0.2036  0.0446
62518SOL    HW199533   9.856  11.221   9.170  0.6569  0.3818  1.2326
62518SOL    HW299534   9.898  11.105   9.081  1.2491  2.0050 -0.6685
62519SOL     OW99535  13.238   9.961   2.680 -0.0882 -0.1026  0.0810
62519SOL    HW199536  13.231  10.054   2.659  1.1705  0.1695  0.7739
62519SOL    HW299537  13.184   9.917   2.614 -0.7072  1.1069 -0.2504
62520SOL     OW99538   1.255  13.481   5.952  0.4236  0.8775  0.4695
62520SOL    HW199539   1.244  13.386   5.960  0.9820  0.8098  0.5095
62520SOL    HW299540   1.220  13.516   6.034  0.2749  0.6970  0.4829
62521SOL     OW99541   4.023  12.968   1.869  0.1775 -0.1907  0.1391
62521SOL    HW199542   4.097  12.907   1.876 -0.3521 -0.8705 -0.0702
62521SOL    HW299543   3.946  12.912   1.869 -0.2658  0.3045 -2.1461
62522SOL     OW99544  12.355   2.227  12.381 -0.2355 -0.8588 -0.4571
62522SOL    HW199545  12.414   2.282  12.331  0.4820 -0.8581  0.3633
62522SOL    HW299546  12.311   2.287  12.441 -0.8976 -0.8973 -0.8922
62523SOL     OW99547   9.095   6.055   7.725 -0.1915  0.5221  0.4568
62523SOL    HW199548   9.161   6.006   7.675 -0.4270 -0.6285  1.2317
62523SOL    HW299549   9.032   5.989   7.753 -1.0508  1.4327  0.7294
62524SOL     OW99550  13.681   2.864   9.222 -0.2512  0.2520 -0.1267
62524SOL    HW199551  13.672   2.768   9.227 -0.3581  0.2014 -1.1203
62524SOL    HW299552  13.699   2.891   9.312 -1.2192 -0.6067  0.3503
62525SOL     OW99553   4.463   1.726  10.356 -0.2644  0.8163 -0.3598
62525SOL    HW199554   4.534   1.665  10.376  0.1447  1.6889  0.9932
62525SOL    HW299555   4.506   1.811  10.349 -1.2000  1.4530  1.0381
62526SOL     OW99556  10.893   4.334  13.983 -0.0305  0.3491 -0.1403
62526SOL    HW199557  10.874   4.269  13.916 -0.8261  1.2072 -0.7848
62526SOL    HW299558  10.984   4.360  13.966 -0.4467  1.1191 -1.4378
62527SOL     OW99559   6.278   7.510  11.416  0.4272  0.1375 -0.3117
62527SOL    HW199560   6.372   7.501  11.399  0.3998 -1.3479  0.1937
62527SOL    HW299561   6.239   7.432  11.377 -0.6368  0.8077 -0.6454
62528SOL     OW99562  10.946   2.354  12.834 -0.2421 -0.6170  0.3692
62528SOL    HW199563  10.906   2.282  12.883 -0.3429 -1.2548 -0.6230
62528SOL    HW299564  10.888   2.368  12.760  0.5052 -0.4427 -0.1937
62529SOL     OW99565   5.436   7.783  11.332  0.3671  0.3090  0.8405
62529SOL    HW199566   5.454   7.835  11.254  1.2083  0.4735  1.1363
62529SOL    HW299567   5.419   7.848  11.400 -0.7147  0.1644  0.7235
62530SOL     OW99568   9.748   3.902  10.745  0.0322 -0.2383  0.0738
62530SOL    HW199569   9.801   3.946  10.812 -0.6692 -0.7999  1.0286
62530SOL    HW299570   9.764   3.809  10.759 -1.8051 -0.4826  0.9694
62531SOL     OW99571   3.841   6.944   9.618  0.4683  0.2864 -0.4368
62531SOL    HW199572   3.909   6.915   9.557  0.0210  2.8586 -2.3574
62531SOL    HW299573   3.772   6.878   9.612  0.5719  0.3225 -2.5573
62532SOL     OW99574   8.973   3.782   4.948 -0.1360 -0.5176  0.3364
62532SOL    HW199575   8.947   3.766   4.857 -0.0521  1.3308 -0.0454
62532SOL    HW299576   9.069   3.789   4.945 -0.2389  1.2049  0.2472
62533SOL     OW99577   5.725  13.018   0.741  0.1204  0.5888  0.3741
62533SOL    HW199578   5.719  13.088   0.675  1.3032 -0.2507 -0.6824
62533SOL    HW299579   5.804  12.969   0.716 -2.1113 -2.8019 -0.6327
62534SOL     OW99580   2.535  13.286   0.556  0.3243  0.3471 -0.1046
62534SOL    HW199581   2.511  13.208   0.505 -0.4630 -0.1704  1.0171
62534SOL    HW299582   2.486  13.357   0.515 -1.3189 -0.2873  0.6846
62535SOL     OW99583  11.778   1.907   6.846  0.0511 -0.8429 -0.4863
62535SOL    HW199584  11.690   1.890   6.878  0.2679 -1.6555 -0.2885
62535SOL    HW299585  11.829   1.830   6.873  1.5161  0.8045  1.8942
62536SOL     OW99586   1.433   6.910   4.123 -0.1922  0.1819 -0.0946
62536SOL    HW199587   1.372   6.984   4.122 -1.5480 -0.9105  0.0265
62536SOL    HW299588   1.447   6.891   4.215 -1.0386 -0.6591 -0.1305
62537SOL     OW99589   5.039   6.985   3.169 -0.1656  0.1918  0.4785
62537SOL    HW199590   5.111   6.922   3.178  0.7927  1.2959  0.7650
62537SOL    HW299591   5.025   6.992   3.074  0.3838  0.2680  0.4009
62538SOL     OW99592   8.632   6.132  13.930 -0.0380 -0.0813 -0.5193
62538SOL    HW199593   8.623   6.166  13.841 -0.5354  0.8146 -0.1453
62538SOL    HW299594   8.558   6.073  13.942 -0.6583  0.7124 -0.3181
62539SOL     OW99595   6.051   4.174   1.551  0.2417 -0.1334 -0.5208
62539SOL    HW199596   6.115   4.218   1.607 -1.0503  1.2427 -0.0344
62539SOL    HW299597   6.094   4.165   1.467  1.6303 -0.6956  0.2264
62540SOL     OW99598   2.257   8.390   3.693  0.0044 -0.5738 -0.3529
62540SOL    HW199599   2.279   8.426   3.607 -0.8581  0.9098  0.0171
62540SOL    HW299600   2.333   8.412   3.748  0.2766 -0.9574 -0.5699
62541SOL     OW99601  11.094   8.931   9.423 -0.8357  0.3193 -0.0454
62541SOL    HW199602  11.036   8.873   9.473 -0.3802  0.9227  1.2372
62541SOL    HW299603  11.055   8.936   9.336 -0.6259 -2.3059 -0.3787
62542SOL     OW99604   8.184   4.565   5.741 -0.5406 -0.2007 -0.2145
62542SOL    HW199605   8.270   4.607   5.733 -0.7740  1.4466  3.6719
62542SOL    HW299606   8.124   4.625   5.698 -0.2910  1.4425  1.5728
62543SOL     OW99607  13.329  10.113  12.574 -0.6205  0.0311  0.1380
62543SOL    HW199608  13.382  10.186  12.544  0.6445 -1.5739 -1.8728
62543SOL    HW299609  13.359  10.095  12.663 -0.4157  1.4373  0.3629
62544SOL     OW99610  10.798   7.499   5.759  0.3036  0.4543 -0.2914
62544SOL    HW199611  10.751   7.582   5.769  1.5228  1.2721 -1.1090
62544SOL    HW299612  10.837   7.483   5.845  0.3760  0.9393 -0.2306
62545SOL     OW99613   0.774  13.253  11.339 -0.1159  0.0578 -0.3726
62545SOL    HW199614   0.791  13.224  11.428 -0.8002  2.3071  0.5773
62545SOL    HW299615   0.690  13.213  11.316 -0.9511  1.0578  0.8211
62546SOL     OW99616  12.167   7.383  10.382 -0.5858  0.4341  0.1908
62546SOL    HW199617  12.113   7.373  10.460  0.4220 -2.6361  0.6251
62546SOL    HW299618  12.240   7.438  10.410 -1.7597  1.9252  0.4807
62547SOL     OW99619  12.945   3.111  11.301  0.0486  0.2938 -0.6825
62547SOL    HW199620  12.877   3.165  11.340  0.9250  2.3767 -1.8330
62547SOL    HW299621  12.911   3.022  11.304 -1.2705  0.8154  1.7374
62548SOL     OW99622   1.377   8.986   3.958 -0.2775  0.3536  1.1777
62548SOL    HW199623   1.309   8.958   3.897  0.4173  0.4616  0.3307
62548SOL    HW299624   1.352   8.947   4.042 -0.4694 -1.0243  0.5067
62549SOL     OW99625   2.183  10.640   5.893  0.2645 -0.2568  0.3166
62549SOL    HW199626   2.211  10.587   5.818  0.7406 -1.7315  1.4940
62549SOL    HW299627   2.138  10.578   5.951 -1.5382  1.1655  0.5424
62550SOL     OW99628   4.176  10.969   9.127 -0.8252  0.0753 -0.1833
62550SOL    HW199629   4.090  10.998   9.098 -1.4920 -0.1916  1.4131
62550SOL    HW299630   4.169  10.873   9.130 -0.6328  0.0796  0.4368
62551SOL     OW99631   9.564  11.004  10.044 -0.1278 -0.2485  0.2974
62551SOL    HW199632   9.592  10.965  10.127 -0.8767  0.5894  0.9729
62551SOL    HW299633   9.478  11.041  10.064 -0.0526  0.4909 -0.7000
62552SOL     OW99634  12.768   9.403  13.711  0.7258 -0.0984 -0.0307
62552SOL    HW199635  12.764   9.486  13.664 -1.2885  0.4010  0.9274
62552SOL    HW299636  12.725   9.340  13.653  2.2826 -0.5469 -0.7727
62553SOL     OW99637   9.388   4.583   0.264  0.7779  0.0985  0.2751
62553SOL    HW199638   9.421   4.549   0.181  1.3078  1.0462  0.0820
62553SOL    HW299639   9.370   4.505   0.317  0.4843 -0.5048 -0.7038
62554SOL     OW99640   2.062   3.037  10.437  0.2643  0.2378 -0.3951
62554SOL    HW199641   2.054   2.942  10.429  0.4068 -0.0963  2.2566
62554SOL    HW299642   2.156   3.053  10.448  0.0080  0.0162  3.8292
62555SOL     OW99643   4.410   6.307   0.589 -0.5545 -0.8493 -0.3145
62555SOL    HW199644   4.469   6.279   0.518 -2.6274 -3.7528 -1.0821
62555SOL    HW299645   4.469   6.336   0.658  1.6752 -0.8390 -2.0684
62556SOL     OW99646   4.388   8.531   2.287 -0.3287 -0.5855 -0.3684
62556SOL    HW199647   4.354   8.615   2.318  0.8241 -0.2230 -0.0213
62556SOL    HW299648   4.462   8.513   2.345  1.5422 -0.1746 -2.5216
62557SOL     OW99649   2.848  10.935   4.769 -0.0206  0.5143  0.2056
62557SOL    HW199650   2.860  10.976   4.855 -0.1013  0.5213  0.2136
62557SOL    HW299651   2.780  10.869   4.783  0.8267 -0.3432  0.4346
62558SOL     OW99652  10.374   6.640  10.992 -0.1519  0.8190 -0.3103
62558SOL    HW199653  10.302   6.696  10.962 -0.2933  0.1404 -1.2910
62558SOL    HW299654  10.439   6.701  11.026 -1.3063  1.4402  0.9209
62559SOL     OW99655   7.451   8.046   5.472 -0.0878  0.1074 -0.2190
62559SOL    HW199656   7.435   8.058   5.378  0.3478  0.6816 -0.2254
62559SOL    HW299657   7.520   8.108   5.493  0.5226 -0.7265  0.2866
62560SOL     OW99658   1.717   6.903   3.072 -0.1863  0.1357  0.7751
62560SOL    HW199659   1.696   6.885   2.981 -1.2586  1.1993  0.7836
62560SOL    HW299660   1.644   6.957   3.103 -1.2822 -2.4179  3.0473
62561SOL     OW99661   2.281   4.139   0.526  1.0348  0.4449 -0.0563
62561SOL    HW199662   2.324   4.137   0.441  1.1988  0.3548  0.0287
62561SOL    HW299663   2.241   4.052   0.535 -1.0183  1.2189 -1.0829
62562SOL     OW99664  12.652   3.844   8.677  0.4482  0.2216 -0.1905
62562SOL    HW199665  12.566   3.862   8.639 -0.2089 -0.8460  0.7386
62562SOL    HW299666  12.688   3.774   8.622  0.7983  0.7567 -0.6582
62563SOL     OW99667   6.895  10.038  11.142 -0.8759 -0.0728  0.0587
62563SOL    HW199668   6.936  10.124  11.141  1.3660 -1.0699 -0.0595
62563SOL    HW299669   6.807  10.053  11.176 -0.1100  2.0649  1.2481
62564SOL     OW99670  12.252   6.724   8.482 -0.1084 -0.1847 -0.1616
62564SOL    HW199671  12.201   6.802   8.504  1.1155  0.1707  1.6610
62564SOL    HW299672  12.343   6.753   8.483  0.2622 -1.1757 -1.6650
62565SOL     OW99673  11.186   7.970   6.410 -0.3688  0.3687  0.3600
62565SOL    HW199674  11.244   8.041   6.439  0.4604 -0.3429  0.4777
62565SOL    HW299675  11.142   8.006   6.332  1.2523  0.4699 -0.5571
62566SOL     OW99676   6.887   9.956   6.488 -0.1639 -0.4618  0.2785
62566SOL    HW199677   6.824  10.026   6.505 -1.6047 -1.0783 -2.0826
62566SOL    HW299678   6.859   9.884   6.545 -0.8546 -0.3255  0.1143
62567SOL     OW99679   9.216   1.088   3.364 -0.1071 -0.2046 -0.3418
62567SOL    HW199680   9.263   1.072   3.282  0.5870 -1.4977  0.2708
62567SOL    HW299681   9.274   1.053   3.432 -0.5511  1.0851  0.7373
62568SOL     OW99682  11.174   0.243   8.633  0.2476 -0.4565  0.3028
62568SOL    HW199683  11.233   0.173   8.604  0.2880 -0.5922  0.7086
62568SOL    HW299684  11.210   0.323   8.595 -1.2209 -0.9377 -2.3749
62569SOL     OW99685   2.701  12.305  10.856 -0.1110 -0.2178 -0.0375
62569SOL    HW199686   2.670  12.277  10.942 -0.3449  0.0146 -0.0426
62569SOL    HW299687   2.748  12.387  10.873 -0.6338  0.1187 -0.2020
62570SOL     OW99688   4.277   8.722   0.477 -0.2407 -0.4451 -0.4785
62570SOL    HW199689   4.366   8.758   0.477 -0.3724 -0.0767  0.7218
62570SOL    HW299690   4.287   8.636   0.436  0.7345 -0.5355 -0.0906
62571SOL     OW99691  12.501   8.793   6.121 -0.3641  0.2780 -0.2124
62571SOL    HW199692  12.406   8.805   6.122 -0.2154  1.6417  0.5201
62571SOL    HW299693  12.536   8.879   6.144  1.0786  0.0114 -1.2909
62572SOL     OW99694   5.113   2.161   8.778 -0.2083  0.2480 -0.1741
62572SOL    HW199695   5.066   2.244   8.788 -0.8602 -0.0865 -0.4411
62572SOL    HW299696   5.047   2.099   8.750  0.3811 -0.2497 -0.4881
62573SOL     OW99697   9.410   0.014  12.181 -0.2700  0.2961  0.1752
62573SOL    HW199698   9.486  -0.033  12.146 -0.5917  1.0667 -1.6753
62573SOL    HW299699   9.349  -0.055  12.208  0.5073 -0.3273  0.3758
62574SOL     OW99700  11.968  13.250   2.011  0.6490  0.0339  0.1899
62574SOL    HW199701  12.059  13.261   1.983  0.8679 -0.2481  0.7668
62574SOL    HW299702  11.945  13.162   1.983 -0.2718  0.9308 -2.1528
62575SOL     OW99703  11.050   8.068  11.620 -0.3109  0.6345 -0.4193
62575SOL    HW199704  10.991   8.018  11.563  1.3599 -0.4576 -1.2961
62575SOL    HW299705  11.064   8.151  11.573 -1.5111  1.1348  0.0591
62576SOL     OW99706   5.038   0.750   9.819  0.1056 -0.7558  0.3863
62576SOL    HW199707   5.120   0.703   9.835 -0.1401 -1.2910  0.0981
62576SOL    HW299708   4.979   0.718   9.887  0.7756  1.2855  2.0108
62577SOL     OW99709   6.077   2.160   1.914 -0.1685 -0.4382  0.0983
62577SOL    HW199710   6.113   2.165   2.003  1.5419  1.6360 -0.6163
62577SOL    HW299711   6.030   2.243   1.903  0.5395 -0.1853 -1.2594
62578SOL     OW99712   4.486   6.144   1.903 -0.3608  0.2714 -0.2514
62578SOL    HW199713   4.529   6.059   1.891  1.2814  1.0102  0.0836
62578SOL    HW299714   4.515   6.196   1.829  0.8790  1.3616  0.9302
62579SOL     OW99715  10.937   5.804   6.074 -0.0386 -0.1827 -0.1158
62579SOL    HW199716  10.922   5.832   5.984  0.2308  1.0568  0.2082
62579SOL    HW299717  11.009   5.859   6.105  0.0177 -0.7443  0.7917
62580SOL     OW99718   7.337   0.783   7.805 -0.5057  0.7357  0.0819
62580SOL    HW199719   7.275   0.800   7.876  0.2152 -0.0599  0.9216
62580SOL    HW299720   7.390   0.710   7.836  0.9571  1.4840 -0.5634
62581SOL     OW99721   1.084   7.238   4.010 -0.1731  0.1078  0.4557
62581SOL    HW199722   1.008   7.183   4.027  0.3044 -0.7767 -0.1518
62581SOL    HW299723   1.053   7.305   3.949 -0.0170 -1.5414 -1.5771
62582SOL     OW99724   0.303  12.767   6.779  0.4940  0.5752 -0.1827
62582SOL    HW199725   0.308  12.822   6.701 -0.6373  0.1100 -0.6055
62582SOL    HW299726   0.264  12.824   6.846 -0.6067  0.3377 -0.5982
62583SOL     OW99727   2.643  13.009   4.008 -0.0941 -0.3303 -0.4449
62583SOL    HW199728   2.723  12.965   3.979  1.3238 -0.7057  3.4273
62583SOL    HW299729   2.607  12.950   4.075 -3.3869  0.1212 -1.6586
62584SOL     OW99730   9.209   4.390   9.815 -0.1018  0.3811 -0.0202
62584SOL    HW199731   9.207   4.401   9.910 -0.2768  0.4859 -0.0354
62584SOL    HW299732   9.260   4.311   9.800  1.4690  1.3145  0.0943
62585SOL     OW99733   0.358   4.516   1.198  0.7253  0.3966  0.2247
62585SOL    HW199734   0.409   4.442   1.229  1.4710  1.1465  0.8079
62585SOL    HW299735   0.281   4.476   1.157  1.4006 -0.7117  0.0041
62586SOL     OW99736   0.738  11.432   2.749  0.3309  0.1822 -0.5079
62586SOL    HW199737   0.645  11.437   2.728  0.5288  0.7888 -1.3264
62586SOL    HW299738   0.749  11.493   2.822  0.2222  0.7384 -0.9499
62587SOL     OW99739   8.262  13.408  12.918  0.2622  0.4425 -0.0799
62587SOL    HW199740   8.246  13.450  13.002 -1.2584 -0.6763  0.2189
62587SOL    HW299741   8.321  13.469  12.873  0.6811  1.3221  1.5611
62588SOL     OW99742  13.850   6.653  11.392 -0.3075  0.4851  0.4771
62588SOL    HW199743  13.945   6.657  11.385 -0.3632  0.5215 -0.3430
62588SOL    HW299744  13.831   6.675  11.483  0.6047 -1.6057  1.2329
62589SOL     OW99745  12.563   6.034  12.518 -0.0293  0.5574  0.0493
62589SOL    HW199746  12.572   6.111  12.575  0.9623 -0.7762  1.7717
62589SOL    HW299747  12.472   6.039  12.487 -0.1075  2.2030  0.4216
62590SOL     OW99748   1.947   2.807  11.845  0.1988  0.0867  0.0839
62590SOL    HW199749   1.932   2.725  11.798 -4.7065 -0.2987  1.6947
62590SOL    HW299750   1.920   2.875  11.783  0.3479  0.1615  0.1003
62591SOL     OW99751   8.489   5.184   5.548  0.6398 -0.4184 -0.1906
62591SOL    HW199752   8.402   5.201   5.512  0.2316  0.9125  1.3376
62591SOL    HW299753   8.521   5.109   5.497 -0.5028  0.3826 -2.2210
62592SOL     OW99754   8.078  11.038  11.504 -0.2775  0.5785  0.0712
62592SOL    HW199755   8.009  11.079  11.451  1.4768  2.4670 -0.8518
62592SOL    HW299756   8.147  11.104  11.510  1.6368 -1.3682  0.6671
62593SOL     OW99757  11.175   9.778   2.244 -0.0013 -0.0328 -0.3562
62593SOL    HW199758  11.186   9.686   2.217 -1.5251 -0.5237  0.6047
62593SOL    HW299759  11.264   9.806   2.268  0.4030 -1.4331 -0.1189
62594SOL     OW99760   1.131  12.719   5.410 -0.8399 -0.0929  0.2110
62594SOL    HW199761   1.160  12.628   5.399  1.8259  0.5693  1.0909
62594SOL    HW299762   1.191  12.769   5.354 -2.6645  1.1187 -0.7373
62595SOL     OW99763   8.547  13.328   3.953 -0.6243 -0.3858  0.7085
62595SOL    HW199764   8.619  13.383   3.923 -0.3712 -0.0584  1.8921
62595SOL    HW299765   8.534  13.352   4.045 -1.8348 -0.8836  0.6881
62596SOL     OW99766   9.345   8.891   0.043  0.3537 -0.1579 -0.5097
62596SOL    HW199767   9.343   8.877  -0.051  0.5958 -0.6180 -0.4487
62596SOL    HW299768   9.304   8.977   0.056  1.6978  0.6006 -1.1645
62597SOL     OW99769   6.892   5.580   4.351  0.2174 -0.0669 -0.4187
62597SOL    HW199770   6.832   5.507   4.366  0.1635 -0.0301 -0.4535
62597SOL    HW299771   6.978   5.547   4.376 -0.0893  0.4976  1.4876
62598SOL     OW99772  13.750   9.274  10.691 -0.0692  0.0754  0.4291
62598SOL    HW199773  13.817   9.298  10.755  0.6707 -1.3856  0.2300
62598SOL    HW299774  13.794   9.285  10.606 -0.2567 -0.3666  0.2733
62599SOL     OW99775   1.208  13.401   8.098  0.8728 -0.5539 -0.0639
62599SOL    HW199776   1.200  13.308   8.117 -0.3432 -0.5632 -0.5609
62599SOL    HW299777   1.179  13.410   8.008 -0.2014  0.4614  0.3545
62600SOL     OW99778   9.114   6.208   3.616  0.4004  0.4268 -0.2458
62600SOL    HW199779   9.060   6.224   3.694  1.3849  1.9131  0.1581
62600SOL    HW299780   9.199   6.244   3.638  0.9550  0.0657 -1.7030
62601SOL     OW99781   6.507   2.890  12.202 -0.2327 -0.1664  0.3157
62601SOL    HW199782   6.598   2.859  12.202  0.1327  0.7614 -1.4438
62601SOL    HW299783   6.504   2.953  12.275  0.5148 -0.2813  0.4615
62602SOL     OW99784   6.642   2.875   0.289  0.2867  0.3469 -0.2624
62602SOL    HW199785   6.690   2.951   0.321 -1.1915  1.2685 -0.1177
62602SOL    HW299786   6.623   2.896   0.197  1.0351 -0.4770 -0.6198
62603SOL     OW99787  11.417   2.366   4.317  0.3405  0.2998 -0.3372
62603SOL    HW199788  11.383   2.324   4.396  0.9994  1.3884  0.5591
62603SOL    HW299789  11.476   2.434   4.350 -0.4907  1.7525 -1.7176
62604SOL     OW99790   2.688   7.153   8.242  0.7774  0.1093  0.0179
62604SOL    HW199791   2.750   7.083   8.218  0.4080 -0.3569  0.4091
62604SOL    HW299792   2.619   7.108   8.291  0.4035  0.7134  0.0497
62605SOL     OW99793   6.263   2.878   0.722 -0.1297  0.3300 -0.0502
62605SOL    HW199794   6.261   2.913   0.811  0.2978 -1.2233  0.5945
62605SOL    HW299795   6.349   2.904   0.689 -0.0306  0.3471  0.2181
62606SOL     OW99796   1.930   8.999   5.911 -0.0216 -0.3986 -0.1056
62606SOL    HW199797   1.856   8.969   5.964  0.6600 -0.0729  1.0728
62606SOL    HW299798   1.897   8.998   5.821 -1.0296 -1.5239  0.2482
62607SOL     OW99799   9.384  13.899   6.198  0.2936  0.1044 -0.1401
62607SOL    HW199800   9.299  13.856   6.191  0.5304 -0.5044  0.6698
62607SOL    HW299801   9.441  13.850   6.140  0.2112  0.2223 -0.3220
62608SOL     OW99802  10.826   4.832   4.733  0.0827 -0.2992 -0.7351
62608SOL    HW199803  10.784   4.827   4.647 -1.2995 -0.9756 -0.0488
62608SOL    HW299804  10.857   4.744   4.750 -1.8797 -0.8155  0.5000
62609SOL     OW99805   6.753  10.453   0.242  0.6704  0.1343 -0.1741
62609SOL    HW199806   6.685  10.415   0.187 -0.2777 -0.3898  1.2836
62609SOL    HW299807   6.719  10.539   0.266 -0.5606 -0.9048  2.2350
62610SOL     OW99808   1.710  10.324  10.681  0.1483  0.4911  0.5137
62610SOL    HW199809   1.805  10.328  10.672  0.1693  0.0878  0.5030
62610SOL    HW299810   1.682  10.264  10.612 -0.1481  0.8533  0.3154
62611SOL     OW99811   2.372   1.824   8.581 -0.2304 -0.4759 -0.2739
62611SOL    HW199812   2.455   1.856   8.615 -0.2655  0.3980 -1.0060
62611SOL    HW299813   2.346   1.755   8.643  0.7354 -0.3450  0.2857
62612SOL     OW99814  11.713   8.351   4.443 -0.6587 -0.2329 -0.5194
62612SOL    HW199815  11.716   8.275   4.386 -2.0502 -2.2062  1.8319
62612SOL    HW299816  11.803   8.362   4.473 -0.0646  0.3578 -2.4142
62613SOL     OW99817   9.089   0.949   7.265 -0.2921  0.0620  0.9433
62613SOL    HW199818   9.172   0.921   7.226 -1.5992 -0.1420 -1.9363
62613SOL    HW299819   9.049   0.868   7.297 -1.7717 -0.8632 -2.7555
62614SOL     OW99820   6.379   2.671  10.336  0.0791  0.8096 -0.2731
62614SOL    HW199821   6.466   2.693  10.303  1.1194 -1.3620  0.8190
62614SOL    HW299822   6.371   2.722  10.417  1.3300 -0.6126  0.8103
62615SOL     OW99823   4.552   4.917  10.234  0.2767 -0.0123 -0.2554
62615SOL    HW199824   4.574   4.905  10.142  0.0033  0.3453 -0.3682
62615SOL    HW299825   4.635   4.942  10.275  0.4972 -0.6158 -0.3184
62616SOL     OW99826  11.693   3.305   7.723 -0.0392 -0.2540  0.0846
62616SOL    HW199827  11.759   3.251   7.766 -0.1706 -1.5956 -1.3066
62616SOL    HW299828  11.706   3.288   7.629 -2.0415 -0.2120 -0.2494
62617SOL     OW99829  11.920   3.149   7.922 -0.6290 -0.0823 -0.1146
62617SOL    HW199830  11.930   3.191   8.007  0.2361  1.2707 -0.8413
62617SOL    HW299831  11.873   3.067   7.940  0.6481 -0.4520  1.8325
62618SOL     OW99832   4.259   9.192  13.909 -0.0144 -0.8579 -0.6595
62618SOL    HW199833   4.169   9.221  13.894  0.6810  1.5377 -0.7074
62618SOL    HW299834   4.262   9.171  14.003 -0.2021  0.9577 -0.2022
62619SOL     OW99835  10.349   3.936   0.400  0.0332 -0.1952 -0.1533
62619SOL    HW199836  10.380   3.980   0.320  1.2289 -0.5791  0.0951
62619SOL    HW299837  10.342   3.844   0.375  0.8921 -0.3967  0.3116
62620SOL     OW99838   1.509  13.390  14.012 -0.0467 -0.5945  0.2907
62620SOL    HW199839   1.573  13.425  14.074 -0.4749 -0.9707  0.9632
62620SOL    HW299840   1.474  13.467  13.967  1.4627 -0.4422 -0.6935
62621SOL     OW99841  13.862   1.205   2.978  0.2929  0.6102 -0.9008
62621SOL    HW199842  13.891   1.128   3.028  0.2219  0.0102 -1.7555
62621SOL    HW299843  13.866   1.176   2.887 -0.0623  1.5222 -1.2084
62622SOL     OW99844  13.983  10.600   6.803 -0.3743  0.6660 -0.2167
62622SOL    HW199845  14.012  10.657   6.875 -1.6119 -0.4383  1.2377
62622SOL    HW299846  14.018  10.514   6.825 -1.4896  0.1328 -0.4630
62623SOL     OW99847  12.538   2.065   9.670  0.4099  0.9792  0.0266
62623SOL    HW199848  12.504   2.146   9.709 -1.3054 -0.4995  1.8198
62623SOL    HW299849  12.619   2.049   9.719  0.8301  1.6251 -0.4245
62624SOL     OW99850   5.067   0.301   1.345  0.9113  0.1162 -0.0723
62624SOL    HW199851   4.989   0.356   1.349 -1.7488 -3.3127  0.1787
62624SOL    HW299852   5.106   0.308   1.433 -0.2486  0.4504  0.4305
62625SOL     OW99853   1.665  13.668   8.038 -0.0937 -0.0632  0.1901
62625SOL    HW199854   1.705  13.682   7.952  0.4242  1.4190  0.6559
62625SOL    HW299855   1.681  13.749   8.086 -2.2582 -0.0261  0.9545
62626SOL     OW99856  10.545   7.680  13.267  0.2117  0.1144  0.1890
62626SOL    HW199857  10.519   7.726  13.347  1.4003 -1.4513  1.5567
62626SOL    HW299858  10.470   7.624  13.247 -0.6860  1.5678 -0.7003
62627SOL     OW99859   0.011   1.756  14.033  1.0047  0.0039 -0.0512
62627SOL    HW199860  -0.081   1.772  14.010  1.0915  0.0364 -0.3840
62627SOL    HW299861   0.061   1.811  13.972  1.3446 -2.0629 -1.7562
62628SOL     OW99862   3.696   1.123   8.160  0.3060  0.2868 -0.3987
62628SOL    HW199863   3.675   1.030   8.164 -0.2692  0.3588 -1.5906
62628SOL    HW299864   3.635   1.160   8.097  0.4720  1.4999  0.1068
62629SOL     OW99865   2.301   7.146   4.500  0.5576  0.2218  0.5428
62629SOL    HW199866   2.268   7.136   4.589 -0.8959 -3.7649 -0.2351
62629SOL    HW299867   2.233   7.194   4.454  1.3380  2.3511  1.5020
62630SOL     OW99868   0.756   0.290   6.007 -0.5814  0.1343  0.0138
62630SOL    HW199869   0.827   0.348   5.982  0.1380 -0.4301  0.6864
62630SOL    HW299870   0.703   0.341   6.068  1.8592 -0.8364  3.2534
62631SOL     OW99871   2.303  13.778   4.888  0.0493  0.4764 -0.3072
62631SOL    HW199872   2.359  13.839   4.935 -1.7398  1.8179  0.1926
62631SOL    HW299873   2.263  13.831   4.819 -1.1534 -0.2585 -0.1911
62632SOL     OW99874   7.507   1.331   0.626 -0.1528  0.1886  0.1986
62632SOL    HW199875   7.458   1.260   0.584  1.3474 -0.6198 -0.2738
62632SOL    HW299876   7.454   1.355   0.702 -1.1333 -0.8280 -0.1270
62633SOL     OW99877  11.948   0.417   3.628  0.0370 -0.4388 -0.7090
62633SOL    HW199878  11.887   0.397   3.556  0.6198 -1.1281 -1.0200
62633SOL    HW299879  12.003   0.340   3.635 -0.8157 -0.9356  1.3346
62634SOL     OW99880   8.621  10.890   2.224  0.9182 -0.3610 -0.6357
62634SOL    HW199881   8.553  10.834   2.187 -0.3513 -0.9148  2.2846
62634SOL    HW299882   8.583  10.977   2.224 -0.4900 -0.8621  2.1950
62635SOL     OW99883   7.256   9.148  11.076  0.3676  0.4921 -0.1009
62635SOL    HW199884   7.214   9.105  11.150 -0.5622 -0.7945 -1.3450
62635SOL    HW299885   7.248   9.242  11.095  0.3021  0.1886  1.4877
62636SOL     OW99886   7.929  13.481  11.866  0.1763  0.1660 -0.4921
62636SOL    HW199887   7.849  13.507  11.912 -0.0006 -1.5715  0.2748
62636SOL    HW299888   8.000  13.510  11.923  0.0770  0.8963 -0.7287
62637SOL     OW99889   4.009  10.320   2.229  0.0274  0.0442  0.0560
62637SOL    HW199890   3.924  10.340   2.269  0.1293  0.2794  0.1633
62637SOL    HW299891   4.038  10.241   2.274 -0.0130  0.1157  0.2129
62638SOL     OW99892   9.854   5.296  11.597 -0.6865 -0.1332  0.1168
62638SOL    HW199893   9.897   5.373  11.559 -2.6633  0.0569 -1.9665
62638SOL    HW299894   9.843   5.318  11.690 -0.1893  1.6307 -0.1936
62639SOL     OW99895   7.667   7.929  10.633 -0.2816  0.1008 -0.2491
62639SOL    HW199896   7.673   7.851  10.688  1.7057 -0.3376 -1.0441
62639SOL    HW299897   7.641   7.998  10.694 -0.6736 -0.8744  0.7286
62640SOL     OW99898   8.177   6.482  12.256 -0.4685 -0.1631  0.1688
62640SOL    HW199899   8.186   6.454  12.347  0.4535 -0.7351 -0.0748
62640SOL    HW299900   8.265   6.471  12.220 -0.7254  0.4843 -0.6715
62641SOL     OW99901   0.376  12.353   9.643 -0.0487 -0.1532 -0.1672
62641SOL    HW199902   0.392  12.283   9.580 -1.1022 -0.9264  0.3817
62641SOL    HW299903   0.283  12.343   9.666  0.0241  0.8421  0.6280
62642SOL     OW99904   2.757   7.177   6.864  0.4672 -0.0852 -0.5948
62642SOL    HW199905   2.815   7.179   6.788  0.1394  2.3547 -0.8894
62642SOL    HW299906   2.815   7.187   6.940  0.5960  0.6076 -0.7731
62643SOL     OW99907   9.465   7.472  12.982  0.1363  0.1402 -0.0119
62643SOL    HW199908   9.422   7.523  13.050  0.2524  1.1043 -0.6381
62643SOL    HW299909   9.399   7.410  12.953 -0.3210  0.5672  0.1082
62644SOL     OW99910   2.029  10.861   8.168 -0.7627  0.1423  0.0745
62644SOL    HW199911   2.100  10.850   8.105  0.7268 -0.4367  1.7689
62644SOL    HW299912   2.041  10.949   8.202  0.7411 -0.7675  2.1180
62645SOL     OW99913  10.113   0.879   6.537  0.5200  0.1174  0.1833
62645SOL    HW199914  10.202   0.874   6.501  0.9402 -1.0340  1.3204
62645SOL    HW299915  10.060   0.826   6.479  1.4027 -2.6774  1.7229
62646SOL     OW99916   9.403   8.365  12.263 -0.4613 -0.7299 -0.2350
62646SOL    HW199917   9.487   8.318  12.266 -0.0692 -0.0233  0.7399
62646SOL    HW299918   9.400   8.404  12.176  1.1104  0.7283  0.3049
62647SOL     OW99919  11.460   8.908   7.734  0.4295  0.0304  0.4949
62647SOL    HW199920  11.495   8.860   7.658  1.3312  0.9227  0.3292
62647SOL    HW299921  11.460   8.843   7.805 -1.5117 -1.1592 -0.4996
62648SOL     OW99922   1.971   5.196  10.686  0.1252 -0.4510 -0.1878
62648SOL    HW199923   2.017   5.125  10.642 -1.5430 -1.4536 -0.3995
62648SOL    HW299924   2.027   5.272  10.674  1.5107 -1.5276 -0.7673
62649SOL     OW99925  13.853   2.760   3.559 -0.6466  0.1575  0.1331
62649SOL    HW199926  13.897   2.752   3.475 -1.1561  0.0753 -0.1317
62649SOL    HW299927  13.762   2.736   3.541 -0.4503 -1.3697  1.0177
62650SOL     OW99928   6.344   6.014  13.953 -0.1181  0.0886  0.1629
62650SOL    HW199929   6.364   5.995  13.861 -0.2336 -1.9378  0.5247
62650SOL    HW299930   6.293   5.939  13.983 -2.3328  1.8862  1.2020
62651SOL     OW99931   1.275   4.754   2.337 -0.0580  0.0250  0.4358
62651SOL    HW199932   1.186   4.757   2.301 -0.2811  0.1095  0.9939
62651SOL    HW299933   1.300   4.846   2.347 -0.5898  0.0234  1.9498
62652SOL     OW99934   6.971  13.017   6.125 -0.0659 -0.3710  0.1980
62652SOL    HW199935   6.906  13.017   6.055  0.3001  0.7311 -0.1701
62652SOL    HW299936   6.921  13.010   6.206 -0.9046  2.9557  0.0877
62653SOL     OW99937   2.079   5.238   7.018 -0.2996 -0.2436  0.2245
62653SOL    HW199938   2.077   5.207   7.109  0.0875 -0.8652  0.0301
62653SOL    HW299939   2.146   5.306   7.018  1.1862 -1.6433  0.0012
62654SOL     OW99940   1.120   5.002   3.258 -0.2885  0.5047 -0.5267
62654SOL    HW199941   1.169   4.963   3.331  0.3126  0.1219 -1.1260
62654SOL    HW299942   1.051   4.938   3.240 -1.4051  1.3086  0.6948
62655SOL     OW99943   6.212   2.731   1.654  0.7651 -0.1478  0.8661
62655SOL    HW199944   6.254   2.695   1.576  0.6618 -2.0432  1.6305
62655SOL    HW299945   6.119   2.736   1.631  0.6650 -1.1739  1.0135
62656SOL     OW99946   7.165   2.699  11.065  0.4469 -0.3981 -0.4417
62656SOL    HW199947   7.104   2.680  11.135  0.5981  0.2298 -0.1333
62656SOL    HW299948   7.129   2.776  11.021  1.7146  0.8599  0.6274
62657SOL     OW99949  13.526   3.341  11.904 -0.2686 -0.0783 -0.8678
62657SOL    HW199950  13.465   3.331  11.831 -1.9625  0.9987  0.3347
62657SOL    HW299951  13.576   3.420  11.882  1.7290 -1.6855 -2.4954
62658SOL     OW99952   2.512   7.767   9.678 -0.2147 -0.3963 -0.6019
62658SOL    HW199953   2.427   7.811   9.674 -0.5322 -0.9173  0.1075
62658SOL    HW299954   2.526   7.752   9.772  0.2343 -1.1227 -0.7797
62659SOL     OW99955   6.759   2.227   4.935 -0.0061  0.1981  0.3187
62659SOL    HW199956   6.847   2.264   4.941 -0.7304  1.7635  3.5092
62659SOL    HW299957   6.713   2.283   4.873  0.8265  0.2985 -0.2181
62660SOL     OW99958   8.947   7.097   3.025  0.5269  0.0225 -0.2701
62660SOL    HW199959   8.940   7.172   2.966  0.3700 -0.9252 -1.4994
62660SOL    HW299960   8.870   7.044   3.006  0.6149 -0.4410  0.6038
62661SOL     OW99961   5.578   8.660   8.142 -0.3237 -0.2994 -0.3520
62661SOL    HW199962   5.566   8.671   8.236  0.7497 -1.2155 -0.0827
62661SOL    HW299963   5.540   8.574   8.122  3.3319 -2.2764  0.1486
62662SOL     OW99964  12.531   7.033  12.991 -0.0392  0.1264 -0.3284
62662SOL    HW199965  12.523   7.108  12.931 -0.8572  1.2884  1.1712
62662SOL    HW299966  12.468   6.969  12.956  0.7806  0.0343 -1.7168
62663SOL     OW99967   8.378   9.895   1.322 -0.5862 -0.9371  0.3788
62663SOL    HW199968   8.394   9.906   1.415  1.2106 -0.1339  0.0179
62663SOL    HW299969   8.465   9.893   1.282 -1.3153  0.4967 -1.4694
62664SOL     OW99970   8.539  12.567   9.307  0.1635 -0.2908  0.4809
62664SOL    HW199971   8.543  12.587   9.401 -1.5116 -0.2341  0.5760
62664SOL    HW299972   8.512  12.650   9.267  0.0417 -0.5318  0.0604
62665SOL     OW99973  13.355   0.341   0.694  0.1158  0.2795 -0.0631
62665SOL    HW199974  13.447   0.338   0.722 -0.0622 -0.3999  0.4789
62665SOL    HW299975  13.319   0.418   0.736  0.5107  0.7138 -0.5136
62666SOL     OW99976   2.427   9.190   0.181 -0.0244 -0.4486 -0.5967
62666SOL    HW199977   2.510   9.232   0.162 -0.9844  2.2132  0.6274
62666SOL    HW299978   2.447   9.126   0.250  1.3952 -1.8688 -2.2297
62667SOL     OW99979  11.217   3.968   3.683  0.1655 -0.1631 -0.2106
62667SOL    HW199980  11.210   3.943   3.590  1.9580  0.9994 -0.7028
62667SOL    HW299981  11.270   4.047   3.683 -1.4485  1.0060  1.6890
62668SOL     OW99982  11.942   0.850   8.991 -0.4687 -0.0243 -0.0809
62668SOL    HW199983  11.962   0.888   9.076  1.7474  0.6191 -0.8265
62668SOL    HW299984  11.944   0.924   8.930 -1.3272 -0.5779 -0.8036
62669SOL     OW99985   4.491   2.870   4.199  0.5575  0.0126  0.0600
62669SOL    HW199986   4.415   2.916   4.162  0.2855  0.4217  1.0842
62669SOL    HW299987   4.564   2.931   4.188  0.3982  0.2923  0.5378
62670SOL     OW99988  10.242   3.110   1.709  0.1237  0.3826  0.0468
62670SOL    HW199989  10.280   3.179   1.764 -0.7065  0.8626  0.0432
62670SOL    HW299990  10.221   3.039   1.770  0.0468  0.5439  0.2099
62671SOL     OW99991   2.385  10.433  11.108 -0.1426 -0.5390 -0.0132
62671SOL    HW199992   2.343  10.348  11.090  0.9577 -0.7595 -1.8288
62671SOL    HW299993   2.398  10.471  11.021  1.5124  0.4404  0.6256
62672SOL     OW99994  13.589   5.969   5.231  0.6661 -0.4678  0.3853
62672SOL    HW199995  13.624   5.889   5.270 -0.5719 -1.4672 -0.4431
62672SOL    HW299996  13.664   6.010   5.188  1.0151 -2.1816 -0.7751
62673SOL     OW99997   5.951   3.516   4.375  0.4829 -0.4823 -0.0930
62673SOL    HW199998   5.988   3.604   4.386  0.4781 -0.5980  0.9053
62673SOL    HW299999   6.024   3.465   4.340  0.8227 -0.3398  0.3877
62674SOL     OW    0  11.993   9.461  13.847  0.0110 -0.0685 -0.2808
62674SOL    HW1    1  11.918   9.410  13.817 -0.4262  0.4832 -0.1380
62674SOL    HW2    2  12.051   9.465  13.771 -0.7895  0.7673 -0.8600
62675SOL     OW    3  13.979   2.303   4.337 -0.9285 -0.3413 -0.1557
62675SOL    HW1    4  14.014   2.388   4.363 -0.9484 -0.2149 -0.5385
62675SOL    HW2    5  13.952   2.262   4.419 -0.8267 -0.0192  0.0393
62676SOL     OW    6  14.002  11.741   6.448 -0.2427 -0.2490 -0.5542
62676SOL    HW1    7  13.934  11.802   6.476  0.4387  0.1600  0.2512
62676SOL    HW2    8  14.065  11.795   6.400  0.1607 -0.3781 -0.1803
62677SOL     OW    9   0.856   0.873   2.250 -0.3007 -0.3669 -0.2895
62677SOL    HW1   10   0.801   0.935   2.297  0.1546 -1.3845  1.7189
62677SOL    HW2   11   0.893   0.923   2.177 -0.8762  1.3738  0.5724
62678SOL     OW   12  11.533   1.161   4.814 -0.4177 -0.1501  0.3544
62678SOL    HW1   13  11.589   1.170   4.891 -1.5911 -1.5374  1.4005
62678SOL    HW2   14  11.579   1.100   4.757 -0.2888 -0.3210  0.6459
62679SOL     OW   15   7.958   8.258   0.609 -0.1218 -0.0211 -0.1550
62679SOL    HW1   16   8.046   8.249   0.644  0.5298 -0.4050 -1.8121
62679SOL    HW2   17   7.970   8.304   0.525 -1.6138  0.9183  0.0995
62680SOL     OW   18   0.127   0.803   6.710  0.1023  0.2983  0.2115
62680SOL    HW1   19   0.174   0.802   6.794  0.1553  0.9317  0.1932
62680SOL    HW2   20   0.153   0.885   6.669  2.9076 -1.5209 -2.0525
62681SOL     OW   21  11.287   0.263  10.778 -0.7885  0.0648  0.0162
62681SOL    HW1   22  11.285   0.357  10.797 -0.4666  0.4255 -1.5794
62681SOL    HW2   23  11.364   0.231  10.824 -0.0122  0.8965 -0.6575
62682SOL     OW   24  12.837   3.644  10.638  0.5940 -0.1186 -0.0949
62682SOL    HW1   25  12.780   3.682  10.704  0.7457  1.4443 -0.8141
62682SOL    HW2   26  12.779   3.627  10.563  0.4252 -1.8661  0.3883
62683SOL     OW   27   3.145   6.984   2.170 -0.1876  0.1851 -0.3061
62683SOL    HW1   28   3.164   7.055   2.109  0.7269 -0.3836 -0.7025
62683SOL    HW2   29   3.188   7.009   2.251  0.4559 -0.0936 -0.5599
62684SOL     OW   30   7.094   3.967  13.542 -0.1462  0.0182  0.0963
62684SOL    HW1   31   7.060   3.959  13.631 -1.4921 -1.9944 -0.5075
62684SOL    HW2   32   7.152   4.043  13.545  1.3878 -1.0903  3.1630
62685SOL     OW   33   3.496  11.543   2.131  0.2329 -0.1046  0.1116
62685SOL    HW1   34   3.555  11.468   2.139  1.2719  0.6048 -0.7111
62685SOL    HW2   35   3.511  11.577   2.043 -1.2176  0.2674 -0.0196
62686SOL     OW   36   7.388   1.673   3.809 -0.1955 -0.3025  0.1875
62686SOL    HW1   37   7.471   1.707   3.776  1.5023 -1.7920  2.5191
62686SOL    HW2   38   7.349   1.628   3.734  1.8126 -0.7538 -0.6609
62687SOL     OW   39   2.759   0.976  11.007  0.5273 -0.3790 -0.2763
62687SOL    HW1   40   2.830   1.040  11.002  0.4556 -0.3413 -0.8935
62687SOL    HW2   41   2.693   1.008  10.946 -0.0265 -0.4104  0.3051
62688SOL     OW   42   3.726  10.554   2.275 -0.1708 -0.1479 -0.3216
62688SOL    HW1   43   3.726  10.555   2.179  0.9593  1.1562 -0.3510
62688SOL    HW2   44   3.816  10.577   2.298  0.1161 -2.4339  1.0769
62689SOL     OW   45  12.464   7.815   3.730 -0.3005  0.2217 -0.0794
62689SOL    HW1   46  12.478   7.873   3.655 -1.8720  2.0027  0.9024
62689SOL    HW2   47  12.549   7.808   3.772  0.7039 -1.1342 -2.1965
62690SOL     OW   48   0.776   4.145   8.963  0.0163  0.3686  0.0058
62690SOL    HW1   49   0.695   4.135   8.912  0.0428 -0.3996  0.0932
62690SOL    HW2   50   0.808   4.233   8.942 -1.9411  1.5379  1.5934
62691SOL     OW   51   3.267   6.049   3.819 -0.4217  0.2811  0.7331
62691SOL    HW1   52   3.211   6.089   3.886 -2.6702  0.1240 -0.9244
62691SOL    HW2   53   3.214   5.977   3.785  1.4721 -0.8902  0.1181
62692SOL     OW   54   4.343   8.676  11.817 -0.2301  0.4288 -0.4746
62692SOL    HW1   55   4.332   8.581  11.806  0.2651  0.5113 -1.9742
62692SOL    HW2   56   4.435   8.688  11.837 -0.8598  0.4067  2.9766
62693SOL     OW   57  12.907   2.914   2.610 -0.7822  0.1040  0.5010
62693SOL    HW1   58  12.880   2.822   2.610 -0.5923  0.0446  0.8274
62693SOL    HW2   59  12.997   2.912   2.644 -0.3708  0.2948 -0.5355
62694SOL     OW   60   2.340   4.073   4.329 -0.5389  0.3499 -0.0393
62694SOL    HW1   61   2.418   4.018   4.342 -0.9619 -0.2283  0.0776
62694SOL    HW2   62   2.267   4.013   4.336 -1.2962  1.4006  3.8669
62695SOL     OW   63  13.906  13.457  11.071 -0.0596 -0.1930  0.0292
62695SOL    HW1   64  13.884  13.382  11.126 -0.0812  0.3013  0.7065
62695SOL    HW2   65  13.963  13.511  11.126  1.5540 -0.6593 -1.1221
62696SOL     OW   66  12.238   0.540   7.228 -0.4429  0.2372  0.0960
62696SOL    HW1   67  12.302   0.600   7.190  0.9256 -0.4049  1.2814
62696SOL    HW2   68  12.280   0.508   7.308 -2.3546 -0.0426  1.0483
62697SOL     OW   69  11.931   7.497   6.095  0.2393  0.2848 -0.3567
62697SOL    HW1   70  11.957   7.588   6.107 -0.8569  0.5690  0.0228
62697SOL    HW2   71  11.863   7.482   6.161  0.8518 -1.0053  0.0147
62698SOL     OW   72   8.382   5.523   5.437  0.1193  1.0545 -0.2969
62698SOL    HW1   73   8.407   5.581   5.365  0.3978  1.8368  0.4109
62698SOL    HW2   74   8.462   5.475   5.458  0.7110  2.5190  1.0130
62699SOL     OW   75   7.825   1.505   1.012 -0.0509 -0.0362  0.1779
62699SOL    HW1   76   7.817   1.583   0.957 -1.0574 -0.9593 -1.0575
62699SOL    HW2   77   7.867   1.440   0.956 -1.2167 -1.0497  0.4366
62700SOL     OW   78   8.653   3.385   8.963  0.7778 -0.3158 -0.0201
62700SOL    HW1   79   8.741   3.418   8.979  0.7043 -0.9969  2.1759
62700SOL    HW2   80   8.596   3.458   8.987  0.7133  0.1919 -1.6289
62701SOL     OW   81  13.907   7.286   6.269 -0.0330  0.0565  0.3890
62701SOL    HW1   82  13.830   7.277   6.214  1.4693  0.9932 -2.0512
62701SOL    HW2   83  13.950   7.200   6.265 -0.8541 -0.4486  1.7041
62702SOL     OW   84  11.499   1.182   7.061  0.0980  0.1663  0.3046
62702SOL    HW1   85  11.469   1.273   7.053  0.9374  0.5402  1.2442
62702SOL    HW2   86  11.421   1.133   7.088  0.0320  0.9168  1.5401
62703SOL     OW   87   2.027   8.945   4.090  0.4996 -0.2061  0.1294
62703SOL    HW1   88   2.094   9.001   4.051 -0.5298  0.5195 -0.6447
62703SOL    HW2   89   2.021   8.870   4.031  1.4675 -0.8701  0.8530
62704SOL     OW   90  11.587  12.572  13.560 -0.2831  0.0601 -0.3099
62704SOL    HW1   91  11.552  12.509  13.623  0.9081 -0.8930 -0.5361
62704SOL    HW2   92  11.682  12.563  13.569 -0.0733  2.1814 -0.0360
62705SOL     OW   93   4.508  13.195   2.675 -0.0501  0.1321  0.0960
62705SOL    HW1   94   4.537  13.287   2.679 -0.8297  0.3407  1.1669
62705SOL    HW2   95   4.420  13.196   2.711 -1.0466 -0.6666 -2.1728
62706SOL     OW   96   9.918   0.189  12.325 -0.0734 -0.2791 -0.3742
62706SOL    HW1   97   9.931   0.264  12.267 -2.3221 -0.4960 -1.2403
62706SOL    HW2   98   9.849   0.216  12.385  1.2901 -0.5546  1.4127
62707SOL     OW   99   3.376  12.763   0.794  0.3797 -0.1263  0.1066
62707SOL    HW1  100   3.339  12.676   0.806  0.1304 -0.0950 -0.3939
62707SOL    HW2  101   3.367  12.780   0.700  1.4196 -0.0003  0.0241
62708SOL     OW  102   3.738   6.684   8.371  0.2289 -0.2056  0.6441
62708SOL    HW1  103   3.800   6.704   8.301  0.4945  0.3381  1.0241
62708SOL    HW2  104   3.746   6.759   8.431 -1.9214  0.6621 -0.0706
62709SOL     OW  105   4.647   1.350  13.275  0.4259  0.3051  0.3700
62709SOL    HW1  106   4.721   1.359  13.215  0.1711 -0.8021 -0.1354
62709SOL    HW2  107   4.683   1.306  13.352  0.3315 -0.1100  0.1803
62710SOL     OW  108  13.065  10.981   1.891 -0.1442 -0.5413 -0.1533
62710SOL    HW1  109  13.100  10.920   1.957  1.3506 -1.2057 -1.4858
62710SOL    HW2  110  13.132  11.050   1.885 -1.9827  1.5424  1.6040
62711SOL     OW  111  11.865  11.044   5.872 -0.4784 -0.4853 -0.6368
62711SOL    HW1  112  11.815  11.103   5.929 -0.1248  0.0764 -0.9011
62711SOL    HW2  113  11.856  10.958   5.914  0.2487  0.0098  0.6111
62712SOL     OW  114  12.693   1.544   4.241  0.0033  0.2990 -0.4753
62712SOL    HW1  115  12.631   1.474   4.262 -0.2605  0.7944  0.4786
62712SOL    HW2  116  12.706   1.538   4.146 -1.5583  0.2221 -0.7048
62713SOL     OW  117   3.200   8.026   9.786 -0.0128 -0.0622 -0.1226
62713SOL    HW1  118   3.243   8.094   9.734  1.5563 -0.6134  0.3995
62713SOL    HW2  119   3.190   7.952   9.726 -0.8660  0.2905 -0.4294
62714SOL     OW  120   8.241   2.939  11.593  0.4610 -0.4294 -0.0014
62714SOL    HW1  121   8.178   2.952  11.664  2.6604  1.7653  1.7521
62714SOL    HW2  122   8.261   3.028  11.563  2.3651 -1.0735 -0.7810
62715SOL     OW  123   7.008  12.350   4.319 -0.0081 -0.5604 -0.2820
62715SOL    HW1  124   6.920  12.313   4.318 -0.8854  1.4039 -2.0380
62715SOL    HW2  125   7.049  12.317   4.238  0.0503  0.3358 -0.6254
62716SOL     OW  126   2.571   3.428   1.311  0.8067  0.0840  0.0456
62716SOL    HW1  127   2.541   3.514   1.283  2.0893  0.2337 -0.9849
62716SOL    HW2  128   2.636   3.446   1.378  2.0447  0.0174 -1.0932
62717SOL     OW  129   4.350  13.604  13.755  0.1656 -0.4206 -0.4396
62717SOL    HW1  130   4.301  13.683  13.778  0.9494  0.0965 -0.5175
62717SOL    HW2  131   4.442  13.631  13.757  0.3629 -0.7988 -2.4076
62718SOL     OW  132   9.010   0.237   9.222 -0.3456  0.1042  0.4541
62718SOL    HW1  133   8.990   0.323   9.258 -0.0913 -0.2078  1.3829
62718SOL    HW2  134   9.000   0.177   9.297  2.3373 -0.2882  0.6068
62719SOL     OW  135   6.923   6.933  13.844  0.0856 -0.5865 -0.0857
62719SOL    HW1  136   6.946   7.025  13.828  1.6879 -1.1296 -1.1153
62719SOL    HW2  137   6.983   6.905  13.914 -2.1046 -0.2067  2.0822
62720SOL     OW  138   4.191  11.730   8.274  0.2980 -0.4670 -0.4801
62720SOL    HW1  139   4.170  11.638   8.256  1.5306 -0.5301 -1.7299
62720SOL    HW2  140   4.106  11.770   8.296 -0.6607 -1.3872 -2.2496
62721SOL     OW  141   2.389  10.895   7.901  0.0968  0.0698  0.2227
62721SOL    HW1  142   2.376  10.832   7.972  0.0537 -0.1190  0.0451
62721SOL    HW2  143   2.474  10.873   7.864  1.0378  1.3960  1.4751
62722SOL     OW  144   0.120  13.386   7.676 -0.3954 -0.0429  0.1104
62722SOL    HW1  145   0.190  13.421   7.620  0.6496 -2.3455 -0.1581
62722SOL    HW2  146   0.060  13.460   7.689  0.9527  1.4206 -1.4525
62723SOL     OW  147   8.220   6.114   8.958  0.3759  0.7405 -0.1700
62723SOL    HW1  148   8.237   6.075   8.872  1.2939 -2.7169  1.4016
62723SOL    HW2  149   8.125   6.124   8.961  0.1549 -0.7990 -0.9980
62724SOL     OW  150  11.335   3.694   5.042 -0.3634  0.0268 -0.4148
62724SOL    HW1  151  11.414   3.641   5.030 -0.1695  0.4330 -0.9834
62724SOL    HW2  152  11.338   3.722   5.133 -0.7334 -1.3508  0.0430
62725SOL     OW  153   1.163  11.541   4.644  0.0859 -0.0190 -0.9143
62725SOL    HW1  154   1.151  11.582   4.558 -0.6120 -3.3579 -2.5672
62725SOL    HW2  155   1.077  11.503   4.663  0.8321 -1.1648  0.2244
62726SOL     OW  156   3.844   8.183   0.430  0.0993 -0.1271  0.3156
62726SOL    HW1  157   3.756   8.219   0.437  0.0590  0.3573 -1.9020
62726SOL    HW2  158   3.867   8.158   0.519 -2.7364 -1.3575  0.8156
62727SOL     OW  159   0.892   2.266  11.687  0.1559  0.3470  0.1051
62727SOL    HW1  160   0.938   2.349  11.678  0.7794 -0.0672 -0.6698
62727SOL    HW2  161   0.819   2.272  11.626  0.4800  0.1416 -0.3040
62728SOL     OW  162  13.559  13.346  10.285 -0.1664 -0.1199 -0.4417
62728SOL    HW1  163  13.516  13.364  10.369 -0.9632  1.5236 -1.1717
62728SOL    HW2  164  13.630  13.410  10.280  0.6186 -0.9721 -0.5256
62729SOL     OW  165   9.559  12.760   8.481 -0.1624  0.2175 -0.7060
62729SOL    HW1  166   9.629  12.782   8.544 -0.5744  0.2058 -0.2372
62729SOL    HW2  167   9.587  12.676   8.445 -1.2313 -1.1872  1.4864
62730SOL     OW  168   0.049   2.045  12.799  0.0611  0.3409 -0.6787
62730SOL    HW1  169   0.061   2.139  12.813 -2.0580  0.4519  0.9346
62730SOL    HW2  170  -0.042   2.037  12.771  0.1907 -1.2488 -0.7310
62731SOL     OW  171   7.637   4.931   7.760 -0.1234 -0.0508  0.5055
62731SOL    HW1  172   7.692   4.948   7.683 -0.3980 -0.7922  0.1277
62731SOL    HW2  173   7.552   4.908   7.723  0.1936 -2.1068  0.9521
62732SOL     OW  174   0.329   4.638  12.179 -0.0941 -0.2628  0.2955
62732SOL    HW1  175   0.393   4.571  12.202  0.8567  0.0462 -1.2962
62732SOL    HW2  176   0.250   4.614  12.229  0.0522 -2.8582 -0.5638
62733SOL     OW  177   3.417   7.087  11.249 -0.7999 -0.4992 -0.3126
62733SOL    HW1  178   3.361   7.021  11.208 -1.7657  1.3634 -2.1757
62733SOL    HW2  179   3.417   7.160  11.187  2.6108  0.1513  0.2627
62734SOL     OW  180   4.856   5.145  13.432  0.6489  0.0718 -0.6001
62734SOL    HW1  181   4.873   5.239  13.425  0.3810  0.2594  0.9955
62734SOL    HW2  182   4.938   5.104  13.405  1.5460  0.8339  0.8437
62735SOL     OW  183  11.206   9.910  10.496 -0.1161 -0.2712  0.5861
62735SOL    HW1  184  11.123   9.862  10.500 -0.4098  0.1891  0.1429
62735SOL    HW2  185  11.254   9.870  10.424  0.4870 -1.2068  1.4795
62736SOL     OW  186   0.438   6.401   1.467 -0.1686  0.8258  0.4956
62736SOL    HW1  187   0.377   6.361   1.405 -1.4860  3.1621  0.1636
62736SOL    HW2  188   0.461   6.485   1.427  2.1770  0.6329  1.3110
62737SOL     OW  189   8.612  13.760   9.817  0.4155  0.4196  0.2900
62737SOL    HW1  190   8.574  13.673   9.831  1.5247  0.3089  3.4209
62737SOL    HW2  191   8.539  13.820   9.830  0.1626  0.0262  0.7337
62738SOL     OW  192   9.213  12.236   4.427  0.0859 -0.2583 -0.4278
62738SOL    HW1  193   9.214  12.167   4.360 -0.2030 -0.2297 -0.4616
62738SOL    HW2  194   9.125  12.273   4.422 -0.2258 -0.8262  0.5467
62739SOL     OW  195  13.874  12.752   5.377 -0.2237  0.1153 -0.4054
62739SOL    HW1  196  13.901  12.782   5.290 -3.4360  0.7187 -1.3346
62739SOL    HW2  197  13.889  12.658   5.375  0.9372  0.2941 -1.1235
62740SOL     OW  198  10.560   6.121   5.600  1.0731 -0.2368 -0.6666
62740SOL    HW1  199  10.630   6.168   5.554 -0.2183 -0.0404 -2.5460
62740SOL    HW2  200  10.574   6.029   5.577  0.8802 -0.2270 -0.8252
62741SOL     OW  201   8.208  11.172   8.124 -0.1261  0.5280 -0.4271
62741SOL    HW1  202   8.287  11.184   8.071 -0.2126  0.4106 -0.5840
62741SOL    HW2  203   8.142  11.226   8.081 -0.8140 -1.2593 -1.7831
62742SOL     OW  204   8.880   1.006   6.426 -0.2516  0.6271  0.3020
62742SOL    HW1  205   8.931   1.062   6.368 -0.8875  0.2761 -0.6176
62742SOL    HW2  206   8.933   0.998   6.505  0.5470  1.2630 -0.1600
62743SOL     OW  207   8.281   3.369   2.714  0.4636  0.1953 -0.4105
62743SOL    HW1  208   8.238   3.408   2.638  0.8083  2.3290  0.4255
62743SOL    HW2  209   8.370   3.405   2.713  1.0599 -1.1859  0.0031
62744SOL     OW  210   0.451   1.471   5.143 -0.2758 -0.0304 -0.0251
62744SOL    HW1  211   0.494   1.393   5.107 -1.4891  0.1291 -2.0075
62744SOL    HW2  212   0.477   1.472   5.235  2.2609 -1.0474 -0.6152
62745SOL     OW  213   4.222  12.081  12.209 -0.4748 -0.3856 -0.1346
62745SOL    HW1  214   4.250  12.024  12.280  0.9559 -0.0802 -0.4394
62745SOL    HW2  215   4.207  12.021  12.135  0.6771 -0.4231 -0.3511
62746SOL     OW  216   5.538  11.904   5.872 -0.5578 -0.1137  0.5059
62746SOL    HW1  217   5.568  11.936   5.786  1.4890  1.0915  1.5804
62746SOL    HW2  218   5.488  11.976   5.908 -2.2076 -0.9611  0.0189
62747SOL     OW  219   4.669   4.567   1.590 -0.4188  0.0881  0.1679
62747SOL    HW1  220   4.616   4.646   1.599 -0.3613  0.3285 -1.4297
62747SOL    HW2  221   4.742   4.594   1.533  0.3613 -0.7557  0.7406
62748SOL     OW  222   1.322   6.007  11.611  0.0032 -0.4221 -0.4000
62748SOL    HW1  223   1.352   5.926  11.652 -0.0921 -0.0751  0.3762
62748SOL    HW2  224   1.348   6.076  11.673  2.7499  0.4868 -2.3664
62749SOL     OW  225   3.792  10.532   9.651 -0.0402 -0.0556 -0.4237
62749SOL    HW1  226   3.751  10.446   9.658  2.3185 -1.3550 -1.3457
62749SOL    HW2  227   3.807  10.543   9.557  2.7591 -0.2907 -0.1144
62750SOL     OW  228  12.912   9.050  12.160 -0.2443  0.0278  0.1058
62750SOL    HW1  229  12.889   9.138  12.190 -1.5796 -0.5916  0.9931
62750SOL    HW2  230  12.849   9.033  12.089  1.2084  0.4697 -1.3546
62751SOL     OW  231   6.513  10.342   7.557  0.1230  0.2716  0.2136
62751SOL    HW1  232   6.483  10.431   7.538 -0.6024  0.2545  1.2312
62751SOL    HW2  233   6.497  10.331   7.650  0.9352 -0.6615  0.2512
62752SOL     OW  234  10.198   8.496   1.966 -0.3046 -0.1044 -0.1173
62752SOL    HW1  235  10.188   8.487   2.060  0.8479 -0.7687 -0.0355
62752SOL    HW2  236  10.282   8.541   1.955  0.5927 -1.8280 -0.8275
62753SOL     OW  237   9.430   9.611   8.817 -0.0066  0.4008 -0.0175
62753SOL    HW1  238   9.353   9.602   8.762 -0.9340  2.1061  0.9147
62753SOL    HW2  239   9.432   9.531   8.870 -0.6376 -0.0307 -0.6329
62754SOL     OW  240   1.092   5.892   1.849 -0.5116  0.0316  0.0660
62754SOL    HW1  241   1.145   5.943   1.788 -1.7611  0.3430 -0.7887
62754SOL    HW2  242   1.138   5.808   1.856  0.5678  0.6082  0.0501
62755SOL     OW  243   2.097   8.711   1.568 -0.3427  0.2911 -0.2361
62755SOL    HW1  244   2.094   8.647   1.497 -0.2999  0.7230 -0.6315
62755SOL    HW2  245   2.140   8.788   1.530 -1.6270  1.0685 -0.1850
62756SOL     OW  246   1.516   5.087  12.206  0.0097 -0.3420  0.1759
62756SOL    HW1  247   1.601   5.060  12.169  0.2963  0.6374  0.0907
62756SOL    HW2  248   1.502   5.175  12.171 -0.0509  0.3339  1.8354
62757SOL     OW  249   2.327   6.341   9.202 -0.3848  0.0749  0.7940
62757SOL    HW1  250   2.297   6.302   9.120 -0.6851 -1.1294  1.4390
62757SOL    HW2  251   2.248   6.344   9.257  0.2176 -1.2079  1.7920
62758SOL     OW  252   9.419  10.127  13.622 -0.4974  0.5887 -0.0200
62758SOL    HW1  253   9.398  10.048  13.571 -0.5303  0.2146  0.5616
62758SOL    HW2  254   9.385  10.108  13.710 -0.9938  1.4788 -0.0111
62759SOL     OW  255   4.677   1.026   8.173  0.3693  0.5477 -0.2184
62759SOL    HW1  256   4.632   1.057   8.094  0.6788  1.0404 -0.2065
62759SOL    HW2  257   4.733   1.100   8.199  1.9143 -0.3790 -0.7740
62760SOL     OW  258   2.046   8.973   2.895 -0.2490  0.3444 -0.1864
62760SOL    HW1  259   2.091   8.954   2.977  0.4134 -0.4132 -0.7094
62760SOL    HW2  260   2.064   8.897   2.840 -0.7289  0.8201 -1.0150
62761SOL     OW  261   7.229  10.221  12.751 -0.1533  0.2061 -0.4232
62761SOL    HW1  262   7.156  10.189  12.698 -0.9233 -0.4207  0.9711
62761SOL    HW2  263   7.236  10.157  12.822 -0.8829  2.4074  1.7465
62762SOL     OW  264   3.892   9.455   7.803 -0.0113 -0.0129 -0.3966
62762SOL    HW1  265   3.914   9.427   7.715  1.4855 -1.8541  0.4868
62762SOL    HW2  266   3.810   9.409   7.824  0.3991 -0.7318 -0.3354
62763SOL     OW  267  10.569   6.709   6.393  0.4146 -0.4158  0.3475
62763SOL    HW1  268  10.612   6.627   6.416 -0.9563 -1.6219 -1.1381
62763SOL    HW2  269  10.604   6.732   6.307  0.8549  0.6350  0.7869
62764SOL     OW  270   2.713  11.457   9.949  0.4138 -0.6236 -0.5105
62764SOL    HW1  271   2.618  11.471   9.943  0.5776  0.5151 -0.6795
62764SOL    HW2  272   2.751  11.542   9.926  1.5116 -1.3722 -1.5851
62765SOL     OW  273  13.079   9.647   9.151  0.0113 -0.3719  0.1241
62765SOL    HW1  274  12.991   9.659   9.114 -0.6463  0.2722  1.8057
62765SOL    HW2  275  13.071   9.568   9.205  0.4671 -0.2905  0.3056
62766SOL     OW  276  12.640   2.012   8.083  0.0214 -0.3590 -0.2030
62766SOL    HW1  277  12.702   1.952   8.041  0.9337  0.0809  0.4867
62766SOL    HW2  278  12.559   2.000   8.034  0.3081 -1.8193 -0.3896
62767SOL     OW  279   6.379   7.930   1.959  0.8257  1.1533 -0.5219
62767SOL    HW1  280   6.415   7.889   2.037  0.9010 -1.2190 -1.7167
62767SOL    HW2  281   6.354   8.018   1.987  3.6263  1.4503  1.3845
62768SOL     OW  282   7.783  11.152  11.023  0.4292 -0.0876  0.2262
62768SOL    HW1  283   7.878  11.167  11.022  0.3861  0.1801  0.1324
62768SOL    HW2  284   7.751  11.207  11.094  0.2610  0.3235 -0.1634
62769SOL     OW  285   5.372   6.074   7.335  0.1131 -0.1109 -0.2222
62769SOL    HW1  286   5.397   6.131   7.408 -0.5398  0.4445 -0.4242
62769SOL    HW2  287   5.316   6.129   7.280 -2.8055 -1.7207  0.9531
62770SOL     OW  288   1.303   0.920   8.051  0.1374 -0.8360  0.2793
62770SOL    HW1  289   1.286   0.923   7.957  0.6848  1.7000  0.1982
62770SOL    HW2  290   1.247   0.989   8.087 -1.7677 -3.1906  2.1744
62771SOL     OW  291  10.125   6.693   7.049  0.4715  0.0433  0.2351
62771SOL    HW1  292  10.041   6.663   7.084 -0.2353  1.6681  0.0091
62771SOL    HW2  293  10.144   6.632   6.977  0.0566 -1.0038  0.9759
62772SOL     OW  294  13.673  10.234   1.250 -0.0861  0.3340 -0.3085
62772SOL    HW1  295  13.586  10.273   1.236  0.1894  0.8610 -0.5858
62772SOL    HW2  296  13.675  10.159   1.191 -1.2305 -1.1039  1.3867
62773SOL     OW  297   9.688   3.147   5.834 -0.1918  0.1145 -0.2030
62773SOL    HW1  298   9.630   3.204   5.782 -1.6142 -0.3464  0.8004
62773SOL    HW2  299   9.763   3.131   5.777 -1.1626  0.5429 -1.6748
62774SOL     OW  300   1.900   4.469  11.589  0.3787 -0.4637 -0.2500
62774SOL    HW1  301   1.864   4.499  11.673  0.2811 -2.5121  0.4887
62774SOL    HW2  302   1.954   4.542  11.559 -0.5504  0.7953  0.9752
62775SOL     OW  303   4.499  10.281   1.541 -0.2386  0.3341  0.3288
62775SOL    HW1  304   4.491  10.346   1.471  0.2302  0.7920  0.6945
62775SOL    HW2  305   4.439  10.312   1.609  1.4551  1.5275  1.3563
62776SOL     OW  306  12.807  13.870   9.641 -0.3526  0.0328 -0.1765
62776SOL    HW1  307  12.736  13.910   9.691 -0.7263 -1.9172  0.9132
62776SOL    HW2  308  12.870  13.841   9.707  0.8783  0.5880 -1.0616
62777SOL     OW  309   7.727   7.882   4.238 -0.4592  0.5021  0.0017
62777SOL    HW1  310   7.769   7.969   4.235 -1.8088  1.2019  0.4454
62777SOL    HW2  311   7.796   7.824   4.270  0.7844  1.2016 -1.2940
62778SOL     OW  312   3.953  12.179  11.306  0.9609 -0.2598 -0.5465
62778SOL    HW1  313   3.933  12.090  11.276 -0.1917  0.0811 -0.8736
62778SOL    HW2  314   3.955  12.231  11.225  1.1042  0.1035 -0.3125
62779SOL     OW  315   8.261   0.873  12.650 -0.7071 -0.5814 -0.8569
62779SOL    HW1  316   8.231   0.962  12.631 -0.0209 -0.6683 -2.5549
62779SOL    HW2  317   8.354   0.882  12.669 -1.1687 -0.6424  1.7040
62780SOL     OW  318   8.489   2.858   1.291  0.0759 -0.6011  0.2086
62780SOL    HW1  319   8.430   2.877   1.219 -0.5184  0.9736  1.0642
62780SOL    HW2  320   8.516   2.944   1.324  0.3091 -1.2651  1.8737
62781SOL     OW  321   7.972   6.772   2.260  0.5955 -0.9907 -0.0467
62781SOL    HW1  322   7.990   6.834   2.189  1.8014  0.1045  1.1679
62781SOL    HW2  323   7.961   6.688   2.216 -0.9876  0.0183 -1.7439
62782SOL     OW  324   7.597   2.481   5.138 -0.1442  0.1184  0.0536
62782SOL    HW1  325   7.580   2.508   5.228 -2.1480  0.6939 -0.4382
62782SOL    HW2  326   7.559   2.551   5.085 -0.9798 -1.2483 -1.2412
62783SOL     OW  327   8.394  12.392  12.721  0.0110  0.3411 -0.0905
62783SOL    HW1  328   8.420  12.461  12.659 -0.9513  0.6874 -0.1332
62783SOL    HW2  329   8.476  12.355  12.752  0.5854  1.8665  0.3207
62784SOL     OW  330  13.160   4.629   5.920  0.3943 -0.2500  0.6026
62784SOL    HW1  331  13.193   4.653   5.833  0.0921 -1.6726  0.0817
62784SOL    HW2  332  13.237   4.639   5.977  0.5425  0.9027  0.2420
62785SOL     OW  333   1.773   2.425   5.015  0.3417 -1.2371 -0.3616
62785SOL    HW1  334   1.776   2.400   5.107  0.7805  0.8189  0.2253
62785SOL    HW2  335   1.682   2.447   4.999  0.6472  0.6496  0.2681
62786SOL     OW  336  13.363   0.358  11.811 -0.0006  0.0121  0.0993
62786SOL    HW1  337  13.277   0.328  11.839 -0.5543  1.4835  0.0464
62786SOL    HW2  338  13.416   0.278  11.806 -1.6706 -1.0740 -1.0270
62787SOL     OW  339   2.875   5.076   9.615 -0.4508  0.2376  0.4352
62787SOL    HW1  340   2.891   5.086   9.521  1.4380 -1.2440  0.5501
62787SOL    HW2  341   2.816   5.149   9.637 -1.5362  0.1866 -2.0033
62788SOL     OW  342  13.067   2.363   0.357  0.2644 -0.1111 -0.6426
62788SOL    HW1  343  13.125   2.319   0.295  0.2520  0.4621 -1.0664
62788SOL    HW2  344  13.008   2.294   0.388  2.3724 -1.1710  1.2806
62789SOL     OW  345   2.378   4.179   7.767 -0.1462 -0.5536 -0.1095
62789SOL    HW1  346   2.472   4.189   7.761 -0.1314 -0.8794 -0.4416
62789SOL    HW2  347   2.364   4.084   7.767 -0.4138 -0.5290  0.8217
62790SOL     OW  348   4.897  10.439   0.643  0.6361 -0.3955 -0.0994
62790SOL    HW1  349   4.883  10.525   0.683  1.1772  0.0858 -0.9166
62790SOL    HW2  350   4.817  10.390   0.662  0.4005  0.2258  0.5292
62791SOL     OW  351   0.796   0.653   1.385 -0.6016  0.6117  0.1807
62791SOL    HW1  352   0.795   0.581   1.448 -0.9472  0.6079  0.1730
62791SOL    HW2  353   0.735   0.626   1.316 -0.1549  0.5735 -0.2008
62792SOL     OW  354   1.607   1.017   0.769  0.2932  0.0960 -0.2445
62792SOL    HW1  355   1.631   1.089   0.710  2.1480 -0.8269 -0.6836
62792SOL    HW2  356   1.674   1.018   0.837  0.2821 -1.1524 -0.1963
62793SOL     OW  357   1.373   0.143   2.326 -0.3226  0.0983 -0.0095
62793SOL    HW1  358   1.283   0.117   2.342 -0.3919  0.0418 -0.4553
62793SOL    HW2  359   1.370   0.187   2.241 -0.1992  1.5442  0.7182
62794SOL     OW  360  13.052  13.976  12.062  0.0245  0.2897 -0.3711
62794SOL    HW1  361  13.136  14.009  12.031 -0.5443  1.0186 -1.1924
62794SOL    HW2  362  13.059  13.881  12.054  0.2648  0.3968 -1.8756
62795SOL     OW  363   5.681  12.274   7.952 -0.3309 -0.2339  0.0798
62795SOL    HW1  364   5.658  12.238   7.867 -1.7480  0.6466  0.0621
62795SOL    HW2  365   5.627  12.353   7.961  1.4688  0.9962  0.8117
62796SOL     OW  366   7.226  11.386   1.266  0.1750 -0.3827  0.1756
62796SOL    HW1  367   7.134  11.414   1.261  0.4159  0.2943 -0.6216
62796SOL    HW2  368   7.276  11.467   1.264  0.8128 -0.7722  0.1138
62797SOL     OW  369   4.635   8.899  12.535 -0.8445 -0.3577 -0.2465
62797SOL    HW1  370   4.712   8.956  12.545  0.0149 -1.2889 -1.3001
62797SOL    HW2  371   4.668   8.811  12.548 -1.2357 -0.9776 -2.8262
62798SOL     OW  372  10.966   1.570   7.699  0.4017  0.2727  0.2847
62798SOL    HW1  373  11.052   1.531   7.687  0.1221  0.2483 -2.1681
62798SOL    HW2  374  10.905   1.496   7.695  0.1984  0.3610  1.3745
62799SOL     OW  375  10.759  10.859   5.931  0.2841 -0.1882  0.3439
62799SOL    HW1  376  10.836  10.913   5.911  0.3603 -0.0914  0.8773
62799SOL    HW2  377  10.745  10.872   6.025  0.0438 -0.7680  0.3898
62800SOL     OW  378   2.835   0.191  13.596  0.8095 -0.4938  0.1408
62800SOL    HW1  379   2.743   0.164  13.604  1.0331 -1.3558 -0.1091
62800SOL    HW2  380   2.830   0.284  13.576  0.0380 -0.1563  1.7319
62801SOL     OW  381   2.439  10.134   4.125  0.0155  0.1389 -0.4760
62801SOL    HW1  382   2.445  10.048   4.085 -4.6807  0.5671 -2.8784
62801SOL    HW2  383   2.429  10.194   4.051 -1.8707  1.9867  1.1396
62802SOL     OW  384  11.146  12.231   2.279  0.2098 -0.2312  0.0579
62802SOL    HW1  385  11.131  12.233   2.185 -2.4514  0.3654  0.4017
62802SOL    HW2  386  11.119  12.143   2.306 -0.6485  0.1271  0.4299
62803SOL     OW  387  10.036  11.389   9.444 -0.0353  0.1514 -0.5545
62803SOL    HW1  388  10.070  11.300   9.447  0.2825  0.2884  0.2303
62803SOL    HW2  389  10.068  11.424   9.360 -0.2332 -0.4922 -0.9030
62804SOL     OW  390  11.787   4.435  10.035 -0.2431 -0.1948 -0.3050
62804SOL    HW1  391  11.709   4.482  10.003 -1.3482 -1.4905  0.3632
62804SOL    HW2  392  11.761   4.402  10.121  1.8979  1.3189  0.9967
62805SOL     OW  393   3.383   5.695  10.222 -0.3302 -0.1418  0.0892
62805SOL    HW1  394   3.294   5.693  10.187 -0.1987  1.3525 -0.3593
62805SOL    HW2  395   3.371   5.688  10.317 -0.8342 -1.3099 -0.0438
62806SOL     OW  396   7.306   8.331  11.907  0.1769  0.4128 -0.3729
62806SOL    HW1  397   7.358   8.395  11.956 -1.0647  2.6488 -1.7976
62806SOL    HW2  398   7.215   8.349  11.933 -0.2472 -0.4223 -1.2103
62807SOL     OW  399   0.744  10.688   6.784 -0.0181  0.2130  0.5416
62807SOL    HW1  400   0.779  10.666   6.697 -1.0259 -1.0255  0.4171
62807SOL    HW2  401   0.758  10.610   6.836 -2.3037 -0.2622  0.5531
62808SOL     OW  402  11.072   9.153  10.294  0.2832 -0.0497  0.6817
62808SOL    HW1  403  11.006   9.139  10.362  0.1606  0.9089  0.7794
62808SOL    HW2  404  11.059   9.082  10.231 -0.4297 -0.2215  1.0233
62809SOL     OW  405   7.254   5.166   4.863  0.6086  0.0031  0.2633
62809SOL    HW1  406   7.317   5.145   4.932  0.6275 -0.7762  0.0210
62809SOL    HW2  407   7.244   5.084   4.814  0.3666  0.4582 -0.4753
62810SOL     OW  408   3.143   5.143   4.648  0.3223  0.0389 -0.0456
62810SOL    HW1  409   3.117   5.159   4.557  3.1115  1.4860 -0.7339
62810SOL    HW2  410   3.137   5.048   4.659 -0.5100 -0.1188 -1.5782
62811SOL     OW  411   7.696   7.845   8.967  0.1940 -0.2149 -0.1072
62811SOL    HW1  412   7.729   7.811   9.050  1.7101  1.0885 -0.1183
62811SOL    HW2  413   7.726   7.783   8.901  0.2298 -0.4981  0.1738
62812SOL     OW  414   3.159   9.451  13.015 -0.5199  0.9440 -0.3350
62812SOL    HW1  415   3.098   9.522  13.035 -1.9889 -0.2964 -0.2384
62812SOL    HW2  416   3.111   9.396  12.952 -0.5551 -1.4436  1.6495
62813SOL     OW  417  11.166   3.797  10.552 -0.5347  0.5482  0.2439
62813SOL    HW1  418  11.168   3.875  10.496 -2.2663  0.2541 -0.2602
62813SOL    HW2  419  11.081   3.800  10.596 -0.9886 -1.4882 -0.4069
62814SOL     OW  420   0.308  11.087   2.551  0.3637  0.0828  0.4710
62814SOL    HW1  421   0.323  11.142   2.474  0.1197 -1.2791 -0.5859
62814SOL    HW2  422   0.388  11.096   2.603  0.9053  0.3278 -0.3879
62815SOL     OW  423   1.459  13.877   5.412 -0.3341  0.3490  0.1697
62815SOL    HW1  424   1.516  13.923   5.350 -0.1702 -2.3683 -1.9220
62815SOL    HW2  425   1.517  13.819   5.460 -0.9352 -0.3493  0.0843
62816SOL     OW  426  12.124   0.128   3.053  0.0005 -0.1894  0.3455
62816SOL    HW1  427  12.080   0.201   3.008  0.5136 -0.5861 -0.8437
62816SOL    HW2  428  12.158   0.074   2.982  1.8367 -0.2482  1.2186
62817SOL     OW  429   7.957   5.963   7.119  0.2204 -0.1453  0.4533
62817SOL    HW1  430   8.016   5.984   7.047  0.2049  1.4586  0.8720
62817SOL    HW2  431   7.991   6.014   7.193 -1.0091 -0.1209  1.0171
62818SOL     OW  432   3.394  13.204  10.121  0.0412 -0.0563 -0.5345
62818SOL    HW1  433   3.490  13.206  10.120  0.0885  2.4952  0.8201
62818SOL    HW2  434   3.368  13.279  10.067 -1.2058 -0.5046 -0.6035
62819SOL     OW  435   7.416  11.628   3.483 -0.4693 -0.0489 -0.1754
62819SOL    HW1  436   7.450  11.674   3.559 -3.2242 -0.8780  1.7054
62819SOL    HW2  437   7.433  11.688   3.410 -0.3897  2.1842  1.5495
62820SOL     OW  438   3.789   2.635   3.025  0.4961 -0.0290 -0.7948
62820SOL    HW1  439   3.791   2.722   3.065 -0.9270 -0.8398  1.2036
62820SOL    HW2  440   3.881   2.616   3.006  1.1769  0.7492  1.4200
62821SOL     OW  441   6.591  10.346   7.995  0.4138  0.3126  0.2443
62821SOL    HW1  442   6.515  10.326   7.941 -0.0514 -1.7047  1.5443
62821SOL    HW2  443   6.619  10.433   7.966 -1.2229  0.2961 -1.5585
62822SOL     OW  444   2.894   3.894   2.276 -0.1595  0.2594  0.3683
62822SOL    HW1  445   2.983   3.860   2.268 -0.2132  0.2297 -0.1516
62822SOL    HW2  446   2.905   3.989   2.267 -0.4829  0.0944 -2.8724
62823SOL     OW  447  12.527   2.868   4.506  0.2867  0.8463 -0.6180
62823SOL    HW1  448  12.495   2.795   4.559  0.0050  1.8467  0.6136
62823SOL    HW2  449  12.587   2.826   4.443  1.5791 -0.2574  1.2362
62824SOL     OW  450   5.100   3.560   1.188 -0.9934 -0.5090 -0.4141
62824SOL    HW1  451   5.116   3.621   1.260  0.4885  0.5678 -1.6005
62824SOL    HW2  452   5.026   3.599   1.140 -1.5710 -0.8949  0.1565
62825SOL     OW  453  12.796   2.458   7.681 -0.4637  0.1062 -0.2082
62825SOL    HW1  454  12.716   2.458   7.734 -0.7067 -0.9955 -0.5580
62825SOL    HW2  455  12.776   2.519   7.610 -0.8909  0.0554 -0.1355
62826SOL     OW  456   9.064   3.840   8.435 -0.3873  0.2571  0.5361
62826SOL    HW1  457   9.012   3.761   8.447 -0.3355  0.0466 -0.5173
62826SOL    HW2  458   9.154   3.812   8.453 -0.4015  0.1348  0.4257
62827SOL     OW  459   1.900   9.631   7.266 -0.1710  0.1059  0.1171
62827SOL    HW1  460   1.911   9.536   7.261 -1.9586 -0.1085 -0.4856
62827SOL    HW2  461   1.839   9.651   7.195  0.3985  1.7508  0.0699
62828SOL     OW  462   9.616  10.765   2.105 -0.4363  0.2934 -0.3010
62828SOL    HW1  463   9.602  10.762   2.010  0.6236 -2.7831 -0.4609
62828SOL    HW2  464   9.570  10.688   2.138  1.6445 -0.3593  1.2598
62829SOL     OW  465   6.240   0.303  11.189  0.2750 -0.2636 -0.4799
62829SOL    HW1  466   6.328   0.289  11.154  0.3120  0.0808 -0.5299
62829SOL    HW2  467   6.248   0.380  11.245 -0.0451 -0.0816 -0.6803
62830SOL     OW  468   6.680  11.176   0.192 -0.7492  0.3153 -0.3259
62830SOL    HW1  469   6.662  11.255   0.142 -1.0129  0.2960 -0.2603
62830SOL    HW2  470   6.594  11.138   0.209 -0.6746  0.3960  0.2615
62831SOL     OW  471  11.149  11.221   7.662 -0.1649 -0.1009 -0.1541
62831SOL    HW1  472  11.194  11.215   7.578  0.4426  2.8921 -0.1527
62831SOL    HW2  473  11.056  11.220   7.639 -0.0727 -1.9330 -0.5662
62832SOL     OW  474   1.997   2.680   1.491  0.0389  0.2356  0.3080
62832SOL    HW1  475   1.924   2.647   1.544 -0.5201  0.5986 -0.2198
62832SOL    HW2  476   2.018   2.765   1.530 -1.2299  1.1030 -0.8047
62833SOL     OW  477   1.237   9.686   8.552 -0.4372  0.1485 -0.3971
62833SOL    HW1  478   1.156   9.635   8.559 -1.0685  1.0167 -1.1805
62833SOL    HW2  479   1.306   9.623   8.573 -1.3899 -0.1742  2.1343
62834SOL     OW  480  13.796   0.957   9.858 -0.1269 -0.0955  0.6133
62834SOL    HW1  481  13.753   0.949   9.943 -0.0809 -0.4832  0.5992
62834SOL    HW2  482  13.738   1.015   9.808 -0.0883  0.2367  0.9493
62835SOL     OW  483   9.239   7.873   6.214 -0.1536 -0.0476 -0.3872
62835SOL    HW1  484   9.172   7.858   6.280 -0.9493  0.2743 -1.0971
62835SOL    HW2  485   9.229   7.965   6.189 -1.2151 -0.6340 -2.3510
62836SOL     OW  486   6.872  10.786   2.701 -0.0895 -0.0981  0.2226
62836SOL    HW1  487   6.914  10.866   2.733  0.5701 -0.0452 -0.7431
62836SOL    HW2  488   6.785  10.787   2.742  0.7511 -0.1339  2.1529
62837SOL     OW  489   9.852  13.372  12.711 -0.3557 -0.2069  0.2820
62837SOL    HW1  490   9.812  13.456  12.689 -0.9181 -0.5702 -0.1201
62837SOL    HW2  491   9.831  13.360  12.804 -1.0028 -0.2914  0.1302
62838SOL     OW  492  11.513   6.610  12.053 -0.3368 -0.2660  0.4062
62838SOL    HW1  493  11.547   6.631  12.140 -0.2474 -0.7699  0.4934
62838SOL    HW2  494  11.561   6.532  12.026  2.0710  1.7126 -1.5155
62839SOL     OW  495   0.341  12.360  12.938  0.5185 -0.2619  0.0013
62839SOL    HW1  496   0.344  12.452  12.967  0.2815 -0.6153  1.2342
62839SOL    HW2  497   0.428  12.344  12.901  0.7874  0.2784  0.3732
62840SOL     OW  498   3.669   4.020  12.747 -0.1392  0.0273  0.8530
62840SOL    HW1  499   3.714   4.051  12.669 -0.1391 -0.1470  0.7842
62840SOL    HW2  500   3.726   3.951  12.782 -0.4997 -0.4088  0.5959
62841SOL     OW  501  13.997   0.672   0.140 -0.7628 -0.0901  0.2956
62841SOL    HW1  502  13.962   0.679   0.229 -0.1995 -0.5441  0.5577
62841SOL    HW2  503  14.066   0.738   0.137 -1.4387  0.6230 -0.1379
62842SOL     OW  504   3.293   3.666   5.978 -0.1445 -0.5271  0.1733
62842SOL    HW1  505   3.317   3.719   5.901  0.6138 -1.4745 -0.2638
62842SOL    HW2  506   3.317   3.577   5.954 -0.5396 -0.9406  1.2627
62843SOL     OW  507   9.667  13.829  13.338 -0.2969  0.1724 -0.4999
62843SOL    HW1  508   9.658  13.867  13.426  1.7893 -0.4767  0.0516
62843SOL    HW2  509   9.642  13.900  13.279 -0.3741  1.0883  0.5907
62844SOL     OW  510   3.321   2.054  13.402 -0.0453 -0.0759 -0.5288
62844SOL    HW1  511   3.407   2.055  13.359  0.4909  3.6369  0.2824
62844SOL    HW2  512   3.299   1.961  13.410  2.9702 -1.1053 -2.5243
62845SOL     OW  513   4.299   7.477  10.090  0.0606 -0.3673 -0.3086
62845SOL    HW1  514   4.267   7.493  10.001 -2.0715  2.0319  0.7335
62845SOL    HW2  515   4.253   7.398  10.119 -0.9013  0.0447 -0.6621
62846SOL     OW  516   1.045   5.227  11.770  0.1887 -0.6977 -0.9703
62846SOL    HW1  517   1.112   5.160  11.786 -0.3608 -1.3945 -1.4925
62846SOL    HW2  518   1.087   5.309  11.796  0.3130 -1.3943  1.2981
62847SOL     OW  519   5.623   5.045   1.028  0.1359 -0.1051 -0.1387
62847SOL    HW1  520   5.621   4.961   1.074  1.1161  0.3372  0.7768
62847SOL    HW2  521   5.579   5.106   1.087  3.5757  1.0265  1.5892
62848SOL     OW  522   2.293   3.361  11.771 -0.0139 -0.0712 -0.0021
62848SOL    HW1  523   2.282   3.453  11.797  1.4193 -0.0104  0.4724
62848SOL    HW2  524   2.386   3.353  11.749  0.2758 -1.8299  1.6570
62849SOL     OW  525   4.343   4.877   7.814 -0.3202  0.8760  0.3167
62849SOL    HW1  526   4.415   4.925   7.856 -0.2543  0.5427  0.5859
62849SOL    HW2  527   4.384   4.796   7.782 -0.6056  0.6225  0.5953
62850SOL     OW  528   1.681   6.520  12.180  0.5566 -0.7447 -0.0316
62850SOL    HW1  529   1.746   6.560  12.239 -0.2300 -0.9056  0.9800
62850SOL    HW2  530   1.729   6.450  12.136  1.2556 -0.4142  0.1862
62851SOL     OW  531   0.557   9.553  13.618  0.0981 -0.0108 -0.1087
62851SOL    HW1  532   0.480   9.510  13.579  0.1523  0.6238 -0.9490
62851SOL    HW2  533   0.597   9.600  13.545  1.2173 -0.2224  0.3450
62852SOL     OW  534   0.693   6.837   7.561  0.9142  0.0324  0.0587
62852SOL    HW1  535   0.758   6.795   7.617 -0.1940  0.2805  1.5828
62852SOL    HW2  536   0.630   6.767   7.540  0.9237  0.1207 -0.2728
62853SOL     OW  537   9.123   1.513   1.078  0.0513 -0.3079 -0.1734
62853SOL    HW1  538   9.196   1.508   1.016 -0.3333  0.0381 -0.6609
62853SOL    HW2  539   9.110   1.422   1.107  0.3903 -0.4370 -0.4232
62854SOL     OW  540   0.338   2.675   3.822  0.1302 -0.3532  0.2021
62854SOL    HW1  541   0.368   2.585   3.836  0.9156 -0.1724 -0.2604
62854SOL    HW2  542   0.243   2.668   3.819  0.2035 -1.4899 -1.7683
62855SOL     OW  543   0.578   7.012   8.632 -0.1154 -0.0704 -0.5748
62855SOL    HW1  544   0.532   7.023   8.549 -0.1450  1.0829 -0.4307
62855SOL    HW2  545   0.523   6.953   8.683  0.2579 -1.3758 -1.6142
62856SOL     OW  546   9.458   2.899   4.557 -0.0328  0.1972 -0.5597
62856SOL    HW1  547   9.394   2.929   4.493  2.2763  1.2414 -2.5441
62856SOL    HW2  548   9.437   2.947   4.636 -3.6888 -1.9727  0.0231
62857SOL     OW  549   1.560   6.538  13.787 -0.9920 -0.6127  0.0610
62857SOL    HW1  550   1.522   6.585  13.713 -0.4129 -0.8418 -0.3886
62857SOL    HW2  551   1.632   6.488  13.749 -0.9019 -0.9937  0.7245
62858SOL     OW  552   2.747   0.658  12.376  0.2030  0.5290  0.5273
62858SOL    HW1  553   2.688   0.597  12.332 -1.5531  2.1057  0.6012
62858SOL    HW2  554   2.696   0.738  12.388  2.4365  2.0878  0.3693
62859SOL     OW  555   8.463  12.715   9.086  0.0918 -0.0475 -0.0266
62859SOL    HW1  556   8.509  12.755   9.012 -2.3464 -0.6218 -2.0069
62859SOL    HW2  557   8.474  12.621   9.074  0.8003 -0.1276  1.1526
62860SOL     OW  558  10.028   1.608   0.056  0.1310  0.4781  0.1181
62860SOL    HW1  559  10.036   1.674  -0.012  1.4765  0.4838  0.2634
62860SOL    HW2  560   9.966   1.646   0.119 -1.9149  0.0515 -1.5321
62861SOL     OW  561   2.209   1.311  12.198 -0.2088 -0.1571  0.1693
62861SOL    HW1  562   2.117   1.334  12.207 -0.0064  0.4901  0.6580
62861SOL    HW2  563   2.256   1.394  12.207  0.5343 -0.7059  1.7157
62862SOL     OW  564   7.936   6.999   5.017 -0.8308 -0.0527  0.1615
62862SOL    HW1  565   7.945   7.079   4.965 -0.5438  0.4511  0.9636
62862SOL    HW2  566   7.859   6.956   4.981  1.2714 -1.5066 -3.0057
62863SOL     OW  567   3.394   7.685  11.815  0.8054 -0.1082  0.2445
62863SOL    HW1  568   3.367   7.638  11.894 -0.0305  0.4790  0.3151
62863SOL    HW2  569   3.477   7.644  11.791  0.1788 -1.5242  0.3851
62864SOL     OW  570   2.883   7.601   9.260  0.2863 -0.4464  0.5132
62864SOL    HW1  571   2.818   7.628   9.196 -0.3802 -1.4783  0.7256
62864SOL    HW2  572   2.887   7.506   9.251  2.7250 -0.3328 -0.3881
62865SOL     OW  573   2.238   4.228  13.555 -0.1231 -0.1362 -0.8117
62865SOL    HW1  574   2.274   4.144  13.525  0.0827 -0.1070 -0.6521
62865SOL    HW2  575   2.277   4.292  13.496  1.5063  0.0998  0.4394
62866SOL     OW  576  10.809  11.320   8.761 -0.6234  0.7329  0.1769
62866SOL    HW1  577  10.786  11.412   8.747 -0.8125  0.2833 -3.2562
62866SOL    HW2  578  10.729  11.271   8.742  0.3347 -0.2850 -1.4347
62867SOL     OW  579   4.334  12.712   3.617  0.2263  0.2128 -0.0701
62867SOL    HW1  580   4.415  12.683   3.657 -0.2384  0.6080  1.2275
62867SOL    HW2  581   4.304  12.783   3.673 -1.5310 -0.5929  0.0872
62868SOL     OW  582   0.861  12.456   4.526  0.8557  0.2010 -0.1011
62868SOL    HW1  583   0.845  12.439   4.619 -1.1757 -2.1196 -0.7676
62868SOL    HW2  584   0.816  12.539   4.510  1.2953  0.6759  0.9760
62869SOL     OW  585   1.747  12.647   9.201 -0.0902 -0.3781 -0.0244
62869SOL    HW1  586   1.680  12.614   9.261  0.2386  0.4148  0.8027
62869SOL    HW2  587   1.711  12.729   9.168 -0.0688 -0.5837 -0.5727
62870SOL     OW  588  10.147  11.029   5.545 -0.1902 -0.8003 -0.2974
62870SOL    HW1  589  10.209  11.034   5.618  1.1240 -0.2317 -1.4015
62870SOL    HW2  590  10.061  11.045   5.585  0.7627  2.4655  0.7510
62871SOL     OW  591   1.501   2.486  14.031 -0.0518  0.3071  0.1863
62871SOL    HW1  592   1.486   2.578  14.009  0.5676  0.1788 -0.8458
62871SOL    HW2  593   1.588   2.485  14.071 -0.4348  0.2867  1.0354
62872SOL     OW  594   0.496   2.703   9.289  0.0368  0.0307 -0.4507
62872SOL    HW1  595   0.489   2.719   9.383  1.2131  1.9584 -0.6359
62872SOL    HW2  596   0.500   2.608   9.280  0.6001 -0.1613  1.5042
62873SOL     OW  597   3.823  12.403   1.406 -0.4915 -0.1775  0.3109
62873SOL    HW1  598   3.887  12.350   1.453 -0.8310 -0.9330 -0.0648
62873SOL    HW2  599   3.867  12.487   1.392  0.7472 -0.9451 -0.6461
62874SOL     OW  600   3.431   4.055   1.795  0.7878  0.0021 -0.2617
62874SOL    HW1  601   3.490   4.127   1.770  0.6745 -0.1830 -1.1140
62874SOL    HW2  602   3.463   3.980   1.745 -0.7241  0.1251 -1.4952
62875SOL     OW  603   9.993   7.377   8.740 -0.2428  0.3677  0.3684
62875SOL    HW1  604  10.017   7.301   8.793  1.2708 -0.1263 -0.9363
62875SOL    HW2  605  10.060   7.443   8.762 -0.4933  0.6839  0.1837
62876SOL     OW  606   3.022   3.529   4.588 -0.2279 -0.1264  0.2097
62876SOL    HW1  607   3.088   3.589   4.623  0.8534 -0.0125 -1.8912
62876SOL    HW2  608   2.948   3.585   4.565 -0.7243 -0.1314  1.6975
62877SOL     OW  609  12.554   2.289   4.643 -0.0199  0.4677  0.0619
62877SOL    HW1  610  12.564   2.203   4.684 -0.0086  0.7431  0.6331
62877SOL    HW2  611  12.634   2.300   4.591 -0.6980 -0.5335 -1.2759
62878SOL     OW  612   3.101  11.877   6.000 -0.3705  0.4682  0.3894
62878SOL    HW1  613   3.146  11.959   5.977  0.2800 -0.6350 -2.7961
62878SOL    HW2  614   3.020  11.879   5.948 -1.3138 -0.0755  1.7913
62879SOL     OW  615   8.819   5.614   2.694  0.2720  0.0073  0.3898
62879SOL    HW1  616   8.839   5.521   2.680  0.6961  0.0028  0.9877
62879SOL    HW2  617   8.733   5.615   2.734  1.5890 -0.3571  3.5010
62880SOL     OW  618  10.125  13.427  11.447  0.3652 -0.1143  0.0740
62880SOL    HW1  619  10.183  13.385  11.384 -0.8072  0.0069 -1.1244
62880SOL    HW2  620  10.091  13.355  11.500 -0.3909 -0.5137 -0.9234
62881SOL     OW  621  12.286  12.697   1.988 -0.4714  0.0888 -0.1971
62881SOL    HW1  622  12.378  12.720   1.974  0.1565 -1.5620  0.9274
62881SOL    HW2  623  12.239  12.780   1.976  1.0214  0.7723 -1.7929
62882SOL     OW  624  13.714   5.250   8.694  0.2907  0.0063 -0.8574
62882SOL    HW1  625  13.632   5.298   8.683 -0.6007 -1.3881 -0.6754
62882SOL    HW2  626  13.717   5.190   8.619  0.5665 -0.7271 -0.2829
62883SOL     OW  627   0.414   1.987   7.736  0.4212 -0.0319 -0.0819
62883SOL    HW1  628   0.340   1.945   7.780  0.0767  0.0490 -0.5771
62883SOL    HW2  629   0.489   1.966   7.791  0.2038 -1.0469 -0.1628
62884SOL     OW  630   5.866   3.162   2.914 -0.1694 -0.8090  0.4854
62884SOL    HW1  631   5.869   3.257   2.928 -2.0957 -0.7128  0.5872
62884SOL    HW2  632   5.802   3.150   2.844 -1.0230 -2.1027  1.4359
62885SOL     OW  633   8.107   5.162   9.844  0.6734  0.2614  0.2788
62885SOL    HW1  634   8.168   5.107   9.795 -0.6055 -1.6948  0.8023
62885SOL    HW2  635   8.129   5.148   9.936  1.3116  1.8483  0.4082
62886SOL     OW  636   3.332  13.182  11.838 -0.2895 -0.1696  0.2669
62886SOL    HW1  637   3.314  13.097  11.879  3.5311 -1.3868 -0.1976
62886SOL    HW2  638   3.389  13.226  11.901 -1.1289  1.5251 -0.1201
62887SOL     OW  639   4.615   3.112  10.363  0.1026 -0.1278  0.1972
62887SOL    HW1  640   4.587   3.078  10.448  1.4542 -0.0701  0.6887
62887SOL    HW2  641   4.663   3.040  10.323 -3.0609 -1.2977 -1.9335
62888SOL     OW  642   3.076   8.975  12.329 -0.4136  0.1652 -0.4624
62888SOL    HW1  643   3.090   8.906  12.394 -1.3407 -0.2262 -0.6627
62888SOL    HW2  644   2.993   8.953  12.287 -0.3285  0.9644 -1.0926
62889SOL     OW  645  11.372   0.477   6.727  0.1925 -0.0611 -0.2617
62889SOL    HW1  646  11.331   0.394   6.703  1.7042 -0.3541 -2.0529
62889SOL    HW2  647  11.305   0.543   6.710  0.2412 -0.5554 -2.8815
62890SOL     OW  648   1.553  13.178   0.656 -0.0535  0.3647  0.1643
62890SOL    HW1  649   1.604  13.101   0.681  1.4519  1.5705  0.9342
62890SOL    HW2  650   1.473  13.171   0.707  1.1437  0.5857  2.1522
62891SOL     OW  651   4.426   4.069   5.277 -0.3221  0.1082  0.6952
62891SOL    HW1  652   4.468   4.023   5.349  0.5891 -0.0422  0.0800
62891SOL    HW2  653   4.498   4.108   5.228 -0.8678 -0.3648 -0.5287
62892SOL     OW  654  11.045  12.854  12.397  0.1473  0.0276  0.0890
62892SOL    HW1  655  11.087  12.937  12.418  0.2836 -0.1892  0.6951
62892SOL    HW2  656  10.986  12.837  12.470  0.2931 -0.5225  0.0890
62893SOL     OW  657   2.369   1.007   6.763  0.4495 -0.0985 -0.2220
62893SOL    HW1  658   2.312   0.949   6.814  0.4977 -0.7301 -0.8717
62893SOL    HW2  659   2.355   0.981   6.672  0.8120  0.6153 -0.4903
62894SOL     OW  660   5.143   3.884  13.612 -0.1698 -0.0888  0.0954
62894SOL    HW1  661   5.192   3.851  13.687 -0.8400 -0.1317  0.5190
62894SOL    HW2  662   5.198   3.953  13.576  0.4625 -0.5166  0.2225
62895SOL     OW  663   4.958   4.198   2.133 -0.1308 -0.1032 -0.0181
62895SOL    HW1  664   4.875   4.245   2.140  0.7866  1.8123 -1.2282
62895SOL    HW2  665   4.932   4.106   2.127 -2.1501  0.4078 -0.0781
62896SOL     OW  666   3.015  11.419   5.894  0.5128  0.1595  0.1849
62896SOL    HW1  667   3.073  11.435   5.820 -0.4735  2.6357 -0.1522
62896SOL    HW2  668   2.930  11.453   5.866 -0.1799  0.0508  2.0060
62897SOL     OW  669   7.739   2.995  13.539 -0.0503 -0.1685 -0.2202
62897SOL    HW1  670   7.769   2.904  13.532  1.1404  0.0413  1.6195
62897SOL    HW2  671   7.698   3.013  13.455  1.9739 -1.5885 -1.5923
62898SOL     OW  672   6.560  11.053  13.361  0.2249  0.6444  0.5141
62898SOL    HW1  673   6.542  10.992  13.289  1.0065  0.5258  0.4089
62898SOL    HW2  674   6.652  11.075  13.351 -0.0980  2.0615  0.3905
62899SOL     OW  675   0.215   8.251   4.088  0.0065 -0.4640  0.7674
62899SOL    HW1  676   0.126   8.270   4.120 -0.0121  2.2050 -0.5502
62899SOL    HW2  677   0.272   8.306   4.142  0.3007  1.4583 -1.3456
62900SOL     OW  678   6.067   9.336  13.754  0.5888  0.1097  0.3758
62900SOL    HW1  679   6.038   9.355  13.844 -1.9656  1.7874 -0.6966
62900SOL    HW2  680   6.006   9.270  13.722 -0.1725  1.3717 -0.9058
62901SOL     OW  681   9.999  11.530   7.681  0.3066 -0.1748 -0.2866
62901SOL    HW1  682  10.054  11.582   7.622 -0.8520  0.2830 -0.9950
62901SOL    HW2  683   9.910  11.538   7.645 -0.1761 -1.2042  0.6103
62902SOL     OW  684   2.704  11.379   7.865  0.2420 -0.6171  0.1833
62902SOL    HW1  685   2.657  11.304   7.902 -0.3670 -0.4505 -0.2348
62902SOL    HW2  686   2.733  11.348   7.779  0.0125 -0.3878  0.0204
62903SOL     OW  687  10.326   1.888   8.802 -0.3454 -0.0120  0.0642
62903SOL    HW1  688  10.420   1.873   8.793  0.9927  4.9170  2.2231
62903SOL    HW2  689  10.290   1.869   8.715  2.6443 -1.6943 -0.9602
62904SOL     OW  690   7.432   9.394  11.678 -0.1390  0.6588  0.3259
62904SOL    HW1  691   7.400   9.444  11.753 -1.1427  2.5210 -1.2476
62904SOL    HW2  692   7.397   9.306  11.691  0.0240  0.8416  2.1969
62905SOL     OW  693  13.206   0.053  12.833  0.5646 -0.0260  0.0570
62905SOL    HW1  694  13.174   0.134  12.794  0.4132 -0.0163  0.1996
62905SOL    HW2  695  13.234   0.000  12.759 -1.0953 -0.6154 -0.2065
62906SOL     OW  696   8.116  13.901   1.047 -0.3345  0.3261 -0.4852
62906SOL    HW1  697   8.037  13.847   1.050 -1.1366  1.5000  0.2205
62906SOL    HW2  698   8.085  13.987   1.018  0.8540  0.5399 -1.1875
62907SOL     OW  699  13.763   6.400   6.538 -0.0768 -0.1166  0.6291
62907SOL    HW1  700  13.745   6.478   6.486  0.9757  0.5426  1.2010
62907SOL    HW2  701  13.833   6.355   6.491 -0.0295 -0.2103  0.7891
62908SOL     OW  702   2.856   6.030  11.986  0.6231 -0.1012 -0.0526
62908SOL    HW1  703   2.944   6.058  12.013  0.3037 -0.5320  1.5344
62908SOL    HW2  704   2.867   5.939  11.960  0.5853 -0.2992  0.5935
62909SOL     OW  705   9.291   3.866   0.138 -0.2892  0.2653 -0.3316
62909SOL    HW1  706   9.347   3.886   0.213 -1.5650  0.5159  0.6036
62909SOL    HW2  707   9.350   3.833   0.071  1.0043  0.8848  0.4765
62910SOL     OW  708   4.790   4.176   9.399 -0.1805  0.5310 -0.0893
62910SOL    HW1  709   4.761   4.125   9.474  0.3181 -0.4073 -0.5132
62910SOL    HW2  710   4.830   4.112   9.341 -2.7425  0.7525 -2.3198
62911SOL     OW  711   0.076   9.401   3.688 -0.3814  0.7243  0.5313
62911SOL    HW1  712   0.025   9.320   3.683  0.8271  0.0259 -1.4724
62911SOL    HW2  713   0.095   9.424   3.597  0.9081  2.2298  1.1242
62912SOL     OW  714  12.588  11.965   8.518 -0.4515  0.1380  0.2831
62912SOL    HW1  715  12.512  11.909   8.502 -1.2115  0.3320  2.7148
62912SOL    HW2  716  12.597  12.017   8.438 -0.9546 -2.0103 -1.2413
62913SOL     OW  717   6.587   6.834  11.962 -0.1727  0.0998  0.2847
62913SOL    HW1  718   6.536   6.841  11.882  0.8104 -1.3164 -0.5092
62913SOL    HW2  719   6.663   6.780  11.938  1.2207  1.3636  1.6509
62914SOL     OW  720   4.298  14.001  11.617  0.4315  0.7174  0.6926
62914SOL    HW1  721   4.360  14.049  11.562 -0.4072 -0.7975 -1.6994
62914SOL    HW2  722   4.212  14.028  11.585 -0.0924 -2.7171 -1.2260
62915SOL     OW  723   5.818   5.428  13.883  0.8039  0.2405 -0.2148
62915SOL    HW1  724   5.904   5.444  13.923  0.5283  0.8532  0.1452
62915SOL    HW2  725   5.759   5.490  13.926  0.0114 -0.7053  0.0928
62916SOL     OW  726   9.889  14.029   5.414  0.2152  0.2651 -0.6701
62916SOL    HW1  727   9.957  13.992   5.357 -0.8762  0.3178 -2.0433
62916SOL    HW2  728   9.932  14.102   5.458  1.2160 -0.0735 -1.0535
62917SOL     OW  729  12.812  12.502   6.896 -0.3831  0.4116  0.4790
62917SOL    HW1  730  12.851  12.498   6.983  2.1952 -1.1953 -0.6513
62917SOL    HW2  731  12.812  12.595   6.874 -0.5629  0.7803  1.9232
62918SOL     OW  732   3.749   0.264  11.118  0.3007 -0.2658 -0.3168
62918SOL    HW1  733   3.757   0.345  11.067  2.7809  0.3067  0.8304
62918SOL    HW2  734   3.701   0.289  11.196 -0.8587 -0.4453 -0.9533
62919SOL     OW  735   4.032   2.734   8.789  0.0917 -0.2077 -0.2643
62919SOL    HW1  736   4.056   2.647   8.755  1.2959  0.3223 -0.8223
62919SOL    HW2  737   4.111   2.787   8.776 -1.0527  1.3359 -1.1805
62920SOL     OW  738   6.640   5.886  11.637  0.1915 -0.4768  0.5570
62920SOL    HW1  739   6.683   5.910  11.719  1.9467 -1.8504  0.0916
62920SOL    HW2  740   6.682   5.940  11.571 -0.9420  0.3402  0.4804
62921SOL     OW  741  10.132   6.657  11.645 -0.7682  0.0780 -0.2517
62921SOL    HW1  742  10.043   6.636  11.615  0.0845 -2.8804 -1.0584
62921SOL    HW2  743  10.180   6.676  11.564 -0.2268 -0.2633 -0.0098
62922SOL     OW  744   9.373  12.392   5.733  1.1465 -0.3400 -0.2997
62922SOL    HW1  745   9.410  12.478   5.754 -0.4917  0.2476  0.4265
62922SOL    HW2  746   9.448  12.337   5.712  2.3904  0.7867  0.9978
62923SOL     OW  747   0.608   7.629   9.136  0.0488  0.2130 -0.3401
62923SOL    HW1  748   0.681   7.632   9.074  0.8248  0.2462  0.5484
62923SOL    HW2  749   0.532   7.605   9.083  0.6796  0.2935 -1.3048
62924SOL     OW  750  12.868  10.825   7.675 -0.0894  0.7722 -0.0872
62924SOL    HW1  751  12.886  10.874   7.755 -0.9760  1.4438 -0.2764
62924SOL    HW2  752  12.888  10.734   7.697 -0.9914  0.8329  1.1353
62925SOL     OW  753   0.375   1.961  12.086 -0.2170 -0.7292 -0.2972
62925SOL    HW1  754   0.348   2.043  12.126 -1.6814 -0.6134 -1.4521
62925SOL    HW2  755   0.300   1.933  12.035 -0.0698 -3.2336  0.7149
62926SOL     OW  756  13.393   2.088  10.127 -0.4466 -0.6131 -0.0853
62926SOL    HW1  757  13.404   2.144  10.205 -0.2178  1.2710 -1.4023
62926SOL    HW2  758  13.301   2.062  10.129 -0.6050 -0.0367  0.4696
62927SOL     OW  759  11.689   3.898   9.802 -0.0388  0.0475  0.0710
62927SOL    HW1  760  11.596   3.905   9.780 -0.0474 -1.2019 -0.4198
62927SOL    HW2  761  11.695   3.930   9.892 -0.5405  2.2702 -0.6361
62928SOL     OW  762   3.987  11.135  12.729  0.2310  0.0179  0.7631
62928SOL    HW1  763   4.013  11.224  12.703  2.8211 -0.8159  0.1864
62928SOL    HW2  764   4.003  11.132  12.823  1.2892 -0.1644  0.5879
62929SOL     OW  765  13.033   8.460  12.094  0.1698 -0.1485  0.0025
62929SOL    HW1  766  13.051   8.550  12.066  1.8249 -0.7126 -0.8276
62929SOL    HW2  767  13.038   8.464  12.190 -2.8842  1.2360  0.2230
62930SOL     OW  768   0.720  12.096   8.675  0.2802  0.0214  0.2315
62930SOL    HW1  769   0.762  12.136   8.598  1.8182  0.2405  1.1341
62930SOL    HW2  770   0.650  12.156   8.699 -0.4126 -0.2011 -1.1731
62931SOL     OW  771  10.825   0.250   9.785  0.3104  0.8625 -0.0123
62931SOL    HW1  772  10.831   0.344   9.768  1.2640  0.7645 -0.2617
62931SOL    HW2  773  10.779   0.216   9.708 -2.5369  1.4362  1.2776
62932SOL     OW  774  12.896   1.246  13.136  0.3692 -0.0415  0.2886
62932SOL    HW1  775  12.814   1.294  13.148 -0.8652 -2.0761  0.3795
62932SOL    HW2  776  12.912   1.203  13.220  0.2709 -1.5019 -0.4176
62933SOL     OW  777   1.597  12.483   7.567 -0.4500  1.0357 -0.2737
62933SOL    HW1  778   1.504  12.465   7.550 -0.4969 -1.4280  1.9855
62933SOL    HW2  779   1.638  12.476   7.481 -2.2254  1.3053 -1.1968
62934SOL     OW  780   3.026   2.888   7.848  0.4641 -0.1930  0.4315
62934SOL    HW1  781   3.027   2.968   7.796  0.4356  0.4358  1.3696
62934SOL    HW2  782   3.111   2.848   7.831  0.8168  0.4690  0.5871
62935SOL     OW  783   7.803   6.099   7.950 -0.0930  0.2197  0.3295
62935SOL    HW1  784   7.885   6.063   7.984  0.1057 -0.5289 -0.8538
62935SOL    HW2  785   7.735   6.044   7.989  0.1658 -1.0226 -0.8765
62936SOL     OW  786   5.724   6.507  10.272  0.3136  0.0284 -0.0595
62936SOL    HW1  787   5.666   6.528  10.199 -1.1976 -0.3736  0.9831
62936SOL    HW2  788   5.705   6.415  10.292 -0.9566  0.7086  2.2336
62937SOL     OW  789  11.546   0.747  14.011  0.2492 -0.7740 -0.1396
62937SOL    HW1  790  11.563   0.803  14.087 -1.4271 -0.2834 -0.0893
62937SOL    HW2  791  11.632   0.734  13.971  0.9594  0.1250  1.0328
62938SOL     OW  792  13.795   6.731   2.516 -0.6474  0.2489 -0.3975
62938SOL    HW1  793  13.852   6.800   2.482  0.1302 -0.9981 -1.7463
62938SOL    HW2  794  13.854   6.657   2.533 -1.7100 -0.7215 -0.7911
62939SOL     OW  795  11.092   0.768   7.636  0.4748 -0.0726 -0.2339
62939SOL    HW1  796  11.117   0.835   7.699  0.2092  0.5957 -0.8355
62939SOL    HW2  797  10.997   0.771   7.634  0.5173  0.7220 -1.5337
62940SOL     OW  798  10.447   0.677   4.860 -0.3488  0.0384 -0.0005
62940SOL    HW1  799  10.359   0.652   4.886 -0.2062 -0.3019  0.1649
62940SOL    HW2  800  10.445   0.773   4.855 -1.0412 -0.0322 -1.1688
62941SOL     OW  801   3.627   7.728  10.773  0.4816 -0.4244 -0.3386
62941SOL    HW1  802   3.669   7.772  10.846 -0.1774 -0.0866 -0.1582
62941SOL    HW2  803   3.700   7.690  10.723  1.0307  0.5406 -0.2895
62942SOL     OW  804   8.951  11.892   4.250 -0.1653 -0.6885  0.2486
62942SOL    HW1  805   9.034  11.935   4.231  0.8587 -1.4033  2.6948
62942SOL    HW2  806   8.969  11.799   4.238 -0.8654 -0.7998  0.0171
62943SOL     OW  807  12.875   4.146   8.229  0.0590  0.0857  0.6506
62943SOL    HW1  808  12.941   4.187   8.284  0.5494 -0.4259  0.4511
62943SOL    HW2  809  12.821   4.095   8.289  0.7013 -0.6143  0.6444
62944SOL     OW  810   3.552   1.646   4.233 -0.0405  0.2502  0.3837
62944SOL    HW1  811   3.563   1.620   4.142 -0.1544 -1.5018  0.8242
62944SOL    HW2  812   3.565   1.741   4.234 -0.3150  0.3296 -1.4833
62945SOL     OW  813   9.557   2.941   6.708 -0.2211  0.4848 -0.0009
62945SOL    HW1  814   9.602   2.869   6.663  1.0357  1.7005 -0.7487
62945SOL    HW2  815   9.530   2.903   6.792  2.8762 -0.1691  0.8335
62946SOL     OW  816   1.972   6.338   2.750 -0.4937 -0.1541 -0.6567
62946SOL    HW1  817   1.990   6.354   2.843  0.1057 -1.9834 -0.4045
62946SOL    HW2  818   1.901   6.398   2.729 -0.7371  0.2160  1.0262
62947SOL     OW  819  12.481   1.313   1.462  0.3052  0.0949  0.2379
62947SOL    HW1  820  12.405   1.327   1.406  0.6959  0.7145 -0.1599
62947SOL    HW2  821  12.483   1.390   1.519  0.9074  0.3261 -0.0863
62948SOL     OW  822  11.286  12.462   2.748  0.6381 -0.3011 -0.2843
62948SOL    HW1  823  11.327  12.549   2.750 -0.1626  0.1224 -1.1767
62948SOL    HW2  824  11.280  12.441   2.655  0.3019 -1.0724 -0.0985
62949SOL     OW  825  12.679   3.744   4.850  0.7851 -0.0749  0.0010
62949SOL    HW1  826  12.639   3.698   4.923 -0.3418 -0.7646 -1.0167
62949SOL    HW2  827  12.773   3.746   4.871  0.5237 -0.6093  1.2582
62950SOL     OW  828   8.842   4.705   2.643 -0.2758 -0.3842 -0.0883
62950SOL    HW1  829   8.798   4.785   2.672  1.8037  0.3356  1.3602
62950SOL    HW2  830   8.886   4.672   2.721  2.0313 -0.8072 -1.4576
62951SOL     OW  831   1.001  12.506  10.942  1.0451  0.3289  0.0616
62951SOL    HW1  832   0.948  12.438  10.901  0.0037  0.6583  0.8235
62951SOL    HW2  833   1.062  12.534  10.874  0.1442  0.0407 -0.8750
62952SOL     OW  834   2.341   9.170   2.903  0.4651  0.3965  0.2835
62952SOL    HW1  835   2.286   9.101   2.866  0.1540  1.2156 -0.8453
62952SOL    HW2  836   2.388   9.205   2.827  0.9496  1.1250  0.9164
62953SOL     OW  837  13.287  14.042   0.213 -0.0298  0.5779 -0.8361
62953SOL    HW1  838  13.374  14.026   0.177  1.1748  1.5706  1.4416
62953SOL    HW2  839  13.246  13.955   0.217  1.9473 -0.3362  0.6422
62954SOL     OW  840  11.831   9.257   8.514  0.1323  0.0989 -0.5272
62954SOL    HW1  841  11.810   9.278   8.605  2.2031 -2.4661  0.6925
62954SOL    HW2  842  11.818   9.162   8.508  1.9330 -0.1044 -2.3170
62955SOL     OW  843  10.773  13.482  12.247  0.0625 -0.3404 -0.3309
62955SOL    HW1  844  10.706  13.526  12.298 -0.4859 -0.2733 -1.0989
62955SOL    HW2  845  10.786  13.398  12.292 -0.5746 -0.3750 -0.2043
62956SOL     OW  846   2.843   3.664   9.618  0.1330 -0.3312 -0.7383
62956SOL    HW1  847   2.816   3.649   9.709  0.4276  0.9149 -0.4238
62956SOL    HW2  848   2.797   3.744   9.592  0.2514 -0.5359 -1.6099
62957SOL     OW  849  13.748   3.522   2.476  0.6432  0.0899  0.3047
62957SOL    HW1  850  13.706   3.606   2.460 -2.0001 -0.9431  1.2593
62957SOL    HW2  851  13.831   3.527   2.428  0.8697  3.4133  0.8186
62958SOL     OW  852   5.573   8.778   6.310 -0.1456  0.1604 -0.0277
62958SOL    HW1  853   5.656   8.799   6.353  0.4434  0.7737 -1.3980
62958SOL    HW2  854   5.577   8.823   6.226 -0.9698 -1.4778 -1.0057
62959SOL     OW  855   3.160  13.530   2.786  0.0019  0.3281  0.2568
62959SOL    HW1  856   3.075  13.557   2.820 -0.1480 -0.2155  0.3374
62959SOL    HW2  857   3.150  13.536   2.691  0.5596  2.2519  0.2872
62960SOL     OW  858   3.664   5.230   2.949  0.1012  0.9726 -0.0951
62960SOL    HW1  859   3.705   5.146   2.973 -0.7370  0.0593 -1.6943
62960SOL    HW2  860   3.700   5.250   2.863 -0.4703  1.7629 -0.1519
62961SOL     OW  861   4.875   5.160   8.399 -0.2551 -0.4586  0.6340
62961SOL    HW1  862   4.788   5.197   8.381  0.0685 -0.7478 -1.7909
62961SOL    HW2  863   4.923   5.231   8.441 -1.6006 -0.2684  1.9531
62962SOL     OW  864   9.993  11.055   3.982 -1.1004 -0.1841  0.0596
62962SOL    HW1  865   9.940  11.025   3.908 -0.9395 -0.2670 -0.0231
62962SOL    HW2  866   9.944  11.026   4.060 -0.9615 -0.6352 -0.0200
62963SOL     OW  867   3.305   6.434   0.990 -0.0412  0.0892  0.3750
62963SOL    HW1  868   3.240   6.404   0.926 -0.4173  0.5975  0.5111
62963SOL    HW2  869   3.262   6.423   1.075  0.0869  0.3443  0.4720
62964SOL     OW  870   7.448  12.262  10.411 -0.3410 -0.6714  0.4593
62964SOL    HW1  871   7.398  12.335  10.376 -0.9640 -0.7337  1.1890
62964SOL    HW2  872   7.382  12.197  10.436  0.2754 -2.6898 -2.6578
62965SOL     OW  873   0.622   5.536   9.730  0.0457 -0.0677 -0.6086
62965SOL    HW1  874   0.578   5.619   9.711 -0.2803  0.2794  1.4449
62965SOL    HW2  875   0.555   5.469   9.720 -0.1935  0.1387 -0.3901
62966SOL     OW  876   0.374   8.236   5.913  0.0643  0.0322  0.4180
62966SOL    HW1  877   0.285   8.205   5.898  1.1406 -2.1393 -2.4712
62966SOL    HW2  878   0.382   8.312   5.855 -0.1786  0.9419  1.5327
62967SOL     OW  879  12.892   5.172   8.728 -0.5079  0.0290  0.0101
62967SOL    HW1  880  12.934   5.246   8.772 -2.5772  1.2850  0.0600
62967SOL    HW2  881  12.862   5.116   8.800 -0.5189  0.1030  0.0645
62968SOL     OW  882   4.239   8.985   9.987  0.4431  0.1857  0.0213
62968SOL    HW1  883   4.191   8.981  10.071  2.6128 -0.4874  1.3029
62968SOL    HW2  884   4.309   9.048  10.002  0.5260  0.4938 -1.5096
62969SOL     OW  885   9.715  10.550   0.530  0.5283 -0.1388  0.0193
62969SOL    HW1  886   9.658  10.482   0.567  0.0175 -0.5401 -1.4375
62969SOL    HW2  887   9.664  10.630   0.538 -0.0595 -0.4173 -0.8464
62970SOL     OW  888   5.456   0.714   9.111  0.2090 -0.3479 -0.0160
62970SOL    HW1  889   5.379   0.658   9.101  0.8162 -1.0562 -1.0227
62970SOL    HW2  890   5.529   0.659   9.081  0.4671  1.9727 -4.4663
62971SOL     OW  891  13.062   7.285   2.979 -0.1300 -0.1787 -0.5576
62971SOL    HW1  892  13.155   7.299   2.998 -0.2892 -0.9636  0.9222
62971SOL    HW2  893  13.036   7.215   3.038 -1.7275  0.1877 -0.7924
62972SOL     OW  894   0.828   5.864   7.905 -0.4597 -0.1547  0.4369
62972SOL    HW1  895   0.775   5.936   7.870 -0.0398  0.0387  0.1948
62972SOL    HW2  896   0.910   5.868   7.856 -0.4959 -0.9083  0.3031
62973SOL     OW  897   6.557   9.627   7.260  0.0572  0.0481  0.0363
62973SOL    HW1  898   6.647   9.610   7.234  0.9385  1.8927  1.7223
62973SOL    HW2  899   6.562   9.700   7.322 -2.5508 -0.0508  0.4830
62974SOL     OW  900   8.506   6.847   7.138  0.6354 -0.5636  0.2383
62974SOL    HW1  901   8.570   6.892   7.193  3.1983 -0.4125 -2.5758
62974SOL    HW2  902   8.504   6.757   7.171  2.8393 -0.7286  0.0630
62975SOL     OW  903   0.350  11.835  12.320  0.2178 -0.0363  0.1138
62975SOL    HW1  904   0.298  11.771  12.369 -0.2835  1.3716  1.4959
62975SOL    HW2  905   0.286  11.880  12.264  0.3580  0.0614  0.0312
62976SOL     OW  906   2.198   9.615   8.619  0.4130 -0.3246 -0.1597
62976SOL    HW1  907   2.265   9.676   8.651  0.3252 -0.7855  0.9375
62976SOL    HW2  908   2.236   9.578   8.540  0.5893  0.9358 -0.6913
62977SOL     OW  909  12.358   9.995  12.085 -0.0776 -0.7534 -0.2221
62977SOL    HW1  910  12.267  10.023  12.099  0.0176  0.0415 -1.0879
62977SOL    HW2  911  12.358   9.955  11.998  0.4463 -0.5437 -0.3222
62978SOL     OW  912  12.537  13.044   8.494 -0.4094 -0.1527  1.0387
62978SOL    HW1  913  12.621  13.087   8.506 -0.0361 -0.6997  0.4477
62978SOL    HW2  914  12.555  12.971   8.434 -1.2674 -0.3717  1.0263
62979SOL     OW  915   3.602   5.152  11.876 -0.7269  0.1309 -0.5086
62979SOL    HW1  916   3.656   5.179  11.802 -1.7359  0.1339 -1.2765
62979SOL    HW2  917   3.519   5.126  11.836 -0.6170 -1.8232  0.4209
62980SOL     OW  918   7.368   5.575   9.328 -0.3509 -0.0771 -0.4791
62980SOL    HW1  919   7.279   5.573   9.291 -0.5444  0.7411 -0.0887
62980SOL    HW2  920   7.384   5.485   9.357 -0.8650 -0.3390 -0.9821
62981SOL     OW  921   2.879   9.684   0.357 -0.2864 -0.1646  0.1387
62981SOL    HW1  922   2.861   9.713   0.446  1.5588  2.8747 -0.3467
62981SOL    HW2  923   2.793   9.677   0.315 -1.0654 -0.0484  1.6752
62982SOL     OW  924   7.562   4.696   0.987  0.3892 -0.3651  0.0343
62982SOL    HW1  925   7.645   4.676   0.943  0.9483 -1.8722  1.6164
62982SOL    HW2  926   7.561   4.637   1.063 -1.6571  0.3655  0.6433
62983SOL     OW  927   6.430  11.416   6.468 -0.1465 -0.2467 -0.1365
62983SOL    HW1  928   6.447  11.410   6.374 -0.9436  2.5868 -0.5476
62983SOL    HW2  929   6.350  11.468   6.475  2.1394  3.4849  2.0753
62984SOL     OW  930  11.493   4.205   1.835 -0.0757  0.3990 -0.5473
62984SOL    HW1  931  11.555   4.167   1.898  0.4928  0.4428 -1.0738
62984SOL    HW2  932  11.407   4.177   1.867  0.2771 -0.6074 -0.4341
62985SOL     OW  933   5.109   9.962   7.584  0.2058  0.3503 -0.1034
62985SOL    HW1  934   5.119   9.894   7.517 -1.1553 -1.1341  1.1122
62985SOL    HW2  935   5.198   9.986   7.607  0.7629 -1.5653 -0.0703
62986SOL     OW  936   4.785   6.342   7.053 -0.3967 -0.2181 -0.3317
62986SOL    HW1  937   4.727   6.303   6.989 -0.3479 -0.7316 -0.0702
62986SOL    HW2  938   4.760   6.434   7.056  1.7363  0.6182 -3.4674
62987SOL     OW  939   1.937   2.932   7.795 -0.4014  0.0655 -0.4735
62987SOL    HW1  940   1.920   2.861   7.857  0.9882 -0.5422 -0.7507
62987SOL    HW2  941   1.904   2.900   7.712 -0.8355  0.2320 -0.3672
62988SOL     OW  942  11.998  13.251   1.018  0.0919 -0.6623 -0.0575
62988SOL    HW1  943  11.968  13.237   1.108  1.4043 -1.5833  0.2677
62988SOL    HW2  944  12.017  13.163   0.985  0.7955 -0.2409 -0.8113
62989SOL     OW  945  11.410   5.366   4.392  0.1019  0.1355  0.7811
62989SOL    HW1  946  11.413   5.415   4.310  0.3333  1.2824  1.4556
62989SOL    HW2  947  11.401   5.274   4.365 -0.7947  0.5709 -0.5056
62990SOL     OW  948   5.337  12.236   8.627 -0.1154  0.2397  0.1589
62990SOL    HW1  949   5.313  12.291   8.702 -0.3497 -0.8081  0.8688
62990SOL    HW2  950   5.299  12.282   8.552 -2.8111 -0.3575  1.0342
62991SOL     OW  951   4.044   7.286   3.126 -0.3535  0.8824 -0.3628
62991SOL    HW1  952   3.966   7.339   3.144 -0.4202  0.7910 -0.3799
62991SOL    HW2  953   4.018   7.229   3.055 -0.7051 -0.0760  0.5090
62992SOL     OW  954   7.781  10.306   1.130  0.3569  0.3260  0.0711
62992SOL    HW1  955   7.727  10.329   1.055  0.4406 -0.9615 -0.3975
62992SOL    HW2  956   7.774  10.382   1.188 -0.7533  0.7974 -0.6438
62993SOL     OW  957  11.012   3.791   3.758  0.3232 -0.2102  0.6202
62993SOL    HW1  958  11.073   3.740   3.810  0.4124  0.8819  1.6169
62993SOL    HW2  959  11.064   3.865   3.726 -0.4713  0.7877  1.5691
62994SOL     OW  960   0.806  12.238   1.341 -0.1384  0.2094 -0.0948
62994SOL    HW1  961   0.901  12.247   1.349 -0.0862 -0.8486  0.7083
62994SOL    HW2  962   0.771  12.322   1.370  0.5655  0.8246 -0.9748
62995SOL     OW  963   5.900   7.112  12.630  0.4425 -0.2123 -0.0752
62995SOL    HW1  964   5.815   7.127  12.671  0.5033 -0.2094  0.0527
62995SOL    HW2  965   5.963   7.144  12.695  0.5185  0.5032 -0.4828
62996SOL     OW  966   8.941   5.379  10.749 -0.0482 -0.3536  0.3326
62996SOL    HW1  967   9.016   5.402  10.804 -1.3029 -1.0359  2.4339
62996SOL    HW2  968   8.970   5.399  10.660  2.1020  0.7476  1.1996
62997SOL     OW  969   6.504   8.136   0.702 -0.5383  0.5885 -0.2509
62997SOL    HW1  970   6.451   8.143   0.781 -3.2104  0.8177 -1.9569
62997SOL    HW2  971   6.455   8.076   0.646  1.0637  0.7729 -1.9285
62998SOL     OW  972   9.211  11.982   6.631 -0.1261 -0.0237 -0.0550
62998SOL    HW1  973   9.220  12.058   6.574 -0.9132  0.5273  0.5272
62998SOL    HW2  974   9.279  11.921   6.602 -0.4225  0.3020 -1.4784
62999SOL     OW  975   1.679  10.093   6.414 -0.2432 -0.4023 -0.9744
62999SOL    HW1  976   1.658  10.003   6.437  0.0213 -0.2141  0.0679
62999SOL    HW2  977   1.770  10.105   6.443 -0.0141 -0.0287 -1.8071
63000SOL     OW  978   7.543   5.061  12.466  0.3700  0.1795  0.1156
63000SOL    HW1  979   7.450   5.062  12.442  0.8225  0.1412 -1.7972
63000SOL    HW2  980   7.544   5.025  12.555 -1.6102  2.2430  1.0780
63001SOL     OW  981   8.018   7.905   1.808 -0.4813  0.1113 -0.0488
63001SOL    HW1  982   7.970   7.974   1.762  0.9438  0.5894 -0.8696
63001SOL    HW2  983   8.032   7.837   1.742 -2.1475 -1.1735  0.8328
63002SOL     OW  984   9.489  13.437   1.083 -0.2378 -0.4467 -0.1097
63002SOL    HW1  985   9.575  13.437   1.126 -1.2613 -1.2625  2.0987
63002SOL    HW2  986   9.475  13.529   1.058  1.4482 -0.3813 -0.9692
63003SOL     OW  987   2.017  10.074   1.719 -0.2450  0.5949  0.1919
63003SOL    HW1  988   2.095  10.048   1.769 -0.2886 -1.6123 -0.7770
63003SOL    HW2  989   1.982  10.149   1.767  0.2286 -0.7941  2.9653
63004SOL     OW  990   8.403  11.167   3.312 -1.0505 -0.7479 -0.6339
63004SOL    HW1  991   8.364  11.229   3.375  1.8962  1.7442 -1.0300
63004SOL    HW2  992   8.335  11.155   3.246 -1.8391  2.0695 -0.4735
63005SOL     OW  993   4.794   8.472  10.191  0.3312 -0.5204  0.0217
63005SOL    HW1  994   4.741   8.471  10.111  1.2769 -1.1629 -0.6183
63005SOL    HW2  995   4.884   8.463  10.160  0.6627 -1.4445  1.1960
63006SOL     OW  996  11.980   3.261  11.559  0.0932  0.3880 -0.1819
63006SOL    HW1  997  11.892   3.286  11.530  0.0385  0.0769 -0.2885
63006SOL    HW2  998  11.981   3.165  11.554  0.4311  0.3885 -0.1598
63007SOL     OW  999   7.906   8.728   2.771  0.2535  0.3398  0.1561
63007SOL    HW1 1000   7.947   8.673   2.838  0.5991  1.0748  0.5688
63007SOL    HW2 1001   7.924   8.683   2.689  0.5030 -0.1737  0.4827
63008SOL     OW 1002   9.307   7.812   0.215  0.6612  0.2303 -0.0391
63008SOL    HW1 1003   9.237   7.856   0.168  0.1677 -0.7041 -0.2045
63008SOL    HW2 1004   9.356   7.882   0.258  0.9882  1.1037 -1.7418
63009SOL     OW 1005   5.891  13.927  10.238 -0.2613  0.2054 -0.7336
63009SOL    HW1 1006   5.985  13.920  10.254 -0.1049 -2.6004 -2.2715
63009SOL    HW2 1007   5.855  13.960  10.320  1.6388 -2.7374  1.4740
63010SOL     OW 1008   5.784  12.512   0.935  0.1149 -0.2704 -0.4663
63010SOL    HW1 1009   5.817  12.430   0.970  1.2882  0.0084 -0.8878
63010SOL    HW2 1010   5.698  12.490   0.900 -0.6760 -0.7673  1.6355
63011SOL     OW 1011   6.908   8.072   4.822  0.2062 -0.0421 -0.0636
63011SOL    HW1 1012   6.960   8.026   4.756  0.5505 -0.5641  0.5628
63011SOL    HW2 1013   6.818   8.062   4.791  0.1569 -2.0327  0.5376
63012SOL     OW 1014   6.661   5.937  12.172 -0.6782 -0.5876  0.3200
63012SOL    HW1 1015   6.572   5.944  12.206 -0.6209  0.0617  0.3410
63012SOL    HW2 1016   6.717   5.964  12.244 -0.6187  2.4806 -0.7217
63013SOL     OW 1017  10.592   5.361   9.178  0.4329 -0.1786  0.2407
63013SOL    HW1 1018  10.510   5.408   9.194  0.7704  0.3166  0.5278
63013SOL    HW2 1019  10.607   5.310   9.257  0.6361  0.0867  0.3761
63014SOL     OW 1020   0.064  13.690   8.105 -0.4647 -0.0810 -0.3061
63014SOL    HW1 1021   0.004  13.619   8.084  0.7703 -1.2943  0.1724
63014SOL    HW2 1022   0.141  13.647   8.141  0.7313  1.4295 -0.9404
63015SOL     OW 1023   8.542   5.725   2.055  0.2329  0.1927  0.1461
63015SOL    HW1 1024   8.509   5.636   2.046 -1.0649  0.6054  0.6346
63015SOL    HW2 1025   8.518   5.751   2.144  0.8155  0.9433  0.0934
63016SOL     OW 1026   5.825   7.426   8.038  0.1653 -0.0667  0.3222
63016SOL    HW1 1027   5.735   7.436   8.067  0.0180  0.1699 -0.2019
63016SOL    HW2 1028   5.864   7.513   8.050 -0.0454  0.1830 -0.6516
63017SOL     OW 1029  11.593   7.814   2.713  0.2977  0.1447 -0.1964
63017SOL    HW1 1030  11.519   7.789   2.769  0.9632  2.2641  1.7434
63017SOL    HW2 1031  11.656   7.743   2.725 -0.3142 -0.3347  0.2803
63018SOL     OW 1032   5.566   9.137   1.369 -0.2853 -0.5070 -0.2158
63018SOL    HW1 1033   5.630   9.159   1.437  1.0895 -0.3800 -1.5128
63018SOL    HW2 1034   5.555   9.042   1.377 -1.9212 -0.2334  1.6593
63019SOL     OW 1035  11.175   5.717   9.015  0.1870 -0.1789  0.1131
63019SOL    HW1 1036  11.131   5.780   9.073 -0.3152 -0.1878 -0.2555
63019SOL    HW2 1037  11.106   5.656   8.989  1.2195 -2.9052  3.0464
63020SOL     OW 1038   6.759   5.778  10.794 -0.6923  0.2510 -0.5016
63020SOL    HW1 1039   6.811   5.742  10.722 -0.8147  1.1233 -1.0387
63020SOL    HW2 1040   6.687   5.717  10.804 -1.1214  0.5402 -1.6772
63021SOL     OW 1041   6.742   9.249   0.100  0.5775  0.2905  0.2606
63021SOL    HW1 1042   6.730   9.300   0.021 -0.1051  0.5945  0.5597
63021SOL    HW2 1043   6.719   9.159   0.075  0.5167  0.3586  0.0761
63022SOL     OW 1044   6.872  10.386   2.309  0.0103 -0.2650  0.1713
63022SOL    HW1 1045   6.884  10.311   2.368 -1.3444 -1.2250 -0.7346
63022SOL    HW2 1046   6.958  10.429   2.308  0.5072 -1.1446  1.5634
63023SOL     OW 1047  13.487   3.951  11.112 -0.1060 -0.3379 -0.1926
63023SOL    HW1 1048  13.419   3.962  11.046  0.1611 -1.5155 -0.6886
63023SOL    HW2 1049  13.497   4.038  11.151 -2.1189 -0.2022  0.1367
63024SOL     OW 1050   1.752  11.778  13.812 -0.0771  0.0572  0.4015
63024SOL    HW1 1051   1.780  11.745  13.897  1.1814 -0.1985 -0.0959
63024SOL    HW2 1052   1.747  11.873  13.824  2.0402  0.2362  0.2583
63025SOL     OW 1053   7.625   0.829   1.708  0.2945 -0.4294  0.5178
63025SOL    HW1 1054   7.674   0.876   1.775  2.2617 -0.4289 -0.8237
63025SOL    HW2 1055   7.676   0.842   1.628 -1.3502 -1.3847 -0.7427
63026SOL     OW 1056   8.800   4.254  12.351  0.4897 -0.0522 -0.0398
63026SOL    HW1 1057   8.764   4.179  12.397  1.7923 -0.2403  0.7494
63026SOL    HW2 1058   8.810   4.225  12.261  1.7886 -1.1656  0.4287
63027SOL     OW 1059   3.606   4.596   7.261  0.8489 -0.0788  0.7550
63027SOL    HW1 1060   3.595   4.682   7.302 -0.1318 -0.3262  1.0239
63027SOL    HW2 1061   3.672   4.552   7.314 -2.0931 -1.3417  3.6858
63028SOL     OW 1062   9.279  13.186   1.313  0.0635  0.0260  0.5155
63028SOL    HW1 1063   9.323  13.116   1.264 -1.9082 -0.4607 -0.6519
63028SOL    HW2 1064   9.202  13.144   1.352 -0.6232  1.3301  0.6189
63029SOL     OW 1065   9.826   0.150   2.359  0.1439  0.5300 -0.4442
63029SOL    HW1 1066   9.912   0.187   2.375 -0.4364  1.0777  1.9085
63029SOL    HW2 1067   9.842   0.056   2.347  1.0402  0.5332  0.5527
63030SOL     OW 1068   4.044   5.774   7.039 -0.5171 -0.2103  0.3615
63030SOL    HW1 1069   4.038   5.824   7.121  0.2577 -0.4942  0.5984
63030SOL    HW2 1070   4.079   5.689   7.065 -0.0740 -0.2366 -0.2883
63031SOL     OW 1071   6.436  10.983  11.596  0.2950 -0.0565 -0.1733
63031SOL    HW1 1072   6.355  10.993  11.547 -1.3661 -2.0607  1.9266
63031SOL    HW2 1073   6.480  10.909  11.554  0.9533  0.8849 -1.1707
63032SOL     OW 1074  12.243  10.188   6.568 -0.1378 -0.3009  0.3032
63032SOL    HW1 1075  12.178  10.186   6.639 -1.2765 -0.1134 -0.7116
63032SOL    HW2 1076  12.250  10.098   6.539 -0.4107 -0.2187 -0.0119
63033SOL     OW 1077   3.916   7.732  12.294 -0.2022 -0.4729 -0.8734
63033SOL    HW1 1078   3.940   7.825  12.289  0.0173 -0.3343  1.6326
63033SOL    HW2 1079   3.820   7.732  12.295 -0.3863  0.2679  3.9139
63034SOL     OW 1080   0.825  11.360  10.416 -0.3332  0.2766  0.0497
63034SOL    HW1 1081   0.761  11.343  10.485  1.2165 -0.4787  1.3491
63034SOL    HW2 1082   0.905  11.383  10.462 -0.2043  3.6002 -1.5523
63035SOL     OW 1083   0.515   6.163   4.078 -0.2411 -0.3051  0.0487
63035SOL    HW1 1084   0.464   6.177   4.158 -1.8005 -0.4076 -0.8717
63035SOL    HW2 1085   0.480   6.082   4.041 -0.3999  0.3531 -1.3198
63036SOL     OW 1086  10.198   8.980   0.119  0.0198  0.8660  0.3488
63036SOL    HW1 1087  10.179   8.950   0.030 -1.7581  1.5646  0.4563
63036SOL    HW2 1088  10.156   9.066   0.125 -0.0438  0.7567  1.9291
63037SOL     OW 1089  12.015   6.266  13.236 -0.4664 -0.0860 -0.0167
63037SOL    HW1 1090  11.922   6.249  13.220 -0.5116  0.7169 -0.6812
63037SOL    HW2 1091  12.059   6.187  13.205 -0.9417 -0.5807  0.5437
63038SOL     OW 1092  11.765   8.313   4.742 -0.0399 -0.5563 -0.0249
63038SOL    HW1 1093  11.841   8.342   4.692 -0.7752  0.5288 -0.5503
63038SOL    HW2 1094  11.734   8.392   4.786 -0.9248 -0.9707  0.1146
63039SOL     OW 1095   9.937   5.181  12.584  0.5060  0.1134  0.2909
63039SOL    HW1 1096   9.901   5.221  12.505  0.7690  0.1049  0.1665
63039SOL    HW2 1097   9.860   5.158  12.636  0.3097 -0.2979 -0.1640
63040SOL     OW 1098   7.275  12.520   6.322  0.4556  0.2251  0.6421
63040SOL    HW1 1099   7.346  12.551   6.379  1.2897  0.0862 -0.2773
63040SOL    HW2 1100   7.259  12.430   6.351 -0.5208  0.7883  1.9460
63041SOL     OW 1101   6.674   8.598  13.363 -0.2643  0.3379  0.2143
63041SOL    HW1 1102   6.703   8.626  13.276 -1.8586  1.6957  0.0673
63041SOL    HW2 1103   6.613   8.666  13.391 -2.0424 -1.5187  1.1386
63042SOL     OW 1104   2.972  11.292   0.991  0.1706 -0.3746  0.4521
63042SOL    HW1 1105   3.035  11.355   1.026  1.1522 -0.9841 -0.1941
63042SOL    HW2 1106   2.981  11.215   1.048  0.0305 -0.4813  0.3316
63043SOL     OW 1107   3.072   2.802  12.621 -0.8418  0.4223  0.0177
63043SOL    HW1 1108   3.060   2.862  12.547  0.6192  1.4857  0.5834
63043SOL    HW2 1109   3.073   2.858  12.698  0.1131 -0.3677  0.6132
63044SOL     OW 1110  13.904   3.314   0.127  0.3039  0.5631  0.3645
63044SOL    HW1 1111  13.973   3.318   0.193  0.4149 -0.9043  0.3580
63044SOL    HW2 1112  13.876   3.223   0.127  1.1581  0.2023 -2.4828
63045SOL     OW 1113  12.964   4.149   6.496  0.2284  0.3859  0.0696
63045SOL    HW1 1114  13.028   4.090   6.537 -1.1702 -0.7221  0.7704
63045SOL    HW2 1115  12.912   4.182   6.570 -1.6238 -0.7515 -0.6581
63046SOL     OW 1116  12.988  13.693   6.510  0.1962  0.0209 -0.1332
63046SOL    HW1 1117  12.972  13.606   6.545 -0.9145  0.1437 -0.2944
63046SOL    HW2 1118  13.075  13.688   6.470  0.3421 -0.8683  0.2892
63047SOL     OW 1119   9.880  12.934   4.209  0.1081 -0.5228 -0.2482
63047SOL    HW1 1120   9.924  12.850   4.195  1.7669  0.1244  0.7240
63047SOL    HW2 1121   9.939  12.998   4.170 -1.1030  0.2287 -0.9017
63048SOL     OW 1122   7.149   7.128  11.147  1.0222 -0.0840  0.1640
63048SOL    HW1 1123   7.183   7.040  11.166 -0.5059 -0.7885 -0.1541
63048SOL    HW2 1124   7.192   7.185  11.209  0.9258 -1.3122  1.4021
63049SOL     OW 1125   3.667   8.729  12.068  0.3345 -0.3452 -0.0527
63049SOL    HW1 1126   3.583   8.775  12.068 -0.1424 -1.1937  0.0292
63049SOL    HW2 1127   3.729   8.793  12.033 -0.4732  0.0644 -0.7875
63050SOL     OW 1128   4.333   4.997   1.810  0.3331  0.3558 -0.0085
63050SOL    HW1 1129   4.387   5.033   1.740 -0.5822  0.4856 -0.6695
63050SOL    HW2 1130   4.315   5.071   1.868 -0.2354  0.6206 -0.5121
63051SOL     OW 1131  10.739   8.402  10.423  0.3331  0.4186 -0.0922
63051SOL    HW1 1132  10.653   8.389  10.463 -0.1908 -1.2024 -1.6435
63051SOL    HW2 1133  10.722   8.452  10.344  0.4172 -1.9198 -1.6807
63052SOL     OW 1134   0.105   9.858  12.940  0.0383 -0.4734 -0.0030
63052SOL    HW1 1135   0.080   9.801  12.868  2.1140 -1.6762  0.1455
63052SOL    HW2 1136   0.156   9.928  12.899  0.0244 -0.3773  0.1417
63053SOL     OW 1137  12.464   0.707   3.011 -0.2449  0.2401 -0.1118
63053SOL    HW1 1138  12.405   0.739   2.943  1.0659 -0.2802 -1.5512
63053SOL    HW2 1139  12.420   0.629   3.046 -0.7482  0.2749 -0.6453
63054SOL     OW 1140   9.272   9.320   6.474 -0.2674 -0.0668  0.4678
63054SOL    HW1 1141   9.326   9.303   6.551  0.0638  1.8250  0.7095
63054SOL    HW2 1142   9.243   9.411   6.485 -0.5264  0.1219 -1.4541
63055SOL     OW 1143   8.267   1.342   2.953 -0.3096 -0.0149  0.6170
63055SOL    HW1 1144   8.208   1.400   3.002 -1.4468  0.3559 -1.1220
63055SOL    HW2 1145   8.266   1.260   3.003 -2.4972 -0.0935  0.5356
63056SOL     OW 1146  11.180  11.417   7.392  0.1752 -0.0062  0.2710
63056SOL    HW1 1147  11.141  11.446   7.475 -0.7386  0.9270 -0.4718
63056SOL    HW2 1148  11.135  11.335   7.372  0.2107 -0.0971  0.5453
63057SOL     OW 1149   8.345   2.448  12.754 -0.0779  0.0928 -0.0649
63057SOL    HW1 1150   8.374   2.399  12.676 -0.3623  0.3171 -0.3158
63057SOL    HW2 1151   8.426   2.472  12.799  0.1738  1.1755 -1.0438
63058SOL     OW 1152  13.589   5.612   7.827  0.0065  0.4528  0.5708
63058SOL    HW1 1153  13.517   5.550   7.813 -0.6255  1.3051 -0.1003
63058SOL    HW2 1154  13.631   5.620   7.741  1.0655 -0.2023  1.0054
63059SOL     OW 1155   9.125  13.666   2.976  0.3532  0.1463  0.4682
63059SOL    HW1 1156   9.109  13.760   2.970 -4.2192 -0.1525  3.1514
63059SOL    HW2 1157   9.166  13.653   3.061  1.8931 -0.3269 -0.2987
63060SOL     OW 1158   5.506   1.839  12.254  0.7218 -0.4640  0.1126
63060SOL    HW1 1159   5.491   1.759  12.205 -0.8415  0.1610 -0.4890
63060SOL    HW2 1160   5.596   1.832  12.285  0.5842 -2.4780  0.1517
63061SOL     OW 1161   8.795   3.431   1.860  0.1825  0.1974 -0.2609
63061SOL    HW1 1162   8.862   3.403   1.797  1.0058  0.5826  0.4138
63061SOL    HW2 1163   8.835   3.415   1.946 -0.9433 -0.3746  0.1760
63062SOL     OW 1164   1.293   0.460   4.462  0.2073  0.1351  0.1881
63062SOL    HW1 1165   1.202   0.447   4.487  0.5646  1.1344  2.2114
63062SOL    HW2 1166   1.334   0.498   4.539  1.9144  1.5668 -1.3295
63063SOL     OW 1167   6.243   9.154   9.234 -0.5321  0.3001  0.1503
63063SOL    HW1 1168   6.203   9.067   9.235 -1.2192  0.6045 -0.0435
63063SOL    HW2 1169   6.314   9.149   9.298 -1.2440 -0.0949  0.9322
63064SOL     OW 1170   9.135   7.165   9.119 -0.0551 -0.2912 -0.6324
63064SOL    HW1 1171   9.160   7.205   9.035  0.1749  1.1822  0.1112
63064SOL    HW2 1172   9.213   7.119   9.147  0.2997  0.3121 -0.6081
63065SOL     OW 1173   2.736  10.998   5.446  0.0635  0.2291 -0.1299
63065SOL    HW1 1174   2.737  11.056   5.370 -3.1722 -2.0377 -2.2022
63065SOL    HW2 1175   2.787  10.922   5.419 -2.3761 -1.2733 -0.8309
63066SOL     OW 1176   1.231  11.507   5.207  0.1369 -0.2382  0.0393
63066SOL    HW1 1177   1.203  11.443   5.142 -1.7963  1.8265 -1.3566
63066SOL    HW2 1178   1.169  11.579   5.197  0.5269  0.7352  3.3738
63067SOL     OW 1179   6.548  10.506  12.125  0.1003 -0.1161  0.5069
63067SOL    HW1 1180   6.622  10.468  12.173  0.2712  0.8542  1.0433
63067SOL    HW2 1181   6.574  10.597  12.109 -0.7355  0.0775  0.2016
63068SOL     OW 1182  10.246   7.180   8.032 -0.1667 -0.1349 -0.0560
63068SOL    HW1 1183  10.311   7.218   8.092  1.8149 -0.7989 -1.6624
63068SOL    HW2 1184  10.276   7.205   7.945 -3.0884  1.0000 -0.8680
63069SOL     OW 1185  13.047   2.079   7.245 -0.0477 -0.6337  0.2135
63069SOL    HW1 1186  12.957   2.108   7.233 -0.2779 -1.0275  0.9448
63069SOL    HW2 1187  13.046   2.027   7.325  0.0729 -3.7696 -1.6544
63070SOL     OW 1188   8.459  11.196   8.620 -0.4264 -0.0495 -0.0909
63070SOL    HW1 1189   8.501  11.266   8.669  0.9980  0.8389 -2.3706
63070SOL    HW2 1190   8.455  11.229   8.530  0.8695 -3.0452 -1.4127
63071SOL     OW 1191   0.844  10.964  12.197 -0.2517  0.0797  0.0232
63071SOL    HW1 1192   0.775  11.026  12.220 -0.6340 -0.0555 -0.7462
63071SOL    HW2 1193   0.885  11.001  12.119  1.6297  0.9914  1.3498
63072SOL     OW 1194   2.367   0.565   2.958  0.3132  0.1099 -0.1496
63072SOL    HW1 1195   2.301   0.607   3.013  1.2318  0.8235  0.4541
63072SOL    HW2 1196   2.425   0.521   3.019 -2.2183 -4.8106 -0.8020
63073SOL     OW 1197  13.619  10.600   2.699 -0.3407  0.4906  0.6399
63073SOL    HW1 1198  13.700  10.560   2.730  1.1238  1.3776 -1.8314
63073SOL    HW2 1199  13.590  10.655   2.772  1.3041  0.2278  1.5282
63074SOL     OW 1200   3.186   5.795  13.061 -1.0843  0.0329  0.3512
63074SOL    HW1 1201   3.177   5.887  13.085 -0.3155  0.3305 -0.4367
63074SOL    HW2 1202   3.270   5.768  13.099 -0.6994  0.0235 -0.4819
63075SOL     OW 1203   9.229   4.669   7.262 -0.5006  0.3680 -0.2339
63075SOL    HW1 1204   9.300   4.633   7.209 -0.0560  0.2900  0.3987
63075SOL    HW2 1205   9.268   4.682   7.348 -0.7402  2.1138 -0.3663
63076SOL     OW 1206   8.132   7.796   5.583  0.1041  0.6767 -0.1031
63076SOL    HW1 1207   8.068   7.852   5.540 -0.0020  0.0468 -0.7860
63076SOL    HW2 1208   8.141   7.833   5.671 -0.8028  1.0868 -0.1716
63077SOL     OW 1209  13.544   6.002   2.934 -0.3368 -0.6150  0.3464
63077SOL    HW1 1210  13.598   5.923   2.938  0.0834 -0.2911  1.3217
63077SOL    HW2 1211  13.487   5.995   3.011 -0.4931 -0.0962  0.2784
63078SOL     OW 1212  13.097  13.741  10.343 -0.8064 -0.5002  0.4394
63078SOL    HW1 1213  13.074  13.649  10.326 -0.5242 -0.4120 -0.4701
63078SOL    HW2 1214  13.187  13.750  10.312 -1.2889  0.4162 -0.7901
63079SOL     OW 1215  11.919  11.053  10.218 -0.0112  0.1382  0.4312
63079SOL    HW1 1216  11.975  11.034  10.143 -1.9641  0.0970 -1.1105
63079SOL    HW2 1217  11.886  10.968  10.247 -0.7561  0.2966  0.0832
63080SOL     OW 1218  12.675   0.013   3.434 -0.5082  0.0259  0.2376
63080SOL    HW1 1219  12.607  -0.013   3.497 -1.4774 -1.2932 -1.2770
63080SOL    HW2 1220  12.712  -0.070   3.404  1.6019  0.7099  0.7804
63081SOL     OW 1221   4.369   0.318   7.596 -0.4057  0.3979  0.2402
63081SOL    HW1 1222   4.350   0.307   7.503 -1.1353  1.6643  0.2185
63081SOL    HW2 1223   4.289   0.291   7.640 -0.3093  0.4759  0.4627
63082SOL     OW 1224   4.184   6.214   3.129  0.1305  0.3007 -1.0785
63082SOL    HW1 1225   4.132   6.265   3.191 -0.1979 -0.3932 -0.7692
63082SOL    HW2 1226   4.267   6.261   3.123  0.7222 -0.3788  1.0099
63083SOL     OW 1227  12.310  12.745   8.489  0.0023 -0.0020  0.0134
63083SOL    HW1 1228  12.335  12.809   8.422  2.0291 -0.4062  0.3426
63083SOL    HW2 1229  12.343  12.781   8.571 -0.1987 -0.7453  0.4335
63084SOL     OW 1230   3.582   2.857   2.420  0.4122  0.3140 -0.4022
63084SOL    HW1 1231   3.605   2.948   2.401 -0.5745  0.8092  0.5932
63084SOL    HW2 1232   3.500   2.864   2.470  1.8284 -0.9176  2.3010
63085SOL     OW 1233   3.542   9.076  12.562  0.0100  0.2329 -0.2615
63085SOL    HW1 1234   3.581   9.075  12.649  1.7968  1.1634 -0.9893
63085SOL    HW2 1235   3.601   9.023  12.509 -0.4937  0.5056 -1.1234
63086SOL     OW 1236   5.550   6.735  11.001  0.4933 -0.2355 -0.3860
63086SOL    HW1 1237   5.629   6.704  11.044 -0.5629  0.4362  2.2347
63086SOL    HW2 1238   5.493   6.658  10.998 -0.8051  0.4231  2.9523
63087SOL     OW 1239  12.131   5.622   2.595 -0.1305  0.1453  0.2125
63087SOL    HW1 1240  12.086   5.706   2.581 -2.2587 -0.7914  0.9536
63087SOL    HW2 1241  12.139   5.584   2.507  0.7749  1.0548 -0.1186
63088SOL     OW 1242   3.962   5.955   8.856  0.0566 -0.1784  0.6121
63088SOL    HW1 1243   4.048   5.925   8.885  0.8552 -0.7707 -2.0373
63088SOL    HW2 1244   3.977   5.991   8.768 -2.1613  1.1699  0.6912
63089SOL     OW 1245  11.719   1.491  10.169 -0.1747  0.2918 -0.6427
63089SOL    HW1 1246  11.785   1.557  10.149  0.3664 -0.2590 -0.7070
63089SOL    HW2 1247  11.753   1.445  10.246 -1.5821  1.4965  0.7492
63090SOL     OW 1248   5.915   4.352   7.717  0.2639 -0.0815  0.5164
63090SOL    HW1 1249   5.945   4.262   7.729  0.6183 -0.0948 -0.3697
63090SOL    HW2 1250   5.947   4.376   7.630 -1.0555  0.4071  0.1414
63091SOL     OW 1251  13.464  11.192   8.744  0.2041 -0.3861  0.6179
63091SOL    HW1 1252  13.517  11.139   8.683  1.2219 -1.4013  2.2942
63091SOL    HW2 1253  13.512  11.274   8.753 -0.1857 -0.0512 -0.2602
63092SOL     OW 1254   1.028   8.484  12.619  0.6387  0.0022  0.2329
63092SOL    HW1 1255   1.091   8.552  12.645  0.8508  0.5235 -1.5252
63092SOL    HW2 1256   1.077   8.429  12.558 -0.0871 -0.6707  0.2537
63093SOL     OW 1257   5.255  12.632   1.148  0.2861 -0.4781 -0.3488
63093SOL    HW1 1258   5.168  12.608   1.179  0.8135 -0.0805  1.5349
63093SOL    HW2 1259   5.242  12.652   1.055 -1.9091  0.8895  0.1713
63094SOL     OW 1260   3.064   3.162  10.889  0.2178 -0.2630 -0.1635
63094SOL    HW1 1261   3.139   3.188  10.943 -0.2783 -0.0011  0.4129
63094SOL    HW2 1262   3.028   3.086  10.933  0.7215 -0.9967 -0.9839
63095SOL     OW 1263  12.908   0.574  13.943 -0.0627 -0.6275  0.0373
63095SOL    HW1 1264  12.816   0.583  13.967 -0.3350  1.5427 -1.5157
63095SOL    HW2 1265  12.955   0.625  14.008  0.1279 -1.9828  1.0093
63096SOL     OW 1266   1.856  12.572   3.754  0.3027  0.3195 -0.1781
63096SOL    HW1 1267   1.791  12.506   3.779 -1.7012  1.3571 -2.2276
63096SOL    HW2 1268   1.922  12.523   3.706  1.0337 -0.7373  1.7820
63097SOL     OW 1269   1.514  12.880   2.739  0.4886 -0.2466 -0.0079
63097SOL    HW1 1270   1.576  12.843   2.677  1.8475 -0.4011  1.3876
63097SOL    HW2 1271   1.504  12.812   2.806 -1.1269 -0.1834 -0.1419
63098SOL     OW 1272   1.893  10.950   8.751  0.1257 -0.2482  0.7656
63098SOL    HW1 1273   1.851  10.865   8.765 -0.0995 -0.0630  1.2586
63098SOL    HW2 1274   1.822  11.014   8.761  0.2002 -0.0228 -0.0655
63099SOL     OW 1275   1.545  13.229   5.407  0.8461 -0.1771  0.2690
63099SOL    HW1 1276   1.521  13.165   5.474  1.6034 -0.5490  0.1878
63099SOL    HW2 1277   1.461  13.261   5.373  0.4648 -0.5231  0.8809
63100SOL     OW 1278   0.837   8.178   1.397  0.2500  0.2633  0.0283
63100SOL    HW1 1279   0.758   8.192   1.448  1.1027 -0.7102  1.7082
63100SOL    HW2 1280   0.869   8.266   1.377 -1.4199  0.6681 -1.0099
63101SOL     OW 1281   8.520   6.203   5.392  0.3963 -0.3877  0.6398
63101SOL    HW1 1282   8.488   6.205   5.482  0.2011 -1.2227  0.5953
63101SOL    HW2 1283   8.443   6.220   5.338  0.3590 -0.6616  0.6035
63102SOL     OW 1284   0.878   6.718   6.751 -0.3236 -0.1650 -0.2140
63102SOL    HW1 1285   0.845   6.775   6.820 -1.6841  0.1655 -1.0938
63102SOL    HW2 1286   0.958   6.679   6.787 -1.0587 -0.0854  1.5615
63103SOL     OW 1287   8.040   9.197   7.364 -0.1138 -0.1465  0.1760
63103SOL    HW1 1288   8.135   9.191   7.377 -0.2666  0.4706  1.8656
63103SOL    HW2 1289   8.018   9.121   7.310  1.0904 -1.4070  1.3659
63104SOL     OW 1290   8.733   2.401  10.772 -0.4723 -0.0303  0.2133
63104SOL    HW1 1291   8.826   2.419  10.777 -0.1008 -1.9990  1.5713
63104SOL    HW2 1292   8.697   2.473  10.721  1.6583  1.1904  0.3361
63105SOL     OW 1293   9.601   8.863   1.320  0.1935 -0.2794 -0.8780
63105SOL    HW1 1294   9.585   8.770   1.305  0.6881 -0.7546  1.1822
63105SOL    HW2 1295   9.685   8.866   1.367 -0.9937  0.9659  1.3254
63106SOL     OW 1296   5.646   6.198   7.226 -0.5398 -0.2493 -0.2167
63106SOL    HW1 1297   5.666   6.157   7.142 -0.5573 -2.6148  0.8381
63106SOL    HW2 1298   5.552   6.183   7.238 -0.1895 -1.8284  1.0661
63107SOL     OW 1299   8.263   6.175  13.780 -0.2599  0.6049  0.0626
63107SOL    HW1 1300   8.205   6.205  13.851 -1.2744 -0.3258 -0.3416
63107SOL    HW2 1301   8.322   6.113  13.823  0.5606  1.6663  0.5059
63108SOL     OW 1302  12.100   7.563  12.859  0.3159  0.4139  0.6238
63108SOL    HW1 1303  12.160   7.636  12.871 -1.0052  1.4806  1.0608
63108SOL    HW2 1304  12.074   7.568  12.767 -0.5382  1.1432  0.8890
63109SOL     OW 1305   4.121   7.115   0.105  0.1265 -0.0281  0.8757
63109SOL    HW1 1306   4.112   7.090   0.197 -0.2894  0.0710  0.8646
63109SOL    HW2 1307   4.032   7.107   0.069 -0.0051  1.3308  0.8453
63110SOL     OW 1308   1.209   9.898   9.825  0.5977 -0.0299 -0.1963
63110SOL    HW1 1309   1.239   9.884   9.914  0.8626  0.8161 -0.1401
63110SOL    HW2 1310   1.265   9.968   9.792  0.3242 -0.1479 -0.9349
63111SOL     OW 1311   8.963  11.400   4.833  0.3223  0.1034 -0.6424
63111SOL    HW1 1312   9.048  11.371   4.800  0.5581 -0.4661  0.4088
63111SOL    HW2 1313   8.948  11.346   4.910 -1.1036  0.0504 -0.9333
63112SOL     OW 1314   5.963   5.564  11.153 -0.2714  0.0517 -0.0307
63112SOL    HW1 1315   5.989   5.576  11.244 -0.4687 -0.9460  0.1621
63112SOL    HW2 1316   6.036   5.599  11.102 -0.3846  1.0946  0.4997
63113SOL     OW 1317   4.150   0.656   2.473  0.2904 -0.3383  0.1368
63113SOL    HW1 1318   4.120   0.700   2.552  0.6217 -1.3818  0.8521
63113SOL    HW2 1319   4.211   0.589   2.504  1.3696  0.0243 -1.0806
63114SOL     OW 1320   1.552   7.835   0.558  0.0124 -0.0862  0.6906
63114SOL    HW1 1321   1.578   7.771   0.624 -2.0472 -0.9981  0.6894
63114SOL    HW2 1322   1.457   7.828   0.553  0.0517 -0.0440 -2.3643
63115SOL     OW 1323   5.098  11.285   6.146 -0.2991 -0.1736 -0.1810
63115SOL    HW1 1324   5.102  11.376   6.174 -3.0004  0.2886 -0.9970
63115SOL    HW2 1325   5.131  11.286   6.056 -0.8506  0.1176 -0.3848
63116SOL     OW 1326   1.554   0.285  10.086 -0.2851 -0.1991  0.3708
63116SOL    HW1 1327   1.502   0.359  10.055  0.1476  0.4674  1.1830
63116SOL    HW2 1328   1.557   0.296  10.181 -0.2389 -1.2823  0.5017
63117SOL     OW 1329   0.951  11.304   8.153  0.2034 -0.3603  0.0290
63117SOL    HW1 1330   0.896  11.257   8.091  0.1525  2.3351 -2.1821
63117SOL    HW2 1331   1.039  11.301   8.116  0.1292  1.4914 -0.4222
63118SOL     OW 1332  11.789  13.415   5.379  0.6593 -0.0800  0.1154
63118SOL    HW1 1333  11.799  13.320   5.374 -1.1546 -0.5142  2.5842
63118SOL    HW2 1334  11.713  13.434   5.325  1.1825  0.0214 -0.5933
63119SOL     OW 1335  10.059   1.004   1.167  0.1984 -0.3727 -0.0956
63119SOL    HW1 1336  10.091   1.090   1.140  0.4801 -0.2275  0.6849
63119SOL    HW2 1337  10.036   1.015   1.259  0.7781 -1.2882  0.1699
63120SOL     OW 1338   0.073   5.692   1.489 -0.2627  0.1624  0.3831
63120SOL    HW1 1339  -0.018   5.691   1.519  0.0958  0.3688  1.5142
63120SOL    HW2 1340   0.123   5.730   1.561  0.9290 -1.3327  0.4098
63121SOL     OW 1341   7.167   9.331   8.364  0.3255 -0.3517  0.6200
63121SOL    HW1 1342   7.254   9.361   8.337  1.4279 -2.2498  1.7920
63121SOL    HW2 1343   7.136   9.279   8.290  0.2206  0.2635  0.2298
63122SOL     OW 1344   1.882   0.401   5.639 -0.7407  0.0147  0.5562
63122SOL    HW1 1345   1.886   0.342   5.564  1.0068  0.9942 -0.1662
63122SOL    HW2 1346   1.906   0.487   5.604 -1.0979  0.7383  2.0098
63123SOL     OW 1347  10.116   9.011   6.903 -0.6280 -0.4247 -0.2867
63123SOL    HW1 1348  10.207   8.993   6.878 -1.0869 -0.4512 -2.1046
63123SOL    HW2 1349  10.095   8.944   6.968  1.0140  0.3719  1.1317
63124SOL     OW 1350  13.185   7.957  11.332 -0.1174  0.1201 -0.1284
63124SOL    HW1 1351  13.173   7.867  11.300 -1.0051  0.3277 -0.4006
63124SOL    HW2 1352  13.262   7.952  11.389  2.2959 -0.0609 -3.1438
63125SOL     OW 1353   3.646   2.804   3.675 -0.2564  0.3655  0.1332
63125SOL    HW1 1354   3.594   2.868   3.626 -1.7838  1.0911  2.5101
63125SOL    HW2 1355   3.641   2.834   3.765  0.2533 -2.2862  1.1258
63126SOL     OW 1356  10.223   3.158   9.298  0.1266 -0.0368  0.3534
63126SOL    HW1 1357  10.273   3.082   9.326 -0.1556 -1.0101 -1.6274
63126SOL    HW2 1358  10.141   3.122   9.265  0.4562  0.9656 -1.7267
63127SOL     OW 1359   4.738   3.717   3.482  0.3179 -0.2938 -0.2211
63127SOL    HW1 1360   4.718   3.797   3.530 -1.2210 -1.1689  0.6754
63127SOL    HW2 1361   4.749   3.650   3.549  0.3440 -1.1026 -1.0079
63128SOL     OW 1362   3.951   2.978   9.111 -0.3414  0.3239 -0.1811
63128SOL    HW1 1363   3.893   2.921   9.061 -0.5915  1.0409 -0.7325
63128SOL    HW2 1364   3.891   3.038   9.157 -0.1528 -0.7468  1.5425
63129SOL     OW 1365   2.627   7.009   2.047 -0.0870 -0.6264 -0.1949
63129SOL    HW1 1366   2.613   7.061   2.126  0.8496 -0.9298  0.1819
63129SOL    HW2 1367   2.639   7.073   1.977  1.7538 -0.2937  0.3852
63130SOL     OW 1368   1.092  11.078   7.571 -0.2505  0.0720  0.3728
63130SOL    HW1 1369   1.090  11.171   7.547 -0.3448  0.1239  0.5763
63130SOL    HW2 1370   1.094  11.078   7.667 -3.2273 -0.1212  0.5508
63131SOL     OW 1371   5.527   9.117  11.919 -0.0921 -0.0519  0.3129
63131SOL    HW1 1372   5.538   9.057  11.992 -0.6961 -1.6476 -0.8342
63131SOL    HW2 1373   5.539   9.204  11.957 -0.1030 -0.8344  2.2289
63132SOL     OW 1374   5.517   1.008   5.783 -0.1991 -0.5730  0.5148
63132SOL    HW1 1375   5.547   0.917   5.775 -1.5550 -1.0652  0.6936
63132SOL    HW2 1376   5.424   1.000   5.806 -1.2891  0.8014 -2.7310
63133SOL     OW 1377   4.408   9.515   6.540  0.4426  0.1789  0.0480
63133SOL    HW1 1378   4.390   9.438   6.487  1.0115  0.1532 -0.1104
63133SOL    HW2 1379   4.389   9.589   6.482 -1.1000  0.1891  0.5183
63134SOL     OW 1380   9.026   3.667   2.837  0.2982  0.7480  0.2907
63134SOL    HW1 1381   9.020   3.626   2.750 -0.7388  1.4094  0.0282
63134SOL    HW2 1382   9.098   3.621   2.880  0.1044 -0.3660 -0.5098
63135SOL     OW 1383  11.077  13.708   4.900  0.2907  0.0530  0.2586
63135SOL    HW1 1384  11.156  13.675   4.943  0.1986  0.5480  0.8175
63135SOL    HW2 1385  11.101  13.794   4.867  0.1763 -0.0671 -0.1447
63136SOL     OW 1386  10.834   9.122   9.678  0.1069 -0.0041  0.2057
63136SOL    HW1 1387  10.803   9.207   9.647 -1.3707 -0.1516  1.1519
63136SOL    HW2 1388  10.925   9.117   9.649  0.2321  1.9010  0.1546
63137SOL     OW 1389  10.210   5.363   6.084 -0.5144  0.2643  0.0264
63137SOL    HW1 1390  10.141   5.353   6.019 -0.2003  0.9258 -0.4166
63137SOL    HW2 1391  10.186   5.442   6.133 -0.8897 -0.3767  0.8928
63138SOL     OW 1392   2.792  13.875  10.033 -0.6141 -0.4383 -0.0391
63138SOL    HW1 1393   2.800  13.944  10.099  1.6409 -2.2718  1.7760
63138SOL    HW2 1394   2.698  13.856  10.029 -1.2685  2.3828 -0.3558
63139SOL     OW 1395   2.428   3.238  11.005  0.6274  0.3816  0.3345
63139SOL    HW1 1396   2.468   3.325  11.010 -0.7525  1.0876 -0.4799
63139SOL    HW2 1397   2.456   3.203  10.921 -0.5525  0.9421 -0.3083
63140SOL     OW 1398   3.136   3.135   3.347  0.0101 -0.2421  0.4230
63140SOL    HW1 1399   3.119   3.177   3.263 -0.3128  0.3738  0.7828
63140SOL    HW2 1400   3.095   3.048   3.339 -1.7888  0.5327  0.6152
63141SOL     OW 1401   4.587   3.345  13.650  0.0545  0.1869 -0.1664
63141SOL    HW1 1402   4.551   3.270  13.602  1.7791 -0.7354 -0.0995
63141SOL    HW2 1403   4.581   3.319  13.742  1.1383 -0.1164 -0.1715
63142SOL     OW 1404   5.414   8.463  10.171  0.1716  0.8174 -0.9290
63142SOL    HW1 1405   5.440   8.543  10.217  2.4781 -1.0296  1.3001
63142SOL    HW2 1406   5.372   8.409  10.238  1.0337 -0.8413 -1.6511
63143SOL     OW 1407   1.031   2.207   1.001 -0.2848 -0.1211 -0.2787
63143SOL    HW1 1408   0.946   2.223   0.961 -0.0304  0.8547 -0.4589
63143SOL    HW2 1409   1.011   2.178   1.089 -0.8052  0.4728 -0.1920
63144SOL     OW 1410  10.319   7.013   8.660 -0.1011 -0.1143 -0.1298
63144SOL    HW1 1411  10.310   6.918   8.649  1.9066 -0.4822  0.8601
63144SOL    HW2 1412  10.392   7.037   8.603 -0.2358  0.7399  0.0397
63145SOL     OW 1413  11.917   1.498   3.727 -0.4516  0.3920  0.0379
63145SOL    HW1 1414  11.883   1.535   3.646 -0.0323  0.2622 -0.2008
63145SOL    HW2 1415  11.862   1.535   3.796 -0.6065  0.7543 -0.2791
63146SOL     OW 1416   7.419  10.914   0.327 -0.1429  0.3299 -0.2837
63146SOL    HW1 1417   7.346  10.866   0.366 -0.7114  2.8648  2.0477
63146SOL    HW2 1418   7.497  10.874   0.365 -0.4342 -0.5037 -0.5304
63147SOL     OW 1419   1.372   3.702  12.151  0.0740 -0.2761 -0.0500
63147SOL    HW1 1420   1.454   3.745  12.176  0.5245  0.2847 -2.2244
63147SOL    HW2 1421   1.386   3.676  12.059 -2.2994  0.1770 -0.6112
63148SOL     OW 1422   2.774   4.116   5.065  0.2969  0.0308  0.1971
63148SOL    HW1 1423   2.737   4.191   5.110  0.2610 -0.4799  1.0399
63148SOL    HW2 1424   2.702   4.081   5.012  0.5635  1.1162 -0.9121
63149SOL     OW 1425   4.500   3.307  10.187  0.7203  0.5941  0.1748
63149SOL    HW1 1426   4.577   3.330  10.134 -0.0014 -1.5322 -2.0038
63149SOL    HW2 1427   4.531   3.240  10.247  0.7946  0.5018  0.0328
63150SOL     OW 1428   5.213   8.828  12.501 -0.2956 -0.5170  0.0217
63150SOL    HW1 1429   5.192   8.808  12.410  1.4730 -1.1606 -0.2894
63150SOL    HW2 1430   5.167   8.762  12.552 -1.5313  0.0239 -0.3630
63151SOL     OW 1431   5.400  10.677  11.287 -0.3905 -0.6404  0.0949
63151SOL    HW1 1432   5.442  10.751  11.244 -0.7574 -0.4438  0.0703
63151SOL    HW2 1433   5.319  10.713  11.324 -0.4567 -0.9748  0.2846
63152SOL     OW 1434   4.197  12.246   6.347 -0.0185  0.0797 -0.3217
63152SOL    HW1 1435   4.129  12.181   6.328  0.1617  0.0311 -0.8255
63152SOL    HW2 1436   4.149  12.323   6.376 -0.5264  0.9783 -3.1941
63153SOL     OW 1437  12.763   5.865  12.551 -0.3880  0.3745 -0.3108
63153SOL    HW1 1438  12.826   5.936  12.542 -0.4417  0.4344 -0.2090
63153SOL    HW2 1439  12.680   5.908  12.571 -0.0681  0.1862  1.5562
63154SOL     OW 1440   4.018  12.720  10.060 -0.4103  0.2143  0.1510
63154SOL    HW1 1441   4.085  12.706   9.993 -1.6069 -0.7802 -0.8637
63154SOL    HW2 1442   4.023  12.641  10.115 -1.6724 -0.5370 -0.7689
63155SOL     OW 1443  10.071   0.400   1.364 -0.2923  0.4752 -0.1033
63155SOL    HW1 1444  10.045   0.360   1.282  1.1547 -0.0296 -0.3492
63155SOL    HW2 1445  10.057   0.494   1.351 -0.3838  0.3685 -0.8048
63156SOL     OW 1446  12.849   2.771   6.664  0.9159  0.0998  0.2370
63156SOL    HW1 1447  12.860   2.865   6.679  1.0207  0.0753  0.3129
63156SOL    HW2 1448  12.839   2.763   6.569  1.4559  0.1282  0.1759
63157SOL     OW 1449   2.013   5.700  11.432 -0.3461  0.0175 -0.1245
63157SOL    HW1 1450   1.988   5.764  11.497 -1.6383 -0.5749 -0.0178
63157SOL    HW2 1451   1.975   5.732  11.350  1.0995  0.6567 -0.5727
63158SOL     OW 1452   4.339   1.494  13.036  0.0703 -0.7742 -0.2271
63158SOL    HW1 1453   4.405   1.510  12.970  0.4512  0.1711  0.3601
63158SOL    HW2 1454   4.332   1.399  13.041 -0.5147 -0.8636 -2.1420
63159SOL     OW 1455  13.529   3.009   5.858 -0.2237 -0.5573 -0.3647
63159SOL    HW1 1456  13.546   2.916   5.871  0.2438 -0.6525 -1.5320
63159SOL    HW2 1457  13.556   3.050   5.940 -1.7928 -1.5870  0.7410
63160SOL     OW 1458   4.248  12.318  11.771 -0.6508  0.2921  0.2442
63160SOL    HW1 1459   4.175  12.369  11.736 -0.3660 -0.5691 -1.7031
63160SOL    HW2 1460   4.315  12.321  11.703  0.2588 -0.7882  1.0444
63161SOL     OW 1461  10.946  12.409  13.925  0.7077  0.1652 -0.2504
63161SOL    HW1 1462  10.917  12.435  14.012  1.9337  1.6911 -0.2477
63161SOL    HW2 1463  10.916  12.480  13.868  0.5086 -0.4823 -0.9510
63162SOL     OW 1464  10.322   2.076   2.916  0.0938  0.1346  1.0573
63162SOL    HW1 1465  10.289   2.158   2.880 -0.2971 -0.3944  0.1729
63162SOL    HW2 1466  10.403   2.100   2.961  1.7341  0.5444 -1.8993
63163SOL     OW 1467   9.390   3.012   1.941  1.0947 -0.3508  0.0354
63163SOL    HW1 1468   9.366   2.927   1.904  2.7071 -0.7159 -0.2491
63163SOL    HW2 1469   9.463   2.993   2.000 -0.4039  0.4376  2.2866
63164SOL     OW 1470   0.141   4.312   7.865 -0.2733  0.0970 -0.2515
63164SOL    HW1 1471   0.161   4.404   7.849 -0.0050 -0.1192 -1.2356
63164SOL    HW2 1472   0.158   4.269   7.781  0.5866 -1.0192  0.4669
63165SOL     OW 1473   0.870  10.725   2.348 -0.4063  0.4216 -0.2598
63165SOL    HW1 1474   0.820  10.673   2.411  1.6528 -1.0494  0.2926
63165SOL    HW2 1475   0.941  10.763   2.399  2.0473 -1.7888 -1.7563
63166SOL     OW 1476   2.738   7.760   9.060  0.3027 -0.3698 -0.1377
63166SOL    HW1 1477   2.822   7.793   9.027  0.1808  1.4661  1.1858
63166SOL    HW2 1478   2.673   7.821   9.026 -0.4834 -1.5731 -0.8542
63167SOL     OW 1479   9.072  12.250   5.055  0.0293 -0.0965 -0.2266
63167SOL    HW1 1480   8.981  12.275   5.074  0.0347  0.7929 -1.2613
63167SOL    HW2 1481   9.125  12.318   5.098  0.2412 -0.8849  0.7931
63168SOL     OW 1482  12.893   8.796  11.550 -0.1511 -0.0076  0.3598
63168SOL    HW1 1483  12.866   8.707  11.574 -1.1951  0.2339  0.1298
63168SOL    HW2 1484  12.915   8.790  11.457 -2.2792  0.3890 -0.2268
63169SOL     OW 1485  13.295   8.893   9.621 -0.1526 -0.6069 -0.5426
63169SOL    HW1 1486  13.390   8.906   9.613 -0.5264  3.8393  0.1093
63169SOL    HW2 1487  13.278   8.900   9.715 -1.3124  0.4073 -0.8151
63170SOL     OW 1488   6.200   3.955   7.954 -0.3392 -1.1645 -0.1004
63170SOL    HW1 1489   6.249   4.018   8.008  1.0478 -1.9051 -0.4580
63170SOL    HW2 1490   6.118   3.944   8.001 -1.6187  2.5335 -1.1162
63171SOL     OW 1491   5.222   0.227  10.293  0.1351 -0.3074 -0.1151
63171SOL    HW1 1492   5.277   0.225  10.372 -0.8205  0.0339  0.5763
63171SOL    HW2 1493   5.133   0.238  10.326 -0.0712  2.2302 -1.3173
63172SOL     OW 1494   6.349   2.577   1.425 -0.5052 -0.5543  0.4514
63172SOL    HW1 1495   6.325   2.641   1.359 -0.2516 -1.0545 -0.1413
63172SOL    HW2 1496   6.432   2.609   1.460 -0.5642 -0.3657  0.4191
63173SOL     OW 1497  11.654  11.961  12.386 -0.6674  0.7220  0.0390
63173SOL    HW1 1498  11.733  12.014  12.386 -0.7670  0.8978 -1.3100
63173SOL    HW2 1499  11.685  11.871  12.375 -0.6421  0.7668 -0.2547
63174SOL     OW 1500   7.625  12.323   6.009 -0.1427  0.0393  0.0201
63174SOL    HW1 1501   7.663  12.236   6.025  0.8356  0.8940  3.0753
63174SOL    HW2 1502   7.686  12.365   5.948  0.0007 -0.9960 -0.5741
63175SOL     OW 1503   0.839   0.113  12.448 -0.3438  0.4270  0.6598
63175SOL    HW1 1504   0.787   0.032  12.441 -0.6295  0.6876 -0.3980
63175SOL    HW2 1505   0.826   0.141  12.539 -0.6697 -0.4315  0.8926
63176SOL     OW 1506   9.518   5.579   2.178  0.1901  1.1499 -0.0054
63176SOL    HW1 1507   9.468   5.636   2.120 -0.5816  1.6508  1.1130
63176SOL    HW2 1508   9.507   5.617   2.265 -0.3960 -0.7227  0.7998
63177SOL     OW 1509  13.121   2.454   6.723  0.0519  0.0789 -0.8667
63177SOL    HW1 1510  13.122   2.544   6.754  0.1195  0.6523 -2.4259
63177SOL    HW2 1511  13.029   2.438   6.698  0.2078  0.0444 -1.4450
63178SOL     OW 1512  12.261   4.720   8.524 -0.5587 -0.1699 -0.0009
63178SOL    HW1 1513  12.231   4.807   8.550  0.3399  0.5143 -1.1689
63178SOL    HW2 1514  12.356   4.728   8.522 -0.4776 -1.1568 -0.2317
63179SOL     OW 1515   1.632  11.952   6.818 -0.1728  0.2554 -0.3868
63179SOL    HW1 1516   1.691  11.971   6.891  0.8948  1.6521 -1.5390
63179SOL    HW2 1517   1.667  11.872   6.779 -0.7647 -0.5084  0.6197
63180SOL     OW 1518   8.909  12.165  12.963 -0.1402  0.8098  1.1083
63180SOL    HW1 1519   8.841  12.100  12.948  0.3573  0.2873  1.0478
63180SOL    HW2 1520   8.991  12.115  12.963  0.4208  1.6235 -0.5826
63181SOL     OW 1521   8.652   5.515  13.041 -0.2837 -0.2941  0.1249
63181SOL    HW1 1522   8.616   5.429  13.023  0.1645 -0.8923  1.8661
63181SOL    HW2 1523   8.584   5.576  13.011 -0.7878 -1.2488 -0.7350
63182SOL     OW 1524   6.919   0.706   4.332  0.7741  0.4483 -0.6317
63182SOL    HW1 1525   6.994   0.734   4.278  0.1296  1.2397 -1.1453
63182SOL    HW2 1526   6.843   0.730   4.280  0.1565 -0.9457 -0.4008
63183SOL     OW 1527   3.689   3.423  12.539  0.0954  0.1989 -0.4345
63183SOL    HW1 1528   3.657   3.334  12.549 -0.2844  0.4607  0.8648
63183SOL    HW2 1529   3.697   3.456  12.628  0.0884  1.5152 -0.8938
63184SOL     OW 1530  10.409  13.579   6.919 -0.2878 -0.0857 -0.1966
63184SOL    HW1 1531  10.405  13.645   6.850  0.1718 -0.8067 -0.9246
63184SOL    HW2 1532  10.450  13.504   6.878 -2.7832 -1.6620 -0.0489
63185SOL     OW 1533   5.404  11.049  11.953 -0.0543  0.3062 -0.5352
63185SOL    HW1 1534   5.430  11.072  12.042 -0.7565  1.3306 -0.5727
63185SOL    HW2 1535   5.394  10.954  11.954  0.2077  0.2808  0.4077
63186SOL     OW 1536   1.286   3.430   1.014  0.2034 -0.1895  0.2499
63186SOL    HW1 1537   1.259   3.519   1.037 -0.4940  0.0069 -1.2179
63186SOL    HW2 1538   1.381   3.436   1.004 -0.0049  0.8438 -1.5471
63187SOL     OW 1539   9.776  12.728   1.771  0.0315 -0.3205  0.4542
63187SOL    HW1 1540   9.845  12.772   1.821  0.2438 -1.1633  0.9240
63187SOL    HW2 1541   9.750  12.792   1.705  0.2368  0.5599  1.1968
63188SOL     OW 1542  10.973   7.570  10.527 -0.4755  0.0217  0.5229
63188SOL    HW1 1543  10.897   7.626  10.510  0.7551  1.4797 -0.4493
63188SOL    HW2 1544  11.007   7.602  10.610  1.3282  2.1648 -0.8986
63189SOL     OW 1545   2.483   0.125   6.992 -1.0181  0.2123 -0.0362
63189SOL    HW1 1546   2.543   0.118   7.065  0.0027 -2.2943 -1.0088
63189SOL    HW2 1547   2.396   0.114   7.031 -0.6199  0.5749  0.9760
63190SOL     OW 1548  10.167  13.939  13.913 -0.2996 -0.1459 -0.2713
63190SOL    HW1 1549  10.160  13.930  13.818  1.0469 -0.6539 -0.3435
63190SOL    HW2 1550  10.154  14.033  13.929  0.7205  0.1636 -1.1115
63191SOL     OW 1551  11.931   6.636   4.307 -0.1785 -0.8656 -0.5429
63191SOL    HW1 1552  11.883   6.604   4.383  1.4417 -1.7739  0.1547
63191SOL    HW2 1553  11.938   6.559   4.249  2.5799 -1.5743  0.5380
63192SOL     OW 1554   3.129   1.199   5.134  0.0976 -0.6917 -0.1306
63192SOL    HW1 1555   3.161   1.137   5.200  0.4960  0.9331  1.2777
63192SOL    HW2 1556   3.108   1.145   5.059 -1.8202 -2.8917  1.8169
63193SOL     OW 1557   7.729   0.152   3.200 -0.2074 -0.4341  0.1515
63193SOL    HW1 1558   7.680   0.113   3.273 -0.1376 -0.2195  0.3165
63193SOL    HW2 1559   7.738   0.082   3.136  0.8272 -1.0062  0.8866
63194SOL     OW 1560   1.418  13.288   4.360  0.7479  0.0945  0.1041
63194SOL    HW1 1561   1.365  13.340   4.421 -1.8375 -0.4804 -1.4995
63194SOL    HW2 1562   1.484  13.349   4.327 -1.1540  1.9721 -0.4602
63195SOL     OW 1563   9.476  12.933   3.277 -0.0640 -0.2762  0.9241
63195SOL    HW1 1564   9.552  12.942   3.334  0.3332 -0.3394  0.4121
63195SOL    HW2 1565   9.433  13.018   3.280  1.5435  0.6489 -0.9069
63196SOL     OW 1566  11.746  11.280  10.151 -0.0055  0.4849 -0.5112
63196SOL    HW1 1567  11.820  11.227  10.182  0.4925  0.3274 -1.9133
63196SOL    HW2 1568  11.670  11.241  10.194  0.6331  0.2659  0.4780
63197SOL     OW 1569   4.279   6.711  11.712  0.0486 -0.3948 -0.0005
63197SOL    HW1 1570   4.351   6.774  11.702 -0.3599 -0.0235 -0.6897
63197SOL    HW2 1571   4.294   6.671  11.797  2.0936 -1.6340 -0.8649
63198SOL     OW 1572  12.709   5.995  10.192  0.0841  0.1912 -0.2471
63198SOL    HW1 1573  12.744   5.912  10.161  0.1200  0.3294 -0.5843
63198SOL    HW2 1574  12.644   6.020  10.126 -0.3868  0.1157  0.1839
63199SOL     OW 1575  10.130  13.039   2.513  1.0423  0.2459 -0.0671
63199SOL    HW1 1576  10.101  13.082   2.433 -0.4422 -0.6490 -0.0467
63199SOL    HW2 1577  10.108  12.947   2.500 -3.0889  0.5541  2.9416
63200SOL     OW 1578  11.671   9.725  10.574 -0.3341 -0.0910 -0.5188
63200SOL    HW1 1579  11.575   9.726  10.585 -0.3406 -1.6900 -0.0921
63200SOL    HW2 1580  11.692   9.633  10.560  1.2153  0.1699 -0.0839
63201SOL     OW 1581   7.158   4.125   9.729  0.1991  0.3973 -0.2924
63201SOL    HW1 1582   7.144   4.116   9.824 -0.0361  0.4575 -0.3195
63201SOL    HW2 1583   7.156   4.035   9.696  0.5705  0.3541 -0.2029
63202SOL     OW 1584   9.546   6.981  10.157  0.3250 -0.2434 -0.6781
63202SOL    HW1 1585   9.583   6.919  10.220  1.2082  1.6703  0.7987
63202SOL    HW2 1586   9.547   6.934  10.074  2.0298 -1.8222  0.1449
63203SOL     OW 1587  13.917   4.049   4.792  0.3314  0.1577  0.2675
63203SOL    HW1 1588  13.893   4.128   4.743 -0.0981  0.4846  0.9948
63203SOL    HW2 1589  13.919   3.980   4.725 -0.4552  0.5584 -0.1926
63204SOL     OW 1590  10.849   9.164   2.165 -0.5772  0.6612 -0.0963
63204SOL    HW1 1591  10.820   9.127   2.249 -0.8240 -0.4369 -0.6502
63204SOL    HW2 1592  10.814   9.253   2.165 -1.7929  0.2075  0.3527
63205SOL     OW 1593  10.381   6.374   0.883  0.1713 -0.7655  0.3564
63205SOL    HW1 1594  10.429   6.314   0.826 -0.0641 -1.1814  0.5848
63205SOL    HW2 1595  10.389   6.335   0.971  1.7376  0.6116  0.8746
63206SOL     OW 1596   3.776   3.333   1.802  0.3818 -0.1525 -0.8334
63206SOL    HW1 1597   3.794   3.427   1.804  0.3269 -0.1503 -0.2979
63206SOL    HW2 1598   3.712   3.319   1.872  0.0918 -0.5278 -1.1669
63207SOL     OW 1599   7.127   4.582   3.952  0.4010  0.4541  0.1385
63207SOL    HW1 1600   7.037   4.613   3.961 -0.2500 -1.5666  1.2354
63207SOL    HW2 1601   7.127   4.535   3.868  0.6708  1.1731 -0.2666
63208SOL     OW 1602   7.975  10.003   8.279 -0.0684  0.3430  0.3275
63208SOL    HW1 1603   7.973   9.994   8.184 -0.8995  2.9702  0.0209
63208SOL    HW2 1604   7.918   9.933   8.311  0.0450 -0.4459 -1.1035
63209SOL     OW 1605  13.661   3.331   6.354  0.1204  0.0426 -0.7178
63209SOL    HW1 1606  13.637   3.418   6.386 -1.3337 -0.7948  0.6222
63209SOL    HW2 1607  13.742   3.310   6.400  0.4194  0.6251 -0.9621
63210SOL     OW 1608   9.520   6.300   5.431  0.3699 -0.7291  0.3666
63210SOL    HW1 1609   9.492   6.391   5.442  0.9152 -0.4494 -0.4583
63210SOL    HW2 1610   9.441   6.248   5.451  0.1362 -0.1038  1.1298
63211SOL     OW 1611   3.675  11.141  13.231 -0.2440  0.3314  0.9174
63211SOL    HW1 1612   3.628  11.136  13.315 -0.6631  0.0679  0.6741
63211SOL    HW2 1613   3.610  11.113  13.167 -0.7126  2.7890  0.1937
63212SOL     OW 1614   0.968  12.341   3.718  0.4713 -0.5466 -0.0058
63212SOL    HW1 1615   0.904  12.291   3.768  0.1594  1.7332  1.9856
63212SOL    HW2 1616   1.019  12.389   3.783  2.2501  0.0330 -1.7103
63213SOL     OW 1617   8.371  13.336   1.410 -0.4314 -0.3493 -0.0143
63213SOL    HW1 1618   8.401  13.360   1.497 -2.2883  2.5088 -0.0129
63213SOL    HW2 1619   8.428  13.385   1.350 -0.8623 -0.1461 -0.2670
63214SOL     OW 1620   8.057   7.783   3.752 -0.1552  0.3680  0.2041
63214SOL    HW1 1621   8.146   7.751   3.765 -0.5140 -1.2447 -0.9344
63214SOL    HW2 1622   8.055   7.869   3.794  0.9461 -0.9792  3.2926
63215SOL     OW 1623  12.754  13.345  10.798  0.0812 -0.6974 -0.6112
63215SOL    HW1 1624  12.721  13.256  10.783 -1.3827 -0.3171  0.1827
63215SOL    HW2 1625  12.686  13.388  10.850  0.9408  0.7789 -0.6378
63216SOL     OW 1626   5.753   4.293  13.425 -0.0292 -0.0866  0.1801
63216SOL    HW1 1627   5.672   4.298  13.374  1.1713 -0.9820 -1.9229
63216SOL    HW2 1628   5.749   4.209  13.469 -0.9638  0.5885  1.4509
63217SOL     OW 1629   5.829  12.488  10.101  0.3553 -0.5584  0.2007
63217SOL    HW1 1630   5.782  12.442  10.170  0.3130  0.2238  0.7138
63217SOL    HW2 1631   5.890  12.424  10.066 -0.0451 -1.1397  0.5578
63218SOL     OW 1632   9.467   5.089  10.828 -0.3098  0.2851  0.8411
63218SOL    HW1 1633   9.411   5.089  10.751  0.9844 -0.8018 -0.1600
63218SOL    HW2 1634   9.532   5.020  10.811  1.9420  2.0999  1.4515
63219SOL     OW 1635   1.139   4.785   8.533  0.1161  0.2910  0.5188
63219SOL    HW1 1636   1.234   4.798   8.536 -0.1019  1.9313  1.9873
63219SOL    HW2 1637   1.127   4.692   8.551  1.4960 -0.4660 -1.9674
63220SOL     OW 1638   9.790   7.665  10.635 -0.0210 -0.0318  0.0967
63220SOL    HW1 1639   9.815   7.600  10.701  0.1024 -1.0907 -0.9474
63220SOL    HW2 1640   9.763   7.742  10.685  0.2637 -0.7341  1.3643
63221SOL     OW 1641   3.958   1.983  12.862 -0.2650 -0.1281  0.4356
63221SOL    HW1 1642   3.871   2.010  12.831 -0.6639 -0.8525  0.8888
63221SOL    HW2 1643   4.017   2.008  12.791 -0.7856  0.7341  0.2932
63222SOL     OW 1644   5.875   6.473  14.021  0.2321 -0.3749  0.1701
63222SOL    HW1 1645   5.957   6.423  14.029  1.2485  1.2355  0.2464
63222SOL    HW2 1646   5.807   6.406  14.015  1.4880 -1.7624  0.7389
63223SOL     OW 1647  10.510   2.973  10.219  0.1840 -0.0594  0.0477
63223SOL    HW1 1648  10.547   2.990  10.306  0.2101  0.3370 -0.0355
63223SOL    HW2 1649  10.582   2.934  10.170 -0.4235 -2.2589  0.8077
63224SOL     OW 1650   6.852   0.528   2.581 -0.4826  0.1668 -0.0674
63224SOL    HW1 1651   6.900   0.558   2.658 -0.7756 -0.0292  0.1932
63224SOL    HW2 1652   6.894   0.445   2.558  0.9174  1.1675 -1.3246
63225SOL     OW 1653  13.051   9.149  12.406 -0.1570 -0.0378 -0.1446
63225SOL    HW1 1654  13.035   9.100  12.325  0.4787  0.5447 -0.6296
63225SOL    HW2 1655  12.992   9.224  12.400 -2.8049 -1.8189  1.6323
63226SOL     OW 1656   6.079  13.154   1.093 -0.4179  0.3582 -0.0494
63226SOL    HW1 1657   6.045  13.242   1.082 -0.1259  0.4314 -0.3626
63226SOL    HW2 1658   6.173  13.162   1.081 -0.5507 -0.2690 -1.7416
63227SOL     OW 1659  13.332   9.070   2.509  0.0514 -0.1398 -0.0756
63227SOL    HW1 1660  13.251   9.027   2.535  0.3521 -0.9846 -0.5147
63227SOL    HW2 1661  13.401   9.010   2.535  0.5125  0.3261 -0.2018
63228SOL     OW 1662   9.733  12.651   7.678 -0.4911 -0.5909 -0.3840
63228SOL    HW1 1663   9.744  12.745   7.692  0.7481 -0.7627 -0.1031
63228SOL    HW2 1664   9.750  12.611   7.763  1.2789 -1.2133 -0.9881
63229SOL     OW 1665   3.443   3.825  10.259 -0.7654  0.0153  0.5205
63229SOL    HW1 1666   3.512   3.759  10.249 -0.1802  0.5328  1.0482
63229SOL    HW2 1667   3.419   3.819  10.351 -0.7853  0.4622  0.5438
63230SOL     OW 1668  12.181   6.970   2.021  0.1547  0.2320  0.1484
63230SOL    HW1 1669  12.180   6.921   2.103  0.6513  0.8018  0.5045
63230SOL    HW2 1670  12.169   6.903   1.953  0.1616 -0.2991  0.6596
63231SOL     OW 1671   8.458   5.833   1.822 -0.0021  0.5612 -0.0144
63231SOL    HW1 1672   8.539   5.848   1.772  0.1176  0.5896  0.1882
63231SOL    HW2 1673   8.487   5.822   1.912 -0.1292 -0.3980 -0.0800
63232SOL     OW 1674   2.654  10.911  11.819  0.3262  0.1141  0.4002
63232SOL    HW1 1675   2.632  10.835  11.873 -1.0753 -1.7089 -2.4856
63232SOL    HW2 1676   2.744  10.896  11.791 -0.8379 -2.2101 -2.5337
63233SOL     OW 1677  13.269   3.150   9.295  0.1969  0.3279  0.1992
63233SOL    HW1 1678  13.328   3.207   9.344 -0.3612  1.2432 -0.1649
63233SOL    HW2 1679  13.327   3.091   9.246  0.7632 -0.1017  1.3628
63234SOL     OW 1680   0.508   4.684  12.956 -0.4447  0.2491  0.3745
63234SOL    HW1 1681   0.521   4.694  12.862 -2.6500  0.5318  0.0319
63234SOL    HW2 1682   0.491   4.773  12.988  0.0922  0.1313  1.0037
63235SOL     OW 1683   0.977   4.603   4.179 -0.3210  0.0840 -0.4537
63235SOL    HW1 1684   1.040   4.647   4.236 -1.5511  0.9871  0.2639
63235SOL    HW2 1685   0.915   4.672   4.154 -1.2306 -0.8426 -0.8429
63236SOL     OW 1686  13.825   8.595   3.274  0.4542  0.3619 -0.2295
63236SOL    HW1 1687  13.875   8.514   3.266  0.4247  0.3070  0.1172
63236SOL    HW2 1688  13.735   8.570   3.257  0.6520  0.6227 -1.7215
63237SOL     OW 1689  13.698   9.671   7.154  0.1574 -0.0585 -0.5533
63237SOL    HW1 1690  13.738   9.585   7.145 -0.3937 -0.6512  1.9053
63237SOL    HW2 1691  13.743   9.711   7.229  0.0046  1.5555 -1.2855
63238SOL     OW 1692  11.709   1.168   3.090  0.4821 -0.0126 -0.3592
63238SOL    HW1 1693  11.672   1.249   3.125  0.2301  0.0202 -0.6953
63238SOL    HW2 1694  11.732   1.190   3.000 -1.2580 -0.8047 -1.0496
63239SOL     OW 1695   1.731  10.438  13.779  0.1517 -0.0012 -0.7668
63239SOL    HW1 1696   1.731  10.451  13.874 -1.8161 -2.0764 -0.3783
63239SOL    HW2 1697   1.804  10.490  13.748  0.0986  1.7767  1.7276
63240SOL     OW 1698   2.130   5.993   0.612  0.0464 -0.2552  0.0289
63240SOL    HW1 1699   2.089   5.925   0.558  1.4074 -2.2872  1.3874
63240SOL    HW2 1700   2.194   6.034   0.555 -0.0273 -0.8761 -0.5124
63241SOL     OW 1701  12.424   8.734  12.688  0.2327 -0.2444  0.2830
63241SOL    HW1 1702  12.422   8.810  12.630  1.7603  0.2240  0.8038
63241SOL    HW2 1703  12.461   8.664  12.635 -0.5937 -0.4801 -0.0043
63242SOL     OW 1704   7.747  13.380  11.671 -0.6234 -0.1714  0.3731
63242SOL    HW1 1705   7.816  13.401  11.734 -1.1024  0.2986  0.7491
63242SOL    HW2 1706   7.768  13.292  11.641  1.2885  0.6810 -1.0271
63243SOL     OW 1707   4.884   6.155  12.682 -0.5830  0.2713  0.1883
63243SOL    HW1 1708   4.804   6.141  12.732 -0.3743  0.4362  0.5773
63243SOL    HW2 1709   4.907   6.247  12.698  0.4313 -0.1361  1.1993
63244SOL     OW 1710   9.653   3.262   2.636 -0.3105  0.3651 -0.2141
63244SOL    HW1 1711   9.630   3.169   2.637 -1.2693  0.5763 -0.9640
63244SOL    HW2 1712   9.722   3.269   2.570 -0.1346  0.1670 -0.0525
63245SOL     OW 1713   9.541  12.646   1.903 -0.6925  0.0160 -0.4766
63245SOL    HW1 1714   9.620  12.679   1.861  0.6663 -1.8181  0.4566
63245SOL    HW2 1715   9.490  12.608   1.831 -0.0083 -0.0992 -0.9135
63246SOL     OW 1716  12.748  12.872   9.986  0.1654  0.0599  0.0801
63246SOL    HW1 1717  12.815  12.899  10.048 -0.2791  0.9629  0.1873
63246SOL    HW2 1718  12.711  12.792  10.023  0.5490  0.0736  0.4942
63247SOL     OW 1719   3.792   1.740   2.967  0.0615 -0.4409 -0.6117
63247SOL    HW1 1720   3.770   1.670   2.906 -0.5294 -0.2714 -0.5998
63247SOL    HW2 1721   3.803   1.817   2.912 -1.3699 -0.0899 -0.4261
63248SOL     OW 1722  11.730  11.816   5.377 -0.1566  0.1431 -0.2544
63248SOL    HW1 1723  11.635  11.812   5.393 -0.1129  2.5270  1.1069
63248SOL    HW2 1724  11.765  11.744   5.429 -1.1891 -0.4084 -0.2948
63249SOL     OW 1725   4.405   5.881   6.738 -0.4114 -0.6739 -0.4159
63249SOL    HW1 1726   4.414   5.903   6.831 -0.2132 -0.7449 -0.4185
63249SOL    HW2 1727   4.484   5.831   6.717  1.0352  1.8416 -1.3641
63250SOL     OW 1728   0.163   4.934   8.934 -0.1628  0.2116 -0.0607
63250SOL    HW1 1729   0.210   4.855   8.906 -2.8067 -0.8426 -1.9994
63250SOL    HW2 1730   0.199   5.004   8.879 -1.2478 -0.7278 -2.0956
63251SOL     OW 1731   0.487   7.640  10.107  0.1233  0.6446  0.2391
63251SOL    HW1 1732   0.525   7.563  10.064  1.3277  0.6598  1.2246
63251SOL    HW2 1733   0.393   7.633  10.090  0.2250 -0.9818  0.2054
63252SOL     OW 1734   1.767  13.333   2.314  0.3941  0.0129  0.2073
63252SOL    HW1 1735   1.685  13.378   2.330 -0.0842 -0.8643  0.3063
63252SOL    HW2 1736   1.790  13.294   2.399 -0.1041 -1.3482 -0.2525
63253SOL     OW 1737   9.426   6.340   5.190  0.4811  0.4725 -0.4838
63253SOL    HW1 1738   9.461   6.322   5.277 -2.7954  0.1659  0.9014
63253SOL    HW2 1739   9.504   6.347   5.134  2.7479  1.1092  2.4851
63254SOL     OW 1740   0.820  11.796   0.167  0.4193 -0.0041 -1.3630
63254SOL    HW1 1741   0.747  11.773   0.224  0.6159 -0.7562 -1.4141
63254SOL    HW2 1742   0.880  11.846   0.224 -0.3096  0.9764 -1.4234
63255SOL     OW 1743   4.637   6.656   0.452  0.0882 -0.0950  0.3444
63255SOL    HW1 1744   4.567   6.702   0.405 -0.4659  0.4013  1.6183
63255SOL    HW2 1745   4.630   6.565   0.421  0.2286  0.3517 -1.0725
63256SOL     OW 1746   1.392   0.475   8.548  0.0262  0.0177  0.5883
63256SOL    HW1 1747   1.488   0.475   8.544  0.1783  0.4835  2.7530
63256SOL    HW2 1748   1.364   0.472   8.457  2.1339  3.5740 -0.3936
63257SOL     OW 1749   1.180  13.438   3.361  0.2560 -0.3657  0.1847
63257SOL    HW1 1750   1.226  13.480   3.433  1.5464 -0.3896 -0.5986
63257SOL    HW2 1751   1.097  13.485   3.354  1.8152  2.4226 -0.9628
63258SOL     OW 1752   0.438   3.839  12.274 -0.4681  0.0344 -0.0625
63258SOL    HW1 1753   0.451   3.882  12.190 -1.4657  0.2475 -0.1223
63258SOL    HW2 1754   0.514   3.782  12.284 -0.7303 -0.6213 -1.4991
63259SOL     OW 1755   1.011   7.781   3.145  0.5717  0.1259  0.4181
63259SOL    HW1 1756   1.047   7.700   3.181  0.5186 -0.7003 -1.2616
63259SOL    HW2 1757   1.059   7.794   3.062 -1.1449  0.4102 -0.5829
63260SOL     OW 1758  11.272   0.984  11.211 -0.0786  0.2114 -0.0090
63260SOL    HW1 1759  11.191   1.014  11.252 -1.3635 -2.9383 -0.0012
63260SOL    HW2 1760  11.337   0.985  11.282 -0.1137  2.4057  0.0657
63261SOL     OW 1761   7.819   2.041   5.984 -0.0035  0.2684  0.0214
63261SOL    HW1 1762   7.898   2.070   6.029  0.7144 -0.1472 -0.9481
63261SOL    HW2 1763   7.766   2.001   6.052 -0.1066  1.9710  0.9992
63262SOL     OW 1764   1.001   3.465   6.036 -0.6064 -0.5932  0.1371
63262SOL    HW1 1765   1.067   3.527   6.005  0.2594 -0.4541  2.1129
63262SOL    HW2 1766   0.940   3.456   5.962 -0.0766  1.6338 -0.6563
63263SOL     OW 1767   2.849   3.782   1.627 -0.7737  0.1232  0.3432
63263SOL    HW1 1768   2.771   3.820   1.587 -0.3830  0.8788  0.2666
63263SOL    HW2 1769   2.836   3.790   1.721 -1.5229 -1.2995  0.3799
63264SOL     OW 1770  11.703   8.703   1.384  0.1237 -0.6384  0.0956
63264SOL    HW1 1771  11.733   8.779   1.334 -0.3740 -0.4620  0.0625
63264SOL    HW2 1772  11.677   8.639   1.318 -1.2492 -0.1219  0.1219
63265SOL     OW 1773   5.155   3.083  12.195  0.1315 -0.0930  0.4109
63265SOL    HW1 1774   5.064   3.057  12.210  0.3208 -0.3131  1.2468
63265SOL    HW2 1775   5.153   3.179  12.196 -0.7722  0.1371 -3.9008
63266SOL     OW 1776  13.967  11.231  10.069  0.3374  0.5498 -0.0872
63266SOL    HW1 1777  13.883  11.190  10.090  0.3524  0.6640  0.2010
63266SOL    HW2 1778  13.945  11.309  10.018  0.3870 -0.8140 -2.3289
63267SOL     OW 1779   6.811   7.687  10.283 -0.7365  0.2694  0.4087
63267SOL    HW1 1780   6.824   7.704  10.377 -0.8037  1.7430  0.1719
63267SOL    HW2 1781   6.717   7.700  10.270 -0.5828  0.9919 -0.0261
63268SOL     OW 1782   9.506   2.222   0.187  0.0479 -0.5993  0.0159
63268SOL    HW1 1783   9.460   2.306   0.183 -0.3113 -0.7734  0.3888
63268SOL    HW2 1784   9.491   2.183   0.101 -0.2473 -0.5210  0.0294
63269SOL     OW 1785   4.162   3.790   3.226 -0.5243 -0.0914  0.1109
63269SOL    HW1 1786   4.110   3.720   3.185  0.8811 -0.0292 -1.8880
63269SOL    HW2 1787   4.103   3.865   3.226 -0.5494 -0.0661 -1.9616
63270SOL     OW 1788   6.365  14.007   9.782  0.8607 -0.1831 -0.0373
63270SOL    HW1 1789   6.416  13.980   9.706  1.0940  0.9685 -0.3121
63270SOL    HW2 1790   6.429  14.016   9.853  0.7703 -0.4265  0.0780
63271SOL     OW 1791  10.080   8.087   9.318 -0.2063 -0.1041 -0.6785
63271SOL    HW1 1792  10.068   8.097   9.224  0.0910 -0.9182 -0.8052
63271SOL    HW2 1793  10.070   8.176   9.353  0.7213  0.3627 -1.5880
63272SOL     OW 1794   5.358  12.591   8.222 -0.0520  0.0706  0.1911
63272SOL    HW1 1795   5.444  12.574   8.260 -0.8895  0.2027  2.2768
63272SOL    HW2 1796   5.334  12.678   8.255 -1.7548 -0.7497  1.2217
63273SOL     OW 1797  13.478  13.239   0.093  0.0872  0.2607 -0.0689
63273SOL    HW1 1798  13.452  13.170   0.032  0.9898  0.5926 -0.8432
63273SOL    HW2 1799  13.474  13.197   0.179 -0.3442 -0.4584 -0.4303
63274SOL     OW 1800  13.255   9.876   3.620 -0.1795  0.4506  0.3213
63274SOL    HW1 1801  13.338   9.914   3.589 -0.3758 -0.0486 -0.8652
63274SOL    HW2 1802  13.232   9.929   3.696 -0.8182  3.2846 -1.6730
63275SOL     OW 1803  10.129  13.343   0.527 -0.4091  0.2216 -0.1736
63275SOL    HW1 1804  10.219  13.324   0.500 -0.1887 -0.5524  0.9936
63275SOL    HW2 1805  10.139  13.400   0.603 -0.9760  1.4337 -0.9734
63276SOL     OW 1806  11.005   4.812   0.766 -0.2317  0.0316  0.2208
63276SOL    HW1 1807  10.986   4.812   0.860 -1.6043 -1.4986 -0.0198
63276SOL    HW2 1808  10.920   4.819   0.724  0.2058 -1.1114 -0.9050
63277SOL     OW 1809  11.093   4.711  11.213 -0.3318  0.2434 -0.7625
63277SOL    HW1 1810  11.156   4.684  11.280  0.5037  0.2743 -1.5058
63277SOL    HW2 1811  11.112   4.655  11.138 -0.8405  0.6126 -1.1813
63278SOL     OW 1812   0.480   6.024  10.252 -0.2665  0.2265 -0.5051
63278SOL    HW1 1813   0.562   6.006  10.207 -0.6071  0.1565 -1.1258
63278SOL    HW2 1814   0.464   6.117  10.237 -0.1970  0.2894 -0.2003
63279SOL     OW 1815   2.812   6.354   7.903  0.5191 -0.2858 -0.0452
63279SOL    HW1 1816   2.849   6.343   7.990 -0.8723  0.3459  0.6610
63279SOL    HW2 1817   2.718   6.339   7.914  0.7351 -5.4365 -2.3979
63280SOL     OW 1818   6.420   9.732   9.373  0.3398  0.1117  0.1846
63280SOL    HW1 1819   6.411   9.696   9.285 -1.7700 -1.7176  1.0383
63280SOL    HW2 1820   6.381   9.819   9.369 -1.1008 -0.5335 -0.4087
63281SOL     OW 1821   2.045   6.340   6.709 -0.4126  0.2749  0.2676
63281SOL    HW1 1822   1.988   6.381   6.774 -1.8606 -1.2183 -0.0173
63281SOL    HW2 1823   1.998   6.348   6.627  0.0790 -0.4148 -0.0934
63282SOL     OW 1824   8.893   9.638  12.434  0.1091  0.5187  0.2165
63282SOL    HW1 1825   8.974   9.680  12.405 -0.2449  2.1689  1.4151
63282SOL    HW2 1826   8.918   9.590  12.513 -0.2518  2.0525  1.3156
63283SOL     OW 1827   4.715  11.294   3.108  0.3728 -0.0355 -0.2985
63283SOL    HW1 1828   4.765  11.340   3.040  1.5481  1.0554  1.2414
63283SOL    HW2 1829   4.728  11.201   3.089  0.4797  0.2467 -1.6881
63284SOL     OW 1830  10.309  10.467  13.087  0.3291  0.8057 -0.3149
63284SOL    HW1 1831  10.322  10.483  12.994  0.7234 -0.7057 -0.5467
63284SOL    HW2 1832  10.289  10.553  13.124 -0.0185  1.3926 -1.8156
63285SOL     OW 1833  11.266   2.014   0.016 -0.0194 -0.1442  0.2420
63285SOL    HW1 1834  11.314   2.092   0.043 -0.4816  0.8650 -1.6882
63285SOL    HW2 1835  11.330   1.960  -0.029 -0.2237  0.2409 -0.5174
63286SOL     OW 1836   3.686   9.044   1.792 -0.1556 -0.0160 -0.0354
63286SOL    HW1 1837   3.748   9.111   1.821 -0.4617  0.6991 -0.9755
63286SOL    HW2 1838   3.601   9.079   1.817 -0.2662 -0.4496  0.2001
63287SOL     OW 1839   4.856   4.033   1.807 -0.8029  0.4283  0.0771
63287SOL    HW1 1840   4.896   3.983   1.878 -0.8071  0.0818 -0.1616
63287SOL    HW2 1841   4.791   4.088   1.850 -1.7246 -0.7220  0.2026
63288SOL     OW 1842   3.179   4.956   0.637  0.5111 -0.0770 -0.7637
63288SOL    HW1 1843   3.148   4.987   0.552  1.6801 -0.7262 -1.4528
63288SOL    HW2 1844   3.144   4.867   0.644  1.1110 -0.3306 -0.9525
63289SOL     OW 1845   3.109   0.973  10.801 -1.1815  0.6290 -0.1106
63289SOL    HW1 1846   3.049   1.037  10.838 -1.8466  1.3877 -2.3146
63289SOL    HW2 1847   3.186   1.024  10.776  0.1986 -0.2319  2.1061
63290SOL     OW 1848   4.504   2.893   2.318 -0.4031 -0.0848  0.5079
63290SOL    HW1 1849   4.497   2.799   2.335  1.1922  0.0805  2.4083
63290SOL    HW2 1850   4.559   2.926   2.389  2.0045  1.7047 -1.9796
63291SOL     OW 1851   2.157  13.998   1.873 -0.0675  0.0046 -0.4542
63291SOL    HW1 1852   2.218  14.042   1.932  2.2739 -2.5374 -0.7682
63291SOL    HW2 1853   2.208  13.980   1.795 -1.3213 -1.8764 -0.9005
63292SOL     OW 1854  13.162  11.020   0.873  0.1591  0.2695  0.0498
63292SOL    HW1 1855  13.232  11.008   0.809  0.5827  0.3575  0.4912
63292SOL    HW2 1856  13.197  11.083   0.936  0.3948 -1.0599  1.2932
63293SOL     OW 1857   5.605   6.128  12.889 -0.2588  0.0711 -0.1406
63293SOL    HW1 1858   5.568   6.204  12.843 -0.0816 -0.1070 -0.5733
63293SOL    HW2 1859   5.699   6.141  12.885 -0.2522  0.3896  0.7388
63294SOL     OW 1860  11.796   7.052   5.127 -0.0179 -0.2948 -0.3109
63294SOL    HW1 1861  11.721   7.036   5.184  0.5675  1.7987  1.1977
63294SOL    HW2 1862  11.793   6.982   5.062 -0.8309 -2.7336  2.1564
63295SOL     OW 1863   8.722  11.923   4.666  0.0394 -0.9252 -0.7759
63295SOL    HW1 1864   8.746  11.967   4.585 -0.2246 -1.6107 -1.2420
63295SOL    HW2 1865   8.792  11.858   4.680 -0.6057 -1.7348 -1.1994
63296SOL     OW 1866  11.106  13.075  11.216 -0.2732  0.3568 -0.3024
63296SOL    HW1 1867  11.087  13.150  11.272 -0.5685 -0.4258  0.6763
63296SOL    HW2 1868  11.182  13.102  11.165 -0.5160  1.3985 -0.1491
63297SOL     OW 1869   3.863   3.323   2.170  0.2983 -0.0291 -0.0077
63297SOL    HW1 1870   3.822   3.333   2.255  0.8617 -0.2087  0.2872
63297SOL    HW2 1871   3.810   3.257   2.125  1.8910 -2.4301  1.4328
63298SOL     OW 1872   0.604   2.773   0.817 -0.4900 -0.3367  0.1559
63298SOL    HW1 1873   0.579   2.820   0.897  0.0303  0.1848  0.0277
63298SOL    HW2 1874   0.527   2.778   0.761 -0.9135 -0.8459  0.6857
63299SOL     OW 1875   7.696   5.202  10.817  0.1740 -0.0059 -0.3527
63299SOL    HW1 1876   7.767   5.173  10.759  1.6980 -0.0099  1.4275
63299SOL    HW2 1877   7.736   5.271  10.870 -1.5005  0.7667 -0.0546
63300SOL     OW 1878   1.949   6.106   6.528  0.0173 -0.3122 -0.0514
63300SOL    HW1 1879   1.884   6.122   6.597  0.0871 -1.4979  0.3198
63300SOL    HW2 1880   1.898   6.068   6.456 -0.0347  0.8046 -0.6322
63301SOL     OW 1881   8.920   7.291  11.337 -0.1898 -0.6544 -0.0027
63301SOL    HW1 1882   9.009   7.282  11.371 -0.6155 -1.2938  1.0163
63301SOL    HW2 1883   8.911   7.220  11.273  0.0607 -0.5340 -0.1722
63302SOL     OW 1884   2.394  11.771   0.005  0.2665 -0.2467 -0.4276
63302SOL    HW1 1885   2.322  11.712  -0.018 -0.4052  0.7966 -1.0360
63302SOL    HW2 1886   2.423  11.808  -0.078 -0.2271  1.3098  0.0531
63303SOL     OW 1887   4.146   1.450  12.763  0.4519  0.8161 -0.2409
63303SOL    HW1 1888   4.170   1.381  12.702  0.8648 -0.0628  0.8738
63303SOL    HW2 1889   4.228   1.472  12.808  0.1998  1.5842 -0.1456
63304SOL     OW 1890   7.793   5.158   8.251 -0.1372  0.2604  0.5473
63304SOL    HW1 1891   7.742   5.216   8.308  2.3347  2.0389  1.1142
63304SOL    HW2 1892   7.856   5.116   8.310  0.3492 -0.4019 -0.4093
63305SOL     OW 1893   8.868   5.541   9.831 -0.0129  0.0107 -0.4560
63305SOL    HW1 1894   8.867   5.544   9.736 -0.8079 -0.4793 -0.4754
63305SOL    HW2 1895   8.940   5.482   9.852  0.6928  0.7651 -0.7190
63306SOL     OW 1896  10.878  12.586   2.737 -0.3682  0.1699 -0.4269
63306SOL    HW1 1897  10.946  12.580   2.805 -0.6206 -1.3420 -0.2871
63306SOL    HW2 1898  10.798  12.556   2.780 -0.3603 -1.6423 -1.6127
63307SOL     OW 1899   6.419   8.070   3.674 -0.1903 -0.1661  0.2658
63307SOL    HW1 1900   6.431   8.156   3.634 -1.4338  0.1401  0.5310
63307SOL    HW2 1901   6.404   8.011   3.600 -0.1564 -0.0198  0.1414
63308SOL     OW 1902   1.013   1.982  10.651 -0.6344 -0.4106 -0.2404
63308SOL    HW1 1903   0.992   2.065  10.693 -0.0692  0.6993 -2.0529
63308SOL    HW2 1904   1.078   1.942  10.709 -0.5486  0.6335  0.4118
63309SOL     OW 1905   6.572  11.204   9.223  0.2366 -0.4921 -0.5132
63309SOL    HW1 1906   6.479  11.202   9.203 -0.0652  0.7279  0.5880
63309SOL    HW2 1907   6.611  11.253   9.150 -0.1641 -0.0336 -0.4266
63310SOL     OW 1908   5.322   5.811   7.322 -0.1829  0.2480 -0.0486
63310SOL    HW1 1909   5.350   5.901   7.340  0.4789 -0.2041  1.3165
63310SOL    HW2 1910   5.393   5.757   7.357 -1.1672 -0.8372  0.3124
63311SOL     OW 1911   7.338   1.581   8.078 -0.1803  0.7212  0.3337
63311SOL    HW1 1912   7.279   1.627   8.139 -1.6493  0.3736 -0.7835
63311SOL    HW2 1913   7.289   1.505   8.049  1.5680 -0.6555  0.8021
63312SOL     OW 1914   7.129  13.795  10.143  0.5368 -0.8207 -0.5606
63312SOL    HW1 1915   7.083  13.874  10.172 -0.3957 -0.6836 -2.2972
63312SOL    HW2 1916   7.092  13.724  10.195 -1.5612 -0.6819 -1.7626
63313SOL     OW 1917  10.113  12.934   3.666 -0.3589  0.0009  0.3005
63313SOL    HW1 1918  10.204  12.937   3.636  0.1626  1.1680  1.8619
63313SOL    HW2 1919  10.062  12.972   3.594  0.6774  1.5371  0.3312
63314SOL     OW 1920   4.925   0.117   6.706 -0.3533 -0.0145 -0.1240
63314SOL    HW1 1921   5.003   0.136   6.655  0.5170 -1.1362  0.7376
63314SOL    HW2 1922   4.902   0.200   6.747 -0.9767  0.8775 -2.1413
63315SOL     OW 1923   0.290   4.780   8.717  0.3879 -0.0888 -0.0171
63315SOL    HW1 1924   0.247   4.789   8.632  1.9200 -0.4264 -0.8701
63315SOL    HW2 1925   0.354   4.852   8.719 -0.7480  0.9236  1.5808
63316SOL     OW 1926  13.230   3.920   2.126 -0.0506  0.7712  0.3078
63316SOL    HW1 1927  13.229   3.857   2.198 -2.1314  2.2654  1.7094
63316SOL    HW2 1928  13.278   3.996   2.160 -0.5753  1.2754 -0.0471
63317SOL     OW 1929   2.731  13.108   3.611  0.1769  0.0615  0.8430
63317SOL    HW1 1930   2.665  13.119   3.543  0.6929  0.2236  0.3603
63317SOL    HW2 1931   2.696  13.156   3.686 -0.4955 -0.3031  0.7700
63318SOL     OW 1932   8.609   9.094   6.350 -0.0833  0.0072 -0.2780
63318SOL    HW1 1933   8.548   9.075   6.421 -0.4620  0.1110 -0.5737
63318SOL    HW2 1934   8.592   9.185   6.327 -1.2393 -0.5351 -1.7234
63319SOL     OW 1935   6.869   6.819  12.994 -0.3867 -0.2600 -0.1700
63319SOL    HW1 1936   6.912   6.765  13.061 -1.4725 -0.5375  0.3297
63319SOL    HW2 1937   6.877   6.768  12.913 -2.4337 -1.8249  0.5120
63320SOL     OW 1938   4.814  11.589   7.961  0.0573 -0.1278 -0.0620
63320SOL    HW1 1939   4.894  11.639   7.945  0.0740 -0.7728 -2.3962
63320SOL    HW2 1940   4.844  11.510   8.006  0.6400 -0.0311 -0.2666
63321SOL     OW 1941  10.989   6.916   3.909  0.0924  0.5104  0.0369
63321SOL    HW1 1942  11.067   6.861   3.909  0.1713  0.6155 -0.2851
63321SOL    HW2 1943  10.922   6.865   3.954  0.4361  0.5512  0.5921
63322SOL     OW 1944  13.319  11.740   4.203 -0.1049 -0.0817 -0.6080
63322SOL    HW1 1945  13.352  11.789   4.128 -0.4759 -0.3446 -0.9508
63322SOL    HW2 1946  13.307  11.806   4.271  0.8014  0.0642 -0.5801
63323SOL     OW 1947   9.376   1.368   0.254  0.0876  0.4258  0.4410
63323SOL    HW1 1948   9.391   1.293   0.311  3.5944  1.9616  1.8377
63323SOL    HW2 1949   9.347   1.438   0.313  0.0405  1.0427 -0.2884
63324SOL     OW 1950   2.788   3.651  13.777  0.0784  0.0508 -0.0180
63324SOL    HW1 1951   2.760   3.739  13.754 -1.6176 -0.3360  0.4552
63324SOL    HW2 1952   2.715   3.595  13.753  1.1002 -1.2362 -0.2458
63325SOL     OW 1953   5.463   1.132   1.043 -0.5179 -0.3256  0.1061
63325SOL    HW1 1954   5.419   1.189   1.106  0.3547 -0.0617  0.4772
63325SOL    HW2 1955   5.489   1.191   0.972 -2.3781 -0.7646 -1.0274
63326SOL     OW 1956   7.071   8.835   6.736 -0.2815 -0.2233 -0.5350
63326SOL    HW1 1957   7.079   8.813   6.829 -0.4710  0.5464 -0.3247
63326SOL    HW2 1958   6.995   8.787   6.706 -1.4487  1.0666  0.2240
63327SOL     OW 1959   1.965  12.090  13.801  0.4893 -0.0996  0.0759
63327SOL    HW1 1960   1.878  12.076  13.839  1.2167  1.2095  2.3800
63327SOL    HW2 1961   2.004  12.160  13.854  2.6282 -0.0332 -1.4547
63328SOL     OW 1962   8.197  11.267  11.761 -0.4303 -0.0700 -0.1256
63328SOL    HW1 1963   8.165  11.344  11.714  0.1337 -0.0642 -0.5090
63328SOL    HW2 1964   8.274  11.240  11.712 -0.6870 -0.9480 -0.0600
63329SOL     OW 1965  10.357   9.855  11.787  0.0769  0.0303  0.3077
63329SOL    HW1 1966  10.339   9.761  11.787  1.3946 -0.2562  0.6605
63329SOL    HW2 1967  10.286   9.893  11.838  1.3997 -1.2612  3.4605
63330SOL     OW 1968  11.180  13.977  10.792 -0.1244 -0.3491  0.5811
63330SOL    HW1 1969  11.203  14.005  10.880  0.2727 -0.4536  0.5116
63330SOL    HW2 1970  11.138  14.053  10.753  0.0823 -0.1667  0.7170
63331SOL     OW 1971   8.121  10.928  11.773  0.3020  0.0947  0.0523
63331SOL    HW1 1972   8.091  10.989  11.841  0.8236  1.4423 -0.8850
63331SOL    HW2 1973   8.079  10.959  11.693  2.9269  1.1279 -1.0139
63332SOL     OW 1974   6.114   2.290  12.127 -0.1059  0.4487 -0.3198
63332SOL    HW1 1975   6.030   2.244  12.136 -0.0123  0.6535  3.4808
63332SOL    HW2 1976   6.090   2.382  12.115 -0.4410  0.4368  0.2172
63333SOL     OW 1977   2.500  11.408   1.805  0.1426  0.0594 -0.3142
63333SOL    HW1 1978   2.536  11.321   1.823 -2.8396 -1.3586 -0.7633
63333SOL    HW2 1979   2.492  11.449   1.891  0.9416 -0.3369 -0.0397
63334SOL     OW 1980  11.234  11.597   2.873  0.4191  0.1987 -0.1229
63334SOL    HW1 1981  11.228  11.525   2.810 -0.5495  0.3166 -0.1805
63334SOL    HW2 1982  11.269  11.670   2.822  2.0492 -0.3898  0.0912
63335SOL     OW 1983   8.511  13.472   0.944 -0.2694  0.3781 -0.1410
63335SOL    HW1 1984   8.434  13.438   0.897  0.3733  0.9216 -1.6337
63335SOL    HW2 1985   8.478  13.490   1.032 -1.2027 -1.8702  0.0618
63336SOL     OW 1986   7.843   6.200   6.789 -0.1356  0.4336 -0.0066
63336SOL    HW1 1987   7.886   6.271   6.837 -2.0684  2.0111 -0.5100
63336SOL    HW2 1988   7.754   6.197   6.824 -0.1330 -1.7579 -0.0346
63337SOL     OW 1989  13.173   3.463   4.647  0.2525 -0.0783  0.4004
63337SOL    HW1 1990  13.124   3.396   4.695  0.8802 -0.2806  0.7791
63337SOL    HW2 1991  13.112   3.496   4.581  0.2998 -1.9355 -0.6625
63338SOL     OW 1992  11.535  11.215   5.565 -0.5730  0.0421  0.0541
63338SOL    HW1 1993  11.503  11.237   5.653  0.7039 -0.3296  0.6337
63338SOL    HW2 1994  11.629  11.230   5.569 -0.5695  0.5391 -1.4327
63339SOL     OW 1995   9.312   4.750   6.996 -0.2884  0.4534  0.4058
63339SOL    HW1 1996   9.236   4.801   7.023  0.0583  0.5882  1.1608
63339SOL    HW2 1997   9.384   4.814   6.993  0.0970  0.0762  1.1213
63340SOL     OW 1998   8.375  10.205   4.725  0.4925 -0.0978 -0.4634
63340SOL    HW1 1999   8.389  10.298   4.709 -1.7927 -0.0335 -2.8481
63340SOL    HW2 2000   8.307  10.202   4.792  1.4171 -0.1064  0.4909
63341SOL     OW 2001  10.592   4.776  10.842 -0.0131  0.2092 -0.8914
63341SOL    HW1 2002  10.586   4.819  10.756 -1.5019 -0.6151 -1.2282
63341SOL    HW2 2003  10.531   4.703  10.837 -0.0088  0.0411  0.8293
63342SOL     OW 2004  13.590   3.150   0.686  0.1791 -1.0359  0.0181
63342SOL    HW1 2005  13.632   3.199   0.756 -0.5874 -0.0517 -0.1773
63342SOL    HW2 2006  13.641   3.171   0.608  0.7228 -1.7234  0.1768
63343SOL     OW 2007  11.455  11.521  11.058 -0.5857 -0.3369 -0.3866
63343SOL    HW1 2008  11.532  11.466  11.043 -0.7500 -0.4436 -0.8518
63343SOL    HW2 2009  11.426  11.547  10.971 -1.7553 -1.2347 -0.3044
63344SOL     OW 2010  11.708   6.057   7.029 -0.0814  0.1277 -0.3273
63344SOL    HW1 2011  11.687   6.076   7.121  0.5213 -1.5625  0.1932
63344SOL    HW2 2012  11.764   6.129   7.002 -0.1843  0.6018  0.6661
63345SOL     OW 2013  10.886   9.864  10.858 -0.3463 -0.7440  0.0220
63345SOL    HW1 2014  10.952   9.864  10.928  1.5512 -0.7522 -1.6465
63345SOL    HW2 2015  10.902   9.945  10.810 -1.7113 -0.6533 -0.3118
63346SOL     OW 2016  13.869   9.033   9.652 -0.4429 -0.1803 -0.4066
63346SOL    HW1 2017  13.815   9.013   9.729  0.2513 -1.1617 -0.1539
63346SOL    HW2 2018  13.841   9.121   9.626 -0.9140  0.0514  0.7742
63347SOL     OW 2019  13.762  10.981   5.443 -0.3146 -0.1570 -0.1641
63347SOL    HW1 2020  13.846  10.948   5.473 -1.2900 -2.3941  0.2555
63347SOL    HW2 2021  13.752  11.065   5.488  1.1912 -0.3710  0.6274
63348SOL     OW 2022  12.306  10.270   2.419  0.0050 -0.1638  0.5140
63348SOL    HW1 2023  12.259  10.270   2.336 -0.4227 -0.9385  0.7511
63348SOL    HW2 2024  12.388  10.224   2.400  0.7122  1.1857  0.1015
63349SOL     OW 2025   2.898   5.545   8.362 -0.4188 -0.2913  0.2417
63349SOL    HW1 2026   2.804   5.523   8.360 -1.0410  2.0818 -1.5793
63349SOL    HW2 2027   2.942   5.461   8.346 -2.2490 -1.3695  0.4764
63350SOL     OW 2028   2.987  13.667   6.935 -0.1585 -0.1892 -0.3709
63350SOL    HW1 2029   2.995  13.698   7.025 -0.5456  0.0618 -0.4230
63350SOL    HW2 2030   2.893  13.666   6.918 -0.1133 -0.7002 -0.6115
63351SOL     OW 2031  13.454   5.002   2.041 -0.5050 -0.0393  0.1329
63351SOL    HW1 2032  13.471   4.990   1.948  0.1993  1.4063  0.0468
63351SOL    HW2 2033  13.360   5.023   2.046 -0.1305  1.9189 -0.4946
63352SOL     OW 2034  11.736   1.404   7.945  0.1166  0.3514 -0.2234
63352SOL    HW1 2035  11.743   1.332   7.882 -1.9545 -1.6211  1.6299
63352SOL    HW2 2036  11.665   1.458   7.911  0.6218  0.6785 -0.7915
63353SOL     OW 2037   4.274   1.405   0.448  0.1936 -0.7973 -0.2355
63353SOL    HW1 2038   4.232   1.367   0.525 -0.8024  0.9906  0.1765
63353SOL    HW2 2039   4.367   1.388   0.461  0.1973  0.4692  2.0333
63354SOL     OW 2040   0.480   4.608   5.273  0.2148 -0.1927 -0.0946
63354SOL    HW1 2041   0.401   4.557   5.256  0.6448 -0.5478 -1.0850
63354SOL    HW2 2042   0.540   4.583   5.204  0.2280  2.1067 -1.0084
63355SOL     OW 2043   0.060   2.221  13.105  0.1228  0.6956  0.3696
63355SOL    HW1 2044   0.123   2.148  13.102 -0.9551 -0.3019  1.2683
63355SOL    HW2 2045   0.034   2.226  13.197 -2.4045 -0.0745 -0.2352
63356SOL     OW 2046   4.617   9.231   0.627  0.3124  0.2132 -0.0914
63356SOL    HW1 2047   4.594   9.139   0.611  0.4291  0.2249 -0.3311
63356SOL    HW2 2048   4.539   9.280   0.601  0.9329  0.3324 -1.8648
63357SOL     OW 2049   2.174  13.569   6.771 -0.0470 -0.0085  0.2732
63357SOL    HW1 2050   2.090  13.586   6.729  0.1583  0.8064  0.1814
63357SOL    HW2 2051   2.187  13.642   6.831 -0.4552 -1.2760  1.9788
63358SOL     OW 2052   4.670  12.909  11.633  0.1385 -0.1366 -0.6263
63358SOL    HW1 2053   4.620  12.910  11.715 -0.0909 -0.6338 -0.7605
63358SOL    HW2 2054   4.609  12.877  11.568 -0.2751  2.0451 -1.3859
63359SOL     OW 2055  11.399  12.760  10.722 -0.5901 -0.2479  0.0941
63359SOL    HW1 2056  11.445  12.695  10.775  0.7587  0.3519 -0.3099
63359SOL    HW2 2057  11.468  12.809  10.678 -1.6204  0.6994 -0.5233
63360SOL     OW 2058  13.370   3.397  11.669 -0.1807 -0.4933 -0.0483
63360SOL    HW1 2059  13.354   3.390  11.575 -2.1163 -1.2984  0.2814
63360SOL    HW2 2060  13.284   3.382  11.709  0.4335  0.5994  1.8318
63361SOL     OW 2061   2.068   6.390  10.729 -0.1981 -0.4105 -0.1235
63361SOL    HW1 2062   1.982   6.402  10.770  0.3570 -0.2274  1.0488
63361SOL    HW2 2063   2.130   6.423  10.795  0.9117 -2.5754 -0.0033
63362SOL     OW 2064  12.956  11.423  13.294 -0.3326 -0.0731  0.0206
63362SOL    HW1 2065  12.910  11.507  13.282  0.6927  0.5592  0.3836
63362SOL    HW2 2066  12.999  11.407  13.210 -0.0754  0.0511  0.1281
63363SOL     OW 2067   5.469   2.777   0.300  0.1148  0.3818 -0.4777
63363SOL    HW1 2068   5.417   2.708   0.259 -1.5862  1.3523 -0.0600
63363SOL    HW2 2069   5.495   2.833   0.228 -1.5788  1.2512 -0.4595
63364SOL     OW 2070   4.082   4.953   1.194 -0.5615 -0.4584  0.1129
63364SOL    HW1 2071   4.160   4.902   1.218  0.5461  0.3845 -1.5184
63364SOL    HW2 2072   4.082   5.025   1.257 -0.1400 -0.5683  0.2503
63365SOL     OW 2073   6.340  10.007   0.419  0.3642 -0.2071 -0.7869
63365SOL    HW1 2074   6.351   9.946   0.346  1.4792 -1.5513  0.4310
63365SOL    HW2 2075   6.306   9.953   0.491  1.9176  0.4171  0.4944
63366SOL     OW 2076   0.590   8.120   2.939  0.1706  0.2402  0.3739
63366SOL    HW1 2077   0.661   8.110   2.876 -0.1749 -1.3872  0.1820
63366SOL    HW2 2078   0.630   8.093   3.023 -0.2346 -0.8831  0.2290
63367SOL     OW 2079   9.525  11.876   8.145 -0.4845  0.7157  0.0237
63367SOL    HW1 2080   9.596  11.819   8.117 -0.4801  1.0790 -0.7229
63367SOL    HW2 2081   9.469  11.886   8.068 -2.1395 -0.6866  0.9785
63368SOL     OW 2082   2.142   5.006   9.303  0.1395  0.3173  0.2593
63368SOL    HW1 2083   2.061   5.053   9.321  0.2098  0.2132  0.8455
63368SOL    HW2 2084   2.118   4.914   9.306  0.4208  0.2612  1.1715
63369SOL     OW 2085   3.251  10.470   7.023  0.3917 -0.3081 -0.4001
63369SOL    HW1 2086   3.246  10.539   7.089 -0.0549 -0.8503  0.1475
63369SOL    HW2 2087   3.161  10.441   7.012  0.5581 -0.7059 -0.7303
63370SOL     OW 2088   5.579   1.048   7.554  0.1163 -0.4370 -0.2089
63370SOL    HW1 2089   5.626   1.123   7.591  0.1878 -0.1448 -0.8872
63370SOL    HW2 2090   5.599   1.051   7.460 -1.5651 -0.0994 -0.5787
63371SOL     OW 2091   0.443   8.618   9.450 -0.1069 -0.0752  0.1541
63371SOL    HW1 2092   0.349   8.626   9.436 -0.2881 -1.2706  0.5740
63371SOL    HW2 2093   0.471   8.706   9.476 -1.1860  0.1723  0.5236
63372SOL     OW 2094   0.701   0.050  11.636  0.0759  0.3890  0.0176
63372SOL    HW1 2095   0.741   0.132  11.605  0.2271  0.2139 -0.2549
63372SOL    HW2 2096   0.771   0.007  11.685  0.7275 -0.6182 -1.7002
63373SOL     OW 2097   2.299   9.756   4.963  0.0172  0.1578  0.2244
63373SOL    HW1 2098   2.292   9.724   4.872 -1.1251  2.6114 -0.6330
63373SOL    HW2 2099   2.231   9.823   4.970  0.0140 -0.0186  2.9669
63374SOL     OW 2100   5.665   2.042   2.756 -0.1177  0.2553  0.9577
63374SOL    HW1 2101   5.622   2.120   2.790 -2.3134  0.2152 -1.3757
63374SOL    HW2 2102   5.694   2.067   2.668  0.4549 -1.1204  0.7199
63375SOL     OW 2103   9.770   7.803   2.912 -0.2249  0.1260 -0.3640
63375SOL    HW1 2104   9.692   7.844   2.950  0.8950  2.3360 -0.3383
63375SOL    HW2 2105   9.798   7.740   2.978 -0.8360  0.7490  0.5159
63376SOL     OW 2106  13.002  11.094  11.869  0.1068 -0.0344  0.3418
63376SOL    HW1 2107  12.928  11.064  11.815 -0.5375  0.2986  1.0185
63376SOL    HW2 2108  13.040  11.166  11.820 -0.3332  0.1206  0.2257
63377SOL     OW 2109   2.359  11.070   8.130  0.3010  0.0331 -0.6994
63377SOL    HW1 2110   2.373  11.009   8.057  2.6952 -1.0750  0.5489
63377SOL    HW2 2111   2.376  11.017   8.208  1.2034  1.9699  0.4967
63378SOL     OW 2112   8.226   0.941   8.234 -0.0566  0.2263 -0.3751
63378SOL    HW1 2113   8.206   1.027   8.272  1.6420  0.1690  0.7814
63378SOL    HW2 2114   8.311   0.954   8.190 -0.0393 -0.7388 -0.6371
63379SOL     OW 2115   3.669   3.698   0.693  0.1856 -0.1690 -0.1464
63379SOL    HW1 2116   3.750   3.685   0.743 -0.4054 -1.9873  0.3908
63379SOL    HW2 2117   3.686   3.778   0.643  2.3280 -0.4945 -0.0644
63380SOL     OW 2118   7.501  13.707   7.374  0.0445  0.1002  0.4264
63380SOL    HW1 2119   7.409  13.693   7.397  0.2581 -0.5811  0.9189
63380SOL    HW2 2120   7.499  13.773   7.305 -0.6785  1.5256  1.7640
63381SOL     OW 2121   0.244   9.618   8.103 -0.0088 -0.4912 -0.5860
63381SOL    HW1 2122   0.288   9.693   8.144 -1.9705  0.0385  0.7088
63381SOL    HW2 2123   0.314   9.568   8.063  1.4358  1.8212 -1.1515
63382SOL     OW 2124   3.561   7.157   8.701  0.0736 -0.3670  0.5026
63382SOL    HW1 2125   3.471   7.187   8.690  0.9892  2.0735 -1.1250
63382SOL    HW2 2126   3.561   7.114   8.787 -2.2662  1.0013  1.3043
63383SOL     OW 2127   2.259   7.940  10.908 -0.1103  0.0836  0.4715
63383SOL    HW1 2128   2.193   7.870  10.903 -0.8494  0.8175 -0.3191
63383SOL    HW2 2129   2.213   8.013  10.950  0.1263  0.6895 -0.3149
63384SOL     OW 2130  11.319   6.037   1.246 -0.0708  0.0550  0.3203
63384SOL    HW1 2131  11.225   6.036   1.228 -0.0755 -1.5625  0.2669
63384SOL    HW2 2132  11.325   6.051   1.341 -0.3917 -0.3336  0.4008
63385SOL     OW 2133   3.239   8.932  10.916 -0.2340 -0.5113 -0.2501
63385SOL    HW1 2134   3.308   8.998  10.912  0.2592 -0.9972  0.0793
63385SOL    HW2 2135   3.218   8.925  11.009 -0.7979 -0.3029 -0.3544
63386SOL     OW 2136   2.318  10.822   9.957  0.3579 -0.0166 -0.0796
63386SOL    HW1 2137   2.265  10.745   9.974  2.3732 -1.2966  0.7667
63386SOL    HW2 2138   2.332  10.861  10.043  1.1401  0.0419 -0.2274
63387SOL     OW 2139  13.515   8.510  13.070  0.5382 -0.3682 -0.1614
63387SOL    HW1 2140  13.439   8.479  13.120  0.4031  0.4238  0.1433
63387SOL    HW2 2141  13.526   8.445  13.001 -0.0091 -0.8484  0.1922
63388SOL     OW 2142   4.704   8.590   8.080  0.1756  0.0912  0.3314
63388SOL    HW1 2143   4.770   8.566   8.145 -0.1829  0.2610  0.7658
63388SOL    HW2 2144   4.650   8.512   8.071  0.7367 -0.2269 -0.4131
63389SOL     OW 2145  13.298  11.310  10.060 -1.0039  0.1179  0.2558
63389SOL    HW1 2146  13.364  11.378  10.045 -2.4371  1.6559  0.6664
63389SOL    HW2 2147  13.336  11.231  10.021  1.5775  0.6411  1.4501
63390SOL     OW 2148   3.442   0.839  10.636  0.2523 -0.2779  0.1821
63390SOL    HW1 2149   3.486   0.907  10.687 -1.3011 -0.3906  1.7972
63390SOL    HW2 2150   3.511   0.800  10.583  1.5327  1.3251  0.5903
63391SOL     OW 2151   0.558  13.534  10.644  0.0882 -0.3330 -0.0816
63391SOL    HW1 2152   0.492  13.492  10.589 -1.1918  1.8720 -0.3281
63391SOL    HW2 2153   0.596  13.601  10.588  2.4382 -1.3747  0.1382
63392SOL     OW 2154  13.640  11.750   0.312  0.1237 -0.0260  0.7565
63392SOL    HW1 2155  13.643  11.660   0.279 -0.0507  0.1814  0.1568
63392SOL    HW2 2156  13.731  11.771   0.330  0.6033  0.7272 -2.0701
63393SOL     OW 2157   4.361   7.615  10.823  0.0682  0.2441  0.0876
63393SOL    HW1 2158   4.321   7.664  10.895  0.2622 -0.5665  0.7545
63393SOL    HW2 2159   4.394   7.535  10.863 -0.2318 -0.4402 -0.9853
63394SOL     OW 2160  12.237   4.224   6.776 -0.4481 -0.4631  0.3552
63394SOL    HW1 2161  12.228   4.179   6.860 -0.6508  1.4085  1.4015
63394SOL    HW2 2162  12.286   4.163   6.720 -0.0378 -1.6233  1.9257
63395SOL     OW 2163   1.219  11.536  13.545 -0.4775 -0.0744 -0.8770
63395SOL    HW1 2164   1.162  11.603  13.509  0.2541  0.3939 -1.1772
63395SOL    HW2 2165   1.216  11.549  13.640  2.3756  2.7220 -1.0090
63396SOL     OW 2166   8.676   3.199   3.622  0.1172 -0.3171  0.2439
63396SOL    HW1 2167   8.758   3.232   3.660  0.3436 -0.6740  0.0752
63396SOL    HW2 2168   8.630   3.278   3.592  1.2926 -0.2132 -1.4473
63397SOL     OW 2169   3.559   9.874   0.266 -0.3266 -0.2315  0.3298
63397SOL    HW1 2170   3.469   9.846   0.284 -0.0446 -0.5785  1.2861
63397SOL    HW2 2171   3.601   9.873   0.352  0.1758  1.4660  0.1308
63398SOL     OW 2172   8.282  12.856   9.229  0.1697  0.1683  0.2690
63398SOL    HW1 2173   8.274  12.944   9.193  0.3188  0.5780  1.2043
63398SOL    HW2 2174   8.350  12.815   9.177 -0.6167  0.2368 -0.8572
63399SOL     OW 2175  11.529   5.096   9.440 -0.2471  0.1554 -0.2555
63399SOL    HW1 2176  11.611   5.101   9.488 -0.6360 -0.2416  0.4674
63399SOL    HW2 2177  11.465   5.141   9.496 -0.5527  0.3401 -0.7429
63400SOL     OW 2178  11.439   9.526   8.823 -0.1473  0.1103  0.0072
63400SOL    HW1 2179  11.368   9.582   8.791  0.2219 -0.6999 -2.4332
63400SOL    HW2 2180  11.515   9.584   8.830 -0.0109  0.1470 -1.5606
63401SOL     OW 2181   7.898   6.722  12.765 -0.0236 -0.0406 -0.0508
63401SOL    HW1 2182   7.882   6.728  12.859 -2.8505 -0.0235 -0.4441
63401SOL    HW2 2183   7.928   6.810  12.740  0.8508 -0.0780  0.8238
63402SOL     OW 2184  10.708   2.503  10.834 -0.7938  0.4687 -0.1337
63402SOL    HW1 2185  10.760   2.433  10.873 -1.2750  0.5402  0.6718
63402SOL    HW2 2186  10.734   2.505  10.742  0.9820  0.8377  0.3387
63403SOL     OW 2187  12.369   2.572   4.348 -0.1718  0.0781  0.1204
63403SOL    HW1 2188  12.419   2.599   4.425 -1.1138 -0.4085  0.9374
63403SOL    HW2 2189  12.348   2.653   4.302  2.1658  0.2237 -0.7873
63404SOL     OW 2190   9.183   3.720  10.402 -0.1907  0.3652  0.3508
63404SOL    HW1 2191   9.103   3.751  10.360  0.7241  0.7796 -1.1946
63404SOL    HW2 2192   9.200   3.635  10.360  0.4662  0.5400  0.2521
63405SOL     OW 2193   1.579   0.601   0.436 -0.0012 -0.3241 -0.0632
63405SOL    HW1 2194   1.646   0.618   0.371  1.2015 -2.0325  0.6450
63405SOL    HW2 2195   1.496   0.625   0.393  0.6876 -1.8102 -2.4012
63406SOL     OW 2196   7.774   9.157  10.773 -0.1519 -0.3803 -0.3500
63406SOL    HW1 2197   7.743   9.245  10.791 -0.3028 -0.2184 -1.3479
63406SOL    HW2 2198   7.863   9.168  10.741  0.2769 -0.7002  0.6631
63407SOL     OW 2199   2.181  10.731   8.619  0.1517 -0.2329 -0.1829
63407SOL    HW1 2200   2.155  10.641   8.598  0.3620 -0.1305 -0.8911
63407SOL    HW2 2201   2.103  10.783   8.600  0.5268 -0.0593 -1.3442
63408SOL     OW 2202  12.690   9.835  11.698  0.6946  0.0654 -0.0407
63408SOL    HW1 2203  12.654   9.918  11.666  0.7432  0.4501  0.8852
63408SOL    HW2 2204  12.614   9.778  11.704  0.6502  0.0501 -0.6225
63409SOL     OW 2205   8.724   7.229   3.781  0.8646 -0.4032  0.1674
63409SOL    HW1 2206   8.740   7.157   3.720 -0.6123  0.4721 -1.3594
63409SOL    HW2 2207   8.767   7.305   3.740 -0.1032  0.1861  0.1983
63410SOL     OW 2208   2.336   7.058   5.984 -0.3215  0.8068  0.4074
63410SOL    HW1 2209   2.351   7.152   5.981  2.5084  0.4246 -1.8790
63410SOL    HW2 2210   2.410   7.020   5.936  0.4091 -2.8423  3.9087
63411SOL     OW 2211  13.911   5.057  11.176 -0.5359  0.0036 -0.4158
63411SOL    HW1 2212  13.922   5.137  11.227  2.3720 -0.3211 -0.3802
63411SOL    HW2 2213  13.850   5.004  11.228 -1.2666  1.5216  0.3471
63412SOL     OW 2214   7.692   7.896   6.454 -0.1128  0.4986 -0.1385
63412SOL    HW1 2215   7.636   7.972   6.436  0.0947  0.2248 -2.1845
63412SOL    HW2 2216   7.640   7.822   6.423 -0.9522 -0.4737  3.1645
63413SOL     OW 2217  10.476   0.138   2.654 -0.1644 -0.1296 -0.5852
63413SOL    HW1 2218  10.425   0.106   2.728  1.4237 -1.6876 -0.0797
63413SOL    HW2 2219  10.531   0.207   2.690 -1.8278  1.5559 -1.1317
63414SOL     OW 2220   1.693  12.416   5.002  0.0378 -0.2248 -0.6410
63414SOL    HW1 2221   1.623  12.473   5.031 -0.5109 -0.7337 -0.9446
63414SOL    HW2 2222   1.750  12.472   4.949 -0.1067  0.1976 -0.3551
63415SOL     OW 2223   8.456   4.397   8.289 -0.3653 -0.3691 -0.1827
63415SOL    HW1 2224   8.532   4.367   8.240 -1.1177 -0.1000 -1.5625
63415SOL    HW2 2225   8.459   4.492   8.282  0.7610 -0.1400  2.2686
63416SOL     OW 2226  11.262   0.294   7.016 -0.1393 -0.0953  0.1507
63416SOL    HW1 2227  11.315   0.238   6.959  1.7657  0.8372  0.9239
63416SOL    HW2 2228  11.204   0.341   6.956 -0.1308 -1.1576 -0.7176
63417SOL     OW 2229   9.440   5.319   0.312  0.2826 -0.3444 -0.1095
63417SOL    HW1 2230   9.354   5.295   0.277  0.5854  0.2837 -1.3559
63417SOL    HW2 2231   9.502   5.269   0.258  0.6841 -1.8185  1.6335
63418SOL     OW 2232  12.249   8.732   8.252 -0.0432 -0.4147 -0.0783
63418SOL    HW1 2233  12.256   8.827   8.236 -0.6926 -0.5781 -1.4819
63418SOL    HW2 2234  12.291   8.692   8.176  0.3189 -1.2683  0.5626
63419SOL     OW 2235   1.073   0.014   9.606 -0.5283 -0.3508  0.3261
63419SOL    HW1 2236   1.063  -0.075   9.572 -1.0561  0.1475 -0.8577
63419SOL    HW2 2237   1.150   0.010   9.663 -1.0149 -1.7422  0.9223
63420SOL     OW 2238   3.977  10.496  10.906 -0.2654  0.6442  0.2245
63420SOL    HW1 2239   3.994  10.484  10.812 -0.7994 -0.4118  0.2443
63420SOL    HW2 2240   3.884  10.475  10.916 -0.0910  0.2330  1.0699
63421SOL     OW 2241   3.936   4.603   8.064  0.0033  0.0495 -0.0265
63421SOL    HW1 2242   4.027   4.599   8.035  0.2445  0.6177  0.6521
63421SOL    HW2 2243   3.931   4.680   8.120 -1.4024  1.3502 -1.8226
63422SOL     OW 2244   1.674   7.819   9.355 -0.2170  0.4151 -0.1841
63422SOL    HW1 2245   1.594   7.856   9.319 -0.5919  0.4581  0.6792
63422SOL    HW2 2246   1.692   7.870   9.433  0.3166  0.0062 -0.0296
63423SOL     OW 2247  13.964  11.989  12.283  0.6185 -0.4147 -0.2390
63423SOL    HW1 2248  13.997  12.019  12.367  1.2855 -0.7560 -0.3693
63423SOL    HW2 2249  14.008  12.045  12.219  0.3227 -0.3357 -0.3743
63424SOL     OW 2250  13.601  13.733   2.104  0.3064 -0.2330 -0.3676
63424SOL    HW1 2251  13.533  13.690   2.157  1.1016  0.2165  1.0929
63424SOL    HW2 2252  13.588  13.827   2.120 -0.5625  0.0411 -2.4477
63425SOL     OW 2253   3.753  14.042  11.186 -0.9286  0.8856 -0.4443
63425SOL    HW1 2254   3.662  14.013  11.187 -0.8538  0.0898 -3.8536
63425SOL    HW2 2255   3.748  14.137  11.171 -1.2878  0.6133 -2.3046
63426SOL     OW 2256   0.621   9.752  13.417 -0.6092  0.1836  0.0096
63426SOL    HW1 2257   0.681   9.786  13.350 -0.8093 -0.4321 -0.4912
63426SOL    HW2 2258   0.601   9.828  13.471  0.0146  0.5657 -0.2790
63427SOL     OW 2259  13.130   2.005  10.189  0.2990 -0.1823  0.3642
63427SOL    HW1 2260  13.044   2.034  10.157 -0.0037 -1.7800 -0.3660
63427SOL    HW2 2261  13.130   2.028  10.281 -0.4770  0.8241  0.1364
63428SOL     OW 2262   6.807  10.163   4.020  0.1610  0.5284 -0.9211
63428SOL    HW1 2263   6.728  10.217   4.023 -0.7972 -0.8388 -0.8342
63428SOL    HW2 2264   6.827  10.145   4.112  2.0592  2.8756 -0.7651
63429SOL     OW 2265  10.589  13.648   0.173 -0.1269 -0.1235 -0.5228
63429SOL    HW1 2266  10.615  13.652   0.266 -0.0619  2.2733 -0.5980
63429SOL    HW2 2267  10.657  13.698   0.127  0.3544 -2.0421 -2.0403
63430SOL     OW 2268   2.284   4.691   7.823 -0.2788 -0.2699  0.3255
63430SOL    HW1 2269   2.248   4.646   7.747 -0.5489 -1.2238  0.9901
63430SOL    HW2 2270   2.261   4.634   7.897  0.4579  0.3529  1.0520
63431SOL     OW 2271   1.623  11.957   3.292  0.0721  0.1033  0.1631
63431SOL    HW1 2272   1.567  11.889   3.328 -0.3279  0.8649  1.0122
63431SOL    HW2 2273   1.563  12.027   3.268  0.1705 -0.7283 -3.0151
63432SOL     OW 2274  12.423   0.599   6.512 -0.1228 -0.3119 -0.1689
63432SOL    HW1 2275  12.339   0.556   6.528 -0.8657  1.0484 -0.2702
63432SOL    HW2 2276  12.403   0.693   6.518  1.1610  0.0590 -1.3133
63433SOL     OW 2277   2.889   2.873   7.462  0.1466  0.4042 -0.0164
63433SOL    HW1 2278   2.804   2.909   7.488  0.9340  0.7493  2.3658
63433SOL    HW2 2279   2.870   2.782   7.437 -0.7940  0.0759  1.7230
63434SOL     OW 2280  10.348  10.385   9.698 -0.2458  0.2591  0.1314
63434SOL    HW1 2281  10.366  10.479   9.699 -1.5677  0.5248 -0.2410
63434SOL    HW2 2282  10.275  10.374   9.759  0.1640 -0.5992  0.4897
63435SOL     OW 2283   8.241   0.978   4.335  0.0934 -1.0468  0.6022
63435SOL    HW1 2284   8.170   0.996   4.273  0.6222  1.1723  0.5561
63435SOL    HW2 2285   8.311   0.943   4.280  0.3627  0.3817 -0.0230
63436SOL     OW 2286   2.149   3.731  10.878  0.0261 -0.3841 -0.2795
63436SOL    HW1 2287   2.177   3.648  10.916  1.7929  0.9037  1.4104
63436SOL    HW2 2288   2.054   3.733  10.891  0.2412 -1.1799  1.6697
63437SOL     OW 2289   2.209   8.115   2.148 -0.7008 -0.0716  0.1592
63437SOL    HW1 2290   2.261   8.036   2.133  1.7405  1.7865 -2.0451
63437SOL    HW2 2291   2.179   8.142   2.062 -1.1479  1.6031  0.7922
63438SOL     OW 2292   5.032  10.379   0.229  0.2786 -0.3345 -0.1996
63438SOL    HW1 2293   5.109  10.323   0.237 -1.4771 -2.7272  1.4778
63438SOL    HW2 2294   5.042  10.423   0.145  3.7537  0.0220  0.2578
63439SOL     OW 2295   6.144   3.691   8.974  0.5061 -0.4841  0.0630
63439SOL    HW1 2296   6.082   3.659   9.039 -0.9188  2.4133  0.2419
63439SOL    HW2 2297   6.090   3.733   8.907  2.1294 -0.4955 -1.3239
63440SOL     OW 2298   4.476   7.940   2.378 -0.7283  0.4897  0.1351
63440SOL    HW1 2299   4.517   7.993   2.446 -1.6469  1.3898  0.0160
63440SOL    HW2 2300   4.549   7.906   2.327 -0.0958  1.5473  0.2936
63441SOL     OW 2301   9.158   7.123   3.761 -0.0094 -0.6395  0.1810
63441SOL    HW1 2302   9.205   7.049   3.800  1.0678 -0.1592 -0.1630
63441SOL    HW2 2303   9.172   7.114   3.667  0.5992  0.2955  0.1700
63442SOL     OW 2304  10.026   1.123   7.018 -0.2988  0.1816  0.1844
63442SOL    HW1 2305  10.025   1.064   6.942 -2.1191 -0.2877  0.5160
63442SOL    HW2 2306  10.018   1.211   6.981  2.9979  0.3884 -0.3532
63443SOL     OW 2307  12.737   2.932  10.365 -0.1300 -0.0997 -0.2322
63443SOL    HW1 2308  12.810   2.878  10.396  1.5980  2.6345  0.7816
63443SOL    HW2 2309  12.761   2.959  10.277 -0.6125 -0.3142 -0.4375
63444SOL     OW 2310   6.651   1.375   0.444 -0.3727  0.0777  0.0081
63444SOL    HW1 2311   6.579   1.314   0.428 -0.0011 -0.1399 -0.8804
63444SOL    HW2 2312   6.610   1.449   0.489 -1.1989  0.0618 -0.7048
63445SOL     OW 2313   0.491   0.704   6.259 -0.1108 -0.3728 -0.1870
63445SOL    HW1 2314   0.443   0.763   6.319 -1.3133 -2.0263  0.5527
63445SOL    HW2 2315   0.434   0.698   6.183 -0.4883 -1.3413  0.1602
63446SOL     OW 2316   1.843  11.264   7.625 -0.1387  0.1077  0.0120
63446SOL    HW1 2317   1.759  11.236   7.663 -0.5575  1.2613 -0.0333
63446SOL    HW2 2318   1.841  11.231   7.535 -0.2705 -0.3892  0.1923
63447SOL     OW 2319   6.422   1.091   6.190  0.3016 -0.1746 -0.3913
63447SOL    HW1 2320   6.327   1.081   6.198  0.3785 -0.5264  0.1155
63447SOL    HW2 2321   6.458   1.011   6.227  0.8427  0.5419  0.6646
63448SOL     OW 2322   3.977   3.934   3.850  0.1639 -0.0939 -0.4548
63448SOL    HW1 2323   4.066   3.902   3.864  0.3253  1.0272  1.4556
63448SOL    HW2 2324   3.934   3.922   3.934 -1.5836 -0.7674 -1.3881
63449SOL     OW 2325  12.736  14.011   6.864 -0.2722 -0.4032  0.3636
63449SOL    HW1 2326  12.674  13.956   6.817 -2.8871  0.7949  2.1907
63449SOL    HW2 2327  12.765  13.957   6.937 -0.4433 -0.3834  0.4448
63450SOL     OW 2328   7.088   0.415   8.157 -0.1247 -0.4678 -0.3828
63450SOL    HW1 2329   7.134   0.333   8.140  0.6488 -0.5523  1.7640
63450SOL    HW2 2330   7.157   0.476   8.184 -0.8806  0.4192 -0.4041
63451SOL     OW 2331   0.323   7.572  12.895 -0.3631 -0.4543 -1.0340
63451SOL    HW1 2332   0.249   7.594  12.838 -0.2679  1.2767 -0.5378
63451SOL    HW2 2333   0.343   7.653  12.941  0.7549 -1.3409  0.1172
63452SOL     OW 2334   2.471  12.605  13.254 -0.1429 -0.3893  0.1347
63452SOL    HW1 2335   2.546  12.610  13.313 -0.4518 -2.0270  0.7206
63452SOL    HW2 2336   2.431  12.692  13.258  2.4392  0.9895 -1.2124
63453SOL     OW 2337  13.172   3.429   2.065  0.3207  0.5732 -0.5232
63453SOL    HW1 2338  13.111   3.436   1.992 -0.4889  0.5143  0.1283
63453SOL    HW2 2339  13.234   3.361   2.039  1.0172  1.6554 -1.8219
63454SOL     OW 2340  13.713   2.365  10.760 -0.5325  0.2139  0.2899
63454SOL    HW1 2341  13.738   2.456  10.744 -1.9784  0.3212 -1.7578
63454SOL    HW2 2342  13.738   2.319  10.679 -3.1874 -0.4115 -0.2623
63455SOL     OW 2343   0.393   6.849   7.461  0.0594  0.1190  0.3313
63455SOL    HW1 2344   0.365   6.787   7.529 -1.3176  0.8109  0.4413
63455SOL    HW2 2345   0.333   6.832   7.388  1.0041 -0.0666 -0.4176
63456SOL     OW 2346  10.691   3.894   0.693  0.1097 -0.5536 -0.3421
63456SOL    HW1 2347  10.629   3.954   0.650 -0.7833 -1.0517  0.2168
63456SOL    HW2 2348  10.743   3.951   0.750 -0.8277 -0.3042  0.2998
63457SOL     OW 2349  13.889   9.933   1.914  0.0753 -0.1079  0.2107
63457SOL    HW1 2350  13.849  10.012   1.951  2.5833  0.4174  2.0435
63457SOL    HW2 2351  13.943   9.965   1.841  0.4967 -0.2166  0.4725
63458SOL     OW 2352  10.913  11.174   8.547  0.4666  0.5872  0.2930
63458SOL    HW1 2353  10.932  11.260   8.511 -0.5014  0.2951 -0.9632
63458SOL    HW2 2354  10.848  11.189   8.615 -1.1920  0.6773 -1.2497
63459SOL     OW 2355   0.844  12.221  13.119  0.0464 -0.1990  0.9150
63459SOL    HW1 2356   0.827  12.148  13.059 -0.2352  1.0763 -0.6111
63459SOL    HW2 2357   0.934  12.208  13.148  0.5774 -0.2199 -0.6889
63460SOL     OW 2358   0.032   4.413   0.277 -0.5064 -0.0252  0.1059
63460SOL    HW1 2359   0.043   4.326   0.315 -0.6286 -0.1628 -0.1727
63460SOL    HW2 2360   0.110   4.461   0.303  0.3135 -0.6958 -1.0659
63461SOL     OW 2361  13.088   0.266   9.349  0.0846 -0.1396 -0.1737
63461SOL    HW1 2362  13.050   0.290   9.433 -0.9073  2.1364 -1.1813
63461SOL    HW2 2363  13.013   0.237   9.296  0.1671  1.4134 -1.2015
63462SOL     OW 2364   5.565  13.539   1.602  0.3614 -0.6071 -0.5719
63462SOL    HW1 2365   5.656  13.563   1.585  0.6508 -2.2492 -1.6972
63462SOL    HW2 2366   5.517  13.568   1.524  0.0783 -0.4644 -0.3458
63463SOL     OW 2367   4.379  11.385   8.464  0.4184 -0.6378  0.5341
63463SOL    HW1 2368   4.347  11.355   8.379 -1.4251  1.2243  0.4942
63463SOL    HW2 2369   4.440  11.456   8.443 -0.1299 -0.0950  0.7246
63464SOL     OW 2370  13.517   6.705   9.342  0.4765 -0.6781  0.0082
63464SOL    HW1 2371  13.479   6.645   9.278  2.2685 -0.3217 -1.4746
63464SOL    HW2 2372  13.528   6.787   9.293 -0.7716  0.5331  1.6302
63465SOL     OW 2373   3.115   1.003   7.876  0.5226  0.1050  0.2956
63465SOL    HW1 2374   3.020   1.014   7.880  0.6324  0.8740  1.0305
63465SOL    HW2 2375   3.127   0.914   7.843 -0.4486  0.3378 -0.7948
63466SOL     OW 2376  12.453   7.362   5.284  0.5157 -0.0285 -0.5262
63466SOL    HW1 2377  12.471   7.372   5.191  1.8004 -0.6199 -0.3461
63466SOL    HW2 2378  12.476   7.447   5.322  2.8014 -0.6784 -0.3395
63467SOL     OW 2379   1.490   5.643   8.679 -0.5789  0.3429 -0.1875
63467SOL    HW1 2380   1.418   5.632   8.740 -0.1599  0.5323  0.3464
63467SOL    HW2 2381   1.453   5.620   8.593 -1.2808  0.4951  0.0734
63468SOL     OW 2382   9.500   6.939   7.451 -0.7249 -0.1283 -0.4986
63468SOL    HW1 2383   9.495   6.992   7.372  1.2340 -0.0993 -0.6323
63468SOL    HW2 2384   9.560   6.869   7.430 -0.7890 -0.5763  0.7237
63469SOL     OW 2385   1.630  13.254  10.963  0.3227  0.3695 -0.7180
63469SOL    HW1 2386   1.713  13.259  11.009 -0.4175  0.1153  0.6952
63469SOL    HW2 2387   1.653  13.264  10.870  1.9950 -0.4704 -0.4240
63470SOL     OW 2388   3.770   6.676  12.455 -0.0726  0.4083  0.2274
63470SOL    HW1 2389   3.764   6.755  12.402  2.7684 -0.1893 -1.1942
63470SOL    HW2 2390   3.857   6.681  12.495 -0.0306 -1.7322  0.5056
63471SOL     OW 2391   1.527   9.328   2.331  0.2512  0.1094 -0.5775
63471SOL    HW1 2392   1.506   9.420   2.312 -0.5657  0.0211 -0.1302
63471SOL    HW2 2393   1.516   9.320   2.426  2.4713  0.0792 -0.2574
63472SOL     OW 2394   1.509   5.547   5.914  0.0079  0.0101 -0.0125
63472SOL    HW1 2395   1.569   5.571   5.985  1.6285 -0.1639 -1.2704
63472SOL    HW2 2396   1.433   5.511   5.958  0.7249  0.4390  1.6551
63473SOL     OW 2397   2.289   4.094   6.021 -0.0691  0.4798 -0.6410
63473SOL    HW1 2398   2.289   4.007   5.982 -1.5904  0.5939 -0.9813
63473SOL    HW2 2399   2.246   4.081   6.106  1.1974  0.6234  0.0354
63474SOL     OW 2400  10.544   9.079  10.968 -0.4904  0.1512 -0.0803
63474SOL    HW1 2401  10.505   9.105  10.885  0.6482  0.5958 -0.5008
63474SOL    HW2 2402  10.620   9.138  10.978  1.0533 -1.7285 -0.1118
63475SOL     OW 2403  12.011  11.212   5.406 -0.1486  0.0491 -0.0817
63475SOL    HW1 2404  11.979  11.288   5.357  2.0669  1.2905  0.2767
63475SOL    HW2 2405  12.093  11.188   5.363 -0.0681 -1.2333  0.7255
63476SOL     OW 2406  12.080   9.428   5.137 -0.6722  0.0634 -0.0804
63476SOL    HW1 2407  12.162   9.420   5.187 -1.9454 -0.8586  1.9828
63476SOL    HW2 2408  12.079   9.520   5.111  1.1288  0.0472 -0.3848
63477SOL     OW 2409  11.106  13.443   1.474  0.0074  0.4172 -0.2954
63477SOL    HW1 2410  11.056  13.456   1.554  1.2022  1.7290  0.2815
63477SOL    HW2 2411  11.158  13.523   1.465  1.5250 -0.6145 -1.1771
63478SOL     OW 2412  12.368   6.296   8.242 -0.3458  0.1734 -0.0066
63478SOL    HW1 2413  12.367   6.210   8.200  0.4162 -1.0965  2.3818
63478SOL    HW2 2414  12.387   6.357   8.171 -0.7675 -1.6258 -1.7609
63479SOL     OW 2415   7.529  12.271   0.195 -0.0111 -0.0264 -0.5116
63479SOL    HW1 2416   7.501  12.184   0.223  1.0776 -0.0728  0.5378
63479SOL    HW2 2417   7.505  12.329   0.267  3.0668 -0.1882  0.7910
63480SOL     OW 2418   2.759   2.055   2.851  0.0332  0.3304 -0.3426
63480SOL    HW1 2419   2.795   2.047   2.762 -2.4242  1.4984 -1.5577
63480SOL    HW2 2420   2.777   2.146   2.875  1.0327 -0.0921  0.5459
63481SOL     OW 2421   3.720  13.412   8.656 -0.4857 -0.0772  0.3701
63481SOL    HW1 2422   3.759  13.335   8.615  0.9900  0.4909  0.6437
63481SOL    HW2 2423   3.632  13.417   8.618  0.6577  0.2403 -2.4716
63482SOL     OW 2424   0.163   1.825  11.650 -0.4685  0.3437 -0.6657
63482SOL    HW1 2425   0.192   1.907  11.612 -0.7065  0.3189 -0.9070
63482SOL    HW2 2426   0.228   1.760  11.623  1.3687  0.9607  1.9493
63483SOL     OW 2427   4.294   4.877   8.445  0.8528  0.3078 -0.1871
63483SOL    HW1 2428   4.313   4.921   8.528  0.8632 -0.6842  0.3542
63483SOL    HW2 2429   4.199   4.871   8.442  0.8231  0.9320 -0.5678
63484SOL     OW 2430   2.669  12.255  12.882 -0.5321 -0.6119  0.0270
63484SOL    HW1 2431   2.663  12.269  12.977 -1.8178 -1.5113  0.1028
63484SOL    HW2 2432   2.637  12.166  12.869 -1.3748 -0.1362 -1.3661
63485SOL     OW 2433  12.561   4.292   6.899 -0.6557  0.2748 -0.2129
63485SOL    HW1 2434  12.578   4.251   6.983 -1.5712  1.3458  0.5340
63485SOL    HW2 2435  12.603   4.235   6.835  1.7812  0.4621  1.0931
63486SOL     OW 2436   9.199   9.241  12.424  0.6526  0.0042 -0.1351
63486SOL    HW1 2437   9.168   9.217  12.336 -0.2304 -0.1249  0.1980
63486SOL    HW2 2438   9.136   9.200  12.483  2.3721 -1.5960  0.6576
63487SOL     OW 2439   8.494  10.922   7.288 -0.6635  0.0471  0.1557
63487SOL    HW1 2440   8.529  10.961   7.208  0.8503 -2.0420 -0.2882
63487SOL    HW2 2441   8.560  10.941   7.355 -1.0330  0.1866  0.4848
63488SOL     OW 2442   4.642   5.796   6.642 -0.4802 -0.4816  0.1693
63488SOL    HW1 2443   4.633   5.722   6.582  3.0755 -1.2313  0.3394
63488SOL    HW2 2444   4.705   5.766   6.708  0.7547  2.5056  0.5042
63489SOL     OW 2445   5.983  11.488  10.620 -0.4273  0.0154 -0.9325
63489SOL    HW1 2446   6.064  11.540  10.628 -0.9032  0.6451  0.0417
63489SOL    HW2 2447   6.002  11.407  10.666 -0.6737  0.5858  0.2045
63490SOL     OW 2448   2.277  12.341   6.141  0.3543  0.3660  0.2601
63490SOL    HW1 2449   2.257  12.293   6.060  0.7412  0.8333 -0.1208
63490SOL    HW2 2450   2.195  12.342   6.190  0.1454 -0.0195 -0.0772
63491SOL     OW 2451  10.863  11.951   7.013  0.5872  0.0393 -0.9810
63491SOL    HW1 2452  10.825  11.910   6.935 -0.2212 -0.9020 -0.1240
63491SOL    HW2 2453  10.894  12.036   6.982 -4.0972  1.9053 -1.4434
63492SOL     OW 2454  10.302   5.095   5.336 -0.0175  0.1020  0.0134
63492SOL    HW1 2455  10.328   5.185   5.357 -0.0138  0.8752 -2.9503
63492SOL    HW2 2456  10.376   5.058   5.288 -1.0546 -0.5808 -1.1069
63493SOL     OW 2457   1.654  12.027   0.289 -0.0335 -0.4034 -0.4258
63493SOL    HW1 2458   1.679  11.958   0.350 -2.9561 -1.2337 -0.0527
63493SOL    HW2 2459   1.735  12.077   0.275  1.2242 -1.4621  2.4240
63494SOL     OW 2460   9.084  11.705   0.293  0.6640 -0.0324  0.0262
63494SOL    HW1 2461   9.022  11.695   0.220  1.9670 -3.2894 -0.8093
63494SOL    HW2 2462   9.132  11.786   0.273 -0.2900  0.1568 -1.6924
63495SOL     OW 2463   1.352  13.664   8.442 -0.6095 -0.3079 -0.2061
63495SOL    HW1 2464   1.348  13.660   8.538 -0.5426  0.2398 -0.1746
63495SOL    HW2 2465   1.393  13.582   8.416 -0.3579 -0.3324  0.2577
63496SOL     OW 2466   6.358   1.278   1.454 -0.4412 -1.0121 -0.3716
63496SOL    HW1 2467   6.325   1.212   1.514  0.5110 -1.9225 -0.8215
63496SOL    HW2 2468   6.434   1.238   1.413  0.3488  0.4675 -0.4462
63497SOL     OW 2469   5.172   3.119  12.563  0.1773 -0.5124  0.3645
63497SOL    HW1 2470   5.239   3.173  12.605  0.1989 -0.1269 -0.1583
63497SOL    HW2 2471   5.213   3.089  12.481 -0.0706 -0.7825  0.3365
63498SOL     OW 2472   8.633   9.569  11.482 -0.2531  0.1510 -0.2134
63498SOL    HW1 2473   8.553   9.561  11.534 -0.3958  1.2492 -0.2267
63498SOL    HW2 2474   8.652   9.480  11.453 -0.2296 -0.4887  1.6174
63499SOL     OW 2475   4.937   9.210   0.188 -0.3149 -0.4466  0.1195
63499SOL    HW1 2476   5.013   9.241   0.139  0.3748 -1.1002  0.7557
63499SOL    HW2 2477   4.934   9.116   0.171  0.9307 -1.0100  2.5725
63500SOL     OW 2478   0.154  11.621   1.825 -0.7426 -0.0254  0.6161
63500SOL    HW1 2479   0.068  11.624   1.866 -1.0480 -0.2179  0.0023
63500SOL    HW2 2480   0.183  11.530   1.837 -0.7488 -0.0324  0.5797
63501SOL     OW 2481  11.989   6.412   7.171  0.5626  0.5545 -0.2758
63501SOL    HW1 2482  11.926   6.478   7.198  0.9613  0.8680 -0.1038
63501SOL    HW2 2483  12.073   6.441   7.208  1.0497  0.7781 -1.5100
63502SOL     OW 2484  10.015   3.699  13.106  0.0922  0.2661  0.1842
63502SOL    HW1 2485  10.040   3.647  13.182  1.6799  0.3700 -0.2334
63502SOL    HW2 2486  10.024   3.640  13.032  0.1036  0.6136 -0.0962
63503SOL     OW 2487  13.012   0.659  10.742  0.4150  0.4649  0.4325
63503SOL    HW1 2488  12.995   0.577  10.788  0.2347  0.6076  0.6219
63503SOL    HW2 2489  12.929   0.705  10.743  0.6143  0.8287  0.6922
63504SOL     OW 2490   6.685   3.753  13.695 -0.5150 -0.4846  0.2647
63504SOL    HW1 2491   6.660   3.661  13.704  1.3223 -1.1198 -0.5166
63504SOL    HW2 2492   6.746   3.769  13.767  0.2019 -0.3058 -0.3544
63505SOL     OW 2493  11.153  13.933  11.693  0.3699 -0.0517 -0.1398
63505SOL    HW1 2494  11.221  13.920  11.626 -0.5982  0.2698 -1.2136
63505SOL    HW2 2495  11.077  13.963  11.644 -0.4069  0.0684  1.1106
63506SOL     OW 2496  10.003   7.918  13.957  0.5770  0.1981 -0.1839
63506SOL    HW1 2497  10.006   7.833  13.915  0.2430 -0.4050  0.9629
63506SOL    HW2 2498  10.082   7.963  13.928  1.3191 -0.9185  0.0401
63507SOL     OW 2499   0.688  11.998   2.918 -0.0226  0.2956 -0.3689
63507SOL    HW1 2500   0.658  12.084   2.946  2.4395  0.7341  1.2476
63507SOL    HW2 2501   0.612  11.941   2.930 -1.1801  1.8994  0.2658
63508SOL     OW 2502   3.341   2.480  13.393  0.0715 -0.2435 -0.1632
63508SOL    HW1 2503   3.436   2.475  13.395  0.1005  0.3649  0.6996
63508SOL    HW2 2504   3.311   2.407  13.447  0.0496 -0.4053 -0.3937
63509SOL     OW 2505  10.866  12.749  10.600  0.3663 -0.5366  0.0400
63509SOL    HW1 2506  10.844  12.768  10.509 -0.1838 -1.6419 -0.0675
63509SOL    HW2 2507  10.960  12.729  10.598 -0.0113 -2.4217 -0.6227
63510SOL     OW 2508   7.267   2.759   2.096 -0.4083  0.0998  0.5102
63510SOL    HW1 2509   7.217   2.778   2.016 -2.3554  0.0299  1.6322
63510SOL    HW2 2510   7.337   2.701   2.068 -0.4622  0.8403 -1.2923
63511SOL     OW 2511  10.087   7.493   6.023 -0.2370 -0.5649  0.2231
63511SOL    HW1 2512  10.077   7.425   5.957 -0.6538  0.4496 -0.8108
63511SOL    HW2 2513  10.154   7.461   6.083  0.1721 -1.4960 -0.7221
63512SOL     OW 2514   8.741  10.543  10.260 -0.1568  0.5524 -0.3843
63512SOL    HW1 2515   8.712  10.603  10.329 -0.2694 -0.0180  0.0666
63512SOL    HW2 2516   8.836  10.542  10.268 -0.1751  0.4158 -0.1724
63513SOL     OW 2517   1.219   1.153   0.461  0.6107 -0.2675  0.8186
63513SOL    HW1 2518   1.148   1.118   0.407  1.6434 -0.1858 -0.6644
63513SOL    HW2 2519   1.181   1.230   0.503  0.0683  0.3133 -0.6697
63514SOL     OW 2520   4.270   5.285  11.514  0.4343  0.1709  0.0078
63514SOL    HW1 2521   4.349   5.262  11.466  0.7309 -0.3603  0.7366
63514SOL    HW2 2522   4.282   5.247  11.601 -1.3615 -1.3986 -0.3707
63515SOL     OW 2523  13.371   1.292   3.636 -0.1730 -0.1921  0.5244
63515SOL    HW1 2524  13.347   1.334   3.718 -0.2524 -0.7530  0.7963
63515SOL    HW2 2525  13.406   1.207   3.662 -0.1776 -0.3643 -0.0213
63516SOL     OW 2526   0.837  10.928   5.086 -0.3034  0.6205  0.0349
63516SOL    HW1 2527   0.890  10.991   5.036  1.2633 -0.6218  0.0470
63516SOL    HW2 2528   0.889  10.912   5.166 -1.7714  0.9953  1.1131
63517SOL     OW 2529   2.623   3.395  13.046  0.2896 -0.4740  0.2227
63517SOL    HW1 2530   2.645   3.469  12.988  0.1305 -0.6161 -0.0189
63517SOL    HW2 2531   2.708   3.354  13.065  0.2534 -0.9722 -0.6453
63518SOL     OW 2532  11.780   5.212   9.859 -0.5755 -0.5206  0.2757
63518SOL    HW1 2533  11.693   5.248   9.875 -0.3341 -0.3949  1.3546
63518SOL    HW2 2534  11.764   5.139   9.799 -1.2536  0.3355 -0.6204
63519SOL     OW 2535  10.977   7.275   6.267  0.0036 -0.0965 -0.0575
63519SOL    HW1 2536  11.000   7.297   6.357  1.3704 -2.4274  0.2700
63519SOL    HW2 2537  10.884   7.298   6.259 -0.4441 -0.7683  2.3108
63520SOL     OW 2538   2.296  10.597  11.297 -0.2592  0.2000  0.1937
63520SOL    HW1 2539   2.228  10.660  11.272 -0.3415 -0.1549 -0.4970
63520SOL    HW2 2540   2.312  10.546  11.217  0.8471  0.3087  0.3318
63521SOL     OW 2541   5.737   5.068   6.117  0.1203 -0.2590  0.2593
63521SOL    HW1 2542   5.732   5.033   6.028 -0.6648 -0.1957  0.2695
63521SOL    HW2 2543   5.676   5.014   6.168 -2.8215  2.3547 -0.1774
63522SOL     OW 2544  11.932   2.650   7.894 -0.2096 -0.0060  0.0243
63522SOL    HW1 2545  11.951   2.583   7.959 -0.2606 -0.0713 -0.0281
63522SOL    HW2 2546  11.844   2.629   7.863  0.9898 -1.9789 -2.4769
63523SOL     OW 2547   1.762   3.379  10.386  0.5066 -1.0486 -0.3247
63523SOL    HW1 2548   1.681   3.363  10.337 -0.3710 -0.6627  0.9625
63523SOL    HW2 2549   1.743   3.456  10.440  1.9939 -0.4836 -0.5468
63524SOL     OW 2550  12.585  12.854   9.174  0.0172  0.2643 -0.0409
63524SOL    HW1 2551  12.577  12.922   9.108 -0.0889 -0.1208 -0.4271
63524SOL    HW2 2552  12.507  12.800   9.163  1.0999 -1.1630 -1.1657
63525SOL     OW 2553   6.365   0.300   3.965 -0.4145  0.5194  0.1117
63525SOL    HW1 2554   6.277   0.274   3.939 -0.0678  0.4705 -1.0954
63525SOL    HW2 2555   6.369   0.283   4.059 -0.8923 -1.8349 -0.2231
63526SOL     OW 2556   0.819   3.326  13.591  0.7660  1.0199  0.0053
63526SOL    HW1 2557   0.735   3.370  13.599  0.6194  0.9432 -0.9396
63526SOL    HW2 2558   0.884   3.396  13.597  0.6778  1.0123  1.3085
63527SOL     OW 2559   6.814   9.518   9.149 -0.9881  0.0571 -0.5050
63527SOL    HW1 2560   6.896   9.548   9.187  0.3035 -1.2430 -2.1009
63527SOL    HW2 2561   6.750   9.527   9.219 -0.0433  3.3192  0.0923
63528SOL     OW 2562  12.684   6.153   5.222  0.3813 -0.1245 -0.3987
63528SOL    HW1 2563  12.749   6.101   5.269 -0.4696 -0.9936 -0.1489
63528SOL    HW2 2564  12.671   6.107   5.139  0.5747  0.4208 -0.7381
63529SOL     OW 2565   0.456   8.765   2.327 -0.2083 -0.3917 -0.1768
63529SOL    HW1 2566   0.434   8.824   2.255  0.4501  0.2435  0.1239
63529SOL    HW2 2567   0.537   8.723   2.299  0.7883  0.8319  0.7083
63530SOL     OW 2568   8.434   3.914   3.550 -0.0677  0.6475  0.0518
63530SOL    HW1 2569   8.473   3.999   3.570  0.0937  0.8667 -1.1480
63530SOL    HW2 2570   8.341   3.933   3.538 -0.3844  0.3214  1.6819
63531SOL     OW 2571  12.353   7.006   3.352  0.5427  0.0519 -0.6312
63531SOL    HW1 2572  12.409   6.968   3.419  0.4837 -0.5287 -0.9028
63531SOL    HW2 2573  12.316   7.084   3.393  2.2441  0.9636 -0.7491
63532SOL     OW 2574   2.119  13.081   9.398  0.0832  0.4743  0.0789
63532SOL    HW1 2575   2.136  13.175   9.402  1.0592  0.2965  0.6379
63532SOL    HW2 2576   2.203  13.041   9.422 -0.3617 -0.5350  0.0051
63533SOL     OW 2577   4.852   9.219  13.703  0.1280  0.6088  0.1182
63533SOL    HW1 2578   4.909   9.270  13.761  0.5413  0.0540  0.2089
63533SOL    HW2 2579   4.763   9.248  13.725  0.0765 -1.2380  2.7129
63534SOL     OW 2580   2.611   9.037   5.879 -0.3068  0.6543 -0.2590
63534SOL    HW1 2581   2.571   8.997   5.801  3.0886  0.2300 -1.9478
63534SOL    HW2 2582   2.663   8.967   5.917  0.7538  1.7825  0.4154
63535SOL     OW 2583   5.486   5.115   2.390 -0.4358 -0.0839  0.5226
63535SOL    HW1 2584   5.574   5.149   2.373 -0.0527 -1.2840  0.0031
63535SOL    HW2 2585   5.498   5.020   2.397 -1.6874 -0.2594  0.4577
63536SOL     OW 2586  11.600  10.744  10.794  0.6950  0.2958 -0.5944
63536SOL    HW1 2587  11.506  10.756  10.795  0.6385  0.4482 -2.7765
63536SOL    HW2 2588  11.634  10.813  10.851 -0.4754  0.4625 -0.0747
63537SOL     OW 2589   3.515   9.455  11.198 -0.0913  0.3517 -0.4739
63537SOL    HW1 2590   3.507   9.538  11.152 -0.0729 -0.4862 -2.0916
63537SOL    HW2 2591   3.599   9.419  11.168 -0.8334 -0.9588 -1.0812
63538SOL     OW 2592   9.790   2.919   2.398  0.0988  0.0045  0.2023
63538SOL    HW1 2593   9.803   2.991   2.336 -2.3564  1.0443  0.7502
63538SOL    HW2 2594   9.758   2.846   2.344  0.3457  0.0829 -0.0534
63539SOL     OW 2595   8.761   1.111   7.030  0.8052  0.1919 -0.0482
63539SOL    HW1 2596   8.698   1.109   6.958  0.5281 -2.1648  0.1991
63539SOL    HW2 2597   8.716   1.069   7.103  2.0258  0.1050  0.6903
63540SOL     OW 2598   0.106   0.535   3.971  0.1310 -0.1627 -0.5559
63540SOL    HW1 2599   0.114   0.573   3.884  0.1990 -0.1364 -0.5382
63540SOL    HW2 2600   0.013   0.543   3.992  0.2810  0.7139 -0.2179
63541SOL     OW 2601  13.570  11.707   9.688 -0.6979 -0.0130 -0.1112
63541SOL    HW1 2602  13.605  11.721   9.600 -1.0753  0.2975 -0.2161
63541SOL    HW2 2603  13.532  11.620   9.685 -0.9270  0.0907 -0.3339
63542SOL     OW 2604   5.230   3.921   0.679 -0.1898  0.1025 -0.0969
63542SOL    HW1 2605   5.307   3.963   0.640 -1.4237  2.0629 -0.5454
63542SOL    HW2 2606   5.267   3.859   0.742  1.7698 -0.0110 -1.2805
63543SOL     OW 2607   2.706   1.561  11.700  0.6123 -0.3247  0.3718
63543SOL    HW1 2608   2.730   1.654  11.709 -0.7237  0.1799 -0.8601
63543SOL    HW2 2609   2.761   1.516  11.764  1.1726  1.3398  1.1291
63544SOL     OW 2610   4.881   5.010   2.157 -0.1017 -0.1962  0.4023
63544SOL    HW1 2611   4.899   5.081   2.095  0.9577  0.3542  1.3146
63544SOL    HW2 2612   4.950   5.018   2.223 -1.1298 -0.8622  1.5803
63545SOL     OW 2613   5.174   2.587   7.410 -0.1346 -0.0879 -0.4750
63545SOL    HW1 2614   5.095   2.534   7.424  0.2019 -0.5359 -0.2522
63545SOL    HW2 2615   5.210   2.554   7.327  1.3725 -1.8882  0.8069
63546SOL     OW 2616  11.441  11.623   5.217  0.1966 -0.0788 -0.6295
63546SOL    HW1 2617  11.375  11.634   5.285  0.8582 -1.0918  0.2092
63546SOL    HW2 2618  11.454  11.711   5.180  0.1904  0.5788  0.8920
63547SOL     OW 2619   8.392  12.888  13.755 -0.3072  0.3807  0.0143
63547SOL    HW1 2620   8.422  12.881  13.845 -2.1743 -0.3942  0.6189
63547SOL    HW2 2621   8.457  12.840  13.704  1.0699  1.2937  0.8441
63548SOL     OW 2622   6.963   9.829  13.122 -0.0929 -0.3960  0.4993
63548SOL    HW1 2623   7.000   9.788  13.200 -0.6566 -1.3301  0.2878
63548SOL    HW2 2624   7.016   9.907  13.108  1.5918 -1.5269  0.3846
63549SOL     OW 2625   9.077   8.614  12.498 -0.0653  0.4308 -0.3494
63549SOL    HW1 2626   9.154   8.671  12.489 -0.2970  1.0516  1.2629
63549SOL    HW2 2627   9.049   8.626  12.589  0.3414 -2.8656  0.3313
63550SOL     OW 2628   7.100  11.576  12.410  0.2823  0.7667  0.2584
63550SOL    HW1 2629   7.058  11.565  12.325 -1.2247  1.1645  0.9174
63550SOL    HW2 2630   7.084  11.493  12.456  1.2928  0.4633  0.0964
63551SOL     OW 2631   8.034   1.906   1.274 -0.0585 -0.3594 -0.1673
63551SOL    HW1 2632   8.065   1.858   1.197  0.1382  0.5330 -0.6514
63551SOL    HW2 2633   8.103   1.894   1.339  1.7953  2.2497 -1.4853
63552SOL     OW 2634   0.230   3.857   8.097  0.3845 -0.1833 -0.6447
63552SOL    HW1 2635   0.155   3.849   8.039  1.2174 -1.0487 -1.6338
63552SOL    HW2 2636   0.253   3.950   8.094  0.3233 -0.1880 -1.5838
63553SOL     OW 2637  11.333   8.121  12.895 -0.0377 -0.7371 -0.2813
63553SOL    HW1 2638  11.239   8.138  12.896  0.0530  0.0224 -1.9885
63553SOL    HW2 2639  11.341   8.032  12.861 -0.1112 -0.4994 -0.9278
63554SOL     OW 2640   4.210   9.919   4.242 -0.0076 -0.1352  0.4465
63554SOL    HW1 2641   4.201   9.847   4.180 -1.0819 -0.8568  1.4101
63554SOL    HW2 2642   4.125   9.962   4.241 -0.0128 -0.1086  1.3459
63555SOL     OW 2643   4.699   0.552   3.629  0.0946  0.0775 -0.0772
63555SOL    HW1 2644   4.768   0.565   3.564  0.3366  1.5114  0.4121
63555SOL    HW2 2645   4.725   0.609   3.702 -0.1759 -1.4660  1.2866
63556SOL     OW 2646   6.660  13.124  13.111 -0.1636  0.6345 -0.4312
63556SOL    HW1 2647   6.716  13.060  13.068 -0.7221 -0.8593  0.9879
63556SOL    HW2 2648   6.683  13.207  13.069  0.9346 -0.3840 -1.9696
63557SOL     OW 2649   9.535   2.149   8.728  0.1171  0.3693  0.8363
63557SOL    HW1 2650   9.553   2.187   8.813  1.1848  1.6241  0.0900
63557SOL    HW2 2651   9.598   2.077   8.719  0.6752  0.8591  0.7313
63558SOL     OW 2652  10.660  14.026   0.716 -0.0011 -0.5072  0.2792
63558SOL    HW1 2653  10.717  13.961   0.758 -0.9324 -0.6295  1.4272
63558SOL    HW2 2654  10.583  14.030   0.773 -0.6753  0.4258 -0.6567
63559SOL     OW 2655   7.438   8.116   8.709 -0.3093 -0.0743 -0.1297
63559SOL    HW1 2656   7.441   8.187   8.645 -0.4892 -0.6774 -0.8232
63559SOL    HW2 2657   7.432   8.037   8.656  1.2868 -0.7164  0.5821
63560SOL     OW 2658  13.736   8.435   4.572  0.6227 -0.6194 -0.0817
63560SOL    HW1 2659  13.668   8.386   4.525 -2.0597 -0.7094  3.4330
63560SOL    HW2 2660  13.809   8.373   4.578  0.0241 -1.5512 -1.7364
63561SOL     OW 2661  10.395   3.564  11.340 -0.1844  0.0804 -0.2165
63561SOL    HW1 2662  10.439   3.644  11.310  0.5536 -0.0133  0.5693
63561SOL    HW2 2663  10.304   3.576  11.314  0.3250  0.1903 -2.0630
63562SOL     OW 2664   0.782   9.693   5.953 -0.3770 -0.3690  0.4756
63562SOL    HW1 2665   0.780   9.758   6.023  0.7585  0.2342 -0.0205
63562SOL    HW2 2666   0.859   9.717   5.901  0.3481 -2.3622  0.5399
63563SOL     OW 2667   0.728   1.995   4.795  0.5784 -0.4189  0.0733
63563SOL    HW1 2668   0.797   2.037   4.744 -0.8364  1.3769 -0.5049
63563SOL    HW2 2669   0.704   1.918   4.743  1.2617 -0.3466 -0.3661
63564SOL     OW 2670   3.695   6.301   1.292  0.3740 -0.2485 -0.2873
63564SOL    HW1 2671   3.677   6.394   1.304  0.8026  0.1276 -2.1528
63564SOL    HW2 2672   3.609   6.262   1.277  0.3425  0.2345 -1.5296
63565SOL     OW 2673   4.047   9.536   7.430 -0.0191 -0.2987  0.1529
63565SOL    HW1 2674   4.062   9.588   7.351 -1.2523 -0.9943 -0.5657
63565SOL    HW2 2675   3.986   9.588   7.482  0.5059 -0.0085  0.4832
63566SOL     OW 2676  12.630   9.700   8.179 -0.1615 -0.2084 -0.3473
63566SOL    HW1 2677  12.657   9.779   8.225 -0.1430 -1.6754  2.4183
63566SOL    HW2 2678  12.695   9.634   8.204 -0.8293 -1.3832 -1.5751
63567SOL     OW 2679   8.785  12.243   9.771 -0.3050  0.2381  0.0328
63567SOL    HW1 2680   8.786  12.221   9.864 -1.2245 -0.9348 -0.2052
63567SOL    HW2 2681   8.845  12.181   9.731  0.5406  1.1239 -0.0915
63568SOL     OW 2682   1.434   8.071   6.517  0.3479 -0.0338  0.0787
63568SOL    HW1 2683   1.349   8.054   6.476  0.5732  0.1255 -0.4686
63568SOL    HW2 2684   1.413   8.100   6.606 -0.3164  2.2692 -0.7412
63569SOL     OW 2685  10.183   0.471   7.606  0.0110  0.2140 -0.5710
63569SOL    HW1 2686  10.133   0.553   7.609 -3.0500 -1.5358  0.5544
63569SOL    HW2 2687  10.179   0.444   7.514 -0.4574  0.5198 -0.6474
63570SOL     OW 2688   6.230   7.391   2.670 -0.4015  0.2929  0.8396
63570SOL    HW1 2689   6.229   7.478   2.709 -1.2266  0.4804  0.4327
63570SOL    HW2 2690   6.137   7.372   2.652 -0.1653 -0.3611  0.2666
63571SOL     OW 2691   1.278   9.335  10.131  0.0823 -0.2903  0.5758
63571SOL    HW1 2692   1.244   9.411  10.179  0.0897 -0.6693  1.1805
63571SOL    HW2 2693   1.273   9.263  10.193 -0.6551 -0.9646 -0.2516
63572SOL     OW 2694   2.119   6.728   6.341  0.1908  0.2391 -0.1596
63572SOL    HW1 2695   2.195   6.696   6.292  0.6719  0.5027  0.3986
63572SOL    HW2 2696   2.138   6.704   6.432 -0.7749 -0.4092 -0.1127
63573SOL     OW 2697   7.131   3.159   1.244  0.4982  0.6100 -0.5511
63573SOL    HW1 2698   7.038   3.167   1.226  0.2712 -1.2294 -0.3843
63573SOL    HW2 2699   7.137   3.147   1.338  0.6113 -2.1084 -0.8347
63574SOL     OW 2700  10.955  13.315   0.096  0.4514  0.1166 -0.3548
63574SOL    HW1 2701  10.948  13.219   0.087  0.0346  0.1565 -0.4640
63574SOL    HW2 2702  10.966  13.329   0.190  1.9692 -0.1227 -0.4621
63575SOL     OW 2703   9.294   1.001   5.987 -0.0763 -0.1192 -0.3032
63575SOL    HW1 2704   9.237   1.036   6.056  0.6013  0.7780 -0.1761
63575SOL    HW2 2705   9.237   0.997   5.909 -0.7396 -0.7599  0.2021
63576SOL     OW 2706   0.781  11.344   1.782 -0.1497  0.2106 -0.1120
63576SOL    HW1 2707   0.815  11.394   1.708 -0.9153 -3.2777 -3.0779
63576SOL    HW2 2708   0.691  11.376   1.793  0.6918  2.4314  1.0980
63577SOL     OW 2709   3.147   8.709  13.969 -0.3334  0.1520 -0.0615
63577SOL    HW1 2710   3.172   8.648  13.900 -0.3603  1.0965 -0.9195
63577SOL    HW2 2711   3.101   8.780  13.924  0.4946  1.2705  0.7829
63578SOL     OW 2712   4.549   6.868   2.758  0.0099 -0.1591  0.4681
63578SOL    HW1 2713   4.612   6.892   2.825  1.2695 -0.0170 -0.7169
63578SOL    HW2 2714   4.463   6.883   2.798  0.7295  1.1804  1.5686
63579SOL     OW 2715   6.775   1.334  10.572  0.4753  0.6959  0.1063
63579SOL    HW1 2716   6.725   1.385  10.508 -0.1202 -0.2789 -0.2358
63579SOL    HW2 2717   6.866   1.359  10.558  0.3475  0.4920 -1.1310
63580SOL     OW 2718   8.554   4.930   1.987  0.2234  0.3263  0.1492
63580SOL    HW1 2719   8.505   4.849   1.991 -0.9337  1.0055  0.2242
63580SOL    HW2 2720   8.513   4.986   2.053  1.7451  0.5864  0.9081
63581SOL     OW 2721   6.740   3.052  11.975  0.1655  0.2970 -0.6712
63581SOL    HW1 2722   6.753   3.096  11.891 -1.3097  0.1304 -1.0131
63581SOL    HW2 2723   6.723   2.961  11.952  3.6841 -0.6827  0.0531
63582SOL     OW 2724   5.590   1.689   4.629 -0.0114  0.1434  0.3317
63582SOL    HW1 2725   5.678   1.692   4.591  0.3543 -0.9654  1.0426
63582SOL    HW2 2726   5.572   1.779   4.654  0.6138  0.5143 -0.5013
63583SOL     OW 2727   7.511   8.932   0.196  0.4672 -0.0322 -0.3062
63583SOL    HW1 2728   7.500   8.894   0.283  1.6964  0.4601  0.0915
63583SOL    HW2 2729   7.463   9.015   0.199  1.2996  0.4410  0.2359
63584SOL     OW 2730   2.193   7.904   5.900 -0.1235  0.0689 -0.1121
63584SOL    HW1 2731   2.133   7.967   5.941  0.8503  0.7941  0.2619
63584SOL    HW2 2732   2.191   7.828   5.957  1.8751  1.3907  1.9187
63585SOL     OW 2733   8.997   3.286   1.989  0.1579  0.6712 -0.0602
63585SOL    HW1 2734   9.011   3.243   2.073  1.0727 -1.4870 -1.2172
63585SOL    HW2 2735   9.073   3.260   1.936 -0.2960  2.1202 -1.4893
63586SOL     OW 2736   7.584   4.515   6.149 -0.1883 -0.8103 -0.3246
63586SOL    HW1 2737   7.667   4.472   6.125 -0.1125 -0.5554 -0.5303
63586SOL    HW2 2738   7.527   4.444   6.176 -0.0090 -1.0245 -0.5059
63587SOL     OW 2739   4.425   6.806  12.882  0.0058 -0.4630  0.2029
63587SOL    HW1 2740   4.495   6.740  12.884  0.7889  0.3543  0.9443
63587SOL    HW2 2741   4.356   6.770  12.937  0.7510 -0.3370  1.2505
63588SOL     OW 2742   7.737   1.992   8.073 -0.3742 -0.1436 -0.4698
63588SOL    HW1 2743   7.645   1.965   8.082 -0.1882 -1.1600 -1.4307
63588SOL    HW2 2744   7.770   1.992   8.163 -1.6988  1.8083  0.1046
63589SOL     OW 2745  10.541   0.677  12.576  0.7737 -0.2390  0.1305
63589SOL    HW1 2746  10.494   0.760  12.568  0.1637 -0.7409 -1.9647
63589SOL    HW2 2747  10.503   0.635  12.654  1.3635  1.5603  1.4715
63590SOL     OW 2748  11.560  11.499   1.437 -0.9570  0.6082 -0.1707
63590SOL    HW1 2749  11.614  11.445   1.494 -1.4362 -0.4181 -0.6579
63590SOL    HW2 2750  11.614  11.575   1.417 -0.2091  0.2405  0.4241
63591SOL     OW 2751   9.357   3.393  13.928 -0.1697 -0.0109  0.3747
63591SOL    HW1 2752   9.357   3.439  14.013 -0.7101 -1.0600  0.9570
63591SOL    HW2 2753   9.312   3.311  13.945  0.7005 -0.7367 -0.6789
63592SOL     OW 2754   3.436  10.256  12.028  0.2704  0.2245 -0.0733
63592SOL    HW1 2755   3.347  10.223  12.017  1.2210 -2.2786 -1.1016
63592SOL    HW2 2756   3.470  10.263  11.939  1.3151  0.5311  0.3349
63593SOL     OW 2757   6.473   4.006  11.667  0.2424  0.2141 -0.4101
63593SOL    HW1 2758   6.455   3.934  11.727 -1.4936 -0.1731 -1.3296
63593SOL    HW2 2759   6.555   4.045  11.699  0.3038 -1.0890  1.1036
63594SOL     OW 2760  11.517   5.701  10.695  0.3669 -0.8241 -0.1057
63594SOL    HW1 2761  11.551   5.612  10.694  3.0013  0.0608  1.2654
63594SOL    HW2 2762  11.529   5.731  10.785 -1.8201  0.4627 -0.1695
63595SOL     OW 2763   3.571   0.391  11.335 -0.7406  0.8121  0.1495
63595SOL    HW1 2764   3.556   0.380  11.429  0.0867 -1.0463  0.1119
63595SOL    HW2 2765   3.638   0.458  11.329  0.8055 -0.5741  1.0536
63596SOL     OW 2766   1.628   3.274   5.567 -0.0221  0.0893  0.0119
63596SOL    HW1 2767   1.604   3.240   5.653  0.0549 -1.0391 -0.3981
63596SOL    HW2 2768   1.622   3.369   5.576  0.7646  0.0160  1.4828
63597SOL     OW 2769  10.243   5.813   2.690 -0.0019  0.6911 -0.2071
63597SOL    HW1 2770  10.272   5.828   2.600  1.2581  0.6731  0.1798
63597SOL    HW2 2771  10.175   5.746   2.682 -1.3484  2.0992 -1.3289
63598SOL     OW 2772   0.558  12.612   8.836 -0.1008 -0.9349 -0.3969
63598SOL    HW1 2773   0.603  12.544   8.786  1.1123 -0.2947 -0.2311
63598SOL    HW2 2774   0.629  12.661   8.877 -0.9679  0.1865 -0.2017
63599SOL     OW 2775   5.745   3.683   4.997  0.2816  0.2791 -0.3523
63599SOL    HW1 2776   5.702   3.604   4.963 -1.9823  1.8235 -1.3538
63599SOL    HW2 2777   5.835   3.656   5.015  0.0073 -2.1445 -2.1299
63600SOL     OW 2778   0.430   2.697   3.355 -0.0497  0.3127 -0.2335
63600SOL    HW1 2779   0.340   2.729   3.353 -0.8159 -1.6787  0.4655
63600SOL    HW2 2780   0.463   2.725   3.441  0.4485  2.0967 -0.9671
63601SOL     OW 2781   2.025   8.098   2.344 -0.7484  0.3378  0.1743
63601SOL    HW1 2782   2.008   8.005   2.326  2.5115 -0.4624  0.6147
63601SOL    HW2 2783   2.067   8.130   2.264 -1.4329  1.3453  0.2032
63602SOL     OW 2784   6.018  11.473   8.813  0.4146 -0.0053  0.0249
63602SOL    HW1 2785   5.961  11.543   8.843  0.8267  0.4657 -0.2779
63602SOL    HW2 2786   5.973  11.436   8.737  0.2475 -0.0048  0.1236
63603SOL     OW 2787   4.854   2.912   8.971  0.0226  0.1415 -0.2346
63603SOL    HW1 2788   4.830   2.999   9.002  0.1442 -0.3989  1.4583
63603SOL    HW2 2789   4.790   2.893   8.902 -0.4892  1.2378 -0.0829
63604SOL     OW 2790   2.459  10.561   8.409 -0.3455  0.4161  0.3341
63604SOL    HW1 2791   2.445  10.498   8.480  0.4573  0.2324  0.3367
63604SOL    HW2 2792   2.540  10.533   8.368 -0.2156  1.1865  0.0521
63605SOL     OW 2793   9.709   3.997  13.718  0.1850  0.4060 -0.1710
63605SOL    HW1 2794   9.778   3.935  13.742 -0.3287  0.1347  0.6704
63605SOL    HW2 2795   9.637   3.942  13.686  1.4779  0.8315 -4.2537
63606SOL     OW 2796   6.979   9.744   2.922  0.0215 -0.4924  0.0702
63606SOL    HW1 2797   7.073   9.726   2.923  0.4900  1.7433  1.6236
63606SOL    HW2 2798   6.956   9.748   2.829  0.8838 -3.4821 -0.3646
63607SOL     OW 2799  13.761   8.069  13.656 -0.0030  0.7939 -0.2866
63607SOL    HW1 2800  13.693   8.092  13.719  0.2097  0.6653 -0.0127
63607SOL    HW2 2801  13.769   8.147  13.600  2.0805  2.2241  1.8014
63608SOL     OW 2802  13.174   0.985   8.924  0.0530 -0.5394 -0.2661
63608SOL    HW1 2803  13.179   0.961   9.017 -3.0114  0.9843  0.4365
63608SOL    HW2 2804  13.118   0.918   8.885  1.2162 -1.0944 -1.0230
63609SOL     OW 2805  13.548   1.421   6.649  0.2234  0.4522 -0.6081
63609SOL    HW1 2806  13.476   1.412   6.711  1.1994  1.4272  0.7366
63609SOL    HW2 2807  13.508   1.459   6.571 -0.6055  1.8657  0.4510
63610SOL     OW 2808   0.522   8.468   1.222 -0.5689 -0.0024  0.2179
63610SOL    HW1 2809   0.477   8.455   1.306  1.6283  0.9456  1.6412
63610SOL    HW2 2810   0.457   8.445   1.156 -3.2487  1.6274  2.0860
63611SOL     OW 2811   3.262   7.518   9.458 -0.3233 -0.2757 -0.6107
63611SOL    HW1 2812   3.305   7.497   9.541  0.5615  0.7386 -0.7854
63611SOL    HW2 2813   3.334   7.528   9.396 -0.9297 -0.2719 -1.3260
63612SOL     OW 2814  12.434  10.449   2.792  0.7144 -0.3786  0.0245
63612SOL    HW1 2815  12.520  10.410   2.776 -0.0675 -2.0635 -0.3577
63612SOL    HW2 2816  12.426  10.450   2.888  1.3322  0.2113  0.0747
63613SOL     OW 2817   6.162   2.625   8.472 -0.2031  0.0816  0.0987
63613SOL    HW1 2818   6.239   2.638   8.528  0.3974 -1.4297 -0.3276
63613SOL    HW2 2819   6.105   2.700   8.492  1.2758  1.1403  0.5784
63614SOL     OW 2820   8.795   0.266   4.277  0.2828 -0.0783  0.2939
63614SOL    HW1 2821   8.853   0.225   4.340  0.3096 -0.3828  0.0705
63614SOL    HW2 2822   8.824   0.358   4.274  1.2894 -0.4072 -0.4300
63615SOL     OW 2823   1.143   4.003   0.189  0.2762 -0.1260  0.1302
63615SOL    HW1 2824   1.206   4.028   0.121 -0.5202 -0.3013 -0.6954
63615SOL    HW2 2825   1.109   4.086   0.222  1.0240 -0.0264  0.6741
63616SOL     OW 2826   2.415   8.689   7.336 -0.0478  0.0349 -0.4495
63616SOL    HW1 2827   2.466   8.726   7.408  0.6912 -1.3175 -0.2646
63616SOL    HW2 2828   2.351   8.632   7.379 -0.4515  0.2167 -0.7978
63617SOL     OW 2829  12.327   1.036   5.355  0.2329 -0.1494  0.2939
63617SOL    HW1 2830  12.257   1.004   5.412 -0.5410  1.2731  0.2100
63617SOL    HW2 2831  12.296   1.123   5.327  1.4153 -0.0701 -0.8491
63618SOL     OW 2832  12.251   8.805   9.483 -0.1906 -0.9324  0.2567
63618SOL    HW1 2833  12.339   8.767   9.484  0.2218  0.0157  0.6953
63618SOL    HW2 2834  12.195   8.732   9.454  0.9220 -1.1247 -1.6628
63619SOL     OW 2835  13.318  10.786   5.646  0.0735 -0.2321 -1.0969
63619SOL    HW1 2836  13.390  10.847   5.663  0.4353 -0.8562 -0.2915
63619SOL    HW2 2837  13.292  10.804   5.556  0.2028  1.0726 -0.9014
63620SOL     OW 2838  14.030   0.361  11.690  0.4899 -0.4426  0.1878
63620SOL    HW1 2839  14.041   0.308  11.769 -1.6793 -0.7021  0.3898
63620SOL    HW2 2840  14.070   0.309  11.621  2.0598 -0.3999  1.0209
63621SOL     OW 2841   1.447   7.501   8.318  0.2915  0.5769  0.1118
63621SOL    HW1 2842   1.380   7.514   8.385 -0.8454  0.6168 -1.0120
63621SOL    HW2 2843   1.405   7.523   8.236  1.4154 -0.2506 -0.7281
63622SOL     OW 2844   2.950   2.640   6.832  0.0871  0.1680  0.0831
63622SOL    HW1 2845   3.018   2.703   6.856  0.0720  0.2111  0.0156
63622SOL    HW2 2846   2.898   2.686   6.765  0.9606 -0.4570 -1.0600
63623SOL     OW 2847   1.046   4.773   2.796  0.1382  0.0586  0.3492
63623SOL    HW1 2848   1.008   4.699   2.844 -0.5792 -0.4227 -0.9098
63623SOL    HW2 2849   0.972   4.816   2.754  0.4440  2.0171  1.6947
63624SOL     OW 2850   0.852   7.519   2.941 -0.0426 -0.6557 -0.1885
63624SOL    HW1 2851   0.928   7.577   2.929 -1.0385  0.9444  0.8532
63624SOL    HW2 2852   0.781   7.563   2.896 -0.7796 -1.1655  0.4521
63625SOL     OW 2853   9.435  11.669   6.025  0.1694  0.0444  0.5724
63625SOL    HW1 2854   9.437  11.616   6.105 -0.0884  0.0288  0.5683
63625SOL    HW2 2855   9.354  11.645   5.982  0.2000  0.2188  0.4168
63626SOL     OW 2856   3.663   1.357   4.825 -0.3488 -0.2421 -0.1449
63626SOL    HW1 2857   3.697   1.444   4.849  2.7776 -1.3703  0.0293
63626SOL    HW2 2858   3.662   1.309   4.907 -0.1576 -0.9237 -0.5366
63627SOL     OW 2859  12.107   8.025  11.713  0.2763 -0.2346 -0.2117
63627SOL    HW1 2860  12.123   7.939  11.673 -0.6245  0.1195 -1.4115
63627SOL    HW2 2861  12.174   8.033  11.781  0.4872 -1.8045 -0.1971
63628SOL     OW 2862  13.606  11.353  10.998 -0.0187  0.2905 -0.5447
63628SOL    HW1 2863  13.697  11.346  11.029  0.3174  1.1355 -1.2987
63628SOL    HW2 2864  13.605  11.433  10.946 -1.2102  0.2899 -0.5398
63629SOL     OW 2865  10.804   6.166   0.018 -0.0765 -0.1577  0.8242
63629SOL    HW1 2866  10.723   6.114   0.016  0.6714 -1.3397  0.1383
63629SOL    HW2 2867  10.871   6.107  -0.016  0.5307  1.7793 -1.6739
63630SOL     OW 2868   5.320   3.465   1.671  0.2394 -0.2922 -0.6421
63630SOL    HW1 2869   5.323   3.561   1.675  1.5007 -0.3395  0.1931
63630SOL    HW2 2870   5.391   3.437   1.729  0.5614 -1.7189 -1.6755
63631SOL     OW 2871  13.515   4.170   5.895 -0.2833 -0.2110  0.1785
63631SOL    HW1 2872  13.422   4.177   5.915 -0.6866 -2.1335 -0.7550
63631SOL    HW2 2873  13.542   4.087   5.934  0.9525  0.1261  0.0834
63632SOL     OW 2874  11.016  10.649   7.663  0.3321  0.1790 -1.0180
63632SOL    HW1 2875  10.934  10.602   7.645  0.7453 -1.0604  0.1353
63632SOL    HW2 2876  11.015  10.663   7.757  1.0706  0.9146 -1.1105
63633SOL     OW 2877   4.028   8.548   3.956  0.1729  0.2129  0.2653
63633SOL    HW1 2878   3.953   8.495   3.981 -0.8975  1.4757 -0.1329
63633SOL    HW2 2879   4.103   8.489   3.963 -1.2278 -2.2252 -2.8410
63634SOL     OW 2880   3.647  11.378   9.558  0.1416  0.0811  0.0462
63634SOL    HW1 2881   3.601  11.452   9.597  1.1321  1.0794 -0.6274
63634SOL    HW2 2882   3.685  11.331   9.632 -1.3100 -0.3631  0.5636
63635SOL     OW 2883   0.661  12.751   0.222  0.8871 -0.3455 -0.3369
63635SOL    HW1 2884   0.583  12.796   0.189 -0.4094 -0.5679  2.1972
63635SOL    HW2 2885   0.727  12.821   0.228 -0.3469  0.7644  1.1993
63636SOL     OW 2886   5.915   1.009   7.714  0.0762 -0.4249  0.1758
63636SOL    HW1 2887   5.901   1.015   7.620 -0.1157  0.5450  0.2536
63636SOL    HW2 2888   6.010   1.008   7.725  0.1156 -2.1494 -0.0993
63637SOL     OW 2889  11.462   3.866   7.410  0.1898  0.0779 -0.1796
63637SOL    HW1 2890  11.410   3.902   7.481  1.7583 -0.3209  1.2182
63637SOL    HW2 2891  11.526   3.810   7.453  0.6809 -0.8189 -1.9750
63638SOL     OW 2892   0.579   1.057  12.118 -0.3186 -0.3704  0.2185
63638SOL    HW1 2893   0.594   0.986  12.057 -1.7417 -0.6681  0.2023
63638SOL    HW2 2894   0.562   1.014  12.202  1.0350  0.0189  0.7265
63639SOL     OW 2895   5.181  10.750   3.224 -0.2762  0.4859 -0.4595
63639SOL    HW1 2896   5.240  10.823   3.241  0.6196 -0.2403 -0.3710
63639SOL    HW2 2897   5.094  10.785   3.239  0.1862  1.3267  0.3071
63640SOL     OW 2898   3.832   1.585   2.501 -0.0000 -0.1635  0.3729
63640SOL    HW1 2899   3.880   1.668   2.508  0.4249 -0.5578  3.0055
63640SOL    HW2 2900   3.897   1.523   2.467 -0.0361  0.3113 -0.6175
63641SOL     OW 2901  13.429  11.497   8.299 -0.4195  0.5441 -0.3774
63641SOL    HW1 2902  13.492  11.425   8.298 -2.6899 -1.6709 -2.9928
63641SOL    HW2 2903  13.466  11.563   8.240  0.8284  0.7124  0.5626
63642SOL     OW 2904   7.392   0.040   9.452  0.0126  0.3848 -0.4070
63642SOL    HW1 2905   7.332  -0.013   9.504  0.7447  1.3535  1.5379
63642SOL    HW2 2906   7.337   0.107   9.412 -0.3431  0.8614  0.8176
63643SOL     OW 2907   0.258   1.639  12.395  0.2434  0.3277 -0.2900
63643SOL    HW1 2908   0.273   1.733  12.401 -1.0729  0.4799  1.0195
63643SOL    HW2 2909   0.315   1.611  12.323  1.5741  1.9071  0.0797
63644SOL     OW 2910   6.497  13.883  11.986 -0.1588  0.3600 -0.0038
63644SOL    HW1 2911   6.470  13.791  11.991  1.1638 -0.0321  0.1378
63644SOL    HW2 2912   6.450  13.917  11.910 -0.2445 -0.5734 -0.3835
63645SOL     OW 2913   8.623  13.283   7.773 -0.5510  0.0884 -0.6564
63645SOL    HW1 2914   8.580  13.244   7.849 -0.9826  1.5197 -0.1246
63645SOL    HW2 2915   8.679  13.214   7.739  0.4878 -0.2872  1.6242
63646SOL     OW 2916  13.762   6.313   8.595  0.7635  0.1605  0.1302
63646SOL    HW1 2917  13.752   6.395   8.644 -0.3293 -0.0421  0.2684
63646SOL    HW2 2918  13.840   6.327   8.541  0.4735  1.3781 -0.0032
63647SOL     OW 2919   1.933   2.162   5.353 -0.3011  0.1023 -0.1657
63647SOL    HW1 2920   1.992   2.154   5.428  1.1793  2.0312 -1.0329
63647SOL    HW2 2921   1.989   2.195   5.282 -1.8612 -0.7263 -1.8541
63648SOL     OW 2922   2.841   8.327   6.304 -0.5557 -0.0476 -0.4157
63648SOL    HW1 2923   2.762   8.289   6.266  0.7002 -2.6123 -0.6151
63648SOL    HW2 2924   2.836   8.305   6.397 -0.8849  1.3238 -0.0837
63649SOL     OW 2925   4.270  11.718   8.570  0.2135  0.2969  0.5135
63649SOL    HW1 2926   4.235  11.689   8.486  0.1460 -1.4657  1.0991
63649SOL    HW2 2927   4.233  11.657   8.633  1.2177  0.8423  1.6703
63650SOL     OW 2928   1.329  10.758  13.966  0.1995 -0.4152  1.3482
63650SOL    HW1 2929   1.314  10.717  14.051  0.6693 -2.5268  0.4630
63650SOL    HW2 2930   1.396  10.704  13.925 -0.5933  0.0807 -0.6833
63651SOL     OW 2931  11.433  13.290   0.070  0.0357 -0.0049 -0.1419
63651SOL    HW1 2932  11.358  13.302   0.012  0.4824 -1.3326 -1.0450
63651SOL    HW2 2933  11.399  13.236   0.142 -0.3614  1.1290  0.5568
63652SOL     OW 2934   8.697  10.828  13.447  0.3254  0.9554  0.1035
63652SOL    HW1 2935   8.730  10.917  13.452  0.6843  0.8109  0.3698
63652SOL    HW2 2936   8.640  10.819  13.524 -0.5058  1.2634 -0.4533
63653SOL     OW 2937   1.553   4.172  11.354  0.0977 -0.1375  0.2790
63653SOL    HW1 2938   1.496   4.248  11.343  1.3475  1.0442  1.5785
63653SOL    HW2 2939   1.632   4.194  11.306  1.5597  0.6584  2.8838
63654SOL     OW 2940   3.194   8.645   4.820 -0.5154 -0.4952 -0.6256
63654SOL    HW1 2941   3.132   8.701   4.772 -0.9857  1.7506  2.3164
63654SOL    HW2 2942   3.268   8.703   4.839  1.3366 -2.3880 -1.7424
63655SOL     OW 2943   1.116  10.045  10.513  0.4494  0.6223  0.1256
63655SOL    HW1 2944   1.131  10.128  10.468 -0.0032 -0.1601 -1.5500
63655SOL    HW2 2945   1.077   9.988  10.446  1.3385 -1.1396  1.0365
63656SOL     OW 2946   9.735   0.846   4.472  0.3538  0.3453 -0.0514
63656SOL    HW1 2947   9.673   0.908   4.435 -0.3834 -1.1846 -1.5346
63656SOL    HW2 2948   9.770   0.799   4.397  2.2460  0.1762  0.8732
63657SOL     OW 2949  10.142   8.958  10.448  0.6599  0.4196 -0.4363
63657SOL    HW1 2950  10.209   8.926  10.387  0.4740  0.5047 -0.6886
63657SOL    HW2 2951  10.110   9.039  10.407  0.1208  0.1638 -0.5149
63658SOL     OW 2952  13.122   6.497   3.866 -0.0280  0.1273  0.2708
63658SOL    HW1 2953  13.132   6.509   3.771 -1.4033  0.6313  0.1700
63658SOL    HW2 2954  13.205   6.457   3.894 -0.3424 -1.8762 -1.4478
63659SOL     OW 2955  13.320   7.692   3.184  0.0492 -0.9494 -0.2387
63659SOL    HW1 2956  13.284   7.683   3.096  2.4969 -0.5111 -1.3507
63659SOL    HW2 2957  13.405   7.648   3.180  0.9827  0.5651  1.3976
63660SOL     OW 2958  13.922   3.863  11.948  0.3825  0.1498 -0.5354
63660SOL    HW1 2959  13.990   3.826  12.004  0.5219 -1.1184 -1.5148
63660SOL    HW2 2960  13.845   3.809  11.964 -0.5098  1.7033  0.7197
63661SOL     OW 2961   3.144   1.845   2.120  0.0597  0.2051  0.2199
63661SOL    HW1 2962   3.112   1.856   2.209  0.3017 -2.2726  0.6917
63661SOL    HW2 2963   3.067   1.822   2.069 -0.0109  1.2081 -0.1361
63662SOL     OW 2964   5.818   4.135   5.537  0.2133  0.2115  0.2156
63662SOL    HW1 2965   5.855   4.159   5.452  0.2163  1.3826  0.5300
63662SOL    HW2 2966   5.768   4.056   5.520 -0.1327  0.6677 -0.9709
63663SOL     OW 2967  10.588   5.104  11.910 -0.5221 -0.0282 -0.3443
63663SOL    HW1 2968  10.598   5.192  11.874 -0.7847  0.0333 -0.2671
63663SOL    HW2 2969  10.502   5.105  11.952 -1.1253 -0.7484 -1.5477
63664SOL     OW 2970   9.710  11.408  11.605  0.1826 -0.1967 -0.5887
63664SOL    HW1 2971   9.751  11.450  11.680 -0.8652  0.0815 -0.1578
63664SOL    HW2 2972   9.644  11.471  11.575 -0.0519 -0.6990 -1.1519
63665SOL     OW 2973  13.492  10.228   5.564  0.3415 -0.0658 -0.0140
63665SOL    HW1 2974  13.585  10.206   5.577  0.4119 -0.0703 -0.4870
63665SOL    HW2 2975  13.485  10.320   5.588  0.4209 -0.1277  0.2465
63666SOL     OW 2976   9.979  13.153  12.867  0.2178 -0.4325 -0.1492
63666SOL    HW1 2977   9.991  13.128  12.959  0.8354 -2.4323 -0.7298
63666SOL    HW2 2978   9.897  13.111  12.841  1.5627 -2.4944 -1.3073
63667SOL     OW 2979   9.471  11.891   5.321 -0.5063  0.4715 -0.1310
63667SOL    HW1 2980   9.400  11.952   5.339 -0.9981  0.2920 -1.3646
63667SOL    HW2 2981   9.474  11.885   5.225 -0.0922 -0.9926 -0.0499
63668SOL     OW 2982   9.689  12.637   3.481  0.0765 -0.2925 -0.5064
63668SOL    HW1 2983   9.756  12.583   3.522  1.4639  1.7022  0.0467
63668SOL    HW2 2984   9.667  12.591   3.400  0.9965 -1.7805  0.0483
63669SOL     OW 2985   4.418   4.762  12.266  0.2316  0.8271 -0.0185
63669SOL    HW1 2986   4.393   4.680  12.308 -0.8515  1.9569  1.6320
63669SOL    HW2 2987   4.344   4.784  12.209  1.1606 -0.0491 -1.6670
63670SOL     OW 2988  10.792   7.659   6.506 -0.2214 -0.0235  0.5739
63670SOL    HW1 2989  10.820   7.724   6.440  1.4592  2.2973  3.3127
63670SOL    HW2 2990  10.848   7.583   6.489 -0.9070 -0.1411 -1.5417
63671SOL     OW 2991  11.801  11.811   6.291 -0.0355 -0.2172  0.5008
63671SOL    HW1 2992  11.887  11.850   6.272 -0.2100  0.4471  1.0132
63671SOL    HW2 2993  11.768  11.782   6.206 -0.8576  2.7606 -0.3459
63672SOL     OW 2994   3.370   7.924   4.731 -0.0492  0.8723 -0.6462
63672SOL    HW1 2995   3.315   7.862   4.683  0.5379 -1.5320  1.5507
63672SOL    HW2 2996   3.310   7.993   4.758 -1.9228 -1.2394  0.9749
63673SOL     OW 2997  11.018   6.213   8.874  0.2899 -0.4944  0.1076
63673SOL    HW1 2998  10.982   6.131   8.839 -0.8241 -0.5890  1.4321
63673SOL    HW2 2999  11.047   6.191   8.963 -2.0500  1.0142  1.3464
63674SOL     OW 3000   2.629   3.100   7.852  0.2158 -0.3249  0.0365
63674SOL    HW1 3001   2.581   3.128   7.930 -0.8751 -2.9634  0.4385
63674SOL    HW2 3002   2.715   3.142   7.860 -0.6891  1.3948  1.3674
63675SOL     OW 3003   7.168  10.775   7.676  0.1244 -0.3702 -0.1603
63675SOL    HW1 3004   7.161  10.683   7.651  1.2522 -0.3764 -0.4920
63675SOL    HW2 3005   7.144  10.823   7.596  0.6865 -0.3860 -0.3439
63676SOL     OW 3006   9.155  12.456  10.208 -0.0845  0.6125 -0.3582
63676SOL    HW1 3007   9.231  12.494  10.253  0.8240  1.4103 -2.4297
63676SOL    HW2 3008   9.184  12.367  10.185 -0.8534 -0.1033  1.2409
63677SOL     OW 3009   5.140  12.051  12.934 -0.2904 -0.4883  0.3360
63677SOL    HW1 3010   5.083  12.025  12.861 -1.3289 -1.1162  1.3277
63677SOL    HW2 3011   5.228  12.026  12.905 -0.4794  0.5279 -1.2491
63678SOL     OW 3012   6.844   8.301   8.958 -0.3239 -0.0060  0.4361
63678SOL    HW1 3013   6.846   8.241   9.033  0.8814 -0.8202 -0.2046
63678SOL    HW2 3014   6.870   8.386   8.994 -0.6468 -0.1833  1.0992
63679SOL     OW 3015  13.626   3.379   5.667 -0.1627 -0.0259 -0.8246
63679SOL    HW1 3016  13.535   3.370   5.638 -1.1713 -0.5810  2.2238
63679SOL    HW2 3017  13.661   3.449   5.611 -1.9419 -0.8108 -3.1127
63680SOL     OW 3018   1.907   3.047   6.795  0.4179  0.0535 -0.2257
63680SOL    HW1 3019   1.964   3.027   6.869  1.6696  0.7748 -0.9706
63680SOL    HW2 3020   1.837   2.982   6.801 -0.1503  0.7697  2.2357
63681SOL     OW 3021  12.946  13.252   7.975 -0.2483 -0.7032  0.0313
63681SOL    HW1 3022  12.967  13.158   7.980  0.2673 -0.5796  0.2832
63681SOL    HW2 3023  12.852  13.255   7.963 -0.4340 -1.2331  1.2051
63682SOL     OW 3024   9.018   6.787   3.770  0.3835  0.0438  0.0475
63682SOL    HW1 3025   9.087   6.839   3.810 -0.2072 -0.9152  2.4787
63682SOL    HW2 3026   9.025   6.806   3.676  1.8524  2.4079  0.5521
63683SOL     OW 3027   7.806   5.639   2.317 -0.0627  0.2271 -0.2323
63683SOL    HW1 3028   7.785   5.612   2.228  0.9060 -1.0023 -0.1156
63683SOL    HW2 3029   7.769   5.570   2.372 -1.1556  1.2571  0.3845
63684SOL     OW 3030   4.662   2.102   8.892  0.0892 -0.3337 -0.0966
63684SOL    HW1 3031   4.740   2.095   8.838  0.1963 -0.0392  0.0193
63684SOL    HW2 3032   4.591   2.069   8.837  0.0671  0.6649 -0.6890
63685SOL     OW 3033   7.752   1.169   7.660 -0.0027 -0.5575  0.1706
63685SOL    HW1 3034   7.708   1.222   7.593  0.7943  0.5340  0.4684
63685SOL    HW2 3035   7.764   1.084   7.619  0.2561  0.0186 -1.0064
63686SOL     OW 3036  11.085   2.305   7.317  0.7803  0.3749 -0.1395
63686SOL    HW1 3037  11.072   2.398   7.302  0.5259  0.3518 -0.0570
63686SOL    HW2 3038  10.997   2.267   7.317  0.9419 -0.0284 -1.2441
63687SOL     OW 3039   1.187   4.127   5.160  0.0277  0.1990 -0.1873
63687SOL    HW1 3040   1.121   4.127   5.090  0.5042 -0.0222 -0.6495
63687SOL    HW2 3041   1.139   4.102   5.239 -0.4284 -0.0121 -0.5263
63688SOL     OW 3042   4.465   3.756   9.141  0.1094 -0.3026  0.0377
63688SOL    HW1 3043   4.407   3.820   9.100  1.2181  0.8996  0.2878
63688SOL    HW2 3044   4.407   3.686   9.171 -1.1357  0.6002 -0.2189
63689SOL     OW 3045   0.839   0.044  10.228 -0.6120 -0.2974 -0.2441
63689SOL    HW1 3046   0.837   0.081  10.316  0.2564  0.5799 -0.5705
63689SOL    HW2 3047   0.838   0.120  10.170 -0.4008 -0.8369 -0.9737
63690SOL     OW 3048  10.006  11.381   5.367  0.4664  0.5073 -0.3213
63690SOL    HW1 3049   9.920  11.338   5.369  1.1365 -0.8808  1.6998
63690SOL    HW2 3050  10.059  11.325   5.311  0.4062  0.6374 -0.5082
63691SOL     OW 3051   1.145   5.399   1.289 -0.5642 -1.0843  0.2694
63691SOL    HW1 3052   1.236   5.419   1.307 -0.5802 -1.4934  0.8361
63691SOL    HW2 3053   1.134   5.308   1.317 -0.3781 -2.0890 -2.5585
63692SOL     OW 3054   0.634   6.773   3.131 -0.4165  0.0215 -0.2611
63692SOL    HW1 3055   0.630   6.854   3.182 -0.9159 -0.3801  0.3573
63692SOL    HW2 3056   0.718   6.733   3.156 -0.8790 -0.4205  0.6648
63693SOL     OW 3057   3.505   0.103   7.978  0.0878  0.1313 -0.7000
63693SOL    HW1 3058   3.421   0.127   8.016  1.2636  0.0437  2.1850
63693SOL    HW2 3059   3.543   0.185   7.948 -0.4213  0.3654 -0.7083
63694SOL     OW 3060  11.069   7.798   3.028 -0.2600 -0.1987  0.0747
63694SOL    HW1 3061  11.092   7.890   3.033  0.3259 -0.0500 -3.3133
63694SOL    HW2 3062  11.142   7.757   2.982 -1.0668 -2.1454  0.4295
63695SOL     OW 3063   4.547   4.466  12.026  0.4061  0.0749  0.4711
63695SOL    HW1 3064   4.506   4.380  12.017 -1.1153  0.6518  1.5172
63695SOL    HW2 3065   4.588   4.463  12.113  0.4752  0.3647  0.4492
63696SOL     OW 3066  10.454  13.987   9.767  0.3737 -0.0685  0.1491
63696SOL    HW1 3067  10.465  14.007   9.674 -0.1221 -0.1755  0.0660
63696SOL    HW2 3068  10.503  13.906   9.781  1.6936  0.7201  0.3036
63697SOL     OW 3069  14.039   1.362   6.885  0.0256  0.2006  0.1441
63697SOL    HW1 3070  14.057   1.268   6.885  0.4176  0.2734  0.4280
63697SOL    HW2 3071  13.944   1.368   6.891  0.0163 -0.1774  0.4216
63698SOL     OW 3072   2.958   7.849  12.856 -0.3895 -0.4393 -0.9613
63698SOL    HW1 3073   2.864   7.850  12.872 -0.2771 -1.9823  0.0367
63698SOL    HW2 3074   2.968   7.879  12.765 -1.7207  0.8278 -0.7285
63699SOL     OW 3075  10.973   4.802  12.720  0.0228  0.3344 -0.2173
63699SOL    HW1 3076  10.897   4.860  12.726  0.3227  0.7901 -0.7199
63699SOL    HW2 3077  10.986   4.771  12.810 -1.2040 -0.3401 -0.2546
63700SOL     OW 3078  10.450  12.408   8.632 -0.5160 -0.6773 -0.4490
63700SOL    HW1 3079  10.374  12.352   8.648 -0.2120 -0.7969  0.7296
63700SOL    HW2 3080  10.415  12.485   8.587 -1.7379  0.2041  1.8296
63701SOL     OW 3081   1.661   7.434   0.715 -0.1595 -0.4110 -0.0896
63701SOL    HW1 3082   1.733   7.458   0.657  0.0496 -0.3600  0.1883
63701SOL    HW2 3083   1.628   7.352   0.680  0.6409 -0.9251  0.3221
63702SOL     OW 3084   1.143   2.055   0.495  0.0782 -0.0328  0.3573
63702SOL    HW1 3085   1.235   2.060   0.523  0.2859  0.1803 -0.3327
63702SOL    HW2 3086   1.119   2.146   0.474  0.1304 -0.2461 -0.7224
63703SOL     OW 3087   8.533   3.489  12.445 -0.0246  0.2544 -0.2913
63703SOL    HW1 3088   8.575   3.547  12.382 -0.8894 -0.2674 -1.3753
63703SOL    HW2 3089   8.440   3.512  12.443 -0.2257 -0.4782  0.0110
63704SOL     OW 3090   9.392   5.765  13.256 -0.7563 -0.7478 -0.4382
63704SOL    HW1 3091   9.309   5.741  13.298 -0.9157  1.7009  0.7939
63704SOL    HW2 3092   9.457   5.749  13.324 -0.6046  0.1670 -0.3640
63705SOL     OW 3093   7.442   3.655   3.475 -0.1778  0.0664 -0.3907
63705SOL    HW1 3094   7.518   3.597   3.476 -0.4100 -0.2815 -1.7263
63705SOL    HW2 3095   7.427   3.675   3.567  0.5644 -1.1279  0.0172
63706SOL     OW 3096   3.891   9.949   5.901 -0.6834 -0.4939 -0.0592
63706SOL    HW1 3097   3.910  10.040   5.925 -2.3012 -0.0136 -0.5097
63706SOL    HW2 3098   3.904   9.900   5.982  1.2645 -0.0677 -0.0573
63707SOL     OW 3099  13.812   2.899   4.738  0.4428 -0.4457 -0.5341
63707SOL    HW1 3100  13.769   2.944   4.665  0.8080  0.1365 -0.3973
63707SOL    HW2 3101  13.871   2.837   4.696  1.3284  0.5209 -0.7634
63708SOL     OW 3102   4.997   9.240   6.064  0.2574  0.0990  0.1349
63708SOL    HW1 3103   5.067   9.297   6.032  0.3481  0.2294  0.5571
63708SOL    HW2 3104   4.981   9.179   5.992 -0.6423  1.3661 -0.7852
63709SOL     OW 3105   6.905   4.044   6.936  0.1392 -0.5254  0.0588
63709SOL    HW1 3106   6.945   4.096   7.006 -1.1771 -0.9510  1.1592
63709SOL    HW2 3107   6.979   4.000   6.894  1.2045  1.5069 -0.3489
63710SOL     OW 3108  11.457   4.217   9.668  0.1625 -0.3698  0.1439
63710SOL    HW1 3109  11.437   4.301   9.628 -0.8611 -1.7459 -2.4786
63710SOL    HW2 3110  11.447   4.232   9.762 -1.3697  2.0712 -0.3305
63711SOL     OW 3111   7.463   2.504   6.849 -0.4998  0.5318 -0.4154
63711SOL    HW1 3112   7.489   2.470   6.763 -1.3219 -2.0079  0.2539
63711SOL    HW2 3113   7.376   2.468   6.863  0.4909 -1.0099  2.4310
63712SOL     OW 3114   8.013  10.637  12.612 -0.1118  0.4318  0.3285
63712SOL    HW1 3115   8.075  10.598  12.550 -0.7091  0.7838 -0.5005
63712SOL    HW2 3116   8.054  10.623  12.698  0.4212 -0.6277 -0.0762
63713SOL     OW 3117  11.572   4.704   2.867 -0.1619 -0.0915  0.5311
63713SOL    HW1 3118  11.643   4.740   2.920  0.4843  0.9206 -0.9555
63713SOL    HW2 3119  11.544   4.777   2.811 -0.2541 -1.3066 -1.0908
63714SOL     OW 3120  12.260   2.641  10.624 -0.0675 -0.2986 -0.3812
63714SOL    HW1 3121  12.192   2.593  10.671  0.8988 -1.2736  0.0591
63714SOL    HW2 3122  12.292   2.580  10.558  0.7423 -0.0486 -0.2351
63715SOL     OW 3123   9.558   3.100   0.795 -0.9070  0.2793 -0.0565
63715SOL    HW1 3124   9.486   3.140   0.842  0.1752  0.4144  1.5433
63715SOL    HW2 3125   9.631   3.161   0.804 -0.1396 -0.5675 -0.3000
63716SOL     OW 3126   4.842  10.012   2.258 -0.5262 -0.1657  0.1394
63716SOL    HW1 3127   4.783  10.071   2.305  0.3477  0.0835  0.9721
63716SOL    HW2 3128   4.899   9.977   2.326  0.9770  0.4258 -0.7589
63717SOL     OW 3129   7.652   0.646   9.696  0.0661 -0.2425 -0.1836
63717SOL    HW1 3130   7.744   0.660   9.718  0.0348  2.8061 -1.5099
63717SOL    HW2 3131   7.603   0.692   9.765 -0.3249  0.8767 -1.1762
63718SOL     OW 3132  12.847   6.517   7.988 -0.3309  0.3697 -0.5658
63718SOL    HW1 3133  12.830   6.498   7.895  0.5857 -2.7662 -0.2092
63718SOL    HW2 3134  12.940   6.500   7.999 -0.9371 -2.1765  1.4582
63719SOL     OW 3135   9.654  12.864  13.984 -0.2811 -0.2099  0.1537
63719SOL    HW1 3136   9.728  12.808  14.007 -0.0494 -0.3229 -0.8398
63719SOL    HW2 3137   9.610  12.880  14.068  1.7168  1.1140  1.0292
63720SOL     OW 3138   6.718  13.181  11.234  0.1156  0.0117 -0.7235
63720SOL    HW1 3139   6.623  13.187  11.224  0.1629  1.6054 -0.5639
63720SOL    HW2 3140   6.748  13.272  11.230  1.7540 -0.5330 -1.7728
63721SOL     OW 3141   3.628  11.435   6.654  0.7691  0.2695  0.4039
63721SOL    HW1 3142   3.709  11.447   6.605 -0.1414  1.4233 -0.9083
63721SOL    HW2 3143   3.597  11.525   6.670 -1.0219 -0.1426 -0.5158
63722SOL     OW 3144   2.372   5.544   8.794 -0.1153  0.1966 -0.4707
63722SOL    HW1 3145   2.341   5.584   8.713  0.4956  0.0486 -0.7803
63722SOL    HW2 3146   2.298   5.553   8.855  0.2857  2.6508 -0.2305
63723SOL     OW 3147   3.424  10.896  13.157  0.2378 -0.0763 -0.4555
63723SOL    HW1 3148   3.473  10.873  13.236  0.7510  1.5691 -0.2516
63723SOL    HW2 3149   3.440  10.823  13.097 -0.0179 -1.2755  0.8715
63724SOL     OW 3150   4.297   7.145  12.848 -0.6592 -0.0700 -0.2503
63724SOL    HW1 3151   4.383   7.128  12.888 -0.9995  1.7020  1.3366
63724SOL    HW2 3152   4.317   7.191  12.766 -0.0821  0.4989  0.2010
63725SOL     OW 3153   2.812   4.580   6.796 -0.2943 -0.9933 -0.0518
63725SOL    HW1 3154   2.826   4.494   6.758 -1.7258 -1.0063 -0.5816
63725SOL    HW2 3155   2.821   4.641   6.723 -0.6243 -0.8117  0.0563
63726SOL     OW 3156   2.105  13.635   9.577  0.4283  0.0285  0.2940
63726SOL    HW1 3157   2.066  13.708   9.625 -0.5256 -0.1310 -0.2393
63726SOL    HW2 3158   2.034  13.599   9.524  1.7117  0.9206 -2.1773
63727SOL     OW 3159  11.273   2.977   9.468  0.0675  0.1279 -0.4572
63727SOL    HW1 3160  11.251   2.930   9.388  0.4530  2.7229 -2.2140
63727SOL    HW2 3161  11.369   2.980   9.469  0.0783 -0.2102  0.3285
63728SOL     OW 3162   3.041   9.498   1.435  0.6509  0.4313  0.4997
63728SOL    HW1 3163   3.000   9.585   1.436  0.8335  0.5195  1.8220
63728SOL    HW2 3164   3.134   9.515   1.452  0.5238 -0.0837  1.8265
63729SOL     OW 3165   1.233   0.272  13.414  0.3506 -0.2852 -0.2427
63729SOL    HW1 3166   1.166   0.203  13.421 -1.2662  1.1432 -0.8940
63729SOL    HW2 3167   1.261   0.269  13.323  2.1393 -1.6897  0.3111
63730SOL     OW 3168  13.452   0.688   6.431 -0.7952  0.3601  0.8566
63730SOL    HW1 3169  13.407   0.760   6.387 -0.5034  0.7146  1.1376
63730SOL    HW2 3170  13.386   0.619   6.437 -0.5632 -0.0917 -1.0759
63731SOL     OW 3171   0.541   2.113   9.196 -0.8906 -0.0524 -0.5887
63731SOL    HW1 3172   0.599   2.146   9.127 -1.4245  0.3704 -0.8461
63731SOL    HW2 3173   0.549   2.018   9.190  0.2056  0.0049 -0.2428
63732SOL     OW 3174  13.684   2.786  11.932  0.0908 -0.3498 -0.2689
63732SOL    HW1 3175  13.712   2.878  11.934 -0.5373 -0.0523 -2.4243
63732SOL    HW2 3176  13.589   2.790  11.937  0.0513 -0.8715 -0.5302
63733SOL     OW 3177   9.743  10.272   8.623  0.4033 -0.1961  0.5514
63733SOL    HW1 3178   9.814  10.207   8.620  1.1836  0.4751  2.5474
63733SOL    HW2 3179   9.786  10.353   8.652 -0.9143  0.6428  0.2336
63734SOL     OW 3180   9.597  11.240   5.106 -0.2701 -0.5823  0.1466
63734SOL    HW1 3181   9.554  11.168   5.060 -1.8854  1.0140 -0.9857
63734SOL    HW2 3182   9.585  11.220   5.199  2.4619 -3.5338  0.0167
63735SOL     OW 3183   1.492   1.260   4.271 -0.3222  0.3492  0.6379
63735SOL    HW1 3184   1.482   1.168   4.292  0.0873  0.2060  0.2320
63735SOL    HW2 3185   1.419   1.279   4.212  0.6629 -0.2165 -0.8234
63736SOL     OW 3186   1.612   7.947  11.460  0.1561 -0.4166 -0.0052
63736SOL    HW1 3187   1.578   8.036  11.465  1.9452  0.2608  1.3179
63736SOL    HW2 3188   1.589   7.908  11.544  1.2125 -0.4698  0.2694
63737SOL     OW 3189   1.361   6.559   3.091 -0.1749 -0.2837 -0.5063
63737SOL    HW1 3190   1.389   6.597   3.175  0.1801 -1.1329 -0.2307
63737SOL    HW2 3191   1.275   6.523   3.109 -0.1971 -0.2631 -0.5714
63738SOL     OW 3192   8.224   7.478  10.703  0.6387 -0.8078 -0.4475
63738SOL    HW1 3193   8.237   7.387  10.728  0.7053 -1.0377 -1.2996
63738SOL    HW2 3194   8.230   7.479  10.607 -0.0498 -0.0276 -0.5057
63739SOL     OW 3195   5.383   7.649  12.833  0.0049  0.0452 -0.4013
63739SOL    HW1 3196   5.309   7.690  12.789 -0.4772  0.2123  0.5378
63739SOL    HW2 3197   5.440   7.619  12.762 -0.3817  0.9725 -1.1166
63740SOL     OW 3198   4.837  13.619   9.852  0.0533  0.1951  0.1345
63740SOL    HW1 3199   4.910  13.558   9.841 -0.1808  0.2239 -1.9552
63740SOL    HW2 3200   4.763  13.564   9.877 -0.2037 -0.4753 -1.9100
63741SOL     OW 3201   5.289   1.288   1.203  0.0094  0.1933  0.0573
63741SOL    HW1 3202   5.232   1.364   1.192  1.7290  2.0601  2.7494
63741SOL    HW2 3203   5.238   1.226   1.254 -1.1942 -0.3058 -1.6519
63742SOL     OW 3204   2.852   1.736  12.474  0.6019 -0.0442  0.5072
63742SOL    HW1 3205   2.853   1.832  12.476 -0.3075  0.0212 -0.8680
63742SOL    HW2 3206   2.944   1.711  12.482  0.8582  0.9524  0.7669
63743SOL     OW 3207   0.659  13.814  11.059  0.2541  0.0593  0.0439
63743SOL    HW1 3208   0.676  13.876  11.130  0.8874 -1.0858  0.9202
63743SOL    HW2 3209   0.650  13.869  10.981 -0.9918  1.3824  1.0681
63744SOL     OW 3210   8.591   3.556  10.367 -0.4657 -0.0405 -0.0782
63744SOL    HW1 3211   8.672   3.555  10.315 -1.1529 -0.6974 -1.1685
63744SOL    HW2 3212   8.597   3.476  10.420 -0.0104  0.3619  0.5014
63745SOL     OW 3213   2.395  10.550   1.991  0.0303  0.1501 -0.3369
63745SOL    HW1 3214   2.356  10.526   2.075  0.2221  1.4792  0.1592
63745SOL    HW2 3215   2.350  10.631   1.966  0.5235  0.1885 -1.1351
63746SOL     OW 3216   6.143   9.818   8.093  0.3680  0.1231  0.4951
63746SOL    HW1 3217   6.127   9.912   8.104  0.2970  0.1824 -0.1065
63746SOL    HW2 3218   6.234   9.813   8.064  0.2270  0.0382  0.0653
63747SOL     OW 3219   4.643   0.732   8.283  0.1334  0.2413  0.2565
63747SOL    HW1 3220   4.644   0.827   8.275 -1.1181  0.3162  0.7625
63747SOL    HW2 3221   4.709   0.713   8.350  0.3746  0.7498  0.1696
63748SOL     OW 3222  11.896   6.559   2.117 -0.2250 -0.5231  0.0532
63748SOL    HW1 3223  11.911   6.553   2.022  1.5815 -0.5012  0.3058
63748SOL    HW2 3224  11.907   6.470   2.149  2.1585 -0.1117  0.5854
63749SOL     OW 3225  12.045  13.446  12.060 -0.3558 -0.3942  0.0458
63749SOL    HW1 3226  12.012  13.401  11.982  0.8606 -0.8598 -0.2390
63749SOL    HW2 3227  12.026  13.387  12.133  1.5302 -1.6297 -0.3642
63750SOL     OW 3228  12.660   0.488   0.011  0.5048  0.4739 -0.0586
63750SOL    HW1 3229  12.718   0.414   0.028 -0.2906 -0.0860  0.2795
63750SOL    HW2 3230  12.638   0.522   0.098 -1.4036 -0.6952 -0.0379
63751SOL     OW 3231  11.352  11.352   9.229  0.1482 -0.4567  0.3813
63751SOL    HW1 3232  11.353  11.431   9.174 -0.2967 -1.7935 -1.6616
63751SOL    HW2 3233  11.266  11.313   9.212  0.7181 -1.8462  0.6229
63752SOL     OW 3234   3.168   2.752   8.104  0.2062 -0.3844  0.0647
63752SOL    HW1 3235   3.181   2.842   8.071 -0.6034 -0.7979 -1.5036
63752SOL    HW2 3236   3.121   2.764   8.187 -0.3861  0.6479 -0.3870
63753SOL     OW 3237   2.221   1.961   9.272  0.5363  0.1544 -0.1510
63753SOL    HW1 3238   2.292   1.979   9.335 -0.9123 -0.3515  1.7218
63753SOL    HW2 3239   2.251   2.002   9.191  2.6319  0.6000  0.7616
63754SOL     OW 3240   0.390   7.097  13.068 -0.4277 -0.0571  0.1004
63754SOL    HW1 3241   0.403   7.190  13.084 -1.2561 -0.0497  0.8071
63754SOL    HW2 3242   0.295   7.087  13.061 -0.2804 -0.6258 -1.4529
63755SOL     OW 3243   0.506  12.088  10.101  0.2688  0.5217  0.1251
63755SOL    HW1 3244   0.538  12.047  10.020  1.3192  0.2707  0.6485
63755SOL    HW2 3245   0.420  12.122  10.078  0.2775 -0.1172 -0.9208
63756SOL     OW 3246   7.806   4.308   0.706 -0.3762 -0.1840  0.0471
63756SOL    HW1 3247   7.843   4.395   0.718 -0.9167 -0.0144  0.5215
63756SOL    HW2 3248   7.830   4.283   0.617 -1.7132  1.1598 -0.7161
63757SOL     OW 3249   2.942   8.516   9.663  0.8963 -0.4301  0.2251
63757SOL    HW1 3250   2.988   8.585   9.712  0.9250  0.1446 -0.5916
63757SOL    HW2 3251   2.850   8.529   9.684  0.8756  0.0450 -0.1606
63758SOL     OW 3252  13.766   5.903   7.761  0.5938  0.3590  0.0586
63758SOL    HW1 3253  13.711   5.934   7.688  0.3214  0.4458  0.3003
63758SOL    HW2 3254  13.758   5.808   7.757  2.3414  0.2138 -1.4021
63759SOL     OW 3255   7.003   1.331   3.692 -0.2071 -0.2448 -0.0215
63759SOL    HW1 3256   7.080   1.280   3.665 -0.2752  0.0227 -0.7479
63759SOL    HW2 3257   6.964   1.280   3.763  1.2400  0.1429  1.0846
63760SOL     OW 3258   0.820  13.330   5.596  0.4590  0.0174  0.3541
63760SOL    HW1 3259   0.729  13.360   5.596  0.4472  0.5261 -3.3427
63760SOL    HW2 3260   0.866  13.394   5.650 -1.0454  1.0863  0.4463
63761SOL     OW 3261   8.211   8.899   4.741  0.1603  0.4949  0.3836
63761SOL    HW1 3262   8.284   8.924   4.685 -0.2391  0.9027  0.0361
63761SOL    HW2 3263   8.250   8.844   4.809  0.3075 -2.3832 -1.8182
63762SOL     OW 3264   9.481   9.452   8.338 -0.2004  0.2954 -0.3342
63762SOL    HW1 3265   9.565   9.409   8.355  0.2964  0.4036 -2.2947
63762SOL    HW2 3266   9.428   9.432   8.415  1.6175  0.2554  0.9612
63763SOL     OW 3267   8.622   4.709   6.089 -0.3688 -0.2926 -0.0892
63763SOL    HW1 3268   8.585   4.621   6.090 -1.2876  0.0299 -1.7290
63763SOL    HW2 3269   8.717   4.696   6.087 -0.5048 -1.3090 -1.8585
63764SOL     OW 3270   4.361   5.118   9.774  0.0045 -0.0243  0.6529
63764SOL    HW1 3271   4.312   5.086   9.850 -1.7087 -0.7289 -0.6906
63764SOL    HW2 3272   4.364   5.044   9.714 -0.4232  1.0992 -0.7958
63765SOL     OW 3273   4.607   8.106   9.060 -0.2651 -0.2807 -0.0687
63765SOL    HW1 3274   4.521   8.148   9.051 -0.3588 -0.3248  0.5556
63765SOL    HW2 3275   4.642   8.104   8.971  0.1948  2.0640 -0.0202
63766SOL     OW 3276   7.452   9.329   5.699 -0.6246 -0.4484  0.4105
63766SOL    HW1 3277   7.416   9.416   5.712 -0.9800 -0.7516  1.5858
63766SOL    HW2 3278   7.542   9.335   5.731 -0.3381 -0.2677 -0.4182
63767SOL     OW 3279   8.862   9.021   6.300 -0.2886 -0.9506  0.4358
63767SOL    HW1 3280   8.778   9.055   6.332  0.7226  0.3627  1.8487
63767SOL    HW2 3281   8.858   9.034   6.206 -0.8990  1.0310  0.6745
63768SOL     OW 3282   2.379   3.902   0.868 -0.6038  0.0077 -0.0694
63768SOL    HW1 3283   2.332   3.879   0.788  0.1283  1.9398 -1.1298
63768SOL    HW2 3284   2.433   3.977   0.843  0.6841 -0.1961  1.9018
63769SOL     OW 3285   7.896   3.558   1.217 -0.0273 -0.8278 -0.7809
63769SOL    HW1 3286   7.924   3.622   1.151  1.2139 -3.3096 -2.8727
63769SOL    HW2 3287   7.826   3.509   1.174 -1.1906 -0.6983  0.8975
63770SOL     OW 3288   1.375  12.244   0.579  0.4757 -0.4009  0.3379
63770SOL    HW1 3289   1.361  12.166   0.525 -1.6481  1.0277 -1.3805
63770SOL    HW2 3290   1.338  12.221   0.664 -0.9132 -1.0163 -0.4020
63771SOL     OW 3291   7.856   6.584   0.001 -0.3191  0.1946 -0.6773
63771SOL    HW1 3292   7.861   6.672  -0.038  0.6716 -0.1334 -1.3352
63771SOL    HW2 3293   7.900   6.528  -0.063 -2.8682 -1.1688 -1.3195
63772SOL     OW 3294  12.560   9.953  13.721 -0.1516 -0.0844 -0.5291
63772SOL    HW1 3295  12.543   9.918  13.809  0.6452 -0.1655 -0.3974
63772SOL    HW2 3296  12.486   9.921  13.669 -0.5005 -0.2558  0.0492
63773SOL     OW 3297   2.823   2.310  10.710 -0.0770 -0.3204 -0.9794
63773SOL    HW1 3298   2.834   2.379  10.644  3.6163 -1.0242 -1.3378
63773SOL    HW2 3299   2.789   2.235  10.661 -0.2779  0.0747 -1.4496
63774SOL     OW 3300  11.881   6.221  12.663  0.3139 -0.2189 -0.7352
63774SOL    HW1 3301  11.816   6.198  12.597 -2.2071  0.5204  1.3162
63774SOL    HW2 3302  11.853   6.306  12.696  2.3051  0.0904  0.3178
63775SOL     OW 3303  13.720   5.005   4.545  0.1459 -0.1179 -0.4164
63775SOL    HW1 3304  13.688   5.048   4.466 -0.4074 -0.2572 -0.2771
63775SOL    HW2 3305  13.794   5.058   4.573 -0.1257  0.3748 -0.6063
63776SOL     OW 3306  11.050   4.309   4.333 -0.1489  0.5261 -0.4674
63776SOL    HW1 3307  10.969   4.291   4.284  0.8616 -1.5872 -1.4957
63776SOL    HW2 3308  11.119   4.299   4.268  1.0861  0.2286  0.8498
63777SOL     OW 3309   7.578   0.279  12.729 -0.0845  0.1466  0.8262
63777SOL    HW1 3310   7.583   0.184  12.726  1.1283  0.2183 -0.3256
63777SOL    HW2 3311   7.544   0.304  12.643  2.2009  0.8392  0.0532
63778SOL     OW 3312  11.801   2.694  10.021  0.5517 -0.3202  0.4591
63778SOL    HW1 3313  11.840   2.733   9.942  0.1433  0.4629  0.6367
63778SOL    HW2 3314  11.737   2.632   9.988  0.3904 -0.0028  0.1652
63779SOL     OW 3315   4.115   7.673   2.920  0.2849  0.0800 -0.3482
63779SOL    HW1 3316   4.123   7.650   3.012 -0.6948  0.1999 -0.2210
63779SOL    HW2 3317   4.113   7.590   2.873  0.2860  0.0065 -0.2159
63780SOL     OW 3318   0.529   7.906   9.437 -0.1762  0.0390  0.6874
63780SOL    HW1 3319   0.516   7.811   9.430  0.6517 -0.0125 -0.3956
63780SOL    HW2 3320   0.616   7.921   9.402 -0.9031  1.3733 -0.7014
63781SOL     OW 3321   8.130  13.721   8.615  0.4775 -0.0606 -0.3946
63781SOL    HW1 3322   8.042  13.756   8.599  0.0143 -1.0369 -0.0504
63781SOL    HW2 3323   8.143  13.656   8.545  0.8743 -0.0129 -0.3672
63782SOL     OW 3324   3.088  11.421  11.026  0.4075 -0.3865  0.1811
63782SOL    HW1 3325   3.080  11.327  11.040  1.8886 -0.4410  0.8035
63782SOL    HW2 3326   3.105  11.429  10.932 -1.9804 -0.5437 -0.3308
63783SOL     OW 3327   3.181   2.787  10.335  0.4300  0.4529 -0.1934
63783SOL    HW1 3328   3.206   2.737  10.258 -0.8859  0.1421 -0.4407
63783SOL    HW2 3329   3.264   2.804  10.380  0.9328 -2.3948  0.1897
63784SOL     OW 3330   2.861   8.308   5.923 -0.2767  0.5984 -0.4177
63784SOL    HW1 3331   2.825   8.294   5.836 -1.4331 -0.9517  0.2458
63784SOL    HW2 3332   2.815   8.385   5.957 -2.1409 -0.5883 -0.0759
63785SOL     OW 3333   7.065  10.008   3.297 -0.9842  0.3652  0.4827
63785SOL    HW1 3334   7.112   9.959   3.230 -1.7368  0.4326 -0.1077
63785SOL    HW2 3335   6.978   9.970   3.298 -0.6758 -0.4135  2.2561
63786SOL     OW 3336   6.560   8.016   7.628 -0.4158  0.1750 -0.2506
63786SOL    HW1 3337   6.593   7.943   7.576  1.0068 -0.3056  1.2460
63786SOL    HW2 3338   6.595   8.094   7.584  1.4762 -0.2585  0.4020
63787SOL     OW 3339  13.031   9.368   6.463  0.8465  0.2964  0.4110
63787SOL    HW1 3340  12.956   9.314   6.437  1.7083  0.2818 -2.3776
63787SOL    HW2 3341  13.021   9.449   6.412  2.0465  0.8324  0.9831
63788SOL     OW 3342   6.162   5.617  13.149 -0.1382  0.6110 -0.4628
63788SOL    HW1 3343   6.092   5.631  13.212  1.1899 -0.2794  1.3203
63788SOL    HW2 3344   6.129   5.548  13.091 -0.0369 -1.2768  1.6037
63789SOL     OW 3345   5.734  12.978  12.866  0.6491  0.4633 -0.2635
63789SOL    HW1 3346   5.786  12.898  12.864  0.7531  0.4830  0.7324
63789SOL    HW2 3347   5.646  12.949  12.891  0.5278  0.5816 -0.5545
63790SOL     OW 3348   3.035   5.019   7.487 -0.0709 -0.3445 -0.3469
63790SOL    HW1 3349   3.099   5.074   7.533 -0.0687  0.3142 -1.1227
63790SOL    HW2 3350   2.990   5.079   7.428  0.4028 -1.3106 -1.7179
63791SOL     OW 3351  12.062  12.890  13.509 -0.1790  0.5452 -0.1011
63791SOL    HW1 3352  12.149  12.851  13.510 -0.6528 -0.6163 -1.1294
63791SOL    HW2 3353  12.047  12.914  13.417 -1.1201  0.2828 -0.0317
63792SOL     OW 3354   5.836  10.934   2.107  0.3050 -0.1891  0.1391
63792SOL    HW1 3355   5.846  11.027   2.087 -0.2486 -0.3455 -0.9711
63792SOL    HW2 3356   5.895  10.918   2.180  2.4801  0.4556 -1.3631
63793SOL     OW 3357   9.172   5.828  12.121  0.5335 -0.1376 -0.7416
63793SOL    HW1 3358   9.149   5.802  12.031  0.2382  0.3988 -0.8248
63793SOL    HW2 3359   9.220   5.910  12.111 -1.4626  1.1428 -0.2848
63794SOL     OW 3360   6.248   7.511   1.299  0.0582 -0.4051  0.1726
63794SOL    HW1 3361   6.198   7.524   1.219 -1.4452  2.2169  1.3846
63794SOL    HW2 3362   6.283   7.598   1.320  0.9652 -1.1472  2.0069
63795SOL     OW 3363  12.990  11.651   8.997 -0.2464 -0.1427 -0.0976
63795SOL    HW1 3364  12.997  11.572   8.944  0.6188  0.1179 -0.3806
63795SOL    HW2 3365  12.924  11.704   8.952  0.0935 -0.1556 -0.6213
63796SOL     OW 3366  11.547   5.587  12.996  0.0756  0.4395  0.9250
63796SOL    HW1 3367  11.530   5.496  12.974  1.8444 -0.0568  1.4665
63796SOL    HW2 3368  11.460   5.627  13.004 -0.7143 -1.1305  0.4821
63797SOL     OW 3369   9.005   4.361  11.183  0.4157 -0.3623  0.9113
63797SOL    HW1 3370   8.926   4.384  11.135  2.1104  0.6651 -1.6164
63797SOL    HW2 3371   8.980   4.287  11.239 -1.8779 -1.1754 -1.0705
63798SOL     OW 3372   3.591   0.187   0.939 -0.0293 -0.1369  0.1076
63798SOL    HW1 3373   3.531   0.181   0.864  0.8812  2.4247 -0.9274
63798SOL    HW2 3374   3.674   0.217   0.902  0.9326 -0.3893  1.9416
63799SOL     OW 3375   0.212   4.401   6.672 -0.5924 -0.7401 -0.3851
63799SOL    HW1 3376   0.170   4.326   6.715 -0.9436 -0.7828 -0.7948
63799SOL    HW2 3377   0.165   4.410   6.589  1.2821 -1.8580 -1.6548
63800SOL     OW 3378   2.730  12.842   3.719 -0.2435  0.2077 -1.0542
63800SOL    HW1 3379   2.755  12.779   3.652  0.4939 -0.5813 -0.0767
63800SOL    HW2 3380   2.764  12.926   3.687  0.7978 -0.2894 -1.3030
63801SOL     OW 3381   4.226  10.386   6.682 -0.3417 -0.0759 -0.1793
63801SOL    HW1 3382   4.239  10.404   6.588  0.7887 -0.2844 -0.0642
63801SOL    HW2 3383   4.290  10.319   6.703 -0.0625  0.5192  0.9221
63802SOL     OW 3384   2.483   4.158   0.334 -0.0416  0.0605 -0.9988
63802SOL    HW1 3385   2.507   4.075   0.294 -0.6945 -0.8276  0.3716
63802SOL    HW2 3386   2.560   4.184   0.385 -0.3272 -0.4482 -0.2897
63803SOL     OW 3387   8.326  10.713  12.465  0.4180  0.0562 -0.2715
63803SOL    HW1 3388   8.259  10.649  12.442  0.7238 -0.9710  1.5131
63803SOL    HW2 3389   8.310  10.787  12.407 -0.8336 -1.0675 -1.4173
63804SOL     OW 3390   2.413   6.331   7.197 -0.2488  0.1106 -0.3304
63804SOL    HW1 3391   2.348   6.395   7.168 -0.2690  0.0046 -0.5220
63804SOL    HW2 3392   2.451   6.297   7.116  1.1284  1.2618 -0.2140
63805SOL     OW 3393  10.342  13.325   5.704 -0.4267 -0.4217  0.3428
63805SOL    HW1 3394  10.316  13.236   5.681 -1.2664 -0.0472 -0.1754
63805SOL    HW2 3395  10.432  13.332   5.673 -1.0307 -0.4169 -1.5633
63806SOL     OW 3396   9.615   1.143   6.535  0.6887  0.1042 -0.0890
63806SOL    HW1 3397   9.646   1.216   6.482 -0.7027  1.1697  0.5041
63806SOL    HW2 3398   9.540   1.109   6.487  1.1861 -0.8179 -0.2422
63807SOL     OW 3399   9.348   3.181   5.040  0.5832  0.1430  0.4138
63807SOL    HW1 3400   9.315   3.267   5.014 -0.5114 -0.4681 -0.3374
63807SOL    HW2 3401   9.377   3.192   5.130  0.6039  1.3306  0.2777
63808SOL     OW 3402   9.747  12.333  11.203  0.5689  0.6724 -0.4351
63808SOL    HW1 3403   9.684  12.279  11.252 -0.0487  1.4559 -0.3405
63808SOL    HW2 3404   9.792  12.384  11.271 -1.5290  3.0866 -0.7113
63809SOL     OW 3405   6.584  10.021   9.519 -0.7141 -0.0955 -0.3628
63809SOL    HW1 3406   6.522  10.055   9.455 -0.5431 -0.8453 -0.9408
63809SOL    HW2 3407   6.639  10.097   9.542 -0.1103 -0.0359 -1.9021
63810SOL     OW 3408  10.082   0.221   7.682 -0.3459  0.5666  0.2185
63810SOL    HW1 3409  10.054   0.180   7.600  1.9526 -2.0346  0.5681
63810SOL    HW2 3410  10.118   0.306   7.656  2.8922 -1.2906 -2.0520
63811SOL     OW 3411   5.016  12.715  10.728 -0.1698 -0.1162  0.1437
63811SOL    HW1 3412   5.109  12.736  10.712 -0.4319  1.1521  0.2103
63811SOL    HW2 3413   4.984  12.788  10.781 -1.5236  0.0980 -0.9288
63812SOL     OW 3414   5.770  10.242   3.615  0.3006 -0.3866  0.1578
63812SOL    HW1 3415   5.769  10.282   3.528  0.8645 -1.3798 -0.3143
63812SOL    HW2 3416   5.736  10.154   3.602 -0.4245 -0.2584  1.1013
63813SOL     OW 3417  10.026   2.488   6.350 -0.0051 -0.0039  0.6376
63813SOL    HW1 3418  10.060   2.401   6.328 -0.3060 -0.1792  0.8606
63813SOL    HW2 3419   9.936   2.488   6.319 -0.0117  0.2253  0.6508
63814SOL     OW 3420  12.233   5.286   4.830  0.5071 -0.0049  0.0108
63814SOL    HW1 3421  12.159   5.248   4.782 -1.6308  2.2636  1.3014
63814SOL    HW2 3422  12.249   5.224   4.902 -1.3470  0.2774  0.7258
63815SOL     OW 3423  11.425  11.508   2.633 -0.3621 -0.1060 -0.1759
63815SOL    HW1 3424  11.424  11.429   2.579 -1.2973 -0.2125 -0.0220
63815SOL    HW2 3425  11.402  11.579   2.572  0.7964  0.1080 -0.3841
63816SOL     OW 3426   4.209   3.423   5.771  0.3919 -0.2781  0.3025
63816SOL    HW1 3427   4.259   3.425   5.689 -0.0246 -0.9831  0.0213
63816SOL    HW2 3428   4.143   3.491   5.760  1.3673  0.7842  0.7470
63817SOL     OW 3429   1.054   2.037   2.939 -0.5591  0.5631 -0.4873
63817SOL    HW1 3430   1.055   2.038   2.844  0.0929 -1.6474 -0.5444
63817SOL    HW2 3431   1.126   2.096   2.964  0.3397 -0.1003 -1.4104
63818SOL     OW 3432   5.303   2.956   8.444 -0.5947 -0.5915  0.6951
63818SOL    HW1 3433   5.337   2.920   8.362 -0.1808 -0.5036  0.8251
63818SOL    HW2 3434   5.257   3.036   8.418 -0.7368 -0.7323  0.5129
63819SOL     OW 3435   3.140  11.270   6.626  0.0537  0.1304 -0.2857
63819SOL    HW1 3436   3.061  11.317   6.650  0.5322  0.7559  0.0892
63819SOL    HW2 3437   3.109  11.192   6.581 -0.7217  1.7151 -2.6567
63820SOL     OW 3438  13.730   5.532   8.745  0.0513 -0.0700  0.6307
63820SOL    HW1 3439  13.783   5.611   8.752 -1.3268  0.8617  0.8843
63820SOL    HW2 3440  13.655   5.558   8.691 -0.7058 -1.0412  1.1812
63821SOL     OW 3441   5.737   2.580   9.084  0.0339 -0.1040 -0.0980
63821SOL    HW1 3442   5.703   2.667   9.065 -0.5158 -0.2715  0.0964
63821SOL    HW2 3443   5.820   2.596   9.128 -0.2008  0.3302  0.1976
63822SOL     OW 3444  10.039   6.147   7.880 -0.1190 -0.0180 -0.3602
63822SOL    HW1 3445   9.966   6.084   7.879  0.9957 -1.5865  2.9801
63822SOL    HW2 3446  10.117   6.092   7.882  1.0373  1.5735 -0.3058
63823SOL     OW 3447  13.387   4.748   8.930 -0.2005  0.1893  0.3618
63823SOL    HW1 3448  13.390   4.668   8.984  0.6251  0.1612  0.2832
63823SOL    HW2 3449  13.422   4.816   8.986  2.4143 -0.1807 -0.6814
63824SOL     OW 3450  10.335   9.168  10.339 -0.3623  0.6731  0.2322
63824SOL    HW1 3451  10.315   9.147  10.248 -0.2418  0.2053  0.3086
63824SOL    HW2 3452  10.353   9.083  10.380 -1.3408  0.7704  0.9151
63825SOL     OW 3453  13.864   1.925  13.033 -0.0355  0.4686 -0.1049
63825SOL    HW1 3454  13.774   1.945  13.057 -0.0604  0.1507  0.0711
63825SOL    HW2 3455  13.904   2.011  13.016 -0.8941  0.5326 -2.0664
63826SOL     OW 3456   7.109   1.099   4.389  0.0185 -0.5732  0.0182
63826SOL    HW1 3457   7.067   1.184   4.405 -0.7637 -0.9092 -0.2421
63826SOL    HW2 3458   7.051   1.054   4.327 -0.0304 -1.6467  0.8189
63827SOL     OW 3459   8.681   5.314  10.066  0.0404  0.1985  0.4065
63827SOL    HW1 3460   8.673   5.403  10.032 -1.8596 -0.3862 -0.8173
63827SOL    HW2 3461   8.615   5.264  10.019 -0.7611 -1.3003  2.9193
63828SOL     OW 3462   6.486  13.406   0.279 -0.1368 -0.2310 -0.1037
63828SOL    HW1 3463   6.552  13.391   0.211  1.3675  0.7986  1.0387
63828SOL    HW2 3464   6.420  13.461   0.237  1.0772  0.8956 -0.6069
63829SOL     OW 3465  13.831  12.657   9.716  0.1381  0.5945  0.2347
63829SOL    HW1 3466  13.923  12.640   9.695  0.0815  0.9816 -0.3592
63829SOL    HW2 3467  13.834  12.714   9.792  0.3771  0.2005  0.5269
63830SOL     OW 3468   0.913   0.761  11.183 -0.3722  0.2102  0.1773
63830SOL    HW1 3469   0.936   0.730  11.096 -1.5092  3.0264 -1.2801
63830SOL    HW2 3470   0.963   0.842  11.193 -1.4839  0.7743  1.4345
63831SOL     OW 3471   1.829   5.360   5.448 -0.1952  0.2783 -0.4242
63831SOL    HW1 3472   1.745   5.324   5.420 -0.7099  2.6906 -2.3610
63831SOL    HW2 3473   1.849   5.427   5.383  3.5524 -0.5610 -0.3561
63832SOL     OW 3474  12.889   2.755   2.199  0.2439  0.1168 -0.6090
63832SOL    HW1 3475  12.915   2.828   2.255  2.4527  0.3354 -1.7929
63832SOL    HW2 3476  12.820   2.790   2.143  0.9412  1.1978 -0.8277
63833SOL     OW 3477   5.445   1.850   2.729  0.2322 -0.9512  0.2013
63833SOL    HW1 3478   5.463   1.861   2.822 -0.8169 -1.7367  0.5223
63833SOL    HW2 3479   5.517   1.894   2.685  1.2141 -1.3214  1.3835
63834SOL     OW 3480  12.091   0.209  11.260 -0.7655 -0.0149  0.3737
63834SOL    HW1 3481  12.091   0.114  11.271  1.9784 -0.0026  1.2919
63834SOL    HW2 3482  12.026   0.225  11.191 -1.9976 -2.4210  0.8458
63835SOL     OW 3483   3.031   0.838   0.243  0.1694  0.1032 -0.0514
63835SOL    HW1 3484   3.043   0.896   0.319 -1.2792  0.6834 -0.2367
63835SOL    HW2 3485   3.055   0.891   0.168  0.2756 -0.0244 -0.1079
63836SOL     OW 3486   7.965  10.829  13.143  0.2379 -0.5955  0.0254
63836SOL    HW1 3487   7.927  10.751  13.182 -1.1917 -0.2233 -0.5521
63836SOL    HW2 3488   7.925  10.835  13.056 -0.5280  1.3535  0.4540
63837SOL     OW 3489   7.990  13.367  11.180  0.0079 -0.2512 -0.2787
63837SOL    HW1 3490   8.000  13.444  11.235 -0.5176  0.4479 -1.1316
63837SOL    HW2 3491   8.079  13.349  11.148  0.1245  0.0174 -0.1096
63838SOL     OW 3492   4.521  12.925   9.472 -0.0184 -0.3115  0.2250
63838SOL    HW1 3493   4.616  12.917   9.475  0.0092 -1.8280 -2.3380
63838SOL    HW2 3494   4.502  12.999   9.530  2.7052  0.0999  0.7358
63839SOL     OW 3495  12.124  12.359   0.526  0.3869 -0.3666 -0.4714
63839SOL    HW1 3496  12.120  12.263   0.522  0.2946 -0.3645 -0.4064
63839SOL    HW2 3497  12.186  12.383   0.456  1.1351 -0.5275  0.1216
63840SOL     OW 3498   3.017   4.412   1.746 -0.3342 -0.3056 -0.7496
63840SOL    HW1 3499   2.966   4.342   1.706  0.1410 -1.3108  0.3397
63840SOL    HW2 3500   3.106   4.377   1.752 -0.4589 -0.3959  1.5411
63841SOL     OW 3501  13.964  13.882   8.850  0.1847  0.6130 -0.1631
63841SOL    HW1 3502  13.965  13.905   8.943  1.5486 -0.6222  0.1625
63841SOL    HW2 3503  13.893  13.818   8.843  0.7912 -0.1213  0.2637
63842SOL     OW 3504   9.040   4.745   9.687 -0.0237  0.3458 -0.5106
63842SOL    HW1 3505   8.998   4.742   9.773 -1.0793  0.9498 -0.9784
63842SOL    HW2 3506   9.102   4.673   9.688 -2.4909 -1.9565 -0.4489
63843SOL     OW 3507   3.818  11.736   8.900 -0.0848  0.2692 -0.6848
63843SOL    HW1 3508   3.844  11.686   8.822  1.2043  1.1370 -0.8482
63843SOL    HW2 3509   3.787  11.670   8.962  0.2266 -0.5798 -1.4095
63844SOL     OW 3510   3.181   5.572   9.271  0.2055 -0.1648 -0.1051
63844SOL    HW1 3511   3.149   5.485   9.247 -2.1357  0.8354 -0.9191
63844SOL    HW2 3512   3.127   5.598   9.346  0.6452  0.6852 -0.0704
63845SOL     OW 3513   9.617  10.166  11.454 -0.1322  0.1814 -0.4562
63845SOL    HW1 3514   9.539  10.112  11.455 -0.2801  0.3814 -0.8071
63845SOL    HW2 3515   9.613  10.212  11.371 -0.4046  1.2937  0.1481
63846SOL     OW 3516   1.638   5.352   9.009  0.6062 -0.0121 -0.0480
63846SOL    HW1 3517   1.556   5.318   9.046  1.4728 -0.3898  1.6380
63846SOL    HW2 3518   1.706   5.294   9.044  1.5858  0.1453 -1.6089
63847SOL     OW 3519   9.448  12.156   7.515  0.3493 -0.2768  0.3085
63847SOL    HW1 3520   9.455  12.126   7.605  2.3015 -0.4861  0.1207
63847SOL    HW2 3521   9.432  12.076   7.464  0.1270 -0.2730  0.3707
63848SOL     OW 3522   6.563   7.335  10.797 -0.2020 -0.3252 -0.5263
63848SOL    HW1 3523   6.627   7.296  10.737  0.4391 -1.3026  0.7595
63848SOL    HW2 3524   6.487   7.278  10.790 -1.1711  1.0833 -2.3865
63849SOL     OW 3525   1.715   5.662   7.661  0.3157  0.7213  0.0681
63849SOL    HW1 3526   1.769   5.669   7.582 -1.3295  0.2867 -1.1601
63849SOL    HW2 3527   1.687   5.752   7.678  1.8806  1.0453  1.0867
63850SOL     OW 3528   2.551  10.160  12.744 -0.3730  0.2762 -0.1031
63850SOL    HW1 3529   2.587  10.073  12.724 -0.8149  0.4974 -2.0252
63850SOL    HW2 3530   2.564  10.210  12.664 -1.2114  1.6378  0.5824
63851SOL     OW 3531   9.539  13.394   3.831 -0.3288 -0.0319  0.0681
63851SOL    HW1 3532   9.468  13.390   3.767  0.1507 -0.2441 -0.4513
63851SOL    HW2 3533   9.541  13.307   3.870  0.4972 -0.4433 -0.8506
63852SOL     OW 3534  12.552   8.284   3.430  0.2743  0.9990 -0.0637
63852SOL    HW1 3535  12.572   8.370   3.392 -0.0144  1.1630  0.1517
63852SOL    HW2 3536  12.461   8.291   3.459  0.0641  0.4303 -0.5566
63853SOL     OW 3537   4.816  12.856   8.944 -0.3096  0.2218 -0.0609
63853SOL    HW1 3538   4.741  12.800   8.922 -1.0228  0.7130  0.9830
63853SOL    HW2 3539   4.818  12.923   8.875 -1.5470  0.8572  0.4860
63854SOL     OW 3540   5.383   1.875   7.592 -0.2447  0.7373  0.1820
63854SOL    HW1 3541   5.313   1.822   7.631  0.0565 -1.1782 -1.6563
63854SOL    HW2 3542   5.461   1.820   7.600  0.4892  1.6953 -0.2046
63855SOL     OW 3543   3.579  11.639   7.480  0.4530  0.4878 -0.0010
63855SOL    HW1 3544   3.589  11.545   7.470  0.7974  0.5226  0.0009
63855SOL    HW2 3545   3.604  11.676   7.395 -0.5715  0.5196 -0.2968
63856SOL     OW 3546   0.503   1.109   0.004 -0.3702 -0.0706  0.1107
63856SOL    HW1 3547   0.476   1.030  -0.043  0.8944  0.1280 -1.0087
63856SOL    HW2 3548   0.431   1.171  -0.011  0.2206  0.1712 -2.0718
63857SOL     OW 3549   8.662   0.461  10.141  0.3018 -0.2820 -0.0139
63857SOL    HW1 3550   8.683   0.458  10.047  2.0802 -0.1644  0.3472
63857SOL    HW2 3551   8.746   0.480  10.184 -0.7725  1.3299  1.5006
63858SOL     OW 3552  12.863   0.284  13.971 -0.1643 -0.1853  0.3995
63858SOL    HW1 3553  12.885   0.375  13.951  1.5069 -0.6536  0.0272
63858SOL    HW2 3554  12.941   0.234  13.948 -0.2294 -1.4608  2.6415
63859SOL     OW 3555   0.980  11.745   0.692  0.1892 -0.2650  0.4247
63859SOL    HW1 3556   0.994  11.671   0.632  1.9335  1.2521 -1.1337
63859SOL    HW2 3557   1.058  11.746   0.747  3.1442  3.4930 -3.1438
63860SOL     OW 3558   7.521  13.536  12.876 -0.1050  0.4455 -0.0841
63860SOL    HW1 3559   7.435  13.555  12.841 -0.9233 -1.0639  0.9877
63860SOL    HW2 3560   7.536  13.603  12.942 -0.8458  0.2176  0.3206
63861SOL     OW 3561  11.932  10.433  12.013 -0.2599  0.2384  0.4566
63861SOL    HW1 3562  11.879  10.436  12.093  0.9095  0.5662  1.2605
63861SOL    HW2 3563  11.962  10.523  12.001 -2.6705  0.8196 -1.9826
63862SOL     OW 3564   8.160   6.811   2.463 -0.3976 -0.0397  0.3521
63862SOL    HW1 3565   8.217   6.736   2.481  0.5441  0.5870  0.0836
63862SOL    HW2 3566   8.090   6.776   2.409 -0.4233 -0.8924  0.9247
63863SOL     OW 3567  11.773  10.067   2.389 -0.6578  0.3741  0.2301
63863SOL    HW1 3568  11.866  10.068   2.365 -0.5715  0.6754  0.5613
63863SOL    HW2 3569  11.760  10.150   2.435 -1.2579  0.6720 -0.4478
63864SOL     OW 3570   3.272  11.415  10.165 -0.3493 -0.1857 -0.2526
63864SOL    HW1 3571   3.183  11.389  10.143  0.0419 -1.2438 -0.6390
63864SOL    HW2 3572   3.275  11.412  10.261 -0.6929 -0.2691 -0.2424
63865SOL     OW 3573  10.856   8.986  11.348  0.0312  0.6093  0.5315
63865SOL    HW1 3574  10.830   9.071  11.383 -0.6471  0.1357  1.1867
63865SOL    HW2 3575  10.846   8.996  11.253  0.5069  1.4349  0.5541
63866SOL     OW 3576   9.126   6.071   4.084 -0.0550 -0.4447 -0.5105
63866SOL    HW1 3577   9.058   6.136   4.071 -0.1763 -0.8772 -2.2671
63866SOL    HW2 3578   9.163   6.057   3.997  0.4807 -2.1538 -0.0479
63867SOL     OW 3579   9.650  11.030  12.831 -0.4962 -0.4034  0.2329
63867SOL    HW1 3580   9.700  11.103  12.795 -1.4822  0.5609  0.7412
63867SOL    HW2 3581   9.714  10.980  12.883  0.6300 -1.0543 -1.6731
63868SOL     OW 3582  13.590   7.602   2.655 -0.0140 -0.4947 -0.0039
63868SOL    HW1 3583  13.552   7.515   2.653 -0.3439 -0.3415 -0.5916
63868SOL    HW2 3584  13.611   7.617   2.747 -0.0045 -1.1685  0.1092
63869SOL     OW 3585   0.418   6.348   4.559 -0.1898 -0.5446 -0.3111
63869SOL    HW1 3586   0.495   6.292   4.565  0.4186  0.3663  0.8149
63869SOL    HW2 3587   0.451   6.432   4.529 -0.7702 -0.2070 -0.0376
63870SOL     OW 3588  13.247  12.260   7.879  0.2365 -0.8057 -0.3323
63870SOL    HW1 3589  13.211  12.195   7.818  0.6182 -0.5168 -0.8716
63870SOL    HW2 3590  13.313  12.212   7.929 -1.2076 -1.4821  1.0293
63871SOL     OW 3591   5.366   6.266   7.125 -0.0742  0.1566  0.3075
63871SOL    HW1 3592   5.430   6.337   7.121 -2.3422  2.3925  1.1455
63871SOL    HW2 3593   5.305   6.285   7.054 -1.2585 -0.4168  1.1510
63872SOL     OW 3594   5.761   2.435   8.555  0.1715 -0.6598  0.0244
63872SOL    HW1 3595   5.758   2.529   8.539  3.4663 -0.5009 -0.4477
63872SOL    HW2 3596   5.744   2.426   8.649  1.0981  0.5800  0.3389
63873SOL     OW 3597   8.891   1.536   9.217  0.2970  0.0804  0.3063
63873SOL    HW1 3598   8.840   1.578   9.148 -1.1802  0.2468  1.4508
63873SOL    HW2 3599   8.982   1.552   9.192 -0.2059  2.0569 -0.4447
63874SOL     OW 3600   3.232   0.836   1.893  0.1132 -0.0392 -0.3305
63874SOL    HW1 3601   3.152   0.855   1.944 -1.1047 -1.2594 -1.6840
63874SOL    HW2 3602   3.252   0.745   1.914  1.4171  0.3776  0.2982
63875SOL     OW 3603   2.034   6.318   1.031 -0.1977 -0.6751 -0.2830
63875SOL    HW1 3604   2.129   6.305   1.026 -0.2630 -1.5673  0.5423
63875SOL    HW2 3605   2.022   6.412   1.018  1.0688  0.0277  2.8181
63876SOL     OW 3606   5.917   5.641  12.987 -0.1523  0.2014 -0.5447
63876SOL    HW1 3607   5.854   5.621  13.055 -0.6264 -0.2689 -1.1158
63876SOL    HW2 3608   5.912   5.567  12.926  1.4026 -0.1613 -0.2718
63877SOL     OW 3609   1.818   4.962   3.667  0.6783 -0.1236 -0.0245
63877SOL    HW1 3610   1.755   4.947   3.596  1.8264 -3.2170 -0.5383
63877SOL    HW2 3611   1.897   4.994   3.622 -0.3358  3.9283  0.6332
63878SOL     OW 3612   9.564   7.842  12.729  0.0909 -0.2423  0.6857
63878SOL    HW1 3613   9.608   7.926  12.723  3.4901 -1.9416 -1.7680
63878SOL    HW2 3614   9.472   7.860  12.707  0.6559  2.7604  0.4695
63879SOL     OW 3615   1.471  11.065   5.652 -0.1058 -1.0492  0.0032
63879SOL    HW1 3616   1.390  11.115   5.642  1.7315  2.2410  0.1696
63879SOL    HW2 3617   1.497  11.043   5.563  0.1522  0.3062 -0.2798
63880SOL     OW 3618   6.488   7.913   7.277  0.1881 -0.1069  0.2215
63880SOL    HW1 3619   6.408   7.963   7.292  0.0081 -0.1845 -0.4420
63880SOL    HW2 3620   6.458   7.833   7.234  0.7375  0.4388 -1.2479
63881SOL     OW 3621  12.968  13.232   8.386  0.5265 -1.1363 -0.3484
63881SOL    HW1 3622  12.906  13.230   8.313  1.0078  1.2331 -0.9024
63881SOL    HW2 3623  13.046  13.188   8.352  0.5614 -0.5127 -1.0923
63882SOL     OW 3624   2.958   1.130  10.266 -0.6260  0.3250 -0.3696
63882SOL    HW1 3625   2.863   1.136  10.281 -1.1496  3.3172 -3.6259
63882SOL    HW2 3626   2.966   1.083  10.183  0.8314 -0.2466  0.0657
63883SOL     OW 3627   8.780   8.204   6.626  0.1596  0.0861  0.1028
63883SOL    HW1 3628   8.724   8.128   6.613  0.3085 -0.0862  0.4716
63883SOL    HW2 3629   8.849   8.174   6.685 -0.3264  0.7706  1.0367
63884SOL     OW 3630  12.693   3.682   5.711  0.2812  0.1035  0.4823
63884SOL    HW1 3631  12.675   3.639   5.794  0.7021  0.8523  0.9825
63884SOL    HW2 3632  12.610   3.724   5.687  0.0787 -0.3530  0.3686
63885SOL     OW 3633  13.639   5.791   5.561 -0.1068  0.1868  0.1728
63885SOL    HW1 3634  13.620   5.712   5.613 -1.0008  0.2215 -0.0722
63885SOL    HW2 3635  13.659   5.757   5.474  1.2630  0.1363  0.4912
63886SOL     OW 3636   9.249  10.271   0.075  0.1906  0.3812  0.1214
63886SOL    HW1 3637   9.262  10.358   0.113  1.1640 -0.4560  1.8409
63886SOL    HW2 3638   9.283  10.278  -0.014 -0.7675  2.0234 -0.1602
63887SOL     OW 3639   9.305   2.611   4.095  0.0088 -0.4319  0.0211
63887SOL    HW1 3640   9.267   2.524   4.082  0.0496 -0.6014  1.0318
63887SOL    HW2 3641   9.368   2.601   4.165  1.6733 -0.0525 -1.3430
63888SOL     OW 3642   5.314   3.881  11.824  0.2282 -0.6654 -0.1165
63888SOL    HW1 3643   5.276   3.934  11.894 -0.1403 -0.1567 -0.6956
63888SOL    HW2 3644   5.372   3.942  11.777 -0.3126 -0.7312 -0.8778
63889SOL     OW 3645  11.471  10.645   9.384  0.2213 -0.5510  0.3834
63889SOL    HW1 3646  11.512  10.591   9.450 -3.2351  0.1231  3.4270
63889SOL    HW2 3647  11.377  10.633   9.398 -0.7012  2.4071 -2.0677
63890SOL     OW 3648   3.461   3.690   7.854  0.2661 -0.0338 -0.4289
63890SOL    HW1 3649   3.415   3.734   7.782 -2.3275 -1.4789  0.1912
63890SOL    HW2 3650   3.447   3.596   7.837  1.1008 -0.4531  1.0427
63891SOL     OW 3651   2.014  10.817   6.012 -0.1117  0.0750  0.0536
63891SOL    HW1 3652   2.006  10.743   6.072 -2.6169 -0.5104 -0.8877
63891SOL    HW2 3653   2.092  10.797   5.960  1.1293 -0.2304  1.9112
63892SOL     OW 3654   8.586   1.816  11.650  0.2038 -0.5173  0.0257
63892SOL    HW1 3655   8.598   1.729  11.688 -1.5013 -1.2169 -0.9172
63892SOL    HW2 3656   8.502   1.811  11.605  0.7353  1.1829 -1.2785
63893SOL     OW 3657   9.867   2.027  11.063 -0.3550 -0.3540 -0.4110
63893SOL    HW1 3658   9.922   1.949  11.055  1.1913  0.8372 -2.2263
63893SOL    HW2 3659   9.926   2.101  11.048 -1.8063  1.2099  1.0735
63894SOL     OW 3660   6.551   2.301   8.665 -0.2100 -0.2767  0.2054
63894SOL    HW1 3661   6.598   2.311   8.748  0.6638  0.1820 -0.3259
63894SOL    HW2 3662   6.461   2.280   8.691  0.3385 -1.4869  1.2515
63895SOL     OW 3663   3.672   4.657  13.795 -0.3038 -0.1481  0.4754
63895SOL    HW1 3664   3.717   4.622  13.872  0.6324 -0.5168 -0.2284
63895SOL    HW2 3665   3.675   4.587  13.730 -0.3466  0.4482 -0.1909
63896SOL     OW 3666  13.472   2.333   2.464  0.3091  0.1446 -0.1014
63896SOL    HW1 3667  13.548   2.277   2.472 -0.3785 -1.0862 -1.6298
63896SOL    HW2 3668  13.493   2.410   2.516  1.7592 -1.0156  1.1213
63897SOL     OW 3669  13.348   6.157  13.747 -0.7249  0.6201  0.2728
63897SOL    HW1 3670  13.415   6.216  13.713 -0.2881  0.1581  0.3149
63897SOL    HW2 3671  13.366   6.073  13.703  0.5273 -0.2973  2.3755
63898SOL     OW 3672   6.558   6.330   1.078  0.1253  0.0959  0.5609
63898SOL    HW1 3673   6.581   6.421   1.056  0.9299 -0.0855  0.6267
63898SOL    HW2 3674   6.583   6.280   1.000 -1.7572  0.1112 -0.1077
63899SOL     OW 3675   7.332   0.984   5.978 -0.4048  0.3556 -0.1599
63899SOL    HW1 3676   7.292   0.958   6.061  1.4304  0.5147  0.8312
63899SOL    HW2 3677   7.288   1.066   5.955 -1.5279 -0.1279  0.1988
63900SOL     OW 3678   0.671   5.097   9.704  0.0807  0.0035 -0.0792
63900SOL    HW1 3679   0.671   5.050   9.621  1.1217  0.3955 -0.3132
63900SOL    HW2 3680   0.609   5.169   9.691  0.0085 -0.1186 -0.4164
63901SOL     OW 3681   8.968   8.158   0.732 -0.5024  0.3148 -0.2108
63901SOL    HW1 3682   8.924   8.184   0.651 -0.3319  1.5375  0.0643
63901SOL    HW2 3683   8.947   8.065   0.742 -0.6945  0.1956 -1.5387
63902SOL     OW 3684   8.508  13.458   1.648 -0.5185 -0.1840 -0.2873
63902SOL    HW1 3685   8.525  13.373   1.688  0.5043  0.1466  0.0140
63902SOL    HW2 3686   8.492  13.516   1.722  2.3719  0.6547 -0.2008
63903SOL     OW 3687   3.896  11.023   8.932 -0.0311  0.2677 -0.2603
63903SOL    HW1 3688   3.830  11.057   8.871 -0.0866 -0.7661 -0.8203
63903SOL    HW2 3689   3.980  11.043   8.891 -0.0787 -1.8427 -1.5774
63904SOL     OW 3690  11.971   4.395   8.882 -0.2542  0.2064  0.2137
63904SOL    HW1 3691  11.896   4.427   8.933 -1.7297 -1.3084 -0.8824
63904SOL    HW2 3692  11.996   4.314   8.926 -0.5380 -0.3032 -0.5407
63905SOL     OW 3693   2.135  13.685   0.114  1.1743 -0.0348 -0.2968
63905SOL    HW1 3694   2.160  13.758   0.058  2.6297 -0.9622 -0.9378
63905SOL    HW2 3695   2.086  13.626   0.057 -0.7713  0.8101  0.4403
63906SOL     OW 3696  10.359   6.055   5.783  0.1977  0.0231  0.0171
63906SOL    HW1 3697  10.400   6.028   5.865  0.1337  3.7229  1.4354
63906SOL    HW2 3698  10.433   6.065   5.722  0.3426 -1.8205 -0.1697
63907SOL     OW 3699   5.220  11.343   8.718  0.1064 -0.3674  0.2027
63907SOL    HW1 3700   5.233  11.277   8.650  0.5279  1.0392 -1.1091
63907SOL    HW2 3701   5.147  11.308   8.771 -2.2997 -0.1353 -2.7132
63908SOL     OW 3702  11.852   5.033   4.148  0.0393  0.1358 -0.3721
63908SOL    HW1 3703  11.842   5.067   4.059 -0.7482 -1.7161 -1.0368
63908SOL    HW2 3704  11.879   4.942   4.136  2.7246  0.5874  1.3313
63909SOL     OW 3705   8.258  10.072   4.530  0.1047  0.6743  0.2498
63909SOL    HW1 3706   8.301  10.102   4.610 -0.6586 -0.4732  1.1320
63909SOL    HW2 3707   8.168  10.103   4.539  0.1837  1.1585 -0.5283
63910SOL     OW 3708   2.131   1.775   8.289  0.1808 -0.2993 -0.2006
63910SOL    HW1 3709   2.096   1.817   8.211 -1.0233  0.8109  0.8764
63910SOL    HW2 3710   2.202   1.832   8.318  0.9276 -0.9502 -0.7108
63911SOL     OW 3711   2.560   1.743   8.143 -0.2186 -0.4023  0.2015
63911SOL    HW1 3712   2.614   1.762   8.066  0.4926  0.1862  0.8368
63911SOL    HW2 3713   2.503   1.672   8.114 -1.2583  1.0292 -1.4555
63912SOL     OW 3714   2.587  11.462  12.335 -0.7750  0.0036  0.0037
63912SOL    HW1 3715   2.617  11.396  12.272 -1.1060 -0.1632  0.0187
63912SOL    HW2 3716   2.662  11.475  12.394  0.7281  2.4572 -2.2317
63913SOL     OW 3717  11.352   2.421   8.726  0.2439  0.5599 -0.4911
63913SOL    HW1 3718  11.272   2.461   8.760 -0.6132 -1.0195 -0.5687
63913SOL    HW2 3719  11.372   2.471   8.647 -0.9426  0.6641 -0.7349
63914SOL     OW 3720   9.726   3.024   9.036 -0.0435  0.2236 -0.5964
63914SOL    HW1 3721   9.682   3.032   9.121 -0.7312  0.1647 -0.9375
63914SOL    HW2 3722   9.656   2.998   8.976  0.7638 -1.4988 -0.8464
63915SOL     OW 3723  10.017  10.048   6.051  0.0697 -0.8481 -0.6458
63915SOL    HW1 3724   9.971   9.965   6.039  0.6017 -0.8919 -2.9251
63915SOL    HW2 3725   9.950  10.115   6.036  0.2502 -0.9114 -1.8687
63916SOL     OW 3726  10.280   4.637   5.663  0.1968  0.1297  0.8137
63916SOL    HW1 3727  10.253   4.708   5.604 -0.2343 -0.7105 -0.0119
63916SOL    HW2 3728  10.200   4.615   5.712  0.1112 -0.3720  0.4525
63917SOL     OW 3729   6.576   7.886   6.168  0.1454 -0.3269  0.3998
63917SOL    HW1 3730   6.495   7.844   6.140  0.1743 -0.9296  1.2067
63917SOL    HW2 3731   6.610   7.831   6.238  1.5559 -0.3943 -0.2964
63918SOL     OW 3732   0.333   7.484  14.005  0.0482  0.0138 -0.1669
63918SOL    HW1 3733   0.330   7.540  13.927  0.7193 -0.9687 -0.9258
63918SOL    HW2 3734   0.424   7.455  14.009  0.0589  0.1783  1.0887
63919SOL     OW 3735  12.387   1.090   1.629  0.7963  0.0287 -0.4469
63919SOL    HW1 3736  12.423   1.160   1.574  0.4115  0.9378  0.4177
63919SOL    HW2 3737  12.308   1.128   1.668 -1.1766 -1.9310 -2.3127
63920SOL     OW 3738   9.577   1.645  13.209 -0.1327  0.3107  0.0617
63920SOL    HW1 3739   9.530   1.635  13.292 -1.1488  2.0443 -0.2542
63920SOL    HW2 3740   9.653   1.700  13.231 -0.7192  1.2690 -0.2208
63921SOL     OW 3741  13.780   3.138   3.303  0.8612 -0.2136  0.2346
63921SOL    HW1 3742  13.843   3.150   3.232 -0.9604  1.3953 -1.2295
63921SOL    HW2 3743  13.734   3.058   3.280 -0.4403  0.8507 -1.0812
63922SOL     OW 3744   2.504   8.641   3.330 -0.0485  0.1955 -0.2711
63922SOL    HW1 3745   2.560   8.711   3.296  0.6642  0.6513  1.7143
63922SOL    HW2 3746   2.445   8.686   3.391 -0.3640 -0.7753  0.1519
63923SOL     OW 3747   0.505   6.685   7.204  0.5869 -0.0356  0.2322
63923SOL    HW1 3748   0.540   6.657   7.120  1.0568  0.0502  0.3991
63923SOL    HW2 3749   0.432   6.743   7.182  2.4972  2.3852 -0.1792
63924SOL     OW 3750   9.235  12.712  10.643  0.0194 -0.0214 -0.5107
63924SOL    HW1 3751   9.140  12.702  10.635  0.0912 -1.4343  0.0731
63924SOL    HW2 3752   9.255  12.792  10.594 -1.4144  0.0806 -0.9812
63925SOL     OW 3753   5.211   2.645   2.364 -0.3919 -0.3704  0.1469
63925SOL    HW1 3754   5.228   2.663   2.456  0.4637 -0.7499  0.0666
63925SOL    HW2 3755   5.279   2.583   2.338 -0.5222 -0.1406 -0.7854
63926SOL     OW 3756  12.265   4.633   1.995 -0.2719  0.1622  0.4820
63926SOL    HW1 3757  12.275   4.617   1.902  2.2433  0.0741  0.7202
63926SOL    HW2 3758  12.221   4.555   2.028  1.2190 -1.0161 -0.2343
63927SOL     OW 3759   8.404   5.182  10.886 -0.0211  0.1382  0.1106
63927SOL    HW1 3760   8.397   5.091  10.916 -0.4302  0.3921  0.8141
63927SOL    HW2 3761   8.458   5.177  10.808 -2.3139 -1.0992 -1.5321
63928SOL     OW 3762   0.088   7.892   0.749  0.0558 -0.3090  0.0920
63928SOL    HW1 3763   0.018   7.955   0.765  0.9743  1.0730 -1.0581
63928SOL    HW2 3764   0.155   7.912   0.815  1.1450  1.2342 -1.3841
63929SOL     OW 3765   0.634   3.683   9.146  0.2129 -0.0272 -0.2930
63929SOL    HW1 3766   0.581   3.620   9.195 -1.1209  1.0633 -0.2731
63929SOL    HW2 3767   0.613   3.666   9.054  0.7939 -0.4136 -0.3588
63930SOL     OW 3768  12.032   5.442  12.687 -0.4692  0.0304 -0.3778
63930SOL    HW1 3769  11.943   5.408  12.683 -0.1313 -1.0583  0.7169
63930SOL    HW2 3770  12.027   5.518  12.746 -0.8648  0.6988 -1.2508
63931SOL     OW 3771   4.066   1.582   9.482 -0.2274  0.4931  0.6706
63931SOL    HW1 3772   4.098   1.658   9.434 -0.7894  0.7746  0.7324
63931SOL    HW2 3773   4.119   1.509   9.449 -0.6909  0.6549 -0.5118
63932SOL     OW 3774  11.866   4.584   0.393 -0.0088 -0.3170  0.3590
63932SOL    HW1 3775  11.947   4.623   0.427  1.0125 -1.4967 -0.6147
63932SOL    HW2 3776  11.810   4.659   0.372  0.2168  0.5036  2.4227
63933SOL     OW 3777   6.460   1.570  11.319  0.0831  0.1301 -0.2681
63933SOL    HW1 3778   6.498   1.639  11.265 -2.4424  0.7677 -1.3823
63933SOL    HW2 3779   6.513   1.570  11.399  2.9252  0.2496 -2.0341
63934SOL     OW 3780   2.912   5.011   3.402  0.1659 -0.2930 -0.0612
63934SOL    HW1 3781   2.942   5.093   3.364  2.8727 -2.7012 -3.9855
63934SOL    HW2 3782   2.989   4.975   3.445 -0.8497 -0.9866  1.2569
63935SOL     OW 3783   6.935   5.789  12.174 -0.7452  0.5329  0.1199
63935SOL    HW1 3784   7.008   5.800  12.234  0.4083 -0.2609 -1.0733
63935SOL    HW2 3785   6.881   5.722  12.215  1.7616 -2.5249 -1.1573
63936SOL     OW 3786  10.922  13.634   6.277 -0.4273 -0.1918  0.1016
63936SOL    HW1 3787  10.912  13.630   6.182 -0.8333 -0.4432  0.1511
63936SOL    HW2 3788  10.835  13.659   6.309 -0.2813 -0.0546  0.4043
63937SOL     OW 3789   3.271   7.180  12.410  0.3440  0.1798 -0.1954
63937SOL    HW1 3790   3.186   7.178  12.454 -1.0450  0.7178 -2.7065
63937SOL    HW2 3791   3.334   7.164  12.481 -1.7468  0.5309  1.8882
63938SOL     OW 3792   0.425   7.300   9.791  0.3032 -0.3507 -0.1333
63938SOL    HW1 3793   0.461   7.235   9.730  2.9350  1.6009 -0.7919
63938SOL    HW2 3794   0.365   7.352   9.738  0.0889 -0.6790 -0.2164
63939SOL     OW 3795   7.967  11.247   9.912 -0.3609 -0.3492  0.4720
63939SOL    HW1 3796   7.904  11.314   9.886  0.0524 -0.5886 -1.2893
63939SOL    HW2 3797   8.016  11.287   9.984 -0.4900  1.0499 -0.1732
63940SOL     OW 3798   0.926   5.256   4.897  0.1230  0.1721  0.2747
63940SOL    HW1 3799   1.008   5.258   4.946 -0.1613  0.0617  0.7590
63940SOL    HW2 3800   0.883   5.174   4.924  0.0952 -0.0382 -0.3767
63941SOL     OW 3801   6.211   9.899  11.921  0.1288  0.2803  0.4027
63941SOL    HW1 3802   6.191   9.806  11.932 -3.2023  0.8080 -0.1245
63941SOL    HW2 3803   6.132   9.944  11.949  0.9186  2.8898 -1.1977
63942SOL     OW 3804   7.975   0.298   2.297  0.1901  0.5039 -0.2015
63942SOL    HW1 3805   7.932   0.329   2.377  1.4897  0.1082  0.6832
63942SOL    HW2 3806   7.929   0.342   2.226  0.4312  2.5884  0.8717
63943SOL     OW 3807   6.512  13.799   5.306 -0.2193 -0.5623 -0.1638
63943SOL    HW1 3808   6.456  13.791   5.383  1.4198 -0.8477  1.0355
63943SOL    HW2 3809   6.562  13.879   5.319 -0.6960 -0.0071 -1.4931
63944SOL     OW 3810   2.995   0.634   1.550  0.3578  0.4738 -0.2618
63944SOL    HW1 3811   2.930   0.680   1.497 -0.1602  1.4061  1.1154
63944SOL    HW2 3812   3.069   0.695   1.553  1.0431 -0.2676 -1.2050
63945SOL     OW 3813   4.621  13.640   3.052  0.4142  0.1640  0.0234
63945SOL    HW1 3814   4.633  13.730   3.022 -1.2293 -0.2492 -2.1252
63945SOL    HW2 3815   4.583  13.649   3.140 -1.2663  1.6674 -0.7868
63946SOL     OW 3816  12.823   5.606  12.481  0.4160 -0.3368  0.2314
63946SOL    HW1 3817  12.793   5.685  12.527 -0.1289  0.2329 -1.0429
63946SOL    HW2 3818  12.743   5.559  12.459  0.4954  0.4303 -1.8812
63947SOL     OW 3819   8.211  10.027   3.704 -0.5973 -0.2276  0.7483
63947SOL    HW1 3820   8.243   9.999   3.790  1.1768  2.0979  0.9311
63947SOL    HW2 3821   8.152  10.100   3.722  0.1039  0.5437 -0.0076
63948SOL     OW 3822   1.916   9.870   1.943  0.4654 -0.0658  0.2054
63948SOL    HW1 3823   1.903   9.863   2.038  0.1645 -1.8332  0.0748
63948SOL    HW2 3824   2.004   9.836   1.929  0.9753  1.3146 -0.0511
63949SOL     OW 3825   0.016  10.040  10.320  0.2081  0.1346  0.3020
63949SOL    HW1 3826  -0.062  10.095  10.321 -0.3670 -0.5560 -1.6286
63949SOL    HW2 3827   0.006   9.986  10.242  1.8788 -1.0718  0.8614
63950SOL     OW 3828   9.151  14.002  13.075 -0.4605 -0.3810 -0.2468
63950SOL    HW1 3829   9.088  14.073  13.065  1.1638  1.0775 -0.5430
63950SOL    HW2 3830   9.151  13.983  13.169  0.3808  1.2824  0.1164
63951SOL     OW 3831   1.077   7.895   5.618  0.2033 -0.2635 -0.3568
63951SOL    HW1 3832   1.013   7.858   5.680  1.2895  0.1129  1.0369
63951SOL    HW2 3833   1.029   7.899   5.535 -0.2043 -4.3465 -0.5659
63952SOL     OW 3834  11.527  10.417   9.772 -0.4234 -0.0142 -0.2533
63952SOL    HW1 3835  11.437  10.448   9.767 -0.5540 -0.2879  0.3913
63952SOL    HW2 3836  11.552  10.427   9.864  0.7671  1.5956 -0.6891
63953SOL     OW 3837   0.017  11.970   1.497 -0.0322  0.1940  0.3291
63953SOL    HW1 3838  -0.028  12.017   1.427  0.3457  0.4598  0.2644
63953SOL    HW2 3839   0.028  11.881   1.462  0.2654  0.3581  0.0028
63954SOL     OW 3840  13.132   5.454   1.165 -0.3448 -0.1385  0.2443
63954SOL    HW1 3841  13.098   5.543   1.163  0.2898  0.1238  0.6366
63954SOL    HW2 3842  13.215   5.460   1.117 -1.8858 -1.2538 -2.8286
63955SOL     OW 3843   6.593   8.163   6.237 -0.3780  0.2676 -0.0952
63955SOL    HW1 3844   6.619   8.137   6.325  0.1180  0.7332 -0.0966
63955SOL    HW2 3845   6.558   8.083   6.197  0.9970 -0.3817 -0.0630
63956SOL     OW 3846   0.873   4.581   2.928  0.2671  0.6055  0.4028
63956SOL    HW1 3847   0.937   4.521   2.967 -0.3964 -0.2016  0.2874
63956SOL    HW2 3848   0.794   4.570   2.982 -0.0271  0.9889  0.0589
63957SOL     OW 3849   7.655   2.691   1.290  0.3290 -0.0737 -0.9782
63957SOL    HW1 3850   7.624   2.762   1.346 -0.8324  0.5323 -2.3311
63957SOL    HW2 3851   7.575   2.648   1.261  0.9743 -1.0969 -1.2610
63958SOL     OW 3852   0.426   2.343   7.309 -0.0602  0.0167 -0.0651
63958SOL    HW1 3853   0.510   2.340   7.263  0.3496 -0.1329  0.6884
63958SOL    HW2 3854   0.430   2.422   7.362  1.0288 -1.7030  2.5962
63959SOL     OW 3855   7.268   9.284   2.858  0.1532  0.2468  0.0967
63959SOL    HW1 3856   7.229   9.231   2.927  1.8295 -0.4459  0.5648
63959SOL    HW2 3857   7.235   9.246   2.777 -0.5305  0.0171  0.4689
63960SOL     OW 3858  13.434   2.196  12.533  0.6696 -0.4366  0.3300
63960SOL    HW1 3859  13.388   2.139  12.594  1.2154 -0.0544  1.1163
63960SOL    HW2 3860  13.482   2.136  12.476  0.2395 -0.7961  0.3399
63961SOL     OW 3861  12.552   7.259   6.402  0.5727 -0.0463  0.2138
63961SOL    HW1 3862  12.478   7.204   6.428  1.0701 -0.2157  1.3441
63961SOL    HW2 3863  12.513   7.345   6.388  0.1282 -0.1582  0.6782
63962SOL     OW 3864   0.212   5.553   2.789  0.3580  0.0977  0.4891
63962SOL    HW1 3865   0.260   5.577   2.710  0.6289 -0.8764  0.3510
63962SOL    HW2 3866   0.139   5.615   2.792  0.9864  0.8805  0.1042
63963SOL     OW 3867   9.840   6.350   7.201  0.1501 -0.1424  0.2209
63963SOL    HW1 3868   9.930   6.322   7.216 -0.5923 -1.8725  1.8537
63963SOL    HW2 3869   9.808   6.293   7.132  1.0811  2.3959 -2.5064
63964SOL     OW 3870   1.618  12.892   4.932 -0.0166  0.7890 -0.2559
63964SOL    HW1 3871   1.554  12.823   4.950 -0.2533  1.5913  2.2802
63964SOL    HW2 3872   1.694  12.845   4.898 -0.4792 -0.6482  0.5929
63965SOL     OW 3873   5.097   8.984   3.012 -0.3459 -0.3495  0.3988
63965SOL    HW1 3874   5.127   9.066   3.050  1.1968  0.2664 -1.9062
63965SOL    HW2 3875   5.092   9.002   2.918  0.5389 -2.9953 -0.2459
63966SOL     OW 3876  11.158   3.230  14.025  0.0244 -0.4472 -0.7117
63966SOL    HW1 3877  11.253   3.218  14.029 -0.2121 -2.2495  1.0898
63966SOL    HW2 3878  11.147   3.320  13.993  2.2885 -0.5045 -1.8752
63967SOL     OW 3879   5.049  12.866  12.772 -0.1696 -0.2993  0.4220
63967SOL    HW1 3880   5.014  12.895  12.688 -0.9597 -0.3094  0.7453
63967SOL    HW2 3881   5.132  12.913  12.781 -0.1568 -0.1824 -0.2901
63968SOL     OW 3882  12.151  10.265   9.978 -0.4211  0.5317  0.3266
63968SOL    HW1 3883  12.114  10.295   9.895  0.8036  0.2614 -0.3407
63968SOL    HW2 3884  12.191  10.181   9.957  0.0579  0.5495  1.1499
63969SOL     OW 3885   3.776   7.244   0.307 -0.3159  0.1431 -0.2266
63969SOL    HW1 3886   3.692   7.282   0.335  0.0331  2.5573 -2.0757
63969SOL    HW2 3887   3.775   7.252   0.212  1.5082 -0.9572 -0.3765
63970SOL     OW 3888   2.540   0.902   4.654  0.1746  0.0607  0.6542
63970SOL    HW1 3889   2.537   0.987   4.611 -1.5273 -1.2128 -1.9758
63970SOL    HW2 3890   2.633   0.883   4.664  0.5891  1.5523 -0.1226
63971SOL     OW 3891  10.705   3.087   8.887 -0.4980  0.7993 -0.0265
63971SOL    HW1 3892  10.627   3.137   8.861 -0.5224  0.8018  0.0512
63971SOL    HW2 3893  10.778   3.137   8.853 -0.3987  2.0027  1.8140
63972SOL     OW 3894   6.062   7.278   5.324  1.0687 -0.2188 -0.2501
63972SOL    HW1 3895   6.120   7.205   5.305  0.1879 -0.7531 -0.9905
63972SOL    HW2 3896   6.036   7.311   5.238  2.8819  2.1761  0.0280
63973SOL     OW 3897   2.279   1.732  11.689  0.1828  0.7137 -0.5640
63973SOL    HW1 3898   2.322   1.649  11.665  0.0885  0.6567 -0.5356
63973SOL    HW2 3899   2.350   1.786  11.724 -0.0233  0.0366  1.0222
63974SOL     OW 3900  11.037  13.935  12.690 -0.0862  0.5485  0.0089
63974SOL    HW1 3901  11.103  13.936  12.620 -1.4627  0.2925 -1.3360
63974SOL    HW2 3902  10.953  13.930  12.644 -1.0023 -3.3144  1.6441
63975SOL     OW 3903   1.332  11.043   1.197  0.0299  0.5432  0.5975
63975SOL    HW1 3904   1.364  10.994   1.121  1.0272  0.4128  1.0774
63975SOL    HW2 3905   1.393  11.117   1.206 -0.2629  0.7372  1.0801
63976SOL     OW 3906   7.609  13.632   6.814 -0.0517 -0.0603 -0.2067
63976SOL    HW1 3907   7.519  13.610   6.837 -0.4633  0.7084 -1.0096
63976SOL    HW2 3908   7.634  13.699   6.878 -0.4943  0.6237 -0.7361
63977SOL     OW 3909   1.221  10.577   5.014 -0.6364  0.5030 -0.2068
63977SOL    HW1 3910   1.144  10.600   5.067 -0.9182 -0.8177  0.0010
63977SOL    HW2 3911   1.216  10.482   5.007  2.8870 -0.1130  2.7740
63978SOL     OW 3912   3.099  10.012   0.110  0.0328  0.0434 -0.1929
63978SOL    HW1 3913   3.031  10.003   0.178 -0.6784 -1.4122 -1.0545
63978SOL    HW2 3914   3.175  10.047   0.157 -1.4246  2.1773  0.7159
63979SOL     OW 3915  12.415   6.788   1.826 -0.2551  0.7674  0.1060
63979SOL    HW1 3916  12.412   6.693   1.819  1.6889  0.6282  0.4972
63979SOL    HW2 3917  12.372   6.820   1.747  0.2654 -0.4516 -0.6929
63980SOL     OW 3918   8.414   6.429   7.457 -0.4980  0.1106  0.0959
63980SOL    HW1 3919   8.436   6.381   7.537  1.7008 -2.3420 -1.7747
63980SOL    HW2 3920   8.319   6.438   7.459 -0.4561  0.9533  3.3369
63981SOL     OW 3921   3.789  10.657   6.946 -0.0224  0.6628 -0.6168
63981SOL    HW1 3922   3.824  10.610   7.022  1.2858  0.3114 -1.4099
63981SOL    HW2 3923   3.786  10.748   6.973 -1.6229  0.3057  0.5882
63982SOL     OW 3924   5.679  13.000   3.515  0.4036  0.7312 -0.1901
63982SOL    HW1 3925   5.749  12.935   3.518  0.2575  0.3756 -2.3288
63982SOL    HW2 3926   5.706  13.069   3.575  1.8188 -0.1099  0.1730
63983SOL     OW 3927   3.822   0.107   9.079  0.3977 -0.2384 -0.3571
63983SOL    HW1 3928   3.859   0.091   9.166 -0.7673 -0.9389  0.0327
63983SOL    HW2 3929   3.779   0.192   9.087 -1.2348 -1.0896  0.3122
63984SOL     OW 3930  10.955   0.268   8.803 -0.2410  0.4263  0.0986
63984SOL    HW1 3931  10.907   0.188   8.780  1.1050 -1.0392  2.1143
63984SOL    HW2 3932  11.039   0.260   8.758  0.3592  0.0913  1.2453
63985SOL     OW 3933   0.574   7.896   9.119  0.1196 -0.5847 -0.4299
63985SOL    HW1 3934   0.572   7.808   9.157 -0.2089 -1.3920 -2.2020
63985SOL    HW2 3935   0.666   7.923   9.127  0.2411 -1.1120  0.0497
63986SOL     OW 3936   7.371  12.233   2.666 -0.2385 -0.1562  0.4443
63986SOL    HW1 3937   7.417  12.237   2.582 -0.6095 -0.9447  0.1874
63986SOL    HW2 3938   7.335  12.321   2.678  0.3514  0.1426  0.0866
63987SOL     OW 3939   3.027   2.008   0.727 -0.3959 -0.6301  0.0910
63987SOL    HW1 3940   3.064   1.932   0.681 -1.5355 -1.7539  0.9443
63987SOL    HW2 3941   2.989   2.061   0.657  0.0381 -1.0764 -0.4942
63988SOL     OW 3942   7.333   8.271  10.918  0.0511 -0.1774 -1.0006
63988SOL    HW1 3943   7.251   8.223  10.912 -0.6653  0.7837  0.4219
63988SOL    HW2 3944   7.310   8.361  10.893  0.2731  0.4614  0.9486
63989SOL     OW 3945  11.494   3.057   1.038  0.3988 -0.2762  0.6510
63989SOL    HW1 3946  11.485   3.032   1.130  0.2425  0.4510  0.8398
63989SOL    HW2 3947  11.572   3.112   1.036  0.3593 -0.2304  0.3566
63990SOL     OW 3948  13.691   3.514   0.107 -0.2189  0.0051  0.0349
63990SOL    HW1 3949  13.679   3.477   0.019  0.8273  0.9895 -0.5637
63990SOL    HW2 3950  13.758   3.459   0.147 -0.3516 -0.1556  0.0370
63991SOL     OW 3951   0.887  10.204   5.169  0.3039 -0.6980  0.0138
63991SOL    HW1 3952   0.828  10.199   5.245  1.6965 -1.5344  1.1026
63991SOL    HW2 3953   0.858  10.281   5.121 -0.5595 -0.0757  1.4590
63992SOL     OW 3954  11.439   0.096   2.146 -0.4692  0.2273  0.2151
63992SOL    HW1 3955  11.348   0.097   2.175 -0.8727  2.3161 -0.9254
63992SOL    HW2 3956  11.452   0.008   2.110 -1.4138 -0.7395  2.0954
63993SOL     OW 3957   6.986   8.984   0.655  0.4712  0.4547 -0.3213
63993SOL    HW1 3958   6.894   8.959   0.647  0.5623 -0.1457  0.4342
63993SOL    HW2 3959   7.003   9.037   0.577 -0.4675  0.4371 -0.5493
63994SOL     OW 3960   8.917   8.236  10.473 -0.5744  0.2575 -0.4756
63994SOL    HW1 3961   8.941   8.144  10.467 -0.3603  0.3692 -1.6177
63994SOL    HW2 3962   8.844   8.246  10.411 -1.2217  0.6680  0.3219
63995SOL     OW 3963   6.388   9.580  12.291 -0.0006 -0.3721 -0.0818
63995SOL    HW1 3964   6.411   9.523  12.364 -0.1256  1.4036  1.4366
63995SOL    HW2 3965   6.442   9.659  12.305 -0.2182  0.1120 -1.7738
63996SOL     OW 3966  14.041   6.464  13.866 -0.0814 -0.2492 -0.1599
63996SOL    HW1 3967  13.949   6.442  13.853  0.2638 -2.1920  0.3431
63996SOL    HW2 3968  14.041   6.559  13.881 -1.8356 -0.0029 -1.3726
63997SOL     OW 3969   7.418   2.500   6.206 -0.1789 -0.7326 -0.2636
63997SOL    HW1 3970   7.482   2.527   6.271  0.6786 -1.6838 -0.6896
63997SOL    HW2 3971   7.447   2.542   6.125 -0.1404 -1.0939 -0.4381
63998SOL     OW 3972   9.532   4.514   5.874  0.2373 -0.1341 -0.2886
63998SOL    HW1 3973   9.475   4.545   5.944 -0.9104 -0.3145 -1.1117
63998SOL    HW2 3974   9.513   4.573   5.800  1.2847 -0.0594 -0.5028
63999SOL     OW 3975  11.096   3.939  12.038 -0.4450  0.3145  0.4913
63999SOL    HW1 3976  11.076   3.975  12.125 -2.2974 -0.8674  0.6153
63999SOL    HW2 3977  11.011   3.911  12.004  0.6225 -1.9929 -0.4661
64000SOL     OW 3978   4.958  13.065   2.459 -0.0605  0.1116 -0.3342
64000SOL    HW1 3979   4.983  13.049   2.368  0.0615  1.4983 -0.5679
64000SOL    HW2 3980   5.039  13.095   2.501 -0.3779  0.5913 -0.0569
64001SOL     OW 3981   8.794   0.294   5.724 -0.3273  0.3080  0.3295
64001SOL    HW1 3982   8.859   0.248   5.670 -0.1248 -0.9755  1.5802
64001SOL    HW2 3983   8.741   0.344   5.662  1.4055  0.8299 -0.7896
64002SOL     OW 3984   9.733  13.993   2.714 -0.0774 -0.4850  0.4294
64002SOL    HW1 3985   9.739  14.088   2.713 -0.0400 -0.4868 -0.0393
64002SOL    HW2 3986   9.807  13.964   2.767  1.1286 -0.3172 -1.0777
64003SOL     OW 3987  12.839   8.599   1.510 -0.1709 -0.3350 -0.3264
64003SOL    HW1 3988  12.793   8.657   1.571  0.3580 -1.0736  0.7994
64003SOL    HW2 3989  12.776   8.529   1.493 -0.7696  0.4638 -1.6042
64004SOL     OW 3990   9.733   8.966   8.706  0.1262  0.1586  0.6675
64004SOL    HW1 3991   9.722   9.029   8.634  0.9920  0.1994  0.5657
64004SOL    HW2 3992   9.676   8.893   8.682  0.8680 -0.0949 -0.3773
64005SOL     OW 3993   0.049  10.324   8.698  0.0310 -0.1710  0.3194
64005SOL    HW1 3994  -0.001  10.248   8.668 -0.6251 -0.3368  1.7650
64005SOL    HW2 3995  -0.016  10.381   8.738  0.7516  0.4331  0.6544
64006SOL     OW 3996   1.403   7.995   8.844  0.9859 -0.0605 -0.2598
64006SOL    HW1 3997   1.379   7.928   8.907  0.5109  1.8039  1.6408
64006SOL    HW2 3998   1.495   7.977   8.823  1.4719 -0.1769  1.7600
64007SOL     OW 3999   9.507   7.567   2.896  0.6102 -0.0017  0.0129
64007SOL    HW1 4000   9.560   7.573   2.975  0.0050  0.1670  0.4143
64007SOL    HW2 4001   9.479   7.476   2.893  1.3063 -0.2110 -0.4636
64008SOL     OW 4002  10.534   5.610   3.297 -0.1033 -0.3269  0.5007
64008SOL    HW1 4003  10.471   5.538   3.307 -0.2840  0.0496  2.6641
64008SOL    HW2 4004  10.530   5.656   3.381  1.8384  0.7100  0.0722
64009SOL     OW 4005   6.082   9.720   2.541 -0.3349  0.4100  0.0154
64009SOL    HW1 4006   6.151   9.674   2.492 -2.1680 -2.1384 -0.3774
64009SOL    HW2 4007   6.063   9.663   2.615 -0.9935  1.8236  0.9763
64010SOL     OW 4008   5.475   1.106   3.040  0.3978 -0.0262  0.3185
64010SOL    HW1 4009   5.387   1.105   3.077  0.6445 -0.0252  0.9208
64010SOL    HW2 4010   5.502   1.014   3.039  0.2128 -0.0770 -0.3076
64011SOL     OW 4011   7.909   1.358   5.486  0.6870  0.1737 -0.4508
64011SOL    HW1 4012   7.944   1.270   5.473  0.7765 -0.2884  2.3929
64011SOL    HW2 4013   7.815   1.350   5.469  1.0811  0.2868 -3.1338
64012SOL     OW 4014   0.890  13.454   2.603  0.3485  0.2393  0.1168
64012SOL    HW1 4015   0.916  13.377   2.554 -0.2229 -0.7192  1.2730
64012SOL    HW2 4016   0.797  13.467   2.583  0.4159  0.5696  0.0021
64013SOL     OW 4017   8.979   0.892   1.682 -0.3168 -1.0562 -0.1777
64013SOL    HW1 4018   8.921   0.908   1.608 -0.8116  0.4031  0.4963
64013SOL    HW2 4019   8.921   0.869   1.754  0.1234 -1.9351 -0.0864
64014SOL     OW 4020   0.058   1.407  12.009 -0.2498  0.3860  0.0625
64014SOL    HW1 4021   0.037   1.472  11.942  1.5616  0.5376 -0.4150
64014SOL    HW2 4022   0.002   1.430  12.083 -0.8944  1.4146 -0.7104
64015SOL     OW 4023   2.707   0.644   6.340 -0.0227  0.6513 -0.2697
64015SOL    HW1 4024   2.798   0.657   6.365  1.2094 -1.6431 -2.9673
64015SOL    HW2 4025   2.683   0.559   6.377 -0.8389  0.9088 -0.1806
64016SOL     OW 4026  10.149   1.595   1.869 -0.1492  0.0485  0.0302
64016SOL    HW1 4027  10.231   1.630   1.834 -0.1081  0.5756  0.6315
64016SOL    HW2 4028  10.174   1.555   1.953 -0.5221  0.3340  0.2820
64017SOL     OW 4029   0.001   2.915   5.454 -0.1935  0.6386 -0.3994
64017SOL    HW1 4030  -0.039   3.002   5.463  0.1636  0.8317 -0.6969
64017SOL    HW2 4031   0.094   2.930   5.471 -0.0319  0.4226 -1.0965
64018SOL     OW 4032   3.135   8.908  11.509 -0.4747 -0.7845  0.2425
64018SOL    HW1 4033   3.133   9.002  11.490  0.1583 -1.1064 -1.6152
64018SOL    HW2 4034   3.228   8.886  11.506 -0.7490 -1.8640 -1.6393
64019SOL     OW 4035   9.257   9.858  10.187 -0.1469 -0.1948  0.0155
64019SOL    HW1 4036   9.312   9.871  10.265 -0.6013 -0.9853  0.4808
64019SOL    HW2 4037   9.296   9.782  10.143 -0.4176 -0.2921 -0.0559
64020SOL     OW 4038  11.972   1.122   5.117 -0.1571  0.1219 -0.2710
64020SOL    HW1 4039  11.976   1.046   5.176 -1.5454  0.2944  0.0809
64020SOL    HW2 4040  11.993   1.086   5.030 -1.8991 -0.9195 -0.3041
64021SOL     OW 4041   7.131   0.019   0.399  0.5085  0.0867  0.2179
64021SOL    HW1 4042   7.126   0.063   0.484 -0.0554  0.6427 -0.0920
64021SOL    HW2 4043   7.126  -0.075   0.420 -0.7445  0.2444  0.7439
64022SOL     OW 4044  12.175  12.717   2.567 -0.0211  0.2854  0.1519
64022SOL    HW1 4045  12.117  12.715   2.491 -2.1229  1.3629  1.6267
64022SOL    HW2 4046  12.223  12.635   2.563 -0.4992  0.0591 -2.0007
64023SOL     OW 4047   0.725  11.663  10.732  0.1903  0.1004 -0.1287
64023SOL    HW1 4048   0.709  11.675  10.826 -0.7359 -1.9371  0.0376
64023SOL    HW2 4049   0.644  11.694  10.691  0.4090  0.5439 -0.2323
64024SOL     OW 4050  10.140   3.635   4.007 -0.2104 -0.0914 -0.6230
64024SOL    HW1 4051  10.053   3.665   3.978 -0.1622  0.4504 -0.2229
64024SOL    HW2 4052  10.197   3.710   3.992  0.3193 -0.6537 -1.4630
64025SOL     OW 4053   7.429  10.447   6.147 -0.2734  0.1403  0.3512
64025SOL    HW1 4054   7.422  10.402   6.062 -2.2093  0.2454  0.4292
64025SOL    HW2 4055   7.382  10.529   6.135  1.1732  1.0890  0.9480
64026SOL     OW 4056   7.948   1.969  12.574 -0.8249 -0.0239  0.2824
64026SOL    HW1 4057   7.879   2.033  12.561 -0.3769  0.3986 -0.0622
64026SOL    HW2 4058   7.961   1.929  12.488 -1.9156 -1.4346  0.7444
64027SOL     OW 4059  12.500   3.988   7.371  0.3031 -0.4524  0.0739
64027SOL    HW1 4060  12.468   3.904   7.404  0.9136 -0.4599  0.6691
64027SOL    HW2 4061  12.586   3.969   7.335 -0.2513 -0.3926 -1.3380
64028SOL     OW 4062   4.173  12.768   1.758 -0.2064 -0.2796  0.7981
64028SOL    HW1 4063   4.183  12.837   1.692  1.4867  0.0377  1.3175
64028SOL    HW2 4064   4.147  12.691   1.708 -1.8278  0.6238  0.1653
64029SOL     OW 4065  10.779   3.426   4.669  0.3285 -0.6379  0.3925
64029SOL    HW1 4066  10.829   3.387   4.598  2.6106  2.4415  0.0733
64029SOL    HW2 4067  10.692   3.441   4.633  0.2300 -2.6914 -0.3420
64030SOL     OW 4068   6.603   4.829   6.137  0.1368  0.2542  0.3178
64030SOL    HW1 4069   6.580   4.909   6.184  2.2208  1.2939 -0.3337
64030SOL    HW2 4070   6.647   4.775   6.203  0.3611  0.4182  0.3016
64031SOL     OW 4071   7.469   7.302  11.538  0.0143 -0.0835 -0.8759
64031SOL    HW1 4072   7.416   7.269  11.610  0.1501  1.8411  0.1690
64031SOL    HW2 4073   7.422   7.276  11.459 -0.3315 -1.9047 -0.1128
64032SOL     OW 4074  13.461  13.114   0.715 -0.6859  0.2067  1.0157
64032SOL    HW1 4075  13.390  13.118   0.651 -0.9007 -1.7621  1.0715
64032SOL    HW2 4076  13.446  13.190   0.771 -0.9541  1.5314 -0.7665
64033SOL     OW 4077   3.153   9.760  10.296 -0.3702  0.5835 -0.1040
64033SOL    HW1 4078   3.131   9.705  10.220 -1.1337  2.4690 -1.3313
64033SOL    HW2 4079   3.077   9.752  10.354  0.4734 -1.3452  0.8157
64034SOL     OW 4080   3.405   5.383   3.895 -0.3355  0.2239  0.0189
64034SOL    HW1 4081   3.474   5.436   3.933  1.1654  0.4211 -2.6965
64034SOL    HW2 4082   3.442   5.296   3.888 -0.1172  0.4073 -1.7859
64035SOL     OW 4083   0.132   5.162  11.425 -0.2505 -0.1280 -0.2303
64035SOL    HW1 4084   0.196   5.209  11.371  1.1145 -0.5567  0.9675
64035SOL    HW2 4085   0.051   5.213  11.415  0.6958  1.4133 -0.4601
64036SOL     OW 4086  10.988   6.831  14.031 -0.1110 -0.2622  0.0052
64036SOL    HW1 4087  11.018   6.920  14.016 -0.9924 -0.1415 -1.1710
64036SOL    HW2 4088  10.937   6.836  14.112  0.7717  0.0573  0.5514
64037SOL     OW 4089   8.807  11.797  11.345 -0.1819 -0.0451 -0.1389
64037SOL    HW1 4090   8.797  11.777  11.438  0.9481 -0.9299 -0.1902
64037SOL    HW2 4091   8.782  11.716  11.301  3.3212 -1.1259 -0.3993
64038SOL     OW 4092  12.344  10.130   8.886  0.1470  0.3636  0.5273
64038SOL    HW1 4093  12.306  10.043   8.874  0.1668  0.4566 -0.2806
64038SOL    HW2 4094  12.269  10.186   8.906  0.3320 -0.1293  2.8285
64039SOL     OW 4095   8.609  10.900  11.543 -0.2938  0.5877  0.1682
64039SOL    HW1 4096   8.686  10.910  11.600 -0.4027  2.9602 -0.0003
64039SOL    HW2 4097   8.542  10.863  11.600  0.3740  0.4107  0.8620
64040SOL     OW 4098   0.350   4.990   8.533  0.2998  0.1198 -0.2349
64040SOL    HW1 4099   0.345   4.911   8.480  0.8622 -0.3792  0.4423
64040SOL    HW2 4100   0.442   5.018   8.525  1.1070 -1.3749  2.4292
64041SOL     OW 4101   4.744  11.456   2.144 -0.7048 -0.0676  0.3256
64041SOL    HW1 4102   4.726  11.515   2.071 -0.8386  0.3300  0.6748
64041SOL    HW2 4103   4.686  11.487   2.214  0.0539  0.1065  0.8881
64042SOL     OW 4104   1.643   2.304   0.805  0.1267  0.2766 -0.4304
64042SOL    HW1 4105   1.576   2.361   0.766  0.8543  2.2394  1.0331
64042SOL    HW2 4106   1.609   2.285   0.892  0.8265  0.1214 -0.1892
64043SOL     OW 4107   4.696   1.590   2.626  0.4990  0.3349  0.4730
64043SOL    HW1 4108   4.614   1.617   2.666  0.0067 -0.2892 -0.0918
64043SOL    HW2 4109   4.676   1.581   2.533  1.7715  2.3850 -0.0726
64044SOL     OW 4110   9.700  10.873   6.282 -0.0420 -0.4516 -0.4108
64044SOL    HW1 4111   9.734  10.882   6.193  1.3329  1.8647  0.2617
64044SOL    HW2 4112   9.704  10.961   6.318  0.5495 -1.5147  2.3442
64045SOL     OW 4113   6.321   3.821   6.644  0.1785 -0.3137  0.0065
64045SOL    HW1 4114   6.406   3.826   6.600 -0.4782  1.1924 -1.1828
64045SOL    HW2 4115   6.261   3.786   6.578 -0.1509 -1.3916  0.8445
64046SOL     OW 4116   6.550   4.809   8.120  0.7344 -0.2192 -0.3775
64046SOL    HW1 4117   6.458   4.807   8.092  0.9739  1.5821 -1.4073
64046SOL    HW2 4118   6.599   4.825   8.040  1.8645  0.1009  0.3545
64047SOL     OW 4119  13.961   9.975   2.498  0.0005 -0.0706 -0.3916
64047SOL    HW1 4120  13.909   9.948   2.422 -0.3241  1.0380 -0.5704
64047SOL    HW2 4121  13.978   9.893   2.545 -1.9396 -0.4736 -0.3136
64048SOL     OW 4122   9.581   7.400   9.080  0.1903  0.4897  0.2676
64048SOL    HW1 4123   9.550   7.476   9.129 -1.4907 -0.9334  1.5894
64048SOL    HW2 4124   9.665   7.427   9.043  0.6785  2.2599  2.4592
64049SOL     OW 4125   2.631   1.975   8.578  0.1462  0.4244 -0.1635
64049SOL    HW1 4126   2.667   1.894   8.542  0.0567 -0.2868  1.2797
64049SOL    HW2 4127   2.665   2.044   8.521  3.2204 -0.2629  0.6533
64050SOL     OW 4128   9.777  11.756  11.556 -0.2123  0.4749  0.3003
64050SOL    HW1 4129   9.863  11.795  11.571 -0.4972  0.4108  2.3621
64050SOL    HW2 4130   9.794  11.684  11.494  1.1634  0.6349  0.4618
64051SOL     OW 4131   0.512   5.339   2.979 -0.1689  0.0382  0.0623
64051SOL    HW1 4132   0.575   5.270   2.998 -1.0084 -0.5051  0.9073
64051SOL    HW2 4133   0.566   5.413   2.951  0.8009 -0.6062  0.1829
64052SOL     OW 4134   0.265   4.000   5.827 -0.3586  0.3069  0.3367
64052SOL    HW1 4135   0.288   3.932   5.764  0.6336  2.0932 -1.3203
64052SOL    HW2 4136   0.311   3.975   5.907 -0.5579 -1.2980 -0.0147
64053SOL     OW 4137   4.262  13.148  10.123  0.3049  0.1074  0.3616
64053SOL    HW1 4138   4.178  13.150  10.077 -0.1552  1.2351  1.2055
64053SOL    HW2 4139   4.322  13.195  10.066 -0.5356  2.5130  1.3467
64054SOL     OW 4140   8.524   4.267   4.713 -0.4299  0.4229  0.3774
64054SOL    HW1 4141   8.568   4.341   4.754  3.3769 -0.9615 -0.7802
64054SOL    HW2 4142   8.525   4.198   4.779 -0.3075  0.1886  0.1338
64055SOL     OW 4143  11.025  13.450   4.840 -0.4588  0.7508  0.9995
64055SOL    HW1 4144  10.968  13.456   4.763  0.2472  0.1544  0.4269
64055SOL    HW2 4145  11.046  13.541   4.861  0.0404  0.8819 -0.0390
64056SOL     OW 4146  13.124   4.959   8.483  0.5845 -0.2111 -0.5524
64056SOL    HW1 4147  13.173   4.936   8.562  0.4038 -1.2260 -0.7194
64056SOL    HW2 4148  13.032   4.954   8.510  0.5366  1.2104 -0.3692
64057SOL     OW 4149   5.583   4.176   7.315  0.4069 -0.0450 -0.6512
64057SOL    HW1 4150   5.571   4.239   7.386 -2.4513  0.1747 -1.2236
64057SOL    HW2 4151   5.549   4.094   7.350  1.7973 -0.6969 -0.7743
64058SOL     OW 4152   7.409  10.585   7.623  0.2911  0.5418 -0.4195
64058SOL    HW1 4153   7.385  10.577   7.715  1.7176 -1.4112 -0.1586
64058SOL    HW2 4154   7.502  10.563   7.620  1.0633  3.4473 -1.9811
64059SOL     OW 4155  10.502  12.435   3.437  0.5304  0.0135 -0.2483
64059SOL    HW1 4156  10.540  12.392   3.361 -1.8155 -4.4832  0.8057
64059SOL    HW2 4157  10.432  12.490   3.401  0.4321 -0.8761 -1.4624
64060SOL     OW 4158   9.981  13.538   3.495 -0.3517  0.5997  0.4992
64060SOL    HW1 4159   9.909  13.477   3.479  0.0540  0.8282 -2.7098
64060SOL    HW2 4160  10.054  13.482   3.520 -0.8173  0.1016  0.7847
64061SOL     OW 4161  12.461   3.811   1.115  0.1952 -0.1762 -0.3447
64061SOL    HW1 4162  12.495   3.899   1.127 -0.2486  0.1686 -1.4231
64061SOL    HW2 4163  12.450   3.803   1.020 -0.1295 -1.2510 -0.2287
64062SOL     OW 4164   1.758   5.471  12.076 -0.5422  0.0800  0.3490
64062SOL    HW1 4165   1.786   5.448  12.165  0.4014  0.0923  0.0666
64062SOL    HW2 4166   1.839   5.493  12.031 -0.8978 -0.8992 -0.8104
64063SOL     OW 4167   0.545   7.236  11.127 -0.2661 -0.4990  0.8699
64063SOL    HW1 4168   0.512   7.209  11.042 -1.4024 -1.0448  1.4678
64063SOL    HW2 4169   0.593   7.160  11.160 -0.7538 -0.6795  1.1766
64064SOL     OW 4170   6.003   4.743  10.620 -0.1193 -0.3961  0.1331
64064SOL    HW1 4171   5.941   4.752  10.692 -1.8136 -1.6690 -1.0951
64064SOL    HW2 4172   6.005   4.830  10.579 -0.9152 -0.2785  0.3303
64065SOL     OW 4173  12.364   9.365  13.995  0.3710 -0.1147 -0.4100
64065SOL    HW1 4174  12.291   9.306  14.014 -0.4227  0.7597 -0.6750
64065SOL    HW2 4175  12.327   9.453  14.004  2.2135  0.4716  2.8232
64066SOL     OW 4176  13.675   4.398  13.249 -0.9177  0.6138 -0.0157
64066SOL    HW1 4177  13.601   4.340  13.268 -0.7840  0.6830  0.7431
64066SOL    HW2 4178  13.708   4.424  13.335  0.0693  0.4888 -0.3419
64067SOL     OW 4179   1.767   6.724  11.831 -0.2740 -0.3344 -0.1351
64067SOL    HW1 4180   1.792   6.757  11.745 -0.8052  1.8767  0.4895
64067SOL    HW2 4181   1.815   6.642  11.840  0.0961 -0.4298 -2.3551
64068SOL     OW 4182   1.344   8.004  11.330  0.2661  0.0239 -0.1113
64068SOL    HW1 4183   1.384   8.069  11.389 -1.5639  0.4641  0.7223
64068SOL    HW2 4184   1.413   7.984  11.266  2.4805 -0.6915  2.2975
64069SOL     OW 4185   1.644   3.893   2.955 -0.6016 -0.3924 -0.0840
64069SOL    HW1 4186   1.585   3.963   2.927 -0.3347  0.7833  2.0466
64069SOL    HW2 4187   1.731   3.932   2.949 -0.4437 -0.5376  1.0096
64070SOL     OW 4188   4.838   0.390   4.908  0.1788  0.1151 -0.3203
64070SOL    HW1 4189   4.863   0.444   4.984 -0.7006 -1.0151  0.8090
64070SOL    HW2 4190   4.750   0.418   4.886  0.4043  0.3893 -0.9087
64071SOL     OW 4191   8.859   8.631  12.301 -0.5493  0.2629  0.2320
64071SOL    HW1 4192   8.778   8.589  12.330 -0.3354  1.2562  2.5172
64071SOL    HW2 4193   8.921   8.614  12.371  0.2586  2.2447  0.0578
64072SOL     OW 4194   9.257   3.449   3.328 -0.1439 -0.4763 -0.2907
64072SOL    HW1 4195   9.344   3.436   3.366  0.3921 -0.7291 -1.5684
64072SOL    HW2 4196   9.209   3.369   3.349 -0.4531  0.0858  1.3341
64073SOL     OW 4197   9.420   0.601   5.982 -0.2145  0.2924  0.2712
64073SOL    HW1 4198   9.397   0.684   5.942 -0.1414  0.1427 -0.0910
64073SOL    HW2 4199   9.504   0.578   5.943 -1.0848 -0.8338 -1.0181
64074SOL     OW 4200   7.712   6.164   9.376 -0.3693 -0.1753 -0.7450
64074SOL    HW1 4201   7.658   6.172   9.296 -0.2471  0.7872 -0.7527
64074SOL    HW2 4202   7.789   6.116   9.348 -1.8051 -2.8198 -0.4224
64075SOL     OW 4203   9.287   0.252   3.420  0.3331 -0.1497 -0.6626
64075SOL    HW1 4204   9.352   0.279   3.484  0.2792  0.9655 -1.0518
64075SOL    HW2 4205   9.270   0.160   3.439  0.1439  0.2234  1.0648
64076SOL     OW 4206   9.589   0.648   5.275  0.2256 -0.1388  0.3531
64076SOL    HW1 4207   9.637   0.724   5.241 -1.9530  1.2388  0.1586
64076SOL    HW2 4208   9.623   0.637   5.364 -0.7397  2.3656  1.1210
64077SOL     OW 4209  10.380   2.284   9.255  0.4416  0.3263  0.6778
64077SOL    HW1 4210  10.474   2.278   9.242  0.1713 -2.8493 -0.6910
64077SOL    HW2 4211  10.342   2.262   9.170 -1.5154 -1.0600  1.8160
64078SOL     OW 4212  12.726  12.872   0.442 -0.2704  0.2991  0.1401
64078SOL    HW1 4213  12.657  12.876   0.508  0.1285 -0.2113  0.5988
64078SOL    HW2 4214  12.807  12.861   0.492 -0.0483 -0.9636 -0.4599
64079SOL     OW 4215   0.089  13.400   8.867 -0.2823  0.1000  0.0141
64079SOL    HW1 4216   0.033  13.401   8.945 -1.5062 -2.2441 -0.7327
64079SOL    HW2 4217   0.028  13.405   8.794  0.7348  0.6005 -0.8144
64080SOL     OW 4218   4.409  13.137  12.133  0.0374  0.6130  0.1565
64080SOL    HW1 4219   4.440  13.201  12.069 -1.3771  2.5358  1.2968
64080SOL    HW2 4220   4.328  13.103  12.094  0.3519  0.1115 -0.0694
64081SOL     OW 4221   9.794   9.837   6.787  0.0841  0.1842  0.0538
64081SOL    HW1 4222   9.740   9.838   6.865  0.1544 -0.4257  0.1151
64081SOL    HW2 4223   9.811   9.744   6.771  0.8722  0.3542 -0.1254
64082SOL     OW 4224   6.785   2.522  13.077 -0.2568  0.0327  0.3976
64082SOL    HW1 4225   6.745   2.580  13.012 -0.3455 -0.9927 -0.4858
64082SOL    HW2 4226   6.783   2.435  13.036  0.5165 -0.4758  1.4044
64083SOL     OW 4227   3.931  11.988  10.918 -0.1639  0.8208  0.1932
64083SOL    HW1 4228   3.879  11.913  10.945 -0.7659  1.1431 -0.0367
64083SOL    HW2 4229   3.874  12.063  10.934 -0.5353  1.0443 -1.8622
64084SOL     OW 4230   2.243   2.458   3.848  0.1810  0.2181  0.1276
64084SOL    HW1 4231   2.292   2.495   3.775  1.2619 -1.1594  0.1181
64084SOL    HW2 4232   2.156   2.442   3.812  0.5149  0.1437 -0.6683
64085SOL     OW 4233  12.141   7.001   6.565 -0.3064 -0.2253  0.3530
64085SOL    HW1 4234  12.093   6.927   6.603 -0.0816 -0.6616 -0.1957
64085SOL    HW2 4235  12.193   7.036   6.637 -1.0826 -0.0469  0.8344
64086SOL     OW 4236   7.441  13.493   9.891 -0.0525  0.3497 -0.2506
64086SOL    HW1 4237   7.527  13.450   9.890 -0.3960 -0.4224  1.1715
64086SOL    HW2 4238   7.393  13.453   9.818  0.5806  0.3817 -0.6956
64087SOL     OW 4239   6.676   0.842  10.432  0.5795  0.2168 -0.2050
64087SOL    HW1 4240   6.662   0.890  10.513  0.9756 -1.7418  1.0848
64087SOL    HW2 4241   6.748   0.888  10.389 -0.0442  1.6428  0.2173
64088SOL     OW 4242   9.593   5.220   9.708 -0.0121  0.2414  0.2505
64088SOL    HW1 4243   9.581   5.140   9.657  1.1582 -0.1384  0.5481
64088SOL    HW2 4244   9.663   5.199   9.770 -0.5236  1.1096  1.1519
64089SOL     OW 4245   9.475   0.753   1.704  0.2694 -0.5443  0.3302
64089SOL    HW1 4246   9.435   0.689   1.763  1.6245 -1.7778 -0.0263
64089SOL    HW2 4247   9.522   0.701   1.640 -1.2472  0.7714 -1.9775
64090SOL     OW 4248  13.703   5.222   0.141 -0.3132  0.5427  0.0911
64090SOL    HW1 4249  13.695   5.177   0.225 -1.4911 -1.7398 -1.1546
64090SOL    HW2 4250  13.622   5.272   0.132 -1.2171 -0.9655 -0.5860
64091SOL     OW 4251  11.228   7.532  12.942 -0.6241 -0.2438 -0.0845
64091SOL    HW1 4252  11.182   7.564  13.019 -2.1608 -1.5659 -0.3943
64091SOL    HW2 4253  11.264   7.448  12.969  2.0213  0.9087  0.2584
64092SOL     OW 4254   8.237   0.188  10.608 -0.1816  0.6999 -0.1057
64092SOL    HW1 4255   8.263   0.125  10.674 -1.2980  0.8258  0.4728
64092SOL    HW2 4256   8.169   0.144  10.558  0.7661  0.5369 -1.3173
64093SOL     OW 4257   6.268   1.466   4.705 -0.4110  0.3438 -0.1001
64093SOL    HW1 4258   6.257   1.428   4.792 -1.0551 -1.3256 -0.8720
64093SOL    HW2 4259   6.359   1.498   4.705  0.1879 -1.2437  0.6075
64094SOL     OW 4260  11.582   9.798   8.539 -0.1303  0.0483 -0.0447
64094SOL    HW1 4261  11.642   9.814   8.466  0.2549 -2.0125 -0.2428
64094SOL    HW2 4262  11.578   9.702   8.546 -0.6443  0.1864  2.2530
64095SOL     OW 4263   7.539   0.421  12.485 -0.4610  0.4318  1.1052
64095SOL    HW1 4264   7.465   0.478  12.506  0.1981  1.3893  0.9293
64095SOL    HW2 4265   7.541   0.420  12.389  0.6888  1.7100  1.0882
64096SOL     OW 4266  11.980  10.058   5.110 -0.8875  0.2966  0.2024
64096SOL    HW1 4267  11.906  10.105   5.148 -0.4114  0.8591  0.4489
64096SOL    HW2 4268  12.016  10.118   5.044 -0.0457  0.4623  0.7851
64097SOL     OW 4269  12.018   2.795  11.950  0.1748  0.6278  0.6192
64097SOL    HW1 4270  12.078   2.829  11.884  0.2054  0.7101  0.6902
64097SOL    HW2 4271  12.021   2.859  12.021  0.2849  0.4453  0.7815
64098SOL     OW 4272   8.726   3.197   9.354  0.2885  0.5441  0.5100
64098SOL    HW1 4273   8.645   3.247   9.342 -0.2526 -0.2476  0.7472
64098SOL    HW2 4274   8.712   3.149   9.436  0.0871 -1.2894 -0.5531
64099SOL     OW 4275  13.129  12.590   5.991  0.0732 -0.2800  0.3820
64099SOL    HW1 4276  13.122  12.657   5.923  1.6995  0.6612  1.0680
64099SOL    HW2 4277  13.217  12.555   5.981 -0.4451 -1.7215  0.6091
64100SOL     OW 4278   5.064   4.439   2.380 -0.4077 -0.1963  0.8421
64100SOL    HW1 4279   5.058   4.346   2.400 -0.3807 -0.7223 -1.3112
64100SOL    HW2 4280   4.975   4.472   2.395 -1.1740 -1.2209 -0.9795
64101SOL     OW 4281   7.434   0.398   4.537  0.0935  0.4554  0.7810
64101SOL    HW1 4282   7.471   0.485   4.523  0.0248  0.2940 -0.5270
64101SOL    HW2 4283   7.340   0.410   4.524  0.0111  0.3004  1.2148
64102SOL     OW 4284   8.679   6.279   4.101 -0.4435  0.0937 -0.3207
64102SOL    HW1 4285   8.678   6.360   4.050 -1.2825  0.7657  0.7180
64102SOL    HW2 4286   8.653   6.211   4.039 -0.9483  0.8189 -0.9220
64103SOL     OW 4287  10.514   8.489   9.921 -0.3024 -0.4843 -0.5545
64103SOL    HW1 4288  10.458   8.456   9.993  1.3861 -1.0636  0.5521
64103SOL    HW2 4289  10.522   8.414   9.862 -0.2050 -0.5891 -0.4087
64104SOL     OW 4290  12.105  13.639   3.204  0.4312 -0.3530 -0.3555
64104SOL    HW1 4291  12.123  13.555   3.161 -1.0507 -0.4981 -0.7540
64104SOL    HW2 4292  12.074  13.696   3.133 -1.9580 -0.5657  0.4206
64105SOL     OW 4293  13.182  12.774  10.088 -0.2560  0.2234  0.1370
64105SOL    HW1 4294  13.250  12.712  10.061 -0.3034  0.0852  0.3293
64105SOL    HW2 4295  13.101  12.739  10.051 -0.4022 -0.2442  0.8654
64106SOL     OW 4296  11.727  12.802   8.437 -0.5235  0.1928  0.4107
64106SOL    HW1 4297  11.661  12.870   8.456  0.9573  1.6468  0.5868
64106SOL    HW2 4298  11.810  12.850   8.432  0.5776 -1.6236  0.4314
64107SOL     OW 4299   0.966  12.633   8.595 -0.0290 -0.2017  0.0526
64107SOL    HW1 4300   1.024  12.572   8.641 -3.3669 -2.2798  1.8984
64107SOL    HW2 4301   0.879  12.595   8.604 -2.1347  3.9447 -0.3392
64108SOL     OW 4302  13.002   1.010   5.790  0.0351  0.3297  0.2437
64108SOL    HW1 4303  12.991   0.920   5.819 -0.1901  0.7994  1.7392
64108SOL    HW2 4304  13.001   1.006   5.695 -0.1918 -1.2106  0.2948
64109SOL     OW 4305   4.077  11.199   2.641  0.0154  0.5702  0.1781
64109SOL    HW1 4306   4.015  11.165   2.706  3.3800 -2.2255  2.2643
64109SOL    HW2 4307   4.044  11.167   2.557 -0.8456 -1.8487  1.3340
64110SOL     OW 4308   3.233   7.227   9.641 -0.0205 -0.4614  0.3142
64110SOL    HW1 4309   3.317   7.260   9.610  0.0661 -0.8731  0.1144
64110SOL    HW2 4310   3.202   7.169   9.572  0.0277 -1.1364  0.8452
64111SOL     OW 4311  11.210   1.990  12.526  0.1067  0.4082  0.3744
64111SOL    HW1 4312  11.135   2.043  12.553  0.3465  0.5251  0.8284
64111SOL    HW2 4313  11.193   1.968  12.435  1.4097  3.6771 -0.7758
64112SOL     OW 4314  12.718   4.422   4.875  0.3109 -0.2437  0.7054
64112SOL    HW1 4315  12.626   4.419   4.848 -0.4629  1.9949  2.7725
64112SOL    HW2 4316  12.740   4.331   4.894 -1.4748 -0.8283  0.1953
64113SOL     OW 4317  13.154  11.621   4.831  0.1590  0.1799  0.0118
64113SOL    HW1 4318  13.138  11.574   4.912 -0.5774 -0.8050 -0.6782
64113SOL    HW2 4319  13.193  11.557   4.772  0.9523  0.9530 -0.3366
64114SOL     OW 4320   9.179   7.443   4.290  0.1077  0.0371  0.7450
64114SOL    HW1 4321   9.268   7.432   4.255 -0.3994 -2.3156  0.0092
64114SOL    HW2 4322   9.193   7.476   4.379  1.7158 -0.1275  0.5886
64115SOL     OW 4323  12.251   1.458  12.744  0.2391 -0.2351  0.4735
64115SOL    HW1 4324  12.260   1.553  12.731  3.3451 -0.5794 -0.7044
64115SOL    HW2 4325  12.268   1.444  12.837 -1.3100  0.3948  0.8878
64116SOL     OW 4326   8.637  13.859   0.088 -0.1669 -0.0476  0.1237
64116SOL    HW1 4327   8.574  13.931   0.088 -0.8382 -0.6244  0.3592
64116SOL    HW2 4328   8.613  13.807   0.012  2.4889  1.7926 -2.2150
64117SOL     OW 4329   7.091   0.297   7.834  0.2667  0.2511 -0.1412
64117SOL    HW1 4330   7.076   0.374   7.888 -2.4434 -0.1933 -0.0946
64117SOL    HW2 4331   7.155   0.245   7.883  0.8506  1.6541  0.6463
64118SOL     OW 4332  11.080   9.921   7.538 -0.4863  0.2502 -0.7080
64118SOL    HW1 4333  10.989   9.946   7.550 -0.2810  1.0103 -0.6587
64118SOL    HW2 4334  11.078   9.851   7.472 -1.1495 -0.1857 -0.2321
64119SOL     OW 4335   6.993  13.013   3.653 -0.1880  0.1733 -0.3481
64119SOL    HW1 4336   6.927  13.079   3.674 -0.9540 -0.9152  0.8509
64119SOL    HW2 4337   7.038  12.997   3.737  0.9974  0.2497 -0.9502
64120SOL     OW 4338  11.145  10.290   5.989 -0.2464  0.1731 -0.2001
64120SOL    HW1 4339  11.100  10.356   5.935  0.4600  0.2940 -0.6645
64120SOL    HW2 4340  11.200  10.342   6.048  1.5674  0.0306 -1.6591
64121SOL     OW 4341   8.127  13.204   7.523 -0.0129  0.1406  0.0575
64121SOL    HW1 4342   8.206  13.233   7.479 -0.4523  1.2641 -0.0271
64121SOL    HW2 4343   8.143  13.224   7.616 -0.2709  0.5643  0.0136
64122SOL     OW 4344   7.411  10.877   7.800 -0.6773  0.6244  0.5213
64122SOL    HW1 4345   7.360  10.954   7.775 -2.9732 -0.6207  1.0287
64122SOL    HW2 4346   7.403  10.817   7.726 -2.7659 -0.8459  1.8198
64123SOL     OW 4347   0.713   2.894  11.616  0.6952  0.3918  0.4635
64123SOL    HW1 4348   0.716   2.988  11.600  0.0245  0.0798 -1.6807
64123SOL    HW2 4349   0.804   2.865  11.604  0.8753  0.7210  0.9801
64124SOL     OW 4350  11.696  11.254   0.718  0.0486  0.1043  0.2042
64124SOL    HW1 4351  11.657  11.168   0.704 -0.0714 -0.0612  1.4547
64124SOL    HW2 4352  11.664  11.307   0.645  0.4590 -1.0185 -0.8027
64125SOL     OW 4353   0.300  13.785   8.291  0.1621  0.2059  0.1719
64125SOL    HW1 4354   0.337  13.793   8.204  0.4735  1.4808  0.3968
64125SOL    HW2 4355   0.351  13.716   8.333  1.7055  1.2709  0.1499
64126SOL     OW 4356   0.063   0.293   2.729 -0.4694  0.2820  0.0006
64126SOL    HW1 4357  -0.013   0.286   2.786  0.1345  0.2326  0.8214
64126SOL    HW2 4358   0.138   0.287   2.788  0.2628 -2.5814 -1.0271
64127SOL     OW 4359   2.910   5.996   9.894  0.1593 -0.1167  0.4113
64127SOL    HW1 4360   2.902   5.927   9.827  0.5577 -0.0545  0.2947
64127SOL    HW2 4361   3.001   5.990   9.923  0.9314  1.9607 -1.3668
64128SOL     OW 4362   4.875   4.164  10.581  0.0725 -0.0167  0.2035
64128SOL    HW1 4363   4.815   4.199  10.647 -0.9456 -0.6315 -0.3661
64128SOL    HW2 4364   4.959   4.207  10.599 -0.0621 -0.5020  2.1686
64129SOL     OW 4365  12.514   2.303   8.335 -0.0664  0.7259 -0.9500
64129SOL    HW1 4366  12.515   2.208   8.345 -1.1290  0.8117  0.3613
64129SOL    HW2 4367  12.591   2.323   8.282  0.8598 -0.7587 -0.2318
64130SOL     OW 4368   9.285  13.759  10.769 -0.0997  0.2957 -0.0606
64130SOL    HW1 4369   9.313  13.807  10.846  0.1295 -0.0894  0.0952
64130SOL    HW2 4370   9.318  13.670  10.781 -2.4543 -0.5657  0.7677
64131SOL     OW 4371   3.631  10.029  13.809 -0.0695 -0.3935  0.4662
64131SOL    HW1 4372   3.626   9.998  13.899 -0.6824  1.0528  0.9696
64131SOL    HW2 4373   3.574  10.106  13.807  1.2129  0.5818 -0.7278
64132SOL     OW 4374   3.438  13.753   5.509 -0.1271 -0.0021 -0.6176
64132SOL    HW1 4375   3.474  13.834   5.544 -0.3184 -0.0331 -0.3442
64132SOL    HW2 4376   3.408  13.704   5.586  0.9710 -0.8215 -0.6963
64133SOL     OW 4377  10.138   1.688   5.933  0.1319  0.1921 -0.2918
64133SOL    HW1 4378  10.162   1.780   5.934  0.5948  0.0723  1.2942
64133SOL    HW2 4379  10.190   1.648   6.002  0.9327 -1.5414 -1.8052
64134SOL     OW 4380   4.194  11.671   4.982 -0.2605  0.0471  0.0506
64134SOL    HW1 4381   4.165  11.735   4.918 -1.8793 -0.7991 -0.0950
64134SOL    HW2 4382   4.252  11.613   4.933 -0.1922  0.3552 -0.2409
64135SOL     OW 4383   0.901  10.483   8.869 -0.2672 -0.1157  0.3205
64135SOL    HW1 4384   0.829  10.460   8.809  0.9740 -0.2892 -1.1670
64135SOL    HW2 4385   0.945  10.556   8.826  0.2359  0.2424  1.4108
64136SOL     OW 4386   7.365   9.571  11.889  0.2802  0.1905  0.9049
64136SOL    HW1 4387   7.451   9.542  11.921  0.8251  0.3766 -0.3582
64136SOL    HW2 4388   7.384   9.648  11.836 -0.3705 -1.0810 -1.2772
64137SOL     OW 4389   5.753   3.251   4.253 -0.1602 -0.0644 -0.4622
64137SOL    HW1 4390   5.815   3.208   4.194  0.9513 -0.3479  0.8476
64137SOL    HW2 4391   5.805   3.318   4.298 -1.2264  0.8462 -0.5347
64138SOL     OW 4392   7.424   1.971  12.327  0.0315 -0.3785  0.1122
64138SOL    HW1 4393   7.488   1.967  12.255 -1.3130  1.0457 -1.2467
64138SOL    HW2 4394   7.468   2.024  12.394  0.8180 -0.6225 -0.1949
64139SOL     OW 4395   0.249   9.390   4.555  0.7874  0.2795 -0.0772
64139SOL    HW1 4396   0.312   9.450   4.594 -0.2832  1.9824 -0.8528
64139SOL    HW2 4397   0.194   9.445   4.499 -0.8174 -1.2755 -0.1439
64140SOL     OW 4398   2.723  13.126   7.288  0.1888 -0.1136  0.1931
64140SOL    HW1 4399   2.660  13.108   7.358  0.8248  1.1221  1.1150
64140SOL    HW2 4400   2.791  13.060   7.299 -0.2867 -0.6461 -0.0010
64141SOL     OW 4401  13.453   9.376  10.653 -0.1615  0.8667  0.4796
64141SOL    HW1 4402  13.534   9.329  10.632 -1.1134 -0.4835 -0.3889
64141SOL    HW2 4403  13.482   9.462  10.683  1.5739  0.5408 -0.1199
64142SOL     OW 4404   8.324   0.765   4.711  0.6338  0.0228  0.4191
64142SOL    HW1 4405   8.254   0.830   4.707 -0.1507 -0.4684  3.6490
64142SOL    HW2 4406   8.330   0.731   4.621 -2.0069  1.3617 -0.3695
64143SOL     OW 4407   6.316   4.581  10.549  0.1192  0.1317 -0.0336
64143SOL    HW1 4408   6.300   4.544  10.635  3.8259 -0.2615  0.6379
64143SOL    HW2 4409   6.270   4.523  10.488 -1.7666 -0.1178  1.5302
64144SOL     OW 4410  13.699   6.205   4.054  0.5209  0.6535  0.2880
64144SOL    HW1 4411  13.613   6.229   4.019  0.4781 -0.5723 -0.5298
64144SOL    HW2 4412  13.755   6.281   4.034  0.2312  0.4394 -1.5494
64145SOL     OW 4413   4.208  10.365   9.001  0.6361  0.5621  0.3964
64145SOL    HW1 4414   4.226  10.431   8.934 -3.2784  1.4698 -0.0002
64145SOL    HW2 4415   4.250  10.285   8.967 -0.4481  1.1919 -2.7496
64146SOL     OW 4416   1.072   9.672  13.372  0.8897  0.3580  0.5777
64146SOL    HW1 4417   1.083   9.601  13.436  0.1034  0.0457  0.3846
64146SOL    HW2 4418   1.158   9.712  13.365  1.1339 -0.0168  1.3565
64147SOL     OW 4419  13.460   3.740   1.853  0.0355  0.0986 -0.0084
64147SOL    HW1 4420  13.519   3.752   1.779 -0.1634 -1.9093 -0.5551
64147SOL    HW2 4421  13.391   3.805   1.840  0.1610 -0.0181 -1.4514
64148SOL     OW 4422   8.453  13.964  12.409 -0.1893  0.0850  0.6621
64148SOL    HW1 4423   8.409  14.012  12.338  0.9803  0.8283  0.4072
64148SOL    HW2 4424   8.534  13.933  12.369 -1.5960 -3.6516  0.2884
64149SOL     OW 4425   5.134   5.671  11.686  0.2975  0.0291  0.3050
64149SOL    HW1 4426   5.147   5.659  11.780 -1.1964 -0.6852  0.4497
64149SOL    HW2 4427   5.129   5.766  11.675 -1.1733  0.0882  1.2217
64150SOL     OW 4428  13.199   6.799   6.727 -0.3194  0.7762  0.5435
64150SOL    HW1 4429  13.197   6.846   6.810 -0.7364  0.9271  0.4513
64150SOL    HW2 4430  13.198   6.706   6.752  1.9422  0.7674  0.7689
64151SOL     OW 4431   6.662  12.400  12.792 -0.7751  0.0412  0.3431
64151SOL    HW1 4432   6.686  12.376  12.702  1.1605 -0.2445  0.8874
64151SOL    HW2 4433   6.732  12.458  12.820 -1.5210  0.3689  1.5806
64152SOL     OW 4434   5.989   6.970   0.926 -0.7850  0.1213  0.2316
64152SOL    HW1 4435   5.957   6.951   0.838  0.9108 -1.0544 -0.1814
64152SOL    HW2 4436   5.926   6.927   0.984 -0.3698 -1.5805 -0.5285
64153SOL     OW 4437   1.395  10.735  11.406  0.4077  0.1111  0.5211
64153SOL    HW1 4438   1.406  10.641  11.390 -0.8990 -0.0169  0.2355
64153SOL    HW2 4439   1.461  10.756  11.472  2.5248 -0.4186 -1.3387
64154SOL     OW 4440   5.343  12.950  12.209 -0.1595  0.1343 -0.3153
64154SOL    HW1 4441   5.425  12.990  12.237  0.0251 -1.1200  1.0118
64154SOL    HW2 4442   5.282  13.024  12.203  1.0616  1.1123 -1.4670
64155SOL     OW 4443   8.081   1.406   8.748  0.7560 -0.6903 -0.1466
64155SOL    HW1 4444   8.000   1.406   8.696  0.6884 -0.6930 -0.0423
64155SOL    HW2 4445   8.113   1.496   8.742 -0.2083 -0.2039  1.2774
64156SOL     OW 4446   0.984   2.224   6.992  0.1444  0.1534 -0.3887
64156SOL    HW1 4447   0.991   2.205   7.086 -1.2787 -0.2746 -0.3503
64156SOL    HW2 4448   1.040   2.158   6.951 -1.3252 -1.4059  0.0155
64157SOL     OW 4449  13.014   0.277   4.681 -0.0031 -0.4060 -0.0876
64157SOL    HW1 4450  13.030   0.369   4.702 -1.2111  0.0404 -0.9847
64157SOL    HW2 4451  12.929   0.258   4.721  0.5504 -1.3575  0.6939
64158SOL     OW 4452   1.640   0.585   4.230  0.0847  0.6401  0.3885
64158SOL    HW1 4453   1.571   0.625   4.178 -1.2035 -1.8307  0.0708
64158SOL    HW2 4454   1.716   0.583   4.172 -0.4235  0.7312 -0.2887
64159SOL     OW 4455  10.985   3.141   8.890 -0.0454  0.1596 -0.5249
64159SOL    HW1 4456  11.000   3.047   8.880 -0.7687 -0.0455  0.2411
64159SOL    HW2 4457  11.068   3.181   8.865  0.1345 -0.6530 -1.2880
64160SOL     OW 4458   2.477   2.063  11.404  0.6493  0.0452 -0.2463
64160SOL    HW1 4459   2.462   1.969  11.415 -0.2791  0.2677  0.4530
64160SOL    HW2 4460   2.497   2.094  11.492  0.2067  0.6334 -0.3528
64161SOL     OW 4461   0.481  10.775   7.983  0.3922 -0.2260  0.0783
64161SOL    HW1 4462   0.500  10.807   8.071  1.5491  0.4379 -0.3865
64161SOL    HW2 4463   0.555  10.717   7.962  0.5156  0.2008 -0.7151
64162SOL     OW 4464   5.736   0.841   6.154 -0.1406  0.0438  0.0247
64162SOL    HW1 4465   5.811   0.806   6.107  0.7322 -1.1195  2.1479
64162SOL    HW2 4466   5.683   0.765   6.175 -0.9090  0.6255  0.2517
64163SOL     OW 4467   5.944   9.925   9.937  0.1672  0.4485 -0.2344
64163SOL    HW1 4468   6.007   9.995   9.948 -0.6585  1.1921 -0.1459
64163SOL    HW2 4469   5.901   9.945   9.854  1.1656 -0.9617 -1.1360
64164SOL     OW 4470   4.112   3.451   4.766 -0.5219 -0.9539 -0.1594
64164SOL    HW1 4471   4.125   3.541   4.734  1.6131  0.2521  3.5110
64164SOL    HW2 4472   4.187   3.402   4.731 -0.4336 -0.7208 -0.3020
64165SOL     OW 4473   1.109  10.108   5.340 -0.4534  0.1270 -0.0373
64165SOL    HW1 4474   1.062  10.121   5.257  0.6895  0.9198 -0.5821
64165SOL    HW2 4475   1.149  10.192   5.359  0.4627 -0.4332  0.5916
64166SOL     OW 4476   2.847   3.737   8.584 -0.4471  0.3879  0.5320
64166SOL    HW1 4477   2.815   3.651   8.560  0.6926  0.5676 -1.8971
64166SOL    HW2 4478   2.913   3.720   8.652 -0.0555 -0.6949 -0.0973
64167SOL     OW 4479   7.104   3.766   2.497  0.1940  0.0056  0.1047
64167SOL    HW1 4480   7.129   3.674   2.487  0.8905 -0.1247  2.4226
64167SOL    HW2 4481   7.155   3.812   2.430  1.9622 -1.0087  0.6943
64168SOL     OW 4482   8.921   4.694   9.928 -0.0527 -0.1673 -0.3985
64168SOL    HW1 4483   8.841   4.734   9.960 -0.9820 -2.3243  0.1760
64168SOL    HW2 4484   8.978   4.687  10.005  0.0241 -0.1226 -0.4502
64169SOL     OW 4485   5.855   9.236   4.937 -0.2983  0.9716  0.3038
64169SOL    HW1 4486   5.773   9.253   4.983  0.3392  1.0035  1.4895
64169SOL    HW2 4487   5.922   9.272   4.995  0.6596 -0.3162  0.0421
64170SOL     OW 4488  12.413   5.954   2.158  0.0130 -0.0435 -0.3910
64170SOL    HW1 4489  12.390   5.867   2.124  0.0983 -0.3244  0.2545
64170SOL    HW2 4490  12.451   6.000   2.083 -1.3838 -0.0434 -1.1364
64171SOL     OW 4491   0.599   6.212   1.584 -0.0679 -0.0547  0.2382
64171SOL    HW1 4492   0.560   6.281   1.531 -0.2736 -0.0373  0.4140
64171SOL    HW2 4493   0.677   6.251   1.622 -1.2718  0.7490  2.0177
64172SOL     OW 4494  12.878   0.824   6.045  0.0309  0.1585  0.7624
64172SOL    HW1 4495  12.957   0.771   6.057  0.7536  1.4563  1.9594
64172SOL    HW2 4496  12.849   0.802   5.956  2.8289  1.0309 -0.4934
64173SOL     OW 4497   1.762   9.366   0.052 -0.0083 -0.0084 -0.2856
64173SOL    HW1 4498   1.847   9.333   0.021  0.5436  0.6115  0.5230
64173SOL    HW2 4499   1.758   9.456   0.019 -1.3653 -0.7081 -2.2100
64174SOL     OW 4500   9.149   0.402   3.241 -0.1138 -0.1311 -0.1382
64174SOL    HW1 4501   9.214   0.465   3.271  0.8400 -0.3523 -1.6292
64174SOL    HW2 4502   9.146   0.335   3.310  0.6397  0.2947  0.3159
64175SOL     OW 4503  13.534   4.584   6.402 -0.0691 -0.1392  0.4204
64175SOL    HW1 4504  13.517   4.517   6.336 -0.1471  0.6990 -0.4478
64175SOL    HW2 4505  13.481   4.558   6.477 -3.8280  1.2218 -1.4312
64176SOL     OW 4506   9.079   6.916  11.579 -0.1051  0.0594  0.4309
64176SOL    HW1 4507   9.162   6.870  11.593  0.9968  1.2295 -1.7503
64176SOL    HW2 4508   9.013   6.859  11.619  1.5444 -1.7400  0.7501
64177SOL     OW 4509   1.515  11.001   6.733 -0.4586 -0.6146 -0.2861
64177SOL    HW1 4510   1.584  10.967   6.676 -0.2119  0.7174 -0.8351
64177SOL    HW2 4511   1.436  11.000   6.678 -0.6384 -1.0999 -0.0224
64178SOL     OW 4512   9.876  11.627  10.922 -0.1861 -0.5706  0.3512
64178SOL    HW1 4513   9.949  11.570  10.944  0.0160 -0.8263 -0.9180
64178SOL    HW2 4514   9.911  11.716  10.928  0.5185 -0.7243 -1.2003
64179SOL     OW 4515   8.675  13.313  10.863  0.0439  0.0413 -0.4641
64179SOL    HW1 4516   8.676  13.247  10.793  0.7046  0.2855 -0.6978
64179SOL    HW2 4517   8.760  13.357  10.855  0.1342  0.0584  0.5084
64180SOL     OW 4518   0.705   7.287  12.272 -0.4268 -0.4820  0.0827
64180SOL    HW1 4519   0.788   7.241  12.284 -0.5176 -0.5101  0.5944
64180SOL    HW2 4520   0.643   7.242  12.329 -0.0722  1.4253  2.1251
64181SOL     OW 4521  11.438  11.417   0.728  0.3363  0.7178 -0.3659
64181SOL    HW1 4522  11.496  11.430   0.652  1.0017 -0.1767 -0.0321
64181SOL    HW2 4523  11.497  11.410   0.803 -0.2570  0.6423  0.1043
64182SOL     OW 4524  13.856   1.979   5.885  0.0328 -0.2536 -0.4911
64182SOL    HW1 4525  13.788   2.026   5.836 -0.8442  1.1109  1.8865
64182SOL    HW2 4526  13.810   1.904   5.923  0.4095 -0.5971 -0.7085
64183SOL     OW 4527  12.970  11.098   2.921 -0.2287 -0.0351  0.2359
64183SOL    HW1 4528  12.935  11.137   2.841 -1.2955 -0.5231  0.4491
64183SOL    HW2 4529  13.064  11.087   2.904 -0.0395  1.7779 -0.1671
64184SOL     OW 4530   5.982   8.196   6.541  0.1898  0.5125 -0.0257
64184SOL    HW1 4531   6.050   8.252   6.504 -1.0398  1.1759 -1.3698
64184SOL    HW2 4532   6.030   8.133   6.595  1.7947  1.3954 -0.3513
64185SOL     OW 4533   8.508   4.277   0.359 -0.0686  0.4100 -0.9340
64185SOL    HW1 4534   8.427   4.311   0.322  0.9948  3.4205 -0.7670
64185SOL    HW2 4535   8.567   4.269   0.284  0.1457  0.3611 -0.7608
64186SOL     OW 4536   2.519  11.835   6.529  0.3161  0.8227 -0.2028
64186SOL    HW1 4537   2.512  11.831   6.625  0.2267  2.3644 -0.1133
64186SOL    HW2 4538   2.450  11.777   6.498  0.2090  0.4606  0.6764
64187SOL     OW 4539   2.087   6.041   8.016  0.5257 -0.1877  0.0977
64187SOL    HW1 4540   2.058   6.097   7.944 -0.6715  1.1083  1.5232
64187SOL    HW2 4541   2.167   6.084   8.048 -1.3646  1.9625  2.3815
64188SOL     OW 4542   1.555   3.288   7.325 -0.0201  0.2561 -0.0439
64188SOL    HW1 4543   1.639   3.283   7.280 -0.3872 -0.2797 -0.6870
64188SOL    HW2 4544   1.545   3.381   7.346  0.2247  0.5023 -0.9473
64189SOL     OW 4545   9.414  13.549  10.844 -0.1236 -0.1406 -0.5645
64189SOL    HW1 4546   9.400  13.471  10.898  0.1817  0.5032  0.4873
64189SOL    HW2 4547   9.506  13.544  10.817 -0.9337 -1.8720 -3.3981
64190SOL     OW 4548   0.608  11.990  12.567  0.4469 -0.6814 -0.0653
64190SOL    HW1 4549   0.607  11.895  12.575 -0.9430 -0.5847  1.4007
64190SOL    HW2 4550   0.593  12.006  12.473  0.9639 -1.8873 -0.3673
64191SOL     OW 4551   8.153   3.927   8.085  0.6743  0.1023  0.1597
64191SOL    HW1 4552   8.156   3.995   8.152 -3.8931  1.6739 -0.8495
64191SOL    HW2 4553   8.146   3.974   8.003  2.3400 -1.7459 -1.1352
64192SOL     OW 4554   9.828  10.276   9.344  0.3383  0.5681 -0.3902
64192SOL    HW1 4555   9.820  10.325   9.262 -1.6635 -1.6146 -1.6274
64192SOL    HW2 4556   9.742  10.284   9.386  0.3169 -0.8812 -0.0849
64193SOL     OW 4557   8.971  12.640  10.697  0.2380 -0.2430 -0.4081
64193SOL    HW1 4558   8.920  12.597  10.629 -1.6966  1.3829 -0.0670
64193SOL    HW2 4559   8.934  12.728  10.703  3.1195  1.0788 -0.1371
64194SOL     OW 4560   6.606   4.953   5.168 -1.7394  0.3048  0.4910
64194SOL    HW1 4561   6.532   4.961   5.108 -1.8380  0.6088  0.6502
64194SOL    HW2 4562   6.632   5.043   5.186  0.7228  0.2342 -2.0267
64195SOL     OW 4563   8.494   1.534   0.446 -0.3460 -0.3847  0.6150
64195SOL    HW1 4564   8.483   1.619   0.403  1.3085 -0.6501 -0.4584
64195SOL    HW2 4565   8.578   1.541   0.491 -1.0252 -0.8753  2.0184
64196SOL     OW 4566  11.209   5.647   5.059  0.2397  0.1401  0.4171
64196SOL    HW1 4567  11.210   5.741   5.042 -2.4519  0.1466 -0.1726
64196SOL    HW2 4568  11.234   5.607   4.976  1.0832  0.3154  0.5802
64197SOL     OW 4569  12.171  11.728   0.701  0.2461 -0.6866 -0.3184
64197SOL    HW1 4570  12.185  11.733   0.607  1.9007  0.0010 -0.0655
64197SOL    HW2 4571  12.189  11.816   0.733  2.7194 -1.5666  0.9831
64198SOL     OW 4572  10.344  11.635   6.047 -0.1786 -0.0382  0.4718
64198SOL    HW1 4573  10.418  11.600   6.097  0.0367 -1.5555 -0.8327
64198SOL    HW2 4574  10.277  11.653   6.113  0.7641 -0.1873  1.4999
64199SOL     OW 4575   8.651   2.087  12.705 -0.0884 -0.1745  0.0022
64199SOL    HW1 4576   8.721   2.101  12.769 -0.5762  0.4700  0.4095
64199SOL    HW2 4577   8.628   1.994  12.714  0.9020 -0.4655 -0.3406
64200SOL     OW 4578  10.362   5.172   0.992 -0.0696 -0.6181 -0.2094
64200SOL    HW1 4579  10.427   5.144   0.928 -0.6680 -0.7538 -0.7609
64200SOL    HW2 4580  10.298   5.222   0.942  0.6510  1.2747  0.6553
64201SOL     OW 4581  11.319   1.603   0.558 -0.1119  0.0870  0.3536
64201SOL    HW1 4582  11.350   1.524   0.513  0.4679 -0.3478  1.4873
64201SOL    HW2 4583  11.342   1.674   0.498 -1.7253 -0.6604 -1.2459
64202SOL     OW 4584   7.567  11.601   7.933  0.4308 -0.5979 -0.4751
64202SOL    HW1 4585   7.556  11.507   7.921  0.6079 -0.7596  0.5324
64202SOL    HW2 4586   7.478  11.635   7.940  0.3800 -0.8335  0.0971
64203SOL     OW 4587  10.156  10.576   3.519 -0.1764 -0.2940 -0.2404
64203SOL    HW1 4588  10.227  10.603   3.578 -0.0720 -0.4529 -0.2911
64203SOL    HW2 4589  10.076  10.592   3.569 -0.3180  2.7357 -1.2498
64204SOL     OW 4590   5.625  12.811   3.749 -0.5702  0.5200  0.0082
64204SOL    HW1 4591   5.705  12.862   3.734  1.7268 -2.5386  0.6453
64204SOL    HW2 4592   5.589  12.797   3.661  0.9684  0.0104 -0.5790
64205SOL     OW 4593   0.718   9.131   0.477 -0.4635  0.2439  0.7463
64205SOL    HW1 4594   0.658   9.065   0.443 -0.7316  0.8521  0.0134
64205SOL    HW2 4595   0.672   9.214   0.464  0.3500  0.6756  0.5781
64206SOL     OW 4596   9.968   4.408   7.324  0.4053  0.2880  0.2964
64206SOL    HW1 4597  10.047   4.367   7.289 -0.3298 -1.9143  1.0227
64206SOL    HW2 4598   9.998   4.489   7.365  1.6536  1.7151 -3.0725
64207SOL     OW 4599  12.116   6.272   3.678 -0.3571  0.7879  0.3770
64207SOL    HW1 4600  12.166   6.319   3.612 -0.3778  0.4936  0.1519
64207SOL    HW2 4601  12.034   6.248   3.635 -0.0584 -0.0682  0.2698
64208SOL     OW 4602   5.348   2.593   6.374  0.3639  0.0950  0.5485
64208SOL    HW1 4603   5.441   2.585   6.397  0.8634  0.1593 -1.2843
64208SOL    HW2 4604   5.346   2.583   6.279 -1.6441 -0.9109  0.6473
64209SOL     OW 4605  11.496   9.583   6.161 -0.1622 -0.4239  0.6880
64209SOL    HW1 4606  11.410   9.625   6.159  0.6711  1.3823  0.8282
64209SOL    HW2 4607  11.546   9.634   6.225  1.1236 -1.2132  0.3455
64210SOL     OW 4608  10.998   1.598   0.220  0.0922  0.3689  0.1721
64210SOL    HW1 4609  11.064   1.634   0.161  0.4739  0.3308  0.5695
64210SOL    HW2 4610  10.915   1.633   0.187  0.2497 -0.0022 -0.6485
64211SOL     OW 4611   6.639  12.660   5.870  0.0373  0.1771  0.4090
64211SOL    HW1 4612   6.561  12.614   5.901  0.4362 -0.8273 -0.0288
64211SOL    HW2 4613   6.684  12.596   5.814  1.1218  0.7691  0.5705
64212SOL     OW 4614   8.754   6.588  12.985 -0.4639  0.2468  0.0630
64212SOL    HW1 4615   8.735   6.650  12.914  0.8875  0.9206  0.2603
64212SOL    HW2 4616   8.818   6.527  12.947 -0.4401  0.0446  0.4235
64213SOL     OW 4617   8.885   0.794   9.383  0.1191  0.3986 -0.1398
64213SOL    HW1 4618   8.948   0.757   9.445 -2.5128 -0.3345  2.2815
64213SOL    HW2 4619   8.814   0.730   9.379 -0.7322  1.3595 -2.4588
64214SOL     OW 4620   4.262   8.813  11.088 -0.3309  0.1868 -0.1356
64214SOL    HW1 4621   4.204   8.762  11.031  0.4758 -0.5719 -0.2826
64214SOL    HW2 4622   4.331   8.845  11.030  0.4582 -0.5313  0.3957
64215SOL     OW 4623   0.777  13.480   7.670  0.3400  0.4784  0.2594
64215SOL    HW1 4624   0.737  13.399   7.701  0.7364  0.5657  1.0370
64215SOL    HW2 4625   0.731  13.549   7.718 -0.5002  0.7794 -0.9417
64216SOL     OW 4626   5.866  11.523  13.621 -0.0505  0.4212  0.1326
64216SOL    HW1 4627   5.907  11.600  13.660  2.2655  0.0835 -1.4312
64216SOL    HW2 4628   5.903  11.449  13.669 -0.8937  0.1876  0.4449
64217SOL     OW 4629   1.491   9.590   1.469 -0.4044 -1.0923 -0.3385
64217SOL    HW1 4630   1.579   9.626   1.459 -0.4269 -1.0986 -0.5698
64217SOL    HW2 4631   1.504   9.507   1.515 -0.4064 -0.5410  0.6748
64218SOL     OW 4632  10.870   8.795   6.011  0.2599 -0.5127  0.6501
64218SOL    HW1 4633  10.918   8.794   5.929 -1.1347  1.4682 -0.2573
64218SOL    HW2 4634  10.937   8.797   6.079  1.4301 -0.3572 -0.4878
64219SOL     OW 4635   9.796   0.592   0.186  0.3293 -0.6144 -0.4826
64219SOL    HW1 4636   9.760   0.559   0.104 -0.1158 -0.0494 -0.5173
64219SOL    HW2 4637   9.737   0.663   0.212  0.2903 -0.9928  0.4878
64220SOL     OW 4638  11.266  12.075   7.011  0.3893  0.7419  0.4023
64220SOL    HW1 4639  11.359  12.097   7.021  0.3666  0.7142  0.6739
64220SOL    HW2 4640  11.219  12.149   7.048  0.3053  0.6216  0.5388
64221SOL     OW 4641   4.130   1.273  12.000  0.1103  0.4747  0.7148
64221SOL    HW1 4642   4.127   1.358  11.956 -0.8700 -0.7556 -1.7505
64221SOL    HW2 4643   4.113   1.294  12.092  1.0059  3.0350  0.4020
64222SOL     OW 4644  13.561   5.944   7.565 -0.5991 -0.0503 -0.6062
64222SOL    HW1 4645  13.547   5.851   7.578 -2.7072  0.3002 -0.0438
64222SOL    HW2 4646  13.474   5.980   7.549  0.1372  1.8456 -0.6499
64223SOL     OW 4647   0.639   5.035  13.676 -0.2622  0.1812  0.3291
64223SOL    HW1 4648   0.565   4.987  13.712  0.3515 -1.7460 -0.8091
64223SOL    HW2 4649   0.713   5.010  13.730  0.7806 -3.1802 -2.3077
64224SOL     OW 4650   6.234   3.528   3.506 -0.3541 -0.0377  0.3207
64224SOL    HW1 4651   6.325   3.515   3.480  0.1067  0.5765  1.5500
64224SOL    HW2 4652   6.209   3.445   3.548 -0.7594 -0.6357 -1.0472
64225SOL     OW 4653   5.431  11.664   5.572  0.5213  0.0857  0.5947
64225SOL    HW1 4654   5.424  11.700   5.660 -0.1066  1.1326  0.1286
64225SOL    HW2 4655   5.500  11.714   5.530  1.8354 -1.3763  0.9250
64226SOL     OW 4656  10.074   6.905   1.048 -0.4945  0.0395 -0.6779
64226SOL    HW1 4657  10.024   6.850   0.987 -1.3357 -0.4791  0.4618
64226SOL    HW2 4658  10.106   6.977   0.993  0.3545 -1.3562 -2.1369
64227SOL     OW 4659  12.383   4.708   0.653  0.6008 -0.5916 -0.0355
64227SOL    HW1 4660  12.321   4.657   0.600 -1.1348 -1.2008  2.4254
64227SOL    HW2 4661  12.413   4.647   0.720  1.4944  0.5938  0.6770
64228SOL     OW 4662   7.766   3.940   3.930  0.0111  0.3442 -0.4112
64228SOL    HW1 4663   7.671   3.941   3.922 -0.0144 -1.4669 -0.7723
64228SOL    HW2 4664   7.788   3.848   3.947  1.4590  1.1668  3.1353
64229SOL     OW 4665   4.201   7.302   9.712 -0.3605  0.4140  0.5449
64229SOL    HW1 4666   4.209   7.393   9.739 -1.0785  0.1206  1.8276
64229SOL    HW2 4667   4.106   7.286   9.709 -0.3662  0.4890 -2.5021
64230SOL     OW 4668  12.119   4.663   0.788  0.1463  0.0428  0.1745
64230SOL    HW1 4669  12.193   4.615   0.824 -0.9707 -2.2596 -0.4027
64230SOL    HW2 4670  12.087   4.607   0.717 -0.4564  2.3004 -1.4521
64231SOL     OW 4671   2.231  10.639   0.316 -0.1990  0.0895  0.0503
64231SOL    HW1 4672   2.314  10.685   0.326  0.0435  0.1813 -1.9638
64231SOL    HW2 4673   2.166  10.709   0.304 -0.1939 -0.0251 -0.6806
64232SOL     OW 4674  10.824  10.158   3.874  0.0411 -0.1434 -0.2374
64232SOL    HW1 4675  10.908  10.159   3.827 -0.3444 -0.6919 -0.9585
64232SOL    HW2 4676  10.766  10.108   3.817 -1.1647  1.3815 -0.4032
64233SOL     OW 4677  13.013   7.800  10.490 -0.1054  0.4198  0.1497
64233SOL    HW1 4678  12.971   7.787  10.405  0.2556 -1.9637  0.2719
64233SOL    HW2 4679  13.103   7.827  10.469  0.6826 -2.2930 -0.3839
64234SOL     OW 4680   5.042   4.178  13.306 -0.0796 -0.4543 -0.5080
64234SOL    HW1 4681   5.039   4.140  13.393  1.1911 -0.8428 -0.6137
64234SOL    HW2 4682   5.055   4.103  13.247 -1.1931 -0.2300 -1.0690
64235SOL     OW 4683   9.763  11.359  12.377  0.2936  0.2794 -0.2160
64235SOL    HW1 4684   9.694  11.360  12.443  0.3779 -0.0643 -0.1212
64235SOL    HW2 4685   9.795  11.269  12.376  1.8614  0.7642  0.9176
64236SOL     OW 4686   3.548   3.548   8.272  0.8016  0.1463 -0.2353
64236SOL    HW1 4687   3.632   3.509   8.251  0.6465 -0.1504 -0.3105
64236SOL    HW2 4688   3.487   3.474   8.276  0.7646  0.2238  0.9742
64237SOL     OW 4689  13.934  12.412   2.360  0.5335 -0.0980  0.4204
64237SOL    HW1 4690  13.937  12.438   2.452 -2.3260  0.0738  0.5339
64237SOL    HW2 4691  13.958  12.319   2.361 -1.0772 -0.5350  1.5902
64238SOL     OW 4692   7.953   9.656   7.106 -0.2065 -0.1584 -0.1076
64238SOL    HW1 4693   7.921   9.612   7.027 -0.9496  0.7653 -0.3483
64238SOL    HW2 4694   7.916   9.606   7.179 -0.6059 -0.2530 -0.3725
64239SOL     OW 4695   3.064   4.646   8.668  0.2983  0.5179 -0.0904
64239SOL    HW1 4696   3.000   4.656   8.738 -2.6262 -0.2775 -2.4431
64239SOL    HW2 4697   3.106   4.732   8.663 -2.5018  2.0284 -0.1077
64240SOL     OW 4698   3.545   0.865   4.492 -0.3217  0.4533  0.2726
64240SOL    HW1 4699   3.504   0.862   4.405  0.1966  2.9835 -0.1283
64240SOL    HW2 4700   3.639   0.861   4.474 -0.2013 -2.1565  1.0016
64241SOL     OW 4701   1.802   4.227  11.205 -0.2036 -1.0314  1.0289
64241SOL    HW1 4702   1.796   4.254  11.113  1.9730  2.4934  1.7469
64241SOL    HW2 4703   1.873   4.162  11.207  1.3518  0.5892  0.4613
64242SOL     OW 4704   6.241   0.486   8.263 -0.0567 -0.1017  0.4489
64242SOL    HW1 4705   6.197   0.560   8.305  1.8816  1.1890  0.3590
64242SOL    HW2 4706   6.178   0.415   8.266 -1.9777  1.5383  0.6083
64243SOL     OW 4707   6.555  13.467  11.066 -0.2770 -0.0046 -0.1731
64243SOL    HW1 4708   6.517  13.504  11.146 -1.7637  1.6017 -1.5548
64243SOL    HW2 4709   6.488  13.410  11.031 -0.2296  0.4530 -1.0337
64244SOL     OW 4710  12.492   4.808  10.858 -0.0259  0.1326  0.0507
64244SOL    HW1 4711  12.580   4.779  10.831  0.7474  2.3172 -0.0448
64244SOL    HW2 4712  12.508   4.864  10.934 -1.0065  2.5217 -1.3898
64245SOL     OW 4713  11.162   9.184   5.592  0.2052 -0.5169  0.1867
64245SOL    HW1 4714  11.098   9.137   5.539  0.6987 -1.0534  0.0508
64245SOL    HW2 4715  11.227   9.118   5.615  0.1334 -0.2383  1.2536
64246SOL     OW 4716   8.365   8.406   9.745  0.1524  0.2653 -0.1085
64246SOL    HW1 4717   8.312   8.442   9.674 -0.8657  1.6528  1.2918
64246SOL    HW2 4718   8.353   8.311   9.738 -1.9189  0.5018 -0.3287
64247SOL     OW 4719   3.797   2.877   3.994 -0.5311 -0.4194  0.2944
64247SOL    HW1 4720   3.714   2.904   3.955 -0.7227  0.2576  1.1447
64247SOL    HW2 4721   3.785   2.890   4.088  0.2636 -1.0741  0.4978
64248SOL     OW 4722  12.498   9.395   1.143 -0.1496  0.5921  0.5320
64248SOL    HW1 4723  12.565   9.326   1.146 -0.2920  0.4420  0.3364
64248SOL    HW2 4724  12.416   9.347   1.153 -0.2137  0.8064  1.0600
64249SOL     OW 4725   3.112   0.640  11.338  0.1547 -0.1755  0.5601
64249SOL    HW1 4726   3.146   0.712  11.286 -1.1336  0.6105  0.7616
64249SOL    HW2 4727   3.144   0.657  11.427  0.5427 -0.3268  0.4537
64250SOL     OW 4728   4.200   8.891  13.749  0.2713  0.0489  0.0498
64250SOL    HW1 4729   4.111   8.858  13.763  0.2807 -0.3511 -0.7705
64250SOL    HW2 4730   4.189   8.986  13.742 -0.2487 -0.0791 -1.0942
64251SOL     OW 4731   3.659   1.929   8.998  0.0361  0.0151 -0.5272
64251SOL    HW1 4732   3.717   2.004   9.008  0.5401 -0.3570 -0.6022
64251SOL    HW2 4733   3.571   1.965   9.003  0.2751  0.6273 -0.6954
64252SOL     OW 4734  10.020   2.585  11.826 -0.0413 -0.0022 -0.3694
64252SOL    HW1 4735  10.080   2.660  11.826  2.2630 -1.5592  3.2331
64252SOL    HW2 4736  10.067   2.516  11.780 -0.9480 -0.0703 -1.2248
64253SOL     OW 4737   5.254  12.169   0.477 -0.2205 -0.1105 -0.0362
64253SOL    HW1 4738   5.280  12.257   0.507 -0.4733 -0.0071 -0.1179
64253SOL    HW2 4739   5.177  12.148   0.530 -1.6625  0.7359 -1.6870
64254SOL     OW 4740  11.049  11.329  12.482 -0.3073 -0.6132  0.1191
64254SOL    HW1 4741  11.123  11.289  12.435  0.2339 -1.2100  1.4159
64254SOL    HW2 4742  10.984  11.259  12.488 -0.3451 -0.5638  0.2881
64255SOL     OW 4743   0.093   0.037   1.397  0.4932 -0.1800 -0.3267
64255SOL    HW1 4744   0.015   0.007   1.443 -0.7105  0.2611 -1.9766
64255SOL    HW2 4745   0.113  -0.034   1.336 -0.4666  0.9246 -2.0111
64256SOL     OW 4746   5.939   2.820  10.945 -0.3801 -0.2998  0.0351
64256SOL    HW1 4747   6.022   2.838  10.901  0.5188  0.6985  2.0162
64256SOL    HW2 4748   5.891   2.763  10.884  1.4146 -0.2644 -1.4897
64257SOL     OW 4749  13.486   1.257   0.746  0.0292  0.0180  0.1871
64257SOL    HW1 4750  13.444   1.242   0.661 -0.5451 -0.4779  0.5547
64257SOL    HW2 4751  13.414   1.280   0.805  0.3128 -0.4877  0.7405
64258SOL     OW 4752   5.893   6.161  12.883 -0.1655  0.8864 -0.4248
64258SOL    HW1 4753   5.933   6.214  12.952 -0.2347  1.1014 -0.5493
64258SOL    HW2 4754   5.961   6.157  12.815 -0.2119  0.9319 -0.4736
64259SOL     OW 4755   0.346   6.214   1.128 -0.1134 -0.1782  0.3561
64259SOL    HW1 4756   0.324   6.230   1.220  0.7645  0.8512  0.4131
64259SOL    HW2 4757   0.362   6.301   1.092  2.0150 -0.6869 -0.1105
64260SOL     OW 4758   7.166  13.528   1.837  0.1552 -0.2374 -0.4631
64260SOL    HW1 4759   7.183  13.502   1.928 -0.6342  0.4974 -0.0968
64260SOL    HW2 4760   7.074  13.507   1.823  0.8925 -3.0806 -2.0486
64261SOL     OW 4761   6.861  12.639   5.200 -0.1966  0.0049 -0.9021
64261SOL    HW1 4762   6.822  12.714   5.245  0.7744 -0.2017  0.3381
64261SOL    HW2 4763   6.914  12.596   5.267  1.1030 -0.4652 -2.1768
64262SOL     OW 4764  13.246   3.910   1.853 -0.4214  0.2700 -0.2745
64262SOL    HW1 4765  13.238   3.930   1.946 -1.5547  2.5611 -0.7810
64262SOL    HW2 4766  13.201   3.826   1.842 -1.4736  0.6322  1.0411
64263SOL     OW 4767  12.437   1.316  11.817 -0.2497  0.5295  0.7303
64263SOL    HW1 4768  12.497   1.266  11.762  0.3152  1.2123  0.7214
64263SOL    HW2 4769  12.373   1.352  11.755 -1.7385 -1.6225  0.9168
64264SOL     OW 4770   4.110  13.045   0.158 -0.2376 -0.0007  0.0082
64264SOL    HW1 4771   4.154  13.105   0.097 -0.0286 -0.2993 -0.1407
64264SOL    HW2 4772   4.107  12.962   0.110  0.1702 -0.3096  0.5119
64265SOL     OW 4773   5.240   8.034  10.246 -0.3426 -0.0338 -0.2865
64265SOL    HW1 4774   5.218   7.962  10.305  0.3713  0.9708  1.2840
64265SOL    HW2 4775   5.164   8.043  10.189 -1.7848 -0.0286  1.5357
64266SOL     OW 4776   6.704   3.928   1.029 -0.2690  0.1158  0.2057
64266SOL    HW1 4777   6.644   3.985   1.078 -1.9217 -0.0220 -1.5163
64266SOL    HW2 4778   6.720   3.854   1.088 -1.8880  0.1191  0.7010
64267SOL     OW 4779   7.815  13.439  13.503 -0.4395 -0.0468  0.2816
64267SOL    HW1 4780   7.720  13.451  13.499 -0.2914  1.2679  0.2641
64267SOL    HW2 4781   7.837  13.399  13.419 -0.8486  0.7591 -0.2303
64268SOL     OW 4782  12.584   0.208   0.639  0.1694  0.1054 -0.9320
64268SOL    HW1 4783  12.644   0.155   0.691 -0.1243 -0.4483 -1.1428
64268SOL    HW2 4784  12.609   0.190   0.548  0.2731  0.5721 -0.9944
64269SOL     OW 4785   2.444   7.512   1.747 -0.3870 -0.2544  0.5885
64269SOL    HW1 4786   2.444   7.579   1.815  1.8298  0.0190  0.4036
64269SOL    HW2 4787   2.531   7.519   1.707 -0.3675 -2.6970  0.0468
64270SOL     OW 4788   9.729   9.485   0.524  0.2184 -0.0709 -0.3663
64270SOL    HW1 4789   9.788   9.420   0.487 -1.1251 -1.7140  0.2538
64270SOL    HW2 4790   9.786   9.560   0.545  1.4888 -0.2226 -2.9068
64271SOL     OW 4791   8.659   0.998   9.327  0.1280 -0.3026  0.3282
64271SOL    HW1 4792   8.731   1.049   9.289 -0.4423  0.3963  0.1655
64271SOL    HW2 4793   8.679   0.908   9.302  1.9234 -0.3941  1.8497
64272SOL     OW 4794  10.060   0.182   3.117  0.5252 -0.3320 -0.1378
64272SOL    HW1 4795  10.064   0.112   3.182  0.7766  0.6654  0.9545
64272SOL    HW2 4796   9.967   0.191   3.097  0.3302  0.0280  0.8672
64273SOL     OW 4797  12.204   3.860   2.351  0.2422 -0.3124 -0.4643
64273SOL    HW1 4798  12.256   3.913   2.291 -0.5830  0.7139 -0.3043
64273SOL    HW2 4799  12.125   3.837   2.300 -0.1764  0.0442  0.0154
64274SOL     OW 4800  10.598   6.789   8.503  0.1869 -0.3018 -0.3401
64274SOL    HW1 4801  10.603   6.747   8.589 -1.4161  0.2385  0.0330
64274SOL    HW2 4802  10.679   6.840   8.497 -0.7106  1.5248  1.8660
64275SOL     OW 4803   1.878   0.759   9.972 -0.3852 -0.2670 -0.2750
64275SOL    HW1 4804   1.871   0.749   9.877  1.0286 -1.5764 -0.2754
64275SOL    HW2 4805   1.947   0.824   9.985 -1.4090  0.8259 -0.1240
64276SOL     OW 4806   4.414   3.987  13.215 -0.4624  0.5189  0.3700
64276SOL    HW1 4807   4.467   4.046  13.268  0.7120  1.4420 -1.7169
64276SOL    HW2 4808   4.453   3.991  13.128 -2.6608 -0.4505 -0.7458
64277SOL     OW 4809   8.682   6.511  13.256 -0.3436  0.1432  0.3324
64277SOL    HW1 4810   8.651   6.578  13.317  0.1660  0.1062  0.6388
64277SOL    HW2 4811   8.727   6.561  13.188  0.9546  0.0572  1.1081
64278SOL     OW 4812   9.761   0.366   2.220  0.4634 -0.5831  0.2436
64278SOL    HW1 4813   9.741   0.412   2.301  0.3144 -1.2507  0.5884
64278SOL    HW2 4814   9.772   0.275   2.245  0.7083 -0.7530 -0.4428
64279SOL     OW 4815   5.957   7.103   7.640  0.2125  0.6556 -0.1933
64279SOL    HW1 4816   6.047   7.071   7.644  0.0280  0.2318  1.6548
64279SOL    HW2 4817   5.963   7.195   7.664  0.4603  1.4925 -3.1322
64280SOL     OW 4818  10.553   3.735   9.731  0.7354  0.0184 -0.0487
64280SOL    HW1 4819  10.459   3.718   9.726  0.8102 -0.4086 -0.0497
64280SOL    HW2 4820  10.593   3.652   9.706  1.1152  0.0995  0.2922
64281SOL     OW 4821  11.835   8.911   6.506 -0.6296 -0.3960  0.1262
64281SOL    HW1 4822  11.876   8.984   6.459 -1.0530 -0.9534 -1.1479
64281SOL    HW2 4823  11.881   8.909   6.591 -0.5863  1.3116  0.1845
64282SOL     OW 4824  10.764   5.642   4.053  0.4814  0.0624  0.4724
64282SOL    HW1 4825  10.788   5.612   3.966  0.4625  0.6676  0.2528
64282SOL    HW2 4826  10.668   5.650   4.051  0.3008 -1.5989  1.1033
64283SOL     OW 4827   2.508   7.149   0.176  0.5716 -0.5893 -0.0290
64283SOL    HW1 4828   2.458   7.194   0.107  2.3595  0.1063 -0.9172
64283SOL    HW2 4829   2.591   7.127   0.135  0.9623 -1.8685  1.3714
64284SOL     OW 4830   1.059   9.283   1.840 -0.4273  0.1754  0.0428
64284SOL    HW1 4831   1.118   9.357   1.855 -0.3203 -0.0374  0.7064
64284SOL    HW2 4832   0.978   9.324   1.810 -0.2557  0.5386  0.0562
64285SOL     OW 4833   7.487   7.486  11.918 -0.2065  0.1204  0.4596
64285SOL    HW1 4834   7.410   7.536  11.891 -0.9877 -2.2733 -2.1281
64285SOL    HW2 4835   7.452   7.406  11.957  0.8693 -1.3540 -1.4344
64286SOL     OW 4836   7.671   3.464   3.812  0.0136  0.0346  0.2578
64286SOL    HW1 4837   7.649   3.481   3.720 -0.5731 -0.1195  0.3635
64286SOL    HW2 4838   7.680   3.369   3.817  1.5883  0.1479  0.0361
64287SOL     OW 4839  12.489   6.369  12.458 -0.4029 -0.3448  0.1864
64287SOL    HW1 4840  12.518   6.373  12.366  1.7041 -1.1508  0.7434
64287SOL    HW2 4841  12.429   6.443  12.468  0.0669  0.3308 -1.6058
64288SOL     OW 4842   3.602   0.273   8.411 -0.0120 -0.0983 -0.0401
64288SOL    HW1 4843   3.692   0.241   8.398  0.0181  0.1669 -0.5093
64288SOL    HW2 4844   3.562   0.268   8.324 -0.5176 -0.4109  0.2065
64289SOL     OW 4845   0.581   8.728  11.040 -0.4617  0.4737 -0.3783
64289SOL    HW1 4846   0.647   8.790  11.009  1.4366 -0.9600  0.5515
64289SOL    HW2 4847   0.539   8.696  10.961 -2.6677  4.0013 -0.8560
64290SOL     OW 4848  11.750   8.401  11.987  0.3357 -0.4394  0.0232
64290SOL    HW1 4849  11.812   8.338  11.952  1.1698  0.1675  0.3644
64290SOL    HW2 4850  11.749   8.472  11.923 -0.5032 -0.7446 -0.3005
64291SOL     OW 4851   7.041   8.958   4.648  0.5437 -0.1479  0.1870
64291SOL    HW1 4852   7.075   8.971   4.736  1.6289 -1.4490 -0.0026
64291SOL    HW2 4853   7.097   8.889   4.611  1.6176  1.9053 -2.3151
64292SOL     OW 4854  12.446   1.876   1.868  0.2339 -0.1982 -0.2464
64292SOL    HW1 4855  12.476   1.797   1.824 -0.0208  0.1058 -0.9860
64292SOL    HW2 4856  12.356   1.855   1.895  1.0043 -1.0803  1.8993
64293SOL     OW 4857   3.481  12.825   9.652 -0.2484 -0.4942  0.6397
64293SOL    HW1 4858   3.455  12.916   9.639 -0.4044 -0.5780  0.3381
64293SOL    HW2 4859   3.576  12.827   9.656 -0.3077 -0.1121  2.3298
64294SOL     OW 4860   1.954  13.340  11.356 -0.0858  0.5787  0.6606
64294SOL    HW1 4861   2.023  13.292  11.401  0.8377 -0.2485 -1.5289
64294SOL    HW2 4862   1.879  13.335  11.416  1.3581  0.5025  2.5619
64295SOL     OW 4863  10.482  12.100   7.430  0.4418  0.7164  0.0544
64295SOL    HW1 4864  10.403  12.059   7.467  0.0974  2.5340  1.4906
64295SOL    HW2 4865  10.449  12.167   7.370  0.9471  0.2789 -0.7229
64296SOL     OW 4866   7.313  10.088   5.579  0.1785  0.1453 -0.0872
64296SOL    HW1 4867   7.274  10.051   5.658  0.8670  0.0432  0.2181
64296SOL    HW2 4868   7.341  10.011   5.529 -1.3706  0.1630 -1.0368
64297SOL     OW 4869   5.248   1.297   2.262 -0.0129  0.2289 -0.0722
64297SOL    HW1 4870   5.222   1.249   2.184 -1.5156 -0.5895  0.8706
64297SOL    HW2 4871   5.280   1.381   2.230  1.3344 -0.8252 -1.6811
64298SOL     OW 4872   9.583   7.735   9.742 -0.8088 -0.9438 -0.0599
64298SOL    HW1 4873   9.513   7.779   9.694 -1.1754 -0.0757  1.2295
64298SOL    HW2 4874   9.604   7.658   9.688 -1.7789 -0.4649 -1.1655
64299SOL     OW 4875   3.413  13.057   6.999 -0.3586 -0.2502  0.1518
64299SOL    HW1 4876   3.333  13.101   6.970 -0.5954 -0.9474 -0.2572
64299SOL    HW2 4877   3.410  12.971   6.959  0.4106 -0.4286  0.4500
64300SOL     OW 4878   2.473   5.735   7.169 -0.4630 -0.1663 -0.8159
64300SOL    HW1 4879   2.420   5.740   7.248 -2.0245 -1.9465 -1.6661
64300SOL    HW2 4880   2.484   5.826   7.141  0.0516  0.4936  1.3281
64301SOL     OW 4881   8.000   3.229   9.758  0.0430 -0.1069 -0.1958
64301SOL    HW1 4882   8.069   3.175   9.721  0.7290  0.9445 -0.5022
64301SOL    HW2 4883   7.927   3.169   9.771  0.1494 -0.7434 -2.2165
64302SOL     OW 4884   4.116  12.341   7.122  0.2203 -0.5916 -0.3276
64302SOL    HW1 4885   4.145  12.310   7.207 -0.3747 -1.6366 -0.4844
64302SOL    HW2 4886   4.189  12.392   7.088  1.3790 -2.1008 -0.1776
64303SOL     OW 4887   7.232  10.389  11.436 -0.8916 -0.3584  0.6009
64303SOL    HW1 4888   7.233  10.316  11.498  0.4072 -0.7069  0.1951
64303SOL    HW2 4889   7.320  10.389  11.398 -1.3819  0.4301 -0.5664
64304SOL     OW 4890   5.047   3.103   4.934  0.3707  0.8506  0.6367
64304SOL    HW1 4891   5.020   3.125   5.023  1.1753 -0.6619  1.3085
64304SOL    HW2 4892   4.972   3.056   4.897  0.4640  0.4309  0.9643
64305SOL     OW 4893  10.529   5.452  12.054 -0.3079  0.2149 -0.3731
64305SOL    HW1 4894  10.464   5.480  11.989  0.2796  0.7513 -0.7379
64305SOL    HW2 4895  10.557   5.534  12.095  0.8767  0.0967 -0.9191
64306SOL     OW 4896   7.440   3.883   4.779  0.5390  0.3197  0.2225
64306SOL    HW1 4897   7.479   3.911   4.697  0.2828  2.1866  0.6782
64306SOL    HW2 4898   7.347   3.903   4.769  0.2731 -0.7638  0.4531
64307SOL     OW 4899  10.067   0.035  10.652 -0.0881  0.3697  0.2803
64307SOL    HW1 4900   9.987   0.017  10.602 -0.2185  0.5739  0.4143
64307SOL    HW2 4901  10.137  -0.000  10.598 -0.3016 -0.1380  0.3308
64308SOL     OW 4902   1.180   1.521   5.214  0.6069  0.2865 -0.2328
64308SOL    HW1 4903   1.111   1.579   5.182  1.6894  2.2569  0.7828
64308SOL    HW2 4904   1.257   1.545   5.161  0.9917 -0.4795 -0.0369
64309SOL     OW 4905  12.143   7.269   3.777  0.2169 -0.5666  0.3105
64309SOL    HW1 4906  12.057   7.244   3.744 -0.0245 -1.4429  1.5310
64309SOL    HW2 4907  12.130   7.357   3.814 -0.0905 -0.5999  0.2856
64310SOL     OW 4908   4.389   0.486  11.799 -0.1242 -0.0169  0.5428
64310SOL    HW1 4909   4.433   0.454  11.878 -0.9223 -1.2340  0.5107
64310SOL    HW2 4910   4.327   0.417  11.776 -0.4913  0.6920 -0.6807
64311SOL     OW 4911   7.688   6.533   0.621 -0.2737 -0.2534  0.0775
64311SOL    HW1 4912   7.603   6.570   0.596  0.0036  1.6398  1.6985
64311SOL    HW2 4913   7.686   6.444   0.586 -2.0343  0.4397 -1.7870
64312SOL     OW 4914   0.806  10.697  11.408  0.2789  0.5342 -0.2043
64312SOL    HW1 4915   0.789  10.696  11.313 -0.9488 -0.0120  0.0023
64312SOL    HW2 4916   0.902  10.699  11.415  0.4051 -0.1507 -1.4585
64313SOL     OW 4917   8.518  13.004   3.481 -0.0089  0.0730 -0.2932
64313SOL    HW1 4918   8.570  12.934   3.520 -0.1661  1.1163  1.9362
64313SOL    HW2 4919   8.559  13.085   3.512 -2.2533  0.9371  0.6850
64314SOL     OW 4920  10.107   1.374   8.535  0.5469 -0.5653  0.5748
64314SOL    HW1 4921  10.057   1.365   8.454 -0.7902  0.8609  1.1855
64314SOL    HW2 4922  10.096   1.466   8.560  1.5233 -0.7951  2.0039
64315SOL     OW 4923   5.006  10.724   7.095  0.1480  0.5193 -0.5235
64315SOL    HW1 4924   4.962  10.778   7.029 -0.9637  2.4284  1.6371
64315SOL    HW2 4925   4.938  10.664   7.126  0.4468  0.1522 -0.5712
64316SOL     OW 4926   2.414   1.605   8.722 -0.1878  0.4246  0.0579
64316SOL    HW1 4927   2.364   1.524   8.733 -0.6231  0.5021 -1.2388
64316SOL    HW2 4928   2.492   1.578   8.673 -0.6472  0.8907 -0.9440
64317SOL     OW 4929   8.978   3.091   5.307  0.3615  1.0732 -0.2759
64317SOL    HW1 4930   9.030   3.013   5.327 -0.2629  0.6023 -0.4684
64317SOL    HW2 4931   8.898   3.057   5.268  0.5912  1.8647 -1.4900
64318SOL     OW 4932   7.330   5.412   7.282  0.4390  0.7860  0.4116
64318SOL    HW1 4933   7.402   5.410   7.219  0.7531  2.7873  0.6521
64318SOL    HW2 4934   7.320   5.505   7.305 -1.2372  0.3809  1.5148
64319SOL     OW 4935   0.468   9.974   4.244  0.5174 -0.4238  0.3785
64319SOL    HW1 4936   0.521   9.911   4.293  1.8419  0.6081  0.3458
64319SOL    HW2 4937   0.381   9.969   4.284  0.9748 -1.2444  1.3027
64320SOL     OW 4938  11.362   0.303   6.184 -1.1018  0.1722 -0.6225
64320SOL    HW1 4939  11.295   0.365   6.155  0.6076  1.6113 -1.6980
64320SOL    HW2 4940  11.397   0.266   6.102 -1.8851 -2.0863 -0.0263
64321SOL     OW 4941   2.602   3.853   0.326  0.7093 -0.2487  0.4608
64321SOL    HW1 4942   2.526   3.840   0.383 -0.2511  1.1453 -0.4469
64321SOL    HW2 4943   2.567   3.847   0.237  1.4459  1.3691  0.0216
64322SOL     OW 4944  11.950   0.321   1.100 -0.3650 -0.0502  0.3862
64322SOL    HW1 4945  11.983   0.275   1.177  0.0839 -0.0999  0.1638
64322SOL    HW2 4946  11.925   0.408   1.133  0.5204  0.1918  0.4547
64323SOL     OW 4947   9.294   7.883  12.622 -0.1596 -0.2503  0.2105
64323SOL    HW1 4948   9.300   7.978  12.625 -1.4002 -0.1883  1.3642
64323SOL    HW2 4949   9.254   7.864  12.537 -1.8274  0.3962  0.8183
64324SOL     OW 4950   5.034   5.931  11.658  0.5654  0.0961  0.1229
64324SOL    HW1 4951   5.032   6.026  11.669  1.9402 -0.0498  2.1646
64324SOL    HW2 4952   4.945   5.907  11.633  0.5954  2.0635 -2.2116
64325SOL     OW 4953   1.738   0.501   0.804  0.4152 -0.4519  0.2599
64325SOL    HW1 4954   1.657   0.449   0.801  0.3893 -0.4073  0.1795
64325SOL    HW2 4955   1.708   0.591   0.814  0.4321 -0.3633 -0.4496
64326SOL     OW 4956   9.733   6.729   7.638 -0.1861 -0.0894  0.0168
64326SOL    HW1 4957   9.787   6.706   7.562 -2.6939 -1.8574 -1.4030
64326SOL    HW2 4958   9.758   6.665   7.705  0.6544  0.1967 -0.0186
64327SOL     OW 4959   9.468   0.787   0.037  0.0787  0.0221  0.2661
64327SOL    HW1 4960   9.530   0.807   0.108  0.6372  0.1053 -0.2354
64327SOL    HW2 4961   9.496   0.844  -0.035 -1.3947  1.0302  0.4618
64328SOL     OW 4962  14.037  13.657   7.727 -0.0226  0.4501  0.1469
64328SOL    HW1 4963  14.023  13.751   7.737  0.6851  0.6258 -0.4711
64328SOL    HW2 4964  13.964  13.617   7.775 -1.7828  1.3187 -1.6657
64329SOL     OW 4965  11.639   4.777   0.066 -0.2807 -0.0742  0.3915
64329SOL    HW1 4966  11.589   4.720   0.008  0.5687 -1.1517  0.6786
64329SOL    HW2 4967  11.729   4.767   0.036 -0.1714  1.4942  0.1575
64330SOL     OW 4968  13.261   0.284   1.754  0.1474  0.6557 -0.3170
64330SOL    HW1 4969  13.348   0.323   1.748  0.1631  0.8799  1.1342
64330SOL    HW2 4970  13.236   0.292   1.846  0.8401 -4.1806  0.5906
64331SOL     OW 4971   4.767   5.460   2.964 -0.1987  0.3982  0.2271
64331SOL    HW1 4972   4.677   5.479   2.993 -0.4107  0.7502 -0.6434
64331SOL    HW2 4973   4.763   5.369   2.933 -0.1207  0.2349  0.6842
64332SOL     OW 4974   8.519   1.019   4.709 -0.2583 -0.7245 -0.0505
64332SOL    HW1 4975   8.540   1.110   4.730  2.7246 -1.2138 -0.4572
64332SOL    HW2 4976   8.459   0.992   4.778  0.6691  0.8766  1.4751
64333SOL     OW 4977   1.571   5.642  12.382 -0.0052  0.0481  0.5985
64333SOL    HW1 4978   1.547   5.607  12.468 -1.2528  2.3759  1.2687
64333SOL    HW2 4979   1.497   5.618  12.326 -0.0676  0.1434  0.6401
64334SOL     OW 4980  10.504   6.078  10.462  0.3161  0.2317  0.3268
64334SOL    HW1 4981  10.545   6.096  10.547  0.0926 -0.7717  0.6626
64334SOL    HW2 4982  10.578   6.075  10.400  0.7629 -1.3608  0.8954
64335SOL     OW 4983   4.193   4.832   0.621  0.3824  0.4516  0.3923
64335SOL    HW1 4984   4.172   4.826   0.714 -0.5339  0.6961  0.2146
64335SOL    HW2 4985   4.196   4.927   0.604 -2.7051  0.4883 -0.4858
64336SOL     OW 4986  11.642  13.857   5.550  0.2171  0.7512 -0.0626
64336SOL    HW1 4987  11.604  13.770   5.555  0.3870  0.7329  1.1001
64336SOL    HW2 4988  11.671  13.865   5.459  1.3629 -0.9106  0.1133
64337SOL     OW 4989  13.609   7.262   1.520 -0.1085 -0.0857  0.0978
64337SOL    HW1 4990  13.648   7.189   1.568  0.6786  0.5668  0.4685
64337SOL    HW2 4991  13.530   7.225   1.481  0.0195 -1.0100  0.6808
64338SOL     OW 4992   8.944  12.458   8.311 -0.4322 -0.1002  0.3151
64338SOL    HW1 4993   8.986  12.532   8.355 -0.3413 -1.6208  3.0023
64338SOL    HW2 4994   9.013  12.392   8.303 -1.2241 -1.0103  0.7704
64339SOL     OW 4995   2.283  10.934  13.650  0.3232  0.0857  0.5200
64339SOL    HW1 4996   2.210  10.996  13.657 -0.5576 -0.9413  0.7692
64339SOL    HW2 4997   2.360  10.986  13.672 -0.5020  0.8729  1.7081
64340SOL     OW 4998   0.721   4.546   1.651  0.0159 -0.1498 -0.1789
64340SOL    HW1 4999   0.696   4.454   1.642 -0.0710 -0.1266 -0.1728
64340SOL    HW2 5000   0.738   4.575   1.562  2.1808 -0.7721 -0.0405
64341SOL     OW 5001  11.792   1.342   7.095  0.2725 -0.4529  0.2775
64341SOL    HW1 5002  11.731   1.268   7.100 -0.5311  0.2514  1.4448
64341SOL    HW2 5003  11.869   1.306   7.050 -1.0297 -1.3251 -1.3720
64342SOL     OW 5004   6.521   8.824  13.408 -0.2458  0.2889  0.3953
64342SOL    HW1 5005   6.452   8.849  13.347 -1.3686 -0.6544  1.2206
64342SOL    HW2 5006   6.522   8.894  13.474 -0.4468  0.2846  0.4036
64343SOL     OW 5007  11.611   6.417   7.010  0.5048  0.2251 -0.4682
64343SOL    HW1 5008  11.611   6.512   7.013  1.6863  0.2186  0.4398
64343SOL    HW2 5009  11.566   6.395   6.928 -1.8894  1.4862  0.4288
64344SOL     OW 5010   7.902   5.271   7.222  0.8944 -0.1065 -0.1829
64344SOL    HW1 5011   7.899   5.334   7.150  1.3866  2.2939  1.7408
64344SOL    HW2 5012   7.986   5.226   7.212  1.7861  1.4895 -0.1157
64345SOL     OW 5013  10.859   4.574  13.213  0.0067 -0.0654  0.0508
64345SOL    HW1 5014  10.907   4.497  13.184  0.4580  0.5474 -0.8580
64345SOL    HW2 5015  10.921   4.621  13.269  0.2743  0.4335 -0.6613
64346SOL     OW 5016   6.394   2.430   6.287 -0.2752 -0.1028 -0.2658
64346SOL    HW1 5017   6.418   2.390   6.370  2.4230  3.0250  0.6421
64346SOL    HW2 5018   6.317   2.483   6.307  0.6648  1.0404  0.4267
64347SOL     OW 5019   5.554   9.875   1.165 -0.7882 -0.1643  0.0545
64347SOL    HW1 5020   5.632   9.820   1.171 -0.9151 -0.2289  1.2885
64347SOL    HW2 5021   5.490   9.821   1.118 -0.0347 -0.0230 -1.1735
64348SOL     OW 5022   7.628   2.112   6.567 -0.4531 -0.3550  0.8038
64348SOL    HW1 5023   7.578   2.140   6.489  0.9155 -0.0793 -0.0090
64348SOL    HW2 5024   7.667   2.029   6.541  0.8075  0.2147  0.8165
64349SOL     OW 5025   1.276   7.770   3.630 -0.2023 -0.7827 -0.4415
64349SOL    HW1 5026   1.361   7.726   3.619 -0.1966 -0.5338 -1.4845
64349SOL    HW2 5027   1.295   7.863   3.617 -0.7086 -0.7723 -1.1610
64350SOL     OW 5028   9.027  12.656   4.420 -0.2369  0.2491  0.1034
64350SOL    HW1 5029   9.104  12.711   4.429  0.5006 -0.8450  0.7005
64350SOL    HW2 5030   9.001  12.635   4.510  0.2922 -1.4257 -0.1036
64351SOL     OW 5031   0.441  13.348   4.023 -0.1925 -0.1405 -0.0378
64351SOL    HW1 5032   0.519  13.392   3.991  0.1830 -0.5365  0.3279
64351SOL    HW2 5033   0.368  13.404   3.994  0.0183 -1.1753 -2.8384
64352SOL     OW 5034   9.264  10.714   2.138  0.0962 -0.5164  0.0224
64352SOL    HW1 5035   9.266  10.735   2.231 -1.0824 -1.0606  0.1956
64352SOL    HW2 5036   9.324  10.640   2.129  0.7745  0.0042  0.2093
64353SOL     OW 5037   6.123   9.001   1.636 -0.3427 -0.0848 -0.2645
64353SOL    HW1 5038   6.162   9.017   1.722 -0.0670 -0.3054 -0.3467
64353SOL    HW2 5039   6.171   9.058   1.576 -0.7979  0.3601 -0.2104
64354SOL     OW 5040   6.667   3.325   9.458 -0.2600  0.3288 -0.9405
64354SOL    HW1 5041   6.626   3.252   9.409  0.8769 -0.0588 -1.3475
64354SOL    HW2 5042   6.730   3.282   9.516 -1.7150  0.7697  1.0786
64355SOL     OW 5043   4.347   7.402   5.959 -0.3367  0.1260  0.4614
64355SOL    HW1 5044   4.378   7.311   5.957  1.0858  0.5965 -0.0897
64355SOL    HW2 5045   4.289   7.405   6.035 -0.3377 -1.2171  0.5498
64356SOL     OW 5046   0.259   7.658   4.516 -0.0433  0.1026 -0.1501
64356SOL    HW1 5047   0.306   7.731   4.475 -1.3527  0.4005 -1.1651
64356SOL    HW2 5048   0.207   7.699   4.585 -0.1598  0.0072 -0.1822
64357SOL     OW 5049   6.503   3.751   4.235 -0.4390  0.0058 -0.3375
64357SOL    HW1 5050   6.519   3.771   4.327  0.4793  1.0456 -0.7012
64357SOL    HW2 5051   6.587   3.764   4.192 -0.6120 -1.3943 -1.1919
64358SOL     OW 5052  10.911   3.799   2.804 -0.7286 -0.0865 -0.1783
64358SOL    HW1 5053  10.866   3.882   2.787  0.8513  0.5024 -1.6927
64358SOL    HW2 5054  10.980   3.822   2.866 -0.7942 -0.4535  0.0348
64359SOL     OW 5055   5.068  11.847   0.163  0.5028 -0.1250  0.4094
64359SOL    HW1 5056   5.156  11.811   0.159  0.8293  0.4504  1.7703
64359SOL    HW2 5057   5.052  11.881   0.075  1.6950 -0.1063  0.1789
64360SOL     OW 5058   7.368   5.118   8.973 -0.1009 -0.3442  0.2711
64360SOL    HW1 5059   7.363   5.023   8.984  5.1206 -1.2705 -2.0960
64360SOL    HW2 5060   7.432   5.146   9.039  0.6250  0.9610 -0.9381
64361SOL     OW 5061   7.628   9.305  10.367  0.2456  0.6447 -0.2339
64361SOL    HW1 5062   7.540   9.343  10.366  0.5953  1.5608  0.9805
64361SOL    HW2 5063   7.681   9.369  10.414  1.3796 -0.2938 -0.1936
64362SOL     OW 5064   1.688   1.803   3.607  0.0137  0.0830  0.0847
64362SOL    HW1 5065   1.633   1.733   3.573 -0.6349 -0.0133  1.2689
64362SOL    HW2 5066   1.776   1.765   3.610  0.0327 -0.0094 -1.1201
64363SOL     OW 5067  10.167   0.410   8.829  0.1063  0.1669 -0.2976
64363SOL    HW1 5068  10.223   0.382   8.902 -1.2623  0.0416  0.7451
64363SOL    HW2 5069  10.201   0.362   8.754  1.0064 -0.3808  0.4333
64364SOL     OW 5070  13.253  10.925  11.829  0.0883 -0.3021 -0.0044
64364SOL    HW1 5071  13.165  10.963  11.825 -0.3126 -1.2780 -2.5755
64364SOL    HW2 5072  13.250  10.866  11.904 -0.6614  1.3502  1.3468
64365SOL     OW 5073   8.089   7.731   4.510  0.1053  0.0901  0.6612
64365SOL    HW1 5074   8.088   7.819   4.549 -3.5389 -0.0719  1.2926
64365SOL    HW2 5075   8.116   7.674   4.582  0.8296  0.5092  0.7317
64366SOL     OW 5076   1.201   1.699   9.228  0.0185 -0.6756  0.1992
64366SOL    HW1 5077   1.119   1.686   9.277  0.3462  1.7629  1.5698
64366SOL    HW2 5078   1.270   1.673   9.289  0.3384 -0.5735 -0.1145
64367SOL     OW 5079  12.074   9.893   3.499  0.1737 -0.1683  0.2934
64367SOL    HW1 5080  12.135   9.914   3.428 -0.5502  1.6954  0.1655
64367SOL    HW2 5081  12.007   9.839   3.456 -0.1185  0.7227 -0.4187
64368SOL     OW 5082   7.445   0.319   4.102 -0.0813 -0.4713  0.3472
64368SOL    HW1 5083   7.440   0.412   4.126  0.6382  0.2222 -1.9851
64368SOL    HW2 5084   7.514   0.284   4.159  0.4879  0.7124  0.4212
64369SOL     OW 5085  10.845  10.385   6.260  0.2976  0.0088 -0.1372
64369SOL    HW1 5086  10.765  10.345   6.226  0.5830 -1.7246  1.1019
64369SOL    HW2 5087  10.882  10.432   6.186 -1.2264 -0.1938 -1.0620
64370SOL     OW 5088   0.162   4.691   5.671  0.0703 -0.5619  0.4316
64370SOL    HW1 5089   0.203   4.695   5.584 -0.5032 -2.0799  0.0658
64370SOL    HW2 5090   0.106   4.769   5.674  0.6543 -0.1026 -0.2636
64371SOL     OW 5091   2.260  11.663  10.306 -0.0542  0.0878 -0.2227
64371SOL    HW1 5092   2.258  11.567  10.305 -2.7183  0.0664 -2.1612
64371SOL    HW2 5093   2.176  11.688  10.344 -0.0826  1.6258 -1.2271
64372SOL     OW 5094   4.918   8.113   4.829  0.4886  0.1207 -0.2968
64372SOL    HW1 5095   4.867   8.172   4.884 -0.3270 -1.6565  0.9438
64372SOL    HW2 5096   4.999   8.099   4.877 -0.3817 -1.7334  0.7239
64373SOL     OW 5097  12.396  13.519   7.774 -0.0224  0.3220 -0.2485
64373SOL    HW1 5098  12.398  13.611   7.749  2.6480  0.0698 -1.3041
64373SOL    HW2 5099  12.405  13.519   7.869  0.5288  1.1536 -0.2921
64374SOL     OW 5100  10.808  13.429   2.266  0.0596  0.0336  0.2703
64374SOL    HW1 5101  10.729  13.405   2.217 -0.0125  1.1123 -0.1613
64374SOL    HW2 5102  10.851  13.495   2.213  0.0055  1.2166  1.6371
64375SOL     OW 5103   2.952   2.249   6.276  0.5263  0.2469 -0.7953
64375SOL    HW1 5104   3.009   2.251   6.200  0.5883 -1.1623 -0.8191
64375SOL    HW2 5105   2.942   2.156   6.296  1.5238  0.5851  1.6634
64376SOL     OW 5106   5.004   5.108   4.601  0.1144 -0.2409 -0.4431
64376SOL    HW1 5107   5.055   5.147   4.672  0.7073  0.9695 -1.5043
64376SOL    HW2 5108   4.919   5.088   4.641  0.6712 -0.2444  0.7784
64377SOL     OW 5109  13.886   7.514  11.434 -0.0915  0.0680 -0.3098
64377SOL    HW1 5110  13.846   7.499  11.520 -0.9804 -0.5036 -0.8089
64377SOL    HW2 5111  13.920   7.429  11.408  1.2261  0.4909 -0.0192
64378SOL     OW 5112  12.337   3.494  12.849  0.0704 -0.8881 -0.2623
64378SOL    HW1 5113  12.352   3.477  12.756  0.4008 -0.7642 -0.2331
64378SOL    HW2 5114  12.400   3.563  12.871 -0.2818 -0.6342 -0.0423
64379SOL     OW 5115   1.283   7.309   2.848  0.0449  0.2675  0.5213
64379SOL    HW1 5116   1.231   7.388   2.835  0.3644  0.4206  0.1581
64379SOL    HW2 5117   1.358   7.338   2.900  0.5252  0.3528 -0.2037
64380SOL     OW 5118   2.871   0.819   2.501 -0.1181  0.4852  0.1606
64380SOL    HW1 5119   2.859   0.854   2.590  0.1527 -0.7075  0.6905
64380SOL    HW2 5120   2.926   0.883   2.457 -2.1808  2.3257  0.0474
64381SOL     OW 5121   6.454  13.237  10.084 -0.0122 -0.1080 -0.3684
64381SOL    HW1 5122   6.416  13.220   9.998  0.4892 -0.5702 -0.5048
64381SOL    HW2 5123   6.429  13.327  10.104  0.6957  0.3361 -1.4339
64382SOL     OW 5124   2.179  12.273   1.003  0.6278  0.0329  0.3460
64382SOL    HW1 5125   2.265  12.233   1.014  1.5701  1.7677 -0.3646
64382SOL    HW2 5126   2.196  12.354   0.955 -1.5715 -0.2555 -1.0685
64383SOL     OW 5127  11.681   1.219   9.108 -0.4605  0.4649 -0.3924
64383SOL    HW1 5128  11.641   1.304   9.091 -0.5730  0.3774 -0.5654
64383SOL    HW2 5129  11.609   1.162   9.136 -0.3236  0.5271  0.0866
64384SOL     OW 5130  10.294   3.739  12.233  0.2619 -0.4102  0.1200
64384SOL    HW1 5131  10.368   3.686  12.204  1.1384  0.9816 -0.2791
64384SOL    HW2 5132  10.217   3.689  12.208  1.0048 -2.7079  2.0442
64385SOL     OW 5133  12.978   5.653  12.226  0.0974  0.3955  0.3355
64385SOL    HW1 5134  12.930   5.654  12.309  0.2836 -0.3531  0.4531
64385SOL    HW2 5135  12.916   5.617  12.163  0.0412  0.7304  0.1976
64386SOL     OW 5136   5.859   3.979   8.575  0.2689 -0.0326  0.3574
64386SOL    HW1 5137   5.900   4.007   8.493  0.8070  0.9028  0.9283
64386SOL    HW2 5138   5.781   4.033   8.583  0.3539  0.0556  0.5929
64387SOL     OW 5139   9.400   2.070   0.411  0.4512  0.1647 -0.6096
64387SOL    HW1 5140   9.482   2.025   0.434  0.1464  0.2420  0.7106
64387SOL    HW2 5141   9.423   2.125   0.335  1.7482  0.5379  0.0268
64388SOL     OW 5142   1.297  11.825  13.669 -0.2426 -0.3448 -0.9462
64388SOL    HW1 5143   1.357  11.787  13.733 -0.0514  0.9741 -0.3109
64388SOL    HW2 5144   1.354  11.852  13.597 -0.2039  0.0026 -0.7841
64389SOL     OW 5145   1.222   3.124   7.604 -0.6416 -0.4114 -0.7819
64389SOL    HW1 5146   1.263   3.066   7.669  0.2787  0.8589 -0.1885
64389SOL    HW2 5147   1.254   3.091   7.520  2.2770  0.9097 -0.3244
64390SOL     OW 5148  11.550   2.996   9.395 -0.0117  0.1386 -0.5404
64390SOL    HW1 5149  11.583   3.068   9.449  1.5438 -0.9023 -0.0128
64390SOL    HW2 5150  11.586   3.014   9.308 -1.7724  1.3353 -1.0689
64391SOL     OW 5151   5.774   2.381   5.195 -0.1531  0.1754  0.1591
64391SOL    HW1 5152   5.785   2.301   5.145 -1.0625  0.4911 -0.5733
64391SOL    HW2 5153   5.839   2.441   5.160  0.1056 -0.0368  0.2744
64392SOL     OW 5154   2.285  12.842  10.758  0.0076 -0.0657  0.1231
64392SOL    HW1 5155   2.314  12.763  10.714  1.2173 -0.7724  2.0487
64392SOL    HW2 5156   2.289  12.910  10.691 -0.3744 -1.4606 -1.3886
64393SOL     OW 5157   1.282  10.084   9.223  0.6073  0.7167  0.1089
64393SOL    HW1 5158   1.314  10.001   9.257  1.3835  1.1880  0.5625
64393SOL    HW2 5159   1.215  10.060   9.160  0.0905 -0.2197  0.9884
64394SOL     OW 5160  12.484  11.678   9.553 -0.0303 -0.5147 -0.5409
64394SOL    HW1 5161  12.431  11.702   9.629 -0.2958 -2.5027 -0.0543
64394SOL    HW2 5162  12.456  11.739   9.485  0.1381  1.2619  0.8725
64395SOL     OW 5163   5.461   9.252   1.141 -0.9326 -0.5167 -0.2707
64395SOL    HW1 5164   5.504   9.217   1.219 -2.1705 -2.4346 -0.3678
64395SOL    HW2 5165   5.475   9.186   1.074  1.8840  2.0035 -2.4182
64396SOL     OW 5166   0.458   2.592  10.011  0.3922  0.1286  0.4114
64396SOL    HW1 5167   0.527   2.586  10.076 -0.3341 -0.2100  1.1712
64396SOL    HW2 5168   0.446   2.686   9.997  1.6777  0.1832 -0.4866
64397SOL     OW 5169   0.151   3.722   2.295  0.4502  0.1104  0.0870
64397SOL    HW1 5170   0.129   3.807   2.257 -2.1598 -0.2421  0.5998
64397SOL    HW2 5171   0.227   3.693   2.247 -1.3486  0.6496 -3.4046
64398SOL     OW 5172   9.205   8.390  11.819 -0.2665  0.4507 -0.4159
64398SOL    HW1 5173   9.211   8.298  11.845 -0.7437  0.0871 -1.5739
64398SOL    HW2 5174   9.266   8.435  11.879  0.7643 -0.7482 -0.5198
64399SOL     OW 5175   5.645   9.479  10.676 -0.6833  0.2318 -0.3638
64399SOL    HW1 5176   5.609   9.427  10.748 -0.4198 -1.5783 -1.4724
64399SOL    HW2 5177   5.739   9.480  10.693 -0.4800 -1.1485 -1.2017
64400SOL     OW 5178   8.339   1.051   7.292 -0.1033  0.5083  0.2935
64400SOL    HW1 5179   8.289   1.014   7.364 -1.4067 -1.0517 -1.3235
64400SOL    HW2 5180   8.314   1.143   7.290 -3.7233 -0.3113 -0.9133
64401SOL     OW 5181   0.135   0.344   2.428  0.3509  0.2504  0.1303
64401SOL    HW1 5182   0.100   0.382   2.509 -0.0490  0.4838 -0.1513
64401SOL    HW2 5183   0.196   0.276   2.458 -0.7521 -0.5398  0.6325
64402SOL     OW 5184  12.946   9.518   7.404 -0.0153 -0.2219  0.1130
64402SOL    HW1 5185  12.994   9.439   7.379 -0.5263 -0.3821 -0.3949
64402SOL    HW2 5186  12.964   9.528   7.498  1.6590  0.1852 -0.2103
64403SOL     OW 5187   2.195   1.166   2.852  0.2834 -0.1913  0.3790
64403SOL    HW1 5188   2.176   1.229   2.922  1.4826  1.6325 -0.8328
64403SOL    HW2 5189   2.118   1.167   2.796  0.8157  1.3415 -0.3875
64404SOL     OW 5190  11.551   3.391  11.990  0.1918  0.3739 -0.1113
64404SOL    HW1 5191  11.506   3.393  11.906 -1.3202  0.0942  0.6619
64404SOL    HW2 5192  11.504   3.454  12.044 -0.5479 -1.3038  1.3136
64405SOL     OW 5193   8.348   2.737   4.249 -0.0055  0.0845  0.3856
64405SOL    HW1 5194   8.292   2.680   4.302 -3.2849  2.3234 -0.3419
64405SOL    HW2 5195   8.333   2.825   4.284  0.6864  1.1612 -1.8027
64406SOL     OW 5196  12.188   0.701  10.427 -0.4976 -0.0904 -0.5180
64406SOL    HW1 5197  12.169   0.609  10.407  1.2942 -0.4129 -0.9120
64406SOL    HW2 5198  12.230   0.734  10.348  1.5350  0.2201  0.6067
64407SOL     OW 5199  10.107   6.432   0.616 -0.1499  0.2363  0.3773
64407SOL    HW1 5200  10.134   6.464   0.702  1.5695 -1.8377  0.7094
64407SOL    HW2 5201  10.066   6.348   0.634 -1.3077  0.5452 -0.7165
64408SOL     OW 5202   4.118   2.930   7.394 -0.2748  0.0460  0.1728
64408SOL    HW1 5203   4.123   2.866   7.323 -1.5270  1.3354 -1.1621
64408SOL    HW2 5204   4.193   2.988   7.379 -0.4358  0.2116  0.0023
64409SOL     OW 5205   5.298  11.669  11.760 -0.7253 -0.1888  0.6258
64409SOL    HW1 5206   5.386  11.642  11.784 -0.5260 -1.0740 -0.9721
64409SOL    HW2 5207   5.310  11.755  11.719 -0.7229  0.0647  1.1495
64410SOL     OW 5208   7.833   0.718  13.768  0.0347 -0.5390 -0.5722
64410SOL    HW1 5209   7.901   0.756  13.823 -1.2952  2.5073 -0.8386
64410SOL    HW2 5210   7.751   0.742  13.811 -0.9525 -1.9760 -1.5647
64411SOL     OW 5211   2.316  11.291   3.543 -0.0746  0.3815 -0.8943
64411SOL    HW1 5212   2.291  11.218   3.488  0.8485 -1.2362  0.7135
64411SOL    HW2 5213   2.310  11.368   3.486  1.7201 -1.2611 -3.5259
64412SOL     OW 5214   1.736   6.450  13.097 -0.3800 -0.2793 -0.1990
64412SOL    HW1 5215   1.814   6.505  13.088  0.9263 -2.1117 -0.7315
64412SOL    HW2 5216   1.680   6.478  13.025 -1.2988  2.5776  1.4609
64413SOL     OW 5217   4.876  13.667   7.369 -0.4100 -0.1958  0.7876
64413SOL    HW1 5218   4.833  13.610   7.304 -0.0314 -1.5908  1.7141
64413SOL    HW2 5219   4.827  13.651   7.449  0.0864  0.3499  1.1995
64414SOL     OW 5220   4.347  11.942   9.395  0.2307  0.1771  0.2229
64414SOL    HW1 5221   4.311  11.976   9.313  2.2502  2.5076  0.1778
64414SOL    HW2 5222   4.277  11.954   9.459 -1.7202 -2.5453 -1.2119
64415SOL     OW 5223   7.492  10.274   7.659 -0.1522 -0.6110  0.2541
64415SOL    HW1 5224   7.400  10.295   7.673 -0.2745 -1.0644  0.1379
64415SOL    HW2 5225   7.492  10.207   7.591  0.2497 -0.7504  0.3871
64416SOL     OW 5226   3.614   9.721   7.646 -0.6109 -0.3372 -0.4054
64416SOL    HW1 5227   3.601   9.651   7.582 -1.0912  0.3478 -1.0797
64416SOL    HW2 5228   3.569   9.690   7.724 -0.5914 -0.8974 -0.6058
64417SOL     OW 5229  14.004  13.588  13.590 -0.1444  0.1277  0.3152
64417SOL    HW1 5230  13.977  13.501  13.619  0.4919 -0.2433 -0.1710
64417SOL    HW2 5231  13.926  13.642  13.600 -0.9413 -0.8067 -0.6109
64418SOL     OW 5232   7.492   6.866   6.265  0.0448  0.8134  0.1405
64418SOL    HW1 5233   7.580   6.879   6.231  0.3182 -0.4674  0.3324
64418SOL    HW2 5234   7.498   6.888   6.358  0.6144 -1.0214  0.5674
64419SOL     OW 5235  13.132   7.262   2.275  0.0839 -0.0868 -0.6768
64419SOL    HW1 5236  13.136   7.168   2.261  0.6994  0.0438 -1.4703
64419SOL    HW2 5237  13.055   7.290   2.225 -0.9125 -0.3331  0.6678
64420SOL     OW 5238   5.438   1.040   1.890  0.4573  0.0281 -0.1662
64420SOL    HW1 5239   5.461   1.094   1.814  2.7514 -2.4510 -1.4155
64420SOL    HW2 5240   5.504   1.062   1.956  0.1363  0.2057  0.0993
64421SOL     OW 5241   6.925   4.126   8.500 -0.2566  0.1947  0.5555
64421SOL    HW1 5242   6.853   4.136   8.563 -1.8744  2.2310 -1.4646
64421SOL    HW2 5243   6.968   4.212   8.500 -0.1207  0.1403 -0.9208
64422SOL     OW 5244   5.202  10.983   0.238  0.1529  0.7479 -0.4589
64422SOL    HW1 5245   5.125  10.938   0.202 -0.9663 -0.8361  3.3147
64422SOL    HW2 5246   5.257  10.913   0.272  0.4854  1.9973  1.8088
64423SOL     OW 5247  11.272   7.858   9.588  0.3274  0.3468 -0.0428
64423SOL    HW1 5248  11.221   7.860   9.669  1.0083 -0.5359  0.4291
64423SOL    HW2 5249  11.362   7.874   9.616  0.6713 -0.6917 -0.5207
64424SOL     OW 5250  11.147  12.323   9.121 -0.2030 -0.4264 -0.0227
64424SOL    HW1 5251  11.215  12.389   9.107  0.1527 -0.5156  1.1516
64424SOL    HW2 5252  11.070  12.357   9.075 -0.1823  1.0849  0.9867
64425SOL     OW 5253   5.027   4.891   8.404  0.0016  0.4723  0.5746
64425SOL    HW1 5254   4.939   4.864   8.431 -0.1119 -1.3011 -1.3777
64425SOL    HW2 5255   5.072   4.907   8.487 -1.3515 -1.2697  1.7425
64426SOL     OW 5256   8.785   7.942   3.499 -0.2281  0.1981 -0.6710
64426SOL    HW1 5257   8.761   7.965   3.589 -0.1950 -0.1176 -0.5790
64426SOL    HW2 5258   8.703   7.915   3.458 -0.1418 -0.2708 -0.5439
64427SOL     OW 5259   2.235   1.993   0.009  0.0500  0.0063 -0.0104
64427SOL    HW1 5260   2.270   1.948  -0.068  0.2904 -0.9200  0.6186
64427SOL    HW2 5261   2.307   1.994   0.071 -0.7714 -1.2576  1.0277
64428SOL     OW 5262   7.761   5.906   4.369 -0.6571  0.3607 -0.4743
64428SOL    HW1 5263   7.742   5.814   4.390 -1.9805  0.9607  1.2617
64428SOL    HW2 5264   7.852   5.906   4.340 -0.7884 -1.5617 -1.0031
64429SOL     OW 5265   7.901  10.265   2.635  0.1177  0.1656  0.1864
64429SOL    HW1 5266   7.843  10.326   2.588 -1.8446 -0.3660  1.7874
64429SOL    HW2 5267   7.898  10.185   2.582  0.7723  0.6614 -0.6326
64430SOL     OW 5268   0.294   0.988   9.877 -1.3299 -0.2419  0.0329
64430SOL    HW1 5269   0.322   1.076   9.902 -0.3093 -0.9568  1.5442
64430SOL    HW2 5270   0.312   0.983   9.784 -0.6074  0.8635  0.0931
64431SOL     OW 5271  10.340  11.276   4.948  0.9107  0.3327 -0.9170
64431SOL    HW1 5272  10.278  11.251   5.016  1.7756 -0.4639 -0.3994
64431SOL    HW2 5273  10.377  11.360   4.978  1.2059  0.0406 -0.4599
64432SOL     OW 5274   8.630   6.513   6.147  0.0893  0.3051 -0.6317
64432SOL    HW1 5275   8.614   6.577   6.078 -1.5754  0.6898  0.0365
64432SOL    HW2 5276   8.610   6.561   6.228  0.5649 -0.5494 -0.0006
64433SOL     OW 5277  12.576   9.895   6.410 -0.2205  0.4819  0.3378
64433SOL    HW1 5278  12.485   9.923   6.412 -0.2015  0.5411  2.0091
64433SOL    HW2 5279  12.624   9.967   6.451  0.4565  0.0485  0.3186
64434SOL     OW 5280   4.445   1.481   1.746  0.4409  0.3279  0.1905
64434SOL    HW1 5281   4.533   1.476   1.782  1.0287 -1.7565 -1.3037
64434SOL    HW2 5282   4.387   1.476   1.822  1.6185 -1.7419  1.0323
64435SOL     OW 5283   7.964  12.062  11.984 -0.1121  0.3512  0.2854
64435SOL    HW1 5284   7.975  12.006  11.906 -0.5198 -1.4087  1.4349
64435SOL    HW2 5285   7.880  12.106  11.970  0.7251  1.5917 -1.1527
64436SOL     OW 5286   6.632   2.564   6.310 -0.0482  0.0324 -0.4692
64436SOL    HW1 5287   6.549   2.519   6.291 -0.8245  1.4128 -0.4622
64436SOL    HW2 5288   6.697   2.516   6.259 -1.2009  0.2464 -2.2281
64437SOL     OW 5289  11.681   7.532   6.252 -0.7440  0.8698  0.6956
64437SOL    HW1 5290  11.613   7.466   6.253 -0.4655  0.5774  0.6195
64437SOL    HW2 5291  11.646   7.604   6.304 -1.3255  0.9422  0.2227
64438SOL     OW 5292   0.205   1.166   6.126  0.1011  0.0045 -0.0065
64438SOL    HW1 5293   0.216   1.215   6.207  1.5745 -0.1866 -0.0726
64438SOL    HW2 5294   0.166   1.083   6.153 -0.3199  0.3211  0.3764
64439SOL     OW 5295   5.647   4.496   3.480  0.0527 -0.0458 -0.4940
64439SOL    HW1 5296   5.658   4.503   3.385  1.1403  0.5504 -0.3357
64439SOL    HW2 5297   5.734   4.478   3.513 -0.1013  0.9347  0.4999
64440SOL     OW 5298   0.758  13.103   6.281  0.2479 -0.0966 -0.1375
64440SOL    HW1 5299   0.706  13.059   6.348 -1.5246  0.3774 -1.1461
64440SOL    HW2 5300   0.789  13.183   6.324 -0.3368 -0.1018  0.3004
64441SOL     OW 5301  12.047  11.480  10.237 -0.6711  0.5553  0.6985
64441SOL    HW1 5302  12.049  11.576  10.234  1.7307  0.5881  1.1236
64441SOL    HW2 5303  12.087  11.458  10.321 -0.3046 -0.8055  0.1923
64442SOL     OW 5304   2.800  10.883   3.548  0.9800  0.1131  0.0308
64442SOL    HW1 5305   2.752  10.864   3.629 -0.7357  0.0981 -0.9418
64442SOL    HW2 5306   2.743  10.852   3.478  2.0083  0.9735 -1.2445
64443SOL     OW 5307   6.292   3.598   8.487  0.0688  0.2107  0.1443
64443SOL    HW1 5308   6.218   3.637   8.440  0.3499 -0.5064 -0.9489
64443SOL    HW2 5309   6.290   3.505   8.461  1.9627  0.3747 -0.7776
64444SOL     OW 5310   2.600   4.502   3.938 -0.0582  0.6302 -0.6627
64444SOL    HW1 5311   2.660   4.442   3.893  0.7604  1.0341 -0.1275
64444SOL    HW2 5312   2.616   4.587   3.897  0.4926  0.9468  0.1875
64445SOL     OW 5313   9.201   5.023   3.440  0.2725 -0.5289 -0.5763
64445SOL    HW1 5314   9.145   5.075   3.498 -0.6448 -0.4587 -1.4862
64445SOL    HW2 5315   9.147   4.947   3.416  0.2094 -0.0269 -2.1619
64446SOL     OW 5316   2.355   9.155   9.404  0.0795  0.0805  0.1285
64446SOL    HW1 5317   2.338   9.067   9.370 -0.6617 -0.1123  0.9501
64446SOL    HW2 5318   2.299   9.162   9.482  0.2975  1.1971  0.2061
64447SOL     OW 5319   4.136  11.234   1.070 -0.7071 -0.6688 -0.6397
64447SOL    HW1 5320   4.094  11.312   1.034  3.8798  2.0613 -0.8785
64447SOL    HW2 5321   4.139  11.250   1.165  1.2614  0.1581 -0.7952
64448SOL     OW 5322   2.471  11.502   6.731 -0.3986 -0.1764  0.2282
64448SOL    HW1 5323   2.534  11.563   6.769  0.3913 -0.4049 -0.6723
64448SOL    HW2 5324   2.397  11.556   6.704  0.8217  0.6071 -1.7255
64449SOL     OW 5325   8.933  11.892   9.435 -0.0244 -1.0632 -0.3275
64449SOL    HW1 5326   8.903  11.979   9.408  1.3867 -0.8219 -1.2286
64449SOL    HW2 5327   9.012  11.909   9.486 -1.1086 -1.7004  1.6439
64450SOL     OW 5328   8.817   3.947   5.798 -0.0247  0.4389 -0.6685
64450SOL    HW1 5329   8.879   4.009   5.837  0.0543  0.0945 -0.2408
64450SOL    HW2 5330   8.792   3.988   5.715  0.2263  0.9194 -0.5150
64451SOL     OW 5331  13.018   9.310   9.832  0.3662  0.3861  0.2477
64451SOL    HW1 5332  12.994   9.273   9.917  1.3741  1.7115  1.1523
64451SOL    HW2 5333  13.011   9.405   9.844 -1.2872  0.5921 -1.7281
64452SOL     OW 5334   6.108   5.302  12.680 -0.0556 -0.1810 -0.3029
64452SOL    HW1 5335   6.038   5.331  12.621  0.6534  0.3732 -0.8889
64452SOL    HW2 5336   6.102   5.206  12.679 -1.6013 -0.1246  0.6436
64453SOL     OW 5337   3.775   5.441   9.157  0.0847 -0.3714 -0.3744
64453SOL    HW1 5338   3.791   5.490   9.076 -0.8477  0.5126 -0.0523
64453SOL    HW2 5339   3.779   5.349   9.131  1.6720 -0.1485 -1.0356
64454SOL     OW 5340   2.828   6.606   7.307  0.2185  0.0741  0.2524
64454SOL    HW1 5341   2.792   6.686   7.267  1.8343  0.5821 -0.2631
64454SOL    HW2 5342   2.785   6.601   7.393  2.4772  3.4399  1.8109
64455SOL     OW 5343  11.265  11.514  12.989 -0.3383 -0.3063  0.0627
64455SOL    HW1 5344  11.252  11.456  13.065 -0.2911  0.1253  0.4042
64455SOL    HW2 5345  11.222  11.468  12.917 -2.0102  0.1194  0.7269
64456SOL     OW 5346  11.183  10.049   0.503 -0.4468  0.2174  0.2800
64456SOL    HW1 5347  11.186  10.084   0.414  1.1089 -0.6579 -0.0564
64456SOL    HW2 5348  11.228  10.114   0.556 -0.6205  0.3385  0.2808
64457SOL     OW 5349  12.228  11.251   9.241 -0.6190  0.4115 -0.2927
64457SOL    HW1 5350  12.170  11.239   9.317  1.2779 -3.1780  0.8245
64457SOL    HW2 5351  12.193  11.191   9.175  0.9562 -0.7570 -0.1070
64458SOL     OW 5352   8.533  12.669   2.340 -0.3878  0.0284 -0.4227
64458SOL    HW1 5353   8.570  12.592   2.297 -0.6306 -0.0359 -0.5202
64458SOL    HW2 5354   8.460  12.694   2.284 -0.0273  0.6061 -0.6409
64459SOL     OW 5355   6.917   2.475   8.005  0.2699 -0.4293  0.1318
64459SOL    HW1 5356   6.916   2.564   7.970  0.6692 -1.3743 -2.5215
64459SOL    HW2 5357   7.008   2.460   8.028  0.7433 -0.9569 -1.8803
64460SOL     OW 5358   1.579   2.783  12.476  0.0504  1.1445 -0.3882
64460SOL    HW1 5359   1.539   2.836  12.407  0.2891  0.4290 -1.0850
64460SOL    HW2 5360   1.673   2.793  12.461  0.2169 -2.2402 -2.8027
64461SOL     OW 5361   3.374   4.599   1.992  0.2070 -0.0400  0.2797
64461SOL    HW1 5362   3.340   4.510   1.991  0.4629 -0.1385  0.2384
64461SOL    HW2 5363   3.412   4.611   1.905 -1.5836  0.7950 -0.4139
64462SOL     OW 5364  13.689   8.280   8.005  0.0689 -0.5547  0.0197
64462SOL    HW1 5365  13.672   8.361   7.958 -1.6640  0.0468  1.5729
64462SOL    HW2 5366  13.773   8.249   7.970  1.2243  2.3372 -0.0360
64463SOL     OW 5367  11.620   4.131  10.510  0.1795  0.6826 -0.3176
64463SOL    HW1 5368  11.605   4.221  10.483  0.9622  0.4836 -1.4729
64463SOL    HW2 5369  11.715   4.124  10.519  0.0194  0.5926  2.0897
64464SOL     OW 5370   9.035   0.628  11.976  0.2884  0.4878 -0.2982
64464SOL    HW1 5371   9.128   0.606  11.976  0.4631  1.1351 -1.2703
64464SOL    HW2 5372   9.019   0.664  12.063  1.9706  4.2500 -1.3306
64465SOL     OW 5373   1.791  12.032   1.475  0.4503  0.5790 -0.3943
64465SOL    HW1 5374   1.741  11.953   1.497 -0.3681  0.7379 -1.6077
64465SOL    HW2 5375   1.816  12.069   1.559 -1.9580  0.8016  0.2889
64466SOL     OW 5376   6.513   6.599   0.916 -0.0033  0.2928 -0.0061
64466SOL    HW1 5377   6.545   6.685   0.892 -2.2323  1.5621  1.2384
64466SOL    HW2 5378   6.488   6.606   1.008 -1.3513 -1.2982 -0.1826
64467SOL     OW 5379   6.087  11.765   8.823 -0.0517  0.5357 -0.7541
64467SOL    HW1 5380   6.070  11.740   8.732 -0.5792 -0.0006 -0.5139
64467SOL    HW2 5381   6.007  11.741   8.870  0.6396 -0.2413  0.0551
64468SOL     OW 5382   0.373  12.398   7.606  0.0728 -0.0402  0.6470
64468SOL    HW1 5383   0.402  12.312   7.577 -1.1600 -0.1326 -0.3700
64468SOL    HW2 5384   0.432  12.420   7.679  1.5604 -0.9365 -0.2407
64469SOL     OW 5385   8.209   0.795   3.339 -0.1626  0.4589  0.1835
64469SOL    HW1 5386   8.304   0.805   3.344 -0.2898  2.8070 -0.8183
64469SOL    HW2 5387   8.195   0.720   3.282  1.1266  1.3964 -1.4347
64470SOL     OW 5388   1.221  13.003  13.528 -0.4751 -0.3014 -0.3774
64470SOL    HW1 5389   1.250  13.086  13.567  0.1780 -0.5379 -0.3330
64470SOL    HW2 5390   1.281  12.989  13.455 -1.2983 -0.1731 -1.0860
64471SOL     OW 5391  11.882  10.320  11.019  0.0939  0.5758  0.3049
64471SOL    HW1 5392  11.963  10.370  11.025  0.5642  0.3699 -2.9238
64471SOL    HW2 5393  11.816  10.383  10.993 -0.3272  0.3156  0.7133
64472SOL     OW 5394   1.277   3.827   6.198  0.0623 -0.1812  0.1769
64472SOL    HW1 5395   1.234   3.844   6.114 -0.7232  1.5846  0.9000
64472SOL    HW2 5396   1.343   3.896   6.206  1.7266 -1.6774  0.0120
64473SOL     OW 5397   9.924   6.605   9.894  0.5387 -0.2806  0.0891
64473SOL    HW1 5398   9.973   6.673   9.849 -0.0886 -0.3911 -0.7863
64473SOL    HW2 5399   9.980   6.580   9.967  1.2226  0.4625 -0.1622
64474SOL     OW 5400  12.869   6.554  12.804 -0.3942  0.9255 -0.2218
64474SOL    HW1 5401  12.820   6.516  12.731 -0.7019  0.5413  0.1796
64474SOL    HW2 5402  12.805   6.560  12.875  0.2234  0.0914  0.4199
64475SOL     OW 5403   9.489   5.724  11.915 -0.5397 -0.2207  0.1407
64475SOL    HW1 5404   9.540   5.724  11.834 -1.0985 -1.3944 -0.2422
64475SOL    HW2 5405   9.525   5.650  11.965  0.6286  1.2154  1.5386
64476SOL     OW 5406   1.446   6.372   8.071  0.2377  0.3246 -0.3450
64476SOL    HW1 5407   1.419   6.424   7.996 -0.4959  0.4986  0.0314
64476SOL    HW2 5408   1.470   6.436   8.137 -0.2137  0.1872 -0.0431
64477SOL     OW 5409   4.299  10.359   8.170 -0.5058  0.6013 -0.1829
64477SOL    HW1 5410   4.267  10.313   8.092 -0.3596 -0.9656  0.6301
64477SOL    HW2 5411   4.238  10.332   8.239  0.6762  0.1280  0.7135
64478SOL     OW 5412   2.904   3.685   3.363  0.0062  0.0755 -0.5356
64478SOL    HW1 5413   2.865   3.699   3.450 -0.1541 -2.7882 -0.0142
64478SOL    HW2 5414   2.872   3.598   3.337  3.1634 -0.8973 -1.6684
64479SOL     OW 5415   0.119  10.204   2.551  0.3536 -0.4079 -0.8194
64479SOL    HW1 5416   0.111  10.197   2.646  1.8730 -0.4476 -0.6778
64479SOL    HW2 5417   0.060  10.136   2.517  0.3120 -0.8473  0.1045
64480SOL     OW 5418   2.895   4.708  12.046  0.1734 -0.1503  0.0529
64480SOL    HW1 5419   2.971   4.696  12.103  0.4798 -1.5719 -0.6163
64480SOL    HW2 5420   2.917   4.661  11.966 -0.8777  0.5348 -0.6680
64481SOL     OW 5421   3.790   7.829  13.904 -0.1115 -0.4103 -0.2134
64481SOL    HW1 5422   3.696   7.823  13.886 -0.2122  0.5168 -0.0540
64481SOL    HW2 5423   3.829   7.760  13.850 -1.0646 -2.1775  1.2342
64482SOL     OW 5424   2.185   2.774  11.997 -0.2203  0.1911 -0.1796
64482SOL    HW1 5425   2.247   2.837  11.960  0.4388 -1.3337 -1.7439
64482SOL    HW2 5426   2.110   2.776  11.938  0.8054 -2.1979 -1.6744
64483SOL     OW 5427   8.920   3.602   5.152 -0.0419 -0.2542 -0.2483
64483SOL    HW1 5428   8.948   3.634   5.066  1.3539 -0.2869  0.1685
64483SOL    HW2 5429   8.919   3.507   5.143 -1.6478 -0.2177 -0.7273
64484SOL     OW 5430   0.118   8.372   4.650 -0.2430 -0.0005 -0.0931
64484SOL    HW1 5431   0.125   8.463   4.620 -0.3472 -0.3089 -1.0713
64484SOL    HW2 5432   0.171   8.370   4.730  0.3520  0.7537 -0.4475
64485SOL     OW 5433  13.158   6.621   0.633 -0.6593 -0.4304  0.2031
64485SOL    HW1 5434  13.229   6.685   0.638 -0.4159 -0.7980  2.4037
64485SOL    HW2 5435  13.202   6.536   0.632 -1.0097 -0.6266 -1.7234
64486SOL     OW 5436   0.221   8.283  10.924 -0.1788  0.1130  0.7735
64486SOL    HW1 5437   0.135   8.313  10.893 -0.6969  1.4728  3.2616
64486SOL    HW2 5438   0.202   8.243  11.009  1.6257  0.1715  1.2266
64487SOL     OW 5439   5.362   5.670   0.729 -1.0151  0.7937 -0.7868
64487SOL    HW1 5440   5.289   5.701   0.676 -1.4924  1.2137  0.0969
64487SOL    HW2 5441   5.343   5.702   0.817 -0.2770  0.0412 -0.3435
64488SOL     OW 5442   0.608   8.322   7.976 -0.5017 -0.7040  0.4199
64488SOL    HW1 5443   0.583   8.303   8.066  0.4491 -1.2220  0.5871
64488SOL    HW2 5444   0.676   8.258   7.956  1.1633  1.0510  0.2013
64489SOL     OW 5445   3.597   5.563   1.747  0.1647 -0.1916 -0.3518
64489SOL    HW1 5446   3.577   5.594   1.658 -0.4627 -1.7791 -0.7861
64489SOL    HW2 5447   3.518   5.518   1.775  1.0175 -1.3430  0.2817
64490SOL     OW 5448   1.705   2.112   9.634 -0.1359  0.2655 -0.3424
64490SOL    HW1 5449   1.708   2.189   9.577 -0.2205  0.2097 -0.4214
64490SOL    HW2 5450   1.617   2.114   9.671 -0.7317 -0.7229 -1.6264
64491SOL     OW 5451   1.792   0.627  13.237  0.4566 -0.1259 -0.2614
64491SOL    HW1 5452   1.719   0.679  13.201  0.9807  0.4322 -0.5407
64491SOL    HW2 5453   1.775   0.624  13.331 -0.7567 -1.3230 -0.4979
64492SOL     OW 5454   5.289   9.885   8.979 -0.5096 -0.1622 -0.1461
64492SOL    HW1 5455   5.279   9.948   8.907 -0.7114  0.3919  0.3521
64492SOL    HW2 5456   5.215   9.825   8.969  1.2931 -2.2132 -2.4168
64493SOL     OW 5457   5.005   1.481   1.984  0.0769  0.4170  0.1502
64493SOL    HW1 5458   5.046   1.477   2.070 -0.3288 -1.7769  0.2992
64493SOL    HW2 5459   5.076   1.467   1.922 -0.2546 -3.3231  0.4034
64494SOL     OW 5460  13.078   3.637   5.097 -0.8029 -0.2930  0.2521
64494SOL    HW1 5461  13.073   3.700   5.169  2.8361 -0.7958  1.1258
64494SOL    HW2 5462  13.153   3.581   5.119 -0.5123 -1.4714 -3.1731
64495SOL     OW 5463   4.768  10.790   8.810 -0.1744 -0.9921  0.0177
64495SOL    HW1 5464   4.705  10.861   8.802  2.2744  1.9590  3.5403
64495SOL    HW2 5465   4.818  10.794   8.728 -0.5955  0.8644 -0.1973
64496SOL     OW 5466   3.096   8.246   8.066 -0.1390  0.2552 -0.1115
64496SOL    HW1 5467   3.074   8.154   8.050  1.8008 -0.0263 -1.5923
64496SOL    HW2 5468   3.015   8.293   8.049 -0.5395 -0.9755 -1.9277
64497SOL     OW 5469   3.816   2.655   6.109 -0.1438 -0.5016 -0.6492
64497SOL    HW1 5470   3.807   2.731   6.166  0.4473 -0.8692 -0.0433
64497SOL    HW2 5471   3.820   2.581   6.169  1.2243 -0.8367 -1.1149
64498SOL     OW 5472  10.529   4.779   6.571 -0.1951  0.4984 -0.2660
64498SOL    HW1 5473  10.599   4.817   6.517  1.0873 -2.5266 -0.9416
64498SOL    HW2 5474  10.451   4.828   6.547  1.3634  3.0493 -0.5569
64499SOL     OW 5475   9.258   1.865   9.694 -0.7155  0.4575 -0.4914
64499SOL    HW1 5476   9.218   1.805   9.757 -0.4249  1.9055  1.1557
64499SOL    HW2 5477   9.349   1.835   9.686 -1.1861 -0.7689 -1.6019
64500SOL     OW 5478   6.665  10.655   5.481  0.5655 -0.1884 -0.1617
64500SOL    HW1 5479   6.608  10.709   5.536  1.1730 -1.8044  2.1920
64500SOL    HW2 5480   6.753  10.667   5.518  0.8678 -1.9411 -0.2259
64501SOL     OW 5481  10.657   6.037  12.922  0.3325  0.0132  0.3449
64501SOL    HW1 5482  10.635   6.056  12.831  1.3412 -2.6337 -0.5384
64501SOL    HW2 5483  10.608   5.958  12.943  0.1393  0.5633  2.1179
64502SOL     OW 5484  13.930   3.158   4.415  0.0689  0.2845 -0.2742
64502SOL    HW1 5485  13.958   3.077   4.371  0.4853 -1.1055  2.3434
64502SOL    HW2 5486  13.862   3.129   4.476 -0.4158  2.0864  0.1001
64503SOL     OW 5487  12.899  12.303  10.252  0.3408 -0.0682 -0.3710
64503SOL    HW1 5488  12.952  12.371  10.294  0.1047  0.7975 -1.4396
64503SOL    HW2 5489  12.920  12.223  10.300 -0.7022  1.0442  2.1011
64504SOL     OW 5490   1.007  11.264  13.947  0.5894  0.0376  0.1329
64504SOL    HW1 5491   0.923  11.224  13.970  0.9947  0.0910  1.8164
64504SOL    HW2 5492   1.001  11.354  13.979  1.7116 -0.2998  1.3470
64505SOL     OW 5493   9.614   1.359   0.095 -0.0321  0.0044 -0.4599
64505SOL    HW1 5494   9.553   1.392   0.161 -0.7587  0.7901 -1.4987
64505SOL    HW2 5495   9.668   1.295   0.142 -1.5014 -0.5480  0.5564
64506SOL     OW 5496   5.684   4.209   3.791  0.4142 -0.1256  0.1066
64506SOL    HW1 5497   5.743   4.144   3.830 -0.1181 -0.5834  0.1586
64506SOL    HW2 5498   5.737   4.253   3.724  1.2643  0.4905  1.1484
64507SOL     OW 5499   3.616   3.276   4.060 -0.2022 -0.8962 -0.2191
64507SOL    HW1 5500   3.563   3.344   4.103  1.6633  1.6898 -1.7912
64507SOL    HW2 5501   3.635   3.214   4.130 -1.5040  0.4684  1.4453
64508SOL     OW 5502   2.825   8.238   6.546  0.1275  0.0545 -0.0041
64508SOL    HW1 5503   2.802   8.148   6.524  1.2656 -0.6327  1.4528
64508SOL    HW2 5504   2.777   8.256   6.626 -0.2027  0.8045 -0.3632
64509SOL     OW 5505   4.127   6.893  12.307  0.4592  0.5991 -0.1441
64509SOL    HW1 5506   4.138   6.915  12.215 -3.2362  0.9190 -0.6793
64509SOL    HW2 5507   4.090   6.973  12.346 -0.2250 -0.2667  1.0528
64510SOL     OW 5508  10.570  11.634   2.511 -0.5568 -0.0189 -0.6896
64510SOL    HW1 5509  10.637  11.639   2.578 -1.7331  1.0700  0.4560
64510SOL    HW2 5510  10.489  11.660   2.555 -1.5152 -0.0384 -2.3313
64511SOL     OW 5511  10.549   6.103   1.265  0.1611 -0.0789  0.4055
64511SOL    HW1 5512  10.577   6.013   1.279  0.6234  0.0657  0.4074
64511SOL    HW2 5513  10.485   6.119   1.334 -0.4083 -0.6118  0.0247
64512SOL     OW 5514  12.741   5.284  12.480  0.0481  0.3047 -0.4333
64512SOL    HW1 5515  12.810   5.286  12.414  0.5329 -1.9527 -0.0586
64512SOL    HW2 5516  12.785   5.255  12.560 -1.3508 -1.5062 -0.2601
64513SOL     OW 5517  13.622   7.564   1.248  0.0287  0.1965  0.2307
64513SOL    HW1 5518  13.598   7.637   1.191  0.5444  1.4247  1.5261
64513SOL    HW2 5519  13.572   7.579   1.328 -1.1347 -1.8176 -0.0423
64514SOL     OW 5520   2.458  10.550  11.924  0.8060 -0.1084  0.2024
64514SOL    HW1 5521   2.528  10.611  11.947  1.0945  0.1067 -1.1208
64514SOL    HW2 5522   2.485  10.514  11.839  0.5527 -1.9456  0.8498
64515SOL     OW 5523   4.791  10.447   2.574  0.3143 -0.2619  0.1859
64515SOL    HW1 5524   4.770  10.389   2.647  1.8688 -0.1270  0.7853
64515SOL    HW2 5525   4.819  10.529   2.616  1.2356 -0.1829 -0.5401
64516SOL     OW 5526   5.153   7.746  11.908  0.3971  0.4597  0.2515
64516SOL    HW1 5527   5.120   7.682  11.971  1.0470  0.7185  0.8757
64516SOL    HW2 5528   5.142   7.830  11.953  0.7989  0.6537 -0.0095
64517SOL     OW 5529  12.465  11.531  13.691  0.6531  0.7333 -0.3327
64517SOL    HW1 5530  12.431  11.498  13.608  0.3133  1.5695 -0.5339
64517SOL    HW2 5531  12.530  11.466  13.718  0.2514  0.0885 -0.8916
64518SOL     OW 5532   9.799   4.469   9.058 -0.0754 -0.6175  0.4623
64518SOL    HW1 5533   9.707   4.454   9.079 -0.0033  0.5474  1.7590
64518SOL    HW2 5534   9.834   4.516   9.133  0.5337  2.7716 -1.7178
64519SOL     OW 5535  13.120   3.991  13.393 -0.5337  0.0751  0.1822
64519SOL    HW1 5536  13.053   4.048  13.357 -3.2429 -3.6380 -1.3437
64519SOL    HW2 5537  13.073   3.935  13.455  1.5529 -1.4567  0.4953
64520SOL     OW 5538   7.810   8.998   6.537 -0.2569 -0.3101  0.2688
64520SOL    HW1 5539   7.752   8.989   6.462  0.9195  0.1371 -0.7334
64520SOL    HW2 5540   7.811   9.092   6.555 -0.0324 -0.3416  0.4216
64521SOL     OW 5541   3.419   7.488  10.597  0.2754  0.2798  0.2074
64521SOL    HW1 5542   3.460   7.527  10.674  1.4449 -0.2713 -0.1154
64521SOL    HW2 5543   3.391   7.562  10.545  0.5807  0.6703  0.5880
64522SOL     OW 5544   5.280  13.283   3.597  0.0566 -0.0516  0.0360
64522SOL    HW1 5545   5.321  13.329   3.523 -0.8023 -0.5755 -0.7884
64522SOL    HW2 5546   5.212  13.230   3.557  0.6209 -1.5843  1.0338
64523SOL     OW 5547   6.861  13.217   8.425 -0.5148 -0.0685 -0.3649
64523SOL    HW1 5548   6.813  13.297   8.447  0.5135  0.4003  0.1889
64523SOL    HW2 5549   6.801  13.146   8.450 -0.6931  0.5005  0.8681
64524SOL     OW 5550   7.900   6.308   5.274  0.0840  0.3341 -0.4413
64524SOL    HW1 5551   7.882   6.281   5.364 -0.5692 -0.2833 -0.7537
64524SOL    HW2 5552   7.993   6.334   5.276  0.1467  0.0885  0.3470
64525SOL     OW 5553   8.025   2.383  12.326 -0.5139  0.2291 -0.0969
64525SOL    HW1 5554   7.951   2.381  12.265  0.0383  1.1364 -0.8382
64525SOL    HW2 5555   8.023   2.472  12.363  0.5360  0.4795 -0.5842
64526SOL     OW 5556   4.473   1.895   6.582 -0.2845 -0.2157  0.4489
64526SOL    HW1 5557   4.545   1.923   6.525 -0.0022 -0.2447  0.7916
64526SOL    HW2 5558   4.417   1.842   6.525  0.9363 -1.7682  0.6381
64527SOL     OW 5559   2.894  13.347   4.217 -0.0724 -0.7437 -0.2885
64527SOL    HW1 5560   2.887  13.373   4.309 -3.7293  0.9351 -0.8465
64527SOL    HW2 5561   2.907  13.429   4.170 -0.8183 -1.2305 -1.3951
64528SOL     OW 5562   4.034  11.971   0.482 -0.0772 -0.5351  0.0659
64528SOL    HW1 5563   3.992  11.897   0.526 -0.3928 -1.4211 -1.6317
64528SOL    HW2 5564   4.057  12.031   0.553 -2.2882 -0.9848  1.2871
64529SOL     OW 5565  10.123   9.395   0.863  0.1311 -0.0588  0.4491
64529SOL    HW1 5566  10.176   9.470   0.839  0.9705 -0.2386  1.6140
64529SOL    HW2 5567  10.081   9.421   0.945 -1.7294  0.1331 -0.5218
64530SOL     OW 5568  11.775   3.785   3.716  0.4766  0.1101  0.1059
64530SOL    HW1 5569  11.718   3.852   3.755 -1.0214 -0.9668 -0.1552
64530SOL    HW2 5570  11.720   3.707   3.710  1.7254 -0.7296 -0.9977
64531SOL     OW 5571   2.091   5.177  11.739  0.8131  0.1106  0.3909
64531SOL    HW1 5572   2.057   5.089  11.753  0.0132  0.3143 -0.2093
64531SOL    HW2 5573   2.014   5.231  11.720  1.2728  0.9749  0.8918
64532SOL     OW 5574   9.334   1.307   6.631 -0.4979 -0.6763  0.1739
64532SOL    HW1 5575   9.326   1.223   6.675  0.3504 -0.0453  1.6072
64532SOL    HW2 5576   9.427   1.329   6.638 -0.5293 -0.0396 -1.0207
64533SOL     OW 5577   6.791   7.611   1.522  0.1620 -0.3570 -0.1565
64533SOL    HW1 5578   6.703   7.625   1.487  1.1959  0.4785 -2.6031
64533SOL    HW2 5579   6.847   7.607   1.445  3.1230  4.7214  1.3276
64534SOL     OW 5580  10.218  13.907   7.172  0.0829 -0.0814  0.2859
64534SOL    HW1 5581  10.278  13.977   7.198  1.1236 -1.4885  1.8878
64534SOL    HW2 5582  10.138  13.953   7.147  1.1844  1.7445 -0.0929
64535SOL     OW 5583   2.351   5.991   0.276 -0.0717  0.2273 -0.2470
64535SOL    HW1 5584   2.339   6.038   0.192 -0.4956 -0.1087 -0.3784
64535SOL    HW2 5585   2.374   5.902   0.250 -1.2641 -0.1627 -0.0289
64536SOL     OW 5586   2.883   9.865   8.586 -0.5100  0.0513  0.2236
64536SOL    HW1 5587   2.952   9.879   8.652 -1.4072 -1.4323  1.5637
64536SOL    HW2 5588   2.847   9.952   8.570  1.0496  0.7211  0.1959
64537SOL     OW 5589   6.186  10.069   7.191 -0.2107  0.6226 -0.0694
64537SOL    HW1 5590   6.244  10.133   7.148 -0.0062  1.1074  0.9061
64537SOL    HW2 5591   6.112  10.121   7.221 -1.9068 -0.1945 -2.5184
64538SOL     OW 5592   7.096  10.799   0.806 -0.4407 -0.2647  0.5567
64538SOL    HW1 5593   7.128  10.879   0.847 -0.0926  0.1266 -0.4549
64538SOL    HW2 5594   7.002  10.813   0.795 -0.2752  0.2780 -0.2101
64539SOL     OW 5595   2.732   4.329   6.145  0.1026  0.0367 -0.3377
64539SOL    HW1 5596   2.753   4.421   6.131  0.9361 -0.0609  0.1681
64539SOL    HW2 5597   2.752   4.287   6.062  0.9391  0.1194 -0.1854
64540SOL     OW 5598   1.688  13.917  12.642  0.4735  0.2054 -0.3826
64540SOL    HW1 5599   1.647  13.832  12.658 -0.4279  0.6333 -0.3750
64540SOL    HW2 5600   1.719  13.912  12.551 -0.2620  0.1390 -0.6383
64541SOL     OW 5601  11.173   8.099   9.433  0.3336 -0.0714 -0.1670
64541SOL    HW1 5602  11.192   8.170   9.494  0.0100 -0.2457  0.1397
64541SOL    HW2 5603  11.238   8.032   9.452  1.1896  0.4956 -1.0474
64542SOL     OW 5604   7.744   1.811   7.201  0.0479 -0.2447  0.0587
64542SOL    HW1 5605   7.706   1.872   7.263 -1.2356  1.0056 -1.8447
64542SOL    HW2 5606   7.834   1.799   7.230 -0.9546 -1.1695  3.1545
64543SOL     OW 5607   6.824   9.577   7.097 -0.3328  0.1341  0.2543
64543SOL    HW1 5608   6.749   9.603   7.044 -0.5613  1.6980  1.2815
64543SOL    HW2 5609   6.899   9.615   7.052 -0.1585 -1.1170 -0.5693
64544SOL     OW 5610  11.839   3.918   8.600  0.2391  0.4639 -0.0008
64544SOL    HW1 5611  11.878   3.866   8.671  0.2183  1.0931  0.4834
64544SOL    HW2 5612  11.749   3.885   8.593  0.9900 -1.4307 -1.5456
64545SOL     OW 5613   8.981  13.935   9.750 -0.0576  0.3223  0.4677
64545SOL    HW1 5614   8.975  13.917   9.656 -0.9960 -0.5698  0.6838
64545SOL    HW2 5615   9.006  13.851   9.789 -0.9180  0.3740  1.1492
64546SOL     OW 5616   8.194   3.729  10.711  0.2616  0.4185  0.2633
64546SOL    HW1 5617   8.116   3.717  10.765 -0.3761 -0.7178 -0.8461
64546SOL    HW2 5618   8.173   3.803  10.654 -1.0958 -1.3766 -1.7425
64547SOL     OW 5619   3.921   6.299   7.241 -0.3948  0.2477 -0.4601
64547SOL    HW1 5620   3.833   6.284   7.277 -0.0600  0.6703  0.5897
64547SOL    HW2 5621   3.916   6.384   7.198 -0.6036  0.0836 -0.7627
64548SOL     OW 5622   4.513   9.943   6.317  0.4815  0.0271  0.0994
64548SOL    HW1 5623   4.499  10.004   6.245 -0.6804  0.1487  0.3962
64548SOL    HW2 5624   4.585   9.981   6.367  1.6197 -0.2937 -1.2155
64549SOL     OW 5625   0.067   1.530  13.372  0.6045 -0.2181 -0.2742
64549SOL    HW1 5626   0.058   1.508  13.464 -1.2129  2.2431  0.2395
64549SOL    HW2 5627   0.043   1.450  13.325 -0.9041 -0.7885  1.3933
64550SOL     OW 5628  10.040   0.920   7.814  0.3592 -0.2797 -0.7642
64550SOL    HW1 5629  10.016   1.005   7.851 -0.0951 -0.9751  0.5895
64550SOL    HW2 5630   9.957   0.879   7.792  0.6010 -0.1575 -1.9776
64551SOL     OW 5631   1.635   5.851   7.126  0.6504  0.2439  0.2838
64551SOL    HW1 5632   1.725   5.881   7.140  0.4700  0.7866  0.3033
64551SOL    HW2 5633   1.590   5.871   7.208  1.1368 -2.5358  1.3590
64552SOL     OW 5634  13.779   5.291   9.387 -0.0776 -0.4080 -0.6549
64552SOL    HW1 5635  13.688   5.299   9.415  0.2328 -2.1614  1.0779
64552SOL    HW2 5636  13.774   5.283   9.292 -1.4703  2.2483 -0.8928
64553SOL     OW 5637  12.731   0.053  10.358  0.4018  0.0322 -0.1158
64553SOL    HW1 5638  12.674   0.062  10.282  1.7124  3.4808 -0.8770
64553SOL    HW2 5639  12.819   0.051  10.322  0.9885  0.0811  1.2479
64554SOL     OW 5640  12.186   8.068   0.496  1.3887 -0.6566  0.6680
64554SOL    HW1 5641  12.186   8.042   0.588  1.0764  1.0413  1.1889
64554SOL    HW2 5642  12.247   8.008   0.454  2.9551 -0.3426  2.3519
64555SOL     OW 5643   2.248  13.323   2.386 -0.4868 -0.1148 -0.8474
64555SOL    HW1 5644   2.317  13.261   2.361 -0.1522  0.4919 -1.4404
64555SOL    HW2 5645   2.172  13.296   2.334 -0.5901 -0.5309 -0.4918
64556SOL     OW 5646   4.479   1.647   3.737  0.2581  0.5845 -0.1366
64556SOL    HW1 5647   4.418   1.689   3.797  1.9327 -0.3516  2.3874
64556SOL    HW2 5648   4.478   1.702   3.659 -3.4335  0.8073 -0.0972
64557SOL     OW 5649   6.670  12.916   1.321  0.1505 -0.1445 -0.0469
64557SOL    HW1 5650   6.672  12.943   1.229  3.0338 -0.1802 -0.0828
64557SOL    HW2 5651   6.734  12.972   1.364  0.8185 -1.9173  1.3844
64558SOL     OW 5652   6.832   2.804   5.542  0.3713 -0.1316 -0.5300
64558SOL    HW1 5653   6.761   2.800   5.606  1.2507  0.6229  0.5214
64558SOL    HW2 5654   6.841   2.898   5.523  2.7432  0.0715  1.2821
64559SOL     OW 5655   4.483   6.214   6.619  0.3643  0.1384  0.2521
64559SOL    HW1 5656   4.396   6.177   6.626  1.1691 -1.5955  1.6087
64559SOL    HW2 5657   4.511   6.193   6.530 -0.5563  0.6857 -0.1820
64560SOL     OW 5658   6.446   3.440  13.533 -0.4951 -0.0552 -0.1895
64560SOL    HW1 5659   6.412   3.507  13.593  1.6163  1.1993 -0.3225
64560SOL    HW2 5660   6.529   3.474  13.503 -0.1802 -1.9697 -1.6760
64561SOL     OW 5661   9.388   5.028   6.787 -0.4602 -0.0119  0.4815
64561SOL    HW1 5662   9.437   4.947   6.797  1.4128  0.9787 -0.0343
64561SOL    HW2 5663   9.313   5.020   6.846  0.3707 -1.5830  1.3586
64562SOL     OW 5664  12.853   8.819   4.532  0.3534  0.0890  0.2077
64562SOL    HW1 5665  12.776   8.765   4.517 -0.5456  1.6386 -1.0294
64562SOL    HW2 5666  12.894   8.828   4.446  1.1148  0.4703  0.5924
64563SOL     OW 5667  11.535   7.299  10.973 -0.0782 -0.2939 -0.1071
64563SOL    HW1 5668  11.468   7.306  11.041 -1.5794  5.0903 -1.6445
64563SOL    HW2 5669  11.493   7.250  10.903 -0.5221 -1.2077  0.7782
64564SOL     OW 5670   7.285   0.120   8.499 -0.0182 -0.9194 -0.3891
64564SOL    HW1 5671   7.220   0.191   8.493  0.1750 -0.6158  0.8512
64564SOL    HW2 5672   7.236   0.041   8.476 -0.4634 -0.5018 -0.9044
64565SOL     OW 5673   4.304   3.652   0.480 -0.0738 -0.2382  0.2903
64565SOL    HW1 5674   4.245   3.619   0.547  1.2937 -0.3318  1.4997
64565SOL    HW2 5675   4.370   3.584   0.469 -1.2427 -1.0702 -2.5547
64566SOL     OW 5676   3.063   8.516   7.887  0.1841 -0.0083 -0.2433
64566SOL    HW1 5677   3.093   8.472   7.807  0.0130 -1.7134  0.5648
64566SOL    HW2 5678   2.993   8.459   7.919  1.4002 -0.3501  2.0270
64567SOL     OW 5679   2.182  12.951  13.056  0.3965 -0.2973 -0.5608
64567SOL    HW1 5680   2.215  13.001  13.131  0.8382  0.0424 -0.9826
64567SOL    HW2 5681   2.095  12.923  13.083  1.1687 -1.6122  0.7717
64568SOL     OW 5682   1.483  10.841   0.913 -0.2324 -0.3890  0.5435
64568SOL    HW1 5683   1.467  10.914   0.853 -0.2826 -0.6507  0.2386
64568SOL    HW2 5684   1.576  10.850   0.937 -0.1515 -0.4242  0.2435
64569SOL     OW 5685   8.820  13.063  11.962  0.0575  0.4556  0.6815
64569SOL    HW1 5686   8.810  13.081  11.869  0.2745  0.2512  0.6181
64569SOL    HW2 5687   8.903  13.016  11.969 -0.2313 -0.0219  0.9103
64570SOL     OW 5688   1.258  13.561   0.531  0.3959  0.7210  0.1631
64570SOL    HW1 5689   1.205  13.486   0.504  1.7232  0.2300 -1.2543
64570SOL    HW2 5690   1.195  13.625   0.565 -0.9321 -0.3734 -0.1876
64571SOL     OW 5691   3.735  11.699   9.799  0.0251  0.9355  0.2089
64571SOL    HW1 5692   3.675  11.706   9.725  0.2809 -0.0108 -0.1046
64571SOL    HW2 5693   3.678  11.693   9.876 -0.3238 -0.5727 -0.1367
64572SOL     OW 5694  11.198  13.645   9.248  0.2299  0.4135 -0.3780
64572SOL    HW1 5695  11.246  13.658   9.166 -0.9792 -0.1375 -1.2054
64572SOL    HW2 5696  11.179  13.551   9.250 -1.7258  0.7696 -0.6349
64573SOL     OW 5697   0.548   8.426   3.683 -0.3991 -0.0114  0.3602
64573SOL    HW1 5698   0.476   8.458   3.738 -2.4262 -1.4599 -1.2845
64573SOL    HW2 5699   0.595   8.364   3.738 -1.0588  0.1614  1.1392
64574SOL     OW 5700   7.818   5.087   6.953 -0.5890  0.3752  0.4311
64574SOL    HW1 5701   7.887   5.096   7.019  0.5395  1.7076 -0.8755
64574SOL    HW2 5702   7.769   5.009   6.981  2.5384 -1.7682  0.4050
64575SOL     OW 5703   4.541   1.901   2.766  0.1645  0.1436  0.7591
64575SOL    HW1 5704   4.570   1.979   2.814  0.0647  0.8997 -0.3887
64575SOL    HW2 5705   4.502   1.935   2.686 -0.6594 -1.0539  0.6276
64576SOL     OW 5706  11.542   2.867   4.278 -0.0307 -0.0253 -0.1026
64576SOL    HW1 5707  11.623   2.821   4.301 -0.3703  0.3871  2.1454
64576SOL    HW2 5708  11.526   2.843   4.186  3.0711  0.5627 -0.9354
64577SOL     OW 5709   1.353   2.978   1.382  0.2582  0.8613  0.0634
64577SOL    HW1 5710   1.374   2.889   1.352 -2.8148  0.4541 -1.2295
64577SOL    HW2 5711   1.394   3.035   1.317  0.8929  0.3286 -0.0176
64578SOL     OW 5712   5.009   4.157   7.185 -0.1852  0.2095  0.1392
64578SOL    HW1 5713   5.035   4.150   7.093 -1.3076 -2.0418 -0.0712
64578SOL    HW2 5714   5.091   4.147   7.234  0.5404  2.2720 -0.5878
64579SOL     OW 5715   5.649   2.699  13.764  0.0828 -0.2271  0.2080
64579SOL    HW1 5716   5.586   2.672  13.696 -0.9452  0.8444  0.6952
64579SOL    HW2 5717   5.712   2.627  13.768 -1.2785 -1.4946 -0.0891
64580SOL     OW 5718   9.551   5.617   9.895  0.5699  0.5798 -0.2894
64580SOL    HW1 5719   9.597   5.575   9.822 -0.6244 -1.1485 -0.1193
64580SOL    HW2 5720   9.587   5.575   9.973  0.8592  1.4222  0.0416
64581SOL     OW 5721   1.005  12.361  13.351 -0.5387  0.0242 -0.1305
64581SOL    HW1 5722   0.957  12.279  13.359  0.0740 -0.3775 -0.5712
64581SOL    HW2 5723   1.068  12.346  13.281  0.8782  0.2318  1.0618
64582SOL     OW 5724   2.847   3.051   9.503 -0.0546 -0.1204  0.0919
64582SOL    HW1 5725   2.777   3.114   9.483  0.4618  0.5307  0.3203
64582SOL    HW2 5726   2.802   2.967   9.506 -1.0430  0.4033  1.2652
64583SOL     OW 5727  12.310   5.599   1.809  0.4407 -0.2984  0.0751
64583SOL    HW1 5728  12.264   5.657   1.748 -2.1539  0.3151  2.4202
64583SOL    HW2 5729  12.361   5.541   1.752 -0.6304  1.1674 -2.5828
64584SOL     OW 5730   8.029   9.959  13.127 -0.2797 -0.5529  0.2052
64584SOL    HW1 5731   7.997   9.925  13.043 -1.1750  0.5827  0.0656
64584SOL    HW2 5732   7.960  10.018  13.157  1.7417  2.1978 -0.2155
64585SOL     OW 5733  13.083   4.630   0.742  0.1206 -1.0495  0.7332
64585SOL    HW1 5734  13.059   4.716   0.708 -2.5876 -1.4162  1.5010
64585SOL    HW2 5735  13.122   4.648   0.827  2.6867 -0.4397 -0.4797
64586SOL     OW 5736   6.465   3.796   0.179  0.3322  0.3767  0.1097
64586SOL    HW1 5737   6.487   3.859   0.248  0.6487  0.3773  0.0082
64586SOL    HW2 5738   6.384   3.830   0.141  0.0210  0.2423  0.6464
64587SOL     OW 5739   0.284   7.861   7.171 -0.1353 -0.3865 -0.3428
64587SOL    HW1 5740   0.222   7.907   7.115 -1.3443 -1.4304  0.0691
64587SOL    HW2 5741   0.328   7.799   7.113  0.1621  0.0038 -0.5373
64588SOL     OW 5742   2.242   7.132   0.402  0.1534 -0.2907  0.1375
64588SOL    HW1 5743   2.299   7.191   0.451 -0.6519  0.4746  0.1773
64588SOL    HW2 5744   2.293   7.052   0.392  0.8315  0.0153  1.0624
64589SOL     OW 5745   5.602   5.245   3.097  0.4551 -0.1795 -0.0543
64589SOL    HW1 5746   5.531   5.204   3.146  1.1029  1.0605  2.0384
64589SOL    HW2 5747   5.572   5.334   3.081  0.7845 -0.1992 -0.8449
64590SOL     OW 5748   4.602   2.820  13.788 -0.8895  0.0701  0.1319
64590SOL    HW1 5749   4.687   2.789  13.756 -0.1420  1.2305  0.9094
64590SOL    HW2 5750   4.546   2.743  13.785  0.6204 -1.1202  1.0496
64591SOL     OW 5751  13.893   9.588   5.810 -0.0148 -0.2828  0.5172
64591SOL    HW1 5752  13.860   9.652   5.873  0.2077  0.9314 -0.5684
64591SOL    HW2 5753  13.859   9.617   5.725  2.4949  0.1351 -0.4421
64592SOL     OW 5754  12.119   1.850   7.479  0.0261  0.6191  0.7083
64592SOL    HW1 5755  12.205   1.810   7.485  0.5495  1.6828  0.5390
64592SOL    HW2 5756  12.136   1.937   7.444 -0.9061  1.5456  2.4326
64593SOL     OW 5757   5.078   1.914   1.548  0.7613 -0.1138 -0.2713
64593SOL    HW1 5758   5.107   1.919   1.639  3.0206  0.7799 -0.9840
64593SOL    HW2 5759   5.034   1.998   1.533  0.1923 -0.3500  0.0332
64594SOL     OW 5760   0.541   9.497   1.002 -0.1823  0.7282  0.3432
64594SOL    HW1 5761   0.549   9.578   1.052  0.7536  0.7533  0.1636
64594SOL    HW2 5762   0.583   9.430   1.057  2.0610  0.9961 -0.9226
64595SOL     OW 5763   0.403   3.624  11.728 -0.0552  0.2488  0.3032
64595SOL    HW1 5764   0.407   3.542  11.679 -1.6251  0.5213 -0.3323
64595SOL    HW2 5765   0.343   3.679  11.678 -0.5018  1.1052  1.7223
64596SOL     OW 5766   3.979   1.592   9.746 -0.1955 -0.1264  0.3369
64596SOL    HW1 5767   3.959   1.574   9.654 -1.7960  1.6564  0.2624
64596SOL    HW2 5768   4.069   1.623   9.745 -0.1291 -0.3141 -0.6121
64597SOL     OW 5769  10.813   1.523  11.730 -0.3024  0.1381 -0.0616
64597SOL    HW1 5770  10.735   1.514  11.675  0.4320  0.9785 -1.2673
64597SOL    HW2 5771  10.799   1.604  11.779 -0.6192 -0.2224  0.4519
64598SOL     OW 5772   0.713   9.342   8.251  0.3115  0.3998 -0.5153
64598SOL    HW1 5773   0.738   9.251   8.236  0.6334  0.1933  1.0749
64598SOL    HW2 5774   0.682   9.373   8.166  1.2263 -0.8592 -1.3399
64599SOL     OW 5775   5.744  13.915   0.466  0.6067  0.0308  0.3484
64599SOL    HW1 5776   5.821  13.922   0.410  0.7379 -0.8120  0.4030
64599SOL    HW2 5777   5.711  14.004   0.474  1.7237  0.4415  0.5291
64600SOL     OW 5778   3.825  12.611   6.343  0.3147  0.0182  0.7733
64600SOL    HW1 5779   3.782  12.673   6.402  1.2598  0.4281  1.0511
64600SOL    HW2 5780   3.754  12.570   6.294 -0.6489 -1.4631  3.2570
64601SOL     OW 5781   9.561  12.582  13.168 -0.0327 -0.2806 -0.6632
64601SOL    HW1 5782   9.651  12.551  13.167  0.0932  0.0450 -0.0099
64601SOL    HW2 5783   9.568  12.676  13.186 -0.5148 -0.3068 -0.3148
64602SOL     OW 5784  10.303   5.288   4.255 -0.5755 -0.2734  0.5947
64602SOL    HW1 5785  10.225   5.331   4.220 -0.1457 -0.4370 -0.6155
64602SOL    HW2 5786  10.274   5.198   4.273 -0.3674 -0.7418 -1.1549
64603SOL     OW 5787   7.376  10.852  10.033  1.1551  0.8035  0.1669
64603SOL    HW1 5788   7.377  10.915  10.105 -0.7786  1.1125 -0.0292
64603SOL    HW2 5789   7.362  10.905   9.955 -1.3271  0.1541  0.0781
64604SOL     OW 5790  10.210  12.598  11.515  0.4337 -0.3303  0.1974
64604SOL    HW1 5791  10.261  12.669  11.474  1.0525 -0.9874 -0.1916
64604SOL    HW2 5792  10.146  12.574  11.448  0.9295 -0.8668 -0.0906
64605SOL     OW 5793  13.231   3.650   9.282  0.1339 -0.0937 -0.3516
64605SOL    HW1 5794  13.309   3.598   9.299 -0.8651 -1.2801  0.8915
64605SOL    HW2 5795  13.185   3.603   9.212 -0.6641 -0.8463  0.6292
64606SOL     OW 5796   7.542   1.805   4.194 -0.0757  0.3830 -0.1615
64606SOL    HW1 5797   7.575   1.739   4.255  0.7280  0.9709  0.0562
64606SOL    HW2 5798   7.589   1.788   4.113  0.0069  0.5785 -0.1549
64607SOL     OW 5799  12.433   3.282   0.073  0.2660 -0.7787  0.2908
64607SOL    HW1 5800  12.482   3.334   0.010  0.7155  0.3333  1.5165
64607SOL    HW2 5801  12.488   3.279   0.150 -0.7579 -1.1503  1.0357
64608SOL     OW 5802   1.943   5.755   4.249 -0.4086 -0.5245  0.2943
64608SOL    HW1 5803   1.850   5.754   4.273  0.0744  0.9330  2.4675
64608SOL    HW2 5804   1.944   5.728   4.157 -3.3697  3.0543 -1.0543
64609SOL     OW 5805   7.855   1.459   9.599 -0.0055  0.0233 -0.3321
64609SOL    HW1 5806   7.911   1.404   9.654  0.4626 -0.1410 -0.9551
64609SOL    HW2 5807   7.771   1.415   9.598  0.1718 -0.3198 -0.2653
64610SOL     OW 5808   1.461   1.632   8.802  0.0438  0.7911 -0.3725
64610SOL    HW1 5809   1.474   1.720   8.837  0.0259  0.2244  1.1035
64610SOL    HW2 5810   1.367   1.625   8.789 -0.1206  0.4970  0.8890
64611SOL     OW 5811  13.406  11.792   8.011 -0.1717  0.6787  0.1927
64611SOL    HW1 5812  13.493  11.767   8.043  0.1529 -0.9304 -1.7359
64611SOL    HW2 5813  13.382  11.722   7.950 -1.5019  2.6306 -1.6543
64612SOL     OW 5814   9.957   2.305   0.416  0.5465  0.0621  0.6002
64612SOL    HW1 5815   9.988   2.285   0.505  0.3099  1.5249  1.0381
64612SOL    HW2 5816   9.863   2.318   0.426  0.3356 -0.8356 -0.0802
64613SOL     OW 5817   7.937   3.471   4.513  0.0495 -0.0210 -0.0943
64613SOL    HW1 5818   7.993   3.534   4.467 -1.5808  1.4257 -0.2093
64613SOL    HW2 5819   7.856   3.520   4.531 -0.5643 -1.5301  1.4967
64614SOL     OW 5820  13.838   0.794  13.606  0.4816  0.2173  0.1149
64614SOL    HW1 5821  13.799   0.849  13.673  1.8367  0.0437  1.0957
64614SOL    HW2 5822  13.907   0.746  13.652  1.6547  0.3130 -1.4733
64615SOL     OW 5823  12.247   3.274  10.058  0.2467 -0.1143 -0.8894
64615SOL    HW1 5824  12.305   3.199  10.043 -0.0717 -0.7203  0.7616
64615SOL    HW2 5825  12.174   3.259   9.999 -1.4231 -2.9225  1.6299
64616SOL     OW 5826   6.595  10.444   7.135 -0.1024  1.1149 -0.0403
64616SOL    HW1 5827   6.515  10.485   7.101  0.5106 -0.1073 -3.2628
64616SOL    HW2 5828   6.666  10.490   7.090  0.8108 -0.3112 -0.1044
64617SOL     OW 5829   2.143   8.514  13.223  0.0671 -0.1301 -0.3928
64617SOL    HW1 5830   2.190   8.531  13.304  1.5057  1.4234 -1.4745
64617SOL    HW2 5831   2.069   8.459  13.249  0.6661  0.0351  1.8872
64618SOL     OW 5832   3.331   5.158   8.958  0.0907 -0.5859  0.0254
64618SOL    HW1 5833   3.249   5.200   8.931  0.4122  0.9322  1.2695
64618SOL    HW2 5834   3.393   5.230   8.969  1.9314 -1.7708 -1.8345
64619SOL     OW 5835   9.156  11.323   8.942 -0.0841 -0.1810  0.1404
64619SOL    HW1 5836   9.193  11.387   8.882 -0.5337 -0.8037 -0.8247
64619SOL    HW2 5837   9.092  11.373   8.994 -3.0900 -0.3945 -2.9727
64620SOL     OW 5838   6.406  13.952   3.470  0.2293  0.2864  0.3498
64620SOL    HW1 5839   6.412  13.906   3.387 -2.5932  1.0138 -0.3868
64620SOL    HW2 5840   6.480  14.013   3.470  0.9043 -0.4856 -1.1043
64621SOL     OW 5841   5.849   4.357  14.011 -0.1637 -0.3537  0.2528
64621SOL    HW1 5842   5.770   4.404  14.038 -0.0173 -0.2883  0.5776
64621SOL    HW2 5843   5.916   4.384  14.074 -0.0327 -0.8696  0.3442
64622SOL     OW 5844   1.662   5.057  10.643  0.1020 -0.2924  0.2051
64622SOL    HW1 5845   1.711   4.988  10.687  1.9684 -1.5832 -3.4833
64622SOL    HW2 5846   1.579   5.016  10.618 -0.5277  0.1274  1.5559
64623SOL     OW 5847   8.333   1.819   0.095 -0.0978  0.4102  0.0989
64623SOL    HW1 5848   8.372   1.853   0.014 -1.6535  1.9306 -0.0644
64623SOL    HW2 5849   8.280   1.745   0.066  1.3783 -0.6882  0.1136
64624SOL     OW 5850   8.994   7.255  10.566 -0.5037  0.3021 -0.4056
64624SOL    HW1 5851   9.036   7.209  10.639 -0.9234 -1.2678 -1.1081
64624SOL    HW2 5852   9.067   7.275  10.507 -0.1964  1.3603  0.3005
64625SOL     OW 5853  10.698   1.953   1.396  0.3583 -0.2055  0.0350
64625SOL    HW1 5854  10.630   2.018   1.379  0.1286 -0.0187  1.5179
64625SOL    HW2 5855  10.731   1.975   1.484  0.6230 -1.7824  0.3648
64626SOL     OW 5856   7.911   5.302  11.767 -0.4634  0.0823  0.3827
64626SOL    HW1 5857   7.892   5.221  11.815 -1.2855 -0.0251 -0.1174
64626SOL    HW2 5858   7.887   5.372  11.828  1.2173 -0.0017  1.2220
64627SOL     OW 5859   2.752   6.244  13.438  0.1480 -0.3588 -0.2939
64627SOL    HW1 5860   2.747   6.235  13.533  1.7275  0.3451 -0.1076
64627SOL    HW2 5861   2.830   6.297  13.423  0.2304 -0.8952 -2.0089
64628SOL     OW 5862   0.312   0.649   4.359 -0.1785 -0.2045 -0.0919
64628SOL    HW1 5863   0.319   0.664   4.265 -4.1789  0.7596 -0.4244
64628SOL    HW2 5864   0.240   0.586   4.368  0.8797 -1.2153  2.3552
64629SOL     OW 5865  13.559   0.403   3.370  0.4121  0.2112  0.1427
64629SOL    HW1 5866  13.573   0.339   3.440  1.2940 -0.3317 -0.5206
64629SOL    HW2 5867  13.646   0.437   3.350  0.3263 -0.4258 -1.4405
64630SOL     OW 5868  11.761   8.068   0.815  0.1257 -0.0027  0.5703
64630SOL    HW1 5869  11.843   8.087   0.769  0.1362  0.4468  0.7710
64630SOL    HW2 5870  11.694   8.118   0.768  0.1106  0.3317  0.9349
64631SOL     OW 5871   0.319   0.200   1.427 -0.0564  0.2115 -0.0359
64631SOL    HW1 5872   0.356   0.189   1.339  1.7735 -0.7933  0.8119
64631SOL    HW2 5873   0.251   0.133   1.433 -0.5282  0.6041 -0.8347
64632SOL     OW 5874   1.065   8.753   3.562 -0.0147  0.5990 -0.2255
64632SOL    HW1 5875   1.074   8.660   3.538  1.1621  0.5516  0.3436
64632SOL    HW2 5876   0.988   8.756   3.618  1.3219 -0.4866  1.7973
64633SOL     OW 5877  13.410  10.528  12.296  0.1146 -0.1239 -0.1102
64633SOL    HW1 5878  13.484  10.573  12.256  2.0377 -0.8575  2.3401
64633SOL    HW2 5879  13.391  10.455  12.237  0.2424  0.9925 -1.5888
64634SOL     OW 5880   8.130  13.105   0.505 -0.3171  0.6290  0.3605
64634SOL    HW1 5881   8.155  13.183   0.456 -0.9086  0.5160 -0.1374
64634SOL    HW2 5882   8.167  13.032   0.455  0.3958  0.5949  0.9266
64635SOL     OW 5883   4.921   5.484   5.815 -0.4461 -0.0462 -0.6476
64635SOL    HW1 5884   4.869   5.404   5.824 -0.0791 -0.4086 -1.6732
64635SOL    HW2 5885   4.988   5.462   5.750  0.3030  0.7667 -0.1667
64636SOL     OW 5886  11.892   3.536  13.630 -0.0671  0.0780 -0.1971
64636SOL    HW1 5887  11.908   3.443  13.643  0.9886  0.2644 -0.0476
64636SOL    HW2 5888  11.965   3.566  13.576  0.4699  1.1075  1.0206
64637SOL     OW 5889   1.150   7.103   0.045  0.1298  0.0258 -0.1114
64637SOL    HW1 5890   1.178   7.021   0.005 -1.2948  0.0435 -1.2272
64637SOL    HW2 5891   1.057   7.090   0.066  0.8903 -0.2323  3.9335
64638SOL     OW 5892  13.026   2.858   5.291  0.1387  0.2455  0.0108
64638SOL    HW1 5893  13.055   2.785   5.235  0.4191  0.6168 -0.3303
64638SOL    HW2 5894  13.048   2.829   5.380  2.1982  0.7693 -0.2698
64639SOL     OW 5895  11.305   9.270  13.464  0.5250 -0.2281  0.2782
64639SOL    HW1 5896  11.232   9.219  13.428  0.5259 -0.1333  0.1411
64639SOL    HW2 5897  11.309   9.348  13.409 -0.6941  0.8605  1.6485
64640SOL     OW 5898  12.048   7.988   8.170  0.4900 -0.3300  0.4000
64640SOL    HW1 5899  12.114   7.919   8.162  0.1682 -0.5525 -0.5184
64640SOL    HW2 5900  12.095   8.062   8.207  0.7813 -1.1209  1.6831
64641SOL     OW 5901  13.719   7.777   2.196 -0.0025 -0.2999 -1.0317
64641SOL    HW1 5902  13.685   7.729   2.272  0.3604  0.8300 -0.1157
64641SOL    HW2 5903  13.812   7.789   2.216  0.5459 -1.6624 -2.5869
64642SOL     OW 5904   5.390  10.418   1.139 -0.3699 -0.7500 -0.5272
64642SOL    HW1 5905   5.366  10.431   1.047 -0.3216  2.1207 -0.2149
64642SOL    HW2 5906   5.483  10.441   1.142 -0.3846 -0.7841  0.2483
64643SOL     OW 5907   6.646  10.690   9.606  0.1397 -0.2226 -0.2471
64643SOL    HW1 5908   6.642  10.696   9.702  2.0623 -1.2323 -0.0552
64643SOL    HW2 5909   6.645  10.596   9.588 -2.2141 -0.0473 -1.3908
64644SOL     OW 5910  12.966   1.933   3.017 -0.5551 -0.4910  0.2002
64644SOL    HW1 5911  13.017   1.896   3.089 -1.8456 -0.8667  0.9394
64644SOL    HW2 5912  12.908   1.997   3.058 -2.6824 -2.0809 -0.1534
64645SOL     OW 5913   2.226   7.933  12.616  0.2205  0.1559  0.1604
64645SOL    HW1 5914   2.248   7.986  12.693  2.9483 -0.1186 -0.3335
64645SOL    HW2 5915   2.184   7.855  12.653  0.2375  0.6495  1.2777
64646SOL     OW 5916   9.270   5.629   8.215 -0.0856  0.5993  0.0148
64646SOL    HW1 5917   9.305   5.577   8.143  0.6265  1.4419 -0.2682
64646SOL    HW2 5918   9.179   5.647   8.190 -0.4373 -0.7449  0.2653
64647SOL     OW 5919   4.453   6.926   6.982  0.4740  0.2993  0.0496
64647SOL    HW1 5920   4.513   6.877   6.926 -0.0624  0.6802 -0.8730
64647SOL    HW2 5921   4.461   6.884   7.068 -1.7915 -3.1364 -1.2109
64648SOL     OW 5922   7.115   5.889   7.190  0.2597 -0.1070  0.8396
64648SOL    HW1 5923   7.076   5.835   7.258  1.0418 -0.8445  0.7169
64648SOL    HW2 5924   7.198   5.846   7.170 -0.2773 -0.3377 -1.0894
64649SOL     OW 5925   6.211   0.101   1.434  0.4084 -0.1990  0.6540
64649SOL    HW1 5926   6.225   0.125   1.525 -1.1746 -1.1779  1.1922
64649SOL    HW2 5927   6.257   0.018   1.423 -1.3908 -1.3528  1.3053
64650SOL     OW 5928   5.985   4.385   7.180 -0.2116 -0.1682  0.1344
64650SOL    HW1 5929   5.941   4.308   7.216 -0.5464 -0.5661 -1.0707
64650SOL    HW2 5930   6.052   4.348   7.122  0.3920  0.4484  0.4316
64651SOL     OW 5931   4.509   6.166   9.423 -0.7918 -0.0208 -0.5658
64651SOL    HW1 5932   4.450   6.094   9.445 -2.1766  1.1114 -0.4248
64651SOL    HW2 5933   4.492   6.232   9.490 -0.9217  1.1803 -1.7400
64652SOL     OW 5934  12.654   1.165  13.976  0.5116 -0.2098  0.0315
64652SOL    HW1 5935  12.645   1.197  13.886  0.4346 -1.3602 -0.3885
64652SOL    HW2 5936  12.745   1.183  13.998  0.9278 -1.1618 -0.8040
64653SOL     OW 5937  13.941  11.757   9.288 -0.1323 -0.0064 -0.4533
64653SOL    HW1 5938  14.025  11.712   9.290  0.6703  1.4290 -0.4819
64653SOL    HW2 5939  13.936  11.796   9.201 -1.1923 -0.7232 -0.7272
64654SOL     OW 5940  10.490   2.795   6.648 -0.4539 -0.1385  0.3477
64654SOL    HW1 5941  10.456   2.747   6.723 -0.5288 -0.5479  0.0582
64654SOL    HW2 5942  10.412   2.833   6.606 -0.2710  1.4646  1.3903
64655SOL     OW 5943   9.843   4.504   3.961 -0.2535  0.0295 -0.2354
64655SOL    HW1 5944   9.898   4.500   4.039  0.5086 -2.4329 -0.8337
64655SOL    HW2 5945   9.880   4.576   3.909  1.7377 -0.8612 -0.1275
64656SOL     OW 5946   2.053   9.340   6.638  0.2676  0.5054  0.0952
64656SOL    HW1 5947   2.093   9.382   6.562 -1.3972 -0.1736 -1.2168
64656SOL    HW2 5948   2.015   9.413   6.688 -0.6812  0.8016 -1.0035
64657SOL     OW 5949   7.495   7.864   2.140  0.3380 -0.8253 -0.7002
64657SOL    HW1 5950   7.451   7.798   2.193  0.1266  0.1726  0.4279
64657SOL    HW2 5951   7.509   7.822   2.055  0.0351 -2.2304 -0.0861
64658SOL     OW 5952  11.866   2.259   0.092  0.0771 -0.0726  0.1624
64658SOL    HW1 5953  11.866   2.337   0.147  0.1980 -0.7346  1.1338
64658SOL    HW2 5954  11.779   2.258   0.051  0.6711  1.4928 -1.2548
64659SOL     OW 5955   8.501   6.448   2.150 -0.2922  0.4486 -0.4519
64659SOL    HW1 5956   8.499   6.447   2.054  0.5854  0.0575 -0.4770
64659SOL    HW2 5957   8.481   6.538   2.174  0.1087  0.6939 -1.0253
64660SOL     OW 5958  11.259  12.387   8.317 -0.1855  0.3154  0.1941
64660SOL    HW1 5959  11.314  12.412   8.391 -0.3144  1.9798 -0.2199
64660SOL    HW2 5960  11.269  12.459   8.255 -1.1499 -0.3824 -0.8106
64661SOL     OW 5961   4.716  12.588   8.473  0.1550 -0.6868 -0.0674
64661SOL    HW1 5962   4.683  12.528   8.406 -0.8780 -1.2181  0.8838
64661SOL    HW2 5963   4.664  12.568   8.551 -1.2880  2.4250 -0.0765
64662SOL     OW 5964  12.185  11.856   9.948 -0.1559 -0.1314 -0.5273
64662SOL    HW1 5965  12.117  11.921   9.933 -0.1639 -0.3548 -1.4851
64662SOL    HW2 5966  12.137  11.774   9.964 -0.1719  0.2137  1.4512
64663SOL     OW 5967   7.454   5.209  13.137 -0.0769 -0.0243 -0.4063
64663SOL    HW1 5968   7.488   5.123  13.112 -2.1511 -0.7446 -0.8941
64663SOL    HW2 5969   7.477   5.218  13.229 -1.2925 -1.8665  0.1224
64664SOL     OW 5970   6.275   2.458   3.311 -0.1395 -0.0812 -0.8757
64664SOL    HW1 5971   6.296   2.513   3.386 -1.4769  0.8052 -1.1266
64664SOL    HW2 5972   6.360   2.442   3.269  0.9403 -2.2430  1.8535
64665SOL     OW 5973   6.277   4.910  13.462 -0.0500 -0.4008 -0.0230
64665SOL    HW1 5974   6.220   4.950  13.397  0.6281  1.7899  0.6450
64665SOL    HW2 5975   6.230   4.832  13.490 -3.0513  1.5688  0.8891
64666SOL     OW 5976   2.534   0.803   3.217  0.1266  0.2588  0.3167
64666SOL    HW1 5977   2.626   0.817   3.238  0.2322  1.7846 -0.9364
64666SOL    HW2 5978   2.493   0.889   3.232 -0.8840 -0.1276 -0.1333
64667SOL     OW 5979   7.838   5.055   8.011 -0.0099  0.6975 -0.8694
64667SOL    HW1 5980   7.832   5.099   8.096  0.5991  1.7509 -1.3496
64667SOL    HW2 5981   7.752   5.067   7.972 -0.0737  0.8390 -0.6880
64668SOL     OW 5982   7.217   3.070   8.233 -0.4850 -0.3460  0.4037
64668SOL    HW1 5983   7.127   3.084   8.203 -0.9329 -0.7633  1.4700
64668SOL    HW2 5984   7.208   3.008   8.306  0.8420 -1.6799 -0.5218
64669SOL     OW 5985   5.417   0.756  13.260  0.1252  0.3149  0.0937
64669SOL    HW1 5986   5.380   0.701  13.329 -0.1478 -0.0058 -0.3071
64669SOL    HW2 5987   5.376   0.842  13.274  0.2650  0.3217  0.4824
64670SOL     OW 5988   5.228   1.956   4.241  0.4640 -0.3825 -0.7236
64670SOL    HW1 5989   5.141   1.960   4.280  0.9307 -1.0184  0.4290
64670SOL    HW2 5990   5.286   1.996   4.306  1.1366 -0.6721 -1.1321
64671SOL     OW 5991   6.019   0.488   3.883 -0.1810 -0.9830 -0.2253
64671SOL    HW1 5992   6.009   0.398   3.914 -0.5346 -0.7593  0.3172
64671SOL    HW2 5993   5.934   0.510   3.846 -0.8270 -0.0954  1.7063
64672SOL     OW 5994  10.955   4.187   2.562  0.6123  0.2496 -0.2047
64672SOL    HW1 5995  10.885   4.186   2.627  0.2842 -0.2240 -0.5559
64672SOL    HW2 5996  11.035   4.203   2.612  0.0626  2.6414 -0.0006
64673SOL     OW 5997   1.978   1.854   3.754 -0.3724  0.1374 -0.1433
64673SOL    HW1 5998   2.025   1.917   3.700 -1.1490  0.9348  0.0855
64673SOL    HW2 5999   1.894   1.897   3.773 -0.6380 -0.6808  0.5795
64674SOL     OW 6000  10.226   1.077  11.734 -0.1785  0.1749  0.1860
64674SOL    HW1 6001  10.167   1.032  11.795  0.1615  0.3634  0.6590
64674SOL    HW2 6002  10.171   1.097  11.658 -0.8477  0.7661  0.8092
64675SOL     OW 6003   5.208  13.878   4.514  0.3724  0.2634 -0.4978
64675SOL    HW1 6004   5.139  13.942   4.532 -0.6095 -0.5470 -1.2404
64675SOL    HW2 6005   5.251  13.864   4.598 -2.8228 -1.9991  0.9803
64676SOL     OW 6006   8.823  12.971   7.914 -0.0433 -0.3655 -0.1372
64676SOL    HW1 6007   8.827  12.879   7.888  0.5245 -0.5964  0.7342
64676SOL    HW2 6008   8.809  12.969   8.008 -1.4689  0.4617 -0.2925
64677SOL     OW 6009  13.342   3.060   0.734  0.3542 -0.3944 -0.5178
64677SOL    HW1 6010  13.302   3.122   0.795  2.3835 -0.4853  0.9884
64677SOL    HW2 6011  13.435   3.083   0.733  0.9051 -2.4223 -1.1026
64678SOL     OW 6012   7.537   9.698   4.908  0.4612 -0.0002  0.4121
64678SOL    HW1 6013   7.463   9.649   4.943  1.1643 -0.7448  0.9155
64678SOL    HW2 6014   7.539   9.677   4.815 -0.2672  0.4451  0.2930
64679SOL     OW 6015  10.948   7.971  11.337 -0.5983  0.9018 -0.0005
64679SOL    HW1 6016  10.867   7.969  11.286 -0.2821 -0.4812 -0.4913
64679SOL    HW2 6017  10.982   8.059  11.323 -1.3452  1.0737 -0.8819
64680SOL     OW 6018   4.556   2.086   4.713  0.4920  0.1598  0.6061
64680SOL    HW1 6019   4.633   2.055   4.665  1.2505 -0.1412  1.9663
64680SOL    HW2 6020   4.580   2.076   4.805 -0.2939  2.2281  1.0813
64681SOL     OW 6021  10.708   1.039   3.840  0.0468 -0.0935 -0.0638
64681SOL    HW1 6022  10.634   1.093   3.870 -0.4379 -0.6205 -0.3059
64681SOL    HW2 6023  10.783   1.075   3.887 -0.2843  0.7325 -0.1437
64682SOL     OW 6024   7.328  13.758   1.498  0.2814  0.2316  0.1614
64682SOL    HW1 6025   7.235  13.769   1.476  0.2324  1.8653  1.0366
64682SOL    HW2 6026   7.329  13.682   1.557 -0.5322  0.3258  0.3154
64683SOL     OW 6027   6.445  11.034   6.853  0.3508  0.8990 -0.4875
64683SOL    HW1 6028   6.444  11.120   6.810 -0.3479  0.0545 -2.2507
64683SOL    HW2 6029   6.360  10.996   6.832  0.0219  0.3529  1.5841
64684SOL     OW 6030  13.172   4.394  10.011  0.4596 -0.9809  0.5432
64684SOL    HW1 6031  13.234   4.424   9.944  2.9307 -3.1963  1.6459
64684SOL    HW2 6032  13.179   4.460  10.080  2.2111 -1.5119  0.9375
64685SOL     OW 6033  12.144   5.856   4.568 -0.1487  0.2007 -0.4726
64685SOL    HW1 6034  12.074   5.793   4.586 -2.5686  2.7007 -0.4614
64685SOL    HW2 6035  12.186   5.869   4.653 -0.3372 -0.5751 -0.2509
64686SOL     OW 6036   8.924   3.690   0.176  0.2075  0.1254  0.2668
64686SOL    HW1 6037   8.976   3.711   0.099 -0.1358  0.2065  0.0548
64686SOL    HW2 6038   8.868   3.618   0.148  0.5627 -0.3050  0.6465
64687SOL     OW 6039   7.973   7.630  13.606 -0.1881 -0.5523 -0.2470
64687SOL    HW1 6040   7.896   7.583  13.638  0.5716 -2.5016 -1.1474
64687SOL    HW2 6041   7.941   7.719  13.589 -1.7644 -0.8021  1.1440
64688SOL     OW 6042   3.112  11.337  13.162 -0.0519 -0.2945 -0.0749
64688SOL    HW1 6043   3.041  11.295  13.112 -0.6325  0.6333 -0.0446
64688SOL    HW2 6044   3.083  11.332  13.253  0.1705 -0.3756 -0.0077
64689SOL     OW 6045  13.935   8.757   5.227 -0.2651 -0.8016  0.0490
64689SOL    HW1 6046  13.863   8.773   5.166 -0.4998  0.5039  0.6222
64689SOL    HW2 6047  14.005   8.815   5.197 -0.0972 -0.7401  0.5480
64690SOL     OW 6048   5.716  12.812  12.092  0.6918 -0.6111 -0.1430
64690SOL    HW1 6049   5.665  12.744  12.049  0.1017 -0.5725  0.4706
64690SOL    HW2 6050   5.760  12.859  12.021  1.3704 -1.8271 -0.5448
64691SOL     OW 6051   0.111  13.161   8.329  0.9656 -0.4545  0.2567
64691SOL    HW1 6052   0.092  13.090   8.390  1.4790  0.1254  1.1112
64691SOL    HW2 6053   0.189  13.133   8.282  2.0405  0.1359  1.6133
64692SOL     OW 6054   9.758  10.266  13.347  0.1298  0.8228  0.4479
64692SOL    HW1 6055   9.714  10.350  13.336 -0.3385  0.5457  0.1738
64692SOL    HW2 6056   9.724  10.231  13.429 -1.7672 -0.3236 -0.7328
64693SOL     OW 6057   2.619  12.922   6.221 -0.0004 -0.6618  0.0724
64693SOL    HW1 6058   2.688  12.958   6.165  1.2870 -1.4001  1.1079
64693SOL    HW2 6059   2.596  12.839   6.180  0.3924 -0.8403  0.2045
64694SOL     OW 6060  13.231   7.338  12.576  0.7399 -0.6040 -0.0923
64694SOL    HW1 6061  13.302   7.351  12.639  0.9763 -2.9129  0.2244
64694SOL    HW2 6062  13.161   7.297  12.628 -0.4406  0.6806 -0.6221
64695SOL     OW 6063   6.072  11.715  12.123  0.1179 -0.0736 -0.6053
64695SOL    HW1 6064   6.032  11.744  12.205  0.2803  1.1349 -0.9424
64695SOL    HW2 6065   6.122  11.637  12.148 -0.5117 -0.2173  0.2762
64696SOL     OW 6066  11.049   6.665  10.712 -0.1185  0.8076 -0.9329
64696SOL    HW1 6067  10.990   6.691  10.642 -0.3858  1.3312 -0.5184
64696SOL    HW2 6068  11.023   6.718  10.787  0.2633  0.3677 -0.4776
64697SOL     OW 6069   0.743   7.829  11.210  0.5042 -0.1924 -0.9482
64697SOL    HW1 6070   0.801   7.756  11.232  0.2194 -0.9603 -2.5867
64697SOL    HW2 6071   0.671   7.822  11.272  1.6684  0.2205  0.5193
64698SOL     OW 6072   3.618   1.604   1.019 -0.2433 -0.0518 -0.5067
64698SOL    HW1 6073   3.610   1.680   1.077  2.3303 -0.3008  0.2693
64698SOL    HW2 6074   3.622   1.642   0.931 -1.0212  0.5427 -0.3025
64699SOL     OW 6075   3.060  13.646   2.566  0.1463  0.0856  0.7297
64699SOL    HW1 6076   3.050  13.735   2.599  1.1232  0.6801 -0.4691
64699SOL    HW2 6077   3.094  13.657   2.477  0.1432 -1.4816  0.4967
64700SOL     OW 6078   9.010   7.195   4.769  0.3118 -0.7700  0.1059
64700SOL    HW1 6079   8.944   7.150   4.822  1.7272 -0.9217  1.8205
64700SOL    HW2 6080   9.058   7.125   4.726  0.3807 -0.7355  0.1267
64701SOL     OW 6081  11.954   4.614   6.617  0.4687 -0.0798  0.0494
64701SOL    HW1 6082  11.925   4.704   6.599  1.9068 -0.0419 -2.5097
64701SOL    HW2 6083  12.048   4.623   6.636  0.6732 -1.0360 -0.4579
64702SOL     OW 6084   8.051   8.144   7.752 -0.3671 -0.1053 -0.6583
64702SOL    HW1 6085   7.971   8.191   7.728 -0.8093 -0.6999 -0.3502
64702SOL    HW2 6086   8.023   8.055   7.771  0.0359  0.1420  1.4107
64703SOL     OW 6087   5.126   2.135   1.778  0.1873 -0.0398 -0.5624
64703SOL    HW1 6088   5.107   2.182   1.697 -0.2427 -0.1427 -0.5232
64703SOL    HW2 6089   5.200   2.182   1.816 -0.1922  0.5668 -0.5561
64704SOL     OW 6090  11.570  12.219  10.570  0.0194 -0.1283 -0.1069
64704SOL    HW1 6091  11.476  12.215  10.591 -0.0399 -1.2174 -0.4990
64704SOL    HW2 6092  11.612  12.180  10.646  0.2877  1.6121  0.6879
64705SOL     OW 6093   4.617  10.798   3.564  0.1732  0.1488  0.6974
64705SOL    HW1 6094   4.659  10.770   3.645  1.9338  0.2207 -0.1424
64705SOL    HW2 6095   4.667  10.875   3.536 -1.1683  0.8651  0.1512
64706SOL     OW 6096  12.036   5.072   6.514  0.0468  0.4752 -0.4531
64706SOL    HW1 6097  12.081   5.065   6.598  0.3570  1.3305 -0.5332
64706SOL    HW2 6098  12.067   5.155   6.477 -1.4934  1.0385 -0.5714
64707SOL     OW 6099   2.016  13.388   2.223 -0.5081  0.2613  0.1661
64707SOL    HW1 6100   1.929  13.378   2.262 -0.9492 -0.1498 -0.9010
64707SOL    HW2 6101   2.014  13.475   2.183 -1.0361 -0.4069 -1.3156
64708SOL     OW 6102   8.390  11.328   4.106 -1.1903 -0.5890  0.1781
64708SOL    HW1 6103   8.462  11.349   4.047 -0.3507 -2.4290  0.4784
64708SOL    HW2 6104   8.331  11.402   4.099  0.3145  0.5842 -0.7300
64709SOL     OW 6105   8.317   7.852   7.047  0.9303  0.0820  0.1860
64709SOL    HW1 6106   8.368   7.821   6.972  1.7325  0.9724  0.3468
64709SOL    HW2 6107   8.353   7.805   7.122  0.0147 -0.9348  0.0021
64710SOL     OW 6108   3.865   1.084   4.420  0.4382  0.0615  0.1003
64710SOL    HW1 6109   3.854   0.998   4.461  0.3288  1.8773  4.3232
64710SOL    HW2 6110   3.959   1.098   4.419  0.4784 -0.1805 -0.9223
64711SOL     OW 6111   2.684  12.406   7.062  0.2558 -0.5790 -0.1646
64711SOL    HW1 6112   2.761  12.404   7.004 -0.7937  0.6993 -1.7006
64711SOL    HW2 6113   2.686  12.494   7.100 -0.0568 -0.7898  0.3350
64712SOL     OW 6114   3.342   0.999   3.638  0.9671  0.4828 -0.2176
64712SOL    HW1 6115   3.249   0.979   3.630  0.5436  1.3761  1.7816
64712SOL    HW2 6116   3.386   0.922   3.601 -0.5459 -0.0240 -1.0634
64713SOL     OW 6117   2.312  10.213   3.355  0.1515  0.1756  0.2258
64713SOL    HW1 6118   2.242  10.149   3.342  0.8027 -0.1650 -1.9102
64713SOL    HW2 6119   2.273  10.280   3.411 -1.9677  0.1625 -1.1416
64714SOL     OW 6120   3.973   4.649   6.704  0.5448 -0.3174  0.0636
64714SOL    HW1 6121   4.003   4.724   6.755  0.2062 -1.0571  1.3948
64714SOL    HW2 6122   4.043   4.633   6.641  0.8768  0.7623  0.1420
64715SOL     OW 6123   3.511   9.221   8.459 -0.0855  0.0693  0.7314
64715SOL    HW1 6124   3.603   9.242   8.446  0.3828 -1.4020  1.4514
64715SOL    HW2 6125   3.479   9.199   8.371  0.6276 -0.7453  0.6576
64716SOL     OW 6126   3.965   7.662   0.916 -0.1764 -0.3375 -0.0762
64716SOL    HW1 6127   4.018   7.711   0.853 -0.8694  0.2228 -0.2354
64716SOL    HW2 6128   3.887   7.716   0.929  0.3172 -0.0568  1.9061
64717SOL     OW 6129   0.622   8.039   7.441  0.0396 -0.1570 -0.1717
64717SOL    HW1 6130   0.630   8.127   7.478  0.3261  0.3427 -1.3673
64717SOL    HW2 6131   0.549   8.046   7.379  0.6563 -0.4974 -0.9577
64718SOL     OW 6132   7.883  12.202   8.544  0.2604  0.4934  0.2414
64718SOL    HW1 6133   7.799  12.219   8.503  1.1131  1.0123 -1.3614
64718SOL    HW2 6134   7.879  12.250   8.627 -0.5178  1.6595 -0.4396
64719SOL     OW 6135  12.677   8.006   0.102  0.3270 -0.0801  0.4181
64719SOL    HW1 6136  12.722   8.013   0.018 -0.2094 -0.1654  0.1186
64719SOL    HW2 6137  12.704   7.921   0.137  1.9375  0.6924  1.1638
64720SOL     OW 6138   8.055   0.714  11.382 -0.1697 -0.3360 -0.2709
64720SOL    HW1 6139   8.084   0.714  11.473  0.8355  0.0345 -0.5879
64720SOL    HW2 6140   8.120   0.662  11.336 -1.5661 -1.9640 -0.5227
64721SOL     OW 6141  10.107  12.936   7.067 -0.3965  0.5011 -0.1988
64721SOL    HW1 6142  10.079  12.914   7.156 -0.5546  1.2972 -0.0468
64721SOL    HW2 6143  10.200  12.913   7.065 -0.4827  0.1284  0.0517
64722SOL     OW 6144  10.830  12.407   1.382  0.1742 -0.1913  0.5509
64722SOL    HW1 6145  10.880  12.482   1.349 -1.7114  1.5379  1.3675
64722SOL    HW2 6146  10.874  12.383   1.464  0.1051  0.8832  0.9240
64723SOL     OW 6147   2.762  12.970   4.691 -0.1851  0.1382  0.2547
64723SOL    HW1 6148   2.719  13.047   4.728  0.8176  1.0342 -0.4071
64723SOL    HW2 6149   2.831  13.005   4.635  1.0135 -1.2407  0.7886
64724SOL     OW 6150   3.739   0.876  11.371 -0.0663 -0.8814  0.9111
64724SOL    HW1 6151   3.791   0.820  11.428 -0.2433 -0.8825  1.0727
64724SOL    HW2 6152   3.802   0.915  11.312  0.1921 -0.4710  1.4486
64725SOL     OW 6153  10.515   2.634   9.733  0.7736  0.5015 -0.1834
64725SOL    HW1 6154  10.463   2.600   9.660  0.2204  1.9529 -0.5051
64725SOL    HW2 6155  10.455   2.691   9.781  1.1545 -0.3565  1.3812
64726SOL     OW 6156   5.033   4.344   3.997 -0.4175 -0.3853  0.3092
64726SOL    HW1 6157   5.025   4.366   4.090 -3.0867  2.1783 -0.4110
64726SOL    HW2 6158   4.970   4.273   3.984 -1.0531  0.1829  0.2291
64727SOL     OW 6159   7.773  13.081   9.208  0.6381  0.0360 -0.0170
64727SOL    HW1 6160   7.717  13.004   9.200 -0.6408  0.7422  1.5779
64727SOL    HW2 6161   7.825  13.065   9.286  0.7016  0.5736  0.0540
64728SOL     OW 6162   5.806  11.837   0.399  0.4873  0.0697 -0.1326
64728SOL    HW1 6163   5.806  11.883   0.483  2.8041  0.2157 -0.1552
64728SOL    HW2 6164   5.765  11.898   0.339 -1.0001  0.0570  0.8210
64729SOL     OW 6165   7.183   5.508   9.030  0.1145 -0.0826 -0.2192
64729SOL    HW1 6166   7.139   5.547   9.105 -0.0370 -1.3144  0.3536
64729SOL    HW2 6167   7.113   5.483   8.970  0.2217  0.6642 -0.6762
64730SOL     OW 6168   3.123   0.969  12.609 -0.4124 -0.9085 -0.2258
64730SOL    HW1 6169   3.059   0.900  12.628 -0.7966 -0.8020 -1.0934
64730SOL    HW2 6170   3.112   0.987  12.515 -1.6498  1.6311  0.3082
64731SOL     OW 6171   6.335   2.664  13.457  0.7739  0.0205  0.3708
64731SOL    HW1 6172   6.349   2.718  13.379  0.3358 -1.6627 -0.9248
64731SOL    HW2 6173   6.360   2.576  13.430 -2.2218 -1.1802  1.1674
64732SOL     OW 6174  10.546   4.542   2.207 -0.7929 -0.0420  0.3706
64732SOL    HW1 6175  10.493   4.562   2.284 -1.9264  0.6404 -0.5412
64732SOL    HW2 6176  10.483   4.508   2.143  0.3278 -1.8609  0.1715
64733SOL     OW 6177  11.389  13.212   4.333  0.1966 -0.0386  0.1808
64733SOL    HW1 6178  11.387  13.117   4.349  0.6465 -0.2240 -0.7740
64733SOL    HW2 6179  11.302  13.232   4.301  0.0219 -0.0810  0.6188
64734SOL     OW 6180   7.685   9.471   3.130  0.2965  0.1898  0.3323
64734SOL    HW1 6181   7.760   9.487   3.188 -1.1092  0.5260  2.1769
64734SOL    HW2 6182   7.653   9.558   3.108 -0.2368  0.0464  0.5240
64735SOL     OW 6183   1.570   3.885   9.177  0.0396  0.3245  0.4536
64735SOL    HW1 6184   1.555   3.834   9.257  0.9572  1.1878  1.2088
64735SOL    HW2 6185   1.648   3.846   9.138  0.4099  0.7842  0.7299
64736SOL     OW 6186   1.792   1.164   9.859 -0.3025 -0.0531  0.0657
64736SOL    HW1 6187   1.884   1.190   9.855  0.0475 -1.4254 -1.6837
64736SOL    HW2 6188   1.750   1.234   9.910  1.0653  2.5428 -2.0926
64737SOL     OW 6189   4.867  10.878  11.978  0.0096  0.0810 -0.1102
64737SOL    HW1 6190   4.804  10.949  11.965 -0.4119 -0.3064 -0.2439
64737SOL    HW2 6191   4.951  10.914  11.949 -0.2750  0.3853 -0.5765
64738SOL     OW 6192   7.324  12.291   4.272  0.1988 -0.1290 -0.3338
64738SOL    HW1 6193   7.354  12.321   4.186 -1.0057  0.3817 -0.6010
64738SOL    HW2 6194   7.229  12.304   4.270  0.0658 -0.7845  0.8178
64739SOL     OW 6195   4.328   1.053   0.530 -0.8849  0.5486 -0.4207
64739SOL    HW1 6196   4.306   1.023   0.442  0.3175 -0.5902 -0.3791
64739SOL    HW2 6197   4.318   0.975   0.585  0.1885  0.7525  0.1026
64740SOL     OW 6198   0.126   7.462   6.143  0.5055  0.3971 -0.5316
64740SOL    HW1 6199   0.127   7.513   6.224 -1.8165  0.7499 -0.6719
64740SOL    HW2 6200   0.109   7.372   6.171 -0.2406  0.5100 -0.6090
64741SOL     OW 6201  13.177   9.642   4.951 -0.4624 -0.4055  0.3134
64741SOL    HW1 6202  13.100   9.603   4.910  0.3494 -2.8584  0.9851
64741SOL    HW2 6203  13.224   9.683   4.878  0.0153 -3.0649 -0.9844
64742SOL     OW 6204   3.891  10.320   2.962  0.0273  0.9047 -0.9133
64742SOL    HW1 6205   3.830  10.393   2.975 -1.1287 -0.3126  1.0035
64742SOL    HW2 6206   3.836  10.243   2.952  1.2434  0.1200 -1.8806
64743SOL     OW 6207  13.156   4.962   1.782 -0.2766  0.1386  0.4842
64743SOL    HW1 6208  13.088   4.895   1.769  0.6369 -0.8826  0.8522
64743SOL    HW2 6209  13.223   4.941   1.717  0.9217 -0.5170  1.8818
64744SOL     OW 6210   4.668   0.188   7.048 -0.3315  0.3017  0.0725
64744SOL    HW1 6211   4.741   0.243   7.020 -0.5025 -0.4922 -2.1709
64744SOL    HW2 6212   4.708   0.120   7.102  0.0145  1.9753  2.0141
64745SOL     OW 6213   6.490   1.540   2.783  0.0099 -0.0931 -0.6978
64745SOL    HW1 6214   6.532   1.612   2.830  1.4066 -0.3380 -1.5211
64745SOL    HW2 6215   6.397   1.547   2.807  0.2497  1.4434 -0.0907
64746SOL     OW 6216   8.170   4.268   3.618  0.1472  0.3045 -0.4115
64746SOL    HW1 6217   8.264   4.261   3.604  0.0118  0.0259 -1.2110
64746SOL    HW2 6218   8.154   4.363   3.623  0.5749  0.3380  0.5616
64747SOL     OW 6219   3.872   5.983   2.098  0.5678  0.0854  0.5745
64747SOL    HW1 6220   3.967   5.984   2.098  0.5888  1.6887  1.6761
64747SOL    HW2 6221   3.848   5.984   2.191 -0.4860  2.0831  0.3349
64748SOL     OW 6222  13.626  13.553   3.940 -0.2848 -0.4633  0.3666
64748SOL    HW1 6223  13.618  13.466   3.978  0.0394 -1.0220 -0.8071
64748SOL    HW2 6224  13.594  13.543   3.850 -2.2262  1.0954  0.8112
64749SOL     OW 6225   8.331  11.746   2.568 -0.3201 -0.0967  0.3270
64749SOL    HW1 6226   8.365  11.744   2.657  0.0171 -1.5036  0.1981
64749SOL    HW2 6227   8.305  11.837   2.553  1.9458  0.7177  0.9856
64750SOL     OW 6228  12.539   2.671   8.624 -0.0959  0.3070 -0.6761
64750SOL    HW1 6229  12.473   2.635   8.565  0.8416 -1.2852 -0.8166
64750SOL    HW2 6230  12.489   2.707   8.697 -1.1405 -0.4010 -1.0206
64751SOL     OW 6231   0.468   7.670  10.391  0.4047 -0.9078  0.2539
64751SOL    HW1 6232   0.451   7.659  10.297  1.3042 -1.7405  0.1739
64751SOL    HW2 6233   0.483   7.581  10.423 -1.6773 -0.8478  1.5740
64752SOL     OW 6234  12.135   5.994  13.667 -0.1163  0.2572  0.0742
64752SOL    HW1 6235  12.203   5.932  13.640  0.1836  0.7941 -0.4225
64752SOL    HW2 6236  12.170   6.036  13.746  0.4828  1.0768 -0.6034
64753SOL     OW 6237   8.159   7.932   8.476 -0.3849  0.4992  0.0311
64753SOL    HW1 6238   8.189   8.023   8.465 -2.2471  1.4446  1.9372
64753SOL    HW2 6239   8.189   7.908   8.564 -2.9385  0.6493  1.0274
64754SOL     OW 6240   2.119   2.707   1.978  0.1753  0.1133  0.2466
64754SOL    HW1 6241   2.093   2.618   2.000  0.9347 -0.1989 -0.1017
64754SOL    HW2 6242   2.106   2.757   2.059  1.1624 -0.6195  0.8701
64755SOL     OW 6243   4.955   2.596   2.398  0.5429  0.6408  0.1310
64755SOL    HW1 6244   4.943   2.614   2.491  0.4392 -1.3621  0.5512
64755SOL    HW2 6245   5.049   2.580   2.389  0.6409  1.3741 -0.2371
64756SOL     OW 6246   9.602  11.156   4.485 -0.5965  0.0676 -0.1853
64756SOL    HW1 6247   9.661  11.086   4.510 -0.4087  0.0517 -0.6682
64756SOL    HW2 6248   9.644  11.236   4.518  0.1451  0.1573 -1.2714
64757SOL     OW 6249   8.247   5.218   3.337  0.1562  0.3655 -0.0658
64757SOL    HW1 6250   8.206   5.289   3.288  0.5052  0.1269 -0.7237
64757SOL    HW2 6251   8.191   5.142   3.319  0.1930  0.3120  0.0452
64758SOL     OW 6252   6.082   5.058   5.898 -0.2911  0.1057  0.4320
64758SOL    HW1 6253   6.101   5.098   5.813  0.9786 -0.4597  0.4301
64758SOL    HW2 6254   6.112   5.123   5.961  1.2305 -0.5593  0.4286
64759SOL     OW 6255  11.290  13.217   3.108 -0.1732 -0.1918 -0.4114
64759SOL    HW1 6256  11.345  13.143   3.132 -2.2463 -1.1022  2.0496
64759SOL    HW2 6257  11.340  13.294   3.136  0.9598 -0.7947 -0.7262
64760SOL     OW 6258   8.228  11.574  13.757  0.3167  0.4635 -0.2992
64760SOL    HW1 6259   8.213  11.485  13.789 -0.6244  0.1403 -1.5610
64760SOL    HW2 6260   8.297  11.565  13.691  0.3726  0.6978 -0.2748
64761SOL     OW 6261  13.788   9.359   0.509 -0.4985  0.0713  0.3311
64761SOL    HW1 6262  13.831   9.417   0.446  0.3265  0.7950  1.5336
64761SOL    HW2 6263  13.698   9.351   0.476 -0.0612  0.3488 -0.9883
64762SOL     OW 6264  13.806  12.046  13.411 -0.4706  0.1853 -0.8635
64762SOL    HW1 6265  13.720  12.076  13.439 -1.2253 -0.2210 -2.6444
64762SOL    HW2 6266  13.796  11.952  13.395  0.5240 -0.0318 -0.3263
64763SOL     OW 6267  10.672   5.269   8.791 -0.5277  0.1353 -0.1748
64763SOL    HW1 6268  10.643   5.351   8.831 -0.4642 -0.1604  0.4741
64763SOL    HW2 6269  10.767   5.269   8.803 -0.2525  0.8931 -1.9136
64764SOL     OW 6270   7.520   0.017   7.470 -0.7441  0.3105  0.4522
64764SOL    HW1 6271   7.519  -0.051   7.403  1.5558 -1.3196  1.8989
64764SOL    HW2 6272   7.467  -0.019   7.541 -0.2954  0.4428  0.8580
64765SOL     OW 6273   5.212  12.501  10.167  0.4206  0.0396 -0.7123
64765SOL    HW1 6274   5.157  12.574  10.139  0.3841  0.2384 -0.1544
64765SOL    HW2 6275   5.163  12.423  10.144 -0.8676  0.2169  1.1972
64766SOL     OW 6276  12.739  12.490   3.270  0.1660  0.0242 -0.0842
64766SOL    HW1 6277  12.818  12.544   3.273  0.9730 -1.1788  1.3334
64766SOL    HW2 6278  12.741  12.450   3.183 -0.4341  2.1896 -1.1557
64767SOL     OW 6279   2.258   3.050   6.323 -0.1397  0.2306  0.2795
64767SOL    HW1 6280   2.166   3.053   6.347 -0.2651  0.4411 -0.2300
64767SOL    HW2 6281   2.265   2.975   6.265 -0.0887  0.5345 -0.1072
64768SOL     OW 6282   6.221   9.605  10.136  0.0885 -0.0493 -0.5508
64768SOL    HW1 6283   6.202   9.631  10.046  0.8247 -2.3975 -1.4571
64768SOL    HW2 6284   6.188   9.677  10.189 -0.1424  1.5222 -2.6982
64769SOL     OW 6285  10.151   9.645   1.360  0.2503 -0.2022 -0.4066
64769SOL    HW1 6286  10.088   9.581   1.393  0.6655 -1.6125 -2.1519
64769SOL    HW2 6287  10.222   9.645   1.425 -0.0439 -1.0775 -0.0660
64770SOL     OW 6288  10.897   7.489   6.011  0.2848  0.3568  0.1485
64770SOL    HW1 6289  10.863   7.455   6.093  0.5327 -1.0995 -0.3172
64770SOL    HW2 6290  10.961   7.555   6.036  1.6352 -1.2825  1.1950
64771SOL     OW 6291   4.018   0.635  10.848  0.3239  0.0349 -0.0297
64771SOL    HW1 6292   3.991   0.576  10.777  0.8642 -1.0286  0.6159
64771SOL    HW2 6293   4.068   0.703  10.804 -1.0352  0.5226 -0.9025
64772SOL     OW 6294  13.822   1.536   3.405 -0.0856  0.2974 -0.2653
64772SOL    HW1 6295  13.819   1.513   3.312 -0.0719  1.1153 -0.4783
64772SOL    HW2 6296  13.784   1.461   3.450  0.2912 -0.2821 -0.9007
64773SOL     OW 6297   5.397   8.519   1.537  0.1757 -0.3587 -0.4853
64773SOL    HW1 6298   5.450   8.457   1.587  2.0846  1.1558 -0.4879
64773SOL    HW2 6299   5.450   8.539   1.460  0.4177  2.3962  0.2806
64774SOL     OW 6300   4.160   4.484   2.204  0.5127  0.3271  0.1673
64774SOL    HW1 6301   4.083   4.458   2.255  0.2346  1.1925  0.2073
64774SOL    HW2 6302   4.234   4.449   2.253  0.1932  0.2556  0.6074
64775SOL     OW 6303   6.894  11.241  13.834 -0.6909 -0.1231 -0.4685
64775SOL    HW1 6304   6.921  11.182  13.904 -1.4205  1.2910  1.0531
64775SOL    HW2 6305   6.935  11.325  13.855 -1.3741  0.4790 -1.4343
64776SOL     OW 6306   3.964  11.114  13.242 -0.5508 -0.3112 -0.3567
64776SOL    HW1 6307   3.870  11.132  13.237 -0.9497 -2.4045 -1.4111
64776SOL    HW2 6308   3.973  11.055  13.316  0.3144  1.6307  1.1806
64777SOL     OW 6309  11.347   3.927   8.580  0.0512  0.6177 -0.4159
64777SOL    HW1 6310  11.434   3.899   8.552 -0.7705 -2.6715 -0.0683
64777SOL    HW2 6311  11.341   3.898   8.672 -0.7759  2.4809  0.1665
64778SOL     OW 6312   9.439   1.046   6.324 -0.2179 -0.2397 -0.3866
64778SOL    HW1 6313   9.374   1.094   6.273  1.2306  1.2708 -0.8917
64778SOL    HW2 6314   9.491   1.000   6.258  1.3690  1.3476 -0.2986
64779SOL     OW 6315  11.371   6.615   6.735 -0.5053  0.4580  0.2281
64779SOL    HW1 6316  11.445   6.667   6.767 -0.7859  1.1336 -0.2119
64779SOL    HW2 6317  11.308   6.679   6.702 -0.9768 -0.1455 -0.0706
64780SOL     OW 6318   4.089  11.477   6.913  0.0990 -0.1996 -0.5017
64780SOL    HW1 6319   4.066  11.569   6.925 -1.3096 -0.6842  0.8881
64780SOL    HW2 6320   4.130  11.452   6.996 -1.3066 -1.2899 -0.0951
64781SOL     OW 6321   7.716   6.099   0.163  0.2892  0.1756  0.0820
64781SOL    HW1 6322   7.666   6.175   0.135 -1.5112 -1.1094 -0.4253
64781SOL    HW2 6323   7.807   6.129   0.167 -0.2935  2.1728 -0.6348
64782SOL     OW 6324   9.667   6.223   9.047  0.2053 -0.0768  0.2290
64782SOL    HW1 6325   9.599   6.264   8.993 -0.4259 -0.2259  0.9039
64782SOL    HW2 6326   9.718   6.297   9.081 -0.3499  0.1074  0.6744
64783SOL     OW 6327  13.487   5.261  13.394  0.0877  0.7212 -0.7082
64783SOL    HW1 6328  13.420   5.227  13.454 -0.8269 -0.3784 -2.2899
64783SOL    HW2 6329  13.498   5.353  13.419 -2.2193  1.0072 -0.6013
64784SOL     OW 6330   3.590   3.198   0.198  0.1592  0.6541 -0.3691
64784SOL    HW1 6331   3.579   3.264   0.130  0.7556  0.6456 -0.4830
64784SOL    HW2 6332   3.535   3.227   0.270 -0.3431  0.7546 -0.7905
64785SOL     OW 6333   7.106   3.878   9.236  0.2967  0.1561  0.2436
64785SOL    HW1 6334   7.159   3.819   9.290  0.6276  0.2114 -0.0110
64785SOL    HW2 6335   7.021   3.835   9.229  0.1975  0.2340  0.9491
64786SOL     OW 6336  13.269   8.264   7.454  0.6286 -0.0408  0.1856
64786SOL    HW1 6337  13.191   8.307   7.489  0.1600 -0.3289 -0.5003
64786SOL    HW2 6338  13.341   8.300   7.506  0.1668  1.0589  0.0793
64787SOL     OW 6339  10.311   2.296   8.365  0.7194  0.1979  0.3489
64787SOL    HW1 6340  10.272   2.381   8.342  2.0101  0.3254 -1.6374
64787SOL    HW2 6341  10.403   2.317   8.385  1.5780 -0.8668 -2.0591
64788SOL     OW 6342   1.373  12.401   8.256  0.3893 -0.2095  0.0568
64788SOL    HW1 6343   1.327  12.474   8.297  0.0030 -0.8962  0.8779
64788SOL    HW2 6344   1.303  12.348   8.217  0.6068 -0.4852  0.0379
64789SOL     OW 6345   2.313   8.324   5.134 -0.0531  0.0367 -0.3625
64789SOL    HW1 6346   2.286   8.234   5.113 -1.3524  0.0025  1.2579
64789SOL    HW2 6347   2.405   8.316   5.159 -0.0088 -0.7545 -0.7415
64790SOL     OW 6348   6.393  13.618   5.656  0.1819 -0.1884  0.4743
64790SOL    HW1 6349   6.390  13.534   5.611 -1.1445  0.3877 -0.6068
64790SOL    HW2 6350   6.341  13.677   5.600  0.2179  1.0853  1.7167
64791SOL     OW 6351   6.559   5.890  10.510  0.4638  0.4932 -0.4535
64791SOL    HW1 6352   6.491   5.948  10.544 -0.7153 -0.3495 -1.2800
64791SOL    HW2 6353   6.572   5.826  10.581  0.7118  0.9131 -0.1189
64792SOL     OW 6354  13.079   4.316   5.878  0.5321 -0.0438  0.4848
64792SOL    HW1 6355  13.108   4.407   5.878 -1.2584  0.5649  0.2209
64792SOL    HW2 6356  13.085   4.289   5.786  1.7659 -0.4490  0.6728
64793SOL     OW 6357   9.807   6.085   6.732 -0.5448 -0.0171  0.1227
64793SOL    HW1 6358   9.786   5.992   6.734  2.0814 -0.6837  1.3184
64793SOL    HW2 6359   9.777   6.115   6.646  0.3503 -2.4557 -1.1411
64794SOL     OW 6360   3.937  10.561  13.376 -0.2872 -0.3941  0.4615
64794SOL    HW1 6361   3.875  10.632  13.363  1.1546  0.7829 -0.2606
64794SOL    HW2 6362   3.899  10.488  13.327 -2.1306 -0.4003  1.7755
64795SOL     OW 6363  10.720   4.072   9.656 -1.2077  0.2312 -0.5225
64795SOL    HW1 6364  10.803   4.118   9.658 -0.8229 -0.4635  0.0843
64795SOL    HW2 6365  10.664   4.125   9.599 -0.0559  0.2061 -1.7073
64796SOL     OW 6366   2.131   4.175  10.384  0.2097  0.3722  0.0297
64796SOL    HW1 6367   2.127   4.223  10.467  0.3394 -1.3464  1.0838
64796SOL    HW2 6368   2.047   4.192  10.341 -0.5681 -0.0551  1.3237
64797SOL     OW 6369   7.807  11.058   0.873 -0.2519  0.0137 -0.4362
64797SOL    HW1 6370   7.892  11.066   0.830 -0.1774 -2.2640 -0.8705
64797SOL    HW2 6371   7.810  11.120   0.945  1.6100  0.2917 -0.7037
64798SOL     OW 6372   4.113   7.136   5.895  0.3137 -0.3265 -0.3108
64798SOL    HW1 6373   4.062   7.055   5.889  0.3980 -0.4458  0.4169
64798SOL    HW2 6374   4.118   7.154   5.989  0.2946  0.5293 -0.4618
64799SOL     OW 6375   9.827   7.674  11.451  0.5981  0.6109  0.0845
64799SOL    HW1 6376   9.851   7.647  11.363  0.8315  0.6578  0.1346
64799SOL    HW2 6377   9.771   7.751  11.438 -0.5579 -0.2206 -0.0826
64800SOL     OW 6378   8.232   0.866   0.278 -0.4993  0.2584 -0.2724
64800SOL    HW1 6379   8.239   0.777   0.312 -2.3590  0.4372  0.6999
64800SOL    HW2 6380   8.322   0.890   0.254  0.1651 -1.5367  0.2995
64801SOL     OW 6381   1.547   0.382  10.362  0.2189 -0.3376 -0.1456
64801SOL    HW1 6382   1.601   0.461  10.372  0.6009 -0.6713  0.4660
64801SOL    HW2 6383   1.463   0.406  10.402 -0.3641  0.4214 -1.7159
64802SOL     OW 6384   8.093   2.533   3.911  0.4616  0.5275 -0.1148
64802SOL    HW1 6385   8.092   2.560   4.003  1.3673 -0.2872  0.1525
64802SOL    HW2 6386   8.102   2.438   3.914 -1.8602  0.2372 -1.0472
64803SOL     OW 6387   3.398   6.501   4.015 -0.2985 -0.2443 -0.3206
64803SOL    HW1 6388   3.444   6.433   4.065 -0.3600 -1.3236 -1.6974
64803SOL    HW2 6389   3.455   6.519   3.941 -1.4452 -0.6152 -1.3120
64804SOL     OW 6390  10.714   6.176  10.130 -0.1637 -0.0259 -0.0148
64804SOL    HW1 6391  10.636   6.178  10.074 -0.1265 -0.9405 -0.1192
64804SOL    HW2 6392  10.735   6.083  10.138 -0.2269  0.0744  1.5993
64805SOL     OW 6393   2.325   0.234   1.006  0.5059  0.0089 -0.5326
64805SOL    HW1 6394   2.348   0.142   0.994 -2.7787 -0.8930 -0.8881
64805SOL    HW2 6395   2.318   0.269   0.917 -1.0742 -0.2444 -0.5331
64806SOL     OW 6396   4.874   9.477  10.013  0.6675 -0.0612  0.3051
64806SOL    HW1 6397   4.821   9.447   9.939  0.5455  2.4868 -0.7288
64806SOL    HW2 6398   4.836   9.432  10.089 -0.6843 -0.9960 -0.8634
64807SOL     OW 6399   0.737   4.499  12.416  0.2648 -0.4023 -0.1576
64807SOL    HW1 6400   0.705   4.500  12.506 -0.2763 -0.8050 -0.3394
64807SOL    HW2 6401   0.737   4.591  12.390 -2.5190 -0.4727 -0.7421
64808SOL     OW 6402   3.141   5.044  11.282 -0.2551 -0.0562 -0.2785
64808SOL    HW1 6403   3.129   4.952  11.306 -0.1127  0.0121  0.0644
64808SOL    HW2 6404   3.058   5.086  11.306  0.8877  0.6189  3.0683
64809SOL     OW 6405  12.244   3.167   7.190 -0.2546  0.2877  0.0622
64809SOL    HW1 6406  12.181   3.109   7.234 -0.5971  0.3351 -0.3611
64809SOL    HW2 6407  12.329   3.129   7.211 -0.4177  0.2237  0.6441
64810SOL     OW 6408  10.080  10.818  13.657  0.1765  0.2920  1.2139
64810SOL    HW1 6409  10.046  10.729  13.650 -1.4692  0.9091  0.7443
64810SOL    HW2 6410  10.173  10.810  13.639  0.3811 -1.5415  2.8325
64811SOL     OW 6411   4.868   8.795  12.342 -0.0024  0.1039 -0.3694
64811SOL    HW1 6412   4.926   8.832  12.408  0.6000 -0.7086 -0.4411
64811SOL    HW2 6413   4.783   8.790  12.385  0.1642  0.5003  0.0135
64812SOL     OW 6414   0.306   4.309   2.231 -0.5078 -1.2189  0.1460
64812SOL    HW1 6415   0.317   4.331   2.323 -0.5647  0.4807 -0.2124
64812SOL    HW2 6416   0.215   4.282   2.223 -1.1235  0.7306  0.2339
64813SOL     OW 6417  13.278   1.666  13.799  0.1323  0.2440  0.1751
64813SOL    HW1 6418  13.370   1.691  13.811  0.2690  0.3299 -1.0000
64813SOL    HW2 6419  13.234   1.747  13.776 -0.0886  0.0520 -0.0825
64814SOL     OW 6420  10.613   8.873   3.123  0.5592  0.1938  0.3709
64814SOL    HW1 6421  10.658   8.800   3.080 -0.0903  0.2835 -0.4760
64814SOL    HW2 6422  10.680   8.942   3.128  0.0337  1.1019 -2.8298
64815SOL     OW 6423   0.989  11.832  10.940  0.4235  0.4563  0.0925
64815SOL    HW1 6424   1.051  11.767  10.973  0.2484 -0.0168 -0.4885
64815SOL    HW2 6425   1.037  11.914  10.941  2.2458 -0.3903 -3.4927
64816SOL     OW 6426  11.594  12.391   9.669 -0.5660 -0.3551  0.1041
64816SOL    HW1 6427  11.678  12.346   9.676 -0.8122 -0.5627  2.4910
64816SOL    HW2 6428  11.592  12.424   9.579  1.2015 -1.9825 -0.6030
64817SOL     OW 6429  10.711  12.194   7.495  0.1303 -0.1386  0.0102
64817SOL    HW1 6430  10.627  12.156   7.469  0.4940 -0.6933 -0.3748
64817SOL    HW2 6431  10.756  12.124   7.541 -0.0716  0.5128  1.2434
64818SOL     OW 6432  10.969   0.513   2.687  0.4072  0.0298  0.0470
64818SOL    HW1 6433  11.062   0.502   2.669  0.7943  2.7433  0.0662
64818SOL    HW2 6434  10.943   0.591   2.638 -1.2186  0.9055  2.1486
64819SOL     OW 6435   2.817   0.976  12.001  0.1448 -0.4468 -0.2232
64819SOL    HW1 6436   2.878   1.004  11.933 -1.1321 -0.2265 -1.3269
64819SOL    HW2 6437   2.847   1.019  12.080 -0.2711  2.0650 -1.3528
64820SOL     OW 6438  10.181  12.241  12.905  0.3183  0.4079  0.1657
64820SOL    HW1 6439  10.169  12.331  12.877  0.0248  0.1595 -0.5256
64820SOL    HW2 6440  10.256  12.210  12.854  0.1484  0.1339  0.0795
64821SOL     OW 6441   4.714   7.707   4.854 -0.1170  0.3458 -0.2969
64821SOL    HW1 6442   4.790   7.740   4.903  0.3797 -0.6397 -0.3719
64821SOL    HW2 6443   4.704   7.769   4.781  1.2889 -0.0617 -0.8916
64822SOL     OW 6444   2.631  10.781   3.365  0.1569 -0.7366 -0.1184
64822SOL    HW1 6445   2.665  10.774   3.276  0.4871  1.6405 -0.2427
64822SOL    HW2 6446   2.541  10.809   3.355  0.1400 -0.6288  0.3028
64823SOL     OW 6447   0.014   7.878   0.049 -0.0586 -0.4486  0.1217
64823SOL    HW1 6448  -0.014   7.969   0.065  1.1079 -0.0563  0.0234
64823SOL    HW2 6449   0.014   7.870  -0.047 -1.6941 -1.0701  0.1430
64824SOL     OW 6450   9.060  11.954   7.748  0.0424 -0.2331  0.1283
64824SOL    HW1 6451   9.087  12.017   7.815  0.2177 -0.1741  0.0026
64824SOL    HW2 6452   9.142  11.922   7.711 -0.0375 -0.7501  0.3902
64825SOL     OW 6453   5.920   6.790  10.779  0.2769  0.0241 -0.4247
64825SOL    HW1 6454   6.000   6.787  10.726  0.1111 -1.5934 -0.6431
64825SOL    HW2 6455   5.861   6.728  10.736 -1.3096  1.5762 -0.5580
64826SOL     OW 6456   3.892  10.970   1.598 -0.3803  0.6028 -0.1829
64826SOL    HW1 6457   3.819  10.948   1.656 -0.9960  0.4921 -0.9859
64826SOL    HW2 6458   3.874  10.923   1.517  0.0885  1.3223 -0.7221
64827SOL     OW 6459   1.700  10.602   7.583  0.1248 -0.7514  0.5943
64827SOL    HW1 6460   1.605  10.601   7.572  0.0334  0.5283  1.0396
64827SOL    HW2 6461   1.725  10.693   7.565  1.3700 -1.2442 -0.2650
64828SOL     OW 6462   0.379   8.348  11.380  0.1057 -0.2369 -0.5024
64828SOL    HW1 6463   0.423   8.301  11.309  0.4625 -0.8466  0.1152
64828SOL    HW2 6464   0.299   8.298  11.396  0.2959 -0.4133 -0.1011
64829SOL     OW 6465   9.957   6.097   3.535  0.2798 -0.1548 -0.2277
64829SOL    HW1 6466   9.896   6.106   3.462 -2.3504  2.0308  1.9901
64829SOL    HW2 6467   9.918   6.030   3.592  1.7625 -1.1248 -0.2913
64830SOL     OW 6468   4.303   5.783   3.509 -0.2038 -0.4083  0.2415
64830SOL    HW1 6469   4.309   5.728   3.431 -0.4298  0.6220 -0.5156
64830SOL    HW2 6470   4.314   5.872   3.477 -1.4911  0.1361  1.2123
64831SOL     OW 6471   8.958   4.587  10.170 -0.3896 -0.0287  0.3396
64831SOL    HW1 6472   8.868   4.556  10.182 -0.8290  0.2293 -1.9576
64831SOL    HW2 6473   9.012   4.509  10.187 -1.2461 -1.0023 -1.1860
64832SOL     OW 6474   5.488   9.787  11.743 -0.6447  0.1810 -0.6329
64832SOL    HW1 6475   5.473   9.692  11.745  1.4920 -0.2247  1.0826
64832SOL    HW2 6476   5.419   9.823  11.798 -0.3492 -0.6352  0.3111
64833SOL     OW 6477  11.428  10.851   3.821 -0.4052 -0.1267 -0.1063
64833SOL    HW1 6478  11.456  10.942   3.826 -1.2610  0.2218 -1.1523
64833SOL    HW2 6479  11.498  10.806   3.775  0.9146 -0.4346  2.0600
64834SOL     OW 6480  13.616   3.482   1.758  0.5293 -0.0056 -0.1403
64834SOL    HW1 6481  13.627   3.432   1.839  0.4744  1.8941  1.1108
64834SOL    HW2 6482  13.647   3.570   1.780 -0.7840  0.9258 -1.7733
64835SOL     OW 6483   7.972   0.377   5.576 -0.1518 -0.7675  0.3661
64835SOL    HW1 6484   7.883   0.341   5.574  0.2267 -1.8604  1.8460
64835SOL    HW2 6485   8.026   0.305   5.608  1.3133 -0.1731 -0.6744
64836SOL     OW 6486   2.758   6.623  13.667 -0.3847  0.0898  0.2368
64836SOL    HW1 6487   2.815   6.604  13.592 -1.2217  0.0738 -0.4251
64836SOL    HW2 6488   2.807   6.594  13.743  0.4758  0.0610 -0.3175
64837SOL     OW 6489   2.196   9.684  11.476  0.7858 -0.3230 -0.5124
64837SOL    HW1 6490   2.206   9.637  11.558 -0.3366  0.9989  0.4228
64837SOL    HW2 6491   2.252   9.637  11.414  2.6935 -0.5895  1.3085
64838SOL     OW 6492  11.261  11.690  11.119  0.0846 -0.6757  0.3198
64838SOL    HW1 6493  11.319  11.615  11.130 -0.1031 -0.7518  0.8361
64838SOL    HW2 6494  11.319  11.761  11.092  0.2608 -1.0097 -0.1955
64839SOL     OW 6495  13.279  11.981  10.878 -0.4260  0.3227  0.0815
64839SOL    HW1 6496  13.287  11.907  10.818 -0.7000  1.0785 -0.9288
64839SOL    HW2 6497  13.296  11.945  10.964 -1.4998 -1.1119 -0.2720
64840SOL     OW 6498   5.559   2.991  13.573 -0.8995 -0.8123 -0.2674
64840SOL    HW1 6499   5.625   3.005  13.641 -0.3005  0.3910 -1.0589
64840SOL    HW2 6500   5.521   2.906  13.594  0.8390 -1.5040  0.2644
64841SOL     OW 6501   0.783   5.026   6.289 -0.2487 -0.2422 -0.1843
64841SOL    HW1 6502   0.701   5.012   6.336 -0.3254  0.7832  0.0156
64841SOL    HW2 6503   0.761   5.089   6.220  0.4781  0.5493  0.2756
64842SOL     OW 6504   1.076  11.856   9.567  0.1708  0.1478  0.0589
64842SOL    HW1 6505   1.166  11.839   9.596 -0.3778  0.3202  2.0294
64842SOL    HW2 6506   1.050  11.776   9.522  1.8849  0.7722 -2.2432
64843SOL     OW 6507   1.445   8.172   1.909 -0.4665  0.8508 -0.8123
64843SOL    HW1 6508   1.357   8.150   1.880 -0.4066  0.8444 -0.9874
64843SOL    HW2 6509   1.437   8.261   1.945 -0.6183  0.7113 -0.4988
64844SOL     OW 6510   6.486  13.186  11.861 -0.0130 -0.0988  0.1524
64844SOL    HW1 6511   6.555  13.237  11.820 -1.9883  1.1423 -1.8920
64844SOL    HW2 6512   6.513  13.095  11.848  1.2654  0.3570 -0.5360
64845SOL     OW 6513   0.819   6.911   7.947 -0.0236  0.0758 -0.5444
64845SOL    HW1 6514   0.891   6.961   7.987 -0.4848  1.3042 -1.1787
64845SOL    HW2 6515   0.761   6.979   7.912 -1.8408 -0.8499  0.5298
64846SOL     OW 6516   3.865  10.196   0.474 -0.1347 -0.0253  0.3141
64846SOL    HW1 6517   3.827  10.231   0.555 -0.3809  0.3435  0.0415
64846SOL    HW2 6518   3.789  10.175   0.419  0.0225 -0.5887  0.3054
64847SOL     OW 6519   2.382   1.407  10.307 -0.7439  0.7722  0.6880
64847SOL    HW1 6520   2.290   1.420  10.283 -0.9209 -0.6505  0.4834
64847SOL    HW2 6521   2.386   1.426  10.400 -1.1547  1.2465  0.6132
64848SOL     OW 6522  12.846   4.451  10.691  0.3583 -0.0258 -0.7166
64848SOL    HW1 6523  12.850   4.381  10.625  1.4945  0.3002 -0.9999
64848SOL    HW2 6524  12.877   4.529  10.646 -0.3096  0.5399 -0.2197
64849SOL     OW 6525   1.093   8.148   7.831  0.5921  0.1851 -0.4938
64849SOL    HW1 6526   1.151   8.074   7.853 -0.1776 -0.4512 -0.5468
64849SOL    HW2 6527   1.062   8.128   7.743  0.6688  0.7716 -0.6568
64850SOL     OW 6528   0.086   0.073   5.323 -0.3034  0.0007  0.4816
64850SOL    HW1 6529   0.098   0.015   5.398  0.3630 -0.6070 -0.0740
64850SOL    HW2 6530   0.107   0.160   5.357 -1.2449 -0.0837  1.3103
64851SOL     OW 6531   8.749  12.883  12.177 -0.1932 -0.4688  0.1238
64851SOL    HW1 6532   8.763  12.954  12.114  1.0926 -0.8466 -0.0614
64851SOL    HW2 6533   8.788  12.916  12.259 -0.6894 -0.4917  0.3750
64852SOL     OW 6534  13.193  11.517   5.658 -0.4047  0.0150  0.4162
64852SOL    HW1 6535  13.123  11.581   5.668 -0.3855  0.1110 -0.0381
64852SOL    HW2 6536  13.259  11.562   5.605 -0.1181 -0.1686  0.6113
64853SOL     OW 6537  11.180   5.961  13.746 -0.0789  0.3569  0.1794
64853SOL    HW1 6538  11.237   5.888  13.769 -1.6219 -0.8920  0.1439
64853SOL    HW2 6539  11.238   6.038  13.747  1.8152 -0.9837 -0.8578
64854SOL     OW 6540  12.504   4.522   1.971  0.4421  0.2346  0.1854
64854SOL    HW1 6541  12.484   4.429   1.973  1.0809  0.0993  1.8013
64854SOL    HW2 6542  12.420   4.566   1.984  0.0702 -0.0752 -1.0424
64855SOL     OW 6543   9.802   4.898   6.970 -0.2148 -0.4362 -0.1063
64855SOL    HW1 6544   9.848   4.969   6.926 -1.4627  0.1115 -0.5786
64855SOL    HW2 6545   9.869   4.854   7.023  0.6887  0.7216 -0.2661
64856SOL     OW 6546  13.619   2.979   2.208 -0.1879  0.1531  0.6416
64856SOL    HW1 6547  13.614   3.016   2.120  1.1824 -1.0662  0.0105
64856SOL    HW2 6548  13.711   2.953   2.218 -0.1414  0.9412  2.7337
64857SOL     OW 6549   6.425   5.578  13.038 -0.2078  0.3876 -0.4524
64857SOL    HW1 6550   6.337   5.589  13.074 -1.4324 -0.0781 -3.0246
64857SOL    HW2 6551   6.463   5.506  13.088 -0.6116  1.6017  1.7502
64858SOL     OW 6552   5.807  11.173   3.169 -0.9162  0.0060 -0.0913
64858SOL    HW1 6553   5.778  11.256   3.130 -3.1670  0.8442  2.9934
64858SOL    HW2 6554   5.785  11.107   3.103  0.2612  1.7242 -2.3235
64859SOL     OW 6555   0.512   6.825  11.082 -0.1122  0.0778 -0.0912
64859SOL    HW1 6556   0.427   6.853  11.048 -0.2669 -1.0143 -0.6532
64859SOL    HW2 6557   0.529   6.883  11.156 -0.5650  1.4064 -0.9967
64860SOL     OW 6558   6.404  10.226   4.909  0.3715  0.4620  0.0733
64860SOL    HW1 6559   6.353  10.307   4.910  0.6010  0.6054  0.9257
64860SOL    HW2 6560   6.490  10.252   4.876  0.6771  0.7238  1.0422
64861SOL     OW 6561   2.183   8.521   4.998  0.1998  0.6231  0.1398
64861SOL    HW1 6562   2.241   8.466   5.050 -0.8315  1.3212  2.0947
64861SOL    HW2 6563   2.148   8.461   4.931 -1.2408 -1.2951  2.4655
64862SOL     OW 6564   3.042   1.832   0.980  0.0194  0.5573 -0.2293
64862SOL    HW1 6565   3.105   1.806   1.048 -0.5018  0.8571  0.3841
64862SOL    HW2 6566   2.959   1.838   1.027 -0.6060 -0.4956 -1.1619
64863SOL     OW 6567   9.982  12.195   0.287  0.0911  0.2078 -0.0786
64863SOL    HW1 6568   9.898  12.232   0.260 -0.1027  0.1030  0.3667
64863SOL    HW2 6569   9.964  12.102   0.300  0.3942  0.0960 -0.4639
64864SOL     OW 6570  12.295  10.116  13.355  0.3478 -0.3083  0.7299
64864SOL    HW1 6571  12.355  10.165  13.411 -1.7158  1.2543  1.6809
64864SOL    HW2 6572  12.233  10.075  13.415  0.4615 -1.9654 -0.2219
64865SOL     OW 6573   4.927   3.966   0.877 -0.8195 -0.2542 -0.5704
64865SOL    HW1 6574   4.918   4.037   0.941  0.9592  1.1321 -1.7380
64865SOL    HW2 6575   4.855   3.980   0.816  0.8990  2.2842 -2.2450
64866SOL     OW 6576   3.462   7.864   0.110 -0.5376  0.0592  0.4175
64866SOL    HW1 6577   3.386   7.879   0.054  0.0363 -4.2935 -1.9797
64866SOL    HW2 6578   3.529   7.923   0.076 -0.9664 -0.7272 -2.0146
64867SOL     OW 6579   3.214   4.218   1.792  0.2832 -0.0256 -0.1377
64867SOL    HW1 6580   3.271   4.143   1.806 -0.0492 -0.3175 -0.3504
64867SOL    HW2 6581   3.190   4.213   1.699 -0.7761 -0.3858  0.1499
64868SOL     OW 6582   0.279   7.464   8.630  0.1668 -0.2805  0.5409
64868SOL    HW1 6583   0.233   7.495   8.553  0.4236  0.7167  0.7724
64868SOL    HW2 6584   0.329   7.540   8.661  0.1167 -0.6709  1.6465
64869SOL     OW 6585  13.289   2.994   2.111  0.3023 -0.5096 -0.0930
64869SOL    HW1 6586  13.203   2.985   2.069 -0.1413  1.4962  0.3079
64869SOL    HW2 6587  13.272   2.976   2.204  0.5088 -1.0507 -0.1587
64870SOL     OW 6588   3.712   4.893  12.582 -0.2353  0.3682 -0.1617
64870SOL    HW1 6589   3.795   4.880  12.628  0.1309  0.7844 -0.6911
64870SOL    HW2 6590   3.711   4.823  12.516 -0.4995  0.1160  0.1053
64871SOL     OW 6591   3.076   5.230   2.725 -0.5232 -0.0397  0.4276
64871SOL    HW1 6592   3.071   5.242   2.820 -1.3970 -0.4790  0.4403
64871SOL    HW2 6593   3.004   5.282   2.690  0.7557  1.4669 -0.1543
64872SOL     OW 6594  11.438   0.914   7.945  0.7503  0.0716  0.0536
64872SOL    HW1 6595  11.481   0.998   7.930  0.2940  0.8241  2.4317
64872SOL    HW2 6596  11.357   0.919   7.895  1.2714  0.5333 -0.7671
64873SOL     OW 6597  12.830   6.664   4.949  1.0691  0.0420 -0.6650
64873SOL    HW1 6598  12.917   6.648   4.915  0.6507 -0.1408 -1.6722
64873SOL    HW2 6599  12.844   6.718   5.027  2.0988 -0.3340 -0.5770
64874SOL     OW 6600   9.793   3.084   7.124 -0.7167  0.1102 -0.1810
64874SOL    HW1 6601   9.872   3.111   7.078 -1.3469  0.8154 -0.8884
64874SOL    HW2 6602   9.727   3.149   7.099 -1.3419 -0.0705  0.9389
64875SOL     OW 6603   9.492  11.569  11.473  0.3402  0.2671  0.0947
64875SOL    HW1 6604   9.448  11.542  11.392  0.8981  0.4472 -0.2747
64875SOL    HW2 6605   9.439  11.642  11.506  0.6018  0.7600 -0.5702
64876SOL     OW 6606  12.875  10.634  13.795 -0.5360  0.3661  0.0968
64876SOL    HW1 6607  12.822  10.555  13.801 -0.6356  0.4443  0.2659
64876SOL    HW2 6608  12.948  10.618  13.855  0.1553 -0.1380 -0.8683
64877SOL     OW 6609   9.230   6.975  10.700  0.4450  0.5614 -0.3766
64877SOL    HW1 6610   9.278   6.915  10.644  1.5243  2.3273 -1.4611
64877SOL    HW2 6611   9.138   6.948  10.691  0.6937  0.1877 -2.2671
64878SOL     OW 6612   2.599   2.712  10.884 -0.2775  0.3320  0.1292
64878SOL    HW1 6613   2.553   2.647  10.831  0.3014 -0.3807  0.4765
64878SOL    HW2 6614   2.625   2.780  10.822 -2.4041  1.1242  0.0403
64879SOL     OW 6615   4.819   2.959   5.612 -0.3410  0.1161  0.2656
64879SOL    HW1 6616   4.892   2.907   5.647  0.3151  0.3413 -0.7290
64879SOL    HW2 6617   4.743   2.901   5.620  0.0867 -0.4093  0.6039
64880SOL     OW 6618   1.215   0.594  11.887  0.1222 -0.0116  0.3754
64880SOL    HW1 6619   1.274   0.558  11.953  1.4656  2.6628  0.7605
64880SOL    HW2 6620   1.143   0.632  11.937  0.2529  0.4890  0.1843
64881SOL     OW 6621   8.138   6.028   8.216  0.4874  0.8090  0.7267
64881SOL    HW1 6622   8.099   6.114   8.201  1.4357  0.8711 -1.8534
64881SOL    HW2 6623   8.227   6.046   8.244  0.8874  0.7231 -0.4194
64882SOL     OW 6624   7.751  12.965  12.726 -0.2909  0.0304 -1.0488
64882SOL    HW1 6625   7.694  13.040  12.746 -0.1706 -0.1894  0.2525
64882SOL    HW2 6626   7.828  12.979  12.781 -0.6383 -1.4635 -0.1107
64883SOL     OW 6627   1.346   5.769  10.137  0.1255 -0.0927  0.0773
64883SOL    HW1 6628   1.413   5.835  10.152  0.4059 -0.0903 -1.0865
64883SOL    HW2 6629   1.305   5.795  10.055 -0.1305 -1.0608 -0.1151
64884SOL     OW 6630   2.684  10.451  10.344  0.0893  0.0899 -0.2618
64884SOL    HW1 6631   2.724  10.403  10.271  1.2169 -1.0920  1.0842
64884SOL    HW2 6632   2.694  10.393  10.419 -0.6195  1.4782  0.9437
64885SOL     OW 6633  10.017   8.399   2.417  0.9779 -0.2899  0.5483
64885SOL    HW1 6634   9.997   8.309   2.392  1.2030 -1.0526  2.8852
64885SOL    HW2 6635   9.932   8.444   2.416  0.8464 -0.5423 -0.4945
64886SOL     OW 6636   6.390   4.226   3.236  0.3705 -0.0486  0.1696
64886SOL    HW1 6637   6.296   4.228   3.250  0.6648  0.1113  2.3848
64886SOL    HW2 6638   6.412   4.133   3.237  0.2031 -0.1190 -0.8996
64887SOL     OW 6639  10.870  10.532   4.165  0.6833 -0.0309 -0.0306
64887SOL    HW1 6640  10.891  10.479   4.088 -0.3214  0.0050 -0.3408
64887SOL    HW2 6641  10.849  10.468   4.233 -0.7800 -0.0626 -0.4764
64888SOL     OW 6642   7.957   3.636   8.101 -0.6119  0.1322  0.2705
64888SOL    HW1 6643   7.991   3.722   8.124  1.4140 -0.7559  0.7711
64888SOL    HW2 6644   7.863   3.650   8.089 -0.5285  2.1582  1.5433
64889SOL     OW 6645  12.105  13.565   9.888  0.1561 -0.4185 -0.7234
64889SOL    HW1 6646  12.103  13.660   9.875  1.3126 -0.0912  1.0701
64889SOL    HW2 6647  12.119  13.529   9.801 -1.5654  0.9528 -1.6448
64890SOL     OW 6648   9.432   5.275   4.541 -0.0765  0.4946  0.0033
64890SOL    HW1 6649   9.527   5.274   4.540 -0.0838 -0.8914 -0.7401
64890SOL    HW2 6650   9.409   5.277   4.634  0.6868 -1.4048  0.2721
64891SOL     OW 6651  12.913  11.341   7.465 -0.8700  0.3809 -0.1897
64891SOL    HW1 6652  12.934  11.286   7.540 -0.2779  0.8837  0.0244
64891SOL    HW2 6653  12.951  11.427   7.487 -0.7568  0.5521 -1.0193
64892SOL     OW 6654   9.321   6.507   1.678  0.0704  0.3984  0.0402
64892SOL    HW1 6655   9.329   6.586   1.624  2.2863 -0.1360 -0.5012
64892SOL    HW2 6656   9.406   6.498   1.721 -0.4923 -1.1137  0.9147
64893SOL     OW 6657   6.644   9.387  11.885  0.4153 -0.5874 -0.0330
64893SOL    HW1 6658   6.622   9.396  11.977 -1.5195  1.6673 -0.6019
64893SOL    HW2 6659   6.561   9.366  11.842  0.6943  1.0140 -1.5110
64894SOL     OW 6660   7.907   5.809   9.949  0.4961  0.9665 -0.0716
64894SOL    HW1 6661   8.002   5.801   9.944  0.6943  0.9208  2.3838
64894SOL    HW2 6662   7.889   5.819  10.043 -2.1495 -1.9639 -0.1154
64895SOL     OW 6663   9.204   7.956  10.087  0.1750 -0.5993  0.6859
64895SOL    HW1 6664   9.209   7.903  10.007  0.8839 -0.2962  0.5199
64895SOL    HW2 6665   9.245   7.902  10.154 -1.2675 -1.2504  1.0827
64896SOL     OW 6666   6.648   2.934   1.634  0.1533 -0.1864  0.2821
64896SOL    HW1 6667   6.668   2.881   1.711 -0.6065 -0.7849  0.0821
64896SOL    HW2 6668   6.568   2.981   1.657 -0.5100 -0.9433 -0.3982
64897SOL     OW 6669   3.608   5.507   4.021  0.0500  0.2484 -0.5239
64897SOL    HW1 6670   3.579   5.504   4.112  0.0373 -1.0646 -0.5564
64897SOL    HW2 6671   3.699   5.537   4.026  0.1621 -0.1605 -0.0457
64898SOL     OW 6672   6.552   8.669  10.974 -0.0338 -0.3463  0.3271
64898SOL    HW1 6673   6.558   8.574  10.972 -0.5825 -0.3734 -1.1019
64898SOL    HW2 6674   6.461   8.688  10.951  0.2139  0.5185  0.0239
64899SOL     OW 6675   4.868   1.685  10.062  0.4626  0.0058 -0.3783
64899SOL    HW1 6676   4.813   1.763  10.057 -0.0912 -0.2996  0.6273
64899SOL    HW2 6677   4.838   1.630   9.989 -2.6922 -1.4364  1.7540
64900SOL     OW 6678   4.253   2.136  13.053 -0.0319 -0.3681 -0.2895
64900SOL    HW1 6679   4.212   2.051  13.070  1.6091 -0.8655  1.5331
64900SOL    HW2 6680   4.197   2.177  12.987 -2.5043 -1.6477  0.8881
64901SOL     OW 6681   8.968   7.717   5.639 -0.6706  0.2609 -0.1541
64901SOL    HW1 6682   8.931   7.639   5.680  0.8000 -0.3054  0.1520
64901SOL    HW2 6683   8.903   7.743   5.573 -1.0193 -1.4301 -0.5121
64902SOL     OW 6684  10.604   5.363   8.481 -0.9590 -0.2162  0.5654
64902SOL    HW1 6685  10.510   5.354   8.464 -1.0301 -1.5925  1.5539
64902SOL    HW2 6686  10.616   5.330   8.570  0.7054 -1.7439 -0.1585
64903SOL     OW 6687  11.866  11.028   2.910 -0.0121 -0.5337 -0.1978
64903SOL    HW1 6688  11.899  10.975   2.982 -0.0364 -0.7958 -0.3790
64903SOL    HW2 6689  11.905  10.989   2.832  0.6491  0.2414 -0.2602
64904SOL     OW 6690   2.499   7.084  10.513  0.5155 -0.6591 -0.5101
64904SOL    HW1 6691   2.433   7.026  10.475  1.7975 -1.9530 -0.8457
64904SOL    HW2 6692   2.465   7.104  10.601 -0.6240 -0.7483 -0.9068
64905SOL     OW 6693   6.641   9.227   5.410  0.0870 -0.2043  0.0763
64905SOL    HW1 6694   6.701   9.273   5.352  2.1832 -2.2034  0.5317
64905SOL    HW2 6695   6.640   9.280   5.490  0.5618  0.2818 -0.2361
64906SOL     OW 6696   3.511  13.618  12.192  0.2166 -0.3414  0.0078
64906SOL    HW1 6697   3.542  13.685  12.252  0.6662 -0.5714  0.0351
64906SOL    HW2 6698   3.550  13.640  12.107 -1.8435  1.0279 -0.6635
64907SOL     OW 6699   9.477  11.303   0.031  0.4248  0.4057  0.7506
64907SOL    HW1 6700   9.398  11.357   0.034 -0.2148 -0.2391 -1.8578
64907SOL    HW2 6701   9.537  11.351  -0.026  1.2756  0.0805  1.3475
64908SOL     OW 6702  12.852   0.804  13.346 -0.1932  0.1383  0.9843
64908SOL    HW1 6703  12.796   0.878  13.325 -2.4114 -1.8978 -0.7540
64908SOL    HW2 6704  12.825   0.777  13.434 -0.6456  0.2690  0.8830
64909SOL     OW 6705   7.257   7.654   2.878 -0.6670  0.0182  0.0751
64909SOL    HW1 6706   7.247   7.740   2.837 -0.6435  0.6578  1.3562
64909SOL    HW2 6707   7.190   7.600   2.836 -0.5251  0.5819 -0.9180
64910SOL     OW 6708   4.777   1.551   6.861 -0.8706  0.1273  0.2007
64910SOL    HW1 6709   4.698   1.545   6.914 -1.0912  0.7254 -0.0531
64910SOL    HW2 6710   4.814   1.463   6.863 -1.4452 -0.1123  0.4679
64911SOL     OW 6711   2.270   3.007  13.324 -0.1004 -0.4017  0.0789
64911SOL    HW1 6712   2.289   3.076  13.387 -0.1125 -0.6162  0.3191
64911SOL    HW2 6713   2.348   3.001  13.270  0.0651 -0.4867  0.3258
64912SOL     OW 6714   0.714   2.935   8.840  0.7814 -0.0565 -0.3822
64912SOL    HW1 6715   0.775   2.984   8.786 -0.5700  1.4735 -0.5862
64912SOL    HW2 6716   0.748   2.845   8.839  1.7899  0.2963 -2.2647
64913SOL     OW 6717  12.985   9.630   9.886 -0.5459 -0.6884 -0.1683
64913SOL    HW1 6718  13.061   9.672   9.927 -0.2772 -1.5445  0.2260
64913SOL    HW2 6719  12.909   9.672   9.928 -0.2977 -2.4265  2.2445
64914SOL     OW 6720  10.889   2.336   4.635  0.7952 -0.0931 -0.0977
64914SOL    HW1 6721  10.964   2.343   4.577 -0.8467  0.5261 -2.2997
64914SOL    HW2 6722  10.816   2.372   4.584 -1.4620 -2.6718  1.0174
64915SOL     OW 6723   3.904  11.193   3.079 -0.3859  0.0771 -0.2688
64915SOL    HW1 6724   3.849  11.234   3.146  1.2728  0.3948  0.9702
64915SOL    HW2 6725   3.990  11.234   3.090  0.6656 -1.8640 -0.7273
64916SOL     OW 6726   0.720   6.942   5.932  0.0795 -0.3789  0.0690
64916SOL    HW1 6727   0.630   6.973   5.942 -0.0426 -0.0524 -1.7930
64916SOL    HW2 6728   0.724   6.862   5.985 -0.4180  1.1541  2.6068
64917SOL     OW 6729  10.527  12.043  13.096 -0.5367  0.5057 -0.3050
64917SOL    HW1 6730  10.523  12.138  13.106  0.4597  0.5056  0.2426
64917SOL    HW2 6731  10.438  12.012  13.114 -0.4744  1.1826  1.2726
64918SOL     OW 6732   5.544   4.229  12.066  0.3019  0.1574  0.1390
64918SOL    HW1 6733   5.596   4.150  12.054 -0.3321 -0.2917  0.2895
64918SOL    HW2 6734   5.469   4.200  12.117 -0.2161  0.7493 -0.2797
64919SOL     OW 6735   8.844   3.661   3.049  0.0806  0.0275 -0.0969
64919SOL    HW1 6736   8.764   3.639   3.001  0.0423  1.1496 -0.5955
64919SOL    HW2 6737   8.908   3.681   2.980  0.5074  0.0755  0.3089
64920SOL     OW 6738  10.738   2.356   2.035  0.7915 -0.2490  0.2295
64920SOL    HW1 6739  10.733   2.342   2.130  1.1877 -0.2921  0.2458
64920SOL    HW2 6740  10.676   2.427   2.018  0.0425 -0.8556  0.3901
64921SOL     OW 6741   4.225   2.987   2.303 -0.0300 -0.3834 -0.5429
64921SOL    HW1 6742   4.206   3.071   2.262 -0.9290 -0.7763 -0.9584
64921SOL    HW2 6743   4.320   2.976   2.292  0.4322  1.3887  1.0939
64922SOL     OW 6744   5.365   3.765   2.549  0.5100  0.2814 -0.1644
64922SOL    HW1 6745   5.453   3.762   2.512  1.1221  0.6758  1.1825
64922SOL    HW2 6746   5.337   3.856   2.539  1.8033  1.0996  2.7038
64923SOL     OW 6747   8.705   0.325   1.999  0.7086  0.2907  0.1710
64923SOL    HW1 6748   8.719   0.342   2.092 -0.8205  1.2076  0.2802
64923SOL    HW2 6749   8.781   0.275   1.972  1.3894  0.3576  1.8203
64924SOL     OW 6750   0.472   3.031  11.138  0.0397  0.5171 -0.1998
64924SOL    HW1 6751   0.388   3.023  11.184  0.4208 -0.0249  0.4346
64924SOL    HW2 6752   0.514   3.108  11.177 -0.3718  1.0771 -0.8652
64925SOL     OW 6753  10.609  11.444   8.067  0.2910  0.0540  0.3144
64925SOL    HW1 6754  10.651  11.416   8.149  0.8140  0.0133  0.0392
64925SOL    HW2 6755  10.672  11.421   7.999 -0.7076 -1.1299 -0.2449
64926SOL     OW 6756   3.968   6.519  13.166 -0.3948  0.0677 -0.1274
64926SOL    HW1 6757   3.947   6.601  13.211 -0.5280  0.3228 -0.6432
64926SOL    HW2 6758   4.046   6.486  13.211 -2.6517 -1.7385  2.9397
64927SOL     OW 6759   9.998   0.272   4.954  0.4282  0.1766  0.0237
64927SOL    HW1 6760   9.992   0.329   5.030  0.7687  1.5044 -0.9213
64927SOL    HW2 6761   9.962   0.323   4.882  2.1638 -0.1903 -1.1638
64928SOL     OW 6762  12.979   3.096   0.644  0.7396 -0.2255  0.2411
64928SOL    HW1 6763  13.051   3.124   0.587  2.0714 -2.0664  0.9195
64928SOL    HW2 6764  12.996   3.003   0.661 -2.4592 -1.0990 -0.5029
64929SOL     OW 6765   5.076   3.165  10.070 -0.2361  0.0727  0.0527
64929SOL    HW1 6766   5.057   3.162  10.164 -0.1015  0.4311  0.0918
64929SOL    HW2 6767   5.153   3.109  10.060 -1.4854 -1.7116 -0.1630
64930SOL     OW 6768   1.607   0.838  13.201 -0.1072 -0.1689 -0.3910
64930SOL    HW1 6769   1.640   0.913  13.151  1.4380 -0.1491  0.5912
64930SOL    HW2 6770   1.609   0.868  13.292 -2.3409 -0.3948 -0.2321
64931SOL     OW 6771   3.671   3.157   2.734 -0.1875 -0.0501 -0.5136
64931SOL    HW1 6772   3.582   3.157   2.699  0.2197  2.4005 -1.7908
64931SOL    HW2 6773   3.671   3.087   2.800 -3.1690  0.1695 -0.1363
64932SOL     OW 6774   1.377   5.611   2.378  0.2079 -0.5515 -0.0000
64932SOL    HW1 6775   1.345   5.604   2.468  0.6744 -0.7528  0.1560
64932SOL    HW2 6776   1.327   5.544   2.330  0.3627 -0.8318  0.2289
64933SOL     OW 6777   4.034   3.366   0.792  0.0356 -0.1272 -0.3929
64933SOL    HW1 6778   4.028   3.296   0.857 -1.4704  0.3823  0.0658
64933SOL    HW2 6779   4.031   3.447   0.843  2.1143  0.3163 -0.8900
64934SOL     OW 6780   7.760   2.899   6.350  0.0817 -0.3729  0.1176
64934SOL    HW1 6781   7.705   2.953   6.406 -0.8329  0.5946 -1.6214
64934SOL    HW2 6782   7.700   2.865   6.283  1.1948 -1.0908 -0.5554
64935SOL     OW 6783   2.394   0.371  13.290  0.3346 -0.1950  0.4176
64935SOL    HW1 6784   2.303   0.346  13.275  0.9560 -0.9673 -2.5925
64935SOL    HW2 6785   2.426   0.306  13.353 -0.5403 -1.4657 -0.3970
64936SOL     OW 6786   5.977   7.388   9.304  0.0793  0.1600  0.0912
64936SOL    HW1 6787   5.882   7.388   9.312  0.1058 -1.1650  0.9236
64936SOL    HW2 6788   5.999   7.298   9.279  1.0752  0.6163 -0.7545
64937SOL     OW 6789   2.267   5.150  13.198  0.4091  0.1092 -0.6043
64937SOL    HW1 6790   2.340   5.200  13.235  0.4006  0.3166 -0.8650
64937SOL    HW2 6791   2.214   5.215  13.153  0.1327 -0.0626 -0.5286
64938SOL     OW 6792   3.230   9.916   4.734 -0.0519  0.9152 -0.0938
64938SOL    HW1 6793   3.190   9.858   4.669  1.4805  1.7258 -1.8560
64938SOL    HW2 6794   3.167   9.987   4.744 -0.6390  0.4069 -0.0896
64939SOL     OW 6795   1.491  10.957   2.821  0.2041  0.1214  0.0845
64939SOL    HW1 6796   1.575  10.952   2.775  0.1736 -0.2135  0.0600
64939SOL    HW2 6797   1.427  10.978   2.752  0.4051  1.3986  0.2666
64940SOL     OW 6798  11.323  10.409   2.647  0.1578 -0.2727 -0.4926
64940SOL    HW1 6799  11.228  10.415   2.639  0.1167  0.8484  0.6737
64940SOL    HW2 6800  11.346  10.473   2.713  1.5566 -1.7298  0.5072
64941SOL     OW 6801   0.818   3.183   1.549 -0.2442 -0.1235 -0.2737
64941SOL    HW1 6802   0.907   3.156   1.529 -0.2525 -0.0392 -0.4223
64941SOL    HW2 6803   0.774   3.187   1.464 -0.1583  0.6699 -0.2900
64942SOL     OW 6804   2.700   4.860   8.093  0.4230  0.0065  0.2728
64942SOL    HW1 6805   2.671   4.898   8.010  0.3773 -0.2068  0.1891
64942SOL    HW2 6806   2.715   4.935   8.151 -0.6160  0.1052  0.4230
64943SOL     OW 6807   0.240   0.190  13.213 -0.1747 -0.3432  0.1712
64943SOL    HW1 6808   0.218   0.098  13.196  0.4605 -0.7149  1.2769
64943SOL    HW2 6809   0.157   0.228  13.243 -0.6901 -0.2861 -1.2663
64944SOL     OW 6810   4.839   4.995   3.841  0.0251 -0.1927  0.0065
64944SOL    HW1 6811   4.841   5.085   3.872  0.0371 -0.0814 -0.3146
64944SOL    HW2 6812   4.847   5.002   3.746 -0.7579 -0.4928 -0.0829
64945SOL     OW 6813   7.192   2.102   3.129  0.4723  0.1073  0.2395
64945SOL    HW1 6814   7.268   2.078   3.182  0.1885 -2.3674 -0.3985
64945SOL    HW2 6815   7.135   2.026   3.132 -0.4996  0.6729 -1.9552
64946SOL     OW 6816   3.057   6.339   6.130  0.5538  0.2875 -0.1886
64946SOL    HW1 6817   2.997   6.342   6.205 -0.0329  1.9470 -0.6896
64946SOL    HW2 6818   3.137   6.301   6.166 -0.1631 -0.2087  0.9512
64947SOL     OW 6819   4.807  13.981  11.708 -0.8287  0.2567 -0.1926
64947SOL    HW1 6820   4.719  13.944  11.714 -1.3108  0.7934 -2.5992
64947SOL    HW2 6821   4.827  13.980  11.614  1.3145  1.1274  0.1838
64948SOL     OW 6822   0.889   8.705   6.337  0.0366  0.1172  0.4762
64948SOL    HW1 6823   0.840   8.787   6.332 -0.6230 -0.2348  1.0067
64948SOL    HW2 6824   0.956   8.721   6.404  0.9997  0.7666 -0.6069
64949SOL     OW 6825  12.134  10.484  11.158 -0.5579  0.3981 -0.2781
64949SOL    HW1 6826  12.133  10.573  11.193 -2.7093 -0.6856  2.8269
64949SOL    HW2 6827  12.123  10.428  11.234 -0.3992 -2.5340 -2.2476
64950SOL     OW 6828   0.005   3.686   3.031  0.6399 -0.1445  0.3185
64950SOL    HW1 6829  -0.026   3.658   3.117  1.4639 -0.5399  0.4961
64950SOL    HW2 6830   0.018   3.781   3.040 -2.0216  0.3390 -0.2470
64951SOL     OW 6831  10.012   3.744  12.166 -0.5180  0.5113  0.1884
64951SOL    HW1 6832   9.933   3.750  12.112 -0.8620  0.0672  0.6233
64951SOL    HW2 6833  10.055   3.829  12.156 -1.0874  0.7851 -0.0021
64952SOL     OW 6834   9.330  10.830   7.672  0.2159  0.1461 -0.3123
64952SOL    HW1 6835   9.300  10.883   7.745  2.9527  0.5743  0.6290
64952SOL    HW2 6836   9.365  10.751   7.713  1.2690  0.1385 -1.1870
64953SOL     OW 6837  10.875   3.732   6.967 -0.7741  0.0498 -0.8063
64953SOL    HW1 6838  10.903   3.818   6.936 -0.3787  0.9762  1.9140
64953SOL    HW2 6839  10.949   3.675   6.951 -0.1509  0.7621 -0.5033
64954SOL     OW 6840   2.500   6.797   8.330 -0.4439  0.3886 -0.4580
64954SOL    HW1 6841   2.576   6.788   8.386  0.1940 -1.2138 -1.5093
64954SOL    HW2 6842   2.479   6.891   8.332  1.5905  0.8754 -0.2291
64955SOL     OW 6843   4.174   2.977   1.140 -0.1359 -0.1748  0.5952
64955SOL    HW1 6844   4.082   2.991   1.116 -0.2105  0.5913  1.2793
64955SOL    HW2 6845   4.223   3.003   1.062 -0.5351 -1.6020 -0.1519
64956SOL     OW 6846   8.196   2.084  13.856 -0.2530 -0.6688 -0.4184
64956SOL    HW1 6847   8.281   2.048  13.880  0.0386  0.0023 -0.4056
64956SOL    HW2 6848   8.198   2.091  13.761  0.1803  0.4530 -0.3407
64957SOL     OW 6849   2.444   1.385   0.411  0.0674  0.2945  0.5611
64957SOL    HW1 6850   2.355   1.385   0.375  0.1743  0.5646  0.2963
64957SOL    HW2 6851   2.431   1.392   0.505 -0.1878  0.5421  0.5095
64958SOL     OW 6852   7.963   2.647   0.462  0.6245  0.3451 -0.7744
64958SOL    HW1 6853   7.899   2.669   0.394  1.0521  0.2782 -1.2083
64958SOL    HW2 6854   8.048   2.653   0.417  1.0976  2.4942  0.3050
64959SOL     OW 6855  10.729   8.475  13.734  0.2014 -0.1736 -0.0551
64959SOL    HW1 6856  10.770   8.427  13.662  0.6686  0.5411 -0.2740
64959SOL    HW2 6857  10.651   8.425  13.755 -0.4514  0.1081 -1.6721
64960SOL     OW 6858  13.711   6.322   9.547 -0.6341  0.0164 -0.7203
64960SOL    HW1 6859  13.731   6.248   9.490  2.6112  0.1158  0.0748
64960SOL    HW2 6860  13.712   6.285   9.635  1.2847  0.9350 -0.2910
64961SOL     OW 6861   6.827   7.712  13.889  0.0630  0.0874 -0.1246
64961SOL    HW1 6862   6.889   7.776  13.855 -0.7946  0.8323 -0.3253
64961SOL    HW2 6863   6.747   7.762  13.906 -0.4869 -0.8451  0.1394
64962SOL     OW 6864   9.782  13.162   3.882 -0.7221 -0.6378  0.2751
64962SOL    HW1 6865   9.821  13.243   3.914  0.2411 -0.3492 -1.4871
64962SOL    HW2 6866   9.854  13.099   3.881 -0.8494 -0.7870 -0.7394
64963SOL     OW 6867   4.891   8.549   4.438 -0.3329  0.0378 -0.2232
64963SOL    HW1 6868   4.821   8.533   4.501  0.7243 -0.4358  0.8831
64963SOL    HW2 6869   4.962   8.587   4.490  0.0193  1.0864 -1.4277
64964SOL     OW 6870   1.225   2.254   7.579  0.2791 -0.2571  0.1088
64964SOL    HW1 6871   1.147   2.216   7.618 -0.7832  1.7961  0.1490
64964SOL    HW2 6872   1.272   2.293   7.653  0.2081  0.3734 -0.1711
64965SOL     OW 6873   1.829  10.481   3.706  0.3145  0.3067 -0.3143
64965SOL    HW1 6874   1.763  10.455   3.641 -0.2831  1.2001 -0.0771
64965SOL    HW2 6875   1.865  10.398   3.737 -0.4768 -0.1905 -0.6822
64966SOL     OW 6876  11.062   7.906  12.235 -0.3300 -0.8238  0.0842
64966SOL    HW1 6877  11.044   7.855  12.314 -0.9351  0.4192  0.7783
64966SOL    HW2 6878  11.126   7.854  12.187 -0.8276 -2.1650  0.8191
64967SOL     OW 6879  10.367   5.390   9.322 -0.3815  0.1593  0.4185
64967SOL    HW1 6880  10.315   5.316   9.291 -2.4229  1.0449  1.5246
64967SOL    HW2 6881  10.345   5.462   9.263  2.2987 -0.2304 -1.2294
64968SOL     OW 6882   6.044  11.796  11.631  0.7494  0.2222  0.1045
64968SOL    HW1 6883   6.001  11.881  11.626  1.2484  0.4656 -0.0982
64968SOL    HW2 6884   5.976  11.733  11.610  0.2294  0.5293  0.8285
64969SOL     OW 6885   8.145   8.019  10.605 -0.2307  0.1602  0.4639
64969SOL    HW1 6886   8.132   7.928  10.579 -0.4533  0.9817 -2.6384
64969SOL    HW2 6887   8.178   8.013  10.695 -1.4979 -2.8890  0.8538
64970SOL     OW 6888   2.072   5.143   8.788  0.3400  0.5212  0.0209
64970SOL    HW1 6889   1.982   5.111   8.799  0.2965  0.9670  1.0599
64970SOL    HW2 6890   2.085   5.204   8.860  0.4832  2.7804 -1.8114
64971SOL     OW 6891   4.805  12.684  13.773 -0.3204  0.0970  0.3546
64971SOL    HW1 6892   4.868  12.754  13.792 -0.6368  0.6776 -0.6515
64971SOL    HW2 6893   4.720  12.725  13.785 -0.5213  0.2430 -1.3444
64972SOL     OW 6894   6.714   5.053   5.908 -0.2579  0.2119 -0.0363
64972SOL    HW1 6895   6.693   4.962   5.932  0.9099  0.2424  1.2293
64972SOL    HW2 6896   6.756   5.089   5.986 -1.3513  2.0880 -0.2464
64973SOL     OW 6897   7.575  12.195   2.857  0.0548 -0.0066  0.5809
64973SOL    HW1 6898   7.565  12.252   2.933  1.9858  2.0383 -0.5651
64973SOL    HW2 6899   7.491  12.199   2.812 -0.0650  1.4370  0.8886
64974SOL     OW 6900   6.664   3.033   8.867 -0.6140  0.0465  0.0699
64974SOL    HW1 6901   6.725   3.086   8.815 -2.5457  1.7946 -0.5340
64974SOL    HW2 6902   6.676   2.944   8.835  2.1056  0.1781  0.4792
64975SOL     OW 6903   5.695   6.371   6.227 -0.1357  0.8640 -0.0516
64975SOL    HW1 6904   5.616   6.322   6.202 -0.8170  0.2133  2.9581
64975SOL    HW2 6905   5.763   6.304   6.234 -0.6819  0.4457  2.4678
64976SOL     OW 6906   4.064   7.212   9.397  0.2249 -0.5001  0.4289
64976SOL    HW1 6907   4.110   7.276   9.343  0.6680 -1.8008 -0.7835
64976SOL    HW2 6908   4.009   7.164   9.336  1.7404 -2.9227  0.8116
64977SOL     OW 6909  10.171   8.671   1.344 -0.0963 -0.5410 -0.4685
64977SOL    HW1 6910  10.162   8.694   1.252 -0.1400  0.3519 -0.2510
64977SOL    HW2 6911  10.094   8.617   1.363  0.2143 -1.2277 -1.0870
64978SOL     OW 6912   8.750   5.780  12.947 -0.2387  0.1420 -0.3131
64978SOL    HW1 6913   8.820   5.818  12.999  0.0165 -1.1441  0.3327
64978SOL    HW2 6914   8.729   5.697  12.991 -2.6740  0.8056 -0.0742
64979SOL     OW 6915   2.741   4.875   2.614 -0.2166 -0.3784  0.2321
64979SOL    HW1 6916   2.651   4.856   2.640 -0.3474 -0.5192 -0.3046
64979SOL    HW2 6917   2.746   4.970   2.609 -1.1169 -0.3764 -2.3041
64980SOL     OW 6918  13.747   6.945  11.387  0.6113  0.6674 -0.6551
64980SOL    HW1 6919  13.734   6.850  11.379  0.2788  0.6984 -0.5015
64980SOL    HW2 6920  13.690   6.983  11.320  2.1274  0.6886 -1.9790
64981SOL     OW 6921   0.714   1.382   0.106 -1.1077 -0.0998 -0.1037
64981SOL    HW1 6922   0.756   1.468   0.105 -2.4904  0.6074  0.5519
64981SOL    HW2 6923   0.761   1.332   0.039 -0.9543  1.4879 -1.2333
64982SOL     OW 6924  13.589   5.074   8.936 -0.2933  0.2975 -0.2983
64982SOL    HW1 6925  13.583   5.117   8.851 -1.5054  0.3972 -0.1840
64982SOL    HW2 6926  13.587   5.145   9.000  2.7768  0.3930 -0.1773
64983SOL     OW 6927   8.816   3.750   2.278  0.0960 -0.2016 -0.3207
64983SOL    HW1 6928   8.735   3.800   2.265 -0.5893 -0.8469  1.2052
64983SOL    HW2 6929   8.847   3.777   2.364 -1.4510 -3.8042  1.5768
64984SOL     OW 6930   5.203   9.459   7.044  0.1375  0.2817 -0.0615
64984SOL    HW1 6931   5.228   9.389   7.103  0.0162  0.7163  0.5166
64984SOL    HW2 6932   5.161   9.415   6.970  0.0613 -0.2490  0.2937
64985SOL     OW 6933   0.858  13.390   6.881  0.3566  0.1424  0.6574
64985SOL    HW1 6934   0.901  13.436   6.953 -2.2129  2.2095  1.0334
64985SOL    HW2 6935   0.855  13.454   6.810 -1.5442 -0.0809  0.4941
64986SOL     OW 6936  10.783   8.080   4.829 -0.6214  0.0306  0.2383
64986SOL    HW1 6937  10.812   8.042   4.747 -0.2204  1.3049 -0.2323
64986SOL    HW2 6938  10.846   8.048   4.894 -0.6778 -0.6129 -0.0154
64987SOL     OW 6939   3.452   0.696   0.921 -0.5007 -0.0216  0.1123
64987SOL    HW1 6940   3.530   0.751   0.917 -0.2201 -0.4041  0.2049
64987SOL    HW2 6941   3.471   0.624   0.861 -0.6829 -0.2403  0.3137
64988SOL     OW 6942  12.357   9.009   9.716  0.1204  0.2117 -0.0819
64988SOL    HW1 6943  12.318   8.974   9.636  1.0035 -1.4735  0.1778
64988SOL    HW2 6944  12.436   8.956   9.729  0.5218  1.1116  1.3699
64989SOL     OW 6945   1.084   7.370  12.106 -0.2287 -0.2608  0.0445
64989SOL    HW1 6946   1.021   7.309  12.146  1.1752 -0.6090  1.8613
64989SOL    HW2 6947   1.156   7.314  12.078  0.4408  0.3931  0.4318
64990SOL     OW 6948   4.592   6.242   9.169 -0.2221 -0.3268  0.4784
64990SOL    HW1 6949   4.561   6.210   9.253  1.0822 -2.2316  0.2937
64990SOL    HW2 6950   4.550   6.185   9.104 -1.2527  1.1475 -0.1995
64991SOL     OW 6951   0.493  10.388   4.830 -0.2382 -0.2489 -0.5779
64991SOL    HW1 6952   0.416  10.332   4.820  0.7112 -1.3932 -1.9432
64991SOL    HW2 6953   0.551  10.362   4.758  1.6516  0.2025  0.7051
64992SOL     OW 6954   9.257   2.581   8.784 -0.2126 -0.0627 -0.1927
64992SOL    HW1 6955   9.257   2.542   8.697 -0.7288 -1.2603  0.3236
64992SOL    HW2 6956   9.166   2.607   8.799 -0.8042 -2.5394  1.0972
64993SOL     OW 6957   4.609   4.894   7.437  0.0737 -0.1645 -0.0079
64993SOL    HW1 6958   4.524   4.878   7.396  1.1669 -0.9642 -2.1107
64993SOL    HW2 6959   4.635   4.808   7.472 -0.1109  0.1623  0.9877
64994SOL     OW 6960   1.556   7.638   4.936  0.2559 -0.2254  0.1522
64994SOL    HW1 6961   1.585   7.692   4.862  0.7453 -0.3068  0.2776
64994SOL    HW2 6962   1.499   7.572   4.897  0.9167 -0.5802 -0.2398
64995SOL     OW 6963   6.327   8.034   4.834 -0.1083 -0.2456  0.2709
64995SOL    HW1 6964   6.318   7.953   4.884  1.0647 -0.2309  0.5411
64995SOL    HW2 6965   6.344   8.101   4.900  0.0617  0.0209 -0.0416
64996SOL     OW 6966  10.627  13.513   4.696 -0.2544  0.3107 -0.0338
64996SOL    HW1 6967  10.584  13.428   4.689 -1.3343  0.7312  1.1255
64996SOL    HW2 6968  10.565  13.575   4.659 -0.9784  0.9960  2.1469
64997SOL     OW 6969   0.817   5.900   7.247  0.1632 -0.3221  0.3260
64997SOL    HW1 6970   0.793   5.860   7.163  1.4648 -0.2723 -0.0925
64997SOL    HW2 6971   0.733   5.921   7.288 -0.5119  0.3946 -1.3112
64998SOL     OW 6972  13.453   7.630   8.502 -0.5822  0.7913 -0.0744
64998SOL    HW1 6973  13.451   7.725   8.508 -0.0587  0.8390 -0.5721
64998SOL    HW2 6974  13.406   7.600   8.580 -2.2525  1.4725 -0.7771
64999SOL     OW 6975   7.475   7.460  10.267 -0.5206 -0.4795  0.3374
64999SOL    HW1 6976   7.467   7.509  10.185 -0.6139 -1.5464 -0.3072
64999SOL    HW2 6977   7.554   7.407  10.256 -0.6972 -0.8495  0.8168
65000SOL     OW 6978   2.707  13.273   1.906  0.7769  0.7217 -0.2768
65000SOL    HW1 6979   2.740  13.190   1.940  1.0422  0.2496 -1.5915
65000SOL    HW2 6980   2.776  13.336   1.925  1.9035  0.0237 -1.7649
65001SOL     OW 6981   7.325   1.905   8.514  0.0512  0.0459  0.0066
65001SOL    HW1 6982   7.359   1.822   8.481 -0.5476 -0.3421  0.3678
65001SOL    HW2 6983   7.234   1.907   8.485 -0.8009 -0.7514  2.4132
65002SOL     OW 6984  13.800   8.347   2.265  0.1743  0.7489 -0.5654
65002SOL    HW1 6985  13.819   8.263   2.225 -1.5503  1.4254 -3.0295
65002SOL    HW2 6986  13.794   8.329   2.359  0.5757 -1.6989 -0.9644
65003SOL     OW 6987  12.951   9.605   6.763  0.0189  0.1874  0.0938
65003SOL    HW1 6988  13.035   9.566   6.741  0.1421  0.5488 -0.0832
65003SOL    HW2 6989  12.886   9.539   6.738  0.2830 -0.4335  0.9937
65004SOL     OW 6990  13.856   1.075  10.572  0.1224 -0.1277  0.3410
65004SOL    HW1 6991  13.893   1.161  10.550 -0.4549 -0.0458 -0.3309
65004SOL    HW2 6992  13.771   1.096  10.612 -0.3597 -0.4069 -0.5210
65005SOL     OW 6993   9.999  12.442   7.146  0.4955 -0.1770  0.4012
65005SOL    HW1 6994  10.078  12.493   7.166  0.7908 -0.9018  1.1179
65005SOL    HW2 6995  10.014  12.408   7.058  0.8469 -0.0655  0.4158
65006SOL     OW 6996   4.757   3.761   5.631 -0.2635 -0.2787 -0.5781
65006SOL    HW1 6997   4.847   3.792   5.633 -0.5585  0.6345 -0.9654
65006SOL    HW2 6998   4.760   3.679   5.581  0.8100 -1.9247  1.9528
65007SOL     OW 6999   4.065  11.930   4.346  0.1712 -0.2833 -0.1849
65007SOL    HW1 7000   4.063  12.016   4.304  0.4684 -0.5066 -0.6707
65007SOL    HW2 7001   4.014  11.874   4.288  0.0361 -0.4533  0.0954
65008SOL     OW 7002   7.331  11.236   3.159  0.0367 -0.0022 -0.0098
65008SOL    HW1 7003   7.398  11.300   3.136  0.2926 -0.6931 -1.2733
65008SOL    HW2 7004   7.280  11.278   3.228 -1.1601  2.4892 -2.2479
65009SOL     OW 7005  13.123   2.105   5.486 -0.1479  0.5912 -0.7288
65009SOL    HW1 7006  13.192   2.129   5.424 -0.2970  3.9666  0.2087
65009SOL    HW2 7007  13.054   2.170   5.471 -0.6932  0.7820  2.1284
65010SOL     OW 7008  10.969   6.528   5.575  0.1804 -0.1221  0.2001
65010SOL    HW1 7009  11.005   6.575   5.651  0.3311 -0.6149  0.4361
65010SOL    HW2 7010  10.976   6.592   5.504 -0.4373  0.5276  0.7008
65011SOL     OW 7011   6.101  10.555  13.478 -0.0547 -0.3128  0.9818
65011SOL    HW1 7012   6.049  10.630  13.507 -0.8478 -1.2499  2.0786
65011SOL    HW2 7013   6.095  10.557  13.383 -1.4345  0.0679  1.0589
65012SOL     OW 7014   3.553   6.071  13.479 -0.0841 -0.0391  0.3090
65012SOL    HW1 7015   3.623   6.083  13.543  0.9381 -1.0083 -0.5746
65012SOL    HW2 7016   3.564   6.144  13.418  1.4083 -1.1706 -0.8804
65013SOL     OW 7017   4.395  12.476   2.253 -0.4029  0.0460  0.2323
65013SOL    HW1 7018   4.406  12.536   2.326  0.3187 -0.0932  0.2483
65013SOL    HW2 7019   4.322  12.512   2.202 -0.4696  0.5069  0.6529
65014SOL     OW 7020   7.400   0.688   2.685 -0.4231 -0.0809  0.4387
65014SOL    HW1 7021   7.345   0.697   2.763  0.6714  0.0626  1.2109
65014SOL    HW2 7022   7.488   0.707   2.716 -0.2192  2.0844 -1.2475
65015SOL     OW 7023   0.614  12.624   6.831  0.4540 -0.0475 -0.5694
65015SOL    HW1 7024   0.589  12.714   6.849  1.4829  0.8284 -3.1382
65015SOL    HW2 7025   0.546  12.592   6.772  0.0632 -1.0221  0.3700
65016SOL     OW 7026   8.580   6.776  10.821  0.3484 -0.9941 -0.0033
65016SOL    HW1 7027   8.523   6.839  10.866  0.6492 -1.0178  0.4184
65016SOL    HW2 7028   8.574   6.800  10.729 -0.4218 -1.0570  0.0287
65017SOL     OW 7029  12.333   7.058   6.369 -0.6134 -0.0266 -0.2332
65017SOL    HW1 7030  12.377   6.987   6.416 -2.3483  0.5747  2.5158
65017SOL    HW2 7031  12.250   7.069   6.415 -0.9680  2.9197 -1.3953
65018SOL     OW 7032  10.254  13.533   0.188 -0.4940 -0.3500 -0.0425
65018SOL    HW1 7033  10.203  13.608   0.218  0.7419 -0.4330  2.5656
65018SOL    HW2 7034  10.344  13.554   0.214  0.2380 -1.7400 -1.3339
65019SOL     OW 7035  10.394   0.284  10.128  1.0313  0.3967 -0.0379
65019SOL    HW1 7036  10.463   0.219  10.133  0.9534  0.4123  1.4748
65019SOL    HW2 7037  10.438   0.368  10.143  0.7970  0.4862  0.1498
65020SOL     OW 7038  13.056   6.257   3.569  0.1353  0.4404  0.0449
65020SOL    HW1 7039  13.035   6.188   3.632  0.9834 -0.8445 -1.0298
65020SOL    HW2 7040  13.121   6.312   3.613  0.0950  0.0595  0.5839
65021SOL     OW 7041  12.824   9.786   5.318 -0.3278 -0.2742  0.5617
65021SOL    HW1 7042  12.915   9.813   5.306 -0.5925  0.8911  1.0083
65021SOL    HW2 7043  12.809   9.720   5.250 -0.5524  2.9991 -2.8765
65022SOL     OW 7044   7.580   8.525  10.926 -0.0768 -0.4027 -0.0069
65022SOL    HW1 7045   7.486   8.519  10.944 -0.1184 -0.4450 -0.2394
65022SOL    HW2 7046   7.588   8.504  10.833  0.1226 -0.0132 -0.0808
65023SOL     OW 7047   4.661   3.256   3.373  0.4111 -0.6134 -0.2612
65023SOL    HW1 7048   4.582   3.272   3.424  0.7715 -0.5432  0.2887
65023SOL    HW2 7049   4.698   3.176   3.411  1.6102  0.3900  0.7714
65024SOL     OW 7050   2.659   1.648  12.335 -0.1230  0.2864  0.0472
65024SOL    HW1 7051   2.720   1.694  12.392 -1.3303  1.3351  0.5524
65024SOL    HW2 7052   2.705   1.640  12.251  0.5495  1.4219  0.2923
65025SOL     OW 7053   3.112   7.027  10.623 -0.2693 -0.3884 -0.0861
65025SOL    HW1 7054   3.156   6.953  10.665 -0.1323 -0.7841 -0.8936
65025SOL    HW2 7055   3.162   7.104  10.649  0.3959 -0.7386 -0.3114
65026SOL     OW 7056   8.953  12.021   8.155 -0.5470  0.1357  0.3230
65026SOL    HW1 7057   8.942  11.988   8.244  0.9134 -2.1984 -0.2695
65026SOL    HW2 7058   8.866  12.016   8.117 -0.9125 -0.2645  1.1730
65027SOL     OW 7059  10.552   6.921   9.018 -0.1437  0.1405  0.0468
65027SOL    HW1 7060  10.640   6.937   8.982 -0.8999  0.4357 -1.7929
65027SOL    HW2 7061  10.565   6.853   9.084  1.6894  1.2697  0.9466
65028SOL     OW 7062   0.271   1.764   1.700 -0.0349  0.3903 -0.5262
65028SOL    HW1 7063   0.345   1.723   1.744  0.4550  0.5829 -1.1597
65028SOL    HW2 7064   0.217   1.800   1.771 -1.2496 -2.5499  0.1892
65029SOL     OW 7065   0.586   8.005  12.250  0.0392  0.0895  0.2635
65029SOL    HW1 7066   0.548   7.920  12.272 -0.4202  0.2725  0.1816
65029SOL    HW2 7067   0.670   8.006  12.297  0.1118 -0.4598  0.1603
65030SOL     OW 7068   0.099   3.885   2.052 -0.0554  0.4090  0.3228
65030SOL    HW1 7069   0.135   3.880   1.963  0.8440  1.3515  0.6127
65030SOL    HW2 7070   0.010   3.918   2.039  0.5452  1.9549 -0.1733
65031SOL     OW 7071   7.934   4.531   4.460  0.2860  0.7520  0.1314
65031SOL    HW1 7072   7.981   4.454   4.426  3.0264  2.9827 -1.5876
65031SOL    HW2 7073   7.885   4.564   4.384 -0.1975  1.1877  0.6282
65032SOL     OW 7074  11.172  11.153   9.626  0.4383  0.4568  0.0539
65032SOL    HW1 7075  11.191  11.241   9.658 -1.0397  0.5992  0.6410
65032SOL    HW2 7076  11.096  11.125   9.678  0.6412 -1.0086 -0.3980
65033SOL     OW 7077  12.622   0.171  10.848  0.3835 -0.1389 -0.0011
65033SOL    HW1 7078  12.559   0.221  10.901  0.3821  0.0754 -0.2035
65033SOL    HW2 7079  12.578   0.158  10.764  0.0904 -1.1106  0.2901
65034SOL     OW 7080   6.617   0.773   3.923  0.0600 -0.1712 -0.0002
65034SOL    HW1 7081   6.588   0.694   3.970  0.5639  0.1889  0.9422
65034SOL    HW2 7082   6.600   0.753   3.831 -1.5936 -0.6338  0.3709
65035SOL     OW 7083  12.528   8.270  12.440 -0.1253 -0.0642  0.6838
65035SOL    HW1 7084  12.614   8.228  12.440 -0.7197 -1.3643  1.3239
65035SOL    HW2 7085  12.482   8.232  12.365 -0.5360 -0.2620  1.0283
65036SOL     OW 7086   3.948   0.024   0.181  0.1932 -0.3318  0.3881
65036SOL    HW1 7087   3.861   0.060   0.167 -0.7444 -2.5441  0.1127
65036SOL    HW2 7088   4.007   0.088   0.139 -1.1203  1.8149  1.6386
65037SOL     OW 7089  10.656   5.922  11.479 -0.1095  0.5302  0.0618
65037SOL    HW1 7090  10.683   5.833  11.498 -0.7338  0.3479  0.1043
65037SOL    HW2 7091  10.676   5.934  11.386  0.2089  0.4328  0.1176
65038SOL     OW 7092   5.719   6.769   0.813  0.3432 -0.3292  0.0004
65038SOL    HW1 7093   5.707   6.822   0.735  2.0500  0.4584  0.2272
65038SOL    HW2 7094   5.751   6.685   0.780  1.8005  0.2528 -0.1456
65039SOL     OW 7095   0.374   4.638   7.039 -0.1625  0.2349 -0.0907
65039SOL    HW1 7096   0.467   4.640   7.019  0.1909 -0.3261  1.3817
65039SOL    HW2 7097   0.345   4.728   7.026  1.3111  1.2008  2.5144
65040SOL     OW 7098   0.479  10.295  10.048  0.2147  0.2669  0.0692
65040SOL    HW1 7099   0.487  10.326  10.138 -0.2722 -2.8065  1.2832
65040SOL    HW2 7100   0.389  10.315  10.023 -0.6409 -1.5388  1.4628
65041SOL     OW 7101  10.568   3.877  12.411  0.0374 -0.2007 -0.1016
65041SOL    HW1 7102  10.524   3.876  12.327  0.8968 -1.3077 -0.5646
65041SOL    HW2 7103  10.519   3.941  12.463 -0.2880  0.7647 -1.5405
65042SOL     OW 7104   4.878   2.313  13.347 -0.2532  0.4961 -0.5568
65042SOL    HW1 7105   4.793   2.278  13.373 -0.1902  0.4136 -0.4597
65042SOL    HW2 7106   4.935   2.298  13.423 -0.3093  1.1199 -0.3864
65043SOL     OW 7107   7.359   7.326   6.675 -0.0390  0.3791  0.4777
65043SOL    HW1 7108   7.303   7.250   6.688  0.7289 -0.1358  0.8627
65043SOL    HW2 7109   7.427   7.296   6.614 -1.0042  1.4324 -1.2093
65044SOL     OW 7110   9.370   7.308   5.250 -0.7002  0.0222  0.2772
65044SOL    HW1 7111   9.460   7.291   5.276 -0.0313  2.0148 -0.5435
65044SOL    HW2 7112   9.328   7.222   5.251  1.8613 -1.3856 -1.8225
65045SOL     OW 7113   6.051  10.893   5.236 -0.0857  0.1636  0.1353
65045SOL    HW1 7114   6.001  10.959   5.284  1.4983  2.1257 -0.7873
65045SOL    HW2 7115   6.003  10.883   5.153 -0.5650 -0.2028  0.4479
65046SOL     OW 7116   7.398  12.922   1.744  0.6060 -0.5809  0.3052
65046SOL    HW1 7117   7.392  12.936   1.649  0.6495 -0.2801  0.3470
65046SOL    HW2 7118   7.405  13.010   1.781 -0.1233 -0.6521  0.6412
65047SOL     OW 7119  12.433  12.436   6.160  0.1252  0.1387  0.3143
65047SOL    HW1 7120  12.425  12.490   6.082  1.9266 -0.7363 -0.5353
65047SOL    HW2 7121  12.343  12.412   6.182 -0.4759  1.0445 -1.0044
65048SOL     OW 7122   6.363  13.177  10.455 -0.5617  0.1352  0.0239
65048SOL    HW1 7123   6.295  13.197  10.391  1.0117  0.4072 -1.6304
65048SOL    HW2 7124   6.439  13.152  10.403  1.1050  1.3691  1.7264
65049SOL     OW 7125   0.675   5.649   1.191  0.1729  0.8965  0.1542
65049SOL    HW1 7126   0.620   5.597   1.248  0.3152  0.1680 -0.3592
65049SOL    HW2 7127   0.717   5.713   1.249 -0.7458  1.0767  0.6343
65050SOL     OW 7128   8.719   8.666   1.510  0.2681  0.3640 -0.3169
65050SOL    HW1 7129   8.672   8.590   1.546  1.2497 -0.3069 -0.4178
65050SOL    HW2 7130   8.745   8.716   1.587  0.6912 -0.0561 -0.1852
65051SOL     OW 7131   4.124  11.144   9.765  0.5686 -0.5864  0.0143
65051SOL    HW1 7132   4.159  11.082   9.702 -0.5303 -0.5498 -0.6676
65051SOL    HW2 7133   4.094  11.090   9.838  0.9080 -0.7287  0.0472
65052SOL     OW 7134  11.332   7.821  12.822  0.2771  0.4643 -0.2105
65052SOL    HW1 7135  11.282   7.754  12.869  1.8218  0.1185  1.0485
65052SOL    HW2 7136  11.417   7.823  12.867  0.1768  3.5442  0.0820
65053SOL     OW 7137   3.184   7.364  11.384 -0.0618 -0.1410  0.3212
65053SOL    HW1 7138   3.163   7.294  11.445  2.0075 -0.6958  0.4952
65053SOL    HW2 7139   3.154   7.332  11.299  0.8632 -1.2909  0.3960
65054SOL     OW 7140  10.599   5.769   2.036 -0.0219  0.5218  0.0464
65054SOL    HW1 7141  10.655   5.775   2.114 -0.5912  0.4077  0.4719
65054SOL    HW2 7142  10.650   5.719   1.973  0.5326  0.7979  0.2675
65055SOL     OW 7143   0.634   5.258  12.698  0.1648  0.4842 -0.4458
65055SOL    HW1 7144   0.584   5.240  12.778 -0.3275  1.6605 -0.4782
65055SOL    HW2 7145   0.717   5.292  12.729  0.9185 -1.2713 -0.3988
65056SOL     OW 7146   4.295   5.374   4.116  0.1574 -0.0416 -0.7277
65056SOL    HW1 7147   4.307   5.283   4.140 -1.8710 -0.5012 -1.2529
65056SOL    HW2 7148   4.291   5.421   4.199  0.0018 -0.6110 -0.4093
65057SOL     OW 7149   2.966   2.700   5.444 -0.1288  0.2076 -0.4125
65057SOL    HW1 7150   3.013   2.724   5.364  0.5585  0.4878  0.0635
65057SOL    HW2 7151   3.022   2.636   5.487 -1.2713 -1.2076 -0.9454
65058SOL     OW 7152   4.694   9.626   2.143 -0.5174 -0.4294  0.0200
65058SOL    HW1 7153   4.783   9.656   2.159 -1.5395  1.7341  2.4865
65058SOL    HW2 7154   4.670   9.664   2.059  0.0900  1.1231  0.5098
65059SOL     OW 7155  12.457  11.491   2.260 -0.6067 -0.4261  0.0766
65059SOL    HW1 7156  12.435  11.411   2.308 -2.9650 -1.9580 -3.1744
65059SOL    HW2 7157  12.412  11.561   2.309  0.4116 -1.1999  2.2452
65060SOL     OW 7158  10.343   1.627   7.110 -0.7051  0.2153  0.2584
65060SOL    HW1 7159  10.303   1.550   7.071  0.5875 -0.0385 -0.6410
65060SOL    HW2 7160  10.432   1.629   7.073 -0.4590  1.6898  0.8661
65061SOL     OW 7161   7.463   8.534   7.741  0.1386  0.0829  0.3085
65061SOL    HW1 7162   7.444   8.447   7.708 -0.4040 -0.1038  1.1060
65061SOL    HW2 7163   7.548   8.556   7.701 -0.7580  0.1307 -1.6958
65062SOL     OW 7164   3.619  10.682  10.964 -0.0526 -0.0165 -0.4790
65062SOL    HW1 7165   3.641  10.590  10.955 -0.9104 -0.5656  2.1700
65062SOL    HW2 7166   3.536  10.683  11.013 -0.2900  2.1490 -0.7962
65063SOL     OW 7167  12.585   0.037   5.189  0.3513 -0.1015 -0.6566
65063SOL    HW1 7168  12.548  -0.019   5.258 -1.8629  0.8812 -0.9626
65063SOL    HW2 7169  12.510   0.061   5.135  2.0897 -1.4687 -3.9412
65064SOL     OW 7170   9.306  10.713   8.899  0.0220 -0.4753 -0.0481
65064SOL    HW1 7171   9.266  10.716   8.986  0.5949 -0.0066  0.1993
65064SOL    HW2 7172   9.240  10.670   8.844  0.1407 -1.9191  0.8788
65065SOL     OW 7173   2.765  11.824   8.643  0.0396  0.0141  0.1929
65065SOL    HW1 7174   2.795  11.864   8.725 -1.2839 -0.7601  1.1008
65065SOL    HW2 7175   2.684  11.871   8.622  0.5755  0.4847 -0.9273
65066SOL     OW 7176   1.773   5.203  10.378  0.0680 -0.4548  0.1900
65066SOL    HW1 7177   1.819   5.132  10.333 -0.3626  0.1003 -1.2088
65066SOL    HW2 7178   1.742   5.259  10.307  0.2021  1.0104  1.2471
65067SOL     OW 7179  10.363  10.531   5.197  0.0717 -0.0687 -0.0959
65067SOL    HW1 7180  10.413  10.569   5.125 -0.4096 -0.1736 -0.4918
65067SOL    HW2 7181  10.425  10.473   5.241 -0.1046 -1.4556 -1.5494
65068SOL     OW 7182   3.278   4.676   5.952  0.3016 -0.3448 -0.3036
65068SOL    HW1 7183   3.221   4.600   5.947  3.3313 -2.9473  0.9922
65068SOL    HW2 7184   3.326   4.665   6.034  0.4249  3.4276  0.3185
65069SOL     OW 7185   3.900   3.000   1.074  1.0711  0.5430 -0.2653
65069SOL    HW1 7186   3.852   2.933   1.026  0.8876 -0.1157  0.7932
65069SOL    HW2 7187   3.875   3.083   1.033 -0.4525  0.1487 -0.1614
65070SOL     OW 7188   3.331   5.837   6.735 -0.6071  0.3432 -0.0801
65070SOL    HW1 7189   3.271   5.788   6.678 -0.9738  0.7527 -0.0564
65070SOL    HW2 7190   3.282   5.849   6.816 -0.7234  1.1734 -0.2609
65071SOL     OW 7191   6.127   3.170   5.198  0.0692  0.2176  0.3939
65071SOL    HW1 7192   6.201   3.210   5.244  1.0272  0.8226 -1.5411
65071SOL    HW2 7193   6.167   3.103   5.143 -1.3120 -2.1323  2.1210
65072SOL     OW 7194   5.330  10.508  10.617  0.2736  0.1953 -0.2059
65072SOL    HW1 7195   5.380  10.535  10.694  1.0825  0.7181 -0.8943
65072SOL    HW2 7196   5.321  10.588  10.565 -0.2543 -0.1533 -0.6665
65073SOL     OW 7197   5.591   3.068  11.070 -0.5635 -0.1331 -0.2402
65073SOL    HW1 7198   5.529   3.041  11.003 -0.9198  0.3311 -0.1067
65073SOL    HW2 7199   5.544   3.135  11.120  0.4874  1.1185 -0.8968
65074SOL     OW 7200  10.690   7.662   5.321 -0.2040  0.6855 -0.2464
65074SOL    HW1 7201  10.720   7.577   5.354  1.0866  1.1697 -0.0920
65074SOL    HW2 7202  10.764   7.721   5.338  0.0694  1.2299 -2.9137
65075SOL     OW 7203  13.791   0.202   5.552 -0.2476 -0.1162  0.2596
65075SOL    HW1 7204  13.777   0.265   5.623 -0.1541  0.1088  0.0832
65075SOL    HW2 7205  13.709   0.154   5.546 -0.1751 -0.2886  0.6684
65076SOL     OW 7206   3.420   0.253  11.902  0.4159  0.0740 -0.4405
65076SOL    HW1 7207   3.477   0.273  11.827  0.6033  0.6828 -0.1394
65076SOL    HW2 7208   3.466   0.289  11.977 -0.6929  1.1908 -0.2721
65077SOL     OW 7209  12.464   7.476   9.046  0.0984 -0.5155 -0.1966
65077SOL    HW1 7210  12.389   7.472   9.105  0.2974 -0.9504  0.0324
65077SOL    HW2 7211  12.492   7.385   9.036  1.0802 -0.2948  0.3616
65078SOL     OW 7212   5.465   1.905  10.525 -0.2145  0.1424 -0.2227
65078SOL    HW1 7213   5.478   1.848  10.600 -0.1998  0.0705 -0.2809
65078SOL    HW2 7214   5.413   1.978  10.560  0.7081  0.6498  0.1090
65079SOL     OW 7215   5.919   3.197   1.060  0.3223 -0.3834  0.2314
65079SOL    HW1 7216   5.981   3.182   0.989 -0.4530  1.6886 -0.9807
65079SOL    HW2 7217   5.834   3.170   1.024 -0.4823  2.8855 -0.6561
65080SOL     OW 7218   8.522  11.047   4.027 -0.1606 -0.5781  0.1413
65080SOL    HW1 7219   8.489  11.137   4.034  0.7646 -0.2993  1.0428
65080SOL    HW2 7220   8.507  11.024   3.935  1.6694  1.3485 -0.7236
65081SOL     OW 7221  10.835   2.828   7.030 -0.6253  0.1984  0.3162
65081SOL    HW1 7222  10.816   2.922   7.033 -2.0606 -0.0426 -0.5600
65081SOL    HW2 7223  10.750   2.786   7.042 -0.0197 -1.0004  0.5561
65082SOL     OW 7224   0.653   7.143   0.732  0.4927  0.4856 -0.3919
65082SOL    HW1 7225   0.690   7.216   0.683 -0.7499  0.2161 -1.8009
65082SOL    HW2 7226   0.577   7.180   0.778  0.9417  0.4697  0.3749
65083SOL     OW 7227   8.586  12.384  11.377 -0.0588  0.4579 -0.0470
65083SOL    HW1 7228   8.532  12.460  11.398  0.2215  0.8876 -0.8432
65083SOL    HW2 7229   8.613  12.398  11.286 -1.1580 -1.2936 -0.6986
65084SOL     OW 7230  10.334   9.888  10.609  0.3553  0.2828 -0.4959
65084SOL    HW1 7231  10.363   9.798  10.596  2.4623  0.9576 -0.7999
65084SOL    HW2 7232  10.304   9.890  10.700 -0.0128 -0.7804 -0.5764
65085SOL     OW 7233   0.313   3.489  10.772  0.1267  0.0707  0.2998
65085SOL    HW1 7234   0.374   3.416  10.782 -2.1779 -2.1912 -0.7974
65085SOL    HW2 7235   0.367   3.568  10.781  2.7656 -1.7404  1.4614
65086SOL     OW 7236   0.760   9.295  13.325  0.1376  0.1365  0.2041
65086SOL    HW1 7237   0.742   9.385  13.297 -0.3229  0.3265  1.0784
65086SOL    HW2 7238   0.730   9.292  13.416  0.4267 -0.8202  0.2731
65087SOL     OW 7239  10.353  10.103  12.134  0.3306 -0.1295  0.4211
65087SOL    HW1 7240  10.403  10.148  12.202  2.7925 -0.3420 -1.1194
65087SOL    HW2 7241  10.370  10.010  12.150 -0.2505 -0.2515  0.3457
65088SOL     OW 7242   4.153   1.398  11.499 -0.0556 -0.2069 -0.4019
65088SOL    HW1 7243   4.111   1.427  11.418  0.6541  0.5307 -0.5198
65088SOL    HW2 7244   4.087   1.412  11.567 -0.0701  0.8147 -0.6035
65089SOL     OW 7245  11.439  11.583   6.212  0.7661 -0.0259  0.5823
65089SOL    HW1 7246  11.502  11.577   6.284  1.1458 -1.5274  0.1631
65089SOL    HW2 7247  11.378  11.511   6.227  1.1228 -0.6618 -0.8237
65090SOL     OW 7248   7.719  13.909  10.546 -0.3384 -0.5000 -0.0545
65090SOL    HW1 7249   7.711  13.938  10.637 -1.0150  0.2211 -0.3361
65090SOL    HW2 7250   7.727  13.814  10.552  1.4644 -0.3260  0.8638
65091SOL     OW 7251   2.918  12.487  12.118 -0.2102 -0.1364  0.2129
65091SOL    HW1 7252   2.946  12.443  12.199 -0.8495  1.5326  1.3953
65091SOL    HW2 7253   2.956  12.575  12.124  0.1913 -0.1442 -1.6030
65092SOL     OW 7254   9.682  11.217   3.609  0.1625 -0.1539  0.2818
65092SOL    HW1 7255   9.760  11.263   3.642  0.1356  0.3258 -0.3035
65092SOL    HW2 7256   9.616  11.230   3.676 -0.0454  1.2402 -0.1451
65093SOL     OW 7257   8.641   4.818   4.116  0.1774 -0.1655 -0.2872
65093SOL    HW1 7258   8.727   4.830   4.075  0.4805  0.8285  0.5826
65093SOL    HW2 7259   8.659   4.824   4.210 -0.6742 -1.1896 -0.0377
65094SOL     OW 7260   9.131  13.015   0.831 -0.5187 -0.9502  0.1224
65094SOL    HW1 7261   9.131  12.991   0.738 -0.3762  2.5574 -0.9271
65094SOL    HW2 7262   9.047  12.983   0.864 -1.6612 -0.2098 -1.8936
65095SOL     OW 7263   7.540  13.124   1.665 -0.4825 -0.0459 -0.1488
65095SOL    HW1 7264   7.605  13.170   1.718 -0.4226  0.1806 -0.4144
65095SOL    HW2 7265   7.592  13.066   1.609 -0.4287  0.8368 -1.0466
65096SOL     OW 7266   3.231   7.068   0.911  0.2972 -0.0300 -0.0806
65096SOL    HW1 7267   3.269   7.118   0.984 -0.8236  2.1219 -0.8677
65096SOL    HW2 7268   3.280   7.097   0.835  0.0421 -0.6318 -0.4768
65097SOL     OW 7269   0.701  12.318  12.138  0.8532 -0.0374  0.3394
65097SOL    HW1 7270   0.754  12.332  12.060  1.6648 -0.6034  0.7715
65097SOL    HW2 7271   0.753  12.354  12.210  0.5327 -0.3467  0.7357
65098SOL     OW 7272   7.043   8.381   9.408 -0.2230 -0.0312  0.2384
65098SOL    HW1 7273   7.027   8.292   9.377 -0.5131  0.4547 -1.0624
65098SOL    HW2 7274   7.135   8.381   9.434 -0.0006 -0.4948 -0.5257
65099SOL     OW 7275   6.493   9.301   0.649 -0.1030  0.0737  0.3140
65099SOL    HW1 7276   6.482   9.226   0.590  1.5316 -0.1592  0.2667
65099SOL    HW2 7277   6.413   9.352   0.637 -0.7769 -1.1006 -0.4566
65100SOL     OW 7278   4.610   6.352   6.201  0.1754  0.0266  0.0360
65100SOL    HW1 7279   4.545   6.308   6.256  0.4446  0.2559  0.5455
65100SOL    HW2 7280   4.687   6.296   6.206  0.3257  0.2472  0.2118
65101SOL     OW 7281   2.038   2.216   1.262  0.3319  0.6047  0.2087
65101SOL    HW1 7282   2.056   2.229   1.355 -1.1445  0.5248  0.5385
65101SOL    HW2 7283   2.103   2.153   1.233 -0.4953 -1.0275  1.7302
65102SOL     OW 7284   0.319  12.140   1.596 -0.4409 -1.1143  0.0595
65102SOL    HW1 7285   0.242  12.154   1.541 -0.4081  1.2893  0.5006
65102SOL    HW2 7286   0.382  12.205   1.566  0.1247 -0.7404  1.9274
65103SOL     OW 7287   3.794   8.773  11.611 -0.6209  0.2425  0.5177
65103SOL    HW1 7288   3.849   8.792  11.535 -1.9096 -1.8261 -1.0699
65103SOL    HW2 7289   3.846   8.714  11.666 -0.3362  0.2657  0.2697
65104SOL     OW 7290   7.313   5.862   3.048  0.1701 -0.4990 -0.5781
65104SOL    HW1 7291   7.228   5.844   3.087 -0.0733  1.9675  0.1913
65104SOL    HW2 7292   7.319   5.802   2.974 -1.9855 -1.1122 -0.3089
65105SOL     OW 7293   6.152   1.512  13.634 -0.0487  0.2573  0.3097
65105SOL    HW1 7294   6.082   1.458  13.598  0.2030 -0.1982  0.4816
65105SOL    HW2 7295   6.226   1.498  13.575  0.2983 -0.3213  0.8584
65106SOL     OW 7296   0.942   8.946   1.451  0.2583  0.1374 -0.1796
65106SOL    HW1 7297   0.923   8.917   1.541  0.2169 -0.1842 -0.2899
65106SOL    HW2 7298   1.034   8.973   1.454 -0.0166  1.0565  0.1940
65107SOL     OW 7299   4.037   8.698   5.893  0.1241 -0.0738  0.4273
65107SOL    HW1 7300   3.946   8.674   5.906  0.1685  0.5026  2.0262
65107SOL    HW2 7301   4.038   8.793   5.902  0.7744  0.0123 -0.4012
65108SOL     OW 7302  12.344   9.821  10.489  0.1235 -0.3366  0.5341
65108SOL    HW1 7303  12.412   9.885  10.509  1.2052 -1.1800 -0.3330
65108SOL    HW2 7304  12.262   9.866  10.509  0.8273  1.5121 -0.4940
65109SOL     OW 7305   1.253   3.916   3.333 -0.1947  0.4950  0.0845
65109SOL    HW1 7306   1.218   3.997   3.296 -0.9299  0.9147  1.5932
65109SOL    HW2 7307   1.348   3.931   3.338 -0.1381  0.6155 -1.1099
65110SOL     OW 7308   9.017  13.040   2.225 -0.9155 -0.1456  0.5575
65110SOL    HW1 7309   9.109  13.027   2.252 -0.9206 -2.4060 -0.2632
65110SOL    HW2 7310   9.003  13.134   2.233  1.7308  0.3973 -0.0925
65111SOL     OW 7311   6.497   5.605   2.372 -0.2678  0.2468  0.7886
65111SOL    HW1 7312   6.431   5.664   2.409 -0.3371  0.7984 -0.1803
65111SOL    HW2 7313   6.459   5.574   2.290  0.6196  0.4836  0.2738
65112SOL     OW 7314   0.820   3.095   0.947  0.5183  0.0740  0.2296
65112SOL    HW1 7315   0.836   3.064   0.858  0.7639 -0.3534  0.4184
65112SOL    HW2 7316   0.853   3.185   0.947 -2.3367  1.2297 -0.9898
65113SOL     OW 7317   9.922  12.857  13.403  0.0428 -0.0917  0.4731
65113SOL    HW1 7318   9.942  12.864  13.496  0.2027 -1.1410  0.5348
65113SOL    HW2 7319   9.868  12.933  13.384  0.9549  0.7450  1.1562
65114SOL     OW 7320   3.920   9.230  11.791  0.1519 -0.3567 -0.1223
65114SOL    HW1 7321   3.977   9.222  11.867 -0.2678 -1.1052  0.1332
65114SOL    HW2 7322   3.911   9.140  11.759 -1.2639 -0.3341  0.1430
65115SOL     OW 7323  11.311   8.336  13.987 -0.6201 -0.0454  0.8664
65115SOL    HW1 7324  11.363   8.258  14.003 -0.9414 -0.6359 -0.7368
65115SOL    HW2 7325  11.353   8.405  14.038  0.9470 -0.7898  0.6181
65116SOL     OW 7326   7.824   4.861   2.000  0.1746 -0.1217 -0.0525
65116SOL    HW1 7327   7.882   4.908   1.940  1.9190 -0.3293  1.3647
65116SOL    HW2 7328   7.736   4.887   1.974  0.8710  0.1257 -2.3904
65117SOL     OW 7329  11.203   1.782   8.554 -0.1589  0.2193 -0.0502
65117SOL    HW1 7330  11.292   1.764   8.525 -0.0687  0.5349  0.0241
65117SOL    HW2 7331  11.187   1.873   8.530 -1.2151 -0.4145 -1.9544
65118SOL     OW 7332   8.304   5.910  10.862 -0.9453  0.2064  0.1619
65118SOL    HW1 7333   8.291   6.003  10.879  2.2632  0.9841 -1.0156
65118SOL    HW2 7334   8.366   5.907  10.789 -1.9097 -2.8885 -0.6882
65119SOL     OW 7335   9.777   5.910   7.129  0.1309 -0.5504  0.6685
65119SOL    HW1 7336   9.692   5.900   7.085  1.0688 -0.6558 -1.2175
65119SOL    HW2 7337   9.815   5.822   7.126  0.1466 -0.6048  1.9193
65120SOL     OW 7338   4.107   4.958  13.145 -0.0417  0.1017  0.2235
65120SOL    HW1 7339   4.067   5.026  13.200 -1.6444 -0.5969 -0.0160
65120SOL    HW2 7340   4.101   4.878  13.198  0.2905 -0.1719 -0.1508
65121SOL     OW 7341   9.512   2.888  12.498 -0.1037 -0.7896 -0.0510
65121SOL    HW1 7342   9.428   2.922  12.467  0.1902  0.2768  0.2730
65121SOL    HW2 7343   9.570   2.891  12.422 -0.2539 -1.1707 -0.1811
65122SOL     OW 7344   4.460  10.390   9.161 -0.1124 -0.4097 -0.4066
65122SOL    HW1 7345   4.385  10.413   9.106 -0.0277  1.7298  0.2651
65122SOL    HW2 7346   4.529  10.451   9.134  0.3876 -0.2784  1.0509
65123SOL     OW 7347   5.766   6.385   9.635  0.0037  0.4743  0.3264
65123SOL    HW1 7348   5.740   6.392   9.543 -1.6378  0.4199  0.7479
65123SOL    HW2 7349   5.861   6.388   9.634  0.0686 -0.9351 -1.4980
65124SOL     OW 7350   2.258   1.644  12.068  0.0261 -0.4490 -0.3025
65124SOL    HW1 7351   2.319   1.574  12.091 -0.5263 -1.0017 -0.4786
65124SOL    HW2 7352   2.311   1.723  12.069  0.7016 -0.8883 -0.2529
65125SOL     OW 7353   8.245  14.011   5.087 -0.1362  0.2613  0.1390
65125SOL    HW1 7354   8.284  13.927   5.113 -0.4221  1.0555  3.6299
65125SOL    HW2 7355   8.155  13.988   5.060  0.7623 -0.8454 -2.2240
65126SOL     OW 7356   1.916   7.542   2.473  0.2127 -0.5507  0.4000
65126SOL    HW1 7357   1.927   7.551   2.568  1.3066  1.3485  0.1355
65126SOL    HW2 7358   1.883   7.452   2.462 -0.3780 -0.6801  2.5851
65127SOL     OW 7359  11.411   9.875   2.346  0.3433 -0.0458 -0.4516
65127SOL    HW1 7360  11.421   9.891   2.440 -1.3601  3.1658 -0.6527
65127SOL    HW2 7361  11.500   9.879   2.311  0.7929  1.3717  0.7418
65128SOL     OW 7362   4.877   7.714   3.669  0.3190 -0.0328  0.0578
65128SOL    HW1 7363   4.799   7.684   3.622 -0.2913  0.7059  0.5603
65128SOL    HW2 7364   4.941   7.643   3.658  0.4634  0.3850 -2.4442
65129SOL     OW 7365   6.363  11.319   6.869  0.3278 -0.4007 -0.1929
65129SOL    HW1 7366   6.441  11.366   6.900  0.3233 -0.9091  0.6489
65129SOL    HW2 7367   6.290  11.360   6.915  0.4146 -1.7832  1.3229
65130SOL     OW 7368   3.456   4.139   5.423 -0.5371  0.0464  0.0659
65130SOL    HW1 7369   3.474   4.164   5.333 -0.3841 -1.2459 -0.2751
65130SOL    HW2 7370   3.424   4.219   5.464 -0.5302  0.6666 -1.1089
65131SOL     OW 7371   6.540  12.243  12.051  0.8428 -0.0407  0.0803
65131SOL    HW1 7372   6.457  12.206  12.082  0.3214 -0.8360 -2.0754
65131SOL    HW2 7373   6.514  12.311  11.990  1.7946  0.1423 -0.1304
65132SOL     OW 7374   7.941   2.697   3.750  0.0583  0.1336  0.0208
65132SOL    HW1 7375   7.858   2.660   3.781 -0.6426  0.5225 -1.3116
65132SOL    HW2 7376   8.008   2.646   3.796 -0.9035 -0.1593  1.1620
65133SOL     OW 7377   3.583   9.739   1.998  0.0602  0.2959  0.4563
65133SOL    HW1 7378   3.652   9.674   1.984  1.9141  1.9452  1.4668
65133SOL    HW2 7379   3.535   9.741   1.916  2.0630  0.0310 -0.7837
65134SOL     OW 7380  10.836   7.969   9.041  0.1734 -0.3617  0.4420
65134SOL    HW1 7381  10.905   7.968   8.975 -0.6811  0.1559 -0.5037
65134SOL    HW2 7382  10.843   7.884   9.085 -1.1981 -2.1432 -2.4813
65135SOL     OW 7383  12.641   4.082  11.264 -0.0626 -0.0828 -0.1261
65135SOL    HW1 7384  12.552   4.112  11.281  0.1812  0.9214 -0.5716
65135SOL    HW2 7385  12.650   4.087  11.169  0.9342  1.2020  0.0142
65136SOL     OW 7386  13.873   5.743   8.412  0.0368 -0.0768 -0.8152
65136SOL    HW1 7387  13.928   5.724   8.488 -1.2528 -1.0785 -0.0894
65136SOL    HW2 7388  13.896   5.832   8.387 -0.0672  0.5702  1.2592
65137SOL     OW 7389   2.139   3.326   0.816 -0.1604  0.1022 -0.4702
65137SOL    HW1 7390   2.158   3.325   0.910 -0.6991 -0.7180 -0.3577
65137SOL    HW2 7391   2.156   3.416   0.789  1.5376 -0.0252  0.0815
65138SOL     OW 7392   1.050   3.780   5.734 -0.6118  0.4630  0.0071
65138SOL    HW1 7393   1.053   3.861   5.785 -0.6368 -0.9550  2.3617
65138SOL    HW2 7394   1.134   3.777   5.688  0.2884  0.8119  1.5711
65139SOL     OW 7395  10.849  13.157   7.315 -0.6637  0.0487 -0.0117
65139SOL    HW1 7396  10.814  13.112   7.392  0.3956 -3.1833 -1.2710
65139SOL    HW2 7397  10.941  13.174   7.337 -0.4009 -0.7380 -0.4872
65140SOL     OW 7398  13.373   9.551   0.083  0.3057  0.2669  0.3244
65140SOL    HW1 7399  13.353   9.494   0.008 -0.1053 -0.1391  0.7435
65140SOL    HW2 7400  13.459   9.520   0.113 -0.3803 -0.8416  1.2051
65141SOL     OW 7401   5.404   0.338   1.349 -0.0681 -0.2699  0.4166
65141SOL    HW1 7402   5.368   0.369   1.266  0.8350 -2.2885 -0.7937
65141SOL    HW2 7403   5.416   0.417   1.401  0.0754  1.1527 -1.6651
65142SOL     OW 7404   9.171   2.960   5.006  0.1108 -0.3888 -0.0339
65142SOL    HW1 7405   9.115   2.997   4.937  1.3706 -1.7161 -1.8819
65142SOL    HW2 7406   9.228   3.032   5.033  0.9955 -0.3163 -1.9254
65143SOL     OW 7407   4.524   0.741   8.637  0.1595 -0.2938  0.2629
65143SOL    HW1 7408   4.472   0.798   8.695  0.3735  0.6142 -0.4169
65143SOL    HW2 7409   4.560   0.801   8.572  0.8388 -1.1467 -0.1497
65144SOL     OW 7410  10.405   9.365   8.685 -0.5652  0.2500 -0.3026
65144SOL    HW1 7411  10.346   9.399   8.617 -2.0442  0.8683  1.2087
65144SOL    HW2 7412  10.350   9.359   8.763  0.5020 -2.5470  0.3466
65145SOL     OW 7413   2.972  11.189  10.390  0.0860 -0.4233  0.0797
65145SOL    HW1 7414   2.960  11.251  10.318 -2.7289  0.8415  1.5078
65145SOL    HW2 7415   3.055  11.215  10.430 -0.4458  1.7106 -0.0960
65146SOL     OW 7416   2.696  10.782   4.347 -0.3945 -0.0795 -0.1309
65146SOL    HW1 7417   2.718  10.849   4.412 -0.3323 -1.3026  1.1620
65146SOL    HW2 7418   2.607  10.755   4.369 -0.2588 -0.7291 -0.3556
65147SOL     OW 7419   1.393   9.591   0.411 -0.1264  0.6169  0.4113
65147SOL    HW1 7420   1.379   9.667   0.355  1.0664 -0.0078 -0.7764
65147SOL    HW2 7421   1.310   9.581   0.459 -0.9441  1.5535 -0.7473
65148SOL     OW 7422   7.436   2.942   1.244 -0.7950 -0.1928 -0.2483
65148SOL    HW1 7423   7.422   2.920   1.337 -0.6855  0.9221  0.0448
65148SOL    HW2 7424   7.413   2.862   1.197  0.0112 -1.0680  0.7999
65149SOL     OW 7425   5.739   6.303   7.488 -0.3746 -0.5910 -0.0102
65149SOL    HW1 7426   5.704   6.214   7.493  1.3476 -1.3655 -0.7810
65149SOL    HW2 7427   5.794   6.312   7.566 -0.1431 -0.3889 -0.1929
65150SOL     OW 7428   9.153  11.170  11.434 -0.3345 -0.2771  0.3196
65150SOL    HW1 7429   9.114  11.248  11.393  0.7763  1.2332  1.9704
65150SOL    HW2 7430   9.090  11.100  11.419 -2.7764  1.6128  1.2241
65151SOL     OW 7431  10.745  10.912   7.611 -0.1654  0.6184 -0.1065
65151SOL    HW1 7432  10.788  10.930   7.694 -0.0923  1.1859 -0.2619
65151SOL    HW2 7433  10.700  10.994   7.589  0.0066  0.5484 -0.7397
65152SOL     OW 7434  10.259   6.811   2.681 -0.8055 -0.2804  0.6842
65152SOL    HW1 7435  10.353   6.827   2.692 -0.5426 -1.7056  0.8112
65152SOL    HW2 7436  10.246   6.806   2.587 -1.4997  3.5983  0.4144
65153SOL     OW 7437   5.662   8.430  10.003 -0.4127 -0.2783  0.6644
65153SOL    HW1 7438   5.644   8.503   9.945 -0.3372 -1.7754 -1.3451
65153SOL    HW2 7439   5.577   8.410  10.044 -0.6376  0.3034  0.4896
65154SOL     OW 7440   4.607   7.986   8.480  0.6387 -0.2274  0.5541
65154SOL    HW1 7441   4.555   7.921   8.526  1.3672 -2.2965 -1.4022
65154SOL    HW2 7442   4.678   7.936   8.440  1.4764  1.8468 -0.6860
65155SOL     OW 7443   7.314  11.005   9.780 -0.2519  0.5927 -0.0469
65155SOL    HW1 7444   7.235  10.973   9.736 -0.5296  1.5007 -0.2343
65155SOL    HW2 7445   7.306  11.101   9.777  2.0180  0.8332 -2.3177
65156SOL     OW 7446   9.751   3.053   1.137  0.7503  0.4021 -0.5476
65156SOL    HW1 7447   9.834   3.007   1.137  0.1559 -1.0524  3.1801
65156SOL    HW2 7448   9.685   2.984   1.123 -0.0651  0.0731  3.6247
65157SOL     OW 7449   3.349   1.668   2.087  0.5126 -0.3963 -0.2617
65157SOL    HW1 7450   3.288   1.742   2.096  0.1141 -0.5926 -1.1545
65157SOL    HW2 7451   3.431   1.708   2.057  0.2208 -0.3243 -1.0020
65158SOL     OW 7452  11.198   7.317   9.622 -0.0126 -0.0652  0.6502
65158SOL    HW1 7453  11.137   7.257   9.664  0.9667 -1.7781 -0.2398
65158SOL    HW2 7454  11.147   7.360   9.554 -0.9020  0.6685  1.7529
65159SOL     OW 7455   9.200   3.234   9.902 -0.3025  0.6981  0.5707
65159SOL    HW1 7456   9.203   3.294   9.827  1.6580  0.0721  0.1069
65159SOL    HW2 7457   9.150   3.158   9.869  0.0411  0.6762  0.0829
65160SOL     OW 7458  13.113   3.455   9.464  0.4808 -0.3701 -0.3009
65160SOL    HW1 7459  13.135   3.529   9.408  0.2157 -1.5831 -2.1170
65160SOL    HW2 7460  13.124   3.378   9.407  0.4896 -1.7017  1.4267
65161SOL     OW 7461   9.257  13.304  12.237  0.1024 -0.0799 -0.0117
65161SOL    HW1 7462   9.221  13.304  12.149  0.6420  2.1149 -0.2899
65161SOL    HW2 7463   9.180  13.298  12.294 -0.2685 -1.2115 -0.6115
65162SOL     OW 7464  13.646   4.408  10.901 -0.1040  0.6313 -0.1808
65162SOL    HW1 7465  13.652   4.496  10.937  2.5133  0.6662 -0.5294
65162SOL    HW2 7466  13.570   4.369  10.945  1.4092  1.4869  3.5635
65163SOL     OW 7467   4.145   2.826   2.016  0.3849  0.1517  0.1313
65163SOL    HW1 7468   4.127   2.918   2.038  0.4665  0.2368 -0.1466
65163SOL    HW2 7469   4.235   2.812   2.044  0.8766  0.5908 -1.1586
65164SOL     OW 7470   3.799   1.350   9.564 -0.0852 -0.1043 -0.1695
65164SOL    HW1 7471   3.792   1.423   9.503 -0.5923 -1.8484 -2.3474
65164SOL    HW2 7472   3.709   1.320   9.577  0.2509 -1.7222 -1.2074
65165SOL     OW 7473   1.531  13.636  13.653  0.2516  0.0901 -0.9077
65165SOL    HW1 7474   1.442  13.667  13.670  0.1041 -0.3764 -0.8020
65165SOL    HW2 7475   1.557  13.681  13.573  0.3041  1.0081 -0.3912
65166SOL     OW 7476   6.860   2.877   7.756  0.8665  0.8321 -0.3523
65166SOL    HW1 7477   6.848   2.833   7.840  1.0635  0.7771 -0.3513
65166SOL    HW2 7478   6.784   2.851   7.704  0.8453  0.7065 -0.2588
65167SOL     OW 7479   5.662  12.818   7.076  0.2950  0.4017 -0.1480
65167SOL    HW1 7480   5.586  12.873   7.058 -0.4485 -0.1621  1.1233
65167SOL    HW2 7481   5.727  12.878   7.114 -0.4770  0.4583  1.1495
65168SOL     OW 7482   8.141  12.584  10.765 -0.8298  0.1421  0.5386
65168SOL    HW1 7483   8.166  12.635  10.688 -1.1919 -0.9291 -0.3191
65168SOL    HW2 7484   8.217  12.528  10.782 -0.3798  1.0296  1.5568
65169SOL     OW 7485   5.946  13.657   2.442 -0.3137 -0.4700 -0.2431
65169SOL    HW1 7486   5.952  13.729   2.505 -0.3545 -1.6426  1.1523
65169SOL    HW2 7487   5.852  13.649   2.424 -0.2552  0.2084 -0.8796
65170SOL     OW 7488   7.752   8.517   6.875  0.2878  0.5370 -0.3160
65170SOL    HW1 7489   7.745   8.609   6.848 -1.0188  0.6886  0.4693
65170SOL    HW2 7490   7.662   8.491   6.893  0.6903 -0.7971 -0.1660
65171SOL     OW 7491   6.771   9.561  10.910  0.5279 -0.5683  0.0150
65171SOL    HW1 7492   6.765   9.630  10.976 -0.1198 -0.5722 -0.0348
65171SOL    HW2 7493   6.857   9.574  10.869 -0.3764  1.4938 -1.3857
65172SOL     OW 7494   5.049  11.502   9.075 -0.4897  0.0175 -0.0181
65172SOL    HW1 7495   4.965  11.509   9.030  0.6277  2.9454 -1.9536
65172SOL    HW2 7496   5.063  11.588   9.114  0.9323 -0.9018  1.6543
65173SOL     OW 7497  10.297   8.797   9.513  0.0598  0.0406 -0.4312
65173SOL    HW1 7498  10.204   8.794   9.492 -0.2735  0.3745  0.9252
65173SOL    HW2 7499  10.318   8.710   9.547 -0.4374  0.7690  1.8839
65174SOL     OW 7500   3.779  13.093   0.942  0.1217  0.2350  0.2657
65174SOL    HW1 7501   3.856  13.039   0.925  0.3898  0.7644 -0.2209
65174SOL    HW2 7502   3.758  13.132   0.858 -1.0821 -0.4161  0.2396
65175SOL     OW 7503   9.644   4.168   2.637  0.0042 -0.1459  0.0030
65175SOL    HW1 7504   9.676   4.240   2.583  0.6371  0.3605  1.0160
65175SOL    HW2 7505   9.713   4.155   2.703 -0.1128 -1.6473 -0.1272
65176SOL     OW 7506   1.528   5.377  11.451  0.0016  0.3842 -0.1795
65176SOL    HW1 7507   1.435   5.377  11.428 -0.1936 -1.0284  0.5219
65176SOL    HW2 7508   1.555   5.285  11.442  1.6281  0.9335 -1.4871
65177SOL     OW 7509  11.936   4.278   9.880 -0.0297  0.3284  0.1648
65177SOL    HW1 7510  11.959   4.198   9.928  0.2982 -0.2305 -0.8811
65177SOL    HW2 7511  11.867   4.319   9.932  0.0665 -0.4463  0.9164
65178SOL     OW 7512   3.855   4.888   1.067 -0.2070 -0.1772  0.1676
65178SOL    HW1 7513   3.938   4.902   1.112 -1.1141 -0.3837  1.9771
65178SOL    HW2 7514   3.878   4.837   0.990  1.1659 -1.4897  1.3820
65179SOL     OW 7515   6.819   7.871   2.958  0.1409  0.7071  0.4077
65179SOL    HW1 7516   6.818   7.949   2.903 -2.5923  1.4641  1.3843
65179SOL    HW2 7517   6.760   7.810   2.914  3.0462 -1.3986 -0.9361
65180SOL     OW 7518   6.190   2.837   3.895 -0.4122 -1.1018  0.7807
65180SOL    HW1 7519   6.266   2.879   3.936  0.0520 -1.3481  0.1911
65180SOL    HW2 7520   6.143   2.909   3.853 -2.0927 -0.4797  3.4814
65181SOL     OW 7521  13.558   2.247   7.544 -0.3808  0.0301  0.9330
65181SOL    HW1 7522  13.526   2.336   7.527 -1.6824 -0.3849  1.1593
65181SOL    HW2 7523  13.480   2.196   7.566 -0.1158 -1.8120 -1.7767
65182SOL     OW 7524  13.116   5.408   5.882 -0.5316  0.1096  0.7492
65182SOL    HW1 7525  13.023   5.403   5.903 -0.9639  2.4588 -0.2713
65182SOL    HW2 7526  13.133   5.333   5.826 -2.5637  1.1690 -1.4643
65183SOL     OW 7527  10.413   1.033   2.884 -0.5540  0.4023 -0.0499
65183SOL    HW1 7528  10.498   1.059   2.920 -1.2314  2.2151  0.3694
65183SOL    HW2 7529  10.424   0.941   2.860  1.3028  0.3997  0.6342
65184SOL     OW 7530  12.381   1.182   5.067  0.3145 -0.1491  0.0541
65184SOL    HW1 7531  12.324   1.121   5.019  0.7973 -1.1715  0.7313
65184SOL    HW2 7532  12.335   1.198   5.150  0.0283  0.6909 -0.2597
65185SOL     OW 7533  10.579  10.016  10.172 -0.0702  0.3166  0.0951
65185SOL    HW1 7534  10.639  10.011  10.097 -0.7620 -0.9060 -0.4096
65185SOL    HW2 7535  10.525  10.093  10.153  0.0363  0.2623 -0.4645
65186SOL     OW 7536   0.526   7.816   2.611 -0.5137 -0.3594  0.7898
65186SOL    HW1 7537   0.526   7.725   2.582  0.3289 -0.5154  1.2462
65186SOL    HW2 7538   0.538   7.811   2.706 -1.7175  0.1920  0.9883
65187SOL     OW 7539   2.710   9.424   9.981 -0.0093  0.5741  0.0227
65187SOL    HW1 7540   2.640   9.474   9.939 -1.3858 -0.8108  0.5688
65187SOL    HW2 7541   2.710   9.455  10.072 -1.1951 -0.6978  0.4857
65188SOL     OW 7542   5.061  12.910   1.036  0.3541 -0.2527 -0.9187
65188SOL    HW1 7543   4.975  12.887   1.073  0.6594  0.1327  0.0651
65188SOL    HW2 7544   5.043  12.932   0.945 -0.5651 -0.3700 -0.7772
65189SOL     OW 7545   6.293   8.884   3.082 -0.6244  0.0618  0.1194
65189SOL    HW1 7546   6.360   8.922   3.139 -0.9020 -0.4831  0.8156
65189SOL    HW2 7547   6.341   8.859   3.003 -0.3460  1.3783 -0.1672
65190SOL     OW 7548   8.767  11.118  10.167  0.1224 -0.1129  0.1471
65190SOL    HW1 7549   8.819  11.060  10.112  0.5426 -1.0331  1.4553
65190SOL    HW2 7550   8.803  11.107  10.255 -0.7535  1.0320  0.6856
65191SOL     OW 7551   1.014  10.864  14.026 -0.1311 -0.1842 -0.4422
65191SOL    HW1 7552   1.095  10.864  13.974 -0.3627  2.3552 -0.9694
65191SOL    HW2 7553   0.945  10.847  13.962 -0.2096  0.3411 -0.5014
65192SOL     OW 7554  13.379   1.701   6.080 -0.0655 -0.0548  0.0401
65192SOL    HW1 7555  13.292   1.719   6.045  0.0293 -0.0635 -0.1999
65192SOL    HW2 7556  13.429   1.666   6.006  0.5544  1.2484 -0.2027
65193SOL     OW 7557   0.285   1.334   6.656 -0.0817  0.2019 -0.0705
65193SOL    HW1 7558   0.214   1.374   6.707  0.3145  0.8116  0.0176
65193SOL    HW2 7559   0.364   1.372   6.693  0.2989 -0.5457 -0.1095
65194SOL     OW 7560  13.127   9.971   7.825 -0.3566 -0.5854  0.1789
65194SOL    HW1 7561  13.046  10.022   7.828 -0.3686 -0.6330  1.8174
65194SOL    HW2 7562  13.182  10.009   7.894  0.3597 -1.5932  0.1903
65195SOL     OW 7563  13.327  12.201   3.509 -0.3582 -0.3605  0.1045
65195SOL    HW1 7564  13.282  12.209   3.424 -0.5696  0.8065  0.2986
65195SOL    HW2 7565  13.259  12.218   3.574  0.1594  0.5248  0.4350
65196SOL     OW 7566   7.894  12.540   0.703  0.1080  0.1147  0.3365
65196SOL    HW1 7567   7.803  12.545   0.674 -0.5620 -0.9306  2.0689
65196SOL    HW2 7568   7.937  12.485   0.637 -0.9620 -0.8805  0.4405
65197SOL     OW 7569  13.317   0.238   4.919 -0.2406 -0.2167  0.9708
65197SOL    HW1 7570  13.319   0.209   5.011 -0.3647  1.4705  1.5474
65197SOL    HW2 7571  13.234   0.285   4.910 -0.3550 -0.6044 -0.0877
65198SOL     OW 7572   9.040   5.435   1.390 -0.2162 -0.0135  0.1547
65198SOL    HW1 7573   9.002   5.477   1.313 -1.4944  0.9227  1.2626
65198SOL    HW2 7574   8.987   5.357   1.403  0.8560 -0.9261 -0.6666
65199SOL     OW 7575  12.773  11.489  13.035 -0.3713 -0.2986  0.2473
65199SOL    HW1 7576  12.814  11.547  12.971 -2.6397  2.6418  1.2345
65199SOL    HW2 7577  12.683  11.480  13.005 -0.8096 -0.9786  1.6764
65200SOL     OW 7578   3.647  11.565  12.754 -0.0190  0.4149  0.0031
65200SOL    HW1 7579   3.560  11.560  12.795 -0.2305 -0.7841 -0.5524
65200SOL    HW2 7580   3.708  11.573  12.828 -0.3606 -2.0782  0.6314
65201SOL     OW 7581  10.356  11.768  11.771  1.0210 -0.1419  0.8491
65201SOL    HW1 7582  10.380  11.781  11.679 -0.6909  1.3169  0.5495
65201SOL    HW2 7583  10.318  11.681  11.774  1.0484 -0.1839  0.1439
65202SOL     OW 7584   1.455   9.333  12.226 -0.2598 -0.1037  0.3579
65202SOL    HW1 7585   1.399   9.398  12.181  0.7906  0.0546 -0.7810
65202SOL    HW2 7586   1.393   9.270  12.263 -1.2128 -0.0634 -1.0580
65203SOL     OW 7587   8.008  12.030   2.672 -0.1970  0.2426  0.8310
65203SOL    HW1 7588   8.002  12.106   2.730 -0.1914  0.7151  0.2229
65203SOL    HW2 7589   7.925  12.030   2.624  0.8316  1.4457 -1.0774
65204SOL     OW 7590  12.794   8.947   5.300 -0.4033  0.3406 -0.5450
65204SOL    HW1 7591  12.725   9.013   5.294 -1.6865 -0.8865  0.0755
65204SOL    HW2 7592  12.874   8.997   5.316 -1.4447  1.7030  0.6488
65205SOL     OW 7593   4.169   1.245  12.530 -0.0239  0.1869 -0.1325
65205SOL    HW1 7594   4.228   1.182  12.572  0.1503 -0.7203 -1.6797
65205SOL    HW2 7595   4.087   1.234  12.577  0.5529  0.2408  0.9279
65206SOL     OW 7596   9.430   0.853   6.523 -0.2751 -0.1113  0.1787
65206SOL    HW1 7597   9.347   0.806   6.518  0.9333 -2.2407 -1.5024
65206SOL    HW2 7598   9.419   0.929   6.466 -1.1225 -0.2595  0.1424
65207SOL     OW 7599   3.229   4.196   7.729  0.3087  0.1757  0.4526
65207SOL    HW1 7600   3.147   4.240   7.706  0.5764 -0.0572 -1.0604
65207SOL    HW2 7601   3.201   4.119   7.780 -0.4523 -0.1133 -0.3802
65208SOL     OW 7602   7.701   7.124   5.811 -0.2088  0.0865 -0.3605
65208SOL    HW1 7603   7.719   7.192   5.746 -1.3011  0.7606  0.0037
65208SOL    HW2 7604   7.755   7.049   5.784  1.0470  1.0995 -0.7494
65209SOL     OW 7605  12.240   9.128   0.287 -0.1904  0.2893  0.0868
65209SOL    HW1 7606  12.291   9.182   0.347 -1.3237  2.4685 -0.8145
65209SOL    HW2 7607  12.305   9.087   0.230  0.7497 -0.1277  1.3875
65210SOL     OW 7608   9.153  10.108   7.890  0.6430 -0.4790  0.3293
65210SOL    HW1 7609   9.117  10.024   7.918 -0.2387 -0.3792 -0.4581
65210SOL    HW2 7610   9.233  10.119   7.942 -0.9535 -0.2514  2.9065
65211SOL     OW 7611   2.826   9.385  13.199  0.1766 -0.3374  0.6218
65211SOL    HW1 7612   2.809   9.322  13.129  0.6277 -0.4230  0.5832
65211SOL    HW2 7613   2.804   9.339  13.280 -0.7384 -0.0998  0.5159
65212SOL     OW 7614   8.087   3.156   5.332 -0.0458  0.8846 -0.2245
65212SOL    HW1 7615   8.085   3.170   5.427  1.9978  0.1930 -0.0231
65212SOL    HW2 7616   8.139   3.229   5.298 -1.1280  1.3692 -0.8995
65213SOL     OW 7617   3.189   7.754   6.391 -0.1783 -0.6974  0.9750
65213SOL    HW1 7618   3.158   7.749   6.481 -0.7879 -0.4942  0.7848
65213SOL    HW2 7619   3.141   7.829   6.354 -1.2221 -1.7951  0.0142
65214SOL     OW 7620   8.953   9.384   5.710  0.0363 -0.0330 -0.3038
65214SOL    HW1 7621   8.877   9.396   5.654  0.3284  1.1559 -0.4839
65214SOL    HW2 7622   9.024   9.358   5.651 -0.4128 -2.1030 -0.0145
65215SOL     OW 7623   5.708   1.042  13.992 -0.1668 -0.1489  0.1914
65215SOL    HW1 7624   5.789   0.994  14.013 -0.5099 -1.1928 -0.7411
65215SOL    HW2 7625   5.701   1.034  13.896 -0.1357  1.9860 -0.0184
65216SOL     OW 7626   0.429   1.836   4.650 -0.2490  0.1803  0.2146
65216SOL    HW1 7627   0.399   1.745   4.653 -1.3370  0.5255  0.2014
65216SOL    HW2 7628   0.504   1.834   4.591 -0.8583 -0.5553 -0.5626
65217SOL     OW 7629   0.257  10.843   7.792 -0.4336  0.0772 -0.1136
65217SOL    HW1 7630   0.319  10.823   7.861 -0.3033  0.3043 -0.1636
65217SOL    HW2 7631   0.202  10.912   7.828 -3.6682 -3.1010  1.7401
65218SOL     OW 7632  13.607  10.659  13.174  0.5996 -0.6736 -0.3186
65218SOL    HW1 7633  13.631  10.731  13.232  1.2303  0.3701 -1.8036
65218SOL    HW2 7634  13.529  10.621  13.214  1.6061 -0.7078  1.7679
65219SOL     OW 7635   9.586  10.524   0.012  0.5603  0.1749 -0.7622
65219SOL    HW1 7636   9.669  10.546  -0.031  0.3085  2.1348 -0.3697
65219SOL    HW2 7637   9.611  10.469   0.086  1.6640  1.4768 -0.1007
65220SOL     OW 7638   3.834   5.427   1.698 -0.0042 -0.3347 -0.2842
65220SOL    HW1 7639   3.895   5.467   1.636  0.1181 -0.3913 -0.1975
65220SOL    HW2 7640   3.771   5.497   1.716 -0.3481 -0.4778 -0.8832
65221SOL     OW 7641  13.620   3.100  10.607 -0.0132 -0.3072  0.1223
65221SOL    HW1 7642  13.650   3.014  10.639  1.2261  0.0633  0.0191
65221SOL    HW2 7643  13.643   3.160  10.678 -1.8766 -0.1913  0.6727
65222SOL     OW 7644  11.815   7.076   1.345  0.0524 -0.1278 -0.1870
65222SOL    HW1 7645  11.902   7.040   1.364 -0.2914 -1.0115 -0.2517
65222SOL    HW2 7646  11.811   7.158   1.395  0.0707 -1.1856  1.6198
65223SOL     OW 7647  11.704  13.092  12.940 -0.4416 -0.4218  0.2898
65223SOL    HW1 7648  11.714  13.171  12.887 -0.5506 -0.3830  0.3267
65223SOL    HW2 7649  11.662  13.122  13.020  1.5366 -0.1416  1.2698
65224SOL     OW 7650   0.895  11.929  14.000  0.0911 -0.1353  0.4136
65224SOL    HW1 7651   0.811  11.971  13.979 -0.9443 -2.3233 -0.0797
65224SOL    HW2 7652   0.873  11.860  14.062  1.2720 -1.6967 -0.8254
65225SOL     OW 7653   5.361  13.710   7.595 -0.0801 -0.3092  1.0386
65225SOL    HW1 7654   5.280  13.760   7.601 -0.8819 -1.1913 -1.3984
65225SOL    HW2 7655   5.355  13.646   7.665 -1.7166 -0.6364  0.6323
65226SOL     OW 7656   9.219   1.033   5.315 -0.0227 -0.2336 -0.7416
65226SOL    HW1 7657   9.155   0.966   5.338  0.0177 -0.7036 -1.9233
65226SOL    HW2 7658   9.223   1.090   5.392 -1.2951 -0.6256 -0.3554
65227SOL     OW 7659   0.167   8.728  12.157 -0.6553 -0.4205  0.1373
65227SOL    HW1 7660   0.141   8.660  12.095 -3.4728  1.0163 -0.4293
65227SOL    HW2 7661   0.139   8.694  12.243  0.1378 -0.9536  0.1970
65228SOL     OW 7662   2.558   0.568   7.092 -0.2515 -0.2163  0.0164
65228SOL    HW1 7663   2.636   0.515   7.075  0.4090  0.7896 -0.2271
65228SOL    HW2 7664   2.541   0.612   7.009  0.1420  1.1017  0.6026
65229SOL     OW 7665   6.364  13.417  11.476  0.1539  0.0780  0.1280
65229SOL    HW1 7666   6.356  13.324  11.498  0.3421 -0.3978 -1.6866
65229SOL    HW2 7667   6.437  13.448  11.529  1.1390 -1.2163 -0.4172
65230SOL     OW 7668   3.611   6.206  13.989 -0.2432  0.2258 -0.0148
65230SOL    HW1 7669   3.545   6.228  14.054 -0.3469  0.4355 -0.1866
65230SOL    HW2 7670   3.643   6.120  14.015  1.2982  1.2278  1.5853
65231SOL     OW 7671   9.572  13.587   7.295 -0.3297 -0.4285 -0.1055
65231SOL    HW1 7672   9.653  13.557   7.254 -1.0070  0.3587 -2.0891
65231SOL    HW2 7673   9.511  13.515   7.282 -0.5069 -0.2364 -0.3249
65232SOL     OW 7674   2.936   7.864  13.995  0.1554  0.4767 -0.4044
65232SOL    HW1 7675   2.896   7.943  13.958  0.3189  0.8175  0.1405
65232SOL    HW2 7676   3.028   7.870  13.969  0.5336  1.3128  1.0007
65233SOL     OW 7677   7.286  10.607  12.148  0.7241 -0.0095  0.1950
65233SOL    HW1 7678   7.326  10.615  12.062 -0.9046  1.2767 -0.4822
65233SOL    HW2 7679   7.299  10.692  12.190  1.1351 -0.4873  1.0810
65234SOL     OW 7680   3.573  13.123   5.189  0.2888 -0.0780  0.0356
65234SOL    HW1 7681   3.666  13.146   5.185 -0.0504  1.2838 -0.3310
65234SOL    HW2 7682   3.548  13.109   5.098  0.3274 -1.3279  0.1991
65235SOL     OW 7683  10.765   4.577   3.093  0.2704 -0.0672 -0.4107
65235SOL    HW1 7684  10.733   4.634   3.163 -0.3773  0.8901 -1.4557
65235SOL    HW2 7685  10.696   4.512   3.082  0.9951 -1.0737  0.7599
65236SOL     OW 7686  12.961   0.531  12.323 -0.4707 -0.6811 -0.6282
65236SOL    HW1 7687  12.911   0.599  12.368 -2.0160 -2.5571  0.6893
65236SOL    HW2 7688  13.007   0.485  12.394  1.7937 -0.1082 -1.6445
65237SOL     OW 7689   9.588   9.140   5.605  0.0722 -0.0796  0.4301
65237SOL    HW1 7690   9.581   9.063   5.548 -1.6404  0.5237 -0.2198
65237SOL    HW2 7691   9.530   9.121   5.678  1.8309 -0.6001  1.7844
65238SOL     OW 7692   2.581  10.323   2.515  0.9494  0.1651 -0.0553
65238SOL    HW1 7693   2.586  10.363   2.428 -0.3864  0.7067  0.0907
65238SOL    HW2 7694   2.639  10.248   2.510  1.0385  0.2979 -1.3659
65239SOL     OW 7695   1.944   8.453   7.397 -0.5702 -0.2430 -0.0944
65239SOL    HW1 7696   1.925   8.370   7.440 -1.1094 -0.6655 -1.1124
65239SOL    HW2 7697   2.037   8.449   7.376 -0.5646 -0.5395 -0.0165
65240SOL     OW 7698  12.139   6.920   0.748  0.3175 -0.3732 -0.3825
65240SOL    HW1 7699  12.118   7.007   0.781  1.2086 -0.3572  0.1704
65240SOL    HW2 7700  12.166   6.935   0.657  1.0179  0.0005 -0.1150
65241SOL     OW 7701   6.412   7.412   7.025 -0.0772 -0.4338 -0.8675
65241SOL    HW1 7702   6.473   7.486   7.024 -0.3547 -0.0739  1.9749
65241SOL    HW2 7703   6.329   7.450   7.055  0.2323 -2.0904  2.5284
65242SOL     OW 7704  11.539   9.968  11.921  0.1635  0.2976  0.3056
65242SOL    HW1 7705  11.537   9.877  11.953  0.5338 -0.1139 -0.7835
65242SOL    HW2 7706  11.597  10.013  11.983  0.4304 -0.3454  0.5383
65243SOL     OW 7707  13.917  10.911  13.793  0.2965  0.4440  0.2903
65243SOL    HW1 7708  14.009  10.901  13.767  0.6220  1.6152  0.9225
65243SOL    HW2 7709  13.910  10.861  13.874  0.1108 -0.4625 -0.2687
65244SOL     OW 7710  11.518   3.075   7.501  0.2242 -0.0068 -0.1347
65244SOL    HW1 7711  11.558   2.990   7.485 -0.6083 -0.0909 -1.9280
65244SOL    HW2 7712  11.471   3.063   7.584 -0.6576 -1.6089 -0.8063
65245SOL     OW 7713   8.467  13.529  12.795  0.1748  0.6719  0.7387
65245SOL    HW1 7714   8.544  13.516  12.850  0.9643  1.5060 -0.1258
65245SOL    HW2 7715   8.502  13.538  12.706 -0.8276  2.1203  0.4568
65246SOL     OW 7716   1.319   0.051   7.469 -0.1267 -0.7823 -0.2042
65246SOL    HW1 7717   1.321   0.112   7.395  1.8289  1.1331  1.2906
65246SOL    HW2 7718   1.411   0.041   7.494 -0.7803 -0.1773  2.8742
65247SOL     OW 7719   7.473   4.838   9.431 -0.4752  0.8026 -0.1189
65247SOL    HW1 7720   7.397   4.787   9.459  0.2696 -0.1861  0.1391
65247SOL    HW2 7721   7.486   4.902   9.501  0.5784 -0.8106  1.2435
65248SOL     OW 7722   0.351   1.711   2.357 -0.4638 -0.0627  0.2577
65248SOL    HW1 7723   0.265   1.691   2.318 -0.1257 -0.4057 -0.3251
65248SOL    HW2 7724   0.350   1.806   2.370 -1.8084 -0.2916  2.3813
65249SOL     OW 7725   5.579  13.912   4.736  0.2434 -0.0023 -0.3133
65249SOL    HW1 7726   5.487  13.931   4.757  0.7458  1.2774  0.8513
65249SOL    HW2 7727   5.577  13.882   4.645 -1.5987 -2.1838  0.3295
65250SOL     OW 7728   7.297   2.737  13.952  0.1099  0.2820  0.1570
65250SOL    HW1 7729   7.307   2.644  13.932 -0.5506  0.1176  0.5462
65250SOL    HW2 7730   7.322   2.782  13.872  0.8156 -0.2129  0.0880
65251SOL     OW 7731   9.275  14.029   9.625  0.3080  0.4300 -0.3491
65251SOL    HW1 7732   9.220  14.058   9.697  0.7099  0.6805 -0.1372
65251SOL    HW2 7733   9.348  13.984   9.668  0.0942 -0.2031 -0.6405
65252SOL     OW 7734   6.036   9.709   6.390 -0.4672  0.6967  0.2757
65252SOL    HW1 7735   6.051   9.669   6.476 -1.4769  2.1165  1.1770
65252SOL    HW2 7736   6.089   9.658   6.330  3.0450  1.7253  2.2208
65253SOL     OW 7737   6.396  12.281   2.754 -0.0273  0.1301  0.2383
65253SOL    HW1 7738   6.380  12.290   2.660 -0.1363  0.0009  0.2445
65253SOL    HW2 7739   6.412  12.187   2.766 -0.6373  0.0512  0.4457
65254SOL     OW 7740  13.913   8.390   7.164 -0.4145 -0.3216 -0.4321
65254SOL    HW1 7741  13.873   8.477   7.160  1.4297  0.6962  1.3397
65254SOL    HW2 7742  13.984   8.393   7.100 -0.6015 -0.7005 -0.6661
65255SOL     OW 7743   6.862   0.815   7.125 -0.5034  0.0434 -0.4347
65255SOL    HW1 7744   6.799   0.760   7.172 -1.0590  0.3334 -0.8284
65255SOL    HW2 7745   6.919   0.850   7.194 -1.6071  0.8512  0.1021
65256SOL     OW 7746   9.116   3.854   4.306  0.1308 -0.3873  0.1841
65256SOL    HW1 7747   9.126   3.932   4.252 -1.2146  0.0997  0.6103
65256SOL    HW2 7748   9.173   3.870   4.382  3.1235 -1.6641 -1.5929
65257SOL     OW 7749   7.860  10.134   0.709 -0.5568  0.1348  0.8871
65257SOL    HW1 7750   7.813  10.216   0.727  3.1990  2.1680  2.8369
65257SOL    HW2 7751   7.944  10.162   0.674 -0.4273 -3.2036 -1.9672
65258SOL     OW 7752   9.074  12.775   0.148 -0.1387 -0.0552 -0.3041
65258SOL    HW1 7753   9.030  12.858   0.128 -0.7071 -0.4065 -0.5320
65258SOL    HW2 7754   9.021  12.736   0.218  0.4913  0.0660  0.2495
65259SOL     OW 7755   2.112   5.970   3.550 -0.5893  0.2082  0.0388
65259SOL    HW1 7756   2.126   5.909   3.623 -1.6849 -0.5770 -0.3805
65259SOL    HW2 7757   2.048   6.033   3.583 -1.0954 -0.1546 -0.2277
65260SOL     OW 7758   8.092   4.545   3.612  0.6243  0.0532  0.2054
65260SOL    HW1 7759   7.999   4.545   3.634  0.4481 -1.3097 -0.4014
65260SOL    HW2 7760   8.133   4.597   3.680 -0.6874  1.4709 -0.0268
65261SOL     OW 7761   6.543   5.703   7.944 -0.2930  0.0609 -0.0351
65261SOL    HW1 7762   6.540   5.624   7.889 -0.7655 -0.4794  0.7584
65261SOL    HW2 7763   6.621   5.750   7.913  1.5506 -1.9883  1.1770
65262SOL     OW 7764   5.698   1.334   2.432 -0.3464 -0.1179 -0.0213
65262SOL    HW1 7765   5.686   1.239   2.428 -0.1068 -0.1387 -0.3730
65262SOL    HW2 7766   5.767   1.351   2.368 -0.0533  0.2409  0.3881
65263SOL     OW 7767   8.240   8.481   0.877  0.0594 -0.4086  0.5844
65263SOL    HW1 7768   8.232   8.510   0.967 -0.0645  0.6997  0.2332
65263SOL    HW2 7769   8.334   8.471   0.862  0.1115 -0.0329  0.6668
65264SOL     OW 7770   7.033   1.359   4.412  0.2414  0.0023  0.1040
65264SOL    HW1 7771   7.098   1.402   4.356 -0.2641  0.2327 -0.3145
65264SOL    HW2 7772   6.949   1.377   4.370 -0.1452  0.1202  0.9027
65265SOL     OW 7773  10.309  11.762   2.318  0.3498  0.0158 -0.1295
65265SOL    HW1 7774  10.290  11.699   2.248 -1.4392  0.1059  0.2237
65265SOL    HW2 7775  10.401  11.785   2.306  2.3965 -5.4292  1.9387
65266SOL     OW 7776   0.887   7.591   2.185 -0.4373  0.4848 -0.3049
65266SOL    HW1 7777   0.866   7.671   2.232 -0.2920 -0.5024  1.5077
65266SOL    HW2 7778   0.808   7.537   2.191 -1.1466  1.0811 -2.9470
65267SOL     OW 7779   5.118  10.965  11.162  0.3787  0.2601 -0.5743
65267SOL    HW1 7780   5.039  11.013  11.135 -0.3876  1.0275  2.5700
65267SOL    HW2 7781   5.164  11.026  11.220  2.0239 -1.0701 -0.4120
65268SOL     OW 7782   6.919  11.637   0.796 -0.4355  0.0663  0.1721
65268SOL    HW1 7783   6.971  11.557   0.807 -0.2867 -0.2628 -2.4542
65268SOL    HW2 7784   6.970  11.705   0.840  0.3467 -0.9398  0.8578
65269SOL     OW 7785  12.673   2.967   8.673 -0.5421  0.2256 -0.2385
65269SOL    HW1 7786  12.688   2.943   8.765  1.0801 -2.2138 -1.0605
65269SOL    HW2 7787  12.678   2.885   8.625 -1.0271  1.4863 -2.5932
65270SOL     OW 7788  13.732   0.397   5.742  0.8207  0.3724  0.1565
65270SOL    HW1 7789  13.760   0.375   5.831  0.3971  0.1679  0.2422
65270SOL    HW2 7790  13.684   0.480   5.751 -0.6620 -0.4794  0.3855
65271SOL     OW 7791   5.609   3.712   2.438 -0.2370 -0.8734  0.8487
65271SOL    HW1 7792   5.633   3.621   2.425 -0.4668 -1.1001  1.9192
65271SOL    HW2 7793   5.683   3.749   2.487 -0.2881 -0.5630  0.6941
65272SOL     OW 7794   7.788   6.442  13.786 -0.2157  0.0102 -0.6926
65272SOL    HW1 7795   7.723   6.460  13.854  0.2130 -0.4300 -0.1551
65272SOL    HW2 7796   7.749   6.477  13.706 -1.7127 -1.3714 -0.6473
65273SOL     OW 7797  13.904   2.895   7.655 -0.1900  0.2847 -0.0188
65273SOL    HW1 7798  13.983   2.920   7.703 -0.2980 -0.4375  0.5574
65273SOL    HW2 7799  13.885   2.806   7.685 -2.0217  0.9458  0.9495
65274SOL     OW 7800  12.236   7.891   4.514  0.0659 -0.2787 -0.0728
65274SOL    HW1 7801  12.204   7.911   4.601  1.6160  0.3644  0.3774
65274SOL    HW2 7802  12.318   7.843   4.528 -0.0976 -0.9259 -1.1719
65275SOL     OW 7803  12.597   4.196  10.768  0.5334  0.2587 -0.8808
65275SOL    HW1 7804  12.504   4.216  10.780  0.4294 -0.0365 -1.1961
65275SOL    HW2 7805  12.606   4.174  10.675  0.9484  0.4448 -0.8876
65276SOL     OW 7806   0.151   3.295  10.926  0.0479 -0.3513  0.4479
65276SOL    HW1 7807   0.233   3.323  10.967 -0.5410  1.8347  0.2653
65276SOL    HW2 7808   0.155   3.330  10.837 -0.1764 -2.1134 -0.3008
65277SOL     OW 7809   9.533   3.355  11.321 -0.7804 -0.4924 -0.5509
65277SOL    HW1 7810   9.486   3.305  11.388 -0.0309 -0.4733 -0.0072
65277SOL    HW2 7811   9.540   3.443  11.358  0.6112 -0.7469 -0.1399
65278SOL     OW 7812  13.603  10.179   6.285  0.0269  0.0014  0.6592
65278SOL    HW1 7813  13.692  10.213   6.277 -0.6820  1.8511  0.1377
65278SOL    HW2 7814  13.578  10.156   6.195 -0.0518 -0.4644  0.7951
65279SOL     OW 7815  12.185   5.426   8.394 -0.4705 -0.5525 -0.1568
65279SOL    HW1 7816  12.221   5.403   8.309 -0.0871  0.0593 -0.1621
65279SOL    HW2 7817  12.187   5.344   8.444  1.3656 -0.4441 -0.0029
65280SOL     OW 7818   3.737   2.510   9.782 -0.0996  0.3419 -0.1726
65280SOL    HW1 7819   3.675   2.498   9.710 -1.3406 -0.7633  1.0239
65280SOL    HW2 7820   3.749   2.604   9.787 -1.3508  0.5577 -0.7227
65281SOL     OW 7821   6.737   9.953   3.216  0.5361  0.1393  0.4702
65281SOL    HW1 7822   6.696   9.984   3.135  0.0129  0.0031  0.6839
65281SOL    HW2 7823   6.699  10.007   3.285  0.9718  0.2467  0.6352
65282SOL     OW 7824   0.820   9.188   5.808 -0.4040 -0.2848  0.0721
65282SOL    HW1 7825   0.786   9.275   5.831 -0.9573 -0.7346  1.0525
65282SOL    HW2 7826   0.915   9.197   5.809 -0.2858 -0.4432  3.6446
65283SOL     OW 7827   2.817   5.111   3.698  0.4169  0.5234 -0.4120
65283SOL    HW1 7828   2.776   5.119   3.612  0.0022  1.8733 -0.1041
65283SOL    HW2 7829   2.897   5.163   3.691  0.5347  0.3892 -0.0641
65284SOL     OW 7830   9.568   9.673   8.163  0.4505 -0.1905 -0.0440
65284SOL    HW1 7831   9.540   9.608   8.228 -1.1866  0.2191 -0.3051
65284SOL    HW2 7832   9.624   9.623   8.104 -0.0396 -1.1649  0.2723
65285SOL     OW 7833   9.509   7.344  10.493  0.1789 -0.5909 -0.2660
65285SOL    HW1 7834   9.548   7.283  10.556 -0.0572 -2.0772 -1.4915
65285SOL    HW2 7835   9.575   7.352  10.424  0.4036  0.9501  0.0919
65286SOL     OW 7836   2.487  12.665   3.501 -0.1124  0.1161 -1.1518
65286SOL    HW1 7837   2.446  12.703   3.424 -1.3584 -0.1836 -0.6593
65286SOL    HW2 7838   2.424  12.599   3.532 -0.4860  1.4304  1.1127
65287SOL     OW 7839   8.507   6.049   6.513  0.2378  0.5141 -0.3291
65287SOL    HW1 7840   8.560   6.100   6.452  1.9117 -1.3821 -0.5784
65287SOL    HW2 7841   8.444   6.002   6.457  1.8592 -1.3276 -0.7122
65288SOL     OW 7842   0.540  11.837   2.322  0.3167  0.1262  0.3124
65288SOL    HW1 7843   0.543  11.915   2.268 -0.2949 -0.5902 -0.8016
65288SOL    HW2 7844   0.492  11.863   2.400 -1.7891  0.3712 -0.9697
65289SOL     OW 7845  10.415   7.583   2.218 -0.2790  0.0221 -0.2726
65289SOL    HW1 7846  10.449   7.628   2.296  0.0449  0.2725 -0.5553
65289SOL    HW2 7847  10.334   7.631   2.196 -0.8742 -0.6293  0.4513
65290SOL     OW 7848  10.045  12.359  13.770  0.0883 -0.2334 -0.3046
65290SOL    HW1 7849  10.018  12.415  13.843  0.3272  0.2829 -0.6064
65290SOL    HW2 7850  10.080  12.280  13.812 -1.3593 -0.6963  0.1056
65291SOL     OW 7851   8.638   9.858   1.270 -0.2522  0.1408  0.0418
65291SOL    HW1 7852   8.661   9.951   1.260 -0.4310  0.3567  1.4692
65291SOL    HW2 7853   8.722   9.815   1.283 -0.2752  0.3000  0.7447
65292SOL     OW 7854   7.684   3.882   3.561 -0.1608  0.3864  0.0703
65292SOL    HW1 7855   7.632   3.814   3.605  0.5935 -0.3830 -0.1960
65292SOL    HW2 7856   7.636   3.963   3.577 -0.2063  0.0524  1.8351
65293SOL     OW 7857  10.330  12.468   6.202 -0.5446  0.0878  0.0881
65293SOL    HW1 7858  10.333  12.524   6.280 -1.5379  0.0998  0.1270
65293SOL    HW2 7859  10.317  12.530   6.129  1.7906  0.2315 -0.2978
65294SOL     OW 7860   8.916  11.795   1.677  0.1798 -0.1252 -0.2358
65294SOL    HW1 7861   8.843  11.806   1.616 -0.0963  1.0996  0.2818
65294SOL    HW2 7862   8.954  11.883   1.684 -0.1210 -0.1102  1.7408
65295SOL     OW 7863  11.561   7.986  13.236  0.3949 -0.0860 -0.2807
65295SOL    HW1 7864  11.546   8.017  13.326  1.2442  2.0006 -0.7897
65295SOL    HW2 7865  11.529   7.896  13.236 -0.6403  0.2096  1.8203
65296SOL     OW 7866   1.234   5.659   8.792 -0.1829  0.8509  0.5733
65296SOL    HW1 7867   1.214   5.719   8.719 -0.2042 -0.4470 -0.5234
65296SOL    HW2 7868   1.153   5.611   8.806  0.5562 -0.7317 -0.3285
65297SOL     OW 7869   2.811  12.973   8.936  0.4030  0.1498  0.2001
65297SOL    HW1 7870   2.718  12.972   8.911  0.9089  1.1402 -1.9554
65297SOL    HW2 7871   2.839  12.882   8.927 -0.3562 -0.1677  0.9168
65298SOL     OW 7872   2.972   8.316   0.670  0.1115  0.1607 -0.1467
65298SOL    HW1 7873   3.000   8.225   0.665 -1.3456 -0.2858 -0.5688
65298SOL    HW2 7874   2.973   8.337   0.763 -0.6671 -0.6538  0.0510
65299SOL     OW 7875   7.182   7.584  11.421 -0.5115  0.8293  0.0143
65299SOL    HW1 7876   7.097   7.605  11.459 -0.6499  2.9674 -1.2661
65299SOL    HW2 7877   7.230   7.667  11.423 -0.3294  0.9895 -3.7420
65300SOL     OW 7878  11.936   7.576  10.968  0.3438 -0.0578 -0.2131
65300SOL    HW1 7879  11.865   7.515  10.988 -1.3309  1.5618 -0.9802
65300SOL    HW2 7880  11.953   7.564  10.874  2.2304 -1.5323  0.2520
65301SOL     OW 7881  13.430   8.601   6.810 -0.5082  0.0913 -0.5498
65301SOL    HW1 7882  13.515   8.641   6.830 -0.4997  0.3963 -1.1800
65301SOL    HW2 7883  13.390   8.585   6.896  0.6395 -1.0465 -0.1816
65302SOL     OW 7884   4.576   6.432  12.513  0.8987  0.3164 -0.4166
65302SOL    HW1 7885   4.529   6.366  12.461  0.9130 -0.9976  1.1615
65302SOL    HW2 7886   4.585   6.507  12.453 -0.9855 -0.2984 -1.5859
65303SOL     OW 7887   2.338  11.704   0.875  0.2918 -0.0936  0.9359
65303SOL    HW1 7888   2.394  11.650   0.931  1.7832  1.3099  0.8303
65303SOL    HW2 7889   2.304  11.772   0.933  0.0532  0.0737  0.6034
65304SOL     OW 7890   2.008   3.613  10.391 -0.3413  0.0989  0.7206
65304SOL    HW1 7891   1.920   3.646  10.410 -0.5527 -0.7146  1.2191
65304SOL    HW2 7892   2.056   3.625  10.473  0.0149  0.5285  0.4530
65305SOL     OW 7893   3.015   5.532   1.482 -0.5069 -0.4314 -0.0435
65305SOL    HW1 7894   2.984   5.476   1.554 -0.4372 -1.9674 -1.1573
65305SOL    HW2 7895   2.981   5.490   1.403  0.0629  0.7886 -0.9611
65306SOL     OW 7896   0.798   2.897  11.211  0.1296 -0.3459 -0.4238
65306SOL    HW1 7897   0.716   2.915  11.255  0.5749  0.3047  0.1664
65306SOL    HW2 7898   0.775   2.890  11.118 -0.4223  1.1534 -0.4338
65307SOL     OW 7899  12.494   8.030  12.767  0.2035 -0.6232  0.6478
65307SOL    HW1 7900  12.470   8.120  12.746  2.1394 -0.0605  0.6325
65307SOL    HW2 7901  12.461   7.979  12.693  2.5167  0.6556 -1.4352
65308SOL     OW 7902  12.216   6.106  10.565 -0.3203 -0.1509 -0.4412
65308SOL    HW1 7903  12.181   6.019  10.547  2.2874 -1.4681  0.3467
65308SOL    HW2 7904  12.292   6.114  10.507 -0.0523  1.2676  0.0619
65309SOL     OW 7905   3.178  12.339   1.412  0.2179 -0.2121 -0.5249
65309SOL    HW1 7906   3.107  12.298   1.364  0.9879 -1.0308 -1.0044
65309SOL    HW2 7907   3.241  12.364   1.345 -0.3176  2.0109 -0.2630
65310SOL     OW 7908   6.528  10.735  11.512 -0.0943  0.0773 -0.1538
65310SOL    HW1 7909   6.614  10.716  11.474  0.0003  0.3338 -0.0705
65310SOL    HW2 7910   6.527  10.685  11.594  1.6739  3.2399  2.0312
65311SOL     OW 7911   4.469   5.901  10.734 -0.1278 -0.2391 -0.0548
65311SOL    HW1 7912   4.420   5.976  10.699 -1.1191 -0.5371  0.6667
65311SOL    HW2 7913   4.504   5.857  10.656 -0.4897  0.3289 -0.5445
65312SOL     OW 7914  12.994   3.089   2.114  0.1845  0.3360 -0.3330
65312SOL    HW1 7915  12.920   3.068   2.057 -0.1086  0.7903 -0.1248
65312SOL    HW2 7916  12.969   3.052   2.199  0.4167  0.0629 -0.3802
65313SOL     OW 7917  13.041   9.345   3.872 -0.6023  0.7667  0.9301
65313SOL    HW1 7918  13.081   9.432   3.874 -0.5148  0.7383  0.5853
65313SOL    HW2 7919  13.034   9.325   3.778  2.9386 -1.1913  0.8917
65314SOL     OW 7920   1.584   7.440   8.105  0.0122 -0.2113  0.1982
65314SOL    HW1 7921   1.562   7.451   8.198  0.2426 -0.9960  0.3589
65314SOL    HW2 7922   1.626   7.522   8.080 -0.5270  0.2079  0.6479
65315SOL     OW 7923   0.336   9.670  12.016 -0.4271 -0.2034  1.0650
65315SOL    HW1 7924   0.364   9.661  12.106  2.1775 -1.2593  0.2376
65315SOL    HW2 7925   0.276   9.596  12.002  0.1654 -0.7825  1.5747
65316SOL     OW 7926  11.213   4.239  12.131  0.1377  0.4988  0.0172
65316SOL    HW1 7927  11.204   4.277  12.044  0.2432  0.1649 -0.1421
65316SOL    HW2 7928  11.123   4.220  12.159 -0.0869  2.4732  0.8412
65317SOL     OW 7929   0.030   9.729   6.480 -0.5597 -0.6680 -0.3392
65317SOL    HW1 7930  -0.062   9.714   6.458 -0.7542 -2.6679  1.5605
65317SOL    HW2 7931   0.035   9.716   6.575  1.4356  0.8651 -0.1574
65318SOL     OW 7932   6.767   4.725   7.015 -0.0856 -0.3254  0.1136
65318SOL    HW1 7933   6.740   4.679   6.936 -1.2836  0.1016  0.2572
65318SOL    HW2 7934   6.814   4.802   6.983 -0.3028 -0.3117 -0.1800
65319SOL     OW 7935   0.375   1.034   7.771  0.0617 -0.3601  0.1214
65319SOL    HW1 7936   0.442   1.062   7.833 -1.1465  0.8321  0.9447
65319SOL    HW2 7937   0.421   1.032   7.687  1.3142 -0.3402  0.7737
65320SOL     OW 7938   5.528   2.413  13.239  0.4354  0.2785 -0.2621
65320SOL    HW1 7939   5.433   2.403  13.234  0.3134  0.8553  0.5943
65320SOL    HW2 7940   5.564   2.330  13.207 -0.3732 -0.3819  0.5350
65321SOL     OW 7941  10.834   5.616   3.780  0.2458 -0.2880 -0.0449
65321SOL    HW1 7942  10.854   5.696   3.731 -1.0427  0.5461  0.7470
65321SOL    HW2 7943  10.753   5.583   3.739 -2.6228  2.0100  3.1494
65322SOL     OW 7944   9.996  13.568   3.184 -0.0641  0.2857  0.3730
65322SOL    HW1 7945   9.964  13.596   3.270 -0.9003 -1.2364  0.5928
65322SOL    HW2 7946   9.923  13.585   3.125 -0.8054 -1.8014  0.6078
65323SOL     OW 7947   6.065  11.967   8.332 -0.0889  0.0573  0.3461
65323SOL    HW1 7948   6.004  11.951   8.260  0.8503  1.2394 -0.7736
65323SOL    HW2 7949   6.131  12.026   8.294  1.8943 -1.3710  1.4094
65324SOL     OW 7950  13.333   0.794   0.011 -0.1849  0.0673 -0.3302
65324SOL    HW1 7951  13.425   0.793   0.037  0.6916  1.2299 -3.0323
65324SOL    HW2 7952  13.287   0.758   0.087  2.6868 -3.1037  0.1941
65325SOL     OW 7953  11.817  11.944  13.044  0.0897 -0.1492  0.0711
65325SOL    HW1 7954  11.896  11.991  13.070  0.4742 -0.2409 -0.8974
65325SOL    HW2 7955  11.803  11.969  12.953 -2.0680  1.3289  0.7403
65326SOL     OW 7956  13.077   8.791   8.592 -0.1683 -0.4066 -0.3309
65326SOL    HW1 7957  13.154   8.734   8.589  0.0136 -0.5322  2.8109
65326SOL    HW2 7958  13.007   8.739   8.553  0.7961 -1.2932 -0.9209
65327SOL     OW 7959  10.417   8.729  13.621 -0.3846 -0.4822 -0.3847
65327SOL    HW1 7960  10.484   8.785  13.583 -0.8810 -0.0245 -0.6067
65327SOL    HW2 7961  10.337   8.782  13.618 -0.8313 -1.1440 -0.4581
65328SOL     OW 7962   9.146   4.519   6.331  0.2588 -0.7790  0.1661
65328SOL    HW1 7963   9.200   4.547   6.405 -1.2503 -1.4005  1.5643
65328SOL    HW2 7964   9.190   4.441   6.298  0.7526 -0.7120  0.6408
65329SOL     OW 7965  12.905   6.626   0.520  0.0571  0.3232 -0.4098
65329SOL    HW1 7966  12.998   6.622   0.543  0.1780  0.3722 -0.8890
65329SOL    HW2 7967  12.860   6.607   0.602  0.4731  1.5224  0.1272
65330SOL     OW 7968  13.042   1.371   1.866  0.2313  0.0380  0.3162
65330SOL    HW1 7969  13.102   1.429   1.912  0.1514  1.0373 -0.8055
65330SOL    HW2 7970  13.072   1.283   1.888  0.4431  0.4710  1.9295
65331SOL     OW 7971   0.176   2.443   5.050  0.0266  0.4317 -0.0212
65331SOL    HW1 7972   0.229   2.523   5.048  0.8907 -0.1246 -0.1216
65331SOL    HW2 7973   0.089   2.470   5.021  0.6723  1.0737 -1.4353
65332SOL     OW 7974  13.619   5.099   4.314 -0.3442 -0.3620 -0.0132
65332SOL    HW1 7975  13.537   5.118   4.269 -1.0692 -1.4665  0.7974
65332SOL    HW2 7976  13.666   5.041   4.254 -2.2059 -3.5521  1.3922
65333SOL     OW 7977   9.411  11.860   6.504  0.9885  0.3132  0.7304
65333SOL    HW1 7978   9.361  11.786   6.471  0.5941  0.1351  1.6978
65333SOL    HW2 7979   9.501  11.827   6.512  0.8035 -0.0780  1.2110
65334SOL     OW 7980  11.205   2.909   1.931  0.0565  0.3241 -0.3540
65334SOL    HW1 7981  11.260   2.903   2.009 -0.1592 -0.2650 -0.2425
65334SOL    HW2 7982  11.120   2.873   1.958  0.0698 -0.1667 -0.9424
65335SOL     OW 7983   0.583  10.577   0.700 -0.1797 -0.3267  0.2628
65335SOL    HW1 7984   0.500  10.541   0.733 -0.8163  0.8707  0.0326
65335SOL    HW2 7985   0.645  10.505   0.706 -1.6972 -1.8666 -1.3955
65336SOL     OW 7986  10.349   4.830   5.866  0.5111  0.5157 -0.1249
65336SOL    HW1 7987  10.370   4.754   5.812  0.8670 -0.2379  1.0382
65336SOL    HW2 7988  10.433   4.876   5.877  0.9598 -0.6431  1.7184
65337SOL     OW 7989  11.054   2.602   4.824 -0.4930 -0.2486 -0.3858
65337SOL    HW1 7990  11.105   2.661   4.881 -2.6773  1.3439  0.0219
65337SOL    HW2 7991  11.045   2.522   4.876 -0.2437  0.2284  0.4136
65338SOL     OW 7992  10.528  10.338   5.347  0.5233 -0.8379 -0.3947
65338SOL    HW1 7993  10.536  10.295   5.432  0.8817  2.2416  1.2645
65338SOL    HW2 7994  10.618  10.362   5.323  0.4492 -1.8159 -1.7761
65339SOL     OW 7995  11.592   0.816  12.966 -0.0373 -0.2202  0.6850
65339SOL    HW1 7996  11.646   0.764  13.026 -0.6339  0.5355  1.8885
65339SOL    HW2 7997  11.513   0.764  12.953 -0.3759  0.1099  1.4160
65340SOL     OW 7998   1.983   3.749   2.529  0.4453  0.0596  0.2955
65340SOL    HW1 7999   2.077   3.755   2.542  0.3351  0.7524  0.8694
65340SOL    HW2 8000   1.962   3.657   2.541  0.9265  0.0408  1.0497
65341SOL     OW 8001   2.611   8.088   4.878 -0.1921  0.2875 -0.0850
65341SOL    HW1 8002   2.624   8.148   4.804  0.3090  1.2072  0.7167
65341SOL    HW2 8003   2.694   8.041   4.885 -0.6507 -0.6631 -0.8319
65342SOL     OW 8004   2.638  11.068   0.840  0.3917  0.2617  0.0629
65342SOL    HW1 8005   2.721  11.091   0.800  0.1092  1.0411 -0.1125
65342SOL    HW2 8006   2.655  10.987   0.888  0.7327 -0.6937 -1.6150
65343SOL     OW 8007  10.142   2.733  11.482  0.5676  0.0864  0.0502
65343SOL    HW1 8008  10.113   2.646  11.455 -0.1166  0.0058  1.0359
65343SOL    HW2 8009  10.206   2.717  11.551  2.5873  0.2843 -1.6661
65344SOL     OW 8010   4.836   2.938   2.817  0.3187  0.1589 -0.1989
65344SOL    HW1 8011   4.919   2.966   2.855  0.3187 -1.6330  1.2065
65344SOL    HW2 8012   4.769   2.985   2.866  0.4389  0.7532 -0.5895
65345SOL     OW 8013   7.467   9.650  10.508  0.1675 -0.1855  0.3763
65345SOL    HW1 8014   7.385   9.648  10.557 -0.2054 -1.6985 -0.2698
65345SOL    HW2 8015   7.478   9.561  10.477  1.7693  0.1429 -0.0478
65346SOL     OW 8016  10.721   7.230   0.924 -0.5775 -0.4303 -0.0746
65346SOL    HW1 8017  10.654   7.278   0.973 -0.4770 -1.2370  0.8898
65346SOL    HW2 8018  10.680   7.209   0.840 -0.9863  0.4124 -0.0944
65347SOL     OW 8019  13.469   9.877  12.494 -0.0200 -0.3955 -0.6415
65347SOL    HW1 8020  13.425   9.961  12.493 -0.6309 -0.6477  1.1215
65347SOL    HW2 8021  13.549   9.891  12.443 -0.8804  0.7642 -1.7528
65348SOL     OW 8022   4.277  10.084   7.720  0.2213 -0.1501  0.1194
65348SOL    HW1 8023   4.353  10.053   7.770  0.9139 -0.8974 -1.3198
65348SOL    HW2 8024   4.289  10.046   7.633 -0.2982  2.0195 -0.9835
65349SOL     OW 8025  11.609   9.996   1.007  0.5036 -0.4582 -0.4640
65349SOL    HW1 8026  11.675   9.929   1.017  0.0074 -1.2711 -2.2436
65349SOL    HW2 8027  11.552   9.965   0.936 -0.0501  1.5814 -1.0131
65350SOL     OW 8028   9.868  13.852   5.732 -0.0636  0.2796  0.2452
65350SOL    HW1 8029   9.947  13.847   5.678  0.1641  2.6843  0.2564
65350SOL    HW2 8030   9.896  13.899   5.811 -1.2183 -0.0352  0.8670
65351SOL     OW 8031   0.769   9.767  12.970 -0.3912  0.6419  0.2322
65351SOL    HW1 8032   0.858   9.732  12.975 -0.7012 -0.6120 -1.8130
65351SOL    HW2 8033   0.739   9.744  12.882 -2.0101  2.8409  0.1187
65352SOL     OW 8034   8.232   9.329   5.649 -0.2108  0.4959 -0.3077
65352SOL    HW1 8035   8.321   9.317   5.617 -0.5392  0.9350 -1.4046
65352SOL    HW2 8036   8.233   9.416   5.689  0.0746  0.1387  0.4879
65353SOL     OW 8037   0.734   3.157  12.286  0.6556  0.4634 -0.0012
65353SOL    HW1 8038   0.640   3.157  12.271  0.4097 -0.2461  1.4292
65353SOL    HW2 8039   0.745   3.198  12.372  1.5326 -0.6972  0.4663
65354SOL     OW 8040   9.650   5.423   4.561 -0.4864  0.1539  0.0144
65354SOL    HW1 8041   9.703   5.483   4.509 -1.1224  0.9976  0.3182
65354SOL    HW2 8042   9.694   5.338   4.552  1.1261  0.8898  0.5435
65355SOL     OW 8043   8.764  10.572   4.093 -0.1528  0.7757 -0.0930
65355SOL    HW1 8044   8.812  10.649   4.124  0.0189 -0.2360  2.4074
65355SOL    HW2 8045   8.718  10.540   4.171 -0.1529 -1.7000 -1.0307
65356SOL     OW 8046  11.020   4.367  13.106  0.0717  0.2053  0.7387
65356SOL    HW1 8047  10.993   4.276  13.100 -0.7310  0.4485  0.4863
65356SOL    HW2 8048  11.007   4.402  13.018  0.1360  0.6206  0.8908
65357SOL     OW 8049   1.812   9.538   5.744 -0.5969 -0.8300  0.9841
65357SOL    HW1 8050   1.804   9.456   5.793  0.4500 -0.6992  1.3823
65357SOL    HW2 8051   1.817   9.606   5.811  1.4959 -0.7010  0.7614
65358SOL     OW 8052   2.757   4.262  12.312  0.1446 -0.2164  0.0788
65358SOL    HW1 8053   2.796   4.339  12.354 -0.5474  0.9170 -1.2556
65358SOL    HW2 8054   2.761   4.193  12.378  1.2798  0.8122  1.1298
65359SOL     OW 8055  11.740   1.143   6.222 -0.3826  0.5190  0.1592
65359SOL    HW1 8056  11.792   1.155   6.302 -0.4616  2.0126  0.0130
65359SOL    HW2 8057  11.682   1.069   6.242  2.1898 -1.6501  0.0950
65360SOL     OW 8058   8.972   2.370   8.504 -0.4584 -0.2179 -0.5263
65360SOL    HW1 8059   8.904   2.304   8.515 -0.0617 -0.3536  1.6820
65360SOL    HW2 8060   9.053   2.319   8.493 -0.4984 -0.0625 -1.6372
65361SOL     OW 8061   4.764   8.401  13.109  0.2614 -0.2275 -0.0571
65361SOL    HW1 8062   4.773   8.323  13.164  0.1756 -0.1757  0.0334
65361SOL    HW2 8063   4.756   8.473  13.172  1.3387 -0.0255 -0.1468
65362SOL     OW 8064   0.455   1.002   7.450 -0.1016 -0.4941 -0.2259
65362SOL    HW1 8065   0.425   1.068   7.388  1.2040  0.6089  0.2729
65362SOL    HW2 8066   0.546   0.986   7.427 -0.4727 -2.3900 -0.5322
65363SOL     OW 8067   9.862   0.084   1.199  0.4108 -0.0031 -0.1210
65363SOL    HW1 8068   9.891  -0.006   1.216 -1.7718 -0.2952  2.7834
65363SOL    HW2 8069   9.768   0.076   1.186  0.3798  1.7692 -1.2485
65364SOL     OW 8070   4.684   5.479   0.394  0.1129 -0.2778 -0.2202
65364SOL    HW1 8071   4.647   5.553   0.346 -0.5613 -0.7649 -0.4650
65364SOL    HW2 8072   4.778   5.487   0.381  0.0458  0.4873 -0.3116
65365SOL     OW 8073   1.923   7.992   1.988 -0.7391 -0.4966 -0.0892
65365SOL    HW1 8074   1.866   8.035   2.052 -1.4814 -0.9775 -0.4222
65365SOL    HW2 8075   1.931   8.055   1.916  0.4953  0.2531  0.6629
65366SOL     OW 8076   4.866   9.846   0.005  0.1742  0.0546  0.3594
65366SOL    HW1 8077   4.912   9.896  -0.063 -0.8505  0.1240 -0.3122
65366SOL    HW2 8078   4.798   9.906   0.037  0.7169  0.0610  1.5419
65367SOL     OW 8079  13.939   8.333  10.135  0.2149  0.2432  0.0196
65367SOL    HW1 8080  13.916   8.390  10.061 -1.8410 -0.9151 -0.3159
65367SOL    HW2 8081  13.936   8.391  10.211 -0.3234  0.9131 -0.4938
65368SOL     OW 8082   6.245   1.855  11.357 -0.2535 -0.8909  0.4323
65368SOL    HW1 8083   6.293   1.814  11.429 -1.4874  0.3828  2.0614
65368SOL    HW2 8084   6.180   1.790  11.331  0.0430 -1.2766  0.6485
65369SOL     OW 8085   9.926   5.170   4.042  0.5369 -0.1057 -0.2103
65369SOL    HW1 8086   9.992   5.101   4.043  2.1583  1.3069 -2.0670
65369SOL    HW2 8087   9.946   5.223   4.120  0.5594 -0.5953  0.1202
65370SOL     OW 8088   0.471  11.659   3.441 -0.2966 -0.1893  0.9745
65370SOL    HW1 8089   0.405  11.727   3.449 -0.5875 -0.2001 -0.9249
65370SOL    HW2 8090   0.542  11.687   3.499  0.5844  2.9388 -1.3853
65371SOL     OW 8091   8.182   4.509  10.131  0.2845 -0.6723  0.2668
65371SOL    HW1 8092   8.143   4.429  10.096  1.7733 -0.9093 -0.9661
65371SOL    HW2 8093   8.264   4.520  10.082  0.8866  0.7677  1.4878
65372SOL     OW 8094  10.358   8.978  11.558  0.0485  0.2079  0.5226
65372SOL    HW1 8095  10.430   9.040  11.573  1.5701 -1.1835 -0.6689
65372SOL    HW2 8096  10.361   8.961  11.464 -1.0726 -0.8089  0.6588
65373SOL     OW 8097   7.682  10.815   5.893  0.4118 -0.1169  0.1158
65373SOL    HW1 8098   7.657  10.783   5.980 -1.1403 -0.8880 -0.5917
65373SOL    HW2 8099   7.670  10.740   5.835  2.8663 -0.0461 -0.5698
65374SOL     OW 8100   2.937   4.861   4.166  0.2612  0.2155  0.6260
65374SOL    HW1 8101   2.930   4.885   4.074  0.6177 -0.0737  0.5225
65374SOL    HW2 8102   3.031   4.867   4.186  0.4400 -1.4765  0.4765
65375SOL     OW 8103   1.861   9.595  13.205  0.0460 -0.1798 -0.2460
65375SOL    HW1 8104   1.930   9.583  13.140 -0.1390  0.9688 -0.6858
65375SOL    HW2 8105   1.876   9.526  13.270  0.5413 -1.0200 -1.2350
65376SOL     OW 8106   3.094  12.083  13.304 -0.1467 -0.4179  0.5571
65376SOL    HW1 8107   3.045  12.011  13.343 -2.9210  1.2414  0.3995
65376SOL    HW2 8108   3.095  12.151  13.371 -0.7893  0.7033 -0.5342
65377SOL     OW 8109   0.646   9.166   9.581  0.3155  0.1108  0.2607
65377SOL    HW1 8110   0.579   9.115   9.625  0.1064  0.6578  0.5891
65377SOL    HW2 8111   0.707   9.101   9.546  0.9589 -0.3412  2.0835
65378SOL     OW 8112   8.878   1.321   3.486  0.2164  0.0305  0.3270
65378SOL    HW1 8113   8.804   1.377   3.507  0.2154 -0.1152  0.7073
65378SOL    HW2 8114   8.906   1.350   3.399 -0.0577  0.3262  0.3373
65379SOL     OW 8115   6.419   5.810   8.707  0.4295 -0.3047  0.3474
65379SOL    HW1 8116   6.384   5.897   8.688  0.6173 -0.1909  0.5249
65379SOL    HW2 8117   6.413   5.802   8.802  0.9363 -0.2628  0.3850
65380SOL     OW 8118   9.246   0.380   4.925  0.3943 -0.1114  0.0729
65380SOL    HW1 8119   9.161   0.422   4.928  0.1912 -0.5398  0.3714
65380SOL    HW2 8120   9.291   0.421   4.851 -0.8854 -1.3930 -1.4885
65381SOL     OW 8121   2.009   1.638   9.564  0.1865 -0.2328 -0.1021
65381SOL    HW1 8122   2.095   1.647   9.605  0.4606  0.3878 -0.7680
65381SOL    HW2 8123   2.024   1.663   9.472 -0.3351 -1.8464 -0.6603
65382SOL     OW 8124   0.750   2.000   1.216  0.5948  0.0841  0.1989
65382SOL    HW1 8125   0.680   2.013   1.279  0.3554  0.9211 -0.2255
65382SOL    HW2 8126   0.714   1.938   1.153 -0.0278  1.0169 -0.3874
65383SOL     OW 8127  10.438   0.893   8.600 -0.0265  0.2272  0.0072
65383SOL    HW1 8128  10.364   0.953   8.604 -0.0855  0.1431  0.2261
65383SOL    HW2 8129  10.410   0.818   8.653  0.4493  0.4504  0.5827
65384SOL     OW 8130   6.620   1.654   0.796  0.1453 -0.6087 -0.0864
65384SOL    HW1 8131   6.610   1.617   0.883  2.3486 -1.1152  0.0183
65384SOL    HW2 8132   6.621   1.749   0.810 -1.5135 -0.6050  0.1529
65385SOL     OW 8133   3.631   0.646  13.972  0.5059  0.1221  0.6130
65385SOL    HW1 8134   3.717   0.603  13.978  0.7063  0.1039 -1.6792
65385SOL    HW2 8135   3.650   0.739  13.986  0.4861 -0.1219  2.6111
65386SOL     OW 8136   2.569  12.513  12.748  0.5644  0.0504 -0.1974
65386SOL    HW1 8137   2.625  12.586  12.777  1.1408 -0.5104  0.1221
65386SOL    HW2 8138   2.607  12.436  12.789 -0.4977 -0.3395  0.0887
65387SOL     OW 8139  10.707   4.378   6.324 -0.0815 -0.0166 -0.4018
65387SOL    HW1 8140  10.658   4.333   6.255 -1.3377  0.7596 -0.0300
65387SOL    HW2 8141  10.720   4.311   6.391 -0.6303 -0.2308 -0.5065
65388SOL     OW 8142  11.119  13.893   4.431 -0.3743 -0.1244 -0.0415
65388SOL    HW1 8143  11.060  13.854   4.496  0.7905 -0.9756  0.5563
65388SOL    HW2 8144  11.063  13.951   4.379 -1.5415 -0.1976  1.0742
65389SOL     OW 8145  10.189   2.117  13.152  0.1838 -0.4043  0.3313
65389SOL    HW1 8146  10.097   2.114  13.127  0.3809 -1.0026 -0.3974
65389SOL    HW2 8147  10.228   2.042  13.105  1.0667 -0.0424  0.4737
65390SOL     OW 8148   8.712   6.073  13.109 -0.1332 -0.6221 -0.0296
65390SOL    HW1 8149   8.762   6.105  13.035  0.6775 -1.1402  0.2737
65390SOL    HW2 8150   8.776   6.024  13.162 -0.7069 -0.3434  0.9553
65391SOL     OW 8151   1.607   7.770   5.665  0.0515  0.2599 -0.1452
65391SOL    HW1 8152   1.636   7.747   5.754  0.9180 -1.4860 -0.8151
65391SOL    HW2 8153   1.536   7.708   5.646  0.4718  0.0061 -0.9670
65392SOL     OW 8154   8.325   5.106   1.820 -0.2137 -0.3110  0.0619
65392SOL    HW1 8155   8.281   5.051   1.885 -2.6906 -0.9846 -1.9849
65392SOL    HW2 8156   8.392   5.049   1.782 -0.1613 -0.6055  0.5932
65393SOL     OW 8157   8.840   3.461  12.823  0.3279  0.1245 -0.0499
65393SOL    HW1 8158   8.910   3.485  12.762  1.3812 -0.9040  0.6915
65393SOL    HW2 8159   8.783   3.403  12.773 -0.7564  1.9348 -1.0416
65394SOL     OW 8160  12.479   4.368   4.737 -0.7099  0.5394  0.6207
65394SOL    HW1 8161  12.411   4.430   4.764 -1.9666 -0.5567  0.0739
65394SOL    HW2 8162  12.435   4.283   4.736  0.2592  0.0179 -1.2488
65395SOL     OW 8163  11.054   6.434  10.886 -0.2694  0.4920  0.3223
65395SOL    HW1 8164  11.043   6.508  10.827 -1.9068 -0.9730 -1.3496
65395SOL    HW2 8165  10.989   6.448  10.955 -1.1403  0.2510 -0.4252
65396SOL     OW 8166   7.854   8.287  12.137 -0.2186 -0.4209 -0.3462
65396SOL    HW1 8167   7.776   8.260  12.186  0.1247  0.2591  0.6093
65396SOL    HW2 8168   7.885   8.206  12.096 -2.1565 -0.4701 -1.8451
65397SOL     OW 8169   5.106   2.987  11.759  0.0319 -0.0975 -0.1872
65397SOL    HW1 8170   5.021   2.948  11.741 -0.4554  0.3995  0.9399
65397SOL    HW2 8171   5.144   2.933  11.829  0.6360 -0.2949 -0.6549
65398SOL     OW 8172   2.143  14.026  10.690 -0.0657 -0.0096 -0.3203
65398SOL    HW1 8173   2.185  13.940  10.684 -1.0147 -0.4188 -1.6384
65398SOL    HW2 8174   2.062  14.010  10.738 -1.1452 -0.2811 -2.1030
65399SOL     OW 8175   7.321  10.246   4.204 -0.1203 -0.3367  0.0743
65399SOL    HW1 8176   7.368  10.254   4.287  0.9087 -0.6495 -0.4599
65399SOL    HW2 8177   7.239  10.203   4.227 -0.1902  0.2859  1.0382
65400SOL     OW 8178   7.314   6.275   6.122 -0.2527 -0.2258 -0.0246
65400SOL    HW1 8179   7.244   6.237   6.068 -0.4472  2.5128 -1.8921
65400SOL    HW2 8180   7.278   6.359   6.153  1.5823  0.4356  0.4625
65401SOL     OW 8181   7.990   2.330   5.505  0.6697  0.2579 -0.3393
65401SOL    HW1 8182   8.043   2.398   5.546 -0.2239 -0.1936  1.6771
65401SOL    HW2 8183   7.907   2.373   5.485 -0.2689 -0.4007  1.8597
65402SOL     OW 8184   5.969  13.857   6.134 -0.1002 -0.6004  0.3025
65402SOL    HW1 8185   5.922  13.793   6.187 -0.1286 -1.4114 -0.6651
65402SOL    HW2 8186   5.924  13.940   6.150  0.6444 -0.5328  2.4840
65403SOL     OW 8187   7.767  10.747  10.681 -0.5551 -0.4067  0.3191
65403SOL    HW1 8188   7.845  10.708  10.720 -0.3834 -1.5961 -1.1185
65403SOL    HW2 8189   7.771  10.722  10.588 -1.9815  0.5865 -0.0474
65404SOL     OW 8190   7.134   4.975   3.316 -0.4743 -0.4225 -0.0689
65404SOL    HW1 8191   7.151   4.944   3.227 -2.7923 -0.1448 -0.6651
65404SOL    HW2 8192   7.126   4.895   3.368 -2.2931 -0.7608 -0.7896
65405SOL     OW 8193   6.481  13.373   5.490  0.2965 -0.2201 -0.3154
65405SOL    HW1 8194   6.493  13.440   5.423 -1.8572  0.2643 -0.2898
65405SOL    HW2 8195   6.550  13.309   5.473  1.8650  1.5381 -0.8879
65406SOL     OW 8196  12.738  10.261   0.255  0.4674  0.3717 -0.1905
65406SOL    HW1 8197  12.776  10.191   0.202  1.2848 -0.7917  1.8319
65406SOL    HW2 8198  12.810  10.293   0.308 -0.5061  0.8624  0.8754
65407SOL     OW 8199  10.654   2.719   9.371  0.0219 -0.3889 -1.1163
65407SOL    HW1 8200  10.749   2.713   9.384 -0.2031 -0.2342  0.7947
65407SOL    HW2 8201  10.640   2.810   9.345  0.3818 -0.3876 -1.3215
65408SOL     OW 8202  12.779  11.919  10.115 -0.2497 -0.2253 -0.2918
65408SOL    HW1 8203  12.766  11.840  10.063 -1.3438  0.2938 -0.8410
65408SOL    HW2 8204  12.761  11.991  10.055  2.2965  0.5386 -0.2563
65409SOL     OW 8205   2.038  12.196   4.930  0.2240 -0.3902  1.0407
65409SOL    HW1 8206   2.129  12.167   4.940  1.2480  2.1800 -0.0212
65409SOL    HW2 8207   2.024  12.256   5.003  0.2273  1.0984 -0.1471
65410SOL     OW 8208  12.574   0.595   7.768  0.5968  0.4104  0.0918
65410SOL    HW1 8209  12.603   0.686   7.766 -0.1756  0.6627 -1.4318
65410SOL    HW2 8210  12.479   0.601   7.781  0.7222 -0.2495  1.4531
65411SOL     OW 8211   7.543   8.982  10.393  0.7045  0.4158  0.0985
65411SOL    HW1 8212   7.517   9.029  10.472 -0.0941 -1.1101  0.7789
65411SOL    HW2 8213   7.595   8.908  10.425 -0.0728 -0.5231 -0.7358
65412SOL     OW 8214   2.698   6.316   3.331 -1.1619 -0.0342  0.3940
65412SOL    HW1 8215   2.638   6.374   3.377 -0.4608  0.3170  0.8883
65412SOL    HW2 8216   2.783   6.359   3.338 -0.7111 -0.8910  0.3639
65413SOL     OW 8217  13.043   6.234   2.772  0.0206  0.3224 -0.2487
65413SOL    HW1 8218  12.980   6.305   2.757 -2.1282 -1.6165 -0.9635
65413SOL    HW2 8219  13.060   6.237   2.866 -0.9008  1.0792 -0.0832
65414SOL     OW 8220   0.773  12.637  11.563 -0.1883 -0.3909 -0.7369
65414SOL    HW1 8221   0.862  12.672  11.572 -0.7056  0.6019  1.2753
65414SOL    HW2 8222   0.785  12.545  11.540  1.4156 -0.5903  0.6774
65415SOL     OW 8223  12.689  10.688   6.718  0.6260  0.2513  0.6177
65415SOL    HW1 8224  12.712  10.759   6.659 -0.7505  0.4081  0.2348
65415SOL    HW2 8225  12.730  10.712   6.801  3.4237 -0.4588 -0.4435
65416SOL     OW 8226  12.496  13.035   1.425  0.2691 -0.5215 -0.3100
65416SOL    HW1 8227  12.415  13.013   1.379 -0.4729  0.6116  0.4117
65416SOL    HW2 8228  12.489  12.990   1.509  0.8655 -1.2478 -0.6429
65417SOL     OW 8229   1.449  11.367   4.110  0.3212 -0.0564  0.2407
65417SOL    HW1 8230   1.486  11.289   4.151  3.6049  0.6973 -1.0033
65417SOL    HW2 8231   1.466  11.438   4.172  1.3261  0.3398 -0.4489
65418SOL     OW 8232  12.363   4.015   0.127 -0.0103 -0.0450 -0.1050
65418SOL    HW1 8233  12.315   3.940   0.091 -0.5393 -0.6206  1.7172
65418SOL    HW2 8234  12.300   4.087   0.128  0.0325 -0.0012 -0.3759
65419SOL     OW 8235   0.239  12.382   5.407 -0.4172 -0.6277 -0.2554
65419SOL    HW1 8236   0.183  12.429   5.468  1.1030 -2.0224  2.3855
65419SOL    HW2 8237   0.183  12.315   5.368 -0.9179 -1.2105  1.3971
65420SOL     OW 8238  11.069  10.598   3.601  0.5944 -0.3025 -0.2575
65420SOL    HW1 8239  11.110  10.627   3.519  0.6629  0.9189  0.1824
65420SOL    HW2 8240  10.977  10.587   3.579  1.0655 -3.0710 -1.2599
65421SOL     OW 8241  10.321   8.384   7.844  0.5597  0.0711 -0.9985
65421SOL    HW1 8242  10.381   8.327   7.893 -1.0199 -1.0403 -0.2851
65421SOL    HW2 8243  10.379   8.441   7.793  2.2462 -0.1937  0.5011
65422SOL     OW 8244   0.868   3.682   3.574 -0.0088  0.9001  0.7534
65422SOL    HW1 8245   0.940   3.661   3.514 -0.6369  2.5052 -0.6517
65422SOL    HW2 8246   0.908   3.735   3.642  0.2736  1.1957  0.3607
65423SOL     OW 8247   7.705   7.129   5.350 -0.0561 -0.1088 -0.1286
65423SOL    HW1 8248   7.708   7.045   5.396  0.4596 -0.0221 -0.0057
65423SOL    HW2 8249   7.625   7.124   5.297  1.2618 -1.7022 -2.1043
65424SOL     OW 8250   0.683   2.362   1.172  0.0978 -0.1609  0.2760
65424SOL    HW1 8251   0.624   2.371   1.248 -0.5958  0.1107 -0.2876
65424SOL    HW2 8252   0.675   2.270   1.148 -1.9584  0.3462 -1.2504
65425SOL     OW 8253   3.194   5.412  10.904 -0.0538 -0.5911  0.2056
65425SOL    HW1 8254   3.101   5.401  10.886 -0.1153 -0.8403  0.6758
65425SOL    HW2 8255   3.203   5.505  10.925 -0.1553 -0.5194 -0.0572
65426SOL     OW 8256   8.547   2.232   8.034 -0.1595 -0.4839 -0.2583
65426SOL    HW1 8257   8.576   2.158   7.981 -0.6809 -1.3162  0.5886
65426SOL    HW2 8258   8.625   2.288   8.041  0.2063 -0.8835 -1.0093
65427SOL     OW 8259   8.894  13.532   3.183  0.3092 -0.0906  0.0222
65427SOL    HW1 8260   8.918  13.625   3.189 -0.4352  0.0906  0.3918
65427SOL    HW2 8261   8.824  13.530   3.118 -2.4397  0.2404  2.7430
65428SOL     OW 8262   4.342   2.869  10.267  0.3620 -0.1149 -0.0503
65428SOL    HW1 8263   4.417   2.812  10.251  1.0619  0.6915  0.2689
65428SOL    HW2 8264   4.331   2.866  10.362 -0.1416 -0.3750 -0.1119
65429SOL     OW 8265   1.313   0.227   0.731  0.2653  0.5305 -0.2246
65429SOL    HW1 8266   1.396   0.273   0.713  0.0663  0.8320 -0.3814
65429SOL    HW2 8267   1.331   0.136   0.710  0.8803  0.4014  0.7544
65430SOL     OW 8268  13.070   0.331   5.892  0.2622  0.5149  1.0902
65430SOL    HW1 8269  13.164   0.326   5.913  0.3360 -2.2179  0.5105
65430SOL    HW2 8270  13.038   0.242   5.905 -1.1425  0.1146 -3.4566
65431SOL     OW 8271   6.555   2.369  10.194 -0.0997  0.3064  0.6082
65431SOL    HW1 8272   6.501   2.293  10.217 -0.5229  0.6172  0.6503
65431SOL    HW2 8273   6.607   2.386  10.273  1.6704 -1.3272 -0.1381
65432SOL     OW 8274   4.512   3.812   4.222 -0.3722  0.3870  0.4667
65432SOL    HW1 8275   4.470   3.731   4.251  0.8150  0.1971  1.7494
65432SOL    HW2 8276   4.601   3.808   4.258  0.2285  1.5408 -0.7741
65433SOL     OW 8277  10.102   9.497   4.176  0.6383  0.2553 -0.5509
65433SOL    HW1 8278  10.125   9.492   4.269  1.5295 -0.6286 -0.8108
65433SOL    HW2 8279  10.125   9.412   4.140 -0.7604  0.1803 -1.3650
65434SOL     OW 8280   5.953   6.267   9.190  0.2128 -0.0625  0.8304
65434SOL    HW1 8281   5.938   6.178   9.158  1.2982  0.0828 -0.1518
65434SOL    HW2 8282   6.046   6.283   9.175  0.3815  0.6856  2.4441
65435SOL     OW 8283   4.637   6.880  13.361  0.0054  0.5684 -0.2295
65435SOL    HW1 8284   4.712   6.938  13.352 -1.1321  2.1389 -0.0588
65435SOL    HW2 8285   4.575   6.928  13.415 -0.4099 -1.4566  1.2084
65436SOL     OW 8286  12.858   7.931   9.759  0.1745 -0.3454 -0.0334
65436SOL    HW1 8287  12.934   7.884   9.792  0.9103 -0.0450 -1.2398
65436SOL    HW2 8288  12.785   7.900   9.813  0.8766 -1.8353  0.0953
65437SOL     OW 8289   1.235   9.304  13.752 -0.2341 -0.1793  0.6743
65437SOL    HW1 8290   1.294   9.285  13.825 -0.2968  0.1828  0.8235
65437SOL    HW2 8291   1.264   9.246  13.682 -0.5354 -0.9536  1.1690
65438SOL     OW 8292   2.460  12.405  10.006  0.4964 -0.1247 -0.2022
65438SOL    HW1 8293   2.532  12.352  10.040  0.9766  0.0320 -0.9552
65438SOL    HW2 8294   2.472  12.491  10.046 -0.2141 -0.5255  0.9258
65439SOL     OW 8295   4.945   6.679  13.214  0.2263  0.4017 -0.5140
65439SOL    HW1 8296   4.970   6.605  13.159  1.0114 -0.1290  0.5158
65439SOL    HW2 8297   5.027   6.707  13.254 -0.2151  1.2319 -0.1656
65440SOL     OW 8298   6.520  13.225   8.485  0.6993 -0.1983 -0.5319
65440SOL    HW1 8299   6.424  13.223   8.477  0.8040  0.0960 -2.3238
65440SOL    HW2 8300   6.539  13.310   8.523  0.1866 -0.9610  1.5341
65441SOL     OW 8301   8.280  10.105  12.441  0.0810  0.4160 -0.5777
65441SOL    HW1 8302   8.259  10.157  12.363 -1.6597  0.0229 -0.4000
65441SOL    HW2 8303   8.283  10.169  12.512  0.1482  0.5679 -0.7161
65442SOL     OW 8304   9.271   3.055   5.505  1.2064 -0.0173 -0.0956
65442SOL    HW1 8305   9.339   2.991   5.527  0.4243 -0.6892  0.4332
65442SOL    HW2 8306   9.201   3.040   5.569 -1.0886 -1.9532 -2.7416
65443SOL     OW 8307   8.745   7.052   2.050 -0.1943  0.4640  0.6542
65443SOL    HW1 8308   8.761   6.972   2.101  2.4588 -0.8768 -1.9960
65443SOL    HW2 8309   8.701   7.022   1.971 -1.6638  2.1125  0.7717
65444SOL     OW 8310   7.605  12.511   4.209 -0.0758 -0.2325 -0.0607
65444SOL    HW1 8311   7.669  12.551   4.150 -0.0091 -0.0262  0.1511
65444SOL    HW2 8312   7.540  12.472   4.150 -0.4836  0.7324 -0.2776
65445SOL     OW 8313  10.176   6.916   9.499  0.1368 -0.2114 -0.4181
65445SOL    HW1 8314  10.153   6.863   9.422  0.5956 -1.5259  0.3178
65445SOL    HW2 8315  10.216   6.994   9.463 -2.2260  0.5546 -1.6350
65446SOL     OW 8316   2.402  11.550   0.642  0.7456  0.4935 -0.1392
65446SOL    HW1 8317   2.362  11.504   0.716  0.0087  0.9273 -0.2596
65446SOL    HW2 8318   2.466  11.608   0.681  0.7833  0.2875  0.1102
65447SOL     OW 8319  11.444  11.689  13.050  0.4732  0.8826  0.4330
65447SOL    HW1 8320  11.376  11.625  13.028  0.9204  0.4513  0.2727
65447SOL    HW2 8321  11.432  11.705  13.144 -1.5805  2.8897 -0.0862
65448SOL     OW 8322   0.253  10.140   4.781  0.4095 -0.2831  0.2274
65448SOL    HW1 8323   0.232  10.050   4.756  1.9288 -0.6354  0.0688
65448SOL    HW2 8324   0.288  10.179   4.701 -0.8495  0.6668  0.1265
65449SOL     OW 8325   8.438   5.872  10.243 -0.1735 -0.5373  0.0227
65449SOL    HW1 8326   8.486   5.938  10.294 -0.5792 -0.5579  0.4384
65449SOL    HW2 8327   8.349   5.876  10.277 -0.5442 -0.3071 -0.9348
65450SOL     OW 8328   4.820   4.922  11.177  0.5154  0.1633  0.0491
65450SOL    HW1 8329   4.877   4.898  11.250 -0.1526  1.0723  0.9039
65450SOL    HW2 8330   4.769   4.843  11.159 -0.5810  0.4269  1.7945
65451SOL     OW 8331   1.197   9.863   9.435  0.2741 -0.0214  0.1150
65451SOL    HW1 8332   1.288   9.861   9.465  0.1554 -0.9178  0.4595
65451SOL    HW2 8333   1.185   9.780   9.389  0.0356  0.7176 -1.1945
65452SOL     OW 8334  12.796  14.032  10.945  0.0680  0.5506  0.0362
65452SOL    HW1 8335  12.861  14.009  10.879  1.8179  0.2268  1.8000
65452SOL    HW2 8336  12.739  14.096  10.901  1.3582  0.6147 -1.6453
65453SOL     OW 8337  10.492  13.915   3.967 -0.2538  0.8962  0.3016
65453SOL    HW1 8338  10.523  13.937   3.879 -0.9950  2.7628  0.4602
65453SOL    HW2 8339  10.398  13.901   3.957 -0.0650 -0.6081  0.5178
65454SOL     OW 8340   1.597   2.606  13.254 -0.2675  0.7801 -0.3555
65454SOL    HW1 8341   1.655   2.652  13.193  1.1108 -0.3087  0.0705
65454SOL    HW2 8342   1.655   2.576  13.324 -1.9455  2.9683  2.1730
65455SOL     OW 8343  12.849   4.265  11.924  0.5316 -0.6445  0.4294
65455SOL    HW1 8344  12.875   4.177  11.948 -1.2491 -1.1882  0.5082
65455SOL    HW2 8345  12.756   4.269  11.945  0.8025  1.6401  1.5727
65456SOL     OW 8346   4.371   4.404   0.746 -0.8685  0.0748  0.3609
65456SOL    HW1 8347   4.293   4.458   0.759 -0.2243  1.0351  0.3429
65456SOL    HW2 8348   4.406   4.433   0.662 -1.0201 -1.0406 -0.1057
65457SOL     OW 8349  13.172   0.016   9.814 -0.4415 -0.7791  0.2543
65457SOL    HW1 8350  13.218  -0.053   9.863  0.0454  0.6130  1.8448
65457SOL    HW2 8351  13.083   0.014   9.848 -0.3473 -0.4409  0.5299
65458SOL     OW 8352   9.190  10.540   0.179  0.1834  0.2714 -0.2977
65458SOL    HW1 8353   9.095  10.530   0.173 -0.1595  1.2278  2.2999
65458SOL    HW2 8354   9.202  10.620   0.230  2.4080 -0.0105 -0.2899
65459SOL     OW 8355   0.644   0.998   1.930  0.1249 -0.1391  0.2583
65459SOL    HW1 8356   0.580   0.988   1.860  0.8334  0.6575 -0.5205
65459SOL    HW2 8357   0.609   1.068   1.985  0.6515  0.8063 -0.5736
65460SOL     OW 8358  11.467   1.202   7.374  0.4561 -0.5121  0.2542
65460SOL    HW1 8359  11.411   1.165   7.306  0.2623 -1.2912  0.8261
65460SOL    HW2 8360  11.454   1.297   7.366  0.3148 -0.6020 -0.6768
65461SOL     OW 8361   7.314   8.556   6.198 -0.2485  0.6930 -0.0899
65461SOL    HW1 8362   7.243   8.509   6.153 -0.4408  1.6768 -0.8490
65461SOL    HW2 8363   7.394   8.522   6.159 -0.2627 -0.5028  0.8443
65462SOL     OW 8364   8.229  11.604   8.363  0.1739 -0.1059  0.4382
65462SOL    HW1 8365   8.151  11.554   8.386 -1.7849  1.9895 -1.1869
65462SOL    HW2 8366   8.212  11.693   8.394  1.4673  0.6362 -0.8223
65463SOL     OW 8367   3.932   7.006  10.444  1.2436 -0.0757  0.2749
65463SOL    HW1 8368   4.012   7.057  10.430 -0.0228  1.3201 -2.8162
65463SOL    HW2 8369   3.940   6.932  10.383  0.0485  0.2729 -0.3276
65464SOL     OW 8370   5.062   2.882   6.165 -0.3942  0.1564 -0.4240
65464SOL    HW1 8371   5.107   2.885   6.249  0.0369 -0.6144 -0.6272
65464SOL    HW2 8372   4.974   2.849   6.186 -0.9867  1.8912  0.0059
65465SOL     OW 8373   2.906  11.782  12.384  0.0295 -0.1985  0.0342
65465SOL    HW1 8374   2.818  11.756  12.355 -0.2848  0.6583  0.1916
65465SOL    HW2 8375   2.924  11.863  12.337  0.3522  0.1229  0.7038
65466SOL     OW 8376   9.116   2.103   4.894  0.6057 -0.5443  0.3457
65466SOL    HW1 8377   9.032   2.081   4.935  0.0214  1.2693  0.2494
65466SOL    HW2 8378   9.097   2.182   4.843  1.8365 -1.4235 -1.6020
65467SOL     OW 8379   4.423  13.886   4.789 -0.2332  0.6052 -0.5853
65467SOL    HW1 8380   4.365  13.823   4.832  1.8127  0.3407  2.0001
65467SOL    HW2 8381   4.405  13.969   4.834  2.0500  0.2926  1.0393
65468SOL     OW 8382   6.859   7.581   4.324 -0.2754  0.6863  0.2000
65468SOL    HW1 8383   6.842   7.508   4.264 -0.4884  0.9759 -0.0948
65468SOL    HW2 8384   6.945   7.562   4.361  0.7271  1.4420 -1.6003
65469SOL     OW 8385   1.412   0.281  12.912  0.4178 -0.2040 -0.1695
65469SOL    HW1 8386   1.379   0.273  13.001  2.3129 -0.2720  0.5819
65469SOL    HW2 8387   1.415   0.192  12.878  1.6035 -0.4254  0.4687
65470SOL     OW 8388   7.089   4.329  13.159  0.3535 -0.0811  0.1703
65470SOL    HW1 8389   7.032   4.270  13.111 -2.2096  2.5602 -0.3165
65470SOL    HW2 8390   7.177   4.305  13.132 -0.1336 -5.5573  2.2871
65471SOL     OW 8391   2.726  12.068  11.807 -0.5502 -0.0058  0.3382
65471SOL    HW1 8392   2.714  12.105  11.719  2.9986 -0.2373 -0.3969
65471SOL    HW2 8393   2.687  12.133  11.866 -1.1871  1.1495 -1.2753
65472SOL     OW 8394   7.357  11.801  12.168  0.1424  0.1694  0.4613
65472SOL    HW1 8395   7.397  11.878  12.129 -1.6775  0.9079 -0.0697
65472SOL    HW2 8396   7.409  11.784  12.247  0.1531  2.4071  0.9945
65473SOL     OW 8397   2.827   8.284   7.559 -0.0093  0.3389  0.5274
65473SOL    HW1 8398   2.750   8.341   7.550 -1.1138 -1.4055 -2.0701
65473SOL    HW2 8399   2.794   8.207   7.605  0.0479 -0.5629 -0.8887
65474SOL     OW 8400  13.172   2.470   5.958 -0.5350 -0.9291  0.0467
65474SOL    HW1 8401  13.170   2.402   6.026  0.6901 -1.6446 -0.5856
65474SOL    HW2 8402  13.234   2.436   5.893  1.7000  1.6661  0.6321
65475SOL     OW 8403  11.373  10.956   7.429 -0.6027  0.0360  0.1390
65475SOL    HW1 8404  11.317  10.927   7.356  0.4121 -0.2235 -0.5519
65475SOL    HW2 8405  11.341  11.044   7.449 -1.2920 -0.1248 -0.2063
65476SOL     OW 8406  11.290  10.251   0.663 -0.1739 -0.1829 -0.0155
65476SOL    HW1 8407  11.366  10.227   0.610 -0.4582  1.1194 -1.0765
65476SOL    HW2 8408  11.321  10.249   0.753  1.2983  0.8635 -0.4583
65477SOL     OW 8409   0.435   1.096  10.832  0.2395  0.0435 -0.6231
65477SOL    HW1 8410   0.377   1.099  10.756 -0.8272  0.4346  0.1823
65477SOL    HW2 8411   0.442   1.187  10.860  1.6191  0.0671 -0.9531
65478SOL     OW 8412   2.647   1.402   6.427  0.4006 -0.3494  0.0164
65478SOL    HW1 8413   2.559   1.377   6.399 -0.0172 -0.0979  1.0604
65478SOL    HW2 8414   2.670   1.339   6.494  1.3539 -0.8936 -0.7989
65479SOL     OW 8415  12.833   9.417  11.376  0.5698 -0.1367  0.1776
65479SOL    HW1 8416  12.818   9.511  11.366  1.5884  0.2220  1.6424
65479SOL    HW2 8417  12.767   9.376  11.320  0.0131  1.4389 -0.3835
65480SOL     OW 8418   3.118   5.527  11.461  0.2551  0.0273  0.1029
65480SOL    HW1 8419   3.056   5.599  11.473  1.3515  1.1196 -0.6085
65480SOL    HW2 8420   3.156   5.514  11.548  0.2755  0.5138  0.1685
65481SOL     OW 8421   0.895   7.090   7.014  0.3350  0.2329  0.0893
65481SOL    HW1 8422   0.845   7.160   6.972  0.6434  0.6731  0.4474
65481SOL    HW2 8423   0.829   7.024   7.038  0.2093 -0.3371 -1.6371
65482SOL     OW 8424  10.521   4.018   1.330  0.4493 -0.0813  0.5542
65482SOL    HW1 8425  10.612   3.988   1.323  0.2548 -0.3021 -1.7501
65482SOL    HW2 8426  10.473   3.941   1.363  0.8758 -0.4304  0.3703
65483SOL     OW 8427   7.306   1.318   2.221  0.2270 -0.2059  0.2515
65483SOL    HW1 8428   7.281   1.334   2.130  1.2207 -1.3452 -0.2540
65483SOL    HW2 8429   7.348   1.232   2.219  1.6250  0.4047  1.5175
65484SOL     OW 8430   8.098   5.277  12.465  0.2228  0.0729  0.1413
65484SOL    HW1 8431   8.070   5.369  12.461  0.7157  0.2254  0.1043
65484SOL    HW2 8432   8.020   5.229  12.493 -0.5874  0.2375 -1.7106
65485SOL     OW 8433   4.541   0.831   1.821 -0.0258 -0.4046 -0.6816
65485SOL    HW1 8434   4.515   0.876   1.741  0.3293 -0.5833 -0.8971
65485SOL    HW2 8435   4.621   0.876   1.849 -0.1583 -0.3297 -0.4141
65486SOL     OW 8436   8.911   7.508  10.880  0.6562  0.0861  0.3515
65486SOL    HW1 8437   8.874   7.433  10.927  1.5710  0.2699  1.3952
65486SOL    HW2 8438   8.926   7.475  10.792  0.0943 -0.6443  0.5131
65487SOL     OW 8439   5.860   7.589   1.092  0.0752 -0.0125  0.5905
65487SOL    HW1 8440   5.815   7.662   1.048  0.6879  0.2225  0.3390
65487SOL    HW2 8441   5.790   7.528   1.114 -0.4088  0.4932  0.4915
65488SOL     OW 8442   0.083   4.212   9.673 -0.1180 -0.0322 -0.0846
65488SOL    HW1 8443   0.072   4.274   9.745 -0.2402 -0.4037  0.2249
65488SOL    HW2 8444   0.020   4.240   9.607 -1.0839 -0.5677  0.5762
65489SOL     OW 8445   8.822  13.161   4.393 -0.3468 -0.5614  0.3509
65489SOL    HW1 8446   8.911  13.133   4.375  0.1280  0.7089  0.6320
65489SOL    HW2 8447   8.767  13.104   4.339  0.5776 -1.8522  0.7410
65490SOL     OW 8448   1.073   0.519   8.621  0.6933 -0.5448  0.1724
65490SOL    HW1 8449   1.048   0.471   8.542  1.8990 -0.2393 -0.4261
65490SOL    HW2 8450   1.027   0.602   8.614  1.5787 -0.1074 -0.7527
65491SOL     OW 8451   1.579  13.740   1.585 -0.0330  0.5029 -0.5874
65491SOL    HW1 8452   1.489  13.742   1.552  0.2036  0.1655 -1.2872
65491SOL    HW2 8453   1.580  13.667   1.647  0.2007 -0.7027 -1.9713
65492SOL     OW 8454  11.952   3.783   2.257  0.5162  0.3271 -0.1287
65492SOL    HW1 8455  11.886   3.753   2.194  1.5700 -1.7556 -0.3628
65492SOL    HW2 8456  11.909   3.778   2.342 -0.4620  1.7374 -0.5050
65493SOL     OW 8457   5.771   9.150  11.317  0.4602 -0.0630  0.0242
65493SOL    HW1 8458   5.811   9.079  11.367  0.5959  1.5855  2.4301
65493SOL    HW2 8459   5.687   9.165  11.360  0.5579  1.3891 -0.2435
65494SOL     OW 8460   3.615   6.957   0.780 -0.5212  0.2364 -0.4962
65494SOL    HW1 8461   3.583   7.043   0.752 -2.7677 -0.6894 -0.9153
65494SOL    HW2 8462   3.582   6.896   0.715 -1.3459 -1.3026  1.2710
65495SOL     OW 8463  13.158  11.023  10.979  0.1626 -0.2248  0.3295
65495SOL    HW1 8464  13.176  10.944  11.030  0.1065 -0.0804  0.5711
65495SOL    HW2 8465  13.230  11.027  10.915 -1.1379 -1.8469 -1.3514
65496SOL     OW 8466   5.590   3.747  12.790  0.3815 -0.5272  0.2588
65496SOL    HW1 8467   5.662   3.738  12.852  1.9563 -0.3858 -1.4393
65496SOL    HW2 8468   5.592   3.840  12.764 -0.7453 -0.4092  0.5433
65497SOL     OW 8469   1.314   9.327   9.595  0.3601 -0.0773 -0.0017
65497SOL    HW1 8470   1.368   9.250   9.611 -0.7654 -1.0849 -0.8476
65497SOL    HW2 8471   1.288   9.357   9.682  2.5810  0.6979  0.4511
65498SOL     OW 8472   4.722   1.490   1.744 -0.0272  0.2891  0.0290
65498SOL    HW1 8473   4.789   1.423   1.735 -0.4028  0.0058 -0.7389
65498SOL    HW2 8474   4.769   1.572   1.731  0.0893  0.0656 -1.0776
65499SOL     OW 8475   0.126   2.452   2.394 -0.4099 -0.0997 -0.6487
65499SOL    HW1 8476   0.044   2.500   2.409 -0.1880 -0.0380  0.4400
65499SOL    HW2 8477   0.175   2.461   2.476  0.1039 -1.2807 -0.8004
65500SOL     OW 8478   9.786   5.474   1.524  0.8248  0.4376 -0.0354
65500SOL    HW1 8479   9.863   5.496   1.472  0.5341 -1.0143 -1.1526
65500SOL    HW2 8480   9.713   5.482   1.463  0.2301  0.5794  0.6791
65501SOL     OW 8481   9.117   7.896  13.717  0.2183  0.0589 -0.3431
65501SOL    HW1 8482   9.187   7.933  13.772  0.8130 -0.2826 -0.8584
65501SOL    HW2 8483   9.054   7.967  13.707 -0.5441 -0.2433  1.8242
65502SOL     OW 8484   9.700   0.779   5.956 -0.3666 -0.5227  0.2319
65502SOL    HW1 8485   9.753   0.817   5.886  0.3306  1.5611  1.7715
65502SOL    HW2 8486   9.651   0.709   5.914  1.7893 -0.9262 -1.7839
65503SOL     OW 8487   8.707   9.394  13.826 -0.0782 -0.3138 -1.0066
65503SOL    HW1 8488   8.687   9.387  13.733  2.2335 -0.9227 -1.5233
65503SOL    HW2 8489   8.789   9.444  13.829  0.4650 -1.2270  0.6084
65504SOL     OW 8490  12.535   1.045   4.284 -0.5401 -0.3292  0.4294
65504SOL    HW1 8491  12.514   0.978   4.220  1.0866 -1.2574  0.8184
65504SOL    HW2 8492  12.629   1.036   4.299 -0.1912  2.2189  0.3069
65505SOL     OW 8493  12.551   5.550   9.642 -0.0736 -0.1528  0.4815
65505SOL    HW1 8494  12.514   5.632   9.674 -0.9362 -0.2514 -0.2168
65505SOL    HW2 8495  12.642   5.572   9.621 -0.1533  0.4934  0.7786
65506SOL     OW 8496  13.077  11.417   7.831  0.3717  0.3565  0.0653
65506SOL    HW1 8497  13.061  11.409   7.925 -0.8564  0.4502 -0.1137
65506SOL    HW2 8498  13.034  11.340   7.793 -0.4744  1.0995 -0.5386
65507SOL     OW 8499   1.522  13.226  12.145 -0.0587  0.2852  0.7442
65507SOL    HW1 8500   1.458  13.289  12.110  0.3524  0.9587  1.1793
65507SOL    HW2 8501   1.472  13.176  12.210 -0.7205 -0.7075 -0.4879
65508SOL     OW 8502   7.415   1.606  12.891 -0.3052  0.0645 -0.5131
65508SOL    HW1 8503   7.499   1.609  12.846  0.8267  0.8010  1.5044
65508SOL    HW2 8504   7.368   1.683  12.860  0.5175  0.6441 -0.3673
65509SOL     OW 8505  13.960  12.115  11.129  0.0146  0.0493  0.1539
65509SOL    HW1 8506  13.911  12.144  11.052  1.0613 -0.9195 -0.9176
65509SOL    HW2 8507  14.006  12.193  11.159 -0.8634  0.5741  0.1845
65510SOL     OW 8508  12.343  13.038   2.895 -0.1743 -0.3850  0.0372
65510SOL    HW1 8509  12.343  12.983   2.816  0.3899  1.7930 -1.6011
65510SOL    HW2 8510  12.431  13.074   2.899 -0.6981  0.9061  0.6208
65511SOL     OW 8511  13.943  12.351   3.466  0.0603 -0.2848  0.1544
65511SOL    HW1 8512  14.025  12.319   3.503  0.7658  3.1016  1.8919
65511SOL    HW2 8513  13.969  12.396   3.385  0.4424  2.6844  1.7720
65512SOL     OW 8514   3.316   5.751   5.466 -0.2131  0.2648 -0.1423
65512SOL    HW1 8515   3.384   5.719   5.525 -0.8720  0.2491  0.6277
65512SOL    HW2 8516   3.298   5.678   5.408  0.7173  0.4086 -0.6313
65513SOL     OW 8517  11.723   2.270  10.874  0.3844  0.0993  0.3786
65513SOL    HW1 8518  11.715   2.321  10.954  0.5308  0.2568  0.2933
65513SOL    HW2 8519  11.647   2.295  10.822  1.1337  1.2014 -0.2102
65514SOL     OW 8520  13.415   9.328   8.562  0.1414  0.1633  0.1973
65514SOL    HW1 8521  13.507   9.302   8.564 -0.3916 -1.8657  0.9510
65514SOL    HW2 8522  13.415   9.414   8.520  2.3126 -0.0258 -0.3036
65515SOL     OW 8523   6.635  13.306   1.816 -0.0485 -0.1262 -0.2556
65515SOL    HW1 8524   6.677  13.221   1.832  1.8271  0.8137  0.1786
65515SOL    HW2 8525   6.643  13.319   1.721  0.2504 -0.1598 -0.2364
65516SOL     OW 8526   1.270  12.408   6.580 -0.4508 -0.5689  0.1043
65516SOL    HW1 8527   1.265  12.323   6.623  2.2132  0.4835  2.8907
65516SOL    HW2 8528   1.328  12.394   6.506 -1.3296 -1.4753 -0.4311
65517SOL     OW 8529   2.586   6.451  13.379 -0.2670  0.1613 -0.0989
65517SOL    HW1 8530   2.662   6.396  13.400 -0.0109 -0.3783 -2.2065
65517SOL    HW2 8531   2.543   6.464  13.463  0.6837 -1.7433  0.7671
65518SOL     OW 8532  11.072   4.360  13.656  0.0479 -0.5606  0.4480
65518SOL    HW1 8533  11.003   4.298  13.679  0.7152 -1.0980  1.0574
65518SOL    HW2 8534  11.077   4.356  13.560  1.0238 -2.5521  0.5114
65519SOL     OW 8535  10.382  13.141   9.303  0.4445 -0.5896  0.2175
65519SOL    HW1 8536  10.357  13.162   9.214 -0.3701 -1.1506  0.3049
65519SOL    HW2 8537  10.333  13.061   9.324 -2.7782  1.7141  2.5810
65520SOL     OW 8538  10.352  11.008   6.790  0.0590 -0.1082 -0.4374
65520SOL    HW1 8539  10.389  11.052   6.867 -0.5485 -0.1022 -0.1395
65520SOL    HW2 8540  10.397  11.048   6.716 -0.7666  1.3306 -0.1969
65521SOL     OW 8541   9.353   0.569  13.248 -0.1128  0.0535  0.0774
65521SOL    HW1 8542   9.416   0.505  13.215  0.3177  0.1612  0.6738
65521SOL    HW2 8543   9.269   0.524  13.244  0.2162 -0.6438  0.7185
65522SOL     OW 8544   9.384   3.790   2.860 -0.1861 -0.3350  0.4018
65522SOL    HW1 8545   9.421   3.820   2.777 -1.1748  0.3825  0.1905
65522SOL    HW2 8546   9.330   3.715   2.837 -2.5587  1.4111 -0.0844
65523SOL     OW 8547   2.196   2.558   0.730  0.3170  0.0531  0.6458
65523SOL    HW1 8548   2.260   2.552   0.659  0.9832 -1.3598  1.3253
65523SOL    HW2 8549   2.207   2.647   0.764 -1.0951  1.3372 -1.9341
65524SOL     OW 8550   2.907  11.298  11.838 -0.4046  0.1370  0.9031
65524SOL    HW1 8551   2.817  11.264  11.838 -0.9858  1.5364  1.9244
65524SOL    HW2 8552   2.962  11.222  11.855 -1.4590 -0.6337  0.9994
65525SOL     OW 8553   2.404   8.803   1.709  0.9922 -0.6147  0.1139
65525SOL    HW1 8554   2.404   8.871   1.642  0.4402 -1.2476 -0.5437
65525SOL    HW2 8555   2.493   8.802   1.743  0.4977  2.0008  1.7618
65526SOL     OW 8556   4.679  11.130  11.251  0.6228  0.0567  0.2450
65526SOL    HW1 8557   4.655  11.075  11.325  1.3684 -1.0982 -0.3530
65526SOL    HW2 8558   4.675  11.219  11.286  1.8795 -0.5008  1.9633
65527SOL     OW 8559   4.505   2.929  12.985  0.3892  0.3975 -0.0327
65527SOL    HW1 8560   4.534   2.884  13.065 -1.0463  2.6063  1.8784
65527SOL    HW2 8561   4.585   2.959  12.944  1.3010 -2.5835 -0.6449
65528SOL     OW 8562   4.549   6.047   0.495 -0.2202  0.3230  0.0342
65528SOL    HW1 8563   4.497   5.974   0.463  1.3946 -1.0442  0.3856
65528SOL    HW2 8564   4.531   6.050   0.589 -0.1026  0.2255  0.0596
65529SOL     OW 8565   7.235   9.667  13.105  0.1025  0.5645  0.3424
65529SOL    HW1 8566   7.306   9.617  13.066  0.7523  1.7659 -0.0626
65529SOL    HW2 8567   7.205   9.613  13.178  1.1167 -0.1748  0.2275
65530SOL     OW 8568   0.256   2.905  11.273  0.2878  0.3448  0.5496
65530SOL    HW1 8569   0.238   2.998  11.280 -0.9926  0.0917  0.9394
65530SOL    HW2 8570   0.186   2.863  11.324  0.9962 -0.8140  0.6114
65531SOL     OW 8571   8.695   3.338  12.614 -0.0175  0.1542 -0.3858
65531SOL    HW1 8572   8.698   3.259  12.560  0.1581  0.4735 -0.8431
65531SOL    HW2 8573   8.631   3.395  12.571  0.8486  0.8158 -0.8162
65532SOL     OW 8574   4.295   5.613   4.966  0.6650  0.1620 -0.1814
65532SOL    HW1 8575   4.205   5.587   4.945  0.5957 -0.0936  0.4080
65532SOL    HW2 8576   4.285   5.682   5.031  0.8990  0.0966 -0.0767
65533SOL     OW 8577   4.709   3.122   1.584  0.2552 -0.4168 -0.5647
65533SOL    HW1 8578   4.625   3.165   1.567  0.7626  1.2934  0.8948
65533SOL    HW2 8579   4.686   3.042   1.630 -0.7245 -1.8788 -3.3554
65534SOL     OW 8580   7.203   5.800  12.671  0.5250  0.2139  0.2411
65534SOL    HW1 8581   7.214   5.707  12.693 -1.8130 -0.7260 -1.9401
65534SOL    HW2 8582   7.161   5.798  12.585  0.1356  3.3312  0.2652
65535SOL     OW 8583  10.964   1.602   5.414  0.6322  0.6019 -0.3629
65535SOL    HW1 8584  10.887   1.657   5.433 -2.2089 -2.5261 -1.7747
65535SOL    HW2 8585  10.988   1.626   5.325 -0.3496 -0.1002 -0.8338
65536SOL     OW 8586  13.770   3.396   8.027  0.4476 -0.3968 -0.0636
65536SOL    HW1 8587  13.690   3.406   8.078 -0.0214 -0.1590 -0.8236
65536SOL    HW2 8588  13.835   3.450   8.072  0.2031 -0.6437  0.5948
65537SOL     OW 8589   5.865  10.018   7.419 -0.2650  0.1949 -0.4174
65537SOL    HW1 8590   5.879  10.093   7.361  1.4110 -0.0864 -0.4146
65537SOL    HW2 8591   5.932  10.026   7.486 -2.3432  0.6712  1.7462
65538SOL     OW 8592   8.284  11.669  10.663 -0.4831  0.2685  0.0891
65538SOL    HW1 8593   8.264  11.721  10.585 -0.9187 -1.2185 -0.8335
65538SOL    HW2 8594   8.354  11.717  10.707  0.2429  0.8119 -1.5748
65539SOL     OW 8595   0.462   6.002  13.742 -0.4191  0.8388  0.1165
65539SOL    HW1 8596   0.427   6.049  13.667 -1.9729 -0.6384 -0.1627
65539SOL    HW2 8597   0.413   5.919  13.743  1.2705 -0.2156  1.3220
65540SOL     OW 8598  10.790   6.396   2.581  0.0454 -0.1728 -0.4598
65540SOL    HW1 8599  10.827   6.467   2.528  0.1108  0.6862  0.7103
65540SOL    HW2 8600  10.715   6.435   2.626  0.1701 -0.7983  0.3240
65541SOL     OW 8601  10.670   3.735   0.198 -0.1227  0.2602 -0.0622
65541SOL    HW1 8602  10.712   3.780   0.271 -2.0355  0.6454  0.8581
65541SOL    HW2 8603  10.671   3.642   0.224  1.1149  0.1081 -0.5740
65542SOL     OW 8604   7.869   9.879  12.880  0.0497  0.2540  0.4624
65542SOL    HW1 8605   7.871   9.797  12.831  0.1001  0.6402 -0.1928
65542SOL    HW2 8606   7.903   9.945  12.819  0.8332  0.6194  1.2495
65543SOL     OW 8607   8.621   3.139   2.832  0.5234  0.1310 -0.4879
65543SOL    HW1 8608   8.674   3.059   2.833  1.1174  0.5080 -1.2398
65543SOL    HW2 8609   8.533   3.108   2.809  0.6268 -0.3710 -0.2381
65544SOL     OW 8610   7.197   0.340  10.802 -0.3778  0.4497 -0.0605
65544SOL    HW1 8611   7.236   0.397  10.736  0.6928 -0.5733 -0.3434
65544SOL    HW2 8612   7.146   0.399  10.857  0.5187  1.6459 -0.4672
65545SOL     OW 8613  10.877  10.376  13.611  0.1457  0.1093 -0.0798
65545SOL    HW1 8614  10.898  10.346  13.700  1.1780  1.8474  0.3111
65545SOL    HW2 8615  10.848  10.467  13.623 -1.7781 -0.2657 -1.3147
65546SOL     OW 8616   2.887   6.961   8.263 -0.6981  0.0318 -0.2220
65546SOL    HW1 8617   2.845   6.885   8.303 -0.7381 -1.4642 -2.8881
65546SOL    HW2 8618   2.978   6.935   8.251 -0.1672  1.2956  0.8258
65547SOL     OW 8619  10.519   3.492  10.395 -0.0814  0.1802  0.1683
65547SOL    HW1 8620  10.508   3.550  10.319 -2.3449  0.0203  0.3361
65547SOL    HW2 8621  10.574   3.421  10.362  1.1209  1.3885 -0.5744
65548SOL     OW 8622  10.681   5.634  11.747  0.5580  0.0763 -0.3929
65548SOL    HW1 8623  10.756   5.664  11.798  0.1097 -0.5754  0.6702
65548SOL    HW2 8624  10.614   5.701  11.762  0.0669 -0.6407  0.7691
65549SOL     OW 8625   5.649   5.409   6.516  0.3790 -0.1536 -0.3516
65549SOL    HW1 8626   5.634   5.317   6.535  0.7195 -0.1151  0.1184
65549SOL    HW2 8627   5.607   5.456   6.588  1.0054  0.0238 -0.0973
65550SOL     OW 8628   8.762   7.926   3.127  0.0925 -0.6768  0.2110
65550SOL    HW1 8629   8.837   7.971   3.088 -1.4160  0.9411 -1.0148
65550SOL    HW2 8630   8.725   7.874   3.056  0.5400 -2.1716  1.0433
65551SOL     OW 8631  13.143   7.865   2.441 -1.0958  0.2035  0.0978
65551SOL    HW1 8632  13.072   7.822   2.488 -1.1940  0.3034  0.0441
65551SOL    HW2 8633  13.108   7.879   2.353 -0.5118 -1.0094 -0.3440
65552SOL     OW 8634   4.848  11.454   6.249  0.1595 -0.3645  0.5524
65552SOL    HW1 8635   4.883  11.467   6.161  0.9658  0.5856  0.9907
65552SOL    HW2 8636   4.834  11.360   6.256  0.5276 -0.5047 -0.4212
65553SOL     OW 8637   1.345   2.091  10.624  0.2272  0.4761  0.1743
65553SOL    HW1 8638   1.288   2.061  10.694 -0.2137  0.2446 -0.2789
65553SOL    HW2 8639   1.303   2.170  10.591  1.1581  1.3734  1.0786
65554SOL     OW 8640  10.301   0.929   7.791  0.3638  0.2661  0.2813
65554SOL    HW1 8641  10.314   1.011   7.742  0.4034  1.5708  2.3515
65554SOL    HW2 8642  10.208   0.927   7.811  0.5932  0.5177  1.4070
65555SOL     OW 8643   0.680   6.730   5.124 -0.6323  0.5608  0.1417
65555SOL    HW1 8644   0.725   6.661   5.173 -0.7776  1.2172  1.2387
65555SOL    HW2 8645   0.746   6.763   5.063 -0.5273 -0.4522 -0.2964
65556SOL     OW 8646   9.597   3.701   7.137 -0.0732 -0.3463 -0.1892
65556SOL    HW1 8647   9.563   3.783   7.100  1.1483  0.0316 -0.5291
65556SOL    HW2 8648   9.519   3.649   7.154 -0.8891  0.8886  0.0442
65557SOL     OW 8649   7.518   5.826  13.871 -0.5840  0.1944 -0.0972
65557SOL    HW1 8650   7.560   5.753  13.825 -0.0962  0.6470 -0.3811
65557SOL    HW2 8651   7.426   5.821  13.845 -0.7593 -0.9240  0.6782
65558SOL     OW 8652  10.987  10.338  11.845  0.2043  0.1975  0.3122
65558SOL    HW1 8653  11.031  10.397  11.784 -0.0629 -0.7457 -0.8222
65558SOL    HW2 8654  11.039  10.343  11.925  3.4311 -2.0687 -1.4118
65559SOL     OW 8655   6.281   0.346   0.198 -0.2069 -0.4047 -0.0435
65559SOL    HW1 8656   6.258   0.435   0.224  0.1618  0.0779 -1.2926
65559SOL    HW2 8657   6.198   0.298   0.200 -0.3513 -0.1343  0.9722
65560SOL     OW 8658  10.921   5.975  11.901 -0.3104 -0.5297  0.1653
65560SOL    HW1 8659  10.974   6.008  11.974 -0.8004  0.3675  0.1264
65560SOL    HW2 8660  10.897   5.886  11.927  0.9993 -0.8594  0.2935
65561SOL     OW 8661   6.482  11.519   5.307 -0.4365  0.0240 -0.6267
65561SOL    HW1 8662   6.496  11.490   5.397 -0.1610 -0.1916 -0.7383
65561SOL    HW2 8663   6.481  11.615   5.313 -1.2713  0.0030 -0.2698
65562SOL     OW 8664  11.920  13.069  13.643 -0.1964 -0.3276  0.6747
65562SOL    HW1 8665  11.964  13.072  13.727 -0.2947  1.1101  0.7082
65562SOL    HW2 8666  11.964  13.000  13.595 -0.4053 -1.4414  2.0354
65563SOL     OW 8667   7.282  12.820  11.022 -0.2456  0.6887 -0.7626
65563SOL    HW1 8668   7.323  12.894  11.066  1.5125  0.1832 -1.4466
65563SOL    HW2 8669   7.214  12.790  11.083 -0.1700  2.0928  0.0513
65564SOL     OW 8670  11.818   6.996  13.428  0.3752  0.3915 -0.4883
65564SOL    HW1 8671  11.820   6.936  13.502 -1.8757 -0.4070 -0.9919
65564SOL    HW2 8672  11.910   7.021  13.414  1.0932 -1.1484  1.1468
65565SOL     OW 8673   3.755   7.391  12.118 -0.0524 -0.3893  0.4532
65565SOL    HW1 8674   3.764   7.396  12.214  2.7287  2.4053  0.1928
65565SOL    HW2 8675   3.845   7.389  12.086 -0.7856  2.1856 -2.1568
65566SOL     OW 8676   0.206   9.917   1.111  0.8863 -0.2890 -0.2553
65566SOL    HW1 8677   0.155   9.840   1.085  1.3436 -0.1772 -1.5528
65566SOL    HW2 8678   0.160   9.991   1.071  2.3936 -0.2456 -2.0461
65567SOL     OW 8679   7.638   0.792   3.604  0.5603  0.2268  0.1701
65567SOL    HW1 8680   7.554   0.772   3.563  0.8582  0.4020 -0.5282
65567SOL    HW2 8681   7.653   0.718   3.663 -0.7168  0.8408  1.3286
65568SOL     OW 8682  11.778   6.707   6.546  0.6128  0.2943 -0.0104
65568SOL    HW1 8683  11.773   6.661   6.462  0.8408  0.3134 -0.0371
65568SOL    HW2 8684  11.710   6.774   6.542 -0.2970 -0.5923  0.3685
65569SOL     OW 8685  10.744  10.082   3.124  0.1882 -0.1094 -0.5272
65569SOL    HW1 8686  10.709  10.168   3.150 -2.1595 -1.0498 -0.3387
65569SOL    HW2 8687  10.722  10.075   3.031 -0.1881 -0.7530 -0.3915
65570SOL     OW 8688   3.305   5.841  11.142 -0.2524 -0.1560 -0.1983
65570SOL    HW1 8689   3.236   5.892  11.184 -1.3450 -0.5530 -1.4243
65570SOL    HW2 8690   3.382   5.898  11.144 -0.3477 -0.0294  1.9338
65571SOL     OW 8691   6.903   2.267   3.889  0.8021 -0.2020  0.1288
65571SOL    HW1 8692   6.897   2.223   3.804  1.5544  0.5339 -0.3286
65571SOL    HW2 8693   6.844   2.219   3.946  1.0043 -1.2972 -0.5667
65572SOL     OW 8694  13.553   5.040   2.371 -0.7175  0.4680 -0.4177
65572SOL    HW1 8695  13.639   4.998   2.375 -0.7942  0.3215 -0.3031
65572SOL    HW2 8696  13.491   4.968   2.361 -0.8905  0.5067  0.2786
65573SOL     OW 8697  11.808   9.362   0.044 -0.0582 -0.0991  0.3795
65573SOL    HW1 8698  11.760   9.284   0.014 -2.4426  1.4068  0.0276
65573SOL    HW2 8699  11.831   9.408  -0.036  0.2473  0.2014  0.6362
65574SOL     OW 8700   9.303  10.798  10.856  0.2351  0.3384  0.1540
65574SOL    HW1 8701   9.379  10.747  10.829  0.4456  1.7010 -2.1351
65574SOL    HW2 8702   9.229  10.757  10.810  0.1431  1.0403 -0.3361
65575SOL     OW 8703   2.232   4.976  12.933 -0.3871  0.1874 -0.3556
65575SOL    HW1 8704   2.147   5.008  12.965 -0.6925 -0.6199 -0.3425
65575SOL    HW2 8705   2.209   4.917  12.861 -0.0009 -1.9374  1.1582
65576SOL     OW 8706   4.575   5.824  10.492 -0.3056 -0.2729 -1.1831
65576SOL    HW1 8707   4.540   5.869  10.415 -1.0455  0.9068 -0.1898
65576SOL    HW2 8708   4.666   5.804  10.469 -0.0058  1.5526 -1.7548
65577SOL     OW 8709   0.965   7.624  11.548 -0.1794 -0.2540  0.0312
65577SOL    HW1 8710   1.056   7.653  11.544  0.1767 -1.3965 -0.8536
65577SOL    HW2 8711   0.970   7.530  11.569 -1.1604 -0.2845  0.2045
65578SOL     OW 8712   0.913  12.354   5.859  0.9477 -0.1910 -0.9282
65578SOL    HW1 8713   0.838  12.300   5.885  0.7826 -0.2661 -1.5388
65578SOL    HW2 8714   0.986  12.320   5.911  0.2291  1.0220  0.9946
65579SOL     OW 8715  13.305   2.109   7.531 -0.1672  0.1948  0.1704
65579SOL    HW1 8716  13.222   2.149   7.506  2.0205  3.6300 -2.5727
65579SOL    HW2 8717  13.310   2.029   7.480 -0.3135  1.8851 -2.7190
65580SOL     OW 8718  10.176   6.016   8.187 -0.6111 -0.7674  0.2390
65580SOL    HW1 8719  10.184   6.002   8.093 -0.1432 -0.6278  0.2553
65580SOL    HW2 8720  10.121   5.944   8.218  0.1625 -1.4619  0.0341
65581SOL     OW 8721   9.814   9.594  12.373 -0.0535 -0.7771  0.0248
65581SOL    HW1 8722   9.774   9.558  12.294 -0.9127 -0.5246  0.3373
65581SOL    HW2 8723   9.802   9.526  12.439  0.0744 -0.7171  0.1103
65582SOL     OW 8724  12.054  11.614  12.781  0.0487  0.0686  0.0171
65582SOL    HW1 8725  12.028  11.570  12.862  1.2544 -1.5322 -0.4048
65582SOL    HW2 8726  11.986  11.679  12.766 -0.7454 -0.2959  1.7613
65583SOL     OW 8727   0.568  12.225   7.304  0.0464 -0.6306  0.1730
65583SOL    HW1 8728   0.634  12.294   7.311 -0.2715 -0.1929 -0.8982
65583SOL    HW2 8729   0.594  12.174   7.227 -0.6597 -0.6789 -0.0426
65584SOL     OW 8730  12.770   0.796  13.611 -0.0058 -0.6923 -0.0944
65584SOL    HW1 8731  12.849   0.840  13.642 -0.7737  0.5003  0.2347
65584SOL    HW2 8732  12.704   0.812  13.679 -0.1602 -2.9231  0.3531
65585SOL     OW 8733   3.859  10.173   7.738  0.1720  0.5078  0.4412
65585SOL    HW1 8734   3.796  10.102   7.748  1.0923 -0.3836  0.0240
65585SOL    HW2 8735   3.814  10.237   7.683 -0.3665 -0.1332  0.1255
65586SOL     OW 8736   5.166   8.997   4.684  0.0478 -0.0460  0.3507
65586SOL    HW1 8737   5.183   8.914   4.640 -1.8570 -0.4695  0.3578
65586SOL    HW2 8738   5.130   8.973   4.769 -0.3045  0.7957  0.4516
65587SOL     OW 8739   3.773   6.253   6.971  0.0545  0.1517 -0.4872
65587SOL    HW1 8740   3.699   6.237   7.030 -0.2228  2.7873  0.0036
65587SOL    HW2 8741   3.839   6.296   7.026  0.1877  1.7794 -1.8540
65588SOL     OW 8742   5.145  10.007   0.327  0.1579  0.3118  0.5038
65588SOL    HW1 8743   5.202  10.080   0.304  0.6453 -0.2996 -0.2842
65588SOL    HW2 8744   5.117   9.972   0.242 -2.5982  1.5003  0.8072
65589SOL     OW 8745  10.662   0.338  12.480 -0.1200  0.3737 -0.2510
65589SOL    HW1 8746  10.598   0.273  12.507 -0.4263 -0.1450 -2.0610
65589SOL    HW2 8747  10.723   0.345  12.554 -0.9922 -0.7751  0.6090
65590SOL     OW 8748   6.315   8.763  11.765  0.2533  0.4026 -0.1270
65590SOL    HW1 8749   6.410   8.757  11.749  0.1560  1.0187 -1.0220
65590SOL    HW2 8750   6.278   8.694  11.711  0.2423 -0.4478  0.9310
65591SOL     OW 8751  11.828  10.554   0.430 -0.2169 -0.2807  0.4505
65591SOL    HW1 8752  11.891  10.586   0.494 -0.3108  0.0086  0.4012
65591SOL    HW2 8753  11.811  10.630   0.373 -0.1345 -0.5357  0.0865
65592SOL     OW 8754   6.391   7.483   8.872  0.4102  0.3637  0.2100
65592SOL    HW1 8755   6.309   7.506   8.828 -0.3148 -3.9538 -1.2042
65592SOL    HW2 8756   6.459   7.517   8.814 -0.4675  0.6615 -0.6919
65593SOL     OW 8757   6.543   1.136  11.922 -0.1566  0.5460 -0.0093
65593SOL    HW1 8758   6.478   1.073  11.890 -0.1453  0.4381  0.1770
65593SOL    HW2 8759   6.614   1.132  11.858 -1.0367  1.8754 -1.1368
65594SOL     OW 8760   0.494   3.636   7.556  0.7674  0.0256  0.0413
65594SOL    HW1 8761   0.415   3.658   7.605  0.2521 -1.3396 -0.1330
65594SOL    HW2 8762   0.563   3.627   7.622  0.4876 -0.0062  0.3277
65595SOL     OW 8763   0.366   1.736  13.055  0.8947 -0.2412  0.6912
65595SOL    HW1 8764   0.310   1.727  13.131 -0.1920 -0.6967 -0.1343
65595SOL    HW2 8765   0.306   1.752  12.982  1.8026 -0.9863 -0.2595
65596SOL     OW 8766  13.234   4.592   7.505  0.2046  0.2528  0.0812
65596SOL    HW1 8767  13.161   4.645   7.536  0.8828 -0.1677  2.5992
65596SOL    HW2 8768  13.249   4.622   7.415 -1.1608  2.3883  0.4963
65597SOL     OW 8769  13.721   8.188  11.246 -0.2515  0.5376  0.3430
65597SOL    HW1 8770  13.652   8.121  11.244  0.3983 -0.2150  1.8428
65597SOL    HW2 8771  13.802   8.139  11.259  0.3505  1.5479  0.4909
65598SOL     OW 8772  13.866   9.669   0.648  0.1670  0.0288 -0.1966
65598SOL    HW1 8773  13.878   9.586   0.695 -0.8493  0.0658  0.1622
65598SOL    HW2 8774  13.826   9.727   0.712  2.4140  1.3801  0.0973
65599SOL     OW 8775   5.491  12.436   2.173 -0.3667  0.3578 -0.0403
65599SOL    HW1 8776   5.477  12.520   2.129 -3.0929 -1.0440 -2.2168
65599SOL    HW2 8777   5.559  12.393   2.121  0.8063  1.0224  0.8901
65600SOL     OW 8778   5.193  11.607   1.302  0.5601 -0.6311  0.1874
65600SOL    HW1 8779   5.248  11.680   1.275  0.9399 -1.9641 -3.0439
65600SOL    HW2 8780   5.105  11.630   1.270  0.4887 -1.1351  0.0079
65601SOL     OW 8781  13.236   6.991   5.015  0.0819  0.3981  0.1708
65601SOL    HW1 8782  13.330   6.985   5.031  0.2827  2.8067  0.3388
65601SOL    HW2 8783  13.226   7.070   4.961 -1.8385  0.2698  0.2702
65602SOL     OW 8784   3.931   6.908   8.963 -0.3959 -0.2339  0.0497
65602SOL    HW1 8785   3.900   6.869   8.881  3.1141 -0.8203 -1.1962
65602SOL    HW2 8786   3.916   7.002   8.953  3.2730  0.2904 -3.2072
65603SOL     OW 8787  11.915  13.726  11.407 -0.2036  0.3795 -0.6819
65603SOL    HW1 8788  11.929  13.661  11.339  0.6669  0.6051 -0.7310
65603SOL    HW2 8789  11.980  13.705  11.474  0.2140  1.2817 -0.7771
65604SOL     OW 8790   3.152  13.074   5.362 -0.0950 -0.1363  0.0845
65604SOL    HW1 8791   3.204  13.121   5.296 -0.3966 -0.7694 -0.6138
65604SOL    HW2 8792   3.162  13.127   5.442  2.9782 -1.0468  0.4544
65605SOL     OW 8793  12.814  11.522   3.772  0.0015 -0.0391  0.1688
65605SOL    HW1 8794  12.845  11.599   3.724  0.0836  0.3369  0.8132
65605SOL    HW2 8795  12.789  11.556   3.858  1.4172 -0.9389  0.9839
65606SOL     OW 8796   4.975   7.089   8.041 -0.1915  0.1834 -0.2193
65606SOL    HW1 8797   5.044   7.086   8.108 -0.5995 -1.0731  0.1612
65606SOL    HW2 8798   4.895   7.067   8.088 -0.5148 -0.5320 -1.0763
65607SOL     OW 8799   2.909   6.701   1.712 -0.2431 -0.0747  0.0169
65607SOL    HW1 8800   2.831   6.689   1.766 -0.0224 -1.0804  0.1305
65607SOL    HW2 8801   2.895   6.643   1.637 -0.2411  0.8057 -0.6944
65608SOL     OW 8802   1.788   8.936   9.617 -0.2015 -0.2335  0.3153
65608SOL    HW1 8803   1.701   8.926   9.578 -0.3724 -1.5991  0.9604
65608SOL    HW2 8804   1.783   9.016   9.669 -1.6276 -1.1567  1.6728
65609SOL     OW 8805   1.944   6.641   1.115 -0.3235 -0.0823 -0.7369
65609SOL    HW1 8806   1.871   6.701   1.097  0.0332  0.8650  0.7897
65609SOL    HW2 8807   1.970   6.609   1.029 -1.5259  0.7836 -1.4538
65610SOL     OW 8808   6.986  10.912  10.087  0.3141 -0.3335  0.4587
65610SOL    HW1 8809   7.064  10.951  10.127 -0.4348  0.1541  1.4802
65610SOL    HW2 8810   6.924  10.984  10.079 -0.6584 -1.0570  1.2477
65611SOL     OW 8811   1.704   4.648  11.316 -0.1478  0.4197  0.4250
65611SOL    HW1 8812   1.656   4.665  11.236  2.3584 -1.1911 -1.5922
65611SOL    HW2 8813   1.716   4.553  11.318  2.8091  0.7010  0.7735
65612SOL     OW 8814   8.416   0.670   7.224 -0.5373 -0.0893  0.3694
65612SOL    HW1 8815   8.414   0.765   7.232  0.9463  0.0679 -0.7746
65612SOL    HW2 8816   8.371   0.652   7.141 -0.2697 -0.3306  0.2752
65613SOL     OW 8817   5.606   5.269  12.719  0.3813 -0.2149 -0.1190
65613SOL    HW1 8818   5.598   5.363  12.703  1.6555 -0.3669 -2.0089
65613SOL    HW2 8819   5.569   5.228  12.640 -1.0394 -1.3569  1.0752
65614SOL     OW 8820  13.142  10.964  11.449 -0.0008  0.2249  0.1952
65614SOL    HW1 8821  13.178  11.007  11.371  0.1136 -1.2802 -0.6287
65614SOL    HW2 8822  13.081  11.027  11.486  0.8115  1.4265 -0.4410
65615SOL     OW 8823  13.035  13.514   1.413 -0.2695 -0.2609 -0.1507
65615SOL    HW1 8824  13.030  13.536   1.506 -1.5846  1.3496 -0.5420
65615SOL    HW2 8825  13.128  13.507   1.395  0.0675  0.8094  1.0023
65616SOL     OW 8826   7.659  11.683  10.324  0.1822 -0.0975  0.3544
65616SOL    HW1 8827   7.710  11.763  10.338  0.0785 -0.1014  0.7472
65616SOL    HW2 8828   7.630  11.689  10.233 -1.2743  1.1473  0.8636
65617SOL     OW 8829   0.223   0.194   5.615 -1.1347  0.3907  0.2624
65617SOL    HW1 8830   0.167   0.116   5.616  0.2415 -0.7253 -1.7977
65617SOL    HW2 8831   0.163   0.268   5.609 -2.4312 -0.7189 -1.0812
65618SOL     OW 8832   9.227   7.588   9.382 -0.1735 -0.1007  0.1776
65618SOL    HW1 8833   9.203   7.673   9.418  1.7702  1.4665 -1.9002
65618SOL    HW2 8834   9.153   7.562   9.327 -0.2517  0.9179 -0.2105
65619SOL     OW 8835   5.732  11.449   1.895  0.0908 -0.2698  0.1837
65619SOL    HW1 8836   5.776  11.442   1.810 -0.7381 -0.3327 -0.2511
65619SOL    HW2 8837   5.730  11.543   1.913 -0.3658 -0.1948 -0.2194
65620SOL     OW 8838   1.193   9.195   6.848 -0.1389 -0.0073  0.1719
65620SOL    HW1 8839   1.148   9.156   6.923 -1.5707  1.7367  0.2992
65620SOL    HW2 8840   1.157   9.283   6.842  0.3154  0.0769 -2.2820
65621SOL     OW 8841   2.561   3.993  10.192 -0.2930 -0.2467 -0.2090
65621SOL    HW1 8842   2.486   4.044  10.162  0.4839  0.0166 -1.8310
65621SOL    HW2 8843   2.531   3.902  10.186 -0.2473 -0.1940 -1.6704
65622SOL     OW 8844   5.003   7.415  12.558 -0.1123 -0.1524  0.1833
65622SOL    HW1 8845   5.091   7.393  12.589  1.0073  0.2046 -2.4476
65622SOL    HW2 8846   5.002   7.385  12.467 -2.8009 -0.2790  0.1772
65623SOL     OW 8847   0.974   9.803  12.456  0.0139  0.0108 -0.3061
65623SOL    HW1 8848   1.034   9.877  12.457  1.0097 -0.7676  0.6147
65623SOL    HW2 8849   0.998   9.754  12.377  1.3599 -0.8586  0.5970
65624SOL     OW 8850   4.650   2.967   0.213 -0.0687 -0.1269  0.3258
65624SOL    HW1 8851   4.639   2.902   0.144 -0.1993  0.1298  0.0998
65624SOL    HW2 8852   4.737   3.004   0.197 -0.2836  0.2616  0.0037
65625SOL     OW 8853  13.128   3.276   9.685  0.2585  0.3985 -0.4840
65625SOL    HW1 8854  13.107   3.306   9.596  0.1190  1.0014 -0.2532
65625SOL    HW2 8855  13.181   3.346   9.722  0.7572 -0.0886 -0.2671
65626SOL     OW 8856   7.595   3.406   2.582 -0.2529 -0.1717  0.3542
65626SOL    HW1 8857   7.628   3.323   2.549  1.7384  0.2410  1.1497
65626SOL    HW2 8858   7.535   3.437   2.514  0.2246 -1.4895 -0.7055
65627SOL     OW 8859   5.736   1.558   0.347 -0.2214  0.4302  0.3327
65627SOL    HW1 8860   5.732   1.479   0.401 -1.5542  0.1417 -0.1461
65627SOL    HW2 8861   5.647   1.592   0.349 -0.7095 -0.3611 -2.7637
65628SOL     OW 8862   2.836   7.594   2.032 -0.5503  0.2739  0.8112
65628SOL    HW1 8863   2.840   7.682   1.995  3.5050  1.2061  2.9311
65628SOL    HW2 8864   2.759   7.595   2.090 -1.3349  1.9119 -0.2042
65629SOL     OW 8865   0.598   9.435  11.231  0.0535  0.2583  0.8314
65629SOL    HW1 8866   0.509   9.419  11.202  0.6945 -1.4510 -0.3248
65629SOL    HW2 8867   0.633   9.498  11.168  0.2115 -0.4221  0.2373
65630SOL     OW 8868  12.608  12.254   5.072 -0.2284 -0.8169 -0.0452
65630SOL    HW1 8869  12.603  12.349   5.085  3.9295 -0.2673 -1.2891
65630SOL    HW2 8870  12.618  12.243   4.978 -3.0702 -2.8050 -0.2353
65631SOL     OW 8871   2.644   0.810   2.363 -0.1778  0.1973 -0.2709
65631SOL    HW1 8872   2.730   0.822   2.402 -1.2633  1.0976  2.0597
65631SOL    HW2 8873   2.608   0.734   2.408 -0.9981  0.4548 -0.4729
65632SOL     OW 8874   1.190   6.202   7.375  0.5691  0.0145 -0.2375
65632SOL    HW1 8875   1.258   6.136   7.363 -0.6098 -1.7395  2.0348
65632SOL    HW2 8876   1.132   6.191   7.300 -0.3116 -2.5379  0.6991
65633SOL     OW 8877   6.818   3.989   0.756  0.5653  0.1469  1.2109
65633SOL    HW1 8878   6.808   3.954   0.844  2.3766  0.1355  1.4403
65633SOL    HW2 8879   6.911   4.010   0.748  1.1756 -2.8297 -1.7890
65634SOL     OW 8880   0.857   5.555   7.322 -0.1303  0.0625  0.0260
65634SOL    HW1 8881   0.924   5.623   7.332  0.1758 -0.2610  0.1799
65634SOL    HW2 8882   0.792   5.575   7.390  0.4540 -0.3781  0.7218
65635SOL     OW 8883   7.918  13.365   9.272  0.0265 -0.2252 -0.2232
65635SOL    HW1 8884   7.899  13.309   9.196 -0.1458 -1.6862  0.8557
65635SOL    HW2 8885   7.891  13.313   9.347  2.3360  0.2438  1.0131
65636SOL     OW 8886  10.466   6.310  13.543  0.3051 -0.3053 -0.0570
65636SOL    HW1 8887  10.539   6.267  13.500  1.0612  0.7856  0.0990
65636SOL    HW2 8888  10.469   6.400  13.512 -0.6672 -0.1161  0.3489
65637SOL     OW 8889   7.439   9.217   4.276  0.0950  0.8069 -0.1157
65637SOL    HW1 8890   7.454   9.307   4.305 -0.0341  0.9464 -0.4679
65637SOL    HW2 8891   7.396   9.227   4.190  1.1425  0.4080 -0.7047
65638SOL     OW 8892   8.374  10.909   7.680  0.1863 -0.0335 -0.0460
65638SOL    HW1 8893   8.392  10.991   7.634 -1.4925  0.2030 -0.3276
65638SOL    HW2 8894   8.397  10.841   7.616 -1.0306  0.2738 -0.8361
65639SOL     OW 8895   1.757  11.876   8.124  0.1182  0.2167 -0.2914
65639SOL    HW1 8896   1.712  11.952   8.086  0.9884  1.2260  0.6237
65639SOL    HW2 8897   1.709  11.801   8.090  0.2469  1.0778 -2.6076
65640SOL     OW 8898  10.644   6.792   6.156 -0.1622  0.5390  0.1081
65640SOL    HW1 8899  10.643   6.880   6.195  0.1610  0.2834  0.6969
65640SOL    HW2 8900  10.601   6.804   6.071 -1.4601  0.9843  0.7869
65641SOL     OW 8901   8.716  11.340   5.345 -0.4388 -0.7712 -0.6443
65641SOL    HW1 8902   8.783  11.400   5.313  1.8728 -2.8574 -0.0073
65641SOL    HW2 8903   8.701  11.280   5.272 -0.7175 -1.0477 -0.3632
65642SOL     OW 8904   6.831  10.090   1.208  0.3137  0.0117  0.0590
65642SOL    HW1 8905   6.784  10.028   1.153 -1.2600  1.2642 -0.0557
65642SOL    HW2 8906   6.881  10.144   1.147  0.9429 -0.5218  0.0935
65643SOL     OW 8907   2.373   5.576  13.206  0.3347  0.1371 -1.0267
65643SOL    HW1 8908   2.294   5.616  13.170 -0.1032  1.1707  0.9376
65643SOL    HW2 8909   2.445   5.628  13.171 -0.0319  0.7573 -0.8599
65644SOL     OW 8910   8.533  13.506   2.349 -0.4238  0.6279 -0.0640
65644SOL    HW1 8911   8.530  13.599   2.371 -0.8814  0.3344  1.1892
65644SOL    HW2 8912   8.447  13.487   2.311 -0.7416  0.4748  0.7250
65645SOL     OW 8913   0.804   8.221  13.175  0.1885 -0.2057  0.0113
65645SOL    HW1 8914   0.870   8.152  13.171 -0.2850 -0.6960  0.3743
65645SOL    HW2 8915   0.777   8.234  13.085  1.6752  0.8979 -0.2996
65646SOL     OW 8916  11.775   0.274   0.897 -0.0396  0.6493 -0.1118
65646SOL    HW1 8917  11.849   0.289   0.956  1.2153  0.0903 -1.4881
65646SOL    HW2 8918  11.748   0.362   0.871 -0.0753  0.8706  0.6284
65647SOL     OW 8919  10.157   2.632  12.389  0.0691  0.0712 -0.3427
65647SOL    HW1 8920  10.077   2.677  12.415 -0.1404 -0.0348 -0.8089
65647SOL    HW2 8921  10.189   2.592  12.469  0.1147  0.8249  0.0312
65648SOL     OW 8922   9.133   4.823  11.555  0.2356  0.0421  0.1219
65648SOL    HW1 8923   9.133   4.872  11.637  0.1281  1.5842 -0.7487
65648SOL    HW2 8924   9.040   4.810  11.535  0.2616 -0.3617  0.2661
65649SOL     OW 8925   3.157   1.708   1.194  0.1889  0.5017  0.8289
65649SOL    HW1 8926   3.229   1.729   1.254  0.7699  0.8223  0.0470
65649SOL    HW2 8927   3.184   1.626   1.153  0.7496  1.2700 -0.4022
65650SOL     OW 8928  10.470   1.524   3.003  0.4629  0.6010 -0.2465
65650SOL    HW1 8929  10.433   1.439   2.981  2.0403 -0.1128 -0.2233
65650SOL    HW2 8930  10.533   1.543   2.934 -0.8496  2.4479 -1.0422
65651SOL     OW 8931   5.221   2.070   0.900  0.3088  0.1377 -0.0458
65651SOL    HW1 8932   5.289   2.061   0.967  0.8153  2.5040 -0.1267
65651SOL    HW2 8933   5.155   2.127   0.940  0.0899  0.7115 -1.1602
65652SOL     OW 8934  12.496  13.121  13.167 -0.2415  0.7111 -0.5712
65652SOL    HW1 8935  12.534  13.158  13.246 -2.3142  0.6889  0.5183
65652SOL    HW2 8936  12.408  13.159  13.162 -0.9871 -0.9912 -1.5971
65653SOL     OW 8937   0.606   1.890  11.187 -0.1218  0.1018 -0.5415
65653SOL    HW1 8938   0.519   1.929  11.193 -1.4840 -2.6789 -0.6607
65653SOL    HW2 8939   0.656   1.950  11.132 -1.8914  1.8658 -0.3171
65654SOL     OW 8940  10.521   8.989  13.824  0.1032  0.4562  0.1787
65654SOL    HW1 8941  10.484   9.048  13.759 -0.2155  1.1620  0.9833
65654SOL    HW2 8942  10.464   8.912  13.822 -0.2497  0.7200  0.0365
65655SOL     OW 8943  13.229  10.680   7.967  0.2005  0.3073  0.5917
65655SOL    HW1 8944  13.157  10.693   8.029  0.1722 -0.0789  0.6402
65655SOL    HW2 8945  13.286  10.756   7.981  2.0465 -1.4387  3.6147
65656SOL     OW 8946   7.893   5.948  11.688  0.2227 -0.1675 -0.0498
65656SOL    HW1 8947   7.899   5.987  11.601  1.0181 -0.1375  0.0126
65656SOL    HW2 8948   7.915   5.856  11.674  1.5571  0.0709  0.2800
65657SOL     OW 8949   0.764   3.916  10.780 -0.1783  0.3885  0.5137
65657SOL    HW1 8950   0.806   3.868  10.850 -0.0274  2.2194  1.7477
65657SOL    HW2 8951   0.836   3.953  10.729 -0.2934 -0.5844 -0.3996
65658SOL     OW 8952  13.747  12.827   2.146  0.7554  0.5586 -0.0539
65658SOL    HW1 8953  13.779  12.816   2.057  0.7695 -1.3651  0.1577
65658SOL    HW2 8954  13.825  12.823   2.201  0.4705 -1.8881  0.2819
65659SOL     OW 8955   2.603   1.497   4.269  0.1628  0.2525 -0.1804
65659SOL    HW1 8956   2.520   1.457   4.294  0.0571  0.9076  0.5349
65659SOL    HW2 8957   2.669   1.446   4.315  0.2298 -0.7380 -1.3257
65660SOL     OW 8958   2.446  12.374  13.418  0.4064  0.2588  0.7458
65660SOL    HW1 8959   2.464  12.447  13.360  0.4835  0.7989  1.4325
65660SOL    HW2 8960   2.353  12.384  13.441  0.2487 -0.2274  0.3483
65661SOL     OW 8961   0.568  13.604  12.588  0.0447 -0.0588 -0.9038
65661SOL    HW1 8962   0.562  13.679  12.648  1.4427 -0.5046 -0.1762
65661SOL    HW2 8963   0.478  13.572  12.582 -0.4447  1.1784 -0.5902
65662SOL     OW 8964   9.842  10.934  10.211  0.2891 -0.4991 -0.7208
65662SOL    HW1 8965   9.892  10.874  10.266  1.3487 -0.8126 -1.9857
65662SOL    HW2 8966   9.817  10.882  10.135 -0.3889  0.1726 -0.9747
65663SOL     OW 8967   9.917   5.414   6.177 -0.3842 -0.2534  0.0509
65663SOL    HW1 8968   9.988   5.469   6.213  0.1966  0.2417 -1.7414
65663SOL    HW2 8969   9.838   5.467   6.188 -0.5774 -0.9084  2.2891
65664SOL     OW 8970   4.525  11.333   6.308  0.2715 -0.0022  0.2999
65664SOL    HW1 8971   4.572  11.401   6.356 -0.2902  0.3669  0.3372
65664SOL    HW2 8972   4.433  11.350   6.327  0.1696 -1.4993  1.2598
65665SOL     OW 8973  11.182   2.286   1.261 -0.0389  0.1164 -0.2159
65665SOL    HW1 8974  11.142   2.202   1.284  1.4785 -0.0164  2.3148
65665SOL    HW2 8975  11.259   2.263   1.209  0.6793 -0.1591  0.9257
65666SOL     OW 8976   8.781  11.329   3.499 -0.1016 -0.0391  0.6264
65666SOL    HW1 8977   8.827  11.410   3.520  0.6312 -0.4855  0.7892
65666SOL    HW2 8978   8.793  11.274   3.576  2.1983 -1.5169 -0.6784
65667SOL     OW 8979  11.779   4.031   5.780  0.1067 -0.3971  0.8334
65667SOL    HW1 8980  11.825   4.079   5.849 -0.3693  0.2824  0.6782
65667SOL    HW2 8981  11.850   3.993   5.727  0.5915  1.9804 -0.3702
65668SOL     OW 8982   2.467   2.295  13.869 -0.2832  0.3538  0.7777
65668SOL    HW1 8983   2.405   2.346  13.817 -1.0643 -0.4124  0.9326
65668SOL    HW2 8984   2.487   2.220  13.814 -1.1030 -0.4541  1.5565
65669SOL     OW 8985   2.928   9.423   5.766  0.3544  0.0168  0.1308
65669SOL    HW1 8986   2.865   9.352   5.769  0.1077  0.2408  0.2728
65669SOL    HW2 8987   3.011   9.381   5.744 -0.1868 -0.0419 -1.9408
65670SOL     OW 8988   5.581   3.302   1.153  0.2270  0.3173 -0.0893
65670SOL    HW1 8989   5.560   3.378   1.099 -0.4693  0.6303  0.5961
65670SOL    HW2 8990   5.589   3.229   1.091  0.1029  0.7930 -0.6722
65671SOL     OW 8991   8.607  11.866   0.680  0.0792  0.2447  0.2022
65671SOL    HW1 8992   8.538  11.833   0.738 -0.1306 -1.1010 -0.7533
65671SOL    HW2 8993   8.631  11.790   0.626  0.3910  1.3843 -1.3380
65672SOL     OW 8994  12.882   6.064   5.014  0.1815  0.3849  0.2055
65672SOL    HW1 8995  12.852   6.148   4.979  1.4613  0.5910 -0.4288
65672SOL    HW2 8996  12.801   6.019   5.040 -0.4870  2.1119  1.2711
65673SOL     OW 8997   2.861   7.926   4.102  0.3391 -0.2695 -0.3211
65673SOL    HW1 8998   2.934   7.987   4.093  1.1515 -1.3931 -1.7176
65673SOL    HW2 8999   2.853   7.885   4.016 -2.6024  0.5057 -0.5247
65674SOL     OW 9000   7.861  13.666   1.749 -0.1019  0.8320  0.3314
65674SOL    HW1 9001   7.894  13.753   1.772  0.9007  0.6305 -0.2669
65674SOL    HW2 9002   7.869  13.663   1.653  0.4199 -0.1175  0.3968
65675SOL     OW 9003   8.901   1.839  10.660  0.0186  0.3162  0.5774
65675SOL    HW1 9004   8.970   1.862  10.723  0.8461 -1.0382  0.1970
65675SOL    HW2 9005   8.868   1.755  10.691 -0.4415  0.2488 -0.0847
65676SOL     OW 9006   2.768   5.876  10.662 -0.0861 -0.3698 -0.3858
65676SOL    HW1 9007   2.687   5.840  10.697  0.8489 -2.4326 -0.2218
65676SOL    HW2 9008   2.835   5.812  10.684  1.5331  1.0244 -0.9682
65677SOL     OW 9009  13.701   5.212  13.667 -0.8180  0.1444 -0.0763
65677SOL    HW1 9010  13.739   5.154  13.601  0.4876  0.5170  0.3120
65677SOL    HW2 9011  13.716   5.167  13.750 -0.0270  0.8725  0.2027
65678SOL     OW 9012   3.217  12.926  12.692 -0.1947 -0.3804 -0.1811
65678SOL    HW1 9013   3.142  12.902  12.639  0.1451  0.2337 -0.9575
65678SOL    HW2 9014   3.260  12.843  12.712 -0.2631 -0.6115 -0.9696
65679SOL     OW 9015   5.426   2.056   9.633  0.4759  0.0647  0.5488
65679SOL    HW1 9016   5.404   2.107   9.555 -0.1787 -2.1418 -0.7842
65679SOL    HW2 9017   5.346   2.058   9.687 -0.0066 -0.6153 -0.1238
65680SOL     OW 9018   0.882   4.718   8.698 -0.3221 -0.1655  0.0705
65680SOL    HW1 9019   0.840   4.797   8.665  1.8441  1.4372  0.9359
65680SOL    HW2 9020   0.959   4.707   8.642 -0.5866 -1.7217 -0.0439
65681SOL     OW 9021   9.089   4.903   5.267  0.5075  0.1847  0.0595
65681SOL    HW1 9022   9.063   4.857   5.348  0.1835  0.9418  0.3933
65681SOL    HW2 9023   9.184   4.896   5.266  0.4042 -1.9189 -0.7556
65682SOL     OW 9024   3.156   2.448   8.598 -0.0530  0.3755  0.5961
65682SOL    HW1 9025   3.117   2.518   8.545 -0.1203 -1.7466 -2.4633
65682SOL    HW2 9026   3.249   2.452   8.578 -0.1121 -0.6125  0.0472
65683SOL     OW 9027  10.344   4.243  11.591  0.1203 -0.1482 -0.3607
65683SOL    HW1 9028  10.395   4.306  11.642 -0.6173  0.5960 -0.5213
65683SOL    HW2 9029  10.342   4.164  11.645  1.5454 -0.2428 -0.4176
65684SOL     OW 9030   8.405   0.640   1.856  0.1099 -0.1859  1.0662
65684SOL    HW1 9031   8.312   0.617   1.854 -0.0851  0.5483 -1.3604
65684SOL    HW2 9032   8.449   0.562   1.822  0.0473  0.5999 -0.8932
65685SOL     OW 9033   4.042  10.274  12.546  0.0421 -0.2071  0.2444
65685SOL    HW1 9034   3.986  10.348  12.568  0.1545  0.0337 -0.2818
65685SOL    HW2 9035   3.982  10.205  12.518 -0.0313 -0.1688  0.3087
65686SOL     OW 9036   5.812   5.639  10.237  0.8945  0.3209  0.3421
65686SOL    HW1 9037   5.719   5.631  10.214  1.1300  1.7820 -1.3451
65686SOL    HW2 9038   5.814   5.627  10.332 -0.9351 -0.2985  0.3489
65687SOL     OW 9039   3.582  10.163   5.609 -0.1888  0.1225  0.5386
65687SOL    HW1 9040   3.510  10.182   5.669  1.7974 -1.1220  3.5651
65687SOL    HW2 9041   3.632  10.244   5.605 -1.5198  0.9303 -1.4219
65688SOL     OW 9042   8.055   2.096   7.243 -0.0502  0.2267 -0.1676
65688SOL    HW1 9043   7.988   2.142   7.293  1.4593  1.1978  1.0750
65688SOL    HW2 9044   8.073   2.153   7.168 -0.5979 -0.0302 -0.4958
65689SOL     OW 9045   7.039  12.385   1.327  0.1963  0.7083  0.6359
65689SOL    HW1 9046   7.124  12.422   1.351 -0.3136  3.2332 -1.0391
65689SOL    HW2 9047   7.060  12.312   1.269  1.2265 -0.1895  2.0832
65690SOL     OW 9048  13.133  12.402  13.347 -0.7673 -0.0684 -0.2673
65690SOL    HW1 9049  13.102  12.428  13.433  0.2912 -1.0986  0.4686
65690SOL    HW2 9050  13.184  12.322  13.364  0.1876  0.1969 -1.7185
65691SOL     OW 9051   8.813  10.190  12.257 -0.0790 -0.0097  0.3564
65691SOL    HW1 9052   8.743  10.144  12.209 -1.1871  1.2597  0.6947
65691SOL    HW2 9053   8.822  10.274  12.212 -0.6208  0.9065  1.8527
65692SOL     OW 9054  10.617  10.749   6.517  0.5046  0.2968  0.2974
65692SOL    HW1 9055  10.686  10.814   6.531 -0.5004  1.1905  1.3222
65692SOL    HW2 9056  10.540  10.800   6.491  0.2172 -0.6808 -0.8767
65693SOL     OW 9057  10.819   5.667  10.559  0.1764 -0.7082 -0.6795
65693SOL    HW1 9058  10.775   5.720  10.626  1.0991 -0.1396 -0.5035
65693SOL    HW2 9059  10.766   5.680  10.480 -1.0984 -1.6222 -0.0113
65694SOL     OW 9060   4.299   4.345  12.977  0.4419 -0.5676  0.5877
65694SOL    HW1 9061   4.230   4.331  13.043 -0.4315  0.6115 -0.0161
65694SOL    HW2 9062   4.292   4.439  12.956  2.8819 -0.1846  1.1966
65695SOL     OW 9063   3.319  13.976  13.497 -0.0503 -0.4077 -0.3946
65695SOL    HW1 9064   3.357  13.993  13.411 -0.3720 -1.8641 -0.8579
65695SOL    HW2 9065   3.233  14.018  13.493 -0.0813 -0.4988 -0.8151
65696SOL     OW 9066   7.393   7.663  10.435 -0.2145  0.2615  0.0869
65696SOL    HW1 9067   7.383   7.601  10.507 -0.4240 -0.2300 -0.3590
65696SOL    HW2 9068   7.430   7.610  10.364 -1.2103  0.4369 -0.5823
65697SOL     OW 9069   2.687   8.348  12.823 -0.1971  0.2200 -0.0561
65697SOL    HW1 9070   2.656   8.410  12.888  0.5711 -0.1999  0.7431
65697SOL    HW2 9071   2.636   8.268  12.839  1.2199 -0.4807  1.2811
65698SOL     OW 9072   7.376   8.586   3.130 -0.0059  0.0547 -0.3304
65698SOL    HW1 9073   7.393   8.500   3.090 -1.2389 -1.8033  2.7573
65698SOL    HW2 9074   7.283   8.601   3.115 -0.5336 -0.7600  1.7621
65699SOL     OW 9075  11.258   0.060  11.017  0.2413  0.0957 -0.7184
65699SOL    HW1 9076  11.242   0.044  11.110 -0.4133 -1.1996 -1.0315
65699SOL    HW2 9077  11.338   0.113  11.016 -0.9279  2.0297  0.6571
65700SOL     OW 9078   9.591  13.090   5.307  0.4600 -0.3515  0.2252
65700SOL    HW1 9079   9.587  13.165   5.248  1.3525 -0.9072 -0.5655
65700SOL    HW2 9080   9.629  13.020   5.254  1.8819 -0.6971  1.6287
65701SOL     OW 9081   7.360   2.983  11.517  0.3108  0.1843  0.4681
65701SOL    HW1 9082   7.274   3.014  11.545  1.6165  3.3983  1.3595
65701SOL    HW2 9083   7.350   2.968  11.423 -1.2206  0.4568  0.5575
65702SOL     OW 9084  12.042   9.339  12.034  0.8064  0.0339  0.0462
65702SOL    HW1 9085  11.987   9.326  11.957  1.1423  2.3866 -0.6740
65702SOL    HW2 9086  11.988   9.390  12.094  0.5866 -1.6889  1.3704
65703SOL     OW 9087  11.871   9.805   3.319  0.3381  0.0427 -0.0670
65703SOL    HW1 9088  11.886   9.729   3.263 -1.1990 -0.5477  0.2835
65703SOL    HW2 9089  11.848   9.875   3.257 -1.1846 -0.5620 -0.2173
65704SOL     OW 9090  10.381   0.042   8.153  0.3810 -0.2824 -0.1683
65704SOL    HW1 9091  10.419   0.085   8.076  0.5888 -0.2648 -0.0572
65704SOL    HW2 9092  10.431  -0.039   8.162  1.1682  0.2827  0.6557
65705SOL     OW 9093   3.650  11.771   0.349  0.0555  0.1967 -0.4717
65705SOL    HW1 9094   3.568  11.747   0.304  0.4520  0.2492 -1.2327
65705SOL    HW2 9095   3.706  11.806   0.280 -0.0551  2.2246  0.3920
65706SOL     OW 9096   3.450   4.909   8.820 -0.2172  1.2155 -0.1657
65706SOL    HW1 9097   3.429   4.986   8.873  1.1206  3.0063 -2.1018
65706SOL    HW2 9098   3.505   4.943   8.749  1.3561 -1.7052 -0.4923
65707SOL     OW 9099   9.418   6.143   3.639 -0.2964  0.3106  0.2239
65707SOL    HW1 9100   9.488   6.105   3.691 -0.3481  1.7987  1.4520
65707SOL    HW2 9101   9.427   6.103   3.553  1.5689 -0.0969  0.5774
65708SOL     OW 9102   0.405  11.037   0.753  0.3492 -0.5423 -0.2265
65708SOL    HW1 9103   0.470  11.028   0.823  0.9463 -0.0880 -0.7162
65708SOL    HW2 9104   0.429  10.970   0.689  0.2043 -0.5081 -0.3174
65709SOL     OW 9105  13.003   0.402  13.618 -0.5188 -0.0053 -0.2737
65709SOL    HW1 9106  12.941   0.409  13.545  1.4041  0.2242 -1.9794
65709SOL    HW2 9107  13.026   0.493  13.638  0.8143 -0.1244 -1.1134
65710SOL     OW 9108   1.911   9.068  10.679  0.4099  0.1532  0.0231
65710SOL    HW1 9109   1.823   9.097  10.653  0.3143 -0.7663 -0.7545
65710SOL    HW2 9110   1.940   9.013  10.605  0.7823 -1.2563  1.1748
65711SOL     OW 9111  13.446  11.765   8.389 -0.3090  0.0305 -0.4528
65711SOL    HW1 9112  13.447  11.669   8.388  0.2420  0.0391 -1.3317
65711SOL    HW2 9113  13.503  11.791   8.316 -0.8870  1.0276 -0.5655
65712SOL     OW 9114   5.411   4.961   7.203 -0.2456  0.1437 -0.0393
65712SOL    HW1 9115   5.353   5.012   7.258 -2.0266 -0.1035 -1.5827
65712SOL    HW2 9116   5.382   4.870   7.213  0.2700 -0.0651 -0.3551
65713SOL     OW 9117  10.355   7.479   9.887  0.9843  0.3602  0.2286
65713SOL    HW1 9118  10.267   7.516   9.875  0.2095 -1.8318 -1.4445
65713SOL    HW2 9119  10.359   7.459   9.981  0.5289  2.3682  0.7132
65714SOL     OW 9120   9.391   5.101   3.956 -0.0240 -0.0766 -0.7337
65714SOL    HW1 9121   9.354   5.181   3.993  0.2800 -1.5014  3.0996
65714SOL    HW2 9122   9.460   5.132   3.897 -2.2837  2.4601 -2.2379
65715SOL     OW 9123  13.252   2.934   2.398  0.4986 -0.4597 -0.2833
65715SOL    HW1 9124  13.270   2.994   2.469 -0.5365 -0.6623  0.1741
65715SOL    HW2 9125  13.333   2.885   2.386  1.8876  2.0138 -1.6892
65716SOL     OW 9126  13.123   9.543  12.740  0.1323 -0.1714 -0.5236
65716SOL    HW1 9127  13.170   9.478  12.688 -2.3730 -1.2995 -1.5683
65716SOL    HW2 9128  13.110   9.502  12.825  0.4065 -0.1666 -0.4806
65717SOL     OW 9129  10.555   6.775   2.632  0.0842 -0.1618 -0.1644
65717SOL    HW1 9130  10.604   6.811   2.558 -0.6933 -0.2382 -0.7273
65717SOL    HW2 9131  10.592   6.688   2.645  0.4225 -0.0370 -0.2653
65718SOL     OW 9132   7.402   5.585   3.510  0.2073  0.0738  0.1853
65718SOL    HW1 9133   7.422   5.678   3.501 -2.3614  0.5520 -2.4492
65718SOL    HW2 9134   7.314   5.583   3.548  0.6269 -1.3359  1.1466
65719SOL     OW 9135   7.580   4.622  11.389  0.1944 -0.3890  0.0609
65719SOL    HW1 9136   7.594   4.712  11.362  0.0119 -0.9015 -1.8469
65719SOL    HW2 9137   7.643   4.571  11.337 -0.2653 -1.4466  0.5105
65720SOL     OW 9138   1.115   4.436   4.967  0.0512  0.2772 -0.0518
65720SOL    HW1 9139   1.068   4.517   4.985 -0.7248 -0.3189  0.6584
65720SOL    HW2 9140   1.208   4.461   4.972 -0.1724  1.0233  0.6150
65721SOL     OW 9141   3.392   9.683   0.700 -0.2314 -0.0629  0.8573
65721SOL    HW1 9142   3.391   9.676   0.795 -1.7065  0.2836  0.9050
65721SOL    HW2 9143   3.344   9.764   0.682 -0.3262 -0.3358 -0.1861
65722SOL     OW 9144  11.595   3.118   6.618 -0.0464  0.0085  0.5751
65722SOL    HW1 9145  11.575   3.203   6.655 -0.1504  0.7674 -1.1277
65722SOL    HW2 9146  11.556   3.119   6.531  0.5572 -1.5084  0.2353
65723SOL     OW 9147  11.810  12.690  13.083  0.0401  0.4526  0.6205
65723SOL    HW1 9148  11.806  12.688  13.178  0.7464 -0.1760  0.6455
65723SOL    HW2 9149  11.720  12.677  13.054 -0.0921  0.0687  1.1994
65724SOL     OW 9150  13.728   4.059   8.594 -0.2360 -0.1033  0.1423
65724SOL    HW1 9151  13.705   4.090   8.682  0.0796 -0.6263  0.4124
65724SOL    HW2 9152  13.652   4.009   8.565  0.1037 -0.9019  0.5896
65725SOL     OW 9153   4.043   2.288  10.515  1.0722  0.4548  0.3998
65725SOL    HW1 9154   4.113   2.246  10.564  1.6569 -1.2910 -1.7458
65725SOL    HW2 9155   4.085   2.321  10.436 -0.5238 -1.2383 -1.2721
65726SOL     OW 9156   0.752   9.280   2.293 -0.5532 -0.5338  0.0586
65726SOL    HW1 9157   0.832   9.238   2.326  1.1933  1.2434 -1.6529
65726SOL    HW2 9158   0.730   9.230   2.214 -0.5227 -0.3774 -0.0485
65727SOL     OW 9159   1.129   4.863   5.938 -0.5408  0.4373  0.2924
65727SOL    HW1 9160   1.211   4.905   5.964 -0.4293 -0.6957  1.8880
65727SOL    HW2 9161   1.063   4.902   5.994 -0.9236  0.5681 -0.2436
65728SOL     OW 9162   3.704  11.195   1.166 -0.2792  0.1052 -0.2364
65728SOL    HW1 9163   3.657  11.140   1.229  2.5915 -0.1033  1.9392
65728SOL    HW2 9164   3.643  11.265   1.144 -1.9769 -0.7548  1.4733
65729SOL     OW 9165   0.261   6.741  12.912 -0.0349 -0.0310 -0.2459
65729SOL    HW1 9166   0.263   6.654  12.871 -0.7037  0.1013 -0.5763
65729SOL    HW2 9167   0.173   6.748  12.949  0.6387 -0.2526  1.4918
65730SOL     OW 9168   8.811   9.277  12.679 -0.2247  0.0874  0.0089
65730SOL    HW1 9169   8.886   9.224  12.652 -0.1256 -0.5319  1.4458
65730SOL    HW2 9170   8.770   9.303  12.596  3.2814  3.0674 -1.0816
65731SOL     OW 9171   9.954   8.776   1.972  0.0518 -0.1052 -0.1104
65731SOL    HW1 9172   9.984   8.727   1.895  1.4864 -2.2216  1.6941
65731SOL    HW2 9173   9.867   8.740   1.991 -1.0850  1.6184 -1.6251
65732SOL     OW 9174   8.586   5.650  14.028 -0.7981  0.4527 -0.5901
65732SOL    HW1 9175   8.570   5.741  14.054 -0.3748  0.7731 -1.3888
65732SOL    HW2 9176   8.499   5.610  14.027 -0.7660  0.1767  2.0318
65733SOL     OW 9177  11.153   9.293   8.337  0.2901  0.4634 -0.0227
65733SOL    HW1 9178  11.122   9.240   8.410  1.1826  0.2280  0.1979
65733SOL    HW2 9179  11.247   9.299   8.351  0.1386  2.7877  0.4170
65734SOL     OW 9180   8.922   2.145   5.097 -0.1388  0.0801  0.1472
65734SOL    HW1 9181   9.006   2.191   5.108  0.6285 -1.2222 -0.0446
65734SOL    HW2 9182   8.856   2.210   5.119  0.9006  1.3086 -0.2528
65735SOL     OW 9183   4.617  13.087   6.129  0.0267  0.1962  0.0360
65735SOL    HW1 9184   4.560  13.027   6.081  1.8937 -1.0328 -0.7573
65735SOL    HW2 9185   4.665  13.135   6.061  1.5397 -0.4023  0.6358
65736SOL     OW 9186  11.813   3.357   9.371  0.3127  0.7874 -0.3515
65736SOL    HW1 9187  11.842   3.386   9.458  1.2215 -0.8989 -0.0460
65736SOL    HW2 9188  11.746   3.290   9.390 -0.1372  1.0616 -0.9693
65737SOL     OW 9189   0.790   7.190  13.085  0.6228 -0.0848  0.1924
65737SOL    HW1 9190   0.797   7.267  13.028 -0.1809 -0.3169 -0.2378
65737SOL    HW2 9191   0.799   7.224  13.174  1.2180  0.3755 -0.0372
65738SOL     OW 9192  13.724   6.320   9.194 -0.2496  0.3563 -0.0189
65738SOL    HW1 9193  13.633   6.289   9.193  0.1858 -1.0209  0.4110
65738SOL    HW2 9194  13.772   6.254   9.144  0.6606  0.5387  0.5870
65739SOL     OW 9195   4.890  12.000  11.226  0.3629  0.4058  0.5292
65739SOL    HW1 9196   4.944  11.923  11.208 -0.2781  0.0899 -0.1345
65739SOL    HW2 9197   4.869  11.994  11.319 -0.8519 -1.0314  0.2193
65740SOL     OW 9198   6.589   6.318  12.766  0.2106 -0.1868 -0.0924
65740SOL    HW1 9199   6.603   6.259  12.692  0.2498 -0.1045 -0.1513
65740SOL    HW2 9200   6.676   6.354  12.784  0.3540 -0.8335  0.5266
65741SOL     OW 9201   7.348   9.410   4.056  0.2522  0.1714 -0.2247
65741SOL    HW1 9202   7.408   9.474   4.094 -1.8826  1.9601  0.3331
65741SOL    HW2 9203   7.267   9.420   4.107 -0.3740 -2.5796 -0.5287
65742SOL     OW 9204  11.380  11.521   7.764  0.7841 -0.2206 -0.6181
65742SOL    HW1 9205  11.398  11.505   7.857 -1.2490 -1.7300 -0.4095
65742SOL    HW2 9206  11.320  11.595   7.763 -0.3662 -1.1193 -0.5695
65743SOL     OW 9207   3.601   4.825   5.856 -0.1488 -0.2433  0.1328
65743SOL    HW1 9208   3.583   4.799   5.947 -0.1211  2.3126  0.9746
65743SOL    HW2 9209   3.527   4.880   5.832  0.2299 -0.2517 -1.1237
65744SOL     OW 9210   5.705   6.595   6.072 -0.8193 -0.6907  0.0964
65744SOL    HW1 9211   5.670   6.533   6.136  1.0290 -2.7990 -0.7904
65744SOL    HW2 9212   5.779   6.637   6.116 -1.9681  0.8301  0.6379
65745SOL     OW 9213   2.033   4.999   3.284  0.6103 -0.2814  0.1859
65745SOL    HW1 9214   2.002   4.915   3.252 -2.5900  0.5742  0.7369
65745SOL    HW2 9215   2.054   5.049   3.204 -1.5910 -0.1973 -0.4050
65746SOL     OW 9216   2.947   5.013   8.535 -0.1028 -0.5707 -0.3350
65746SOL    HW1 9217   2.864   5.042   8.496  0.0608  0.4569  0.0539
65746SOL    HW2 9218   2.973   4.938   8.481 -2.2369 -2.1616  0.6945
65747SOL     OW 9219  11.409  13.952   3.912  0.7353 -0.5904 -0.2281
65747SOL    HW1 9220  11.430  13.870   3.868  2.5955 -0.9361  1.1639
65747SOL    HW2 9221  11.490  14.003   3.907 -0.2088  0.9090 -0.5358
65748SOL     OW 9222   7.275   3.001   2.206 -0.4500  0.0978 -0.3429
65748SOL    HW1 9223   7.193   2.986   2.254 -0.9612  1.8850 -0.5968
65748SOL    HW2 9224   7.284   2.924   2.150 -0.6166 -1.3285  1.4962
65749SOL     OW 9225   9.885  10.376   5.237 -0.0244  0.0203 -0.8395
65749SOL    HW1 9226   9.861  10.297   5.189  0.3495  0.7046 -2.2059
65749SOL    HW2 9227   9.815  10.439   5.218 -1.1039 -0.4106  1.4485
65750SOL     OW 9228   1.919   2.506  13.633 -0.5017 -0.2264 -0.1446
65750SOL    HW1 9229   1.971   2.509  13.553 -2.0789  1.7880 -1.1862
65750SOL    HW2 9230   1.961   2.569  13.691  0.0581 -0.9633  0.2731
65751SOL     OW 9231  10.866   6.379   6.206  0.5590  0.5299  0.1687
65751SOL    HW1 9232  10.803   6.426   6.150  1.1920 -2.3045 -3.2657
65751SOL    HW2 9233  10.949   6.423   6.190  0.5847  0.2637 -0.4276
65752SOL     OW 9234   6.828  12.542   1.200 -0.3956  0.1659  0.1931
65752SOL    HW1 9235   6.819  12.585   1.115  0.8634 -0.9279 -0.5252
65752SOL    HW2 9236   6.922  12.525   1.208 -0.6255 -0.6103  1.3670
65753SOL     OW 9237   3.845   1.601  13.240  0.1089 -0.1747 -0.0792
65753SOL    HW1 9238   3.847   1.697  13.242  0.2881 -0.0853 -2.0819
65753SOL    HW2 9239   3.915   1.577  13.179 -0.0512 -1.5708  0.2500
65754SOL     OW 9240   4.037  12.030   8.997  0.0849  0.5829  0.0241
65754SOL    HW1 9241   4.079  12.001   8.915  1.6370 -0.8615  1.2665
65754SOL    HW2 9242   3.945  12.008   8.986  0.3903 -0.2292 -1.0711
65755SOL     OW 9243   6.274   2.238   5.829 -0.1272 -0.2877  0.1131
65755SOL    HW1 9244   6.330   2.281   5.894 -0.6631  1.2036 -0.3819
65755SOL    HW2 9245   6.227   2.171   5.879  1.1830 -0.7457  0.7762
65756SOL     OW 9246   8.346  12.634   4.781 -0.0215 -0.3161  0.1832
65756SOL    HW1 9247   8.367  12.701   4.716 -0.3465 -1.5952 -1.3055
65756SOL    HW2 9248   8.431  12.610   4.819  0.7094 -1.9586 -2.2721
65757SOL     OW 9249   0.685   2.850   5.839  0.0069 -0.6421  0.2591
65757SOL    HW1 9250   0.730   2.935   5.832  2.3708 -1.8118  0.2662
65757SOL    HW2 9251   0.631   2.857   5.917  0.1945  0.8297  0.2819
65758SOL     OW 9252   7.747   0.202   8.364  0.1861 -0.5542 -0.3057
65758SOL    HW1 9253   7.717   0.140   8.430  0.0966  0.9608  1.1340
65758SOL    HW2 9254   7.773   0.280   8.414  3.8769 -0.7143 -1.6476
65759SOL     OW 9255   3.319   9.300  10.890 -0.1925 -0.4463 -0.0770
65759SOL    HW1 9256   3.308   9.280  10.982 -0.5669  2.6282  0.6552
65759SOL    HW2 9257   3.408   9.271  10.870 -0.0707 -1.0572  1.2698
65760SOL     OW 9258   2.160   9.817  12.865 -0.1647 -0.3262 -0.0363
65760SOL    HW1 9259   2.079   9.867  12.858 -0.5665 -1.0516 -0.7502
65760SOL    HW2 9260   2.224   9.867  12.814 -0.3355 -0.0973 -0.0271
65761SOL     OW 9261  12.671  10.954  11.255 -0.2807  0.2925  0.0714
65761SOL    HW1 9262  12.737  11.023  11.249  1.1991 -1.0468  0.2390
65761SOL    HW2 9263  12.650  10.933  11.164 -1.7123  1.8179  0.0197
65762SOL     OW 9264   8.258   9.994  11.615 -0.5238  0.5029 -0.5068
65762SOL    HW1 9265   8.245  10.088  11.628  0.4407  0.5451  0.2678
65762SOL    HW2 9266   8.179   9.955  11.652 -1.6102  1.0525 -2.1410
65763SOL     OW 9267  12.056   0.895   2.206  0.3850  0.3107 -0.0027
65763SOL    HW1 9268  11.996   0.962   2.174 -0.1429  0.0878  0.4841
65763SOL    HW2 9269  12.022   0.813   2.169  0.2073  0.1484  0.4983
65764SOL     OW 9270  11.017   2.359   7.971  0.0832  0.4487  0.4919
65764SOL    HW1 9271  10.996   2.451   7.958  0.1381  0.3158 -0.6756
65764SOL    HW2 9272  10.990   2.340   8.060 -1.9916  1.0414  0.0365
65765SOL     OW 9273   4.875  12.427   0.416  0.2131  0.2101 -0.2101
65765SOL    HW1 9274   4.788  12.396   0.441  0.4792 -0.0343  0.4428
65765SOL    HW2 9275   4.859  12.511   0.375 -0.2403  0.7502  1.0167
65766SOL     OW 9276   0.376   6.522   3.319  0.0975 -0.3801  0.2141
65766SOL    HW1 9277   0.370   6.477   3.404  2.3301  0.1397  0.7260
65766SOL    HW2 9278   0.330   6.465   3.258 -1.7758 -0.6521  1.8051
65767SOL     OW 9279  10.668   6.214   8.034  0.1291  0.2200  0.2703
65767SOL    HW1 9280  10.689   6.141   7.976 -1.8248 -0.2617  0.0887
65767SOL    HW2 9281  10.574   6.230   8.019  0.6629  3.3629 -0.3463
65768SOL     OW 9282   9.995   0.766   6.921 -0.3052 -0.2861  0.0739
65768SOL    HW1 9283   9.985   0.860   6.933  1.8037 -0.0391  0.3429
65768SOL    HW2 9284   9.947   0.746   6.841 -1.2581  0.9023  0.3263
65769SOL     OW 9285  10.198  13.176   1.102  0.4184  0.3663  0.3609
65769SOL    HW1 9286  10.285  13.198   1.069 -0.7577  2.7227 -1.5726
65769SOL    HW2 9287  10.214  13.118   1.176  3.6298  1.0526  0.3630
65770SOL     OW 9288   4.018  13.042   4.326 -0.2412  0.1021 -0.2085
65770SOL    HW1 9289   3.946  13.040   4.390 -0.0122  2.1843  0.1752
65770SOL    HW2 9290   3.975  13.056   4.242 -0.4867 -1.9597 -0.4885
65771SOL     OW 9291   8.202   8.017  10.052 -0.0452  0.0600  0.1783
65771SOL    HW1 9292   8.272   8.083  10.051 -1.3270  1.4830  0.3589
65771SOL    HW2 9293   8.201   7.985  10.142  0.3387  0.0839  0.1917
65772SOL     OW 9294   9.069   2.296   6.705 -0.1037  0.6394 -0.0248
65772SOL    HW1 9295   9.016   2.306   6.784  0.1059  0.3882  0.1508
65772SOL    HW2 9296   9.159   2.296   6.737  0.0674  2.2302 -0.4362
65773SOL     OW 9297   9.106   9.927  13.710  0.4694 -0.0148  0.0909
65773SOL    HW1 9298   9.162   9.921  13.632  1.7668  0.2258  0.9633
65773SOL    HW2 9299   9.060   9.844  13.712  2.2254 -1.0361  0.3554
65774SOL     OW 9300  13.680   6.117   5.931  0.0843  0.4433  0.3836
65774SOL    HW1 9301  13.666   6.197   5.881 -0.0825 -0.0285 -0.3304
65774SOL    HW2 9302  13.748   6.070   5.883  0.9569  0.6482  1.3904
65775SOL     OW 9303   3.087   8.585   6.502  0.3916 -0.0652 -0.1746
65775SOL    HW1 9304   3.092   8.680   6.498 -0.8250 -0.0246 -1.4189
65775SOL    HW2 9305   3.005   8.567   6.549  1.3691 -0.5323  1.4312
65776SOL     OW 9306  13.588  12.779   3.907 -0.0301 -0.1932  1.0206
65776SOL    HW1 9307  13.593  12.873   3.892 -0.6655 -0.2604  0.3293
65776SOL    HW2 9308  13.666  12.744   3.865 -0.2573 -0.0637  0.4861
65777SOL     OW 9309   3.089  13.809   8.320  0.3225 -0.1716  0.0205
65777SOL    HW1 9310   2.995  13.821   8.309  0.5742  0.6826 -1.3726
65777SOL    HW2 9311   3.127  13.833   8.235  1.9058  0.7345  0.9425
65778SOL     OW 9312  11.243   4.621  10.038 -0.3535  0.3204 -0.0742
65778SOL    HW1 9313  11.265   4.712  10.016  0.4128  0.1867  0.1035
65778SOL    HW2 9314  11.192   4.628  10.119  0.0401  0.5674  0.1552
65779SOL     OW 9315   5.214  13.968   9.194  0.2103 -0.2313  0.1062
65779SOL    HW1 9316   5.257  14.025   9.130 -0.0268  1.9809  1.8409
65779SOL    HW2 9317   5.128  14.007   9.208 -0.3827 -1.6407  0.5751
65780SOL     OW 9318   4.177   4.037  13.352  0.0995  0.0272  0.1681
65780SOL    HW1 9319   4.248   4.061  13.292 -0.4174 -0.9367 -0.8839
65780SOL    HW2 9320   4.118   3.984  13.298  0.3399 -2.1178  1.8660
65781SOL     OW 9321   7.889   9.382  13.103 -0.7102  0.1861 -0.2720
65781SOL    HW1 9322   7.907   9.289  13.092  0.3727  0.2552  0.6761
65781SOL    HW2 9323   7.976   9.423  13.105 -0.8376  0.6694  3.7807
65782SOL     OW 9324  12.657   3.552   5.948  0.4784 -0.0884 -0.2079
65782SOL    HW1 9325  12.743   3.538   5.986  1.3766  0.1974 -2.0316
65782SOL    HW2 9326  12.622   3.464   5.936  0.2959 -0.1943  0.9377
65783SOL     OW 9327   1.916  12.620   2.301  0.0609 -0.5028 -0.3725
65783SOL    HW1 9328   1.914  12.650   2.392 -1.1658 -0.8705 -0.2490
65783SOL    HW2 9329   1.926  12.699   2.249  0.0098 -0.2047  0.0651
65784SOL     OW 9330  10.859  10.264   4.691 -0.6350  0.1629  0.9653
65784SOL    HW1 9331  10.906  10.202   4.747 -0.2623  0.6447  1.1948
65784SOL    HW2 9332  10.926  10.324   4.660 -0.8327 -0.1358 -0.0664
65785SOL     OW 9333   4.653   4.828   3.918  0.2651 -0.1272 -0.4872
65785SOL    HW1 9334   4.723   4.886   3.890 -0.0187 -0.2305 -1.4533
65785SOL    HW2 9335   4.675   4.743   3.880 -0.0192 -0.3318 -0.2078
65786SOL     OW 9336   1.268   7.904   2.390 -0.6332 -0.3854  0.3453
65786SOL    HW1 9337   1.300   7.969   2.328  2.0137 -1.2513  0.7081
65786SOL    HW2 9338   1.201   7.855   2.341 -0.0349  0.2299 -1.1353
65787SOL     OW 9339  12.914   3.345   2.725 -0.4782  0.0835  0.2526
65787SOL    HW1 9340  12.889   3.400   2.798 -2.9175 -0.8694  0.2142
65787SOL    HW2 9341  13.007   3.363   2.712 -0.6556  2.3958  1.7159
65788SOL     OW 9342  12.503   6.761  14.022 -0.5188  0.3698 -0.8400
65788SOL    HW1 9343  12.407   6.764  14.030 -0.3654  2.1615  0.9299
65788SOL    HW2 9344  12.531   6.851  14.034  1.4713 -0.2529 -0.4370
65789SOL     OW 9345   8.418   6.813   8.234 -0.6195 -0.2463 -0.3725
65789SOL    HW1 9346   8.467   6.894   8.247 -1.2074 -0.0495  0.8098
65789SOL    HW2 9347   8.485   6.749   8.209 -0.0248  0.4174 -0.5229
65790SOL     OW 9348   4.728  12.469   1.202  0.6964  0.1341 -0.4715
65790SOL    HW1 9349   4.689  12.422   1.276  0.6535 -1.9314 -1.6965
65790SOL    HW2 9350   4.668  12.542   1.185 -0.0126 -0.1586  0.6772
65791SOL     OW 9351   6.666   0.005  10.580  0.3098 -0.2087  0.1435
65791SOL    HW1 9352   6.677   0.063  10.655  1.8035 -0.6513  0.3014
65791SOL    HW2 9353   6.582  -0.038  10.595  1.4805 -1.8593  2.7098
65792SOL     OW 9354   5.851   4.644   9.169  0.2760  0.2888 -0.3060
65792SOL    HW1 9355   5.773   4.667   9.221  0.7796  2.0245 -0.2595
65792SOL    HW2 9356   5.925   4.662   9.227  0.7539 -1.2156 -0.3966
65793SOL     OW 9357  12.546   4.212   9.774  0.4145 -0.3818 -0.5890
65793SOL    HW1 9358  12.563   4.303   9.749  0.3245  0.0556  0.8524
65793SOL    HW2 9359  12.609   4.194   9.844  0.2645 -1.3490 -0.6899
65794SOL     OW 9360   6.047   6.673   9.277  0.2068  0.2144 -0.5310
65794SOL    HW1 9361   6.138   6.697   9.258 -0.0129  1.0837 -0.5469
65794SOL    HW2 9362   6.046   6.658   9.371  0.9428 -2.5163 -0.8690
65795SOL     OW 9363   5.446   8.893  12.929  0.4802  0.1133  0.1767
65795SOL    HW1 9364   5.463   8.849  12.846  0.1501 -0.1203  0.2306
65795SOL    HW2 9365   5.363   8.938  12.916  0.5944  0.3551  0.2719
65796SOL     OW 9366   8.487   0.234   2.894  0.1652  0.1437 -0.5242
65796SOL    HW1 9367   8.484   0.313   2.841  2.1372  0.5533 -0.1246
65796SOL    HW2 9368   8.543   0.257   2.968 -1.2151 -0.8976  0.9106
65797SOL     OW 9369  11.524   8.855  13.170 -0.3688 -0.1165 -0.1016
65797SOL    HW1 9370  11.604   8.846  13.222  0.7140  3.3123 -0.9029
65797SOL    HW2 9371  11.530   8.787  13.104  0.5496 -1.5656  1.3988
65798SOL     OW 9372   6.692  13.875  13.154  0.5087 -0.0217 -0.2477
65798SOL    HW1 9373   6.666  13.954  13.107 -0.3516  1.3653  2.3683
65798SOL    HW2 9374   6.763  13.838  13.101  0.1338  1.8302 -2.1650
65799SOL     OW 9375   6.203   4.314   8.667  0.2553  0.2354  0.2274
65799SOL    HW1 9376   6.235   4.259   8.739 -2.6982 -1.3934  0.4821
65799SOL    HW2 9377   6.161   4.252   8.607 -2.7901  2.0837  0.2371
65800SOL     OW 9378  10.053   5.030   4.721 -0.0859 -0.3556  0.4790
65800SOL    HW1 9379   9.981   4.975   4.753 -0.2887  0.1663  0.9333
65800SOL    HW2 9380  10.132   4.977   4.734 -0.4397 -1.1838 -0.5981
65801SOL     OW 9381   6.269   0.761   0.355  0.5722 -0.5227 -0.7975
65801SOL    HW1 9382   6.347   0.792   0.309  0.6372 -1.5753 -1.4408
65801SOL    HW2 9383   6.199   0.819   0.326  1.0451  0.2135 -0.4843
65802SOL     OW 9384  13.363  10.949   5.385  0.0215 -0.4106  0.3368
65802SOL    HW1 9385  13.414  10.915   5.312 -0.9859  0.1208 -0.6522
65802SOL    HW2 9386  13.288  10.889   5.392  1.0201 -1.5274  2.1478
65803SOL     OW 9387   9.408   9.370   9.000 -0.6292  0.2159 -0.3033
65803SOL    HW1 9388   9.496   9.353   8.966 -0.3012 -0.2092  0.7143
65803SOL    HW2 9389   9.424   9.418   9.082 -1.3827  0.9176 -0.5549
65804SOL     OW 9390   7.545   9.685   6.473  0.1058 -0.1275 -0.0624
65804SOL    HW1 9391   7.461   9.725   6.450  0.6417  0.8802 -0.3469
65804SOL    HW2 9392   7.560   9.619   6.405 -0.2094  0.0534 -0.3108
65805SOL     OW 9393   7.868   1.884  13.114 -0.6173 -0.1276  0.5901
65805SOL    HW1 9394   7.912   1.815  13.164  0.9271 -1.7912 -2.6896
65805SOL    HW2 9395   7.829   1.838  13.040  2.3080  2.4988 -2.9823
65806SOL     OW 9396   0.817   3.981   1.904  0.0404  0.1027  0.0430
65806SOL    HW1 9397   0.904   3.978   1.862 -0.0855 -0.5483 -0.1915
65806SOL    HW2 9398   0.785   4.069   1.886  1.6740  1.2484  2.2630
65807SOL     OW 9399   6.613   0.411  10.564 -0.6854  0.1182  0.1265
65807SOL    HW1 9400   6.533   0.453  10.531  0.5702  2.6054 -0.0251
65807SOL    HW2 9401   6.666   0.396  10.486 -0.5097 -0.4202  0.3454
65808SOL     OW 9402  13.739   0.948   3.613  0.4353 -0.1845  0.0738
65808SOL    HW1 9403  13.832   0.959   3.634  0.3014 -1.0831  1.2433
65808SOL    HW2 9404  13.737   0.877   3.548  0.5880  0.1060 -0.2508
65809SOL     OW 9405   1.921  12.196  11.954 -0.5247 -0.6710  0.0457
65809SOL    HW1 9406   1.903  12.281  11.915 -1.5426 -1.0294 -0.2743
65809SOL    HW2 9407   1.958  12.144  11.883 -0.6848 -0.7552  0.0245
65810SOL     OW 9408   4.311  11.700   6.711 -0.1562  0.0717 -0.4200
65810SOL    HW1 9409   4.396  11.712   6.668  0.5134  1.3877  1.1567
65810SOL    HW2 9410   4.259  11.775   6.684  0.1390  0.7064  0.7217
65811SOL     OW 9411   1.752   3.073  13.767 -0.4129  0.3654  0.2023
65811SOL    HW1 9412   1.719   3.072  13.857 -2.5357  1.2744 -0.5138
65811SOL    HW2 9413   1.746   2.981  13.739  1.4403 -0.1554  1.3291
65812SOL     OW 9414  10.678   3.681   6.471  0.2701 -0.0142  0.2862
65812SOL    HW1 9415  10.626   3.645   6.543  1.2650  1.7110  1.9557
65812SOL    HW2 9416  10.711   3.604   6.424 -4.8563 -1.3281 -1.9153
65813SOL     OW 9417   3.755  13.638  11.432  0.5623 -0.3461 -0.0491
65813SOL    HW1 9418   3.735  13.604  11.345  2.6914 -0.3607 -0.5755
65813SOL    HW2 9419   3.841  13.679  11.423  0.1683  1.0081  1.7057
65814SOL     OW 9420   0.883  10.178  11.330 -0.0920 -0.2187 -0.1717
65814SOL    HW1 9421   0.834  10.234  11.269  1.4329  1.8030  0.3555
65814SOL    HW2 9422   0.974  10.183  11.300  0.0671 -2.9817 -0.4536
65815SOL     OW 9423   4.564   6.165  10.902  0.5605 -0.1047  0.8324
65815SOL    HW1 9424   4.577   6.223  10.977 -0.6278 -1.3578  2.0805
65815SOL    HW2 9425   4.573   6.077  10.939 -0.9631 -0.7717 -0.2994
65816SOL     OW 9426  12.508  13.785  12.085 -0.9454 -0.3908 -0.2063
65816SOL    HW1 9427  12.569  13.782  12.012  0.5997 -0.0934  1.0353
65816SOL    HW2 9428  12.466  13.699  12.085  1.4205 -1.6288  0.5068
65817SOL     OW 9429  12.180   1.904   9.805  0.2553  0.0558 -0.0116
65817SOL    HW1 9430  12.206   1.877   9.893  0.8017  0.2496 -0.1106
65817SOL    HW2 9431  12.237   1.854   9.746 -0.4347 -0.4310 -0.2752
65818SOL     OW 9432   7.040   5.776  13.616  0.2414 -0.2602  0.4604
65818SOL    HW1 9433   6.973   5.715  13.585  1.7442 -1.6040 -0.2870
65818SOL    HW2 9434   7.123   5.736  13.591  1.3802  0.9910  1.9800
65819SOL     OW 9435  10.744  12.267   4.082 -0.4080 -0.2675  0.2116
65819SOL    HW1 9436  10.769  12.231   3.997  1.5456 -1.1063  1.0969
65819SOL    HW2 9437  10.660  12.310   4.065  0.1728  0.0679 -2.2574
65820SOL     OW 9438   3.293   7.248   6.631 -0.1278  0.1227  0.2971
65820SOL    HW1 9439   3.370   7.304   6.640  0.4742 -0.8584  1.6789
65820SOL    HW2 9440   3.261   7.238   6.720  0.2470 -2.3131  0.2292
65821SOL     OW 9441   2.082   4.393   4.077  0.5222  0.2093 -0.5399
65821SOL    HW1 9442   2.060   4.407   3.985 -0.0418  1.5554 -0.2120
65821SOL    HW2 9443   2.161   4.339   4.074 -0.8587 -1.8767 -1.7677
65822SOL     OW 9444   7.976   6.376   4.863 -0.3141  0.1823  0.9749
65822SOL    HW1 9445   7.974   6.416   4.950  1.1398  1.5864  0.4113
65822SOL    HW2 9446   7.916   6.429   4.810 -0.9761 -0.4929  1.0302
65823SOL     OW 9447   9.362  12.983  12.967  0.3675 -0.6104  0.3167
65823SOL    HW1 9448   9.379  13.071  12.933 -0.8515 -1.0456 -1.5350
65823SOL    HW2 9449   9.269  12.984  12.991  0.6598 -1.0297  1.5479
65824SOL     OW 9450  10.059   6.218  13.976 -0.0764 -0.0526 -0.1227
65824SOL    HW1 9451  10.109   6.276  13.919 -0.2860 -1.4455 -1.8067
65824SOL    HW2 9452   9.970   6.254  13.974  0.1083  0.4227  0.0680
65825SOL     OW 9453   4.963   3.384   8.814 -0.1021  0.0278  0.4647
65825SOL    HW1 9454   4.950   3.413   8.724  0.7913  1.5413  0.7970
65825SOL    HW2 9455   4.909   3.442   8.867 -1.8472 -1.8212  0.8431
65826SOL     OW 9456  12.465   9.376   7.818  0.0673  0.2272  0.0157
65826SOL    HW1 9457  12.472   9.460   7.865 -1.7884  0.1739  0.4537
65826SOL    HW2 9458  12.394   9.389   7.756  1.1554 -0.3776 -1.4181
65827SOL     OW 9459   5.059  11.516   4.071 -0.2548  0.6117 -0.0039
65827SOL    HW1 9460   5.126  11.493   4.135 -0.4007  1.1164  0.3313
65827SOL    HW2 9461   5.038  11.433   4.028  2.4288  0.7920 -1.9111
65828SOL     OW 9462   1.456   7.398   4.132  0.0889  0.2412  0.0544
65828SOL    HW1 9463   1.497   7.393   4.045  0.0451 -0.9489  0.0898
65828SOL    HW2 9464   1.455   7.491   4.153 -0.1188  0.5715 -1.3334
65829SOL     OW 9465   0.228  10.644   8.022 -0.2298  0.1541 -0.0433
65829SOL    HW1 9466   0.238  10.551   8.044 -1.7827 -0.0707 -0.1675
65829SOL    HW2 9467   0.317  10.675   8.008  0.3562 -1.1836  0.5490
65830SOL     OW 9468   8.848   2.097   2.753  0.0013 -0.3210  0.4322
65830SOL    HW1 9469   8.879   2.073   2.666 -1.8305 -0.7162 -0.1425
65830SOL    HW2 9470   8.889   2.032   2.811  0.6333 -0.5149 -0.2072
65831SOL     OW 9471   7.083   4.283   2.423  0.3710 -0.4487 -0.4897
65831SOL    HW1 9472   7.122   4.241   2.346  1.0377 -1.9287  0.6152
65831SOL    HW2 9473   7.141   4.358   2.441  1.1733 -1.0610 -0.4588
65832SOL     OW 9474   3.155   8.934  11.178  0.2080 -0.0572  0.1461
65832SOL    HW1 9475   3.145   9.017  11.225 -1.5302  1.1409 -2.1210
65832SOL    HW2 9476   3.105   8.871  11.230 -1.7738  1.2518 -0.0618
65833SOL     OW 9477   0.119   1.663   2.198  0.1117 -0.6588  0.4176
65833SOL    HW1 9478   0.090   1.578   2.230 -1.0976 -0.4533 -0.0752
65833SOL    HW2 9479   0.053   1.688   2.133 -2.0247  2.4843  3.4216
65834SOL     OW 9480   7.454   6.557   2.037  0.4882 -0.0247  0.3824
65834SOL    HW1 9481   7.539   6.536   1.998  0.8234  1.5586  0.2281
65834SOL    HW2 9482   7.443   6.651   2.023 -1.8553 -0.3855 -0.7033
65835SOL     OW 9483   3.327   2.805  11.885 -0.3860  0.7291 -0.4389
65835SOL    HW1 9484   3.245   2.764  11.860 -1.7134  1.6387  2.0222
65835SOL    HW2 9485   3.364   2.838  11.803 -1.5451 -1.2466 -1.8440
65836SOL     OW 9486  11.770   0.146  13.297  0.1613 -0.6565 -0.1506
65836SOL    HW1 9487  11.687   0.121  13.255  0.6107  0.7600 -2.0073
65836SOL    HW2 9488  11.838   0.112  13.239  0.9046 -1.0952  0.9358
65837SOL     OW 9489   6.659   2.126   2.772  0.0943  0.3387 -0.3842
65837SOL    HW1 9490   6.565   2.107   2.776 -0.1611  1.5068 -0.3130
65837SOL    HW2 9491   6.700   2.057   2.824 -0.8238  0.4446  0.5221
65838SOL     OW 9492   0.615   8.544   5.211 -0.2890 -0.1896  0.1572
65838SOL    HW1 9493   0.585   8.551   5.302 -0.6699 -1.6807  0.1812
65838SOL    HW2 9494   0.673   8.468   5.212 -0.5375 -0.3985 -0.9063
65839SOL     OW 9495  10.454   3.296   4.454  0.1293 -0.2851  0.3292
65839SOL    HW1 9496  10.514   3.245   4.399  0.0971  0.3049 -0.2556
65839SOL    HW2 9497  10.401   3.346   4.393  1.1076  1.5400  0.9130
65840SOL     OW 9498   0.103   0.332   1.846 -0.0876  0.0552  0.4577
65840SOL    HW1 9499   0.125   0.425   1.838  1.4281 -0.3800 -1.0437
65840SOL    HW2 9500   0.090   0.319   1.940  0.3770  1.6391  0.7760
65841SOL     OW 9501   8.337   3.661   8.347  0.3356 -0.2068  0.3233
65841SOL    HW1 9502   8.331   3.750   8.312 -2.1745  0.4031  2.0295
65841SOL    HW2 9503   8.295   3.606   8.281 -0.0990  0.2140  0.2472
65842SOL     OW 9504   2.310   7.812  12.156 -0.0077  0.0631 -0.5909
65842SOL    HW1 9505   2.236   7.752  12.144 -0.6434  0.9248 -1.0528
65842SOL    HW2 9506   2.275   7.883  12.209  0.9305 -0.2915  0.5424
65843SOL     OW 9507   6.462   0.828   4.608  0.5512  0.3645  0.2149
65843SOL    HW1 9508   6.414   0.911   4.608  1.3616  0.8379  0.0508
65843SOL    HW2 9509   6.497   0.821   4.519  0.8073  0.0294  0.3424
65844SOL     OW 9510   3.994   1.067   9.241 -0.1918 -0.1325  0.2858
65844SOL    HW1 9511   3.950   1.151   9.233  0.6471  0.1717 -1.7171
65844SOL    HW2 9512   3.923   1.003   9.241 -0.7660  0.4899 -0.0999
65845SOL     OW 9513   6.061   6.663   8.846  0.3171 -0.0615  0.1459
65845SOL    HW1 9514   6.051   6.755   8.868  0.9047  0.4534 -1.5760
65845SOL    HW2 9515   6.009   6.617   8.912 -0.9873  1.5634  0.3224
65846SOL     OW 9516  10.075   7.063  12.131  0.0919 -0.3869 -0.7162
65846SOL    HW1 9517  10.029   6.988  12.168 -1.5892  0.3463 -1.2719
65846SOL    HW2 9518  10.138   7.087  12.200  1.2275 -2.7069 -0.8141
65847SOL     OW 9519  11.512   6.072   5.311  0.0497  0.0634 -0.3781
65847SOL    HW1 9520  11.542   6.003   5.253  0.1099 -0.3972  0.1886
65847SOL    HW2 9521  11.591   6.103   5.355 -0.2407 -1.1696  1.1329
65848SOL     OW 9522   1.770  11.118  11.668 -0.0122  0.0196  0.3053
65848SOL    HW1 9523   1.836  11.072  11.722 -0.6101 -1.9557 -0.5537
65848SOL    HW2 9524   1.699  11.137  11.729  0.2324 -0.2396  0.6812
65849SOL     OW 9525   2.900   8.794   8.802 -0.3356 -0.5455 -0.1066
65849SOL    HW1 9526   2.819   8.798   8.852 -0.5427  0.9516 -0.4892
65849SOL    HW2 9527   2.960   8.853   8.848 -0.8966  1.8179 -2.1145
65850SOL     OW 9528  10.690   3.007   0.658 -0.0913 -0.1087  0.0672
65850SOL    HW1 9529  10.766   3.066   0.660 -1.2638  1.4942 -0.2183
65850SOL    HW2 9530  10.717   2.934   0.603  0.3282  1.8724 -2.5919
65851SOL     OW 9531  10.655   0.571   6.880 -0.3926 -0.0715  0.1002
65851SOL    HW1 9532  10.704   0.503   6.927 -0.9943  0.3554  1.4079
65851SOL    HW2 9533  10.565   0.562   6.913 -0.9391 -0.0484 -1.3418
65852SOL     OW 9534   6.800  13.747   1.348  0.2025 -0.5335  0.3322
65852SOL    HW1 9535   6.891  13.735   1.323  0.7111 -1.3047  2.3188
65852SOL    HW2 9536   6.787  13.686   1.421 -1.8215 -0.2311  0.2974
65853SOL     OW 9537   8.212  10.958  12.848  0.1170 -0.1587  0.0289
65853SOL    HW1 9538   8.262  10.899  12.792 -1.0532 -0.7710 -0.3867
65853SOL    HW2 9539   8.216  10.918  12.935 -2.2321 -1.9016 -0.6032
65854SOL     OW 9540  13.600   0.755   3.031  0.2565  0.1308  0.0352
65854SOL    HW1 9541  13.545   0.825   2.994  0.0984  0.1505  0.3040
65854SOL    HW2 9542  13.538   0.688   3.059  0.3790  0.0851  0.2000
65855SOL     OW 9543   7.994   1.971   5.114  0.0115  0.1751  0.4131
65855SOL    HW1 9544   7.994   2.066   5.127  0.1536  0.0701  1.2026
65855SOL    HW2 9545   7.915   1.940   5.158  0.6197 -0.2119  1.2553
65856SOL     OW 9546   3.029  12.285   3.769 -0.0517  0.6425  0.0398
65856SOL    HW1 9547   2.948  12.323   3.802  0.0662  0.1858  0.9041
65856SOL    HW2 9548   3.071  12.356   3.720 -0.2294  1.3709  0.9139
65857SOL     OW 9549   7.678   5.086  10.171  0.0627 -0.1998 -0.1137
65857SOL    HW1 9550   7.634   5.169  10.191 -2.2401 -0.9823 -1.5598
65857SOL    HW2 9551   7.680   5.040  10.254  0.5773  0.9277  0.5296
65858SOL     OW 9552  10.609   4.703   2.812  0.0591 -0.1448  0.2684
65858SOL    HW1 9553  10.667   4.635   2.847  1.2077  1.0588  0.7932
65858SOL    HW2 9554  10.648   4.726   2.727 -1.1209 -1.0780 -0.5689
65859SOL     OW 9555   2.878   2.534   4.518 -0.1971  0.3398 -0.3141
65859SOL    HW1 9556   2.886   2.629   4.522 -1.7759  0.4652  1.8376
65859SOL    HW2 9557   2.965   2.504   4.492  0.7923  2.3081  0.4615
65860SOL     OW 9558   1.013   1.645  12.637  0.3765 -0.0867  0.2412
65860SOL    HW1 9559   1.012   1.576  12.570  0.3550  1.0772 -0.9962
65860SOL    HW2 9560   0.939   1.624  12.694 -0.8908 -0.0052 -1.2882
65861SOL     OW 9561   9.166   5.030   3.809  0.1745  0.2926 -0.2884
65861SOL    HW1 9562   9.239   5.042   3.870  0.3332 -0.2467 -0.3740
65861SOL    HW2 9563   9.207   5.021   3.723  0.1107 -1.4999 -0.1629
65862SOL     OW 9564  10.741  10.158  13.272  0.2547  0.1969  0.4005
65862SOL    HW1 9565  10.807  10.215  13.232  0.2492 -0.6451 -0.8747
65862SOL    HW2 9566  10.762  10.159  13.365  0.6756  1.7137  0.3150
65863SOL     OW 9567   4.356   9.717   1.842  0.4551 -0.2434 -0.0762
65863SOL    HW1 9568   4.326   9.773   1.914  0.1169  0.2772 -0.6093
65863SOL    HW2 9569   4.305   9.636   1.851 -3.2868  1.5466 -2.4929
65864SOL     OW 9570  11.886   5.276   8.342 -0.5939 -0.3000 -0.9632
65864SOL    HW1 9571  11.938   5.342   8.298 -1.5787  0.7111 -0.6720
65864SOL    HW2 9572  11.905   5.194   8.296 -0.3365  0.4221 -2.1661
65865SOL     OW 9573   6.070   6.423   6.134  0.4456 -0.6663  0.4453
65865SOL    HW1 9574   6.015   6.352   6.100  2.1060 -1.9145  0.2543
65865SOL    HW2 9575   6.100   6.391   6.219  0.2414  0.3513  0.9086
65866SOL     OW 9576   4.742  11.235   2.523  0.1536  0.1521  0.2645
65866SOL    HW1 9577   4.724  11.260   2.613  0.9980 -0.1107  0.5197
65866SOL    HW2 9578   4.665  11.263   2.474  0.1521  1.3086  0.8861
65867SOL     OW 9579   2.506   3.454  13.996  0.2622 -0.0022 -0.7176
65867SOL    HW1 9580   2.490   3.432  13.905  0.8773  1.0183 -1.0876
65867SOL    HW2 9581   2.601   3.460  14.003  0.2818 -1.0655  0.2401
65868SOL     OW 9582  10.031   9.287   0.611 -0.8636 -0.1478 -0.3304
65868SOL    HW1 9583  10.046   9.359   0.549  2.2117 -1.1129 -0.8979
65868SOL    HW2 9584  10.062   9.321   0.695  3.3927 -1.4680 -1.1099
65869SOL     OW 9585   8.785   0.991  12.963  0.1787 -0.5533 -0.0544
65869SOL    HW1 9586   8.735   1.071  12.981 -1.4953 -1.5586 -0.0421
65869SOL    HW2 9587   8.875   1.020  12.957 -0.4538  1.4300 -0.5847
65870SOL     OW 9588  10.266   9.960  13.666  0.7592 -0.2290  0.5409
65870SOL    HW1 9589  10.289   9.927  13.579 -0.1548 -2.2761  1.0259
65870SOL    HW2 9590  10.338   9.930  13.722  0.6599 -0.0873  0.7458
65871SOL     OW 9591   0.805  13.779  14.029  0.0015 -0.6552 -0.0602
65871SOL    HW1 9592   0.777  13.754  13.941 -1.8367  0.8481  0.0359
65871SOL    HW2 9593   0.889  13.824  14.015 -0.1994 -0.5452 -1.0193
65872SOL     OW 9594  12.660   0.897   2.466  0.5488 -0.0212 -0.1156
65872SOL    HW1 9595  12.751   0.892   2.436  0.5029 -0.7680 -0.1654
65872SOL    HW2 9596  12.646   0.814   2.511 -0.8631 -1.0663 -2.3130
65873SOL     OW 9597   5.548   3.644  11.206 -0.1737  0.5715  0.1861
65873SOL    HW1 9598   5.488   3.620  11.136 -0.1091  0.0910  0.2922
65873SOL    HW2 9599   5.603   3.567  11.218  0.3146  0.9245  0.2474
65874SOL     OW 9600   0.440   6.001  12.331  0.0051 -0.3087  0.3776
65874SOL    HW1 9601   0.427   5.940  12.258  1.8086  0.2594 -0.4550
65874SOL    HW2 9602   0.365   6.061  12.326 -0.9262 -1.4428  0.2227
65875SOL     OW 9603   6.064   1.726   0.286 -0.1244 -0.0509  0.0951
65875SOL    HW1 9604   6.057   1.792   0.218 -0.1383  0.7171  0.8244
65875SOL    HW2 9605   6.082   1.776   0.366 -1.6184 -0.7723  0.9327
65876SOL     OW 9606   3.535   0.766   9.078 -0.3027  0.0352  0.0197
65876SOL    HW1 9607   3.527   0.732   9.167 -1.2801 -0.6033 -0.2936
65876SOL    HW2 9608   3.468   0.833   9.072 -0.4342 -0.1297 -0.3316
65877SOL     OW 9609   2.169  12.200  12.047 -0.3719 -0.4274 -0.1181
65877SOL    HW1 9610   2.186  12.126  12.106 -1.6803 -0.9561 -0.3525
65877SOL    HW2 9611   2.075  12.193  12.027 -0.6501  1.6242  0.2816
65878SOL     OW 9612   4.620   3.415   1.054 -0.4367  0.6283  0.2818
65878SOL    HW1 9613   4.546   3.456   1.010 -1.1803 -0.2107  0.7204
65878SOL    HW2 9614   4.601   3.321   1.051  0.6105  0.3957  0.4034
65879SOL     OW 9615   1.131   9.967   1.251  0.0606  0.7868 -0.0969
65879SOL    HW1 9616   1.125  10.043   1.308  1.0346  0.7950  0.0065
65879SOL    HW2 9617   1.125  10.002   1.162  1.2469  1.0839 -0.0757
65880SOL     OW 9618  11.161   5.024  12.233  0.5269  0.4424 -0.4520
65880SOL    HW1 9619  11.122   4.986  12.312 -0.8807  1.3490 -0.6805
65880SOL    HW2 9620  11.103   4.996  12.162  1.3207  0.3181 -1.0637
65881SOL     OW 9621   3.894  13.627   1.940  0.1249  0.0318  0.3777
65881SOL    HW1 9622   3.838  13.694   1.900  0.5708 -0.1099 -0.4953
65881SOL    HW2 9623   3.836  13.582   2.002 -0.8450 -0.3872 -0.7928
65882SOL     OW 9624  12.659  11.709   4.614 -0.0311 -0.4417  0.2837
65882SOL    HW1 9625  12.636  11.761   4.537  1.5487 -0.8673 -0.5250
65882SOL    HW2 9626  12.728  11.761   4.657 -1.0831 -0.0793  1.5866
65883SOL     OW 9627   2.735   1.933   0.321 -0.4264 -0.1153  0.0426
65883SOL    HW1 9628   2.813   1.908   0.271  0.1681  0.1360  0.8229
65883SOL    HW2 9629   2.754   2.022   0.351 -1.4555  0.3433 -0.6126
65884SOL     OW 9630  14.007  10.662  10.524  0.2027  0.1543  0.3526
65884SOL    HW1 9631  13.981  10.621  10.441  0.7572  1.1364 -0.3257
65884SOL    HW2 9632  14.092  10.623  10.545  0.9386  1.2321 -0.5203
65885SOL     OW 9633   7.996   5.444   8.255  0.0136  0.2947 -0.0209
65885SOL    HW1 9634   8.070   5.468   8.199 -0.7830  1.7323 -0.5164
65885SOL    HW2 9635   7.936   5.399   8.196  0.7575 -1.5107  0.5361
65886SOL     OW 9636  10.168   2.946   0.496  0.4975  0.2958 -0.1426
65886SOL    HW1 9637  10.157   3.041   0.491 -0.1220  0.1641 -1.9079
65886SOL    HW2 9638  10.131   2.914   0.414 -0.0026 -1.5443  0.7623
65887SOL     OW 9639  10.377   0.138   0.119 -0.3558 -0.2469  0.0548
65887SOL    HW1 9640  10.312   0.075   0.151 -0.0009  0.1084  1.5371
65887SOL    HW2 9641  10.347   0.223   0.151  1.2117 -0.1682  1.5090
65888SOL     OW 9642   0.764   5.221  11.125  0.1507 -0.5044  0.5733
65888SOL    HW1 9643   0.703   5.291  11.147 -0.1602 -0.5022 -0.2796
65888SOL    HW2 9644   0.747   5.153  11.191 -2.1962 -1.3486 -0.7950
65889SOL     OW 9645   5.339   1.628  10.020  0.0324 -0.4649  0.2013
65889SOL    HW1 9646   5.259   1.640   9.970  1.1621  0.9815 -1.3842
65889SOL    HW2 9647   5.328   1.684  10.097 -0.5734 -0.4328  0.0915
65890SOL     OW 9648   6.171   1.264  10.010  0.3509 -0.6396  0.0882
65890SOL    HW1 9649   6.199   1.212  10.086 -1.5265 -0.1752  1.1458
65890SOL    HW2 9650   6.199   1.353  10.029  0.2835 -0.6013  0.0117
65891SOL     OW 9651  13.269   3.914   6.231 -0.3468  0.0135  0.0010
65891SOL    HW1 9652  13.243   3.886   6.144 -2.5459 -0.2872  0.7060
65891SOL    HW2 9653  13.251   3.838   6.287 -1.2015  0.9757  1.0648
65892SOL     OW 9654   9.445   2.937   6.034  0.2781 -0.6494 -0.3400
65892SOL    HW1 9655   9.513   2.975   6.090 -0.2056 -0.7769  0.3326
65892SOL    HW2 9656   9.442   2.845   6.059 -1.1550 -0.3552  0.6828
65893SOL     OW 9657   9.709   1.687   8.243  0.1974 -0.3652 -0.5627
65893SOL    HW1 9658   9.715   1.649   8.330  0.3321 -1.2439 -0.9440
65893SOL    HW2 9659   9.736   1.778   8.254 -1.0766 -0.0885  0.5503
65894SOL     OW 9660   7.439  10.395  12.963 -0.3126 -0.0680 -0.1877
65894SOL    HW1 9661   7.437  10.300  12.972 -2.2054 -0.2162 -1.3883
65894SOL    HW2 9662   7.457  10.410  12.870 -2.3558  0.6187 -0.5315
65895SOL     OW 9663   8.140   5.254   2.838  0.1288  0.0387  0.0648
65895SOL    HW1 9664   8.222   5.258   2.789 -0.8639  3.3388 -1.6272
65895SOL    HW2 9665   8.088   5.188   2.793  0.8523 -0.0865 -0.6048
65896SOL     OW 9666   6.147   5.803  13.890 -0.1912 -0.5006 -0.0382
65896SOL    HW1 9667   6.060   5.811  13.849 -0.2416  1.1402  0.3456
65896SOL    HW2 9668   6.208   5.829  13.821 -0.2414  1.7025  0.6890
65897SOL     OW 9669   8.060  12.487   4.107  0.3447 -0.0296  0.0871
65897SOL    HW1 9670   8.127  12.424   4.082  1.4405  0.7635  0.9066
65897SOL    HW2 9671   8.091  12.523   4.190 -0.0306  1.8533 -0.5409
65898SOL     OW 9672   2.375   4.001   5.621 -0.0741  0.1799 -0.2010
65898SOL    HW1 9673   2.411   3.954   5.697  2.8377 -1.2799 -2.3042
65898SOL    HW2 9674   2.343   4.084   5.658  3.6905  0.7617  2.3472
65899SOL     OW 9675   4.552   6.071  10.331 -0.3739 -0.2965  0.5980
65899SOL    HW1 9676   4.609   6.104  10.400 -1.1177 -0.6246  1.3908
65899SOL    HW2 9677   4.500   6.147  10.303  1.4764  0.3981 -1.2404
65900SOL     OW 9678   8.832   6.666   2.417 -0.1637 -0.6322  0.2497
65900SOL    HW1 9679   8.903   6.618   2.461  0.3280  0.4096  0.6230
65900SOL    HW2 9680   8.761   6.603   2.412  0.4096 -1.3579  0.8758
65901SOL     OW 9681   5.114   0.751   1.946  0.1168 -0.2375  0.2112
65901SOL    HW1 9682   5.063   0.673   1.925  0.1159 -0.6462  1.6460
65901SOL    HW2 9683   5.052   0.809   1.989 -0.6081  1.7771 -3.2092
65902SOL     OW 9684  12.229   0.519   2.881  0.3610 -0.3382 -0.5016
65902SOL    HW1 9685  12.296   0.484   2.823  0.4294 -0.4213 -0.3718
65902SOL    HW2 9686  12.215   0.609   2.850 -0.7838 -0.8968 -1.7107
65903SOL     OW 9687  13.932   6.497   3.631  0.7668 -0.1738 -0.1362
65903SOL    HW1 9688  14.026   6.484   3.616  1.1609 -0.2677  2.0222
65903SOL    HW2 9689  13.897   6.409   3.641  0.6350 -0.1072 -0.0137
65904SOL     OW 9690   7.169  10.565   0.106 -0.2413  0.1900  0.4778
65904SOL    HW1 9691   7.111  10.637   0.131 -0.2473  0.4564 -0.2942
65904SOL    HW2 9692   7.256  10.592   0.136 -0.4137  0.0338  1.1456
65905SOL     OW 9693  10.084   1.490   0.977 -0.0693  0.1079  0.3014
65905SOL    HW1 9694  10.001   1.466   0.936 -0.0676 -0.6522  0.7320
65905SOL    HW2 9695  10.142   1.512   0.904 -0.1968 -0.8209 -0.0927
65906SOL     OW 9696   5.314   2.080  11.674 -0.6857  0.2096  0.2134
65906SOL    HW1 9697   5.248   2.126  11.621 -0.0523 -0.7428 -1.4587
65906SOL    HW2 9698   5.312   2.125  11.758 -2.2632  1.3016 -0.3600
65907SOL     OW 9699   2.597  13.200  14.039  0.1931  0.5334  0.0571
65907SOL    HW1 9700   2.587  13.117  13.993 -1.7299  1.0493 -0.5524
65907SOL    HW2 9701   2.690  13.203  14.063  0.8981 -0.5372 -2.2509
65908SOL     OW 9702  11.406   2.878   8.145 -0.0078  0.1375 -0.4306
65908SOL    HW1 9703  11.361   2.874   8.229  0.3082  0.4179 -0.2468
65908SOL    HW2 9704  11.370   2.805   8.094 -0.2124 -0.0172 -0.0605
65909SOL     OW 9705  10.505  10.350  12.830 -0.2180 -0.3337 -0.6220
65909SOL    HW1 9706  10.514  10.309  12.916 -1.9411 -0.2829 -0.3971
65909SOL    HW2 9707  10.537  10.439  12.844 -0.1075 -0.4408 -0.1426
65910SOL     OW 9708  10.350   2.386   7.182 -0.4392  0.3480  0.1864
65910SOL    HW1 9709  10.419   2.388   7.117 -0.7904  2.4214 -0.1739
65910SOL    HW2 9710  10.316   2.296   7.177  0.8770 -0.1238 -1.0211
65911SOL     OW 9711   7.715  13.448  13.202 -0.3486 -0.3741  0.2783
65911SOL    HW1 9712   7.667  13.384  13.149  0.6790 -1.9876  1.1848
65911SOL    HW2 9713   7.650  13.483  13.262 -0.7516 -1.3657  0.4497
65912SOL     OW 9714   5.522   6.617   8.721 -0.7583  0.3096  0.1344
65912SOL    HW1 9715   5.494   6.581   8.805  2.2575 -0.6490  0.8796
65912SOL    HW2 9716   5.578   6.692   8.745 -1.7726  1.5386 -1.1649
65913SOL     OW 9717   1.712   0.559  10.080  0.0641 -0.5238 -0.0729
65913SOL    HW1 9718   1.761   0.607  10.014  0.8527 -2.3270 -0.8495
65913SOL    HW2 9719   1.625   0.547  10.042  0.2645 -0.8448 -0.4273
65914SOL     OW 9720   1.682  10.710   3.864  0.2438  0.0957  0.0579
65914SOL    HW1 9721   1.609  10.708   3.802  0.4632  1.6995 -0.3101
65914SOL    HW2 9722   1.738  10.637   3.838  0.4919  0.9204 -1.8709
65915SOL     OW 9723  11.256  11.861   0.980  0.5237 -0.0778 -0.4087
65915SOL    HW1 9724  11.246  11.943   1.028 -0.0553  0.5619 -1.5637
65915SOL    HW2 9725  11.347  11.861   0.951  1.1419 -0.9134  1.4207
65916SOL     OW 9726   7.624  12.692   8.143 -0.0387 -0.0675  0.2986
65916SOL    HW1 9727   7.662  12.612   8.178  0.3356 -1.1153 -2.2284
65916SOL    HW2 9728   7.696  12.734   8.096 -0.7671  0.5332 -0.3126
65917SOL     OW 9729   2.854   7.205  11.964 -0.0624  0.1132  0.2963
65917SOL    HW1 9730   2.823   7.172  11.880 -0.2617  1.3273 -0.1282
65917SOL    HW2 9731   2.839   7.133  12.025 -3.1991  0.3763 -0.0080
65918SOL     OW 9732   9.839  11.901   8.587 -0.4082  0.1858 -0.4760
65918SOL    HW1 9733   9.770  11.968   8.586 -1.7846 -1.0664  1.6212
65918SOL    HW2 9734   9.802  11.828   8.538 -1.1423 -0.9079  1.5726
65919SOL     OW 9735   2.852   0.423   0.450 -0.1392  0.2332  0.5606
65919SOL    HW1 9736   2.943   0.392   0.447  0.1405  1.1060  0.0224
65919SOL    HW2 9737   2.853   0.506   0.404 -1.3109  0.0333  0.1530
65920SOL     OW 9738   3.569   8.851  13.804 -0.0157  0.0184 -0.0670
65920SOL    HW1 9739   3.613   8.798  13.737  0.5728  1.5770 -0.9716
65920SOL    HW2 9740   3.526   8.787  13.861  0.4194 -1.4047 -1.2697
65921SOL     OW 9741   6.847   0.363  13.206 -0.4228  0.4638 -0.2025
65921SOL    HW1 9742   6.813   0.413  13.132 -2.1018  0.6846  0.6681
65921SOL    HW2 9743   6.781   0.295  13.222  0.7480 -0.6727  0.0316
65922SOL     OW 9744   9.850  11.688   5.004  0.4795 -0.2640 -0.5429
65922SOL    HW1 9745   9.941  11.706   4.981 -0.0102  1.3164 -1.4109
65922SOL    HW2 9746   9.836  11.734   5.086  0.3770 -0.2719 -0.5560
65923SOL     OW 9747  11.409   1.760   0.792 -0.8149 -0.1796  0.2001
65923SOL    HW1 9748  11.497   1.752   0.755 -0.1007 -0.7210  1.9058
65923SOL    HW2 9749  11.353   1.712   0.732 -0.0079  0.3657 -1.0463
65924SOL     OW 9750   7.797  13.215   5.753 -0.2482  0.1059  0.2861
65924SOL    HW1 9751   7.832  13.304   5.748  0.2317 -0.0525  0.7119
65924SOL    HW2 9752   7.858  13.162   5.701 -0.1749 -0.0750  0.5521
65925SOL     OW 9753   0.734   5.217   7.608  0.1506 -0.0245 -0.1909
65925SOL    HW1 9754   0.716   5.199   7.515 -3.1516  1.1270  0.0870
65925SOL    HW2 9755   0.737   5.130   7.648 -0.9068 -0.4799 -1.0265
65926SOL     OW 9756   3.119  11.223  13.858 -0.0432 -0.0536  0.3706
65926SOL    HW1 9757   3.189  11.230  13.794  0.3068  2.4708  0.9251
65926SOL    HW2 9758   3.161  11.242  13.942 -0.9883 -0.7331  1.0252
65927SOL     OW 9759  11.020   9.205  13.156 -0.1790 -0.3931  0.1161
65927SOL    HW1 9760  11.019   9.146  13.231 -1.0520 -0.7638 -0.1666
65927SOL    HW2 9761  11.021   9.293  13.194  0.3029 -0.5840  0.5508
65928SOL     OW 9762  13.675  13.826   7.650  1.3527 -0.6849 -0.8555
65928SOL    HW1 9763  13.744  13.870   7.698 -0.9853 -0.7516  2.9611
65928SOL    HW2 9764  13.654  13.885   7.577  2.3455  1.5517  0.5718
65929SOL     OW 9765   0.328  10.192   5.228  0.6226 -0.2483 -0.2484
65929SOL    HW1 9766   0.299  10.283   5.242  1.3205  0.4156 -2.5815
65929SOL    HW2 9767   0.249  10.140   5.242 -0.1907  0.8951 -0.3794
65930SOL     OW 9768   4.259   9.049  13.310 -0.0250 -0.0199 -0.4150
65930SOL    HW1 9769   4.316   9.071  13.384 -0.5953 -0.7858  0.2704
65930SOL    HW2 9770   4.231   9.134  13.275 -0.2574  0.3557  0.6528
65931SOL     OW 9771  11.686   2.914   6.928 -1.1170 -0.5933  0.0099
65931SOL    HW1 9772  11.710   2.848   6.992 -1.0296  0.3062  0.9343
65931SOL    HW2 9773  11.644   2.983   6.980  1.6907  1.6059 -0.3839
65932SOL     OW 9774   1.919   6.671  12.790 -0.0650  0.0610  0.3125
65932SOL    HW1 9775   2.002   6.628  12.769 -0.3652 -0.1303 -0.5364
65932SOL    HW2 9776   1.875   6.679  12.706  0.3724  2.8783  0.2605
65933SOL     OW 9777  12.838   5.619   1.597  0.1881  0.4628  0.0708
65933SOL    HW1 9778  12.898   5.604   1.670 -1.5113 -1.0815  1.2756
65933SOL    HW2 9779  12.788   5.696   1.622  0.6338  0.8456 -0.2078
65934SOL     OW 9780   9.442   2.775   0.017  0.5903 -0.2222  0.2121
65934SOL    HW1 9781   9.534   2.773   0.040  0.0503 -0.7591  2.5099
65934SOL    HW2 9782   9.431   2.703  -0.046  1.4869 -1.0054  0.9402
65935SOL     OW 9783   4.214   7.771  11.424  0.0863  0.5684  0.3211
65935SOL    HW1 9784   4.119   7.776  11.412  0.1049 -0.6925 -0.6332
65935SOL    HW2 9785   4.232   7.677  11.434  1.3903  0.6157 -1.1861
65936SOL     OW 9786   0.488   9.175   3.251 -0.4846  0.1526  0.0688
65936SOL    HW1 9787   0.515   9.102   3.194  0.0243 -0.5830  1.2269
65936SOL    HW2 9788   0.568   9.224   3.267 -0.5904  0.2538  0.2887
65937SOL     OW 9789   7.952  12.886   0.030 -0.2909 -0.8844  0.4184
65937SOL    HW1 9790   7.989  12.798   0.037 -2.2094 -1.8309 -0.6568
65937SOL    HW2 9791   7.977  12.916  -0.057  0.9151 -0.0474  1.0190
65938SOL     OW 9792   6.719   5.679   1.282  0.0668  0.1966 -0.2021
65938SOL    HW1 9793   6.795   5.732   1.255  0.1517 -0.5566 -1.5114
65938SOL    HW2 9794   6.657   5.687   1.210 -0.1558 -1.0117 -0.1617
65939SOL     OW 9795  10.672   2.452   4.546  0.0217  0.0511  0.1475
65939SOL    HW1 9796  10.597   2.459   4.604  0.4261 -0.4156  0.7373
65939SOL    HW2 9797  10.637   2.475   4.459 -0.5815  0.7523  0.5636
65940SOL     OW 9798   9.085   9.539  10.820  0.2800 -1.1049 -0.0396
65940SOL    HW1 9799   9.061   9.491  10.900  0.3501 -1.5252 -0.2675
65940SOL    HW2 9800   9.126   9.473  10.764 -0.4043 -0.9813 -0.7094
65941SOL     OW 9801   3.518  11.406   0.399  0.0675 -0.3378 -0.2405
65941SOL    HW1 9802   3.445  11.344   0.396  0.4754 -0.7918 -1.3146
65941SOL    HW2 9803   3.478  11.492   0.385 -0.3325 -0.5161 -0.2004
65942SOL     OW 9804  13.296   6.098   2.020  0.5631 -0.6739  0.0978
65942SOL    HW1 9805  13.257   6.175   2.062  0.1013 -0.9520  0.1833
65942SOL    HW2 9806  13.388   6.121   2.009  0.0686  0.7708 -1.7829
65943SOL     OW 9807   7.131   5.050  13.984 -0.7467  0.0538 -1.0768
65943SOL    HW1 9808   7.114   5.113  14.054 -1.9074 -0.2428 -1.0823
65943SOL    HW2 9809   7.048   5.004  13.972  0.1151 -1.6327 -0.9227
65944SOL     OW 9810   1.712   9.780   1.198 -0.2133 -0.1200  0.0547
65944SOL    HW1 9811   1.691   9.858   1.250 -2.7408 -1.4920  1.2864
65944SOL    HW2 9812   1.759   9.722   1.259  3.0953  0.8866 -1.2811
65945SOL     OW 9813   3.702   9.697   4.924  0.4663  0.2442  0.9237
65945SOL    HW1 9814   3.617   9.740   4.926  0.4975  0.3937  4.0578
65945SOL    HW2 9815   3.765   9.768   4.911  0.2145  0.3498  0.2597
65946SOL     OW 9816  13.598   2.146  12.078  0.0843  0.1375 -0.2109
65946SOL    HW1 9817  13.668   2.198  12.119 -0.0213  0.3254 -0.2714
65946SOL    HW2 9818  13.520   2.200  12.087 -0.1147 -0.1991  0.1181
65947SOL     OW 9819   2.134   9.190   3.364  0.4677 -0.7491  0.4557
65947SOL    HW1 9820   2.167   9.255   3.426 -2.7815  1.3211  0.2640
65947SOL    HW2 9821   2.179   9.209   3.282  2.0168 -1.0252  1.2121
65948SOL     OW 9822  11.681   8.252  11.724 -0.0938  0.2961 -0.6374
65948SOL    HW1 9823  11.595   8.229  11.690 -0.0329  0.6054 -1.0046
65948SOL    HW2 9824  11.677   8.347  11.739 -0.8016 -0.0728  2.1407
65949SOL     OW 9825   9.744  13.521  10.827 -0.4938 -0.1650  0.7966
65949SOL    HW1 9826   9.802  13.594  10.849  0.8674 -0.4542 -1.5316
65949SOL    HW2 9827   9.789  13.443  10.861 -0.2948 -0.2414  0.3575
65950SOL     OW 9828   1.571   2.795   1.981 -0.3352 -0.7867 -0.0589
65950SOL    HW1 9829   1.626   2.812   1.904  1.4462  1.3328  1.5485
65950SOL    HW2 9830   1.488   2.837   1.960  0.1085 -0.2585 -0.8549
65951SOL     OW 9831  11.377   1.932  11.873  0.4802 -0.5235 -0.4772
65951SOL    HW1 9832  11.470   1.912  11.865  0.6175 -0.1215  0.0240
65951SOL    HW2 9833  11.362   2.002  11.810  1.1400  1.3310  1.3196
65952SOL     OW 9834   5.007   8.711   1.024 -0.2556 -0.2777  0.6444
65952SOL    HW1 9835   5.046   8.626   1.004 -1.5512 -0.5670 -0.8229
65952SOL    HW2 9836   5.071   8.775   0.992  0.3774 -0.7063  1.0444
65953SOL     OW 9837  12.138   0.062   8.422  0.2288 -0.9187 -0.1198
65953SOL    HW1 9838  12.149   0.157   8.430 -1.3272 -0.2853 -3.5508
65953SOL    HW2 9839  12.219   0.025   8.458  1.1281  1.7183  0.7831
65954SOL     OW 9840  12.885   2.064  11.064 -0.0826  0.0361  0.6769
65954SOL    HW1 9841  12.902   1.971  11.050 -0.3574 -0.1727  1.6436
65954SOL    HW2 9842  12.831   2.090  10.989  0.3689 -0.4667  0.1664
65955SOL     OW 9843  10.700   2.615   8.042 -0.6606 -0.2161 -0.2287
65955SOL    HW1 9844  10.724   2.638   7.953  0.4700  0.0924  0.1415
65955SOL    HW2 9845  10.605   2.601   8.039 -0.8968  1.3970 -1.1320
65956SOL     OW 9846   0.091   6.723  12.537 -0.0938 -0.3934  0.5853
65956SOL    HW1 9847   0.076   6.631  12.560 -0.8607 -0.5498 -0.4699
65956SOL    HW2 9848   0.006   6.764  12.546 -0.1511 -0.1878 -0.6709
65957SOL     OW 9849  13.698   3.977  12.818  0.0688 -0.6655  0.1826
65957SOL    HW1 9850  13.774   3.928  12.851  2.3685  2.3538 -0.1967
65957SOL    HW2 9851  13.728   4.068  12.815 -2.8064  0.3576 -2.3008
65958SOL     OW 9852   5.946   7.743   7.614 -0.0838  0.1775  0.2203
65958SOL    HW1 9853   6.019   7.787   7.569  0.3693 -0.9854 -0.2397
65958SOL    HW2 9854   5.989   7.678   7.669 -0.7794 -0.5698 -0.1113
65959SOL     OW 9855  13.044   4.883  10.064  0.0107  0.1896 -0.3496
65959SOL    HW1 9856  12.955   4.889  10.099 -0.6155 -0.8065 -1.7115
65959SOL    HW2 9857  13.046   4.948   9.993  1.2997  2.2581  1.4377
65960SOL     OW 9858   3.082   0.366   2.882  0.0341 -0.3621  0.0967
65960SOL    HW1 9859   2.993   0.336   2.864 -0.5194  2.5260 -2.9801
65960SOL    HW2 9860   3.137   0.323   2.817  0.5245 -0.3997  0.5220
65961SOL     OW 9861   4.990   8.769  11.925 -0.2118 -0.2653 -0.1848
65961SOL    HW1 9862   4.941   8.701  11.878 -0.4860  0.8884 -1.6474
65961SOL    HW2 9863   5.065   8.788  11.869  0.4158 -0.0674  0.6973
65962SOL     OW 9864  12.579   0.294   8.581  0.3514 -0.2246  0.0856
65962SOL    HW1 9865  12.668   0.288   8.615  0.6471 -0.0545 -0.6386
65962SOL    HW2 9866  12.576   0.228   8.511 -0.1969 -0.4661  0.3353
65963SOL     OW 9867   2.468  11.815   9.088 -0.0817  0.6525  0.0022
65963SOL    HW1 9868   2.531  11.811   9.160 -0.4929  0.0049  0.3364
65963SOL    HW2 9869   2.398  11.755   9.114 -0.1726  0.3076 -0.9989
65964SOL     OW 9870   2.570   9.104   0.677 -0.0382 -0.9165 -0.0237
65964SOL    HW1 9871   2.637   9.141   0.618  1.7799 -0.6793  2.0548
65964SOL    HW2 9872   2.510   9.177   0.693  0.6876 -0.3267  0.1103
65965SOL     OW 9873  11.506   9.499   8.329  0.4001  0.1193 -0.5266
65965SOL    HW1 9874  11.548   9.463   8.408  1.7811 -0.3769 -1.4436
65965SOL    HW2 9875  11.529   9.438   8.260  0.5938  1.4010 -1.6293
65966SOL     OW 9876  11.490   2.252  13.479 -0.0127  0.2217  0.7454
65966SOL    HW1 9877  11.560   2.260  13.413 -0.8797  0.7389 -0.1481
65966SOL    HW2 9878  11.456   2.341  13.488 -2.0963 -0.3759 -0.6048
65967SOL     OW 9879   4.913  10.729   1.881  0.3745 -0.0858 -0.1503
65967SOL    HW1 9880   4.970  10.654   1.899  1.7934  1.1181  0.6390
65967SOL    HW2 9881   4.965  10.805   1.907 -1.5585  1.1049  0.4461
65968SOL     OW 9882   2.869  13.486  11.101  0.1747 -0.2201  0.0744
65968SOL    HW1 9883   2.915  13.463  11.021  1.0503  1.2510  0.1295
65968SOL    HW2 9884   2.807  13.553  11.075 -0.2344 -0.4499  0.4515
65969SOL     OW 9885   2.194  10.516   0.066  0.6724  0.2007 -0.1677
65969SOL    HW1 9886   2.129  10.572   0.024 -0.5812 -0.7723  0.4195
65969SOL    HW2 9887   2.211  10.557   0.151 -1.3238 -0.9845  0.8826
65970SOL     OW 9888   0.827   5.935  13.747 -0.6376 -1.0985  0.0485
65970SOL    HW1 9889   0.899   5.873  13.759  1.1862  1.0420  0.9242
65970SOL    HW2 9890   0.764   5.912  13.815  0.5645 -1.2542  1.1434
65971SOL     OW 9891   6.421   9.874  10.828 -0.0713  0.3240  0.1713
65971SOL    HW1 9892   6.457   9.962  10.811 -0.2272  0.4093  0.2731
65971SOL    HW2 9893   6.435   9.826  10.747  2.8153 -0.5295  1.0820
65972SOL     OW 9894   4.791   1.176   7.455  0.8162  0.2919 -0.3989
65972SOL    HW1 9895   4.695   1.179   7.460  0.7570 -1.8162  1.2070
65972SOL    HW2 9896   4.820   1.195   7.544  1.8631  0.1195 -0.6898
65973SOL     OW 9897   3.887   3.675   0.866  0.1825  0.3160 -0.0245
65973SOL    HW1 9898   3.831   3.619   0.920  2.1543 -1.1128  0.6683
65973SOL    HW2 9899   3.969   3.681   0.914  1.6727 -0.1294 -2.3352
65974SOL     OW 9900   0.858   7.326  10.704 -0.2339 -0.1457 -0.3349
65974SOL    HW1 9901   0.908   7.270  10.764  0.3908 -0.5321 -1.1879
65974SOL    HW2 9902   0.818   7.265  10.642 -0.7308  0.2555 -0.4082
65975SOL     OW 9903  10.548   0.015   8.499 -0.0168 -0.4360 -0.1173
65975SOL    HW1 9904  10.569  -0.075   8.526 -0.7378 -0.3622  0.7544
65975SOL    HW2 9905  10.452   0.021   8.508  0.0975  0.6654  0.6828
65976SOL     OW 9906   4.535  11.009  13.655  0.7299  0.2930 -0.2686
65976SOL    HW1 9907   4.539  11.030  13.748 -0.0848  1.3367 -0.4559
65976SOL    HW2 9908   4.498  11.087  13.614  0.9603 -0.2021 -1.4563
65977SOL     OW 9909  11.296  12.226  10.539  0.2804  0.0046 -0.2414
65977SOL    HW1 9910  11.285  12.304  10.594  0.5921 -0.1013 -0.0245
65977SOL    HW2 9911  11.247  12.246  10.459 -0.8824 -0.1974  0.4155
65978SOL     OW 9912  13.386   1.842   5.182  0.5369  0.3090  0.1906
65978SOL    HW1 9913  13.348   1.922   5.218  1.6451  0.4402  1.1109
65978SOL    HW2 9914  13.459   1.872   5.128  1.1992 -0.0890  0.8444
65979SOL     OW 9915  12.197  11.028   9.758 -0.1309  0.1637  0.0204
65979SOL    HW1 9916  12.236  11.087   9.694  1.5091 -0.7423  0.1466
65979SOL    HW2 9917  12.184  10.946   9.711 -1.3806  0.2602  0.1520
65980SOL     OW 9918   0.335   1.514   0.400 -0.2909  0.1606 -0.0420
65980SOL    HW1 9919   0.381   1.449   0.347  0.9601 -0.5829  1.8319
65980SOL    HW2 9920   0.269   1.551   0.341  1.0066 -0.5831 -2.0826
65981SOL     OW 9921   1.420  10.651   7.214 -0.1975  0.1682  0.0129
65981SOL    HW1 9922   1.459  10.695   7.138 -0.6918 -0.4020 -0.5764
65981SOL    HW2 9923   1.493  10.601   7.252 -0.5820 -1.8958 -1.8162
65982SOL     OW 9924   3.725   0.489   6.533  0.0549 -0.3471  0.3338
65982SOL    HW1 9925   3.771   0.420   6.580  0.5821  0.2982  0.7862
65982SOL    HW2 9926   3.788   0.561   6.528 -0.4135  0.0314 -0.3061
65983SOL     OW 9927  13.380   7.416  13.206 -0.7401  0.0452  0.5702
65983SOL    HW1 9928  13.365   7.480  13.136  0.0064  0.9057  1.1844
65983SOL    HW2 9929  13.387   7.332  13.160 -2.3741  0.2843 -0.1850
65984SOL     OW 9930   5.541   2.304   3.295  0.4091  0.0082 -0.2616
65984SOL    HW1 9931   5.448   2.326   3.287 -0.0369 -0.6829  2.0724
65984SOL    HW2 9932   5.587   2.377   3.253 -1.1700  0.9643 -0.4194
65985SOL     OW 9933   7.420   6.650  10.430 -0.1581  0.5971 -0.0087
65985SOL    HW1 9934   7.405   6.557  10.411  2.0291 -0.8672  4.1757
65985SOL    HW2 9935   7.338   6.680  10.470 -0.6272  0.2921 -0.7206
65986SOL     OW 9936   8.216  13.136   9.973 -0.2588 -0.7012 -0.2962
65986SOL    HW1 9937   8.154  13.197   9.934 -0.3587 -1.8351 -2.0246
65986SOL    HW2 9938   8.301  13.176   9.959 -0.3297 -0.8853 -1.3650
65987SOL     OW 9939   7.669   4.982  10.421  0.0710  0.0646  0.2413
65987SOL    HW1 9940   7.721   5.052  10.462 -0.6627  0.3579  0.6865
65987SOL    HW2 9941   7.713   4.901  10.446 -1.1242  0.1224  2.8330
65988SOL     OW 9942   5.599  10.793   2.042 -0.5564  0.1529 -0.4443
65988SOL    HW1 9943   5.523  10.848   2.061 -0.4485 -0.4173  2.0442
65988SOL    HW2 9944   5.674  10.854   2.047 -0.6016  0.1554  0.2956
65989SOL     OW 9945   3.250   3.831  13.093  0.2144  0.6112  0.2774
65989SOL    HW1 9946   3.167   3.879  13.087  0.9560  2.0082  0.6586
65989SOL    HW2 9947   3.276   3.817  13.002  0.0838  1.1400  0.1525
65990SOL     OW 9948   2.301   4.130  10.143 -0.1435  0.3081  0.1129
65990SOL    HW1 9949   2.234   4.168  10.086  0.3735 -0.2329 -0.8686
65990SOL    HW2 9950   2.261   4.130  10.230 -1.9364 -1.2383 -0.6663
65991SOL     OW 9951   0.341   0.104  13.556  0.6974  0.0577  0.0926
65991SOL    HW1 9952   0.271   0.104  13.622  0.6802 -0.1432  0.0749
65991SOL    HW2 9953   0.344   0.013  13.525  2.1835 -0.3634  1.3724
65992SOL     OW 9954   3.954   1.878   3.252 -0.3828 -0.2548 -0.0864
65992SOL    HW1 9955   3.942   1.784   3.245  0.0700 -0.1593 -3.2004
65992SOL    HW2 9956   3.886   1.916   3.196 -0.0390  1.2602  0.4621
65993SOL     OW 9957  11.547  11.980   3.430 -0.5619  0.0485 -0.5579
65993SOL    HW1 9958  11.463  12.022   3.446 -0.3480 -0.1239  1.2554
65993SOL    HW2 9959  11.612  12.049   3.443 -0.3420 -0.2002 -0.3304
65994SOL     OW 9960   2.253   5.360  11.604  0.1722  0.0093  0.0043
65994SOL    HW1 9961   2.214   5.283  11.645 -1.0654 -0.3726 -1.7859
65994SOL    HW2 9962   2.266   5.335  11.512  0.5402  1.6435 -0.4211
65995SOL     OW 9963   4.598   4.358  13.884  0.2979  0.1855  0.3752
65995SOL    HW1 9964   4.628   4.268  13.873 -1.1449 -0.1659 -1.0276
65995SOL    HW2 9965   4.539   4.355  13.959  0.2478 -0.0454  0.3273
65996SOL     OW 9966   6.496   3.549  10.043 -0.1251  0.2343  0.2732
65996SOL    HW1 9967   6.481   3.477  10.104 -0.1764 -0.3985 -0.4747
65996SOL    HW2 9968   6.441   3.620  10.077 -0.7591 -0.3612  0.5188
65997SOL     OW 9969   7.695   9.018  11.949 -0.0317 -0.1200 -0.2181
65997SOL    HW1 9970   7.653   9.099  11.977 -0.3990 -0.1453 -0.6797
65997SOL    HW2 9971   7.754   8.995  12.021 -1.4408 -0.5514  0.8393
65998SOL     OW 9972   0.776   1.723   9.849 -0.3304  0.2784  0.1445
65998SOL    HW1 9973   0.766   1.743   9.943 -1.0896  0.8007 -0.0306
65998SOL    HW2 9974   0.739   1.635   9.839  0.1381  0.0477  0.3989
65999SOL     OW 9975   7.757   7.515   2.678  0.5052 -0.1615  0.4813
65999SOL    HW1 9976   7.712   7.596   2.656  0.4937 -0.6458 -1.4043
65999SOL    HW2 9977   7.738   7.501   2.771 -2.0432  0.3739  0.0997
66000SOL     OW 9978   8.470   8.744  11.396 -0.0875 -0.4106  0.3075
66000SOL    HW1 9979   8.439   8.834  11.406  0.8011 -0.0208 -0.2294
66000SOL    HW2 9980   8.473   8.709  11.485 -0.2400  0.1616  0.5419
66001SOL     OW 9981   3.646   9.395   8.185 -0.1369 -0.6173 -0.3315
66001SOL    HW1 9982   3.724   9.348   8.214  0.5494  2.3759  3.4106
66001SOL    HW2 9983   3.678   9.482   8.160 -2.1929  0.7021  1.2917
66002SOL     OW 9984  11.765   3.948  11.657 -0.1850  0.1576 -0.0455
66002SOL    HW1 9985  11.691   3.999  11.692 -2.0174 -1.6760 -1.0903
66002SOL    HW2 9986  11.793   3.894  11.731 -1.2152 -0.5818 -0.1811
66003SOL     OW 9987   6.863   3.854  12.646  0.5470 -0.3503  0.6055
66003SOL    HW1 9988   6.954   3.827  12.661  0.6639 -0.7644 -0.7559
66003SOL    HW2 9989   6.849   3.840  12.553 -1.4106 -1.7364  1.0590
66004SOL     OW 9990  12.551   1.275   8.153  0.5682  0.6384 -0.1377
66004SOL    HW1 9991  12.640   1.303   8.131  1.0260  0.7394  1.6215
66004SOL    HW2 9992  12.536   1.313   8.240 -0.7662 -0.3126  0.0700
66005SOL     OW 9993   3.182   3.291   0.055  0.4796  0.2058 -0.5620
66005SOL    HW1 9994   3.241   3.363   0.079  0.9128  0.4666 -2.2667
66005SOL    HW2 9995   3.217   3.257  -0.027 -0.1592 -1.4822 -0.1847
66006SOL     OW 9996   4.101   2.673   3.709  0.6882  0.6577  0.4528
66006SOL    HW1 9997   4.071   2.762   3.723  2.7055  1.6255 -0.9688
66006SOL    HW2 9998   4.149   2.651   3.789  0.4195  0.9429  0.6941
66007SOL     OW 9999  13.758   3.713   9.574  0.5894 -0.0955 -0.2341
66007SOL    HW110000  13.775   3.739   9.664  1.1769 -0.2808 -0.2868
66007SOL    HW210001  13.707   3.785   9.537  0.2686 -0.0639  0.2749
66008SOL     OW10002   4.206   4.472   5.459  0.1177 -0.4222 -0.0959
66008SOL    HW110003   4.273   4.493   5.524  1.3685  0.5234 -1.6202
66008SOL    HW210004   4.162   4.556   5.442  1.0725 -0.1915 -1.7686
66009SOL     OW10005  12.711   7.171   3.824 -0.2921  0.9444 -0.7684
66009SOL    HW110006  12.741   7.200   3.910  1.3134  0.3523 -1.0854
66009SOL    HW210007  12.671   7.085   3.841 -0.4661  1.0658 -0.5500
66010SOL     OW10008  12.390   5.273   0.850 -0.5305  0.3009  0.5672
66010SOL    HW110009  12.437   5.299   0.929  0.8281  0.9301 -0.4060
66010SOL    HW210010  12.442   5.201   0.814 -1.0971  0.0632  0.2189
66011SOL     OW10011   4.563   2.732  13.216  0.3085  0.2958  0.1700
66011SOL    HW110012   4.635   2.769  13.267  0.4296 -0.4884  0.5764
66011SOL    HW210013   4.576   2.637  13.221 -0.1718  0.1828 -0.6038
66012SOL     OW10014  12.287   4.979   1.962 -0.0139  0.3453 -0.2108
66012SOL    HW110015  12.317   4.889   1.948 -2.2440 -0.5484  0.4183
66012SOL    HW210016  12.285   5.016   1.874  1.1077 -0.1225 -0.4611
66013SOL     OW10017   2.891   8.871   1.224 -0.3405 -0.5067  0.2730
66013SOL    HW110018   2.919   8.961   1.206  1.7833 -1.2670 -0.5547
66013SOL    HW210019   2.815   8.858   1.168 -0.8674  0.8551  0.6326
66014SOL     OW10020  13.294   5.790  13.885 -0.3239  0.0030 -0.3437
66014SOL    HW110021  13.253   5.794  13.798 -1.5630  0.4965  0.2505
66014SOL    HW210022  13.225   5.815  13.946  0.0106 -2.0114  0.9683
66015SOL     OW10023   5.006   3.709   3.802 -0.1345  0.1033  0.0485
66015SOL    HW110024   4.989   3.803   3.811  0.0516 -0.0107  2.2375
66015SOL    HW210025   5.097   3.705   3.772 -0.8168  0.5864 -2.3241
66016SOL     OW10026  13.996  11.891   7.036 -0.5128  0.2923  0.7892
66016SOL    HW110027  13.995  11.795   7.036 -0.5417  0.2851 -0.1579
66016SOL    HW210028  14.014  11.915   6.945  1.9218  1.1509  1.4127
66017SOL     OW10029  12.387  10.208  12.796  0.4970  0.0307  0.0788
66017SOL    HW110030  12.361  10.289  12.753  2.2128  0.9422  0.6673
66017SOL    HW210031  12.337  10.207  12.878  0.7830  0.7413  0.2723
66018SOL     OW10032   7.252   0.557   8.842 -0.2551 -0.0991 -0.3075
66018SOL    HW110033   7.306   0.609   8.784  0.4697 -2.1979 -1.6231
66018SOL    HW210034   7.202   0.621   8.893  0.8938  1.8300 -1.5030
66019SOL     OW10035  11.425   5.303   9.604  0.3339  1.3396  0.5290
66019SOL    HW110036  11.451   5.386   9.643  0.5401  1.1807  0.7304
66019SOL    HW210037  11.330   5.309   9.595  0.1739  1.0650  1.8027
66020SOL     OW10038  12.299  11.026   6.411 -0.5388  0.3124  0.1575
66020SOL    HW110039  12.348  10.961   6.461 -0.7161 -0.2874 -0.4343
66020SOL    HW210040  12.270  10.979   6.333 -2.9065  0.3599  0.9367
66021SOL     OW10041   9.001   7.384   6.267  0.4503 -0.5109 -0.2319
66021SOL    HW110042   8.935   7.448   6.293  1.3262 -0.8258  3.2247
66021SOL    HW210043   8.950   7.309   6.234 -0.7820  0.1310  0.1671
66022SOL     OW10044   6.964   4.936   5.848 -0.2289  0.6136  0.1154
66022SOL    HW110045   7.030   4.906   5.910 -0.6470  0.9813  0.7624
66022SOL    HW210046   6.901   4.984   5.903 -2.0409 -1.3096 -0.1768
66023SOL     OW10047   6.831   5.058   8.219  0.1104 -0.2405  0.0184
66023SOL    HW110048   6.881   5.127   8.263  1.7062 -0.9565 -0.5762
66023SOL    HW210049   6.867   5.055   8.130 -1.6017 -0.2320 -0.7204
66024SOL     OW10050   3.791   5.478   2.208 -1.0621 -0.2339  0.0990
66024SOL    HW110051   3.821   5.509   2.123  0.9856 -1.0587  0.4446
66024SOL    HW210052   3.871   5.446   2.251 -2.4323 -2.2567  1.2935
66025SOL     OW10053   0.739  13.199   0.427 -0.0565 -0.9408  0.3337
66025SOL    HW110054   0.697  13.285   0.434 -0.6293 -1.2196  0.3914
66025SOL    HW210055   0.770  13.195   0.336 -0.2225 -0.7611  0.2684
66026SOL     OW10056   6.059   4.707   2.349 -0.3223 -0.3757  0.3139
66026SOL    HW110057   6.105   4.742   2.425  0.7145 -0.3632 -0.3057
66026SOL    HW210058   6.011   4.782   2.313  0.5408  0.0122 -0.0309
66027SOL     OW10059   4.821   9.820   3.974 -0.4242  0.4726 -0.0040
66027SOL    HW110060   4.755   9.757   3.946  0.8507 -0.5437 -0.8302
66027SOL    HW210061   4.870   9.774   4.042 -0.3449  1.0940  0.3676
66028SOL     OW10062   5.373   1.096  13.545  0.6601  0.5930  0.1155
66028SOL    HW110063   5.296   1.068  13.594  0.7302 -1.1776 -0.7230
66028SOL    HW210064   5.365   1.052  13.461  2.2017  1.0154 -0.2808
66029SOL     OW10065   3.290   2.808   5.570 -0.2542 -0.5794  0.0253
66029SOL    HW110066   3.224   2.739   5.566  1.4760 -2.3189  0.3293
66029SOL    HW210067   3.321   2.807   5.660 -2.5535  3.0296  1.0934
66030SOL     OW10068  11.114   0.178   0.813  0.6166 -0.3788  0.0445
66030SOL    HW110069  11.204   0.146   0.823  0.9152  0.1954 -0.6923
66030SOL    HW210070  11.071   0.157   0.896  1.5132 -0.4101  0.5107
66031SOL     OW10071  12.452   7.499  11.978 -0.6419 -0.1256  0.3455
66031SOL    HW110072  12.426   7.415  12.014 -1.3515  0.1287  0.4357
66031SOL    HW210073  12.445   7.560  12.052 -0.1485  0.0206  0.2781
66032SOL     OW10074  12.246   9.402   8.100  0.1841  0.5304  0.2153
66032SOL    HW110075  12.162   9.396   8.145  0.2985  1.0357  0.5082
66032SOL    HW210076  12.281   9.488   8.126  1.6248 -0.3991  1.5273
66033SOL     OW10077  12.252   1.271   3.845 -0.3905  0.0751 -0.1520
66033SOL    HW110078  12.285   1.182   3.856 -0.4006 -0.0986 -1.4167
66033SOL    HW210079  12.265   1.291   3.752 -0.2513  1.4531  0.1425
66034SOL     OW10080   0.355  13.068   7.148 -0.0898 -0.5382 -0.4123
66034SOL    HW110081   0.354  13.068   7.244 -0.0420 -0.4470 -0.4110
66034SOL    HW210082   0.352  13.161   7.124 -0.6745 -0.5757 -0.5074
66035SOL     OW10083   3.421   8.529  11.465  0.0536 -0.4126  0.1242
66035SOL    HW110084   3.516   8.517  11.462 -0.1078 -1.8302 -2.7951
66035SOL    HW210085   3.395   8.540  11.373 -2.5245  1.0673  0.9125
66036SOL     OW10086   4.634   0.145  10.808 -0.4783  0.8963 -0.5019
66036SOL    HW110087   4.648   0.092  10.887 -1.7705 -0.2184 -0.9883
66036SOL    HW210088   4.632   0.235  10.840 -3.0859  0.3661  1.1269
66037SOL     OW10089   6.600   1.180  10.233  0.1012 -0.3002 -0.2434
66037SOL    HW110090   6.681   1.226  10.256 -0.1409  0.3343 -0.6333
66037SOL    HW210091   6.535   1.212  10.296 -0.3362  0.7521 -1.1782
66038SOL     OW10092   6.235   3.804  13.391 -0.3866 -0.0865 -0.1986
66038SOL    HW110093   6.176   3.877  13.410  0.7613  0.8590 -0.1377
66038SOL    HW210094   6.234   3.750  13.471 -1.1247 -0.0595 -0.1892
66039SOL     OW10095   4.764  13.910  10.417 -0.0720  0.2683  0.1565
66039SOL    HW110096   4.689  13.968  10.427  0.2508  0.5659  0.9788
66039SOL    HW210097   4.751  13.842  10.483  0.6165  0.5965  0.6437
66040SOL     OW10098   5.322   9.595  12.316  0.1682 -0.0032 -0.4024
66040SOL    HW110099   5.294   9.520  12.370 -0.7399  0.3696 -0.3414
66040SOL    HW210100   5.271   9.669  12.349  1.0222  0.6467 -0.4982
66041SOL     OW10101   6.701  10.624   5.895 -0.5358  0.1943  0.0994
66041SOL    HW110102   6.700  10.553   5.831 -0.2411  0.1914  0.0925
66041SOL    HW210103   6.641  10.596   5.964 -0.0890 -0.2706  0.3126
66042SOL     OW10104  10.604   7.995   5.362  0.0130 -0.1378  0.1843
66042SOL    HW110105  10.669   7.968   5.427 -0.9010  2.0900  2.1349
66042SOL    HW210106  10.531   7.934   5.375  0.0953 -0.1111  0.8142
66043SOL     OW10107  10.536  10.026  11.915  0.3007  0.4179 -0.4678
66043SOL    HW110108  10.468  10.067  11.968  0.1950 -3.2907  2.7900
66043SOL    HW210109  10.491   9.954  11.871  1.4844  0.0611 -1.1169
66044SOL     OW10110   0.544   1.521   4.378  0.2783  1.2405  0.0768
66044SOL    HW110111   0.548   1.429   4.349 -0.3906  1.3351 -0.3415
66044SOL    HW210112   0.635   1.551   4.374  0.5261  0.5476  0.3788
66045SOL     OW10113  13.405   2.406  13.099  0.1826  0.4207  0.1125
66045SOL    HW110114  13.318   2.369  13.111  0.0548  0.3490 -0.9696
66045SOL    HW210115  13.425   2.391  13.007  1.8363 -0.6135  0.6153
66046SOL     OW10116   2.945  11.071   3.992  0.2432 -0.1140  0.0891
66046SOL    HW110117   2.869  11.111   4.035  1.0904  2.6832 -0.7740
66046SOL    HW210118   2.932  11.089   3.899  1.4067 -0.5816 -0.1778
66047SOL     OW10119  12.194  10.901   4.803  0.1885  0.5326 -0.1102
66047SOL    HW110120  12.198  10.828   4.864 -1.9367  1.0809  0.7849
66047SOL    HW210121  12.253  10.876   4.731  0.2402 -1.6142  0.6055
66048SOL     OW10122   2.214   2.198  10.171  0.0664  0.0859 -0.2514
66048SOL    HW110123   2.142   2.236  10.221  0.0704  0.4522 -0.5262
66048SOL    HW210124   2.248   2.270  10.118 -0.2294 -0.4137 -1.1280
66049SOL     OW10125   9.561   4.420  13.507  0.2866  0.3248  0.4354
66049SOL    HW110126   9.480   4.369  13.500 -0.5178  1.6340 -0.2376
66049SOL    HW210127   9.631   4.358  13.486 -0.5305 -0.8550  1.1272
66050SOL     OW10128   0.208  13.228  11.050 -0.1007 -1.2480 -0.5410
66050SOL    HW110129   0.133  13.266  11.005  0.7142 -0.5518 -1.3419
66050SOL    HW210130   0.249  13.171  10.986  1.1283 -0.1660 -0.7755
66051SOL     OW10131  13.160   0.025   1.721 -0.4087 -0.6950 -0.3308
66051SOL    HW110132  13.068   0.048   1.712 -0.3112  0.5632  1.3433
66051SOL    HW210133  13.202   0.105   1.752  1.3924 -1.0509 -1.7172
66052SOL     OW10134   8.827   5.982   8.857  0.2984  0.1679 -0.3057
66052SOL    HW110135   8.736   6.007   8.840 -0.4868 -1.1010  1.7525
66052SOL    HW210136   8.846   5.915   8.791 -0.5204 -0.1114 -0.2628
66053SOL     OW10137   4.592   4.288   0.497 -0.3860  0.0019  0.1842
66053SOL    HW110138   4.580   4.239   0.416 -2.0044 -0.5680  0.7140
66053SOL    HW210139   4.508   4.279   0.542  0.0800  1.3112  1.3768
66054SOL     OW10140   3.172   2.032   6.527  0.0652 -0.5824  0.0100
66054SOL    HW110141   3.126   2.075   6.455 -0.9086  0.4539  1.2102
66054SOL    HW210142   3.248   1.990   6.486 -0.9959 -0.8736 -1.7671
66055SOL     OW10143   2.443  12.210   1.347 -0.8166  0.1355  0.6343
66055SOL    HW110144   2.371  12.233   1.406 -0.8215 -1.5612  1.3455
66055SOL    HW210145   2.483  12.133   1.388 -0.3946 -0.6931 -1.2457
66056SOL     OW10146  11.168   4.642   5.416 -0.7266  0.6771  0.4397
66056SOL    HW110147  11.138   4.672   5.330  0.3140 -0.8408 -0.5117
66056SOL    HW210148  11.090   4.605   5.457 -0.6464 -1.5521 -1.2341
66057SOL     OW10149   2.674   5.697   4.542  0.2513 -0.7667  0.0651
66057SOL    HW110150   2.631   5.773   4.504 -1.1368 -1.1014  0.9129
66057SOL    HW210151   2.753   5.686   4.489 -1.2498 -0.8291 -2.2994
66058SOL     OW10152  13.046   5.310   9.614  0.6123 -0.3655 -0.1412
66058SOL    HW110153  13.137   5.284   9.624  0.5238 -0.3880  0.6741
66058SOL    HW210154  13.037   5.333   9.521  1.7957  0.9288  0.0278
66059SOL     OW10155   3.630   4.594   9.323  0.1898 -0.0172 -0.0097
66059SOL    HW110156   3.627   4.656   9.250 -0.2014  0.9001  0.7658
66059SOL    HW210157   3.611   4.647   9.401 -3.6282 -1.5882  0.3772
66060SOL     OW10158  12.822  13.042   8.562  0.4615 -0.1867  0.0916
66060SOL    HW110159  12.858  13.131   8.561 -0.7756  0.3345 -0.4044
66060SOL    HW210160  12.859  13.000   8.485  1.7453 -0.4099  0.8019
66061SOL     OW10161   4.665   4.122   8.398  0.3086 -0.5593 -0.5065
66061SOL    HW110162   4.596   4.176   8.437  0.0921 -0.3408 -1.1814
66061SOL    HW210163   4.733   4.118   8.466  0.2725  0.4581 -0.3840
66062SOL     OW10164  11.671   0.047   2.927  0.5526 -0.0762 -0.0395
66062SOL    HW110165  11.646   0.104   2.854 -1.1967  0.2085  0.7280
66062SOL    HW210166  11.660   0.101   3.005  1.1305 -0.7702  0.5365
66063SOL     OW10167   4.535  10.281  12.395  0.2455  0.2067 -0.0151
66063SOL    HW110168   4.531  10.309  12.487 -1.0887  0.4496 -0.1187
66063SOL    HW210169   4.628  10.274  12.376  0.6165  2.6254  0.6223
66064SOL     OW10170  13.564   8.985  11.178  0.4009  0.5107  0.3630
66064SOL    HW110171  13.604   9.054  11.230 -1.2261 -0.0005  2.4291
66064SOL    HW210172  13.593   8.904  11.219  0.7532 -0.0191 -0.8606
66065SOL     OW10173   1.063   3.035   5.100  0.3777 -0.3071  0.0681
66065SOL    HW110174   1.000   2.973   5.065 -2.9077  1.7796  1.8171
66065SOL    HW210175   1.116   2.984   5.161 -0.9909 -1.7420  0.1038
66066SOL     OW10176   7.202  13.572  11.250  0.1216 -0.0966 -0.2020
66066SOL    HW110177   7.106  13.565  11.254 -0.0969  2.2918  0.3527
66066SOL    HW210178   7.218  13.635  11.179  1.1734  0.7032  0.7185
66067SOL     OW10179   0.949   4.738   9.185 -0.0999 -0.7331 -0.1552
66067SOL    HW110180   0.892   4.720   9.111 -0.9810  1.6965 -0.1872
66067SOL    HW210181   1.022   4.788   9.148 -0.1861 -0.1127  0.4788
66068SOL     OW10182  11.271   9.347   1.129 -0.0083  0.5454 -0.3659
66068SOL    HW110183  11.285   9.263   1.085  3.4573  1.0125 -0.3922
66068SOL    HW210184  11.251   9.324   1.219 -0.0176 -0.3271 -0.5799
66069SOL     OW10185  13.744  10.446   0.774  0.5114 -0.1208  0.1827
66069SOL    HW110186  13.804  10.509   0.815 -0.8281  1.4796 -0.2383
66069SOL    HW210187  13.679  10.427   0.842  2.0977 -2.9113  1.1256
66070SOL     OW10188   0.444  11.340   1.237 -0.1760 -0.2182  0.0898
66070SOL    HW110189   0.489  11.409   1.285  0.3339  0.4606 -1.2857
66070SOL    HW210190   0.363  11.381   1.207  0.1782 -0.1444 -0.8231
66071SOL     OW10191   5.156   4.965   3.275 -0.4120  0.2974  0.0120
66071SOL    HW110192   5.128   4.986   3.186 -0.2219  0.9760  0.1076
66071SOL    HW210193   5.082   4.994   3.330 -0.8212 -0.7439  0.0285
66072SOL     OW10194  11.700  10.819  13.615  0.1110  0.1713  0.6305
66072SOL    HW110195  11.754  10.805  13.537 -1.2507  0.5133 -0.4053
66072SOL    HW210196  11.749  10.883  13.667  0.8532  0.2319 -0.1234
66073SOL     OW10197  12.554  11.878   2.523  0.4986 -0.1173  0.5053
66073SOL    HW110198  12.530  11.947   2.461 -2.1062  0.2200  1.7322
66073SOL    HW210199  12.569  11.925   2.605 -0.1774 -0.8982  1.0890
66074SOL     OW10200   5.523   1.835   3.005 -0.0189 -0.3855  0.0569
66074SOL    HW110201   5.506   1.911   3.061  1.4712 -2.2519  3.2892
66074SOL    HW210202   5.610   1.804   3.032 -0.5373 -3.2086 -1.1692
66075SOL     OW10203   9.513   2.553  12.524 -0.4098 -0.4084  0.5047
66075SOL    HW110204   9.576   2.552  12.597  0.6807  0.7362 -0.3656
66075SOL    HW210205   9.568   2.542  12.446 -1.0504  2.2604 -0.4054
66076SOL     OW10206   6.718   7.228  10.622 -0.2311  0.5345 -0.2439
66076SOL    HW110207   6.814   7.233  10.618 -0.2272 -0.0927 -1.1241
66076SOL    HW210208   6.696   7.150  10.572 -1.2661  1.2377 -0.9230
66077SOL     OW10209   2.395  12.634   2.901  0.3638 -0.3866  0.5524
66077SOL    HW110210   2.398  12.718   2.947  0.2167  0.7909 -1.4790
66077SOL    HW210211   2.442  12.649   2.819 -0.2283 -2.1076 -0.1622
66078SOL     OW10212   5.053   5.284  11.660  0.0318  0.1638  0.1270
66078SOL    HW110213   5.134   5.250  11.698 -0.2142  0.2153  0.7000
66078SOL    HW210214   5.055   5.378  11.679 -0.4245  0.0768  0.6379
66079SOL     OW10215  12.022   9.303   7.036 -0.0868 -0.3301  0.4162
66079SOL    HW110216  12.041   9.305   6.943 -0.5099 -0.8239  0.3139
66079SOL    HW210217  11.929   9.281   7.041 -0.4028  1.0308  0.9261
66080SOL     OW10218   1.418   7.771   5.413 -0.3282 -0.0600 -0.1777
66080SOL    HW110219   1.395   7.786   5.322 -0.3945 -1.1284 -0.3430
66080SOL    HW210220   1.513   7.783   5.416 -0.4614  1.1242 -0.1386
66081SOL     OW10221   6.321   2.335   0.839  0.4480  0.5761 -0.0584
66081SOL    HW110222   6.325   2.285   0.758  0.9104 -0.1800  0.4138
66081SOL    HW210223   6.413   2.356   0.858  0.3069  1.1001  0.0608
66082SOL     OW10224  10.933   7.172   2.895 -0.0985 -0.3550 -0.1504
66082SOL    HW110225  11.008   7.230   2.912  0.0843 -0.8493  0.7845
66082SOL    HW210226  10.969   7.104   2.838  1.4748 -3.1176  3.6994
66083SOL     OW10227   6.115   9.311   4.558  0.9617  0.5832 -0.2643
66083SOL    HW110228   6.070   9.370   4.619 -2.1620  0.4919 -2.2499
66083SOL    HW210229   6.167   9.254   4.614 -1.1619  0.9345  2.2858
66084SOL     OW10230   3.913   0.491   5.357 -0.2466 -0.9023 -0.4002
66084SOL    HW110231   3.899   0.497   5.451 -0.6376 -0.0428 -0.5078
66084SOL    HW210232   3.928   0.581   5.328  0.3005 -1.2029 -1.0979
66085SOL     OW10233  12.103   8.327   5.990 -0.2853  0.2771  0.0045
66085SOL    HW110234  12.162   8.325   6.065 -0.0978 -2.3479 -0.1326
66085SOL    HW210235  12.160   8.315   5.914 -0.8167 -1.0478 -0.2164
66086SOL     OW10236  12.632   7.920   1.783  0.2450  0.2213 -0.1023
66086SOL    HW110237  12.726   7.936   1.782  0.3933 -0.5931 -0.6419
66086SOL    HW210238  12.593   8.003   1.810  1.1951  0.1322  1.6953
66087SOL     OW10239   4.444  11.750   5.918 -0.4599 -0.5699 -0.2020
66087SOL    HW110240   4.404  11.702   5.991 -0.9033 -0.1721 -0.1810
66087SOL    HW210241   4.419  11.700   5.840 -1.1184 -0.2471 -0.2016
66088SOL     OW10242   4.298   2.250  14.040 -0.4611  0.0720  0.5882
66088SOL    HW110243   4.335   2.332  14.073 -0.2749  0.0505  0.4346
66088SOL    HW210244   4.334   2.183  14.097  0.7863 -0.0938 -0.3587
66089SOL     OW10245   6.143   0.516   4.183  0.1090 -0.2127 -0.4467
66089SOL    HW110246   6.056   0.555   4.173 -0.1739 -0.8767 -0.6033
66089SOL    HW210247   6.176   0.511   4.093 -0.4430 -1.6438 -0.6006
66090SOL     OW10248   9.015  10.852   2.545 -0.0121 -0.2640 -0.4575
66090SOL    HW110249   8.980  10.873   2.631 -1.1018 -4.4783  0.3766
66090SOL    HW210250   8.938  10.842   2.489  0.4970 -0.2300 -1.1824
66091SOL     OW10251  11.359   4.195   0.183 -0.1689 -0.3928 -0.0092
66091SOL    HW110252  11.453   4.197   0.197 -0.1231 -0.4025 -0.3141
66091SOL    HW210253  11.321   4.203   0.271  0.1154 -0.5087  0.1237
66092SOL     OW10254  12.518   8.664  13.033  0.6749  0.3362  0.5428
66092SOL    HW110255  12.432   8.638  13.065 -1.3228  0.2963 -4.0747
66092SOL    HW210256  12.512   8.759  13.022  0.1088  0.0381 -2.3091
66093SOL     OW10257   3.375  12.648   4.119 -0.2044 -0.8096 -0.0214
66093SOL    HW110258   3.422  12.580   4.167  0.3266 -0.4226  0.0140
66093SOL    HW210259   3.360  12.717   4.184  0.5511 -0.2658 -0.4182
66094SOL     OW10260   8.654   5.426   3.187 -0.1813  0.0317 -0.4933
66094SOL    HW110261   8.738   5.415   3.143 -0.3602 -2.0040 -0.4328
66094SOL    HW210262   8.590   5.389   3.126 -0.5989 -1.5311  0.8021
66095SOL     OW10263  12.741   5.442  11.326  0.1616 -0.2983 -1.2046
66095SOL    HW110264  12.833   5.461  11.345 -0.4490  1.3011  0.4260
66095SOL    HW210265  12.704   5.526  11.299 -1.3738 -0.2875  0.7190
66096SOL     OW10266   9.390   6.399  11.618 -0.3411  0.5285  0.2005
66096SOL    HW110267   9.437   6.469  11.662  1.8313 -0.4106 -0.4536
66096SOL    HW210268   9.386   6.427  11.526 -0.9985  0.5496  0.2309
66097SOL     OW10269  12.406  12.207   2.551  0.3328  0.0251 -0.1852
66097SOL    HW110270  12.480  12.192   2.609  1.9615  0.7591 -1.9787
66097SOL    HW210271  12.427  12.159   2.471  0.6084  2.9524 -2.0297
66098SOL     OW10272  12.077  11.927  10.564  0.0741  0.0803 -0.1428
66098SOL    HW110273  12.115  11.906  10.478  2.0151 -0.3314  0.7728
66098SOL    HW210274  12.022  12.004  10.547 -3.5389 -2.7017 -2.6650
66099SOL     OW10275   2.766   9.352   7.654 -0.2446  0.2661  0.2455
66099SOL    HW110276   2.672   9.370   7.656 -0.6509 -1.2961 -1.7045
66099SOL    HW210277   2.778   9.281   7.718 -1.1740 -2.2468 -2.1522
66100SOL     OW10278  10.089   4.819   0.182 -0.1753  0.2382  0.7021
66100SOL    HW110279  10.073   4.775   0.266 -1.7481 -0.6206 -0.0112
66100SOL    HW210280  10.142   4.756   0.132  0.0129  0.3789  0.7229
66101SOL     OW10281   2.278  12.679  12.565  1.2752 -0.2723 -0.5418
66101SOL    HW110282   2.278  12.585  12.550  0.8120 -0.1260 -1.5464
66101SOL    HW210283   2.201  12.711  12.519  0.6062  0.4305  0.9885
66102SOL     OW10284   3.138   4.857   6.618  0.3204 -0.1999 -0.5604
66102SOL    HW110285   3.119   4.883   6.528  2.3381  1.0274 -0.6838
66102SOL    HW210286   3.071   4.900   6.671 -1.1233 -1.2484 -1.4529
66103SOL     OW10287   3.137   4.674   9.855 -0.4326 -0.1093 -0.2725
66103SOL    HW110288   3.046   4.647   9.839 -0.6342 -0.6766  1.5406
66103SOL    HW210289   3.146   4.670   9.950  0.9526  1.7868 -0.2715
66104SOL     OW10290   5.199   6.235  10.719 -0.2161 -0.0954  0.2868
66104SOL    HW110291   5.245   6.264  10.640  0.7440 -2.2674 -0.0257
66104SOL    HW210292   5.122   6.291  10.724  0.1164  0.6177 -1.7546
66105SOL     OW10293   9.115   1.567   5.642 -0.7529 -0.2758 -0.8941
66105SOL    HW110294   9.088   1.589   5.553 -1.0894  0.4889 -0.6147
66105SOL    HW210295   9.124   1.652   5.686 -1.2305 -0.6569 -0.0228
66106SOL     OW10296   4.427  13.842  10.278 -0.1092  0.2922  0.3419
66106SOL    HW110297   4.494  13.774  10.276 -0.4919 -0.1096  0.9621
66106SOL    HW210298   4.451  13.898  10.351  0.9634  1.6295 -0.9754
66107SOL     OW10299   6.900   1.276  10.226  0.3716  0.5341 -0.1621
66107SOL    HW110300   6.902   1.228  10.144 -2.0588 -0.9639  0.5252
66107SOL    HW210301   6.937   1.362  10.206  2.7380 -0.8162 -2.0041
66108SOL     OW10302  10.637  12.968   0.908  0.1509 -0.2991  0.0357
66108SOL    HW110303  10.614  13.060   0.894  0.3666 -0.5155 -1.9860
66108SOL    HW210304  10.555  12.926   0.934 -0.2301  0.2326 -0.2843
66109SOL     OW10305   1.614   0.758   8.561 -0.3506  0.6738 -0.0944
66109SOL    HW110306   1.668   0.680   8.548 -0.1372  0.3610  2.1900
66109SOL    HW210307   1.562   0.765   8.482 -0.9183 -2.2433 -0.0868
66110SOL     OW10308   8.762   0.600   3.916  0.5411 -0.3463 -0.0576
66110SOL    HW110309   8.751   0.677   3.861  0.7521  0.6401  1.2395
66110SOL    HW210310   8.714   0.621   3.997  2.3235 -0.6852  1.1444
66111SOL     OW10311  10.673   6.769   4.625 -0.3489  0.0005  0.0863
66111SOL    HW110312  10.704   6.803   4.709 -0.9988  0.7485  0.0281
66111SOL    HW210313  10.704   6.832   4.561 -1.2587  0.3034 -0.0599
66112SOL     OW10314   9.045   7.637   5.941 -0.2427  0.4393  0.3683
66112SOL    HW110315   9.087   7.559   5.977 -0.6898 -0.0469 -0.1370
66112SOL    HW210316   8.953   7.629   5.966 -0.0689  1.4309  1.3571
66113SOL     OW10317   1.556  12.098  11.195 -0.0648  0.2016  0.3182
66113SOL    HW110318   1.551  12.041  11.119 -0.5217  1.4456 -0.6191
66113SOL    HW210319   1.517  12.047  11.266  1.2082 -1.3340 -0.0263
66114SOL     OW10320   4.854   0.956   2.750  0.5878 -0.6055 -0.5203
66114SOL    HW110321   4.920   1.014   2.710  0.8946 -0.7807 -0.2702
66114SOL    HW210322   4.884   0.868   2.729  0.7740 -0.7032  0.1185
66115SOL     OW10323  12.926  13.000  10.153  0.4189 -0.2194  0.8071
66115SOL    HW110324  12.956  13.084  10.119  0.2580 -0.6032 -0.3005
66115SOL    HW210325  12.984  12.983  10.228  0.5556  0.7860  0.9419
66116SOL     OW10326  13.742   2.817  10.991  0.1068  0.0156 -0.2912
66116SOL    HW110327  13.723   2.863  10.909 -0.9040  1.6466  0.8204
66116SOL    HW210328  13.804   2.873  11.036  2.0057 -1.7063 -0.6253
66117SOL     OW10329  12.517   6.408   9.072  0.0617 -0.7217  0.1482
66117SOL    HW110330  12.590   6.349   9.054  1.0916  0.1538  1.2610
66117SOL    HW210331  12.444   6.373   9.021  1.4356 -1.2212 -1.5379
66118SOL     OW10332   9.343   6.551  12.404 -0.1912  0.0761  1.1724
66118SOL    HW110333   9.332   6.544  12.499 -1.8287 -1.0873  0.9519
66118SOL    HW210334   9.277   6.615  12.377 -0.7781 -0.7192  0.6783
66119SOL     OW10335  10.863   5.667  11.947  0.3699  0.2198 -0.2554
66119SOL    HW110336  10.870   5.705  12.035  0.3484 -0.9589  0.2790
66119SOL    HW210337  10.907   5.583  11.954 -0.5930 -0.3681 -1.0765
66120SOL     OW10338   4.607   1.267  10.862  0.9002  0.4425 -0.2536
66120SOL    HW110339   4.588   1.328  10.791  0.3648  1.0795  0.4193
66120SOL    HW210340   4.628   1.184  10.819 -1.2341  0.3010 -1.1099
66121SOL     OW10341   1.326  12.288   8.527 -0.2252 -0.9652  0.3941
66121SOL    HW110342   1.382  12.346   8.476 -1.0444  0.5642  1.1739
66121SOL    HW210343   1.291  12.226   8.463  0.4431 -0.4189 -0.5224
66122SOL     OW10344   5.686   3.646   5.841 -0.2170  0.2004  0.3336
66122SOL    HW110345   5.651   3.638   5.930 -0.9545  0.2234  0.0582
66122SOL    HW210346   5.747   3.719   5.845 -0.1801  0.1445  0.8433
66123SOL     OW10347  12.048  11.898   6.201  0.6202  0.0695 -0.5622
66123SOL    HW110348  12.084  11.924   6.117  0.9750  1.6040  0.0301
66123SOL    HW210349  12.065  11.804   6.207  0.5880 -0.0589 -2.1771
66124SOL     OW10350  10.350  13.124  13.850  0.5757  0.2355 -0.0351
66124SOL    HW110351  10.423  13.092  13.903  0.9735 -0.2549 -0.8673
66124SOL    HW210352  10.376  13.213  13.825 -0.0289  0.8335  1.3331
66125SOL     OW10353   7.900   8.227   0.233  0.6995 -0.1256  0.6439
66125SOL    HW110354   7.880   8.181   0.151  1.7448  0.4283  0.0503
66125SOL    HW210355   7.819   8.225   0.283 -0.4238  0.8646 -1.0549
66126SOL     OW10356   4.872   9.279   0.782 -0.4919  0.2405 -0.0220
66126SOL    HW110357   4.843   9.255   0.694 -2.2828  2.0593 -0.0152
66126SOL    HW210358   4.958   9.318   0.769  0.5309 -1.9798 -0.5410
66127SOL     OW10359   3.072   0.423   1.712  0.0748  0.0407  0.4693
66127SOL    HW110360   3.027   0.489   1.659 -0.2821  0.6707  1.5344
66127SOL    HW210361   3.136   0.384   1.652 -0.0283  1.0289 -0.3061
66128SOL     OW10362   3.210   1.745   3.197  0.2320  0.2086  0.4316
66128SOL    HW110363   3.275   1.687   3.157 -1.7227 -0.9411 -1.2759
66128SOL    HW210364   3.181   1.697   3.275  0.8432  0.3643  0.7617
66129SOL     OW10365   0.190   2.268   3.440  0.1963  0.5745 -0.3710
66129SOL    HW110366   0.138   2.284   3.519 -0.0000 -0.6282 -0.2427
66129SOL    HW210367   0.275   2.307   3.459  1.0925 -2.0491  1.5982
66130SOL     OW10368  13.524   5.126   7.764  0.3271 -0.1206  0.3100
66130SOL    HW110369  13.452   5.066   7.782 -0.5047  0.0336 -2.2089
66130SOL    HW210370  13.524   5.186   7.839 -0.8904 -1.2726  1.2929
66131SOL     OW10371  10.715   1.257   4.972  0.2028  0.1238 -0.1503
66131SOL    HW110372  10.641   1.312   4.999 -0.1788 -0.4423 -0.0269
66131SOL    HW210373  10.788   1.289   5.024 -0.4633 -0.7672  1.3979
66132SOL     OW10374   5.664   6.910   7.119  0.4552 -0.1090  0.1175
66132SOL    HW110375   5.704   6.997   7.125 -1.0788  0.5787  1.0029
66132SOL    HW210376   5.655   6.881   7.210  0.3956 -0.9355 -0.1425
66133SOL     OW10377  10.367   4.375   9.022  0.1201 -0.5584 -0.7075
66133SOL    HW110378  10.452   4.391   9.064 -0.9998  1.7490  0.9344
66133SOL    HW210379  10.389   4.348   8.933  2.6037  0.7675 -0.5938
66134SOL     OW10380   4.090  13.872   6.131  0.2545  0.0816 -0.0010
66134SOL    HW110381   4.017  13.845   6.077 -0.7108  1.1035  0.7368
66134SOL    HW210382   4.127  13.948   6.086  0.7772 -0.3461 -0.2986
66135SOL     OW10383   1.906  10.279   4.600  0.7399 -0.1107  0.7299
66135SOL    HW110384   1.911  10.314   4.689 -2.8220 -2.4962  2.0931
66135SOL    HW210385   1.848  10.339   4.553 -0.1513 -0.6231  1.1343
66136SOL     OW10386  10.809   1.349  10.598  0.4189  0.3718 -0.0182
66136SOL    HW110387  10.900   1.334  10.625 -0.0762 -0.2656  1.4020
66136SOL    HW210388  10.757   1.303  10.663 -0.9918  2.0256  0.0933
66137SOL     OW10389  11.181  10.569   6.263  0.8795  0.6611  0.5944
66137SOL    HW110390  11.110  10.538   6.318  1.0162 -1.6183 -0.3753
66137SOL    HW210391  11.169  10.663   6.259 -1.2274  0.5017  1.6176
66138SOL     OW10392   9.069   4.041   9.824  0.5165 -0.5908 -0.2164
66138SOL    HW110393   9.093   4.004   9.909  0.5982  1.5927  0.7599
66138SOL    HW210394   8.984   4.001   9.804 -1.8842  2.2595  3.2237
66139SOL     OW10395  11.513   3.453   7.338  0.4643 -0.0914 -0.4155
66139SOL    HW110396  11.602   3.460   7.373 -0.0473 -0.2505  0.9430
66139SOL    HW210397  11.472   3.383   7.388 -1.0311  1.2301  0.2907
66140SOL     OW10398   3.006   0.089  10.613 -0.6276 -0.6075 -0.3722
66140SOL    HW110399   2.997   0.087  10.709  1.1644 -0.4075 -0.1703
66140SOL    HW210400   2.930   0.139  10.583  0.9790  3.2423  1.3155
66141SOL     OW10401   3.212   0.822   1.614 -0.2178  0.1493 -0.4115
66141SOL    HW110402   3.210   0.822   1.709 -2.2948 -0.9572 -0.4021
66141SOL    HW210403   3.221   0.914   1.589 -0.8737  0.5733  0.8512
66142SOL     OW10404   4.033  13.947  10.352 -0.2432 -0.2644  0.2421
66142SOL    HW110405   4.054  14.041  10.350  0.7603 -0.3831  2.4920
66142SOL    HW210406   4.071  13.912  10.271  1.3510  0.9072  0.4460
66143SOL     OW10407   1.021   1.026   5.365 -0.3547 -0.0813  0.4562
66143SOL    HW110408   1.058   1.114   5.371 -1.1107  0.2813  0.0206
66143SOL    HW210409   0.988   1.008   5.453  0.1487 -0.0926  0.6452
66144SOL     OW10410   1.121   7.786   1.653  0.3940 -0.8988 -0.4864
66144SOL    HW110411   1.212   7.763   1.673  1.8791  4.2524  0.0159
66144SOL    HW210412   1.115   7.776   1.558  1.0562 -2.3138 -0.4209
66145SOL     OW10413   4.137  13.931   2.164  0.0743  0.1543  0.2875
66145SOL    HW110414   4.165  13.996   2.099  1.0782 -1.9821 -1.5747
66145SOL    HW210415   4.042  13.943   2.169 -0.2354 -0.2661 -2.5156
66146SOL     OW10416  13.492   9.492   5.836 -0.0951 -0.0547  0.4876
66146SOL    HW110417  13.579   9.458   5.858 -0.0480 -0.8428 -0.7951
66146SOL    HW210418  13.431   9.434   5.881  0.0229  0.5703  1.4870
66147SOL     OW10419   7.778   2.405   9.255 -0.1902 -0.3944 -0.4347
66147SOL    HW110420   7.848   2.467   9.235 -1.6818  0.8827 -2.0763
66147SOL    HW210421   7.759   2.363   9.171  0.7686 -3.1709  0.6220
66148SOL     OW10422   9.991   2.867   7.839 -0.2179  0.4756 -0.5592
66148SOL    HW110423   9.917   2.810   7.820 -1.9272  2.5147 -0.3241
66148SOL    HW210424  10.006   2.915   7.757  0.2194  0.7631 -0.3150
66149SOL     OW10425   9.634  13.358  12.287 -0.0469  0.0493  0.2259
66149SOL    HW110426   9.725  13.335  12.267  0.9620  3.2499  0.4676
66149SOL    HW210427   9.594  13.374  12.201  0.4647  1.2246  0.1813
66150SOL     OW10428  10.190  13.168   6.399  0.2972 -0.9400  0.1719
66150SOL    HW110429  10.114  13.140   6.347  0.4225 -0.3119 -0.3704
66150SOL    HW210430  10.262  13.169   6.336 -0.3343  4.0423 -0.9530
66151SOL     OW10431   7.693   0.335   0.793  0.2502 -0.0426  0.6738
66151SOL    HW110432   7.621   0.394   0.812  0.5551  0.3680  0.5839
66151SOL    HW210433   7.665   0.250   0.827  0.0245  0.2668  1.2709
66152SOL     OW10434   3.554   3.688   8.556  0.1309  0.1839  0.2754
66152SOL    HW110435   3.643   3.714   8.535 -0.1247  0.6321 -0.2658
66152SOL    HW210436   3.553   3.593   8.542  0.2691  0.3094 -0.6736
66153SOL     OW10437  11.141   3.740  11.056  0.2414  0.5800  0.1280
66153SOL    HW110438  11.146   3.684  10.979  2.1868 -0.8057  1.1838
66153SOL    HW210439  11.200   3.813  11.038 -0.2656  0.9334 -0.1588
66154SOL     OW10440  13.371   4.667  13.024 -0.0170 -0.5130 -0.6492
66154SOL    HW110441  13.298   4.613  13.055 -0.7242  0.1948 -1.0533
66154SOL    HW210442  13.338   4.757  13.029  0.4915 -0.2563 -1.7361
66155SOL     OW10443  12.862   3.070   6.618 -0.9076  0.8632 -0.0837
66155SOL    HW110444  12.856   3.083   6.524 -2.3525  1.5139  0.0726
66155SOL    HW210445  12.894   3.153   6.652  0.7615  0.2470 -0.0864
66156SOL     OW10446   9.078   2.693  12.713 -0.0840  0.0478 -0.5203
66156SOL    HW110447   9.115   2.687  12.625  0.8339 -0.1396 -0.1263
66156SOL    HW210448   9.004   2.632  12.712  1.3042 -1.7284 -0.4967
66157SOL     OW10449   7.977   7.556  13.969  0.4018 -0.3527 -0.2164
66157SOL    HW110450   7.965   7.649  13.949 -1.2355 -0.8084 -1.5892
66157SOL    HW210451   7.889   7.520  13.971  1.0499 -2.1376 -1.0576
66158SOL     OW10452   1.770   5.048   0.047 -0.1367 -0.1690  0.6864
66158SOL    HW110453   1.725   4.966   0.026  0.4001 -0.2336 -0.2298
66158SOL    HW210454   1.799   5.036   0.138 -2.3280  0.0532  1.4902
66159SOL     OW10455   1.612  11.410  13.756  0.3180  0.6213  0.5258
66159SOL    HW110456   1.651  11.358  13.826  0.2034 -2.2500 -1.3535
66159SOL    HW210457   1.518  11.394  13.763  0.1676  1.4737  0.5617
66160SOL     OW10458   6.158   6.580   7.693 -0.0962 -0.0944  0.2549
66160SOL    HW110459   6.129   6.490   7.708 -2.2831  0.4824 -0.2105
66160SOL    HW210460   6.190   6.610   7.778  3.0383 -2.0476 -0.0964
66161SOL     OW10461  13.640   5.768   4.765  0.0015  0.5352  0.1063
66161SOL    HW110462  13.628   5.834   4.697  0.2669  0.8550  0.3703
66161SOL    HW210463  13.552   5.732   4.779 -0.5075  2.1172  1.2636
66162SOL     OW10464   7.367  12.977   3.188  0.4942  0.6797 -0.4414
66162SOL    HW110465   7.402  12.894   3.218  0.1334 -0.0061 -1.8245
66162SOL    HW210466   7.413  12.994   3.106  0.9938  2.1579  0.1132
66163SOL     OW10467   2.142   7.009   3.730  0.3122 -1.0838  0.4937
66163SOL    HW110468   2.143   6.932   3.672 -1.1889 -1.3609  0.7766
66163SOL    HW210469   2.101   7.078   3.678 -0.5190 -1.1721  1.0013
66164SOL     OW10470   9.776   3.063   4.213 -0.1661 -0.5571  1.0744
66164SOL    HW110471   9.710   3.131   4.219  0.8886  0.4687  1.5633
66164SOL    HW210472   9.756   3.004   4.286 -1.0332 -0.7430  0.6997
66165SOL     OW10473  13.392   1.312   7.550  0.2894  0.5708 -0.4039
66165SOL    HW110474  13.418   1.381   7.489  1.1040  1.0568  0.4672
66165SOL    HW210475  13.424   1.342   7.636 -0.4622 -0.2895  0.1965
66166SOL     OW10476   6.200   8.742  13.154  0.4728  0.3198 -0.1493
66166SOL    HW110477   6.253   8.812  13.191  0.3400  0.7506 -0.7750
66166SOL    HW210478   6.146   8.712  13.228  2.3869 -0.9456  0.8350
66167SOL     OW10479   7.605   7.199  11.772  0.4747  0.3923  0.5633
66167SOL    HW110480   7.599   7.268  11.705 -1.8065 -0.1850  0.0869
66167SOL    HW210481   7.523   7.150  11.763  1.0363 -0.9896  2.4212
66168SOL     OW10482   7.161   9.680   3.698 -0.0942  0.7558 -0.4571
66168SOL    HW110483   7.218   9.687   3.775 -0.8200 -1.1701  0.3301
66168SOL    HW210484   7.219   9.649   3.628  0.3424  1.3976 -0.3884
66169SOL     OW10485   8.628  13.020  12.788  0.0928  0.4306 -0.2406
66169SOL    HW110486   8.546  13.068  12.773 -0.5227 -0.6814 -0.5352
66169SOL    HW210487   8.694  13.071  12.741 -0.5239  1.0294 -0.4896
66170SOL     OW10488   7.655  13.147  11.078 -0.1409  0.4198  0.4901
66170SOL    HW110489   7.648  13.241  11.099 -0.4945  0.2279  1.2830
66170SOL    HW210490   7.724  13.142  11.012 -1.6467  1.4837 -1.2728
66171SOL     OW10491  12.351   3.542   1.487 -0.1536  0.3258 -1.0188
66171SOL    HW110492  12.262   3.575   1.498 -0.7979 -1.4250 -0.7500
66171SOL    HW210493  12.359   3.526   1.393  0.2530  1.4565 -1.1869
66172SOL     OW10494  12.876   0.640   6.290  0.5573 -0.1166 -0.3219
66172SOL    HW110495  12.790   0.670   6.320  0.5273 -0.6723  0.1644
66172SOL    HW210496  12.913   0.715   6.244 -0.5329 -0.1310 -1.2705
66173SOL     OW10497   4.303   0.590   1.504 -0.3213 -0.5637 -0.5283
66173SOL    HW110498   4.380   0.586   1.561  0.1319  0.7573 -0.9889
66173SOL    HW210499   4.337   0.574   1.416 -0.8044 -1.3023 -0.5909
66174SOL     OW10500  10.553   6.815  12.148  0.4882 -0.7428 -0.4801
66174SOL    HW110501  10.488   6.795  12.081 -1.2290 -0.1825  0.9304
66174SOL    HW210502  10.620   6.746  12.139 -0.5453 -1.6301 -1.6667
66175SOL     OW10503   9.573  10.853   0.033  0.6251 -0.0342 -0.2437
66175SOL    HW110504   9.630  10.918  -0.008  0.5790  0.3689  0.3309
66175SOL    HW210505   9.583  10.775  -0.023  0.2044  0.6396 -1.2899
66176SOL     OW10506   5.301  11.005   5.529  0.4368 -0.0140  0.1302
66176SOL    HW110507   5.269  11.048   5.450  0.8162 -1.3382 -0.7638
66176SOL    HW210508   5.233  11.022   5.595  0.7493  2.2454 -0.0576
66177SOL     OW10509   4.629  11.389   0.325  0.6368  0.8571  0.8199
66177SOL    HW110510   4.675  11.306   0.338 -0.6697  0.2956  2.2892
66177SOL    HW210511   4.669  11.448   0.389  0.6368  0.9287  0.7528
66178SOL     OW10512  12.631   1.490  11.460 -0.0036  0.3294 -0.0818
66178SOL    HW110513  12.555   1.461  11.411  1.0451 -1.0569 -0.9347
66178SOL    HW210514  12.703   1.436  11.428  1.3484  1.5903  0.7115
66179SOL     OW10515   3.629   9.142  11.130  0.3671 -0.3560  0.1708
66179SOL    HW110516   3.561   9.076  11.145 -0.0626 -0.1921 -0.9661
66179SOL    HW210517   3.699   9.118  11.190 -1.3183  0.4457  2.6133
66180SOL     OW10518   7.228  10.518   1.111 -0.1478  0.2861  0.4967
66180SOL    HW110519   7.312  10.473   1.120 -0.2937 -0.4556 -1.3454
66180SOL    HW210520   7.249  10.611   1.115  0.8176  0.1137 -0.2711
66181SOL     OW10521  12.701   8.951   7.884 -0.0348 -0.6048 -0.1939
66181SOL    HW110522  12.661   9.016   7.827  1.0900 -1.2172 -1.7567
66181SOL    HW210523  12.794   8.975   7.886  0.1943 -1.4860  0.1489
66182SOL     OW10524  12.865   6.847  13.058  0.3451  0.2454  0.5890
66182SOL    HW110525  12.942   6.790  13.055  2.3482  2.7576 -1.8862
66182SOL    HW210526  12.884   6.908  13.129 -0.0625 -0.0155  0.9206
66183SOL     OW10527   3.630   6.225   0.567 -0.3688 -0.1446 -0.2002
66183SOL    HW110528   3.616   6.315   0.598 -0.2019 -0.4822  0.8966
66183SOL    HW210529   3.647   6.235   0.474  0.8603  1.0946  0.1066
66184SOL     OW10530   9.139  11.459   8.658  0.1789  0.1244 -0.1291
66184SOL    HW110531   9.206  11.393   8.642 -1.6951 -2.0593  0.4718
66184SOL    HW210532   9.175  11.514   8.727  0.4775 -2.5080  1.9948
66185SOL     OW10533   7.812   8.361   8.074 -0.3735  0.2648  0.2333
66185SOL    HW110534   7.897   8.342   8.113  0.1193  1.5185 -0.1932
66185SOL    HW210535   7.793   8.285   8.018  1.2459  0.6797 -0.9532
66186SOL     OW10536   2.915  11.571   7.684  0.2722  0.4028 -0.6931
66186SOL    HW110537   2.936  11.481   7.708  2.4712  0.9220 -0.4005
66186SOL    HW210538   2.985  11.597   7.624  0.6785  2.4305  0.5561
66187SOL     OW10539   1.212   3.370   0.396 -0.4669  0.4526  0.1166
66187SOL    HW110540   1.150   3.351   0.326 -1.0684  0.0799  0.7414
66187SOL    HW210541   1.161   3.365   0.476  0.1255  1.3084  0.5601
66188SOL     OW10542   5.024   4.340  11.386 -0.6239  0.6529  0.2803
66188SOL    HW110543   5.042   4.329  11.480  0.6073  0.3217  0.0183
66188SOL    HW210544   5.096   4.393  11.354 -1.4208  1.3796 -0.3621
66189SOL     OW10545  12.723   0.191   1.049  0.2937 -0.7255  0.5834
66189SOL    HW110546  12.759   0.106   1.074  2.0188 -0.1770  0.0859
66189SOL    HW210547  12.760   0.209   0.963  1.2107  1.1997  1.3189
66190SOL     OW10548  12.437   8.121   1.861  0.1369  0.4338 -0.1645
66190SOL    HW110549  12.371   8.135   1.793  1.7118  0.8451 -1.6878
66190SOL    HW210550  12.423   8.194   1.922 -1.6306 -0.2278  0.2841
66191SOL     OW10551  10.373   4.909   6.233  0.1353  0.3457  0.2075
66191SOL    HW110552  10.341   4.913   6.323  0.7099 -0.9324  0.4859
66191SOL    HW210553  10.302   4.946   6.181  0.1348  1.9114  1.2396
66192SOL     OW10554  12.276   9.593   1.191 -0.3536  0.4741  0.1262
66192SOL    HW110555  12.347   9.569   1.131 -0.7828 -0.6949  0.0651
66192SOL    HW210556  12.278   9.689   1.193  1.4965  0.4683  0.4476
66193SOL     OW10557   7.394   0.754  10.127 -0.5875 -0.3297  0.1639
66193SOL    HW110558   7.322   0.815  10.145 -1.4191 -1.1061 -0.4127
66193SOL    HW210559   7.376   0.679  10.183 -1.2446 -1.2745 -1.2463
66194SOL     OW10560   1.189   8.635   7.944  0.1447  0.1469 -0.3610
66194SOL    HW110561   1.211   8.544   7.928  0.8814  0.1392  0.5950
66194SOL    HW210562   1.098   8.644   7.915 -0.6501 -1.4289  1.4432
66195SOL     OW10563   7.764   2.005   2.247 -0.4446  0.6475 -0.1225
66195SOL    HW110564   7.804   2.057   2.317 -0.4570  0.0729  0.3225
66195SOL    HW210565   7.670   2.009   2.263 -0.4323  0.3160  0.0372
66196SOL     OW10566   3.610  10.523  12.303 -0.4127  0.1409 -0.8078
66196SOL    HW110567   3.629  10.599  12.358  3.1512 -1.5301  0.6387
66196SOL    HW210568   3.652  10.543  12.219  1.0770 -0.3640 -0.2251
66197SOL     OW10569   0.275   4.403  11.590  0.4970 -0.0927 -0.1868
66197SOL    HW110570   0.252   4.315  11.561 -1.5463  0.6342 -0.9302
66197SOL    HW210571   0.366   4.413  11.566  1.5248 -2.7975  1.9613
66198SOL     OW10572   8.105  10.094  12.055  0.6652 -0.3122  0.5621
66198SOL    HW110573   8.074  10.139  11.976 -1.3246 -1.5398  0.5801
66198SOL    HW210574   8.173  10.035  12.024  0.8303  0.1737 -0.0160
66199SOL     OW10575   2.600   8.314   0.557 -0.3153 -0.2040 -0.0507
66199SOL    HW110576   2.559   8.234   0.588 -0.3220  0.3995  1.6552
66199SOL    HW210577   2.636   8.354   0.637  2.4978 -0.0744 -1.2620
66200SOL     OW10578   6.369   2.029   5.487 -0.0252  0.6315  0.1009
66200SOL    HW110579   6.344   2.005   5.398  2.9828  1.4639 -1.0918
66200SOL    HW210580   6.429   1.960   5.515  0.6766  1.4361  0.6372
66201SOL     OW10581   1.960   4.335   1.733 -0.1402 -0.0256  0.4235
66201SOL    HW110582   1.911   4.255   1.714  0.2579  0.4924 -3.5430
66201SOL    HW210583   1.893   4.404   1.736 -0.1523 -0.0218  0.1190
66202SOL     OW10584   5.510   6.980   5.402 -0.5119 -0.1828 -0.1783
66202SOL    HW110585   5.583   6.976   5.463  0.9847 -0.0676 -1.8748
66202SOL    HW210586   5.546   6.946   5.319 -2.4286 -0.2787 -1.0193
66203SOL     OW10587   2.686  11.553   3.551 -0.5602  0.2061  0.0623
66203SOL    HW110588   2.659  11.477   3.602 -2.0289  0.5125 -0.2077
66203SOL    HW210589   2.763  11.587   3.597 -1.0168 -0.3338  1.2716
66204SOL     OW10590   6.861   1.220   0.552 -0.2193  0.0704  0.2397
66204SOL    HW110591   6.862   1.234   0.647 -0.7060  2.3060 -0.0241
66204SOL    HW210592   6.795   1.281   0.520  1.6140  1.1202 -1.7723
66205SOL     OW10593  13.558  12.159  13.490 -0.1482  0.3700 -0.7712
66205SOL    HW110594  13.494  12.230  13.485 -0.4511  0.1242 -0.4350
66205SOL    HW210595  13.548  12.124  13.578  1.0315  0.8668 -0.4124
66206SOL     OW10596   3.736  11.277   4.055  0.5303 -0.7026  0.3630
66206SOL    HW110597   3.795  11.292   4.129  0.5555 -0.5305  0.3079
66206SOL    HW210598   3.709  11.186   4.064  0.8763 -0.8099  0.3356
66207SOL     OW10599   5.318   6.431   1.022 -0.8270 -0.0851  0.5735
66207SOL    HW110600   5.287   6.485   1.096 -0.4886  1.7161 -0.5472
66207SOL    HW210601   5.412   6.449   1.017 -0.9373  0.1892 -0.5949
66208SOL     OW10602   7.794   5.261   7.772  1.0337  0.2408  0.4174
66208SOL    HW110603   7.733   5.270   7.699 -1.5863 -1.8474  2.1532
66208SOL    HW210604   7.816   5.168   7.774  2.9670  0.6675  0.8874
66209SOL     OW10605   1.001   2.950   3.532  0.1496  0.1082 -0.0062
66209SOL    HW110606   1.061   2.978   3.601 -2.1800 -0.8893  2.6118
66209SOL    HW210607   0.928   3.011   3.538  0.7827  1.4077 -3.2461
66210SOL     OW10608   1.406   4.270   6.263  0.0455 -0.4151  0.1560
66210SOL    HW110609   1.466   4.268   6.338  0.5038  0.7466 -0.1523
66210SOL    HW210610   1.433   4.347   6.213 -0.8623 -0.6351 -0.7098
66211SOL     OW10611   5.395   7.325   3.027 -0.1744  0.0007 -0.0702
66211SOL    HW110612   5.447   7.292   3.100  1.0185  3.9669  1.1825
66211SOL    HW210613   5.460   7.350   2.961 -0.9030  0.4332 -0.6405
66212SOL     OW10614   0.321  10.503   4.535  0.2488 -0.5482 -0.2182
66212SOL    HW110615   0.411  10.517   4.564  0.2537 -0.5347 -0.2390
66212SOL    HW210616   0.325  10.510   4.439  0.4356 -1.7820 -0.3132
66213SOL     OW10617  12.804   6.163   1.353  0.2715 -0.0867  0.1931
66213SOL    HW110618  12.888   6.171   1.397 -0.2794 -0.9669  1.4649
66213SOL    HW210619  12.794   6.069   1.338 -0.5751 -0.0121  0.2448
66214SOL     OW10620   4.426   8.468   8.955 -0.1044  0.1847 -0.0592
66214SOL    HW110621   4.504   8.462   9.010 -0.9653 -0.3955  1.1362
66214SOL    HW210622   4.440   8.547   8.902  1.9541 -0.7327 -0.9637
66215SOL     OW10623   6.917  11.717   6.246  0.4619 -0.9011  0.1272
66215SOL    HW110624   6.932  11.804   6.284  0.5036 -0.5261 -0.7330
66215SOL    HW210625   6.828  11.720   6.212  1.1048 -0.5216 -1.6215
66216SOL     OW10626   3.167  11.654  12.941  0.0143 -0.2384  0.3532
66216SOL    HW110627   3.107  11.603  12.887  0.9573 -0.0721 -0.8858
66216SOL    HW210628   3.153  11.744  12.913  1.2041 -0.2535 -0.3224
66217SOL     OW10629   3.486   1.415  13.132  0.1089 -0.0692  0.3380
66217SOL    HW110630   3.487   1.430  13.226  0.1521  0.9154  0.1895
66217SOL    HW210631   3.579   1.414  13.107  0.0842  2.2905 -0.0644
66218SOL     OW10632   8.664   1.569   3.984 -0.5516 -0.1067  0.1113
66218SOL    HW110633   8.755   1.578   4.012 -0.1971 -0.9054 -0.7366
66218SOL    HW210634   8.615   1.558   4.065  0.1787 -0.2627  0.5424
66219SOL     OW10635   7.018   1.649   3.256  0.5707  0.1597 -0.1350
66219SOL    HW110636   6.938   1.599   3.270 -0.1221  0.6710 -1.9995
66219SOL    HW210637   7.081   1.611   3.317 -0.8304 -0.8370  0.7509
66220SOL     OW10638  10.569  10.473   9.969 -0.2175  0.2995 -0.1782
66220SOL    HW110639  10.648  10.515  10.004  0.0433  1.7373 -2.2969
66220SOL    HW210640  10.504  10.544   9.964 -0.7078 -0.1991 -1.1369
66221SOL     OW10641   6.805   5.132   2.244  0.1993 -0.3641 -0.2674
66221SOL    HW110642   6.772   5.212   2.286  2.7868 -0.0627  1.3835
66221SOL    HW210643   6.759   5.061   2.289  1.0770  0.0677  1.3927
66222SOL     OW10644   7.451   8.358  13.016  0.2579 -0.6369  0.0616
66222SOL    HW110645   7.440   8.265  12.999 -1.5248 -0.3300 -0.6442
66222SOL    HW210646   7.419   8.401  12.937 -0.3114  0.6067  0.9334
66223SOL     OW10647  10.168   0.121  12.457 -0.3334  0.3242 -0.1236
66223SOL    HW110648  10.085   0.153  12.422 -0.0114  0.3647 -0.8819
66223SOL    HW210649  10.222   0.106  12.379 -0.1281 -1.0951  0.2680
66224SOL     OW10650   5.017   4.224   1.044  0.6688 -0.3067  0.3418
66224SOL    HW110651   5.040   4.207   1.136  0.5919  1.0313  0.6252
66224SOL    HW210652   5.092   4.192   0.995  1.6823  0.9187  1.0337
66225SOL     OW10653   2.185  12.230   9.515 -0.4665 -0.3256 -0.1218
66225SOL    HW110654   2.167  12.161   9.579 -1.3449 -0.1074 -0.1186
66225SOL    HW210655   2.279  12.244   9.521 -0.3931 -0.9822  0.4335
66226SOL     OW10656   6.648   1.758   2.972 -0.8738 -0.2368 -0.1781
66226SOL    HW110657   6.652   1.844   3.014  0.2853 -1.3464  2.1980
66226SOL    HW210658   6.567   1.719   3.006 -0.2230 -0.9201  0.6557
66227SOL     OW10659  10.049   7.690   7.100  0.1348 -0.9717 -0.7950
66227SOL    HW110660  10.067   7.705   7.193 -0.3964  1.4288 -1.0041
66227SOL    HW210661   9.958   7.661   7.097  0.2662 -1.4110 -0.5424
66228SOL     OW10662  10.367   7.753   2.764 -0.1703 -0.6015 -0.2593
66228SOL    HW110663  10.341   7.710   2.845  0.4794  1.4090  1.0922
66228SOL    HW210664  10.460   7.731   2.754  0.0063 -0.0243  0.0971
66229SOL     OW10665   4.157   9.573  11.642 -0.2041  0.2123  0.1947
66229SOL    HW110666   4.093   9.538  11.704  1.7112 -0.6221  1.8186
66229SOL    HW210667   4.113   9.648  11.602 -2.3858 -0.6691  0.7899
66230SOL     OW10668   2.108   2.804  11.223 -0.9455  0.1648  0.1586
66230SOL    HW110669   2.196   2.782  11.253 -0.3192  0.4771 -1.3525
66230SOL    HW210670   2.050   2.749  11.276 -0.0195  1.2456  2.4676
66231SOL     OW10671   1.943   0.487  12.660 -0.7641 -0.0971 -0.1871
66231SOL    HW110672   2.004   0.553  12.628 -2.8188  0.9216 -2.2398
66231SOL    HW210673   1.955   0.412  12.602 -1.6659  0.2342 -0.8173
66232SOL     OW10674   9.189   7.439   6.060  0.0728 -0.1403 -0.0086
66232SOL    HW110675   9.232   7.386   5.994 -0.7033 -1.8311  0.7764
66232SOL    HW210676   9.145   7.376   6.117 -3.1705  1.4255 -0.5519
66233SOL     OW10677  10.941   2.191   5.308  0.1239 -0.3875 -0.8718
66233SOL    HW110678  11.010   2.251   5.280 -0.1748  0.3275 -0.0891
66233SOL    HW210679  10.863   2.221   5.263 -0.0859 -0.0089 -0.2638
66234SOL     OW10680   0.118   4.710   9.668  0.3687 -0.4952 -0.4104
66234SOL    HW110681   0.097   4.712   9.761 -2.7618 -1.6809 -0.9685
66234SOL    HW210682   0.114   4.801   9.640  2.0895 -0.0381  0.6823
66235SOL     OW10683   5.496   9.976  10.224  0.0283 -0.4536 -0.8317
66235SOL    HW110684   5.408  10.002  10.253  0.0599 -1.3176  0.0692
66235SOL    HW210685   5.489   9.882  10.208  0.4334 -0.2770 -2.1494
66236SOL     OW10686  11.717  12.202  11.559  0.2863  0.3155  0.0199
66236SOL    HW110687  11.764  12.278  11.593  0.1719  0.7005 -0.6470
66236SOL    HW210688  11.651  12.240  11.500 -0.8736 -0.2101  0.9526
66237SOL     OW10689   0.772   1.904   2.828 -0.1328 -0.0745  0.1376
66237SOL    HW110690   0.775   1.999   2.833 -0.6372 -0.0272 -0.4780
66237SOL    HW210691   0.746   1.876   2.916 -1.3388  0.4198 -0.0545
66238SOL     OW10692  11.187   2.750   1.706  0.0142  0.5726  0.0076
66238SOL    HW110693  11.241   2.806   1.762 -1.8155  0.0113  2.5131
66238SOL    HW210694  11.177   2.669   1.757 -0.0047 -0.8453 -2.1230
66239SOL     OW10695  12.142   9.539  13.601 -0.1925  0.5375  0.3549
66239SOL    HW110696  12.216   9.520  13.543 -0.2217 -0.3181  0.5822
66239SOL    HW210697  12.097   9.455  13.610 -0.6774  0.8540  0.9347
66240SOL     OW10698   1.879   0.945  12.693  0.1375  0.3829 -0.4286
66240SOL    HW110699   1.951   0.883  12.709 -0.0678  0.1939 -0.2280
66240SOL    HW210700   1.835   0.953  12.778 -0.0691  0.5120 -0.5470
66241SOL     OW10701   0.083   2.252  13.704 -0.1400  0.5880  0.6486
66241SOL    HW110702   0.001   2.297  13.726 -1.4912 -2.0774  1.5552
66241SOL    HW210703   0.114   2.217  13.788  0.8331 -0.1727 -0.0028
66242SOL     OW10704   3.871   9.874  13.887 -0.5761  0.1204 -0.0554
66242SOL    HW110705   3.907   9.928  13.957 -0.9049  1.0273 -0.5715
66242SOL    HW210706   3.876   9.785  13.921 -0.1289  0.4799  0.8580
66243SOL     OW10707  10.010  10.296  10.120  0.3468  0.6371 -0.1294
66243SOL    HW110708  10.018  10.311  10.026  0.3824 -0.1324 -0.2562
66243SOL    HW210709  10.097  10.313  10.155  0.4620  0.4348 -0.3134
66244SOL     OW10710  13.866   0.188   8.672  0.5725  0.2586  0.0820
66244SOL    HW110711  13.790   0.151   8.719  0.5365 -0.9676 -0.8927
66244SOL    HW210712  13.928   0.211   8.742 -0.3701  0.5603  0.8495
66245SOL     OW10713   3.202  13.041   0.907 -0.6357 -0.5961 -0.2802
66245SOL    HW110714   3.149  13.022   0.830 -2.1376 -0.4404  0.6818
66245SOL    HW210715   3.277  13.090   0.873 -1.7447  0.2962 -1.5428
66246SOL     OW10716   2.552   0.040   9.798  0.5704  0.0334 -0.3836
66246SOL    HW110717   2.515   0.128   9.802  1.0435  0.2580 -0.8277
66246SOL    HW210718   2.559   0.013   9.890 -1.5272 -0.3920 -0.2972
66247SOL     OW10719  12.996   3.660   7.701  0.8305  0.5141 -0.5337
66247SOL    HW110720  13.078   3.710   7.696  0.6670  0.7419 -1.0289
66247SOL    HW210721  13.022   3.569   7.687  1.1037  0.4848  0.1504
66248SOL     OW10722  12.549   6.778  11.328  0.6610  0.4379  0.2684
66248SOL    HW110723  12.527   6.685  11.334 -0.5736  0.7271  0.4652
66248SOL    HW210724  12.643   6.779  11.315  0.3516 -1.0596 -3.9683
66249SOL     OW10725  11.438   0.829  10.486 -0.3131 -0.5160  0.4544
66249SOL    HW110726  11.455   0.916  10.521  0.9915  0.0539 -1.4287
66249SOL    HW210727  11.343   0.819  10.490 -0.5783  1.3958 -0.1256
66250SOL     OW10728   1.918   0.243   1.105 -0.0106 -0.3018  0.1348
66250SOL    HW110729   1.918   0.148   1.091  1.6264 -0.1858 -0.8591
66250SOL    HW210730   1.971   0.255   1.184  0.4798 -0.1661 -0.2125
66251SOL     OW10731  12.294   6.563   4.343  0.5050 -0.1937  0.2851
66251SOL    HW110732  12.279   6.511   4.264 -0.1329  0.7493 -0.2460
66251SOL    HW210733  12.260   6.509   4.414 -1.0911 -0.1173 -0.3685
66252SOL     OW10734  10.197  13.654   3.672  0.1957 -0.1640 -0.0920
66252SOL    HW110735  10.269  13.686   3.617  1.3346 -2.5947 -0.1259
66252SOL    HW210736  10.138  13.612   3.610  0.5924 -1.3564  0.3251
66253SOL     OW10737   7.690   1.224   9.399  0.2708 -0.1047  0.0274
66253SOL    HW110738   7.655   1.136   9.382  0.1251 -0.0685  0.1376
66253SOL    HW210739   7.784   1.211   9.408  0.3951 -0.0781 -1.1197
66254SOL     OW10740   1.442   3.336   6.698 -0.2582  0.5566  0.1687
66254SOL    HW110741   1.412   3.324   6.608 -1.4918 -0.3943  0.6905
66254SOL    HW210742   1.524   3.287   6.703  0.1633  1.1466 -0.5889
66255SOL     OW10743  11.468   0.189   6.742 -0.1092  0.0498 -0.0817
66255SOL    HW110744  11.475   0.180   6.647  0.1744 -2.1096  0.0998
66255SOL    HW210745  11.557   0.180   6.775 -0.4331 -1.1956  0.5031
66256SOL     OW10746   3.430   1.744   0.264  0.3840 -0.5553  0.1814
66256SOL    HW110747   3.520   1.777   0.267 -0.3176  1.4394  0.9367
66256SOL    HW210748   3.422   1.687   0.339  0.8042 -0.0963  0.5797
66257SOL     OW10749   9.678   6.008  12.842  0.0732  0.1060  0.3245
66257SOL    HW110750   9.767   6.031  12.868 -0.6236  1.9235  1.2565
66257SOL    HW210751   9.654   5.937  12.902  0.8510 -0.3799  0.0844
66258SOL     OW10752   9.081   1.308  12.458  0.3906  0.0586 -0.3227
66258SOL    HW110753   9.159   1.290  12.406  1.6274 -2.0961  2.0556
66258SOL    HW210754   9.008   1.291  12.399  1.6625  1.1243 -2.3214
66259SOL     OW10755   5.830  11.285  10.914  0.8382  0.4647 -0.3190
66259SOL    HW110756   5.837  11.276  11.009  1.7162  0.7476 -0.3445
66259SOL    HW210757   5.740  11.314  10.899  1.4509  3.2019  0.6923
66260SOL     OW10758  13.131   5.418   1.694 -0.4223 -0.3633  0.0564
66260SOL    HW110759  13.078   5.481   1.744 -0.1065  0.7904 -0.9997
66260SOL    HW210760  13.186   5.473   1.638  0.8635 -1.5678  0.0797
66261SOL     OW10761   6.289   4.871   7.642  0.1892  0.3444  0.3200
66261SOL    HW110762   6.297   4.913   7.556 -0.8605  1.3771  0.6959
66261SOL    HW210763   6.215   4.916   7.683  1.1619  0.4280  2.0801
66262SOL     OW10764   6.718   8.780   2.705 -0.3128 -0.4912  0.2166
66262SOL    HW110765   6.681   8.860   2.668  1.3922  0.1323 -0.2457
66262SOL    HW210766   6.775   8.811   2.776  0.9039 -1.2164 -0.4131
66263SOL     OW10767  11.910   0.607  12.505 -0.2802  0.2164 -0.1330
66263SOL    HW110768  11.817   0.609  12.484 -0.2485  0.3021 -0.2662
66263SOL    HW210769  11.914   0.571  12.594 -0.3171 -1.7198 -0.8780
66264SOL     OW10770   8.844   3.433  11.940  0.1394  0.1640 -0.3822
66264SOL    HW110771   8.899   3.479  11.878  2.0207  1.0162  1.7967
66264SOL    HW210772   8.766   3.408  11.889  2.1367 -0.4472 -3.3995
66265SOL     OW10773   1.122   5.746   0.782 -0.2348 -0.2837 -0.1540
66265SOL    HW110774   1.094   5.835   0.799 -0.7455 -0.0862 -1.7747
66265SOL    HW210775   1.213   5.754   0.753 -0.0218 -0.3843  0.4825
66266SOL     OW10776   6.786  10.452   1.316  0.0628  0.2033 -0.0830
66266SOL    HW110777   6.808  10.453   1.223  0.2721  1.1451 -0.0331
66266SOL    HW210778   6.830  10.374   1.351  0.7008  0.3320 -0.5955
66267SOL     OW10779   8.429   1.755   4.390  0.1130  0.5894 -0.6093
66267SOL    HW110780   8.358   1.813   4.415 -1.2189 -0.1505 -2.4301
66267SOL    HW210781   8.495   1.767   4.458 -1.7276  1.3007  1.1637
66268SOL     OW10782   7.276   8.375   7.215 -0.4089  0.1335  0.0768
66268SOL    HW110783   7.254   8.304   7.156  0.9112 -0.7472  0.6001
66268SOL    HW210784   7.356   8.347   7.259  0.7422  2.3579 -0.4138
66269SOL     OW10785  12.519   1.702   8.160  0.3894 -0.4225 -0.1164
66269SOL    HW110786  12.555   1.779   8.115 -0.6876  1.0934  1.5322
66269SOL    HW210787  12.577   1.689   8.235  1.0294 -1.7610 -0.7943
66270SOL     OW10788   5.783   9.182   4.434  0.6076  0.4564 -0.3218
66270SOL    HW110789   5.714   9.230   4.389 -0.2154 -0.0989  0.3167
66270SOL    HW210790   5.762   9.191   4.527  2.1849  1.4493 -0.0325
66271SOL     OW10791  10.045   2.085   9.621 -0.0911  0.3393  0.1719
66271SOL    HW110792  10.104   2.131   9.562  1.6910 -1.4169  0.4734
66271SOL    HW210793  10.027   2.148   9.691  0.2012  1.4069 -0.6920
66272SOL     OW10794  11.077  12.042   4.359  0.2721  0.0070  0.0116
66272SOL    HW110795  11.082  12.050   4.454  1.3131  0.2268 -0.0557
66272SOL    HW210796  11.039  11.955   4.345 -0.5233  0.2357  0.6170
66273SOL     OW10797  12.786   6.191   7.256 -0.0464 -0.0083  0.0985
66273SOL    HW110798  12.861   6.239   7.291  0.4863 -1.7547  1.4910
66273SOL    HW210799  12.716   6.206   7.319 -1.1764  2.1377 -1.5112
66274SOL     OW10800   0.231   1.068   6.643  0.1329  0.3640 -0.1566
66274SOL    HW110801   0.261   1.158   6.630 -0.2408  0.5205  0.0570
66274SOL    HW210802   0.224   1.058   6.738 -0.3124  0.2722 -0.1963
66275SOL     OW10803  10.363   9.216   7.425  0.3400  0.8479 -0.4420
66275SOL    HW110804  10.395   9.158   7.494 -0.7642 -1.8905 -2.1142
66275SOL    HW210805  10.443   9.252   7.386  1.3392 -2.1059 -1.4065
66276SOL     OW10806   4.658   0.544  13.324  0.5196  0.2054  0.2977
66276SOL    HW110807   4.680   0.629  13.286  2.7285 -0.1954  0.5419
66276SOL    HW210808   4.569   0.526  13.293  0.3155  2.2014 -0.4406
66277SOL     OW10809  13.180   8.749  12.207 -0.2911 -0.3062  0.6717
66277SOL    HW110810  13.255   8.799  12.173 -0.0392  0.1383  1.8325
66277SOL    HW210811  13.213   8.708  12.287 -1.0420 -0.8188  0.7261
66278SOL     OW10812  11.756   6.173   6.329 -0.0903 -0.4395  0.0558
66278SOL    HW110813  11.840   6.198   6.289  0.2906 -1.9721 -0.1511
66278SOL    HW210814  11.719   6.109   6.269 -0.0414 -1.9268  1.5447
66279SOL     OW10815  13.409   8.226   4.302  0.2572  0.0276 -0.2594
66279SOL    HW110816  13.436   8.159   4.365  0.2337 -1.0170 -1.3287
66279SOL    HW210817  13.331   8.266   4.342  1.0494  0.3661  1.0106
66280SOL     OW10818   1.805   9.719   2.772 -0.3633  0.1826 -0.3028
66280SOL    HW110819   1.885   9.724   2.721  0.3221 -0.3747  0.6821
66280SOL    HW210820   1.834   9.712   2.863 -1.5469  1.1334  0.1782
66281SOL     OW10821  12.254   8.554  13.439  0.1822  0.1502  0.3692
66281SOL    HW110822  12.265   8.470  13.481  0.1618  0.7469  1.6000
66281SOL    HW210823  12.192   8.602  13.495 -1.3713  0.2890 -1.3451
66282SOL     OW10824   0.491   7.719   2.271  0.2784 -0.2368 -0.0862
66282SOL    HW110825   0.491   7.804   2.315 -0.0311  0.0700 -0.6565
66282SOL    HW210826   0.563   7.725   2.208 -0.0376 -0.2154 -0.4517
66283SOL     OW10827  11.855   9.197   9.007  0.1860  0.2390 -0.4505
66283SOL    HW110828  11.787   9.201   9.075  0.7479 -0.2379  0.1525
66283SOL    HW210829  11.858   9.105   8.982  0.0035  0.4093 -1.1077
66284SOL     OW10830   4.455   5.351   5.093 -0.6829 -0.4376  0.3845
66284SOL    HW110831   4.424   5.398   5.171 -0.3845 -0.3792  0.4693
66284SOL    HW210832   4.548   5.373   5.088 -0.9016  0.3538 -0.5427
66285SOL     OW10833   6.876   3.140   7.827  0.8458 -0.2328 -0.3034
66285SOL    HW110834   6.872   3.054   7.786  1.6921  0.4963 -1.9903
66285SOL    HW210835   6.786   3.169   7.830  0.6653 -0.7268 -0.7296
66286SOL     OW10836  13.914   6.710   4.005 -0.1320 -0.5488 -0.1231
66286SOL    HW110837  13.832   6.688   3.959 -0.0253 -0.3849 -0.3924
66286SOL    HW210838  13.892   6.702   4.097 -0.6587  0.1883 -0.1733
66287SOL     OW10839   1.976   4.228   5.485 -0.0578  0.5499  0.5341
66287SOL    HW110840   2.042   4.207   5.420  0.3305  2.5095  0.2506
66287SOL    HW210841   1.913   4.284   5.439 -0.9158  0.2565  1.3046
66288SOL     OW10842  10.071   4.827   9.248 -0.4656  0.1122  0.1294
66288SOL    HW110843  10.127   4.840   9.171 -1.6065  0.7636 -0.6151
66288SOL    HW210844   9.982   4.836   9.215 -1.1195 -2.1634  1.0356
66289SOL     OW10845   6.400   6.885   1.350 -0.2214 -0.4137  0.0785
66289SOL    HW110846   6.398   6.960   1.290  1.1761 -0.6288 -0.2606
66289SOL    HW210847   6.375   6.922   1.434  1.3587  0.6695  0.1252
66290SOL     OW10848   2.416   3.838   4.991  0.1443  0.0794 -0.0888
66290SOL    HW110849   2.410   3.933   4.987  0.6169  0.1224  0.1803
66290SOL    HW210850   2.377   3.815   5.076 -1.6733 -0.1262 -0.9255
66291SOL     OW10851  11.158   9.140   6.423 -0.4706 -0.4397  0.2494
66291SOL    HW110852  11.116   9.054   6.426 -0.4763 -0.4444  0.0401
66291SOL    HW210853  11.227   9.130   6.358 -1.0659 -0.0181 -0.4518
66292SOL     OW10854   0.347   8.605   2.505  0.6243 -0.1000 -0.0636
66292SOL    HW110855   0.380   8.667   2.441  0.3048  0.3942  0.2419
66292SOL    HW210856   0.377   8.519   2.474 -2.0697 -0.2917 -2.5902
66293SOL     OW10857   0.501   3.467   4.456  0.0308 -0.7209  0.4117
66293SOL    HW110858   0.570   3.532   4.466 -0.8055  0.8538 -2.5812
66293SOL    HW210859   0.536   3.405   4.392 -0.2994 -1.5298  1.0005
66294SOL     OW10860   3.451  13.989   1.654 -0.9142 -0.5709 -0.7558
66294SOL    HW110861   3.473  14.053   1.586 -0.9432  0.1620 -0.0883
66294SOL    HW210862   3.509  14.011   1.727  0.1031 -2.2228 -1.0134
66295SOL     OW10863   8.758   6.301   4.368 -0.6233  0.4678  0.4176
66295SOL    HW110864   8.763   6.326   4.276  2.1659 -1.3508 -0.0236
66295SOL    HW210865   8.754   6.385   4.415  1.8850  1.6440 -1.2316
66296SOL     OW10866   6.691  13.885   2.523  0.2098  0.5100 -0.3068
66296SOL    HW110867   6.606  13.843   2.528 -0.4145  1.7758  0.3978
66296SOL    HW210868   6.681  13.952   2.455  1.0887 -0.2612 -1.2191
66297SOL     OW10869  11.102  10.498   4.991  0.2003  0.3139 -1.0512
66297SOL    HW110870  11.033  10.516   5.055 -0.1929  2.2035 -1.9438
66297SOL    HW210871  11.150  10.424   5.028 -0.4456  0.8867  1.0757
66298SOL     OW10872   1.196   3.839   3.037 -0.2856 -0.4367  0.0858
66298SOL    HW110873   1.269   3.870   3.091  0.5638 -0.2568 -1.1254
66298SOL    HW210874   1.183   3.748   3.063  0.6864 -0.6108  0.0080
66299SOL     OW10875   0.454   5.816   0.622 -0.3946  0.2393 -0.6101
66299SOL    HW110876   0.532   5.770   0.590 -0.1716  0.9541 -1.1293
66299SOL    HW210877   0.435   5.775   0.706  0.6143  0.1209 -0.4185
66300SOL     OW10878  10.877  10.370  12.470  0.4590 -0.0326  0.1626
66300SOL    HW110879  10.889  10.289  12.421 -0.7821  0.0016 -0.2235
66300SOL    HW210880  10.913  10.350  12.557  1.5179 -0.4987 -0.3550
66301SOL     OW10881   7.143  12.923  13.152  0.4862  0.1542  0.2467
66301SOL    HW110882   7.170  12.881  13.234  1.1059  0.8727  0.4243
66301SOL    HW210883   7.159  12.856  13.085  0.7503 -0.1613  0.6180
66302SOL     OW10884  11.699  13.967  10.322  0.1615  0.7126 -0.3893
66302SOL    HW110885  11.605  13.969  10.303 -0.1120  0.3394  0.8185
66302SOL    HW210886  11.729  13.883  10.287  0.0244  0.7822 -0.6749
66303SOL     OW10887  12.151   7.884  12.583 -0.4398 -0.1183  0.1148
66303SOL    HW110888  12.243   7.861  12.589 -0.0472  1.3345 -0.0538
66303SOL    HW210889  12.146   7.973  12.618 -1.7040 -0.0179 -0.2692
66304SOL     OW10890   3.264   1.564  10.594 -0.0833  0.0172  0.6603
66304SOL    HW110891   3.337   1.521  10.551 -0.2682 -0.2752  0.6310
66304SOL    HW210892   3.203   1.493  10.614 -1.3582  0.4721 -1.2587
66305SOL     OW10893   5.965   0.427   7.117 -0.0111  0.1530 -0.4358
66305SOL    HW110894   5.941   0.426   7.025  0.3282  0.2102 -0.5256
66305SOL    HW210895   5.949   0.517   7.146 -0.4116  0.0599 -0.3585
66306SOL     OW10896   3.382   6.318   0.104  0.1412 -0.0812  0.2948
66306SOL    HW110897   3.364   6.404   0.143 -2.1490  0.3219 -1.4758
66306SOL    HW210898   3.311   6.262   0.136  0.9905 -1.0492  0.5437
66307SOL     OW10899  10.884   6.585  13.865  0.4333  0.1684  0.5822
66307SOL    HW110900  10.894   6.669  13.909  0.9845  0.5669 -0.2664
66307SOL    HW210901  10.853   6.525  13.933  2.0524  0.5497  1.7207
66308SOL     OW10902   3.705   9.713  11.526 -0.1382 -0.3295  1.1340
66308SOL    HW110903   3.711   9.619  11.543 -0.1166 -0.3517  1.0015
66308SOL    HW210904   3.795   9.744  11.528  0.0759 -0.6792 -0.9447
66309SOL     OW10905   9.291   1.907   5.994 -0.0122  0.2649 -0.5205
66309SOL    HW110906   9.290   1.817   5.961  0.1424  0.2247 -0.4152
66309SOL    HW210907   9.200   1.936   5.986 -0.5018 -0.6216  1.4032
66310SOL     OW10908  12.453   5.434  10.795  0.0457  0.2035  0.1398
66310SOL    HW110909  12.452   5.481  10.879 -1.1703 -0.5414  0.5590
66310SOL    HW210910  12.472   5.344  10.817 -0.4252 -0.0294 -0.3646
66311SOL     OW10911  13.343   5.845   7.037  0.4453  0.0274  0.2595
66311SOL    HW110912  13.283   5.799   6.978  1.5281 -1.0271 -0.0458
66311SOL    HW210913  13.361   5.782   7.107  1.0770  0.3824  0.4220
66312SOL     OW10914  10.554   8.011   7.893 -0.5074  0.5037  0.1092
66312SOL    HW110915  10.552   8.005   7.797  0.1858 -0.4129  0.1292
66312SOL    HW210916  10.479   7.960   7.922 -1.1540  1.4074  0.0445
66313SOL     OW10917  11.486   4.810   5.728 -0.0954 -0.1515 -0.3043
66313SOL    HW110918  11.403   4.809   5.776 -0.5030  1.0254 -0.9615
66313SOL    HW210919  11.460   4.808   5.636  0.5885  0.5657 -0.5205
66314SOL     OW10920   2.641   5.050   2.118 -0.0855  0.0318 -0.0520
66314SOL    HW110921   2.652   5.131   2.068 -2.1688 -0.5707 -1.6433
66314SOL    HW210922   2.552   5.021   2.098  0.1559 -2.0072  1.4580
66315SOL     OW10923   7.110   5.542   2.984 -0.3421 -0.4533 -0.1394
66315SOL    HW110924   7.117   5.535   3.079  0.1140  0.5970 -0.0819
66315SOL    HW210925   7.059   5.465   2.958 -1.4278 -0.1803  1.0639
66316SOL     OW10926   8.728  12.400  12.012 -0.6933 -0.2319 -0.1783
66316SOL    HW110927   8.778  12.427  11.935 -0.2167  1.3131  0.6244
66316SOL    HW210928   8.748  12.467  12.078 -1.3207 -1.3485  1.1953
66317SOL     OW10929   6.794  11.192  13.283 -0.4648 -0.0613 -0.2302
66317SOL    HW110930   6.863  11.138  13.245 -0.7950  0.3255 -1.4359
66317SOL    HW210931   6.749  11.229  13.207 -1.8324 -0.1042  0.5351
66318SOL     OW10932  11.596   9.229   5.169 -0.4243 -0.3043 -0.0189
66318SOL    HW110933  11.533   9.238   5.098 -1.7817 -0.0154  1.1752
66318SOL    HW210934  11.667   9.289   5.146 -0.6944 -0.4411 -1.2604
66319SOL     OW10935   9.911  11.541  12.578 -0.3493 -0.2837  0.2621
66319SOL    HW110936   9.903  11.447  12.558 -2.3988 -0.6333  2.3992
66319SOL    HW210937   9.839  11.560  12.638  1.9435  1.9073  2.6001
66320SOL     OW10938   9.935  12.219   6.435  0.0431 -0.6183  0.2186
66320SOL    HW110939   9.996  12.223   6.361  0.9873  0.4237  1.0169
66320SOL    HW210940   9.848  12.223   6.395  0.5423  1.3892 -0.7971
66321SOL     OW10941   9.777   1.707  12.284  0.3312  0.2968 -0.2093
66321SOL    HW110942   9.801   1.638  12.222  1.9692  0.3781  0.2877
66321SOL    HW210943   9.798   1.789  12.240 -2.8769  0.6593 -1.3443
66322SOL     OW10944  13.790   8.000  12.300  0.8794  0.2149  0.1954
66322SOL    HW110945  13.732   8.028  12.229 -0.6174 -0.7931  0.9681
66322SOL    HW210946  13.782   8.069  12.366 -1.6917 -1.1887  1.4881
66323SOL     OW10947   4.388  10.587   8.071 -0.4314  0.0024 -0.5147
66323SOL    HW110948   4.318  10.630   8.021 -0.8370  0.4224  0.3905
66323SOL    HW210949   4.349  10.504   8.098 -1.0141  0.7216  0.9549
66324SOL     OW10950  13.790  11.652   6.808 -0.2165 -0.1021 -0.2564
66324SOL    HW110951  13.792  11.710   6.884 -0.7508 -0.7030  0.2226
66324SOL    HW210952  13.709  11.675   6.762  1.0738  1.7058 -1.8234
66325SOL     OW10953   4.860   5.631   4.477 -0.2558  0.1607 -0.7117
66325SOL    HW110954   4.769   5.627   4.449 -0.0080 -0.1307 -1.5268
66325SOL    HW210955   4.905   5.568   4.420  0.6160  1.0032 -0.9882
66326SOL     OW10956  11.911   5.396   0.763  0.5780 -0.1712  0.3921
66326SOL    HW110957  11.913   5.454   0.686 -1.6990  1.4973  1.4579
66326SOL    HW210958  11.996   5.408   0.804  1.0977  0.4524 -0.7958
66327SOL     OW10959   9.061   8.263  11.556  0.0777  0.3405 -0.4982
66327SOL    HW110960   9.060   8.351  11.594 -0.8263  0.0994  0.0825
66327SOL    HW210961   9.073   8.277  11.462 -1.5272  1.1820 -0.6162
66328SOL     OW10962   1.652   0.209  12.623 -0.2768  0.1234 -0.0299
66328SOL    HW110963   1.707   0.172  12.691 -0.1984 -0.9108 -0.6400
66328SOL    HW210964   1.576   0.151  12.618  0.0859 -0.2639 -1.3407
66329SOL     OW10965   9.739   7.055   7.855 -0.2892  0.7807 -0.1487
66329SOL    HW110966   9.785   6.995   7.913 -0.4210  1.0044  0.1918
66329SOL    HW210967   9.777   7.039   7.769 -0.0136  0.5236  0.0187
66330SOL     OW10968   1.448   1.092   7.252 -0.2126 -1.1445  0.4104
66330SOL    HW110969   1.412   1.041   7.179  0.2174 -1.3931  0.3725
66330SOL    HW210970   1.371   1.119   7.302 -0.4382 -1.8618  0.4558
66331SOL     OW10971   6.296   5.664   0.162  0.0460  0.1031 -0.6968
66331SOL    HW110972   6.286   5.605   0.236 -0.8000  1.1868  0.0804
66331SOL    HW210973   6.326   5.608   0.090  1.8218 -0.7947  0.6996
66332SOL     OW10974   4.907   2.922  13.822 -0.6999  0.0801 -0.5721
66332SOL    HW110975   4.847   2.996  13.821  0.9294  1.4591 -0.2610
66332SOL    HW210976   4.977   2.946  13.762 -0.0037 -1.0955 -0.2714
66333SOL     OW10977   0.787   4.797   3.817 -0.3630  0.2053 -0.2633
66333SOL    HW110978   0.860   4.742   3.787  0.0578 -0.1216  1.2643
66333SOL    HW210979   0.717   4.735   3.838 -0.3780  0.3479  0.1257
66334SOL     OW10980  12.920   3.965   6.046 -0.7927  0.0321 -0.3271
66334SOL    HW110981  12.993   3.902   6.044 -0.6109  0.1995 -3.1715
66334SOL    HW210982  12.867   3.937   6.121  0.8387 -1.6554  0.2949
66335SOL     OW10983  10.635  10.862  11.861  0.5369 -0.0482  0.5658
66335SOL    HW110984  10.669  10.904  11.782  1.3593 -2.0173 -0.2208
66335SOL    HW210985  10.681  10.777  11.864 -0.5203 -0.6164  2.3874
66336SOL     OW10986   2.082   7.977   0.788  0.1087 -0.4867 -0.1867
66336SOL    HW110987   1.989   7.969   0.812  0.2078 -0.9024  0.0633
66336SOL    HW210988   2.081   8.020   0.702 -0.3568 -1.4618 -0.6769
66337SOL     OW10989  11.932  13.970  13.557  0.4782  0.1052 -0.1180
66337SOL    HW110990  11.975  13.931  13.481  5.0685  0.3202  1.9637
66337SOL    HW210991  11.896  13.896  13.605  1.6225 -0.6067 -0.3165
66338SOL     OW10992  10.470   1.960   8.537 -0.6190  0.0673 -0.4659
66338SOL    HW110993  10.548   1.981   8.485 -0.0739 -1.0041 -0.1241
66338SOL    HW210994  10.505   1.922   8.618 -1.4563  1.6052  0.6660
66339SOL     OW10995   7.023  11.443  13.104  0.2991  0.2206 -0.0648
66339SOL    HW110996   7.033  11.532  13.136  1.1191  0.8315 -1.8897
66339SOL    HW210997   7.098  11.396  13.140  0.3531  0.4977  0.1815
66340SOL     OW10998   8.807   9.004  10.732 -0.3818 -0.1677  0.0514
66340SOL    HW110999   8.833   9.086  10.774 -0.3331  0.2808 -0.8542
66340SOL    HW211000   8.729   8.976  10.781  1.2885 -1.1666  2.3291
66341SOL     OW11001   7.238   2.053  10.109 -0.1759 -0.4386  0.2041
66341SOL    HW111002   7.189   2.109  10.049  1.4007  0.5941 -0.1810
66341SOL    HW211003   7.205   2.075  10.196 -0.4308  0.1804 -0.0508
66342SOL     OW11004   0.633   3.517   0.556  0.1282 -0.1345  0.0850
66342SOL    HW111005   0.691   3.443   0.578 -0.8125 -1.8311 -2.6581
66342SOL    HW211006   0.633   3.571   0.635  3.2637 -1.4557  1.1592
66343SOL     OW11007   3.164  10.992   8.285 -0.1200 -0.2006  0.4235
66343SOL    HW111008   3.247  11.016   8.245 -1.0361  1.7637 -0.4132
66343SOL    HW211009   3.112  10.957   8.213 -0.0451 -1.4510  0.9467
66344SOL     OW11010  11.630   5.909  11.775  0.3401  0.3504  0.0611
66344SOL    HW111011  11.614   5.972  11.705 -0.0221  0.2143  0.0179
66344SOL    HW211012  11.570   5.837  11.757  0.9074 -0.1126 -0.0174
66345SOL     OW11013   6.135   8.744   0.612 -0.0636  0.0512  0.6768
66345SOL    HW111014   6.172   8.725   0.698  0.8914 -0.0117  0.2582
66345SOL    HW211015   6.209   8.741   0.552 -0.8939 -1.0546 -0.3360
66346SOL     OW11016   5.854   4.345  11.345  0.3293 -0.0628 -0.0821
66346SOL    HW111017   5.883   4.256  11.328  0.8676 -0.5608  2.9096
66346SOL    HW211018   5.760   4.336  11.364  0.1530  0.1925 -0.7951
66347SOL     OW11019  12.223  10.665   7.952 -0.4848 -0.5101  0.1721
66347SOL    HW111020  12.293  10.604   7.930  0.8153  1.1216 -0.4246
66347SOL    HW211021  12.237  10.685   8.044 -0.2259 -0.2483  0.0748
66348SOL     OW11022   5.401   8.887  11.522  0.5945  0.2333  0.3377
66348SOL    HW111023   5.375   8.796  11.539  0.3557  0.0454 -0.8878
66348SOL    HW211024   5.497   8.884  11.517  0.5530 -0.1242 -0.4959
66349SOL     OW11025   4.569   7.077   5.464  0.1716  0.1860 -0.4421
66349SOL    HW111026   4.497   7.041   5.413 -0.6800  3.2489 -1.6625
66349SOL    HW211027   4.645   7.025   5.438 -1.1451 -1.6375 -0.8726
66350SOL     OW11028  13.940   9.021   5.410 -0.2169  0.0250  0.5816
66350SOL    HW111029  13.854   8.981   5.397  0.0806 -0.2920 -0.4815
66350SOL    HW211030  13.978   8.972   5.482 -0.8033 -0.0346  0.8586
66351SOL     OW11031   2.735   0.753   2.039 -0.2159  0.0559 -0.5889
66351SOL    HW111032   2.654   0.753   1.987 -0.3021 -0.6441 -0.4537
66351SOL    HW211033   2.705   0.756   2.130 -0.0694  0.7696 -0.5574
66352SOL     OW11034  13.290   2.782   7.132  0.0665  0.1116  0.1634
66352SOL    HW111035  13.293   2.839   7.209  0.0411  0.6960 -0.2610
66352SOL    HW211036  13.373   2.798   7.087  0.9695 -1.6753  1.0632
66353SOL     OW11037   6.533   6.344   0.408 -0.5657 -0.1103 -0.5334
66353SOL    HW111038   6.449   6.364   0.451 -0.0458 -0.6314  0.7904
66353SOL    HW211039   6.549   6.252   0.428 -0.0359 -0.2132 -1.4125
66354SOL     OW11040   1.557   3.184   9.090  0.0539  0.1581  0.4580
66354SOL    HW111041   1.542   3.223   9.176  0.7760  2.5946 -0.4246
66354SOL    HW211042   1.532   3.253   9.028  1.1754 -0.8972 -1.2483
66355SOL     OW11043   1.756  13.239   5.798 -0.3498  0.0864 -0.0284
66355SOL    HW111044   1.756  13.334   5.787  0.1540 -0.0212 -1.1519
66355SOL    HW211045   1.848  13.217   5.817 -0.4382 -0.1803  0.0905
66356SOL     OW11046  12.940   7.355  10.942  0.6567  0.4127  0.0545
66356SOL    HW111047  12.932   7.263  10.918 -1.0697  0.5033  0.1142
66356SOL    HW211048  12.890   7.363  11.023 -0.4345  1.6504 -0.7005
66357SOL     OW11049   3.158  10.364   9.800 -0.4731  0.4178 -0.2584
66357SOL    HW111050   3.161  10.400   9.711 -2.2600 -0.4755 -0.7302
66357SOL    HW211051   3.109  10.282   9.791  0.6964 -0.5080  1.3082
66358SOL     OW11052   2.893   8.612  13.822  0.5333 -0.2816 -0.0862
66358SOL    HW111053   2.963   8.580  13.765  2.4235 -1.6813  2.7617
66358SOL    HW211054   2.926   8.696  13.854  0.7987 -0.7679  0.9692
66359SOL     OW11055  13.804  10.748   6.072 -0.7754 -0.0821  0.4019
66359SOL    HW111056  13.892  10.753   6.034 -0.9162 -1.6346 -0.2445
66359SOL    HW211057  13.805  10.810   6.144  1.9239 -2.2612  2.4936
66360SOL     OW11058  11.624  13.482   3.635  0.0616  0.5507  0.5416
66360SOL    HW111059  11.634  13.394   3.598  1.2337  1.2887 -0.9630
66360SOL    HW211060  11.613  13.467   3.729  1.7219 -1.1407  0.5163
66361SOL     OW11061  13.250   5.130  12.402  0.2987  0.1874  0.3405
66361SOL    HW111062  13.239   5.208  12.457 -0.5268  0.2496  0.0990
66361SOL    HW211063  13.282   5.062  12.463  0.2153  0.4862  0.7203
66362SOL     OW11064   8.870   0.038  12.000  0.1372 -0.5944 -0.5246
66362SOL    HW111065   8.799   0.057  12.061  0.3337 -3.3002  0.7075
66362SOL    HW211066   8.950   0.055  12.049  0.2954 -1.6373 -0.3883
66363SOL     OW11067   6.470   3.522  10.690 -0.7231  0.3526 -0.5743
66363SOL    HW111068   6.535   3.474  10.742 -0.0648  0.9433 -0.8428
66363SOL    HW211069   6.491   3.500  10.599 -1.7515 -0.5213 -0.6338
66364SOL     OW11070  13.307   7.629  13.050  0.2349  0.5299  0.6763
66364SOL    HW111071  13.248   7.658  13.120 -1.1578  0.7661 -0.5428
66364SOL    HW211072  13.301   7.698  12.984  2.1543  0.7164  0.6292
66365SOL     OW11073   3.421  10.316  10.966  0.6680  0.5924 -0.0394
66365SOL    HW111074   3.473  10.265  10.905  0.3937  0.9082 -0.5408
66365SOL    HW211075   3.468  10.310  11.050  0.1260 -1.2945  0.1595
66366SOL     OW11076  12.857  13.477   5.624 -0.0114  0.0757  0.0576
66366SOL    HW111077  12.813  13.516   5.700  0.2097 -0.7872  0.6470
66366SOL    HW211078  12.786  13.459   5.563 -0.2149  0.6183  0.1260
66367SOL     OW11079   4.745   8.236   3.703 -0.9783  0.1135 -0.3788
66367SOL    HW111080   4.804   8.272   3.769  1.5739  0.4827 -2.6675
66367SOL    HW211081   4.697   8.167   3.748  0.5144  0.4449  1.8721
66368SOL     OW11082   7.891   2.147   2.445 -0.0267  0.4231 -0.3369
66368SOL    HW111083   7.862   2.199   2.520  0.0854 -0.0962  0.0698
66368SOL    HW211084   7.945   2.208   2.393  0.2757  0.6561  0.2450
66369SOL     OW11085  10.964   2.563   7.227 -0.0786  0.8716  0.2093
66369SOL    HW111086  10.971   2.597   7.316  0.0713  1.3700  0.0131
66369SOL    HW211087  10.891   2.611   7.189 -1.7359 -1.0634  0.8130
66370SOL     OW11088  12.109   5.920   7.922 -0.4791  0.1122  0.0762
66370SOL    HW111089  12.129   6.007   7.889  0.2751  0.5434  1.5780
66370SOL    HW211090  12.038   5.888   7.866  1.3252  0.3858 -2.5422
66371SOL     OW11091   9.519  13.297   9.886 -0.4218 -0.2819  0.0065
66371SOL    HW111092   9.497  13.208   9.858 -0.4170 -0.0339 -0.8285
66371SOL    HW211093   9.447  13.323   9.942 -1.5919 -0.0027 -1.5552
66372SOL     OW11094  10.901   4.720   3.465  0.4956  0.4666 -0.1515
66372SOL    HW111095  10.820   4.751   3.424 -2.1041 -2.2783  2.3640
66372SOL    HW211096  10.918   4.635   3.425  1.9315  0.7952 -0.3120
66373SOL     OW11097   0.849   1.255   1.533  0.1080 -0.7401  0.2526
66373SOL    HW111098   0.846   1.348   1.552  0.1095 -0.0973 -2.5418
66373SOL    HW211099   0.757   1.228   1.527  0.1071 -0.7279  0.2127
66374SOL     OW11100   7.183   1.249   9.671 -0.5460  0.3588 -0.6305
66374SOL    HW111101   7.090   1.253   9.694 -0.0634  0.4361  1.5293
66374SOL    HW211102   7.221   1.326   9.715  0.6400 -0.0476 -0.9156
66375SOL     OW11103   5.608   5.042   7.024 -0.1486 -0.2265  0.1849
66375SOL    HW111104   5.535   5.004   7.074  1.3935 -0.2926  2.5731
66375SOL    HW211105   5.677   4.975   7.028 -0.1271 -0.4784 -2.6595
66376SOL     OW11106  13.387   2.544   8.897  0.3375  0.0622  0.2773
66376SOL    HW111107  13.320   2.554   8.964 -1.5572 -1.5520 -1.2497
66376SOL    HW211108  13.437   2.467   8.925 -0.1045 -0.2838  0.1243
66377SOL     OW11109  10.580   2.978  11.935 -0.4777  0.1233 -0.3384
66377SOL    HW111110  10.606   3.062  11.973  0.7674 -0.5925  0.4376
66377SOL    HW211111  10.501   2.953  11.983  0.3624 -0.1654  0.9369
66378SOL     OW11112   3.322   4.495   7.856 -0.3891  0.1771 -0.4946
66378SOL    HW111113   3.364   4.564   7.805  2.1192 -0.7287  0.1975
66378SOL    HW211114   3.349   4.414   7.812 -2.3056 -0.4796 -0.5942
66379SOL     OW11115  10.776  11.013   9.857  0.5943 -0.2971 -0.0213
66379SOL    HW111116  10.825  11.074   9.802  0.1752  0.0278 -0.0450
66379SOL    HW211117  10.703  10.985   9.801  0.1018  0.1232  0.3960
66380SOL     OW11118   9.016   6.883   2.041  0.3525  0.1265 -0.0630
66380SOL    HW111119   9.060   6.801   2.018  1.1763  0.9834 -1.7126
66380SOL    HW211120   8.951   6.858   2.107 -0.2594 -2.0624 -1.3912
66381SOL     OW11121   3.893   3.437  13.028 -0.2918 -0.6244 -0.4411
66381SOL    HW111122   3.814   3.388  13.049  1.4501 -3.1161  0.8560
66381SOL    HW211123   3.906   3.496  13.102 -1.7043  0.9820 -1.4023
66382SOL     OW11124  11.358   3.054   3.143 -0.1137  0.0101  0.2592
66382SOL    HW111125  11.451   3.041   3.124 -0.3031 -0.8287 -0.1394
66382SOL    HW211126  11.326   3.108   3.070 -0.3889 -1.5016 -0.8001
66383SOL     OW11127   5.433   3.820  10.810 -0.2704 -0.3596  0.0857
66383SOL    HW111128   5.460   3.731  10.833  1.0556 -0.5048 -1.8489
66383SOL    HW211129   5.515   3.867  10.798 -0.9574  0.8994  0.1527
66384SOL     OW11130  13.922   2.719   5.226 -0.1624 -0.2806 -0.4706
66384SOL    HW111131  13.828   2.717   5.246  0.1596 -1.7390  1.0819
66384SOL    HW211132  13.955   2.793   5.276 -0.0424 -1.5096  1.3522
66385SOL     OW11133   4.197   2.806  13.508 -0.0849  0.2964 -0.1245
66385SOL    HW111134   4.190   2.725  13.457 -1.8170  0.0124  0.5334
66385SOL    HW211135   4.153   2.787  13.590  2.1365  0.9497  1.3206
66386SOL     OW11136   4.240   1.599   3.395  0.0291 -0.0950  0.2449
66386SOL    HW111137   4.219   1.612   3.303 -1.1026  0.2751  0.5402
66386SOL    HW211138   4.235   1.686   3.433 -0.4939 -0.3831  0.8509
66387SOL     OW11139  12.482   7.580   4.057  0.2782  0.3937  0.4532
66387SOL    HW111140  12.543   7.548   3.990 -0.4285 -1.6550  0.7240
66387SOL    HW211141  12.520   7.663   4.085  3.6051 -1.2114  1.3342
66388SOL     OW11142   7.017   3.857   4.312  0.4219  0.5445 -0.1023
66388SOL    HW111143   6.972   3.772   4.317  0.5811  0.5324  1.6880
66388SOL    HW211144   7.005   3.885   4.221 -0.6910 -0.8192 -0.4118
66389SOL     OW11145  10.647   4.279   3.234 -0.2457  0.6467  0.0127
66389SOL    HW111146  10.735   4.289   3.269  0.2803 -1.4484 -0.5646
66389SOL    HW211147  10.593   4.338   3.287  1.2790  1.0795  1.1616
66390SOL     OW11148  10.879   4.141   5.477 -0.1830 -0.2081  0.2116
66390SOL    HW111149  10.934   4.197   5.423 -0.3305  0.4515  0.7318
66390SOL    HW211150  10.902   4.052   5.451 -0.0545  0.0945 -0.7268
66391SOL     OW11151   7.533   7.724   0.133  0.2683  0.1474  0.0592
66391SOL    HW111152   7.490   7.711   0.217  0.5036  1.9994  0.4946
66391SOL    HW211153   7.585   7.644   0.120 -0.8215 -0.7381  1.0022
66392SOL     OW11154  10.110   1.499  11.202  0.3966 -0.4434 -0.2956
66392SOL    HW111155  10.186   1.440  11.205 -0.1927 -1.1853  0.9337
66392SOL    HW211156  10.096   1.516  11.109  1.4512 -1.1001 -0.5952
66393SOL     OW11157  11.723  13.506  11.921  0.1382 -0.2155  0.0554
66393SOL    HW111158  11.632  13.503  11.949  0.6386  0.3986  1.8505
66393SOL    HW211159  11.755  13.416  11.933 -0.4387 -0.6660 -1.4820
66394SOL     OW11160  13.396   4.584   1.826 -0.4155  0.1973  0.0761
66394SOL    HW111161  13.449   4.540   1.759  0.3266 -0.8984  1.3371
66394SOL    HW211162  13.353   4.512   1.873 -3.2158  1.0478 -0.9942
66395SOL     OW11163   0.535   6.595  11.487  0.0891 -0.1834  0.3365
66395SOL    HW111164   0.497   6.556  11.409 -2.3237 -0.0276  1.3639
66395SOL    HW211165   0.478   6.670  11.507  2.3931  1.6326  0.5737
66396SOL     OW11166   3.716  10.839   0.356  0.4256  0.3852  0.3593
66396SOL    HW111167   3.778  10.826   0.428 -0.2763 -2.5525  0.5714
66396SOL    HW211168   3.639  10.789   0.383 -0.3327  0.2752 -1.8589
66397SOL     OW11169  12.087  13.353  12.615  0.7794 -0.2131  0.5209
66397SOL    HW111170  12.103  13.421  12.550  0.3613 -0.4372  0.1752
66397SOL    HW211171  12.165  13.353  12.670  0.7340  0.6117  0.5869
66398SOL     OW11172   1.176   5.070   4.690  0.0659  0.0178  0.2973
66398SOL    HW111173   1.084   5.046   4.678  0.2609 -0.9649  0.6369
66398SOL    HW211174   1.207   5.010   4.758  0.7511  0.8879  0.7708
66399SOL     OW11175   3.579   4.321  11.723  0.3207 -0.0109 -0.3354
66399SOL    HW111176   3.614   4.294  11.638  0.0079  0.1469 -0.5180
66399SOL    HW211177   3.529   4.401  11.704 -1.9527 -1.3737 -0.4832
66400SOL     OW11178   8.840  12.041   3.155  0.2817  0.3312 -0.1811
66400SOL    HW111179   8.863  12.118   3.103 -1.2528  0.6969 -0.3668
66400SOL    HW211180   8.858  11.967   3.097  0.4246  0.6269 -0.5178
66401SOL     OW11181   3.440   6.229  10.451 -0.2490  0.0957 -0.5309
66401SOL    HW111182   3.357   6.266  10.420 -0.7807  0.8121  1.5565
66401SOL    HW211183   3.491   6.305  10.478  0.3619 -0.4594 -0.1039
66402SOL     OW11184   7.514   8.493  12.041 -0.4725 -0.3210  0.0372
66402SOL    HW111185   7.556   8.503  12.127 -0.5059 -0.1794  0.0361
66402SOL    HW211186   7.461   8.572  12.031  1.5993  0.9990 -1.2813
66403SOL     OW11187   8.189   2.338   6.407 -0.5474 -0.4041 -0.2125
66403SOL    HW111188   8.212   2.351   6.499  1.3986  2.2657 -0.9513
66403SOL    HW211189   8.236   2.258   6.381 -0.4088 -0.6909  0.8786
66404SOL     OW11190  13.308   7.856   1.436  0.0368 -0.2092 -0.2893
66404SOL    HW111191  13.246   7.881   1.504 -1.4015  0.8151 -1.8895
66404SOL    HW211192  13.329   7.937   1.391  2.4867 -0.5639  0.0893
66405SOL     OW11193   2.479   7.644  10.383 -0.4429 -0.1291  0.3462
66405SOL    HW111194   2.420   7.669  10.312  0.9714  0.2346 -0.7332
66405SOL    HW211195   2.493   7.550  10.371  3.0217  0.5264 -2.5208
66406SOL     OW11196   4.848   3.512   2.762 -0.0698  0.4535 -0.5368
66406SOL    HW111197   4.838   3.426   2.723  0.7255  0.3771 -0.5952
66406SOL    HW211198   4.840   3.496   2.857  1.5999  0.0466 -0.4288
66407SOL     OW11199   0.594   0.507   8.374  0.8158 -0.0285 -0.5531
66407SOL    HW111200   0.547   0.444   8.429 -0.6172  0.9945 -0.5461
66407SOL    HW211201   0.603   0.462   8.289  0.0426 -0.3553 -0.4733
66408SOL     OW11202   7.965   8.079  12.009  0.7165 -0.1811  0.3513
66408SOL    HW111203   7.948   7.989  11.983 -2.2119  0.4338 -0.2417
66408SOL    HW211204   7.982   8.125  11.927  0.8082  0.0528  0.5007
66409SOL     OW11205   8.639   5.268   9.108  0.5247 -0.0941  0.0784
66409SOL    HW111206   8.659   5.285   9.200  1.4633 -0.5578 -0.0232
66409SOL    HW211207   8.681   5.340   9.060  0.9634 -0.4268 -0.0511
66410SOL     OW11208   0.625   2.171   5.657  0.0458 -0.1897 -0.2075
66410SOL    HW111209   0.589   2.260   5.649  1.5133  0.5275  0.7142
66410SOL    HW211210   0.595   2.141   5.743 -0.5525 -0.6622 -0.5694
66411SOL     OW11211   9.211  11.834   2.249  0.3798 -0.1304 -0.2391
66411SOL    HW111212   9.292  11.854   2.201 -0.8671  1.8758 -1.6723
66411SOL    HW211213   9.233  11.849   2.341  1.5193  0.9542 -0.6529
66412SOL     OW11214   6.836   2.933  13.770  0.2692 -0.2477  0.2900
66412SOL    HW111215   6.901   2.880  13.815  0.2380  1.2514  2.2671
66412SOL    HW211216   6.886   3.005  13.732 -0.1414  0.7563  1.5741
66413SOL     OW11217   6.907   1.474   2.250 -0.4836 -0.1690 -0.4434
66413SOL    HW111218   6.919   1.476   2.345 -0.9569  0.0794 -0.3858
66413SOL    HW211219   6.907   1.380   2.228 -0.7076 -0.2413 -0.1516
66414SOL     OW11220   0.879   7.913  13.585  0.1002 -0.7087 -0.3275
66414SOL    HW111221   0.941   7.935  13.655 -1.2248  0.9094  0.4115
66414SOL    HW211222   0.914   7.957  13.508  0.5983 -0.9670 -0.2540
66415SOL     OW11223   0.126  11.310   5.649 -0.0415 -0.2994 -0.0681
66415SOL    HW111224   0.101  11.327   5.558 -0.7115  0.7678  0.2977
66415SOL    HW211225   0.094  11.387   5.697  1.5717 -0.1583  0.8463
66416SOL     OW11226   8.173   4.336   0.360 -0.7350  0.2534  0.0926
66416SOL    HW111227   8.218   4.371   0.283 -0.1290  0.2200  0.4253
66416SOL    HW211228   8.082   4.323   0.332 -1.8177  4.8066  0.7197
66417SOL     OW11229   5.245   7.444   2.421 -0.6388 -0.1492 -0.0443
66417SOL    HW111230   5.254   7.400   2.505 -2.0920 -0.2930  0.0694
66417SOL    HW211231   5.201   7.526   2.441 -1.1740 -0.2702 -0.6664
66418SOL     OW11232   4.322  11.820   1.867  0.2787 -0.1727  0.5191
66418SOL    HW111233   4.308  11.727   1.883 -1.6015 -0.3815 -1.6999
66418SOL    HW211234   4.240  11.862   1.892  0.0822  0.4668 -1.0464
66419SOL     OW11235  11.689   0.938  10.367  0.3541  0.8444  0.0397
66419SOL    HW111236  11.671   1.032  10.362 -0.3297  0.7235  0.1642
66419SOL    HW211237  11.603   0.896  10.357  0.9948 -0.0011 -5.8466
66420SOL     OW11238  11.467   2.721   5.889  0.2973 -0.9657 -0.2753
66420SOL    HW111239  11.429   2.773   5.818  0.3404 -0.2580  0.2199
66420SOL    HW211240  11.392   2.677   5.929  0.0528  0.0059  0.3560
66421SOL     OW11241   4.454   7.888   7.515 -0.6114 -0.5231  0.0585
66421SOL    HW111242   4.375   7.843   7.485 -0.3691 -1.7820  1.1709
66421SOL    HW211243   4.452   7.878   7.610  2.4420 -3.4748  0.0146
66422SOL     OW11244   5.322   4.912   8.116  0.0689  0.7073  0.2809
66422SOL    HW111245   5.271   4.964   8.055  0.5370  0.9066  0.0560
66422SOL    HW211246   5.275   4.828   8.121  0.0417  0.6802 -0.3719
66423SOL     OW11247   5.252   4.024   6.760 -0.8787  0.0459 -0.0421
66423SOL    HW111248   5.316   4.045   6.693  1.0778  1.4028  2.1028
66423SOL    HW211249   5.292   4.054   6.842 -2.9276 -1.9006  1.8231
66424SOL     OW11250   3.906  13.560   0.467  0.3816 -0.2638 -0.1380
66424SOL    HW111251   3.923  13.525   0.379  1.4730  1.2455 -0.5552
66424SOL    HW211252   3.916  13.655   0.458  0.7930 -0.0975  1.6855
66425SOL     OW11253   0.869   9.923   2.986  0.2001 -0.2235  0.1995
66425SOL    HW111254   0.955   9.889   3.010  0.8880  0.6155 -0.9509
66425SOL    HW211255   0.862  10.007   3.032 -0.9289 -1.2266  1.9691
66426SOL     OW11256   0.055   4.706   8.520  0.2099 -0.6779  0.6957
66426SOL    HW111257   0.060   4.611   8.518 -1.2146 -0.7780  0.0265
66426SOL    HW211258  -0.017   4.725   8.581 -0.7311 -0.1387 -0.5280
66427SOL     OW11259   0.575   1.230   1.599  0.2912 -0.3529 -0.5800
66427SOL    HW111260   0.575   1.300   1.665  1.6792  0.4589 -1.4015
66427SOL    HW211261   0.514   1.165   1.634  1.0415  0.0014  1.5438
66428SOL     OW11262   9.295  12.779   5.830 -0.5194 -0.0292 -0.0799
66428SOL    HW111263   9.241  12.727   5.890 -0.3545 -0.0672  0.0332
66428SOL    HW211264   9.238  12.793   5.754 -1.6847  2.1299  1.0720
66429SOL     OW11265   2.345   0.086  10.499  0.1960  0.2702  0.3082
66429SOL    HW111266   2.314   0.176  10.491 -1.1247 -0.1186  0.8344
66429SOL    HW211267   2.304   0.053  10.579  0.5140 -0.8592  0.0291
66430SOL     OW11268   5.908   7.903   4.693 -0.1396  0.2027  0.3934
66430SOL    HW111269   5.944   7.863   4.614  1.5783  0.0655  1.2011
66430SOL    HW211270   5.855   7.834   4.733  0.4449 -0.3247  0.2751
66431SOL     OW11271   1.067  11.387   9.731 -0.2821  0.5922  0.2994
66431SOL    HW111272   1.042  11.351   9.816  1.0543 -0.9857  0.0725
66431SOL    HW211273   1.024  11.330   9.667  0.3320  0.5278 -0.0682
66432SOL     OW11274   0.031   1.873   6.596 -0.2294  0.3971  0.1576
66432SOL    HW111275   0.120   1.838   6.599 -0.7326 -0.8704  1.2377
66432SOL    HW211276   0.005   1.865   6.504  0.7817  0.8629 -0.1837
66433SOL     OW11277   9.372   6.823   0.823  0.7000 -0.2264  0.1447
66433SOL    HW111278   9.465   6.836   0.805  0.6848  0.0354  0.2491
66433SOL    HW211279   9.344   6.904   0.866  0.5212 -0.4652  0.4841
66434SOL     OW11280   4.387  13.916  13.406  0.1460 -0.0526  0.0679
66434SOL    HW111281   4.333  13.838  13.399  1.0881 -1.0069  2.4877
66434SOL    HW211282   4.437  13.918  13.325 -0.7512 -1.2702 -0.5454
66435SOL     OW11283   6.138  11.035   4.709 -0.4579  0.0123 -0.1573
66435SOL    HW111284   6.143  10.940   4.713  1.5177  0.0700 -0.3762
66435SOL    HW211285   6.125  11.062   4.800  0.7696 -0.4091  0.1593
66436SOL     OW11286   1.679  13.367   3.854 -0.5869 -0.2668  0.2254
66436SOL    HW111287   1.772  13.384   3.870  0.0909  0.1880 -3.3431
66436SOL    HW211288   1.656  13.297   3.915  1.4487  1.1085  2.7396
66437SOL     OW11289  10.587   1.503   7.460  0.1724  0.4637 -0.0516
66437SOL    HW111290  10.590   1.595   7.488 -1.8435  0.4148  0.4283
66437SOL    HW211291  10.589   1.453   7.541 -2.0634  0.2122 -0.1173
66438SOL     OW11292  11.190   4.093   5.128  0.1166 -0.0403  0.0140
66438SOL    HW111293  11.138   4.026   5.173 -0.3487  0.6712  0.5585
66438SOL    HW211294  11.131   4.168   5.120 -0.1754 -0.4777 -2.7499
66439SOL     OW11295   8.850  11.412   8.789  0.0485 -0.3140 -0.1855
66439SOL    HW111296   8.821  11.321   8.784 -1.1724  0.0711 -0.4179
66439SOL    HW211297   8.890  11.429   8.704  0.5120 -0.6980 -0.0511
66440SOL     OW11298  11.310   2.722  11.036 -0.2362  0.0053 -0.2002
66440SOL    HW111299  11.219   2.703  11.060  0.2894 -0.8046  1.2771
66440SOL    HW211300  11.354   2.637  11.036  0.6349  0.4409 -0.4025
66441SOL     OW11301   7.439   0.483   3.784 -0.1219  0.2431  0.0233
66441SOL    HW111302   7.523   0.525   3.764 -0.4024  0.6188 -0.3794
66441SOL    HW211303   7.434   0.409   3.723  1.0565 -1.3256  1.7243
66442SOL     OW11304  11.465   2.049  13.663 -0.6229  0.4558 -0.0121
66442SOL    HW111305  11.532   1.980  13.665 -2.0822 -1.0097  0.6342
66442SOL    HW211306  11.480   2.094  13.580  1.6045  0.6841  0.4380
66443SOL     OW11307  10.563   2.790   7.061 -0.1206 -0.6100 -0.1128
66443SOL    HW111308  10.482   2.775   7.012 -0.4613 -1.4839  0.6860
66443SOL    HW211309  10.544   2.868   7.114 -1.1010 -1.7946  1.3668
66444SOL     OW11310   8.068   3.160   7.652 -0.5130 -0.1714 -0.2818
66444SOL    HW111311   8.127   3.198   7.717 -2.6316  0.4689  1.3869
66444SOL    HW211312   8.070   3.066   7.671 -0.9400 -0.0150  0.5969
66445SOL     OW11313   0.241   5.909   2.059  0.5273 -0.5644 -0.0391
66445SOL    HW111314   0.186   5.908   2.137  0.1468 -0.4036 -0.3031
66445SOL    HW211315   0.253   5.816   2.038  3.3307 -0.8079  2.0733
66446SOL     OW11316  12.296   5.771  13.618  0.5928  0.1393  0.0071
66446SOL    HW111317  12.386   5.757  13.590  0.7175  0.7685  0.0878
66446SOL    HW211318  12.246   5.701  13.575  0.9710  0.3565 -0.7964
66447SOL     OW11319   0.843  10.264  13.958 -0.4960  0.4018  0.0362
66447SOL    HW111320   0.802  10.202  14.018 -2.1416  0.5488 -0.8682
66447SOL    HW211321   0.821  10.231  13.871  1.9140  0.1482 -0.5290
66448SOL     OW11322   7.614   1.956   5.375 -0.5133  0.0098  0.1686
66448SOL    HW111323   7.677   1.906   5.323 -2.6735 -0.8209 -1.8461
66448SOL    HW211324   7.618   2.044   5.339 -0.3687  0.0038  0.1699
66449SOL     OW11325  10.309  12.575   7.011 -0.2150 -0.2739  0.1329
66449SOL    HW111326  10.332  12.668   7.019 -1.0024 -0.1616  1.4582
66449SOL    HW211327  10.390  12.528   7.032  0.3977  0.0916 -1.3158
66450SOL     OW11328   8.919   4.238   1.188 -1.1803  0.0351  0.6752
66450SOL    HW111329   8.842   4.212   1.239 -1.6578  0.1944  0.0486
66450SOL    HW211330   8.990   4.184   1.223 -1.6482 -0.3622  1.0303
66451SOL     OW11331  13.529   3.691   0.249  0.4638  0.4113 -0.8162
66451SOL    HW111332  13.566   3.614   0.206  0.0272  0.2614 -0.9238
66451SOL    HW211333  13.603   3.728   0.298  0.6800 -0.0652 -0.7745
66452SOL     OW11334   6.990   8.245   9.707  0.6364 -0.4774 -0.0803
66452SOL    HW111335   6.956   8.161   9.738  1.3769 -1.5949 -2.1426
66452SOL    HW211336   7.084   8.240   9.721  0.4737  1.1814  2.2881
66453SOL     OW11337  13.998   1.230  10.346  0.1067  0.3028 -0.6205
66453SOL    HW111338  14.077   1.235  10.292 -0.4124 -1.4415 -1.6099
66453SOL    HW211339  13.987   1.137  10.363  0.2331  0.7458  2.5665
66454SOL     OW11340  13.184   3.093   8.307 -0.6169  0.0777 -0.9192
66454SOL    HW111341  13.132   3.022   8.343 -0.1017  1.3306  2.6237
66454SOL    HW211342  13.263   3.096   8.361 -0.0675  2.5796 -1.7294
66455SOL     OW11343   0.707   2.569   0.148  0.2554  0.3595 -0.3940
66455SOL    HW111344   0.623   2.591   0.106 -0.0469 -0.1923 -0.0839
66455SOL    HW211345   0.738   2.493   0.099 -0.6099 -0.9569  1.0157
66456SOL     OW11346  12.075   4.776   0.516 -0.3624  0.1232 -0.2476
66456SOL    HW111347  12.056   4.863   0.480 -0.9468 -0.0501 -0.3698
66456SOL    HW211348  12.122   4.793   0.597 -2.5581  0.6433  1.0074
66457SOL     OW11349   7.742   0.149   9.597  0.3146 -0.0390 -0.0965
66457SOL    HW111350   7.688   0.070   9.585 -0.1413  0.1459  0.6448
66457SOL    HW211351   7.765   0.148   9.690 -1.7151  1.9332  0.5359
66458SOL     OW11352   1.816   6.783   4.055  0.1995  0.1247 -0.6415
66458SOL    HW111353   1.906   6.796   4.026  0.3983  0.6877  0.1767
66458SOL    HW211354   1.822   6.717   4.124 -0.2941 -1.3706 -1.9782
66459SOL     OW11355   9.627  11.101  11.445  0.8613 -0.3319 -0.0510
66459SOL    HW111356   9.657  11.188  11.470  0.8392 -0.5606  0.7995
66459SOL    HW211357   9.641  11.097  11.350  0.0950  0.8849 -0.2224
66460SOL     OW11358  10.161   9.273   0.223 -0.2806 -0.1392  0.0193
66460SOL    HW111359  10.254   9.288   0.205 -0.3227  0.1067  0.0073
66460SOL    HW211360  10.118   9.292   0.140 -0.6170  2.2351  0.6811
66461SOL     OW11361  10.411  10.058   3.244  0.8453  0.1248  0.1682
66461SOL    HW111362  10.362  10.090   3.319  1.8059  1.0865  0.4145
66461SOL    HW211363  10.489  10.018   3.282  0.9403 -0.1216 -0.2784
66462SOL     OW11364   9.619   5.271   2.520  0.1133  0.3321 -0.3359
66462SOL    HW111365   9.543   5.226   2.558 -1.2610  2.2703 -0.6242
66462SOL    HW211366   9.587   5.305   2.437  1.3703  1.0106 -0.5667
66463SOL     OW11367   4.343   2.735   1.009  0.5122 -0.0220 -0.2477
66463SOL    HW111368   4.286   2.812   1.020  1.5076  0.7055 -0.0778
66463SOL    HW211369   4.292   2.663   1.046 -0.6258  0.4616 -0.8020
66464SOL     OW11370   0.304  11.837   1.182  0.3821  0.2168  0.2118
66464SOL    HW111371   0.276  11.828   1.091  0.1669  1.5001  0.1336
66464SOL    HW211372   0.224  11.862   1.229  0.4581 -0.5888  0.7982
66465SOL     OW11373  13.309   4.361  12.748 -0.5648  0.0930 -0.5125
66465SOL    HW111374  13.253   4.314  12.686 -0.5137 -1.1228  0.3359
66465SOL    HW211375  13.278   4.451  12.745 -0.2165  0.1966 -2.7039
66466SOL     OW11376   9.118   2.947   8.163 -0.1766 -0.0302 -0.1409
66466SOL    HW111377   9.084   2.895   8.236 -0.3720 -0.3050 -0.4264
66466SOL    HW211378   9.047   3.006   8.140 -0.9927 -1.5150 -1.6194
66467SOL     OW11379   0.345   4.536   2.903  0.4333 -0.3021 -0.4548
66467SOL    HW111380   0.294   4.604   2.948  0.7550 -1.4413  1.7579
66467SOL    HW211381   0.287   4.504   2.835 -0.8114  0.2672  0.2972
66468SOL     OW11382   5.323   6.480   0.481  0.7165  0.2439 -0.4770
66468SOL    HW111383   5.391   6.468   0.547  2.2208  0.8613 -1.8553
66468SOL    HW211384   5.254   6.528   0.527  0.7358 -1.2858  1.2302
66469SOL     OW11385   7.137   2.991   6.902  0.2239  0.3037  0.4224
66469SOL    HW111386   7.139   2.903   6.940  1.5246 -0.0973 -0.5314
66469SOL    HW211387   7.055   2.993   6.852 -0.9865  0.4792  2.3064
66470SOL     OW11388  11.068   7.709   9.479 -0.2811  0.8423 -0.3459
66470SOL    HW111389  11.149   7.735   9.524 -0.1579 -0.9258  0.5444
66470SOL    HW211390  11.075   7.749   9.392  0.8825  1.8675  0.1783
66471SOL     OW11391  12.184   2.261  11.288  0.3625 -0.2223 -0.4180
66471SOL    HW111392  12.134   2.331  11.246 -2.1820 -1.1887  0.8132
66471SOL    HW211393  12.183   2.190  11.224  0.6604 -0.0559 -0.6112
66472SOL     OW11394   1.229   6.036   3.636  0.3245  0.3016  0.1727
66472SOL    HW111395   1.253   6.086   3.715  1.2642  0.5912 -0.2789
66472SOL    HW211396   1.142   6.068   3.613 -0.3777 -0.4655  1.6217
66473SOL     OW11397   7.176   4.122   5.150  0.0009 -0.1741 -0.1946
66473SOL    HW111398   7.203   4.172   5.228 -0.2417 -0.4232  0.0522
66473SOL    HW211399   7.256   4.115   5.098 -0.0100  0.6549 -0.3379
66474SOL     OW11400   7.250   9.546   8.725  0.0237 -0.2405 -0.1684
66474SOL    HW111401   7.231   9.554   8.819 -0.1032 -2.3924  0.0338
66474SOL    HW211402   7.192   9.610   8.684  0.5179  1.1716  1.2382
66475SOL     OW11403   9.064   8.311   7.914  0.1118  0.0595 -0.7926
66475SOL    HW111404   9.034   8.273   7.832  1.9440  0.0236 -1.4722
66475SOL    HW211405   9.159   8.315   7.907  0.2871  0.5691  1.1088
66476SOL     OW11406   5.754   3.570   6.150 -0.2024  0.0180 -0.2125
66476SOL    HW111407   5.796   3.551   6.234  0.2378 -2.2449 -0.8957
66476SOL    HW211408   5.826   3.589   6.090 -0.4072  0.0386 -0.4552
66477SOL     OW11409   1.269   7.810  12.197  0.6473  0.1212  0.3166
66477SOL    HW111410   1.288   7.722  12.166  2.0908  0.7331 -0.6584
66477SOL    HW211411   1.355   7.850  12.210  0.0227  1.6621 -0.0907
66478SOL     OW11412   3.838   7.571   4.108  0.1867 -0.0922  0.6755
66478SOL    HW111413   3.835   7.606   4.197 -0.0004  0.5606  0.4225
66478SOL    HW211414   3.930   7.548   4.094  0.1981 -0.2901  1.0713
66479SOL     OW11415   0.827   3.233  10.932  0.3362  0.3362 -0.0265
66479SOL    HW111416   0.745   3.270  10.899  1.5856  1.5897 -1.8489
66479SOL    HW211417   0.856   3.174  10.863 -0.5648 -2.7023  1.9599
66480SOL     OW11418   0.857   6.367   4.377  0.3237  0.3054  0.0811
66480SOL    HW111419   0.868   6.336   4.288 -1.1300 -1.5118  0.4793
66480SOL    HW211420   0.837   6.460   4.368 -0.7448 -0.0503 -1.5538
66481SOL     OW11421  12.212   1.466   0.369 -0.2007  0.0599  0.3586
66481SOL    HW111422  12.279   1.522   0.407  0.6248 -1.2447  0.9113
66481SOL    HW211423  12.203   1.497   0.278  1.7061 -0.2052  0.0433
66482SOL     OW11424  13.231   6.228   8.421 -0.2686 -0.1728  0.3625
66482SOL    HW111425  13.277   6.305   8.455 -1.0359  0.9283 -0.9869
66482SOL    HW211426  13.274   6.153   8.463  1.4844  0.9090  0.5614
66483SOL     OW11427  11.880  13.787   6.010  0.8731 -0.8158  0.4124
66483SOL    HW111428  11.808  13.727   6.026 -0.9198  0.6504 -1.6187
66483SOL    HW211429  11.839  13.864   5.970  3.6321 -0.2289 -1.5740
66484SOL     OW11430   9.967   6.743   2.658  0.1722  0.1622 -0.6449
66484SOL    HW111431   9.987   6.831   2.627  0.8312  0.0294 -0.6101
66484SOL    HW211432  10.039   6.721   2.718  0.4219 -0.6863 -1.2267
66485SOL     OW11433  12.332   0.688   8.053 -0.1121  0.3481  0.0800
66485SOL    HW111434  12.316   0.681   7.959 -1.6074  0.7941  0.2806
66485SOL    HW211435  12.427   0.695   8.061 -0.0239  1.0826 -1.4488
66486SOL     OW11436   0.631   8.651   1.645  0.9227  0.0977  0.5233
66486SOL    HW111437   0.558   8.660   1.706  0.5636 -0.4997  0.1821
66486SOL    HW211438   0.684   8.730   1.660 -0.4673  1.2044 -0.1530
66487SOL     OW11439  11.823   0.157   7.718  0.3618 -0.2111 -0.1908
66487SOL    HW111440  11.789   0.087   7.773  0.7106 -0.3662 -0.1711
66487SOL    HW211441  11.902   0.121   7.679  1.6479  0.8238  1.3312
66488SOL     OW11442   9.110   4.468   1.932 -0.0721  0.2242 -0.4023
66488SOL    HW111443   9.054   4.544   1.953 -1.2128 -0.8185  0.4805
66488SOL    HW211444   9.086   4.445   1.842  1.8162  2.1542 -1.4893
66489SOL     OW11445  11.679   1.311  10.958  0.0759 -0.1449  0.0634
66489SOL    HW111446  11.637   1.268  11.032 -1.0336 -0.3990 -0.6990
66489SOL    HW211447  11.607   1.335  10.899  0.4153  3.8797  0.9733
66490SOL     OW11448   4.901   3.723   4.830 -0.3432 -0.4139 -0.2838
66490SOL    HW111449   4.910   3.764   4.916 -0.1145 -1.4286  0.1903
66490SOL    HW211450   4.829   3.770   4.788 -2.0434 -1.4066  1.3626
66491SOL     OW11451  11.952   6.992   2.710 -0.1218 -0.0559  0.2768
66491SOL    HW111452  11.961   7.077   2.752 -0.8384  1.3938 -2.2827
66491SOL    HW211453  12.038   6.952   2.718  1.2259  2.2984 -1.1232
66492SOL     OW11454   2.013   0.440   7.715 -0.1441  0.4985  0.7393
66492SOL    HW111455   1.959   0.378   7.665 -0.3741  0.1933  1.3519
66492SOL    HW211456   2.011   0.406   7.805  0.8798  0.6142  0.8174
66493SOL     OW11457   1.213  13.781   9.240 -0.1432  0.5024  0.5166
66493SOL    HW111458   1.125  13.815   9.255 -0.0086  0.6731  0.9236
66493SOL    HW211459   1.217  13.699   9.290  0.0567  0.6925  0.8155
66494SOL     OW11460   2.398   9.856  12.281  0.1380 -0.2095  0.0527
66494SOL    HW111461   2.460   9.825  12.347 -0.1821 -0.7240  0.1086
66494SOL    HW211462   2.324   9.796  12.286  0.0039 -0.1117 -0.6088
66495SOL     OW11463   4.020   9.243   2.111  0.0920 -0.5994 -0.2990
66495SOL    HW111464   4.075   9.170   2.083  1.4623 -0.0935  0.9185
66495SOL    HW211465   4.081   9.303   2.154 -0.9308  1.3955 -1.4621
66496SOL     OW11466  12.822  13.830   5.722 -0.0920 -0.4821 -0.1550
66496SOL    HW111467  12.918  13.830   5.731 -0.0262 -2.1424 -0.5110
66496SOL    HW211468  12.795  13.745   5.756 -1.3469 -0.4819 -1.0964
66497SOL     OW11469   8.799   1.514   0.473  0.6287  0.0059 -0.0119
66497SOL    HW111470   8.808   1.424   0.506  1.5704 -0.5956 -1.7835
66497SOL    HW211471   8.762   1.504   0.385 -0.6321  1.4696  0.3089
66498SOL     OW11472   9.031   8.577   5.402 -0.2802 -0.2948  0.0373
66498SOL    HW111473   8.948   8.607   5.439 -0.0031  1.4650 -0.6805
66498SOL    HW211474   9.006   8.516   5.333 -0.9950  0.5673 -0.4758
66499SOL     OW11475   1.221   0.913   1.736 -0.1021 -0.2184 -0.2797
66499SOL    HW111476   1.192   0.883   1.822 -0.0585 -0.2512 -0.2766
66499SOL    HW211477   1.143   0.954   1.697 -0.0634 -0.0160 -0.1398
66500SOL     OW11478  12.601   7.241   0.768 -0.2022 -0.2309  0.1460
66500SOL    HW111479  12.536   7.221   0.835  0.1523 -1.8565  0.0557
66500SOL    HW211480  12.646   7.158   0.753  1.0276  0.5535 -0.7214
66501SOL     OW11481   1.896  11.014   9.380  1.0282 -0.0964 -0.4904
66501SOL    HW111482   1.864  10.948   9.442 -0.9573 -0.1967 -1.5659
66501SOL    HW211483   1.893  11.096   9.430  0.4760 -0.3356 -0.1155
66502SOL     OW11484   8.725   4.762  12.984 -0.1100  0.5815  0.4190
66502SOL    HW111485   8.766   4.682  12.949 -0.9169 -0.2179  1.2637
66502SOL    HW211486   8.634   4.757  12.955 -0.8480 -0.1760  2.6507
66503SOL     OW11487   1.201  10.482   8.374  0.2375  0.2906  0.1640
66503SOL    HW111488   1.235  10.413   8.318 -0.7306  0.8272 -1.1389
66503SOL    HW211489   1.273  10.544   8.384  0.8257 -0.4529  0.6164
66504SOL     OW11490  11.414   9.838   3.430  0.1144 -0.9277 -0.1612
66504SOL    HW111491  11.406   9.894   3.353 -1.7556 -1.7579 -0.6495
66504SOL    HW211492  11.383   9.752   3.400 -0.7571 -1.2510  1.5222
66505SOL     OW11493  13.493  13.314  12.427 -0.1273  0.0566  0.4307
66505SOL    HW111494  13.414  13.339  12.379 -0.3587 -0.7149  0.3976
66505SOL    HW211495  13.540  13.255  12.368 -0.4571 -0.9716  1.1524
66506SOL     OW11496   2.843   0.235   9.606  0.7466  0.7381 -0.3441
66506SOL    HW111497   2.782   0.175   9.650 -0.8218  2.4535 -0.0565
66506SOL    HW211498   2.929   0.197   9.621 -0.0503 -0.5387  1.2800
66507SOL     OW11499   8.570  13.126   5.061 -0.5356 -0.2136  0.3799
66507SOL    HW111500   8.522  13.173   4.993 -0.1510  0.3616  0.5056
66507SOL    HW211501   8.627  13.191   5.100  0.4872 -0.9184  0.1208
66508SOL     OW11502  12.550  10.961   0.590 -0.2339  0.0230  0.2099
66508SOL    HW111503  12.469  11.009   0.572  0.3900  0.6273 -1.2096
66508SOL    HW211504  12.614  11.029   0.611 -0.0245 -0.4297  1.0685
66509SOL     OW11505   9.983   4.027  13.794 -0.0579 -0.5015  0.2923
66509SOL    HW111506  10.059   3.986  13.837  0.2241  0.9253  1.2504
66509SOL    HW211507   9.910   4.009  13.853 -0.3844 -1.4927 -0.4040
66510SOL     OW11508   2.558   1.470   3.796 -0.2177 -0.8172  0.4447
66510SOL    HW111509   2.566   1.541   3.732 -1.0139 -1.0907  0.0419
66510SOL    HW211510   2.503   1.506   3.865 -0.4720 -0.9829  0.3279
66511SOL     OW11511  11.242   4.126  13.363 -0.3121  0.2694 -0.4207
66511SOL    HW111512  11.229   4.058  13.296 -1.4803 -0.2490  0.2908
66511SOL    HW211513  11.187   4.097  13.436 -2.9878  3.2771 -1.0191
66512SOL     OW11514  11.670   8.389  10.733  0.2221  0.3897 -0.1886
66512SOL    HW111515  11.707   8.309  10.771  1.1538  0.7586 -0.2863
66512SOL    HW211516  11.745   8.434  10.696 -0.4416  0.8249 -1.0393
66513SOL     OW11517   6.909   3.712   2.040  0.3985  0.4567 -0.0166
66513SOL    HW111518   6.825   3.672   2.019  0.4752  1.3067 -2.1720
66513SOL    HW211519   6.912   3.712   2.136 -1.8721  0.0756  0.1146
66514SOL     OW11520   9.737   1.376   6.456 -0.4333  0.2981  0.1176
66514SOL    HW111521   9.776   1.375   6.368 -1.0652 -0.7407 -0.1626
66514SOL    HW211522   9.656   1.427   6.445 -0.1652  0.7671  0.2665
66515SOL     OW11523  10.640  13.720  10.083  0.1562  0.7535 -0.0340
66515SOL    HW111524  10.689  13.681  10.156 -2.4355  0.0004  1.4095
66515SOL    HW211525  10.603  13.645  10.036  0.3304  1.3067 -1.0883
66516SOL     OW11526   0.665   9.868   9.908 -0.2085  0.2296 -0.0955
66516SOL    HW111527   0.648   9.936   9.973  0.2147 -1.8713  2.4193
66516SOL    HW211528   0.759   9.873   9.892 -0.2072  0.3689 -0.0390
66517SOL     OW11529   5.028   8.814   2.781 -0.2910 -0.3764 -0.1999
66517SOL    HW111530   5.124   8.813   2.782 -0.2641  0.2489 -0.8772
66517SOL    HW211531   5.002   8.755   2.851  0.5982  0.2224  0.6571
66518SOL     OW11532  13.451   6.484  10.480 -0.0478  0.0034 -0.7620
66518SOL    HW111533  13.377   6.423  10.486 -0.1293  0.2345  1.1520
66518SOL    HW211534  13.435   6.548  10.549  2.7833 -0.8896  0.8733
66519SOL     OW11535   2.511   7.216  11.745  0.4993 -0.7475 -0.2722
66519SOL    HW111536   2.419   7.243  11.746 -0.2322 -2.9937 -0.2769
66519SOL    HW211537   2.521   7.171  11.660  2.5131  2.1157 -1.7083
66520SOL     OW11538   5.162   7.330   0.664  0.0710  0.6090  0.2656
66520SOL    HW111539   5.118   7.391   0.723 -1.1030 -0.5432  0.6418
66520SOL    HW211540   5.174   7.251   0.717 -1.7153 -0.7384 -1.1879
66521SOL     OW11541   8.476  10.085  13.682 -0.7381 -0.1310 -0.1559
66521SOL    HW111542   8.409  10.150  13.660  0.2179 -0.2076 -4.0101
66521SOL    HW211543   8.429  10.002  13.682 -0.8796 -0.0803 -1.8904
66522SOL     OW11544  11.532   3.757  10.526  0.0402 -0.2031 -0.1383
66522SOL    HW111545  11.538   3.783  10.618  0.6196  0.8702 -0.4618
66522SOL    HW211546  11.467   3.817  10.489  0.0695 -0.3986 -0.5095
66523SOL     OW11547   4.774   9.197   6.558  0.3601 -0.4365  0.5823
66523SOL    HW111548   4.857   9.175   6.516 -0.0697 -1.2268  0.1216
66523SOL    HW211549   4.708   9.145   6.511 -0.8001  2.1521 -0.8805
66524SOL     OW11550   4.132   1.837   5.067  0.3900 -0.2336 -0.1134
66524SOL    HW111551   4.066   1.795   5.011  0.7983  1.5048 -2.0251
66524SOL    HW211552   4.146   1.923   5.027 -0.8207  2.0938  3.8668
66525SOL     OW11553   4.423   1.463  11.544  0.5872 -0.0245  0.2038
66525SOL    HW111554   4.464   1.489  11.461  0.6429 -0.9330 -0.0594
66525SOL    HW211555   4.332   1.446  11.521  1.0174 -2.1777 -0.0908
66526SOL     OW11556   4.438   1.154   8.524 -0.0856 -0.8486 -0.1416
66526SOL    HW111557   4.466   1.240   8.493 -2.0586  0.2215  0.7949
66526SOL    HW211558   4.432   1.164   8.619 -1.6882 -1.5500 -0.1325
66527SOL     OW11559   0.017  13.323  10.887 -0.1010 -0.1811 -1.0143
66527SOL    HW111560  -0.070  13.341  10.924 -0.1222 -1.5889 -0.3017
66527SOL    HW211561   0.056  13.409  10.873 -1.5449  0.4650 -1.1846
66528SOL     OW11562  12.055   9.600   7.029 -0.0710  0.1675 -0.1718
66528SOL    HW111563  12.064   9.590   7.124 -0.1630 -0.5646 -0.2333
66528SOL    HW211564  12.042   9.511   6.997 -1.3073  0.5435 -0.7454
66529SOL     OW11565   9.723  11.702  10.091  0.1615  0.1803 -0.3597
66529SOL    HW111566   9.794  11.641  10.108 -0.6593 -0.2222  2.0539
66529SOL    HW211567   9.718  11.708   9.996  2.0168 -1.4112 -0.6133
66530SOL     OW11568   2.182  12.605   6.545  0.2339 -0.2086  0.7441
66530SOL    HW111569   2.276  12.613   6.535  0.3723 -2.9827 -0.9571
66530SOL    HW211570   2.163  12.512   6.536 -2.8772  0.4446 -1.3018
66531SOL     OW11571  10.550   1.986  13.395  0.3493 -0.4942 -0.6195
66531SOL    HW111572  10.592   2.053  13.340  2.4703  0.5310  2.0286
66531SOL    HW211573  10.532   2.031  13.478 -1.5208 -2.3170  0.0452
66532SOL     OW11574   0.859  10.875   5.570  0.5739  0.0823  0.4259
66532SOL    HW111575   0.825  10.964   5.564  0.9301  0.1317 -1.2456
66532SOL    HW211576   0.787  10.820   5.541  0.3536 -0.1893  1.4618
66533SOL     OW11577   0.339   0.993   2.748 -0.3178 -0.2317 -0.2912
66533SOL    HW111578   0.369   0.917   2.699  0.9916  1.0910 -1.6474
66533SOL    HW211579   0.333   1.063   2.683  0.2573  1.2866  1.2039
66534SOL     OW11580   5.838  11.647   1.730 -0.3688  0.1299 -0.0774
66534SOL    HW111581   5.761  11.647   1.673 -1.3308 -1.0263  1.1529
66534SOL    HW211582   5.893  11.577   1.696  0.3898  1.2310 -1.2170
66535SOL     OW11583   2.431   4.950  10.848 -0.8021 -0.5236 -0.1104
66535SOL    HW111584   2.404   4.964  10.757  0.4189  0.1644 -0.3864
66535SOL    HW211585   2.424   4.855  10.860  2.0833 -1.1247 -1.9943
66536SOL     OW11586  10.423   1.466   2.363 -0.4517 -0.2707  0.7190
66536SOL    HW111587  10.418   1.498   2.453  0.6663 -0.5292  0.8854
66536SOL    HW211588  10.344   1.413   2.352 -1.2812  0.8538  1.1002
66537SOL     OW11589  11.402  13.719  10.439  0.5777 -0.1493  0.2933
66537SOL    HW111590  11.409  13.636  10.392 -0.7043  0.3570 -0.8706
66537SOL    HW211591  11.408  13.786  10.370 -1.8802  0.6109  0.7263
66538SOL     OW11592   2.664  10.893   7.353 -0.0169  0.0373 -0.7662
66538SOL    HW111593   2.612  10.921   7.278  0.7897  0.7466 -1.0810
66538SOL    HW211594   2.693  10.805   7.331 -2.2213 -0.9697  0.0395
66539SOL     OW11595   1.345   4.699   1.127 -0.4347 -0.5120 -1.0494
66539SOL    HW111596   1.275   4.646   1.167 -0.5242  0.1964 -0.2463
66539SOL    HW211597   1.383   4.747   1.200  0.7347 -0.6867 -1.5222
66540SOL     OW11598  13.213   9.956  10.394 -0.1509  0.7619 -0.2536
66540SOL    HW111599  13.196  10.038  10.347  0.1372  1.3751  0.6769
66540SOL    HW211600  13.208   9.888  10.327 -1.3318  1.4348 -0.8871
66541SOL     OW11601   6.820   3.237  13.492 -0.2911 -0.1700  0.0940
66541SOL    HW111602   6.797   3.187  13.413 -1.5715 -0.1578  0.4250
66541SOL    HW211603   6.876   3.178  13.542  0.6931 -0.1100 -0.8869
66542SOL     OW11604   9.164   1.668   1.764  0.2361  0.2122  0.6276
66542SOL    HW111605   9.180   1.644   1.855  1.0665 -1.6431  0.0367
66542SOL    HW211606   9.216   1.748   1.751  0.2635  0.3876  1.7080
66543SOL     OW11607   2.004   0.457   0.498  0.3402  0.0144  0.5006
66543SOL    HW111608   1.953   0.391   0.544  0.6648 -0.6104 -0.0186
66543SOL    HW211609   1.939   0.510   0.452  0.1637 -1.1448 -0.6454
66544SOL     OW11610   9.515   3.936   1.492  0.3203 -0.1368 -0.2114
66544SOL    HW111611   9.553   3.874   1.430  0.4297  0.8513 -1.1599
66544SOL    HW211612   9.492   4.012   1.438  1.8587  1.3967  1.1846
66545SOL     OW11613   1.369  10.361  14.019  0.3809  0.5100 -0.4888
66545SOL    HW111614   1.369  10.421  13.945 -0.4216 -0.3241 -1.1895
66545SOL    HW211615   1.279  10.330  14.025  0.3994  0.6466  0.9166
66546SOL     OW11616   2.474   3.282   6.919 -0.0726 -0.3142 -0.1470
66546SOL    HW111617   2.436   3.287   7.007 -1.0239 -2.1212 -0.4041
66546SOL    HW211618   2.545   3.346   6.920 -0.3509  0.0312  1.7901
66547SOL     OW11619   7.628   3.512   9.377  0.3204  0.4815 -0.3457
66547SOL    HW111620   7.643   3.592   9.327 -1.6295  1.3631  0.3881
66547SOL    HW211621   7.627   3.540   9.468 -1.7045 -0.0907 -0.1346
66548SOL     OW11622  13.727   0.377  11.435 -0.3691  0.0826  0.4423
66548SOL    HW111623  13.633   0.385  11.453 -0.3563 -0.7218  0.9095
66548SOL    HW211624  13.750   0.290  11.467  0.8390  0.8164  1.6413
66549SOL     OW11625  11.711   3.022  12.583 -0.1177  0.0097 -0.3852
66549SOL    HW111626  11.673   3.088  12.640 -0.7890 -2.5434  2.3872
66549SOL    HW211627  11.640   2.961  12.566  1.2300 -1.7411 -0.0407
66550SOL     OW11628   0.277  13.434   2.608 -0.3082 -0.1057  0.2360
66550SOL    HW111629   0.198  13.414   2.658 -0.6100  1.5278  0.4582
66550SOL    HW211630   0.309  13.515   2.645 -1.0380  1.6828 -2.7265
66551SOL     OW11631   3.574   2.453   4.213  0.4897 -0.2484  0.7561
66551SOL    HW111632   3.524   2.523   4.171 -0.5778 -1.2160  0.3621
66551SOL    HW211633   3.659   2.454   4.168 -0.2283 -0.5127 -0.6750
66552SOL     OW11634   7.202   4.423  13.417  1.1116  0.7103 -0.7156
66552SOL    HW111635   7.150   4.502  13.417  0.5343  0.3464  0.0584
66552SOL    HW211636   7.158   4.365  13.355 -1.1553 -0.6569  1.9373
66553SOL     OW11637   9.308  12.595  10.383  0.4618 -0.2192 -0.3821
66553SOL    HW111638   9.312  12.610  10.477 -0.2468  0.0245 -0.3882
66553SOL    HW211639   9.279  12.678  10.346 -0.0174 -0.5412 -0.7451
66554SOL     OW11640   2.746   3.366   1.712  0.2867  0.1794 -0.1756
66554SOL    HW111641   2.764   3.405   1.627 -1.3970 -0.1162 -0.6939
66554SOL    HW211642   2.699   3.434   1.760 -0.1138 -0.1846 -0.0455
66555SOL     OW11643  12.269   7.886   7.618 -0.2361  0.5475  0.0903
66555SOL    HW111644  12.361   7.876   7.594 -0.0309  0.6879  0.7973
66555SOL    HW211645  12.224   7.898   7.535  0.1998 -0.9051 -0.3945
66556SOL     OW11646   5.091   9.572   3.958  0.0002  0.4992  0.1336
66556SOL    HW111647   5.175   9.527   3.955  0.2994  1.0312  0.2449
66556SOL    HW211648   5.029   9.512   3.917  0.1073 -0.5935  1.5163
66557SOL     OW11649   5.304   5.541  13.474 -0.6148 -0.0096  0.4738
66557SOL    HW111650   5.222   5.557  13.428 -1.3014  1.0363  1.9862
66557SOL    HW211651   5.290   5.575  13.562  1.9603  1.6228  0.3573
66558SOL     OW11652   0.320  11.452   6.994  0.6430  0.3619 -0.8394
66558SOL    HW111653   0.232  11.487   6.983  0.2738 -0.7545 -1.6026
66558SOL    HW211654   0.355  11.499   7.070 -0.8573  0.3239 -0.0830
66559SOL     OW11655   1.241   4.923   2.661  0.2358  0.3165 -0.0161
66559SOL    HW111656   1.245   5.004   2.609  3.6558  0.6237  0.4572
66559SOL    HW211657   1.150   4.916   2.689 -0.7717  2.4937 -2.3698
66560SOL     OW11658   7.659   9.186   6.908 -0.2203  0.5073  0.5318
66560SOL    HW111659   7.636   9.279   6.919 -1.3896  0.2770  0.1349
66560SOL    HW211660   7.692   9.160   6.994 -0.7581  1.0587  0.9246
66561SOL     OW11661  10.024   9.561  10.319  0.2502  0.0467 -0.2518
66561SOL    HW111662  10.098   9.507  10.347  0.1508 -0.0913 -0.2546
66561SOL    HW211663   9.976   9.506  10.258 -0.4202 -0.2407  0.5117
66562SOL     OW11664   3.053   1.831  11.202 -0.4232  0.0028  0.1890
66562SOL    HW111665   2.995   1.758  11.222  1.0922 -1.3560 -0.1900
66562SOL    HW211666   3.135   1.790  11.177  0.9128  1.8665  1.2883
66563SOL     OW11667   0.899   4.999   1.216  0.0595  0.2633 -0.0892
66563SOL    HW111668   0.914   4.905   1.224 -0.4405  0.1644 -0.2734
66563SOL    HW211669   0.803   5.008   1.214  0.0556  0.4925 -2.9632
66564SOL     OW11670   6.942   8.602   2.854 -0.4834 -0.1369 -0.0690
66564SOL    HW111671   6.958   8.652   2.773 -0.7529 -0.5720 -0.3981
66564SOL    HW211672   6.848   8.611   2.869 -0.4954 -0.3724 -0.0123
66565SOL     OW11673   9.251   7.783   1.780  0.2440  0.0261  0.4167
66565SOL    HW111674   9.197   7.726   1.726 -0.8260 -0.0218  1.4873
66565SOL    HW211675   9.216   7.871   1.765  1.2877  0.3047 -0.5195
66566SOL     OW11676   1.823   1.822   9.644  0.7724  0.3008  0.4239
66566SOL    HW111677   1.887   1.767   9.599 -0.2555  0.8071 -1.7855
66566SOL    HW211678   1.738   1.792   9.611 -0.1381  0.1094  2.7532
66567SOL     OW11679  11.502  13.963   8.241  0.1356  0.0182  0.1235
66567SOL    HW111680  11.434  13.967   8.173 -0.8178  0.7737  1.0804
66567SOL    HW211681  11.454  13.944   8.321  1.1936 -0.4326  0.6695
66568SOL     OW11682   5.729  13.589  10.542 -0.4705  0.1532 -0.1662
66568SOL    HW111683   5.811  13.540  10.551 -0.8514 -0.7435 -1.3207
66568SOL    HW211684   5.667  13.541  10.597 -0.3751  0.4879  0.2387
66569SOL     OW11685   8.511   0.710  13.551  0.1846 -0.3121 -0.3784
66569SOL    HW111686   8.502   0.680  13.461 -0.5012 -0.3752 -0.2979
66569SOL    HW211687   8.532   0.631  13.601 -0.6900 -0.5081 -0.3046
66570SOL     OW11688   6.907  12.146   6.838 -0.3670 -0.3312 -0.2940
66570SOL    HW111689   6.875  12.122   6.926  2.9618  0.0645  1.1709
66570SOL    HW211690   6.858  12.225   6.815 -2.0133 -1.0076  0.7375
66571SOL     OW11691  10.789   9.225   9.061  0.2924  0.2044  0.2437
66571SOL    HW111692  10.794   9.291   8.992  2.3582  1.5715  1.6048
66571SOL    HW211693  10.831   9.148   9.022  0.2373  0.5184 -0.4654
66572SOL     OW11694   1.468   9.714  12.021  0.8660  0.0155  0.4849
66572SOL    HW111695   1.404   9.663  12.070  1.6288  0.3137  1.8183
66572SOL    HW211696   1.514   9.649  11.967 -0.1723 -0.2684 -0.0980
66573SOL     OW11697  13.845  12.542  12.309  0.1323  0.2372 -0.5064
66573SOL    HW111698  13.825  12.542  12.403  0.8816 -0.3303 -0.3475
66573SOL    HW211699  13.792  12.471  12.273 -0.9911  1.1403 -0.7091
66574SOL     OW11700   3.391  13.503   2.299  0.1214  0.1734 -0.2448
66574SOL    HW111701   3.413  13.585   2.254  1.0829  0.2611  0.3456
66574SOL    HW211702   3.295  13.500   2.298  0.0617  1.3444 -0.2203
66575SOL     OW11703   3.256   8.376   9.202  0.7166  0.5090  0.3583
66575SOL    HW111704   3.220   8.453   9.158 -3.2717 -1.1284  0.3079
66575SOL    HW211705   3.252   8.398   9.295 -0.5974  0.3560  0.3570
66576SOL     OW11706   1.080   9.042  13.373  0.5558 -0.1928  0.3191
66576SOL    HW111707   1.052   9.122  13.329  0.8192  0.5698  1.4809
66576SOL    HW211708   0.998   9.003  13.404  0.5625  1.1140  2.1657
66577SOL     OW11709   2.450  10.076   2.749  0.2890  0.2281 -0.0970
66577SOL    HW111710   2.433  10.080   2.655  0.0886 -0.2816 -0.0847
66577SOL    HW211711   2.401  10.000   2.780  0.1653  0.5282  0.4632
66578SOL     OW11712   9.347   2.324  10.521  0.5915  0.4862 -0.6513
66578SOL    HW111713   9.328   2.285  10.435  2.8156 -1.4483 -0.3837
66578SOL    HW211714   9.279   2.290  10.579 -0.0587  0.5841 -1.3483
66579SOL     OW11715  13.407   3.564  13.982 -0.7930  0.3816  0.1151
66579SOL    HW111716  13.417   3.469  13.988  1.0962  0.4863 -0.5581
66579SOL    HW211717  13.344   3.577  13.911  0.6005 -0.3841 -1.3338
66580SOL     OW11718   7.600  13.312   9.716 -0.2610 -0.2061  0.0238
66580SOL    HW111719   7.506  13.298   9.713  0.0306 -2.5419  0.0886
66580SOL    HW211720   7.633  13.244   9.776  1.5410  0.0518 -0.5974
66581SOL     OW11721  12.880   3.332   0.505  0.3613 -0.0382  0.1439
66581SOL    HW111722  12.921   3.285   0.576 -1.0539 -0.5327  0.6605
66581SOL    HW211723  12.859   3.265   0.440  0.9872  0.3079 -0.4294
66582SOL     OW11724   4.851   1.139  12.065 -0.5148  0.0002 -0.1000
66582SOL    HW111725   4.794   1.070  12.029  3.8137 -2.4700 -3.2345
66582SOL    HW211726   4.882   1.186  11.987  0.2962  2.4655  1.6158
66583SOL     OW11727   8.628   4.935   2.431  0.3493  0.5713 -0.4497
66583SOL    HW111728   8.616   4.860   2.373  1.6694  0.1910 -0.2739
66583SOL    HW211729   8.722   4.954   2.425 -0.2502  3.5171 -2.0689
66584SOL     OW11730   8.121   5.366   4.298 -0.1462  0.6154 -0.0305
66584SOL    HW111731   8.190   5.418   4.258 -0.4815  0.1938 -1.1937
66584SOL    HW211732   8.041   5.392   4.251 -0.7798  1.0322  1.2280
66585SOL     OW11733  10.940  11.738   3.711  0.3371 -0.3793 -0.1234
66585SOL    HW111734  11.023  11.691   3.699  2.5566  3.4138 -1.0969
66585SOL    HW211735  10.949  11.780   3.796 -0.9181 -0.4004  0.0347
66586SOL     OW11736   1.689  13.907   8.174  0.2104 -0.5532  1.0287
66586SOL    HW111737   1.675  14.000   8.153  0.3790 -0.4979  1.1501
66586SOL    HW211738   1.633  13.890   8.249 -3.5801 -1.7933 -1.7409
66587SOL     OW11739  12.155   2.040  12.846 -0.6704 -0.0427  0.1738
66587SOL    HW111740  12.204   2.051  12.764  0.0037 -1.4650  0.3493
66587SOL    HW211741  12.090   1.972  12.825 -0.1527 -0.7962  0.9401
66588SOL     OW11742  10.439  10.335   0.076  0.0802 -0.5906 -0.5216
66588SOL    HW111743  10.405  10.310  -0.010  0.5440 -1.1831 -0.5361
66588SOL    HW211744  10.530  10.359   0.060 -0.2656  0.8268 -0.4519
66589SOL     OW11745   7.542  10.985  12.641  0.0836 -0.0589 -0.2724
66589SOL    HW111746   7.574  11.069  12.672 -0.3044 -0.8591  2.6475
66589SOL    HW211747   7.449  10.985  12.663  0.1366 -1.3374  0.0487
66590SOL     OW11748   3.579   5.215   4.249  0.1119  0.3674  0.2757
66590SOL    HW111749   3.499   5.254   4.214  1.4973  2.0988 -1.2027
66590SOL    HW211750   3.557   5.190   4.339 -2.5433 -0.8479 -0.5952
66591SOL     OW11751   1.977  11.673   9.215 -0.2600  0.1324 -0.1511
66591SOL    HW111752   1.985  11.696   9.122 -0.5393 -0.3547 -0.2973
66591SOL    HW211753   1.953  11.756   9.258 -0.7828  0.2225 -0.6070
66592SOL     OW11754  13.081   2.357   9.894  0.1682  0.8504  0.1874
66592SOL    HW111755  13.161   2.366   9.947  0.0380  2.8987  0.1240
66592SOL    HW211756  13.093   2.276   9.846  1.8084  0.6491  0.8688
66593SOL     OW11757  11.964   1.936   0.809 -0.3019  0.4968  0.0136
66593SOL    HW111758  11.982   1.932   0.715  3.6913 -0.4427  0.6550
66593SOL    HW211759  12.000   2.020   0.836  1.4062 -0.5255  1.0886
66594SOL     OW11760  10.995   1.657   5.150 -0.3105  0.4819  0.5369
66594SOL    HW111761  10.933   1.591   5.119  0.0461 -0.3038  1.4444
66594SOL    HW211762  10.966   1.738   5.108 -1.1044 -0.1333 -0.1513
66595SOL     OW11763   3.640   2.308  10.046 -0.1397 -0.5603  0.0047
66595SOL    HW111764   3.660   2.401  10.051 -3.2232  0.1321  1.1517
66595SOL    HW211765   3.639   2.278  10.137  1.1036 -1.8382 -0.3603
66596SOL     OW11766  13.082   7.635   7.127 -0.2670  0.3325  0.2545
66596SOL    HW111767  13.093   7.633   7.222  0.7414  0.8112  0.1633
66596SOL    HW211768  13.073   7.728   7.106 -0.4521  0.2306 -0.1266
66597SOL     OW11769  13.993   9.653   8.360 -0.1554 -0.8778 -0.1312
66597SOL    HW111770  13.904   9.638   8.328  0.0046  0.4224 -1.2796
66597SOL    HW211771  14.050   9.623   8.289  0.3160 -1.0484  0.3091
66598SOL     OW11772   9.921   8.369  13.828  0.2319  0.1877  0.5536
66598SOL    HW111773   9.955   8.306  13.765  0.5564  0.9270 -0.0357
66598SOL    HW211774   9.889   8.442  13.775  0.4370  0.7947  1.2345
66599SOL     OW11775   0.974   3.612   0.368 -0.2439 -0.3083  0.1012
66599SOL    HW111776   0.914   3.680   0.397 -1.2492 -1.9823  2.2557
66599SOL    HW211777   1.036   3.657   0.311 -0.3317  2.5759  2.0770
66600SOL     OW11778   5.173  13.060   9.912  0.3506  0.0183 -0.0843
66600SOL    HW111779   5.092  13.107   9.930  1.3162  2.1915 -1.0355
66600SOL    HW211780   5.193  13.014   9.993 -1.0184  0.6785  0.6666
66601SOL     OW11781  14.038   6.341   5.310 -0.0314 -0.6247  0.2486
66601SOL    HW111782  13.964   6.399   5.291 -1.1249 -1.1178  2.6455
66601SOL    HW211783  14.115   6.398   5.309 -0.3121 -0.1729 -2.6711
66602SOL     OW11784   2.058   9.721   2.690 -0.0183  0.0616  0.1757
66602SOL    HW111785   2.075   9.784   2.759 -1.8587 -0.6009  1.3036
66602SOL    HW211786   2.084   9.637   2.728 -2.5562 -0.5326  0.7513
66603SOL     OW11787  11.925  13.762   2.602 -0.0604 -0.0925  0.5522
66603SOL    HW111788  11.891  13.821   2.669 -2.0845 -0.3929 -0.1276
66603SOL    HW211789  11.938  13.679   2.647 -0.1250  0.0639  0.8622
66604SOL     OW11790   1.631   3.484   0.115  0.3149  0.7612 -0.1959
66604SOL    HW111791   1.727   3.481   0.123  0.2274  0.3810  0.8498
66604SOL    HW211792   1.606   3.559   0.169  0.0242  0.9089 -0.5347
66605SOL     OW11793   4.667   9.275  13.393 -0.2078 -0.0550  0.0528
66605SOL    HW111794   4.737   9.210  13.391  0.5094  0.7094 -1.5609
66605SOL    HW211795   4.713   9.359  13.383 -1.3864  0.4142 -1.7996
66606SOL     OW11796   8.406   9.530  13.754 -0.1201  0.1585  0.0803
66606SOL    HW111797   8.387   9.447  13.710  0.5231 -0.1531  0.3817
66606SOL    HW211798   8.322   9.576  13.755 -0.4311 -0.3900 -0.2939
66607SOL     OW11799   0.295   8.442  12.711 -0.1798  0.6053  0.1315
66607SOL    HW111800   0.258   8.487  12.635 -2.0272 -1.0062 -0.0194
66607SOL    HW211801   0.272   8.498  12.785  0.5955  1.6014 -0.3693
66608SOL     OW11802   2.161   9.294   1.338  0.0120 -0.1273 -0.1534
66608SOL    HW111803   2.096   9.232   1.370  0.1156  0.5645  1.5251
66608SOL    HW211804   2.129   9.380   1.366  0.5313  0.4637 -1.2723
66609SOL     OW11805  13.231   3.017   9.661  0.1729 -0.0362 -0.4490
66609SOL    HW111806  13.200   3.107   9.662  0.4502  0.0860 -1.4124
66609SOL    HW211807  13.190   2.976   9.737 -1.7491  0.3142 -1.2282
66610SOL     OW11808   6.072   8.520   7.590 -0.1212 -0.1997 -0.7800
66610SOL    HW111809   6.020   8.533   7.511 -1.2135 -0.3749 -0.1079
66610SOL    HW211810   6.010   8.529   7.662  0.7448 -0.5828  0.0423
66611SOL     OW11811   5.287  11.415  10.532 -0.2880 -0.0612  0.8346
66611SOL    HW111812   5.220  11.433  10.598 -1.6052  0.4483 -0.5716
66611SOL    HW211813   5.239  11.376  10.459  0.9996  0.0365 -0.1064
66612SOL     OW11814   4.454   9.299   1.460 -0.3910  0.4002 -0.4163
66612SOL    HW111815   4.411   9.280   1.543 -0.8884  0.4307 -0.6646
66612SOL    HW211816   4.476   9.392   1.464  0.2388  0.2399 -0.0242
66613SOL     OW11817   0.584   2.075   4.525 -0.5236 -0.2870  0.3654
66613SOL    HW111818   0.640   2.011   4.570 -1.2811 -1.0746  0.2182
66613SOL    HW211819   0.636   2.105   4.451 -0.7334 -1.9504 -0.5029
66614SOL     OW11820  12.369  12.286  10.361 -0.0300  0.4186  0.1102
66614SOL    HW111821  12.403  12.229  10.291 -0.5101  1.4267 -0.9755
66614SOL    HW211822  12.412  12.254  10.440  0.5556 -0.7451 -0.6385
66615SOL     OW11823  10.445   1.538   4.076  0.2790 -0.2573  0.0519
66615SOL    HW111824  10.539   1.551   4.080  0.2056  0.5309 -0.6071
66615SOL    HW211825  10.408   1.623   4.101 -0.2619 -0.6921  0.7697
66616SOL     OW11826  11.525   6.945   8.889  0.4999  0.1484  0.7714
66616SOL    HW111827  11.444   6.993   8.875  1.7343  1.7873 -1.2861
66616SOL    HW211828  11.540   6.950   8.983 -3.2798 -2.9265  1.7975
66617SOL     OW11829   6.776   5.370   1.314  0.1551  0.2146 -0.2991
66617SOL    HW111830   6.738   5.450   1.278  0.0856 -0.5387 -1.9946
66617SOL    HW211831   6.761   5.376   1.408  1.2604  2.7728 -0.2148
66618SOL     OW11832   1.241  10.031   0.995 -0.1709  0.4534  0.1335
66618SOL    HW111833   1.325   9.986   1.006  0.2856  1.0786 -0.7036
66618SOL    HW211834   1.187   9.970   0.945  0.3904  0.7371 -0.8565
66619SOL     OW11835   5.503   7.421   0.400 -0.2368 -0.6232 -0.0641
66619SOL    HW111836   5.522   7.327   0.396  1.3871 -0.3902  1.3015
66619SOL    HW211837   5.452   7.432   0.480 -1.5769 -0.4877 -0.9047
66620SOL     OW11838  12.546   5.415  12.318  0.1436  0.2006 -0.6439
66620SOL    HW111839  12.475   5.401  12.381  0.0067  2.2898 -0.2752
66620SOL    HW211840  12.621   5.367  12.355 -0.3385  0.1855  0.3440
66621SOL     OW11841   2.955   0.160  11.766 -0.4280 -0.1175  0.1478
66621SOL    HW111842   2.892   0.230  11.747  2.1525  1.5547 -3.2024
66621SOL    HW211843   3.018   0.200  11.825  0.9418  0.4785 -1.6180
66622SOL     OW11844   3.728   7.721   9.007  0.3660  0.0278 -0.1056
66622SOL    HW111845   3.732   7.665   9.084 -0.5843 -0.1256 -0.1591
66622SOL    HW211846   3.739   7.661   8.933 -0.3580 -0.0509 -0.1515
66623SOL     OW11847   0.772   4.398   8.142 -0.1672  0.3153  0.3051
66623SOL    HW111848   0.737   4.358   8.063 -1.6900  1.6399  0.2690
66623SOL    HW211849   0.844   4.453   8.112 -0.4143  0.4218 -0.0923
66624SOL     OW11850   1.004  10.732   8.712 -0.3898 -0.1288 -0.1121
66624SOL    HW111851   1.059  10.743   8.634 -1.0485 -2.7012 -1.0375
66624SOL    HW211852   1.055  10.771   8.782  1.7847 -0.6744 -1.2776
66625SOL     OW11853   6.015  13.959   1.443 -0.6342  0.2378 -0.0756
66625SOL    HW111854   6.087  14.007   1.484  0.2897 -1.9539  1.0208
66625SOL    HW211855   5.941  13.974   1.501  0.0014 -0.7198  1.0220
66626SOL     OW11856   1.037   5.766   7.367  0.0568  0.2734 -0.3355
66626SOL    HW111857   0.969   5.832   7.380  0.6769  0.8967 -0.1662
66626SOL    HW211858   1.084   5.796   7.289  1.0978  0.7136  0.4328
66627SOL     OW11859   4.889   1.593   5.528 -0.3093 -0.0568  0.2452
66627SOL    HW111860   4.905   1.512   5.479  0.6070  1.6511 -2.5118
66627SOL    HW211861   4.947   1.587   5.604  1.7675 -0.9113 -1.2966
66628SOL     OW11862   9.411   0.112  10.568  0.2649 -0.8769 -0.0848
66628SOL    HW111863   9.365   0.114  10.652  1.4280  0.2779  0.5688
66628SOL    HW211864   9.462   0.193  10.567 -0.9632  0.0012 -2.6403
66629SOL     OW11865   0.631   2.816   4.106  0.1190  0.7598 -0.6890
66629SOL    HW111866   0.578   2.862   4.041  0.3657  0.3675 -1.1823
66629SOL    HW211867   0.632   2.725   4.075 -0.2480  0.4526  0.1893
66630SOL     OW11868   9.214   6.434  13.418 -0.5753  0.1230  0.0431
66630SOL    HW111869   9.138   6.382  13.441 -0.0811  0.0609  1.6181
66630SOL    HW211870   9.286   6.372  13.414 -0.0942  0.5587  1.3620
66631SOL     OW11871   1.729   5.091   6.356  0.3851 -0.0755 -0.0916
66631SOL    HW111872   1.675   5.120   6.430 -0.1443 -0.7764 -0.1963
66631SOL    HW211873   1.768   5.172   6.322  2.7734  0.0615  2.5437
66632SOL     OW11874   0.353   7.169   4.916  0.2758  0.8577 -0.1797
66632SOL    HW111875   0.343   7.215   4.832  1.3551  2.2010  0.3964
66632SOL    HW211876   0.289   7.210   4.974  0.0839  0.4724 -0.1118
66633SOL     OW11877   1.108   5.147   9.140  0.2795  0.7701  0.1880
66633SOL    HW111878   1.168   5.162   9.067 -0.2653  0.4230 -0.3306
66633SOL    HW211879   1.142   5.069   9.184 -0.6344 -0.3218 -0.9916
66634SOL     OW11880   5.531   2.086  12.689 -0.1167 -0.2604 -0.6194
66634SOL    HW111881   5.498   2.149  12.625 -0.7031  0.2128  0.1299
66634SOL    HW211882   5.525   2.132  12.773 -0.8671 -1.4125 -0.0106
66635SOL     OW11883  12.906   7.652   4.527  0.0968  0.2751  0.0376
66635SOL    HW111884  12.821   7.626   4.491 -0.9883  0.2402  2.4341
66635SOL    HW211885  12.970   7.606   4.473 -1.4976 -1.3897 -0.5457
66636SOL     OW11886   5.685   9.789   0.782 -0.2413  0.1893  0.6406
66636SOL    HW111887   5.723   9.707   0.811  1.2562  0.8764  0.7054
66636SOL    HW211888   5.709   9.852   0.850  1.4971  1.3636 -0.9579
66637SOL     OW11889   0.320   1.239   9.525 -1.1801  0.7939 -0.2934
66637SOL    HW111890   0.343   1.326   9.555 -0.7043  1.3643 -2.1967
66637SOL    HW211891   0.242   1.215   9.577  0.6464  0.8517  2.7413
66638SOL     OW11892   5.808   4.998  10.542  0.0928  0.8908  0.3425
66638SOL    HW111893   5.737   5.038  10.491  0.2656  0.7251 -0.0305
66638SOL    HW211894   5.795   5.032  10.631 -0.9543  0.2051  0.4682
66639SOL     OW11895   9.170   3.482  13.426 -0.1501  0.0482  0.4059
66639SOL    HW111896   9.259   3.452  13.444  0.1657  0.3260 -0.6253
66639SOL    HW211897   9.148   3.443  13.342 -0.8217  0.3779  0.4234
66640SOL     OW11898   0.736   3.376   5.341 -0.7399  0.0805  0.3118
66640SOL    HW111899   0.756   3.384   5.248 -0.1634  0.3457  0.4568
66640SOL    HW211900   0.708   3.464   5.368 -1.6440 -0.1666  0.2278
66641SOL     OW11901   7.397  10.796   5.514  0.2362  0.1900 -0.2805
66641SOL    HW111902   7.390  10.831   5.426  1.2950 -0.2395 -0.5519
66641SOL    HW211903   7.482  10.826   5.546  0.3364 -0.5477  0.1820
66642SOL     OW11904  12.325   5.699   5.318  0.2042  0.0035 -0.0640
66642SOL    HW111905  12.300   5.631   5.380  0.2543  0.4949  0.5136
66642SOL    HW211906  12.414   5.676   5.292 -0.8851 -1.9711 -2.4330
66643SOL     OW11907   3.321  12.470  11.949 -0.0303  0.2276  0.2602
66643SOL    HW111908   3.412  12.467  11.919 -0.1282  0.2235 -0.0388
66643SOL    HW211909   3.304  12.563  11.964 -0.1979  0.3031 -0.3737
66644SOL     OW11910  10.392   7.544   6.440  0.6805  0.5145 -0.1871
66644SOL    HW111911  10.330   7.576   6.506  1.7410  0.1813  1.0080
66644SOL    HW211912  10.443   7.620   6.415  1.7800  0.2288  1.0798
66645SOL     OW11913   2.889  12.933   1.441  0.7787 -0.5070 -0.2489
66645SOL    HW111914   2.982  12.953   1.443  1.2933 -2.7149  0.5405
66645SOL    HW211915   2.879  12.874   1.366  0.0348 -0.3638 -0.2676
66646SOL     OW11916   4.347  13.643   9.026 -0.5540  0.3580 -0.2355
66646SOL    HW111917   4.261  13.600   9.024 -0.1301 -0.5329  0.2232
66646SOL    HW211918   4.387  13.619   8.942 -1.0944  1.5418 -0.8640
66647SOL     OW11919   6.940   1.350   8.254  0.6128  0.4729  0.1583
66647SOL    HW111920   6.864   1.303   8.288  1.1406 -0.5498 -0.0256
66647SOL    HW211921   7.000   1.356   8.327 -0.5256  3.3776  1.0046
66648SOL     OW11922   0.430  12.238  13.345 -0.1963 -0.5406  0.1626
66648SOL    HW111923   0.448  12.147  13.321  0.2257 -0.1569 -1.0552
66648SOL    HW211924   0.489  12.289  13.289  0.8104  0.4260  2.0010
66649SOL     OW11925  13.666   4.668   8.799 -0.0424 -0.1736 -0.4734
66649SOL    HW111926  13.620   4.601   8.850 -0.3086 -0.2346 -0.7898
66649SOL    HW211927  13.601   4.699   8.736  0.3656 -0.2991 -0.9653
66650SOL     OW11928  13.759  10.818   0.111  0.3383 -0.2627 -0.2302
66650SOL    HW111929  13.720  10.731   0.116  0.5671 -0.4050 -0.7918
66650SOL    HW211930  13.698  10.868   0.056 -0.2880  0.2181  0.8664
66651SOL     OW11931   4.503   5.618   5.847 -0.4437 -0.5949 -0.1947
66651SOL    HW111932   4.418   5.627   5.806 -0.3593 -1.2213 -0.5236
66651SOL    HW211933   4.518   5.523   5.850 -0.0813 -0.5228  0.5216
66652SOL     OW11934   8.350   9.367   6.579 -0.2069  0.1419 -0.3452
66652SOL    HW111935   8.411   9.437   6.602  0.1132 -0.0851 -0.5026
66652SOL    HW211936   8.314   9.394   6.494  0.4164 -0.2100 -0.7259
66653SOL     OW11937  13.862  11.266   9.036 -0.1574  0.3997  0.5114
66653SOL    HW111938  13.846  11.174   9.057  2.4173  0.1277  1.6583
66653SOL    HW211939  13.957  11.275   9.040 -0.1225  2.5175 -2.2888
66654SOL     OW11940   3.042   3.821  11.874 -0.3261 -0.2314 -0.0892
66654SOL    HW111941   3.104   3.789  11.939 -0.2865 -0.9831 -0.4946
66654SOL    HW211942   2.963   3.768  11.888 -0.1896 -0.6618 -0.8965
66655SOL     OW11943   2.106   5.725   7.283  0.0492  0.5796  0.7353
66655SOL    HW111944   2.146   5.791   7.340 -0.4580  1.3190  0.2498
66655SOL    HW211945   2.141   5.743   7.196 -1.5567  1.4676  0.2307
66656SOL     OW11946   0.102   9.069   7.190  0.6888  0.3575 -0.0600
66656SOL    HW111947   0.185   9.112   7.210  0.9988 -0.2669  0.0084
66656SOL    HW211948   0.121   9.014   7.114  0.7658 -1.0574  0.9528
66657SOL     OW11949   2.321  12.151   6.364  0.3314 -0.8137 -0.2843
66657SOL    HW111950   2.302  12.204   6.287 -1.2939  0.8532  1.1610
66657SOL    HW211951   2.357  12.213   6.428 -2.8657 -1.0082  1.9407
66658SOL     OW11952  10.750  12.774   7.174 -0.4263 -0.5495 -0.3751
66658SOL    HW111953  10.809  12.806   7.242 -2.2570  1.5413  0.3394
66658SOL    HW211954  10.780  12.817   7.094 -0.6918  0.1261 -0.1127
66659SOL     OW11955   5.749   0.024   9.079  0.2273 -0.2341  0.5384
66659SOL    HW111956   5.694  -0.052   9.059 -0.0790  0.2520 -0.5633
66659SOL    HW211957   5.838  -0.005   9.060  0.0932 -0.2703 -0.0445
66660SOL     OW11958   0.412  12.112   8.431  0.2769 -0.1628 -0.1675
66660SOL    HW111959   0.388  12.205   8.439 -0.4655 -0.3652  0.0427
66660SOL    HW211960   0.349  12.067   8.487  0.6252 -0.8001 -0.2865
66661SOL     OW11961   5.424   3.044  13.084  0.5799 -0.5306 -0.2179
66661SOL    HW111962   5.483   3.120  13.088 -1.1150  0.8710 -0.5485
66661SOL    HW211963   5.410   3.020  13.176  0.2650  0.2841 -0.0431
66662SOL     OW11964   8.735   0.323   0.187  0.0402  0.2030 -0.1148
66662SOL    HW111965   8.758   0.283   0.103 -1.0853 -0.4808 -0.1239
66662SOL    HW211966   8.657   0.375   0.168 -0.9226 -0.9010  0.7245
66663SOL     OW11967   0.287   6.933   5.678 -0.0405  0.2528 -0.3319
66663SOL    HW111968   0.224   6.874   5.720 -0.6277  1.6421  0.8378
66663SOL    HW211969   0.356   6.875   5.646  0.9908 -0.9674  3.4727
66664SOL     OW11970   0.562   3.548  12.239  0.0220  0.4586 -0.2463
66664SOL    HW111971   0.627   3.595  12.187  1.9618 -1.2481  0.4893
66664SOL    HW211972   0.550   3.465  12.192 -0.5887  0.1956  0.3645
66665SOL     OW11973   0.632  13.336   2.552 -0.0189  0.0496 -0.2006
66665SOL    HW111974   0.568  13.333   2.481 -1.3484 -0.4082  0.9624
66665SOL    HW211975   0.661  13.245   2.562  0.5722  0.1989 -0.4941
66666SOL     OW11976  10.962   7.524   1.279  0.1237 -0.3058  0.0214
66666SOL    HW111977  10.878   7.555   1.246  0.1171 -0.1119  0.2186
66666SOL    HW211978  10.966   7.433   1.251 -0.0910 -0.2772 -0.1080
66667SOL     OW11979   6.131   0.741   8.391  0.2639 -0.3087  0.0310
66667SOL    HW111980   6.097   0.766   8.477 -0.3128  0.0286 -0.2900
66667SOL    HW211981   6.077   0.790   8.328  0.8211 -0.3839 -0.5162
66668SOL     OW11982   6.716   7.033  10.415 -0.5036  0.1263  0.1424
66668SOL    HW111983   6.754   6.948  10.436 -0.0856  0.2109 -0.2700
66668SOL    HW211984   6.630   7.012  10.378 -0.3694 -0.1205 -0.0325
66669SOL     OW11985   8.299   7.675  12.058  0.3050 -0.0666 -0.1088
66669SOL    HW111986   8.261   7.688  12.144  2.1091 -0.9735  0.8864
66669SOL    HW211987   8.393   7.670  12.073  0.5662 -2.3509 -1.8037
66670SOL     OW11988   2.834  12.522   9.090  0.1897 -0.2022 -0.0681
66670SOL    HW111989   2.825  12.431   9.061 -0.6955 -0.2785  0.4327
66670SOL    HW211990   2.760  12.567   9.049 -0.1633  0.0067  0.7946
66671SOL     OW11991   2.121   3.433  13.050  0.2559  0.5894 -0.1437
66671SOL    HW111992   2.103   3.485  12.972  3.1250  0.1723 -1.2228
66671SOL    HW211993   2.106   3.343  13.023  0.1244  0.5283  0.1366
66672SOL     OW11994   3.917   9.514  11.906 -0.5026  0.2981 -0.2054
66672SOL    HW111995   3.931   9.447  11.973  1.2614  1.3388  0.5676
66672SOL    HW211996   3.895   9.465  11.827  1.9090 -1.3333  0.0131
66673SOL     OW11997   1.696  13.208   8.950  0.2326 -0.0947 -0.3272
66673SOL    HW111998   1.667  13.148   8.882 -0.2219 -0.0794 -0.1566
66673SOL    HW211999   1.685  13.295   8.912  0.7211 -0.1088 -0.5108
66674SOL     OW12000   7.326   8.313   7.647  0.3358  0.2561  0.1857
66674SOL    HW112001   7.357   8.248   7.711  0.3619  0.3564  0.2761
66674SOL    HW212002   7.336   8.270   7.562 -1.7103 -0.7168  0.3635
66675SOL     OW12003   5.071   9.798   7.805  0.1828 -0.2349 -0.3915
66675SOL    HW112004   5.096   9.837   7.721  0.6606  0.1731 -0.0654
66675SOL    HW212005   5.081   9.869   7.868  0.8517 -0.8205  0.1784
66676SOL     OW12006  11.313  13.502  13.854  0.1945 -0.3907  0.1186
66676SOL    HW112007  11.286  13.419  13.893 -0.4764  0.0217  0.5543
66676SOL    HW212008  11.233  13.535  13.812  0.0539  0.7344  1.2033
66677SOL     OW12009   7.825   0.378   3.343  0.3296  0.1366  0.2651
66677SOL    HW112010   7.911   0.346   3.369  0.0888  0.2331  1.2340
66677SOL    HW212011   7.787   0.307   3.291  1.1838  0.2992 -0.5911
66678SOL     OW12012   9.005   5.332  11.929  0.4429 -0.0239  0.3786
66678SOL    HW112013   9.050   5.301  12.008  1.4501 -0.7547 -0.4671
66678SOL    HW212014   8.989   5.253  11.878 -1.7439  0.2221  0.5845
66679SOL     OW12015   1.027   8.660  11.560  0.0141 -0.2846 -0.3982
66679SOL    HW112016   0.998   8.750  11.570  0.0568 -0.4048  1.1028
66679SOL    HW212017   1.024   8.624  11.649  1.6792 -1.2346 -0.6780
66680SOL     OW12018  10.436   3.308  11.271  0.1796 -0.0081 -1.0442
66680SOL    HW112019  10.419   3.399  11.295 -0.0791 -0.2354 -0.3453
66680SOL    HW212020  10.431   3.307  11.176  0.7894  0.8275 -1.0986
66681SOL     OW12021   4.755   0.050  11.092 -0.1053  0.3695 -0.3458
66681SOL    HW112022   4.744  -0.030  11.143  1.6182 -0.9803 -1.9240
66681SOL    HW212023   4.829   0.095  11.133 -0.7395  0.9308  0.2191
66682SOL     OW12024   8.996   1.318   0.308  0.1059  0.2797  0.0666
66682SOL    HW112025   8.935   1.301   0.380  0.3711  1.2723  0.5413
66682SOL    HW212026   8.945   1.369   0.246  0.1016  0.0783 -0.0952
66683SOL     OW12027   2.404  11.899   4.865 -0.0145 -0.2454  0.6588
66683SOL    HW112028   2.345  11.877   4.793 -0.1555  1.6600  0.1338
66683SOL    HW212029   2.354  11.960   4.919  1.3372  1.2702  0.3012
66684SOL     OW12030   4.888   6.326   2.275  0.3838  0.4482 -0.5710
66684SOL    HW112031   4.832   6.329   2.352 -0.3395  0.7822 -1.1088
66684SOL    HW212032   4.889   6.234   2.250  2.1837 -0.0134  0.9546
66685SOL     OW12033   5.716   5.279   2.311  0.0868 -0.0601 -0.1046
66685SOL    HW112034   5.672   5.362   2.327 -1.0128 -0.3338 -1.5256
66685SOL    HW212035   5.723   5.273   2.216  2.4101 -0.4632  0.0158
66686SOL     OW12036   6.415   5.508  10.519 -0.5519 -0.5852 -0.2453
66686SOL    HW112037   6.374   5.425  10.544 -0.6712 -0.7066 -0.8290
66686SOL    HW212038   6.434   5.499  10.425  1.3018 -0.7397  0.0977
66687SOL     OW12039  11.215   3.103  10.240 -0.5411 -0.6115  0.0694
66687SOL    HW112040  11.193   3.010  10.236  0.2641 -0.9458  2.1855
66687SOL    HW212041  11.285   3.109  10.305 -0.4684  1.4717 -0.1108
66688SOL     OW12042   2.823   4.065   0.858  0.4919 -0.3172  0.1172
66688SOL    HW112043   2.865   3.979   0.864  1.6014  0.3049  1.8447
66688SOL    HW212044   2.739   4.053   0.903  0.3274 -0.6673 -0.2734
66689SOL     OW12045   8.363   2.595   3.792  0.0773 -0.0606 -0.3151
66689SOL    HW112046   8.376   2.503   3.772 -1.9825 -0.4407 -0.0586
66689SOL    HW212047   8.274   2.601   3.825  0.8422  1.7104  1.6642
66690SOL     OW12048   8.355   6.340   3.187 -0.0352 -0.1073  0.0030
66690SOL    HW112049   8.378   6.272   3.124 -0.9579 -0.6881  0.2654
66690SOL    HW212050   8.295   6.297   3.248 -2.1014  1.3871 -0.8516
66691SOL     OW12051  11.500   2.297   0.713  0.2405  0.6913  0.3720
66691SOL    HW112052  11.501   2.357   0.788 -1.0790 -0.4132  1.3123
66691SOL    HW212053  11.412   2.260   0.713  0.6149 -0.2683 -0.9940
66692SOL     OW12054   1.928   9.023   0.072  0.2920  0.0278 -0.1059
66692SOL    HW112055   1.882   8.946   0.040  0.5567 -0.5765  0.9410
66692SOL    HW212056   1.911   9.090   0.005 -0.0706 -0.8769 -0.9461
66693SOL     OW12057   5.176  11.224  12.626  0.1532 -0.2309  0.0978
66693SOL    HW112058   5.227  11.231  12.546  0.0138  1.4657  0.1206
66693SOL    HW212059   5.203  11.299  12.679 -1.1643 -0.2166  0.7969
66694SOL     OW12060  12.517  12.170   4.054 -0.3836  0.4253  0.3730
66694SOL    HW112061  12.571  12.148   4.130  0.8532  1.5614 -0.1376
66694SOL    HW212062  12.453  12.099   4.048  1.1060 -1.0127  0.9490
66695SOL     OW12063   6.032   2.656   9.740 -0.7266 -0.3784  0.3575
66695SOL    HW112064   5.990   2.694   9.818  0.6355  1.6205  0.2059
66695SOL    HW212065   5.990   2.700   9.666  1.3479  1.5034  0.2009
66696SOL     OW12066   3.241  12.166   1.610  0.3213  0.2232  0.1596
66696SOL    HW112067   3.217  12.229   1.543 -2.3626 -0.7876  0.0307
66696SOL    HW212068   3.165  12.164   1.669  1.4246 -0.9714  1.6324
66697SOL     OW12069  11.873  12.245   7.363 -0.0966  0.2577  0.3868
66697SOL    HW112070  11.939  12.293   7.414 -0.7180  0.4789  1.0055
66697SOL    HW212071  11.892  12.153   7.381  1.0279  0.2520 -0.7087
66698SOL     OW12072   4.264   4.136   1.668 -0.3008  0.1834  0.2889
66698SOL    HW112073   4.316   4.068   1.710  0.1894  1.0103  1.0495
66698SOL    HW212074   4.312   4.217   1.684 -2.5560  1.2361  2.4668
66699SOL     OW12075   4.831   4.574   2.415 -0.1667  0.6339 -1.0437
66699SOL    HW112076   4.756   4.624   2.383 -1.0680  0.2513  0.3950
66699SOL    HW212077   4.881   4.637   2.467 -2.0542 -0.1340  1.9811
66700SOL     OW12078   7.349  11.077  11.914  0.6747  0.7283  0.0269
66700SOL    HW112079   7.444  11.071  11.904  0.6036  1.9212 -1.8454
66700SOL    HW212080   7.333  11.168  11.942 -0.0487  1.5020 -2.6581
66701SOL     OW12081   4.134   4.754   6.190 -0.7556 -0.8693 -0.3796
66701SOL    HW112082   4.040   4.747   6.171 -0.6402 -0.9064 -0.9431
66701SOL    HW212083   4.177   4.747   6.105 -0.2128 -1.2599 -0.0795
66702SOL     OW12084   9.949  12.034  10.650 -0.0449  0.3912 -0.2385
66702SOL    HW112085   9.944  12.130  10.650  0.7611  0.4857 -2.2333
66702SOL    HW212086   9.878  12.006  10.592  0.9396 -0.0576 -1.2936
66703SOL     OW12087  10.221   9.515   8.520  0.2747  0.5579 -0.0352
66703SOL    HW112088  10.143   9.487   8.473  0.0457  1.0216  0.0685
66703SOL    HW212089  10.198   9.599   8.559  0.7372  0.5768  0.2142
66704SOL     OW12090  11.487   6.684  13.897 -0.5316  0.1315  0.7287
66704SOL    HW112091  11.551   6.719  13.959 -1.1900 -0.4034  1.7338
66704SOL    HW212092  11.404   6.682  13.946 -0.8031 -1.5087  0.2500
66705SOL     OW12093   4.167   5.785   2.257  0.1989  0.1592  0.5236
66705SOL    HW112094   4.150   5.707   2.309 -1.1121  0.6204  0.8225
66705SOL    HW212095   4.146   5.858   2.314  1.1086  0.7434  0.1418
66706SOL     OW12096  11.605   5.458  10.729  0.1412  0.3134  0.5129
66706SOL    HW112097  11.562   5.379  10.761  2.6912 -1.0472  0.8150
66706SOL    HW212098  11.663   5.428  10.659  1.2730  1.8744  0.7144
66707SOL     OW12099  10.978   2.302  11.922 -0.0845 -0.5968  0.1288
66707SOL    HW112100  11.070   2.316  11.945 -0.2268  1.8288 -0.6064
66707SOL    HW212101  10.981   2.244  11.846  0.9465  0.6326 -0.8134
66708SOL     OW12102  11.749  13.262   3.449 -0.2273  0.5265 -0.1748
66708SOL    HW112103  11.691  13.270   3.373  0.6568 -0.2960 -0.9756
66708SOL    HW212104  11.805  13.340   3.444 -0.5206  0.7446 -0.0605
66709SOL     OW12105   2.170   0.200  11.503 -0.9332  0.0161 -0.2835
66709SOL    HW112106   2.085   0.193  11.546 -1.5866 -2.7339 -1.8016
66709SOL    HW212107   2.150   0.200  11.410  0.6574  1.3953 -0.6707
66710SOL     OW12108   5.639  10.262  11.412  0.7143  0.6194 -0.2905
66710SOL    HW112109   5.649  10.230  11.502  0.5513 -0.2533 -0.5666
66710SOL    HW212110   5.724  10.300  11.390  2.0734 -2.4957 -1.0068
66711SOL     OW12111   2.984   8.900  12.800 -0.5250  0.1291  0.3610
66711SOL    HW112112   2.895   8.867  12.800 -0.8136  0.8457 -0.7546
66711SOL    HW212113   3.030   8.845  12.736 -0.0611 -0.4744  1.1947
66712SOL     OW12114  11.409   4.604   4.912  0.3229 -0.3704 -0.5541
66712SOL    HW112115  11.357   4.580   4.989 -1.5839  0.1892 -1.6166
66712SOL    HW212116  11.477   4.662   4.946 -1.5041  1.2390  0.5123
66713SOL     OW12117  12.609   2.054   5.104 -0.8336 -0.1451  0.3390
66713SOL    HW112118  12.584   1.975   5.056  1.2102 -0.8697  0.3763
66713SOL    HW212119  12.628   2.024   5.193 -2.3137  0.8099  1.0213
66714SOL     OW12120   3.904   5.257   4.913  0.3556  0.3272  0.0428
66714SOL    HW112121   3.920   5.351   4.907  0.9792  0.2198  0.0181
66714SOL    HW212122   3.982   5.221   4.955  0.1895 -0.2010 -0.0860
66715SOL     OW12123   5.551   1.675  12.661  0.1584 -0.1453 -0.2909
66715SOL    HW112124   5.528   1.604  12.602  1.8373 -1.1423  0.1631
66715SOL    HW212125   5.470   1.723  12.675 -0.8717 -1.5628 -1.1694
66716SOL     OW12126  12.370  10.380  12.126  0.6194  0.3542 -0.3585
66716SOL    HW112127  12.432  10.313  12.153  0.6517 -0.0198 -1.3209
66716SOL    HW212128  12.298  10.373  12.189  0.7229 -0.4361 -0.3133
66717SOL     OW12129   3.298   5.903   4.122 -0.7558 -0.4386  0.2101
66717SOL    HW112130   3.323   5.959   4.048 -0.6959 -0.8230 -0.0645
66717SOL    HW212131   3.357   5.828   4.117 -2.1490 -1.5326 -0.6514
66718SOL     OW12132   3.428   4.204  12.667 -0.2628  0.3902  0.3132
66718SOL    HW112133   3.485   4.139  12.707 -1.9094 -2.6518 -1.8626
66718SOL    HW212134   3.469   4.222  12.582 -0.1179  1.8567  0.6690
66719SOL     OW12135   9.464   5.013   3.367 -0.1381 -0.0568 -0.3045
66719SOL    HW112136   9.374   5.010   3.399  0.3148  1.1775  1.2091
66719SOL    HW212137   9.483   4.923   3.340 -1.9907 -0.2345 -1.2164
66720SOL     OW12138  13.604   8.385   0.390 -0.1282 -0.5907  0.3057
66720SOL    HW112139  13.566   8.472   0.378 -0.0248 -0.3249  1.7104
66720SOL    HW212140  13.658   8.393   0.469 -2.0940 -2.5445  1.9758
66721SOL     OW12141   7.643   5.345   8.926  0.0959  0.6938 -0.2170
66721SOL    HW112142   7.603   5.281   8.986 -2.3242  1.5972 -0.7254
66721SOL    HW212143   7.584   5.420   8.929  1.0841  1.6173 -2.1095
66722SOL     OW12144  11.368   5.165   4.703  0.0401  0.6656  0.6601
66722SOL    HW112145  11.358   5.072   4.683 -0.5102  0.4150  2.0699
66722SOL    HW212146  11.279   5.198   4.710  0.2367  1.1392  0.9242
66723SOL     OW12147  11.219   7.926   3.344 -0.1974 -0.0591 -0.3449
66723SOL    HW112148  11.292   7.989   3.346 -0.2940  0.0880 -1.2477
66723SOL    HW212149  11.172   7.946   3.263 -2.2997  1.0150  1.0584
66724SOL     OW12150   8.352   3.605  11.440 -0.1357  0.3062 -0.0815
66724SOL    HW112151   8.365   3.579  11.532 -0.0072 -0.3279 -0.2748
66724SOL    HW212152   8.258   3.593  11.425 -0.0238 -0.3978 -0.2678
66725SOL     OW12153   8.846  11.808   7.851 -0.2197  0.5519 -0.2877
66725SOL    HW112154   8.916  11.855   7.806 -0.5605  1.6850  0.3391
66725SOL    HW212155   8.891  11.735   7.895  0.4916  0.9616 -0.3205
66726SOL     OW12156   4.012   5.876   5.071  0.2041  0.0783  0.1113
66726SOL    HW112157   4.069   5.882   4.994  3.0553 -0.5029  2.0042
66726SOL    HW212158   4.006   5.782   5.089 -2.1817  0.0495 -0.5125
66727SOL     OW12159   9.456   4.228   0.290 -0.1183 -0.2750 -0.2448
66727SOL    HW112160   9.521   4.287   0.252  1.0928 -1.7902 -0.6109
66727SOL    HW212161   9.406   4.283   0.350  2.5804  0.6522  1.3509
66728SOL     OW12162   5.106  12.333  13.867  0.2874  0.3469 -0.3835
66728SOL    HW112163   5.162  12.293  13.933 -0.2301  2.9884  1.8329
66728SOL    HW212164   5.017  12.311  13.894  0.1036  0.4935 -0.8659
66729SOL     OW12165  13.826   2.633  13.967 -0.3735 -0.0889 -0.0693
66729SOL    HW112166  13.741   2.633  14.011  0.3627 -0.6524  1.4494
66729SOL    HW212167  13.809   2.667  13.879 -1.9243  1.0811  0.6483
66730SOL     OW12168   3.654  12.058  10.796  0.2762  0.2091 -0.4187
66730SOL    HW112169   3.651  11.978  10.742  0.8034 -0.5931  0.7095
66730SOL    HW212170   3.562  12.083  10.804  0.1378 -0.0091 -1.1679
66731SOL     OW12171  11.745   1.492  11.178 -0.4475  0.1591 -1.0052
66731SOL    HW112172  11.778   1.405  11.199  0.8659  1.2550  2.0134
66731SOL    HW212173  11.707   1.483  11.090 -2.1187 -3.8877 -0.0990
66732SOL     OW12174   0.605  13.756   5.241 -0.3396 -0.2976 -0.6970
66732SOL    HW112175   0.528  13.805   5.270  0.1836 -0.4580  1.0599
66732SOL    HW212176   0.644  13.812   5.173 -0.3561  1.2342  0.5055
66733SOL     OW12177   4.415  11.371  11.594 -0.0384  0.1379  0.0778
66733SOL    HW112178   4.479  11.438  11.570 -0.8276  1.1331  0.6562
66733SOL    HW212179   4.453  11.327  11.670  0.6419 -0.3234 -0.5177
66734SOL     OW12180   1.913   8.569   6.129 -0.0690  0.3596  0.1087
66734SOL    HW112181   1.855   8.540   6.058 -0.1504  0.5375  0.1015
66734SOL    HW212182   2.001   8.545   6.100 -0.1401  0.0736  0.1262
66735SOL     OW12183   4.487   3.319   4.175  0.0613 -0.2949  0.5909
66735SOL    HW112184   4.514   3.228   4.163 -0.3283 -0.0862 -2.9068
66735SOL    HW212185   4.569   3.368   4.173  0.1180 -0.4036 -0.1180
66736SOL     OW12186   7.088  12.266   9.102 -0.0210  0.2908  1.0252
66736SOL    HW112187   7.150  12.201   9.135  2.8883  0.9608 -2.4598
66736SOL    HW212188   7.023  12.214   9.054  1.1236 -0.2451 -0.0187
66737SOL     OW12189   3.834   4.363   5.186 -0.1647  0.2116  0.0873
66737SOL    HW112190   3.881   4.311   5.252  0.1902 -2.0054 -1.7808
66737SOL    HW212191   3.804   4.440   5.234  1.3867 -0.5263  2.4636
66738SOL     OW12192   0.374   4.776   0.001  0.1325 -0.2707 -0.3950
66738SOL    HW112193   0.290   4.731   0.011  0.1988 -0.5745 -1.1953
66738SOL    HW212194   0.387   4.821   0.085 -1.2704  0.5442 -0.5907
66739SOL     OW12195   4.313   2.850  12.248 -0.0274  0.3335  0.4463
66739SOL    HW112196   4.399   2.892  12.238 -0.5007  1.2971  0.3051
66739SOL    HW212197   4.330   2.776  12.306  0.8238  0.7604  0.7735
66740SOL     OW12198  12.182  12.392   4.348  0.7865  0.3440  0.0554
66740SOL    HW112199  12.095  12.424   4.371  0.6871 -0.7248  1.2778
66740SOL    HW212200  12.168  12.303   4.317  1.5954 -0.6927  2.3879
66741SOL     OW12201   6.915   8.088   6.169 -0.4784  0.4543 -0.1531
66741SOL    HW112202   6.904   8.008   6.222 -0.1651 -0.1393 -0.9593
66741SOL    HW212203   6.828   8.129   6.170 -0.3237  0.8018  1.3450
66742SOL     OW12204   5.056   1.199   5.503  0.5233  0.7735  0.4081
66742SOL    HW112205   5.008   1.265   5.453  0.2566 -1.3048 -2.3654
66742SOL    HW212206   5.147   1.231   5.504  0.0663  2.1498  1.0282
66743SOL     OW12207   1.552   5.144   9.594 -0.3112 -0.0653 -0.3405
66743SOL    HW112208   1.630   5.189   9.627  0.0711 -1.2263  0.4028
66743SOL    HW212209   1.501   5.213   9.551  1.0185  0.7521 -0.6655
66744SOL     OW12210   3.351   9.631   0.975 -0.1237  0.4041 -0.0710
66744SOL    HW112211   3.263   9.594   0.970  0.0795 -0.5924  2.3103
66744SOL    HW212212   3.392   9.584   1.048  0.9183  3.8176  1.7259
66745SOL     OW12213   0.722  10.996   6.359  0.1728 -0.0611 -0.4585
66745SOL    HW112214   0.694  11.047   6.435  0.1829  0.8469 -1.0484
66745SOL    HW212215   0.739  10.909   6.393 -0.5837  0.1335  0.4383
66746SOL     OW12216   8.086   7.957   4.650  0.4908  0.1513  0.6221
66746SOL    HW112217   8.013   8.019   4.662  2.4219  2.8186 -0.5323
66746SOL    HW212218   8.113   7.935   4.739 -0.1823  1.0580  1.0716
66747SOL     OW12219   6.424   1.898  10.390  0.5381  0.3880  0.1609
66747SOL    HW112220   6.473   1.924  10.312  1.9271 -3.6978 -0.5504
66747SOL    HW212221   6.479   1.927  10.463  0.9611  1.1822 -0.4507
66748SOL     OW12222   4.192   0.938  10.127  0.0398 -0.0543  0.1126
66748SOL    HW112223   4.156   0.879  10.060  0.6511 -0.1796 -0.1136
66748SOL    HW212224   4.257   0.990  10.080 -1.4581  1.8151 -0.0344
66749SOL     OW12225   5.556   1.429  10.562  0.2785  0.1473 -0.4159
66749SOL    HW112226   5.499   1.396  10.493 -1.4929  1.8183  0.1499
66749SOL    HW212227   5.587   1.514  10.529 -0.7809  1.0779  0.8820
66750SOL     OW12228  12.815   8.883   1.185  0.2618  0.3196  0.0674
66750SOL    HW112229  12.898   8.904   1.143  0.1200  1.5642  0.3572
66750SOL    HW212230  12.830   8.899   1.279 -0.3229  0.6524  0.1121
66751SOL     OW12231   9.282   5.215  11.122 -0.3197 -0.2826 -0.3634
66751SOL    HW112232   9.208   5.268  11.150 -0.5247  0.1710 -1.6791
66751SOL    HW212233   9.244   5.145  11.069  0.2514  1.0789 -2.7455
66752SOL     OW12234  11.819   1.415  14.019  0.0088  0.4910  0.2229
66752SOL    HW112235  11.790   1.363  13.944  1.6717 -0.8056  0.4266
66752SOL    HW212236  11.777   1.374  14.095 -0.6438  1.0095  0.1567
66753SOL     OW12237   4.598   5.885   1.829  0.7701 -0.3209 -0.0726
66753SOL    HW112238   4.631   5.804   1.789  0.3736 -0.3993 -0.2584
66753SOL    HW212239   4.563   5.858   1.914  2.8346  0.0711  0.9590
66754SOL     OW12240   5.135   1.108  13.149  0.6684  0.0727 -0.0186
66754SOL    HW112241   5.098   1.170  13.086  0.9599 -0.9655 -1.2297
66754SOL    HW212242   5.107   1.022  13.118  2.5655 -0.6119  0.0867
66755SOL     OW12243   3.588   2.423  12.306  0.7468  0.3014  0.4427
66755SOL    HW112244   3.557   2.513  12.308  1.8798  0.6945  1.3697
66755SOL    HW212245   3.684   2.430  12.309  0.9120 -0.8962 -0.9469
66756SOL     OW12246   7.013   4.626   0.914 -0.3495  0.9245 -0.1336
66756SOL    HW112247   7.051   4.625   0.826 -0.4644  3.5913 -0.2908
66756SOL    HW212248   7.078   4.583   0.969  0.4653  0.6579 -1.2742
66757SOL     OW12249   4.457   4.734   5.047  0.5425  0.4182 -0.2431
66757SOL    HW112250   4.456   4.683   4.966 -0.1571  0.6121 -0.3604
66757SOL    HW212251   4.377   4.787   5.043  0.1871 -0.0120  0.8571
66758SOL     OW12252   2.953   4.234  13.451  0.3480 -0.2786  0.0404
66758SOL    HW112253   2.859   4.253  13.444  0.2285 -0.9983 -0.5645
66758SOL    HW212254   2.977   4.258  13.540 -0.2045  0.7829 -0.0846
66759SOL     OW12255   4.029  13.609  12.257 -0.6434  0.2553 -0.1847
66759SOL    HW112256   3.971  13.679  12.229 -0.7296  1.6163  2.9802
66759SOL    HW212257   4.112  13.652  12.276 -0.3162 -0.6817  0.6341
66760SOL     OW12258  12.542  11.340   1.723  0.4955 -0.0126  0.0401
66760SOL    HW112259  12.496  11.423   1.710  1.3381  0.2218 -1.8389
66760SOL    HW212260  12.608  11.359   1.789  0.7104  0.8335 -0.4061
66761SOL     OW12261   1.169   3.549   4.730  0.0936 -0.5098 -0.0362
66761SOL    HW112262   1.094   3.495   4.705 -0.2983 -0.0223  0.0453
66761SOL    HW212263   1.242   3.488   4.738  0.1108 -0.7627 -1.8354
66762SOL     OW12264  10.067   0.428   6.267  0.3117  0.3423 -0.4094
66762SOL    HW112265  10.003   0.471   6.212  0.1343  1.1187  0.3853
66762SOL    HW212266  10.079   0.487   6.342 -0.1546 -1.0912  0.8685
66763SOL     OW12267   9.649   4.581   6.745 -0.4629 -0.3996 -0.2653
66763SOL    HW112268   9.731   4.555   6.784 -1.0037 -1.0502  0.4584
66763SOL    HW212269   9.659   4.564   6.651  0.5465  0.4138 -0.3222
66764SOL     OW12270   6.557   5.000   7.576 -0.0901 -0.5185 -0.6071
66764SOL    HW112271   6.520   4.992   7.664  0.3634 -0.6843 -0.4247
66764SOL    HW212272   6.607   4.919   7.564  0.2239 -0.2954 -0.8376
66765SOL     OW12273   7.067   0.930   1.186  0.1337  0.2647 -0.7156
66765SOL    HW112274   7.062   0.835   1.184  1.3246  0.1760 -0.1879
66765SOL    HW212275   7.047   0.957   1.096 -0.5175 -0.4554 -0.7919
66766SOL     OW12276  11.416   8.670   4.198 -0.1226 -0.3234  0.0884
66766SOL    HW112277  11.494   8.616   4.189 -0.0918 -0.6251  1.8381
66766SOL    HW212278  11.410   8.718   4.116  2.1023 -0.0268  0.0522
66767SOL     OW12279  11.215  11.559   0.742 -0.0357 -0.2946  0.0964
66767SOL    HW112280  11.286  11.497   0.758  1.4116  1.2957  0.1454
66767SOL    HW212281  11.179  11.533   0.657  0.7657 -0.9828 -0.0376
66768SOL     OW12282   8.514  11.153  13.366  0.0753 -0.0298  0.2376
66768SOL    HW112283   8.516  11.247  13.352 -0.2455  0.0090  0.4411
66768SOL    HW212284   8.601  11.131  13.399  0.1935  0.1738  0.0583
66769SOL     OW12285   7.673   4.956   6.357 -0.1757  0.2059 -0.2597
66769SOL    HW112286   7.636   4.870   6.376 -0.0086  0.2364  0.2061
66769SOL    HW212287   7.744   4.966   6.419  0.4063  0.2919 -0.9256
66770SOL     OW12288   4.953   1.677   2.713 -0.0718 -0.3368 -0.5317
66770SOL    HW112289   4.866   1.648   2.687 -0.6891 -0.9908  1.9895
66770SOL    HW212290   5.013   1.616   2.669 -0.9264 -0.4937 -1.5087
66771SOL     OW12291  11.301   6.244   5.255 -0.4748 -0.0822  0.0889
66771SOL    HW112292  11.353   6.175   5.298  0.7701  1.1336  0.6240
66771SOL    HW212293  11.361   6.281   5.190 -0.5729  1.5259  0.8870
66772SOL     OW12294   6.302   1.945   7.858  0.2784 -0.3002 -0.0867
66772SOL    HW112295   6.334   2.035   7.845 -2.1623  0.3906 -2.2230
66772SOL    HW212296   6.281   1.941   7.951  0.5207  1.3090  0.0785
66773SOL     OW12297   9.033   2.220   8.009  0.2389  0.0251  0.6508
66773SOL    HW112298   9.111   2.204   7.956  2.0543  2.9906  2.2275
66773SOL    HW212299   9.035   2.151   8.075 -0.1819 -1.6638 -1.0009
66774SOL     OW12300   9.985   2.239   0.135 -0.2682 -0.4533  0.1820
66774SOL    HW112301   9.942   2.306   0.083 -0.5069 -0.9110 -0.2154
66774SOL    HW212302   9.927   2.226   0.210 -0.0880 -0.0284  0.3986
66775SOL     OW12303   4.767  10.535   8.288  0.1090  0.5827  0.2181
66775SOL    HW112304   4.824  10.584   8.228 -0.3840  0.6692 -0.1825
66775SOL    HW212305   4.803  10.554   8.374 -0.1073  1.7209  0.0844
66776SOL     OW12306   7.341   6.624   0.137  0.7130 -0.5529 -0.2189
66776SOL    HW112307   7.303   6.578   0.062  1.5917 -2.5634  0.4892
66776SOL    HW212308   7.421   6.663   0.103  0.2148  0.0680 -0.7132
66777SOL     OW12309  10.454   3.331  11.006  0.2948  0.4612 -0.8117
66777SOL    HW112310  10.545   3.327  11.036  0.1746 -2.0028 -0.5749
66777SOL    HW212311  10.426   3.240  11.002 -2.8329  1.2165  1.0675
66778SOL     OW12312   7.408  12.220  13.333 -0.1431  0.1690 -0.0390
66778SOL    HW112313   7.494  12.179  13.345  0.2543  1.0680  0.2249
66778SOL    HW212314   7.410  12.255  13.244 -0.2797  0.1049 -0.0689
66779SOL     OW12315   2.964   2.681   0.231  0.3610  0.6361 -0.2720
66779SOL    HW112316   3.004   2.752   0.283 -1.5185  2.0436 -0.6229
66779SOL    HW212317   2.879   2.667   0.273  0.8077 -1.6713 -0.0416
66780SOL     OW12318   8.533   2.793   5.736  0.1816 -0.6243  0.1291
66780SOL    HW112319   8.455   2.846   5.720 -0.6600 -1.7623  0.3437
66780SOL    HW212320   8.535   2.783   5.832 -1.2049 -3.1575 -0.0358
66781SOL     OW12321  13.271   3.888   3.376 -0.3269 -0.1029 -0.2161
66781SOL    HW112322  13.311   3.806   3.347 -1.3856 -0.6062 -0.2992
66781SOL    HW212323  13.344   3.950   3.380  0.7644 -1.4099  1.2773
66782SOL     OW12324   5.003   6.259   7.438  0.1840  0.0419 -0.0785
66782SOL    HW112325   5.030   6.167   7.440 -0.2085 -0.1207 -1.2446
66782SOL    HW212326   5.010   6.288   7.528  2.6801 -0.4235 -0.0702
66783SOL     OW12327   8.279   1.604  13.304  0.2069  0.2424  0.5137
66783SOL    HW112328   8.230   1.686  13.313 -0.4818  0.2257 -2.2046
66783SOL    HW212329   8.211   1.537  13.299  0.7062 -0.3056  1.0690
66784SOL     OW12330  10.780   7.816   4.259  0.0877 -0.2020 -0.3625
66784SOL    HW112331  10.849   7.755   4.283  0.1830  0.3342  0.7844
66784SOL    HW212332  10.795   7.892   4.315  1.4767  1.9476 -3.3692
66785SOL     OW12333  13.212   0.992  11.439 -0.1328 -0.2543  0.2934
66785SOL    HW112334  13.228   0.952  11.354 -3.8938 -0.7664 -0.3597
66785SOL    HW212335  13.205   0.918  11.500 -0.4434 -0.0990  0.4486
66786SOL     OW12336  10.406   2.403  11.062  0.1078  0.0873 -0.4759
66786SOL    HW112337  10.332   2.421  11.003 -0.5908  0.3165  0.4386
66786SOL    HW212338  10.376   2.434  11.148  2.0630  2.1583 -0.4432
66787SOL     OW12339   1.394   3.446   1.904 -1.1162 -0.1294 -0.1072
66787SOL    HW112340   1.323   3.480   1.850 -0.7670  0.4568 -0.2065
66787SOL    HW212341   1.374   3.478   1.992 -0.5050  0.8172 -0.2931
66788SOL     OW12342   1.048  12.743  13.613 -0.2093  0.3779  0.5878
66788SOL    HW112343   1.026  12.701  13.530 -0.1678  0.7836  0.3710
66788SOL    HW212344   1.011  12.831  13.606 -2.1053 -0.2574  1.8373
66789SOL     OW12345   2.312   1.631  13.704 -0.0802 -0.5577 -0.7583
66789SOL    HW112346   2.348   1.636  13.616 -0.2432  0.6239 -0.7734
66789SOL    HW212347   2.353   1.704  13.751 -0.5914 -0.6934 -0.0821
66790SOL     OW12348   2.414   3.935   1.917  0.1943 -0.5542 -0.0705
66790SOL    HW112349   2.429   3.983   1.835  0.5906  1.5949  1.1612
66790SOL    HW212350   2.499   3.937   1.962  0.3694 -2.9768 -0.1779
66791SOL     OW12351  12.991   5.696   1.153  0.3850 -0.0170  0.2781
66791SOL    HW112352  13.022   5.783   1.178  0.7396  0.0729 -0.4349
66791SOL    HW212353  12.907   5.687   1.198  0.4112  0.6385  0.4733
66792SOL     OW12354  10.046   7.352  11.405 -0.0322 -0.0656 -0.9452
66792SOL    HW112355  10.136   7.343  11.437 -0.6947 -0.0779  1.0742
66792SOL    HW212356  10.055   7.360  11.310  1.9653 -2.1177 -1.0370
66793SOL     OW12357   0.722   7.020   1.747 -0.4472 -0.2453 -0.6254
66793SOL    HW112358   0.636   7.053   1.719 -1.9358 -1.9982  1.4567
66793SOL    HW212359   0.722   6.929   1.719  0.2782 -0.5448  0.3081
66794SOL     OW12360  13.314   4.215   5.170  0.0268 -0.1176 -0.1387
66794SOL    HW112361  13.250   4.235   5.238 -0.2949 -0.1107 -0.4435
66794SOL    HW212362  13.392   4.186   5.219 -0.8535 -2.0891  0.1932
66795SOL     OW12363   3.276   1.461   5.716  0.1316  0.1221 -0.3484
66795SOL    HW112364   3.192   1.446   5.674 -0.7174 -0.2062  1.3797
66795SOL    HW212365   3.315   1.534   5.667 -1.5972  0.9211 -0.5971
66796SOL     OW12366   9.195   5.635   0.037  0.6070 -0.2664  0.1120
66796SOL    HW112367   9.107   5.671   0.048 -1.0629 -3.7817 -0.4707
66796SOL    HW212368   9.253   5.709   0.054 -2.4206  2.3521  0.0290
66797SOL     OW12369   7.579   4.286  12.071  0.3903  0.8570 -0.1169
66797SOL    HW112370   7.508   4.300  12.133  1.7993  1.9231  1.3318
66797SOL    HW212371   7.588   4.369  12.025  0.9605  0.8784  0.0185
66798SOL     OW12372  12.242   8.290   8.009  0.0422 -0.3347 -0.1463
66798SOL    HW112373  12.190   8.267   7.932 -0.3387 -2.3412  0.6680
66798SOL    HW212374  12.178   8.323   8.073  0.2623  0.5759 -0.3712
66799SOL     OW12375   4.199   7.473   7.325  0.1209 -0.4601 -0.4207
66799SOL    HW112376   4.135   7.452   7.393  1.9424 -1.3198  1.0891
66799SOL    HW212377   4.262   7.401   7.328  0.7725 -0.0503 -2.4282
66800SOL     OW12378  11.866   2.791  10.263 -0.4967 -0.0629 -0.2777
66800SOL    HW112379  11.778   2.818  10.289 -0.2539  0.9515 -0.4615
66800SOL    HW212380  11.853   2.740  10.183 -0.8409  0.9777 -0.9020
66801SOL     OW12381   3.639   8.904   9.474 -0.2470  0.2507  0.1029
66801SOL    HW112382   3.574   8.833   9.478 -0.6697  0.4229 -2.1760
66801SOL    HW212383   3.723   8.859   9.475 -0.4071 -0.0667  1.6260
66802SOL     OW12384  10.164   8.278   4.950 -0.7790  0.5110  0.2980
66802SOL    HW112385  10.072   8.279   4.924 -1.3727 -0.2295  2.1461
66802SOL    HW212386  10.164   8.238   5.037  1.4759 -0.9874 -0.2853
66803SOL     OW12387   1.065  11.490   0.309 -0.6343 -0.2988 -0.3351
66803SOL    HW112388   0.991  11.490   0.370 -0.5742 -0.0899 -0.2645
66803SOL    HW212389   1.125  11.556   0.342 -0.8427  0.1891 -0.9086
66804SOL     OW12390   7.186   0.518   2.176  0.1493 -0.1580  0.3269
66804SOL    HW112391   7.176   0.544   2.268 -1.4746  2.9154 -0.5628
66804SOL    HW212392   7.097   0.494   2.148  0.6412 -1.1480 -0.4515
66805SOL     OW12393   0.317  10.819   1.908 -0.0338 -0.6315  0.2292
66805SOL    HW112394   0.332  10.766   1.986  1.4070  3.1323  2.7441
66805SOL    HW212395   0.404  10.829   1.869 -0.2665 -0.0176 -0.1390
66806SOL     OW12396  13.286   4.513   3.588 -0.0216  0.0868  0.3923
66806SOL    HW112397  13.230   4.580   3.550 -0.7719 -0.0180  1.2766
66806SOL    HW212398  13.229   4.464   3.647  0.6763 -0.9011  0.2802
66807SOL     OW12399  13.498  10.168   4.568 -0.0631 -0.3331  0.3096
66807SOL    HW112400  13.556  10.116   4.624 -0.6350 -0.5772  0.6787
66807SOL    HW212401  13.442  10.216   4.629 -0.5316 -0.4173 -0.0528
66808SOL     OW12402  11.252   2.798  10.654 -0.4432 -0.0789 -0.1478
66808SOL    HW112403  11.267   2.788  10.560 -2.0481  0.0483 -0.4346
66808SOL    HW212404  11.340   2.801  10.692  0.2349 -1.6187 -1.4754
66809SOL     OW12405   7.099   5.667   1.176 -0.0226  0.1846 -0.1161
66809SOL    HW112406   7.160   5.633   1.111 -0.5515  0.3458 -0.7062
66809SOL    HW212407   7.154   5.707   1.242  0.5893 -1.1195  0.2028
66810SOL     OW12408  12.596  12.086   4.776 -0.5447  0.2668 -0.3508
66810SOL    HW112409  12.510  12.110   4.741 -0.6054 -0.2584 -0.5605
66810SOL    HW212410  12.657  12.147   4.734 -0.9705  1.5883  0.8528
66811SOL     OW12411   3.246  10.501  11.224 -0.2445  0.2492  0.1007
66811SOL    HW112412   3.206  10.439  11.285 -0.5360 -0.7618 -1.0673
66811SOL    HW212413   3.339  10.502  11.248  0.1576 -2.1486 -1.0225
66812SOL     OW12414   8.486   7.208   9.539 -0.3082  0.3890 -0.0586
66812SOL    HW112415   8.477   7.218   9.634 -0.7233  1.1954 -0.1794
66812SOL    HW212416   8.481   7.113   9.525  0.6224  0.1991  0.8012
66813SOL     OW12417   3.127   2.793  11.449  0.0126 -0.1505 -0.6242
66813SOL    HW112418   3.039   2.807  11.484  0.6075  2.9157 -0.0679
66813SOL    HW212419   3.142   2.869  11.392  2.4209 -0.3963 -0.4079
66814SOL     OW12420   1.165   6.648  10.825 -0.0649 -0.2456  0.1452
66814SOL    HW112421   1.142   6.589  10.896 -1.7723 -0.6971 -0.7213
66814SOL    HW212422   1.108   6.724  10.837 -0.0116 -0.1034 -0.4435
66815SOL     OW12423  11.552   4.353   6.301 -0.0105  0.0476  0.0310
66815SOL    HW112424  11.640   4.345   6.336 -0.1986  1.0657  0.7994
66815SOL    HW212425  11.553   4.436   6.253 -0.4533 -0.1138 -0.2677
66816SOL     OW12426   7.132   0.262   1.873  0.2673 -0.3834  0.2228
66816SOL    HW112427   7.224   0.283   1.855 -0.0869 -0.4911 -1.9519
66816SOL    HW212428   7.098   0.229   1.790 -1.4287 -1.5533  1.3140
66817SOL     OW12429  11.757   6.353   8.135  0.6457  0.2334 -0.2892
66817SOL    HW112430  11.819   6.374   8.204  1.7423 -1.7898 -0.5716
66817SOL    HW212431  11.809   6.306   8.069 -0.7591  0.3671 -1.5487
66818SOL     OW12432  12.519   5.351   7.743  0.3242  0.4297  0.7090
66818SOL    HW112433  12.553   5.332   7.831 -0.1755 -0.4385  0.7274
66818SOL    HW212434  12.595   5.343   7.686  0.4163 -0.2255  0.9103
66819SOL     OW12435   5.491  12.057   9.318 -0.1287  0.4119 -0.1362
66819SOL    HW112436   5.585  12.063   9.303 -0.2570 -0.5552 -1.5105
66819SOL    HW212437   5.479  12.086   9.408  1.5154  0.3106  0.1398
66820SOL     OW12438   7.754   3.492   7.822  0.3775  0.0731 -0.4354
66820SOL    HW112439   7.676   3.480   7.876 -0.6700  0.1494 -1.8616
66820SOL    HW212440   7.773   3.404   7.788 -0.7762  0.4903 -2.2724
66821SOL     OW12441  11.598   0.849   8.796 -0.3326 -0.3547  0.0465
66821SOL    HW112442  11.667   0.808   8.848  0.7024  2.2545  0.9039
66821SOL    HW212443  11.538   0.778   8.776  2.3996 -2.7339 -0.5003
66822SOL     OW12444  12.278   3.354   0.803  0.4180  0.1109  0.1401
66822SOL    HW112445  12.302   3.447   0.796  0.7452 -0.0268 -0.7271
66822SOL    HW212446  12.329   3.311   0.734  1.7126 -1.0233  1.7386
66823SOL     OW12447  10.360  10.064   0.910 -0.2881  0.3013  0.1508
66823SOL    HW112448  10.343  10.077   0.816 -0.2635  0.3238  0.1498
66823SOL    HW212449  10.354  10.151   0.948  1.7544  0.6188 -0.1379
66824SOL     OW12450  13.362   8.764   5.873 -0.3815 -0.3709  0.4418
66824SOL    HW112451  13.351   8.723   5.958  2.0155  0.3507  1.1895
66824SOL    HW212452  13.328   8.853   5.885  1.6517  0.3350  1.2697
66825SOL     OW12453  11.045   1.050  13.134 -0.2299 -0.5787  0.5724
66825SOL    HW112454  10.967   0.995  13.121 -0.8463  0.6318 -1.2803
66825SOL    HW212455  11.011   1.139  13.134  1.0949 -0.0550  0.5347
66826SOL     OW12456  13.768   1.499   7.966 -0.3590 -0.2335  0.4304
66826SOL    HW112457  13.813   1.559   8.026  0.8837 -0.7181  0.0296
66826SOL    HW212458  13.803   1.522   7.880 -0.9812 -0.5508  0.0907
66827SOL     OW12459  10.684   1.299   2.928 -0.3868  0.0072 -0.0850
66827SOL    HW112460  10.693   1.320   3.021 -0.2944 -0.3653 -0.0081
66827SOL    HW212461  10.759   1.242   2.909 -1.9639 -2.3528  0.3395
66828SOL     OW12462   7.443   3.502   8.679  0.3362  0.2822  0.3281
66828SOL    HW112463   7.464   3.592   8.654  2.5403  0.0593  1.1326
66828SOL    HW212464   7.484   3.447   8.612  0.2893 -0.1342  0.6315
66829SOL     OW12465   3.379   9.955   2.327 -0.3188  0.1349 -0.4654
66829SOL    HW112466   3.470   9.930   2.335 -0.7198 -1.1218  0.5033
66829SOL    HW212467   3.337   9.880   2.284 -1.1633 -0.0210  0.5687
66830SOL     OW12468  11.206  10.542  10.408  0.0331  0.2398  0.3587
66830SOL    HW112469  11.154  10.621  10.403  0.9497  0.8022 -0.8004
66830SOL    HW212470  11.254  10.549  10.491  0.8022  1.3643 -0.1602
66831SOL     OW12471   3.244   8.030   3.886  0.5321 -0.5060 -0.6138
66831SOL    HW112472   3.227   8.085   3.810  1.2862 -0.8675 -1.0516
66831SOL    HW212473   3.321   8.068   3.927 -1.2141  1.1258  1.3775
66832SOL     OW12474   8.110  13.953  11.112 -0.2508  0.1730  0.0798
66832SOL    HW112475   8.145  13.902  11.185 -0.3616  0.9966  0.7217
66832SOL    HW212476   8.100  14.042  11.147  0.8873  0.8854 -1.3056
66833SOL     OW12477  11.484   1.839  13.237  0.0145  0.5872  0.1759
66833SOL    HW112478  11.532   1.756  13.235 -3.4822 -1.7749  2.1053
66833SOL    HW212479  11.499   1.878  13.151  0.8661 -2.6641 -1.2974
66834SOL     OW12480   9.882   7.703   8.230 -0.4663  0.0145  0.0129
66834SOL    HW112481   9.885   7.681   8.323  1.6567 -0.2630 -0.0677
66834SOL    HW212482   9.815   7.646   8.194 -0.3201 -0.9028  1.1290
66835SOL     OW12483   1.127   4.408   8.847  0.1590 -0.3740 -0.7455
66835SOL    HW112484   1.058   4.429   8.911  0.5162  0.2181 -0.5386
66835SOL    HW212485   1.145   4.315   8.860 -1.1880 -0.7479 -1.3888
66836SOL     OW12486   9.988   2.023   6.704  0.0213  0.6132 -0.2234
66836SOL    HW112487   9.960   2.112   6.684  1.0299  1.4397  1.8040
66836SOL    HW212488   9.920   1.989   6.761 -0.3503  0.0580 -0.9747
66837SOL     OW12489  13.105   8.770  13.333 -0.0843  0.1771 -0.0335
66837SOL    HW112490  13.115   8.742  13.424 -2.3136  1.4699  0.6905
66837SOL    HW212491  13.021   8.816  13.331 -0.4110 -0.3441 -2.8948
66838SOL     OW12492   2.631  13.444   8.492  0.5342  0.4191  0.3840
66838SOL    HW112493   2.681  13.392   8.555 -0.1848 -1.2432 -0.3660
66838SOL    HW212494   2.693  13.462   8.421  0.8770  0.8791  0.7935
66839SOL     OW12495  13.490   9.927   3.462  0.0622  0.4030 -0.1226
66839SOL    HW112496  13.434   9.972   3.399 -0.5873 -0.9638 -0.5651
66839SOL    HW212497  13.556   9.991   3.486 -1.0778  1.7167 -0.3969
66840SOL     OW12498   6.655  10.048   0.316 -0.4989 -0.5112  0.2269
66840SOL    HW112499   6.645   9.953   0.327 -2.3105 -0.4670 -0.7327
66840SOL    HW212500   6.603  10.069   0.239 -0.7963  1.3946  0.9038
66841SOL     OW12501  13.693   0.117   5.139  0.2912  0.7745 -0.5570
66841SOL    HW112502  13.760   0.100   5.205  0.3448 -0.0414 -0.8052
66841SOL    HW212503  13.733   0.087   5.057 -0.1755  0.7865 -0.7912
66842SOL     OW12504   2.239   0.346  10.456 -0.4869 -0.3007 -0.0727
66842SOL    HW112505   2.294   0.420  10.482 -0.2306 -0.4085 -0.3065
66842SOL    HW212506   2.172   0.342  10.524 -2.4688  2.1542 -1.7272
66843SOL     OW12507   4.869   0.506   6.775  0.2929 -0.2301 -0.4577
66843SOL    HW112508   4.784   0.537   6.742  0.7372  1.7705  0.1345
66843SOL    HW212509   4.909   0.584   6.815  1.9445 -1.3863  0.2522
66844SOL     OW12510   6.814   0.142  11.786  0.8209 -0.4858  0.1480
66844SOL    HW112511   6.733   0.092  11.778  0.1735  0.6767 -1.0386
66844SOL    HW212512   6.821   0.161  11.880 -0.8003  0.1794  0.1696
66845SOL     OW12513   5.578   0.101   1.263  0.6295  0.2901 -0.6013
66845SOL    HW112514   5.532   0.024   1.230 -0.6228 -0.3962  2.3894
66845SOL    HW212515   5.520   0.174   1.243  0.3224  0.0280 -0.6808
66846SOL     OW12516   2.527   4.520   2.739 -0.4106  0.1778  0.1329
66846SOL    HW112517   2.522   4.590   2.674  1.4435 -0.2608 -0.5409
66846SOL    HW212518   2.534   4.440   2.688  2.3551 -0.0840  0.7564
66847SOL     OW12519  13.887   0.645   8.834 -0.3580 -0.0005  0.1941
66847SOL    HW112520  13.809   0.591   8.817  0.5069 -1.6859  1.2622
66847SOL    HW212521  13.921   0.612   8.917  0.0293  2.5178  1.0995
66848SOL     OW12522  10.502   0.247  13.446 -0.0587  0.6161  0.0905
66848SOL    HW112523  10.427   0.307  13.451 -0.4775  0.1669 -0.6358
66848SOL    HW212524  10.486   0.183  13.515  0.0300  0.9310  0.4079
66849SOL     OW12525  11.756   8.204   3.290  0.3940 -0.1220 -0.1058
66849SOL    HW112526  11.815   8.234   3.359  0.0602  0.2105  0.0386
66849SOL    HW212527  11.783   8.113   3.274  3.3420  1.0262 -2.5930
66850SOL     OW12528  13.586   9.922   7.022 -1.0487 -0.1059  0.3461
66850SOL    HW112529  13.649   9.990   7.044 -0.3035 -0.0251 -1.8259
66850SOL    HW212530  13.631   9.840   7.040 -0.9697 -0.0435  0.4343
66851SOL     OW12531  13.990   6.855   3.749  0.5358  0.0791  0.3510
66851SOL    HW112532  13.972   6.809   3.831  2.0305  0.1918  0.7652
66851SOL    HW212533  14.085   6.856   3.741  0.5039  1.7894 -0.3992
66852SOL     OW12534  10.328   7.811   0.052  0.0556  0.0804 -0.3126
66852SOL    HW112535  10.362   7.811   0.142  0.1242  1.2294 -0.3221
66852SOL    HW212536  10.304   7.720   0.035  2.7392 -0.7612 -0.1470
66853SOL     OW12537   0.875  13.970   0.219 -0.1364  0.6564  0.3526
66853SOL    HW112538   0.789  13.996   0.184  0.1697 -0.2156 -1.1129
66853SOL    HW212539   0.924  13.938   0.143  0.0896 -2.6333  1.6862
66854SOL     OW12540   9.715   5.993  13.953  0.6328  0.6954 -0.0703
66854SOL    HW112541   9.760   5.936  14.015  1.1157  0.6204 -0.4869
66854SOL    HW212542   9.670   6.057  14.008  1.2778  0.7903  0.3572
66855SOL     OW12543   2.407  13.683   1.949  0.9538 -0.1774 -0.1492
66855SOL    HW112544   2.417  13.726   1.865 -0.4213  0.9481  0.2216
66855SOL    HW212545   2.366  13.599   1.928  1.1713 -0.1604 -0.6501
66856SOL     OW12546   5.442   1.806   6.652 -0.8096 -0.2800  0.2303
66856SOL    HW112547   5.525   1.844   6.683 -0.6807 -1.1694  1.0449
66856SOL    HW212548   5.385   1.881   6.636 -1.0264  0.2726  3.0839
66857SOL     OW12549   4.001   1.051   1.001  0.2369 -0.7478 -0.0761
66857SOL    HW112550   3.950   1.016   1.074 -0.8538  1.3873  0.2413
66857SOL    HW212551   4.056   1.118   1.040  0.1803 -0.0820 -1.1029
66858SOL     OW12552   6.753  11.859   4.662 -0.3643 -0.4606  0.4335
66858SOL    HW112553   6.762  11.788   4.725  2.9508 -0.1778  0.4909
66858SOL    HW212554   6.745  11.815   4.577  1.6026 -1.0006  0.4753
66859SOL     OW12555   0.833   2.455   6.529  0.0530  0.2622 -0.2485
66859SOL    HW112556   0.823   2.516   6.456  2.7102  0.2064 -0.7548
66859SOL    HW212557   0.784   2.377   6.502 -0.0523  0.7073 -1.4097
66860SOL     OW12558   1.167  12.868   6.447 -0.7871  0.3490  0.1629
66860SOL    HW112559   1.251  12.860   6.492 -0.7381 -1.6921 -0.2050
66860SOL    HW212560   1.104  12.829   6.507 -1.7393  2.7724  0.8954
66861SOL     OW12561   1.145   0.723   5.734  0.4522 -0.1790 -0.0655
66861SOL    HW112562   1.055   0.735   5.702 -0.3164 -2.9486  0.7869
66861SOL    HW212563   1.136   0.718   5.829  1.6471  0.2446  0.0863
66862SOL     OW12564   5.602  12.289   0.392  0.1125  0.1346 -0.0028
66862SOL    HW112565   5.657  12.332   0.456  0.8018 -1.6698  0.6810
66862SOL    HW212566   5.512  12.306   0.422  0.4258 -0.8452  1.5922
66863SOL     OW12567  12.498   2.733   1.329  0.6172 -0.1485 -0.2154
66863SOL    HW112568  12.585   2.693   1.335  0.0495 -1.2164  2.7832
66863SOL    HW212569  12.473   2.723   1.237  2.3427 -2.7705 -0.5180
66864SOL     OW12570   8.816   6.609   7.439 -0.1272  0.0265 -0.6033
66864SOL    HW112571   8.862   6.630   7.357 -0.5423 -0.8963 -1.0855
66864SOL    HW212572   8.884   6.615   7.506  0.1550  1.0890 -0.9566
66865SOL     OW12573   0.840   6.742   4.901 -0.1081  0.1554 -0.0041
66865SOL    HW112574   0.829   6.651   4.875 -3.0279  0.6924 -1.0942
66865SOL    HW212575   0.877   6.785   4.824  0.6675  0.0126  0.2856
66866SOL     OW12576  11.118  12.388   3.376  0.3680 -0.0326 -0.2293
66866SOL    HW112577  11.045  12.445   3.400 -0.6918 -1.0027 -1.0144
66866SOL    HW212578  11.097  12.304   3.416  0.9373 -0.3914 -0.6671
66867SOL     OW12579   2.833  11.779  11.249 -0.3066  0.4769 -0.4746
66867SOL    HW112580   2.892  11.799  11.323  1.3003  1.3717 -1.9266
66867SOL    HW212581   2.799  11.692  11.269  0.5040  0.4605  1.0511
66868SOL     OW12582   4.972  11.847   1.886 -0.2634 -0.3340  0.0911
66868SOL    HW112583   4.883  11.835   1.853 -0.4547  0.3386  0.3470
66868SOL    HW212584   4.962  11.904   1.962  0.4725  0.4828 -0.4114
66869SOL     OW12585   3.628   3.201   2.037 -0.1437  0.1584 -0.5146
66869SOL    HW112586   3.551   3.258   2.040  0.6789  1.2839  0.9013
66869SOL    HW212587   3.596   3.115   2.064 -0.8606  0.6859  0.3620
66870SOL     OW12588  13.647  11.739   4.451  0.0735 -0.1945  0.0287
66870SOL    HW112589  13.613  11.755   4.539  0.1663 -0.4654  0.1155
66870SOL    HW212590  13.653  11.826   4.411 -0.8265 -0.1550 -0.0362
66871SOL     OW12591   7.247  11.122   7.043  0.2087  0.7056  0.6000
66871SOL    HW112592   7.198  11.081   6.972 -1.0773 -0.2406  1.9920
66871SOL    HW212593   7.181  11.162   7.099  0.9042 -0.9644  2.7566
66872SOL     OW12594  10.709  11.411  13.797  0.0713  0.0284 -0.2388
66872SOL    HW112595  10.704  11.339  13.733 -2.2669  1.1427 -1.4302
66872SOL    HW212596  10.691  11.369  13.881 -3.7121 -0.6039 -1.1815
66873SOL     OW12597  11.307  10.694   3.998  0.2765 -0.5847  0.2280
66873SOL    HW112598  11.352  10.752   3.935 -0.5077  1.2506  1.2840
66873SOL    HW212599  11.291  10.750   4.074 -0.1715 -2.3401  1.4662
66874SOL     OW12600   0.704  11.285  11.226  0.3199 -0.1411  0.0985
66874SOL    HW112601   0.729  11.355  11.166  0.4348 -0.8167 -0.6591
66874SOL    HW212602   0.764  11.294  11.300 -0.4094  1.2707  0.5615
66875SOL     OW12603  12.746  13.478   3.367 -0.2715 -0.2665 -0.3530
66875SOL    HW112604  12.711  13.425   3.295 -1.1827  2.4985 -2.0709
66875SOL    HW212605  12.841  13.467   3.361 -0.4477 -2.9037  0.4022
66876SOL     OW12606   9.104  13.820   1.385  0.5476 -0.3430  0.6690
66876SOL    HW112607   9.065  13.892   1.435  1.8882  0.4149  0.6752
66876SOL    HW212608   9.161  13.776   1.447  2.2516  0.6249 -0.1388
66877SOL     OW12609  11.930   6.784  10.053  0.2024  0.2080  0.1483
66877SOL    HW112610  12.014   6.739  10.041  0.5025  1.0430 -1.0941
66877SOL    HW212611  11.866   6.727  10.012  0.0614 -0.6240  1.4392
66878SOL     OW12612  10.801   4.401   1.050 -0.3851 -0.3368  0.0509
66878SOL    HW112613  10.714   4.366   1.070 -0.7010 -0.1080 -0.8889
66878SOL    HW212614  10.784   4.487   1.012  0.2075 -0.5593 -0.7414
66879SOL     OW12615   8.897  12.438   2.083 -0.1782 -0.2648  0.3019
66879SOL    HW112616   8.865  12.381   2.013  1.7166 -1.7332  0.5571
66879SOL    HW212617   8.964  12.492   2.042  1.1324 -1.3136  0.9910
66880SOL     OW12618   7.511   1.894   9.374 -0.3672 -0.1564 -0.1568
66880SOL    HW112619   7.439   1.941   9.333  0.5821  1.9393  0.4111
66880SOL    HW212620   7.558   1.853   9.301  0.6932  2.6269 -1.1854
66881SOL     OW12621   0.492  12.652   8.246  0.9829  0.0980  0.1017
66881SOL    HW112622   0.453  12.625   8.164  1.9891  0.6154 -0.5676
66881SOL    HW212623   0.484  12.575   8.303  1.6252 -0.7865 -0.9666
66882SOL     OW12624   0.906   1.611   9.038 -0.1318 -0.1682  0.4696
66882SOL    HW112625   0.931   1.700   9.061 -0.2413  0.0322 -0.1745
66882SOL    HW212626   0.963   1.587   8.965 -0.5804 -0.3659  0.1760
66883SOL     OW12627   2.240   2.241   8.844  0.9811 -0.2554  0.1194
66883SOL    HW112628   2.273   2.190   8.770  1.0710  1.2459 -0.9295
66883SOL    HW212629   2.151   2.265   8.818  0.4453 -1.0070  1.2053
66884SOL     OW12630  10.941  12.235  12.164  0.3952 -0.0570  0.6593
66884SOL    HW112631  11.025  12.276  12.145  0.6211 -0.0945  1.5262
66884SOL    HW212632  10.964  12.155  12.212 -0.0975 -0.5380  0.1118
66885SOL     OW12633   4.088   8.505   4.940  0.1663  0.4086  0.0618
66885SOL    HW112634   3.993   8.518   4.945  0.1934  0.8508 -0.5083
66885SOL    HW212635   4.126   8.589   4.965  0.4379 -0.0536  1.2844
66886SOL     OW12636  14.038   8.485  12.140  0.3262 -0.0673  0.5355
66886SOL    HW112637  14.000   8.551  12.199  0.5161 -1.3560  2.1792
66886SOL    HW212638  13.964   8.452  12.089  0.1757  1.1515 -0.0659
66887SOL     OW12639   8.703   0.884   6.004 -0.4599  0.2132  0.2537
66887SOL    HW112640   8.797   0.874   6.023 -0.0944 -1.9695 -2.1296
66887SOL    HW212641   8.699   0.956   5.941 -0.2107 -0.3429 -0.4183
66888SOL     OW12642   2.457   1.012   2.329 -0.0264  0.4486 -0.0218
66888SOL    HW112643   2.364   0.989   2.334 -0.0940  0.8976  1.1259
66888SOL    HW212644   2.502   0.927   2.327 -0.3989  0.2032  1.0895
66889SOL     OW12645   2.334   9.071  12.739  0.1852  0.3698 -0.0941
66889SOL    HW112646   2.368   9.058  12.827  0.6500  0.9446 -0.1828
66889SOL    HW212647   2.250   9.025  12.739  1.2722 -1.7018 -0.0997
66890SOL     OW12648   7.580  10.117   4.763  0.0081 -0.0700  0.4150
66890SOL    HW112649   7.521  10.067   4.820 -1.7847  0.2950 -1.0338
66890SOL    HW212650   7.659  10.063   4.758 -0.7300 -1.2962  1.2687
66891SOL     OW12651   8.507   5.328  13.392 -0.1229 -0.5082 -0.2413
66891SOL    HW112652   8.536   5.414  13.362  0.5119 -0.4369  0.5489
66891SOL    HW212653   8.516   5.332  13.487  1.4779 -1.9809 -0.2875
66892SOL     OW12654  11.524   5.662   5.269 -0.0521 -0.0337  0.1225
66892SOL    HW112655  11.447   5.701   5.311 -0.2676 -1.7383  1.4141
66892SOL    HW212656  11.490   5.622   5.189  0.0755  1.8488 -0.9143
66893SOL     OW12657   6.165   7.956   5.725  0.5947 -0.0916  0.1824
66893SOL    HW112658   6.230   7.973   5.793  2.1552 -0.5233 -1.1397
66893SOL    HW212659   6.143   7.863   5.735  0.8930 -0.1772  0.0444
66894SOL     OW12660   4.883   2.320  11.706  0.1264 -0.2847  0.1713
66894SOL    HW112661   4.794   2.312  11.741  0.6732  0.4634  1.8575
66894SOL    HW212662   4.928   2.376  11.769  1.1646  1.3216 -1.8713
66895SOL     OW12663  10.507   7.707   1.348  0.1087  0.6406  0.2351
66895SOL    HW112664  10.436   7.685   1.288 -0.0120 -1.5630  1.1124
66895SOL    HW212665  10.476   7.785   1.394 -1.8476 -0.3594  0.7150
66896SOL     OW12666   9.391   2.479  11.665  0.3221  0.0363  0.5334
66896SOL    HW112667   9.326   2.416  11.635  1.4244 -1.1830  0.6322
66896SOL    HW212668   9.395   2.466  11.760  1.2258 -0.4416  0.4453
66897SOL     OW12669   6.395   5.732   2.023  0.0465 -0.2264  0.1819
66897SOL    HW112670   6.489   5.744   2.041 -0.6615  1.7029  3.4412
66897SOL    HW212671   6.391   5.717   1.928  3.5166  1.1133 -0.3506
66898SOL     OW12672   1.746  12.863   6.658  0.0840  0.0021  0.3048
66898SOL    HW112673   1.830  12.885   6.697  0.2393 -0.0892  0.0247
66898SOL    HW212674   1.681  12.901   6.717  0.3501  2.3559 -0.8143
66899SOL     OW12675   4.362  12.512   7.141  0.0644 -0.1561 -0.1076
66899SOL    HW112676   4.310  12.589   7.117 -1.5157 -1.4588 -1.1597
66899SOL    HW212677   4.354  12.507   7.236  0.6989  1.2917  0.0438
66900SOL     OW12678  11.530  13.980  10.769 -0.2756  0.1998  0.3180
66900SOL    HW112679  11.589  13.924  10.718 -0.4147  0.9041 -0.6283
66900SOL    HW212680  11.554  14.069  10.744 -3.9395  0.5672 -2.7719
66901SOL     OW12681  10.263   4.511   4.268  0.0961  0.4195 -0.0718
66901SOL    HW112682  10.322   4.549   4.203 -1.4583  2.0430 -0.6143
66901SOL    HW212683  10.261   4.575   4.339 -1.2054  0.5594 -0.2064
66902SOL     OW12684   3.377  11.699  11.962  0.1672 -0.3141 -0.0206
66902SOL    HW112685   3.340  11.699  12.050 -1.3414  1.0579 -0.6051
66902SOL    HW212686   3.472  11.697  11.976 -0.0315  0.2942  1.6337
66903SOL     OW12687   9.921  13.388   3.953 -0.2345  0.7077  0.6230
66903SOL    HW112688  10.014  13.373   3.933  0.0617  0.9076  1.7746
66903SOL    HW212689   9.897  13.462   3.897  0.0428  0.0716 -0.3611
66904SOL     OW12690   4.977   3.944   3.685  0.4557 -0.0868  0.6048
66904SOL    HW112691   5.070   3.940   3.706  0.4157  1.9962  1.3541
66904SOL    HW212692   4.954   4.036   3.693 -1.6384 -0.5207  0.2077
66905SOL     OW12693   3.751   4.229   6.962  0.1865 -0.0862  0.5933
66905SOL    HW112694   3.727   4.236   7.055  1.6698 -1.5067  1.1369
66905SOL    HW212695   3.694   4.160   6.928 -0.2745  0.3526  0.4584
66906SOL     OW12696   9.650   9.682   2.721 -0.0669 -0.5815  0.2069
66906SOL    HW112697   9.688   9.741   2.655 -0.7470 -0.1838  0.1613
66906SOL    HW212698   9.664   9.727   2.804  0.7476 -1.0612  0.3339
66907SOL     OW12699   1.180  13.822   0.336 -0.0806 -0.3386 -0.0505
66907SOL    HW112700   1.173  13.917   0.338  0.8700 -0.2434 -0.5118
66907SOL    HW212701   1.269  13.804   0.367 -0.7723 -1.1727  1.5735
66908SOL     OW12702   9.441  11.603   4.258  0.0548  0.0006 -0.3901
66908SOL    HW112703   9.404  11.690   4.272 -2.6175 -1.0927 -0.0797
66908SOL    HW212704   9.365  11.545   4.255  1.7356 -2.3087 -0.8483
66909SOL     OW12705  13.284   8.412   5.314 -1.0399  0.4079 -0.4399
66909SOL    HW112706  13.322   8.487   5.359 -0.4067  0.3862 -0.9216
66909SOL    HW212707  13.244   8.359   5.383 -1.1046  0.9591 -0.0507
66910SOL     OW12708  11.197   8.438  13.412  0.3435 -0.4363  0.7145
66910SOL    HW112709  11.249   8.443  13.332  0.7186  1.3600  1.0226
66910SOL    HW212710  11.260   8.411  13.480  0.5465  0.2121  0.7951
66911SOL     OW12711   4.858   8.709   1.921  0.3333  0.1976  0.2660
66911SOL    HW112712   4.797   8.699   1.995 -2.1276  0.7346 -1.5554
66911SOL    HW212713   4.836   8.794   1.883  0.9088 -0.4294 -1.5995
66912SOL     OW12714   9.801   6.254  12.214  0.0839  0.2971 -0.0154
66912SOL    HW112715   9.736   6.197  12.255  0.2028 -0.1544 -0.4435
66912SOL    HW212716   9.761   6.341  12.215 -0.6090 -0.0028 -0.4208
66913SOL     OW12717  13.109   2.716   1.055 -0.4251  0.1435 -0.1248
66913SOL    HW112718  13.151   2.684   0.976  0.1257 -0.7175  0.5016
66913SOL    HW212719  13.043   2.650   1.076 -0.4242  0.2571  0.2473
66914SOL     OW12720  12.185   9.607   4.509  0.3335 -0.2523 -0.1527
66914SOL    HW112721  12.236   9.598   4.429 -0.0534 -1.1919 -0.3152
66914SOL    HW212722  12.249   9.598   4.580  0.5596 -0.2121 -0.3502
66915SOL     OW12723   6.852  13.500   0.777 -0.6093 -0.3824  0.5424
66915SOL    HW112724   6.871  13.499   0.871 -2.3731  3.1478  1.1069
66915SOL    HW212725   6.938  13.510   0.735  0.2407 -2.3832  1.6680
66916SOL     OW12726  12.350  13.471   2.810 -0.5437 -0.0279 -0.0543
66916SOL    HW112727  12.392  13.552   2.783 -1.4882  0.2390 -0.7589
66916SOL    HW212728  12.274  13.499   2.862 -0.6681 -0.4682  0.0100
66917SOL     OW12729   6.820   3.863   7.254 -0.1206 -0.3958 -0.8098
66917SOL    HW112730   6.770   3.936   7.291 -2.1502 -2.2418  0.3576
66917SOL    HW212731   6.908   3.874   7.289 -0.3854  1.4501 -0.6461
66918SOL     OW12732   0.048   8.881   5.604 -0.4258  0.5579  0.2951
66918SOL    HW112733   0.139   8.879   5.574 -0.2156 -1.1065  0.9696
66918SOL    HW212734   0.017   8.792   5.593 -0.7587  0.1236  3.6573
66919SOL     OW12735  14.041   3.804   5.569  0.3065 -0.2625  0.4420
66919SOL    HW112736  14.007   3.892   5.584  1.0603  0.3051 -1.0689
66919SOL    HW212737  14.132   3.808   5.598  0.9773  0.0895 -1.5706
66920SOL     OW12738   0.520   4.423   7.718  0.0917 -0.1474 -0.1175
66920SOL    HW112739   0.599   4.411   7.666  0.0044  1.0831 -0.5614
66920SOL    HW212740   0.448   4.421   7.655 -0.3512 -2.0512  0.3645
66921SOL     OW12741  13.157   1.267   8.407 -0.2563  0.6528  0.4964
66921SOL    HW112742  13.200   1.224   8.333 -0.2497  1.6515 -0.1135
66921SOL    HW212743  13.219   1.259   8.479 -0.9460 -1.7713  0.8964
66922SOL     OW12744   5.508   4.165   2.357 -0.1287  0.0932  0.5459
66922SOL    HW112745   5.430   4.127   2.398 -0.2170 -0.3305 -0.0081
66922SOL    HW212746   5.499   4.145   2.264  0.8824 -0.3828  0.5334
66923SOL     OW12747   1.851   0.210   5.846  0.0007  0.1229 -0.4469
66923SOL    HW112748   1.879   0.258   5.768 -0.5123 -0.6591 -1.1428
66923SOL    HW212749   1.806   0.274   5.900  1.0013  0.8424 -0.4413
66924SOL     OW12750   9.937  13.692   0.961  0.5967  0.1888 -0.0985
66924SOL    HW112751   9.848  13.699   0.994  0.1730 -0.2818 -1.0985
66924SOL    HW212752   9.938  13.747   0.883  1.0293 -0.2103 -0.3802
66925SOL     OW12753  12.171   8.814   1.559 -0.2491 -0.3276  0.2215
66925SOL    HW112754  12.113   8.821   1.483  0.4443 -0.8901 -0.3887
66925SOL    HW212755  12.202   8.903   1.574 -1.0047 -0.0811  0.3474
66926SOL     OW12756   6.006  11.640   0.702  0.5123 -0.5397  0.3380
66926SOL    HW112757   5.938  11.674   0.644 -0.1190 -1.5590  0.4557
66926SOL    HW212758   6.005  11.700   0.777  0.5309  0.1067 -0.1694
66927SOL     OW12759   8.791   2.638  10.134 -0.0100 -0.0649  0.0376
66927SOL    HW112760   8.708   2.595  10.116  0.3180 -1.5203  1.7066
66927SOL    HW212761   8.846   2.569  10.171  1.2332  1.3393  0.9345
66928SOL     OW12762  13.020   0.119   5.323  0.7747  0.1726 -0.0623
66928SOL    HW112763  12.950   0.184   5.322  0.0999 -0.5582 -1.2387
66928SOL    HW212764  13.057   0.126   5.411 -2.0203 -0.7704  1.3058
66929SOL     OW12765   3.824  12.890   2.301  0.5208  0.3917  0.0350
66929SOL    HW112766   3.822  12.910   2.394 -1.1212  1.0986 -0.1188
66929SOL    HW212767   3.794  12.971   2.258  0.2310 -0.2573 -1.0308
66930SOL     OW12768   9.644   5.303   6.080 -0.1117  0.1172  0.0650
66930SOL    HW112769   9.696   5.381   6.100 -0.2337  0.1686  0.1828
66930SOL    HW212770   9.635   5.304   5.984 -0.1812  0.2916  0.0728
66931SOL     OW12771   8.798   4.447   4.134 -0.1861 -0.0076  0.0754
66931SOL    HW112772   8.712   4.440   4.175 -0.0457  0.2198  0.4156
66931SOL    HW212773   8.860   4.441   4.207  0.1755 -2.2137 -0.3706
66932SOL     OW12774  13.499   2.064  10.520  0.0992 -0.0875  0.0360
66932SOL    HW112775  13.455   1.987  10.557  0.2400  0.5648  1.6259
66932SOL    HW212776  13.550   2.099  10.593  0.9088  0.8844 -0.9777
66933SOL     OW12777   9.410   5.343  10.026  0.2476  0.2610  0.4862
66933SOL    HW112778   9.363   5.392  10.093  0.3662 -0.8647  1.4162
66933SOL    HW212779   9.498   5.333  10.061  0.3095 -0.3318  0.1756
66934SOL     OW12780   4.388   9.050  10.529 -0.2230 -0.5435  0.2018
66934SOL    HW112781   4.332   9.063  10.606  0.4404  0.6466  0.5011
66934SOL    HW212782   4.381   8.956  10.511 -0.7824 -0.7615  1.4090
66935SOL     OW12783  10.799   0.542   0.122 -0.0461 -0.0674  0.3324
66935SOL    HW112784  10.736   0.473   0.102  1.0622 -1.4555  1.3455
66935SOL    HW212785  10.784   0.562   0.215  2.1314 -1.7721  1.1491
66936SOL     OW12786   4.453   7.613   2.431 -0.0798 -0.1621  0.6468
66936SOL    HW112787   4.521   7.671   2.397  0.7700  0.1151  2.7089
66936SOL    HW212788   4.462   7.533   2.378  0.9358  0.3759 -0.0211
66937SOL     OW12789   8.240   7.814   1.169 -0.4023 -0.0401  0.2394
66937SOL    HW112790   8.320   7.764   1.183 -1.8665 -2.1886  1.6190
66937SOL    HW212791   8.222   7.806   1.075 -0.0051 -1.2250  0.2481
66938SOL     OW12792   0.612  12.871   6.000  0.6220 -0.0860  0.2121
66938SOL    HW112793   0.539  12.926   5.972  1.9210  1.6537  0.1169
66938SOL    HW212794   0.690  12.915   5.967  1.8028 -1.3008  1.2594
66939SOL     OW12795  11.215   1.475   8.427  0.0918  0.1763 -0.0756
66939SOL    HW112796  11.150   1.405   8.419  1.8048 -1.2204 -4.0362
66939SOL    HW212797  11.167   1.554   8.405 -1.3233  0.0639  2.1963
66940SOL     OW12798   5.968   9.484  13.348  0.1361  0.3396  0.2866
66940SOL    HW112799   5.915   9.564  13.345 -0.3816 -0.0195 -0.4065
66940SOL    HW212800   6.030   9.499  13.419 -0.0238  1.3180  0.2314
66941SOL     OW12801   6.608   8.883   8.463  0.5973 -0.1235  0.4661
66941SOL    HW112802   6.536   8.838   8.418  1.3045  0.9637 -1.8939
66941SOL    HW212803   6.671   8.814   8.482 -0.2818 -0.8074  0.9804
66942SOL     OW12804   8.433   6.854   7.705  0.2310 -0.0522 -0.3401
66942SOL    HW112805   8.424   6.794   7.779  1.8818  0.6814  0.5211
66942SOL    HW212806   8.468   6.800   7.634 -1.4770 -0.7889 -0.6675
66943SOL     OW12807  10.076   3.527  12.887  0.3496  1.1989  0.1137
66943SOL    HW112808  10.043   3.516  12.798 -1.2565  0.0412  0.8026
66943SOL    HW212809  10.141   3.457  12.897  0.5827  1.3734 -0.1529
66944SOL     OW12810   3.574   9.697  11.022  0.3625  0.3044 -0.0757
66944SOL    HW112811   3.572   9.689  10.926 -0.3282  0.5266 -0.0825
66944SOL    HW212812   3.605   9.786  11.037 -0.0715  0.4616 -0.1024
66945SOL     OW12813  12.748   1.235   5.771 -0.3408 -0.4555 -0.2400
66945SOL    HW112814  12.823   1.220   5.714 -0.3853  0.0770 -0.4450
66945SOL    HW212815  12.702   1.150   5.772  0.6992 -1.0269  0.5534
66946SOL     OW12816  13.865   6.750  10.713  0.4727 -0.8135  0.3597
66946SOL    HW112817  13.877   6.844  10.721  1.8357 -0.9222 -0.3107
66946SOL    HW212818  13.807   6.739  10.638 -0.0297 -0.5026  0.6944
66947SOL     OW12819   8.905   6.827  10.180  0.7311  0.4723 -0.0028
66947SOL    HW112820   8.823   6.790  10.146  1.2174  0.1915 -0.9058
66947SOL    HW212821   8.940   6.757  10.236 -0.0519  0.9191  1.0783
66948SOL     OW12822   4.838  12.065   5.905 -0.0314 -0.2690 -0.5858
66948SOL    HW112823   4.773  12.112   5.957 -0.4037 -0.4852 -0.8557
66948SOL    HW212824   4.794  11.985   5.878 -0.1140  0.2025 -1.8940
66949SOL     OW12825   9.933   1.709   1.990 -0.3684  0.1422  0.9055
66949SOL    HW112826  10.016   1.709   1.943 -0.7374  1.0339  0.2050
66949SOL    HW212827   9.881   1.640   1.948 -0.3900  0.3642  0.5626
66950SOL     OW12828  12.169  11.429   0.896  0.2255  0.1995  0.5770
66950SOL    HW112829  12.124  11.511   0.879  1.8572  1.0233  0.0567
66950SOL    HW212830  12.162  11.416   0.991 -0.7711  0.4689  0.5532
66951SOL     OW12831   0.528   1.021  10.420 -0.4002  0.8676  0.1575
66951SOL    HW112832   0.548   0.929  10.432 -0.0788  0.6942 -1.4520
66951SOL    HW212833   0.441   1.033  10.458  0.6710  0.5650  2.9195
66952SOL     OW12834  12.808  10.133   1.299  0.0874 -0.1246 -0.8292
66952SOL    HW112835  12.734  10.193   1.291  0.8717  0.9434 -0.3397
66952SOL    HW212836  12.777  10.051   1.260 -0.8726  0.7158 -1.8985
66953SOL     OW12837  12.139   2.700   9.836 -0.3264 -0.1428  0.6185
66953SOL    HW112838  12.081   2.625   9.826 -0.2853 -0.3062  1.5080
66953SOL    HW212839  12.222   2.663   9.865 -0.9096  0.3513  3.2115
66954SOL     OW12840   3.169   0.844  10.574  0.0485  0.8439  0.0770
66954SOL    HW112841   3.260   0.833  10.601 -0.3454  1.0735  1.6005
66954SOL    HW212842   3.126   0.881  10.651 -1.4388  0.2772 -0.4533
66955SOL     OW12843   9.215   5.067   4.191 -0.3397 -0.5993  0.3283
66955SOL    HW112844   9.304   5.088   4.163 -0.2882 -1.5973 -0.3167
66955SOL    HW212845   9.165   5.148   4.177  0.0644 -0.5626 -1.0885
66956SOL     OW12846   2.932   2.519   0.563 -0.0382  0.0888 -0.0930
66956SOL    HW112847   2.847   2.550   0.532  1.2763  2.8227 -1.2876
66956SOL    HW212848   2.963   2.459   0.496  0.1583  1.3202 -1.1490
66957SOL     OW12849   4.073   1.639   6.315  0.3243 -0.5634 -0.5529
66957SOL    HW112850   4.117   1.722   6.334  0.1974 -0.5678 -0.2342
66957SOL    HW212851   4.094   1.621   6.224  2.0495 -1.2074 -0.0665
66958SOL     OW12852   9.608  12.713  10.149  0.1742  0.3784 -0.8829
66958SOL    HW112853   9.551  12.642  10.179  0.9112  0.0675 -0.1859
66958SOL    HW212854   9.554  12.792  10.156  0.0061  0.1798  0.3443
66959SOL     OW12855   3.333   2.917   2.576 -0.3834  0.4804 -0.4606
66959SOL    HW112856   3.255   2.965   2.602 -1.2463 -2.1751  2.4640
66959SOL    HW212857   3.301   2.831   2.551  1.5692 -1.5767  3.2824
66960SOL     OW12858   4.438   2.713   0.321  0.0560  1.4160  0.2263
66960SOL    HW112859   4.353   2.752   0.297 -0.9122 -0.6686  0.0406
66960SOL    HW212860   4.498   2.745   0.254 -1.5125 -0.2396 -2.1717
66961SOL     OW12861   7.486   7.703  12.579 -0.0667 -0.1870 -0.6102
66961SOL    HW112862   7.409   7.664  12.539 -1.4766  0.3696  1.4266
66961SOL    HW212863   7.479   7.796  12.560 -1.0052  0.1559  1.1982
66962SOL     OW12864   3.866   4.121   8.831 -0.1754  0.3694 -0.4434
66962SOL    HW112865   3.857   4.146   8.739 -0.7388 -1.8188 -1.0597
66962SOL    HW212866   3.855   4.025   8.830  1.0417  0.1531  1.7470
66963SOL     OW12867  13.844   3.856   7.772  0.2032  0.1812  0.3870
66963SOL    HW112868  13.821   3.913   7.698 -1.2879 -0.6047  0.2125
66963SOL    HW212869  13.794   3.776   7.757  0.6670 -0.3808  1.7239
66964SOL     OW12870   7.143   9.587  13.663  0.0323 -0.2392 -0.2542
66964SOL    HW112871   7.172   9.507  13.708 -0.0221 -0.3208 -0.3652
66964SOL    HW212872   7.220   9.616  13.614  0.7944  1.0293  1.5482
66965SOL     OW12873   0.531   0.769  13.945  0.3114  0.1079  0.0332
66965SOL    HW112874   0.500   0.820  13.871  0.3834  1.4140  0.8726
66965SOL    HW212875   0.611   0.813  13.973 -0.2737  0.2906  1.5330
66966SOL     OW12876   9.691  12.195   3.048 -0.2749 -0.0797 -0.3208
66966SOL    HW112877   9.779  12.221   3.018 -0.8522  0.9799 -1.1699
66966SOL    HW212878   9.663  12.268   3.104 -1.0794  0.1662 -1.0269
66967SOL     OW12879  12.882   1.777  12.599  0.6875 -0.1207 -0.3211
66967SOL    HW112880  12.850   1.688  12.612 -2.4828  0.8845 -0.2452
66967SOL    HW212881  12.886   1.788  12.504 -1.6166  0.3885 -0.4260
66968SOL     OW12882   1.303   8.052   2.143 -0.3388 -0.2303 -0.7140
66968SOL    HW112883   1.217   8.095   2.154 -0.8877 -1.3909 -0.3037
66968SOL    HW212884   1.294   8.002   2.062 -0.2090 -0.7114 -0.4331
66969SOL     OW12885   5.951   4.514   8.190 -0.0026  0.2265  0.3593
66969SOL    HW112886   6.043   4.504   8.214  0.1636  1.1634  0.1794
66969SOL    HW212887   5.909   4.550   8.269 -0.3004 -0.5854  0.5737
66970SOL     OW12888   0.881   5.322  12.832 -0.2946 -0.5110 -0.5425
66970SOL    HW112889   0.973   5.333  12.807 -0.4173  1.1515 -0.3646
66970SOL    HW212890   0.870   5.379  12.908 -0.9523 -2.3648  0.8065
66971SOL     OW12891   8.405  13.602   2.968 -1.1427 -0.6290 -0.3982
66971SOL    HW112892   8.380  13.512   2.988 -3.8222  0.1593  0.0863
66971SOL    HW212893   8.399  13.648   3.051  3.4950 -0.4986  0.1739
66972SOL     OW12894   2.926  11.760   1.821  0.3875 -0.0472  0.2516
66972SOL    HW112895   3.006  11.719   1.854  1.4587  1.8483  0.1826
66972SOL    HW212896   2.900  11.820   1.891  0.6387  1.3925 -0.8580
66973SOL     OW12897  11.289  13.752   5.651  0.3056  0.1376  0.4208
66973SOL    HW112898  11.368  13.709   5.617  0.9744  0.3636  1.6449
66973SOL    HW212899  11.229  13.680   5.669  0.0507 -0.0114 -0.8879
66974SOL     OW12900  12.364   7.148  10.410  0.1349 -0.0616 -0.0132
66974SOL    HW112901  12.454   7.115  10.412  0.0826 -0.2704 -0.7783
66974SOL    HW212902  12.358   7.205  10.486  1.1370  0.5205 -0.3493
66975SOL     OW12903  10.664  11.275  13.203 -0.1404  0.7171 -0.0683
66975SOL    HW112904  10.734  11.322  13.158 -0.7894  1.0359 -0.7631
66975SOL    HW212905  10.590  11.276  13.142  0.3644 -2.8435 -0.9320
66976SOL     OW12906   9.068   0.897   3.750 -0.0342  0.6474 -0.4016
66976SOL    HW112907   9.085   0.851   3.832  2.1609 -0.5254 -1.4501
66976SOL    HW212908   9.102   0.985   3.765 -1.0539  0.9320  0.4149
66977SOL     OW12909   9.969   0.547  13.982  0.1373 -0.7608 -0.2537
66977SOL    HW112910   9.954   0.478  14.046 -0.1202 -1.0999 -0.6732
66977SOL    HW212911   9.890   0.547  13.928  0.8191 -1.2361 -1.2736
66978SOL     OW12912  12.455   4.018   3.377  0.3415  0.2329  0.4311
66978SOL    HW112913  12.390   3.990   3.313  1.6468 -0.4414 -0.6507
66978SOL    HW212914  12.519   4.069   3.326  1.9832 -1.2178  0.9508
66979SOL     OW12915   2.962   1.430  10.984  0.0064 -0.0653 -0.3662
66979SOL    HW112916   2.895   1.494  11.009  1.9106  2.9972 -2.4247
66979SOL    HW212917   3.044   1.473  11.005  1.4405 -2.7762 -0.0043
66980SOL     OW12918   4.579   1.842   0.550 -0.4274  0.0350  0.2402
66980SOL    HW112919   4.528   1.898   0.608 -0.6952 -2.6432  2.8280
66980SOL    HW212920   4.668   1.846   0.584 -0.0670  0.2899 -0.7023
66981SOL     OW12921   1.754   4.185   5.735  0.0428 -0.3578 -0.4844
66981SOL    HW112922   1.844   4.214   5.752  0.0094 -0.2560 -0.4810
66981SOL    HW212923   1.761   4.129   5.657  0.5536 -2.7000  1.1346
66982SOL     OW12924   2.946   3.639  11.344  0.3461 -0.0249  0.4751
66982SOL    HW112925   2.934   3.726  11.306 -0.2763  0.0756  0.8949
66982SOL    HW212926   2.937   3.579  11.270 -3.9682 -0.0734  0.8125
66983SOL     OW12927  12.305   0.505   3.171 -0.2769 -0.4583 -0.5435
66983SOL    HW112928  12.256   0.588   3.169 -0.8416 -0.7799 -0.2725
66983SOL    HW212929  12.277   0.458   3.093 -0.5328 -0.7138 -0.3020
66984SOL     OW12930   8.217   3.910  10.502  0.4340  0.1175  0.4406
66984SOL    HW112931   8.260   3.972  10.560 -0.0344  1.9519 -1.0585
66984SOL    HW212932   8.285   3.885  10.439  0.3679 -0.1572  0.4770
66985SOL     OW12933  13.384  12.368   9.091  0.7189  0.1069 -0.3845
66985SOL    HW112934  13.356  12.344   9.002 -1.2094 -1.3391  0.5321
66985SOL    HW212935  13.478  12.351   9.092  0.9310  0.8901 -2.3505
66986SOL     OW12936  11.186  11.350  10.693 -0.0442 -0.0543 -0.5895
66986SOL    HW112937  11.091  11.360  10.682 -0.0146 -0.6652 -1.5410
66986SOL    HW212938  11.206  11.396  10.774 -1.3342 -0.8987  0.2458
66987SOL     OW12939  12.085   3.806  11.947  0.7574  0.5028  0.3806
66987SOL    HW112940  12.055   3.895  11.926  0.1797  0.2567  0.1147
66987SOL    HW212941  12.178   3.815  11.966  0.6545  1.1982  0.5655
66988SOL     OW12942   9.258   9.463   5.978  0.3491 -0.3084  0.1166
66988SOL    HW112943   9.249   9.558   5.986  0.5714 -0.2540 -0.2173
66988SOL    HW212944   9.213   9.428   6.054 -1.0132  0.0082 -0.5242
66989SOL     OW12945  12.521   3.206   8.655 -0.0904 -0.3498  0.3921
66989SOL    HW112946  12.475   3.218   8.572  0.7974 -0.8172 -0.1881
66989SOL    HW212947  12.573   3.127   8.642  2.1074  0.9959  0.4316
66990SOL     OW12948   7.530   3.297  12.639  0.1185 -0.3522 -0.3167
66990SOL    HW112949   7.447   3.320  12.596  0.1247 -2.2297 -1.4370
66990SOL    HW212950   7.507   3.286  12.731  0.0290  3.3824  0.2574
66991SOL     OW12951   2.117   7.681   3.886 -0.3932 -0.2832  0.3745
66991SOL    HW112952   2.127   7.777   3.883 -1.5347 -0.1790 -1.8599
66991SOL    HW212953   2.186   7.648   3.828  0.9027 -0.9718  2.2049
66992SOL     OW12954   1.816   4.552   3.037  0.9718 -0.0403  0.1161
66992SOL    HW112955   1.812   4.457   3.049  2.4680 -0.3674 -1.5863
66992SOL    HW212956   1.888   4.580   3.092  0.1658  0.2261  1.0661
66993SOL     OW12957   6.351   0.326   1.156  0.2818 -0.8405 -0.1406
66993SOL    HW112958   6.405   0.310   1.078  0.9314  0.7960 -0.0686
66993SOL    HW212959   6.393   0.273   1.224  1.1092 -0.5044 -0.3698
66994SOL     OW12960  10.130   3.726   0.850  0.0647  0.1377 -0.0400
66994SOL    HW112961  10.043   3.742   0.814 -0.6332  1.4627  2.0050
66994SOL    HW212962  10.173   3.811   0.847  0.1179  0.2182  1.7223
66995SOL     OW12963   3.280   5.278   3.058  0.3837  0.1219  0.9091
66995SOL    HW112964   3.292   5.185   3.039  0.5526  0.2289  0.4837
66995SOL    HW212965   3.189   5.285   3.089  0.4788 -0.2335  1.2839
66996SOL     OW12966   9.438   0.101  11.870  0.4285 -0.0445 -0.0851
66996SOL    HW112967   9.514   0.103  11.928  1.8406 -0.0087 -1.8234
66996SOL    HW212968   9.474   0.121  11.783 -1.8982  2.1176 -0.6886
66997SOL     OW12969  10.389   4.933   0.578  0.1159  0.1040 -0.3647
66997SOL    HW112970  10.429   5.010   0.537 -0.7354  0.5878 -0.3052
66997SOL    HW212971  10.297   4.938   0.553 -0.2644 -0.0254  0.9590
66998SOL     OW12972   0.100   1.424   3.818 -0.6631 -0.0998 -0.4898
66998SOL    HW112973   0.140   1.439   3.904  0.2123 -0.9065 -0.7356
66998SOL    HW212974   0.017   1.471   3.822  0.2104  1.4823  0.1071
66999SOL     OW12975   5.752   3.725  14.016  0.2175 -0.1310  0.1476
66999SOL    HW112976   5.798   3.783  14.076 -1.4929 -0.4157  1.8434
66999SOL    HW212977   5.792   3.639  14.030 -0.8424 -0.4040  1.7088
67000SOL     OW12978   5.249   4.404   2.717  0.1747 -0.5032  0.1390
67000SOL    HW112979   5.264   4.487   2.761  0.6506  0.5083 -1.7937
67000SOL    HW212980   5.326   4.351   2.740 -0.0693 -0.3847  1.2820
67001SOL     OW12981  10.901  11.169   2.647 -0.2803  0.6723 -0.7032
67001SOL    HW112982  10.931  11.120   2.723 -0.5225 -0.9101 -1.5704
67001SOL    HW212983  10.950  11.131   2.574 -1.4265  0.8286 -1.5807
67002SOL     OW12984   0.958   6.250  13.837  0.0596 -0.4808 -0.2344
67002SOL    HW112985   0.865   6.250  13.857 -0.0795 -2.2611 -0.7034
67002SOL    HW212986   0.999   6.211  13.914  0.2114 -1.2797 -0.7020
67003SOL     OW12987  13.792   9.253   3.741 -0.4684 -0.2737  0.3523
67003SOL    HW112988  13.850   9.238   3.815 -1.1172 -2.0530  0.5328
67003SOL    HW212989  13.849   9.251   3.664 -0.3219 -2.6960  0.4673
67004SOL     OW12990  11.957   2.420  11.835 -1.0122 -0.6306 -0.0700
67004SOL    HW112991  11.994   2.422  11.746 -0.3108 -1.6362  0.1817
67004SOL    HW212992  12.024   2.461  11.889 -0.3584 -2.2144  0.3496
67005SOL     OW12993   1.003   8.179  13.552  0.2146 -0.5421 -1.0597
67005SOL    HW112994   1.025   8.257  13.500  0.1296 -1.2748 -2.2323
67005SOL    HW212995   0.916   8.199  13.588 -0.2685 -0.4831 -2.1897
67006SOL     OW12996  10.585  13.985  12.466 -0.0403  0.4691 -0.1727
67006SOL    HW112997  10.523  13.966  12.536 -0.3298  0.4475 -0.4343
67006SOL    HW212998  10.537  14.043  12.406 -0.3622 -0.8257 -1.2087
67007SOL     OW12999  13.945   2.010   2.764 -0.9276  0.1347  0.1711
67007SOL    HW113000  13.860   1.988   2.801 -0.1203 -1.5400  1.1283
67007SOL    HW213001  13.938   2.102   2.740 -2.7925  0.1853  0.7960
67008SOL     OW13002   3.394   1.709   4.685  0.3077  0.4342 -0.1144
67008SOL    HW113003   3.361   1.694   4.596 -1.8170 -1.1907  0.8810
67008SOL    HW213004   3.489   1.696   4.677  0.1950  0.4667 -2.1399
67009SOL     OW13005   1.920  11.606   5.020  0.2907 -0.2615  0.0448
67009SOL    HW113006   1.953  11.528   5.064  2.4244 -0.1216 -1.1824
67009SOL    HW213007   1.833  11.581   4.988  0.5453 -1.8149  0.4935
67010SOL     OW13008   0.587  12.673  13.000 -0.9271  0.0566  0.0350
67010SOL    HW113009   0.637  12.654  12.921 -1.0888  1.0950 -0.3257
67010SOL    HW213010   0.511  12.722  12.970 -0.3907  1.5136  0.9533
67011SOL     OW13011   2.538   2.310   0.334  1.0282  0.2545  0.1179
67011SOL    HW113012   2.480   2.245   0.373  0.2134  1.3900  0.8304
67011SOL    HW213013   2.603   2.327   0.402  0.5040  1.0997  0.4181
67012SOL     OW13014  12.915   0.449  12.608  0.0186  0.0605 -0.1222
67012SOL    HW113015  12.828   0.419  12.581 -0.3430 -0.4231  1.4620
67012SOL    HW213016  12.897   0.520  12.669  0.7605  0.2000 -0.0647
67013SOL     OW13017   7.229   4.769   9.529  0.1063 -0.3482  0.2502
67013SOL    HW113018   7.162   4.828   9.496 -0.1431 -0.7612 -0.0013
67013SOL    HW213019   7.189   4.682   9.522 -0.4564 -0.3626  2.7973
67014SOL     OW13020  11.452   6.877  12.265 -0.5215 -0.4322  0.8471
67014SOL    HW113021  11.392   6.829  12.323 -1.6287  0.6990  0.6862
67014SOL    HW213022  11.450   6.967  12.298 -0.4704  0.0466 -0.3956
67015SOL     OW13023   1.655   0.471  13.855 -0.0807 -0.3008  0.0578
67015SOL    HW113024   1.685   0.560  13.835 -2.3389  0.2590 -1.2486
67015SOL    HW213025   1.698   0.415  13.791 -0.1487  0.1545 -0.3899
67016SOL     OW13026   5.296   8.031   1.803  0.5385  0.5437  0.5529
67016SOL    HW113027   5.232   8.083   1.754  0.9123 -1.0675 -1.8028
67016SOL    HW213028   5.246   7.956   1.836  0.7648  0.4205  0.6183
67017SOL     OW13029   3.736  11.217   9.797 -0.4430 -0.1975  0.3381
67017SOL    HW113030   3.760  11.278   9.866 -0.6414 -0.2174  0.4270
67017SOL    HW213031   3.686  11.148   9.842  0.5920 -0.9406  0.3981
67018SOL     OW13032   3.318   9.078   5.010  0.2259  0.7279  0.2553
67018SOL    HW113033   3.365   9.160   4.996  0.0760  1.1710  2.0615
67018SOL    HW213034   3.336   9.055   5.102 -1.8215  0.1080  0.5635
67019SOL     OW13035   5.885   0.615   4.174 -0.3516  0.3549 -0.0522
67019SOL    HW113036   5.838   0.663   4.105 -0.6759  1.5668  0.9625
67019SOL    HW213037   5.848   0.527   4.172 -0.8798  0.5826 -0.9374
67020SOL     OW13038   9.728   2.226   0.621  0.5621 -0.0430 -0.6372
67020SOL    HW113039   9.698   2.249   0.533 -1.1382 -1.0589 -0.3704
67020SOL    HW213040   9.703   2.301   0.675 -1.2849 -0.7151 -0.4911
67021SOL     OW13041  10.314   2.842  13.743 -0.0611 -0.3779  0.0772
67021SOL    HW113042  10.393   2.808  13.784  2.1061  1.3019 -2.4159
67021SOL    HW213043  10.325   2.937  13.742 -2.6712  0.0248  0.5798
67022SOL     OW13044  12.637   4.176   5.347  0.4818  0.8362  0.0299
67022SOL    HW113045  12.605   4.195   5.435  0.9916  0.1288  0.3755
67022SOL    HW213046  12.726   4.142   5.360  1.1832  2.2265 -0.8606
67023SOL     OW13047   3.816  11.614   2.168 -0.3101 -0.8601 -0.7442
67023SOL    HW113048   3.737  11.660   2.198 -0.6707 -0.0900 -2.7377
67023SOL    HW213049   3.828  11.543   2.232 -2.5069 -0.8916 -0.2795
67024SOL     OW13050   9.291  13.414   4.074 -0.0334 -0.5297 -0.9374
67024SOL    HW113051   9.366  13.444   4.125 -2.3253  0.8693  1.9026
67024SOL    HW213052   9.277  13.483   4.009  0.6136 -0.3743 -0.9150
67025SOL     OW13053  12.724   6.207  13.601 -0.0580 -0.2124  0.2470
67025SOL    HW113054  12.670   6.198  13.679  1.6086  0.7938  1.6101
67025SOL    HW213055  12.722   6.301  13.581  0.2542 -0.3326 -0.3757
67026SOL     OW13056   4.705   9.445   1.128  0.2682 -0.1417 -0.3658
67026SOL    HW113057   4.789   9.492   1.134  0.0115  0.1045  2.0530
67026SOL    HW213058   4.639   9.515   1.124  0.0451 -0.3012  0.4073
67027SOL     OW13059   0.136   2.734   0.995 -0.6188  0.3752  0.7779
67027SOL    HW113060   0.042   2.714   1.000 -0.5476 -0.0383  0.5088
67027SOL    HW213061   0.142   2.828   1.015 -1.1929  0.6265 -0.1512
67028SOL     OW13062  10.274   2.857   9.560 -0.1764 -0.0686 -0.0044
67028SOL    HW113063  10.314   2.774   9.531 -2.4112 -0.8762 -1.0733
67028SOL    HW213064  10.328   2.925   9.520  1.5578 -0.9931  0.6795
67029SOL     OW13065   2.415   5.293   8.677 -0.0921 -0.8481 -0.0116
67029SOL    HW113066   2.360   5.223   8.713 -2.3367  0.7820 -0.0335
67029SOL    HW213067   2.369   5.374   8.700  2.4947  0.6756  0.1841
67030SOL     OW13068   3.230   9.293   9.172  0.0769  0.5940 -0.2270
67030SOL    HW113069   3.300   9.246   9.126  0.7695  0.9817  0.4131
67030SOL    HW213070   3.160   9.228   9.183  0.1934  0.2935 -1.1587
67031SOL     OW13071  13.905   1.846   9.658 -0.3281 -0.9378  0.3861
67031SOL    HW113072  13.980   1.788   9.642  0.5364 -0.0428  1.0951
67031SOL    HW213073  13.831   1.786   9.666  0.7220 -2.1068  2.2525
67032SOL     OW13074  11.661   7.575  10.536 -0.0396 -0.1517 -0.0550
67032SOL    HW113075  11.701   7.561  10.450 -1.1289 -1.3514 -0.3937
67032SOL    HW213076  11.680   7.495  10.585 -0.0619  0.2251  0.5804
67033SOL     OW13077   4.192  13.059   6.772  0.5515  0.1309 -0.5140
67033SOL    HW113078   4.133  13.104   6.711 -2.5481  0.0718  2.1438
67033SOL    HW213079   4.174  12.966   6.757 -0.7562  0.1241  0.8061
67034SOL     OW13080   6.430  12.371  11.421 -0.3010  0.3733 -0.8543
67034SOL    HW113081   6.414  12.286  11.462 -0.3070  0.3353 -0.9349
67034SOL    HW213082   6.345  12.397  11.385 -0.3768  0.5712 -0.5360
67035SOL     OW13083   1.235   7.836  13.959  0.0241 -0.4984 -0.5336
67035SOL    HW113084   1.237   7.800  14.048  0.2637  0.1456 -0.2732
67035SOL    HW213085   1.317   7.885  13.952 -0.8028  0.9268 -0.4835
67036SOL     OW13086   3.546   6.600  12.653 -0.3974  0.3017 -0.2124
67036SOL    HW113087   3.627   6.625  12.610 -0.0589  0.3390  0.4414
67036SOL    HW213088   3.569   6.592  12.745 -0.9201 -0.6139 -0.1499
67037SOL     OW13089  12.072   6.421  13.591  0.8601 -0.3255  0.1530
67037SOL    HW113090  12.040   6.381  13.672  1.2895  0.1311  0.5548
67037SOL    HW213091  12.061   6.515  13.604 -0.0051 -0.2898 -0.7283
67038SOL     OW13092   4.263   3.275   6.693 -0.3843 -0.2469  0.4489
67038SOL    HW113093   4.246   3.369   6.690 -2.5172 -0.6227 -1.4712
67038SOL    HW213094   4.183   3.236   6.727  0.9419 -1.3592  2.5628
67039SOL     OW13095   1.874   9.413   9.236  0.6418  0.3098  0.7081
67039SOL    HW113096   1.824   9.344   9.280  0.9517 -0.7500 -0.5453
67039SOL    HW213097   1.818   9.439   9.163  0.0566  2.1680  1.7483
67040SOL     OW13098  10.484   6.789   7.500  0.1252  0.0633 -0.5162
67040SOL    HW113099  10.428   6.747   7.433 -0.4588  0.4533 -0.2802
67040SOL    HW213100  10.525   6.715   7.546 -0.0234 -0.2239 -0.8363
67041SOL     OW13101   1.859   8.166  12.307 -0.0250  0.2530 -0.3389
67041SOL    HW113102   1.865   8.112  12.228 -1.7859  1.0470 -1.0679
67041SOL    HW213103   1.930   8.229  12.299  1.9945 -1.7584  0.4563
67042SOL     OW13104  11.893  13.194   6.400  0.0688 -0.5068  0.0697
67042SOL    HW113105  11.798  13.208   6.397 -0.2621 -1.6910  2.4450
67042SOL    HW213106  11.905  13.106   6.365  0.4004 -0.1108 -0.8458
67043SOL     OW13107  11.613   3.783  11.168  0.2661 -0.5707  0.3586
67043SOL    HW113108  11.543   3.791  11.103  1.2195 -0.3547 -0.6682
67043SOL    HW213109  11.687   3.830  11.130  1.0183 -0.8821  1.3782
67044SOL     OW13110   5.324   3.965   1.211 -0.0707 -0.5332  0.2859
67044SOL    HW113111   5.364   3.984   1.126  0.3290  2.3156  1.0139
67044SOL    HW213112   5.284   4.048   1.238 -2.9403 -2.1723  1.4891
67045SOL     OW13113   9.485  13.930   7.142 -0.2666  0.1053  0.3074
67045SOL    HW113114   9.566  13.967   7.178  0.0390  0.1927 -0.4558
67045SOL    HW213115   9.464  13.987   7.069 -0.7335 -0.2325  0.1775
67046SOL     OW13116   9.274   3.631  13.802  0.2604  0.3685  0.4270
67046SOL    HW113117   9.288   3.566  13.871  1.0263 -0.1816 -0.2478
67046SOL    HW213118   9.324   3.599  13.727 -0.7293  0.8585 -0.4641
67047SOL     OW13119   4.190   4.622  12.594  0.0182  0.2726 -0.9188
67047SOL    HW113120   4.126   4.569  12.641 -0.8026  1.9580 -0.0419
67047SOL    HW213121   4.145   4.705  12.577  1.4511  0.9316 -1.7007
67048SOL     OW13122   5.350   6.888   6.825  0.1056  0.1670  0.4034
67048SOL    HW113123   5.287   6.843   6.882  1.1403 -1.0087  0.6730
67048SOL    HW213124   5.391   6.953   6.882 -0.4411  0.5281  0.3886
67049SOL     OW13125   6.977   2.789  13.958 -0.0870 -0.5492 -0.1199
67049SOL    HW113126   7.072   2.792  13.944 -0.3394 -0.1692 -2.1195
67049SOL    HW213127   6.953   2.697  13.946  0.1881 -0.9832  2.1245
67050SOL     OW13128   8.287  11.108   3.612  0.0447 -0.2667  0.5965
67050SOL    HW113129   8.244  11.166   3.550 -0.1789 -0.5711  0.4668
67050SOL    HW213130   8.232  11.110   3.690  0.0639 -0.2654  0.6099
67051SOL     OW13131   6.318   3.661   5.991  0.2817 -0.0679 -0.0813
67051SOL    HW113132   6.251   3.706   5.940  2.4051  2.2511 -1.0165
67051SOL    HW213133   6.345   3.724   6.057  3.8225  0.5297 -1.8374
67052SOL     OW13134  11.883   5.940   8.730  0.3606  0.3951 -0.1826
67052SOL    HW113135  11.855   5.947   8.639  3.2252 -0.8584 -1.2788
67052SOL    HW213136  11.862   6.025   8.769  0.1785  1.4007 -2.3586
67053SOL     OW13137   2.552   8.410  12.444 -1.1977  0.5236 -0.5690
67053SOL    HW113138   2.577   8.402  12.536 -1.4527  1.7984 -0.3767
67053SOL    HW213139   2.590   8.332  12.403 -0.3495  0.3653  0.4543
67054SOL     OW13140   4.154   0.039   1.195  0.0765  0.2051 -0.9922
67054SOL    HW113141   4.199   0.042   1.111  1.7251  0.1253 -0.1385
67054SOL    HW213142   4.222   0.053   1.260 -1.0860 -0.2291  0.3749
67055SOL     OW13143  13.205   4.306   8.213  0.1161 -0.2520  0.2356
67055SOL    HW113144  13.283   4.260   8.246 -0.4764 -0.9544  0.6934
67055SOL    HW213145  13.209   4.293   8.119  1.1324  0.6542  0.1337
67056SOL     OW13146  11.628   5.542  13.490  0.0735  0.0214 -0.2880
67056SOL    HW113147  11.588   5.460  13.519 -3.6257  2.3592  2.1817
67056SOL    HW213148  11.553   5.599  13.471  2.2803  3.7659  1.1354
67057SOL     OW13149   6.769   0.780   2.511  0.8796  0.2242 -0.0037
67057SOL    HW113150   6.783   0.686   2.498  0.7102  0.2509 -0.3969
67057SOL    HW213151   6.843   0.821   2.467  0.3227  0.3156 -0.8717
67058SOL     OW13152   5.862   5.781   4.969  0.5045 -0.0837 -0.0702
67058SOL    HW113153   5.930   5.813   5.028  0.5315 -0.5061  0.1313
67058SOL    HW213154   5.811   5.859   4.946  0.2525  0.0202  0.8256
67059SOL     OW13155   4.433  10.667   7.026 -0.0844 -0.2463 -1.7543
67059SOL    HW113156   4.344  10.633   7.018 -0.1816 -0.5336  0.0108
67059SOL    HW213157   4.443  10.727   6.953 -1.1531 -1.4149 -2.9169
67060SOL     OW13158   6.804  12.406   0.639 -0.6126  0.1492 -0.4167
67060SOL    HW113159   6.850  12.325   0.660  0.2013  1.0298  1.3500
67060SOL    HW213160   6.855  12.444   0.567  1.5414  1.0896  1.4723
67061SOL     OW13161   3.233   0.125  13.935  0.4072  0.5057 -1.1498
67061SOL    HW113162   3.314   0.100  13.978 -1.6408 -0.0090  2.9131
67061SOL    HW213163   3.212   0.052  13.876  2.0704 -0.0388 -1.0983
67062SOL     OW13164  10.207   2.776  11.808  0.0575  0.4825  0.6599
67062SOL    HW113165  10.176   2.842  11.746  0.1616 -0.2865 -0.2225
67062SOL    HW213166  10.288   2.743  11.769  0.4744  0.4554  1.5344
67063SOL     OW13167   1.040   9.742   0.359  0.0141 -0.1861 -0.2631
67063SOL    HW113168   1.010   9.722   0.448  0.0114 -0.9985 -0.4374
67063SOL    HW213169   0.962   9.773   0.313 -0.1781 -0.5961 -0.2198
67064SOL     OW13170  13.009   8.668   4.710  0.1024 -0.0256 -0.2207
67064SOL    HW113171  12.958   8.740   4.673  0.7935  0.8101  0.4303
67064SOL    HW213172  12.954   8.633   4.780 -0.1308  0.0104 -0.3846
67065SOL     OW13173   0.319   1.693   7.580  0.0550 -0.2440 -0.2888
67065SOL    HW113174   0.283   1.766   7.528 -0.2970 -1.4475 -1.7997
67065SOL    HW213175   0.413   1.708   7.581 -0.1975  2.1617  2.5021
67066SOL     OW13176  11.374   5.447   1.649  0.6802 -0.3416  0.2414
67066SOL    HW113177  11.333   5.361   1.638 -1.6701  0.7271 -0.0283
67066SOL    HW213178  11.303   5.509   1.633  1.9636  1.6387  1.7528
67067SOL     OW13179  11.531   6.610   4.822 -0.8323 -0.1181 -0.1379
67067SOL    HW113180  11.507   6.703   4.824 -0.0699  0.0853  0.1509
67067SOL    HW213181  11.551   6.593   4.730 -0.9437  0.0119 -0.1876
67068SOL     OW13182  12.433  12.205   8.734 -0.0090 -0.5121  0.1866
67068SOL    HW113183  12.469  12.133   8.786  0.3789 -0.8168 -0.5021
67068SOL    HW213184  12.386  12.258   8.798  0.4249 -0.9072  0.8519
67069SOL     OW13185   4.208  12.947   2.673  0.1190  0.2116  0.2930
67069SOL    HW113186   4.155  13.026   2.685  1.4479  0.8495  2.7117
67069SOL    HW213187   4.255  12.962   2.592  0.5100  2.0591  0.8145
67070SOL     OW13188   3.077   2.574   0.905 -0.6850  0.0270 -0.0702
67070SOL    HW113189   2.981   2.580   0.901 -0.6241  1.8807  0.3044
67070SOL    HW213190   3.107   2.621   0.827 -0.0742 -0.2314  0.0045
67071SOL     OW13191   3.602   5.706   8.230 -0.4601  0.0404 -0.5605
67071SOL    HW113192   3.610   5.648   8.155 -0.4808 -0.0320 -0.5056
67071SOL    HW213193   3.588   5.648   8.304  0.4847  0.0572 -0.3587
67072SOL     OW13194  10.697   5.616  13.358 -0.2124 -0.0336 -0.0596
67072SOL    HW113195  10.605   5.604  13.380  0.3580 -0.5545  2.4230
67072SOL    HW213196  10.714   5.555  13.287 -2.0660  1.1155 -1.5927
67073SOL     OW13197   6.956   1.904   1.019 -0.0241 -0.4989 -0.3302
67073SOL    HW113198   6.916   1.933   1.101 -0.3993 -0.6182 -0.4670
67073SOL    HW213199   7.047   1.885   1.041  0.3957  1.2831 -0.3275
67074SOL     OW13200   2.227   8.019  12.371  0.0754 -0.4571  0.5943
67074SOL    HW113201   2.204   8.111  12.362  0.0612 -0.4577  0.6212
67074SOL    HW213202   2.209   7.998  12.463 -4.4967 -1.6784 -0.3060
67075SOL     OW13203  13.275   0.102  10.359 -0.2118  0.4456 -0.4129
67075SOL    HW113204  13.232   0.155  10.291  0.2561  0.5006 -0.6679
67075SOL    HW213205  13.346   0.058  10.314 -0.5792 -0.3825 -0.1897
67076SOL     OW13206  11.857   9.715   1.785  0.1277  0.0776  0.3677
67076SOL    HW113207  11.801   9.779   1.741  0.0400  2.1000  3.1228
67076SOL    HW213208  11.818   9.631   1.764 -0.9983  1.0278 -1.7430
67077SOL     OW13209   3.015   0.300   4.627  0.5507  0.3086  0.2244
67077SOL    HW113210   3.104   0.318   4.595  1.5281 -4.4264 -0.5480
67077SOL    HW213211   2.998   0.210   4.599 -4.8245  1.1522 -0.1328
67078SOL     OW13212  10.309   4.177  13.342 -0.9305 -0.0481 -0.1574
67078SOL    HW113213  10.403   4.181  13.361 -0.3322 -0.5789 -2.7489
67078SOL    HW213214  10.291   4.085  13.327 -2.4499 -0.3139  2.5501
67079SOL     OW13215   6.697   9.573   3.659  0.0477  0.2612 -0.3319
67079SOL    HW113216   6.788   9.557   3.635  0.0038  0.5529 -0.7004
67079SOL    HW213217   6.652   9.586   3.575 -0.4154 -0.3062 -0.1736
67080SOL     OW13218  11.554   1.723   1.453  0.2644  0.1584 -0.5537
67080SOL    HW113219  11.505   1.718   1.371 -0.0399 -0.3634 -0.3480
67080SOL    HW213220  11.492   1.762   1.515  0.0249 -0.7225 -0.2336
67081SOL     OW13221  10.686  11.538  13.454  0.0699 -0.1944 -0.0314
67081SOL    HW113222  10.778  11.536  13.428  0.5968  0.6600  1.6123
67081SOL    HW213223  10.668  11.630  13.470 -0.8412 -0.4426  0.4206
67082SOL     OW13224   6.191   8.881   4.470  0.2041  0.4379 -1.0063
67082SOL    HW113225   6.146   8.964   4.451  1.3150  2.0508  2.4617
67082SOL    HW213226   6.281   8.895   4.439  1.2756  1.9991  2.3117
67083SOL     OW13227   1.183   4.618  13.425 -0.3207  0.5654  0.5588
67083SOL    HW113228   1.181   4.555  13.497  0.2966  0.6975  0.7019
67083SOL    HW213229   1.147   4.571  13.350 -0.6801  0.3278  0.8760
67084SOL     OW13230  12.391  11.511   3.785  0.1045 -0.0063 -0.1297
67084SOL    HW113231  12.443  11.582   3.748 -0.0382 -1.1467 -2.6798
67084SOL    HW213232  12.345  11.551   3.859  0.6596  2.3166 -0.9657
67085SOL     OW13233   4.964   0.006   9.337  0.3377 -0.6711  0.1878
67085SOL    HW113234   4.956  -0.038   9.421 -0.4521 -1.9221 -0.5170
67085SOL    HW213235   4.883  -0.014   9.291 -0.1343  1.6526 -0.1420
67086SOL     OW13236   7.603   1.297   2.569  0.2298  0.5552 -0.1460
67086SOL    HW113237   7.688   1.318   2.530  0.7262 -2.0111 -0.5909
67086SOL    HW213238   7.613   1.318   2.661  1.9115 -1.1164  0.1076
67087SOL     OW13239   6.749  12.215   1.269  0.2233  0.4956 -0.0702
67087SOL    HW113240   6.746  12.311   1.271  0.6512  0.4988  0.7294
67087SOL    HW213241   6.676  12.187   1.324  0.6581  0.3734  0.4499
67088SOL     OW13242   7.567   9.155  10.598  0.9305 -0.2458 -0.0855
67088SOL    HW113243   7.597   9.195  10.516  2.1660 -1.0969 -0.0787
67088SOL    HW213244   7.633   9.180  10.663 -1.4570  2.8052  1.4167
67089SOL     OW13245   2.531   6.771   3.308  0.4093 -0.0922  0.1274
67089SOL    HW113246   2.438   6.772   3.286 -0.2692 -3.4625  2.0945
67089SOL    HW213247   2.566   6.694   3.263  0.5715 -2.8226  4.3090
67090SOL     OW13248   6.318   5.550   8.564 -0.2156  0.6562  0.3527
67090SOL    HW113249   6.304   5.538   8.470 -0.4121  1.3134  0.2885
67090SOL    HW213250   6.377   5.626   8.569  2.7722 -1.5289  0.6347
67091SOL     OW13251   3.162   6.032   5.212 -0.0262  0.3041  0.1874
67091SOL    HW113252   3.180   6.114   5.258 -0.4614  0.4504  0.1024
67091SOL    HW213253   3.186   6.049   5.121  0.4698  0.1372  0.2837
67092SOL     OW13254   4.940  11.406  13.829  0.6217  0.0302 -0.5132
67092SOL    HW113255   4.876  11.351  13.875  1.7994 -0.6017  0.4166
67092SOL    HW213256   4.945  11.486  13.881  1.9827 -0.6998  0.5439
67093SOL     OW13257  10.672   6.534   4.475  0.6942  0.1045  0.2949
67093SOL    HW113258  10.683   6.455   4.527  0.1278 -0.0428  0.1988
67093SOL    HW213259  10.687   6.606   4.537  1.0869 -0.0733  0.4078
67094SOL     OW13260  12.095  13.030   2.761 -0.1759  0.0467 -0.3239
67094SOL    HW113261  12.173  13.070   2.799  0.2875 -0.2248 -0.9693
67094SOL    HW213262  12.129  12.963   2.702 -0.8511  0.8342 -1.6520
67095SOL     OW13263   7.069   7.423  13.741  0.2520  0.2975  1.0156
67095SOL    HW113264   7.054   7.328  13.740  0.7754  0.2107  0.2225
67095SOL    HW213265   6.991   7.460  13.700  0.5337  0.1243  0.3165
67096SOL     OW13266   3.511  11.950   5.710  0.3348  0.4778  0.6001
67096SOL    HW113267   3.463  11.980   5.788 -0.2369  1.4453 -0.0972
67096SOL    HW213268   3.532  11.859   5.728 -1.8259 -0.0041  0.9253
67097SOL     OW13269   4.729  12.475   2.920 -0.0357 -0.9036 -0.6054
67097SOL    HW113270   4.709  12.417   2.993 -0.3075 -0.5809 -0.4211
67097SOL    HW213271   4.667  12.547   2.929  2.1103  0.8817  0.8199
67098SOL     OW13272   7.702   4.242   7.518  0.1774  0.4325  0.2317
67098SOL    HW113273   7.653   4.272   7.441 -1.8227 -0.0874  1.2187
67098SOL    HW213274   7.746   4.320   7.551 -0.4646  1.0619 -0.3709
67099SOL     OW13275   4.672   1.375   0.293 -0.2578 -0.4406 -0.6596
67099SOL    HW113276   4.627   1.294   0.318 -0.8284 -0.1424 -0.7045
67099SOL    HW213277   4.673   1.427   0.373 -0.1883 -0.3537 -0.7173
67100SOL     OW13278   4.204   7.637   9.855 -0.2962  0.5084 -0.0084
67100SOL    HW113279   4.217   7.670   9.767  0.8501 -0.8155 -0.3827
67100SOL    HW213280   4.155   7.705   9.900  0.7430  2.0437 -1.1194
67101SOL     OW13281  13.592   1.681   5.301  0.3179  0.1145 -0.3073
67101SOL    HW113282  13.516   1.737   5.317 -1.2782 -1.9202 -0.4351
67101SOL    HW213283  13.624   1.658   5.388  0.7389  0.8501 -0.2539
67102SOL     OW13284  13.772   7.957   4.305 -0.2489  0.1781 -0.7645
67102SOL    HW113285  13.773   8.001   4.220 -0.2442 -1.4124 -1.6149
67102SOL    HW213286  13.827   7.880   4.294  0.9146  0.6600  1.1184
67103SOL     OW13287   0.585  11.871   6.679  0.5654 -0.2630  0.3125
67103SOL    HW113288   0.581  11.955   6.632 -2.0383 -1.1158 -1.2312
67103SOL    HW213289   0.587  11.895   6.772  0.1577  1.5109 -0.1014
67104SOL     OW13290   4.016  12.055   1.961 -0.4236 -0.3593 -0.6102
67104SOL    HW113291   3.922  12.065   1.954 -0.6118 -1.4586  0.0726
67104SOL    HW213292   4.028  11.971   2.006  0.8950 -0.6848 -1.5177
67105SOL     OW13293   7.311   1.168   3.898  0.1249  0.0935  0.3440
67105SOL    HW113294   7.235   1.127   3.939  0.9692 -1.1356  0.7345
67105SOL    HW213295   7.381   1.161   3.964  1.1792 -0.8365 -0.8135
67106SOL     OW13296  11.832   6.189   5.995 -0.2718  0.5124  0.2996
67106SOL    HW113297  11.782   6.111   6.019  0.7063 -0.1745  0.1395
67106SOL    HW213298  11.904   6.192   6.058  0.7215  0.2554 -0.7820
67107SOL     OW13299   6.477   2.508   7.914 -0.4322 -0.7213  0.2252
67107SOL    HW113300   6.392   2.487   7.876 -1.4978  1.0694  1.4778
67107SOL    HW213301   6.457   2.537   8.003  1.2560  1.5683 -0.0597
67108SOL     OW13302   9.152  13.681   4.259  0.5811  0.1247 -0.3835
67108SOL    HW113303   9.076  13.680   4.201 -0.1784 -0.3578  0.5827
67108SOL    HW213304   9.184  13.591   4.258 -0.4304 -0.3011  1.1558
67109SOL     OW13305   5.187  11.011  12.235  0.0404 -0.2623 -0.1399
67109SOL    HW113306   5.120  11.079  12.242  0.9691  0.5209  1.6002
67109SOL    HW213307   5.262  11.055  12.197  0.3194 -0.5701  0.0530
67110SOL     OW13308   2.952   5.361   2.924  0.1816 -0.1595  0.3663
67110SOL    HW113309   2.898   5.424   2.878  1.8115  1.6831  0.8061
67110SOL    HW213310   2.906   5.277   2.915 -0.9778  0.6618 -2.0854
67111SOL     OW13311   8.411   4.607   1.649 -0.2679 -0.0832  0.1074
67111SOL    HW113312   8.416   4.635   1.740  0.7007 -1.2192  0.4168
67111SOL    HW213313   8.393   4.513   1.653  0.1057 -0.2043 -0.8601
67112SOL     OW13314   0.287   8.464  11.926  0.0948 -0.0412 -0.2146
67112SOL    HW113315   0.327   8.404  11.863 -0.7232  0.1971 -0.9809
67112SOL    HW213316   0.282   8.548  11.879 -0.9673  0.0209 -0.0130
67113SOL     OW13317  12.990  12.951   6.175  0.0019 -0.6903 -0.1636
67113SOL    HW113318  13.083  12.936   6.156 -0.1664 -1.4767 -0.3912
67113SOL    HW213319  12.953  12.864   6.189 -0.9524 -0.4817 -1.2441
67114SOL     OW13320  11.924   7.554   2.297 -0.0994  0.3278 -0.4614
67114SOL    HW113321  11.878   7.516   2.372 -0.8415  0.7503 -0.6963
67114SOL    HW213322  11.910   7.649   2.306 -0.0598  0.3944 -1.0517
67115SOL     OW13323  13.129   6.764   2.166  0.3083 -0.1416 -0.2799
67115SOL    HW113324  13.149   6.850   2.129 -0.1116 -0.1483 -0.5266
67115SOL    HW213325  13.142   6.703   2.094  0.3915 -0.2618 -0.1634
67116SOL     OW13326  12.734  10.191   8.978 -0.0032  0.5830 -0.1337
67116SOL    HW113327  12.685  10.151   9.050 -0.6905 -0.0100 -0.9002
67116SOL    HW213328  12.670  10.248   8.935  1.1298  3.0771  1.3226
67117SOL     OW13329   1.993   4.695   6.586 -0.1792 -0.5809 -0.3753
67117SOL    HW113330   1.910   4.741   6.573  1.3359  2.1588 -1.2704
67117SOL    HW213331   2.032   4.737   6.663  1.5267  0.1434 -1.5597
67118SOL     OW13332   2.231   4.095   2.254 -0.1622  0.3427  0.0558
67118SOL    HW113333   2.285   4.161   2.208 -1.8736  1.1732 -0.8434
67118SOL    HW213334   2.274   4.012   2.234  1.1082  1.0099 -0.1631
67119SOL     OW13335   6.831  13.386   9.552  0.1989  0.0118 -0.3477
67119SOL    HW113336   6.817  13.331   9.474 -0.9255  0.8061 -0.7214
67119SOL    HW213337   6.908  13.348   9.593 -0.6307 -1.9716 -0.5014
67120SOL     OW13338   7.952  13.618   9.204 -0.1918 -0.1219  0.6091
67120SOL    HW113339   7.868  13.664   9.212 -0.7476 -1.2279  1.2669
67120SOL    HW213340   7.934  13.528   9.230  0.9578 -0.6602 -0.3350
67121SOL     OW13341  12.497   5.649   9.961  0.4151 -0.4973 -0.1970
67121SOL    HW113342  12.402   5.646   9.952  0.4414 -0.2001 -0.5803
67121SOL    HW213343  12.516   5.741   9.981  0.6934 -0.3853 -0.9530
67122SOL     OW13344   0.919   2.881   2.770 -0.0755 -0.1468 -0.2850
67122SOL    HW113345   0.899   2.970   2.743  2.4070 -0.0248 -2.0534
67122SOL    HW213346   1.002   2.889   2.817 -1.4663 -1.1606  2.5789
67123SOL     OW13347  10.790   0.748   0.340 -0.4417 -0.0841  0.1217
67123SOL    HW113348  10.822   0.728   0.429 -0.6845  1.9639  0.7098
67123SOL    HW213349  10.702   0.711   0.337 -0.7431  0.5240  1.0431
67124SOL     OW13350  10.393   7.485   0.823 -0.1839 -0.0734  0.3166
67124SOL    HW113351  10.392   7.482   0.727 -2.4879 -2.0522  0.3256
67124SOL    HW213352  10.412   7.577   0.843  0.6234  0.3371 -2.0048
67125SOL     OW13353   8.258   0.583   2.651 -0.3007 -0.1050 -0.0402
67125SOL    HW113354   8.297   0.640   2.719 -0.6258  0.9420 -0.7074
67125SOL    HW213355   8.170   0.564   2.683 -0.3453  0.1327 -0.0183
67126SOL     OW13356   1.347  10.855  12.565 -0.0208  0.2880  0.4031
67126SOL    HW113357   1.409  10.786  12.585 -1.6981 -1.1691  0.8304
67126SOL    HW213358   1.373  10.928  12.621  1.0284 -0.4378  0.8915
67127SOL     OW13359   5.198   8.135   7.665  0.6866  0.1428  0.6931
67127SOL    HW113360   5.232   8.047   7.649 -0.5569  0.0467 -1.7255
67127SOL    HW213361   5.136   8.124   7.737  2.2020 -0.4857  1.9764
67128SOL     OW13362   1.986   6.536  13.408 -0.2127  0.2715  0.6460
67128SOL    HW113363   1.911   6.540  13.349 -1.0336 -0.6266  1.5792
67128SOL    HW213364   1.978   6.451  13.451  0.8455  0.5387  1.4151
67129SOL     OW13365   9.245   6.786  12.314 -0.0223  0.0122 -0.3038
67129SOL    HW113366   9.312   6.835  12.266 -1.5451  1.2135 -1.2931
67129SOL    HW213367   9.191   6.747  12.245 -0.6354 -0.5191  0.4677
67130SOL     OW13368  10.854  10.925   6.894  0.1122 -0.0841  0.5693
67130SOL    HW113369  10.943  10.926   6.857  0.0943 -0.7576  0.4937
67130SOL    HW213370  10.867  10.907   6.987  0.0010 -1.7372  0.3086
67131SOL     OW13371  10.077   4.337  13.445 -0.0993  0.1073  0.2514
67131SOL    HW113372  10.010   4.294  13.392 -0.8232  0.9081  0.4970
67131SOL    HW213373  10.160   4.303  13.411 -0.6322 -1.3608  0.3460
67132SOL     OW13374  13.181  10.328   8.149  0.4690 -0.3734  0.1313
67132SOL    HW113375  13.181  10.406   8.205  0.2771 -0.2599 -0.0235
67132SOL    HW213376  13.091  10.295   8.153  0.3826 -0.2063 -0.3208
67133SOL     OW13377   5.510   3.567   2.693  0.3469  0.4915 -0.7444
67133SOL    HW113378   5.472   3.640   2.646  1.4452  0.9389 -0.9725
67133SOL    HW213379   5.462   3.490   2.662  0.8306  0.8060 -2.3617
67134SOL     OW13380  12.394   2.464   7.386  0.2819 -0.2435  0.0300
67134SOL    HW113381  12.313   2.465   7.437  0.6318 -1.0326  0.6150
67134SOL    HW213382  12.461   2.434   7.447  0.8572 -0.4598 -0.6860
67135SOL     OW13383  11.582   2.317  14.030 -0.0259  0.1439  0.0754
67135SOL    HW113384  11.504   2.282  14.073  0.4272 -0.3938  0.4743
67135SOL    HW213385  11.599   2.400  14.073  0.9434 -0.7960  1.5889
67136SOL     OW13386   5.358   0.437  11.704  0.5621 -0.2719  0.8456
67136SOL    HW113387   5.432   0.381  11.681  0.9331  1.1735 -1.8685
67136SOL    HW213388   5.388   0.485  11.782  1.6845 -1.1043  0.9531
67137SOL     OW13389   8.531  13.046   3.924  0.0540  0.2065  0.4144
67137SOL    HW113390   8.530  13.141   3.936  0.2478  0.0797  1.5512
67137SOL    HW213391   8.563  13.012   4.007  5.3643 -0.6003 -1.5615
67138SOL     OW13392   9.618  12.043   7.229  0.2404  0.3862 -0.2849
67138SOL    HW113393   9.671  12.086   7.295 -1.3165  1.0886  0.5785
67138SOL    HW213394   9.542  12.009   7.277 -1.5751  2.0125 -1.8333
67139SOL     OW13395   5.190   4.061   3.504 -0.4888  0.0074  0.4229
67139SOL    HW113396   5.218   3.991   3.562  2.9893 -0.5572 -1.6590
67139SOL    HW213397   5.233   4.140   3.537  0.3743 -0.0478 -0.5062
67140SOL     OW13398   5.402   0.273   2.012  0.0154  0.3029  0.0078
67140SOL    HW113399   5.462   0.202   1.991  0.0294  0.7042 -1.4737
67140SOL    HW213400   5.427   0.301   2.100  0.5513 -0.9597  0.2793
67141SOL     OW13401  10.930  13.998  12.229  0.2463  0.0912 -0.0877
67141SOL    HW113402  10.858  13.974  12.171 -1.4456 -1.3526  2.4170
67141SOL    HW213403  10.992  13.925  12.221 -0.1268 -0.2537  0.1206
67142SOL     OW13404  11.252   1.173  10.366  0.4541  0.2183  0.0022
67142SOL    HW113405  11.281   1.095  10.318 -1.8223 -0.0647 -1.0912
67142SOL    HW213406  11.168   1.196  10.325  0.3480  2.3786  1.2801
67143SOL     OW13407   5.032   2.096  13.477 -0.0308  0.2844 -0.2390
67143SOL    HW113408   5.113   2.085  13.526 -0.6977 -0.0081  0.8282
67143SOL    HW213409   4.963   2.096  13.543 -0.7804  2.4574 -0.9259
67144SOL     OW13410   7.094  12.515   6.097 -0.2968  0.0308 -0.1713
67144SOL    HW113411   7.164  12.526   6.161 -0.1385 -0.4763 -0.2560
67144SOL    HW213412   7.138  12.503   6.013 -0.4747 -0.5272 -0.1891
67145SOL     OW13413  10.113   1.969   7.915 -0.3315 -0.4740  0.1721
67145SOL    HW113414  10.040   1.926   7.961  0.2687 -0.6977  0.9418
67145SOL    HW213415  10.187   1.910   7.928  0.1590  0.1028  0.0120
67146SOL     OW13416   0.583   9.400   2.899  0.4887  0.0975  0.2769
67146SOL    HW113417   0.493   9.372   2.880  0.5619 -0.2528  0.4240
67146SOL    HW213418   0.574   9.483   2.946  0.2793  0.5603 -0.5662
67147SOL     OW13419   9.517   6.997   3.825  0.3121  0.1834  0.6477
67147SOL    HW113420   9.576   7.071   3.840  2.5865 -1.5320  0.6333
67147SOL    HW213421   9.484   7.011   3.736  1.0999  0.9302  0.4547
67148SOL     OW13422   7.338   7.129   5.736 -0.1599 -0.1755  0.9100
67148SOL    HW113423   7.257   7.084   5.713  0.6336 -1.3236  0.3110
67148SOL    HW213424   7.325   7.155   5.827 -1.6559  0.7180  0.4924
67149SOL     OW13425   3.276  10.048  13.649  0.4374 -0.2677  0.3080
67149SOL    HW113426   3.231  10.077  13.571 -0.0838 -0.1712  0.6408
67149SOL    HW213427   3.304   9.958  13.629  1.9489  0.3715 -0.6725
67150SOL     OW13428   2.407  13.537   2.452 -0.2048 -0.4806  0.6862
67150SOL    HW113429   2.410  13.600   2.380  0.6098  0.3221  1.3862
67150SOL    HW213430   2.342  13.473   2.425 -1.0385  0.6378 -0.0818
67151SOL     OW13431  13.637  11.160   4.898  0.9227 -0.4534  0.3071
67151SOL    HW113432  13.706  11.094   4.901  1.1801 -0.1516  0.8929
67151SOL    HW213433  13.589  11.149   4.980  0.4154 -0.5070  0.0083
67152SOL     OW13434   8.057   0.965  13.398  0.5592 -0.1258  0.0371
67152SOL    HW113435   8.093   0.893  13.346 -1.4885 -0.2895 -1.2742
67152SOL    HW213436   8.029   0.923  13.479 -2.5528 -1.4056 -1.5221
67153SOL     OW13437   2.186  11.619  13.957  0.1418  0.6689 -0.2162
67153SOL    HW113438   2.216  11.527  13.962 -0.2157  0.5653 -0.0008
67153SOL    HW213439   2.104  11.620  14.005 -0.3926  0.8831 -1.1073
67154SOL     OW13440   9.336   6.065  13.775  0.8732  0.1910  0.1584
67154SOL    HW113441   9.325   6.048  13.869  1.9806 -0.7604  0.1379
67154SOL    HW213442   9.421   6.028  13.754  1.3626  1.8142 -0.9049
67155SOL     OW13443  11.860   0.376   0.259 -0.2634  0.0909 -0.1066
67155SOL    HW113444  11.866   0.333   0.173 -2.3583  1.5465 -1.0554
67155SOL    HW213445  11.925   0.446   0.255 -0.6801  0.4560 -0.7254
67156SOL     OW13446   0.695  12.533  13.550  0.1711  0.2973  0.3753
67156SOL    HW113447   0.785  12.510  13.526  0.1183  0.1898  0.2806
67156SOL    HW213448   0.660  12.577  13.473 -0.7453 -2.0609 -0.6226
67157SOL     OW13449  11.065  12.377   0.319 -0.2580  0.0615  0.1635
67157SOL    HW113450  11.003  12.356   0.248 -2.0756 -3.9768  2.5542
67157SOL    HW213451  11.145  12.330   0.295 -0.7126 -0.9015  0.4447
67158SOL     OW13452   8.757   3.679   4.071 -0.1678  0.2169 -0.2454
67158SOL    HW113453   8.787   3.703   4.158 -0.9709  2.3345 -0.4848
67158SOL    HW213454   8.822   3.716   4.012 -1.0868  1.3298 -0.6117
67159SOL     OW13455  11.267   6.274   8.027 -0.5908 -0.2801  0.2436
67159SOL    HW113456  11.352   6.240   7.997 -1.0001 -0.1828 -1.1343
67159SOL    HW213457  11.241   6.334   7.957 -2.5762 -1.5832 -0.1988
67160SOL     OW13458   6.184   3.628  12.285 -0.5410 -0.2961 -0.0725
67160SOL    HW113459   6.213   3.645  12.375 -1.0556 -0.0725  0.0523
67160SOL    HW213460   6.133   3.705  12.261 -1.0053 -0.6687 -0.3052
67161SOL     OW13461   1.051  13.000   8.044  0.4196  0.1275 -0.7543
67161SOL    HW113462   1.023  13.046   7.965 -2.4545 -2.3686 -1.3851
67161SOL    HW213463   1.124  12.945   8.016  0.1320  0.0815 -1.4149
67162SOL     OW13464   6.785   6.642  11.924  0.0897  0.0990 -0.0957
67162SOL    HW113465   6.860   6.650  11.864 -0.2420  1.3820 -0.3848
67162SOL    HW213466   6.743   6.560  11.900  0.3309  0.2845 -1.2139
67163SOL     OW13467   8.383   3.517   1.877 -0.1531  0.6531 -0.0864
67163SOL    HW113468   8.459   3.563   1.911  0.0308  1.2807 -1.2680
67163SOL    HW213469   8.308   3.560   1.918  0.1068 -0.4349  1.6386
67164SOL     OW13470   7.580   3.704   7.026  0.3073 -0.4818  0.0723
67164SOL    HW113471   7.519   3.631   7.031 -0.7929  0.2457 -1.6990
67164SOL    HW213472   7.566   3.741   6.939  1.5614  1.2141  0.5354
67165SOL     OW13473   4.478   7.157   7.149  0.0321 -0.0916  0.2895
67165SOL    HW113474   4.385   7.180   7.156  0.1409  0.3136  0.3786
67165SOL    HW213475   4.480   7.087   7.084 -0.5146 -1.1811  1.4015
67166SOL     OW13476  12.746   6.419   8.749  0.0665  0.4533 -0.1318
67166SOL    HW113477  12.706   6.358   8.811  0.3886 -0.9106 -1.2216
67166SOL    HW213478  12.672   6.465   8.709 -0.2442  0.0693 -0.0009
67167SOL     OW13479   1.039   1.052   0.278 -0.0123 -0.0957  0.5139
67167SOL    HW113480   0.949   1.023   0.293 -0.7983  1.0291 -1.6694
67167SOL    HW213481   1.089   0.971   0.266 -1.4024 -0.7201 -1.5570
67168SOL     OW13482   5.630   0.766   7.621  0.8303 -0.1874  0.4813
67168SOL    HW113483   5.585   0.744   7.702  0.8413  0.1614  0.5863
67168SOL    HW213484   5.598   0.854   7.599  0.9438 -0.2165  0.1936
67169SOL     OW13485   6.274   2.267  11.217  0.3939  0.2770  0.8326
67169SOL    HW113486   6.198   2.239  11.267 -0.1790  0.1382 -0.1082
67169SOL    HW213487   6.242   2.339  11.163  1.0200  0.4488  0.6814
67170SOL     OW13488  12.562   1.950   0.534 -0.0478 -0.2474  0.3203
67170SOL    HW113489  12.632   1.995   0.485 -0.6221  0.2092 -0.0973
67170SOL    HW213490  12.586   1.858   0.530  1.4003  0.0378  1.5886
67171SOL     OW13491   2.016  13.300   6.238 -0.0148  0.4364 -0.2164
67171SOL    HW113492   2.094  13.353   6.222 -0.3622  1.3761  0.9839
67171SOL    HW213493   2.037  13.214   6.202  2.6752 -0.1882  2.4190
67172SOL     OW13494   3.843   2.135  10.842  0.4349  0.4341 -0.1243
67172SOL    HW113495   3.926   2.095  10.818  0.2694 -0.0365  0.0715
67172SOL    HW213496   3.789   2.129  10.763 -0.4348 -1.9518  0.5501
67173SOL     OW13497  13.282   3.857   7.201 -0.1906  0.0439  0.1552
67173SOL    HW113498  13.367   3.884   7.168 -0.7711  1.1520 -0.4779
67173SOL    HW213499  13.227   3.846   7.123 -1.5820  2.7256  0.6595
67174SOL     OW13500  12.626   3.264   6.340 -0.0204  0.3079 -0.1754
67174SOL    HW113501  12.587   3.238   6.424 -1.3862  0.3798 -0.7643
67174SOL    HW213502  12.685   3.192   6.319 -0.9283 -0.5371  0.0451
67175SOL     OW13503   4.595   2.624  10.860  0.6318 -0.0774 -0.6069
67175SOL    HW113504   4.528   2.565  10.825  0.1148  1.5524 -2.5878
67175SOL    HW213505   4.567   2.641  10.950  1.7912 -4.1472  0.7300
67176SOL     OW13506   2.659   1.843   6.903  0.0609  0.2733  0.2259
67176SOL    HW113507   2.674   1.749   6.908  0.0632  0.1478 -1.5521
67176SOL    HW213508   2.734   1.882   6.948  1.1710 -0.5394 -0.8693
67177SOL     OW13509   3.021  13.900   9.830 -0.5052 -1.0561 -0.3261
67177SOL    HW113510   3.106  13.861   9.849 -0.0380  0.1047  0.0594
67177SOL    HW213511   2.981  13.915   9.916 -0.3854 -0.0924 -0.4282
67178SOL     OW13512   2.086   1.730   2.924  0.1646  0.1479  0.4340
67178SOL    HW113513   2.085   1.660   2.860  2.2529  2.1415 -1.9884
67178SOL    HW213514   2.078   1.686   3.009  2.2093 -3.0657 -0.8890
67179SOL     OW13515   0.684   2.009  10.506  0.3310 -0.0730 -0.7687
67179SOL    HW113516   0.706   1.916  10.508  0.8795  0.0610 -0.1909
67179SOL    HW213517   0.602   2.014  10.456  0.4088 -0.8393 -0.9731
67180SOL     OW13518  11.678   2.097   5.894 -0.3216  0.0693  0.4816
67180SOL    HW113519  11.621   2.159   5.940  1.0193  0.1325  2.1505
67180SOL    HW213520  11.645   2.097   5.804 -2.4821  0.6311  1.2098
67181SOL     OW13521   5.868   1.649   8.345  0.9597 -0.0912  0.1915
67181SOL    HW113522   5.799   1.690   8.293 -1.2677 -3.0263  0.5543
67181SOL    HW213523   5.858   1.686   8.433 -0.2529 -0.5870  0.2659
67182SOL     OW13524   8.027   0.972   6.611 -0.1204  0.3141  0.0925
67182SOL    HW113525   8.100   0.947   6.554 -0.2491 -0.3974  0.2249
67182SOL    HW213526   8.048   0.932   6.695  0.0461  1.3263  0.5407
67183SOL     OW13527   7.166  12.388   8.262  0.0860 -0.6446  0.6073
67183SOL    HW113528   7.253  12.381   8.301  0.3230  1.1485  0.4914
67183SOL    HW213529   7.111  12.426   8.331 -0.9407 -2.8877  1.0932
67184SOL     OW13530   4.153  11.113   8.835  0.0434  0.2503 -0.6042
67184SOL    HW113531   4.199  11.035   8.802 -0.3873  0.1402 -0.9476
67184SOL    HW213532   4.155  11.174   8.762 -0.3810  0.2343 -0.6293
67185SOL     OW13533   3.248   0.645   6.650  0.0970 -0.3814 -0.7063
67185SOL    HW113534   3.223   0.726   6.694 -0.1909 -1.8260  1.9609
67185SOL    HW213535   3.310   0.673   6.583 -0.1187  2.0540  0.0081
67186SOL     OW13536  13.333  13.593   2.107  0.0687  0.0114 -0.3117
67186SOL    HW113537  13.264  13.646   2.068 -0.7572 -0.4342  0.4940
67186SOL    HW213538  13.291  13.553   2.183  1.3769  0.1530  0.5013
67187SOL     OW13539  10.585   7.825   6.745 -0.0355  0.3027  0.0358
67187SOL    HW113540  10.531   7.758   6.787  0.2972 -0.9751 -1.4634
67187SOL    HW213541  10.541   7.843   6.662  0.9612  0.4233 -0.4849
67188SOL     OW13542  11.722   3.091   1.525  0.1236 -0.0789 -0.3713
67188SOL    HW113543  11.644   3.131   1.487  0.5421 -0.8899 -2.1772
67188SOL    HW213544  11.692   3.005   1.555 -0.0452  0.2776  0.4945
67189SOL     OW13545   9.636   3.641   3.245  0.2937 -0.2004  0.1686
67189SOL    HW113546   9.590   3.651   3.161  0.3235  0.2755  0.2019
67189SOL    HW213547   9.577   3.590   3.299  1.2439 -2.5367 -0.8781
67190SOL     OW13548   4.052  10.784  11.403  0.0678 -0.1236  0.3737
67190SOL    HW113549   4.083  10.859  11.454  1.9517 -0.9965  0.5853
67190SOL    HW213550   4.043  10.817  11.314  0.8464  0.3723  0.4700
67191SOL     OW13551   6.019   2.813   4.105  0.5714 -0.8580 -0.4486
67191SOL    HW113552   6.089   2.820   4.039 -0.4267  1.8955 -1.3704
67191SOL    HW213553   5.974   2.731   4.084  2.4940 -1.8662 -0.8541
67192SOL     OW13554   5.824   5.494   9.238  0.3309  0.1339 -0.0329
67192SOL    HW113555   5.918   5.506   9.227  0.4955  0.3869  1.3898
67192SOL    HW213556   5.795   5.574   9.282 -0.2175 -0.6742  1.1216
67193SOL     OW13557   5.244   3.121  12.917 -0.0363  0.0314  0.1489
67193SOL    HW113558   5.279   3.172  12.843 -1.0805  1.3856  0.5528
67193SOL    HW213559   5.321   3.099  12.969  0.3778  1.8790  0.3692
67194SOL     OW13560  12.439   2.354  11.945  0.0182 -0.2286  0.6086
67194SOL    HW113561  12.425   2.427  11.884  2.5843 -0.7387 -0.7269
67194SOL    HW213562  12.454   2.278  11.889 -0.1831 -1.2843  1.9345
67195SOL     OW13563  11.309   0.328  13.228 -0.0255  0.0611 -0.4793
67195SOL    HW113564  11.310   0.419  13.258  0.9800  0.1399 -0.7281
67195SOL    HW213565  11.252   0.283  13.291 -0.1077  0.7531 -0.0446
67196SOL     OW13566   3.290  12.623   0.387 -0.0050  0.6047  0.6418
67196SOL    HW113567   3.220  12.558   0.393  0.6881 -0.0909  1.3702
67196SOL    HW213568   3.366  12.580   0.426  1.5603  0.3748 -2.4255
67197SOL     OW13569   1.162   2.590  12.355  0.7028  0.0501 -0.4238
67197SOL    HW113570   1.076   2.552  12.374  0.1053  2.0512  1.2265
67197SOL    HW213571   1.223   2.517  12.364 -0.4586 -0.7480  1.7632
67198SOL     OW13572   1.960   0.436   6.928  0.3693 -0.5545  0.2911
67198SOL    HW113573   1.900   0.371   6.892  0.6164 -1.2842  1.1572
67198SOL    HW213574   2.043   0.418   6.883 -0.0880  0.6336 -1.1108
67199SOL     OW13575  11.084   8.477   4.444  1.0251 -0.4315 -0.0991
67199SOL    HW113576  11.174   8.446   4.452  0.9158 -0.4670  1.2589
67199SOL    HW213577  11.077   8.549   4.507  0.3785  0.2550 -0.9253
67200SOL     OW13578  10.537  12.093   0.215 -0.6254  0.0904  0.1988
67200SOL    HW113579  10.532  12.095   0.119 -1.3113 -0.5810  0.2146
67200SOL    HW213580  10.570  12.005   0.235 -1.0868  0.0111  0.6053
67201SOL     OW13581   2.769   0.729   3.498 -0.3568  0.4387  0.0565
67201SOL    HW113582   2.774   0.784   3.420  0.8541  0.3305  0.0458
67201SOL    HW213583   2.754   0.791   3.570  1.9110  0.9278  0.1693
67202SOL     OW13584  11.835  10.093   9.504 -0.7382 -0.1053 -0.8203
67202SOL    HW113585  11.916  10.143   9.506  0.1237 -1.2560 -3.2947
67202SOL    HW213586  11.833  10.046   9.588  0.5601  0.7946 -0.2632
67203SOL     OW13587   0.109  13.989   0.226  0.4199 -0.2186  0.2145
67203SOL    HW113588   0.089  14.060   0.166  1.2776  1.5749  1.9322
67203SOL    HW213589   0.194  13.955   0.197 -0.2012 -0.8810 -0.8799
67204SOL     OW13590  13.388   6.602   3.084  0.6569  0.0731 -0.0029
67204SOL    HW113591  13.352   6.589   2.996  0.7556  1.3187 -0.2546
67204SOL    HW213592  13.417   6.693   3.084  0.7392  0.0657  1.3005
67205SOL     OW13593   4.415   9.333  10.798 -0.3377 -0.3954  0.6412
67205SOL    HW113594   4.473   9.407  10.815  1.4020 -1.2427 -1.1967
67205SOL    HW213595   4.426   9.276  10.874  1.5750 -0.6987  0.1844
67206SOL     OW13596   8.629   6.676  13.484  0.0124 -0.2935  0.6883
67206SOL    HW113597   8.684   6.700  13.558  0.1262  2.5104 -0.1885
67206SOL    HW213598   8.541   6.706  13.509  0.0607  0.7302 -0.2668
67207SOL     OW13599   8.151   6.586  13.239  0.4804  0.8519 -0.1798
67207SOL    HW113600   8.195   6.515  13.286  2.5368  2.5797  0.6820
67207SOL    HW213601   8.090   6.623  13.303  0.2808  0.6017 -0.2281
67208SOL     OW13602   7.075  14.043   8.767 -0.2421 -0.6095 -0.4324
67208SOL    HW113603   7.159  14.085   8.787 -0.8188  0.2023  0.3074
67208SOL    HW213604   7.019  14.114   8.737 -1.7173 -0.4970  2.2992
67209SOL     OW13605   8.159   4.516   1.304 -0.3087 -0.7573  0.1169
67209SOL    HW113606   8.174   4.438   1.252  0.5748  0.6154 -1.8037
67209SOL    HW213607   8.069   4.541   1.286 -0.3770 -0.9429  0.1988
67210SOL     OW13608  12.581   3.640   6.806  0.6911  0.1212 -0.1489
67210SOL    HW113609  12.590   3.636   6.711  2.2691 -0.4237 -0.0064
67210SOL    HW213610  12.526   3.565   6.828 -1.8169  1.6609 -0.8021
67211SOL     OW13611  12.132   8.980  13.054 -0.1385 -0.1230  0.4031
67211SOL    HW113612  12.188   8.996  12.979 -0.0235 -0.8970  0.3168
67211SOL    HW213613  12.092   8.895  13.037  0.2483 -0.5239  1.4376
67212SOL     OW13614   0.767  11.450   6.048 -0.1672  0.0826 -0.4389
67212SOL    HW113615   0.816  11.532   6.047  1.1382 -0.6485  0.2407
67212SOL    HW213616   0.725  11.448   6.134  1.4967 -0.8742  0.3968
67213SOL     OW13617  13.168   5.616   4.996 -0.7129  0.5381  0.3016
67213SOL    HW113618  13.195   5.537   4.948 -0.4162 -0.0090  1.3455
67213SOL    HW213619  13.086   5.641   4.955 -1.3419 -0.9213  0.5953
67214SOL     OW13620   2.375   9.668   1.321  0.2821  0.7115  0.3617
67214SOL    HW113621   2.403   9.679   1.230  1.6781 -0.9059  0.5503
67214SOL    HW213622   2.430   9.728   1.371 -0.8507  1.9972  0.1282
67215SOL     OW13623   5.750   5.304  10.448  0.1290  0.3809  0.1136
67215SOL    HW113624   5.834   5.262  10.463 -0.1966 -0.3676 -0.0880
67215SOL    HW213625   5.729   5.283  10.357 -0.2145  0.6636  0.1260
67216SOL     OW13626  10.159   0.492  11.978 -0.5191 -0.7804  0.1829
67216SOL    HW113627  10.167   0.563  12.042 -1.3268  1.2358 -1.8139
67216SOL    HW213628  10.232   0.505  11.918 -1.9289 -0.1942 -1.4860
67217SOL     OW13629   6.040   9.062  10.640 -0.4080  0.1637 -0.0103
67217SOL    HW113630   6.020   9.139  10.693  1.9098  0.5682  0.3635
67217SOL    HW213631   5.978   8.996  10.669 -0.8663  1.1639  1.3697
67218SOL     OW13632   5.261  13.615   0.798  0.1209 -0.0025  1.0228
67218SOL    HW113633   5.315  13.576   0.867 -0.4750 -1.6725  0.5756
67218SOL    HW213634   5.173  13.582   0.815 -0.2434  0.4618  0.0855
67219SOL     OW13635  12.245  12.993   1.574  0.0257  0.3824  0.7613
67219SOL    HW113636  12.234  13.015   1.667  0.1062 -0.2026  0.9130
67219SOL    HW213637  12.162  13.015   1.534  0.0919  0.9350  0.9114
67220SOL     OW13638   5.525  13.883   6.953 -0.0667 -0.1581 -0.2390
67220SOL    HW113639   5.551  13.921   7.037 -1.0780  0.8001 -0.3400
67220SOL    HW213640   5.432  13.862   6.965  0.5299 -3.2008  0.0226
67221SOL     OW13641   5.928   0.563   2.979  0.1427  0.1786 -0.1929
67221SOL    HW113642   5.926   0.634   2.914 -1.4376  2.5126  2.2054
67221SOL    HW213643   5.839   0.527   2.978 -0.1430  0.7782  1.1454
67222SOL     OW13644   8.745   2.505   9.789 -0.2017 -0.0404 -0.3105
67222SOL    HW113645   8.750   2.600   9.801  2.3265 -0.1003 -0.3655
67222SOL    HW213646   8.695   2.474   9.865 -1.9047  1.3701 -0.7867
67223SOL     OW13647   7.229   7.040   1.238 -0.0114  0.3208  0.2372
67223SOL    HW113648   7.153   7.057   1.183 -1.2140  0.5575  1.9062
67223SOL    HW213649   7.205   6.963   1.289  1.0350  0.1625  0.5282
67224SOL     OW13650   0.351   5.741  10.378  0.2093  0.3216 -0.0473
67224SOL    HW113651   0.427   5.738  10.321  0.8084 -0.0619  0.7494
67224SOL    HW213652   0.348   5.832  10.409 -0.4180  0.6632 -1.0586
67225SOL     OW13653   3.088  11.586   1.200 -0.0617 -0.3046  0.6446
67225SOL    HW113654   2.999  11.605   1.171 -0.0188  0.8229  1.2064
67225SOL    HW213655   3.136  11.569   1.118 -0.6183 -0.1410  0.2763
67226SOL     OW13656   9.977   3.645   5.285 -0.2719 -0.1466 -0.5602
67226SOL    HW113657   9.948   3.554   5.275  0.9484 -0.6390  0.1060
67226SOL    HW213658   9.965   3.683   5.198 -0.7983 -0.9436 -0.8573
67227SOL     OW13659   1.553   8.038   5.609 -0.0149 -0.1508  0.0457
67227SOL    HW113660   1.569   7.944   5.621 -0.8421 -0.2052  0.7867
67227SOL    HW213661   1.639   8.073   5.584  0.7156 -0.8279  1.4417
67228SOL     OW13662   8.187  13.508   4.615 -0.4168 -0.0634 -0.4263
67228SOL    HW113663   8.196  13.441   4.547  0.4410 -1.7841  1.2718
67228SOL    HW213664   8.263  13.564   4.604  0.9900 -1.6842  0.4320
67229SOL     OW13665   8.641   4.927   7.464  0.1311  0.0093  0.6408
67229SOL    HW113666   8.717   4.874   7.490  1.9357  2.3745  0.6165
67229SOL    HW213667   8.648   4.933   7.369  0.9082  1.5177  0.7610
67230SOL     OW13668   0.657   6.892   0.600  0.2024 -0.0198  0.2814
67230SOL    HW113669   0.751   6.876   0.609  0.1527 -0.3754  0.1993
67230SOL    HW213670   0.642   6.973   0.649  0.2887 -0.8094  1.6979
67231SOL     OW13671  13.812  10.216   4.147 -0.2814 -0.3950  0.0545
67231SOL    HW113672  13.799  10.283   4.080  0.5678  0.3943  0.6607
67231SOL    HW213673  13.724  10.182   4.163 -0.7786  0.7717 -0.0654
67232SOL     OW13674   0.831   7.126  10.496  1.0668  0.1852  0.2455
67232SOL    HW113675   0.868   7.078  10.422  1.3355 -0.7598  0.9609
67232SOL    HW213676   0.737   7.128  10.480  1.1810  0.5179 -0.4084
67233SOL     OW13677   1.406  10.547  12.018  0.2251 -0.2403 -0.1237
67233SOL    HW113678   1.425  10.517  12.106 -0.3827  1.4495  0.6294
67233SOL    HW213679   1.313  10.528  12.005  0.2906 -0.3999 -0.3728
67234SOL     OW13680   2.182   1.925  10.061 -0.2835  0.7678 -0.1051
67234SOL    HW113681   2.235   1.877  10.125 -0.8517 -0.0119 -0.2055
67234SOL    HW213682   2.185   2.016  10.090  0.8481  0.6807  0.0638
67235SOL     OW13683  10.148   3.725   8.131  0.3102  0.0897 -0.7971
67235SOL    HW113684  10.155   3.754   8.222 -0.1238 -0.8030 -0.4690
67235SOL    HW213685  10.205   3.784   8.083  3.9924 -1.9762  0.6251
67236SOL     OW13686   0.723   0.609   6.388 -0.1031 -0.1214  0.6788
67236SOL    HW113687   0.643   0.654   6.362  0.4762  0.1976 -0.6526
67236SOL    HW213688   0.693   0.526   6.425 -1.0567  0.0211  0.2529
67237SOL     OW13689   5.520  12.291   9.010  0.3230  0.4870  0.5325
67237SOL    HW113690   5.581  12.333   8.949 -0.6046 -0.2441 -0.9777
67237SOL    HW213691   5.569  12.218   9.047  0.1801 -0.5803 -1.2729
67238SOL     OW13692   2.787   4.612   7.988 -0.0163  0.2278  0.1387
67238SOL    HW113693   2.857   4.567   8.034 -0.2776  0.7140  1.0291
67238SOL    HW213694   2.774   4.694   8.036  0.0963  1.0377 -1.1392
67239SOL     OW13695   9.503  13.726   8.992 -0.4841 -0.4940  0.4477
67239SOL    HW113696   9.589  13.746   9.030  0.2611  0.0568 -1.3617
67239SOL    HW213697   9.454  13.808   8.999 -0.8163 -0.7584  1.3226
67240SOL     OW13698  10.389   0.397   2.875 -0.5879  0.5481  0.0634
67240SOL    HW113699  10.342   0.394   2.958  0.9842 -3.5256  1.0153
67240SOL    HW213700  10.480   0.417   2.898 -0.1363 -0.5859 -0.6188
67241SOL     OW13701  10.417  11.875   9.519  0.0896 -0.2617 -0.3629
67241SOL    HW113702  10.394  11.880   9.612 -0.0930 -1.3966 -0.3299
67241SOL    HW213703  10.465  11.956   9.502  1.4634 -0.7144  1.0885
67242SOL     OW13704   1.927   1.566  13.570 -0.3069  0.3306 -0.2896
67242SOL    HW113705   2.022   1.569  13.555 -0.0609  0.4548  1.1693
67242SOL    HW213706   1.908   1.646  13.618 -1.1834  0.3457 -0.6353
67243SOL     OW13707   7.315   8.500  11.110  0.1129 -0.2925 -0.2680
67243SOL    HW113708   7.265   8.425  11.140  0.9319 -0.9350 -0.4693
67243SOL    HW213709   7.252   8.554  11.061  0.0445 -2.1267 -2.3473
67244SOL     OW13710   3.095  10.453   3.723  0.2344  0.0741 -0.0038
67244SOL    HW113711   3.035  10.520   3.755 -2.2581 -1.5111 -1.0679
67244SOL    HW213712   3.110  10.396   3.799 -0.6910 -0.2201 -0.0210
67245SOL     OW13713  13.247   4.000   8.700  0.0007 -0.0061  0.3026
67245SOL    HW113714  13.255   4.067   8.768  0.9351  0.5962 -0.3743
67245SOL    HW213715  13.161   4.016   8.662 -0.3234 -0.0316  1.0003
67246SOL     OW13716  11.618   7.695   5.176 -0.0110  0.1098  0.3309
67246SOL    HW113717  11.697   7.733   5.215  0.5652 -0.3794 -0.3095
67246SOL    HW213718  11.550   7.759   5.192 -0.1949 -0.7037  3.4317
67247SOL     OW13719   5.548   6.381  12.792 -0.1007 -0.1002 -0.0816
67247SOL    HW113720   5.507   6.384  12.705 -0.6779 -0.6725  0.1658
67247SOL    HW213721   5.485   6.425  12.849  0.3171  0.3491  0.0411
67248SOL     OW13722   2.618   5.544   8.483  0.2665  0.0642 -0.1217
67248SOL    HW113723   2.536   5.560   8.436  0.1847  0.0849  0.0276
67248SOL    HW213724   2.632   5.625   8.533  0.6299  0.2526 -0.5225
67249SOL     OW13725   0.017   1.811   6.301 -0.0095 -0.4150 -0.0114
67249SOL    HW113726   0.084   1.850   6.245 -1.4238  2.1796 -0.0641
67249SOL    HW213727  -0.031   1.752   6.243  0.8795 -0.6757 -0.5113
67250SOL     OW13728   4.964  10.430  13.999  0.4591  0.3044  0.4613
67250SOL    HW113729   4.994  10.340  14.001  2.2948  0.8460  3.4335
67250SOL    HW213730   5.015  10.472  13.930 -0.5128 -0.8748 -1.0434
67251SOL     OW13731   9.963   3.631   0.018  0.7383  0.2757  0.4107
67251SOL    HW113732  10.004   3.548  -0.005  0.8135  0.9107 -1.9837
67251SOL    HW213733   9.876   3.607   0.048  0.8524 -0.6854  0.0104
67252SOL     OW13734  13.892   7.228   3.656  0.0130  0.1551 -0.3126
67252SOL    HW113735  13.940   7.256   3.577 -0.8165 -0.8719 -1.2005
67252SOL    HW213736  13.933   7.146   3.681 -1.5581 -1.0133 -1.3912
67253SOL     OW13737   3.936   9.982   9.985  0.6236 -0.8852 -0.1298
67253SOL    HW113738   3.997   9.954  10.052 -0.0271 -0.0321  0.8475
67253SOL    HW213739   3.877   9.908   9.974 -0.1903 -0.4983  1.3697
67254SOL     OW13740   0.670   4.014   9.736 -0.0422  0.2893  0.3321
67254SOL    HW113741   0.731   3.987   9.667 -0.2042 -0.7780  0.5854
67254SOL    HW213742   0.641   4.101   9.710  1.1777  0.5999 -0.0700
67255SOL     OW13743   9.042   3.729  13.460 -0.3948  0.0345 -0.3884
67255SOL    HW113744   9.091   3.648  13.444  0.9500  0.5837  0.7052
67255SOL    HW213745   8.959   3.716  13.414 -0.6326 -2.3597  0.5239
67256SOL     OW13746   7.330  11.784   8.948 -0.3215 -0.1574 -0.2333
67256SOL    HW113747   7.306  11.859   9.002  1.9637  1.7277 -1.6117
67256SOL    HW213748   7.285  11.799   8.865  1.0431  0.4108 -0.9117
67257SOL     OW13749  11.322   6.024  12.695 -0.1661 -0.6611 -0.1112
67257SOL    HW113750  11.370   6.001  12.615  2.0900 -1.3969  1.3447
67257SOL    HW213751  11.249   5.962  12.698  0.0636 -1.0085 -1.3016
67258SOL     OW13752   1.376   0.820   8.286  0.1438  0.4016 -0.3136
67258SOL    HW113753   1.340   0.733   8.268  0.4182  0.1348  0.3777
67258SOL    HW213754   1.376   0.864   8.202 -0.2587 -0.1767 -0.6215
67259SOL     OW13755   3.151   5.878   2.824  0.2397  0.3704 -0.0181
67259SOL    HW113756   3.245   5.860   2.819  0.3685  1.2210 -0.7575
67259SOL    HW213757   3.145   5.969   2.853 -0.3801  0.0691  0.8597
67260SOL     OW13758  13.036   0.396   1.455 -0.3060  0.3754  0.1336
67260SOL    HW113759  13.031   0.441   1.371  1.4076 -3.1364 -2.0797
67260SOL    HW213760  13.073   0.461   1.515 -1.1698  2.8745 -1.8622
67261SOL     OW13761   3.608   2.431  13.401  0.1236  0.4997 -0.0489
67261SOL    HW113762   3.651   2.362  13.451  0.6241  1.5443  1.0010
67261SOL    HW213763   3.677   2.493  13.380 -0.4739  1.1185 -0.2398
67262SOL     OW13764   1.509   1.985  11.856  0.3508  0.9941 -0.6336
67262SOL    HW113765   1.577   1.972  11.789  0.1551 -0.5455 -0.5595
67262SOL    HW213766   1.457   1.905  11.853 -0.5660  1.5385  0.3471
67263SOL     OW13767   7.984  12.973   2.041 -0.0025 -0.2188 -0.0757
67263SOL    HW113768   8.001  12.949   1.950  0.2648 -0.4882  0.0452
67263SOL    HW213769   8.066  13.011   2.072 -0.4784  1.0637 -0.3251
67264SOL     OW13770   9.532   1.963   9.486 -0.0637  0.3924 -0.2365
67264SOL    HW113771   9.577   1.924   9.411  1.9637  1.3549  0.4029
67264SOL    HW213772   9.590   2.033   9.515 -1.7746  1.3769  1.0014
67265SOL     OW13773   4.779   0.158   0.757  0.5155 -0.4731  0.0809
67265SOL    HW113774   4.742   0.071   0.745  1.3634 -0.7052 -0.9669
67265SOL    HW213775   4.871   0.149   0.733  0.9852  0.3725  1.4438
67266SOL     OW13776  10.955   2.277   7.598  0.8174  0.6908 -0.3876
67266SOL    HW113777  10.909   2.242   7.521  0.3921 -0.0695  0.1883
67266SOL    HW213778  10.948   2.372   7.590 -0.6098  0.6041 -0.4870
67267SOL     OW13779   5.480   9.346  12.832 -0.6065 -0.1469  0.2165
67267SOL    HW113780   5.418   9.297  12.886  0.9592 -2.0633  0.3842
67267SOL    HW213781   5.563   9.299  12.841  0.8139  2.0785 -0.3224
67268SOL     OW13782   3.642   5.678   1.000  0.3326  0.7731  0.1483
67268SOL    HW113783   3.696   5.604   1.028  0.7471  0.1346 -2.1112
67268SOL    HW213784   3.569   5.639   0.953 -1.2778  1.7163  1.7460
67269SOL     OW13785   7.319  11.187   2.772  0.4427 -0.0157  0.2394
67269SOL    HW113786   7.273  11.211   2.691 -0.0653 -1.0193  0.2095
67269SOL    HW213787   7.253  11.194   2.841  0.5764 -0.2277  0.3913
67270SOL     OW13788   0.704  11.184   1.543 -0.1885 -0.4443  0.4073
67270SOL    HW113789   0.695  11.269   1.586  1.6314 -0.6679  1.3270
67270SOL    HW213790   0.699  11.120   1.614  1.2128 -0.9227  0.1201
67271SOL     OW13791  11.840  12.414   8.377  0.3877 -0.0166 -0.5311
67271SOL    HW113792  11.832  12.322   8.403 -0.3308  0.3202  0.4793
67271SOL    HW213793  11.919  12.416   8.323  0.9143 -1.0717  0.1612
67272SOL     OW13794   4.306   2.975  10.020 -0.3039  0.0004  0.7269
67272SOL    HW113795   4.393   2.957   9.983 -1.0164  1.3545 -1.8308
67272SOL    HW213796   4.308   2.934  10.106  1.1668 -4.4105 -1.1058
67273SOL     OW13797  11.059   8.073   7.064  0.0810  0.0583  0.0517
67273SOL    HW113798  11.105   8.150   7.096 -0.1539  0.7510 -1.1833
67273SOL    HW213799  11.066   8.080   6.968  0.9188 -1.9857 -0.0824
67274SOL     OW13800   4.633  12.231   6.000 -0.6411  0.2342 -0.0354
67274SOL    HW113801   4.626  12.327   6.002  1.1610  0.3836  0.3148
67274SOL    HW213802   4.549  12.201   6.035 -0.7634  1.7160  1.0817
67275SOL     OW13803   4.580   8.666   4.080  0.3372  0.1753  0.0229
67275SOL    HW113804   4.660   8.708   4.110  0.6911 -0.0730 -0.5770
67275SOL    HW213805   4.609   8.587   4.035 -0.0888  1.2039 -2.1713
67276SOL     OW13806   3.156   4.331  10.529 -0.4708 -0.1153 -0.1920
67276SOL    HW113807   3.175   4.261  10.467  2.4064 -0.7125  1.1930
67276SOL    HW213808   3.234   4.387  10.527 -1.4223  1.3246  0.9585
67277SOL     OW13809   2.383  10.991  11.848 -0.4207  0.3964 -0.1249
67277SOL    HW113810   2.379  11.064  11.786  1.5476  1.9082  1.3940
67277SOL    HW213811   2.472  10.956  11.837 -0.4209 -0.0104  1.0494
67278SOL     OW13812  10.531   2.412  11.953 -0.0665  0.2044 -0.2175
67278SOL    HW113813  10.464   2.376  11.895  1.2722 -0.3880 -1.4596
67278SOL    HW213814  10.507   2.380  12.040 -1.8305  0.6885 -0.5031
67279SOL     OW13815   0.644  12.706  10.993  0.4785 -0.9608 -0.5468
67279SOL    HW113816   0.702  12.670  10.926  1.2539 -1.2668  0.2681
67279SOL    HW213817   0.618  12.630  11.045 -2.1976 -1.1528 -1.9950
67280SOL     OW13818   3.165   9.305   6.956 -0.8844  0.2063 -0.8798
67280SOL    HW113819   3.076   9.335   6.975 -1.4163  0.4242 -3.3957
67280SOL    HW213820   3.216   9.332   7.032 -2.9874 -0.1993  0.7848
67281SOL     OW13821  13.344   1.246   0.489  0.1086 -0.4168  0.5054
67281SOL    HW113822  13.315   1.163   0.452 -1.1211  0.8623 -1.5754
67281SOL    HW213823  13.391   1.289   0.418 -2.2481  2.1013  0.3509
67282SOL     OW13824   5.899   2.597   4.575 -0.0431  0.2012 -0.6203
67282SOL    HW113825   5.858   2.679   4.603  0.4811 -0.3263  1.8862
67282SOL    HW213826   5.991   2.620   4.560  0.3704 -0.1066  1.2347
67283SOL     OW13827   7.530  12.580   6.468 -0.0286 -0.2043 -0.1597
67283SOL    HW113828   7.590  12.651   6.446 -1.2295  0.4728 -1.3781
67283SOL    HW213829   7.550  12.560   6.560  0.0780  1.9995  0.3641
67284SOL     OW13830  11.456   2.983   2.759 -0.1608  0.3400 -0.3379
67284SOL    HW113831  11.410   2.978   2.675  0.8312 -0.9628 -0.8437
67284SOL    HW213832  11.537   2.935   2.744  0.9327  1.7397  0.8154
67285SOL     OW13833   8.220   3.227  11.614 -0.0098 -0.2041 -0.7963
67285SOL    HW113834   8.137   3.274  11.617 -0.1966 -0.5417 -0.6049
67285SOL    HW213835   8.270   3.264  11.687 -0.4037 -0.7532 -0.2379
67286SOL     OW13836   7.141  10.679   6.384 -0.0246 -0.1997 -0.8566
67286SOL    HW113837   7.123  10.586   6.393 -1.2494 -0.0016 -1.1305
67286SOL    HW213838   7.189  10.702   6.464 -0.3325 -0.9160 -0.4570
67287SOL     OW13839   5.361   7.065   2.316  0.6142  0.1841  0.7517
67287SOL    HW113840   5.273   7.100   2.301  0.6266  0.3680  1.1144
67287SOL    HW213841   5.355   7.019   2.400  0.5956 -0.6975  0.2882
67288SOL     OW13842  13.411   9.464   2.006  0.1042 -0.3771 -0.2463
67288SOL    HW113843  13.403   9.490   1.915 -0.6690 -0.9681 -0.3590
67288SOL    HW213844  13.455   9.379   2.003  0.5661 -0.1479 -0.0318
67289SOL     OW13845   9.416  11.236   6.719 -0.1243 -0.0529 -0.2326
67289SOL    HW113846   9.328  11.272   6.729 -0.5034 -0.4598 -1.9061
67289SOL    HW213847   9.406  11.164   6.657  1.2986 -0.4712 -0.0078
67290SOL     OW13848  13.052   8.484  13.935  0.2284  0.5138  0.0220
67290SOL    HW113849  13.004   8.567  13.927  0.4791  0.7861  1.2319
67290SOL    HW213850  13.072   8.460  13.844 -2.9678 -0.0821 -0.6386
67291SOL     OW13851  11.869  10.630   6.800 -0.1350 -0.3355  0.0818
67291SOL    HW113852  11.787  10.656   6.843 -1.1034 -2.3947 -0.4286
67291SOL    HW213853  11.889  10.703   6.741 -2.0924 -0.1430 -0.4178
67292SOL     OW13854  13.213   6.393   6.916 -0.2043 -0.5632  0.7038
67292SOL    HW113855  13.297   6.432   6.894 -0.9880  0.4565 -0.6199
67292SOL    HW213856  13.148   6.453   6.879 -1.5210 -1.3362  1.6675
67293SOL     OW13857  12.205  12.111   8.599  0.3669 -0.0783  0.2841
67293SOL    HW113858  12.296  12.137   8.612  0.6792 -0.5407 -0.9192
67293SOL    HW213859  12.157  12.194   8.596  1.1179  0.3251 -1.6952
67294SOL     OW13860   1.406   4.880  13.003 -0.2151  0.0556  0.5198
67294SOL    HW113861   1.371   4.795  13.031 -1.4214 -0.4796 -2.3139
67294SOL    HW213862   1.329   4.936  12.996 -0.0309  0.1150 -1.6569
67295SOL     OW13863  10.889   6.813   8.472 -0.4007  0.2918  0.0413
67295SOL    HW113864  10.921   6.723   8.477 -1.2224 -0.0525 -0.7492
67295SOL    HW213865  10.959   6.865   8.513  0.4288 -0.6169 -0.1763
67296SOL     OW13866   1.215   4.437  13.958 -0.1403 -0.1295 -0.2212
67296SOL    HW113867   1.271   4.513  13.942 -0.8987  0.5528  0.2577
67296SOL    HW213868   1.274   4.362  13.950  0.3510  0.3948 -2.0331
67297SOL     OW13869   3.421  11.600  12.915 -0.0276  0.1863  0.4488
67297SOL    HW113870   3.329  11.613  12.893  0.2223 -0.0382 -0.8496
67297SOL    HW213871   3.436  11.656  12.991 -1.5742 -0.8482  1.5856
67298SOL     OW13872   7.161   2.798   1.356 -0.2608  0.2616 -0.0554
67298SOL    HW113873   7.202   2.742   1.289 -0.5102 -1.0803  0.8881
67298SOL    HW213874   7.235   2.834   1.405 -0.1173  0.3997 -0.3653
67299SOL     OW13875   7.499   1.894   0.665  0.3603 -0.1486 -0.1705
67299SOL    HW113876   7.507   1.801   0.687  1.1183 -0.3198 -1.0660
67299SOL    HW213877   7.518   1.897   0.571 -1.7409  0.6409 -0.6289
67300SOL     OW13878   6.202  11.415  12.022 -0.7230  0.2354 -0.5711
67300SOL    HW113879   6.229  11.437  12.112  0.2789 -0.0285 -0.7893
67300SOL    HW213880   6.192  11.500  11.979  0.2175  0.3513 -0.5927
67301SOL     OW13881   5.798   4.841  10.827  0.1237 -0.0088 -0.0969
67301SOL    HW113882   5.791   4.841  10.922 -0.5675 -0.4508 -0.1424
67301SOL    HW213883   5.708   4.832  10.796  0.2866  0.6708 -0.7994
67302SOL     OW13884  12.270   6.350   4.159  0.5159 -0.4580 -0.4997
67302SOL    HW113885  12.291   6.362   4.067  1.0994  1.0047 -0.2020
67302SOL    HW213886  12.321   6.273   4.186  1.0729 -0.3252 -1.1571
67303SOL     OW13887   7.135  11.521  10.696 -0.3830  0.1427 -0.1883
67303SOL    HW113888   7.181  11.549  10.775 -1.5969  0.0125  0.6045
67303SOL    HW213889   7.203  11.487  10.638  0.2624 -3.0375  2.1625
67304SOL     OW13890   5.551  10.051  10.967 -0.0267  0.1482  0.0944
67304SOL    HW113891   5.504   9.971  10.993 -1.0730  0.2098 -1.4529
67304SOL    HW213892   5.540  10.111  11.041 -0.8828 -0.4677  0.4825
67305SOL     OW13893   2.006   0.758   5.256 -0.1340 -0.1901 -0.2874
67305SOL    HW113894   2.009   0.852   5.273 -0.9396  0.4908 -3.2288
67305SOL    HW213895   2.089   0.740   5.212 -0.9260 -0.2963 -1.8125
67306SOL     OW13896  10.178  12.803  12.394 -0.5955  0.5539 -0.3089
67306SOL    HW113897  10.251  12.784  12.335 -1.8058  1.0346 -2.0043
67306SOL    HW213898  10.140  12.884  12.361  0.6287  2.7319  3.0844
67307SOL     OW13899  11.960   5.508   3.563 -0.0712 -0.2796 -0.6867
67307SOL    HW113900  11.981   5.431   3.511  0.9084 -1.0075  0.7277
67307SOL    HW213901  12.014   5.578   3.526 -1.4438 -0.0533 -2.3971
67308SOL     OW13902  13.390   5.942   5.429  0.2982  0.3065  0.2713
67308SOL    HW113903  13.438   5.962   5.509  2.1980  0.3792 -0.8173
67308SOL    HW213904  13.457   5.940   5.360 -1.1721 -0.3175 -1.2346
67309SOL     OW13905  10.445   6.347   0.378  0.3308 -0.7453 -0.3724
67309SOL    HW113906  10.483   6.263   0.353  0.8397 -0.5561 -0.2509
67309SOL    HW213907  10.496   6.375   0.454  0.5268 -0.0796 -0.7339
67310SOL     OW13908   1.673   9.402  12.357  0.2631 -0.1838  0.6616
67310SOL    HW113909   1.594   9.359  12.324  0.7200 -0.6319  0.1350
67310SOL    HW213910   1.689   9.474  12.296  0.8616 -0.7463  0.1447
67311SOL     OW13911   1.013   4.170  11.223 -0.5891  0.3087  0.2311
67311SOL    HW113912   1.078   4.239  11.213  1.3348 -1.2990  0.9018
67311SOL    HW213913   1.023   4.116  11.145 -2.6366  1.1482 -0.6864
67312SOL     OW13914  11.525   6.569   9.928 -0.0903 -0.0128 -0.2463
67312SOL    HW113915  11.481   6.606   9.851 -0.5653 -0.8639 -0.3892
67312SOL    HW213916  11.580   6.641   9.960  1.9476 -0.3171 -2.7401
67313SOL     OW13917  14.004  11.020   5.148 -0.1425 -0.1444  0.2899
67313SOL    HW113918  13.981  10.950   5.210  1.7135  1.0737  2.4868
67313SOL    HW213919  14.086  10.991   5.109  0.9469  1.0063  1.6471
67314SOL     OW13920   7.142   8.616   5.238 -0.2806 -0.2628  0.2414
67314SOL    HW113921   7.147   8.696   5.290  2.2501 -0.6631  0.7279
67314SOL    HW213922   7.194   8.635   5.160  0.5341 -1.4695  0.4587
67315SOL     OW13923  10.254   4.238   6.990 -0.2292  0.3525 -0.1385
67315SOL    HW113924  10.345   4.252   7.016 -0.3936  2.4589 -0.5250
67315SOL    HW213925  10.220   4.326   6.970 -2.1962 -0.4243 -0.5195
67316SOL     OW13926   6.681   2.930  13.199  0.2002 -0.3987 -0.3411
67316SOL    HW113927   6.693   3.019  13.233  0.7317 -1.6055  3.0197
67316SOL    HW213928   6.757   2.916  13.142 -0.2573  1.4603 -1.5110
67317SOL     OW13929   8.831   1.150  13.322 -0.2266 -0.1062  0.1952
67317SOL    HW113930   8.785   1.180  13.244  2.3226 -1.3772 -1.9751
67317SOL    HW213931   8.788   1.067  13.345 -0.7413  0.0719 -0.1220
67318SOL     OW13932  12.873   0.130   3.576 -0.3483  0.1752  0.0010
67318SOL    HW113933  12.797   0.091   3.533 -0.7679  0.9834 -0.0070
67318SOL    HW213934  12.948   0.084   3.540 -0.8251 -0.5510 -0.0822
67319SOL     OW13935   5.312   3.723   1.661 -0.2674  0.0719 -0.4497
67319SOL    HW113936   5.402   3.757   1.661 -0.2238  0.0386 -1.9357
67319SOL    HW213937   5.260   3.795   1.625 -0.6080 -0.3881 -0.8957
67320SOL     OW13938  12.994   1.336   2.573 -0.3046  0.2434  0.5529
67320SOL    HW113939  13.039   1.403   2.522 -0.6068  0.7954  0.9853
67320SOL    HW213940  12.961   1.273   2.509 -1.0765  1.1630  0.0201
67321SOL     OW13941   0.429  11.538  13.448  0.3783  0.1922  0.1134
67321SOL    HW113942   0.503  11.510  13.393  0.6190  0.3017  0.3764
67321SOL    HW213943   0.468  11.549  13.535 -0.6785 -3.5901  1.2641
67322SOL     OW13944   3.120  13.480   8.599  0.4160  0.0743  0.9061
67322SOL    HW113945   3.055  13.459   8.532  0.0334 -1.9836  1.8487
67322SOL    HW213946   3.201  13.492   8.550 -0.2786  0.8342 -0.1125
67323SOL     OW13947  10.869   6.263  11.363  0.4702  0.3912  0.1855
67323SOL    HW113948  10.885   6.357  11.376 -1.0809  0.8560 -0.9608
67323SOL    HW213949  10.795   6.260  11.302  1.0044 -1.5971 -0.4046
67324SOL     OW13950   6.091  10.259  13.445  0.2030  0.1454  0.7768
67324SOL    HW113951   6.077  10.352  13.463 -1.0631 -0.4094  3.0118
67324SOL    HW213952   6.004  10.225  13.424  0.6386 -0.5728  0.0363
67325SOL     OW13953   2.460   6.074   1.598  0.1511 -0.3705  0.1172
67325SOL    HW113954   2.377   6.076   1.550 -0.0463  0.7615  0.4713
67325SOL    HW213955   2.505   5.997   1.564 -0.5504 -0.3501 -0.9223
67326SOL     OW13956   3.769   2.088   4.713 -0.0806 -0.1809 -0.0490
67326SOL    HW113957   3.854   2.132   4.719 -0.2974  0.1122  1.2430
67326SOL    HW213958   3.728   2.126   4.635  0.7564  0.0622 -0.3875
67327SOL     OW13959   6.509  10.588   6.376  0.1480 -0.7115  0.7817
67327SOL    HW113960   6.534  10.665   6.325  0.2669 -1.9764 -1.1728
67327SOL    HW213961   6.422  10.608   6.409 -0.1460 -0.0386 -0.3559
67328SOL     OW13962   1.621  11.281   1.000  0.1573  0.8796 -0.3769
67328SOL    HW113963   1.539  11.311   0.963  0.2379 -0.3555 -1.6232
67328SOL    HW213964   1.610  11.292   1.095 -1.6873  0.1423 -0.4682
67329SOL     OW13965   0.254   6.193   2.408 -0.7079 -0.2325  0.3745
67329SOL    HW113966   0.213   6.279   2.406 -0.0326  0.0684 -0.5994
67329SOL    HW213967   0.345   6.210   2.431  0.0052 -0.4327 -2.0707
67330SOL     OW13968  11.098   0.538  13.550  0.2414 -0.0809 -0.0117
67330SOL    HW113969  11.155   0.543  13.626  2.1155 -1.5284 -1.2134
67330SOL    HW213970  11.157   0.550  13.475 -1.5048  1.1827 -1.2523
67331SOL     OW13971   2.203   1.042  11.784  0.8136  0.2547 -0.7334
67331SOL    HW113972   2.199   0.947  11.794 -3.2660  0.4678  2.2182
67331SOL    HW213973   2.142   1.062  11.714  0.8763  0.7486 -0.6507
67332SOL     OW13974   3.102  11.956   4.425 -0.2191  0.6175  0.0932
67332SOL    HW113975   3.147  12.033   4.390  0.3621  0.5948  0.7549
67332SOL    HW213976   3.076  11.983   4.513 -0.0620  0.0770  0.3051
67333SOL     OW13977   3.846   5.485  13.653  0.2399 -0.8025 -0.1486
67333SOL    HW113978   3.785   5.454  13.587  1.0376 -0.9935 -0.8108
67333SOL    HW213979   3.831   5.580  13.656  0.2102 -0.7889 -0.6212
67334SOL     OW13980   0.826   3.653   5.255  0.4024 -0.2789  0.4367
67334SOL    HW113981   0.773   3.718   5.302  2.0395  1.0815  0.4903
67334SOL    HW213982   0.776   3.634   5.176 -0.3510  0.6802  0.6582
67335SOL     OW13983   3.928   5.600   8.192  0.0719  0.6284 -0.3676
67335SOL    HW113984   3.873   5.676   8.211 -0.9384  0.0299 -0.7677
67335SOL    HW213985   3.950   5.609   8.100 -0.8457 -0.0308 -0.6675
67336SOL     OW13986   0.356  12.744   0.198 -0.5733  0.0970 -0.0644
67336SOL    HW113987   0.324  12.832   0.218  1.2608  0.4976  1.3834
67336SOL    HW213988   0.377  12.706   0.283  0.4366 -1.0215 -0.7769
67337SOL     OW13989   8.814   5.663   8.936 -0.3614  0.5295  0.0068
67337SOL    HW113990   8.902   5.700   8.942  0.1323 -0.4331 -1.0071
67337SOL    HW213991   8.823   5.574   8.971 -0.5446 -0.1465 -1.5798
67338SOL     OW13992   2.132   0.440   2.137 -0.2825 -0.1785 -0.1388
67338SOL    HW113993   2.192   0.424   2.210 -1.4222 -3.1873  0.2870
67338SOL    HW213994   2.062   0.493   2.174  0.1922  0.1006  0.3746
67339SOL     OW13995  12.897   6.243  10.595  0.2001 -0.3398  0.1727
67339SOL    HW113996  12.925   6.170  10.540 -0.1649 -1.1635  1.0567
67339SOL    HW213997  12.842   6.297  10.538 -0.3458 -1.2944 -0.2159
67340SOL     OW13998  13.550   7.265   5.754 -0.1101 -0.2652  0.4488
67340SOL    HW113999  13.576   7.294   5.667  0.9597 -0.4222  0.6994
67340SOL    HW214000  13.600   7.184   5.768  2.3914  1.4796  2.5040
67341SOL     OW14001   7.641  11.419  12.536 -0.7119  0.0025 -0.1104
67341SOL    HW114002   7.666  11.332  12.566 -0.7132 -0.9291 -2.5622
67341SOL    HW214003   7.551  11.410  12.507 -1.0582  1.1160  0.5582
67342SOL     OW14004  10.782   1.936   4.909  0.5748  0.0589 -0.0595
67342SOL    HW114005  10.831   1.958   4.988  0.7777  0.0010 -0.1668
67342SOL    HW214006  10.695   1.912   4.940  0.2485  1.2866  0.0361
67343SOL     OW14007   6.510  11.395   2.019  0.2595 -0.0206 -0.3195
67343SOL    HW114008   6.429  11.445   2.028  0.3784 -0.0915  1.8856
67343SOL    HW214009   6.580  11.458   2.040  0.4832 -0.7549  1.3440
67344SOL     OW14010  10.421   2.579   8.071 -0.0299  0.0713 -0.7980
67344SOL    HW114011  10.368   2.635   8.015 -1.7705 -0.8532 -0.1725
67344SOL    HW214012  10.376   2.494   8.069 -0.0345 -0.0728  1.7466
67345SOL     OW14013   1.380   4.429   5.262 -0.1953  0.2210 -0.1764
67345SOL    HW114014   1.412   4.345   5.228  3.4026  0.4373  2.1313
67345SOL    HW214015   1.322   4.405   5.335 -1.0757 -0.2030 -0.9926
67346SOL     OW14016   4.027   7.377   3.700 -0.2825  0.4179  0.3362
67346SOL    HW114017   3.959   7.382   3.633 -0.2578  0.8475  0.3415
67346SOL    HW214018   4.011   7.293   3.744 -0.7458  0.4687  0.2725
67347SOL     OW14019   0.328   6.492   5.995  0.3469  0.4367  0.0245
67347SOL    HW114020   0.395   6.531   6.051  0.4755  1.6689 -0.9482
67347SOL    HW214021   0.376   6.465   5.917  0.3854 -2.3258  0.8974
67348SOL     OW14022  14.040   0.318   5.482  0.1047  0.6067  0.1335
67348SOL    HW114023  13.948   0.292   5.483  0.3214 -0.1510  0.2874
67348SOL    HW214024  14.053   0.357   5.395 -0.5137  1.2987  0.3408
67349SOL     OW14025  12.085  14.027   9.568 -0.4576 -0.0711  0.8520
67349SOL    HW114026  12.090  13.931   9.561 -1.0097  0.0099 -2.0199
67349SOL    HW214027  12.014  14.051   9.508  1.3885  2.2860 -0.5450
67350SOL     OW14028   1.754   3.835   8.857  0.0934  0.0026 -0.4142
67350SOL    HW114029   1.828   3.838   8.797 -1.3089 -3.1072 -2.5887
67350SOL    HW214030   1.678   3.819   8.801 -1.7625 -0.1824  1.9717
67351SOL     OW14031   6.221   3.994   0.980  0.6972  0.3167  0.3162
67351SOL    HW114032   6.200   4.077   0.937  2.7570  0.7149 -0.0519
67351SOL    HW214033   6.215   3.929   0.910  0.0387  0.3016  0.3822
67352SOL     OW14034   3.295   6.291  11.899  0.1626 -0.4891 -0.3013
67352SOL    HW114035   3.349   6.269  11.975 -0.0934 -1.5866 -0.4210
67352SOL    HW214036   3.286   6.386  11.903  2.8502 -0.1290 -0.7567
67353SOL     OW14037   4.935  13.515  13.416 -0.3771 -0.4563 -0.1823
67353SOL    HW114038   4.903  13.427  13.398  1.8934 -1.2906 -0.4295
67353SOL    HW214039   4.894  13.569  13.348 -1.5874 -1.3446 -0.1922
67354SOL     OW14040   5.735  11.386  11.841  0.0011  0.0527 -0.1385
67354SOL    HW114041   5.720  11.352  11.753  0.1703 -2.4645  0.7319
67354SOL    HW214042   5.820  11.349  11.868 -2.0337 -3.1194  2.7074
67355SOL     OW14043   5.177   9.630   1.957 -0.4432  0.5606 -0.3898
67355SOL    HW114044   5.268   9.600   1.949  0.2921  1.3945  2.9720
67355SOL    HW214045   5.169   9.701   1.894  1.1786  0.3280 -0.8999
67356SOL     OW14046  11.870   8.781  10.629 -0.2822  0.6314  0.0391
67356SOL    HW114047  11.892   8.698  10.672 -3.7560  0.4195  1.8407
67356SOL    HW214048  11.888   8.848  10.695 -3.1266  0.5617  1.0651
67357SOL     OW14049   9.061  12.912   7.343 -0.0749 -0.2947  0.3821
67357SOL    HW114050   9.120  12.837   7.354  0.9032  0.4449  0.2400
67357SOL    HW214051   9.119  12.987   7.329 -1.0202  0.6303  1.2998
67358SOL     OW14052   9.192   3.773  10.667  0.7104 -0.0988 -0.0477
67358SOL    HW114053   9.193   3.726  10.583 -4.0537 -2.0991  0.6660
67358SOL    HW214054   9.116   3.831  10.661  1.7767  1.6514  2.0429
67359SOL     OW14055   5.906   2.450  12.752 -0.1991  0.0604  0.3225
67359SOL    HW114056   5.884   2.405  12.834  0.6259 -3.1075 -1.0776
67359SOL    HW214057   5.826   2.445  12.700  0.3972 -1.4656 -0.5039
67360SOL     OW14058   2.929   6.317   5.277  0.4395  0.2178  0.0022
67360SOL    HW114059   3.004   6.294   5.223  1.4039 -1.7379  2.0048
67360SOL    HW214060   2.855   6.272   5.236  0.9386 -0.3148 -0.3351
67361SOL     OW14061   5.425   8.168   4.563 -0.3019  0.4932 -0.2023
67361SOL    HW114062   5.440   8.245   4.619  1.5811 -0.7747  1.1202
67361SOL    HW214063   5.387   8.103   4.622 -1.4288  0.2057 -1.2097
67362SOL     OW14064   4.704   1.059   0.623 -0.0359  0.6479  0.0229
67362SOL    HW114065   4.730   1.105   0.703  0.6167  0.2871  0.0282
67362SOL    HW214066   4.786   1.024   0.589 -0.6796 -1.8613  0.8604
67363SOL     OW14067   1.692  13.128   7.496 -0.3528  0.5578  0.3150
67363SOL    HW114068   1.707  13.034   7.487  0.2336  0.7759 -1.2988
67363SOL    HW214069   1.597  13.135   7.510 -0.3820 -0.2599  0.6240
67364SOL     OW14070   4.314  11.130   3.628 -0.2936 -0.3974  0.2157
67364SOL    HW114071   4.269  11.045   3.621 -1.2695  0.1616 -0.4921
67364SOL    HW214072   4.385  11.124   3.564 -0.1501 -0.7988  0.4036
67365SOL     OW14073   2.728  10.798   0.154 -0.0128  0.3706 -0.1738
67365SOL    HW114074   2.802  10.755   0.110  0.6161  0.7124  0.5421
67365SOL    HW214075   2.761  10.885   0.177 -0.6387  0.5221  0.1586
67366SOL     OW14076   4.754   8.229  13.658  0.5802 -0.2290 -0.3365
67366SOL    HW114077   4.839   8.257  13.626  0.2339  1.7671  0.3422
67366SOL    HW214078   4.694   8.300  13.633 -0.4317 -0.4842  1.1887
67367SOL     OW14079   6.148   6.445  12.917  0.0595 -0.3648  0.1185
67367SOL    HW114080   6.066   6.494  12.921 -0.3773 -1.1447  1.1492
67367SOL    HW214081   6.204   6.497  12.860 -0.5889  1.0273  0.7070
67368SOL     OW14082  11.255   0.557   1.018  0.5872 -0.0701  0.2284
67368SOL    HW114083  11.210   0.631   0.977 -1.2096 -0.7357  0.8878
67368SOL    HW214084  11.228   0.561   1.110  0.3692 -1.5866  0.2525
67369SOL     OW14085   1.688   4.069   0.283 -0.4301 -0.2949  0.5397
67369SOL    HW114086   1.663   4.029   0.367  0.6011 -0.6135  0.7035
67369SOL    HW214087   1.664   4.161   0.293  0.0737 -0.2420  1.3473
67370SOL     OW14088   0.767   8.351   1.066  0.1112 -0.0791  0.4889
67370SOL    HW114089   0.685   8.369   1.112 -0.6937  1.5689 -1.4511
67370SOL    HW214090   0.835   8.381   1.127 -0.7617 -0.2738  1.6013
67371SOL     OW14091   8.999   6.579  11.423  0.0224  0.0232  0.1293
67371SOL    HW114092   8.980   6.605  11.513 -0.8680 -1.6869  0.4700
67371SOL    HW214093   8.963   6.491  11.414  0.2428  0.0692 -1.8578
67372SOL     OW14094   6.665   6.192   3.718  0.1464  0.4317 -0.7313
67372SOL    HW114095   6.648   6.226   3.631  1.5192  1.0702 -0.7847
67372SOL    HW214096   6.675   6.097   3.705 -2.3468  0.1072 -0.7934
67373SOL     OW14097   2.164   8.827  11.693 -0.1180  0.5072 -0.3360
67373SOL    HW114098   2.116   8.775  11.757  1.4243  1.5242  1.7991
67373SOL    HW214099   2.236   8.771  11.664 -1.3653 -0.3040 -2.0125
67374SOL     OW14100   4.455   6.905  12.621 -0.6819 -0.3756 -0.6541
67374SOL    HW114101   4.451   6.893  12.716 -0.7335 -0.2225 -0.6368
67374SOL    HW214102   4.548   6.912  12.602 -0.7348  2.3461 -0.2624
67375SOL     OW14103   1.978   0.817   9.044 -0.0456  0.1966 -0.0606
67375SOL    HW114104   1.913   0.756   9.080 -0.0153 -0.0504 -0.4216
67375SOL    HW214105   1.941   0.844   8.960  1.5166 -2.0394 -1.6155
67376SOL     OW14106  10.427   0.987  13.146  0.0688  0.7483 -0.4177
67376SOL    HW114107  10.406   0.901  13.183  0.7279  1.0269  0.6330
67376SOL    HW214108  10.344   1.035  13.150  0.2860  1.0097  1.3860
67377SOL     OW14109   9.604   8.416   4.797 -0.3484  0.2285  0.1417
67377SOL    HW114110   9.644   8.330   4.807  0.2752  0.2227 -1.8490
67377SOL    HW214111   9.520   8.398   4.755 -0.6036  0.5236  0.5294
67378SOL     OW14112  14.015   8.883   1.273  0.3917  0.0106 -0.1315
67378SOL    HW114113  14.108   8.866   1.284  0.5550  0.9957  0.1790
67378SOL    HW214114  14.005   8.976   1.294 -0.6601 -0.0762 -0.1664
67379SOL     OW14115  12.898   7.000   0.836 -0.4456 -0.0711  0.0561
67379SOL    HW114116  12.947   6.923   0.810 -0.9316  0.3008 -2.2110
67379SOL    HW214117  12.807   6.969   0.844 -0.5297  0.1158 -0.1600
67380SOL     OW14118  11.846  13.913   2.810  0.0151  0.7237 -0.3256
67380SOL    HW114119  11.916  13.976   2.796 -0.0831  0.9726  0.2848
67380SOL    HW214120  11.782  13.959   2.864  0.5408 -0.3004  1.2238
67381SOL     OW14121   6.557  10.074   0.057  0.4251 -0.1110  0.4462
67381SOL    HW114122   6.470  10.040   0.037  1.0660 -0.4601 -2.0275
67381SOL    HW214123   6.546  10.169   0.055 -0.0191 -0.1515  0.8007
67382SOL     OW14124   9.970  10.544  11.925 -0.0446  0.1311 -0.2197
67382SOL    HW114125  10.033  10.547  11.853 -0.5831 -2.0854 -0.8533
67382SOL    HW214126  10.008  10.600  11.993  1.4880  0.6184 -1.4305
67383SOL     OW14127   3.225  13.228   5.612  0.4455 -0.0430  0.7539
67383SOL    HW114128   3.217  13.307   5.559  0.4408 -0.0652  0.7208
67383SOL    HW214129   3.165  13.241   5.685 -0.8584 -0.7173 -0.1359
67384SOL     OW14130   9.009   9.725   0.147  0.1254 -0.5368 -0.6475
67384SOL    HW114131   8.990   9.706   0.055 -1.8132  0.0883 -0.4324
67384SOL    HW214132   9.042   9.642   0.183  0.8429 -0.8019 -1.8700
67385SOL     OW14133  11.846  12.260   9.746  0.3177  0.1902  0.4569
67385SOL    HW114134  11.924  12.313   9.759  0.6500  0.0507 -0.8268
67385SOL    HW214135  11.827  12.224   9.833  0.0307  2.4231  1.3744
67386SOL     OW14136   6.939   0.416   7.636 -0.1799 -0.1269 -0.0360
67386SOL    HW114137   6.904   0.499   7.671 -1.8308 -1.4635  1.6886
67386SOL    HW214138   6.973   0.370   7.713  0.7352 -1.0570 -0.9702
67387SOL     OW14139   5.390   5.600   3.485 -0.8360 -0.1391  0.2778
67387SOL    HW114140   5.447   5.527   3.510 -1.6006 -1.8484 -2.4834
67387SOL    HW214141   5.303   5.573   3.514 -1.1571 -0.4917 -0.9507
67388SOL     OW14142   5.638  11.736   1.128  0.3711 -0.2300  0.3355
67388SOL    HW114143   5.572  11.741   1.059  0.4501  0.3127  0.2990
67388SOL    HW214144   5.696  11.665   1.100 -0.5932 -1.1979  0.7277
67389SOL     OW14145   3.510  12.051  10.136  0.4957  0.4145 -0.2040
67389SOL    HW114146   3.472  12.057  10.048 -0.3043 -2.2464 -0.1312
67389SOL    HW214147   3.487  12.134  10.177  1.1316  1.8591 -2.5543
67390SOL     OW14148   0.951  11.119   4.961  0.2955 -0.3256 -0.0481
67390SOL    HW114149   1.031  11.123   4.909  1.1626 -1.0161  1.1675
67390SOL    HW214150   0.953  11.198   5.015 -0.3149  0.1071 -0.6464
67391SOL     OW14151   2.663   8.761  13.050 -0.7312  0.3717  0.0347
67391SOL    HW114152   2.654   8.667  13.032 -0.5386  0.4256 -0.3539
67391SOL    HW214153   2.630   8.771  13.139 -1.8103  0.1208 -0.3198
67392SOL     OW14154   9.496   4.574   9.794  0.0900 -0.1043  0.2020
67392SOL    HW114155   9.590   4.593   9.784  0.0787  1.0264  1.8772
67392SOL    HW214156   9.467   4.634   9.863 -2.1622  0.4509 -1.1588
67393SOL     OW14157   6.883   8.751  10.925  0.2870 -0.1244 -0.0095
67393SOL    HW114158   6.818   8.718  10.864  0.1398  1.4541 -0.7601
67393SOL    HW214159   6.837   8.817  10.976  0.8041 -0.3625  0.7800
67394SOL     OW14160  11.297   9.611  12.487  0.0794 -0.0005 -0.0060
67394SOL    HW114161  11.383   9.651  12.499 -0.1045  0.2245  0.5802
67394SOL    HW214162  11.294   9.540  12.551  0.3875 -0.9362 -1.0084
67395SOL     OW14163   9.585   3.157   3.448  0.1580 -0.2453  0.3072
67395SOL    HW114164   9.659   3.206   3.412 -0.8675 -0.1615 -1.8539
67395SOL    HW214165   9.620   3.114   3.526  2.4692 -0.1869 -0.6336
67396SOL     OW14166   1.496   5.345  12.094 -0.3378  0.0964  0.0427
67396SOL    HW114167   1.567   5.409  12.098 -0.2654  0.0138  0.1003
67396SOL    HW214168   1.419   5.392  12.125 -0.3202  0.2031 -0.0772
67397SOL     OW14169  10.007   1.501  12.990  0.6307  0.3901  0.0573
67397SOL    HW114170   9.928   1.479  12.939  0.2328  1.4094  0.2040
67397SOL    HW214171  10.079   1.483  12.930  0.1273  2.5441 -1.3012
67398SOL     OW14172  12.787  14.013   3.155  0.5957  0.0603  0.4371
67398SOL    HW114173  12.846  13.938   3.149  0.0456 -0.2808 -1.0765
67398SOL    HW214174  12.837  14.079   3.204  1.9538 -0.4748 -0.1764
67399SOL     OW14175  13.750   0.028  10.691 -0.2569 -0.3609  0.0759
67399SOL    HW114176  13.826  -0.003  10.643 -1.8840 -1.0984 -2.2068
67399SOL    HW214177  13.678   0.022  10.628 -2.3813 -0.5701  2.3678
67400SOL     OW14178  12.463   7.427   7.866  0.8203  0.0654 -0.6899
67400SOL    HW114179  12.499   7.356   7.918  1.5385  0.7846 -0.1706
67400SOL    HW214180  12.370   7.407   7.858  0.6664 -0.0177  0.9686
67401SOL     OW14181  11.751  10.707  10.536 -0.0145 -0.1468 -0.0925
67401SOL    HW114182  11.837  10.739  10.565  0.9183 -1.7391 -1.0186
67401SOL    HW214183  11.704  10.690  10.618  1.4171 -1.5039  0.4887
67402SOL     OW14184   6.669   1.344   4.581 -0.1226 -0.0078 -0.5232
67402SOL    HW114185   6.732   1.404   4.541 -1.3185  1.2124 -0.6827
67402SOL    HW214186   6.695   1.339   4.673  0.2939  0.3539 -0.6170
67403SOL     OW14187   3.978   0.166   0.557 -0.3184  0.3038 -0.9199
67403SOL    HW114188   3.921   0.203   0.490 -0.3410 -0.3525 -1.2730
67403SOL    HW214189   4.040   0.111   0.509 -0.8123 -0.7842 -0.3627
67404SOL     OW14190   4.191   3.152  10.981 -0.3961 -0.5902  0.4278
67404SOL    HW114191   4.249   3.162  11.057 -0.1060  2.5001 -0.0445
67404SOL    HW214192   4.152   3.239  10.969 -1.0813 -1.1705 -2.4411
67405SOL     OW14193  13.662  12.038  12.558  0.1458  0.3352  0.4587
67405SOL    HW114194  13.667  12.109  12.493  0.1606  1.5059  1.7027
67405SOL    HW214195  13.652  11.959  12.505 -0.4100  1.3004 -0.9614
67406SOL     OW14196  13.995   1.707   0.697 -0.2493 -0.0372  0.1746
67406SOL    HW114197  13.975   1.659   0.616  1.0327 -1.2582  0.5487
67406SOL    HW214198  14.005   1.798   0.669 -3.5041  0.2495 -0.4377
67407SOL     OW14199  11.572   2.224  10.393  0.0773 -0.0781  0.4301
67407SOL    HW114200  11.658   2.204  10.430 -0.3137 -1.2710  0.7561
67407SOL    HW214201  11.511   2.172  10.445 -1.0522  1.9165  1.2211
67408SOL     OW14202   0.312   5.340   8.889 -0.3625  0.0559 -0.3765
67408SOL    HW114203   0.283   5.394   8.815 -0.8244  0.3136 -0.0100
67408SOL    HW214204   0.302   5.250   8.858 -1.3715  0.1387 -0.3354
67409SOL     OW14205   6.100  12.826  10.482 -0.1397 -0.1236  0.4178
67409SOL    HW114206   6.055  12.901  10.443  2.0687  0.6975 -0.6770
67409SOL    HW214207   6.069  12.750  10.432 -1.1493  0.2515  0.4536
67410SOL     OW14208  10.718  13.762   6.462 -0.1009  0.0263  0.0369
67410SOL    HW114209  10.692  13.841   6.509 -0.8473  0.4724 -1.0858
67410SOL    HW214210  10.709  13.692   6.526  1.2428  0.9114  1.2732
67411SOL     OW14211   2.722   0.622   2.800 -0.1099 -0.6335  0.3308
67411SOL    HW114212   2.688   0.710   2.817  0.2008 -0.3125 -0.6302
67411SOL    HW214213   2.762   0.595   2.882  1.5497  0.9342  0.1038
67412SOL     OW14214   0.559  11.983   9.474 -0.5978 -0.0237 -0.5251
67412SOL    HW114215   0.622  12.055   9.471  0.1456 -0.5979  0.5774
67412SOL    HW214216   0.604  11.910   9.432 -2.1812  0.6778 -3.7584
67413SOL     OW14217   6.163   9.539  12.508  0.3795  0.4049  0.6493
67413SOL    HW114218   6.075   9.562  12.538 -0.1285 -1.0507  0.3390
67413SOL    HW214219   6.188   9.611  12.450  0.8965  2.7011  3.4534
67414SOL     OW14220   5.841   9.051  12.177 -0.0567  0.3592 -0.6326
67414SOL    HW114221   5.887   9.115  12.233 -1.3759  0.0915  0.8291
67414SOL    HW214222   5.847   8.969  12.225  0.1747 -0.2623 -1.7005
67415SOL     OW14223   1.186   8.386  13.028  0.1608  0.5180 -0.4811
67415SOL    HW114224   1.257   8.434  13.070  0.0804 -0.0401  0.3126
67415SOL    HW214225   1.107   8.409  13.078 -0.3732  1.7230 -1.8118
67416SOL     OW14226   4.083   3.443   5.494 -0.2956 -0.4811 -0.3159
67416SOL    HW114227   4.168   3.487   5.494 -0.1638 -0.6515  1.5069
67416SOL    HW214228   4.095   3.368   5.435 -0.0943  1.0743 -2.3369
67417SOL     OW14229  10.636   9.347   9.978  0.0443 -0.3774 -0.0725
67417SOL    HW114230  10.625   9.439  10.003  0.1494 -1.0971  2.9704
67417SOL    HW214231  10.646   9.350   9.882 -1.6623  2.5780 -0.3086
67418SOL     OW14232   3.502  11.985   9.106 -0.3540  0.2126  0.3902
67418SOL    HW114233   3.469  11.910   9.058  0.8936  0.8288 -1.5518
67418SOL    HW214234   3.428  12.015   9.158 -1.5174 -1.0161 -0.5096
67419SOL     OW14235   9.697   5.373   0.506  0.5448  0.2420  0.4605
67419SOL    HW114236   9.629   5.359   0.441 -0.2092 -2.0613  1.6229
67419SOL    HW214237   9.737   5.457   0.483 -0.6441  0.1792 -2.0507
67420SOL     OW14238   9.453   5.711  10.392  0.1330 -0.1462  0.3125
67420SOL    HW114239   9.521   5.775  10.414 -1.3558  1.1322  1.3253
67420SOL    HW214240   9.435   5.666  10.475  0.0883 -0.8530 -0.0688
67421SOL     OW14241   1.953   2.257   6.603  0.6524  0.2286  0.1608
67421SOL    HW114242   1.982   2.306   6.525  0.2676  1.2871  0.6667
67421SOL    HW214243   1.890   2.193   6.569  1.9783 -0.6965 -0.6650
67422SOL     OW14244   6.593   2.380   0.802 -0.4266  0.2005 -0.3082
67422SOL    HW114245   6.609   2.290   0.773  0.6004  0.0766  0.5939
67422SOL    HW214246   6.658   2.432   0.753  0.2583  0.1908  0.5712
67423SOL     OW14247   5.800  10.512  12.358 -0.2146 -0.6016 -0.2820
67423SOL    HW114248   5.791  10.480  12.268  0.7760  0.0172 -0.6318
67423SOL    HW214249   5.805  10.607  12.348  2.0167 -0.6159  0.1850
67424SOL     OW14250  12.203  13.348   0.026  0.0916 -0.0853  0.2833
67424SOL    HW114251  12.281  13.392  -0.008  0.7663 -1.9450 -0.6644
67424SOL    HW214252  12.148  13.334  -0.050  1.0148 -3.0673  0.0480
67425SOL     OW14253   0.137   7.075   8.561  0.4238  0.3739  0.0857
67425SOL    HW114254   0.103   7.145   8.618  0.7395  0.7115 -0.1370
67425SOL    HW214255   0.099   6.995   8.597 -0.5757  0.7315 -0.1280
67426SOL     OW14256  13.881   2.631   7.081  0.2743  0.0505 -0.0443
67426SOL    HW114257  13.911   2.567   7.017 -1.6283 -1.3169  0.3710
67426SOL    HW214258  13.786   2.632   7.073  0.0125  0.3303  2.2892
67427SOL     OW14259   9.683   4.864  11.453 -0.2470 -0.6856  0.0411
67427SOL    HW114260   9.726   4.932  11.506 -0.2076 -1.1329  0.5987
67427SOL    HW214261   9.670   4.792  11.514  1.1478 -1.7993 -0.9255
67428SOL     OW14262   7.647   9.390   9.017  0.0838  0.3301  0.2231
67428SOL    HW114263   7.555   9.414   9.010 -0.3693 -1.2057  0.5158
67428SOL    HW214264   7.689   9.433   8.942 -1.2046 -0.3863 -0.9674
67429SOL     OW14265   6.378   1.927   1.739  0.0171 -0.1205  0.5859
67429SOL    HW114266   6.447   1.886   1.685  0.6503  0.9252  0.5641
67429SOL    HW214267   6.303   1.933   1.680 -0.9851 -3.4757  1.2921
67430SOL     OW14268   3.568   6.129   9.051  0.2558  0.1571 -0.6983
67430SOL    HW114269   3.656   6.144   9.017  0.2851  0.1638 -0.6197
67430SOL    HW214270   3.570   6.040   9.084  0.7612  0.7141  0.8996
67431SOL     OW14271  13.943  12.256   9.944  0.0526 -0.0628  0.8322
67431SOL    HW114272  13.999  12.179   9.947  1.0596  0.2359 -3.2541
67431SOL    HW214273  14.003  12.328   9.921 -1.5968  0.6475 -1.6436
67432SOL     OW14274   2.588   2.606   8.178  0.1418 -0.2844  0.3330
67432SOL    HW114275   2.563   2.698   8.170 -0.5509 -0.4633  0.3016
67432SOL    HW214276   2.592   2.574   8.087 -2.8063 -1.0669  0.3542
67433SOL     OW14277   2.106   3.619   2.239  0.3520  0.2311 -0.0984
67433SOL    HW114278   2.133   3.582   2.323 -0.9940  1.5459  0.9794
67433SOL    HW214279   2.019   3.582   2.224  1.6526 -2.2710 -2.4349
67434SOL     OW14280   2.543   6.560   8.137  0.3866  0.0276 -0.6454
67434SOL    HW114281   2.490   6.540   8.214  2.4233 -1.9697  0.3725
67434SOL    HW214282   2.587   6.642   8.159  0.1500  0.0227 -0.1341
67435SOL     OW14283  12.207  13.553   5.483  0.4152 -0.5536  0.2388
67435SOL    HW114284  12.144  13.597   5.425  0.4895 -0.4276  0.2516
67435SOL    HW214285  12.163  13.550   5.568  0.7119  0.1881  0.4248
67436SOL     OW14286   3.608  10.452   6.344  0.2353 -0.1445  0.3268
67436SOL    HW114287   3.650  10.516   6.403 -0.4286  0.2065  0.4211
67436SOL    HW214288   3.517  10.480   6.339  0.2785 -0.1568 -0.8851
67437SOL     OW14289   3.901  10.406   3.861  0.1445  0.2081  0.3572
67437SOL    HW114290   3.930  10.494   3.886  0.1913  0.8992 -1.8907
67437SOL    HW214291   3.900  10.357   3.943  0.2366  2.2583  1.6681
67438SOL     OW14292   4.861   4.187   3.738 -0.0272  0.4397 -0.2650
67438SOL    HW114293   4.814   4.253   3.688  1.1367  1.2633 -0.3177
67438SOL    HW214294   4.811   4.177   3.818 -0.9933  0.3369 -0.8671
67439SOL     OW14295  12.173   1.819   4.980 -0.9839 -0.7189  0.5624
67439SOL    HW114296  12.195   1.912   4.987 -1.0154 -0.6091 -0.6903
67439SOL    HW214297  12.238   1.776   5.037 -1.0338  0.0597  1.2381
67440SOL     OW14298   9.801  12.248   2.302 -0.4383  0.0194 -0.6126
67440SOL    HW114299   9.710  12.277   2.295 -0.0445  1.6519  0.6359
67440SOL    HW214300   9.818  12.245   2.396  1.1353  0.8796 -0.8402
67441SOL     OW14301  10.006   7.653   7.370  0.3600 -0.1792 -0.0125
67441SOL    HW114302  10.083   7.708   7.382 -0.5269  0.9641  0.6615
67441SOL    HW214303  10.035   7.566   7.398  2.0887 -0.3386 -2.0944
67442SOL     OW14304   0.836   2.172   3.079 -0.4865  0.2584  0.3250
67442SOL    HW114305   0.901   2.143   3.015 -1.4295 -0.2849 -0.4234
67442SOL    HW214306   0.887   2.196   3.156  0.7835  1.8140 -0.9219
67443SOL     OW14307  12.176  11.828   3.564  0.7925 -0.6380  0.3253
67443SOL    HW114308  12.127  11.793   3.638  1.7994 -0.2459  1.2050
67443SOL    HW214309  12.161  11.922   3.567  0.1872 -0.7018 -0.4661
67444SOL     OW14310   8.893   6.666   6.568  0.4046  0.2375 -0.1574
67444SOL    HW114311   8.863   6.731   6.504  0.3390  0.7901  0.4221
67444SOL    HW214312   8.815   6.647   6.620  0.3960 -0.4012 -0.3910
67445SOL     OW14313   7.820   6.615   9.122  0.6961 -0.0497  0.1952
67445SOL    HW114314   7.801   6.588   9.211  0.7770 -0.0202  0.2215
67445SOL    HW214315   7.871   6.695   9.131  1.2531 -0.3914  0.1389
67446SOL     OW14316   6.632   5.187   1.190 -0.0207  0.1007  0.1666
67446SOL    HW114317   6.671   5.263   1.233 -1.2661  0.1562  1.2578
67446SOL    HW214318   6.555   5.166   1.243  1.8459 -3.7574  1.6869
67447SOL     OW14319   5.762   0.055   9.545  0.3530 -0.3447  0.4554
67447SOL    HW114320   5.720  -0.024   9.578 -0.9328  0.4455  0.7722
67447SOL    HW214321   5.721   0.070   9.460  2.0323 -1.1020 -0.5497
67448SOL     OW14322   0.383   2.861  12.313 -0.6098 -0.3489 -0.1437
67448SOL    HW114323   0.350   2.869  12.224 -0.9844 -1.2368 -0.0925
67448SOL    HW214324   0.469   2.821  12.303 -0.8674 -0.9382 -0.0902
67449SOL     OW14325   1.347   9.442   0.124 -0.1766 -0.4602 -0.1260
67449SOL    HW114326   1.270   9.473   0.172  0.3019  0.4620  0.0624
67449SOL    HW214327   1.418   9.447   0.187 -0.0215 -1.6641 -0.1925
67450SOL     OW14328   2.956  10.532   1.353  0.2479  0.1642  0.5626
67450SOL    HW114329   2.901  10.454   1.344  2.9303 -1.6060 -2.3307
67450SOL    HW214330   2.899  10.604   1.326 -1.3336 -1.2281 -0.0364
67451SOL     OW14331   3.594  10.635   9.869  0.0517  0.9994  0.2607
67451SOL    HW114332   3.529  10.566   9.883  1.3448 -0.0125  1.5334
67451SOL    HW214333   3.647  10.604   9.795 -1.1643  2.0803 -1.1459
67452SOL     OW14334   0.929   7.535  12.765 -0.1224 -0.6162 -0.6362
67452SOL    HW114335   0.980   7.507  12.689  0.2547 -0.8921 -0.2882
67452SOL    HW214336   0.862   7.593  12.729  1.6728  1.4240 -0.8983
67453SOL     OW14337   0.477   7.901   5.931 -0.0035 -0.0129  0.4565
67453SOL    HW114338   0.527   7.975   5.965  2.6693 -1.6945  0.4442
67453SOL    HW214339   0.397   7.940   5.896  0.8918  2.7303  1.2365
67454SOL     OW14340   8.179   8.968   9.124 -0.2829  0.5633 -0.1756
67454SOL    HW114341   8.160   9.051   9.080  0.6733 -0.2334 -2.1868
67454SOL    HW214342   8.268   8.946   9.098  0.3802  0.0278  2.2404
67455SOL     OW14343   0.711   1.362  13.349 -0.0996 -0.5044 -0.6204
67455SOL    HW114344   0.718   1.433  13.413  0.4500 -1.8229  0.8312
67455SOL    HW214345   0.749   1.399  13.269  2.4679  0.1083  0.7597
67456SOL     OW14346   8.363  12.283   2.689  0.7918 -0.2044 -0.2526
67456SOL    HW114347   8.356  12.343   2.614 -0.0351  1.6472  1.2349
67456SOL    HW214348   8.360  12.340   2.766 -0.2660 -2.1822  1.2589
67457SOL     OW14349   4.777  13.373   1.872  0.8271  0.6839  0.9485
67457SOL    HW114350   4.832  13.350   1.947  0.1337  0.4554  1.4028
67457SOL    HW214351   4.784  13.468   1.865  1.0660  0.6834  1.1733
67458SOL     OW14352   1.315  14.014   0.594 -0.2504 -0.0889 -0.5665
67458SOL    HW114353   1.226  13.980   0.605 -0.1411 -0.4590 -0.7922
67458SOL    HW214354   1.371  13.942   0.624 -0.0410  1.0929  2.2075
67459SOL     OW14355   2.075  10.170   8.585 -0.5792  0.1194  0.3125
67459SOL    HW114356   2.156  10.194   8.540 -0.8835  0.9451  0.1993
67459SOL    HW214357   2.102  10.144   8.673 -0.0605 -0.8046 -0.1049
67460SOL     OW14358   8.933   5.724   6.843 -0.7069 -0.4242 -0.7446
67460SOL    HW114359   8.899   5.640   6.811 -3.3057 -0.0695  0.8871
67460SOL    HW214360   8.862   5.786   6.830  0.1719  0.9372  0.6285
67461SOL     OW14361   1.186  12.766   4.874  0.3266 -0.0877 -0.5341
67461SOL    HW114362   1.164  12.835   4.937  0.6272 -0.4321 -0.0452
67461SOL    HW214363   1.174  12.684   4.922  2.0360 -0.3249 -0.4208
67462SOL     OW14364  11.272   3.135   2.884  0.0812 -0.2722 -0.3599
67462SOL    HW114365  11.195   3.116   2.830 -0.4490 -0.4325  0.4363
67462SOL    HW214366  11.337   3.070   2.856 -0.4923 -0.9378 -0.1928
67463SOL     OW14367   7.848  13.057  10.144 -0.1811  0.0928  0.4086
67463SOL    HW114368   7.786  12.985  10.151  0.1006 -0.2834 -0.8464
67463SOL    HW214369   7.932  13.018  10.168 -0.2562  0.3760  1.1761
67464SOL     OW14370   8.126  11.020   0.464 -0.4813 -0.2686 -0.7224
67464SOL    HW114371   8.041  11.064   0.462 -0.8915 -0.7915  1.5541
67464SOL    HW214372   8.106  10.928   0.446 -0.3247 -0.3164 -0.6559
67465SOL     OW14373   7.160   6.158  11.104 -0.0665 -0.4002  0.3133
67465SOL    HW114374   7.071   6.193  11.110 -0.1799 -0.5523 -0.4964
67465SOL    HW214375   7.216   6.229  11.137 -0.2112  0.9280 -2.1272
67466SOL     OW14376   8.175  11.921   9.071 -0.6940 -0.5904  0.1668
67466SOL    HW114377   8.188  11.972   8.991 -1.4799 -1.5813 -0.6213
67466SOL    HW214378   8.212  11.975   9.140  3.2553 -1.1615 -1.2496
67467SOL     OW14379   2.280   8.162   8.773 -0.2559 -0.4097 -0.6540
67467SOL    HW114380   2.251   8.240   8.726  1.3565  0.9375  0.5036
67467SOL    HW214381   2.367   8.144   8.738  0.3722 -0.2387  0.7866
67468SOL     OW14382   6.026   0.742  12.847  0.1157 -0.0647  0.3288
67468SOL    HW114383   5.946   0.760  12.798  0.2930 -0.5490 -0.1530
67468SOL    HW214384   6.097   0.762  12.785  0.3370 -0.8652  0.3075
67469SOL     OW14385   1.553   0.676   6.163  0.0164 -0.3027 -0.8991
67469SOL    HW114386   1.470   0.683   6.210 -0.0119  1.0421 -1.1052
67469SOL    HW214387   1.606   0.749   6.196  0.1469  0.4253 -2.6203
67470SOL     OW14388   5.118  12.844   0.716  0.6245  0.2341 -0.3660
67470SOL    HW114389   5.199  12.894   0.725  0.3501  0.5360  0.6399
67470SOL    HW214390   5.058  12.904   0.671 -0.3113  1.6547  2.4921
67471SOL     OW14391   4.890  12.852  12.165 -0.0140 -0.2940 -0.2180
67471SOL    HW114392   4.914  12.783  12.103 -0.9874  0.0655 -1.0196
67471SOL    HW214393   4.817  12.815  12.215 -1.0370  0.3882 -1.1556
67472SOL     OW14394   1.223   5.344  13.300 -0.0488  0.3579  0.3897
67472SOL    HW114395   1.165   5.421  13.301  0.6864  0.9272  0.0747
67472SOL    HW214396   1.304   5.376  13.261  0.4639 -0.4463  0.7804
67473SOL     OW14397   4.126   6.334   1.423 -0.4362  0.4035 -0.3556
67473SOL    HW114398   4.053   6.275   1.442  0.9051 -0.8359  1.1230
67473SOL    HW214399   4.165   6.353   1.508  0.2154  2.0847 -0.9871
67474SOL     OW14400   3.882  13.251   5.366 -0.0780  0.1933  0.1739
67474SOL    HW114401   3.855  13.211   5.283  0.5749 -0.7260  0.3885
67474SOL    HW214402   3.840  13.198   5.433 -0.4418  0.8117  0.4401
67475SOL     OW14403  11.310   9.118   7.633 -0.3106 -0.2767  0.4320
67475SOL    HW114404  11.221   9.085   7.637 -0.1870 -0.8723 -0.9513
67475SOL    HW214405  11.363   9.051   7.675 -0.5525  0.3802  1.8552
67476SOL     OW14406   6.016   1.413   5.752 -0.4148 -0.1582 -0.1230
67476SOL    HW114407   6.041   1.496   5.711  1.4122 -0.9995 -0.8173
67476SOL    HW214408   5.938   1.385   5.704 -0.0813  0.3602 -0.9848
67477SOL     OW14409  13.044  11.263  13.938 -0.5281  0.4363  0.0784
67477SOL    HW114410  12.996  11.256  13.856  0.3650  0.2267 -0.4339
67477SOL    HW214411  12.998  11.204  13.998 -1.1978  0.6152 -0.2497
67478SOL     OW14412  12.125   6.385   4.458 -0.2761  0.2135 -0.0834
67478SOL    HW114413  12.091   6.298   4.479 -0.6860 -0.2383 -2.3194
67478SOL    HW214414  12.059   6.422   4.399 -0.7839  2.6185  1.8231
67479SOL     OW14415   3.580   7.651  13.441  0.2971 -0.2812  0.4278
67479SOL    HW114416   3.650   7.710  13.469 -0.3895  0.7058  0.0953
67479SOL    HW214417   3.507   7.670  13.499 -0.5108  0.4537 -0.7749
67480SOL     OW14418   1.793  10.373   5.903  0.0382  0.2530  0.4966
67480SOL    HW114419   1.697  10.370   5.913  0.0558 -0.7531  0.5064
67480SOL    HW214420   1.825  10.399   5.990 -0.1963 -0.2993  0.7587
67481SOL     OW14421   6.978  11.213   7.483 -0.1940 -0.2191 -0.2510
67481SOL    HW114422   6.915  11.211   7.411  1.6859 -1.3819 -1.9693
67481SOL    HW214423   7.016  11.301   7.479 -1.6902  0.5167  0.8460
67482SOL     OW14424   6.793   3.069   7.169  0.1311  0.4930  0.1194
67482SOL    HW114425   6.786   3.164   7.181 -0.0878  0.6462 -1.1166
67482SOL    HW214426   6.790   3.056   7.074  0.5734 -0.7237  0.2522
67483SOL     OW14427   1.525   5.002   6.563  0.2678 -0.3685 -0.4541
67483SOL    HW114428   1.481   4.954   6.633 -1.1651  1.5393  0.0412
67483SOL    HW214429   1.454   5.038   6.510  1.0880  2.9466  0.4585
67484SOL     OW14430   0.878  12.716   5.467 -0.0375  0.0156  1.1644
67484SOL    HW114431   0.865  12.629   5.505 -0.3501  0.0472  1.1286
67484SOL    HW214432   0.971  12.719   5.444 -0.8413 -2.1618 -3.4430
67485SOL     OW14433   9.009  10.333  10.219  0.2861  0.1541  0.3688
67485SOL    HW114434   9.092  10.330  10.171  0.6328  0.8986  0.9039
67485SOL    HW214435   9.008  10.252  10.270  1.1160  0.5721  1.0635
67486SOL     OW14436   6.603  12.438  10.643  0.2779  0.3972 -0.8297
67486SOL    HW114437   6.609  12.347  10.613  1.9890  0.0451  0.3997
67486SOL    HW214438   6.685  12.477  10.615  0.3265  1.0588  0.2006
67487SOL     OW14439  10.420  10.838  10.930  0.3348  0.0854  0.1324
67487SOL    HW114440  10.504  10.868  10.896  0.7928  0.0005  1.1609
67487SOL    HW214441  10.441  10.795  11.012 -0.5039 -1.6073 -0.4936
67488SOL     OW14442   2.017   8.044   1.349  0.1248 -0.2432  0.4019
67488SOL    HW114443   2.050   8.026   1.261  0.3616  1.5209  0.0854
67488SOL    HW214444   2.073   8.115   1.381  2.0984 -2.8391  3.2466
67489SOL     OW14445  12.890   3.288   1.565 -0.3207  0.2360 -0.3285
67489SOL    HW114446  12.979   3.281   1.530 -0.4531  0.1118 -0.6393
67489SOL    HW214447  12.879   3.381   1.585  0.6913 -0.0409  1.8629
67490SOL     OW14448  10.967  11.894   8.681  0.3207  0.0402  0.4894
67490SOL    HW114449  10.965  11.927   8.771  0.4866  1.7080 -0.0756
67490SOL    HW214450  10.878  11.909   8.648  0.6268  0.7627 -0.0440
67491SOL     OW14451   1.405  11.582  12.769 -0.2423  0.3759 -0.2370
67491SOL    HW114452   1.374  11.513  12.711  1.1539 -0.4829 -0.0003
67491SOL    HW214453   1.345  11.655  12.754 -0.7643 -0.3240 -1.6821
67492SOL     OW14454   4.495  11.872   2.072 -0.1186 -0.3916  0.0297
67492SOL    HW114455   4.524  11.783   2.090 -1.0324 -1.4517 -3.0906
67492SOL    HW214456   4.445  11.865   1.990 -1.2711  2.7993  0.3147
67493SOL     OW14457  10.473   0.229   4.124 -0.1342 -0.2333  0.5257
67493SOL    HW114458  10.482   0.308   4.177  0.3093  1.3593 -1.7743
67493SOL    HW214459  10.560   0.188   4.126 -0.2133 -0.3721  1.2740
67494SOL     OW14460   5.372  10.866   3.404 -0.0554  0.3976  0.2671
67494SOL    HW114461   5.442  10.915   3.360  0.5309  0.3795  1.1476
67494SOL    HW214462   5.295  10.922   3.394 -0.3134 -0.2546 -1.9970
67495SOL     OW14463  12.486  10.706  11.146 -1.0969 -0.4278  0.2185
67495SOL    HW114464  12.487  10.774  11.079 -1.1869 -1.2978 -0.6962
67495SOL    HW214465  12.535  10.743  11.219 -1.4765  0.7561 -0.0998
67496SOL     OW14466   5.496   6.956   9.958 -0.2834  0.2768 -0.0137
67496SOL    HW114467   5.515   7.029   9.900  0.5901  0.6655  0.7353
67496SOL    HW214468   5.579   6.940  10.004 -1.1140  0.4296  1.6064
67497SOL     OW14469   7.403   0.040   8.826 -0.0477  0.6550  0.1450
67497SOL    HW114470   7.406   0.127   8.785  1.0145  0.1538 -0.9014
67497SOL    HW214471   7.430   0.055   8.917 -0.9084  1.5582  0.2691
67498SOL     OW14472   7.039  11.819   7.059  0.1349 -1.3909 -0.0722
67498SOL    HW114473   6.968  11.882   7.074  0.2708 -1.5910  1.5310
67498SOL    HW214474   7.040  11.765   7.138  2.0572 -1.4057 -0.0752
67499SOL     OW14475  13.454   6.103   9.973  0.3828 -0.0132 -0.1242
67499SOL    HW114476  13.512   6.029   9.992  1.3945  0.9902  0.8800
67499SOL    HW214477  13.500   6.179  10.008 -1.8752  0.7458  1.4474
67500SOL     OW14478  12.632   1.695   9.846 -0.2445  0.2814  0.7451
67500SOL    HW114479  12.651   1.614   9.894  0.7299  0.2431  0.3210
67500SOL    HW214480  12.566   1.739   9.899 -0.8882 -0.8432  0.9268
67501SOL     OW14481   9.077   6.107   3.343 -0.0578  0.4716  0.1307
67501SOL    HW114482   9.147   6.131   3.404  0.1859 -0.0581  0.0683
67501SOL    HW214483   9.054   6.017   3.367 -0.2276  0.3935 -0.3063
67502SOL     OW14484   4.000   6.336   0.325  0.3798 -0.3713  0.3025
67502SOL    HW114485   4.046   6.340   0.409 -0.7285  1.4934  0.8812
67502SOL    HW214486   4.068   6.316   0.261  1.8521  1.3265  1.2508
67503SOL     OW14487  12.291   2.579  10.138 -0.5304  0.6222  0.4697
67503SOL    HW114488  12.313   2.561  10.230 -1.1890  0.5595  0.6243
67503SOL    HW214489  12.214   2.635  10.143 -1.0151  0.0179 -0.0484
67504SOL     OW14490   1.936   6.927   0.190 -0.0163 -0.3295 -0.3334
67504SOL    HW114491   1.853   6.956   0.152  0.3174 -1.5693 -2.1071
67504SOL    HW214492   1.985   7.008   0.205 -0.0054  0.2265 -3.0171
67505SOL     OW14493   9.720  12.639  11.676 -0.1517 -0.0718 -0.7703
67505SOL    HW114494   9.660  12.575  11.638 -3.2830  1.4843  1.1500
67505SOL    HW214495   9.678  12.667  11.757  3.8078  0.3451  1.4004
67506SOL     OW14496   2.366   9.538  11.319 -0.7260  0.4719 -0.0717
67506SOL    HW114497   2.380   9.557  11.226  0.7162 -0.8547 -0.1731
67506SOL    HW214498   2.452   9.551  11.359 -0.9578 -0.4726  0.7822
67507SOL     OW14499  12.633   0.613   4.889  0.4537 -0.1729 -0.1185
67507SOL    HW114500  12.699   0.675   4.921  1.6404 -0.5435 -1.7020
67507SOL    HW214501  12.643   0.615   4.794 -1.0484 -1.1171 -0.3211
67508SOL     OW14502  13.172   0.577   0.491 -0.1342  0.6283 -0.3601
67508SOL    HW114503  13.124   0.527   0.424 -0.9675 -0.4633  0.9920
67508SOL    HW214504  13.261   0.583   0.456 -0.3612 -0.5561 -1.2423
67509SOL     OW14505   9.056  13.546  13.263 -0.1829 -0.0734 -0.3655
67509SOL    HW114506   9.015  13.462  13.283 -1.0382  0.5415  0.5721
67509SOL    HW214507   9.150  13.532  13.279 -0.4745 -0.5041  1.0896
67510SOL     OW14508   3.970  12.090   7.778 -0.6321 -0.4057  0.5553
67510SOL    HW114509   3.975  12.006   7.732 -0.9714  0.0215 -0.2953
67510SOL    HW214510   3.942  12.068   7.866  1.3934 -1.3920  1.0107
67511SOL     OW14511   8.497   9.469  12.735 -0.1092 -0.4648 -0.5145
67511SOL    HW114512   8.560   9.422  12.681 -0.2139 -0.1408 -0.9218
67511SOL    HW214513   8.442   9.401  12.774 -1.3358 -0.6205 -2.4094
67512SOL     OW14514   0.110  13.813   0.666 -0.2070  0.3606 -0.1477
67512SOL    HW114515   0.023  13.777   0.687  0.0386  1.2171  2.8527
67512SOL    HW214516   0.109  13.900   0.705  1.9913  0.4049 -0.1063
67513SOL     OW14517   6.527   1.313  12.743 -0.5412  0.3214  0.1891
67513SOL    HW114518   6.492   1.287  12.658  1.0114 -0.8299 -0.1341
67513SOL    HW214519   6.553   1.405  12.732  0.0058  0.0670 -0.7063
67514SOL     OW14520   4.536  11.032  13.950  0.1273 -0.5997  0.3113
67514SOL    HW114521   4.525  11.094  14.022  1.1295  0.4157 -0.3772
67514SOL    HW214522   4.512  10.948  13.988 -1.6109  0.2309  1.1707
67515SOL     OW14523  10.607   3.024   1.012 -0.3528  0.0739  0.0171
67515SOL    HW114524  10.526   2.979   0.988 -0.7877  0.7044  0.2648
67515SOL    HW214525  10.578   3.103   1.057  0.4136 -0.4905  1.5817
67516SOL     OW14526   1.905  11.346  11.946 -0.2805  0.0817  0.2368
67516SOL    HW114527   1.862  11.412  11.893 -1.3991 -2.8439 -2.8188
67516SOL    HW214528   1.842  11.274  11.951  2.0818 -2.1033  0.4881
67517SOL     OW14529  10.498   4.064   0.582 -0.3450  0.0731  0.0061
67517SOL    HW114530  10.468   4.154   0.574 -0.1995 -0.0055 -1.9031
67517SOL    HW214531  10.445   4.015   0.519 -1.3876 -1.4781  1.9407
67518SOL     OW14532   4.868   9.876   7.353 -0.4128 -0.3229 -0.1738
67518SOL    HW114533   4.840   9.920   7.433  0.5237 -0.7317  0.4079
67518SOL    HW214534   4.926   9.806   7.384  1.3374  0.5628 -1.2973
67519SOL     OW14535   4.385  13.394   1.700 -0.7449 -0.3680 -0.1130
67519SOL    HW114536   4.417  13.449   1.772 -2.3595  0.3679  0.0865
67519SOL    HW214537   4.313  13.344   1.738  0.0587 -1.9315 -0.5643
67520SOL     OW14538  12.112   9.282   3.126  0.6214 -0.4568 -0.1626
67520SOL    HW114539  12.173   9.297   3.198 -0.0889 -0.6148  0.4898
67520SOL    HW214540  12.095   9.187   3.129 -0.2449 -0.2975  0.1600
67521SOL     OW14541   2.859  11.517  12.447  0.2948  0.0137  0.2553
67521SOL    HW114542   2.889  11.512  12.538  1.3482 -0.5815 -0.1055
67521SOL    HW214543   2.875  11.608  12.422  0.2172  0.1221  0.5866
67522SOL     OW14544   1.426   3.761   4.848 -0.0605 -0.4148 -0.4358
67522SOL    HW114545   1.406   3.668   4.857  0.5747 -0.4977  0.2842
67522SOL    HW214546   1.520   3.767   4.865 -0.0082  0.2980 -0.9497
67523SOL     OW14547  13.911   3.157   7.103  0.2821 -0.2763 -0.6114
67523SOL    HW114548  13.937   3.066   7.119 -1.7503 -0.6607  0.7835
67523SOL    HW214549  13.951   3.207   7.174 -0.2503 -0.4081 -0.2118
67524SOL     OW14550   1.780  10.556   8.422 -0.1630  0.2707 -0.6036
67524SOL    HW114551   1.861  10.572   8.374 -0.1374  0.4342 -0.5083
67524SOL    HW214552   1.762  10.639   8.466  1.6236 -0.7871  2.4398
67525SOL     OW14553  13.272   2.863   9.463 -0.0730  0.4380 -0.6630
67525SOL    HW114554  13.252   2.918   9.387 -1.1038 -0.8284 -1.3412
67525SOL    HW214555  13.293   2.925   9.532  0.3813  1.6410 -1.8369
67526SOL     OW14556  10.441   3.328  13.946 -0.1284 -0.0914 -0.2146
67526SOL    HW114557  10.528   3.315  13.985 -0.4504  0.5161  0.7482
67526SOL    HW214558  10.459   3.342  13.853  0.8243  0.1904 -0.0043
67527SOL     OW14559  11.414  11.832   1.955 -0.1211 -0.9081  0.1770
67527SOL    HW114560  11.495  11.866   1.917 -0.1618 -0.3615  0.5656
67527SOL    HW214561  11.443  11.761   2.012  0.5176  1.3394  2.9258
67528SOL     OW14562  12.606   0.765   8.067  0.5374 -0.1999 -0.2010
67528SOL    HW114563  12.652   0.782   7.985 -1.4203 -1.3260 -1.6292
67528SOL    HW214564  12.581   0.852   8.100  0.9298  0.2400 -1.0428
67529SOL     OW14565   6.186  13.797   9.713 -0.0963  0.7237  0.2791
67529SOL    HW114566   6.238  13.863   9.760 -1.1182  0.4125  1.9384
67529SOL    HW214567   6.149  13.743   9.783  0.2938 -1.2938 -1.0250
67530SOL     OW14568   2.589   5.405   4.556 -0.2462  0.1741 -0.1432
67530SOL    HW114569   2.592   5.501   4.554 -1.4656  0.2542  0.8964
67530SOL    HW214570   2.502   5.383   4.526 -1.3807 -0.3883  3.0975
67531SOL     OW14571  11.912   3.254   9.643 -0.1499 -0.2647  0.2588
67531SOL    HW114572  11.867   3.193   9.584 -1.1187  1.5589 -1.0322
67531SOL    HW214573  11.880   3.232   9.730 -0.9061 -1.2295 -0.2422
67532SOL     OW14574   9.784   6.087  10.322 -0.1330  0.2749  0.3206
67532SOL    HW114575   9.823   6.157  10.270  0.1214 -0.3504 -0.3434
67532SOL    HW214576   9.754   6.022  10.258 -1.4893  0.3349  0.8577
67533SOL     OW14577   5.041   4.507   3.724  0.2287 -0.9355 -0.0781
67533SOL    HW114578   4.989   4.458   3.661 -0.2127 -1.2531  0.5210
67533SOL    HW214579   5.070   4.442   3.788 -0.2952 -0.4455  0.6809
67534SOL     OW14580   9.981   0.954   8.142  0.2310 -0.2587 -0.1288
67534SOL    HW114581  10.026   0.870   8.154 -2.0503 -1.2772  2.1801
67534SOL    HW214582   9.902   0.932   8.092  1.1281  1.1387 -2.2982
67535SOL     OW14583  12.415   2.357   7.135 -0.2609 -0.3086 -0.6389
67535SOL    HW114584  12.334   2.382   7.090  0.4256  0.4881 -1.4633
67535SOL    HW214585  12.405   2.393   7.223 -0.7470 -0.0932 -0.7778
67536SOL     OW14586  11.304   7.831  13.469 -0.0465 -0.1586 -0.1389
67536SOL    HW114587  11.373   7.765  13.476  1.6028  1.3466 -1.3322
67536SOL    HW214588  11.339   7.909  13.512 -2.2721 -0.1746  1.9693
67537SOL     OW14589   3.046   4.019  10.520 -0.3716  0.4236  0.1832
67537SOL    HW114590   2.992   4.057  10.590  1.5484 -0.9835  2.6176
67537SOL    HW214591   2.984   3.997  10.451 -2.5468  1.1024  1.7931
67538SOL     OW14592   5.412   3.110  11.978  0.0677  0.2813 -1.2555
67538SOL    HW114593   5.409   3.112  12.073  0.8967 -1.6584 -1.1442
67538SOL    HW214594   5.502   3.085  11.957 -0.0657  0.7919 -2.5668
67539SOL     OW14595   9.851   5.017  11.587  0.6632 -0.5012  0.3470
67539SOL    HW114596   9.863   5.112  11.594  0.0931 -0.2925 -1.1326
67539SOL    HW214597   9.940   4.981  11.591  0.8282  0.0035  1.8021
67540SOL     OW14598   4.730   3.339   0.124  0.0888  0.1479 -0.2610
67540SOL    HW114599   4.728   3.265   0.184 -3.1729  1.7624  1.8938
67540SOL    HW214600   4.784   3.404   0.168  0.8165  0.0105 -0.9298
67541SOL     OW14601  10.145   6.196   2.696  0.3247 -0.7452  0.1847
67541SOL    HW114602  10.130   6.106   2.725 -0.1921 -0.9900 -0.7941
67541SOL    HW214603  10.230   6.193   2.652 -0.0100 -0.9225 -0.4660
67542SOL     OW14604   8.852   0.679   9.796  0.2022  0.4737 -0.2853
67542SOL    HW114605   8.870   0.656   9.705 -1.2234  0.8628 -0.7044
67542SOL    HW214606   8.897   0.613   9.848 -1.3638 -1.5571 -1.3601
67543SOL     OW14607   0.829  13.922   8.060  0.2007 -0.4926  0.0388
67543SOL    HW114608   0.885  13.915   8.138  1.7791 -0.6575 -1.0710
67543SOL    HW214609   0.849  14.008   8.024  0.4823 -0.9388 -0.9069
67544SOL     OW14610   9.997   3.367   7.834  0.2582 -0.4687  0.3267
67544SOL    HW114611   9.970   3.287   7.880  1.0250 -1.7386 -1.3160
67544SOL    HW214612   9.993   3.435   7.901  0.8843 -2.1198  2.1663
67545SOL     OW14613  10.916   5.310   9.577  0.0655 -0.1952  0.2820
67545SOL    HW114614  10.883   5.234   9.530  1.7317 -0.8419  0.1016
67545SOL    HW214615  10.885   5.300   9.667 -3.2358  1.0956 -0.5812
67546SOL     OW14616  12.078   8.916   0.899 -0.1853  0.1961 -0.4187
67546SOL    HW114617  12.041   8.832   0.869  0.0937 -0.1538  0.1995
67546SOL    HW214618  12.045   8.980   0.836 -0.2138 -0.4123 -1.0370
67547SOL     OW14619   1.854  12.582  11.314  0.5037 -0.3951 -0.1191
67547SOL    HW114620   1.816  12.601  11.228  1.9901  0.0416 -0.7054
67547SOL    HW214621   1.946  12.606  11.305  1.0768 -2.0509  1.0570
67548SOL     OW14622  10.781   8.538  11.023 -0.2383 -0.2253  0.2952
67548SOL    HW114623  10.720   8.565  11.091  0.3208 -1.7769  1.4963
67548SOL    HW214624  10.868   8.556  11.060  0.0753 -1.0303 -0.0180
67549SOL     OW14625   0.657  10.336   9.833 -0.0812  0.0804  0.2297
67549SOL    HW114626   0.588  10.304   9.892 -0.9778  0.1492 -0.7376
67549SOL    HW214627   0.650  10.279   9.756  0.7311  0.3057 -0.0214
67550SOL     OW14628   1.298   2.024  11.070  0.3227  0.3954 -0.0298
67550SOL    HW114629   1.325   1.951  11.127 -0.8202 -0.4218 -0.4912
67550SOL    HW214630   1.229   2.068  11.120 -0.1355  0.1477 -0.4349
67551SOL     OW14631   1.049   2.432  12.063 -0.5341  0.1324  0.0219
67551SOL    HW114632   1.114   2.381  12.111  1.8313  1.2723 -1.7667
67551SOL    HW214633   0.966   2.387  12.080  0.6898 -1.4867  2.2887
67552SOL     OW14634  10.802  12.599  13.491 -0.0042 -0.2220 -0.0330
67552SOL    HW114635  10.726  12.546  13.513 -1.4537  1.6798 -0.1911
67552SOL    HW214636  10.790  12.622  13.399  0.1593  0.9902  0.2252
67553SOL     OW14637   1.551   4.928  10.933 -0.0400  0.0793 -0.1753
67553SOL    HW114638   1.635   4.904  10.894  0.3258 -2.8209  2.0554
67553SOL    HW214639   1.498   4.848  10.927 -0.7144  0.1399  3.0481
67554SOL     OW14640   9.861   1.645   3.544  0.2028 -0.6016  0.1916
67554SOL    HW114641   9.768   1.623   3.548  0.6507 -3.1312 -1.2987
67554SOL    HW214642   9.863   1.741   3.534 -2.1166 -0.2443  2.1924
67555SOL     OW14643  13.464  10.637   4.278 -0.7477  0.1365  0.2548
67555SOL    HW114644  13.480  10.691   4.201 -0.5033 -0.3816 -0.0651
67555SOL    HW214645  13.547  10.591   4.293 -1.5546 -1.7574 -0.7664
67556SOL     OW14646   4.456   7.840   1.473 -0.0264 -0.4749 -0.2747
67556SOL    HW114647   4.361   7.847   1.465 -0.0718 -0.7838  0.0124
67556SOL    HW214648   4.489   7.908   1.414 -0.4437  0.4959  0.5732
67557SOL     OW14649   7.061   7.753   6.076 -0.3637  0.7507  0.5261
67557SOL    HW114650   7.118   7.805   6.133  2.3044 -2.4718  1.1626
67557SOL    HW214651   7.060   7.801   5.993  0.0869  2.8719  1.6846
67558SOL     OW14652   7.520   3.808   7.539  0.4097  0.2390 -0.0714
67558SOL    HW114653   7.572   3.813   7.458  1.5696  0.4497  0.6530
67558SOL    HW214654   7.583   3.777   7.604 -0.4940  0.1509  0.7635
67559SOL     OW14655   9.046   1.056  12.934  0.2762 -0.0829  0.2419
67559SOL    HW114656   9.117   1.121  12.937 -1.3227  1.7583  0.2361
67559SOL    HW214657   9.029   1.043  12.840  1.8352 -2.0201  0.1708
67560SOL     OW14658   9.633   1.219  11.191 -0.0146 -0.2332  0.9077
67560SOL    HW114659   9.600   1.171  11.115 -1.4271  0.0914  1.2887
67560SOL    HW214660   9.717   1.255  11.161 -0.2665 -0.5928 -0.3013
67561SOL     OW14661   8.127  12.860   2.542 -0.5571  0.3844 -0.5783
67561SOL    HW114662   8.043  12.815   2.553  0.5545 -1.4095  1.5893
67561SOL    HW214663   8.121  12.935   2.600  0.1554 -1.1847  1.6825
67562SOL     OW14664   9.095   0.104   4.796 -0.0621 -0.1030  0.0985
67562SOL    HW114665   9.169   0.073   4.745 -0.0696 -1.1786  0.6948
67562SOL    HW214666   9.132   0.169   4.855  0.5913 -1.1996  0.9412
67563SOL     OW14667   1.962   2.283   9.155 -0.5198  0.7975  0.0264
67563SOL    HW114668   2.037   2.227   9.175 -0.5328  0.6514 -0.3354
67563SOL    HW214669   1.922   2.243   9.078 -1.1769  0.6719  0.4250
67564SOL     OW14670  13.590   7.654   2.925 -0.2518  0.0036  0.5628
67564SOL    HW114671  13.604   7.601   3.003  1.2451  1.8256  1.6207
67564SOL    HW214672  13.619   7.742   2.950  0.0295  0.7184 -1.9637
67565SOL     OW14673   4.864  13.635   1.980 -0.1091  0.3618  0.3281
67565SOL    HW114674   4.848  13.728   1.994  0.4841  0.6647 -0.8499
67565SOL    HW214675   4.960  13.628   1.974 -0.0961 -0.4492  1.1351
67566SOL     OW14676   8.503   4.589   4.514 -0.0825  0.3515 -0.1677
67566SOL    HW114677   8.407   4.586   4.517 -0.1872  1.8424 -0.9847
67566SOL    HW214678   8.524   4.577   4.422  0.5945 -0.8874  0.1262
67567SOL     OW14679   3.900   9.418  10.904  0.3268 -0.2631 -0.3099
67567SOL    HW114680   3.951   9.497  10.884  0.2743 -0.1380  0.0467
67567SOL    HW214681   3.848   9.442  10.980  1.1177 -0.9865  0.4825
67568SOL     OW14682   1.451   3.686   0.909  0.1629  0.4511 -0.0966
67568SOL    HW114683   1.379   3.727   0.861 -0.0538  0.7478  0.4689
67568SOL    HW214684   1.442   3.719   0.999  0.9769  0.4472 -0.0093
67569SOL     OW14685   8.054   3.212   4.572  0.2754 -0.0437 -0.1776
67569SOL    HW114686   8.028   3.202   4.481  0.6719  1.6571 -0.4969
67569SOL    HW214687   8.008   3.290   4.602 -0.1463 -0.7729  1.2196
67570SOL     OW14688   1.045   1.716   9.983 -0.4336  0.3920  0.2632
67570SOL    HW114689   1.133   1.741  10.012 -0.2782  1.0893 -0.7529
67570SOL    HW214690   1.008   1.796   9.946 -0.6665 -0.4063 -1.3198
67571SOL     OW14691   8.758   7.738   8.347 -0.2516 -0.1555  0.5794
67571SOL    HW114692   8.850   7.749   8.370 -0.1442 -1.6995  0.9745
67571SOL    HW214693   8.712   7.799   8.405  0.2827 -1.7265  2.7871
67572SOL     OW14694   7.553  10.871   0.086 -0.6019  0.1410 -0.2678
67572SOL    HW114695   7.518  10.880   0.175 -0.7100  0.9757 -0.3791
67572SOL    HW214696   7.563  10.777   0.073 -0.6848  0.0047  0.5911
67573SOL     OW14697   5.484   7.910   0.840 -0.0053 -0.0502 -0.4776
67573SOL    HW114698   5.449   7.889   0.753  0.4289  0.3846 -0.7555
67573SOL    HW214699   5.487   8.005   0.843  0.4725 -0.0717 -0.1752
67574SOL     OW14700  10.180  13.768  13.283  0.1292  0.1869 -0.4181
67574SOL    HW114701  10.232  13.735  13.210 -0.0537 -0.8679 -0.0887
67574SOL    HW214702  10.244  13.809  13.342  0.4826 -0.3795 -0.4030
67575SOL     OW14703   6.311   5.477  10.803 -0.2664  0.4492 -0.2701
67575SOL    HW114704   6.270   5.531  10.871 -0.8038  0.2594 -0.4378
67575SOL    HW214705   6.244   5.414  10.778 -0.2856  0.8914 -1.4051
67576SOL     OW14706  13.032   8.143   2.293  0.5556  0.7215 -0.2436
67576SOL    HW114707  13.071   8.196   2.362  1.6452 -1.5373  0.9708
67576SOL    HW214708  13.094   8.072   2.278 -0.4753  0.1679 -2.3325
67577SOL     OW14709   5.416   7.987   4.151  0.3188  0.0724 -0.3151
67577SOL    HW114710   5.400   8.068   4.200 -0.7024 -0.7831  0.8351
67577SOL    HW214711   5.497   7.953   4.187 -0.1899 -0.3180  0.4916
67578SOL     OW14712  13.281  13.444   2.333 -0.3330  0.1640 -0.3454
67578SOL    HW114713  13.295  13.411   2.422 -0.8874 -2.9930 -1.2984
67578SOL    HW214714  13.259  13.536   2.345  0.2870  0.0310  2.7090
67579SOL     OW14715   9.694   4.740   5.147  0.1003 -0.3288 -0.4404
67579SOL    HW114716   9.726   4.809   5.204 -0.7843  0.3851 -0.7843
67579SOL    HW214717   9.615   4.777   5.106  0.1679 -1.1761 -1.3762
67580SOL     OW14718   5.210   5.292  10.404  0.2493 -0.2554  0.1034
67580SOL    HW114719   5.209   5.246  10.321  3.2508 -2.4252  1.0850
67580SOL    HW214720   5.119   5.292  10.433 -1.0048  1.1616 -3.3589
67581SOL     OW14721   2.068  13.751  12.796  0.3350  0.5303  0.3345
67581SOL    HW114722   2.129  13.787  12.731 -1.3536 -0.6647 -2.0615
67581SOL    HW214723   2.109  13.670  12.825 -0.3662 -0.6985 -1.8874
67582SOL     OW14724   2.845  13.719   8.704  0.3932  0.6834  0.1938
67582SOL    HW114725   2.931  13.691   8.734  0.6899 -0.3771 -1.5320
67582SOL    HW214726   2.784  13.659   8.747  0.5863  0.7468  0.5638
67583SOL     OW14727   1.153   0.933  14.011  0.1970  0.0907  0.3398
67583SOL    HW114728   1.121   1.018  14.042  0.9773  0.0154  1.4165
67583SOL    HW214729   1.141   0.874  14.085  0.3462 -0.5707 -0.1508
67584SOL     OW14730   6.789   0.923   3.024 -0.2418  0.0046 -0.0286
67584SOL    HW114731   6.837   0.976   2.960 -0.4454  0.8889  0.5308
67584SOL    HW214732   6.723   0.877   2.972 -0.8233  1.1990 -0.3951
67585SOL     OW14733   4.568   0.798  10.313 -0.5015 -0.1575  0.1158
67585SOL    HW114734   4.587   0.879  10.266  2.3206  0.8443  2.6040
67585SOL    HW214735   4.493   0.819  10.368 -1.1078  0.0523 -0.7838
67586SOL     OW14736   9.615   9.123  12.011 -0.0206 -0.2713 -0.1056
67586SOL    HW114737   9.686   9.185  11.992  0.5237 -0.1232  2.1432
67586SOL    HW214738   9.656   9.037  12.001  0.4336 -0.1889  0.9163
67587SOL     OW14739   1.982   3.928   5.651 -0.3087 -0.8141 -0.0198
67587SOL    HW114740   1.944   3.859   5.705 -0.9980  0.2304  0.8720
67587SOL    HW214741   1.923   3.934   5.575 -0.7426 -0.6047  0.3341
67588SOL     OW14742  12.292   9.440   5.801  0.4992 -0.0042  0.6694
67588SOL    HW114743  12.289   9.368   5.738  1.8645  0.4540  0.0281
67588SOL    HW214744  12.373   9.486   5.779 -0.2031  1.5546  1.2592
67589SOL     OW14745   1.254   2.857  11.319  0.1770  0.1679 -0.0413
67589SOL    HW114746   1.235   2.823  11.407 -1.1689  1.1796  0.0939
67589SOL    HW214747   1.330   2.807  11.290  0.3489 -0.5289  1.5029
67590SOL     OW14748   5.807   4.110   6.448  0.0572 -0.4948 -0.1021
67590SOL    HW114749   5.754   4.162   6.387 -0.6567 -0.5018  0.4967
67590SOL    HW214750   5.760   4.027   6.454  0.0096 -0.4189  0.6045
67591SOL     OW14751   2.469   5.441   1.608  0.1341  0.3018 -0.2607
67591SOL    HW114752   2.510   5.354   1.612 -1.2483 -0.3761 -0.0011
67591SOL    HW214753   2.376   5.424   1.623  0.0563  2.0334  1.7671
67592SOL     OW14754  13.033   6.074   3.772 -0.3509 -0.4465  0.0649
67592SOL    HW114755  12.958   6.058   3.829 -0.0541 -1.0630  0.2974
67592SOL    HW214756  13.080   5.990   3.770 -1.5897 -1.2188 -2.9433
67593SOL     OW14757   5.758   7.916   1.695 -0.4018  0.5023  0.2667
67593SOL    HW114758   5.760   7.835   1.746 -0.5818  0.9373  0.9879
67593SOL    HW214759   5.665   7.929   1.674 -0.0456 -1.8572 -3.8386
67594SOL     OW14760   9.853   9.440   0.995 -0.2726  0.1387  0.1229
67594SOL    HW114761   9.883   9.529   0.981 -0.2757 -0.1085 -1.5973
67594SOL    HW214762   9.816   9.413   0.911 -1.2863 -1.0973  0.9303
67595SOL     OW14763   1.898   0.536   4.666  0.1676 -0.3970  0.0581
67595SOL    HW114764   1.831   0.470   4.649  0.8655 -1.0153 -0.3840
67595SOL    HW214765   1.963   0.522   4.597 -0.9480  2.5678 -1.8151
67596SOL     OW14766   8.903   4.088   8.048 -0.1351 -0.6519  0.0376
67596SOL    HW114767   8.962   4.147   8.001  0.4862  0.3213  1.9281
67596SOL    HW214768   8.821   4.092   7.999  0.9126 -0.9517 -1.8637
67597SOL     OW14769  11.276   2.124  11.032  0.4615  0.1211  0.4665
67597SOL    HW114770  11.230   2.044  11.056 -1.3829  0.7889 -0.6183
67597SOL    HW214771  11.298   2.165  11.116 -0.8592 -0.2811  1.0359
67598SOL     OW14772  10.449   2.193  12.177  0.5020 -0.5079 -0.7725
67598SOL    HW114773  10.509   2.232  12.242  1.2206  0.2945 -1.8877
67598SOL    HW214774  10.364   2.190  12.222  0.9297  0.2613  0.1239
67599SOL     OW14775   0.633   8.017  13.823 -0.1167  0.4169  0.9307
67599SOL    HW114776   0.545   8.030  13.788  0.8163 -1.9767 -2.9252
67599SOL    HW214777   0.635   7.925  13.849  1.5504  0.0181 -0.3955
67600SOL     OW14778   6.423   8.057  11.404 -0.6269  0.2513 -0.0147
67600SOL    HW114779   6.453   8.051  11.313  0.7164 -0.7837  0.4536
67600SOL    HW214780   6.504   8.055  11.455 -1.3794  0.5171  1.2243
67601SOL     OW14781   6.697  10.903  13.666 -0.4419  0.1904  0.1266
67601SOL    HW114782   6.648  10.845  13.724  0.1629 -1.4511 -0.9269
67601SOL    HW214783   6.698  10.857  13.582 -2.7641  3.2088 -1.7602
67602SOL     OW14784   8.835  10.902   4.094  0.1239  0.5149  0.0591
67602SOL    HW114785   8.894  10.898   4.170  1.5270  0.7177 -0.9785
67602SOL    HW214786   8.747  10.902   4.132  0.7863  0.5373  1.6781
67603SOL     OW14787  10.968   1.769   8.115 -0.2155 -0.4202 -0.2351
67603SOL    HW114788  10.981   1.710   8.041  3.3393  2.7947 -2.5485
67603SOL    HW214789  10.942   1.852   8.076  1.7431  1.4138  2.0003
67604SOL     OW14790  11.809   8.501  10.370  0.3566 -0.2063  0.4619
67604SOL    HW114791  11.803   8.407  10.387  1.1727 -0.8071 -2.1792
67604SOL    HW214792  11.902   8.518  10.359  0.1105  0.6012 -0.5678
67605SOL     OW14793   0.486  10.693   6.683 -0.0808  0.1513 -0.0322
67605SOL    HW114794   0.426  10.622   6.708  0.3540  0.0352  0.7166
67605SOL    HW214795   0.566  10.674   6.732  0.1136  1.0317 -0.0034
67606SOL     OW14796   6.303   3.697   3.915 -0.2135  0.1208  0.1977
67606SOL    HW114797   6.339   3.782   3.891  0.2299 -0.0648  0.1847
67606SOL    HW214798   6.250   3.714   3.992  1.2718  0.1423  1.2630
67607SOL     OW14799   4.155  11.417  11.854  0.4453 -0.6577  0.9681
67607SOL    HW114800   4.085  11.437  11.792 -0.4801  1.0825  2.4791
67607SOL    HW214801   4.170  11.323  11.844 -1.5916 -0.9379  0.0541
67608SOL     OW14802   2.922   7.223   3.751 -0.4555  0.9061  0.2677
67608SOL    HW114803   2.975   7.143   3.749  1.2100  1.9837 -0.4041
67608SOL    HW214804   2.944   7.269   3.670 -2.1964  1.5606  0.1232
67609SOL     OW14805   2.783   3.589   7.286 -0.2759  0.0694  0.5560
67609SOL    HW114806   2.863   3.560   7.240 -0.9361  1.0524 -1.3061
67609SOL    HW214807   2.737   3.507   7.306  0.8575 -0.4756  1.0521
67610SOL     OW14808   8.373   2.012  11.159 -0.2695 -0.0094 -0.3196
67610SOL    HW114809   8.297   2.028  11.215 -0.7572 -1.2047 -0.6004
67610SOL    HW214810   8.364   1.920  11.132  1.7427 -0.4679  0.3712
67611SOL     OW14811   3.830  12.972   7.627  0.3129 -0.1397 -0.4305
67611SOL    HW114812   3.773  12.924   7.567  0.8036  0.3050 -1.2750
67611SOL    HW214813   3.914  12.927   7.621  0.0716 -0.7848  0.7982
67612SOL     OW14814   1.387  13.262   4.796 -0.2157  0.1277  0.3039
67612SOL    HW114815   1.387  13.294   4.886 -1.8883 -0.1921  0.4388
67612SOL    HW214816   1.452  13.191   4.796 -0.5165 -0.1671  1.3657
67613SOL     OW14817  10.280  10.160  12.833 -0.3145  0.0427  0.0156
67613SOL    HW114818  10.301  10.228  12.769 -0.8939 -0.2193 -0.4573
67613SOL    HW214819  10.187  10.172  12.853  0.1460  0.9896  1.8653
67614SOL     OW14820   9.957  13.590  11.231  0.7108 -0.6226 -0.3744
67614SOL    HW114821   9.981  13.533  11.159  1.0521  1.1641 -1.7412
67614SOL    HW214822  10.029  13.581  11.294  0.8658 -1.5112 -0.6692
67615SOL     OW14823  11.044   4.943   4.846 -0.4333  0.0601  0.0498
67615SOL    HW114824  11.107   4.872   4.834 -0.4979 -0.1235  0.7282
67615SOL    HW214825  10.968   4.917   4.794  0.2920  0.6175 -1.3357
67616SOL     OW14826   2.433  12.088   2.083  0.5360 -0.5169  0.2929
67616SOL    HW114827   2.466  12.177   2.077 -0.9387 -0.0262 -1.4494
67616SOL    HW214828   2.349  12.097   2.129 -0.5383 -0.6614 -1.5271
67617SOL     OW14829   5.077   9.057   1.380 -0.0869 -0.3950 -0.0938
67617SOL    HW114830   5.027   8.977   1.395 -0.3886 -0.1408  0.2750
67617SOL    HW214831   5.168   9.030   1.393 -0.3150 -0.1625  2.5648
67618SOL     OW14832   1.675  13.449   5.100  0.8183 -0.0310  0.1037
67618SOL    HW114833   1.729  13.403   5.164  1.9350 -0.0862 -0.8425
67618SOL    HW214834   1.700  13.410   5.016 -0.5871  0.0603 -0.3737
67619SOL     OW14835   2.590   1.217   5.268  0.1703 -0.2082  0.2571
67619SOL    HW114836   2.522   1.151   5.253  0.1152  0.1529 -1.1511
67619SOL    HW214837   2.671   1.175   5.239  0.7355 -0.8901  2.5457
67620SOL     OW14838  13.453   7.275   4.135  0.4731 -0.0175 -0.1595
67620SOL    HW114839  13.480   7.272   4.227 -0.2001  0.5305  0.0702
67620SOL    HW214840  13.374   7.221   4.132  1.2815 -1.2026 -0.7202
67621SOL     OW14841   5.942   9.518   6.890 -0.0484  0.5450  0.2761
67621SOL    HW114842   5.936   9.451   6.821 -2.0004 -1.2865  2.0644
67621SOL    HW214843   5.852   9.549   6.901  0.5212  2.0767  0.8637
67622SOL     OW14844   6.501  11.044  11.866 -0.7325  0.3648 -0.3647
67622SOL    HW114845   6.496  11.037  11.770  3.0881 -0.1878 -0.6893
67622SOL    HW214846   6.545  11.128  11.882 -0.6777  0.1209  0.8645
67623SOL     OW14847  13.668  11.053   1.138  0.3777 -0.0727  0.3611
67623SOL    HW114848  13.621  10.972   1.116 -0.3611 -0.1883  2.1778
67623SOL    HW214849  13.702  11.085   1.054 -1.1912 -1.0985 -0.7244
67624SOL     OW14850  12.144  13.653   8.887 -0.1743  0.0824  0.1136
67624SOL    HW114851  12.115  13.682   8.800 -1.9100  1.2388  1.0181
67624SOL    HW214852  12.238  13.670   8.888  0.3853 -2.2604 -2.3643
67625SOL     OW14853  13.812   4.304   2.874  0.1892 -0.9936  0.0827
67625SOL    HW114854  13.727   4.338   2.902 -0.1329 -1.1102 -0.7158
67625SOL    HW214855  13.799   4.210   2.868  0.4845 -1.0490  0.3130
67626SOL     OW14856  12.853  12.267  11.823  0.6363 -0.0550 -0.2530
67626SOL    HW114857  12.915  12.340  11.833  0.1247  0.5769 -1.3899
67626SOL    HW214858  12.908  12.189  11.820  1.3398  0.4383 -0.6104
67627SOL     OW14859  11.386  12.554   8.116 -0.8501 -0.0936 -0.0472
67627SOL    HW114860  11.371  12.648   8.126 -2.0642 -0.3812  1.0513
67627SOL    HW214861  11.465  12.537   8.167  0.1341  0.5216 -1.3147
67628SOL     OW14862  10.519  10.606   0.190  0.1976 -0.6622 -0.8009
67628SOL    HW114863  10.464  10.632   0.116 -0.0948 -0.1067 -0.3946
67628SOL    HW214864  10.495  10.515   0.207  0.2183 -0.7737 -1.3458
67629SOL     OW14865   7.046   9.474  11.283 -0.0782  0.4732  0.1257
67629SOL    HW114866   6.983   9.527  11.332 -1.7081 -2.6422  1.7256
67629SOL    HW214867   7.092   9.423  11.349  1.3046 -0.2227 -1.2922
67630SOL     OW14868   0.777  13.184  12.991  0.3985 -0.2957  0.0454
67630SOL    HW114869   0.735  13.269  12.973  0.5748 -0.6724 -2.5507
67630SOL    HW214870   0.783  13.142  12.905  0.8207 -2.7353  1.1883
67631SOL     OW14871   0.433  13.868   5.631  0.5573 -0.2214 -0.0091
67631SOL    HW114872   0.452  13.925   5.557  0.7550 -0.2350  0.0289
67631SOL    HW214873   0.387  13.924   5.693  0.2202 -0.2620 -0.2230
67632SOL     OW14874   6.738   5.707   6.682  0.2277  0.0651 -0.2351
67632SOL    HW114875   6.723   5.618   6.713 -0.0387 -0.0006 -0.5482
67632SOL    HW214876   6.706   5.763   6.753  0.8693 -0.0842  0.1819
67633SOL     OW14877   4.387  13.809   7.901 -0.1357  0.2530  0.4797
67633SOL    HW114878   4.402  13.750   7.827  1.8718  1.2091  0.0601
67633SOL    HW214879   4.339  13.756   7.965  2.7839 -2.3484  0.7328
67634SOL     OW14880   9.643   8.590   1.244  0.3781 -0.3863 -0.6833
67634SOL    HW114881   9.604   8.540   1.173 -0.6252 -0.6933  0.0564
67634SOL    HW214882   9.590   8.567   1.321 -0.6302  2.3385 -0.4441
67635SOL     OW14883   0.701   4.789   0.632  0.2056 -0.7882  0.0798
67635SOL    HW114884   0.634   4.853   0.609 -1.3513 -2.0884  0.7791
67635SOL    HW214885   0.747   4.828   0.707 -1.5727 -0.9698  1.3327
67636SOL     OW14886   0.027   6.188  10.417  0.0342  0.3219 -0.6744
67636SOL    HW114887   0.064   6.247  10.352  1.3198  0.0331 -0.2340
67636SOL    HW214888  -0.037   6.241  10.465  0.1514  0.9465 -1.2025
67637SOL     OW14889   4.904  10.324  13.072 -0.6163  0.0511 -0.7742
67637SOL    HW114890   4.822  10.279  13.052 -1.6824  1.0230  1.0883
67637SOL    HW214891   4.946  10.270  13.139 -0.6796  0.5152 -0.3504
67638SOL     OW14892  10.063   2.665   3.315 -0.5705  0.2908  0.0955
67638SOL    HW114893  10.004   2.739   3.331  0.4220  1.4494 -1.3046
67638SOL    HW214894  10.114   2.691   3.238  1.1175 -1.0671  0.6802
67639SOL     OW14895   2.212   9.114   3.958 -0.4565  0.2249  0.2268
67639SOL    HW114896   2.300   9.141   3.985  0.1540 -2.7187  1.6538
67639SOL    HW214897   2.225   9.034   3.907 -2.2353  0.7867 -1.2370
67640SOL     OW14898   3.717   7.041   4.644 -0.5650  0.2450  0.2958
67640SOL    HW114899   3.700   7.060   4.552  0.9359  0.9804  0.1349
67640SOL    HW214900   3.650   6.977   4.668  0.5753 -2.0169 -2.0365
67641SOL     OW14901   6.135   7.659   5.721 -0.1794  0.2698 -0.4684
67641SOL    HW114902   6.093   7.579   5.690  2.2373 -1.2879 -0.0415
67641SOL    HW214903   6.217   7.629   5.760  1.2682  3.0454 -1.1075
67642SOL     OW14904   1.659   1.965  12.943 -0.3145  0.5453  0.2929
67642SOL    HW114905   1.672   2.019  12.865 -1.2233  0.4944  0.0959
67642SOL    HW214906   1.643   2.028  13.014 -1.7137  0.5308 -0.0036
67643SOL     OW14907  11.882   3.782   7.330  0.4022 -0.1895 -0.2781
67643SOL    HW114908  11.897   3.844   7.401 -1.0116  1.2004 -1.1082
67643SOL    HW214909  11.829   3.713   7.369  2.8439 -1.4920  0.9111
67644SOL     OW14910  12.716   1.413   3.560  0.1922  0.3686  0.2205
67644SOL    HW114911  12.804   1.436   3.587 -0.3050  0.0918  2.2467
67644SOL    HW214912  12.691   1.340   3.617 -1.2205  0.1998 -0.5445
67645SOL     OW14913   9.764  12.807  10.971 -0.1871 -0.4072  0.0698
67645SOL    HW114914   9.835  12.872  10.971  1.0539 -1.6875  0.9081
67645SOL    HW214915   9.745  12.792  10.879 -0.0497  0.6670 -0.1496
67646SOL     OW14916  13.061   5.421  10.907  0.0113  0.2331  0.6322
67646SOL    HW114917  12.983   5.462  10.943 -0.3139 -0.0948  0.2948
67646SOL    HW214918  13.038   5.397  10.818  1.2575  2.2938 -0.3148
67647SOL     OW14919   9.955   0.390  10.451  0.6574  0.1023 -0.6291
67647SOL    HW114920  10.007   0.363  10.376 -0.8864 -1.1043 -1.3376
67647SOL    HW214921   9.895   0.456  10.416  0.4613  0.1128 -0.2816
67648SOL     OW14922   2.941  12.983   7.329  0.0006  0.2023 -0.5322
67648SOL    HW114923   2.995  12.904   7.326 -0.3900 -0.0728 -0.3623
67648SOL    HW214924   2.990  13.048   7.278  0.7076  0.0939 -0.0082
67649SOL     OW14925   4.225   4.579   7.318  0.0049 -0.0792 -0.1604
67649SOL    HW114926   4.230   4.494   7.361 -1.9909  0.0694  0.4743
67649SOL    HW214927   4.150   4.622   7.359  1.0342  2.0488 -0.3796
67650SOL     OW14928   1.766   6.860   3.651  0.4289 -0.1729 -0.4367
67650SOL    HW114929   1.737   6.858   3.560  1.8886  0.0644 -0.9235
67650SOL    HW214930   1.716   6.932   3.690  1.2286  1.0567 -1.5841
67651SOL     OW14931  13.413   6.171   0.924 -0.1145 -0.3183  0.2195
67651SOL    HW114932  13.478   6.237   0.898  0.6877 -0.2410  2.2793
67651SOL    HW214933  13.461   6.110   0.980 -1.9286  0.0861  2.3365
67652SOL     OW14934   9.680   0.124   6.693  0.5785 -0.3801 -0.1598
67652SOL    HW114935   9.652   0.214   6.709 -0.4411 -0.7600  0.2431
67652SOL    HW214936   9.640   0.101   6.610  0.9898 -0.4122 -0.3538
67653SOL     OW14937   3.238   3.851   1.382  0.4174  0.0583 -1.1756
67653SOL    HW114938   3.216   3.919   1.318 -2.0943 -0.1461 -0.6258
67653SOL    HW214939   3.238   3.770   1.331  0.2787  0.1087 -1.2568
67654SOL     OW14940   8.484  12.555  13.237  0.2934 -0.1560 -0.5119
67654SOL    HW114941   8.558  12.516  13.283  0.8668  0.8812 -0.5385
67654SOL    HW214942   8.456  12.628  13.292 -1.6576 -1.3817  0.2378
67655SOL     OW14943   2.901   7.223  13.296 -0.6044  0.4756  0.7109
67655SOL    HW114944   2.910   7.255  13.386 -1.7569 -0.3679  1.1617
67655SOL    HW214945   2.820   7.171  13.298 -0.7493  0.5999 -0.8617
67656SOL     OW14946   9.587   8.964  12.255  0.0080 -0.4511  0.5160
67656SOL    HW114947   9.646   8.932  12.187  0.5860 -0.2748  0.9271
67656SOL    HW214948   9.595   8.900  12.326 -0.2314 -0.3801  0.6116
67657SOL     OW14949   7.293   6.075   0.632  0.1688 -0.0264 -0.2220
67657SOL    HW114950   7.347   6.101   0.707 -1.7528  0.0002  1.2348
67657SOL    HW214951   7.293   6.152   0.575  1.1149  0.2006  0.0634
67658SOL     OW14952   8.915   7.119   4.419 -0.5158  0.6207  0.1169
67658SOL    HW114953   8.897   7.200   4.371  0.1014  0.8850  0.3121
67658SOL    HW214954   8.829   7.081   4.437 -0.7701  0.1291 -1.8428
67659SOL     OW14955   5.735   6.617   9.812 -0.3045  0.1412 -0.3776
67659SOL    HW114956   5.768   6.531   9.785 -0.7943  0.3432 -1.7017
67659SOL    HW214957   5.656   6.630   9.759 -0.7049  1.0550  0.4130
67660SOL     OW14958   7.644   2.513   8.041 -0.5683 -0.1993 -0.3173
67660SOL    HW114959   7.656   2.419   8.042  0.6391 -0.0544  0.3244
67660SOL    HW214960   7.598   2.532   8.123  0.8330 -0.0470  0.4528
67661SOL     OW14961   3.336   3.667   6.993 -0.3859 -0.3266  0.1594
67661SOL    HW114962   3.405   3.660   6.927 -0.5477 -0.7699  0.0337
67661SOL    HW214963   3.376   3.715   7.065 -0.7066  1.7600 -0.9493
67662SOL     OW14964   0.253   8.570  11.134  0.3129 -0.1121  0.3323
67662SOL    HW114965   0.243   8.482  11.170 -0.7315 -0.0405  0.2340
67662SOL    HW214966   0.164   8.600  11.117  0.7167 -0.2130 -2.4893
67663SOL     OW14967   1.756   8.947   3.732  0.3267  0.2611  0.1585
67663SOL    HW114968   1.746   9.022   3.791 -1.3837  0.9266 -0.9186
67663SOL    HW214969   1.708   8.876   3.774  0.6524  0.1924  0.4256
67664SOL     OW14970   8.327   1.515   2.247  1.0857  0.3421 -0.2760
67664SOL    HW114971   8.234   1.519   2.271  0.8920 -0.1934 -0.9121
67664SOL    HW214972   8.357   1.606   2.255  0.8561  0.3225  1.2285
67665SOL     OW14973   2.509  10.782   1.677  0.0059 -0.2309 -0.0533
67665SOL    HW114974   2.559  10.702   1.669 -1.4735 -1.3412  1.2260
67665SOL    HW214975   2.522  10.828   1.594  2.5330 -0.7705 -0.0072
67666SOL     OW14976   4.239   5.598   0.060  0.0298 -0.4824 -0.3354
67666SOL    HW114977   4.217   5.515   0.017  1.7487 -0.7117 -0.8526
67666SOL    HW214978   4.326   5.620   0.027 -0.1800  1.2961  0.1661
67667SOL     OW14979   8.325   7.795   6.588  0.9558  0.3680 -0.0485
67667SOL    HW114980   8.287   7.876   6.555 -0.3953  0.1267  0.8688
67667SOL    HW214981   8.253   7.750   6.633  1.0167 -2.4367 -2.4257
67668SOL     OW14982   4.356   4.084   6.836  0.4730 -0.0582 -0.4289
67668SOL    HW114983   4.343   4.020   6.906 -1.4791 -0.5798 -1.1898
67668SOL    HW214984   4.280   4.072   6.779  0.7356  2.0363 -1.3100
67669SOL     OW14985  11.945   1.991   5.288 -0.4298 -0.3251  0.5686
67669SOL    HW114986  11.882   1.921   5.275 -1.6257  0.7238  0.4740
67669SOL    HW214987  11.972   1.983   5.380  0.8399 -1.9779  0.1002
67670SOL     OW14988   8.915  13.336  11.940 -0.0602 -0.1327  0.0132
67670SOL    HW114989   9.011  13.332  11.940 -0.0785 -1.9478 -1.5148
67670SOL    HW214990   8.888  13.257  11.986 -0.7809 -1.0158 -1.8362
67671SOL     OW14991  11.598   4.081   2.733 -0.2481  0.5915  0.7170
67671SOL    HW114992  11.531   4.095   2.666 -0.5190 -0.1559  0.8250
67671SOL    HW214993  11.557   4.111   2.814 -0.2688  0.5917  0.7068
67672SOL     OW14994   5.030   3.808   3.432  0.5257 -0.0593 -0.0461
67672SOL    HW114995   5.086   3.823   3.508  0.8230 -0.6229 -0.1506
67672SOL    HW214996   4.946   3.780   3.469  0.2268  1.0057  0.1202
67673SOL     OW14997  10.282   5.689  11.383 -0.6596  0.1226  0.3511
67673SOL    HW114998  10.220   5.641  11.329  0.5973 -0.1927 -0.8821
67673SOL    HW214999  10.366   5.679  11.337  0.7640 -1.3045  3.0481
67674SOL     OW15000  11.387  10.142   2.195 -0.3116  0.1989  0.1150
67674SOL    HW115001  11.403  10.174   2.283 -0.7181 -0.2154  0.3424
67674SOL    HW215002  11.410  10.049   2.198 -0.1163  0.2290 -0.2735
67675SOL     OW15003   3.647   5.809  13.918 -0.3697  0.1009  0.0020
67675SOL    HW115004   3.622   5.888  13.870 -2.2637  1.7996  3.4025
67675SOL    HW215005   3.722   5.835  13.971 -1.0263 -0.3267  1.1843
67676SOL     OW15006  11.943   9.609   3.165 -0.2455  0.2272  0.2203
67676SOL    HW115007  12.026   9.572   3.193  0.0577  0.6794 -0.0605
67676SOL    HW215008  11.943   9.599   3.070 -1.5339 -1.8501  0.3683
67677SOL     OW15009  12.067  10.423   9.399 -0.1653  0.0858 -0.0721
67677SOL    HW115010  12.060  10.344   9.453 -0.3028 -0.5649 -1.0044
67677SOL    HW215011  12.012  10.487   9.442  0.5625 -0.0753  1.1369
67678SOL     OW15012   9.031   9.142   9.116 -0.1720 -0.1026 -1.3318
67678SOL    HW115013   9.048   9.077   9.048  2.3789 -1.1244  0.1039
67678SOL    HW215014   8.966   9.102   9.173  1.5067 -1.6048 -0.3622
67679SOL     OW15015   4.833   8.809   9.175  0.0875 -0.1776 -0.1868
67679SOL    HW115016   4.753   8.758   9.169  0.6635 -1.1686  0.2647
67679SOL    HW215017   4.817   8.887   9.122 -1.0709 -0.4838 -0.3019
67680SOL     OW15018  10.370  11.169  13.514 -0.8279 -0.3182 -0.0690
67680SOL    HW115019  10.404  11.205  13.597  0.5225 -1.0488 -0.2720
67680SOL    HW215020  10.371  11.243  13.454 -0.0268 -0.2000  0.0749
67681SOL     OW15021   7.723  13.406  11.122 -0.2122  0.0993 -0.4903
67681SOL    HW115022   7.725  13.421  11.217 -0.3151 -2.2842 -0.0464
67681SOL    HW215023   7.815  13.403  11.097 -0.1834  1.8708 -0.7200
67682SOL     OW15024  12.847   5.793  10.756  0.4920  0.1100 -0.2948
67682SOL    HW115025  12.942   5.804  10.746  0.5046 -0.7482 -1.4263
67682SOL    HW215026  12.831   5.703  10.725 -0.5787 -0.0752  0.7292
67683SOL     OW15027   4.607   6.286  11.739 -0.1607  0.2089 -0.1508
67683SOL    HW115028   4.670   6.235  11.791  0.0097  0.7191  0.1510
67683SOL    HW215029   4.571   6.350  11.801 -0.0583  0.7339 -0.6269
67684SOL     OW15030   6.938   8.331   5.400 -0.3831  0.5231  0.9142
67684SOL    HW115031   6.958   8.387   5.325  1.6644  0.3009  1.2337
67684SOL    HW215032   6.978   8.247   5.378 -1.6348 -0.2071  1.3480
67685SOL     OW15033   5.428   4.092   6.578  0.2575 -0.5660 -0.7041
67685SOL    HW115034   5.505   4.036   6.570 -1.3211 -2.7933 -1.3870
67685SOL    HW215035   5.393   4.098   6.489 -2.0967 -2.3428 -0.0086
67686SOL     OW15036  13.827  13.649  12.688 -0.3206 -0.2327 -0.5986
67686SOL    HW115037  13.897  13.594  12.724 -1.7602 -1.9033 -0.2454
67686SOL    HW215038  13.781  13.593  12.626 -2.1524  0.3828  0.1450
67687SOL     OW15039   5.707   8.994   2.617  0.0029 -0.3486 -0.6007
67687SOL    HW115040   5.724   8.927   2.683  2.3062 -0.1322 -0.8860
67687SOL    HW215041   5.655   9.060   2.662  0.9954 -0.5131  0.8262
67688SOL     OW15042   0.075   5.079  11.693  0.0593 -0.1937 -0.1682
67688SOL    HW115043   0.018   5.153  11.713  0.8485  0.2365  0.4890
67688SOL    HW215044   0.127   5.108  11.618 -1.4358 -1.0545 -1.6378
67689SOL     OW15045   3.952  10.711  10.340  0.3890  0.4540  0.3763
67689SOL    HW115046   3.857  10.713  10.352  0.3540  2.2408  0.0665
67689SOL    HW215047   3.980  10.632  10.386 -1.3989 -0.9535 -0.7764
67690SOL     OW15048  12.953  10.185   4.507  0.5938 -0.4040 -0.8898
67690SOL    HW115049  12.932  10.276   4.530  0.5504 -0.4846 -0.6026
67690SOL    HW215050  13.008  10.155   4.579  1.2952 -0.3492 -1.3970
67691SOL     OW15051   2.196   9.757  12.474 -0.3333 -0.3215 -0.2917
67691SOL    HW115052   2.148   9.677  12.451  1.7978 -1.9305  0.5676
67691SOL    HW215053   2.197   9.757  12.569  0.2319  0.3807 -0.2937
67692SOL     OW15054  11.248  13.368   4.983  0.2918 -0.1247  0.1841
67692SOL    HW115055  11.158  13.382   4.951 -0.1284 -2.0745  0.3682
67692SOL    HW215056  11.284  13.456   4.994 -2.2711  0.8153  2.0439
67693SOL     OW15057   3.282   9.292  10.448 -0.4008  0.0595  0.7533
67693SOL    HW115058   3.312   9.381  10.468 -0.6760  0.2482  0.3359
67693SOL    HW215059   3.269   9.292  10.353 -1.2924 -0.1474  0.8651
67694SOL     OW15060   9.651  10.044  12.483  0.1495  0.2851  0.4875
67694SOL    HW115061   9.668  10.039  12.577  0.9349  0.5643  0.3664
67694SOL    HW215062   9.558  10.026  12.474 -0.1604  1.3522  1.4168
67695SOL     OW15063   3.989   8.846   5.257 -0.1129  0.4264  0.4769
67695SOL    HW115064   3.901   8.884   5.263 -0.2032  0.3254 -0.0984
67695SOL    HW215065   4.040   8.911   5.208  0.2592  0.6952  1.2137
67696SOL     OW15066   6.252   6.367  10.011  0.2329  0.2044  0.0989
67696SOL    HW115067   6.318   6.418  10.058  0.3247  0.1427  0.0368
67696SOL    HW215068   6.301   6.319   9.945 -0.1756  2.1547 -1.7324
67697SOL     OW15069   2.721   2.682   9.555  0.1477  0.5654 -0.2324
67697SOL    HW115070   2.671   2.754   9.594  1.5921  1.4311  0.1232
67697SOL    HW215071   2.739   2.623   9.628 -0.1972  0.3526 -0.3208
67698SOL     OW15072  11.589   1.813   3.997  0.1905  0.3003 -0.1692
67698SOL    HW115073  11.567   1.902   4.026  0.0769  0.6394 -1.2745
67698SOL    HW215074  11.637   1.825   3.915  0.1339 -0.6670 -0.3614
67699SOL     OW15075   9.851   4.566   9.295  0.8339  0.3558  0.1206
67699SOL    HW115076   9.788   4.621   9.343  0.2421  0.2623 -0.5392
67699SOL    HW215077   9.908   4.531   9.364 -1.5891 -1.9192  1.1646
67700SOL     OW15078  13.244  10.191   4.095  0.0702 -0.2377 -0.0373
67700SOL    HW115079  13.159  10.234   4.094 -0.1632 -0.6696 -2.0134
67700SOL    HW215080  13.229  10.110   4.145 -0.6554 -0.2497 -0.2581
67701SOL     OW15081   0.940  12.719  13.180 -0.1546  0.3819 -0.4892
67701SOL    HW115082   0.909  12.704  13.269  0.7488  1.2015 -0.0186
67701SOL    HW215083   1.028  12.682  13.179  0.8021  2.4882 -0.2917
67702SOL     OW15084   1.019   4.258   9.385  0.0302 -0.2065  0.7530
67702SOL    HW115085   0.958   4.203   9.336 -0.6549  0.6609  0.6014
67702SOL    HW215086   1.038   4.331   9.326 -0.5928  0.7099  1.6536
67703SOL     OW15087   7.179   6.545   8.888  0.1816  0.1973 -0.5143
67703SOL    HW115088   7.086   6.553   8.864  0.4390 -0.0990 -1.6971
67703SOL    HW215089   7.185   6.458   8.927 -0.2922  0.7744  0.8794
67704SOL     OW15090   5.444  11.661   2.081  0.5665 -0.0393  0.0883
67704SOL    HW115091   5.537  11.654   2.059  0.7688  1.3207  0.4291
67704SOL    HW215092   5.401  11.678   1.997  0.3178 -2.6936 -0.4185
67705SOL     OW15093   6.049   2.114   8.689  0.5255 -0.1710 -0.4085
67705SOL    HW115094   5.983   2.053   8.721 -0.8822  0.9579 -1.0553
67705SOL    HW215095   6.092   2.069   8.617  0.6589 -1.0203  0.1911
67706SOL     OW15096   4.335   9.722   5.201 -0.5273 -0.4896  0.1037
67706SOL    HW115097   4.424   9.757   5.196 -0.5916  0.1835  2.4153
67706SOL    HW215098   4.297   9.741   5.116  0.9361  0.9561 -0.2799
67707SOL     OW15099  13.741   2.436  13.071  0.1635 -0.5101 -0.5628
67707SOL    HW115100  13.646   2.433  13.064  0.1009  0.7192 -0.4117
67707SOL    HW215101  13.762   2.529  13.081  1.2785 -0.8499  0.6523
67708SOL     OW15102  10.388   0.713  11.198  0.3445 -0.1322 -0.6859
67708SOL    HW115103  10.404   0.620  11.185  2.1281  0.2264 -1.3746
67708SOL    HW215104  10.428   0.755  11.122 -0.8822  1.1769 -0.6538
67709SOL     OW15105  11.763   2.434   6.473  0.1750  0.2647 -0.2694
67709SOL    HW115106  11.837   2.377   6.492  0.1441  0.6372  1.0880
67709SOL    HW215107  11.793   2.521   6.499 -0.0592  0.7665 -1.5661
67710SOL     OW15108  13.309   4.417   4.393  0.1739  0.1246 -0.8738
67710SOL    HW115109  13.229   4.463   4.367  0.3485  1.7686  1.2361
67710SOL    HW215110  13.380   4.473   4.361  0.4882 -0.6289 -1.5375
67711SOL     OW15111   5.769   0.240   4.368 -0.0229  0.0701 -0.0619
67711SOL    HW115112   5.787   0.307   4.302 -0.3768  1.1405  0.8703
67711SOL    HW215113   5.699   0.279   4.422  0.3700 -0.6852  1.0321
67712SOL     OW15114  11.350   7.598   6.735  0.1368  0.5855 -0.4403
67712SOL    HW115115  11.410   7.670   6.753 -1.3780  2.0975 -1.1379
67712SOL    HW215116  11.319   7.570   6.821  2.3820 -0.7971  0.0082
67713SOL     OW15117   5.255  10.550  11.556  0.3531 -0.8403  0.5437
67713SOL    HW115118   5.246  10.619  11.491  0.1510 -0.6224  0.7987
67713SOL    HW215119   5.289  10.475  11.508  0.1093 -0.7108  0.1711
67714SOL     OW15120  12.138   6.334  12.256  0.3740  0.1624 -0.2592
67714SOL    HW115121  12.173   6.404  12.312 -1.3770 -0.7160  2.1044
67714SOL    HW215122  12.056   6.370  12.222 -0.0605 -0.3726  0.2052
67715SOL     OW15123   4.673   5.328   7.580  0.9135 -0.0724  0.0534
67715SOL    HW115124   4.602   5.293   7.634  1.3642 -1.4948 -0.2369
67715SOL    HW215125   4.752   5.308   7.630  1.1169  2.5911  0.9783
67716SOL     OW15126   5.210   9.398   1.070 -0.5073 -0.1482 -0.0465
67716SOL    HW115127   5.285   9.348   1.103 -1.2233 -1.2250 -0.0420
67716SOL    HW215128   5.231   9.415   0.979 -0.8928 -1.7020 -0.4484
67717SOL     OW15129   9.935   0.952  12.318  0.1136  0.2332  0.0484
67717SOL    HW115130   9.943   0.995  12.233  1.1324 -1.1240 -0.5741
67717SOL    HW215131   9.905   1.021  12.377  0.9887  1.5997 -1.0574
67718SOL     OW15132   2.748   6.809   8.478 -0.0385 -0.3451  0.1887
67718SOL    HW115133   2.842   6.790   8.478 -0.3462 -2.0744  0.8526
67718SOL    HW215134   2.725   6.813   8.571 -0.2170  2.5711  0.1061
67719SOL     OW15135   7.115   5.578  13.987  0.0820  0.2715 -0.0844
67719SOL    HW115136   7.147   5.658  14.029 -0.2499  0.5275 -0.3148
67719SOL    HW215137   7.032   5.559  14.031 -0.9804  1.3262 -1.5248
67720SOL     OW15138  10.673   6.903  13.766  0.5873 -0.5440 -0.0441
67720SOL    HW115139  10.679   6.974  13.829  1.7938 -1.6647  1.1744
67720SOL    HW215140  10.587   6.863  13.783  0.7524 -0.6139  0.6469
67721SOL     OW15141  13.697  12.382   6.932 -0.4460 -0.1988  0.3335
67721SOL    HW115142  13.672  12.372   7.024  0.7326 -0.8040  0.6058
67721SOL    HW215143  13.792  12.378   6.932 -0.2674  2.2928 -0.6370
67722SOL     OW15144   7.985   4.228  11.536 -0.4609 -0.5540  0.4623
67722SOL    HW115145   7.958   4.237  11.445 -1.4293 -0.9905  0.6868
67722SOL    HW215146   7.987   4.318  11.570  0.4781 -0.3408 -0.1354
67723SOL     OW15147  11.865   9.156   0.799  0.1247 -0.1005  0.0566
67723SOL    HW115148  11.889   9.091   0.732 -0.5247 -1.2920  0.9361
67723SOL    HW215149  11.825   9.227   0.750  0.4694 -0.5533 -0.9090
67724SOL     OW15150   8.416   0.099   4.399 -0.0739  0.2331 -0.5585
67724SOL    HW115151   8.495   0.097   4.453  0.2428 -1.8301 -1.0074
67724SOL    HW215152   8.344   0.098   4.461  0.2468  1.2943 -0.1542
67725SOL     OW15153  10.763   3.408  12.966  0.5396 -0.0074 -0.5273
67725SOL    HW115154  10.761   3.363  13.051 -0.4265  0.4324 -0.3078
67725SOL    HW215155  10.836   3.368  12.920  0.0421 -1.4247 -0.1285
67726SOL     OW15156   6.538   5.172  10.389 -0.0083  0.3587 -0.0449
67726SOL    HW115157   6.578   5.164  10.475  1.7018 -0.0683 -0.8342
67726SOL    HW215158   6.520   5.266  10.379  0.1483  0.4599  0.6220
67727SOL     OW15159   7.685   0.599  10.679 -0.5286 -0.1422  0.0261
67727SOL    HW115160   7.674   0.518  10.629  1.0435 -0.9611  0.9136
67727SOL    HW215161   7.724   0.661  10.618 -1.2152 -0.2309 -0.5059
67728SOL     OW15162   5.052   7.466   1.692 -0.5916  0.4513 -0.0708
67728SOL    HW115163   5.090   7.520   1.623 -1.4524  0.3835 -0.6098
67728SOL    HW215164   5.092   7.499   1.773 -0.4921  1.3501 -0.4738
67729SOL     OW15165   3.192   5.775   6.957 -0.1465  0.2430 -0.3799
67729SOL    HW115166   3.206   5.683   6.939 -0.1862  0.3209 -0.8103
67729SOL    HW215167   3.257   5.797   7.024  0.6824  0.1918 -1.1456
67730SOL     OW15168   5.385   8.890   5.560  0.6848  0.3404 -0.2612
67730SOL    HW115169   5.472   8.885   5.522  0.8822 -1.7698  0.3131
67730SOL    HW215170   5.389   8.962   5.623  2.4275 -0.5317  0.6857
67731SOL     OW15171   0.100  12.423   9.903 -0.2186 -0.3517  0.1865
67731SOL    HW115172   0.090  12.475   9.823 -0.6065 -1.2955 -0.4011
67731SOL    HW215173   0.100  12.487   9.974 -3.4814  0.3521 -0.2809
67732SOL     OW15174   0.738   8.707  12.675 -0.0230  0.5182 -0.2044
67732SOL    HW115175   0.764   8.629  12.724 -1.0491  0.4883  0.3161
67732SOL    HW215176   0.717   8.771  12.742 -0.1922  0.9110 -0.6268
67733SOL     OW15177   3.846   7.491   7.019 -0.5052  0.1772  0.0186
67733SOL    HW115178   3.783   7.425   6.989  0.0671 -0.0822 -0.6381
67733SOL    HW215179   3.833   7.565   6.960  1.1460 -0.6140 -1.4276
67734SOL     OW15180   7.525  11.555   8.253  0.0663  0.2059 -0.4004
67734SOL    HW115181   7.496  11.605   8.177 -0.5592 -1.3791 -1.2695
67734SOL    HW215182   7.500  11.609   8.328 -2.4672  0.3272 -1.2100
67735SOL     OW15183   4.573   8.057   5.442  0.4437 -0.0413 -0.3780
67735SOL    HW115184   4.528   7.996   5.383  0.2976  1.3827 -1.7985
67735SOL    HW215185   4.624   8.113   5.384  0.8804  0.9482  0.9260
67736SOL     OW15186  10.681  12.240   3.822 -0.0277  0.8102 -0.3831
67736SOL    HW115187  10.708  12.326   3.791 -0.8507  1.8791  1.6209
67736SOL    HW215188  10.594  12.227   3.785 -0.1877  1.1806 -0.1462
67737SOL     OW15189   4.523   4.583   6.713 -0.3554 -0.1574  0.0613
67737SOL    HW115190   4.573   4.559   6.790  1.0748 -2.4988 -1.4888
67737SOL    HW215191   4.481   4.501   6.685 -1.3100  0.7597 -1.3249
67738SOL     OW15192   2.110   4.093   8.851  0.5292  0.0511 -0.1006
67738SOL    HW115193   2.072   4.066   8.768  0.2004  1.4888 -0.4414
67738SOL    HW215194   2.064   4.174   8.874  2.9061  1.5440 -0.2185
67739SOL     OW15195   9.087   4.561   6.789  0.1837 -0.0070 -0.2715
67739SOL    HW115196   9.034   4.640   6.796  1.4565  0.7375  4.3794
67739SOL    HW215197   9.170   4.591   6.752 -0.2792  0.1981 -1.1719
67740SOL     OW15198   3.045  14.036   2.080  0.2518 -0.2280 -0.5092
67740SOL    HW115199   2.953  14.021   2.103  0.2883 -0.0124 -0.2048
67740SOL    HW215200   3.052  14.010   1.989 -0.5372  1.3750 -1.0801
67741SOL     OW15201   7.981  13.648   4.865 -0.2047  0.3187  0.8473
67741SOL    HW115202   8.016  13.560   4.876  0.2693  0.3504 -0.2920
67741SOL    HW215203   7.936  13.646   4.781  2.1255  1.8544 -0.5536
67742SOL     OW15204  10.672   7.885  11.665  0.2459 -0.5904 -0.1278
67742SOL    HW115205  10.630   7.971  11.659  0.4801 -0.3656  1.2560
67742SOL    HW215206  10.693   7.863  11.574 -0.6795  0.3732 -0.6028
67743SOL     OW15207  11.333   7.815  10.072  0.5860  0.2353  0.1572
67743SOL    HW115208  11.335   7.725  10.039  2.0501  0.0627  0.6717
67743SOL    HW215209  11.415   7.854  10.043  1.2453  0.5403  2.2378
67744SOL     OW15210   0.123   7.947   4.291  0.3865 -0.9631  0.4347
67744SOL    HW115211   0.149   7.989   4.373  0.9247  0.3432 -0.3783
67744SOL    HW215212   0.054   7.886   4.317  0.5598 -0.5920  1.8636
67745SOL     OW15213   6.939   5.610   3.547  0.1753 -0.1094  0.2680
67745SOL    HW115214   6.844   5.616   3.540  0.3482  2.1379 -1.0477
67745SOL    HW215215   6.960   5.524   3.509 -1.2717 -0.3914  0.0340
67746SOL     OW15216   0.755   2.618   2.065  0.3717  0.3113  0.5790
67746SOL    HW115217   0.821   2.683   2.043  0.1215  0.1260 -0.8755
67746SOL    HW215218   0.672   2.663   2.049  0.1638  0.1487  1.1771
67747SOL     OW15219   4.532   4.491   4.101  0.7787 -0.0893 -0.4200
67747SOL    HW115220   4.498   4.404   4.124  1.7745 -0.5234 -0.5606
67747SOL    HW215221   4.475   4.520   4.030  0.8111 -0.8832 -0.7783
67748SOL     OW15222   6.410   0.850   7.227  0.0871  0.4413 -0.2893
67748SOL    HW115223   6.489   0.795   7.233 -0.7780 -0.9030 -0.6965
67748SOL    HW215224   6.440   0.930   7.185  1.0161 -0.5607 -1.6352
67749SOL     OW15225   2.771  11.724   9.636  0.6027 -0.2032  0.1457
67749SOL    HW115226   2.801  11.685   9.718 -0.7794  0.1964  0.8769
67749SOL    HW215227   2.762  11.651   9.576  1.0561 -0.5786  0.5257
67750SOL     OW15228  10.676   2.245   2.285  0.2015 -0.1446 -0.3293
67750SOL    HW115229  10.690   2.239   2.379 -1.4125  0.8819  0.0196
67750SOL    HW215230  10.621   2.170   2.263  1.5745 -1.0832 -0.7159
67751SOL     OW15231  12.583   8.769  12.229 -0.2369 -0.2249 -0.3112
67751SOL    HW115232  12.648   8.739  12.293 -1.3173 -0.0566  0.9185
67751SOL    HW215233  12.630   8.771  12.146  1.8570  1.7255  0.8196
67752SOL     OW15234  11.045   1.079   3.503 -0.0956 -0.1264  0.2175
67752SOL    HW115235  10.962   1.030   3.508 -0.1145 -0.0808  0.3593
67752SOL    HW215236  11.110   1.019   3.538 -0.2915  0.3476  1.4381
67753SOL     OW15237  13.232  11.680   0.732  0.3905  0.1440  0.0596
67753SOL    HW115238  13.270  11.768   0.729 -0.3459  0.5412  1.4599
67753SOL    HW215239  13.243  11.646   0.644  2.0855  1.0377 -0.1224
67754SOL     OW15240   2.050  13.228   2.028 -0.2228 -0.1259  0.1161
67754SOL    HW115241   2.099  13.295   1.980  2.8402 -0.9641  1.8237
67754SOL    HW215242   2.025  13.269   2.110  1.5713 -0.9111  1.1233
67755SOL     OW15243   1.856  12.623  10.333 -0.0156 -0.1545 -0.0572
67755SOL    HW115244   1.906  12.694  10.372  0.4899 -1.1456  1.1669
67755SOL    HW215245   1.922  12.566  10.293 -0.2858 -0.6386  0.1753
67756SOL     OW15246   0.978  11.199   1.503  0.4010  0.7881 -0.0435
67756SOL    HW115247   0.984  11.131   1.570 -0.9631  2.1424  1.5295
67756SOL    HW215248   0.908  11.170   1.445  1.6932 -0.4668 -1.0478
67757SOL     OW15249  12.343   3.884  12.009  0.4744 -0.6267 -0.0609
67757SOL    HW115250  12.334   3.971  12.047  0.5606  0.2122 -1.8653
67757SOL    HW215251  12.420   3.847  12.053  1.3055  0.7665 -0.2780
67758SOL     OW15252   1.851  11.278   3.666  0.0361  0.3335  0.1470
67758SOL    HW115253   1.755  11.274   3.664  0.0355 -0.9943  1.2792
67758SOL    HW215254   1.879  11.198   3.622  0.6859  1.5306 -1.7230
67759SOL     OW15255   8.854   9.048   9.295 -0.0393 -0.4990 -0.1354
67759SOL    HW115256   8.782   9.095   9.254  1.4035  2.2606  0.2403
67759SOL    HW215257   8.813   8.996   9.364 -1.8977 -0.9942 -1.5641
67760SOL     OW15258   5.228   3.343  11.585 -0.0318 -0.0625  0.2251
67760SOL    HW115259   5.310   3.381  11.555 -1.2009  0.2408 -3.0156
67760SOL    HW215260   5.252   3.256  11.618  1.7331  0.5961  0.7658
67761SOL     OW15261   6.883  13.426   8.704 -0.2005  0.2281  0.3698
67761SOL    HW115262   6.831  13.467   8.774 -0.1673 -0.1607  0.6283
67761SOL    HW215263   6.911  13.342   8.742 -2.2506 -1.1483 -0.9501
67762SOL     OW15264  12.515   5.254   6.833 -0.1207  0.4744 -0.1341
67762SOL    HW115265  12.515   5.192   6.760  0.3896  0.2395  0.0609
67762SOL    HW215266  12.602   5.245   6.872 -0.8225 -0.3553  1.3165
67763SOL     OW15267   0.038   2.132   2.390 -0.1870 -0.0764  0.4883
67763SOL    HW115268   0.055   2.215   2.346  1.3408 -0.1389  0.9026
67763SOL    HW215269  -0.043   2.100   2.350 -0.9026  1.6786  0.4588
67764SOL     OW15270   7.787  11.707  11.372  0.0844  0.3362  0.0642
67764SOL    HW115271   7.717  11.642  11.367 -1.6339  2.0610  0.1273
67764SOL    HW215272   7.822  11.711  11.283  0.4417 -0.8898  0.1411
67765SOL     OW15273   3.166   3.325   4.502  0.2411  0.5598 -0.0060
67765SOL    HW115274   3.112   3.378   4.561  0.2023  0.9269 -0.3745
67765SOL    HW215275   3.161   3.369   4.417 -2.2005 -1.5934 -1.1047
67766SOL     OW15276   3.655   7.585   1.394  0.0920  0.1257 -0.3253
67766SOL    HW115277   3.651   7.490   1.392 -1.7243  0.1852 -1.7970
67766SOL    HW215278   3.712   7.605   1.469 -0.4842 -2.0721  0.7776
67767SOL     OW15279  11.013   7.297   6.520 -0.2542  0.1299 -0.0106
67767SOL    HW115280  11.023   7.384   6.557  1.9285  0.0402 -0.2496
67767SOL    HW215281  11.022   7.238   6.595  1.1426  0.0531 -0.2070
67768SOL     OW15282  11.397   7.686   7.119 -0.7005  0.1161  0.3057
67768SOL    HW115283  11.329   7.671   7.185  0.6576  0.6585  1.9063
67768SOL    HW215284  11.413   7.599   7.081 -0.8790 -0.3861  1.3407
67769SOL     OW15285  12.140  14.017  10.415 -0.1732  0.0068 -0.2085
67769SOL    HW115286  12.198  14.006  10.340 -0.8226 -2.9471 -0.3830
67769SOL    HW215287  12.068  14.071  10.381 -0.1049 -0.6914 -1.5365
67770SOL     OW15288  11.455  13.827   4.364  0.4522 -0.0936  0.4122
67770SOL    HW115289  11.459  13.737   4.396  0.0474 -0.0092  0.6994
67770SOL    HW215290  11.418  13.819   4.276  0.6539 -0.2309  0.3387
67771SOL     OW15291   8.644   1.539   1.912  0.3562  0.2849 -0.3718
67771SOL    HW115292   8.573   1.477   1.928  0.8361  0.1052  1.2000
67771SOL    HW215293   8.605   1.607   1.857 -0.7238 -0.3611 -0.4279
67772SOL     OW15294   7.773   3.945  11.236 -0.2843  0.2794  0.1543
67772SOL    HW115295   7.823   3.914  11.161 -0.1491 -0.2601  0.4616
67772SOL    HW215296   7.796   3.884  11.307 -1.5682 -0.1328  0.2359
67773SOL     OW15297   1.740   1.328   0.898 -0.6396 -0.0198 -0.0257
67773SOL    HW115298   1.770   1.419   0.894 -0.0644 -0.1827  0.3059
67773SOL    HW215299   1.792   1.290   0.970 -1.0124 -0.5550 -0.0377
67774SOL     OW15300   4.730   7.888  13.227  0.1182 -0.3165 -0.4657
67774SOL    HW115301   4.775   7.817  13.273  0.1239 -0.4375 -0.6591
67774SOL    HW215302   4.698   7.945  13.297 -0.5818 -0.9223 -0.2804
67775SOL     OW15303   6.968   4.452   2.000 -0.5313 -0.1557 -0.1219
67775SOL    HW115304   6.924   4.511   1.940 -0.8677 -0.9362 -0.6576
67775SOL    HW215305   6.921   4.462   2.083  0.2757  1.3284  0.2013
67776SOL     OW15306   6.979   6.419   3.959 -0.1728 -0.3673  0.6059
67776SOL    HW115307   6.887   6.392   3.962 -0.2558 -0.4807 -1.6105
67776SOL    HW215308   6.977   6.514   3.972 -0.7660 -0.1737 -0.7079
67777SOL     OW15309   5.849  13.760   9.710 -0.3944  1.0314 -0.2312
67777SOL    HW115310   5.859  13.811   9.790 -1.9889  2.4033 -0.8455
67777SOL    HW215311   5.939  13.741   9.682  0.2414 -0.8683  2.6582
67778SOL     OW15312  12.606  13.157   6.272  0.2030  0.3220 -0.1288
67778SOL    HW115313  12.543  13.089   6.297 -1.3103  1.3926 -0.8487
67778SOL    HW215314  12.670  13.157   6.343  1.4256 -3.1548 -0.9973
67779SOL     OW15315   7.727  13.136   9.876  0.5379  0.3224 -0.1240
67779SOL    HW115316   7.761  13.048   9.862 -1.9460 -0.5641 -1.1675
67779SOL    HW215317   7.731  13.148   9.971  1.0877 -0.8208  0.0167
67780SOL     OW15318   2.226   5.607   2.076  0.1235  0.2648 -0.0634
67780SOL    HW115319   2.206   5.651   2.158 -0.3839  2.7829 -1.4247
67780SOL    HW215320   2.320   5.616   2.066 -0.1323  2.4369 -0.9897
67781SOL     OW15321  11.858  12.327   5.797  0.7119  0.1669  0.1767
67781SOL    HW115322  11.895  12.304   5.712  0.6240  1.8712 -0.3587
67781SOL    HW215323  11.934  12.337   5.854  0.8849  0.5964 -0.1229
67782SOL     OW15324  11.759   7.773   0.916 -0.0563 -0.5255 -0.2588
67782SOL    HW115325  11.703   7.849   0.901 -1.2800 -1.1105  1.1225
67782SOL    HW215326  11.712   7.700   0.876 -0.2683 -1.0025  0.8203
67783SOL     OW15327   1.482   1.716   4.111  0.0486 -0.2723  0.1109
67783SOL    HW115328   1.508   1.663   4.186 -0.2787  0.5091  0.7913
67783SOL    HW215329   1.524   1.673   4.036  2.0624  0.0684  0.9586
67784SOL     OW15330  13.969   9.577   7.269 -0.5360 -0.0556  0.0148
67784SOL    HW115331  14.028   9.520   7.218  1.8733  0.9664  1.4718
67784SOL    HW215332  13.969   9.538   7.356  1.7214  2.3695  1.2439
67785SOL     OW15333   1.443   0.546   1.198  0.8736  0.2611  0.3809
67785SOL    HW115334   1.429   0.640   1.199  1.9785  0.4834 -1.2640
67785SOL    HW215335   1.406   0.518   1.114 -0.0451 -0.8965  1.1319
67786SOL     OW15336   7.380   1.083   6.307 -0.8635  0.4636  0.1478
67786SOL    HW115337   7.303   1.100   6.254 -1.6642 -0.3456  1.0051
67786SOL    HW215338   7.422   1.168   6.318 -1.4071  0.8459 -0.6577
67787SOL     OW15339   7.380   4.373   0.887 -0.3299  0.5741  0.3018
67787SOL    HW115340   7.345   4.284   0.884 -0.0800  0.3805  2.2946
67787SOL    HW215341   7.325   4.419   0.951  0.5617  1.3984  0.4967
67788SOL     OW15342   6.377  13.721  10.979 -0.3438  0.1284 -0.0561
67788SOL    HW115343   6.343  13.637  11.007 -1.7410  1.0861  1.2694
67788SOL    HW215344   6.382  13.773  11.059  0.8013  1.2168 -0.7891
67789SOL     OW15345  13.191  11.237   7.236  0.1304  0.7523 -0.1872
67789SOL    HW115346  13.254  11.303   7.205  2.5595  0.3305  3.3024
67789SOL    HW215347  13.224  11.154   7.201  0.8883  0.6872  0.6296
67790SOL     OW15348   0.074   9.758   5.410  0.1869 -0.7080  0.0730
67790SOL    HW115349  -0.001   9.701   5.394 -1.6371  1.2976  0.8234
67790SOL    HW215350   0.135   9.705   5.460 -0.8100 -2.3716 -0.4076
67791SOL     OW15351  13.205   0.596   0.753 -0.2413  0.2989  0.4721
67791SOL    HW115352  13.135   0.661   0.755 -1.0209 -0.5197  0.4659
67791SOL    HW215353  13.211   0.569   0.662  0.3647  0.6602  0.4027
67792SOL     OW15354  11.170  10.425  11.211 -0.3472 -0.3598 -0.5969
67792SOL    HW115355  11.225  10.373  11.269 -0.1712  0.3715 -0.0811
67792SOL    HW215356  11.183  10.515  11.242 -2.2313 -0.2152 -0.1238
67793SOL     OW15357   3.061   0.034  13.507 -0.2148 -0.1135  0.3241
67793SOL    HW115358   2.982   0.089  13.509  0.9129  1.6149 -0.5490
67793SOL    HW215359   3.059  -0.013  13.591 -1.1704  1.3683  1.1767
67794SOL     OW15360   4.266   3.974  11.442  0.2178  0.2284 -0.0020
67794SOL    HW115361   4.260   4.055  11.391  1.1456  0.2837 -0.0316
67794SOL    HW215362   4.354   3.941  11.426  0.4008  0.0408  1.2686
67795SOL     OW15363   6.199   2.610   0.219  0.3509 -0.3579 -0.1576
67795SOL    HW115364   6.257   2.595   0.144 -0.6527 -1.4274 -0.7594
67795SOL    HW215365   6.253   2.588   0.295  1.5791  1.3248 -0.4673
67796SOL     OW15366   9.200  13.368   8.503  0.0789 -0.0462 -0.3485
67796SOL    HW115367   9.173  13.444   8.553 -0.5475  1.1196 -2.3453
67796SOL    HW215368   9.225  13.403   8.417  0.0193 -2.0496 -1.2477
67797SOL     OW15369  12.493   9.645  11.761 -0.4588  0.0100  0.2391
67797SOL    HW115370  12.515   9.579  11.826  0.0406  0.1728  0.2421
67797SOL    HW215371  12.444   9.598  11.694 -2.3811  0.1281  1.4692
67798SOL     OW15372  11.065   8.044   6.177  0.0870 -0.2539 -0.3137
67798SOL    HW115373  11.081   8.117   6.118  0.5135 -0.7301 -0.7968
67798SOL    HW215374  11.020   7.979   6.123 -2.6643  0.6267  0.7286
67799SOL     OW15375   9.789   3.598   4.110  0.1352  0.0865 -0.1711
67799SOL    HW115376   9.701   3.632   4.094 -0.2877 -1.2795 -0.9038
67799SOL    HW215377   9.831   3.664   4.166 -1.8300  0.0956  1.3954
67800SOL     OW15378  10.062  10.023  11.053 -0.0091  0.1641  0.0790
67800SOL    HW115379  10.043  10.100  11.000 -1.5015  0.5728  1.1206
67800SOL    HW215380  10.032   9.949  11.000 -2.9759  0.6647  0.8419
67801SOL     OW15381   6.330   0.386   8.548  0.3229 -0.4976 -0.5459
67801SOL    HW115382   6.246   0.411   8.588  1.4342 -0.9511  2.3612
67801SOL    HW215383   6.308   0.317   8.487 -1.5783  0.3797 -0.9293
67802SOL     OW15384  11.250   5.933   8.356 -0.9371 -0.6036  0.2252
67802SOL    HW115385  11.303   5.999   8.400 -0.3472 -1.3163  0.6122
67802SOL    HW215386  11.289   5.926   8.269 -0.2275 -1.2960  0.5888
67803SOL     OW15387   0.301  11.972   6.876 -0.2537 -0.1726 -0.1215
67803SOL    HW115388   0.313  11.905   6.943 -0.5422  0.1021  0.2069
67803SOL    HW215389   0.244  11.931   6.811  0.0013 -0.4277 -0.1875
67804SOL     OW15390  13.605  11.264  12.892 -0.3115 -0.1466 -0.5855
67804SOL    HW115391  13.672  11.200  12.917 -1.6642 -1.8883 -1.2031
67804SOL    HW215392  13.651  11.348  12.891  2.0435 -1.3532 -1.6760
67805SOL     OW15393   3.718  10.291   0.982  0.2493 -0.5682  0.2008
67805SOL    HW115394   3.654  10.219   0.986 -0.6506  0.1689 -0.3594
67805SOL    HW215395   3.678  10.361   1.034  0.5279 -0.0411 -0.2882
67806SOL     OW15396   7.273   1.489  13.354  0.1551  0.1071  0.0048
67806SOL    HW115397   7.271   1.399  13.324  1.1847  0.5167 -1.4101
67806SOL    HW215398   7.333   1.488  13.429  0.2968 -0.3560 -0.1098
67807SOL     OW15399   6.032   7.769  10.492  0.5505 -0.0227 -0.5123
67807SOL    HW115400   5.939   7.758  10.511  0.4422  0.1328 -0.9569
67807SOL    HW215401   6.069   7.802  10.574  0.4826 -1.4844  0.1543
67808SOL     OW15402   0.533  12.956   2.156 -0.1924  0.3992  0.0534
67808SOL    HW115403   0.598  12.886   2.150 -0.6434  0.0370 -0.6694
67808SOL    HW215404   0.529  12.992   2.067  0.6792  1.9288  0.5971
67809SOL     OW15405   1.499   1.432   6.107 -0.0572  0.1171 -0.3227
67809SOL    HW115406   1.516   1.511   6.158  0.8483  0.4344 -1.0753
67809SOL    HW215407   1.461   1.464   6.025 -1.0213 -0.3415 -0.0589
67810SOL     OW15408   0.990  11.530   0.027 -0.2600 -0.4899  0.5133
67810SOL    HW115409   1.047  11.603   0.004 -1.6458  1.2949  2.3552
67810SOL    HW215410   1.004  11.517   0.121 -3.0093  0.2020  1.0848
67811SOL     OW15411   8.027   7.470   5.735  0.4421  0.4244 -0.6853
67811SOL    HW115412   8.005   7.435   5.820  0.3066  0.7902 -0.5662
67811SOL    HW215413   7.952   7.450   5.679  0.1883  0.8909 -0.5107
67812SOL     OW15414   1.568   2.222   1.065  0.2056 -0.3806 -0.6195
67812SOL    HW115415   1.625   2.229   1.142  0.5086  2.8582 -0.9974
67812SOL    HW215416   1.480   2.231   1.100  0.1665 -1.4806 -0.4187
67813SOL     OW15417   6.072   4.305   0.518 -0.5315  0.4305 -0.1500
67813SOL    HW115418   6.127   4.333   0.444  0.9046 -2.0087 -0.0947
67813SOL    HW215419   6.060   4.211   0.505  0.2409 -0.2132  2.9833
67814SOL     OW15420  13.470   3.094   8.147 -0.6163  0.5930  0.1198
67814SOL    HW115421  13.452   3.021   8.207 -0.3031  1.0942  0.8473
67814SOL    HW215422  13.385   3.116   8.110 -1.2567  1.7042  2.0718
67815SOL     OW15423   2.578  11.749   1.817  0.4691 -0.1338 -0.4474
67815SOL    HW115424   2.486  11.770   1.801  0.3086 -1.1909 -1.0182
67815SOL    HW215425   2.585  11.656   1.794  1.6256 -0.1190 -0.1797
67816SOL     OW15426   2.554   3.116  11.576 -0.4408  0.4866 -0.5751
67816SOL    HW115427   2.521   3.190  11.626  1.6411  0.5885  0.7685
67816SOL    HW215428   2.642   3.142  11.549 -0.2791 -0.8709 -1.4888
67817SOL     OW15429   7.320  12.767   6.805 -0.2933 -1.0970  0.1046
67817SOL    HW115430   7.385  12.826   6.843 -1.1244  0.1016 -0.2906
67817SOL    HW215431   7.356  12.743   6.720 -1.0312  0.7905 -0.7840
67818SOL     OW15432   9.529   9.519   9.230 -0.2775  0.0907 -0.2676
67818SOL    HW115433   9.510   9.613   9.229  0.5350  0.2587  0.0789
67818SOL    HW215434   9.534   9.496   9.322  0.9449 -0.0009 -0.3443
67819SOL     OW15435   6.110   6.784  12.895  0.2556  0.2344 -0.1507
67819SOL    HW115436   6.100   6.834  12.814  1.2337  3.1976  1.4339
67819SOL    HW215437   6.203   6.762  12.898  0.0910 -0.4910 -0.1339
67820SOL     OW15438   0.816  13.774   0.837  0.0542  0.3260  0.3947
67820SOL    HW115439   0.842  13.705   0.898  1.6924  0.7406  0.2217
67820SOL    HW215440   0.777  13.728   0.763  1.6952 -0.5146 -0.0096
67821SOL     OW15441   1.573   6.799   3.920  0.0348  0.5528  0.2374
67821SOL    HW115442   1.531   6.834   3.998 -0.7777  0.8070 -0.3131
67821SOL    HW215443   1.658   6.768   3.951 -0.8096 -0.6091  1.5057
67822SOL     OW15444   5.710  11.215   4.652 -0.4665 -0.0839 -0.0848
67822SOL    HW115445   5.696  11.310   4.656 -1.4600 -0.2316  0.3119
67822SOL    HW215446   5.791  11.205   4.602  2.3439  1.1999  3.6411
67823SOL     OW15447  12.043   9.307   2.060  0.2297 -0.0340 -0.2337
67823SOL    HW115448  12.063   9.342   1.974 -1.7102 -0.1593 -0.7896
67823SOL    HW215449  11.992   9.376   2.103 -0.4437 -0.6999  0.0661
67824SOL     OW15450  12.548   6.712   5.000  0.2005 -0.6498 -0.1708
67824SOL    HW115451  12.560   6.741   5.090  1.6898  1.8356 -1.0649
67824SOL    HW215452  12.472   6.761   4.969 -2.0107 -3.4622  0.3858
67825SOL     OW15453   8.736   2.964  11.952  0.2505  0.8798 -0.2542
67825SOL    HW115454   8.716   2.870  11.951  0.1435  0.8972  0.2532
67825SOL    HW215455   8.832   2.967  11.948  0.2968  0.7254  0.5860
67826SOL     OW15456   0.523   1.430   6.770 -0.5479  0.5051 -0.0387
67826SOL    HW115457   0.568   1.395   6.694  1.0402  0.4563  0.8746
67826SOL    HW215458   0.576   1.402   6.845 -1.6638  1.1346  1.0411
67827SOL     OW15459  13.496   7.519  13.770 -0.0233 -0.7126 -0.0187
67827SOL    HW115460  13.534   7.435  13.797  0.1201 -1.0895 -1.3418
67827SOL    HW215461  13.548   7.546  13.695  0.9464  1.3617  1.3249
67828SOL     OW15462   3.487  10.699   0.382 -0.2527  0.5092  0.3707
67828SOL    HW115463   3.518  10.632   0.321 -2.6111 -1.3037  0.9869
67828SOL    HW215464   3.434  10.758   0.327  0.4238  0.9014  0.1239
67829SOL     OW15465  10.026   5.748   2.309 -0.3515 -0.6120 -0.2460
67829SOL    HW115466  10.001   5.655   2.308 -0.1009 -0.6795 -0.1511
67829SOL    HW215467  10.074   5.760   2.390 -1.4084 -0.1230  0.3294
67830SOL     OW15468  10.904   1.834   7.185 -0.0714 -0.1965 -0.4290
67830SOL    HW115469  10.826   1.887   7.201 -0.9484 -1.5102 -0.1146
67830SOL    HW215470  10.897   1.809   7.093 -0.1182 -0.4310 -0.3648
67831SOL     OW15471  11.254   6.173   2.310  0.6073  0.6838 -0.4191
67831SOL    HW115472  11.237   6.254   2.358 -1.7955 -0.9863  1.8173
67831SOL    HW215473  11.178   6.163   2.252 -1.0635 -1.5924  1.9194
67832SOL     OW15474  11.890  12.757   7.086 -0.1000 -0.3470  0.3194
67832SOL    HW115475  11.808  12.805   7.098 -0.3135 -0.5938 -0.1318
67832SOL    HW215476  11.901  12.753   6.992  0.6277  0.0035  0.3867
67833SOL     OW15477   5.337   6.795   0.368 -0.3951 -0.1401  0.1139
67833SOL    HW115478   5.422   6.794   0.324 -0.9967 -0.6028 -1.0859
67833SOL    HW215479   5.328   6.708   0.406 -0.8646 -0.5462 -0.8757
67834SOL     OW15480   3.210   4.850   4.240 -0.4237  0.4237 -0.2756
67834SOL    HW115481   3.283   4.873   4.299  0.0552  0.1851 -0.7662
67834SOL    HW215482   3.239   4.879   4.154  0.2213 -1.9692 -0.9430
67835SOL     OW15483   2.871   6.167   7.592  0.1096  0.3070  0.4178
67835SOL    HW115484   2.883   6.254   7.630  4.9740  0.6742 -1.1865
67835SOL    HW215485   2.943   6.159   7.529 -2.2537 -3.5551 -2.2380
67836SOL     OW15486  12.631  13.359   9.727  0.1211 -0.5818  0.1676
67836SOL    HW115487  12.681  13.436   9.698  2.6974 -3.3952 -3.8010
67836SOL    HW215488  12.687  13.318   9.793  0.0758 -0.4583  0.2824
67837SOL     OW15489   3.617   4.894   2.716 -0.1047 -0.3712  0.7626
67837SOL    HW115490   3.615   4.974   2.664  2.7146 -0.7438 -0.1170
67837SOL    HW215491   3.528   4.861   2.714 -1.0113  1.9179 -0.1549
67838SOL     OW15492  13.981   1.474  10.110 -0.1122 -0.2615  0.0884
67838SOL    HW115493  14.000   1.565  10.132 -1.8610  0.0316  0.6021
67838SOL    HW215494  14.007   1.465  10.019  0.2490  0.7085  0.0880
67839SOL     OW15495   9.797   5.028   8.350  0.2775  0.3676  0.7526
67839SOL    HW115496   9.795   4.946   8.301 -0.7579  0.5888  0.3914
67839SOL    HW215497   9.814   5.095   8.284 -1.0829  0.6625  0.6710
67840SOL     OW15498   5.194   3.083   1.652  0.6182  0.3034 -0.3511
67840SOL    HW115499   5.108   3.116   1.678  0.7817 -0.8918  1.9261
67840SOL    HW215500   5.240   3.160   1.619 -0.5438  1.4312  0.5376
67841SOL     OW15501   5.021  13.667  12.429 -0.1525 -0.0809 -0.0946
67841SOL    HW115502   4.980  13.722  12.496  0.8193  0.1975  0.2798
67841SOL    HW215503   5.080  13.726  12.382  0.2471 -0.6055 -0.2575
67842SOL     OW15504   2.344   5.240   4.469  0.1559  0.0487 -0.7801
67842SOL    HW115505   2.404   5.166   4.462 -1.3381 -1.2444 -0.4870
67842SOL    HW215506   2.294   5.239   4.387 -0.5518  0.0969 -0.3643
67843SOL     OW15507   3.792   9.135  12.241  0.1428 -0.0747 -0.4975
67843SOL    HW115508   3.732   9.189  12.292  0.1671 -0.6459  0.1565
67843SOL    HW215509   3.868   9.191  12.225  0.1996  0.0675  0.2395
67844SOL     OW15510   1.603   9.912   0.812 -0.3001  0.7006 -0.2631
67844SOL    HW115511   1.693   9.888   0.793 -0.1040  1.0792  0.1734
67844SOL    HW215512   1.578   9.969   0.739 -0.4068  0.0729 -0.7234
67845SOL     OW15513  10.888   5.475   6.638 -0.0861 -0.1275  0.3299
67845SOL    HW115514  10.946   5.414   6.592  1.8095  0.7389  1.4409
67845SOL    HW215515  10.881   5.439   6.726 -0.1046  0.5111  0.5932
67846SOL     OW15516   8.436  11.857   7.529  0.1914  0.5411 -0.4055
67846SOL    HW115517   8.508  11.798   7.551 -1.8704 -1.4363  1.6916
67846SOL    HW215518   8.391  11.871   7.613 -1.5608  2.1026 -1.5399
67847SOL     OW15519  11.672  11.054   7.686 -1.0811 -0.0929 -0.3253
67847SOL    HW115520  11.723  11.028   7.610  2.0602  0.3547  1.4529
67847SOL    HW215521  11.680  10.982   7.748  1.0762  1.6354  1.5976
67848SOL     OW15522  11.178  13.053   3.771  0.0054  0.2417  0.2809
67848SOL    HW115523  11.130  13.012   3.843  1.0905 -0.5355  0.5750
67848SOL    HW215524  11.122  13.127   3.745 -0.7842  0.0644  1.3825
67849SOL     OW15525  10.382  12.124  11.247 -0.0440  0.0477 -0.2278
67849SOL    HW115526  10.423  12.181  11.182  1.2252 -0.9435 -0.3495
67849SOL    HW215527  10.333  12.060  11.196  1.0142 -0.7767 -0.2613
67850SOL     OW15528  13.559   3.608   8.060  0.4551 -0.0713  0.3153
67850SOL    HW115529  13.531   3.519   8.082  0.8331 -0.4677 -0.7540
67850SOL    HW215530  13.519   3.625   7.974 -1.2499  1.5458  1.3329
67851SOL     OW15531   1.654   6.171   7.211  0.4781  0.1702  0.3485
67851SOL    HW115532   1.596   6.098   7.232 -0.5847  0.3965 -1.5302
67851SOL    HW215533   1.608   6.249   7.242  1.1244  0.1518  1.4015
67852SOL     OW15534  12.423   5.991   6.017  0.6157  0.3769  0.0944
67852SOL    HW115535  12.390   6.025   5.934  0.8764 -1.1607 -0.6745
67852SOL    HW215536  12.492   6.052   6.042  0.9964  0.4950 -1.1795
67853SOL     OW15537   2.214  11.242   0.320 -0.1435 -0.1764 -0.4301
67853SOL    HW115538   2.281  11.285   0.268  0.1323  0.4650  0.4270
67853SOL    HW215539   2.212  11.291   0.402  0.2216 -1.8203  0.6182
67854SOL     OW15540   0.444   1.891  10.046 -0.0840 -0.0874 -0.6368
67854SOL    HW115541   0.507   1.819  10.040  0.6122  0.4203  0.3673
67854SOL    HW215542   0.440   1.926   9.957  2.3873  0.9698 -0.4067
67855SOL     OW15543   1.004  13.809   6.356  0.0437 -0.1178 -0.0370
67855SOL    HW115544   0.911  13.817   6.375  0.1130 -0.6495  0.5683
67855SOL    HW215545   1.047  13.864   6.421  0.1442  0.3913 -0.5234
67856SOL     OW15546   2.060   0.941  12.114 -0.2992 -0.2999 -0.4663
67856SOL    HW115547   2.097   0.887  12.044  0.0923  0.2469 -0.6814
67856SOL    HW215548   2.072   1.031  12.084 -0.8551 -0.0854 -0.0580
67857SOL     OW15549   1.361   4.219   0.811 -0.4372 -0.1276 -0.6182
67857SOL    HW115550   1.408   4.144   0.847  0.7990  0.4760 -0.9530
67857SOL    HW215551   1.428   4.284   0.791 -1.2095  0.1000 -2.7438
67858SOL     OW15552   0.268   0.953   4.073 -0.4724 -0.0186  0.4596
67858SOL    HW115553   0.324   0.964   4.150  0.5879 -0.0301 -0.2894
67858SOL    HW215554   0.179   0.967   4.106  0.0393  1.0192  1.4867
67859SOL     OW15555   7.779   6.921  13.279 -0.0597 -0.3426  0.0357
67859SOL    HW115556   7.696   6.920  13.230 -1.2050 -0.1029  1.8835
67859SOL    HW215557   7.841   6.878  13.220 -1.9069 -2.2224 -0.6982
67860SOL     OW15558   8.272   6.181  10.912 -0.0540  0.3386  0.1110
67860SOL    HW115559   8.266   6.271  10.880  1.9128  0.6858  0.6302
67860SOL    HW215560   8.303   6.189  11.003  0.2995 -0.8636  0.1177
67861SOL     OW15561  10.062  10.707  10.581 -0.0549  0.0884 -0.1420
67861SOL    HW115562  10.061  10.775  10.513  1.2848 -0.9080 -1.2001
67861SOL    HW215563  10.154  10.699  10.605 -0.5727  0.9543  2.4046
67862SOL     OW15564   3.355   0.656   1.447 -0.0584 -0.0838 -0.3365
67862SOL    HW115565   3.382   0.704   1.368 -3.9142 -0.8667 -2.4035
67862SOL    HW215566   3.319   0.723   1.505 -0.5776  0.1348 -0.8979
67863SOL     OW15567  11.522   1.425   1.003  0.1665  0.0050  0.6573
67863SOL    HW115568  11.553   1.463   1.085  1.6541  1.2576 -0.4158
67863SOL    HW215569  11.428   1.412   1.016  0.2908  0.6047  2.3758
67864SOL     OW15570  11.279   1.629   5.814 -0.4695 -0.3171 -0.3675
67864SOL    HW115571  11.315   1.626   5.725 -0.5661 -0.3260 -0.4056
67864SOL    HW215572  11.261   1.538   5.835 -0.7387 -0.2851 -0.4565
67865SOL     OW15573   1.983   4.962   7.098 -0.3267 -0.0848  0.2192
67865SOL    HW115574   2.031   5.034   7.139 -0.9733  0.9738 -0.8164
67865SOL    HW215575   1.905   4.951   7.153  0.0334 -0.3637  0.6807
67866SOL     OW15576  10.872   8.375  12.179  0.0782 -0.4080 -0.2298
67866SOL    HW115577  10.784   8.337  12.168  0.9960 -2.3871 -1.2764
67866SOL    HW215578  10.911   8.370  12.092  0.9096  1.4214 -0.0062
67867SOL     OW15579  13.913  10.777   0.690  0.2488  0.2076  0.3037
67867SOL    HW115580  13.997  10.823   0.696  0.0938  0.3176  1.8805
67867SOL    HW215581  13.902  10.735   0.775 -1.7419  0.9802  0.4859
67868SOL     OW15582   1.045   6.928   8.790  0.3185  0.0106  0.1885
67868SOL    HW115583   1.113   6.965   8.847  0.8544 -1.3409  0.4500
67868SOL    HW215584   1.021   7.000   8.732  0.6132  1.0708  1.3353
67869SOL     OW15585  11.246   8.613  10.208 -0.0566 -0.4566  0.7720
67869SOL    HW115586  11.308   8.581  10.142 -1.2765 -1.4706  0.0875
67869SOL    HW215587  11.210   8.533  10.247  0.5679  0.1163  2.6343
67870SOL     OW15588   0.633   7.213   0.335  0.0104  0.4258 -0.4570
67870SOL    HW115589   0.694   7.148   0.370 -0.1369 -0.3897 -1.6333
67870SOL    HW215590   0.673   7.298   0.355  0.5847 -0.0435  0.4398
67871SOL     OW15591   6.691  12.706   1.930 -0.2201 -0.3172  0.2287
67871SOL    HW115592   6.623  12.751   1.880 -0.5950 -0.3183  0.7300
67871SOL    HW215593   6.740  12.776   1.972  0.4016 -0.2914 -0.5223
67872SOL     OW15594  13.276   0.742   7.259  0.9154  0.2371 -0.3476
67872SOL    HW115595  13.203   0.683   7.239 -0.6222  1.3555  1.5897
67872SOL    HW215596  13.241   0.829   7.246  1.6102  0.8315  1.4672
67873SOL     OW15597   1.949   6.081  12.718  0.1683  0.0254 -0.1732
67873SOL    HW115598   1.942   6.139  12.642 -2.8839  1.7987  1.2790
67873SOL    HW215599   1.986   6.136  12.787 -0.5026 -0.4396  0.5763
67874SOL     OW15600   2.535  10.562   4.642 -0.6630 -0.2830  0.0203
67874SOL    HW115601   2.502  10.506   4.712  1.1483 -0.7777  0.5451
67874SOL    HW215602   2.465  10.565   4.578 -1.7915 -1.0337  1.1804
67875SOL     OW15603   6.458   0.973   0.326  0.5739 -0.4981 -0.9402
67875SOL    HW115604   6.541   0.973   0.374 -0.7195  0.7924  1.4676
67875SOL    HW215605   6.462   1.050   0.271  0.5452  0.2441  0.0625
67876SOL     OW15606   1.669  12.029  11.666  0.1652  0.5666  0.2291
67876SOL    HW115607   1.632  11.979  11.739 -0.0202 -0.6910 -0.6911
67876SOL    HW215608   1.698  12.111  11.706  0.4520 -0.2427  1.8046
67877SOL     OW15609  11.919  12.377  10.819 -0.3758 -0.4375  0.0815
67877SOL    HW115610  11.863  12.389  10.743  1.9967  2.0489 -1.4720
67877SOL    HW215611  11.941  12.466  10.846  1.9543 -1.2879  1.2195
67878SOL     OW15612  12.294  10.492   5.038 -0.2151  0.3588  0.1765
67878SOL    HW115613  12.334  10.542   5.109 -0.0785 -1.3240  1.3400
67878SOL    HW215614  12.243  10.557   4.989  1.8471  2.0998  0.1567
67879SOL     OW15615   1.042   5.736  13.765  0.1727 -0.3921  0.3796
67879SOL    HW115616   1.137   5.752  13.758 -0.0650  1.2975  0.4180
67879SOL    HW215617   1.035   5.656  13.817  1.5970  0.6523  2.3504
67880SOL     OW15618   7.312   2.750  10.426 -0.1457  0.1927 -0.3295
67880SOL    HW115619   7.401   2.716  10.422  0.2099  1.1644 -1.0946
67880SOL    HW215620   7.318   2.830  10.477 -0.0816  1.6135 -2.4279
67881SOL     OW15621   4.551   9.404   4.038 -0.0678  0.3748 -0.3434
67881SOL    HW115622   4.564   9.436   4.128  2.2949 -0.0933 -0.4500
67881SOL    HW215623   4.526   9.312   4.048 -0.4950  0.5060 -0.1706
67882SOL     OW15624  13.169  10.836  13.574 -0.6612  0.0580  0.1611
67882SOL    HW115625  13.227  10.860  13.647 -0.0972 -0.5354 -0.0828
67882SOL    HW215626  13.178  10.742  13.566  0.1903  0.2467 -1.4403
67883SOL     OW15627   6.009   0.816   3.407 -0.3986 -0.8573 -0.2158
67883SOL    HW115628   5.986   0.723   3.397 -0.8167 -0.8464  0.5939
67883SOL    HW215629   5.976   0.840   3.493  0.1097 -0.0653 -0.2313
67884SOL     OW15630   2.057   2.862   1.741  0.1939 -0.2364  0.1943
67884SOL    HW115631   2.083   2.840   1.830  0.8122 -0.0805  0.0542
67884SOL    HW215632   2.082   2.954   1.730  0.1089 -0.2504 -0.1305
67885SOL     OW15633   2.382  14.039  13.513  0.0864 -0.2672 -0.7833
67885SOL    HW115634   2.428  13.955  13.504  0.0020 -0.4111  0.0111
67885SOL    HW215635   2.452  14.104  13.521  0.2174 -0.5737  1.2391
67886SOL     OW15636  10.803   3.079  10.452 -0.1535 -0.1394 -0.0723
67886SOL    HW115637  10.877   3.017  10.457  0.3957  0.4479 -0.7442
67886SOL    HW215638  10.815   3.136  10.527  0.0938 -0.0290 -0.1947
67887SOL     OW15639   2.157   7.116   5.511 -0.3125  0.0385  0.1763
67887SOL    HW115640   2.090   7.052   5.536 -0.9541  0.5724 -0.1630
67887SOL    HW215641   2.142   7.190   5.570  0.8294 -0.3433  1.0021
67888SOL     OW15642   0.560   5.983   6.152  0.3939 -0.3749  0.0294
67888SOL    HW115643   0.624   5.990   6.222 -0.0999  0.3631  0.4108
67888SOL    HW215644   0.491   5.927   6.187 -0.2770  0.7055  0.4628
67889SOL     OW15645  13.303   8.413   5.939  0.0603  0.0013  0.5394
67889SOL    HW115646  13.295   8.470   6.015  0.9602  0.5722  0.2183
67889SOL    HW215647  13.291   8.324   5.974 -0.2175  0.3050  1.2251
67890SOL     OW15648   6.628  11.581  12.095 -0.0550 -0.2855  0.2022
67890SOL    HW115649   6.628  11.486  12.105  1.4232 -0.2478  0.8572
67890SOL    HW215650   6.539  11.603  12.069 -0.7345 -1.7362  1.2036
67891SOL     OW15651  11.323   8.730  10.437 -0.4707  0.4592 -0.9706
67891SOL    HW115652  11.389   8.793  10.408  0.5109 -0.9024 -1.8008
67891SOL    HW215653  11.284   8.698  10.356 -0.4376 -0.5361 -0.6023
67892SOL     OW15654   9.858   3.928  13.194 -0.0003  0.0610  0.2222
67892SOL    HW115655   9.915   3.858  13.160 -0.5722  0.3673 -1.4689
67892SOL    HW215656   9.770   3.897  13.176 -0.2663  1.1910 -0.5180
67893SOL     OW15657  10.281  11.768   3.562  0.1717  0.1456 -0.3646
67893SOL    HW115658  10.271  11.842   3.622 -0.4024  0.5967 -1.0060
67893SOL    HW215659  10.191  11.739   3.545  0.3583 -0.2746 -0.6469
67894SOL     OW15660  10.558  12.112   1.543  0.0280  0.1383 -0.0533
67894SOL    HW115661  10.585  12.182   1.602 -1.5479 -0.9193  2.0609
67894SOL    HW215662  10.463  12.107   1.555 -0.2907 -0.4245 -2.3898
67895SOL     OW15663   8.301  10.060   6.529  0.6221  0.2350 -0.2363
67895SOL    HW115664   8.248  10.139   6.543 -0.9267 -0.7666 -0.1378
67895SOL    HW215665   8.301  10.048   6.434  0.9486  0.4134 -0.2588
67896SOL     OW15666  12.061   0.849  12.120  0.1998 -0.3178  0.7713
67896SOL    HW115667  12.139   0.809  12.082 -0.0931 -0.7411  0.6077
67896SOL    HW215668  12.071   0.942  12.102  2.2799  0.1438  3.5939
67897SOL     OW15669   9.383   0.763   2.141 -0.1078  0.3052  0.8336
67897SOL    HW115670   9.389   0.857   2.124  1.0753 -0.0429 -1.0189
67897SOL    HW215671   9.365   0.725   2.055  2.3095 -1.3567  0.9750
67898SOL     OW15672  11.527  11.911   8.758 -0.8010 -0.3626  0.1487
67898SOL    HW115673  11.473  11.833   8.774 -1.3705  0.0908  0.4470
67898SOL    HW215674  11.482  11.981   8.804  0.5368 -0.1496  1.1570
67899SOL     OW15675   1.628   6.457   5.902  0.7311 -0.3223  0.4992
67899SOL    HW115676   1.595   6.545   5.923 -0.6186 -0.9906  1.2975
67899SOL    HW215677   1.703   6.473   5.845 -0.4956  1.3128 -0.7597
67900SOL     OW15678   1.931   6.180   9.442 -0.2455 -0.3806  0.1936
67900SOL    HW115679   1.954   6.128   9.365 -0.1749 -0.2578  0.1306
67900SOL    HW215680   1.839   6.162   9.457  0.2241 -2.0464  1.3451
67901SOL     OW15681   8.984  13.279   9.301 -0.3453 -0.1686  0.1458
67901SOL    HW115682   9.040  13.303   9.375 -0.7410  0.8310  0.1489
67901SOL    HW215683   8.926  13.355   9.291 -0.4203 -0.3741 -1.0685
67902SOL     OW15684   4.098  11.007  10.162 -0.2783  0.5021  0.0260
67902SOL    HW115685   4.180  11.018  10.113 -1.0079  1.1708 -1.1005
67902SOL    HW215686   4.030  11.028  10.098 -1.3468 -0.3532  0.8533
67903SOL     OW15687  11.444   8.146   2.489  0.5855  0.2794 -0.1932
67903SOL    HW115688  11.501   8.090   2.542  0.9038 -0.6403 -1.4577
67903SOL    HW215689  11.364   8.094   2.477  1.5936 -0.8205 -2.9622
67904SOL     OW15690   5.091   8.018   9.425 -0.0066 -0.5655  0.7188
67904SOL    HW115691   5.146   7.953   9.381 -0.3919 -0.7577  0.5158
67904SOL    HW215692   5.058   7.973   9.502 -0.0493 -0.5203  0.7272
67905SOL     OW15693   0.417  13.718   1.423 -0.7368 -0.4856 -0.3597
67905SOL    HW115694   0.375  13.653   1.367 -1.9445 -0.4020  0.4119
67905SOL    HW215695   0.350  13.785   1.436  0.8785  1.6838 -2.2615
67906SOL     OW15696   2.316  13.187  13.163 -0.1510  0.7631  0.4297
67906SOL    HW115697   2.407  13.216  13.169  0.6024 -1.3152  0.0207
67906SOL    HW215698   2.309  13.117  13.229 -1.3944  0.7717  0.3268
67907SOL     OW15699  13.080   8.398   2.642 -0.0886 -0.2427 -0.2670
67907SOL    HW115700  13.006   8.413   2.701  0.4736 -1.9587  0.9522
67907SOL    HW215701  13.153   8.447   2.682  0.5794 -2.2733  1.1880
67908SOL     OW15702   5.967  10.010  10.501  0.0338  0.2624 -0.1532
67908SOL    HW115703   6.031   9.977  10.564 -0.6824  0.0948  0.4967
67908SOL    HW215704   6.014  10.078  10.453  0.9662 -0.4407 -0.2810
67909SOL     OW15705   8.706   3.626   3.526 -0.9235 -0.7882 -0.3519
67909SOL    HW115706   8.678   3.586   3.443  0.1388 -0.9036 -0.6656
67909SOL    HW215707   8.671   3.568   3.594 -0.1070 -1.8004 -0.7796
67910SOL     OW15708   5.068  10.773   7.728  0.4023 -0.2534  0.1495
67910SOL    HW115709   5.071  10.837   7.799  1.6708 -0.2615  0.1251
67910SOL    HW215710   4.981  10.784   7.690  0.1935  0.6839  0.8489
67911SOL     OW15711  11.379  10.498  13.317  0.4960  0.1201 -0.6932
67911SOL    HW115712  11.373  10.424  13.256 -2.4288 -0.6586  0.3757
67911SOL    HW215713  11.403  10.458  13.400 -3.1292 -0.1303  0.4045
67912SOL     OW15714   4.665   0.330   3.206 -0.4938  0.3275 -0.3980
67912SOL    HW115715   4.688   0.238   3.189  0.8726  0.7713 -1.1159
67912SOL    HW215716   4.631   0.330   3.295 -0.2867 -0.8437 -0.2964
67913SOL     OW15717  12.147   8.351   3.151 -0.8999  0.4777 -0.6985
67913SOL    HW115718  12.130   8.428   3.096 -1.3624  0.9722  0.1264
67913SOL    HW215719  12.195   8.386   3.226 -0.1152 -0.2230 -0.8558
67914SOL     OW15720   8.936   5.466  12.711 -0.4486 -0.2098  0.0252
67914SOL    HW115721   8.954   5.558  12.728  0.3923 -0.4368  0.4067
67914SOL    HW215722   9.020   5.422  12.723 -0.5784 -0.8772 -1.2666
67915SOL     OW15723  10.021  12.198   7.847 -0.1193  0.5720 -0.5661
67915SOL    HW115724  10.065  12.190   7.763 -1.6731  0.7543 -1.4329
67915SOL    HW215725   9.992  12.109   7.868 -0.3259  0.6380 -0.5657
67916SOL     OW15726  11.586   2.088   2.589  0.0592  0.1974 -0.0442
67916SOL    HW115727  11.582   1.994   2.574  0.2030  0.3148 -0.8629
67916SOL    HW215728  11.519   2.105   2.655  2.0746 -0.8915  2.4251
67917SOL     OW15729   8.627   5.730   3.762 -0.9240  0.3245 -0.9188
67917SOL    HW115730   8.620   5.645   3.719 -0.6838  0.4060 -1.1270
67917SOL    HW215731   8.589   5.792   3.700 -0.9253  0.3928 -0.8510
67918SOL     OW15732   6.590   8.390   4.907  0.6057 -0.9276  0.0912
67918SOL    HW115733   6.586   8.432   4.992  0.6725 -0.6481 -0.0422
67918SOL    HW215734   6.672   8.420   4.869  0.4425 -0.8279 -0.1859
67919SOL     OW15735   4.668  13.228   5.734 -0.6337  0.3370 -0.0916
67919SOL    HW115736   4.632  13.168   5.668 -0.2231 -1.8688  1.5832
67919SOL    HW215737   4.621  13.310   5.719 -2.8967 -1.0178 -1.0611
67920SOL     OW15738   5.607   0.417   6.473 -0.2838  0.5486 -0.3592
67920SOL    HW115739   5.537   0.472   6.437 -1.1869 -0.2940  0.0432
67920SOL    HW215740   5.632   0.461   6.554 -1.8749 -0.2252  0.6098
67921SOL     OW15741   9.458   0.348   3.879  0.1243 -0.8532 -0.4506
67921SOL    HW115742   9.537   0.401   3.891 -0.8089  0.2598  1.2672
67921SOL    HW215743   9.468   0.310   3.791  2.0879  0.0182 -0.6737
67922SOL     OW15744   0.710   0.822  11.952  0.5077  0.3565 -0.0291
67922SOL    HW115745   0.669   0.812  11.867  1.7717  2.8254 -1.0248
67922SOL    HW215746   0.639   0.808  12.015 -0.7558 -0.1090 -1.4880
67923SOL     OW15747   4.203   4.045   5.876 -0.5873 -0.3823 -0.3085
67923SOL    HW115748   4.169   4.012   5.793 -0.6223 -0.4913 -0.2509
67923SOL    HW215749   4.287   4.085   5.854  0.3483 -2.1101 -0.1018
67924SOL     OW15750   4.144  10.202   7.140 -0.2184 -0.3229  1.1453
67924SOL    HW115751   4.145  10.298   7.149 -0.5308 -0.3153  1.1189
67924SOL    HW215752   4.145  10.170   7.230 -2.1318 -0.2627  1.2314
67925SOL     OW15753   7.945   3.942  12.281  0.3821  0.9234 -0.0979
67925SOL    HW115754   7.912   4.007  12.344  0.4706  0.4611  0.4379
67925SOL    HW215755   8.040   3.947  12.290  0.3738  0.1294  0.5740
67926SOL     OW15756   2.375   8.620   9.343 -0.2560 -0.3956  0.3801
67926SOL    HW115757   2.282   8.598   9.341 -0.2688 -0.3043 -0.3716
67926SOL    HW215758   2.420   8.536   9.355 -0.3350 -0.7906 -1.7488
67927SOL     OW15759   8.860   2.760   6.932  0.0656  0.2842  0.6454
67927SOL    HW115760   8.884   2.852   6.929 -1.9937  0.8774  0.1884
67927SOL    HW215761   8.807   2.752   7.012  1.4633 -0.8803  1.5045
67928SOL     OW15762   5.082  12.800   6.539 -0.3824 -0.6047 -0.1699
67928SOL    HW115763   5.063  12.708   6.523 -2.1293 -0.8531  2.6325
67928SOL    HW215764   5.157  12.798   6.599  1.1408 -0.0274 -1.9529
67929SOL     OW15765  11.956  13.975   4.081  0.9718 -0.0025  0.0266
67929SOL    HW115766  12.002  13.903   4.037  3.1801  1.4899 -0.2119
67929SOL    HW215767  11.874  13.983   4.032  0.9690 -1.8674 -0.3775
67930SOL     OW15768   9.874   8.964   2.524 -0.0537 -0.1541  0.4573
67930SOL    HW115769   9.900   9.054   2.503 -0.0871 -0.5654 -1.5462
67930SOL    HW215770   9.779   8.965   2.521 -0.0752 -0.1295  1.0587
67931SOL     OW15771  11.013   7.061   2.639 -0.4430  0.1914  0.6628
67931SOL    HW115772  10.959   6.989   2.606  0.5647  0.0124 -0.6484
67931SOL    HW215773  11.103   7.036   2.617  0.0251  1.3330  1.1942
67932SOL     OW15774   3.057   5.564   0.320  0.5411 -0.0395  0.2127
67932SOL    HW115775   3.042   5.523   0.405  2.3464 -0.8219  0.1971
67932SOL    HW215776   3.089   5.494   0.264  0.5212  0.7138 -0.7857
67933SOL     OW15777   6.774   8.249   2.927  0.2796 -0.4605 -0.4323
67933SOL    HW115778   6.766   8.192   3.003  1.1059 -1.5418 -1.1353
67933SOL    HW215779   6.810   8.194   2.859  1.7583  1.0627 -0.9547
67934SOL     OW15780  13.616  12.193   5.723  0.6292 -0.1866  0.3035
67934SOL    HW115781  13.625  12.212   5.816  0.1419  1.6367  0.0327
67934SOL    HW215782  13.553  12.259   5.692  1.2135 -0.3892 -1.4165
67935SOL     OW15783   2.822   4.095   1.921 -0.5325  0.5999 -0.1915
67935SOL    HW115784   2.839   4.158   1.991  1.2562 -0.2454  0.1895
67935SOL    HW215785   2.840   4.143   1.840 -1.4581  1.2306 -0.0418
67936SOL     OW15786   8.448  13.960   2.236 -0.2090 -0.3513  0.7355
67936SOL    HW115787   8.378  13.919   2.185  2.2998 -1.1490 -2.3950
67936SOL    HW215788   8.471  13.894   2.301  0.7592 -2.2518 -1.3654
67937SOL     OW15789   5.914   7.903   5.158 -0.1228  0.1104 -0.2991
67937SOL    HW115790   5.849   7.901   5.229 -0.0752  0.4217 -0.2422
67937SOL    HW215791   5.936   7.812   5.142 -0.8373 -0.0264 -0.5564
67938SOL     OW15792   1.003  11.598  10.301  0.6621  0.0832 -0.6090
67938SOL    HW115793   1.000  11.623  10.209 -0.3903 -2.1251 -1.2390
67938SOL    HW215794   0.924  11.636  10.339  1.2957  1.3269 -0.4894
67939SOL     OW15795   3.578   1.862   5.716  0.0675  0.2105 -1.0694
67939SOL    HW115796   3.609   1.952   5.719  0.7564 -0.0224 -0.9945
67939SOL    HW215797   3.657   1.810   5.703 -0.1441 -0.4935  0.3106
67940SOL     OW15798   5.306   8.322   4.986  0.0281 -0.3547 -0.0977
67940SOL    HW115799   5.244   8.389   5.014  0.2643  0.7398 -2.0235
67940SOL    HW215800   5.271   8.240   5.021 -1.5567  0.4687  0.3117
67941SOL     OW15801  13.358   2.848   7.592  0.0253 -0.6583  0.5813
67941SOL    HW115802  13.336   2.882   7.679 -0.8270 -0.0477  0.1370
67941SOL    HW215803  13.405   2.766   7.610  0.6046 -0.1214  1.6299
67942SOL     OW15804   2.561   4.779   8.483 -0.2668 -0.1501  0.1625
67942SOL    HW115805   2.538   4.825   8.564 -0.2087 -2.0539  1.3307
67942SOL    HW215806   2.544   4.687   8.503 -0.0883 -0.6898 -1.9626
67943SOL     OW15807   1.192   7.289  12.724 -0.4344  0.0187 -0.5153
67943SOL    HW115808   1.173   7.360  12.662 -0.6993  1.4828  1.1461
67943SOL    HW215809   1.213   7.214  12.669 -0.6370  1.2440 -2.3640
67944SOL     OW15810  11.666  13.322   0.851  0.1494  0.0884 -0.1418
67944SOL    HW115811  11.759  13.336   0.835  0.6645 -1.3805  1.2351
67944SOL    HW215812  11.651  13.361   0.937 -0.4915  0.2868 -0.3439
67945SOL     OW15813   7.366  13.283   8.087  0.3822 -0.4875 -0.1834
67945SOL    HW115814   7.319  13.310   8.166  1.1160 -0.8140  0.3731
67945SOL    HW215815   7.359  13.358   8.028 -2.5506 -1.2221 -0.9426
67946SOL     OW15816  10.243   9.100  10.077  0.1123 -0.2340  0.0032
67946SOL    HW115817  10.169   9.137  10.027 -0.5972  2.1947  2.5985
67946SOL    HW215818  10.302   9.066  10.010 -1.2713  1.8123 -2.4597
67947SOL     OW15819   8.821   1.242   0.493 -0.5608 -0.0598  0.5398
67947SOL    HW115820   8.792   1.158   0.456  1.7288 -0.1356 -1.3109
67947SOL    HW215821   8.848   1.220   0.583  2.3185 -1.9834 -0.6360
67948SOL     OW15822   7.471  13.461   7.905  0.1217  0.4309 -0.7063
67948SOL    HW115823   7.528  13.538   7.900  0.5403  0.0613 -1.8461
67948SOL    HW215824   7.498  13.406   7.832  0.7752 -1.4670  0.8939
67949SOL     OW15825   9.668   5.891  10.176 -0.4021  0.1522  1.0840
67949SOL    HW115826   9.626   5.937  10.104 -0.1302 -0.6916  0.3712
67949SOL    HW215827   9.657   5.798  10.156 -0.7002 -0.1053  2.3552
67950SOL     OW15828   6.960   4.780   2.171  0.3670  0.5390 -0.3799
67950SOL    HW115829   6.947   4.822   2.256 -0.3140  1.1585 -0.7733
67950SOL    HW215830   7.045   4.736   2.178  0.4096  0.7596  0.5472
67951SOL     OW15831  10.476   3.082   4.149  0.1705  0.4473  0.1791
67951SOL    HW115832  10.401   3.101   4.092  0.0035 -1.9774 -0.5035
67951SOL    HW215833  10.437   3.055   4.232  0.2792 -0.3323 -0.0154
67952SOL     OW15834  12.205   6.899   5.770 -0.3726 -0.7624  0.6076
67952SOL    HW115835  12.283   6.941   5.805  0.5175 -1.1900 -0.7933
67952SOL    HW215836  12.153   6.970   5.733  0.6808 -0.7263 -0.9005
67953SOL     OW15837   3.192   0.472   0.134  0.2384  0.2704  0.3733
67953SOL    HW115838   3.123   0.487   0.070 -0.1408 -1.5366  0.2842
67953SOL    HW215839   3.260   0.535   0.112 -0.7415  1.0690 -0.4929
67954SOL     OW15840   3.776   0.932   9.505  0.2023 -0.3655 -0.1503
67954SOL    HW115841   3.771   1.023   9.479 -2.2777 -0.2490  0.4457
67954SOL    HW215842   3.730   0.928   9.589 -1.2743 -2.3716 -0.9435
67955SOL     OW15843   0.152  12.880   4.949  0.5589  0.0761  0.1262
67955SOL    HW115844   0.151  12.976   4.954  0.4151  0.0175  2.3747
67955SOL    HW215845   0.081  12.853   5.008  1.1282 -1.4279  0.1524
67956SOL     OW15846   0.729  13.179   8.987  0.1804  0.3809 -0.3961
67956SOL    HW115847   0.785  13.191   9.064 -1.6925 -1.7967  1.4448
67956SOL    HW215848   0.641  13.199   9.018 -0.5108  0.4831 -2.3123
67957SOL     OW15849   5.800   2.384   1.656 -0.0921 -0.2538  0.1517
67957SOL    HW115850   5.729   2.337   1.611  0.9700 -1.5994 -0.1726
67957SOL    HW215851   5.879   2.357   1.610  0.8620 -0.4641  1.8422
67958SOL     OW15852  11.920   3.863  11.057 -0.2470 -0.3109 -0.4599
67958SOL    HW115853  11.973   3.892  10.983 -0.3097 -1.5854 -1.0211
67958SOL    HW215854  11.869   3.789  11.023  3.0243 -4.0384  1.9520
67959SOL     OW15855   8.794   0.792   3.705 -0.5021  0.1123 -0.1587
67959SOL    HW115856   8.883   0.826   3.717 -1.4903  2.2069  1.9924
67959SOL    HW215857   8.761   0.837   3.627  0.8857 -2.1735 -2.2037
67960SOL     OW15858  10.328   8.041   8.950  0.1928  0.2206 -0.2340
67960SOL    HW115859  10.398   8.077   8.895  0.0451  1.6847  0.4787
67960SOL    HW215860  10.248   8.083   8.918 -0.6397 -2.3900 -1.8883
67961SOL     OW15861   0.595   2.819   4.727  0.0526 -0.7737  0.2286
67961SOL    HW115862   0.686   2.806   4.700 -0.0126  0.1851 -0.5286
67961SOL    HW215863   0.598   2.895   4.786 -0.2913 -0.4953 -0.1025
67962SOL     OW15864   3.212   2.371  12.071 -0.0679 -0.2076  0.5397
67962SOL    HW115865   3.239   2.319  12.146 -1.3844  2.6245  3.1664
67962SOL    HW215866   3.269   2.341  11.999  1.2891 -2.9976  2.6262
67963SOL     OW15867   6.203  11.467   0.346  0.2400 -0.1602  0.1298
67963SOL    HW115868   6.108  11.459   0.360  0.3001 -0.1327  0.5717
67963SOL    HW215869   6.211  11.510   0.261 -0.1288 -1.3387 -0.5334
67964SOL     OW15870   4.633  12.584   7.959 -0.6838  0.4820  0.7003
67964SOL    HW115871   4.551  12.634   7.955 -1.4377 -0.7174  0.5919
67964SOL    HW215872   4.605  12.494   7.975  0.5386 -0.1663 -0.6124
67965SOL     OW15873   2.399   9.110   8.717  0.4690 -0.0814  0.4508
67965SOL    HW115874   2.425   9.062   8.796  0.4445 -2.8678 -1.0965
67965SOL    HW215875   2.443   9.063   8.646 -0.0534  1.9179 -1.2593
67966SOL     OW15876   2.530  10.977   9.206  0.5029 -0.5316  0.2749
67966SOL    HW115877   2.625  10.970   9.208  0.4753 -0.8227  0.6205
67966SOL    HW215878   2.512  11.039   9.134  0.8839 -1.5893 -0.7607
67967SOL     OW15879   2.569   4.968   3.962  0.6276 -0.3336 -0.5894
67967SOL    HW115880   2.624   4.899   3.998  1.5287 -0.1484 -1.5707
67967SOL    HW215881   2.628   5.043   3.953  0.3422 -0.2724 -2.0906
67968SOL     OW15882  12.030   3.527  10.307  0.6959  0.6863 -0.7419
67968SOL    HW115883  12.053   3.583  10.381  0.9979  0.3189 -0.5589
67968SOL    HW215884  12.055   3.439  10.333 -0.3063  0.3622 -0.8034
67969SOL     OW15885   2.389  12.800   6.813  0.8953  0.2741 -0.0800
67969SOL    HW115886   2.443  12.863   6.861  1.1165 -0.2731  0.4056
67969SOL    HW215887   2.450  12.731   6.787  0.7069  0.3863 -0.8491
67970SOL     OW15888   7.709   1.414   6.660  0.0398 -0.2423  0.0732
67970SOL    HW115889   7.693   1.466   6.739 -0.9866 -1.5981  0.7953
67970SOL    HW215890   7.741   1.330   6.692  2.6050  0.1953 -1.1081
67971SOL     OW15891  11.376   1.109   3.864  0.6686  0.0917  0.0134
67971SOL    HW115892  11.437   1.182   3.853  0.6072  0.1846  0.2755
67971SOL    HW215893  11.293   1.143   3.831  0.5844  0.2256  0.3532
67972SOL     OW15894   1.926   0.406   4.063  0.1177 -0.3568  0.5149
67972SOL    HW115895   1.950   0.334   4.005 -0.2956 -0.9375  1.0476
67972SOL    HW215896   1.853   0.449   4.019  1.6223  0.9747 -0.7635
67973SOL     OW15897  13.363   9.288   0.272 -0.5992 -0.5398  0.3595
67973SOL    HW115898  13.337   9.340   0.196  1.4673  1.0065  0.6280
67973SOL    HW215899  13.395   9.205   0.234 -1.4878 -0.6057 -0.2741
67974SOL     OW15900   6.298  11.165   5.963  0.5194  0.4933 -0.3700
67974SOL    HW115901   6.249  11.244   5.986  0.0206  0.2585 -0.5968
67974SOL    HW215902   6.378  11.197   5.922  0.3748  0.8831 -0.3537
67975SOL     OW15903  12.107  10.302   4.290  0.3283  0.3122 -0.6708
67975SOL    HW115904  12.155  10.328   4.368  0.9911  0.8287 -1.2390
67975SOL    HW215905  12.112  10.206   4.289 -0.7068  0.2213  0.5436
67976SOL     OW15906   1.636   0.816  11.065 -0.1599  0.2270 -0.0475
67976SOL    HW115907   1.690   0.742  11.037 -1.0997 -0.3673 -0.3501
67976SOL    HW215908   1.622   0.868  10.986  0.5923  0.8041  0.1876
67977SOL     OW15909  11.306   2.221   7.205  0.0808 -0.0704 -0.2547
67977SOL    HW115910  11.370   2.282   7.242  0.7825 -0.5843 -0.6024
67977SOL    HW215911  11.223   2.246   7.246  0.5148  0.5516  0.2679
67978SOL     OW15912  13.791   4.375  10.179 -0.0359 -0.6252  0.1001
67978SOL    HW115913  13.798   4.444  10.245 -2.5874  0.2808 -0.4500
67978SOL    HW215914  13.806   4.419  10.095 -0.1870 -1.0362 -0.1487
67979SOL     OW15915   1.272   5.432   0.748  0.2708  0.0783  0.1107
67979SOL    HW115916   1.360   5.449   0.782 -0.2296  2.1495  0.5499
67979SOL    HW215917   1.216   5.437   0.825 -0.2043 -1.8612 -0.0674
67980SOL     OW15918   0.189   1.800   6.876  0.0101 -0.6020 -0.0867
67980SOL    HW115919   0.095   1.809   6.885 -0.0850 -1.0517 -0.5518
67980SOL    HW215920   0.202   1.773   6.784  0.7491  1.9051 -0.7960
67981SOL     OW15921   0.629  10.524   9.468  0.3963  0.5767 -0.3046
67981SOL    HW115922   0.576  10.449   9.496 -0.7129  1.1377 -0.8503
67981SOL    HW215923   0.718  10.489   9.460  0.1377 -0.3619  0.7160
67982SOL     OW15924   5.687   3.823   1.197  0.2577  1.3941 -0.8801
67982SOL    HW115925   5.617   3.887   1.183 -0.1557  1.2541  0.4381
67982SOL    HW215926   5.765   3.863   1.157 -0.5826  1.4616 -2.5400
67983SOL     OW15927   2.556   6.466   9.226 -0.4393  0.0478  0.0509
67983SOL    HW115928   2.468   6.429   9.223 -0.5297 -0.2631  3.0959
67983SOL    HW215929   2.607   6.412   9.166 -1.7014 -1.7349  0.4817
67984SOL     OW15930   0.442  12.252  12.101  0.1173 -0.2892  0.2798
67984SOL    HW115931   0.532  12.282  12.091  0.0535 -0.2975 -0.3344
67984SOL    HW215932   0.389  12.320  12.059 -0.0531 -1.0394 -0.7655
67985SOL     OW15933   6.559   7.189   0.105  0.2246  0.2132  0.5081
67985SOL    HW115934   6.638   7.150   0.141  1.1290  0.7139 -0.8288
67985SOL    HW215935   6.532   7.254   0.170  1.1743  0.3492  0.7836
67986SOL     OW15936   2.235   8.466   3.272 -0.0970  0.2844 -0.8148
67986SOL    HW115937   2.327   8.442   3.283 -0.6615 -1.4965  0.7812
67986SOL    HW215938   2.227   8.551   3.315  0.4921 -0.3565  0.6302
67987SOL     OW15939  11.675   1.520  11.914  0.2188  0.0912 -0.3491
67987SOL    HW115940  11.614   1.468  11.861  0.4316 -1.0701  0.5063
67987SOL    HW215941  11.645   1.507  12.004  2.5452 -1.7460  0.2621
67988SOL     OW15942   8.543   6.840  10.176 -0.3842 -0.4449  1.1909
67988SOL    HW115943   8.585   6.923  10.197  0.1581  0.5452 -3.0132
67988SOL    HW215944   8.457   6.846  10.218  0.0509  1.7600  1.9204
67989SOL     OW15945   1.543   0.018  13.590 -0.1690 -0.4819  0.2886
67989SOL    HW115946   1.449   0.014  13.573  0.1066 -1.6498 -1.1444
67989SOL    HW215947   1.554  -0.024  13.675 -1.0401  0.5969  0.9516
67990SOL     OW15948  12.355   2.490  11.528 -0.5040  0.1271 -0.4612
67990SOL    HW115949  12.264   2.494  11.560  0.1948  0.9136  1.6388
67990SOL    HW215950  12.407   2.524  11.601  1.4392  0.3331 -1.8713
67991SOL     OW15951  10.941   6.012   0.621  0.5084  0.0002  0.3314
67991SOL    HW115952  10.930   5.931   0.571  1.3941 -0.1958  0.4471
67991SOL    HW215953  10.988   5.987   0.700 -0.4805  0.3927  1.0723
67992SOL     OW15954   1.015  10.164  12.475  0.4048  0.1468  0.1226
67992SOL    HW115955   1.004  10.215  12.395  0.5227 -1.6762 -1.0856
67992SOL    HW215956   0.962  10.211  12.540 -1.3346  0.5594 -1.5085
67993SOL     OW15957  14.041  12.116   5.479 -0.1651 -0.2922  0.2049
67993SOL    HW115958  13.966  12.173   5.467  1.2478  1.4522 -0.7279
67993SOL    HW215959  14.089  12.120   5.396 -0.8130 -4.1698 -0.5728
67994SOL     OW15960   2.312   9.659   7.644 -0.0291  0.2843 -0.4677
67994SOL    HW115961   2.228   9.624   7.675 -0.8988  0.6644 -2.2173
67994SOL    HW215962   2.311   9.751   7.672 -0.3632  0.3727 -0.7531
67995SOL     OW15963   0.214  11.767   9.772 -0.7034 -0.1248 -0.1733
67995SOL    HW115964   0.253  11.685   9.803 -0.1333  0.6776  1.3122
67995SOL    HW215965   0.286  11.813   9.729 -0.3098  0.7554  1.3673
67996SOL     OW15966   0.608   9.719   1.622  0.2894 -0.2610  0.8618
67996SOL    HW115967   0.623   9.689   1.532  1.9534  0.8018  0.7382
67996SOL    HW215968   0.515   9.740   1.625  0.3604  0.4538 -0.8779
67997SOL     OW15969  12.676   1.357   2.492  0.2985  0.2022  0.2353
67997SOL    HW115970  12.601   1.327   2.441  0.1467 -0.6696  0.9596
67997SOL    HW215971  12.687   1.449   2.466 -1.7698  0.7287  1.0269
67998SOL     OW15972   2.979   8.170  10.934 -0.1661  0.1092  0.5517
67998SOL    HW115973   2.969   8.133  11.021 -0.9869 -0.9329  0.0426
67998SOL    HW215974   2.907   8.132  10.884  0.7882  0.0140 -0.8050
67999SOL     OW15975   1.880   0.292  12.899 -0.5361  0.4568 -0.1050
67999SOL    HW115976   1.957   0.297  12.956 -0.2067  0.2057 -0.5235
67999SOL    HW215977   1.864   0.198  12.890 -0.1827  0.4730 -0.9613
68000SOL     OW15978   3.579   8.477   5.143 -0.4624 -0.2930  0.2874
68000SOL    HW115979   3.493   8.465   5.182 -2.0781  0.4747 -2.7053
68000SOL    HW215980   3.605   8.565   5.168 -0.7576 -0.3647  0.8580
68001SOL     OW15981   2.890  13.274  10.635 -0.1676  0.3228 -0.4795
68001SOL    HW115982   2.821  13.224  10.591 -0.5643  0.3534  0.1034
68001SOL    HW215983   2.949  13.300  10.564 -0.3254 -0.3769 -0.8805
68002SOL     OW15984  11.202   5.817  10.907  0.0496  0.1986  0.1570
68002SOL    HW115985  11.209   5.722  10.917  2.5582  0.4288  1.1891
68002SOL    HW215986  11.224   5.833  10.815  0.4083 -0.1802  0.1742
68003SOL     OW15987   1.760   2.027  12.276 -0.1217 -0.1091 -0.1180
68003SOL    HW115988   1.808   2.107  12.300  0.0717 -0.0790 -0.5978
68003SOL    HW215989   1.761   1.974  12.356  0.1886  0.1517  0.0559
68004SOL     OW15990  11.058   0.104   9.912 -0.1037 -0.0601  0.5752
68004SOL    HW115991  11.017   0.190   9.918 -1.1465 -0.4670 -0.3528
68004SOL    HW215992  11.130   0.117   9.850  0.4990  0.4018  1.3532
68005SOL     OW15993   5.956  13.195  13.684  0.1351  0.6376 -0.0699
68005SOL    HW115994   5.987  13.105  13.695  2.3500  1.4742  1.3348
68005SOL    HW215995   5.868  13.195  13.720  0.3320 -0.8362  0.4739
68006SOL     OW15996   2.941   1.228   4.634  0.0499  0.0201  0.0486
68006SOL    HW115997   2.979   1.306   4.673  1.4462 -0.9367  0.7236
68006SOL    HW215998   3.002   1.204   4.563 -0.9911  0.1895 -0.9398
68007SOL     OW15999   6.250   5.007  14.023 -0.1970 -0.5609  0.7000
68007SOL    HW116000   6.271   4.926  13.976  0.8755  0.2051 -0.1720
68007SOL    HW216001   6.188   4.979  14.091 -0.2248 -2.0265  0.1126
68008SOL     OW16002  11.654  11.313   3.533 -0.0042 -0.0794 -0.1726
68008SOL    HW116003  11.565  11.286   3.513 -0.0253 -1.5029  1.6364
68008SOL    HW216004  11.644  11.398   3.577 -0.4259 -0.0209 -0.3757
68009SOL     OW16005  13.363   7.897   8.461  0.1618 -0.2633  0.1229
68009SOL    HW116006  13.439   7.952   8.483  0.1161 -0.1292 -0.0486
68009SOL    HW216007  13.333   7.932   8.376  0.3386 -0.7741 -0.1538
68010SOL     OW16008  12.357   6.143  10.185 -0.4088 -0.0376  0.5869
68010SOL    HW116009  12.402   6.070  10.142  2.0371  1.1827  0.8779
68010SOL    HW216010  12.393   6.145  10.273 -1.6590  0.5572  1.1122
68011SOL     OW16011   7.743   9.770  10.871 -0.2013  0.2493 -0.2454
68011SOL    HW116012   7.821   9.729  10.906 -0.1096 -0.0242 -0.7636
68011SOL    HW216013   7.671   9.712  10.897 -0.1777  0.2413 -0.1969
68012SOL     OW16014   4.188   5.799  10.433 -0.3694  0.1731 -0.1611
68012SOL    HW116015   4.226   5.711  10.433 -1.9074 -0.5775 -2.4273
68012SOL    HW216016   4.245   5.850  10.376  1.8383  1.4068  2.8863
68013SOL     OW16017   4.955   0.769   6.128  0.5087 -0.5777 -0.0568
68013SOL    HW116018   5.048   0.765   6.107  0.1406 -1.1804 -1.7706
68013SOL    HW216019   4.913   0.713   6.062 -1.0663 -0.3596  0.7033
68014SOL     OW16020  11.235  12.442   5.417  0.1026  0.1464 -0.0993
68014SOL    HW116021  11.196  12.529   5.429  1.2647  0.5566  0.8249
68014SOL    HW216022  11.164  12.381   5.438 -0.7791  0.8473 -0.9390
68015SOL     OW16023   1.686   0.562   1.904  0.0777 -0.0932  0.3381
68015SOL    HW116024   1.726   0.605   1.980 -0.6254 -0.5976  1.0041
68015SOL    HW216025   1.607   0.613   1.887  0.4239  0.2504 -0.3125
68016SOL     OW16026   5.694   4.080  10.514 -0.7050  0.4725 -0.1513
68016SOL    HW116027   5.634   4.114  10.447  1.6307  0.7262 -2.3058
68016SOL    HW216028   5.738   4.158  10.548 -1.1038  0.2439  0.9106
68017SOL     OW16029   3.564   7.097  13.695  0.0568 -0.7886 -0.1481
68017SOL    HW116030   3.651   7.080  13.731  0.1361 -0.6416 -0.2709
68017SOL    HW216031   3.567   7.065  13.605  0.8840  1.7496 -1.1025
68018SOL     OW16032   8.734   5.903   8.018  0.1139  0.1763  0.2050
68018SOL    HW116033   8.683   5.913   7.937  0.5821 -2.0483 -0.4424
68018SOL    HW216034   8.683   5.841   8.070 -0.5184  2.0720  1.9791
68019SOL     OW16035   1.345   5.799   1.203  0.2479 -0.7334  0.3614
68019SOL    HW116036   1.399   5.827   1.129 -0.3487  0.1637  0.2468
68019SOL    HW216037   1.377   5.712   1.225  0.7320 -0.8237 -0.6660
68020SOL     OW16038   3.678   1.915   4.248  0.3172  0.1289 -0.6713
68020SOL    HW116039   3.597   1.941   4.291  0.2154  0.8363 -1.2687
68020SOL    HW216040   3.717   1.997   4.219 -0.1256 -0.3646 -2.8392
68021SOL     OW16041   6.899   4.991   7.401  0.3532 -0.3567 -0.1153
68021SOL    HW116042   6.968   4.950   7.452 -0.3567 -1.1631  0.2241
68021SOL    HW216043   6.834   4.922   7.389  0.6627 -0.3287 -2.4563
68022SOL     OW16044   2.397   3.294   3.869 -0.3785 -0.1606  0.4731
68022SOL    HW116045   2.477   3.321   3.824 -0.4506 -0.0195  0.4309
68022SOL    HW216046   2.328   3.302   3.803 -0.3944 -0.4841  0.4470
68023SOL     OW16047   3.858   8.885  10.690 -0.4263  0.0050 -0.3592
68023SOL    HW116048   3.941   8.917  10.654 -0.5745  0.6668 -0.1416
68023SOL    HW216049   3.803   8.963  10.693 -0.7506 -0.2485  0.3585
68024SOL     OW16050   9.854   8.449   5.893  0.1320  0.2696 -0.1084
68024SOL    HW116051   9.774   8.451   5.840  1.5554 -0.1488 -2.4276
68024SOL    HW216052   9.879   8.356   5.896  2.2613  0.6809 -2.3259
68025SOL     OW16053   2.771   3.095  12.442  0.1402  0.6043 -0.0461
68025SOL    HW116054   2.806   3.128  12.359 -2.0633  0.6501 -1.0282
68025SOL    HW216055   2.684   3.060  12.419 -0.2745  0.0765  2.1421
68026SOL     OW16056   1.929   5.964   8.228 -0.8689  0.1267  0.4214
68026SOL    HW116057   1.969   5.991   8.145  0.1975  1.7549  1.3969
68026SOL    HW216058   1.853   6.022   8.238 -0.4330  0.6191  1.0040
68027SOL     OW16059   9.691   1.602   0.454  0.2905 -0.0197  0.5179
68027SOL    HW116060   9.743   1.604   0.534 -0.3751  1.2197  0.9487
68027SOL    HW216061   9.602   1.625   0.483  0.0208  0.3291 -0.5510
68028SOL     OW16062   2.617   8.006   1.253 -0.1303 -0.2493  0.1262
68028SOL    HW116063   2.534   8.038   1.220 -0.2095 -1.5294 -0.9939
68028SOL    HW216064   2.681   8.073   1.227 -0.4681 -0.3673 -1.0254
68029SOL     OW16065  11.447  11.645  10.201 -0.4102 -0.1772 -0.0398
68029SOL    HW116066  11.537  11.642  10.235  0.7861 -1.6430 -2.9581
68029SOL    HW216067  11.397  11.593  10.263  1.2403 -1.1618  0.5412
68030SOL     OW16068  10.330   1.959  12.985 -0.2458  0.2463 -0.2016
68030SOL    HW116069  10.356   2.007  12.906 -1.1502  0.3424 -0.4444
68030SOL    HW216070  10.388   1.882  12.985  0.3421  0.6829 -0.4933
68031SOL     OW16071   3.039   6.786   9.777 -0.0568  0.0940 -0.6283
68031SOL    HW116072   3.073   6.822   9.694 -1.3112  1.3169 -0.6526
68031SOL    HW216073   2.986   6.711   9.750  1.1053 -0.7242 -0.7359
68032SOL     OW16074   1.183  12.487   8.677 -0.0952  0.5523  0.0709
68032SOL    HW116075   1.257  12.453   8.628 -1.3716 -0.8368 -0.9724
68032SOL    HW216076   1.199  12.458   8.767 -0.0792 -1.0049 -0.4081
68033SOL     OW16077   6.055  10.784   6.622  0.0144 -0.1067  0.4101
68033SOL    HW116078   6.136  10.835   6.617 -0.1235  0.0600 -0.2847
68033SOL    HW216079   6.067  10.727   6.698  0.6845  0.0822  0.4534
68034SOL     OW16080   8.106  13.956   3.830 -0.0171 -0.0933  0.5547
68034SOL    HW116081   8.186  14.008   3.830  0.8310 -1.2145 -1.9704
68034SOL    HW216082   8.035  14.020   3.843  1.1962  1.0840  1.5971
68035SOL     OW16083   0.963   3.724  13.753 -0.2440  0.3461  0.5280
68035SOL    HW116084   0.880   3.741  13.798 -0.8162  1.6489 -0.9062
68035SOL    HW216085   1.024   3.789  13.789 -0.2988  0.4298  0.4713
68036SOL     OW16086   0.074   2.753   9.914  0.2124  0.5712  0.0844
68036SOL    HW116087   0.121   2.772   9.832  0.5938 -1.0704 -0.1167
68036SOL    HW216088   0.034   2.668   9.899 -2.8403  1.8637  0.3018
68037SOL     OW16089  11.981   5.072   2.494 -0.0845 -0.4445 -0.1952
68037SOL    HW116090  12.002   5.134   2.423 -1.2777 -0.7400 -0.8474
68037SOL    HW216091  12.065   5.036   2.520  0.7043  1.6415  0.4048
68038SOL     OW16092   6.058   0.980   3.000 -0.8080 -0.3581 -0.0772
68038SOL    HW116093   6.028   0.983   3.091 -1.1258 -1.9175 -0.0896
68038SOL    HW216094   6.122   0.908   2.999  0.4185  0.7023 -0.7647
68039SOL     OW16095  10.085  10.794   1.952  0.1479  0.2395 -0.0159
68039SOL    HW116096  10.032  10.865   1.915  0.1760 -0.0598 -0.6447
68039SOL    HW216097  10.104  10.822   2.041 -1.0193  0.3917  0.2072
68040SOL     OW16098   2.040  10.469   2.431 -0.5320 -0.2581 -0.0642
68040SOL    HW116099   1.976  10.538   2.419 -0.2386 -0.0270 -0.3314
68040SOL    HW216100   2.026  10.438   2.520 -1.3357 -0.5462 -0.2811
68041SOL     OW16101   1.940   4.945  13.173 -0.3140  0.2089 -0.4273
68041SOL    HW116102   1.940   4.900  13.088 -1.3137 -2.0467  0.6793
68041SOL    HW216103   2.015   4.908  13.219 -0.8749  0.0253  0.3428
68042SOL     OW16104   4.270   9.764   4.925 -0.0743  0.2037 -0.0446
68042SOL    HW116105   4.224   9.697   4.874 -0.5437  0.2138  0.3617
68042SOL    HW216106   4.214   9.842   4.918 -0.0690  0.2448  0.3706
68043SOL     OW16107   0.444   3.811   7.930 -0.2832  0.2784  0.5068
68043SOL    HW116108   0.384   3.818   8.004 -0.2103 -0.1303  0.6078
68043SOL    HW216109   0.511   3.749   7.959  0.0847  0.5891  0.3246
68044SOL     OW16110  11.496   7.913  10.947  0.2539  0.1461 -0.2326
68044SOL    HW116111  11.464   7.826  10.972 -0.7961  0.7749  0.6813
68044SOL    HW216112  11.575   7.925  11.001  0.3263 -0.1814 -0.2635
68045SOL     OW16113   0.345   6.613   5.130 -0.1507  0.2462  0.1813
68045SOL    HW116114   0.374   6.671   5.060 -0.1068  0.0668  0.0528
68045SOL    HW216115   0.423   6.563   5.154 -0.1279  0.4063  0.4578
68046SOL     OW16116  11.316   0.634   4.752  0.0459 -0.3200 -0.1838
68046SOL    HW116117  11.309   0.717   4.799  0.1996  0.3801 -1.3333
68046SOL    HW216118  11.277   0.569   4.810  0.8215  0.3777  1.1724
68047SOL     OW16119   5.063   8.595   6.893  0.2542 -0.0319  0.6452
68047SOL    HW116120   5.119   8.624   6.821  3.3118  0.2097  2.9173
68047SOL    HW216121   5.022   8.676   6.924  1.5111  0.4468  1.1545
68048SOL     OW16122  11.400  11.546   8.641 -0.0297  0.1741  0.3074
68048SOL    HW116123  11.381  11.499   8.560  3.0805 -0.5653 -0.1350
68048SOL    HW216124  11.395  11.478   8.709  1.5333 -0.1836  0.0909
68049SOL     OW16125   4.457   7.287   8.070  0.1977 -0.3108 -0.4584
68049SOL    HW116126   4.507   7.350   8.018  0.9970 -0.1872  0.4223
68049SOL    HW216127   4.435   7.217   8.008  1.2029 -0.2152 -0.9575
68050SOL     OW16128   8.524   3.223   6.357  0.1955 -0.0765  0.5114
68050SOL    HW116129   8.469   3.300   6.368  0.4885  0.1494  0.3942
68050SOL    HW216130   8.467   3.149   6.381 -0.1784  0.1477  0.3205
68051SOL     OW16131   7.314  11.955  13.572 -0.2997 -0.1769 -0.5598
68051SOL    HW116132   7.368  11.922  13.500 -0.2347  1.8480 -1.5134
68051SOL    HW216133   7.375  12.005  13.627 -0.8827  0.7315 -0.7271
68052SOL     OW16134  13.856   2.777   0.241 -0.4048  0.5829  0.4594
68052SOL    HW116135  13.871   2.717   0.314 -0.1740 -0.5995 -0.5313
68052SOL    HW216136  13.791   2.733   0.186 -0.9563  1.6858  0.1869
68053SOL     OW16137  11.283   9.151  12.550  0.5299 -0.2409  0.8791
68053SOL    HW116138  11.360   9.100  12.521  1.3479 -0.0379  2.5861
68053SOL    HW216139  11.225   9.087  12.590  1.5231  0.0909  2.9557
68054SOL     OW16140   8.205   5.233   5.258 -0.3290 -0.3735 -0.2586
68054SOL    HW116141   8.203   5.273   5.345 -0.7750  0.1012 -0.4849
68054SOL    HW216142   8.298   5.230   5.235 -0.0932 -1.5768  0.7195
68055SOL     OW16143   2.824  12.384   0.674  0.7681 -0.2613 -0.0608
68055SOL    HW116144   2.777  12.302   0.691  1.0248 -0.3726  0.1221
68055SOL    HW216145   2.780  12.422   0.598 -0.5873  0.3877  1.0017
68056SOL     OW16146  10.819  11.874   0.884  0.2176  0.1727  0.4263
68056SOL    HW116147  10.855  11.905   0.967  0.7896 -1.5829  0.8711
68056SOL    HW216148  10.893  11.833   0.840 -0.2393  0.5136 -0.6779
68057SOL     OW16149   5.416   0.798   0.733  0.3004  0.1923 -0.1612
68057SOL    HW116150   5.372   0.714   0.718  0.9218 -0.2116  0.2216
68057SOL    HW216151   5.505   0.774   0.758  0.5045  0.9741 -0.1158
68058SOL     OW16152  13.239  12.949   8.882  0.3188  0.0297  0.4369
68058SOL    HW116153  13.188  12.869   8.897 -2.6004  1.4385 -1.0544
68058SOL    HW216154  13.204  13.011   8.947  2.5971  0.1639  1.6342
68059SOL     OW16155   8.620   7.062  13.702 -0.0622 -0.4698  0.2724
68059SOL    HW116156   8.558   7.134  13.712 -0.3924 -0.6320 -0.5418
68059SOL    HW216157   8.590   7.015  13.624  1.0988 -0.5436 -0.1442
68060SOL     OW16158   3.308   0.128  10.121  0.2875  0.3313  0.0779
68060SOL    HW116159   3.296   0.169  10.035  1.1955 -0.1358 -0.2886
68060SOL    HW216160   3.281   0.196  10.184  1.6042  1.4652 -0.5125
68061SOL     OW16161  11.945   8.709   2.161  0.5269 -0.4454 -0.8670
68061SOL    HW116162  11.968   8.678   2.074 -1.5841 -1.5922 -1.0877
68061SOL    HW216163  11.970   8.637   2.219  0.2399 -0.4646 -0.7639
68062SOL     OW16164  10.731  11.407   5.025 -0.3291 -0.4550  0.1379
68062SOL    HW116165  10.720  11.496   5.057  0.0325 -0.2184 -0.3853
68062SOL    HW216166  10.816  11.407   4.981 -1.2113 -0.4960 -1.6661
68063SOL     OW16167   4.101   7.768   4.342  0.4251 -0.0857  0.4454
68063SOL    HW116168   4.051   7.759   4.423  0.2191 -0.8651  0.2447
68063SOL    HW216169   4.148   7.685   4.333  1.0974  0.3128  0.1890
68064SOL     OW16170  10.425   8.632  13.117 -0.0416 -0.2228  0.3344
68064SOL    HW116171  10.390   8.551  13.081 -1.1416  0.3206  0.1252
68064SOL    HW216172  10.453   8.609  13.205 -0.8383 -0.7253  0.4691
68065SOL     OW16173   7.301   5.138  10.081  0.7079 -0.0976 -0.0591
68065SOL    HW116174   7.228   5.169  10.028  0.8954  0.2019 -0.1419
68065SOL    HW216175   7.361   5.097  10.019  0.3481 -0.8536  0.0791
68066SOL     OW16176   7.470   4.557  10.627  0.9419  0.2939  0.7166
68066SOL    HW116177   7.406   4.613  10.581  1.8111  0.1568 -0.7257
68066SOL    HW216178   7.461   4.581  10.719  0.9202  2.4445  0.1980
68067SOL     OW16179   2.256   3.608  11.868 -0.0368 -0.7279 -0.5465
68067SOL    HW116180   2.287   3.698  11.877 -1.5482 -0.1382 -0.8602
68067SOL    HW216181   2.162   3.617  11.849 -0.0080 -2.3272 -1.6645
68068SOL     OW16182   6.033   9.769   0.990  0.0657  0.1895 -0.0424
68068SOL    HW116183   5.966   9.708   0.959  0.9607 -0.5434 -0.5724
68068SOL    HW216184   6.014   9.779   1.084  2.5121 -4.4773  1.2096
68069SOL     OW16185   4.350   3.420  13.805  0.0977  0.0970  0.1837
68069SOL    HW116186   4.427   3.476  13.808  1.1085 -1.2459  0.4156
68069SOL    HW216187   4.302   3.450  13.728  0.7989  1.0187  0.0814
68070SOL     OW16188  10.047   0.896  13.600 -0.0706  0.1442 -0.0142
68070SOL    HW116189  10.065   0.868  13.690  1.2307 -0.0802 -0.3239
68070SOL    HW216190  10.100   0.976  13.589  1.3466 -0.9038 -1.1804
68071SOL     OW16191   7.673  13.897   0.933 -0.0436 -0.0583 -0.1303
68071SOL    HW116192   7.677  13.835   0.860 -0.8765  0.0012 -0.2360
68071SOL    HW216193   7.648  13.843   1.008 -0.2440  0.0627 -0.1106
68072SOL     OW16194  11.610   2.321   3.154  0.1282 -0.0033  0.2245
68072SOL    HW116195  11.590   2.377   3.079  0.8624  0.3826  0.3096
68072SOL    HW216196  11.628   2.382   3.226  0.7228 -0.3431  0.3700
68073SOL     OW16197   0.063  10.906   0.031  0.7506 -0.0495  0.3107
68073SOL    HW116198   0.017  10.976   0.078 -0.5253 -0.6265 -0.0476
68073SOL    HW216199   0.107  10.950  -0.041 -1.1059  0.2712 -0.6985
68074SOL     OW16200   0.907   1.741   1.732  0.1666 -0.1461  0.6428
68074SOL    HW116201   0.978   1.754   1.794  0.8930  1.3687 -0.4477
68074SOL    HW216202   0.942   1.772   1.648 -1.3675 -0.4938 -0.1652
68075SOL     OW16203   4.217   2.881   8.594  0.1051 -0.1982 -0.0695
68075SOL    HW116204   4.158   2.954   8.612  0.7159  0.2536  0.1222
68075SOL    HW216205   4.168   2.825   8.534 -0.5027  0.1911  0.0549
68076SOL     OW16206   6.033  12.943   0.674 -0.3565 -0.1181  0.6758
68076SOL    HW116207   6.053  13.010   0.608 -2.5703 -1.0856 -1.1161
68076SOL    HW216208   6.099  12.875   0.660  0.4084  0.5753  0.8494
68077SOL     OW16209   5.290  13.944  10.981  0.0923 -0.6984  0.1081
68077SOL    HW116210   5.344  13.959  11.058  0.0322 -2.3305  0.4938
68077SOL    HW216211   5.218  14.006  10.990  1.8240  1.5256 -0.4202
68078SOL     OW16212   5.905   9.545  10.730 -0.7905 -0.4890 -0.3785
68078SOL    HW116213   5.930   9.632  10.699 -0.3594 -1.0926 -1.8452
68078SOL    HW216214   5.902   9.553  10.825  0.2664  0.8600 -0.4262
68079SOL     OW16215  13.865   8.479   0.272 -0.0456  0.1945 -0.4655
68079SOL    HW116216  13.927   8.423   0.319  0.8826 -1.2130 -3.1689
68079SOL    HW216217  13.779   8.444   0.294  0.4638 -1.6224 -1.1956
68080SOL     OW16218   4.271  11.042   4.964 -0.2665  0.1332  0.1547
68080SOL    HW116219   4.200  11.088   4.918  1.0501  1.6485 -0.4793
68080SOL    HW216220   4.237  10.954   4.980 -1.9457  0.5441 -0.9089
68081SOL     OW16221   3.130   2.206  12.879 -0.5254 -0.7224 -0.3119
68081SOL    HW116222   3.219   2.185  12.910 -0.0905  1.5645  0.1665
68081SOL    HW216223   3.137   2.201  12.784  0.4919  0.5833 -0.3463
68082SOL     OW16224  13.725   8.883   0.170 -0.0784  0.3695 -0.0706
68082SOL    HW116225  13.678   8.819   0.117 -1.2750  0.6438  0.6058
68082SOL    HW216226  13.817   8.860   0.161 -0.3173 -0.0779 -1.6077
68083SOL     OW16227   1.294   0.584   7.822 -0.4404 -0.2502 -0.1593
68083SOL    HW116228   1.356   0.644   7.862  0.1291 -0.2216 -1.0574
68083SOL    HW216229   1.341   0.501   7.817 -0.6084 -0.3265 -0.4886
68084SOL     OW16230   5.023   4.159  10.152 -0.0964 -0.0993 -0.0722
68084SOL    HW116231   5.022   4.204  10.068  0.1679 -0.6921 -0.4028
68084SOL    HW216232   4.972   4.079  10.138  0.1721 -0.3347  0.2523
68085SOL     OW16233   7.393  10.362   9.209 -0.0353 -0.2288  0.7029
68085SOL    HW116234   7.369  10.385   9.120 -0.1639 -1.5498  0.3657
68085SOL    HW216235   7.326  10.404   9.264  1.3697  2.5570  0.4198
68086SOL     OW16236  11.627   4.173   0.172 -0.6074 -0.2531  0.7997
68086SOL    HW116237  11.674   4.227   0.235  0.3894  1.2626 -1.1433
68086SOL    HW216238  11.682   4.096   0.160 -0.9496 -0.6997  1.9415
68087SOL     OW16239   2.879   5.368   0.512  0.0098 -0.7070  0.9112
68087SOL    HW116240   2.844   5.456   0.527  0.1687 -0.5578  0.4289
68087SOL    HW216241   2.828   5.334   0.438 -0.2147 -1.1191  1.2453
68088SOL     OW16242   5.582   0.596   6.170  0.0101  0.1662 -0.2109
68088SOL    HW116243   5.492   0.562   6.170  0.0537  0.0337  0.3254
68088SOL    HW216244   5.637   0.519   6.156 -0.0387  0.6451 -4.2639
68089SOL     OW16245  12.657   4.584   2.174 -0.1483 -0.3112  0.0661
68089SOL    HW116246  12.617   4.557   2.092  0.7918 -1.1767 -0.1215
68089SOL    HW216247  12.718   4.653   2.149 -0.4517 -0.0075  0.1555
68090SOL     OW16248   8.305   7.804   1.923  0.2466 -0.0553  0.4073
68090SOL    HW116249   8.210   7.806   1.927  0.2625 -0.8672  3.7946
68090SOL    HW216250   8.328   7.712   1.937  1.5726  0.0322 -0.9017
68091SOL     OW16251  13.122  12.682  13.742  0.7619  0.0267  0.2028
68091SOL    HW116252  13.165  12.756  13.785  1.4890 -0.6671  0.6725
68091SOL    HW216253  13.036  12.676  13.784  0.7317  0.5424  0.2190
68092SOL     OW16254   6.783   4.399   7.941  0.6560  0.6680 -1.0168
68092SOL    HW116255   6.717   4.419   8.008  2.3959  0.9812  0.6787
68092SOL    HW216256   6.732   4.386   7.862 -1.8572 -2.7981  0.8995
68093SOL     OW16257   8.639  12.038   1.878 -0.4156 -0.1889  0.7235
68093SOL    HW116258   8.562  11.982   1.883 -0.0742 -0.7859 -0.2649
68093SOL    HW216259   8.708  11.988   1.921 -1.0492  1.3358  3.7860
68094SOL     OW16260   3.379   5.615  11.597 -0.2071 -0.0136 -0.2530
68094SOL    HW116261   3.299   5.638  11.644  0.1721  2.6227 -0.7133
68094SOL    HW216262   3.441   5.590  11.666 -0.7477  0.2018  0.3229
68095SOL     OW16263   3.435   8.817  12.291  0.3348 -0.2292  0.1576
68095SOL    HW116264   3.368   8.880  12.264  0.9168 -0.1838 -1.2931
68095SOL    HW216265   3.395   8.731  12.277  1.2121 -0.2590 -2.7020
68096SOL     OW16266   1.950   9.930   3.489  0.1094 -0.1233 -0.4527
68096SOL    HW116267   1.949   9.838   3.463  1.7301 -0.0529 -0.8466
68096SOL    HW216268   1.959   9.978   3.406  0.0935  0.3608 -0.1798
68097SOL     OW16269   5.552   7.226  10.362 -0.1677  0.1352  0.2447
68097SOL    HW116270   5.483   7.227  10.429 -0.9668  0.4691 -0.5756
68097SOL    HW216271   5.619   7.285  10.397  1.0481 -2.2860  2.3847
68098SOL     OW16272   6.142   5.020  12.018  0.1979 -0.3582 -0.2668
68098SOL    HW116273   6.151   5.114  12.035 -1.0864 -0.4249  0.9492
68098SOL    HW216274   6.226   4.982  12.044  0.2093  0.2733  0.6621
68099SOL     OW16275   5.682   6.830   3.576 -0.1028  0.1819  0.4652
68099SOL    HW116276   5.634   6.892   3.521  0.6329 -0.2695 -0.7166
68099SOL    HW216277   5.730   6.886   3.638 -0.8249  0.6981  0.5786
68100SOL     OW16278   8.754   1.841   6.441  0.3162 -0.0498 -0.1509
68100SOL    HW116279   8.731   1.934   6.440 -0.5335 -0.2473 -0.0838
68100SOL    HW216280   8.682   1.800   6.488 -0.1541 -0.9417 -1.5807
68101SOL     OW16281  10.776  13.260   8.189  0.0267 -0.0158 -0.3251
68101SOL    HW116282  10.716  13.332   8.208  0.4462  0.4357 -0.6995
68101SOL    HW216283  10.821  13.287   8.110  1.3384  0.0477  0.4210
68102SOL     OW16284  13.767  11.782   3.059  0.0131 -0.2325  0.4327
68102SOL    HW116285  13.723  11.833   2.991 -1.2701 -1.5615  0.2112
68102SOL    HW216286  13.734  11.818   3.141  1.0696  0.9483  0.3624
68103SOL     OW16287   2.977   3.587   7.714  0.0479  0.3662  0.3844
68103SOL    HW116288   2.895   3.601   7.667  1.0870  1.3456 -1.2108
68103SOL    HW216289   3.020   3.672   7.715  1.5210 -0.3453  0.2760
68104SOL     OW16290   5.180  11.024   0.963 -0.1553 -0.2682 -0.3058
68104SOL    HW116291   5.200  10.990   1.050 -1.6121 -0.5594 -0.0644
68104SOL    HW216292   5.228  11.106   0.958  1.0016 -0.8796  0.2531
68105SOL     OW16293   9.199   1.858   6.976  0.1640 -0.2331 -0.8744
68105SOL    HW116294   9.281   1.846   6.928  1.1078  1.5285  0.2215
68105SOL    HW216295   9.214   1.934   7.031 -2.7059  1.0512 -1.6828
68106SOL     OW16296  10.143   4.713  10.638  0.0342 -0.8692  0.4827
68106SOL    HW116297  10.134   4.658  10.560  1.5945  1.0582 -1.1567
68106SOL    HW216298  10.069   4.688  10.693 -0.9981 -2.4735 -1.4909
68107SOL     OW16299   2.682   6.497   1.242 -0.1625  0.1983 -0.8801
68107SOL    HW116300   2.593   6.533   1.245 -0.0229  0.5217 -0.4819
68107SOL    HW216301   2.716   6.525   1.157  1.3731  4.6199  0.8597
68108SOL     OW16302   4.795   2.402  10.853  0.2161 -0.2645 -0.2058
68108SOL    HW116303   4.711   2.360  10.871  0.5226 -0.4697  0.7517
68108SOL    HW216304   4.771   2.489  10.821 -0.3597 -0.2905  0.1442
68109SOL     OW16305  13.619   9.578  13.244  0.6879 -0.3790 -0.4397
68109SOL    HW116306  13.535   9.573  13.198 -0.5203 -1.3889  1.7121
68109SOL    HW216307  13.614   9.660  13.294 -1.2364 -2.5614  3.4069
68110SOL     OW16308   2.880   5.631  10.135  0.0685 -0.0013 -0.1782
68110SOL    HW116309   2.798   5.662  10.096 -1.1430 -1.3286  1.1523
68110SOL    HW216310   2.852   5.566  10.200  2.1837 -0.3571  0.4535
68111SOL     OW16311   1.621   5.826   4.768 -0.7695 -0.7320  0.3213
68111SOL    HW116312   1.571   5.836   4.850  1.4779 -1.9103  1.9353
68111SOL    HW216313   1.642   5.733   4.765  1.9857 -0.1771  0.1825
68112SOL     OW16314   0.815   1.530  13.168  0.6159  0.3233 -0.2076
68112SOL    HW116315   0.859   1.531  13.082  1.2664  2.6205  0.0875
68112SOL    HW216316   0.748   1.598  13.161  0.6818  0.5447  1.1020
68113SOL     OW16317   6.556   3.118   8.114 -0.0177 -0.3711  0.1660
68113SOL    HW116318   6.526   3.056   8.181 -0.9793 -2.7320 -2.2368
68113SOL    HW216319   6.504   3.197   8.129 -2.0505 -1.7365  0.6883
68114SOL     OW16320  11.171   4.606  11.897  0.4994  0.0186  0.0766
68114SOL    HW116321  11.169   4.616  11.802 -0.1876 -1.3499 -0.0788
68114SOL    HW216322  11.173   4.511  11.912  1.8112  0.2241  1.4212
68115SOL     OW16323  11.008  13.524  11.897  0.5342  0.3640  0.2109
68115SOL    HW116324  10.966  13.439  11.883 -0.6239  0.7652  1.1456
68115SOL    HW216325  11.067  13.534  11.822  2.5903 -2.3603  1.2651
68116SOL     OW16326  13.726   3.994   6.398 -0.3298 -0.2259 -0.1855
68116SOL    HW116327  13.817   3.994   6.370 -1.0097 -2.3000 -2.8490
68116SOL    HW216328  13.725   3.940   6.477  0.7963  0.4061  0.2867
68117SOL     OW16329   0.866   1.736   6.405  0.2580  0.3714  0.4523
68117SOL    HW116330   0.887   1.773   6.491 -1.2598  3.0980 -0.2253
68117SOL    HW216331   0.812   1.659   6.424 -0.8694  1.4683  1.9699
68118SOL     OW16332  11.808  11.456   1.653 -0.0083 -0.0885 -0.2131
68118SOL    HW116333  11.881  11.499   1.696  0.7718 -0.3341 -1.2673
68118SOL    HW216334  11.805  11.494   1.566 -1.8541  0.7311  0.1596
68119SOL     OW16335   2.136  13.785   9.280  0.0597  0.4387 -0.0846
68119SOL    HW116336   2.206  13.755   9.222 -0.6969 -1.8074  0.0495
68119SOL    HW216337   2.066  13.812   9.220  0.1054  0.2792 -0.2100
68120SOL     OW16338   3.937   0.080   9.328  0.5429  0.6474  0.0142
68120SOL    HW116339   3.950   0.072   9.423  0.7768  0.1160 -0.0601
68120SOL    HW216340   4.006   0.138   9.299  1.0962  0.0055  0.0231
68121SOL     OW16341  10.768   7.220   0.115 -0.4045 -0.1738  0.4190
68121SOL    HW116342  10.795   7.182   0.032 -1.0100 -2.0314  1.0294
68121SOL    HW216343  10.796   7.311   0.110 -0.4444 -0.2330 -1.8151
68122SOL     OW16344   6.118  11.687   1.622 -0.4001 -0.1072  0.0297
68122SOL    HW116345   6.198  11.729   1.655 -0.0006  0.7564 -1.8805
68122SOL    HW216346   6.055  11.759   1.613 -0.5739 -0.3446 -0.7795
68123SOL     OW16347  13.943   7.920   9.707  0.9962 -0.0120  0.1051
68123SOL    HW116348  13.868   7.922   9.766  0.9581 -0.4380  0.0758
68123SOL    HW216349  14.019   7.916   9.765  0.9276 -1.2665  0.1289
68124SOL     OW16350  10.611  10.077   0.792 -0.3156  0.0397  0.4681
68124SOL    HW116351  10.660  10.058   0.872 -1.3867  0.0449  1.1430
68124SOL    HW216352  10.525  10.039   0.807 -0.8640  0.9533 -0.2579
68125SOL     OW16353  13.932   8.027  11.325  0.2962 -0.2684 -0.1713
68125SOL    HW116354  13.980   7.951  11.290 -0.6770 -0.4352 -1.2150
68125SOL    HW216355  13.956   8.030  11.417  2.0511 -0.5375 -0.5797
68126SOL     OW16356  11.937   2.976  12.459 -0.0910  0.2255 -0.6110
68126SOL    HW116357  11.989   3.047  12.422 -0.3142  0.6974 -0.0455
68126SOL    HW216358  11.866   3.021  12.506 -0.7953 -0.3947 -1.0627
68127SOL     OW16359   0.865  10.984   0.269  0.2188  0.0692 -0.0076
68127SOL    HW116360   0.925  11.041   0.222  2.6910 -1.3605  1.2612
68127SOL    HW216361   0.880  10.897   0.232 -0.2721 -0.5086  1.0918
68128SOL     OW16362   9.391   8.334  13.724  0.2589  0.1675  0.2196
68128SOL    HW116363   9.389   8.406  13.660  1.7450 -0.9948 -1.2436
68128SOL    HW216364   9.388   8.377  13.809  1.1776  1.9917 -0.6118
68129SOL     OW16365   6.249   1.407  13.040 -0.6527 -0.0628 -0.1626
68129SOL    HW116366   6.243   1.313  13.055 -1.1822 -0.4067 -2.2278
68129SOL    HW216367   6.343   1.423  13.029 -0.6255 -0.4915 -0.5941
68130SOL     OW16368  13.525   4.442   3.026 -0.5508 -0.0907 -0.0196
68130SOL    HW116369  13.498   4.369   3.082 -1.5516  1.3503  1.4664
68130SOL    HW216370  13.458   4.445   2.957  0.2178 -1.3421 -0.8733
68131SOL     OW16371   2.344   0.971   4.210 -0.2206  0.3372  0.0249
68131SOL    HW116372   2.423   0.939   4.166  0.9690  2.7398  0.2559
68131SOL    HW216373   2.301   0.892   4.242  2.7083 -1.0268  0.9172
68132SOL     OW16374   0.459   9.945  10.872  0.6155 -0.2420  0.2507
68132SOL    HW116375   0.540   9.908  10.909 -0.0106 -1.6225  0.2864
68132SOL    HW216376   0.404   9.962  10.949  0.9627  1.0178  0.2543
68133SOL     OW16377   8.770   3.597   9.401  0.1882 -0.6185 -0.4379
68133SOL    HW116378   8.706   3.572   9.467 -0.1356  0.1315 -0.4620
68133SOL    HW216379   8.855   3.587   9.445  0.0250 -0.9436 -0.1917
68134SOL     OW16380   0.335   6.745   3.133  0.2238  0.6460  0.0793
68134SOL    HW116381   0.335   6.675   3.199 -0.0106  0.5015 -0.0702
68134SOL    HW216382   0.427   6.769   3.123  0.7330 -1.6850 -1.9908
68135SOL     OW16383   6.637   5.321   2.985  0.2510  0.0787  0.1140
68135SOL    HW116384   6.701   5.363   2.929  0.5416  0.2941  0.6044
68135SOL    HW216385   6.686   5.293   3.062 -0.2203  0.1608  0.4531
68136SOL     OW16386   4.754   0.676  10.460 -0.6047 -0.4720 -0.4873
68136SOL    HW116387   4.695   0.709  10.392 -1.2920 -1.2700 -0.2950
68136SOL    HW216388   4.722   0.587  10.479  0.4277 -0.7808 -0.1070
68137SOL     OW16389  10.512   8.561  11.206 -0.1070  0.1332  0.1945
68137SOL    HW116390  10.454   8.504  11.256  1.4242 -2.5880 -0.9703
68137SOL    HW216391  10.465   8.579  11.125 -0.5575  0.4742  0.5292
68138SOL     OW16392   0.709   2.082   0.279  0.1107 -0.1261 -0.0034
68138SOL    HW116393   0.640   2.047   0.223  0.2862  0.4162 -0.5702
68138SOL    HW216394   0.790   2.065   0.230  0.1072  2.1605 -0.8926
68139SOL     OW16395   3.476   5.331  11.122  0.6913  0.0795  0.3923
68139SOL    HW116396   3.544   5.291  11.176  2.0480  2.3934  0.4902
68139SOL    HW216397   3.476   5.423  11.146 -0.6476  0.6516 -1.5266
68140SOL     OW16398  13.760  13.179  10.017  0.1498  0.3097  0.1795
68140SOL    HW116399  13.803  13.171  10.102 -0.8309  0.3558  0.6853
68140SOL    HW216400  13.715  13.263  10.019  1.8977  1.3686 -1.2385
68141SOL     OW16401   5.926  13.034   9.132 -0.4654 -0.2284 -0.3517
68141SOL    HW116402   5.937  13.128   9.113 -0.2473 -0.1665  0.0593
68141SOL    HW216403   5.891  12.997   9.051 -1.2001  0.3286 -0.2950
68142SOL     OW16404   9.022  11.818   3.963  0.4369 -0.2247 -0.2243
68142SOL    HW116405   8.942  11.861   3.932  0.5786 -1.0788 -1.9048
68142SOL    HW216406   9.073  11.887   4.004 -0.9866  0.4118  0.5156
68143SOL     OW16407   5.097   2.748  12.305  0.1715 -0.0123  0.0467
68143SOL    HW116408   5.179   2.798  12.307  0.5544 -0.6237  2.2886
68143SOL    HW216409   5.126   2.656  12.298 -0.3266 -0.2057  0.4899
68144SOL     OW16410   1.561   1.559   3.463  0.3774 -0.5024 -0.0706
68144SOL    HW116411   1.646   1.546   3.423  0.2253 -3.3628  0.3337
68144SOL    HW216412   1.531   1.471   3.486 -2.5417  0.4268  0.1159
68145SOL     OW16413   7.694  12.801   2.514 -0.0243 -0.7208 -0.2892
68145SOL    HW116414   7.669  12.877   2.461 -0.8084  0.1904  1.3224
68145SOL    HW216415   7.788  12.792   2.500  0.6233  2.1784  1.4532
68146SOL     OW16416   9.318  12.879   1.696 -0.1611  0.1181  0.3057
68146SOL    HW116417   9.263  12.956   1.682 -0.8500 -0.2497  0.9227
68146SOL    HW216418   9.328  12.874   1.791 -1.5476 -1.5035  0.4099
68147SOL     OW16419  11.785   4.597   0.677 -0.1369  0.5446 -0.2704
68147SOL    HW116420  11.794   4.685   0.640 -0.8382  0.3631 -0.8965
68147SOL    HW216421  11.795   4.539   0.602  0.8742  0.0500  0.2269
68148SOL     OW16422   0.046   7.923  10.946  0.3202  0.2720 -0.3185
68148SOL    HW116423   0.065   7.999  11.001  0.9379 -0.7788  0.9737
68148SOL    HW216424   0.123   7.866  10.957 -0.8764 -1.3217  0.1534
68149SOL     OW16425   8.983   3.034   8.651  0.1292 -0.2060 -0.0354
68149SOL    HW116426   9.049   3.102   8.639 -0.7531  0.5349 -0.8005
68149SOL    HW216427   8.914   3.076   8.702 -0.1971 -0.6798 -0.0825
68150SOL     OW16428   3.402   4.074   7.177 -0.1084  0.3616 -0.1218
68150SOL    HW116429   3.363   4.113   7.099  0.5621  1.2834 -0.0199
68150SOL    HW216430   3.348   4.107   7.249  1.7264  3.0497  0.1989
68151SOL     OW16431   8.813   6.433  10.728  0.7373 -0.8409 -0.3726
68151SOL    HW116432   8.904   6.440  10.754  0.1433  0.8295  1.5483
68151SOL    HW216433   8.776   6.520  10.746 -1.6065 -1.9282  0.4945
68152SOL     OW16434   1.355   6.203   7.070 -0.4072 -0.1157 -0.2062
68152SOL    HW116435   1.329   6.165   6.986  0.3761  0.3249 -0.6579
68152SOL    HW216436   1.374   6.128   7.126  1.5809 -0.4437 -1.2319
68153SOL     OW16437   9.968  11.538   0.228 -0.5029 -0.7513  0.5254
68153SOL    HW116438  10.021  11.515   0.304  0.2075 -0.7866  0.0262
68153SOL    HW216439  10.029  11.579   0.167 -1.4966  1.4210  0.8974
68154SOL     OW16440   9.186   5.382   0.162  0.1820  0.0981  0.1225
68154SOL    HW116441   9.210   5.447   0.096  0.5751 -0.0020  0.1686
68154SOL    HW216442   9.136   5.432   0.227  0.0574  0.2560 -0.0929
68155SOL     OW16443   0.210   3.424   5.688 -0.1150  0.8255  0.0564
68155SOL    HW116444   0.271   3.411   5.760  0.8417 -0.1271 -0.8771
68155SOL    HW216445   0.265   3.452   5.615 -0.8808  0.5519 -0.6397
68156SOL     OW16446  12.162   1.845  10.095  0.8334  0.2222  0.6728
68156SOL    HW116447  12.112   1.914  10.138 -1.5367 -0.4574 -0.7714
68156SOL    HW216448  12.163   1.773  10.157  0.1728  0.3261  0.8077
68157SOL     OW16449  12.422   6.262   6.980  0.6114 -0.1048 -0.6343
68157SOL    HW116450  12.403   6.274   7.073  0.7990  1.2064 -0.7380
68157SOL    HW216451  12.402   6.170   6.962  2.3594 -0.9136  1.1328
68158SOL     OW16452   3.261  13.468   3.349  0.0286 -0.1708 -0.2360
68158SOL    HW116453   3.320  13.540   3.368 -0.7977  1.0660 -2.0743
68158SOL    HW216454   3.313  13.407   3.296  0.3489 -0.3065  0.2289
68159SOL     OW16455   6.048   4.792   3.871  0.3611 -0.3898 -0.2611
68159SOL    HW116456   5.968   4.741   3.883  0.8437 -0.9231  0.9564
68159SOL    HW216457   6.068   4.784   3.778 -1.3568  0.3360 -0.7235
68160SOL     OW16458  11.988  12.619   9.423 -0.2024 -0.1372 -0.2696
68160SOL    HW116459  12.054  12.609   9.492  0.4003 -2.2310 -1.0807
68160SOL    HW216460  11.932  12.542   9.432 -0.1962 -0.3830 -2.0343
68161SOL     OW16461  13.779   6.784   9.173  0.2884 -0.3755 -0.0125
68161SOL    HW116462  13.831   6.832   9.109 -0.0444  0.4608  0.3416
68161SOL    HW216463  13.717   6.848   9.207  1.5332 -0.3395  2.3766
68162SOL     OW16464   5.826   4.116   4.215  0.0278  0.0180  0.4220
68162SOL    HW116465   5.773   4.055   4.266  0.7387 -0.3656  0.7272
68162SOL    HW216466   5.813   4.089   4.124  0.0226 -0.3433  0.5282
68163SOL     OW16467  13.296   0.970   3.463  0.0286 -0.3637  0.2443
68163SOL    HW116468  13.352   0.982   3.540  1.4295  2.5063 -1.0998
68163SOL    HW216469  13.357   0.949   3.392 -0.8580  0.3529 -0.7576
68164SOL     OW16470  13.066  11.975  13.789 -0.5598  0.3497  0.2212
68164SOL    HW116471  13.068  11.934  13.703 -0.8007  0.7469  0.0199
68164SOL    HW216472  13.034  12.064  13.772 -1.0694  0.2800  0.7801
68165SOL     OW16473  11.607   0.543  13.765 -0.1611  0.4485 -0.3054
68165SOL    HW116474  11.701   0.536  13.780 -0.5994 -1.6750  2.1203
68165SOL    HW216475  11.577   0.608  13.829 -0.4640  0.5667 -0.5609
68166SOL     OW16476   1.918   5.066   3.915 -0.1590  0.3559  0.1442
68166SOL    HW116477   1.879   5.008   3.850  0.4626  0.2171 -0.1068
68166SOL    HW216478   1.856   5.063   3.989 -0.0106 -0.8365  0.2445
68167SOL     OW16479   5.781   8.253  12.799  0.3624  0.1233  0.2468
68167SOL    HW116480   5.687   8.272  12.798  0.3655  0.1326  0.1242
68167SOL    HW216481   5.823   8.337  12.779  0.3769 -0.0067 -0.2891
68168SOL     OW16482   7.149   7.168  10.418 -0.0601  0.0734  0.2967
68168SOL    HW116483   7.086   7.176  10.346 -0.6657 -0.7561  0.7107
68168SOL    HW216484   7.099   7.193  10.496 -0.1089 -1.3087  0.7285
68169SOL     OW16485   5.015   9.389   2.538  0.5987 -0.4034  0.1422
68169SOL    HW116486   4.919   9.380   2.539  0.6415 -1.0960 -0.5596
68169SOL    HW216487   5.045   9.310   2.493  1.4042  0.6622 -1.2435
68170SOL     OW16488  11.065   5.798   9.973 -0.2431  0.2066 -0.5452
68170SOL    HW116489  11.024   5.763   9.894  0.0284  2.7968 -1.9384
68170SOL    HW216490  11.155   5.818   9.946  0.8164 -1.5820  1.3175
68171SOL     OW16491   4.586   4.330   6.317  0.3183 -0.2299 -0.0214
68171SOL    HW116492   4.546   4.296   6.237  0.3369 -0.0429 -0.1102
68171SOL    HW216493   4.517   4.324   6.383  0.3145 -0.4199 -0.0418
68172SOL     OW16494   7.384   0.722   2.175 -0.6502 -0.0864 -0.5976
68172SOL    HW116495   7.364   0.808   2.138  0.0721  0.0011 -0.7911
68172SOL    HW216496   7.419   0.741   2.262 -0.7502 -0.1966 -0.5337
68173SOL     OW16497   7.645  11.399   5.405 -0.0019 -0.4510 -0.2790
68173SOL    HW116498   7.600  11.314   5.403 -2.3710  0.7231 -0.3909
68173SOL    HW216499   7.663  11.419   5.313 -0.6696 -0.2414 -0.3692
68174SOL     OW16500   8.199   4.534   0.944  0.4783 -0.2652 -0.0717
68174SOL    HW116501   8.194   4.448   0.985 -1.6914 -0.7267 -1.1505
68174SOL    HW216502   8.292   4.545   0.923  0.8177 -2.3352  0.1094
68175SOL     OW16503  13.081   8.019   0.940  0.1269  0.0148 -0.3468
68175SOL    HW116504  13.067   8.101   0.892 -2.2925 -0.0382  0.1139
68175SOL    HW216505  13.026   8.028   1.018  1.5081 -1.1974  0.8189
68176SOL     OW16506   5.698  13.283   0.608  0.3873 -0.3075  0.1540
68176SOL    HW116507   5.622  13.265   0.553  0.2269 -0.5607  0.4552
68176SOL    HW216508   5.762  13.323   0.549  1.0777 -2.5806 -0.7432
68177SOL     OW16509   1.280  10.976  11.529 -0.0788  0.4133 -0.5854
68177SOL    HW116510   1.312  10.896  11.487 -2.6171 -1.3496  0.6103
68177SOL    HW216511   1.317  10.974  11.617  3.3729  2.9415 -1.7424
68178SOL     OW16512   3.532   9.186  10.175 -0.2024  0.2048  0.0571
68178SOL    HW116513   3.492   9.242  10.241 -0.7732 -0.4553  0.2847
68178SOL    HW216514   3.616   9.159  10.213 -0.5861 -0.2773  0.5849
68179SOL     OW16515  12.252   6.786   4.192  0.0023  0.3133  0.1592
68179SOL    HW116516  12.217   6.723   4.255 -0.7555 -0.4351 -0.9595
68179SOL    HW216517  12.346   6.774   4.195 -0.0315  0.2221  1.0700
68180SOL     OW16518   1.784  11.475   1.293 -0.1425  0.1840  0.3231
68180SOL    HW116519   1.740  11.389   1.290 -3.2609  1.6098  0.5743
68180SOL    HW216520   1.757  11.519   1.212  2.5005  0.5505 -0.4605
68181SOL     OW16521   2.680   1.321   9.335  0.0702 -0.4096 -0.2485
68181SOL    HW116522   2.603   1.321   9.391 -1.1175  1.7215 -1.7080
68181SOL    HW216523   2.652   1.275   9.255  0.9331 -1.2436 -0.0877
68182SOL     OW16524   4.535   2.613   5.229  0.3590  0.6664 -0.6573
68182SOL    HW116525   4.467   2.678   5.243  1.6788  2.2945 -1.4327
68182SOL    HW216526   4.580   2.642   5.150  1.5727 -0.6860 -0.5121
68183SOL     OW16527   1.306   8.331  11.617  0.1228 -0.2413  0.2362
68183SOL    HW116528   1.262   8.373  11.544 -0.1930  0.9572  1.0920
68183SOL    HW216529   1.238   8.322  11.685  0.9875  0.9659  1.3006
68184SOL     OW16530   8.300   6.485  13.025  0.1305 -0.3151  0.1039
68184SOL    HW116531   8.256   6.552  13.078  1.0489  0.4036 -0.0129
68184SOL    HW216532   8.366   6.448  13.083 -0.0648 -0.8074  0.0180
68185SOL     OW16533   5.216   0.292  13.338  0.1409 -0.3745  0.1141
68185SOL    HW116534   5.233   0.211  13.290  0.2997 -0.8812  0.9966
68185SOL    HW216535   5.257   0.278  13.424  1.9010  1.3818 -0.3443
68186SOL     OW16536   3.120   4.160   1.500  0.1456  0.1899 -0.0207
68186SOL    HW116537   3.169   4.081   1.476 -0.4838 -0.2186  0.0050
68186SOL    HW216538   3.072   4.183   1.421  0.3371  0.5587 -0.0312
68187SOL     OW16539   8.825   5.130   0.400 -0.5408  0.3310 -0.3438
68187SOL    HW116540   8.740   5.085   0.405 -0.1538 -0.4795 -0.8961
68187SOL    HW216541   8.889   5.059   0.389  0.1609  0.9740 -0.4713
68188SOL     OW16542   1.816   0.980   0.980 -0.0894 -0.1045  0.1363
68188SOL    HW116543   1.895   0.967   0.927 -1.4734  0.2447 -2.1627
68188SOL    HW216544   1.803   0.896   1.025  0.4882 -0.8524 -1.0495
68189SOL     OW16545   0.171   6.582  10.693  0.1919 -0.2659  0.4135
68189SOL    HW116546   0.124   6.558  10.613 -1.1601 -0.0098  1.1058
68189SOL    HW216547   0.211   6.666  10.672 -1.4491  0.5819  0.4597
68190SOL     OW16548  13.716  13.816   2.619 -0.1394 -0.4526 -0.0399
68190SOL    HW116549  13.621  13.807   2.631 -0.2878  0.5455 -0.3772
68190SOL    HW216550  13.735  13.905   2.648  0.4236 -0.0287 -1.6199
68191SOL     OW16551   3.182  10.762   3.256  0.2981 -0.1964 -0.2319
68191SOL    HW116552   3.112  10.702   3.234  0.5280 -0.5354 -0.0452
68191SOL    HW216553   3.262  10.710   3.250  0.6612  0.4701 -1.5720
68192SOL     OW16554  10.620   5.059   6.140 -0.1798  0.0719  0.2137
68192SOL    HW116555  10.554   5.020   6.198 -1.0115 -0.2392 -0.8857
68192SOL    HW216556  10.592   5.150   6.129  0.6809  0.4771  1.2664
68193SOL     OW16557   0.300   3.305  13.907  0.4027 -0.0633 -0.2025
68193SOL    HW116558   0.303   3.311  14.002 -0.9144 -1.1231 -0.0648
68193SOL    HW216559   0.214   3.268  13.888  0.2897  0.9472 -1.8635
68194SOL     OW16560  13.686  10.025   3.770 -0.2970  0.4722 -0.6762
68194SOL    HW116561  13.768   9.995   3.810  0.3057  2.6544 -0.1942
68194SOL    HW216562  13.617   9.993   3.829  0.2129 -0.8754 -0.7731
68195SOL     OW16563  11.312   2.192   6.367  0.0395 -0.4065 -0.5535
68195SOL    HW116564  11.226   2.152   6.354 -0.7875  1.3935 -0.9649
68195SOL    HW216565  11.354   2.187   6.282 -0.0879 -0.3406 -0.6205
68196SOL     OW16566   7.891   2.285  12.624 -0.4037 -0.7690  0.4644
68196SOL    HW116567   7.841   2.366  12.622 -1.1618 -1.1948  1.0625
68196SOL    HW216568   7.966   2.304  12.680  0.6430  0.1547 -1.2122
68197SOL     OW16569   8.155   0.668   3.826  0.1037 -0.1010 -0.2211
68197SOL    HW116570   8.206   0.670   3.907  0.6520 -0.1058 -0.5626
68197SOL    HW216571   8.210   0.714   3.762 -0.3909  0.0288 -0.5545
68198SOL     OW16572   0.542   4.336   4.247  0.3438  0.1157 -0.3814
68198SOL    HW116573   0.540   4.246   4.280  1.1364  0.8797  1.9449
68198SOL    HW216574   0.627   4.370   4.275 -1.0226  2.4263  1.3076
68199SOL     OW16575   6.578   3.760  13.992  0.1689 -0.1159  0.2295
68199SOL    HW116576   6.659   3.811  13.989  0.6126 -0.8080  0.0857
68199SOL    HW216577   6.540   3.781  14.077 -0.8481  2.1991 -0.7158
68200SOL     OW16578  10.538   7.488   0.125  0.4106 -0.6027  0.0977
68200SOL    HW116579  10.632   7.499   0.114  0.2726  0.2655 -0.3034
68200SOL    HW216580  10.528   7.404   0.170  1.2979 -1.5044 -1.3106
68201SOL     OW16581  10.015   1.381   6.914  0.3045  0.0120 -0.2521
68201SOL    HW116582   9.933   1.404   6.871  1.5210  1.2255 -2.0625
68201SOL    HW216583  10.004   1.409   7.005 -1.3007  0.0442 -0.4358
68202SOL     OW16584   7.904  11.202   3.276 -0.0788 -0.1288 -0.3862
68202SOL    HW116585   7.854  11.201   3.358 -0.9178  1.3925 -0.8338
68202SOL    HW216586   7.987  11.245   3.299 -0.0074 -0.3793 -0.1731
68203SOL     OW16587   6.189   7.247   1.327  0.3108  0.0725  0.0387
68203SOL    HW116588   6.278   7.213   1.316  0.5285  0.4338  0.6450
68203SOL    HW216589   6.200   7.342   1.331 -0.0642  0.1029  0.4319
68204SOL     OW16590   5.368  12.368  11.314  0.2944 -0.2142  0.1202
68204SOL    HW116591   5.336  12.458  11.325 -0.9380 -0.5482 -0.5951
68204SOL    HW216592   5.454  12.379  11.272 -0.0226  0.6219 -0.3412
68205SOL     OW16593   1.495   5.563   2.102  0.4728 -0.5994 -0.3397
68205SOL    HW116594   1.498   5.535   2.010 -1.3836 -1.0092 -0.3187
68205SOL    HW216595   1.502   5.482   2.152  0.3905 -0.4810 -0.1371
68206SOL     OW16596   8.125   5.840   5.563 -0.2494 -0.3088  0.0945
68206SOL    HW116597   8.110   5.920   5.614 -0.3372 -1.2083  1.5379
68206SOL    HW216598   8.172   5.869   5.486 -0.8234  1.2276  0.2906
68207SOL     OW16599   6.937   4.528   2.511  0.4045 -0.3162 -0.5557
68207SOL    HW116600   6.890   4.611   2.516  0.1880 -0.4702  0.1593
68207SOL    HW216601   7.027   4.549   2.537  0.1370 -0.4549  0.5374
68208SOL     OW16602  11.934   9.627   4.523 -0.3181 -0.3490  0.3737
68208SOL    HW116603  11.901   9.539   4.506  0.7233 -0.9480  1.2757
68208SOL    HW216604  12.029   9.618   4.517 -0.2231  1.2513 -1.8944
68209SOL     OW16605   8.658  13.169   9.462  0.0633 -0.4680 -0.1000
68209SOL    HW116606   8.606  13.110   9.517  0.5548 -2.1999 -1.4124
68209SOL    HW216607   8.749  13.142   9.477  0.4825  1.3087  0.7748
68210SOL     OW16608  13.007  10.790   0.892 -0.2792  0.0030  0.2386
68210SOL    HW116609  13.070  10.858   0.868  0.4735 -0.8218 -0.1704
68210SOL    HW216610  13.001  10.794   0.987  1.2978 -0.6817  0.3864
68211SOL     OW16611   6.655  11.968   1.725  0.2500 -0.5462  0.4516
68211SOL    HW116612   6.597  11.982   1.800 -1.1254 -0.6959 -0.5284
68211SOL    HW216613   6.661  12.054   1.683  0.4967 -0.5988  0.3774
68212SOL     OW16614  12.555  12.407  10.969  0.4358  0.7148 -0.0440
68212SOL    HW116615  12.570  12.318  10.937  1.9322  2.1553 -3.8421
68212SOL    HW216616  12.468  12.404  11.009 -0.9119 -1.8130 -2.8513
68213SOL     OW16617  10.659  10.981   8.879 -0.0131  0.1997  0.5579
68213SOL    HW116618  10.652  11.076   8.872  1.6407  0.3045  0.0168
68213SOL    HW216619  10.581  10.948   8.835 -0.0592  1.2850 -0.2028
68214SOL     OW16620   6.951   6.663  13.989 -0.4217  0.1587  0.7325
68214SOL    HW116621   6.883   6.612  14.033  0.1136  0.6529  2.2023
68214SOL    HW216622   6.962   6.620  13.904 -1.3056 -1.0121  1.1763
68215SOL     OW16623   7.909   3.390   9.331 -0.1918 -0.3949  0.6620
68215SOL    HW116624   7.949   3.475   9.310  1.7550 -0.8426  2.2269
68215SOL    HW216625   7.818   3.411   9.353  0.0264  1.1599  0.1961
68216SOL     OW16626   2.331   0.373   6.946 -0.1179 -0.0092 -0.4852
68216SOL    HW116627   2.419   0.363   6.911 -0.2618 -0.6644 -0.6635
68216SOL    HW216628   2.338   0.344   7.037  0.1792  1.3676 -0.0495
68217SOL     OW16629  11.625  12.237   3.471  0.6462  0.0656  0.3323
68217SOL    HW116630  11.694  12.219   3.408 -0.8301  0.0491 -1.3587
68217SOL    HW216631  11.589  12.321   3.445 -0.6535 -0.4086  0.5033
68218SOL     OW16632   3.566  10.096   2.567  0.0580 -0.0666  0.5306
68218SOL    HW116633   3.487  10.128   2.525 -0.6767 -0.5193  1.5367
68218SOL    HW216634   3.609  10.175   2.601 -0.2125  0.1369  0.3969
68219SOL     OW16635   8.084   1.891   8.109 -0.3333 -0.2310  0.2107
68219SOL    HW116636   8.027   1.964   8.132 -2.1380 -1.0518 -1.3843
68219SOL    HW216637   8.139   1.924   8.038 -1.6257 -0.5917 -0.9813
68220SOL     OW16638   2.929   4.104   3.683 -0.2113  0.0881 -0.4260
68220SOL    HW116639   2.991   4.141   3.620  2.7177 -1.5160  1.3008
68220SOL    HW216640   2.934   4.010   3.668 -1.6715 -0.1293  0.3331
68221SOL     OW16641   3.436   9.597   6.966  0.0515 -0.4315  0.1198
68221SOL    HW116642   3.370   9.566   7.027  0.6946 -0.4136  0.8328
68221SOL    HW216643   3.387   9.646   6.900 -0.6461 -0.4868  0.5965
68222SOL     OW16644   7.952  11.189  12.953  0.1147 -0.2814 -0.4607
68222SOL    HW116645   7.909  11.257  12.902  0.4489  0.1297 -0.1948
68222SOL    HW216646   7.982  11.125  12.888  1.6760  0.8684 -0.9291
68223SOL     OW16647   7.805  11.776   0.852 -0.6479  0.1158 -0.1405
68223SOL    HW116648   7.813  11.739   0.764 -1.2453  0.2281 -0.2447
68223SOL    HW216649   7.745  11.717   0.897 -0.6272  0.2642  0.0800
68224SOL     OW16650   2.569   3.152   3.299 -0.2743  0.4869 -0.6986
68224SOL    HW116651   2.657   3.182   3.279  1.1952 -3.1341 -0.5069
68224SOL    HW216652   2.523   3.155   3.215 -0.4299  3.4087 -0.6013
68225SOL     OW16653   1.753   8.905   0.857 -0.1840 -0.0513 -0.0629
68225SOL    HW116654   1.738   8.847   0.782 -1.5342 -0.5831  0.5836
68225SOL    HW216655   1.831   8.870   0.900  1.4748  1.1027 -1.9690
68226SOL     OW16656  13.015   3.100  12.779  0.1676  0.1571  0.2530
68226SOL    HW116657  13.030   3.013  12.741 -1.4636 -0.3067  0.6030
68226SOL    HW216658  13.033   3.089  12.872 -1.4868 -0.2354  0.5631
68227SOL     OW16659  13.749   3.038  13.841  0.2871  0.2691 -0.7660
68227SOL    HW116660  13.748   2.976  13.768  1.9096 -0.3012 -0.3322
68227SOL    HW216661  13.663   3.026  13.883  0.0935 -0.7935 -1.4148
68228SOL     OW16662   1.168   0.785   3.469 -0.1496  0.1035 -0.4885
68228SOL    HW116663   1.073   0.779   3.454  0.0354 -0.2723 -1.6349
68228SOL    HW216664   1.204   0.708   3.426  0.6676  0.1439  0.1100
68229SOL     OW16665  10.480   0.528   2.131 -0.3336  0.0579 -0.5300
68229SOL    HW116666  10.388   0.552   2.138 -0.3790  0.0828 -1.1531
68229SOL    HW216667  10.527   0.611   2.141 -0.2684 -0.1814  1.6608
68230SOL     OW16668   1.407   1.365  12.515 -0.1198  0.3759  0.0285
68230SOL    HW116669   1.421   1.298  12.582  0.1008  0.8230  0.4399
68230SOL    HW216670   1.496   1.389  12.487  0.0846  3.0618  2.4730
68231SOL     OW16671   4.109   2.581   7.576 -0.1720  0.8503 -0.2308
68231SOL    HW116672   4.039   2.523   7.607  0.6706 -0.4520 -0.6940
68231SOL    HW216673   4.139   2.540   7.495  0.0557  2.2740 -0.9032
68232SOL     OW16674   6.804  12.040  12.581  0.8527 -0.0731  0.6523
68232SOL    HW116675   6.820  11.979  12.509  1.2877  0.6528  0.1216
68232SOL    HW216676   6.736  11.998  12.634  0.9948 -0.9117  0.1804
68233SOL     OW16677   2.401   2.265  10.840 -0.2220  0.2917 -0.4145
68233SOL    HW116678   2.356   2.332  10.788 -1.2959  0.1188  0.2742
68233SOL    HW216679   2.331   2.217  10.883  0.5917 -0.6004 -0.0637
68234SOL     OW16680   6.629   3.329   9.865 -0.4839  0.2586  0.3255
68234SOL    HW116681   6.711   3.314   9.912  0.8876 -0.5669 -2.1527
68234SOL    HW216682   6.574   3.254   9.889 -0.3127  0.4742  1.4870
68235SOL     OW16683   6.042   1.313   5.242  0.5295  0.0019  0.1425
68235SOL    HW116684   6.098   1.386   5.269  0.4031  0.2544 -0.2707
68235SOL    HW216685   5.961   1.327   5.291  0.0053  0.9123 -0.9476
68236SOL     OW16686   4.979  12.504   8.437  0.2810 -1.0212  0.5439
68236SOL    HW116687   4.883  12.509   8.439  0.2594  2.9889 -0.6334
68236SOL    HW216688   5.006  12.524   8.527 -0.0098 -0.3914  0.4941
68237SOL     OW16689  12.252   2.395   5.901 -0.3972 -0.1052  0.4119
68237SOL    HW116690  12.227   2.346   5.979  1.0042 -1.9854 -0.2439
68237SOL    HW216691  12.307   2.466   5.935 -0.6953 -0.2520  1.2252
68238SOL     OW16692   7.715   4.893   9.091 -0.2886  0.5635 -0.3126
68238SOL    HW116693   7.807   4.901   9.066 -0.7450  0.3635 -2.2503
68238SOL    HW216694   7.716   4.843   9.172  1.3552  1.4669  0.2698
68239SOL     OW16695   4.801  11.968  12.028 -0.4724  1.0456 -0.4416
68239SOL    HW116696   4.765  12.044  11.982  1.1215  0.5535 -2.6981
68239SOL    HW216697   4.890  11.960  11.994 -0.4461 -1.5562  0.0597
68240SOL     OW16698   8.253   0.189  13.124 -0.0009 -0.9301 -0.6125
68240SOL    HW116699   8.192   0.262  13.138  2.0925  0.7512  0.4217
68240SOL    HW216700   8.278   0.196  13.032  3.2637  2.4483  0.2854
68241SOL     OW16701   5.859  10.463   3.720 -0.4855 -0.1636  0.9170
68241SOL    HW116702   5.848  10.369   3.704  0.3207 -0.1915  0.4765
68241SOL    HW216703   5.786  10.504   3.674  0.1099 -0.4626 -0.3272
68242SOL     OW16704   8.239   2.323   5.005  0.1877 -0.0877 -0.0679
68242SOL    HW116705   8.302   2.267   5.051  0.2838  0.4842  0.5052
68242SOL    HW216706   8.160   2.321   5.059  0.7744  1.7595  0.9619
68243SOL     OW16707  13.557  10.571   6.528  0.5834  0.6887  0.0508
68243SOL    HW116708  13.466  10.588   6.552  0.4522  2.2444 -1.3772
68243SOL    HW216709  13.553  10.546   6.436  1.5239 -0.1972  0.2376
68244SOL     OW16710  10.059  13.023  12.279  0.5442 -0.0492  0.2119
68244SOL    HW116711   9.970  12.990  12.269  0.3171  0.4494  0.5134
68244SOL    HW216712  10.078  13.065  12.195 -0.8219  2.8835  1.2217
68245SOL     OW16713   8.494   2.539   9.668  0.0166  0.0970 -0.0108
68245SOL    HW116714   8.522   2.573   9.583  0.1461  1.3788  0.5237
68245SOL    HW216715   8.575   2.514   9.712 -0.0863 -1.0399 -0.4425
68246SOL     OW16716   1.234   0.173   6.060  0.7703  0.6809 -0.7091
68246SOL    HW116717   1.187   0.102   6.105  0.1369  2.9055  2.4316
68246SOL    HW216718   1.170   0.207   5.998  0.1591  0.1750 -0.3819
68247SOL     OW16719   0.312   1.186   7.268 -0.0476 -0.1124 -0.0158
68247SOL    HW116720   0.347   1.251   7.208  1.9485 -2.7922 -1.9550
68247SOL    HW216721   0.245   1.140   7.218  0.0830 -0.9591  0.5670
68248SOL     OW16722  10.200   1.990   4.654 -0.2333 -0.4110  0.2372
68248SOL    HW116723  10.137   1.932   4.697  0.2423 -0.5519  0.7639
68248SOL    HW216724  10.286   1.958   4.684  0.0418  0.4392  0.3704
68249SOL     OW16725   2.825   0.229  12.946  0.1408  0.0124 -0.2322
68249SOL    HW116726   2.865   0.292  12.885  1.7419 -1.0948 -0.3890
68249SOL    HW216727   2.851   0.259  13.033  0.2422  0.0200 -0.2642
68250SOL     OW16728   7.193   6.621  13.391 -0.0248 -0.3277  0.0579
68250SOL    HW116729   7.209   6.713  13.414  2.2894 -0.6482 -0.0611
68250SOL    HW216730   7.230   6.611  13.304  3.6695 -2.2876  1.6512
68251SOL     OW16731   5.152  12.660  13.591  0.2387 -0.2345 -0.1397
68251SOL    HW116732   5.217  12.697  13.652  0.7959  0.1264 -0.9177
68251SOL    HW216733   5.198  12.587  13.549  0.3809  0.4116 -1.1473
68252SOL     OW16734   7.656   5.730  10.668 -0.0193  0.0117  0.1205
68252SOL    HW116735   7.651   5.655  10.609  0.8853  0.2496 -0.2745
68252SOL    HW216736   7.710   5.698  10.741 -0.2273  0.0553  0.2918
68253SOL     OW16737   7.596   8.307  11.827  0.2123 -0.4160 -0.2968
68253SOL    HW116738   7.556   8.380  11.875 -0.8424 -0.7106 -0.7097
68253SOL    HW216739   7.587   8.232  11.887  1.9373 -0.0899  0.4297
68254SOL     OW16740   1.193  12.852   7.064 -0.6184 -0.0831  0.1063
68254SOL    HW116741   1.147  12.893   6.992 -0.2103 -1.1124 -0.7653
68254SOL    HW216742   1.235  12.925   7.110 -0.4256  0.5379 -1.0220
68255SOL     OW16743   6.585  11.989   0.400 -0.1925  0.0861 -0.1409
68255SOL    HW116744   6.496  11.975   0.431  0.2923 -1.9048  0.5313
68255SOL    HW216745   6.630  11.906   0.419  1.3633  0.4354 -2.0014
68256SOL     OW16746   0.051   6.844  11.974  0.2949 -0.0556 -0.2272
68256SOL    HW116747   0.050   6.759  12.018 -0.7926 -0.6915 -1.4147
68256SOL    HW216748   0.128   6.889  12.009  0.6712 -1.3774  0.6945
68257SOL     OW16749   5.500  12.332  10.548 -0.0669 -0.4506 -0.2049
68257SOL    HW116750   5.410  12.301  10.558 -0.1653  0.1448  0.9491
68257SOL    HW216751   5.543  12.264  10.496 -1.2684 -0.5632 -1.1229
68258SOL     OW16752  10.993   3.988  12.831  0.5967 -0.4550  0.1723
68258SOL    HW116753  10.979   4.075  12.793  1.5159 -0.4049 -0.0625
68258SOL    HW216754  10.944   3.990  12.913 -1.0903 -0.4264 -0.7835
68259SOL     OW16755   6.508   4.951  13.297 -0.5858  0.0617  0.0045
68259SOL    HW116756   6.437   4.918  13.352 -0.6506  0.2921  0.0610
68259SOL    HW216757   6.468   5.018  13.243 -0.0241  1.6488  1.4541
68260SOL     OW16758  10.545   4.456  12.520 -0.1855 -0.2111  0.2001
68260SOL    HW116759  10.559   4.373  12.567 -0.0480 -0.5362 -0.4009
68260SOL    HW216760  10.537   4.430  12.428  3.1401  0.7015 -0.4993
68261SOL     OW16761   4.409   1.315  12.201  0.2353 -0.0217  0.2353
68261SOL    HW116762   4.473   1.382  12.225  0.8927 -0.4765 -0.2078
68261SOL    HW216763   4.444   1.277  12.120 -0.6353 -0.2330 -0.0493
68262SOL     OW16764   1.976   1.614  12.709 -0.1281 -0.6220 -0.1988
68262SOL    HW116765   1.971   1.629  12.615 -0.5610 -0.8072 -0.2091
68262SOL    HW216766   1.897   1.655  12.744 -1.1756 -2.5161 -0.1962
68263SOL     OW16767  12.306   1.749  12.764 -0.3573  0.1987 -0.3187
68263SOL    HW116768  12.402   1.743  12.769 -0.3190 -0.1262 -1.2253
68263SOL    HW216769  12.290   1.823  12.706 -0.7026  1.7572  1.6827
68264SOL     OW16770  11.365   0.670   3.276  0.6677 -0.6495  0.2085
68264SOL    HW116771  11.384   0.763   3.281 -1.2813 -0.1054 -1.2921
68264SOL    HW216772  11.430   0.634   3.217  0.9312 -0.0850  0.1557
68265SOL     OW16773  12.429   5.342   8.898 -0.5498  0.4185  0.4434
68265SOL    HW116774  12.485   5.292   8.957 -2.5458 -3.4027 -0.5467
68265SOL    HW216775  12.343   5.341   8.939 -1.6836 -1.1849 -1.7145
68266SOL     OW16776   1.381   7.710   1.683  0.1772  0.0926  0.1101
68266SOL    HW116777   1.434   7.719   1.762 -0.2948 -0.3388  0.4827
68266SOL    HW216778   1.413   7.631   1.640  0.1442  0.0868  0.0958
68267SOL     OW16779   1.313   3.499   5.133 -0.0900 -0.4490 -0.0010
68267SOL    HW116780   1.375   3.539   5.194  0.5396 -1.8075  0.2723
68267SOL    HW216781   1.227   3.533   5.160  0.3294 -0.0052  0.7937
68268SOL     OW16782  13.076   6.745   3.323 -0.0833  0.0910  0.0823
68268SOL    HW116783  13.013   6.687   3.365 -1.1061  1.4991  0.5823
68268SOL    HW216784  13.063   6.731   3.229 -1.5474  0.7204  0.1592
68269SOL     OW16785  11.529   0.640   2.512  0.2623  0.1162  0.3432
68269SOL    HW116786  11.519   0.735   2.509  0.4108  0.2181  2.1915
68269SOL    HW216787  11.565   0.618   2.426 -0.9956  1.5482 -0.6263
68270SOL     OW16788   9.815   5.550  13.582 -0.7793  0.0623  0.0886
68270SOL    HW116789   9.854   5.550  13.495  0.5525  0.4436  0.6664
68270SOL    HW216790   9.879   5.594  13.638 -1.5163 -0.3500  1.3103
68271SOL     OW16791  12.115   2.279  13.992  0.1387  0.5411  0.6256
68271SOL    HW116792  12.164   2.219  14.049  0.3356  0.5552  0.4721
68271SOL    HW216793  12.026   2.277  14.027 -0.0093 -0.3334  0.2459
68272SOL     OW16794   9.982  10.846   6.515 -0.2897  0.0937 -0.2784
68272SOL    HW116795  10.045  10.878   6.580 -0.5192 -0.4745  0.2369
68272SOL    HW216796   9.902  10.894   6.533 -0.3781 -0.1239 -0.0826
68273SOL     OW16797   1.829  11.721   3.409 -0.2193 -0.1268  0.1497
68273SOL    HW116798   1.856  11.667   3.482 -1.1968  0.5724  1.0599
68273SOL    HW216799   1.900  11.714   3.345  2.2334  1.8313  2.4803
68274SOL     OW16800   3.453   6.117   2.324 -0.4180  0.6579  0.0063
68274SOL    HW116801   3.538   6.126   2.367  0.0771 -1.3951 -0.3913
68274SOL    HW216802   3.470   6.139   2.232 -0.3197  0.3930 -0.0431
68275SOL     OW16803  12.668   3.095   2.290 -0.2541  0.1467  0.0975
68275SOL    HW116804  12.689   3.122   2.379 -1.3253 -0.0376  0.4222
68275SOL    HW216805  12.599   3.155   2.262 -1.6988 -1.3543  0.3299
68276SOL     OW16806   5.529   8.592  12.885  0.0369  0.2705 -0.3087
68276SOL    HW116807   5.508   8.642  12.807 -0.4836  0.3075 -0.1491
68276SOL    HW216808   5.445   8.574  12.926  0.2681 -0.1356  0.0070
68277SOL     OW16809   6.702   2.824   7.139 -0.4486 -0.2328  0.2689
68277SOL    HW116810   6.651   2.860   7.066  0.2744  0.7768  0.2429
68277SOL    HW216811   6.736   2.901   7.184  2.3374 -0.8617 -0.6018
68278SOL     OW16812   1.341   3.935   4.643  0.2388 -0.4432  0.1709
68278SOL    HW116813   1.402   3.864   4.662  0.6386 -0.0270  0.4933
68278SOL    HW216814   1.301   3.955   4.727  1.4576  0.9006  0.4794
68279SOL     OW16815   0.933   6.508   2.875 -0.6401  0.2541  0.4947
68279SOL    HW116816   0.840   6.499   2.897 -0.3283 -1.7149  1.2696
68279SOL    HW216817   0.978   6.500   2.960  0.2885 -0.3810 -0.0427
68280SOL     OW16818  13.377   2.608   5.382 -0.0776 -0.0844  0.4891
68280SOL    HW116819  13.293   2.596   5.426 -0.6919 -0.9822 -0.8362
68280SOL    HW216820  13.408   2.693   5.412 -2.3788  1.1798 -0.3823
68281SOL     OW16821   3.818  13.369   1.242  0.2099 -0.3549 -0.1698
68281SOL    HW116822   3.843  13.277   1.248  0.4087 -0.2140  1.9774
68281SOL    HW216823   3.745  13.371   1.180  0.2926 -1.9260 -0.3476
68282SOL     OW16824   5.588   2.944   5.488 -0.2612 -0.3042 -0.3029
68282SOL    HW116825   5.553   3.033   5.485  1.7603  0.5195 -0.9304
68282SOL    HW216826   5.669   2.952   5.538  1.0894 -1.3468 -2.2178
68283SOL     OW16827   3.224   6.797   0.656 -0.0865 -0.2439  0.1783
68283SOL    HW116828   3.248   6.874   0.708  1.6826  0.0262 -0.9678
68283SOL    HW216829   3.204   6.832   0.569  2.3602 -1.1525 -0.8378
68284SOL     OW16830   5.955   5.553  12.120  0.2284 -0.0687  0.5086
68284SOL    HW116831   5.970   5.503  12.200  0.4388  0.6613  0.9293
68284SOL    HW216832   6.016   5.626  12.125  1.5471 -0.9870 -1.1948
68285SOL     OW16833   0.700  11.107   5.533 -0.2473 -0.9779  0.2463
68285SOL    HW116834   0.667  11.098   5.443  0.1702 -0.5343  0.0387
68285SOL    HW216835   0.638  11.168   5.574 -0.6645 -1.4903  0.3807
68286SOL     OW16836   5.105   3.324   0.123 -0.1284  0.1160 -0.2912
68286SOL    HW116837   5.126   3.278   0.205  0.9611 -0.2917 -0.7745
68286SOL    HW216838   5.186   3.369   0.100 -0.1598 -0.4280 -1.5529
68287SOL     OW16839  12.408   3.262   9.241 -0.3813  0.4363 -0.6199
68287SOL    HW116840  12.444   3.309   9.166  0.4573  0.7161 -0.0544
68287SOL    HW216841  12.345   3.323   9.280  0.5706  1.0348  0.0062
68288SOL     OW16842  12.835   4.464   8.519 -0.0205  0.2781  0.1027
68288SOL    HW116843  12.849   4.436   8.429  1.9961  0.4102  0.3150
68288SOL    HW216844  12.741   4.477   8.527 -0.3297 -0.6237 -1.7075
68289SOL     OW16845   7.316  10.784   1.078 -0.2458 -0.2374 -0.2995
68289SOL    HW116846   7.355  10.816   1.160  1.3006 -0.3502 -0.9555
68289SOL    HW216847   7.297  10.863   1.027 -0.1425 -0.2130 -0.2999
68290SOL     OW16848  12.163   0.837   6.335 -0.8832 -0.2057 -0.4608
68290SOL    HW116849  12.219   0.856   6.410 -2.3981 -0.2503  0.7309
68290SOL    HW216850  12.194   0.895   6.266  0.3776  0.0181  0.2730
68291SOL     OW16851   6.381  10.340   3.598 -0.1542 -0.1981  0.2504
68291SOL    HW116852   6.310  10.399   3.621 -1.3047 -2.0802  1.8385
68291SOL    HW216853   6.454  10.366   3.653  0.6226  1.9937 -1.6600
68292SOL     OW16854   8.249   4.978  12.140 -0.0947  0.0600  0.1410
68292SOL    HW116855   8.227   5.038  12.068  1.2676 -1.0232 -1.2624
68292SOL    HW216856   8.269   5.035  12.214 -0.8383  1.2391 -0.5280
68293SOL     OW16857   8.908   2.732   9.902  0.3684 -0.5954  0.1679
68293SOL    HW116858   8.917   2.807   9.961 -0.7259 -0.8523  0.6960
68293SOL    HW216859   8.923   2.656   9.957 -0.9154 -0.8508  0.2016
68294SOL     OW16860   1.275   0.165   7.215 -0.0088 -0.5663 -0.2300
68294SOL    HW116861   1.333   0.211   7.155  1.7007  0.1621  1.8239
68294SOL    HW216862   1.200   0.223   7.226  0.6556  0.2955 -0.0861
68295SOL     OW16863   7.508   7.659   2.339 -0.1445 -0.5726 -0.1802
68295SOL    HW116864   7.472   7.727   2.395  0.2238 -1.3119  0.9829
68295SOL    HW216865   7.597   7.645   2.371  0.3756 -0.4485 -1.4789
68296SOL     OW16866  12.143  12.970   2.238  0.4371  0.1566 -0.2904
68296SOL    HW116867  12.112  12.998   2.324  0.0920  0.6921 -0.5889
68296SOL    HW216868  12.231  12.935   2.255  0.2643  0.0065  0.3191
68297SOL     OW16869  11.734  13.778   4.795 -0.4721  0.6055 -0.2462
68297SOL    HW116870  11.743  13.685   4.775  0.1482  0.3719  0.9962
68297SOL    HW216871  11.767  13.824   4.718  1.6143 -0.2305  0.0984
68298SOL     OW16872  10.241  12.718   4.530  0.4638 -0.4899 -0.2985
68298SOL    HW116873  10.254  12.634   4.486  0.7589 -1.3986  1.4396
68298SOL    HW216874  10.239  12.782   4.459  3.9906 -1.4750 -1.4998
68299SOL     OW16875   0.937  13.874  10.951 -0.2606  0.2957  0.0011
68299SOL    HW116876   0.885  13.839  11.022 -1.3540  0.2183 -0.8134
68299SOL    HW216877   1.027  13.870  10.982 -0.6410 -0.5776  1.0115
68300SOL     OW16878  12.017   5.196   8.584  0.3256 -0.0633  0.7703
68300SOL    HW116879  11.948   5.218   8.520 -0.9590  0.4378  2.2697
68300SOL    HW216880  12.054   5.281   8.608  1.0055 -0.2780  0.5030
68301SOL     OW16881  12.651   9.044   3.628  0.0956  0.4822  0.3833
68301SOL    HW116882  12.713   8.994   3.681  0.5564  1.9456  1.2918
68301SOL    HW216883  12.569   8.995   3.633  0.8780 -0.9246  0.0400
68302SOL     OW16884  12.442   2.796  10.098  0.1213 -0.4845 -0.0481
68302SOL    HW116885  12.371   2.735  10.117  2.0848 -2.6343  0.9710
68302SOL    HW216886  12.420   2.875  10.147 -2.2495 -0.5075 -0.9659
68303SOL     OW16887   9.729   6.687   8.226  0.4221  0.4112  0.2589
68303SOL    HW116888   9.642   6.724   8.212  0.4526  0.1544 -0.7013
68303SOL    HW216889   9.766   6.679   8.138  0.4873 -1.6889  0.4331
68304SOL     OW16890  10.562  12.436  12.392  0.1739 -0.4308 -0.5181
68304SOL    HW116891  10.561  12.494  12.468 -2.3065  0.7986 -1.3647
68304SOL    HW216892  10.653  12.409  12.383  0.6073 -0.4459  2.7112
68305SOL     OW16893  12.065   5.973   9.693  0.4250 -0.3791  0.0692
68305SOL    HW116894  12.152   6.007   9.713 -0.1514  1.5457 -0.5506
68305SOL    HW216895  12.019   5.975   9.777  1.5270 -3.3949  0.8852
68306SOL     OW16896   1.434  12.883   9.770  0.2826 -0.6304  0.4615
68306SOL    HW116897   1.509  12.918   9.818  0.4660 -1.2374  0.6295
68306SOL    HW216898   1.373  12.855   9.838  0.1798 -0.7301  0.3284
68307SOL     OW16899   5.569   6.357  12.221 -0.3984  0.2230  0.0648
68307SOL    HW116900   5.656   6.368  12.259  0.6829 -0.2502 -2.1132
68307SOL    HW216901   5.509   6.384  12.290  1.5254  2.2768  1.0730
68308SOL     OW16902  14.033   5.341   0.598  0.2385 -0.2005  0.5497
68308SOL    HW116903  14.047   5.343   0.504 -0.6433 -1.0145  0.3813
68308SOL    HW216904  13.950   5.293   0.609  1.1640 -1.6225  1.8003
68309SOL     OW16905   7.730  12.146   6.724  0.0139  0.6221 -0.2951
68309SOL    HW116906   7.692  12.164   6.810 -1.2713 -0.4821 -0.5866
68309SOL    HW216907   7.654  12.132   6.667  0.8047 -1.6790 -0.9142
68310SOL     OW16908   4.367  13.821   0.627 -0.2560  0.2222 -0.4138
68310SOL    HW116909   4.430  13.793   0.561 -0.5524 -0.6076 -0.3523
68310SOL    HW216910   4.420  13.867   0.692  0.0530  0.9551 -1.1658
68311SOL     OW16911  11.884  12.713   0.110 -0.1068  0.2366  0.2271
68311SOL    HW116912  11.790  12.729   0.125 -0.2442 -1.5741  1.5867
68311SOL    HW216913  11.895  12.726   0.016 -1.4737  1.6225  0.2169
68312SOL     OW16914   4.208   8.598   8.778  0.2139 -0.0432 -0.8250
68312SOL    HW116915   4.239   8.509   8.796  0.3527  0.0810 -0.4459
68312SOL    HW216916   4.266   8.630   8.709  0.6276  0.0167 -0.4508
68313SOL     OW16917   4.507  11.657   8.709 -0.2079  0.2341 -0.0453
68313SOL    HW116918   4.430  11.675   8.655 -1.1884 -0.1325  1.1843
68313SOL    HW216919   4.529  11.566   8.691 -0.8721 -0.0552  0.5644
68314SOL     OW16920   1.449   5.569   8.446  0.2415  1.2665 -0.0864
68314SOL    HW116921   1.473   5.641   8.387  3.0301 -0.9115 -1.8481
68314SOL    HW216922   1.422   5.498   8.387 -0.3826  0.1355  1.4981
68315SOL     OW16923   6.221   9.099  13.733  0.1429  0.0754 -0.2303
68315SOL    HW116924   6.154   9.045  13.774  1.4036 -0.6200  0.9811
68315SOL    HW216925   6.210   9.186  13.772  1.4764 -0.6327  1.8723
68316SOL     OW16926   8.731  12.328   8.944  0.0218 -0.0109 -0.9518
68316SOL    HW116927   8.771  12.246   8.915 -0.5190  0.2405 -2.5539
68316SOL    HW216928   8.663  12.301   9.006  1.1473 -0.6024  0.0517
68317SOL     OW16929   5.006   6.329  10.566  0.5412  0.2269 -0.7999
68317SOL    HW116930   5.068   6.287  10.506 -0.2742  0.0350 -1.5363
68317SOL    HW216931   5.018   6.423  10.549  1.9297  0.3050  0.4089
68318SOL     OW16932   6.665  13.608   0.545  0.2359 -0.5636 -0.2025
68318SOL    HW116933   6.740  13.646   0.499  0.2477  1.5751  1.4338
68318SOL    HW216934   6.704  13.555   0.614  0.1966 -1.9564 -1.1993
68319SOL     OW16935   3.490   6.602   8.286 -0.0760 -0.1856  0.7528
68319SOL    HW116936   3.457   6.682   8.246 -1.0757 -0.9370  0.0201
68319SOL    HW216937   3.578   6.625   8.317  0.2311  0.7881 -0.7466
68320SOL     OW16938  11.115   7.047   0.894  0.1683 -0.0419 -0.0639
68320SOL    HW116939  11.177   7.081   0.959  0.6906 -0.8587 -0.1288
68320SOL    HW216940  11.065   7.124   0.867 -1.1008  0.1014  2.3866
68321SOL     OW16941  11.245   8.636   1.742  0.0696  0.2875  0.6595
68321SOL    HW116942  11.330   8.606   1.777 -0.2995 -0.3231  1.0543
68321SOL    HW216943  11.192   8.557   1.739 -0.8007  0.8309  1.3271
68322SOL     OW16944   9.000   0.008  12.251 -0.4325  0.4197 -0.3786
68322SOL    HW116945   8.985   0.100  12.271 -1.2379  0.3588 -0.6470
68322SOL    HW216946   8.943  -0.039  12.312 -1.4736  0.1750 -1.5018
68323SOL     OW16947   6.054   9.217   3.720 -0.0222  0.3623 -0.2223
68323SOL    HW116948   5.970   9.244   3.683  0.3053  2.7618  0.6210
68323SOL    HW216949   6.066   9.128   3.687 -3.1647 -0.3267  0.1195
68324SOL     OW16950  12.750   8.291   7.683 -0.5431 -0.0141  0.6921
68324SOL    HW116951  12.762   8.200   7.709  0.0763 -0.1615 -0.0725
68324SOL    HW216952  12.789   8.342   7.754  0.4147 -0.3861  0.4476
68325SOL     OW16953  10.832   9.261   4.456  0.4450  0.5828 -0.0653
68325SOL    HW116954  10.914   9.251   4.503 -0.5313 -0.9283  1.4035
68325SOL    HW216955  10.778   9.315   4.513 -0.6438 -1.0113  0.4782
68326SOL     OW16956   0.300   4.118   9.179 -0.3184 -0.5851  0.0684
68326SOL    HW116957   0.357   4.043   9.194 -0.5575 -1.1563 -1.6598
68326SOL    HW216958   0.214   4.080   9.159 -0.1796  0.0365 -2.0083
68327SOL     OW16959   2.264  10.750  10.799 -0.1335 -0.5997 -0.4369
68327SOL    HW116960   2.213  10.804  10.859  0.0692 -0.3408 -0.4992
68327SOL    HW216961   2.297  10.811  10.733  2.8038 -0.1981  1.2376
68328SOL     OW16962   6.951   5.274   5.823 -0.4818 -0.3756 -0.2634
68328SOL    HW116963   6.981   5.200   5.875 -1.3561 -1.6899 -1.5756
68328SOL    HW216964   6.887   5.318   5.878  0.1056 -0.5296  0.5570
68329SOL     OW16965   7.756   9.925   9.781 -0.4778 -0.6676 -0.1184
68329SOL    HW116966   7.721  10.014   9.787 -0.2561 -0.4692 -1.4828
68329SOL    HW216967   7.679   9.869   9.781 -0.6030 -0.5292  1.2581
68330SOL     OW16968  11.203   8.162   6.674  0.1135  0.4394 -0.1125
68330SOL    HW116969  11.240   8.157   6.586  0.5449  1.1223  0.0264
68330SOL    HW216970  11.241   8.241   6.712 -0.5764  0.5067  0.4578
68331SOL     OW16971  10.295   1.585   4.770 -0.3598 -0.2765 -0.3363
68331SOL    HW116972  10.222   1.647   4.763  1.2244  1.6664 -0.5147
68331SOL    HW216973  10.349   1.620   4.841  0.6870 -1.3638 -0.5659
68332SOL     OW16974  11.028  13.822   3.036  0.0330  0.7460  0.2821
68332SOL    HW116975  11.034  13.814   2.941 -0.4845  1.8486  0.1343
68332SOL    HW216976  11.119  13.826   3.066  0.2055 -0.0288 -0.1126
68333SOL     OW16977  11.309   4.756  10.472  0.5626 -0.3297  0.1753
68333SOL    HW116978  11.338   4.674  10.513  2.5760 -0.1605 -0.8015
68333SOL    HW216979  11.370   4.822  10.505 -0.2474  0.5458 -0.0389
68334SOL     OW16980   7.623   4.568   3.028  0.6572  0.2798  0.4152
68334SOL    HW116981   7.647   4.656   3.000  2.1040  0.4862  2.1370
68334SOL    HW216982   7.531   4.576   3.054  0.0611  0.6736 -1.6012
68335SOL     OW16983  10.507  11.462  10.292 -0.1846 -0.4272  0.5305
68335SOL    HW116984  10.558  11.543  10.284  0.5362 -0.9350 -0.0283
68335SOL    HW216985  10.416  11.493  10.294  0.0471  0.3591 -0.3506
68336SOL     OW16986   3.841   6.477  10.942  0.4684  0.0397  0.1924
68336SOL    HW116987   3.901   6.551  10.947 -1.8028  1.9428  1.4168
68336SOL    HW216988   3.755   6.516  10.929 -0.7935 -2.4488  0.3154
68337SOL     OW16989   3.873   3.353   9.056  0.7432 -0.3052 -0.1903
68337SOL    HW116990   3.853   3.337   9.148  0.3685  0.1151 -0.1956
68337SOL    HW216991   3.878   3.448   9.049 -0.9870 -0.2326 -0.9544
68338SOL     OW16992   1.556  12.881   6.470  0.0883 -0.6108  0.4982
68338SOL    HW116993   1.640  12.889   6.515  0.0426 -3.0614  1.1649
68338SOL    HW216994   1.491  12.883   6.540 -0.3016 -0.4243  0.1355
68339SOL     OW16995   4.561  12.591   3.709  0.1896 -0.2347 -0.3064
68339SOL    HW116996   4.591  12.601   3.799 -1.5414  1.2723  0.1668
68339SOL    HW216997   4.610  12.516   3.675  0.7497 -0.9477  1.9229
68340SOL     OW16998   8.411   8.594  12.678  0.1042 -0.5511 -0.1383
68340SOL    HW116999   8.388   8.617  12.588  0.6331 -0.9739 -0.3911
68340SOL    HW217000   8.329   8.602  12.727  0.1431  1.3390 -0.3030
68341SOL     OW17001  13.836   7.450   3.832 -0.4460  0.0723  0.1071
68341SOL    HW117002  13.822   7.360   3.862  0.7932  0.2473  1.3329
68341SOL    HW217003  13.844   7.443   3.737 -1.0896 -1.0069  0.1160
68342SOL     OW17004   9.235  11.667   5.066 -0.3263 -0.2356  0.7795
68342SOL    HW117005   9.203  11.722   4.995  0.3932  1.1384  1.4683
68342SOL    HW217006   9.223  11.577   5.035  0.5546  0.3130 -1.3291
68343SOL     OW17007   3.502   0.450   1.537 -0.1522  0.1485  0.2243
68343SOL    HW117008   3.431   0.507   1.565 -0.7993 -1.2526  1.6147
68343SOL    HW217009   3.554   0.503   1.476 -1.1369  1.9278  0.8771
68344SOL     OW17010   3.208   1.722   0.100 -0.5773 -0.2762 -0.5338
68344SOL    HW117011   3.279   1.727   0.164  0.1292 -0.3321 -1.3065
68344SOL    HW217012   3.160   1.643   0.126 -0.0686 -0.5190 -0.3037
68345SOL     OW17013   6.054  11.210  10.326  0.1520  0.6971  0.0833
68345SOL    HW117014   6.014  11.297  10.329  0.5838  0.8802  1.8856
68345SOL    HW217015   6.002  11.158  10.387  0.5817 -0.0009 -0.1383
68346SOL     OW17016  11.030   9.453  13.236  0.0871  0.1359  0.0622
68346SOL    HW117017  11.070   9.523  13.186 -0.7220 -0.0720 -0.9083
68346SOL    HW217018  11.040   9.479  13.328  0.3268  1.2182 -0.2659
68347SOL     OW17019  10.793  11.034   5.494  0.3572  0.1737  0.3917
68347SOL    HW117020  10.745  10.969   5.443  1.0884 -1.3460  1.5711
68347SOL    HW217021  10.879  11.040   5.451 -0.4039  2.0448 -1.0268
68348SOL     OW17022   2.687   8.682   1.460 -0.8152 -0.5328  0.0653
68348SOL    HW117023   2.720   8.617   1.398 -0.9219  0.0674 -0.6502
68348SOL    HW217024   2.607   8.715   1.418 -0.0527  1.0011 -0.2552
68349SOL     OW17025  10.460  11.554   8.848 -0.6255  0.3701 -0.3950
68349SOL    HW117026  10.471  11.518   8.936 -0.7534  0.9437 -0.1381
68349SOL    HW217027  10.514  11.633   8.847  1.1689 -0.8077 -1.5637
68350SOL     OW17028   1.587   2.792   5.777 -0.0832 -0.6494  0.1291
68350SOL    HW117029   1.678   2.765   5.789  0.0917  0.2575  1.0760
68350SOL    HW217030   1.540   2.713   5.751  1.1410 -0.9326 -1.3428
68351SOL     OW17031  13.627  10.303   7.975 -0.4613  0.5331 -0.5286
68351SOL    HW117032  13.594  10.256   7.899  1.0685 -1.1316 -0.2207
68351SOL    HW217033  13.662  10.235   8.033  0.5243  1.9246  0.6015
68352SOL     OW17034   8.783   4.207  12.096 -0.0100  0.4426  0.3631
68352SOL    HW117035   8.724   4.266  12.050 -1.9952 -0.3461  1.7513
68352SOL    HW217036   8.762   4.120  12.061  0.5789  0.1814  0.6419
68353SOL     OW17037   2.797   0.655   6.042  0.1827 -0.2570  0.0286
68353SOL    HW117038   2.726   0.631   6.102  0.0014 -0.5422 -0.2947
68353SOL    HW217039   2.871   0.600   6.068  0.1581 -0.2586  0.0969
68354SOL     OW17040   4.693   4.256   4.752  0.4910  0.4407  0.6976
68354SOL    HW117041   4.613   4.299   4.782 -0.0199 -0.3419  0.4649
68354SOL    HW217042   4.731   4.217   4.831  0.7673  1.0025  0.8468
68355SOL     OW17043   2.104   0.088   8.418 -0.2193  0.2244  0.6975
68355SOL    HW117044   2.094  -0.003   8.391 -0.7865  0.0220  1.5345
68355SOL    HW217045   2.198   0.101   8.423 -0.1281 -0.2020  0.1937
68356SOL     OW17046   3.554   5.788   0.198 -0.2634  0.1122 -0.1218
68356SOL    HW117047   3.471   5.748   0.172  0.2973 -1.2353  0.0673
68356SOL    HW217048   3.614   5.714   0.211  0.7146  0.9946  0.6576
68357SOL     OW17049   3.440   6.746  11.056 -0.8436 -0.6002  0.4307
68357SOL    HW117050   3.405   6.657  11.053 -1.2983 -0.4083 -0.9281
68357SOL    HW217051   3.490   6.750  11.138 -1.0686 -1.9975  0.6635
68358SOL     OW17052   4.479   5.467   3.720  0.3640  0.7193  0.1093
68358SOL    HW117053   4.495   5.388   3.669  1.9759  1.2126 -0.1741
68358SOL    HW217054   4.386   5.486   3.705 -0.1192 -1.2135  0.3504
68359SOL     OW17055   7.023   8.481   8.423  0.3051  0.6154 -0.0848
68359SOL    HW117056   7.062   8.426   8.492  1.4357  0.2677 -0.9728
68359SOL    HW217057   6.949   8.430   8.390  0.2975  0.3923  0.2730
68360SOL     OW17058   6.412   4.433   4.655 -0.2699  0.2910  0.1820
68360SOL    HW117059   6.482   4.375   4.687 -2.9019 -2.5252  1.3400
68360SOL    HW217060   6.405   4.501   4.722 -0.9736 -1.5166  2.0718
68361SOL     OW17061   3.673  10.970   1.765  0.1981  0.4836 -0.1698
68361SOL    HW117062   3.665  11.062   1.789 -1.4455  0.2392  0.3145
68361SOL    HW217063   3.597  10.953   1.709  0.8209 -0.4300 -0.7588
68362SOL     OW17064   9.052  12.902  13.811 -0.1460  0.1062  0.2922
68362SOL    HW117065   9.068  12.945  13.728 -0.9254 -0.9588 -0.4324
68362SOL    HW217066   9.037  12.974  13.873  1.5381  0.9380 -0.2217
68363SOL     OW17067   6.501   1.780  12.066  0.3100 -0.0430  0.4871
68363SOL    HW117068   6.407   1.764  12.056  0.4703 -0.5356 -0.3615
68363SOL    HW217069   6.508   1.839  12.141 -0.6467 -0.3021  0.7929
68364SOL     OW17070   8.756   0.116   5.327  0.3027 -0.0965  0.0652
68364SOL    HW117071   8.836   0.063   5.335 -0.4157 -1.0342  1.2988
68364SOL    HW217072   8.765   0.183   5.396 -1.1402 -1.8221  2.0298
68365SOL     OW17073   8.330   4.843  10.418  0.2872  0.0331  0.0641
68365SOL    HW117074   8.354   4.751  10.408  0.9324 -0.0245  1.8876
68365SOL    HW217075   8.347   4.863  10.510 -3.0580  1.0559  0.6287
68366SOL     OW17076   9.387   9.148   2.461  0.1402 -0.2584  0.1905
68366SOL    HW117077   9.419   9.058   2.467  0.0374 -0.4329 -1.4931
68366SOL    HW217078   9.322   9.147   2.391  0.7269  1.2797 -0.4256
68367SOL     OW17079  10.171   6.752   4.672 -0.3217 -0.5087 -0.0755
68367SOL    HW117080  10.232   6.821   4.700 -1.8541 -0.2453  2.9646
68367SOL    HW217081  10.100   6.799   4.628 -0.8492 -0.2176  1.0580
68368SOL     OW17082   0.927   5.851   8.604  0.6848  0.1008 -0.4593
68368SOL    HW117083   0.970   5.797   8.671  0.9284  1.1198  0.2226
68368SOL    HW217084   0.835   5.827   8.609  0.9180 -0.9432 -0.8371
68369SOL     OW17085   1.007   3.513   9.651  0.0067  0.0171 -0.6453
68369SOL    HW117086   1.082   3.454   9.646  0.4351  0.4698  0.2005
68369SOL    HW217087   0.931   3.455   9.647  0.3695 -0.4179 -1.9478
68370SOL     OW17088   6.438   9.162  10.767 -0.3665  0.0128 -0.3780
68370SOL    HW117089   6.368   9.217  10.733 -0.2548  2.1095  2.4055
68370SOL    HW217090   6.518   9.214  10.756 -0.3176  0.8240  2.6880
68371SOL     OW17091   5.121   9.560  10.066  0.0293 -0.1305 -0.0625
68371SOL    HW117092   5.154   9.589   9.981  0.6367 -1.8067 -0.4412
68371SOL    HW217093   5.034   9.525  10.047  1.1716 -2.9588 -0.5665
68372SOL     OW17094  10.015   1.277   2.436  0.6900  0.2278  0.3240
68372SOL    HW117095  10.001   1.212   2.505 -1.6525  0.1284 -0.1637
68372SOL    HW217096  10.003   1.229   2.355  0.7596  0.8898 -0.0890
68373SOL     OW17097  11.917   5.787   6.353  0.7548  0.3144  0.0705
68373SOL    HW117098  12.006   5.759   6.331  0.5639 -1.0046  0.8855
68373SOL    HW217099  11.862   5.715   6.322  0.1956 -0.0042  1.7045
68374SOL     OW17100   0.098  12.659   7.904 -0.3259 -0.0844  0.3382
68374SOL    HW117101   0.093  12.753   7.885  0.1599  0.1326  1.2412
68374SOL    HW217102   0.095  12.617   7.818  1.6903  0.8522 -0.2406
68375SOL     OW17103   0.310  12.482  11.998  0.1723  0.1949 -0.2231
68375SOL    HW117104   0.233  12.433  11.970  1.0853 -1.2063 -0.4304
68375SOL    HW217105   0.309  12.562  11.945 -2.0659  1.0831  1.0515
68376SOL     OW17106   1.503   3.701  12.459 -0.5165 -0.1127  0.3880
68376SOL    HW117107   1.503   3.676  12.367 -2.1585 -0.8966  0.5537
68376SOL    HW217108   1.492   3.618  12.506  1.4680  0.1343  1.3726
68377SOL     OW17109   5.315   0.374   8.734 -0.0497  0.0824 -0.0192
68377SOL    HW117110   5.221   0.381   8.720 -0.1037 -0.5870 -0.0026
68377SOL    HW217111   5.353   0.379   8.646 -0.1404 -0.2628 -0.0779
68378SOL     OW17112  12.579  13.332   4.256 -0.2149 -0.2846  0.0150
68378SOL    HW117113  12.543  13.402   4.310  0.0236 -0.2739  0.1575
68378SOL    HW217114  12.666  13.315   4.292 -0.3699 -0.8286  0.1395
68379SOL     OW17115   5.938   9.413  10.207 -0.2978 -0.6681 -0.5431
68379SOL    HW117116   5.975   9.432  10.293  1.5758 -0.8958 -1.2567
68379SOL    HW217117   5.857   9.463  10.205 -0.0797 -0.1624  1.1077
68380SOL     OW17118   6.323   0.781   1.618 -0.2998 -0.3044 -1.0484
68380SOL    HW117119   6.240   0.829   1.619  0.5644  1.2487 -0.9117
68380SOL    HW217120   6.372   0.819   1.545  1.2319  0.5576  0.3405
68381SOL     OW17121   2.747  11.048   5.047 -0.6123  0.3436  0.3107
68381SOL    HW117122   2.744  10.954   5.061  0.5680  0.2411 -0.0149
68381SOL    HW217123   2.741  11.085   5.135 -0.6830 -0.0479  0.4732
68382SOL     OW17124   7.371  11.170   0.203  0.0585  0.1748  0.3235
68382SOL    HW117125   7.348  11.092   0.154  1.4927  0.4345 -0.8376
68382SOL    HW217126   7.434  11.140   0.269  0.8787  0.3555 -0.3455
68383SOL     OW17127  10.115   2.392  10.998  0.0030 -0.0697  0.2924
68383SOL    HW117128  10.040   2.448  11.018  0.8926  0.9453  0.8536
68383SOL    HW217129  10.097   2.360  10.910 -2.1023 -1.5400  1.1579
68384SOL     OW17130   9.243   7.343  12.864  0.4195 -0.0021 -0.2732
68384SOL    HW117131   9.237   7.394  12.783  1.9088  1.2298  0.3466
68384SOL    HW217132   9.164   7.288  12.864 -0.9575  1.8810 -1.2427
68385SOL     OW17133  11.588   5.228   3.152 -0.3731 -0.3770 -0.1272
68385SOL    HW117134  11.542   5.155   3.111 -1.9025 -0.1532  1.0650
68385SOL    HW217135  11.587   5.297   3.086  0.5654 -1.2102 -1.0509
68386SOL     OW17136  10.354   4.396  10.223  0.2989  0.9195 -0.1695
68386SOL    HW117137  10.422   4.381  10.157 -0.5760  1.1626 -1.1466
68386SOL    HW217138  10.334   4.309  10.258  1.7542  0.9407  0.8156
68387SOL     OW17139   8.981   0.445   2.726  0.4978  0.3079  0.3643
68387SOL    HW117140   8.912   0.474   2.786  1.9645  1.1665  1.7328
68387SOL    HW217141   9.035   0.524   2.712 -0.2566  0.3879 -2.8489
68388SOL     OW17142   4.965   8.739   3.914 -0.0911 -0.1654 -0.1912
68388SOL    HW117143   4.935   8.756   4.003  1.6126  0.8031  0.2516
68388SOL    HW217144   5.014   8.658   3.920  1.0005  0.4898  0.0298
68389SOL     OW17145  11.789   1.244   7.747  0.0124 -0.1315 -0.3617
68389SOL    HW117146  11.882   1.249   7.725  0.1040 -0.7495 -0.1155
68389SOL    HW217147  11.764   1.155   7.724 -0.6986  0.2476 -1.1084
68390SOL     OW17148   2.974   5.636   7.358  0.3041 -0.4368 -0.5987
68390SOL    HW117149   2.917   5.641   7.281  0.1553  0.3209 -0.4479
68390SOL    HW217150   2.915   5.610   7.430 -0.4207  2.6953  0.0752
68391SOL     OW17151   7.843   6.154   5.046  0.0581 -0.0082  0.6338
68391SOL    HW117152   7.809   6.216   4.981 -0.1629 -1.6403 -0.8799
68391SOL    HW217153   7.849   6.205   5.127 -0.2017  1.9432 -0.5169
68392SOL     OW17154   1.405   5.909   9.207 -0.3140 -0.3901  0.1270
68392SOL    HW117155   1.384   5.981   9.266 -1.1858  0.2150 -0.8731
68392SOL    HW217156   1.401   5.831   9.261  0.4099  0.2858  1.1876
68393SOL     OW17157   0.652   0.043   0.682 -0.6582  0.6723 -0.5501
68393SOL    HW117158   0.635   0.129   0.720 -2.7342  0.3166 -0.5461
68393SOL    HW217159   0.691  -0.007   0.753 -0.0869  1.3954 -0.3443
68394SOL     OW17160   2.273   8.006   4.764  0.7052  0.2169  0.4130
68394SOL    HW117161   2.267   7.949   4.687  0.6640 -0.4613  0.9096
68394SOL    HW217162   2.335   7.962   4.822 -0.2669  0.0403  1.3429
68395SOL     OW17163  13.543   7.085   1.223  0.4645  0.3763  0.5202
68395SOL    HW117164  13.471   7.119   1.277 -1.5470 -0.7816 -1.2291
68395SOL    HW217165  13.573   7.160   1.172 -0.6011  0.6032  0.1892
68396SOL     OW17166   5.731   7.573  12.101 -0.2899  0.4553  0.6010
68396SOL    HW117167   5.733   7.477  12.099 -1.7759  0.4176  0.1101
68396SOL    HW217168   5.822   7.599  12.088  0.0043 -0.8697 -0.1300
68397SOL     OW17169   4.257   2.379   8.490  0.4370 -0.5349 -0.0918
68397SOL    HW117170   4.235   2.412   8.403  0.8524  2.4846  0.8324
68397SOL    HW217171   4.345   2.342   8.480  1.3967  1.7227 -0.5991
68398SOL     OW17172   2.461   5.816  10.018 -0.4249 -0.3899  0.1015
68398SOL    HW117173   2.535   5.867   9.985 -0.0201 -0.5117  0.7906
68398SOL    HW217174   2.388   5.878  10.020 -0.0061  0.0939  0.6837
68399SOL     OW17175  11.758  10.780  11.052 -0.1734  0.0089  0.5434
68399SOL    HW117176  11.763  10.763  11.146 -0.9406  0.4622  0.6776
68399SOL    HW217177  11.843  10.754  11.018  0.4852  0.8346  1.5141
68400SOL     OW17178   9.030   8.549   1.196 -0.0084  0.0252 -0.3052
68400SOL    HW117179   9.039   8.571   1.288  1.0360  1.6037 -0.7379
68400SOL    HW217180   8.954   8.490   1.192  0.1722 -0.3885  1.5829
68401SOL     OW17181   0.287   4.826   6.444 -0.0026 -0.1853 -0.0730
68401SOL    HW117182   0.330   4.819   6.529  0.0814 -0.5316 -0.1393
68401SOL    HW217183   0.349   4.873   6.389  0.6833 -1.4286 -0.4113
68402SOL     OW17184  12.249   5.198   0.200 -0.5434 -0.4788  0.6096
68402SOL    HW117185  12.334   5.205   0.243  0.3664  0.0322 -1.1603
68402SOL    HW217186  12.255   5.117   0.150 -0.8177 -0.0948 -0.0575
68403SOL     OW17187   5.473   1.667   0.318 -0.8454 -0.0071 -0.1331
68403SOL    HW117188   5.391   1.671   0.267 -1.1436  0.1315  0.3474
68403SOL    HW217189   5.444   1.660   0.409 -0.3171 -0.0859  0.0307
68404SOL     OW17190   7.983   8.605  10.792  0.0140  0.3107 -0.3196
68404SOL    HW117191   8.055   8.566  10.743  1.0535  1.4179  0.2637
68404SOL    HW217192   7.928   8.531  10.818  0.7211 -0.5120 -1.1263
68405SOL     OW17193   0.514  10.111   7.736 -0.3124 -0.1537  0.0609
68405SOL    HW117194   0.465  10.160   7.802 -0.8248 -0.2593 -0.2307
68405SOL    HW217195   0.592  10.080   7.782  1.2443  2.8348 -0.3047
68406SOL     OW17196   0.879   9.660   8.199  0.6097 -0.5102  0.3723
68406SOL    HW117197   0.962   9.662   8.152 -0.1525 -1.5454 -1.0922
68406SOL    HW217198   0.890   9.591   8.265  0.3365 -1.9284 -1.0167
68407SOL     OW17199  12.215  10.861   9.320  0.1289 -0.5287  0.0767
68407SOL    HW117200  12.180  10.777   9.289 -0.8551 -0.1579  0.1442
68407SOL    HW217201  12.160  10.927   9.278 -0.2369  0.0238  1.3737
68408SOL     OW17202   7.665   4.108   6.571  0.3829 -0.0819  0.5637
68408SOL    HW117203   7.584   4.059   6.554 -0.0220  0.2235  1.5217
68408SOL    HW217204   7.726   4.043   6.606 -0.0173 -0.0013  1.4426
68409SOL     OW17205   2.599  12.373   0.065  0.2787  0.5503  0.5817
68409SOL    HW117206   2.587  12.467   0.070  0.0086  0.4677  2.8824
68409SOL    HW217207   2.523  12.336   0.109  0.1085 -0.7877 -0.7504
68410SOL     OW17208   0.798   1.788   4.331  0.1373 -0.6649  0.3427
68410SOL    HW117209   0.799   1.693   4.319 -1.0109 -0.6688  0.2411
68410SOL    HW217210   0.860   1.821   4.266 -1.3720 -1.1570 -1.4270
68411SOL     OW17211  13.577  10.059   7.872 -0.0991  0.4526 -0.1986
68411SOL    HW117212  13.572   9.977   7.823 -0.2219  0.5480 -0.3469
68411SOL    HW217213  13.492  10.066   7.916 -0.5207  1.0523 -1.0753
68412SOL     OW17214   8.812  12.233  11.385  0.2116 -0.3939 -0.5349
68412SOL    HW117215   8.727  12.276  11.378  0.5997  0.6314  0.7110
68412SOL    HW217216   8.873  12.293  11.342  1.1167  1.5209  3.0196
68413SOL     OW17217   0.261   5.134   8.737  0.6849 -0.2067 -0.7387
68413SOL    HW117218   0.179   5.111   8.693  0.8796 -2.1544 -0.2037
68413SOL    HW217219   0.329   5.102   8.677  1.1278  1.9465 -1.4777
68414SOL     OW17220  12.329   2.073   0.289  0.4388  0.0093  0.2525
68414SOL    HW117221  12.368   1.998   0.335 -0.6582 -0.4286  0.4821
68414SOL    HW217222  12.239   2.047   0.272  0.7560  0.2079 -2.0271
68415SOL     OW17223   1.076   5.776  10.271  0.1359  0.2066 -0.1901
68415SOL    HW117224   1.163   5.756  10.236  0.5162  0.3228  0.6750
68415SOL    HW217225   1.084   5.763  10.365 -1.5020 -2.3716 -0.3299
68416SOL     OW17226   9.020  10.397  13.533  0.3794 -0.1684  0.2424
68416SOL    HW117227   9.091  10.414  13.595  0.2203 -0.8919  0.6358
68416SOL    HW217228   8.993  10.307  13.551  1.7084 -1.1763 -2.2302
68417SOL     OW17229   5.443  12.211   1.080  1.0157  0.1641 -0.9554
68417SOL    HW117230   5.408  12.292   1.117 -0.9616 -0.5452 -1.1452
68417SOL    HW217231   5.533  12.232   1.055  1.2658  1.6381  1.0292
68418SOL     OW17232   9.390  12.994  13.529  0.4435 -0.4885  0.2520
68418SOL    HW117233   9.394  13.042  13.612 -0.8766  0.4510 -0.1980
68418SOL    HW217234   9.382  12.902  13.554  2.5711 -0.4843  1.1325
68419SOL     OW17235   2.785   1.595   6.936 -0.5490 -0.1868 -0.4540
68419SOL    HW117236   2.853   1.575   7.000 -0.2824  1.0108 -0.3368
68419SOL    HW217237   2.704   1.568   6.979 -0.1657 -1.6378 -0.6016
68420SOL     OW17238   2.429   3.992  12.316 -0.3883  0.6245 -0.6143
68420SOL    HW117239   2.400   3.906  12.287  2.5242 -1.6669  2.5051
68420SOL    HW217240   2.349   4.044  12.322 -2.9485 -3.1200  1.1654
68421SOL     OW17241   1.252   1.577   6.669  0.2645  0.5065 -0.2922
68421SOL    HW117242   1.319   1.572   6.736 -0.3895  1.7975  0.5019
68421SOL    HW217243   1.254   1.492   6.626  1.0182 -0.1820  1.0540
68422SOL     OW17244   1.744   3.671  10.463 -0.6612  0.3707 -0.1070
68422SOL    HW117245   1.695   3.634  10.537 -0.6382  1.8135  0.6767
68422SOL    HW217246   1.709   3.759  10.453  0.7023  0.8932 -0.5374
68423SOL     OW17247   9.957   6.428   1.232 -0.1371  0.2480 -0.5470
68423SOL    HW117248   9.877   6.474   1.258 -0.7513  0.3757 -2.4730
68423SOL    HW217249   9.927   6.360   1.172  1.0573 -0.8615  0.0537
68424SOL     OW17250  13.455   1.014   3.676 -0.0246  0.0758  0.3072
68424SOL    HW117251  13.548   0.997   3.663 -0.0768  0.0805 -0.0709
68424SOL    HW217252  13.436   0.979   3.764  0.7576  1.8112  1.2184
68425SOL     OW17253   0.247   0.503  11.387 -0.5108 -0.0784 -1.0350
68425SOL    HW117254   0.213   0.532  11.302  1.0632  1.2399 -1.2782
68425SOL    HW217255   0.299   0.426  11.367  1.1030  1.0874 -1.5775
68426SOL     OW17256   5.371   8.492   4.583  0.1001 -0.4163 -0.1976
68426SOL    HW117257   5.286   8.461   4.616  0.6314 -0.2787  1.3666
68426SOL    HW217258   5.435   8.455   4.644  1.3078 -1.4906 -2.0243
68427SOL     OW17259   7.993   0.253   3.579  0.2918 -0.0001 -0.1596
68427SOL    HW117260   8.055   0.303   3.526  1.7528 -1.1445  0.3940
68427SOL    HW217261   8.005   0.286   3.668  0.3922 -0.4760  0.0087
68428SOL     OW17262   4.032  13.678   7.784  0.1720  0.2825 -0.0543
68428SOL    HW117263   4.010  13.588   7.759  0.8428  0.1091 -0.0178
68428SOL    HW217264   3.948  13.716   7.810 -0.2003 -0.1722 -0.5709
68429SOL     OW17265   4.535   0.896   7.228  0.2889 -0.6644  0.3459
68429SOL    HW117266   4.537   0.977   7.177 -1.3302  0.1701  1.5234
68429SOL    HW217267   4.572   0.830   7.169  0.7893  0.7313 -0.9758
68430SOL     OW17268  12.765   8.911   2.667 -0.3510  0.2402 -0.0617
68430SOL    HW117269  12.841   8.885   2.615  0.3950 -0.0187  1.1161
68430SOL    HW217270  12.708   8.834   2.668  1.2383 -1.0442  2.3210
68431SOL     OW17271   4.751  12.486  12.322 -0.0082 -0.0508 -0.2521
68431SOL    HW117272   4.721  12.576  12.318 -1.6648 -0.5902 -0.7466
68431SOL    HW217273   4.725  12.448  12.238 -0.2568 -1.2483  0.3390
68432SOL     OW17274   2.584  13.444   5.127 -0.4178 -0.1915 -0.0957
68432SOL    HW117275   2.556  13.533   5.148 -1.0423 -0.7984  1.8200
68432SOL    HW217276   2.516  13.388   5.164 -0.5941 -1.4841 -2.1839
68433SOL     OW17277   4.807   2.840  13.217  0.1227 -0.0867 -0.8500
68433SOL    HW117278   4.851   2.797  13.290 -2.4833  0.5677  1.2662
68433SOL    HW217279   4.859   2.918  13.199  0.4564  0.1023  0.8068
68434SOL     OW17280   6.382  10.338   7.818 -0.6700 -0.5960 -0.6154
68434SOL    HW117281   6.319  10.269   7.798 -2.2121  1.2749 -2.6821
68434SOL    HW217282   6.334  10.419   7.801  1.7600  0.9496 -0.4698
68435SOL     OW17283  10.317   0.591   9.887  0.1322 -0.1438  0.1613
68435SOL    HW117284  10.337   0.683   9.871 -3.5291  0.5741 -1.3114
68435SOL    HW217285  10.332   0.548   9.803 -1.2762 -0.1763 -0.0982
68436SOL     OW17286   3.456   7.982  13.423  0.2139 -0.4673 -0.0040
68436SOL    HW117287   3.401   7.959  13.348  0.9531 -1.4484 -0.2628
68436SOL    HW217288   3.433   7.918  13.490  0.4072 -0.3329  0.1925
68437SOL     OW17289   8.754   2.893   8.326 -0.2374 -0.2428 -0.3081
68437SOL    HW117290   8.703   2.925   8.401  1.1788  0.6674  0.3056
68437SOL    HW217291   8.843   2.884   8.360  0.5401  0.6576 -2.0004
68438SOL     OW17292   0.747  13.201   2.264  0.3463  0.4614  0.0680
68438SOL    HW117293   0.808  13.212   2.337  0.1093 -0.4351  0.4102
68438SOL    HW217294   0.690  13.130   2.292 -1.0978  1.5129 -0.0742
68439SOL     OW17295  12.724   2.396   9.500 -0.2312 -0.0187 -0.1364
68439SOL    HW117296  12.692   2.467   9.443  0.4285  0.7064  0.3733
68439SOL    HW217297  12.750   2.327   9.439  0.5799  0.7945 -0.7442
68440SOL     OW17298   4.960   7.861   3.453  0.0797 -0.8618 -0.5310
68440SOL    HW117299   4.942   7.954   3.467  0.7558 -0.7946 -0.0046
68440SOL    HW217300   4.936   7.819   3.536 -0.8561 -1.2662 -0.9896
68441SOL     OW17301   6.549   6.636  12.577 -0.0487  0.3674  0.1211
68441SOL    HW117302   6.642   6.659  12.572 -0.4641  3.0865  2.5883
68441SOL    HW217303   6.537   6.603  12.666 -1.7854  2.0045  0.5473
68442SOL     OW17304   5.423   1.404  11.838  0.1201  0.3808 -0.3631
68442SOL    HW117305   5.334   1.439  11.833 -0.1988 -0.1049  1.3798
68442SOL    HW217306   5.452   1.425  11.927  0.4338 -2.5199  0.2912
68443SOL     OW17307   4.712   8.170   3.112 -0.0058 -0.0678  0.1788
68443SOL    HW117308   4.758   8.219   3.180  0.4772  0.3259 -0.4177
68443SOL    HW217309   4.691   8.236   3.046  1.0297 -0.7412 -0.8422
68444SOL     OW17310  13.857   1.556   7.716 -0.1133 -0.5662  0.0953
68444SOL    HW117311  13.920   1.592   7.654  0.7933  0.7128  1.6601
68444SOL    HW217312  13.799   1.502   7.663  1.2436 -0.3912 -1.6751
68445SOL     OW17313   8.548   3.798  12.530 -0.1222  0.5003  0.1845
68445SOL    HW117314   8.527   3.759  12.615  1.0742 -0.8912 -0.1247
68445SOL    HW217315   8.464   3.801  12.484 -0.4239 -0.8095  0.6040
68446SOL     OW17316   4.878   1.319   2.385 -0.3321  0.0015 -0.1019
68446SOL    HW117317   4.873   1.400   2.334 -0.0083  0.9406  1.3046
68446SOL    HW217318   4.788   1.286   2.387 -0.8725  1.4342  1.0105
68447SOL     OW17319   0.269   9.900  10.708 -0.2942 -0.4136 -0.8513
68447SOL    HW117320   0.348   9.917  10.759 -1.0299 -1.1150  0.5851
68447SOL    HW217321   0.199   9.939  10.760 -1.1868 -1.9465 -0.8536
68448SOL     OW17322   4.840   9.059   9.713  0.2155 -0.0470  0.4100
68448SOL    HW117323   4.908   9.042   9.778  1.2922 -1.2460 -0.9660
68448SOL    HW217324   4.759   9.028   9.753  0.2706  2.1342  2.3996
68449SOL     OW17325   3.678   5.736   3.397  0.6282  0.2000  0.2620
68449SOL    HW117326   3.666   5.702   3.308  0.7883  0.9124 -0.0431
68449SOL    HW217327   3.687   5.658   3.452 -1.3075 -0.2979 -0.0648
68450SOL     OW17328   6.873   4.196  13.762 -0.1509 -0.0736  0.1715
68450SOL    HW117329   6.862   4.171  13.671 -0.5775  0.9813 -0.0797
68450SOL    HW217330   6.784   4.213  13.794  0.0721  0.5960  0.4698
68451SOL     OW17331   0.399   9.499   4.972 -0.3025 -0.3097  0.3251
68451SOL    HW117332   0.481   9.523   5.016 -0.1360  1.4973 -0.8661
68451SOL    HW217333   0.393   9.405   4.984  0.8283 -0.2027  2.3125
68452SOL     OW17334   7.448   2.229  10.913 -0.2998  0.4480 -0.0971
68452SOL    HW117335   7.486   2.159  10.966  0.5121  0.5447 -0.5299
68452SOL    HW217336   7.391   2.184  10.851  0.7682  0.0711 -0.8442
68453SOL     OW17337   6.946   5.461  10.019  0.7495  0.4624  0.3378
68453SOL    HW117338   7.029   5.477   9.974  1.1217 -0.1932  0.7725
68453SOL    HW217339   6.919   5.547  10.050  1.3106  0.6733  0.2584
68454SOL     OW17340  12.686   2.555  11.319  0.1314 -0.0419 -0.0620
68454SOL    HW117341  12.635   2.486  11.276  2.1378 -1.3353 -0.5125
68454SOL    HW217342  12.756   2.575  11.257 -0.1100  2.0991  0.2813
68455SOL     OW17343   3.586  12.563   5.978 -0.5280 -0.6098  0.1102
68455SOL    HW117344   3.663  12.592   5.928  0.1813 -0.0777  1.4660
68455SOL    HW217345   3.622  12.526   6.058 -1.7243  1.7100  1.8269
68456SOL     OW17346   2.343  10.217   4.390  0.5765  0.3538 -0.1835
68456SOL    HW117347   2.384  10.221   4.303  0.3312 -1.1002 -0.3974
68456SOL    HW217348   2.412  10.243   4.450  0.7250  1.4784 -0.8133
68457SOL     OW17349  11.566   2.730   1.560 -0.3496 -0.5183 -0.6410
68457SOL    HW117350  11.659   2.713   1.578 -0.2255  1.2185  0.6878
68457SOL    HW217351  11.520   2.687   1.631 -0.3016  1.1073  0.4385
68458SOL     OW17352  13.617   4.040   0.074 -0.0526 -0.0313 -0.1928
68458SOL    HW117353  13.667   3.958   0.067 -0.5534 -0.2846 -0.8676
68458SOL    HW217354  13.672   4.105   0.030  0.1782 -0.0691  0.0303
68459SOL     OW17355   6.377   6.129   2.297  0.3686  0.4605  0.5740
68459SOL    HW117356   6.419   6.095   2.217 -1.1920 -0.2296  0.0111
68459SOL    HW217357   6.284   6.132   2.275  0.0742  1.6997  1.8765
68460SOL     OW17358   0.474   7.482   3.462  0.2926 -0.0735 -0.2558
68460SOL    HW117359   0.537   7.498   3.533 -0.7778  1.8651  0.3387
68460SOL    HW217360   0.493   7.550   3.397  0.2127 -0.8238 -1.0755
68461SOL     OW17361  11.609  13.431   1.102  0.1927  0.0776 -0.0222
68461SOL    HW117362  11.636  13.438   1.194 -0.9979 -1.5055  0.4874
68461SOL    HW217363  11.569  13.516   1.082  0.5770  0.4867  0.8626
68462SOL     OW17364  13.265   6.374   5.865  0.3643  0.3343 -0.2541
68462SOL    HW117365  13.347   6.405   5.905  1.1300 -1.1130 -0.6216
68462SOL    HW217366  13.241   6.298   5.918  0.6651 -0.7999 -1.6950
68463SOL     OW17367   7.302   0.450   9.559  0.1777 -0.0563  0.5490
68463SOL    HW117368   7.306   0.532   9.608 -0.1164  1.1375 -1.3114
68463SOL    HW217369   7.384   0.405   9.579  0.5732  0.9193  1.1891
68464SOL     OW17370  13.469   5.717   9.787 -0.1293  0.0406 -0.3447
68464SOL    HW117371  13.457   5.699   9.880  0.4038  0.6134 -0.1519
68464SOL    HW217372  13.401   5.667   9.743 -1.8021  1.4687  0.5001
68465SOL     OW17373   4.543  10.351   0.502 -0.4188 -0.8208 -0.1509
68465SOL    HW117374   4.625  10.325   0.461  0.5799  0.6276  0.8236
68465SOL    HW217375   4.501  10.269   0.528 -0.4648 -1.7083 -2.7891
68466SOL     OW17376  11.802   7.577   2.547 -0.2466 -0.3067  0.4253
68466SOL    HW117377  11.849   7.513   2.601  0.7387 -1.4120 -1.6257
68466SOL    HW217378  11.802   7.657   2.600 -2.7632 -2.2381  3.6999
68467SOL     OW17379   0.677   0.317   3.153 -0.4116  0.7652 -1.1355
68467SOL    HW117380   0.721   0.400   3.171  1.8611 -0.3660 -1.1282
68467SOL    HW217381   0.683   0.307   3.058  0.1604  0.2142 -1.0519
68468SOL     OW17382  11.197   1.719   0.039 -0.2186  0.2593  0.7514
68468SOL    HW117383  11.238   1.633   0.034 -0.5768  0.0634  1.1660
68468SOL    HW217384  11.271   1.780   0.046  0.3598  0.4399 -3.8996
68469SOL     OW17385   5.946   2.490  13.969  0.6077  0.1995 -0.0024
68469SOL    HW117386   6.000   2.568  13.978  0.8064  0.2452 -1.3812
68469SOL    HW217387   5.922   2.488  13.876  0.2272 -1.1299  0.1044
68470SOL     OW17388  10.043   0.750   5.605 -0.3590  0.5903 -0.6823
68470SOL    HW117389  10.080   0.673   5.562 -2.5458 -1.6577  1.1223
68470SOL    HW217390  10.119   0.793   5.645  0.8842 -1.0566 -1.1270
68471SOL     OW17391  11.210   9.369   6.055  0.3805  0.2038 -0.2579
68471SOL    HW117392  11.155   9.446   6.039 -1.1043 -0.6756  0.4202
68471SOL    HW217393  11.229   9.372   6.148 -0.1632 -0.5505 -0.1203
68472SOL     OW17394   5.888  11.148   1.535 -0.1877 -0.0724  0.0475
68472SOL    HW117395   5.814  11.096   1.565 -1.3288  0.5381 -1.5282
68472SOL    HW217396   5.902  11.120   1.445  2.1702 -0.8451  0.5905
68473SOL     OW17397   2.893  11.849   1.005 -0.5593  0.1017  0.1883
68473SOL    HW117398   2.877  11.771   1.059  0.6965 -0.0604  0.3556
68473SOL    HW217399   2.976  11.830   0.961 -0.4356  1.1947 -0.0578
68474SOL     OW17400  10.057   4.923  12.189 -0.2453  0.2787 -0.1625
68474SOL    HW117401   9.981   4.919  12.247 -0.0821 -2.3360 -0.0149
68474SOL    HW217402  10.119   4.980  12.235 -0.3554 -1.2171  2.0253
68475SOL     OW17403   1.575  11.037   4.614 -0.4883  0.0048 -0.1679
68475SOL    HW117404   1.591  10.994   4.530 -1.6379  1.4112 -1.1439
68475SOL    HW217405   1.494  10.997   4.646 -1.7022  1.5385 -1.2005
68476SOL     OW17406   0.844   9.738   5.188  0.4112 -0.2587  0.1114
68476SOL    HW117407   0.848   9.823   5.143  0.5119 -0.0668  0.4805
68476SOL    HW217408   0.859   9.759   5.280 -0.4685 -0.5709  0.3329
68477SOL     OW17409  13.456  10.927   1.750 -0.5186 -0.2814  0.3130
68477SOL    HW117410  13.551  10.933   1.748 -0.5745  0.3263 -0.9780
68477SOL    HW217411  13.425  11.004   1.702 -1.6930  0.0349  1.4936
68478SOL     OW17412  10.749   1.303   5.270  0.6630  0.3690  0.0082
68478SOL    HW117413  10.774   1.259   5.351 -1.7285 -0.5344  0.3211
68478SOL    HW217414  10.725   1.392   5.296  3.1670  1.2298 -0.2874
68479SOL     OW17415   2.530  13.065   8.580  0.7611 -0.4093 -0.1566
68479SOL    HW117416   2.531  13.084   8.674  1.5065 -2.6342  0.3473
68479SOL    HW217417   2.437  13.050   8.560  0.6541 -0.4675  0.3514
68480SOL     OW17418   1.629   5.253  12.688 -0.1972 -0.6541 -0.2610
68480SOL    HW117419   1.636   5.201  12.608  0.2227 -1.8707  0.5398
68480SOL    HW217420   1.605   5.190  12.756 -0.8298  0.4015  0.5341
68481SOL     OW17421  11.973   8.088   5.246 -0.6534  0.0831 -0.7227
68481SOL    HW117422  11.991   8.099   5.152 -0.6918 -2.3924 -1.0739
68481SOL    HW217423  12.056   8.108   5.288 -0.7780  1.7765 -1.1869
68482SOL     OW17424  12.427   5.406   6.609  0.1027 -0.1370 -0.9974
68482SOL    HW117425  12.442   5.346   6.682  1.1425  1.1880 -0.0759
68482SOL    HW217426  12.508   5.456   6.602 -1.1592  2.0675 -0.8582
68483SOL     OW17427  12.621   1.905   7.373 -0.0521 -0.2276  0.0438
68483SOL    HW117428  12.649   1.918   7.464  4.3545  1.4565 -1.2996
68483SOL    HW217429  12.568   1.982   7.352 -2.7294 -1.5197  1.5395
68484SOL     OW17430  10.545   1.326   3.375 -0.7173 -0.0928  0.0645
68484SOL    HW117431  10.455   1.356   3.378 -0.5333  0.4955 -0.0675
68484SOL    HW217432  10.566   1.302   3.465 -2.2682 -4.1860 -0.4328
68485SOL     OW17433   7.854  11.745   0.596  0.3975  0.2731  0.6253
68485SOL    HW117434   7.826  11.668   0.546 -2.4250  0.6164  1.5118
68485SOL    HW217435   7.946  11.756   0.573  0.6690 -2.8280 -0.2170
68486SOL     OW17436  10.273  10.478   6.293 -0.2540  0.2713 -0.3036
68486SOL    HW117437  10.180  10.484   6.314 -0.0936  2.2309  0.0495
68486SOL    HW217438  10.277  10.428   6.212 -1.7968  1.8336 -1.3895
68487SOL     OW17439   5.076   1.559  11.003  0.4104 -0.7835  0.0214
68487SOL    HW117440   5.142   1.621  11.033  0.7823 -0.9922 -0.3614
68487SOL    HW217441   5.064   1.500  11.077  0.2943 -0.4606  0.2674
68488SOL     OW17442   0.794   8.345   9.530 -0.0433  0.4429  0.5671
68488SOL    HW117443   0.827   8.402   9.460 -1.6472 -0.6780 -1.2099
68488SOL    HW217444   0.699   8.347   9.519 -0.1885 -1.7695  1.0862
68489SOL     OW17445   8.787   9.138   7.081 -0.3879 -0.2466 -0.3996
68489SOL    HW117446   8.825   9.056   7.049  2.8317  0.7874  0.3618
68489SOL    HW217447   8.774   9.124   7.175  1.2773  0.4084 -0.0364
68490SOL     OW17448  13.139   3.202   7.093  0.4070 -0.0102 -0.3341
68490SOL    HW117449  13.106   3.266   7.157  1.1317 -0.2341  0.2714
68490SOL    HW217450  13.215   3.162   7.135  1.0694  0.0274 -1.4444
68491SOL     OW17451   9.663   9.446   9.807  0.0184 -0.2109 -0.0473
68491SOL    HW117452   9.668   9.539   9.785 -2.0570 -0.3899 -1.5528
68491SOL    HW217453   9.740   9.430   9.861 -0.2214  2.6701  1.3349
68492SOL     OW17454   5.423   5.184   0.477 -0.2231 -0.2825 -0.0299
68492SOL    HW117455   5.446   5.204   0.387 -0.3042  2.1295  0.4402
68492SOL    HW217456   5.327   5.180   0.478 -0.3400  1.7357  0.2893
68493SOL     OW17457  11.352   1.159  11.484  0.0203 -0.4007 -0.0262
68493SOL    HW117458  11.435   1.115  11.465 -0.1046 -0.3184 -0.7971
68493SOL    HW217459  11.359   1.244  11.442 -0.5003 -0.4404 -0.2064
68494SOL     OW17460   0.717   6.997  12.440  0.3587  0.4415  0.3488
68494SOL    HW117461   0.778   7.043  12.498  0.0150  1.6879 -0.2659
68494SOL    HW217462   0.631   7.018  12.475 -0.0636  3.5822 -2.1735
68495SOL     OW17463   4.340   9.858  12.875 -0.2712 -0.1450 -0.5659
68495SOL    HW117464   4.427   9.876  12.840  0.0734  0.9999  0.7841
68495SOL    HW217465   4.282   9.919  12.830 -0.1536 -0.0126 -0.5363
68496SOL     OW17466   8.105   1.437  12.180  0.2958 -0.4110 -0.1444
68496SOL    HW117467   8.160   1.468  12.252 -0.4220  0.6721 -0.0430
68496SOL    HW217468   8.106   1.509  12.116  0.3362 -1.0621 -0.8970
68497SOL     OW17469   7.891   2.872  10.255 -0.5866 -0.0103  0.2451
68497SOL    HW117470   7.799   2.875  10.226 -0.3014  2.4149 -0.6199
68497SOL    HW217471   7.934   2.813  10.193 -1.1931  0.3560 -0.5359
68498SOL     OW17472  13.434  10.192  13.215 -0.4751 -0.2114  0.3047
68498SOL    HW117473  13.392  10.106  13.221 -0.3554 -0.2814  0.1626
68498SOL    HW217474  13.423  10.217  13.124 -1.6533  0.5169  0.6362
68499SOL     OW17475   0.984   8.326  12.098 -0.5503  0.2455 -0.4114
68499SOL    HW117476   1.067   8.283  12.076 -0.2887 -0.0022  0.9518
68499SOL    HW217477   1.008   8.417  12.117 -0.4174 -0.0454  0.9078
68500SOL     OW17478   0.230   5.884   5.092 -0.2655  0.5169  0.2110
68500SOL    HW117479   0.298   5.942   5.059 -0.2363  0.2684 -0.1645
68500SOL    HW217480   0.157   5.943   5.113  0.2588  0.8554  1.1664
68501SOL     OW17481  12.597   0.540  10.704  0.0003  0.1850  0.6667
68501SOL    HW117482  12.672   0.484  10.725  0.0136 -0.1361 -0.1892
68501SOL    HW217483  12.521   0.482  10.710 -0.0011  0.0970 -0.0755
68502SOL     OW17484   9.352   7.610  13.160  0.6746 -0.4314 -0.2946
68502SOL    HW117485   9.386   7.690  13.200 -0.2622  0.4444 -1.1991
68502SOL    HW217486   9.322   7.558  13.235 -0.2776  0.8150  0.2333
68503SOL     OW17487   9.706   1.433  11.497 -0.7110  0.0770  0.1130
68503SOL    HW117488   9.715   1.415  11.590 -0.7037  1.5131  0.4186
68503SOL    HW217489   9.631   1.380  11.469  0.5191 -1.9408  0.4450
68504SOL     OW17490   4.754  13.156  11.585 -0.1188  0.0146  0.2651
68504SOL    HW117491   4.739  13.066  11.613 -0.3863 -0.3009 -0.8148
68504SOL    HW217492   4.721  13.210  11.656  1.2862 -0.7341  1.5339
68505SOL     OW17493  10.275   5.046   3.489  0.9111  0.2974 -0.7287
68505SOL    HW117494  10.237   5.121   3.443 -1.1275  0.4502  1.0939
68505SOL    HW217495  10.292   5.077   3.578  0.5094 -1.2485 -0.0716
68506SOL     OW17496   0.836  13.081  12.707 -0.1490 -0.1515 -0.1476
68506SOL    HW117497   0.819  13.151  12.643  1.5438  0.1945 -0.2700
68506SOL    HW217498   0.915  13.038  12.675  0.9890  0.2879  1.9111
68507SOL     OW17499   9.484   4.528   1.827 -0.0185  0.4063  0.1535
68507SOL    HW117500   9.409   4.546   1.770 -0.4304  0.4563  0.7041
68507SOL    HW217501   9.557   4.515   1.767 -0.3335  1.0005 -0.3700
68508SOL     OW17502   5.084   9.121   2.775  0.3854 -0.3733  0.4766
68508SOL    HW117503   5.171   9.144   2.743  0.1126 -0.2649 -0.2223
68508SOL    HW217504   5.064   9.186   2.842  0.5801 -0.0070  0.1795
68509SOL     OW17505  10.499   9.420  13.143  0.5771 -0.6764  0.1651
68509SOL    HW117506  10.582   9.451  13.106  0.0921  0.4005 -0.0257
68509SOL    HW217507  10.484   9.336  13.098  1.1638 -0.5067 -0.3737
68510SOL     OW17508   4.816   5.714  11.081 -0.5665 -0.1796  0.2904
68510SOL    HW117509   4.898   5.724  11.032 -1.0025  1.3061 -0.1715
68510SOL    HW217510   4.751   5.689  11.015 -0.5034 -1.3744  0.6589
68511SOL     OW17511   9.659   3.526  13.929  0.0610 -0.0293  0.1600
68511SOL    HW117512   9.672   3.575  14.010 -0.5329 -0.4429  0.5088
68511SOL    HW217513   9.648   3.435  13.957  2.2816 -0.5757 -0.5617
68512SOL     OW17514   9.719   2.829   6.323 -0.2826  0.5013 -0.1834
68512SOL    HW117515   9.766   2.911   6.332 -0.6733  0.8852 -1.4144
68512SOL    HW217516   9.645   2.850   6.266  1.2716 -1.3268 -3.0771
68513SOL     OW17517   8.633   1.954   5.030 -0.4471 -0.0474 -0.2617
68513SOL    HW117518   8.611   2.031   4.978 -1.4532 -0.7425 -0.9311
68513SOL    HW217519   8.669   1.892   4.966 -0.3484 -0.3977  0.1278
68514SOL     OW17520   3.201  10.076   9.051  0.5890  0.7645 -0.6025
68514SOL    HW117521   3.290  10.041   9.062 -0.0854 -0.5518  1.1590
68514SOL    HW217522   3.145   9.998   9.049 -0.6560  1.6207 -0.3556
68515SOL     OW17523   3.579   7.593   7.066  0.0538 -0.6649  0.1283
68515SOL    HW117524   3.486   7.618   7.069 -0.1203 -1.3527  1.0156
68515SOL    HW217525   3.626   7.676   7.065 -0.5728 -0.3063  0.0163
68516SOL     OW17526  12.048   7.212   1.218  0.2120 -0.6393 -0.3841
68516SOL    HW117527  12.089   7.252   1.142 -0.5185  0.1667 -0.3687
68516SOL    HW217528  12.108   7.232   1.291 -0.4782  1.0995 -0.2384
68517SOL     OW17529  12.731   9.315   2.053 -0.1148  0.3659  0.5100
68517SOL    HW117530  12.734   9.290   2.146 -0.2588  0.0624  0.4341
68517SOL    HW217531  12.822   9.329   2.028  0.0740 -1.2482  0.2344
68518SOL     OW17532   7.061   0.091   7.084  0.0237  0.3011 -0.2970
68518SOL    HW117533   7.082   0.172   7.036 -2.9999  1.3142 -0.0830
68518SOL    HW217534   7.018   0.035   7.019 -2.6343  1.0439  0.6989
68519SOL     OW17535   0.044  13.343   6.958  0.1663  0.6210  0.3046
68519SOL    HW117536  -0.031  13.394   6.928  0.4955  1.5448  1.0010
68519SOL    HW217537   0.119  13.382   6.915  0.3285  0.1459  0.1517
68520SOL     OW17538   9.157   6.285  11.456  0.0903  0.1283 -0.5673
68520SOL    HW117539   9.153   6.189  11.460  2.0327  0.0200 -0.3627
68520SOL    HW217540   9.068   6.311  11.431 -1.0172 -1.6092  1.2214
68521SOL     OW17541   2.964   2.784   8.758 -0.0468 -0.0345  0.5569
68521SOL    HW117542   3.059   2.791   8.769 -0.0597  1.4684  0.0301
68521SOL    HW217543   2.928   2.859   8.807 -0.9051 -0.2218  0.2374
68522SOL     OW17544  11.719   7.092   8.474  0.0003 -0.0147 -0.3558
68522SOL    HW117545  11.803   7.069   8.434  0.3055  0.1316  0.1854
68522SOL    HW217546  11.654   7.059   8.413  0.4428 -0.8644 -0.3871
68523SOL     OW17547   0.187   6.908   6.353  0.3391 -0.2741  0.1468
68523SOL    HW117548   0.203   6.839   6.418 -0.5782  0.2500  0.9520
68523SOL    HW217549   0.274   6.944   6.335  0.4521  0.9717  2.7048
68524SOL     OW17550   7.074   4.185  10.774  0.8505  0.4092  0.0430
68524SOL    HW117551   7.149   4.181  10.715  1.5404  1.1988  0.8326
68524SOL    HW217552   7.075   4.101  10.820  1.6433  0.6618  0.5019
68525SOL     OW17553   9.416   0.719   8.380  0.4452  0.1717  0.8960
68525SOL    HW117554   9.328   0.697   8.351  0.1978  1.8086  0.3041
68525SOL    HW217555   9.444   0.644   8.432 -1.1262 -0.5555  0.7360
68526SOL     OW17556   4.381   6.951   5.997 -0.3509 -0.1186 -0.1125
68526SOL    HW117557   4.306   7.009   5.988  0.7351  1.2455 -0.6385
68526SOL    HW217558   4.401   6.923   5.908  0.3776  0.3181 -0.0880
68527SOL     OW17559   9.641   1.522  11.058  0.8640 -0.6860  0.5065
68527SOL    HW117560   9.671   1.456  11.120 -0.0826 -1.0530  0.5796
68527SOL    HW217561   9.653   1.605  11.104  0.6823 -0.9158  0.9700
68528SOL     OW17562   5.975   9.419  11.940  0.1105  0.2394 -0.7188
68528SOL    HW117563   6.043   9.373  11.988  0.5989  1.4605 -0.2058
68528SOL    HW217564   5.976   9.379  11.853 -0.8231 -2.0295  0.2557
68529SOL     OW17565   1.103   9.636   5.168  0.0130  0.0062 -0.3583
68529SOL    HW117566   1.030   9.575   5.168  0.7220 -0.9112  1.3062
68529SOL    HW217567   1.109   9.667   5.078 -2.3573  0.0631 -0.5494
68530SOL     OW17568  12.576   4.599  10.259  0.0322  0.0679  0.3270
68530SOL    HW117569  12.634   4.526  10.237  0.4476  0.1838  0.9982
68530SOL    HW217570  12.552   4.638  10.175  0.8089 -0.0789  0.0324
68531SOL     OW17571   8.075  12.297   2.429  0.2950  0.1913 -0.0386
68531SOL    HW117572   8.039  12.325   2.345 -0.0000  0.1308  0.0651
68531SOL    HW217573   8.106  12.378   2.470 -0.1687  0.3167  0.0772
68532SOL     OW17574  13.228   2.084  12.333 -0.2048 -0.6785 -0.1756
68532SOL    HW117575  13.195   1.995  12.343 -0.7924 -0.4550 -0.0889
68532SOL    HW217576  13.274   2.101  12.415  0.0569 -0.9639 -0.2623
68533SOL     OW17577   6.472   7.190   7.206 -0.0012 -0.8018 -0.0128
68533SOL    HW117578   6.468   7.273   7.159  0.5801 -0.6262  0.2341
68533SOL    HW217579   6.426   7.207   7.289 -0.2828 -0.8630 -0.1550
68534SOL     OW17580  10.902  11.624   9.814  0.2211  0.1209 -0.0244
68534SOL    HW117581  10.932  11.645   9.726  1.0902  0.6023  0.3798
68534SOL    HW217582  10.850  11.700   9.841 -1.0883 -0.5462 -0.5732
68535SOL     OW17583  10.785   2.381  10.587 -0.0399  0.0483  0.2768
68535SOL    HW117584  10.753   2.299  10.625 -0.5571 -0.3602 -1.0033
68535SOL    HW217585  10.710   2.418  10.541  1.0994 -0.7223 -2.4231
68536SOL     OW17586   0.926  11.648   9.175  0.2444 -0.3582 -1.0602
68536SOL    HW117587   0.998  11.608   9.223 -0.5629 -0.0667  0.4410
68536SOL    HW217588   0.962  11.663   9.087  1.8400 -0.6839 -0.5020
68537SOL     OW17589   8.920   6.856   9.570 -0.2305 -0.6473 -0.1944
68537SOL    HW117590   8.974   6.796   9.518 -1.4222 -1.2768 -0.7411
68537SOL    HW217591   8.917   6.816   9.657  0.1330 -0.6337 -0.1713
68538SOL     OW17592   3.823   3.907   4.098  0.1225 -0.4194 -0.4501
68538SOL    HW117593   3.743   3.902   4.151 -0.5853  0.5769 -1.3895
68538SOL    HW217594   3.879   3.968   4.146 -0.1259 -0.2581 -0.3629
68539SOL     OW17595   3.655  10.170   3.869 -0.1547 -0.0492 -0.0774
68539SOL    HW117596   3.562  10.183   3.886 -0.5489 -0.9265 -1.3896
68539SOL    HW217597   3.699  10.202   3.947 -1.5343  0.7512  0.3949
68540SOL     OW17598   5.016   0.617   3.193 -0.3108  0.3883 -0.1670
68540SOL    HW117599   4.977   0.556   3.131 -0.6307 -0.2808  0.6751
68540SOL    HW217600   5.030   0.566   3.272  1.9494  0.7204 -0.2994
68541SOL     OW17601   4.368   4.140   0.516 -0.4251  0.1524 -1.0051
68541SOL    HW117602   4.343   4.071   0.456 -0.1413 -1.4412  0.6188
68541SOL    HW217603   4.302   4.136   0.586  0.5700  0.3749 -0.0270
68542SOL     OW17604   7.034   3.959   2.702 -0.1629  0.2638  0.0610
68542SOL    HW117605   7.093   3.897   2.659 -0.1295  1.6874 -2.0770
68542SOL    HW217606   7.018   3.920   2.788 -0.4369 -2.8786 -1.2766
68543SOL     OW17607   5.829   1.672  11.707  0.4718  0.7080 -0.3375
68543SOL    HW117608   5.735   1.656  11.701  0.5253  0.2685 -0.1130
68543SOL    HW217609   5.869   1.589  11.678  0.7579 -0.4524  2.9549
68544SOL     OW17610   8.670   1.337   1.179  0.0230 -0.3143  0.1534
68544SOL    HW117611   8.748   1.362   1.228 -1.4378  1.2289  1.8468
68544SOL    HW217612   8.624   1.420   1.164 -2.3874 -1.3752  1.2317
68545SOL     OW17613   9.354   6.493  13.074 -0.3285  0.1727  0.2333
68545SOL    HW117614   9.372   6.413  13.124 -0.5677  0.8558  1.4583
68545SOL    HW217615   9.345   6.561  13.141  0.2388  1.3020 -0.8070
68546SOL     OW17616   4.977   6.219  11.714  0.1419  0.0939  0.8095
68546SOL    HW117617   4.971   6.283  11.786 -2.2256  1.3852 -0.4309
68546SOL    HW217618   5.014   6.269  11.642  0.0545 -0.4749  0.3711
68547SOL     OW17619   4.575   2.761   0.044 -0.7391 -0.0185  0.5530
68547SOL    HW117620   4.656   2.718   0.015 -2.0679 -3.6649  1.7122
68547SOL    HW217621   4.518   2.760  -0.033  0.1237  2.3704 -0.2059
68548SOL     OW17622   4.664  10.139   0.209  0.0685  0.2000 -0.3237
68548SOL    HW117623   4.666  10.202   0.137 -2.2731  0.6689 -0.0509
68548SOL    HW217624   4.730  10.171   0.271  0.3766  1.1894 -1.1370
68549SOL     OW17625  13.373   4.928  12.602 -0.7821  0.0235 -0.3024
68549SOL    HW117626  13.304   4.887  12.654 -2.1092  2.6458  0.1476
68549SOL    HW217627  13.408   4.997  12.658 -0.0857  0.9052 -1.7659
68550SOL     OW17628   4.964   3.539   8.093 -0.0539  0.0244  0.1288
68550SOL    HW117629   4.922   3.492   8.165 -2.2082  0.5434 -0.7257
68550SOL    HW217630   4.892   3.576   8.043  1.4669  3.8283  0.4074
68551SOL     OW17631   4.432   6.693  11.930 -0.2972 -0.2155 -0.3835
68551SOL    HW117632   4.503   6.753  11.905 -0.5817  0.2707 -0.0281
68551SOL    HW217633   4.415   6.713  12.022 -0.1844 -1.0631 -0.1686
68552SOL     OW17634   5.607   6.683  13.932 -0.0222 -0.2526 -0.0600
68552SOL    HW117635   5.528   6.654  13.886  0.0362 -2.2159  0.9562
68552SOL    HW217636   5.583   6.767  13.970 -1.8134 -1.0389  0.6517
68553SOL     OW17637   9.330   8.328   4.728 -0.0458 -0.5195  0.0469
68553SOL    HW117638   9.301   8.412   4.763  0.8067 -0.7032  1.2600
68553SOL    HW217639   9.355   8.278   4.805  1.3623 -1.1610 -0.8023
68554SOL     OW17640   5.566  13.333  10.567  0.1324 -0.3657  0.0245
68554SOL    HW117641   5.488  13.295  10.607 -0.7243  2.0058  0.7618
68554SOL    HW217642   5.545  13.336  10.473  0.2848 -1.7483 -0.0787
68555SOL     OW17643   4.791   0.448  12.527  0.0052  0.5218  0.7130
68555SOL    HW117644   4.822   0.536  12.506 -1.0594  0.7597  0.0696
68555SOL    HW217645   4.777   0.450  12.622 -0.9363  1.3724  0.5749
68556SOL     OW17646   3.087  10.350   5.391 -0.9666 -0.0384  0.2219
68556SOL    HW117647   3.117  10.433   5.429  0.6398 -0.8167  0.7390
68556SOL    HW217648   3.024  10.376   5.324 -0.8139  1.5812  0.6643
68557SOL     OW17649   0.503   1.179   2.111 -0.4362 -0.0830 -0.2500
68557SOL    HW117650   0.457   1.232   2.176  0.5602  0.2956  0.1660
68557SOL    HW217651   0.489   1.089   2.140 -1.2362 -0.0031 -0.3575
68558SOL     OW17652   5.682   5.829  10.465  0.1224  0.3847  0.3486
68558SOL    HW117653   5.748   5.898  10.471 -0.2050  0.5909  2.2496
68558SOL    HW217654   5.731   5.748  10.475  0.1164  0.5487  2.0689
68559SOL     OW17655   2.912  10.648   6.434 -0.6361 -0.4032  1.4621
68559SOL    HW117656   2.940  10.705   6.506 -2.4346  0.7551  1.3080
68559SOL    HW217657   2.925  10.701   6.356  0.3617 -1.2881  1.0109
68560SOL     OW17658   6.119  13.402   1.758 -0.2847  0.1487 -0.3101
68560SOL    HW117659   6.201  13.389   1.711  0.0749  1.0540  0.0499
68560SOL    HW217660   6.052  13.404   1.690  0.0069 -0.3967 -0.6219
68561SOL     OW17661  13.490   1.343   4.958 -0.1990 -0.5337 -0.7123
68561SOL    HW117662  13.545   1.278   4.914 -0.4653  0.4633 -2.6466
68561SOL    HW217663  13.548   1.386   5.020  0.6823 -0.8730 -1.2723
68562SOL     OW17664  13.425   1.955  13.841 -0.2868  0.0994  0.3374
68562SOL    HW117665  13.370   2.018  13.795 -0.0682 -1.3854 -2.1104
68562SOL    HW217666  13.510   1.998  13.849  0.0620 -0.0547 -1.9246
68563SOL     OW17667  13.711   6.014  12.592  0.0467  0.7758 -0.1243
68563SOL    HW117668  13.634   6.067  12.611  0.8316  0.7053  4.1981
68563SOL    HW217669  13.781   6.053  12.644  1.9451 -1.4894 -0.8154
68564SOL     OW17670   7.087  10.723  12.523 -0.0435  0.4155  0.0339
68564SOL    HW117671   7.082  10.812  12.487  0.3832  0.2431 -0.4673
68564SOL    HW217672   7.108  10.668  12.448 -0.9241 -0.2004  0.2360
68565SOL     OW17673   2.956   0.532  13.127 -0.4317 -0.0955  0.4767
68565SOL    HW117674   3.016   0.477  13.177 -0.1079 -0.3517 -0.1781
68565SOL    HW217675   2.871   0.487  13.133  0.0052 -1.1598 -0.7593
68566SOL     OW17676   2.366   6.007  11.429  0.2047 -0.0082  0.7193
68566SOL    HW117677   2.415   5.992  11.348  2.9644  0.1320  2.2683
68566SOL    HW217678   2.348   6.101  11.430 -2.4584 -0.3913 -1.0359
68567SOL     OW17679   7.330  13.649   6.903  0.3025  0.1677  0.7208
68567SOL    HW117680   7.240  13.633   6.875  0.9623 -2.7278 -0.0686
68567SOL    HW217681   7.322  13.691   6.989 -1.7943  0.4434  0.4239
68568SOL     OW17682  11.081   7.657   6.063 -0.0058 -0.1980 -0.0490
68568SOL    HW117683  11.130   7.614   6.133 -1.7397 -1.3333  0.5588
68568SOL    HW217684  11.118   7.622   5.982  0.3616 -0.8265  0.3834
68569SOL     OW17685   1.324   0.232   6.690  0.3172 -0.3993  0.0307
68569SOL    HW117686   1.367   0.298   6.635  0.2813 -0.0817  0.3788
68569SOL    HW217687   1.391   0.165   6.702  0.4908 -0.2333  0.0087
68570SOL     OW17688   3.772   7.834   4.877 -0.6371  0.1769  0.1661
68570SOL    HW117689   3.706   7.772   4.908  0.8003 -2.5228 -1.7454
68570SOL    HW217690   3.721   7.902   4.832 -2.2692  0.3122  2.0765
68571SOL     OW17691   8.710   5.895   6.593  0.5045  0.3265 -0.2750
68571SOL    HW117692   8.627   5.942   6.595  0.0202 -0.5058  1.3053
68571SOL    HW217693   8.733   5.888   6.500  0.4167  3.3012 -0.6043
68572SOL     OW17694   3.824   9.363   7.431  0.1032  0.2661  0.0359
68572SOL    HW117695   3.802   9.337   7.342  0.0800 -1.0288  0.3987
68572SOL    HW217696   3.897   9.424   7.421 -0.7911  1.2360 -0.9251
68573SOL     OW17697  13.496   9.928  10.505  0.7279  0.0698  0.3166
68573SOL    HW117698  13.448   9.974  10.573 -0.8457 -0.7437 -0.1819
68573SOL    HW217699  13.471   9.836  10.517  1.2411 -0.2128 -0.6997
68574SOL     OW17700   2.957  11.719  13.999  0.0769 -0.7386 -0.8304
68574SOL    HW117701   2.928  11.751  13.914 -0.1660 -0.1262 -0.5250
68574SOL    HW217702   2.893  11.755  14.061  0.3660 -1.0092 -0.3684
68575SOL     OW17703   1.272   4.978   7.200  0.3186  0.0242  0.3310
68575SOL    HW117704   1.244   4.972   7.291 -1.3844 -1.2063 -0.2126
68575SOL    HW217705   1.327   4.900   7.187  1.4321  0.7558  0.5610
68576SOL     OW17706   5.309   7.860   3.929 -0.1763  0.3854  0.0361
68576SOL    HW117707   5.334   7.917   4.002  0.4190 -0.6871  0.7022
68576SOL    HW217708   5.214   7.872   3.921 -0.0602  1.4859  0.1254
68577SOL     OW17709   0.892   1.282   0.355 -0.5846 -0.4425 -0.0001
68577SOL    HW117710   0.826   1.290   0.285 -1.0614 -1.1067  0.3592
68577SOL    HW217711   0.960   1.226   0.318  1.4716  2.8188 -1.5753
68578SOL     OW17712   9.589   9.300   2.333 -0.2127  0.3010 -0.4498
68578SOL    HW117713   9.538   9.297   2.252  0.8239  0.3951 -1.1280
68578SOL    HW217714   9.539   9.246   2.394 -0.6424 -0.3886 -1.3721
68579SOL     OW17715   7.280  10.582   7.852  0.3223 -0.0389 -0.1407
68579SOL    HW117716   7.259  10.675   7.848  0.4466  0.1982  2.5511
68579SOL    HW217717   7.201  10.538   7.820 -0.7322  0.9984  0.9354
68580SOL     OW17718  12.424   1.724   7.067  0.1400 -0.2923  0.2934
68580SOL    HW117719  12.389   1.689   6.985  2.3811  0.0929 -0.8903
68580SOL    HW217720  12.378   1.807   7.079 -0.5873 -0.6023 -0.2673
68581SOL     OW17721  14.031  13.565  12.879 -0.3973 -0.1731 -0.1874
68581SOL    HW117722  14.109  13.552  12.932 -0.4146 -1.2794 -0.3936
68581SOL    HW217723  13.959  13.566  12.942 -0.1683  1.6689  0.0796
68582SOL     OW17724  10.659   9.126  13.308  0.2035  0.1684 -0.3591
68582SOL    HW117725  10.691   9.078  13.231  2.1659  0.8657 -0.0271
68582SOL    HW217726  10.594   9.188  13.272 -1.3404 -1.6961 -0.9663
68583SOL     OW17727   1.744   0.142  11.111 -0.3856 -0.2435 -0.0899
68583SOL    HW117728   1.803   0.217  11.109 -1.8260  1.3836  4.5454
68583SOL    HW217729   1.672   0.166  11.052 -0.3651  1.6681  0.5875
68584SOL     OW17730   0.575   3.996   8.155 -0.1229 -0.0688 -0.4009
68584SOL    HW117731   0.608   4.062   8.216 -1.3495 -1.1419  1.5052
68584SOL    HW217732   0.482   4.016   8.147 -0.9626 -2.6001  1.7375
68585SOL     OW17733   5.992   7.683   1.950 -0.0369 -0.1481  0.1594
68585SOL    HW117734   6.034   7.769   1.938 -1.1044  0.6664  1.8992
68585SOL    HW217735   6.066   7.622   1.953  0.8163  0.8253 -0.1363
68586SOL     OW17736   6.218   0.518   0.433  0.1060  0.0740 -0.0679
68586SOL    HW117737   6.149   0.526   0.499  0.2409  1.7334 -0.0945
68586SOL    HW217738   6.224   0.605   0.394  1.1455 -0.4604 -1.1537
68587SOL     OW17739   2.498   9.532  12.363  0.0329  0.0988 -0.6006
68587SOL    HW117740   2.523   9.529  12.271  0.0229 -0.1263 -0.5952
68587SOL    HW217741   2.522   9.621  12.391 -1.4743  0.7426 -1.2458
68588SOL     OW17742  13.011   9.103   5.361  0.1929 -0.2581 -0.4691
68588SOL    HW117743  13.080   9.058   5.313  0.8967  0.5885 -0.2852
68588SOL    HW217744  13.033   9.090   5.454  0.6093  0.7282 -0.4127
68589SOL     OW17745  11.654   2.205   6.516  0.1632  0.3853 -0.1823
68589SOL    HW117746  11.623   2.181   6.603 -0.3384  0.8588 -0.2268
68589SOL    HW217747  11.681   2.296   6.525 -1.7095  1.0609 -0.9851
68590SOL     OW17748   3.783  10.669  11.707  0.0225 -0.2362  0.4598
68590SOL    HW117749   3.765  10.712  11.791 -0.3215  0.5213  0.0053
68590SOL    HW217750   3.726  10.713  11.645  1.6776  0.5799 -0.5514
68591SOL     OW17751   1.765   1.800   8.927 -0.5726  0.9674 -0.4714
68591SOL    HW117752   1.789   1.762   9.011 -2.0361 -0.0217 -0.4696
68591SOL    HW217753   1.722   1.883   8.950  0.5709  1.5516 -0.3615
68592SOL     OW17754   4.357  10.817   3.491 -0.1123  0.1275 -0.0488
68592SOL    HW117755   4.449  10.830   3.513 -0.1586 -1.9455  1.6673
68592SOL    HW217756   4.312  10.814   3.575 -1.5235 -0.3561 -0.7884
68593SOL     OW17757   6.114  11.090   5.005 -0.1521 -0.0506  0.0737
68593SOL    HW117758   6.045  11.146   5.040  0.0559 -0.4075  1.0943
68593SOL    HW217759   6.191  11.146   5.002  0.0820 -0.2777  1.1946
68594SOL     OW17760   9.242   5.014   5.473 -0.3681 -0.2125  0.4741
68594SOL    HW117761   9.299   4.950   5.430  0.5855  1.0359 -0.2041
68594SOL    HW217762   9.175   4.962   5.517  0.5034 -1.6673  0.1279
68595SOL     OW17763  12.193  13.131   7.693 -0.3372  0.2873 -0.2584
68595SOL    HW117764  12.117  13.120   7.635 -2.1587  1.8915  1.6566
68595SOL    HW217765  12.228  13.217   7.671 -0.6518  0.6318  0.5602
68596SOL     OW17766  14.043   9.777   2.094 -0.0194  0.0395 -0.4079
68596SOL    HW117767  13.998   9.833   2.031  0.0070 -0.2142 -0.6553
68596SOL    HW217768  14.102   9.836   2.141 -1.1529  0.5226  0.4600
68597SOL     OW17769  11.800   8.387  13.787 -0.6175 -0.3069  0.2343
68597SOL    HW117770  11.803   8.483  13.780  1.2684 -0.3062  0.5483
68597SOL    HW217771  11.828   8.369  13.877 -0.3395 -1.1745 -0.0183
68598SOL     OW17772   2.532  10.590   5.395  0.6876 -0.2691  0.0624
68598SOL    HW117773   2.623  10.581   5.425  0.4930 -1.7798  0.2859
68598SOL    HW217774   2.516  10.684   5.394  2.4063  0.0524 -0.4369
68599SOL     OW17775   7.521   3.894  13.991 -0.5994 -0.0109  0.4104
68599SOL    HW117776   7.571   3.865  13.914 -1.1623 -0.5550  0.2430
68599SOL    HW217777   7.447   3.834  13.996 -0.4500 -0.1299  1.5220
68600SOL     OW17778   9.851   2.835   9.225 -0.3512 -0.0469 -0.1634
68600SOL    HW117779   9.874   2.927   9.207 -1.1488  0.3396  0.6789
68600SOL    HW217780   9.822   2.801   9.141 -0.2426  0.5393 -0.4479
68601SOL     OW17781   5.678   6.815   7.365 -0.7803 -0.1782  0.1411
68601SOL    HW117782   5.713   6.834   7.452 -0.1822  0.9255 -0.3204
68601SOL    HW217783   5.684   6.720   7.357  0.1400 -0.1984  0.8983
68602SOL     OW17784   3.908   3.136  11.358 -0.4320 -0.1312 -0.3529
68602SOL    HW117785   3.823   3.165  11.324 -0.8897 -0.1689  0.7181
68602SOL    HW217786   3.965   3.136  11.281 -1.3571  0.0371 -1.0681
68603SOL     OW17787   7.232   2.254   8.524  0.0469 -0.1310 -0.2434
68603SOL    HW117788   7.327   2.253   8.517 -0.0496 -2.0856 -2.8322
68603SOL    HW217789   7.203   2.303   8.447 -1.1086  1.7888  1.3074
68604SOL     OW17790   9.901   7.066   9.463  0.8193 -0.0769 -0.1818
68604SOL    HW117791   9.813   7.043   9.493  0.7418 -0.4788 -0.7120
68604SOL    HW217792   9.887   7.123   9.388  1.0076 -0.6338 -0.6440
68605SOL     OW17793   6.596   9.861   5.886  0.2131  0.2195 -0.3491
68605SOL    HW117794   6.610   9.777   5.929 -0.9220 -0.6344 -1.5962
68605SOL    HW217795   6.606   9.843   5.793  1.7088  1.8472 -0.5563
68606SOL     OW17796   0.035   3.090   7.360  0.3585 -0.3983  0.3393
68606SOL    HW117797   0.122   3.072   7.324  0.0153 -1.2485 -0.1135
68606SOL    HW217798   0.048   3.093   7.455  0.8303 -0.8755  0.2949
68607SOL     OW17799  12.765   7.611  11.771 -0.3068  0.1610  0.3235
68607SOL    HW117800  12.689   7.600  11.714 -1.0667  0.9595  1.1366
68607SOL    HW217801  12.793   7.522  11.791 -1.0535 -0.1543  0.0317
68608SOL     OW17802   1.371   9.280   1.418 -0.5917 -0.4082 -0.3429
68608SOL    HW117803   1.391   9.287   1.325 -0.5439  1.6327 -0.2271
68608SOL    HW217804   1.455   9.295   1.462 -0.5196 -1.8391  0.0372
68609SOL     OW17805  11.225   0.440  11.129 -0.3736  0.1904 -0.5081
68609SOL    HW117806  11.145   0.394  11.154 -0.8790  0.4805 -1.5318
68609SOL    HW217807  11.211   0.530  11.159 -0.9758  0.5362 -1.7487
68610SOL     OW17808  10.394   2.202   5.546 -0.0102 -0.1957 -0.2202
68610SOL    HW117809  10.346   2.280   5.518  2.1076  1.5739  0.7650
68610SOL    HW217810  10.331   2.151   5.595 -1.5590  0.7041 -1.1812
68611SOL     OW17811  12.732   1.452   8.996 -0.2552 -0.6553  0.0581
68611SOL    HW117812  12.775   1.537   9.004  0.1643 -1.0277  2.9094
68611SOL    HW217813  12.651   1.461   9.047 -1.3030 -1.3765 -1.3875
68612SOL     OW17814   6.157  12.556   4.435  0.5386 -0.6716 -0.1530
68612SOL    HW117815   6.222  12.608   4.483  0.7790  0.7230 -1.8763
68612SOL    HW217816   6.207  12.483   4.399  0.5895 -1.0603  0.6715
68613SOL     OW17817   7.252   2.915   7.982  0.6014 -0.3557  0.1642
68613SOL    HW117818   7.270   2.849   8.048 -0.1992 -0.5216  0.2228
68613SOL    HW217819   7.240   2.996   8.032 -1.9409 -0.8177  0.4692
68614SOL     OW17820  13.474   4.647  11.283  0.5299 -0.4523  0.3520
68614SOL    HW117821  13.392   4.694  11.294  0.6663 -0.3777  1.0625
68614SOL    HW217822  13.464   4.601  11.199  1.1046  2.2987 -1.3565
68615SOL     OW17823   6.437  11.015   0.803 -0.4014 -0.1562  0.0469
68615SOL    HW117824   6.465  11.046   0.717  1.9840  1.4807  1.2848
68615SOL    HW217825   6.456  10.921   0.801 -0.1047 -0.0947 -1.1014
68616SOL     OW17826   6.311  13.433  10.562 -0.2291 -0.7029  0.2968
68616SOL    HW117827   6.398  13.401  10.538 -0.5576 -1.0901 -0.4023
68616SOL    HW217828   6.327  13.497  10.632  0.6464 -0.4819 -0.0962
68617SOL     OW17829  11.015  12.975   8.562  0.0775  0.0530  0.4432
68617SOL    HW117830  11.080  12.905   8.573 -0.8338 -0.8172  0.5126
68617SOL    HW217831  11.025  13.031   8.638  0.9359  0.0916  0.3068
68618SOL     OW17832  11.917  11.579   6.834 -0.1891  0.3986 -0.4708
68618SOL    HW117833  11.826  11.604   6.818 -0.7340 -1.4983 -0.7005
68618SOL    HW217834  11.958  11.657   6.869 -2.2273  0.9672  0.8618
68619SOL     OW17835   0.973   1.418   3.775 -0.0330  0.1702 -0.0097
68619SOL    HW117836   1.052   1.398   3.825  0.5374  2.1569 -0.0689
68619SOL    HW217837   0.921   1.474   3.832  0.2500  1.7986 -1.2793
68620SOL     OW17838  12.418   0.094   6.301 -0.3700  0.0028  0.0306
68620SOL    HW117839  12.391   0.040   6.375 -1.7144  0.0371 -0.3984
68620SOL    HW217840  12.378   0.051   6.225 -0.7956  1.1437 -0.4112
68621SOL     OW17841   8.584   1.434   0.750 -0.1448  0.0223  0.1031
68621SOL    HW117842   8.526   1.414   0.824 -0.8508  3.3971  0.5972
68621SOL    HW217843   8.639   1.356   0.742 -2.1455 -1.7441  2.1303
68622SOL     OW17844   2.717   0.666   9.744  0.3677 -0.4555  0.2728
68622SOL    HW117845   2.676   0.648   9.828 -0.1269  1.1511  0.4100
68622SOL    HW217846   2.652   0.718   9.695  1.7444  1.1853  0.0735
68623SOL     OW17847   7.670   1.362  11.941  1.3830  0.2451  0.1764
68623SOL    HW117848   7.631   1.379  12.027  0.9860  1.2152 -0.1856
68623SOL    HW217849   7.603   1.389  11.879  1.4246 -1.0305 -0.4522
68624SOL     OW17850   6.780   2.985   3.735 -0.9941  0.2239 -0.0275
68624SOL    HW117851   6.742   2.897   3.745  0.3392 -0.3855 -0.0773
68624SOL    HW217852   6.734   3.022   3.660 -1.6518 -0.3865  0.0594
68625SOL     OW17853   8.234   3.552   6.202  0.3045 -0.2666 -0.1681
68625SOL    HW117854   8.242   3.527   6.109  0.0036 -3.1468  0.4882
68625SOL    HW217855   8.239   3.647   6.201 -1.2164 -0.0889 -3.3054
68626SOL     OW17856   6.353   4.530   0.999 -0.0305  0.2450 -0.6362
68626SOL    HW117857   6.350   4.577   1.082  2.2188 -0.5807 -0.0091
68626SOL    HW217858   6.418   4.578   0.947 -0.7893  0.2491 -1.6104
68627SOL     OW17859   5.771   0.360   4.135 -0.0336 -0.3257 -0.1126
68627SOL    HW117860   5.785   0.321   4.049  2.7557  1.4930 -0.5944
68627SOL    HW217861   5.695   0.418   4.122 -0.4654 -1.0518 -0.9628
68628SOL     OW17862   2.852   2.131   1.896  0.1031  0.4229 -0.3923
68628SOL    HW117863   2.848   2.043   1.858 -0.3497 -0.1754  0.9714
68628SOL    HW217864   2.824   2.189   1.825  0.6480 -0.4864 -1.3979
68629SOL     OW17865   2.641   2.129   4.409 -0.3131  0.1991  0.7082
68629SOL    HW117866   2.576   2.194   4.437 -0.7272 -0.5047  1.4146
68629SOL    HW217867   2.591   2.048   4.402  0.4683 -0.3276  1.1672
68630SOL     OW17868   1.257   8.672  12.400  0.0404  0.0593 -0.2073
68630SOL    HW117869   1.256   8.754  12.350 -2.6389  1.5778  2.0179
68630SOL    HW217870   1.277   8.700  12.490 -2.8220 -1.3480  0.9854
68631SOL     OW17871  11.369  12.485   7.460 -0.0230 -0.4614 -0.0033
68631SOL    HW117872  11.457  12.460   7.432  0.0679 -0.3654  0.1947
68631SOL    HW217873  11.317  12.486   7.380  0.0916 -0.7825 -0.0831
68632SOL     OW17874   6.166   4.526   5.354  0.3254 -0.4218  0.2095
68632SOL    HW117875   6.202   4.614   5.346 -0.3776 -0.1541 -0.0965
68632SOL    HW217876   6.094   4.524   5.291  0.4803 -1.2933  0.0430
68633SOL     OW17877  12.093  11.934  13.643 -0.0671 -0.2700  0.0800
68633SOL    HW117878  12.126  11.858  13.595  0.8884  0.0847  0.1532
68633SOL    HW217879  12.058  11.992  13.575 -0.4369 -0.5930 -0.0097
68634SOL     OW17880  10.797  10.809   1.284 -0.2231 -0.3590  0.2330
68634SOL    HW117881  10.787  10.904   1.284  0.7056 -0.2148 -1.6793
68634SOL    HW217882  10.892  10.795   1.282 -0.3681 -1.2863 -0.9351
68635SOL     OW17883   9.039   7.108   6.877 -0.4845  0.1403 -0.1372
68635SOL    HW117884   9.119   7.091   6.828 -0.3475 -0.3861  0.2586
68635SOL    HW217885   9.044   7.200   6.901 -0.4639  0.3543 -0.9465
68636SOL     OW17886  12.955   7.654   9.530 -0.2257  0.0032  0.4152
68636SOL    HW117887  12.907   7.729   9.495 -2.3393  0.4997  3.9167
68636SOL    HW217888  13.011   7.690   9.598  0.1021 -1.3765  0.9152
68637SOL     OW17889   3.702  11.589   2.585  0.5018  0.1012 -0.3789
68637SOL    HW117890   3.730  11.526   2.651  1.7496  0.4331 -0.5673
68637SOL    HW217891   3.633  11.640   2.628  1.9737  0.9853  1.0495
68638SOL     OW17892   8.261  12.068  12.103 -0.2323 -0.9789  0.3776
68638SOL    HW117893   8.316  12.060  12.025 -1.4752  2.4913 -1.0530
68638SOL    HW217894   8.172  12.055  12.072 -0.6851 -0.3632  1.3526
68639SOL     OW17895  12.451   2.115   4.081  0.3867 -0.0124 -0.1807
68639SOL    HW117896  12.438   2.027   4.116 -3.4344  0.5355  0.1379
68639SOL    HW217897  12.544   2.133   4.097  0.7496 -2.9905  1.9875
68640SOL     OW17898  12.546  11.327  10.759  0.2787  0.2261 -0.5370
68640SOL    HW117899  12.549  11.350  10.666 -1.1089  0.9731 -0.4342
68640SOL    HW217900  12.455  11.300  10.774 -0.0595  1.9705  0.9890
68641SOL     OW17901  10.051   5.646  13.802  0.3312  0.5842  0.3264
68641SOL    HW117902  10.097   5.575  13.758 -0.0269 -0.3486  1.4104
68641SOL    HW217903  10.027   5.707  13.731  1.7355  0.2710 -0.4562
68642SOL     OW17904   2.107  13.329   5.867  0.2096  0.0113  0.0856
68642SOL    HW117905   2.067  13.416   5.873 -2.2526 -1.0459  0.3742
68642SOL    HW217906   2.167  13.325   5.942 -1.8618  0.4792  1.8796
68643SOL     OW17907   5.050   3.041   4.474 -0.0182 -0.5822 -0.0837
68643SOL    HW117908   5.013   2.966   4.521  0.5209 -0.7011  0.1602
68643SOL    HW217909   5.025   3.117   4.527 -1.5981 -0.4469 -0.9582
68644SOL     OW17910   3.577  13.186   3.505 -0.0243  0.0114  0.6582
68644SOL    HW117911   3.561  13.170   3.598  0.7557 -0.4033  0.7234
68644SOL    HW217912   3.623  13.270   3.503 -1.9617  1.1197  0.4821
68645SOL     OW17913   6.653   9.157   8.817  0.2883  0.6101 -0.4000
68645SOL    HW117914   6.658   9.247   8.849 -0.2136  1.0604 -1.5462
68645SOL    HW217915   6.641   9.165   8.722 -0.0551 -0.6572 -0.4897
68646SOL     OW17916   7.860   9.727  10.575  0.6728  0.6343 -0.4202
68646SOL    HW117917   7.943   9.698  10.613  0.1989  0.0522  0.2099
68646SOL    HW217918   7.822   9.785  10.641 -0.7242 -1.3380  0.6022
68647SOL     OW17919   7.538   8.499   5.299  0.2062  0.1875  0.3009
68647SOL    HW117920   7.464   8.468   5.351 -0.7837  1.8851 -0.0387
68647SOL    HW217921   7.601   8.530   5.364  0.3969 -0.7331  0.5724
68648SOL     OW17922   1.103   3.163   4.651 -0.1771  0.1102 -0.0882
68648SOL    HW117923   1.133   3.077   4.619 -2.7505 -0.6266 -0.7529
68648SOL    HW217924   1.010   3.166   4.629 -0.7207  2.1244  2.0513
68649SOL     OW17925   0.613   9.625  11.039 -0.2585 -0.4029 -0.1901
68649SOL    HW117926   0.673   9.700  11.040 -2.1595  1.1881  0.1549
68649SOL    HW217927   0.656   9.562  10.981  0.9993  1.3098 -1.2299
68650SOL     OW17928   3.289   0.162   7.204  0.2995  0.1572 -0.0051
68650SOL    HW117929   3.252   0.201   7.124 -1.6494 -0.5770  0.4673
68650SOL    HW217930   3.375   0.201   7.212 -0.1412  1.5765 -1.5259
68651SOL     OW17931  11.759   4.348   6.501 -0.0550 -0.0285  0.1882
68651SOL    HW117932  11.690   4.396   6.546 -0.1126 -1.0885  1.2821
68651SOL    HW217933  11.834   4.351   6.561  0.9011  1.1867 -1.0250
68652SOL     OW17934   8.402   5.199   0.643  0.3755 -0.5946 -0.2159
68652SOL    HW117935   8.451   5.168   0.719 -0.5125 -0.6702  0.3461
68652SOL    HW217936   8.356   5.122   0.611 -1.0469 -0.1106  0.5705
68653SOL     OW17937   5.637   0.801  12.904 -0.2050 -0.0737  0.0005
68653SOL    HW117938   5.609   0.783  12.814  0.8988  1.8377 -0.7875
68653SOL    HW217939   5.580   0.747  12.958  1.4036 -4.0854 -1.9312
68654SOL     OW17940  10.138  11.220   6.383  0.7969 -0.4429 -0.0631
68654SOL    HW117941  10.213  11.276   6.364  1.8593 -2.0575 -0.8830
68654SOL    HW217942  10.128  11.166   6.304 -1.4296 -0.0971 -0.0939
68655SOL     OW17943  11.558  11.114  13.130  0.1540 -0.2200 -0.1615
68655SOL    HW117944  11.549  11.175  13.057 -0.0066 -0.9757 -0.7775
68655SOL    HW217945  11.541  11.168  13.208  0.7518  0.6767 -0.6418
68656SOL     OW17946  13.974   0.635   5.906  0.0292 -0.2533  0.4412
68656SOL    HW117947  13.883   0.662   5.919  0.4333  0.5696  1.8959
68656SOL    HW217948  13.995   0.584   5.984  0.8467 -0.3290  0.1849
68657SOL     OW17949   5.155   5.341   8.715  0.3588 -0.2363  0.2845
68657SOL    HW117950   5.156   5.283   8.638  1.8050  0.8329 -0.5551
68657SOL    HW217951   5.081   5.310   8.767 -1.6851 -0.0453 -2.2673
68658SOL     OW17952   2.150   5.494   8.183  0.1506  0.2140  0.1496
68658SOL    HW117953   2.172   5.587   8.173  1.1287  0.1390  1.3372
68658SOL    HW217954   2.056   5.493   8.196  0.1886  1.0982  0.5779
68659SOL     OW17955   1.246   2.001   3.775  0.5477  0.0802 -0.1895
68659SOL    HW117956   1.214   2.090   3.789 -0.0117  0.0861 -1.3548
68659SOL    HW217957   1.320   1.992   3.834  1.4617  1.7977 -1.0124
68660SOL     OW17958  10.932   6.013   9.865  0.1735 -0.0920 -0.0614
68660SOL    HW117959  10.961   6.104   9.870 -2.2563  0.7615 -0.2015
68660SOL    HW217960  10.915   5.988   9.955  3.4731 -1.4595  0.3387
68661SOL     OW17961  13.594   2.855   1.365 -0.2145  0.3352  0.4005
68661SOL    HW117962  13.661   2.836   1.300 -1.7386 -2.4722 -0.4932
68661SOL    HW217963  13.511   2.835   1.321 -1.6409  2.6687  1.7968
68662SOL     OW17964   3.286   8.018   6.256  0.0553  0.1987  0.2455
68662SOL    HW117965   3.270   8.040   6.348 -0.4672  0.9570 -0.0270
68662SOL    HW217966   3.253   8.092   6.206 -3.0257 -1.6791 -0.7876
68663SOL     OW17967  12.489   8.774   3.499  0.0179 -0.2659 -0.7150
68663SOL    HW117968  12.404   8.819   3.500  0.0979 -0.1187  0.6600
68663SOL    HW217969  12.482   8.707   3.567  0.8481 -0.5514 -0.9039
68664SOL     OW17970  11.983  13.710   0.613  0.4976  0.2989  0.1575
68664SOL    HW117971  12.035  13.684   0.536  1.0208 -1.1235  0.9546
68664SOL    HW217972  11.914  13.645   0.619  0.0029  0.8417  0.4637
68665SOL     OW17973   9.070   0.488   0.816  0.2827 -0.2848 -0.2450
68665SOL    HW117974   9.112   0.415   0.862 -0.0171  0.2977  0.9998
68665SOL    HW217975   9.030   0.541   0.886  0.0594  0.7939 -1.1556
68666SOL     OW17976  10.986  10.788   0.260 -0.0565  0.2237  0.7170
68666SOL    HW117977  10.991  10.712   0.201 -0.1851  1.0776 -0.4435
68666SOL    HW217978  10.933  10.852   0.211  0.2747  1.1547  1.5560
68667SOL     OW17979  11.865  11.814   1.585 -0.0397 -0.5708 -0.6152
68667SOL    HW117980  11.774  11.785   1.579 -0.2232 -0.4441  1.0455
68667SOL    HW217981  11.903  11.793   1.500 -2.3491  2.0278 -2.4631
68668SOL     OW17982   8.509   4.407   5.931  0.2927  0.2066 -0.5475
68668SOL    HW117983   8.515   4.442   6.020  2.0073  0.8176 -0.8738
68668SOL    HW217984   8.577   4.340   5.927  0.6040  0.5710 -1.5707
68669SOL     OW17985  12.420   2.132   9.979  0.0536  0.0498  0.3854
68669SOL    HW117986  12.513   2.153   9.966  0.3056 -1.8382 -1.3680
68669SOL    HW217987  12.409   2.134  10.074  2.7240 -2.7225  0.9213
68670SOL     OW17988  13.555   5.495   6.459 -0.4249 -0.2751 -0.1388
68670SOL    HW117989  13.636   5.499   6.510  0.0190  0.4591 -0.8851
68670SOL    HW217990  13.544   5.584   6.425 -2.3931  0.0631  1.2385
68671SOL     OW17991   0.948   5.622   0.997  0.0623  0.0084  0.7148
68671SOL    HW117992   0.949   5.675   0.918 -0.2947  0.0180  0.7159
68671SOL    HW217993   0.986   5.678   1.065  1.6554 -0.4679  0.2594
68672SOL     OW17994  12.769   1.304   6.016 -0.3835 -0.4180 -0.5466
68672SOL    HW117995  12.759   1.217   6.054 -0.3553 -0.6971 -1.1630
68672SOL    HW217996  12.769   1.289   5.921  1.1346  0.0686 -0.6642
68673SOL     OW17997  10.804   9.086  13.067  0.0072  0.3423 -0.0244
68673SOL    HW117998  10.879   9.134  13.103  0.0402  1.1075 -1.0453
68673SOL    HW217999  10.827   8.994  13.077  0.6590  0.5617  0.5548
68674SOL     OW18000   0.099  10.055  10.842 -0.2911  0.6655  0.2234
68674SOL    HW118001   0.033  10.061  10.911 -0.8089  0.6933 -0.2714
68674SOL    HW218002   0.081  10.129  10.784 -0.7618 -0.1644 -0.7208
68675SOL     OW18003   2.664  12.410   1.319  0.1705 -0.4759  0.6469
68675SOL    HW118004   2.594  12.344   1.316  0.0129 -0.3612 -2.8794
68675SOL    HW218005   2.617  12.494   1.319  0.2878 -0.4032 -0.0907
68676SOL     OW18006   0.660  11.883   4.518 -0.2910 -0.0370  0.2057
68676SOL    HW118007   0.616  11.918   4.441  2.9551 -0.5942 -2.1375
68676SOL    HW218008   0.658  11.788   4.507 -0.0964 -0.1441  1.0196
68677SOL     OW18009  10.814  12.227   4.338  0.9776 -0.4484 -0.1676
68677SOL    HW118010  10.800  12.136   4.361  2.9830 -1.2822 -1.8868
68677SOL    HW218011  10.778  12.235   4.249  0.4106  0.5544  0.1402
68678SOL     OW18012   0.788  11.603   3.011 -0.3622  0.1567  0.8021
68678SOL    HW118013   0.857  11.540   3.032 -1.5078 -0.4581  2.9576
68678SOL    HW218014   0.827  11.689   3.029  0.2628 -0.0972  0.6857
68679SOL     OW18015   8.605   1.388  11.112  0.5332  0.3862 -0.4124
68679SOL    HW118016   8.695   1.356  11.121  0.6595  0.2274 -2.0859
68679SOL    HW218017   8.611   1.463  11.054 -0.3293  0.8224  0.0409
68680SOL     OW18018   2.647  12.873   1.923  0.1470 -0.0159 -0.5784
68680SOL    HW118019   2.596  12.794   1.903 -1.8652  1.1327 -0.2856
68680SOL    HW218020   2.697  12.890   1.843 -2.4706  0.6033 -2.2279
68681SOL     OW18021  12.455   0.803  11.144 -0.2507 -0.2378 -0.0170
68681SOL    HW118022  12.418   0.867  11.083  1.0938  1.6863  1.0724
68681SOL    HW218023  12.379   0.766  11.190 -1.0533  0.7510 -0.5313
68682SOL     OW18024  10.701   1.005   6.539 -0.2046  0.2947  0.3488
68682SOL    HW118025  10.714   1.099   6.530  1.0717  0.0906 -0.1583
68682SOL    HW218026  10.748   0.981   6.619  0.5760 -0.1066 -0.2223
68683SOL     OW18027   4.021   3.733   6.225  0.2048  0.3073  0.1719
68683SOL    HW118028   4.052   3.643   6.237  0.5154  0.2721 -0.8521
68683SOL    HW218029   4.097   3.787   6.247  0.5019  0.2683 -0.7373
68684SOL     OW18030   2.520   1.180  13.038 -0.0809  0.5257  0.4484
68684SOL    HW118031   2.485   1.158  12.952  1.3461  0.2629 -0.0906
68684SOL    HW218032   2.530   1.095  13.082  1.1117  0.4452  0.0775
68685SOL     OW18033   2.774  10.004  10.263 -0.2726 -0.1740 -0.1602
68685SOL    HW118034   2.833   9.937  10.298  1.4899  2.0805  1.4667
68685SOL    HW218035   2.822  10.042  10.189 -1.6542 -1.2369 -1.6646
68686SOL     OW18036   3.806  11.023   7.905 -0.5146  1.0298 -0.0161
68686SOL    HW118037   3.721  11.029   7.862 -0.2876  1.9233 -0.3727
68686SOL    HW218038   3.829  11.114   7.925 -0.0984  0.7270  0.9859
68687SOL     OW18039   8.768   2.496   4.558  0.3220  0.2310 -0.0635
68687SOL    HW118040   8.711   2.421   4.542  0.3472  0.1357  0.2835
68687SOL    HW218041   8.793   2.488   4.650 -1.6907  2.0557  0.7325
68688SOL     OW18042   7.263   2.184   0.399  0.1233  0.0876  0.7605
68688SOL    HW118043   7.312   2.112   0.362  1.1369  0.6673  0.9312
68688SOL    HW218044   7.276   2.257   0.338 -0.6674  0.2034  0.7196
68689SOL     OW18045   1.012  12.910   2.279 -0.2045  0.0209 -0.1584
68689SOL    HW118046   1.058  12.827   2.267 -0.1249  0.0741 -0.2160
68689SOL    HW218047   1.078  12.971   2.311  0.3656  0.7876 -2.6523
68690SOL     OW18048   2.841   4.331   6.657 -0.4524  0.3416 -0.4232
68690SOL    HW118049   2.861   4.284   6.576  1.3307  0.8141 -0.2993
68690SOL    HW218050   2.793   4.269   6.711  0.9355 -1.0019 -0.6770
68691SOL     OW18051   2.797   5.293   7.172 -0.5273 -1.0558  0.6718
68691SOL    HW118052   2.864   5.272   7.237 -0.6277  1.0067  1.5079
68691SOL    HW218053   2.831   5.370   7.126 -1.8624 -0.5876  0.4108
68692SOL     OW18054  11.747   3.407   2.287  0.2181 -0.3476 -0.5140
68692SOL    HW118055  11.778   3.401   2.197 -0.7022  1.0948 -0.9724
68692SOL    HW218056  11.652   3.417   2.279  0.2528  1.1568  0.5190
68693SOL     OW18057   3.304   9.621   8.730 -0.2357  0.6331  0.0475
68693SOL    HW118058   3.261   9.586   8.808 -0.7595 -0.1131 -0.5469
68693SOL    HW218059   3.330   9.543   8.681 -0.1452  1.0900 -0.6427
68694SOL     OW18060   6.876   7.828   6.324  0.3975  0.4282  0.5166
68694SOL    HW118061   6.783   7.848   6.330  0.4159  0.3106  1.4088
68694SOL    HW218062   6.882   7.761   6.256 -0.0331  1.1762 -0.2778
68695SOL     OW18063   3.867   1.525   1.769 -0.5488 -0.1021  0.2240
68695SOL    HW118064   3.931   1.530   1.698  0.5277 -0.5907  1.1430
68695SOL    HW218065   3.798   1.467   1.735 -0.3111  0.0876 -0.6059
68696SOL     OW18066   7.895  11.538  12.516  0.0499  0.2675 -0.2109
68696SOL    HW118067   7.902  11.568  12.426 -0.9643  1.5395  0.0992
68696SOL    HW218068   7.810  11.493  12.520 -0.9574  2.1360  0.5846
68697SOL     OW18069   2.374  12.115   7.251  0.1136  0.3939 -0.1152
68697SOL    HW118070   2.442  12.108   7.317  0.3062 -1.8992 -0.4581
68697SOL    HW218071   2.421  12.133   7.169  0.2316 -0.2216 -0.1879
68698SOL     OW18072  10.850  13.824   8.764 -0.1149  0.0144 -0.1364
68698SOL    HW118073  10.898  13.864   8.692  0.9651 -0.4450  0.3134
68698SOL    HW218074  10.916  13.807   8.831 -1.0062 -0.0863  0.7439
68699SOL     OW18075  11.773  12.115  10.745 -0.5115 -0.1379 -0.3254
68699SOL    HW118076  11.817  12.165  10.676 -1.1403  3.3857  1.6324
68699SOL    HW218077  11.840  12.104  10.813 -0.7224 -1.0609 -0.2442
68700SOL     OW18078  12.087   8.131  10.176 -0.5576 -0.2822 -0.2711
68700SOL    HW118079  12.035   8.073  10.232 -1.8492  0.2708 -0.8327
68700SOL    HW218080  12.026   8.201  10.152  0.3066  0.1137 -1.4033
68701SOL     OW18081   5.421   0.350   4.389 -0.5436 -0.1649 -0.4365
68701SOL    HW118082   5.507   0.392   4.384 -0.1543 -1.0341 -1.6742
68701SOL    HW218083   5.382   0.365   4.303 -0.7553 -1.5471 -0.6105
68702SOL     OW18084   8.775  12.621  12.224 -0.1137 -0.2135  0.3033
68702SOL    HW118085   8.868  12.614  12.200  0.1346  0.4543  1.0142
68702SOL    HW218086   8.753  12.713  12.207 -0.2197  0.0124  1.5101
68703SOL     OW18087   8.003   1.803   7.257  0.1559  0.2047 -0.6916
68703SOL    HW118088   8.057   1.775   7.183 -0.0063  0.5884 -0.9606
68703SOL    HW218089   8.015   1.898   7.260  0.3997  0.1558 -0.0312
68704SOL     OW18090   2.511   3.187   8.107  0.1663  0.3978 -0.1672
68704SOL    HW118091   2.553   3.264   8.147 -1.2645  1.2700 -0.2591
68704SOL    HW218092   2.435   3.223   8.061 -1.0805 -1.1772  0.5718
68705SOL     OW18093   4.364  10.516   5.924 -0.1150 -0.2965  0.1060
68705SOL    HW118094   4.364  10.607   5.956  2.7453  0.1846 -0.9797
68705SOL    HW218095   4.281  10.507   5.878 -0.6334  1.6602  0.5516
68706SOL     OW18096   6.215   2.080   0.094 -0.5456  0.5200  0.0210
68706SOL    HW118097   6.169   2.065   0.011  1.2967  0.4583 -1.0454
68706SOL    HW218098   6.188   2.168   0.121 -0.3027  1.0150 -1.2633
68707SOL     OW18099   0.559   1.447  12.366 -0.5002  0.3874  0.5911
68707SOL    HW118100   0.506   1.459  12.445 -0.0002 -0.8095  1.1348
68707SOL    HW218101   0.533   1.519  12.308 -0.7089  1.4188  1.9242
68708SOL     OW18102   7.944  12.282   5.225 -0.4548 -0.0981 -0.1685
68708SOL    HW118103   8.020  12.317   5.178 -0.4869 -0.0449 -0.1796
68708SOL    HW218104   7.878  12.268   5.157 -1.1419  1.6603  0.1011
68709SOL     OW18105   4.499  11.680   3.065 -0.0720  0.0173  0.6994
68709SOL    HW118106   4.519  11.638   3.148 -0.9800 -0.6591  0.5968
68709SOL    HW218107   4.462  11.609   3.011 -0.3633  0.6532  0.0475
68710SOL     OW18108  13.817   4.484   0.803 -0.0751 -0.0434 -0.4482
68710SOL    HW118109  13.812   4.554   0.867 -1.6225 -0.7600  0.2716
68710SOL    HW218110  13.886   4.426   0.835  0.3353  0.4835 -0.3717
68711SOL     OW18111  13.237  11.741  13.623  0.1182 -0.0070  0.5430
68711SOL    HW118112  13.300  11.695  13.568  0.7580  1.1834  0.2597
68711SOL    HW218113  13.192  11.802  13.564 -0.4033  0.0661  1.0029
68712SOL     OW18114  13.820   6.538   1.287  0.0290 -0.5978 -0.1383
68712SOL    HW118115  13.734   6.528   1.328  0.3478 -1.6735  0.3149
68712SOL    HW218116  13.818   6.625   1.247 -1.2121 -0.5512 -0.0105
68713SOL     OW18117   9.585   0.519   8.043  0.0681 -0.3334  0.5298
68713SOL    HW118118   9.588   0.493   8.136  1.1466  0.3557  0.7028
68713SOL    HW218119   9.667   0.567   8.029  0.7313 -1.8890 -1.2348
68714SOL     OW18120   4.186  13.717  10.993  0.1660 -0.2395  0.6894
68714SOL    HW118121   4.280  13.728  10.973  0.5531 -1.0023  1.9821
68714SOL    HW218122   4.179  13.626  11.023 -1.1813 -0.5085 -0.3618
68715SOL     OW18123   0.087   1.190   3.144  0.1078  0.1046 -0.2924
68715SOL    HW118124   0.167   1.197   3.091 -0.5533 -0.2461 -1.3652
68715SOL    HW218125   0.118   1.193   3.234  1.2299  1.1817 -0.6839
68716SOL     OW18126   4.853   0.116   9.579 -0.2133  0.1446 -0.0422
68716SOL    HW118127   4.938   0.150   9.607 -0.4891  0.3340  0.5804
68716SOL    HW218128   4.813   0.188   9.531 -0.3382  0.3283  0.3305
68717SOL     OW18129  12.903   9.816   6.922  0.4217 -0.5002  0.2783
68717SOL    HW118130  12.977   9.876   6.928  0.4545 -0.6758  2.3614
68717SOL    HW218131  12.932   9.747   6.863  2.0761 -0.7726  1.3683
68718SOL     OW18132   5.230  13.483   1.053  0.6282 -0.4526 -0.2143
68718SOL    HW118133   5.218  13.391   1.029 -0.5673 -0.6597  1.0730
68718SOL    HW218134   5.144  13.512   1.083  0.6528  1.4997 -1.8441
68719SOL     OW18135   4.946  13.929   7.450  0.1765 -0.4361 -0.4946
68719SOL    HW118136   5.014  13.953   7.387  0.1902 -0.9882 -0.7011
68719SOL    HW218137   4.896  13.860   7.406  0.5686 -1.2776  0.3338
68720SOL     OW18138   1.610   2.122   9.363 -0.6574 -0.2397 -0.6074
68720SOL    HW118139   1.690   2.084   9.328  0.5103  2.0835 -0.6617
68720SOL    HW218140   1.605   2.209   9.323 -2.5907  0.1330  0.3078
68721SOL     OW18141   1.175  13.163   1.610 -0.7465 -0.3098  0.1488
68721SOL    HW118142   1.245  13.227   1.621 -0.1313 -0.5230 -2.1598
68721SOL    HW218143   1.154  13.165   1.517 -0.6422 -3.5004 -0.0606
68722SOL     OW18144   9.860   0.259   0.791 -0.2455  0.3040  0.2685
68722SOL    HW118145   9.916   0.262   0.713  1.8320  1.5656  1.7205
68722SOL    HW218146   9.843   0.351   0.811 -0.6879 -0.0048  1.3652
68723SOL     OW18147   7.399  13.110   9.891  0.4495 -0.1154 -0.3647
68723SOL    HW118148   7.345  13.133   9.966  0.6335  0.3913 -0.3786
68723SOL    HW218149   7.450  13.034   9.919  0.1829 -0.2084 -0.1379
68724SOL     OW18150   5.798   0.237   7.263 -1.1185 -0.0821 -0.3867
68724SOL    HW118151   5.842   0.240   7.347 -1.9377  0.7808  0.0282
68724SOL    HW218152   5.854   0.288   7.204 -0.2292 -1.1983 -0.5410
68725SOL     OW18153   6.656   5.388   4.329 -0.3244 -0.1738 -1.4219
68725SOL    HW118154   6.574   5.430   4.355  0.4630  1.1920 -0.9931
68725SOL    HW218155   6.651   5.300   4.366 -0.4408  0.7911  1.0615
68726SOL     OW18156  14.006  12.896   6.518 -0.6911  0.2232  0.2527
68726SOL    HW118157  14.002  12.811   6.561  0.8439  0.6586  1.3541
68726SOL    HW218158  13.918  12.931   6.527 -0.2521  0.8261  4.3673
68727SOL     OW18159  11.528   3.003   1.770  0.2312  0.2633 -0.3551
68727SOL    HW118160  11.518   3.007   1.865 -1.8264  0.8951 -0.5573
68727SOL    HW218161  11.553   3.092   1.745  1.9843 -0.1849 -0.3289
68728SOL     OW18162  11.532   3.834  13.098  0.0833  0.9467  0.5654
68728SOL    HW118163  11.493   3.921  13.090  0.5206  0.9633 -2.6182
68728SOL    HW218164  11.466   3.774  13.063  0.6781  0.2709  0.5798
68729SOL     OW18165   8.747   1.588   8.931 -0.1855  0.0053 -0.1026
68729SOL    HW118166   8.656   1.611   8.952 -0.0406 -0.5859  1.2977
68729SOL    HW218167   8.743   1.494   8.911 -0.2278  0.4386 -2.3713
68730SOL     OW18168   7.885   9.423   7.246 -0.2208  0.6141 -0.1862
68730SOL    HW118169   7.929   9.366   7.310  0.7271  1.3963 -0.1269
68730SOL    HW218170   7.836   9.362   7.190 -0.5374 -0.1324  0.8694
68731SOL     OW18171  14.023   6.580   5.552 -0.3023 -0.2894  0.5827
68731SOL    HW118172  14.062   6.525   5.484 -0.7576 -0.0865  0.1494
68731SOL    HW218173  14.023   6.525   5.630  0.8599 -0.2827  0.5998
68732SOL     OW18174   9.568   8.901   5.805 -0.3022  0.4410 -0.8351
68732SOL    HW118175   9.508   8.974   5.788 -0.1157  0.5375 -1.0944
68732SOL    HW218176   9.548   8.837   5.736 -0.7096  0.0908 -0.3958
68733SOL     OW18177   4.353   9.732   6.387  0.3209 -0.1256 -0.5173
68733SOL    HW118178   4.432   9.784   6.375  0.2451 -0.4179 -2.7299
68733SOL    HW218179   4.281   9.791   6.366  0.0318 -0.2535  0.0896
68734SOL     OW18180  11.254  12.335   5.163 -0.0024 -0.4087  0.2919
68734SOL    HW118181  11.252  12.372   5.251  0.0856 -0.2929  0.2464
68734SOL    HW218182  11.326  12.272   5.164 -0.8061 -1.3437  0.6655
68735SOL     OW18183   9.280   1.234   4.039  0.3106  0.2288 -0.1955
68735SOL    HW118184   9.251   1.319   4.071  0.6765  0.0512  0.6362
68735SOL    HW218185   9.212   1.173   4.067  0.1755  0.2054 -0.5688
68736SOL     OW18186  11.560   7.425  13.490  0.4331  0.1576  0.4494
68736SOL    HW118187  11.585   7.347  13.441 -0.8312  0.4655 -0.7528
68736SOL    HW218188  11.618   7.494  13.456  0.1142  0.1909 -0.0377
68737SOL     OW18189  10.565   3.735   8.456 -0.1128  0.4625  0.2370
68737SOL    HW118190  10.519   3.669   8.404  1.4153 -0.1140 -0.4242
68737SOL    HW218191  10.555   3.705   8.546  0.0431 -0.3490 -0.0079
68738SOL     OW18192  13.007   6.946   6.560 -0.5710  0.4889  0.1532
68738SOL    HW118193  12.980   6.942   6.652 -1.6319 -0.0967 -0.1694
68738SOL    HW218194  13.084   6.889   6.556 -2.2392 -1.9108  0.1440
68739SOL     OW18195  11.623   3.833  12.723 -0.3395 -0.1403 -0.6010
68739SOL    HW118196  11.623   3.886  12.643 -1.8894  0.1169 -0.4439
68739SOL    HW218197  11.604   3.895  12.793 -0.5327 -0.6298 -0.2161
68740SOL     OW18198   0.706   6.439   6.787  0.5452  0.4260 -0.0688
68740SOL    HW118199   0.701   6.509   6.721 -2.8757 -2.3922 -3.2298
68740SOL    HW218200   0.775   6.381   6.755 -1.7508 -1.4518 -2.0732
68741SOL     OW18201   5.414   0.692   5.456 -0.3879  0.1444  0.7394
68741SOL    HW118202   5.443   0.722   5.370  0.6697 -2.5102  0.0678
68741SOL    HW218203   5.469   0.739   5.518  1.2798 -0.4282 -0.2441
68742SOL     OW18204   0.500   0.666   4.587 -0.3659  0.3767 -0.3368
68742SOL    HW118205   0.499   0.647   4.493 -0.7137  1.4705 -0.5686
68742SOL    HW218206   0.410   0.647   4.615 -0.4692  0.7727 -0.3886
68743SOL     OW18207  13.651  11.396  12.126 -0.1993 -0.4656  0.0207
68743SOL    HW118208  13.742  11.420  12.145 -0.3740 -0.6023  1.0603
68743SOL    HW218209  13.645  11.401  12.030  0.7400  0.1121 -0.0215
68744SOL     OW18210  13.890   6.866   0.991 -0.7112  0.1740 -0.1034
68744SOL    HW118211  13.808   6.854   1.039 -0.8022 -0.9279 -0.4927
68744SOL    HW218212  13.913   6.958   1.004 -1.5828  0.2937  0.6825
68745SOL     OW18213   3.211  13.861   1.151 -0.0608 -0.1525 -0.1871
68745SOL    HW118214   3.242  13.905   1.073  1.0510 -0.8204 -0.1429
68745SOL    HW218215   3.242  13.915   1.224  2.2620 -1.4994 -0.0870
68746SOL     OW18216  11.476   8.238   4.168  0.2161  0.1508 -0.3670
68746SOL    HW118217  11.414   8.295   4.123  1.4738  1.8061 -0.1132
68746SOL    HW218218  11.560   8.258   4.129  0.6504 -1.9930 -0.6462
68747SOL     OW18219  13.854   2.057  10.560  0.1500  0.4282  0.0874
68747SOL    HW118220  13.835   2.148  10.537 -0.2084  0.4966  0.6425
68747SOL    HW218221  13.833   2.051  10.653 -1.0967 -0.5635 -0.2255
68748SOL     OW18222   7.742  11.168   2.606 -0.2833 -0.1239 -0.2578
68748SOL    HW118223   7.816  11.130   2.559 -0.9102 -2.1271  0.2822
68748SOL    HW218224   7.728  11.253   2.565  1.3789 -0.3415 -1.3384
68749SOL     OW18225   1.004  11.221  10.687 -0.0573 -0.0724  0.2106
68749SOL    HW118226   0.937  11.192  10.750 -0.4550 -0.4275 -0.3653
68749SOL    HW218227   1.003  11.317  10.694 -1.5698  0.0170 -0.7191
68750SOL     OW18228   1.427   6.385   9.261 -0.2275  0.1640  0.0776
68750SOL    HW118229   1.438   6.293   9.238 -0.1965  0.1537  0.1322
68750SOL    HW218230   1.489   6.400   9.332 -0.7512  0.0348  0.5792
68751SOL     OW18231   5.505   7.988   1.641 -0.4123  0.4911 -0.1668
68751SOL    HW118232   5.468   7.917   1.589 -0.3006 -0.1644  0.6240
68751SOL    HW218233   5.437   8.009   1.706  0.2438 -0.1462  0.7546
68752SOL     OW18234   1.993   4.051  11.182 -0.3730 -0.1533  0.8745
68752SOL    HW118235   2.064   3.996  11.217  1.2198 -0.5031 -2.4539
68752SOL    HW218236   1.931   3.989  11.144 -0.6526  0.2418  0.6805
68753SOL     OW18237   4.589   3.174   3.810 -0.4337  0.1015  0.1570
68753SOL    HW118238   4.646   3.112   3.764 -0.6194 -1.6093  2.0707
68753SOL    HW218239   4.649   3.230   3.858 -0.3174 -0.0703  0.2131
68754SOL     OW18240   1.622  11.567   5.462  0.0556 -0.5972  1.1280
68754SOL    HW118241   1.595  11.619   5.538  1.1663  2.2662 -0.2849
68754SOL    HW218242   1.649  11.483   5.499 -1.2796 -0.0227  3.6454
68755SOL     OW18243   7.025  12.228  13.766  0.3223 -0.6827 -0.2505
68755SOL    HW118244   7.054  12.140  13.744  1.0935 -0.7963  1.1017
68755SOL    HW218245   7.055  12.242  13.856 -1.1109  0.3919  0.1047
68756SOL     OW18246  12.794   4.221   5.952  0.0831 -0.0507  0.1561
68756SOL    HW118247  12.878   4.261   5.931  0.7376 -0.8079  1.2469
68756SOL    HW218248  12.816   4.133   5.983 -1.1149 -0.2893  0.3780
68757SOL     OW18249  12.568   4.108   0.739  0.3485  0.1167  0.9017
68757SOL    HW118250  12.632   4.125   0.669 -1.6804  3.0060 -0.4627
68757SOL    HW218251  12.621   4.087   0.815  2.8851  1.0353 -0.4772
68758SOL     OW18252   6.114  10.733   0.282  0.3428 -0.2012 -0.7763
68758SOL    HW118253   6.039  10.791   0.266 -0.3309 -0.5695  0.8516
68758SOL    HW218254   6.075  10.646   0.292  1.0043 -0.4205 -0.0295
68759SOL     OW18255   6.215   5.047   8.681  0.2824  0.3899  0.4025
68759SOL    HW118256   6.152   4.975   8.682  0.3085  0.3356 -0.7426
68759SOL    HW218257   6.170   5.118   8.636  0.1364  1.2219  1.8085
68760SOL     OW18258   4.163   1.878   8.846 -0.2968 -0.4276  0.7525
68760SOL    HW118259   4.167   1.840   8.758 -0.5119  1.7747 -0.2854
68760SOL    HW218260   4.173   1.804   8.905 -2.2260 -2.2666 -1.0807
68761SOL     OW18261   5.161   5.698   5.600  0.0161 -0.1424 -0.0727
68761SOL    HW118262   5.177   5.637   5.673 -1.4397 -0.5035 -0.0294
68761SOL    HW218263   5.130   5.778   5.642 -0.4218 -0.2089 -0.2660
68762SOL     OW18264   9.765   7.372  10.899  0.1318  0.3131 -0.0922
68762SOL    HW118265   9.722   7.456  10.911  1.4638  1.1284 -0.8293
68762SOL    HW218266   9.833   7.369  10.965  0.8614  0.3456 -0.8330
68763SOL     OW18267   3.958   8.977   5.929  0.0500  0.3051 -0.2351
68763SOL    HW118268   3.890   8.960   5.994 -0.9081  1.2554 -0.9650
68763SOL    HW218269   3.913   8.974   5.845  1.5328 -2.4136 -1.0502
68764SOL     OW18270   4.005   9.693   5.106  0.2551  0.4004  0.0118
68764SOL    HW118271   3.981   9.622   5.166 -0.3177  1.3187  0.9004
68764SOL    HW218272   4.097   9.676   5.084 -0.3363 -1.6027 -1.2188
68765SOL     OW18273  12.083   0.047   6.210 -0.1855  0.0214  0.0511
68765SOL    HW118274  12.104   0.102   6.286 -1.0949  0.7294 -0.1991
68765SOL    HW218275  12.015   0.095   6.164 -2.0133 -1.9541  0.5399
68766SOL     OW18276   6.942  10.481   8.449 -0.4827  0.6151  0.1842
68766SOL    HW118277   6.876  10.489   8.380 -0.9972  0.0080  0.5994
68766SOL    HW218278   7.011  10.427   8.409 -0.3249  1.0680 -0.1731
68767SOL     OW18279  13.026   1.956   4.483  0.1557 -0.3122  0.1384
68767SOL    HW118280  13.115   1.925   4.465  0.3674  0.4121 -0.0908
68767SOL    HW218281  12.988   1.970   4.397 -0.5636 -1.6404  0.2100
68768SOL     OW18282  12.934  10.039   0.287 -0.4684 -0.3235 -0.6728
68768SOL    HW118283  12.938   9.973   0.218  1.2668  1.7679 -2.7026
68768SOL    HW218284  12.994  10.007   0.355 -0.2068 -1.1662 -1.2903
68769SOL     OW18285   8.082   5.807   4.030 -0.2523 -0.0579  0.2645
68769SOL    HW118286   8.142   5.760   3.974  0.3111 -0.1483  0.9304
68769SOL    HW218287   8.039   5.739   4.082 -0.5682  0.0458  0.1419
68770SOL     OW18288  12.525   0.661   6.953  0.3084  0.0894  0.2229
68770SOL    HW118289  12.543   0.582   6.902  1.8753  0.9649 -0.6754
68770SOL    HW218290  12.442   0.693   6.920  0.2402 -0.5475 -0.2315
68771SOL     OW18291  12.768   5.714   1.940 -0.1836 -0.0011  0.7430
68771SOL    HW118292  12.723   5.788   1.981  0.4695  1.2891 -0.8038
68771SOL    HW218293  12.699   5.649   1.928 -1.0166  0.7980  1.0613
68772SOL     OW18294   7.684   4.508  12.274 -0.0956  0.0478 -0.5786
68772SOL    HW118295   7.702   4.547  12.359 -0.4063 -2.3568  0.6788
68772SOL    HW218296   7.596   4.470  12.283  0.1031 -0.7721 -1.7718
68773SOL     OW18297   7.785   5.028   7.541 -0.3348  0.0436  0.4729
68773SOL    HW118298   7.799   4.979   7.461  0.6954 -0.7252  1.1035
68773SOL    HW218299   7.847   5.100   7.537  0.1973 -0.3866  0.8862
68774SOL     OW18300   1.538  12.582   8.418 -0.0945  0.0323  0.0612
68774SOL    HW118301   1.555  12.560   8.326 -0.3601 -1.2567  0.3037
68774SOL    HW218302   1.598  12.654   8.436  1.5603 -1.1344 -0.5098
68775SOL     OW18303   8.441   4.564  10.854 -0.5645  0.4333 -0.2461
68775SOL    HW118304   8.499   4.547  10.780  1.0053  0.3847  0.9297
68775SOL    HW218305   8.499   4.595  10.923 -2.1301  1.6664  0.6039
68776SOL     OW18306   4.581   7.922   0.884 -0.5584 -0.5417 -0.0423
68776SOL    HW118307   4.514   7.870   0.840 -1.0114 -1.4221  1.5840
68776SOL    HW218308   4.663   7.875   0.867 -1.1243 -2.7635  2.5660
68777SOL     OW18309   4.997   2.167  12.716 -0.2553 -0.1087 -0.2427
68777SOL    HW118310   5.007   2.105  12.644  0.4914  1.0361 -1.1604
68777SOL    HW218311   5.053   2.241  12.692  0.4187  0.0872  1.7745
68778SOL     OW18312  12.522  13.333   7.589  0.0260 -0.1785  0.1743
68778SOL    HW118313  12.533  13.248   7.632 -2.7949 -1.3115 -1.1028
68778SOL    HW218314  12.471  13.385   7.651  2.6587  1.1122  1.4289
68779SOL     OW18315   1.534   9.557   0.780  0.1688  0.1250  0.3211
68779SOL    HW118316   1.607   9.545   0.719 -0.0740 -0.8601  0.2065
68779SOL    HW218317   1.575   9.552   0.867  0.2514 -0.3432  0.2565
68780SOL     OW18318  13.294   3.074  11.718  0.0935 -0.4405  0.1451
68780SOL    HW118319  13.233   3.111  11.782 -1.9555  0.2617 -2.1043
68780SOL    HW218320  13.242   3.059  11.640  2.4770 -1.4037 -1.3794
68781SOL     OW18321   4.829  12.718  11.502  0.3944  0.3241 -0.2764
68781SOL    HW118322   4.765  12.662  11.459  1.7408 -0.5502 -1.2368
68781SOL    HW218323   4.778  12.773  11.561 -1.2788 -0.0067 -1.3544
68782SOL     OW18324  11.857   9.670   0.337  0.8478  0.2631 -0.4038
68782SOL    HW118325  11.871   9.748   0.390 -1.6113  1.8429 -1.8928
68782SOL    HW218326  11.895   9.691   0.252  2.1577 -1.1016 -0.2036
68783SOL     OW18327   1.865   4.513  13.227  0.1556  0.4447  0.2050
68783SOL    HW118328   1.895   4.584  13.283  0.6706  0.3631  0.0366
68783SOL    HW218329   1.941   4.491  13.173  0.8245 -1.9447  1.9719
68784SOL     OW18330  11.654   7.351   9.379  0.6611  0.1143 -0.3330
68784SOL    HW118331  11.629   7.280   9.321  0.3762 -0.2413  0.2200
68784SOL    HW218332  11.602   7.338   9.458  2.0931 -0.2615  0.5911
68785SOL     OW18333  13.373   4.226  12.971  0.1201  0.5602 -0.4229
68785SOL    HW118334  13.342   4.262  12.888 -0.4396 -1.4209 -1.1463
68785SOL    HW218335  13.302   4.167  12.999  0.8776  0.1890  0.7777
68786SOL     OW18336   4.321   0.592  13.811  0.3249  0.3997 -0.5915
68786SOL    HW118337   4.401   0.620  13.854  0.3508 -0.6903  0.1024
68786SOL    HW218338   4.348   0.520  13.754  0.0667  0.9485 -1.4119
68787SOL     OW18339  12.250   8.424   0.915 -0.1491 -0.2297 -0.1110
68787SOL    HW118340  12.286   8.348   0.869 -0.9546 -0.6497 -0.0560
68787SOL    HW218341  12.162   8.434   0.879 -0.1231  0.5525  0.0378
68788SOL     OW18342   1.287   7.487   6.308  0.6571 -0.1651  0.2030
68788SOL    HW118343   1.246   7.564   6.348  1.7532  0.3556  0.3499
68788SOL    HW218344   1.217   7.448   6.255 -0.1867  0.3849  0.8749
68789SOL     OW18345  10.909   2.608   1.838  0.3260  0.1465 -0.4280
68789SOL    HW118346  10.861   2.534   1.872  0.2843  0.1005 -0.5878
68789SOL    HW218347  11.000   2.592   1.864  0.3448 -0.0480 -0.6166
68790SOL     OW18348   0.826  11.254   3.895  0.3068  0.3283 -0.1909
68790SOL    HW118349   0.892  11.282   3.959  0.6234 -2.3056  0.7589
68790SOL    HW218350   0.875  11.198   3.834 -0.7345 -0.3762 -0.4068
68791SOL     OW18351  13.506   7.204   4.404  0.1961 -0.3840 -0.0617
68791SOL    HW118352  13.504   7.108   4.399 -0.0150 -0.3710 -0.2438
68791SOL    HW218353  13.476   7.224   4.493 -0.2198 -0.4729 -0.1775
68792SOL     OW18354  12.527   8.281   7.212 -0.3251  0.5165  0.5454
68792SOL    HW118355  12.465   8.354   7.214  0.8308  1.5354  2.4325
68792SOL    HW218356  12.585   8.297   7.287  2.9182  0.2338 -1.7051
68793SOL     OW18357  13.393  12.186   0.074 -0.2484  0.1267  0.3708
68793SOL    HW118358  13.422  12.096   0.092  1.3606 -0.0488 -2.6017
68793SOL    HW218359  13.474  12.237   0.071 -1.0007  1.3522  0.2829
68794SOL     OW18360  10.950   2.551   6.097 -0.6209  0.5108 -0.1795
68794SOL    HW118361  10.928   2.570   6.188  0.0816 -0.7865  0.2906
68794SOL    HW218362  11.006   2.473   6.102  0.4439  1.1469 -1.6324
68795SOL     OW18363   0.573   7.402   7.621  0.4377 -0.1188  0.5468
68795SOL    HW118364   0.504   7.435   7.564  0.4225 -1.8704 -0.5484
68795SOL    HW218365   0.645   7.464   7.610  0.7941 -0.8858 -2.2362
68796SOL     OW18366   2.583   6.011  13.335  0.4069 -0.0887  0.0066
68796SOL    HW118367   2.648   6.069  13.375  1.5399 -0.4390 -1.2349
68796SOL    HW218368   2.595   5.927  13.380  1.7439 -0.5100 -1.0558
68797SOL     OW18369  12.471   3.902   1.408  0.5798 -0.1014  0.0712
68797SOL    HW118370  12.474   3.819   1.360  1.4123 -1.0248  1.6648
68797SOL    HW218371  12.383   3.936   1.390  0.2982 -1.1936 -0.7948
68798SOL     OW18372   3.167   4.198  11.011  0.2266  0.2647  0.1167
68798SOL    HW118373   3.134   4.238  10.931 -1.1261 -1.2627 -0.1414
68798SOL    HW218374   3.168   4.104  10.992 -0.3884 -0.1542  1.9576
68799SOL     OW18375   6.551   6.193  13.147  0.3640 -0.3443  0.7217
68799SOL    HW118376   6.567   6.284  13.123 -2.4725 -0.1550 -0.8908
68799SOL    HW218377   6.597   6.142  13.080  1.2715 -0.1163  1.1532
68800SOL     OW18378   8.006   1.177   3.155 -0.0534 -0.3806 -0.2393
68800SOL    HW118379   7.944   1.127   3.102 -0.6217  0.5801 -0.5262
68800SOL    HW218380   7.983   1.269   3.137  0.3842 -0.0304  0.9210
68801SOL     OW18381  12.072   7.680   4.912  0.5246  0.6186 -0.1761
68801SOL    HW118382  12.080   7.672   5.007  2.1343  0.2269 -0.3006
68801SOL    HW218383  12.022   7.603   4.886 -0.0347  0.7927  0.3551
68802SOL     OW18384   9.867   8.623   6.528 -0.1638 -0.0277 -0.3704
68802SOL    HW118385   9.869   8.673   6.610  2.0363  0.8546 -0.8766
68802SOL    HW218386   9.864   8.690   6.459 -4.5299 -0.7326 -1.1559
68803SOL     OW18387   2.787  10.880  10.069 -0.1441 -0.2763 -0.4606
68803SOL    HW118388   2.882  10.869  10.064 -0.0760 -0.7796  1.3949
68803SOL    HW218389   2.753  10.791  10.061 -0.2787 -0.4526  1.5851
68804SOL     OW18390   6.242   2.658  12.941  0.4098 -0.2561  0.2273
68804SOL    HW118391   6.204   2.746  12.930  0.3480 -0.5210 -2.4931
68804SOL    HW218392   6.167   2.599  12.943  0.4864 -0.5141 -1.9771
68805SOL     OW18393   2.464   1.572   4.024 -0.1581  0.5399  0.2105
68805SOL    HW118394   2.499   1.531   4.103 -0.4196 -0.3605 -0.1320
68805SOL    HW218395   2.446   1.662   4.050 -0.1460  0.2824  1.1460
68806SOL     OW18396  12.517   7.910  13.915 -0.2740  0.6606  0.3779
68806SOL    HW118397  12.524   7.875  14.004 -1.1391  0.5061  0.3901
68806SOL    HW218398  12.606   7.941  13.895 -0.0351  0.5694  1.2349
68807SOL     OW18399   1.378   8.544  13.128  0.1928 -0.6739  0.4291
68807SOL    HW118400   1.446   8.529  13.063  0.0994  0.0539  0.1460
68807SOL    HW218401   1.422   8.532  13.212  0.0671 -2.6444  0.2541
68808SOL     OW18402   2.963   0.564   2.377 -0.1185  0.5930 -0.0436
68808SOL    HW118403   2.964   0.526   2.465  2.2982  1.1513  0.2303
68808SOL    HW218404   2.929   0.652   2.390  0.2670  0.6883  0.3527
68809SOL     OW18405   6.497   7.801   5.144  0.4561 -0.2776  0.0457
68809SOL    HW118406   6.413   7.820   5.102  0.2712 -1.3783 -0.1135
68809SOL    HW218407   6.545   7.884   5.140 -1.3162  0.9495  1.8434
68810SOL     OW18408  12.142  10.725   7.028  0.5295  0.5964  0.7388
68810SOL    HW118409  12.181  10.696   6.945 -0.6685  0.2035  0.2892
68810SOL    HW218410  12.104  10.646   7.066  0.1318  0.9713  1.1344
68811SOL     OW18411   1.098   8.552  13.723  0.2909  0.0566  0.5902
68811SOL    HW118412   1.140   8.636  13.743 -1.4220  0.9672  0.4724
68811SOL    HW218413   1.172   8.492  13.707  1.5483  1.6658  0.0719
68812SOL     OW18414   9.596  12.381   9.607 -0.0120  0.0558  0.4394
68812SOL    HW118415   9.687  12.397   9.634 -0.2530 -0.7896  1.8238
68812SOL    HW218416   9.552  12.354   9.687 -2.1962  3.1689  0.4421
68813SOL     OW18417   2.529  13.754  12.890  0.0260 -0.3563 -0.2537
68813SOL    HW118418   2.499  13.669  12.856 -1.3756  0.6624 -1.6949
68813SOL    HW218419   2.538  13.739  12.984 -1.2836 -1.8130 -0.3147
68814SOL     OW18420   8.896   8.906   5.280  0.0867 -0.0045 -0.3190
68814SOL    HW118421   8.869   8.993   5.308 -1.0054  0.0561 -1.4934
68814SOL    HW218422   8.878   8.850   5.355 -0.0721  0.6224  0.1148
68815SOL     OW18423   8.351   7.570   5.759 -0.1855 -0.1065 -0.3074
68815SOL    HW118424   8.345   7.475   5.746  0.1082 -0.1611 -0.0404
68815SOL    HW218425   8.289   7.588   5.829 -1.7706  0.1869 -1.7213
68816SOL     OW18426   8.610   8.571   5.564 -0.1873  0.4449 -0.4508
68816SOL    HW118427   8.623   8.481   5.533 -0.9596  0.3959 -0.6687
68816SOL    HW218428   8.515   8.581   5.567 -0.1179  0.8061  0.9174
68817SOL     OW18429   1.179  11.263   4.001 -0.3680 -0.1771  0.1138
68817SOL    HW118430   1.194  11.213   3.921 -0.8507 -2.2769  1.2578
68817SOL    HW218431   1.267  11.291   4.028 -0.0755 -0.4539 -0.5243
68818SOL     OW18432  10.685   3.958   8.030 -0.2336 -0.5497  0.0239
68818SOL    HW118433  10.709   3.964   7.938 -1.0579 -0.5122 -0.1969
68818SOL    HW218434  10.691   4.049   8.062  1.4531 -0.7712  0.3827
68819SOL     OW18435   6.000   3.309  11.964 -0.0128 -0.6768  0.0556
68819SOL    HW118436   6.085   3.339  11.995 -0.8802  0.1870  1.7262
68819SOL    HW218437   5.968   3.380  11.907  0.0728 -0.6911 -0.0107
68820SOL     OW18438  11.507   5.735  11.441 -0.3092  0.6191  0.5424
68820SOL    HW118439  11.440   5.803  11.442 -0.2417  0.6898  0.2670
68820SOL    HW218440  11.589   5.782  11.455 -0.2421  0.6199  0.1538
68821SOL     OW18441  12.805   1.295   4.696  0.7629 -0.4179  0.2598
68821SOL    HW118442  12.883   1.270   4.645  1.0471 -1.5149  1.1958
68821SOL    HW218443  12.756   1.352   4.638  2.7649  1.1557 -0.0210
68822SOL     OW18444   5.741   1.347   8.848  0.2180  0.1054 -0.0023
68822SOL    HW118445   5.662   1.375   8.894 -0.0248  1.2554 -1.0799
68822SOL    HW218446   5.709   1.298   8.772  0.3813  2.6387 -1.8195
68823SOL     OW18447   6.003   0.692   6.939  0.0558  0.4474 -0.1555
68823SOL    HW118448   6.083   0.640   6.950  1.3851  2.2567 -0.8791
68823SOL    HW218449   6.005   0.721   6.848 -1.1475  0.9968 -0.0290
68824SOL     OW18450   6.648  12.235   1.614 -0.2728  0.0150  0.3886
68824SOL    HW118451   6.664  12.315   1.565  1.0319 -0.2651  0.3168
68824SOL    HW218452   6.599  12.179   1.554  1.8701 -0.5931 -0.9414
68825SOL     OW18453  10.756   6.096   4.992  0.2873 -0.1301 -0.1196
68825SOL    HW118454  10.846   6.090   4.961  0.4222 -1.8427  0.5021
68825SOL    HW218455  10.762   6.086   5.087 -0.5821 -0.6069 -0.1015
68826SOL     OW18456   2.655   7.703   8.540  0.2361 -0.2650 -0.4509
68826SOL    HW118457   2.619   7.621   8.505  1.2045 -0.4912 -0.9504
68826SOL    HW218458   2.656   7.762   8.465 -4.6453  1.8031  0.7498
68827SOL     OW18459   4.018   2.555  13.800  0.4033  0.0925 -0.4287
68827SOL    HW118460   4.083   2.525  13.863 -1.0593 -1.0000  0.6419
68827SOL    HW218461   4.023   2.491  13.729  0.0610 -0.3863 -0.0318
68828SOL     OW18462  12.715  12.482   2.434  0.8082  0.2330  0.2407
68828SOL    HW118463  12.746  12.571   2.417 -0.1813  0.1297 -2.6109
68828SOL    HW218464  12.785  12.442   2.485  3.0872  1.4965 -1.6914
68829SOL     OW18465  12.779   4.729   1.913 -0.1309 -0.0777 -0.6401
68829SOL    HW118466  12.702   4.785   1.922  0.0765  0.5979 -2.6930
68829SOL    HW218467  12.744   4.640   1.916 -0.6092  0.1268  1.3562
68830SOL     OW18468  12.430   1.396   8.757 -0.2263  0.0323 -0.2931
68830SOL    HW118469  12.393   1.341   8.826 -0.7621 -0.1792 -0.7473
68830SOL    HW218470  12.355   1.428   8.708  0.0885  0.9333 -0.2282
68831SOL     OW18471   1.439   9.809   9.513 -0.4888  0.2178 -0.0283
68831SOL    HW118472   1.481   9.723   9.506  1.5737  1.0880  0.7327
68831SOL    HW218473   1.503   9.863   9.561 -2.3346  1.7871  0.8154
68832SOL     OW18474   0.249   2.026  13.073  0.0420  0.1968  0.2182
68832SOL    HW118475   0.290   2.011  13.158  1.3027 -1.0325 -0.5824
68832SOL    HW218476   0.314   2.076  13.024 -0.2553 -0.0144 -0.3923
68833SOL     OW18477   8.640   9.509   5.025  0.2407 -0.1026 -0.1422
68833SOL    HW118478   8.551   9.490   5.053 -0.2382  1.1721 -0.7206
68833SOL    HW218479   8.677   9.423   5.003 -1.0001 -0.6058 -0.3629
68834SOL     OW18480   7.821  11.341   2.872 -0.0528  0.3895 -0.6048
68834SOL    HW118481   7.778  11.317   2.790  1.2372  0.1576 -1.2288
68834SOL    HW218482   7.872  11.419   2.851 -0.5296  0.9532  0.2517
68835SOL     OW18483   6.199   3.001   6.470  0.5453 -0.0428 -0.1285
68835SOL    HW118484   6.187   2.932   6.404  2.9174 -2.6002  1.8824
68835SOL    HW218485   6.283   3.041   6.447  0.9493 -0.3449  0.7877
68836SOL     OW18486  12.306  10.618   7.568 -0.0739 -0.2350  0.6358
68836SOL    HW118487  12.320  10.543   7.510 -1.6620 -0.1612  0.1110
68836SOL    HW218488  12.394  10.642   7.599  0.5479 -1.7078  0.0686
68837SOL     OW18489   4.824   6.010   2.398 -0.8226 -0.0637 -0.8651
68837SOL    HW118490   4.735   6.045   2.406 -1.2911 -1.3464 -0.1396
68837SOL    HW218491   4.814   5.932   2.342 -0.0019  0.2840 -1.5155
68838SOL     OW18492  12.850   9.617  11.023 -0.0528 -0.4662  0.2254
68838SOL    HW118493  12.770   9.666  11.042 -1.3342 -2.2104 -0.4232
68838SOL    HW218494  12.921   9.672  11.058 -1.4016  1.7336 -0.2951
68839SOL     OW18495  12.459   6.817   7.719  0.3488 -0.6834  0.5773
68839SOL    HW118496  12.504   6.816   7.804 -1.0577 -1.0111  1.3471
68839SOL    HW218497  12.528   6.797   7.655  1.8051  1.2888  1.4350
68840SOL     OW18498   1.780  13.216  12.161  0.0355  0.1368 -0.2308
68840SOL    HW118499   1.773  13.228  12.256  0.1189  0.0556 -0.2148
68840SOL    HW218500   1.690  13.200  12.133 -0.0582  0.6436 -0.2305
68841SOL     OW18501   7.867   9.707   4.552  0.2394  0.2125  0.5619
68841SOL    HW118502   7.891   9.795   4.580 -0.7718  0.2177  1.5055
68841SOL    HW218503   7.772   9.702   4.568  0.6403 -1.8544  2.9835
68842SOL     OW18504  12.812   4.684   1.281 -0.4314 -0.5432  0.1965
68842SOL    HW118505  12.746   4.630   1.239  0.5025 -0.5572 -1.3106
68842SOL    HW218506  12.784   4.689   1.373 -3.0469  0.2692 -0.5654
68843SOL     OW18507  12.506  10.017   1.679 -0.4016 -0.3533 -0.3383
68843SOL    HW118508  12.504   9.966   1.598  2.0848  0.1496 -0.8248
68843SOL    HW218509  12.519   9.952   1.748 -2.0272 -0.7413 -0.3650
68844SOL     OW18510   8.400   4.727   8.067  0.1882  0.1605 -0.7363
68844SOL    HW118511   8.469   4.687   8.015  0.6684  0.2579 -0.1765
68844SOL    HW218512   8.328   4.741   8.004 -0.4690 -2.6437 -0.7505
68845SOL     OW18513  10.312  11.753   8.177  0.2613  0.0597 -0.0836
68845SOL    HW118514  10.270  11.817   8.234  0.7437  0.1485  0.1832
68845SOL    HW218515  10.282  11.775   8.089  2.8742  2.7488 -0.4819
68846SOL     OW18516  11.540   3.769   9.470  0.4195  0.4780  0.2254
68846SOL    HW118517  11.460   3.811   9.438  0.9310  1.2100 -0.1165
68846SOL    HW218518  11.514   3.728   9.552 -0.4971  0.0424 -0.2629
68847SOL     OW18519   6.286   6.739   6.690  0.5110  0.5186  0.2158
68847SOL    HW118520   6.347   6.666   6.699 -0.6802 -0.6529 -0.7899
68847SOL    HW218521   6.339   6.811   6.654  1.4107 -0.2893 -0.1145
68848SOL     OW18522   4.859   3.360   0.558 -0.0243 -0.2996  0.5974
68848SOL    HW118523   4.804   3.328   0.630  1.1984 -0.0391  1.6812
68848SOL    HW218524   4.935   3.399   0.601  0.6393  0.0639 -0.8385
68849SOL     OW18525  13.797   2.475   4.887 -0.2972  0.1956 -0.3850
68849SOL    HW118526  13.727   2.460   4.950 -0.9963 -0.1222 -1.2139
68849SOL    HW218527  13.752   2.480   4.802  0.8684 -2.3946 -1.2536
68850SOL     OW18528  12.321  12.862   4.639 -0.0775 -0.0639  0.6779
68850SOL    HW118529  12.254  12.879   4.706 -0.5195  2.6272 -0.2963
68850SOL    HW218530  12.283  12.792   4.585 -1.5175  0.4508  0.9559
68851SOL     OW18531   0.350  12.769  10.533 -0.3548 -0.5817  0.1065
68851SOL    HW118532   0.410  12.808  10.469 -0.7983 -0.9035 -0.5161
68851SOL    HW218533   0.283  12.836  10.546 -0.3429 -0.5742  0.1329
68852SOL     OW18534   1.804  13.111   8.453 -0.1756 -0.4285  0.1963
68852SOL    HW118535   1.852  13.193   8.464 -1.9426  0.7970 -0.6896
68852SOL    HW218536   1.737  13.131   8.387 -1.7847 -2.0632  1.2268
68853SOL     OW18537   7.559   8.979  12.477  0.0800  0.0426 -0.5399
68853SOL    HW118538   7.492   9.002  12.541 -0.2488 -1.7243 -0.2098
68853SOL    HW218539   7.511   8.968  12.395  0.1654  0.0224 -0.5872
68854SOL     OW18540   1.810   3.683   9.087  0.0390  0.2153  0.2942
68854SOL    HW118541   1.808   3.721   9.000  1.0063 -0.7200 -0.1592
68854SOL    HW218542   1.825   3.590   9.072  0.4094  0.0708  1.4612
68855SOL     OW18543  11.119   8.928   3.373 -0.4905  0.3017 -0.2196
68855SOL    HW118544  11.052   8.887   3.318 -0.7207  0.6977 -0.2348
68855SOL    HW218545  11.087   8.914   3.463 -0.1343 -0.3104 -0.1815
68856SOL     OW18546  10.534   3.313   9.463  0.2047  0.1229  0.2225
68856SOL    HW118547  10.608   3.293   9.520 -0.0456  0.9457  0.8648
68856SOL    HW218548  10.503   3.398   9.494  0.3459  0.8128 -1.4470
68857SOL     OW18549   6.601   4.884   3.455  0.2321 -0.1477 -0.6241
68857SOL    HW118550   6.693   4.909   3.462  0.7790 -2.0640 -0.1811
68857SOL    HW218551   6.603   4.800   3.408 -1.0781 -1.2335  1.1265
68858SOL     OW18552  11.207   4.074   5.469  0.7246  0.6173 -0.0637
68858SOL    HW118553  11.132   4.044   5.418  0.2627  0.3613  0.7362
68858SOL    HW218554  11.214   4.167   5.449  2.1323  0.0603 -2.5312
68859SOL     OW18555  11.200   1.124  12.393  0.1803  0.3329 -0.2096
68859SOL    HW118556  11.230   1.079  12.472  0.2890  2.1068  0.8034
68859SOL    HW218557  11.252   1.084  12.323 -0.9273 -2.2771  0.3327
68860SOL     OW18558   2.984  10.547  11.524  0.0159 -1.0359 -0.1662
68860SOL    HW118559   3.059  10.606  11.538 -1.3483  0.7994 -0.2879
68860SOL    HW218560   3.022  10.471  11.480  1.6479  0.3568 -1.3021
68861SOL     OW18561  10.494  13.058   1.900  0.1456  0.4417 -0.2330
68861SOL    HW118562  10.539  13.048   1.816 -1.4377  0.4255 -1.1147
68861SOL    HW218563  10.431  13.128   1.885  1.3576  2.0238  1.6385
68862SOL     OW18564  11.332   6.004   0.905 -0.4038  0.2483 -0.1663
68862SOL    HW118565  11.254   6.056   0.923  0.7744  2.2468 -0.4375
68862SOL    HW218566  11.305   5.941   0.838 -2.5402 -1.2899  1.9999
68863SOL     OW18567   8.664  10.169   9.729 -0.1699 -0.0756 -0.2125
68863SOL    HW118568   8.705  10.115   9.796 -1.1555  0.6545  1.0107
68863SOL    HW218569   8.737  10.210   9.683  0.5386 -1.2823 -0.1950
68864SOL     OW18570   1.512   1.999   1.694 -0.2089  0.1171 -0.3071
68864SOL    HW118571   1.607   2.009   1.707 -0.0858  1.2484 -1.8260
68864SOL    HW218572   1.474   2.076   1.736 -0.4159  0.0055 -0.2896
68865SOL     OW18573   7.721   5.566   2.042  0.3610 -0.1729 -0.1043
68865SOL    HW118574   7.795   5.508   2.026  2.3346  2.2076 -0.2070
68865SOL    HW218575   7.664   5.553   1.967  1.7437 -0.5363 -1.1385
68866SOL     OW18576   7.825  10.140   5.060 -0.3299 -0.0212  0.0825
68866SOL    HW118577   7.823  10.233   5.078 -0.6367  0.2290 -1.1161
68866SOL    HW218578   7.872  10.101   5.134  1.0807  1.2477 -0.1073
68867SOL     OW18579  10.954   4.802   6.624 -0.7578 -0.3655  0.2084
68867SOL    HW118580  10.876   4.845   6.589 -1.0744 -1.1880 -0.1248
68867SOL    HW218581  11.027   4.851   6.587 -1.0879 -0.9607 -1.3153
68868SOL     OW18582  10.590   3.629   2.313  0.2702 -0.4125 -0.1786
68868SOL    HW118583  10.504   3.600   2.283 -0.0293 -0.4235  0.6734
68868SOL    HW218584  10.596   3.720   2.283 -1.1509  0.4710  1.9491
68869SOL     OW18585   3.847  10.953   4.660  0.3146  0.3752  1.1454
68869SOL    HW118586   3.865  10.968   4.753  0.4651 -2.0223  1.5766
68869SOL    HW218587   3.765  10.904   4.659 -0.3724  1.4805 -0.1048
68870SOL     OW18588  10.227   3.200   0.796  0.1647  0.3562 -1.0630
68870SOL    HW118589  10.215   3.285   0.838 -1.6861 -0.0275 -0.7291
68870SOL    HW218590  10.305   3.211   0.742 -0.1847  2.3657 -1.2518
68871SOL     OW18591  12.396   5.748   0.851  0.3633  0.3180  0.3177
68871SOL    HW118592  12.302   5.727   0.853  0.5164 -0.6263 -0.8667
68871SOL    HW218593  12.413   5.773   0.760  1.6583 -1.6186 -0.0313
68872SOL     OW18594   7.885  11.120   3.806  0.2105  0.7292 -0.6759
68872SOL    HW118595   7.832  11.114   3.886  0.2708 -1.4228 -0.7358
68872SOL    HW218596   7.975  11.128   3.838  0.4888 -2.4078 -0.3883
68873SOL     OW18597  13.940   1.653   4.348 -0.0084  0.1643 -0.2712
68873SOL    HW118598  14.014   1.691   4.396  0.1219 -0.9053  0.4190
68873SOL    HW218599  13.972   1.642   4.259  0.4881  0.2054 -0.1018
68874SOL     OW18600   9.218   5.337   9.150 -0.0201  0.1195  0.2610
68874SOL    HW118601   9.286   5.331   9.083  0.2769 -0.2693  0.5931
68874SOL    HW218602   9.177   5.422   9.135 -0.6044 -0.3716 -1.0310
68875SOL     OW18603   2.365   8.926   9.662 -0.8228  0.2241  0.1230
68875SOL    HW118604   2.451   8.961   9.686 -0.8532 -0.4556  1.2729
68875SOL    HW218605   2.365   8.927   9.566  0.0440  1.2338  0.1120
68876SOL     OW18606  10.369  11.203   6.144 -0.7440  0.5295  0.1204
68876SOL    HW118607  10.283  11.244   6.145 -1.2535 -0.4734 -0.8017
68876SOL    HW218608  10.420  11.257   6.083 -1.2008  0.2204 -0.5461
68877SOL     OW18609   5.511   2.275   8.620 -0.3895 -0.4404 -0.4636
68877SOL    HW118610   5.600   2.296   8.647 -0.0679 -0.9834 -1.0747
68877SOL    HW218611   5.477   2.356   8.583  0.2191 -0.4931 -1.1671
68878SOL     OW18612  13.912   5.170   2.517 -0.4750 -0.4883 -0.0387
68878SOL    HW118613  14.005   5.151   2.503 -0.4770 -0.7592  0.3197
68878SOL    HW218614  13.909   5.218   2.600 -0.4002  1.6701 -1.1989
68879SOL     OW18615   0.999  12.108  12.488 -0.2569 -0.7023 -0.0177
68879SOL    HW118616   1.057  12.037  12.459 -0.0974  0.2932 -2.2960
68879SOL    HW218617   0.934  12.064  12.542 -0.7428 -2.8062 -2.1504
68880SOL     OW18618  11.085  11.577  12.664 -0.5247 -0.3445  1.0498
68880SOL    HW118619  11.070  11.487  12.695 -4.6896 -0.3656 -0.4213
68880SOL    HW218620  11.158  11.568  12.602 -0.3492 -2.5727  1.4677
68881SOL     OW18621  12.530   3.347  11.073  0.2561  0.2596  0.1185
68881SOL    HW118622  12.605   3.404  11.088  1.3097 -1.2008  0.6381
68881SOL    HW218623  12.476   3.358  11.151  1.5369 -0.9991  1.2627
68882SOL     OW18624   3.508   8.160   9.920  0.0035  0.3239 -0.1940
68882SOL    HW118625   3.588   8.148   9.869  0.3231  0.3916  0.2891
68882SOL    HW218626   3.440   8.115   9.869  0.2774  0.5623 -0.7838
68883SOL     OW18627  12.640   8.688   5.025  0.2717 -0.0857  0.6132
68883SOL    HW118628  12.670   8.763   4.974 -0.7046  0.7614  1.2513
68883SOL    HW218629  12.548   8.706   5.043  0.2225 -1.0658  1.4518
68884SOL     OW18630   9.521   2.732   2.926 -0.4833 -0.2212 -0.0831
68884SOL    HW118631   9.588   2.769   2.983 -1.0578  2.6155 -1.0869
68884SOL    HW218632   9.438   2.750   2.971 -0.7524 -1.3130 -0.1044
68885SOL     OW18633  11.798   0.339   4.281 -0.4966  0.4305 -0.1786
68885SOL    HW118634  11.824   0.247   4.286  0.5780  0.7894  1.4928
68885SOL    HW218635  11.838   0.371   4.201 -0.1614 -0.3313 -0.3267
68886SOL     OW18636   4.982  13.293   8.091  0.0195  0.0506  0.2017
68886SOL    HW118637   4.903  13.331   8.129 -1.1003 -0.9656 -1.0118
68886SOL    HW218638   4.968  13.298   7.996  1.6467  0.2970 -0.0553
68887SOL     OW18639  13.632   0.349   4.541  0.8804 -0.7019 -0.2496
68887SOL    HW118640  13.641   0.370   4.447  1.0711 -0.3440 -0.1558
68887SOL    HW218641  13.627   0.254   4.544  0.6282 -0.7031 -0.6450
68888SOL     OW18642   8.310  12.353  13.081 -0.1968 -0.1693 -0.4798
68888SOL    HW118643   8.289  12.365  12.988 -1.4178  2.0813  0.0135
68888SOL    HW218644   8.367  12.427  13.101 -1.6029  0.5657  1.0093
68889SOL     OW18645   0.926   8.359   6.538  0.2642 -0.2543  0.5038
68889SOL    HW118646   0.844   8.354   6.489 -0.1759 -0.6160  1.2637
68889SOL    HW218647   0.920   8.440   6.587 -0.5787 -1.2759  2.1696
68890SOL     OW18648  13.165  13.405   5.698  0.6321 -0.4630  0.5254
68890SOL    HW118649  13.169  13.310   5.714  0.3865 -0.3550  1.2402
68890SOL    HW218650  13.073  13.422   5.679  0.1974 -0.0099  2.7753
68891SOL     OW18651  10.584   1.847   8.751  0.2876  0.2333  0.8583
68891SOL    HW118652  10.598   1.757   8.722 -2.2058 -0.1679  0.6827
68891SOL    HW218653  10.668   1.891   8.735  1.9105 -2.2590  1.9003
68892SOL     OW18654   1.297   1.317  11.701 -0.3809  0.1426  0.0159
68892SOL    HW118655   1.300   1.318  11.605  1.6579  1.1355  0.0358
68892SOL    HW218656   1.330   1.230  11.724 -1.2278 -0.2376 -0.1609
68893SOL     OW18657   8.021   8.096  11.584  0.2003 -0.2237  0.1668
68893SOL    HW118658   7.970   8.173  11.561 -0.9506 -1.0063  0.0051
68893SOL    HW218659   8.063   8.069  11.502 -0.0099 -0.2057  0.0526
68894SOL     OW18660   2.226  11.763   5.822 -0.8408  0.3197 -0.1189
68894SOL    HW118661   2.306  11.712   5.837 -0.2808  1.5364  1.2285
68894SOL    HW218662   2.179  11.713   5.755  0.5056 -1.0209 -0.1365
68895SOL     OW18663   0.599   7.123   2.649 -0.0698 -0.0941 -0.1264
68895SOL    HW118664   0.634   7.078   2.726 -0.3779  0.2292  0.2070
68895SOL    HW218665   0.578   7.211   2.680 -2.1695 -0.5850 -0.0440
68896SOL     OW18666   8.725  13.159  13.163 -0.5448  0.0676 -0.0396
68896SOL    HW118667   8.697  13.078  13.122 -0.7601  0.2868 -0.3325
68896SOL    HW218668   8.683  13.228  13.111 -0.9667  0.3410  0.6513
68897SOL     OW18669   1.970  10.588  12.226  0.5359 -0.6973  0.2530
68897SOL    HW118670   1.936  10.592  12.137  0.6079  1.3261  0.2698
68897SOL    HW218671   1.897  10.556  12.279 -0.9445  2.0101  0.0351
68898SOL     OW18672   3.318   0.797   3.132 -0.1099 -0.4374 -0.2990
68898SOL    HW118673   3.339   0.834   3.047 -1.6760 -0.2005 -0.6111
68898SOL    HW218674   3.332   0.703   3.121 -0.3252 -0.4107 -0.8355
68899SOL     OW18675  13.000   5.406   6.589  0.0214  0.9812 -0.1591
68899SOL    HW118676  12.957   5.321   6.589  0.1780  0.9017 -0.4364
68899SOL    HW218677  13.089   5.388   6.617 -0.2102  1.1924  0.7362
68900SOL     OW18678   7.115   9.122  12.708 -0.1895  0.0272  0.1613
68900SOL    HW118679   7.134   9.033  12.737  1.1761  0.0435 -0.5983
68900SOL    HW218680   7.199   9.167  12.713 -0.6455  0.9841 -0.4586
68901SOL     OW18681   1.551   8.862   7.272 -0.3880 -0.3030  0.1174
68901SOL    HW118682   1.644   8.862   7.296 -0.9598  0.3497  2.6604
68901SOL    HW218683   1.548   8.903   7.186  1.6368  0.2187  0.2498
68902SOL     OW18684   3.660  12.297   4.552 -0.4754  0.0042 -0.6515
68902SOL    HW118685   3.629  12.388   4.547 -2.2253 -0.5793 -1.2646
68902SOL    HW218686   3.671  12.271   4.460  0.3459 -0.3074 -0.4672
68903SOL     OW18687  13.371   1.270  12.104  0.0995 -0.1199 -0.5150
68903SOL    HW118688  13.391   1.351  12.058 -0.2712 -0.1072 -0.6585
68903SOL    HW218689  13.411   1.201  12.050  0.1591 -0.0551 -0.5528
68904SOL     OW18690   9.276   0.489  12.031  0.4058  0.0758 -0.3741
68904SOL    HW118691   9.362   0.519  12.062  0.2667 -1.9943  2.5065
68904SOL    HW218692   9.276   0.395  12.051 -2.3353 -0.0819 -0.8138
68905SOL     OW18693  13.647  11.183   6.688  0.1708  0.0696  0.0539
68905SOL    HW118694  13.593  11.109   6.659  1.3987 -1.1280  0.7212
68905SOL    HW218695  13.675  11.160   6.776  0.1813  1.5864  0.4790
68906SOL     OW18696   7.264   0.272  12.413 -0.1362  0.1355  0.0894
68906SOL    HW118697   7.238   0.362  12.432  0.7148  0.1876  1.0721
68906SOL    HW218698   7.268   0.268  12.317 -0.3484  1.0930  0.0328
68907SOL     OW18699   5.236   6.059  11.410  0.2328  0.1951 -0.7548
68907SOL    HW118700   5.172   6.130  11.408 -0.2744 -0.2734 -1.1909
68907SOL    HW218701   5.263   6.054  11.502 -1.9124 -0.9840 -0.1274
68908SOL     OW18702   8.859  11.934   2.015 -0.3672  0.6954  1.0660
68908SOL    HW118703   8.902  11.969   2.093 -0.9645  0.9822  1.2763
68908SOL    HW218704   8.884  11.842   2.013  1.9446  1.2720  0.0290
68909SOL     OW18705   8.192  11.790   8.566  0.6568  0.3005  0.1445
68909SOL    HW118706   8.144  11.873   8.562  0.0935  0.1671  2.6088
68909SOL    HW218707   8.264  11.807   8.626  2.5435 -0.1163 -1.8850
68910SOL     OW18708   7.680  11.915   7.925 -0.2632  0.0336 -0.1096
68910SOL    HW118709   7.726  11.843   7.883 -0.0895 -0.3347  0.6869
68910SOL    HW218710   7.590  11.884   7.935 -0.0885 -0.2628  0.6323
68911SOL     OW18711   4.542  10.122   7.023 -0.4426 -0.1260 -0.1349
68911SOL    HW118712   4.541  10.142   6.929  0.0279  0.1341 -0.0884
68911SOL    HW218713   4.633  10.138   7.050 -0.5180 -0.4378  0.3137
68912SOL     OW18714   7.986   1.801  10.374 -0.0742 -0.5863 -0.8390
68912SOL    HW118715   7.980   1.895  10.357 -0.5572 -0.3773  0.4448
68912SOL    HW218716   7.898   1.775  10.400  0.6364 -0.8503  1.4595
68913SOL     OW18717   5.002  11.517   9.852 -0.2065  0.7965  0.3330
68913SOL    HW118718   5.064  11.568   9.801 -0.2000  0.9177  0.4621
68913SOL    HW218719   4.990  11.436   9.802 -0.6277  1.1458 -0.1401
68914SOL     OW18720   9.663   3.106  13.428  0.7984  0.2624 -0.2556
68914SOL    HW118721   9.721   3.135  13.499 -0.4414 -0.0916  0.9518
68914SOL    HW218722   9.616   3.031  13.465 -1.2457  1.2184 -0.7427
68915SOL     OW18723  11.376   0.362   9.194 -1.1910  0.3268  0.8460
68915SOL    HW118724  11.392   0.275   9.231  0.3722  0.1503 -0.1321
68915SOL    HW218725  11.327   0.408   9.261 -1.7016 -1.1771  1.5565
68916SOL     OW18726  12.233   0.983   3.858 -0.1832 -0.4052  0.0667
68916SOL    HW118727  12.163   0.979   3.792  0.8849 -1.8020 -1.0336
68916SOL    HW218728  12.268   0.894   3.863 -0.5693 -0.5066  2.9756
68917SOL     OW18729  11.133   3.185   7.689 -0.1052  0.9748 -0.1735
68917SOL    HW118730  11.188   3.205   7.764  0.4954 -1.4395  0.1119
68917SOL    HW218731  11.044   3.195   7.720  0.0757 -1.6029  1.4761
68918SOL     OW18732  12.682   8.760  11.071  0.0030  0.7835  0.4974
68918SOL    HW118733  12.745   8.691  11.093  2.9854  3.0022 -0.4689
68918SOL    HW218734  12.662   8.802  11.154 -0.0906  0.1966  0.7786
68919SOL     OW18735   6.435   2.137   7.573 -0.0743 -0.6092 -0.3006
68919SOL    HW118736   6.492   2.074   7.530 -0.1588 -0.9697  0.1026
68919SOL    HW218737   6.450   2.123   7.667  0.3745  0.4014 -0.2032
68920SOL     OW18738   3.427   0.636   0.113  0.9461 -0.4226 -0.5130
68920SOL    HW118739   3.485   0.618   0.040  0.0466  0.2102 -1.4044
68920SOL    HW218740   3.421   0.732   0.116 -1.9821 -0.4484 -2.0482
68921SOL     OW18741   3.214   2.717   1.806 -0.1137  0.1714  0.4669
68921SOL    HW118742   3.184   2.714   1.715 -0.2224  0.4124  0.4932
68921SOL    HW218743   3.170   2.643   1.848 -1.1982  0.8984  0.6561
68922SOL     OW18744   8.450  12.433   9.595  0.5844 -0.3299 -0.4727
68922SOL    HW118745   8.458  12.393   9.682 -1.0259  3.0320  1.4515
68922SOL    HW218746   8.523  12.496   9.591  0.5514 -0.3501 -1.4819
68923SOL     OW18747   2.870   7.691   0.533  0.1987 -0.3423  0.5596
68923SOL    HW118748   2.785   7.728   0.555  0.0841 -1.0223  1.3067
68923SOL    HW218749   2.880   7.616   0.593  1.4070 -0.1459  0.6283
68924SOL     OW18750   3.882   1.085   3.688 -0.8622  0.6270 -0.4723
68924SOL    HW118751   3.971   1.097   3.654  0.1248  0.9744  2.0739
68924SOL    HW218752   3.834   1.161   3.655  0.7016  2.2743  0.8318
68925SOL     OW18753   9.318   9.932   6.208 -0.0281 -0.0927  0.4520
68925SOL    HW118754   9.384  10.001   6.198 -0.5658  0.3715  0.0736
68925SOL    HW218755   9.312   9.919   6.302 -0.5884  1.0383  0.5945
68926SOL     OW18756  10.867  12.764   9.646  0.3374  0.2452  0.0143
68926SOL    HW118757  10.879  12.708   9.723 -1.1152  0.1785  0.2174
68926SOL    HW218758  10.956  12.786   9.618  0.8937 -0.3172  1.2776
68927SOL     OW18759  13.640  10.777   8.158  0.5324  0.0411  0.0480
68927SOL    HW118760  13.606  10.693   8.128  0.0139  0.7855 -1.5436
68927SOL    HW218761  13.674  10.819   8.078 -0.2088  1.7970  0.6133
68928SOL     OW18762   4.921  10.679   2.192  0.1478  0.6752 -0.2133
68928SOL    HW118763   4.931  10.773   2.203  3.4584  0.2965  1.5077
68928SOL    HW218764   4.950  10.642   2.276 -0.9966 -1.9203 -0.8364
68929SOL     OW18765   1.203   5.809   2.834 -0.0454 -0.0819  0.2951
68929SOL    HW118766   1.150   5.792   2.756 -1.2859  1.2348  0.8049
68929SOL    HW218767   1.161   5.756   2.903 -0.0095  0.0751  0.4392
68930SOL     OW18768  10.879   3.364   8.762 -0.5910  0.2345  0.4315
68930SOL    HW118769  10.910   3.313   8.837 -0.0170  0.3306  0.2623
68930SOL    HW218770  10.938   3.439   8.758 -1.0848  0.6211  0.3359
68931SOL     OW18771   1.943   3.458   1.363  0.0027 -0.2255 -0.3474
68931SOL    HW118772   2.035   3.459   1.389 -0.7037 -1.3529  2.7152
68931SOL    HW218773   1.905   3.534   1.408 -0.7610 -0.4503 -0.5941
68932SOL     OW18774   2.654   8.765   2.071  0.1140 -0.1107 -0.4422
68932SOL    HW118775   2.606   8.809   2.142  1.6556  0.9391  0.0133
68932SOL    HW218776   2.586   8.739   2.009 -1.0617  1.2644  0.1918
68933SOL     OW18777   6.495   8.011   9.313  0.1866 -0.7064 -0.3865
68933SOL    HW118778   6.408   7.973   9.308 -0.8270  1.5344 -1.2907
68933SOL    HW218779   6.500   8.069   9.236  2.6313 -1.0741 -0.5917
68934SOL     OW18780  10.704   1.176  12.625 -0.0122 -0.3956 -0.1967
68934SOL    HW118781  10.740   1.192  12.712 -0.2703  1.1802 -0.3488
68934SOL    HW218782  10.779   1.145  12.573  0.2567 -0.8276  0.4440
68935SOL     OW18783  12.839   0.564   0.295  0.0884 -0.1582 -0.1129
68935SOL    HW118784  12.859   0.506   0.369  1.5117 -0.9983 -1.1015
68935SOL    HW218785  12.786   0.634   0.333 -0.7344 -1.4952  1.3538
68936SOL     OW18786   7.080   3.839   9.702  0.7239  0.0186  0.3316
68936SOL    HW118787   7.116   3.810   9.786  1.1254  2.0892  0.9569
68936SOL    HW218788   6.998   3.883   9.726  0.9021  0.7253 -0.3185
68937SOL     OW18789  12.085   3.960   4.816  0.7321 -0.3876  0.0003
68937SOL    HW118790  12.143   3.951   4.892  0.4127 -0.5184  0.2289
68937SOL    HW218791  12.052   4.050   4.820  1.9186  0.1200 -0.8522
68938SOL     OW18792   5.467   4.995   4.123  0.9227 -0.1051  0.5659
68938SOL    HW118793   5.465   5.087   4.151  1.8921 -0.2282  1.0847
68938SOL    HW218794   5.454   4.946   4.205  1.3935 -0.4454  0.4338
68939SOL     OW18795  10.816   1.025   5.459 -0.4390 -0.1648  0.0006
68939SOL    HW118796  10.730   0.983   5.465 -0.6737  0.4607  1.4570
68939SOL    HW218797  10.809   1.103   5.514  1.2903 -0.4849  0.7421
68940SOL     OW18798   3.524   1.653  10.468  0.1148  0.0893  0.3590
68940SOL    HW118799   3.593   1.587  10.469  0.5412  0.5264  0.5111
68940SOL    HW218800   3.559   1.724  10.522 -0.2089  0.5612 -0.0493
68941SOL     OW18801   7.280  13.232  10.137 -0.2454  0.1658  0.9102
68941SOL    HW118802   7.343  13.247  10.207  0.0862  1.4762  0.3606
68941SOL    HW218803   7.195  13.240  10.180 -0.0800 -1.6009  1.6505
68942SOL     OW18804   5.239   1.047   7.211  0.5341 -0.4576  0.0241
68942SOL    HW118805   5.185   1.035   7.133 -0.9464 -2.9233  1.2846
68942SOL    HW218806   5.191   1.002   7.280  2.3745  0.5905  2.1246
68943SOL     OW18807   5.390   6.155   9.257 -0.2148  0.2315 -0.0519
68943SOL    HW118808   5.307   6.175   9.299 -0.2617 -0.0986  0.0125
68943SOL    HW218809   5.366   6.126   9.169 -0.3131 -1.7161  0.5760
68944SOL     OW18810   6.175  11.325   7.268  1.1769 -0.0626  0.4076
68944SOL    HW118811   6.212  11.237   7.261 -2.7204 -1.9729  0.9661
68944SOL    HW218812   6.187  11.349   7.360 -0.6959 -1.6416  1.1430
68945SOL     OW18813   3.849   9.974   2.535 -0.3899 -0.4881 -0.0620
68945SOL    HW118814   3.754   9.980   2.529 -0.5135 -1.7070  0.4574
68945SOL    HW218815   3.867   9.881   2.547  0.7661 -0.1166  1.4653
68946SOL     OW18816   6.253   9.322  13.265 -0.2840 -0.2860  0.2668
68946SOL    HW118817   6.173   9.292  13.308  0.1795  0.1876  1.4778
68946SOL    HW218818   6.222   9.364  13.184 -1.3867  1.1652  1.4007
68947SOL     OW18819   1.938   4.046  10.780  0.2233  0.1142  0.6545
68947SOL    HW118820   1.880   3.978  10.745 -0.3465  1.6677 -1.6370
68947SOL    HW218821   2.021   4.001  10.797  0.3925 -0.9146 -2.3829
68948SOL     OW18822   7.226   2.076   1.335 -0.0209  0.0546  0.4082
68948SOL    HW118823   7.197   2.158   1.374  0.9672  0.2834  0.6994
68948SOL    HW218824   7.320   2.088   1.321  0.0551 -0.8583  0.0305
68949SOL     OW18825   8.404  12.723   4.007  0.3753 -0.0570  0.3980
68949SOL    HW118826   8.369  12.636   4.024  0.3585 -0.2947 -0.7396
68949SOL    HW218827   8.485  12.707   3.958 -0.3800  0.5731 -1.1216
68950SOL     OW18828   9.801   0.811   7.758 -0.5330  0.0690 -0.3773
68950SOL    HW118829   9.732   0.873   7.781  1.3661  3.1899 -2.4202
68950SOL    HW218830   9.769   0.768   7.678 -0.7277  0.4102 -0.4835
68951SOL     OW18831  10.649  11.100   5.728  0.4873  0.0048  0.7235
68951SOL    HW118832  10.674  11.057   5.646 -0.9018 -1.2379  0.9153
68951SOL    HW218833  10.656  11.194   5.709  0.7206 -0.2733 -0.6512
68952SOL     OW18834   0.580  12.239   6.777  0.7311  0.4944 -0.5003
68952SOL    HW118835   0.595  12.191   6.695  0.9206 -1.3700  0.5831
68952SOL    HW218836   0.531  12.317   6.750  1.6260  0.4241 -2.5011
68953SOL     OW18837   7.608   7.978  12.505 -0.9164  0.5743  0.0048
68953SOL    HW118838   7.603   7.935  12.419 -1.1200 -0.2630  0.4249
68953SOL    HW218839   7.695   8.018  12.506 -0.9730  0.7393 -0.6560
68954SOL     OW18840   4.862   8.843   9.562  0.1150 -0.1614 -0.0899
68954SOL    HW118841   4.885   8.917   9.619 -2.0913  0.6159 -0.1183
68954SOL    HW218842   4.768   8.851   9.549 -0.0910 -2.6031 -0.6688
68955SOL     OW18843   5.509   4.525  10.668 -0.2918  0.5024  0.3401
68955SOL    HW118844   5.562   4.597  10.635  0.6537 -0.4752 -0.3222
68955SOL    HW218845   5.439   4.515  10.603  1.2202 -1.0213 -1.1352
68956SOL     OW18846   9.918   7.747  11.802  0.1410 -0.0798 -0.5664
68956SOL    HW118847   9.838   7.695  11.798 -0.1926  0.4694 -1.3083
68956SOL    HW218848   9.971   7.715  11.729 -0.5885  1.4111 -1.8190
68957SOL     OW18849   4.382  10.276   2.748 -0.1554  0.5095  0.0441
68957SOL    HW118850   4.293  10.277   2.781  0.5230 -0.5824  2.0833
68957SOL    HW218851   4.415  10.189   2.771  2.2842  1.7799  1.8616
68958SOL     OW18852  10.696  10.550  12.394  0.2066  0.4073  0.1730
68958SOL    HW118853  10.701  10.552  12.299  1.1625 -1.0444  0.1623
68958SOL    HW218854  10.756  10.480  12.420  0.4297  1.1785  1.8817
68959SOL     OW18855   2.545   7.152   7.176 -0.4477  0.2228 -0.3925
68959SOL    HW118856   2.626   7.202   7.182  0.4096 -1.1935  0.1212
68959SOL    HW218857   2.480   7.207   7.220  0.7227  0.3861  1.1956
68960SOL     OW18858  12.604   3.320  11.502  0.0987 -0.0765 -0.4420
68960SOL    HW118859  12.545   3.350  11.433  1.1219 -0.1341 -1.3721
68960SOL    HW218860  12.581   3.228  11.515 -3.0312  0.8739  2.3936
68961SOL     OW18861  11.162   3.112   4.361 -0.2062 -0.3535 -0.2394
68961SOL    HW118862  11.230   3.051   4.392  0.5860  1.2035  1.2341
68961SOL    HW218863  11.190   3.136   4.273  0.5537 -0.6081 -0.0784
68962SOL     OW18864   1.546   9.173   3.828  0.0181  0.0947 -0.2488
68962SOL    HW118865   1.467   9.127   3.857  0.2136  0.5532  1.0544
68962SOL    HW218866   1.612   9.153   3.894 -0.0287  2.5943  0.6625
68963SOL     OW18867   9.567  10.718  11.800 -0.3592  0.0818  0.0894
68963SOL    HW118868   9.486  10.765  11.816 -1.5950 -1.8665 -0.0907
68963SOL    HW218869   9.618  10.777  11.744 -1.3647  1.6004  0.7124
68964SOL     OW18870  11.514  12.790   3.463  0.2288 -0.1235  0.4065
68964SOL    HW118871  11.465  12.818   3.541 -0.3181  0.7428 -0.2303
68964SOL    HW218872  11.453  12.736   3.414 -0.2742  1.3279 -0.6120
68965SOL     OW18873   9.056   0.234   5.243 -0.3395 -0.6690 -0.4793
68965SOL    HW118874   9.060   0.321   5.283 -3.2811 -0.5043 -0.3256
68965SOL    HW218875   9.137   0.227   5.192  0.5032  1.6828  0.4112
68966SOL     OW18876  11.682  13.648   6.958 -0.2858  0.3328 -0.0162
68966SOL    HW118877  11.604  13.701   6.970  0.5241  1.5905 -0.1672
68966SOL    HW218878  11.659  13.563   6.995 -1.9650  0.4400 -0.7066
68967SOL     OW18879   4.212   7.183   0.759  0.3434 -0.0125  0.2102
68967SOL    HW118880   4.135   7.196   0.703  0.8011 -1.0477 -0.6733
68967SOL    HW218881   4.279   7.240   0.721  0.4804 -0.2807  0.0488
68968SOL     OW18882   8.132   2.954   0.564  0.1616  0.2986 -0.2338
68968SOL    HW118883   8.201   2.892   0.541 -1.6193 -1.3230 -1.5164
68968SOL    HW218884   8.111   2.999   0.483 -1.4903 -0.5620 -0.3461
68969SOL     OW18885  12.116   4.586   3.424 -0.0423 -0.3803 -0.0369
68969SOL    HW118886  12.191   4.591   3.364 -0.6070 -0.2876 -0.7398
68969SOL    HW218887  12.060   4.518   3.388 -0.5917 -0.0383  0.1470
68970SOL     OW18888   2.925   1.178   1.319 -0.0671  0.3219  0.0323
68970SOL    HW118889   2.872   1.226   1.255  1.0804  2.1106  0.3714
68970SOL    HW218890   2.985   1.126   1.266 -2.5581 -2.3725 -0.3890
68971SOL     OW18891   7.485  12.708   3.216 -0.5165  0.0706 -0.0810
68971SOL    HW118892   7.555  12.657   3.257 -1.3126 -1.1323 -0.1680
68971SOL    HW218893   7.486  12.681   3.124 -0.2770  1.0135 -0.3723
68972SOL     OW18894   0.256  13.029   2.774  0.0160 -0.4049 -0.0496
68972SOL    HW118895   0.298  12.950   2.740  1.8676  1.4586 -2.5741
68972SOL    HW218896   0.320  13.065   2.836  0.6115  0.5645 -1.1664
68973SOL     OW18897   3.683   7.187   4.417 -0.1890 -0.3187  0.2752
68973SOL    HW118898   3.719   7.273   4.437 -1.4867 -0.3797  3.4578
68973SOL    HW218899   3.629   7.201   4.340 -0.6924  1.8340  0.9621
68974SOL     OW18900   0.171   1.549  13.711  0.4605  0.0390 -0.5475
68974SOL    HW118901   0.221   1.468  13.705 -0.9238 -0.7343 -2.2612
68974SOL    HW218902   0.237   1.615  13.734  1.5792 -1.5439  1.1623
68975SOL     OW18903   4.661   3.084   9.241 -0.0950  0.4644 -0.3510
68975SOL    HW118904   4.580   3.047   9.277  1.1730 -0.3438  1.8116
68975SOL    HW218905   4.727   3.017   9.256  1.3656  1.8428 -0.4015
68976SOL     OW18906   7.256   5.234  11.826  0.5853 -0.2813  0.0154
68976SOL    HW118907   7.322   5.169  11.804  0.8360 -0.4289  1.1464
68976SOL    HW218908   7.176   5.183  11.844  0.1306 -0.1024 -1.3796
68977SOL     OW18909  12.357   3.476   7.395 -0.2172  0.0630 -0.1983
68977SOL    HW118910  12.395   3.404   7.446 -0.2157 -0.3328 -0.7532
68977SOL    HW218911  12.263   3.468   7.409 -0.1544  0.5849  0.5703
68978SOL     OW18912   4.959   5.014   6.820  0.1581  0.4012  0.3664
68978SOL    HW118913   4.989   4.986   6.907 -0.2401  1.0768  0.7317
68978SOL    HW218914   4.896   5.085   6.838 -1.3761 -0.7107 -0.3904
68979SOL     OW18915   6.214   9.060  12.468 -0.2218 -0.6675 -0.3398
68979SOL    HW118916   6.287   9.020  12.422 -0.2159 -1.3627  0.2645
68979SOL    HW218917   6.247   9.076  12.556 -0.7087 -0.7254 -0.1452
68980SOL     OW18918  13.299   1.951   3.479 -0.0251 -0.0261 -0.1588
68980SOL    HW118919  13.277   2.036   3.442 -3.0567 -1.0725 -1.0026
68980SOL    HW218920  13.370   1.918   3.422  0.7236  1.5985 -0.2140
68981SOL     OW18921  10.357   0.689   8.737  0.2908  0.5798  0.4127
68981SOL    HW118922  10.436   0.635   8.729  0.2110  0.6174 -0.7649
68981SOL    HW218923  10.303   0.641   8.800  1.4047  0.7672  1.5634
68982SOL     OW18924   2.870   0.712   9.242 -0.8705 -0.1921  0.1808
68982SOL    HW118925   2.791   0.662   9.265 -2.3450  0.9770 -2.0246
68982SOL    HW218926   2.883   0.696   9.149  1.8476 -0.6967  0.5578
68983SOL     OW18927  13.612  13.245   9.567  0.0963 -0.7802  0.1503
68983SOL    HW118928  13.545  13.269   9.631  0.2411 -1.1603  0.4521
68983SOL    HW218929  13.570  13.255   9.482  0.6086  2.1050  0.1425
68984SOL     OW18930  10.812   8.283   8.140  0.1011  0.1600 -0.1426
68984SOL    HW118931  10.747   8.226   8.179 -0.5749  1.8678  1.3719
68984SOL    HW218932  10.886   8.282   8.202  0.9738 -0.6682 -1.1502
68985SOL     OW18933   3.051   9.858   9.086 -0.3883 -0.4217 -0.9565
68985SOL    HW118934   3.047   9.767   9.115 -1.1963 -0.3691 -0.8815
68985SOL    HW218935   2.959   9.885   9.080 -0.1541  0.7632  0.2046
68986SOL     OW18936   3.666   0.651   3.171 -0.6383 -0.0374 -0.1975
68986SOL    HW118937   3.679   0.726   3.113  1.8769 -0.8629 -0.8178
68986SOL    HW218938   3.585   0.610   3.139 -1.7842  2.0451 -0.1603
68987SOL     OW18939   5.701   9.540   3.993  0.2641  0.0641  0.7187
68987SOL    HW118940   5.679   9.454   3.958 -0.3457  0.1823  0.8011
68987SOL    HW218941   5.649   9.548   4.073 -1.1562  1.2593 -0.2836
68988SOL     OW18942   9.779   3.383   4.423  0.7272 -0.0393  0.6361
68988SOL    HW118943   9.743   3.409   4.508  0.2356  0.3068  0.3252
68988SOL    HW218944   9.874   3.388   4.435  0.6985  2.5523  0.4130
68989SOL     OW18945   5.964   9.660  13.889 -0.4960  0.1143 -0.0024
68989SOL    HW118946   5.951   9.584  13.945  0.8521  0.5764  1.0042
68989SOL    HW218947   5.958   9.735  13.948  0.6806  0.6370 -0.5054
68990SOL     OW18948   1.007   7.584   6.982 -0.0619 -0.6758  0.7755
68990SOL    HW118949   0.973   7.514   6.926  0.3501 -0.2456 -0.0450
68990SOL    HW218950   0.961   7.575   7.065  0.2992 -2.1900  0.8287
68991SOL     OW18951   5.130  13.779   3.225  0.2333 -0.0222  0.2879
68991SOL    HW118952   5.220  13.746   3.227  0.4613  0.5753  0.0755
68991SOL    HW218953   5.123  13.835   3.302  0.2059  0.3442  0.0220
68992SOL     OW18954   7.914   2.998  12.405  0.1977 -0.4215  0.0303
68992SOL    HW118955   8.004   3.029  12.408  0.2527 -0.5290 -0.3750
68992SOL    HW218956   7.863   3.067  12.447  0.6261 -0.9972  1.5316
68993SOL     OW18957  10.370  11.747   2.639  0.0015 -0.3533 -0.2993
68993SOL    HW118958  10.398  11.837   2.623 -0.5184 -0.4878 -2.2628
68993SOL    HW218959  10.283  11.755   2.678  0.5750 -0.0081  0.9422
68994SOL     OW18960   9.447   7.761   3.703 -0.3022  0.3134 -0.0005
68994SOL    HW118961   9.513   7.715   3.651 -0.8389 -0.3590 -0.1057
68994SOL    HW218962   9.364   7.722   3.675 -0.5563 -0.5139  1.7947
68995SOL     OW18963  13.329   3.328   5.644 -0.1212 -0.3223 -0.6573
68995SOL    HW118964  13.330   3.328   5.740  2.1218  0.1024 -0.6152
68995SOL    HW218965  13.278   3.406   5.621  2.7670  2.0640  0.3531
68996SOL     OW18966  11.453  12.521  11.995  0.7931  0.8366  0.5283
68996SOL    HW118967  11.530  12.465  11.980 -0.1890 -0.0084 -1.8373
68996SOL    HW218968  11.451  12.579  11.919 -0.5128  1.3610  0.9421
68997SOL     OW18969   3.456   3.418   9.168 -0.3411  0.4198 -0.1334
68997SOL    HW118970   3.405   3.466   9.233  0.2947  1.0320 -0.0834
68997SOL    HW218971   3.499   3.486   9.116  0.8318 -0.0904  0.1453
68998SOL     OW18972  10.566   0.257   5.767  0.8210  0.1767  0.1941
68998SOL    HW118973  10.567   0.173   5.721  0.9950 -0.4466  1.2767
68998SOL    HW218974  10.489   0.302   5.734  1.0137 -0.1916 -0.7798
68999SOL     OW18975   5.729   0.488   9.362  0.0885  0.1804  0.2464
68999SOL    HW118976   5.700   0.579   9.366  1.2714  0.6757 -1.4191
68999SOL    HW218977   5.731   0.468   9.268  1.7861 -0.9046  0.4805
69000SOL     OW18978   8.733  10.655   2.777 -0.4552 -0.0834  0.2921
69000SOL    HW118979   8.823  10.684   2.760 -0.2965 -1.7152 -2.1137
69000SOL    HW218980   8.729  10.642   2.872  1.5812  0.8096  0.5445
69001SOL     OW18981   9.824   2.790   7.063  0.6936  0.2737 -0.2327
69001SOL    HW118982   9.803   2.706   7.023  1.0025 -0.3907  0.9526
69001SOL    HW218983   9.757   2.850   7.030 -0.0694 -0.6514 -0.4019
69002SOL     OW18984   5.723  12.491  12.750 -0.2922  0.0118 -0.4086
69002SOL    HW118985   5.642  12.533  12.779 -0.3458  0.0995 -0.6848
69002SOL    HW218986   5.736  12.523  12.661  0.6263  0.8628  0.0082
69003SOL     OW18987  12.116   3.220   5.967 -0.6589  0.0772 -0.4223
69003SOL    HW118988  12.063   3.275   6.026  0.9851  1.4173 -0.1331
69003SOL    HW218989  12.138   3.277   5.894 -2.8351 -1.6177 -2.5732
69004SOL     OW18990   8.493   5.680   6.731  0.6835  0.0500 -0.1546
69004SOL    HW118991   8.530   5.734   6.802 -0.4830 -1.1310  1.4209
69004SOL    HW218992   8.447   5.742   6.675  2.8878  1.2218 -0.7943
69005SOL     OW18993   9.781   2.657   1.717 -0.2832 -0.1621  0.4291
69005SOL    HW118994   9.736   2.655   1.802  1.8954 -0.1746  1.6460
69005SOL    HW218995   9.817   2.745   1.711 -1.5178  0.2965 -1.1638
69006SOL     OW18996   2.926   0.714  11.995  0.1323  0.0468  0.5695
69006SOL    HW118997   2.868   0.639  12.006  0.8053 -0.7780 -1.0922
69006SOL    HW218998   2.876   0.789  12.028 -0.5543 -1.0957  2.2749
69007SOL     OW18999  13.232  12.910   8.436  0.5015  1.0787  0.2730
69007SOL    HW119000  13.236  12.823   8.475  1.0544  0.6394 -0.7194
69007SOL    HW219001  13.309  12.914   8.379 -0.4907  1.5221 -1.0924
69008SOL     OW19002   5.427  12.302   7.605  0.6199 -0.4012 -0.1456
69008SOL    HW119003   5.495  12.271   7.546 -0.1745 -0.3973 -1.0912
69008SOL    HW219004   5.353  12.242   7.591  0.7764 -1.1098  1.6838
69009SOL     OW19005   3.787  11.181   6.811  1.0278 -0.0867 -0.4023
69009SOL    HW119006   3.815  11.232   6.735 -0.5514  0.4378 -0.6908
69009SOL    HW219007   3.800  11.239   6.885 -0.6821  0.7721 -0.7195
69010SOL     OW19008   5.964   1.733   3.223  0.2990 -0.1661  0.0677
69010SOL    HW119009   6.019   1.656   3.232  1.4264  0.4627 -1.1718
69010SOL    HW219010   5.879   1.699   3.195  1.0426 -0.9270 -1.3983
69011SOL     OW19011  13.387   0.282  10.535 -0.0257  0.9424 -0.7801
69011SOL    HW119012  13.342   0.208  10.494 -1.3347  1.0142  0.4463
69011SOL    HW219013  13.367   0.273  10.628 -0.4653  3.0227 -0.6400
69012SOL     OW19014   4.741   5.265   3.235 -0.3043  1.0105  0.1131
69012SOL    HW119015   4.670   5.201   3.224  0.1436  0.4907  0.2229
69012SOL    HW219016   4.697   5.345   3.266 -0.6497  0.2014  1.8045
69013SOL     OW19017   4.737   6.200  10.509  0.4839 -0.1194 -0.1867
69013SOL    HW119018   4.777   6.116  10.528 -0.1712 -0.6396 -1.0437
69013SOL    HW219019   4.804   6.264  10.533  0.9085 -0.8638  0.6685
69014SOL     OW19020  13.412  11.408  13.047  0.1737  0.3966  0.3899
69014SOL    HW119021  13.458  11.359  12.979 -4.0107  0.2251 -2.7301
69014SOL    HW219022  13.403  11.497  13.012 -3.4902 -0.0885 -0.3277
69015SOL     OW19023   3.358   1.134  10.742  0.1922 -0.1244 -0.7851
69015SOL    HW119024   3.407   1.209  10.711  0.6020 -0.6663 -1.4629
69015SOL    HW219025   3.376   1.131  10.836  0.4774  0.3926 -0.8216
69016SOL     OW19026   3.863  10.904  12.627  0.6206 -0.0205 -0.1305
69016SOL    HW119027   3.917  10.982  12.639  1.5370 -0.8179  1.1512
69016SOL    HW219028   3.832  10.882  12.715  1.9730 -2.1972 -0.1236
69017SOL     OW19029   6.527   1.842   1.517  0.2540  0.5174 -0.6401
69017SOL    HW119030   6.590   1.883   1.457  0.5563  0.9660 -0.0325
69017SOL    HW219031   6.561   1.754   1.532  0.3129  0.4922 -0.9315
69018SOL     OW19032   1.801  12.689   8.449  0.4636 -0.6336 -0.6059
69018SOL    HW119033   1.844  12.644   8.375  0.5494  0.4668 -1.2504
69018SOL    HW219034   1.836  12.645   8.527 -0.0071 -2.1566 -1.2126
69019SOL     OW19035   4.793   1.830   3.660  0.0549 -0.1821  0.8715
69019SOL    HW119036   4.842   1.908   3.686  0.1543  0.3118 -0.6663
69019SOL    HW219037   4.778   1.782   3.741  0.0557  1.4000  1.8499
69020SOL     OW19038  14.020   2.502   6.888  0.2078 -0.1614 -0.3732
69020SOL    HW119039  14.104   2.517   6.844 -0.6179  0.1524 -1.9053
69020SOL    HW219040  13.963   2.468   6.819 -1.5873  1.7729  0.0827
69021SOL     OW19041   9.421   1.546   6.047 -0.3558  0.4286  0.1469
69021SOL    HW119042   9.440   1.547   5.953  1.3050 -0.2038  0.4614
69021SOL    HW219043   9.443   1.458   6.076  0.0691  0.8985  1.3162
69022SOL     OW19044   1.544  11.410  13.134 -0.1701 -0.2643 -0.2962
69022SOL    HW119045   1.562  11.333  13.188  0.1288 -0.0846 -0.1361
69022SOL    HW219046   1.458  11.440  13.164  0.9357  1.1614  1.6836
69023SOL     OW19047  12.607  12.657   9.762  0.2493  0.9604  0.1806
69023SOL    HW119048  12.652  12.740   9.779  1.4547  0.7043 -1.5405
69023SOL    HW219049  12.517  12.683   9.743 -0.3772  1.5106  3.3190
69024SOL     OW19050   7.030  12.928  13.554  0.1387  0.1212  1.0138
69024SOL    HW119051   7.026  12.850  13.499  2.1628  0.4695  0.3139
69024SOL    HW219052   6.955  12.981  13.526  0.7174 -0.0186 -0.9303
69025SOL     OW19053  10.887  13.490   4.578 -0.0469 -0.0414  0.1626
69025SOL    HW119054  10.896  13.395   4.573  0.9294 -0.3156  3.9123
69025SOL    HW219055  10.793  13.504   4.589 -0.4667 -0.2921 -2.4155
69026SOL     OW19056   6.917   7.476   2.322 -0.6435  0.1519 -0.4675
69026SOL    HW119057   6.918   7.383   2.343 -0.0398  0.5316  1.3378
69026SOL    HW219058   6.825   7.496   2.305 -0.7000 -0.8783 -1.5566
69027SOL     OW19059  11.689   7.386   8.397  0.1236  0.8117  0.0659
69027SOL    HW119060  11.620   7.325   8.424  0.4627 -0.1641 -1.1502
69027SOL    HW219061  11.738   7.403   8.477 -0.7572  0.5049  0.6885
69028SOL     OW19062   7.076  13.660   9.801  0.1289 -0.1292  0.1518
69028SOL    HW119063   6.981  13.658   9.792  0.0553  2.0529 -0.0906
69028SOL    HW219064   7.092  13.678   9.893  0.3526 -1.1463  0.3265
69029SOL     OW19065   0.034   3.522  12.990 -0.0654 -0.3897 -0.0081
69029SOL    HW119066   0.093   3.566  13.051  0.8315  0.0244 -1.1400
69029SOL    HW219067   0.091   3.491  12.919 -1.1373 -0.3568 -0.9156
69030SOL     OW19068   8.175   5.619   7.212  0.4528 -0.9891  0.6170
69030SOL    HW119069   8.088   5.629   7.251 -0.2943 -3.6027 -0.1825
69030SOL    HW219070   8.217   5.552   7.265  0.0607 -3.3587 -1.8550
69031SOL     OW19071  13.030  12.147   5.424  0.2497  0.0466 -0.0452
69031SOL    HW119072  13.006  12.193   5.344 -1.2224  2.4318  1.6300
69031SOL    HW219073  12.952  12.098   5.448  0.5545 -0.3544  0.1410
69032SOL     OW19074   1.852   9.810  12.005  0.1109 -0.1796 -0.2368
69032SOL    HW119075   1.801   9.805  11.924 -0.8830 -2.1139  0.4324
69032SOL    HW219076   1.792   9.851  12.068  0.3362 -0.0438 -0.1106
69033SOL     OW19077  11.718   1.584   6.566  0.0692 -0.5126  0.4387
69033SOL    HW119078  11.753   1.579   6.477 -2.1127 -1.7385 -0.4310
69033SOL    HW219079  11.688   1.675   6.574 -0.4221 -0.5864 -0.3970
69034SOL     OW19080  10.564   8.775   8.484 -0.4222  0.0092 -0.4485
69034SOL    HW119081  10.554   8.854   8.537 -1.9458 -0.6901  0.3757
69034SOL    HW219082  10.565   8.703   8.547 -1.1982 -0.7618 -1.2768
69035SOL     OW19083   9.425   1.716   2.499 -0.2996  0.1951 -0.6058
69035SOL    HW119084   9.424   1.650   2.430 -1.6671 -1.5094  0.9092
69035SOL    HW219085   9.480   1.677   2.568  2.4013  2.5531 -1.2536
69036SOL     OW19086   6.392   8.768   1.608  0.9907 -0.2188  0.6120
69036SOL    HW119087   6.407   8.736   1.519  0.5641  0.6496  0.2168
69036SOL    HW219088   6.334   8.703   1.647  1.4432 -0.7759  0.3629
69037SOL     OW19089   1.231   1.898  10.811 -0.1819  0.1503  0.2336
69037SOL    HW119090   1.256   1.945  10.890  1.1256 -1.2757  0.7119
69037SOL    HW219091   1.198   1.814  10.842  1.9780 -1.1552 -0.7199
69038SOL     OW19092  11.408  10.551   6.948 -0.3570  0.1003  0.2569
69038SOL    HW119093  11.393  10.480   6.885 -0.8788 -0.2014  0.7017
69038SOL    HW219094  11.485  10.597   6.915 -0.3620 -0.3176 -0.3614
69039SOL     OW19095   1.847  12.193   9.647 -0.6674 -0.0516  0.5499
69039SOL    HW119096   1.808  12.245   9.717 -0.5541  1.1430 -0.2570
69039SOL    HW219097   1.777  12.135   9.618 -1.8242  1.8637 -0.6813
69040SOL     OW19098   9.074   2.684   8.038 -1.0572 -0.0908  0.7234
69040SOL    HW119099   9.051   2.619   8.104 -0.6573  0.0568  1.0147
69040SOL    HW219100   9.075   2.767   8.086 -0.3350 -0.0417  0.6279
69041SOL     OW19101   0.238   5.834  13.194  0.1966 -0.4221  0.5773
69041SOL    HW119102   0.266   5.919  13.226 -1.5923  1.5356 -2.6007
69041SOL    HW219103   0.292   5.817  13.117 -0.7803 -1.1942  0.0285
69042SOL     OW19104   1.076   7.465  12.540  0.0028  0.2355  0.0635
69042SOL    HW119105   1.137   7.538  12.543  0.1016  0.3513 -2.4740
69042SOL    HW219106   1.030   7.475  12.457 -4.1309  0.5827  2.1530
69043SOL     OW19107   6.579  12.724   0.069  0.1435 -0.3483  0.1325
69043SOL    HW119108   6.651  12.784   0.054  0.2310 -0.0603  1.5643
69043SOL    HW219109   6.562  12.729   0.163 -0.8174 -1.4591  0.0510
69044SOL     OW19110   0.020   1.635  11.832  0.2400  0.7812  0.0037
69044SOL    HW119111  -0.063   1.677  11.810  0.4152  0.8802 -0.4834
69044SOL    HW219112   0.082   1.671  11.769  0.1701 -0.9808 -1.1515
69045SOL     OW19113   3.199   0.021   0.938  0.1475  0.3176  0.1774
69045SOL    HW119114   3.138   0.055   0.872  0.1867 -0.4145 -0.2486
69045SOL    HW219115   3.248  -0.048   0.892 -1.2216 -1.6315  1.4725
69046SOL     OW19116   8.133   4.874   2.257 -0.2412 -0.2144 -0.3017
69046SOL    HW119117   8.175   4.879   2.171 -2.2522  0.4290 -1.3177
69046SOL    HW219118   8.122   4.966   2.283 -1.6833 -0.3207 -0.4502
69047SOL     OW19119  13.617   0.639  13.636 -0.0186  0.6741  0.1160
69047SOL    HW119120  13.692   0.696  13.616 -0.5861  0.7091 -2.1771
69047SOL    HW219121  13.540   0.690  13.611 -0.6789 -0.1742  0.3643
69048SOL     OW19122   6.095   8.911   9.026 -0.4953  0.4333  0.1966
69048SOL    HW119123   6.006   8.915   8.990 -1.0677 -0.5598  1.4430
69048SOL    HW219124   6.083   8.916   9.121  0.8062  0.4873  0.3812
69049SOL     OW19125  11.913   6.048  11.142  0.0853  0.0933  0.6219
69049SOL    HW119126  11.862   6.076  11.066  1.2203 -2.1481 -1.0675
69049SOL    HW219127  11.884   5.958  11.159  1.0359 -0.0222  1.7981
69050SOL     OW19128   2.083   7.599   1.480 -0.0809 -0.5865 -0.4661
69050SOL    HW119129   1.996   7.580   1.445  0.0275 -0.9570 -0.5381
69050SOL    HW219130   2.108   7.520   1.528 -1.0733  0.6118  2.2035
69051SOL     OW19131   4.317   2.286   7.450  0.1674 -0.0428  0.2819
69051SOL    HW119132   4.401   2.326   7.428  0.9423 -1.8310 -0.1813
69051SOL    HW219133   4.275   2.349   7.510  1.7617  0.9396  0.4205
69052SOL     OW19134   9.134   9.747   3.381 -0.4173  0.2567 -0.4549
69052SOL    HW119135   9.120   9.674   3.441  1.5042  0.2116  0.0225
69052SOL    HW219136   9.123   9.709   3.294  1.1124 -0.8084 -0.2352
69053SOL     OW19137  13.603   1.284   9.218 -0.2557  0.3751  0.0913
69053SOL    HW119138  13.660   1.350   9.177  0.1383  0.5551  0.9060
69053SOL    HW219139  13.514   1.314   9.199 -0.0764  0.9522  0.1460
69054SOL     OW19140   4.643   2.552   0.459  0.2236  0.3197  0.2547
69054SOL    HW119141   4.720   2.608   0.450  1.2136 -1.3242 -2.5448
69054SOL    HW219142   4.570   2.607   0.430  0.6048  1.2179  0.9280
69055SOL     OW19143   0.561  12.767  11.978  0.4329 -0.2004 -0.1138
69055SOL    HW119144   0.466  12.757  11.985  0.5518 -0.3712  1.8942
69055SOL    HW219145   0.594  12.677  11.970  0.5862 -0.5847  3.1652
69056SOL     OW19146  12.065   9.153  10.994  0.0962  0.3001 -0.1874
69056SOL    HW119147  12.055   9.153  11.089 -2.9850 -0.7024 -0.4004
69056SOL    HW219148  12.146   9.105  10.978  0.8732  0.8171  1.8979
69057SOL     OW19149  11.549   4.296  12.978  0.1884 -0.0640  0.0662
69057SOL    HW119150  11.465   4.338  12.997  0.7753  1.6838 -0.9042
69057SOL    HW219151  11.609   4.332  13.043  0.3730 -0.6465  0.2197
69058SOL     OW19152   7.863   7.779   9.554  0.0345 -0.2585  0.0149
69058SOL    HW119153   7.871   7.691   9.591 -0.6392  0.2532  1.4449
69058SOL    HW219154   7.917   7.777   9.475  0.9626 -1.6096  0.6497
69059SOL     OW19155   1.775  11.272   5.174  0.0508  0.0435 -0.4117
69059SOL    HW119156   1.834  11.197   5.180  0.1368  0.1555  0.2252
69059SOL    HW219157   1.824  11.344   5.215  0.0512  0.4970 -1.2010
69060SOL     OW19158  11.439  11.012  13.934 -0.2088 -0.0552 -0.1081
69060SOL    HW119159  11.425  11.107  13.931  0.4363  0.0715  0.6112
69060SOL    HW219160  11.441  10.985  13.842  0.0684  0.7043 -0.3324
69061SOL     OW19161  13.393   8.105   9.344 -0.4983 -0.2537  0.2970
69061SOL    HW119162  13.450   8.174   9.377 -0.0822 -1.1246  1.4775
69061SOL    HW219163  13.313   8.150   9.317  0.1309  0.7898  0.1451
69062SOL     OW19164   3.395   7.782  13.595 -0.0238  0.3861  0.1800
69062SOL    HW119165   3.447   7.770  13.675 -0.5149 -1.9014  0.2464
69062SOL    HW219166   3.306   7.800  13.627 -0.4440 -1.5596  0.2461
69063SOL     OW19167  13.316   0.396   9.275 -0.2663  0.5928  0.1847
69063SOL    HW119168  13.302   0.459   9.345 -0.7907 -1.4498  2.0317
69063SOL    HW219169  13.241   0.336   9.281 -1.5373  1.5255 -3.5939
69064SOL     OW19170   6.929   9.180   1.799  0.4869  0.3122  0.0979
69064SOL    HW119171   6.852   9.135   1.765  0.8184  0.0997 -0.3698
69064SOL    HW219172   6.900   9.217   1.883  0.3450 -1.1752  0.7392
69065SOL     OW19173   9.507  13.039   6.569  0.1960  0.0975 -0.0436
69065SOL    HW119174   9.600  13.048   6.589  0.7678 -1.4442 -1.6982
69065SOL    HW219175   9.477  12.966   6.623  0.7399 -1.3601 -1.5972
69066SOL     OW19176   1.112   6.476  13.765  0.0248 -0.0209 -0.3078
69066SOL    HW119177   1.057   6.402  13.791 -0.1304  0.2897  0.2526
69066SOL    HW219178   1.174   6.439  13.701 -1.4990 -0.1588 -1.7749
69067SOL     OW19179   2.965   8.898  13.893 -0.1594 -0.0727  0.1565
69067SOL    HW119180   2.874   8.920  13.873 -0.1348 -0.4886 -0.4394
69067SOL    HW219181   2.989   8.956  13.965 -0.0381  2.0497 -1.4803
69068SOL     OW19182   0.443   6.155  10.558  0.3926  0.3112 -0.5918
69068SOL    HW119183   0.375   6.096  10.525  0.9051  0.2309 -1.5344
69068SOL    HW219184   0.423   6.239  10.518  1.2856  0.1055 -1.5147
69069SOL     OW19185   0.050  10.204   7.606 -0.3006 -0.5236  0.2248
69069SOL    HW119186  -0.036  10.228   7.639  0.0795 -1.0289  1.6430
69069SOL    HW219187   0.105  10.281   7.622 -0.5159 -0.1291 -0.8560
69070SOL     OW19188  10.683  13.635   5.314  0.2348 -0.2771 -0.2538
69070SOL    HW119189  10.632  13.556   5.293  0.4567 -0.1692 -1.2153
69070SOL    HW219190  10.752  13.637   5.248  0.8747  0.1446  0.4219
69071SOL     OW19191  13.247   6.390  10.871  0.1240 -0.0461  0.1571
69071SOL    HW119192  13.333   6.430  10.875  0.6174 -0.9198 -1.0544
69071SOL    HW219193  13.221   6.400  10.779 -0.2514 -1.4358  0.1030
69072SOL     OW19194  13.587   7.950   9.198  0.5522  0.1590  0.8967
69072SOL    HW119195  13.569   7.856   9.196  1.9352 -0.1193  0.1926
69072SOL    HW219196  13.520   7.986   9.256 -1.8380 -0.8303 -1.0858
69073SOL     OW19197  10.096  10.363   6.838 -0.2440 -0.2831  0.1923
69073SOL    HW119198  10.062  10.276   6.857  0.7098 -1.1058 -1.6316
69073SOL    HW219199  10.046  10.394   6.763  2.1395 -1.0940 -1.8760
69074SOL     OW19200   3.113   2.226   2.221 -0.4807  0.1733 -0.0509
69074SOL    HW119201   3.019   2.236   2.208 -0.3501  0.7387 -0.5624
69074SOL    HW219202   3.148   2.208   2.134  0.2555  2.9767 -0.4212
69075SOL     OW19203   1.461  10.074   9.895  0.2069  0.1119  0.2863
69075SOL    HW119204   1.475   9.991   9.941 -0.2915 -0.4771 -0.6035
69075SOL    HW219205   1.491  10.141   9.957  0.5860 -0.7254  1.0261
69076SOL     OW19206   9.678  11.083   3.070  0.2365 -0.2745 -0.4112
69076SOL    HW119207   9.720  11.103   3.153 -0.5325 -1.2289  0.2344
69076SOL    HW219208   9.682  11.165   3.020  3.0293 -0.3847 -0.5025
69077SOL     OW19209   7.933   2.478   3.554 -0.1785  0.4219  0.2568
69077SOL    HW119210   7.876   2.528   3.496 -0.2641 -0.1677 -0.1700
69077SOL    HW219211   7.971   2.544   3.612 -0.5271  0.9428 -0.0971
69078SOL     OW19212   9.178   1.429   6.843  0.4563  0.4211  0.0419
69078SOL    HW119213   9.095   1.473   6.827  1.1456  1.8056  0.1381
69078SOL    HW219214   9.195   1.379   6.763 -1.1764 -1.1014  0.5923
69079SOL     OW19215   0.198   0.533  11.135 -0.7693 -0.0354  0.0610
69079SOL    HW119216   0.119   0.575  11.102 -0.2215  2.0587  1.1966
69079SOL    HW219217   0.257   0.531  11.059 -1.0268  0.7410 -0.1722
69080SOL     OW19218   5.820   2.889  12.329  0.4978 -0.2250 -0.1804
69080SOL    HW119219   5.900   2.837  12.339  1.7656  0.9683 -2.9945
69080SOL    HW219220   5.812   2.938  12.411  2.9661  0.0159 -0.0195
69081SOL     OW19221   2.458  10.028  12.089 -0.5686  0.2681  0.1660
69081SOL    HW119222   2.396   9.997  12.024 -0.4738  0.2733  0.0717
69081SOL    HW219223   2.432   9.984  12.170 -0.4543 -0.0370  0.0415
69082SOL     OW19224   4.355  12.252   5.781  0.5021 -0.3757 -0.3083
69082SOL    HW119225   4.266  12.242   5.748  0.6533 -0.6269 -0.6495
69082SOL    HW219226   4.344  12.277   5.873  0.0755 -1.7093  0.0287
69083SOL     OW19227  11.223   5.301  12.253 -0.7234  0.0618  0.2816
69083SOL    HW119228  11.248   5.209  12.256  0.5647  0.3288 -1.0139
69083SOL    HW219229  11.135   5.304  12.292 -0.5293 -1.6025  0.9013
69084SOL     OW19230   2.675   1.791  13.206 -0.2862 -0.1993 -0.2281
69084SOL    HW119231   2.700   1.721  13.146 -0.2877  0.9834 -1.6833
69084SOL    HW219232   2.689   1.755  13.293 -1.1551 -2.3140 -0.8970
69085SOL     OW19233   9.300   2.739   3.069  0.1823  0.4182  0.1535
69085SOL    HW119234   9.246   2.771   3.142 -0.1250 -2.5194  1.3713
69085SOL    HW219235   9.263   2.653   3.049  2.1812 -0.1296 -1.4800
69086SOL     OW19236   6.855   3.532   0.971  0.2704  0.4090 -0.0108
69086SOL    HW119237   6.921   3.485   1.022 -0.6243  0.7128  1.5057
69086SOL    HW219238   6.891   3.619   0.958  0.8477  0.0868 -0.6117
69087SOL     OW19239   4.897   4.646  12.240  0.3430 -0.1679 -0.2371
69087SOL    HW119240   4.976   4.673  12.287  1.1811 -0.9182 -1.1684
69087SOL    HW219241   4.901   4.693  12.157 -2.3640  3.0383  1.2186
69088SOL     OW19242   5.120   5.967  10.739  0.7929 -0.2758 -0.3901
69088SOL    HW119243   5.147   6.059  10.733 -0.4650  0.0764 -0.9113
69088SOL    HW219244   5.190   5.919  10.694  1.4972  0.4046 -0.0510
69089SOL     OW19245   4.823  11.927   7.424 -0.3958  0.2221  0.0706
69089SOL    HW119246   4.771  11.933   7.344  0.8120 -1.6427 -0.9526
69089SOL    HW219247   4.907  11.966   7.401 -0.1575 -0.0096  0.5298
69090SOL     OW19248   0.097   6.788   1.419  0.2574  0.0388 -0.5410
69090SOL    HW119249   0.072   6.756   1.505  1.1940 -0.0405 -0.2870
69090SOL    HW219250   0.144   6.870   1.436  0.1246  0.2140 -0.9958
69091SOL     OW19251   8.784   1.298   8.270  0.0125  0.7949  0.5299
69091SOL    HW119252   8.846   1.275   8.339 -0.4651  2.1683  1.4667
69091SOL    HW219253   8.835   1.351   8.208  0.3896 -0.2645 -0.0972
69092SOL     OW19254   9.042  10.169  11.927 -0.4408  0.5451 -0.1086
69092SOL    HW119255   9.012  10.082  11.952  0.7975  0.2630  0.4345
69092SOL    HW219256   8.998  10.228  11.988 -0.0719  0.1581  0.5369
69093SOL     OW19257   6.901   6.284   1.426 -0.1987  0.4566  0.1909
69093SOL    HW119258   6.992   6.262   1.408 -0.6163 -1.5790  0.3064
69093SOL    HW219259   6.905   6.353   1.491  1.2577  0.2754  0.3280
69094SOL     OW19260   8.477   8.313   1.141 -0.0115  0.2813 -0.6350
69094SOL    HW119261   8.399   8.363   1.163  0.4696  0.1171  1.7556
69094SOL    HW219262   8.462   8.227   1.180  1.1408  0.0943 -0.5583
69095SOL     OW19263   2.053   6.919   3.293  0.1102 -0.1214  0.0999
69095SOL    HW119264   1.978   6.978   3.297  0.8333  1.0575 -2.0779
69095SOL    HW219265   2.036   6.863   3.218  0.5896 -1.0603  0.6658
69096SOL     OW19266   8.363   0.055  10.114  0.4316  0.2992  0.4387
69096SOL    HW119267   8.450   0.085  10.139  0.0870  0.7142  1.1985
69096SOL    HW219268   8.322   0.028  10.197 -1.1982  2.8827  0.5938
69097SOL     OW19269   7.004   2.559  13.840  0.2649  0.1480  0.0191
69097SOL    HW119270   6.958   2.475  13.834 -0.6036  0.4965  1.4352
69097SOL    HW219271   7.019   2.584  13.749 -2.1285 -0.1146 -0.5107
69098SOL     OW19272   6.579   7.631   7.039  0.2451  0.3811  0.2278
69098SOL    HW119273   6.571   7.725   7.028  0.2642  0.3499 -0.0515
69098SOL    HW219274   6.643   7.604   6.973  0.8287  0.2837  0.8259
69099SOL     OW19275   5.135  13.468   3.290  0.3024  0.7328  0.0086
69099SOL    HW119276   5.066  13.478   3.356  0.7762  0.4977  0.5468
69099SOL    HW219277   5.205  13.527   3.319  0.8510  0.0162  0.1832
69100SOL     OW19278  13.629  11.876   3.332 -0.1856 -0.9233 -0.4959
69100SOL    HW119279  13.612  11.793   3.377  0.6565 -0.1328  1.4166
69100SOL    HW219280  13.584  11.941   3.387  1.2843  0.1386 -0.5222
69101SOL     OW19281   2.450   6.499   6.587  0.4942  0.2200 -0.2659
69101SOL    HW119282   2.434   6.420   6.535 -1.4937 -1.4855  2.6423
69101SOL    HW219283   2.532   6.482   6.632  0.3942  0.0913 -0.1311
69102SOL     OW19284   0.815   7.395   5.738  0.1933 -0.2931  0.2916
69102SOL    HW119285   0.777   7.310   5.719  0.2650 -0.7845  2.1870
69102SOL    HW219286   0.792   7.449   5.662 -0.3502 -1.8170 -0.6667
69103SOL     OW19287  10.653   4.174   2.417 -0.0703  0.1150 -0.3788
69103SOL    HW119288  10.616   4.168   2.329  1.1075  0.2875 -0.9023
69103SOL    HW219289  10.724   4.110   2.418  0.2622  0.4866  0.2746
69104SOL     OW19290   3.400  11.846   1.733  0.1999 -0.2499  0.4984
69104SOL    HW119291   3.322  11.846   1.789  0.7502  2.0095  1.3453
69104SOL    HW219292   3.441  11.761   1.750 -0.8002 -0.4923  1.8764
69105SOL     OW19293  12.926   1.640   3.714 -0.1796  0.1330 -0.1421
69105SOL    HW119294  13.009   1.599   3.739  0.8859  2.2917  0.1383
69105SOL    HW219295  12.946   1.684   3.631 -0.9174  1.0080  0.1267
69106SOL     OW19296   7.020   7.830  12.815 -0.1218 -0.2214  0.3661
69106SOL    HW119297   7.073   7.827  12.895 -0.6569  1.5503  0.8209
69106SOL    HW219298   7.077   7.870  12.750  0.0249 -0.8935  0.0664
69107SOL     OW19299  11.215  10.068  13.952 -0.1274  0.6445  0.2711
69107SOL    HW119300  11.206  10.144  13.894  1.8561  0.0920 -0.8654
69107SOL    HW219301  11.189   9.994  13.897  1.7723  0.1108  0.0505
69108SOL     OW19302   8.784  11.114   6.830 -0.3160 -0.1335 -0.2261
69108SOL    HW119303   8.849  11.046   6.843  0.0092  0.0800 -0.6909
69108SOL    HW219304   8.805  11.181   6.895 -0.4751 -0.3573  0.0566
69109SOL     OW19305  13.865   7.822  10.798 -0.1098 -0.2040  0.2755
69109SOL    HW119306  13.865   7.887  10.728 -1.5290 -0.4100  0.0519
69109SOL    HW219307  13.930   7.854  10.860 -0.1930  0.9904 -0.2173
69110SOL     OW19308   6.610  11.478   3.465 -0.6970 -0.0869  0.2143
69110SOL    HW119309   6.540  11.538   3.439 -0.8084  0.1776  1.0973
69110SOL    HW219310   6.652  11.521   3.540  1.6558  0.6896 -1.4229
69111SOL     OW19311   3.515   1.789   3.438  0.1342  0.4160  0.1341
69111SOL    HW119312   3.487   1.704   3.473 -2.7845  1.4792  0.7028
69111SOL    HW219313   3.578   1.767   3.370 -2.0808 -2.4294 -1.2551
69112SOL     OW19314   9.744   6.401   4.635  0.3943 -0.6439 -0.0182
69112SOL    HW119315   9.746   6.408   4.539  2.2669 -0.6678 -0.0316
69112SOL    HW219316   9.762   6.490   4.666  0.1894 -0.7125  0.3048
69113SOL     OW19317   3.979   9.861  13.601 -0.1839  0.4169 -0.1857
69113SOL    HW119318   4.001   9.770  13.620  2.0456  0.9965  0.2082
69113SOL    HW219319   4.022   9.880  13.517 -1.7272  0.7614 -0.9468
69114SOL     OW19320   6.559   5.132   8.143  0.2704 -0.0531 -0.1751
69114SOL    HW119321   6.637   5.082   8.162  0.3869  0.5933  1.1963
69114SOL    HW219322   6.529   5.163   8.228 -0.9987  0.4141 -0.7604
69115SOL     OW19323  13.936   8.655   1.508 -0.2893  0.1134  0.3898
69115SOL    HW119324  13.948   8.580   1.450 -1.8213  0.3393 -0.2739
69115SOL    HW219325  13.940   8.731   1.450  4.2304  0.9308  1.3927
69116SOL     OW19326  12.099  12.737   3.552  0.2989 -0.1143 -0.1820
69116SOL    HW119327  12.134  12.771   3.635 -0.1100  1.1328 -0.5043
69116SOL    HW219328  12.004  12.743   3.561  0.2568  1.6019 -1.3370
69117SOL     OW19329  10.827   0.882  10.938 -0.5159  0.1535  0.5137
69117SOL    HW119330  10.735   0.907  10.940 -0.0412  2.1977 -0.2733
69117SOL    HW219331  10.863   0.914  11.022 -0.3307  0.2641  0.3944
69118SOL     OW19332   4.384   2.072  12.137  0.1932  0.3480 -0.3933
69118SOL    HW119333   4.406   2.140  12.200  0.6637  0.2722 -0.4674
69118SOL    HW219334   4.365   2.118  12.055  0.7943  0.3816 -0.5214
69119SOL     OW19335   3.776   2.192   2.940 -0.5292  0.0769  0.0474
69119SOL    HW119336   3.787   2.135   3.016  0.1381 -0.1488 -0.2158
69119SOL    HW219337   3.702   2.248   2.963 -2.2919 -1.9636 -0.3325
69120SOL     OW19338  12.939   2.987   8.963 -0.1486 -0.1115 -0.3868
69120SOL    HW119339  12.910   3.074   8.990  2.7056  0.8337 -0.1192
69120SOL    HW219340  12.859   2.945   8.930 -1.7430  2.3290  0.1018
69121SOL     OW19341   6.028   8.428   6.287  0.0976 -0.2432 -0.4723
69121SOL    HW119342   6.116   8.414   6.253 -0.6519 -1.4070 -2.0416
69121SOL    HW219343   5.972   8.373   6.233 -1.4805 -0.3721  1.1819
69122SOL     OW19344   3.397   2.521   6.343  0.3991 -0.4888  0.0402
69122SOL    HW119345   3.404   2.600   6.396  0.1627  0.0344 -0.6858
69122SOL    HW219346   3.460   2.460   6.381 -0.1568 -0.3301  1.2517
69123SOL     OW19347   9.851  13.506   5.214  0.2373  0.2944 -0.2300
69123SOL    HW119348   9.837  13.503   5.308 -0.5268  1.9558 -0.2544
69123SOL    HW219349   9.819  13.422   5.182  0.9154 -0.4671  1.0144
69124SOL     OW19350   2.848   2.925   7.107  0.2504 -0.1907 -0.4726
69124SOL    HW119351   2.819   2.992   7.045  0.3355 -0.5913 -0.9528
69124SOL    HW219352   2.943   2.940   7.115  0.3828 -0.6592 -1.0862
69125SOL     OW19353  13.257  11.261   5.251  0.2100  0.0824  0.1875
69125SOL    HW119354  13.283  11.171   5.273  1.6796  0.6134  0.7172
69125SOL    HW219355  13.240  11.258   5.157 -1.6062 -1.1586  0.5047
69126SOL     OW19356   0.239  11.023   6.769  0.5088  0.1681 -0.2892
69126SOL    HW119357   0.225  11.115   6.746 -0.5949 -0.6453 -3.3070
69126SOL    HW219358   0.156  10.994   6.808  0.7831  0.3705  0.4607
69127SOL     OW19359   5.013   5.426   6.799 -0.2301  0.7378  0.8607
69127SOL    HW119360   5.101   5.389   6.800  0.4609  2.2026 -0.8712
69127SOL    HW219361   4.999   5.459   6.888  0.3833 -0.7468  1.5355
69128SOL     OW19362   8.996   3.577  13.061  0.3086  0.1330 -0.5408
69128SOL    HW119363   8.970   3.612  12.975 -0.0759 -0.5347 -0.7013
69128SOL    HW219364   8.972   3.484  13.057  0.2401  0.1115  0.3099
69129SOL     OW19365   5.272   2.753   3.441 -0.5313  0.3529  0.0782
69129SOL    HW119366   5.264   2.674   3.495  1.1813 -0.0686 -0.2374
69129SOL    HW219367   5.361   2.784   3.457 -0.5891  1.2155 -1.1785
69130SOL     OW19368   6.165  13.085  11.652  0.0460 -0.8032 -0.3987
69130SOL    HW119369   6.238  13.093  11.591  0.9003  0.1602  0.7023
69130SOL    HW219370   6.192  13.015  11.712  0.4424  0.0884  0.4833
69131SOL     OW19371   3.198   6.012   8.945 -0.3456 -0.2653  0.7759
69131SOL    HW119372   3.272   5.955   8.965  0.3879  0.2777 -0.2797
69131SOL    HW219373   3.220   6.050   8.860 -1.9914 -0.3467  0.2742
69132SOL     OW19374   1.340  14.011   7.776  0.4609  0.0951 -0.5777
69132SOL    HW119375   1.380  13.941   7.724  1.2492  1.0776 -1.3243
69132SOL    HW219376   1.414  14.057   7.815 -0.0864 -0.0078  0.6316
69133SOL     OW19377   0.150   7.486   7.923  0.4120 -0.9376 -0.1025
69133SOL    HW119378   0.223   7.541   7.950  0.8469 -2.0907  1.1579
69133SOL    HW219379   0.135   7.427   7.997 -2.3218 -0.2256  0.0059
69134SOL     OW19380   5.767   0.418  12.674  0.2842  0.0358 -0.4133
69134SOL    HW119381   5.700   0.421  12.743 -0.6549  2.0244 -1.3228
69134SOL    HW219382   5.718   0.392  12.596  0.5577  1.4863 -1.0841
69135SOL     OW19383  12.190   7.548   5.551  0.2158 -0.0703  0.0246
69135SOL    HW119384  12.147   7.561   5.636  0.1519 -1.2460  0.1847
69135SOL    HW219385  12.134   7.484   5.506  0.7878 -0.1976 -0.5103
69136SOL     OW19386   6.976  12.392   2.053  0.1674  0.3880  0.4797
69136SOL    HW119387   7.028  12.468   2.080  1.1777 -0.1581  0.1448
69136SOL    HW219388   6.938  12.417   1.969 -1.3936  1.3610  1.4172
69137SOL     OW19389  11.945   7.749  13.156  0.2077  0.6373  0.3280
69137SOL    HW119390  12.031   7.713  13.132 -0.2116 -0.9706  1.0806
69137SOL    HW219391  11.884   7.706  13.095  0.1237  3.6091 -1.8882
69138SOL     OW19392   4.116   0.690   7.603 -0.1825 -0.4455 -0.0707
69138SOL    HW119393   4.037   0.636   7.608  0.1913 -1.0093 -0.1958
69138SOL    HW219394   4.150   0.692   7.692  0.5995 -1.6381 -0.3126
69139SOL     OW19395  10.424  12.237   3.680  0.7480  0.4913  0.0844
69139SOL    HW119396  10.461  12.237   3.592 -1.1797  0.4175 -0.7884
69139SOL    HW219397  10.384  12.324   3.689  0.6902  0.3966  0.7725
69140SOL     OW19398  13.422   7.607   1.438  0.5180  0.2578 -0.0259
69140SOL    HW119399  13.383   7.694   1.431  0.8789  0.3064 -2.0730
69140SOL    HW219400  13.356   7.548   1.400  0.0179 -0.5005  1.8727
69141SOL     OW19401   4.199   8.764   4.968  0.1533 -0.5543  0.3883
69141SOL    HW119402   4.119   8.816   4.978 -0.4160 -1.1925 -0.6833
69141SOL    HW219403   4.265   8.827   4.937 -0.4366 -0.3976 -0.5731
69142SOL     OW19404  11.064  13.806   9.407  0.2343 -0.2677 -0.2872
69142SOL    HW119405  11.090  13.872   9.342  0.7609 -0.2635 -0.0777
69142SOL    HW219406  11.124  13.733   9.392  0.9579  0.0905  0.7828
69143SOL     OW19407   0.704   2.964   7.431 -0.0046 -0.3622 -0.0227
69143SOL    HW119408   0.781   2.941   7.380  0.9249  0.7110  0.8637
69143SOL    HW219409   0.734   3.029   7.494 -1.5511 -0.1886  0.5969
69144SOL     OW19410  11.279   0.587  13.368  0.2542  0.1732 -0.1524
69144SOL    HW119411  11.254   0.675  13.340 -1.2493  0.0396  0.6760
69144SOL    HW219412  11.353   0.600  13.426  1.0254  0.7444 -1.2189
69145SOL     OW19413   2.485  11.680   5.008  0.2019 -0.0939 -0.0866
69145SOL    HW119414   2.468  11.762   4.962  0.6998 -0.0669 -0.2225
69145SOL    HW219415   2.527  11.624   4.943  0.9474 -0.0420  0.3408
69146SOL     OW19416  10.016   9.446   8.373 -0.1967 -0.1486 -0.4605
69146SOL    HW119417  10.004   9.383   8.302 -1.4389 -0.5746  0.0979
69146SOL    HW219418   9.965   9.522   8.346  2.2545  1.1687 -1.6995
69147SOL     OW19419   2.193  10.994   9.070  0.7416  0.5461 -0.1205
69147SOL    HW119420   2.139  11.064   9.033  1.4675  0.9497 -0.4653
69147SOL    HW219421   2.277  11.037   9.087  0.4937  0.3149  1.8419
69148SOL     OW19422  11.994  10.597  10.120  0.0918 -0.0433 -0.4298
69148SOL    HW119423  12.088  10.578  10.125 -0.0119 -0.3695  0.3998
69148SOL    HW219424  11.976  10.651  10.198 -0.4439 -0.1359 -0.4868
69149SOL     OW19425   7.927  12.130   3.704 -0.0796  0.0150  0.9794
69149SOL    HW119426   7.838  12.166   3.693 -1.3394 -2.0156  3.3881
69149SOL    HW219427   7.975  12.199   3.750 -0.1566  1.3756 -0.8726
69150SOL     OW19428   3.607   7.960  11.530 -0.1828 -0.1565 -1.2992
69150SOL    HW119429   3.570   7.874  11.509  0.9520 -0.6714 -1.2694
69150SOL    HW219430   3.690   7.940  11.572 -0.5810  0.9373  0.0709
69151SOL     OW19431   8.180   8.821  12.387 -0.2256  0.2108 -0.7531
69151SOL    HW119432   8.141   8.808  12.474  2.2491  0.2516  0.4505
69151SOL    HW219433   8.177   8.735  12.346  2.5721 -1.0103  1.2414
69152SOL     OW19434   7.707   3.146  10.640 -0.2707  0.4337 -0.1522
69152SOL    HW119435   7.753   3.115  10.718 -1.9560 -0.7998  0.4082
69152SOL    HW219436   7.696   3.067  10.587 -0.4626  0.9932 -0.9591
69153SOL     OW19437   8.615   6.939   6.193 -0.0899  0.7555  0.4687
69153SOL    HW119438   8.553   6.994   6.147  0.3643  0.8330 -0.0569
69153SOL    HW219439   8.632   6.866   6.133  0.1330  0.6052  0.7121
69154SOL     OW19440   8.858   2.134   3.534  0.1231 -0.1908 -0.2013
69154SOL    HW119441   8.946   2.106   3.560  1.5963  1.7280 -2.6285
69154SOL    HW219442   8.842   2.087   3.452 -0.2320  0.9200 -0.7948
69155SOL     OW19443  13.651  10.655   3.155  0.3500 -0.2872  0.1388
69155SOL    HW119444  13.580  10.606   3.197 -1.0016  2.0919  0.8046
69155SOL    HW219445  13.609  10.701   3.083  0.3844  3.5384  2.3083
69156SOL     OW19446   1.193  10.059   8.430  0.5454  0.5480  0.2006
69156SOL    HW119447   1.173   9.990   8.367 -1.8096  1.4900 -0.2013
69156SOL    HW219448   1.263  10.110   8.389  0.6258 -0.1881 -0.6014
69157SOL     OW19449  13.274   9.438   1.168 -0.1913  0.0021  1.1361
69157SOL    HW119450  13.352   9.383   1.175 -0.6055 -0.7211  0.1958
69157SOL    HW219451  13.273   9.467   1.077 -0.3653  1.0107  1.4481
69158SOL     OW19452   7.601  13.174  12.748  0.0555 -0.3110  0.4839
69158SOL    HW119453   7.624  13.263  12.719 -0.6923  0.2255  1.4591
69158SOL    HW219454   7.556  13.187  12.832  0.0744 -1.6316  0.7203
69159SOL     OW19455   5.759   5.948   4.557 -0.0445  0.2072 -0.5429
69159SOL    HW119456   5.831   5.986   4.507  0.3418  1.4825  0.9064
69159SOL    HW219457   5.738   6.014   4.623 -0.4818 -1.4035  1.0030
69160SOL     OW19458   4.486   1.035   7.753  0.1116 -0.2034  0.2290
69160SOL    HW119459   4.490   1.060   7.660 -0.4564 -1.9457 -0.3047
69160SOL    HW219460   4.402   0.990   7.761  1.1579 -2.0897  1.0462
69161SOL     OW19461   8.893   7.682   0.622 -0.5808  0.6563  0.3367
69161SOL    HW119462   8.962   7.706   0.684  0.2093 -0.3622 -0.1261
69161SOL    HW219463   8.912   7.592   0.598 -0.6603  1.1422 -1.6756
69162SOL     OW19464  11.882  10.872   7.247  0.8266 -0.4869  0.5289
69162SOL    HW119465  11.807  10.815   7.265  1.1815 -0.8282  0.9697
69162SOL    HW219466  11.956  10.828   7.289  1.2541 -0.0972  0.1969
69163SOL     OW19467   5.043  11.350  12.904 -0.0111 -0.3958  0.4131
69163SOL    HW119468   5.021  11.443  12.914  0.7012 -0.0813 -0.8203
69163SOL    HW219469   4.964  11.311  12.867  0.4263  0.1658 -1.1836
69164SOL     OW19470   6.304   4.617   1.632 -0.2740 -0.2451 -0.0534
69164SOL    HW119471   6.233   4.633   1.694  0.9726  2.4626  0.8198
69164SOL    HW219472   6.275   4.658   1.551  0.8191  2.4170  0.7675
69165SOL     OW19473  12.065   3.593   3.227  0.1821 -0.0359 -0.2268
69165SOL    HW119474  12.161   3.596   3.229  0.3273 -1.6262 -1.8602
69165SOL    HW219475  12.042   3.617   3.137 -1.2852  4.1827  1.0209
69166SOL     OW19476   7.836   7.439  11.470 -0.2767 -0.2711 -0.1603
69166SOL    HW119477   7.837   7.441  11.566 -0.1336  0.3245 -0.1659
69166SOL    HW219478   7.867   7.352  11.448  1.2951  0.1145  0.3346
69167SOL     OW19479   3.212   9.715   1.482  0.5784  0.1282  0.2014
69167SOL    HW119480   3.303   9.719   1.453  0.3179  0.3277 -0.6084
69167SOL    HW219481   3.217   9.679   1.571  1.4309 -0.0132  0.1067
69168SOL     OW19482   8.909   5.424   1.853  0.2419 -0.4060 -0.4193
69168SOL    HW119483   8.980   5.380   1.898 -0.5844 -1.2432  0.0978
69168SOL    HW219484   8.891   5.502   1.905  1.3568  0.3047 -1.0500
69169SOL     OW19485  12.618   0.413   6.776 -0.1630 -0.4288 -0.0070
69169SOL    HW119486  12.582   0.393   6.690 -1.0471 -0.0278  0.2527
69169SOL    HW219487  12.602   0.335   6.828 -3.4744  0.7058  0.9658
69170SOL     OW19488   1.797  13.625   4.705 -0.2360 -0.3986  0.6851
69170SOL    HW119489   1.740  13.654   4.777 -0.7251 -1.1086  0.6001
69170SOL    HW219490   1.846  13.703   4.680 -2.3453  0.6770 -0.3464
69171SOL     OW19491   7.696  11.950   8.436  0.1827 -0.1520 -0.3989
69171SOL    HW119492   7.741  11.924   8.355  0.4083  0.6302 -0.5269
69171SOL    HW219493   7.691  12.045   8.432 -0.5176 -0.1567  0.1382
69172SOL     OW19494   1.481   3.229  11.592  0.3430 -0.1136 -0.2195
69172SOL    HW119495   1.559   3.173  11.593  0.4873  0.0411  1.7430
69172SOL    HW219496   1.502   3.299  11.531  2.2572  0.5628  1.1113
69173SOL     OW19497   1.404   7.309  10.648  0.4836  0.4127  0.4314
69173SOL    HW119498   1.392   7.385  10.591  1.5842 -0.3720 -0.8834
69173SOL    HW219499   1.345   7.243  10.612  0.6238  0.1566  0.6738
69174SOL     OW19500   1.336   4.354  13.377  0.3209  0.2888  0.2108
69174SOL    HW119501   1.409   4.298  13.352  0.6789  0.8429  0.0107
69174SOL    HW219502   1.357   4.385  13.465  0.6899  1.0456 -0.1407
69175SOL     OW19503   1.121   3.325  13.080  0.4422  0.5669 -0.1705
69175SOL    HW119504   1.184   3.256  13.061  1.1450  1.5295 -1.5322
69175SOL    HW219505   1.140   3.351  13.170 -0.6888 -1.8260  0.8383
69176SOL     OW19506   9.606  12.156  12.461 -0.4493 -0.3645 -0.4896
69176SOL    HW119507   9.665  12.162  12.385 -0.2795 -0.7351 -0.3930
69176SOL    HW219508   9.601  12.062  12.479  1.1822 -0.1800  1.2338
69177SOL     OW19509   1.670   8.640   3.425 -0.2148  0.4074 -0.0963
69177SOL    HW119510   1.654   8.700   3.352 -0.5698 -1.0810 -1.3136
69177SOL    HW219511   1.766   8.636   3.431 -0.1800  1.9974  0.8203
69178SOL     OW19512  10.640   7.246  11.816 -0.1015 -0.0355  0.1762
69178SOL    HW119513  10.634   7.337  11.845 -0.8813  0.7205 -2.1359
69178SOL    HW219514  10.603   7.195  11.887  0.4000  1.4397  1.5460
69179SOL     OW19515  13.353   1.733   9.812 -0.2241 -0.6898  0.0344
69179SOL    HW119516  13.446   1.752   9.823 -0.2455 -1.1063  1.0638
69179SOL    HW219517  13.309   1.816   9.828  0.0346 -0.0625 -2.1631
69180SOL     OW19518   0.445   9.827   7.500  0.3753  0.1167  1.2961
69180SOL    HW119519   0.468   9.853   7.411  1.2148 -1.5668  0.9972
69180SOL    HW219520   0.442   9.910   7.549  0.0717  1.0488 -0.2247
69181SOL     OW19521   9.744  12.660   3.842 -0.4261 -0.4344 -0.0141
69181SOL    HW119522   9.810  12.679   3.909 -0.1039 -0.4099 -0.3389
69181SOL    HW219523   9.784  12.687   3.760 -1.1652  0.3564 -0.1221
69182SOL     OW19524  11.595   9.474   4.298 -0.2706 -0.4626  0.2674
69182SOL    HW119525  11.643   9.510   4.223 -0.2231 -2.4083 -0.6836
69182SOL    HW219526  11.631   9.520   4.374 -0.0303  1.2570 -0.8410
69183SOL     OW19527  11.211   1.337   7.910 -0.6650 -0.2899  0.1032
69183SOL    HW119528  11.154   1.384   7.972 -1.9133 -0.3426 -0.9570
69183SOL    HW219529  11.188   1.245   7.923 -0.5720 -0.3405 -0.0920
69184SOL     OW19530   5.198  13.442  12.311 -0.2675  0.4351 -0.1815
69184SOL    HW119531   5.132  13.493  12.358 -0.6778  0.3444 -0.6668
69184SOL    HW219532   5.238  13.505  12.251 -1.7597 -0.1206 -1.8269
69185SOL     OW19533   9.531  12.471   1.527 -0.1390  0.3927 -0.0720
69185SOL    HW119534   9.570  12.497   1.444  0.4774  1.0223  0.3973
69185SOL    HW219535   9.480  12.548   1.555 -0.6377  0.0548 -0.0431
69186SOL     OW19536  13.041   0.384  11.802 -0.8200 -0.1455 -1.0299
69186SOL    HW119537  13.003   0.436  11.873 -1.0426 -0.5511 -0.8454
69186SOL    HW219538  13.030   0.293  11.832  0.7315 -0.2591 -0.7486
69187SOL     OW19539  13.599  10.506  12.899 -0.6663  0.0534  1.0210
69187SOL    HW119540  13.569  10.527  12.988  1.4593  1.1356  1.5344
69187SOL    HW219541  13.617  10.590  12.859 -2.6375 -0.3488 -0.8999
69188SOL     OW19542   5.663   3.331   3.442  0.3339  0.1119  0.1632
69188SOL    HW119543   5.570   3.312   3.449  0.4985 -0.3928  1.1257
69188SOL    HW219544   5.704   3.247   3.424  0.7549  0.0220  1.3992
69189SOL     OW19545  11.666   9.446   4.775 -0.0133 -0.2287  0.2587
69189SOL    HW119546  11.588   9.430   4.827 -2.3721  1.5493 -2.4139
69189SOL    HW219547  11.705   9.359   4.763 -1.7779 -1.2419  1.3752
69190SOL     OW19548   2.954  12.115   5.945 -0.0351  0.4031  0.5753
69190SOL    HW119549   2.879  12.109   6.005 -1.0850  0.5162 -0.6911
69190SOL    HW219550   2.916  12.111   5.858  1.5867 -1.5617 -0.1461
69191SOL     OW19551  13.898   9.437  10.024  0.0963  0.2449 -0.1298
69191SOL    HW119552  13.830   9.370  10.024 -0.7333  1.0574  0.7037
69191SOL    HW219553  13.945   9.424  10.107  0.4080  0.2370 -0.3035
69192SOL     OW19554   5.283   2.762   1.874  0.1381  0.2611 -0.5710
69192SOL    HW119555   5.271   2.829   1.806 -3.8006  0.6164  0.2561
69192SOL    HW219556   5.285   2.811   1.956 -0.1357 -0.4579 -0.1238
69193SOL     OW19557  13.990  13.936   1.781 -0.0315 -0.1226 -0.2680
69193SOL    HW119558  13.973  13.886   1.701 -1.7573 -1.4713  0.8817
69193SOL    HW219559  14.075  13.904   1.812 -1.1671 -2.5515  0.5193
69194SOL     OW19560  10.736   3.616   1.045 -0.5403  0.3403  0.0179
69194SOL    HW119561  10.726   3.579   1.132 -0.4929 -1.1460 -0.5622
69194SOL    HW219562  10.650   3.606   1.004 -0.6903  1.4586  0.0458
69195SOL     OW19563   2.744  11.637   4.007 -0.1912 -0.0434  0.6455
69195SOL    HW119564   2.776  11.725   3.987  1.0279 -0.6288 -0.1041
69195SOL    HW219565   2.675  11.621   3.943  2.7051 -1.3516 -2.4519
69196SOL     OW19566   9.621   3.800  13.187  0.0248  0.0937 -0.0956
69196SOL    HW119567   9.526   3.803  13.177  0.0417 -1.6188 -1.2031
69196SOL    HW219568   9.636   3.732  13.252  0.4982  0.8191  0.5789
69197SOL     OW19569   6.572   0.870   9.796 -0.9362  1.2628 -0.2799
69197SOL    HW119570   6.477   0.861   9.802 -0.8336  0.2310  0.1248
69197SOL    HW219571   6.595   0.922   9.873 -1.1238  1.0223 -0.0555
69198SOL     OW19572  13.310   3.947   4.239  0.0700  0.3569 -0.1307
69198SOL    HW119573  13.350   3.860   4.239 -1.9467 -0.6335 -1.1555
69198SOL    HW219574  13.275   3.957   4.328  1.2531  0.6240  0.3249
69199SOL     OW19575   1.256  10.304   2.305  0.0833  0.0396 -0.3170
69199SOL    HW119576   1.249  10.227   2.360 -0.3339 -0.9097 -1.6441
69199SOL    HW219577   1.299  10.370   2.360  0.7794 -1.2434  0.7203
69200SOL     OW19578  12.130   1.927   4.715  0.4119 -0.2975  0.1046
69200SOL    HW119579  12.170   1.868   4.779 -0.0257  0.5352  1.1894
69200SOL    HW219580  12.061   1.972   4.764 -0.5915 -0.3336 -1.2260
69201SOL     OW19581   9.766   1.066   9.786  0.3891 -0.4319 -0.2872
69201SOL    HW119582   9.758   0.978   9.750 -0.2673 -0.4331 -0.1512
69201SOL    HW219583   9.844   1.063   9.840 -0.7612 -1.5532  1.4258
69202SOL     OW19584   8.530   8.795  13.418  0.3445  0.0879 -0.1659
69202SOL    HW119585   8.553   8.723  13.477 -1.7583 -0.7418 -0.2778
69202SOL    HW219586   8.572   8.772  13.335 -0.5679 -1.2343 -0.2939
69203SOL     OW19587  13.933   4.024   0.234  0.2460  0.1068 -0.2414
69203SOL    HW119588  13.925   3.952   0.297  1.0611 -1.7752 -2.1590
69203SOL    HW219589  13.979   4.092   0.281  2.2465 -1.8452  0.7924
69204SOL     OW19590  11.079   3.624  13.987 -0.1181  0.6354  0.2885
69204SOL    HW119591  11.111   3.591  14.071 -0.7444 -0.2730  0.1929
69204SOL    HW219592  11.004   3.680  14.009  0.7793  1.8092  0.4356
69205SOL     OW19593  12.786   9.057  11.527  0.1918  0.2538  0.7549
69205SOL    HW119594  12.722   9.071  11.597 -1.3423 -1.8093 -0.1306
69205SOL    HW219595  12.821   8.969  11.543  2.2728  1.0162  0.7438
69206SOL     OW19596  10.389  12.547   8.139  0.1890 -0.1897  0.6727
69206SOL    HW119597  10.320  12.576   8.080 -0.9223 -0.3819  1.8437
69206SOL    HW219598  10.369  12.588   8.223  0.9287 -1.0378  1.2876
69207SOL     OW19599   7.886   0.938  13.978  0.2659  0.0047 -0.3140
69207SOL    HW119600   7.973   0.905  13.999  0.8398  1.1851 -0.7794
69207SOL    HW219601   7.853   0.972  14.061  0.1283 -0.6858 -0.0792
69208SOL     OW19602  12.287   0.873   2.338 -0.1980  0.0860  0.1800
69208SOL    HW119603  12.312   0.781   2.348  2.1040  0.7592  1.2323
69208SOL    HW219604  12.202   0.870   2.292  0.4636 -2.4879 -1.0595
69209SOL     OW19605  11.474  13.198   1.906  0.0213  0.0363  0.0436
69209SOL    HW119606  11.497  13.244   1.987  1.5074 -1.4965  0.5593
69209SOL    HW219607  11.559  13.178   1.866 -0.3242 -4.1314  0.9929
69210SOL     OW19608   5.899   0.876  13.741  0.0718 -0.1942  0.2870
69210SOL    HW119609   5.866   0.945  13.684 -0.8965 -1.5291 -0.8548
69210SOL    HW219610   5.994   0.886  13.740 -0.0372  0.8588 -0.1913
69211SOL     OW19611   1.797   5.084   6.787 -0.4111  0.2851 -0.2401
69211SOL    HW119612   1.849   5.070   6.866  1.6188 -0.1211 -1.5931
69211SOL    HW219613   1.729   5.016   6.791 -1.0685  0.9824  1.6810
69212SOL     OW19614   5.108   1.993   1.258  0.3455  0.0544 -0.3769
69212SOL    HW119615   5.145   2.076   1.231  0.2318  0.2247 -0.0102
69212SOL    HW219616   5.036   2.016   1.316  0.2620 -0.2954 -0.3376
69213SOL     OW19617  12.071   3.307   7.042  0.0680  0.1723  0.0147
69213SOL    HW119618  11.983   3.273   7.059 -0.7902  2.0344 -0.5151
69213SOL    HW219619  12.127   3.259   7.104 -1.1588 -1.6172 -0.1871
69214SOL     OW19620   9.409   3.501   9.084 -0.3765 -0.4553  0.4901
69214SOL    HW119621   9.449   3.424   9.044  0.7740  0.1789  0.3890
69214SOL    HW219622   9.357   3.540   9.014  0.3425 -0.2416  0.0687
69215SOL     OW19623   1.859   9.151   8.576  0.2542 -0.2625  0.4653
69215SOL    HW119624   1.777   9.198   8.592 -0.2852 -0.5618 -1.2513
69215SOL    HW219625   1.908   9.208   8.517 -0.3240 -1.7230 -1.4843
69216SOL     OW19626   3.588  11.628   5.682  0.2200 -0.1781 -0.6293
69216SOL    HW119627   3.531  11.603   5.609 -2.2325  0.6357  0.8634
69216SOL    HW219628   3.567  11.564   5.751 -1.3433  1.9861  1.0256
69217SOL     OW19629   8.090   4.765   2.700 -0.1002 -0.2121  0.0637
69217SOL    HW119630   8.063   4.682   2.659 -1.2857 -0.3049  0.9839
69217SOL    HW219631   8.184   4.754   2.716  0.0299 -0.8563 -1.0123
69218SOL     OW19632   7.284   9.561   2.886 -0.0762 -0.0093  0.2150
69218SOL    HW119633   7.295   9.598   2.974 -0.4586  1.3059 -0.2693
69218SOL    HW219634   7.254   9.471   2.901 -1.2831  0.5594  1.4345
69219SOL     OW19635   3.474   5.732  12.693 -0.3156 -0.1041 -0.2932
69219SOL    HW119636   3.455   5.822  12.718  0.6062  0.3626 -1.1968
69219SOL    HW219637   3.481   5.735  12.597  2.4696 -0.5685 -0.1664
69220SOL     OW19638  12.379   6.458  11.585 -0.4851  0.7153 -0.2372
69220SOL    HW119639  12.295   6.444  11.541 -0.1755 -0.1350 -0.5825
69220SOL    HW219640  12.402   6.372  11.622 -0.9085  1.4656  1.9416
69221SOL     OW19641  12.481   1.283   9.671  0.6199  0.0919  0.2053
69221SOL    HW119642  12.393   1.297   9.707 -0.1510  2.3684 -2.1942
69221SOL    HW219643  12.534   1.259   9.747 -1.4418  1.6588  2.3129
69222SOL     OW19644   8.934   5.979   1.889  0.2309  0.1203 -0.3098
69222SOL    HW119645   8.856   5.977   1.834 -0.7216  0.7722  0.9684
69222SOL    HW219646   8.970   6.067   1.877  1.2000 -0.3998 -1.4308
69223SOL     OW19647   3.782  12.345   2.631 -0.2158  0.0272 -0.2447
69223SOL    HW119648   3.868  12.379   2.655 -0.0258 -0.5687 -0.0716
69223SOL    HW219649   3.763  12.386   2.547 -0.2349  0.9901  0.2076
69224SOL     OW19650   3.675   2.952  10.010  0.0079  0.4834  0.9587
69224SOL    HW119651   3.757   2.961  10.058 -0.2266 -0.2641  1.5010
69224SOL    HW219652   3.610   2.929  10.076 -0.5681  0.6943  0.4753
69225SOL     OW19653  11.685  12.638  10.371 -0.6086  0.1326 -0.2839
69225SOL    HW119654  11.730  12.722  10.365 -0.6186  0.2959  1.4992
69225SOL    HW219655  11.594  12.658  10.348 -0.5804  0.5787 -0.0162
69226SOL     OW19656   1.367   6.477   3.818  0.0312  0.3039  0.2435
69226SOL    HW119657   1.443   6.489   3.875 -0.7029  0.9564  1.1123
69226SOL    HW219658   1.303   6.541   3.849 -1.3589 -1.0844  0.3874
69227SOL     OW19659  14.000   9.079   1.988 -0.4899 -0.0127 -0.4554
69227SOL    HW119660  14.026   9.122   2.070 -2.5399  0.8590 -0.1843
69227SOL    HW219661  13.907   9.102   1.978 -0.3946 -0.4026 -2.8418
69228SOL     OW19662  11.542  13.257   8.704 -0.0703 -1.2560  0.2823
69228SOL    HW119663  11.467  13.237   8.649 -0.8240 -1.7649  1.4546
69228SOL    HW219664  11.519  13.339   8.748 -0.4989 -2.0228  1.5532
69229SOL     OW19665   0.830  11.046   8.642  0.1959 -0.5661  0.3522
69229SOL    HW119666   0.820  11.052   8.547  1.7844  0.1616  0.1952
69229SOL    HW219667   0.761  10.986   8.670 -1.9051  1.0780 -0.9511
69230SOL     OW19668  13.021   6.913   9.628 -0.5207  0.8170 -0.1901
69230SOL    HW119669  13.025   7.005   9.654  0.0415  0.2565  1.8233
69230SOL    HW219670  12.953   6.911   9.560 -1.0830  2.5747  0.2599
69231SOL     OW19671  13.136   6.681   5.746 -0.0428  0.4582 -0.3375
69231SOL    HW119672  13.090   6.693   5.663  0.2080 -0.4698 -0.6161
69231SOL    HW219673  13.093   6.742   5.806 -0.2879  1.0697 -1.1193
69232SOL     OW19674  13.920   7.103   9.323  0.4746  0.1591  0.3479
69232SOL    HW119675  13.833   7.123   9.288  0.3991  1.2960  1.1518
69232SOL    HW219676  13.906   7.092   9.417  0.5832 -3.3900  0.0751
69233SOL     OW19677  11.656   5.020  12.667  0.2284 -0.5415 -0.1703
69233SOL    HW119678  11.740   4.976  12.655  0.6113  0.3324 -0.8499
69233SOL    HW219679  11.614   5.014  12.581  0.6195  1.0456 -0.5025
69234SOL     OW19680   8.443   5.346   4.646  0.3086 -0.3913 -0.1632
69234SOL    HW119681   8.526   5.336   4.599  0.6057 -2.6104  0.7070
69234SOL    HW219682   8.378   5.306   4.589 -0.0532  0.6943 -0.5220
69235SOL     OW19683  13.933   1.842   1.330  0.4877  0.6756 -0.4377
69235SOL    HW119684  13.995   1.900   1.286  1.0437  0.8399  0.5398
69235SOL    HW219685  13.988   1.778   1.375  0.1218  2.2418  2.4479
69236SOL     OW19686   2.876   7.361   7.939 -0.1611 -0.1179 -0.6719
69236SOL    HW119687   2.915   7.297   7.997  0.8766 -0.0304 -1.2548
69236SOL    HW219688   2.782   7.357   7.958  0.0215 -1.0016  0.0802
69237SOL     OW19689  13.408   6.728  10.037  0.3325 -0.0161  0.2638
69237SOL    HW119690  13.314   6.708  10.031  0.2077  0.6238  0.0218
69237SOL    HW219691  13.447   6.683   9.962 -0.0850  1.4121 -0.8392
69238SOL     OW19692   8.498   5.184   6.367  0.2495 -0.1038  0.3472
69238SOL    HW119693   8.543   5.240   6.303  1.0933 -0.6190  0.4760
69238SOL    HW219694   8.490   5.100   6.323  0.7345 -0.4276  0.8663
69239SOL     OW19695   2.496   3.948  11.241  0.6189 -0.4594 -0.6615
69239SOL    HW119696   2.532   4.029  11.206  0.3460  0.2221  0.5445
69239SOL    HW219697   2.515   3.952  11.335 -0.6457 -1.1168 -0.3473
69240SOL     OW19698  12.857   0.063   5.689 -0.7099 -0.1597  0.0490
69240SOL    HW119699  12.834  -0.024   5.656 -0.9339 -0.2122  0.3408
69240SOL    HW219700  12.886   0.048   5.779 -0.1082 -0.0148 -0.1153
69241SOL     OW19701   2.076  11.945   5.462  0.2555 -0.1915 -0.1459
69241SOL    HW119702   2.017  12.017   5.485 -0.3302 -1.0837  1.2740
69241SOL    HW219703   2.088  11.954   5.368 -0.9829  0.8877 -0.2382
69242SOL     OW19704   0.355  12.228   2.499  0.0226  0.5269 -0.1384
69242SOL    HW119705   0.356  12.292   2.570  1.5360  0.5748 -0.1530
69242SOL    HW219706   0.415  12.264   2.434  0.6365 -0.7261 -0.3065
69243SOL     OW19707   9.941   4.046   5.115 -0.4894 -0.0644 -0.3206
69243SOL    HW119708  10.028   4.013   5.094  0.5765  0.2202  3.0859
69243SOL    HW219709   9.932   4.034   5.210 -2.7665  3.0887  0.0465
69244SOL     OW19710   8.407  13.123   3.248  0.3798  0.0370 -0.1673
69244SOL    HW119711   8.444  13.091   3.330 -0.5484  1.0965  0.6933
69244SOL    HW219712   8.318  13.150   3.271 -0.4297 -1.0089 -1.8399
69245SOL     OW19713   1.888   8.531  13.987  0.8715  0.3843  0.3503
69245SOL    HW119714   1.949   8.465  14.020 -1.0396 -1.6833 -0.0197
69245SOL    HW219715   1.922   8.555  13.901  0.9540 -1.0427 -0.0266
69246SOL     OW19716  12.890   8.502   2.785 -0.4264  0.1897  0.4239
69246SOL    HW119717  12.862   8.593   2.790 -1.3393 -0.0989  0.8792
69246SOL    HW219718  12.920   8.481   2.874  0.4342  0.2428  0.1491
69247SOL     OW19719  13.267  10.476   1.703 -0.0331  0.7336 -0.3438
69247SOL    HW119720  13.266  10.420   1.625 -0.8618  1.0895 -0.5982
69247SOL    HW219721  13.351  10.521   1.699  1.5277 -1.8599  0.8703
69248SOL     OW19722  13.683   8.363   9.162 -0.1522 -0.2144  0.4070
69248SOL    HW119723  13.705   8.414   9.239 -0.4044 -0.4657  0.6487
69248SOL    HW219724  13.592   8.387   9.143 -0.2473 -0.5164  0.4763
69249SOL     OW19725   2.750  10.726   7.575  0.0344 -0.2986  0.3394
69249SOL    HW119726   2.729  10.794   7.511  2.4283 -0.4520 -0.7280
69249SOL    HW219727   2.667  10.707   7.618 -1.0829  1.8979 -0.6771
69250SOL     OW19728  13.047   6.673   7.447 -0.2700  0.1672  0.5492
69250SOL    HW119729  12.997   6.736   7.500  0.8310  0.0988  1.7060
69250SOL    HW219730  13.094   6.620   7.511  1.1378  0.1073 -0.4944
69251SOL     OW19731   6.564   2.215  11.122 -0.1554 -0.3526  0.2579
69251SOL    HW119732   6.539   2.291  11.174  0.2572  0.0733 -0.1502
69251SOL    HW219733   6.485   2.160  11.119 -0.6243  0.3248  0.0964
69252SOL     OW19734   6.434   4.310   5.574  0.1247 -0.0697  0.0246
69252SOL    HW119735   6.467   4.339   5.489 -0.0758 -0.7583 -0.2926
69252SOL    HW219736   6.460   4.219   5.580  1.4187  0.3658  1.3617
69253SOL     OW19737   7.020   1.618   9.350  0.4786  0.2544  0.0617
69253SOL    HW119738   7.004   1.544   9.291  2.0875  0.7757 -1.0933
69253SOL    HW219739   6.952   1.610   9.417 -3.1165  1.0208 -3.1316
69254SOL     OW19740   7.550  13.577   4.346 -0.2237  0.0273 -0.2031
69254SOL    HW119741   7.522  13.645   4.285 -0.5837  1.4188  1.4539
69254SOL    HW219742   7.644  13.592   4.357 -0.6158  1.5304  1.5915
69255SOL     OW19743  10.925   6.209   4.702  0.1582  0.2809 -0.2480
69255SOL    HW119744  10.959   6.239   4.617  1.8391 -0.6268  0.0525
69255SOL    HW219745  10.996   6.225   4.763 -0.4253 -0.5564  0.6850
69256SOL     OW19746  10.807  11.484   0.840 -0.1761  0.1026  0.3733
69256SOL    HW119747  10.758  11.512   0.917  0.5144  3.0518 -0.1419
69256SOL    HW219748  10.898  11.504   0.860  0.0313  0.7989 -1.1136
69257SOL     OW19749   9.887   5.696   6.871 -0.1232 -0.2213  0.0721
69257SOL    HW119750   9.968   5.748   6.876  0.6778 -1.0569 -2.4845
69257SOL    HW219751   9.843   5.729   6.793  0.0764 -2.8204 -1.2534
69258SOL     OW19752   2.747  11.386  12.760  0.7546 -0.2269  0.6231
69258SOL    HW119753   2.827  11.417  12.802  1.1576 -1.0341  0.4659
69258SOL    HW219754   2.681  11.451  12.784  1.9560  1.8147 -1.2369
69259SOL     OW19755  11.473   9.170  12.304  0.3977  0.5594  0.0915
69259SOL    HW119756  11.539   9.140  12.242  0.8378  0.3305  0.6532
69259SOL    HW219757  11.396   9.190  12.251  0.0668 -1.5873 -0.3243
69260SOL     OW19758   6.817  10.687  11.599 -0.0999  0.9543  0.2408
69260SOL    HW119759   6.880  10.640  11.544  0.3772 -0.7807  2.1288
69260SOL    HW219760   6.858  10.772  11.616  1.8947 -0.2050  1.5787
69261SOL     OW19761  12.367  10.301   6.316 -0.1935  0.3645  0.4058
69261SOL    HW119762  12.346  10.272   6.405 -0.4886  1.8750  0.8522
69261SOL    HW219763  12.381  10.395   6.324  0.7949  0.3596 -0.9809
69262SOL     OW19764   9.842  13.762   4.089 -0.2841  0.1483  0.5094
69262SOL    HW119765   9.830  13.734   3.998  2.3451  0.6734 -0.0963
69262SOL    HW219766   9.789  13.701   4.140 -0.2410 -1.4708 -1.2513
69263SOL     OW19767   9.475   2.462   3.556 -0.1976 -0.3033 -0.1446
69263SOL    HW119768   9.382   2.457   3.577 -0.3399 -0.6733 -0.8238
69263SOL    HW219769   9.491   2.387   3.499  0.2951  0.3205 -0.8535
69264SOL     OW19770   0.444  12.361   0.507  0.0886  0.0902 -0.0710
69264SOL    HW119771   0.506  12.296   0.476 -0.4637  0.3927 -1.9638
69264SOL    HW219772   0.487  12.445   0.489 -0.2365  0.2757  0.0066
69265SOL     OW19773   6.236   5.045   3.589  0.0449  0.6533 -0.2084
69265SOL    HW119774   6.319   5.020   3.630 -0.8871  0.1252  1.4530
69265SOL    HW219775   6.176   5.057   3.663 -2.3975 -2.6618 -1.4454
69266SOL     OW19776   3.705  11.291  11.325 -1.0744 -0.3588  0.6859
69266SOL    HW119777   3.766  11.293  11.399 -0.3440  1.3252  0.0701
69266SOL    HW219778   3.728  11.212  11.276  2.7146  1.6650 -1.2021
69267SOL     OW19779  14.003  13.103   1.197  0.5227  0.2167  0.0249
69267SOL    HW119780  14.019  13.010   1.213 -3.5183 -0.2416  2.6426
69267SOL    HW219781  13.989  13.141   1.284 -0.2789  2.7628 -1.1122
69268SOL     OW19782   7.108  13.483   6.723  0.0964  0.2483  0.0890
69268SOL    HW119783   7.042  13.413   6.725  0.2146  0.0817 -0.9289
69268SOL    HW219784   7.179  13.450   6.777  0.6964 -1.0260 -1.3966
69269SOL     OW19785  12.874   1.096  10.045 -0.0996 -0.2416 -0.3565
69269SOL    HW119786  12.892   1.003  10.032 -1.7861 -0.7676  0.7757
69269SOL    HW219787  12.825   1.100  10.127 -3.6368  1.1141 -2.2881
69270SOL     OW19788  11.460   2.866  12.553  0.1954  0.1456  0.6341
69270SOL    HW119789  11.442   2.823  12.637  1.0147  0.1085  0.8020
69270SOL    HW219790  11.399   2.940  12.551  0.4688  0.4093  1.4660
69271SOL     OW19791   2.225  12.767   6.253  0.4146 -0.2372 -0.6350
69271SOL    HW119792   2.286  12.840   6.244  0.5929 -0.6243 -3.5631
69271SOL    HW219793   2.278  12.689   6.234 -0.7917 -0.6431 -2.5698
69272SOL     OW19794   8.567  12.681  10.737  0.4480  0.6476 -0.7913
69272SOL    HW119795   8.554  12.766  10.779 -1.0303  0.0706 -0.0020
69272SOL    HW219796   8.546  12.695  10.645 -1.1703  0.8533 -0.4171
69273SOL     OW19797   5.985   8.492   3.289  0.1389  0.1168 -0.6928
69273SOL    HW119798   6.040   8.467   3.215  1.3953 -0.3614  0.3577
69273SOL    HW219799   6.046   8.526   3.354 -0.8232 -0.2492  0.4501
69274SOL     OW19800  13.364   2.356  11.280 -0.0548 -0.4858  0.3123
69274SOL    HW119801  13.337   2.447  11.265 -1.4176 -1.1424 -1.7088
69274SOL    HW219802  13.456   2.354  11.253  0.3498  0.5063  1.5106
69275SOL     OW19803   9.656  11.262   8.311  0.2474  0.5729 -0.3921
69275SOL    HW119804   9.588  11.324   8.284  0.8411  1.1126 -0.6526
69275SOL    HW219805   9.738  11.308   8.297  0.6089  0.8338  2.1483
69276SOL     OW19806   6.943  11.009  13.680  0.5855 -0.7550 -0.0470
69276SOL    HW119807   6.857  10.968  13.693  0.5219 -0.6782 -0.2249
69276SOL    HW219808   6.931  11.098  13.711  0.6948 -0.8412  0.2426
69277SOL     OW19809  13.444   8.891   0.464  0.0297  0.1199 -0.2485
69277SOL    HW119810  13.524   8.941   0.483  1.1892 -1.4514 -0.7250
69277SOL    HW219811  13.406   8.934   0.388  1.4681 -0.1813 -1.1810
69278SOL     OW19812   8.889   3.619   9.082 -0.8895  1.1393  0.3375
69278SOL    HW119813   8.935   3.611   8.998 -2.6560  0.6104 -0.6192
69278SOL    HW219814   8.938   3.561   9.141 -0.0695  0.9169 -0.5266
69279SOL     OW19815  12.119   7.757  11.289 -0.6321  0.3444 -0.3919
69279SOL    HW119816  12.175   7.775  11.214  0.1381 -0.9081 -0.1388
69279SOL    HW219817  12.040   7.717  11.251 -0.8227  0.9420 -0.6353
69280SOL     OW19818   3.607  12.047   7.061  0.0166 -0.4611 -0.6383
69280SOL    HW119819   3.653  12.013   7.138  0.5886  0.7503 -0.4327
69280SOL    HW219820   3.671  12.042   6.990 -0.3240 -1.0279 -0.9134
69281SOL     OW19821   7.831   9.809   3.235 -0.6871 -0.0167 -0.2714
69281SOL    HW119822   7.772   9.778   3.166  0.8422  2.2827 -2.7913
69281SOL    HW219823   7.773   9.830   3.308 -2.3432 -2.8418 -0.6227
69282SOL     OW19824   6.066   4.098   0.148 -0.0867  0.2356 -0.4398
69282SOL    HW119825   6.146   4.132   0.188 -0.2676 -0.2612  0.3539
69282SOL    HW219826   6.003   4.170   0.154 -0.1539  0.1186  0.2935
69283SOL     OW19827  13.662  11.085   6.312  0.2106  0.3580  0.2168
69283SOL    HW119828  13.590  11.146   6.294  0.4922  0.5957 -0.1153
69283SOL    HW219829  13.625  10.998   6.294 -0.3088  0.3867  1.0519
69284SOL     OW19830   1.370   6.896   8.098 -0.3811  0.3661  0.5328
69284SOL    HW119831   1.309   6.941   8.156 -1.9228  1.0957 -1.5230
69284SOL    HW219832   1.432   6.964   8.070 -1.5875  0.8781 -1.1015
69285SOL     OW19833   6.000   0.226   5.781 -0.3856 -0.0018 -0.4942
69285SOL    HW119834   5.958   0.226   5.867  2.0483 -3.7351  0.9338
69285SOL    HW219835   5.942   0.175   5.725 -0.7659  0.3103 -0.3910
69286SOL     OW19836  12.646   3.365   5.483 -0.3068 -0.5746 -0.4039
69286SOL    HW119837  12.694   3.444   5.458 -0.0101 -0.5610  0.1893
69286SOL    HW219838  12.702   3.321   5.546 -0.2506 -1.5201 -1.0856
69287SOL     OW19839   6.240  12.047  11.155 -0.1960 -0.3850  0.2408
69287SOL    HW119840   6.193  12.010  11.080  0.5718 -2.4535  0.7066
69287SOL    HW219841   6.237  12.141  11.141 -1.1460 -0.6503 -1.7313
69288SOL     OW19842   4.649   4.087  13.903  0.2713 -0.0570 -0.2743
69288SOL    HW119843   4.695   4.008  13.874 -0.5414 -0.3742 -0.7261
69288SOL    HW219844   4.618   4.065  13.991  1.1987  0.2560  0.1410
69289SOL     OW19845   0.729  10.768   9.223  0.1654  0.3392 -0.1530
69289SOL    HW119846   0.754  10.676   9.217  0.3708  0.3970 -0.1993
69289SOL    HW219847   0.803  10.816   9.186  0.9525  0.6334  1.7168
69290SOL     OW19848   6.607   6.094  13.419 -0.9817  0.5046  0.5591
69290SOL    HW119849   6.597   6.117  13.326  0.9986  1.3765  0.5195
69290SOL    HW219850   6.616   5.999  13.419  2.5835  0.7233 -0.6042
69291SOL     OW19851   0.035   7.432   3.928  0.1665 -0.0208 -0.1451
69291SOL    HW119852  -0.056   7.461   3.916  0.2567 -0.1262 -1.1785
69291SOL    HW219853   0.068   7.484   4.001 -0.0627  1.5807 -1.1531
69292SOL     OW19854  13.987   1.114   6.446 -0.2737  0.1740  0.2115
69292SOL    HW119855  13.913   1.053   6.441 -0.6188  0.6090 -0.0763
69292SOL    HW219856  14.063   1.058   6.462 -0.5167 -0.3837 -0.5094
69293SOL     OW19857  10.360   8.826  12.465 -0.2458 -0.3178  0.0490
69293SOL    HW119858  10.405   8.907  12.487  2.0317 -1.2614 -0.7905
69293SOL    HW219859  10.305   8.807  12.541 -0.3154  1.6336  0.5218
69294SOL     OW19860  13.701  13.001  12.041 -0.1989 -0.7726 -0.2203
69294SOL    HW119861  13.793  12.987  12.020 -0.1301 -0.8841  0.1541
69294SOL    HW219862  13.681  13.088  12.007 -0.1310 -1.0109 -0.8952
69295SOL     OW19863   0.920   7.279   0.363 -0.3835  0.1359 -0.2714
69295SOL    HW119864   0.931   7.207   0.425  0.4926 -1.1510 -1.8363
69295SOL    HW219865   0.998   7.334   0.376  0.8758 -1.2472 -1.5658
69296SOL     OW19866  11.460  11.120   4.204 -0.1372 -0.4119  0.3545
69296SOL    HW119867  11.547  11.087   4.225 -0.5267 -2.6142 -1.1071
69296SOL    HW219868  11.449  11.198   4.259  2.4672 -0.4482  1.0434
69297SOL     OW19869   7.008   7.020   4.234 -0.5476 -0.1715 -0.0231
69297SOL    HW119870   7.082   6.985   4.185 -0.4228  1.5115 -1.1102
69297SOL    HW219871   7.017   7.115   4.226 -0.8378  0.1694  2.8280
69298SOL     OW19872   4.832   3.185   8.974 -0.1099 -0.1105  0.5371
69298SOL    HW119873   4.778   3.240   9.030  0.4818  0.0930  0.9128
69298SOL    HW219874   4.902   3.242   8.943 -0.9473  0.0569 -1.2148
69299SOL     OW19875   0.002   4.081   3.831  0.1562 -0.0875 -0.0104
69299SOL    HW119876  -0.076   4.026   3.832  0.5324 -0.6283  0.8288
69299SOL    HW219877   0.003   4.122   3.918  0.9750 -0.3393  0.1081
69300SOL     OW19878  11.718  13.804  13.242  0.3001  0.3454 -0.1781
69300SOL    HW119879  11.623  13.798  13.228 -0.0109 -1.5601  2.1220
69300SOL    HW219880  11.756  13.751  13.172 -0.6413 -2.2093  1.1417
69301SOL     OW19881   3.551   7.369  10.066  0.2898 -0.1665  0.2161
69301SOL    HW119882   3.546   7.289  10.014 -0.8705  0.8546 -1.3149
69301SOL    HW219883   3.474   7.365  10.123  0.2403 -0.1582  0.1503
69302SOL     OW19884  13.873   0.514   7.331 -0.0686 -0.0556 -0.3519
69302SOL    HW119885  13.882   0.528   7.236  0.0517  1.2314 -0.1700
69302SOL    HW219886  13.927   0.437   7.349 -0.7913 -0.8573 -1.4560
69303SOL     OW19887  13.345   5.296  11.737  0.0432  0.3725 -0.5813
69303SOL    HW119888  13.425   5.330  11.777  0.0152 -0.2042 -0.0217
69303SOL    HW219889  13.345   5.333  11.649  0.6783  0.7640 -0.4242
69304SOL     OW19890  11.697   3.805  13.811 -0.2335 -0.4837  0.1155
69304SOL    HW119891  11.792   3.793  13.812 -0.0799  0.6539  0.1810
69304SOL    HW219892  11.673   3.812  13.903 -0.1378  0.8912  0.0592
69305SOL     OW19893  12.136   2.844   1.830 -0.2949 -0.0333 -0.2478
69305SOL    HW119894  12.144   2.907   1.759  2.6069  1.0617  0.9071
69305SOL    HW219895  12.128   2.759   1.787  1.7422  0.5625 -1.9290
69306SOL     OW19896   5.990   1.826   2.329  0.0322  0.1950  0.2395
69306SOL    HW119897   5.981   1.915   2.297 -2.7996 -0.4668 -1.1271
69306SOL    HW219898   5.901   1.792   2.331  0.7881 -2.0339  2.5514
69307SOL     OW19899   2.192   3.730   9.312 -0.2010  0.0438  0.0012
69307SOL    HW119900   2.099   3.735   9.332  0.1672  0.1269  1.9955
69307SOL    HW219901   2.202   3.776   9.229 -1.7101  1.5087  0.5760
69308SOL     OW19902   8.021  11.678   6.749 -0.3187 -0.0493 -0.6020
69308SOL    HW119903   8.023  11.654   6.841 -1.0059 -0.7628 -0.7555
69308SOL    HW219904   7.928  11.693   6.730 -0.5383 -2.3477 -1.7474
69309SOL     OW19905   4.619   5.744   6.996 -0.5231  0.5815  0.0580
69309SOL    HW119906   4.676   5.819   6.982 -0.7344  0.4228 -1.8935
69309SOL    HW219907   4.668   5.688   7.056  0.8575  1.0099 -0.6247
69310SOL     OW19908   2.205   1.925   7.630  0.2888  0.1428 -0.3096
69310SOL    HW119909   2.142   1.875   7.577 -2.1844  1.9189  0.7604
69310SOL    HW219910   2.219   2.006   7.580  2.1184 -0.3936 -0.7273
69311SOL     OW19911   6.254  11.558  12.266 -0.4256  0.1546  0.1257
69311SOL    HW119912   6.249  11.514  12.350  1.9673  0.3770  0.4524
69311SOL    HW219913   6.292  11.643  12.285  0.4138  0.1135 -1.1891
69312SOL     OW19914   4.859   7.615   0.289 -0.2986 -0.1400 -0.2605
69312SOL    HW119915   4.914   7.551   0.243 -0.7539 -1.2984  0.7605
69312SOL    HW219916   4.840   7.682   0.223  0.1322 -1.0860 -1.3782
69313SOL     OW19917   2.557   6.940   7.625  0.3002  0.2677  0.2428
69313SOL    HW119918   2.586   6.903   7.542 -2.7511 -0.9246 -0.4175
69313SOL    HW219919   2.515   6.867   7.671 -0.0470  1.4153  1.8578
69314SOL     OW19920  10.632  12.355   3.204  0.2323 -0.4509  0.3870
69314SOL    HW119921  10.582  12.380   3.126  0.3434  0.9949  0.7568
69314SOL    HW219922  10.722  12.347   3.174  0.1157 -0.9695  0.1584
69315SOL     OW19923   9.545   6.638   7.964  0.1602  0.6742 -0.1603
69315SOL    HW119924   9.494   6.713   7.993 -0.4215 -0.3146  1.5627
69315SOL    HW219925   9.495   6.562   7.995  1.6704 -0.3704 -0.1671
69316SOL     OW19926  10.379  12.213   3.242 -0.2275  0.0281  0.0328
69316SOL    HW119927  10.313  12.196   3.309 -1.5809 -1.6330 -1.6067
69316SOL    HW219928  10.351  12.296   3.202  0.3223  0.7809  1.1683
69317SOL     OW19929  11.970   0.069   5.848 -0.2129  0.3101 -0.3678
69317SOL    HW119930  11.918   0.021   5.784 -0.1509 -0.8888  0.4394
69317SOL    HW219931  11.906   0.108   5.907 -0.2752 -1.3397  0.7506
69318SOL     OW19932   6.920   3.877   8.657  0.0941 -0.1468  0.1761
69318SOL    HW119933   6.841   3.867   8.710  0.4989  0.3215  0.8747
69318SOL    HW219934   6.901   3.951   8.600 -0.0338 -0.1451  0.2204
69319SOL     OW19935  10.097  13.342   2.011 -0.2582  0.1324 -0.1159
69319SOL    HW119936  10.113  13.412   1.948  2.1617 -0.0955  0.1346
69319SOL    HW219937  10.111  13.383   2.097 -0.4788 -0.2693  0.1158
69320SOL     OW19938   5.320  11.469   1.726 -0.2330 -0.5648  0.2231
69320SOL    HW119939   5.265  11.539   1.691 -0.6058  0.2979  2.3360
69320SOL    HW219940   5.410  11.500   1.715 -0.3871  0.1590  0.8856
69321SOL     OW19941   7.073   5.125   9.109 -0.1722  0.1973 -0.2607
69321SOL    HW119942   7.147   5.123   9.169  1.6005 -2.1122 -2.2773
69321SOL    HW219943   6.996   5.124   9.166  1.3409  0.5564  1.9265
69322SOL     OW19944   1.551  13.717   2.827 -0.5269  0.3052  0.0096
69322SOL    HW119945   1.521  13.631   2.858  0.4407 -0.5814 -1.4216
69322SOL    HW219946   1.480  13.748   2.771  0.3119 -0.8895 -1.7764
69323SOL     OW19947   5.667   0.996   1.361 -0.0594 -0.1078  0.1983
69323SOL    HW119948   5.740   1.006   1.421 -0.2681  0.3481  0.3769
69323SOL    HW219949   5.589   0.996   1.417 -0.4056  2.3184 -0.2079
69324SOL     OW19950   7.278   9.603   1.775 -0.6585 -0.1140  0.3206
69324SOL    HW119951   7.304   9.647   1.694 -0.4580 -1.5222 -0.4025
69324SOL    HW219952   7.287   9.671   1.842 -0.6810  1.0407 -0.7934
69325SOL     OW19953  11.246  10.766   1.857  0.3105 -0.0657  0.3919
69325SOL    HW119954  11.321  10.784   1.801  0.6523 -1.9318  0.1689
69325SOL    HW219955  11.268  10.684   1.901 -0.6648  0.4908  2.0265
69326SOL     OW19956   1.467   7.578  12.992 -0.1160  0.7558 -0.1950
69326SOL    HW119957   1.474   7.560  12.898  0.6916 -1.2868  0.1967
69326SOL    HW219958   1.387   7.531  13.018 -0.9474  2.2160 -0.0159
69327SOL     OW19959  11.194  12.225   6.179 -0.3284  0.2213 -0.3089
69327SOL    HW119960  11.099  12.212   6.178 -0.3736  0.5040  0.0387
69327SOL    HW219961  11.230  12.137   6.193 -0.5748  0.2575  0.5808
69328SOL     OW19962   3.951  10.664   8.063  0.2117 -0.2788 -0.3804
69328SOL    HW119963   3.978  10.730   7.999  1.7283 -0.7070 -0.2163
69328SOL    HW219964   4.018  10.666   8.131 -0.3304 -1.1896  0.2146
69329SOL     OW19965   0.145   1.250   5.011  0.2074 -0.1981  0.5430
69329SOL    HW119966   0.051   1.266   5.017  0.3272  1.1242 -0.5899
69329SOL    HW219967   0.155   1.156   5.028 -1.2557 -0.2668  1.1366
69330SOL     OW19968   4.588   4.863  13.552  0.0950 -0.0528  0.5479
69330SOL    HW119969   4.658   4.888  13.491 -0.3104  0.6650  0.3562
69330SOL    HW219970   4.629   4.802  13.612  0.9253  0.4504  0.5129
69331SOL     OW19971   5.679   4.733   5.519 -0.6069  0.3360 -0.6026
69331SOL    HW119972   5.643   4.723   5.607 -0.7858  0.8671 -0.6071
69331SOL    HW219973   5.706   4.825   5.515 -0.4798  0.2821 -1.0556
69332SOL     OW19974  11.509   4.364   4.106 -0.0478  0.1445 -0.0615
69332SOL    HW119975  11.535   4.283   4.063 -0.4046  0.5145 -1.0120
69332SOL    HW219976  11.568   4.431   4.069 -1.0220  0.6426 -0.7733
69333SOL     OW19977   5.378   6.320  11.818  0.3421 -0.2899 -0.4476
69333SOL    HW119978   5.445   6.349  11.879  1.1713 -1.7893 -0.6059
69333SOL    HW219979   5.370   6.393  11.755  2.1002 -0.2311 -0.6505
69334SOL     OW19980   1.572   8.540   2.717 -1.0010 -0.4062 -0.2694
69334SOL    HW119981   1.628   8.587   2.778 -0.7235  0.4195 -1.1351
69334SOL    HW219982   1.524   8.608   2.671 -0.4972 -0.9376 -1.6349
69335SOL     OW19983   9.422   8.785   6.754 -0.0177 -0.7209  0.3018
69335SOL    HW119984   9.455   8.785   6.664 -0.7829 -1.9109  0.0020
69335SOL    HW219985   9.330   8.763   6.746 -0.5653  1.0563  1.2507
69336SOL     OW19986  13.314   2.403   5.726 -0.3954 -0.9938 -0.2133
69336SOL    HW119987  13.259   2.467   5.681  0.9310  1.1625  1.0452
69336SOL    HW219988  13.402   2.418   5.691  0.2990 -0.6521  1.5604
69337SOL     OW19989  10.541   1.265  12.224 -0.1629  0.3821  0.3169
69337SOL    HW119990  10.577   1.330  12.164  0.5803  0.7533  1.1243
69337SOL    HW219991  10.479   1.214  12.172  0.8729  0.3237 -0.8953
69338SOL     OW19992   9.113  12.076   8.533  0.4716  0.0665  0.4403
69338SOL    HW119993   9.028  12.067   8.489  0.6858  0.5481 -0.0933
69338SOL    HW219994   9.176  12.066   8.462  0.8239  1.0156  0.6223
69339SOL     OW19995   5.027  10.559   2.424 -0.1993  0.0568 -0.4241
69339SOL    HW119996   5.049  10.480   2.374 -1.0861  0.6433 -1.7924
69339SOL    HW219997   4.962  10.529   2.488 -1.1931 -0.1763 -1.5135
69340SOL     OW19998   8.698   6.175  13.592  0.6647 -0.2202  0.1302
69340SOL    HW119999   8.661   6.121  13.522 -0.9136  2.0173 -0.8617
69340SOL    HW220000   8.696   6.264  13.557 -0.2064  0.9943  3.0128
69341SOL     OW20001  11.367   9.695   4.790  0.2515 -0.2509  0.2400
69341SOL    HW120002  11.349   9.770   4.847  0.8399 -0.4767  0.7411
69341SOL    HW220003  11.356   9.619   4.847  1.9774 -0.4387  0.3977
69342SOL     OW20004   4.287   6.779   3.371 -0.6327 -0.1195 -0.4591
69342SOL    HW120005   4.211   6.817   3.416  0.7846  2.1936  0.1739
69342SOL    HW220006   4.306   6.699   3.421 -2.1175 -0.3181 -0.1389
69343SOL     OW20007   6.688   0.859  12.416  0.2806  0.1351 -0.0412
69343SOL    HW120008   6.672   0.952  12.399 -0.4374  0.1455  0.6327
69343SOL    HW220009   6.610   0.829  12.463  0.4387 -0.8511 -0.3917
69344SOL     OW20010   9.315   4.895   5.800 -0.1235 -0.4824 -0.5101
69344SOL    HW120011   9.239   4.882   5.856  1.0174 -1.7283  0.8420
69344SOL    HW220012   9.319   4.816   5.745 -0.5825  0.2182 -1.5911
69345SOL     OW20013   7.979  13.127  10.598 -0.4101  0.3443 -0.3216
69345SOL    HW120014   8.061  13.094  10.635  0.7066  2.3170 -0.8723
69345SOL    HW220015   7.942  13.181  10.668 -0.4592  0.6644 -0.5915
69346SOL     OW20016  12.417  12.250  11.373 -0.0692 -0.3348 -0.7137
69346SOL    HW120017  12.376  12.252  11.460 -3.7860  0.7305 -2.3086
69346SOL    HW220018  12.413  12.340  11.342  0.5217 -0.8087 -2.2677
69347SOL     OW20019   2.883   5.109   0.652  0.2423  0.1025  0.5004
69347SOL    HW120020   2.977   5.113   0.670  0.1180 -1.8138  1.8322
69347SOL    HW220021   2.866   5.186   0.597  2.9264 -0.5149 -1.4248
69348SOL     OW20022  10.855   8.177  12.745  0.2310  0.4685 -0.3944
69348SOL    HW120023  10.936   8.165  12.696  0.4432  0.4755 -0.0445
69348SOL    HW220024  10.792   8.118  12.703  0.3314  0.6969 -0.8640
69349SOL     OW20025   1.770   7.868  12.271 -0.2429  0.4200 -0.2155
69349SOL    HW120026   1.745   7.778  12.251  0.0453  0.5435 -1.1704
69349SOL    HW220027   1.798   7.864  12.363 -0.8665 -0.3169 -0.0368
69350SOL     OW20028   7.011   2.085   9.740 -0.3330  0.0282 -0.1738
69350SOL    HW120029   7.084   2.040   9.695  1.6416  2.5569  0.2885
69350SOL    HW220030   6.963   2.127   9.670  0.9230  1.4230 -0.2452
69351SOL     OW20031   9.534   7.402  13.588 -0.3039  0.1559 -0.5255
69351SOL    HW120032   9.560   7.448  13.668 -0.2086  1.4525 -1.2722
69351SOL    HW220033   9.574   7.315  13.596 -1.1969 -0.1266  1.3185
69352SOL     OW20034   4.696   3.392   6.177  0.7921 -0.1309 -0.2218
69352SOL    HW120035   4.790   3.411   6.175  0.8657 -0.1629  1.6064
69352SOL    HW220036   4.688   3.309   6.132  1.8092 -0.6688  0.5378
69353SOL     OW20037   5.168   6.315  11.477  0.0577  0.1276  0.5867
69353SOL    HW120038   5.160   6.356  11.391  0.3354  0.1137  0.5529
69353SOL    HW220039   5.235   6.366  11.522  0.2429 -0.1491  0.6266
69354SOL     OW20040   6.437   8.958  13.651 -0.2159 -0.0386 -0.0147
69354SOL    HW120041   6.441   8.892  13.720  0.9082  0.9709  0.9305
69354SOL    HW220042   6.375   9.023  13.684  1.8979  1.5280  1.1063
69355SOL     OW20043   8.726   4.248   5.895 -0.5175  0.2292 -0.5113
69355SOL    HW120044   8.800   4.251   5.956 -0.4942 -0.4868 -0.4978
69355SOL    HW220045   8.761   4.286   5.814 -0.2494  0.2457 -0.3909
69356SOL     OW20046   6.325   3.272   0.768 -0.2632 -0.3963  0.4582
69356SOL    HW120047   6.318   3.360   0.806  0.4065  0.8468 -2.0207
69356SOL    HW220048   6.406   3.236   0.804  0.7808  1.0549 -0.3304
69357SOL     OW20049  14.003   6.421   5.778 -0.0515  0.0203  0.2121
69357SOL    HW120050  14.015   6.483   5.850 -0.4618  0.1973  0.1280
69357SOL    HW220051  14.079   6.363   5.784 -0.8409 -0.9148  1.7028
69358SOL     OW20052   8.958  11.687   1.931  0.5346 -0.2768 -0.4380
69358SOL    HW120053   9.032  11.627   1.921  0.1991 -0.7565 -0.0628
69358SOL    HW220054   8.941  11.718   1.842  1.6217  0.3733 -0.4392
69359SOL     OW20055  13.403   3.237   6.258  0.0338  0.0540  0.1039
69359SOL    HW120056  13.494   3.253   6.235 -0.0902  1.1181  0.2826
69359SOL    HW220057  13.380   3.310   6.316 -0.8756 -0.3038  0.2155
69360SOL     OW20058   5.306   5.227   5.431 -0.3280  0.3157  0.2411
69360SOL    HW120059   5.385   5.262   5.471  0.1497 -0.6745  0.1830
69360SOL    HW220060   5.275   5.297   5.373  0.0182  1.0331  0.9010
69361SOL     OW20061   4.638   2.896   5.345 -0.4333  0.4176 -0.8026
69361SOL    HW120062   4.611   2.869   5.433 -0.4924  1.2105 -0.5741
69361SOL    HW220063   4.701   2.828   5.318  0.9014  1.0546  0.5321
69362SOL     OW20064   6.407   3.023  10.930  0.0159 -0.0910  0.5212
69362SOL    HW120065   6.499   3.048  10.937 -0.0081  0.5071 -1.0320
69362SOL    HW220066   6.363   3.076  10.997  0.3518  2.2186 -0.9539
69363SOL     OW20067  12.041  10.712  13.080  0.3641  0.3619  0.0958
69363SOL    HW120068  12.080  10.767  13.011 -0.0107  0.6312  0.0936
69363SOL    HW220069  12.090  10.735  13.159  0.5761  0.2953 -0.0151
69364SOL     OW20070   7.839  13.193  11.958  0.3218 -0.0391 -0.0179
69364SOL    HW120071   7.929  13.168  11.978 -0.0663 -1.1799  0.4277
69364SOL    HW220072   7.838  13.288  11.966  1.4800 -0.0064 -0.0369
69365SOL     OW20073   6.735   0.832   4.177  0.5157  0.4164  0.3205
69365SOL    HW120074   6.692   0.844   4.093  0.3712  2.3843  0.6250
69365SOL    HW220075   6.674   0.869   4.241  1.8016  1.5358  0.9630
69366SOL     OW20076   1.681   4.490   6.040  0.7253 -0.1474  0.0760
69366SOL    HW120077   1.747   4.534   6.094  1.4233 -0.0787 -0.8013
69366SOL    HW220078   1.603   4.545   6.046  0.5593 -0.5228  1.5767
69367SOL     OW20079   9.075  13.428   7.938 -0.1170 -0.1109 -0.2571
69367SOL    HW120080   9.132  13.352   7.945  0.7134  0.3759 -1.3970
69367SOL    HW220081   9.128  13.494   7.893 -1.3028  0.6440 -0.6048
69368SOL     OW20082   3.217   0.367   4.450 -0.4824  0.5015  0.1968
69368SOL    HW120083   3.238   0.452   4.412 -1.0190  0.9759  0.9400
69368SOL    HW220084   3.199   0.311   4.375 -0.1014  1.0298 -0.2984
69369SOL     OW20085   5.529   2.661   0.534  0.0211  0.5752  0.1293
69369SOL    HW120086   5.507   2.706   0.453 -0.7255 -3.3702 -2.1227
69369SOL    HW220087   5.606   2.609   0.513 -0.8466 -1.4155  1.4965
69370SOL     OW20088  13.367   0.353   5.323  0.1871  0.0879 -0.1851
69370SOL    HW120089  13.365   0.427   5.262 -0.7316  0.5226  0.3532
69370SOL    HW220090  13.376   0.393   5.409  3.2776 -0.5690 -0.0715
69371SOL     OW20091  12.846   9.212   6.174 -0.1909  0.3059 -0.2648
69371SOL    HW120092  12.857   9.128   6.129  2.0835 -0.5285  1.6391
69371SOL    HW220093  12.904   9.272   6.128 -2.6139  1.2561 -2.3122
69372SOL     OW20094  13.873   9.575  13.122  0.3899  0.3565 -0.4108
69372SOL    HW120095  13.940   9.624  13.169  0.4023 -1.8355  2.0370
69372SOL    HW220096  13.792   9.590  13.171  0.3482 -1.7474  0.2984
69373SOL     OW20097  11.429  10.544   4.903 -0.7234 -0.3172 -0.1118
69373SOL    HW120098  11.442  10.454   4.874 -0.8946  0.2383 -2.0236
69373SOL    HW220099  11.516  10.583   4.901 -0.8024 -0.1488 -0.3173
69374SOL     OW20100  10.902   2.792  12.842  0.3483  0.2355 -0.2214
69374SOL    HW120101  10.841   2.864  12.828  0.0961  0.1561  0.4685
69374SOL    HW220102  10.877   2.755  12.926  0.2997 -0.8327 -0.6886
69375SOL     OW20103  10.657   9.979   3.772  0.1224 -0.2416  0.2057
69375SOL    HW120104  10.585  10.042   3.762 -0.4393 -1.1682 -2.2393
69375SOL    HW220105  10.624   9.915   3.835 -0.2494  0.5828  0.8759
69376SOL     OW20106   9.727  12.873   9.027 -0.0571  0.4651  0.3805
69376SOL    HW120107   9.676  12.953   9.041  1.3317  1.4047  0.2611
69376SOL    HW220108   9.758  12.879   8.937  1.2255  0.5046  0.8092
69377SOL     OW20109   4.156   4.817  10.873  0.4190  0.0352 -0.4177
69377SOL    HW120110   4.123   4.907  10.870  0.8497  0.2948  1.4546
69377SOL    HW220111   4.099   4.769  10.813 -1.7609  0.9794  0.7586
69378SOL     OW20112   0.797   2.349  10.012  0.0039  0.5055 -0.3012
69378SOL    HW120113   0.719   2.301   9.983 -0.7392  1.8494 -0.6229
69378SOL    HW220114   0.841   2.289  10.073  0.3321 -1.4612 -2.3257
69379SOL     OW20115   0.502  11.877   9.909 -0.1055 -0.3881 -0.4058
69379SOL    HW120116   0.489  11.806   9.972 -1.2761  0.2977  0.1469
69379SOL    HW220117   0.496  11.834   9.824 -1.1310 -0.9201 -0.0853
69380SOL     OW20118   5.264   0.156   6.902 -0.5679  0.7055  0.5625
69380SOL    HW120119   5.239   0.242   6.866 -1.6930  0.1165 -0.1301
69380SOL    HW220120   5.321   0.118   6.836 -1.7607  0.0767 -0.1507
69381SOL     OW20121  13.336  12.314   6.952 -0.1820 -0.7274  0.5319
69381SOL    HW120122  13.264  12.377   6.955 -1.4298 -2.0819  0.4005
69381SOL    HW220123  13.326  12.264   7.033  1.4700 -0.0657  1.1777
69382SOL     OW20124  13.698   7.485   6.320 -0.4427 -0.1146  0.1299
69382SOL    HW120125  13.784   7.447   6.304 -0.8180 -0.0739 -2.5167
69382SOL    HW220126  13.639   7.410   6.325 -0.4972 -0.0880 -0.0678
69383SOL     OW20127   5.449   1.752   4.326  0.7525 -0.4342  0.0124
69383SOL    HW120128   5.357   1.754   4.355  0.5526 -2.1286 -0.3811
69383SOL    HW220129   5.445   1.759   4.231  1.0685  0.0418  0.0333
69384SOL     OW20130   3.676   2.376   1.341 -0.0367 -0.3107 -0.3802
69384SOL    HW120131   3.708   2.291   1.370 -2.0999 -0.6022  1.1972
69384SOL    HW220132   3.640   2.417   1.419 -3.0560  0.1864 -1.9020
69385SOL     OW20133   3.462   0.728  12.575  0.0748  0.1530  0.0306
69385SOL    HW120134   3.472   0.703  12.484  0.9862 -0.5133  0.3040
69385SOL    HW220135   3.462   0.646  12.624  1.6350  0.5660  0.8016
69386SOL     OW20136   3.966  13.358  11.773 -0.0585 -0.1781  0.1389
69386SOL    HW120137   3.895  13.320  11.825 -0.4012  0.7449  0.3583
69386SOL    HW220138   3.979  13.445  11.810  0.9303 -0.1920 -0.1499
69387SOL     OW20139  10.935   6.571   5.018 -0.8446  0.1821  0.0929
69387SOL    HW120140  10.871   6.633   5.052 -1.9362 -0.5164 -0.6105
69387SOL    HW220141  10.959   6.605   4.931 -0.5268  0.2465  0.2023
69388SOL     OW20142   5.057  12.298   0.265  0.2027 -0.0588  0.3427
69388SOL    HW120143   5.146  12.330   0.277 -0.2744  2.5011 -1.9813
69388SOL    HW220144   5.003  12.356   0.318 -0.3400  0.6335 -0.9229
69389SOL     OW20145   4.582   9.021   1.142 -0.4126 -0.2732 -0.3231
69389SOL    HW120146   4.629   8.937   1.146 -0.8510 -0.5372 -0.5976
69389SOL    HW220147   4.626   9.068   1.070  1.1166  0.5463  1.0814
69390SOL     OW20148  11.267   5.991  13.277 -0.1078  0.3535 -0.0211
69390SOL    HW120149  11.292   5.964  13.188 -0.9449  3.2422 -1.2824
69390SOL    HW220150  11.196   5.932  13.301 -1.9363  1.2804 -2.6194
69391SOL     OW20151   4.928   3.932   8.325 -0.2442  0.1353  0.6784
69391SOL    HW120152   4.878   3.972   8.254 -1.3632 -0.7038  0.9806
69391SOL    HW220153   4.936   4.002   8.390 -1.5939  0.1000  0.9035
69392SOL     OW20154   3.804   6.194   3.259 -0.0333 -0.1152  0.1140
69392SOL    HW120155   3.757   6.193   3.175  0.1400 -1.0261  0.0223
69392SOL    HW220156   3.838   6.106   3.269 -0.1652 -0.0577  1.2169
69393SOL     OW20157  11.779   5.704  12.986  0.1253  0.4135  0.1844
69393SOL    HW120158  11.762   5.776  13.047 -0.7646  0.0032  0.4362
69393SOL    HW220159  11.698   5.653  12.985  0.8208 -0.7464  0.2305
69394SOL     OW20160  11.968  12.522   3.218 -0.0398  0.6067  0.1285
69394SOL    HW120161  12.049  12.566   3.242  0.3211 -1.3303  3.0286
69394SOL    HW220162  11.916  12.521   3.299 -1.2415 -1.6453 -0.5752
69395SOL     OW20163  13.332   5.572  11.562 -0.1969 -0.1699 -0.3703
69395SOL    HW120164  13.318   5.570  11.467  0.7218 -2.5386 -0.5315
69395SOL    HW220165  13.417   5.613  11.573  0.7121 -1.8363 -0.8015
69396SOL     OW20166  11.803   9.772   9.332 -0.3452 -0.5301 -0.2913
69396SOL    HW120167  11.731   9.759   9.394 -1.3668  1.9344 -0.8437
69396SOL    HW220168  11.761   9.807   9.254  1.1937 -1.4827 -1.6168
69397SOL     OW20169   1.353   2.725  14.029  0.0607  0.3154  0.4939
69397SOL    HW120170   1.388   2.809  13.998  1.3430 -0.2741  0.3060
69397SOL    HW220171   1.260   2.728  14.005  0.7320  0.3110 -2.5999
69398SOL     OW20172   5.330   8.137  10.973  0.4844 -0.1948  0.4114
69398SOL    HW120173   5.415   8.181  10.982  0.5526 -0.3484  0.5152
69398SOL    HW220174   5.350   8.056  10.925  0.3643 -0.1300  0.2505
69399SOL     OW20175  12.951   4.820  10.466  0.0141 -0.2012 -0.2984
69399SOL    HW120176  13.023   4.877  10.491 -0.3570 -0.1707  0.7391
69399SOL    HW220177  12.977   4.733  10.497 -0.9674  0.0416  1.3320
69400SOL     OW20178   3.093   8.822   3.745  0.0103  0.0017  0.3625
69400SOL    HW120179   3.034   8.873   3.801 -0.6568 -0.4751  0.1166
69400SOL    HW220180   3.094   8.735   3.784 -2.8481 -1.2365 -1.9259
69401SOL     OW20181   4.242   2.938  10.766 -0.0048  0.0372  0.1595
69401SOL    HW120182   4.225   2.856  10.813 -2.4093 -0.2454 -1.0376
69401SOL    HW220183   4.236   3.006  10.834 -2.5245 -0.4300  0.5179
69402SOL     OW20184   1.063  10.147   4.310 -0.1532  0.1307 -0.1942
69402SOL    HW120185   1.031  10.202   4.381 -1.5983 -1.0819  0.1573
69402SOL    HW220186   1.066  10.059   4.347 -3.0271 -0.9372 -2.1439
69403SOL     OW20187  12.684   0.544  11.715 -0.0716  0.3766  0.5342
69403SOL    HW120188  12.651   0.604  11.648  0.8276 -1.3670 -1.5842
69403SOL    HW220189  12.769   0.515  11.681  0.6483 -0.2006  2.6989
69404SOL     OW20190  10.843   1.909  12.839  0.3076 -0.0364  0.6089
69404SOL    HW120191  10.798   1.985  12.802  1.9479  0.5043 -0.3955
69404SOL    HW220192  10.775   1.861  12.887 -1.7170 -0.1865 -2.1764
69405SOL     OW20193   7.114   7.177   1.028  0.0283  0.1299 -0.7057
69405SOL    HW120194   7.127   7.271   1.016 -0.7224  0.6747  2.0394
69405SOL    HW220195   7.033   7.158   0.981 -0.7888  1.2714  0.1902
69406SOL     OW20196   1.813   8.594   8.875 -0.3260  0.4698 -0.4270
69406SOL    HW120197   1.796   8.512   8.922  2.4047 -0.8971 -1.5566
69406SOL    HW220198   1.875   8.641   8.931 -0.0073  0.6107 -0.8888
69407SOL     OW20199   0.090   1.291   8.931  0.0078 -0.3223  0.7305
69407SOL    HW120200   0.144   1.243   8.868 -1.3677  0.7769 -1.3923
69407SOL    HW220201   0.050   1.222   8.984  1.6409 -1.2562  0.8329
69408SOL     OW20202   4.684   2.174  10.571 -0.4524  0.3018 -0.6622
69408SOL    HW120203   4.630   2.094  10.573  0.3205 -0.2226  0.8274
69408SOL    HW220204   4.630   2.240  10.613 -0.7843  0.3505 -1.1649
69409SOL     OW20205   8.172   1.555   1.584 -0.1962 -0.8016  0.2000
69409SOL    HW120206   8.080   1.530   1.579 -0.2332 -0.7153  0.4600
69409SOL    HW220207   8.216   1.480   1.622 -0.2777 -0.5522  0.7954
69410SOL     OW20208  10.727   7.146  10.445  0.3479 -0.6916  1.0261
69410SOL    HW120209  10.662   7.077  10.436  2.1948 -2.2851 -1.8015
69410SOL    HW220210  10.709   7.206  10.373  0.1018  0.6249  2.1499
69411SOL     OW20211   6.590   2.384   9.602  0.5706  0.1875  0.2020
69411SOL    HW120212   6.522   2.451   9.595  0.2685  0.1249  2.0888
69411SOL    HW220213   6.544   2.305   9.628  1.2448 -0.1064  0.5277
69412SOL     OW20214   2.844   6.144  12.280 -0.0180  0.4356  0.7005
69412SOL    HW120215   2.810   6.060  12.250 -0.3298  0.7647  0.1141
69412SOL    HW220216   2.767   6.191  12.312  0.2379  0.2839  1.5596
69413SOL     OW20217  11.511  13.490  12.510 -0.0759  0.5835  0.0883
69413SOL    HW120218  11.562  13.512  12.433 -0.8241  0.1053 -0.5560
69413SOL    HW220219  11.539  13.552  12.577  0.8184  0.7832 -0.4680
69414SOL     OW20220   8.274  13.002   0.113  0.1307 -0.1674 -0.3440
69414SOL    HW120221   8.321  12.948   0.049 -0.0345 -0.2005 -0.4405
69414SOL    HW220222   8.231  12.938   0.170  1.0873 -0.1456  0.4213
69415SOL     OW20223  10.241   6.492   5.097  0.0870  0.3065  0.1312
69415SOL    HW120224  10.320   6.479   5.149 -0.5995  0.2202  1.1842
69415SOL    HW220225  10.221   6.405   5.062  0.8980  0.4870 -0.8114
69416SOL     OW20226   7.274  11.507   2.626 -0.9054  0.3739 -0.4420
69416SOL    HW120227   7.211  11.577   2.644 -0.6509  0.7834 -1.1228
69416SOL    HW220228   7.220  11.430   2.606 -1.2134  0.9202 -1.8038
69417SOL     OW20229   1.997   7.490   7.377  0.2460  0.3088  0.3520
69417SOL    HW120230   1.964   7.459   7.461  1.0837  0.8678  0.9057
69417SOL    HW220231   2.090   7.508   7.393  0.3477  0.7092 -0.6112
69418SOL     OW20232   6.492  12.784   9.784 -0.1038 -0.6066 -1.0042
69418SOL    HW120233   6.426  12.744   9.842 -0.0883  1.5195  0.5769
69418SOL    HW220234   6.444  12.850   9.735  0.6255  0.2638 -0.5779
69419SOL     OW20235   6.744  13.160   5.792 -0.2504 -0.3900  0.2395
69419SOL    HW120236   6.798  13.082   5.807 -2.0904 -1.9032 -0.4869
69419SOL    HW220237   6.656  13.133   5.820 -1.6175  0.2589 -3.0247
69420SOL     OW20238   6.336  11.876   2.626 -0.1114 -0.0265  0.0958
69420SOL    HW120239   6.278  11.923   2.566  1.2574  0.2602 -1.0518
69420SOL    HW220240   6.398  11.942   2.655  2.5829 -1.2138 -2.4530
69421SOL     OW20241   2.669   7.404   3.237  0.2180  0.5754  0.1309
69421SOL    HW120242   2.683   7.372   3.326  0.9568 -0.6189 -0.3856
69421SOL    HW220243   2.630   7.331   3.190 -0.1533  1.1842 -0.5387
69422SOL     OW20244   1.620   3.459   9.948  0.0727  0.2988  0.2415
69422SOL    HW120245   1.533   3.492   9.970  0.3367  0.1472  1.5491
69422SOL    HW220246   1.605   3.398   9.876 -0.9519 -0.0362  0.7286
69423SOL     OW20247  12.322   4.156   6.152  0.2143  0.1887  0.0099
69423SOL    HW120248  12.403   4.112   6.175  0.5226  1.1095  0.7265
69423SOL    HW220249  12.349   4.232   6.101 -0.2939 -0.2659 -0.9699
69424SOL     OW20250  11.520   2.314  11.926  0.2563  0.2727 -0.5611
69424SOL    HW120251  11.571   2.356  11.856 -1.7140  1.2783 -1.5051
69424SOL    HW220252  11.456   2.260  11.879  1.6069 -2.5212  0.6097
69425SOL     OW20253   6.291   9.818   7.533  0.2791  0.4670 -0.0808
69425SOL    HW120254   6.220   9.883   7.541  0.8678  1.1770 -0.4872
69425SOL    HW220255   6.290   9.794   7.440 -0.5964 -0.8918  0.2521
69426SOL     OW20256   1.342   3.416   7.697 -0.2284 -0.0083  0.4880
69426SOL    HW120257   1.288   3.495   7.697 -1.8018 -1.0511  0.8527
69426SOL    HW220258   1.296   3.355   7.639  0.8629 -0.7436  0.3630
69427SOL     OW20259  13.976   3.534   7.530 -0.7523 -0.8977 -0.1256
69427SOL    HW120260  13.948   3.485   7.607  0.9587 -2.7608 -0.6234
69427SOL    HW220261  13.934   3.489   7.457  0.7164 -1.5648 -0.5795
69428SOL     OW20262   9.136  10.825  12.032  0.2360  0.1218  0.5676
69428SOL    HW120263   9.101  10.841  11.944 -1.4041 -1.8005  0.8169
69428SOL    HW220264   9.229  10.846  12.024 -0.0658  0.9833 -1.3493
69429SOL     OW20265   6.220  13.900  12.506  0.1472  0.6288  0.6105
69429SOL    HW120266   6.286  13.967  12.494  0.0717  0.6179  0.1230
69429SOL    HW220267   6.261  13.835  12.563  0.9387  0.1193 -0.4945
69430SOL     OW20268   5.966  11.530   6.868 -0.2265  0.4851 -0.3227
69430SOL    HW120269   5.881  11.526   6.911  0.2286  0.9418  0.6738
69430SOL    HW220270   6.029  11.510   6.938  0.4769  0.0776 -1.0542
69431SOL     OW20271  13.214   5.179  10.672 -0.2382  0.1548  0.5752
69431SOL    HW120272  13.227   5.096  10.627 -1.4440  0.4512 -0.3827
69431SOL    HW220273  13.254   5.244  10.615 -0.7681  0.4066  0.4793
69432SOL     OW20274   7.877   2.613   6.602  0.0199  0.0250  0.0748
69432SOL    HW120275   7.782   2.604   6.596 -0.0730 -1.2603  2.2384
69432SOL    HW220276   7.900   2.568   6.684  2.4418  0.7031 -0.1527
69433SOL     OW20277  11.908   1.137   9.637  0.4060 -0.2789  0.6410
69433SOL    HW120278  11.965   1.090   9.575  1.1054  2.6138 -1.1068
69433SOL    HW220279  11.957   1.136   9.719  2.1426  0.4801 -0.3190
69434SOL     OW20280   6.195  10.622   7.205 -0.3032 -0.0702 -0.4890
69434SOL    HW120281   6.114  10.664   7.234 -0.3107 -1.3481  1.5031
69434SOL    HW220282   6.262  10.653   7.265  0.2669 -0.6582 -0.8051
69435SOL     OW20283   7.326   4.966   3.565 -0.2239 -0.5321 -0.0423
69435SOL    HW120284   7.367   4.885   3.597 -2.3667 -1.4564  0.5173
69435SOL    HW220285   7.261   4.988   3.631  1.8788  3.1202  1.0925
69436SOL     OW20286   7.623  10.491   4.226  0.4368  0.1017 -0.6472
69436SOL    HW120287   7.539  10.535   4.240 -0.8098 -2.4284  0.4035
69436SOL    HW220288   7.686  10.546   4.273 -1.2726  0.0816  1.9009
69437SOL     OW20289   1.258   7.010   9.481 -0.5121  0.0363  0.2024
69437SOL    HW120290   1.221   7.029   9.395 -2.4990 -0.9789  0.7932
69437SOL    HW220291   1.187   7.029   9.543  0.2220 -1.1701  1.4631
69438SOL     OW20292   5.673   2.709  10.499  0.1157 -0.0083  0.2565
69438SOL    HW120293   5.649   2.791  10.455 -1.0271 -0.4165  0.0908
69438SOL    HW220294   5.599   2.690  10.558  0.4101 -0.8649  0.3696
69439SOL     OW20295   6.994  13.304   2.972 -0.2643  0.5908  0.7325
69439SOL    HW120296   7.063  13.263   2.921 -0.8534  0.8922 -0.3369
69439SOL    HW220297   7.026  13.393   2.989 -0.1752  0.5707  0.6642
69440SOL     OW20298   0.980  12.254  12.253 -0.1650  0.1426 -0.0904
69440SOL    HW120299   0.959  12.202  12.330  0.1045  0.5909  0.2886
69440SOL    HW220300   1.072  12.278  12.264 -0.0859  0.0936 -0.6207
69441SOL     OW20301   6.545   3.453   1.486 -0.0013  0.5916 -0.3202
69441SOL    HW120302   6.490   3.489   1.556  1.2112 -0.1738  1.0818
69441SOL    HW220303   6.490   3.457   1.408 -2.4559 -1.1446  1.1962
69442SOL     OW20304   9.973   2.924  11.420  0.1880 -0.3332  0.1544
69442SOL    HW120305  10.039   2.993  11.414  1.3859 -1.4488  0.1441
69442SOL    HW220306  10.023   2.844  11.434 -0.7642 -1.9091 -3.9463
69443SOL     OW20307  11.272  12.620   9.301 -0.4858 -0.0304 -0.0036
69443SOL    HW120308  11.254  12.714   9.302 -0.1445  0.0703 -1.4461
69443SOL    HW220309  11.358  12.611   9.343 -1.3056  0.0736  1.7962
69444SOL     OW20310  10.940  13.000   8.075 -0.8445  0.5607  0.2139
69444SOL    HW120311  10.982  12.981   7.991 -0.0831  0.4716  0.6137
69444SOL    HW220312  10.900  13.086   8.063 -0.7133  0.5642 -0.2215
69445SOL     OW20313   2.689   1.643   1.732 -0.6239 -0.2227 -0.4915
69445SOL    HW120314   2.727   1.581   1.670  1.7435 -0.3176  0.9199
69445SOL    HW220315   2.652   1.588   1.801  1.7254 -0.2105  0.9042
69446SOL     OW20316   3.277   3.221  13.112  0.1083  0.3400 -0.7599
69446SOL    HW120317   3.331   3.142  13.114 -1.8080 -1.0415 -0.1737
69446SOL    HW220318   3.241   3.228  13.200  0.9429  2.4297 -0.5408
69447SOL     OW20319  13.890  13.248   9.051  0.3966  0.1008 -0.7915
69447SOL    HW120320  13.893  13.198   8.970 -0.6122  0.0865 -0.8356
69447SOL    HW220321  13.868  13.337   9.024  1.6075  0.4494 -0.6638
69448SOL     OW20322   6.860   6.694   9.696 -0.7732  0.2454 -0.5134
69448SOL    HW120323   6.856   6.655   9.609 -0.9617 -0.9842  0.0229
69448SOL    HW220324   6.870   6.788   9.680 -1.0114  0.0632 -1.8536
69449SOL     OW20325  12.517   2.480   4.126  0.3115 -0.0440  0.3632
69449SOL    HW120326  12.455   2.504   4.195 -1.6197  1.0782 -1.6499
69449SOL    HW220327  12.569   2.559   4.112 -0.8069  0.4697 -0.9684
69450SOL     OW20328   5.177   7.800   0.037 -0.1610  0.1650  0.2290
69450SOL    HW120329   5.207   7.724  -0.014  2.3746 -0.2249  2.0775
69450SOL    HW220330   5.131   7.855  -0.026  1.3654 -1.0549 -2.0957
69451SOL     OW20331  11.851   9.290   1.243  0.5835 -0.9165 -0.1455
69451SOL    HW120332  11.770   9.296   1.192  1.1185  0.1749 -0.9070
69451SOL    HW220333  11.918   9.266   1.180  1.0979 -0.4200  0.1985
69452SOL     OW20334  13.103  10.326  12.871  0.7090 -0.0463 -0.3603
69452SOL    HW120335  13.128  10.275  12.948  0.2805 -0.5554 -0.5453
69452SOL    HW220336  13.068  10.261  12.810  0.0418  0.4814 -0.5599
69453SOL     OW20337   5.770   7.866   1.214 -0.2177 -0.3563  0.5556
69453SOL    HW120338   5.680   7.862   1.245 -0.6659 -1.3435 -0.7413
69453SOL    HW220339   5.764   7.845   1.121  1.1374  1.5536 -0.0336
69454SOL     OW20340   5.936   1.525   0.683  0.4100 -0.5075 -0.4757
69454SOL    HW120341   5.971   1.475   0.756  1.2002 -2.0987 -1.8665
69454SOL    HW220342   5.925   1.614   0.717  0.5871 -1.2376  1.5826
69455SOL     OW20343   7.552   3.400   9.842 -0.2470  0.0336 -0.1169
69455SOL    HW120344   7.612   3.363   9.906  1.1160  1.4701 -0.5007
69455SOL    HW220345   7.517   3.324   9.794  0.9878 -0.8581  0.3563
69456SOL     OW20346  13.042   7.741   4.900 -0.4078  0.5112  0.6829
69456SOL    HW120347  12.991   7.676   4.949  0.2475  0.1928  0.9445
69456SOL    HW220348  13.099   7.782   4.965  1.5106 -0.9123 -0.0152
69457SOL     OW20349  11.572   3.737   0.998  0.1873 -0.0170  0.5004
69457SOL    HW120350  11.649   3.776   1.039 -0.5257  0.2317  1.6308
69457SOL    HW220351  11.604   3.704   0.914  1.0398  2.1503 -0.0950
69458SOL     OW20352  12.577   3.072  11.358  0.8233  0.3786  0.2594
69458SOL    HW120353  12.605   3.050  11.269 -0.2096  0.9536 -0.2384
69458SOL    HW220354  12.643   3.033  11.415  1.8689  0.5746 -0.7839
69459SOL     OW20355   2.774   3.907   8.400 -0.1560 -0.8615  0.5012
69459SOL    HW120356   2.811   3.982   8.446 -0.2510 -1.8196  2.2764
69459SOL    HW220357   2.806   3.831   8.449 -0.6042 -1.9518 -0.8170
69460SOL     OW20358   2.166  10.049  11.192 -0.0870 -0.0469  0.0223
69460SOL    HW120359   2.164  10.138  11.156 -3.2363  0.7400  1.7329
69460SOL    HW220360   2.088  10.007  11.155 -1.1429 -0.5414  2.6447
69461SOL     OW20361  10.742  13.010   9.671  0.0690 -0.8845  0.4569
69461SOL    HW120362  10.736  13.027   9.578  2.5994 -0.8863  0.2217
69461SOL    HW220363  10.765  12.917   9.677 -0.7666 -1.0611  1.1277
69462SOL     OW20364  13.830   4.845  10.698  0.1774 -0.4826 -0.1211
69462SOL    HW120365  13.851   4.908  10.767 -2.2178 -0.3333  0.5788
69462SOL    HW220366  13.744   4.873  10.665  0.1554 -1.9870 -1.4719
69463SOL     OW20367   1.570  11.243   3.650 -0.1813 -0.1059  0.1377
69463SOL    HW120368   1.572  11.233   3.745 -2.7610 -0.4081  0.2290
69463SOL    HW220369   1.508  11.176   3.620  1.7015 -1.0395 -1.9518
69464SOL     OW20370  13.516   1.489   0.984 -0.7869 -0.3328 -0.5028
69464SOL    HW120371  13.566   1.417   0.947  2.1187  1.6714 -0.7983
69464SOL    HW220372  13.548   1.497   1.074 -1.1647  0.4810 -0.4314
69465SOL     OW20373   5.476  12.361   0.070 -0.4466 -0.4552  0.1361
69465SOL    HW120374   5.466  12.353  -0.025  2.8993 -2.0492 -0.2151
69465SOL    HW220375   5.393  12.328   0.105 -0.9580 -1.9615 -2.2090
69466SOL     OW20376  10.669   4.619   0.345 -0.0972 -0.5542 -0.6353
69466SOL    HW120377  10.727   4.567   0.401 -0.2323  0.5669  0.6198
69466SOL    HW220378  10.696   4.599   0.256 -0.2921 -2.9228 -0.2270
69467SOL     OW20379  11.608  11.624   2.806  0.1839 -0.6383 -0.5294
69467SOL    HW120380  11.648  11.681   2.740  2.5711 -2.1558 -0.5136
69467SOL    HW220381  11.533  11.584   2.762 -0.4169  1.0649 -1.1108
69468SOL     OW20382   9.402   1.637   8.735 -0.1857  0.2459  0.1749
69468SOL    HW120383   9.322   1.655   8.686 -1.5535 -0.7715  1.9091
69468SOL    HW220384   9.461   1.596   8.671 -1.5577 -0.2030 -0.8448
69469SOL     OW20385   7.045   2.976   5.192  0.4999  0.3190  0.3929
69469SOL    HW120386   6.973   3.035   5.171  0.3432 -0.1117 -0.3221
69469SOL    HW220387   7.082   3.011   5.273 -0.0715  0.9455  0.3926
69470SOL     OW20388   4.335   9.719  10.680  0.1698 -0.2455 -0.0195
69470SOL    HW120389   4.255   9.766  10.659  0.0657 -0.3791  0.0748
69470SOL    HW220390   4.406   9.781  10.660  0.1341 -0.7510 -1.8634
69471SOL     OW20391  12.589   5.978   0.885 -0.3714 -0.1388 -0.1034
69471SOL    HW120392  12.539   6.039   0.938  0.9054 -0.4186  1.5345
69471SOL    HW220393  12.534   5.900   0.879 -0.2285 -0.4306  1.6276
69472SOL     OW20394  13.032   9.494   5.418 -0.3825 -0.4398  0.2245
69472SOL    HW120395  13.079   9.475   5.336 -0.8537 -0.7088  0.0142
69472SOL    HW220396  13.038   9.589   5.427 -0.1386 -0.4296 -0.0031
69473SOL     OW20397  11.346  12.385  13.747  0.2281  0.4219 -0.3263
69473SOL    HW120398  11.256  12.408  13.721 -1.0365 -2.1276  1.3187
69473SOL    HW220399  11.358  12.429  13.832  0.2821  0.2459 -0.2428
69474SOL     OW20400   5.888  12.559   7.634  0.3430 -0.2104  0.1685
69474SOL    HW120401   5.904  12.528   7.723  0.6769 -0.3213  0.0689
69474SOL    HW220402   5.795  12.581   7.633  0.2485 -0.5936  0.4250
69475SOL     OW20403   9.596   1.342   5.383  0.4256  0.4671  0.5453
69475SOL    HW120404   9.638   1.270   5.430  0.8657  0.2239 -0.1869
69475SOL    HW220405   9.645   1.348   5.301  1.5612  2.7443  1.2863
69476SOL     OW20406   8.907   4.132  10.350  0.2647 -0.1276  0.1796
69476SOL    HW120407   8.875   4.221  10.339  1.2155  0.3446  1.0124
69476SOL    HW220408   8.828   4.078  10.352 -0.5131  0.9763  2.0583
69477SOL     OW20409   1.116   3.841   9.622 -0.3397  0.3376 -0.2742
69477SOL    HW120410   1.124   3.786   9.545 -0.0685 -0.9673  0.6521
69477SOL    HW220411   1.201   3.883   9.632  1.1468 -2.8143  1.6925
69478SOL     OW20412  10.983   7.271   0.859 -0.0162 -0.1965 -0.1333
69478SOL    HW120413  10.892   7.263   0.832 -0.4337  1.9556  0.4286
69478SOL    HW220414  11.010   7.357   0.826  1.1880  0.0296  1.3311
69479SOL     OW20415   4.240   4.705   5.899  0.1175 -0.2198 -0.1185
69479SOL    HW120416   4.318   4.718   5.846  2.1854  1.9045  3.0514
69479SOL    HW220417   4.239   4.612   5.920  0.1007 -0.8005 -2.4356
69480SOL     OW20418   6.775   7.491  12.886  0.3531  0.1012 -0.0848
69480SOL    HW120419   6.768   7.445  12.802  2.7478 -0.9488  0.1927
69480SOL    HW220420   6.809   7.577  12.864 -0.0901  0.2301 -0.2717
69481SOL     OW20421   6.290   0.153   8.432 -0.1854 -0.1839 -0.1736
69481SOL    HW120422   6.209   0.130   8.387 -0.2265  1.0341 -0.7475
69481SOL    HW220423   6.287   0.101   8.512 -1.7322  0.1224  0.0114
69482SOL     OW20424   0.485   2.050   0.536  0.5221  0.4312 -0.2546
69482SOL    HW120425   0.430   2.088   0.468 -0.8520  0.3875  0.7787
69482SOL    HW220426   0.483   1.956   0.519  0.4536  0.4489 -0.3473
69483SOL     OW20427   3.693  13.762   8.787 -0.0738 -0.5254  0.1460
69483SOL    HW120428   3.682  13.844   8.739  3.7198 -0.8895 -1.7426
69483SOL    HW220429   3.608  13.718   8.778 -1.0846  1.5756 -2.0304
69484SOL     OW20430  13.058  12.507  10.330 -0.6749 -0.3678  0.5290
69484SOL    HW120431  13.021  12.588  10.368 -2.3657 -0.5674 -0.5856
69484SOL    HW220432  13.148  12.530  10.307 -1.0527  1.1460  0.4509
69485SOL     OW20433  11.182   4.971  12.829 -0.5720 -0.5395  0.2464
69485SOL    HW120434  11.162   5.048  12.776 -0.6389 -1.2765 -0.8115
69485SOL    HW220435  11.158   4.896  12.775 -0.1914 -1.3287  1.1249
69486SOL     OW20436   1.093   2.819  14.004 -0.1142  0.8165 -0.2411
69486SOL    HW120437   1.106   2.912  14.022  0.0534  0.7073  0.2416
69486SOL    HW220438   1.029   2.792  14.069 -1.4653  0.9609 -1.4714
69487SOL     OW20439   3.673  12.776   6.472  0.4707 -0.2075  0.2455
69487SOL    HW120440   3.650  12.752   6.561 -0.9649 -0.2341 -0.1046
69487SOL    HW220441   3.710  12.864   6.480 -0.2399  0.0506  0.8007
69488SOL     OW20442   6.179   1.640   1.785 -0.0243  0.0450  0.3562
69488SOL    HW120443   6.178   1.652   1.690 -0.6759 -2.4444 -0.0031
69488SOL    HW220444   6.172   1.546   1.798  2.5549  0.0773  2.8628
69489SOL     OW20445   8.312   9.145   7.322  0.6224  0.0408 -0.2532
69489SOL    HW120446   8.372   9.086   7.277  0.4853  0.1606 -0.6008
69489SOL    HW220447   8.367   9.198   7.380  0.5019 -1.9728  1.8163
69490SOL     OW20448  11.673   2.921   4.993  0.0956 -0.0924 -0.4215
69490SOL    HW120449  11.728   2.843   5.005 -1.1091 -0.9490 -0.2804
69490SOL    HW220450  11.727   2.994   5.024  0.4070 -1.1448  1.7028
69491SOL     OW20451   4.481  13.172  13.653  0.2656  0.2546  0.6384
69491SOL    HW120452   4.480  13.128  13.738  0.6080 -0.9457  0.0489
69491SOL    HW220453   4.561  13.224  13.654  0.4676 -0.0602  0.8998
69492SOL     OW20454  10.242  10.821  12.867  1.0295  0.0641  0.2260
69492SOL    HW120455  10.243  10.823  12.963 -0.1838  2.1549  0.2604
69492SOL    HW220456  10.243  10.913  12.842 -0.5309 -0.4023 -1.7308
69493SOL     OW20457   5.550   0.338   5.293  0.1621  0.6496  0.0016
69493SOL    HW120458   5.639   0.326   5.326 -0.7927 -0.3505  2.4979
69493SOL    HW220459   5.544   0.432   5.274  1.0605  1.2026  2.1374
69494SOL     OW20460  13.057   6.617   9.463  0.7554 -0.2003  0.2433
69494SOL    HW120461  12.972   6.641   9.427  0.3108 -0.1842  1.2944
69494SOL    HW220462  13.076   6.531   9.423  1.4397  0.9039 -1.9622
69495SOL     OW20463   5.386   6.694  11.299  0.5166 -0.2029  0.1004
69495SOL    HW120464   5.366   6.601  11.304  0.8511 -0.2713  0.2120
69495SOL    HW220465   5.318   6.731  11.242 -1.0396 -0.1002  1.9344
69496SOL     OW20466   5.630   2.575   1.548  0.0502  0.4767  0.1203
69496SOL    HW120467   5.536   2.581   1.567 -0.4321 -1.5076 -1.3397
69496SOL    HW220468   5.667   2.534   1.625 -0.4491  0.3244  0.2858
69497SOL     OW20469   2.677  11.194  11.276 -0.5153  0.2004  0.2352
69497SOL    HW120470   2.618  11.154  11.340 -1.3982  1.0010 -0.0486
69497SOL    HW220471   2.683  11.286  11.304  0.0620  0.2756 -0.1339
69498SOL     OW20472  12.074   0.271  12.816  0.1354 -0.2532 -0.4349
69498SOL    HW120473  12.163   0.237  12.823  0.0389 -0.4711 -0.2389
69498SOL    HW220474  12.019   0.194  12.802  0.1502  0.0334 -2.2917
69499SOL     OW20475   4.370  12.237   1.066  0.2980  0.5925 -0.1776
69499SOL    HW120476   4.445  12.289   1.039  0.5809 -0.3974 -1.3397
69499SOL    HW220477   4.298  12.300   1.070  0.4039  0.9603 -2.5363
69500SOL     OW20478   2.340  12.330   4.088  0.1017 -0.8438 -0.2378
69500SOL    HW120479   2.370  12.413   4.123  0.9634  0.0807 -2.8960
69500SOL    HW220480   2.246  12.328   4.106  0.2184  0.3158  0.5630
69501SOL     OW20481   6.516   8.292   7.063  0.1678 -0.1725 -0.1799
69501SOL    HW120482   6.435   8.341   7.075  0.5673  0.2314  0.9322
69501SOL    HW220483   6.504   8.246   6.980 -0.7404  0.7767 -0.5922
69502SOL     OW20484   8.881   1.762   5.992 -0.5689  0.0671 -0.5265
69502SOL    HW120485   8.901   1.717   6.074  1.3170  1.0107 -0.3946
69502SOL    HW220486   8.798   1.725   5.963  0.5278 -2.9745 -0.0957
69503SOL     OW20487   5.760  11.472   5.027 -0.0954 -0.3385  0.6880
69503SOL    HW120488   5.832  11.534   5.011  0.7950 -1.7061 -0.8239
69503SOL    HW220489   5.683  11.516   4.991  0.6158 -0.2784 -0.8382
69504SOL     OW20490  10.532   1.316   9.830 -0.3295 -0.4098  0.0178
69504SOL    HW120491  10.506   1.308   9.738 -2.7931  0.8419  0.5361
69504SOL    HW220492  10.581   1.399   9.833 -0.1739 -0.4929 -0.1525
69505SOL     OW20493   4.735  11.980  10.706 -0.4298 -0.2002 -0.6832
69505SOL    HW120494   4.657  12.017  10.747 -1.3818 -1.6222 -1.1653
69505SOL    HW220495   4.731  11.887  10.726  1.4387 -0.2230 -0.2794
69506SOL     OW20496   4.771   8.264   8.856  0.0855 -0.1908 -1.2746
69506SOL    HW120497   4.779   8.328   8.785  1.3727 -0.8320 -1.7328
69506SOL    HW220498   4.695   8.211   8.832  0.5808 -0.4853 -2.2741
69507SOL     OW20499   5.421  11.538  13.195  0.4019  0.2726  0.0947
69507SOL    HW120500   5.505  11.495  13.209  1.5726  2.9265  2.0668
69507SOL    HW220501   5.413  11.543  13.099  1.7429 -1.2974 -0.1531
69508SOL     OW20502   5.981   5.130  12.966  0.4272 -0.5716  0.2506
69508SOL    HW120503   6.041   5.071  12.921  2.2713  1.0892  0.3988
69508SOL    HW220504   5.914   5.150  12.901  1.0645 -1.0051 -0.5651
69509SOL     OW20505   8.657   1.560   2.673 -0.6867  0.5531  0.3753
69509SOL    HW120506   8.576   1.561   2.724 -1.8524  1.7417 -1.3756
69509SOL    HW220507   8.632   1.596   2.588  1.8558  1.6319 -0.0017
69510SOL     OW20508   9.124   0.454  13.635  0.5220 -0.5132 -0.2306
69510SOL    HW120509   9.138   0.375  13.687  0.6228 -0.7306 -0.5826
69510SOL    HW220510   9.211   0.495  13.631  0.6265 -0.7721 -0.6660
69511SOL     OW20511  13.949  12.342   0.389  0.1242  0.1530 -0.8339
69511SOL    HW120512  13.995  12.370   0.310  0.1849  0.6364 -0.6340
69511SOL    HW220513  13.930  12.249   0.375 -2.7901  0.9353 -2.8403
69512SOL     OW20514   0.249   2.476   3.177 -0.1501  0.0145  0.1504
69512SOL    HW120515   0.306   2.537   3.130 -1.8310 -0.1193 -2.3210
69512SOL    HW220516   0.243   2.511   3.266  3.2849  0.2798  0.3912
69513SOL     OW20517  13.820  13.162  10.301 -0.0032 -0.6506  0.5985
69513SOL    HW120518  13.839  13.237  10.358 -0.7559  1.4292 -1.7291
69513SOL    HW220519  13.746  13.119  10.343 -1.0226  1.2550  0.8538
69514SOL     OW20520   2.291   0.090   1.638 -0.6631  0.1875  0.2239
69514SOL    HW120521   2.273   0.010   1.589 -1.4675 -0.2961  1.2665
69514SOL    HW220522   2.249   0.159   1.587  0.0580 -0.0349 -0.6999
69515SOL     OW20523   1.788  13.261  10.739 -0.2733 -0.0894  0.0735
69515SOL    HW120524   1.872  13.214  10.742 -1.0694 -1.8445 -1.9650
69515SOL    HW220525   1.806  13.339  10.687  0.6152  0.9114  1.7947
69516SOL     OW20526   8.517   1.558  13.177  0.4330 -0.1470  0.2518
69516SOL    HW120527   8.429   1.530  13.203  0.1192 -0.0380 -0.6464
69516SOL    HW220528   8.571   1.541  13.254 -0.2274 -0.9014  0.5708
69517SOL     OW20529   5.480   5.428   5.408 -0.0608 -0.5442 -0.3488
69517SOL    HW120530   5.502   5.459   5.320  0.3114  1.4981  0.3949
69517SOL    HW220531   5.526   5.488   5.467 -0.9304 -1.3652  1.2479
69518SOL     OW20532  11.165   4.268   3.244  0.0771  0.4597  0.2772
69518SOL    HW120533  11.080   4.234   3.270 -0.0814  1.1730  0.7273
69518SOL    HW220534  11.145   4.344   3.189  0.4009 -1.1311 -2.2043
69519SOL     OW20535  12.905   2.180   0.483 -0.0255 -0.9258 -0.8569
69519SOL    HW120536  12.908   2.187   0.579  0.3589 -0.6425 -0.8858
69519SOL    HW220537  12.886   2.088   0.466  2.3121 -1.5522 -0.5149
69520SOL     OW20538   5.938   1.930   7.786  0.1050  0.1358  0.0366
69520SOL    HW120539   5.852   1.972   7.784  0.4698  0.8749 -0.7987
69520SOL    HW220540   5.997   1.995   7.749  1.2665  0.1125  1.7679
69521SOL     OW20541   5.463  10.883   0.930  0.4542 -0.7796  0.7636
69521SOL    HW120542   5.411  10.803   0.922  0.3083 -0.5619 -0.6977
69521SOL    HW220543   5.447  10.931   0.849 -0.1813  1.1917  1.9750
69522SOL     OW20544  10.191   0.236   6.064 -0.5010  0.0644  0.0760
69522SOL    HW120545  10.256   0.215   6.131 -0.1219  3.0086  0.8095
69522SOL    HW220546  10.108   0.235   6.110 -0.5143 -0.1199  0.0464
69523SOL     OW20547   0.562   1.879   4.197  0.6110  0.4232 -0.0970
69523SOL    HW120548   0.633   1.915   4.249  0.8170  2.5440 -1.6759
69523SOL    HW220549   0.486   1.880   4.255  1.5356 -0.5679  1.1797
69524SOL     OW20550  12.530  10.199  13.947 -0.2222  0.1429  0.0667
69524SOL    HW120551  12.495  10.253  14.017 -3.3991 -2.3448  0.6385
69524SOL    HW220552  12.608  10.159  13.984 -0.4830  0.7225  1.2882
69525SOL     OW20553   8.234  11.524   4.021  0.8131 -0.0365 -0.1020
69525SOL    HW120554   8.204  11.487   3.938  1.0594 -0.5479  0.0284
69525SOL    HW220555   8.155  11.540   4.071  0.7173 -0.8374  0.0192
69526SOL     OW20556   9.726  11.310   4.848  0.3277 -0.8431  0.2057
69526SOL    HW120557   9.632  11.292   4.845  0.3962 -1.3725  1.0072
69526SOL    HW220558   9.751  11.294   4.939  0.9714  0.4746  0.2838
69527SOL     OW20559   3.474   8.351  11.880  0.2940 -0.1055  0.0288
69527SOL    HW120560   3.478   8.356  11.975  0.7569  1.0931 -0.0371
69527SOL    HW220561   3.396   8.402  11.857  1.0471  0.8976 -0.3164
69528SOL     OW20562   0.592   3.560   8.906 -0.1614 -0.1871  0.1081
69528SOL    HW120563   0.656   3.524   8.846  0.5172 -0.2372  0.8392
69528SOL    HW220564   0.547   3.629   8.856  0.7879  0.1643 -0.2723
69529SOL     OW20565   1.587  10.385   0.488 -0.0927 -0.0345 -0.0771
69529SOL    HW120566   1.617  10.475   0.495 -0.6840  0.2311 -0.7366
69529SOL    HW220567   1.500  10.385   0.528 -0.2384 -0.2243 -0.3827
69530SOL     OW20568   1.170  10.185  12.040  0.3707 -0.5846  0.0035
69530SOL    HW120569   1.225  10.196  11.963 -0.2154 -0.0151 -0.3447
69530SOL    HW220570   1.199  10.102  12.078  1.4597 -0.3040 -0.1661
69531SOL     OW20571  11.153   5.385   6.516 -0.2285  0.2339  0.4109
69531SOL    HW120572  11.178   5.315   6.455 -2.9896 -0.3849 -0.1437
69531SOL    HW220573  11.178   5.465   6.471  0.4911 -0.3177 -0.2045
69532SOL     OW20574  13.732   0.065  10.972  0.0912  0.0910  0.6306
69532SOL    HW120575  13.774  -0.003  11.025  0.3411 -0.9411 -0.8385
69532SOL    HW220576  13.752   0.041  10.882  0.2898  2.2036  0.0528
69533SOL     OW20577   3.680  11.411  13.125  0.5041  0.7888  0.5911
69533SOL    HW120578   3.699  11.320  13.150 -0.0068 -0.0619 -1.8879
69533SOL    HW220579   3.585  11.418  13.136  0.6248  1.2811  1.4366
69534SOL     OW20580  11.968   2.098   6.709 -0.6050  0.4860  0.0394
69534SOL    HW120581  11.891   2.061   6.752 -0.2908  0.6182  0.7302
69534SOL    HW220582  12.039   2.085   6.771  0.0013  0.1067 -0.7077
69535SOL     OW20583   2.225   9.961  11.924  0.1104  0.1876  0.0816
69535SOL    HW120584   2.173   9.952  11.844 -1.2836 -0.4407  1.0089
69535SOL    HW220585   2.181  10.030  11.973 -0.2345 -0.7511  1.1399
69536SOL     OW20586  13.116   2.170   8.293 -0.8989  0.1498 -0.4626
69536SOL    HW120587  13.062   2.249   8.296  0.0809  0.8253  0.1674
69536SOL    HW220588  13.147   2.166   8.202  0.8932  1.8295  0.0058
69537SOL     OW20589  11.278   7.229   9.933  0.0565  0.3445  0.0529
69537SOL    HW120590  11.249   7.315   9.964  1.0783  1.3207 -1.5226
69537SOL    HW220591  11.197   7.185   9.908 -0.6106  0.2319  2.2592
69538SOL     OW20592   0.060   8.291   3.584  0.1176 -0.1864  0.1615
69538SOL    HW120593   0.009   8.268   3.662  2.0182 -2.1980  0.9323
69538SOL    HW220594   0.079   8.384   3.594 -1.5128  0.0979  0.9377
69539SOL     OW20595   5.661   0.174  13.219  0.1132  0.3916  0.6457
69539SOL    HW120596   5.706   0.153  13.301  0.7469 -0.5586  0.0793
69539SOL    HW220597   5.732   0.197  13.158 -0.2084 -0.3865 -0.0441
69540SOL     OW20598   0.156  12.529   2.728 -0.0675  0.2650  0.2549
69540SOL    HW120599   0.083  12.470   2.711 -0.4539  0.6824  0.4409
69540SOL    HW220600   0.173  12.573   2.645 -0.9565  1.1939  0.5447
69541SOL     OW20601   8.070   1.288  10.490 -0.0775  0.4303 -0.4508
69541SOL    HW120602   8.032   1.363  10.536  2.1536  0.5487  1.3744
69541SOL    HW220603   8.127   1.326  10.423 -0.6000  0.3015 -0.9795
69542SOL     OW20604   8.466   2.709   6.525 -0.1369  0.2083 -0.5748
69542SOL    HW120605   8.395   2.679   6.468 -1.6993 -0.0777  1.3954
69542SOL    HW220606   8.422   2.733   6.607  1.7681  2.4146 -0.1045
69543SOL     OW20607   6.371   9.364  11.842 -0.6739  0.1030  0.1186
69543SOL    HW120608   6.307   9.408  11.899 -1.7697  1.2847 -1.8716
69543SOL    HW220609   6.321   9.344  11.762  0.9653 -0.7612 -0.7300
69544SOL     OW20610   0.734   6.682   9.352 -0.4184 -0.6294 -0.4652
69544SOL    HW120611   0.670   6.740   9.393 -0.3556 -0.6631 -0.3204
69544SOL    HW220612   0.758   6.620   9.421 -0.9260 -1.1924 -0.7896
69545SOL     OW20613   2.832   3.804  10.690  0.1253  0.2780  0.0112
69545SOL    HW120614   2.831   3.899  10.696  2.1974  0.3859 -0.3691
69545SOL    HW220615   2.823   3.785  10.597 -1.5195  0.0145  0.1990
69546SOL     OW20616   6.626   6.064   8.869 -0.5723 -0.3773  0.0547
69546SOL    HW120617   6.558   6.053   8.936  0.2858  0.6886  1.1453
69546SOL    HW220618   6.698   6.008   8.899  0.0095  0.4878  0.3263
69547SOL     OW20619   6.637   8.391   6.703  0.1964  0.0018  0.0185
69547SOL    HW120620   6.590   8.308   6.714 -0.4323 -0.4049 -4.1494
69547SOL    HW220621   6.721   8.376   6.747 -0.7794 -1.9689  1.3626
69548SOL     OW20622   3.963   9.955  11.703 -0.1085 -0.3279  0.4511
69548SOL    HW120623   3.965   9.893  11.777 -2.2285  0.0921  0.9466
69548SOL    HW220624   3.919  10.032  11.738 -1.7159 -0.3299 -1.3691
69549SOL     OW20625   5.737   1.457   9.834 -0.3771 -0.2828  0.0790
69549SOL    HW120626   5.731   1.363   9.817 -1.1381 -0.3361  0.5904
69549SOL    HW220627   5.810   1.466   9.895  0.2110 -0.4502 -0.5969
69550SOL     OW20628   2.011  12.788   8.809 -0.4644  0.4600  1.0453
69550SOL    HW120629   2.039  12.860   8.752 -0.6000  0.5239  1.0600
69550SOL    HW220630   2.075  12.788   8.880  0.0004  0.0595  0.6371
69551SOL     OW20631  11.802   5.336  12.960  0.4199  0.3827 -0.9120
69551SOL    HW120632  11.765   5.318  13.047  1.7117  1.5598 -0.0758
69551SOL    HW220633  11.896   5.322  12.970  0.8783  2.6165 -1.4956
69552SOL     OW20634   3.151   2.983   0.972  0.0024  0.6414 -0.4195
69552SOL    HW120635   3.102   2.937   0.904  0.7108  0.2979 -0.7074
69552SOL    HW220636   3.185   3.061   0.928 -0.2902  0.8884 -0.2150
69553SOL     OW20637   3.403  13.737   2.124 -0.4569 -0.0559 -0.2265
69553SOL    HW120638   3.456  13.699   2.054  0.4474 -0.7580  0.7942
69553SOL    HW220639   3.313  13.728   2.094 -0.1345 -1.1210 -0.9409
69554SOL     OW20640  13.332   5.609  11.296  0.8612 -0.3119  0.1396
69554SOL    HW120641  13.313   5.551  11.222  0.4033 -0.1405  0.1217
69554SOL    HW220642  13.406   5.662  11.266  0.3762  0.0871 -0.3838
69555SOL     OW20643   9.805   8.504   2.757  0.0187  0.3132  0.2897
69555SOL    HW120644   9.766   8.565   2.694  1.4922  0.7590 -0.2355
69555SOL    HW220645   9.734   8.444   2.780 -0.6806  0.4418 -1.4152
69556SOL     OW20646   2.227  10.511   9.460  0.3600 -0.2849  0.4671
69556SOL    HW120647   2.317  10.505   9.491  0.1459 -2.3156  0.8151
69556SOL    HW220648   2.182  10.560   9.528  1.6281  3.0608 -0.8825
69557SOL     OW20649   3.608   7.462  11.892  0.0859 -0.5612  0.5427
69557SOL    HW120650   3.644   7.530  11.835 -3.3470  1.0376  0.0188
69557SOL    HW220651   3.652   7.475  11.976  1.1177  0.8320 -0.1742
69558SOL     OW20652   4.754  10.141   4.630 -0.5295  0.2662  0.0153
69558SOL    HW120653   4.795  10.058   4.656 -0.2807  0.3333 -0.1594
69558SOL    HW220654   4.783  10.154   4.539 -1.7103 -0.1822 -0.4556
69559SOL     OW20655  13.388  11.682   3.942 -0.3084  0.3692 -0.2417
69559SOL    HW120656  13.303  11.724   3.926 -0.4197  0.6282  0.9835
69559SOL    HW220657  13.367  11.590   3.955 -0.2354  0.1835 -1.3469
69560SOL     OW20658   4.739  11.835   4.517  0.4749  0.1314 -0.0445
69560SOL    HW120659   4.772  11.748   4.540 -2.0145 -0.9826 -0.2688
69560SOL    HW220660   4.650  11.836   4.553 -0.5500  1.5180 -2.3817
69561SOL     OW20661  13.862   7.864   5.229  0.0345  0.0907 -0.0698
69561SOL    HW120662  13.953   7.850   5.256  0.9179  2.8166 -1.3112
69561SOL    HW220663  13.820   7.900   5.307  0.1170 -0.6459  0.3336
69562SOL     OW20664   8.003   2.968   7.260  0.1991  0.0819 -0.5626
69562SOL    HW120665   8.088   2.958   7.216  0.2582 -1.0436 -0.2366
69562SOL    HW220666   7.968   2.879   7.264  0.8641 -0.1736  2.9318
69563SOL     OW20667   7.904   3.914   3.129  0.5582  0.3050 -0.0469
69563SOL    HW120668   7.895   3.900   3.223  3.5490 -0.3006  0.2446
69563SOL    HW220669   7.916   4.008   3.119 -0.1885  0.4214  0.1103
69564SOL     OW20670   7.461   5.221   0.071 -0.0684  0.0139 -0.0686
69564SOL    HW120671   7.544   5.264   0.053 -0.1788  0.4202  0.3883
69564SOL    HW220672   7.413   5.282   0.126 -0.1768 -0.7433  0.6959
69565SOL     OW20673   3.720   6.181   0.312 -0.1465 -0.2174 -0.4761
69565SOL    HW120674   3.722   6.236   0.234  0.1818 -0.9617 -0.9974
69565SOL    HW220675   3.801   6.131   0.309 -1.1804 -1.9703 -0.9245
69566SOL     OW20676   8.133   3.096   3.723  0.0941 -0.4187  0.4851
69566SOL    HW120677   8.172   3.161   3.665 -2.0219  0.8982  0.4402
69566SOL    HW220678   8.192   3.093   3.798  0.0445  1.9568  0.7048
69567SOL     OW20679   1.131   0.517  13.297 -0.2547 -0.0280 -0.1740
69567SOL    HW120680   1.140   0.450  13.364 -2.1154  0.1276  0.2780
69567SOL    HW220681   1.070   0.580  13.334  0.3801  1.2172 -1.1487
69568SOL     OW20682   9.902   1.826   2.428  0.0335  0.2962  0.3053
69568SOL    HW120683   9.986   1.840   2.472  0.8735  0.2728 -1.2440
69568SOL    HW220684   9.884   1.908   2.384 -0.3627  0.0383 -0.0156
69569SOL     OW20685   6.816   2.866   2.710  0.3285 -0.0369  0.5139
69569SOL    HW120686   6.815   2.812   2.789  1.0754 -1.6723 -0.5395
69569SOL    HW220687   6.762   2.818   2.648  2.1692 -0.3522 -0.9135
69570SOL     OW20688  11.519  11.024   9.093 -0.0006 -0.0338 -0.0095
69570SOL    HW120689  11.533  10.932   9.070 -1.9525 -0.8113  1.5772
69570SOL    HW220690  11.424  11.031   9.102 -0.2233  2.8761 -2.8160
69571SOL     OW20691   1.828   0.724   2.100  0.5290 -0.5369  0.7260
69571SOL    HW120692   1.896   0.671   2.140 -0.0695  0.1297  2.7476
69571SOL    HW220693   1.870   0.810   2.087  0.0374 -0.0451  2.2279
69572SOL     OW20694  10.178  10.950   0.552  0.1115  0.2519  0.3447
69572SOL    HW120695  10.232  11.016   0.508 -0.6362  1.4956  1.2364
69572SOL    HW220696  10.229  10.927   0.630  0.0523  0.2773  0.3903
69573SOL     OW20697   4.271  12.606   1.199  0.1152 -0.4929  0.0220
69573SOL    HW120698   4.272  12.527   1.145 -1.5071  1.2318 -2.7946
69573SOL    HW220699   4.356  12.647   1.183  0.0667 -0.5402 -0.3623
69574SOL     OW20700   9.870   6.829   7.994  0.2656 -0.0921 -0.4003
69574SOL    HW120701   9.876   6.745   7.949 -0.2477  0.4366 -1.5024
69574SOL    HW220702   9.956   6.869   7.983  0.0977  0.0942 -1.0431
69575SOL     OW20703   2.730   3.910   9.606  0.4957  0.4661 -0.3715
69575SOL    HW120704   2.695   3.998   9.594  0.6952  0.8366  1.4295
69575SOL    HW220705   2.825   3.922   9.610  0.5793  0.0460 -0.9257
69576SOL     OW20706   7.359   6.504   5.901 -0.0466  0.9407 -0.4558
69576SOL    HW120707   7.340   6.535   5.989 -1.5133  0.4203 -0.5601
69576SOL    HW220708   7.298   6.551   5.845 -1.3874 -1.0136 -0.7734
69577SOL     OW20709   3.216   3.319   7.504  0.8762  0.0824  0.3522
69577SOL    HW120710   3.256   3.260   7.440  2.0145 -0.1794  1.2705
69577SOL    HW220711   3.152   3.265   7.550  0.3530  0.1610 -0.2693
69578SOL     OW20712  13.443   9.404   6.221  0.1402 -0.1702 -0.6878
69578SOL    HW120713  13.396   9.357   6.289  1.2837 -0.2600  0.0627
69578SOL    HW220714  13.529   9.363   6.218  0.3046  0.2047 -1.8064
69579SOL     OW20715  12.497  12.117  10.189  0.0402 -0.0764 -0.1778
69579SOL    HW120716  12.573  12.106  10.132  0.0518 -0.5608 -0.0685
69579SOL    HW220717  12.506  12.049  10.255  0.3816  0.8807  0.8082
69580SOL     OW20718  11.151  12.705   4.394 -0.7410  0.4860  0.5645
69580SOL    HW120719  11.100  12.643   4.445 -0.6350  0.0170  0.1099
69580SOL    HW220720  11.184  12.654   4.320 -0.4678  1.0295  0.3042
69581SOL     OW20721   1.076   7.366   1.566  0.2047  0.1673 -0.6229
69581SOL    HW120722   1.081   7.456   1.533 -0.7682  0.4827  0.0309
69581SOL    HW220723   1.163   7.330   1.550  0.2475  0.8203 -2.0295
69582SOL     OW20724  10.362   5.332   8.320 -0.2039 -0.0946 -0.7183
69582SOL    HW120725  10.354   5.400   8.253 -1.3983 -1.3244 -1.8841
69582SOL    HW220726  10.392   5.255   8.272  0.7038 -0.5411  0.5091
69583SOL     OW20727   5.609   4.560   6.349 -0.2706 -0.2906 -0.0914
69583SOL    HW120728   5.518   4.570   6.322 -0.5145  0.2365  0.9064
69583SOL    HW220729   5.659   4.574   6.268 -0.9292  2.3232 -0.1335
69584SOL     OW20730   1.732   8.572   1.878 -1.0586 -0.7515  0.2309
69584SOL    HW120731   1.729   8.533   1.791 -0.5794 -1.3632  0.4797
69584SOL    HW220732   1.816   8.617   1.881 -1.6608  0.4448 -0.1004
69585SOL     OW20733   0.897   4.933  13.775 -0.1653 -0.5846 -0.1375
69585SOL    HW120734   0.921   4.988  13.849  1.6053 -1.6953  0.1754
69585SOL    HW220735   0.941   4.973  13.700 -1.7372  0.3854 -0.5858
69586SOL     OW20736   1.797  12.194   1.933 -0.3440 -0.1609  0.5045
69586SOL    HW120737   1.774  12.130   1.866 -2.6233 -1.0584  2.0485
69586SOL    HW220738   1.876  12.237   1.899  0.6920 -3.0566 -1.0540
69587SOL     OW20739   6.803  10.910   7.161  0.5158  0.0999  0.6729
69587SOL    HW120740   6.716  10.903   7.121  0.7008 -0.5933  0.3793
69587SOL    HW220741   6.855  10.842   7.118  0.9541 -0.0938  1.4856
69588SOL     OW20742   9.807   4.248  11.393 -0.2213  0.1528 -0.2518
69588SOL    HW120743   9.771   4.208  11.314  4.5414  0.5440 -2.9766
69588SOL    HW220744   9.829   4.337  11.368  0.7155  0.5725  1.8013
69589SOL     OW20745   8.302  12.136  10.622 -0.5875  0.0007 -0.4138
69589SOL    HW120746   8.352  12.207  10.581 -0.9936  1.4943  1.5144
69589SOL    HW220747   8.226  12.124  10.567  0.0160  0.3233 -1.3323
69590SOL     OW20748  12.773  11.777  12.534 -0.0041  0.1043  0.3045
69590SOL    HW120749  12.711  11.848  12.516  1.2699  1.1542 -0.1322
69590SOL    HW220750  12.858  11.821  12.541  0.7485 -1.3326  0.5572
69591SOL     OW20751  10.713   0.015   8.814  0.2899 -0.5365  0.1279
69591SOL    HW120752  10.792  -0.039   8.816  0.0330 -0.9668 -0.8965
69591SOL    HW220753  10.725   0.073   8.738  0.4990  0.7726  1.1107
69592SOL     OW20754   3.231   3.652   2.753  0.2485  0.2701  0.4240
69592SOL    HW120755   3.136   3.665   2.756  0.4978  2.3657  2.8863
69592SOL    HW220756   3.267   3.741   2.757  2.2908 -0.5517  2.2006
69593SOL     OW20757   9.888   7.323   6.519 -0.7516 -0.5828 -0.2289
69593SOL    HW120758   9.947   7.297   6.590 -1.6947 -0.7334  0.5260
69593SOL    HW220759   9.938   7.308   6.439  0.6171  0.2962  0.4201
69594SOL     OW20760  14.020   0.841   5.736 -0.2516 -0.0253  0.6208
69594SOL    HW120761  13.944   0.826   5.680 -1.4084 -1.8565  2.5234
69594SOL    HW220762  14.028   0.761   5.788  1.7833  0.9091  1.8745
69595SOL     OW20763   6.459   3.270   3.058 -0.6862  0.0929  0.4260
69595SOL    HW120764   6.520   3.335   3.024 -1.1786  1.6149  2.2284
69595SOL    HW220765   6.508   3.224   3.126 -0.5248 -1.0371 -0.4412
69596SOL     OW20766  14.024  10.305   3.384  0.1856 -0.3342  0.0842
69596SOL    HW120767  14.090  10.346   3.439  0.4136  0.5554 -0.8292
69596SOL    HW220768  13.959  10.271   3.445 -0.7462  2.6064  0.8575
69597SOL     OW20769   7.651   6.292   4.031 -0.3291 -0.2299 -0.0066
69597SOL    HW120770   7.719   6.229   4.005 -0.5599 -1.4757  2.1421
69597SOL    HW220771   7.676   6.318   4.120 -0.8598  1.9241 -0.4390
69598SOL     OW20772  13.163  10.617   4.613 -0.4613  0.3902  0.3897
69598SOL    HW120773  13.235  10.587   4.668  1.3328  2.0252 -0.8852
69598SOL    HW220774  13.205  10.641   4.530 -2.4756  1.4268 -0.4101
69599SOL     OW20775  13.102  13.770   7.729 -0.3286  0.3672 -0.0998
69599SOL    HW120776  13.125  13.712   7.656 -2.1685 -0.7062  0.0959
69599SOL    HW220777  13.021  13.812   7.701  1.1819  3.3052 -0.4234
69600SOL     OW20778  12.502   4.856   3.447 -0.3207  0.0591  0.0293
69600SOL    HW120779  12.448   4.872   3.370 -0.3574 -1.2505 -0.2384
69600SOL    HW220780  12.489   4.763   3.466  2.7417 -0.6306 -0.7652
69601SOL     OW20781   2.366   6.805  12.570 -0.2081  0.2977  0.6359
69601SOL    HW120782   2.375   6.797  12.475 -1.1210  1.1335  0.4676
69601SOL    HW220783   2.292   6.864  12.582 -2.8162 -2.8817  1.8504
69602SOL     OW20784   4.542   4.220  10.492  0.2281 -0.1749 -0.5841
69602SOL    HW120785   4.544   4.135  10.448  0.3047  0.0373 -0.9933
69602SOL    HW220786   4.582   4.204  10.577  1.0107 -0.3685 -0.9812
69603SOL     OW20787   9.481   2.287  13.766 -0.6755  0.2366  0.0257
69603SOL    HW120788   9.433   2.324  13.840 -0.1079  0.7920  0.1222
69603SOL    HW220789   9.429   2.310  13.689 -0.6587  0.6824  0.1465
69604SOL     OW20790   0.323   6.245   6.995  0.0844 -0.2020 -0.0629
69604SOL    HW120791   0.251   6.238   6.932  0.3416  1.7975 -0.6574
69604SOL    HW220792   0.290   6.306   7.062  0.4451 -0.9726  0.8229
69605SOL     OW20793   7.599   1.280  12.803  0.2007 -0.4147 -0.4041
69605SOL    HW120794   7.665   1.222  12.766  0.3403 -0.7124  0.2988
69605SOL    HW220795   7.638   1.367  12.798  0.4450 -0.5263 -0.4418
69606SOL     OW20796  12.650   3.042   1.875  0.1671 -0.2525 -0.6840
69606SOL    HW120797  12.672   3.030   1.783  0.8753  1.4023 -0.7552
69606SOL    HW220798  12.559   3.073   1.874 -0.1555 -1.1449 -0.7352
69607SOL     OW20799  10.307   1.052  13.615 -0.5107 -0.8906  0.0317
69607SOL    HW120800  10.399   1.071  13.594 -0.4576 -0.1099  0.9232
69607SOL    HW220801  10.298   1.075  13.707 -2.0095  0.6572 -0.4361
69608SOL     OW20802   4.704   0.754  12.764  0.2817 -0.0538  0.3205
69608SOL    HW120803   4.648   0.824  12.730  0.1633  0.8974  2.3568
69608SOL    HW220804   4.762   0.732  12.691 -0.5124  1.2864 -0.7512
69609SOL     OW20805  12.725   3.783   7.024 -0.5647  0.3301 -0.3403
69609SOL    HW120806  12.677   3.710   6.986 -0.5648  0.6347 -0.9268
69609SOL    HW220807  12.777   3.819   6.952 -1.4665  1.6472 -0.3632
69610SOL     OW20808   1.546   9.552   7.136 -0.1484  0.4879 -0.1330
69610SOL    HW120809   1.544   9.597   7.052  1.2407  0.7267 -0.0602
69610SOL    HW220810   1.561   9.621   7.201  1.0231  0.0515  0.0748
69611SOL     OW20811   6.460   0.921   1.443  0.2335  0.0144 -0.0874
69611SOL    HW120812   6.470   0.973   1.522 -2.0732 -1.0797  1.0187
69611SOL    HW220813   6.542   0.933   1.395  1.8439  0.4487  2.6048
69612SOL     OW20814   4.486   3.646   7.491 -0.5971  0.0690 -0.0826
69612SOL    HW120815   4.414   3.594   7.456  0.3914 -1.7457  0.4583
69612SOL    HW220816   4.488   3.626   7.584  0.4436  0.2909 -0.0441
69613SOL     OW20817   9.392   7.710   7.750  0.0508  0.2473  0.6394
69613SOL    HW120818   9.475   7.666   7.768  0.4156  1.3687  1.8703
69613SOL    HW220819   9.326   7.646   7.774  0.5131 -0.9935 -1.2028
69614SOL     OW20820   3.197  11.117   5.894  0.3432 -0.1425 -0.0700
69614SOL    HW120821   3.266  11.183   5.909  0.2837  0.3041 -1.5728
69614SOL    HW220822   3.193  11.108   5.799  0.2591 -2.2576  0.0820
69615SOL     OW20823  11.660  13.807   0.465 -0.4182  0.5371  0.7044
69615SOL    HW120824  11.678  13.729   0.519 -0.4699  1.6683  2.4594
69615SOL    HW220825  11.565  13.819   0.472 -0.3333  1.0906  0.9492
69616SOL     OW20826  10.504   8.578  13.371  0.0246 -0.0539  0.1668
69616SOL    HW120827  10.596   8.556  13.355  0.0978 -0.2370  0.8100
69616SOL    HW220828  10.506   8.642  13.442 -0.3246  0.2702 -0.1101
69617SOL     OW20829   4.424   3.405   9.221 -0.3494 -0.9668  0.0435
69617SOL    HW120830   4.447   3.361   9.302  1.0448 -0.7988 -0.2442
69617SOL    HW220831   4.329   3.417   9.227 -0.1355  0.3300  2.3078
69618SOL     OW20832   8.622   8.183  10.470  0.1468 -0.4955  0.3220
69618SOL    HW120833   8.651   8.192  10.561  0.9358 -0.0996  0.0369
69618SOL    HW220834   8.553   8.248  10.460  0.4257 -0.1670  0.4948
69619SOL     OW20835   8.876  11.818  13.561 -0.1633 -0.4065  0.7049
69619SOL    HW120836   8.947  11.759  13.584 -0.7980 -1.3906  0.2095
69619SOL    HW220837   8.824  11.824  13.641  1.2175  1.4644  1.5270
69620SOL     OW20838   2.880  13.553   5.743 -0.1345 -0.2218 -0.4515
69620SOL    HW120839   2.924  13.572   5.660 -0.4738 -2.2606 -1.1632
69620SOL    HW220840   2.820  13.626   5.755  0.5358  0.5542 -1.5493
69621SOL     OW20841   6.897  11.744   8.671  0.1511 -0.0067  0.1641
69621SOL    HW120842   6.910  11.680   8.741 -0.1790  0.5791  0.7762
69621SOL    HW220843   6.820  11.795   8.700  0.1898  0.4278 -0.4826
69622SOL     OW20844  13.814   4.505   6.168 -0.4733  0.6472  0.0267
69622SOL    HW120845  13.901   4.468   6.153 -0.2134 -0.0922  2.7304
69622SOL    HW220846  13.754   4.445   6.126  0.2768  1.7808 -2.9101
69623SOL     OW20847   9.686   0.703   8.695  0.4644 -0.3483 -0.5329
69623SOL    HW120848   9.760   0.762   8.697 -0.0399  0.2846 -0.1890
69623SOL    HW220849   9.630   0.731   8.768  0.7583 -1.9743  0.3583
69624SOL     OW20850   3.160   0.437   9.708  0.6297  0.2568 -0.0899
69624SOL    HW120851   3.146   0.343   9.702  0.4187  0.2735  0.0880
69624SOL    HW220852   3.089   0.475   9.656  0.6106  0.3219 -0.0163
69625SOL     OW20853  13.780   2.591   9.523 -0.2440  0.0789  0.2878
69625SOL    HW120854  13.777   2.514   9.466  1.6810 -0.3934  0.7549
69625SOL    HW220855  13.717   2.652   9.485 -1.5613 -1.5723 -0.3097
69626SOL     OW20856  11.871  14.015   4.616  0.0599 -0.1530  0.2513
69626SOL    HW120857  11.915  13.936   4.585 -2.7135 -1.6119 -0.3473
69626SOL    HW220858  11.855  14.066   4.537 -0.6991 -0.4264  0.2183
69627SOL     OW20859   6.188   1.007  12.395 -0.0981  0.0780  0.1928
69627SOL    HW120860   6.148   0.986  12.480 -0.6885 -2.5908 -0.6376
69627SOL    HW220861   6.160   1.097  12.377 -1.9803 -0.1356  1.7269
69628SOL     OW20862  11.023   8.587   3.527 -0.4658  0.2921  0.3282
69628SOL    HW120863  10.975   8.670   3.518 -0.8617 -0.1531 -2.3966
69628SOL    HW220864  11.041   8.560   3.438  0.1139 -2.3376  1.1650
69629SOL     OW20865  10.275   8.277  10.444  0.1798  0.3987  0.0563
69629SOL    HW120866  10.311   8.230  10.369 -0.5924  0.1435 -0.1679
69629SOL    HW220867  10.233   8.355  10.407  0.4092  0.6365  0.2949
69630SOL     OW20868   9.256  10.859   3.867 -0.1136 -0.2772 -0.0506
69630SOL    HW120869   9.347  10.888   3.860 -0.8473  2.3988  0.0977
69630SOL    HW220870   9.250  10.819   3.954  0.9553 -0.7295 -0.1725
69631SOL     OW20871  10.205   4.902   4.293  0.0733 -0.4925  0.3025
69631SOL    HW120872  10.167   4.963   4.357 -1.0695 -1.5903  0.7010
69631SOL    HW220873  10.250   4.836   4.345 -0.4290 -1.1114 -0.0349
69632SOL     OW20874  10.886   8.003   1.421  0.4140  0.3636 -0.3816
69632SOL    HW120875  10.840   8.020   1.503 -0.2856  1.3195 -0.9525
69632SOL    HW220876  10.823   7.956   1.366  1.2647 -1.3334  0.0109
69633SOL     OW20877  10.824  12.688  13.762 -0.3206  0.2243  0.2915
69633SOL    HW120878  10.805  12.649  13.676 -1.2079  0.0097  0.5760
69633SOL    HW220879  10.773  12.769  13.763  1.1367  1.1804 -0.1024
69634SOL     OW20880  11.967   3.569  13.926  0.0311  0.2098 -0.5285
69634SOL    HW120881  12.043   3.555  13.869 -0.4041 -0.4497 -0.9716
69634SOL    HW220882  11.892   3.540  13.873 -0.3121 -1.1768  0.6464
69635SOL     OW20883  12.394   9.924   4.524  0.2434  0.4529 -0.2080
69635SOL    HW120884  12.395   9.846   4.469 -0.8913  1.5994 -1.9507
69635SOL    HW220885  12.405   9.997   4.463 -1.1331  1.7912  1.0512
69636SOL     OW20886   4.727   8.643   1.569  0.0573 -0.0168 -0.2989
69636SOL    HW120887   4.795   8.644   1.637 -0.8304  0.3994  0.5998
69636SOL    HW220888   4.725   8.732   1.536 -0.8736  0.2787  0.5249
69637SOL     OW20889  11.356  12.739   0.855  0.0996 -0.4998 -0.4299
69637SOL    HW120890  11.339  12.817   0.803  1.6092 -0.4609 -0.9232
69637SOL    HW220891  11.331  12.763   0.944 -0.1957  0.2785 -0.7174
69638SOL     OW20892   0.145  10.503   4.047  0.7546 -0.3003 -0.0902
69638SOL    HW120893   0.152  10.510   3.952 -2.2594  0.3815 -0.3571
69638SOL    HW220894   0.068  10.555   4.070 -0.8682 -3.3626  2.2632
69639SOL     OW20895   3.004   6.041   6.632  0.5147 -0.0510  0.3733
69639SOL    HW120896   3.075   6.073   6.689  0.9768 -0.6638  0.1546
69639SOL    HW220897   2.930   6.029   6.692  1.1472 -1.1966  0.9648
69640SOL     OW20898   5.013   5.021  13.789  0.1406  0.1173 -0.0428
69640SOL    HW120899   4.990   4.935  13.753 -0.7494 -0.5498  1.9547
69640SOL    HW220900   5.067   5.001  13.865 -0.1190  1.3314  0.4765
69641SOL     OW20901   1.841  13.983   4.941  0.1988 -0.0096 -0.2187
69641SOL    HW120902   1.848  13.888   4.948  0.3838  0.0949  1.2579
69641SOL    HW220903   1.768  13.997   4.881  1.0993 -1.0621 -1.6246
69642SOL     OW20904   5.217  13.475   0.564  0.3833  0.1287 -0.2297
69642SOL    HW120905   5.138  13.526   0.545  0.6077  0.3731 -0.5076
69642SOL    HW220906   5.261  13.522   0.634  0.5300  0.2498 -0.4046
69643SOL     OW20907  14.018   9.051   9.970  0.9967  0.2407  0.1185
69643SOL    HW120908  13.978   9.115  10.030  1.2371 -0.3793  0.9561
69643SOL    HW220909  13.987   8.966  10.001  0.8029 -0.0715 -0.8954
69644SOL     OW20910   9.209   1.887  12.105  0.1591 -0.0451 -0.0296
69644SOL    HW120911   9.205   1.852  12.195  1.5968 -1.6368 -0.5289
69644SOL    HW220912   9.149   1.961  12.106 -1.8582 -1.5805  1.5591
69645SOL     OW20913   7.137  13.776  13.380  0.1086  0.5481  0.0555
69645SOL    HW120914   7.091  13.836  13.439 -1.2696  1.0466 -1.4170
69645SOL    HW220915   7.110  13.689  13.408  0.3612  0.7217  0.8474
69646SOL     OW20916  11.527  11.109  11.728 -0.1027 -0.1157  0.4569
69646SOL    HW120917  11.446  11.153  11.704  0.7268  0.4670 -1.4669
69646SOL    HW220918  11.590  11.181  11.742  1.0414 -0.5644 -1.8672
69647SOL     OW20919  12.543   8.933   8.863 -0.1997  0.1043 -0.1161
69647SOL    HW120920  12.575   8.895   8.945 -1.3492 -1.0670 -0.1864
69647SOL    HW220921  12.592   8.887   8.795 -1.6329 -1.3691 -0.2035
69648SOL     OW20922   0.467  11.973   4.979  0.3898 -0.0487 -0.2746
69648SOL    HW120923   0.477  11.999   5.071  1.4083 -0.5597 -0.2330
69648SOL    HW220924   0.442  11.881   4.982  0.5534 -0.1011 -0.5227
69649SOL     OW20925   2.055  10.601   3.359  0.3219  0.1853  0.1172
69649SOL    HW120926   1.968  10.582   3.322  0.6181  0.2516 -0.6300
69649SOL    HW220927   2.072  10.692   3.334 -0.0835  0.7067  1.6605
69650SOL     OW20928   5.271   9.469  10.273  0.0537 -0.1481  0.8074
69650SOL    HW120929   5.204   9.485  10.206  0.5065  0.3021  0.4558
69650SOL    HW220930   5.310   9.385  10.249  0.6083  0.2848  0.1674
69651SOL     OW20931   6.248   4.305   6.410  0.1137  0.4050 -0.4166
69651SOL    HW120932   6.287   4.390   6.425 -0.5090  0.9462 -1.7270
69651SOL    HW220933   6.273   4.253   6.487 -1.3718  2.4204  1.5758
69652SOL     OW20934   1.020  11.494  10.809  0.3470  0.5516  0.0592
69652SOL    HW120935   1.010  11.525  10.718  0.7671  1.8969  0.4482
69652SOL    HW220936   1.100  11.537  10.840 -0.7140  1.5106  1.6142
69653SOL     OW20937  10.252   4.943  10.681 -0.1312 -0.3290 -0.0153
69653SOL    HW120938  10.187   4.873  10.668 -1.2999  0.5579  0.8438
69653SOL    HW220939  10.311   4.935  10.606  0.3008 -2.7784  0.4742
69654SOL     OW20940   8.289   4.483   6.330 -0.1004 -0.0529 -0.0021
69654SOL    HW120941   8.312   4.393   6.354 -1.2728  0.0066  1.4267
69654SOL    HW220942   8.198   4.477   6.299  0.3177  0.4157 -1.4167
69655SOL     OW20943   6.800   0.213   0.063 -0.0544  1.1218  0.1929
69655SOL    HW120944   6.847   0.192   0.144  0.7048  1.2337 -0.2050
69655SOL    HW220945   6.843   0.160  -0.004 -0.7038  1.0004 -0.1313
69656SOL     OW20946   4.340   1.618   3.106 -0.3412  0.3896  0.2357
69656SOL    HW120947   4.350   1.703   3.149  0.0538  0.2693  0.3834
69656SOL    HW220948   4.430   1.588   3.090 -0.4608  0.8068 -1.4191
69657SOL     OW20949   0.500  12.559   7.425 -0.5780  0.2479 -0.3069
69657SOL    HW120950   0.451  12.498   7.481  0.5842  0.3866  0.9441
69657SOL    HW220951   0.578  12.509   7.400  0.4513  1.2116  0.8409
69658SOL     OW20952  10.071   4.706   5.180 -0.0460 -0.1773 -0.0647
69658SOL    HW120953  10.009   4.663   5.120  0.0303  0.9579 -0.9999
69658SOL    HW220954  10.138   4.640   5.197 -1.0716 -1.1498  0.2989
69659SOL     OW20955   6.509   3.516   4.612  0.2374 -0.2403  0.1828
69659SOL    HW120956   6.572   3.479   4.674  0.4198  0.2332  0.2836
69659SOL    HW220957   6.485   3.600   4.650 -1.0653 -0.7536  0.5576
69660SOL     OW20958   8.812  13.951   8.218 -0.1286 -0.0539 -0.1796
69660SOL    HW120959   8.881  14.003   8.177 -0.3469 -0.0102 -0.4977
69660SOL    HW220960   8.824  13.862   8.183  2.3255 -1.1013  2.8513
69661SOL     OW20961   4.930   7.373   2.640 -0.2844 -0.0987 -0.2662
69661SOL    HW120962   5.016   7.339   2.665 -0.9377 -1.8421 -0.2753
69661SOL    HW220963   4.893   7.306   2.583 -0.9898  1.4010 -1.6490
69662SOL     OW20964  10.106   3.774  10.551  0.5675 -0.6051 -0.6856
69662SOL    HW120965  10.150   3.704  10.503 -0.0620 -0.7283 -1.0975
69662SOL    HW220966  10.013   3.763  10.529  0.2616 -0.6781  0.5955
69663SOL     OW20967   3.995  11.104   6.110  0.2453 -0.0971  0.1157
69663SOL    HW120968   4.000  11.150   6.194  1.0517 -1.7302  1.0119
69663SOL    HW220969   4.000  11.174   6.045  1.1021  1.1196  1.4042
69664SOL     OW20970  13.759  13.128  14.021  0.2950 -0.0867  0.2098
69664SOL    HW120971  13.807  13.182  14.083  1.0734  0.7080 -1.0309
69664SOL    HW220972  13.712  13.191  13.966 -1.9365 -0.8414  1.1789
69665SOL     OW20973   7.036   7.200  13.388  0.2235  0.1726 -0.5001
69665SOL    HW120974   7.023   7.169  13.478  0.3151 -1.2343 -0.9521
69665SOL    HW220975   7.131   7.211  13.380  0.0766  3.2364  0.4641
69666SOL     OW20976   0.188   8.556   3.554  0.2491 -0.3413 -0.0287
69666SOL    HW120977   0.128   8.617   3.598  0.2632 -1.0956  1.0678
69666SOL    HW220978   0.250   8.530   3.621  1.2345 -0.3244 -0.9066
69667SOL     OW20979   9.501   1.834   7.921  0.7930 -0.7300  0.2402
69667SOL    HW120980   9.537   1.818   7.834 -0.5860 -2.5161 -0.0751
69667SOL    HW220981   9.566   1.799   7.982  1.0593 -0.9124 -0.1506
69668SOL     OW20982  13.310   6.473   1.805 -0.7653  0.1881  0.4515
69668SOL    HW120983  13.313   6.459   1.900  0.2384 -0.1742  0.3783
69668SOL    HW220984  13.320   6.385   1.768 -1.3235  0.3060 -0.0001
69669SOL     OW20985   5.155   3.278   3.610 -0.0687 -0.3040  0.1276
69669SOL    HW120986   5.150   3.200   3.555  0.3940 -1.4496  1.6310
69669SOL    HW220987   5.064   3.293   3.637 -0.3438  0.4543 -1.1676
69670SOL     OW20988  13.295   9.735   4.501 -0.3746  0.2391 -0.1860
69670SOL    HW120989  13.366   9.701   4.446  0.1167 -1.0018  1.1734
69670SOL    HW220990  13.285   9.826   4.472  0.7737  0.0242 -1.3895
69671SOL     OW20991   7.018   7.048   8.030  0.3025 -0.0306 -0.3982
69671SOL    HW120992   6.930   7.062   7.993  1.0848 -2.3265 -3.4916
69671SOL    HW220993   7.060   7.134   8.024 -0.8259  0.4748 -1.5938
69672SOL     OW20994   4.999   3.956   6.060 -0.1289 -0.2559  0.1407
69672SOL    HW120995   5.089   3.926   6.073 -0.3961 -1.0873  0.0836
69672SOL    HW220996   4.993   3.971   5.965  0.1370  0.4274  0.2254
69673SOL     OW20997  13.160  10.076   5.278  0.0497  0.1741  0.1402
69673SOL    HW120998  13.166  10.002   5.217  1.1200  0.5547 -0.2392
69673SOL    HW220999  13.160  10.035   5.365  0.1610 -0.2955 -0.0772
69674SOL     OW21000  12.964   1.073   8.054  0.7632  0.4173  0.2784
69674SOL    HW121001  12.962   1.008   7.984  0.4970  0.3363  0.3625
69674SOL    HW221002  12.904   1.040   8.121  0.6667  0.7202  0.3465
69675SOL     OW21003  10.066   1.392   9.812 -0.6218 -0.2274  0.7966
69675SOL    HW121004  10.064   1.460   9.880  1.3880 -0.2960  0.9814
69675SOL    HW221005  10.024   1.316   9.852 -0.9938  0.2559  1.3414
69676SOL     OW21006  13.401  10.889   7.686 -0.1809 -0.0839 -0.0511
69676SOL    HW121007  13.313  10.856   7.670 -0.3709  1.3623 -2.4591
69676SOL    HW221008  13.392  10.947   7.762 -1.2770 -0.0371 -0.2101
69677SOL     OW21009   7.590  11.848   2.843 -0.0570 -0.0038  0.5333
69677SOL    HW121010   7.523  11.916   2.841 -1.1216 -1.0373 -0.6173
69677SOL    HW221011   7.646  11.868   2.768 -0.2906 -0.2946  0.2767
69678SOL     OW21012  10.535   6.497   4.906  0.2955 -0.2494  0.3572
69678SOL    HW121013  10.609   6.460   4.860 -0.6199 -1.3592 -0.2784
69678SOL    HW221014  10.509   6.428   4.969  0.3313  0.4665  1.1787
69679SOL     OW21015  13.553   6.112  12.133  0.6433 -0.3027  0.5069
69679SOL    HW121016  13.485   6.132  12.198 -0.2973 -1.2302 -0.1440
69679SOL    HW221017  13.504   6.085  12.055  1.7096  1.5330 -0.8835
69680SOL     OW21018   2.294   4.562   0.547  0.2008  0.3863  0.0091
69680SOL    HW121019   2.339   4.588   0.466 -1.1812  1.4387 -0.4519
69680SOL    HW221020   2.202   4.556   0.522 -0.1300 -0.2234  1.2954
69681SOL     OW21021  13.522   1.768  12.978  0.0470 -0.1346  0.2797
69681SOL    HW121022  13.526   1.862  12.995  0.0116 -0.2976  1.2175
69681SOL    HW221023  13.495   1.762  12.886  1.5516  0.7919 -0.2668
69682SOL     OW21024   8.116   0.221   0.224  0.1131 -0.4701 -0.5193
69682SOL    HW121025   8.208   0.245   0.220  0.3181 -1.3206 -1.0985
69682SOL    HW221026   8.110   0.138   0.176 -0.8865 -0.6167 -0.1744
69683SOL     OW21027   7.447   8.090   4.657  0.6585  0.4310 -0.1176
69683SOL    HW121028   7.403   8.143   4.591 -0.9136 -0.7079 -0.0291
69683SOL    HW221029   7.523   8.143   4.682  0.4428  1.5767 -1.6961
69684SOL     OW21030   1.381   3.277   9.873 -0.8719 -0.0348 -0.6477
69684SOL    HW121031   1.432   3.294   9.794  1.3978  1.4787  1.0103
69684SOL    HW221032   1.424   3.203   9.915  0.8182  1.8768  1.2786
69685SOL     OW21033   1.590  11.825  12.852  0.0534  0.1776  0.2531
69685SOL    HW121034   1.553  11.744  12.816  1.2126 -0.3955  0.2785
69685SOL    HW221035   1.654  11.795  12.916  0.0330  1.1435  0.7424
69686SOL     OW21036   2.744   5.299   6.052 -0.1521  0.3316 -0.2600
69686SOL    HW121037   2.799   5.227   6.082  0.0335  0.7367  0.3869
69686SOL    HW221038   2.775   5.317   5.963  0.9269  0.7052  0.1762
69687SOL     OW21039   8.499  13.609   5.198 -0.0993 -0.0114  0.2001
69687SOL    HW121040   8.588  13.616   5.162 -0.9551  3.5055 -1.6246
69687SOL    HW221041   8.512  13.567   5.283  2.6555 -4.0389 -1.8508
69688SOL     OW21042  13.473   2.550  11.647 -0.2767  0.6571  0.2198
69688SOL    HW121043  13.394   2.508  11.681  0.6036 -0.5507  0.8677
69688SOL    HW221044  13.462   2.549  11.552 -0.7025 -0.2048  0.2672
69689SOL     OW21045   6.421   0.144   1.690  0.5884  0.3044  0.3061
69689SOL    HW121046   6.347   0.172   1.743  1.6919  1.0735  1.4977
69689SOL    HW221047   6.443   0.058   1.724 -0.7730 -0.6993 -1.1926
69690SOL     OW21048  13.840   9.854  13.020 -0.1132 -0.1598  0.3441
69690SOL    HW121049  13.847   9.759  13.025 -0.4495 -0.2328 -0.4183
69690SOL    HW221050  13.928   9.885  13.042  0.2535 -0.6926 -0.2884
69691SOL     OW21051  11.360  11.097  10.891  0.2099  0.2345  0.3081
69691SOL    HW121052  11.413  11.123  10.816 -0.2468  0.8499  0.1901
69691SOL    HW221053  11.405  11.021  10.928  0.2249 -0.3401 -0.8352
69692SOL     OW21054   5.870   2.835  11.747 -0.3008 -0.2973 -0.6330
69692SOL    HW121055   5.874   2.875  11.833  0.8619  0.2458 -0.9254
69692SOL    HW221056   5.819   2.896  11.694 -0.1841 -0.1603 -0.5863
69693SOL     OW21057   9.908  11.376   6.393  0.0266  0.8230 -0.4328
69693SOL    HW121058   9.996  11.339   6.406  0.0727  1.1135  0.1277
69693SOL    HW221059   9.903  11.447   6.456 -0.0203  1.8472 -1.5509
69694SOL     OW21060   9.573   1.347   3.445 -0.1167 -0.1329 -0.1775
69694SOL    HW121061   9.602   1.431   3.407  0.4140 -0.6654 -1.0008
69694SOL    HW221062   9.577   1.286   3.371  2.5036 -1.5871  1.0418
69695SOL     OW21063   5.337   5.519   1.811  0.6047  0.1038  0.4223
69695SOL    HW121064   5.432   5.530   1.819  0.7424 -0.2343 -0.5791
69695SOL    HW221065   5.304   5.526   1.901  1.5434  0.5142  0.7473
69696SOL     OW21066   5.798  13.236  11.434  0.1093  0.4803 -0.2285
69696SOL    HW121067   5.888  13.217  11.409  0.4706  0.7562  0.8142
69696SOL    HW221068   5.777  13.317  11.389  0.3836  0.4242 -0.4622
69697SOL     OW21069   1.954   2.042  13.790  0.1347  0.2366 -0.4014
69697SOL    HW121070   1.898   1.964  13.786  0.7666 -0.2105 -0.8439
69697SOL    HW221071   1.940   2.085  13.706  1.0017 -0.2814 -0.8278
69698SOL     OW21072   0.690   9.167   2.046 -0.2964 -0.1700  0.2592
69698SOL    HW121073   0.667   9.084   2.006  0.4454 -0.7479  0.9943
69698SOL    HW221074   0.716   9.223   1.973 -2.4482  0.0058 -0.4293
69699SOL     OW21075   0.223  11.901  10.969 -0.1436 -0.0659 -0.2168
69699SOL    HW121076   0.295  11.915  10.908  0.3321  0.6053  0.4901
69699SOL    HW221077   0.150  11.950  10.931 -0.2533 -0.7717 -0.9474
69700SOL     OW21078   4.146   8.915  12.238  0.4660  0.5903 -0.0586
69700SOL    HW121079   4.213   8.949  12.296  0.2557  0.8295  0.0416
69700SOL    HW221080   4.191   8.847  12.187  1.0207  1.3670 -0.6315
69701SOL     OW21081   8.108   5.161   0.239  0.0009  0.0581  0.0379
69701SOL    HW121082   8.015   5.144   0.254 -0.6666  2.3197 -1.1100
69701SOL    HW221083   8.134   5.216   0.313  0.7238 -1.3369  0.8651
69702SOL     OW21084   6.919  10.353  13.169 -0.0704 -0.4006  0.4878
69702SOL    HW121085   6.976  10.342  13.093  2.6836 -0.0289  2.3451
69702SOL    HW221086   6.842  10.399  13.134  0.4961 -1.3235 -2.2520
69703SOL     OW21087  12.584   1.347   5.309 -0.2301 -0.5971 -0.1846
69703SOL    HW121088  12.611   1.256   5.298  0.1004 -0.4407 -0.7027
69703SOL    HW221089  12.536   1.348   5.392 -0.6136 -1.3256 -0.3912
69704SOL     OW21090   2.821   6.275  11.699 -0.1642  0.2073 -0.0114
69704SOL    HW121091   2.889   6.252  11.762  0.4641 -0.3299 -0.8496
69704SOL    HW221092   2.842   6.364  11.672 -1.5339  1.1774  1.8879
69705SOL     OW21093   5.872  11.005   0.578 -0.1521  0.3680  0.1819
69705SOL    HW121094   5.926  11.081   0.555  1.0948  0.2463  2.4611
69705SOL    HW221095   5.863  10.957   0.495  2.0850  1.1281 -0.5789
69706SOL     OW21096   7.109   5.359  13.775  0.6306 -0.5560 -0.7181
69706SOL    HW121097   7.022   5.334  13.744  0.8890 -2.0224 -0.3308
69706SOL    HW221098   7.093   5.398  13.861  0.3179 -0.3881 -0.8496
69707SOL     OW21099  12.190   8.336  11.547 -0.1085  0.2769 -0.1759
69707SOL    HW121100  12.101   8.332  11.514  0.0111 -0.0921 -0.4526
69707SOL    HW221101  12.244   8.301  11.477  0.3142  0.9984 -0.2237
69708SOL     OW21102   0.247   1.698   3.971 -0.8314  0.7428 -0.3814
69708SOL    HW121103   0.212   1.666   4.054 -2.2700  0.1763 -1.1588
69708SOL    HW221104   0.236   1.793   3.974  0.7373  0.9173  0.7535
69709SOL     OW21105  12.897   0.784   4.070 -0.3074 -0.1115  0.7397
69709SOL    HW121106  12.901   0.879   4.078 -1.6263 -0.0112  0.4188
69709SOL    HW221107  12.963   0.763   4.003 -1.1697  0.7672 -0.4366
69710SOL     OW21108  11.512   0.191   9.378 -0.2590 -0.0393  0.0712
69710SOL    HW121109  11.595   0.227   9.407  0.3227 -1.0120 -0.3347
69710SOL    HW221110  11.508   0.104   9.418 -0.7778 -0.2504 -0.4132
69711SOL     OW21111   3.754   5.274   0.759  0.2063  0.5836 -0.4810
69711SOL    HW121112   3.848   5.289   0.753  0.5085 -0.7781  0.4008
69711SOL    HW221113   3.738   5.255   0.851 -1.0068  1.2241 -0.5442
69712SOL     OW21114   8.549   2.927   5.220 -0.6716  0.1298  0.2671
69712SOL    HW121115   8.514   3.015   5.231  3.1244  1.7560  0.8000
69712SOL    HW221116   8.593   2.930   5.135  1.6770 -0.3339  1.3958
69713SOL     OW21117   0.893  10.600  10.592 -0.2006  0.4024  0.7648
69713SOL    HW121118   0.913  10.692  10.576  1.5996  0.2132  1.7423
69713SOL    HW221119   0.889  10.560  10.505  1.1115  0.9922  0.4212
69714SOL     OW21120  10.467   6.872   9.923 -0.2171 -0.0492  0.4948
69714SOL    HW121121  10.500   6.944   9.977  0.3920  0.7378 -0.8548
69714SOL    HW221122  10.543   6.845   9.872 -1.1166  0.3410 -1.1257
69715SOL     OW21123   0.971   5.024  10.336 -0.0746  0.0581 -0.2112
69715SOL    HW121124   1.027   4.985  10.402  0.1930  1.3402  0.3510
69715SOL    HW221125   0.927   4.950  10.295 -0.2082 -0.7670  1.3575
69716SOL     OW21126  13.883   6.139   7.790  0.4269  0.6600 -0.4473
69716SOL    HW121127  13.840   6.204   7.735  0.6192  1.6573  0.5472
69716SOL    HW221128  13.829   6.060   7.781 -0.5269  1.3322 -0.6936
69717SOL     OW21129   2.227   4.077   3.455 -0.2515 -0.2955 -0.2753
69717SOL    HW121130   2.254   4.026   3.378 -0.4745 -0.6048 -0.1501
69717SOL    HW221131   2.309   4.109   3.493 -0.1015 -0.7008 -0.2583
69718SOL     OW21132  12.429   4.893  12.600 -0.0415  0.3522  0.6877
69718SOL    HW121133  12.524   4.883  12.603  0.0319  0.7227 -0.0885
69718SOL    HW221134  12.400   4.879  12.690  0.5805 -1.3578  0.6604
69719SOL     OW21135   2.441   1.190   2.739 -0.0659  0.2804 -0.1936
69719SOL    HW121136   2.352   1.190   2.775 -0.6208 -0.8072 -1.4707
69719SOL    HW221137   2.431   1.158   2.649  1.7216 -0.7582 -0.0777
69720SOL     OW21138   6.050   6.049  10.711 -0.3078  0.3551 -0.0299
69720SOL    HW121139   5.981   5.984  10.725  1.2095 -1.1655  0.7122
69720SOL    HW221140   6.035   6.116  10.777 -1.9743  0.8886 -0.8888
69721SOL     OW21141   1.390  10.815   3.073 -0.3526 -0.2205  0.3737
69721SOL    HW121142   1.443  10.857   3.005  0.7397  0.7678  1.7663
69721SOL    HW221143   1.300  10.821   3.040  0.2593 -0.9961 -1.5717
69722SOL     OW21144   6.246   6.382   3.045 -0.1544  0.1703 -0.1208
69722SOL    HW121145   6.188   6.342   3.110 -0.6818  0.5378 -0.3625
69722SOL    HW221146   6.251   6.318   2.974  1.9751 -1.1256  1.0789
69723SOL     OW21147   9.060  10.990  11.833 -0.1246 -0.3765 -0.1288
69723SOL    HW121148   9.130  11.047  11.802 -1.5879  0.6160 -1.8015
69723SOL    HW221149   9.031  10.942  11.756 -1.5515 -0.4620  0.4201
69724SOL     OW21150   2.912   9.149   7.163  0.1537  0.1246 -0.3106
69724SOL    HW121151   2.912   9.169   7.256  2.9987  1.8242 -0.5602
69724SOL    HW221152   2.823   9.168   7.134 -0.2079  1.7198  1.6321
69725SOL     OW21153   3.833   2.474   2.721  0.2670  1.0045  0.2780
69725SOL    HW121154   3.848   2.390   2.765 -3.0790  0.1659  0.0972
69725SOL    HW221155   3.918   2.518   2.723  1.5538 -1.3199  2.6022
69726SOL     OW21156  11.994  12.080  11.688  0.0314 -0.1725 -0.1449
69726SOL    HW121157  12.034  12.159  11.725 -0.2169 -1.0474  2.1476
69726SOL    HW221158  11.902  12.103  11.678  0.0282 -0.0446  0.1571
69727SOL     OW21159   5.641   0.349  11.350  0.5420 -0.0069  0.3225
69727SOL    HW121160   5.700   0.286  11.309  1.3270  0.6759  0.3648
69727SOL    HW221161   5.624   0.312  11.437  2.8113  0.8839  1.2183
69728SOL     OW21162  13.842   4.969   6.093  0.5744  0.3323  0.1026
69728SOL    HW121163  13.933   4.946   6.107  1.1567  2.5818  0.2810
69728SOL    HW221164  13.793   4.904   6.143  2.1524  0.3002  1.7146
69729SOL     OW21165   0.142  10.666   6.612  0.5242 -0.0860  0.4395
69729SOL    HW121166   0.062  10.658   6.663 -0.4318 -1.1592 -1.1300
69729SOL    HW221167   0.203  10.603   6.651  0.1067 -0.2869  0.7679
69730SOL     OW21168   9.678   6.134   4.737 -0.7121  0.6177 -0.2697
69730SOL    HW121169   9.680   6.225   4.707  0.1911  0.6871 -0.0297
69730SOL    HW221170   9.688   6.083   4.657 -1.5854  0.7110 -0.4485
69731SOL     OW21171  12.450   0.487  10.357  0.2047  0.3279  0.2687
69731SOL    HW121172  12.511   0.560  10.366  0.0903  0.4007  0.4465
69731SOL    HW221173  12.469   0.450  10.271  3.4331 -2.2586  1.8457
69732SOL     OW21174   2.811   1.347   4.354  0.0389 -0.0793 -0.3744
69732SOL    HW121175   2.809   1.263   4.310  1.6731 -0.5767  0.4006
69732SOL    HW221176   2.898   1.382   4.335 -0.6239  1.4589 -0.7108
69733SOL     OW21177   4.117   5.558   6.729  0.3086 -0.2178  0.1928
69733SOL    HW121178   4.158   5.544   6.814  1.7558 -0.3068 -0.4957
69733SOL    HW221179   4.144   5.483   6.676 -2.6949 -1.5683  0.3613
69734SOL     OW21180   8.432   0.943  11.704  0.3199 -0.3515 -1.3382
69734SOL    HW121181   8.363   0.998  11.740 -0.3210 -2.7122  1.4630
69734SOL    HW221182   8.511   0.998  11.707 -0.3450  0.6025  0.9385
69735SOL     OW21183   2.369   9.375  11.845 -0.1733  0.0110 -0.2673
69735SOL    HW121184   2.370   9.470  11.833 -0.0434  0.0943  0.3487
69735SOL    HW221185   2.318   9.341  11.772 -0.8302  0.6144 -0.0953
69736SOL     OW21186  11.527   0.914   2.458 -0.0223  0.0795  0.0172
69736SOL    HW121187  11.465   0.956   2.398 -0.1560 -2.7241 -1.9783
69736SOL    HW221188  11.579   0.987   2.493 -3.4925  2.4058  0.7829
69737SOL     OW21189  10.210   7.294  10.084  0.4101  0.0217  0.0094
69737SOL    HW121190  10.229   7.226  10.020  0.5610  0.2832 -0.2281
69737SOL    HW221191  10.123   7.326  10.061 -0.0425 -0.7033  0.6735
69738SOL     OW21192   8.571   8.432  12.811 -0.5622  0.6119 -0.1080
69738SOL    HW121193   8.627   8.492  12.861  1.5487 -0.3640 -1.1691
69738SOL    HW221194   8.515   8.489  12.759 -1.8177  1.6454  2.1904
69739SOL     OW21195   2.670   4.955   5.325  0.1140 -0.0982 -0.7673
69739SOL    HW121196   2.609   4.881   5.317 -0.3574  0.3048 -0.9499
69739SOL    HW221197   2.626   5.015   5.385  1.4710 -0.9265  1.1622
69740SOL     OW21198  11.764   7.169   2.557 -0.1189 -0.1720  0.0300
69740SOL    HW121199  11.820   7.158   2.634 -0.6446 -1.3610  0.2711
69740SOL    HW221200  11.802   7.243   2.509  2.2332 -1.4962 -0.3062
69741SOL     OW21201   6.417  11.290   3.070 -0.0156 -0.2607 -0.0785
69741SOL    HW121202   6.473  11.335   3.007 -0.5644 -0.4414 -0.7117
69741SOL    HW221203   6.468  11.287   3.150  1.0783 -0.8469 -0.7751
69742SOL     OW21204  12.323   3.581  11.159 -0.5316 -0.7526  0.0733
69742SOL    HW121205  12.358   3.662  11.123  2.5484 -1.9571  0.0422
69742SOL    HW221206  12.289   3.534  11.083 -1.7496  0.2134  0.0071
69743SOL     OW21207   2.116   8.523   7.012  0.0547  0.5851 -0.5053
69743SOL    HW121208   2.126   8.582   6.937  1.3885 -0.0493 -0.8609
69743SOL    HW221209   2.097   8.582   7.086  3.6087  1.8312 -0.3699
69744SOL     OW21210   0.877   3.175   4.957  0.3874 -0.1418 -0.3561
69744SOL    HW121211   0.932   3.105   4.992  0.7034 -0.2451 -1.0579
69744SOL    HW221212   0.798   3.131   4.927 -0.5564  0.1158  1.5583
69745SOL     OW21213   1.281  11.426  11.066 -0.1225 -0.1046 -0.0592
69745SOL    HW121214   1.349  11.434  10.999  0.9040 -1.1517  0.8077
69745SOL    HW221215   1.235  11.345  11.043  1.3741 -1.4408  1.4405
69746SOL     OW21216   2.610   0.447  12.282 -0.0487 -0.1906  0.2369
69746SOL    HW121217   2.537   0.417  12.335 -1.0231 -1.7417 -1.8216
69746SOL    HW221218   2.666   0.370  12.272  0.4277  0.2316 -0.4472
69747SOL     OW21219  12.883  11.209   2.686  0.3255 -0.0682 -0.2544
69747SOL    HW121220  12.826  11.265   2.634  1.3737 -0.2767 -1.6774
69747SOL    HW221221  12.894  11.130   2.633  0.8116 -0.6098  0.6334
69748SOL     OW21222  13.218  13.769   4.738  0.1270  0.0394 -0.4470
69748SOL    HW121223  13.215  13.740   4.647  0.2501  2.7963 -1.4210
69748SOL    HW221224  13.129  13.799   4.756  0.4009  0.6564 -0.0952
69749SOL     OW21225   4.234  13.292   5.518  1.1077  0.6010  0.4552
69749SOL    HW121226   4.229  13.364   5.456 -0.1103  1.3062  1.3263
69749SOL    HW221227   4.243  13.335   5.603  1.2282 -0.3101  0.9125
69750SOL     OW21228   0.266   3.443   1.719  0.1653 -0.7536 -0.3234
69750SOL    HW121229   0.338   3.449   1.657  0.0643  0.6853 -0.3348
69750SOL    HW221230   0.297   3.382   1.786  0.6028 -1.6702 -1.3313
69751SOL     OW21231   2.957   6.832   6.288  0.4728  0.0850 -0.1673
69751SOL    HW121232   3.052   6.833   6.301  0.4298  1.8208  0.2142
69751SOL    HW221233   2.921   6.830   6.377  0.1618  0.5796 -0.2781
69752SOL     OW21234   9.862   9.811  12.518 -0.6619  0.0112 -0.4003
69752SOL    HW121235   9.819   9.893  12.492 -0.7036  0.0598 -0.1804
69752SOL    HW221236   9.832   9.747  12.454 -1.4321 -0.0596  0.0212
69753SOL     OW21237   2.474  10.506   9.901 -0.4344  0.5967 -0.6430
69753SOL    HW121238   2.386  10.471   9.888 -1.9640  3.7457  0.4855
69753SOL    HW221239   2.493  10.491   9.994  0.3776 -0.2701 -0.9262
69754SOL     OW21240   6.608   6.607   9.827 -0.3492  0.2221  0.4141
69754SOL    HW121241   6.644   6.525   9.795 -0.7412 -0.1119  0.8137
69754SOL    HW221242   6.682   6.668   9.828 -0.0718 -0.1088  0.0665
69755SOL     OW21243   7.516  12.896  10.565 -0.1030 -0.3253 -0.1796
69755SOL    HW121244   7.425  12.865  10.567 -0.6309  0.7281 -3.1196
69755SOL    HW221245   7.508  12.989  10.541  1.7360  0.0929  0.6988
69756SOL     OW21246  13.634   8.991   6.897  0.9528  0.6999 -0.0536
69756SOL    HW121247  13.650   8.967   6.989 -0.7843 -1.4945 -0.2526
69756SOL    HW221248  13.542   8.969   6.882  0.8531  2.1956 -2.0073
69757SOL     OW21249  12.490   1.523   1.182 -0.2606 -0.5877  0.7589
69757SOL    HW121250  12.545   1.466   1.127  0.9001  0.0199  1.2673
69757SOL    HW221251  12.422   1.465   1.215 -0.8092 -1.0472 -1.0515
69758SOL     OW21252   8.510   4.695   4.783 -0.1564  0.9293 -0.5182
69758SOL    HW121253   8.532   4.660   4.696 -1.0609  1.5276 -0.9975
69758SOL    HW221254   8.451   4.629   4.821  1.2621  0.0156  0.2036
69759SOL     OW21255  13.880   2.565   1.847  0.2216  0.4369 -0.5822
69759SOL    HW121256  13.814   2.598   1.786  1.0660  0.1355 -1.6853
69759SOL    HW221257  13.943   2.518   1.792  0.6484 -0.4322  0.6059
69760SOL     OW21258  12.152   5.679   9.902  0.3917  0.1935 -0.2850
69760SOL    HW121259  12.221   5.741   9.874  1.1829 -0.3476  0.4217
69760SOL    HW221260  12.130   5.706   9.991  0.9132 -0.6731  0.1190
69761SOL     OW21261   0.497   0.094   8.729  0.2863  0.2709  0.2591
69761SOL    HW121262   0.517   0.017   8.675 -0.6890  1.3873 -1.7906
69761SOL    HW221263   0.403   0.105   8.721  0.4696  1.9311  0.1494
69762SOL     OW21264   3.664   9.356   4.727  0.1497  0.1029  0.1863
69762SOL    HW121265   3.577   9.344   4.689  1.2871 -2.4865 -1.9210
69762SOL    HW221266   3.663   9.304   4.807 -0.6027  1.1404  0.8652
69763SOL     OW21267  13.672  10.249  13.832 -0.1441  0.0797 -0.5223
69763SOL    HW121268  13.626  10.260  13.915 -1.5488 -0.5416 -1.1804
69763SOL    HW221269  13.731  10.175  13.846  1.1476  1.2456  0.5071
69764SOL     OW21270   0.818   8.727  12.188 -0.6022 -0.0284  0.9695
69764SOL    HW121271   0.856   8.657  12.241  0.4984 -0.3316 -0.1783
69764SOL    HW221272   0.892   8.783  12.166 -1.0750  0.2100 -0.0584
69765SOL     OW21273   0.823   7.660   7.849 -0.2869  0.7816  0.6072
69765SOL    HW121274   0.782   7.746   7.834 -1.1637  0.2031 -0.4674
69765SOL    HW221275   0.824   7.619   7.763  0.3928 -0.1835  1.0596
69766SOL     OW21276   0.939   7.342  11.460 -0.1024 -0.0495  0.2778
69766SOL    HW121277   0.902   7.287  11.390  0.5468  1.1724 -1.0948
69766SOL    HW221278   0.994   7.283  11.511 -2.6133 -1.5565  1.4075
69767SOL     OW21279   5.529   7.396   2.801 -0.1542 -0.1324  0.4223
69767SOL    HW121280   5.504   7.444   2.722  0.7179  1.2972  0.9811
69767SOL    HW221281   5.612   7.355   2.779  0.4191  0.8011  0.7749
69768SOL     OW21282  11.242   2.995   8.978 -0.2392  0.0515 -0.2601
69768SOL    HW121283  11.195   2.943   8.912 -2.2374 -0.4705  1.4812
69768SOL    HW221284  11.253   2.935   9.052  2.2797  0.5204 -0.1709
69769SOL     OW21285   7.060   7.645  12.166  0.0364 -0.3826 -0.5580
69769SOL    HW121286   7.043   7.695  12.246  0.1829 -0.0373 -0.7423
69769SOL    HW221287   7.042   7.554  12.191 -2.9459 -0.0007 -0.9316
69770SOL     OW21288   3.875   9.173   9.476  0.1801  0.7542 -0.2503
69770SOL    HW121289   3.902   9.082   9.487 -1.8554  0.1746  0.4926
69770SOL    HW221290   3.935   9.223   9.531  0.7693 -0.2294  0.0322
69771SOL     OW21291  13.841   9.997   6.243 -0.0425  0.2521  0.1886
69771SOL    HW121292  13.807   9.958   6.163 -2.8117  0.1417  1.3095
69771SOL    HW221293  13.804   9.944   6.314  1.6447  0.8435  1.6049
69772SOL     OW21294   6.069  10.825  13.664  0.4751  0.1141  0.6222
69772SOL    HW121295   6.143  10.874  13.699  0.0450  0.2596  1.3553
69772SOL    HW221296   6.050  10.759  13.732  0.3250 -0.3245  0.1608
69773SOL     OW21297   8.476   2.122   3.532 -0.1196 -0.2319 -0.2866
69773SOL    HW121298   8.491   2.079   3.447  1.6516 -0.0856 -0.1017
69773SOL    HW221299   8.466   2.215   3.510  0.9702 -0.1034 -0.3225
69774SOL     OW21300  10.909   9.587   0.189 -0.2155  0.1386 -0.3265
69774SOL    HW121301  10.933   9.638   0.112  0.0936  0.4253 -0.0440
69774SOL    HW221302  10.943   9.638   0.263  0.4154 -0.6408 -0.0586
69775SOL     OW21303   3.810   6.522  11.994  0.1305  0.0257  0.1435
69775SOL    HW121304   3.848   6.594  11.944 -0.1686 -0.0621 -0.2184
69775SOL    HW221305   3.847   6.531  12.081 -0.2646  0.9028  0.2369
69776SOL     OW21306   1.155  13.298   0.435 -0.3941  0.2494  0.4016
69776SOL    HW121307   1.187  13.278   0.347  1.2330  0.5836  0.8859
69776SOL    HW221308   1.145  13.212   0.476  1.5835  0.1398  0.7776
69777SOL     OW21309  13.354  10.930   6.420  0.2415  0.4196 -0.0783
69777SOL    HW121310  13.442  10.918   6.385  0.1541 -0.2315 -0.1038
69777SOL    HW221311  13.359  10.896   6.510  0.6326  2.6983  0.8097
69778SOL     OW21312  10.489   3.819  11.739  0.0525  1.1287  0.4167
69778SOL    HW121313  10.425   3.814  11.810 -0.3104  0.4618  0.0548
69778SOL    HW221314  10.438   3.841  11.662  0.2548  0.5864  0.1222
69779SOL     OW21315   7.787  10.030  13.872 -0.0427 -0.3650  0.6600
69779SOL    HW121316   7.708   9.988  13.836  0.0693 -0.2191  0.2394
69779SOL    HW221317   7.846   9.957  13.891  0.4572 -0.3806 -0.7926
69780SOL     OW21318   2.019   7.195  12.309 -0.1164  0.2091 -0.1074
69780SOL    HW121319   2.092   7.257  12.301 -0.5375  0.5184 -1.8041
69780SOL    HW221320   2.005   7.188  12.404  0.7103  1.7998  0.1757
69781SOL     OW21321  13.603   4.817  11.621  0.0208  0.3555  0.3676
69781SOL    HW121322  13.570   4.821  11.711 -1.3454 -0.9081 -0.0402
69781SOL    HW221323  13.691   4.781  11.629 -0.2706 -0.2081  1.1878
69782SOL     OW21324   6.736   7.388   0.263 -0.9527  0.6861 -0.2936
69782SOL    HW121325   6.777   7.429   0.187  0.7708  1.1810  0.8507
69782SOL    HW221326   6.734   7.294   0.241 -3.0503  1.0540 -2.0591
69783SOL     OW21327   7.686  12.218   3.661  0.2026 -0.2227 -0.3219
69783SOL    HW121328   7.673  12.239   3.568  0.1062  0.5549 -0.1356
69783SOL    HW221329   7.598  12.198   3.693  0.3214 -1.1934 -0.5520
69784SOL     OW21330   2.895   9.214  11.685 -0.2148  0.1472 -0.3990
69784SOL    HW121331   2.809   9.256  11.689 -1.0294 -1.5124  2.8174
69784SOL    HW221332   2.946   9.257  11.754 -0.0352 -1.8976  0.8076
69785SOL     OW21333   0.870   9.472  13.596  0.5697  0.0240  0.0344
69785SOL    HW121334   0.818   9.532  13.649  0.9937  0.8295 -0.4448
69785SOL    HW221335   0.834   9.386  13.615 -0.6187  0.5185  0.0796
69786SOL     OW21336  14.002   6.027   6.769 -0.3045  0.0817 -0.3234
69786SOL    HW121337  14.083   5.977   6.781 -0.6221 -0.1142  1.2039
69786SOL    HW221338  13.972   6.045   6.858  0.4908  4.2242 -0.6784
69787SOL     OW21339  13.702  12.562  11.473 -0.9868  0.5019 -0.6113
69787SOL    HW121340  13.695  12.529  11.383 -3.0280  1.8766 -1.0349
69787SOL    HW221341  13.636  12.513  11.522  0.7036 -0.8734  0.4265
69788SOL     OW21342   8.815  12.705   9.035 -0.1879  0.3935 -0.3080
69788SOL    HW121343   8.823  12.740   9.124  1.0743 -0.2889 -0.1241
69788SOL    HW221344   8.781  12.778   8.983 -1.0458  0.7687  0.7461
69789SOL     OW21345   3.107   2.299   1.530 -0.1380 -0.1977 -0.2870
69789SOL    HW121346   3.087   2.375   1.475 -1.7069 -0.3073  0.0886
69789SOL    HW221347   3.141   2.233   1.469  0.1270  0.3947 -0.7940
69790SOL     OW21348   2.058  11.793   8.699 -0.2720  0.2387  0.2473
69790SOL    HW121349   1.993  11.862   8.687  0.1134  0.5221 -0.2524
69790SOL    HW221350   2.141  11.832   8.671 -0.1206 -0.5751 -0.4848
69791SOL     OW21351   7.322   3.221   0.793 -0.6624  0.2385  0.3014
69791SOL    HW121352   7.398   3.180   0.751  0.0333 -1.1937  2.7587
69791SOL    HW221353   7.304   3.166   0.869 -2.8223  1.7986  1.0270
69792SOL     OW21354  13.406   0.043  13.433 -0.2471 -0.6579 -0.2137
69792SOL    HW121355  13.437   0.033  13.343 -1.8912 -1.3525 -0.7339
69792SOL    HW221356  13.351   0.121  13.431 -1.4412 -1.4793 -0.1590
69793SOL     OW21357   9.359  13.865   3.297  0.5288 -0.8335 -0.0760
69793SOL    HW121358   9.276  13.817   3.306 -0.5432  1.0404  0.4867
69793SOL    HW221359   9.336  13.942   3.246  1.6494  0.3801  1.1922
69794SOL     OW21360  12.462  11.143   2.157 -0.3354 -0.0782 -0.8622
69794SOL    HW121361  12.540  11.088   2.148 -1.0536 -1.4523  0.7352
69794SOL    HW221362  12.483  11.201   2.231 -0.2734  0.5961 -1.3971
69795SOL     OW21363  13.207   2.779   4.373 -0.6088  0.3823  0.1309
69795SOL    HW121364  13.299   2.778   4.398 -0.1345  1.1100 -1.4624
69795SOL    HW221365  13.182   2.871   4.373 -1.3515  0.1926  0.5545
69796SOL     OW21366   1.189   8.922  11.412 -0.1123 -0.0966  0.5317
69796SOL    HW121367   1.128   8.877  11.471  0.8802 -0.5005  1.2681
69796SOL    HW221368   1.264   8.864  11.406 -0.7747 -0.8344 -2.4000
69797SOL     OW21369   4.305   9.249   1.250 -0.8743  0.1960 -0.4085
69797SOL    HW121370   4.360   9.242   1.328 -1.1597 -0.8111 -0.2850
69797SOL    HW221371   4.331   9.331   1.209  0.7245 -0.2623 -0.3550
69798SOL     OW21372   4.148   0.832   8.788  0.0609  0.1720  0.1141
69798SOL    HW121373   4.237   0.842   8.820 -0.3621  0.8230  1.1623
69798SOL    HW221374   4.148   0.749   8.741  0.9160 -0.4691  1.2001
69799SOL     OW21375   0.089   3.541  12.366 -0.4466 -0.1798  0.1255
69799SOL    HW121376   0.158   3.576  12.311  0.3312  0.1090  1.2588
69799SOL    HW221377   0.076   3.451  12.334 -0.5684  0.2399 -1.0240
69800SOL     OW21378  10.570   3.378  11.993 -0.1780  0.2141  0.4072
69800SOL    HW121379  10.612   3.444  11.939 -0.1011 -0.8795 -0.9084
69800SOL    HW221380  10.491   3.354  11.945  1.0949 -2.5009 -0.5060
69801SOL     OW21381   2.207  12.866  13.556  0.1433  0.4549  0.3611
69801SOL    HW121382   2.258  12.803  13.608 -0.1591  1.0651  1.4371
69801SOL    HW221383   2.141  12.813  13.513 -0.1416  0.0150  1.2962
69802SOL     OW21384   4.279   1.151   6.695 -0.1503 -0.2135  0.1377
69802SOL    HW121385   4.255   1.082   6.633 -3.4979  0.8655  0.0427
69802SOL    HW221386   4.202   1.161   6.751  0.8387  2.3372  1.1870
69803SOL     OW21387   7.563  11.508  12.920 -0.4077  0.4564 -0.6659
69803SOL    HW121388   7.481  11.555  12.905  0.4802  2.2539 -0.1331
69803SOL    HW221389   7.626  11.550  12.862  0.6337  0.6096  0.5321
69804SOL     OW21390   3.763  10.560   8.433 -0.0451  0.1515  0.1080
69804SOL    HW121391   3.691  10.521   8.385  0.4317  2.1092 -2.4379
69804SOL    HW221392   3.753  10.654   8.418  0.1753  0.9393  3.9592
69805SOL     OW21393  10.069   9.496  13.013 -0.2636 -0.4162  0.5767
69805SOL    HW121394  10.103   9.585  13.009  0.1751 -0.6248 -0.6948
69805SOL    HW221395  10.098   9.463  13.098  1.1862  0.0319  0.2796
69806SOL     OW21396   1.867   9.225   5.506  1.1421 -0.2536 -0.0806
69806SOL    HW121397   1.808   9.165   5.551 -0.1020  0.1366 -1.1402
69806SOL    HW221398   1.945   9.172   5.488  0.1883 -1.4981 -0.7346
69807SOL     OW21399   7.034   3.270   4.452  0.4457  0.0134  0.3700
69807SOL    HW121400   7.121   3.235   4.473  0.3561 -0.7986 -0.5730
69807SOL    HW221401   6.991   3.201   4.402 -1.2994 -0.1722  2.0276
69808SOL     OW21402   9.041   0.707   9.173 -0.6902  0.8076 -0.1536
69808SOL    HW121403   9.011   0.624   9.136  1.2044  0.3469 -0.7313
69808SOL    HW221404   8.988   0.718   9.252 -0.2136 -1.5375  0.5642
69809SOL     OW21405   4.491   2.500  12.013 -0.7739 -0.4522  0.2345
69809SOL    HW121406   4.504   2.586  11.973  0.4208 -1.4694 -1.7464
69809SOL    HW221407   4.530   2.508  12.100 -1.2075  1.1544  0.3144
69810SOL     OW21408  12.277  12.877   7.685 -0.0873 -0.0524 -0.1695
69810SOL    HW121409  12.187  12.845   7.683 -0.6718  1.5209 -0.7412
69810SOL    HW221410  12.268  12.973   7.686  1.5783  0.1878 -2.3849
69811SOL     OW21411   7.893   8.363  12.457 -0.0078  0.2665 -0.0576
69811SOL    HW121412   7.919   8.320  12.376  2.4424 -0.8238  1.1917
69811SOL    HW221413   7.806   8.328  12.476  0.3732 -1.2905 -0.9987
69812SOL     OW21414  12.536   2.146  13.342  0.5191 -0.0227 -0.8351
69812SOL    HW121415  12.504   2.060  13.316  3.5929 -1.7409  0.4744
69812SOL    HW221416  12.565   2.186  13.260  0.7130 -1.0355 -1.2864
69813SOL     OW21417   2.596  13.228   9.116 -0.2097 -0.2749 -0.0792
69813SOL    HW121418   2.590  13.277   9.198  0.5908 -0.8036  0.2967
69813SOL    HW221419   2.561  13.141   9.136  0.2222 -0.4863 -0.2349
69814SOL     OW21420   1.447  12.298   9.625 -0.1054  0.7377 -0.1267
69814SOL    HW121421   1.405  12.368   9.675 -2.3081 -0.3304 -0.3813
69814SOL    HW221422   1.436  12.220   9.679  2.1203  0.4972  0.0501
69815SOL     OW21423   9.160  12.428   6.933  0.0098 -0.0815  0.4405
69815SOL    HW121424   9.099  12.388   6.871  0.0130 -0.9855  0.9999
69815SOL    HW221425   9.245  12.423   6.889  0.2118 -1.7686  0.9337
69816SOL     OW21426  13.331   0.498   8.282  0.0275  0.1831 -0.3628
69816SOL    HW121427  13.274   0.570   8.310  1.6223  1.0062  0.9484
69816SOL    HW221428  13.415   0.517   8.323  0.3586 -2.7658  0.4934
69817SOL     OW21429   2.445   2.145   1.044 -0.0270 -0.4315  0.0246
69817SOL    HW121430   2.520   2.202   1.033 -0.8666  0.9482  1.1376
69817SOL    HW221431   2.479   2.057   1.027  1.2197  0.3834 -2.0583
69818SOL     OW21432   8.865   9.545  11.661  0.1195 -0.7038 -0.0638
69818SOL    HW121433   8.774   9.568  11.679  0.1884 -0.5221  0.0533
69818SOL    HW221434   8.860   9.483  11.589 -0.1032 -0.7663  0.0036
69819SOL     OW21435   3.478   7.322   9.583  0.2065  0.8590 -0.0467
69819SOL    HW121436   3.547   7.348   9.522 -0.1694 -0.0429 -0.8855
69819SOL    HW221437   3.503   7.362   9.666  1.3421  1.1626 -0.5168
69820SOL     OW21438   9.601  10.293   5.077 -0.6315  0.4404 -0.0670
69820SOL    HW121439   9.597  10.316   4.984 -0.7846  0.6222 -0.0168
69820SOL    HW221440   9.552  10.211   5.083  1.2015 -0.7292 -0.4940
69821SOL     OW21441  12.261  13.101   9.132 -0.2718  0.6898  0.3660
69821SOL    HW121442  12.253  13.062   9.045 -1.3733  0.9131  0.3601
69821SOL    HW221443  12.350  13.079   9.159 -0.2922 -0.3538 -0.3484
69822SOL     OW21444   1.203   9.994  12.436  0.4492 -0.0917  0.0244
69822SOL    HW121445   1.139  10.061  12.460 -0.4744 -1.1728  0.7071
69822SOL    HW221446   1.258   9.985  12.514  2.0998  1.5105 -0.8882
69823SOL     OW21447   8.534  13.150  14.026  0.4007 -0.1662 -0.5237
69823SOL    HW121448   8.525  13.055  14.021  1.3301 -0.2987  0.1831
69823SOL    HW221449   8.595  13.165  14.098 -1.1154  1.0398  0.5742
69824SOL     OW21450   3.796   2.308  12.794  0.2826  0.5723 -0.2392
69824SOL    HW121451   3.707   2.310  12.827  0.2352  3.5504 -0.3401
69824SOL    HW221452   3.787   2.286  12.701 -0.1399 -0.9914  0.1459
69825SOL     OW21453  13.153   0.719   9.971 -0.3299  0.1120 -0.5078
69825SOL    HW121454  13.068   0.764   9.979  0.3138  1.0837  1.3521
69825SOL    HW221455  13.210   0.784   9.930  0.0213  0.1903  0.0991
69826SOL     OW21456   2.778   5.885   5.243 -0.4614 -0.0532 -0.4939
69826SOL    HW121457   2.715   5.880   5.171 -1.0665 -0.3773  0.0420
69826SOL    HW221458   2.727   5.916   5.317  0.1294  0.1708 -0.1744
69827SOL     OW21459  11.770   4.200  11.916 -0.7016 -0.2028  0.1790
69827SOL    HW121460  11.764   4.269  11.850  1.9528  1.6573  1.6892
69827SOL    HW221461  11.680   4.192  11.950 -2.4168 -1.9291 -4.0601
69828SOL     OW21462   8.896   5.224   8.791 -0.3116 -0.4088 -0.4805
69828SOL    HW121463   8.927   5.165   8.722 -0.8262 -0.8684 -0.3258
69828SOL    HW221464   8.913   5.176   8.872 -1.9582 -0.9348 -0.4148
69829SOL     OW21465   7.566   0.084   3.427  0.1574  0.6434 -0.4784
69829SOL    HW121466   7.614   0.064   3.508 -2.4250  0.5032  1.1355
69829SOL    HW221467   7.518   0.003   3.408 -0.4486  1.1796 -1.2850
69830SOL     OW21468   7.298   0.124   6.863 -0.5065 -0.3883 -0.5320
69830SOL    HW121469   7.345   0.112   6.780  0.2608  0.3553 -0.2196
69830SOL    HW221470   7.231   0.055   6.862  0.1042 -1.0030 -1.3320
69831SOL     OW21471   8.117   7.784   3.218 -0.0807 -0.4119  0.4002
69831SOL    HW121472   8.157   7.869   3.202  1.2587 -1.1555 -0.3233
69831SOL    HW221473   8.187   7.732   3.259 -1.0645 -0.9850  1.4094
69832SOL     OW21474  13.621   7.508   0.772  0.0381  0.0840  0.7163
69832SOL    HW121475  13.661   7.591   0.746  0.7645 -0.1984  0.9278
69832SOL    HW221476  13.564   7.485   0.699 -1.9923  1.9211  1.5768
69833SOL     OW21477   9.646   1.006   2.870  0.1279  0.2725  0.2316
69833SOL    HW121478   9.737   1.004   2.899 -0.1867  1.4698  1.4203
69833SOL    HW221479   9.649   0.980   2.778  1.7631  1.0349  0.0457
69834SOL     OW21480  10.779   8.934   8.940 -0.1385 -0.3392  0.4688
69834SOL    HW121481  10.822   8.848   8.941  0.7872  0.1133  0.7000
69834SOL    HW221482  10.710   8.927   9.005  1.0474 -0.3754  1.7711
69835SOL     OW21483   9.839  13.020   4.509 -0.2445 -0.8676 -0.1525
69835SOL    HW121484   9.833  13.065   4.425  2.0502 -1.7585 -0.8720
69835SOL    HW221485   9.845  13.091   4.574  0.3528 -0.1526 -0.9651
69836SOL     OW21486  12.630   5.522  13.420 -0.6698 -0.0418 -0.3994
69836SOL    HW121487  12.644   5.495  13.329 -1.3191  0.4639 -0.6609
69836SOL    HW221488  12.545   5.485  13.442  0.2968 -1.7745  0.6490
69837SOL     OW21489   5.633   7.905  11.694 -0.4203 -0.4369  0.1698
69837SOL    HW121490   5.616   7.813  11.675 -2.0489 -0.1147 -0.1120
69837SOL    HW221491   5.591   7.920  11.779  0.8617 -0.2159  0.7910
69838SOL     OW21492   6.251  13.375   4.204  0.1810  0.3219 -0.4064
69838SOL    HW121493   6.290  13.309   4.147 -1.1372 -0.9379  0.0886
69838SOL    HW221494   6.264  13.458   4.157  1.0945 -0.3880 -1.4634
69839SOL     OW21495  12.313   4.405   8.839 -0.2096 -0.1458 -0.1053
69839SOL    HW121496  12.309   4.316   8.875 -2.2035  0.3180  0.9956
69839SOL    HW221497  12.333   4.460   8.914 -2.5881  0.6489  0.0417
69840SOL     OW21498   7.165  11.080   5.335 -0.1023  0.1628 -0.3199
69840SOL    HW121499   7.143  11.105   5.245  0.8537  2.4580  0.0015
69840SOL    HW221500   7.238  11.018   5.325 -0.1232  0.2571 -1.1281
69841SOL     OW21501   1.392  11.532   4.784 -0.3936 -0.4034 -0.3137
69841SOL    HW121502   1.358  11.553   4.871 -0.6514 -0.8769 -0.2948
69841SOL    HW221503   1.321  11.557   4.724  0.3320  1.2844 -0.5277
69842SOL     OW21504  11.155   2.117   9.241  0.0490  0.0728  0.3282
69842SOL    HW121505  11.113   2.066   9.171  0.4627  1.5211 -1.0231
69842SOL    HW221506  11.082   2.149   9.294 -0.2297 -1.7250  1.1089
69843SOL     OW21507   6.492  11.715   8.742 -0.5034 -0.2230 -0.1804
69843SOL    HW121508   6.454  11.699   8.656  0.0331 -1.2852 -0.2281
69843SOL    HW221509   6.526  11.630   8.770 -0.7227  0.0865  1.1106
69844SOL     OW21510   4.193  13.626   6.168 -0.4818  0.3187  0.1330
69844SOL    HW121511   4.157  13.563   6.106  0.6503 -0.0757 -0.1565
69844SOL    HW221512   4.183  13.711   6.125 -1.3205  0.2617  0.1965
69845SOL     OW21513   5.522   5.451   0.858 -0.1433 -0.2654 -0.0389
69845SOL    HW121514   5.464   5.526   0.844 -1.2470 -1.0585  0.2026
69845SOL    HW221515   5.477   5.397   0.922  1.0028 -0.7720  0.3686
69846SOL     OW21516   6.029   2.452   3.174  0.3081 -0.6739  0.1205
69846SOL    HW121517   6.101   2.465   3.236  1.4427 -0.2537 -1.2172
69846SOL    HW221518   6.071   2.459   3.088 -1.3600 -0.3732 -0.6994
69847SOL     OW21519   4.334   5.654   6.336 -0.4997  0.1761  0.1624
69847SOL    HW121520   4.409   5.622   6.386 -1.8919 -1.7641  1.1285
69847SOL    HW221521   4.273   5.687   6.403 -0.0629  2.9375 -0.6719
69848SOL     OW21522   1.210   7.105  13.729 -0.6436 -0.1556  0.3748
69848SOL    HW121523   1.223   7.041  13.659 -1.7113 -0.0564  0.0656
69848SOL    HW221524   1.264   7.072  13.801  0.5256 -0.2197 -0.5031
69849SOL     OW21525   1.029   6.210   1.905  0.3596  0.5542  0.0672
69849SOL    HW121526   1.076   6.151   1.846 -1.1349 -1.0110  0.3359
69849SOL    HW221527   0.981   6.151   1.963 -0.6607  2.0670  0.8202
69850SOL     OW21528  12.373   0.040   7.542 -0.1860  0.3511 -0.1169
69850SOL    HW121529  12.412   0.097   7.476 -1.9601  0.2183 -1.3650
69850SOL    HW221530  12.340   0.100   7.609  0.2250  0.5980 -0.1345
69851SOL     OW21531  11.940   4.288  11.204  0.3497  0.4222  0.6199
69851SOL    HW121532  12.004   4.257  11.141  0.6282  2.9080 -0.4332
69851SOL    HW221533  11.857   4.286  11.157  0.2031  0.3105  0.8821
69852SOL     OW21534  11.877   7.000  11.744 -0.1310 -0.1074 -0.7995
69852SOL    HW121535  11.821   6.961  11.811  0.9061 -0.2626 -0.0128
69852SOL    HW221536  11.859   7.094  11.749 -0.0538 -0.1190 -0.3031
69853SOL     OW21537  10.754   7.293   1.257  0.2778 -0.4627 -0.5848
69853SOL    HW121538  10.694   7.282   1.183 -1.1260 -1.2227  0.6128
69853SOL    HW221539  10.839   7.264   1.223 -0.8242 -3.3471 -1.2050
69854SOL     OW21540   0.183   3.465   9.956  0.2661 -0.4568 -0.0219
69854SOL    HW121541   0.124   3.474  10.031 -0.1609  0.0024 -0.4042
69854SOL    HW221542   0.268   3.493   9.990  0.0134  0.0609  0.2168
69855SOL     OW21543  10.652  10.087   7.893  0.6049 -0.0856 -0.1987
69855SOL    HW121544  10.669  10.097   7.987 -0.3575 -0.9767  0.0933
69855SOL    HW221545  10.707  10.153   7.851  0.9786  0.3852  0.9963
69856SOL     OW21546   1.555  13.632  11.150  0.5985  0.4417  0.0873
69856SOL    HW121547   1.566  13.669  11.062  0.4184  1.5834  0.5296
69856SOL    HW221548   1.526  13.542  11.135 -0.5982  0.9884 -1.0135
69857SOL     OW21549   8.876   4.712   6.162 -0.1107 -0.0374 -0.0732
69857SOL    HW121550   8.915   4.698   6.248 -0.2120 -0.3512 -0.0754
69857SOL    HW221551   8.945   4.752   6.110  0.2551 -0.7028 -0.1143
69858SOL     OW21552   7.112  13.942   1.105  0.0052  0.2377 -0.1733
69858SOL    HW121553   7.111  13.932   1.010  0.7656 -0.7025 -0.1033
69858SOL    HW221554   7.076  14.029   1.121 -1.2941 -0.0745 -1.2399
69859SOL     OW21555  11.890   2.691   3.287  0.2241 -0.0026  0.4838
69859SOL    HW121556  11.874   2.704   3.194  0.3086 -1.3353  0.2643
69859SOL    HW221557  11.981   2.662   3.292  0.3056  0.3218  1.0163
69860SOL     OW21558   7.500   3.435   1.410 -0.0734 -0.3911  0.2662
69860SOL    HW121559   7.418   3.429   1.459 -0.7299 -0.5721 -0.8268
69860SOL    HW221560   7.498   3.360   1.351 -0.3083  0.9714 -1.5260
69861SOL     OW21561   8.394   7.961  12.199 -0.1191  0.5057  0.7295
69861SOL    HW121562   8.357   8.031  12.252 -1.7894 -1.0213  1.7121
69861SOL    HW221563   8.335   7.887  12.213  1.3911 -1.0169 -0.5004
69862SOL     OW21564  12.602  10.717   0.108  0.1015  0.4487 -0.0618
69862SOL    HW121565  12.646  10.773   0.044  1.3454 -0.1404  0.2482
69862SOL    HW221566  12.674  10.675   0.156 -0.7675  1.2323  2.0535
69863SOL     OW21567   7.590   1.096   4.803 -0.5507  0.2328  0.0340
69863SOL    HW121568   7.525   1.151   4.847  0.0589  2.2758 -1.4749
69863SOL    HW221569   7.547   1.012   4.791 -2.4024  1.1001  0.3373
69864SOL     OW21570   5.955  12.244   1.778  0.3023  0.3552  0.1597
69864SOL    HW121571   5.920  12.154   1.781 -0.3323  0.6139  1.3026
69864SOL    HW221572   5.911  12.284   1.703  3.2896 -1.2864 -2.7190
69865SOL     OW21573  10.037  10.491   8.540  0.3361 -0.3980 -0.4737
69865SOL    HW121574  10.048  10.542   8.461  1.6190 -1.5560 -1.0974
69865SOL    HW221575  10.026  10.401   8.510 -3.5613 -0.4411  0.4983
69866SOL     OW21576   2.170   2.051   3.124  0.1157  0.9813  1.1364
69866SOL    HW121577   2.198   2.134   3.086 -1.4299  0.1527 -2.0529
69866SOL    HW221578   2.245   1.993   3.112  0.2611  1.1959  1.0036
69867SOL     OW21579   7.624   7.428   2.153  0.1983  0.0214  0.1937
69867SOL    HW121580   7.701   7.485   2.149 -0.0274  0.2507 -1.1369
69867SOL    HW221581   7.605   7.420   2.247  0.8220  1.3374  0.4522
69868SOL     OW21582  13.130  11.470   9.612  0.1242 -0.1454  0.1869
69868SOL    HW121583  13.131  11.381   9.648 -2.6253 -0.5348 -0.4711
69868SOL    HW221584  13.176  11.463   9.529  2.0147 -0.3667  1.1982
69869SOL     OW21585  10.915  12.550   8.193 -0.5481 -0.0185 -0.1120
69869SOL    HW121586  10.960  12.622   8.237  1.3748 -0.7036 -0.8570
69869SOL    HW221587  10.916  12.573   8.100 -0.7237 -0.5867 -0.2622
69870SOL     OW21588   8.545   2.046   8.762  0.7419 -0.4534  0.2449
69870SOL    HW121589   8.510   2.015   8.846  1.1341 -1.7614 -0.0504
69870SOL    HW221590   8.597   1.972   8.729  2.2301  0.7468 -0.2204
69871SOL     OW21591   8.085  11.802   9.540 -0.9146  0.6946  0.0885
69871SOL    HW121592   8.179  11.820   9.533  0.0135 -2.5935  1.8874
69871SOL    HW221593   8.076  11.711   9.511 -2.7947 -0.3677  3.4792
69872SOL     OW21594   1.688  12.383   7.293 -0.0817  0.1539  0.0036
69872SOL    HW121595   1.769  12.343   7.322 -0.0320  0.5185  0.3848
69872SOL    HW221596   1.646  12.317   7.238  0.0217 -0.3922  0.5761
69873SOL     OW21597  13.016  13.481   3.310  0.1079  0.3030  0.3375
69873SOL    HW121598  13.062  13.406   3.348  0.5853  0.4779  0.1134
69873SOL    HW221599  13.032  13.473   3.216  1.8574  1.7798  0.4519
69874SOL     OW21600   8.452  10.040   4.282  0.5359 -0.0068 -0.5641
69874SOL    HW121601   8.384   9.997   4.335  1.5016  0.8991  1.5179
69874SOL    HW221602   8.406  10.112   4.239  0.0828  0.4353  0.6097
69875SOL     OW21603   4.936   6.375   9.554 -0.2741  0.2421  0.1181
69875SOL    HW121604   5.006   6.428   9.593  0.4383 -0.7837  0.2774
69875SOL    HW221605   4.907   6.426   9.479  0.9749  0.4808 -0.2263
69876SOL     OW21606   4.104   6.675   7.280  0.4357 -0.1752  0.5667
69876SOL    HW121607   4.106   6.738   7.207  0.2794 -0.5052  0.2769
69876SOL    HW221608   4.177   6.616   7.263 -1.7129 -2.5073 -1.3506
69877SOL     OW21609  12.944   8.829  12.292  0.8700  0.0544 -0.3923
69877SOL    HW121610  13.022   8.783  12.261 -0.1333 -1.6484 -0.5267
69877SOL    HW221611  12.932   8.901  12.231  2.2134  0.2254 -0.4754
69878SOL     OW21612  10.942  11.617   8.182  0.1355 -0.2139  0.4728
69878SOL    HW121613  10.968  11.525   8.174  1.5263  0.2631 -1.0804
69878SOL    HW221614  10.994  11.662   8.116 -0.8292  1.6448  0.9206
69879SOL     OW21615   3.726   6.463   5.882  0.6048  0.3758  0.2461
69879SOL    HW121616   3.689   6.382   5.917  0.1807  1.3992  2.3281
69879SOL    HW221617   3.651   6.520   5.870  1.1673  1.5465  1.9338
69880SOL     OW21618   2.335   0.254   8.001 -0.1754 -0.0876 -0.5304
69880SOL    HW121619   2.333   0.176   8.056 -1.0246  0.2607 -0.0378
69880SOL    HW221620   2.384   0.227   7.923 -1.1709 -1.3777 -0.7568
69881SOL     OW21621  14.045   6.428   7.765 -0.3579  0.0120 -0.0181
69881SOL    HW121622  13.996   6.348   7.748 -1.3064  0.3990  0.7984
69881SOL    HW221623  13.980   6.489   7.801  0.2231  1.3351 -1.1170
69882SOL     OW21624  10.502   3.894   3.152  0.5554 -0.2160 -0.5768
69882SOL    HW121625  10.566   3.824   3.168  0.3225 -0.3295 -0.1194
69882SOL    HW221626  10.551   3.960   3.103  0.5825 -1.0106 -1.6582
69883SOL     OW21627   5.134   7.080   9.634 -0.1629 -0.3559  0.6303
69883SOL    HW121628   5.067   7.146   9.649 -0.1143  0.1528 -1.2420
69883SOL    HW221629   5.088   7.008   9.591  0.4322 -0.0698 -0.5215
69884SOL     OW21630   0.045   5.862   2.940  0.3372  0.4479  0.3867
69884SOL    HW121631  -0.033   5.809   2.922  1.0447 -0.7014  0.5965
69884SOL    HW221632   0.077   5.830   3.024  0.1455  2.0114  1.0721
69885SOL     OW21633   9.809  13.274   5.109  0.6678  0.2167  0.3100
69885SOL    HW121634   9.718  13.271   5.081  0.2717 -2.4444  1.5755
69885SOL    HW221635   9.856  13.221   5.045  0.6760 -1.3426  1.5470
69886SOL     OW21636  11.633   0.344   6.142 -0.3868  0.3282 -0.0490
69886SOL    HW121637  11.555   0.308   6.185 -1.2612  2.4186  0.2973
69886SOL    HW221638  11.690   0.371   6.215  0.5989 -1.0126 -0.3000
69887SOL     OW21639   3.155   1.828   0.543 -0.6191 -0.0068  0.1589
69887SOL    HW121640   3.228   1.866   0.494  0.6470 -2.7107 -0.3015
69887SOL    HW221641   3.098   1.791   0.475 -1.8447  1.0505  0.5733
69888SOL     OW21642   4.096   1.241  10.820  0.4456  0.3183  0.3575
69888SOL    HW121643   4.025   1.301  10.796  2.2794  2.1808 -0.7898
69888SOL    HW221644   4.109   1.186  10.743  0.3840  0.1060  0.4966
69889SOL     OW21645  14.029   7.100   5.191  0.0764 -0.0523 -0.3552
69889SOL    HW121646  14.078   7.029   5.233 -1.6568  0.3860  2.7022
69889SOL    HW221647  14.096   7.156   5.153  1.7186 -1.3180  0.5202
69890SOL     OW21648  11.991   2.849   8.073  0.0024 -0.1814 -0.0966
69890SOL    HW121649  11.990   2.756   8.049 -1.1023  0.0512 -1.1068
69890SOL    HW221650  12.079   2.879   8.050  0.1487 -0.8325 -0.4214
69891SOL     OW21651   4.417   9.412   3.757 -0.0567  0.0682  0.1495
69891SOL    HW121652   4.386   9.473   3.824 -0.6333 -1.4487  1.3184
69891SOL    HW221653   4.341   9.398   3.700 -0.0767  0.0552  0.1795
69892SOL     OW21654   8.528   8.929   5.498  0.3263 -0.0122  0.0064
69892SOL    HW121655   8.607   8.891   5.536  0.5944 -1.1039 -1.5257
69892SOL    HW221656   8.503   8.999   5.558  1.9588 -0.2150  0.9773
69893SOL     OW21657  11.348   1.147   1.124  0.0348 -0.4641 -1.0171
69893SOL    HW121658  11.304   1.217   1.075  1.1031 -0.4439 -1.9951
69893SOL    HW221659  11.402   1.103   1.059 -1.9035 -3.3543 -0.8449
69894SOL     OW21660   5.097  12.534   1.968 -0.5226 -0.1818 -0.2916
69894SOL    HW121661   5.115  12.575   2.052  0.4720 -0.6376 -0.2597
69894SOL    HW221662   5.020  12.578   1.935 -1.1448 -0.2405  1.0271
69895SOL     OW21663  11.064  10.279   3.764  0.5688  0.4720 -0.5681
69895SOL    HW121664  11.048  10.358   3.713  0.9321  1.1367  0.3308
69895SOL    HW221665  11.121  10.307   3.835 -1.4949  0.0134  1.3862
69896SOL     OW21666   4.252   0.621  13.046  0.0862 -0.6029  0.4679
69896SOL    HW121667   4.258   0.678  13.122 -1.8237 -1.2675  1.1616
69896SOL    HW221668   4.310   0.661  12.981  2.1125 -0.2862  2.3953
69897SOL     OW21669  13.592   0.846  12.112  0.2469  0.4170 -0.3458
69897SOL    HW121670  13.500   0.851  12.137  0.8984  0.1923  2.4005
69897SOL    HW221671  13.632   0.787  12.176  2.9771  3.3535  0.9755
69898SOL     OW21672  10.953   0.672  13.237 -0.0546  0.5034  0.1896
69898SOL    HW121673  10.913   0.592  13.271 -2.2353  1.4648  0.0384
69898SOL    HW221674  11.038   0.643  13.202 -0.6918 -1.6939  0.2855
69899SOL     OW21675   3.654   8.763   5.247  0.2659  0.0236  0.2333
69899SOL    HW121676   3.701   8.846   5.253 -2.1090  1.5209 -0.4432
69899SOL    HW221677   3.683   8.713   5.324  2.5061  1.0274  0.1033
69900SOL     OW21678   2.158   4.354  10.709 -0.1200 -0.1544  0.0745
69900SOL    HW121679   2.146   4.319  10.797  1.6639 -2.1256 -0.3511
69900SOL    HW221680   2.136   4.447  10.715 -0.8970 -0.4449  2.3625
69901SOL     OW21681   5.724   4.178  12.549 -0.2530 -0.1496 -0.0815
69901SOL    HW121682   5.811   4.218  12.558 -0.0519 -0.8032  1.1559
69901SOL    HW221683   5.676   4.239  12.493  0.2621  1.4782  1.1464
69902SOL     OW21684   9.340   1.123   9.309  0.3192 -0.2899 -0.1312
69902SOL    HW121685   9.401   1.075   9.365 -0.2588  0.2296  0.9834
69902SOL    HW221686   9.257   1.078   9.320  0.1484 -0.0412 -0.3938
69903SOL     OW21687   1.887  10.972   6.874  0.5437 -0.0954  0.1693
69903SOL    HW121688   1.816  11.017   6.919  0.7975  0.0999  0.3785
69903SOL    HW221689   1.961  11.033   6.879  1.6159 -1.4789  2.5524
69904SOL     OW21690   5.733  10.512  12.609  0.2441  0.5487 -0.4619
69904SOL    HW121691   5.671  10.584  12.593 -2.0859 -1.3187 -0.3487
69904SOL    HW221692   5.759  10.483  12.522 -1.0034 -0.2077 -0.6103
69905SOL     OW21693   4.195   1.270   9.932  0.1411 -0.4624  0.0214
69905SOL    HW121694   4.273   1.220   9.958  0.6405 -0.4630 -1.3905
69905SOL    HW221695   4.220   1.312   9.849 -0.7212  1.0835  0.5087
69906SOL     OW21696  13.388   7.765  11.932 -0.0846  0.1468  0.2030
69906SOL    HW121697  13.371   7.737  12.022  1.3247 -1.1890  0.0917
69906SOL    HW221698  13.321   7.721  11.880  0.3484 -0.7300  0.3762
69907SOL     OW21699   4.138  12.469  13.800  0.5065  0.4304 -0.5485
69907SOL    HW121700   4.072  12.407  13.830  0.5933  0.0644 -1.0869
69907SOL    HW221701   4.172  12.429  13.720 -0.2835  1.7293 -1.5751
69908SOL     OW21702   2.371   0.873   0.364 -0.1831 -0.0201 -0.2056
69908SOL    HW121703   2.304   0.807   0.349  0.0329 -0.9107  2.2537
69908SOL    HW221704   2.454   0.826   0.351 -0.0368  0.1702  0.0321
69909SOL     OW21705   6.409   2.548   7.188  0.3469 -0.1739  0.0498
69909SOL    HW121706   6.352   2.524   7.116 -1.4554  0.9901  1.0051
69909SOL    HW221707   6.429   2.465   7.232  1.9854 -0.9908 -2.0337
69910SOL     OW21708   2.118   4.246   1.326 -0.3289  0.7718  0.2380
69910SOL    HW121709   2.164   4.235   1.243  1.7623  1.0594  1.2789
69910SOL    HW221710   2.102   4.157   1.357 -2.4638  0.6215 -1.0918
69911SOL     OW21711   5.863   5.118   1.165  0.0455 -0.2344  0.1947
69911SOL    HW121712   5.919   5.052   1.124  1.2497  1.2139 -0.5977
69911SOL    HW221713   5.783   5.117   1.112  0.1232 -0.9006  0.0707
69912SOL     OW21714   9.529   6.221   0.586 -0.1880 -0.0344 -0.3328
69912SOL    HW121715   9.524   6.290   0.652 -1.8597 -0.4281 -0.0194
69912SOL    HW221716   9.529   6.139   0.635  0.0451 -0.3011 -0.7644
69913SOL     OW21717   6.167   5.551  13.466  0.6353 -0.3213 -0.0173
69913SOL    HW121718   6.195   5.612  13.397  0.2439  0.4596  0.4950
69913SOL    HW221719   6.249   5.512  13.497  0.9095  0.0160 -0.2928
69914SOL     OW21720   1.030   1.710   5.103  0.2636  0.5973  0.1243
69914SOL    HW121721   0.977   1.764   5.162  0.1173  0.1480  0.4223
69914SOL    HW221722   1.100   1.767   5.074 -0.1228  1.0672  0.0976
69915SOL     OW21723   7.283   6.984   3.041  0.0849 -0.2178  0.1094
69915SOL    HW121724   7.260   7.043   2.970 -2.0857  1.7885  2.2727
69915SOL    HW221725   7.317   6.906   2.998  0.9977  1.7306 -2.9775
69916SOL     OW21726   2.109  11.952   7.766  0.4682 -0.0859  0.1368
69916SOL    HW121727   2.153  11.947   7.851  0.0058  0.7620  0.4394
69916SOL    HW221728   2.135  12.037   7.732 -1.9754  1.0661  0.9329
69917SOL     OW21729   3.921   7.694   1.495 -0.0861  0.5073 -0.5515
69917SOL    HW121730   3.913   7.612   1.446 -2.7707  1.4957 -2.0126
69917SOL    HW221731   3.924   7.666   1.587 -1.0026 -1.2475 -1.0037
69918SOL     OW21732  11.027   5.684  10.201  0.1541  0.0223 -0.5435
69918SOL    HW121733  10.931   5.684  10.203  0.1489 -0.8730 -0.5577
69918SOL    HW221734  11.049   5.749  10.135 -0.4749 -0.7249 -1.5252
69919SOL     OW21735   0.069   3.610  11.888 -0.3545 -0.1934 -0.3882
69919SOL    HW121736   0.149   3.558  11.902  1.0137  1.9586  0.4191
69919SOL    HW221737   0.072   3.634  11.795 -0.1341 -0.2949 -0.4093
69920SOL     OW21738   0.113   2.040  10.643 -0.0115  0.3414  0.1852
69920SOL    HW121739   0.022   2.071  10.643 -0.0048  0.3597  0.9135
69920SOL    HW221740   0.131   2.021  10.551 -0.0966  2.2631 -0.2735
69921SOL     OW21741   6.210  12.697  13.421  0.2241  0.2140 -0.2081
69921SOL    HW121742   6.134  12.687  13.477  0.5859  0.4487  0.3290
69921SOL    HW221743   6.257  12.614  13.429  0.4467  0.3664  0.0994
69922SOL     OW21744   8.027  13.229   4.043 -0.7407 -0.5001  0.2405
69922SOL    HW121745   8.018  13.315   4.002  0.9587 -0.9381 -1.1979
69922SOL    HW221746   8.101  13.239   4.103 -1.5302 -0.5775  1.2573
69923SOL     OW21747  11.569   1.460   8.790 -0.0222 -0.4392 -0.8877
69923SOL    HW121748  11.478   1.444   8.763 -1.2515  1.1579  1.9161
69923SOL    HW221749  11.585   1.397   8.859 -0.0058  1.0366  0.5050
69924SOL     OW21750   1.000  11.147   6.749  0.1437  0.1086  0.3632
69924SOL    HW121751   1.064  11.203   6.794 -0.7235 -0.1144  1.9641
69924SOL    HW221752   0.942  11.208   6.705  0.2407  0.4044  0.6405
69925SOL     OW21753   5.558   0.017  10.839  0.3532 -0.2072 -0.2567
69925SOL    HW121754   5.612  -0.062  10.842  1.0830  0.2495 -0.8436
69925SOL    HW221755   5.469  -0.015  10.829  0.7070 -0.9574 -1.1910
69926SOL     OW21756   8.655  13.198   5.447  0.2093 -0.0299  0.1261
69926SOL    HW121757   8.716  13.130   5.420  1.1056  0.9810 -0.4384
69926SOL    HW221758   8.568  13.162   5.426  0.6792 -0.8912 -0.3819
69927SOL     OW21759  11.565   8.197   4.924  0.3483 -0.0110 -0.1192
69927SOL    HW121760  11.633   8.176   4.859 -0.6644 -0.3879 -1.0830
69927SOL    HW221761  11.560   8.293   4.923  0.5024 -0.0032 -0.4192
69928SOL     OW21762  13.585  12.879  11.068 -0.1903  0.7454  0.0421
69928SOL    HW121763  13.519  12.825  11.026 -0.8213  0.2088  1.6434
69928SOL    HW221764  13.620  12.934  10.998 -1.4762  0.1831 -1.0723
69929SOL     OW21765   6.395   5.093   4.175 -0.3829  0.8783  0.4120
69929SOL    HW121766   6.367   5.184   4.170  0.1189  0.9943 -0.5411
69929SOL    HW221767   6.392   5.071   4.268  0.1205  2.0690  0.7190
69930SOL     OW21768   9.891   7.773  12.793  0.1468 -0.2389  0.0997
69930SOL    HW121769   9.843   7.693  12.815 -0.0570 -0.1677 -0.0912
69930SOL    HW221770   9.824   7.839  12.780  0.2133 -0.4274 -1.3720
69931SOL     OW21771   5.958   3.960   1.681  0.6985 -0.3048  0.3691
69931SOL    HW121772   5.890   3.917   1.629  1.0427  1.0759 -1.3623
69931SOL    HW221773   5.985   4.035   1.627  1.8290  0.6372  2.1268
69932SOL     OW21774   7.682   8.410   6.517 -0.1971 -0.3281 -0.7945
69932SOL    HW121775   7.598   8.419   6.471 -1.4606  0.9913  1.6109
69932SOL    HW221776   7.714   8.324   6.490 -4.4968 -3.0422  1.4970
69933SOL     OW21777  10.894   4.463   9.671 -0.5759 -0.6874  0.3660
69933SOL    HW121778  10.846   4.457   9.754 -1.1528 -1.8639 -0.0327
69933SOL    HW221779  10.920   4.373   9.652  0.8394 -0.2272 -0.0014
69934SOL     OW21780  13.789   3.894   9.807  0.1090  0.5855 -0.0617
69934SOL    HW121781  13.694   3.902   9.811  0.2290  1.6036  1.6020
69934SOL    HW221782  13.814   3.942   9.728 -0.6287  1.8861  0.4588
69935SOL     OW21783   0.366   3.083   2.523  0.4267  0.0461 -0.2942
69935SOL    HW121784   0.316   3.003   2.541  1.1158 -0.3047  0.1039
69935SOL    HW221785   0.456   3.060   2.546  0.6311  0.9346 -0.1849
69936SOL     OW21786   3.962   0.667   5.668 -0.4836 -0.3009 -0.2181
69936SOL    HW121787   4.038   0.687   5.613 -1.3222  1.7937 -0.7077
69936SOL    HW221788   4.000   0.642   5.752  0.7783  1.1975 -0.2924
69937SOL     OW21789   1.546   4.504  12.070  0.4444  0.0566  0.3567
69937SOL    HW121790   1.482   4.490  12.140  0.7431  1.9961  1.0730
69937SOL    HW221791   1.531   4.431  12.009 -2.2888  0.3165  0.5943
69938SOL     OW21792  11.235  11.242   3.862 -0.0317 -0.7868  0.3778
69938SOL    HW121793  11.299  11.173   3.880 -0.0255 -1.1977 -1.1008
69938SOL    HW221794  11.161  11.195   3.823 -0.8006 -0.1782  1.0740
69939SOL     OW21795   5.489  12.425   4.050  0.1899  0.3139 -0.0147
69939SOL    HW121796   5.481  12.438   4.144 -1.6336  0.5678 -0.1568
69939SOL    HW221797   5.515  12.511   4.016 -0.1363  0.4839  0.1656
69940SOL     OW21798   2.587   4.189  13.771  0.0550 -0.1229  0.8205
69940SOL    HW121799   2.656   4.144  13.821  0.4672 -0.7786 -0.3009
69940SOL    HW221800   2.507   4.141  13.793 -0.1622  0.9345  2.4991
69941SOL     OW21801  13.916   1.734   2.674  0.8659  0.1809 -0.6441
69941SOL    HW121802  13.954   1.820   2.658 -0.6076  1.4358  2.0458
69941SOL    HW221803  13.947   1.710   2.761 -0.9973 -0.7016 -0.1795
69942SOL     OW21804   0.642   7.815   5.674  0.1092  0.0570  0.1312
69942SOL    HW121805   0.618   7.875   5.745  1.8180  0.9240  0.0268
69942SOL    HW221806   0.633   7.868   5.595 -0.9129 -0.6375 -0.2260
69943SOL     OW21807  11.562   9.872   1.310 -0.0778 -0.0177  0.6649
69943SOL    HW121808  11.641   9.855   1.258 -0.3266  0.5460  0.0844
69943SOL    HW221809  11.510   9.793   1.301 -1.5133  1.1223 -2.5352
69944SOL     OW21810   8.379  12.793  12.048  0.6655 -0.6811 -0.0113
69944SOL    HW121811   8.451  12.829  11.997  0.9818  0.4805  1.1874
69944SOL    HW221812   8.400  12.700  12.060  2.5451 -0.1516  1.2119
69945SOL     OW21813   5.029  10.546  11.701 -0.3448 -0.1396 -0.3197
69945SOL    HW121814   5.111  10.543  11.651  0.1213  2.3752  0.1520
69945SOL    HW221815   4.968  10.594  11.645 -0.6360  0.3710  0.4213
69946SOL     OW21816   6.087   8.976   2.206  0.6819  0.2434  0.8780
69946SOL    HW121817   5.996   8.977   2.237 -0.1637  0.7977 -1.4200
69946SOL    HW221818   6.107   8.883   2.193  0.1517  0.1630  0.6152
69947SOL     OW21819   9.977   3.119   7.979 -0.1485  0.3583  0.1625
69947SOL    HW121820   9.950   3.051   7.917  1.9068 -1.7031  1.3594
69947SOL    HW221821   9.930   3.098   8.060 -0.2899  1.0203  0.2591
69948SOL     OW21822  13.405  13.384  11.778 -0.0743 -0.4390 -0.0915
69948SOL    HW121823  13.442  13.452  11.834  0.6768 -0.6131 -0.3661
69948SOL    HW221824  13.316  13.372  11.811  0.1769 -0.1625  0.7183
69949SOL     OW21825   1.813   0.627   7.076  0.4101 -0.1905  0.1798
69949SOL    HW121826   1.843   0.555   7.021 -1.1263 -0.5094 -0.2707
69949SOL    HW221827   1.855   0.610   7.161 -0.3338 -1.9404  0.2437
69950SOL     OW21828   6.449   4.790   6.609  0.1878 -0.1641  0.0052
69950SOL    HW121829   6.426   4.760   6.697 -2.7700 -2.0176 -1.2230
69950SOL    HW221830   6.388   4.861   6.591 -0.5793 -1.0684 -1.1579
69951SOL     OW21831  12.993  12.206   2.700  0.0061  0.0123 -0.0584
69951SOL    HW121832  13.088  12.206   2.706  0.0313  1.7427  0.1165
69951SOL    HW221833  12.963  12.184   2.789  0.2892  2.2955  0.6594
69952SOL     OW21834   7.004   1.685   4.366 -0.1618 -0.0718 -0.1339
69952SOL    HW121835   7.048   1.764   4.398  0.6035 -0.1564 -0.9047
69952SOL    HW221836   7.069   1.644   4.308 -0.3138 -1.5857  0.7023
69953SOL     OW21837   0.421  11.136   0.398  0.0973 -0.2156 -0.3240
69953SOL    HW121838   0.480  11.122   0.324 -0.1780  1.4777 -0.8834
69953SOL    HW221839   0.466  11.094   0.472  2.0820  1.1141 -0.6992
69954SOL     OW21840  13.640   8.010   1.378  0.3607  0.2864 -0.1927
69954SOL    HW121841  13.736   8.006   1.376  0.4288  1.5541 -0.4244
69954SOL    HW221842  13.620   8.104   1.380 -0.8982  0.0936 -1.7949
69955SOL     OW21843  11.007   3.937   5.339  0.7160  0.5354  0.4365
69955SOL    HW121844  10.936   3.899   5.287  0.2800 -0.4600  1.6922
69955SOL    HW221845  11.040   3.864   5.392  1.7979  1.2831  0.8489
69956SOL     OW21846   2.885  10.653  12.641 -0.0152 -0.4730 -0.3464
69956SOL    HW121847   2.802  10.674  12.685 -0.2848 -0.1312 -1.0014
69956SOL    HW221848   2.858  10.615  12.557  0.4678  1.2227 -1.3225
69957SOL     OW21849  11.906   9.479  11.666 -0.8358  0.4946 -0.1615
69957SOL    HW121850  11.994   9.504  11.639 -0.9579  1.7716  0.5683
69957SOL    HW221851  11.894   9.521  11.751 -2.4740  1.0912 -0.6540
69958SOL     OW21852  10.067   8.471   8.017  0.1308 -0.0379 -0.1735
69958SOL    HW121853  10.152   8.437   7.987 -0.0342 -0.1000 -0.5709
69958SOL    HW221854  10.020   8.394   8.048  0.0199 -0.0737 -0.4349
69959SOL     OW21855  12.689   1.463   9.971  0.0455 -0.3102 -0.0827
69959SOL    HW121856  12.692   1.458  10.066 -0.3056 -0.6818 -0.0877
69959SOL    HW221857  12.765   1.413   9.942  1.1633  1.2412  0.0213
69960SOL     OW21858   7.191   5.612   7.540  0.2431  0.1290  0.3401
69960SOL    HW121859   7.164   5.638   7.628  0.2721 -3.6824  1.6785
69960SOL    HW221860   7.112   5.623   7.486 -1.1335 -1.3731  1.9019
69961SOL     OW21861  12.252   4.113   4.027  0.1933 -0.6505  0.8059
69961SOL    HW121862  12.176   4.105   3.969  0.7665 -3.1969  0.2825
69961SOL    HW221863  12.321   4.148   3.970  0.1357 -0.9686  0.5340
69962SOL     OW21864   2.227   2.467   4.620 -0.1208 -0.8621 -0.4385
69962SOL    HW121865   2.236   2.476   4.715  1.7986 -0.1691 -0.6424
69962SOL    HW221866   2.188   2.549   4.592  0.7805 -0.4102 -0.4001
69963SOL     OW21867   3.804   0.651   1.620 -0.2873 -0.0860 -0.4564
69963SOL    HW121868   3.851   0.571   1.643 -0.4019 -0.6944 -2.1610
69963SOL    HW221869   3.746   0.667   1.694  0.7216 -0.7904  0.5188
69964SOL     OW21870   3.246   3.046   6.938  0.0383 -0.0746  0.1766
69964SOL    HW121871   3.186   3.120   6.944  2.0172  1.5328  1.3863
69964SOL    HW221872   3.250   3.011   7.027 -1.2476 -2.0118 -0.4751
69965SOL     OW21873   7.624  12.651   2.735 -0.5406 -0.1791 -0.3528
69965SOL    HW121874   7.630  12.700   2.652  1.4219 -1.8556 -1.3033
69965SOL    HW221875   7.701  12.594   2.734 -0.7345 -0.6127  2.4392
69966SOL     OW21876   1.528   0.939   4.090  0.2119 -0.2042 -0.0085
69966SOL    HW121877   1.493   0.853   4.067 -1.4936  0.3045  0.5397
69966SOL    HW221878   1.501   0.952   4.181 -0.4225  1.3033 -0.3712
69967SOL     OW21879   9.530  12.644   9.095 -0.0581 -0.1222  0.0017
69967SOL    HW121880   9.579  12.722   9.068  0.0298 -0.3944 -0.6283
69967SOL    HW221881   9.444  12.677   9.120 -0.2698  0.0910 -0.9791
69968SOL     OW21882   2.420   3.236   2.611 -0.1531  0.3561 -0.6833
69968SOL    HW121883   2.475   3.298   2.659  1.4281 -0.2864 -1.5940
69968SOL    HW221884   2.449   3.243   2.520 -1.1734 -0.4533 -1.0952
69969SOL     OW21885   4.630   1.912   2.454 -0.0684  0.2187  0.3748
69969SOL    HW121886   4.710   1.925   2.504  0.5475  0.6383 -0.6914
69969SOL    HW221887   4.633   1.820   2.427 -0.6725 -0.1647  1.5210
69970SOL     OW21888  13.702   9.897   4.462 -0.9276 -0.0655  0.5759
69970SOL    HW121889  13.709   9.801   4.461 -2.3781 -0.2018  0.6933
69970SOL    HW221890  13.677   9.918   4.552  2.7280  0.7824  1.5514
69971SOL     OW21891   6.374  10.315  13.499  0.1212  0.1419 -0.4495
69971SOL    HW121892   6.305  10.381  13.495 -0.7641 -0.7451 -0.2943
69971SOL    HW221893   6.425  10.338  13.577 -0.9622 -0.1003  0.3488
69972SOL     OW21894   8.937   2.170   6.512 -0.4310  0.1982 -0.0262
69972SOL    HW121895   8.972   2.222   6.585 -0.7724  2.3959 -1.3347
69972SOL    HW221896   9.006   2.174   6.445  0.2620 -2.5343  0.3967
69973SOL     OW21897   8.405   7.607  12.757  0.1982 -0.3627  0.1530
69973SOL    HW121898   8.403   7.702  12.766  1.6946 -0.2239 -0.7088
69973SOL    HW221899   8.492   7.588  12.722  0.5644 -2.1984  1.9021
69974SOL     OW21900   5.985   7.688  13.415 -0.0883  0.1791 -0.3630
69974SOL    HW121901   5.899   7.716  13.447 -0.0161  0.4103 -0.3685
69974SOL    HW221902   5.966   7.615  13.356 -0.1420 -1.0479  1.0936
69975SOL     OW21903   6.116   0.009   3.753 -0.0353 -0.4791 -0.0905
69975SOL    HW121904   6.158   0.090   3.725 -0.5945  0.0631  0.5764
69975SOL    HW221905   6.177  -0.029   3.816  0.3171 -0.6817 -0.5487
69976SOL     OW21906   0.043  11.255   8.066  0.0682  0.4554  0.2184
69976SOL    HW121907   0.014  11.326   8.009 -0.6278  0.2226  0.2590
69976SOL    HW221908  -0.037  11.228   8.112  0.8552  1.5091  2.3099
69977SOL     OW21909   0.527   4.897   1.582  0.1276 -0.6290 -0.3058
69977SOL    HW121910   0.481   4.823   1.544 -0.9896 -0.0619 -0.0988
69977SOL    HW221911   0.492   4.974   1.537  0.2992 -0.1178  0.4042
69978SOL     OW21912   5.268   9.422   4.484  0.2472  0.9309 -0.4983
69978SOL    HW121913   5.199   9.360   4.461  0.0675  1.6106 -1.9279
69978SOL    HW221914   5.275   9.479   4.407  2.9800  0.3769 -0.7695
69979SOL     OW21915   7.370   3.885   2.706  0.2038  0.7448 -0.2289
69979SOL    HW121916   7.382   3.791   2.721  0.0646  0.6284 -0.8196
69979SOL    HW221917   7.445   3.925   2.750 -0.0880  0.4135  0.5975
69980SOL     OW21918   8.049   5.390  12.054 -0.8045 -0.0322 -0.2770
69980SOL    HW121919   7.981   5.444  12.014 -0.3937  0.6205 -0.1051
69980SOL    HW221920   8.031   5.395  12.148 -0.7074 -0.1106 -0.2540
69981SOL     OW21921  12.521  11.934   5.554 -0.0192 -0.5287  0.1664
69981SOL    HW121922  12.520  11.865   5.621  0.2382  1.3273  2.1597
69981SOL    HW221923  12.529  11.886   5.471 -2.0769 -3.0109  1.2688
69982SOL     OW21924   6.548   4.586   8.386  0.0500 -0.2893 -0.2552
69982SOL    HW121925   6.493   4.661   8.408 -0.1706 -1.2516  3.0242
69982SOL    HW221926   6.622   4.623   8.339 -0.2614  1.9552  0.8919
69983SOL     OW21927   2.936   5.088  10.710 -0.4951  0.2145  0.2367
69983SOL    HW121928   2.948   4.998  10.742  0.6763 -0.1181 -0.9792
69983SOL    HW221929   2.922   5.077  10.616  1.4539  1.3517 -0.2501
69984SOL     OW21930   9.604   0.115   2.129  0.1731  0.1999  0.8106
69984SOL    HW121931   9.670   0.054   2.160 -0.1391 -1.8796 -2.0779
69984SOL    HW221932   9.533   0.108   2.193  1.1046 -0.6668  1.7933
69985SOL     OW21933   0.609  12.341  13.174  0.2984 -0.0058  0.5914
69985SOL    HW121934   0.582  12.347  13.082  1.1893 -0.4335  0.2882
69985SOL    HW221935   0.700  12.313  13.170  0.9503  1.8362  1.5549
69986SOL     OW21936   0.878  11.637  12.891  0.9585  0.5836 -0.7139
69986SOL    HW121937   0.972  11.644  12.911  0.8979  0.7388 -0.4775
69986SOL    HW221938   0.835  11.654  12.974  0.7289  0.0918 -0.7313
69987SOL     OW21939   0.367  12.528   3.673  0.4422  0.3593  0.3940
69987SOL    HW121940   0.373  12.538   3.768  0.8384 -0.1001  0.4186
69987SOL    HW221941   0.351  12.617   3.640  0.3519  0.5242  0.8832
69988SOL     OW21942  12.454   2.315   3.674  0.1519  0.3260 -0.0360
69988SOL    HW121943  12.513   2.373   3.723  0.9394 -0.3386 -0.1845
69988SOL    HW221944  12.512   2.253   3.630 -0.6493 -0.1987 -0.3718
69989SOL     OW21945   1.269  11.684  10.214  0.5154  0.4860 -0.6747
69989SOL    HW121946   1.225  11.647  10.290  0.2547  2.8459  0.3978
69989SOL    HW221947   1.336  11.619  10.191 -1.3856 -1.7123 -0.3940
69990SOL     OW21948   3.464   6.913   8.566 -0.0530  0.9331 -0.2996
69990SOL    HW121949   3.552   6.912   8.604 -0.2099  0.9781  0.0685
69990SOL    HW221950   3.476   6.948   8.478  0.1669  1.8200  0.0733
69991SOL     OW21951   2.147   7.118  13.478  0.1886 -0.3761 -0.1158
69991SOL    HW121952   2.097   7.152  13.553 -0.2294  0.6274 -0.8248
69991SOL    HW221953   2.096   7.145  13.402  0.5066 -1.5595 -0.7625
69992SOL     OW21954   4.439  13.432  11.636  0.9009 -0.4651 -0.0373
69992SOL    HW121955   4.430  13.390  11.551  0.6185  3.0760 -1.9322
69992SOL    HW221956   4.533  13.446  11.646  0.8398  0.1661 -0.3329
69993SOL     OW21957  13.026   2.404  13.320 -0.3672  1.2393  0.3325
69993SOL    HW121958  13.066   2.450  13.394 -0.4644 -1.8390  2.4820
69993SOL    HW221959  12.938   2.382  13.350 -0.4043 -0.0997 -0.6664
69994SOL     OW21960   4.367  12.474  10.840  0.1050  0.7256 -0.3941
69994SOL    HW121961   4.280  12.452  10.872  0.0599  1.8927  0.3443
69994SOL    HW221962   4.356  12.488  10.746 -0.6092  1.3370 -0.2281
69995SOL     OW21963   8.920  12.975   0.272  0.3765  0.0603 -0.5408
69995SOL    HW121964   9.006  12.978   0.314 -0.4434  1.7185  1.1686
69995SOL    HW221965   8.859  13.003   0.340 -1.5164 -0.7997 -1.7903
69996SOL     OW21966   5.132   8.514   3.902 -0.2058 -0.0524  0.2686
69996SOL    HW121967   5.210   8.561   3.876 -0.3731 -0.5248 -1.1743
69996SOL    HW221968   5.156   8.469   3.983  0.5324  0.9660  0.6329
69997SOL     OW21969   9.605   0.707  11.373 -0.1912  0.2165  0.1642
69997SOL    HW121970   9.537   0.639  11.375 -0.0723  0.1075  2.1401
69997SOL    HW221971   9.556   0.789  11.370 -0.4102  0.1116  0.6846
69998SOL     OW21972  12.419   1.793   9.652 -0.0485  0.3486  0.2710
69998SOL    HW121973  12.475   1.800   9.575 -0.4689  0.2934 -0.0433
69998SOL    HW221974  12.439   1.872   9.702  1.1954 -0.2632  0.7735
69999SOL     OW21975   3.717  10.432  10.969 -0.1249  0.3288 -0.5428
69999SOL    HW121976   3.721  10.358  11.029  2.0427 -0.0480 -1.0450
69999SOL    HW221977   3.703  10.392  10.883 -0.1431  0.5902 -0.6609
70000SOL     OW21978   9.498   3.782  13.974 -0.6179  0.0878  0.5072
70000SOL    HW121979   9.477   3.821  13.889 -1.3709 -0.8891  0.2235
70000SOL    HW221980   9.455   3.696  13.972 -0.4967 -0.0220  1.8059
70001SOL     OW21981   2.372   6.931   2.195 -0.7585 -0.0905  0.4187
70001SOL    HW121982   2.413   6.964   2.115 -2.2101  0.9755  0.0631
70001SOL    HW221983   2.286   6.899   2.166 -0.4634 -1.6929  1.2202
70002SOL     OW21984   7.826   8.247   9.018 -0.1335 -0.0816  0.2248
70002SOL    HW121985   7.786   8.240   8.932 -0.1852 -0.1734  0.2576
70002SOL    HW221986   7.762   8.209   9.078  0.5178 -1.3830  0.1327
70003SOL     OW21987  11.519  11.925  13.980 -0.5411  0.4938  0.1510
70003SOL    HW121988  11.588  11.991  13.993 -0.7354  0.3290  2.2309
70003SOL    HW221989  11.442  11.962  14.023 -0.3179 -1.6087  2.5790
70004SOL     OW21990   0.326   4.885   6.896 -0.1932 -0.3596 -0.6021
70004SOL    HW121991   0.363   4.878   6.808 -0.9384 -3.6520 -0.7999
70004SOL    HW221992   0.233   4.901   6.882  0.0228  1.3348 -0.2925
70005SOL     OW21993  12.441   3.739   4.637 -0.3536  0.3633  0.1280
70005SOL    HW121994  12.460   3.802   4.707 -0.8507  2.0972 -1.2191
70005SOL    HW221995  12.349   3.753   4.617 -0.1344  0.1538 -1.1046
70006SOL     OW21996   7.688   3.306   8.865  0.2436 -0.1226 -0.4804
70006SOL    HW121997   7.722   3.216   8.863  0.4161 -0.0882  0.3737
70006SOL    HW221998   7.615   3.302   8.927  1.6884  0.7827  1.3595
70007SOL     OW21999   4.177   9.851   9.822  0.2369 -0.0733 -0.1345
70007SOL    HW122000   4.203   9.758   9.818  0.6320  0.0384 -0.2146
70007SOL    HW222001   4.172   9.870   9.915  0.9513  0.0401 -0.1146
70008SOL     OW22002  11.445   3.386  13.600  0.1486  0.1466 -0.2711
70008SOL    HW122003  11.462   3.480  13.613 -1.5656  0.8915 -2.7471
70008SOL    HW222004  11.525   3.353  13.559  0.3617  0.7515 -0.3538
70009SOL     OW22005  13.725  11.281   2.538  0.2029  1.1047 -0.4645
70009SOL    HW122006  13.719  11.200   2.589 -1.1100  0.7847 -1.0867
70009SOL    HW222007  13.808  11.274   2.490  1.1448  1.1195  1.0873
70010SOL     OW22008  12.467   1.274   9.192 -0.0752  0.0622  0.4208
70010SOL    HW122009  12.495   1.361   9.163  0.1645  0.0259  0.5464
70010SOL    HW222010  12.430   1.288   9.279 -0.9742  0.2026  0.0254
70011SOL     OW22011   7.625   2.320   1.271  0.8096 -0.1997  0.2636
70011SOL    HW122012   7.531   2.329   1.254  0.9315  2.9049  0.6120
70011SOL    HW222013   7.664   2.308   1.185  0.2879  1.5295 -0.2534
70012SOL     OW22014  12.412  10.036   5.364 -0.4129  0.2061  0.0635
70012SOL    HW122015  12.392  10.115   5.415 -0.5259 -0.4990  1.1457
70012SOL    HW222016  12.406   9.964   5.427  2.9307 -0.3643 -0.0980
70013SOL     OW22017   9.169   7.662  11.754 -0.5809 -0.3213 -0.2808
70013SOL    HW122018   9.102   7.679  11.820  0.4534  0.1986  0.6690
70013SOL    HW222019   9.236   7.611  11.801  0.4967  0.6435 -0.7097
70014SOL     OW22020  13.170   4.656   2.016  0.3982  0.2648 -0.1502
70014SOL    HW122021  13.240   4.702   1.969  1.7749 -1.1887  0.4146
70014SOL    HW222022  13.162   4.572   1.972  0.5049 -0.4335  1.1154
70015SOL     OW22023   9.131  12.743   0.922 -0.1916  0.9678 -0.1842
70015SOL    HW122024   9.046  12.706   0.900 -1.1727  2.0888  1.4837
70015SOL    HW222025   9.161  12.785   0.842 -0.3051 -0.9910 -1.3246
70016SOL     OW22026   5.894  12.910  10.956 -0.1954 -0.0726 -0.2876
70016SOL    HW122027   5.897  12.907  10.860 -1.5216  0.9897 -0.3820
70016SOL    HW222028   5.910  12.819  10.982  0.8731 -0.2668 -1.4724
70017SOL     OW22029   4.456   2.392   1.867 -0.1017  0.2532  0.0020
70017SOL    HW122030   4.525   2.328   1.888 -0.5363 -0.2660 -0.1167
70017SOL    HW222031   4.493   2.476   1.891 -0.2650 -0.2213  2.1537
70018SOL     OW22032   4.958   4.023   2.420  0.2647 -0.5357 -0.1303
70018SOL    HW122033   5.017   4.012   2.346  1.1609  0.1243  0.4606
70018SOL    HW222034   4.983   4.107   2.458 -1.3268 -0.0559 -0.0933
70019SOL     OW22035   9.574   8.021  11.623 -0.0488 -0.4206 -0.0312
70019SOL    HW122036   9.670   8.017  11.626  0.0355  0.6698  3.3940
70019SOL    HW222037   9.546   7.961  11.693 -1.8871 -0.5699 -0.8516
70020SOL     OW22038   6.944  10.542   6.039 -0.4646 -0.5561  0.1524
70020SOL    HW122039   6.997  10.622   6.035  0.4114 -1.0586  1.1789
70020SOL    HW222040   6.870  10.560   5.981  0.7962  0.1851 -1.3128
70021SOL     OW22041   0.060  11.201  11.376  0.8401  0.3827 -0.2584
70021SOL    HW122042  -0.004  11.201  11.306 -0.0022  0.6757  0.4893
70021SOL    HW222043   0.108  11.119  11.365  1.4043  0.8811 -1.7657
70022SOL     OW22044   3.551   5.900   6.924 -0.2785  0.3006 -0.3560
70022SOL    HW122045   3.482   5.872   6.864  0.3077 -0.8009 -0.5520
70022SOL    HW222046   3.632   5.870   6.883  0.2132  0.4304  0.4906
70023SOL     OW22047   6.474   1.578   4.950  0.1442  0.8247  0.2555
70023SOL    HW122048   6.389   1.535   4.957  0.9319 -0.9008 -0.1986
70023SOL    HW222049   6.466   1.635   4.874 -0.7080  0.9696  0.4398
70024SOL     OW22050  12.184   4.959  11.205  0.3286 -0.1340  0.0452
70024SOL    HW122051  12.274   4.982  11.225  1.3240 -1.3511 -2.6332
70024SOL    HW222052  12.135   5.040  11.215  2.0784  1.0187 -0.3854
70025SOL     OW22053  13.071  13.094   2.571  0.2326 -0.0024  0.2979
70025SOL    HW122054  13.070  13.103   2.476  2.0544  0.2342  0.2698
70025SOL    HW222055  13.096  13.180   2.603  1.6521 -0.6042  0.8707
70026SOL     OW22056  13.122   0.733   5.466 -0.3041 -0.2369  0.2090
70026SOL    HW122057  13.095   0.823   5.483 -0.7541  0.1420 -2.1078
70026SOL    HW222058  13.162   0.736   5.379 -0.8448 -2.3747 -0.1742
70027SOL     OW22059   7.460   5.539   9.046 -0.3308 -0.6443  0.4118
70027SOL    HW122060   7.451   5.548   9.141 -2.0885 -3.2468  0.5879
70027SOL    HW222061   7.371   5.524   9.015 -0.2514  2.8927 -2.1308
70028SOL     OW22062  12.398  13.235   6.465 -0.2038  0.5073 -0.8366
70028SOL    HW122063  12.379  13.225   6.559 -0.9930  2.3036 -0.7528
70028SOL    HW222064  12.312  13.253   6.426  0.0428 -0.7758 -2.0043
70029SOL     OW22065  11.250   0.345   0.181 -0.4611  0.3992  0.6594
70029SOL    HW122066  11.238   0.250   0.180 -0.9074  0.4604  0.2616
70029SOL    HW222067  11.266   0.365   0.273 -5.6064  0.5728  1.7812
70030SOL     OW22068  10.128   8.850   8.197 -0.1722  0.3640 -0.7090
70030SOL    HW122069  10.209   8.814   8.233  0.9485  1.2132 -2.2214
70030SOL    HW222070  10.061   8.785   8.217  0.9563 -0.5478  0.2509
70031SOL     OW22071  12.175  13.882  12.994  0.0249 -0.4456  0.2473
70031SOL    HW122072  12.113  13.815  13.024 -1.2739  0.0571 -1.2192
70031SOL    HW222073  12.184  13.866  12.900  0.1661  1.0593 -0.0161
70032SOL     OW22074   7.243   0.021   7.267  0.6488  0.0215 -0.2817
70032SOL    HW122075   7.281   0.102   7.300 -2.1893  1.7518 -0.8955
70032SOL    HW222076   7.168   0.049   7.214 -1.4054 -3.0265  0.6865
70033SOL     OW22077  12.717   0.515   1.415  0.1367  0.3717  0.3495
70033SOL    HW122078  12.737   0.429   1.379 -1.1197 -1.1608  2.9673
70033SOL    HW222079  12.677   0.563   1.343  1.4775 -0.9560 -1.3682
70034SOL     OW22080  10.855   3.909  10.211 -0.1591 -0.1759  0.3252
70034SOL    HW122081  10.909   3.921  10.133  1.0083 -0.5954  1.0339
70034SOL    HW222082  10.888   3.972  10.274  0.0330 -0.9581  1.0338
70035SOL     OW22083   8.874   8.541   8.418 -0.1231  0.1482  0.1560
70035SOL    HW122084   8.865   8.454   8.457 -1.6797 -0.0345 -0.5477
70035SOL    HW222085   8.942   8.583   8.469 -0.5967 -0.8538  1.6659
70036SOL     OW22086   9.549   4.985   8.487  0.6918 -0.1678 -0.2356
70036SOL    HW122087   9.538   5.055   8.551  1.5487 -0.7347  0.5455
70036SOL    HW222088   9.637   4.998   8.451  1.5572 -1.8475  1.1817
70037SOL     OW22089  10.967   4.721  12.975  0.0183 -0.3985 -0.0417
70037SOL    HW122090  11.047   4.703  13.024  0.8052 -0.4340 -1.2809
70037SOL    HW222091  10.905   4.751  13.041  0.9055 -0.8123  1.0193
70038SOL     OW22092   1.709  12.218  12.751  0.2547 -0.4328 -0.0097
70038SOL    HW122093   1.748  12.173  12.676 -0.7490  0.3317 -1.0138
70038SOL    HW222094   1.784  12.248  12.802  1.0145  0.5300 -1.6089
70039SOL     OW22095   6.852  10.783   9.394  0.2639  0.0222  0.1848
70039SOL    HW122096   6.813  10.854   9.342  0.7849  0.9667  1.0536
70039SOL    HW222097   6.806  10.787   9.477  1.8848  0.8870  1.0858
70040SOL     OW22098  13.818   5.494   0.089 -0.0494 -0.2350  0.4055
70040SOL    HW122099  13.908   5.469   0.110 -0.2337 -0.4868  0.9086
70040SOL    HW222100  13.766   5.417   0.109  0.0300 -1.5107 -3.4871
70041SOL     OW22101   9.934  13.611  12.891 -0.1374 -0.1558  0.0953
70041SOL    HW122102   9.856  13.594  12.944  0.3167 -2.0049  0.2383
70041SOL    HW222103   9.931  13.704  12.873 -1.1514  0.2404  2.0505
70042SOL     OW22104  12.417   5.570   1.083  0.3542  0.2210  0.1053
70042SOL    HW122105  12.420   5.638   1.015 -1.5008 -0.8916 -1.1835
70042SOL    HW222106  12.470   5.499   1.048  1.1324  0.4396  0.8139
70043SOL     OW22107  11.861   6.344   3.225 -0.5835  0.5699 -0.0723
70043SOL    HW122108  11.862   6.280   3.296  0.9738  0.9238  0.2612
70043SOL    HW222109  11.772   6.341   3.192 -1.0582 -0.3853  1.1921
70044SOL     OW22110   4.273   1.100   2.282  0.1271  0.3922  0.5468
70044SOL    HW122111   4.321   1.104   2.364  1.2192 -0.9204  0.0043
70044SOL    HW222112   4.227   1.016   2.284 -1.6803  1.3230  0.7627
70045SOL     OW22113   7.086  11.004   4.709  0.1247  0.2504  0.3524
70045SOL    HW122114   7.063  11.094   4.730  0.2986  0.5199 -0.5628
70045SOL    HW222115   7.003  10.962   4.687 -0.3237 -0.5276  3.1982
70046SOL     OW22116   7.398  13.329  13.682  0.4840  0.2320  0.1951
70046SOL    HW122117   7.413  13.246  13.638  0.8538  0.0073  0.7385
70046SOL    HW222118   7.442  13.394  13.627  0.4545  0.0312 -0.0676
70047SOL     OW22119   4.897   1.811  13.437 -0.3837  0.0528 -0.1653
70047SOL    HW122120   4.880   1.876  13.369  0.1795  0.2591 -0.1183
70047SOL    HW222121   4.817   1.759  13.441 -1.2391  1.3715  0.4999
70048SOL     OW22122   4.951   6.756   1.277  0.0931  0.2826  1.0481
70048SOL    HW122123   4.905   6.777   1.358 -1.7776  4.5059 -0.8017
70048SOL    HW222124   4.957   6.839   1.230  0.0461 -2.0235 -3.6824
70049SOL     OW22125   0.913  12.752   9.299  0.1194 -0.2932  0.7633
70049SOL    HW122126   0.831  12.771   9.343  1.3944  1.5775  2.5229
70049SOL    HW222127   0.906  12.660   9.274 -1.4051 -0.9919  3.3551
70050SOL     OW22128   3.556   7.120   9.947 -0.6690 -0.5178 -0.1113
70050SOL    HW122129   3.640   7.118   9.900 -1.3164 -0.3647 -1.3063
70050SOL    HW222130   3.554   7.037   9.995 -0.1807 -0.8926 -0.7122
70051SOL     OW22131   0.006   8.677   2.068  0.2244  0.0073 -0.0329
70051SOL    HW122132  -0.066   8.680   2.006 -1.1000  2.1128  1.4463
70051SOL    HW222133   0.029   8.584   2.075 -0.4936 -0.4212 -2.5401
70052SOL     OW22134  11.113   4.475   6.391  0.0862  0.6382 -0.0289
70052SOL    HW122135  11.202   4.468   6.426  0.4742 -0.8609 -1.1819
70052SOL    HW222136  11.061   4.508   6.464  1.3442  0.2204  1.1038
70053SOL     OW22137   8.463  11.163   7.572  0.2575  0.2671  0.0752
70053SOL    HW122138   8.524  11.166   7.499  1.0256 -2.5058  0.5009
70053SOL    HW222139   8.518  11.177   7.650 -0.0122 -0.0087  0.3172
70054SOL     OW22140  13.337  13.405  10.464 -0.6819 -0.1768  0.3474
70054SOL    HW122141  13.346  13.436  10.555  0.2143 -1.4762  0.7277
70054SOL    HW222142  13.282  13.328  10.470  1.1294 -1.5446  0.1078
70055SOL     OW22143   7.847  13.359  10.453  0.1354  0.2901 -0.3078
70055SOL    HW122144   7.875  13.288  10.512  0.0974 -0.1042 -0.7614
70055SOL    HW222145   7.816  13.428  10.512 -0.1506 -0.2063  0.1294
70056SOL     OW22146   0.147   3.538   2.594 -0.6984 -0.3285 -0.4357
70056SOL    HW122147   0.152   3.631   2.612 -0.0461 -0.6059  0.9535
70056SOL    HW222148   0.064   3.510   2.634 -1.3003 -0.2241 -1.5592
70057SOL     OW22149   9.850  13.903  10.085  0.1014 -0.3203  0.2794
70057SOL    HW122150   9.836  13.856  10.003 -1.4038  0.4879  0.0265
70057SOL    HW222151   9.897  13.982  10.059  0.2568 -0.4066  0.2997
70058SOL     OW22152   6.593   1.662   8.113 -0.0129 -0.0186  0.0936
70058SOL    HW122153   6.580   1.641   8.021 -1.7467 -0.3022  0.3741
70058SOL    HW222154   6.552   1.748   8.123 -1.2837 -0.6821  0.9029
70059SOL     OW22155   3.434   1.806   8.531 -0.7689  0.2278 -0.4799
70059SOL    HW122156   3.511   1.810   8.473  0.4304  0.1859  1.0353
70059SOL    HW222157   3.418   1.897   8.556  0.1985  0.0517  0.9189
70060SOL     OW22158  12.747   9.089   9.899 -0.2508  0.2832 -0.5898
70060SOL    HW122159  12.767   9.070   9.808 -0.3911  0.6720 -0.7058
70060SOL    HW222160  12.806   9.034   9.950  0.0338  0.2878 -0.9191
70061SOL     OW22161   6.167  11.375  12.485 -0.1961 -0.0945  0.1084
70061SOL    HW122162   6.224  11.309  12.526  1.4252  0.6105 -0.9104
70061SOL    HW222163   6.117  11.411  12.558  2.2842  0.8148  1.4777
70062SOL     OW22164   9.081   9.030   3.803 -0.5033 -0.1875  0.4099
70062SOL    HW122165   9.172   9.055   3.787 -0.1083 -1.0173  1.2626
70062SOL    HW222166   9.032   9.111   3.791  0.5564  0.7009  1.7208
70063SOL     OW22167  13.824  11.150   3.415  0.1557 -0.0156  0.4455
70063SOL    HW122168  13.798  11.231   3.371 -0.9494 -0.5235  0.1020
70063SOL    HW222169  13.890  11.111   3.357 -0.1109  0.1171  0.0454
70064SOL     OW22170  13.334   8.463  10.017  0.2688 -0.2315 -0.4799
70064SOL    HW122171  13.372   8.522   9.952 -0.9258  0.1923 -0.8159
70064SOL    HW222172  13.386   8.382  10.010  2.4812  1.0123  0.5788
70065SOL     OW22173  12.246   2.524   1.008 -0.0347  0.3643  0.0037
70065SOL    HW122174  12.252   2.561   0.920 -0.6727  0.1379 -0.1402
70065SOL    HW222175  12.225   2.599   1.064 -2.3980  0.1157 -0.4325
70066SOL     OW22176   7.825  12.632   5.575  0.1050  0.1117 -0.5281
70066SOL    HW122177   7.905  12.680   5.595  0.5593 -1.0926  0.7110
70066SOL    HW222178   7.763  12.700   5.546  1.4826  1.0843 -1.3359
70067SOL     OW22179   5.263   2.324  13.247  0.0465 -0.4161  0.4841
70067SOL    HW122180   5.259   2.242  13.296  1.0937 -2.1395 -2.1197
70067SOL    HW222181   5.179   2.329  13.201  0.6906 -1.0717 -0.8225
70068SOL     OW22182   3.415   1.894   5.062  0.0486  0.4486  0.1240
70068SOL    HW122183   3.444   1.963   5.002  1.1545 -0.3290 -0.2612
70068SOL    HW222184   3.494   1.868   5.109 -0.4262 -0.3224  0.5214
70069SOL     OW22185   9.755  12.784  10.441  0.9487 -0.6200  0.8126
70069SOL    HW122186   9.709  12.823  10.366 -3.1826  0.0069  3.3487
70069SOL    HW222187   9.752  12.690  10.424  1.4942 -0.4205 -0.5044
70070SOL     OW22188  10.494   0.806   0.215 -0.4529  0.0747  0.0168
70070SOL    HW122189  10.441   0.881   0.189 -0.2177  1.3714  2.8888
70070SOL    HW222190  10.520   0.764   0.133 -2.8952  1.4938 -1.5725
70071SOL     OW22191   4.988   5.407   3.268 -0.3079 -0.0635  0.6315
70071SOL    HW122192   4.913   5.352   3.248 -0.6436  0.1650  1.2205
70071SOL    HW222193   4.954   5.496   3.265  0.5265  0.2253 -1.5984
70072SOL     OW22194  10.998   0.220   0.579 -0.2332  0.2612  0.0547
70072SOL    HW122195  10.906   0.246   0.579 -0.0751  0.8756 -0.6123
70072SOL    HW222196  11.019   0.204   0.671 -0.6743  1.3741  0.3668
70073SOL     OW22197   9.048   2.343  11.084 -0.0518 -0.3078 -0.0701
70073SOL    HW122198   8.970   2.287  11.088 -0.9387  0.8521 -0.4781
70073SOL    HW222199   9.025   2.420  11.136  0.7256  0.1626 -0.4055
70074SOL     OW22200  11.748  10.700   8.341  0.3597  0.2010 -0.3393
70074SOL    HW122201  11.820  10.637   8.338  0.5875  0.4867 -1.1420
70074SOL    HW222202  11.722  10.702   8.433  2.7434  1.6043  0.4024
70075SOL     OW22203   9.679   9.553  10.508 -0.2361 -0.0553 -0.4869
70075SOL    HW122204   9.597   9.507  10.527 -0.0158 -0.2889 -0.0908
70075SOL    HW222205   9.735   9.487  10.466  1.4887 -1.3571  3.4193
70076SOL     OW22206   7.633   8.673  13.129  0.4783 -0.6356 -0.2622
70076SOL    HW122207   7.646   8.633  13.215 -0.2903  1.1026  0.7138
70076SOL    HW222208   7.675   8.759  13.136  1.8234 -1.0937 -2.1854
70077SOL     OW22209   9.325   9.229   7.765 -0.2049  0.0763 -0.4799
70077SOL    HW122210   9.235   9.197   7.768  0.2178 -1.1207  1.0170
70077SOL    HW222211   9.378   9.152   7.788  1.0482  1.2264  0.6573
70078SOL     OW22212   1.333   8.954   1.146 -0.0717 -0.5131  0.3001
70078SOL    HW122213   1.390   9.017   1.101  0.7939 -0.3013  1.6545
70078SOL    HW222214   1.367   8.949   1.235 -0.5397 -2.4095  0.4184
70079SOL     OW22215   5.185   3.994  12.069 -0.0563 -0.2919  0.2725
70079SOL    HW122216   5.098   4.000  12.108  0.0201 -2.1588  0.8354
70079SOL    HW222217   5.245   4.015  12.141  0.0453 -2.7553  1.0081
70080SOL     OW22218   1.332   6.581   9.951 -0.3602 -0.1722  0.6157
70080SOL    HW122219   1.333   6.486   9.940 -0.8725 -0.0691 -0.4465
70080SOL    HW222220   1.251   6.600   9.997 -0.4061 -0.2220  0.5542
70081SOL     OW22221  10.203   3.407  10.298 -0.3781 -0.1367 -0.0981
70081SOL    HW122222  10.286   3.366  10.274 -0.1762  0.4894 -0.5113
70081SOL    HW222223  10.210   3.421  10.392 -0.4717 -1.0691  0.0576
70082SOL     OW22224   6.951  10.073  10.683  0.2997 -0.0523  0.3219
70082SOL    HW122225   6.929  10.145  10.742  0.1768 -0.7059  1.0905
70082SOL    HW222226   7.001  10.012  10.738  1.4217 -0.0147 -0.6149
70083SOL     OW22227   4.206   5.605   9.795  0.4030  0.7212  0.1330
70083SOL    HW122228   4.189   5.617   9.889  1.3376  0.0088  0.4132
70083SOL    HW222229   4.277   5.666   9.775  0.4036  0.6629 -0.0455
70084SOL     OW22230  12.940   8.562   9.812  0.1585 -0.2655  0.4002
70084SOL    HW122231  12.951   8.648   9.771  1.2911 -0.2483  0.6994
70084SOL    HW222232  12.914   8.581   9.901 -0.6125 -0.2633  0.1772
70085SOL     OW22233  10.084   5.232   2.881 -0.1695  0.0614  0.0815
70085SOL    HW122234  10.146   5.283   2.934 -0.3034 -1.7536  2.1060
70085SOL    HW222235  10.112   5.141   2.893 -0.6189 -0.4759 -2.5170
70086SOL     OW22236   4.103  12.126  13.480 -0.6305 -0.1144 -0.0512
70086SOL    HW122237   4.035  12.173  13.528 -1.3363 -1.6981  0.5620
70086SOL    HW222238   4.078  12.135  13.388 -1.9155 -0.9727  0.1830
70087SOL     OW22239  13.050   1.061   6.117  0.0469 -0.3121  0.3392
70087SOL    HW122240  12.983   1.053   6.185 -1.9253  3.6254 -0.8328
70087SOL    HW222241  13.007   1.033   6.037  0.8945 -0.7620  0.0280
70088SOL     OW22242   4.345   9.311   0.570  0.0159 -0.4177  0.3297
70088SOL    HW122243   4.290   9.390   0.566  0.4165 -0.1598 -0.0861
70088SOL    HW222244   4.309   9.262   0.644 -1.2616 -0.6197 -0.3950
70089SOL     OW22245  11.226  10.654   7.124  0.7986 -0.4625 -0.1089
70089SOL    HW122246  11.260  10.652   7.214  0.3002 -1.2240  0.0622
70089SOL    HW222247  11.291  10.605   7.073  0.5197 -0.9811  0.0305
70090SOL     OW22248   3.448   5.859   8.938 -0.1629  0.0583 -0.3155
70090SOL    HW122249   3.531   5.862   8.986  0.2501 -2.6036 -0.7372
70090SOL    HW222250   3.398   5.788   8.978 -1.1493 -0.1086 -1.7403
70091SOL     OW22251   0.775  12.027   3.347  0.2161  0.0591 -0.2404
70091SOL    HW122252   0.795  12.112   3.385 -1.7980  1.0366 -1.2026
70091SOL    HW222253   0.860  11.987   3.329  1.2070  2.1554 -0.4202
70092SOL     OW22254  12.655  13.688  13.548  0.0047  0.2150 -0.3542
70092SOL    HW122255  12.572  13.644  13.565  0.4184 -0.7935 -0.8649
70092SOL    HW222256  12.705  13.677  13.629  0.4103 -0.9707 -0.7573
70093SOL     OW22257   2.967   2.552  11.281  0.3941  0.2393 -0.4961
70093SOL    HW122258   3.020   2.509  11.348 -1.1337  0.6197  1.0169
70093SOL    HW222259   2.927   2.480  11.233 -0.0066 -0.0490  0.2536
70094SOL     OW22260   5.597   0.564   3.335  0.2922  0.0810  0.7046
70094SOL    HW122261   5.563   0.557   3.424  0.5827  2.2374  1.0314
70094SOL    HW222262   5.690   0.586   3.346  1.0159 -2.1905 -0.1783
70095SOL     OW22263   3.881   0.525   3.486 -0.3345 -0.3134  0.9201
70095SOL    HW122264   3.865   0.431   3.492 -0.3208 -0.3958 -0.1373
70095SOL    HW222265   3.973   0.532   3.459 -0.6229 -0.0326 -0.0304
70096SOL     OW22266   0.526   9.372   0.379  0.0194  0.7930 -0.3613
70096SOL    HW122267   0.440   9.336   0.401  0.5459 -0.5346 -0.3355
70096SOL    HW222268   0.532   9.365   0.284  0.5547 -0.2993 -0.2710
70097SOL     OW22269  13.387   7.653   3.590  0.1074 -0.1561  1.0847
70097SOL    HW122270  13.327   7.580   3.576  0.4336 -0.3017  0.3726
70097SOL    HW222271  13.449   7.621   3.655 -0.6584  0.0480  1.9368
70098SOL     OW22272   2.965   5.103   6.054 -0.6206 -0.6172 -0.0280
70098SOL    HW122273   2.973   5.096   5.959 -0.4335 -0.0474 -0.0562
70098SOL    HW222274   2.972   5.013   6.085  1.0334 -0.6487 -0.4305
70099SOL     OW22275   9.513   0.598   4.226 -0.0710  0.1110  0.0739
70099SOL    HW122276   9.481   0.654   4.297 -0.9173  1.2756 -1.1693
70099SOL    HW222277   9.608   0.602   4.233 -0.0069 -2.4813  3.1374
70100SOL     OW22278   8.157   2.322   7.073 -0.0958 -0.3147  0.6545
70100SOL    HW122279   8.175   2.402   7.025 -2.5408  0.8069  1.4338
70100SOL    HW222280   8.130   2.259   7.007 -0.3130  0.2114  0.2398
70101SOL     OW22281  11.164  10.376  12.551 -0.2098 -0.4872  0.3948
70101SOL    HW122282  11.218  10.312  12.598  1.2995  0.1949 -0.3795
70101SOL    HW222283  11.182  10.459  12.595  1.1128  0.1372 -1.2531
70102SOL     OW22284   6.932   8.602   2.404 -0.1960 -0.2628 -0.3687
70102SOL    HW122285   6.935   8.523   2.458  2.6410 -1.0052 -1.4338
70102SOL    HW222286   6.863   8.584   2.339 -0.2236 -1.4653 -0.0232
70103SOL     OW22287  10.592  10.269   9.758 -0.3388 -0.0183 -0.0790
70103SOL    HW122288  10.528  10.318   9.706  0.4201  0.2919 -0.7538
70103SOL    HW222289  10.598  10.316   9.841  1.3409  1.8991 -1.1764
70104SOL     OW22290  12.910  12.783  13.466 -0.0183  0.3110  0.6833
70104SOL    HW122291  12.881  12.694  13.483  0.0405 -0.2832 -1.8941
70104SOL    HW222292  13.006  12.778  13.468 -0.0112  0.2452  0.3239
70105SOL     OW22293   1.064   1.337   3.082 -0.0599  0.3327  0.1266
70105SOL    HW122294   1.076   1.246   3.056  2.1597  0.5874  0.0645
70105SOL    HW222295   0.969   1.348   3.088 -0.3822 -2.3968  1.7155
70106SOL     OW22296   8.130   0.348   5.245  0.1147 -0.1789  0.0855
70106SOL    HW122297   8.152   0.419   5.305 -1.1138  1.3601 -1.2152
70106SOL    HW222298   8.056   0.381   5.194  0.9681 -1.4813 -2.1438
70107SOL     OW22299  13.451  11.536  10.075  0.0337  0.3490 -0.4353
70107SOL    HW122300  13.496  11.524  10.158 -1.1784 -1.6718  0.0061
70107SOL    HW222301  13.444  11.631  10.064  2.0731  0.6784  0.6977
70108SOL     OW22302   2.631  10.583   3.549 -0.1532  0.5456 -0.1330
70108SOL    HW122303   2.625  10.636   3.628  0.7041 -0.2233  0.4802
70108SOL    HW222304   2.632  10.646   3.477  0.0094  1.3054  0.5224
70109SOL     OW22305   9.086  10.145   2.431 -0.0398  0.3007  0.0172
70109SOL    HW122306   9.051  10.165   2.344  1.6401 -1.5550 -1.1814
70109SOL    HW222307   9.014  10.101   2.476 -0.0194 -1.5816 -1.6405
70110SOL     OW22308   9.718   1.437  10.324 -0.4359 -0.0423  0.4621
70110SOL    HW122309   9.664   1.370  10.365 -0.2005  0.3027  1.3571
70110SOL    HW222310   9.664   1.469  10.250 -0.4479 -1.3494 -0.1148
70111SOL     OW22311  10.723   5.061   8.022  0.3775 -1.0375  0.5038
70111SOL    HW122312  10.673   4.980   8.010 -0.3410 -0.4552 -0.6458
70111SOL    HW222313  10.802   5.034   8.070 -1.3355 -1.8572  3.0280
70112SOL     OW22314   1.434   2.024   7.950  0.1217  0.3280  0.1153
70112SOL    HW122315   1.510   1.983   7.909 -0.2221 -0.8748  0.6495
70112SOL    HW222316   1.366   2.020   7.883  0.6729  1.9814 -0.5958
70113SOL     OW22317   9.929   6.655   2.043  0.7189 -0.3765  0.2929
70113SOL    HW122318  10.006   6.599   2.035  0.4841 -0.4209 -3.0660
70113SOL    HW222319   9.941   6.723   1.977 -1.5892  0.2794  0.4447
70114SOL     OW22320  11.003   1.147  13.914  0.2757  0.4767 -0.6293
70114SOL    HW122321  11.009   1.067  13.862 -1.1481  0.4643 -0.8190
70114SOL    HW222322  10.945   1.125  13.987 -0.7455  1.5211 -1.0908
70115SOL     OW22323   7.555   8.434   2.616  0.6934  0.0555  0.3000
70115SOL    HW122324   7.544   8.393   2.701 -0.2248 -1.7125 -0.6020
70115SOL    HW222325   7.523   8.369   2.554  0.9068  1.4627 -1.3745
70116SOL     OW22326   0.836   1.199   7.233 -0.0212 -0.0657 -0.4870
70116SOL    HW122327   0.872   1.134   7.293 -0.8971  0.0070  0.1536
70116SOL    HW222328   0.889   1.278   7.247 -0.8274  0.2571  0.9519
70117SOL     OW22329   8.693   5.532  12.605 -0.1074  0.4678  0.8233
70117SOL    HW122330   8.640   5.453  12.598  0.7728  0.0060 -2.5713
70117SOL    HW222331   8.776   5.503  12.643  0.8176 -0.7279 -1.8549
70118SOL     OW22332  13.624   5.167   2.910 -0.0476 -0.1101 -0.6912
70118SOL    HW122333  13.560   5.232   2.880 -0.3684  0.0048  0.2057
70118SOL    HW222334  13.576   5.114   2.973  1.2035  1.1576  1.4415
70119SOL     OW22335   2.714  11.439   5.062 -0.2379  0.1749 -0.5572
70119SOL    HW122336   2.721  11.532   5.080 -0.8818  0.0626  0.3050
70119SOL    HW222337   2.664  11.434   4.980 -1.2495  0.5623  0.0209
70120SOL     OW22338   0.061  11.508   6.522 -0.1409  0.0639 -0.5685
70120SOL    HW122339   0.056  11.457   6.441 -1.2055 -0.1475 -0.3766
70120SOL    HW222340   0.042  11.598   6.495 -1.3838 -0.1447 -0.4272
70121SOL     OW22341   9.995   9.042  11.933  0.7193  0.7320 -0.2644
70121SOL    HW122342   9.961   9.112  11.877  0.6708 -0.0009 -1.1733
70121SOL    HW222343  10.007   8.968  11.874  0.7997 -0.0224  0.6757
70122SOL     OW22344  11.603   9.190   4.423 -0.2225  0.0330 -0.1648
70122SOL    HW122345  11.552   9.213   4.500  1.3915  0.0439  0.9635
70122SOL    HW222346  11.560   9.236   4.351 -1.5492  0.3245  0.7766
70123SOL     OW22347  10.315  13.241   8.452 -0.4704 -0.2568 -0.1336
70123SOL    HW122348  10.305  13.325   8.496 -0.3845 -0.6862  0.7246
70123SOL    HW222349  10.403  13.243   8.414 -1.0290  0.6500 -1.4818
70124SOL     OW22350  11.129  10.211   9.925  0.4769 -0.5271 -0.3387
70124SOL    HW122351  11.086  10.291   9.896 -1.5875 -1.3265  0.3743
70124SOL    HW222352  11.193  10.240   9.991 -1.7925  0.4119  1.5969
70125SOL     OW22353  12.492  12.082   0.361 -0.4810  0.3473 -0.0851
70125SOL    HW122354  12.475  12.164   0.314  0.8486  1.1666  0.7910
70125SOL    HW222355  12.581  12.057   0.333 -0.5849 -0.4108  0.2325
70126SOL     OW22356   3.819   3.015   5.054  0.0417 -0.0928 -0.2929
70126SOL    HW122357   3.727   3.030   5.076 -0.6913 -2.4815 -1.4030
70126SOL    HW222358   3.843   2.936   5.103  0.6530 -1.0773 -2.0864
70127SOL     OW22359   5.861  13.732   3.484  0.4554 -0.3764  0.4080
70127SOL    HW122360   5.846  13.751   3.577 -3.5813  2.2728 -0.5170
70127SOL    HW222361   5.799  13.662   3.464 -0.2897  0.5265 -0.6043
70128SOL     OW22362   0.315   9.319   2.019 -0.0396 -0.5374 -0.1398
70128SOL    HW122363   0.400   9.348   1.985  0.3400 -1.0530  0.3365
70128SOL    HW222364   0.261   9.398   2.020  0.7443  0.0142  0.4565
70129SOL     OW22365   6.040  10.712   6.927  0.6977 -0.1153  0.1308
70129SOL    HW122366   5.957  10.697   6.881  1.4350 -0.9824 -0.9710
70129SOL    HW222367   6.019  10.698   7.020  0.0358 -2.3899 -0.3040
70130SOL     OW22368  12.688   4.574   1.043  0.3528  0.3325 -0.0064
70130SOL    HW122369  12.764   4.559   0.987 -0.5386 -0.3949 -1.0756
70130SOL    HW222370  12.614   4.541   0.992 -0.5994  0.3853  1.2861
70131SOL     OW22371   8.532   8.447  13.860 -0.1380  0.0321 -1.1580
70131SOL    HW122372   8.572   8.529  13.890 -0.6324  0.2840 -1.1821
70131SOL    HW222373   8.439   8.457  13.879 -0.2946 -0.2612 -1.7493
70132SOL     OW22374   7.361   1.328   3.206 -0.3852  0.0666 -0.6198
70132SOL    HW122375   7.425   1.349   3.274 -1.2331 -0.5980  0.3911
70132SOL    HW222376   7.415   1.299   3.132  0.4809 -1.2245  0.4593
70133SOL     OW22377   2.120   0.658  11.679  0.4105 -0.2196 -0.2486
70133SOL    HW122378   2.057   0.692  11.743  1.3223 -0.2679  0.7018
70133SOL    HW222379   2.069   0.601  11.623 -0.7953  1.2853 -0.7404
70134SOL     OW22380   2.629  11.327   2.233  0.3813  0.0791  0.3259
70134SOL    HW122381   2.723  11.346   2.236  0.1301  1.4045  2.3529
70134SOL    HW222382   2.593  11.373   2.309 -1.6954 -1.6658  0.5062
70135SOL     OW22383   7.390   6.521   7.882 -0.1747 -0.6590 -0.1645
70135SOL    HW122384   7.384   6.480   7.795  0.5351  0.1646 -0.6191
70135SOL    HW222385   7.333   6.467   7.938 -2.5143  0.1244 -1.6338
70136SOL     OW22386   5.393   4.662   0.152  0.0693  0.2077  0.3299
70136SOL    HW122387   5.453   4.736   0.153 -0.1192  0.3714 -0.1098
70136SOL    HW222388   5.435   4.596   0.208  1.1622 -0.0701 -0.7605
70137SOL     OW22389   5.591   2.080  11.601  0.0535 -0.2727 -1.0683
70137SOL    HW122390   5.514   2.043  11.558 -0.3472 -1.0025  0.2324
70137SOL    HW222391   5.556   2.145  11.662  0.5733  0.3801 -1.4546
70138SOL     OW22392   4.246   5.366   9.675  0.3287 -0.1894 -0.9388
70138SOL    HW122393   4.254   5.448   9.722  0.7907 -0.5287 -0.4162
70138SOL    HW222394   4.286   5.301   9.733  0.6858 -0.6530 -1.6969
70139SOL     OW22395  13.606  12.337  10.713 -0.3574  0.2292 -0.4490
70139SOL    HW122396  13.573  12.412  10.763  1.3107  1.3254 -0.8956
70139SOL    HW222397  13.540  12.269  10.726 -0.2443  0.5668  2.9178
70140SOL     OW22398   8.244   3.742   1.963  0.0779  0.0817  0.3866
70140SOL    HW122399   8.243   3.836   1.945  1.1783  0.5245  2.2852
70140SOL    HW222400   8.167   3.728   2.019 -0.5049 -0.2984 -0.5040
70141SOL     OW22401   5.419   8.462   6.470 -0.3044 -0.2058 -1.0245
70141SOL    HW122402   5.444   8.386   6.418 -1.0959 -1.5870  0.5364
70141SOL    HW222403   5.455   8.445   6.557 -0.6674  1.1178 -0.5847
70142SOL     OW22404   1.645   3.044   7.783 -0.2688 -0.1386  0.4028
70142SOL    HW122405   1.662   2.965   7.835 -3.1220 -1.1999 -0.0921
70142SOL    HW222406   1.590   3.013   7.711 -1.6301  2.3045  0.2928
70143SOL     OW22407   6.986  12.354  12.384  0.3608  0.5998  0.1768
70143SOL    HW122408   6.922  12.284  12.396  0.4113  0.2707 -1.2542
70143SOL    HW222409   6.995  12.394  12.470 -1.0384  0.0253  0.6170
70144SOL     OW22410   2.265   5.279  11.333 -0.0052  0.3259  0.0496
70144SOL    HW122411   2.351   5.240  11.314  0.8100  1.6511  0.8134
70144SOL    HW222412   2.209   5.205  11.355  0.9709 -0.5630 -0.3687
70145SOL     OW22413   3.411   1.067   2.667 -0.1574  0.1281  0.1181
70145SOL    HW122414   3.433   1.114   2.587  1.1985  0.9001  0.9067
70145SOL    HW222415   3.446   0.979   2.655 -0.2072  0.1605 -0.2526
70146SOL     OW22416   5.721   3.237   8.768 -0.3108  0.1641 -0.1852
70146SOL    HW122417   5.754   3.327   8.761 -1.2212  0.5466  0.2036
70146SOL    HW222418   5.682   3.234   8.856 -1.0516 -0.3460 -0.5269
70147SOL     OW22419  11.809   9.017   5.262 -0.2283 -0.2883 -0.3009
70147SOL    HW122420  11.746   9.070   5.213  0.5946  0.7967 -0.2328
70147SOL    HW222421  11.894   9.048   5.233  0.2834 -1.2559  0.1116
70148SOL     OW22422  10.213   5.127   8.779  0.0955 -0.1434 -0.2057
70148SOL    HW122423  10.204   5.198   8.716  1.5930 -0.3719 -0.7244
70148SOL    HW222424  10.308   5.113   8.785 -0.1500 -1.7774  0.2401
70149SOL     OW22425   0.303  11.688   0.594 -0.0862  0.0345 -0.0963
70149SOL    HW122426   0.208  11.684   0.586 -0.1030 -0.1923  0.1925
70149SOL    HW222427   0.331  11.596   0.599  0.0298  0.1208  1.1111
70150SOL     OW22428   2.222   7.553   7.524 -0.1149  0.4633 -0.0816
70150SOL    HW122429   2.188   7.638   7.552 -0.9267  0.0449  0.2210
70150SOL    HW222430   2.186   7.491   7.586  1.2292 -0.0059  0.2704
70151SOL     OW22431   1.697  13.651  11.528 -0.6334  0.4665  0.0623
70151SOL    HW122432   1.648  13.614  11.601  0.8957  0.6777  1.2415
70151SOL    HW222433   1.716  13.576  11.471 -2.8690  0.4853 -0.8086
70152SOL     OW22434  11.538   7.881   9.693 -0.0190 -0.4677 -0.7501
70152SOL    HW122435  11.551   7.902   9.786 -2.5080 -0.0860 -0.4132
70152SOL    HW222436  11.527   7.786   9.692 -0.3113 -0.4380 -0.5931
70153SOL     OW22437   4.883   3.138   5.170  0.4971 -0.1007 -0.3052
70153SOL    HW122438   4.879   3.233   5.181  0.1404 -0.0418 -0.8701
70153SOL    HW222439   4.902   3.104   5.257 -0.4913  0.4188  0.1250
70154SOL     OW22440  13.634  11.042   7.783  0.3805 -0.3963  0.1063
70154SOL    HW122441  13.643  10.947   7.774 -2.3802 -0.7409  0.0421
70154SOL    HW222442  13.660  11.077   7.698 -2.8960 -1.5711 -1.5602
70155SOL     OW22443   7.218  12.284  12.570 -0.3881 -0.2493 -0.1890
70155SOL    HW122444   7.178  12.199  12.554 -1.2197  0.0605  0.1808
70155SOL    HW222445   7.301  12.281  12.523 -0.1668 -1.4524  0.2478
70156SOL     OW22446   9.204  13.968   2.432 -0.4129  0.1301 -0.1709
70156SOL    HW122447   9.150  13.993   2.507 -0.9532  3.1076 -1.4071
70156SOL    HW222448   9.150  13.987   2.355  2.2802  3.6540 -1.5136
70157SOL     OW22449   2.572  11.220   3.103  0.2666 -0.2014  0.2794
70157SOL    HW122450   2.595  11.274   3.179 -1.3531 -0.5279  1.0485
70157SOL    HW222451   2.624  11.140   3.115 -1.5920 -1.2216  2.3559
70158SOL     OW22452   3.131  11.739   0.823  0.7086  0.4448 -0.7236
70158SOL    HW122453   3.121  11.833   0.806  0.9356  0.8958  1.3049
70158SOL    HW222454   3.131  11.698   0.737 -1.1252  2.1362 -1.5981
70159SOL     OW22455   6.206   8.133   0.782 -0.3106  0.3512 -0.8091
70159SOL    HW122456   6.252   8.096   0.858  0.6953  1.5676 -0.7912
70159SOL    HW222457   6.223   8.227   0.787  1.2145  0.3238 -3.4218
70160SOL     OW22458   4.257   2.473   5.261  0.8616 -0.1644 -0.1415
70160SOL    HW122459   4.324   2.503   5.323  1.4256  0.7053 -1.1408
70160SOL    HW222460   4.287   2.386   5.234  0.9067 -0.3139  0.3673
70161SOL     OW22461   9.637   5.800  10.723  0.1707 -0.0565 -0.0523
70161SOL    HW122462   9.664   5.880  10.768  2.5549 -0.0981 -1.2550
70161SOL    HW222463   9.604   5.830  10.638 -0.5569 -0.2629  0.1461
70162SOL     OW22464  12.073  13.826   2.093  0.0268  0.2300  0.1852
70162SOL    HW122465  12.086  13.893   2.159  1.1046  0.1300  0.0884
70162SOL    HW222466  12.076  13.873   2.010 -1.8436  0.4368  0.1838
70163SOL     OW22467   5.386  11.561   4.616 -0.2398 -0.5569 -0.2913
70163SOL    HW122468   5.343  11.476   4.611 -0.0131 -0.7398  0.6547
70163SOL    HW222469   5.478  11.542   4.596 -0.2970 -0.4267 -0.6949
70164SOL     OW22470   0.357  10.923   6.290  0.3781 -0.8444  0.3033
70164SOL    HW122471   0.396  10.926   6.378 -0.7122  0.2933  0.7795
70164SOL    HW222472   0.281  10.980   6.296  1.0413  0.3343 -1.7917
70165SOL     OW22473   7.451  12.629   2.939 -0.1106 -0.4243  0.5886
70165SOL    HW122474   7.499  12.595   2.863 -0.2918 -0.9525  0.7081
70165SOL    HW222475   7.427  12.718   2.914  0.4709 -0.3343  0.3157
70166SOL     OW22476   2.293   7.823   1.426  0.2534 -0.1121  0.1872
70166SOL    HW122477   2.238   7.869   1.363  2.0427  0.2747 -1.1670
70166SOL    HW222478   2.232   7.764   1.472 -1.4184  0.9188 -0.6053
70167SOL     OW22479   2.096   8.349   7.873 -0.0269  0.2971  0.2489
70167SOL    HW122480   2.101   8.258   7.845 -0.4882 -0.1740  1.6224
70167SOL    HW222481   2.183   8.385   7.855  0.2676 -0.5094  0.0392
70168SOL     OW22482   0.698   6.995   3.274  0.1490 -0.7721 -0.0141
70168SOL    HW122483   0.762   7.051   3.232 -0.2901 -0.2710 -0.0241
70168SOL    HW222484   0.652   7.052   3.336 -0.0926 -1.1881  0.1967
70169SOL     OW22485   2.746   1.577  13.444  0.6917  0.0707 -0.4237
70169SOL    HW122486   2.715   1.655  13.490  1.2885  0.6134 -0.9230
70169SOL    HW222487   2.668   1.521  13.437  0.5466  0.0378  1.0801
70170SOL     OW22488   5.495   8.128  10.128  0.0200 -0.9617 -0.1565
70170SOL    HW122489   5.410   8.100  10.161  0.3919 -1.0248  0.7705
70170SOL    HW222490   5.538   8.168  10.203  0.2734  0.3354 -0.9767
70171SOL     OW22491  12.318   3.437   5.875  0.7468  1.1576 -0.7002
70171SOL    HW122492  12.235   3.483   5.864  0.2081  0.2171 -0.6862
70171SOL    HW222493  12.343   3.411   5.787  1.8479  2.7720 -0.9155
70172SOL     OW22494   2.846   5.572  13.740 -0.0768 -0.8601 -0.3335
70172SOL    HW122495   2.829   5.482  13.711 -0.1499 -1.5791  1.8113
70172SOL    HW222496   2.768   5.620  13.713 -1.5323 -2.1659  1.2802
70173SOL     OW22497   8.049   5.931   4.386 -0.1055 -0.1093 -0.3857
70173SOL    HW122498   8.098   5.853   4.361 -1.3297 -1.2995  0.7765
70173SOL    HW222499   8.023   5.915   4.476 -0.3503  1.6905 -0.0910
70174SOL     OW22500   0.145  10.879  13.328  0.0058 -0.0177  0.0424
70174SOL    HW122501   0.152  10.794  13.371  2.5663  0.6124  1.0910
70174SOL    HW222502   0.155  10.861  13.235 -2.0403 -1.0533 -0.0322
70175SOL     OW22503   3.879   9.722  13.221  0.1050  0.2362 -0.0755
70175SOL    HW122504   3.820   9.792  13.248 -0.4243  0.3762 -1.4989
70175SOL    HW222505   3.956   9.733  13.277 -0.4049  1.2901  0.4511
70176SOL     OW22506   0.356   7.161  13.586  0.0860  0.0097  0.1146
70176SOL    HW122507   0.364   7.256  13.598 -1.0191  0.2122 -0.5633
70176SOL    HW222508   0.415   7.141  13.514  0.5453  0.1321  0.4550
70177SOL     OW22509   5.550   1.505  12.903  0.4940 -0.0580  0.3459
70177SOL    HW122510   5.551   1.569  12.974 -0.1378  0.0018  0.3032
70177SOL    HW222511   5.557   1.558  12.824  2.1829 -0.1738  0.3713
70178SOL     OW22512   7.926   5.839  12.012  0.0127  0.1651 -0.4093
70178SOL    HW122513   7.868   5.914  12.000  0.7061  0.6489 -0.8413
70178SOL    HW222514   8.001   5.858  11.955  0.8290 -0.1980  0.5203
70179SOL     OW22515   8.098   5.637   2.254  0.1437 -0.5013  0.9389
70179SOL    HW122516   8.012   5.648   2.294  0.4200 -0.1723  1.4729
70179SOL    HW222517   8.152   5.599   2.324 -0.3654 -3.8893 -0.3536
70180SOL     OW22518  12.899  13.754   2.805 -0.4781 -0.3422 -0.3390
70180SOL    HW122519  12.956  13.814   2.853 -0.0243  0.3503 -1.7046
70180SOL    HW222520  12.851  13.707   2.874  0.0737  0.6814  0.7835
70181SOL     OW22521   6.707   4.050  11.402 -0.0293  0.8220  0.7020
70181SOL    HW122522   6.625   4.068  11.447 -0.5412 -0.8976  0.4978
70181SOL    HW222523   6.721   4.126  11.346 -1.6262  1.0042  0.5263
70182SOL     OW22524   9.318   8.273   5.445 -0.6320  0.0036  0.2906
70182SOL    HW122525   9.224   8.258   5.439 -0.6998  0.9601 -1.7727
70182SOL    HW222526   9.358   8.187   5.431 -1.1633 -0.4156  1.2422
70183SOL     OW22527  11.146   7.862   9.843  0.0527 -0.2385  0.1534
70183SOL    HW122528  11.111   7.775   9.824  0.4432 -0.4891  0.5467
70183SOL    HW222529  11.225   7.845   9.895  1.8961  0.2175 -2.3404
70184SOL     OW22530   6.417  12.750  12.569  0.0132 -0.4820  0.0763
70184SOL    HW122531   6.350  12.807  12.533 -0.1533 -1.0859 -0.5957
70184SOL    HW222532   6.499  12.798  12.557 -0.1130 -0.4217 -0.5563
70185SOL     OW22533   3.697  13.605   6.928  0.5334  0.2664  0.6330
70185SOL    HW122534   3.696  13.510   6.935  0.9866  0.3152  1.4890
70185SOL    HW222535   3.661  13.636   7.012 -1.8280  0.8371 -0.5190
70186SOL     OW22536   7.558   7.744  11.682  0.5573  0.1764  0.3557
70186SOL    HW122537   7.586   7.671  11.738  1.1668  0.1137 -0.0173
70186SOL    HW222538   7.463   7.744  11.689  0.5971 -0.1498  0.9930
70187SOL     OW22539  10.301  12.859  10.458  0.5403  0.4745 -0.3174
70187SOL    HW122540  10.270  12.942  10.495  0.8171 -0.6180  2.5705
70187SOL    HW222541  10.239  12.840  10.387  0.0169  2.7180 -0.5389
70188SOL     OW22542   7.187  13.851   2.162 -0.4274  0.2417 -0.1189
70188SOL    HW122543   7.179  13.945   2.178 -0.5373  0.2232 -0.0643
70188SOL    HW222544   7.204  13.814   2.248 -1.5089  0.0900  0.0405
70189SOL     OW22545   2.304   7.796   6.728 -0.0532  0.2208 -0.3316
70189SOL    HW122546   2.257   7.726   6.683  1.4942 -1.7787  0.9592
70189SOL    HW222547   2.383   7.753   6.761  0.5286  2.3992  1.2841
70190SOL     OW22548   5.890  13.077   9.640  0.6589 -0.6994 -0.1007
70190SOL    HW122549   5.857  13.000   9.686 -0.9015  0.6562  1.1421
70190SOL    HW222550   5.831  13.086   9.565  1.3000 -1.1158 -0.6669
70191SOL     OW22551   8.650  11.684   7.482 -0.5085 -0.5737  0.0216
70191SOL    HW122552   8.670  11.638   7.400 -0.2412 -0.4642  0.0249
70191SOL    HW222553   8.654  11.615   7.549 -2.3211 -0.9960 -0.2427
70192SOL     OW22554   6.012  13.014   5.199  0.4689  0.1066  0.1881
70192SOL    HW122555   5.955  12.950   5.242  0.8904 -2.3443 -2.6081
70192SOL    HW222556   5.965  13.038   5.119  1.7858  0.8173 -0.4090
70193SOL     OW22557   6.217   1.661   9.031 -0.2014  0.2721 -0.2319
70193SOL    HW122558   6.162   1.593   9.069  1.3597  0.4190  2.5029
70193SOL    HW222559   6.305   1.626   9.036  0.4949  1.9855  0.0489
70194SOL     OW22560   4.495  11.535   6.827 -0.1303 -0.0577  0.2243
70194SOL    HW122561   4.413  11.567   6.788  0.2912 -0.3192 -0.9381
70194SOL    HW222562   4.564  11.580   6.778  0.4360  0.6286  1.6091
70195SOL     OW22563  12.765   7.807   8.436  0.1621 -0.6027  0.4050
70195SOL    HW122564  12.860   7.814   8.422  0.1726 -1.3261  0.0616
70195SOL    HW222565  12.736   7.743   8.371 -0.6516 -0.0075  0.1669
70196SOL     OW22566  13.791  12.664  11.999 -0.2231  0.4789 -0.1263
70196SOL    HW122567  13.746  12.665  12.083 -2.9349 -0.5955 -1.4606
70196SOL    HW222568  13.778  12.753  11.964  1.9304  1.3111  0.9921
70197SOL     OW22569  12.947  12.757   4.971  0.3455 -0.0475 -0.4310
70197SOL    HW122570  12.859  12.794   4.981  0.4080  0.1675 -0.6451
70197SOL    HW222571  12.932  12.665   4.952  0.1563  0.0344 -0.6953
70198SOL     OW22572   7.164   8.281  10.203  0.2988 -0.3046  0.6537
70198SOL    HW122573   7.197   8.241  10.283 -2.2095 -2.0660  0.9242
70198SOL    HW222574   7.098   8.344  10.233  2.3680  2.3011  0.0852
70199SOL     OW22575   9.814   4.970   5.341  0.1657 -0.3762  0.2668
70199SOL    HW122576   9.750   4.988   5.410  0.7698 -0.6861  0.9124
70199SOL    HW222577   9.871   4.903   5.377  0.6454 -0.3645 -0.4448
70200SOL     OW22578  12.117   3.435  12.592 -0.8249 -0.0773  0.1603
70200SOL    HW122579  12.022   3.430  12.584 -0.9335  1.8760 -0.1804
70200SOL    HW222580  12.135   3.528  12.607  0.9129 -0.6373  2.0654
70201SOL     OW22581  13.769   5.430   4.820 -0.2460 -0.5010 -0.1775
70201SOL    HW122582  13.789   5.513   4.775 -1.2466 -0.7659 -1.1550
70201SOL    HW222583  13.678   5.412   4.797 -0.4228 -1.2544  1.0432
70202SOL     OW22584   8.598   7.248   6.904 -0.6923  0.6099  0.4120
70202SOL    HW122585   8.667   7.313   6.893  0.2555 -0.5461 -0.7817
70202SOL    HW222586   8.521   7.299   6.931  0.4686  1.9759  1.2781
70203SOL     OW22587   9.388  11.239  11.119  0.1829 -0.0919 -0.7015
70203SOL    HW122588   9.333  11.167  11.151  1.4677  0.0133  2.1081
70203SOL    HW222589   9.474  11.221  11.157  0.0734  4.0433  2.2750
70204SOL     OW22590   9.967  10.886   0.070  0.5008  0.2520 -0.1151
70204SOL    HW122591   9.946  10.969   0.113 -0.4191 -0.3902  0.7255
70204SOL    HW222592   9.930  10.894  -0.018 -0.8637  0.2200  0.4303
70205SOL     OW22593   1.394   3.720   1.357  0.5725 -0.1329 -0.3793
70205SOL    HW122594   1.475   3.673   1.374  0.1857 -0.9505 -0.7717
70205SOL    HW222595   1.410   3.768   1.276  0.5052 -0.6497 -0.6961
70206SOL     OW22596   7.590   1.880  13.296 -0.1565  0.3380  0.4277
70206SOL    HW122597   7.634   1.831  13.365 -0.7603  1.5525  1.7321
70206SOL    HW222598   7.547   1.812  13.242 -0.3473 -0.6057  1.7214
70207SOL     OW22599  12.336   8.840  11.261  0.1182  0.2156  0.3190
70207SOL    HW122600  12.397   8.769  11.278  0.1328 -0.3211 -1.6999
70207SOL    HW222601  12.378   8.918  11.298  1.1172 -0.4626  0.6488
70208SOL     OW22602   3.963  13.908   7.076  0.0908  0.3973  0.1499
70208SOL    HW122603   4.046  13.920   7.028  0.9402  2.2501  1.9249
70208SOL    HW222604   3.917  13.991   7.064  0.0044  0.6338  1.8379
70209SOL     OW22605  11.084  13.803   6.934  0.1405 -0.3722 -0.1699
70209SOL    HW122606  11.154  13.780   6.994 -3.1224 -3.2171  3.0855
70209SOL    HW222607  11.036  13.874   6.978 -0.4070 -0.1323 -1.1099
70210SOL     OW22608  11.475   6.056   6.380  0.5297 -0.2674  0.7501
70210SOL    HW122609  11.505   6.010   6.459  0.1641  0.0415  1.0708
70210SOL    HW222610  11.444   5.987   6.322 -2.1710 -0.3240  2.1207
70211SOL     OW22611   8.889   5.548   8.194 -0.0640 -0.5249 -0.0783
70211SOL    HW122612   8.794   5.550   8.199 -0.2593 -2.9994 -1.0974
70211SOL    HW222613   8.910   5.455   8.179  2.5195 -0.0844  0.3142
70212SOL     OW22614   3.312   8.019   7.201 -0.4438 -0.6155  0.1417
70212SOL    HW122615   3.349   8.076   7.269 -0.2953  1.3501 -1.4760
70212SOL    HW222616   3.320   8.070   7.121 -1.1657 -2.6082 -1.2729
70213SOL     OW22617   6.828  10.449   0.684  0.4879  0.0535 -0.2900
70213SOL    HW122618   6.788  10.409   0.761 -0.7275  1.0196 -0.3902
70213SOL    HW222619   6.834  10.378   0.620  0.6770 -0.5411  0.3800
70214SOL     OW22620   9.608  10.298   5.564  0.2549  0.0425  0.0373
70214SOL    HW122621   9.565  10.238   5.503  2.2015 -1.5119  0.0920
70214SOL    HW222622   9.580  10.268   5.651  1.6294 -1.1772  0.0876
70215SOL     OW22623   5.759   0.054   8.123 -0.1905  0.4051  0.2545
70215SOL    HW122624   5.779   0.116   8.193  0.9125  0.4440 -0.0759
70215SOL    HW222625   5.830   0.065   8.060 -0.5124 -0.4884 -0.2850
70216SOL     OW22626   9.318   2.400  13.969 -0.2785 -0.1437 -0.2151
70216SOL    HW122627   9.332   2.431  14.059  0.4231 -0.1892 -0.3071
70216SOL    HW222628   9.250   2.333  13.978 -0.1862 -0.1755  0.2895
70217SOL     OW22629   7.160  13.897  13.136 -0.6312  0.0336 -0.1151
70217SOL    HW122630   7.129  13.859  13.218 -0.6149 -0.4055 -0.3124
70217SOL    HW222631   7.090  13.957  13.110  0.0008  1.3059  0.9752
70218SOL     OW22632   4.397  10.540   3.213  0.4480 -0.5291 -0.4489
70218SOL    HW122633   4.320  10.520   3.160  0.3818  1.2075 -1.0763
70218SOL    HW222634   4.444  10.607   3.163  0.6503  0.8079  1.4240
70219SOL     OW22635   0.968   7.825  13.274  0.2140  0.1204 -0.4304
70219SOL    HW122636   1.054   7.791  13.297  0.2397 -0.5793 -1.4918
70219SOL    HW222637   0.985   7.894  13.210  0.0535  0.9788  0.4257
70220SOL     OW22638   2.798  10.556   5.492 -0.7370  0.7930 -0.2675
70220SOL    HW122639   2.817  10.472   5.451 -2.1964  0.0344  0.5252
70220SOL    HW222640   2.836  10.551   5.579 -1.6409  0.5693  0.1222
70221SOL     OW22641   1.557   2.370   3.687 -0.0029  0.0576 -0.2053
70221SOL    HW122642   1.580   2.398   3.598  0.9087 -0.5872 -0.1944
70221SOL    HW222643   1.581   2.277   3.689 -0.1249  0.0379  0.6810
70222SOL     OW22644  10.085   1.115   9.611 -0.7707 -0.3174 -0.4278
70222SOL    HW122645  10.113   1.024   9.621 -1.5678 -0.7716 -1.9754
70222SOL    HW222646  10.120   1.160   9.689 -0.3393 -1.9215  0.3460
70223SOL     OW22647  13.214   8.838   0.837 -0.1049 -0.1884  0.4620
70223SOL    HW122648  13.219   8.925   0.797 -0.1639 -0.4152 -0.0463
70223SOL    HW222649  13.305   8.810   0.846 -0.0195  0.4932  1.8998
70224SOL     OW22650   9.481   5.354   0.899  0.2189  0.0806  0.2347
70224SOL    HW122651   9.417   5.385   0.835 -0.2573  1.1772  1.2012
70224SOL    HW222652   9.441   5.275   0.936  0.1210 -0.0936 -0.2353
70225SOL     OW22653  13.928  12.689   2.309 -0.1783 -0.0444 -0.1654
70225SOL    HW122654  13.951  12.598   2.289  0.5120  0.1476 -0.2734
70225SOL    HW222655  14.007  12.739   2.288  0.4529  0.2492  2.5346
70226SOL     OW22656   4.135  12.527   8.663  0.3774 -0.3673 -0.2875
70226SOL    HW122657   4.165  12.460   8.723  1.2094 -0.3239 -0.6497
70226SOL    HW222658   4.046  12.548   8.693  0.5715 -0.7451  0.5699
70227SOL     OW22659   1.627   3.991   0.968 -0.3217 -0.3936 -0.9833
70227SOL    HW122660   1.636   4.031   0.881 -0.1672  1.8006 -0.0147
70227SOL    HW222661   1.678   3.910   0.961  2.5360  1.3034 -2.0280
70228SOL     OW22662   8.671   0.735  11.532 -0.3556  0.0636  0.1378
70228SOL    HW122663   8.741   0.794  11.562  0.1176 -0.2609 -0.3151
70228SOL    HW222664   8.609   0.793  11.488 -0.2860  0.3296  0.3839
70229SOL     OW22665   4.962   8.376   1.725 -0.3483 -0.1192  0.1832
70229SOL    HW122666   4.987   8.466   1.704  0.4828 -0.3447  0.1724
70229SOL    HW222667   4.895   8.385   1.793  0.4592  0.4991  0.9275
70230SOL     OW22668  10.831  12.467  12.435  0.0882  0.6961 -0.0654
70230SOL    HW122669  10.926  12.466  12.443  0.3669 -1.7282 -2.5007
70230SOL    HW222670  10.800  12.490  12.523  2.8656  0.6342  1.0290
70231SOL     OW22671  13.587   6.477   0.018 -0.4281  0.4167  0.3036
70231SOL    HW122672  13.615   6.505   0.106 -0.8212  0.7146  0.3339
70231SOL    HW222673  13.582   6.381   0.025  3.3689  0.0155 -0.5069
70232SOL     OW22674  11.183   6.459   8.246 -0.3784 -0.2489 -0.4122
70232SOL    HW122675  11.238   6.417   8.312 -0.3236 -1.7970 -1.3814
70232SOL    HW222676  11.178   6.395   8.175 -0.1513  1.4809 -2.0840
70233SOL     OW22677   3.705  12.995  13.365 -0.0196  0.3003  0.3511
70233SOL    HW122678   3.698  12.915  13.314 -1.8024  0.5104  0.2146
70233SOL    HW222679   3.799  13.012  13.370  0.3374 -1.2888 -0.3830
70234SOL     OW22680   2.197   0.256   5.527 -0.2170 -0.2391 -0.0155
70234SOL    HW122681   2.176   0.223   5.615  0.8653 -0.0206  0.3419
70234SOL    HW222682   2.191   0.179   5.471  1.2662 -0.8750  0.6369
70235SOL     OW22683   5.021   4.943   6.235 -0.0670 -0.2156  0.6177
70235SOL    HW122684   4.974   5.025   6.250 -0.2603 -0.0922 -0.5786
70235SOL    HW222685   4.959   4.875   6.258  0.1826 -0.0552  1.8843
70236SOL     OW22686   5.875   0.450  12.978 -0.1353  0.2506 -0.0647
70236SOL    HW122687   5.848   0.476  13.066  1.2450 -1.4274  0.9139
70236SOL    HW222688   5.793   0.433  12.933 -0.8675  0.9070  0.9581
70237SOL     OW22689   7.867   2.647   1.664 -0.2958  0.3790 -0.1393
70237SOL    HW122690   7.871   2.599   1.581 -0.9122 -0.8140  0.4910
70237SOL    HW222691   7.955   2.681   1.677  0.0948 -0.3676 -0.7512
70238SOL     OW22692   0.234   0.238   2.941  0.0145  0.4773 -0.2879
70238SOL    HW122693   0.293   0.312   2.928  1.6283 -0.4973  1.1264
70238SOL    HW222694   0.182   0.263   3.018  0.3964  0.2521  0.0462
70239SOL     OW22695   9.951   1.421   6.224 -0.0792 -0.0113  0.4512
70239SOL    HW122696   9.892   1.468   6.165  0.9912  1.8649  0.7928
70239SOL    HW222697   9.998   1.359   6.167 -1.4250 -0.6234 -0.0353
70240SOL     OW22698   7.871  11.067   8.591  0.0515  0.0351  0.1784
70240SOL    HW122699   7.809  11.022   8.534  0.5200 -2.6152  1.6072
70240SOL    HW222700   7.922  11.122   8.532 -0.5948 -1.2666 -1.7003
70241SOL     OW22701  12.542  13.424   3.966 -0.0933  0.1920  0.3860
70241SOL    HW122702  12.522  13.474   4.045 -0.1806 -0.9639  1.1268
70241SOL    HW222703  12.605  13.478   3.919  0.9811  0.3373  1.8951
70242SOL     OW22704   1.829  10.881   2.461 -0.0820  0.1641 -0.0299
70242SOL    HW122705   1.822  10.787   2.475 -1.3852  0.2765  0.1365
70242SOL    HW222706   1.796  10.921   2.541  2.2677  0.7966  0.7030
70243SOL     OW22707   5.518   2.399  12.798 -0.0620 -0.0876  0.2809
70243SOL    HW122708   5.596   2.401  12.852  0.0670 -1.5896  0.2100
70243SOL    HW222709   5.453   2.351  12.850 -0.7463  0.6384  0.1116
70244SOL     OW22710   0.158   3.703  11.605 -0.5213 -0.2648  0.9225
70244SOL    HW122711   0.177   3.611  11.584  3.0361  0.5186  0.1240
70244SOL    HW222712   0.124   3.739  11.523  0.1524 -0.3994  0.5756
70245SOL     OW22713   3.270   8.654   4.527  0.1970 -0.3014  0.0249
70245SOL    HW122714   3.199   8.708   4.562  0.1324 -0.5230  0.2355
70245SOL    HW222715   3.250   8.645   4.434 -0.1419 -0.5061  0.1177
70246SOL     OW22716   4.648   9.371  13.896 -0.5420  0.2326 -0.0029
70246SOL    HW122717   4.573   9.339  13.845  0.1053 -0.2228 -0.6879
70246SOL    HW222718   4.632   9.339  13.985 -0.8715 -0.3457 -0.2655
70247SOL     OW22719  11.914   9.115   6.321  0.1516 -0.3374 -0.1277
70247SOL    HW122720  11.879   9.103   6.233  2.4439 -2.7211 -0.8785
70247SOL    HW222721  11.981   9.182   6.311  1.9166 -2.0836 -0.8240
70248SOL     OW22722   5.920  10.825  12.761  0.0172 -0.1389  0.4059
70248SOL    HW122723   6.004  10.860  12.788  0.6750 -1.2848 -0.0772
70248SOL    HW222724   5.910  10.854  12.670  0.6907 -1.3648 -0.0859
70249SOL     OW22725  11.394   0.370   7.226  0.1418 -0.1577 -0.5321
70249SOL    HW122726  11.321   0.413   7.271 -0.5211 -2.9446  1.2751
70249SOL    HW222727  11.355   0.334   7.146  0.1788  0.5705 -0.8881
70250SOL     OW22728   0.051  11.693   0.565  0.2211 -0.3176  0.2858
70250SOL    HW122729   0.008  11.609   0.551 -0.7850  0.4478 -1.5447
70250SOL    HW222730   0.010  11.752   0.502  1.8139  1.2388  0.6271
70251SOL     OW22731   7.449   3.662   0.588 -0.1278  0.4818  0.0697
70251SOL    HW122732   7.485   3.620   0.510 -0.5424  2.3744 -1.1976
70251SOL    HW222733   7.357   3.633   0.589 -0.3185  1.0311 -0.5908
70252SOL     OW22734  12.803   9.783   3.164  0.2829 -0.1106 -0.0290
70252SOL    HW122735  12.882   9.830   3.191  0.5280 -0.8606  0.6179
70252SOL    HW222736  12.737   9.851   3.150  0.4132  0.3942  1.6128
70253SOL     OW22737   5.261   8.515   9.705 -0.4263  0.1736  0.1866
70253SOL    HW122738   5.266   8.610   9.695 -0.3474  0.1331 -0.1793
70253SOL    HW222739   5.190   8.488   9.648  0.8007 -0.1901 -1.2518
70254SOL     OW22740   0.355   8.132  12.858 -0.0915 -0.5087  0.6159
70254SOL    HW122741   0.278   8.148  12.803 -0.0252 -0.5428  0.5124
70254SOL    HW222742   0.424   8.186  12.818  0.2401 -1.3503  0.0341
70255SOL     OW22743  13.525   0.483   3.085  0.0214 -0.2678 -0.5393
70255SOL    HW122744  13.550   0.450   3.172  1.4874  1.3241 -0.2917
70255SOL    HW222745  13.432   0.501   3.093 -0.1557 -1.4368  0.2623
70256SOL     OW22746  12.660   0.695  11.483  0.4710 -0.1242 -0.2975
70256SOL    HW122747  12.735   0.721  11.429  1.5462 -1.0076  0.7126
70256SOL    HW222748  12.621   0.777  11.511  1.3993  0.3657 -0.3842
70257SOL     OW22749   0.006  10.737   8.153  0.1856  0.1389  0.0364
70257SOL    HW122750  -0.067  10.682   8.181 -0.9339  0.5315 -1.9236
70257SOL    HW222751   0.073  10.675   8.124 -0.7195 -0.2628 -1.3094
70258SOL     OW22752   6.934   1.029   4.189  0.0876 -0.0347  0.1215
70258SOL    HW122753   6.894   1.105   4.231  2.0915  0.7744  0.6749
70258SOL    HW222754   6.862   0.967   4.179 -0.8170  0.2395  3.5368
70259SOL     OW22755  12.054  10.684   2.748 -0.2702 -0.1148 -0.2754
70259SOL    HW122756  12.052  10.725   2.835 -2.7399  0.2817 -0.4471
70259SOL    HW222757  12.018  10.597   2.762  1.0288 -0.7220 -0.6248
70260SOL     OW22758   3.407  12.125   4.415  0.0524 -0.7860 -0.0536
70260SOL    HW122759   3.328  12.115   4.361 -0.1431  0.3551  0.0080
70260SOL    HW222760   3.477  12.088   4.361 -0.1099  0.4913 -1.1903
70261SOL     OW22761   0.478  10.446   7.976  0.0704 -0.1256  0.0452
70261SOL    HW122762   0.431  10.496   7.909 -0.9761  2.2754  2.3766
70261SOL    HW222763   0.444  10.357   7.967 -0.7819  0.3369 -1.9088
70262SOL     OW22764  11.266  11.785   4.684  0.0303  0.3360  0.4058
70262SOL    HW122765  11.282  11.874   4.655  0.8674  1.1484  3.0818
70262SOL    HW222766  11.307  11.730   4.617  0.0977  1.9540 -0.9387
70263SOL     OW22767   9.620   3.895   5.313 -0.0827 -0.3582 -0.0921
70263SOL    HW122768   9.617   3.929   5.223 -1.9951  0.7792  0.3521
70263SOL    HW222769   9.713   3.876   5.327  0.0814 -2.2125 -2.8523
70264SOL     OW22770   0.005   7.526  12.327 -0.6783 -0.0712  0.1709
70264SOL    HW122771   0.001   7.536  12.422 -1.3250  0.8294  0.0672
70264SOL    HW222772  -0.074   7.477  12.304 -0.5960 -0.1637  0.0853
70265SOL     OW22773  11.222   4.294  12.748  0.2289  0.0938  0.0056
70265SOL    HW122774  11.177   4.373  12.720 -0.0238  0.3921  1.1729
70265SOL    HW222775  11.280   4.272  12.675 -0.6980  0.5671 -0.8892
70266SOL     OW22776   1.294  13.808   7.489  0.3533 -0.0135  0.1145
70266SOL    HW122777   1.280  13.898   7.458  0.0821 -0.4770 -1.1540
70266SOL    HW222778   1.378  13.811   7.534  1.0155  0.5885 -1.1175
70267SOL     OW22779   0.855   2.750   6.929 -0.4745  0.2498  0.0184
70267SOL    HW122780   0.833   2.661   6.901 -0.2351  0.0173  0.5655
70267SOL    HW222781   0.784   2.804   6.894 -1.0864 -0.2761  0.4214
70268SOL     OW22782   5.764   6.318   8.181 -0.0793  0.6202 -0.1833
70268SOL    HW122783   5.750   6.224   8.185 -1.1168  0.5605 -2.8577
70268SOL    HW222784   5.814   6.339   8.260 -0.5405 -2.0081  0.8997
70269SOL     OW22785   2.220   3.317   9.140 -0.0614  0.4718  0.5958
70269SOL    HW122786   2.128   3.332   9.120 -0.3619  1.3501  2.4245
70269SOL    HW222787   2.238   3.374   9.215  1.4675 -1.0826  1.4824
70270SOL     OW22788   9.340   5.906   0.453  0.1892  0.0549  0.2059
70270SOL    HW122789   9.433   5.890   0.435 -0.1081 -0.9370 -0.5024
70270SOL    HW222790   9.293   5.844   0.397 -0.9055  0.4422  0.6629
70271SOL     OW22791   8.032   1.232   4.298 -0.0206  0.6823 -0.4039
70271SOL    HW122792   7.953   1.278   4.325  0.0684  0.4550  0.2643
70271SOL    HW222793   8.003   1.172   4.230 -1.1699 -1.9657  2.2098
70272SOL     OW22794   3.818  10.929   3.119 -0.0693  0.7545  0.3430
70272SOL    HW122795   3.888  10.874   3.085 -0.4377  0.6690 -0.2916
70272SOL    HW222796   3.857  11.017   3.124 -0.0123  0.7720 -0.3239
70273SOL     OW22797   9.564   4.644   7.417 -0.4682  0.2012 -0.2611
70273SOL    HW122798   9.509   4.722   7.430 -1.5001 -0.5161 -0.1716
70273SOL    HW222799   9.610   4.661   7.335  0.8403  1.7514  0.7376
70274SOL     OW22800  10.428   2.654   5.608  0.1035 -0.2043  0.0006
70274SOL    HW122801  10.522   2.645   5.619  0.1757  0.9683  0.4994
70274SOL    HW222802  10.403   2.724   5.668 -0.5752  1.7094 -2.3177
70275SOL     OW22803  12.165   8.284  12.370 -0.1501  0.8616  0.1925
70275SOL    HW122804  12.157   8.232  12.450  0.5120 -0.2756 -0.4527
70275SOL    HW222805  12.092   8.255  12.315 -0.4911  1.5041  0.2960
70276SOL     OW22806  10.577  13.077   2.878  0.0936  0.0636 -0.0658
70276SOL    HW122807  10.593  12.983   2.867  0.7785  0.2472 -0.6848
70276SOL    HW222808  10.651  13.108   2.930 -0.7279  0.0642  1.1594
70277SOL     OW22809   3.278   9.753  12.194  0.0289 -0.2234 -0.4186
70277SOL    HW122810   3.293   9.701  12.115 -2.3585  0.4618 -1.3991
70277SOL    HW222811   3.219   9.700  12.247 -0.2029  0.2976 -0.1502
70278SOL     OW22812   2.969   6.261   2.761 -0.0146  0.6104 -0.3732
70278SOL    HW122813   2.979   6.353   2.783  1.4644  0.6389 -1.0398
70278SOL    HW222814   2.919   6.262   2.679 -0.3432  0.7936 -0.1729
70279SOL     OW22815   8.253   8.800   7.799  0.0134 -0.0334  0.5512
70279SOL    HW122816   8.322   8.831   7.740 -0.6919  2.0091  0.7123
70279SOL    HW222817   8.172   8.834   7.760 -0.6537 -0.2861  1.6785
70280SOL     OW22818  11.536   5.075   5.778 -0.2068 -0.1169  0.1522
70280SOL    HW122819  11.523   4.982   5.758 -0.5070 -0.3350  1.2567
70280SOL    HW222820  11.466   5.120   5.732  0.3082 -0.3598 -0.9002
70281SOL     OW22821   8.401   3.601   5.710  0.1575 -0.3880  0.0661
70281SOL    HW122822   8.458   3.676   5.693  0.5321 -0.5666  0.5139
70281SOL    HW222823   8.331   3.609   5.645 -0.4124  0.9504  0.8166
70282SOL     OW22824  13.968   5.558  11.553  0.4823  0.2588  0.5654
70282SOL    HW122825  13.886   5.606  11.540 -0.2835 -1.3631 -0.9880
70282SOL    HW222826  14.036   5.623  11.537 -0.5018  1.3466  0.6506
70283SOL     OW22827   0.458   0.263   7.842  0.3598 -0.1384  0.1654
70283SOL    HW122828   0.362   0.256   7.840  0.3996 -0.5506 -0.5758
70283SOL    HW222829   0.476   0.349   7.805  0.3258 -0.5854 -0.9082
70284SOL     OW22830   5.794  11.811   7.239 -0.5306  0.1243 -0.1268
70284SOL    HW122831   5.777  11.892   7.286 -0.5035 -0.2283  0.5014
70284SOL    HW222832   5.756  11.825   7.153 -0.6430  0.7537  0.0188
70285SOL     OW22833   6.906   9.249   3.621  0.8219 -0.1308  0.4050
70285SOL    HW122834   6.910   9.344   3.638  0.5022 -0.0863  0.2350
70285SOL    HW222835   6.978   9.233   3.560  0.2148  0.1848 -0.4018
70286SOL     OW22836   7.100   9.128   0.403  0.5427  0.4239  0.3224
70286SOL    HW122837   7.067   9.199   0.348  0.0903 -0.1164 -0.1197
70286SOL    HW222838   7.132   9.062   0.340  0.2050 -0.1128  0.7114
70287SOL     OW22839   6.638  11.967   0.923 -0.0331  0.7550 -0.4354
70287SOL    HW122840   6.638  11.935   1.013  0.2842 -1.6793 -1.2478
70287SOL    HW222841   6.556  11.934   0.886  0.2323  1.0366 -1.2915
70288SOL     OW22842  13.065   8.207  13.264  0.0521  0.1581 -0.3924
70288SOL    HW122843  13.063   8.143  13.194 -2.4817  0.1174 -0.4006
70288SOL    HW222844  12.974   8.237  13.271  0.7590  2.2377  0.9856
70289SOL     OW22845   8.051   4.544  11.389 -1.0099 -0.6868 -0.1097
70289SOL    HW122846   8.068   4.508  11.476  1.6443 -0.4368 -0.4246
70289SOL    HW222847   8.059   4.638  11.401 -2.5910 -0.5166 -0.2860
70290SOL     OW22848   8.053  12.560   5.844 -0.3694  0.2450  0.2776
70290SOL    HW122849   7.991  12.607   5.900  1.2075  0.8927  1.5326
70290SOL    HW222850   8.082  12.624   5.780  0.8626  0.6740  1.2384
70291SOL     OW22851  12.848   8.560   7.148  0.3906 -0.0887  0.5560
70291SOL    HW122852  12.919   8.611   7.110  1.3631 -2.4448 -0.9848
70291SOL    HW222853  12.891   8.506   7.215 -0.2251 -0.4222  0.6857
70292SOL     OW22854   0.249   4.429  11.861 -0.2115 -0.3135  0.2230
70292SOL    HW122855   0.263   4.400  11.771 -4.4520  1.5690 -1.3012
70292SOL    HW222856   0.326   4.480  11.882  1.0252 -1.0241 -2.2336
70293SOL     OW22857   4.933   1.990   2.285  0.4786 -0.2532  0.2164
70293SOL    HW122858   5.004   1.956   2.230 -1.1997 -2.1118 -0.9360
70293SOL    HW222859   4.900   1.914   2.332 -1.2545  0.3950  0.1219
70294SOL     OW22860   0.029  13.762  11.080 -1.1033 -0.5037 -1.0805
70294SOL    HW122861   0.112  13.797  11.047 -0.4426 -2.2603 -1.3570
70294SOL    HW222862  -0.034  13.777  11.009 -1.0079  0.6586 -0.9444
70295SOL     OW22863  13.587  13.524   5.129  0.2118  0.0211 -0.6602
70295SOL    HW122864  13.497  13.546   5.107 -0.4055  0.0908  1.6577
70295SOL    HW222865  13.628  13.607   5.151  0.1773 -0.2307  0.4168
70296SOL     OW22866  11.249  13.628   2.597 -0.3554  0.4295  0.4378
70296SOL    HW122867  11.190  13.552   2.595 -0.6841  0.6665  0.9417
70296SOL    HW222868  11.321  13.604   2.538 -1.2693  0.3911 -0.6984
70297SOL     OW22869   8.277   3.981   6.687 -0.5727  0.3053  0.2582
70297SOL    HW122870   8.286   3.889   6.712 -2.1012 -0.1003 -0.5460
70297SOL    HW222871   8.301   4.029   6.766 -1.3857 -0.8258  1.2403
70298SOL     OW22872   7.555   3.207   7.167  0.0464  0.2479  0.1972
70298SOL    HW122873   7.574   3.214   7.074 -0.7591 -0.0982 -0.0021
70298SOL    HW222874   7.641   3.212   7.210  0.3640  1.1180 -0.5089
70299SOL     OW22875   9.793   1.155   7.873  0.1724  0.6461  0.3658
70299SOL    HW122876   9.844   1.227   7.911  1.8504  0.0285 -0.6015
70299SOL    HW222877   9.765   1.103   7.949  2.9927 -0.2682  0.9225
70300SOL     OW22878   4.180   0.791  13.295  0.1291 -0.3298  0.2448
70300SOL    HW122879   4.183   0.878  13.334  0.6039 -1.0035  1.8120
70300SOL    HW222880   4.140   0.736  13.362  0.8102 -1.5196 -0.2836
70301SOL     OW22881   8.136   3.485   1.307 -0.5175 -0.4493  0.3547
70301SOL    HW122882   8.179   3.570   1.316 -1.2229 -0.0353 -0.1339
70301SOL    HW222883   8.055   3.503   1.260  0.1686 -1.6426 -1.4127
70302SOL     OW22884  13.617   3.402   6.024  0.1255 -0.5334 -0.1684
70302SOL    HW122885  13.623   3.312   6.056  1.1150 -1.1264 -1.8717
70302SOL    HW222886  13.708   3.430   6.012 -0.1330  1.1053  1.3215
70303SOL     OW22887   4.966   0.883   4.089  0.6481 -0.1359  0.4416
70303SOL    HW122888   4.933   0.831   4.016  1.3445 -0.3527  0.2659
70303SOL    HW222889   5.047   0.839   4.114  0.8931  0.4713  0.7358
70304SOL     OW22890   8.224   8.978  11.744 -0.2490 -0.3067 -0.5730
70304SOL    HW122891   8.268   8.967  11.828 -0.4231  0.1669 -0.4203
70304SOL    HW222892   8.143   8.928  11.752 -0.7553  0.5878 -0.0912
70305SOL     OW22893   8.199   3.192  10.035 -0.1456  0.4059 -0.8289
70305SOL    HW122894   8.195   3.096  10.035  0.3628  0.3702 -1.8682
70305SOL    HW222895   8.108   3.219  10.041 -0.3748 -0.1587 -1.5581
70306SOL     OW22896   6.270   5.932  11.483  0.2426  0.5391 -0.8746
70306SOL    HW122897   6.253   6.014  11.436 -1.9214  0.1904 -0.8183
70306SOL    HW222898   6.185   5.889  11.487  1.4844 -2.2001 -1.7371
70307SOL     OW22899   4.873  13.004   4.596  0.2288 -0.9437  0.3149
70307SOL    HW122900   4.892  13.038   4.508  0.6911 -0.0406  0.7403
70307SOL    HW222901   4.833  13.078   4.642 -0.2511 -1.4891  0.7840
70308SOL     OW22902   9.518   5.468  12.783 -0.1609  0.2573  0.1540
70308SOL    HW122903   9.480   5.555  12.777  2.7084  1.5157 -2.1131
70308SOL    HW222904   9.470   5.417  12.717 -0.3396  0.7660 -0.1176
70309SOL     OW22905   8.108   6.307   8.136 -0.0419 -0.1653 -0.6276
70309SOL    HW122906   8.047   6.380   8.129 -0.7208 -0.8143 -1.8746
70309SOL    HW222907   8.194   6.348   8.147 -0.4052  0.8301 -1.3878
70310SOL     OW22908   4.855  12.390  13.159 -0.0287  0.2963  0.5261
70310SOL    HW122909   4.777  12.337  13.172 -0.0648  0.6702  2.0918
70310SOL    HW222910   4.876  12.423  13.247  1.7212  0.4333  0.0906
70311SOL     OW22911   9.024   4.220  10.779 -0.0960 -0.7513  0.2650
70311SOL    HW122912   8.963   4.287  10.747 -0.0855 -1.9511 -2.6033
70311SOL    HW222913   9.110   4.249  10.748 -0.1040 -2.0738 -1.1066
70312SOL     OW22914   1.871   5.222   8.022 -0.3549  0.3963  0.4500
70312SOL    HW122915   1.930   5.167   7.971 -0.4793 -0.4346  1.1936
70312SOL    HW222916   1.870   5.306   7.975 -0.5606 -0.3841 -0.9756
70313SOL     OW22917   1.908  13.789   6.097  0.0799 -0.5109  0.1840
70313SOL    HW122918   1.853  13.756   6.025  1.8014 -2.4479 -0.3310
70313SOL    HW222919   1.956  13.862   6.058  0.2379 -0.8784 -0.3183
70314SOL     OW22920   5.947  11.914   1.879  0.1843  0.0763  0.6293
70314SOL    HW122921   5.879  11.935   1.942 -0.1544  0.2008  0.2274
70314SOL    HW222922   5.906  11.851   1.820 -0.6999  2.5659 -1.5970
70315SOL     OW22923   9.809   4.003   6.834 -0.0077  0.3258  0.1015
70315SOL    HW122924   9.739   4.061   6.864  0.2863  0.1446  1.1718
70315SOL    HW222925   9.787   3.917   6.871  0.3927  0.1121 -0.1562
70316SOL     OW22926   2.968   2.726   4.816  0.3066  0.0210  0.1198
70316SOL    HW122927   2.943   2.747   4.726  0.5971 -1.8971 -0.4461
70316SOL    HW222928   2.917   2.787   4.869 -0.2108  0.8993 -1.3091
70317SOL     OW22929   2.886  13.225   5.760  0.0028  0.0725  0.8241
70317SOL    HW122930   2.907  13.318   5.750 -1.5086  0.6767  2.5939
70317SOL    HW222931   2.829  13.205   5.686  0.1156  0.6382  0.5780
70318SOL     OW22932   2.341   6.532   7.942  0.0917 -0.4203 -0.1304
70318SOL    HW122933   2.253   6.557   7.970  0.5984  2.1596 -0.5510
70318SOL    HW222934   2.394   6.540   8.021  0.4634  1.0992 -0.5007
70319SOL     OW22935  11.511  12.540   7.821  0.5807 -0.4569  0.3725
70319SOL    HW122936  11.429  12.499   7.851  0.1247  1.6416  2.2439
70319SOL    HW222937  11.575  12.517   7.888  0.7272  0.4754  0.5586
70320SOL     OW22938   3.325   4.883  10.753  0.0878 -0.2064 -0.2686
70320SOL    HW122939   3.333   4.949  10.685  0.3996 -0.0485 -0.0847
70320SOL    HW222940   3.395   4.905  10.815  0.0264 -0.5532 -0.0760
70321SOL     OW22941   6.789  12.244  13.146 -0.2476  0.7773  0.7648
70321SOL    HW122942   6.730  12.277  13.214 -1.5982 -1.0590  0.5401
70321SOL    HW222943   6.732  12.203  13.082  1.1638  0.5873 -0.4268
70322SOL     OW22944   4.462   9.496  11.849  0.4399  0.1468  0.0572
70322SOL    HW122945   4.434   9.407  11.825  1.9693 -1.1475  2.6645
70322SOL    HW222946   4.543   9.484  11.897  0.3293  2.9203  1.1281
70323SOL     OW22947   4.997   5.432  10.565  0.6517 -0.1956 -0.2639
70323SOL    HW122948   4.977   5.339  10.568 -2.2179  0.3496  0.8279
70323SOL    HW222949   5.001   5.458  10.657 -0.2448  1.0457 -0.5551
70324SOL     OW22950   3.552   6.535   8.723  0.6836  0.0222  0.3268
70324SOL    HW122951   3.580   6.624   8.745  1.7397  0.0931 -1.1391
70324SOL    HW222952   3.468   6.547   8.678  0.8488  0.3035  0.0842
70325SOL     OW22953   8.483  13.201   9.090 -0.1836 -0.1790  0.0331
70325SOL    HW122954   8.403  13.150   9.104 -0.2129 -0.0128  0.5089
70325SOL    HW222955   8.500  13.243   9.175  0.7964 -0.7645  0.1397
70326SOL     OW22956   5.606   7.637  11.700 -0.1136 -0.4870 -0.1696
70326SOL    HW122957   5.585   7.634  11.793  0.2927  2.8266  0.1389
70326SOL    HW222958   5.521   7.629  11.656 -1.0158  2.6395  0.7327
70327SOL     OW22959   2.319  13.521   3.927 -0.7951 -0.2981 -0.1271
70327SOL    HW122960   2.329  13.426   3.918  2.4123 -0.1769  0.8945
70327SOL    HW222961   2.336  13.555   3.840 -1.9965 -0.6287 -0.5085
70328SOL     OW22962   0.339   9.315   2.846  0.0265  0.4650  0.6357
70328SOL    HW122963   0.284   9.280   2.776  0.5391  1.1352 -0.1233
70328SOL    HW222964   0.292   9.293   2.927 -0.2033 -0.9916  0.1401
70329SOL     OW22965   1.983   2.394   0.193  0.6197  0.1115  0.0813
70329SOL    HW122966   2.043   2.333   0.236 -0.1196  0.4586  1.6866
70329SOL    HW222967   1.952   2.347   0.116  0.2226 -1.4856  1.1572
70330SOL     OW22968   0.495   6.013   5.078  0.1975  0.5859 -0.4841
70330SOL    HW122969   0.515   6.050   4.992  0.7660  0.8501 -0.2445
70330SOL    HW222970   0.556   6.056   5.137  0.3940 -0.2230 -0.0894
70331SOL     OW22971   6.998   0.623  14.043 -0.1243 -0.1279  0.1445
70331SOL    HW122972   6.995   0.535  14.006  0.6233  0.3203 -1.0427
70331SOL    HW222973   7.091   0.640  14.058  0.0698  1.4411 -2.2052
70332SOL     OW22974   4.509   2.952   7.661  0.0031 -0.9243 -0.4922
70332SOL    HW122975   4.417   2.929   7.676 -0.2004  0.9328  1.5967
70332SOL    HW222976   4.529   2.914   7.576 -2.6154 -1.5960 -0.9107
70333SOL     OW22977   2.351   2.529   2.647  0.0512 -0.5919 -0.3709
70333SOL    HW122978   2.424   2.552   2.590  1.2943 -1.5554  0.7643
70333SOL    HW222979   2.360   2.588   2.722  0.6418 -1.7615  0.5088
70334SOL     OW22980   3.872   0.695  12.688  0.3630 -0.2238  0.1992
70334SOL    HW122981   3.860   0.680  12.782  1.1200 -1.2351  0.1446
70334SOL    HW222982   3.819   0.772  12.670 -1.4078 -1.1900  1.0576
70335SOL     OW22983  10.981  13.572   9.025 -0.1481  0.0464  0.6214
70335SOL    HW122984  11.058  13.588   8.972  0.1163 -1.4939  0.5149
70335SOL    HW222985  10.986  13.638   9.095 -1.4522  3.3785 -2.1142
70336SOL     OW22986  10.205   9.239   8.273 -0.0728 -0.2530  0.0550
70336SOL    HW122987  10.231   9.168   8.331  2.0748  1.2090  0.9958
70336SOL    HW222988  10.207   9.317   8.328 -1.4827  0.7124 -1.1627
70337SOL     OW22989  13.720   3.902   6.659  0.1717 -1.0275  0.3277
70337SOL    HW122990  13.802   3.859   6.682  1.6999  1.1360 -0.7326
70337SOL    HW222991  13.684   3.930   6.743  1.2422 -0.8072  0.7313
70338SOL     OW22992   5.349  12.005   5.355  0.6321  0.5240  0.4178
70338SOL    HW122993   5.425  12.042   5.310  0.9122 -0.4308  0.0794
70338SOL    HW222994   5.366  11.910   5.356 -0.5873  0.2931  0.2831
70339SOL     OW22995   0.756   1.561   7.396 -0.0285  0.3971  0.2286
70339SOL    HW122996   0.830   1.501   7.388 -1.0105 -1.0155  1.2266
70339SOL    HW222997   0.778   1.635   7.339  1.4240 -0.7056 -0.6910
70340SOL     OW22998  13.154   0.501  10.341  0.5226 -0.1860  0.2000
70340SOL    HW122999  13.219   0.552  10.291  0.5962 -0.6631 -0.1901
70340SOL    HW223000  13.157   0.414  10.303  1.4635 -0.9091  1.8195
70341SOL     OW23001   1.748   4.294   1.439 -0.3326  0.5536  0.1185
70341SOL    HW123002   1.690   4.299   1.363  0.0111  2.6892 -0.0708
70341SOL    HW223003   1.833   4.323   1.406  0.1307  0.2894  1.0376
70342SOL     OW23004   7.246  13.321  11.808 -0.1636  0.3753  0.7174
70342SOL    HW123005   7.318  13.289  11.753 -0.7584  0.8243 -0.3629
70342SOL    HW223006   7.270  13.294  11.897  2.0491  1.7397  0.6332
70343SOL     OW23007   6.381   7.951   1.683  0.0444 -0.6301  0.2779
70343SOL    HW123008   6.409   7.938   1.774  2.8641  0.8003 -0.2839
70343SOL    HW223009   6.297   7.995   1.690  1.7928  2.8588  2.3862
70344SOL     OW23010   6.422   6.605   1.550  0.5250 -0.1839  0.0219
70344SOL    HW123011   6.422   6.513   1.527  0.2869 -0.6665  1.7989
70344SOL    HW223012   6.340   6.639   1.513 -0.5661 -1.2530  1.3504
70345SOL     OW23013   0.035   4.779   7.790  0.4232  0.3632 -0.2123
70345SOL    HW123014   0.016   4.740   7.875  0.9697 -0.1735 -0.3333
70345SOL    HW223015   0.001   4.868   7.796 -1.9058 -0.4552 -0.3215
70346SOL     OW23016  12.700   3.559   8.587  0.0815 -0.2035  0.0975
70346SOL    HW123017  12.613   3.544   8.551 -0.9771  1.7428  1.6625
70346SOL    HW223018  12.711   3.490   8.653 -0.2156 -0.5198 -0.1825
70347SOL     OW23019  12.652   5.956  11.489  0.2978  0.2491  0.3258
70347SOL    HW123020  12.656   5.886  11.423 -0.5493 -1.1230  1.6707
70347SOL    HW223021  12.558   5.971  11.502  0.4387  0.0935  1.6166
70348SOL     OW23022   7.204   2.995   8.796  0.2507  0.8405 -0.4749
70348SOL    HW123023   7.259   3.071   8.781  0.3286  0.7413 -0.6902
70348SOL    HW223024   7.133   3.028   8.851  0.4163  1.0129 -0.3640
70349SOL     OW23025   1.798   8.742  13.424  0.2433  0.0359  0.2323
70349SOL    HW123026   1.753   8.742  13.340  0.1917  0.3814  0.2591
70349SOL    HW223027   1.802   8.834  13.449  4.2813  0.5402 -1.5303
70350SOL     OW23028  13.695  13.706   9.928 -0.2717  0.6681  0.0278
70350SOL    HW123029  13.787  13.730   9.932  0.1453 -0.3948 -1.7968
70350SOL    HW223030  13.649  13.776   9.975  1.2766  2.3975 -0.8921
70351SOL     OW23031   3.626   5.495   4.298 -0.0741  0.2639  0.2364
70351SOL    HW123032   3.630   5.400   4.290 -1.1528 -0.1589  3.3115
70351SOL    HW223033   3.669   5.514   4.381 -0.1648  2.4406 -0.1616
70352SOL     OW23034   7.165  11.674   3.780  0.2908  0.4055 -0.0516
70352SOL    HW123035   7.087  11.709   3.736  0.3413  0.2089 -0.2974
70352SOL    HW223036   7.188  11.741   3.845 -0.3166  0.2847  0.2949
70353SOL     OW23037   1.562   1.783  11.128 -0.0756  0.1742 -0.4193
70353SOL    HW123038   1.469   1.797  11.145  0.2263  3.1925 -0.6329
70353SOL    HW223039   1.603   1.790  11.214  0.0353 -0.2864 -0.4331
70354SOL     OW23040   5.437  10.292   9.456 -0.4795  0.0027 -0.0561
70354SOL    HW123041   5.380  10.342   9.513  1.6911  0.9704  1.4089
70354SOL    HW223042   5.473  10.223   9.513  0.7537  0.2116 -0.5425
70355SOL     OW23043   3.707  13.916  13.498  0.1752  0.3925 -0.7719
70355SOL    HW123044   3.645  13.845  13.520  0.3180  0.7105  0.8139
70355SOL    HW223045   3.671  13.956  13.419  0.6465 -2.0852 -2.3429
70356SOL     OW23046   4.258   4.402   8.599  0.0772 -0.2160 -0.4197
70356SOL    HW123047   4.253   4.413   8.504  1.5623 -1.8572 -0.7270
70356SOL    HW223048   4.319   4.470   8.628 -0.4293  0.3312 -0.6010
70357SOL     OW23049   8.984  11.986   2.250  0.3943  0.6613  0.3717
70357SOL    HW123050   9.006  12.069   2.290  1.6515  0.7531 -0.4643
70357SOL    HW223051   9.064  11.934   2.254 -0.2968 -0.4413  0.6642
70358SOL     OW23052  11.786   8.380  11.162 -0.5486  0.3696 -0.2219
70358SOL    HW123053  11.709   8.420  11.122 -0.8286  0.1022  0.0467
70358SOL    HW223054  11.860   8.427  11.123 -0.8350  0.4683 -0.6570
70359SOL     OW23055   4.977   3.803   7.030  0.2514 -0.0861  0.0501
70359SOL    HW123056   5.070   3.793   7.010  0.2278 -0.5645  0.1559
70359SOL    HW223057   4.952   3.887   6.993  0.5924 -0.2205 -0.4870
70360SOL     OW23058   7.076   1.368   8.491  0.2309 -0.6903 -0.7313
70360SOL    HW123059   7.073   1.327   8.578 -0.7277  1.0122  0.0975
70360SOL    HW223060   7.157   1.420   8.491  0.8014 -1.5617 -1.2982
70361SOL     OW23061  12.410   9.281  11.071 -0.3927  0.0479 -0.2923
70361SOL    HW123062  12.349   9.355  11.067  1.4855  1.6575 -1.3797
70361SOL    HW223063  12.424   9.257  10.979 -0.0000 -0.8146 -0.0146
70362SOL     OW23064  12.326   9.522   9.676  0.2180  0.0061  0.0083
70362SOL    HW123065  12.257   9.458   9.694 -0.1378  0.3899  0.0181
70362SOL    HW223066  12.305   9.597   9.733  1.4844 -0.4562  1.1503
70363SOL     OW23067  10.536   5.089   9.067 -0.1133  0.2489  0.5190
70363SOL    HW123068  10.629   5.065   9.064 -0.0033  0.7398 -0.3496
70363SOL    HW223069  10.535   5.176   9.106  0.2532  2.1670 -3.3214
70364SOL     OW23070  13.264   4.676   5.680 -0.2100 -0.5828  0.7057
70364SOL    HW123071  13.237   4.619   5.609 -0.7615  1.5601 -0.8881
70364SOL    HW223072  13.358   4.691   5.665 -0.2152 -0.5341  0.7176
70365SOL     OW23073   9.256   4.549   4.962  0.1945 -0.2801 -0.2426
70365SOL    HW123074   9.204   4.599   5.024 -0.4455 -0.1699 -0.8610
70365SOL    HW223075   9.193   4.516   4.898  0.7875 -0.7357 -0.6081
70366SOL     OW23076   0.845   8.021   6.720 -0.3827  0.1633 -0.5403
70366SOL    HW123077   0.754   8.026   6.692 -0.1589  0.3895 -1.2534
70366SOL    HW223078   0.857   7.931   6.748 -0.4530 -0.2505 -1.7827
70367SOL     OW23079   9.546   4.149   9.141 -0.0258  0.2890 -0.2893
70367SOL    HW123080   9.557   4.114   9.053 -0.0480 -0.0973 -0.1418
70367SOL    HW223081   9.635   4.165   9.172  0.1401 -1.7252  0.4626
70368SOL     OW23082   5.976   0.974   0.015  0.3215 -0.2349  0.1398
70368SOL    HW123083   6.041   0.910  -0.016 -0.4684 -0.7805 -0.4316
70368SOL    HW223084   6.028   1.047   0.048  1.2249 -0.3578 -0.9504
70369SOL     OW23085   7.966  11.478   0.718  0.2898  0.4844  0.3193
70369SOL    HW123086   8.021  11.429   0.656 -0.4411 -0.2266  0.2123
70369SOL    HW223087   8.008  11.564   0.725  0.6618  0.4055 -0.7775
70370SOL     OW23088   6.279   8.386   7.087 -0.3209  0.2300 -0.3202
70370SOL    HW123089   6.243   8.472   7.109 -0.5203  0.1596 -0.3676
70370SOL    HW223090   6.251   8.329   7.159 -0.6204  0.0924 -0.5427
70371SOL     OW23091   8.412   6.553   2.854  0.2326 -0.1546  0.0687
70371SOL    HW123092   8.473   6.545   2.781 -0.9511  0.2456 -1.0184
70371SOL    HW223093   8.426   6.641   2.888 -0.4223  0.3336 -0.8640
70372SOL     OW23094   2.661   6.023  10.050 -0.4732  0.7822  0.5949
70372SOL    HW123095   2.638   6.114  10.071 -2.7244  0.0954  1.3517
70372SOL    HW223096   2.726   6.031   9.980 -1.5038  2.9676 -0.2054
70373SOL     OW23097   2.447   1.753   8.930 -0.4340  0.2941 -0.3535
70373SOL    HW123098   2.443   1.687   8.861  1.0261  0.7448 -0.9121
70373SOL    HW223099   2.469   1.834   8.885 -2.6671  1.3049  0.2646
70374SOL     OW23100   6.370   8.957  10.350 -0.2287  0.3768 -0.2280
70374SOL    HW123101   6.368   8.953  10.446  3.0552  0.1192 -0.0456
70374SOL    HW223102   6.303   8.896  10.322  0.2654 -1.2907  1.9675
70375SOL     OW23103   9.402   3.018   0.175 -0.0791  0.0331  0.6503
70375SOL    HW123104   9.446   3.080   0.118  1.6425 -0.6217  1.1886
70375SOL    HW223105   9.420   2.932   0.136  1.6519 -0.4773  2.4354
70376SOL     OW23106  11.967   8.451  13.449  0.0397  0.1720 -0.1984
70376SOL    HW123107  11.979   8.365  13.491 -0.3286  0.6090  0.8362
70376SOL    HW223108  11.913   8.500  13.511  0.6368  1.3091 -0.5575
70377SOL     OW23109   4.408   3.367   3.878 -0.1660  0.0467  0.0391
70377SOL    HW123110   4.355   3.347   3.955  2.5032 -1.4711  1.6020
70377SOL    HW223111   4.459   3.288   3.862  1.4852  1.3396 -1.4989
70378SOL     OW23112   0.078   7.585   2.190  0.1909 -0.1924 -0.0605
70378SOL    HW123113   0.123   7.504   2.215  0.3740  0.2230  1.0030
70378SOL    HW223114   0.140   7.631   2.133  0.8989  0.1133  0.9411
70379SOL     OW23115   0.284  12.176   5.936 -0.2292 -0.3259 -0.2190
70379SOL    HW123116   0.255  12.254   5.984  1.0708  0.9968 -1.4775
70379SOL    HW223117   0.228  12.173   5.859 -0.2767 -0.6384 -0.1727
70380SOL     OW23118   7.025   1.131   6.445 -0.7845  0.7426 -0.3446
70380SOL    HW123119   6.991   1.192   6.379  1.8116 -0.0269 -2.6121
70380SOL    HW223120   7.021   1.045   6.402 -0.3955 -0.0251  1.1041
70381SOL     OW23121   1.325   5.801   3.335  0.2276 -0.1406  0.1143
70381SOL    HW123122   1.312   5.737   3.264 -0.6319 -1.1017  1.0936
70381SOL    HW223123   1.330   5.885   3.291  2.1676 -0.9265 -1.2952
70382SOL     OW23124  11.854  10.799   5.998 -0.0235  0.2392  0.0870
70382SOL    HW123125  11.901  10.761   6.073 -3.3633  0.1940  2.3794
70382SOL    HW223126  11.877  10.743   5.924  0.6521 -1.9677  1.8706
70383SOL     OW23127  13.213  10.795  10.223 -0.0957  0.4764 -0.4745
70383SOL    HW123128  13.243  10.813  10.313 -0.4187 -0.3491 -0.1872
70383SOL    HW223129  13.150  10.723  10.233 -2.0568  2.0376 -1.0827
70384SOL     OW23130   9.437   8.827   5.065  0.4030  0.1068 -0.2515
70384SOL    HW123131   9.377   8.897   5.090  0.4812 -0.7865  2.9918
70384SOL    HW223132   9.387   8.773   5.004 -1.8340 -0.0808  1.5956
70385SOL     OW23133   5.205   2.794   1.585  0.1337 -0.2274 -0.1128
70385SOL    HW123134   5.296   2.794   1.554  0.6110  0.1648  1.2013
70385SOL    HW223135   5.186   2.886   1.604 -0.7807 -0.2181 -1.0038
70386SOL     OW23136   4.745  11.156  10.039 -0.7491  0.7091 -0.2927
70386SOL    HW123137   4.703  11.113  10.112  1.1066  0.3727  0.6467
70386SOL    HW223138   4.696  11.237  10.026 -1.4647  0.4819  0.9243
70387SOL     OW23139   5.626   4.681  13.076 -0.0172  0.6003  0.2198
70387SOL    HW123140   5.648   4.672  12.983 -0.5896 -0.7455  0.1911
70387SOL    HW223141   5.537   4.715  13.076 -1.0515 -1.8755  0.1808
70388SOL     OW23142  12.708  10.757   2.335 -0.0280 -0.5085 -0.1686
70388SOL    HW123143  12.672  10.671   2.355 -0.1695 -0.7771 -1.4849
70388SOL    HW223144  12.765  10.742   2.259  0.7166  0.3825  0.2015
70389SOL     OW23145   2.250  13.976   7.872  0.7011 -0.5778 -0.0852
70389SOL    HW123146   2.313  13.960   7.802  1.0944 -0.0630  0.1489
70389SOL    HW223147   2.188  14.038   7.835  0.2428 -1.1832 -0.3599
70390SOL     OW23148   3.303   3.362   3.462  0.4421  0.0415  0.2138
70390SOL    HW123149   3.276   3.279   3.422  0.1084  0.1058  0.3027
70390SOL    HW223150   3.223   3.397   3.500  0.4051  0.8296 -0.5625
70391SOL     OW23151  10.368   5.859   2.442 -0.5035  0.1034 -0.0071
70391SOL    HW123152  10.456   5.895   2.453 -0.5244  0.0804  0.2532
70391SOL    HW223153  10.327   5.914   2.375  0.2515 -0.8664 -1.3137
70392SOL     OW23154   9.163  12.003   9.203  0.1723  0.2533  0.2128
70392SOL    HW123155   9.140  12.096   9.208  0.7190  0.5039 -1.3406
70392SOL    HW223156   9.259  12.003   9.196  0.0568 -0.2541 -2.1653
70393SOL     OW23157   4.565  11.732   1.136  0.3680 -0.4859 -0.4054
70393SOL    HW123158   4.532  11.772   1.217  0.8922 -1.0830  0.1150
70393SOL    HW223159   4.507  11.766   1.067  0.7915  1.1789 -0.0001
70394SOL     OW23160  11.366   0.827   8.564  0.2377 -0.5443 -0.4623
70394SOL    HW123161  11.292   0.813   8.506  0.9413 -1.2300 -1.2224
70394SOL    HW223162  11.348   0.771   8.640  0.8598 -2.2229 -1.4949
70395SOL     OW23163  13.853  13.151   8.786  0.4177  0.0486 -0.7740
70395SOL    HW123164  13.757  13.157   8.785  0.3704 -0.3180  0.2288
70395SOL    HW223165  13.871  13.057   8.775  0.5861 -0.1168  0.6215
70396SOL     OW23166   4.471   6.499   2.764 -0.3181  0.3184 -0.6591
70396SOL    HW123167   4.470   6.424   2.705 -1.0479  0.1647 -0.4635
70396SOL    HW223168   4.434   6.466   2.846  0.8559  0.4814 -0.0467
70397SOL     OW23169   6.387   0.310   9.765 -0.2563 -0.0286  0.3126
70397SOL    HW123170   6.360   0.316   9.674  3.5416  1.1134 -0.9320
70397SOL    HW223171   6.468   0.259   9.763  0.6371  1.1197  2.8368
70398SOL     OW23172   3.953   5.958  12.611  0.3102  0.2943 -0.7693
70398SOL    HW123173   3.925   5.959  12.519  0.3536 -0.3797 -0.7945
70398SOL    HW223174   4.041   5.922  12.609  1.0990  2.1341 -0.6535
70399SOL     OW23175   9.097   8.343   3.937 -0.8780  0.5141  0.2260
70399SOL    HW123176   9.006   8.323   3.914 -0.9633 -0.3962  1.2991
70399SOL    HW223177   9.093   8.371   4.028 -0.1370  0.9864  0.1259
70400SOL     OW23178   5.092   1.358   0.502  0.4688 -0.2796  0.0127
70400SOL    HW123179   5.072   1.450   0.485  0.0224 -0.4604 -0.4560
70400SOL    HW223180   5.045   1.310   0.434  0.6185 -0.8635  0.3147
70401SOL     OW23181  11.240   1.608   5.522 -0.0121  0.2626  0.1601
70401SOL    HW123182  11.148   1.608   5.497  0.3027 -1.3668 -1.1314
70401SOL    HW223183  11.267   1.516   5.518  1.4829  0.5961  1.2918
70402SOL     OW23184   9.269   8.846  10.193  0.3140  0.1633 -0.9161
70402SOL    HW123185   9.314   8.917  10.239 -0.8663  1.3653 -1.5514
70402SOL    HW223186   9.196   8.823  10.250 -0.0103  0.2968 -1.2787
70403SOL     OW23187   3.853   0.963   4.064  0.4460  0.3573  0.2517
70403SOL    HW123188   3.798   1.022   4.116 -0.2423 -0.0345 -0.0339
70403SOL    HW223189   3.816   0.876   4.078  0.9645  0.0945  0.0210
70404SOL     OW23190   7.780   5.675   9.513  0.0929 -0.4411 -0.0877
70404SOL    HW123191   7.708   5.709   9.567 -0.3056 -1.1425 -0.1724
70404SOL    HW223192   7.850   5.740   9.524 -0.0535 -0.4569  1.0966
70405SOL     OW23193  11.729  13.580  10.203 -0.1523 -0.0023 -0.2741
70405SOL    HW123194  11.744  13.566  10.296 -1.2781 -0.4287 -0.1389
70405SOL    HW223195  11.806  13.542  10.160 -0.3064 -1.1651  0.4161
70406SOL     OW23196   5.124   1.217   1.712  0.1551  0.1043 -0.1209
70406SOL    HW123197   5.038   1.255   1.692  0.1077  0.7219  1.1271
70406SOL    HW223198   5.114   1.123   1.695  0.0828  0.5179 -2.6580
70407SOL     OW23199   4.471   5.299  12.981 -0.1693  0.0335 -0.0647
70407SOL    HW123200   4.564   5.280  12.966 -0.1826  1.6551 -3.1793
70407SOL    HW223201   4.436   5.221  13.024  2.3856 -1.1022  0.1198
70408SOL     OW23202  11.408   0.053   5.532  0.5646  0.2659  0.1574
70408SOL    HW123203  11.402  -0.008   5.459 -0.1475  1.4068 -0.7715
70408SOL    HW223204  11.374   0.004   5.607  0.2585 -0.5525 -0.4999
70409SOL     OW23205   3.512  13.997   8.756 -0.0603 -0.4782 -0.6610
70409SOL    HW123206   3.436  13.993   8.814 -0.2416 -1.4414 -0.9544
70409SOL    HW223207   3.555  14.080   8.779  0.6475 -1.4330  1.8386
70410SOL     OW23208   8.015   0.112  11.258  0.0657 -0.0213  0.1625
70410SOL    HW123209   7.921   0.116  11.237 -0.0738 -1.4582  0.3861
70410SOL    HW223210   8.020   0.049  11.330  1.3358 -0.9909 -0.7387
70411SOL     OW23211   3.497  13.207   9.516  0.4506  0.7238  0.0787
70411SOL    HW123212   3.494  13.142   9.445 -0.5730 -0.3439  1.0490
70411SOL    HW223213   3.458  13.285   9.478 -1.3172 -0.2343 -0.1845
70412SOL     OW23214   3.517   9.949   6.861  0.5244  0.1794  0.0345
70412SOL    HW123215   3.434   9.901   6.863  1.1272 -0.8825  0.2674
70412SOL    HW223216   3.492  10.039   6.837 -0.6650 -0.1639 -0.0885
70413SOL     OW23217  11.882   7.117  10.650 -0.5172 -0.6317 -0.1962
70413SOL    HW123218  11.959   7.138  10.703 -0.9699 -1.3024  0.7475
70413SOL    HW223219  11.909   7.044  10.595 -0.1011 -0.0472 -0.7927
70414SOL     OW23220  11.407   6.978  12.671 -0.2171  0.2310  0.9177
70414SOL    HW123221  11.314   6.962  12.656 -0.3588  1.1268  0.8105
70414SOL    HW223222  11.438   7.018  12.590  0.5031 -1.0148  0.5576
70415SOL     OW23223   7.146   1.572   5.773  0.6635 -0.0185 -0.3186
70415SOL    HW123224   7.098   1.547   5.852  0.3863 -1.2611 -0.8566
70415SOL    HW223225   7.098   1.531   5.701  0.9383  1.0472 -1.1506
70416SOL     OW23226  13.129   5.585   1.443 -0.5123 -0.3046 -0.2826
70416SOL    HW123227  13.089   5.663   1.481 -0.1994 -0.5316  0.5287
70416SOL    HW223228  13.194   5.619   1.381  0.2187  0.1023  0.6863
70417SOL     OW23229   9.659  10.567  10.007 -0.2359  0.0055 -0.0163
70417SOL    HW123230   9.714  10.644  10.023  1.1241 -0.9551  0.1403
70417SOL    HW223231   9.718  10.493  10.019 -0.2095 -1.0346 -4.6324
70418SOL     OW23232   9.055  10.780   7.612  0.0489  0.0931 -0.5826
70418SOL    HW123233   9.039  10.685   7.618 -1.4555  0.3655 -0.0574
70418SOL    HW223234   9.147  10.790   7.637 -0.8108 -0.8299  3.6438
70419SOL     OW23235   2.392   5.433   7.941  0.7610  0.7486 -0.0002
70419SOL    HW123236   2.359   5.344   7.926  1.5076  0.2576  1.1346
70419SOL    HW223237   2.324   5.475   7.994 -0.1304  1.2593 -1.4928
70420SOL     OW23238   2.231   6.151  10.785  0.5555  0.6004 -0.4550
70420SOL    HW123239   2.314   6.191  10.757  1.1746 -1.1008 -1.1589
70420SOL    HW223240   2.193   6.115  10.705 -0.4927  0.6933 -0.0065
70421SOL     OW23241  12.486   6.583   2.910  0.3898 -0.4942 -0.7072
70421SOL    HW123242  12.529   6.665   2.884  0.9828 -0.3767  0.5971
70421SOL    HW223243  12.490   6.528   2.831 -0.0454  0.7286 -1.6144
70422SOL     OW23244   6.174  13.093  12.070  0.3867 -0.9012  0.3935
70422SOL    HW123245   6.080  13.102  12.084  0.2072 -1.7435 -0.1816
70422SOL    HW223246   6.206  13.052  12.150  0.2617 -0.6199  0.5893
70423SOL     OW23247   2.002  10.541  13.437  0.6604 -0.1210  0.5714
70423SOL    HW123248   2.047  10.488  13.371 -0.9184 -0.6142 -0.1680
70423SOL    HW223249   2.051  10.623  13.439  0.3026  0.2230 -1.8267
70424SOL     OW23250   2.008   0.729   2.420  0.5393 -0.1405 -0.2084
70424SOL    HW123251   2.007   0.719   2.515  1.2528 -1.3640 -0.3119
70424SOL    HW223252   1.968   0.650   2.387 -1.1875  0.9830 -0.9169
70425SOL     OW23253   8.737  10.058  11.908  0.8039 -0.1838 -0.7450
70425SOL    HW123254   8.687  10.139  11.894  1.0424 -0.1135 -1.2322
70425SOL    HW223255   8.785  10.046  11.826 -0.5404 -1.7438 -1.3446
70426SOL     OW23256  12.155  13.445   6.754  0.1565 -0.3019 -0.0774
70426SOL    HW123257  12.150  13.508   6.682 -0.4277 -0.6655 -0.3590
70426SOL    HW223258  12.110  13.488   6.826  0.8789  0.1288  0.1289
70427SOL     OW23259   5.701   6.500   4.646  0.2699 -0.0623 -0.5504
70427SOL    HW123260   5.743   6.490   4.560  0.8973 -1.7023 -0.0875
70427SOL    HW223261   5.692   6.595   4.657  2.0369  0.2675 -1.5433
70428SOL     OW23262   8.188   1.650  10.227  0.5504  0.4389  1.2284
70428SOL    HW123263   8.156   1.683  10.143  0.3361  0.0249  1.1428
70428SOL    HW223264   8.145   1.705  10.293 -0.4336 -0.1649  1.1224
70429SOL     OW23265  10.371  13.900  13.449 -0.1160  0.6096  0.1679
70429SOL    HW123266  10.391  13.957  13.524  2.3926 -0.5381  0.4831
70429SOL    HW223267  10.377  13.958  13.373 -0.4104  1.3362  0.6849
70430SOL     OW23268   8.870   2.978  10.048 -0.0274 -0.0604  0.1098
70430SOL    HW123269   8.954   3.009  10.082 -0.8914  1.6495  0.8126
70430SOL    HW223270   8.807   3.002  10.116 -1.2055 -0.5789 -0.7724
70431SOL     OW23271   7.752  12.556   1.241 -0.2252  0.0033 -0.0720
70431SOL    HW123272   7.765  12.520   1.328  0.4917  0.2638 -0.0609
70431SOL    HW223273   7.810  12.504   1.185  0.7490  1.0586 -0.0722
70432SOL     OW23274  11.222   1.858   2.908  0.5683 -0.1859 -0.5646
70432SOL    HW123275  11.134   1.828   2.928 -0.4613  1.2436 -2.4922
70432SOL    HW223276  11.264   1.783   2.866 -0.2703 -0.4264 -1.0003
70433SOL     OW23277   0.691   9.668  12.728  0.1365  0.0026  0.3795
70433SOL    HW123278   0.758   9.654  12.662  0.4897 -0.4183  0.8215
70433SOL    HW223279   0.671   9.580  12.762  0.5072  0.2767  1.3532
70434SOL     OW23280   1.432  10.035   3.470  0.1703  0.0830  0.2614
70434SOL    HW123281   1.361   9.971   3.473 -0.1531  0.4571  0.8339
70434SOL    HW223282   1.481  10.014   3.390  0.2072 -1.0201  0.5689
70435SOL     OW23283   6.547   4.190  10.297  0.4780  0.4720 -0.2436
70435SOL    HW123284   6.503   4.173  10.380  0.6423  1.9369  0.1577
70435SOL    HW223285   6.591   4.274  10.309 -0.1920  1.1370 -2.0885
70436SOL     OW23286   6.998   3.772   5.263  0.0671 -0.1852  0.0097
70436SOL    HW123287   7.066   3.760   5.196  1.2903 -1.2083  1.3701
70436SOL    HW223288   6.973   3.864   5.254  0.6047 -0.1494 -1.4694
70437SOL     OW23289   5.208   1.682  12.066 -0.1931  0.4318 -0.1307
70437SOL    HW123290   5.279   1.664  12.005  0.1411  1.5932 -0.1109
70437SOL    HW223291   5.223   1.623  12.140  0.3040  0.1263 -0.4766
70438SOL     OW23292  12.853   8.800   3.725  0.2968  0.4457 -0.0805
70438SOL    HW123293  12.838   8.706   3.735  0.5338  0.5650  1.7650
70438SOL    HW223294  12.935   8.806   3.676 -0.1615 -0.2972 -0.9569
70439SOL     OW23295   2.179  13.691   8.126 -0.3332 -0.4816 -0.0881
70439SOL    HW123296   2.243  13.762   8.139 -0.2035 -0.6284  0.0843
70439SOL    HW223297   2.096  13.728   8.157 -0.2482 -0.4352  0.0856
70440SOL     OW23298   3.490   1.005  12.223 -0.1818 -0.3103  0.2180
70440SOL    HW123299   3.510   0.912  12.214  0.4768 -0.0637 -1.2535
70440SOL    HW223300   3.560   1.049  12.174 -0.2427  0.9859  1.2528
70441SOL     OW23301   2.499   9.478   9.762 -0.1325 -0.1341  1.0682
70441SOL    HW123302   2.574   9.458   9.705 -0.1686 -1.1723  1.3671
70441SOL    HW223303   2.454   9.550   9.718 -0.1369 -0.8923 -0.2218
70442SOL     OW23304   4.587   5.277   7.963 -0.2926  0.5227 -0.4148
70442SOL    HW123305   4.564   5.190   7.995 -0.5096  0.1510 -1.5620
70442SOL    HW223306   4.565   5.276   7.870  2.4813  0.7843 -1.1789
70443SOL     OW23307   2.195   6.249   2.510  0.2334 -0.3523 -0.0190
70443SOL    HW123308   2.201   6.195   2.588 -0.6000  0.1561  0.4226
70443SOL    HW223309   2.123   6.211   2.460 -0.9466  0.8113  0.7132
70444SOL     OW23310  11.085   9.648   4.295  0.3508  0.5351  0.1860
70444SOL    HW123311  11.151   9.602   4.346  0.7829 -0.8800 -1.5554
70444SOL    HW223312  11.119   9.648   4.205 -1.8194  0.1078 -0.6942
70445SOL     OW23313  13.151   0.728   3.905  0.2510 -0.2712 -0.6341
70445SOL    HW123314  13.171   0.760   3.817  1.6441 -0.4615 -0.4099
70445SOL    HW223315  13.229   0.749   3.957 -0.0286 -1.2935  0.2420
70446SOL     OW23316   0.468  13.099  13.047 -0.4752  0.0276  0.5669
70446SOL    HW123317   0.472  13.169  12.982 -0.3078 -0.7898 -0.3288
70446SOL    HW223318   0.528  13.127  13.116  0.7775  0.0617 -0.4925
70447SOL     OW23319   8.359   5.243   9.728 -0.3353  0.1648 -0.3315
70447SOL    HW123320   8.309   5.281   9.655  2.8160  1.5406 -1.9470
70447SOL    HW223321   8.360   5.149   9.709 -1.1758  0.2728 -0.9979
70448SOL     OW23322  11.303   2.698   3.838 -0.1364 -0.1143  0.0992
70448SOL    HW123323  11.227   2.723   3.786 -0.5041 -0.7582  0.3185
70448SOL    HW223324  11.279   2.614   3.877  0.9919 -0.7171 -0.4501
70449SOL     OW23325   9.156   5.729  12.911 -0.2594  0.3118 -0.4546
70449SOL    HW123326   9.085   5.768  12.860  0.4145  2.1811 -0.0463
70449SOL    HW223327   9.114   5.701  12.992 -0.6641  0.7481 -0.5098
70450SOL     OW23328   5.307  12.155   9.152 -0.5822  0.0486  0.2323
70450SOL    HW123329   5.360  12.217   9.102 -1.2248  1.1545  0.8712
70450SOL    HW223330   5.369  12.117   9.215 -0.2821  0.4316  0.1765
70451SOL     OW23331   3.129   3.153   8.864  0.1682 -0.0291 -0.0683
70451SOL    HW123332   3.194   3.090   8.831  2.2057  2.3923 -0.9758
70451SOL    HW223333   3.166   3.239   8.843 -2.6719  1.5117  0.7586
70452SOL     OW23334   5.740   5.031   6.748 -0.2492 -0.6195  0.1186
70452SOL    HW123335   5.704   4.946   6.724 -1.6369  0.1521 -0.6540
70452SOL    HW223336   5.687   5.060   6.822  0.8807 -0.8502  1.0449
70453SOL     OW23337   2.862   7.139   4.270  0.3499  0.2445 -0.0911
70453SOL    HW123338   2.884   7.066   4.214 -0.9015 -0.4479  0.2738
70453SOL    HW223339   2.834   7.208   4.209 -1.3227 -0.6106 -0.3629
70454SOL     OW23340   5.223  12.229   5.247 -0.0219  0.1255 -0.1033
70454SOL    HW123341   5.307  12.276   5.244 -0.3576  0.7445  0.1169
70454SOL    HW223342   5.244  12.145   5.287  0.4326  0.4125  0.2672
70455SOL     OW23343  13.271   6.369   0.677 -0.0610  0.1354 -0.3284
70455SOL    HW123344  13.351   6.330   0.711  0.1283  0.1685 -0.7303
70455SOL    HW223345  13.211   6.371   0.751  0.6122  0.9238  0.2122
70456SOL     OW23346   8.194   1.059   3.938  0.4613 -0.2146 -0.7823
70456SOL    HW123347   8.148   1.028   3.860 -0.1492  2.5911 -1.6410
70456SOL    HW223348   8.283   1.024   3.928 -0.6031 -3.3998 -0.4912
70457SOL     OW23349  13.573   6.940   9.234  0.3656  0.0007 -0.6241
70457SOL    HW123350  13.478   6.940   9.219  0.2980  0.0087 -0.1918
70457SOL    HW223351  13.598   7.032   9.220 -0.0132  0.4382  1.2398
70458SOL     OW23352   9.574   5.976   3.816 -0.5026  0.0295  0.4209
70458SOL    HW123353   9.547   5.886   3.835  0.4489 -0.6552 -1.3078
70458SOL    HW223354   9.618   6.005   3.896  1.7960 -2.1081  0.0459
70459SOL     OW23355   4.101   8.119   2.013  0.1089  0.1758 -0.3839
70459SOL    HW123356   4.070   8.081   1.931  0.8955  1.2536 -1.2233
70459SOL    HW223357   4.184   8.074   2.030 -0.5018 -0.6878  0.3111
70460SOL     OW23358   8.581  10.176   7.385 -0.0523 -0.2035  0.1477
70460SOL    HW123359   8.613  10.162   7.295  1.0324  0.2281  0.4476
70460SOL    HW223360   8.492  10.207   7.374  0.3397  0.6355 -0.8327
70461SOL     OW23361   7.746   6.824   6.125  0.2985  0.0965  0.3001
70461SOL    HW123362   7.832   6.863   6.140 -0.9919  2.6368  1.8211
70461SOL    HW223363   7.734   6.830   6.030  1.6896 -0.0921  0.0900
70462SOL     OW23364   6.598   6.725   6.637  0.3038 -0.1278  0.4069
70462SOL    HW123365   6.687   6.745   6.665  0.0860  1.2997  0.1126
70462SOL    HW223366   6.549   6.806   6.650 -0.6698 -0.5286 -0.5935
70463SOL     OW23367   4.543  10.236  11.103  0.2738  0.0322 -0.3566
70463SOL    HW123368   4.623  10.241  11.050  1.6254 -1.6443  1.3655
70463SOL    HW223369   4.561  10.293  11.177  0.7053 -1.7194  0.9555
70464SOL     OW23370   9.907   2.495   2.378 -0.2881 -0.0693 -0.2772
70464SOL    HW123371   9.922   2.470   2.286 -0.8631  0.4816 -0.5285
70464SOL    HW223372   9.984   2.547   2.402  0.6382 -1.5346  0.0672
70465SOL     OW23373  11.823   7.285   3.423 -0.4608  0.2599  0.0847
70465SOL    HW123374  11.815   7.194   3.452 -1.1272 -0.0432 -0.9984
70465SOL    HW223375  11.740   7.325   3.447 -0.8356  0.1273 -0.9442
70466SOL     OW23376  10.881  12.028   0.556 -0.0153  0.0721  0.2703
70466SOL    HW123377  10.960  12.029   0.502  0.4143 -0.4466  0.8808
70466SOL    HW223378  10.860  11.936   0.566  0.1352  0.1475  1.3123
70467SOL     OW23379  12.792   1.678   6.330  0.2241  0.7740 -0.3386
70467SOL    HW123380  12.879   1.702   6.300  0.6766  0.0503  0.3594
70467SOL    HW223381  12.802   1.589   6.364 -1.3137 -0.3706 -2.5792
70468SOL     OW23382   9.455   6.351   2.598 -0.6436 -0.0567  0.3866
70468SOL    HW123383   9.441   6.263   2.565 -0.6601 -1.3143  3.4106
70468SOL    HW223384   9.549   6.367   2.586 -0.0841 -1.6480  2.2041
70469SOL     OW23385   0.148  13.493   9.150 -0.2646 -0.8597  0.2504
70469SOL    HW123386   0.088  13.450   9.212 -1.6718 -0.0305 -0.4890
70469SOL    HW223387   0.098  13.569   9.118  1.3550  0.1001 -0.0776
70470SOL     OW23388   8.410   2.666  10.079 -0.5489  0.3436  0.4684
70470SOL    HW123389   8.344   2.629  10.138  1.1110 -0.0839  2.1482
70470SOL    HW223390   8.454   2.733  10.132  0.4837  0.4951 -0.5535
70471SOL     OW23391  11.915   6.949  12.649  0.1503  0.1917 -0.1283
70471SOL    HW123392  12.009   6.935  12.649 -0.0576 -2.2738  2.9490
70471SOL    HW223393  11.902   7.030  12.698  0.6499  0.6134 -0.6844
70472SOL     OW23394  10.773   4.607   8.829 -0.0711  0.0076 -1.0725
70472SOL    HW123395  10.801   4.530   8.778  1.0002  0.9782 -2.0133
70472SOL    HW223396  10.854   4.645   8.862 -0.6681  0.1521  0.3009
70473SOL     OW23397  10.226   8.367   5.294  0.7400  0.5249  0.2869
70473SOL    HW123398  10.244   8.440   5.235  2.0171 -1.0254 -1.3870
70473SOL    HW223399  10.285   8.382   5.368  1.3123  0.9652 -0.2430
70474SOL     OW23400  11.888   2.374  13.149 -0.0470 -0.1552  0.4664
70474SOL    HW123401  11.982   2.366  13.132  0.0948  0.3594  0.9477
70474SOL    HW223402  11.851   2.406  13.067 -0.3339 -3.4086 -0.8186
70475SOL     OW23403   7.602   2.914   4.429 -0.0885 -0.4103  0.0861
70475SOL    HW123404   7.562   2.882   4.348 -0.0108 -0.8414  0.2146
70475SOL    HW223405   7.643   2.997   4.404 -0.6425 -0.2008 -0.1588
70476SOL     OW23406   4.549  12.295  12.957  0.2676 -0.0214  0.3857
70476SOL    HW123407   4.564  12.261  12.869  0.7692 -0.5858  0.6820
70476SOL    HW223408   4.610  12.247  13.013 -0.6483 -0.2925  1.1821
70477SOL     OW23409  10.021   8.873   8.556  0.4815  0.7122 -0.6248
70477SOL    HW123410   9.988   8.828   8.633 -1.4622 -1.7101 -2.7013
70477SOL    HW223411  10.117   8.865   8.562  0.3050 -0.9406  0.6573
70478SOL     OW23412   0.838   4.217  13.528 -0.0575  0.1900  0.3188
70478SOL    HW123413   0.917   4.263  13.556 -0.3492  0.6824  0.3511
70478SOL    HW223414   0.866   4.164  13.453  0.1964  0.7584  0.0045
70479SOL     OW23415   3.731   0.796   6.657  0.0872 -0.2882 -0.1412
70479SOL    HW123416   3.749   0.846   6.578  0.8539 -2.1051 -1.1703
70479SOL    HW223417   3.750   0.857   6.729 -0.9127  1.4905 -1.3178
70480SOL     OW23418  10.952   1.695  12.213 -0.0811 -0.3536 -0.2258
70480SOL    HW123419  10.903   1.777  12.200 -0.8195 -1.0716 -2.3067
70480SOL    HW223420  10.900   1.628  12.169  0.3068 -2.0730  1.7513
70481SOL     OW23421   6.944   2.229   0.326 -0.2041  0.2216 -0.0482
70481SOL    HW123422   6.944   2.273   0.411 -2.3182 -0.4265  0.3480
70481SOL    HW223423   7.003   2.154   0.337 -1.0549 -0.3035  1.1310
70482SOL     OW23424   1.396  10.170   2.989 -0.0123 -0.5850 -1.0664
70482SOL    HW123425   1.313  10.174   3.036  0.8096 -1.5016  0.5438
70482SOL    HW223426   1.420  10.262   2.977 -0.5361 -0.3224 -0.2130
70483SOL     OW23427  13.403   1.227   4.589 -0.1754 -0.1126 -0.3916
70483SOL    HW123428  13.484   1.255   4.548 -0.5794 -0.5297 -1.5068
70483SOL    HW223429  13.342   1.298   4.574 -0.6544 -0.7459 -1.5588
70484SOL     OW23430   4.951  13.507  10.119 -0.4550 -0.1314 -0.0454
70484SOL    HW123431   4.910  13.588  10.150 -0.0178 -0.1027  0.4721
70484SOL    HW223432   4.879  13.446  10.106 -0.5752 -0.5806  2.3050
70485SOL     OW23433  10.717  11.302   8.283 -0.2087  0.3035  0.4646
70485SOL    HW123434  10.808  11.281   8.302 -0.2673 -0.2708  0.1370
70485SOL    HW223435  10.694  11.371   8.346  0.5078  0.5985  0.4103
70486SOL     OW23436   2.753  12.011   1.206  0.0226  0.3388  0.0022
70486SOL    HW123437   2.685  11.944   1.200  0.0793  0.1013  1.6421
70486SOL    HW223438   2.820  11.982   1.144 -1.4876  0.7873 -1.9453
70487SOL     OW23439   0.869   2.107   1.667 -0.2668  0.2159  0.2325
70487SOL    HW123440   0.942   2.102   1.605 -0.4049  2.8683 -0.2650
70487SOL    HW223441   0.798   2.058   1.625  0.6657 -0.9292 -0.0714
70488SOL     OW23442  10.454   3.255   6.491 -0.1036 -0.3356  0.0404
70488SOL    HW123443  10.413   3.235   6.575  0.8955  1.1461  0.9330
70488SOL    HW223444  10.536   3.205   6.492  0.5485  0.6988  0.5763
70489SOL     OW23445   5.934  12.882   9.986  0.5803 -0.8884  1.0890
70489SOL    HW123446   5.950  12.898  10.079  0.1613 -0.2360  1.0548
70489SOL    HW223447   5.873  12.951   9.960  1.2154 -0.6512  0.1717
70490SOL     OW23448  13.423   5.726   6.752 -0.0408 -0.6751 -0.2214
70490SOL    HW123449  13.384   5.813   6.766  1.6825  0.3884 -1.5329
70490SOL    HW223450  13.370   5.687   6.684  0.3658  0.2187 -1.0758
70491SOL     OW23451   4.241   1.025  11.197  0.4857  0.2286 -0.1919
70491SOL    HW123452   4.294   1.105  11.204 -0.4889  0.9588 -0.9587
70491SOL    HW223453   4.187   1.026  11.276 -0.1641  0.8144 -0.6339
70492SOL     OW23454   7.794  12.731   4.730 -0.1818  0.1171  0.3682
70492SOL    HW123455   7.761  12.735   4.820  0.1779 -0.4071  0.5314
70492SOL    HW223456   7.889  12.724   4.740 -0.2111 -1.0020 -0.0226
70493SOL     OW23457   3.540   2.159  12.287 -0.3696 -0.1201  0.6670
70493SOL    HW123458   3.451   2.155  12.253 -0.1561 -0.4129  0.1381
70493SOL    HW223459   3.550   2.251  12.314 -0.9537 -0.1729  1.0788
70494SOL     OW23460   9.202   2.633   1.313 -0.8248 -0.1257 -0.4053
70494SOL    HW123461   9.159   2.575   1.376 -1.8646  0.0590 -0.9251
70494SOL    HW223462   9.184   2.595   1.228 -0.8818  0.5477 -0.7029
70495SOL     OW23463   7.400   8.142   6.652  0.1143 -0.2504 -0.4004
70495SOL    HW123464   7.430   8.147   6.562  1.3548  0.8072  0.0421
70495SOL    HW223465   7.469   8.185   6.703 -1.6314  1.2620  0.7938
70496SOL     OW23466   1.983   9.485   5.152 -0.3616  0.7333 -0.2394
70496SOL    HW123467   2.017   9.400   5.122 -0.3592  0.4211  0.6037
70496SOL    HW223468   2.061   9.532   5.180 -0.1785  1.6250 -2.0848
70497SOL     OW23469  10.765   9.014   8.462  0.4185 -0.0020 -0.0395
70497SOL    HW123470  10.703   9.073   8.504  1.9059  0.3164  1.8701
70497SOL    HW223471  10.719   8.982   8.384 -1.8518  0.7064  0.9193
70498SOL     OW23472  12.440   7.476  10.376 -0.2132 -0.0236  0.4122
70498SOL    HW123473  12.450   7.462  10.470  1.4387 -1.0174  0.1249
70498SOL    HW223474  12.444   7.389  10.338  0.2418  0.4474 -0.6591
70499SOL     OW23475  12.929   8.163   9.639 -0.7838 -0.0578 -0.2042
70499SOL    HW123476  12.918   8.088   9.697 -0.5603  0.7212  0.8796
70499SOL    HW223477  12.861   8.224   9.667 -0.0999  0.6975 -0.1521
70500SOL     OW23478   8.424   3.490  12.704 -0.3220  0.2729  0.3573
70500SOL    HW123479   8.452   3.541  12.779 -2.3677  0.8388  0.7816
70500SOL    HW223480   8.478   3.522  12.632  0.1762  1.2522  1.1407
70501SOL     OW23481   3.951   4.700   9.107 -0.4918 -0.0279 -0.0330
70501SOL    HW123482   4.023   4.701   9.171 -1.7879 -0.6673  1.4959
70501SOL    HW223483   3.903   4.781   9.125  0.1515  0.6970 -1.4547
70502SOL     OW23484  11.889  13.217   8.992  0.0251 -0.3354  0.0965
70502SOL    HW123485  11.889  13.149   9.060  0.4252  0.5666  1.0140
70502SOL    HW223486  11.981  13.243   8.985 -0.0671 -0.1863 -0.5519
70503SOL     OW23487   6.536   7.699   0.751  0.4771  0.3567 -0.1126
70503SOL    HW123488   6.460   7.641   0.753  0.7006  0.0208 -1.0513
70503SOL    HW223489   6.588   7.669   0.677  0.9583  1.3155 -0.1847
70504SOL     OW23490   1.174   8.184   0.494  0.2109  0.6064  0.2993
70504SOL    HW123491   1.128   8.209   0.414 -0.3283  0.4820  0.5647
70504SOL    HW223492   1.119   8.217   0.564  0.4472  0.3154  0.6237
70505SOL     OW23493   3.501   6.109   6.701  0.4707  0.3184  0.3040
70505SOL    HW123494   3.484   6.018   6.679 -1.8968  0.8259 -0.2069
70505SOL    HW223495   3.487   6.114   6.795  0.2679  0.2302  0.2782
70506SOL     OW23496   2.468   6.677   1.233 -0.6119 -0.0541 -0.2852
70506SOL    HW123497   2.508   6.762   1.216  1.5633 -0.8359  0.6108
70506SOL    HW223498   2.412   6.691   1.309 -1.3636  0.8633 -0.9941
70507SOL     OW23499  10.467   7.306   9.484 -0.0111 -0.2737 -0.3084
70507SOL    HW123500  10.502   7.280   9.569 -1.6826 -0.3578  0.4014
70507SOL    HW223501  10.462   7.401   9.487  0.3061 -0.2524 -0.4679
70508SOL     OW23502   5.984  13.703   3.975  0.6628  0.3463  0.1071
70508SOL    HW123503   6.019  13.747   3.899 -2.1580  0.0707 -1.5016
70508SOL    HW223504   5.905  13.752   3.998  0.7903 -0.2800  2.1291
70509SOL     OW23505  13.256  11.249   4.973  0.1858 -0.1881  0.3807
70509SOL    HW123506  13.194  11.239   4.902  1.0865 -0.4605 -0.3897
70509SOL    HW223507  13.297  11.335   4.959  2.3940 -1.3798 -1.1542
70510SOL     OW23508   5.865   5.301   0.373  0.0707  0.1630 -0.6706
70510SOL    HW123509   5.936   5.268   0.428 -1.3883 -0.9022  0.6492
70510SOL    HW223510   5.891   5.277   0.284  1.3328 -0.2485 -0.2155
70511SOL     OW23511   6.114   8.268   9.683  0.4335 -0.1407 -0.0811
70511SOL    HW123512   6.149   8.190   9.726  2.6443  1.0210  0.3530
70511SOL    HW223513   6.068   8.316   9.753  1.8590  0.5039  0.4434
70512SOL     OW23514   2.925   5.714  11.532 -0.6072  0.7179 -0.3552
70512SOL    HW123515   2.842   5.667  11.524 -0.1758 -0.4750  1.5122
70512SOL    HW223516   2.907   5.801  11.497 -2.2014  0.0127 -1.4025
70513SOL     OW23517   1.379  11.359   5.642 -0.0764  0.2873  0.0808
70513SOL    HW123518   1.363  11.453   5.632 -0.1845  0.0941 -1.7735
70513SOL    HW223519   1.472  11.349   5.623 -0.3401 -0.1400 -1.0136
70514SOL     OW23520   4.596   0.504   4.762 -0.2977  0.1766  0.2224
70514SOL    HW123521   4.655   0.499   4.687 -0.2473  1.6926  0.1281
70514SOL    HW223522   4.558   0.416   4.768 -0.3115  0.0122 -1.5731
70515SOL     OW23523   5.687  13.062  11.625  0.0091  0.5670  0.4261
70515SOL    HW123524   5.705  13.137  11.569  0.0152 -0.9862 -1.8148
70515SOL    HW223525   5.657  12.994  11.564  0.5431 -1.4270  2.2680
70516SOL     OW23526   5.047   0.437   9.611  0.0385  0.1523 -0.0288
70516SOL    HW123527   5.131   0.464   9.572 -0.3513  0.5642 -0.6079
70516SOL    HW223528   5.000   0.519   9.626 -1.0488 -0.1489 -1.5407
70517SOL     OW23529   5.297   4.706   5.892 -0.0628  0.9907 -0.3645
70517SOL    HW123530   5.203   4.693   5.887  0.0268  0.7519 -1.9410
70517SOL    HW223531   5.308   4.785   5.945 -0.9355 -1.1539  3.3286
70518SOL     OW23532  11.606   7.295  12.896  0.1303 -0.2311  0.2931
70518SOL    HW123533  11.679   7.313  12.956 -0.2698  0.7911  0.4988
70518SOL    HW223534  11.623   7.207  12.863  2.1280  0.4347 -0.6207
70519SOL     OW23535   0.514   5.427  14.016 -0.0831 -0.3377 -0.4233
70519SOL    HW123536   0.586   5.489  14.003 -1.7236  1.5426 -1.0166
70519SOL    HW223537   0.555   5.352  14.059  2.4530  0.1136 -1.8258
70520SOL     OW23538   8.836   8.057   2.786  0.0432 -0.0112 -0.5599
70520SOL    HW123539   8.902   8.023   2.847 -0.5748 -1.1603 -0.5178
70520SOL    HW223540   8.835   7.994   2.713 -0.6953  0.2333 -0.7723
70521SOL     OW23541   4.239   4.503   9.527  0.5205 -0.1219  0.1392
70521SOL    HW123542   4.234   4.568   9.597 -2.2549  0.3869 -0.3972
70521SOL    HW223543   4.315   4.449   9.550  0.1008  0.3816  3.2224
70522SOL     OW23544   6.973  12.271   0.304 -0.5681 -0.1583  0.7144
70522SOL    HW123545   6.933  12.219   0.234  0.4765 -1.2938  0.9215
70522SOL    HW223546   7.067  12.257   0.294 -0.2835  1.2748  1.1296
70523SOL     OW23547   2.206   9.025   9.048  0.0468 -0.5433 -0.4146
70523SOL    HW123548   2.270   8.967   9.007 -0.1565 -0.4515 -0.8712
70523SOL    HW223549   2.252   9.108   9.060  1.1164 -1.4420  2.4419
70524SOL     OW23550  10.664  12.626   1.313  0.2760  0.2159 -0.0955
70524SOL    HW123551  10.712  12.553   1.355 -1.3249 -1.9506 -1.7992
70524SOL    HW223552  10.679  12.613   1.219 -1.3068  1.1747 -0.5059
70525SOL     OW23553   7.437   6.869   1.985 -0.4100 -0.6935 -0.0030
70525SOL    HW123554   7.344   6.879   2.002 -0.1413 -0.3457  1.4100
70525SOL    HW223555   7.479   6.934   2.041  0.6397  0.1005 -1.6277
70526SOL     OW23556   9.169   9.896   4.134 -0.4610 -0.1400 -0.1719
70526SOL    HW123557   9.149   9.881   4.042 -1.0423 -0.8511  0.0611
70526SOL    HW223558   9.148   9.813   4.177  0.5727 -0.0779  0.4798
70527SOL     OW23559  11.597  10.342  12.941  0.0553 -0.6837 -0.4042
70527SOL    HW123560  11.642  10.426  12.947 -1.4532  0.0446  2.1424
70527SOL    HW223561  11.573  10.335  12.848  0.6388  1.4627 -0.7814
70528SOL     OW23562  12.030   3.513   2.335 -0.0248 -0.5444 -0.2140
70528SOL    HW123563  11.949   3.465   2.319  0.1928 -0.1566 -2.9867
70528SOL    HW223564  12.007   3.605   2.321  0.6281 -0.3235  0.1266
70529SOL     OW23565   0.681   4.788   7.987  0.2842  0.0532 -0.0672
70529SOL    HW123566   0.636   4.750   7.911 -1.8230 -0.0852  1.1875
70529SOL    HW223567   0.744   4.721   8.013 -0.3313 -0.7281 -0.5311
70530SOL     OW23568  13.888   0.748   3.482  0.0203 -0.3085 -0.3272
70530SOL    HW123569  13.955   0.797   3.530  0.5087 -0.0529 -1.2324
70530SOL    HW223570  13.866   0.675   3.539 -0.1227  0.5043  0.6972
70531SOL     OW23571   6.673  12.170   8.868 -0.7182  0.3712 -0.1090
70531SOL    HW123572   6.615  12.102   8.834  0.6512 -0.6921 -0.3789
70531SOL    HW223573   6.688  12.229   8.794 -0.7596  0.1792 -0.2679
70532SOL     OW23574   8.938  13.112  12.907  0.5944  0.0595 -0.0482
70532SOL    HW123575   8.878  13.119  12.982  1.8034  0.6277  0.9083
70532SOL    HW223576   9.025  13.101  12.947  1.2447  0.1830 -1.3731
70533SOL     OW23577   5.135   9.686  12.865  0.0211  0.3650 -0.3940
70533SOL    HW123578   5.043   9.695  12.840  0.4308  1.3315 -1.6830
70533SOL    HW223579   5.152   9.592  12.863 -0.6479  0.2540 -1.2942
70534SOL     OW23580   6.997   7.519   0.360 -0.7134  0.0009 -0.1593
70534SOL    HW123581   7.046   7.495   0.281 -0.7024  1.8255 -0.7695
70534SOL    HW223582   6.908   7.487   0.344 -0.2529 -1.4173  0.0020
70535SOL     OW23583  11.302   6.723   2.562  0.3754 -0.5260  0.4550
70535SOL    HW123584  11.246   6.702   2.636 -0.5222 -0.4735 -0.2010
70535SOL    HW223585  11.293   6.818   2.551  0.2601 -0.5783  0.0843
70536SOL     OW23586  12.424   7.019   4.735 -0.3242 -0.1412 -0.2636
70536SOL    HW123587  12.397   7.008   4.827 -0.5039 -0.1044 -0.3118
70536SOL    HW223588  12.492   7.086   4.738 -0.4754  0.0089 -0.1836
70537SOL     OW23589   7.270   5.356   5.180 -0.0326  0.1892 -0.4560
70537SOL    HW123590   7.310   5.442   5.173  0.9780 -0.2880 -0.6599
70537SOL    HW223591   7.177   5.374   5.196 -0.1427  1.3237 -2.1519
70538SOL     OW23592  13.633   7.267   9.980  0.1685 -0.1401 -0.1703
70538SOL    HW123593  13.609   7.281   9.888  0.1649  3.2858  0.2263
70538SOL    HW223594  13.726   7.292   9.984  0.5667 -1.6307  0.5503
70539SOL     OW23595  12.610  10.599   9.834  0.6284  0.1151 -0.2674
70539SOL    HW123596  12.590  10.675   9.780 -0.7073  0.2831  0.4376
70539SOL    HW223597  12.585  10.524   9.780  2.0106  0.1398 -0.9894
70540SOL     OW23598   1.080  10.197   3.447  0.0215 -0.3141 -0.5330
70540SOL    HW123599   1.094  10.124   3.386 -0.3502  1.9131 -3.4952
70540SOL    HW223600   0.985  10.207   3.452  0.0585 -0.2072  0.1365
70541SOL     OW23601   4.431   2.847   5.089  0.3693 -0.7273  0.0925
70541SOL    HW123602   4.396   2.933   5.067  0.9180 -0.5223 -0.0016
70541SOL    HW223603   4.502   2.833   5.026  0.3534 -1.2011  0.1765
70542SOL     OW23604  10.626   3.066   1.856  0.5670 -0.0920 -0.2538
70542SOL    HW123605  10.590   3.146   1.895 -0.9468 -0.3366 -1.0919
70542SOL    HW223606  10.697   3.097   1.800 -2.0265  1.1399 -3.1501
70543SOL     OW23607   0.776  10.562  12.668 -0.0224 -0.1458  0.7826
70543SOL    HW123608   0.756  10.516  12.586  1.3336 -1.9381  1.3897
70543SOL    HW223609   0.785  10.653  12.642  1.2491 -0.7891 -1.2720
70544SOL     OW23610  11.906   4.785  13.973 -0.0287 -0.1548 -0.5126
70544SOL    HW123611  11.987   4.819  14.012 -1.6765  2.9517  0.5242
70544SOL    HW223612  11.904   4.825  13.886  0.0161 -1.0621 -0.9382
70545SOL     OW23613   4.832  13.701   3.986 -0.1424 -0.0287 -0.0002
70545SOL    HW123614   4.780  13.731   4.060 -0.0858  2.4014 -0.8457
70545SOL    HW223615   4.916  13.746   3.996 -0.1537  0.4177 -1.5352
70546SOL     OW23616  12.270   8.616  13.173 -0.0204 -0.2536 -0.3148
70546SOL    HW123617  12.275   8.589  13.264  0.3072 -0.4837 -0.3997
70546SOL    HW223618  12.214   8.551  13.131 -0.2061 -0.1238 -0.2729
70547SOL     OW23619   3.149   1.526   4.630  0.4257 -0.3993 -0.3152
70547SOL    HW123620   3.184   1.570   4.707  0.4556  1.3723 -1.2987
70547SOL    HW223621   3.074   1.580   4.603 -2.1293 -3.1378  0.7471
70548SOL     OW23622  14.006   6.415   0.391 -0.3561  0.0821  0.2788
70548SOL    HW123623  14.016   6.468   0.312 -0.0901  1.5676  1.2740
70548SOL    HW223624  13.922   6.370   0.379 -1.3206  1.8584  0.0135
70549SOL     OW23625   3.043   8.267   9.838  0.2874  0.1290 -0.2084
70549SOL    HW123626   3.090   8.184   9.847  1.2424  0.6808  0.0495
70549SOL    HW223627   3.087   8.311   9.765 -0.7065  0.0874 -0.8405
70550SOL     OW23628  12.690   9.006   5.968  0.7256  0.4930  0.0565
70550SOL    HW123629  12.723   8.916   5.964 -1.2628 -0.2625 -2.4653
70550SOL    HW223630  12.651   9.014   6.055 -0.7012 -1.7934 -0.2938
70551SOL     OW23631   1.175   8.738  12.714 -0.7933 -0.2919 -1.2863
70551SOL    HW123632   1.123   8.816  12.697  0.6233  1.0866  0.3345
70551SOL    HW223633   1.260   8.771  12.742  0.2278 -2.4460 -1.6288
70552SOL     OW23634   6.785   9.313  11.072 -0.5946 -0.0585 -0.1563
70552SOL    HW123635   6.827   9.379  11.017  0.2127  0.3340  0.8918
70552SOL    HW223636   6.697   9.348  11.088  0.2157  1.4343  1.3897
70553SOL     OW23637   7.365   9.290   1.570  0.1314 -0.1272  0.0706
70553SOL    HW123638   7.390   9.198   1.565  1.2386  0.1652 -0.1247
70553SOL    HW223639   7.276   9.289   1.605 -0.5148 -1.3325 -1.4941
70554SOL     OW23640   8.003   0.546   3.661  0.1952  0.1362  0.1637
70554SOL    HW123641   7.957   0.610   3.607 -0.5863  0.3792  1.1049
70554SOL    HW223642   8.047   0.597   3.729 -1.1220 -0.3487  1.4312
70555SOL     OW23643   8.219   9.133  11.115  0.2280  0.2781 -0.2305
70555SOL    HW123644   8.149   9.099  11.170  0.1821  0.7981  0.0429
70555SOL    HW223645   8.207   9.228  11.118  0.3823  0.3237 -0.9303
70556SOL     OW23646   4.849   2.183   5.250 -0.2548  0.2901 -0.2128
70556SOL    HW123647   4.934   2.143   5.266 -0.7489 -0.0358  1.9129
70556SOL    HW223648   4.867   2.255   5.189  1.2352 -0.8226 -1.1517
70557SOL     OW23649   9.128   2.803   7.177 -0.1131 -0.1224 -0.1580
70557SOL    HW123650   9.060   2.736   7.183  1.1596 -1.4689 -0.2826
70557SOL    HW223651   9.082   2.885   7.196 -1.7186 -1.0087 -0.0277
70558SOL     OW23652   4.527   8.536   8.343  0.0086  0.3103  0.3861
70558SOL    HW123653   4.509   8.449   8.379  2.0649 -0.9292 -1.2783
70558SOL    HW223654   4.618   8.553   8.368 -0.1373  1.6806  0.0602
70559SOL     OW23655  12.124  10.393   3.816 -0.0578  0.3456 -0.0982
70559SOL    HW123656  12.186  10.381   3.888 -1.1867 -2.5894  0.5148
70559SOL    HW223657  12.041  10.415   3.860 -0.6159 -0.8888 -0.4859
70560SOL     OW23658  12.760   7.095  11.908 -0.2128 -0.2695  0.1730
70560SOL    HW123659  12.823   7.022  11.912 -1.1643 -1.0968  0.3750
70560SOL    HW223660  12.761   7.133  11.995  0.8170  0.4428 -0.1248
70561SOL     OW23661   4.745  10.524   5.703  0.4698  0.0776  0.2589
70561SOL    HW123662   4.655  10.505   5.675  0.2801  0.3942  0.6475
70561SOL    HW223663   4.776  10.590   5.642  0.3805  0.0928  0.2306
70562SOL     OW23664  10.658   9.914   0.222 -0.3568 -0.1385 -0.1798
70562SOL    HW123665  10.587   9.978   0.231  0.1766  0.3230  0.8870
70562SOL    HW223666  10.634   9.844   0.282  0.3432  0.2707  0.5948
70563SOL     OW23667   6.316   1.482  11.924 -0.3538 -0.1345 -0.0022
70563SOL    HW123668   6.291   1.497  12.015 -1.2831  1.5266 -0.4912
70563SOL    HW223669   6.408   1.509  11.919 -0.3181 -0.1827  0.4327
70564SOL     OW23670   8.711   1.775  12.303 -0.0696 -0.3658  0.2814
70564SOL    HW123671   8.765   1.754  12.379  1.1538  0.8851 -0.1930
70564SOL    HW223672   8.701   1.870  12.307 -1.4552 -0.4737 -0.1842
70565SOL     OW23673  11.827   0.138   0.414 -0.0771  0.5671 -0.5620
70565SOL    HW123674  11.873   0.167   0.493 -2.3424  1.1696  0.5994
70565SOL    HW223675  11.838   0.210   0.352 -0.3956  1.1867  0.0946
70566SOL     OW23676   2.090  12.397   3.818  0.2838  0.1772 -0.0623
70566SOL    HW123677   2.094  12.364   3.907  0.6449 -2.2451 -0.9058
70566SOL    HW223678   2.060  12.323   3.766 -1.2587  1.9041 -1.7992
70567SOL     OW23679  10.268   9.586  11.817 -0.2485 -0.8299  0.3488
70567SOL    HW123680  10.227   9.515  11.867  0.8587 -2.9766 -1.6243
70567SOL    HW223681  10.358   9.590  11.851 -0.0321 -1.0247 -0.1970
70568SOL     OW23682  12.056  11.593   9.944 -0.1935  0.2705 -0.2978
70568SOL    HW123683  12.028  11.507   9.974  0.4380 -0.1866 -1.0145
70568SOL    HW223684  11.996  11.614   9.872 -1.8507  1.4636  1.3363
70569SOL     OW23685  13.703   4.340   4.243 -0.1535  0.0840  0.2503
70569SOL    HW123686  13.725   4.334   4.151  0.0621  0.8155  0.2496
70569SOL    HW223687  13.662   4.255   4.264 -0.7809  0.1531 -0.6606
70570SOL     OW23688   1.490   2.104  13.634 -0.7368 -0.0525 -0.8765
70570SOL    HW123689   1.426   2.101  13.705  0.2317  0.5149  0.0342
70570SOL    HW223690   1.455   2.170  13.574 -0.5039  1.0327  0.1408
70571SOL     OW23691   0.314  11.988   8.900  0.3655 -0.7926  0.1652
70571SOL    HW123692   0.233  11.981   8.950 -0.1522 -0.4089 -0.5861
70571SOL    HW223693   0.288  11.969   8.810  1.0292 -0.2750 -0.1474
70572SOL     OW23694   8.589   8.263   3.308  0.8469  0.4302  0.3476
70572SOL    HW123695   8.676   8.239   3.278  0.0447  0.7821 -2.4703
70572SOL    HW223696   8.532   8.247   3.234 -1.8218 -1.2652  2.5583
70573SOL     OW23697  10.192   2.161   0.349 -0.0433  0.0900  0.3233
70573SOL    HW123698  10.154   2.142   0.263 -2.2141 -2.6350  1.7251
70573SOL    HW223699  10.135   2.229   0.385  1.1565  1.5893 -0.4868
70574SOL     OW23700   9.441  11.011   5.732  0.4764  0.2133  0.1941
70574SOL    HW123701   9.443  10.975   5.821  0.0211  1.1990  0.6209
70574SOL    HW223702   9.475  10.941   5.677 -0.2955 -0.8266  1.0032
70575SOL     OW23703  11.436  13.490  10.288 -0.1290  0.4912 -0.6277
70575SOL    HW123704  11.529  13.500  10.266 -0.5330  1.9935 -1.8067
70575SOL    HW223705  11.400  13.439  10.216 -0.4763  1.1036 -0.8969
70576SOL     OW23706   3.918   0.909   2.967  0.1325 -0.0213  0.1541
70576SOL    HW123707   3.841   0.909   3.024  0.3752 -2.4626  0.6004
70576SOL    HW223708   3.882   0.916   2.879 -0.3368  2.2405  0.4577
70577SOL     OW23709   2.536   8.110   6.661  0.4152  0.2830 -0.1380
70577SOL    HW123710   2.444   8.089   6.676 -0.1537  2.6346  0.0300
70577SOL    HW223711   2.534   8.191   6.611  2.3627  1.4428  1.5103
70578SOL     OW23712   1.988   9.587   6.108  0.2847 -0.1297  0.6144
70578SOL    HW123713   1.949   9.665   6.145 -0.2622  0.0087 -0.2183
70578SOL    HW223714   2.078   9.586   6.141 -0.2407 -0.1567  2.1121
70579SOL     OW23715   7.396   2.231  11.277 -0.5337 -0.2255  0.0663
70579SOL    HW123716   7.382   2.306  11.220 -0.7350 -0.0279  0.3691
70579SOL    HW223717   7.392   2.267  11.366  1.3047 -0.2555  0.1978
70580SOL     OW23718  10.775   9.901   7.515  0.0509  0.3803  0.1115
70580SOL    HW123719  10.788   9.806   7.506  0.7715  0.2545  2.0714
70580SOL    HW223720  10.764   9.932   7.425 -1.5806 -1.7323 -0.4957
70581SOL     OW23721   4.008   2.939   3.795  0.0416 -0.2295 -0.0462
70581SOL    HW123722   4.014   3.034   3.792 -1.1618 -0.1413 -0.0995
70581SOL    HW223723   3.946   2.921   3.866 -0.7163 -0.9273 -0.8684
70582SOL     OW23724   0.212  13.110  12.937 -0.3329 -0.3158 -0.6073
70582SOL    HW123725   0.179  13.174  13.000  0.6970  0.1501 -0.5186
70582SOL    HW223726   0.288  13.070  12.980 -1.6358 -2.4895 -0.1582
70583SOL     OW23727   4.323   3.170  10.479 -0.1520 -0.2785 -0.6496
70583SOL    HW123728   4.303   3.076  10.487 -1.0244 -0.1269 -0.8976
70583SOL    HW223729   4.402   3.182  10.531 -0.7185 -0.9373  0.4173
70584SOL     OW23730   2.226  11.906   7.133 -0.0420  0.5270  0.1599
70584SOL    HW123731   2.295  11.914   7.199  0.6548  0.5178 -0.5572
70584SOL    HW223732   2.179  11.825   7.157  2.2960 -1.3933 -1.2345
70585SOL     OW23733   7.840   8.657  11.087 -0.5896  0.4973 -0.3383
70585SOL    HW123734   7.932   8.681  11.097 -0.6584  1.1325 -1.0818
70585SOL    HW223735   7.809   8.712  11.015 -0.8581 -1.5490 -1.8769
70586SOL     OW23736   0.954   2.678  12.925  0.0107  0.5547 -0.0490
70586SOL    HW123737   0.905   2.597  12.912  0.0210  0.5822 -0.2510
70586SOL    HW223738   0.889   2.741  12.956  0.0738  0.3630  0.4959
70587SOL     OW23739   2.244  12.212  13.944  0.5396  0.1728  0.3937
70587SOL    HW123740   2.191  12.156  14.000  0.9860 -1.1290 -0.4350
70587SOL    HW223741   2.321  12.160  13.924  0.7905  0.9328 -0.7341
70588SOL     OW23742  12.193   5.945   8.770 -0.0526  0.1628 -0.3678
70588SOL    HW123743  12.102   5.943   8.739 -0.1274  1.4255 -0.2784
70588SOL    HW223744  12.195   5.885   8.845 -0.4576 -0.9864 -1.2373
70589SOL     OW23745   4.048   4.178  11.297 -0.4635 -0.2212  0.1848
70589SOL    HW123746   4.049   4.263  11.341 -2.6430  0.5762 -1.1639
70589SOL    HW223747   4.129   4.177  11.246 -1.1895  1.8031 -1.0852
70590SOL     OW23748   4.711   4.238   4.136 -0.2826 -0.0652 -0.2797
70590SOL    HW123749   4.763   4.202   4.207 -0.6971  0.2548  0.1859
70590SOL    HW223750   4.712   4.332   4.150 -1.7538 -0.1146  0.2726
70591SOL     OW23751  12.443   7.492  13.140  0.0079  0.1774  0.0086
70591SOL    HW123752  12.433   7.403  13.176  1.7276 -0.5964 -1.2586
70591SOL    HW223753  12.537   7.508  13.145 -0.1795  1.5498 -0.7005
70592SOL     OW23754  10.167   1.580   0.736  0.0911 -0.3672 -0.0182
70592SOL    HW123755  10.087   1.631   0.748 -1.1395 -2.0070 -0.7896
70592SOL    HW223756  10.233   1.643   0.708 -1.4080  0.7581 -1.1325
70593SOL     OW23757   2.263   8.626   8.330  0.1439 -0.8190  0.3093
70593SOL    HW123758   2.211   8.680   8.390  0.1346  0.5531 -0.8591
70593SOL    HW223759   2.292   8.552   8.383 -1.1411 -0.4656  1.5778
70594SOL     OW23760  12.991  11.682  11.435 -0.2420 -0.2497 -0.0554
70594SOL    HW123761  13.026  11.593  11.429 -0.2833 -0.2074 -0.9257
70594SOL    HW223762  12.939  11.694  11.356  0.1188  0.7029 -0.1620
70595SOL     OW23763   9.909   6.400   4.156  0.2830  0.2524 -0.3249
70595SOL    HW123764   9.932   6.488   4.186  1.6712 -0.9251  2.3862
70595SOL    HW223765   9.993   6.355   4.148 -0.5399 -1.6665  1.2384
70596SOL     OW23766  11.309   2.044   8.678  0.0077  0.1074 -0.1441
70596SOL    HW123767  11.273   1.974   8.732  2.2303 -1.3942 -0.4371
70596SOL    HW223768  11.262   2.123   8.706 -2.7240 -1.4674  0.0902
70597SOL     OW23769   3.365   3.188  12.096 -0.2824  0.1851 -0.2117
70597SOL    HW123770   3.448   3.141  12.098 -0.5774 -0.3781 -0.8592
70597SOL    HW223771   3.337   3.192  12.187 -0.6587 -1.6445 -0.2019
70598SOL     OW23772   4.562  13.486   9.508 -0.3354  0.0339 -0.0892
70598SOL    HW123773   4.520  13.563   9.545 -1.7647 -1.2428  1.0967
70598SOL    HW223774   4.517  13.471   9.425  1.7212  1.9231 -1.6323
70599SOL     OW23775  13.201   7.653   9.199  0.6710  0.1689  0.1406
70599SOL    HW123776  13.172   7.612   9.117  1.0284 -1.7105  0.9055
70599SOL    HW223777  13.177   7.745   9.188  0.8624  0.0236 -2.1371
70600SOL     OW23778   4.468   2.400   1.579 -0.9528 -0.5311  0.0106
70600SOL    HW123779   4.407   2.369   1.646 -1.9119  1.3628  0.0612
70600SOL    HW223780   4.446   2.492   1.566  1.5712  0.1151 -0.3291
70601SOL     OW23781   0.517   7.727   7.279 -0.6887 -0.2782 -0.2011
70601SOL    HW123782   0.511   7.642   7.322  0.0697 -0.5127 -0.5349
70601SOL    HW223783   0.426   7.756   7.269 -0.9057 -0.4724  1.0304
70602SOL     OW23784   7.675   6.602  13.610 -0.0189 -0.6537  0.1389
70602SOL    HW123785   7.582   6.601  13.634  0.3820  0.0466  1.9108
70602SOL    HW223786   7.693   6.694  13.591  0.1674 -0.8932 -0.8684
70603SOL     OW23787   1.446   6.256   5.959 -0.2707  0.0368  0.3303
70603SOL    HW123788   1.494   6.336   5.936  0.7091 -0.5429  0.3216
70603SOL    HW223789   1.405   6.229   5.877 -1.1651  0.8861  0.4766
70604SOL     OW23790   5.374   3.247  11.215  0.4020 -0.3398 -0.1286
70604SOL    HW123791   5.337   3.187  11.279  0.7837 -0.9577 -0.4808
70604SOL    HW223792   5.442   3.295  11.263 -0.3658  0.3149  0.3354
70605SOL     OW23793  11.339   7.304   4.194 -0.2626  0.0271  0.0614
70605SOL    HW123794  11.349   7.358   4.115  0.6020  1.1724  0.9270
70605SOL    HW223795  11.388   7.223   4.173 -0.7587 -0.0437 -0.8833
70606SOL     OW23796   1.394  13.390   6.431 -0.0695  0.4613  0.7385
70606SOL    HW123797   1.397  13.466   6.372  0.0483  0.1888  0.3890
70606SOL    HW223798   1.424  13.317   6.377 -2.3110 -0.2770  0.3649
70607SOL     OW23799   3.689   9.650   8.067  0.0221 -0.5590 -0.4399
70607SOL    HW123800   3.717   9.720   8.127  1.3266 -1.3011 -0.1498
70607SOL    HW223801   3.711   9.683   7.980 -1.3245  0.2654 -0.5017
70608SOL     OW23802   3.214   2.775   8.875 -0.1965 -0.0785  0.5748
70608SOL    HW123803   3.261   2.849   8.913 -0.1501  0.7703 -1.0616
70608SOL    HW223804   3.283   2.716   8.844 -0.2347 -0.4017  1.0892
70609SOL     OW23805  12.756   4.389  10.941 -0.5835 -0.6072 -0.4695
70609SOL    HW123806  12.793   4.405  10.854 -2.4221  0.2537 -1.1502
70609SOL    HW223807  12.709   4.307  10.932 -0.7592 -0.5271 -0.2874
70610SOL     OW23808   5.636   1.784  10.134 -0.3142  1.0907 -0.3182
70610SOL    HW123809   5.584   1.753  10.209  0.5974 -1.4544 -0.6445
70610SOL    HW223810   5.572   1.796  10.065 -0.9063  1.4204  0.2731
70611SOL     OW23811   5.957   2.340   4.601 -0.3753  0.1809 -0.1640
70611SOL    HW123812   5.931   2.432   4.604  0.7800  0.5771 -1.2322
70611SOL    HW223813   6.046   2.341   4.566  0.2124 -1.2621  1.1773
70612SOL     OW23814   0.340   5.857  12.928 -0.4316 -0.0555  0.4118
70612SOL    HW123815   0.374   5.937  12.888  1.4027 -1.1934 -0.4771
70612SOL    HW223816   0.264   5.834  12.874  0.5457 -0.2354 -0.9550
70613SOL     OW23817   8.251   1.701   3.827 -0.1586 -0.2295  0.3828
70613SOL    HW123818   8.156   1.694   3.814 -0.4352  0.8494  1.5869
70613SOL    HW223819   8.271   1.791   3.803  0.1419  0.2633  2.3155
70614SOL     OW23820  13.757   6.313   7.079  0.2646 -0.5347  0.0159
70614SOL    HW123821  13.755   6.317   6.983 -0.5554 -2.5051 -0.0853
70614SOL    HW223822  13.836   6.262   7.099  0.2941 -0.3453  0.3915
70615SOL     OW23823  10.513   0.587   7.277  0.1509  0.4022 -0.5708
70615SOL    HW123824  10.533   0.517   7.340 -0.1707  0.5115 -0.3454
70615SOL    HW223825  10.423   0.612   7.296  0.3695  1.1151 -0.4194
70616SOL     OW23826   4.168   9.686   8.063 -0.2304 -0.3562  0.4398
70616SOL    HW123827   4.155   9.614   8.123 -3.0743  1.2214  1.9153
70616SOL    HW223828   4.126   9.658   7.981 -0.0364 -0.9187  0.5315
70617SOL     OW23829   7.230   4.346   9.582  0.5035  0.3178 -0.4738
70617SOL    HW123830   7.249   4.286   9.510  1.8007 -0.6708  0.6248
70617SOL    HW223831   7.205   4.289   9.655  1.0952  1.1438  0.4061
70618SOL     OW23832   4.480   7.864  11.721 -0.4759 -0.1459  0.0233
70618SOL    HW123833   4.469   7.833  11.632  1.5731 -0.4041 -0.1964
70618SOL    HW223834   4.512   7.954  11.711 -0.6257 -0.0340  0.5172
70619SOL     OW23835   0.122  10.984   9.035 -0.1663  0.1034  0.0503
70619SOL    HW123836   0.051  11.038   9.000 -0.3576 -0.6114 -0.6875
70619SOL    HW223837   0.130  11.012   9.126  0.7936  2.4947 -0.6774
70620SOL     OW23838  10.107   1.835  11.314  0.4639  0.2989 -0.3813
70620SOL    HW123839  10.117   1.780  11.392 -0.2670  0.4882 -0.1469
70620SOL    HW223840  10.140   1.921  11.341  1.4058  0.0408 -0.6817
70621SOL     OW23841   3.663   7.660  11.690  0.1143 -0.3897  0.1002
70621SOL    HW123842   3.634   7.694  11.605 -1.5664 -1.6745  0.1004
70621SOL    HW223843   3.744   7.706  11.708  1.0299 -0.7592 -2.6542
70622SOL     OW23844   2.027   3.284   6.949  0.2809 -0.6508 -0.0847
70622SOL    HW123845   1.994   3.336   6.876  2.2818 -0.4976 -0.9594
70622SOL    HW223846   1.984   3.199   6.940 -1.1011  0.0380 -0.1531
70623SOL     OW23847  13.608  12.626   8.848  0.1273 -0.0908 -0.6046
70623SOL    HW123848  13.571  12.538   8.839 -0.0581  0.0623 -1.4730
70623SOL    HW223849  13.548  12.671   8.907  1.8765 -1.4283  2.4027
70624SOL     OW23850   8.199   2.526   2.625  0.0080  0.0065  0.0619
70624SOL    HW123851   8.286   2.506   2.661 -0.3439  1.0020  1.5534
70624SOL    HW223852   8.138   2.476   2.679 -0.3175 -2.3477 -2.2576
70625SOL     OW23853   9.199   3.496   6.421  0.2609  0.2040  0.5422
70625SOL    HW123854   9.194   3.485   6.326 -0.0728 -2.2109  0.7751
70625SOL    HW223855   9.286   3.466   6.445 -0.1285 -0.4991  1.1231
70626SOL     OW23856   3.465  10.751   1.405  0.4158  0.2772 -0.0175
70626SOL    HW123857   3.518  10.819   1.363  1.1219  0.0973  0.5481
70626SOL    HW223858   3.428  10.701   1.333 -0.7224  1.7032 -0.4598
70627SOL     OW23859   8.152  11.180  11.170 -0.2490 -0.0849 -0.0420
70627SOL    HW123860   8.197  11.259  11.199 -0.1987 -0.6181  1.4530
70627SOL    HW223861   8.214  11.136  11.112 -0.4304  1.1419 -1.1886
70628SOL     OW23862   6.679   4.020   2.547  0.0926  0.6314  0.2667
70628SOL    HW123863   6.718   3.933   2.563 -0.4366  0.4718  0.6963
70628SOL    HW223864   6.591   4.001   2.514  1.2995  0.8890 -3.6621
70629SOL     OW23865  13.972  12.429  11.612  0.3449  0.0563 -0.1821
70629SOL    HW123866  13.922  12.348  11.615  1.4254 -0.7036 -1.6912
70629SOL    HW223867  13.955  12.470  11.697  0.0584 -1.9093  0.7672
70630SOL     OW23868   5.097  10.050  13.466  0.2102  0.1874 -0.7530
70630SOL    HW123869   5.180  10.066  13.512  1.9439 -1.2917 -3.1229
70630SOL    HW223870   5.102   9.958  13.439 -1.3257  0.5889 -2.6070
70631SOL     OW23871   5.343   0.380   3.165 -0.0966  0.3997  0.1819
70631SOL    HW123872   5.343   0.382   3.069 -0.2298 -2.7176  0.0119
70631SOL    HW223873   5.250   0.377   3.188 -0.0664 -2.2148  0.1668
70632SOL     OW23874   8.638   2.879   7.457 -0.2536  0.9419  0.4839
70632SOL    HW123875   8.693   2.956   7.474 -1.5608  1.9463  0.2955
70632SOL    HW223876   8.559   2.894   7.508 -1.5037  0.8593 -1.3654
70633SOL     OW23877   8.337   3.854   3.885 -0.1300  0.1861  0.5109
70633SOL    HW123878   8.296   3.901   3.812  1.2896  1.6716  0.6198
70633SOL    HW223879   8.263   3.823   3.937 -1.1748 -0.7988 -1.4327
70634SOL     OW23880   2.578  11.876   5.726 -0.2140  0.0075  0.3090
70634SOL    HW123881   2.515  11.814   5.763 -1.0432  0.2784 -0.6354
70634SOL    HW223882   2.529  11.957   5.716  0.9119  0.9266  1.7225
70635SOL     OW23883   4.503   0.767   8.020  0.1279 -0.1847 -0.0306
70635SOL    HW123884   4.543   0.730   8.099 -0.9574 -1.9580 -0.2538
70635SOL    HW223885   4.577   0.783   7.961  0.7477 -0.8980  0.5323
70636SOL     OW23886   2.490   4.919  12.424  0.6495  0.4874  0.6971
70636SOL    HW123887   2.510   5.009  12.451  1.1970  0.3441  0.7842
70636SOL    HW223888   2.468   4.875  12.506 -0.1202  0.6675  0.5904
70637SOL     OW23889   8.074  11.959  10.838  0.3445 -0.3478  0.2162
70637SOL    HW123890   8.151  11.902  10.844 -0.9901 -2.1562  1.0484
70637SOL    HW223891   8.045  11.970  10.928 -0.2868  0.4735 -0.0760
70638SOL     OW23892   6.720   0.715  13.608 -0.0026 -0.7797  0.5533
70638SOL    HW123893   6.668   0.792  13.585  1.1797 -0.5645 -1.7289
70638SOL    HW223894   6.659   0.642  13.599 -0.5986 -0.3025  0.6166
70639SOL     OW23895   1.238   5.799   4.148 -0.3095  0.4234 -0.0598
70639SOL    HW123896   1.231   5.887   4.111 -0.3607  0.2899 -0.3704
70639SOL    HW223897   1.326   5.795   4.185 -1.2335  1.6078  2.5600
70640SOL     OW23898  12.795  12.600   0.477  0.1063 -0.3271 -0.1944
70640SOL    HW123899  12.746  12.580   0.557  0.8802 -1.7016 -0.0267
70640SOL    HW223900  12.876  12.550   0.486 -0.7370 -2.3949 -2.8447
70641SOL     OW23901   8.292   5.157  13.432  0.2390  0.4965 -0.5110
70641SOL    HW123902   8.228   5.164  13.361 -0.6059 -0.9215  0.0749
70641SOL    HW223903   8.372   5.194  13.395 -0.9964  2.7766 -1.0940
70642SOL     OW23904   7.733  13.759   2.591 -0.0111 -0.3862  0.0885
70642SOL    HW123905   7.655  13.724   2.548 -0.6237 -1.8130  2.1951
70642SOL    HW223906   7.806  13.729   2.537 -0.8549  0.6498 -1.7077
70643SOL     OW23907  13.267   9.713  13.162  0.0236 -0.3806  0.8100
70643SOL    HW123908  13.276   9.628  13.120 -0.6268 -0.3915  0.6736
70643SOL    HW223909  13.189   9.704  13.217 -1.1749  0.7004 -0.6377
70644SOL     OW23910   9.024   4.344   0.953  0.2121 -0.3150  0.2015
70644SOL    HW123911   8.951   4.287   0.979 -1.0368  0.3122 -1.7444
70644SOL    HW223912   9.071   4.360   1.035  0.4931 -3.8532  0.9190
70645SOL     OW23913   2.385   1.450   5.172  0.2681  0.7584 -0.3590
70645SOL    HW123914   2.348   1.432   5.259  1.7493  0.7750  0.3012
70645SOL    HW223915   2.402   1.544   5.173  0.2854  0.7591 -0.6796
70646SOL     OW23916   2.338  10.225   3.098  0.0672  0.0456 -0.5620
70646SOL    HW123917   2.256  10.177   3.091 -0.2253  0.4873 -0.1623
70646SOL    HW223918   2.351  10.238   3.191  0.4748  0.1899 -0.6348
70647SOL     OW23919   7.881   1.389  12.388  0.0424  0.7790 -0.3513
70647SOL    HW123920   7.889   1.478  12.421  1.9105  1.0125 -1.2983
70647SOL    HW223921   7.926   1.390  12.304  0.8602 -1.2560  0.0002
70648SOL     OW23922  10.689   5.417   3.008  0.1218 -0.5788 -0.0300
70648SOL    HW123923  10.755   5.403   3.076 -0.9867 -1.6057  0.8846
70648SOL    HW223924  10.729   5.382   2.928  1.7539  1.3536 -0.1208
70649SOL     OW23925   7.250   6.662   5.714  0.5445 -0.4247  0.2710
70649SOL    HW123926   7.228   6.634   5.625  0.9239 -2.5433  0.7927
70649SOL    HW223927   7.309   6.736   5.702 -0.7198  0.3992 -1.2060
70650SOL     OW23928   3.642   5.148   6.809 -0.1024  0.0489 -0.3298
70650SOL    HW123929   3.639   5.055   6.829  2.0289  0.1509  0.8020
70650SOL    HW223930   3.701   5.154   6.734 -0.5972  0.4408 -0.6846
70651SOL     OW23931   0.438   2.761   1.304  0.4841 -0.0966  0.0886
70651SOL    HW123932   0.381   2.684   1.312  1.2662 -0.6947  0.0453
70651SOL    HW223933   0.497   2.755   1.378  1.2443 -0.1301 -0.5119
70652SOL     OW23934   3.950   2.703  12.369 -0.3825  0.1334 -0.1289
70652SOL    HW123935   3.983   2.793  12.373 -0.5589  0.1680  0.9939
70652SOL    HW223936   3.935   2.687  12.276  0.5996  0.9139 -0.4434
70653SOL     OW23937   6.611   6.419  12.361  0.4265  0.1865 -0.3172
70653SOL    HW123938   6.552   6.383  12.294  0.1224  2.4709 -1.3611
70653SOL    HW223939   6.554   6.440  12.434  0.4896 -0.6409 -0.0139
70654SOL     OW23940   0.078   0.167   9.950  0.6991  0.3667 -0.2886
70654SOL    HW123941   0.068   0.214  10.033 -0.5275  2.0687 -1.3616
70654SOL    HW223942   0.150   0.106   9.967  0.2161  0.3430  2.1592
70655SOL     OW23943   4.224   7.902   2.747  0.0677  0.1889 -0.1962
70655SOL    HW123944   4.317   7.923   2.742  0.1168 -0.1107 -0.5250
70655SOL    HW223945   4.220   7.821   2.798 -0.1351  1.0484  1.2407
70656SOL     OW23946  13.644  11.919  11.663  0.2571 -0.2944  0.3376
70656SOL    HW123947  13.601  11.996  11.627  1.5030  0.7329  0.9601
70656SOL    HW223948  13.697  11.952  11.736  1.9174 -1.4812 -0.2465
70657SOL     OW23949   2.926  13.330  13.554 -0.3006 -0.7622 -0.2182
70657SOL    HW123950   2.874  13.321  13.634 -2.3975  1.3075 -1.2130
70657SOL    HW223951   2.879  13.276  13.490 -0.9784  0.6779 -0.9871
70658SOL     OW23952   7.701   0.910   9.438 -0.1118  0.2262  0.4325
70658SOL    HW123953   7.777   0.861   9.470 -0.4736 -0.8384 -0.2855
70658SOL    HW223954   7.676   0.866   9.357 -0.1258  1.9625 -0.5535
70659SOL     OW23955   2.142   9.420   9.153 -0.6637 -0.3307 -0.2078
70659SOL    HW123956   2.071   9.402   9.215 -0.4721 -0.4807 -0.0357
70659SOL    HW223957   2.098   9.423   9.067 -1.0540  0.6135  0.0091
70660SOL     OW23958  13.481   2.398  12.843  0.0354  0.1486 -0.4014
70660SOL    HW123959  13.536   2.433  12.773 -0.3823  0.3843 -0.6190
70660SOL    HW223960  13.408   2.356  12.797  0.1539 -0.3711 -0.1230
70661SOL     OW23961   1.296   7.264   4.614  0.9007 -0.5745  0.2809
70661SOL    HW123962   1.297   7.300   4.525  1.4980  0.8380  0.8179
70661SOL    HW223963   1.203   7.254   4.635  0.7660 -1.4069 -0.6788
70662SOL     OW23964   2.612  11.127   7.862 -0.0401  0.0640  0.3760
70662SOL    HW123965   2.675  11.074   7.812 -0.5706 -0.1777 -0.0519
70662SOL    HW223966   2.536  11.070   7.872 -0.2012  0.3617  0.8715
70663SOL     OW23967   6.663   0.151  12.463  0.4670  0.1307 -0.2885
70663SOL    HW123968   6.700   0.134  12.550  0.5176 -0.3038 -0.3939
70663SOL    HW223969   6.732   0.126  12.402 -0.9261 -3.4978 -0.6119
70664SOL     OW23970   8.791   6.435  13.530  0.3829 -0.1016  0.3520
70664SOL    HW123971   8.746   6.507  13.487  0.5986  0.3529  0.8823
70664SOL    HW223972   8.823   6.472  13.612  0.3911 -0.8306  0.6853
70665SOL     OW23973   7.929   3.889  10.814 -0.3974  0.5989 -0.2546
70665SOL    HW123974   7.891   3.803  10.799 -1.7342  1.3832 -1.7069
70665SOL    HW223975   7.861   3.950  10.784  1.1476  2.1145 -0.8015
70666SOL     OW23976   1.738  11.149   5.438 -0.7193 -0.3514  0.2360
70666SOL    HW123977   1.738  11.067   5.388 -1.3737 -0.2521  0.0722
70666SOL    HW223978   1.765  11.216   5.375  2.7233 -0.7934  1.0111
70667SOL     OW23979  11.550   8.899  10.959  0.1376  0.1009 -0.1097
70667SOL    HW123980  11.492   8.852  10.900 -0.0543  1.7948 -1.3279
70667SOL    HW223981  11.637   8.861  10.942  0.1218  0.6944 -1.6719
70668SOL     OW23982   1.715   2.270   8.526 -0.1129 -0.5427 -0.0837
70668SOL    HW123983   1.623   2.245   8.528  0.2604 -2.1467 -0.7240
70668SOL    HW223984   1.755   2.222   8.598  0.2009  0.2585  0.2818
70669SOL     OW23985   0.154   0.730   2.114 -0.3266  0.3859 -0.3168
70669SOL    HW123986   0.109   0.809   2.086 -0.1657 -0.2004 -2.4439
70669SOL    HW223987   0.117   0.709   2.199 -2.0297  1.4781 -0.7468
70670SOL     OW23988   1.420  12.077   1.984  0.1191  0.8625 -0.1753
70670SOL    HW123989   1.452  11.987   1.972 -0.8508  0.1860  1.7810
70670SOL    HW223990   1.424  12.116   1.897  2.5178 -0.3938 -0.7224
70671SOL     OW23991   8.750  11.775   3.309  0.1530 -0.0420  0.1329
70671SOL    HW123992   8.802  11.795   3.387  1.1066  1.4265 -0.8247
70671SOL    HW223993   8.793  11.823   3.239 -0.8938 -1.0436 -1.2467
70672SOL     OW23994   8.555  13.834   8.036 -0.0514  0.2800 -0.1580
70672SOL    HW123995   8.639  13.791   8.050 -1.4998 -2.2734  1.6265
70672SOL    HW223996   8.575  13.910   7.982  3.7914  1.3859  2.3799
70673SOL     OW23997   8.382   5.554   1.327  0.4717  0.3381  0.0011
70673SOL    HW123998   8.297   5.579   1.363  0.4669  2.7955 -1.4218
70673SOL    HW223999   8.364   5.475   1.276 -0.5601 -0.2034  1.1501
70674SOL     OW24000   7.088   1.498   8.952 -0.0808 -0.2213 -0.0593
70674SOL    HW124001   7.104   1.412   8.990 -2.1410 -1.3388 -1.5577
70674SOL    HW224002   7.168   1.519   8.905 -0.0553 -2.0155 -0.8838
70675SOL     OW24003  11.574   6.033   8.706 -0.1039  0.3106  0.4213
70675SOL    HW124004  11.644   6.057   8.768 -0.5632  1.5529  0.4929
70675SOL    HW224005  11.602   6.070   8.623  0.1237 -0.6624  0.0546
70676SOL     OW24006   2.277   5.169   0.535 -0.0387  0.2247  0.1580
70676SOL    HW124007   2.193   5.173   0.490 -0.9745  1.6256  1.9100
70676SOL    HW224008   2.291   5.258   0.568  0.5896 -0.7037  2.5957
70677SOL     OW24009   0.656   8.440  13.988 -0.0599  0.3890 -0.1499
70677SOL    HW124010   0.715   8.429  13.914 -1.2314  1.4811 -1.3023
70677SOL    HW224011   0.675   8.528  14.021  1.7439 -0.7144  2.1158
70678SOL     OW24012   0.074   9.169   9.237  0.3818  0.0433  0.4082
70678SOL    HW124013   0.067   9.217   9.154  2.1016  0.7781  0.6406
70678SOL    HW224014   0.087   9.078   9.212 -2.0758 -0.2708 -0.0500
70679SOL     OW24015  12.849   8.766   1.950  0.1757  0.2115 -0.3859
70679SOL    HW124016  12.930   8.817   1.960  0.3178 -0.0851  0.0034
70679SOL    HW224017  12.780   8.824   1.981  0.3342  0.1821  0.0314
70680SOL     OW24018   7.619   7.389   7.852 -0.2083  0.0505  0.4130
70680SOL    HW124019   7.644   7.312   7.902 -0.0887 -0.0891  0.1368
70680SOL    HW224020   7.646   7.463   7.907 -0.4974 -0.0998  0.7643
70681SOL     OW24021   0.685  12.608   3.118  0.1239 -0.8743 -0.4335
70681SOL    HW124022   0.613  12.546   3.115 -1.5463  1.0038 -1.1195
70681SOL    HW224023   0.706  12.617   3.211 -0.7278 -1.2194 -0.2050
70682SOL     OW24024   8.250   9.309   4.912  0.1498  0.1057  0.4146
70682SOL    HW124025   8.184   9.328   4.978 -0.4802  1.8735 -0.6364
70682SOL    HW224026   8.203   9.309   4.829  1.3275  0.6460 -0.2915
70683SOL     OW24027  11.440  13.920   4.656  0.3184 -0.3523 -0.1071
70683SOL    HW124028  11.402  14.006   4.675 -0.4615 -0.6087 -0.4486
70683SOL    HW224029  11.461  13.924   4.562  0.7929 -0.3464 -0.0028
70684SOL     OW24030   9.619  13.720   1.992 -0.1460 -0.6143 -0.0184
70684SOL    HW124031   9.556  13.691   1.926 -1.5699 -1.2794  1.5375
70684SOL    HW224032   9.586  13.682   2.074  1.2085  0.6574  1.1731
70685SOL     OW24033  12.918   7.906   7.502 -0.3885  0.3422  0.4446
70685SOL    HW124034  12.981   7.837   7.478 -2.1642 -1.1848 -0.0809
70685SOL    HW224035  12.905   7.956   7.422  0.1868  0.7045  0.5728
70686SOL     OW24036  13.687   1.656   4.009  0.1269  0.0791 -0.1385
70686SOL    HW124037  13.680   1.676   4.102 -0.6820 -0.7083 -0.0203
70686SOL    HW224038  13.630   1.720   3.966 -2.3927 -1.7649  0.2341
70687SOL     OW24039  10.003  12.494  10.221  0.2256 -0.0225  0.3991
70687SOL    HW124040  10.085  12.455  10.191 -0.3615 -0.5755 -0.5539
70687SOL    HW224041  10.020  12.587  10.226  1.2174 -0.2327  1.2315
70688SOL     OW24042   4.468   3.098   8.775  0.8028  0.2393  0.1248
70688SOL    HW124043   4.525   3.024   8.796 -0.7634 -0.9364  0.4759
70688SOL    HW224044   4.468   3.152   8.853  1.1080  0.0208  0.2766
70689SOL     OW24045   6.635   4.398   2.575  0.2623 -0.3459  0.1581
70689SOL    HW124046   6.586   4.368   2.652  2.3659 -2.1420  0.9331
70689SOL    HW224047   6.658   4.488   2.595 -1.1501 -0.0485  0.5665
70690SOL     OW24048   6.575   2.092   5.878 -0.1258  0.5075 -0.2660
70690SOL    HW124049   6.616   2.034   5.942 -0.8649 -0.5663 -0.7401
70690SOL    HW224050   6.482   2.072   5.883 -0.3943  1.6400 -0.4724
70691SOL     OW24051  11.791   0.402  11.520 -0.6801  0.3887  0.5238
70691SOL    HW124052  11.714   0.358  11.556 -1.5995 -0.1990 -2.0102
70691SOL    HW224053  11.864   0.344  11.543 -1.1536  0.1962  1.6399
70692SOL     OW24054  11.315   7.814   5.209  0.7080 -0.3175  0.1268
70692SOL    HW124055  11.273   7.762   5.140 -1.2279  0.3968  0.6758
70692SOL    HW224056  11.325   7.901   5.171 -1.8135  0.5186  1.1249
70693SOL     OW24057   0.763   5.531   9.083 -0.3685 -0.3681  0.5998
70693SOL    HW124058   0.858   5.517   9.092 -0.5664 -2.3597  0.0565
70693SOL    HW224059   0.746   5.519   8.989 -0.8835  2.2608  0.2775
70694SOL     OW24060   4.581   5.440  13.224 -0.1294  0.6466  0.0363
70694SOL    HW124061   4.511   5.413  13.164 -1.8922  1.0544  1.7891
70694SOL    HW224062   4.631   5.360  13.240 -1.6539 -0.2549  0.5454
70695SOL     OW24063   3.183   4.344   3.098  0.2654 -0.2090 -0.1546
70695SOL    HW124064   3.223   4.421   3.139  3.1799 -0.8344 -1.5002
70695SOL    HW224065   3.105   4.378   3.054 -0.4976  1.2511  2.1773
70696SOL     OW24066   1.695   2.407   2.059 -0.0868  0.2044 -0.3392
70696SOL    HW124067   1.612   2.450   2.041  0.2847  0.7131 -0.8970
70696SOL    HW224068   1.718   2.436   2.148 -0.9890 -0.7596  0.2199
70697SOL     OW24069   8.303   9.275   0.066  0.1504 -0.2692  0.1718
70697SOL    HW124070   8.360   9.300   0.139  1.3087 -0.1112 -0.7463
70697SOL    HW224071   8.363   9.261  -0.007 -0.8263 -2.0865 -0.3326
70698SOL     OW24072   6.428   0.516  13.598 -0.6528 -0.3578 -0.1066
70698SOL    HW124073   6.454   0.453  13.531 -2.7079 -0.6103 -0.7441
70698SOL    HW224074   6.354   0.563  13.559 -1.2101  0.2351  1.5746
70699SOL     OW24075   8.345  13.769   8.388  0.1478 -0.0125 -0.1139
70699SOL    HW124076   8.317  13.824   8.461 -0.4159 -1.2481  0.6346
70699SOL    HW224077   8.265  13.756   8.336 -0.4362 -2.3137  1.2107
70700SOL     OW24078   8.719   6.720  12.172 -0.0748 -0.1507  0.8141
70700SOL    HW124079   8.642   6.704  12.227  1.0841 -1.1002  2.2484
70700SOL    HW224080   8.733   6.637  12.126 -0.6720  0.4466 -0.5009
70701SOL     OW24081   1.703   1.433  13.069  0.0918  0.3698 -0.1130
70701SOL    HW124082   1.727   1.412  12.979  0.3217 -0.3734  0.1181
70701SOL    HW224083   1.642   1.363  13.095 -1.5290  1.6310 -0.3375
70702SOL     OW24084  10.186  12.376   4.576  0.6288 -0.6800 -0.2771
70702SOL    HW124085  10.094  12.390   4.554  0.5052  0.8810  1.0122
70702SOL    HW224086  10.184  12.321   4.654  0.6883  0.5296  0.6099
70703SOL     OW24087   7.097   7.749  10.346  0.2586  0.2047  0.4114
70703SOL    HW124088   7.184   7.776  10.374  0.6476  0.5416 -1.0257
70703SOL    HW224089   7.041   7.764  10.422  1.4337  0.0320  1.3331
70704SOL     OW24090   2.716   7.937   7.929  0.0827 -0.2808 -0.5692
70704SOL    HW124091   2.629   7.909   7.958 -0.8396  2.1642 -0.7328
70704SOL    HW224092   2.763   7.958   8.010  0.6046 -1.7156 -0.4735
70705SOL     OW24093   7.887  12.518   7.499 -0.3376 -0.3345  0.5773
70705SOL    HW124094   7.974  12.505   7.538  0.0031 -1.2144 -0.4054
70705SOL    HW224095   7.829  12.463   7.552  0.1230 -1.5340 -0.1085
70706SOL     OW24096   8.989   8.040  12.465 -0.4090  0.0372 -0.2106
70706SOL    HW124097   9.001   8.092  12.385  2.8147 -0.1453 -0.0054
70706SOL    HW224098   9.014   8.099  12.536 -0.6184 -0.5965  0.4017
70707SOL     OW24099  12.051   5.695   8.334  0.3288  0.0255  0.6185
70707SOL    HW124100  12.057   5.602   8.313 -0.0219  0.4023 -1.3431
70707SOL    HW224101  12.133   5.715   8.380  1.5448 -0.7518 -1.1066
70708SOL     OW24102   2.671   5.059   7.299 -0.3834 -0.5925 -0.1113
70708SOL    HW124103   2.719   4.983   7.266 -1.2018 -0.7953 -0.8735
70708SOL    HW224104   2.719   5.135   7.265 -1.3751 -0.7885 -2.1260
70709SOL     OW24105   3.154   0.924   8.320 -0.1992 -0.8476 -0.1777
70709SOL    HW124106   3.152   0.828   8.329 -0.2425 -1.0878 -2.3181
70709SOL    HW224107   3.182   0.939   8.230 -1.3020  1.1459 -0.2426
70710SOL     OW24108  13.692  10.736  10.308  0.2392 -0.7792  0.0642
70710SOL    HW124109  13.737  10.766  10.387  0.0807 -0.4982  0.0483
70710SOL    HW224110  13.763  10.713  10.247  0.3588 -0.5843  0.1307
70711SOL     OW24111   0.367   7.595  11.588 -0.5554 -0.5984  0.1109
70711SOL    HW124112   0.457   7.568  11.601  0.4646  1.6263 -1.5989
70711SOL    HW224113   0.317   7.546  11.653  1.6886 -2.7715  0.3266
70712SOL     OW24114   0.632  13.748   3.139 -0.4206 -0.1411 -0.1488
70712SOL    HW124115   0.598  13.836   3.121  1.7007  0.9818  0.9532
70712SOL    HW224116   0.727  13.756   3.128 -0.2948 -2.8386 -1.9802
70713SOL     OW24117   3.558  10.263  11.219 -0.3322 -0.4609  0.0122
70713SOL    HW124118   3.549  10.323  11.294  0.3909  2.9030 -2.3492
70713SOL    HW224119   3.642  10.219  11.234  0.0363  0.5115  0.9624
70714SOL     OW24120   3.317   6.530   1.339  0.4183  0.0289 -0.5327
70714SOL    HW124121   3.360   6.446   1.320  1.5465  0.3083  0.6162
70714SOL    HW224122   3.240   6.531   1.282  0.9597 -1.3074 -1.3505
70715SOL     OW24123  10.324   7.646  12.070  0.2644 -0.0948  0.3092
70715SOL    HW124124  10.230   7.662  12.078  0.3984  0.0668  1.9567
70715SOL    HW224125  10.358   7.724  12.025 -0.3638 -0.0811 -0.1489
70716SOL     OW24126  10.478  11.981   6.734  0.0114  0.2502 -0.4879
70716SOL    HW124127  10.531  11.910   6.771 -0.5289 -0.2355 -0.6268
70716SOL    HW224128  10.522  12.061   6.762  0.3768 -0.1350  0.0595
70717SOL     OW24129   8.654  10.612  13.289 -0.3142  0.4227 -0.3805
70717SOL    HW124130   8.675  10.687  13.344 -0.7884 -0.2215  0.7328
70717SOL    HW224131   8.576  10.574  13.331  0.0076 -0.7640 -0.8295
70718SOL     OW24132  11.130   4.278  10.269  0.5505  0.3361 -0.0536
70718SOL    HW124133  11.044   4.256  10.234  0.2095  2.7127 -0.8718
70718SOL    HW224134  11.113   4.346  10.335  1.6348 -0.7676  1.4566
70719SOL     OW24135   4.143   4.085   9.257 -0.1745 -0.0094  0.1104
70719SOL    HW124136   4.113   4.128   9.176  1.2888  1.2835  0.2004
70719SOL    HW224137   4.120   4.147   9.326  0.1503 -0.3000  0.4802
70720SOL     OW24138   3.510   8.087   1.246  0.3732 -0.4444  0.7779
70720SOL    HW124139   3.452   8.012   1.236 -0.0430 -0.1553  1.0071
70720SOL    HW224140   3.533   8.113   1.157  1.4720 -1.5712  0.7043
70721SOL     OW24141  10.274   6.012   9.113 -0.5070 -0.2243 -0.1684
70721SOL    HW124142  10.324   5.989   9.192 -2.3535 -1.1395  0.8060
70721SOL    HW224143  10.340   6.037   9.049  1.0445  1.6369  1.9878
70722SOL     OW24144   1.843   5.849   3.802 -0.6157 -0.6557  0.2422
70722SOL    HW124145   1.808   5.919   3.857  2.1550  0.9820  0.1084
70722SOL    HW224146   1.771   5.824   3.745 -2.1549  0.9490  1.3908
70723SOL     OW24147   2.030  10.880  11.534  0.3513  0.2954  0.2892
70723SOL    HW124148   2.048  10.948  11.469  1.2744  0.0808  0.3081
70723SOL    HW224149   2.108  10.825  11.534  0.2902  0.1826  1.4610
70724SOL     OW24150   4.812   2.469  13.701 -0.0521  0.2565  0.3872
70724SOL    HW124151   4.758   2.506  13.772  2.3484 -0.2458  2.6278
70724SOL    HW224152   4.806   2.374  13.714  0.5103  0.1672  0.0095
70725SOL     OW24153   8.801   4.762   9.447 -0.6209  0.3996  0.0572
70725SOL    HW124154   8.824   4.848   9.483 -0.9032 -0.2773  1.9459
70725SOL    HW224155   8.851   4.700   9.501 -1.4542 -0.6897 -0.3992
70726SOL     OW24156   5.144  11.554   6.104 -0.0786  0.3048 -0.1488
70726SOL    HW124157   5.050  11.553   6.086 -0.0311 -2.4040 -0.5817
70726SOL    HW224158   5.168  11.647   6.098 -2.6194  1.0170 -0.4583
70727SOL     OW24159  13.192   3.907   6.959  0.2040 -0.6278 -0.7464
70727SOL    HW124160  13.138   3.853   6.901 -1.9352  0.0875  0.4723
70727SOL    HW224161  13.188   3.995   6.920  1.2294 -0.7281 -1.1060
70728SOL     OW24162  10.667   5.356  11.792  0.2831  0.0692 -0.2834
70728SOL    HW124163  10.624   5.338  11.709 -1.4999 -0.4337  0.6814
70728SOL    HW224164  10.680   5.451  11.793 -1.1565  0.2911 -0.4872
70729SOL     OW24165   6.177   1.371   9.258  0.1433  0.0823  0.9107
70729SOL    HW124166   6.084   1.395   9.251 -0.2528 -1.6521 -0.2977
70729SOL    HW224167   6.185   1.330   9.344 -0.2447  0.1151  0.9647
70730SOL     OW24168  13.791   6.868   3.546 -0.3921  0.2915  0.4191
70730SOL    HW124169  13.863   6.849   3.486  0.9192 -0.5231  2.1580
70730SOL    HW224170  13.833   6.873   3.632 -2.1330  1.8573  1.2338
70731SOL     OW24171   0.146   0.785  11.400  0.3630 -0.5200  0.0386
70731SOL    HW124172   0.151   0.729  11.478  1.7859 -0.6491 -0.1042
70731SOL    HW224173   0.053   0.796  11.383  0.0502 -1.5263  1.0194
70732SOL     OW24174   6.472  11.443  11.218 -0.0442 -0.5815  0.2375
70732SOL    HW124175   6.431  11.358  11.238 -1.6745  0.1651  0.2286
70732SOL    HW224176   6.523  11.427  11.138 -1.5994 -1.2140 -0.6821
70733SOL     OW24177  10.108  13.182   1.677 -0.1585 -0.3210  0.2893
70733SOL    HW124178  10.154  13.125   1.739  0.3283 -0.3396 -0.0895
70733SOL    HW224179  10.031  13.212   1.726  0.4227 -0.0238  1.0362
70734SOL     OW24180   3.300  12.719  13.890  0.7095  0.4435 -0.5745
70734SOL    HW124181   3.360  12.764  13.830  1.3198 -0.7628 -0.9126
70734SOL    HW224182   3.337  12.735  13.977  1.1303  0.3069 -0.7243
70735SOL     OW24183   5.013   4.703   5.843 -0.4143  0.6938 -0.0181
70735SOL    HW124184   4.937   4.650   5.869  0.2737  0.4574  1.6406
70735SOL    HW224185   4.977   4.769   5.783 -1.4936 -0.8786 -1.1836
70736SOL     OW24186  13.465   2.498   8.630 -0.6000 -0.5016  1.0265
70736SOL    HW124187  13.412   2.561   8.581 -0.8537 -1.2618  0.2990
70736SOL    HW224188  13.462   2.529   8.721 -1.1046  0.2621  0.7550
70737SOL     OW24189  12.901   9.687   6.310 -0.1507 -0.3416 -0.5995
70737SOL    HW124190  12.944   9.757   6.261 -0.1657 -0.7627 -1.2271
70737SOL    HW224191  12.936   9.694   6.399  0.5976 -0.1648 -0.9018
70738SOL     OW24192   0.413   5.492   7.806 -0.3409  0.2607 -0.0768
70738SOL    HW124193   0.500   5.534   7.808  0.5767 -1.1661 -3.0753
70738SOL    HW224194   0.432   5.399   7.807 -1.8212 -0.0782 -0.8053
70739SOL     OW24195   3.120  13.948   0.221 -0.6022 -0.0393 -0.1426
70739SOL    HW124196   3.035  13.904   0.227 -0.2142 -0.8912 -0.6945
70739SOL    HW224197   3.102  14.030   0.177 -1.0987 -0.3482 -0.5266
70740SOL     OW24198   4.995   7.313   3.836  0.1405 -0.1016  0.3489
70740SOL    HW124199   5.046   7.373   3.782 -0.2975  0.3006  0.3802
70740SOL    HW224200   4.904   7.325   3.808  0.1643 -1.6268 -0.4990
70741SOL     OW24201  13.023  10.276   5.374 -0.1855 -0.0331  0.0593
70741SOL    HW124202  13.054  10.208   5.316  0.9793  0.1455  0.4525
70741SOL    HW224203  12.937  10.245   5.405  1.0320 -2.1331  1.5320
70742SOL     OW24204   0.148   1.984   0.773  0.6131 -0.0157  0.3840
70742SOL    HW124205   0.089   2.044   0.820  1.0181  0.4122  0.3515
70742SOL    HW224206   0.097   1.955   0.697  0.7742  1.1068 -0.1742
70743SOL     OW24207  13.713   0.976  13.417 -0.3699 -0.0925 -0.0399
70743SOL    HW124208  13.760   0.949  13.496 -1.5433 -2.2784 -0.0091
70743SOL    HW224209  13.780   0.985  13.350  0.4482  0.1635  0.7983
70744SOL     OW24210  13.343   9.865   4.169 -0.2378  0.3208 -0.6001
70744SOL    HW124211  13.358   9.797   4.104 -1.7974  0.1986 -0.8591
70744SOL    HW224212  13.248   9.865   4.183 -0.0946  1.3810  0.5471
70745SOL     OW24213  12.564   5.103   1.229  0.5469 -0.6808  0.1191
70745SOL    HW124214  12.535   5.036   1.168 -0.5682 -0.2655  0.1719
70745SOL    HW224215  12.586   5.056   1.309  0.1248 -1.0228  0.0347
70746SOL     OW24216  12.480  10.773   4.059  0.0647  0.0677 -0.2624
70746SOL    HW124217  12.527  10.797   4.139  0.7851 -1.0476 -0.3285
70746SOL    HW224218  12.397  10.738   4.090 -0.3183  1.0701 -0.0970
70747SOL     OW24219  13.754  10.282  11.682  0.2957  0.3134 -0.2819
70747SOL    HW124220  13.690  10.286  11.612 -0.1324 -1.1577 -0.0094
70747SOL    HW224221  13.834  10.250  11.641 -0.5350 -2.6918  0.1858
70748SOL     OW24222   2.084   0.785  12.827  0.2020 -0.2094  0.3733
70748SOL    HW124223   2.080   0.706  12.882 -0.0511 -0.4390  0.0287
70748SOL    HW224224   2.117   0.754  12.743  1.0802  0.2306  0.5414
70749SOL     OW24225  12.419   2.774   8.198 -0.0171  0.0913  0.1806
70749SOL    HW124226  12.513   2.790   8.209 -0.3721  1.0988  2.3451
70749SOL    HW224227  12.382   2.792   8.284 -1.8645 -3.0654  0.1628
70750SOL     OW24228   4.511   8.879   3.890  0.7117  0.3580 -0.4031
70750SOL    HW124229   4.491   8.822   3.963 -0.2337 -0.3769 -1.2067
70750SOL    HW224230   4.566   8.948   3.927  1.3396 -0.7055  0.7164
70751SOL     OW24231   9.786   0.281   4.185 -0.1818  0.6328  0.1902
70751SOL    HW124232   9.777   0.365   4.140  0.6222  0.3428 -0.5264
70751SOL    HW224233   9.745   0.296   4.271 -2.8368  0.8421 -1.0129
70752SOL     OW24234   5.174  10.076   1.686  0.1991 -0.2545  0.5112
70752SOL    HW124235   5.180  10.082   1.591  0.0154  0.7218  0.5541
70752SOL    HW224236   5.112  10.145   1.711  0.2705 -0.4747  1.3432
70753SOL     OW24237   1.215   7.847  12.816 -0.4845 -0.0707  0.8730
70753SOL    HW124238   1.146   7.912  12.803 -0.5344  0.3108  2.7772
70753SOL    HW224239   1.183   7.792  12.887 -0.0479 -1.6755 -0.1081
70754SOL     OW24240  13.128   1.515   7.803  0.0336  0.0790 -0.1068
70754SOL    HW124241  13.222   1.494   7.800 -0.5279 -2.8075 -1.3216
70754SOL    HW224242  13.100   1.513   7.712 -1.1170  1.6985  0.1670
70755SOL     OW24243   5.538  11.983  13.665  0.1323  0.5052 -0.1413
70755SOL    HW124244   5.586  12.040  13.606  0.7919 -0.4751 -0.5761
70755SOL    HW224245   5.599  11.964  13.736  1.3781 -2.6182 -1.8301
70756SOL     OW24246  10.597   7.882   7.218 -0.2022 -0.1834 -0.3241
70756SOL    HW124247  10.560   7.794   7.215 -0.1403 -0.1957 -2.6441
70756SOL    HW224248  10.583   7.917   7.130 -0.9563  2.4617  0.7221
70757SOL     OW24249   4.610   3.742  11.576 -0.3762  0.5530  0.3175
70757SOL    HW124250   4.580   3.800  11.505 -0.7646  0.6944  0.5925
70757SOL    HW224251   4.694   3.708  11.545 -0.8690  0.0617 -0.5200
70758SOL     OW24252   6.581  11.312   1.771 -0.0199  0.5073 -0.1196
70758SOL    HW124253   6.548  11.354   1.851  1.4636  0.0566  0.7701
70758SOL    HW224254   6.503  11.274   1.730 -1.0053  1.8997  0.3952
70759SOL     OW24255  12.074   4.694  11.356 -0.3808 -0.0147 -0.0213
70759SOL    HW124256  12.128   4.717  11.433 -0.3002  0.1745 -0.1343
70759SOL    HW224257  12.080   4.770  11.299 -1.3207  0.2884  0.2629
70760SOL     OW24258   8.530   5.867   8.258 -0.1459  0.4296  0.2098
70760SOL    HW124259   8.540   5.832   8.347  1.7654 -0.6237 -0.3443
70760SOL    HW224260   8.484   5.798   8.210  0.3808  0.2263 -0.0138
70761SOL     OW24261  12.021   6.398   4.170  0.2052  0.3610  0.1096
70761SOL    HW124262  11.983   6.333   4.111 -0.3277 -0.5158  1.3648
70761SOL    HW224263  12.116   6.385   4.163  0.0988 -0.6893  0.4695
70762SOL     OW24264   5.549   1.387   7.306  0.4172  0.2906 -0.1547
70762SOL    HW124265   5.489   1.414   7.237  0.0755 -0.2662 -0.0815
70762SOL    HW224266   5.634   1.380   7.263 -0.0886 -1.7562 -0.9633
70763SOL     OW24267  13.566  13.196   8.796  0.0034 -0.0982 -0.3055
70763SOL    HW124268  13.562  13.168   8.887 -0.2353  2.1366  0.4512
70763SOL    HW224269  13.475  13.207   8.770  0.0745  1.6273  0.0439
70764SOL     OW24270   9.135   8.741  13.422  0.1993 -0.3044  0.4610
70764SOL    HW124271   9.169   8.716  13.336 -1.0688  0.7417 -0.3995
70764SOL    HW224272   9.082   8.819  13.404 -0.7207 -0.5235  2.0716
70765SOL     OW24273  11.168   0.183   7.966  0.4422  0.3138  0.3399
70765SOL    HW124274  11.107   0.180   7.892  0.2875 -1.2234  0.4967
70765SOL    HW224275  11.123   0.237   8.032 -1.1213 -1.3400  0.7165
70766SOL     OW24276   9.125   0.337   7.529  0.0238 -0.2839 -0.2415
70766SOL    HW124277   9.139   0.404   7.596 -1.1575 -1.3706  1.1623
70766SOL    HW224278   9.209   0.291   7.524 -0.4261 -1.5264  2.0989
70767SOL     OW24279   3.178   0.853   4.688  0.2552  0.4357  0.1573
70767SOL    HW124280   3.141   0.766   4.670 -2.2092  0.5954  3.5741
70767SOL    HW224281   3.247   0.837   4.752  0.9366  0.9262 -0.4262
70768SOL     OW24282  10.366   6.680  11.998  0.1471 -0.4481 -0.0702
70768SOL    HW124283  10.347   6.597  12.042 -0.5055 -0.8909 -1.1487
70768SOL    HW224284  10.280   6.719  11.981  0.4484  0.6398  0.7280
70769SOL     OW24285  12.665   1.566  12.343 -0.3504 -0.5308 -0.2075
70769SOL    HW124286  12.656   1.649  12.296 -1.7962 -1.5706 -1.8559
70769SOL    HW224287  12.711   1.508  12.282 -0.6029 -1.3755  0.3768
70770SOL     OW24288   8.487   7.997   1.914 -0.0476 -0.1825  0.8027
70770SOL    HW124289   8.478   8.037   2.001 -2.3801  1.2092  0.0398
70770SOL    HW224290   8.415   7.934   1.910 -0.1670  0.0112 -0.2195
70771SOL     OW24291  13.445  12.794  13.585 -0.2710 -0.6009 -0.9926
70771SOL    HW124292  13.484  12.762  13.666  0.0992  0.8991 -0.5556
70771SOL    HW224293  13.363  12.835  13.612 -1.0945 -1.7447 -1.6356
70772SOL     OW24294   0.636   0.767   5.973 -0.3302  0.3542 -0.1388
70772SOL    HW124295   0.548   0.729   5.982  0.8451 -2.3012  1.2251
70772SOL    HW224296   0.628   0.854   6.013 -2.1521 -0.1581  0.7356
70773SOL     OW24297   7.223   4.447   7.679  0.2990  0.1603 -0.3320
70773SOL    HW124298   7.157   4.474   7.743 -0.1692  0.5588 -0.9713
70773SOL    HW224299   7.237   4.524   7.625 -1.2150 -0.8640 -2.3327
70774SOL     OW24300   0.310   1.529  12.148  0.2291  0.7339 -0.2338
70774SOL    HW124301   0.337   1.440  12.171  1.7995  1.1592 -0.3350
70774SOL    HW224302   0.242   1.517  12.082  1.3592 -0.4046 -1.2551
70775SOL     OW24303   0.977   5.092   9.456  0.1265 -0.0741  0.0491
70775SOL    HW124304   1.004   5.177   9.489 -0.5360 -0.1608  0.8350
70775SOL    HW224305   1.053   5.060   9.408  0.5776  0.7078  0.2277
70776SOL     OW24306   6.269   2.280   9.048  0.0601  0.0369 -0.3152
70776SOL    HW124307   6.330   2.209   9.068 -0.1266  0.5594  2.4903
70776SOL    HW224308   6.183   2.238   9.047  0.1362 -0.1115 -0.7265
70777SOL     OW24309   3.291  12.081   2.280  0.5960  0.1620  0.0249
70777SOL    HW124310   3.339  12.124   2.351  0.9350 -0.9424  0.4792
70777SOL    HW224311   3.306  11.988   2.294 -3.0334 -0.3699  1.1648
70778SOL     OW24312   2.437   2.259  10.400  0.0826 -0.3483 -0.4130
70778SOL    HW124313   2.464   2.193  10.464 -0.9459 -1.0079 -0.6428
70778SOL    HW224314   2.345   2.277  10.421 -0.4760 -1.0555 -2.0821
70779SOL     OW24315  11.831   0.295   9.248  0.3189  0.3009 -0.3466
70779SOL    HW124316  11.867   0.248   9.173  2.1564  0.8524  0.1191
70779SOL    HW224317  11.767   0.355   9.211 -0.6030 -1.1371 -1.1603
70780SOL     OW24318   8.551   6.207  12.865 -0.6146  0.1647  0.7018
70780SOL    HW124319   8.538   6.254  12.948  0.8360  0.3090  0.8716
70780SOL    HW224320   8.600   6.129  12.889 -2.7805 -1.3790  0.3784
70781SOL     OW24321  10.405   9.641   6.146  0.1512  0.2858  0.1561
70781SOL    HW124322  10.460   9.696   6.202 -0.0469  0.1602  0.4781
70781SOL    HW224323  10.362   9.580   6.206  0.3409 -0.2032 -0.1895
70782SOL     OW24324   9.925   0.641   4.384  0.9563 -0.5026 -0.0553
70782SOL    HW124325   9.954   0.598   4.304  0.5563  0.5224 -0.7681
70782SOL    HW224326   9.858   0.583   4.420  0.8877 -0.7928 -0.6444
70783SOL     OW24327   1.325  14.027   4.428  0.4982 -0.6569  0.2814
70783SOL    HW124328   1.300  14.114   4.395  0.1853 -0.5637  0.7606
70783SOL    HW224329   1.313  14.033   4.523  2.2125 -0.6606  0.5185
70784SOL     OW24330   3.419   7.865   3.254  0.1408 -0.0934  0.0567
70784SOL    HW124331   3.436   7.897   3.343  0.7620  0.2809 -0.1936
70784SOL    HW224332   3.412   7.770   3.264  2.1015 -0.2502  0.2303
70785SOL     OW24333  12.930   9.968   2.978 -0.2578 -0.2034  0.2279
70785SOL    HW124334  12.993   9.999   3.043 -1.2184  2.2513  0.1217
70785SOL    HW224335  12.866  10.039   2.971 -1.8764 -1.6948 -1.1905
70786SOL     OW24336   5.836   5.031  13.192  0.0407  0.1726  0.0986
70786SOL    HW124337   5.888   5.059  13.117 -1.1132  0.3177 -0.6768
70786SOL    HW224338   5.795   5.111  13.224 -1.3357 -0.2040 -0.6136
70787SOL     OW24339   7.181   7.898   1.468  0.5313 -0.1895  0.0775
70787SOL    HW124340   7.117   7.885   1.539  0.3047 -2.3529 -0.4539
70787SOL    HW224341   7.250   7.834   1.486  0.8804 -0.1939 -1.1795
70788SOL     OW24342  12.271   0.771   6.926 -0.4169 -0.1054 -0.3624
70788SOL    HW124343  12.253   0.843   6.987 -0.9906 -0.5418 -0.0066
70788SOL    HW224344  12.188   0.724   6.919  0.1480 -1.1929  0.0124
70789SOL     OW24345   7.588   2.921  12.853 -0.0036 -0.1027 -0.1803
70789SOL    HW124346   7.532   2.906  12.776  0.3243 -1.8497 -0.1006
70789SOL    HW224347   7.652   2.851  12.850  1.1466  0.8747  0.7060
70790SOL     OW24348   9.171  13.591   5.343  0.3892 -0.2184 -0.0147
70790SOL    HW124349   9.102  13.649   5.374 -0.6330 -0.9054 -0.9415
70790SOL    HW224350   9.145  13.504   5.372  0.5403 -0.5687 -0.8924
70791SOL     OW24351   6.774  11.227   4.235  0.4306 -0.1529 -0.1709
70791SOL    HW124352   6.837  11.237   4.307  0.4444  1.8893 -0.3861
70791SOL    HW224353   6.807  11.153   4.184  0.7133 -1.3143  1.6023
70792SOL     OW24354   5.018   8.466   9.588 -0.0844  0.1349  0.5696
70792SOL    HW124355   4.963   8.463   9.666  0.5131  1.1931  1.0556
70792SOL    HW224356   4.975   8.529   9.530  0.3682  0.6313  0.7665
70793SOL     OW24357  13.163   3.163  13.572 -0.5698 -0.3729  0.2968
70793SOL    HW124358  13.226   3.213  13.623  1.6273 -0.4643 -2.1373
70793SOL    HW224359  13.119   3.229  13.517 -1.4338 -0.5334  0.7681
70794SOL     OW24360   8.474   2.784   3.971  0.2937 -0.3868  0.3895
70794SOL    HW124361   8.428   2.769   4.054 -1.2242  0.7644 -0.1876
70794SOL    HW224362   8.455   2.706   3.919  1.8339 -1.4355  1.3260
70795SOL     OW24363  11.770  11.247   0.132  0.5709 -0.3433  0.1244
70795SOL    HW124364  11.746  11.339   0.124  0.7582 -0.2805  0.2744
70795SOL    HW224365  11.805  11.224   0.046  0.6354 -0.2415  0.1231
70796SOL     OW24366  13.973  13.418   4.861 -0.1581 -0.6556  0.0925
70796SOL    HW124367  13.917  13.351   4.822  0.1828 -1.3742  0.8176
70796SOL    HW224368  13.916  13.494   4.871 -0.0617 -0.1575 -2.5233
70797SOL     OW24369   9.704  11.825   0.181 -0.2633 -0.7932 -0.1509
70797SOL    HW124370   9.760  11.865   0.248  0.1290 -0.0395 -0.9080
70797SOL    HW224371   9.684  11.896   0.120 -0.6950 -1.4400 -0.7927
70798SOL     OW24372   1.542   7.477   1.630  0.4690  0.0600  0.1328
70798SOL    HW124373   1.525   7.448   1.719 -0.5194 -1.2548 -0.4478
70798SOL    HW224374   1.636   7.463   1.617  0.0378 -3.4638 -0.2256
70799SOL     OW24375   4.131  13.329   4.323 -0.2425  0.5372 -0.2077
70799SOL    HW124376   4.062  13.385   4.360  0.5606 -0.1085  2.5635
70799SOL    HW224377   4.114  13.243   4.362  1.7705  0.2327  0.0640
70800SOL     OW24378  11.528   0.789  11.011 -0.5129 -0.4019 -0.6462
70800SOL    HW124379  11.457   0.838  10.970 -2.6009 -2.3249  0.4280
70800SOL    HW224380  11.508   0.790  11.104 -0.6237 -3.0810 -0.5579
70801SOL     OW24381   9.991  13.260  10.730 -0.6944  0.0876 -0.7285
70801SOL    HW124382   9.962  13.310  10.653  2.0202 -1.0005 -2.6532
70801SOL    HW224383  10.070  13.307  10.759 -0.1111 -1.0840 -0.3893
70802SOL     OW24384   6.346   2.180   0.603 -0.5533 -0.2788 -0.1295
70802SOL    HW124385   6.410   2.112   0.584  0.5047  0.1738  1.6036
70802SOL    HW224386   6.319   2.213   0.517  0.3996 -1.5112 -0.9263
70803SOL     OW24387   4.796   7.905   3.001 -0.2432 -0.4691 -0.5528
70803SOL    HW124388   4.770   7.986   3.046  0.4824 -2.1775  3.3059
70803SOL    HW224389   4.726   7.843   3.021  1.1830 -1.9131  0.0617
70804SOL     OW24390  13.373   8.083  11.515  0.0522  0.4625  0.6861
70804SOL    HW124391  13.303   8.138  11.551  0.3211  0.8275  0.6480
70804SOL    HW224392  13.427   8.143  11.463  1.4810  0.5781  2.2264
70805SOL     OW24393  11.061   1.249  10.203 -0.2022  0.2391  0.1975
70805SOL    HW124394  10.967   1.260  10.217 -0.1965 -0.0174  0.4491
70805SOL    HW224395  11.088   1.329  10.157 -0.2739  0.9723  1.3962
70806SOL     OW24396  11.958  10.940  11.637  0.1024  0.0471 -0.2228
70806SOL    HW124397  11.901  10.970  11.707  0.6891  1.0948 -0.1744
70806SOL    HW224398  11.958  11.011  11.574  1.8990  0.3903  0.1032
70807SOL     OW24399  12.583   2.635   7.150 -0.1609  0.0975  0.1404
70807SOL    HW124400  12.508   2.583   7.123 -0.9883  1.3546 -0.0480
70807SOL    HW224401  12.632   2.652   7.069  0.8926 -1.5246  0.3891
70808SOL     OW24402  10.139   1.521  11.890 -0.1214  0.2549 -0.2337
70808SOL    HW124403  10.087   1.475  11.824 -1.9964  1.0828  0.6130
70808SOL    HW224404  10.219   1.547  11.843 -0.5257 -0.8929 -1.6160
70809SOL     OW24405   6.905   9.386   9.473  0.1736  0.0213  0.5814
70809SOL    HW124406   6.954   9.424   9.401  1.5131 -0.2311  1.3238
70809SOL    HW224407   6.875   9.461   9.525 -2.0571  0.2954 -0.9496
70810SOL     OW24408   3.785   4.421   1.170 -0.2457 -0.1967  0.2790
70810SOL    HW124409   3.824   4.355   1.227  2.3837  0.1072 -1.0488
70810SOL    HW224410   3.842   4.497   1.178 -0.1054  0.0492 -2.2867
70811SOL     OW24411   2.116  12.907   0.845  0.4625  0.0483 -0.2059
70811SOL    HW124412   2.092  12.921   0.753 -0.5329 -0.0430  0.0250
70811SOL    HW224413   2.207  12.879   0.843  0.1164 -1.0804 -1.2546
70812SOL     OW24414   8.532   4.094   4.045  0.3299  0.0563 -0.1638
70812SOL    HW124415   8.535   4.009   4.089 -0.8639 -0.2782 -0.6784
70812SOL    HW224416   8.439   4.110   4.031  0.5391  1.4599 -0.0774
70813SOL     OW24417   8.624   7.072  12.669  0.3360 -0.6358 -0.2654
70813SOL    HW124418   8.649   7.162  12.648  1.0735 -1.2327 -2.1543
70813SOL    HW224419   8.556   7.081  12.736 -0.1561  1.3562 -0.9600
70814SOL     OW24420   3.718   5.838  13.488  0.0095  0.2683 -0.0707
70814SOL    HW124421   3.663   5.917  13.491 -0.1747  0.2686 -2.0572
70814SOL    HW224422   3.737   5.826  13.395  1.0185 -1.3777  0.3117
70815SOL     OW24423   1.878  11.016  12.236 -0.3450  0.1910  0.1313
70815SOL    HW124424   1.957  10.973  12.204 -0.0153  0.3846  0.6698
70815SOL    HW224425   1.833  10.949  12.286 -0.0713  0.3242  0.5666
70816SOL     OW24426   2.129  11.356   5.375  0.2097  0.3277  0.0984
70816SOL    HW124427   2.201  11.401   5.331  0.6736  0.5455  1.0707
70816SOL    HW224428   2.158  11.265   5.382  0.4414  0.4343  0.5745
70817SOL     OW24429   2.688   4.791   2.194 -0.3251  0.4947 -0.4359
70817SOL    HW124430   2.739   4.796   2.275  0.0577  0.7260 -0.6800
70817SOL    HW224431   2.643   4.875   2.189  0.5777  0.9677 -1.0390
70818SOL     OW24432   8.525   1.142   6.889  0.7554 -0.2428 -0.2402
70818SOL    HW124433   8.530   1.207   6.960  0.6865 -0.4271 -0.0666
70818SOL    HW224434   8.437   1.154   6.852  0.4345 -0.7989  0.3313
70819SOL     OW24435   5.233   7.799   5.666 -0.6040 -0.2488 -0.0242
70819SOL    HW124436   5.190   7.804   5.751  0.1104  0.3014  0.3104
70819SOL    HW224437   5.174   7.745   5.613 -1.5790  0.2792  0.4975
70820SOL     OW24438   2.615   9.556  12.097  0.0110 -0.0448 -0.3428
70820SOL    HW124439   2.649   9.480  12.050 -0.5243  0.5967 -1.8403
70820SOL    HW224440   2.668   9.630  12.066 -0.7995  0.4990 -0.4890
70821SOL     OW24441   5.990   4.478  10.580 -0.6716 -0.5224  0.0885
70821SOL    HW124442   5.961   4.440  10.664  0.4616 -2.4059 -0.2982
70821SOL    HW224443   6.022   4.565  10.603 -1.0669 -0.7203  1.4999
70822SOL     OW24444   1.613   2.149  12.536  0.2309  0.0103 -0.5183
70822SOL    HW124445   1.528   2.111  12.516  0.5048 -1.0811  0.3195
70822SOL    HW224446   1.597   2.207  12.610 -0.0846  1.1604 -1.4548
70823SOL     OW24447   9.221   7.630  10.514  0.5278  0.0603  0.1796
70823SOL    HW124448   9.258   7.647  10.600  1.5271 -1.6377  0.1082
70823SOL    HW224449   9.133   7.667  10.519  0.2729 -0.7014  2.1853
70824SOL     OW24450   9.967   9.189   1.587  0.1518 -0.3372  0.1511
70824SOL    HW124451  10.016   9.113   1.557  0.3615 -0.8257  1.6154
70824SOL    HW224452   9.876   9.163   1.582  0.2393 -0.8411  0.9840
70825SOL     OW24453   8.906  12.466   9.999  0.8809  0.3532 -0.3645
70825SOL    HW124454   8.825  12.487   9.953  0.2833 -0.5192  0.2621
70825SOL    HW224455   8.909  12.528  10.072  0.1511 -0.3879  0.3104
70826SOL     OW24456   1.752   4.733   9.435 -0.4319  0.0770 -0.3728
70826SOL    HW124457   1.770   4.641   9.455 -0.2019 -0.0073 -0.9547
70826SOL    HW224458   1.733   4.772   9.520  1.9330  0.0561  0.2253
70827SOL     OW24459   2.418   8.855   0.737 -0.5039  0.3061 -0.4277
70827SOL    HW124460   2.407   8.789   0.668  1.5630 -1.2337  0.6185
70827SOL    HW224461   2.459   8.929   0.693  4.2163 -1.9678 -0.4368
70828SOL     OW24462   6.119   0.710   1.108  0.0044  0.3290 -0.0831
70828SOL    HW124463   6.173   0.686   1.183  0.5977  0.6927 -0.3815
70828SOL    HW224464   6.040   0.749   1.146 -0.0775 -0.2478  0.3605
70829SOL     OW24465   2.128   0.748   6.714  0.2428  0.9397  0.2444
70829SOL    HW124466   2.071   0.824   6.708  0.9368  1.4271 -0.4314
70829SOL    HW224467   2.101   0.703   6.795  0.3389  2.3298  1.0712
70830SOL     OW24468  12.056   0.681   7.640  0.5379 -0.1990  0.8614
70830SOL    HW124469  12.007   0.633   7.574 -0.5125  3.2591 -1.1801
70830SOL    HW224470  11.999   0.682   7.717 -1.5929  1.5101 -0.5958
70831SOL     OW24471   8.499  13.271  11.635  0.3122 -0.5252 -0.0391
70831SOL    HW124472   8.439  13.335  11.673  0.3940 -0.4371 -0.0590
70831SOL    HW224473   8.447  13.191  11.627  0.2919 -0.5410  0.2517
70832SOL     OW24474   4.851   9.662  12.754 -0.7748 -0.1843 -0.0100
70832SOL    HW124475   4.757   9.676  12.745 -0.7587  0.8354  1.2065
70832SOL    HW224476   4.884   9.663  12.664 -1.9045 -0.4984 -0.4469
70833SOL     OW24477  11.726  10.673   9.792 -0.0073 -0.2130 -0.0224
70833SOL    HW124478  11.776  10.639   9.718  0.8565 -0.9790  0.8877
70833SOL    HW224479  11.647  10.711   9.753  0.4487 -0.5768 -1.3252
70834SOL     OW24480   6.576  10.423  11.039 -0.4652  0.4987  0.2926
70834SOL    HW124481   6.670  10.420  11.028 -0.7953 -0.7382 -3.0833
70834SOL    HW224482   6.555  10.517  11.042  0.8156  0.7825  1.1462
70835SOL     OW24483   3.535  11.415   0.825 -0.4806  0.0350  0.2284
70835SOL    HW124484   3.588  11.383   0.752 -0.7178 -1.1347  0.5547
70835SOL    HW224485   3.579  11.495   0.853  0.7114 -0.5269  0.0244
70836SOL     OW24486   2.082  10.527  13.003 -0.4592 -0.1499  0.0650
70836SOL    HW124487   2.139  10.506  12.929  0.7265 -0.1402  0.9503
70836SOL    HW224488   2.070  10.622  12.997  1.1625  0.1370  0.9253
70837SOL     OW24489   0.978   1.465   7.666  0.1280  0.0713  0.4634
70837SOL    HW124490   0.988   1.557   7.641 -1.0422  0.0841 -0.0473
70837SOL    HW224491   1.009   1.462   7.757  0.1631  0.9811  0.4990
70838SOL     OW24492   7.283   5.629  13.204  0.0446 -1.2195  0.2772
70838SOL    HW124493   7.234   5.557  13.244 -1.9156 -0.8635 -1.3618
70838SOL    HW224494   7.221   5.701  13.197  1.2396 -0.2074 -0.4465
70839SOL     OW24495   4.691  13.341  13.618 -0.2029 -0.2332  0.5695
70839SOL    HW124496   4.754  13.329  13.547  1.6139 -2.1412  2.3349
70839SOL    HW224497   4.685  13.435  13.629  1.1231  0.0438 -0.7333
70840SOL     OW24498  13.765   3.576   8.432  0.7206 -0.6038  0.1443
70840SOL    HW124499  13.740   3.488   8.458  2.6999 -0.8269  1.4581
70840SOL    HW224500  13.803   3.565   8.345 -0.9756 -0.6737 -0.6310
70841SOL     OW24501   8.467   2.490   2.680  0.0925  0.0305 -0.4340
70841SOL    HW124502   8.523   2.484   2.758 -1.4763  1.8063  0.9268
70841SOL    HW224503   8.504   2.561   2.629 -0.5864  0.8721  0.2187
70842SOL     OW24504   0.334   6.933  11.920 -0.0444 -0.3095  0.1146
70842SOL    HW124505   0.426   6.922  11.943 -0.6060 -1.6629  2.0202
70842SOL    HW224506   0.302   6.999  11.982 -0.6971 -1.0748  0.6217
70843SOL     OW24507   8.095   0.751   7.861  0.7791  0.4911  0.1941
70843SOL    HW124508   8.026   0.725   7.800  2.5078 -0.2714 -1.5294
70843SOL    HW224509   8.048   0.784   7.937 -1.4813  0.2578 -1.0111
70844SOL     OW24510   4.499   0.311   9.097 -0.3582 -0.7440  0.0144
70844SOL    HW124511   4.547   0.366   9.035  0.8892 -3.2042 -1.3481
70844SOL    HW224512   4.546   0.322   9.180 -1.7357  2.1803  0.5672
70845SOL     OW24513  11.276   3.204  10.795  0.5687 -0.3208 -0.0949
70845SOL    HW124514  11.214   3.261  10.749  0.5502 -0.8342 -0.7244
70845SOL    HW224515  11.221   3.139  10.838  0.6714 -1.1536 -1.1669
70846SOL     OW24516   2.808  10.667   7.914 -0.2384  0.0278  0.4782
70846SOL    HW124517   2.830  10.582   7.877 -2.6229 -0.9216  1.0411
70846SOL    HW224518   2.878  10.684   7.978  0.3581 -1.4211  0.2526
70847SOL     OW24519  10.519  12.140  10.163 -0.1645 -0.1257 -0.8347
70847SOL    HW124520  10.445  12.079  10.166 -0.8828  0.4997 -3.3660
70847SOL    HW224521  10.589  12.091  10.119  0.3692 -0.1477  0.0121
70848SOL     OW24522  13.700  10.995  13.261 -0.1916 -0.4613 -0.0679
70848SOL    HW124523  13.763  10.970  13.328  0.5930 -0.2806 -0.7232
70848SOL    HW224524  13.628  10.932  13.271 -0.1247 -0.3923  0.9754
70849SOL     OW24525   6.639   3.232   2.265 -0.2734  0.4126  0.3225
70849SOL    HW124526   6.662   3.276   2.346  1.1159 -0.5390  0.4778
70849SOL    HW224527   6.706   3.259   2.202  1.2604 -2.1989  0.7014
70850SOL     OW24528   7.286  10.674   6.169  0.1407  0.2381  0.4019
70850SOL    HW124529   7.236  10.740   6.121 -1.1771 -1.0449 -0.0634
70850SOL    HW224530   7.237  10.661   6.250  0.4341 -0.0779  0.5307
70851SOL     OW24531   6.920   2.139   3.608  0.5823  0.1106  0.0026
70851SOL    HW124532   6.826   2.157   3.609  0.6462  0.6000 -0.8520
70851SOL    HW224533   6.957   2.209   3.553  1.2781 -0.7771 -0.7047
70852SOL     OW24534   7.735   0.932   8.232 -0.2831  0.6245 -0.7959
70852SOL    HW124535   7.676   0.954   8.159 -0.6004 -0.4218 -0.8850
70852SOL    HW224536   7.813   0.896   8.190 -0.7957 -0.7529 -0.6373
70853SOL     OW24537   3.135  13.103   9.473 -0.5486 -0.0979 -0.3255
70853SOL    HW124538   3.136  13.048   9.552  1.2747  0.4177  0.0703
70853SOL    HW224539   3.187  13.053   9.410  0.0949  0.5961 -0.3573
70854SOL     OW24540  10.600  12.314   2.896 -0.1548 -0.2721 -0.3629
70854SOL    HW124541  10.526  12.305   2.836  0.3059 -1.9324 -0.7194
70854SOL    HW224542  10.644  12.229   2.894  0.0449 -0.2947  2.1309
70855SOL     OW24543   1.321   6.315   2.174 -0.0704 -0.0460 -0.1007
70855SOL    HW124544   1.257   6.313   2.102  1.1312 -1.7949 -1.2076
70855SOL    HW224545   1.312   6.230   2.217  1.1099 -0.0990  0.0745
70856SOL     OW24546  10.756   7.426  12.714 -0.1699  0.1007 -0.4917
70856SOL    HW124547  10.729   7.434  12.806  2.4428 -3.9573  0.8988
70856SOL    HW224548  10.745   7.333  12.694  3.0075  0.0877 -2.9513
70857SOL     OW24549   0.188   2.237  10.194  0.2226  0.3717 -0.0069
70857SOL    HW124550   0.213   2.323  10.160 -0.8558  0.8198  0.2823
70857SOL    HW224551   0.130   2.200  10.127  0.1900  0.1379  0.1477
70858SOL     OW24552   8.668   5.790  13.449  0.3005 -0.0432  0.0887
70858SOL    HW124553   8.617   5.865  13.476  0.6606  0.4842 -0.6800
70858SOL    HW224554   8.687   5.743  13.531  0.2501  0.8097  0.5957
70859SOL     OW24555   8.837  13.432   3.473 -0.0455 -0.1875  0.9697
70859SOL    HW124556   8.834  13.446   3.378  1.0181 -1.4734  0.7059
70859SOL    HW224557   8.778  13.498   3.509 -0.5996  0.2258 -0.5954
70860SOL     OW24558   9.018   5.573   4.892  0.1820 -0.1373 -0.2550
70860SOL    HW124559   8.960   5.646   4.915  0.4386 -0.2284  0.7398
70860SOL    HW224560   9.106   5.611   4.894  0.3083 -0.4370  0.1721
70861SOL     OW24561   8.971   2.495   1.484  0.3658 -0.0354  0.0923
70861SOL    HW124562   8.943   2.431   1.550 -0.4577  2.7998  2.7405
70861SOL    HW224563   8.895   2.551   1.472  1.5152  1.3502 -0.9792
70862SOL     OW24564   6.677  12.325   6.227  0.1377  0.0422  0.1632
70862SOL    HW124565   6.716  12.411   6.208  0.6794 -0.5177 -1.3988
70862SOL    HW224566   6.721  12.297   6.308 -1.4628  2.0415  1.8485
70863SOL     OW24567   8.867   7.357   7.571 -0.0172 -0.1854 -0.2048
70863SOL    HW124568   8.939   7.420   7.566  0.5048 -0.8107 -0.7020
70863SOL    HW224569   8.823   7.364   7.486 -0.8029  0.4670  0.2288
70864SOL     OW24570   8.141   3.843   7.308  0.5492  0.9862 -0.0015
70864SOL    HW124571   8.166   3.831   7.216 -0.3405 -0.7427 -0.0713
70864SOL    HW224572   8.046   3.852   7.306  0.5416  1.1441  0.7310
70865SOL     OW24573   0.968   9.049   4.090 -0.0239  0.0295  0.1161
70865SOL    HW124574   0.874   9.045   4.074 -0.2846 -0.4863  1.6979
70865SOL    HW224575   0.994   8.958   4.104  0.6533  0.2055  0.0326
70866SOL     OW24576  10.731   1.650   8.585  0.1346 -0.1168  0.1684
70866SOL    HW124577  10.721   1.560   8.552 -0.4890  0.5328 -1.5393
70866SOL    HW224578  10.822   1.656   8.611  1.0576 -0.3990 -2.6094
70867SOL     OW24579   2.759  10.568   0.388  0.1347 -0.3635 -0.3093
70867SOL    HW124580   2.800  10.595   0.307 -1.9059  1.9047 -0.7151
70867SOL    HW224581   2.754  10.648   0.441  0.5366 -1.5721  1.6807
70868SOL     OW24582   1.002   8.830   9.326 -0.2797 -0.0499  0.3509
70868SOL    HW124583   0.942   8.805   9.256  0.7975  0.9387 -0.9737
70868SOL    HW224584   1.089   8.815   9.290  0.3128  1.0626  1.2388
70869SOL     OW24585   7.816   8.379   7.691  0.7348  0.2026  0.4983
70869SOL    HW124586   7.768   8.460   7.704 -0.3840 -0.3785  0.0758
70869SOL    HW224587   7.768   8.313   7.741  0.5617 -0.5575 -0.6179
70870SOL     OW24588   1.609   1.513   3.053  0.3877 -0.4071  0.0184
70870SOL    HW124589   1.645   1.436   3.098 -0.6458 -1.3580 -0.7241
70870SOL    HW224590   1.533   1.539   3.107  0.7811  0.1602  0.3125
70871SOL     OW24591  10.884   5.661   9.851 -0.0325  0.1012 -0.3963
70871SOL    HW124592  10.816   5.598   9.874  0.9208 -0.3338  1.4090
70871SOL    HW224593  10.837   5.733   9.809 -1.6977  0.0801  1.3181
70872SOL     OW24594   0.972   5.677   9.599 -0.0703 -0.0413 -0.0435
70872SOL    HW124595   0.880   5.680   9.573  0.0143  0.3860 -0.3115
70872SOL    HW224596   1.000   5.587   9.580 -0.4957 -0.2391  0.2668
70873SOL     OW24597   2.584  12.031   8.620  0.2155  0.0674 -0.8133
70873SOL    HW124598   2.585  12.112   8.568  1.0554  0.7804  0.2683
70873SOL    HW224599   2.556  12.059   8.707  0.5965 -0.7909 -0.4001
70874SOL     OW24600   1.607   8.316  13.046  0.0603 -0.1547 -0.4841
70874SOL    HW124601   1.582   8.285  12.959 -3.0315  0.5459  0.0358
70874SOL    HW224602   1.636   8.407  13.032  0.2759 -0.2793 -0.8567
70875SOL     OW24603   1.768   5.312   7.569  0.0783  0.2262 -0.1630
70875SOL    HW124604   1.727   5.325   7.655 -0.4168  1.0899 -0.5171
70875SOL    HW224605   1.706   5.352   7.507  0.1651 -0.8763 -0.9779
70876SOL     OW24606  10.871   3.292   0.831 -0.5129 -0.4856 -0.3953
70876SOL    HW124607  10.894   3.258   0.744  0.2747  0.6291 -0.6398
70876SOL    HW224608  10.780   3.319   0.822 -0.8926 -1.6897 -0.4388
70877SOL     OW24609   6.170   6.902  11.828 -0.1362 -0.5080 -0.1243
70877SOL    HW124610   6.261   6.904  11.799  0.1286 -1.4562  0.5918
70877SOL    HW224611   6.175   6.922  11.921 -0.5218 -1.7083  0.1755
70878SOL     OW24612  11.776  10.167   8.358  0.5581 -0.2031 -0.2306
70878SOL    HW124613  11.704  10.212   8.403 -0.1748 -0.1959 -1.3812
70878SOL    HW224614  11.780  10.082   8.401  0.2696  0.0202  0.2550
70879SOL     OW24615   3.157   7.261  12.997 -0.0507 -0.2560  0.0201
70879SOL    HW124616   3.219   7.233  12.928  0.3403 -0.3497  0.4044
70879SOL    HW224617   3.210   7.264  13.076 -0.6417 -0.7469  0.4398
70880SOL     OW24618   5.751  13.497   6.018  0.6150 -0.3983  0.4162
70880SOL    HW124619   5.767  13.548   6.097  0.8643  0.0075  0.1027
70880SOL    HW224620   5.836  13.490   5.976  0.6871 -1.5134  0.7140
70881SOL     OW24621   2.133   8.657   4.695  0.2665  0.7436  0.3638
70881SOL    HW124622   2.118   8.565   4.715  1.2872 -0.0132 -2.0186
70881SOL    HW224623   2.047   8.691   4.670 -0.3273  0.7907  2.2916
70882SOL     OW24624   7.849   6.982   9.987 -0.0952  0.2523  0.0790
70882SOL    HW124625   7.798   6.959   9.908 -0.4348 -0.2651  0.4400
70882SOL    HW224626   7.786   7.027  10.043  0.2053  0.8167 -0.0337
70883SOL     OW24627   4.365   5.806   4.734  0.2741 -0.1225 -0.3972
70883SOL    HW124628   4.430   5.857   4.782 -0.2570 -0.2804  0.5009
70883SOL    HW224629   4.353   5.727   4.786 -1.1646  0.2226 -0.1570
70884SOL     OW24630   0.284   6.656   2.060 -0.0705  0.3425 -0.4797
70884SOL    HW124631   0.265   6.573   2.102  1.0538  0.6748  0.7327
70884SOL    HW224632   0.201   6.705   2.064 -0.6968 -0.6213 -1.0725
70885SOL     OW24633   8.226   9.461   1.177 -0.4690  0.1607 -0.1456
70885SOL    HW124634   8.184   9.543   1.206 -1.2942 -0.5332  0.6928
70885SOL    HW224635   8.229   9.407   1.256 -0.5371 -0.8680 -0.8379
70886SOL     OW24636  10.172  11.605  10.927  0.7380 -0.4870  0.0381
70886SOL    HW124637  10.201  11.677  10.871 -1.3582 -0.9827 -1.8576
70886SOL    HW224638  10.244  11.542  10.925  1.9443  0.8232  0.4242
70887SOL     OW24639  10.520  12.409   6.752  0.2947 -0.0194  0.3526
70887SOL    HW124640  10.502  12.488   6.803  1.3079 -0.2024  1.0341
70887SOL    HW224641  10.585  12.362   6.804 -2.1505 -2.6176  1.2953
70888SOL     OW24642   1.383   8.327   5.614 -0.2201 -0.3447 -0.3245
70888SOL    HW124643   1.390   8.355   5.705 -3.0051 -0.5218  0.0260
70888SOL    HW224644   1.460   8.272   5.600  0.4587 -0.0294  1.7892
70889SOL     OW24645   5.383   6.276   1.439  0.0297  0.7083 -0.7270
70889SOL    HW124646   5.318   6.298   1.372 -2.2159  0.1783  1.1266
70889SOL    HW224647   5.455   6.337   1.424 -1.5456  2.3887 -1.9916
70890SOL     OW24648   1.530  13.415  12.391  0.1456  0.4075  0.2044
70890SOL    HW124649   1.585  13.336  12.392 -0.2870  0.0271 -1.8400
70890SOL    HW224650   1.446  13.386  12.426  0.4514  0.3593  0.9162
70891SOL     OW24651   3.878   1.137   4.965  0.1002  0.0709  0.1475
70891SOL    HW124652   3.810   1.201   4.982 -1.5684 -1.1140 -1.5923
70891SOL    HW224653   3.940   1.182   4.906 -0.9974  0.1695 -0.9794
70892SOL     OW24654   3.142   6.038   7.692 -0.0545 -0.3551 -0.6054
70892SOL    HW124655   3.131   6.096   7.617  0.0197 -0.6915 -0.8788
70892SOL    HW224656   3.216   6.074   7.741 -0.5869  0.3145 -0.2672
70893SOL     OW24657   4.969   4.698   8.710 -0.2422  0.0517 -0.1465
70893SOL    HW124658   4.928   4.656   8.634  0.3037  0.0287 -0.4371
70893SOL    HW224659   4.908   4.683   8.782 -0.3560 -0.6773 -0.3897
70894SOL     OW24660  12.545   7.733   2.231 -0.3054  0.0116  0.1385
70894SOL    HW124661  12.516   7.642   2.226 -1.0574  0.2216  0.6108
70894SOL    HW224662  12.508   7.774   2.153  0.4326 -0.1861 -0.3298
70895SOL     OW24663   3.797   9.864   5.344 -0.2567  0.1921 -0.0819
70895SOL    HW124664   3.887   9.893   5.335 -1.0702  2.3776 -2.1121
70895SOL    HW224665   3.799   9.771   5.322  1.7979 -0.4781  2.4156
70896SOL     OW24666   3.610  13.386   1.069 -0.3702 -0.4743  0.0887
70896SOL    HW124667   3.564  13.319   1.119 -0.5917  0.0938  0.6513
70896SOL    HW224668   3.623  13.346   0.983  0.6801 -1.7645  0.7897
70897SOL     OW24669  10.090   7.137   6.647  0.5403 -0.0421 -0.1805
70897SOL    HW124670  10.021   7.100   6.701  2.9362 -3.5858  0.8137
70897SOL    HW224671  10.082   7.092   6.563  1.8931 -0.8863  0.1180
70898SOL     OW24672   8.559  12.236   2.089  0.4427  0.3013 -0.4612
70898SOL    HW124673   8.600  12.186   2.018 -0.2973  0.9215 -1.3518
70898SOL    HW224674   8.465  12.223   2.076  0.2891  0.8035  0.1199
70899SOL     OW24675   6.887  11.991   5.580  0.1502  0.1252  0.0789
70899SOL    HW124676   6.934  11.937   5.644  1.5794  1.3044  0.0999
70899SOL    HW224677   6.838  12.054   5.633  0.7704  0.6505  0.0417
70900SOL     OW24678   6.220   3.870   0.071  0.4762 -0.6567  0.7741
70900SOL    HW124679   6.184   3.959   0.070  1.4337 -0.2606 -0.0456
70900SOL    HW224680   6.214   3.842  -0.020  1.1599 -1.0257  0.8445
70901SOL     OW24681  11.140  11.799   6.795 -0.1750  0.1863 -0.0924
70901SOL    HW124682  11.185  11.832   6.873  1.3880  0.4263 -1.0492
70901SOL    HW224683  11.080  11.869   6.771 -0.0528  0.4707  0.4074
70902SOL     OW24684   6.154  11.153   6.282 -0.0088  0.5715  0.1365
70902SOL    HW124685   6.248  11.155   6.263 -0.1356  1.1144 -0.4241
70902SOL    HW224686   6.117  11.092   6.218  0.0352 -0.1089  0.7351
70903SOL     OW24687   2.900   4.688  10.460 -1.4910  0.0626  0.1870
70903SOL    HW124688   2.931   4.626  10.394  1.7413  0.7563  0.8764
70903SOL    HW224689   2.825   4.731  10.418 -1.6988 -1.8981 -1.6339
70904SOL     OW24690   8.611   2.311  13.208 -0.3398  0.0631  0.2395
70904SOL    HW124691   8.637   2.298  13.299 -0.3362 -1.8972  0.0037
70904SOL    HW224692   8.521   2.280  13.204 -1.5407  3.2100  0.2201
70905SOL     OW24693   5.772   9.760   6.414 -0.4559 -0.0149 -0.1862
70905SOL    HW124694   5.770   9.794   6.503 -3.2701 -0.3123 -0.0413
70905SOL    HW224695   5.863   9.735   6.399  0.4244  1.6350  1.9552
70906SOL     OW24696   1.736  11.424   6.495  0.8483 -0.1083  0.1148
70906SOL    HW124697   1.672  11.363   6.459  1.6437  0.5382 -2.5841
70906SOL    HW224698   1.702  11.510   6.472  1.7661  0.3082  0.2857
70907SOL     OW24699   2.840   5.988   0.513 -0.2117 -0.0884  0.0347
70907SOL    HW124700   2.749   6.016   0.508 -0.0902  0.4741  0.7657
70907SOL    HW224701   2.853   5.963   0.605  0.6727  0.9762  0.2276
70908SOL     OW24702   9.165   6.283   6.164 -0.2162 -0.3748  0.0395
70908SOL    HW124703   9.189   6.375   6.170 -2.8826  0.3558  0.9017
70908SOL    HW224704   9.191   6.257   6.076  2.1218  0.6517  0.3356
70909SOL     OW24705   1.425   6.427  12.665 -0.1173 -0.2469  0.8106
70909SOL    HW124706   1.364   6.364  12.704 -0.6391 -0.6936 -0.6539
70909SOL    HW224707   1.466   6.378  12.593  0.4010  0.7096  0.4469
70910SOL     OW24708   8.120   3.469   3.367  0.3063 -0.0871  0.3448
70910SOL    HW124709   8.184   3.503   3.304  1.0989 -1.4971  0.3388
70910SOL    HW224710   8.041   3.455   3.315  1.3150 -2.4041 -0.7124
70911SOL     OW24711  12.974   9.505   7.069  0.4526 -0.0355  0.1228
70911SOL    HW124712  12.920   9.568   7.021  2.0030 -0.3146 -2.1019
70911SOL    HW224713  13.034   9.560   7.120 -0.4256  0.2465  0.9007
70912SOL     OW24714   3.271   8.254   1.292  0.8662  0.2356  0.1356
70912SOL    HW124715   3.202   8.204   1.335  1.5050  0.4210  1.4206
70912SOL    HW224716   3.350   8.200   1.302  0.7669 -0.4475 -2.1884
70913SOL     OW24717   5.179   5.352  11.245  0.3774  0.1996  0.1335
70913SOL    HW124718   5.228   5.371  11.325 -0.0836 -0.2510  0.5300
70913SOL    HW224719   5.128   5.432  11.229 -0.2855 -0.0639  0.8584
70914SOL     OW24720   9.143   3.293   5.805  0.1481 -0.1683  0.2459
70914SOL    HW124721   9.072   3.250   5.853 -0.2118  0.1744  0.0251
70914SOL    HW224722   9.220   3.240   5.823 -0.6237 -1.9850 -1.4820
70915SOL     OW24723   9.632  12.986   2.332 -0.4553 -0.5311  0.0524
70915SOL    HW124724   9.701  12.984   2.266  0.6810  0.2689  1.1791
70915SOL    HW224725   9.608  12.894   2.344  0.7164 -0.8637 -0.0424
70916SOL     OW24726  10.816   4.764   7.154 -0.2035 -0.1472 -0.1156
70916SOL    HW124727  10.779   4.850   7.172 -0.5698 -0.7033  2.0112
70916SOL    HW224728  10.880   4.750   7.223 -1.3542 -2.2515  0.6158
70917SOL     OW24729   6.142   9.845   5.387 -0.1035 -0.4295  0.2335
70917SOL    HW124730   6.069   9.792   5.418  0.4703 -1.6677 -0.4654
70917SOL    HW224731   6.186   9.790   5.323  1.8952 -0.0153  1.1855
70918SOL     OW24732   0.199   0.104   7.942 -0.4527  0.0775  0.0283
70918SOL    HW124733   0.239   0.045   7.878 -0.2221 -0.1386  0.3705
70918SOL    HW224734   0.111   0.069   7.955 -1.3145  1.3486 -1.7846
70919SOL     OW24735   8.529   8.164   5.778  0.1720 -0.0659 -0.4613
70919SOL    HW124736   8.448   8.159   5.728 -0.4508 -1.3891  0.6037
70919SOL    HW224737   8.559   8.254   5.767 -3.4310  1.6733  2.0860
70920SOL     OW24738  12.233   9.328   5.541  0.2523 -0.2389 -0.2654
70920SOL    HW124739  12.253   9.418   5.517 -0.9923 -0.7244 -3.6238
70920SOL    HW224740  12.312   9.279   5.516  0.4725 -0.2766  0.4671
70921SOL     OW24741   1.503   7.127   9.593  0.4460  0.6235  0.5355
70921SOL    HW124742   1.493   7.073   9.672  0.9896 -2.0659 -1.0968
70921SOL    HW224743   1.429   7.101   9.538  1.9422 -0.1808 -1.1945
70922SOL     OW24744  13.826   7.727   4.155 -0.0134  0.5051 -0.0405
70922SOL    HW124745  13.739   7.691   4.137  0.1313  0.2020 -0.1454
70922SOL    HW224746  13.864   7.745   4.069 -0.7477  2.5770  0.0088
70923SOL     OW24747  11.816  13.587   2.856  0.3135 -0.9045  0.6834
70923SOL    HW124748  11.783  13.573   2.944 -1.2554 -0.6861  0.1617
70923SOL    HW224749  11.745  13.559   2.798 -0.8664  3.5767 -0.4621
70924SOL     OW24750   1.401   5.286   0.148  0.1816  0.0025  0.0332
70924SOL    HW124751   1.351   5.251   0.222 -0.6698 -0.4262 -0.7288
70924SOL    HW224752   1.336   5.325   0.090  0.9064  0.9182 -0.1951
70925SOL     OW24753   1.798  13.735   6.326 -0.4564 -0.6455 -0.0654
70925SOL    HW124754   1.831  13.763   6.241  0.7041  0.1789  0.6339
70925SOL    HW224755   1.787  13.640   6.317  2.9549 -1.1623 -0.1262
70926SOL     OW24756  13.875   6.112  10.164 -0.6754  0.0822  0.1432
70926SOL    HW124757  13.797   6.090  10.214 -0.5159 -2.1046 -0.4695
70926SOL    HW224758  13.943   6.124  10.230 -0.8945 -0.9059  0.5653
70927SOL     OW24759   0.958   1.810   9.503 -0.2612 -0.1821 -0.3851
70927SOL    HW124760   1.026   1.781   9.565 -0.1649 -1.0554 -0.8839
70927SOL    HW224761   1.001   1.879   9.452  0.2869 -0.7559 -0.7258
70928SOL     OW24762   6.043   7.985   6.705 -0.2847 -0.6488 -0.0504
70928SOL    HW124763   5.948   7.981   6.713 -0.3806  2.1211  1.1721
70928SOL    HW224764   6.076   7.935   6.780 -0.8337  0.2075  0.7771
70929SOL     OW24765   1.137   7.576  11.125  0.4252  0.3977 -0.5715
70929SOL    HW124766   1.208   7.637  11.106  0.1579  1.0072  0.3319
70929SOL    HW224767   1.066   7.602  11.066  0.2394  1.1157 -0.0545
70930SOL     OW24768   5.431   0.314  10.441 -0.2238 -0.7754  0.4224
70930SOL    HW124769   5.500   0.250  10.453 -0.7505 -1.4566 -0.0947
70930SOL    HW224770   5.435   0.369  10.519  0.2089 -1.4594  0.8901
70931SOL     OW24771   1.146   4.570   6.293  0.1778  0.1119  0.0456
70931SOL    HW124772   1.135   4.642   6.356  1.0287  0.0679  0.2599
70931SOL    HW224773   1.086   4.502   6.323  3.2884 -1.5600  3.2756
70932SOL     OW24774   1.044  12.279   0.470  0.2464  0.5342  0.0237
70932SOL    HW124775   0.962  12.281   0.421  0.3222 -0.0016 -0.1375
70932SOL    HW224776   1.112  12.279   0.402  0.3961  1.4290  0.1625
70933SOL     OW24777   4.013   4.071   9.781  0.2687 -0.8107 -0.2845
70933SOL    HW124778   3.963   4.044   9.704  2.0840 -0.6672 -1.5890
70933SOL    HW224779   3.976   4.020   9.853 -0.6286 -1.9427 -1.4928
70934SOL     OW24780  10.436  12.403  11.464 -0.1433 -0.3166  0.2354
70934SOL    HW124781  10.344  12.424  11.453 -0.2424 -0.1940  1.2823
70934SOL    HW224782  10.475  12.423  11.378 -0.7997  1.1000  0.2338
70935SOL     OW24783   3.501   2.961  10.236 -0.4103  0.0499  0.5043
70935SOL    HW124784   3.419   3.000  10.207  1.1994  3.3535  0.0382
70935SOL    HW224785   3.485   2.938  10.328 -1.0936  3.2166  1.2834
70936SOL     OW24786   4.567  11.579   2.326  0.6734 -0.1362 -0.0284
70936SOL    HW124787   4.514  11.533   2.392  0.9030  0.9599  0.9343
70936SOL    HW224788   4.505  11.598   2.255 -0.1965  0.8869  0.9651
70937SOL     OW24789   1.885   6.070   1.050  0.1836  0.5130 -0.3230
70937SOL    HW124790   1.930   6.007   0.994 -0.0548 -1.5439  1.6594
70937SOL    HW224791   1.949   6.139   1.066  0.9936  0.0145 -1.3186
70938SOL     OW24792   6.397   3.058   9.438  0.2071 -0.0005  0.1802
70938SOL    HW124793   6.391   2.997   9.512  0.5658  0.2552  0.4239
70938SOL    HW224794   6.319   3.112   9.445 -1.1061 -1.6016 -1.1122
70939SOL     OW24795  10.479  12.702   5.738 -0.3040 -0.3844 -0.5660
70939SOL    HW124796  10.522  12.617   5.726  0.9333  0.4341 -2.3468
70939SOL    HW224797  10.491  12.747   5.655 -1.5454  1.2887  0.1015
70940SOL     OW24798  10.360   8.552  12.774  0.2612  0.5193 -0.0564
70940SOL    HW124799  10.367   8.562  12.679  2.8426  1.2207  0.1148
70940SOL    HW224800  10.408   8.627  12.809 -0.6004  0.2347  1.8095
70941SOL     OW24801   2.715   4.380  10.434  0.0977 -0.0372  0.5304
70941SOL    HW124802   2.715   4.284  10.440 -1.0746 -0.0446  0.5687
70941SOL    HW224803   2.652   4.409  10.500 -0.8430  0.6598 -0.6322
70942SOL     OW24804   1.949   3.401   7.946  0.0307  0.0622 -0.0020
70942SOL    HW124805   1.995   3.406   7.863  0.5551 -2.8221  0.0132
70942SOL    HW224806   2.009   3.440   8.009 -0.0684  1.6081 -0.8337
70943SOL     OW24807   8.161   6.927  13.783 -0.0959  0.0183  0.0890
70943SOL    HW124808   8.171   7.017  13.751 -0.5619 -0.4210 -1.3626
70943SOL    HW224809   8.249   6.903  13.812  0.5462  0.2118 -1.5790
70944SOL     OW24810  12.620  13.203   1.982  0.3708  0.7497 -0.1365
70944SOL    HW124811  12.715  13.205   1.985  0.4559 -0.3360 -1.3569
70944SOL    HW224812  12.595  13.285   1.940  0.7093  1.4228  0.9487
70945SOL     OW24813  11.997   0.851   5.231  0.7421  0.1399  0.1773
70945SOL    HW124814  11.930   0.786   5.210 -2.0198  3.3430 -1.9415
70945SOL    HW224815  11.989   0.865   5.326 -0.7275 -0.4554  0.1584
70946SOL     OW24816  11.853  12.311  12.370  0.0475  0.0243  0.2070
70946SOL    HW124817  11.902  12.390  12.393  0.2178 -0.0302  0.0302
70946SOL    HW224818  11.885  12.245  12.431 -1.8788  0.6919  2.0802
70947SOL     OW24819   1.499   9.560  11.786  0.0179 -0.1883 -0.3942
70947SOL    HW124820   1.523   9.468  11.780 -0.2137 -0.2723 -0.0572
70947SOL    HW224821   1.544   9.601  11.712  1.6609 -0.2421  0.5166
70948SOL     OW24822   9.640   4.344   2.420  0.1756  0.1311 -0.4590
70948SOL    HW124823   9.703   4.293   2.369  0.0622 -0.7705  0.2629
70948SOL    HW224824   9.563   4.352   2.364  0.4910  0.2018 -0.8863
70949SOL     OW24825   7.690   1.841   3.382 -0.1711 -0.5351  0.0536
70949SOL    HW124826   7.671   1.930   3.412 -1.5122 -0.9086  0.3736
70949SOL    HW224827   7.716   1.852   3.290 -0.5665  0.1712  0.0134
70950SOL     OW24828   2.986   6.093   3.199  0.3446 -0.1798 -0.0185
70950SOL    HW124829   2.937   6.174   3.183 -0.4264 -0.2647  1.7126
70950SOL    HW224830   3.078   6.121   3.207  0.2994  0.2855 -1.0361
70951SOL     OW24831   2.584   8.889   6.279  0.0078 -0.1492 -0.3943
70951SOL    HW124832   2.616   8.960   6.224  2.2055 -0.6705  0.1372
70951SOL    HW224833   2.646   8.818   6.265 -1.0669 -1.3183  0.5420
70952SOL     OW24834   3.794   3.149  13.637  0.1039 -0.3113 -0.4435
70952SOL    HW124835   3.818   3.072  13.584  0.8249  0.0493 -0.6557
70952SOL    HW224836   3.864   3.155  13.703 -0.3709 -0.2957  0.0634
70953SOL     OW24837   0.854   7.637  13.634  0.3168 -0.0697  0.2233
70953SOL    HW124838   0.943   7.616  13.662  0.6293 -0.0087 -0.6854
70953SOL    HW224839   0.859   7.727  13.604  0.0027 -0.1423 -0.0490
70954SOL     OW24840   0.024  12.740  12.994  0.6293  0.0061 -0.0167
70954SOL    HW124841   0.081  12.793  13.050  0.0507 -0.2616  0.8585
70954SOL    HW224842   0.084  12.689  12.940  1.2183  0.0203  0.6069
70955SOL     OW24843   1.980  12.047   4.156 -0.0727  0.2752 -0.1995
70955SOL    HW124844   1.977  11.956   4.124 -0.9667 -0.1465  1.0073
70955SOL    HW224845   1.912  12.050   4.224 -0.7045  2.1126 -0.8657
70956SOL     OW24846   1.972  13.845   7.874 -0.7181  0.2497 -0.3316
70956SOL    HW124847   2.015  13.929   7.857  0.1348 -0.3578 -1.3793
70956SOL    HW224848   1.989  13.827   7.966  1.6564 -0.1073 -0.7576
70957SOL     OW24849   3.958   6.439   8.596 -0.0095 -0.4743  0.3239
70957SOL    HW124850   3.924   6.454   8.684  0.2673 -1.0237  0.5291
70957SOL    HW224851   3.881   6.440   8.540 -0.0289  1.7317  0.3018
70958SOL     OW24852  12.626   2.622  12.798  0.0904  0.0426  0.0848
70958SOL    HW124853  12.590   2.710  12.788 -1.4607 -0.5002  0.5692
70958SOL    HW224854  12.582   2.570  12.731  1.9693 -0.1183 -1.0737
70959SOL     OW24855   0.909   4.666  13.912 -0.2532  0.6607 -0.0709
70959SOL    HW124856   0.849   4.633  13.979 -1.0092  0.6623 -0.7336
70959SOL    HW224857   0.869   4.747  13.881  0.6685  1.2622  0.2563
70960SOL     OW24858   0.359   6.588   0.189 -0.6914 -0.3183 -0.1342
70960SOL    HW124859   0.312   6.519   0.141 -0.7835  0.7082 -1.5842
70960SOL    HW224860   0.290   6.647   0.219 -0.8433 -1.9094  3.0428
70961SOL     OW24861   8.472   5.093   2.183  0.3732 -0.0606  0.1270
70961SOL    HW124862   8.505   5.181   2.200 -0.6791  0.4056 -0.1823
70961SOL    HW224863   8.411   5.076   2.256  1.6630 -1.1345  1.0111
70962SOL     OW24864   2.300   2.733  10.076  0.3523 -0.4102  0.0318
70962SOL    HW124865   2.366   2.730  10.145 -0.3059  0.5714  0.7447
70962SOL    HW224866   2.301   2.824  10.046  1.0556 -0.9554 -1.7178
70963SOL     OW24867   6.843   9.529   1.884  0.0111 -0.4296 -0.1699
70963SOL    HW124868   6.870   9.471   1.955 -0.3685 -0.7818 -0.3077
70963SOL    HW224869   6.896   9.502   1.809  0.9814  0.4609  0.1645
70964SOL     OW24870   0.749   4.357   2.629 -0.1150  0.5114 -0.3324
70964SOL    HW124871   0.819   4.324   2.685  0.1033  2.3715  0.5859
70964SOL    HW224872   0.670   4.348   2.683 -0.3985 -0.3941 -0.8773
70965SOL     OW24873   8.375  10.444   7.043  0.2006 -0.1604 -0.0033
70965SOL    HW124874   8.425  10.504   7.098 -0.3814  1.8951 -1.5932
70965SOL    HW224875   8.436  10.372   7.025  1.8811  1.2276 -0.1435
70966SOL     OW24876   4.046   2.291   4.989  0.3286 -0.2488 -0.8743
70966SOL    HW124877   4.007   2.314   4.905 -1.5051 -0.7645 -0.2256
70966SOL    HW224878   4.064   2.375   5.032  0.5295  0.0098 -1.4688
70967SOL     OW24879   8.359  13.462   2.069 -0.0299  0.1671  0.0201
70967SOL    HW124880   8.296  13.500   2.131 -0.3657 -1.2653  0.6007
70967SOL    HW224881   8.370  13.530   2.002 -1.2204  0.9485  0.5726
70968SOL     OW24882   9.994   8.296   7.477  0.1451 -0.4277 -0.0169
70968SOL    HW124883  10.050   8.220   7.497 -2.0781 -1.3879  3.5390
70968SOL    HW224884  10.033   8.368   7.527 -0.1220 -0.3577  0.0941
70969SOL     OW24885   1.845  12.183  10.934 -0.1135  0.2872  0.0863
70969SOL    HW124886   1.870  12.273  10.956  0.0336  0.3642 -0.3934
70969SOL    HW224887   1.757  12.190  10.898  0.3456  0.3916 -1.0503
70970SOL     OW24888   7.017   7.604   0.803  0.2485 -0.6225 -0.0820
70970SOL    HW124889   6.987   7.601   0.894  0.2991  0.8153  0.0018
70970SOL    HW224890   7.017   7.512   0.775 -0.9088 -0.9785  0.9845
70971SOL     OW24891   7.656  13.078   3.820  0.3976  0.2829  0.1455
70971SOL    HW124892   7.697  12.996   3.847  0.5524  0.4770  0.5093
70971SOL    HW224893   7.676  13.139   3.891  1.3021  0.9687 -0.6841
70972SOL     OW24894   2.396  12.176   9.287  0.3008 -0.5745 -0.4132
70972SOL    HW124895   2.391  12.272   9.287 -2.4659 -0.6493 -0.9786
70972SOL    HW224896   2.438  12.154   9.370 -0.6388  1.1064  0.5509
70973SOL     OW24897  10.685   5.332   8.027  0.0741  0.4996 -0.2740
70973SOL    HW124898  10.690   5.238   8.040  0.0077  0.7705  2.3649
70973SOL    HW224899  10.738   5.349   7.949 -2.4306 -1.9691 -2.7598
70974SOL     OW24900  10.916   6.721  11.513 -0.2677  0.4072  0.6998
70974SOL    HW124901  10.893   6.781  11.442 -0.0654  2.2071  2.0928
70974SOL    HW224902  10.862   6.749  11.587 -0.6434 -1.5718  1.2243
70975SOL     OW24903  12.547  12.068   7.118  0.1601  0.3697  0.1477
70975SOL    HW124904  12.534  12.116   7.037 -0.3654  3.4637  1.9334
70975SOL    HW224905  12.459  12.048   7.150  0.3212 -2.9512 -1.0309
70976SOL     OW24906  12.473   7.719   4.747 -0.1954  0.0701 -0.4885
70976SOL    HW124907  12.415   7.649   4.716  0.4591 -0.8803  0.4004
70976SOL    HW224908  12.559   7.679   4.752  0.3929  1.2360 -0.9406
70977SOL     OW24909   7.170   4.278   4.380  0.1446  0.1709 -0.1885
70977SOL    HW124910   7.101   4.295   4.316  1.2153  0.3829 -1.3137
70977SOL    HW224911   7.143   4.196   4.422 -1.7173  1.1833  0.7089
70978SOL     OW24912   8.989   2.870  11.938  0.4201  0.5422  0.1834
70978SOL    HW124913   9.012   2.810  11.867  0.3031  0.4655  0.2100
70978SOL    HW224914   9.012   2.824  12.018  0.5380  0.6230  0.1955
70979SOL     OW24915   4.504   3.463   4.491 -0.7178  0.0693 -0.0695
70979SOL    HW124916   4.535   3.533   4.549 -1.5791  0.5480 -0.1768
70979SOL    HW224917   4.584   3.424   4.456 -0.2160  2.0621 -1.2873
70980SOL     OW24918   4.602   8.398   0.440 -0.3123  0.2210 -0.2439
70980SOL    HW124919   4.527   8.447   0.474  0.6029 -0.4779  3.1155
70980SOL    HW224920   4.562   8.327   0.389 -1.9004  0.4711  0.5716
70981SOL     OW24921   9.809   0.431   7.862  0.3473  0.2132 -0.3521
70981SOL    HW124922   9.740   0.406   7.802  0.8518 -0.8456 -0.5140
70981SOL    HW224923   9.883   0.375   7.840  0.9703  0.6896  0.4114
70982SOL     OW24924   5.129   0.428   3.361 -0.3791 -0.6766  0.6683
70982SOL    HW124925   5.122   0.338   3.328 -1.2403 -0.9713  1.6014
70982SOL    HW224926   5.190   0.421   3.435  0.3574 -0.2930  0.1132
70983SOL     OW24927   4.160   5.323   9.099  0.1769  0.1949 -0.6140
70983SOL    HW124928   4.117   5.402   9.067 -0.4995 -0.0854 -0.4139
70983SOL    HW224929   4.214   5.352   9.173 -1.9242  0.1331  1.0379
70984SOL     OW24930   5.552   1.642   8.718  0.4717 -0.1096  0.1477
70984SOL    HW124931   5.523   1.612   8.804  0.6008  0.6278  0.4514
70984SOL    HW224932   5.647   1.642   8.723  0.4910  2.1999  0.8265
70985SOL     OW24933  10.449   4.141   7.921 -0.1322  0.0277 -0.0108
70985SOL    HW124934  10.476   4.228   7.892 -2.6534  0.2759 -1.9504
70985SOL    HW224935  10.504   4.080   7.871  0.5741  0.4834  0.2016
70986SOL     OW24936   1.863   2.661   4.664 -0.5614 -0.2001 -0.2516
70986SOL    HW124937   1.909   2.652   4.581 -0.3135  0.9917 -0.2619
70986SOL    HW224938   1.931   2.691   4.726 -0.9257 -0.2191  0.1633
70987SOL     OW24939   2.714   3.560  12.076 -0.3418 -0.0737  0.4815
70987SOL    HW124940   2.728   3.646  12.116 -0.5757 -0.0302  0.4697
70987SOL    HW224941   2.666   3.511  12.142 -1.0178  0.1035  0.1337
70988SOL     OW24942   8.953   4.359   2.568  0.7046 -0.0047  0.0817
70988SOL    HW124943   8.996   4.439   2.601 -1.8049  0.5692  2.3159
70988SOL    HW224944   8.874   4.391   2.524  0.1779 -1.2241  0.1101
70989SOL     OW24945   3.576   3.754   6.401 -0.2193 -0.5529 -0.0717
70989SOL    HW124946   3.669   3.773   6.413  0.0757 -1.2421 -1.0935
70989SOL    HW224947   3.566   3.744   6.306 -1.1238 -1.5203  0.1103
70990SOL     OW24948  12.101   9.005   5.431  0.3633  0.1846 -0.0616
70990SOL    HW124949  12.100   8.945   5.506  2.6555  0.0132 -0.0874
70990SOL    HW224950  12.104   9.092   5.469 -2.6943  0.3764 -0.0253
70991SOL     OW24951  11.190   4.978   6.521  0.3018 -0.3861  0.8375
70991SOL    HW124952  11.194   5.057   6.468 -1.2122 -0.9278 -0.1634
70991SOL    HW224953  11.271   4.932   6.503  0.2785 -0.0446 -0.1952
70992SOL     OW24954   1.711   4.978   1.289 -0.1703 -0.2186 -0.1021
70992SOL    HW124955   1.784   5.002   1.232 -0.9405 -0.6812 -1.3312
70992SOL    HW224956   1.660   5.059   1.299 -0.2789 -0.2449 -0.4449
70993SOL     OW24957   1.153   7.939   8.559 -0.1671  0.2979 -0.1450
70993SOL    HW124958   1.206   8.010   8.595 -0.6740  0.0305  1.1898
70993SOL    HW224959   1.195   7.917   8.476  0.4372  1.6388 -0.2135
70994SOL     OW24960   8.049   9.748   5.178 -0.3615  0.3221 -0.4644
70994SOL    HW124961   8.014   9.780   5.261 -0.0488  0.6944 -0.4734
70994SOL    HW224962   7.983   9.771   5.114 -0.6138  0.0155 -0.3201
70995SOL     OW24963  11.473   1.955  11.518 -0.2911 -0.5175  0.3148
70995SOL    HW124964  11.513   1.951  11.430 -0.7588 -1.5105  0.1366
70995SOL    HW224965  11.547   1.945  11.578  0.3019  2.0696  0.1146
70996SOL     OW24966   5.852   4.905   7.094 -0.1389  0.5737 -0.2529
70996SOL    HW124967   5.862   4.829   7.152  0.0345 -0.2179 -1.2779
70996SOL    HW224968   5.928   4.960   7.112  1.5830 -1.1537 -1.8507
70997SOL     OW24969   0.960   2.351   1.353  0.0055  0.7306  0.3518
70997SOL    HW124970   0.919   2.403   1.422 -0.3823 -1.0810  1.5573
70997SOL    HW224971   0.954   2.406   1.275  0.1488  2.7131  1.6532
70998SOL     OW24972   4.272  12.850  13.051 -0.0713 -0.1206  0.2493
70998SOL    HW124973   4.294  12.770  13.004  2.1415  0.5442  0.0571
70998SOL    HW224974   4.330  12.916  13.015 -0.5650  1.1541  1.6773
70999SOL     OW24975   8.991   7.182   7.303  0.2244  0.5699  0.2546
70999SOL    HW124976   9.036   7.253   7.256 -2.0463  1.7928 -0.2532
70999SOL    HW224977   8.943   7.136   7.234  0.8965 -0.8977  0.7335
71000SOL     OW24978  13.935   7.616   7.851 -0.1548  0.0011  0.3000
71000SOL    HW124979  13.922   7.635   7.944 -2.4094  0.7306 -0.0951
71000SOL    HW224980  14.023   7.580   7.846 -0.2522 -0.7936  2.8202
71001SOL     OW24981   3.004  10.319   1.562  0.0844  0.2214 -0.0449
71001SOL    HW124982   3.044  10.353   1.482  1.6248  0.3277  0.7359
71001SOL    HW224983   2.931  10.266   1.531 -0.3968  1.5935 -1.4381
71002SOL     OW24984   4.422  10.564   4.260 -0.2777 -0.6682 -0.0072
71002SOL    HW124985   4.517  10.565   4.252 -0.1782 -0.9615  1.0120
71002SOL    HW224986   4.405  10.532   4.349 -1.3772 -3.0065 -0.9691
71003SOL     OW24987   1.771   8.173   6.582  0.4751  0.0762 -0.5071
71003SOL    HW124988   1.729   8.087   6.584  0.7892 -0.0959 -1.0504
71003SOL    HW224989   1.827   8.171   6.504  0.4815  0.7708 -0.5321
71004SOL     OW24990   0.172  13.790   9.196  0.4477  0.4335  0.1728
71004SOL    HW124991   0.214  13.759   9.276  1.0532  0.0485 -0.2886
71004SOL    HW224992   0.231  13.764   9.126  0.1302  1.1492 -0.3710
71005SOL     OW24993   1.179   8.261   2.731  0.0032  0.2345 -0.5054
71005SOL    HW124994   1.230   8.324   2.782 -1.4003 -0.1525  1.4996
71005SOL    HW224995   1.173   8.184   2.787 -1.6726 -0.2037 -1.2319
71006SOL     OW24996   6.644   3.914   4.771  0.0055 -0.2609 -0.1444
71006SOL    HW124997   6.703   3.983   4.740  1.2879 -0.5085  1.5706
71006SOL    HW224998   6.575   3.960   4.819 -1.0108 -0.0002 -1.7845
71007SOL     OW24999  12.214  13.270   0.788  0.1862  0.0988  0.7364
71007SOL    HW125000  12.195  13.328   0.862  0.8466 -0.8091  1.6632
71007SOL    HW225001  12.147  13.201   0.795 -0.8092  0.8982 -0.5602
71008SOL     OW25002   1.479   8.031  12.155 -0.2188  0.3383 -0.2279
71008SOL    HW125003   1.481   8.121  12.188 -0.1750  0.4410 -0.5028
71008SOL    HW225004   1.560   7.992  12.188 -1.5293 -0.4872  2.2661
71009SOL     OW25005  12.987   7.854  12.682 -0.2523 -0.3425 -0.3474
71009SOL    HW125006  12.895   7.830  12.692 -0.1192 -0.9442 -0.4784
71009SOL    HW225007  13.028   7.774  12.648  0.0865  0.2973 -1.5253
71010SOL     OW25008   3.995  12.298   1.602 -0.6767 -0.0268 -0.0937
71010SOL    HW125009   3.946  12.239   1.659  0.5833 -1.7806 -0.7373
71010SOL    HW225010   4.057  12.241   1.556  3.4291  2.1807  2.0950
71011SOL     OW25011   6.804   2.723   6.638 -0.8670  0.3971  0.1827
71011SOL    HW125012   6.728   2.666   6.649 -0.0202 -1.1766 -1.5426
71011SOL    HW225013   6.879   2.664   6.643  0.1005  1.5125 -0.6174
71012SOL     OW25014   9.892  11.042   8.922 -0.6336 -0.0565  0.0677
71012SOL    HW125015   9.823  10.996   8.873 -2.2760  1.6580  0.6719
71012SOL    HW225016   9.922  11.111   8.862  1.5734 -1.5562 -0.6995
71013SOL     OW25017   6.661  10.069   7.030  0.1747 -0.8256 -0.3496
71013SOL    HW125018   6.623  10.037   6.948 -0.4082 -0.7335 -0.1180
71013SOL    HW225019   6.600  10.041   7.097  0.2336 -0.1926 -0.0276
71014SOL     OW25020  10.993   2.751  10.677  0.0998  0.1337  0.0186
71014SOL    HW125021  11.087   2.765  10.673  0.4545 -1.6861  0.9018
71014SOL    HW225022  10.966   2.788  10.761 -0.1300  1.2953 -0.5436
71015SOL     OW25023  10.184  13.563   0.716  0.3917 -0.7146  0.1675
71015SOL    HW125024  10.247  13.576   0.787  0.0252  2.9381  0.0145
71015SOL    HW225025  10.099  13.559   0.760  0.2402  0.7340  0.0678
71016SOL     OW25026  11.453   2.242   2.343  0.4102 -0.8971  0.3969
71016SOL    HW125027  11.538   2.244   2.386 -0.6353  0.8479  2.5726
71016SOL    HW225028  11.470   2.202   2.258  2.9794 -2.6009  1.5966
71017SOL     OW25029   1.880   3.193   5.460 -0.0326 -0.6625  0.0045
71017SOL    HW125030   1.899   3.101   5.477 -0.8408 -0.7909  0.2444
71017SOL    HW225031   1.796   3.209   5.503 -1.1967 -0.4917 -2.1694
71018SOL     OW25032   1.491   4.174   4.902  0.2275  0.6409 -0.0502
71018SOL    HW125033   1.496   4.234   4.827  1.6320 -0.0193 -0.5092
71018SOL    HW225034   1.412   4.122   4.885  0.5445  0.4780 -1.1076
71019SOL     OW25035  10.964   3.186  12.832  0.1588 -0.2814 -0.0507
71019SOL    HW125036  11.029   3.158  12.768 -0.4897 -3.1150  0.3971
71019SOL    HW225037  10.880   3.176  12.786 -0.3443 -2.6799  1.2257
71020SOL     OW25038   1.149  13.321  11.173  0.4135  0.1506 -0.1132
71020SOL    HW125039   1.240  13.331  11.200  0.7169  1.2772 -1.4464
71020SOL    HW225040   1.144  13.231  11.140  0.8295 -0.1847  0.7167
71021SOL     OW25041  12.364   4.635   5.862 -0.6855 -0.0702  0.1206
71021SOL    HW125042  12.423   4.662   5.792 -0.2588 -3.2219 -0.8640
71021SOL    HW225043  12.303   4.709   5.871  0.2751  1.1521 -2.3779
71022SOL     OW25044   2.127   1.733   2.623  0.3831  1.1294  0.2909
71022SOL    HW125045   2.195   1.676   2.658 -0.4279 -0.2293 -0.2701
71022SOL    HW225046   2.083   1.680   2.557 -0.9097  2.1335  0.3077
71023SOL     OW25047   9.130   5.024   0.793 -0.2868  0.4032  0.2628
71023SOL    HW125048   9.126   4.935   0.829 -1.5957  0.4401  0.2414
71023SOL    HW225049   9.116   5.082   0.868 -1.7767  0.5115 -0.0764
71024SOL     OW25050  14.006  10.992   6.751 -0.6963  0.7420  0.9371
71024SOL    HW125051  13.989  11.066   6.809  0.1857  0.9734  0.9171
71024SOL    HW225052  13.998  11.028   6.663 -3.5310  0.0610  0.8229
71025SOL     OW25053  13.331   0.436  12.187 -0.0017  0.1400  0.0844
71025SOL    HW125054  13.253   0.429  12.131  1.6529 -1.1232 -2.2402
71025SOL    HW225055  13.358   0.527  12.179 -0.8113  0.4092  0.3127
71026SOL     OW25056   5.679   6.988   7.875 -0.3838  1.0548  0.2822
71026SOL    HW125057   5.595   7.016   7.912 -0.3512  2.0389 -0.3508
71026SOL    HW225058   5.745   7.026   7.933 -0.3371 -1.0790  1.7515
71027SOL     OW25059   4.340   9.338  12.661 -0.0108  0.4293 -0.0815
71027SOL    HW125060   4.299   9.255  12.637  0.2104 -0.0920  1.2525
71027SOL    HW225061   4.330   9.343  12.756  3.5926 -0.1127  0.4684
71028SOL     OW25062   8.753   1.645   5.206  0.5417 -0.3711  1.0393
71028SOL    HW125063   8.675   1.637   5.151  0.8314 -0.1575  0.5967
71028SOL    HW225064   8.753   1.565   5.258  2.4120 -2.6056 -2.0436
71029SOL     OW25065  13.658   6.547   2.070 -0.2594 -0.1722 -0.1795
71029SOL    HW125066  13.752   6.563   2.061 -0.2530  0.7011  1.1930
71029SOL    HW225067  13.650   6.487   2.143 -0.7552 -0.5481 -0.5346
71030SOL     OW25068   8.023   7.183   2.350  0.4636 -0.1914  0.3950
71030SOL    HW125069   8.024   7.094   2.316  0.8374 -0.2102  0.4504
71030SOL    HW225070   8.102   7.224   2.314  0.3857  0.0646  0.5082
71031SOL     OW25071   3.884  11.592  11.244 -0.2852 -0.0368 -0.2141
71031SOL    HW125072   3.969  11.568  11.280  0.3350  0.1212 -1.5047
71031SOL    HW225073   3.830  11.514  11.253 -0.4966  0.2817  1.9081
71032SOL     OW25074  11.047   7.776  12.506 -0.3389 -0.5966  0.1162
71032SOL    HW125075  11.017   7.686  12.519 -1.1523 -0.1483  1.6110
71032SOL    HW225076  10.968   7.829  12.516  0.5923  0.5014  2.5645
71033SOL     OW25077   1.393   3.230  13.789 -0.0699  0.5132  0.2600
71033SOL    HW125078   1.451   3.261  13.858  0.6775 -0.4784  0.1110
71033SOL    HW225079   1.317   3.288  13.792  1.6499  2.9698 -0.6484
71034SOL     OW25080   2.511   9.479   0.963  0.0979  0.1408  0.3538
71034SOL    HW125081   2.473   9.553   1.011  0.3782  0.1942  0.4964
71034SOL    HW225082   2.585   9.451   1.017  1.4253  1.2192 -0.8064
71035SOL     OW25083  12.143   1.176   1.224  0.1610 -0.5911 -0.0624
71035SOL    HW125084  12.169   1.084   1.220 -0.1456 -0.6612 -0.4840
71035SOL    HW225085  12.079   1.186   1.153 -1.1091 -0.4787  1.0499
71036SOL     OW25086   6.998  11.348   6.469 -0.8341 -0.0900  0.3333
71036SOL    HW125087   7.085  11.361   6.433 -0.8983  0.2524  0.2901
71036SOL    HW225088   6.987  11.253   6.475 -0.6284 -0.1400 -0.0731
71037SOL     OW25089   6.961   3.255   2.461 -0.4748  0.2123 -0.3249
71037SOL    HW125090   6.977   3.179   2.517 -1.4751  1.3071  1.5572
71037SOL    HW225091   6.885   3.298   2.500 -0.6419  1.5784 -2.0112
71038SOL     OW25092   3.468  12.359   2.338  0.1263  0.2158 -0.5434
71038SOL    HW125093   3.502  12.309   2.264  0.5732 -1.8962  0.9996
71038SOL    HW225094   3.535  12.425   2.355  0.3508  0.2678 -1.5782
71039SOL     OW25095   6.427   0.517  11.285  0.1654 -0.2915  0.0571
71039SOL    HW125096   6.391   0.482  11.366  1.1096  0.1681  0.6957
71039SOL    HW225097   6.508   0.560  11.312  1.0265 -1.0208 -1.2691
71040SOL     OW25098  10.169  10.543   9.449 -0.1873  0.4655 -0.1572
71040SOL    HW125099  10.098  10.608   9.457 -1.4905 -0.4329 -2.8898
71040SOL    HW225100  10.141  10.470   9.504  0.2489  1.3482  1.2831
71041SOL     OW25101   0.343   7.932   1.613  0.1223  0.2801 -0.2824
71041SOL    HW125102   0.321   7.845   1.581  3.8691 -0.6016 -0.8409
71041SOL    HW225103   0.313   7.991   1.544  2.9976 -1.1607 -3.0158
71042SOL     OW25104   0.719  12.382   6.963  0.2767 -0.7013  0.0623
71042SOL    HW125105   0.676  12.308   6.919  0.8776 -0.4030 -1.0470
71042SOL    HW225106   0.716  12.453   6.900  3.5285 -1.0158 -0.6367
71043SOL     OW25107   9.991  13.606   8.665 -0.2823 -0.6888 -0.0179
71043SOL    HW125108   9.919  13.631   8.723 -0.2793 -0.4393 -0.1218
71043SOL    HW225109  10.062  13.665   8.688 -0.4572 -0.2203 -0.6457
71044SOL     OW25110   9.879   5.194  11.286  0.0118  0.0318 -0.2961
71044SOL    HW125111   9.837   5.174  11.203  0.8121 -1.0511 -0.4697
71044SOL    HW225112   9.813   5.174  11.352 -0.7351  1.1893 -0.6541
71045SOL     OW25113   5.194   2.300   6.778 -0.3025  0.3399 -0.3140
71045SOL    HW125114   5.107   2.262   6.789 -1.4535  3.1570  1.5961
71045SOL    HW225115   5.179   2.394   6.781  2.7808  0.9355 -0.5225
71046SOL     OW25116  10.110  13.870  11.403 -0.3393  0.0259  0.2813
71046SOL    HW125117  10.116  13.949  11.458  1.9483  0.5798 -0.6255
71046SOL    HW225118  10.036  13.821  11.439 -0.0710  1.2322  2.6874
71047SOL     OW25119  13.282   1.903   7.910 -0.5696 -0.2566 -0.2429
71047SOL    HW125120  13.189   1.918   7.894 -0.8023  2.1827  2.5771
71047SOL    HW225121  13.283   1.828   7.969 -0.4823 -1.8279 -2.1334
71048SOL     OW25122   2.758   1.806   0.009  0.1911 -0.1891  0.4384
71048SOL    HW125123   2.751   1.886  -0.042 -2.5268 -1.7296 -1.8543
71048SOL    HW225124   2.818   1.829   0.081  0.6039  3.4217 -0.8517
71049SOL     OW25125  13.765   6.543  12.542 -0.6550  0.4440  0.3401
71049SOL    HW125126  13.713   6.599  12.485 -0.3921  0.6061  0.2579
71049SOL    HW225127  13.778   6.463  12.491  0.4559  0.9831 -0.2490
71050SOL     OW25128  11.491   8.017   0.313 -0.1412  0.2483  0.1400
71050SOL    HW125129  11.511   7.944   0.372 -0.1981 -1.1549 -1.4649
71050SOL    HW225130  11.403   8.045   0.339  0.3971  0.6549  1.6264
71051SOL     OW25131   6.835   3.227  10.025  0.3304  0.8140 -0.0596
71051SOL    HW125132   6.802   3.219  10.114 -0.2755 -0.7324 -0.3895
71051SOL    HW225133   6.925   3.194  10.029  0.2261  0.5298 -0.0632
71052SOL     OW25134  11.482   0.801   6.618  0.0105  0.3548 -0.8481
71052SOL    HW125135  11.552   0.745   6.585  0.9133 -0.5627  2.2702
71052SOL    HW225136  11.523   0.886   6.632 -0.0762  0.4282 -1.0370
71053SOL     OW25137  12.213  10.235   7.906 -0.3092  0.1161 -0.3114
71053SOL    HW125138  12.211  10.306   7.970 -0.9736  0.0827 -0.2860
71053SOL    HW225139  12.226  10.279   7.822  0.0387  0.2033 -0.2121
71054SOL     OW25140  10.935   0.504   6.406 -0.1676  0.0547  0.1200
71054SOL    HW125141  10.842   0.489   6.387  0.2631 -1.6266 -0.7801
71054SOL    HW225142  10.969   0.542   6.326  0.2266 -0.7072 -0.0773
71055SOL     OW25143  13.034   9.095   3.974  0.0743 -0.0953  0.5392
71055SOL    HW125144  13.047   9.186   3.949 -0.8156  0.0444  0.5443
71055SOL    HW225145  13.024   9.097   4.069 -1.3929  0.0020  0.4025
71056SOL     OW25146   4.446  10.932   8.624 -0.4584  0.3043  0.5859
71056SOL    HW125147   4.483  10.854   8.583  1.4904  0.5803  1.6912
71056SOL    HW225148   4.368  10.900   8.670 -1.3375 -0.4214 -1.3085
71057SOL     OW25149   0.505  13.093   4.058  0.3134 -0.0481  0.3474
71057SOL    HW125150   0.451  13.046   3.994  0.4469  1.7082 -1.1077
71057SOL    HW225151   0.488  13.185   4.042  0.7747  0.4794  2.5257
71058SOL     OW25152   9.094  13.325  11.167  0.0512 -0.0827  0.2449
71058SOL    HW125153   9.034  13.399  11.163  0.5637  0.3643  0.6220
71058SOL    HW225154   9.145  13.340  11.246  0.5958 -0.5000 -0.0202
71059SOL     OW25155  10.235   1.646   8.456  0.4805 -0.5100  0.2733
71059SOL    HW125156  10.181   1.714   8.497 -0.5057 -1.9810  1.4758
71059SOL    HW225157  10.277   1.691   8.382 -0.2331  1.3706  0.9530
71060SOL     OW25158  12.201   5.492  11.383 -0.2037  1.1490  0.1991
71060SOL    HW125159  12.247   5.506  11.466 -1.0095 -0.2333  0.9251
71060SOL    HW225160  12.178   5.580  11.353  1.2036  1.7521  0.7859
71061SOL     OW25161   4.285  13.995   5.203  0.1501  0.0821  0.0714
71061SOL    HW125162   4.354  14.059   5.222 -0.9689  1.3595  0.0019
71061SOL    HW225163   4.248  13.975   5.289 -0.8001  1.0652 -0.0961
71062SOL     OW25164   9.032  10.160   9.008 -0.2031 -0.2438 -0.3705
71062SOL    HW125165   9.116  10.117   8.989  0.4014  0.5144  0.5172
71062SOL    HW225166   9.044  10.199   9.094 -1.2270  0.5090 -0.5518
71063SOL     OW25167   8.876   8.654  10.921 -0.8201 -0.2979  0.2240
71063SOL    HW125168   8.934   8.690  10.987 -0.1376 -0.2259 -0.4074
71063SOL    HW225169   8.802   8.715  10.919 -0.8284 -0.2797  0.8842
71064SOL     OW25170   4.575  12.581   6.436  0.1241 -0.1131  0.5201
71064SOL    HW125171   4.636  12.650   6.414 -0.2872  0.1861  0.2918
71064SOL    HW225172   4.510  12.583   6.365 -0.7587  0.3117  1.3245
71065SOL     OW25173   8.836  13.623   9.591 -0.8113  0.4758 -0.1523
71065SOL    HW125174   8.927  13.624   9.621 -0.2105  0.1729 -1.8460
71065SOL    HW225175   8.786  13.598   9.668  0.6892 -0.7177  0.4946
71066SOL     OW25176   2.360  13.736   9.499 -0.9166  0.0750 -0.3414
71066SOL    HW125177   2.413  13.671   9.453  0.7990  2.2050 -1.5746
71066SOL    HW225178   2.278  13.739   9.450 -0.5116 -0.2913 -1.0626
71067SOL     OW25179  10.869  13.445  11.588  0.1918 -0.6018 -1.0411
71067SOL    HW125180  10.774  13.454  11.594  0.2250 -0.3843 -0.8071
71067SOL    HW225181  10.892  13.390  11.663  0.4751  1.1088  0.2031
71068SOL     OW25182   3.134   6.176   0.128 -0.2067 -0.3255 -0.4958
71068SOL    HW125183   3.082   6.175   0.208 -0.1253 -0.7515 -0.4446
71068SOL    HW225184   3.119   6.090   0.088  0.5158 -0.4831 -0.4397
71069SOL     OW25185   0.501   3.821   8.519  0.2842  0.1201 -0.0984
71069SOL    HW125186   0.412   3.835   8.488  0.9780  0.5979 -2.0402
71069SOL    HW225187   0.546   3.904   8.503  0.6266  0.6163  2.7853
71070SOL     OW25188  11.258  11.809  13.277  0.3523  0.7039  0.3647
71070SOL    HW125189  11.286  11.895  13.308 -1.0080  1.2915  0.0638
71070SOL    HW225190  11.163  11.817  13.267  0.2192 -0.7850  0.1551
71071SOL     OW25191  10.178  11.641  11.455  0.0933 -0.2279 -0.0330
71071SOL    HW125192  10.201  11.560  11.501 -0.0349 -0.4723 -0.3911
71071SOL    HW225193  10.248  11.653  11.391  0.0959 -0.0721  0.0000
71072SOL     OW25194  12.618  11.479   9.246 -0.5695  0.3221  0.0165
71072SOL    HW125195  12.554  11.475   9.317 -0.6752 -0.6448 -0.1216
71072SOL    HW225196  12.583  11.420   9.179  1.4161 -1.7977  0.7334
71073SOL     OW25197   3.302  11.969   7.987 -0.0522 -0.5032 -0.1735
71073SOL    HW125198   3.257  11.897   8.032 -0.8445  0.4248  0.5856
71073SOL    HW225199   3.302  12.040   8.052  3.1870 -0.6631  0.1258
71074SOL     OW25200   9.729  13.271   7.482  0.4445  0.2074  0.1769
71074SOL    HW125201   9.720  13.299   7.573 -1.2201  0.9761 -0.1872
71074SOL    HW225202   9.811  13.221   7.480  0.1472 -0.4623  2.2447
71075SOL     OW25203   8.649   4.331   5.296  0.3683 -0.3028 -0.0660
71075SOL    HW125204   8.687   4.323   5.209 -0.4800 -1.4084 -0.3704
71075SOL    HW225205   8.702   4.396   5.341  1.1422 -0.1133 -1.2370
71076SOL     OW25206   9.143   9.375   6.768  0.1233  0.0483 -0.0772
71076SOL    HW125207   9.166   9.370   6.675  0.2781  1.2825 -0.1209
71076SOL    HW225208   9.224   9.400   6.812  0.5457 -2.4210  0.6702
71077SOL     OW25209   9.803   8.219   4.605 -0.2205  0.4108  0.3598
71077SOL    HW125210   9.726   8.227   4.548 -0.2866  1.6249  0.5998
71077SOL    HW225211   9.877   8.237   4.548 -0.1235 -0.4616  0.1976
71078SOL     OW25212   6.265   0.308   4.708 -0.0527 -0.1598 -0.0497
71078SOL    HW125213   6.218   0.294   4.791  1.0607 -0.8369  0.4813
71078SOL    HW225214   6.303   0.395   4.717 -0.6619  0.1297 -0.2203
71079SOL     OW25215   5.018   4.152   7.776  0.7150 -0.1035  0.5943
71079SOL    HW125216   4.931   4.151   7.738  0.9365  0.8891  0.0334
71079SOL    HW225217   5.009   4.203   7.857  0.1393 -2.6231  2.2043
71080SOL     OW25218  13.921  10.320  10.117 -0.7532  0.1958 -0.6353
71080SOL    HW125219  13.946  10.252  10.054 -1.4153  1.7256 -2.6814
71080SOL    HW225220  13.853  10.280  10.170  0.1560 -1.3045 -0.5392
71081SOL     OW25221  11.311   7.048   2.852 -0.1633  0.0817  0.0012
71081SOL    HW125222  11.260   7.051   2.933  0.0608 -0.8392  0.1865
71081SOL    HW225223  11.394   7.006   2.876  0.6025  1.3156 -0.3512
71082SOL     OW25224   6.620   6.232  13.803 -0.2899 -0.6402 -0.3421
71082SOL    HW125225   6.614   6.322  13.833  0.7519 -0.4222 -0.7478
71082SOL    HW225226   6.547   6.222  13.741 -0.2844 -0.0172 -0.4545
71083SOL     OW25227   6.744   1.449  11.929 -0.3612  0.4063 -0.6940
71083SOL    HW125228   6.727   1.487  12.015  0.2612  0.9560 -0.8021
71083SOL    HW225229   6.714   1.358  11.936 -3.0744  1.2114 -0.8173
71084SOL     OW25230   1.562   9.247   3.561 -0.2712 -0.0281  0.0458
71084SOL    HW125231   1.530   9.322   3.611  2.0462  1.5521 -0.6942
71084SOL    HW225232   1.598   9.188   3.627 -0.3440  0.4372  0.5094
71085SOL     OW25233   2.245   6.546   5.401 -0.0819  0.7451 -0.0568
71085SOL    HW125234   2.334   6.542   5.435  0.5526  0.9502 -1.6222
71085SOL    HW225235   2.244   6.484   5.328 -0.9128  1.4990 -0.7114
71086SOL     OW25236   1.953   0.999   5.092 -0.4051 -0.2865  0.2018
71086SOL    HW125237   2.036   1.026   5.055 -0.4035  0.7305  0.8970
71086SOL    HW225238   1.890   1.007   5.020 -0.5366  2.3353  0.5150
71087SOL     OW25239   2.750   9.014   6.832  0.6938  0.2075  0.0638
71087SOL    HW125240   2.751   8.959   6.910  2.2569  2.7421  1.9671
71087SOL    HW225241   2.673   9.070   6.842  1.0389  0.7167 -0.0708
71088SOL     OW25242   8.949   3.188  10.389 -0.2932 -0.1350 -0.0265
71088SOL    HW125243   8.970   3.253  10.322  0.2192 -0.5738 -0.3043
71088SOL    HW225244   8.861   3.209  10.417 -1.2661 -1.0600 -2.1683
71089SOL     OW25245   9.731   4.303   8.693 -0.2985 -0.1252  0.3733
71089SOL    HW125246   9.689   4.386   8.669 -0.5349 -0.3481  0.0030
71089SOL    HW225247   9.824   4.318   8.676 -0.3153  0.1344  0.5078
71090SOL     OW25248   9.597  13.016   5.867  0.3145 -0.7915 -0.2251
71090SOL    HW125249   9.669  12.969   5.826 -0.7157 -1.2538 -1.5871
71090SOL    HW225250   9.523  13.001   5.809 -0.6386  0.5065  0.6054
71091SOL     OW25251   1.870   3.005   3.821  0.5284 -0.0993  0.5433
71091SOL    HW125252   1.886   3.075   3.884  0.2405  2.2583 -1.8002
71091SOL    HW225253   1.915   3.034   3.741 -1.0156 -1.7659 -1.0432
71092SOL     OW25254  12.224   8.434   4.713  0.5554 -0.1917  0.2845
71092SOL    HW125255  12.304   8.392   4.681  0.1096 -2.5770  2.0211
71092SOL    HW225256  12.254   8.511   4.760  1.7967 -0.8301  0.5587
71093SOL     OW25257   8.748  12.572   8.800  0.0908 -0.2474  0.6294
71093SOL    HW125258   8.764  12.481   8.824 -0.5631 -0.1976  1.2780
71093SOL    HW225259   8.771  12.622   8.878  1.6380  0.2849 -0.1064
71094SOL     OW25260   0.672   5.705   5.032  0.4801  0.3182  0.3588
71094SOL    HW125261   0.699   5.660   4.952 -0.4564 -0.2855  0.3718
71094SOL    HW225262   0.631   5.785   5.001 -1.3642 -0.6767  0.1242
71095SOL     OW25263  11.216  11.236   4.620 -0.3150 -0.8878 -0.7710
71095SOL    HW125264  11.164  11.160   4.593 -0.2890 -0.8337 -0.9787
71095SOL    HW225265  11.254  11.210   4.704  2.2538 -2.3654 -2.2588
71096SOL     OW25266  11.358   8.187   7.988  0.5466 -0.7551  0.2697
71096SOL    HW125267  11.449   8.164   8.007  0.5882 -0.4234  0.4726
71096SOL    HW225268  11.361   8.223   7.899  0.7791  0.1846  0.6427
71097SOL     OW25269   3.455   9.077   5.255 -0.2996 -0.2404  0.1212
71097SOL    HW125270   3.435   8.998   5.304 -1.8404 -0.4808 -0.8274
71097SOL    HW225271   3.543   9.062   5.219 -0.2672 -1.1731  0.5818
71098SOL     OW25272   1.573   6.512   8.265 -0.1087  0.2251  0.1571
71098SOL    HW125273   1.568   6.607   8.250 -1.5183 -0.1649 -2.5720
71098SOL    HW225274   1.655   6.485   8.224  1.1068  0.4036  2.3479
71099SOL     OW25275   4.532   4.784   4.495 -0.3533 -0.2135 -0.3176
71099SOL    HW125276   4.579   4.701   4.492 -1.0795 -0.6268 -0.4603
71099SOL    HW225277   4.564   4.834   4.420  0.0903 -0.3563 -0.2245
71100SOL     OW25278   9.057   1.675   0.785 -0.2973  0.2127 -0.1159
71100SOL    HW125279   9.120   1.711   0.847 -0.4361 -0.2133  0.2765
71100SOL    HW225280   9.036   1.588   0.820 -2.0995  0.8563  0.4584
71101SOL     OW25281   0.950   5.400   8.596  0.2062 -0.4040  0.1381
71101SOL    HW125282   0.893   5.365   8.528 -1.8333 -1.6793  2.3149
71101SOL    HW225283   0.903   5.476   8.630  1.0440  0.0388  0.3406
71102SOL     OW25284   1.656   6.185  11.849  0.1259 -0.3764 -0.6270
71102SOL    HW125285   1.636   6.149  11.935 -0.4886  0.3950 -0.4327
71102SOL    HW225286   1.612   6.270  11.847  1.6561  0.4533 -1.0013
71103SOL     OW25287  10.267  11.763   0.699  0.6566  0.0293 -0.2947
71103SOL    HW125288  10.359  11.752   0.676  1.1723  0.6902  1.3005
71103SOL    HW225289  10.265  11.757   0.794 -1.0419 -0.5005 -0.3229
71104SOL     OW25290   5.089   5.359   6.112  0.0551 -0.2122 -0.8291
71104SOL    HW125291   5.127   5.343   6.026 -0.3471  1.1672 -1.2943
71104SOL    HW225292   5.020   5.292   6.120  1.9089 -2.1799 -0.3278
71105SOL     OW25293   5.134   0.620   2.341  0.6894  0.5936 -0.4637
71105SOL    HW125294   5.081   0.568   2.401  1.4035  0.1202 -0.2440
71105SOL    HW225295   5.186   0.677   2.397  0.9412  0.5504 -0.6515
71106SOL     OW25296   6.494   1.559   0.559 -0.1990  0.4622  0.4496
71106SOL    HW125297   6.558   1.605   0.613  1.9882  1.3014 -2.5620
71106SOL    HW225298   6.440   1.628   0.522 -1.7066 -0.0990  1.5338
71107SOL     OW25299  11.071   7.617   2.656  0.0759 -0.3151 -0.1860
71107SOL    HW125300  11.102   7.554   2.591  1.0681 -0.4967  0.4392
71107SOL    HW225301  11.151   7.644   2.702 -0.0561  2.5297 -1.3982
71108SOL     OW25302   2.998   1.215   3.393  0.0753  0.4320 -0.3817
71108SOL    HW125303   2.936   1.252   3.457  0.2787  0.3416 -0.1309
71108SOL    HW225304   3.083   1.249   3.420  0.2818 -0.2978 -0.0913
71109SOL     OW25305   7.229   3.224   9.853 -0.2651 -0.1225 -0.3299
71109SOL    HW125306   7.194   3.294   9.908 -0.2765 -1.4947  1.4846
71109SOL    HW225307   7.260   3.269   9.774 -0.9532  1.8138  0.4468
71110SOL     OW25308   0.336  12.820   3.993  0.5383 -0.4248  0.4455
71110SOL    HW125309   0.276  12.774   3.934  2.3018  0.2664 -2.1060
71110SOL    HW225310   0.280  12.872   4.050 -1.3167 -0.8546 -0.9102
71111SOL     OW25311  10.941   7.064   5.430 -0.0927 -0.3112  0.0280
71111SOL    HW125312  10.993   7.134   5.469  0.9062 -1.5986  1.0900
71111SOL    HW225313  10.971   7.059   5.339  0.0837  0.3792  0.0470
71112SOL     OW25314   7.677   5.830   2.797 -0.1539 -0.2250  0.0074
71112SOL    HW125315   7.725   5.802   2.875  1.7208  0.3830 -0.8764
71112SOL    HW225316   7.637   5.750   2.764 -0.0719 -0.6857  0.9824
71113SOL     OW25317  13.007   1.199   0.572 -0.5807 -0.3036  0.1878
71113SOL    HW125318  12.995   1.201   0.667 -1.1689 -1.0123  0.1335
71113SOL    HW225319  13.049   1.115   0.554 -0.0274  0.0372 -0.1352
71114SOL     OW25320   0.740   5.744   9.488  0.1116 -0.2046  0.2547
71114SOL    HW125321   0.728   5.819   9.429 -0.4932 -0.8364 -0.4433
71114SOL    HW225322   0.657   5.737   9.535  0.3962 -0.0514  0.7980
71115SOL     OW25323  11.707   9.968   4.536 -0.0586  0.4038  0.0642
71115SOL    HW125324  11.722   9.902   4.469  0.7902  0.4855  0.1694
71115SOL    HW225325  11.687  10.048   4.488  0.5603  0.4656 -0.0906
71116SOL     OW25326   7.045   7.487   3.783 -0.1636 -0.5012 -0.0904
71116SOL    HW125327   6.995   7.413   3.749 -0.0531 -0.5100 -0.2326
71116SOL    HW225328   7.096   7.518   3.709  0.3325 -0.7327  0.1514
71117SOL     OW25329  12.749   2.066   4.065 -0.0510 -0.1059 -0.9555
71117SOL    HW125330  12.728   1.990   4.120  2.1177  0.1432  0.3341
71117SOL    HW225331  12.801   2.029   3.993  1.7187  0.1682  0.1118
71118SOL     OW25332   3.670  11.630   3.953  0.4870  0.3893  0.2210
71118SOL    HW125333   3.623  11.710   3.975 -2.6145 -0.6150 -1.9400
71118SOL    HW225334   3.642  11.567   4.019 -0.2392  0.1223 -0.3281
71119SOL     OW25335  10.737   8.234   5.933 -0.0797 -0.5528  0.1344
71119SOL    HW125336  10.672   8.288   5.978  1.6205  0.4668  1.5010
71119SOL    HW225337  10.696   8.210   5.850 -0.9759  2.7767 -0.5003
71120SOL     OW25338   1.845   3.848  12.371 -0.1565  0.2176 -0.1844
71120SOL    HW125339   1.859   3.903  12.447  1.0160 -0.4091  0.0690
71120SOL    HW225340   1.920   3.789  12.369 -1.2871 -1.2859 -0.5171
71121SOL     OW25341   0.482  12.268  11.167 -0.3732  0.3356  0.5027
71121SOL    HW125342   0.399  12.269  11.215  0.4244 -0.0273  1.9192
71121SOL    HW225343   0.527  12.190  11.198  0.2624  0.2054 -0.6913
71122SOL     OW25344   3.099  10.988   9.904 -0.2179  0.0211 -0.2677
71122SOL    HW125345   3.166  11.018   9.842 -0.0770 -0.7197 -0.4759
71122SOL    HW225346   3.026  11.049   9.889  0.1632  0.4394 -0.4887
71123SOL     OW25347   5.659   2.568  11.451 -0.4565 -0.5174  0.1520
71123SOL    HW125348   5.690   2.649  11.492  1.1267 -0.5034 -0.9860
71123SOL    HW225349   5.584   2.542  11.504  0.7135  0.1702  2.2906
71124SOL     OW25350   0.868   5.087   0.761  0.7889  0.4306 -0.0487
71124SOL    HW125351   0.886   5.116   0.850  1.6930 -0.9187  0.2354
71124SOL    HW225352   0.829   5.000   0.771 -0.3690  0.8145 -0.9262
71125SOL     OW25353   2.232  12.529   0.859  0.0910 -0.2198  0.3313
71125SOL    HW125354   2.143  12.526   0.824 -0.1022 -0.4523  0.8286
71125SOL    HW225355   2.288  12.543   0.782 -0.2658 -1.4381 -0.1819
71126SOL     OW25356  13.924   9.519   1.310  0.9735  0.6151  0.2811
71126SOL    HW125357  13.940   9.593   1.370  2.5996  1.2837 -0.8977
71126SOL    HW225358  13.874   9.558   1.238 -1.6749 -0.3544  1.4541
71127SOL     OW25359   6.340   1.802  11.607  0.5986 -0.4736  0.8194
71127SOL    HW125360   6.279   1.769  11.673 -1.0922  0.3745 -0.2441
71127SOL    HW225361   6.405   1.732  11.598 -0.9882 -2.0548  1.0073
71128SOL     OW25362  10.257   4.268   4.898 -0.2396  0.0097 -0.1311
71128SOL    HW125363  10.249   4.195   4.960  2.0671  0.0894  0.3508
71128SOL    HW225364  10.202   4.243   4.824 -2.0456 -0.6961  1.3687
71129SOL     OW25365   2.737   5.517  11.906 -0.1069 -0.4350 -0.3421
71129SOL    HW125366   2.687   5.493  11.828  1.9717 -0.3041 -1.8134
71129SOL    HW225367   2.736   5.612  11.907  0.6553 -0.4061 -0.8153
71130SOL     OW25368   4.497  10.374  13.675  0.3312 -0.4936 -0.0959
71130SOL    HW125369   4.453  10.358  13.758 -1.1797 -0.8245 -0.9254
71130SOL    HW225370   4.581  10.414  13.700 -1.2925  2.3035  1.4997
71131SOL     OW25371   2.574   7.495   6.147 -0.2358 -0.2445  0.8032
71131SOL    HW125372   2.629   7.541   6.083  2.5771 -2.0261  1.7955
71131SOL    HW225373   2.511   7.562   6.176  0.9767  1.7422 -0.8581
71132SOL     OW25374   7.976   5.102   6.430  0.1322 -0.2844  0.2118
71132SOL    HW125375   7.912   5.172   6.433 -0.2533 -0.6602  1.1041
71132SOL    HW225376   7.997   5.084   6.522  1.0992 -0.5429 -0.0472
71133SOL     OW25377   8.221   8.586   5.186  0.5653  0.1731 -0.0289
71133SOL    HW125378   8.180   8.590   5.272 -1.6830  0.5196 -1.0363
71133SOL    HW225379   8.285   8.516   5.192  2.6293  2.0638  2.7475
71134SOL     OW25380   5.404   9.544  13.184  0.6500  0.3574 -0.2063
71134SOL    HW125381   5.458   9.561  13.106  1.5857 -1.7166 -0.0800
71134SOL    HW225382   5.467   9.532  13.255 -0.0735 -0.2888  0.3407
71135SOL     OW25383  10.688   3.017   9.315 -0.4608  0.3107 -0.5354
71135SOL    HW125384  10.771   2.971   9.325 -1.5476 -1.9880 -1.5682
71135SOL    HW225385  10.710   3.098   9.268  1.1989 -0.1612 -0.6090
71136SOL     OW25386  11.601   2.528  12.700 -0.1524  0.4282  0.0830
71136SOL    HW125387  11.637   2.458  12.645  2.3006  0.2108  1.8124
71136SOL    HW225388  11.635   2.609  12.663 -0.7655  0.5220 -0.2988
71137SOL     OW25389   1.029   1.528   9.394  0.0516  0.2458  0.6752
71137SOL    HW125390   0.936   1.510   9.380 -0.2326  1.6169  0.6517
71137SOL    HW225391   1.058   1.459   9.454 -1.0598 -0.0237  0.9235
71138SOL     OW25392   7.946  13.022   8.744 -0.7415  0.6205  0.0392
71138SOL    HW125393   7.966  13.071   8.824 -0.2505  2.3065 -1.0772
71138SOL    HW225394   7.892  13.082   8.692  0.0634  0.0860 -1.4724
71139SOL     OW25395   1.497   3.756   6.596 -0.1386  0.4164 -0.5614
71139SOL    HW125396   1.441   3.740   6.672 -0.7537  0.9948 -0.8839
71139SOL    HW225397   1.513   3.850   6.597 -0.7276  0.5392 -1.5332
71140SOL     OW25398  10.812   0.282   6.186 -0.0185 -0.0367  0.4171
71140SOL    HW125399  10.740   0.343   6.201 -0.4320 -0.4813  0.2452
71140SOL    HW225400  10.770   0.199   6.163  0.5132  0.2999 -2.1056
71141SOL     OW25401   9.547   1.603   6.828 -0.3285 -0.7963 -0.3094
71141SOL    HW125402   9.514   1.692   6.836 -2.4902 -1.2903 -2.5717
71141SOL    HW225403   9.483   1.549   6.875  2.3633 -1.1071  3.4886
71142SOL     OW25404   3.491  10.868   2.401 -0.8681  0.4309 -0.4175
71142SOL    HW125405   3.542  10.901   2.328  0.6055 -0.2966  0.2472
71142SOL    HW225406   3.464  10.780   2.374 -1.4027  0.6403 -0.5829
71143SOL     OW25407   2.101  11.842   8.362  0.1888 -0.1102 -0.0479
71143SOL    HW125408   2.084  11.779   8.292 -1.8749 -1.7254  1.7474
71143SOL    HW225409   2.139  11.789   8.432 -0.8905  0.7680  1.2320
71144SOL     OW25410   9.981   3.136   1.451 -0.0509  0.0374  0.5921
71144SOL    HW125411  10.045   3.115   1.519 -0.7449  0.6485  1.4510
71144SOL    HW225412   9.896   3.118   1.492 -0.5106  1.1487  0.1593
71145SOL     OW25413   5.791  11.583   7.845  0.1519 -0.1627 -0.7628
71145SOL    HW125414   5.810  11.490   7.841 -0.3616 -0.3415  0.5565
71145SOL    HW225415   5.790  11.611   7.753  2.1189 -1.0600 -1.1087
71146SOL     OW25416   5.347   1.386   5.218 -0.3691  0.6187  0.0625
71146SOL    HW125417   5.306   1.416   5.137  1.9339 -1.3660 -2.0045
71146SOL    HW225418   5.434   1.426   5.218  1.8810 -3.5694 -1.5859
71147SOL     OW25419  13.834   8.987   8.898  0.2108 -0.1416 -0.0187
71147SOL    HW125420  13.846   9.050   8.969 -0.7618  0.8582 -0.7275
71147SOL    HW225421  13.922   8.951   8.884  1.3719  2.8278 -1.2308
71148SOL     OW25422  13.857   2.038   2.282 -0.0575 -0.3665 -0.6148
71148SOL    HW125423  13.804   1.979   2.335 -0.9888  0.1259 -0.9549
71148SOL    HW225424  13.795   2.075   2.219  0.4436  1.0671 -0.3240
71149SOL     OW25425   2.635  12.914   6.594 -0.5569 -0.2904 -0.0410
71149SOL    HW125426   2.650  12.981   6.528 -1.7764 -0.0918 -0.1346
71149SOL    HW225427   2.544  12.926   6.621 -0.6189 -1.5075  0.3812
71150SOL     OW25428   5.899   0.000   7.112 -0.5430  0.0564 -0.5087
71150SOL    HW125429   5.876  -0.011   7.204 -0.9510  1.1530 -0.4570
71150SOL    HW225430   5.986   0.041   7.114  0.3412 -1.7408 -0.6632
71151SOL     OW25431  12.009   4.921  13.396  0.2545  0.1896 -0.0248
71151SOL    HW125432  12.045   5.001  13.435  0.3202  0.1361  0.0245
71151SOL    HW225433  12.079   4.889  13.339 -0.9663  2.0373 -2.7969
71152SOL     OW25434   4.529  10.632   6.408  0.0732  0.3064 -0.2234
71152SOL    HW125435   4.620  10.638   6.381  0.6878  1.1302  1.8346
71152SOL    HW225436   4.484  10.701   6.358  0.2752 -0.9420 -2.2010
71153SOL     OW25437  11.176  11.387  11.778 -0.7210  0.1371  0.4925
71153SOL    HW125438  11.137  11.371  11.863 -1.7111  0.0218  0.0272
71153SOL    HW225439  11.202  11.300  11.746  0.1500  0.2368  0.8986
71154SOL     OW25440  12.151   6.136   0.459  0.2729 -0.4604 -0.8312
71154SOL    HW125441  12.130   6.107   0.548  2.7284 -3.2124 -0.9905
71154SOL    HW225442  12.200   6.218   0.471 -0.3779 -0.2202  0.2511
71155SOL     OW25443  13.791   0.075   7.518 -0.7079 -0.5186 -0.3421
71155SOL    HW125444  13.728   0.025   7.466 -0.7220 -0.1756 -0.6587
71155SOL    HW225445  13.866   0.086   7.460 -1.4011  1.3879 -0.9653
71156SOL     OW25446   6.447   7.165   9.841  0.2172  0.4544 -0.4008
71156SOL    HW125447   6.406   7.208   9.766  0.1338  0.0016 -0.6157
71156SOL    HW225448   6.472   7.079   9.809 -0.0831  0.1490  0.1749
71157SOL     OW25449   7.930   9.607   8.150  0.2014  0.3664  0.0929
71157SOL    HW125450   7.871   9.666   8.196  2.3531  1.4285  1.6541
71157SOL    HW225451   7.986   9.571   8.219  0.3423 -1.8722 -1.1100
71158SOL     OW25452   5.215   1.979   6.320 -0.0025  0.1733 -0.2857
71158SOL    HW125453   5.155   2.053   6.331 -0.0015  0.2016 -0.4543
71158SOL    HW225454   5.302   2.018   6.322  0.0917 -0.0783  1.6436
71159SOL     OW25455  13.678   2.856   2.601 -0.1476  0.6438 -0.2685
71159SOL    HW125456  13.675   2.762   2.620 -0.5507  0.3835 -1.5078
71159SOL    HW225457  13.627   2.865   2.520  1.6332  1.6090 -1.3437
71160SOL     OW25458   0.404  12.496   6.681  0.2307  0.1247  0.5524
71160SOL    HW125459   0.360  12.581   6.689 -0.1385 -0.1733  2.0414
71160SOL    HW225460   0.360  12.453   6.608 -0.4030  0.7358  0.5618
71161SOL     OW25461   7.097  13.888   1.405 -0.6292 -0.1240 -0.3512
71161SOL    HW125462   7.073  13.946   1.478  1.8204  0.4206  0.1086
71161SOL    HW225463   7.113  13.948   1.332  0.5436 -0.3188 -0.2675
71162SOL     OW25464   1.896   5.244  13.944 -0.2503 -0.3038 -0.5634
71162SOL    HW125465   1.952   5.256  14.020  0.1751 -1.1572 -0.7308
71162SOL    HW225466   1.886   5.332  13.907  1.0333 -0.1512 -0.5785
71163SOL     OW25467   8.846  11.546   3.877  0.2554  0.1723  0.4263
71163SOL    HW125468   8.881  11.457   3.883  0.1385  0.1514  0.7828
71163SOL    HW225469   8.865  11.585   3.962 -1.0582 -0.0023  0.8099
71164SOL     OW25470   4.485   3.758   2.846  0.0890 -0.3682  0.0333
71164SOL    HW125471   4.441   3.839   2.820  1.4658  0.6602  0.7483
71164SOL    HW225472   4.418   3.708   2.892 -1.2239 -0.3789 -1.7787
71165SOL     OW25473   6.601   3.498   6.351 -0.1725 -0.2314  0.3215
71165SOL    HW125474   6.631   3.485   6.262 -0.3540 -1.1734  0.3833
71165SOL    HW225475   6.505   3.489   6.346 -0.2253  0.1796  0.5341
71166SOL     OW25476  10.587   2.393   8.418 -0.0287 -0.3677 -0.2481
71166SOL    HW125477  10.617   2.484   8.417 -0.1691 -0.3094 -1.5936
71166SOL    HW225478  10.605   2.362   8.329 -1.2582 -1.2353 -0.2119
71167SOL     OW25479   2.362   4.087   2.952  0.1334  0.6552 -0.0313
71167SOL    HW125480   2.426   4.092   2.880 -0.5925 -0.8967 -0.8186
71167SOL    HW225481   2.288   4.139   2.921 -0.5627 -0.7854 -0.8470
71168SOL     OW25482   4.786  11.887  11.449 -0.2119 -0.5806 -0.5785
71168SOL    HW125483   4.704  11.840  11.436 -1.6321  1.1291  1.4411
71168SOL    HW225484   4.818  11.855  11.534 -0.4591  0.9479  0.1323
71169SOL     OW25485   1.945   9.713  10.727 -0.7628 -0.8603 -0.5070
71169SOL    HW125486   1.933   9.729  10.634  1.3970 -1.2860 -0.9167
71169SOL    HW225487   2.033   9.675  10.734  0.4288  1.9586  1.9953
71170SOL     OW25488   3.628   6.445   9.637 -0.2200 -0.1835 -0.0962
71170SOL    HW125489   3.615   6.376   9.701  1.7333 -0.0481  0.5169
71170SOL    HW225490   3.708   6.419   9.591 -0.9354  0.3252 -1.7061
71171SOL     OW25491  10.524   8.046   2.359 -0.4198  0.4255  0.0763
71171SOL    HW125492  10.591   8.033   2.291  1.8335  1.7908  1.9211
71171SOL    HW225493  10.447   8.078   2.311  0.1878 -1.1864 -2.1151
71172SOL     OW25494   5.375   5.309   1.050 -0.1907  0.2782 -0.5167
71172SOL    HW125495   5.286   5.283   1.074  0.4357 -1.0963  0.4489
71172SOL    HW225496   5.422   5.312   1.134  0.8553  0.2656 -1.0880
71173SOL     OW25497   7.522   8.699  12.730 -0.8118 -0.5962 -0.5138
71173SOL    HW125498   7.507   8.789  12.702  0.6537 -0.2337 -0.2295
71173SOL    HW225499   7.493   8.697  12.821 -0.1436 -0.1809 -0.2792
71174SOL     OW25500   8.923  11.387  10.909 -0.1565  0.2467 -0.2681
71174SOL    HW125501   8.991  11.336  10.952 -0.8862  0.1892  0.8480
71174SOL    HW225502   8.900  11.336  10.831 -1.8631 -1.9258  1.5502
71175SOL     OW25503   0.031  12.745  12.026  0.0836  0.0586  0.0073
71175SOL    HW125504  -0.011  12.777  11.946 -0.8393  1.3403  0.9791
71175SOL    HW225505  -0.026  12.674  12.056  0.5817 -0.6146 -0.5963
71176SOL     OW25506   1.438   6.025   8.787 -0.1024 -0.0152 -0.0124
71176SOL    HW125507   1.404   6.092   8.727 -0.1753  0.3169  0.3972
71176SOL    HW225508   1.425   5.943   8.740 -0.3652  0.2214 -0.3643
71177SOL     OW25509   0.746   8.390  10.598  0.6767  0.0662 -0.4873
71177SOL    HW125510   0.703   8.379  10.682  0.3461  1.7758 -0.4050
71177SOL    HW225511   0.812   8.458  10.613  2.2963 -1.2919 -1.0330
71178SOL     OW25512   3.004   0.077  12.280  0.0395  0.1629 -0.1823
71178SOL    HW125513   3.001   0.009  12.347  1.3835  1.5241  1.3351
71178SOL    HW225514   3.052   0.036  12.208  0.5401 -0.6146  0.5639
71179SOL     OW25515   0.460  10.695   6.226  0.6517  0.0475 -0.0130
71179SOL    HW125516   0.427  10.777   6.265  1.8874  0.1979  0.7921
71179SOL    HW225517   0.384  10.657   6.183 -0.1096  1.3058  0.1432
71180SOL     OW25518   2.221   3.865   9.070  0.4249  0.1245 -0.3622
71180SOL    HW125519   2.162   3.938   9.086 -0.4252 -0.4577 -0.7526
71180SOL    HW225520   2.210   3.846   8.976 -1.9986 -2.6827  0.3399
71181SOL     OW25521  13.134   5.357  13.865  0.6799  0.5007  0.1318
71181SOL    HW125522  13.123   5.402  13.782  0.4200  2.0466  0.9725
71181SOL    HW225523  13.220   5.316  13.859  1.4826  2.1605 -0.2060
71182SOL     OW25524   4.907   5.192   1.973 -0.1437  0.4640  0.1467
71182SOL    HW125525   4.952   5.272   1.947 -0.8610  1.5359  1.9924
71182SOL    HW225526   4.821   5.199   1.932  0.9797 -1.2422 -2.7884
71183SOL     OW25527   6.632  10.498   2.405 -0.3947 -0.5769  0.2031
71183SOL    HW125528   6.713  10.457   2.373 -0.1449 -1.9552  2.4222
71183SOL    HW225529   6.565  10.469   2.343  0.5488 -0.4965 -0.9067
71184SOL     OW25530  12.128  13.471   7.727  0.0648 -0.5953  0.2296
71184SOL    HW125531  12.080  13.536   7.776 -0.0899 -0.0522 -0.6192
71184SOL    HW225532  12.220  13.487   7.748 -0.0150 -0.5271  0.5236
71185SOL     OW25533   9.360  12.580   9.942  0.1406  0.5313  0.4327
71185SOL    HW125534   9.408  12.609   9.865  1.3738 -2.2932  0.0208
71185SOL    HW225535   9.420  12.521   9.987 -1.9299 -0.8958  1.4687
71186SOL     OW25536   0.743   6.113   7.850 -0.5796 -0.8163 -0.6971
71186SOL    HW125537   0.704   6.175   7.911  1.1564 -0.5767  0.2090
71186SOL    HW225538   0.806   6.164   7.800 -2.0238 -0.9698 -2.8658
71187SOL     OW25539   4.222   2.486   5.798  0.1104 -0.2591  0.3403
71187SOL    HW125540   4.202   2.425   5.727  0.0923 -0.2964  0.3775
71187SOL    HW225541   4.137   2.506   5.837  0.1190 -0.2283  0.3431
71188SOL     OW25542   4.502   5.936   8.768  0.8762  0.4469 -0.7859
71188SOL    HW125543   4.588   5.907   8.737  0.6837 -1.2624  0.1810
71188SOL    HW225544   4.490   6.022   8.727  2.7501  0.4356 -1.4632
71189SOL     OW25545   8.035   7.881  12.957 -0.0168  0.7035  0.0856
71189SOL    HW125546   8.084   7.925  12.887 -0.0230 -0.7031 -0.8257
71189SOL    HW225547   7.944   7.909  12.944 -1.0091 -3.2319 -3.6588
71190SOL     OW25548   5.353   0.182  12.293 -0.4615 -0.0307  0.6070
71190SOL    HW125549   5.278   0.195  12.235  0.5826  1.6753 -0.4501
71190SOL    HW225550   5.408   0.117  12.247 -0.2501  0.3697  0.2821
71191SOL     OW25551   2.258  11.683  12.971  0.7174 -0.2569  0.0615
71191SOL    HW125552   2.334  11.637  13.005  1.9316  1.7719  0.2476
71191SOL    HW225553   2.202  11.698  13.048  1.4444  0.5960  0.4465
71192SOL     OW25554   6.992  13.451   1.010  0.5129  0.6579 -0.1080
71192SOL    HW125555   7.000  13.518   1.078  1.0729  0.2946  0.1913
71192SOL    HW225556   6.961  13.373   1.056  2.1967  0.0131 -0.0016
71193SOL     OW25557   5.826   7.428   5.622 -0.0257  0.1241 -0.3035
71193SOL    HW125558   5.789   7.457   5.539  0.7245  1.6811 -0.1194
71193SOL    HW225559   5.917   7.410   5.602 -0.1242 -0.6715 -0.0664
71194SOL     OW25560   6.765   3.740   0.605 -0.5684 -0.0179  0.2800
71194SOL    HW125561   6.768   3.800   0.679 -0.1622 -0.9207  1.0052
71194SOL    HW225562   6.792   3.794   0.530  3.3109 -0.0270  1.4325
71195SOL     OW25563   4.412  12.958   8.954  0.1401  0.6865  0.0654
71195SOL    HW125564   4.404  12.958   9.050 -2.3775  6.0792  0.2498
71195SOL    HW225565   4.327  12.928   8.923  0.5635  0.0375 -0.4970
71196SOL     OW25566  13.733  12.882   5.842 -0.1606 -0.1017  0.3868
71196SOL    HW125567  13.699  12.826   5.772 -0.5148  0.8844 -0.2515
71196SOL    HW225568  13.784  12.949   5.796  1.6703 -0.8428  1.2449
71197SOL     OW25569   3.547   1.572   8.176  0.3900  0.0480 -0.0721
71197SOL    HW125570   3.570   1.602   8.088 -0.5748  0.8545 -0.0645
71197SOL    HW225571   3.571   1.645   8.234 -0.3359  0.1135  0.1536
71198SOL     OW25572  11.313   6.610   9.412 -0.6160 -0.5040 -0.0490
71198SOL    HW125573  11.356   6.527   9.391  0.4394 -0.2128  0.8497
71198SOL    HW225574  11.349   6.672   9.349  0.9658 -0.0859  1.1887
71199SOL     OW25575  11.572   6.410   3.480  0.1585  0.1027  0.0504
71199SOL    HW125576  11.515   6.360   3.538  0.6105  0.8317  1.1563
71199SOL    HW225577  11.630   6.345   3.441  0.4027 -0.3236  1.0748
71200SOL     OW25578   3.993   9.766  11.518  0.3191  0.0328 -0.6360
71200SOL    HW125579   4.008   9.819  11.595 -1.7011  0.8871 -0.7627
71200SOL    HW225580   4.004   9.826  11.444 -0.9113  0.0519 -0.8303
71201SOL     OW25581   8.061   5.465   3.897 -0.4590 -0.2502  0.1438
71201SOL    HW125582   8.111   5.383   3.894 -0.0758 -0.2812  3.4550
71201SOL    HW225583   8.126   5.533   3.880 -0.2936 -0.5042 -0.2676
71202SOL     OW25584  11.308   7.756  11.508 -0.5658 -0.1261 -0.1025
71202SOL    HW125585  11.372   7.723  11.570  1.7824 -0.3628 -2.4847
71202SOL    HW225586  11.333   7.846  11.492 -1.4371  0.0857 -0.3534
71203SOL     OW25587  10.311   1.631  13.525 -0.5343  0.1124  0.0503
71203SOL    HW125588  10.404   1.653  13.525 -0.4572 -0.1933 -0.4549
71203SOL    HW225589  10.266   1.715  13.522 -0.2822  0.2760  0.7306
71204SOL     OW25590   3.853   9.101  13.771  0.1092 -0.3419 -0.7110
71204SOL    HW125591   3.796   9.174  13.748 -2.0146 -1.5032  0.5602
71204SOL    HW225592   3.902   9.131  13.847 -0.5515 -0.1338 -0.3603
71205SOL     OW25593   7.897   0.739   9.748  0.4173 -0.1357 -0.0998
71205SOL    HW125594   7.959   0.800   9.786 -1.9510  2.2163  0.3369
71205SOL    HW225595   7.910   0.746   9.654  0.2551  1.0442 -0.0499
71206SOL     OW25596  13.719  10.283  13.021 -0.3400 -0.0939 -0.7691
71206SOL    HW125597  13.679  10.349  12.964 -0.7596  0.1697 -0.1840
71206SOL    HW225598  13.729  10.206  12.965  1.6968  0.9357 -1.9433
71207SOL     OW25599   1.236   1.486   1.729 -0.0426 -0.2287  0.2986
71207SOL    HW125600   1.217   1.577   1.704 -0.6120 -0.2669  0.5733
71207SOL    HW225601   1.292   1.453   1.659  0.2380  0.3631  0.2390
71208SOL     OW25602   0.756   2.612   1.365  0.4119  0.0514  0.8246
71208SOL    HW125603   0.788   2.585   1.278  0.3117  0.8751  0.5260
71208SOL    HW225604   0.710   2.535   1.398 -2.3346  0.6624 -1.1841
71209SOL     OW25605  10.322   6.351   8.747 -0.7407  0.1156  0.3445
71209SOL    HW125606  10.232   6.321   8.760 -0.5332 -0.7742 -0.1847
71209SOL    HW225607  10.325   6.380   8.656 -0.4937  0.1663  0.3689
71210SOL     OW25608   8.626   4.771   9.964  0.6984  0.3709 -0.1758
71210SOL    HW125609   8.548   4.807  10.005  0.8197  0.5925 -0.1398
71210SOL    HW225610   8.593   4.709   9.899  0.4978  0.3256 -0.0298
71211SOL     OW25611   6.447  12.203   0.777  0.0319  0.2092  0.2359
71211SOL    HW125612   6.475  12.218   0.687 -1.8879  0.8276 -0.3179
71211SOL    HW225613   6.473  12.113   0.796 -0.1458 -0.1530 -1.1859
71212SOL     OW25614   1.965  12.869   2.194  0.2296  0.0095  0.4150
71212SOL    HW125615   2.049  12.910   2.174  0.5148 -1.5478 -2.0362
71212SOL    HW225616   1.909  12.890   2.119 -1.5868  0.8903  1.9201
71213SOL     OW25617  12.783   6.596   9.451 -0.9136  0.1529 -0.3486
71213SOL    HW125618  12.743   6.575   9.366 -2.1817 -0.1757  0.2995
71213SOL    HW225619  12.716   6.648   9.496 -0.1618  0.5115  0.3643
71214SOL     OW25620  11.909   4.751  11.118 -0.0424 -0.4632 -0.0415
71214SOL    HW125621  11.920   4.763  11.212  1.3598 -2.7693  0.1572
71214SOL    HW225622  11.826   4.795  11.098 -0.6082 -0.3131  2.3218
71215SOL     OW25623   4.407  12.949   6.010 -0.1655  0.1269 -0.2491
71215SOL    HW125624   4.352  13.026   5.994  0.8486  0.7489 -0.8840
71215SOL    HW225625   4.380  12.886   5.944 -0.7966  0.0416  0.0827
71216SOL     OW25626   0.429   0.290  10.847  0.1823  0.3772  0.1893
71216SOL    HW125627   0.336   0.312  10.847  0.3714  1.2320 -0.5404
71216SOL    HW225628   0.433   0.202  10.885 -0.9533  0.2029 -0.0667
71217SOL     OW25629  11.444  13.489   4.133 -0.3096 -0.3822 -0.0640
71217SOL    HW125630  11.502  13.419   4.101 -0.6532  0.5467 -3.0281
71217SOL    HW225631  11.357  13.464   4.102 -1.4937 -1.2554  3.4997
71218SOL     OW25632   6.854   0.130   6.875 -0.3824  0.8000 -0.5352
71218SOL    HW125633   6.790   0.111   6.943  0.7438  1.5278  0.7935
71218SOL    HW225634   6.816   0.202   6.825 -0.4780  1.4423  0.4392
71219SOL     OW25635   5.820  12.277   6.896  0.2470  0.3816 -0.3970
71219SOL    HW125636   5.781  12.355   6.935  1.3345  0.2338  1.0721
71219SOL    HW225637   5.755  12.208   6.908 -0.2267  0.7861 -0.6347
71220SOL     OW25638  13.044   8.919   1.037 -0.0142 -0.2517 -0.1065
71220SOL    HW125639  13.105   8.968   1.092  0.7235  1.0145 -1.9663
71220SOL    HW225640  13.098   8.885   0.966 -1.2604 -0.1707 -1.1240
71221SOL     OW25641   6.705   4.266   1.688  0.1223 -0.0578  0.0981
71221SOL    HW125642   6.704   4.173   1.668 -2.7309 -0.3332  1.1080
71221SOL    HW225643   6.673   4.308   1.608 -0.6836 -0.1649  0.3566
71222SOL     OW25644  12.722   8.178   9.903  0.3997 -0.2418  0.4644
71222SOL    HW125645  12.719   8.247   9.837 -0.0828 -0.1480  0.5732
71222SOL    HW225646  12.814   8.168   9.925  0.3785  1.2897  1.3931
71223SOL     OW25647  10.617   4.186   1.109  0.0992 -0.1586 -0.6767
71223SOL    HW125648  10.541   4.226   1.066  0.1799 -0.7178 -1.3603
71223SOL    HW225649  10.585   4.162   1.196  0.2308  1.9614  0.0142
71224SOL     OW25650   9.308   5.698   4.705  0.4673 -0.4768  0.7827
71224SOL    HW125651   9.401   5.717   4.702  0.1801  1.5274  2.1683
71224SOL    HW225652   9.286   5.702   4.798 -1.1049 -0.2813  0.4337
71225SOL     OW25653   9.898   0.412   9.202 -0.2019  0.3227 -0.3098
71225SOL    HW125654   9.933   0.359   9.274 -0.3097  0.2353 -0.3222
71225SOL    HW225655   9.955   0.489   9.200  0.4440 -0.1634 -0.8134
71226SOL     OW25656   4.440   3.871   5.967  0.6095 -0.3841 -0.7031
71226SOL    HW125657   4.503   3.821   5.915 -1.0798 -0.4976 -2.7735
71226SOL    HW225658   4.370   3.893   5.906 -0.1365  2.0202  0.8491
71227SOL     OW25659  11.167   2.427  14.022 -0.0026  0.1889  0.8712
71227SOL    HW125660  11.249   2.439  13.974 -1.0287 -0.6590 -1.2546
71227SOL    HW225661  11.133   2.343  13.990 -1.3180  0.1408  2.2898
71228SOL     OW25662   3.659   9.263   9.351  0.1988  0.3596  0.0257
71228SOL    HW125663   3.610   9.288   9.429  0.7718 -0.8869  0.8277
71228SOL    HW225664   3.732   9.210   9.385 -0.3298 -1.3828 -1.4249
71229SOL     OW25665  13.699   6.587   7.458  0.1161 -0.1219  0.0143
71229SOL    HW125666  13.615   6.623   7.428 -1.2196 -2.3039  0.8821
71229SOL    HW225667  13.715   6.631   7.542 -1.2159 -1.0622  0.8032
71230SOL     OW25668   9.017  10.712   2.818 -0.4849  0.0129 -0.8940
71230SOL    HW125669   9.028  10.766   2.897 -4.5703 -1.2635  0.8136
71230SOL    HW225670   9.097  10.659   2.814  1.8906  3.2450 -0.3725
71231SOL     OW25671  10.892  11.037   0.410  0.3463  0.6813  0.1115
71231SOL    HW125672  10.980  11.030   0.375  0.3107 -0.3811  0.2027
71231SOL    HW225673  10.898  11.003   0.499 -0.2530  0.0730 -0.0659
71232SOL     OW25674   0.409   1.887   6.318 -0.4738 -0.6410 -0.0605
71232SOL    HW125675   0.482   1.939   6.284 -0.4844  0.3733  1.3824
71232SOL    HW225676   0.337   1.905   6.258  0.0858 -0.5712 -0.7216
71233SOL     OW25677  10.026   5.690   1.164 -0.5398 -0.4396  0.9245
71233SOL    HW125678  10.107   5.740   1.162  0.7402 -2.4186  1.0503
71233SOL    HW225679  10.004   5.677   1.072  0.2274 -1.2945  0.8439
71234SOL     OW25680   3.413  10.413   0.939  0.2439 -0.5844 -0.0177
71234SOL    HW125681   3.416  10.320   0.915  0.4900 -0.6929  0.4133
71234SOL    HW225682   3.320  10.436   0.938  0.2493 -0.5271 -1.2614
71235SOL     OW25683   4.551   1.296  11.311 -0.4382  0.3433  0.0658
71235SOL    HW125684   4.477   1.271  11.366  0.2764 -1.3651  0.3209
71235SOL    HW225685   4.527   1.268  11.223 -2.1892  4.3355 -0.9325
71236SOL     OW25686  12.653  10.583   5.460 -0.1517 -0.5173  0.2877
71236SOL    HW125687  12.585  10.581   5.392  0.0129  0.9720  0.0490
71236SOL    HW225688  12.625  10.517   5.523 -0.8812 -1.1740 -0.6860
71237SOL     OW25689   2.764   2.600   7.415 -0.7705  0.3492  0.2070
71237SOL    HW125690   2.701   2.616   7.344 -0.8626  0.7135  0.3682
71237SOL    HW225691   2.828   2.540   7.377 -0.2537  1.3364 -0.5132
71238SOL     OW25692   4.033   5.976  10.106 -0.3897 -0.3627  0.2228
71238SOL    HW125693   4.028   6.012  10.195  1.4590  0.9360 -0.1299
71238SOL    HW225694   3.966   6.023  10.057  0.1138  0.6107  0.4350
71239SOL     OW25695  11.038   5.596   5.529 -0.0548 -0.0594 -0.2393
71239SOL    HW125696  11.054   5.506   5.499  1.5867  0.0749  0.1123
71239SOL    HW225697  10.987   5.585   5.609 -0.6491 -0.6269 -0.6835
71240SOL     OW25698   6.019   8.596   9.293  0.1529  0.8835 -0.1121
71240SOL    HW125699   5.927   8.625   9.292  0.2923  1.3334 -0.2049
71240SOL    HW225700   6.021   8.521   9.234  0.1374  1.7894 -1.2909
71241SOL     OW25701   4.492   7.034   8.580 -0.1845 -0.0204  0.2546
71241SOL    HW125702   4.443   7.076   8.510 -2.1404 -0.8079  1.0855
71241SOL    HW225703   4.578   7.017   8.542 -1.2813 -0.7414 -2.0619
71242SOL     OW25704   0.548  11.798  10.603 -0.1156  0.5004  0.3432
71242SOL    HW125705   0.591  11.864  10.548  0.3374 -1.5590 -1.9898
71242SOL    HW225706   0.496  11.848  10.665  0.3380  3.0390 -1.1726
71243SOL     OW25707   4.408  14.042   8.755 -0.2920 -0.3664  0.1403
71243SOL    HW125708   4.406  14.034   8.850 -1.2807  1.7790  0.3530
71243SOL    HW225709   4.325  14.006   8.725  0.2478 -1.5431  0.0133
71244SOL     OW25710  10.252  13.744   9.752 -0.2695 -0.0748 -0.6724
71244SOL    HW125711  10.253  13.738   9.656  0.9242 -1.9927 -0.5898
71244SOL    HW225712  10.300  13.825   9.771  2.1470 -1.1705 -1.6857
71245SOL     OW25713   5.598  13.348   9.482  0.0824  0.5804 -0.4951
71245SOL    HW125714   5.642  13.397   9.551  0.7971 -0.0502 -0.4925
71245SOL    HW225715   5.505  13.367   9.495  0.3888  2.8270 -1.1933
71246SOL     OW25716  10.502  11.436   9.494  0.0539 -0.0686 -0.0106
71246SOL    HW125717  10.422  11.481   9.519 -0.8589 -1.1358 -0.9004
71246SOL    HW225718  10.476  11.344   9.483  1.6464 -0.6778  0.8389
71247SOL     OW25719   9.540   9.685   1.352  0.5364  0.2752  0.5389
71247SOL    HW125720   9.562   9.722   1.267 -0.2415 -0.1158  0.1625
71247SOL    HW225721   9.461   9.732   1.379  0.6116  0.1892  0.9196
71248SOL     OW25722  11.262   0.901   3.531 -0.6083  0.1955  0.4035
71248SOL    HW125723  11.337   0.842   3.545 -0.1960  0.7782  0.7419
71248SOL    HW225724  11.194   0.846   3.493  0.4183 -0.0815 -1.0913
71249SOL     OW25725   9.722   6.065   8.836  0.5180  0.0186 -0.3291
71249SOL    HW125726   9.741   5.977   8.867 -2.4441  0.0399  2.0536
71249SOL    HW225727   9.717   6.118   8.916 -0.3969  1.7442 -1.4661
71250SOL     OW25728   6.206   6.214  11.475  0.2537 -0.0850  0.0331
71250SOL    HW125729   6.129   6.229  11.420  0.0257 -3.8128 -0.9670
71250SOL    HW225730   6.267   6.283  11.450 -1.3964  0.7870 -1.8768
71251SOL     OW25731   8.962   9.213   3.443 -0.6555 -0.3529  0.2495
71251SOL    HW125732   8.960   9.244   3.534 -0.1224 -0.2498  0.2273
71251SOL    HW225733   9.045   9.167   3.435 -0.2654  0.4638 -0.4566
71252SOL     OW25734   1.745  12.743   1.097 -0.5161 -0.0714 -0.1493
71252SOL    HW125735   1.817  12.766   1.038 -1.3265  1.5741 -0.5845
71252SOL    HW225736   1.721  12.654   1.073  0.8596 -0.3583 -0.5223
71253SOL     OW25737   8.098   9.380   4.076 -0.8051 -0.3334 -1.0986
71253SOL    HW125738   8.008   9.392   4.045 -0.7011 -0.0800 -1.3135
71253SOL    HW225739   8.098   9.417   4.165 -1.1630 -1.2807 -0.7014
71254SOL     OW25740   2.009  12.942   3.761  0.7643  0.0841 -0.0357
71254SOL    HW125741   1.934  12.885   3.748  1.1558 -0.6368  0.7491
71254SOL    HW225742   2.080  12.899   3.713  0.7297  0.6589 -0.6127
71255SOL     OW25743   6.064   5.492   1.344  0.4252  0.5723 -0.3730
71255SOL    HW125744   5.974   5.480   1.374  0.6309  0.1369  0.0818
71255SOL    HW225745   6.071   5.437   1.266  0.7532 -0.6613  0.5028
71256SOL     OW25746   3.693   8.575   0.704 -0.1353 -0.2777  0.2223
71256SOL    HW125747   3.628   8.506   0.717 -0.5506 -0.0096 -0.3620
71256SOL    HW225748   3.651   8.654   0.737 -0.2201 -0.0540 -0.4102
71257SOL     OW25749  10.981  10.759   5.290  0.1921  0.0758  0.0905
71257SOL    HW125750  10.995  10.853   5.292 -1.0980  0.3217 -0.9115
71257SOL    HW225751  10.926  10.742   5.367  1.5352 -0.0971  1.0475
71258SOL     OW25752   4.952  11.247  12.171 -0.4069  0.3581 -0.2812
71258SOL    HW125753   5.025  11.275  12.116  0.7024 -1.1439  0.3736
71258SOL    HW225754   4.969  11.286  12.256 -0.7362  0.5529 -0.3020
71259SOL     OW25755  12.770   8.696   3.417  0.3888  0.4085  0.6227
71259SOL    HW125756  12.856   8.733   3.434  0.3939  1.9706 -2.1964
71259SOL    HW225757  12.709   8.761   3.452  0.3268  0.0209  1.2616
71260SOL     OW25758   6.383  12.414   8.552 -0.1063 -0.4224 -0.2139
71260SOL    HW125759   6.445  12.406   8.479 -0.3421 -0.6067 -0.3945
71260SOL    HW225760   6.384  12.328   8.594  0.4025 -0.1723  0.3076
71261SOL     OW25761   1.792  11.958   3.518  0.3891 -0.1804  1.1768
71261SOL    HW125762   1.770  11.984   3.428  1.1966  0.8353  1.2454
71261SOL    HW225763   1.820  11.867   3.511  0.2087 -0.1883  0.4376
71262SOL     OW25764   3.453   7.259   2.948  0.4487  0.1799  0.1745
71262SOL    HW125765   3.524   7.255   2.884  0.2928  0.2690 -0.0032
71262SOL    HW225766   3.474   7.189   3.011  0.1526 -0.4857 -0.4436
71263SOL     OW25767   9.816  13.964   0.066 -0.2954  0.1933  0.3369
71263SOL    HW125768   9.823  13.965   0.161  1.8373  0.6907  0.2203
71263SOL    HW225769   9.852  13.879   0.040  0.5545  0.6597 -0.0697
71264SOL     OW25770   4.168   0.755  11.221  0.1409 -0.0140 -0.1397
71264SOL    HW125771   4.130   0.735  11.136  1.1609  0.8534 -0.8285
71264SOL    HW225772   4.201   0.844  11.212  0.6815 -0.0805  1.0118
71265SOL     OW25773   1.600   6.442  11.056  0.1107 -0.1533  0.5151
71265SOL    HW125774   1.523   6.498  11.061 -0.6084 -0.6850 -2.3349
71265SOL    HW225775   1.566   6.353  11.066  0.6505 -0.2994  1.1134
71266SOL     OW25776  12.431  12.789   3.415 -0.2554 -0.2616 -0.1839
71266SOL    HW125777  12.419  12.869   3.465 -1.3592 -0.7709  0.3870
71266SOL    HW225778  12.406  12.718   3.475 -0.4234 -0.9604 -1.0531
71267SOL     OW25779   5.337  10.307  10.163 -0.6443  0.4933  0.0098
71267SOL    HW125780   5.330  10.338  10.254  2.2285  0.9233  0.1732
71267SOL    HW225781   5.334  10.212  10.170  0.3885  0.4989  0.6675
71268SOL     OW25782   2.033   1.536   8.201 -0.2797  0.2373 -0.0379
71268SOL    HW125783   2.071   1.619   8.230  2.0124 -0.9788  0.6106
71268SOL    HW225784   2.062   1.527   8.110  0.2694 -0.2990  0.1896
71269SOL     OW25785  10.643   8.367  11.342 -0.5846  1.1858  0.2645
71269SOL    HW125786  10.600   8.317  11.273  0.1717 -0.0758  0.6760
71269SOL    HW225787  10.650   8.456  11.306  1.2090  0.2370 -1.9461
71270SOL     OW25788  12.133  10.454   2.985  0.1885  0.0978 -0.3688
71270SOL    HW125789  12.226  10.458   3.010 -0.0791  0.2474  0.6483
71270SOL    HW225790  12.106  10.545   2.981 -0.1845  0.0365  0.4458
71271SOL     OW25791   7.465  12.222  12.469  0.2515  0.0797 -0.5119
71271SOL    HW125792   7.469  12.167  12.391  0.9945 -1.2612  0.4464
71271SOL    HW225793   7.557  12.237  12.492  0.0379 -0.4835  0.7477
71272SOL     OW25794   9.922   9.124   8.892 -0.1824  0.1216  0.2826
71272SOL    HW125795   9.892   9.213   8.909 -0.7865 -0.5012  2.9406
71272SOL    HW225796   9.859   9.089   8.828 -1.9487  0.5821  1.6883
71273SOL     OW25797   4.060  11.019  11.099  0.4920 -0.3980 -0.1337
71273SOL    HW125798   4.144  11.063  11.108  0.1750 -0.1408  2.1265
71273SOL    HW225799   4.074  10.956  11.028  1.8382  1.2410 -1.4204
71274SOL     OW25800   4.338  12.277   9.313  0.0026 -0.1730  0.0536
71274SOL    HW125801   4.407  12.214   9.334  0.4928 -0.3284 -1.8033
71274SOL    HW225802   4.382  12.362   9.309 -0.4364  0.1480  1.3816
71275SOL     OW25803   1.052   7.807   0.546 -0.0052  0.4515 -0.1630
71275SOL    HW125804   1.130   7.862   0.551 -0.5278  1.1991  0.0223
71275SOL    HW225805   1.006   7.825   0.628 -1.5582  1.8763 -1.2616
71276SOL     OW25806  13.235   0.900   9.750  0.6182 -0.3823 -0.2521
71276SOL    HW125807  13.326   0.927   9.737  0.0767  1.8095  0.1206
71276SOL    HW225808  13.195   0.911   9.664 -0.1491  2.5086  0.3630
71277SOL     OW25809  11.015   7.164   5.168  0.0085  0.6468  0.5503
71277SOL    HW125810  11.037   7.250   5.133 -1.3999  0.9580  0.3507
71277SOL    HW225811  11.026   7.105   5.094 -1.8608  1.1353 -0.1947
71278SOL     OW25812   2.328   0.533   5.033  0.5193  0.1223 -0.1051
71278SOL    HW125813   2.342   0.614   5.082  1.9561  0.1188 -0.4652
71278SOL    HW225814   2.234   0.533   5.013  0.6104  2.1131 -0.7928
71279SOL     OW25815   1.876   1.928  11.250  0.0742  0.3670 -0.0067
71279SOL    HW125816   1.867   1.871  11.173  1.7541 -0.0137  0.0458
71279SOL    HW225817   1.799   1.909  11.303  0.6004 -1.8941  0.0171
71280SOL     OW25818   5.125  12.353   1.701  0.4657 -0.1326  0.4698
71280SOL    HW125819   5.140  12.417   1.771 -1.2156 -0.3309  1.0486
71280SOL    HW225820   5.137  12.268   1.743 -0.4182 -0.2492  0.4984
71281SOL     OW25821   1.453   5.153   9.044  0.5167  0.0923  0.2914
71281SOL    HW125822   1.379   5.208   9.017  0.7179  0.7592  1.0449
71281SOL    HW225823   1.475   5.102   8.967  0.2341  0.9863 -0.3967
71282SOL     OW25824  12.596   2.722   7.861 -0.0339  0.2134 -0.3863
71282SOL    HW125825  12.516   2.679   7.831  0.5545 -0.8013 -0.5630
71282SOL    HW225826  12.581   2.815   7.846 -1.9788  0.2534  1.4763
71283SOL     OW25827  13.041   6.071   3.172  0.0722  0.0178  0.5790
71283SOL    HW125828  12.966   6.042   3.224  0.0758  0.7306  0.9828
71283SOL    HW225829  13.112   6.080   3.235  0.7338 -1.4047  0.0909
71284SOL     OW25830  10.753  12.590   8.418 -0.1619 -0.1748  0.2302
71284SOL    HW125831  10.799  12.598   8.334  0.3550  0.2882  0.5551
71284SOL    HW225832  10.715  12.501   8.416  0.5548 -0.4790 -0.1320
71285SOL     OW25833   1.864   9.426  11.258  0.3741 -0.2581  0.1340
71285SOL    HW125834   1.829   9.342  11.229  2.3478 -1.7200  1.6969
71285SOL    HW225835   1.958   9.421  11.238  0.3730  2.0762 -0.7751
71286SOL     OW25836  10.895   8.621   7.186  0.2799 -0.5489  0.5252
71286SOL    HW125837  10.820   8.664   7.228 -0.4560 -0.7920 -0.5003
71286SOL    HW225838  10.943   8.581   7.259  1.6618  2.9049  1.7032
71287SOL     OW25839   0.251   1.848   1.024  0.6292  0.5872 -0.5231
71287SOL    HW125840   0.180   1.784   1.030  0.7768  0.2283 -2.1055
71287SOL    HW225841   0.230   1.900   0.947  2.0945  0.4270 -1.0703
71288SOL     OW25842   9.534  12.384  10.035  0.3633  0.5129  0.0455
71288SOL    HW125843   9.472  12.375  10.107 -0.7775 -1.8333 -1.1308
71288SOL    HW225844   9.619  12.361  10.073 -0.2309 -0.7512  0.6458
71289SOL     OW25845   0.153  10.957   5.774 -0.1888 -0.4621 -0.3085
71289SOL    HW125846   0.201  11.027   5.730  1.5939 -0.7525  1.0655
71289SOL    HW225847   0.111  10.999   5.849  0.8615 -0.8136  0.5024
71290SOL     OW25848   3.258   3.874  12.185  0.0044 -0.4345 -0.2703
71290SOL    HW125849   3.262   3.900  12.278  2.0145  1.7575 -0.8553
71290SOL    HW225850   3.316   3.798  12.180  1.1539  0.3815  0.0668
71291SOL     OW25851   4.997   8.841   0.422  0.7251 -0.0654  0.2774
71291SOL    HW125852   4.954   8.861   0.338  2.6493 -0.1046 -0.7795
71291SOL    HW225853   4.936   8.782   0.466 -1.0188  1.1222 -0.4123
71292SOL     OW25854   6.454   7.535  13.960  0.6478  0.0843 -0.4773
71292SOL    HW125855   6.516   7.471  13.924 -0.3919 -1.3006  0.0967
71292SOL    HW225856   6.504   7.583  14.026  1.1192 -1.0422  0.0041
71293SOL     OW25857   4.134   6.509   7.569 -0.7955 -0.3900  0.1365
71293SOL    HW125858   4.154   6.449   7.497 -2.9599 -0.0974 -0.8107
71293SOL    HW225859   4.038   6.505   7.577 -0.8009  1.2797  1.5096
71294SOL     OW25860   4.307  11.709  10.219  0.0672 -0.1411  0.4276
71294SOL    HW125861   4.368  11.663  10.276  0.8472  2.4535  1.8643
71294SOL    HW225862   4.314  11.664  10.135  1.4378 -1.9853  1.4641
71295SOL     OW25863  11.102   6.720   2.349  0.1984  0.0219 -0.1334
71295SOL    HW125864  11.194   6.746   2.356  0.2906 -0.5207  0.7905
71295SOL    HW225865  11.057   6.800   2.324  0.8487  0.4243 -0.0522
71296SOL     OW25866   1.758  10.029   5.307  0.0479  0.3871 -0.3846
71296SOL    HW125867   1.747  10.068   5.394 -1.1551  0.7119 -0.6655
71296SOL    HW225868   1.669  10.021   5.272  0.2134 -2.4735 -0.4291
71297SOL     OW25869   0.301  13.023  12.501  0.0967 -0.2735  0.1133
71297SOL    HW125870   0.319  13.001  12.593  1.6359 -1.5171 -0.4593
71297SOL    HW225871   0.295  12.939  12.456  0.1664  0.3400 -1.0809
71298SOL     OW25872   8.201   6.816  12.058 -0.0446 -0.5012 -0.1546
71298SOL    HW125873   8.291   6.823  12.027  0.1858 -1.3470  0.2842
71298SOL    HW225874   8.155   6.889  12.017  1.0952  0.6139  0.4897
71299SOL     OW25875   9.847  10.375   3.162  0.2812 -0.3236  0.4570
71299SOL    HW125876   9.808  10.434   3.097  0.0995 -1.5473 -0.5816
71299SOL    HW225877   9.805  10.291   3.146  1.1963 -0.9604  1.2941
71300SOL     OW25878   9.378  11.412  10.917  0.0214  0.0595  0.1614
71300SOL    HW125879   9.468  11.441  10.927  0.0614  0.0827 -0.2398
71300SOL    HW225880   9.369  11.339  10.979  0.5859 -0.5508 -0.4556
71301SOL     OW25881   8.897   8.779   7.339  0.1182  0.0925 -0.2201
71301SOL    HW125882   8.874   8.872   7.344  0.8080  0.3750 -1.8830
71301SOL    HW225883   8.984   8.773   7.379  0.7373  0.4463 -1.4629
71302SOL     OW25884   4.614   1.962   0.903 -0.5427 -0.1340  0.6331
71302SOL    HW125885   4.690   2.018   0.922  1.7801 -3.1105  1.0362
71302SOL    HW225886   4.563   1.963   0.984 -0.7705  1.5702  0.5120
71303SOL     OW25887   4.516   1.309   2.664 -0.0628  1.1363 -0.0929
71303SOL    HW125888   4.577   1.236   2.674  0.7348  1.7681 -0.2695
71303SOL    HW225889   4.459   1.304   2.741 -0.8871 -0.4598 -0.7514
71304SOL     OW25890   2.717   2.531  11.640  0.2827  0.5517 -0.4093
71304SOL    HW125891   2.623   2.550  11.645  0.0331 -0.2101 -1.7906
71304SOL    HW225892   2.760   2.611  11.670 -0.7980  0.1732  2.5002
71305SOL     OW25893   1.900  13.237   1.755 -0.4640 -0.0542 -0.7655
71305SOL    HW125894   1.867  13.223   1.666 -0.1847 -1.4637 -0.6645
71305SOL    HW225895   1.821  13.257   1.806 -0.5834  1.1143 -1.3780
71306SOL     OW25896   3.247   8.874   2.232  1.0152  0.3153  0.6319
71306SOL    HW125897   3.229   8.790   2.276 -0.8174  0.2823 -0.0761
71306SOL    HW225898   3.308   8.852   2.162 -0.2819 -0.6730 -0.2374
71307SOL     OW25899   7.283   8.121   8.173 -0.0045 -0.1185  0.2977
71307SOL    HW125900   7.350   8.184   8.146 -0.4960 -0.1173 -0.9909
71307SOL    HW225901   7.203   8.153   8.132 -0.7062 -0.4013  1.4063
71308SOL     OW25902   1.804   2.866  12.102 -0.0225  0.8716  0.0302
71308SOL    HW125903   1.848   2.843  12.020  0.8774  0.2533  0.6591
71308SOL    HW225904   1.721   2.904  12.075 -0.1838 -0.2442 -1.1477
71309SOL     OW25905  11.937  12.780  10.275 -0.6544  0.1617 -0.4947
71309SOL    HW125906  11.969  12.868  10.254 -1.2400 -0.2363 -3.4978
71309SOL    HW225907  12.016  12.729  10.293 -0.2057  0.9115 -0.2623
71310SOL     OW25908   2.289  12.756   2.210 -0.5146 -0.4650 -0.2091
71310SOL    HW125909   2.251  12.786   2.127 -0.9354  0.1547  0.2004
71310SOL    HW225910   2.223  12.776   2.275  1.3323  2.8277  0.9031
71311SOL     OW25911  13.328   6.100   7.571  0.0475 -0.5798  0.3627
71311SOL    HW125912  13.284   6.104   7.656 -1.4424  1.2369 -0.4397
71311SOL    HW225913  13.387   6.176   7.570 -1.3829  0.5785 -0.9243
71312SOL     OW25914   7.375  10.004   1.805  0.5387 -0.2537 -0.1774
71312SOL    HW125915   7.353  10.062   1.732 -1.7432 -0.6680  0.1150
71312SOL    HW225916   7.442   9.946   1.769  0.0807  0.0905 -1.6843
71313SOL     OW25917   9.039   0.936   4.745  0.0784  0.2299 -0.2342
71313SOL    HW125918   8.977   1.007   4.726  0.8187  1.4011  1.5083
71313SOL    HW225919   9.003   0.892   4.821  0.9334  0.3789  0.2694
71314SOL     OW25920   9.884   9.751   2.366  0.6062 -0.1115  0.3750
71314SOL    HW125921   9.912   9.663   2.341 -0.2734 -0.1961 -0.3727
71314SOL    HW225922   9.899   9.804   2.288  0.7982  0.3261  0.7070
71315SOL     OW25923   4.375   5.420   0.372 -0.3760 -0.0720 -0.1197
71315SOL    HW125924   4.393   5.401   0.464  1.4049 -0.0088 -0.4232
71315SOL    HW225925   4.296   5.474   0.373 -0.1686  0.2218  1.3937
71316SOL     OW25926  12.381  10.620   5.308 -0.4161 -0.4376 -0.7803
71316SOL    HW125927  12.375  10.714   5.289 -0.5054 -0.4566 -0.8533
71316SOL    HW225928  12.289  10.592   5.318 -0.5059 -0.8380 -2.3955
71317SOL     OW25929   4.627   4.407   3.290  0.3731 -0.3738  0.3688
71317SOL    HW125930   4.628   4.435   3.198 -0.7150 -0.6719  0.2517
71317SOL    HW225931   4.568   4.468   3.333  1.5244  0.2865  1.0755
71318SOL     OW25932   1.321  12.384  11.519  0.3891  0.1273 -0.6484
71318SOL    HW125933   1.250  12.358  11.577  0.4574  0.7088 -0.2884
71318SOL    HW225934   1.380  12.309  11.518  0.2960  0.0386 -0.1043
71319SOL     OW25935   0.876  14.001   4.660 -0.8995  0.8218 -0.1297
71319SOL    HW125936   0.894  13.914   4.696 -1.5469  1.4172  1.6811
71319SOL    HW225937   0.938  14.059   4.704 -0.0147  1.2187 -1.8124
71320SOL     OW25938  11.977   1.295   0.737  0.3989 -0.0006 -0.4890
71320SOL    HW125939  11.928   1.233   0.683  1.1428 -1.2180  0.1744
71320SOL    HW225940  11.910   1.335   0.793  0.1920 -2.6688  1.3985
71321SOL     OW25941   3.503   5.944   3.541  0.5639 -0.2160 -0.4900
71321SOL    HW125942   3.511   6.037   3.520  1.2031  0.2608  1.6199
71321SOL    HW225943   3.581   5.904   3.502  1.0776  0.4075 -0.1192
71322SOL     OW25944  12.690   2.701   6.866  0.1591  0.0197  0.1367
71322SOL    HW125945  12.752   2.720   6.795  0.4517  1.2515  0.6923
71322SOL    HW225946  12.688   2.781   6.918  0.0150 -0.8855  1.5767
71323SOL     OW25947   2.332  12.863   9.978 -0.0685 -0.1898  0.1940
71323SOL    HW125948   2.252  12.879  10.028  1.5880 -1.5333  3.5917
71323SOL    HW225949   2.315  12.782   9.931 -1.2602  0.4772 -0.5917
71324SOL     OW25950   2.608   8.443  10.016 -0.5409  0.0812  0.1200
71324SOL    HW125951   2.579   8.470  10.103 -0.7796  0.4008 -0.0561
71324SOL    HW225952   2.535   8.392   9.981 -0.2185 -0.5347  0.3254
71325SOL     OW25953   7.822   2.504   0.948 -0.2138  0.2384  0.2527
71325SOL    HW125954   7.917   2.497   0.957 -0.2478 -2.9243 -0.5252
71325SOL    HW225955   7.808   2.510   0.853 -0.7967  0.4835  0.3521
71326SOL     OW25956   1.225   5.409  11.219 -0.0748  0.0832 -0.2553
71326SOL    HW125957   1.175   5.362  11.152 -0.5346  0.6339 -0.3107
71326SOL    HW225958   1.219   5.501  11.193  0.6336  0.1965 -0.0322
71327SOL     OW25959  12.350   5.597   3.629  0.1996 -0.0217  0.2520
71327SOL    HW125960  12.271   5.621   3.581  0.6567 -0.3816 -0.7217
71327SOL    HW225961  12.361   5.503   3.610  0.9235  0.0552  0.2650
71328SOL     OW25962   2.258  13.145   1.009 -0.1518 -0.0882 -0.1642
71328SOL    HW125963   2.313  13.069   1.028  0.5563  0.4696  0.0453
71328SOL    HW225964   2.240  13.140   0.915  2.8684  1.3839 -0.9350
71329SOL     OW25965   3.787   4.360  10.173  0.2318 -0.5328  0.2043
71329SOL    HW125966   3.710   4.355  10.229 -1.9635 -1.3143 -2.6118
71329SOL    HW225967   3.811   4.269  10.156 -1.6730 -0.5925 -3.0638
71330SOL     OW25968   3.040   7.601   7.143  0.5231 -0.4079  0.3817
71330SOL    HW125969   3.001   7.636   7.223  1.2354  0.3322  0.4171
71330SOL    HW225970   2.979   7.628   7.073  0.5332  0.0095  0.5313
71331SOL     OW25971   1.350   6.559   9.046  0.8019 -0.2686  0.1124
71331SOL    HW125972   1.360   6.504   9.124 -0.2255  1.9612  1.9379
71331SOL    HW225973   1.437   6.558   9.005  1.7876 -0.4088  2.0754
71332SOL     OW25974   9.867   5.163   5.791  0.0837  0.0884 -0.8366
71332SOL    HW125975   9.911   5.184   5.874  1.5927  0.8469 -1.7841
71332SOL    HW225976   9.786   5.214   5.793  0.4771  0.7053 -0.1707
71333SOL     OW25977   1.646  12.056   9.526  0.0897 -0.2489 -0.0186
71333SOL    HW125978   1.619  12.013   9.445  1.8392  0.9157 -1.3145
71333SOL    HW225979   1.593  12.136   9.529  1.8030  1.0660 -1.5432
71334SOL     OW25980   9.247   8.237   9.963  0.5365  0.1417 -0.0835
71334SOL    HW125981   9.220   8.174  10.030 -1.4993  0.1747 -0.7980
71334SOL    HW225982   9.250   8.187   9.882 -0.5030  0.8030 -0.5503
71335SOL     OW25983   3.738  13.256   9.235  0.1789  0.8921 -0.0853
71335SOL    HW125984   3.684  13.334   9.223  0.5865  1.0650 -0.8126
71335SOL    HW225985   3.823  13.289   9.263 -0.0058  0.6322  0.8266
71336SOL     OW25986   8.090  11.190  10.717  0.0285  0.2856  0.7423
71336SOL    HW125987   8.054  11.257  10.776 -0.0091  0.6524  0.3104
71336SOL    HW225988   8.183  11.212  10.711 -0.1460  0.8187 -0.0742
71337SOL     OW25989   1.648  10.478   7.303  0.0469 -0.1186  0.2751
71337SOL    HW125990   1.701  10.529   7.362 -1.5785  0.9215  0.9098
71337SOL    HW225991   1.689  10.391   7.302  1.8832  0.7061  0.4677
71338SOL     OW25992   1.156   6.063  13.778  0.5394  0.3736 -0.3521
71338SOL    HW125993   1.068   6.036  13.750  0.9185  0.4353 -1.6634
71338SOL    HW225994   1.213   5.992  13.750  0.9797  0.5319  0.1149
71339SOL     OW25995   5.172  13.941   0.145 -0.4751 -0.0588 -0.0940
71339SOL    HW125996   5.118  13.877   0.191 -0.7394 -0.5943 -1.1248
71339SOL    HW225997   5.116  14.019   0.137 -0.4353  0.0297  0.4546
71340SOL     OW25998   1.998   6.284  10.476  0.1125  0.2157 -0.3065
71340SOL    HW125999   2.013   6.338  10.554 -0.3186  1.8986 -1.3264
71340SOL    HW226000   1.935   6.335  10.425 -0.7106 -1.5387 -1.0911
71341SOL     OW26001   5.192   3.299  11.912 -0.2516 -0.3736  0.4354
71341SOL    HW126002   5.170   3.211  11.941  1.6411 -0.7476  0.8280
71341SOL    HW226003   5.113   3.350  11.930 -1.7705 -2.1630 -0.7656
71342SOL     OW26004   0.947  12.438   8.907 -0.3449 -0.4268  0.3604
71342SOL    HW126005   0.984  12.505   8.965  1.4701 -0.4398 -0.7315
71342SOL    HW226006   0.884  12.392   8.963  0.9507 -0.1119  2.1975
71343SOL     OW26007  11.454   2.497   8.458  0.1332 -0.1409 -0.6963
71343SOL    HW126008  11.477   2.405   8.469 -1.2800 -0.5095 -0.6099
71343SOL    HW226009  11.364   2.495   8.425 -0.4351  1.2221  0.6448
71344SOL     OW26010  10.263   9.907   9.214 -0.0474 -0.0023  0.5911
71344SOL    HW126011  10.188   9.967   9.214 -0.1420 -0.1208  0.4084
71344SOL    HW226012  10.321   9.941   9.283 -0.6497 -0.3752  1.3030
71345SOL     OW26013   3.460   6.494   3.085  1.0026 -0.1484  0.4396
71345SOL    HW126014   3.509   6.469   3.163  3.6306 -0.0200 -1.0415
71345SOL    HW226015   3.502   6.575   3.056 -0.5020  0.2809 -0.6318
71346SOL     OW26016  13.084   2.377   9.157  0.0036 -0.1373 -0.4888
71346SOL    HW126017  13.062   2.313   9.224 -2.0774  1.5276  0.5165
71346SOL    HW226018  13.047   2.341   9.076 -0.2320 -0.6872 -0.1368
71347SOL     OW26019   7.494   3.838   6.799 -0.0228 -0.4813  0.0428
71347SOL    HW126020   7.536   3.821   6.714  2.2409 -0.8758  1.1491
71347SOL    HW226021   7.405   3.804   6.789  0.6532 -1.9447 -1.6906
71348SOL     OW26022   9.780   7.188   9.229  0.3502  0.0333 -0.1005
71348SOL    HW126023   9.740   7.274   9.223 -0.4981 -0.2469  1.2055
71348SOL    HW226024   9.708   7.127   9.214  0.4008 -0.4693  1.5602
71349SOL     OW26025   8.447   7.363  10.867 -0.2231  0.0597  0.0707
71349SOL    HW126026   8.474   7.382  10.778 -1.3819  3.0930  0.2463
71349SOL    HW226027   8.490   7.430  10.920 -2.3038  0.5739  1.2454
71350SOL     OW26028   0.613   9.460   6.675 -0.0754 -0.0049  0.4604
71350SOL    HW126029   0.539   9.404   6.697 -1.4988  1.5698 -0.0280
71350SOL    HW226030   0.617   9.458   6.579  0.7827 -0.4104  0.5051
71351SOL     OW26031   8.401   5.160  10.395 -0.6799 -0.4149  0.0159
71351SOL    HW126032   8.418   5.077  10.349 -0.4704 -1.0527  1.2116
71351SOL    HW226033   8.307   5.174  10.386 -0.5430 -0.1303 -1.2370
71352SOL     OW26034  10.325   8.554   9.648  0.3957 -0.3490 -0.2948
71352SOL    HW126035  10.277   8.520   9.724  0.1219  0.4090 -0.1210
71352SOL    HW226036  10.411   8.512   9.653 -0.4327 -2.1890 -0.9525
71353SOL     OW26037  10.579   8.431  10.737 -0.4514 -0.0233 -0.5908
71353SOL    HW126038  10.493   8.468  10.717 -1.7394 -1.1615  2.1657
71353SOL    HW226039  10.638   8.506  10.738 -2.2352  1.4909  1.3033
71354SOL     OW26040   8.140   9.694  10.724  0.7199 -0.0129  0.4662
71354SOL    HW126041   8.229   9.658  10.724  1.5146  1.7855  1.2918
71354SOL    HW226042   8.095   9.649  10.795  1.4924  0.1709  1.0848
71355SOL     OW26043   4.991   3.454  12.029  0.3735 -0.2150 -0.6371
71355SOL    HW126044   4.911   3.453  11.977  0.8528  0.1814 -1.4050
71355SOL    HW226045   5.022   3.544  12.026 -1.0992  0.5355  2.7961
71356SOL     OW26046  10.966   4.341   2.917 -0.2355  0.0251 -0.7964
71356SOL    HW126047  10.988   4.374   3.004  0.6383 -0.1888 -0.9279
71356SOL    HW226048  10.954   4.419   2.863  1.5823  0.1708 -1.0482
71357SOL     OW26049   2.166  13.412   1.418  0.2301 -0.0723  0.1286
71357SOL    HW126050   2.220  13.417   1.339  0.0425 -0.1297 -0.0030
71357SOL    HW226051   2.221  13.365   1.481 -1.2296 -4.1611 -1.3267
71358SOL     OW26052   3.389   4.579  13.903 -0.0122 -0.2996 -0.6462
71358SOL    HW126053   3.330   4.652  13.886 -0.3742  0.1127  1.9217
71358SOL    HW226054   3.468   4.620  13.939  0.8732 -1.0261 -1.6877
71359SOL     OW26055  10.039   7.386  13.211 -0.4926 -0.5583 -0.2357
71359SOL    HW126056  10.028   7.405  13.118  1.2675  0.7366 -0.2227
71359SOL    HW226057  10.038   7.471  13.254 -1.7462 -1.1501  1.0400
71360SOL     OW26058   0.853  11.720   6.904  0.2217  0.3519 -0.2855
71360SOL    HW126059   0.802  11.644   6.933  1.2468 -0.2812 -0.0857
71360SOL    HW226060   0.895  11.753   6.983  2.0946 -0.6739 -0.7760
71361SOL     OW26061   3.118   7.997  10.760  0.0627  0.0842  0.0075
71361SOL    HW126062   3.080   8.055  10.826  0.3967 -0.1395  0.4022
71361SOL    HW226063   3.160   7.927  10.811  1.7441  0.7665 -0.3805
71362SOL     OW26064   7.582   1.268   6.458 -0.1388  0.2222 -0.4239
71362SOL    HW126065   7.622   1.331   6.519 -1.8257  1.6087 -0.6771
71362SOL    HW226066   7.566   1.191   6.512  1.1648  0.2953  0.1233
71363SOL     OW26067  12.050   3.108   4.781  0.1358  0.2323 -0.0301
71363SOL    HW126068  12.055   3.155   4.698  1.4412  1.4352  0.6832
71363SOL    HW226069  12.015   3.022   4.758  1.5713  0.1138 -1.9913
71364SOL     OW26070  10.487   0.128   6.611 -0.5366  0.0842  0.1784
71364SOL    HW126071  10.574   0.164   6.630  0.1111 -0.1077 -2.0848
71364SOL    HW226072  10.443   0.197   6.561 -0.4388 -1.0114 -1.4909
71365SOL     OW26073  12.190   5.104   6.776 -0.4898 -0.2587 -0.1745
71365SOL    HW126074  12.274   5.072   6.743 -0.1401 -0.2030  0.6409
71365SOL    HW226075  12.213   5.159   6.851 -1.1424  1.1076 -0.9313
71366SOL     OW26076  11.594  13.399  13.332  0.2705 -0.3194 -0.5065
71366SOL    HW126077  11.566  13.489  13.348  0.2606 -0.2410 -0.9503
71366SOL    HW226078  11.512  13.351  13.316  0.2894 -0.3733 -0.4438
71367SOL     OW26079   9.726   0.978   0.456 -0.5953 -0.6222 -0.2559
71367SOL    HW126080   9.807   0.959   0.408 -0.1728  1.3296 -0.3902
71367SOL    HW226081   9.755   0.999   0.545 -1.2572 -2.8412  0.5585
71368SOL     OW26082   0.644   4.235  12.555 -0.3374  0.1638  0.4820
71368SOL    HW126083   0.570   4.288  12.527  0.9780  1.7660 -0.1438
71368SOL    HW226084   0.693   4.290  12.615  1.8657  0.3306 -1.3032
71369SOL     OW26085   3.089   1.781   8.090  0.2594  0.6589  0.2521
71369SOL    HW126086   3.126   1.757   8.005 -2.7806  0.5525 -1.1651
71369SOL    HW226087   3.110   1.707   8.147  1.7246  0.4175 -0.5427
71370SOL     OW26088   4.906   2.108   1.428  0.2207 -0.6455  0.5766
71370SOL    HW126089   4.889   2.202   1.415  3.8837 -0.2208 -4.2320
71370SOL    HW226090   4.831   2.065   1.388 -1.1593  0.1385  2.1890
71371SOL     OW26091  13.405   7.272   8.103 -0.0025 -0.5713 -0.0209
71371SOL    HW126092  13.315   7.304   8.099  0.7986  1.7861 -0.8156
71371SOL    HW226093  13.436   7.294   8.191  0.4033  0.5149 -0.4164
71372SOL     OW26094  12.616   6.808   4.110 -0.2635 -0.3046 -0.2374
71372SOL    HW126095  12.661   6.831   4.191 -2.7517 -0.6095  1.3078
71372SOL    HW226096  12.576   6.890   4.080  0.0909 -0.3346 -0.8181
71373SOL     OW26097  11.882   3.329   5.236 -0.3977  0.5523 -0.1714
71373SOL    HW126098  11.863   3.272   5.310  1.4209 -0.3805 -0.3453
71373SOL    HW226099  11.804   3.325   5.181 -1.0342 -0.2565  0.7720
71374SOL     OW26100  10.471   2.262   0.682 -0.1414 -0.0656  0.5420
71374SOL    HW126101  10.458   2.186   0.626 -2.4076  1.6565 -1.5199
71374SOL    HW226102  10.513   2.327   0.626  0.3886  0.7250  1.7988
71375SOL     OW26103  11.367   0.576  10.623  0.2636  0.4120  0.2879
71375SOL    HW126104  11.347   0.553  10.713  1.1206  0.9288  0.6198
71375SOL    HW226105  11.285   0.613  10.589  0.3212  1.4878  1.2707
71376SOL     OW26106   0.813   2.678   8.842 -0.3684  0.4680 -0.0757
71376SOL    HW126107   0.904   2.707   8.843 -0.8510  2.2671 -1.9721
71376SOL    HW226108   0.806   2.619   8.918  2.5090 -0.2877 -0.2662
71377SOL     OW26109   1.001   6.416   1.294 -0.6847 -0.0783  0.0288
71377SOL    HW126110   1.009   6.459   1.379 -0.1432 -0.2463  0.0662
71377SOL    HW226111   0.959   6.332   1.313  0.9085 -0.8467  0.3868
71378SOL     OW26112   5.485   7.861   5.740  0.5637  0.0235 -0.1355
71378SOL    HW126113   5.531   7.778   5.729  1.4808  0.4765  0.2536
71378SOL    HW226114   5.405   7.851   5.688  0.8516 -0.9578 -0.3982
71379SOL     OW26115   6.358   6.578   7.477  0.1819  0.8786 -0.2736
71379SOL    HW126116   6.315   6.645   7.530  0.1274  1.1373 -0.6404
71379SOL    HW226117   6.354   6.499   7.531 -2.2496  0.4520 -0.9723
71380SOL     OW26118   2.876  12.126   2.851  0.4873 -0.3210 -0.0117
71380SOL    HW126119   2.966  12.118   2.882  0.4289  1.2383  0.6732
71380SOL    HW226120   2.861  12.221   2.844 -1.6435 -0.4589  1.5965
71381SOL     OW26121   1.238   2.642   6.007 -0.2271 -0.3057 -0.1326
71381SOL    HW126122   1.271   2.731   6.021  1.4044 -1.1918  2.2535
71381SOL    HW226123   1.170   2.630   6.072 -0.4212 -0.8190 -0.4195
71382SOL     OW26124   4.731   5.651   5.712 -0.4236 -0.2380  0.0340
71382SOL    HW126125   4.776   5.588   5.768  0.1750  0.5071  0.4054
71382SOL    HW226126   4.638   5.638   5.731 -0.3333 -1.2963 -0.2107
71383SOL     OW26127  12.443   9.091   9.344 -0.3188  0.3832  0.7983
71383SOL    HW126128  12.515   9.123   9.399 -1.9846  1.3557  2.5303
71383SOL    HW226129  12.380   9.163   9.344 -0.4852  0.3538 -2.3343
71384SOL     OW26130  10.865  13.742   0.896  0.6027  0.4986 -0.3791
71384SOL    HW126131  10.940  13.695   0.932  1.2427  1.3445 -0.5749
71384SOL    HW226132  10.902  13.823   0.860 -0.2586  0.4509 -1.4220
71385SOL     OW26133   6.202   6.343   7.876 -0.2681 -0.2482 -0.0237
71385SOL    HW126134   6.259   6.287   7.929  0.5894 -3.0352 -3.4983
71385SOL    HW226135   6.118   6.297   7.873 -0.5462  0.2716 -0.4703
71386SOL     OW26136   6.546   4.366   7.760 -0.1552  0.4710  0.1516
71386SOL    HW126137   6.547   4.322   7.675 -2.5368 -0.8816  0.7294
71386SOL    HW226138   6.478   4.320   7.810  0.0857  2.2326  2.2521
71387SOL     OW26139   6.689   1.920   0.865 -0.1767  0.1425 -0.8900
71387SOL    HW126140   6.619   1.948   0.923 -0.4102 -1.6139 -0.2475
71387SOL    HW226141   6.769   1.930   0.917 -0.3349 -0.9775 -0.4038
71388SOL     OW26142  13.931   6.492   9.504  0.3517 -0.2694  0.3252
71388SOL    HW126143  13.875   6.415   9.509 -0.2126  0.0543 -0.6994
71388SOL    HW226144  13.924   6.521   9.413 -1.5615  2.5648  1.2258
71389SOL     OW26145  11.315   7.698  10.411  0.6427 -0.0229  0.8121
71389SOL    HW126146  11.238   7.684  10.356  0.4388 -3.7820  1.7443
71389SOL    HW226147  11.280   7.735  10.492  0.0832  0.0999  0.5179
71390SOL     OW26148   3.832   5.171   3.348 -0.0598 -0.3274  0.0295
71390SOL    HW126149   3.747   5.145   3.313 -0.3612  1.7798 -0.9730
71390SOL    HW226150   3.874   5.217   3.276  1.9678 -1.3102  0.5082
71391SOL     OW26151   5.717   7.532   5.407  0.0006 -0.0800  0.3772
71391SOL    HW126152   5.625   7.557   5.402  0.3871  2.1287  2.5318
71391SOL    HW226153   5.747   7.530   5.316 -1.3812  2.5248 -0.2100
71392SOL     OW26154   2.177   4.410  13.123  0.0694  0.0371 -0.4140
71392SOL    HW126155   2.211   4.323  13.102 -1.5592 -0.6170 -0.5204
71392SOL    HW226156   2.115   4.429  13.052 -0.9718  0.4555  0.5706
71393SOL     OW26157  10.832   8.717   5.353 -0.7630  0.2056 -0.0522
71393SOL    HW126158  10.823   8.741   5.446 -0.4959 -1.9042  0.5679
71393SOL    HW226159  10.922   8.739   5.331 -0.7068  0.3435  0.3094
71394SOL     OW26160   3.814   2.830   6.766  0.3219 -0.2391 -0.2288
71394SOL    HW126161   3.731   2.876   6.754  1.4692  2.0037 -0.1866
71394SOL    HW226162   3.823   2.821   6.861  0.2637 -0.1708 -0.2165
71395SOL     OW26163   9.410  13.789  10.352  0.0974  0.4740 -0.3369
71395SOL    HW126164   9.357  13.850  10.402 -0.9523 -0.8430  0.2093
71395SOL    HW226165   9.393  13.704  10.391 -0.9355 -0.6598 -3.0028
71396SOL     OW26166  13.034  11.997   5.778  0.5342 -0.4246 -0.3078
71396SOL    HW126167  13.040  11.901   5.780 -0.0685 -0.4959  2.3609
71396SOL    HW226168  12.964  12.018   5.839  1.2919  1.7636 -0.0920
71397SOL     OW26169  11.022  11.600   9.236  0.0187 -0.6717  0.0166
71397SOL    HW126170  10.945  11.583   9.290 -1.8034 -0.0891 -2.2188
71397SOL    HW226171  10.996  11.571   9.148  1.4170  1.8582 -1.3344
71398SOL     OW26172   5.984  11.349  13.790 -0.1952  0.4096 -0.6172
71398SOL    HW126173   5.940  11.336  13.874 -0.2235  2.0000 -0.3688
71398SOL    HW226174   6.063  11.295  13.795  0.0156  0.8155  0.5977
71399SOL     OW26175   0.074   8.697   3.749  0.2254 -0.8650  0.3920
71399SOL    HW126176   0.075   8.659   3.837  0.1156 -1.4676  0.1421
71399SOL    HW226177  -0.012   8.737   3.741  1.1193  1.4068  1.4595
71400SOL     OW26178   2.552   6.506   1.887 -0.0822  0.1424  0.2390
71400SOL    HW126179   2.545   6.525   1.793 -3.2848  0.7503  0.4676
71400SOL    HW226180   2.550   6.593   1.929  2.7813 -0.0349  0.9066
71401SOL     OW26181   9.927  10.680   0.234 -0.4622 -0.2884 -0.1903
71401SOL    HW126182   9.843  10.715   0.265 -0.1388  0.5748 -0.2701
71401SOL    HW226183   9.957  10.743   0.169 -1.0472 -1.9761 -2.2236
71402SOL     OW26184   6.409   7.081   6.928  0.3215  0.0823 -0.1527
71402SOL    HW126185   6.317   7.087   6.901  0.5493 -0.9969 -1.3387
71402SOL    HW226186   6.406   7.049   7.018 -0.5112 -2.1106 -0.8742
71403SOL     OW26187   6.130   3.412   0.244  0.0722  0.1203  0.0769
71403SOL    HW126188   6.119   3.416   0.149  0.6429 -0.6038 -0.0217
71403SOL    HW226189   6.058   3.466   0.278 -0.0739  0.4731 -0.7609
71404SOL     OW26190  10.385   1.771  11.198 -0.3689  0.1324 -0.4377
71404SOL    HW126191  10.386   1.812  11.285 -0.3337 -0.2344 -0.2647
71404SOL    HW226192  10.389   1.677  11.216 -1.6817 -0.0145 -0.7842
71405SOL     OW26193   1.234   8.988  10.167 -0.2932 -0.1000  0.2719
71405SOL    HW126194   1.161   8.949  10.215 -1.5591  2.0248  0.1749
71405SOL    HW226195   1.275   9.048  10.230 -0.4357  0.8604 -0.5252
71406SOL     OW26196   1.915  11.826   8.975  0.6427 -0.5815  0.3612
71406SOL    HW126197   1.824  11.839   8.948  0.1583 -1.0987  1.6214
71406SOL    HW226198   1.968  11.856   8.901 -0.5027  1.6381  0.3668
71407SOL     OW26199   2.596   1.372   3.137 -0.1259 -0.3124 -0.0544
71407SOL    HW126200   2.685   1.375   3.171 -0.3806 -1.9554  0.9161
71407SOL    HW226201   2.602   1.317   3.059 -0.3070 -0.5911  0.1243
71408SOL     OW26202   0.290   6.175   8.556 -0.1584 -0.2053 -0.5043
71408SOL    HW126203   0.385   6.160   8.561 -0.0340  0.8144  1.1137
71408SOL    HW226204   0.275   6.206   8.467  0.8964 -1.1067 -1.0203
71409SOL     OW26205   1.569   6.738  10.894 -0.1237 -0.6804 -0.7262
71409SOL    HW126206   1.664   6.722  10.897  0.0736  0.3725 -1.1366
71409SOL    HW226207   1.531   6.650  10.892  0.8542 -1.1189 -0.8663
71410SOL     OW26208   4.033   8.255  10.530 -0.2590 -0.4840  0.3284
71410SOL    HW126209   4.093   8.220  10.596 -0.1140  2.2312  1.8055
71410SOL    HW226210   3.947   8.224  10.558 -0.1457  0.2839  1.6195
71411SOL     OW26211  10.210  13.378  12.077  0.6319  0.3421  0.2716
71411SOL    HW126212  10.169  13.448  12.127 -0.3390 -0.1963  0.2610
71411SOL    HW226213  10.279  13.344  12.135  0.8519  1.0428  0.4238
71412SOL     OW26214   9.677   3.386   8.542  0.2828 -0.2889 -0.4073
71412SOL    HW126215   9.670   3.318   8.475 -0.9547  0.1177 -0.7241
71412SOL    HW226216   9.664   3.340   8.625 -0.7085 -0.4346 -0.6287
71413SOL     OW26217  12.343   3.921   8.178  0.8240 -0.1121 -0.3774
71413SOL    HW126218  12.295   3.948   8.100 -0.2197  2.0797  0.9241
71413SOL    HW226219  12.292   3.956   8.251  2.0774 -1.5674  1.2902
71414SOL     OW26220   3.108   5.208   4.379 -0.3755  0.1172 -0.4110
71414SOL    HW126221   3.185   5.217   4.324 -0.4781 -0.0005 -0.5748
71414SOL    HW226222   3.055   5.286   4.361 -0.0831  0.4229  0.0379
71415SOL     OW26223   8.076   3.665  10.281  0.0744  0.0431 -0.7145
71415SOL    HW126224   8.158   3.652  10.328  0.2585  0.1656 -0.9969
71415SOL    HW226225   8.101   3.716  10.204 -0.3595  0.6128 -0.4882
71416SOL     OW26226  10.997   4.340   8.384  0.2044 -0.4581  0.0415
71416SOL    HW126227  10.967   4.414   8.332 -1.8003  0.0482  1.7680
71416SOL    HW226228  11.036   4.379   8.462  1.4773 -1.2183 -0.1745
71417SOL     OW26229   3.600   4.671   3.380  0.6384 -0.1925 -0.0302
71417SOL    HW126230   3.613   4.661   3.474  0.6408 -2.1687 -0.2010
71417SOL    HW226231   3.688   4.680   3.345  0.5840  1.8174  0.2308
71418SOL     OW26232   4.613   9.875  12.765  0.0134  0.2485  0.2698
71418SOL    HW126233   4.646   9.960  12.736  1.1938 -0.5939 -0.9306
71418SOL    HW226234   4.586   9.831  12.685 -0.0708 -0.7304  0.8218
71419SOL     OW26235  11.453   0.697   2.148  0.2458  0.2343  0.2365
71419SOL    HW126236  11.432   0.683   2.055  0.4679 -0.8121  0.3329
71419SOL    HW226237  11.538   0.656   2.160  1.2300  2.2471  0.4357
71420SOL     OW26238   8.457   3.260  10.974 -0.0361  0.3093  0.8231
71420SOL    HW126239   8.493   3.289  11.058  0.2575  2.2512  0.0879
71420SOL    HW226240   8.364   3.280  10.979 -0.1194 -0.1005  0.8993
71421SOL     OW26241   1.840   2.662   8.622  0.1180 -0.6481 -0.7136
71421SOL    HW126242   1.878   2.604   8.556  2.8540  0.2117  0.0034
71421SOL    HW226243   1.832   2.607   8.700  1.4608 -0.4441 -0.4129
71422SOL     OW26244   8.838   1.111   4.780 -0.3961 -0.1062  0.1089
71422SOL    HW126245   8.908   1.149   4.833 -0.2476  0.5478 -0.5440
71422SOL    HW226246   8.758   1.149   4.814 -0.3450 -0.0993  0.2196
71423SOL     OW26247  13.647  13.809   5.173 -0.1658  0.0884  0.1050
71423SOL    HW126248  13.634  13.904   5.166 -0.4147 -0.0609 -2.1046
71423SOL    HW226249  13.738  13.800   5.203 -0.5971  0.9857  1.8827
71424SOL     OW26250   8.134   7.557   2.282 -0.0841  0.4403  0.1624
71424SOL    HW126251   8.090   7.533   2.364  0.0227  1.6690  0.6057
71424SOL    HW226252   8.114   7.485   2.222  1.3251 -1.4248  1.7758
71425SOL     OW26253   3.224   4.870   8.675 -0.4413 -0.1892  0.0977
71425SOL    HW126254   3.300   4.878   8.732 -1.3567  1.5960  1.1606
71425SOL    HW226255   3.159   4.930   8.712 -2.2295 -1.3261 -1.0162
71426SOL     OW26256   2.578   9.130   8.235 -0.6706  0.6812  0.0765
71426SOL    HW126257   2.667   9.105   8.208 -0.0886  0.3034  2.1155
71426SOL    HW226258   2.522   9.102   8.163  0.3798 -3.1710  0.5053
71427SOL     OW26259  13.347   5.199  13.867 -0.0747  0.2571 -0.2632
71427SOL    HW126260  13.300   5.139  13.809 -0.1016  0.0004  0.0252
71427SOL    HW226261  13.439   5.173  13.861  0.3725  2.0422 -2.4169
71428SOL     OW26262   5.766   5.133  10.794 -0.0337 -0.2528 -0.2559
71428SOL    HW126263   5.782   5.187  10.872 -0.7460 -0.2580 -0.0983
71428SOL    HW226264   5.781   5.044  10.824 -0.2985 -0.2539 -0.1163
71429SOL     OW26265   3.650   7.251   0.074 -0.6175 -0.5717  1.1823
71429SOL    HW126266   3.566   7.251   0.120 -1.9928 -0.1349 -1.1732
71429SOL    HW226267   3.647   7.173   0.019  0.7464 -0.7831  1.3727
71430SOL     OW26268  11.551   2.750   2.528 -0.7160 -0.1387 -0.2093
71430SOL    HW126269  11.479   2.808   2.501 -1.8857 -1.2510  0.4088
71430SOL    HW226270  11.570   2.698   2.449 -0.8656 -0.1054 -0.2693
71431SOL     OW26271  13.294   0.850  11.928 -0.1740 -0.6751  0.0430
71431SOL    HW126272  13.306   0.886  12.016  1.9327 -2.5770  0.6278
71431SOL    HW226273  13.300   0.926  11.870 -3.5816  0.9230  1.5393
71432SOL     OW26274   6.778  10.507  13.692 -0.0849 -0.0441  0.3972
71432SOL    HW126275   6.776  10.536  13.784  2.1771 -0.5580  0.6671
71432SOL    HW226276   6.837  10.569  13.649  1.1337 -1.4419 -0.0390
71433SOL     OW26277  10.167   3.431  13.413  0.2332 -0.2146  0.7604
71433SOL    HW126278  10.242   3.440  13.472 -0.3060  0.6764  1.3395
71433SOL    HW226279  10.120   3.514  13.422 -1.4355 -1.1829  1.2796
71434SOL     OW26280  12.363   6.788   0.880  0.3577  0.4451  0.0404
71434SOL    HW126281  12.299   6.828   0.821  0.6778 -0.7878 -1.2038
71434SOL    HW226282  12.336   6.816   0.967 -0.9247  1.2540 -0.5888
71435SOL     OW26283   1.267   5.363   8.308  0.0778 -0.1656 -0.4711
71435SOL    HW126284   1.333   5.329   8.247  0.1362 -1.5950  0.3308
71435SOL    HW226285   1.184   5.349   8.263  0.1606 -0.6770 -0.4750
71436SOL     OW26286   8.759   2.374   6.745  0.0381  0.4827  0.0671
71436SOL    HW126287   8.809   2.421   6.812 -1.5349  1.5445  0.5400
71436SOL    HW226288   8.825   2.324   6.697  1.3288  0.4577  1.7738
71437SOL     OW26289   8.112   4.700   8.152  0.8238  1.2746  0.2078
71437SOL    HW126290   8.072   4.781   8.184  1.2032  1.1748  0.9515
71437SOL    HW226291   8.145   4.723   8.065 -0.3582  1.5058 -0.1970
71438SOL     OW26292   1.956   5.095   4.334 -0.5526  0.4415 -0.4076
71438SOL    HW126293   1.892   5.032   4.368  0.2256  0.7397  1.8117
71438SOL    HW226294   2.038   5.046   4.329 -0.2246  0.9150  0.1058
71439SOL     OW26295   6.136   3.173   3.380 -0.5402 -0.3650 -0.1441
71439SOL    HW126296   6.093   3.208   3.302  3.7471  1.3040 -2.0897
71439SOL    HW226297   6.124   3.242   3.446 -0.8176  0.1015 -0.6685
71440SOL     OW26298   2.688   0.369   9.918 -0.3457 -0.5280  0.2836
71440SOL    HW126299   2.618   0.324   9.870  0.6228 -0.4184 -1.2964
71440SOL    HW226300   2.651   0.454   9.940 -0.4651 -0.1597 -1.2378
71441SOL     OW26301   0.045  11.108  12.781  0.0530 -0.2658  0.3936
71441SOL    HW126302  -0.035  11.160  12.786  0.0211 -0.2456 -0.1877
71441SOL    HW226303   0.038  11.062  12.697  1.4492  1.1054 -0.5433
71442SOL     OW26304  11.558  12.145  10.251  0.2803  0.7147 -0.3412
71442SOL    HW126305  11.544  12.119  10.342 -0.4128  1.4853 -0.2028
71442SOL    HW226306  11.543  12.240  10.251 -1.8250  0.4535 -1.6132
71443SOL     OW26307   3.758   8.201   0.807 -0.0037  0.3099  0.4434
71443SOL    HW126308   3.830   8.262   0.794  1.2698 -1.5236 -1.9745
71443SOL    HW226309   3.795   8.115   0.787 -2.5877 -0.8280  0.1039
71444SOL     OW26310   1.783   1.544   2.225 -0.2576  0.6788 -0.4946
71444SOL    HW126311   1.723   1.473   2.248  1.9286 -0.8923  0.6794
71444SOL    HW226312   1.781   1.602   2.301  0.8956 -0.2390  0.2584
71445SOL     OW26313   2.927   8.590   0.585 -0.5119 -0.0069  0.8449
71445SOL    HW126314   2.988   8.636   0.528 -1.2557  0.6050  0.5318
71445SOL    HW226315   2.964   8.502   0.594 -1.1540 -0.6298 -1.8181
71446SOL     OW26316   0.675   5.147   2.043 -0.7332 -0.1925 -0.1340
71446SOL    HW126317   0.765   5.148   2.075 -0.0170 -0.8002 -1.9766
71446SOL    HW226318   0.681   5.102   1.959 -2.6570  0.3995 -0.6223
71447SOL     OW26319   5.736   3.283   6.623 -0.3950 -0.4651  0.5086
71447SOL    HW126320   5.695   3.226   6.688 -1.1314 -0.4328  0.0730
71447SOL    HW226321   5.712   3.371   6.650  0.0299 -0.3966  0.6838
71448SOL     OW26322   3.072   2.992  12.820 -0.4080 -0.2900 -0.2958
71448SOL    HW126323   2.995   3.048  12.815 -0.4466 -0.3917 -0.9061
71448SOL    HW226324   3.068   2.953  12.908  0.5351  1.9339  0.8033
71449SOL     OW26325  10.346   5.256  13.991  0.4816 -0.5305 -0.6374
71449SOL    HW126326  10.280   5.201  14.033  0.1239  1.5190  1.6427
71449SOL    HW226327  10.307   5.281  13.907 -0.5509 -1.3607 -0.4228
71450SOL     OW26328   9.368   7.869   4.918  0.3009  0.5138 -0.1638
71450SOL    HW126329   9.294   7.851   4.977  1.0222  1.4769  1.0811
71450SOL    HW226330   9.344   7.826   4.836 -2.3942  2.1409 -0.3267
71451SOL     OW26331   1.140   3.398   2.435 -0.1341 -0.9659 -0.3855
71451SOL    HW126332   1.103   3.477   2.397 -1.3749 -2.0305 -1.4969
71451SOL    HW226333   1.107   3.327   2.380  1.2659 -2.2357  0.3227
71452SOL     OW26334   1.122   3.700   3.427 -0.6891 -0.6425  0.2312
71452SOL    HW126335   1.127   3.679   3.333 -1.0304  0.3459 -0.0245
71452SOL    HW226336   1.171   3.782   3.436 -0.8046 -0.6409  0.8898
71453SOL     OW26337  13.173  13.104   7.493  0.5313 -0.3400  0.1915
71453SOL    HW126338  13.237  13.125   7.425 -2.0598  3.0424 -1.4914
71453SOL    HW226339  13.113  13.042   7.452 -0.1443  0.5021 -0.1312
71454SOL     OW26340  11.969   3.771   0.046  0.5554  0.2804  0.0558
71454SOL    HW126341  11.962   3.691  -0.007 -0.1938  0.7788 -0.6154
71454SOL    HW226342  12.060   3.800   0.033  1.0986 -0.9088  0.9879
71455SOL     OW26343   5.761   3.010  10.769 -0.6199  0.0755 -0.1625
71455SOL    HW126344   5.745   3.076  10.836  1.6645  2.8633 -2.1148
71455SOL    HW226345   5.830   2.955  10.806  0.9603  1.8735 -0.2434
71456SOL     OW26346   4.917   5.182   2.849 -0.7920 -0.2446  0.0873
71456SOL    HW126347   4.855   5.127   2.802 -0.0108 -1.0914  0.0221
71456SOL    HW226348   4.902   5.161   2.942 -1.5687  0.6076  0.1697
71457SOL     OW26349   7.131  13.850   0.566  0.3427 -0.4401 -0.0179
71457SOL    HW126350   7.087  13.853   0.651  0.4649  0.9719  0.0151
71457SOL    HW226351   7.224  13.845   0.587  0.4361  0.8961 -0.0375
71458SOL     OW26352  13.106   3.811   0.448  0.3792  0.4912  0.7662
71458SOL    HW126353  13.176   3.747   0.456  0.4760  0.5541  0.4420
71458SOL    HW226354  13.151   3.896   0.449  0.2749  0.5452  0.9449
71459SOL     OW26355  13.657   1.222  12.619 -0.1047  0.0321  0.2395
71459SOL    HW126356  13.641   1.231  12.525  0.7759  0.1337  0.0933
71459SOL    HW226357  13.642   1.130  12.638 -0.1506 -0.0148 -0.0250
71460SOL     OW26358   6.824   0.406   7.055  0.6196  0.1557 -0.3951
71460SOL    HW126359   6.823   0.483   6.998  1.7867  0.2052 -0.3730
71460SOL    HW226360   6.732   0.390   7.075  0.2553  0.6495 -1.5975
71461SOL     OW26361  10.326  13.418   7.839 -0.1435  0.4210  0.2613
71461SOL    HW126362  10.322  13.475   7.762  0.1667  1.1425  0.7701
71461SOL    HW226363  10.377  13.342   7.810  1.5445  1.5132  0.2552
71462SOL     OW26364  11.134  12.601   9.976 -0.5950  0.4349  0.0370
71462SOL    HW126365  11.053  12.599   9.926 -1.2551 -0.8446  1.1250
71462SOL    HW226366  11.144  12.513  10.011  0.6848  0.8682  0.8526
71463SOL     OW26367  12.646   0.216   0.372  0.2437 -0.3836 -0.3377
71463SOL    HW126368  12.721   0.220   0.312 -0.6568 -0.9418 -1.5409
71463SOL    HW226369  12.578   0.268   0.329 -0.1073  0.0447  0.6991
71464SOL     OW26370  13.933   5.918  13.401 -0.4040 -0.1891 -0.6554
71464SOL    HW126371  13.879   5.929  13.323  1.3409 -1.7024 -2.1828
71464SOL    HW226372  13.986   5.997  13.404 -1.6251  0.6309  0.0003
71465SOL     OW26373  10.567   3.298   8.823  0.1127  0.1777 -0.5091
71465SOL    HW126374  10.623   3.366   8.786  1.3823 -0.2644  0.5378
71465SOL    HW226375  10.489   3.298   8.767  1.0611  0.9523 -1.8787
71466SOL     OW26376   5.332   3.255   0.596 -0.1595 -0.2961  0.4372
71466SOL    HW126377   5.413   3.257   0.646 -0.3226  1.3217  0.6687
71466SOL    HW226378   5.303   3.163   0.601  2.1306 -1.1462 -0.4813
71467SOL     OW26379  11.991   6.335   8.286  0.0870  0.4608 -0.0845
71467SOL    HW126380  11.986   6.248   8.326 -0.3609  0.0598 -0.9899
71467SOL    HW226381  12.063   6.378   8.332 -1.0362  0.4017  1.8766
71468SOL     OW26382   0.411  12.233  12.385  0.8439 -0.2028 -0.1922
71468SOL    HW126383   0.484  12.172  12.379  0.8244 -0.2704  0.2194
71468SOL    HW226384   0.383  12.246  12.294  0.0629 -1.7767 -0.2259
71469SOL     OW26385   0.970   6.894   8.368  0.2163  0.2741  0.0397
71469SOL    HW126386   0.982   6.853   8.454  0.8422  3.2681  1.5329
71469SOL    HW226387   0.876   6.885   8.350  0.4870 -2.7016 -0.3290
71470SOL     OW26388   9.024  12.109  13.967  0.4230  0.7212 -0.1823
71470SOL    HW126389   9.033  12.025  13.923  0.7560  1.7595 -2.2025
71470SOL    HW226390   8.965  12.091  14.041  0.5168 -1.2671 -0.5276
71471SOL     OW26391  10.010  10.326  13.936  0.1801 -0.1758  0.5731
71471SOL    HW126392  10.041  10.258  13.877 -0.5515  0.2758 -0.3582
71471SOL    HW226393  10.063  10.315  14.015  1.8702 -0.1833 -0.5060
71472SOL     OW26394  13.910   0.748   8.388 -0.0965  0.1172 -0.3565
71472SOL    HW126395  14.003   0.728   8.378 -0.3982 -0.6798 -1.8196
71472SOL    HW226396  13.903   0.785   8.476  0.9738 -3.7238  1.5990
71473SOL     OW26397   1.388   4.913   6.780  0.6160 -0.0100  0.5573
71473SOL    HW126398   1.376   4.823   6.750 -0.0758  0.2816 -0.0510
71473SOL    HW226399   1.314   4.930   6.838  0.3473  0.4039  0.0997
71474SOL     OW26400   3.964  10.335   0.156  0.0662 -0.4120 -0.0050
71474SOL    HW126401   3.873  10.337   0.128  0.1662 -0.7520 -0.3726
71474SOL    HW226402   3.966  10.383   0.238 -0.1880  0.8789 -0.7331
71475SOL     OW26403   6.481   5.045   3.281  0.1292  0.6961 -0.4382
71475SOL    HW126404   6.502   5.028   3.373  0.6447  0.6919 -0.5553
71475SOL    HW226405   6.503   4.964   3.235 -0.5955  0.5256 -0.4971
71476SOL     OW26406   0.705   2.084   8.795  0.1062 -0.3463 -0.2193
71476SOL    HW126407   0.685   2.146   8.724  1.8098 -0.6608 -1.0045
71476SOL    HW226408   0.686   2.134   8.875 -1.4966  0.1381 -0.8499
71477SOL     OW26409   8.346   8.065   3.795 -0.3612  0.0644  0.2304
71477SOL    HW126410   8.414   8.115   3.840  0.1377  0.0699 -0.5188
71477SOL    HW226411   8.388   7.981   3.775 -1.0349 -0.4902  1.0413
71478SOL     OW26412  13.308   0.866   2.388 -0.3138  0.4226  0.2657
71478SOL    HW126413  13.358   0.870   2.470 -1.8860  3.1696  1.2676
71478SOL    HW226414  13.346   0.936   2.334 -0.3301 -0.3112 -0.7067
71479SOL     OW26415  10.545  11.876   0.773  0.2345 -0.4337 -0.8443
71479SOL    HW126416  10.500  11.956   0.801  0.1620  0.0446 -2.2580
71479SOL    HW226417  10.630  11.879   0.818 -0.3831 -0.3751  0.3438
71480SOL     OW26418   9.126   5.471   0.406  0.1054  0.4493 -0.5515
71480SOL    HW126419   9.136   5.506   0.495 -0.0553  1.4911 -0.9362
71480SOL    HW226420   9.032   5.466   0.392  0.1246  1.0606 -0.9503
71481SOL     OW26421  13.651   8.497   9.776 -0.0878 -0.0093  0.0189
71481SOL    HW126422  13.663   8.407   9.743  1.6358 -0.0676  0.7351
71481SOL    HW226423  13.580   8.532   9.722  1.2600 -0.7625 -2.4191
71482SOL     OW26424  13.858   7.194   2.588 -0.8096  0.0470 -0.8347
71482SOL    HW126425  13.877   7.261   2.653 -0.1146 -0.2455 -0.7241
71482SOL    HW226426  13.944   7.159   2.563 -1.2040 -3.9440  2.4223
71483SOL     OW26427   0.506   6.481   9.280 -0.1057  0.3589  0.3334
71483SOL    HW126428   0.569   6.553   9.284 -1.9216  2.0918 -0.3530
71483SOL    HW226429   0.428   6.515   9.325 -1.2310 -0.9492 -0.5403
71484SOL     OW26430   9.544   8.808   0.906  0.2123  0.2083  0.4575
71484SOL    HW126431   9.614   8.762   0.860 -1.8154 -2.2322 -0.3756
71484SOL    HW226432   9.587   8.846   0.983  2.5437 -0.6379 -0.3539
71485SOL     OW26433   0.862  11.347   5.465  0.0838  0.5504  0.3534
71485SOL    HW126434   0.842  11.397   5.543 -1.9227 -0.5155  0.5811
71485SOL    HW226435   0.849  11.256   5.490  0.0574  0.1444 -1.0269
71486SOL     OW26436   5.132   5.769   3.088  0.4211 -0.2723  0.1489
71486SOL    HW126437   5.140   5.845   3.145 -1.3857  2.0821 -2.4815
71486SOL    HW226438   5.040   5.744   3.093  0.0237  0.4702 -2.1525
71487SOL     OW26439  13.815   5.005  13.326  0.2321  0.4557 -0.0169
71487SOL    HW126440  13.860   5.068  13.270  0.0529 -0.0062 -0.7085
71487SOL    HW226441  13.750   4.964  13.268  1.5883 -1.6982 -0.1362
71488SOL     OW26442   2.516  10.722  10.558  0.2217 -0.6950 -0.0119
71488SOL    HW126443   2.527  10.763  10.472 -0.1716  0.0213  0.2712
71488SOL    HW226444   2.476  10.790  10.612 -1.2890 -1.7434  0.2288
71489SOL     OW26445  11.869  10.805   9.306 -0.1964 -0.2421 -0.3660
71489SOL    HW126446  11.788  10.854   9.320  1.7186  3.0357  0.6145
71489SOL    HW226447  11.891  10.769   9.392  0.8202  1.5191  0.1714
71490SOL     OW26448   6.235   4.599   7.149 -0.2542 -0.3345 -0.7448
71490SOL    HW126449   6.226   4.677   7.203  0.6760 -1.9502  1.9483
71490SOL    HW226450   6.170   4.537   7.184  3.0664 -2.8942  1.5690
71491SOL     OW26451   6.156  13.787   3.779  0.0730 -0.4730 -0.0284
71491SOL    HW126452   6.145  13.864   3.724 -0.8590  0.3240  1.2157
71491SOL    HW226453   6.219  13.814   3.845 -0.2566 -0.7711  0.4142
71492SOL     OW26454  13.757  13.683   8.819 -0.4919  0.1160 -0.1824
71492SOL    HW126455  13.694  13.751   8.796 -1.6526 -0.2030  1.7894
71492SOL    HW226456  13.728  13.605   8.771  0.8296  0.9228 -2.4295
71493SOL     OW26457  12.214  11.843  13.075 -0.3210 -0.3824  0.0941
71493SOL    HW126458  12.144  11.833  13.011 -1.6697  0.1030  1.4286
71493SOL    HW226459  12.200  11.930  13.112 -0.6324 -1.2898  2.2330
71494SOL     OW26460   6.070   5.439  11.908 -0.1668  0.4156 -0.0693
71494SOL    HW126461   6.145   5.383  11.926 -0.9074  0.2180  2.8378
71494SOL    HW226462   6.035   5.461  11.994 -2.4405  1.9066 -1.2732
71495SOL     OW26463  10.243   0.633   3.118 -0.6266  0.7359 -0.0030
71495SOL    HW126464  10.338   0.634   3.107 -0.7336  2.1051 -1.0526
71495SOL    HW226465  10.222   0.541   3.136  0.7948  0.2311 -0.7811
71496SOL     OW26466   2.848  13.119  11.799  0.0453  0.2235  0.0389
71496SOL    HW126467   2.824  13.140  11.889  0.7046 -1.0799  0.5441
71496SOL    HW226468   2.857  13.204  11.756 -2.7355  0.8399  0.5092
71497SOL     OW26469   4.973   7.774   2.748  0.3853  0.1973  0.4563
71497SOL    HW126470   5.007   7.861   2.767  0.8446 -0.5455  3.6292
71497SOL    HW226471   4.889   7.771   2.792  0.9194 -1.3099  1.4523
71498SOL     OW26472  13.233  13.981   3.055  0.9154  0.1693  0.3779
71498SOL    HW126473  13.319  13.959   3.020 -0.0081 -0.1843 -1.8607
71498SOL    HW226474  13.194  14.039   2.990 -1.8052 -2.3770 -0.5125
71499SOL     OW26475  12.926   7.241   2.713 -0.0651 -0.2229  0.0429
71499SOL    HW126476  12.993   7.262   2.777  0.5751 -3.4880  0.6506
71499SOL    HW226477  12.952   7.288   2.634  0.6758  1.6726  1.3384
71500SOL     OW26478  11.967  13.627   3.622 -0.2480  0.2787  0.3097
71500SOL    HW126479  11.919  13.709   3.626 -0.9158 -0.0629 -0.5657
71500SOL    HW226480  11.901  13.560   3.640  0.2909 -0.0766  1.0160
71501SOL     OW26481   0.015   1.297   8.057  0.3794  0.0683 -0.1961
71501SOL    HW126482   0.107   1.296   8.082  0.8050  0.4720 -1.6371
71501SOL    HW226483   0.011   1.244   7.977 -0.9310 -1.2772  0.7188
71502SOL     OW26484   1.066   5.740   5.067 -0.1638 -0.5426  0.3083
71502SOL    HW126485   1.000   5.719   5.133 -1.2247 -1.5611 -1.0080
71502SOL    HW226486   1.019   5.735   4.984  0.5908  2.7892 -0.4771
71503SOL     OW26487  10.465   6.300  11.394 -0.7427 -0.1629  0.1062
71503SOL    HW126488  10.561   6.309  11.398 -0.6833 -1.2100  2.5812
71503SOL    HW226489  10.443   6.330  11.306  1.7678  0.8722 -0.2739
71504SOL     OW26490   0.947  10.718   3.097 -0.0783  0.1739  0.1833
71504SOL    HW126491   0.945  10.812   3.083  1.6090  0.0089 -1.6831
71504SOL    HW226492   0.857  10.689   3.080 -0.4497  1.3618  0.0739
71505SOL     OW26493   6.617  12.469   1.470 -0.0765  0.1275  0.1086
71505SOL    HW126494   6.627  12.557   1.507  0.7683  0.4047 -0.7581
71505SOL    HW226495   6.549  12.478   1.403 -0.4975 -0.0392  0.5088
71506SOL     OW26496   5.224   9.407   0.333  0.3491  0.4788  0.0466
71506SOL    HW126497   5.231   9.448   0.419 -0.7595 -0.1222  0.4311
71506SOL    HW226498   5.224   9.313   0.351 -1.5795  0.3571 -0.4540
71507SOL     OW26499   9.532   4.174   1.330 -0.1812  0.8061 -0.6896
71507SOL    HW126500   9.568   4.241   1.272  1.4615 -0.0181 -0.6916
71507SOL    HW226501   9.519   4.220   1.414  0.1371  1.3177 -0.9158
71508SOL     OW26502   5.352   4.706  13.077  0.0204 -0.1777  0.6424
71508SOL    HW126503   5.322   4.692  13.167 -0.1751  1.2853  0.8214
71508SOL    HW226504   5.295   4.774  13.043 -0.8229 -1.6732 -1.0905
71509SOL     OW26505   7.438   7.573   0.373  0.5207  0.2538 -0.6071
71509SOL    HW126506   7.365   7.589   0.433 -0.2312  1.2112 -1.7337
71509SOL    HW226507   7.417   7.490   0.331 -0.5615  1.0648 -1.7606
71510SOL     OW26508  11.022   3.377   0.467 -0.0579  0.0900  0.1000
71510SOL    HW126509  10.931   3.384   0.438 -0.4484 -1.0746  0.9339
71510SOL    HW226510  11.073   3.425   0.401 -1.4762  2.9798  0.9461
71511SOL     OW26511   8.151   6.418   7.461 -0.2403 -0.2458  0.2690
71511SOL    HW126512   8.136   6.379   7.375  0.8478 -1.9233  0.7867
71511SOL    HW226513   8.123   6.351   7.523 -1.0691  0.9650  1.2556
71512SOL     OW26514   3.785   7.006   8.007  0.5940  0.6274  0.3322
71512SOL    HW126515   3.827   6.946   8.069 -0.1127 -0.3136 -0.0685
71512SOL    HW226516   3.745   6.948   7.942 -1.6585  1.4279  0.9055
71513SOL     OW26517   1.836  10.149  11.679 -0.4883 -0.6576 -0.2872
71513SOL    HW126518   1.755  10.184  11.642 -0.3071  0.1767  0.0941
71513SOL    HW226519   1.813  10.125  11.769 -0.0087  0.7984  0.2519
71514SOL     OW26520   8.469   4.272  11.567  0.2459 -0.5400 -0.5398
71514SOL    HW126521   8.552   4.268  11.518  0.5074 -0.8214 -0.0794
71514SOL    HW226522   8.493   4.245  11.656  0.1508  1.7902  0.2450
71515SOL     OW26523   5.687   1.488   5.779  0.1703  0.1022  0.5480
71515SOL    HW126524   5.652   1.548   5.713 -0.1196 -0.0778  0.5353
71515SOL    HW226525   5.720   1.413   5.728  3.6099  1.6476  0.2466
71516SOL     OW26526   3.283   8.490   1.968 -0.2080 -0.4055  0.2955
71516SOL    HW126527   3.195   8.525   1.975 -0.1070  0.4789 -2.0502
71516SOL    HW226528   3.337   8.564   1.942  1.3097 -0.8839  1.8867
71517SOL     OW26529   4.926   0.318   7.653  0.7326  0.1234  0.6065
71517SOL    HW126530   4.892   0.379   7.718 -1.3155  0.0877 -0.3488
71517SOL    HW226531   4.917   0.364   7.570 -0.2464 -1.2016 -0.0529
71518SOL     OW26532   9.121  11.130   9.612  0.3468 -0.3500  0.0682
71518SOL    HW126533   9.182  11.063   9.583 -0.6369 -0.8425 -0.9846
71518SOL    HW226534   9.042  11.081   9.638  0.1205  0.3072  0.6380
71519SOL     OW26535   6.368   2.374   3.622 -0.2287  0.0765  0.0861
71519SOL    HW126536   6.361   2.283   3.593 -0.3796  0.0937  0.0677
71519SOL    HW226537   6.364   2.369   3.718 -2.0306  0.2049  0.0527
71520SOL     OW26538  10.080   4.610   4.842 -0.2720  0.6070  0.1079
71520SOL    HW126539  10.011   4.586   4.904  0.0500 -1.1696 -0.1682
71520SOL    HW226540  10.033   4.645   4.766 -1.0289 -1.8428 -0.6430
71521SOL     OW26541   6.502  10.838   7.078 -0.1183 -0.4830 -0.0909
71521SOL    HW126542   6.477  10.749   7.053  0.2451 -0.4606 -0.5675
71521SOL    HW226543   6.476  10.892   7.003 -1.5196  0.0192  0.7327
71522SOL     OW26544   6.591  11.577   9.434  0.0870  0.8515  0.3014
71522SOL    HW126545   6.526  11.601   9.500 -1.1796 -1.1694 -0.1136
71522SOL    HW226546   6.670  11.558   9.485 -0.1893  1.5487  1.0062
71523SOL     OW26547   3.064   8.965   1.451  0.0192 -0.1533 -0.0422
71523SOL    HW126548   3.012   8.935   1.376  1.7926 -1.9098 -0.6442
71523SOL    HW226549   3.059   8.894   1.515  1.5994 -0.3587 -0.1074
71524SOL     OW26550   5.947   8.125  10.739 -0.4937 -0.0780  0.0475
71524SOL    HW126551   6.014   8.059  10.718 -1.2919 -1.0033  0.3183
71524SOL    HW226552   5.992   8.186  10.797  0.2206 -0.4870 -0.0561
71525SOL     OW26553   1.532   4.272   5.900  0.2911  0.2158 -0.3406
71525SOL    HW126554   1.596   4.239   5.837  1.5587  2.3789 -0.2849
71525SOL    HW226555   1.580   4.339   5.949 -1.5727  0.7630  0.8069
71526SOL     OW26556  10.788   2.457  11.825  0.5157 -0.1682  0.1254
71526SOL    HW126557  10.862   2.410  11.865 -0.7176 -2.3515  0.0180
71526SOL    HW226558  10.711   2.417  11.864 -0.6568  1.9437  0.1133
71527SOL     OW26559  12.823   8.973   7.170 -0.1495  0.2060  0.1851
71527SOL    HW126560  12.853   9.064   7.167  0.2394  0.0685 -0.1709
71527SOL    HW226561  12.809   8.956   7.263  1.3584  0.1218  0.4069
71528SOL     OW26562   0.070  10.740  11.869 -0.2930  0.6001  0.2983
71528SOL    HW126563  -0.012  10.693  11.854  0.0745 -0.5602  1.7056
71528SOL    HW226564   0.138  10.673  11.863  0.3825  1.2018  0.9794
71529SOL     OW26565  13.663   7.501   7.143 -0.4596  0.0312  0.1709
71529SOL    HW126566  13.595   7.558   7.179  0.0379  1.1243 -0.5755
71529SOL    HW226567  13.621   7.455   7.071 -0.9511 -0.8193  0.9703
71530SOL     OW26568  11.492   2.117   2.074 -0.2991 -0.0472 -0.0253
71530SOL    HW126569  11.487   2.029   2.036 -1.5183  0.5468 -1.3452
71530SOL    HW226570  11.566   2.158   2.029  1.3690 -0.9049  1.8177
71531SOL     OW26571   2.462   1.416   0.687  0.1702 -0.2680  0.4320
71531SOL    HW126572   2.545   1.370   0.693  1.1518  1.3387 -0.0513
71531SOL    HW226573   2.447   1.452   0.774  0.3693  0.0577  0.3341
71532SOL     OW26574   4.374   6.441   7.966  0.5591 -0.5333 -0.3456
71532SOL    HW126575   4.372   6.362   8.020  1.3697 -1.6897 -1.9045
71532SOL    HW226576   4.294   6.436   7.913  0.3834 -0.0598 -0.1282
71533SOL     OW26577   8.117  11.672  10.871  0.4691  0.3153 -0.2497
71533SOL    HW126578   8.173  11.683  10.794 -0.3104  0.2413 -0.8389
71533SOL    HW226579   8.040  11.726  10.853  0.4158  0.5604  0.6305
71534SOL     OW26580  11.961   2.078   7.138 -0.0588  0.1189 -0.9948
71534SOL    HW126581  11.900   2.005   7.151 -0.4131  0.6994  0.9281
71534SOL    HW226582  11.946   2.105   7.047 -2.5437  0.1153 -0.6580
71535SOL     OW26583   5.737  12.636  13.633 -0.4552  0.3632  0.0079
71535SOL    HW126584   5.643  12.650  13.643 -0.1596  2.1032  0.7841
71535SOL    HW226585   5.760  12.578  13.706 -0.8597  0.2440  0.0443
71536SOL     OW26586   7.572  12.337  10.851  0.4199  0.2964 -0.3373
71536SOL    HW126587   7.564  12.249  10.886  1.0287  0.0742 -0.7307
71536SOL    HW226588   7.652  12.335  10.798 -1.1356  0.2162 -2.8636
71537SOL     OW26589   1.257   2.523  11.665 -0.4343 -0.3230  0.4060
71537SOL    HW126590   1.259   2.475  11.582 -3.1514 -0.1428  0.1431
71537SOL    HW226591   1.234   2.457  11.731 -0.1570 -0.1259  0.7038
71538SOL     OW26592   5.355   6.060   6.149 -0.2405 -0.0552 -0.5574
71538SOL    HW126593   5.448   6.062   6.125  0.1874 -1.7325  0.7706
71538SOL    HW226594   5.319   5.986   6.100 -0.2418 -1.0475  0.8775
71539SOL     OW26595   0.261  10.159   8.811 -0.3741  0.0099  0.1023
71539SOL    HW126596   0.317  10.236   8.825  1.0575 -1.1036  0.8048
71539SOL    HW226597   0.187  10.193   8.762 -0.2276  2.0190  1.1176
71540SOL     OW26598  12.971  11.123  13.274 -0.4182 -0.3667 -0.4208
71540SOL    HW126599  12.882  11.123  13.238  0.0600  1.1564 -1.6883
71540SOL    HW226600  12.999  11.214  13.270  0.4550 -0.4657  1.9671
71541SOL     OW26601   4.480  11.670  13.973  0.0926  0.0228 -0.6466
71541SOL    HW126602   4.531  11.631  14.044 -0.2353  0.3232 -0.2356
71541SOL    HW226603   4.546  11.704  13.912  0.4752  2.0890  0.7871
71542SOL     OW26604   7.640  13.204   2.586 -0.3122  0.3848 -0.2803
71542SOL    HW126605   7.570  13.220   2.522  0.4877 -0.0708 -1.2993
71542SOL    HW226606   7.648  13.287   2.633 -2.6600 -0.0352  1.0388
71543SOL     OW26607   6.840   5.076   4.715  1.0176  0.6581 -0.0027
71543SOL    HW126608   6.745   5.080   4.702  0.9589  0.3823  0.3323
71543SOL    HW226609   6.876   5.105   4.631  0.6381  0.5351 -0.2126
71544SOL     OW26610  12.908   6.197  12.721  0.6047  0.0888 -0.4763
71544SOL    HW126611  12.942   6.287  12.720  0.7993  0.0432 -2.2658
71544SOL    HW226612  12.914   6.170  12.812  0.0923  2.0573  0.1963
71545SOL     OW26613   9.011   5.874   5.350 -0.6880  0.4371  0.1272
71545SOL    HW126614   9.044   5.960   5.325  1.6841 -0.5395 -0.3640
71545SOL    HW226615   8.993   5.881   5.443 -2.1560  1.9160 -0.2239
71546SOL     OW26616   0.278   2.898   8.000 -0.5399  0.0870 -0.1479
71546SOL    HW126617   0.332   2.973   7.976  0.4040 -1.2742 -2.4893
71546SOL    HW226618   0.291   2.889   8.095 -0.0133  2.3037  0.0537
71547SOL     OW26619   0.864   9.796   4.355 -0.1831 -0.5853 -0.2465
71547SOL    HW126620   0.853   9.863   4.286 -0.7219  0.7742  1.1085
71547SOL    HW226621   0.925   9.836   4.417 -1.0210 -1.0750  0.9226
71548SOL     OW26622  11.386  13.871   0.466 -0.1097 -0.2517 -0.0985
71548SOL    HW126623  11.373  13.836   0.378 -0.4444 -0.3729 -0.0017
71548SOL    HW226624  11.452  13.940   0.455 -0.2496 -0.1740 -0.4666
71549SOL     OW26625   3.290   3.829   9.860 -0.3488 -0.1713 -0.2267
71549SOL    HW126626   3.314   3.789   9.776 -1.9676 -1.1129 -0.2911
71549SOL    HW226627   3.235   3.763   9.903 -0.1125  0.5767  1.2832
71550SOL     OW26628   5.406   2.346   0.485 -0.4790  0.3524  0.5482
71550SOL    HW126629   5.397   2.316   0.576  3.7376 -1.1471  0.6898
71550SOL    HW226630   5.453   2.429   0.492 -0.3327  0.3387 -0.2472
71551SOL     OW26631   2.526  10.095   3.474 -0.3126 -0.2004 -0.0373
71551SOL    HW126632   2.463  10.134   3.413 -1.0121  0.6148  1.1749
71551SOL    HW226633   2.475  10.031   3.524 -0.3227  0.7818  1.2576
71552SOL     OW26634   2.021   9.792   5.882  0.1594  0.2506 -0.0868
71552SOL    HW126635   2.023   9.739   5.962 -0.4690 -0.3567 -0.4586
71552SOL    HW226636   1.934   9.833   5.883  0.4221  0.8081 -0.0996
71553SOL     OW26637  11.103   4.589   1.628  0.4123  0.6427 -0.0441
71553SOL    HW126638  11.008   4.586   1.630  0.3012 -4.0641  2.4096
71553SOL    HW226639  11.126   4.577   1.536 -1.3920  0.5960 -0.5115
71554SOL     OW26640   2.996   6.302   4.975  0.0232  0.0144  0.0507
71554SOL    HW126641   3.073   6.247   4.988  0.4727  0.6458  0.0991
71554SOL    HW226642   3.030   6.382   4.936 -0.7785 -0.1783 -1.0677
71555SOL     OW26643   3.292   2.511   7.985 -0.0661 -0.3869 -0.3189
71555SOL    HW126644   3.236   2.582   8.016 -0.1238 -0.1270 -0.9854
71555SOL    HW226645   3.233   2.452   7.939  0.0752 -0.5484 -0.2943
71556SOL     OW26646   5.421   0.410  10.702  0.3842  0.5889 -0.4273
71556SOL    HW126647   5.452   0.493  10.737  0.4625  0.4341 -0.1254
71556SOL    HW226648   5.334   0.398  10.742 -0.1413  1.0907 -1.3736
71557SOL     OW26649  13.904   1.639   6.170  0.7358 -0.3804 -0.1574
71557SOL    HW126650  13.847   1.590   6.229 -0.4798  0.6361 -0.4374
71557SOL    HW226651  13.860   1.636   6.085  0.3534  1.5785 -0.0680
71558SOL     OW26652   0.321  10.474   6.784  0.5204 -0.5140  0.0042
71558SOL    HW126653   0.318  10.510   6.873  4.1207 -1.1683  0.5540
71558SOL    HW226654   0.298  10.381   6.795 -0.5394 -0.2652 -0.0327
71559SOL     OW26655   7.748  12.840   0.207 -0.0806 -0.5824 -0.3974
71559SOL    HW126656   7.744  12.747   0.229 -1.6646 -0.7233 -1.0805
71559SOL    HW226657   7.828  12.850   0.156  0.0948 -1.5653 -0.3313
71560SOL     OW26658   0.551   4.697   1.815 -0.0640  0.4598 -0.2672
71560SOL    HW126659   0.612   4.646   1.763 -2.5182 -2.1266 -0.8198
71560SOL    HW226660   0.562   4.664   1.904 -0.5842  0.0104 -0.3625
71561SOL     OW26661   3.989   1.246   8.194 -0.0846 -0.2728  0.0911
71561SOL    HW126662   4.076   1.224   8.227  0.5284  2.1873  0.2896
71561SOL    HW226663   3.986   1.205   8.107  0.5600 -1.8233  0.7589
71562SOL     OW26664   1.090   2.784   8.853 -0.4513 -0.0478 -0.1681
71562SOL    HW126665   1.046   2.847   8.910 -0.0850  1.8175 -1.8535
71562SOL    HW226666   1.183   2.799   8.868 -0.3590 -0.1396 -0.6350
71563SOL     OW26667   2.483  10.227   1.472 -0.0732 -0.4251 -0.0841
71563SOL    HW126668   2.390  10.204   1.475 -0.4359  0.9753 -0.2215
71563SOL    HW226669   2.528  10.144   1.491 -1.3749 -0.8026  1.6024
71564SOL     OW26670   8.421   9.872   3.456 -0.4621  0.2373  0.8649
71564SOL    HW126671   8.493   9.852   3.396 -1.7068 -0.1297 -0.5474
71564SOL    HW226672   8.458   9.937   3.517  1.7925 -1.6891  1.7160
71565SOL     OW26673  12.854   9.929   2.416  0.1478  0.3020  0.3014
71565SOL    HW126674  12.772   9.911   2.461 -0.3828 -1.0268 -1.1297
71565SOL    HW226675  12.894   9.999   2.468 -1.5206  0.4730  1.4533
71566SOL     OW26676   2.877   2.223   0.284  0.2858 -0.0256 -0.5162
71566SOL    HW126677   2.789   2.187   0.271 -0.0191 -0.0508  1.3816
71566SOL    HW226678   2.884   2.294   0.220 -0.9943 -0.2148 -0.8897
71567SOL     OW26679   2.019   3.488   4.277  0.3677  0.0228 -0.1571
71567SOL    HW126680   1.927   3.506   4.294  0.8165  0.5959  1.9932
71567SOL    HW226681   2.019   3.427   4.203 -1.5783  2.4909 -2.3647
71568SOL     OW26682   2.602  13.265   5.593 -0.2251 -0.3565  0.0966
71568SOL    HW126683   2.556  13.341   5.557 -0.6545 -0.6835 -0.0517
71568SOL    HW226684   2.557  13.248   5.676 -0.9581 -1.2209 -0.4650
71569SOL     OW26685   6.464   4.996   3.712  0.3465  0.0513 -0.5264
71569SOL    HW126686   6.537   4.952   3.669  0.9666  1.2043 -0.6939
71569SOL    HW226687   6.497   5.020   3.798 -0.5418 -1.2861  0.2158
71570SOL     OW26688  13.343   8.336  12.681 -0.1509  0.2373  0.1298
71570SOL    HW126689  13.316   8.374  12.598 -0.7863 -1.7572 -0.6490
71570SOL    HW226690  13.275   8.362  12.743  1.1055  3.0233  0.4821
71571SOL     OW26691  12.009   4.708  12.479  0.8675 -0.2763 -0.1022
71571SOL    HW126692  12.046   4.620  12.469  1.8133  0.1750 -0.6202
71571SOL    HW226693  12.025   4.730  12.571  1.3626 -0.3322 -0.1696
71572SOL     OW26694   6.490   7.355  13.213  0.3481 -0.4418 -0.7988
71572SOL    HW126695   6.582   7.364  13.237  0.2830 -0.7222 -0.4339
71572SOL    HW226696   6.461   7.275  13.257 -1.2668  1.9512  2.9362
71573SOL     OW26697  13.747   5.878  10.320  0.1745  0.1057 -0.7932
71573SOL    HW126698  13.782   5.843  10.402 -0.2871 -0.1348 -0.6968
71573SOL    HW226699  13.793   5.828  10.252 -0.1366 -0.3627 -0.6634
71574SOL     OW26700  10.823   5.281  13.351 -0.4429  0.4767 -0.9618
71574SOL    HW126701  10.907   5.278  13.396 -1.6077  0.1621  1.3455
71574SOL    HW226702  10.813   5.194  13.313  0.4596  0.6674 -1.6583
71575SOL     OW26703  11.559  12.690   1.597  0.7166 -0.4264  0.0144
71575SOL    HW126704  11.573  12.657   1.686 -1.4529  0.1012  0.5943
71575SOL    HW226705  11.593  12.779   1.599 -0.5368  0.0616  0.7440
71576SOL     OW26706   0.077  12.501   5.578 -0.0412 -0.1705 -0.3440
71576SOL    HW126707   0.122  12.585   5.584  2.3370 -1.3922  0.3270
71576SOL    HW226708   0.023  12.497   5.657 -2.1357  1.6686 -1.5616
71577SOL     OW26709  11.703   8.844  12.975 -0.8598 -0.4360 -0.0620
71577SOL    HW126710  11.690   8.936  13.001 -0.8671 -0.5690  0.4083
71577SOL    HW226711  11.635   8.829  12.910  0.3381  0.4603 -1.5927
71578SOL     OW26712  12.404   3.276   4.765  0.3421  0.1624 -0.2237
71578SOL    HW126713  12.335   3.314   4.711 -0.1246  1.9140  1.4709
71578SOL    HW226714  12.466   3.348   4.777  0.8549 -0.4375  0.8354
71579SOL     OW26715   8.805  11.070  11.050 -0.2032 -0.5921 -0.4122
71579SOL    HW126716   8.897  11.098  11.042 -0.2158 -0.6513 -0.7949
71579SOL    HW226717   8.758  11.150  11.073 -0.0113 -0.6264  0.1118
71580SOL     OW26718   2.215  13.772   2.235 -0.0740  0.0278  0.2878
71580SOL    HW126719   2.228  13.708   2.165  1.9643 -1.3691  1.8183
71580SOL    HW226720   2.264  13.849   2.207 -1.3262  0.4308 -0.8983
71581SOL     OW26721  12.228   7.162   2.385  0.2434 -0.0093  0.6574
71581SOL    HW126722  12.261   7.247   2.416 -2.8356  1.4710  0.2810
71581SOL    HW226723  12.210   7.177   2.292  1.0567 -1.6031  0.2176
71582SOL     OW26724   8.517   3.376   9.289  0.1757  0.2201 -0.0167
71582SOL    HW126725   8.425   3.350   9.294  0.1218  0.6087  2.8681
71582SOL    HW226726   8.517   3.454   9.234 -1.0352 -0.4156 -0.9640
71583SOL     OW26727   8.652  10.066  13.457 -0.3561  0.4595  0.1455
71583SOL    HW126728   8.703   9.994  13.493 -1.7746 -1.2143 -0.9716
71583SOL    HW226729   8.608  10.106  13.532  1.3502  0.9599  0.9190
71584SOL     OW26730  12.050   4.299   7.414  0.1828  0.3168 -0.0649
71584SOL    HW126731  12.134   4.289   7.371  0.3804 -0.4644  0.4848
71584SOL    HW226732  12.071   4.335   7.501  0.0314 -0.5755  0.3551
71585SOL     OW26733  12.596   7.011  10.438 -0.0151  0.1138 -0.2707
71585SOL    HW126734  12.527   6.952  10.470 -0.5357 -0.0630 -1.6721
71585SOL    HW226735  12.670   6.953  10.419 -0.2652  0.0061 -0.9257
71586SOL     OW26736   3.574   1.268   2.476 -0.3438  0.0644 -0.3833
71586SOL    HW126737   3.618   1.320   2.409  2.2508  1.6081  2.2882
71586SOL    HW226738   3.644   1.216   2.516 -1.8091 -0.8757  1.0862
71587SOL     OW26739  10.978   3.187   1.998 -0.0567  0.8563  0.1813
71587SOL    HW126740  11.040   3.206   1.928 -0.6955  0.3611 -0.5401
71587SOL    HW226741  10.968   3.270   2.044 -0.1290  1.3704 -0.7362
71588SOL     OW26742  13.434   2.972   9.165 -0.4176  0.1212 -0.3132
71588SOL    HW126743  13.515   2.950   9.211 -0.2803 -1.1759 -1.1305
71588SOL    HW226744  13.444   2.933   9.078 -1.8020  0.1793 -0.5238
71589SOL     OW26745   4.599   1.910   6.326  0.0968  0.1170  0.1083
71589SOL    HW126746   4.592   1.857   6.247  0.7905  0.6667 -0.3316
71589SOL    HW226747   4.592   2.001   6.295  1.0994  0.3679  0.5776
71590SOL     OW26748  10.488  11.240   4.713 -0.0998 -0.6971 -0.2432
71590SOL    HW126749  10.539  11.166   4.678 -1.2748 -1.1965 -0.9696
71590SOL    HW226750  10.445  11.204   4.790 -1.0288 -0.9290 -0.8522
71591SOL     OW26751   4.942  12.929   2.689  0.1016 -0.1898  0.2870
71591SOL    HW126752   5.022  12.957   2.734 -0.0333  1.4028 -0.3784
71591SOL    HW226753   4.957  12.953   2.597 -2.0209  2.3814  0.4882
71592SOL     OW26754  13.580   0.728   4.103 -0.3169  0.2633 -0.0076
71592SOL    HW126755  13.655   0.755   4.155 -0.0225 -1.0617  0.2796
71592SOL    HW226756  13.606   0.645   4.064 -1.1546  0.4219 -0.9483
71593SOL     OW26757  12.608   1.289   0.789  0.1271  0.3511  0.2417
71593SOL    HW126758  12.514   1.304   0.776 -0.2772 -1.4598  0.9014
71593SOL    HW226759  12.615   1.259   0.879  1.3369  0.2799  0.1301
71594SOL     OW26760   4.158   0.739   5.444  0.2480  0.1488  0.1361
71594SOL    HW126761   4.190   0.820   5.405 -1.1697 -0.1839 -1.8500
71594SOL    HW226762   4.237   0.687   5.458  0.9156  0.7063 -1.3795
71595SOL     OW26763   5.536   8.886   1.355  0.5744  0.6270  0.1273
71595SOL    HW126764   5.443   8.873   1.373  0.5666  1.1545  0.4706
71595SOL    HW226765   5.570   8.797   1.344 -0.6459  0.4170 -3.5351
71596SOL     OW26766   7.837   0.960   0.528  0.4616  0.3258  0.0162
71596SOL    HW126767   7.911   0.953   0.589  0.4643 -1.4263 -0.1615
71596SOL    HW226768   7.877   0.971   0.442  0.6511 -2.4992 -0.3502
71597SOL     OW26769   5.668  11.476  11.073  0.1636 -0.7796  0.3622
71597SOL    HW126770   5.667  11.409  11.141  0.2762 -0.7951  0.3485
71597SOL    HW226771   5.612  11.441  11.004 -0.4986 -0.4650  0.7346
71598SOL     OW26772   5.122   4.894   1.869  0.0568 -0.0040  0.3934
71598SOL    HW126773   5.058   4.828   1.841 -0.6214  1.4597 -1.7099
71598SOL    HW226774   5.103   4.970   1.815  1.7876  1.4438  1.7153
71599SOL     OW26775  12.773   2.040  13.524  0.0921 -0.1671  0.1806
71599SOL    HW126776  12.758   1.993  13.606 -0.5531 -0.1109  0.0973
71599SOL    HW226777  12.694   2.025  13.473 -0.7057  2.0731  0.6506
71600SOL     OW26778   4.704   4.631   1.906  0.3174  0.2533  0.0282
71600SOL    HW126779   4.635   4.651   1.842  0.7356  1.2158 -0.1488
71600SOL    HW226780   4.721   4.715   1.949  2.8442  0.5725 -1.3848
71601SOL     OW26781   0.801   1.952   0.663 -0.2192  0.0674  0.1460
71601SOL    HW126782   0.865   1.883   0.681  0.0619  0.0868 -0.7196
71601SOL    HW226783   0.728   1.907   0.621  0.2356  0.3735 -0.9998
71602SOL     OW26784   7.691   3.229   6.653 -0.1186  0.4751  0.3085
71602SOL    HW126785   7.763   3.168   6.666 -0.2670  0.3385  0.5020
71602SOL    HW226786   7.674   3.265   6.741  0.2338  1.0926  0.1274
71603SOL     OW26787  12.539   2.118  13.921 -0.1596  0.0913  0.5099
71603SOL    HW126788  12.548   2.030  13.885 -3.4946 -0.3034  0.3358
71603SOL    HW226789  12.486   2.166  13.857  0.9163  2.0269  0.9790
71604SOL     OW26790   2.800   3.033   4.064  0.0728  0.0926  0.2312
71604SOL    HW126791   2.844   3.082   3.995 -0.0688  2.0930  1.4942
71604SOL    HW226792   2.712   3.017   4.029  0.3597  0.0351 -0.4965
71605SOL     OW26793   3.685   5.975  11.970 -0.3588 -0.0691 -0.1733
71605SOL    HW126794   3.657   5.973  11.879  0.6143  0.8967 -0.5195
71605SOL    HW226795   3.609   6.006  12.019 -0.8587 -0.5168 -0.6556
71606SOL     OW26796   0.725  13.829   9.701 -0.0136  0.1143  0.0503
71606SOL    HW126797   0.728  13.891   9.628  0.1067 -0.9408 -0.8883
71606SOL    HW226798   0.737  13.743   9.659 -1.1652 -0.6359  1.1756
71607SOL     OW26799   4.392  13.993  13.668 -0.4703 -0.1996 -0.2776
71607SOL    HW126800   4.372  14.000  13.575 -2.0556 -0.6195  0.0069
71607SOL    HW226801   4.487  13.982  13.671 -0.2765  0.7990 -1.7765
71608SOL     OW26802   1.041   5.680   3.037  0.8271 -0.0411  0.3190
71608SOL    HW126803   0.962   5.727   3.064 -0.1728 -2.1105  1.2039
71608SOL    HW226804   1.083   5.656   3.119  0.8636 -1.3951 -0.0834
71609SOL     OW26805   9.517  12.727  11.402 -0.0588  0.1619  0.5168
71609SOL    HW126806   9.538  12.643  11.443 -1.2329  0.1073  1.0429
71609SOL    HW226807   9.422  12.728  11.396 -0.3453  2.6208  3.1410
71610SOL     OW26808   9.314  13.325   4.570 -0.0023 -0.1458 -0.4360
71610SOL    HW126809   9.330  13.310   4.477 -0.8951  1.7428 -0.9582
71610SOL    HW226810   9.287  13.240   4.605  0.7959 -0.9827 -1.7861
71611SOL     OW26811  12.048   0.801  10.041 -0.1835  0.2878  0.1662
71611SOL    HW126812  12.014   0.719  10.076 -0.7139  0.0981 -0.7606
71611SOL    HW226813  12.050   0.788   9.946  0.3514  1.1117  0.0495
71612SOL     OW26814  13.556   2.081   3.484 -0.1712 -0.1230 -0.5160
71612SOL    HW126815  13.560   2.023   3.408  1.9556  0.1622 -0.6858
71612SOL    HW226816  13.628   2.142   3.471 -0.3883  0.5590  1.2487
71613SOL     OW26817   6.030   9.592   9.342 -0.0509  0.6996 -0.1355
71613SOL    HW126818   5.943   9.553   9.329  0.6230 -1.1597  0.5705
71613SOL    HW226819   6.091   9.526   9.308  1.1815  0.9594  1.4680
71614SOL     OW26820  11.165   8.126   4.089  0.3214  0.2553  0.0045
71614SOL    HW126821  11.213   8.134   4.172 -0.2129 -0.0296  0.3512
71614SOL    HW226822  11.102   8.198   4.090 -1.8021 -1.4941  1.3119
71615SOL     OW26823  13.941   8.250   4.565 -0.0654 -0.4298 -0.4543
71615SOL    HW126824  13.934   8.169   4.615 -1.5585  0.7975  1.4462
71615SOL    HW226825  14.020   8.293   4.599  0.5503 -0.9008 -1.2440
71616SOL     OW26826  11.852  12.137   8.885 -0.2505 -0.6287  0.3081
71616SOL    HW126827  11.914  12.074   8.849 -1.5767 -2.0143  0.3761
71616SOL    HW226828  11.797  12.161   8.811 -1.2218 -1.3623  0.7649
71617SOL     OW26829  13.790   3.853   3.715 -0.0066 -0.2783  0.7477
71617SOL    HW126830  13.750   3.851   3.628 -0.3173 -0.8093  0.8929
71617SOL    HW226831  13.866   3.795   3.707 -0.7170 -1.2856  1.1395
71618SOL     OW26832   0.199   4.258   2.996 -0.5982 -0.2261  0.1662
71618SOL    HW126833   0.269   4.279   3.057 -0.7094 -1.1876  0.6400
71618SOL    HW226834   0.150   4.340   2.987  0.1376  0.2528  0.4060
71619SOL     OW26835  12.198   5.185   3.882 -0.2748  0.4930  0.2361
71619SOL    HW126836  12.262   5.246   3.919  0.4766  0.6858 -1.2643
71619SOL    HW226837  12.123   5.240   3.859 -0.3013  0.5585  0.4861
71620SOL     OW26838   9.925   7.214   4.851  0.1925  0.4636 -0.0435
71620SOL    HW126839   9.921   7.126   4.887 -0.8681  0.7454  0.5964
71620SOL    HW226840   9.982   7.207   4.774  1.5536 -0.4084  0.9931
71621SOL     OW26841  10.335   6.887   3.053  0.2599 -0.2237  0.4953
71621SOL    HW126842  10.419   6.867   3.011  0.9136  1.1725  1.0581
71621SOL    HW226843  10.339   6.981   3.071 -0.9577 -0.3433  1.5546
71622SOL     OW26844   9.301   4.229   0.030  0.1310  0.2823 -0.5249
71622SOL    HW126845   9.230   4.171   0.002  0.1786  0.4090 -0.9138
71622SOL    HW226846   9.307   4.215   0.124  0.0482 -0.2447 -0.5908
71623SOL     OW26847   5.183   0.652  11.024 -0.3511 -0.8323 -0.3758
71623SOL    HW126848   5.192   0.562  11.056 -0.0242 -1.1920 -1.4272
71623SOL    HW226849   5.098   0.653  10.979 -0.1250 -0.7652 -0.8080
71624SOL     OW26850   7.951  13.819  10.931  0.0057 -0.1353 -0.1095
71624SOL    HW126851   7.996  13.843  11.012 -0.9068  1.1048  0.0464
71624SOL    HW226852   8.018  13.832  10.863  0.1387  0.9120  0.2067
71625SOL     OW26853  12.989   9.961  12.968 -0.4132 -0.2432 -0.1980
71625SOL    HW126854  12.960  10.049  12.941  1.6591  0.6760  0.4239
71625SOL    HW226855  13.023   9.922  12.888  0.3668  0.2516 -0.1186
71626SOL     OW26856   6.030   1.797   7.029  0.6745  0.1281 -0.2373
71626SOL    HW126857   5.936   1.781   7.015  0.2736  1.7847  0.3320
71626SOL    HW226858   6.033   1.882   7.074  2.4152 -0.2967  0.5154
71627SOL     OW26859   8.887   4.457   9.796 -0.4206  0.2189  0.1166
71627SOL    HW126860   8.975   4.430   9.824 -0.1225  0.0553 -0.9248
71627SOL    HW226861   8.869   4.536   9.846 -0.0830 -0.2852  1.0506
71628SOL     OW26862   2.618  10.732  12.021 -0.3932  0.4217  0.4110
71628SOL    HW126863   2.707  10.748  12.051 -0.7579  0.4288  1.5538
71628SOL    HW226864   2.567  10.723  12.102 -1.4574  0.5913 -0.2203
71629SOL     OW26865   0.906   3.089   9.972  0.6652  0.3003 -0.1220
71629SOL    HW126866   0.968   3.159   9.990 -1.3727  2.7573 -1.9943
71629SOL    HW226867   0.936   3.050   9.890  0.1719  1.0425 -0.6711
71630SOL     OW26868  11.319   3.207   3.370 -0.5379  0.3429 -0.2561
71630SOL    HW126869  11.399   3.246   3.404 -0.4467  0.6269 -0.7936
71630SOL    HW226870  11.348   3.133   3.317 -0.6583  0.1611 -0.0709
71631SOL     OW26871  13.335  13.088  13.889  0.4137  0.5779  0.0104
71631SOL    HW126872  13.249  13.125  13.871 -0.0611 -0.8831 -0.9180
71631SOL    HW226873  13.396  13.137  13.833 -0.1704  0.1278 -1.0505
71632SOL     OW26874   1.092   7.980  13.797 -0.2046  0.1332  0.1206
71632SOL    HW126875   1.147   7.938  13.863  0.4294 -1.7340 -1.5029
71632SOL    HW226876   1.148   7.987  13.720 -1.0901  1.7628 -0.4374
71633SOL     OW26877   1.160   2.062  13.915  0.4985  0.0189 -0.4027
71633SOL    HW126878   1.151   2.067  14.010  0.6857  2.4724 -0.4517
71633SOL    HW226879   1.246   2.022  13.901  0.6153 -0.0430  0.4489
71634SOL     OW26880   1.214  13.244   3.996  0.0744 -0.2721 -0.1518
71634SOL    HW126881   1.192  13.165   4.045 -1.8595  0.8922  1.0004
71634SOL    HW226882   1.215  13.314   4.063  0.8910  0.8020 -1.2502
71635SOL     OW26883   1.445   0.043  10.653 -0.4150  0.1882 -0.1164
71635SOL    HW126884   1.449   0.008  10.564  0.0859 -3.7352  1.2361
71635SOL    HW226885   1.375  -0.007  10.695 -1.3621  2.6895  1.4805
71636SOL     OW26886   4.371  11.923   1.618 -0.3982  0.2428  0.4385
71636SOL    HW126887   4.432  11.979   1.665  2.6418 -1.5668 -1.0525
71636SOL    HW226888   4.344  11.857   1.681  2.0580 -0.9841  0.3255
71637SOL     OW26889   1.549   4.742   6.108  0.2289 -0.1401  0.6163
71637SOL    HW126890   1.603   4.728   6.185 -0.4964 -1.6443  0.8783
71637SOL    HW226891   1.557   4.836   6.090  2.3402 -0.1833  1.0582
71638SOL     OW26892   3.298   2.952   4.578  0.3815 -0.2563 -0.1478
71638SOL    HW126893   3.283   2.868   4.534 -0.2404  0.1754 -0.8025
71638SOL    HW226894   3.217   3.001   4.562  1.2287  0.9583 -0.9305
71639SOL     OW26895   1.021   9.947  11.115 -0.5051  0.0126 -0.6978
71639SOL    HW126896   0.990  10.032  11.086 -1.1509  0.5906  1.5181
71639SOL    HW226897   1.014   9.949  11.210  2.6542 -1.2812 -0.2944
71640SOL     OW26898   1.765   0.870   6.633 -0.1202 -0.0922  0.3055
71640SOL    HW126899   1.842   0.918   6.664  0.0264 -0.1417  0.0213
71640SOL    HW226900   1.709   0.938   6.594 -0.4790  0.0282  1.0045
71641SOL     OW26901   9.685   0.816   9.625  0.2545 -0.2923 -0.3850
71641SOL    HW126902   9.687   0.862   9.542 -0.6694  0.2685 -0.1039
71641SOL    HW226903   9.595   0.786   9.635 -0.3050  1.8083  1.5573
71642SOL     OW26904   2.533  11.964   3.473 -0.0136 -0.4783  0.5005
71642SOL    HW126905   2.624  11.952   3.446 -0.4466  0.3716 -1.5241
71642SOL    HW226906   2.527  12.055   3.500 -0.7073  0.1374 -1.5436
71643SOL     OW26907   9.456   4.160   4.395 -0.2431  0.4351 -0.1499
71643SOL    HW126908   9.448   4.239   4.341  1.2593  0.2993 -0.6014
71643SOL    HW226909   9.469   4.089   4.333 -0.2592  0.0143  0.3248
71644SOL     OW26910   7.956  14.012   2.393  0.1247  0.8132 -0.2782
71644SOL    HW126911   7.910  14.029   2.475  1.7259 -1.0325  1.1095
71644SOL    HW226912   8.045  14.045   2.408  0.3828  0.6440 -1.3456
71645SOL     OW26913  11.497   0.912   0.891  0.1079  0.0183  0.3755
71645SOL    HW126914  11.545   0.992   0.914  0.7529  0.2639 -1.6340
71645SOL    HW226915  11.553   0.869   0.826 -0.6425 -1.6329  0.7882
71646SOL     OW26916  12.559   9.106  10.106 -0.1357  0.1976  0.2631
71646SOL    HW126917  12.605   9.073  10.029  0.6424 -1.6437  1.4398
71646SOL    HW226918  12.623   9.162  10.150  1.2251 -2.4724  1.9736
71647SOL     OW26919   1.685   9.386   6.192  0.0849  0.4898 -0.5182
71647SOL    HW126920   1.620   9.316   6.193  0.0738  0.4813  0.8331
71647SOL    HW226921   1.637   9.463   6.223  0.9562  0.2017  1.7369
71648SOL     OW26922  11.379   0.176   7.489 -0.5490  0.3913  0.4245
71648SOL    HW126923  11.461   0.206   7.526 -0.8786  1.6240  0.1904
71648SOL    HW226924  11.341   0.119   7.556  0.1474  0.4075  0.8318
71649SOL     OW26925   7.460   2.376   9.245 -0.6161  0.3549  0.1513
71649SOL    HW126926   7.460   2.408   9.155 -0.2538 -1.0228 -0.3757
71649SOL    HW226927   7.553   2.373   9.269 -0.7618  1.6349  0.9340
71650SOL     OW26928   9.935   3.162  10.363  0.7765 -0.2444 -0.1432
71650SOL    HW126929   9.907   3.079  10.325  0.6549  0.9751 -2.9840
71650SOL    HW226930  10.031   3.157  10.364  0.7713 -0.4148 -0.3618
71651SOL     OW26931  13.906   8.340   3.275  0.4319  0.1876  0.5330
71651SOL    HW126932  13.936   8.250   3.289  2.0429  0.4884 -0.6376
71651SOL    HW226933  13.907   8.351   3.180  0.0448  1.3801  0.6501
71652SOL     OW26934  13.060   5.640   9.273  0.1603 -0.5270 -0.0716
71652SOL    HW126935  12.965   5.634   9.285 -0.0600 -0.4737 -1.5755
71652SOL    HW226936  13.071   5.654   9.179  1.5987  0.9308  0.2710
71653SOL     OW26937   9.593   9.336   0.813 -0.0479  0.1307 -0.0841
71653SOL    HW126938   9.619   9.258   0.763  0.8726  0.3921 -0.0237
71653SOL    HW226939   9.550   9.392   0.749  0.7633  0.2866 -0.5056
71654SOL     OW26940   6.681   8.560  13.788 -0.7123 -0.5536 -0.0587
71654SOL    HW126941   6.671   8.499  13.861  1.4566 -0.9907 -0.0536
71654SOL    HW226942   6.724   8.509  13.719  0.1285  0.6643 -0.4779
71655SOL     OW26943   9.038   3.477   5.423  0.4796  0.0852 -0.3483
71655SOL    HW126944   9.028   3.382   5.431 -1.1519  0.1872 -0.6287
71655SOL    HW226945   8.982   3.512   5.491 -2.2836  0.8159 -2.7737
71656SOL     OW26946   2.850  11.891   7.560 -0.0252 -0.5457  0.4390
71656SOL    HW126947   2.935  11.873   7.521  0.2456  0.2439  0.6459
71656SOL    HW226948   2.803  11.808   7.555  0.6969 -0.9441  0.1770
71657SOL     OW26949   3.601   4.409   0.518 -0.4356 -0.3395 -0.0407
71657SOL    HW126950   3.696   4.411   0.531 -0.4213 -0.1735 -0.1722
71657SOL    HW226951   3.586   4.461   0.439 -0.6205 -0.5086 -0.1175
71658SOL     OW26952   1.217   4.662  12.948  0.6299 -0.2166 -0.3264
71658SOL    HW126953   1.164   4.716  12.889 -0.8876  0.3444  1.4746
71658SOL    HW226954   1.277   4.616  12.889 -1.7301 -0.7812 -2.4908
71659SOL     OW26955   8.824   7.616   0.175 -0.4253 -0.1175 -0.0125
71659SOL    HW126956   8.879   7.678   0.126 -0.4875  0.0579  0.1358
71659SOL    HW226957   8.735   7.634   0.145 -0.2954 -1.1603 -1.0701
71660SOL     OW26958  13.994  12.780   2.891  0.3883 -0.3482 -0.0429
71660SOL    HW126959  13.999  12.703   2.835 -1.3380 -2.0171  1.9384
71660SOL    HW226960  13.913  12.824   2.863  0.8507  0.2175 -0.5103
71661SOL     OW26961   0.531   3.264  11.288 -0.3937 -0.4270  0.2792
71661SOL    HW126962   0.475   3.315  11.346 -1.7304 -0.6037 -0.8114
71661SOL    HW226963   0.610   3.248  11.340 -1.5271 -0.5891  2.0679
71662SOL     OW26964  10.529   2.886  11.112 -0.0468  0.1633  0.5158
71662SOL    HW126965  10.546   2.960  11.171  4.1205  0.3639 -0.6076
71662SOL    HW226966  10.537   2.809  11.168  2.6622  0.4010  0.5741
71663SOL     OW26967  10.286  10.881   9.744  0.6222 -0.1066 -0.1154
71663SOL    HW126968  10.320  10.800   9.707  0.2640 -0.4073  0.1937
71663SOL    HW226969  10.348  10.949   9.718  0.8203 -0.4502 -0.5401
71664SOL     OW26970   0.939   7.285  12.853 -0.0376  0.6576  0.1095
71664SOL    HW126971   0.921   7.376  12.832  2.4202  0.9746 -1.0091
71664SOL    HW226972   1.034   7.276  12.841 -0.3341 -2.2918 -0.8939
71665SOL     OW26973  10.226   0.179   4.214  0.1340 -0.4406 -0.1861
71665SOL    HW126974  10.309   0.176   4.167 -0.7722  0.5708 -1.9583
71665SOL    HW226975  10.160   0.154   4.149 -0.9124 -2.1659  1.4214
71666SOL     OW26976   9.946  10.588   1.824 -0.7291 -0.1737 -0.2109
71666SOL    HW126977   9.984  10.600   1.737 -1.3964  0.5696 -0.4112
71666SOL    HW226978  10.007  10.630   1.883 -1.1525  0.9076 -0.5183
71667SOL     OW26979   5.721   4.789   7.827 -0.6882  0.1289  0.4553
71667SOL    HW126980   5.767   4.795   7.911 -0.5299  0.2174  0.3633
71667SOL    HW226981   5.636   4.750   7.848  0.1016 -1.7118  0.3605
71668SOL     OW26982  12.525  10.731  11.735 -0.2791  0.8972 -0.1085
71668SOL    HW126983  12.508  10.714  11.642 -2.0729  0.4910  0.2559
71668SOL    HW226984  12.577  10.656  11.764 -2.2661 -0.5321 -0.1137
71669SOL     OW26985   4.149  10.004   0.143 -0.0293  0.2656  0.0945
71669SOL    HW126986   4.158   9.933   0.079 -1.1480 -1.9747  2.2632
71669SOL    HW226987   4.055  10.010   0.159  0.1256  1.6983  0.5876
71670SOL     OW26988   3.945   7.458   7.473  0.0481 -0.2335  0.3432
71670SOL    HW126989   3.858   7.423   7.493  0.4773 -1.3805  0.2956
71670SOL    HW226990   3.974   7.499   7.554 -1.0079  1.2051  0.0160
71671SOL     OW26991   4.124   6.360  10.758  0.3242 -0.2650  0.2925
71671SOL    HW126992   4.129   6.358  10.853  1.0932  1.4941  0.3312
71671SOL    HW226993   4.071   6.284  10.735  0.2140 -0.7846  2.1030
71672SOL     OW26994   8.321   4.131   9.974  0.0508  0.0709  0.1152
71672SOL    HW126995   8.248   4.187  10.000 -1.5397 -1.4656 -0.8640
71672SOL    HW226996   8.281   4.048   9.949  2.1978 -1.0507  0.1196
71673SOL     OW26997  11.161  13.547   0.613  0.0466  0.1617 -0.0765
71673SOL    HW126998  11.229  13.508   0.557  0.8781  0.7570  0.4828
71673SOL    HW226999  11.209  13.611   0.666 -1.2464  1.8429 -0.8600
71674SOL     OW27000   7.638   7.327   2.455 -0.4225 -0.1240 -0.4939
71674SOL    HW127001   7.688   7.382   2.514 -1.3075  0.3991 -0.2067
71674SOL    HW227002   7.606   7.255   2.509 -0.9601  0.1808 -0.3938
71675SOL     OW27003   6.709   5.450   0.509  1.0384 -0.2902  0.1373
71675SOL    HW127004   6.790   5.400   0.521  1.3828  0.7122  2.8281
71675SOL    HW227005   6.657   5.431   0.588 -0.5836  0.4536 -0.6951
71676SOL     OW27006  12.243   2.743  12.280  0.0289 -0.7713  0.1208
71676SOL    HW127007  12.169   2.693  12.315 -1.9331  1.4139 -0.6526
71676SOL    HW227008  12.288   2.682  12.222 -1.9203 -1.8254 -0.3648
71677SOL     OW27009   7.746  13.197   8.674 -0.6624 -0.3695 -0.2232
71677SOL    HW127010   7.756  13.257   8.748  0.8241 -2.2379  1.2199
71677SOL    HW227011   7.740  13.254   8.597 -0.2602  1.6241  1.1436
71678SOL     OW27012   1.687  11.621  12.506 -0.4916 -0.3057 -0.0286
71678SOL    HW127013   1.695  11.664  12.420  0.4866 -0.7884 -0.1915
71678SOL    HW227014   1.618  11.671  12.551 -0.7959  0.1585 -0.9661
71679SOL     OW27015  10.103   8.519  12.060  0.0957 -0.0319 -0.4519
71679SOL    HW127016  10.163   8.591  12.043  0.3336 -0.2608 -0.6005
71679SOL    HW227017  10.090   8.520  12.155  0.0400  0.2480 -0.4612
71680SOL     OW27018  11.081   9.165  13.967  1.0720 -0.2718  0.2031
71680SOL    HW127019  11.145   9.158  13.897  0.6290  0.1825 -0.2613
71680SOL    HW227020  11.039   9.250  13.952  1.3507  0.0895  1.3499
71681SOL     OW27021  11.013  12.066   6.449 -0.0590 -0.1489 -0.1566
71681SOL    HW127022  10.966  12.132   6.397  0.2166  1.1049  1.1173
71681SOL    HW227023  11.015  11.989   6.393 -2.3002  0.2213 -0.8580
71682SOL     OW27024   4.039   9.155  13.560 -0.3600  0.3644 -0.4383
71682SOL    HW127025   3.989   9.126  13.637  0.0772 -0.0547 -0.3072
71682SOL    HW227026   4.002   9.240  13.538 -0.9157  0.2036 -0.1448
71683SOL     OW27027  12.490   3.804  13.060  0.6467 -0.0785  0.6049
71683SOL    HW127028  12.417   3.801  13.123 -1.7084 -0.9166 -1.9790
71683SOL    HW227029  12.504   3.898  13.045 -2.4987  0.2040 -1.4807
71684SOL     OW27030   0.143  10.009   4.425  0.2066 -0.4916  0.4122
71684SOL    HW127031   0.107   9.955   4.355 -0.6517 -0.0224  0.4823
71684SOL    HW227032   0.197   9.949   4.476  0.4223 -0.9531 -0.3461
71685SOL     OW27033   9.850   6.390   0.281  0.3200 -0.4561  0.2176
71685SOL    HW127034   9.818   6.312   0.327  2.3951 -0.4469  1.8352
71685SOL    HW227035   9.880   6.448   0.351  3.3571 -0.3006 -1.0423
71686SOL     OW27036   4.823   0.601   5.948 -0.0763 -0.8579  0.3063
71686SOL    HW127037   4.840   0.544   5.874  1.2528  0.3974 -0.4254
71686SOL    HW227038   4.769   0.671   5.912 -1.1136 -1.2779  1.0210
71687SOL     OW27039   2.084   2.550  13.418  0.0275 -0.1449 -0.7991
71687SOL    HW127040   2.125   2.633  13.442  0.2333 -0.5528  0.3358
71687SOL    HW227041   2.140   2.515  13.349 -1.6251  1.9439 -3.3950
71688SOL     OW27042   5.462   2.168   9.107 -0.8231  0.0826  0.1115
71688SOL    HW127043   5.531   2.234   9.104 -1.4832  0.7577 -1.9372
71688SOL    HW227044   5.458   2.133   9.018 -2.4524 -0.6430  0.4234
71689SOL     OW27045   5.046   7.682  11.200  0.2171 -0.0924  0.1434
71689SOL    HW127046   5.075   7.747  11.265 -0.0249  0.6532 -0.4802
71689SOL    HW227047   5.030   7.603  11.252  2.4731 -0.2890  0.6392
71690SOL     OW27048  11.406   3.679  11.751 -0.3344  0.0450  0.2448
71690SOL    HW127049  11.365   3.759  11.783  0.8977 -0.1570  2.5746
71690SOL    HW227050  11.333   3.620  11.733 -1.1726  0.5923  1.6870
71691SOL     OW27051  11.421   4.278   5.085 -0.0044  0.2700  0.2506
71691SOL    HW127052  11.353   4.344   5.100 -0.3278  0.5065 -1.9270
71691SOL    HW227053  11.380   4.195   5.109 -1.5210  0.2773 -1.9412
71692SOL     OW27054   4.916  13.163  13.802  0.4089  0.3386 -0.4245
71692SOL    HW127055   4.905  13.114  13.720 -1.8138 -0.9693  0.5561
71692SOL    HW227056   5.005  13.144  13.830  0.5761 -0.7106 -1.5897
71693SOL     OW27057   1.468   0.130   8.661  0.3075 -0.2357 -0.3409
71693SOL    HW127058   1.554   0.124   8.620  0.4958  0.6816 -0.1010
71693SOL    HW227059   1.442   0.040   8.677 -0.3250 -0.7656 -3.6029
71694SOL     OW27060   2.543   0.463  11.027 -0.1403  0.6683 -0.2627
71694SOL    HW127061   2.610   0.429  11.085 -2.6344 -2.3154  1.1539
71694SOL    HW227062   2.561   0.557  11.021  2.9417  0.3112  1.5141
71695SOL     OW27063  11.287   0.437   2.598  0.0487  0.9912 -0.2474
71695SOL    HW127064  11.350   0.445   2.526  1.1057 -0.0788  0.5208
71695SOL    HW227065  11.335   0.468   2.675  0.0517 -0.8401  0.5389
71696SOL     OW27066   9.848   2.706   6.525 -0.1985  0.4649  0.2918
71696SOL    HW127067   9.888   2.639   6.469  0.8617 -0.0409  1.5946
71696SOL    HW227068   9.787   2.752   6.467 -1.2136 -1.8175 -0.5925
71697SOL     OW27069   0.125  11.980   7.752  0.0223  0.1247  0.5204
71697SOL    HW127070   0.127  12.028   7.669  1.2985 -0.4233  0.2041
71697SOL    HW227071   0.059  12.025   7.804 -0.9296  0.3751 -0.8523
71698SOL     OW27072   8.773  10.383   3.501 -0.9905  0.1810  0.2459
71698SOL    HW127073   8.837  10.382   3.572 -0.5919 -0.5804 -0.1155
71698SOL    HW227074   8.788  10.467   3.457  3.1720 -1.7960 -2.8204
71699SOL     OW27075  12.859   3.073   5.618  0.2432  0.6154 -0.5501
71699SOL    HW127076  12.811   3.151   5.645  0.0820  0.2174  0.3802
71699SOL    HW227077  12.815   3.001   5.664  2.0803  0.3072  0.8539
71700SOL     OW27078  14.015  10.725   5.908  0.0519 -0.2848  0.1103
71700SOL    HW127079  13.969  10.724   5.824 -1.1289 -1.4416  0.7261
71700SOL    HW227080  14.036  10.633   5.924 -2.0952 -0.4928  2.2768
71701SOL     OW27081   0.758   7.030  13.956 -0.1896  0.0785 -0.0470
71701SOL    HW127082   0.675   7.051  13.912  0.5996 -0.6942 -2.0000
71701SOL    HW227083   0.824   7.082  13.909  0.8118 -1.4381 -0.3763
71702SOL     OW27084   3.687   4.477   8.580  0.2684 -0.3215 -0.2815
71702SOL    HW127085   3.667   4.530   8.503 -1.7215 -0.6571 -0.0610
71702SOL    HW227086   3.725   4.539   8.642  0.1282  0.3520 -0.8438
71703SOL     OW27087   9.902   3.962   9.296  0.1162 -0.0141 -0.6147
71703SOL    HW127088   9.918   3.967   9.390 -0.7697  2.1503 -0.5403
71703SOL    HW227089   9.956   3.887   9.267  2.2295  0.6835  1.2055
71704SOL     OW27090   1.222   1.708  13.659 -0.0855 -0.3448 -0.1506
71704SOL    HW127091   1.159   1.644  13.625  1.1621 -2.4643  1.2282
71704SOL    HW227092   1.301   1.656  13.676  1.2797  1.7623  0.3156
71705SOL     OW27093   0.274   6.994   3.956  0.3336  0.1333 -0.4538
71705SOL    HW127094   0.338   7.036   4.013 -0.7933  0.8360  0.3394
71705SOL    HW227095   0.206   6.961   4.015  0.3147 -1.2705 -1.2102
71706SOL     OW27096   6.849   1.182   3.378  0.7011 -0.1443  0.0917
71706SOL    HW127097   6.933   1.135   3.376  0.9357 -0.0422  3.1569
71706SOL    HW227098   6.825   1.185   3.471 -2.0235  1.0727 -0.5533
71707SOL     OW27099   5.475   8.599   4.332 -0.2233  0.1696  0.1295
71707SOL    HW127100   5.555   8.630   4.375 -0.7144 -0.2918  1.4246
71707SOL    HW227101   5.417   8.575   4.404 -1.6070  0.6581 -0.7851
71708SOL     OW27102  10.764   6.150  11.606 -0.2784 -0.8561  0.3887
71708SOL    HW127103  10.722   6.068  11.579 -0.4142 -1.2127  1.6315
71708SOL    HW227104  10.804   6.183  11.526  0.7341 -2.7133  0.0606
71709SOL     OW27105   4.260   0.254  11.722 -0.3133  0.2200 -0.6322
71709SOL    HW127106   4.326   0.244  11.654 -0.4851  1.5878 -1.0104
71709SOL    HW227107   4.176   0.255  11.675 -0.6507 -1.5960 -0.1532
71710SOL     OW27108   5.709   4.100   0.005  0.3915  0.1133 -0.4308
71710SOL    HW127109   5.747   4.183  -0.026  1.4389  0.4110  1.4696
71710SOL    HW227110   5.669   4.123   0.089 -3.0197 -0.4848 -1.7754
71711SOL     OW27111   7.269   8.484  10.792  0.2740  0.8620 -0.5330
71711SOL    HW127112   7.286   8.576  10.815  1.9115  0.6343 -0.7152
71711SOL    HW227113   7.304   8.475  10.703 -0.2735  0.1654 -0.6844
71712SOL     OW27114  11.507   6.569   3.042  0.2843 -0.2071 -0.4098
71712SOL    HW127115  11.557   6.613   2.973  2.0567 -1.1102  0.2251
71712SOL    HW227116  11.521   6.623   3.120 -1.3358  0.5617 -0.6126
71713SOL     OW27117   4.070   6.801   9.982  0.1440 -0.4284  0.1886
71713SOL    HW127118   4.102   6.843   9.902  1.3588  0.4107  1.0814
71713SOL    HW227119   3.976   6.819   9.981  0.3808  0.9791 -0.2607
71714SOL     OW27120   0.217   0.952   9.214  0.4094 -0.3010 -0.3192
71714SOL    HW127121   0.305   0.980   9.189  0.8221 -0.2145  1.1344
71714SOL    HW227122   0.159   1.010   9.165  1.2189  2.8771  2.1452
71715SOL     OW27123   8.480   8.711   5.325 -0.5467 -0.0088  0.6045
71715SOL    HW127124   8.510   8.798   5.351 -0.6704 -0.0497  0.8947
71715SOL    HW227125   8.393   8.703   5.363 -0.7773 -0.0304  0.0757
71716SOL     OW27126   6.756  11.891  13.098 -0.5651 -0.0547  0.1536
71716SOL    HW127127   6.842  11.932  13.087  0.3569 -1.4620  1.6836
71716SOL    HW227128   6.706  11.919  13.021  1.7139 -0.3284 -1.5320
71717SOL     OW27129   3.360   4.341   0.624 -0.3325 -0.1352  0.7758
71717SOL    HW127130   3.440   4.359   0.575  0.0568 -2.0500  0.6334
71717SOL    HW227131   3.294   4.324   0.556 -0.2958 -0.7715  0.8939
71718SOL     OW27132   9.304   9.130  11.106  0.1653 -0.2776 -0.2632
71718SOL    HW127133   9.275   9.062  11.046 -0.1838 -0.2767 -0.0981
71718SOL    HW227134   9.389   9.158  11.072 -0.8234  1.0067 -1.8435
71719SOL     OW27135   4.517   9.139   7.023  0.2393 -0.8826  0.5084
71719SOL    HW127136   4.460   9.211   7.047 -0.4843 -1.3838  0.3276
71719SOL    HW227137   4.566   9.171   6.947 -1.2282 -1.1286 -0.5810
71720SOL     OW27138   9.831  13.275  10.938  0.6262  0.3118  0.0771
71720SOL    HW127139   9.890  13.234  10.874  0.5681 -0.6721  0.6355
71720SOL    HW227140   9.889  13.312  11.004  0.6670 -1.7433  1.2969
71721SOL     OW27141   9.925   1.946   1.312  0.0552 -0.2026 -0.3080
71721SOL    HW127142  10.011   1.950   1.270 -0.7192  0.6074 -1.9143
71721SOL    HW227143   9.934   1.996   1.393  1.2574 -0.6878 -0.1304
71722SOL     OW27144  13.463   3.026  13.856  0.0372  0.1058 -0.1872
71722SOL    HW127145  13.450   2.985  13.942  2.2968 -0.1541  0.0841
71722SOL    HW227146  13.415   2.969  13.796 -2.8435  1.1100  1.0018
71723SOL     OW27147   2.011   2.382   6.369 -0.0518 -0.3762 -0.0290
71723SOL    HW127148   1.983   2.472   6.352  0.3881 -0.2543 -0.1132
71723SOL    HW227149   1.994   2.337   6.286  2.3910  0.2946 -0.9725
71724SOL     OW27150   3.206  12.228   6.064  0.2519  0.2133 -0.0572
71724SOL    HW127151   3.126  12.197   6.021  0.7937  0.6324 -1.4356
71724SOL    HW227152   3.220  12.316   6.028  0.9023  0.4717  0.7840
71725SOL     OW27153   8.471   0.979   6.119 -0.6167  0.2789 -0.3344
71725SOL    HW127154   8.544   0.931   6.080 -1.8155  0.5037 -3.0932
71725SOL    HW227155   8.512   1.051   6.167  0.9851 -0.1626 -0.9935
71726SOL     OW27156  11.055   4.033   7.427  0.2038  0.3285 -0.5581
71726SOL    HW127157  11.014   3.949   7.444 -0.7333  1.3012  2.6849
71726SOL    HW227158  11.033   4.052   7.336 -2.1364 -1.5568 -0.4959
71727SOL     OW27159   6.039   9.378   8.396  0.3780  0.4166 -0.3252
71727SOL    HW127160   6.047   9.283   8.388  3.3425  0.4850  0.5641
71727SOL    HW227161   6.028   9.393   8.490  2.7679  0.9550 -0.0524
71728SOL     OW27162   6.416  12.545   3.494  0.6232  0.6517  0.5689
71728SOL    HW127163   6.375  12.604   3.557 -1.3794  1.0700 -1.0283
71728SOL    HW227164   6.461  12.602   3.432 -1.1535  0.5605 -0.8679
71729SOL     OW27165   5.676   4.215   9.488 -0.2496  0.0237 -0.4151
71729SOL    HW127166   5.735   4.198   9.415  0.3213 -1.8704  0.4106
71729SOL    HW227167   5.667   4.310   9.491  1.9976  0.3280 -1.1778
71730SOL     OW27168   0.847   1.368   5.727  0.1144 -0.3721  0.5288
71730SOL    HW127169   0.869   1.316   5.804  0.6275  1.2585  1.5387
71730SOL    HW227170   0.751   1.372   5.729  0.0801 -1.0687  0.5695
71731SOL     OW27171   0.462   6.743   8.159 -0.0893 -0.0023  0.8488
71731SOL    HW127172   0.556   6.728   8.151  0.3801  2.1388  1.7505
71731SOL    HW227173   0.447   6.824   8.111 -1.1476  0.6292  2.1871
71732SOL     OW27174   7.812  12.322   9.882  0.2962 -0.2096  0.2768
71732SOL    HW127175   7.883  12.259   9.894  0.2206 -0.4597 -0.5384
71732SOL    HW227176   7.732  12.270   9.895  0.2186 -0.4442 -1.0706
71733SOL     OW27177  12.112   3.953  13.452  0.1138  0.4042 -0.7181
71733SOL    HW127178  12.054   4.027  13.469  0.2595  0.2714  0.4305
71733SOL    HW227179  12.197   3.980  13.487 -0.0194 -0.5923  0.4426
71734SOL     OW27180  12.494   9.472  11.976  0.2855 -0.0012 -0.5643
71734SOL    HW127181  12.432   9.528  12.022  1.9095 -1.5736  4.1245
71734SOL    HW227182  12.446   9.391  11.960  0.3206 -0.3165  0.7727
71735SOL     OW27183   1.736  12.672   3.392  0.1770  0.1255 -0.2073
71735SOL    HW127184   1.820  12.641   3.359  1.1995 -0.4533  2.6235
71735SOL    HW227185   1.759  12.734   3.462 -1.7494  0.3497  0.2798
71736SOL     OW27186   1.240   7.930  10.366 -0.2984 -0.5330 -0.0161
71736SOL    HW127187   1.224   7.872  10.292  0.5621 -0.2097 -0.4721
71736SOL    HW227188   1.299   7.881  10.424  0.6770 -0.0303 -0.5492
71737SOL     OW27189   8.326   7.002  13.528  0.9582 -0.2304 -1.1295
71737SOL    HW127190   8.339   6.929  13.589 -0.5540  0.3236 -0.0864
71737SOL    HW227191   8.406   7.003  13.475  2.0674 -1.1192  0.4252
71738SOL     OW27192  10.116  11.617   6.197  0.2162  0.7864  0.6418
71738SOL    HW127193  10.107  11.614   6.292  0.1658  2.4251  0.7171
71738SOL    HW227194  10.054  11.684   6.168  0.8989  0.9858 -0.4464
71739SOL     OW27195   0.038   5.050   9.564 -0.3190 -0.3165  0.3222
71739SOL    HW127196   0.028   5.144   9.545  0.1835 -0.0730  1.2314
71739SOL    HW227197   0.023   5.042   9.658 -0.8433 -1.2318  0.1725
71740SOL     OW27198   2.437   1.043   1.062  0.1994  0.3587 -0.3498
71740SOL    HW127199   2.391   0.967   1.025  0.7038  0.3132 -0.9007
71740SOL    HW227200   2.380   1.074   1.132  0.1387 -0.7352  0.1143
71741SOL     OW27201  12.985   0.670  11.871  0.1331  0.0573 -0.5034
71741SOL    HW127202  12.915   0.733  11.889  0.8850  0.6897  0.3000
71741SOL    HW227203  12.994   0.669  11.776 -2.0482 -1.2414 -0.7710
71742SOL     OW27204   3.342   5.498  12.791 -0.0886  0.0533  0.3261
71742SOL    HW127205   3.388   5.577  12.760  3.2136 -1.2995  1.3080
71742SOL    HW227206   3.405   5.457  12.850 -2.4355 -2.3938  1.2780
71743SOL     OW27207   6.484  10.516   6.727  0.5037 -0.6201  0.8753
71743SOL    HW127208   6.579  10.527   6.732  0.7355  0.6377 -3.1437
71743SOL    HW227209   6.449  10.604   6.743  0.2224 -0.5069 -0.3020
71744SOL     OW27210   4.641   2.636  12.207  0.1001  0.0223  0.2339
71744SOL    HW127211   4.726   2.637  12.251  1.2313  2.2184 -1.7375
71744SOL    HW227212   4.624   2.728  12.187 -2.7045 -0.3750  0.4023
71745SOL     OW27213  11.665  12.316  12.858 -0.6356 -0.2947  0.3958
71745SOL    HW127214  11.631  12.394  12.814 -0.9080 -0.2927  0.6041
71745SOL    HW227215  11.750  12.343  12.893 -0.8886  0.0146  0.7728
71746SOL     OW27216   8.320  12.965   1.799  0.4565 -0.7933  0.3599
71746SOL    HW127217   8.345  12.963   1.892  1.0252 -0.6975  0.2136
71746SOL    HW227218   8.251  12.899   1.791 -0.0875 -0.3160  0.9874
71747SOL     OW27219   7.127   9.560  12.031  0.3208  0.2633 -0.0307
71747SOL    HW127220   7.088   9.473  12.018  0.1394  0.3805 -0.2980
71747SOL    HW227221   7.204   9.561  11.974  0.7781 -0.0048  0.5755
71748SOL     OW27222   7.466   3.219   9.642  0.1215 -0.7201 -0.1799
71748SOL    HW127223   7.508   3.133   9.653 -0.3622 -0.7220  1.9254
71748SOL    HW227224   7.402   3.204   9.572  1.3928 -1.5215 -1.2470
71749SOL     OW27225   1.349  12.519   5.262  0.0918 -0.5220 -0.5443
71749SOL    HW127226   1.422  12.572   5.294  0.4130 -1.5213  0.4471
71749SOL    HW227227   1.316  12.474   5.340 -0.7467 -1.0852 -1.2056
71750SOL     OW27228   9.208  13.313   6.005 -0.3088 -0.2649  0.0840
71750SOL    HW127229   9.252  13.261   5.938 -0.4903  0.1879 -0.3962
71750SOL    HW227230   9.198  13.400   5.965 -0.2560  0.0613  0.7667
71751SOL     OW27231   1.294   6.286  13.645  0.0959 -0.0580 -0.1280
71751SOL    HW127232   1.317   6.263  13.555  0.5341  0.8737 -0.2641
71751SOL    HW227233   1.239   6.214  13.675  1.9084 -1.5896 -0.3307
71752SOL     OW27234  13.847   2.803   5.589  0.1472 -0.0290 -0.4133
71752SOL    HW127235  13.820   2.885   5.631  2.6466  1.7460 -2.0310
71752SOL    HW227236  13.922   2.827   5.534  0.9373 -3.4084 -1.0353
71753SOL     OW27237   1.239   7.348   4.966 -0.4315 -0.1567  0.0289
71753SOL    HW127238   1.238   7.263   4.921  1.1464  0.0954 -0.5661
71753SOL    HW227239   1.261   7.326   5.057 -0.6132 -0.4385  0.0059
71754SOL     OW27240   5.096   1.649  13.986 -0.3866  0.0887 -0.0197
71754SOL    HW127241   5.062   1.594  13.915  2.4306 -2.5421  0.4557
71754SOL    HW227242   5.077   1.599  14.065  1.3809  0.2098  0.5248
71755SOL     OW27243  13.624  11.055   6.979  0.0214  0.0258 -0.3334
71755SOL    HW127244  13.632  11.150   6.980 -0.5294  0.0754 -0.3582
71755SOL    HW227245  13.547  11.037   7.033  1.2483 -0.5249  1.3453
71756SOL     OW27246  10.304   5.595   0.179 -0.1916  0.4009  0.3910
71756SOL    HW127247  10.234   5.591   0.114  0.9906 -0.4349 -0.8807
71756SOL    HW227248  10.381   5.559   0.134  0.4806 -0.9617  2.5217
71757SOL     OW27249   2.211   0.067   9.433 -0.6119 -0.5065  0.1173
71757SOL    HW127250   2.137   0.124   9.451  2.8902  4.9206 -0.1691
71757SOL    HW227251   2.217   0.009   9.508 -3.5007  0.7444  1.4329
71758SOL     OW27252   5.888  12.828   7.644 -0.1483  0.3077 -0.3552
71758SOL    HW127253   5.885  12.840   7.739  0.4774  2.4357 -0.5511
71758SOL    HW227254   5.905  12.735   7.632 -0.5547 -0.0692  1.6039
71759SOL     OW27255  13.123   7.394  10.309 -0.1552  0.2922  0.1858
71759SOL    HW127256  13.116   7.299  10.302  0.7801  0.1536  0.8779
71759SOL    HW227257  13.079   7.416  10.391 -0.0334  0.4041  0.2227
71760SOL     OW27258   8.171   0.236   8.502 -0.6477  0.4165  0.2334
71760SOL    HW127259   8.143   0.234   8.410  0.8052 -1.8225 -0.2539
71760SOL    HW227260   8.258   0.276   8.500  1.0921 -3.0021 -0.0575
71761SOL     OW27261   2.521   5.392   1.939 -0.5140  0.5004 -0.4324
71761SOL    HW127262   2.445   5.354   1.896 -0.7224 -0.6704  0.9027
71761SOL    HW227263   2.490   5.477   1.972 -0.0187  2.0094 -3.5119
71762SOL     OW27264   7.280   3.466  13.715  0.2637 -0.0325  0.1094
71762SOL    HW127265   7.227   3.473  13.636 -0.2320 -0.8549  0.3528
71762SOL    HW227266   7.226   3.417  13.776  0.9424 -0.0789  0.6913
71763SOL     OW27267   1.491   3.009   9.326  0.4132 -0.0136  0.4260
71763SOL    HW127268   1.513   3.064   9.401  2.0788  3.6461 -2.4684
71763SOL    HW227269   1.570   2.958   9.309  0.2987 -0.2812  0.6897
71764SOL     OW27270   2.907   7.964   2.694 -0.1566  0.2555  0.0342
71764SOL    HW127271   2.841   7.922   2.750 -0.0105  1.5738  1.2590
71764SOL    HW227272   2.980   7.982   2.754  0.3233  1.0091 -0.7636
71765SOL     OW27273   3.689   6.444   8.468  0.3009  0.3049 -0.2286
71765SOL    HW127274   3.606   6.473   8.506 -0.0695 -0.0651 -0.7380
71765SOL    HW227275   3.725   6.522   8.428  2.1125  1.4835  3.2487
71766SOL     OW27276   4.183   1.725  13.872  0.2624 -0.4714  0.2822
71766SOL    HW127277   4.253   1.720  13.937  0.2885  1.0410  0.3964
71766SOL    HW227278   4.196   1.647  13.818  0.6329 -1.4179  1.6780
71767SOL     OW27279  13.142   2.398   1.228 -0.2916 -0.4594 -0.3740
71767SOL    HW127280  13.206   2.434   1.290 -1.6706  0.9098  0.3304
71767SOL    HW227281  13.113   2.317   1.269  0.0768 -0.4490 -0.0793
71768SOL     OW27282  11.551   3.207  12.952 -0.2490 -0.3763  0.4068
71768SOL    HW127283  11.502   3.286  12.932 -1.3073 -0.5170  2.2436
71768SOL    HW227284  11.529   3.187  13.043  1.5070 -1.7027  0.6002
71769SOL     OW27285   3.059   0.922  13.496  0.1349  0.5687 -0.1578
71769SOL    HW127286   3.004   0.910  13.573 -0.9404  0.0436 -0.9793
71769SOL    HW227287   3.016   0.870  13.428  0.6294  1.6383 -1.3142
71770SOL     OW27288   9.729   6.391   2.541 -0.3789 -0.2262  0.3570
71770SOL    HW127289   9.761   6.301   2.553 -0.9404 -0.5090 -0.1978
71770SOL    HW227290   9.806   6.440   2.512 -0.4550 -0.9376 -1.1495
71771SOL     OW27291   9.234   5.626  13.632 -0.2295 -0.7297  0.7786
71771SOL    HW127292   9.215   5.564  13.702 -2.0740 -1.1312 -0.0164
71771SOL    HW227293   9.159   5.686  13.632 -0.0562 -0.4871 -0.5663
71772SOL     OW27294   3.415   9.285  12.858 -0.2942 -0.8471 -0.0141
71772SOL    HW127295   3.341   9.244  12.815  1.1436 -1.6087 -1.8864
71772SOL    HW227296   3.452   9.344  12.792 -0.5346  1.2907  1.6365
71773SOL     OW27297   2.463   1.999   3.909  0.0559 -0.3078 -0.2736
71773SOL    HW127298   2.449   2.088   3.942  0.9821 -0.3817  0.3455
71773SOL    HW227299   2.542   2.006   3.855 -0.5176 -0.5270 -1.1604
71774SOL     OW27300  10.676   8.741   8.090  0.1547  0.4456 -0.3009
71774SOL    HW127301  10.651   8.768   8.002  0.0908 -2.2227 -1.2027
71774SOL    HW227302  10.659   8.646   8.091  0.4499  0.3552  2.4860
71775SOL     OW27303   4.635   7.287   5.283 -0.7025  0.3510 -0.2049
71775SOL    HW127304   4.580   7.360   5.312 -0.2491  0.3444  0.6902
71775SOL    HW227305   4.603   7.212   5.332 -0.0019  0.3138  0.2039
71776SOL     OW27306  11.731   2.917   0.372 -0.4016 -0.0329  0.5410
71776SOL    HW127307  11.761   2.997   0.414 -1.7708  0.3363  0.8695
71776SOL    HW227308  11.661   2.945   0.313  0.5801 -0.7180 -1.0079
71777SOL     OW27309  12.681   0.832   4.616 -0.0262  0.0760  0.3193
71777SOL    HW127310  12.637   0.748   4.601 -0.2130  0.3727 -0.8914
71777SOL    HW227311  12.610   0.894   4.627  0.1009 -0.1325  2.6760
71778SOL     OW27312   1.910   9.157  12.201 -0.0818  0.2259 -0.5745
71778SOL    HW127313   1.957   9.144  12.283 -0.4372 -0.3764 -0.4535
71778SOL    HW227314   1.819   9.138  12.223 -0.1151 -0.3966 -1.2054
71779SOL     OW27315   9.269  10.064   6.727  0.5865 -0.4802 -0.3739
71779SOL    HW127316   9.361  10.076   6.705  0.1645  2.3934 -0.8766
71779SOL    HW227317   9.242  10.147   6.765 -1.7163 -1.3944  0.1286
71780SOL     OW27318  13.371   5.364  13.046  0.3053  0.0422  0.7301
71780SOL    HW127319  13.358   5.444  12.995  0.5009  0.2631  1.0241
71780SOL    HW227320  13.441   5.317  13.000 -0.1579 -0.2026  0.2700
71781SOL     OW27321  13.258   3.481   6.137  0.4846  0.2342 -0.1436
71781SOL    HW127322  13.240   3.409   6.197  1.3056  1.4821  1.7014
71781SOL    HW227323  13.179   3.489   6.085 -0.2576 -0.9290  0.7541
71782SOL     OW27324  12.188   1.098   8.537  0.1083  0.6200  0.2141
71782SOL    HW127325  12.265   1.045   8.558  1.0894  1.4607 -1.1141
71782SOL    HW227326  12.157   1.130   8.621  0.3680 -0.8499  0.9078
71783SOL     OW27327   6.739   3.664  10.972 -0.1700  0.4172 -0.0894
71783SOL    HW127328   6.746   3.598  10.903  0.2207  1.6531 -1.2817
71783SOL    HW227329   6.645   3.675  10.986 -0.2297 -1.7129  1.4708
71784SOL     OW27330   1.525  13.838   1.196 -0.3489 -0.4437  0.1291
71784SOL    HW127331   1.551  13.928   1.178 -1.0222 -0.5411 -1.4677
71784SOL    HW227332   1.438  13.844   1.234 -0.7748 -0.4500 -0.8237
71785SOL     OW27333   8.474   6.590   7.202  0.5467 -0.1164 -0.0911
71785SOL    HW127334   8.542   6.525   7.223  0.6586  0.5403  1.7483
71785SOL    HW227335   8.395   6.538   7.188  0.2472 -0.6333  2.9723
71786SOL     OW27336   2.490   9.946   8.843 -0.4831  0.0855  0.2849
71786SOL    HW127337   2.482  10.041   8.844 -0.1344  0.1233 -0.0527
71786SOL    HW227338   2.417   9.917   8.787  1.0434  0.3622 -2.0011
71787SOL     OW27339   7.000   6.771   5.492  0.2088 -0.8540 -0.3615
71787SOL    HW127340   7.082   6.723   5.476  0.9555  0.5022 -0.7032
71787SOL    HW227341   6.955   6.718   5.558  1.2415 -1.7617 -0.3475
71788SOL     OW27342  10.290   0.776   3.470 -0.4124 -0.3485  0.6865
71788SOL    HW127343  10.228   0.719   3.425 -0.6648  0.2139  0.3081
71788SOL    HW227344  10.272   0.762   3.563 -2.0618  0.8116  0.5867
71789SOL     OW27345   1.912   6.935   6.388  0.2303  0.3437  0.1509
71789SOL    HW127346   1.936   6.843   6.399  0.2291  0.2031 -0.8975
71789SOL    HW227347   1.847   6.934   6.318 -1.9060  0.8662  2.0251
71790SOL     OW27348   3.808   7.786  13.533  0.5872 -0.3350 -0.1154
71790SOL    HW127349   3.883   7.746  13.576  0.7774 -2.2943 -2.1050
71790SOL    HW227350   3.845   7.858  13.482  1.2556 -1.5845 -1.4640
71791SOL     OW27351   2.322  12.476   7.220 -0.1426  0.2644  0.0584
71791SOL    HW127352   2.351  12.442   7.305 -0.1285 -1.8238 -0.7287
71791SOL    HW227353   2.258  12.411   7.189 -0.7331  1.3952 -1.1860
71792SOL     OW27354   2.931   9.326   4.937  0.5817 -0.0261 -0.3663
71792SOL    HW127355   2.985   9.306   5.014 -1.7433  0.5312  1.5208
71792SOL    HW227356   2.928   9.421   4.933  0.2997 -0.0512 -0.8699
71793SOL     OW27357   1.873   9.088   6.747  0.2818 -0.6184 -0.6856
71793SOL    HW127358   1.894   9.179   6.771 -0.3971 -0.9409  1.3286
71793SOL    HW227359   1.956   9.053   6.714  0.8880  0.3708 -0.2713
71794SOL     OW27360   9.309   0.196   5.111 -0.1726 -0.4892 -0.3648
71794SOL    HW127361   9.285   0.260   5.044  0.1321 -2.5049 -2.5340
71794SOL    HW227362   9.404   0.198   5.113 -0.1735 -0.6423 -0.1793
71795SOL     OW27363   1.843   0.254   0.563  0.6059  0.0217  0.1160
71795SOL    HW127364   1.796   0.232   0.483  1.3662 -0.5534 -0.1876
71795SOL    HW227365   1.795   0.209   0.632  1.3793 -1.6086 -0.3419
71796SOL     OW27366  11.048  10.462   5.772 -0.2194 -0.4615  0.3461
71796SOL    HW127367  11.142  10.448   5.762 -0.1667 -0.2079  0.4968
71796SOL    HW227368  11.028  10.536   5.715 -0.4570 -0.9695 -0.2432
71797SOL     OW27369   9.293  10.617   7.030  0.3529 -0.0043  0.2390
71797SOL    HW127370   9.201  10.636   7.014 -0.1189 -0.6357  1.9607
71797SOL    HW227371   9.335  10.703   7.038  0.1901  0.3045 -1.7881
71798SOL     OW27372  10.708   1.557   5.867  0.1214 -0.1686 -0.0670
71798SOL    HW127373  10.804   1.565   5.867  0.0543  0.9623  0.7562
71798SOL    HW227374  10.690   1.485   5.927  0.5034 -1.7468 -1.7704
71799SOL     OW27375  11.541   0.910   4.381  0.1653  0.4127 -0.4924
71799SOL    HW127376  11.514   0.834   4.433  1.5299  0.4337  0.2840
71799SOL    HW227377  11.467   0.926   4.322 -0.6934 -0.6920  0.2444
71800SOL     OW27378   3.925   1.428  10.362 -0.1370 -0.2857 -0.3985
71800SOL    HW127379   3.973   1.425  10.445  0.9289  1.7685 -0.8475
71800SOL    HW227380   3.983   1.385  10.299 -0.5623 -1.0777 -0.2610
71801SOL     OW27381   9.473   6.364  12.622  0.4930 -0.1274  0.1171
71801SOL    HW127382   9.530   6.422  12.571  0.3136 -0.3050 -0.2956
71801SOL    HW227383   9.477   6.399  12.711  0.0492  0.7943 -0.2050
71802SOL     OW27384   2.844   6.337  12.587 -0.2899 -0.3764  0.2321
71802SOL    HW127385   2.903   6.391  12.533 -2.2065  0.0613 -1.5514
71802SOL    HW227386   2.902   6.284  12.640  1.7101  0.3271 -1.1374
71803SOL     OW27387   3.299   0.778  12.843  0.3228 -0.0796 -0.5336
71803SOL    HW127388   3.220   0.725  12.847  0.3260 -0.0316  0.5553
71803SOL    HW227389   3.317   0.790  12.750  0.2459 -1.8784 -0.7956
71804SOL     OW27390  13.554   1.434   3.914 -0.1277  0.2664 -0.0231
71804SOL    HW127391  13.603   1.474   3.986  0.5700  0.2296 -0.4698
71804SOL    HW227392  13.522   1.508   3.862  0.4622  0.2654 -0.3903
71805SOL     OW27393   7.285   2.204   3.488  0.0359 -0.3425  0.2738
71805SOL    HW127394   7.229   2.242   3.555  0.8975  1.1479  0.1947
71805SOL    HW227395   7.373   2.204   3.527  0.4355 -0.0751 -0.6067
71806SOL     OW27396   0.372   9.471  12.485  0.1109  0.6042 -0.5528
71806SOL    HW127397   0.412   9.407  12.543 -0.2901 -0.3713 -1.3267
71806SOL    HW227398   0.349   9.544  12.542 -2.3382 -1.2137  1.0039
71807SOL     OW27399   9.750   8.620   6.107 -0.0019  0.1232  0.5992
71807SOL    HW127400   9.826   8.672   6.131  0.3837  0.0148 -0.3400
71807SOL    HW227401   9.784   8.531   6.097 -0.3319 -0.0013  0.5681
71808SOL     OW27402  13.536  10.311   0.014  0.1898 -0.2276 -0.3246
71808SOL    HW127403  13.542  10.276   0.103  3.4428  1.5130  0.2872
71808SOL    HW227404  13.445  10.338   0.005 -0.3185 -0.7811  2.3578
71809SOL     OW27405  10.726  12.892  10.049  0.1951 -0.0159 -0.0974
71809SOL    HW127406  10.809  12.890  10.003 -0.3746  1.3714 -1.2745
71809SOL    HW227407  10.699  12.801  10.055  0.8497 -0.3240 -1.5112
71810SOL     OW27408  10.245  11.736   4.047 -0.2344  0.0824 -0.4543
71810SOL    HW127409  10.316  11.703   3.993  0.7442 -0.3056  1.0033
71810SOL    HW227410  10.177  11.669   4.041  0.2615 -0.4279 -0.4233
71811SOL     OW27411  10.334   1.897  11.809  0.0951  0.0800 -0.6564
71811SOL    HW127412  10.319   1.955  11.734  1.3624  0.5061 -0.5960
71811SOL    HW227413  10.338   1.809  11.770 -0.6981  0.1356 -0.8892
71812SOL     OW27414  13.011   2.780   4.764  0.1322 -0.6936 -0.2050
71812SOL    HW127415  13.013   2.734   4.681 -0.2093  0.0451 -0.6348
71812SOL    HW227416  12.920   2.809   4.773  0.1026 -1.0121  0.5611
71813SOL     OW27417   7.817  12.459   0.013 -0.1261  0.2305  0.2322
71813SOL    HW127418   7.850  12.407  -0.061 -0.6536 -0.6475  0.5931
71813SOL    HW227419   7.722  12.459   0.001 -0.0968  1.9432 -0.2822
71814SOL     OW27420   3.921   2.658   1.966  0.3806 -0.0792  0.3919
71814SOL    HW127421   3.999   2.698   2.004  0.6309 -1.1476  1.0552
71814SOL    HW227422   3.848   2.698   2.013  0.6458 -0.6670  1.3295
71815SOL     OW27423  13.852   3.564   9.366 -0.0698  0.4071 -0.5947
71815SOL    HW127424  13.831   3.481   9.409 -1.2185  0.5975 -0.7683
71815SOL    HW227425  13.820   3.632   9.425  0.5962  0.7344 -0.5946
71816SOL     OW27426   2.508  11.563   1.040  0.0933  0.1719 -0.6083
71816SOL    HW127427   2.590  11.532   1.001  0.2644  0.5378 -0.5400
71816SOL    HW227428   2.480  11.492   1.098  0.0734 -0.1853 -1.0504
71817SOL     OW27429  10.624   1.772  11.073  0.4351  0.3486 -0.6086
71817SOL    HW127430  10.537   1.770  11.112  0.4649 -1.5640 -0.5590
71817SOL    HW227431  10.678   1.817  11.138  0.1605 -1.3808  0.8933
71818SOL     OW27432  10.550  13.353  12.595 -0.4282 -0.0315 -0.4387
71818SOL    HW127433  10.616  13.295  12.634 -0.1028 -0.1800 -1.1873
71818SOL    HW227434  10.477  13.352  12.657 -1.2864 -2.8546 -1.3174
71819SOL     OW27435   0.920   3.625   9.232  0.1886  0.4850 -0.6882
71819SOL    HW127436   0.861   3.636   9.158  0.6653  0.1200 -1.1268
71819SOL    HW227437   0.862   3.622   9.309 -0.2728  1.4031 -0.9772
71820SOL     OW27438   8.592   7.713  12.496  0.0564 -0.2753 -0.1636
71820SOL    HW127439   8.627   7.665  12.572 -0.5152  0.4552  0.5845
71820SOL    HW227440   8.661   7.777  12.475  1.0653 -1.7352 -1.5161
71821SOL     OW27441   5.580   1.060   2.134 -0.1880 -0.4653 -0.7786
71821SOL    HW127442   5.535   1.122   2.191  1.4398 -1.0485  1.2971
71821SOL    HW227443   5.583   0.979   2.185  1.4067 -1.0050 -1.6421
71822SOL     OW27444   5.534   5.238   8.139 -0.3461  0.1992 -0.2147
71822SOL    HW127445   5.541   5.234   8.043 -1.6949  1.6805 -0.4231
71822SOL    HW227446   5.535   5.147   8.167  0.4274 -0.2591 -1.5935
71823SOL     OW27447   8.981   4.665  13.594 -0.0932 -0.5226  0.8389
71823SOL    HW127448   9.003   4.730  13.660 -2.3863  0.0436  1.1292
71823SOL    HW227449   9.022   4.584  13.625 -1.6697 -0.4606  3.3946
71824SOL     OW27450   2.880   8.402  12.641 -0.1402  0.4615  0.0632
71824SOL    HW127451   2.963   8.360  12.665 -0.2307  1.4149  2.3001
71824SOL    HW227452   2.818   8.374  12.708 -1.0077  1.6507 -0.1999
71825SOL     OW27453   0.824   4.174   6.078  0.0555 -0.3572  0.1145
71825SOL    HW127454   0.846   4.258   6.038 -0.2235  0.3620  1.4024
71825SOL    HW227455   0.730   4.163   6.062  0.0644 -0.3653  0.0665
71826SOL     OW27456  11.759  10.504  13.850 -0.1633 -0.1396 -0.1723
71826SOL    HW127457  11.824  10.573  13.838  0.1400 -0.5764 -1.0529
71826SOL    HW227458  11.771  10.445  13.776 -0.3812 -1.1817  0.5885
71827SOL     OW27459   0.334  12.603   8.050 -0.3367  0.1270 -0.4628
71827SOL    HW127460   0.246  12.604   8.013 -0.0144  1.4736 -1.2563
71827SOL    HW227461   0.370  12.518   8.024 -1.0366 -0.0181 -0.9928
71828SOL     OW27462   2.315   1.372   3.467  0.2222 -0.1399 -0.5353
71828SOL    HW127463   2.246   1.438   3.473 -0.6017 -0.8944 -1.3190
71828SOL    HW227464   2.390   1.411   3.511 -1.0069  0.2889  1.2703
71829SOL     OW27465   7.191  13.360   2.478 -0.1345  0.1263  0.0267
71829SOL    HW127466   7.255  13.325   2.416 -0.5108  2.2512 -1.6852
71829SOL    HW227467   7.126  13.291   2.488  1.4342 -1.3833  0.4077
71830SOL     OW27468  10.780  10.901   0.058  0.1827 -0.0358 -0.4417
71830SOL    HW127469  10.741  10.916   0.145  1.0170 -0.4766  0.0199
71830SOL    HW227470  10.747  10.974   0.005 -0.3270  0.2569  0.2462
71831SOL     OW27471   8.042   7.276   5.949 -0.7839  0.3719 -0.0308
71831SOL    HW127472   8.018   7.298   6.039  2.0145  0.8353  0.7108
71831SOL    HW227473   8.053   7.181   5.950 -1.2037  0.3239 -0.0017
71832SOL     OW27474  13.296  12.537   0.312 -0.2838  0.3844 -0.2799
71832SOL    HW127475  13.331  12.584   0.388 -2.4147  0.0476  0.9637
71832SOL    HW227476  13.368  12.540   0.248  1.4206  1.0607  1.5478
71833SOL     OW27477   2.217   5.442   0.404 -0.4354  0.8352 -0.6653
71833SOL    HW127478   2.285   5.479   0.459 -0.8125  1.7357 -0.7891
71833SOL    HW227479   2.233   5.480   0.317  0.8018 -1.3693 -1.4868
71834SOL     OW27480   1.378  10.225  13.105 -0.2072 -0.1781 -0.2394
71834SOL    HW127481   1.470  10.247  13.093 -0.3116 -0.0628 -0.8770
71834SOL    HW227482   1.354  10.267  13.188  0.4196 -0.5678  0.1438
71835SOL     OW27483   9.352   1.240   5.041 -0.0194  0.1735 -0.2334
71835SOL    HW127484   9.401   1.285   4.972 -0.9932  0.9147 -0.4573
71835SOL    HW227485   9.321   1.159   5.000 -0.2736  0.4276 -0.5395
71836SOL     OW27486   0.881  12.061   4.522 -0.0359 -0.2563 -0.0753
71836SOL    HW127487   0.881  12.113   4.441  0.5753 -0.8458 -0.4632
71836SOL    HW227488   0.819  11.990   4.505  0.3285 -0.5589 -0.1462
71837SOL     OW27489   5.756   0.082   6.527 -0.4230  0.3724 -0.5309
71837SOL    HW127490   5.789   0.156   6.475  0.2420  0.2903 -0.2313
71837SOL    HW227491   5.820   0.072   6.598 -0.6551 -0.3146 -0.4138
71838SOL     OW27492   4.413   4.294   2.922 -0.3398 -0.3237  0.3335
71838SOL    HW127493   4.487   4.255   2.970  0.9940 -0.1301 -1.4612
71838SOL    HW227494   4.445   4.379   2.893 -2.2229  0.9464  1.7239
71839SOL     OW27495  13.959  11.456   2.675 -0.5507  0.3936  0.4763
71839SOL    HW127496  13.883  11.506   2.645 -1.6946 -2.2082 -1.3490
71839SOL    HW227497  14.006  11.434   2.594  3.6613  3.8202  1.5886
71840SOL     OW27498   8.515   3.672   8.559 -0.6329 -0.4131  0.4478
71840SOL    HW127499   8.454   3.706   8.624 -1.8073  0.9277 -1.2722
71840SOL    HW227500   8.461   3.650   8.484  0.9604  0.7195 -1.1113
71841SOL     OW27501   6.320   4.096   9.808  0.3792  0.1864  0.0465
71841SOL    HW127502   6.257   4.026   9.826  0.9611 -0.6441 -1.0260
71841SOL    HW227503   6.394   4.076   9.865  0.1399  0.5207  0.4823
71842SOL     OW27504   9.995  10.179  12.879 -0.1017  0.1673  0.3285
71842SOL    HW127505   9.941  10.234  12.822 -1.3836 -1.0424  0.2973
71842SOL    HW227506   9.945  10.173  12.960  0.4890 -0.1532  0.6694
71843SOL     OW27507   6.741   0.072  13.671 -0.2720 -0.6466  0.1120
71843SOL    HW127508   6.720   0.008  13.740 -4.8560  0.6874  0.3138
71843SOL    HW227509   6.724   0.026  13.589  1.4216 -1.0889 -0.0237
71844SOL     OW27510   1.688   4.150   4.408 -0.0161 -0.5387  0.0299
71844SOL    HW127511   1.703   4.099   4.488 -0.3061  0.6874  0.8854
71844SOL    HW227512   1.756   4.218   4.411  0.8461 -1.3013 -1.4820
71845SOL     OW27513   4.865   3.053  12.304  0.0144 -0.2394 -0.1979
71845SOL    HW127514   4.864   3.136  12.256  2.1429 -0.3010 -0.4483
71845SOL    HW227515   4.796   3.061  12.369 -0.7270  1.1667 -1.1146
71846SOL     OW27516   9.005   2.809   5.337  0.2213  0.0028  0.2298
71846SOL    HW127517   8.910   2.812   5.326  0.2112  0.4367  0.3986
71846SOL    HW227518   9.018   2.785   5.429  0.2882 -1.2743 -0.0951
71847SOL     OW27519   5.633  10.192   1.717  0.0118  0.2673 -0.2307
71847SOL    HW127520   5.612  10.259   1.782  1.5355  0.9551 -0.4025
71847SOL    HW227521   5.573  10.120   1.737 -0.9033  1.2277  0.6657
71848SOL     OW27522  10.953   3.258   6.848 -0.3271 -0.1961  0.0408
71848SOL    HW127523  10.986   3.207   6.774 -0.0101 -0.0819  0.1002
71848SOL    HW227524  10.944   3.347   6.814 -0.8422 -0.2824 -0.0518
71849SOL     OW27525  12.615   5.981   5.029  0.6161 -0.1346 -0.2551
71849SOL    HW127526  12.562   6.002   4.953 -0.9459  1.0851  1.1036
71849SOL    HW227527  12.552   5.960   5.098  2.0018 -2.6503  0.3672
71850SOL     OW27528   9.713  13.252  10.156 -0.2305  0.5066 -0.4544
71850SOL    HW127529   9.723  13.318  10.087 -2.6760 -0.4027 -1.8025
71850SOL    HW227530   9.735  13.170  10.112 -4.9865 -0.5665 -1.4116
71851SOL     OW27531   3.798   6.584  10.218 -0.1559  0.1567  0.2251
71851SOL    HW127532   3.709   6.561  10.189 -0.6338  1.5673  0.4901
71851SOL    HW227533   3.785   6.627  10.302  0.7549  0.6412  0.1280
71852SOL     OW27534  10.617   8.771   0.772 -0.2459  0.2824 -0.4954
71852SOL    HW127535  10.570   8.775   0.690 -0.0131  0.1260 -0.6392
71852SOL    HW227536  10.709   8.781   0.748  0.0803 -2.1770 -0.5410
71853SOL     OW27537   8.894  13.860   9.490  0.4097 -0.6064  0.0384
71853SOL    HW127538   8.813  13.867   9.439 -1.2525  0.6494  2.6216
71853SOL    HW227539   8.883  13.780   9.541  0.8872 -0.5198  0.2766
71854SOL     OW27540  10.804   6.534   9.262 -0.3388 -0.0670 -0.2436
71854SOL    HW127541  10.771   6.455   9.305  3.0370 -0.3988  2.1025
71854SOL    HW227542  10.823   6.506   9.173 -0.8262 -1.4269  0.0520
71855SOL     OW27543   6.126   0.388   1.030 -0.3253 -0.0436 -0.2759
71855SOL    HW127544   6.167   0.445   0.966  0.5719 -2.7556 -2.3122
71855SOL    HW227545   6.198   0.363   1.089 -0.3335 -0.3044 -0.3732
71856SOL     OW27546   1.048   0.108   3.146 -0.2826 -0.3448  0.6167
71856SOL    HW127547   1.133   0.136   3.182  0.3025 -1.0165 -0.2044
71856SOL    HW227548   1.068   0.080   3.057 -1.8227  1.9963 -0.5442
71857SOL     OW27549   6.079   8.839  12.531 -0.0076  0.1063 -0.1501
71857SOL    HW127550   6.124   8.919  12.504  0.1192 -0.0202 -0.3119
71857SOL    HW227551   6.117   8.818  12.617  1.2417 -0.7596 -0.8845
71858SOL     OW27552   3.235   7.876  12.575 -0.2983 -0.3441 -0.0918
71858SOL    HW127553   3.200   7.830  12.499 -1.7374 -1.6050  1.2622
71858SOL    HW227554   3.180   7.954  12.584  0.2638  0.1280 -0.6780
71859SOL     OW27555  10.699   6.544  10.517  0.6035 -0.2840 -0.2286
71859SOL    HW127556  10.637   6.556  10.589  0.8293 -0.0823 -0.0653
71859SOL    HW227557  10.647   6.506  10.446  0.5476 -1.2048  0.3042
71860SOL     OW27558   7.384   8.059   5.191 -0.4099 -0.4290  0.3381
71860SOL    HW127559   7.328   7.982   5.177 -1.7321  0.6387 -0.5799
71860SOL    HW227560   7.357   8.121   5.122 -0.3805  1.3774  1.8594
71861SOL     OW27561   5.402   7.249   8.709  0.0800 -0.6486 -0.4276
71861SOL    HW127562   5.442   7.293   8.635 -0.3791 -1.9708 -1.5091
71861SOL    HW227563   5.448   7.165   8.716 -0.9964 -1.2581 -0.3141
71862SOL     OW27564   2.378   0.766   5.792 -0.1369 -0.6618  0.0441
71862SOL    HW127565   2.437   0.803   5.726 -0.4189  2.1736  1.2281
71862SOL    HW227566   2.434   0.712   5.847  1.6573  2.3940  1.4723
71863SOL     OW27567   1.828  11.624   2.372 -0.0663  0.1661 -0.3417
71863SOL    HW127568   1.840  11.710   2.332  0.0216  1.0513  1.4780
71863SOL    HW227569   1.733  11.611   2.371 -0.1422  0.6641  0.1160
71864SOL     OW27570  10.213  12.335  11.751  0.0395  0.3394 -0.2655
71864SOL    HW127571  10.237  12.428  11.744 -1.2218  0.6076 -1.2704
71864SOL    HW227572  10.126  12.329  11.711 -1.5883 -0.6069  3.0345
71865SOL     OW27573   6.748   1.037   1.425 -0.2072 -0.0160 -0.0812
71865SOL    HW127574   6.829   1.085   1.446 -1.2253  1.1807  1.2887
71865SOL    HW227575   6.767   0.946   1.448 -0.0994  0.6650  2.9259
71866SOL     OW27576   7.408  11.490   0.773  0.1670  0.0162 -0.4494
71866SOL    HW127577   7.493  11.452   0.752 -0.5039 -0.9286 -1.5398
71866SOL    HW227578   7.378  11.440   0.849  0.0269 -0.4889 -0.8398
71867SOL     OW27579   4.162  12.990   1.235  0.2380 -0.0547  0.2517
71867SOL    HW127580   4.233  13.054   1.234  0.5984 -0.3997  1.4301
71867SOL    HW227581   4.082  13.043   1.236  0.4288  0.3288 -1.9267
71868SOL     OW27582   6.211  12.214   1.675  0.0127  0.2173  0.1884
71868SOL    HW127583   6.129  12.254   1.703  0.8385  1.4104  0.9744
71868SOL    HW227584   6.267  12.216   1.753  1.1728  0.4501 -0.6192
71869SOL     OW27585   0.686   7.602   0.352  0.0320 -0.3682  0.1353
71869SOL    HW127586   0.606   7.552   0.369  1.1833 -2.3418 -0.0279
71869SOL    HW227587   0.733   7.552   0.286  0.1658  2.1929 -1.8735
71870SOL     OW27588  13.147   6.492   9.098  0.0375  0.3002 -0.0047
71870SOL    HW127589  13.103   6.449   9.025 -2.0623  0.3892  1.1420
71870SOL    HW227590  13.174   6.420   9.155 -1.8271  0.3239  0.9973
71871SOL     OW27591  13.587   7.031   6.748 -0.4581  0.2123 -0.8275
71871SOL    HW127592  13.619   6.979   6.821  1.8873  0.9140 -1.2614
71871SOL    HW227593  13.494   7.045   6.767 -0.4278 -1.4705  0.8492
71872SOL     OW27594   3.028   0.463   8.301 -0.0700  0.6889 -0.1744
71872SOL    HW127595   3.078   0.401   8.354  0.0832 -0.9024 -2.0440
71872SOL    HW227596   3.047   0.548   8.339  0.9012 -0.2671  1.6019
71873SOL     OW27597  13.865   6.472  10.692 -0.1766 -0.5297  0.2431
71873SOL    HW127598  13.927   6.543  10.682 -0.0699 -0.6464  0.0688
71873SOL    HW227599  13.841   6.448  10.602 -1.6242  0.5150  0.3039
71874SOL     OW27600   2.398   4.298   6.802  0.2114 -0.0135  0.3568
71874SOL    HW127601   2.339   4.246   6.747 -0.1127  2.4882 -1.8476
71874SOL    HW227602   2.342   4.340   6.866  0.3751 -1.6520  1.6404
71875SOL     OW27603  13.219   8.390   2.412  0.0440  0.3057 -0.1725
71875SOL    HW127604  13.293   8.331   2.399  0.8715  1.1273  0.7103
71875SOL    HW227605  13.179   8.362   2.494  0.1250  0.6410 -0.0160
71876SOL     OW27606  12.961   6.191   7.575  0.1270 -0.2434  0.3228
71876SOL    HW127607  13.024   6.213   7.506  0.1629 -0.0637  0.4111
71876SOL    HW227608  12.964   6.096   7.582 -1.1267 -0.4376 -1.1245
71877SOL     OW27609   5.006   6.420   7.213  0.1429 -0.9170  0.0604
71877SOL    HW127610   5.013   6.342   7.269  2.1284 -1.1398 -0.4257
71877SOL    HW227611   5.007   6.385   7.124 -1.0613 -0.4274 -0.1739
71878SOL     OW27612  12.902   0.786   0.093  0.2046 -0.4825 -0.8214
71878SOL    HW127613  12.872   0.837   0.169  0.0206  0.7466 -1.6977
71878SOL    HW227614  12.956   0.717   0.131  2.1249  1.5256  0.3060
71879SOL     OW27615  12.172   1.461   8.680 -0.0226 -0.2189  0.4104
71879SOL    HW127616  12.107   1.403   8.718 -1.6518  0.6602 -0.9195
71879SOL    HW227617  12.138   1.549   8.695 -0.8152  0.1882 -2.9723
71880SOL     OW27618   9.046   5.976   9.026  0.0216  0.4217 -0.2910
71880SOL    HW127619   8.968   5.976   8.970 -0.1642 -2.3916 -0.1764
71880SOL    HW227620   9.117   6.002   8.968  0.0035 -3.3087 -2.3096
71881SOL     OW27621   7.602   2.761   6.578 -0.0015 -0.3300  0.1717
71881SOL    HW127622   7.525   2.816   6.568 -1.1902 -2.0376 -0.5179
71881SOL    HW227623   7.665   2.817   6.624 -0.7925  1.8726 -1.2543
71882SOL     OW27624   1.355   3.759   5.715  0.8041  0.1363  0.1430
71882SOL    HW127625   1.431   3.810   5.743  0.2894  0.9846  0.0378
71882SOL    HW227626   1.362   3.754   5.619  1.1129 -0.4217  0.1898
71883SOL     OW27627  13.224   3.900   1.300  0.3440 -0.4867  0.0286
71883SOL    HW127628  13.317   3.917   1.320  0.9435 -1.5814 -1.6136
71883SOL    HW227629  13.196   3.978   1.252  0.2414  0.0835  0.9925
71884SOL     OW27630   1.406   4.497   6.153  0.4107 -0.0287  0.2116
71884SOL    HW127631   1.419   4.590   6.134 -0.3948 -0.0456 -0.5164
71884SOL    HW227632   1.331   4.495   6.213  1.5971 -0.1162  1.7541
71885SOL     OW27633   0.343  10.844   8.957  0.3363  0.7604 -0.3709
71885SOL    HW127634   0.378  10.848   9.046  1.2497  0.4531 -0.7024
71885SOL    HW227635   0.261  10.894   8.960 -0.0807  0.0293  0.8406
71886SOL     OW27636   0.187  10.444   8.233  0.6768 -0.6328 -0.0999
71886SOL    HW127637   0.179  10.366   8.288 -0.0610 -1.1427 -0.9116
71886SOL    HW227638   0.108  10.444   8.179  2.0922 -1.0265 -2.2896
71887SOL     OW27639   0.495  13.313   0.776 -0.4123 -0.7807 -0.7235
71887SOL    HW127640   0.451  13.329   0.692  0.4432 -0.4562 -1.1144
71887SOL    HW227641   0.424  13.289   0.836 -1.4904  1.8978 -0.7581
71888SOL     OW27642   1.661  11.783   1.550 -0.1283 -0.0380 -0.8292
71888SOL    HW127643   1.602  11.726   1.501  0.4625 -1.9488  0.5896
71888SOL    HW227644   1.661  11.748   1.639  2.2093  0.6302 -0.4931
71889SOL     OW27645   4.523   8.841   2.777 -0.1197  0.4875  0.3865
71889SOL    HW127646   4.429   8.844   2.760  0.0058  0.6146 -0.3037
71889SOL    HW227647   4.533   8.882   2.863 -0.5713  1.5611 -0.0571
71890SOL     OW27648   6.246   5.524  12.479  0.0471  0.2580  0.1326
71890SOL    HW127649   6.184   5.554  12.545 -2.1746 -2.3307 -0.6266
71890SOL    HW227650   6.275   5.605  12.436 -1.8697  1.6798  1.3355
71891SOL     OW27651  13.009   5.345  10.346 -0.1808  0.0203  0.8883
71891SOL    HW127652  13.072   5.336  10.275 -1.0755 -0.8908  0.1737
71891SOL    HW227653  12.985   5.438  10.346  0.3456  0.1572  0.4649
71892SOL     OW27654  11.506  11.276   6.145  0.2741 -0.4234  0.5759
71892SOL    HW127655  11.475  11.188   6.123 -0.3007 -0.0490 -0.1732
71892SOL    HW227656  11.583  11.262   6.199  1.2574 -1.4012 -1.0058
71893SOL     OW27657  13.869  12.284  13.151 -0.4815 -0.2478  0.8330
71893SOL    HW127658  13.787  12.289  13.200 -0.0718  3.0514  1.4259
71893SOL    HW227659  13.847  12.315  13.063 -0.1720 -1.0172  0.4734
71894SOL     OW27660  11.701   0.834   0.355  0.1893  0.3733  0.1824
71894SOL    HW127661  11.747   0.834   0.271 -0.6815 -1.6561 -0.3450
71894SOL    HW227662  11.623   0.781   0.340  0.0063 -0.0378  2.2843
71895SOL     OW27663  10.235  10.913   3.698 -0.0141  0.3334  0.0689
71895SOL    HW127664  10.219  10.829   3.741 -1.5940  1.3424  1.5821
71895SOL    HW227665  10.324  10.906   3.664  0.1359 -1.6953  0.7467
71896SOL     OW27666  13.777   8.866   8.240  0.0748 -0.3521 -0.6375
71896SOL    HW127667  13.689   8.877   8.276  0.2938 -2.1325  0.5565
71896SOL    HW227668  13.829   8.935   8.282 -0.2538 -0.7534  0.4644
71897SOL     OW27669   2.257   5.275   7.463  0.4335 -0.1043  1.0928
71897SOL    HW127670   2.304   5.356   7.482 -0.2028  0.2671  1.0850
71897SOL    HW227671   2.313   5.206   7.499  0.8707  0.3510  1.2908
71898SOL     OW27672   2.419   9.013  12.979  0.3651  0.4481 -0.0675
71898SOL    HW127673   2.471   9.031  13.058 -0.1958 -1.2457  0.7231
71898SOL    HW227674   2.367   8.936  13.001 -2.6158  2.0898 -0.7906
71899SOL     OW27675   2.920  12.912  12.896 -0.6338  0.3250 -0.4844
71899SOL    HW127676   2.968  12.988  12.861 -0.0565 -0.8094 -2.2944
71899SOL    HW227677   2.986  12.864  12.945 -0.5808  0.1669 -0.7074
71900SOL     OW27678  11.124   6.954   3.384 -0.5398 -0.2260  0.0786
71900SOL    HW127679  11.089   7.016   3.448  0.0341  0.1622  0.0281
71900SOL    HW227680  11.164   7.009   3.317  1.2439 -0.6288  0.7437
71901SOL     OW27681   8.366   6.874  12.523  0.5491 -0.1491  0.2413
71901SOL    HW127682   8.354   6.921  12.606  2.0341 -0.1396  0.4907
71901SOL    HW227683   8.303   6.914  12.464 -1.6753 -1.2288  1.7470
71902SOL     OW27684   3.262   1.668   3.616  0.2438 -0.5585  0.1083
71902SOL    HW127685   3.244   1.717   3.696  1.2945  0.2455 -0.1182
71902SOL    HW227686   3.349   1.630   3.631  0.3747 -0.5435 -0.5822
71903SOL     OW27687   7.380   6.008   6.264 -0.4093 -0.0668  0.3708
71903SOL    HW127688   7.405   6.037   6.352  1.0329 -1.6773  0.5512
71903SOL    HW227689   7.369   6.089   6.214  2.2191  0.8801  1.1309
71904SOL     OW27690   0.151   1.881   2.739 -0.5294 -0.2131  0.3251
71904SOL    HW127691   0.105   1.854   2.659 -2.1089 -2.0638  1.7639
71904SOL    HW227692   0.095   1.948   2.777 -0.2446  0.0125  0.3495
71905SOL     OW27693   4.634   9.877   0.150 -0.0532 -0.3306 -0.5945
71905SOL    HW127694   4.620   9.813   0.219 -1.7287 -0.6366 -1.1679
71905SOL    HW227695   4.634   9.961   0.196 -1.3774 -0.5122 -0.2157
71906SOL     OW27696   8.944  12.274  10.647 -0.0188  0.7601  0.0226
71906SOL    HW127697   8.975  12.324  10.722 -1.7872 -1.2693  2.2302
71906SOL    HW227698   8.996  12.193  10.649 -1.3941 -0.1400  0.2622
71907SOL     OW27699  12.943   1.391   7.416  0.1384 -0.0934  0.3144
71907SOL    HW127700  12.875   1.343   7.369  0.6560 -2.1811  1.5850
71907SOL    HW227701  13.024   1.366   7.371  0.6188 -1.9744  2.1192
71908SOL     OW27702   8.973   0.394  13.075  0.0073 -0.6884  0.2157
71908SOL    HW127703   8.984   0.420  13.167 -0.8027 -0.9181  0.3830
71908SOL    HW227704   8.999   0.472  13.025  0.1255 -0.4468  0.6507
71909SOL     OW27705   2.920  12.690   8.838 -0.2564 -0.3904 -0.2445
71909SOL    HW127706   2.890  12.599   8.836 -1.6924  0.0625 -0.8832
71909SOL    HW227707   2.950  12.707   8.749 -1.2672  0.1292 -0.5109
71910SOL     OW27708   3.388   3.008  14.044 -0.0946 -0.1636  0.0140
71910SOL    HW127709   3.455   3.059  14.089 -0.7719 -0.3110  1.2039
71910SOL    HW227710   3.438   2.943  13.993  0.6994  0.5589 -0.1560
71911SOL     OW27711  12.542  13.046   7.681  0.1593  0.0095 -0.2013
71911SOL    HW127712  12.479  12.990   7.727 -0.6274  0.4441 -0.7278
71911SOL    HW227713  12.508  13.052   7.592  1.3701 -0.3662 -0.7106
71912SOL     OW27714   7.550   4.724   5.220  0.9561 -0.1905 -0.0320
71912SOL    HW127715   7.541   4.688   5.308  2.2554 -0.7811 -0.1235
71912SOL    HW227716   7.510   4.811   5.225  0.9497 -0.2517  1.1153
71913SOL     OW27717   5.890   9.716   5.660  0.1893  0.0968  0.0111
71913SOL    HW127718   5.956   9.745   5.724 -1.7007  0.1694  2.0693
71913SOL    HW227719   5.848   9.797   5.630  0.4770  0.0023 -0.6560
71914SOL     OW27720   1.524   9.978   8.481  1.1015  0.2610 -0.2578
71914SOL    HW127721   1.508   9.953   8.391  0.3045  0.1202 -0.0864
71914SOL    HW227722   1.572   9.905   8.519  1.1203  0.1645 -0.4709
71915SOL     OW27723   6.445   7.744   0.134  0.0597  0.1022  0.4149
71915SOL    HW127724   6.374   7.684   0.155  0.5964 -0.0162  2.0648
71915SOL    HW227725   6.402   7.827   0.115 -0.5386 -0.0576  1.0450
71916SOL     OW27726   3.250   1.065  12.343  0.2688  0.2747  0.3455
71916SOL    HW127727   3.279   1.120  12.416  1.6485 -0.7588  0.6228
71916SOL    HW227728   3.329   1.051  12.290 -0.2650 -0.6007 -0.2558
71917SOL     OW27729   9.038  12.877  11.824  0.2523 -0.4329 -0.3526
71917SOL    HW127730   9.016  12.804  11.766 -0.4829 -0.4009 -0.1248
71917SOL    HW227731   9.068  12.946  11.765  0.8537 -0.8720 -0.5770
71918SOL     OW27732   2.784   6.021   6.808 -0.4785 -0.0009  0.1228
71918SOL    HW127733   2.809   5.941   6.854 -0.8729 -0.1565  0.0745
71918SOL    HW227734   2.776   6.087   6.877 -0.7258 -0.1477  0.2361
71919SOL     OW27735   3.422   5.213   0.088  0.1578 -0.0038  0.1567
71919SOL    HW127736   3.446   5.229  -0.003 -1.0468 -1.8741 -0.5674
71919SOL    HW227737   3.331   5.183   0.083 -0.8700  2.4164  2.2785
71920SOL     OW27738  12.646  12.821  10.866 -0.5737 -0.5205  0.0921
71920SOL    HW127739  12.644  12.890  10.799 -0.4547  0.8950  1.4871
71920SOL    HW227740  12.608  12.745  10.823 -0.3038  0.2794 -1.6512
71921SOL     OW27741   9.320   2.128   9.601 -0.5499 -0.0064 -0.0283
71921SOL    HW127742   9.370   2.072   9.541  0.7240  0.8516  0.2067
71921SOL    HW227743   9.298   2.070   9.674  0.0030 -0.4195 -0.1841
71922SOL     OW27744  11.319   5.080   0.890 -0.7235 -0.1998 -0.2475
71922SOL    HW127745  11.363   5.059   0.808 -0.8612 -1.4962 -0.0146
71922SOL    HW227746  11.297   5.173   0.883  1.5095  0.3394 -0.6028
71923SOL     OW27747  11.914   1.894   3.115  0.6890 -0.0622 -0.2369
71923SOL    HW127748  11.826   1.858   3.131  0.8992  0.3784  2.2589
71923SOL    HW227749  11.950   1.909   3.202  2.6695  1.2401 -1.2145
71924SOL     OW27750   4.909   7.187   1.569 -0.3168  0.3925  1.0783
71924SOL    HW127751   4.945   7.239   1.641 -0.4378  0.8682  0.7975
71924SOL    HW227752   4.954   7.220   1.491 -0.2729 -0.0386  0.9154
71925SOL     OW27753   0.519  10.625   3.351  0.0807 -0.0571 -0.0618
71925SOL    HW127754   0.563  10.583   3.277  0.5432 -1.4104  0.9415
71925SOL    HW227755   0.446  10.566   3.372  1.2033 -0.8877  1.8709
71926SOL     OW27756   3.891   3.628   9.059 -0.1031 -0.6202 -0.3916
71926SOL    HW127757   3.896   3.668   8.972 -2.5703  1.3435  0.2577
71926SOL    HW227758   3.953   3.677   9.112 -1.1259  0.6201 -0.2728
71927SOL     OW27759   0.021   2.646   4.241 -1.0278 -0.0491 -0.9903
71927SOL    HW127760   0.075   2.661   4.164 -1.4922  0.5295 -1.2074
71927SOL    HW227761   0.082   2.655   4.315 -1.0229  1.8476 -1.1600
71928SOL     OW27762  13.198   8.958   5.199 -0.7920 -0.1319  0.5413
71928SOL    HW127763  13.198   8.923   5.110  0.8833  0.9187  0.0817
71928SOL    HW227764  13.245   8.893   5.251 -0.6350 -0.1471  0.3808
71929SOL     OW27765   8.686  11.928  11.117 -0.1126  0.1609 -0.1939
71929SOL    HW127766   8.721  11.991  11.054  0.4157 -0.3871 -0.4602
71929SOL    HW227767   8.736  11.942  11.197 -1.0286  1.1029  0.2358
71930SOL     OW27768   9.155   7.782   0.481 -0.7381 -0.1045 -0.1783
71930SOL    HW127769   9.220   7.806   0.415 -1.2080 -1.1545 -1.0464
71930SOL    HW227770   9.084   7.743   0.431 -1.4582 -0.1891  0.8895
71931SOL     OW27771   9.907  12.988  13.655  0.0612 -0.0683 -0.3480
71931SOL    HW127772   9.876  13.077  13.675  1.3773  1.0511 -2.7163
71931SOL    HW227773   9.989  12.980  13.703 -0.9801 -0.7734  1.3571
71932SOL     OW27774   1.025  11.843  11.574 -0.4034  0.3358  0.0884
71932SOL    HW127775   1.020  11.829  11.480 -0.4728 -2.0348  0.3729
71932SOL    HW227776   1.111  11.885  11.588 -0.4196  0.7550 -1.0130
71933SOL     OW27777   3.991  10.596   9.812  0.1141 -0.3664  0.0301
71933SOL    HW127778   4.069  10.540   9.806 -0.5763 -1.3784  0.1805
71933SOL    HW227779   3.923  10.546   9.767 -0.7296 -0.0120  0.8818
71934SOL     OW27780  13.872   3.789  11.636  0.0755 -0.1514  0.4395
71934SOL    HW127781  13.904   3.802  11.725 -0.0012  1.3033  0.2687
71934SOL    HW227782  13.822   3.868  11.616  1.4109  0.2917 -1.4750
71935SOL     OW27783   7.613   1.007   6.108  0.2441  0.1803  0.6185
71935SOL    HW127784   7.519   1.025   6.098  0.4763  1.4163  0.5034
71935SOL    HW227785   7.634   0.953   6.032 -0.3487 -0.0033  0.5757
71936SOL     OW27786  12.602  11.715  12.211  0.3913  0.0532 -0.1776
71936SOL    HW127787  12.594  11.793  12.266  0.4098  0.1744 -0.3428
71936SOL    HW227788  12.609  11.750  12.122 -0.0626 -0.1524 -0.2984
71937SOL     OW27789   4.718   9.610  13.779 -0.1160 -0.6804  0.5488
71937SOL    HW127790   4.734   9.526  13.822  0.0562 -0.2470  1.3742
71937SOL    HW227791   4.662   9.657  13.840  1.3311  0.5217  1.0231
71938SOL     OW27792  11.933   7.428   5.001 -0.4447 -0.2328 -0.3162
71938SOL    HW127793  11.888   7.492   5.057 -1.7693 -0.7975 -0.6842
71938SOL    HW227794  11.887   7.435   4.917 -0.4062 -1.4573 -0.4490
71939SOL     OW27795   3.302   1.584   7.197 -0.1997  0.5771  0.2657
71939SOL    HW127796   3.333   1.640   7.126 -0.4293  0.3563 -0.0095
71939SOL    HW227797   3.221   1.626   7.227 -0.1351  0.6373  0.3556
71940SOL     OW27798  12.448  10.523   7.869  0.3503 -0.1393  0.0799
71940SOL    HW127799  12.481  10.613   7.863 -1.3203  0.4864 -0.3387
71940SOL    HW227800  12.507  10.473   7.813  1.5455  0.6063  0.6175
71941SOL     OW27801   6.537  12.830   8.796  0.2965 -0.2700 -0.2539
71941SOL    HW127802   6.602  12.891   8.761  0.2936 -1.5161 -2.6586
71941SOL    HW227803   6.458  12.847   8.745 -0.7585  0.0207  1.4275
71942SOL     OW27804   1.541  10.716   1.998  0.1343  0.7576 -0.2119
71942SOL    HW127805   1.604  10.651   1.965 -0.7228 -1.1089  1.6127
71942SOL    HW227806   1.472  10.717   1.933 -1.2331 -2.4089  0.9810
71943SOL     OW27807   4.991   7.899   2.226  0.1857  0.5743 -0.0019
71943SOL    HW127808   4.934   7.961   2.180  1.0256  1.6310  0.3457
71943SOL    HW227809   5.045   7.954   2.283  2.2868 -0.2896 -1.0855
71944SOL     OW27810  11.085  11.367  12.825  0.2986  0.5235  0.2598
71944SOL    HW127811  11.155  11.338  12.766  3.0994  2.8834  2.1435
71944SOL    HW227812  11.043  11.286  12.854  2.5355 -1.0569 -0.6276
71945SOL     OW27813  11.993  10.477  13.235  0.2117  0.3055 -0.4832
71945SOL    HW127814  12.042  10.549  13.194  0.8084 -0.7755 -1.7385
71945SOL    HW227815  11.996  10.406  13.171 -1.6128 -0.3663  0.1229
71946SOL     OW27816   3.544   4.099   1.104  0.1139  0.4542 -0.3411
71946SOL    HW127817   3.565   4.185   1.142  1.1890 -0.5236  1.4046
71946SOL    HW227818   3.481   4.119   1.034  0.1427  2.6325  0.1706
71947SOL     OW27819   8.095   0.196  11.734 -0.1621  0.2952  0.3221
71947SOL    HW127820   8.085   0.290  11.717  0.5892  0.7133  2.0060
71947SOL    HW227821   8.183   0.176  11.702 -0.2847  0.1864  0.0527
71948SOL     OW27822  11.797   5.359   9.482  0.3558  0.0687 -0.0956
71948SOL    HW127823  11.814   5.453   9.487 -0.3600  0.3110 -1.5330
71948SOL    HW227824  11.772   5.344   9.390 -1.8341 -1.1291  0.6143
71949SOL     OW27825  11.371  12.957   3.119 -0.3101  0.1174  0.2907
71949SOL    HW127826  11.287  12.911   3.122  0.9675 -2.4022  0.5638
71949SOL    HW227827  11.436  12.888   3.105  1.7015  2.0154 -0.4100
71950SOL     OW27828   9.805  10.203   3.607  0.3300  0.1439  0.2740
71950SOL    HW127829   9.859  10.179   3.532  0.5282  0.9730  0.1392
71950SOL    HW227830   9.866  10.243   3.669  0.0149  0.3047  0.4854
71951SOL     OW27831   3.435   9.154   9.061 -0.1814 -0.3590  0.0635
71951SOL    HW127832   3.412   9.062   9.075 -1.4455 -0.6734 -3.0562
71951SOL    HW227833   3.496   9.152   8.987 -2.9069  1.3220 -2.4818
71952SOL     OW27834   1.406   2.810   6.838  0.2888  0.0776  0.3929
71952SOL    HW127835   1.444   2.736   6.791  0.1509  0.3141 -0.0970
71952SOL    HW227836   1.354   2.856   6.772 -0.1048  0.2736  0.8365
71953SOL     OW27837   5.504   5.491   7.860 -1.1034 -0.2801  0.6301
71953SOL    HW127838   5.554   5.567   7.891 -0.4348  0.3938 -1.8234
71953SOL    HW227839   5.413   5.521   7.859 -0.6045  1.8245 -3.2308
71954SOL     OW27840   4.839   4.132   4.331 -0.3725  0.0437  0.0246
71954SOL    HW127841   4.815   4.041   4.349  1.3705 -0.0691  2.3013
71954SOL    HW227842   4.827   4.177   4.415  0.5678  1.5012 -0.5735
71955SOL     OW27843   3.343   0.389   9.414  0.3384 -0.0532  0.6270
71955SOL    HW127844   3.309   0.463   9.465  0.1699 -0.5432  1.2388
71955SOL    HW227845   3.283   0.317   9.433  1.1486 -0.6639  0.9403
71956SOL     OW27846   3.861  13.593  12.512 -0.3450 -0.2375 -1.0979
71956SOL    HW127847   3.911  13.593  12.431  1.8732 -0.0953  0.1920
71956SOL    HW227848   3.910  13.651  12.571 -1.7264 -0.5503  0.4445
71957SOL     OW27849   4.637   1.587   6.396  0.3581  0.4999  0.0656
71957SOL    HW127850   4.669   1.639   6.469 -1.1902 -0.7541  1.7140
71957SOL    HW227851   4.639   1.497   6.428 -2.6798  0.1577 -0.4762
71958SOL     OW27852  10.151   5.767   5.979 -0.0174  0.1448  0.1473
71958SOL    HW127853  10.128   5.711   6.052 -0.1372 -1.5079 -1.0949
71958SOL    HW227854  10.237   5.803   6.002 -0.3601  0.2040  1.3757
71959SOL     OW27855   6.385   4.223   9.118  0.4318 -0.3390  0.6329
71959SOL    HW127856   6.380   4.127   9.120 -1.9994 -0.2589  1.2210
71959SOL    HW227857   6.297   4.251   9.091  1.1968  1.7346  0.1032
71960SOL     OW27858   9.841   0.007   8.362 -0.3216  0.0178 -0.2789
71960SOL    HW127859   9.855  -0.088   8.370  1.2800  0.3088  1.1450
71960SOL    HW227860   9.778   0.016   8.291  0.8386 -2.0378 -1.7041
71961SOL     OW27861  11.207   4.346  13.921  0.0763 -0.0180  0.0349
71961SOL    HW127862  11.214   4.258  13.958  1.6571 -0.1842 -0.5756
71961SOL    HW227863  11.169   4.332  13.834  1.5717 -0.3014 -0.6148
71962SOL     OW27864  11.729  11.035  12.842 -0.3722 -0.1447  0.0074
71962SOL    HW127865  11.710  11.059  12.751  0.3371 -0.8898 -0.3402
71962SOL    HW227866  11.706  11.114  12.892 -0.4046  0.4051 -0.8501
71963SOL     OW27867   2.529  12.386  10.328 -0.4718  0.4976 -0.4036
71963SOL    HW127868   2.443  12.390  10.369 -0.6109  0.2573 -0.6700
71963SOL    HW227869   2.589  12.421  10.394 -0.5645 -0.7305  0.3658
71964SOL     OW27870   9.963   2.403   4.456  0.3184  0.3840 -0.4774
71964SOL    HW127871   9.918   2.371   4.534  2.1598  1.6028  1.2054
71964SOL    HW227872  10.052   2.366   4.464  0.7816  1.2197 -1.5339
71965SOL     OW27873   0.265   7.578   5.622  0.1404  0.8760  1.0638
71965SOL    HW127874   0.225   7.591   5.708 -1.2234  0.3337  0.5383
71965SOL    HW227875   0.236   7.491   5.594  0.1261  1.2469 -0.1648
71966SOL     OW27876   1.362  12.086   3.381  0.3611  0.1450 -0.8771
71966SOL    HW127877   1.297  12.154   3.362  1.8025  1.8025 -0.2191
71966SOL    HW227878   1.380  12.095   3.474  2.4734  0.6648 -1.2860
71967SOL     OW27879  13.187  10.217  11.647 -0.3535  0.5347  0.1514
71967SOL    HW127880  13.174  10.312  11.647 -0.7052  0.4848 -0.0766
71967SOL    HW227881  13.198  10.195  11.740 -2.8025  0.4425  0.4850
71968SOL     OW27882   6.242   2.743  11.218  0.4868  0.4378 -0.5637
71968SOL    HW127883   6.246   2.702  11.131  0.3922  0.0447 -0.3855
71968SOL    HW227884   6.176   2.812  11.209  0.5824  0.4950 -0.8441
71969SOL     OW27885  12.023   6.890   4.342 -0.9078 -0.1119 -0.0952
71969SOL    HW127886  11.999   6.798   4.328  1.0945 -0.9489  1.4650
71969SOL    HW227887  12.091   6.887   4.409 -0.2430  2.4858 -0.5451
71970SOL     OW27888  10.060  13.815   6.897 -0.5568  0.9762 -0.2474
71970SOL    HW127889  10.058  13.762   6.977  0.3398 -0.4339 -1.0979
71970SOL    HW227890  10.051  13.905   6.927 -0.5108  0.4630  1.4129
71971SOL     OW27891   9.173   7.262  13.359 -0.6764  0.1944  0.6702
71971SOL    HW127892   9.165   7.349  13.397 -0.2200  0.6045 -0.1425
71971SOL    HW227893   9.263   7.259  13.325 -1.0016 -0.2310 -0.1735
71972SOL     OW27894   1.776   2.744  13.088 -0.6023  0.2811  0.3766
71972SOL    HW127895   1.861   2.701  13.087 -0.8130 -0.1738 -1.4040
71972SOL    HW227896   1.746   2.739  12.997 -2.0762  1.3322  0.7783
71973SOL     OW27897   2.208   5.435  13.877  0.3231 -0.3234  0.0129
71973SOL    HW127898   2.292   5.418  13.920 -0.0538 -1.2173  0.4300
71973SOL    HW227899   2.151   5.466  13.947 -0.4819 -2.4036  0.3678
71974SOL     OW27900   2.213   9.275   3.114  0.1396  0.1566 -0.5172
71974SOL    HW127901   2.255   9.231   3.040 -2.5735  1.2091 -2.8900
71974SOL    HW227902   2.237   9.367   3.104  1.0869  0.0982  0.9633
71975SOL     OW27903   3.560   4.628   8.858 -0.4306  0.6411 -0.4001
71975SOL    HW127904   3.556   4.722   8.875 -2.9873  0.2287  2.0264
71975SOL    HW227905   3.475   4.595   8.887  1.0377 -2.6821  0.6197
71976SOL     OW27906   0.205   7.425  10.891  0.2262  0.1971 -0.3218
71976SOL    HW127907   0.288   7.473  10.883  0.8950 -0.9649 -0.5730
71976SOL    HW227908   0.139   7.487  10.860  0.8776  1.4324  0.5964
71977SOL     OW27909   7.151   7.080   5.986 -0.5335  0.7541  0.1120
71977SOL    HW127910   7.057   7.085   6.000 -0.3865  1.2038  0.9922
71977SOL    HW227911   7.190   7.105   6.070  0.3763 -2.8185  0.9498
71978SOL     OW27912  13.051   6.456   3.188  0.3173 -0.4864  0.4334
71978SOL    HW127913  12.977   6.412   3.231 -0.2662 -0.0516 -0.0977
71978SOL    HW227914  13.011   6.500   3.112  1.1025 -0.1290  0.2218
71979SOL     OW27915   7.461  11.338  11.914  0.0112 -0.0144  0.0441
71979SOL    HW127916   7.423  11.423  11.939 -1.1835 -1.1243  2.3092
71979SOL    HW227917   7.549  11.340  11.951  0.0681  0.3212 -0.1013
71980SOL     OW27918  11.175   9.729   7.898  0.8525 -0.0535 -0.1043
71980SOL    HW127919  11.172   9.656   7.960 -2.0847 -0.7965 -0.9640
71980SOL    HW227920  11.183   9.688   7.812 -1.3391  0.5308 -0.6430
71981SOL     OW27921  11.098   9.044   8.958 -0.2225  0.5552 -0.2105
71981SOL    HW127922  11.176   8.989   8.956  0.6985  1.6355  2.2139
71981SOL    HW227923  11.048   9.017   8.882  2.8103  0.2818 -2.2817
71982SOL     OW27924   9.757  11.655   6.512 -0.3257  0.4825  0.1135
71982SOL    HW127925   9.746  11.723   6.445 -1.9442  2.0733  1.8799
71982SOL    HW227926   9.691  11.589   6.490 -0.2188  0.5346 -0.3837
71983SOL     OW27927   7.732  10.786   0.867  0.4564  0.3518 -0.0074
71983SOL    HW127928   7.762  10.871   0.899  0.9851  0.5498 -1.0084
71983SOL    HW227929   7.737  10.792   0.772 -0.0931 -0.5916 -0.1099
71984SOL     OW27930   1.923   5.716   6.426 -0.2598 -0.4664  0.4841
71984SOL    HW127931   1.962   5.740   6.511 -0.3310  2.4552 -0.1954
71984SOL    HW227932   1.829   5.730   6.438 -0.1800  0.9366 -0.3015
71985SOL     OW27933   2.706   2.221   1.288  0.2778 -0.2794 -0.4452
71985SOL    HW127934   2.719   2.160   1.361 -0.2110 -0.4607 -0.5092
71985SOL    HW227935   2.639   2.180   1.234 -1.1488  1.0098  0.2965
71986SOL     OW27936   8.659   7.851   2.227 -0.3072  0.4769 -0.1470
71986SOL    HW127937   8.702   7.803   2.155 -0.6581  1.6519 -1.1794
71986SOL    HW227938   8.730   7.873   2.287  0.1718  0.4267 -0.6861
71987SOL     OW27939   9.297   6.753  11.626  0.1392 -0.6541 -0.0284
71987SOL    HW127940   9.381   6.787  11.656 -0.1019  3.1358 -2.9907
71987SOL    HW227941   9.318   6.699  11.550 -0.0843  0.6894 -1.0660
71988SOL     OW27942   3.692   0.314  10.843 -0.4792  0.7646 -0.1519
71988SOL    HW127943   3.665   0.222  10.835  1.9709 -0.0789  0.2156
71988SOL    HW227944   3.643   0.360  10.775 -4.1434 -0.1381  1.6263
71989SOL     OW27945   7.651   8.886   7.564  0.0454 -0.1165 -0.2102
71989SOL    HW127946   7.731   8.934   7.544 -0.2681  0.5822  0.1648
71989SOL    HW227947   7.583   8.931   7.514  0.1023 -1.5927 -1.6774
71990SOL     OW27948   4.368   5.814   9.729  0.5636  0.1520  0.0280
71990SOL    HW127949   4.436   5.867   9.687  0.5676  1.3974  1.5267
71990SOL    HW227950   4.296   5.875   9.743  0.5181 -0.2586  1.7010
71991SOL     OW27951   8.031   4.665   0.295 -0.4020 -0.2679  0.0765
71991SOL    HW127952   8.103   4.647   0.235  0.4438 -2.0997  1.5477
71991SOL    HW227953   7.965   4.708   0.241  2.0064  2.1767 -1.1780
71992SOL     OW27954   3.015   9.582  12.062 -0.7814 -0.2479 -0.2159
71992SOL    HW127955   3.032   9.606  11.971 -1.1143 -1.6850 -0.6779
71992SOL    HW227956   2.977   9.661  12.101  0.9502  0.9669 -0.8385
71993SOL     OW27957   9.895   2.456   0.886 -0.1560  0.1317  0.4776
71993SOL    HW127958   9.908   2.546   0.917  1.0549  0.3576 -0.5956
71993SOL    HW227959   9.847   2.466   0.804  0.2653 -0.1873  0.1915
71994SOL     OW27960  11.015   1.485   2.794  0.3005  0.1428 -0.2485
71994SOL    HW127961  11.014   1.449   2.883  1.8447 -0.9366 -0.6312
71994SOL    HW227962  11.103   1.521   2.784  0.6591 -1.0764 -1.8239
71995SOL     OW27963  13.241   1.200   9.431 -0.8774  0.0607  0.0017
71995SOL    HW127964  13.224   1.263   9.362  1.4580 -1.1799 -1.8500
71995SOL    HW227965  13.166   1.141   9.430 -0.7505 -0.1000 -1.7025
71996SOL     OW27966  10.499   6.113  12.687  0.4706  0.5311 -0.7459
71996SOL    HW127967  10.548   6.194  12.681  0.5951  0.7013  1.5519
71996SOL    HW227968  10.408   6.141  12.701  0.3786  0.2665 -0.8018
71997SOL     OW27969   6.012  10.580  13.210  0.4104 -0.2473 -0.5432
71997SOL    HW127970   6.041  10.513  13.149 -0.8013 -0.0838 -1.3358
71997SOL    HW227971   5.917  10.585  13.197  0.2147  0.2127  0.9348
71998SOL     OW27972   2.489   4.735   1.503 -0.2783  0.4803 -0.0940
71998SOL    HW127973   2.399   4.703   1.502 -0.4103  0.8205  0.2971
71998SOL    HW227974   2.538   4.668   1.550 -0.2292  0.0593 -0.7326
71999SOL     OW27975  10.980   3.518   0.971 -1.0139 -0.4369 -0.2092
71999SOL    HW127976  10.952   3.432   0.940 -0.6274 -0.1661 -1.3476
71999SOL    HW227977  10.898   3.569   0.975 -1.5322 -1.3154  2.1781
72000SOL     OW27978   4.494   2.970   6.770  0.0483  0.1598  0.5658
72000SOL    HW127979   4.566   2.943   6.827  0.5576  0.5892  0.1393
72000SOL    HW227980   4.475   3.060   6.797 -0.9736 -0.2703  1.3183
72001SOL     OW27981  11.425   4.089   2.948  0.0537  0.6825 -0.3485
72001SOL    HW127982  11.351   4.126   2.899 -1.1084  1.9804  2.2120
72001SOL    HW227983  11.449   4.157   3.010  1.7556 -0.7057  0.5959
72002SOL     OW27984  12.548   9.876   7.347 -0.2026  0.0838 -0.2726
72002SOL    HW127985  12.601   9.841   7.275  0.6832  0.5958  0.1254
72002SOL    HW227986  12.611   9.920   7.404 -1.0130  0.3944  0.3909
72003SOL     OW27987   1.213   0.268   8.656 -0.2095  0.0184 -0.2286
72003SOL    HW127988   1.139   0.207   8.652 -0.5925  0.4859 -0.3867
72003SOL    HW227989   1.283   0.225   8.607 -0.4504 -0.3273 -0.2689
72004SOL     OW27990   0.992   2.094   1.281  1.0456 -0.6575  0.1359
72004SOL    HW127991   0.913   2.062   1.237  2.4822 -2.1887 -1.4245
72004SOL    HW227992   0.967   2.182   1.312 -1.3347 -1.1943 -0.0381
72005SOL     OW27993   7.349   6.330   1.939  0.7254 -0.5761  0.2858
72005SOL    HW127994   7.382   6.402   1.993 -0.0178 -1.0819  1.4402
72005SOL    HW227995   7.272   6.298   1.985  1.7582 -2.9579  0.5018
72006SOL     OW27996   9.645   5.675   6.358 -0.1413 -0.2114  0.1782
72006SOL    HW127997   9.736   5.675   6.386 -0.1171  0.7285  0.1287
72006SOL    HW227998   9.618   5.767   6.361 -1.2688 -0.5309  0.7755
72007SOL     OW27999   2.226   3.608   0.796 -0.4285  0.4563  0.8071
72007SOL    HW128000   2.189   3.682   0.748 -1.1674 -0.1185  0.4820
72007SOL    HW228001   2.266   3.647   0.874  3.7740  1.9123 -1.7211
72008SOL     OW28002   8.437  11.598   3.657  0.0928 -0.0377 -0.6381
72008SOL    HW128003   8.489  11.665   3.702  0.0595 -1.6191  2.0101
72008SOL    HW228004   8.410  11.639   3.576  0.8468  2.8120  0.4202
72009SOL     OW28005   8.393  10.840  11.698 -0.3456 -0.1469  0.3184
72009SOL    HW128006   8.312  10.886  11.718  0.8285  0.6798  3.6895
72009SOL    HW228007   8.411  10.787  11.775  3.3169  1.2279  0.6206
72010SOL     OW28008   0.157   0.349   2.152 -0.4190 -0.0840 -0.1441
72010SOL    HW128009   0.088   0.408   2.181 -0.8566 -0.8498  0.4328
72010SOL    HW228010   0.231   0.368   2.209 -0.7465 -0.4662  0.4243
72011SOL     OW28011  11.190  13.001   6.915 -0.2868 -0.0963 -0.6370
72011SOL    HW128012  11.224  12.979   7.001  0.0031  0.4476 -0.6056
72011SOL    HW228013  11.267  12.996   6.857 -0.4581 -0.3549 -0.8469
72012SOL     OW28014   7.125   2.612   6.924 -1.0034  0.0706  0.3898
72012SOL    HW128015   7.160   2.626   6.836 -0.8090  3.3251  0.8518
72012SOL    HW228016   7.065   2.686   6.938 -1.0019 -0.3166  3.0122
72013SOL     OW28017   6.326   1.960   3.859  0.0135 -0.5149  0.1622
72013SOL    HW128018   6.258   1.972   3.792 -2.1808 -1.1453  2.1280
72013SOL    HW228019   6.334   2.046   3.899 -1.4929 -0.9469  1.5111
72014SOL     OW28020   9.307   6.111  11.089 -0.5986  0.4107  0.3195
72014SOL    HW128021   9.359   6.035  11.063  1.2224  0.9090  2.2387
72014SOL    HW228022   9.282   6.152  11.006 -1.1387 -1.9197 -0.7311
72015SOL     OW28023   9.348   1.085   2.166  0.4243  0.8333  0.5377
72015SOL    HW128024   9.253   1.088   2.174  0.2181 -1.0851 -0.5509
72015SOL    HW228025   9.366   1.108   2.075  0.9828  0.9031  0.6606
72016SOL     OW28026  12.789   2.720   8.591  0.6243 -0.5167  0.8495
72016SOL    HW128027  12.708   2.675   8.615 -0.7482  2.0539  1.3319
72016SOL    HW228028  12.835   2.734   8.674  1.3443 -1.4598  0.6369
72017SOL     OW28029   8.724   5.666   0.955 -0.2582 -0.1355 -0.0144
72017SOL    HW128030   8.707   5.729   0.885 -1.8057 -2.3086 -1.7416
72017SOL    HW228031   8.654   5.683   1.018 -1.8428 -1.2698 -1.3840
72018SOL     OW28032   3.115   4.973   1.503  0.1239 -0.4999 -0.0887
72018SOL    HW128033   3.031   4.942   1.469  0.4922 -1.4283 -0.1679
72018SOL    HW228034   3.170   4.895   1.506  0.8309  0.0105  0.4359
72019SOL     OW28035   5.810  12.324   4.263 -0.2424 -0.8622  0.3052
72019SOL    HW128036   5.839  12.415   4.268 -0.9034 -0.5550 -0.9762
72019SOL    HW228037   5.891  12.272   4.271  0.1768 -0.1614  0.6971
72020SOL     OW28038  13.450  10.229   4.321  0.5181  0.0909 -0.0126
72020SOL    HW128039  13.502  10.161   4.279  0.3706 -0.3184  0.4625
72020SOL    HW228040  13.478  10.228   4.413  0.7640  0.9041 -0.0665
72021SOL     OW28041  11.617   1.020  13.930 -0.3051  0.3802 -0.2427
72021SOL    HW128042  11.673   0.992  13.857 -0.5869  0.5597 -0.5331
72021SOL    HW228043  11.528   1.014  13.895 -0.4146  0.9368 -0.0708
72022SOL     OW28044   1.984   9.428  11.532  0.0066 -0.4684 -0.0698
72022SOL    HW128045   2.010   9.518  11.551 -3.3357  0.5224  0.3731
72022SOL    HW228046   1.945   9.432  11.445  1.7702 -2.0370 -1.0308
72023SOL     OW28047   6.700   5.372   1.589 -0.4900 -0.7491 -0.2181
72023SOL    HW128048   6.771   5.334   1.642  1.3077  3.9081  1.2220
72023SOL    HW228049   6.621   5.329   1.622  1.2076 -3.0342  1.2436
72024SOL     OW28050  12.674   7.799   1.557  0.0319  0.6231  0.0492
72024SOL    HW128051  12.684   7.707   1.578 -1.5393  0.1610 -1.0157
72024SOL    HW228052  12.648   7.841   1.639  0.4867  0.0694  0.4755
72025SOL     OW28053   9.858   2.864   5.597  0.0666  0.0489 -0.1088
72025SOL    HW128054   9.819   2.851   5.510  0.7181  0.3523 -0.4573
72025SOL    HW228055   9.825   2.792   5.649 -3.1140  1.6749  0.3954
72026SOL     OW28056   6.249   3.161   1.233  0.2697 -0.1235  0.2318
72026SOL    HW128057   6.316   3.114   1.283  1.1027  0.7018 -0.0686
72026SOL    HW228058   6.196   3.093   1.193  1.0333 -0.8039  0.3545
72027SOL     OW28059   2.686   9.046   7.589  0.1243  0.4459  0.0363
72027SOL    HW128060   2.591   9.055   7.577 -0.1251 -1.3726  0.3214
72027SOL    HW228061   2.695   8.990   7.666  1.4659  1.4892  0.6590
72028SOL     OW28062  11.288   5.535  12.631  0.0649  0.0911 -0.1718
72028SOL    HW128063  11.374   5.561  12.664  0.1416  0.2190 -0.4608
72028SOL    HW228064  11.226   5.573  12.693  0.1726  1.0018 -0.5946
72029SOL     OW28065   7.948   8.564  12.277 -0.2911 -0.1455  0.2391
72029SOL    HW128066   7.881   8.631  12.265 -0.1365  0.2788  1.6584
72029SOL    HW228067   7.913   8.506  12.345 -0.0593 -1.0463 -0.3864
72030SOL     OW28068   2.701  12.208   7.254  0.1429  0.2935  0.3799
72030SOL    HW128069   2.687  12.286   7.200 -1.3215 -0.6727 -0.7191
72030SOL    HW228070   2.778  12.166   7.216  0.5281  0.8330  0.5477
72031SOL     OW28071   1.065   7.166   8.662  0.2352  0.5412 -0.0542
72031SOL    HW128072   1.160   7.157   8.669  0.3359 -0.9624 -2.3770
72031SOL    HW228073   1.051   7.224   8.587 -0.6769  0.2605 -0.1195
72032SOL     OW28074   4.770  12.914   9.552 -0.0534 -0.1914  0.3384
72032SOL    HW128075   4.859  12.881   9.538  0.2998  0.9962 -0.4039
72032SOL    HW228076   4.758  12.911   9.647  0.3127 -1.5098  0.3607
72033SOL     OW28077   8.930   8.446   2.356  0.0646  0.0323 -0.5297
72033SOL    HW128078   8.913   8.540   2.361  1.3589  0.2225  0.9698
72033SOL    HW228079   8.969   8.434   2.269 -0.5902  0.7877 -0.9428
72034SOL     OW28080   2.633  10.533   8.178  0.1758 -0.1075 -0.3995
72034SOL    HW128081   2.582  10.455   8.199  1.6527 -0.7997  0.7960
72034SOL    HW228082   2.665  10.517   8.089  2.0177 -1.8037  0.4940
72035SOL     OW28083   3.097  13.494  13.239 -0.5865  0.1876 -0.1002
72035SOL    HW128084   3.116  13.401  13.250 -0.7740  0.3061  1.3522
72035SOL    HW228085   3.002  13.498  13.227 -0.8181  0.3001  1.5386
72036SOL     OW28086  11.255   5.194   2.639  0.1000  0.3123 -0.4006
72036SOL    HW128087  11.294   5.280   2.656  1.3810 -0.5537  1.3515
72036SOL    HW228088  11.309   5.156   2.571  0.8603  0.0828  0.3130
72037SOL     OW28089   2.570   0.188   5.005  0.5838 -0.2418 -0.1297
72037SOL    HW128090   2.618   0.183   4.922  1.0316 -2.0761  0.1856
72037SOL    HW228091   2.497   0.127   4.994  0.9013 -0.8397  0.9684
72038SOL     OW28092   4.075   1.024   7.675  0.5295  0.3104  0.2519
72038SOL    HW128093   4.137   0.976   7.620 -0.9321  0.8908 -2.0280
72038SOL    HW228094   3.996   0.971   7.674  0.2582  0.6723  1.2676
72039SOL     OW28095  10.582   6.252   8.339 -0.0921  0.5364 -0.2964
72039SOL    HW128096  10.616   6.273   8.252  0.6284 -0.9676 -0.4013
72039SOL    HW228097  10.604   6.328   8.392  1.8749  0.3646 -0.8007
72040SOL     OW28098   3.628   0.833   7.161 -0.3031  0.2711  0.0041
72040SOL    HW128099   3.633   0.779   7.240 -0.4055  0.6060  0.2435
72040SOL    HW228100   3.659   0.919   7.189  2.6816 -0.3385 -1.0344
72041SOL     OW28101  13.531   3.305   3.959 -0.2597  0.0300 -0.0766
72041SOL    HW128102  13.501   3.219   3.931  1.0479 -1.1038  1.7360
72041SOL    HW228103  13.473   3.327   4.033  0.3298  0.0231  0.3910
72042SOL     OW28104   8.678   9.672  13.843 -0.3547 -0.0085  0.1924
72042SOL    HW128105   8.602   9.613  13.842  0.1138 -0.6826  1.5721
72042SOL    HW228106   8.741   9.628  13.900 -0.4707  2.3815  2.3012
72043SOL     OW28107  11.378  10.788   1.525 -0.2453 -0.3639 -0.1166
72043SOL    HW128108  11.435  10.817   1.596  0.6767 -1.8026 -0.2193
72043SOL    HW228109  11.416  10.826   1.446  0.2982 -0.9163 -0.1273
72044SOL     OW28110  10.751  10.775  11.270  0.8831 -0.3228 -0.0802
72044SOL    HW128111  10.739  10.858  11.315  1.7926  0.0976 -0.5802
72044SOL    HW228112  10.827  10.789  11.214  0.6539 -1.2885 -0.6597
72045SOL     OW28113   7.964  11.704   5.960  0.5792  0.5926  0.2653
72045SOL    HW128114   8.021  11.708   5.883  1.6280 -0.7667  0.9156
72045SOL    HW228115   7.879  11.733   5.929  0.5114 -1.5810 -1.8675
72046SOL     OW28116   4.588   6.104   6.902  0.9521  0.1741 -0.0874
72046SOL    HW128117   4.568   6.107   6.808  1.4569 -0.5696 -0.2269
72046SOL    HW228118   4.504   6.089   6.944  0.8551 -0.4899 -0.4938
72047SOL     OW28119  10.289   1.201   4.194  0.7078 -0.0269  0.0831
72047SOL    HW128120  10.369   1.197   4.247  1.1620  1.3382 -0.4401
72047SOL    HW228121  10.219   1.177   4.254  1.4195 -0.3952  0.7888
72048SOL     OW28122   5.880   0.671  12.613 -0.5792  0.1842  0.6480
72048SOL    HW128123   5.862   0.578  12.625  0.8900 -0.3222 -0.7365
72048SOL    HW228124   5.797   0.707  12.583 -0.6646 -1.1209 -0.8542
72049SOL     OW28125   1.926   0.114  11.336 -0.1480 -0.5218 -0.5518
72049SOL    HW128126   1.917   0.028  11.376 -2.6898  0.4543  1.2516
72049SOL    HW228127   1.876   0.109  11.255  0.6686 -1.0466 -1.0290
72050SOL     OW28128  11.541   2.059   4.081  0.3996  0.2504 -0.1405
72050SOL    HW128129  11.626   2.102   4.069  1.7753 -2.1562  0.2420
72050SOL    HW228130  11.492   2.080   4.002  1.2249  1.8970 -0.2636
72051SOL     OW28131   3.824  12.082   6.627  0.4637  0.3672  0.4234
72051SOL    HW128132   3.814  11.997   6.583  3.1605 -0.0170  0.3662
72051SOL    HW228133   3.838  12.144   6.555 -0.3715  0.6781  0.5222
72052SOL     OW28134   8.865   0.829   8.237  0.4692 -0.1444  0.7335
72052SOL    HW128135   8.816   0.757   8.197  0.5034  0.0066  0.4161
72052SOL    HW228136   8.807   0.904   8.230 -0.4027 -0.5493  2.8634
72053SOL     OW28137  11.538  11.075   0.151 -0.1140  0.7032 -0.0844
72053SOL    HW128138  11.511  11.053   0.062  2.2189 -0.7305 -0.5161
72053SOL    HW228139  11.600  11.147   0.141  0.2766  0.4351  0.3632
72054SOL     OW28140  12.802   1.699   6.691 -0.6602 -0.5700 -0.4705
72054SOL    HW128141  12.886   1.677   6.650 -0.2215 -1.7245  0.9665
72054SOL    HW228142  12.748   1.730   6.619  1.0869  0.5162 -1.3977
72055SOL     OW28143  13.397   6.619   1.372  0.1674 -0.3802 -0.4904
72055SOL    HW128144  13.359   6.629   1.285 -0.6027  1.0364 -0.0106
72055SOL    HW228145  13.341   6.555   1.416 -2.4406  2.3975  0.5564
72056SOL     OW28146   5.684   3.504   4.078 -0.5029  0.0950  0.2992
72056SOL    HW128147   5.639   3.497   3.994 -2.2583  1.5161  1.0506
72056SOL    HW228148   5.757   3.565   4.062 -2.0861  2.0738  0.2108
72057SOL     OW28149  10.262   5.790  12.761 -0.0130 -0.5901  0.1307
72057SOL    HW128150  10.338   5.759  12.810 -1.4069 -1.5871  1.7713
72057SOL    HW228151  10.270   5.886  12.762  1.9057 -0.7066 -0.9418
72058SOL     OW28152   3.049   6.244  12.119 -0.2324  0.1587  0.5459
72058SOL    HW128153   2.974   6.230  12.176  0.4588 -0.2782  1.3772
72058SOL    HW228154   3.114   6.179  12.148  1.4698  2.2278  1.6392
72059SOL     OW28155  10.630  13.480   3.043 -0.5881  0.3753  0.5738
72059SOL    HW128156  10.643  13.563   2.998  2.2748 -2.0538 -3.8362
72059SOL    HW228157  10.538  13.458   3.028 -0.5136  1.1888 -1.3003
72060SOL     OW28158   3.236  11.751   4.551  0.0363  0.4427 -0.6999
72060SOL    HW128159   3.160  11.797   4.516 -1.0663 -0.2161  0.7072
72060SOL    HW228160   3.284  11.722   4.474 -2.2220 -0.8698 -1.7362
72061SOL     OW28161   8.091   4.721  12.166  0.0038 -0.3574 -0.4173
72061SOL    HW128162   8.027   4.738  12.235  0.4056 -1.2514  0.1948
72061SOL    HW228163   8.151   4.796  12.170  1.5376 -1.5932  1.9792
72062SOL     OW28164   4.118   6.374   2.201  0.1939  0.4323 -0.7122
72062SOL    HW128165   4.062   6.299   2.223  0.3523  0.1070 -1.3847
72062SOL    HW228166   4.184   6.375   2.271  1.7619 -1.6900 -2.0359
72063SOL     OW28167  10.515   4.929   8.558 -0.3649  0.0964 -0.1793
72063SOL    HW128168  10.440   4.963   8.508 -1.3225  0.3653  1.3550
72063SOL    HW228169  10.514   4.981   8.639  1.3619 -0.0587 -0.0330
72064SOL     OW28170   7.127   4.633   4.825 -0.5265 -0.7470  0.0937
72064SOL    HW128171   7.174   4.627   4.742  0.3423  0.6659  0.4627
72064SOL    HW228172   7.044   4.675   4.802  0.3202  1.0217  0.1400
72065SOL     OW28173   0.126   6.316   4.144  0.3525 -0.0047  0.3008
72065SOL    HW128174   0.180   6.393   4.129 -0.1322  0.0820 -1.1257
72065SOL    HW228175   0.143   6.292   4.235  2.4713  0.2483  0.0155
72066SOL     OW28176   3.306  12.707  12.861  0.4927 -0.1724  0.0362
72066SOL    HW128177   3.244  12.774  12.891  1.8240  1.5514 -0.9015
72066SOL    HW228178   3.289  12.632  12.918 -2.6178  0.1044 -0.3592
72067SOL     OW28179   5.226   2.041  11.346 -0.1768 -0.1158  0.6335
72067SOL    HW128180   5.173   2.041  11.266 -1.1951 -2.1253  1.2449
72067SOL    HW228181   5.169   2.079  11.413  0.3824  0.8039  0.6045
72068SOL     OW28182  11.802   7.796   4.705  0.6235 -0.1023 -0.2906
72068SOL    HW128183  11.743   7.792   4.781  0.0410  2.5699 -0.5243
72068SOL    HW228184  11.861   7.722   4.717  0.5804  0.2368  2.8072
72069SOL     OW28185   7.588   2.912  11.679 -0.2449  0.2321 -0.0072
72069SOL    HW128186   7.492   2.918  11.675 -0.1436  2.7923 -0.6856
72069SOL    HW228187   7.618   2.949  11.596  1.3148  2.0349  1.2667
72070SOL     OW28188   4.534   5.489   1.954 -0.0837  0.1668 -0.1547
72070SOL    HW128189   4.603   5.434   1.992 -0.1651  1.3348  1.8775
72070SOL    HW228190   4.454   5.460   1.998 -0.2516  1.3117  0.3407
72071SOL     OW28191   9.593   1.692   8.530  0.0142 -0.6203 -0.4261
72071SOL    HW128192   9.513   1.709   8.479 -1.5931 -0.2033  2.0693
72071SOL    HW228193   9.607   1.598   8.521  0.4637 -0.4023 -2.5051
72072SOL     OW28194  13.470   9.651   8.732  0.2910  0.0261 -0.5817
72072SOL    HW128195  13.396   9.629   8.674  0.2261  1.4387 -1.0717
72072SOL    HW228196  13.439   9.626   8.820 -0.2802 -0.5542 -0.9341
72073SOL     OW28197   4.986   0.310  10.438  0.1854  0.5458 -0.2044
72073SOL    HW128198   4.970   0.341  10.349 -0.9636  0.3064 -0.1004
72073SOL    HW228199   4.902   0.272  10.465  1.0275 -0.9961  0.3364
72074SOL     OW28200   3.642   3.839   2.751 -0.0349  0.1886 -0.3223
72074SOL    HW128201   3.595   3.832   2.667 -1.4056 -0.6292  0.4738
72074SOL    HW228202   3.597   3.777   2.808  1.6516 -0.1553  0.6918
72075SOL     OW28203  13.034   6.815   1.383 -0.1143 -0.2868  0.2766
72075SOL    HW128204  13.086   6.834   1.305 -1.1239 -1.2386 -0.6578
72075SOL    HW228205  12.966   6.882   1.383  0.1921  0.0319  0.6498
72076SOL     OW28206  13.584   9.746  13.671 -0.2644  0.6778 -0.3051
72076SOL    HW128207  13.549   9.812  13.611  0.7064  1.1651 -0.3493
72076SOL    HW228208  13.597   9.793  13.754  0.2825  0.4985 -0.2898
72077SOL     OW28209   3.373   9.835   8.272 -0.4300  0.3670  0.3749
72077SOL    HW128210   3.355   9.843   8.178 -0.2454 -0.8271  0.2125
72077SOL    HW228211   3.338   9.749   8.295  2.1710 -0.7125  0.7063
72078SOL     OW28212   2.893  11.630   6.912  0.0104  0.1613 -0.0212
72078SOL    HW128213   2.940  11.613   6.830 -0.7480  0.3762 -0.5163
72078SOL    HW228214   2.943  11.584   6.979  0.3853 -0.4056 -0.6789
72079SOL     OW28215   6.353   0.110  13.467  0.3054  0.1813  0.1401
72079SOL    HW128216   6.338   0.035  13.410 -1.8827  1.3927 -1.0251
72079SOL    HW228217   6.395   0.073  13.545 -0.5606 -2.2330 -0.4437
72080SOL     OW28218   0.752   1.132   5.298 -0.1723 -0.6698 -0.3300
72080SOL    HW128219   0.787   1.044   5.307  1.2237 -0.1436 -0.3577
72080SOL    HW228220   0.829   1.189   5.300 -1.1088  0.6506  0.9591
72081SOL     OW28221   8.171   8.167   9.549  0.1310  0.2582 -0.0898
72081SOL    HW128222   8.179   8.157   9.644  2.3642  2.2376  0.0164
72081SOL    HW228223   8.225   8.096   9.513 -1.5232 -1.1200  0.0317
72082SOL     OW28224   0.615  10.947  11.813 -0.2366 -0.0935 -0.5189
72082SOL    HW128225   0.667  10.869  11.792  0.4139  0.4732 -1.0713
72082SOL    HW228226   0.612  10.996  11.731  0.1853  0.9262  0.0582
72083SOL     OW28227   2.570   6.199   4.639 -0.0695  1.0556 -0.5705
72083SOL    HW128228   2.517   6.239   4.708  1.0697 -1.4217  1.9495
72083SOL    HW228229   2.660   6.228   4.658  0.1251  1.2435 -1.7260
72084SOL     OW28230   9.443   0.758  13.443  0.0590  0.1692 -0.3081
72084SOL    HW128231   9.403   0.683  13.399 -0.6588  0.3134  0.0791
72084SOL    HW228232   9.484   0.808  13.372  0.3050 -0.4430 -0.5988
72085SOL     OW28233   6.541  11.857   7.668 -0.3586 -0.3850  0.3261
72085SOL    HW128234   6.449  11.867   7.642 -0.9427 -2.3263  1.4594
72085SOL    HW228235   6.577  11.794   7.606 -0.6876 -1.9852  1.6704
72086SOL     OW28236   6.441  13.810   7.891  0.1976  0.2500 -0.1628
72086SOL    HW128237   6.412  13.807   7.800  0.5589 -2.6240 -0.2743
72086SOL    HW228238   6.507  13.740   7.897  2.3178  2.2369  1.6433
72087SOL     OW28239  10.635  12.634   0.825  0.0196 -0.1850  0.0983
72087SOL    HW128240  10.639  12.720   0.782  0.5758 -0.9145 -1.3705
72087SOL    HW228241  10.708  12.585   0.787 -0.5545 -1.4536  0.5858
72088SOL     OW28242   0.563   0.335  10.561 -0.8658  0.0270 -0.0159
72088SOL    HW128243   0.607   0.272  10.616  1.6629  0.7977 -1.0172
72088SOL    HW228244   0.606   0.418  10.580 -0.5180  0.4760 -2.4465
72089SOL     OW28245   6.762  11.590  13.916  0.3386  0.0603  0.0069
72089SOL    HW128246   6.688  11.572  13.859  0.3891 -0.1168 -0.0039
72089SOL    HW228247   6.798  11.673  13.884  1.6432 -1.0620 -1.5639
72090SOL     OW28248  12.533   3.066   3.693  0.0906  0.0019  0.2369
72090SOL    HW128249  12.618   3.081   3.735 -1.4432  3.9195  2.4490
72090SOL    HW228250  12.549   3.081   3.600  1.9581 -0.3618  0.4516
72091SOL     OW28251   6.255   2.251  13.081  0.2341 -0.3832  0.2868
72091SOL    HW128252   6.228   2.317  13.145 -0.7284 -0.5475  0.0630
72091SOL    HW228253   6.195   2.263  13.008  0.2820 -1.2777  0.0994
72092SOL     OW28254   4.363   4.514   0.486 -0.2716  0.0305  0.1220
72092SOL    HW128255   4.280   4.484   0.448 -2.3912  3.3604  1.7007
72092SOL    HW228256   4.415   4.541   0.411 -0.2313 -2.7430 -0.9567
72093SOL     OW28257  13.482   8.825   6.443 -0.5588  0.3889  0.0109
72093SOL    HW128258  13.525   8.791   6.364 -2.0417  0.2233 -0.7624
72093SOL    HW228259  13.445   8.909   6.416  1.8348  2.0587  1.5145
72094SOL     OW28260   5.909   0.589   5.248 -0.3281 -0.3879  0.2473
72094SOL    HW128261   5.937   0.664   5.195  1.2404  0.8989  2.7107
72094SOL    HW228262   5.854   0.627   5.316  0.5509 -1.4407  1.5923
72095SOL     OW28263   7.487   4.810   0.678 -0.3406  0.0234  0.2020
72095SOL    HW128264   7.569   4.831   0.633  0.0278 -0.3933  0.6739
72095SOL    HW228265   7.514   4.780   0.765 -0.8557 -2.2381 -0.3656
72096SOL     OW28266  11.528  13.942   5.776  0.2884 -0.2974  0.0933
72096SOL    HW128267  11.589  13.893   5.720 -0.7154 -1.2524 -0.1927
72096SOL    HW228268  11.446  13.892   5.772 -0.2608  0.4787  1.1772
72097SOL     OW28269   3.968   4.163   4.115 -0.0822  0.0446 -0.4532
72097SOL    HW128270   3.981   4.222   4.190  0.0707  1.0843 -1.2630
72097SOL    HW228271   4.055   4.129   4.096  0.1741  1.0466 -1.1448
72098SOL     OW28272  13.420   3.364   0.806  0.4051  0.4712 -0.3044
72098SOL    HW128273  13.495   3.315   0.772 -1.8496 -1.0136 -3.6295
72098SOL    HW228274  13.419   3.342   0.900  3.9521  0.4970 -0.0948
72099SOL     OW28275   2.347   3.432   8.225 -0.3046 -0.6147 -0.4692
72099SOL    HW128276   2.333   3.473   8.139  1.9490 -0.1125 -0.6785
72099SOL    HW228277   2.278   3.467   8.280 -0.0797  1.3859 -1.3590
72100SOL     OW28278   8.952   8.475  11.802 -0.2175 -0.5003  0.1090
72100SOL    HW128279   8.923   8.489  11.892  0.6952  0.2521  0.2946
72100SOL    HW228280   9.036   8.429  11.811 -1.0519 -2.2356 -0.4145
72101SOL     OW28281   0.773   6.493   0.630 -0.3347  0.5652 -0.5085
72101SOL    HW128282   0.688   6.469   0.594 -0.0460 -0.0945 -0.7712
72101SOL    HW228283   0.831   6.499   0.554 -0.0817  0.7197 -0.3041
72102SOL     OW28284   5.800  13.214   3.680 -0.0001  0.5408  0.3451
72102SOL    HW128285   5.711  13.241   3.700 -0.3066 -0.0516 -0.1753
72102SOL    HW228286   5.850  13.234   3.759 -0.1500  2.7865 -0.0698
72103SOL     OW28287  13.171   2.539  13.511  0.7191  0.1272 -0.2715
72103SOL    HW128288  13.264   2.560  13.514  0.9935 -1.1434  2.1472
72103SOL    HW228289  13.128   2.616  13.549  0.7135  0.8692 -1.7290
72104SOL     OW28290   5.164   0.827   3.054 -0.0465 -0.1180 -0.4336
72104SOL    HW128291   5.240   0.832   3.112 -0.4486  0.7267  0.0404
72104SOL    HW228292   5.109   0.759   3.092  0.0541 -0.1118 -0.2773
72105SOL     OW28293   1.739   6.780   0.981 -0.1422 -0.2504 -0.1280
72105SOL    HW128294   1.650   6.814   0.967  0.1508  0.2449 -0.8696
72105SOL    HW228295   1.773   6.765   0.892  1.2137  1.4170  0.0570
72106SOL     OW28296   7.927   3.143   2.187  0.7429 -0.1322  0.1377
72106SOL    HW128297   7.854   3.204   2.191 -0.1112 -1.0490 -0.8360
72106SOL    HW228298   7.911   3.082   2.259  0.9514  0.0869  0.3724
72107SOL     OW28299   4.198   5.964  13.271  0.9646  0.5665  0.1802
72107SOL    HW128300   4.283   5.970  13.226  0.2884 -0.2812 -1.2622
72107SOL    HW228301   4.140   6.020  13.219  0.4807  0.6263  0.7798
72108SOL     OW28302   7.141  12.392  13.288  0.6769  0.9071 -0.4725
72108SOL    HW128303   7.130  12.297  13.291  1.4073  0.8185 -0.3567
72108SOL    HW228304   7.216  12.410  13.346  0.6370  1.5345 -0.6029
72109SOL     OW28305   2.390   0.547  10.107  0.1874  0.3697 -0.1497
72109SOL    HW128306   2.353   0.570  10.192  1.1367  1.4085  0.0031
72109SOL    HW228307   2.388   0.451  10.105  0.0470  0.3423  0.9880
72110SOL     OW28308  10.226  13.673   5.241  0.2252 -0.6118 -0.3098
72110SOL    HW128309  10.160  13.627   5.189  0.8684 -0.1517 -1.5856
72110SOL    HW228310  10.309  13.650   5.199  0.4981  3.1410 -2.3089
72111SOL     OW28311   0.120   6.622  12.142  0.4897 -0.4829  0.1729
72111SOL    HW128312   0.206   6.654  12.169 -0.1703  0.2643  1.4926
72111SOL    HW228313   0.139   6.545  12.089  2.1378  1.7754 -2.8237
72112SOL     OW28314   2.475   3.937   9.091 -0.2990  0.0129 -0.3302
72112SOL    HW128315   2.381   3.928   9.109 -0.1821  0.8789  0.8125
72112SOL    HW228316   2.491   3.874   9.020 -1.2677 -1.8939  1.0290
72113SOL     OW28317   0.585  11.581   4.455  0.4587  0.6047  0.2396
72113SOL    HW128318   0.669  11.535   4.454 -0.6117 -1.6956 -3.2432
72113SOL    HW228319   0.528  11.527   4.510  0.0380 -0.6132 -1.3339
72114SOL     OW28320   8.359   4.528   7.774 -0.0004 -0.0168  0.5247
72114SOL    HW128321   8.383   4.442   7.739 -1.6146 -0.0027 -0.6741
72114SOL    HW228322   8.300   4.566   7.709  0.3159  1.8262  1.2505
72115SOL     OW28323   9.850  10.710  12.192 -0.1414 -0.3940 -0.2059
72115SOL    HW128324   9.920  10.769  12.220 -0.9607 -0.0062  1.0676
72115SOL    HW228325   9.884  10.622  12.210  0.6070 -0.2887 -1.0161
72116SOL     OW28326  12.988   7.265   5.620 -0.4621 -0.0068 -0.2259
72116SOL    HW128327  12.927   7.217   5.564  1.5583 -2.6195 -0.4399
72116SOL    HW228328  12.934   7.304   5.688 -2.4226 -1.6766 -0.7334
72117SOL     OW28329  10.484   5.256  10.263 -0.3640  0.1828  0.2960
72117SOL    HW128330  10.453   5.345  10.279 -3.3643 -0.8859  1.1519
72117SOL    HW228331  10.405   5.202  10.266  1.3354 -2.5428 -0.1198
72118SOL     OW28332  10.250   2.863   2.331  0.1821 -0.1589  0.0529
72118SOL    HW128333  10.322   2.802   2.315 -0.7679 -1.2155 -0.3297
72118SOL    HW228334  10.279   2.916   2.405  1.0993 -0.9591  0.2823
72119SOL     OW28335  10.824  11.019  13.624 -0.1183 -0.1482  0.2608
72119SOL    HW128336  10.847  10.948  13.564 -0.3994  0.1965 -0.2568
72119SOL    HW228337  10.775  11.082  13.571  1.2812  1.0960  0.3693
72120SOL     OW28338  11.998   2.430  11.192  0.5030  0.5154  0.1304
72120SOL    HW128339  12.038   2.512  11.163 -0.1310 -0.1660 -3.1077
72120SOL    HW228340  11.905   2.439  11.169  0.2425 -0.7282  0.6095
72121SOL     OW28341  13.289   4.507   7.067 -0.2284 -0.0342 -0.3989
72121SOL    HW128342  13.313   4.575   7.130  1.3999  0.2427 -1.2976
72121SOL    HW228343  13.204   4.475   7.100  0.1081  0.7495  1.3896
72122SOL     OW28344  11.633  13.407   6.412 -0.0325  0.4091  0.0898
72122SOL    HW128345  11.572  13.344   6.450 -0.4871  0.2170 -0.9310
72122SOL    HW228346  11.669  13.454   6.487 -1.7726  0.8430  0.6903
72123SOL     OW28347   4.322   7.602   0.029 -0.0969 -0.3994 -0.1907
72123SOL    HW128348   4.390   7.643   0.084  0.6817 -0.6473 -0.9407
72123SOL    HW228349   4.318   7.658  -0.048 -2.6890  1.1795  0.9610
72124SOL     OW28350   9.473   0.993   5.211 -0.1481 -0.1225 -0.2024
72124SOL    HW128351   9.379   0.995   5.226  0.2780  2.1849  3.6224
72124SOL    HW228352   9.492   1.075   5.165  0.1219  0.1525  0.3903
72125SOL     OW28353  11.607  13.185  10.882 -0.2128 -0.1548 -0.3243
72125SOL    HW128354  11.608  13.254  10.815  1.4295  0.3903  0.1970
72125SOL    HW228355  11.695  13.147  10.878  0.1863  0.3849  1.9984
72126SOL     OW28356   3.761  10.323   2.594  0.4329 -0.5329 -0.3884
72126SOL    HW128357   3.731  10.396   2.647 -0.3465 -1.5500  0.6248
72126SOL    HW228358   3.855  10.337   2.584  0.2914  0.6052 -0.2246
72127SOL     OW28359   8.892  11.549   5.226 -0.7297  0.1550  0.0905
72127SOL    HW128360   8.839  11.610   5.277  0.3051  0.4729  0.8378
72127SOL    HW228361   8.906  11.592   5.142 -1.1831  0.3122  0.0980
72128SOL     OW28362  12.253   9.499  13.097 -0.0594  0.0805  0.0721
72128SOL    HW128363  12.182   9.436  13.111  0.2464 -0.0851  0.9203
72128SOL    HW228364  12.322   9.472  13.157  1.0017 -0.1600 -1.2114
72129SOL     OW28365   6.093   1.270   7.607  0.2560 -0.4293  0.1452
72129SOL    HW128366   6.039   1.254   7.529  0.4827 -0.6705  0.0337
72129SOL    HW228367   6.176   1.302   7.572  0.0221  0.3984  0.3396
72130SOL     OW28368  11.932  12.937   1.590  0.2541  0.1310 -0.0757
72130SOL    HW128369  11.856  12.957   1.537  0.1879  3.2539  1.0092
72130SOL    HW228370  11.925  12.843   1.607 -2.0894 -0.1046 -1.8409
72131SOL     OW28371   1.005  13.898  13.053  1.0395 -0.2332 -0.2687
72131SOL    HW128372   1.063  13.928  12.982  0.6160 -0.7318 -0.8412
72131SOL    HW228373   0.921  13.883  13.009  0.1321  1.5529  0.7410
72132SOL     OW28374  13.248  11.168   1.858  0.0254  0.7064  0.4296
72132SOL    HW128375  13.276  11.218   1.935  1.5561 -1.6477  1.5187
72132SOL    HW228376  13.316  11.184   1.793 -1.3572  2.8374 -0.6195
72133SOL     OW28377   1.014   6.784   2.818  0.0591 -0.0832  0.6702
72133SOL    HW128378   1.030   6.799   2.911 -2.4466  0.2219  1.1233
72133SOL    HW228379   0.969   6.700   2.814 -0.5391  0.2575 -0.1613
72134SOL     OW28380   3.864   6.216  12.927  0.2784  0.0577  0.5945
72134SOL    HW128381   3.861   6.215  13.023  0.5501  2.9196  0.7405
72134SOL    HW228382   3.942   6.268  12.906  1.4179 -2.2124 -1.2779
72135SOL     OW28383   9.102   3.160  12.905 -0.6748  0.0778  0.5428
72135SOL    HW128384   9.013   3.166  12.871  0.5888  0.7435 -3.0948
72135SOL    HW228385   9.125   3.067  12.898 -0.6402  0.1148  0.1532
72136SOL     OW28386  13.704   7.036   5.433  0.3876 -0.3089 -0.3042
72136SOL    HW128387  13.618   7.001   5.456  0.2484 -0.2938 -0.7911
72136SOL    HW228388  13.756   7.028   5.513  0.1435 -0.9665 -0.2080
72137SOL     OW28389   0.328   1.366   4.839  0.4147 -0.6383 -0.0291
72137SOL    HW128390   0.264   1.321   4.895  1.6411 -0.2766  1.7444
72137SOL    HW228391   0.361   1.438   4.893  0.6818  0.5820 -1.7313
72138SOL     OW28392   2.667   7.280   1.124 -0.1075 -0.4532  0.2116
72138SOL    HW128393   2.644   7.276   1.217 -0.3864  1.7511  0.2910
72138SOL    HW228394   2.742   7.340   1.120 -0.2911 -0.2796 -1.0125
72139SOL     OW28395   3.638   5.953   4.681  0.2424 -0.2980 -0.3178
72139SOL    HW128396   3.613   5.884   4.619 -1.1347 -0.7824  0.7115
72139SOL    HW228397   3.693   5.908   4.746  0.6272 -0.0802 -0.4933
72140SOL     OW28398  10.608   5.297   3.483  0.4756 -0.3522 -0.3053
72140SOL    HW128399  10.514   5.297   3.467  0.1603  0.1506  1.3703
72140SOL    HW228400  10.625   5.376   3.534  1.7416 -0.6599 -0.1943
72141SOL     OW28401  12.490  13.456   8.034  0.2135  0.0454 -0.3929
72141SOL    HW128402  12.464  13.368   8.007 -0.5408  1.3639 -4.9253
72141SOL    HW228403  12.585  13.459   8.019 -0.0602  0.4849 -2.3063
72142SOL     OW28404   1.307  13.749   1.496 -0.2716  0.5114 -0.0828
72142SOL    HW128405   1.243  13.680   1.480 -0.0661  0.2122  0.3640
72142SOL    HW228406   1.289  13.815   1.428 -0.8821  0.3154 -0.1155
72143SOL     OW28407  12.889   7.884   1.798  0.0426 -0.2632 -0.4010
72143SOL    HW128408  12.944   7.952   1.837 -0.7708  0.0753  0.1701
72143SOL    HW228409  12.924   7.802   1.833 -0.5071  0.0153  0.8714
72144SOL     OW28410  13.997  12.118   7.888  0.3689  0.6558 -0.1639
72144SOL    HW128411  14.042  12.203   7.893  0.3334  0.6109  1.4167
72144SOL    HW228412  13.913  12.133   7.930 -0.1440  0.1262 -0.9769
72145SOL     OW28413   7.611   0.065   6.417  0.3604 -0.2198  0.0161
72145SOL    HW128414   7.648   0.133   6.361 -0.5762 -0.9492 -1.5374
72145SOL    HW228415   7.575   0.001   6.357 -0.4457 -1.1825  1.4684
72146SOL     OW28416   6.623   9.362  12.172  0.3301  0.4359 -0.0261
72146SOL    HW128417   6.533   9.369  12.202  0.5889  2.2871  0.4337
72146SOL    HW228418   6.653   9.276  12.204 -1.9775 -1.3885 -2.3412
72147SOL     OW28419   8.952   0.288  10.040  0.0307 -0.2960  0.3705
72147SOL    HW128420   8.970   0.331   9.956 -1.3432  1.3447  0.8613
72147SOL    HW228421   8.944   0.360  10.102  0.7715 -1.4737  1.8874
72148SOL     OW28422   4.755  11.588  10.542 -0.0839 -0.4024  0.4220
72148SOL    HW128423   4.673  11.604  10.497  0.5576  1.0219 -0.2764
72148SOL    HW228424   4.745  11.630  10.627 -0.4743 -1.1989  0.7826
72149SOL     OW28425   6.276  10.765   5.326 -0.9420 -0.2056 -0.0132
72149SOL    HW128426   6.249  10.688   5.377 -0.0958 -1.6337 -1.5966
72149SOL    HW228427   6.194  10.808   5.302 -1.4046 -0.3025  1.3539
72150SOL     OW28428   5.055   8.254  13.760 -0.4412  0.3339  0.3699
72150SOL    HW128429   5.067   8.178  13.818 -2.1077  0.3979  0.8387
72150SOL    HW228430   5.101   8.325  13.805  1.1662 -0.3721 -0.0909
72151SOL     OW28431   7.794   8.648   0.514 -0.4671  0.0174 -0.1166
72151SOL    HW128432   7.798   8.584   0.585  0.6439 -2.4519 -2.2295
72151SOL    HW228433   7.742   8.605   0.446 -0.3266  1.6810 -1.3365
72152SOL     OW28434  13.963   7.646   5.643 -0.0628  0.0915  0.0198
72152SOL    HW128435  14.013   7.591   5.583 -0.0321 -0.0796  0.2024
72152SOL    HW228436  13.975   7.606   5.729  1.5403  1.4891  0.4865
72153SOL     OW28437   3.183   4.256   9.040 -0.0080  0.2777 -0.0932
72153SOL    HW128438   3.279   4.251   9.044 -0.0722 -0.3236  1.7728
72153SOL    HW228439   3.163   4.348   9.057  0.2238  0.0995  1.3093
72154SOL     OW28440  11.859   8.473   0.753 -0.2295 -0.5005 -0.6332
72154SOL    HW128441  11.794   8.477   0.823 -1.5347 -4.8485 -1.2638
72154SOL    HW228442  11.808   8.479   0.673  0.3005 -2.3045 -1.1443
72155SOL     OW28443   9.306   4.737  13.306  0.0211  0.1491 -0.5591
72155SOL    HW128444   9.307   4.828  13.337  0.8350 -0.0319 -0.0385
72155SOL    HW228445   9.308   4.684  13.386  0.8593 -0.3247 -0.8876
72156SOL     OW28446   6.133  12.958   5.498  0.1689 -0.0485 -0.0681
72156SOL    HW128447   6.098  12.969   5.586  1.5046 -0.9554  0.6230
72156SOL    HW228448   6.072  12.898   5.455 -1.0906  1.2541 -0.1660
72157SOL     OW28449   4.622   0.999  11.984 -0.8955 -0.0528  0.2828
72157SOL    HW128450   4.596   0.926  12.041  0.3589 -0.7045  0.0623
72157SOL    HW228451   4.554   1.065  11.997 -2.3393 -1.4576  0.1202
72158SOL     OW28452  12.810   3.370   7.440  0.7332 -0.0092  0.1612
72158SOL    HW128453  12.752   3.440   7.471  0.9086  0.0045  0.4587
72158SOL    HW228454  12.887   3.417   7.406  0.0069  0.0513 -1.4729
72159SOL     OW28455   0.890   4.621  10.517 -0.3495  0.2169 -0.2528
72159SOL    HW128456   0.970   4.595  10.472 -0.3231 -0.0741 -0.0370
72159SOL    HW228457   0.823   4.623  10.448  0.0079  1.2376 -0.5890
72160SOL     OW28458  13.726  12.828   3.403 -0.2401  0.0796 -0.0282
72160SOL    HW128459  13.673  12.756   3.369  1.0695 -0.1167 -1.8360
72160SOL    HW228460  13.816  12.795   3.402  0.1998  1.1871  0.6770
72161SOL     OW28461   4.248  12.051   9.177  0.4781 -0.3011  0.2902
72161SOL    HW128462   4.173  12.050   9.117 -0.4732 -3.6587  1.3021
72161SOL    HW228463   4.252  12.140   9.209 -2.9731  0.1021 -0.0057
72162SOL     OW28464  11.394  11.234   7.405 -0.7361 -0.5545 -0.0386
72162SOL    HW128465  11.432  11.238   7.318 -0.2118 -0.9549  0.1660
72162SOL    HW228466  11.321  11.296   7.403  0.5221  0.9915 -0.1534
72163SOL     OW28467   7.344   6.154   2.356  0.0491  0.2052  0.4630
72163SOL    HW128468   7.281   6.095   2.396  0.0352  1.0989  1.8124
72163SOL    HW228469   7.290   6.221   2.314  0.0923  0.1342  0.2912
72164SOL     OW28470   2.498   6.531   3.474 -0.4165 -0.4308 -0.1566
72164SOL    HW128471   2.507   6.613   3.523 -0.5372  0.0476 -0.9239
72164SOL    HW228472   2.537   6.465   3.532 -1.1288  0.0077  0.8631
72165SOL     OW28473   1.570  13.185  12.739  0.3323  0.0547  0.1196
72165SOL    HW128474   1.637  13.142  12.685  1.1870 -0.1059  1.2742
72165SOL    HW228475   1.619  13.246  12.793 -0.7169  1.4587 -0.4609
72166SOL     OW28476   1.037   3.434  11.326  0.1702 -0.2511 -0.1222
72166SOL    HW128477   1.130   3.411  11.330  0.2245 -0.1954 -0.8036
72166SOL    HW228478   0.993   3.352  11.304  0.1411 -0.1401 -0.4960
72167SOL     OW28479   4.645  11.972  10.108  0.3621 -0.4323 -0.6313
72167SOL    HW128480   4.570  11.962  10.167  0.8092 -1.0648 -0.1568
72167SOL    HW228481   4.660  11.884  10.075  0.1340 -0.0865 -1.6810
72168SOL     OW28482   2.343   5.893   8.643  0.1946 -0.2295 -0.2190
72168SOL    HW128483   2.291   5.831   8.591 -0.5677 -0.6231  0.9686
72168SOL    HW228484   2.280   5.929   8.706  0.5893  1.8257 -0.9039
72169SOL     OW28485   0.416   4.931  13.800  0.0081 -0.1247  0.9166
72169SOL    HW128486   0.396   4.858  13.859 -0.3469  0.4336  1.4963
72169SOL    HW228487   0.334   4.949  13.755 -0.1386  0.4856  1.4179
72170SOL     OW28488  12.944   8.387  12.384 -0.7615 -0.5136  0.0119
72170SOL    HW128489  12.914   8.454  12.445 -0.3570 -0.9680  0.7240
72170SOL    HW228490  12.880   8.316  12.392 -1.1181 -0.2731 -0.6441
72171SOL     OW28491   1.837   9.918  13.224 -0.6772  0.4529 -0.2230
72171SOL    HW128492   1.913   9.931  13.280 -0.6474  0.6830 -0.3172
72171SOL    HW228493   1.869   9.938  13.135 -0.5969 -0.3651 -0.3854
72172SOL     OW28494  12.576  11.103   6.638  0.1245 -0.2766  0.3609
72172SOL    HW128495  12.582  11.033   6.573  0.0309  1.2724 -1.3964
72172SOL    HW228496  12.634  11.172   6.604 -0.5046  0.8668  1.5409
72173SOL     OW28497   4.069  13.314   6.382 -0.2717  0.2666 -0.3204
72173SOL    HW128498   4.002  13.322   6.315 -2.0530 -0.1855  1.3152
72173SOL    HW228499   4.097  13.404   6.399  0.1276  0.3939 -1.5438
72174SOL     OW28500   4.187  12.480   3.599 -0.0175 -0.3576  0.0537
72174SOL    HW128501   4.188  12.453   3.691 -0.5937 -0.4467  0.0338
72174SOL    HW228502   4.232  12.565   3.599  0.4168 -0.5843  0.3439
72175SOL     OW28503  10.563   9.153   6.855  0.1176  0.2747 -0.1860
72175SOL    HW128504  10.630   9.102   6.809  0.5541  0.6213  0.0654
72175SOL    HW228505  10.607   9.234   6.881 -0.1795  0.1810  0.6506
72176SOL     OW28506  11.334   3.197   0.498 -0.7215 -0.2964 -0.3410
72176SOL    HW128507  11.254   3.186   0.447 -0.4251  0.6310 -1.0401
72176SOL    HW228508  11.323   3.139   0.573 -2.5469  0.6363  0.1747
72177SOL     OW28509   5.671   9.278  10.891 -0.1722 -0.4346  0.4393
72177SOL    HW128510   5.655   9.349  10.954 -0.3973  2.4839 -2.6052
72177SOL    HW228511   5.589   9.229  10.890  0.1043 -1.0420  2.8827
72178SOL     OW28512   7.568  13.611   6.089 -0.2597 -0.2950  0.3187
72178SOL    HW128513   7.566  13.682   6.153 -0.6045 -0.9373  1.0393
72178SOL    HW228514   7.618  13.542   6.132 -0.9042 -0.9153  0.0848
72179SOL     OW28515   8.182   3.373   8.485  0.2209 -0.4964 -0.5652
72179SOL    HW128516   8.105   3.317   8.474  1.0482 -1.8961  0.4648
72179SOL    HW228517   8.146   3.462   8.485 -1.4318 -1.1135  0.0159
72180SOL     OW28518   8.048   6.067   3.546  0.1554  0.1333 -0.3139
72180SOL    HW128519   8.119   6.130   3.562  1.9682 -1.3371 -1.9490
72180SOL    HW228520   8.021   6.084   3.456  0.1554 -0.9167 -0.5249
72181SOL     OW28521   9.394   9.644   6.538  0.3259 -0.0538 -0.0571
72181SOL    HW128522   9.411   9.708   6.469 -0.9844  0.3574 -0.0215
72181SOL    HW228523   9.307   9.610   6.518  0.7175 -1.3365  0.3162
72182SOL     OW28524   5.305   2.562   9.846 -0.0350 -0.0430  0.3456
72182SOL    HW128525   5.234   2.601   9.794  0.9969  0.3418 -0.8200
72182SOL    HW228526   5.262   2.494   9.898 -1.0308 -0.8000 -1.3963
72183SOL     OW28527   7.001  12.571   7.829 -0.1170  0.6962  0.1454
72183SOL    HW128528   7.081  12.546   7.875 -0.5089  1.0107  1.0149
72183SOL    HW228529   6.975  12.492   7.781 -0.0422  0.1657  0.9681
72184SOL     OW28530  10.422   7.890  11.994 -0.0916 -0.0824  0.8265
72184SOL    HW128531  10.359   7.925  12.056  0.5314  0.4441  1.1809
72184SOL    HW228532  10.385   7.908  11.908 -0.3949  0.2749  1.0309
72185SOL     OW28533   8.949   8.589   7.913  0.5949 -0.0713 -0.2848
72185SOL    HW128534   8.986   8.501   7.922  1.4526  0.4625  1.9817
72185SOL    HW228535   8.895   8.601   7.992  1.5072  1.8800  0.0952
72186SOL     OW28536  13.277   1.031   1.844  0.5007  0.1352  0.5122
72186SOL    HW128537  13.357   1.070   1.808  1.6367 -2.4612  0.0386
72186SOL    HW228538  13.207   1.068   1.791  1.2015  2.9504  1.3261
72187SOL     OW28539  10.848   4.667   8.531 -0.3669 -0.1703 -0.5482
72187SOL    HW128540  10.844   4.763   8.538 -0.2398 -0.1235 -1.0875
72187SOL    HW228541  10.759   4.641   8.509 -0.1857 -0.0875 -1.3997
72188SOL     OW28542   9.765  10.496   2.030  0.2113  0.7934 -0.1625
72188SOL    HW128543   9.716  10.425   1.988  2.5636 -1.3025  0.3469
72188SOL    HW228544   9.814  10.537   1.958  0.7328  0.2344 -0.1355
72189SOL     OW28545   3.439   1.542   8.652 -0.5464  0.2117  0.1495
72189SOL    HW128546   3.419   1.599   8.727  1.0681  1.2139 -0.1311
72189SOL    HW228547   3.475   1.601   8.586 -1.2299 -0.7783 -1.1587
72190SOL     OW28548   8.948   1.769   8.424  0.0514  0.3182  0.5317
72190SOL    HW128549   8.975   1.725   8.344 -0.0927 -0.7525  1.0517
72190SOL    HW228550   9.029   1.801   8.463  0.3824 -1.0916  1.0570
72191SOL     OW28551   2.753  11.787   3.712  0.0192 -0.0033 -0.1103
72191SOL    HW128552   2.815  11.756   3.778  1.5179 -0.4318 -1.6387
72191SOL    HW228553   2.770  11.881   3.706  1.1209 -0.2374 -1.0598
72192SOL     OW28554  12.488   0.857  12.560  0.0767 -0.2634 -0.0056
72192SOL    HW128555  12.550   0.785  12.544  2.3453  1.7432 -0.7637
72192SOL    HW228556  12.474   0.855  12.655  4.1853  1.2815  0.8232
72193SOL     OW28557   9.042  12.261   9.947 -0.3144  0.0544 -0.3760
72193SOL    HW128558   9.061  12.220  10.032 -2.8913 -1.0718 -0.2639
72193SOL    HW228559   9.005  12.346   9.969  1.0506  0.7032 -0.4857
72194SOL     OW28560   9.440   6.918   2.057 -0.1554  0.1602 -0.2716
72194SOL    HW128561   9.497   6.982   2.100 -0.9909  1.3308 -0.8204
72194SOL    HW228562   9.385   6.971   1.999 -0.1422 -1.1952 -1.5728
72195SOL     OW28563   3.240   3.301   7.059 -0.3746  0.4195  0.7013
72195SOL    HW128564   3.265   3.369   6.996 -0.1018  0.1288  0.4931
72195SOL    HW228565   3.294   3.319   7.136 -0.7043  0.7726  0.8506
72196SOL     OW28566  13.207  13.226   9.884 -0.3942 -0.2142  0.1058
72196SOL    HW128567  13.147  13.278   9.830 -1.1548  0.2388  1.3456
72196SOL    HW228568  13.199  13.138   9.849 -0.6045  0.1303 -0.7482
72197SOL     OW28569   4.517   3.638   0.935 -0.1407 -0.2438  0.0088
72197SOL    HW128570   4.608   3.664   0.942  0.1727 -1.3994  0.5376
72197SOL    HW228571   4.484   3.684   0.859  0.7633  0.5228  0.0688
72198SOL     OW28572   8.655   1.466   3.575  0.3872 -0.5778 -0.0354
72198SOL    HW128573   8.647   1.541   3.517  1.8974 -0.5524 -0.2601
72198SOL    HW228574   8.614   1.495   3.657 -0.0266  0.0835 -0.4664
72199SOL     OW28575   9.657   4.879  12.182  0.6918  0.1076  0.1036
72199SOL    HW128576   9.717   4.904  12.251  1.8304  0.3064 -0.9214
72199SOL    HW228577   9.713   4.858  12.107 -0.4747 -0.5006 -0.6387
72200SOL     OW28578  12.479   3.106   6.858 -0.4505 -0.0858  0.5948
72200SOL    HW128579  12.388   3.131   6.843 -0.0198  0.9187 -0.4704
72200SOL    HW228580  12.520   3.109   6.772  0.3570 -1.6086  0.8855
72201SOL     OW28581  13.561  10.956  10.141 -0.2072  0.2493 -0.2766
72201SOL    HW128582  13.493  10.905  10.097  0.6094 -1.5635  0.4276
72201SOL    HW228583  13.623  10.890  10.173  1.2408  1.7563  0.1731
72202SOL     OW28584   1.548   8.845  12.302  0.0972 -0.0178  0.1011
72202SOL    HW128585   1.453   8.843  12.290 -0.0183 -0.3019  0.9791
72202SOL    HW228586   1.561   8.832  12.396  1.0401 -0.7253 -0.1108
72203SOL     OW28587  13.449   1.085   5.809 -0.0323  0.5706 -0.0732
72203SOL    HW128588  13.462   0.997   5.842 -0.3429  0.7278  0.4849
72203SOL    HW228589  13.466   1.079   5.715  0.0448 -0.0579 -0.0190
72204SOL     OW28590   7.206  13.526   8.811  0.2320 -0.0927 -0.0928
72204SOL    HW128591   7.244  13.594   8.868 -0.7578 -0.2823  0.8331
72204SOL    HW228592   7.127  13.566   8.776  0.7252 -0.0585 -1.2033
72205SOL     OW28593   0.214   2.973  12.482 -0.6239  0.2303  0.1885
72205SOL    HW128594   0.232   3.064  12.504 -2.0502  0.9949 -1.5775
72205SOL    HW228595   0.288   2.946  12.428  1.1102 -0.5622  2.7457
72206SOL     OW28596   9.773  12.536  13.611  0.0290  0.0176  0.2309
72206SOL    HW128597   9.754  12.492  13.694 -1.1404  0.3526  0.1516
72206SOL    HW228598   9.783  12.465  13.548  1.9525 -0.2976  0.8237
72207SOL     OW28599  10.798  12.547   4.732 -0.2429 -0.1673  0.0172
72207SOL    HW128600  10.778  12.454   4.722  0.7093 -0.3081 -0.7981
72207SOL    HW228601  10.893  12.549   4.747 -0.4054  0.6169  0.9997
72208SOL     OW28602   9.708  10.390   3.413  0.3233  0.3470  0.7438
72208SOL    HW128603   9.773  10.397   3.344 -0.7894  1.2080 -0.2725
72208SOL    HW228604   9.741  10.321   3.471  1.7405  0.2495 -0.1336
72209SOL     OW28605   7.999   0.228   9.964 -0.2652 -0.2646 -0.1553
72209SOL    HW128606   7.989   0.244  10.058  0.7897 -0.2782 -0.0247
72209SOL    HW228607   7.998   0.316   9.925  0.9982 -0.1241  0.0731
72210SOL     OW28608  10.703   0.043   3.282 -0.2561 -0.0318 -0.2302
72210SOL    HW128609  10.668   0.052   3.193 -1.4129  0.1028  0.2332
72210SOL    HW228610  10.798   0.031   3.268 -0.6272 -2.0003 -1.5894
72211SOL     OW28611   2.079   4.331  11.252 -0.0369  0.3617 -0.0802
72211SOL    HW128612   2.067   4.237  11.264  0.0221  0.2896 -0.5706
72211SOL    HW228613   2.156   4.352  11.305 -0.5339  0.2858  0.6828
72212SOL     OW28614   2.678   1.851   0.673  0.8891 -0.0025  0.1594
72212SOL    HW128615   2.632   1.798   0.608  1.9123 -0.3483 -0.3126
72212SOL    HW228616   2.686   1.937   0.633  1.2227 -0.1220 -0.0304
72213SOL     OW28617   3.075   5.231   1.044  0.4245 -0.2852  0.1342
72213SOL    HW128618   3.039   5.283   0.972 -0.8352  2.1782  2.3117
72213SOL    HW228619   3.166   5.260   1.052 -0.4668  2.4844  1.8275
72214SOL     OW28620  12.047  13.695   7.893  0.1040  0.7638 -0.0339
72214SOL    HW128621  12.058  13.789   7.900  1.8173  0.7649 -1.8310
72214SOL    HW228622  12.068  13.662   7.980  0.9475  1.9403  0.2296
72215SOL     OW28623   3.495  13.814  12.848  0.1090  0.0576  0.1545
72215SOL    HW128624   3.446  13.749  12.797  0.1905 -1.8546  2.3283
72215SOL    HW228625   3.451  13.814  12.934  1.3297  1.4719  0.8161
72216SOL     OW28626  12.177   9.772   9.549  0.4887 -0.4282 -0.4099
72216SOL    HW128627  12.144   9.786   9.460  0.8756  0.9963 -0.3628
72216SOL    HW228628  12.247   9.708   9.539 -1.4139 -2.5898 -0.6692
72217SOL     OW28629   4.039   3.607  12.303 -0.2950 -0.0295 -0.1141
72217SOL    HW128630   4.035   3.561  12.220  0.4433 -0.1175 -0.1017
72217SOL    HW228631   4.114   3.569  12.349  0.8478  1.7146 -0.4403
72218SOL     OW28632  12.696   9.167   1.330  0.2822 -0.2312 -0.0726
72218SOL    HW128633  12.635   9.093   1.324 -0.0564  0.1260 -1.4826
72218SOL    HW228634  12.740   9.155   1.413 -0.3484 -1.5786  0.0954
72219SOL     OW28635   8.443  12.173   6.342  0.1344 -0.2832  0.2352
72219SOL    HW128636   8.449  12.201   6.433 -1.1459 -0.7840  0.4954
72219SOL    HW228637   8.533  12.179   6.309  0.6399 -0.2167  1.5600
72220SOL     OW28638   1.304   1.370   2.969 -0.3392 -0.5668 -0.3512
72220SOL    HW128639   1.360   1.323   3.030  0.7131  1.0503  0.0025
72220SOL    HW228640   1.223   1.386   3.017  1.0098  2.0321  1.3459
72221SOL     OW28641   6.109   6.131   1.808 -0.8294 -0.1993 -0.6008
72221SOL    HW128642   6.162   6.053   1.824 -1.5663 -0.2772  1.7291
72221SOL    HW228643   6.163   6.204   1.838 -2.1652 -0.3346  2.5111
72222SOL     OW28644  10.494   9.413  13.816 -0.0536  0.0821 -0.0924
72222SOL    HW128645  10.458   9.494  13.850 -0.9180 -0.6174  0.7057
72222SOL    HW228646  10.548   9.440  13.742 -1.7619  1.2294 -0.9900
72223SOL     OW28647   5.603   3.467   1.581  0.0461 -0.4579 -0.5332
72223SOL    HW128648   5.508   3.455   1.574  0.0357 -0.6623 -0.0724
72223SOL    HW228649   5.627   3.513   1.500 -0.4440 -0.3988 -0.6510
72224SOL     OW28650   6.852   1.230   0.812  0.2569 -0.0355  0.8205
72224SOL    HW128651   6.842   1.162   0.878  0.4268 -0.3271  0.5517
72224SOL    HW228652   6.910   1.295   0.852  0.5060 -0.3000  0.8856
72225SOL     OW28653   9.029   1.291  11.391 -0.0621  0.1378 -0.5953
72225SOL    HW128654   9.020   1.199  11.418 -0.1167  0.8145  1.9382
72225SOL    HW228655   8.952   1.334  11.426  1.3334  1.6416  0.7894
72226SOL     OW28656   1.842   6.663   1.663 -0.3947  0.1690  0.0157
72226SOL    HW128657   1.840   6.612   1.582 -0.5459  0.1477  0.0313
72226SOL    HW228658   1.807   6.604   1.730  0.2719 -0.0043  0.2110
72227SOL     OW28659   1.927   0.953  10.920  0.3706  0.2299  0.5030
72227SOL    HW128660   1.903   0.891  10.851  1.5560 -0.5013  0.7188
72227SOL    HW228661   1.850   1.009  10.929 -0.1122 -0.1591 -0.8528
72228SOL     OW28662   1.840   8.936  12.811 -0.0587 -0.5143 -0.3788
72228SOL    HW128663   1.833   8.841  12.818 -0.2084 -0.4590  0.3751
72228SOL    HW228664   1.925   8.951  12.769  1.3032 -0.9365  2.0095
72229SOL     OW28665   4.563   9.597  12.786 -0.2745  0.5127  0.0857
72229SOL    HW128666   4.579   9.606  12.880  0.0667  2.3087 -0.1094
72229SOL    HW228667   4.524   9.510  12.776  1.4861 -0.5301  1.6342
72230SOL     OW28668   3.242   6.733   5.385  0.2682  0.4318 -0.4646
72230SOL    HW128669   3.260   6.680   5.308  0.0836 -0.6318  0.2055
72230SOL    HW228670   3.169   6.688   5.428 -0.2155  1.5051 -0.1335
72231SOL     OW28671   8.257   2.471   7.308 -0.1672  0.7547  0.5646
72231SOL    HW128672   8.247   2.415   7.385  0.4821  0.1553  0.2276
72231SOL    HW228673   8.235   2.414   7.234  2.6608  0.2004  0.0178
72232SOL     OW28674  13.400   4.575   9.464 -0.6411  0.4729  0.1860
72232SOL    HW128675  13.396   4.669   9.483 -0.5761  0.3870  0.6532
72232SOL    HW228676  13.461   4.540   9.530 -1.4156 -0.0466  0.6401
72233SOL     OW28677   6.022   1.205   4.111  0.1687 -0.3026  0.1806
72233SOL    HW128678   6.085   1.140   4.080 -1.0065 -0.5654 -1.8373
72233SOL    HW228679   6.057   1.289   4.080  0.0172 -0.3489 -0.1226
72234SOL     OW28680   3.508   1.614  11.300  0.3259  0.3055  0.0080
72234SOL    HW128681   3.517   1.543  11.364  1.2350  1.8787  1.7399
72234SOL    HW228682   3.414   1.630  11.295  0.2718  1.1182  2.1912
72235SOL     OW28683   3.677   6.592   1.262  0.3172 -0.0732  0.2567
72235SOL    HW128684   3.729   6.581   1.182 -0.0033 -1.1863  0.1739
72235SOL    HW228685   3.593   6.628   1.231  0.6068  0.5812  0.2365
72236SOL     OW28686   4.778   6.294   1.859  0.4309 -0.2416  0.2294
72236SOL    HW128687   4.778   6.358   1.930 -2.2350  1.3421 -1.0808
72236SOL    HW228688   4.795   6.210   1.902 -2.1463  0.4861  2.9670
72237SOL     OW28689   9.864  10.973   3.764 -0.4437 -0.2769  0.7268
72237SOL    HW128690   9.800  10.919   3.717  0.0723 -1.0004  0.8386
72237SOL    HW228691   9.913  11.018   3.695  0.5081 -1.5589  0.5275
72238SOL     OW28692   9.417  10.458  10.338 -0.5139 -0.1928  0.0155
72238SOL    HW128693   9.487  10.523  10.342 -1.3554  0.7002  0.6059
72238SOL    HW228694   9.431  10.412  10.256  0.9174 -0.2056  0.2418
72239SOL     OW28695   2.087   9.533   7.722  0.1542 -0.5493 -0.6784
72239SOL    HW128696   2.029   9.608   7.707  1.2330  0.2711 -0.8709
72239SOL    HW228697   2.054   9.465   7.663 -0.5028 -0.0361 -0.9124
72240SOL     OW28698  13.985   1.097   6.728  0.3342  0.4748 -0.3901
72240SOL    HW128699  14.050   1.116   6.661  0.3106 -1.1054 -0.9099
72240SOL    HW228700  13.910   1.152   6.705  0.0323 -0.5924 -2.1740
72241SOL     OW28701   1.727  10.658  13.503  0.0596  0.4070  0.0021
72241SOL    HW128702   1.821  10.660  13.525  0.0474  0.5927  0.0360
72241SOL    HW228703   1.713  10.569  13.470  0.0377  0.0594  0.9170
72242SOL     OW28704   0.593   8.288   8.506  0.0710  0.5773 -0.0474
72242SOL    HW128705   0.644   8.337   8.570 -1.5802  2.1911  0.1000
72242SOL    HW228706   0.505   8.284   8.543 -0.4577 -0.2209 -1.3063
72243SOL     OW28707   3.767   6.962   2.191  0.4759  0.0006 -0.2503
72243SOL    HW128708   3.821   6.973   2.269 -0.0501  0.1785  0.0941
72243SOL    HW228709   3.819   6.905   2.133  1.4878  1.0410 -0.3865
72244SOL     OW28710   0.311   6.270   8.801  0.2602 -0.4523  0.1634
72244SOL    HW128711   0.303   6.236   8.712 -0.4895  0.0242  0.0389
72244SOL    HW228712   0.241   6.225   8.849  1.2505 -1.4138  0.7516
72245SOL     OW28713   8.198  12.512  11.384 -0.3205 -0.1757 -0.1975
72245SOL    HW128714   8.289  12.538  11.369  0.3067 -1.1238  1.6035
72245SOL    HW228715   8.147  12.563  11.322  1.5327 -0.4279 -2.0208
72246SOL     OW28716   8.520   2.166  13.839 -0.5701  0.0258 -0.6681
72246SOL    HW128717   8.582   2.093  13.833 -0.4425 -0.1736  1.8007
72246SOL    HW228718   8.571   2.237  13.877 -1.1903  0.7512 -1.1792
72247SOL     OW28719   4.994  12.676  11.950  0.3791 -0.5144 -0.3264
72247SOL    HW128720   5.006  12.673  11.855  0.6650 -0.4597 -0.2909
72247SOL    HW228721   5.003  12.585  11.978  1.0862 -0.4289 -0.2548
72248SOL     OW28722  13.878  12.469   1.805 -0.0917 -0.0542  0.5475
72248SOL    HW128723  13.784  12.460   1.817  0.2989 -1.1099  3.6021
72248SOL    HW228724  13.899  12.555   1.841  0.1789 -0.0439  0.3691
72249SOL     OW28725   1.430  13.134   3.839 -0.3063 -0.0802  0.0553
72249SOL    HW128726   1.505  13.150   3.897 -1.1721  0.6384  1.0281
72249SOL    HW228727   1.355  13.168   3.888 -1.1055  0.3678 -1.4218
72250SOL     OW28728  11.437   4.058   8.021 -0.1907  0.0793  0.1400
72250SOL    HW128729  11.342   4.056   8.009 -0.1558 -0.2454 -0.0898
72250SOL    HW228730  11.457   4.151   8.038 -0.6353  0.0384  0.9400
72251SOL     OW28731  12.702   2.620   6.273 -0.1937  0.4319  0.4896
72251SOL    HW128732  12.652   2.542   6.250 -0.9594  0.9768  0.2881
72251SOL    HW228733  12.648   2.693   6.244  0.6175  1.0412  0.4673
72252SOL     OW28734   6.543   2.432  10.490  0.1966 -0.2414 -0.7373
72252SOL    HW128735   6.536   2.527  10.493 -0.5630 -0.2929 -0.6368
72252SOL    HW228736   6.636   2.414  10.496  0.2591  0.4545  0.6345
72253SOL     OW28737   0.823   1.033   0.579  0.1141 -0.0361 -0.1151
72253SOL    HW128738   0.824   0.937   0.582  2.0844 -0.0363  0.9023
72253SOL    HW228739   0.882   1.060   0.649 -0.5735  1.9554 -0.2293
72254SOL     OW28740   0.670   3.352  12.628 -0.3216 -0.8460  0.1899
72254SOL    HW128741   0.592   3.395  12.594  0.9085  1.3412 -0.0327
72254SOL    HW228742   0.646   3.325  12.717 -1.7007 -1.3580 -0.3134
72255SOL     OW28743   0.723   5.413  13.639 -0.0563 -0.1821  0.0634
72255SOL    HW128744   0.755   5.431  13.728  2.9990 -0.8561 -0.7526
72255SOL    HW228745   0.715   5.499  13.599  2.8600  0.0672 -0.2292
72256SOL     OW28746  10.629  12.241   1.310  0.1607 -0.3052  0.0250
72256SOL    HW128747  10.607  12.178   1.379  0.6312 -1.3804 -0.7660
72256SOL    HW228748  10.691  12.301   1.351 -2.1844  1.2498  1.5467
72257SOL     OW28749   4.955   4.717   6.739  0.2615  0.2198  0.2782
72257SOL    HW128750   4.983   4.802   6.774 -0.9119  1.4208 -1.5339
72257SOL    HW228751   5.033   4.682   6.695  0.8848  0.1062  1.4345
72258SOL     OW28752   3.173   5.809   7.358 -0.1399 -0.4555  0.1394
72258SOL    HW128753   3.210   5.837   7.274 -0.9252  1.5541  0.3895
72258SOL    HW228754   3.091   5.765   7.334  0.4437 -1.3933 -0.2020
72259SOL     OW28755   0.643   6.059   6.684 -0.0909 -0.2937  0.0846
72259SOL    HW128756   0.589   5.986   6.653  0.3160 -1.3526  1.7628
72259SOL    HW228757   0.580   6.124   6.714 -0.4816  0.4658 -2.1524
72260SOL     OW28758   7.370  10.918   0.679 -0.0021  0.1587  0.0385
72260SOL    HW128759   7.365  10.822   0.687  0.2435  0.2099  0.8912
72260SOL    HW228760   7.295  10.941   0.625 -1.1428 -0.3482  1.3444
72261SOL     OW28761  11.287   6.143  11.096  0.3665 -0.4334  0.2858
72261SOL    HW128762  11.289   6.219  11.037 -0.9482  0.0822  0.8688
72261SOL    HW228763  11.363   6.091  11.070 -0.3745 -0.4415 -2.1265
72262SOL     OW28764  11.497   3.320  11.372 -0.2369  0.8913 -0.1975
72262SOL    HW128765  11.443   3.361  11.304 -0.8344 -2.0604 -1.6548
72262SOL    HW228766  11.457   3.234  11.385  1.8784  0.0975  1.5143
72263SOL     OW28767  14.004  12.357  11.305  0.0689  0.0249  0.2913
72263SOL    HW128768  14.063  12.387  11.235  0.4548 -2.1933 -0.3953
72263SOL    HW228769  13.918  12.387  11.277  0.1075 -1.4160 -1.5600
72264SOL     OW28770   5.415   5.628   1.417 -0.8234  0.4120 -0.3102
72264SOL    HW128771   5.492   5.626   1.473 -1.4116 -1.9867  0.5560
72264SOL    HW228772   5.448   5.607   1.330 -0.4238 -0.1948 -0.0217
72265SOL     OW28773   1.262  12.064  11.707 -0.0265  0.3177 -0.0239
72265SOL    HW128774   1.288  11.974  11.729 -0.1322  0.5225  0.9795
72265SOL    HW228775   1.318  12.087  11.632  0.2448 -0.4574 -0.0719
72266SOL     OW28776  14.041   3.704   8.915  0.0592 -0.4899 -0.2232
72266SOL    HW128777  13.950   3.693   8.944 -0.0189 -2.1678 -0.9994
72266SOL    HW228778  14.062   3.795   8.936 -2.2754  0.3831 -1.3342
72267SOL     OW28779   1.297   5.821  13.071  0.2640  0.4257  0.4246
72267SOL    HW128780   1.243   5.754  13.113  0.2098  0.1583 -0.0749
72267SOL    HW228781   1.387   5.799  13.097  0.3483 -0.4295 -0.5417
72268SOL     OW28782   7.848   4.492   4.197 -0.0443  0.2569 -0.4348
72268SOL    HW128783   7.819   4.522   4.111  0.0991 -0.2997 -0.6839
72268SOL    HW228784   7.798   4.412   4.212  0.2536  0.1142 -0.1977
72269SOL     OW28785   7.919   2.950   4.504 -0.1299  0.3781  0.3472
72269SOL    HW128786   7.825   2.952   4.483 -0.4575  1.4048  1.8049
72269SOL    HW228787   7.952   3.034   4.472  0.2514  0.1261  0.0735
72270SOL     OW28788   4.108   3.428  10.991 -0.1907  0.3034  0.1303
72270SOL    HW128789   4.018   3.432  11.022  0.0506 -0.0738  0.9188
72270SOL    HW228790   4.121   3.509  10.941 -0.9958  0.2984 -0.0994
72271SOL     OW28791   7.943   7.122   8.903 -0.1063 -0.1324  0.0983
72271SOL    HW128792   7.853   7.120   8.934  0.0487  0.7842  0.6713
72271SOL    HW228793   7.994   7.087   8.977  0.0409 -0.2753 -0.0699
72272SOL     OW28794  13.596   0.818   0.629  0.4512 -0.2213 -0.7253
72272SOL    HW128795  13.656   0.744   0.625 -0.7744 -1.2863 -0.2607
72272SOL    HW228796  13.651   0.895   0.616  1.6726 -1.2439 -1.8790
72273SOL     OW28797   5.268   3.652  14.044  0.0682  0.3349  0.1111
72273SOL    HW128798   5.316   3.570  14.053  0.2546  0.2921 -1.1215
72273SOL    HW228799   5.298   3.705  14.118  1.6527  0.1223 -0.3390
72274SOL     OW28800   1.738  10.933   2.698 -0.1027 -0.7486  0.1234
72274SOL    HW128801   1.797  11.003   2.726  2.7866 -2.9635  0.0570
72274SOL    HW228802   1.769  10.855   2.745 -1.4230 -2.5509 -1.7873
72275SOL     OW28803   1.284   5.464   7.871  0.1877  0.6867  0.0040
72275SOL    HW128804   1.277   5.452   7.776 -1.4063 -1.9113  0.3694
72275SOL    HW228805   1.308   5.557   7.882  1.7090  0.7474 -2.9389
72276SOL     OW28806   1.671   7.608   6.969  0.0166  0.3178  0.8181
72276SOL    HW128807   1.706   7.588   7.056  1.1924 -2.8397 -0.2462
72276SOL    HW228808   1.606   7.540   6.953 -1.6555  2.0312 -0.0472
72277SOL     OW28809  10.481   4.962   7.748  0.7742  0.7871  0.4331
72277SOL    HW128810  10.453   4.899   7.813 -1.6727  1.9678  0.6227
72277SOL    HW228811  10.487   4.912   7.666  3.2583 -0.5579  1.3224
72278SOL     OW28812  11.644   3.340  10.182 -0.2745  0.3151  0.3267
72278SOL    HW128813  11.565   3.310  10.137  0.2743  1.8011 -1.7907
72278SOL    HW228814  11.613   3.371  10.267 -1.8002 -0.0733 -0.0621
72279SOL     OW28815   5.952  13.185   1.343 -0.0447 -0.0853 -0.0227
72279SOL    HW128816   5.991  13.156   1.261  0.5491 -2.5516  1.0290
72279SOL    HW228817   5.873  13.233   1.317  1.2765  1.1582 -2.0429
72280SOL     OW28818  12.505  10.594   8.495  0.0421 -0.3629  0.0252
72280SOL    HW128819  12.503  10.681   8.536 -0.8262 -0.0067 -0.7452
72280SOL    HW228820  12.547  10.608   8.410 -2.5105 -0.1244 -1.2940
72281SOL     OW28821  11.329  11.897   3.838  0.0967 -0.3767  0.5225
72281SOL    HW128822  11.375  11.970   3.796 -0.1512 -1.2261 -1.2990
72281SOL    HW228823  11.283  11.853   3.767 -0.3637 -1.8735  1.6944
72282SOL     OW28824   9.912   3.856   4.149  0.0235  0.2321 -0.1124
72282SOL    HW128825   9.920   3.931   4.090  0.3890  0.0383 -0.3158
72282SOL    HW228826   9.912   3.895   4.236 -1.2313  0.5728 -0.2515
72283SOL     OW28827  10.792   8.204   0.425 -0.0521 -0.1358 -0.3570
72283SOL    HW128828  10.823   8.275   0.369 -0.4068 -0.0907 -0.4944
72283SOL    HW228829  10.717   8.240   0.471  1.6335  0.6642  1.9952
72284SOL     OW28830   7.949   4.240   9.339 -0.4516  0.5187  0.5652
72284SOL    HW128831   7.866   4.205   9.306  0.0509 -2.3583  2.0638
72284SOL    HW228832   7.996   4.267   9.260 -2.3667  1.3234 -0.3810
72285SOL     OW28833   8.038  13.420   3.517  0.0779 -0.5060  0.1977
72285SOL    HW128834   8.128  13.411   3.487 -0.2122  0.2981 -1.0156
72285SOL    HW228835   8.036  13.502   3.565  0.6752 -2.0847  3.1198
72286SOL     OW28836   4.996   7.580  11.458 -0.0173  0.4201 -0.1358
72286SOL    HW128837   4.984   7.672  11.483 -1.1641 -0.0840  1.3284
72286SOL    HW228838   4.967   7.531  11.535  0.1156 -1.1843 -1.0764
72287SOL     OW28839   5.657   9.684   0.006 -0.6086 -0.0498 -0.0529
72287SOL    HW128840   5.630   9.647   0.090  2.0690 -0.9800  0.5089
72287SOL    HW228841   5.623   9.623  -0.059  2.1499 -2.7534  0.7672
72288SOL     OW28842   5.667   8.243   8.711 -0.1505  0.0799  0.0391
72288SOL    HW128843   5.700   8.153   8.705  0.4834  0.3209 -0.1248
72288SOL    HW228844   5.574   8.235   8.693 -0.2312 -0.6403  0.7072
72289SOL     OW28845   4.656   8.370  12.343  0.1414 -0.1274 -0.2390
72289SOL    HW128846   4.624   8.407  12.425  1.2286  0.2807  0.0065
72289SOL    HW228847   4.716   8.436  12.308 -2.6901  1.2175 -3.0248
72290SOL     OW28848   3.101   4.555  13.593  0.0102 -0.0518  0.1763
72290SOL    HW128849   3.063   4.621  13.534  0.9841  0.5499  0.1957
72290SOL    HW228850   3.049   4.562  13.673 -1.0002 -0.5248 -0.4137
72291SOL     OW28851   5.406   4.027  10.454  0.0184 -0.1442  0.3465
72291SOL    HW128852   5.313   4.041  10.440  0.3165  0.3744 -1.4170
72291SOL    HW228853   5.415   3.934  10.472 -0.6819 -0.5696 -1.3297
72292SOL     OW28854  13.138   4.825   3.950  0.4531 -0.4406  0.5623
72292SOL    HW128855  13.064   4.765   3.943  0.8504 -0.9148  0.3046
72292SOL    HW228856  13.192   4.804   3.873  1.0560 -0.3895  0.9680
72293SOL     OW28857   4.894   8.414   0.027  0.1242 -0.3041 -0.0885
72293SOL    HW128858   4.876   8.379   0.114  1.7949 -0.4786  0.2254
72293SOL    HW228859   4.967   8.361  -0.006  0.2621  0.4870 -1.1129
72294SOL     OW28860   9.859   5.176   7.289  0.4003  0.3773 -0.1379
72294SOL    HW128861   9.782   5.212   7.245  0.7749 -0.7774 -1.8583
72294SOL    HW228862   9.931   5.233   7.262  0.2467  1.2722  1.2219
72295SOL     OW28863   5.445   6.098   2.708 -0.2314  0.5530  0.2293
72295SOL    HW128864   5.404   6.179   2.677 -3.5268 -0.8572  0.4580
72295SOL    HW228865   5.401   6.080   2.791  0.8457 -1.1734  0.4718
72296SOL     OW28866   6.483  13.757   0.020 -0.4681  0.0611 -0.2750
72296SOL    HW128867   6.560  13.701   0.030 -1.3766 -1.6649 -2.2334
72296SOL    HW228868   6.486  13.815   0.097  1.5059 -1.4453  0.8954
72297SOL     OW28869   5.286   3.700   8.368 -0.2202  0.1525 -0.3621
72297SOL    HW128870   5.288   3.604   8.370 -0.9009  0.0818 -1.8121
72297SOL    HW228871   5.269   3.725   8.458  1.2106 -1.0360  0.2890
72298SOL     OW28872   6.830   3.923  10.654  0.4500 -0.2187  1.0965
72298SOL    HW128873   6.828   3.987  10.583 -0.1646  1.3613  2.4600
72298SOL    HW228874   6.748   3.873  10.645  0.6715 -0.4493  0.3459
72299SOL     OW28875   2.569   0.134   4.180 -0.1865  0.1955  0.2937
72299SOL    HW128876   2.614   0.202   4.131 -0.1444 -0.6200 -0.8323
72299SOL    HW228877   2.638   0.088   4.228 -0.0102 -0.0449 -0.1842
72300SOL     OW28878   3.019  13.985  13.250 -0.1911  0.0193  0.1846
72300SOL    HW128879   3.103  14.006  13.211 -0.6738  1.8610  0.0311
72300SOL    HW228880   3.026  14.016  13.340 -1.0702  1.2606 -0.1530
72301SOL     OW28881  10.412   8.196  12.019 -0.1877 -0.2523 -0.1657
72301SOL    HW128882  10.420   8.265  11.953  0.9601  0.5976  0.8067
72301SOL    HW228883  10.327   8.211  12.060 -0.4188 -0.0913 -0.7049
72302SOL     OW28884   8.468   3.551   9.071  0.5763 -0.1290 -0.0795
72302SOL    HW128885   8.378   3.521   9.057  0.8826 -1.2839  0.3237
72302SOL    HW228886   8.470   3.639   9.033 -0.1258 -0.9313 -2.0977
72303SOL     OW28887  11.564   8.015  10.704 -0.1450 -0.3597  0.4114
72303SOL    HW128888  11.528   8.000  10.792  0.8326  1.0597  1.0796
72303SOL    HW228889  11.655   7.985  10.710  0.6890  2.0108  0.6625
72304SOL     OW28890   4.174   4.631   1.021  0.4160  0.3935  0.3255
72304SOL    HW128891   4.225   4.565   1.068 -1.9147 -0.3726  1.9737
72304SOL    HW228892   4.159   4.593   0.934 -1.2197 -1.5510  1.3652
72305SOL     OW28893   4.373   7.932   8.803  0.5033  0.7046 -0.3239
72305SOL    HW128894   4.365   7.908   8.895  1.4948 -1.1793 -0.6860
72305SOL    HW228895   4.300   7.992   8.787  1.7754  3.1951  2.2975
72306SOL     OW28896   0.571   0.315   9.586  0.5156  0.1116  0.0118
72306SOL    HW128897   0.640   0.361   9.539  1.1815  0.3000  1.1386
72306SOL    HW228898   0.593   0.326   9.678  0.2498 -1.7727  0.3404
72307SOL     OW28899   5.578   6.477  10.583  0.2885 -0.6537 -0.2303
72307SOL    HW128900   5.653   6.434  10.624  0.7102  0.8997  0.6766
72307SOL    HW228901   5.613   6.556  10.542 -0.8465  0.1525  0.2908
72308SOL     OW28902  11.125   8.061   2.528  0.2753  0.7546  0.2500
72308SOL    HW128903  11.197   8.001   2.550  1.1008  1.6602  0.0752
72308SOL    HW228904  11.103   8.041   2.437 -2.1296 -1.9612  1.2590
72309SOL     OW28905   2.225   9.958  11.452 -0.4039  0.1697  0.1997
72309SOL    HW128906   2.178   9.995  11.377  1.2786  1.3767 -0.3233
72309SOL    HW228907   2.210   9.864  11.446 -2.1769  0.4603 -0.3183
72310SOL     OW28908   1.972  11.758   5.968  0.6423 -0.4690 -0.1422
72310SOL    HW128909   1.935  11.695   5.906  1.1747 -0.6244 -0.3065
72310SOL    HW228910   2.051  11.716   6.000  1.5894  0.5562 -1.0589
72311SOL     OW28911  12.553  10.180   9.522 -0.2633 -0.0367 -0.1036
72311SOL    HW128912  12.535  10.238   9.596  0.2552  0.7243 -0.5757
72311SOL    HW228913  12.608  10.111   9.559  0.7654  0.8410  0.0227
72312SOL     OW28914   3.413  13.525  11.867  0.0905 -0.7334 -0.5844
72312SOL    HW128915   3.323  13.558  11.864 -0.2279 -1.6200 -1.5300
72312SOL    HW228916   3.466  13.598  11.834 -0.0264  0.4802  1.7367
72313SOL     OW28917   4.584   2.567  11.450  0.3786 -0.1928  0.2011
72313SOL    HW128918   4.636   2.626  11.505  0.6436  0.1059 -0.3635
72313SOL    HW228919   4.554   2.499  11.510  0.9819 -0.0784  0.6449
72314SOL     OW28920  10.216   4.498   6.900 -0.5506 -0.1604 -0.2402
72314SOL    HW128921  10.148   4.479   6.835  0.3797 -1.4705 -0.8663
72314SOL    HW228922  10.293   4.520   6.848 -0.0285 -0.3699  0.4314
72315SOL     OW28923   6.875   8.702  11.537 -0.6564 -0.1412  0.0089
72315SOL    HW128924   6.844   8.640  11.604  1.5794 -0.9321  0.3934
72315SOL    HW228925   6.801   8.711  11.477 -1.2408 -2.8593  0.1944
72316SOL     OW28926   1.506   4.061  10.108  0.2628 -0.4240 -0.0054
72316SOL    HW128927   1.435   4.025  10.161 -2.0805  1.8281 -1.3882
72316SOL    HW228928   1.503   4.011  10.026  0.8529 -0.8824  0.2470
72317SOL     OW28929  12.177   7.679  11.986 -0.2448  0.1324  0.4965
72317SOL    HW128930  12.199   7.640  12.070 -1.4993 -2.7289 -0.3933
72317SOL    HW228931  12.255   7.668  11.932 -0.0066  0.4655  0.7696
72318SOL     OW28932   3.588   7.166   0.564 -0.2734  0.0882 -0.1780
72318SOL    HW128933   3.605   7.119   0.482 -0.6358 -1.3409  0.5407
72318SOL    HW228934   3.662   7.227   0.572  0.3256 -0.4929 -1.0360
72319SOL     OW28935   4.208  11.019   8.146  0.3756  0.9649 -0.7587
72319SOL    HW128936   4.155  10.947   8.182 -1.3019  2.7960  0.6841
72319SOL    HW228937   4.277  11.031   8.210  0.7137  0.5959 -1.0496
72320SOL     OW28938   9.837   9.727  12.982 -0.2059  0.5869 -0.5577
72320SOL    HW128939   9.916   9.762  12.940 -0.4584  0.0697 -1.4942
72320SOL    HW228940   9.782   9.698  12.909 -0.5327 -0.6212  0.1406
72321SOL     OW28941   5.935  12.441   9.308  0.1143  0.4293  0.2036
72321SOL    HW128942   5.955  12.515   9.366  1.3601 -0.4701  0.9657
72321SOL    HW228943   6.018  12.421   9.265  0.3133 -1.7114  1.4369
72322SOL     OW28944  12.468   1.009  11.877 -0.0364  0.1278  0.2506
72322SOL    HW128945  12.391   0.955  11.862  0.6506 -1.0174  0.7780
72322SOL    HW228946  12.434   1.099  11.876 -1.3389 -0.3433  0.2939
72323SOL     OW28947   8.776   8.170   0.229 -0.0620  0.6495  0.0388
72323SOL    HW128948   8.793   8.186   0.322  0.9503 -1.4524  0.2571
72323SOL    HW228949   8.797   8.254   0.187  2.5378  0.7637  1.3516
72324SOL     OW28950   0.062   0.603   8.691  0.3244  0.0831  0.2758
72324SOL    HW128951  -0.020   0.603   8.741  0.3469 -0.2204  0.3109
72324SOL    HW228952   0.125   0.644   8.750 -0.1984  1.9715 -0.4025
72325SOL     OW28953   3.070   2.858  13.058 -0.0554  0.7778  0.0010
72325SOL    HW128954   3.140   2.847  13.123 -1.6444 -1.2240  1.4849
72325SOL    HW228955   3.034   2.770  13.047 -2.4876  1.7731 -0.5344
72326SOL     OW28956   8.213  11.445   3.730  0.1054 -0.4878 -0.3868
72326SOL    HW128957   8.194  11.418   3.640  1.4144  2.0082 -1.4963
72326SOL    HW228958   8.298  11.488   3.725 -1.4143  3.1384  1.2379
72327SOL     OW28959   5.299  11.892   7.329 -0.1952 -0.6993 -0.7691
72327SOL    HW128960   5.358  11.915   7.257 -1.1364  0.3264 -1.2465
72327SOL    HW228961   5.216  11.936   7.307  0.1390  1.7390  2.1154
72328SOL     OW28962  11.815  10.400   8.703  0.3747  0.5848  0.3570
72328SOL    HW128963  11.803  10.429   8.794 -0.1005 -1.4274  0.9720
72328SOL    HW228964  11.903  10.430   8.680 -0.0185  2.3319  0.9778
72329SOL     OW28965   1.234   5.826   8.538  0.0243  0.2725  0.1452
72329SOL    HW128966   1.174   5.765   8.495 -0.1917  0.2625  0.4552
72329SOL    HW228967   1.223   5.909   8.491  0.9929 -0.1500 -0.8794
72330SOL     OW28968  11.041   4.303   4.777 -0.1859  0.4136  0.1037
72330SOL    HW128969  11.033   4.233   4.713  1.6114  0.8594 -0.6772
72330SOL    HW228970  11.004   4.380   4.733  1.1425  0.7438 -0.4994
72331SOL     OW28971  10.867  10.567   0.114  0.0118 -0.3777  0.0646
72331SOL    HW128972  10.802  10.518   0.164 -1.6082 -0.8863 -2.3331
72331SOL    HW228973  10.816  10.635   0.070  1.1447 -0.5510 -1.5987
72332SOL     OW28974   1.628   0.022  10.181  0.3299  0.2092  0.0751
72332SOL    HW128975   1.633   0.117  10.170 -0.1264  0.5471  2.3112
72332SOL    HW228976   1.654  -0.013  10.096  2.2989  2.2980 -0.2911
72333SOL     OW28977   8.371   8.061  13.579  0.3498 -0.8953  0.0705
72333SOL    HW128978   8.403   7.987  13.528  2.0620 -0.0074 -0.2109
72333SOL    HW228979   8.421   8.058  13.661 -0.6230 -0.8800  0.6864
72334SOL     OW28980  12.577   5.427  12.050  0.3908  0.4713 -1.1795
72334SOL    HW128981  12.560   5.395  12.138  0.3280  1.4917 -0.8049
72334SOL    HW228982  12.497   5.405  12.001 -0.3602  1.5569 -0.4899
72335SOL     OW28983  12.290   5.684   7.993  0.0775 -0.4200  0.1229
72335SOL    HW128984  12.345   5.716   8.065  0.4465  1.0892 -0.7644
72335SOL    HW228985  12.262   5.764   7.948 -1.4149 -1.2541 -0.4952
72336SOL     OW28986   4.329  13.375  12.303 -0.5191  0.8190  0.5086
72336SOL    HW128987   4.406  13.358  12.358 -1.5390  0.5803  1.9320
72336SOL    HW228988   4.317  13.294  12.254  0.1886  0.8913  0.2057
72337SOL     OW28989   1.868   5.280  13.524  0.4639  0.3887 -0.3635
72337SOL    HW128990   1.862   5.317  13.436 -1.5557  0.5487 -0.2048
72337SOL    HW228991   1.866   5.185  13.509 -3.2203  0.3461 -0.4452
72338SOL     OW28992   9.248   4.746  11.057  0.2092 -0.2495  0.1021
72338SOL    HW128993   9.267   4.773  11.146  2.3867 -0.2770 -0.3056
72338SOL    HW228994   9.221   4.826  11.012  0.0148 -0.0694  0.5314
72339SOL     OW28995   1.055   8.446   5.444 -0.6529 -0.0282  0.2973
72339SOL    HW128996   1.072   8.354   5.463 -3.4123 -0.1937  2.6498
72339SOL    HW228997   1.067   8.454   5.349  3.3767 -1.7981  0.4562
72340SOL     OW28998   1.372   6.290  11.296  0.2861  0.4856 -0.5157
72340SOL    HW128999   1.320   6.210  11.309  0.1077  0.6398 -0.2603
72340SOL    HW229000   1.421   6.299  11.378 -1.0204  1.5926  0.1893
72341SOL     OW29001   3.062  13.592  12.129 -0.0391 -0.3726 -0.2997
72341SOL    HW129002   3.054  13.506  12.170  0.7365 -0.7387 -0.8978
72341SOL    HW229003   3.105  13.646  12.195 -1.2532 -0.1970  0.3929
72342SOL     OW29004  12.309   7.593   0.344  0.5472  0.3228 -0.1468
72342SOL    HW129005  12.359   7.559   0.419 -1.6900 -0.7847  0.9580
72342SOL    HW229006  12.349   7.678   0.325  2.3949 -0.2033  1.0542
72343SOL     OW29007   8.035  12.744   7.406 -0.5328  0.0703 -0.3221
72343SOL    HW129008   8.043  12.782   7.319 -0.1605 -1.9280 -1.2306
72343SOL    HW229009   7.985  12.663   7.393  0.7824 -1.0340  1.0284
72344SOL     OW29010   7.457   1.556  10.415  0.2668  0.0940 -0.0334
72344SOL    HW129011   7.536   1.558  10.468  0.1675  2.0812  0.1180
72344SOL    HW229012   7.397   1.498  10.461  0.9490  0.1130  0.8896
72345SOL     OW29013   3.224   8.288  10.921 -0.1610 -0.0627 -0.3327
72345SOL    HW129014   3.148   8.238  10.951 -0.2694  0.5999  0.5240
72345SOL    HW229015   3.220   8.282  10.825 -0.4296 -1.2983 -0.2599
72346SOL     OW29016  13.779   6.629   4.726 -0.0349  0.0450  0.2537
72346SOL    HW129017  13.863   6.668   4.700  0.2262  1.0032  2.3610
72346SOL    HW229018  13.783   6.624   4.821 -2.3117 -0.0506  0.3973
72347SOL     OW29019  13.847   0.028  10.087 -0.3099 -0.2164  0.0197
72347SOL    HW129020  13.793   0.103  10.112 -1.4608 -0.6454 -1.0409
72347SOL    HW229021  13.930   0.066  10.059 -0.8055  0.6610 -0.3180
72348SOL     OW29022   2.757   1.960   1.418  0.5739 -0.1549 -0.5593
72348SOL    HW129023   2.828   1.899   1.397  0.1744 -2.0923  2.8248
72348SOL    HW229024   2.793   2.015   1.488 -0.6116  0.0832 -0.1105
72349SOL     OW29025   4.458   5.161  10.358 -0.2303  0.0326  0.3127
72349SOL    HW129026   4.461   5.078  10.311  1.3662  0.0917  0.2669
72349SOL    HW229027   4.367   5.190  10.350 -0.7361 -1.5472  0.0648
72350SOL     OW29028   2.202  10.042   4.897  0.2989  0.3171  0.0693
72350SOL    HW129029   2.127   9.987   4.922  0.9906 -0.9525 -0.5195
72350SOL    HW229030   2.204  10.038   4.801  0.2170  1.6092 -0.0022
72351SOL     OW29031  12.941   3.940  12.909 -0.2131  0.0790 -0.0485
72351SOL    HW129032  12.979   4.022  12.879 -0.8573 -0.4774 -2.6026
72351SOL    HW229033  12.866   3.926  12.852  0.4907 -2.7966 -0.4250
72352SOL     OW29034  11.506   5.346  10.394  0.0912 -0.1750 -0.3606
72352SOL    HW129035  11.559   5.326  10.471  1.1680  0.5696 -0.8867
72352SOL    HW229036  11.420   5.367  10.429  0.3339 -0.6532  0.5695
72353SOL     OW29037   7.949   5.720   9.086  0.4258 -0.0563 -0.0608
72353SOL    HW129038   8.036   5.707   9.048 -0.0080  0.4172 -1.2538
72353SOL    HW229039   7.940   5.649   9.150  0.8195 -1.4909 -1.5198
72354SOL     OW29040   9.065   6.002   9.752 -0.5801  0.1196  0.9446
72354SOL    HW129041   9.116   6.082   9.764 -0.5248  0.2206  0.0934
72354SOL    HW229042   9.101   5.940   9.816  0.0811  0.4433  0.8930
72355SOL     OW29043   1.631   8.305  11.824 -0.4992  0.3125 -0.0902
72355SOL    HW129044   1.707   8.311  11.882 -0.1163 -0.4677 -0.4912
72355SOL    HW229045   1.577   8.235  11.862 -0.0332 -0.5082 -0.8896
72356SOL     OW29046  12.805   5.568   9.597  0.1251 -0.2918  0.0736
72356SOL    HW129047  12.842   5.513   9.529  0.1054  0.5066 -0.5997
72356SOL    HW229048  12.845   5.536   9.678  1.9103  0.1975 -0.5615
72357SOL     OW29049   1.261   0.578   0.017 -0.0452  0.0321 -0.1785
72357SOL    HW129050   1.183   0.558  -0.034 -1.5030  0.2759  1.8392
72357SOL    HW229051   1.290   0.494   0.052  0.4923 -0.0249 -0.7337
72358SOL     OW29052   4.785   8.662   5.774 -0.2681 -0.0732 -0.2032
72358SOL    HW129053   4.838   8.698   5.845 -1.5434  1.4458  0.0362
72358SOL    HW229054   4.840   8.670   5.697  0.3130  0.3494  0.2433
72359SOL     OW29055   5.828  11.373  13.288  0.2495 -0.2097 -0.4482
72359SOL    HW129056   5.764  11.335  13.227 -0.4666  0.9290 -0.4598
72359SOL    HW229057   5.775  11.428  13.346  1.2869  1.3698 -0.9349
72360SOL     OW29058   2.252  11.556  13.589  0.7228 -0.7875  0.8381
72360SOL    HW129059   2.176  11.541  13.645  1.3725  0.6286  2.1668
72360SOL    HW229060   2.302  11.475  13.595 -0.2104 -1.3991  0.6694
72361SOL     OW29061  13.625   9.441   3.820 -0.1451 -0.0843 -0.2893
72361SOL    HW129062  13.686   9.370   3.800  0.8794  0.6013  0.3030
72361SOL    HW229063  13.625   9.447   3.916 -2.0387 -0.8152 -0.2136
72362SOL     OW29064   9.642   3.243  13.996  0.6480 -0.0239  0.0049
72362SOL    HW129065   9.669   3.153  13.977  0.3354 -0.8343  2.8987
72362SOL    HW229066   9.656   3.253  14.090  0.7032  3.0093 -0.2225
72363SOL     OW29067  10.202   7.963   9.827 -0.3109 -0.8976  0.4299
72363SOL    HW129068  10.208   7.869   9.844 -1.1581 -0.8791  0.8699
72363SOL    HW229069  10.278   8.001   9.870  0.2086 -1.4165 -0.0184
72364SOL     OW29070  12.081   1.033   4.670  0.6351  0.3980  0.1295
72364SOL    HW129071  12.126   0.949   4.671  1.9111  1.0631  0.1327
72364SOL    HW229072  12.014   1.023   4.602 -0.5833 -1.2677  1.4742
72365SOL     OW29073  12.183   0.509   4.504 -0.4449 -0.0090 -0.1139
72365SOL    HW129074  12.090   0.513   4.525 -0.1625  0.6556  1.0988
72365SOL    HW229075  12.187   0.466   4.419 -1.8595 -0.0081 -0.1933
72366SOL     OW29076  10.443  11.404  13.365 -0.2130 -0.3031 -0.0679
72366SOL    HW129077  10.379  11.474  13.380 -0.8946 -0.5926 -1.5424
72366SOL    HW229078  10.528  11.448  13.374 -0.6181  0.5064 -0.0480
72367SOL     OW29079   0.347   2.983   2.154 -0.5571  0.3320 -1.2234
72367SOL    HW129080   0.439   2.961   2.168 -1.0717 -0.5322  1.2915
72367SOL    HW229081   0.331   3.058   2.211 -1.9512 -1.0910  0.3674
72368SOL     OW29082   0.038   4.644   5.993 -0.1160 -0.0451 -0.0364
72368SOL    HW129083   0.121   4.596   5.984  0.0090  0.1641 -0.0026
72368SOL    HW229084  -0.022   4.599   5.934 -0.3799 -1.1019  0.9878
72369SOL     OW29085   6.079  10.807   7.494 -0.1349 -0.0186  0.2346
72369SOL    HW129086   6.090  10.882   7.435 -1.7539 -1.0188 -1.4477
72369SOL    HW229087   6.151  10.748   7.473 -0.6359 -0.3175 -0.7225
72370SOL     OW29088  10.150   0.766  13.816  0.5397 -0.1979  0.3903
72370SOL    HW129089  10.214   0.708  13.775  1.7128 -0.3031  2.2383
72370SOL    HW229090  10.115   0.715  13.889 -0.6100  0.3845  0.2697
72371SOL     OW29091  13.354   2.066   6.710  0.5735 -0.3193 -0.0252
72371SOL    HW129092  13.366   2.142   6.767 -1.8906  0.5777 -0.5798
72371SOL    HW229093  13.372   2.098   6.622  2.2518 -1.1429 -0.0096
72372SOL     OW29094   4.114   1.161   6.967 -0.0293 -0.1850  0.1631
72372SOL    HW129095   4.134   1.243   6.922  0.6771 -1.5479 -2.2001
72372SOL    HW229096   4.020   1.148   6.953  0.0456 -0.2377 -0.3015
72373SOL     OW29097  13.851   9.160   4.270 -0.1986  0.2038 -0.0538
72373SOL    HW129098  13.940   9.184   4.245 -0.1629 -0.5480 -0.7061
72373SOL    HW229099  13.858   9.068   4.297 -0.7675  0.1470 -0.0878
72374SOL     OW29100  10.516   2.079   7.066 -0.5772  0.4091 -0.3089
72374SOL    HW129101  10.533   2.170   7.043  0.9632  0.1559 -0.2963
72374SOL    HW229102  10.525   2.031   6.984 -1.0486  0.2239 -0.2549
72375SOL     OW29103   9.178   6.688   8.664 -0.1649  0.4264  0.1986
72375SOL    HW129104   9.217   6.646   8.741  1.2006  0.2814 -0.5394
72375SOL    HW229105   9.157   6.615   8.606  0.5966  0.6310 -0.3544
72376SOL     OW29106   9.072   5.720   8.890 -0.8611 -0.0575 -0.1849
72376SOL    HW129107   9.146   5.677   8.848 -0.6800 -0.3204  0.3891
72376SOL    HW229108   9.101   5.809   8.907 -1.1415  0.2185 -1.1383
72377SOL     OW29109   8.483   8.859   7.640 -0.1427 -0.6128  0.0898
72377SOL    HW129110   8.538   8.937   7.632 -1.8565  0.5134 -1.5521
72377SOL    HW229111   8.534   8.789   7.598  0.2950  0.2557 -0.8647
72378SOL     OW29112  10.683  13.298   1.519  0.1463 -0.5370  0.3018
72378SOL    HW129113  10.622  13.242   1.471 -0.7740  0.6991 -0.0318
72378SOL    HW229114  10.739  13.237   1.567  0.9107 -1.8479 -2.0786
72379SOL     OW29115   4.912   4.942   5.008 -0.3878  1.0033 -0.4661
72379SOL    HW129116   4.980   4.966   4.945 -1.0233 -1.5007 -2.2909
72379SOL    HW229117   4.838   4.916   4.953 -2.2660  2.0232  1.4316
72380SOL     OW29118   3.143   9.151   9.645 -0.3691 -0.0275 -0.1441
72380SOL    HW129119   3.134   9.204   9.566 -1.2227 -1.7131 -1.2576
72380SOL    HW229120   3.086   9.075   9.629 -1.0662 -0.1360  2.3621
72381SOL     OW29121   2.941   9.544   0.929  0.2398 -0.1699  0.0223
72381SOL    HW129122   2.946   9.450   0.913  0.5188 -0.3938  1.3496
72381SOL    HW229123   2.888   9.553   1.008  1.4916  0.6827  0.8013
72382SOL     OW29124  11.378   3.154   2.265  0.2224  0.3872 -1.0830
72382SOL    HW129125  11.375   3.132   2.172 -1.8663  0.7127 -1.1327
72382SOL    HW229126  11.407   3.245   2.267  1.7312 -0.0480 -1.2810
72383SOL     OW29127   6.753   7.610   6.838  0.1802 -0.2268 -0.0828
72383SOL    HW129128   6.753   7.705   6.828  0.6096 -0.2175 -0.0424
72383SOL    HW229129   6.845   7.586   6.826  0.2459 -0.5267  0.9319
72384SOL     OW29130   7.199  12.583   1.987 -0.3799 -0.2311 -0.1842
72384SOL    HW129131   7.272  12.638   1.959  0.1117 -0.0506  1.3768
72384SOL    HW229132   7.221  12.495   1.957  0.4466 -0.1613  0.2064
72385SOL     OW29133   9.857   8.316  12.386 -0.4159 -0.5413  0.2125
72385SOL    HW129134   9.953   8.316  12.388 -0.3520  1.8223  0.0788
72385SOL    HW229135   9.832   8.235  12.430  1.6658  0.2512  3.2020
72386SOL     OW29136  11.890  13.267  11.248  0.0157  0.1876 -0.2625
72386SOL    HW129137  11.982  13.256  11.274 -0.2999  0.2515  0.9729
72386SOL    HW229138  11.849  13.309  11.324 -1.5999 -2.1726  0.2816
72387SOL     OW29139   2.948   8.658   8.492 -0.4010  0.2446 -0.0566
72387SOL    HW129140   2.888   8.731   8.483 -1.9274 -0.9674 -0.1952
72387SOL    HW229141   2.970   8.656   8.586 -2.8470 -0.9285  0.5855
72388SOL     OW29142  10.253  10.283   6.078  0.4530  0.4392 -0.0232
72388SOL    HW129143  10.281  10.196   6.050 -3.0307 -1.2841  1.1538
72388SOL    HW229144  10.201  10.316   6.005 -1.9492 -0.5680  1.0992
72389SOL     OW29145  10.882  13.662  12.094 -0.3809 -0.9569 -0.6390
72389SOL    HW129146  10.941  13.624  12.029 -0.4241 -1.9316 -0.1181
72389SOL    HW229147  10.842  13.587  12.138 -2.1046 -0.3252 -1.0561
72390SOL     OW29148   4.886   3.240  11.163 -0.1565  0.1840 -0.2465
72390SOL    HW129149   4.939   3.163  11.177  1.5072  1.1014 -1.1861
72390SOL    HW229150   4.898   3.293  11.242 -1.5906 -0.6222  0.5608
72391SOL     OW29151  12.380   7.056   0.035  0.6160 -0.2771  0.1720
72391SOL    HW129152  12.338   6.970   0.044 -0.0354  0.2460  2.6180
72391SOL    HW229153  12.439   7.062   0.110 -2.1261  2.8465  2.3419
72392SOL     OW29154   1.959  13.966   1.642  0.4583  0.4402 -0.3724
72392SOL    HW129155   1.990  13.987   1.730  1.2006 -2.4320  0.1844
72392SOL    HW229156   1.864  13.973   1.648  0.4821  0.1101  0.7348
72393SOL     OW29157   4.966   5.197   4.010  0.2873  0.7651  0.4892
72393SOL    HW129158   4.939   5.289   4.013  1.0279  0.9807  2.7698
72393SOL    HW229159   5.061   5.200   4.020  0.7228 -0.1722 -2.4697
72394SOL     OW29160   9.441   7.154   9.064 -0.0997  0.3285 -0.0348
72394SOL    HW129161   9.421   7.107   8.982 -1.7471  2.7618 -1.1615
72394SOL    HW229162   9.499   7.225   9.037  2.6375 -1.0883  1.6847
72395SOL     OW29163   5.626  12.788   6.206  0.1235  0.7677 -0.6261
72395SOL    HW129164   5.613  12.706   6.254  0.7902 -0.9207 -3.1074
72395SOL    HW229165   5.721  12.801   6.207  0.0224  1.4886 -0.3038
72396SOL     OW29166   2.466  14.003   0.537 -0.4385  0.8388  0.8795
72396SOL    HW129167   2.412  14.016   0.615 -0.8370 -0.5529  0.8612
72396SOL    HW229168   2.405  13.976   0.469  0.3674 -2.3858  1.2665
72397SOL     OW29169  10.390  13.627  10.527  0.1502 -0.6025  0.6496
72397SOL    HW129170  10.469  13.649  10.576  0.6494 -1.9737  0.5041
72397SOL    HW229171  10.350  13.712  10.507  2.2735  0.2394 -0.4198
72398SOL     OW29172   0.287   7.209   5.396 -0.4517  0.1465 -0.6794
72398SOL    HW129173   0.280   7.289   5.344  1.9802  1.8643  1.4058
72398SOL    HW229174   0.376   7.211   5.431 -0.9129 -2.5977  0.8851
72399SOL     OW29175   4.334   0.216  10.529 -0.8410  0.2035 -0.4004
72399SOL    HW129176   4.305   0.306  10.518  0.4113  0.6389 -0.3459
72399SOL    HW229177   4.292   0.188  10.610  2.1581  2.3072  2.1682
72400SOL     OW29178   8.909   5.391   3.087 -0.0143 -0.3212  0.1356
72400SOL    HW129179   8.969   5.446   3.037 -1.2301 -1.8321 -3.3135
72400SOL    HW229180   8.966   5.335   3.140  1.6608 -0.8828 -2.0916
72401SOL     OW29181   4.716   4.193   0.812  1.2235  0.4391  0.2610
72401SOL    HW129182   4.645   4.129   0.813  0.4170  1.2553 -1.1791
72401SOL    HW229183   4.694   4.255   0.881  1.2738 -0.0662  0.7353
72402SOL     OW29184   0.309   3.204  12.612 -0.2133 -0.3496 -0.6224
72402SOL    HW129185   0.235   3.220  12.670 -0.1679 -0.1198 -0.6258
72402SOL    HW229186   0.323   3.287  12.567 -1.2030 -0.9414 -2.0951
72403SOL     OW29187   7.067   4.055   9.999  0.2911 -0.0092 -0.7855
72403SOL    HW129188   6.974   4.040   9.982 -0.2487  1.4995  0.6340
72403SOL    HW229189   7.093   3.983  10.056 -0.2829  0.1367 -0.3313
72404SOL     OW29190   4.780   4.149   8.651 -0.1463 -0.1199 -0.4064
72404SOL    HW129191   4.728   4.196   8.717 -0.1590 -0.1826 -0.3717
72404SOL    HW229192   4.803   4.066   8.693  0.0885 -0.0409 -0.3772
72405SOL     OW29193   1.451  12.738   2.124  0.6403 -0.2023  0.2330
72405SOL    HW129194   1.393  12.697   2.188  1.1769 -0.5498  0.5080
72405SOL    HW229195   1.422  12.829   2.120  1.2945  0.1148  1.8219
72406SOL     OW29196   4.956   1.040   8.993  0.4282 -0.1719 -0.7188
72406SOL    HW129197   4.893   0.986   8.946  2.0267 -2.3323 -0.5160
72406SOL    HW229198   4.940   1.020   9.086 -0.0539  1.0229 -0.5187
72407SOL     OW29199   5.132   9.776   4.113 -0.1776 -0.0748 -0.9805
72407SOL    HW129200   5.223   9.791   4.086 -0.2309 -0.0543 -1.1499
72407SOL    HW229201   5.101   9.707   4.055 -0.2511 -0.1257 -0.8804
72408SOL     OW29202   2.808   2.699  10.021 -0.1953 -0.1077 -0.1760
72408SOL    HW129203   2.784   2.621  10.071  0.1154  0.6293  1.1659
72408SOL    HW229204   2.898   2.719  10.050 -0.3658  0.8946 -0.3049
72409SOL     OW29205   1.006  13.387  10.918 -0.0301  0.3381 -0.1337
72409SOL    HW129206   1.041  13.372  11.005 -0.1566 -0.5866 -0.2285
72409SOL    HW229207   1.064  13.337  10.860 -0.3041  0.4454 -0.5065
72410SOL     OW29208   9.812   9.338  12.922 -0.0389 -0.1928 -0.9015
72410SOL    HW129209   9.852   9.420  12.950 -1.5892  0.4503 -0.4478
72410SOL    HW229210   9.829   9.277  12.993  0.0805  0.0785 -0.6963
72411SOL     OW29211   2.992   5.501   3.843 -0.1593 -0.5712 -0.4284
72411SOL    HW129212   3.072   5.550   3.827  0.0038 -1.0523 -1.1317
72411SOL    HW229213   2.961   5.531   3.928  1.0822 -0.7944  0.1137
72412SOL     OW29214   6.160  12.875  12.540 -0.8157 -0.5269 -0.1270
72412SOL    HW129215   6.071  12.854  12.569 -1.2411 -0.3326 -1.2572
72412SOL    HW229216   6.157  12.869  12.445  0.1604  0.3277 -0.2370
72413SOL     OW29217   0.167   8.486   6.482 -0.5065 -0.7511  0.6112
72413SOL    HW129218   0.247   8.434   6.480 -0.0732 -0.1061  0.8140
72413SOL    HW229219   0.102   8.429   6.523 -0.4469 -1.6622 -0.4896
72414SOL     OW29220   2.274   1.402   9.363  0.0668  0.1057 -0.0016
72414SOL    HW129221   2.275   1.498   9.371 -1.2184  0.1666 -0.3651
72414SOL    HW229222   2.271   1.370   9.454 -1.2621  0.4606  0.0914
72415SOL     OW29223  13.539  13.937   6.202 -0.0548 -0.3660 -0.1926
72415SOL    HW129224  13.507  13.916   6.115 -0.5040  0.4836 -0.2343
72415SOL    HW229225  13.622  13.890   6.209  0.3161  0.0950 -1.3317
72416SOL     OW29226   8.776   5.173   1.761 -0.3580  0.7006 -0.7453
72416SOL    HW129227   8.866   5.141   1.756 -0.3455  0.2610  1.4309
72416SOL    HW229228   8.785   5.267   1.777 -0.2432  0.5127  0.3662
72417SOL     OW29229   9.937  10.161   0.379 -0.3423  0.4704  0.8373
72417SOL    HW129230   9.858  10.112   0.354  1.1571 -1.1055 -1.1202
72417SOL    HW229231   9.911  10.253   0.375 -1.9910 -0.0046 -0.0789
72418SOL     OW29232  13.142   8.467   4.087  0.0585 -0.0392 -0.6790
72418SOL    HW129233  13.181   8.525   4.022  1.5481 -1.2141 -0.8969
72418SOL    HW229234  13.142   8.381   4.045 -1.0205 -0.4272  0.0639
72419SOL     OW29235   1.722   3.933  13.178 -1.0836  0.0909  0.1303
72419SOL    HW129236   1.695   3.841  13.177 -1.3726  0.1484  1.3197
72419SOL    HW229237   1.810   3.932  13.216 -0.6600  0.2173 -0.8167
72420SOL     OW29238   6.016  13.479   8.726 -0.1599  0.0242  0.9133
72420SOL    HW129239   6.074  13.417   8.769 -2.3396 -1.7195  1.5388
72420SOL    HW229240   5.962  13.426   8.668 -1.0257  1.5791  0.2132
72421SOL     OW29241   7.661  12.089  13.435 -0.0230  0.0237 -0.2137
72421SOL    HW129242   7.710  12.147  13.493 -0.1152  0.6709 -0.7634
72421SOL    HW229243   7.618  12.027  13.493 -0.3569  0.8400  0.4323
72422SOL     OW29244  11.311   4.943   2.778 -0.1681 -0.0662  0.0076
72422SOL    HW129245  11.301   5.037   2.765  1.2124  0.0832 -0.1368
72422SOL    HW229246  11.373   4.916   2.710 -0.0152 -0.9554  0.4843
72423SOL     OW29247   9.811  12.588  12.379  0.1474 -0.0254  0.2733
72423SOL    HW129248   9.808  12.682  12.361 -1.3759 -0.3742 -1.6679
72423SOL    HW229249   9.745  12.574  12.447 -0.0462  0.2153  0.1314
72424SOL     OW29250   0.182   1.129   8.661  0.0126 -0.4010  0.3468
72424SOL    HW129251   0.146   1.045   8.633  0.3565  0.1363 -1.8308
72424SOL    HW229252   0.275   1.113   8.676 -0.0846 -0.5824  0.7813
72425SOL     OW29253   9.327   5.303  13.685 -0.4121 -0.1250 -0.0765
72425SOL    HW129254   9.353   5.339  13.769  0.4815  0.2986 -0.5142
72425SOL    HW229255   9.400   5.323  13.627 -1.1156 -0.1842 -1.0137
72426SOL     OW29256  13.496   9.178   1.935 -0.1155 -0.4911  0.4906
72426SOL    HW129257  13.424   9.152   1.878 -1.5262  2.1069  0.9086
72426SOL    HW229258  13.575   9.154   1.887 -1.2484  0.4617 -2.0144
72427SOL     OW29259   9.574  10.611  11.494 -0.1659  0.0721  0.0673
72427SOL    HW129260   9.545  10.607  11.585  1.1612  2.5365  0.7115
72427SOL    HW229261   9.667  10.588  11.498  0.0996  0.9844 -0.4964
72428SOL     OW29262   2.933   8.985   8.567  0.6610 -0.3368  0.0388
72428SOL    HW129263   2.842   9.013   8.564  0.8192  0.1363 -0.7118
72428SOL    HW229264   2.938   8.924   8.640 -0.8537 -2.4649 -1.5139
72429SOL     OW29265   8.697  13.997   9.655  0.3332  0.2992 -0.1778
72429SOL    HW129266   8.710  13.913   9.699 -0.0311  0.2449 -0.1754
72429SOL    HW229267   8.765  14.054   9.693  0.3219  0.1230  0.1151
72430SOL     OW29268   0.425   0.730   7.519  0.1529 -0.3681 -0.1128
72430SOL    HW129269   0.516   0.724   7.548  0.1183 -0.1371  0.0496
72430SOL    HW229270   0.419   0.815   7.476 -0.0144 -0.3279 -0.0136
72431SOL     OW29271   2.523   4.203   7.428  0.0478  0.4129 -0.4754
72431SOL    HW129272   2.528   4.207   7.524  0.2535 -1.6271 -0.3543
72431SOL    HW229273   2.596   4.147   7.403 -2.0559 -2.0409 -1.5040
72432SOL     OW29274   8.681  10.447  10.662 -0.2534 -0.1960 -0.3492
72432SOL    HW129275   8.757  10.444  10.603  0.3928  0.2115  0.4420
72432SOL    HW229276   8.681  10.537  10.696 -0.0997 -0.6642  0.9236
72433SOL     OW29277   3.690   3.220  11.069  0.2772 -0.2083 -0.1540
72433SOL    HW129278   3.765   3.161  11.068  0.4126 -0.0878  1.3145
72433SOL    HW229279   3.727   3.307  11.084 -0.1096 -0.0627 -0.0083
72434SOL     OW29280   0.849   3.841   0.412 -0.0230 -0.3832  0.3415
72434SOL    HW129281   0.828   3.851   0.319  1.5197 -2.2499 -0.2531
72434SOL    HW229282   0.928   3.893   0.425  1.0699 -1.9256  0.0469
72435SOL     OW29283   6.566   6.233   8.445 -0.3890 -0.2323  0.5809
72435SOL    HW129284   6.542   6.324   8.461  0.1368 -0.3374  2.1339
72435SOL    HW229285   6.483   6.186   8.443 -0.6210  0.1802  0.5372
72436SOL     OW29286   8.116  11.876   4.941  0.1792 -0.2132 -0.3119
72436SOL    HW129287   8.060  11.874   5.019 -0.2656  0.6465 -0.5904
72436SOL    HW229288   8.183  11.810   4.958 -0.4485 -0.6946  0.3860
72437SOL     OW29289   1.348   8.247  12.900 -0.1348 -0.0193  0.2967
72437SOL    HW129290   1.423   8.229  12.956  0.1656  0.5233  0.0774
72437SOL    HW229291   1.288   8.297  12.955  0.6314  1.4584 -0.1621
72438SOL     OW29292   3.631   5.700   1.419  0.5860  0.1582  0.5438
72438SOL    HW129293   3.700   5.764   1.400  1.2801 -0.3239  1.3435
72438SOL    HW229294   3.550   5.744   1.394  1.1552  0.8604 -0.1281
72439SOL     OW29295  12.923   3.740  10.874 -0.0711 -0.4479 -1.0343
72439SOL    HW129296  12.997   3.764  10.818 -0.3324  0.0897 -1.1559
72439SOL    HW229297  12.939   3.648  10.897  1.4731  0.0821  0.2355
72440SOL     OW29298   7.571   7.360   5.921 -0.3433 -0.3870 -0.5727
72440SOL    HW129299   7.501   7.371   5.985 -0.6909  0.4862 -1.0788
72440SOL    HW229300   7.646   7.328   5.972 -0.1070  1.8187  0.5951
72441SOL     OW29301  12.680   9.176  13.214  0.2475  0.2779  0.1348
72441SOL    HW129302  12.757   9.134  13.176  1.0150 -0.0110  1.9403
72441SOL    HW229303  12.606   9.135  13.169  1.1045  0.1250 -1.1959
72442SOL     OW29304  12.685   5.224   7.937 -0.3174 -0.1519 -0.2198
72442SOL    HW129305  12.748   5.194   8.003 -0.1968 -0.0528 -0.2908
72442SOL    HW229306  12.712   5.180   7.856  0.4731  0.9112 -0.5598
72443SOL     OW29307  13.085   1.589   6.900 -0.6795  0.7289 -0.2231
72443SOL    HW129308  13.115   1.595   6.991 -0.4895 -0.4799 -0.1959
72443SOL    HW229309  13.098   1.677   6.865  0.5193  0.8660  0.5235
72444SOL     OW29310   2.878  10.683   4.108 -0.7195  0.1032 -0.4653
72444SOL    HW129311   2.942  10.702   4.039  0.8004  0.0830  0.8876
72444SOL    HW229312   2.816  10.755   4.103  0.8765  1.5701 -0.1476
72445SOL     OW29313   1.186  13.783   5.043  0.0570 -0.6925  0.3382
72445SOL    HW129314   1.276  13.757   5.061 -0.0341 -0.0689  1.8488
72445SOL    HW229315   1.137  13.701   5.043  0.4248 -0.9204  0.8219
72446SOL     OW29316   5.749   3.803   0.390 -0.3173 -0.0839 -0.1994
72446SOL    HW129317   5.747   3.853   0.308 -2.0946 -2.2701 -1.6032
72446SOL    HW229318   5.750   3.870   0.459  1.8771  1.8348 -1.9151
72447SOL     OW29319   3.429   5.021  11.344  0.2980 -0.0626  0.0839
72447SOL    HW129320   3.439   4.932  11.376  1.7216  0.0107 -0.0919
72447SOL    HW229321   3.337   5.043  11.360 -0.4288 -2.0309 -1.1222
72448SOL     OW29322  10.058   2.970   7.590  0.2325  0.1967 -0.8577
72448SOL    HW129323  10.013   3.052   7.571  0.8333  0.1983 -2.3988
72448SOL    HW229324  10.132   2.968   7.530 -0.3366 -1.9224 -1.5694
72449SOL     OW29325   6.308   7.835  10.405 -0.1940  0.4281 -0.2472
72449SOL    HW129326   6.340   7.921  10.433  0.9320 -0.3520  1.0042
72449SOL    HW229327   6.252   7.806  10.477 -0.5764  0.1107 -0.6675
72450SOL     OW29328   2.557   2.867   9.621 -0.2240  0.0351 -0.1768
72450SOL    HW129329   2.512   2.939   9.576  0.3296 -1.3139 -3.1323
72450SOL    HW229330   2.490   2.800   9.631 -0.5548  0.6110  1.9298
72451SOL     OW29331  11.040   4.830   8.308 -0.2422  0.4019  0.0430
72451SOL    HW129332  10.992   4.890   8.366  0.0315  0.7371 -0.0761
72451SOL    HW229333  11.004   4.744   8.328 -2.3665  0.8545 -1.4727
72452SOL     OW29334  12.163   6.646   9.995  0.7436  0.0988  0.4098
72452SOL    HW129335  12.190   6.608   9.912  1.5552  0.1332  0.6455
72452SOL    HW229336  12.246   6.670  10.038  0.3285  0.2310  1.1490
72453SOL     OW29337  14.008   7.818   2.234  0.2858 -0.7281 -0.2862
72453SOL    HW129338  14.054   7.736   2.214  0.3496 -1.1591  1.4109
72453SOL    HW229339  14.011   7.824   2.330 -0.5938  0.7618 -0.3167
72454SOL     OW29340   7.173   4.136   3.271  0.2399  0.3708 -0.0989
72454SOL    HW129341   7.245   4.075   3.250 -0.0798  0.4748 -1.5882
72454SOL    HW229342   7.148   4.112   3.360  1.3022 -0.4965 -0.0017
72455SOL     OW29343   9.783   3.895  13.471 -0.5678 -0.1824 -0.2779
72455SOL    HW129344   9.791   3.908  13.376  1.8897 -1.4365 -0.3358
72455SOL    HW229345   9.747   3.807  13.480 -1.7457  0.3127 -0.0121
72456SOL     OW29346   5.756   9.684   1.142  0.2161 -0.3734 -0.0468
72456SOL    HW129347   5.793   9.644   1.064  3.0330  0.4415  0.7598
72456SOL    HW229348   5.746   9.612   1.204 -4.2810 -1.4985 -1.7212
72457SOL     OW29349   4.466  12.321   2.046 -0.2202  0.2854 -0.4172
72457SOL    HW129350   4.391  12.275   2.009 -0.4983  1.7019 -1.7282
72457SOL    HW229351   4.431  12.368   2.121 -0.0149 -1.2641  0.6924
72458SOL     OW29352   3.509   4.461   4.974 -0.1818 -0.2610  0.0015
72458SOL    HW129353   3.414   4.447   4.970 -0.1120 -0.6729 -0.2836
72458SOL    HW229354   3.542   4.429   4.890  0.3634 -1.4280  0.6397
72459SOL     OW29355  13.541  11.451  10.412 -0.2204  0.3404  0.4861
72459SOL    HW129356  13.534  11.378  10.350 -0.9870  0.6119  0.2325
72459SOL    HW229357  13.634  11.474  10.413 -0.2788  0.8103 -1.1412
72460SOL     OW29358   6.642   9.736   0.207 -0.3271 -0.2683 -0.4514
72460SOL    HW129359   6.735   9.737   0.183 -0.0704 -1.6109  0.3497
72460SOL    HW229360   6.596   9.717   0.126  0.2738 -1.6476 -0.4915
72461SOL     OW29361   4.145   7.956   0.261 -0.0931 -0.0536 -0.5776
72461SOL    HW129362   4.081   7.919   0.199  0.1895 -0.7974 -0.4355
72461SOL    HW229363   4.230   7.930   0.226  0.0336 -2.3315  1.2060
72462SOL     OW29364   4.606   6.911   6.588 -0.1765  0.1783 -0.1415
72462SOL    HW129365   4.587   7.005   6.597  2.0095  0.5360  1.6412
72462SOL    HW229366   4.523   6.868   6.611 -0.6334  1.6596  1.2510
72463SOL     OW29367   1.223   0.579   3.308 -0.1341  0.1514  0.1643
72463SOL    HW129368   1.310   0.546   3.285  0.1098  0.8510  0.0548
72463SOL    HW229369   1.173   0.573   3.226  0.3847  1.5321 -0.2789
72464SOL     OW29370  12.902  10.060   8.316 -0.1510 -0.1610  0.0937
72464SOL    HW129371  12.930  10.128   8.255 -0.0383 -0.2724  0.0209
72464SOL    HW229372  12.967   9.990   8.306 -1.2136 -1.0292 -1.1148
72465SOL     OW29373   4.455  12.541   0.336  0.0498 -0.7869 -0.9750
72465SOL    HW129374   4.531  12.558   0.280  0.5008 -0.8499 -0.3809
72465SOL    HW229375   4.424  12.454   0.308 -0.1881 -0.4946 -1.6459
72466SOL     OW29376   2.072  10.231   4.344 -0.1752 -0.0081  0.2308
72466SOL    HW129377   2.161  10.219   4.376 -0.2934 -0.8613  0.2487
72466SOL    HW229378   2.019  10.239   4.423 -0.0557  1.0093  0.2190
72467SOL     OW29379   4.978   1.175   9.427 -0.2727  0.3198  1.1051
72467SOL    HW129380   4.937   1.258   9.402  1.3103  0.7679 -0.1976
72467SOL    HW229381   5.072   1.193   9.425  0.0959 -1.4309  1.0702
72468SOL     OW29382   6.757   6.156   0.631 -0.3510  0.2854 -0.5305
72468SOL    HW129383   6.813   6.206   0.572  0.7104  1.0039  1.0212
72468SOL    HW229384   6.816   6.125   0.699 -1.6079 -0.1542  0.3898
72469SOL     OW29385   8.197   5.933   7.453 -0.1505 -0.1811  0.1491
72469SOL    HW129386   8.162   5.910   7.539  1.4997  0.9517  1.1920
72469SOL    HW229387   8.276   5.880   7.444 -0.7297 -0.8823 -1.0647
72470SOL     OW29388   8.973   7.775  10.926  0.1720 -0.5129 -0.3015
72470SOL    HW129389   8.955   7.681  10.925 -0.2375 -0.4589  0.9082
72470SOL    HW229390   8.913   7.811  10.860  0.5920 -1.1326 -1.0384
72471SOL     OW29391   7.012   3.471  13.562 -0.6071  0.1230 -0.2251
72471SOL    HW129392   6.986   3.500  13.649 -0.2888  0.5060 -0.2556
72471SOL    HW229393   6.978   3.382  13.555  1.5231 -0.8947  1.2734
72472SOL     OW29394   6.139   2.918   3.466  0.0088  0.3946  0.4584
72472SOL    HW129395   6.116   3.000   3.423 -0.2470  0.7296  1.2236
72472SOL    HW229396   6.207   2.880   3.410 -0.1056  0.9599 -0.0786
72473SOL     OW29397   2.937   4.921   9.269  0.2690 -0.0396  0.2404
72473SOL    HW129398   2.863   4.946   9.214  0.5138 -2.8048 -1.5077
72473SOL    HW229399   2.906   4.845   9.319  1.0127  0.6094  1.7679
72474SOL     OW29400   3.723  10.438   5.553  0.6648  0.2270 -0.5030
72474SOL    HW129401   3.700  10.422   5.461  1.7433 -1.2155 -0.5558
72474SOL    HW229402   3.667  10.511   5.579  1.6364  1.8963 -2.8220
72475SOL     OW29403   7.347  10.272   1.873 -0.0804 -0.0467  0.0572
72475SOL    HW129404   7.349  10.178   1.852 -1.9018 -0.4225  1.3765
72475SOL    HW229405   7.310  10.313   1.795  1.6037 -0.2536 -0.9118
72476SOL     OW29406  10.962   4.532   5.551  0.3450 -0.2515 -0.5229
72476SOL    HW129407  10.878   4.526   5.505  0.1012  1.1751 -0.3126
72476SOL    HW229408  10.939   4.564   5.638  1.2347  1.9000 -1.0212
72477SOL     OW29409   8.201   6.560   9.425  0.5087  0.2755 -0.7383
72477SOL    HW129410   8.219   6.523   9.511  2.2582 -1.3960 -1.7388
72477SOL    HW229411   8.137   6.501   9.386  0.4451  0.4866 -0.9582
72478SOL     OW29412  12.459  10.212   5.840  0.4623 -0.3242 -0.2357
72478SOL    HW129413  12.526  10.151   5.867 -0.0834 -0.7432  0.1849
72478SOL    HW229414  12.388  10.157   5.806  0.3158  0.1090 -0.6546
72479SOL     OW29415   5.365   5.243   1.988  0.6316  1.0433 -0.3367
72479SOL    HW129416   5.359   5.217   1.896  2.4168  0.9748 -0.4794
72479SOL    HW229417   5.434   5.309   1.990  0.7035  0.9647  0.9642
72480SOL     OW29418   1.126  10.351   9.364 -0.3114  0.6002 -0.3986
72480SOL    HW129419   1.142  10.345   9.270 -0.8357  0.7688 -0.5030
72480SOL    HW229420   1.138  10.262   9.397 -0.8458  0.3908 -0.7474
72481SOL     OW29421   9.474   1.868   6.856  0.0055 -0.0247 -0.4693
72481SOL    HW129422   9.466   1.838   6.947 -1.3427 -0.0067 -0.5539
72481SOL    HW229423   9.567   1.883   6.843  0.2533 -0.3732  0.8033
72482SOL     OW29424  12.549   5.775   3.523  0.1505  0.1793  0.3331
72482SOL    HW129425  12.481   5.727   3.571 -2.4422  1.4430 -1.7948
72482SOL    HW229426  12.536   5.750   3.431  1.8697  1.3303 -0.2811
72483SOL     OW29427  11.467  10.855   7.895  0.0673 -0.0822  0.0553
72483SOL    HW129428  11.414  10.918   7.848 -0.1558 -2.1506 -2.7578
72483SOL    HW229429  11.533  10.907   7.941 -1.1858  2.2269 -0.6529
72484SOL     OW29430   4.084  12.234  12.024  0.2863 -0.0197 -0.0669
72484SOL    HW129431   4.129  12.186  12.094  0.2476  0.0470  0.0038
72484SOL    HW229432   4.151  12.247  11.957  0.3845  0.1164  0.0567
72485SOL     OW29433  12.052   1.175   2.094  0.2251 -0.2410  0.4280
72485SOL    HW129434  12.039   1.178   2.189  0.3729 -1.4556  0.5032
72485SOL    HW229435  12.047   1.266   2.067 -2.6250 -0.0583  1.2235
72486SOL     OW29436  13.225   8.701  13.089 -0.2086  0.5202 -0.4204
72486SOL    HW129437  13.245   8.608  13.080 -0.8469  0.4520 -1.2146
72486SOL    HW229438  13.179   8.708  13.173  0.2765  0.2020 -0.1233
72487SOL     OW29439   0.972   8.372   5.814  0.2012 -0.4040  0.1174
72487SOL    HW129440   1.045   8.434   5.808 -0.8976  1.0088  0.7901
72487SOL    HW229441   0.996   8.314   5.887  0.7540 -0.0898  0.1928
72488SOL     OW29442   5.205  10.562   1.322 -0.1881 -0.3492  0.4024
72488SOL    HW129443   5.125  10.515   1.345 -0.8448 -0.0763 -1.2173
72488SOL    HW229444   5.274  10.495   1.326 -1.2404 -1.8313 -2.8460
72489SOL     OW29445   2.286  13.760   6.943  0.3804  0.0328  0.0033
72489SOL    HW129446   2.360  13.761   6.882  1.3235  2.7574  1.0524
72489SOL    HW229447   2.326  13.752   7.030 -0.5098  1.6083  0.5987
72490SOL     OW29448  11.665   9.631   4.562 -0.1885 -0.3418  0.7741
72490SOL    HW129449  11.633   9.585   4.640  1.0488  0.0601  1.5484
72490SOL    HW229450  11.669   9.723   4.589  0.0486 -0.1740  0.1720
72491SOL     OW29451   1.157  11.798   3.494 -0.8034 -0.2931  0.2099
72491SOL    HW129452   1.217  11.724   3.502  0.6213  0.7363 -0.4604
72491SOL    HW229453   1.176  11.852   3.571 -1.8126 -0.5867  0.6789
72492SOL     OW29454   3.915   0.163   5.572 -0.2138 -0.2921 -0.3389
72492SOL    HW129455   3.949   0.180   5.484 -1.9668 -0.5403 -1.0943
72492SOL    HW229456   3.825   0.195   5.571 -0.0789  0.3088  1.5948
72493SOL     OW29457  11.722   1.004   7.637  0.0642 -0.2982 -0.1160
72493SOL    HW129458  11.650   0.960   7.682 -1.0218  0.5645 -0.9484
72493SOL    HW229459  11.703   0.993   7.544  1.1035 -0.1911 -0.3555
72494SOL     OW29460  10.008   3.128  12.537 -0.5094  0.3518 -0.4338
72494SOL    HW129461   9.983   3.115  12.445 -1.0287 -1.7631 -0.0287
72494SOL    HW229462   9.929   3.161  12.579 -1.0604 -1.1043 -0.2669
72495SOL     OW29463  11.719  12.422  10.640  0.1083 -0.2222 -0.4699
72495SOL    HW129464  11.736  12.472  10.561  0.2002 -0.3022 -0.5006
72495SOL    HW229465  11.671  12.344  10.609  1.4413 -0.9942 -0.6481
72496SOL     OW29466   9.169  12.574   8.005 -0.3804  0.2600  0.2527
72496SOL    HW129467   9.099  12.624   7.964 -0.9268 -0.8053 -0.1461
72496SOL    HW229468   9.215  12.638   8.060 -0.2920  1.4680 -1.1784
72497SOL     OW29469   3.106   8.935   8.911  0.0588 -0.0281  0.6207
72497SOL    HW129470   3.172   8.890   8.963  0.6045 -1.7339 -1.4265
72497SOL    HW229471   3.136   9.026   8.907  2.8634 -0.9183 -0.9803
72498SOL     OW29472   8.362   6.140   1.222 -0.2359  0.1498  0.2698
72498SOL    HW129473   8.275   6.122   1.257 -0.4121 -2.6964 -1.3414
72498SOL    HW229474   8.375   6.234   1.237 -2.4935  0.1699  2.8163
72499SOL     OW29475  13.148   6.825   7.032 -0.7008  0.2805 -0.0095
72499SOL    HW129476  13.075   6.798   7.088 -0.2608 -0.2115  0.3394
72499SOL    HW229477  13.125   6.914   7.005 -1.9935 -0.2713 -0.8696
72500SOL     OW29478   9.599  10.893   2.474 -0.1168  0.2788 -0.3022
72500SOL    HW129479   9.544  10.888   2.396  0.4074 -0.4683 -0.6316
72500SOL    HW229480   9.619  10.802   2.495  0.7932  0.5331 -0.0445
72501SOL     OW29481   9.367   0.949   7.200  0.1485  0.0742 -0.1996
72501SOL    HW129482   9.379   1.037   7.236 -1.4483 -0.4108  1.7257
72501SOL    HW229483   9.455   0.912   7.197  0.5682  0.7656  1.7400
72502SOL     OW29484   2.017  13.321   1.040  0.4907 -0.3744 -0.3231
72502SOL    HW129485   1.922  13.312   1.048  0.4175  0.3215 -0.3517
72502SOL    HW229486   2.051  13.235   1.065 -0.2033 -1.1050 -1.7619
72503SOL     OW29487   3.359  12.729  12.145  0.0696 -0.0392 -0.1996
72503SOL    HW129488   3.275  12.770  12.165  0.4651  0.2722  0.9044
72503SOL    HW229489   3.423  12.800  12.157  0.6293 -0.6488  0.4821
72504SOL     OW29490   9.192  11.978   6.172 -0.1958 -0.0122 -0.0893
72504SOL    HW129491   9.213  12.021   6.090 -3.2093  0.8861 -0.5400
72504SOL    HW229492   9.142  11.900   6.146 -0.3627 -0.2355  0.8490
72505SOL     OW29493  12.026   7.094   5.664 -0.2549  0.0502  0.2112
72505SOL    HW129494  11.974   7.077   5.585  0.5294  0.3466 -0.3851
72505SOL    HW229495  12.023   7.190   5.674  0.6189  0.1175 -0.1417
72506SOL     OW29496   0.725  10.923   5.909 -0.3312  0.1752  0.7419
72506SOL    HW129497   0.778  11.002   5.918  0.9650  0.0392 -3.4658
72506SOL    HW229498   0.635  10.953   5.913  0.1362  1.9475 -0.8885
72507SOL     OW29499   4.637  10.690  12.165 -0.7850  0.5564  0.3373
72507SOL    HW129500   4.613  10.601  12.140 -1.8269  0.5056  1.4334
72507SOL    HW229501   4.661  10.683  12.257  0.2921  1.2167  0.1223
72508SOL     OW29502   0.170  13.930   8.810 -0.2386 -1.0777  0.6867
72508SOL    HW129503   0.178  14.014   8.765  3.2458 -1.2678  0.6743
72508SOL    HW229504   0.076  13.916   8.818 -0.9701  2.6659  0.4691
72509SOL     OW29505   6.228   8.307  12.788  0.2582 -0.0219  0.0382
72509SOL    HW129506   6.241   8.401  12.802  0.8473  0.2432 -1.9522
72509SOL    HW229507   6.173   8.279  12.861 -0.5540  2.0161  0.2785
72510SOL     OW29508  12.859  10.221   8.544 -0.9358  0.2352 -0.3832
72510SOL    HW129509  12.874  10.169   8.465 -0.6749 -1.4655  0.7361
72510SOL    HW229510  12.766  10.245   8.539 -1.1894 -0.7633 -0.6961
72511SOL     OW29511   6.207   9.326  10.671 -0.2984  0.2676 -0.3073
72511SOL    HW129512   6.125   9.336  10.719  0.4904  2.1149  0.8018
72511SOL    HW229513   6.239   9.416  10.660  0.8865 -0.3138 -1.9515
72512SOL     OW29514  10.482   4.871   0.987  0.5484  0.1664  0.2254
72512SOL    HW129515  10.433   4.901   1.064  0.6896 -1.1223  0.8527
72512SOL    HW229516  10.565   4.919   0.990  0.4898  0.2348  0.7853
72513SOL     OW29517  10.572   9.199  11.531 -0.2460  0.1026 -0.4414
72513SOL    HW129518  10.632   9.127  11.554 -1.0397 -0.5364 -0.3187
72513SOL    HW229519  10.624   9.256  11.474  0.7068 -0.0436  0.2572
72514SOL     OW29520  12.283  13.326   3.897 -0.0847 -0.0691 -0.4650
72514SOL    HW129521  12.372  13.361   3.908 -0.3842  0.7956 -0.6980
72514SOL    HW229522  12.243  13.334   3.983  0.5959 -2.0804  0.1013
72515SOL     OW29523  10.816   4.552  12.536 -0.1212 -0.3541  0.0663
72515SOL    HW129524  10.722   4.531  12.534 -0.1904 -0.0310 -0.7659
72515SOL    HW229525  10.847   4.515  12.618 -1.2594  0.7628  1.0626
72516SOL     OW29526   4.723   6.623   2.808  0.3828  0.3322 -0.5608
72516SOL    HW129527   4.638   6.588   2.783  0.0062  1.9731 -1.6998
72516SOL    HW229528   4.704   6.708   2.846  1.4853  0.5000 -0.3380
72517SOL     OW29529   2.168   1.093  10.469 -0.2752 -0.4891 -0.1422
72517SOL    HW129530   2.104   1.141  10.417 -0.1520  0.9925  1.0211
72517SOL    HW229531   2.116   1.047  10.535 -0.2971 -1.0460 -0.5390
72518SOL     OW29532  11.357   0.987  12.225  0.1099 -0.2320 -0.1105
72518SOL    HW129533  11.441   0.992  12.180 -0.1934 -0.9755 -0.7749
72518SOL    HW229534  11.367   0.916  12.288 -0.1444 -0.5741 -0.4552
72519SOL     OW29535   0.430  11.225  11.096 -0.6028 -0.1532  0.7084
72519SOL    HW129536   0.385  11.309  11.108  1.0383  1.0301 -0.8995
72519SOL    HW229537   0.514  11.236  11.142 -0.3247 -0.8675  0.3926
72520SOL     OW29538   7.842  10.016   4.830  0.4191  0.0550 -0.1320
72520SOL    HW129539   7.835  10.075   4.905  0.6958  0.8403 -0.7153
72520SOL    HW229540   7.825   9.929   4.867  0.2640  0.4600  0.7852
72521SOL     OW29541   2.803   5.981   4.725  0.2708 -0.3886  0.0337
72521SOL    HW129542   2.768   6.032   4.798 -1.1741 -1.3099  0.0236
72521SOL    HW229543   2.898   5.983   4.737  0.3080  2.3966 -0.0643
72522SOL     OW29544   0.289   1.936   8.104  0.1158 -0.8692 -0.3617
72522SOL    HW129545   0.380   1.943   8.078 -0.1326 -0.3382 -1.1015
72522SOL    HW229546   0.245   1.896   8.029 -0.2804 -1.0183 -0.0548
72523SOL     OW29547   6.500  10.380   9.891 -0.4379 -0.2951  0.1788
72523SOL    HW129548   6.548  10.452   9.933 -0.2548 -0.3514  0.0692
72523SOL    HW229549   6.555  10.355   9.817  0.1835 -1.4648  1.0090
72524SOL     OW29550  11.279   7.897  12.544  0.6140  0.0122 -0.3327
72524SOL    HW129551  11.312   7.854  12.623  1.3459 -0.2813 -0.7877
72524SOL    HW229552  11.201   7.847  12.519  0.0309  0.4689  0.5312
72525SOL     OW29553   4.253   9.388   2.102 -0.0321 -0.4009  0.7554
72525SOL    HW129554   4.210   9.416   2.020 -0.1044 -0.0022  0.9269
72525SOL    HW229555   4.342   9.367   2.076 -0.2804 -1.0839  0.4232
72526SOL     OW29556   8.973   5.384   5.455 -0.0056 -0.1187  0.2802
72526SOL    HW129557   9.055   5.408   5.411 -0.0016 -0.1519  0.2685
72526SOL    HW229558   8.912   5.454   5.432  0.6009  1.0809  2.0221
72527SOL     OW29559  13.142   7.504   1.677  0.0652 -0.3668 -0.3560
72527SOL    HW129560  13.229   7.492   1.641  0.4853  0.6426  0.2794
72527SOL    HW229561  13.088   7.530   1.602 -0.0499 -2.3510 -1.0289
72528SOL     OW29562   8.716   0.810   1.826  0.3608  0.8525  0.3883
72528SOL    HW129563   8.629   0.802   1.787  0.9242 -0.8651 -0.6492
72528SOL    HW229564   8.722   0.733   1.884  1.6878  0.1420 -0.6556
72529SOL     OW29565   5.355  11.555  12.469  0.8489  0.1572 -0.1382
72529SOL    HW129566   5.448  11.577  12.477  0.5421  1.7073 -0.5035
72529SOL    HW229567   5.309  11.634  12.497 -0.3941 -0.9362  1.0351
72530SOL     OW29568   9.621   5.177  10.403  0.5143  0.4210 -0.5856
72530SOL    HW129569   9.652   5.177  10.313  0.9695 -1.1079 -0.4565
72530SOL    HW229570   9.650   5.262  10.438  0.5676  0.9169 -1.7802
72531SOL     OW29571   0.489   9.189  13.797  0.0975  0.1009  0.5626
72531SOL    HW129572   0.423   9.124  13.824  0.3012 -0.2305  0.2694
72531SOL    HW229573   0.438   9.259  13.758 -0.0886 -0.1401  0.3667
72532SOL     OW29574  10.211   5.715   0.759  0.4125  0.6067  0.1133
72532SOL    HW129575  10.195   5.621   0.744 -0.1333  0.4944  1.3036
72532SOL    HW229576  10.298   5.730   0.723  1.3547 -0.8245  1.6624
72533SOL     OW29577  12.666   1.827   6.486  0.8212  0.4397  0.3507
72533SOL    HW129578  12.584   1.783   6.510  1.0199 -1.0347 -1.4731
72533SOL    HW229579  12.704   1.772   6.417  1.5505  3.0374 -1.4453
72534SOL     OW29580   1.624   5.134  11.481  0.1586  0.0109 -0.3505
72534SOL    HW129581   1.608   5.071  11.411 -0.9306 -3.1559  2.4126
72534SOL    HW229582   1.716   5.119  11.506  0.7530  1.6178 -1.4563
72535SOL     OW29583   0.694  11.339   6.304 -0.1791  0.6183 -0.6034
72535SOL    HW129584   0.683  11.375   6.392 -1.5641  2.5275 -1.4828
72535SOL    HW229585   0.620  11.279   6.293 -0.3012  0.7737 -0.6371
72536SOL     OW29586   1.761  10.552   0.006  0.0959 -0.3756 -0.3781
72536SOL    HW129587   1.672  10.556   0.040 -0.5096 -2.4350 -1.5839
72536SOL    HW229588   1.774  10.637  -0.036 -0.9490  0.2872  0.5725
72537SOL     OW29589   1.649   0.279   1.781  0.1086  0.1036 -0.3180
72537SOL    HW129590   1.654   0.279   1.685  1.0162 -0.1113 -0.2817
72537SOL    HW229591   1.685   0.364   1.807 -0.9226  0.5139 -0.1881
72538SOL     OW29592   9.955   7.264  14.011 -0.5052  0.0076  0.6527
72538SOL    HW129593   9.951   7.300  13.922 -1.8418  0.3103  0.8124
72538SOL    HW229594  10.005   7.329  14.060 -0.3996  0.2095  0.2871
72539SOL     OW29595   9.550   5.076   6.199  0.6276 -0.0276 -0.3250
72539SOL    HW129596   9.565   5.090   6.293  3.6304 -1.3733 -0.5055
72539SOL    HW229597   9.582   5.156   6.158  0.3898  0.0885 -0.2879
72540SOL     OW29598  12.037  12.136  10.890 -0.4407 -0.2127 -0.3089
72540SOL    HW129599  12.019  12.107  10.979 -1.9823 -0.2343 -0.6120
72540SOL    HW229600  12.007  12.227  10.887  2.1974  0.7745 -0.0484
72541SOL     OW29601   9.857   9.762   0.586  0.6387 -0.3766 -0.4285
72541SOL    HW129602   9.876   9.843   0.633  0.6164  0.6763 -2.1859
72541SOL    HW229603   9.777   9.780   0.537 -0.1020 -1.9155  0.1481
72542SOL     OW29604   2.192   9.460   6.441 -0.2210 -0.9901  0.2338
72542SOL    HW129605   2.231   9.536   6.484 -0.4772 -1.3491  1.1071
72542SOL    HW229606   2.198   9.481   6.347  1.5635 -0.8007  0.3547
72543SOL     OW29607   3.973   2.812   4.585  0.3885  0.5901  0.1966
72543SOL    HW129608   4.001   2.899   4.558 -1.5682  1.5091  0.9100
72543SOL    HW229609   3.943   2.823   4.675 -1.3330 -0.4392 -0.1921
72544SOL     OW29610   0.234   6.290   7.826  0.0715 -0.3809 -0.0671
72544SOL    HW129611   0.150   6.335   7.825 -1.1648 -2.5536  0.8443
72544SOL    HW229612   0.297   6.359   7.849 -1.8491  0.7414  2.2984
72545SOL     OW29613  11.666   8.878   8.717 -0.2298 -0.1637  0.0006
72545SOL    HW129614  11.612   8.932   8.775 -0.7877  0.8325 -1.3865
72545SOL    HW229615  11.669   8.793   8.760 -0.6250  0.5339  1.4802
72546SOL     OW29616   8.726   4.014   8.521 -0.2450 -0.1940 -0.1978
72546SOL    HW129617   8.773   3.936   8.550  1.4728  0.7728 -0.2313
72546SOL    HW229618   8.636   4.000   8.549  0.2178 -1.7605  0.6155
72547SOL     OW29619   0.953  13.194   1.110  0.3320  0.1991  0.1352
72547SOL    HW129620   0.946  13.238   1.025  0.1326  2.0713  1.0803
72547SOL    HW229621   0.863  13.168   1.131 -0.1684  2.4484  1.0968
72548SOL     OW29622   1.832  12.023   5.823  0.2071 -0.6283  0.9950
72548SOL    HW129623   1.889  12.083   5.776 -2.3689  1.0164 -0.3149
72548SOL    HW229624   1.819  11.950   5.762 -1.4284  0.4927 -0.1161
72549SOL     OW29625   4.165  12.108   0.690  0.0026  0.2662  0.0578
72549SOL    HW129626   4.251  12.122   0.650  0.2525 -1.0275  0.0917
72549SOL    HW229627   4.184  12.059   0.771 -0.8480 -1.1978 -0.5918
72550SOL     OW29628   1.054  10.189   8.050 -0.1694  0.1882 -0.5272
72550SOL    HW129629   0.986  10.141   8.003  1.1518  0.4133 -2.7984
72550SOL    HW229630   1.127  10.196   7.988  0.6076  3.0192  0.5310
72551SOL     OW29631  10.330   5.009   9.807  0.7805 -0.2918  0.3669
72551SOL    HW129632  10.334   4.985   9.714 -1.0542  0.7548 -0.0449
72551SOL    HW229633  10.394   4.952   9.850  0.0878 -2.4056 -1.2268
72552SOL     OW29634   9.597   1.978   0.796 -0.1253  0.1559 -0.3757
72552SOL    HW129635   9.619   1.896   0.839  0.5155  0.5692  0.1017
72552SOL    HW229636   9.510   2.000   0.828  0.6976  0.9356  1.5054
72553SOL     OW29637   4.227   0.974   1.815  0.3334  0.0122 -0.1400
72553SOL    HW129638   4.193   1.063   1.821 -1.2430 -0.4961 -1.0641
72553SOL    HW229639   4.294   0.978   1.747  0.7225  0.5949  0.2626
72554SOL     OW29640  14.012   9.629  13.798 -0.2206 -0.4742  0.6914
72554SOL    HW129641  13.946   9.673  13.852  0.4956  0.8462  0.5173
72554SOL    HW229642  14.087   9.618  13.856  0.4781  0.7633  0.0382
72555SOL     OW29643  12.579  10.373   5.644 -0.0409 -0.2264  0.3823
72555SOL    HW129644  12.664  10.329   5.651  0.6766  1.0186 -0.3107
72555SOL    HW229645  12.535  10.352   5.727  1.6651  0.5830  1.5567
72556SOL     OW29646  11.357   8.338   4.418 -0.2255 -0.2338  0.2401
72556SOL    HW129647  11.386   8.319   4.329  0.7581 -0.1814  0.5456
72556SOL    HW229648  11.405   8.276   4.473 -0.4301  0.0857  0.7910
72557SOL     OW29649   0.357   5.529   9.085 -0.0022 -0.6128 -0.1822
72557SOL    HW129650   0.348   5.453   9.028  1.1674 -1.5999  0.8951
72557SOL    HW229651   0.439   5.514   9.133  0.7437  1.7604 -0.5741
72558SOL     OW29652   7.543   9.517   1.669  0.0492 -1.1469 -0.3128
72558SOL    HW129653   7.459   9.472   1.658 -0.1430 -0.6037 -1.1743
72558SOL    HW229654   7.585   9.511   1.583 -0.3009  0.9172 -0.6830
72559SOL     OW29655  11.900   1.256  12.572 -0.4576 -0.0304 -0.0921
72559SOL    HW129656  11.835   1.322  12.597  0.7734  0.9468  0.6622
72559SOL    HW229657  11.878   1.179  12.624 -1.3816  0.0716 -0.3230
72560SOL     OW29658   0.882   5.354   2.286  0.0608 -0.2957  0.5757
72560SOL    HW129659   0.828   5.389   2.357  1.0502  0.4378  0.9763
72560SOL    HW229660   0.917   5.430   2.242  0.2179 -0.7649 -0.1295
72561SOL     OW29661  11.263  11.761   8.733 -0.3412 -0.0005  0.0743
72561SOL    HW129662  11.284  11.757   8.827 -1.0763  0.3987  0.2617
72561SOL    HW229663  11.324  11.699   8.693  2.2425  2.1613  0.3734
72562SOL     OW29664   9.219   5.825   9.614 -0.0019 -0.0202  0.2303
72562SOL    HW129665   9.169   5.895   9.656  0.9877  2.0858 -1.8684
72562SOL    HW229666   9.308   5.859   9.607  0.2944 -1.0110 -1.7467
72563SOL     OW29667   3.862   7.592  10.551  0.8296 -0.1691  0.1990
72563SOL    HW129668   3.889   7.521  10.609 -2.4861 -3.8888 -2.2945
72563SOL    HW229669   3.942   7.616  10.504  2.1794 -1.9376  1.4552
72564SOL     OW29670  12.813   1.103   4.912  0.4794  0.6686 -0.4279
72564SOL    HW129671  12.782   1.163   4.845 -0.8794 -1.6402 -1.9955
72564SOL    HW229672  12.896   1.069   4.877  0.6090  0.6975 -0.1506
72565SOL     OW29673   0.634   7.766   4.225 -0.0970 -0.2632 -0.1663
72565SOL    HW129674   0.538   7.768   4.227 -0.0971 -0.5957  0.4050
72565SOL    HW229675   0.655   7.734   4.137 -0.5020  0.1363 -0.4127
72566SOL     OW29676   8.594   0.800  12.984  0.2008 -0.4519  0.1870
72566SOL    HW129677   8.628   0.719  13.022  0.3239 -0.1409  0.7584
72566SOL    HW229678   8.670   0.859  12.982 -0.3083  0.3114  1.6448
72567SOL     OW29679   5.443   3.012   3.750  0.8847 -0.5954  0.3327
72567SOL    HW129680   5.423   3.106   3.747 -0.1859 -0.8132  0.3245
72567SOL    HW229681   5.498   3.002   3.827 -1.5807 -0.3971  2.2223
72568SOL     OW29682  11.793   5.212   5.871 -0.0198 -0.0433 -0.4744
72568SOL    HW129683  11.829   5.183   5.787  0.0697 -1.2232 -0.0526
72568SOL    HW229684  11.699   5.194   5.864 -0.2796  1.4154 -0.9290
72569SOL     OW29685   4.648   6.775   6.861 -0.6827 -0.5304 -0.2644
72569SOL    HW129686   4.703   6.708   6.902  0.4484  1.1596  1.1221
72569SOL    HW229687   4.687   6.789   6.775 -0.5148 -1.1399 -0.2925
72570SOL     OW29688   2.311   9.802   5.503  0.5745 -0.1791  0.0723
72570SOL    HW129689   2.227   9.843   5.522  0.7951  0.0147  0.6794
72570SOL    HW229690   2.307   9.717   5.546  0.3951 -0.4959 -0.5652
72571SOL     OW29691   3.139   1.885   4.368  0.7489 -0.0585 -0.0762
72571SOL    HW129692   3.122   1.910   4.459  0.4627  0.2737 -0.2222
72571SOL    HW229693   3.063   1.834   4.342 -0.3545  1.9241 -0.9183
72572SOL     OW29694   5.776  13.841   9.964  0.1834  0.5428 -0.1996
72572SOL    HW129695   5.827  13.850  10.044  1.1289  0.2670 -0.7461
72572SOL    HW229696   5.710  13.776   9.984  0.0357  0.9189  0.5360
72573SOL     OW29697   1.247   4.078  12.748  0.2817 -0.3654 -0.0273
72573SOL    HW129698   1.170   4.110  12.701  0.3321 -1.0686 -0.6102
72573SOL    HW229699   1.259   4.141  12.819 -0.8268 -0.2344  0.0754
72574SOL     OW29700   8.581   5.387   2.875  0.0781  0.3476 -0.0748
72574SOL    HW129701   8.672   5.387   2.846  0.1385  1.7013  0.0511
72574SOL    HW229702   8.550   5.476   2.856 -0.6717  0.4497  1.5106
72575SOL     OW29703   8.296   5.879   9.401  0.4025 -0.0914 -0.0069
72575SOL    HW129704   8.367   5.938   9.425  0.7681 -0.8848  0.9571
72575SOL    HW229705   8.277   5.899   9.309  3.4150 -1.3958 -1.0250
72576SOL     OW29706   9.613   1.028  11.974  0.4948 -0.3308  0.0987
72576SOL    HW129707   9.590   1.013  12.066 -0.3123 -0.4655 -0.1168
72576SOL    HW229708   9.668   1.106  11.976 -1.3171  0.9951  0.4935
72577SOL     OW29709   2.038   4.138   8.077  0.2910  0.0091 -0.0118
72577SOL    HW129710   2.093   4.060   8.085 -1.6472 -1.4309  0.0252
72577SOL    HW229711   2.008   4.156   8.166 -0.5790 -0.2303 -0.2435
72578SOL     OW29712   5.909   6.604   9.069 -0.3042 -0.0452  0.8831
72578SOL    HW129713   5.815   6.616   9.086 -0.4400 -0.1429  0.2418
72578SOL    HW229714   5.951   6.625   9.152 -1.0130 -1.5723  1.6815
72579SOL     OW29715   1.142  12.001   5.271  0.2495 -0.5465 -0.1163
72579SOL    HW129716   1.168  11.968   5.185 -0.5138 -1.3592 -0.0561
72579SOL    HW229717   1.211  11.971   5.330  0.7121 -0.0925 -0.4254
72580SOL     OW29718  13.930   9.508   3.839 -0.0502  0.3605 -0.3780
72580SOL    HW129719  13.860   9.555   3.794  1.2281  3.3747  0.4687
72580SOL    HW229720  13.990   9.482   3.769 -0.3627  0.8200 -0.8223
72581SOL     OW29721   3.619  12.913   5.777 -0.2513 -0.1760 -0.3401
72581SOL    HW129722   3.654  12.979   5.837  0.8447 -0.5046 -0.5936
72581SOL    HW229723   3.534  12.948   5.750 -0.3338  0.4327  0.6516
72582SOL     OW29724   6.591   5.157  12.516  0.2199  0.4362  0.3977
72582SOL    HW129725   6.509   5.118  12.547 -0.8525  2.4561  0.2517
72582SOL    HW229726   6.569   5.249  12.499  2.5527  1.0558  0.4501
72583SOL     OW29727  12.165   4.908   0.084 -0.6499 -0.7748 -0.1954
72583SOL    HW129728  12.091   4.948   0.129  0.0677  0.0563  0.2627
72583SOL    HW229729  12.207   4.852   0.150 -0.9675 -1.3921 -0.5066
72584SOL     OW29730   7.201   1.817   1.302  0.2456 -0.4595 -0.2935
72584SOL    HW129731   7.205   1.911   1.317  0.6102 -0.4897 -0.1955
72584SOL    HW229732   7.115   1.791   1.335  0.1317 -0.1571 -0.3500
72585SOL     OW29733   8.102   9.155   4.689 -0.3260 -0.1610  0.2146
72585SOL    HW129734   8.052   9.077   4.664 -2.0267  0.7563  0.6112
72585SOL    HW229735   8.193   9.129   4.679 -0.8647 -1.9352 -0.4584
72586SOL     OW29736   2.655   1.534   9.676 -0.7813 -0.1283  0.0721
72586SOL    HW129737   2.646   1.609   9.618  0.2880 -0.6156 -0.7687
72586SOL    HW229738   2.588   1.472   9.645 -0.5867 -0.1601 -0.3018
72587SOL     OW29739  10.728   6.565   8.232  0.2071  0.5303 -0.1146
72587SOL    HW129740  10.685   6.601   8.155  2.1197  0.3120 -1.3381
72587SOL    HW229741  10.785   6.636   8.263 -2.8040  1.8660  3.1488
72588SOL     OW29742   7.444   7.513   6.125  0.0926 -0.3760 -0.2748
72588SOL    HW129743   7.359   7.480   6.154  0.5959  0.0746  1.9392
72588SOL    HW229744   7.426   7.601   6.091 -0.6818 -1.3328 -2.4527
72589SOL     OW29745  11.897   6.783   0.198  0.2383 -0.4205 -0.6182
72589SOL    HW129746  11.953   6.857   0.176  2.9055 -1.8625  0.8715
72589SOL    HW229747  11.954   6.706   0.192 -1.1943 -1.8771  2.2078
72590SOL     OW29748   0.223  12.607   1.062  0.3221  0.5552 -0.4415
72590SOL    HW129749   0.226  12.526   1.113 -0.0618  1.4524  1.0543
72590SOL    HW229750   0.315  12.631   1.051  0.4009  0.5270  0.1292
72591SOL     OW29751   3.994   3.339   8.090 -0.3203  0.2856 -0.6616
72591SOL    HW129752   4.000   3.433   8.077 -1.5548  0.1821 -2.3568
72591SOL    HW229753   3.992   3.302   8.001  1.6848 -1.4746 -0.0545
72592SOL     OW29754   3.182   6.198   6.754 -0.1031  0.0300  0.1165
72592SOL    HW129755   3.238   6.263   6.712  0.6907 -0.6490  0.0853
72592SOL    HW229756   3.122   6.249   6.808 -1.3825  0.9663 -2.0429
72593SOL     OW29757   1.193  10.579   2.921 -0.0097  0.1218 -0.5181
72593SOL    HW129758   1.155  10.652   2.873 -0.2602  2.4205  2.7783
72593SOL    HW229759   1.136  10.569   2.998  0.9567 -2.5289 -0.0202
72594SOL     OW29760  13.747  12.229   8.003 -0.1797  0.2800  0.1964
72594SOL    HW129761  13.812  12.299   7.989  0.9411 -0.2844  2.2151
72594SOL    HW229762  13.683  12.243   7.933  1.5233  1.5406 -1.2417
72595SOL     OW29763   3.840   0.684  12.072  0.1288 -0.2232 -0.2500
72595SOL    HW129764   3.928   0.681  12.108  1.2264  1.0795 -2.5935
72595SOL    HW229765   3.825   0.597  12.037  0.1731 -0.6520  0.7682
72596SOL     OW29766  12.334  11.561  12.741  0.6817  0.0807 -0.0635
72596SOL    HW129767  12.240  11.575  12.746  0.0901 -3.0141 -0.8022
72596SOL    HW229768  12.365  11.630  12.681 -1.1772  0.7766 -0.2919
72597SOL     OW29769   4.822   1.648   3.468 -0.3558  0.0628  0.2001
72597SOL    HW129770   4.828   1.723   3.527 -2.3427 -1.0282  1.8865
72597SOL    HW229771   4.737   1.658   3.425 -0.7263 -1.2753  0.5756
72598SOL     OW29772   4.169  12.075   1.185  0.3288  0.0116 -0.4700
72598SOL    HW129773   4.147  12.085   1.278 -2.6971  2.4170 -1.2806
72598SOL    HW229774   4.253  12.119   1.176 -1.0416  3.2011  0.6366
72599SOL     OW29775   4.253   0.337   4.353 -0.4514  0.1760  0.2457
72599SOL    HW129776   4.251   0.298   4.440  1.7875  0.5006  0.5084
72599SOL    HW229777   4.312   0.280   4.302 -0.8048  0.6370 -0.7142
72600SOL     OW29778   6.282   1.619   1.113 -0.2360 -0.1364  0.3103
72600SOL    HW129779   6.228   1.694   1.088 -0.8422 -0.4474  0.6590
72600SOL    HW229780   6.372   1.651   1.107 -0.4471  0.3297 -0.4754
72601SOL     OW29781  12.136   5.920   1.335  0.0435  0.4248 -0.3059
72601SOL    HW129782  12.096   5.837   1.309  0.3875  0.3796 -0.7069
72601SOL    HW229783  12.230   5.907   1.321  0.0972  0.8932 -0.4069
72602SOL     OW29784  12.499   5.123  10.790  0.3095  0.0247 -0.2420
72602SOL    HW129785  12.555   5.080  10.855  0.1486  0.0017 -0.1190
72602SOL    HW229786  12.514   5.075  10.709  1.0167  0.4676 -0.3814
72603SOL     OW29787   8.784   8.067   5.622 -0.1336 -0.0727 -0.0634
72603SOL    HW129788   8.731   8.119   5.683  0.0830  0.2760 -0.1731
72603SOL    HW229789   8.837   8.010   5.679 -0.3098 -0.1181  0.0568
72604SOL     OW29790   8.353   2.448   0.427 -0.2720  0.0449  0.0345
72604SOL    HW129791   8.312   2.456   0.341 -1.0792  0.8658  0.4747
72604SOL    HW229792   8.427   2.389   0.413  0.1614  0.8946 -1.4011
72605SOL     OW29793   9.044   3.868   2.599 -0.2215  0.1251 -0.1811
72605SOL    HW129794   8.974   3.893   2.660  0.4318  0.0865  0.6016
72605SOL    HW229795   9.061   3.947   2.547 -1.6271 -0.1901 -1.1858
72606SOL     OW29796   9.937  10.097   5.298 -0.2526  0.0032  0.5144
72606SOL    HW129797   9.853  10.055   5.283 -0.7909  1.1948  0.0362
72606SOL    HW229798   9.987  10.034   5.350 -1.0879 -1.1055  0.0062
72607SOL     OW29799   6.144   1.841  11.011  0.9917 -0.3082 -0.4707
72607SOL    HW129800   6.180   1.755  10.987 -1.1176 -1.1761 -0.8003
72607SOL    HW229801   6.087   1.822  11.086  0.1977  0.7278 -0.7991
72608SOL     OW29802  11.928  11.569  12.380 -0.2357  0.7995 -0.2947
72608SOL    HW129803  11.945  11.557  12.287 -1.8887 -0.7172 -0.4402
72608SOL    HW229804  11.840  11.605  12.384 -0.4092  0.3012  0.6945
72609SOL     OW29805  13.842   7.349   1.722 -0.0411  0.2859 -0.2674
72609SOL    HW129806  13.799   7.404   1.787 -2.4634 -1.4501 -0.2606
72609SOL    HW229807  13.852   7.406   1.645 -0.0393  1.4658  0.5878
72610SOL     OW29808  12.855   2.459   6.646  0.0896 -0.1927 -0.3536
72610SOL    HW129809  12.857   2.399   6.571 -0.5883  0.2742 -0.7555
72610SOL    HW229810  12.803   2.533   6.616 -1.9080 -0.8674  1.2298
72611SOL     OW29811   0.061   6.145   1.733  0.4807 -0.1067 -0.3929
72611SOL    HW129812   0.121   6.209   1.694  0.1246  1.3576  1.2798
72611SOL    HW229813   0.071   6.159   1.828 -2.2038 -0.0406 -0.0378
72612SOL     OW29814   1.246   0.013   2.700  0.0315  0.1791  0.2317
72612SOL    HW129815   1.240   0.076   2.628  0.7495  0.0593  0.0652
72612SOL    HW229816   1.293   0.060   2.769 -0.3009  0.1557  0.4777
72613SOL     OW29817  13.166   8.040  10.159  0.5743  0.2039  0.3620
72613SOL    HW129818  13.211   8.099  10.219  2.2132 -1.5219  0.9380
72613SOL    HW229819  13.236   7.995  10.112 -0.6069 -1.0291 -0.2882
72614SOL     OW29820  13.139  11.929   7.828  0.0756 -0.2333  0.0875
72614SOL    HW129821  13.083  11.899   7.900 -0.2053  1.9887  0.9054
72614SOL    HW229822  13.081  11.930   7.752 -0.3331 -0.2970  0.3910
72615SOL     OW29823  12.197   5.767   8.974 -0.2409  0.2771  0.4103
72615SOL    HW129824  12.110   5.727   8.983  0.6272 -1.4693  1.7965
72615SOL    HW229825  12.238   5.752   9.059  1.3864  1.1616 -0.1843
72616SOL     OW29826   1.484   8.638   3.679 -0.4411  0.0871 -0.1977
72616SOL    HW129827   1.423   8.692   3.628  0.6223  2.8325  1.1724
72616SOL    HW229828   1.557   8.622   3.620  0.9411  3.5212  0.3453
72617SOL     OW29829   5.608  10.627  12.064  0.8253  0.8123 -0.3140
72617SOL    HW129830   5.588  10.666  12.149  0.6272  0.4106 -0.1703
72617SOL    HW229831   5.640  10.539  12.086 -1.9177 -0.3939 -0.7602
72618SOL     OW29832   6.076   9.819   9.492 -0.4368  0.3264 -0.1152
72618SOL    HW129833   6.092   9.740   9.439 -2.6304 -0.3636  0.1357
72618SOL    HW229834   5.981   9.817   9.509 -0.1197  1.5817  2.1695
72619SOL     OW29835  11.308   5.653   8.430  0.3962  0.0479 -0.2234
72619SOL    HW129836  11.385   5.708   8.445 -0.6058  1.5366 -0.3886
72619SOL    HW229837  11.234   5.712   8.438 -0.7889 -1.4576  0.4593
72620SOL     OW29838   9.922   2.057   8.611 -0.3957  0.4198  0.1296
72620SOL    HW129839   9.919   1.978   8.556  1.1738  1.2738 -1.2753
72620SOL    HW229840   9.997   2.043   8.669  0.9525  1.5401 -1.2724
72621SOL     OW29841   7.666   6.638  10.526 -0.8272  0.2296  0.0030
72621SOL    HW129842   7.707   6.719  10.497 -0.8706 -0.3745 -1.8803
72621SOL    HW229843   7.575   6.646  10.500 -1.2266  0.2602  1.3435
72622SOL     OW29844  12.832   3.137  12.002 -0.0746  0.1008  0.2976
72622SOL    HW129845  12.847   3.123  12.096 -1.1297  1.3829  0.6858
72622SOL    HW229846  12.761   3.201  11.998  2.3876  2.9910 -1.2938
72623SOL     OW29847  13.735   7.452   2.164 -0.1222 -0.7436  0.1379
72623SOL    HW129848  13.699   7.527   2.211 -0.7926 -2.2490  2.2242
72623SOL    HW229849  13.806   7.421   2.220  1.2109 -0.7545 -1.4894
72624SOL     OW29850   5.243   1.846   4.915 -0.2713 -0.4378  0.8346
72624SOL    HW129851   5.256   1.935   4.948 -2.9636  0.3792 -0.0053
72624SOL    HW229852   5.240   1.856   4.820  2.1508 -1.9415  0.5126
72625SOL     OW29853   6.562   1.687   1.178 -0.1103 -0.1665  0.1578
72625SOL    HW129854   6.616   1.744   1.234 -0.7765  0.8934 -0.2499
72625SOL    HW229855   6.626   1.636   1.129  0.5492  0.8678 -0.1094
72626SOL     OW29856   4.570   0.067  10.096  0.2736 -0.0695  0.4207
72626SOL    HW129857   4.592  -0.025  10.113  1.9262 -0.0710 -1.3876
72626SOL    HW229858   4.637   0.117  10.145 -0.4526  0.1944  1.1740
72627SOL     OW29859   0.331   7.337  11.278  0.3430  0.3878 -0.7051
72627SOL    HW129860   0.396   7.291  11.225 -0.3107 -0.0778 -1.1157
72627SOL    HW229861   0.341   7.429  11.254  0.6859  0.2914 -0.9393
72628SOL     OW29862   9.773   7.945  11.166 -0.3239  0.2999 -0.9965
72628SOL    HW129863   9.859   7.909  11.189  0.0860  2.8623  2.3699
72628SOL    HW229864   9.716   7.920  11.239 -1.0541  2.6642 -0.6432
72629SOL     OW29865   6.568   9.252   6.160 -0.0475 -0.3693  0.1715
72629SOL    HW129866   6.476   9.277   6.156  0.1482  0.2423 -1.7168
72629SOL    HW229867   6.568   9.157   6.148 -0.4052 -0.2636 -0.7164
72630SOL     OW29868   5.044   6.045   5.438  0.4204 -0.1577  0.1865
72630SOL    HW129869   4.971   5.986   5.427  1.4702 -1.4905  0.1025
72630SOL    HW229870   5.063   6.044   5.532  1.0077 -0.6899  0.0715
72631SOL     OW29871  13.587   0.439   7.339  0.0846  0.0801  0.0147
72631SOL    HW129872  13.677   0.471   7.338  0.9432 -2.1702 -1.0762
72631SOL    HW229873  13.550   0.474   7.421  1.7489  1.5065  0.1993
72632SOL     OW29874   4.400  11.914   4.135 -0.0990 -0.1722  0.0683
72632SOL    HW129875   4.470  11.849   4.147  1.4879  1.3784 -0.3352
72632SOL    HW229876   4.351  11.883   4.059  0.7314 -0.8307 -0.2149
72633SOL     OW29877   1.009   6.695   9.219  0.4652 -0.6744 -0.2530
72633SOL    HW129878   0.924   6.673   9.257  0.4030  2.1776  1.6146
72633SOL    HW229879   0.988   6.742   9.139  0.1563  0.7878  0.6419
72634SOL     OW29880   7.208  10.342   2.786  0.0964  0.0519 -0.3138
72634SOL    HW129881   7.286  10.335   2.731 -0.2286 -2.1533 -0.5796
72634SOL    HW229882   7.167  10.424   2.760  0.9787 -0.0029 -1.9885
72635SOL     OW29883   7.800  12.584   6.058  0.5355 -0.0754  0.3232
72635SOL    HW129884   7.718  12.615   6.096  1.0128 -0.3300  1.6035
72635SOL    HW229885   7.772  12.521   5.991 -0.3234 -0.0502  0.6392
72636SOL     OW29886   2.029   8.929   3.307  0.5123 -0.4488  0.1739
72636SOL    HW129887   2.060   9.016   3.334  1.4100 -0.5402 -0.5253
72636SOL    HW229888   1.943   8.920   3.350  2.2181 -0.9927  3.9096
72637SOL     OW29889   1.217   6.089  11.356  1.4211  0.2694 -0.1334
72637SOL    HW129890   1.258   6.076  11.441  2.3741  0.3746 -0.5608
72637SOL    HW229891   1.151   6.156  11.371  0.6286 -0.6789  0.8065
72638SOL     OW29892  11.942   4.608   3.724  0.5883 -0.0890  0.0751
72638SOL    HW129893  11.881   4.615   3.650  2.3912  1.1585 -1.3746
72638SOL    HW229894  11.920   4.524   3.765 -2.3414  0.4751 -0.1049
72639SOL     OW29895   4.677   6.443   1.364  0.3123  0.2391 -0.4730
72639SOL    HW129896   4.632   6.509   1.416  2.3806  1.2622  0.1488
72639SOL    HW229897   4.619   6.427   1.289 -0.3927  2.5711 -0.4999
72640SOL     OW29898   1.866   3.834   7.190  0.8164 -0.5331  0.4379
72640SOL    HW129899   1.837   3.768   7.253  1.0960  0.0357  1.1896
72640SOL    HW229900   1.804   3.828   7.118 -0.0998 -0.5464  1.2052
72641SOL     OW29901   9.536   4.526   5.007 -0.1673 -0.1133  0.3965
72641SOL    HW129902   9.440   4.521   4.997 -0.0811  0.5254 -0.9744
72641SOL    HW229903   9.550   4.600   5.065 -0.5275 -0.9642  1.6246
72642SOL     OW29904   5.393   6.699   9.197  0.2939 -0.4539  0.2107
72642SOL    HW129905   5.423   6.642   9.268 -1.9608 -0.9325  0.8695
72642SOL    HW229906   5.368   6.780   9.241 -1.2625 -0.8067  0.0322
72643SOL     OW29907   9.437  11.350   4.793 -0.2021 -0.0033  0.1786
72643SOL    HW129908   9.390  11.433   4.803  0.1569  0.1636  0.4766
72643SOL    HW229909   9.396  11.309   4.717  0.3304  0.9309 -0.6377
72644SOL     OW29910   4.718  12.351   1.444  0.5510 -0.1798  0.1021
72644SOL    HW129911   4.702  12.265   1.483 -2.2989 -0.6465 -1.8280
72644SOL    HW229912   4.662  12.410   1.494 -2.0235 -0.5477 -2.1592
72645SOL     OW29913   0.808   3.752   7.533 -0.2267  0.3591 -0.3416
72645SOL    HW129914   0.788   3.666   7.569  0.0294 -0.2145 -1.5391
72645SOL    HW229915   0.821   3.808   7.610  1.2942 -1.0427  0.4816
72646SOL     OW29916   1.558  11.899  11.902 -0.0051  0.8389  0.2228
72646SOL    HW129917   1.604  11.831  11.951 -0.8788  0.3128  0.3364
72646SOL    HW229918   1.469  11.898  11.937 -0.5721  0.6749 -1.1376
72647SOL     OW29919   4.705  13.875  10.887  0.6658  0.4536  0.4622
72647SOL    HW129920   4.694  13.882  10.982 -2.6322  3.7367  0.0876
72647SOL    HW229921   4.787  13.919  10.869  0.4664  1.3981  1.7041
72648SOL     OW29922   6.792   5.637  13.577  0.2898  0.6218 -0.1163
72648SOL    HW129923   6.731   5.666  13.509 -0.6251  0.2457  0.5405
72648SOL    HW229924   6.853   5.579  13.530 -0.3089  0.3893 -0.6220
72649SOL     OW29925   3.421  11.979   0.131  0.0874  0.2628  0.0622
72649SOL    HW129926   3.508  12.018   0.138 -0.5230  1.5021  1.1463
72649SOL    HW229927   3.436  11.885   0.140  1.1745  0.5721  1.8683
72650SOL     OW29928   7.045   8.306  11.993  0.2087  0.1761  0.0514
72650SOL    HW129929   7.056   8.314  12.088  0.8147 -0.3412  0.0390
72650SOL    HW229930   6.967   8.251  11.982 -0.5093  1.1516  0.2233
72651SOL     OW29931   0.825   3.946   7.693  0.2055  0.4736  0.0516
72651SOL    HW129932   0.748   3.972   7.744 -0.4273 -2.0274  0.4703
72651SOL    HW229933   0.897   3.947   7.757 -0.8608 -4.2711  1.7174
72652SOL     OW29934   1.375   1.056  10.973  0.4065 -0.3481 -0.3200
72652SOL    HW129935   1.457   1.078  10.928  0.8894  0.2583  0.8250
72652SOL    HW229936   1.337   1.141  10.996 -1.1500 -0.5727 -1.8383
72653SOL     OW29937   3.522  10.376   2.395 -0.2513 -0.5997 -0.3853
72653SOL    HW129938   3.465  10.366   2.318 -1.0692  1.3689 -0.1098
72653SOL    HW229939   3.606  10.342   2.366 -1.1292 -2.0744 -1.3607
72654SOL     OW29940   3.328   9.919  11.733 -0.1444  0.0955  0.7791
72654SOL    HW129941   3.420   9.896  11.719 -0.1027  0.7872 -0.1716
72654SOL    HW229942   3.330  10.014  11.749 -0.6388  0.0155  1.3226
72655SOL     OW29943   2.144  11.242   2.330  0.2720 -0.0465 -0.1358
72655SOL    HW129944   2.156  11.334   2.352 -0.0692 -0.5150  2.3203
72655SOL    HW229945   2.175  11.195   2.407 -2.1986 -1.8709 -0.1279
72656SOL     OW29946   4.411   1.329   6.095 -0.3804  0.1779  0.0281
72656SOL    HW129947   4.470   1.289   6.031 -0.7824  0.3583 -0.4653
72656SOL    HW229948   4.430   1.284   6.177 -2.8064 -3.1746 -1.0281
72657SOL     OW29949  13.242   0.492   4.005  0.0670 -0.3079  0.0626
72657SOL    HW129950  13.212   0.572   3.961 -0.1345 -0.6881 -0.5124
72657SOL    HW229951  13.166   0.434   4.005  0.6134 -1.0647 -0.8899
72658SOL     OW29952   1.078   9.699   7.901 -0.3999 -0.0833  0.0628
72658SOL    HW129953   1.163   9.708   7.858 -0.6802 -0.4550 -0.5826
72658SOL    HW229954   1.061   9.605   7.903 -0.6452 -0.0355  0.4918
72659SOL     OW29955   8.814   3.791   0.594 -0.4399 -0.4319 -0.2177
72659SOL    HW129956   8.750   3.727   0.623 -0.5124 -0.6900 -0.9264
72659SOL    HW229957   8.896   3.763   0.635 -0.6362 -0.4889  0.1437
72660SOL     OW29958   4.496  10.999   9.217  0.1685 -0.0693 -0.4496
72660SOL    HW129959   4.489  10.997   9.312  2.4633  0.2750 -0.2261
72660SOL    HW229960   4.586  11.026   9.199  0.3858 -1.8689 -2.6884
72661SOL     OW29961   5.041   6.282   8.341  0.3444 -0.2522  0.9487
72661SOL    HW129962   4.987   6.208   8.317  0.7696  0.1011 -1.2479
72661SOL    HW229963   4.990   6.359   8.314  1.4072  0.1217 -0.0438
72662SOL     OW29964   3.122   6.684   4.099 -0.1241  0.0171  0.2490
72662SOL    HW129965   3.113   6.630   4.021  2.3348 -1.4757  0.8864
72662SOL    HW229966   3.091   6.771   4.072 -1.7635 -1.0518 -1.5669
72663SOL     OW29967  10.659  13.782   9.127 -0.3146  0.0837  0.0455
72663SOL    HW129968  10.665  13.838   9.205  0.0657  1.4426 -0.9174
72663SOL    HW229969  10.730  13.813   9.070  1.4329 -2.8952  0.3547
72664SOL     OW29970   9.939   6.446   8.173 -0.2507  0.3239  0.0211
72664SOL    HW129971   9.856   6.469   8.216 -2.2505 -1.6354 -2.4374
72664SOL    HW229972   9.970   6.369   8.220 -0.5570  0.2503  0.1017
72665SOL     OW29973   5.657  11.723   8.586  0.2947  0.5165  0.3593
72665SOL    HW129974   5.714  11.715   8.510  1.4295 -1.3669  1.3354
72665SOL    HW229975   5.583  11.666   8.566 -0.9498  2.3546 -0.5673
72666SOL     OW29976   3.590   4.300   4.749  0.1146  0.2894 -0.5464
72666SOL    HW129977   3.544   4.365   4.696 -2.1856 -1.4421 -0.8043
72666SOL    HW229978   3.614   4.231   4.688  0.1245 -0.3395  0.1471
72667SOL     OW29979   2.619   7.442   5.331  0.1320  0.1473  0.3095
72667SOL    HW129980   2.533   7.437   5.373  0.3090 -0.4339  0.6096
72667SOL    HW229981   2.629   7.534   5.307 -0.4288  0.2791  0.5788
72668SOL     OW29982   3.584   9.958   7.321  0.0739 -0.3601  0.1588
72668SOL    HW129983   3.503   9.981   7.366  0.3309 -1.7983  1.4430
72668SOL    HW229984   3.562   9.881   7.268  0.0711  0.6136 -1.3094
72669SOL     OW29985   6.421  13.324   3.849 -0.3465 -0.3483 -0.2469
72669SOL    HW129986   6.328  13.329   3.827 -0.5786  0.4966  0.8365
72669SOL    HW229987   6.453  13.413   3.840  0.8504 -0.9482 -2.4978
72670SOL     OW29988   0.284   0.582   8.101  0.4557  0.0445  0.1180
72670SOL    HW129989   0.245   0.644   8.040 -0.1879 -0.9590 -0.5245
72670SOL    HW229990   0.378   0.599   8.096  0.2432  1.4677  0.5436
72671SOL     OW29991  13.104  10.247   7.044  0.1253  0.1446  0.0101
72671SOL    HW129992  13.138  10.325   7.002  0.1902 -0.3544 -0.8794
72671SOL    HW229993  13.149  10.174   7.002 -0.6539 -0.4269  0.1296
72672SOL     OW29994   1.362  12.800   6.043 -0.1554 -0.1499 -0.5540
72672SOL    HW129995   1.273  12.782   6.072  0.1467 -1.2403 -0.2786
72672SOL    HW229996   1.417  12.742   6.095  0.7120  0.3923 -0.8379
72673SOL     OW29997   8.935  12.802   5.321  0.2192  0.4055  0.9386
72673SOL    HW129998   8.884  12.825   5.244  0.2832  0.9342  1.0520
72673SOL    HW229999   8.929  12.706   5.326 -0.4492  0.4322  0.7449
72674SOL     OW30000   3.675  10.847  11.922 -0.3806 -0.7453  0.3463
72674SOL    HW130001   3.585  10.851  11.889  0.5342  1.1657 -2.2633
72674SOL    HW230002   3.683  10.923  11.980 -0.0988 -0.1161 -0.5025
72675SOL     OW30003   8.348  13.877  10.398 -0.0080  0.0088 -0.5693
72675SOL    HW130004   8.372  13.969  10.396  1.5332 -0.3485 -0.2058
72675SOL    HW230005   8.413  13.836  10.456 -0.5721 -1.3206 -0.8224
72676SOL     OW30006  12.972   7.308  13.653  0.2479 -0.3988  0.3826
72676SOL    HW130007  12.995   7.316  13.561 -1.0049 -0.7499  0.0191
72676SOL    HW230008  13.045   7.260  13.692  0.5169 -0.7612 -0.5437
72677SOL     OW30009  11.899   5.257  11.954 -0.0576  0.5046 -0.3465
72677SOL    HW130010  11.820   5.212  11.983 -0.2175  1.2474  0.3993
72677SOL    HW230011  11.880   5.350  11.968  0.9965  0.6846 -0.0459
72678SOL     OW30012  11.646  11.918   1.860  0.3725  0.4344 -1.1372
72678SOL    HW130013  11.687  11.888   1.780  2.1239  1.1342 -0.5397
72678SOL    HW230014  11.717  11.920   1.925 -1.4832 -3.2909  1.4175
72679SOL     OW30015   2.300   0.685   4.598  0.0668 -0.3503  0.1376
72679SOL    HW130016   2.249   0.725   4.669 -1.2119  0.3079 -1.1146
72679SOL    HW230017   2.390   0.713   4.615 -0.1816 -0.3314  1.5739
72680SOL     OW30018   4.061   1.546   4.725 -0.6577 -0.2236  0.2383
72680SOL    HW130019   4.042   1.592   4.643  0.6720  1.7943  0.9838
72680SOL    HW230020   4.154   1.524   4.718 -0.5087  0.0515  1.2161
72681SOL     OW30021   2.338   5.066   9.540  0.9330 -0.4061 -0.2396
72681SOL    HW130022   2.246   5.040   9.542  1.1767 -1.3331 -0.3028
72681SOL    HW230023   2.337   5.161   9.534 -0.0159 -0.3055  1.1763
72682SOL     OW30024   2.140  13.362   2.665 -0.1613  0.3108 -0.0578
72682SOL    HW130025   2.191  13.377   2.586  0.3333 -0.7687  0.0370
72682SOL    HW230026   2.133  13.267   2.672 -0.5870  0.3935  0.9503
72683SOL     OW30027   5.698   5.948   1.310  0.1818 -0.4408 -0.0545
72683SOL    HW130028   5.766   6.013   1.291 -2.0657  2.2138  0.2074
72683SOL    HW230029   5.673   5.966   1.401 -3.3805  1.4431 -1.1953
72684SOL     OW30030   4.143   6.889   7.135  0.0921  0.0119  0.1886
72684SOL    HW130031   4.153   6.982   7.159 -0.5230  0.4806 -1.2404
72684SOL    HW230032   4.208   6.875   7.066 -0.4278 -0.3552 -0.2406
72685SOL     OW30033   9.046  13.443   5.589  0.2981  0.5583  0.0622
72685SOL    HW130034   8.958  13.462   5.621  1.1244  0.4640  2.6267
72685SOL    HW230035   9.101  13.508   5.633  1.9248 -1.5302  1.2849
72686SOL     OW30036   4.235  10.485  10.447 -0.6058 -0.1994  0.3239
72686SOL    HW130037   4.273  10.529  10.371 -2.0242  2.9282  1.2514
72686SOL    HW230038   4.153  10.448  10.414 -1.9143  2.3340  0.4518
72687SOL     OW30039  11.355   1.976   2.365  0.2775  0.1701  0.2532
72687SOL    HW130040  11.340   2.025   2.446 -0.5655 -1.6039  1.2215
72687SOL    HW230041  11.285   2.005   2.306 -0.7032 -0.4257  1.0949
72688SOL     OW30042  13.343   9.474  11.817  0.0319  0.1216 -0.3118
72688SOL    HW130043  13.438   9.470  11.805  0.0432 -1.4215  0.0819
72688SOL    HW230044  13.326   9.564  11.844  1.4633  0.2389  0.2687
72689SOL     OW30045   9.822   7.767   9.100 -0.1543 -0.0113 -0.2330
72689SOL    HW130046   9.841   7.675   9.080 -0.8041  0.0691 -1.2816
72689SOL    HW230047   9.825   7.811   9.015  0.2814  0.9716  0.2792
72690SOL     OW30048   3.350   5.351  11.475  0.3765  0.2181 -0.1727
72690SOL    HW130049   3.292   5.331  11.402  1.0444 -0.5568 -0.5092
72690SOL    HW230050   3.340   5.445  11.488  1.4477  0.6936 -2.3349
72691SOL     OW30051   5.480  12.561  13.155  0.1269 -0.3222 -0.0969
72691SOL    HW130052   5.441  12.598  13.234 -0.4213  0.8465 -0.8925
72691SOL    HW230053   5.492  12.468  13.176  1.5022  0.2453  1.9430
72692SOL     OW30054   4.760  13.365   8.211 -0.4302  0.6484  0.3913
72692SOL    HW130055   4.710  13.292   8.174  0.3292 -0.4240  1.4094
72692SOL    HW230056   4.694  13.422   8.249 -0.9656 -0.2433  0.8453
72693SOL     OW30057   3.691   0.580   6.838 -0.2193 -0.0721  0.5572
72693SOL    HW130058   3.709   0.635   6.761  0.2282 -1.5155 -0.4115
72693SOL    HW230059   3.778   0.552   6.867 -0.4896 -1.1530  0.3524
72694SOL     OW30060   3.146  13.332   7.995  0.2447 -0.6109  0.5737
72694SOL    HW130061   3.090  13.409   7.986  1.0681  0.0795  1.1588
72694SOL    HW230062   3.146  13.313   8.089  1.2448 -0.3918  0.6315
72695SOL     OW30063  10.962   7.909   5.966 -0.1417  0.0718  0.0214
72695SOL    HW130064  10.965   7.895   5.871 -0.4777 -3.6697  0.4406
72695SOL    HW230065  11.023   7.845   6.002 -2.4590 -0.9342  2.4836
72696SOL     OW30066   2.039  10.442   7.317 -0.8827  0.2195  0.4156
72696SOL    HW130067   2.025  10.493   7.237 -0.6019 -1.2112 -0.5975
72696SOL    HW230068   2.120  10.476   7.354  0.5374 -0.8977 -1.4622
72697SOL     OW30069   1.153  13.451  10.384 -0.1928  0.1807  0.2285
72697SOL    HW130070   1.093  13.525  10.374  0.4060  0.6613  0.1933
72697SOL    HW230071   1.108  13.392  10.445 -0.0771  1.1956  1.3231
72698SOL     OW30072  13.229   1.568  12.427  0.0519  0.3269  0.6195
72698SOL    HW130073  13.182   1.541  12.347  0.1117  0.9532  0.3703
72698SOL    HW230074  13.184   1.521  12.498 -0.5395  0.4222  0.3147
72699SOL     OW30075  11.044   9.872   1.561  0.6246  0.4464  0.1280
72699SOL    HW130076  11.129   9.916   1.572  0.2287  1.0806  0.7372
72699SOL    HW230077  11.060   9.805   1.495  1.5048  0.8306 -0.0622
72700SOL     OW30078   3.856   1.175  10.499  0.0796 -0.2677 -0.0268
72700SOL    HW130079   3.810   1.165  10.416 -1.7576 -0.8880  1.0035
72700SOL    HW230080   3.858   1.269  10.514  0.0271 -0.1779 -0.5524
72701SOL     OW30081  13.476   5.316  10.691 -0.4303 -0.5684  0.1329
72701SOL    HW130082  13.423   5.330  10.613 -0.9047 -0.6593  0.4365
72701SOL    HW230083  13.561   5.356  10.670 -0.4388 -0.9064 -0.5612
72702SOL     OW30084   0.962   3.378   0.542  0.5006  0.1403  0.3898
72702SOL    HW130085   0.886   3.320   0.536  0.8787 -0.2892 -0.4029
72702SOL    HW230086   0.947   3.444   0.475  1.6679 -0.9698 -1.0146
72703SOL     OW30087  10.240   2.452   3.083  0.6633  0.6127 -0.1453
72703SOL    HW130088  10.290   2.413   3.155 -0.8932 -2.1082 -0.4217
72703SOL    HW230089  10.295   2.441   3.006  0.2828 -1.1023 -0.2047
72704SOL     OW30090   5.629   6.830   6.464  0.2599  0.0670 -0.1156
72704SOL    HW130091   5.687   6.753   6.465 -0.9806 -1.0177  3.1522
72704SOL    HW230092   5.687   6.903   6.484  0.9127 -0.6913  0.9354
72705SOL     OW30093   0.555  13.316   5.140 -0.1223 -0.1515 -0.0948
72705SOL    HW130094   0.525  13.404   5.161  0.4714 -0.1962  0.9926
72705SOL    HW230095   0.479  13.260   5.155  0.3021 -0.2052  2.1666
72706SOL     OW30096  13.316   6.591   5.423  0.1848  0.3264  0.3544
72706SOL    HW130097  13.277   6.537   5.492 -0.4084  2.7448  2.0503
72706SOL    HW230098  13.249   6.597   5.356  0.7826 -2.0944 -0.5353
72707SOL     OW30099   6.091   4.936   4.697 -0.4613 -0.5232  0.1298
72707SOL    HW130100   6.062   4.910   4.609 -0.8222 -0.7082  0.3045
72707SOL    HW230101   6.113   5.029   4.688 -1.1047 -0.3798 -0.0056
72708SOL     OW30102   4.049   7.949  12.277  0.2526  0.7352  0.5429
72708SOL    HW130103   4.079   8.040  12.281  1.7144  0.5526 -2.5523
72708SOL    HW230104   4.117   7.899  12.321 -0.0264  1.0551  1.3395
72709SOL     OW30105   6.346  13.060  13.815 -0.5237 -0.7630 -0.2816
72709SOL    HW130106   6.422  13.005  13.831  0.1632 -0.3272 -1.8795
72709SOL    HW230107   6.299  13.018  13.743 -0.7901 -0.0715 -0.5315
72710SOL     OW30108   7.765   3.242   6.225  0.4641  0.6837  0.6345
72710SOL    HW130109   7.767   3.279   6.137 -0.7611 -0.5417  0.0563
72710SOL    HW230110   7.739   3.315   6.282 -2.8976  0.5838 -0.5936
72711SOL     OW30111  12.218   6.343   7.851 -0.3947 -0.1670  0.6685
72711SOL    HW130112  12.190   6.287   7.923 -0.8237 -0.8227  0.0150
72711SOL    HW230113  12.140   6.350   7.795  0.1521 -0.3390 -0.1359
72712SOL     OW30114  11.317   9.602   2.853 -0.5172  0.3617  0.2622
72712SOL    HW130115  11.361   9.636   2.775 -0.2502  2.5065  1.2694
72712SOL    HW230116  11.303   9.509   2.835 -0.1325  0.7196 -2.1669
72713SOL     OW30117   9.198   9.369   3.293 -0.3388 -0.5800  0.0048
72713SOL    HW130118   9.242   9.289   3.324 -0.7958 -0.6964  0.3675
72713SOL    HW230119   9.168   9.346   3.205  3.0998  0.5399 -1.6594
72714SOL     OW30120   9.450   3.494  13.036 -0.1377  0.2480 -0.5156
72714SOL    HW130121   9.513   3.470  12.968  0.5358 -0.1789  0.2490
72714SOL    HW230122   9.461   3.427  13.103 -2.1042 -0.4226 -0.8009
72715SOL     OW30123  11.764   4.934   8.906  0.0532 -0.2322 -0.5213
72715SOL    HW130124  11.768   4.897   8.994  0.1102  2.0942  0.5372
72715SOL    HW230125  11.746   4.859   8.849  0.9119 -1.9520  1.3356
72716SOL     OW30126  10.741   6.085   0.397 -0.4812  0.1628  0.2284
72716SOL    HW130127  10.693   6.127   0.326  0.1977 -0.0077 -0.3454
72716SOL    HW230128  10.679   6.082   0.470 -1.3110  0.0019 -0.4697
72717SOL     OW30129  10.662   3.841   9.144 -0.3486 -0.0482 -0.3479
72717SOL    HW130130  10.673   3.936   9.147 -0.0220 -0.1002  0.1681
72717SOL    HW230131  10.749   3.807   9.128 -0.9655 -0.1265 -4.5665
72718SOL     OW30132   7.531  14.042  10.390 -0.1944  0.2541  0.6516
72718SOL    HW130133   7.482  13.961  10.381  0.3543 -0.0467  0.3649
72718SOL    HW230134   7.620  14.015  10.411  0.1171  0.7562  0.0191
72719SOL     OW30135   3.011   9.265   2.588  0.6562 -0.1409 -0.1639
72719SOL    HW130136   3.018   9.170   2.582  1.1735 -0.1292  0.1190
72719SOL    HW230137   3.057   9.298   2.511 -1.2917 -0.1365 -1.3819
72720SOL     OW30138   4.843  11.569   5.188 -0.2692  0.0626  0.1013
72720SOL    HW130139   4.831  11.655   5.149 -2.1338 -0.4719 -0.6453
72720SOL    HW230140   4.763  11.522   5.166  0.7130 -1.8793  0.4531
72721SOL     OW30141  12.089  12.319   2.841 -0.4358 -0.1896 -0.3173
72721SOL    HW130142  12.173  12.365   2.848 -0.1989 -0.7555  0.8686
72721SOL    HW230143  12.027  12.386   2.812  0.2496  0.4428 -0.3558
72722SOL     OW30144   6.156   5.457   4.933  0.1333  0.0327  0.1167
72722SOL    HW130145   6.073   5.416   4.957 -0.6804  1.6215  0.1200
72722SOL    HW230146   6.214   5.383   4.914 -1.5051 -1.1151 -0.6968
72723SOL     OW30147   0.793   0.424   3.868  0.2566 -0.2946  0.1138
72723SOL    HW130148   0.717   0.453   3.818 -0.2130 -3.0515 -0.9370
72723SOL    HW230149   0.869   0.457   3.818 -0.2317 -1.4462 -1.4553
72724SOL     OW30150   3.091   6.845   1.072 -0.2682  0.7364 -0.1721
72724SOL    HW130151   3.145   6.788   1.018  1.4465  1.7095  0.4530
72724SOL    HW230152   3.151   6.910   1.106 -1.9899  2.4161 -0.1491
72725SOL     OW30153   8.579   4.949   0.224 -0.3417 -0.1636 -0.2201
72725SOL    HW130154   8.485   4.965   0.215  0.0833  2.0742 -1.3786
72725SOL    HW230155   8.594   4.869   0.173 -1.4091  0.2017 -1.1568
72726SOL     OW30156   5.622   9.703  12.981 -0.8030  0.1920 -0.4718
72726SOL    HW130157   5.668   9.620  12.989  0.4237  0.7960 -1.0354
72726SOL    HW230158   5.691   9.770  12.984 -1.6679  1.1416 -1.0394
72727SOL     OW30159   7.120   5.917   9.129  0.3272 -0.5611 -0.3600
72727SOL    HW130160   7.124   5.902   9.034 -1.2005  2.2474 -0.9865
72727SOL    HW230161   7.042   5.868   9.157  0.5280 -1.0400 -0.6181
72728SOL     OW30162   4.000  10.864  13.989 -0.0028 -0.0411  0.0794
72728SOL    HW130163   4.042  10.945  13.958  0.7426  0.0544  1.2555
72728SOL    HW230164   3.954  10.890  14.069  0.2962 -0.7829  0.5017
72729SOL     OW30165  10.281   0.215   8.645  0.0215  0.0809 -0.0289
72729SOL    HW130166  10.271   0.122   8.665  2.5455 -0.4298 -0.7719
72729SOL    HW230167  10.240   0.226   8.560  0.6477 -0.6289 -0.4385
72730SOL     OW30168   3.762  13.010   2.538  0.0542  0.2042 -0.1505
72730SOL    HW130169   3.813  13.024   2.618 -0.3459  0.4751  0.0577
72730SOL    HW230170   3.677  12.978   2.568  0.5644 -1.6784 -0.5631
72731SOL     OW30171   0.693   1.514  11.964  0.2099 -0.3033 -0.9722
72731SOL    HW130172   0.740   1.441  12.005 -1.9661 -1.0840  0.3093
72731SOL    HW230173   0.653   1.561  12.037  1.2981  2.0831 -1.7831
72732SOL     OW30174  12.033   6.701  12.439  0.2804 -0.1962  0.1137
72732SOL    HW130175  12.058   6.719  12.348 -0.3998 -0.2357 -0.0796
72732SOL    HW230176  11.942   6.728  12.445 -0.0902 -1.4578  0.4309
72733SOL     OW30177   6.412  10.221   7.061 -0.4634 -0.2294 -0.2445
72733SOL    HW130178   6.505  10.201   7.071 -0.5391 -0.0825  0.8416
72733SOL    HW230179   6.403  10.245   6.969  0.5046 -0.5848 -0.4451
72734SOL     OW30180   1.000   2.033   9.328 -0.3069 -0.3078  0.5689
72734SOL    HW130181   1.003   2.115   9.278  0.5496 -0.7754 -0.1716
72734SOL    HW230182   0.944   2.053   9.403 -0.4254  0.8437  0.1936
72735SOL     OW30183   3.264  12.545   5.185  0.1826 -0.4352 -0.1628
72735SOL    HW130184   3.222  12.491   5.118  0.6532 -1.3196  0.2501
72735SOL    HW230185   3.331  12.489   5.223 -1.8869 -1.0356  3.0163
72736SOL     OW30186   6.581   7.891   0.948 -0.4326  0.1787 -0.3460
72736SOL    HW130187   6.543   7.830   0.884 -0.6051  1.4514 -1.5053
72736SOL    HW230188   6.639   7.837   1.001 -1.2500 -1.1628 -0.7555
72737SOL     OW30189   0.780   1.825   3.497 -0.4816 -0.0105 -0.5350
72737SOL    HW130190   0.828   1.743   3.484 -0.8626 -0.4643  0.7841
72737SOL    HW230191   0.698   1.798   3.538  0.1326  1.1612  1.5900
72738SOL     OW30192   5.129   3.050   9.027  0.4975  0.3874  0.3093
72738SOL    HW130193   5.185   3.014   8.958  0.4023 -0.6312  0.7476
72738SOL    HW230194   5.044   3.008   9.013  0.3086  0.6465  0.6692
72739SOL     OW30195  11.165   3.227   1.265 -0.1209  0.0793  0.0448
72739SOL    HW130196  11.157   3.304   1.321  0.1841  1.0015 -1.1475
72739SOL    HW230197  11.078   3.185   1.270 -0.2080  0.3486  0.8956
72740SOL     OW30198   9.314   4.534   6.548  0.3546 -0.1014 -0.1437
72740SOL    HW130199   9.339   4.443   6.531  0.9099  0.3082 -1.6240
72740SOL    HW230200   9.345   4.550   6.637 -0.0245 -1.4376  0.2586
72741SOL     OW30201   6.903  13.631  10.773  0.0386 -0.3055 -0.3614
72741SOL    HW130202   6.826  13.641  10.829  0.2900  3.1569 -0.4423
72741SOL    HW230203   6.867  13.629  10.684 -0.0599 -0.9990 -0.3139
72742SOL     OW30204   4.866  12.134   8.763  0.2273 -0.1819  0.9950
72742SOL    HW130205   4.773  12.116   8.747  0.2540  0.0606  0.5532
72742SOL    HW230206   4.906  12.135   8.676  0.6830 -0.4789  1.1959
72743SOL     OW30207   2.020   0.576   6.226  0.3868  0.6666 -0.3808
72743SOL    HW130208   1.984   0.629   6.155  1.7230  1.4523 -0.5199
72743SOL    HW230209   2.032   0.638   6.298  0.3611  0.1772  0.0506
72744SOL     OW30210  12.271   3.439  12.268 -0.5323 -0.0814  0.3067
72744SOL    HW130211  12.191   3.393  12.291 -1.0412  0.3582 -0.5291
72744SOL    HW230212  12.241   3.517  12.221  0.2948  1.1397  1.7185
72745SOL     OW30213  11.971   2.870   9.557  0.3329 -0.1141 -0.3474
72745SOL    HW130214  12.065   2.876   9.576  0.7362 -0.5022 -2.0996
72745SOL    HW230215  11.958   2.929   9.483 -1.0992  1.0106  0.7242
72746SOL     OW30216   5.392   0.501  11.377  0.5412  0.7684  0.0382
72746SOL    HW130217   5.340   0.490  11.298 -1.0828  1.9833  0.8766
72746SOL    HW230218   5.477   0.462  11.356 -0.8477 -1.8417 -1.1875
72747SOL     OW30219   6.586   1.207   9.466  0.0052  0.3935  0.0493
72747SOL    HW130220   6.579   1.122   9.508 -1.3241  0.1764 -0.5511
72747SOL    HW230221   6.656   1.197   9.402 -0.7640 -0.5560 -0.6722
72748SOL     OW30222   3.531  10.444   7.354 -0.4370 -0.4113  0.2331
72748SOL    HW130223   3.519  10.524   7.302  0.7339  0.6041  1.4743
72748SOL    HW230224   3.548  10.376   7.288 -0.8785  0.4501 -0.8134
72749SOL     OW30225   8.392   3.819  11.737  0.0910  0.0240 -0.5744
72749SOL    HW130226   8.306   3.861  11.740 -0.1726 -0.2980 -2.4727
72749SOL    HW230227   8.373   3.725  11.731  0.6396 -0.2043  0.7725
72750SOL     OW30228   9.432   6.366   7.103  0.0440  0.5070 -0.2426
72750SOL    HW130229   9.357   6.399   7.053  0.5917  0.9158 -0.7995
72750SOL    HW230230   9.505   6.370   7.042  0.8099  1.3605  0.7113
72751SOL     OW30231   0.071   6.259   9.691  0.1508  0.2124  0.3773
72751SOL    HW130232   0.052   6.353   9.682  0.3537  0.1691 -0.6050
72751SOL    HW230233   0.030   6.219   9.615  0.2820 -0.4702  0.6618
72752SOL     OW30234   3.534  10.861   7.556 -0.1678  0.0435  0.0244
72752SOL    HW130235   3.443  10.832   7.563  0.2641 -1.6739 -0.9751
72752SOL    HW230236   3.537  10.913   7.475 -0.7174  2.2018  1.2907
72753SOL     OW30237   9.278   5.230   8.709  0.0275  0.0564 -0.5902
72753SOL    HW130238   9.343   5.301   8.708 -1.2808  1.3067 -0.1851
72753SOL    HW230239   9.231   5.242   8.792  0.4929 -2.0057  0.0331
72754SOL     OW30240   3.477   8.351   1.541  0.0113 -0.3265 -0.1039
72754SOL    HW130241   3.514   8.436   1.517 -1.9891  0.3845 -0.9315
72754SOL    HW230242   3.546   8.288   1.520  1.1675  1.0014 -0.4541
72755SOL     OW30243   2.443   3.909  13.542 -0.3546  0.4828  0.1262
72755SOL    HW130244   2.439   3.992  13.494 -1.6419  0.5064  0.2239
72755SOL    HW230245   2.352   3.879  13.544  0.3155 -1.8630 -1.4846
72756SOL     OW30246   9.281   8.952   2.881 -0.6704  0.1615 -0.2550
72756SOL    HW130247   9.287   8.973   2.974 -1.7355  0.7557 -0.3173
72756SOL    HW230248   9.328   9.023   2.837 -1.5209  0.7370 -0.2592
72757SOL     OW30249   1.477   7.110   5.798 -0.0771  0.4389 -0.2171
72757SOL    HW130250   1.434   7.175   5.853 -1.9182  0.0923 -1.1665
72757SOL    HW230251   1.473   7.146   5.709  1.6352  0.3797 -0.3606
72758SOL     OW30252   7.064  11.071   6.496 -0.3326 -0.2356 -0.1584
72758SOL    HW130253   7.004  11.023   6.438  1.1257 -1.2011 -0.9253
72758SOL    HW230254   7.151  11.055   6.459  0.3490  1.8332  0.4268
72759SOL     OW30255  11.934  12.634  13.520  0.1607  0.5326 -0.2640
72759SOL    HW130256  11.904  12.634  13.610  2.0694  0.5213  0.4147
72759SOL    HW230257  11.972  12.721  13.506  0.1576  0.4342 -0.9612
72760SOL     OW30258   7.882   4.325  10.984  0.2635  0.3702  0.0894
72760SOL    HW130259   7.961   4.285  11.020  0.5250  1.8490  1.2799
72760SOL    HW230260   7.836   4.360  11.061 -1.9149 -1.0084 -0.4809
72761SOL     OW30261  12.093   9.308   7.855  0.0527  0.0844  0.1694
72761SOL    HW130262  12.155   9.262   7.799 -0.8095 -0.6330 -0.2276
72761SOL    HW230263  12.141   9.325   7.936  0.9794  0.1768 -0.3838
72762SOL     OW30264   4.306   7.198   3.060 -0.0440 -0.0538  0.2284
72762SOL    HW130265   4.223   7.233   3.091  0.0442 -1.3727  2.0834
72762SOL    HW230266   4.358   7.185   3.139  1.4551 -0.4942 -0.7845
72763SOL     OW30267   2.299   1.089  11.364 -0.2438 -0.0968  0.0041
72763SOL    HW130268   2.341   1.134  11.438 -2.3080 -0.4226  1.4480
72763SOL    HW230269   2.264   1.009  11.401  1.0464 -1.6904 -1.9813
72764SOL     OW30270   8.127   9.965   2.526 -0.4140  0.6522 -0.2694
72764SOL    HW130271   8.041   9.976   2.484 -1.2839 -0.9156  0.9953
72764SOL    HW230272   8.123  10.020   2.604 -0.1901  0.7384 -0.3182
72765SOL     OW30273   9.569   6.527   0.323  0.3156 -0.0168  0.3161
72765SOL    HW130274   9.646   6.479   0.292  0.9300  1.4024 -0.4632
72765SOL    HW230275   9.498   6.464   0.319  0.6979 -0.3818 -2.5003
72766SOL     OW30276  13.271  11.631   0.461 -0.3573 -0.0769  0.4323
72766SOL    HW130277  13.346  11.576   0.442  0.4171  0.9259  0.5013
72766SOL    HW230278  13.240  11.660   0.375  0.7445  1.3234  0.4821
72767SOL     OW30279   2.404   6.345   4.791 -0.2474 -0.0829  0.0404
72767SOL    HW130280   2.425   6.433   4.820  1.5476 -0.0606 -1.2186
72767SOL    HW230281   2.325   6.322   4.841 -1.4949  2.6689 -0.5034
72768SOL     OW30282   0.823  12.964   7.098 -0.6184 -0.1139 -0.1943
72768SOL    HW130283   0.864  13.050   7.108  0.8387 -0.6202 -1.5046
72768SOL    HW230284   0.878  12.906   7.150 -1.0554 -0.4053 -0.0609
72769SOL     OW30285   5.005   6.924   6.258 -0.5823  0.0684  0.2102
72769SOL    HW130286   5.083   6.956   6.213 -0.0463 -1.1395  0.2402
72769SOL    HW230287   4.982   6.843   6.211 -0.1255 -1.1129  1.9371
72770SOL     OW30288   0.471  11.160   7.697 -0.1506 -0.7725 -0.2517
72770SOL    HW130289   0.401  11.177   7.760  1.9163  2.0221  1.5620
72770SOL    HW230290   0.521  11.088   7.736 -0.5005 -0.9726 -0.1695
72771SOL     OW30291  11.071  12.670   2.122  0.4093  0.2432  0.2279
72771SOL    HW130292  11.150  12.670   2.177  0.3929  0.2831  0.2515
72771SOL    HW230293  11.087  12.601   2.058  0.0604 -0.3674  0.7939
72772SOL     OW30294  11.192   4.238   6.972 -0.1781 -0.0294  0.1972
72772SOL    HW130295  11.179   4.302   6.902 -0.1347  1.5067  1.5195
72772SOL    HW230296  11.277   4.198   6.953 -0.2815  0.1788 -0.7476
72773SOL     OW30297   4.361   1.729  10.620  0.0344  0.8252  0.1520
72773SOL    HW130298   4.272   1.699  10.599 -0.7503  4.4647 -2.8070
72773SOL    HW230299   4.417   1.688  10.554  0.2031  0.2775  0.6285
72774SOL     OW30300   8.415  12.939   4.895 -0.7581  0.5095 -0.1517
72774SOL    HW130301   8.475  12.940   4.969 -0.9808 -0.9692  0.0677
72774SOL    HW230302   8.334  12.978   4.930 -0.1583  1.9314 -0.2803
72775SOL     OW30303  11.762   7.177  11.131 -0.9649  0.0606 -0.4865
72775SOL    HW130304  11.692   7.204  11.072 -0.4384 -0.7324 -1.5168
72775SOL    HW230305  11.719   7.119  11.194 -1.2026 -0.6583 -1.2886
72776SOL     OW30306   7.256  11.195   4.898 -0.0395 -0.1363  0.5684
72776SOL    HW130307   7.163  11.177   4.912 -0.2798  0.5377 -0.0602
72776SOL    HW230308   7.260  11.230   4.809  0.6757  0.7836  0.9498
72777SOL     OW30309   9.187  11.127   1.803  0.4402 -0.6826 -0.2462
72777SOL    HW130310   9.250  11.112   1.733  1.5404 -0.5467  0.6826
72777SOL    HW230311   9.239  11.127   1.883 -0.3020  2.0400  0.3640
72778SOL     OW30312  10.958   6.311   0.314  0.8066 -0.1756  0.3477
72778SOL    HW130313  11.018   6.348   0.249  0.6390 -0.1320  0.2153
72778SOL    HW230314  10.949   6.219   0.290  0.3758 -0.0542  0.0199
72779SOL     OW30315   3.850   6.149  12.121 -0.2186 -0.3097 -0.0593
72779SOL    HW130316   3.882   6.239  12.125  0.5151 -0.3709 -2.7424
72779SOL    HW230317   3.819   6.139  12.031 -1.7660 -2.2868  0.6163
72780SOL     OW30318   8.705   4.691  11.798  0.0585  0.2153  0.2554
72780SOL    HW130319   8.674   4.691  11.888 -2.7880 -1.4683 -0.5922
72780SOL    HW230320   8.753   4.609  11.789  0.4360  0.4338  0.2571
72781SOL     OW30321  10.939  11.982   8.935 -0.8003  0.6988  0.3470
72781SOL    HW130322  11.022  11.985   8.982 -0.8670 -0.6862  0.5954
72781SOL    HW230323  10.880  11.937   8.995 -1.1462 -0.2413 -0.6769
72782SOL     OW30324  11.290   8.623   9.643  0.6612  0.0703 -0.2201
72782SOL    HW130325  11.280   8.696   9.704  1.0594 -0.5426  0.6106
72782SOL    HW230326  11.290   8.545   9.700  2.9319 -0.4096 -0.8049
72783SOL     OW30327  12.461   5.758   4.178 -0.4380  0.6468  0.2937
72783SOL    HW130328  12.461   5.749   4.273  0.4408 -0.2859  0.2284
72783SOL    HW230329  12.408   5.685   4.146 -0.5541  0.8313  0.0593
72784SOL     OW30330   2.788  13.099   9.926 -0.2938  0.2435 -0.4140
72784SOL    HW130331   2.874  13.077   9.960  0.7132  1.5470 -1.9685
72784SOL    HW230332   2.806  13.152   9.848 -2.5160  2.5084  0.4802
72785SOL     OW30333   0.607   2.153  12.742 -0.6279  0.5981  0.2277
72785SOL    HW130334   0.605   2.073  12.689 -1.1392  1.0848 -0.5001
72785SOL    HW230335   0.700   2.173  12.750 -0.4277 -0.5832  1.2225
72786SOL     OW30336  10.468   1.891   4.809 -0.1988 -0.0743  0.4468
72786SOL    HW130337  10.442   1.854   4.894 -0.5604 -0.7349  0.0615
72786SOL    HW230338  10.524   1.824   4.770  0.1088  0.3028  0.2368
72787SOL     OW30339  12.385  12.624   3.662 -0.0418 -0.1587 -0.2300
72787SOL    HW130340  12.368  12.530   3.650 -0.4619  0.1422 -2.4818
72787SOL    HW230341  12.477  12.629   3.686 -0.0315 -1.1407 -0.0070
72788SOL     OW30342   2.386   6.938   4.731 -0.4421  0.7030  0.4238
72788SOL    HW130343   2.460   6.984   4.769  3.1680 -0.8356 -3.8082
72788SOL    HW230344   2.393   6.849   4.766  1.9774 -0.3101 -2.1789
72789SOL     OW30345   8.612   3.607  10.795  0.3015 -0.6930  0.0439
72789SOL    HW130346   8.680   3.628  10.732 -0.5857 -0.8076 -0.9855
72789SOL    HW230347   8.659   3.587  10.876  1.4114  0.6825 -0.2163
72790SOL     OW30348   9.312  11.106  10.194  0.0706  0.7679  0.1272
72790SOL    HW130349   9.249  11.178  10.200  1.4580  2.0879 -0.4973
72790SOL    HW230350   9.374  11.122  10.265 -0.5082 -0.7856  1.0359
72791SOL     OW30351   8.737   5.467   6.195 -0.1621 -0.2404 -0.1031
72791SOL    HW130352   8.731   5.506   6.282 -1.2313 -2.0121  0.6628
72791SOL    HW230353   8.803   5.520   6.150 -0.3515  1.3739  1.4016
72792SOL     OW30354  10.851   3.968   8.865  0.6245 -0.2454  0.2911
72792SOL    HW130355  10.906   3.982   8.789  1.0470  0.3574  0.6953
72792SOL    HW230356  10.912   3.961   8.938  0.1895  0.1855  0.7092
72793SOL     OW30357  10.888  13.359   6.695 -0.4517 -0.1652 -0.1618
72793SOL    HW130358  10.978  13.344   6.725  0.0055  0.1862 -1.3163
72793SOL    HW230359  10.897  13.413   6.617 -1.4511 -2.6492 -2.1525
72794SOL     OW30360   9.432  10.430  13.853  0.1644 -0.0197  0.2449
72794SOL    HW130361   9.471  10.343  13.848 -1.6251 -0.8389 -0.1995
72794SOL    HW230362   9.476  10.473  13.926  1.6722 -0.9691 -0.0686
72795SOL     OW30363   4.238   4.139   0.769 -0.6225  0.2170  0.6789
72795SOL    HW130364   4.249   4.122   0.862  0.2754  1.9664  0.9283
72795SOL    HW230365   4.285   4.221   0.753 -0.9642  0.0943 -1.2667
72796SOL     OW30366   5.234  11.021  10.328  0.0965  0.2857 -0.5840
72796SOL    HW130367   5.296  11.015  10.255  2.1699 -0.4934  1.1317
72796SOL    HW230368   5.159  10.969  10.299  1.6639 -1.6356 -1.4630
72797SOL     OW30369   5.693   5.341   5.991  0.2082 -0.5637  0.1757
72797SOL    HW130370   5.774   5.369   6.034  0.9768 -1.7337 -0.4801
72797SOL    HW230371   5.638   5.311   6.063  0.9619 -1.2283  0.4937
72798SOL     OW30372  10.934   8.091   1.934 -0.0290  0.1498  0.0477
72798SOL    HW130373  10.853   8.064   1.977  0.3950  1.1484  1.5834
72798SOL    HW230374  10.910   8.169   1.884  0.0439  0.7158  0.8691
72799SOL     OW30375   2.752   9.210   5.748  0.7719 -0.7198 -0.3663
72799SOL    HW130376   2.673   9.211   5.693  0.4643  0.1817  0.0667
72799SOL    HW230377   2.750   9.124   5.791  0.0302 -0.7149 -0.3714
72800SOL     OW30378   2.168   2.069   2.301  0.2811  0.1945 -0.1238
72800SOL    HW130379   2.104   2.006   2.268 -0.7269  0.9648  0.3071
72800SOL    HW230380   2.170   2.053   2.396  0.4746  0.4090 -0.0920
72801SOL     OW30381   7.209   1.132   1.427 -0.6439  0.5984  0.4081
72801SOL    HW130382   7.243   1.057   1.379  0.7243  2.9566 -2.5996
72801SOL    HW230383   7.276   1.151   1.493 -0.8600 -0.5919  0.9867
72802SOL     OW30384   0.739  13.495   2.084  0.1816  0.0646 -0.7341
72802SOL    HW130385   0.761  13.403   2.075  0.7017 -0.1808  2.2212
72802SOL    HW230386   0.644  13.497   2.095  0.2489 -0.1813 -0.1176
72803SOL     OW30387   0.241   3.148  11.428 -0.3825 -0.2807 -0.1618
72803SOL    HW130388   0.241   3.236  11.466 -1.8315 -0.2859 -0.1213
72803SOL    HW230389   0.282   3.093  11.495 -0.0223  0.2580  0.0632
72804SOL     OW30390  11.435  12.588  12.247  0.4137  0.5613  0.2702
72804SOL    HW130391  11.505  12.527  12.269 -0.5802 -0.1858  1.5183
72804SOL    HW230392  11.422  12.577  12.152  1.1869 -0.1249  0.2356
72805SOL     OW30393  13.838   3.081  12.879  0.2729  0.6012  0.0359
72805SOL    HW130394  13.872   3.014  12.938 -1.2685  0.6437  1.0163
72805SOL    HW230395  13.803   3.149  12.937  0.2492  1.4478 -0.9382
72806SOL     OW30396  11.573   0.876   9.606  0.0933  0.1107 -0.2641
72806SOL    HW130397  11.494   0.826   9.629  1.6507 -2.7597 -0.7169
72806SOL    HW230398  11.623   0.881   9.688  0.7287 -0.6368 -0.5940
72807SOL     OW30399  13.072   2.721   8.663  0.2917  0.0254 -0.5197
72807SOL    HW130400  13.082   2.748   8.754 -1.7044 -0.1575 -0.1973
72807SOL    HW230401  13.070   2.625   8.667  0.3849  0.0121 -0.7812
72808SOL     OW30402   0.168   8.954   3.744  0.0974  0.1962  0.0665
72808SOL    HW130403   0.184   8.963   3.838  1.0508  0.0915 -0.0695
72808SOL    HW230404   0.161   8.859   3.730 -1.4276  0.2719  0.2307
72809SOL     OW30405   2.068   7.565   4.827  0.1076  0.5814 -0.1990
72809SOL    HW130406   2.133   7.594   4.763 -0.0715  2.4768  0.4106
72809SOL    HW230407   2.090   7.614   4.907 -1.1456  0.1138  0.4563
72810SOL     OW30408  12.897   3.799   9.574  0.8330 -0.0420 -0.1126
72810SOL    HW130409  12.973   3.834   9.528  0.4577 -1.0446 -1.5390
72810SOL    HW230410  12.862   3.874   9.623  3.7766  0.0334  2.0985
72811SOL     OW30411  11.086   7.397   3.823  0.0082 -0.4765 -0.0167
72811SOL    HW130412  11.135   7.470   3.785 -0.8512  0.0642 -0.1216
72811SOL    HW230413  11.150   7.326   3.831  0.9096  0.3537  0.2899
72812SOL     OW30414   9.130   0.975   1.151  0.6641 -0.1490  0.0771
72812SOL    HW130415   9.156   1.030   1.225 -2.7133 -0.2877  1.5553
72812SOL    HW230416   9.141   0.886   1.183 -2.8849 -0.2584  1.5130
72813SOL     OW30417   1.519  10.266  10.124 -0.1644  0.4403  0.4642
72813SOL    HW130418   1.506  10.321  10.202 -3.0785  2.3526 -1.1877
72813SOL    HW230419   1.583  10.314  10.072 -2.2279  2.1394 -0.6762
72814SOL     OW30420  13.731  10.462   4.793 -0.0629  0.0166 -0.2458
72814SOL    HW130421  13.658  10.428   4.844 -0.1127  1.4118  0.6803
72814SOL    HW230422  13.700  10.461   4.702 -0.6665 -0.7804 -0.0341
72815SOL     OW30423   4.121   7.773  10.192 -0.0865 -0.3048 -0.1268
72815SOL    HW130424   4.104   7.791  10.099  0.0639 -1.8295 -0.4769
72815SOL    HW230425   4.181   7.699  10.191 -0.2086 -0.4338  1.2051
72816SOL     OW30426   9.645   8.697   1.701 -0.1397 -1.2743  0.1742
72816SOL    HW130427   9.556   8.724   1.721  0.0962 -0.3247  0.0085
72816SOL    HW230428   9.689   8.691   1.786  1.0707  3.4627  0.1361
72817SOL     OW30429   8.450   9.799   4.781  0.1033  0.0148 -0.7650
72817SOL    HW130430   8.499   9.881   4.793  0.3546 -0.2303 -0.1010
72817SOL    HW230431   8.365   9.827   4.746  0.7602  0.4322 -2.1147
72818SOL     OW30432   2.725   6.981  13.406  0.5998 -0.3679  0.1295
72818SOL    HW130433   2.673   7.010  13.331 -0.3494 -1.8548  0.1675
72818SOL    HW230434   2.765   6.898  13.377  3.5535  1.0094 -0.1359
72819SOL     OW30435   2.412   2.063   6.396  0.0149  0.4592  0.3394
72819SOL    HW130436   2.469   2.127   6.438  0.4682 -1.0216  2.1189
72819SOL    HW230437   2.471   1.993   6.367 -0.7241 -0.3913  0.8423
72820SOL     OW30438   2.259  10.855   6.841 -0.4657  0.1136  0.3405
72820SOL    HW130439   2.308  10.806   6.775 -0.7607  0.8769 -0.4634
72820SOL    HW230440   2.269  10.946   6.815 -1.4459  0.3488  0.7663
72821SOL     OW30441   5.888  10.484   4.623  0.2178  0.2060  0.5463
72821SOL    HW130442   5.974  10.471   4.662 -0.0495  0.3191  1.1871
72821SOL    HW230443   5.832  10.509   4.697 -0.2429  0.6660  0.0480
72822SOL     OW30444  13.792  13.370  11.736  0.1498  0.2495 -0.1700
72822SOL    HW130445  13.883  13.391  11.759 -0.4939  0.1847  2.8270
72822SOL    HW230446  13.797  13.338  11.646  3.2816 -0.9864  0.3101
72823SOL     OW30447   1.083  13.685   5.325  0.2727  0.7341 -0.1718
72823SOL    HW130448   1.166  13.650   5.291  0.2420 -0.9852  1.3717
72823SOL    HW230449   1.022  13.679   5.251  0.5897 -1.4558 -0.3043
72824SOL     OW30450  10.261   1.862  12.066 -0.0492  0.1395 -0.0684
72824SOL    HW130451  10.254   1.861  11.970  0.9283 -1.1221 -0.1596
72824SOL    HW230452  10.318   1.936  12.085  1.4322 -0.7931 -0.6464
72825SOL     OW30453   8.751  12.316  11.722  0.2943 -0.1363 -0.2564
72825SOL    HW130454   8.729  12.242  11.778  0.0514 -0.4786 -0.7951
72825SOL    HW230455   8.835  12.347  11.754  1.0336 -1.4558 -0.8349
72826SOL     OW30456   7.757   1.904   8.508  0.5038 -0.5595  0.0622
72826SOL    HW130457   7.697   1.830   8.515 -0.4576  0.2259  0.4382
72826SOL    HW230458   7.700   1.980   8.497  1.4693  0.1288 -0.3500
72827SOL     OW30459   7.012   6.320  10.317 -0.2573 -0.6270 -0.3904
72827SOL    HW130460   6.980   6.351  10.402  0.3503  1.5448 -0.8706
72827SOL    HW230461   7.057   6.238  10.336  0.3974  0.1204  1.4965
72828SOL     OW30462   0.526   0.126   7.588 -0.0064 -0.1454  0.0236
72828SOL    HW130463   0.513   0.162   7.676  1.4587 -1.2835  0.7503
72828SOL    HW230464   0.621   0.126   7.576  0.0851 -3.2693 -0.0722
72829SOL     OW30465  12.985  12.067  10.395  0.0340 -0.2716 -0.2963
72829SOL    HW130466  13.006  12.062  10.489 -0.3860  0.0076 -0.1890
72829SOL    HW230467  12.949  11.980  10.375 -2.0468  0.4043  0.3328
72830SOL     OW30468   8.990  11.287  13.380 -0.2875  0.4338 -0.5743
72830SOL    HW130469   9.072  11.320  13.414  0.6544 -0.3852 -1.9514
72830SOL    HW230470   8.993  11.306  13.286 -0.7379 -1.4275 -1.0045
72831SOL     OW30471  11.730   1.839   5.181 -0.2350  0.2646  0.9193
72831SOL    HW130472  11.724   1.920   5.131 -0.7206 -2.1227 -3.2860
72831SOL    HW230473  11.649   1.837   5.233 -1.9417  1.0221 -1.5158
72832SOL     OW30474   7.316   2.920   9.083  0.2430 -0.2122  0.0920
72832SOL    HW130475   7.328   2.974   9.161 -3.3697 -2.3643  2.4159
72832SOL    HW230476   7.272   2.977   9.020 -0.7175  0.4165  1.3038
72833SOL     OW30477   5.567   7.294   1.580  0.0795  0.0732 -0.4095
72833SOL    HW130478   5.543   7.360   1.645  1.0467  0.1494 -0.1141
72833SOL    HW230479   5.620   7.231   1.628 -0.5781 -0.7619 -0.7647
72834SOL     OW30480   5.100   3.392   1.549 -0.0050 -0.0918  0.5563
72834SOL    HW130481   5.181   3.408   1.596  0.2839 -1.8216  0.7026
72834SOL    HW230482   5.039   3.458   1.582  1.0952  0.6987  1.0412
72835SOL     OW30483  11.220   5.185   6.318 -0.8656  0.0689 -0.2821
72835SOL    HW130484  11.169   5.204   6.240  0.3270  0.6807 -0.9529
72835SOL    HW230485  11.287   5.124   6.288 -1.1166 -0.6219  0.5416
72836SOL     OW30486  10.576   3.059   1.408  0.0054  0.2928  0.4237
72836SOL    HW130487  10.649   3.109   1.371 -0.0020 -0.2438 -0.3235
72836SOL    HW230488  10.573   2.979   1.357  0.1016 -0.5547  1.7055
72837SOL     OW30489   9.308   8.492   6.768 -0.0856  0.3867  0.1105
72837SOL    HW130490   9.269   8.464   6.851 -1.3447  0.9349 -0.2729
72837SOL    HW230491   9.330   8.584   6.783  0.0194  0.3870 -0.0482
72838SOL     OW30492   3.918   3.938   1.182  0.2950 -0.1260 -0.3107
72838SOL    HW130493   3.907   3.969   1.092 -1.6392 -0.9288 -0.3943
72838SOL    HW230494   3.898   4.015   1.236 -0.4606 -0.1442 -0.5570
72839SOL     OW30495  12.706   5.772   0.572 -0.4248  0.2612  0.6121
72839SOL    HW130496  12.719   5.768   0.477 -0.9512 -1.0878  0.5785
72839SOL    HW230497  12.756   5.698   0.606 -1.8884 -0.4870  1.1841
72840SOL     OW30498   5.197   0.733   8.757  0.2289 -0.4841  0.4413
72840SOL    HW130499   5.205   0.822   8.792  0.6272 -0.5224  0.4581
72840SOL    HW230500   5.285   0.697   8.764  0.3952 -0.3844 -0.8921
72841SOL     OW30501   4.523  10.689   3.031  0.3314 -0.2014  0.7308
72841SOL    HW130502   4.484  10.631   2.965 -0.1323 -0.9952  1.6617
72841SOL    HW230503   4.618  10.680   3.018  0.2551 -0.8148  0.5418
72842SOL     OW30504   7.988   3.448  13.496 -0.0853 -0.3563 -0.0138
72842SOL    HW130505   7.906   3.497  13.501  1.1000  2.0159 -1.7071
72842SOL    HW230506   8.030   3.479  13.416  1.4844 -3.1626 -0.4278
72843SOL     OW30507   1.747  11.973   8.390  0.0464 -0.2443  0.0234
72843SOL    HW130508   1.687  12.041   8.361  0.2667  0.3065  0.8474
72843SOL    HW230509   1.756  11.915   8.314  1.8453  1.9885 -1.6195
72844SOL     OW30510   5.671   4.507   3.804  0.5499  0.5250 -0.8543
72844SOL    HW130511   5.650   4.414   3.816  0.0024  0.7809  0.2784
72844SOL    HW230512   5.630   4.531   3.721  0.6134 -0.2169 -1.1064
72845SOL     OW30513  13.521  11.201   2.799 -0.4612 -0.7572 -0.6423
72845SOL    HW130514  13.561  11.122   2.763 -0.5316 -1.4104  0.6501
72845SOL    HW230515  13.560  11.273   2.749  0.8441 -1.5087 -0.7378
72846SOL     OW30516   3.979  11.842   7.644 -0.2972 -0.2690 -0.1769
72846SOL    HW130517   3.890  11.806   7.654  0.0342 -1.4632 -1.2182
72846SOL    HW230518   4.036  11.768   7.664  0.5377  0.8987  2.0438
72847SOL     OW30519   3.628   1.345   4.129  0.8472 -0.2635  0.3567
72847SOL    HW130520   3.693   1.408   4.158  1.3128  0.7385 -2.5074
72847SOL    HW230521   3.614   1.365   4.036 -3.0060 -0.9367  0.6030
72848SOL     OW30522   4.231   9.985   6.291 -0.3777  0.3065  0.7328
72848SOL    HW130523   4.195  10.069   6.321  1.0631  0.7382  1.3113
72848SOL    HW230524   4.323   9.987   6.317  0.0727 -0.7978 -0.6453
72849SOL     OW30525  10.918  10.737   3.952  0.1325 -0.3703  0.1561
72849SOL    HW130526  10.870  10.696   4.023 -2.0645 -0.8884 -1.5160
72849SOL    HW230527  11.001  10.689   3.949 -0.5512 -1.6632  1.0934
72850SOL     OW30528   4.579  12.210   4.448 -0.1977  0.4368  0.1296
72850SOL    HW130529   4.494  12.174   4.425 -0.4416  0.6967  0.6042
72850SOL    HW230530   4.642  12.145   4.417 -0.5992 -0.0700  0.3525
72851SOL     OW30531   5.062  12.266   2.025 -0.5857  0.0870 -0.5474
72851SOL    HW130532   5.145  12.230   1.994  0.2514  1.5785 -0.1485
72851SOL    HW230533   5.064  12.358   1.999 -0.9746  0.7736  1.6193
72852SOL     OW30534   2.403  10.098  12.418  0.5981  0.1753 -0.2492
72852SOL    HW130535   2.419  10.011  12.380 -1.5099 -0.4514  0.1729
72852SOL    HW230536   2.365  10.149  12.347 -1.6994 -0.4562  0.4690
72853SOL     OW30537  13.617   1.921  11.842  0.7132 -0.0467 -0.5635
72853SOL    HW130538  13.588   1.945  11.753 -1.4404  0.9863  0.3453
72853SOL    HW230539  13.584   1.992  11.897 -0.7726 -2.1777  1.4808
72854SOL     OW30540  12.920   5.055  12.300 -0.0381  0.1410 -0.3264
72854SOL    HW130541  12.967   5.136  12.279 -1.0523  0.2317 -2.4136
72854SOL    HW230542  12.843   5.056  12.243 -0.3070 -2.0910 -0.0750
72855SOL     OW30543   5.768   6.882   7.635 -0.4980  0.0881  0.3324
72855SOL    HW130544   5.826   6.959   7.635  0.7372 -0.7979  1.3058
72855SOL    HW230545   5.716   6.892   7.714  3.4952 -2.6808  3.7652
72856SOL     OW30546   5.106  12.005  13.957  0.8132  0.0868  0.2311
72856SOL    HW130547   5.014  11.981  13.959  0.5901  0.9682  2.0788
72856SOL    HW230548   5.149  11.934  13.908 -0.9632  0.2306 -1.6546
72857SOL     OW30549  11.929  11.041  11.939 -0.5595  0.0002  0.0521
72857SOL    HW130550  11.840  11.004  11.937 -1.0238  1.0411  0.6708
72857SOL    HW230551  11.916  11.136  11.934  0.5068  0.1763  0.3856
72858SOL     OW30552   8.728   0.286   8.366 -0.4435 -0.0384  0.0845
72858SOL    HW130553   8.664   0.230   8.322  0.2243 -0.8724  0.1499
72858SOL    HW230554   8.700   0.288   8.457 -0.6019 -0.0819  0.0360
72859SOL     OW30555   3.198  12.817   5.485 -0.1619 -0.4757  0.8342
72859SOL    HW130556   3.210  12.880   5.415 -2.0029  1.0164  1.7876
72859SOL    HW230557   3.287  12.798   5.516  0.6024 -0.4261 -1.1985
72860SOL     OW30558   4.312   6.949   2.202  0.6032  0.2977  0.2935
72860SOL    HW130559   4.305   6.866   2.249  0.0739  0.1264 -0.0792
72860SOL    HW230560   4.406   6.966   2.197  0.7134 -0.2645  0.3947
72861SOL     OW30561   4.999   0.614   3.925  0.2974  0.1083  0.4019
72861SOL    HW130562   4.909   0.637   3.904  0.3923  0.4255  0.3327
72861SOL    HW230563   5.011   0.526   3.888  0.2423  0.3661 -0.2480
72862SOL     OW30564  11.952  11.355   5.029 -0.0894  0.4296  0.0788
72862SOL    HW130565  11.952  11.368   4.934  2.2961  0.6979  0.0477
72862SOL    HW230566  11.971  11.261   5.040  1.5877  0.7516  0.2353
72863SOL     OW30567  12.108  11.494   3.724 -0.5863 -0.3306  0.2194
72863SOL    HW130568  12.204  11.490   3.722 -0.5524  0.4716 -1.0069
72863SOL    HW230569  12.080  11.436   3.654 -1.0997 -2.0365  1.7664
72864SOL     OW30570   6.167  13.302  11.775  0.1662 -0.3156  0.1892
72864SOL    HW130571   6.166  13.266  11.864 -4.6743 -0.5746  0.2924
72864SOL    HW230572   6.168  13.225  11.718  0.0499 -0.2634  0.1176
72865SOL     OW30573   9.483   1.551   3.006 -0.2205 -0.2875  0.5244
72865SOL    HW130574   9.517   1.623   3.059 -0.2697  0.8432 -0.9183
72865SOL    HW230575   9.542   1.478   3.023  1.5665  0.9431 -0.1443
72866SOL     OW30576   5.998   5.911   5.497  0.1003 -1.1678 -0.4572
72866SOL    HW130577   6.038   5.831   5.465 -0.4715 -1.3670 -0.6812
72866SOL    HW230578   6.066   5.978   5.484  0.4194 -1.5264 -0.6714
72867SOL     OW30579   5.424  11.753  11.009  0.0294 -0.9278  0.6843
72867SOL    HW130580   5.516  11.760  10.981 -0.0904 -0.4251  0.3966
72867SOL    HW230581   5.405  11.659  11.005  0.6085 -1.0660  1.0051
72868SOL     OW30582  11.549   1.467   9.452 -0.2425  0.1512 -0.4217
72868SOL    HW130583  11.563   1.382   9.493 -1.3703 -0.2508 -0.8259
72868SOL    HW230584  11.637   1.500   9.432  0.1943 -0.9414 -0.3323
72869SOL     OW30585   1.493   0.043  12.062 -0.2773  0.2668  0.1376
72869SOL    HW130586   1.569   0.016  12.010 -0.5382 -1.3782  0.5406
72869SOL    HW230587   1.524   0.117  12.114  1.4692 -1.1591  1.2400
72870SOL     OW30588  10.062   4.404   3.495 -0.2452  0.2358  0.2330
72870SOL    HW130589  10.096   4.493   3.489  1.7639 -0.0682  3.8110
72870SOL    HW230590   9.985   4.412   3.550 -0.2820 -0.1752  0.2445
72871SOL     OW30591   1.793   8.099   2.816 -0.6782 -0.0922 -0.2331
72871SOL    HW130592   1.859   8.029   2.819  1.0049  1.4433  0.7012
72871SOL    HW230593   1.776   8.112   2.722  0.1058 -0.7512 -0.4771
72872SOL     OW30594   8.474   8.029   4.155 -0.3014  0.5021 -0.7356
72872SOL    HW130595   8.503   8.069   4.237  1.6278 -0.3326 -0.9482
72872SOL    HW230596   8.379   8.020   4.164 -0.1437  0.5648  1.3312
72873SOL     OW30597   6.783   7.024   4.386  0.2962 -1.0572 -0.1400
72873SOL    HW130598   6.799   7.076   4.465 -1.2231 -1.7654  0.6877
72873SOL    HW230599   6.861   7.037   4.332 -0.5737  3.3548 -0.7327
72874SOL     OW30600   1.544   7.135  12.803  0.2895 -0.3676 -0.2887
72874SOL    HW130601   1.521   7.082  12.727 -0.2406  1.8047 -1.7399
72874SOL    HW230602   1.640   7.129  12.809  0.2228 -1.5961 -0.2873
72875SOL     OW30603  13.065  10.335   8.692  0.1735 -0.1290  0.8480
72875SOL    HW130604  12.985  10.310   8.645 -0.2813  0.3916  1.3214
72875SOL    HW230605  13.068  10.277   8.768  1.1736 -1.3087 -0.0588
72876SOL     OW30606   4.796   0.512   8.136  0.0126  0.3249 -0.6656
72876SOL    HW130607   4.799   0.480   8.227  1.5404  1.6282 -0.2113
72876SOL    HW230608   4.754   0.597   8.142  0.6580  0.6769 -1.0907
72877SOL     OW30609   2.829  10.733   9.131 -0.2652  0.6378 -0.4443
72877SOL    HW130610   2.816  10.818   9.172  4.0272  1.0383  0.5874
72877SOL    HW230611   2.842  10.673   9.205  1.6790  0.1777 -1.0967
72878SOL     OW30612   5.183   5.195   9.502 -0.3072 -0.4239 -0.1337
72878SOL    HW130613   5.173   5.238   9.587 -0.4546 -0.5825 -0.0702
72878SOL    HW230614   5.097   5.201   9.462 -0.3713 -0.8056 -0.0551
72879SOL     OW30615  14.010  10.031   9.835  0.1893  0.0264  0.5053
72879SOL    HW130616  13.924  10.045   9.874  0.4230  0.3327  0.9221
72879SOL    HW230617  14.063   9.994   9.906  0.3473 -0.3566  0.1932
72880SOL     OW30618   9.243   8.748   1.564 -0.8459 -0.1256  0.8421
72880SOL    HW130619   9.183   8.680   1.596  0.0405 -1.3754 -0.0200
72880SOL    HW230620   9.298   8.769   1.638 -1.9057  0.5469  1.4578
72881SOL     OW30621   8.514   2.018   3.277 -0.1333 -0.1954  0.1778
72881SOL    HW130622   8.575   2.087   3.251  0.3473  0.7872  3.4561
72881SOL    HW230623   8.569   1.944   3.299 -0.1645  0.2215  1.7848
72882SOL     OW30624   8.344   1.265   4.930 -0.3936  0.1263  0.3988
72882SOL    HW130625   8.303   1.344   4.895 -0.7689  0.5564  1.7337
72882SOL    HW230626   8.412   1.299   4.990  0.9733 -0.5735 -0.7052
72883SOL     OW30627  10.650   2.618   5.384  0.4419 -0.3510  0.4046
72883SOL    HW130628  10.681   2.706   5.407  1.5870 -0.3215 -1.1053
72883SOL    HW230629  10.707   2.590   5.313 -2.1502 -0.8790 -1.6274
72884SOL     OW30630   5.536   4.109   8.032 -0.0336  0.0189  0.1254
72884SOL    HW130631   5.540   4.204   8.022 -1.2038 -0.0376 -1.2081
72884SOL    HW230632   5.483   4.079   7.958  1.3542 -1.7983 -0.2284
72885SOL     OW30633  10.949   8.726   9.880 -0.3126 -0.0080 -0.3994
72885SOL    HW130634  10.883   8.658   9.887  0.0728 -0.2333  2.1641
72885SOL    HW230635  10.920   8.794   9.941  1.6173 -0.0012  0.6262
72886SOL     OW30636   5.121  11.444   0.874 -0.1268  0.2346  0.7306
72886SOL    HW130637   5.149  11.529   0.909  0.4179  0.6834 -0.7381
72886SOL    HW230638   5.158  11.440   0.787  1.9839 -2.6073  1.6106
72887SOL     OW30639   1.827   5.850   9.174  0.5781 -0.3086  0.4592
72887SOL    HW130640   1.764   5.906   9.128  1.1352  0.3632  0.4997
72887SOL    HW230641   1.777   5.771   9.196 -1.0965  1.2404  2.8596
72888SOL     OW30642   5.984  10.407   2.347 -0.1506  0.0759  0.3008
72888SOL    HW130643   5.969  10.441   2.259  1.5561  0.0591 -0.0377
72888SOL    HW230644   6.053  10.341   2.336 -0.0362 -0.0465  1.6111
72889SOL     OW30645  11.744   0.652  13.165 -0.0287  0.1005 -0.3072
72889SOL    HW130646  11.721   0.583  13.103 -1.1488  0.7986 -0.7140
72889SOL    HW230647  11.720   0.616  13.250 -1.2799  0.2165 -0.5819
72890SOL     OW30648   9.051   6.047  10.747 -0.3286  0.0749  0.0871
72890SOL    HW130649   9.134   6.001  10.733  0.1070  0.8836 -0.0605
72890SOL    HW230650   9.020   6.066  10.658 -0.0143  0.9190  0.1550
72891SOL     OW30651   4.024   2.459   9.211 -0.0484 -0.5068  0.6727
72891SOL    HW130652   3.998   2.384   9.158  0.8242 -0.0499 -0.4470
72891SOL    HW230653   3.956   2.525   9.196  1.1955  0.3865 -1.5980
72892SOL     OW30654  10.540   7.650   9.897 -0.5235 -0.3167  0.0148
72892SOL    HW130655  10.534   7.716   9.829  0.1324 -0.5256 -0.2567
72892SOL    HW230656  10.471   7.587   9.876 -0.6801 -0.0927 -0.1381
72893SOL     OW30657   5.636   8.179   9.324  0.2674  0.2105  0.5903
72893SOL    HW130658   5.700   8.232   9.371  0.3066 -0.0000  0.7744
72893SOL    HW230659   5.626   8.224   9.240  2.4712 -1.0735 -0.4406
72894SOL     OW30660   1.670  13.378   1.560  1.2311 -0.4389 -0.4385
72894SOL    HW130661   1.741  13.438   1.540  2.0196 -1.4826 -0.7922
72894SOL    HW230662   1.640  13.406   1.647  0.6539  1.3283 -1.1568
72895SOL     OW30663  12.207  11.905   0.963  0.6415  0.5125 -0.3043
72895SOL    HW130664  12.257  11.939   0.890  2.8976  0.8126  1.2703
72895SOL    HW230665  12.270  11.899   1.035 -1.4865  0.4020  1.6815
72896SOL     OW30666   1.214   2.771  11.573 -0.0478  0.4305 -0.4035
72896SOL    HW130667   1.136   2.794  11.624 -1.4510 -1.4138 -1.5945
72896SOL    HW230668   1.238   2.684  11.605  0.9398  0.5677 -0.7494
72897SOL     OW30669   0.847   6.050   6.857  0.1149 -0.0846 -0.3004
72897SOL    HW130670   0.796   6.095   6.925  0.9859  0.9693 -0.3110
72897SOL    HW230671   0.784   6.033   6.787 -0.7233 -0.8880  0.6155
72898SOL     OW30672   5.464   1.504   8.989 -0.3291 -0.1698  0.1056
72898SOL    HW130673   5.440   1.435   9.051 -1.7584 -0.1597 -0.4016
72898SOL    HW230674   5.391   1.566   8.993  0.2125  0.5291 -0.5834
72899SOL     OW30675   3.015   0.052   4.534 -0.3539  0.4331  0.5602
72899SOL    HW130676   3.109   0.055   4.555  0.2086  1.7469 -1.6960
72899SOL    HW230677   2.992  -0.040   4.541  1.1634  0.0580  1.0171
72900SOL     OW30678   7.830   4.777  12.272  0.3095 -0.9820  0.7370
72900SOL    HW130679   7.744   4.816  12.257  0.6799 -0.1996  0.6214
72900SOL    HW230680   7.826   4.692  12.227 -0.1541 -0.6422  0.1256
72901SOL     OW30681   1.310   3.505  10.903 -0.7544  0.5155  0.2055
72901SOL    HW130682   1.240   3.439  10.909 -1.0943  0.8362 -0.1969
72901SOL    HW230683   1.272   3.576  10.852  0.0464  0.4677 -0.4752
72902SOL     OW30684  10.970   1.908  11.856  0.0823  0.2949  0.2648
72902SOL    HW130685  10.928   1.928  11.773  1.1990 -0.3214 -0.4821
72902SOL    HW230686  10.945   1.818  11.875 -0.4694  0.5540  0.7979
72903SOL     OW30687   9.918   8.919  13.585 -0.3066 -0.7920  0.1435
72903SOL    HW130688   9.946   8.948  13.672 -0.5738 -0.2555  0.0571
72903SOL    HW230689   9.843   8.861  13.602  0.5818 -1.9157  0.3499
72904SOL     OW30690  12.199  10.287   0.904 -0.1552 -0.1590  0.0291
72904SOL    HW130691  12.272  10.324   0.854 -1.2411  1.3394 -0.5113
72904SOL    HW230692  12.124  10.341   0.881 -1.5970 -2.0053  0.1370
72905SOL     OW30693  13.517   5.822   0.617  0.3571 -0.0169 -0.5089
72905SOL    HW130694  13.568   5.854   0.692  0.0454 -0.6884  0.0036
72905SOL    HW230695  13.570   5.846   0.541  0.1063  1.7628 -0.1697
72906SOL     OW30696   8.514   2.309  12.603  0.0718 -0.5444  0.3136
72906SOL    HW130697   8.546   2.229  12.646 -1.5181 -1.2139  0.2996
72906SOL    HW230698   8.477   2.278  12.520  0.9565  0.4404 -0.4774
72907SOL     OW30699   5.192   5.316  13.197 -0.4107 -0.0820  0.2843
72907SOL    HW130700   5.171   5.252  13.264  0.6873 -1.4905 -0.6712
72907SOL    HW230701   5.283   5.342  13.216 -0.0878 -0.4997 -0.6380
72908SOL     OW30702   5.169   8.230   0.016  0.0069  0.5127 -0.1646
72908SOL    HW130703   5.147   8.251   0.106  0.3099  1.4083 -0.2860
72908SOL    HW230704   5.219   8.306  -0.015  0.6666 -0.1696 -0.8112
72909SOL     OW30705  11.480   5.824   1.482  0.4815  0.1926 -0.2928
72909SOL    HW130706  11.398   5.872   1.493 -0.2251 -0.5893 -1.7530
72909SOL    HW230707  11.453   5.737   1.453  1.7390 -1.0044  1.8518
72910SOL     OW30708   5.553   6.039   1.561  0.3969 -0.3516  0.2174
72910SOL    HW130709   5.582   6.068   1.648 -1.5367 -0.5075  0.9534
72910SOL    HW230710   5.509   6.115   1.524 -1.9280 -1.2801  0.8797
72911SOL     OW30711  13.366   3.399   0.550  0.3586 -0.2550 -0.0345
72911SOL    HW130712  13.381   3.405   0.644 -0.5237 -1.3440  0.1926
72911SOL    HW230713  13.446   3.360   0.515  1.4202  1.7542 -0.0128
72912SOL     OW30714   7.580   5.730  12.481  0.0404 -0.4788  0.8278
72912SOL    HW130715   7.573   5.780  12.562  1.7793 -0.4825  1.0147
72912SOL    HW230716   7.670   5.698  12.480  0.6630  1.1019 -2.0269
72913SOL     OW30717   9.056   1.898  13.502  0.2096 -0.0686  0.1469
72913SOL    HW130718   9.059   1.959  13.428 -1.3490  0.2200  0.2727
72913SOL    HW230719   9.092   1.948  13.575 -0.8596  0.6685  0.2019
72914SOL     OW30720  13.060   0.962   4.910 -0.3915  0.5342 -0.3833
72914SOL    HW130721  13.060   0.976   5.005 -0.4696 -0.2984 -0.2516
72914SOL    HW230722  13.122   1.027   4.877 -0.3049  0.7859  0.2436
72915SOL     OW30723  12.965   3.436  13.629  0.1418 -0.1906  0.0806
72915SOL    HW130724  12.984   3.464  13.539 -0.1676 -2.3210 -0.6980
72915SOL    HW230725  12.879   3.394  13.623  0.0872 -0.2986  1.3949
72916SOL     OW30726   3.796   6.983   7.429  1.1887  0.4417  0.3985
72916SOL    HW130727   3.822   6.907   7.481 -0.7746 -1.3572 -1.1077
72916SOL    HW230728   3.764   6.946   7.347 -0.4951  2.8594 -0.1173
72917SOL     OW30729   6.310   1.888  12.728  0.3950 -0.1278 -1.0736
72917SOL    HW130730   6.285   1.803  12.765 -0.9420  0.5436 -0.3845
72917SOL    HW230731   6.389   1.913  12.776 -0.3068 -0.0903  0.0935
72918SOL     OW30732   6.365   3.063  13.079 -0.0329  0.2153  0.3248
72918SOL    HW130733   6.397   3.014  13.154  1.6405  1.9768  0.8207
72918SOL    HW230734   6.301   3.004  13.038 -1.0809 -0.7614  3.1254
72919SOL     OW30735   2.148  13.616  10.215  0.2313  0.1411  0.0954
72919SOL    HW130736   2.172  13.586  10.127  0.8199  1.1700 -0.1189
72919SOL    HW230737   2.181  13.706  10.219  0.8075 -0.1001  1.5990
72920SOL     OW30738  10.349  10.345   2.777  0.2563  0.0742  0.0048
72920SOL    HW130739  10.323  10.313   2.864 -2.2008  2.1116  0.1313
72920SOL    HW230740  10.286  10.303   2.717  1.0005 -0.1572 -0.6351
72921SOL     OW30741  10.334   4.282   4.404 -0.2317  0.0503  0.2153
72921SOL    HW130742  10.292   4.302   4.488 -1.3431  1.6101 -0.6483
72921SOL    HW230743  10.312   4.356   4.348  0.7090 -0.8178 -1.3896
72922SOL     OW30744   8.616   9.299   4.502  0.2445  0.1418 -0.0156
72922SOL    HW130745   8.707   9.296   4.533  0.2633  1.0608  0.0434
72922SOL    HW230746   8.568   9.341   4.573  0.2266  1.9407 -1.0297
72923SOL     OW30747   9.672   6.891   9.265  0.1077 -0.1404 -0.1063
72923SOL    HW130748   9.678   6.865   9.173  2.2977 -2.9908  0.6624
72923SOL    HW230749   9.596   6.844   9.298 -0.4415  0.5620 -0.3655
72924SOL     OW30750   8.051   5.666  10.217 -0.3499  0.0386  0.0698
72924SOL    HW130751   8.109   5.687  10.290  0.3416  1.1044 -0.7550
72924SOL    HW230752   7.971   5.717  10.234  0.2340  1.1755 -0.4560
72925SOL     OW30753   4.776  12.572   9.708  0.7174  0.5133  0.0433
72925SOL    HW130754   4.714  12.517   9.660 -0.4571  1.8343 -0.0285
72925SOL    HW230755   4.852  12.578   9.650 -0.1075  0.9251 -1.0305
72926SOL     OW30756   1.836   3.728   6.098 -0.2222 -0.2536 -0.2259
72926SOL    HW130757   1.832   3.724   6.002 -0.7998 -0.6100 -0.1940
72926SOL    HW230758   1.774   3.661   6.127  0.6489 -0.8081  0.3980
72927SOL     OW30759   3.251  11.610   4.011  0.6024  0.0475 -0.3553
72927SOL    HW130760   3.228  11.676   3.945 -0.4960  0.0185 -0.0330
72927SOL    HW230761   3.262  11.529   3.961  1.1864  0.3141 -0.6626
72928SOL     OW30762   2.856   0.657   6.650  0.1185 -0.4255  0.1118
72928SOL    HW130763   2.781   0.715   6.639  0.3205 -0.1584  0.1423
72928SOL    HW230764   2.891   0.645   6.561  0.4262 -0.0300  0.1740
72929SOL     OW30765   4.030   8.426   9.601 -0.7483 -0.5162  0.1687
72929SOL    HW130766   4.016   8.358   9.534 -0.8588  0.1211 -0.4758
72929SOL    HW230767   3.959   8.414   9.663 -1.7184  0.0020 -0.8021
72930SOL     OW30768   0.886  11.694   8.519  0.5211 -0.5962 -0.2316
72930SOL    HW130769   0.871  11.709   8.612  0.0678 -3.3708  0.2198
72930SOL    HW230770   0.980  11.677   8.511  1.0785  2.2301 -0.7774
72931SOL     OW30771   9.506  11.605  13.451 -0.1776  0.6201  0.6869
72931SOL    HW130772   9.579  11.552  13.481  1.1450  0.9618 -1.6934
72931SOL    HW230773   9.513  11.604  13.356 -3.2379  0.7733  0.3681
72932SOL     OW30774   8.820  13.252   1.502  0.0865 -0.5894 -0.3535
72932SOL    HW130775   8.741  13.238   1.450 -1.8680  2.1997  1.5648
72932SOL    HW230776   8.835  13.168   1.545 -1.5912 -1.3208 -1.1072
72933SOL     OW30777  10.008   5.390   8.329 -0.5574 -0.2207  1.3375
72933SOL    HW130778   9.941   5.457   8.342 -0.2408  0.3799  0.0856
72933SOL    HW230779   9.977   5.340   8.253 -0.8336 -1.5756  2.3131
72934SOL     OW30780   3.661   0.175   9.515 -0.3892  0.4261  0.0685
72934SOL    HW130781   3.744   0.186   9.470 -0.0837 -2.1929 -0.1871
72934SOL    HW230782   3.625   0.093   9.480 -1.9786  0.2944  1.7954
72935SOL     OW30783  12.694  10.853   4.564 -0.0009  0.6613 -0.9785
72935SOL    HW130784  12.602  10.875   4.580  0.2538  0.9516  0.1725
72935SOL    HW230785  12.696  10.757   4.566 -0.4791  0.6024 -2.2896
72936SOL     OW30786   4.740   6.944   3.881 -0.2139 -0.3532 -0.2433
72936SOL    HW130787   4.682   7.013   3.914 -0.3412 -0.6120  0.0784
72936SOL    HW230788   4.692   6.905   3.808 -0.7890 -1.0890  0.5210
72937SOL     OW30789   9.811  11.274   2.418  0.1868  0.1432  0.6410
72937SOL    HW130790   9.788  11.191   2.378 -2.2302  2.0714 -2.4157
72937SOL    HW230791   9.892  11.301   2.374 -0.3014  0.4386 -0.0902
72938SOL     OW30792   9.952   8.734  11.135 -0.1231 -0.0112 -0.1283
72938SOL    HW130793   9.977   8.669  11.070  0.4049 -0.6963  0.7293
72938SOL    HW230794  10.021   8.800  11.132 -0.3405  0.1916 -0.5829
72939SOL     OW30795  10.130  13.118   8.253 -0.2206 -0.2579  0.0208
72939SOL    HW130796  10.172  13.180   8.312  1.0490  0.8450 -1.9347
72939SOL    HW230797  10.063  13.169   8.208 -0.2253 -0.7071 -0.4969
72940SOL     OW30798   3.353   0.544   7.543  0.2911 -0.3290 -0.0880
72940SOL    HW130799   3.447   0.532   7.525  0.1372 -0.8319 -0.5789
72940SOL    HW230800   3.310   0.513   7.464 -0.3020 -0.2809  0.2169
72941SOL     OW30801   3.487  12.539   8.208 -0.0173  0.2555 -0.1034
72941SOL    HW130802   3.474  12.477   8.280  2.5986  0.2665  0.4922
72941SOL    HW230803   3.555  12.598   8.240  1.1560  0.3449 -2.5276
72942SOL     OW30804  12.835  12.258   8.943  0.0189  0.3666  0.1953
72942SOL    HW130805  12.766  12.278   8.880  0.9496 -2.6397 -1.9962
72942SOL    HW230806  12.897  12.330   8.935 -0.5673  0.7383 -1.3337
72943SOL     OW30807  11.108  11.423   5.397  0.0911  0.9313 -0.2006
72943SOL    HW130808  11.201  11.418   5.419 -0.0122  0.6112  0.1621
72943SOL    HW230809  11.102  11.499   5.338  0.6028  0.8590 -0.3537
72944SOL     OW30810   1.164   5.119   1.302 -0.3685  0.7392 -0.0573
72944SOL    HW130811   1.166   5.088   1.392 -1.9803  0.5367 -0.0652
72944SOL    HW230812   1.080   5.089   1.268  0.4043  0.4200 -1.7794
72945SOL     OW30813  13.995   4.367   7.602  0.0276 -0.5053 -0.2665
72945SOL    HW130814  14.021   4.427   7.532  1.8329  1.0610  1.5983
72945SOL    HW230815  14.003   4.280   7.562 -0.6567  0.3616 -2.4591
72946SOL     OW30816   1.981  12.153   3.567 -0.3662 -0.0060  0.8981
72946SOL    HW130817   1.920  12.082   3.546  2.0602 -1.3377 -2.7747
72946SOL    HW230818   2.067  12.111   3.562  1.1073  2.9147 -0.1859
72947SOL     OW30819  10.793   2.192  13.682  0.2681 -0.0476  0.1782
72947SOL    HW130820  10.850   2.225  13.613  0.7682  2.3363  1.6052
72947SOL    HW230821  10.849   2.134  13.734  0.7160  0.3769  0.1770
72948SOL     OW30822   3.093  12.964  13.788  0.3079  0.2463 -0.1404
72948SOL    HW130823   3.094  12.876  13.751 -1.0932  0.3052 -0.3527
72948SOL    HW230824   3.182  12.978  13.820  0.4505 -1.3898  0.2324
72949SOL     OW30825   6.520   3.104  10.013 -0.0113 -0.0580 -0.2037
72949SOL    HW130826   6.483   3.179  10.059  1.6584  0.4699  0.3603
72949SOL    HW230827   6.608   3.094  10.050  0.1158 -1.7800 -0.8622
72950SOL     OW30828  12.907   0.210   8.102  0.0529  0.1003 -0.6138
72950SOL    HW130829  12.884   0.263   8.026 -2.4003  1.8683  1.1917
72950SOL    HW230830  12.919   0.273   8.173  1.3198 -1.5449  0.7239
72951SOL     OW30831   0.784   8.593  13.550  0.3491 -0.4669  0.5611
72951SOL    HW130832   0.749   8.528  13.488  1.1988  0.8152 -1.3597
72951SOL    HW230833   0.706   8.630  13.592 -0.2560 -1.3471  0.2519
72952SOL     OW30834   3.093   9.533  10.122 -0.6361 -0.0010  0.2955
72952SOL    HW130835   3.092   9.438  10.116  0.4609 -0.0425  0.4815
72952SOL    HW230836   3.070   9.564  10.035 -0.8284 -0.4318  0.1938
72953SOL     OW30837   7.133   4.726   0.479 -0.4049  0.3718  0.1605
72953SOL    HW130838   7.182   4.808   0.482  0.1820  0.0309  0.0797
72953SOL    HW230839   7.177   4.675   0.411 -1.8248  0.6553 -1.0402
72954SOL     OW30840   4.639  12.187   6.472  0.0314  0.2302 -0.1063
72954SOL    HW130841   4.565  12.218   6.526 -0.5578  0.2749 -0.9156
72954SOL    HW230842   4.643  12.249   6.400  1.4139  0.7105  0.3595
72955SOL     OW30843   7.832  12.691  12.650 -0.1214 -0.0372  0.0247
72955SOL    HW130844   7.820  12.784  12.631  0.5188 -0.1102 -0.8054
72955SOL    HW230845   7.773  12.646  12.591 -0.0454 -0.1778  0.0549
72956SOL     OW30846   1.188   6.895   9.216 -0.0234 -0.0823 -0.3499
72956SOL    HW130847   1.103   6.853   9.228  0.0473  0.2493  1.5932
72956SOL    HW230848   1.250   6.823   9.212 -0.3360 -0.3115 -1.4356
72957SOL     OW30849  10.654   5.074  10.771  0.3065 -0.4940 -0.1574
72957SOL    HW130850  10.602   5.010  10.820 -1.4179  0.8626 -0.1151
72957SOL    HW230851  10.742   5.067  10.807 -0.1430 -1.9522  0.7059
72958SOL     OW30852   2.350   0.133   6.396 -0.7965  0.7610 -0.0472
72958SOL    HW130853   2.273   0.146   6.451 -0.3687 -2.9897  1.6809
72958SOL    HW230854   2.323   0.068   6.331  0.9029 -0.8082  0.7419
72959SOL     OW30855   8.279   3.423   7.382 -0.2724  0.2153  0.1181
72959SOL    HW130856   8.348   3.389   7.326 -1.3394  1.5811 -2.1625
72959SOL    HW230857   8.211   3.356   7.379 -0.1326  0.0670  0.2114
72960SOL     OW30858   5.721   2.693   3.694 -0.7026 -0.1266  0.0877
72960SOL    HW130859   5.805   2.714   3.655  0.2683 -0.4271  1.8865
72960SOL    HW230860   5.719   2.598   3.699 -0.1783 -0.0812  1.9333
72961SOL     OW30861   2.347   9.364  10.714 -0.1050  0.0706  0.3881
72961SOL    HW130862   2.400   9.299  10.668 -0.6087 -0.2898  0.3010
72961SOL    HW230863   2.257   9.332  10.705 -0.0705 -1.2855  3.5481
72962SOL     OW30864  13.498  13.658  10.972 -0.1520  0.1982 -0.3600
72962SOL    HW130865  13.435  13.711  11.021 -0.6937 -0.6686 -0.0945
72962SOL    HW230866  13.497  13.694  10.884  1.3245  2.2305  0.3650
72963SOL     OW30867   0.001  10.764   7.048  0.2914  0.3345 -0.4959
72963SOL    HW130868  -0.077  10.817   7.060  0.7293  0.8085  0.4100
72963SOL    HW230869   0.074  10.825   7.063  0.8123 -0.2984 -0.3947
72964SOL     OW30870  13.299   9.433   4.740  0.1013 -0.3705 -0.8630
72964SOL    HW130871  13.370   9.468   4.794 -0.1803  0.4624 -1.0017
72964SOL    HW230872  13.336   9.425   4.652  0.3058 -0.8884 -0.7321
72965SOL     OW30873   4.765   8.331   1.095  0.0473  0.1843  0.2445
72965SOL    HW130874   4.745   8.414   1.052 -2.4165 -0.4700 -0.0816
72965SOL    HW230875   4.733   8.341   1.184  1.3426  0.1392  0.7343
72966SOL     OW30876   5.426   8.397   1.263 -0.0769 -0.1521 -0.4102
72966SOL    HW130877   5.368   8.340   1.213 -1.2157  0.3208  0.3595
72966SOL    HW230878   5.513   8.381   1.225 -1.0399  1.1543 -3.4977
72967SOL     OW30879   2.707   1.480  11.073 -0.0845 -0.0842 -0.2115
72967SOL    HW130880   2.697   1.388  11.049 -0.1721 -0.8080  2.2980
72967SOL    HW230881   2.634   1.524  11.030 -0.9241 -1.4498 -0.2518
72968SOL     OW30882   3.261  12.519  13.510 -0.3175 -0.2506  0.1026
72968SOL    HW130883   3.230  12.600  13.549  1.5753  0.9659 -0.7891
72968SOL    HW230884   3.312  12.476  13.579 -2.5227 -1.5041  1.0673
72969SOL     OW30885   0.976   6.010   0.805  0.2831  0.2651  0.2120
72969SOL    HW130886   0.956   5.964   0.724  2.4680  2.1604 -1.5569
72969SOL    HW230887   0.926   6.091   0.800 -2.1291 -0.9436  2.4354
72970SOL     OW30888   6.175   9.836   4.401 -0.0396  0.3266 -0.4438
72970SOL    HW130889   6.153   9.873   4.316 -0.0014  3.1582  0.6643
72970SOL    HW230890   6.134   9.750   4.401 -0.0898  0.2642 -3.2706
72971SOL     OW30891   5.147   0.884   1.548 -0.7135 -0.5805 -0.6972
72971SOL    HW130892   5.190   0.800   1.534  3.3404  1.2057 -0.3591
72971SOL    HW230893   5.160   0.903   1.640  1.5397  1.7736 -1.3803
72972SOL     OW30894  11.155   2.804   6.179 -0.1781  0.1025 -0.5335
72972SOL    HW130895  11.110   2.865   6.121 -0.5706  0.5504  0.2201
72972SOL    HW230896  11.084   2.763   6.230 -0.1419 -2.4444 -2.3347
72973SOL     OW30897   8.156   5.822   1.013 -0.2067  0.5178  0.0367
72973SOL    HW130898   8.094   5.852   1.080 -1.5720 -0.9307 -0.5340
72973SOL    HW230899   8.164   5.728   1.028 -0.9999  0.0425 -2.1841
72974SOL     OW30900   4.865   7.451  10.899 -0.0045 -0.1040 -0.0329
72974SOL    HW130901   4.898   7.361  10.896 -0.7201 -0.3565 -0.5868
72974SOL    HW230902   4.852   7.468  10.992  1.2374 -0.1546  0.1638
72975SOL     OW30903   6.159  12.667  11.515  0.3825  0.7656  0.1874
72975SOL    HW130904   6.146  12.745  11.462  0.1868  0.1517 -0.7070
72975SOL    HW230905   6.255  12.657  11.519  0.4091  1.0757  0.3428
72976SOL     OW30906   6.245  10.742   0.817  0.5035  0.1389  0.3992
72976SOL    HW130907   6.203  10.724   0.901  0.3434  0.2825  0.3490
72976SOL    HW230908   6.302  10.666   0.803 -0.8040 -0.7684 -0.2065
72977SOL     OW30909   2.954   1.679  13.789 -0.8719  0.1533 -0.1049
72977SOL    HW130910   2.984   1.671  13.699 -0.1993  0.1328  0.1150
72977SOL    HW230911   2.925   1.770  13.797 -0.6034  0.2512 -0.2442
72978SOL     OW30912   5.219   0.151   4.732 -0.1540 -0.3813  0.8977
72978SOL    HW130913   5.215   0.216   4.662 -1.1481 -1.8768 -0.5131
72978SOL    HW230914   5.187   0.198   4.809 -2.2920  0.4601 -0.3847
72979SOL     OW30915   8.473   3.568   0.277  0.3700  0.6443 -0.0578
72979SOL    HW130916   8.459   3.539   0.367 -0.9604 -0.8034 -0.6832
72979SOL    HW230917   8.462   3.663   0.281  0.2266  0.5963  1.2754
72980SOL     OW30918   3.149   2.459   6.197 -0.2915  0.0612 -0.3240
72980SOL    HW130919   3.240   2.473   6.224 -0.6509  0.2584  0.8432
72980SOL    HW230920   3.150   2.374   6.153  0.3654 -0.1820  0.1417
72981SOL     OW30921  13.183   0.970   8.626 -0.3166  0.2511  0.1715
72981SOL    HW130922  13.141   0.889   8.656 -0.4378 -0.0351 -0.7461
72981SOL    HW230923  13.187   1.025   8.704  1.2891 -1.2635  1.2390
72982SOL     OW30924   0.986   2.600   2.756 -0.0148  0.2108  0.2363
72982SOL    HW130925   1.064   2.613   2.810 -0.3481 -0.8134  0.9851
72982SOL    HW230926   0.944   2.686   2.755  0.3327  0.4069  1.0957
72983SOL     OW30927  11.091  11.441  13.872  0.1280  0.9106  0.1564
72983SOL    HW130928  11.160  11.424  13.808  0.4475 -1.9214  1.1156
72983SOL    HW230929  11.014  11.395  13.837 -0.0923  0.5591  1.0630
72984SOL     OW30930   2.410   1.373  13.230  1.0600  0.5802 -0.1391
72984SOL    HW130931   2.485   1.373  13.290  0.8857 -1.8424  0.1689
72984SOL    HW230932   2.425   1.298  13.173 -1.1237  0.0164 -0.0563
72985SOL     OW30933  13.033   6.359   2.526 -0.8779  0.3583 -0.5520
72985SOL    HW130934  12.972   6.366   2.453  0.5844  0.7199 -1.7838
72985SOL    HW230935  13.084   6.440   2.523 -0.5117  0.1973  0.6326
72986SOL     OW30936   5.781   3.412  12.136 -0.2021  0.2372  0.6557
72986SOL    HW130937   5.854   3.372  12.089 -0.4493 -0.4488  0.8404
72986SOL    HW230938   5.798   3.506  12.132  0.2878  0.1282  0.0371
72987SOL     OW30939  10.649   1.119   2.611  0.1305 -0.0105 -0.1936
72987SOL    HW130940  10.663   1.042   2.666  1.2796 -0.9516 -1.7027
72987SOL    HW230941  10.725   1.175   2.628 -0.0004  0.1478 -0.1234
72988SOL     OW30942   2.375   0.924   2.863  0.2148  0.3790  0.8241
72988SOL    HW130943   2.304   0.867   2.893  0.2699  0.4922  1.1731
72988SOL    HW230944   2.358   0.936   2.769  1.2883 -1.8111  0.2850
72989SOL     OW30945   8.023  11.993  11.118  0.3366 -0.4162 -0.3607
72989SOL    HW130946   8.099  11.938  11.137  0.2631 -0.0279  1.1858
72989SOL    HW230947   8.006  12.040  11.200 -1.0594  0.1297 -0.9284
72990SOL     OW30948  11.344   1.468   3.043  0.3209  0.1855 -0.0764
72990SOL    HW130949  11.359   1.555   3.079 -1.7616  1.3199 -1.7514
72990SOL    HW230950  11.425   1.420   3.062  1.0096  2.0349  2.0439
72991SOL     OW30951   4.534  13.519   1.896  0.3376  0.2989 -0.6452
72991SOL    HW130952   4.614  13.468   1.904  0.2225  0.2314  0.2484
72991SOL    HW230953   4.544  13.590   1.960 -0.3295  0.2626 -0.4871
72992SOL     OW30954   5.643   1.762   8.082  0.1649 -0.0505 -0.1944
72992SOL    HW130955   5.595   1.814   8.017  1.2850  0.2447 -0.8119
72992SOL    HW230956   5.600   1.677   8.080 -0.2879  0.1804 -0.7938
72993SOL     OW30957   2.013   3.696   1.101 -1.0227  0.0232  0.1363
72993SOL    HW130958   1.952   3.709   1.174 -1.6375  2.0373 -0.6558
72993SOL    HW230959   2.017   3.782   1.059  1.7469 -0.2697 -0.3399
72994SOL     OW30960   5.884   1.702   6.710 -0.0936 -0.3954 -0.5950
72994SOL    HW130961   5.906   1.788   6.675 -0.3491 -0.1782 -0.2320
72994SOL    HW230962   5.965   1.651   6.702  0.1750  0.0040 -0.4408
72995SOL     OW30963  12.680   3.366  12.026  0.9490 -0.2488  0.0570
72995SOL    HW130964  12.689   3.405  11.939  0.8630 -0.2034  0.0686
72995SOL    HW230965  12.720   3.429  12.085  1.9889 -0.7643 -0.0651
72996SOL     OW30966   0.651   1.337   2.368 -0.3773  0.4278 -0.2015
72996SOL    HW130967   0.726   1.396   2.357  0.9394 -1.4151 -1.8435
72996SOL    HW230968   0.584   1.391   2.411  0.7452  3.0763 -1.5384
72997SOL     OW30969   7.723   3.698   9.596 -0.3612  0.3031 -0.3485
72997SOL    HW130970   7.778   3.628   9.633 -2.0489 -0.6472  0.4815
72997SOL    HW230971   7.673   3.730   9.671 -2.4136 -0.2684 -1.4144
72998SOL     OW30972  10.629   9.364   9.690  0.2659 -0.2932 -0.3483
72998SOL    HW130973  10.700   9.408   9.642  1.0858 -0.2315  0.8684
72998SOL    HW230974  10.608   9.288   9.636  0.5912  0.2127 -1.2099
72999SOL     OW30975   9.156   6.856   8.036  0.2891  0.1607  0.0726
72999SOL    HW130976   9.092   6.810   8.090  2.1498 -0.4099  1.9287
72999SOL    HW230977   9.103   6.905   7.973 -1.9597 -0.0259  1.6929
73000SOL     OW30978   2.293   5.540  10.752 -0.4395 -0.1279  0.1121
73000SOL    HW130979   2.337   5.618  10.786  0.0979 -0.4540  0.1750
73000SOL    HW230980   2.240   5.509  10.826 -1.2288  0.5820 -0.1365
73001SOL     OW30981   2.132   3.088  11.099  0.0154  0.0184 -0.4095
73001SOL    HW130982   2.086   3.013  11.136 -0.2555 -1.8664 -4.0278
73001SOL    HW230983   2.219   3.085  11.139 -0.6949 -0.8555  1.1501
73002SOL     OW30984   1.893   6.521  10.313 -0.1483 -0.0052 -0.2841
73002SOL    HW130985   1.976   6.559  10.284  0.1755  0.1448  0.8012
73002SOL    HW230986   1.855   6.484  10.233 -0.8704  3.2344 -1.5680
73003SOL     OW30987   3.595   1.892   2.041  0.0163  0.2391  0.1837
73003SOL    HW130988   3.677   1.859   2.078 -0.6839 -2.2428 -0.3223
73003SOL    HW230989   3.615   1.983   2.017  2.4981 -0.1712  0.4166
73004SOL     OW30990  12.310   0.034   1.344 -0.7486  0.4232 -0.3922
73004SOL    HW130991  12.346  -0.038   1.291  0.7631  0.5431  0.4251
73004SOL    HW230992  12.236   0.066   1.293  1.4147  1.4168 -3.1814
73005SOL     OW30993   3.981   5.156   2.892  0.0360 -0.1706 -0.2117
73005SOL    HW130994   4.052   5.212   2.862  1.0764 -1.3254 -0.0258
73005SOL    HW230995   3.915   5.161   2.823 -0.2713  1.8741  0.1823
73006SOL     OW30996   2.610  12.991   5.453  0.2133  1.0729 -0.0245
73006SOL    HW130997   2.589  13.079   5.486  1.6599  1.4720 -0.0896
73006SOL    HW230998   2.699  12.999   5.420  0.2350 -0.3463 -0.3604
73007SOL     OW30999   7.880   4.164   7.976  0.0770 -0.5762 -0.5832
73007SOL    HW131000   7.808   4.226   7.971 -0.0647 -0.7366 -0.5224
73007SOL    HW231001   7.945   4.198   7.914 -0.4726 -0.9814 -1.4087
73008SOL     OW31002   3.254   2.993   8.142 -0.2480  0.4274 -0.4714
73008SOL    HW131003   3.326   2.992   8.079 -0.7896  0.6895 -1.1143
73008SOL    HW231004   3.231   3.086   8.150  1.0213  0.6296  1.5482
73009SOL     OW31005   2.190   0.231  13.551 -0.1077  0.1069 -0.2843
73009SOL    HW131006   2.231   0.145  13.543 -0.3228  0.1344 -2.1059
73009SOL    HW231007   2.227   0.267  13.632  2.1575 -0.5693 -0.9325
73010SOL     OW31008   2.267   7.682  13.482  0.0471 -0.5993 -0.4542
73010SOL    HW131009   2.284   7.598  13.525  0.6221 -0.4264 -0.3488
73010SOL    HW231010   2.179   7.671  13.445 -0.2416 -0.9344  0.3056
73011SOL     OW31011   6.689   9.481   6.615  0.8192 -0.7005  0.1311
73011SOL    HW131012   6.749   9.423   6.569  0.4279 -0.7115 -0.3867
73011SOL    HW231013   6.614   9.426   6.637  0.1446 -0.2753 -0.9616
73012SOL     OW31014   5.199   6.950   8.992 -0.1277  0.2314  0.1065
73012SOL    HW131015   5.244   7.031   9.017  0.5979  0.6777 -2.3551
73012SOL    HW231016   5.217   6.889   9.064 -1.0080  2.2902  2.2237
73013SOL     OW31017   8.549   3.944  12.243 -0.1681  0.5910  0.1215
73013SOL    HW131018   8.522   3.856  12.218 -2.1400  1.3399 -0.5155
73013SOL    HW231019   8.631   3.959  12.196 -0.3110 -0.5477 -0.4960
73014SOL     OW31020   5.834   3.521  10.249  0.2195  0.2509  0.3895
73014SOL    HW131021   5.766   3.582  10.277 -0.4874 -0.0511 -0.5929
73014SOL    HW231022   5.796   3.434  10.265  0.6784  0.0720  0.5236
73015SOL     OW31023   3.537   2.112   4.863 -0.1421 -0.0061  0.0707
73015SOL    HW131024   3.557   2.121   4.957 -3.7095 -0.1777  0.9915
73015SOL    HW231025   3.623   2.112   4.820  1.5848  3.0229  3.0321
73016SOL     OW31026   8.764   1.962  13.065 -0.0902  0.5198 -0.4686
73016SOL    HW131027   8.763   1.930  13.156 -0.3593  0.4674 -0.4911
73016SOL    HW231028   8.855   1.987  13.050  0.1835 -0.4693 -0.5330
73017SOL     OW31029   1.136   5.380   0.285 -0.0594  0.4759 -0.1346
73017SOL    HW131030   1.190   5.368   0.363 -0.9822  0.2069  0.4749
73017SOL    HW231031   1.098   5.294   0.268 -0.4772  0.7153 -0.4239
73018SOL     OW31032   5.287   8.555   0.213 -0.3635  0.1898 -0.2966
73018SOL    HW131033   5.247   8.622   0.158  1.6604  0.7537 -1.1778
73018SOL    HW231034   5.371   8.537   0.171  0.5854 -0.4845  1.7621
73019SOL     OW31035  12.308   5.928  12.152 -0.4134 -0.1769 -0.4892
73019SOL    HW131036  12.292   5.850  12.100  0.1862 -0.0481 -0.8720
73019SOL    HW231037  12.287   5.902  12.242 -1.7595 -0.3107 -0.8190
73020SOL     OW31038   2.368   7.976   3.348 -0.1630  0.0025 -0.0199
73020SOL    HW131039   2.323   8.010   3.270  0.5773 -1.8780 -1.3437
73020SOL    HW231040   2.297   7.955   3.409 -0.7729  1.3064 -0.2433
73021SOL     OW31041   5.343   8.449   2.652 -0.3625  0.7067 -0.2329
73021SOL    HW131042   5.271   8.464   2.591 -0.2831 -1.2707 -0.8915
73021SOL    HW231043   5.422   8.471   2.603 -0.2047 -2.0142 -1.3841
73022SOL     OW31044  14.009  13.252   1.444 -0.1525 -0.1951  0.0691
73022SOL    HW131045  14.009  13.334   1.395 -0.3070  0.1194  0.5871
73022SOL    HW231046  14.082  13.260   1.505 -0.6016 -0.1368  0.6112
73023SOL     OW31047   6.992   4.974   4.241 -0.4394  0.0267  0.0658
73023SOL    HW131048   6.997   4.888   4.282 -3.1906 -0.3641 -0.2083
73023SOL    HW231049   6.949   5.029   4.306  0.3176  0.9239 -0.1773
73024SOL     OW31050   7.862   6.437  13.368  0.6574  0.0401 -0.0750
73024SOL    HW131051   7.903   6.522  13.383 -0.8332  1.0541 -1.4038
73024SOL    HW231052   7.781   6.440  13.419  0.9504 -0.9001  0.4687
73025SOL     OW31053  13.428   1.350   1.810  0.1136 -0.1563  0.3325
73025SOL    HW131054  13.447   1.261   1.781 -1.8360 -1.3216  2.3253
73025SOL    HW231055  13.339   1.368   1.779  1.1211  1.9137 -1.6667
73026SOL     OW31056  13.318   0.501   3.276 -0.0465  0.2120 -0.1613
73026SOL    HW131057  13.251   0.438   3.302  0.4268 -1.0106 -1.7633
73026SOL    HW231058  13.398   0.469   3.318 -0.0337  0.4002 -0.0441
73027SOL     OW31059   6.877  11.654   8.387  0.2504 -0.0469 -0.0805
73027SOL    HW131060   6.862  11.712   8.461 -1.8755 -0.6275  0.0088
73027SOL    HW231061   6.789  11.634   8.354  1.1040 -0.1493 -2.4923
73028SOL     OW31062   9.225  13.439  11.439 -0.2128 -0.1132  0.1610
73028SOL    HW131063   9.226  13.533  11.422  0.6458 -0.5104 -2.5221
73028SOL    HW231064   9.312  13.409  11.410 -0.4079 -1.7295  1.1213
73029SOL     OW31065  12.923   7.393   9.647 -0.0108 -0.4312 -1.2578
73029SOL    HW131066  12.931   7.464   9.711  2.4717 -0.5259 -1.3891
73029SOL    HW231067  12.891   7.436   9.568  1.7224  0.6533 -1.4188
73030SOL     OW31068   0.057   5.731   7.917 -0.0405  0.3206 -0.6433
73030SOL    HW131069   0.053   5.825   7.900  0.7685  0.1971 -1.6271
73030SOL    HW231070   0.046   5.723   8.012  1.4930  1.5352 -0.3209
73031SOL     OW31071   1.682   3.618  10.173  0.0534  0.3983  0.4302
73031SOL    HW131072   1.589   3.616  10.152  0.2396 -0.0136 -0.3622
73031SOL    HW231073   1.684   3.641  10.266 -0.8278  0.5982  0.4128
73032SOL     OW31074   7.605   8.952   6.312 -0.2667  0.0450 -0.3489
73032SOL    HW131075   7.520   8.920   6.343 -0.3604 -1.1390 -1.7158
73032SOL    HW231076   7.587   8.984   6.223  1.2134 -2.9394 -1.8473
73033SOL     OW31077   7.516   3.107   9.915 -0.0714  0.5404 -0.1201
73033SOL    HW131078   7.443   3.162   9.942  0.6976  1.1569  0.7893
73033SOL    HW231079   7.476   3.022   9.897 -0.8657  0.4605  1.7250
73034SOL     OW31080  11.293   7.566   1.435  0.8754  0.3032 -0.2608
73034SOL    HW131081  11.220   7.539   1.491  0.2627  1.9888 -0.1947
73034SOL    HW231082  11.358   7.496   1.445 -0.3324 -0.7650  0.4157
73035SOL     OW31083   5.419   1.846   5.563 -0.2590  0.2376  0.4626
73035SOL    HW131084   5.388   1.936   5.560  2.4758  1.2612 -1.0372
73035SOL    HW231085   5.381   1.804   5.486 -1.1922  0.1878  0.9323
73036SOL     OW31086   3.834  13.521   5.014  0.5483  0.1252 -0.1483
73036SOL    HW131087   3.880  13.459   5.071 -0.3430  1.0411  1.6625
73036SOL    HW231088   3.887  13.601   5.017 -0.8051  1.0247  1.5561
73037SOL     OW31089   9.405   8.000   5.470 -0.0260 -0.0781 -0.3108
73037SOL    HW131090   9.482   7.995   5.527 -0.2259  1.0767  0.0903
73037SOL    HW231091   9.440   7.991   5.382  0.1640 -3.2255 -0.0431
73038SOL     OW31092   4.174   3.788   3.904 -0.0564  0.1667 -0.1348
73038SOL    HW131093   4.224   3.825   3.977 -0.5769 -0.0531  0.3466
73038SOL    HW231094   4.151   3.700   3.934 -0.1715  0.0337 -0.6148
73039SOL     OW31095  12.319   1.252   3.567 -0.0920  0.0702 -0.6757
73039SOL    HW131096  12.341   1.158   3.566 -0.1517  0.0586 -1.5495
73039SOL    HW231097  12.383   1.292   3.508  0.5732  0.7417  0.4735
73040SOL     OW31098   1.410   1.656   4.496 -0.4045 -0.1585 -0.0126
73040SOL    HW131099   1.466   1.610   4.433 -0.7785 -2.0858  0.9605
73040SOL    HW231100   1.325   1.664   4.452  0.4021  2.2701 -1.2797
73041SOL     OW31101   3.373   5.891   9.853 -0.2651 -0.6678  0.0297
73041SOL    HW131102   3.310   5.819   9.854  0.4673 -1.4918 -2.6596
73041SOL    HW231103   3.420   5.884   9.936 -2.3031 -1.3194  1.1723
73042SOL     OW31104   7.146   6.896   6.761  0.1484 -0.2038  0.4265
73042SOL    HW131105   7.089   6.831   6.719 -0.4220  1.0296 -0.8128
73042SOL    HW231106   7.208   6.844   6.812 -1.8811 -1.6117  1.6022
73043SOL     OW31107   2.005   6.928   7.293 -0.6128 -0.3978  0.2096
73043SOL    HW131108   2.036   6.986   7.362  0.5043 -0.2095 -0.4198
73043SOL    HW231109   2.067   6.855   7.293 -0.5504 -0.3591 -0.6197
73044SOL     OW31110   0.485   3.538   4.033  0.0627 -0.0579  0.3350
73044SOL    HW131111   0.415   3.505   4.090  1.9461 -0.6317  2.4667
73044SOL    HW231112   0.530   3.459   4.003  1.9769  0.3381  1.9805
73045SOL     OW31113   0.746   2.932   7.924 -0.0582  0.7217 -0.4460
73045SOL    HW131114   0.710   2.866   7.865  0.4504  1.0503 -1.1277
73045SOL    HW231115   0.808   2.981   7.871 -0.7563  2.0505 -0.0820
73046SOL     OW31116   7.378   0.328  13.109 -0.6005 -0.0891  0.4182
73046SOL    HW131117   7.288   0.339  13.139 -0.7184 -0.0737  0.0619
73046SOL    HW231118   7.383   0.378  13.028 -0.1929  0.1356  0.5808
73047SOL     OW31119   4.297   5.418  12.642  0.0157 -0.0044  0.2313
73047SOL    HW131120   4.314   5.406  12.736 -1.6365  1.4670  0.7613
73047SOL    HW231121   4.234   5.349  12.621  0.8175 -0.6972  0.0410
73048SOL     OW31122   6.210   1.608   6.017  0.1917 -0.4503  0.4130
73048SOL    HW131123   6.142   1.660   5.975  0.8440  1.1210  1.2224
73048SOL    HW231124   6.183   1.517   6.002 -1.4687  0.1090 -0.2497
73049SOL     OW31125  12.390   2.081   9.428  0.0430 -0.2508  0.1180
73049SOL    HW131126  12.319   2.143   9.415 -0.1330 -0.6873 -1.1196
73049SOL    HW231127  12.414   2.091   9.520 -0.7108  0.8595  0.2148
73050SOL     OW31128   2.354   7.621   6.230  0.0021  0.1071  0.1843
73050SOL    HW131129   2.327   7.646   6.142  0.5035 -0.6761 -0.2126
73050SOL    HW231130   2.308   7.539   6.246  1.5173 -0.8745 -0.2253
73051SOL     OW31131  10.005   0.704  10.927  0.2835 -0.0482  0.4032
73051SOL    HW131132  10.022   0.613  10.950 -1.8091 -1.4026 -2.6442
73051SOL    HW231133  10.092   0.742  10.911  1.1526 -1.9110  0.4373
73052SOL     OW31134  13.165   9.552   2.070 -0.4978  0.3723  0.0929
73052SOL    HW131135  13.160   9.547   2.166 -0.7087  2.2124  0.2140
73052SOL    HW231136  13.254   9.526   2.049 -0.4816 -0.1537  0.7746
73053SOL     OW31137  10.948  12.581   1.217  0.2191  0.2178  0.1386
73053SOL    HW131138  10.907  12.557   1.134  0.7417 -0.7326  0.1446
73053SOL    HW231139  11.018  12.642   1.192  1.9579 -1.8836 -0.4386
73054SOL     OW31140   4.491  11.252  11.826 -0.1264 -0.3297  0.3656
73054SOL    HW131141   4.467  11.169  11.783 -0.9220  0.6508 -1.1783
73054SOL    HW231142   4.439  11.254  11.906 -0.0873 -1.3192  0.4287
73055SOL     OW31143   6.881  11.966   1.296  0.3428  0.0364 -0.1810
73055SOL    HW131144   6.826  12.041   1.273 -0.1137 -0.8715 -2.2847
73055SOL    HW231145   6.841  11.929   1.374 -1.5842 -0.0994 -1.1776
73056SOL     OW31146   6.351   4.972   7.389  0.0114 -0.0235  0.2169
73056SOL    HW131147   6.447   4.980   7.392 -0.0139  0.3530  0.0131
73056SOL    HW231148   6.319   5.057   7.419 -0.2613  0.1905 -0.6755
73057SOL     OW31149  13.660  12.219   0.930 -0.1742  0.0912 -0.3270
73057SOL    HW131150  13.636  12.188   1.017 -0.4764  1.6421  0.1782
73057SOL    HW231151  13.676  12.313   0.942 -1.3675  0.5738 -2.1749
73058SOL     OW31152   9.095   7.478   2.447 -0.6096 -0.5392  0.5320
73058SOL    HW131153   9.132   7.442   2.367  0.4913 -1.3398  1.3688
73058SOL    HW231154   9.142   7.433   2.517  1.6666  3.1835  1.7144
73059SOL     OW31155   8.046   5.428  12.885 -0.1241 -0.1945  0.5429
73059SOL    HW131156   7.999   5.504  12.851  1.8456  2.1595  2.7327
73059SOL    HW231157   8.135   5.437  12.851  0.3097 -1.1565  1.3519
73060SOL     OW31158   7.187   1.912   6.119  0.2177  0.5554 -0.0388
73060SOL    HW131159   7.213   1.899   6.027  2.1165  1.8847  0.2610
73060SOL    HW231160   7.256   1.967   6.156 -1.6393  1.8991  1.6232
73061SOL     OW31161   6.813   8.808   0.941  0.0948  0.5598  0.1587
73061SOL    HW131162   6.888   8.754   0.967 -1.1860 -1.2299  0.3856
73061SOL    HW231163   6.750   8.745   0.906 -1.0919  2.0760 -0.5616
73062SOL     OW31164   2.997   1.944   9.828  0.2017 -0.0168 -0.1450
73062SOL    HW131165   3.035   1.888   9.896  1.4782  1.6704  0.6208
73062SOL    HW231166   3.025   1.904   9.745  0.0382 -1.1766  0.3532
73063SOL     OW31167   8.146  11.061  13.305  0.6149 -0.0587  0.4698
73063SOL    HW131168   8.192  10.999  13.362  0.0299 -0.5017  0.4713
73063SOL    HW231169   8.065  11.017  13.283 -0.2011  1.0504  1.1408
73064SOL     OW31170   7.514  12.657  11.296 -0.0462 -0.1258  0.0491
73064SOL    HW131171   7.547  12.650  11.207  1.0534  0.8535  0.3583
73064SOL    HW231172   7.433  12.606  11.296 -0.6666  0.7925 -1.8100
73065SOL     OW31173  10.751   8.235   0.938  0.3824 -1.2443 -0.4696
73065SOL    HW131174  10.734   8.253   1.031  1.6670  1.6679 -0.6821
73065SOL    HW231175  10.826   8.291   0.917 -0.3236 -1.2782 -3.4436
73066SOL     OW31176  11.770   9.130   1.440 -0.2083 -0.2072  0.4384
73066SOL    HW131177  11.813   9.205   1.399  0.6457 -0.5699  0.6592
73066SOL    HW231178  11.677   9.150   1.434 -0.0240  0.4904 -0.2373
73067SOL     OW31179   4.991   4.067  12.619  0.2104  0.3621  0.2589
73067SOL    HW131180   4.918   4.057  12.557  2.6445  0.7292 -2.9144
73067SOL    HW231181   5.000   4.161  12.631  0.9488  0.3970 -0.4596
73068SOL     OW31182   6.055   2.313   6.171 -0.5268  0.4113  0.3461
73068SOL    HW131183   5.991   2.269   6.114 -0.1479  0.7322 -0.3399
73068SOL    HW231184   6.129   2.253   6.173 -0.9770 -0.1352  1.4423
73069SOL     OW31185  11.757  10.104   1.406 -0.2446 -0.6343 -0.1801
73069SOL    HW131186  11.783  10.048   1.333 -1.6487 -1.3588 -0.1533
73069SOL    HW231187  11.701  10.171   1.367  1.5733  0.9341 -0.2423
73070SOL     OW31188   8.877   2.377   4.827  0.3923 -0.6194 -0.2063
73070SOL    HW131189   8.923   2.417   4.901 -0.2629  1.7462 -0.9911
73070SOL    HW231190   8.946   2.332   4.778  1.3157  0.0709  0.4131
73071SOL     OW31191   9.688   9.539   6.110  0.3183  0.0501  0.7805
73071SOL    HW131192   9.670   9.446   6.094 -0.0745 -0.1690  2.2681
73071SOL    HW231193   9.637   9.586   6.043  0.5146 -0.7995  0.0222
73072SOL     OW31194   2.669   4.515   4.822  0.7706  0.2288  0.4417
73072SOL    HW131195   2.747   4.467   4.852 -1.5057 -3.9026  0.6105
73072SOL    HW231196   2.613   4.520   4.900  0.2269  1.8149 -0.0139
73073SOL     OW31197   6.216   3.840  11.419  0.0799  0.5853 -0.0799
73073SOL    HW131198   6.311   3.840  11.408  0.1512  2.1498  0.3118
73073SOL    HW231199   6.182   3.809  11.335  0.9049  1.3182 -0.7042
73074SOL     OW31200   5.668   7.409   8.893  0.4257 -0.1880 -0.0684
73074SOL    HW131201   5.759   7.427   8.919 -0.3558  0.0675  2.8667
73074SOL    HW231202   5.661   7.445   8.805  3.0532  0.1396 -0.2309
73075SOL     OW31203   6.056   1.466   8.460  0.9925 -0.0605 -0.6078
73075SOL    HW131204   5.981   1.524   8.445  1.4744  0.5463 -0.7122
73075SOL    HW231205   6.121   1.494   8.396  0.1635 -2.7146 -2.8084
73076SOL     OW31206   3.600   5.373   6.145 -0.0368  0.0790  0.0721
73076SOL    HW131207   3.505   5.368   6.155  0.0367 -0.6132  0.4903
73076SOL    HW231208   3.629   5.282   6.140  0.6165  0.2786  0.0815
73077SOL     OW31209   2.945   4.676   7.123  0.3327 -0.1651  0.1138
73077SOL    HW131210   2.970   4.599   7.072 -2.5235 -0.8612 -0.4317
73077SOL    HW231211   2.974   4.656   7.212  0.6246 -1.3704 -0.2256
73078SOL     OW31212   8.899   6.876  13.148 -0.3023 -0.5599 -0.4274
73078SOL    HW131213   8.825   6.833  13.105 -0.8991  0.4191 -0.4148
73078SOL    HW231214   8.872   6.967  13.156  2.1445  0.5948 -3.2647
73079SOL     OW31215   6.292   7.184  11.765  0.4282 -0.3048 -0.1238
73079SOL    HW131216   6.375   7.201  11.811  0.6267 -1.9960  0.2303
73079SOL    HW231217   6.225   7.219  11.824  0.8538  0.6697 -0.1992
73080SOL     OW31218   1.371   2.602   5.743  0.0989  0.4988  0.1359
73080SOL    HW131219   1.293   2.586   5.796 -0.5376 -0.4346 -1.0146
73080SOL    HW231220   1.423   2.521   5.751 -0.5224 -0.0985 -1.4500
73081SOL     OW31221   5.145   0.344   1.984  0.2694  0.3030 -0.8275
73081SOL    HW131222   5.233   0.313   2.004  0.0688 -0.8742 -1.6755
73081SOL    HW231223   5.149   0.373   1.893 -0.2251  0.1902 -0.8900
73082SOL     OW31224   4.258   9.915   2.756  0.4155  0.1177 -0.4260
73082SOL    HW131225   4.305   9.953   2.831  1.1288 -0.6687 -0.4642
73082SOL    HW231226   4.314   9.844   2.726 -1.0732 -1.2746 -0.0781
73083SOL     OW31227   2.301  10.498   2.961  0.1421  0.6258  0.0504
73083SOL    HW131228   2.261  10.451   2.887  0.7444 -0.8033  0.5963
73083SOL    HW231229   2.311  10.431   3.029  2.2678  1.2061  0.3807
73084SOL     OW31230   6.178   9.027  11.316 -0.0947  0.1558 -0.0281
73084SOL    HW131231   6.086   9.003  11.324 -0.6477  1.8982 -0.5248
73084SOL    HW231232   6.206   9.044  11.406 -0.4666  0.2595  0.0720
73085SOL     OW31233   5.407  13.054   6.494 -0.6568 -0.3955 -0.1854
73085SOL    HW131234   5.329  13.029   6.445 -0.8086 -0.8352  0.2730
73085SOL    HW231235   5.377  13.068   6.583 -0.0841 -1.3896  0.1836
73086SOL     OW31236   8.515   1.302   4.639  0.1843  0.6223 -0.1783
73086SOL    HW131237   8.491   1.363   4.709  0.1410  0.5027 -0.0863
73086SOL    HW231238   8.442   1.305   4.578 -0.0881  0.2408  0.1130
73087SOL     OW31239  12.556   8.055  12.239  0.0125 -0.5902  0.2333
73087SOL    HW131240  12.476   8.005  12.254 -0.8692 -0.4092 -3.2274
73087SOL    HW231241  12.622   8.011  12.293 -1.7933 -2.4476  1.0447
73088SOL     OW31242   8.005   4.024  11.043  0.3746  0.1281  0.2404
73088SOL    HW131243   8.098   4.003  11.056  0.3169 -0.8183 -0.7153
73088SOL    HW231244   7.990   4.007  10.950 -0.7311  0.3809  0.3639
73089SOL     OW31245   6.013  13.994  13.050  0.2987  0.5482 -0.2124
73089SOL    HW131246   5.948  13.944  13.100  0.7973 -0.4803 -0.5677
73089SOL    HW231247   5.995  14.085  13.073  0.5622  0.1298  1.9398
73090SOL     OW31248   0.311   9.178   1.233 -0.2658 -0.1101 -0.2976
73090SOL    HW131249   0.236   9.220   1.276  0.0811 -0.3473  0.5643
73090SOL    HW231250   0.328   9.232   1.156 -1.0566  0.1872 -0.2775
73091SOL     OW31251  13.400   4.278  10.812 -0.2125  0.0647  0.0307
73091SOL    HW131252  13.393   4.364  10.854  1.0693  0.3713 -0.3207
73091SOL    HW231253  13.393   4.296  10.718 -3.5346 -0.6705  0.0315
73092SOL     OW31254  10.568   6.247   4.595 -0.4731  0.0575  0.6196
73092SOL    HW131255  10.538   6.157   4.607  0.9770 -0.5110  0.2406
73092SOL    HW231256  10.602   6.273   4.680  0.6509 -0.3852  0.3285
73093SOL     OW31257  13.194  11.415   6.120 -0.1556 -0.4601  0.1665
73093SOL    HW131258  13.248  11.493   6.108 -1.5739  0.3406 -1.3420
73093SOL    HW231259  13.223  11.354   6.052 -0.8254 -0.2078 -0.3507
73094SOL     OW31260   3.221   5.746   3.481 -0.0271  0.1161 -0.1571
73094SOL    HW131261   3.254   5.761   3.392  0.9511 -1.1263 -0.0374
73094SOL    HW231262   3.293   5.773   3.538 -0.3620  0.1963  0.2364
73095SOL     OW31263   5.261   9.685  12.086 -0.4544  0.1794 -0.3421
73095SOL    HW131264   5.294   9.627  12.017 -2.8305 -0.9815 -0.6034
73095SOL    HW231265   5.284   9.640  12.168  0.2248  0.3383 -0.4363
73096SOL     OW31266   0.706   9.190   5.220  0.0731  0.4646 -0.5605
73096SOL    HW131267   0.725   9.169   5.129  0.2773  0.2698 -0.4742
73096SOL    HW231268   0.612   9.210   5.221 -0.0617 -0.1340 -0.7070
73097SOL     OW31269   0.321  13.110   8.163 -0.4407  0.4444 -0.4529
73097SOL    HW131270   0.404  13.112   8.212 -0.6156  2.4133 -0.1411
73097SOL    HW231271   0.347  13.125   8.072 -0.2281 -2.0301 -0.8761
73098SOL     OW31272  10.949  11.959  11.983  0.0093 -0.3208 -0.3961
73098SOL    HW131273  10.977  11.973  12.074  1.5825 -0.3476 -0.8445
73098SOL    HW231274  10.886  11.887  11.988 -1.3633  0.8950  0.8740
73099SOL     OW31275   3.809   1.187   2.805  0.1708 -0.0236 -0.0235
73099SOL    HW131276   3.813   1.182   2.709  1.2295 -1.5521  0.0537
73099SOL    HW231277   3.881   1.247   2.828 -0.9991  1.5205 -0.2044
73100SOL     OW31278   7.609   4.834   2.718  0.3189 -0.2041  0.1341
73100SOL    HW131279   7.517   4.835   2.745  0.8366 -1.5933  2.1658
73100SOL    HW231280   7.606   4.803   2.627 -1.4405  3.9755 -1.4877
73101SOL     OW31281   4.606   4.350   5.956  0.8065 -0.5991 -0.0047
73101SOL    HW131282   4.518   4.334   5.990  0.3056  2.6088  0.5020
73101SOL    HW231283   4.664   4.302   6.015 -0.4994 -1.9409  0.2434
73102SOL     OW31284   9.205   5.193   7.529  0.0952  0.3561 -0.2665
73102SOL    HW131285   9.285   5.229   7.492  0.2694 -0.5090 -0.7621
73102SOL    HW231286   9.163   5.267   7.574  0.9482  0.9126 -0.3740
73103SOL     OW31287   1.015  10.267   6.407  0.0825  0.5276 -0.0272
73103SOL    HW131288   0.955  10.329   6.366  0.5715 -0.9581 -3.3415
73103SOL    HW231289   0.959  10.197   6.440 -0.2847  1.4491  1.3585
73104SOL     OW31290  11.100   0.131   0.358 -0.9047  0.0152 -0.0261
73104SOL    HW131291  11.165   0.073   0.396 -1.4934 -1.0201 -0.5532
73104SOL    HW231292  11.067   0.183   0.432  0.4653  0.5275  0.2440
73105SOL     OW31293   5.026   1.742   3.929  0.7602  0.4842  0.1562
73105SOL    HW131294   5.024   1.654   3.967 -2.3819  0.2720 -0.2216
73105SOL    HW231295   5.109   1.746   3.881  1.1882 -2.1008  0.5446
73106SOL     OW31296  11.771   4.788   2.597  0.3640  0.1188  0.3069
73106SOL    HW131297  11.788   4.801   2.503  0.4188 -3.3458 -0.2735
73106SOL    HW231298  11.856   4.765   2.634  0.5008  2.2065  1.4608
73107SOL     OW31299  12.119  12.290   3.151 -0.2822 -0.3188  0.1337
73107SOL    HW131300  12.073  12.207   3.163  1.2599 -0.8802  2.9610
73107SOL    HW231301  12.063  12.354   3.194  0.1207 -0.4976  0.9407
73108SOL     OW31302   6.343   2.461   4.923 -0.3911 -0.3042  0.8356
73108SOL    HW131303   6.325   2.483   4.832 -0.3341 -0.4101  0.7986
73108SOL    HW231304   6.350   2.365   4.924 -2.8794 -0.5286  1.4039
73109SOL     OW31305   4.398   5.161   6.633  0.5204 -0.0402 -0.0079
73109SOL    HW131306   4.376   5.072   6.604  1.1895 -0.9747  2.1472
73109SOL    HW231307   4.492   5.168   6.619  0.2665  0.8796 -1.4448
73110SOL     OW31308  10.144   0.193  13.695 -0.6330 -0.3946  0.4439
73110SOL    HW131309  10.129   0.165  13.785 -0.6885  1.1832  0.9377
73110SOL    HW231310  10.128   0.287  13.695 -0.2549 -0.2975 -1.1345
73111SOL     OW31311  13.681   3.132  12.614  0.3325 -0.2457 -0.0414
73111SOL    HW131312  13.648   3.045  12.633 -4.0994  1.2884  0.5202
73111SOL    HW231313  13.700   3.131  12.520  0.4722 -1.8321 -0.0152
73112SOL     OW31314   3.149   0.858   4.388  0.2961  0.4166  0.5737
73112SOL    HW131315   3.059   0.873   4.361  0.5489  1.1629  0.1197
73112SOL    HW231316   3.153   0.890   4.478 -0.5670 -2.1420  1.6077
73113SOL     OW31317   6.176   0.255   3.610 -0.0594  0.2082  0.1454
73113SOL    HW131318   6.253   0.312   3.619  0.0877 -0.1507  1.4162
73113SOL    HW231319   6.175   0.230   3.518 -0.2667  2.4666 -0.5299
73114SOL     OW31320   0.392   2.058   2.675  0.2483  0.6329 -0.3053
73114SOL    HW131321   0.346   2.114   2.737  0.1313  1.7315 -1.3335
73114SOL    HW231322   0.341   1.977   2.673  0.4926  0.4095  1.3062
73115SOL     OW31323   9.763   7.462  10.389 -0.0016  0.0464 -0.1642
73115SOL    HW131324   9.784   7.467  10.482  0.1792  1.6659 -0.2628
73115SOL    HW231325   9.847   7.469  10.344 -0.0227 -1.3572 -0.4624
73116SOL     OW31326   9.225   5.439  11.297  0.2127 -0.0560 -0.7312
73116SOL    HW131327   9.282   5.515  11.287  1.8374 -0.8691  1.4337
73116SOL    HW231328   9.190   5.446  11.386 -0.4952 -1.2733 -0.8810
73117SOL     OW31329   9.377   7.278   5.919 -0.4463  0.6658 -0.1400
73117SOL    HW131330   9.417   7.191   5.925  0.8432  1.3016  1.1448
73117SOL    HW231331   9.439   7.329   5.867 -1.6236  0.6156 -1.6436
73118SOL     OW31332   7.753   9.513   8.809 -0.2510 -0.0808  0.1670
73118SOL    HW131333   7.840   9.476   8.824 -1.7890 -3.0980  3.2107
73118SOL    HW231334   7.732   9.492   8.718  1.6252 -0.5627 -0.1825
73119SOL     OW31335   2.724  12.609   5.842  0.4606 -0.0312  0.2726
73119SOL    HW131336   2.640  12.642   5.808  0.6730  0.2424  0.0108
73119SOL    HW231337   2.718  12.623   5.937  0.2933  0.1805  0.2329
73120SOL     OW31338   8.962   3.472   1.283 -0.0225 -0.3606  0.6056
73120SOL    HW131339   8.926   3.515   1.205 -0.7323 -1.0135  0.5577
73120SOL    HW231340   8.941   3.532   1.355  1.0477  0.4685  0.2445
73121SOL     OW31341  10.107   7.399  13.491 -0.0522 -0.1761  0.2025
73121SOL    HW131342  10.070   7.360  13.412 -2.4877  0.1646  1.1186
73121SOL    HW231343  10.032   7.432  13.540  1.4668  0.5062  2.2109
73122SOL     OW31344   4.060  11.602  12.885  0.1548  0.2365 -0.0802
73122SOL    HW131345   4.093  11.523  12.928  2.1716  0.1277 -1.6538
73122SOL    HW231346   4.019  11.570  12.804 -0.3846  0.6959  0.0041
73123SOL     OW31347  11.422   1.730  13.540  0.2948  0.0970  0.0041
73123SOL    HW131348  11.513   1.746  13.564  1.0168 -0.7696 -1.9541
73123SOL    HW231349  11.393   1.813  13.501  0.0117  0.5849  1.2165
73124SOL     OW31350   1.963   7.458  13.626 -0.1323 -0.3423  0.0121
73124SOL    HW131351   1.896   7.496  13.683  1.8565  2.8035  0.5028
73124SOL    HW231352   1.930   7.473  13.538 -0.5698  0.2078  0.2586
73125SOL     OW31353   2.510   5.077  11.556 -0.4763 -0.1925  0.2306
73125SOL    HW131354   2.549   5.164  11.562  0.8731 -0.7332 -0.4466
73125SOL    HW231355   2.563   5.022  11.614  0.4827 -1.1543 -1.4864
73126SOL     OW31356   1.828  12.783   5.854  0.1938 -0.3068 -0.3344
73126SOL    HW131357   1.739  12.814   5.870 -0.4855  0.2518 -4.1100
73126SOL    HW231358   1.823  12.688   5.866 -1.3487 -0.4591 -1.8588
73127SOL     OW31359   3.908  13.690   7.242  0.3737 -0.1850 -0.1459
73127SOL    HW131360   3.940  13.770   7.201 -2.4337  0.7028 -0.8125
73127SOL    HW231361   3.879  13.718   7.329 -1.9256 -0.0919 -0.8843
73128SOL     OW31362   5.961   7.198   7.942 -0.0986 -0.1988 -0.1271
73128SOL    HW131363   5.892   7.263   7.956 -1.3701 -1.4479 -0.4461
73128SOL    HW231364   6.036   7.250   7.911 -1.5936  0.9669 -1.9948
73129SOL     OW31365  10.108   7.693  10.405  0.7313 -0.2299  0.1245
73129SOL    HW131366  10.089   7.615  10.457  0.4310  0.0084  0.3760
73129SOL    HW231367  10.022   7.729  10.384  0.8803  0.3136  0.4385
73130SOL     OW31368   7.815   7.329   1.645 -0.3209 -0.3661  0.2636
73130SOL    HW131369   7.794   7.399   1.707 -0.5941  1.1307 -1.4191
73130SOL    HW231370   7.808   7.371   1.559  1.7540 -1.8786 -0.7304
73131SOL     OW31371  13.825   6.830  12.914  0.0932 -0.3731  0.0447
73131SOL    HW131372  13.877   6.859  12.839 -0.7853  1.4446  0.0996
73131SOL    HW231373  13.741   6.804  12.876 -0.3865  0.6364  0.3746
73132SOL     OW31374   3.947   5.715   1.138  0.3021 -0.2624  0.5592
73132SOL    HW131375   3.904   5.632   1.118 -1.1288  0.6548 -0.3466
73132SOL    HW231376   4.034   5.690   1.171 -0.6593 -2.1460  1.8248
73133SOL     OW31377   4.337   1.776  12.423  0.3281 -0.0561  0.0259
73133SOL    HW131378   4.251   1.738  12.408 -1.1738  2.7757  0.6987
73133SOL    HW231379   4.321   1.871  12.428  3.1631  0.4539  2.1696
73134SOL     OW31380   0.713  10.867   2.070 -0.3256  0.2256  0.6384
73134SOL    HW131381   0.691  10.921   1.995 -1.1319 -3.0605 -1.7004
73134SOL    HW231382   0.808  10.853   2.062 -0.5158 -0.6890 -0.2720
73135SOL     OW31383   3.445   8.030   3.487 -0.3013 -0.3943  0.3674
73135SOL    HW131384   3.529   8.061   3.521  0.2671 -0.2285 -1.0898
73135SOL    HW231385   3.379   8.079   3.536  0.5136  0.9931  0.1314
73136SOL     OW31386   2.573  13.505   1.329  0.3095 -0.0953  0.2380
73136SOL    HW131387   2.580  13.589   1.373  0.4908 -0.1879  0.3915
73136SOL    HW231388   2.625  13.445   1.383 -0.2301 -0.4200  0.4111
73137SOL     OW31389   4.925   5.401   8.184 -0.4790 -0.3181 -0.0099
73137SOL    HW131390   4.965   5.328   8.136 -0.9749 -0.1671 -0.6674
73137SOL    HW231391   4.832   5.396   8.163 -0.3837  1.1059 -0.8857
73138SOL     OW31392   7.414   7.890   7.137 -0.4513 -0.2957  0.6074
73138SOL    HW131393   7.445   7.813   7.089 -1.4191 -0.8751  0.8890
73138SOL    HW231394   7.398   7.956   7.069  1.5385  0.0950  0.4726
73139SOL     OW31395   0.862   6.679   7.744  0.0799 -0.1256 -0.4562
73139SOL    HW131396   0.859   6.756   7.800  0.0815 -0.1123 -0.4737
73139SOL    HW231397   0.905   6.612   7.797 -0.5918 -0.3367 -0.1810
73140SOL     OW31398  13.385  11.260  11.794 -0.6730  0.3990 -0.6323
73140SOL    HW131399  13.416  11.172  11.774  0.4035  0.5798  0.1340
73140SOL    HW231400  13.335  11.287  11.717 -0.6436 -0.7096 -1.0462
73141SOL     OW31401   0.264  12.976   0.286 -0.2217 -0.1052 -0.2063
73141SOL    HW131402   0.174  13.009   0.292  0.3081  1.2951  0.6267
73141SOL    HW231403   0.302  12.995   0.372  1.2021  0.3564 -0.8987
73142SOL     OW31404  11.418   2.367   4.998  0.1821  0.0626  0.0745
73142SOL    HW131405  11.456   2.384   4.912  0.3344 -0.9375 -0.0647
73142SOL    HW231406  11.375   2.449   5.022 -1.2857 -0.1221 -1.6692
73143SOL     OW31407   1.625  10.265  13.005 -0.8050 -0.1544  0.5187
73143SOL    HW131408   1.696  10.327  13.022  0.3533 -1.4705  0.6561
73143SOL    HW231409   1.600  10.282  12.914 -1.6655  1.6055  1.0266
73144SOL     OW31410   6.593   5.685   4.218  0.0647 -0.0408 -0.0431
73144SOL    HW131411   6.566   5.613   4.161  1.5013 -1.7299  1.2831
73144SOL    HW231412   6.689   5.683   4.215  0.1445  0.8683  1.1661
73145SOL     OW31413   2.719   8.260   1.427  0.5895 -0.2773  0.4443
73145SOL    HW131414   2.773   8.301   1.360  0.1363 -0.2187  0.1103
73145SOL    HW231415   2.767   8.274   1.509  1.8803 -1.6054 -0.0409
73146SOL     OW31416  11.289   4.197   8.501  0.2372 -0.6294 -0.1707
73146SOL    HW131417  11.309   4.236   8.586 -0.8155 -0.6909  0.1227
73146SOL    HW231418  11.289   4.102   8.518  0.5708 -0.6620 -0.3615
73147SOL     OW31419   4.644   3.978   9.898  0.4398 -0.0225 -0.1227
73147SOL    HW131420   4.642   3.889   9.932 -1.1028 -0.1609 -0.5352
73147SOL    HW231421   4.571   4.022   9.941  0.5298  0.7387 -0.7334
73148SOL     OW31422   5.749   6.560   2.435 -0.2482 -0.5869  0.1105
73148SOL    HW131423   5.663   6.560   2.394 -0.6027 -0.9014  0.8260
73148SOL    HW231424   5.730   6.558   2.529  0.5224 -3.0628  0.2869
73149SOL     OW31425   2.688   7.150   9.278 -0.3117 -0.2720 -0.7213
73149SOL    HW131426   2.618   7.118   9.220 -0.3416  1.0226 -1.4396
73149SOL    HW231427   2.646   7.221   9.328  0.1378 -0.3673 -0.2038
73150SOL     OW31428   7.366  12.300   5.965  0.4436 -0.5290  0.6672
73150SOL    HW131429   7.460  12.312   5.971  0.0140  3.4445  2.0594
73150SOL    HW231430   7.333  12.381   5.926 -2.5083 -1.1474  1.5875
73151SOL     OW31431   0.342  13.759   4.982 -0.1802 -0.1897 -0.1537
73151SOL    HW131432   0.272  13.724   5.037  0.2461 -0.7480  0.0394
73151SOL    HW231433   0.297  13.787   4.902 -0.9094  1.2428  0.7097
73152SOL     OW31434  13.632   7.297   3.643  0.5530 -0.4024  0.8247
73152SOL    HW131435  13.716   7.275   3.604  0.5233 -0.7432  0.9479
73152SOL    HW231436  13.633   7.253   3.729 -0.3772 -1.7474  0.1893
73153SOL     OW31437   2.590   8.050  11.471  0.2031 -0.3026  0.4402
73153SOL    HW131438   2.678   8.087  11.474 -0.4314  1.2242  2.8351
73153SOL    HW231439   2.561   8.050  11.562 -2.6529  0.1501 -0.3880
73154SOL     OW31440   4.646  12.893  10.487 -0.7801 -0.3881  0.3415
73154SOL    HW131441   4.619  12.936  10.406 -1.5826 -0.4750  0.5502
73154SOL    HW231442   4.584  12.820  10.497  0.6964 -1.7752 -0.1414
73155SOL     OW31443   3.518  13.610  13.788  0.6131 -0.5418  0.1956
73155SOL    HW131444   3.554  13.522  13.780  0.2667 -0.6559 -0.1372
73155SOL    HW231445   3.504  13.638  13.698  0.4995 -0.2390  0.3061
73156SOL     OW31446  13.075   5.100   1.190 -0.2843  0.0029  0.0317
73156SOL    HW131447  13.067   5.167   1.258  0.7430 -0.1348  0.2979
73156SOL    HW231448  12.986   5.065   1.182 -0.6636  0.8223  0.4722
73157SOL     OW31449  13.917  13.127   9.293 -0.9321 -0.6222  0.1794
73157SOL    HW131450  13.915  13.171   9.208  0.2432 -2.1152 -0.6505
73157SOL    HW231451  13.897  13.036   9.274 -0.6662 -0.9806  1.5175
73158SOL     OW31452  13.833  13.381   7.243 -0.5138 -0.5344 -0.0455
73158SOL    HW131453  13.834  13.285   7.248 -0.9855 -0.5221  0.3489
73158SOL    HW231454  13.902  13.402   7.181 -1.1014 -1.1738 -0.9352
73159SOL     OW31455   6.597   2.447  10.794 -0.0797 -0.4800  0.1105
73159SOL    HW131456   6.532   2.380  10.771  0.9703 -1.6710  0.5408
73159SOL    HW231457   6.674   2.398  10.822  0.6200  0.9178  0.7373
73160SOL     OW31458   5.014   2.375  13.929  0.1548  0.0158  0.4488
73160SOL    HW131459   5.077   2.306  13.912  1.3053  0.1195  3.6013
73160SOL    HW231460   4.933   2.329  13.951  0.4815 -0.2851  1.0276
73161SOL     OW31461  12.305   6.172   8.630  0.9142 -0.2391 -0.1084
73161SOL    HW131462  12.359   6.161   8.552  0.9986  1.2673 -0.2817
73161SOL    HW231463  12.289   6.082   8.660  2.2511 -0.7777 -0.9046
73162SOL     OW31464   4.951   3.193   5.917  0.2567 -0.1927  0.0946
73162SOL    HW131465   4.992   3.276   5.940 -0.7172  0.0472  1.0115
73162SOL    HW231466   5.024   3.131   5.910  0.9826  0.7130 -0.5378
73163SOL     OW31467   6.255  11.789   6.242 -0.2628 -0.2177 -0.1262
73163SOL    HW131468   6.343  11.756   6.263 -0.7820 -0.9615  0.9531
73163SOL    HW231469   6.236  11.854   6.309 -0.5016  0.0016 -0.4049
73164SOL     OW31470  11.242   0.967   1.601 -0.6695 -0.0238  0.8185
73164SOL    HW131471  11.297   0.978   1.679  1.7097  1.9742 -0.9560
73164SOL    HW231472  11.303   0.972   1.528 -2.9732 -0.2961 -1.2683
73165SOL     OW31473   6.805   4.671  10.323 -0.3788 -0.5168  0.0689
73165SOL    HW131474   6.753   4.724  10.262  1.7369  2.9565  1.0267
73165SOL    HW231475   6.891   4.664  10.282 -0.3734 -2.6607  0.3508
73166SOL     OW31476   4.098   8.693  10.210 -0.3000  0.1432  0.0623
73166SOL    HW131477   4.158   8.618  10.208  1.1097  1.1205  2.0951
73166SOL    HW231478   4.013   8.655  10.233  0.4186 -0.8633  1.1731
73167SOL     OW31479  12.097   3.315   0.435  0.5392  0.3764  0.1790
73167SOL    HW131480  12.134   3.397   0.469  0.5636  1.1882 -1.6658
73167SOL    HW231481  12.073   3.336   0.345  0.4872 -1.6547 -0.3205
73168SOL     OW31482  12.361   5.302  11.037  0.0438 -0.1188  0.4269
73168SOL    HW131483  12.399   5.231  10.984  0.7432 -0.2245  1.0545
73168SOL    HW231484  12.416   5.305  11.115  0.4099  1.5132  0.1465
73169SOL     OW31485  13.497   6.461   9.525 -0.2172 -0.0342 -0.0018
73169SOL    HW131486  13.535   6.547   9.509  0.2694 -0.6161 -2.4807
73169SOL    HW231487  13.572   6.403   9.537 -0.5426 -0.1452  1.7227
73170SOL     OW31488   6.497   0.294   9.318 -0.3205 -0.3046 -0.3724
73170SOL    HW131489   6.412   0.291   9.362 -0.4973  0.2469 -0.6632
73170SOL    HW231490   6.509   0.207   9.281 -0.9781 -0.2446 -0.7336
73171SOL     OW31491  12.167  10.064  10.433 -0.6153 -0.1957 -0.2215
73171SOL    HW131492  12.141  10.016  10.511  0.5756 -0.4634  0.0185
73171SOL    HW231493  12.230  10.128  10.463  0.9332 -1.2145 -1.1313
73172SOL     OW31494  13.005   8.821   8.030  0.1950  0.1279  0.5320
73172SOL    HW131495  13.009   8.776   7.946  0.0114 -1.1319  1.1606
73172SOL    HW231496  13.025   8.752   8.094  2.4060  1.4853  1.4209
73173SOL     OW31497  10.645   9.395   0.276 -0.1456 -0.8398 -0.2838
73173SOL    HW131498  10.622   9.317   0.326 -0.1526 -0.2164  0.7319
73173SOL    HW231499  10.735   9.415   0.304 -1.0163  0.9556  1.4477
73174SOL     OW31500   0.765  13.096   3.457  0.5159  0.0584 -0.0973
73174SOL    HW131501   0.688  13.095   3.514 -0.1450 -0.1685 -0.9726
73174SOL    HW231502   0.824  13.032   3.496  0.2407  0.1962  0.5558
73175SOL     OW31503   3.621  11.121   5.864 -0.3705 -0.0955 -0.2953
73175SOL    HW131504   3.573  11.170   5.797 -0.8271  1.1094  0.8651
73175SOL    HW231505   3.700  11.089   5.819 -0.4725  1.0068 -1.3010
73176SOL     OW31506   5.282   2.248  12.138 -0.4234  0.4334  0.1849
73176SOL    HW131507   5.333   2.169  12.152  2.8292  2.3305  0.1064
73176SOL    HW231508   5.295   2.269  12.045 -0.5148  1.4724  0.3881
73177SOL     OW31509  12.146  10.230   0.172 -0.5499  0.1408 -0.2634
73177SOL    HW131510  12.157  10.140   0.143 -0.4291  0.0702  0.0008
73177SOL    HW231511  12.091  10.224   0.249 -0.4582  0.2845 -0.1865
73178SOL     OW31512   9.508   3.933   4.247  0.1723 -0.5037  0.4271
73178SOL    HW131513   9.535   3.911   4.158 -0.1106  0.0752  0.1948
73178SOL    HW231514   9.533   3.857   4.299 -1.0467 -1.4936 -0.3963
73179SOL     OW31515  11.192   3.732  10.109 -0.7025  0.4452 -0.1531
73179SOL    HW131516  11.178   3.679  10.030 -3.0781  0.7892 -0.0422
73179SOL    HW231517  11.170   3.673  10.181  0.9190  0.3040  0.2477
73180SOL     OW31518   4.980   3.720   8.733 -0.0802 -0.0036  0.1509
73180SOL    HW131519   4.996   3.638   8.688 -1.3541  1.8287 -4.2186
73180SOL    HW231520   5.053   3.777   8.708 -1.1247  1.2765 -0.1346
73181SOL     OW31521   7.303   0.463   5.954  0.1594  0.2636  0.6220
73181SOL    HW131522   7.396   0.449   5.937 -0.4069 -0.2010 -2.9532
73181SOL    HW231523   7.282   0.546   5.911 -0.8491  1.2459  2.8050
73182SOL     OW31524   2.263  11.053   6.606 -0.2996 -0.1960  0.3312
73182SOL    HW131525   2.276  11.105   6.526 -0.6229 -1.2024 -0.3894
73182SOL    HW231526   2.170  11.034   6.608  0.1221 -2.6431 -0.6494
73183SOL     OW31527  13.970   2.946  13.130 -0.4724 -0.3926  0.5151
73183SOL    HW131528  13.945   3.032  13.164  0.1947  0.8875 -1.9811
73183SOL    HW231529  14.060   2.934  13.161  0.4184  1.1203 -1.2537
73184SOL     OW31530   7.913   6.919  12.194 -0.1140  0.0067 -0.3078
73184SOL    HW131531   7.821   6.895  12.199 -0.6494  1.8914 -0.2084
73184SOL    HW231532   7.915   6.994  12.134  1.4594 -0.3893 -0.8131
73185SOL     OW31533   6.970  11.592   3.405 -0.6042 -0.1465 -0.7889
73185SOL    HW131534   7.041  11.574   3.343 -1.1454 -0.2696 -1.3776
73185SOL    HW231535   6.892  11.556   3.364 -0.9636 -0.2929  0.0009
73186SOL     OW31536  10.143   9.012   1.463 -0.3112 -0.3052 -0.0657
73186SOL    HW131537  10.125   8.990   1.371  2.1267 -0.5126 -0.5668
73186SOL    HW231538  10.174   8.930   1.501 -2.6392 -0.5757  1.3857
73187SOL     OW31539   6.571   0.365   5.283 -0.5790 -0.0391  0.1230
73187SOL    HW131540   6.538   0.315   5.209 -2.0777  0.7041  0.2391
73187SOL    HW231541   6.565   0.456   5.255 -0.9545  0.2445  1.0671
73188SOL     OW31542  11.564   6.665   0.331  0.3807  0.4184 -0.1617
73188SOL    HW131543  11.472   6.692   0.325 -0.1044 -0.5607  1.9402
73188SOL    HW231544  11.614   6.746   0.323 -0.6625  1.0128 -0.9381
73189SOL     OW31545   9.517   0.237   3.238 -0.1929 -0.0234  0.1998
73189SOL    HW131546   9.443   0.228   3.298  1.3335 -2.8123  1.8543
73189SOL    HW231547   9.510   0.160   3.180  1.7601 -0.7773  0.8856
73190SOL     OW31548   3.447   1.353   7.144  0.3524 -0.3864  0.0327
73190SOL    HW131549   3.542   1.361   7.159  0.7743  0.7111 -2.6295
73190SOL    HW231550   3.409   1.425   7.194  0.9931 -0.3905  0.5440
73191SOL     OW31551  11.435  11.204   9.446 -0.1342 -0.6500  0.7514
73191SOL    HW131552  11.401  11.114   9.436 -1.4322 -0.1832  0.7126
73191SOL    HW231553  11.382  11.255   9.384  0.1283  0.2531  1.2669
73192SOL     OW31554  11.637  11.029   5.240  0.3018  0.1170 -0.1665
73192SOL    HW131555  11.574  10.959   5.221  0.0291  0.3581 -0.1569
73192SOL    HW231556  11.687  10.997   5.315  1.0369 -0.6195 -0.9560
73193SOL     OW31557  10.091  13.187   6.784 -0.2010 -0.3996 -0.1156
73193SOL    HW131558  10.046  13.105   6.803 -1.3979 -0.0231 -1.2178
73193SOL    HW231559  10.065  13.210   6.695  2.2941 -0.2044 -0.8608
73194SOL     OW31560  10.710   9.372   2.252  0.0550 -0.1741 -0.1403
73194SOL    HW131561  10.654   9.383   2.175  0.5598  0.4532 -0.4264
73194SOL    HW231562  10.780   9.436   2.240  2.1579 -2.4650 -0.9731
73195SOL     OW31563   8.940   6.113   6.920  0.1217 -0.1913  0.2246
73195SOL    HW131564   8.997   6.097   6.995  0.2761  0.4600  0.2490
73195SOL    HW231565   8.863   6.156   6.957  1.6718  3.3779 -0.3843
73196SOL     OW31566   0.289   7.703   2.062  0.2186 -0.1650 -0.0736
73196SOL    HW131567   0.363   7.697   2.001  0.6803 -1.1097  0.5591
73196SOL    HW231568   0.329   7.694   2.148 -0.6092 -0.3491  0.2935
73197SOL     OW31569   6.820   5.822   4.417  0.5105  0.0608  0.0149
73197SOL    HW131570   6.899   5.876   4.417  0.9718 -0.5812  1.0931
73197SOL    HW231571   6.849   5.738   4.381 -0.0311  0.2907 -0.9688
73198SOL     OW31572  12.927   4.777  12.735  0.3588 -0.1709 -0.6647
73198SOL    HW131573  12.919   4.835  12.660 -0.6320  0.2960 -0.2265
73198SOL    HW231574  12.851   4.799  12.790  0.5337 -1.1654  0.0027
73199SOL     OW31575   4.169   2.984   5.227  0.2306 -0.1710 -0.1418
73199SOL    HW131576   4.153   2.914   5.164  1.1338 -0.9287  0.4503
73199SOL    HW231577   4.207   2.940   5.303  0.7969  0.9517  0.2506
73200SOL     OW31578   3.353   2.169   2.486 -0.7432  0.0530  0.1927
73200SOL    HW131579   3.361   2.246   2.541 -0.3966 -0.9610  1.6248
73200SOL    HW231580   3.350   2.095   2.547  0.5679 -1.1961 -1.1464
73201SOL     OW31581  10.819   3.428   0.146 -0.4974  0.1741  0.3181
73201SOL    HW131582  10.771   3.424   0.229  0.2467  1.0680  0.8160
73201SOL    HW231583  10.897   3.480   0.166  0.7783 -1.3679 -0.4126
73202SOL     OW31584   0.066   8.030   8.904  0.0580 -0.8666  0.2131
73202SOL    HW131585   0.144   8.051   8.955  1.3970  0.0836 -2.0728
73202SOL    HW231586  -0.003   8.085   8.942  1.5618  1.6045 -0.3835
73203SOL     OW31587   2.393   4.082   8.854 -0.7368 -0.2566 -0.1805
73203SOL    HW131588   2.302   4.101   8.832 -0.2855  0.5712 -1.4441
73203SOL    HW231589   2.406   3.992   8.826 -0.8825 -0.0363 -0.9627
73204SOL     OW31590   2.553   6.857   9.639  0.1062 -0.1256  0.0571
73204SOL    HW131591   2.622   6.875   9.575  1.2608  0.4126  1.4067
73204SOL    HW231592   2.597   6.860   9.723 -1.3728 -0.8854  0.8922
73205SOL     OW31593  10.344   1.911   9.072 -0.2548  0.1375  0.5224
73205SOL    HW131594  10.285   1.985   9.083 -0.7763 -0.4882  2.1768
73205SOL    HW231595  10.342   1.892   8.978 -1.3510  1.1977  0.3193
73206SOL     OW31596  13.582  13.949   7.414  0.0413 -0.4515 -0.0679
73206SOL    HW131597  13.489  13.971   7.401 -0.8864 -4.0400 -0.3893
73206SOL    HW231598  13.616  13.933   7.326  0.7990  0.0712  0.1174
73207SOL     OW31599   3.397   5.095   9.768  0.1868  0.1276 -0.5697
73207SOL    HW131600   3.490   5.080   9.786  0.0450 -1.3025 -0.8652
73207SOL    HW231601   3.361   5.007   9.755 -1.8669  0.3654  2.5437
73208SOL     OW31602   1.998   2.690  12.623  0.0453  0.0305 -0.2046
73208SOL    HW131603   1.944   2.631  12.675  0.2322  0.1005  0.0746
73208SOL    HW231604   2.053   2.735  12.688  0.2851  0.1130 -0.4635
73209SOL     OW31605  12.568  10.855   4.888 -0.3801  0.3222  0.2768
73209SOL    HW131606  12.502  10.856   4.819 -2.5026  1.6005  2.2081
73209SOL    HW231607  12.592  10.762   4.897  0.4843  0.1705 -2.5168
73210SOL     OW31608  12.908   9.241   5.142 -0.3006 -1.1218  0.0991
73210SOL    HW131609  12.993   9.278   5.117  0.6117 -3.1517  0.0048
73210SOL    HW231610  12.925   9.196   5.224 -1.0638 -2.3119 -0.3780
73211SOL     OW31611   3.617   7.685  11.175 -1.0967 -0.1439 -0.5683
73211SOL    HW131612   3.707   7.703  11.146 -1.3496  0.8051 -0.7906
73211SOL    HW231613   3.606   7.591  11.161  0.3576 -0.5869  0.8467
73212SOL     OW31614   3.100   6.762   7.477  0.6174  0.0814 -0.0141
73212SOL    HW131615   3.182   6.718   7.498  1.4070  2.1868  1.7657
73212SOL    HW231616   3.114   6.801   7.391  0.3555 -1.9324 -1.0313
73213SOL     OW31617   6.750   1.149  11.727  0.7759  0.1607 -0.2500
73213SOL    HW131618   6.838   1.162  11.692  1.2420  0.1003  0.8769
73213SOL    HW231619   6.693   1.198  11.667  1.5374  0.0096 -1.1152
73214SOL     OW31620  12.914   5.332   5.089 -0.3239  0.0433 -0.0378
73214SOL    HW131621  12.920   5.418   5.131  0.8668 -0.7675  1.5690
73214SOL    HW231622  12.832   5.335   5.040  0.9910  3.0709 -2.3584
73215SOL     OW31623   5.144   0.284   4.971 -0.5047  0.0169 -0.3187
73215SOL    HW131624   5.160   0.304   5.063 -0.2283 -0.9780 -0.1410
73215SOL    HW231625   5.054   0.313   4.956 -0.1486  1.3193 -0.0807
73216SOL     OW31626   8.264   2.655  10.892 -0.5566  0.1938 -0.1834
73216SOL    HW131627   8.274   2.560  10.897  0.9375  0.3524  0.4655
73216SOL    HW231628   8.212   2.678  10.969 -0.8984 -0.0888 -0.3274
73217SOL     OW31629   0.680   4.310   6.389  0.3366 -0.1182 -0.1604
73217SOL    HW131630   0.670   4.270   6.475  2.9551  0.8999  0.7051
73217SOL    HW231631   0.639   4.396   6.397 -0.6218 -0.5374 -0.3938
73218SOL     OW31632   9.075   9.392   0.901 -0.3165 -0.2029  0.2858
73218SOL    HW131633   9.031   9.475   0.882  2.6188  1.3069 -0.5620
73218SOL    HW231634   9.040   9.331   0.836 -0.6376  1.1281 -0.8423
73219SOL     OW31635   4.750   8.277   1.920 -0.5797 -0.1059  0.0027
73219SOL    HW131636   4.688   8.334   1.874  1.4093  2.5202  0.3247
73219SOL    HW231637   4.730   8.289   2.012  1.0188  1.6927  0.1813
73220SOL     OW31638   6.477  12.007   9.934 -0.4492 -0.2198  0.2376
73220SOL    HW131639   6.547  11.955   9.974  0.0317  0.7608  0.7350
73220SOL    HW231640   6.484  11.989   9.841  0.5354 -0.0977  0.2704
73221SOL     OW31641   3.503   9.340   1.511  0.5764 -1.0066 -0.5011
73221SOL    HW131642   3.510   9.369   1.420  0.5883 -1.0302 -0.5079
73221SOL    HW231643   3.442   9.266   1.508  0.0161 -0.5607 -0.3879
73222SOL     OW31644   0.892   2.290  13.733  0.0498  0.6797 -0.2832
73222SOL    HW131645   0.912   2.223  13.667  0.1921  0.4280  0.0121
73222SOL    HW231646   0.977   2.325  13.759  0.0644  0.1556  0.4060
73223SOL     OW31647  11.994   7.709   3.202  0.2392 -0.6665  0.2751
73223SOL    HW131648  11.993   7.688   3.295 -0.2146 -0.4379  0.3218
73223SOL    HW231649  11.903   7.728   3.180  0.6178  1.3181  0.2493
73224SOL     OW31650   7.632   2.676   2.160  0.4558  0.1571  0.0930
73224SOL    HW131651   7.651   2.584   2.178  0.8127 -0.0667 -1.2893
73224SOL    HW231652   7.664   2.690   2.071 -1.6877  1.0082 -0.6115
73225SOL     OW31653   9.335  10.745   1.216  0.3093 -0.3506  0.5330
73225SOL    HW131654   9.404  10.720   1.278  0.1028  0.2983  1.0378
73225SOL    HW231655   9.254  10.737   1.266  0.1654  0.4740  0.4573
73226SOL     OW31656   2.788  13.595  10.552  0.0430 -0.0514 -0.2797
73226SOL    HW131657   2.721  13.551  10.499 -2.7018 -0.9831  3.4994
73226SOL    HW231658   2.840  13.524  10.589  0.5528  0.4193 -0.0827
73227SOL     OW31659   6.039  12.044   3.468  1.1206 -0.4677  0.0853
73227SOL    HW131660   6.021  12.045   3.374 -0.7016 -1.6795  0.3691
73227SOL    HW231661   6.056  11.952   3.488  0.1739 -0.4231  1.1565
73228SOL     OW31662   2.667   2.189   5.476 -0.5291 -0.0910  0.2003
73228SOL    HW131663   2.642   2.273   5.438  0.9021 -0.1739 -1.0412
73228SOL    HW231664   2.733   2.211   5.542 -1.0217 -0.1564  0.7179
73229SOL     OW31665   3.808  11.399   9.992  0.3798  0.4065 -0.0642
73229SOL    HW131666   3.743  11.468  10.003 -0.9667 -0.8719  0.2587
73229SOL    HW231667   3.848  11.389  10.078  0.5838  0.7662 -0.1135
73230SOL     OW31668   3.963   3.487  11.400 -0.2402 -0.1894  0.2448
73230SOL    HW131669   4.037   3.432  11.425 -1.4248 -1.5875  0.8138
73230SOL    HW231670   3.910   3.495  11.479 -1.4235 -0.4180 -0.4896
73231SOL     OW31671   7.175   8.991   3.874 -0.5952  0.3243 -0.3007
73231SOL    HW131672   7.116   9.055   3.834 -0.0301  0.2112 -1.3621
73231SOL    HW231673   7.140   8.977   3.962 -2.5763 -0.2886 -1.1246
73232SOL     OW31674   2.572   3.441  12.577  0.2733  0.0250  0.2561
73232SOL    HW131675   2.608   3.492  12.650  0.2161 -0.4538  0.6256
73232SOL    HW231676   2.486   3.480  12.561 -0.2550 -0.6569  1.2893
73233SOL     OW31677   4.077  11.535   9.308 -0.3923  0.3066 -0.2498
73233SOL    HW131678   4.022  11.606   9.341  1.7346  1.5454  0.8888
73233SOL    HW231679   4.057  11.460   9.365 -1.7342  0.3489 -0.6391
73234SOL     OW31680  10.286   2.860  11.270 -0.1972 -0.0795  0.3178
73234SOL    HW131681  10.346   2.934  11.285 -1.2320  0.8522 -0.0192
73234SOL    HW231682  10.263   2.830  11.358 -1.0652  1.0883  0.5100
73235SOL     OW31683   2.733  13.655   6.882 -0.0105  0.2566 -0.3997
73235SOL    HW131684   2.674  13.699   6.822 -0.4266 -0.6976 -0.7051
73235SOL    HW231685   2.677  13.620   6.951  0.5683  2.3673  1.2552
73236SOL     OW31686   9.739   1.051   1.160 -0.1262 -0.1603  0.1515
73236SOL    HW131687   9.724   0.957   1.149 -0.0659 -0.1368 -0.1353
73236SOL    HW231688   9.668   1.080   1.217 -0.4288 -0.2889 -0.1597
73237SOL     OW31689   9.203   4.536  12.309  0.2571 -0.0533 -0.0287
73237SOL    HW131690   9.128   4.543  12.250 -1.4134 -1.5043  1.7848
73237SOL    HW231691   9.209   4.621  12.352 -1.6583 -0.4949  1.2206
73238SOL     OW31692   1.325   3.474   5.464  0.0030  0.3340 -0.2196
73238SOL    HW131693   1.371   3.528   5.399  0.8895 -0.6101 -0.3991
73238SOL    HW231694   1.375   3.485   5.544 -1.0515  1.4378  0.3238
73239SOL     OW31695  10.547   6.940   2.866 -0.3617 -0.0554  0.0735
73239SOL    HW131696  10.514   7.007   2.806 -2.9750 -0.7928  0.5548
73239SOL    HW231697  10.553   6.860   2.814 -0.8101 -0.2709  0.3485
73240SOL     OW31698  12.035   5.260   2.281 -0.1640 -0.0817  0.2554
73240SOL    HW131699  12.037   5.282   2.188  0.0028  0.2291  0.3337
73240SOL    HW231700  12.068   5.338   2.325  1.6440 -0.9117  0.4495
73241SOL     OW31701   3.308   5.683   0.101 -0.0216  0.7247  0.4744
73241SOL    HW131702   3.304   5.646   0.013  0.6563 -3.3088  1.9255
73241SOL    HW231703   3.217   5.686   0.130 -0.0641 -0.3747  0.4880
73242SOL     OW31704  13.937   4.372   4.039  0.6077 -0.5920  0.1092
73242SOL    HW131705  13.996   4.308   4.079  0.2588 -1.3170 -0.4939
73242SOL    HW231706  13.876   4.319   3.987  0.8871  0.2866 -1.1585
73243SOL     OW31707   4.157   8.064   5.470  0.2372  0.1135  0.3896
73243SOL    HW131708   4.201   8.007   5.406 -0.0211 -0.4312  0.6946
73243SOL    HW231709   4.226   8.089   5.531  0.4639  0.5541 -0.0433
73244SOL     OW31710   2.164   4.948   4.279 -0.1943  0.7120 -0.2587
73244SOL    HW131711   2.097   4.914   4.219 -1.2054  1.2685  0.5180
73244SOL    HW231712   2.236   4.885   4.272 -1.4877 -0.9129  0.1642
73245SOL     OW31713   0.081   4.924   9.342  0.8903 -0.0850 -0.5123
73245SOL    HW131714   0.008   4.867   9.319  1.2326 -0.8338  0.2131
73245SOL    HW231715   0.052   4.968   9.422  0.8397  0.3629 -0.7757
73246SOL     OW31716   6.618   5.926   3.684  0.3161  0.5364  0.3107
73246SOL    HW131717   6.670   5.864   3.735  2.4341  1.1378 -0.9949
73246SOL    HW231718   6.601   5.880   3.601 -1.6462  0.1980  0.8565
73247SOL     OW31719  13.361  12.386   3.865  0.5833  0.0772 -0.3059
73247SOL    HW131720  13.390  12.441   3.937 -0.5720  1.1613 -0.6362
73247SOL    HW231721  13.401  12.425   3.787 -0.0080  0.2755 -0.5105
73248SOL     OW31722   1.329   4.336   7.198  0.3243  0.6162  0.5109
73248SOL    HW131723   1.339   4.382   7.281  0.5950 -0.2359  0.9681
73248SOL    HW231724   1.282   4.255   7.221  1.2231 -0.0702  0.0096
73249SOL     OW31725   3.379   4.170  13.568  0.4241 -0.4294 -0.5929
73249SOL    HW131726   3.437   4.204  13.501 -0.6514 -0.7765 -1.7421
73249SOL    HW231727   3.333   4.248  13.601  0.8476 -0.2780 -0.3527
73250SOL     OW31728   0.708   4.896   6.578 -0.0673 -0.0843 -0.1073
73250SOL    HW131729   0.773   4.826   6.584 -0.1189 -0.1031  0.2362
73250SOL    HW231730   0.760   4.977   6.574 -0.0297 -0.0794  0.4703
73251SOL     OW31731   4.421   2.743  12.498 -0.1745  0.4468  0.2738
73251SOL    HW131732   4.457   2.831  12.486 -1.3136  0.7101 -1.5768
73251SOL    HW231733   4.414   2.733  12.593  0.2689  2.2237  0.5265
73252SOL     OW31734  11.624  11.889  10.677  0.2874  0.0927 -0.0984
73252SOL    HW131735  11.679  11.957  10.718  0.7760  1.3946 -2.7275
73252SOL    HW231736  11.647  11.809  10.724  2.6794  1.0273  0.4746
73253SOL     OW31737   2.477   4.854   6.505 -0.2224 -0.1253  0.0112
73253SOL    HW131738   2.472   4.808   6.588  0.2969  1.4642  0.9612
73253SOL    HW231739   2.552   4.912   6.513  0.0026 -0.1258 -1.6803
73254SOL     OW31740  10.900   3.881  10.945  0.0199 -0.3797  0.1187
73254SOL    HW131741  10.965   3.899  10.877 -1.3071 -0.4250 -1.2309
73254SOL    HW231742  10.946   3.895  11.027  1.9009 -1.0791 -0.7742
73255SOL     OW31743   5.379  10.021   8.714 -0.4968  0.2481  0.5899
73255SOL    HW131744   5.381  10.117   8.723 -1.5456  0.2533  0.8716
73255SOL    HW231745   5.440  10.003   8.642 -2.1349  1.3557 -1.1896
73256SOL     OW31746   0.833  10.324   9.470  0.0092  0.3921 -0.2522
73256SOL    HW131747   0.921  10.323   9.433  0.0764 -0.6898 -0.0879
73256SOL    HW231748   0.835  10.260   9.541 -1.3057 -0.7922 -1.2127
73257SOL     OW31749  13.288  11.243  12.445 -0.4232  0.4090 -0.1577
73257SOL    HW131750  13.277  11.149  12.433  0.1380  0.3994 -0.6674
73257SOL    HW231751  13.346  11.251  12.521  0.1883  0.3184 -0.6124
73258SOL     OW31752   2.949  11.832   3.921 -0.6546  0.4212 -0.3748
73258SOL    HW131753   2.966  11.848   4.014  3.3976 -1.6576 -0.5550
73258SOL    HW231754   2.946  11.919   3.882  0.0987  1.2776  1.3501
73259SOL     OW31755  10.283  13.486   8.107 -0.0864  0.3627  0.5523
73259SOL    HW131756  10.280  13.422   8.035  0.6038 -0.8132  1.5286
73259SOL    HW231757  10.304  13.569   8.064  1.0622 -0.4455 -0.5358
73260SOL     OW31758   3.384   0.937   8.743  0.6262  0.2558  0.2700
73260SOL    HW131759   3.326   0.993   8.692 -0.2148  0.0855  0.9975
73260SOL    HW231760   3.328   0.905   8.815  1.5678 -0.0918  0.8650
73261SOL     OW31761   8.993   8.850   7.834  0.0157  0.0345  0.1456
73261SOL    HW131762   8.974   8.841   7.741 -1.4419  2.0298  0.1884
73261SOL    HW231763   8.990   8.761   7.868 -2.6464 -0.4687 -1.1766
73262SOL     OW31764   5.713   8.496   3.384  0.0244  0.1866 -0.0551
73262SOL    HW131765   5.799   8.498   3.343  0.4212  1.8638  0.8079
73262SOL    HW231766   5.719   8.426   3.449  0.8920  0.6211  0.3385
73263SOL     OW31767   2.158   7.356  10.347  0.0169 -0.6272 -0.4982
73263SOL    HW131768   2.205   7.311  10.276  0.3292 -1.7094  0.3584
73263SOL    HW231769   2.174   7.301  10.424 -0.9542  0.1133  0.2485
73264SOL     OW31770  10.013  13.758   2.240  0.3745 -0.4964  1.2247
73264SOL    HW131771   9.944  13.703   2.203  0.4286  0.6545 -0.7244
73264SOL    HW231772  10.094  13.727   2.199  0.1996  2.1002 -1.4437
73265SOL     OW31773   0.473   1.221   6.314  0.1399  0.1823  0.2222
73265SOL    HW131774   0.471   1.302   6.364  0.9634  0.6057 -0.4068
73265SOL    HW231775   0.393   1.222   6.262 -0.2956  0.1496  0.8873
73266SOL     OW31776   6.935  11.729   2.150 -0.0146  0.1008  0.5171
73266SOL    HW131777   6.840  11.723   2.155  0.0598 -0.8074  1.1561
73266SOL    HW231778   6.952  11.807   2.097 -1.1103  0.1505  0.2191
73267SOL     OW31779   4.538  11.060   6.216 -0.0882 -0.1975 -0.2517
73267SOL    HW131780   4.541  10.970   6.250  0.4725 -0.0565  0.0929
73267SOL    HW231781   4.461  11.098   6.257 -0.1323 -0.4189 -0.1226
73268SOL     OW31782  11.898   8.015   3.819  0.4143 -0.1328  0.4137
73268SOL    HW131783  11.936   7.928   3.830  0.7856  0.0730  0.7992
73268SOL    HW231784  11.958   8.060   3.760 -0.1314 -0.3476 -0.3265
73269SOL     OW31785   3.559   5.003   0.905 -0.3125  0.3334  0.1927
73269SOL    HW131786   3.625   4.939   0.933 -0.5248 -0.1651 -0.4317
73269SOL    HW231787   3.505   5.017   0.983 -0.0896 -0.0388  0.4164
73270SOL     OW31788   0.056   0.377   0.180  0.3368  0.2367 -0.3332
73270SOL    HW131789   0.122   0.354   0.116  1.7396  1.2487  0.6902
73270SOL    HW231790   0.011   0.453   0.143  2.4137  2.0302  0.6250
73271SOL     OW31791   6.451   0.290   7.882  0.0887  0.1725  0.4710
73271SOL    HW131792   6.370   0.315   7.839  1.3044  2.4003 -0.6662
73271SOL    HW231793   6.479   0.211   7.837 -0.2215  0.7659 -0.7941
73272SOL     OW31794   7.608  12.269   0.668  0.1854 -1.4757 -0.4012
73272SOL    HW131795   7.544  12.261   0.598 -2.0879 -1.1218  1.4860
73272SOL    HW231796   7.641  12.359   0.661  1.0380 -1.8645 -1.7810
73273SOL     OW31797   2.321   2.001   1.969 -0.5901 -0.2018  0.0851
73273SOL    HW131798   2.332   1.991   2.064 -1.9487  0.7163  0.3757
73273SOL    HW231799   2.263   2.077   1.960  1.5676  1.3856 -1.5787
73274SOL     OW31800   3.984   6.070   5.445 -0.4676  0.4600 -0.2236
73274SOL    HW131801   4.045   6.141   5.464  1.0518 -0.8799  0.1584
73274SOL    HW231802   3.931   6.103   5.372 -0.2023  2.1827  0.3230
73275SOL     OW31803   5.192   3.113   5.403 -0.0835 -0.6234  0.0574
73275SOL    HW131804   5.243   3.095   5.482  0.9314  0.6304 -0.2740
73275SOL    HW231805   5.129   3.041   5.398  2.1609 -2.7219  0.0587
73276SOL     OW31806   8.502   7.273  10.337  0.2754  0.7818 -0.0179
73276SOL    HW131807   8.464   7.306  10.256 -1.6091 -2.8590 -0.8341
73276SOL    HW231808   8.574   7.217  10.308  0.1112  0.0910  0.8579
73277SOL     OW31809   5.475   3.092  12.450 -0.6903 -0.1617 -0.5885
73277SOL    HW131810   5.533   3.023  12.480 -0.0586  0.2843 -0.7645
73277SOL    HW231811   5.528   3.144  12.389 -0.7416  1.2025  0.4582
73278SOL     OW31812   7.159   4.141   4.111  0.3112 -0.1887  0.2519
73278SOL    HW131813   7.224   4.161   4.043 -1.5969  1.7699 -1.1360
73278SOL    HW231814   7.127   4.226   4.139 -1.2646 -1.0865  1.2990
73279SOL     OW31815   6.681   2.319   6.864  0.9237 -0.3933  0.2091
73279SOL    HW131816   6.697   2.229   6.835  1.9176 -0.4349  0.8112
73279SOL    HW231817   6.764   2.346   6.904  0.0274  0.0921  1.8484
73280SOL     OW31818   4.717   6.964  13.750 -0.1203 -0.1902 -0.0941
73280SOL    HW131819   4.789   6.960  13.686  1.2792  0.6928  1.3616
73280SOL    HW231820   4.639   6.941  13.699  1.0473 -0.3107 -1.9318
73281SOL     OW31821   1.777   8.953   8.891 -0.1667 -0.2498 -0.2113
73281SOL    HW131822   1.740   8.927   8.976  0.2224 -0.2841 -0.0486
73281SOL    HW231823   1.870   8.931   8.899  0.1706  1.1703 -0.0808
73282SOL     OW31824   4.416   4.003  10.009  0.4626  0.3875  0.0097
73282SOL    HW131825   4.331   4.044   9.993 -0.6672 -1.9627 -0.4007
73282SOL    HW231826   4.400   3.942  10.081  1.6847 -0.4130 -0.3729
73283SOL     OW31827  11.228   4.490   5.829  0.0704  0.0521  0.1128
73283SOL    HW131828  11.280   4.411   5.813  1.1674  0.8819 -0.6230
73283SOL    HW231829  11.137   4.463   5.813  0.4762 -0.9337 -0.6279
73284SOL     OW31830   1.865   9.910   0.725  0.3286 -0.3893  0.2384
73284SOL    HW131831   1.944   9.880   0.771  0.6348 -2.7339 -1.6232
73284SOL    HW231832   1.898   9.961   0.651  0.0015  0.3167  0.5747
73285SOL     OW31833   3.685   4.346   8.030 -0.5950 -0.1563  0.8163
73285SOL    HW131834   3.591   4.355   8.043 -0.9729 -0.0083 -1.5790
73285SOL    HW231835   3.696   4.348   7.935  1.8210 -0.2976  1.0426
73286SOL     OW31836   8.231   2.939   0.111 -0.1095 -0.2231 -0.0068
73286SOL    HW131837   8.157   2.898   0.066 -0.4319  0.4267 -0.0935
73286SOL    HW231838   8.304   2.931   0.050 -0.3828  0.0761 -0.3798
73287SOL     OW31839  13.320   0.367   9.660  0.1034  0.2968 -0.1112
73287SOL    HW131840  13.229   0.347   9.683 -0.0000  1.7426  0.7939
73287SOL    HW231841  13.329   0.461   9.673  1.0510  0.6387 -2.6295
73288SOL     OW31842   5.892   7.689  11.723 -0.2920 -0.1610  0.5401
73288SOL    HW131843   5.959   7.635  11.680 -0.1459 -0.4881  1.1570
73288SOL    HW231844   5.810   7.659  11.685 -0.3455 -1.7904  1.7976
73289SOL     OW31845   2.248   0.440   4.720 -0.6680 -0.3567  0.5398
73289SOL    HW131846   2.199   0.461   4.799 -0.4202 -0.2191  0.6589
73289SOL    HW231847   2.234   0.515   4.662 -0.9113 -0.4914  0.4201
73290SOL     OW31848   7.752   6.802   7.130 -0.1291 -0.2444  0.1071
73290SOL    HW131849   7.726   6.777   7.042  0.8056  0.9262 -0.5168
73290SOL    HW231850   7.696   6.749   7.187 -0.3878 -1.3966 -1.1685
73291SOL     OW31851   0.176   8.532  13.462 -0.3818 -0.3493  0.5174
73291SOL    HW131852   0.120   8.458  13.438 -0.4944 -0.0195 -0.2581
73291SOL    HW231853   0.222   8.502  13.541 -0.4545 -1.2352  0.2339
73292SOL     OW31854  13.978   6.740   7.353 -0.3998  0.1105 -0.4505
73292SOL    HW131855  13.884   6.737   7.366 -0.3833  0.0305 -0.3502
73292SOL    HW231856  14.014   6.682   7.420 -0.3743 -0.9998 -1.4007
73293SOL     OW31857  13.296  11.192  14.007 -0.4141  0.0535  0.0186
73293SOL    HW131858  13.264  11.194  14.097 -1.1093  1.2568 -0.2303
73293SOL    HW231859  13.240  11.255  13.961 -2.3092 -2.8672 -2.0147
73294SOL     OW31860   8.172   3.316  11.063 -0.6444 -0.0295 -0.0145
73294SOL    HW131861   8.152   3.389  11.005  0.8389  0.2945 -0.1746
73294SOL    HW231862   8.105   3.319  11.130 -1.6517  0.3640 -1.0155
73295SOL     OW31863   4.169  10.419   0.001 -0.0433  0.5683 -0.1931
73295SOL    HW131864   4.104  10.378   0.057  0.0432  0.8031  0.0805
73295SOL    HW231865   4.186  10.505   0.041  1.7013 -0.1555  0.7331
73296SOL     OW31866  11.098   5.854   9.269 -0.0289 -0.2100 -0.0841
73296SOL    HW131867  11.024   5.798   9.291  1.7094 -2.3530  0.7732
73296SOL    HW231868  11.165   5.831   9.334  0.9278  2.6664  0.0815
73297SOL     OW31869  10.045   5.229   5.544 -0.1600  0.1953 -0.1132
73297SOL    HW131870  10.011   5.280   5.471 -0.0486 -0.1036 -0.3739
73297SOL    HW231871   9.967   5.205   5.594 -0.3149 -0.2803 -0.5757
73298SOL     OW31872   4.750  12.893   1.793 -0.2499  0.5187 -0.6716
73298SOL    HW131873   4.713  12.967   1.839  2.0725  2.3922 -1.5883
73298SOL    HW231874   4.716  12.901   1.704 -1.1372 -0.3977 -0.4246
73299SOL     OW31875   4.073   7.520   8.827  0.2150  0.4226 -0.0241
73299SOL    HW131876   4.141   7.456   8.807  0.5643  0.8642 -0.2540
73299SOL    HW231877   4.110   7.574   8.897 -0.2317  0.1347  0.4434
73300SOL     OW31878   5.254   5.577  10.896 -0.1480 -0.5900 -0.0056
73300SOL    HW131879   5.317   5.556  10.827  0.9015  2.2545 -0.0563
73300SOL    HW231880   5.306   5.617  10.965 -1.7923  1.6346  0.0612
73301SOL     OW31881   4.447  11.048   4.317 -0.4736 -0.5610  0.1254
73301SOL    HW131882   4.511  11.119   4.320 -0.1320 -0.7053 -2.0707
73301SOL    HW231883   4.366  11.088   4.350  0.1328  0.3580  0.5373
73302SOL     OW31884   1.109   7.914   5.262 -0.0938  0.4451  0.2647
73302SOL    HW131885   1.104   8.007   5.286 -0.9697 -0.2505  3.1855
73302SOL    HW231886   1.199   7.903   5.231  1.2017  1.6484  3.1757
73303SOL     OW31887   2.974   4.121   9.198  0.2645 -0.0164 -0.4136
73303SOL    HW131888   2.914   4.195   9.200  1.1269  0.6998  0.4828
73303SOL    HW231889   3.051   4.155   9.152  0.1118 -0.8200 -1.2731
73304SOL     OW31890   5.754   6.172  13.540  0.3079  0.2735 -0.6692
73304SOL    HW131891   5.713   6.245  13.494  1.0104 -0.2287 -2.1370
73304SOL    HW231892   5.682   6.126  13.582 -0.1156  1.9841  0.5855
73305SOL     OW31893   7.419   1.503  10.861  0.1143  0.1065 -0.3263
73305SOL    HW131894   7.351   1.453  10.907 -0.4019 -0.8499 -2.0178
73305SOL    HW231895   7.499   1.488  10.911  0.1598 -3.1685 -1.1697
73306SOL     OW31896   6.747  12.244   9.621 -0.0701  0.0097  0.0501
73306SOL    HW131897   6.676  12.304   9.641  0.4838  0.8881 -0.5380
73306SOL    HW231898   6.779  12.272   9.535  0.9410 -0.4074  0.2753
73307SOL     OW31899   8.192   6.596   9.075 -0.5368 -0.7062  0.3133
73307SOL    HW131900   8.131   6.548   9.131  1.0828 -2.0436  1.0208
73307SOL    HW231901   8.275   6.550   9.085  0.1770 -0.0670 -2.0617
73308SOL     OW31902  11.359   6.156   4.498  0.4778  0.5933  0.3963
73308SOL    HW131903  11.389   6.086   4.440  1.3217  2.6315 -1.7748
73308SOL    HW231904  11.268   6.170   4.475  0.2412  0.0971  0.9952
73309SOL     OW31905   3.323   2.973   9.020 -0.2900  0.4108 -0.2399
73309SOL    HW131906   3.367   3.056   9.002  0.6234  0.1010  0.4866
73309SOL    HW231907   3.250   2.997   9.078 -0.9141  0.8834 -1.1933
73310SOL     OW31908  10.881  10.332  12.767 -0.0872 -0.4174 -0.1229
73310SOL    HW131909  10.863  10.322  12.861 -1.4262  0.3743 -0.2750
73310SOL    HW231910  10.891  10.242  12.735 -1.8486 -0.8222  0.3795
73311SOL     OW31911   2.185   3.067   0.710  0.2906  0.1889  0.4409
73311SOL    HW131912   2.148   3.077   0.622  2.7831 -1.3586 -0.8896
73311SOL    HW231913   2.161   3.148   0.755 -1.8077  0.6461 -1.3496
73312SOL     OW31914   1.104   3.564  10.254 -0.3360  0.0098  0.3643
73312SOL    HW131915   1.091   3.506  10.330  0.3452  0.2267  0.6571
73312SOL    HW231916   1.023   3.614  10.248 -1.3982 -1.7210 -0.5598
73313SOL     OW31917  11.856   6.877   1.981 -0.3156 -0.0686 -0.5565
73313SOL    HW131918  11.935   6.916   1.943  0.3380 -0.5180  0.2922
73313SOL    HW231919  11.860   6.900   2.074 -1.1584 -0.1396 -0.4984
73314SOL     OW31920  11.078   6.246  12.972  0.0547 -0.2530 -0.4226
73314SOL    HW131921  10.991   6.213  12.992  0.0087 -0.0037 -0.2011
73314SOL    HW231922  11.103   6.297  13.049  0.9177 -1.3408  0.0461
73315SOL     OW31923   4.358  12.527  10.575  0.2803 -0.6647 -0.3034
73315SOL    HW131924   4.385  12.605  10.526  0.6083 -1.6135 -1.6675
73315SOL    HW231925   4.401  12.454  10.530 -0.1032 -1.6576  0.8890
73316SOL     OW31926   6.025   3.863  12.255 -0.1613  0.1139  0.5517
73316SOL    HW131927   5.977   3.879  12.336 -1.7650 -1.0179 -0.1115
73316SOL    HW231928   6.087   3.935  12.249 -2.3269  2.1508  1.0686
73317SOL     OW31929   1.278   5.113   5.762 -0.3844  0.0915 -0.1475
73317SOL    HW131930   1.289   5.019   5.748 -1.4105  0.0825 -1.0081
73317SOL    HW231931   1.364   5.143   5.790 -0.4434 -1.3774  1.8259
73318SOL     OW31932   3.487   4.736   0.442 -0.4570  0.4010 -0.3936
73318SOL    HW131933   3.456   4.781   0.521 -1.1505 -0.6425 -0.0331
73318SOL    HW231934   3.580   4.755   0.438 -0.4485  0.6201  0.5842
73319SOL     OW31935   8.711   2.203  12.203  0.0724  0.0966  0.2226
73319SOL    HW131936   8.796   2.248  12.201  0.4570 -0.5981  0.5826
73319SOL    HW231937   8.709   2.160  12.288 -0.7987  0.3861  0.3584
73320SOL     OW31938   8.520  11.465   9.993  0.3309 -0.2577 -0.0261
73320SOL    HW131939   8.546  11.385  10.037  0.2263 -0.0131  0.4806
73320SOL    HW231940   8.445  11.497  10.043  1.0266  0.7202  0.4248
73321SOL     OW31941   9.920   5.986   3.042 -0.2332  0.1906  0.0121
73321SOL    HW131942   9.851   6.020   3.098 -0.1788  0.2439  0.0461
73321SOL    HW231943   9.973   5.930   3.099 -0.1877  0.2320  0.0119
73322SOL     OW31944  10.645   5.188   6.694 -0.3022  0.6639  0.3406
73322SOL    HW131945  10.621   5.144   6.775  0.6582 -0.5591 -0.0159
73322SOL    HW231946  10.738   5.207   6.703 -0.0480 -0.0128 -0.6970
73323SOL     OW31947   4.648  13.600  10.949  0.2671 -0.4284 -0.3941
73323SOL    HW131948   4.682  13.689  10.937  0.8408 -0.7353 -1.0943
73323SOL    HW231949   4.718  13.554  10.995 -0.6074 -0.1466  1.2994
73324SOL     OW31950   8.800   7.443   3.632 -0.1612  0.3502 -0.0312
73324SOL    HW131951   8.895   7.446   3.630 -0.1729  1.9918  0.5047
73324SOL    HW231952   8.773   7.503   3.562 -0.7290  2.6571  2.0158
73325SOL     OW31953   8.020   0.762   6.014  0.5825  0.3317 -0.2313
73325SOL    HW131954   8.096   0.703   6.016 -1.0221 -1.8586  1.2897
73325SOL    HW231955   7.985   0.752   5.925 -0.1049 -1.7424  0.2048
73326SOL     OW31956   3.081  12.407   0.359 -0.3692 -0.4738  0.4618
73326SOL    HW131957   3.045  12.318   0.353 -1.0065 -0.1504 -0.8557
73326SOL    HW231958   3.011  12.464   0.327  0.6229  0.3351 -0.3379
73327SOL     OW31959   1.970   8.502  12.113  0.1885 -0.5479 -0.0693
73327SOL    HW131960   2.005   8.590  12.122  0.7773 -0.9207  1.7670
73327SOL    HW231961   2.006   8.454  12.188 -2.0501 -1.7102  0.3538
73328SOL     OW31962   5.032   3.380   3.121  0.6413 -0.0754  0.5424
73328SOL    HW131963   4.949   3.399   3.077  0.0129  1.2454  2.1845
73328SOL    HW231964   5.006   3.335   3.202  1.5530 -0.0867  0.8345
73329SOL     OW31965   6.602   1.673   5.339  0.1368  0.2875 -0.5429
73329SOL    HW131966   6.607   1.747   5.399  1.6572  0.0022 -0.2870
73329SOL    HW231967   6.581   1.598   5.395 -0.8796  0.4236 -0.7282
73330SOL     OW31968   9.858   8.594  10.381  0.4558  0.0884 -0.6072
73330SOL    HW131969   9.845   8.590  10.475 -0.1471  0.8788 -0.6459
73330SOL    HW231970   9.775   8.561  10.344  0.9765 -0.9692 -0.8677
73331SOL     OW31971   5.420   8.609  11.527 -0.5207  0.2333 -0.4015
73331SOL    HW131972   5.387   8.598  11.438 -1.1112 -0.3575 -0.1140
73331SOL    HW231973   5.402   8.526  11.570 -1.4219  0.9505  0.6602
73332SOL     OW31974  12.511   3.729   0.860 -0.0361 -0.7533  0.4887
73332SOL    HW131975  12.582   3.685   0.907 -0.0530 -2.3006 -0.8275
73332SOL    HW231976  12.556   3.790   0.801  0.3045 -2.2109 -0.8281
73333SOL     OW31977   0.818   1.442  11.078 -0.2282  0.1593  0.1732
73333SOL    HW131978   0.804   1.532  11.051 -0.6894 -0.1613 -0.6970
73333SOL    HW231979   0.913   1.429  11.072 -0.1576  0.5884  0.3429
73334SOL     OW31980   3.101   5.867   1.042 -0.0416 -0.3258 -0.6676
73334SOL    HW131981   3.059   5.902   1.121 -1.1975  2.4857 -2.3423
73334SOL    HW231982   3.193   5.858   1.066 -0.3401  0.5674  0.9967
73335SOL     OW31983   9.602  13.884  11.753 -0.3852 -0.0983 -0.0901
73335SOL    HW131984   9.662  13.955  11.731  0.3071 -1.2827 -2.3165
73335SOL    HW231985   9.653  13.827  11.811 -1.3022  1.6367  2.6388
73336SOL     OW31986   1.122  12.528   9.487 -0.7490  0.6338  0.1502
73336SOL    HW131987   1.068  12.475   9.429 -2.3479 -0.9263  2.8501
73336SOL    HW231988   1.204  12.478   9.496 -0.6871  0.6431 -0.3219
73337SOL     OW31989   9.640   1.329   2.581 -0.3571 -0.7690 -0.4906
73337SOL    HW131990   9.655   1.332   2.486  1.2957  0.0528 -0.2305
73337SOL    HW231991   9.727   1.338   2.620 -1.1419  0.5581  1.1172
73338SOL     OW31992   8.980   4.740   5.796  0.6324 -0.2858 -0.1747
73338SOL    HW131993   8.888   4.769   5.799  0.5289 -0.6567  0.5813
73338SOL    HW231994   9.012   4.757   5.885  1.2349 -0.3544 -0.3788
73339SOL     OW31995   8.936  12.430   9.595  0.2979  0.2988 -0.4414
73339SOL    HW131996   8.854  12.405   9.638  0.6876  0.3464  0.3587
73339SOL    HW231997   9.000  12.430   9.666  1.3053 -1.1941 -1.2868
73340SOL     OW31998   0.119   9.260  11.319  0.5115  0.1646 -0.4373
73340SOL    HW131999   0.147   9.325  11.255  1.9754  2.0080  1.8835
73340SOL    HW232000   0.200   9.232  11.361 -0.5071  1.3157  2.5818
73341SOL     OW32001   6.606  13.588   5.808 -0.0096 -0.1867  0.4082
73341SOL    HW132002   6.527  13.605   5.757 -0.9840 -0.4158  1.7772
73341SOL    HW232003   6.669  13.653   5.777 -0.1950 -0.9603 -1.7752
73342SOL     OW32004   1.591   8.555   8.497  0.0483 -0.2475 -0.3835
73342SOL    HW132005   1.578   8.632   8.442  1.8336  0.0793 -0.3965
73342SOL    HW232006   1.613   8.591   8.583  2.3011 -0.6657 -0.7205
73343SOL     OW32007   8.735   9.227  11.917 -0.3364 -0.0506  0.6499
73343SOL    HW132008   8.650   9.186  11.903 -0.1372 -0.7424  1.3733
73343SOL    HW232009   8.779   9.222  11.832  0.2952 -2.8308  1.0532
73344SOL     OW32010   5.224  13.880   8.285 -0.4095 -0.4966 -0.0578
73344SOL    HW132011   5.143  13.926   8.263  0.3668  0.7453 -0.4606
73344SOL    HW232012   5.288  13.950   8.302  0.5386 -1.4391  0.4134
73345SOL     OW32013  12.016  13.305  13.491  0.4621  0.2644  0.3990
73345SOL    HW132014  12.003  13.239  13.558 -1.3762  1.1391  0.9502
73345SOL    HW232015  11.957  13.280  13.420  0.1024  1.0297  0.4127
73346SOL     OW32016  12.844  12.730   6.639 -0.0003 -0.1071 -0.2141
73346SOL    HW132017  12.846  12.758   6.731 -0.1691  1.8154 -0.7444
73346SOL    HW232018  12.932  12.749   6.606 -0.2034  0.0563 -0.6718
73347SOL     OW32019   2.597  12.291  13.140  0.2378  0.4881  0.2235
73347SOL    HW132020   2.639  12.315  13.223  0.1773  0.5856  0.2266
73347SOL    HW232021   2.504  12.293  13.159  0.2126  0.7693  0.0875
73348SOL     OW32022   3.026   6.236   1.359  0.1598  0.8649 -0.5758
73348SOL    HW132023   3.070   6.321   1.362 -0.3724  1.1227  0.4951
73348SOL    HW232024   2.990   6.230   1.271  1.2645  1.1981 -1.0600
73349SOL     OW32025   0.477   4.304   1.307  0.5064 -0.7683 -0.1089
73349SOL    HW132026   0.478   4.292   1.402  2.9193 -0.0374  0.0292
73349SOL    HW232027   0.569   4.293   1.281  0.2018  0.8864 -2.1130
73350SOL     OW32028   6.933   1.732   1.380 -0.2941 -0.0526  0.0691
73350SOL    HW132029   6.886   1.694   1.454  1.0648  0.7496  1.4036
73350SOL    HW232030   6.880   1.807   1.353  0.4468  1.2029  1.9391
73351SOL     OW32031   2.329   6.122   8.113 -0.0621 -0.0033 -0.2459
73351SOL    HW132032   2.422   6.108   8.097 -0.0208 -0.4819  0.3710
73351SOL    HW232033   2.315   6.092   8.203 -0.5381  1.3720  0.1648
73352SOL     OW32034   7.680   1.177   6.964 -0.4416 -0.0823 -0.0091
73352SOL    HW132035   7.686   1.090   7.004  0.4654  0.4161  1.0000
73352SOL    HW232036   7.695   1.237   7.036 -1.2469  0.9279 -0.6645
73353SOL     OW32037  13.615   2.580   6.764 -0.4747 -0.3236  0.2208
73353SOL    HW132038  13.694   2.576   6.710 -0.1755  0.6042  0.5725
73353SOL    HW232039  13.626   2.509   6.828  0.1430 -0.1007  0.3659
73354SOL     OW32040   7.865   2.675  13.300  0.5356 -0.3603  0.0079
73354SOL    HW132041   7.771   2.680  13.317  0.1925  1.7281 -2.0876
73354SOL    HW232042   7.874   2.602  13.238 -0.0476  0.8364 -1.5345
73355SOL     OW32043   7.602   4.199  10.356  0.4469 -0.6151  0.0593
73355SOL    HW132044   7.594   4.224  10.448  0.0682  0.2195 -0.1875
73355SOL    HW232045   7.512   4.186  10.326  0.5671 -0.8901 -0.1963
73356SOL     OW32046   9.218   2.466   3.618 -0.1663  0.0136  0.1009
73356SOL    HW132047   9.177   2.421   3.544  0.6632 -1.0564  0.2623
73356SOL    HW232048   9.160   2.539   3.637 -2.1358 -1.5627  0.4750
73357SOL     OW32049   2.595   9.565   5.737  0.6170 -0.1357 -0.1863
73357SOL    HW132050   2.584   9.563   5.642  0.3817 -0.6196 -0.1522
73357SOL    HW232051   2.540   9.493   5.769  2.8969 -1.8647  0.0982
73358SOL     OW32052   2.681   3.720  10.901  0.2370 -0.0781 -0.4081
73358SOL    HW132053   2.621   3.652  10.871  0.0959 -1.3490  2.4444
73358SOL    HW232054   2.746   3.726  10.831 -0.4933 -2.1936 -1.3733
73359SOL     OW32055   5.321   0.006   9.417 -0.2825 -0.2045  0.0914
73359SOL    HW132056   5.333  -0.074   9.468 -2.8509  0.5769  2.1020
73359SOL    HW232057   5.276  -0.022   9.337 -2.6448 -0.6585  1.5092
73360SOL     OW32058  11.257   0.517   5.807  0.3508 -0.2964  0.2788
73360SOL    HW132059  11.217   0.486   5.888 -0.9587 -0.6725 -0.4814
73360SOL    HW232060  11.349   0.493   5.815  0.2893 -0.1448  1.7341
73361SOL     OW32061   2.223  11.996   0.055  0.0654 -0.3760  0.3150
73361SOL    HW132062   2.270  11.928   0.007  0.1498 -0.4616  0.5173
73361SOL    HW232063   2.170  11.948   0.119  0.3701 -0.2383  0.6751
73362SOL     OW32064   1.558   1.692  10.576 -0.4004  0.1544  0.2243
73362SOL    HW132065   1.634   1.638  10.553  0.7872  0.9252  2.0912
73362SOL    HW232066   1.572   1.716  10.667 -2.8602  0.4612  0.5963
73363SOL     OW32067   2.864   0.266   3.293  0.2825  0.4753 -0.6835
73363SOL    HW132068   2.918   0.189   3.307  1.4315  1.2063 -0.9607
73363SOL    HW232069   2.886   0.325   3.365  0.5616  1.1569 -1.3150
73364SOL     OW32070   2.466   0.103  13.892 -0.0836 -0.2703  0.0162
73364SOL    HW132071   2.522   0.115  13.815 -2.0712 -1.4682 -1.7372
73364SOL    HW232072   2.380   0.136  13.865 -1.1548 -1.8863  1.2347
73365SOL     OW32073  10.650   5.787  10.758 -0.4969 -0.3876 -0.5491
73365SOL    HW132074  10.661   5.882  10.766  2.3306 -0.4879 -1.9597
73365SOL    HW232075  10.615   5.759  10.843  1.3430  1.5908  0.9508
73366SOL     OW32076   1.774  14.007   5.690  0.5997  0.6254 -0.2655
73366SOL    HW132077   1.797  13.990   5.599  0.1510  0.3402 -0.3293
73366SOL    HW232078   1.798  14.098   5.704  1.1386  0.5258 -0.5204
73367SOL     OW32079  11.205  12.771   8.552  0.0863 -0.0574  0.2409
73367SOL    HW132080  11.263  12.786   8.478 -2.7930  0.4412 -2.1172
73367SOL    HW232081  11.174  12.681   8.540 -1.1713  0.3577  0.1679
73368SOL     OW32082   4.839  11.570   4.205 -0.3581 -0.1544  0.1088
73368SOL    HW132083   4.771  11.513   4.171  0.5378  0.4555 -3.0059
73368SOL    HW232084   4.914  11.555   4.148  0.7284  2.2422  0.7746
73369SOL     OW32085   2.263   2.922   7.064 -0.4623  0.5426  0.1050
73369SOL    HW132086   2.318   2.845   7.079 -0.3182  0.6405  0.0799
73369SOL    HW232087   2.325   2.994   7.053 -0.5058  0.2911 -2.1119
73370SOL     OW32088  12.352  11.346  11.772  0.1118  0.1760 -0.0493
73370SOL    HW132089  12.412  11.305  11.709 -0.4553 -0.3360 -0.2694
73370SOL    HW232090  12.406  11.410  11.818  0.8696 -0.3769 -0.1325
73371SOL     OW32091   3.042   6.197  11.841  0.3285  0.7051 -0.6430
73371SOL    HW132092   3.010   6.231  11.924  0.9468 -1.0075  0.3510
73371SOL    HW232093   3.135   6.221  11.838  0.2575  0.9495 -0.9425
73372SOL     OW32094   3.511   3.775  12.721 -0.7249  0.3268 -0.4184
73372SOL    HW132095   3.544   3.864  12.732  1.4185 -0.3750 -0.7150
73372SOL    HW232096   3.497   3.744  12.810 -0.0147  0.4670 -0.2495
73373SOL     OW32097   9.518  10.077  10.174  0.2044  0.1691 -0.0947
73373SOL    HW132098   9.468  10.087  10.255  0.0564  1.4122 -0.3304
73373SOL    HW232099   9.599  10.033  10.201 -0.7838 -1.4952  0.3579
73374SOL     OW32100   2.526   1.548   3.362  0.5789  0.0163 -0.2468
73374SOL    HW132101   2.542   1.475   3.302  0.4009 -0.1413 -0.1040
73374SOL    HW232102   2.468   1.606   3.314  0.1375 -0.2896 -0.0956
73375SOL     OW32103   8.034   9.975  13.602  0.2754 -0.7158  0.5386
73375SOL    HW132104   7.952   9.930  13.585  0.8024 -2.1585  1.5764
73375SOL    HW232105   8.022  10.016  13.688  0.4513 -0.4678  0.4464
73376SOL     OW32106   8.414   7.727   7.245 -0.2693  0.0791  0.2343
73376SOL    HW132107   8.357   7.694   7.314  0.3938 -0.7771  0.3858
73376SOL    HW232108   8.490   7.668   7.245 -0.0783  0.2878 -0.9699
73377SOL     OW32109   0.505   6.901   7.874 -0.5236 -0.3332  0.3058
73377SOL    HW132110   0.562   6.942   7.809 -0.5450  0.1245  0.5739
73377SOL    HW232111   0.524   6.807   7.866 -0.1417 -0.2343  0.0058
73378SOL     OW32112   8.773   2.357   0.259 -0.1291 -0.0347 -0.2406
73378SOL    HW132113   8.861   2.321   0.265  0.0119  0.2649 -0.4662
73378SOL    HW232114   8.778   2.422   0.188 -0.2912  0.6589  0.3686
73379SOL     OW32115   1.308   0.751  10.593  0.0595  0.2261  0.2785
73379SOL    HW132116   1.286   0.772  10.502  0.9392  0.1494  0.0366
73379SOL    HW232117   1.254   0.810  10.645 -1.2874 -0.4951 -0.2499
73380SOL     OW32118   0.209   2.466   1.060  0.1653  0.4674  0.0909
73380SOL    HW132119   0.192   2.559   1.050 -0.4678  0.3980  0.4644
73380SOL    HW232120   0.304   2.459   1.070  0.3115  0.9883 -0.7961
73381SOL     OW32121   3.706  10.926   8.159  0.5981 -0.0442  0.5803
73381SOL    HW132122   3.743  10.970   8.082  1.5984 -0.8603  0.5661
73381SOL    HW232123   3.665  10.847   8.125  0.5351 -0.1171  0.8211
73382SOL     OW32124   0.238   8.507   7.816 -0.2046 -0.5928 -0.7745
73382SOL    HW132125   0.208   8.558   7.891 -0.8172  0.0220 -1.4238
73382SOL    HW232126   0.209   8.557   7.740 -1.0355 -2.0153 -1.4378
73383SOL     OW32127   0.898  13.360   8.411 -0.1318 -0.4656  0.0823
73383SOL    HW132128   0.917  13.439   8.462  0.4982 -0.8743  0.5014
73383SOL    HW232129   0.855  13.392   8.332 -0.4980  0.2366  0.5539
73384SOL     OW32130   1.073   9.617   3.507 -0.2149 -0.0605  0.0448
73384SOL    HW132131   1.001   9.670   3.472  0.8431 -1.0504 -4.2558
73384SOL    HW232132   1.032   9.535   3.534 -0.9008 -0.3062 -1.5990
73385SOL     OW32133   7.576   0.054   2.873 -0.4175 -0.3527 -0.0662
73385SOL    HW132134   7.648   0.005   2.914  0.8373  0.3194 -1.3667
73385SOL    HW232135   7.556   0.124   2.934 -0.2550 -0.7825  0.4905
73386SOL     OW32136   2.706  13.887   7.095 -0.1915 -0.3572  0.4114
73386SOL    HW132137   2.691  13.981   7.104 -0.2616 -0.2491 -0.6624
73386SOL    HW232138   2.746  13.861   7.178  1.9540  1.0310 -0.1194
73387SOL     OW32139   1.938   9.292   2.024  0.4508  0.0287  0.0522
73387SOL    HW132140   1.863   9.344   2.054  0.0338 -0.0254 -0.8845
73387SOL    HW232141   1.940   9.304   1.929  1.8790  0.3516  0.0953
73388SOL     OW32142   8.564   8.371  10.758  0.1218  0.0996 -0.5594
73388SOL    HW132143   8.629   8.309  10.792  1.0378  2.2923  2.0781
73388SOL    HW232144   8.483   8.321  10.755  1.0721 -1.5748  0.1995
73389SOL     OW32145   5.840  13.951  12.014 -0.0289 -0.5906 -0.1654
73389SOL    HW132146   5.826  13.944  11.919  2.0169 -0.5590 -0.5118
73389SOL    HW232147   5.791  13.877  12.050 -0.1888 -1.0808 -1.3263
73390SOL     OW32148   5.761   9.920   7.819 -0.1401  0.2676 -0.5602
73390SOL    HW132149   5.822   9.875   7.877  0.6149  1.0552 -0.7207
73390SOL    HW232150   5.788  10.012   7.822 -0.1951  0.3572 -2.0128
73391SOL     OW32151  13.274  10.612   5.104 -0.3344  0.2368 -1.0009
73391SOL    HW132152  13.260  10.703   5.079 -1.7027  0.4733  0.4819
73391SOL    HW232153  13.190  10.569   5.086 -0.4779 -0.1760  0.5535
73392SOL     OW32154  10.708  12.195  13.619  0.3146  0.3864 -0.4097
73392SOL    HW132155  10.773  12.254  13.580  2.2437 -2.7689 -2.3629
73392SOL    HW232156  10.758  12.142  13.681 -1.2391  0.3695  0.8955
73393SOL     OW32157   1.454   4.575  13.878 -0.1685 -0.4600 -0.9308
73393SOL    HW132158   1.478   4.607  13.965 -0.1736  1.7381 -1.6707
73393SOL    HW232159   1.497   4.489  13.871 -0.1743 -0.6871  1.2109
73394SOL     OW32160  13.765   2.637   9.781 -0.3895 -0.6128  0.2525
73394SOL    HW132161  13.855   2.619   9.807  0.6024  0.9140 -1.8373
73394SOL    HW232162  13.765   2.627   9.686 -2.2363  0.2024  0.1210
73395SOL     OW32163   0.622   1.687   2.682  0.5392 -0.4303  0.5019
73395SOL    HW132164   0.673   1.752   2.732 -2.0241  1.9722  0.2346
73395SOL    HW232165   0.548   1.666   2.739 -0.4644 -0.5077 -0.7846
73396SOL     OW32166  10.123   1.817   9.551 -0.2426  0.2563 -0.3030
73396SOL    HW132167  10.100   1.905   9.580  0.6273  0.2357  0.5071
73396SOL    HW232168  10.199   1.828   9.494  2.2484 -0.1746  2.6691
73397SOL     OW32169  12.114  11.988   4.899  0.2754  0.4130 -0.3136
73397SOL    HW132170  12.120  11.994   4.804 -1.5673  1.8330 -0.3972
73397SOL    HW232171  12.061  12.064   4.925  0.5222 -0.0723  1.8269
73398SOL     OW32172   2.984   5.847   9.372  0.5462  0.2977  0.4999
73398SOL    HW132173   2.913   5.912   9.380 -1.0862 -1.0866 -1.5011
73398SOL    HW232174   3.064   5.899   9.365 -0.5626  2.0481  0.2415
73399SOL     OW32175   4.786   1.419   9.108  0.0570 -0.2904  0.2804
73399SOL    HW132176   4.742   1.334   9.098 -0.6906  0.0191  0.7998
73399SOL    HW232177   4.873   1.406   9.070 -0.7720 -0.6783 -1.5944
73400SOL     OW32178   9.141  13.615   1.044  0.1371 -0.6327 -0.4786
73400SOL    HW132179   9.113  13.524   1.057  0.0093 -0.5470 -0.1684
73400SOL    HW232180   9.088  13.666   1.105  0.6202 -0.4137 -0.2443
73401SOL     OW32181   4.896   1.803  12.197  0.1273 -0.2726 -0.3509
73401SOL    HW132182   4.870   1.711  12.204 -2.1696  0.3504  0.1336
73401SOL    HW232183   4.813   1.851  12.188  1.0391  1.9362  1.7493
73402SOL     OW32184  12.441   1.667  10.407  0.5661  0.3225  0.4811
73402SOL    HW132185  12.509   1.710  10.355 -0.2429  1.2064  0.1357
73402SOL    HW232186  12.485   1.644  10.489  1.7887 -0.8529 -0.4444
73403SOL     OW32187   0.094   9.078   1.030  0.3848  0.0631  0.1665
73403SOL    HW132188   0.175   9.033   1.009  0.0373 -1.4725  1.8486
73403SOL    HW232189   0.120   9.169   1.046  1.7684 -0.3942  0.6112
73404SOL     OW32190  11.691   9.776   6.859  0.2041  0.5393  0.3826
73404SOL    HW132191  11.713   9.687   6.885  0.2884  0.6833  0.8136
73404SOL    HW232192  11.603   9.768   6.820  0.0518  0.3264  0.7605
73405SOL     OW32193   5.796   5.367   1.405 -0.3810 -0.5589 -0.3110
73405SOL    HW132194   5.730   5.405   1.347  1.1090  1.2685 -0.9315
73405SOL    HW232195   5.816   5.282   1.366 -0.2230  0.1490 -1.8473
73406SOL     OW32196   5.185   3.448   7.806 -0.0321  0.3713  0.1386
73406SOL    HW132197   5.096   3.429   7.836 -0.2189  2.1974  0.9148
73406SOL    HW232198   5.213   3.522   7.860  1.8277  0.0904 -0.3583
73407SOL     OW32199   9.962   2.043   1.551 -0.2408 -0.2000 -0.1536
73407SOL    HW132200   9.941   2.133   1.575  0.8998 -0.0575  0.3675
73407SOL    HW232201   9.958   1.994   1.633  1.2407 -0.1934 -0.0564
73408SOL     OW32202   0.878   4.736   7.397 -0.4528 -0.6455 -0.0591
73408SOL    HW132203   0.809   4.744   7.462 -0.0618 -0.9963  0.4052
73408SOL    HW232204   0.851   4.795   7.326 -2.8714 -3.0736 -1.3566
73409SOL     OW32205   0.721   3.749  12.479 -0.1214 -0.3949 -0.1180
73409SOL    HW132206   0.655   3.791  12.534 -0.5438 -0.2238 -0.7376
73409SOL    HW232207   0.741   3.667  12.524  0.6006  0.3837  1.0166
73410SOL     OW32208   2.959   4.827  10.760  0.3925 -0.0263  0.1198
73410SOL    HW132209   2.986   4.831  10.852  0.6461  0.7268  0.0191
73410SOL    HW232210   2.901   4.751  10.755 -1.0643  0.9394  1.2933
73411SOL     OW32211   7.014   6.595  11.303 -0.7542  0.2694  0.2341
73411SOL    HW132212   7.016   6.670  11.245  1.6974  0.3718  0.3386
73411SOL    HW232213   7.059   6.624  11.382 -2.3246 -0.4536  1.4678
73412SOL     OW32214  12.467   2.616   9.604 -0.2069 -0.4136  0.3589
73412SOL    HW132215  12.475   2.628   9.699  0.8167 -0.7807  0.3367
73412SOL    HW232216  12.540   2.666   9.568 -1.2144  0.5990 -0.3245
73413SOL     OW32217   3.398  10.342   8.242 -0.4258  0.6304  0.6221
73413SOL    HW132218   3.404  10.437   8.239 -0.1320  0.7515  2.9492
73413SOL    HW232219   3.304  10.323   8.246 -0.5289  0.7357 -0.9067
73414SOL     OW32220   1.479  13.739   5.074  0.4128  0.4992  0.1329
73414SOL    HW132221   1.460  13.680   5.148 -2.1266  1.0832  0.0478
73414SOL    HW232222   1.513  13.818   5.115 -0.8314  0.7658  0.7018
73415SOL     OW32223  13.836   9.787   2.885 -0.4381 -0.2178 -0.4599
73415SOL    HW132224  13.886   9.822   2.958 -1.3068 -0.7867  0.4421
73415SOL    HW232225  13.819   9.862   2.829  1.5867 -0.0472 -0.9243
73416SOL     OW32226  11.269  13.774   7.782  0.0690  0.6129  0.8971
73416SOL    HW132227  11.311  13.709   7.838 -0.3136 -0.1825  0.2829
73416SOL    HW232228  11.342  13.822   7.741  0.3483  0.8370  1.6423
73417SOL     OW32229   1.364   5.441   3.865  0.3045  0.8400 -0.2055
73417SOL    HW132230   1.451   5.403   3.871  0.9883  2.4388  1.0936
73417SOL    HW232231   1.320   5.412   3.945 -0.9862 -1.2701 -1.5960
73418SOL     OW32232   6.942  10.410   9.410 -0.4444 -0.0920 -0.0929
73418SOL    HW132233   6.972  10.321   9.426  0.1672  0.2053  0.5052
73418SOL    HW232234   6.884  10.429   9.484 -0.5373  0.0222 -0.1951
73419SOL     OW32235   9.986   0.366   0.155  0.1469 -0.1254 -0.1303
73419SOL    HW132236   9.940   0.424   0.215  0.5242  0.2230 -0.1764
73419SOL    HW232237  10.017   0.294   0.210 -1.5553 -1.0346 -0.3106
73420SOL     OW32238  13.999   5.927  11.276  0.1952 -0.0020  0.2187
73420SOL    HW132239  14.009   5.835  11.251  0.6561  0.0402  0.2437
73420SOL    HW232240  14.081   5.968  11.249  0.7152  0.0474  1.8208
73421SOL     OW32241   3.091  13.124   2.547 -0.2242  0.2221 -0.3850
73421SOL    HW132242   3.122  13.156   2.462  1.0803 -1.2804 -0.4992
73421SOL    HW232243   2.999  13.102   2.531  0.1476 -0.5856 -1.5763
73422SOL     OW32244   5.451   0.024  10.489 -0.3230 -0.0968  0.4568
73422SOL    HW132245   5.366   0.063  10.506 -1.1183 -0.8269 -1.5421
73422SOL    HW232246   5.451  -0.057  10.540 -2.1166 -1.5887 -1.6841
73423SOL     OW32247   6.336   0.409  13.098  0.4571 -0.0805 -0.3964
73423SOL    HW132248   6.363   0.356  13.173  0.5683 -0.3278 -0.6096
73423SOL    HW232249   6.364   0.359  13.022 -0.6042 -0.3667 -0.6267
73424SOL     OW32250   8.201  10.364  11.049 -0.1379 -0.1264 -0.0087
73424SOL    HW132251   8.229  10.282  11.008 -0.5388 -1.1969  1.7458
73424SOL    HW232252   8.136  10.337  11.114  0.7340  1.4016  1.5861
73425SOL     OW32253   7.219   9.566   4.381  0.3066 -0.3280 -0.2571
73425SOL    HW132254   7.195   9.490   4.328  1.5790 -0.1095 -1.1852
73425SOL    HW232255   7.283   9.532   4.444 -1.8724 -0.7941  1.8428
73426SOL     OW32256   9.363   9.884  11.072  0.4445 -0.2394  0.1502
73426SOL    HW132257   9.422   9.816  11.104  1.2840  0.4118  0.0444
73426SOL    HW232258   9.350   9.942  11.147 -0.2071 -0.4682  0.2189
73427SOL     OW32259   2.606   9.142   5.179 -0.0575  0.1884 -0.6851
73427SOL    HW132260   2.575   9.230   5.200  0.5119  0.1770  0.2610
73427SOL    HW232261   2.529   9.096   5.146  0.1627  1.7740 -3.6891
73428SOL     OW32262   9.444   0.240   4.761 -0.2618  0.9109 -0.1470
73428SOL    HW132263   9.453   0.146   4.746 -1.8865  0.2483  2.4149
73428SOL    HW232264   9.495   0.257   4.841 -0.3169  2.1412 -0.3507
73429SOL     OW32265   6.563   0.769   3.642 -0.5190 -0.6002  0.3303
73429SOL    HW132266   6.483   0.722   3.620 -0.1334 -0.8671 -0.5511
73429SOL    HW232267   6.550   0.857   3.605 -1.1225 -0.0771  1.7296
73430SOL     OW32268   5.524   4.483   7.003 -0.1244 -0.2299  0.0916
73430SOL    HW132269   5.603   4.453   6.957  1.0312 -0.6145  2.1635
73430SOL    HW232270   5.454   4.476   6.939  0.5960 -4.6229 -0.5053
73431SOL     OW32271   9.102  10.775   1.345  0.2258  0.5906 -0.1290
73431SOL    HW132272   9.051  10.820   1.278  2.1223  1.1276 -1.2821
73431SOL    HW232273   9.042  10.710   1.381 -0.7648  0.0400 -2.5734
73432SOL     OW32274  13.931  12.220  13.917  0.1598  0.5308  0.4068
73432SOL    HW132275  13.984  12.223  13.837 -1.0437  0.3382 -0.4247
73432SOL    HW232276  13.841  12.225  13.886 -0.3094  1.2003  1.8174
73433SOL     OW32277  13.054   0.246  12.710 -0.1302  0.8607 -0.3237
73433SOL    HW132278  13.006   0.169  12.678  1.7872  0.1975 -1.8012
73433SOL    HW232279  13.008   0.320  12.670 -1.1144  0.4009 -0.0851
73434SOL     OW32280   0.231  11.842   5.703  0.5045 -0.6824 -0.1986
73434SOL    HW132281   0.167  11.779   5.669  0.3166 -1.0819  0.8693
73434SOL    HW232282   0.316  11.799   5.689  0.3042 -1.8881  1.8644
73435SOL     OW32283   3.788  11.618  12.079  0.3111  0.1693 -0.1954
73435SOL    HW132284   3.768  11.708  12.053  1.3951 -0.3651 -3.3907
73435SOL    HW232285   3.708  11.588  12.124  0.1785  2.8412  1.5855
73436SOL     OW32286   3.207  10.741   2.119 -0.0350 -0.0654 -0.1963
73436SOL    HW132287   3.128  10.688   2.114  0.1179 -0.2190 -1.2380
73436SOL    HW232288   3.215  10.765   2.211 -0.3823 -1.4440  0.2124
73437SOL     OW32289   1.340  10.136   4.195 -0.3010  0.1163  1.1308
73437SOL    HW132290   1.364  10.219   4.153  1.1077  0.8102  3.1289
73437SOL    HW232291   1.266  10.158   4.251 -1.6129 -0.6083 -0.2636
73438SOL     OW32292   8.853   5.800   2.981 -0.0572  0.0536 -0.1099
73438SOL    HW132293   8.781   5.847   2.940 -0.8673 -1.4669 -0.5327
73438SOL    HW232294   8.916   5.868   3.006 -1.1656  1.3244 -0.6552
73439SOL     OW32295   7.634   2.695   7.570  0.2992  0.8066  0.0824
73439SOL    HW132296   7.558   2.673   7.516  0.0151  1.0982  0.3548
73439SOL    HW232297   7.622   2.644   7.651  0.2740  1.0215  0.2162
73440SOL     OW32298   6.926   9.240   2.093  1.3004 -0.8380  0.1572
73440SOL    HW132299   7.008   9.273   2.129  0.9930 -1.7337  1.7761
73440SOL    HW232300   6.914   9.154   2.133 -0.0855 -1.0289 -0.5757
73441SOL     OW32301   3.025   1.929   1.593 -0.2871  0.5101 -0.0546
73441SOL    HW132302   3.067   1.911   1.510  1.1643  0.6415  0.6255
73441SOL    HW232303   2.972   2.007   1.577 -1.0717 -0.2173 -1.1685
73442SOL     OW32304   0.762   9.082  13.178  1.0952  0.3546  0.3795
73442SOL    HW132305   0.714   9.106  13.099  1.2937  0.4964  0.3010
73442SOL    HW232306   0.769   9.164  13.227  2.3185  0.6051 -0.1781
73443SOL     OW32307   1.600   8.841  12.563 -0.0636  0.1569 -0.0289
73443SOL    HW132308   1.693   8.827  12.577 -0.2347 -0.1510  0.9354
73443SOL    HW232309   1.563   8.848  12.652 -0.8562  0.9461 -0.4047
73444SOL     OW32310  10.602   0.656   2.509 -0.3911 -0.7205  0.2059
73444SOL    HW132311  10.540   0.602   2.560 -3.5494 -0.6637 -3.1310
73444SOL    HW232312  10.655   0.592   2.461 -1.2240 -0.8789 -0.5347
73445SOL     OW32313   5.063   8.049  12.825 -0.3566 -0.1926  0.1572
73445SOL    HW132314   5.096   7.970  12.783 -0.2777 -0.0416 -0.0701
73445SOL    HW232315   5.089   8.120  12.765  0.2618  0.0875  0.7440
73446SOL     OW32316   3.733   2.625  14.009 -0.3472  0.0578  0.3449
73446SOL    HW132317   3.718   2.555  14.071  0.2829  1.6285  2.3884
73446SOL    HW232318   3.817   2.663  14.035  1.1523 -0.6062 -2.9100
73447SOL     OW32319   0.317   8.783   4.183  0.1039 -0.0231  0.3644
73447SOL    HW132320   0.240   8.759   4.235 -0.0517 -0.1175  0.0905
73447SOL    HW232321   0.351   8.862   4.225 -0.6501  0.5202 -0.0324
73448SOL     OW32322   8.219   7.667  13.455  0.7242  0.0927 -0.2362
73448SOL    HW132323   8.198   7.710  13.372  0.5361 -1.2030 -0.8855
73448SOL    HW232324   8.135   7.645  13.494  0.8144 -0.1381 -0.1650
73449SOL     OW32325   7.149   2.256  11.158  0.1759  0.4445 -0.0728
73449SOL    HW132326   7.211   2.183  11.168 -0.3351  0.2892  2.6324
73449SOL    HW232327   7.192   2.315  11.097  2.7929  0.0922  1.2937
73450SOL     OW32328  10.132   5.002  11.651 -0.2626 -0.5547 -0.2801
73450SOL    HW132329  10.223   4.974  11.645  0.2439  0.9983 -0.3002
73450SOL    HW232330  10.108   4.990  11.743  0.9257  1.7224  0.3976
73451SOL     OW32331   8.685   7.364   3.111 -0.8736 -0.1086 -0.0124
73451SOL    HW132332   8.747   7.379   3.040  0.1666  1.0443  1.0975
73451SOL    HW232333   8.601   7.352   3.068 -0.3450  1.0468 -1.4044
73452SOL     OW32334   8.971   0.312   0.594 -0.0403  0.1430  0.9235
73452SOL    HW132335   8.960   0.276   0.507  0.0758  0.6410  0.6959
73452SOL    HW232336   8.915   0.389   0.596  0.6067  0.6291  0.9840
73453SOL     OW32337   4.299  10.189   0.254 -0.1692 -0.2058  0.5305
73453SOL    HW132338   4.304  10.262   0.193 -0.7112  1.1713  2.0354
73453SOL    HW232339   4.248  10.122   0.208 -1.8733  1.3657 -0.0187
73454SOL     OW32340   8.430   1.908   4.687  0.2461  1.4049  0.2896
73454SOL    HW132341   8.416   1.861   4.769  2.4406  0.9860  0.4872
73454SOL    HW232342   8.397   1.996   4.703  1.0370  1.4573  1.7908
73455SOL     OW32343   6.650  12.393  13.336 -0.0315 -0.0600 -0.1898
73455SOL    HW132344   6.724  12.449  13.313 -0.7455  0.7416 -0.6164
73455SOL    HW232345   6.574  12.450  13.326 -0.7087 -0.8841  0.1836
73456SOL     OW32346   8.557  10.524   0.408 -0.0944  0.3447 -0.1498
73456SOL    HW132347   8.575  10.614   0.436  2.0019 -0.0956  0.1015
73456SOL    HW232348   8.615  10.510   0.332  1.3008 -1.4276  1.1356
73457SOL     OW32349   6.351   8.579   6.454 -0.0771  0.3856  0.4108
73457SOL    HW132350   6.274   8.619   6.413 -0.0560  1.9487  1.7571
73457SOL    HW232351   6.353   8.490   6.420 -0.3596  1.3642 -2.4919
73458SOL     OW32352   0.544   2.353   2.634 -0.4902  0.2420  0.0626
73458SOL    HW132353   0.579   2.275   2.678 -0.1948 -0.0450 -0.6703
73458SOL    HW232354   0.604   2.423   2.659  1.7976 -0.5739 -2.6170
73459SOL     OW32355   6.843   5.881   8.940  0.2412 -0.5475  0.1218
73459SOL    HW132356   6.923   5.868   8.889  1.5661 -2.1701  2.4539
73459SOL    HW232357   6.865   5.853   9.028 -2.0644  1.7574  1.5854
73460SOL     OW32358   8.259   8.735  13.454 -0.2706  0.3941  0.0780
73460SOL    HW132359   8.343   8.772  13.428 -0.0265  0.3480  0.7692
73460SOL    HW232360   8.228   8.793  13.524 -0.9662  0.5917 -0.3873
73461SOL     OW32361   6.392  11.783  10.133 -0.2199 -0.6369  0.2964
73461SOL    HW132362   6.302  11.781  10.166 -0.6135 -1.1227 -0.7596
73461SOL    HW232363   6.396  11.862  10.079 -0.5406 -1.5177 -1.0484
73462SOL     OW32364  13.179   4.178   0.618 -0.0445 -0.0556  0.5127
73462SOL    HW132365  13.225   4.121   0.556  1.5815 -0.6770  2.1850
73462SOL    HW232366  13.242   4.194   0.687 -1.8180  0.4744  2.1035
73463SOL     OW32367   0.470   5.652   3.598 -0.6404 -0.5431  0.1432
73463SOL    HW132368   0.552   5.671   3.644  0.5751 -0.2004 -1.9908
73463SOL    HW232369   0.417   5.731   3.610  0.1883  0.0690 -0.1328
73464SOL     OW32370  12.633  12.586   0.976  0.1873  0.3129 -0.0865
73464SOL    HW132371  12.674  12.575   1.061  1.3513 -2.9156 -0.9004
73464SOL    HW232372  12.547  12.544   0.984  0.6591 -0.8256 -0.6623
73465SOL     OW32373  13.549   7.459   6.881 -0.2639  0.1725 -0.2298
73465SOL    HW132374  13.523   7.367   6.880  1.5877 -0.4789  1.6520
73465SOL    HW232375  13.600   7.471   6.801  0.5597 -0.8221  0.1284
73466SOL     OW32376  11.810   0.823  12.205 -0.1601 -0.4883 -0.2348
73466SOL    HW132377  11.904   0.824  12.190  0.1008 -0.7235  1.2542
73466SOL    HW232378  11.789   0.732  12.226 -0.7602 -0.4852 -0.7952
73467SOL     OW32379   8.656   4.013  10.655  0.2104 -0.3526 -0.0594
73467SOL    HW132380   8.711   4.035  10.580  0.4754 -0.6806  0.0395
73467SOL    HW232381   8.696   3.936  10.693  1.0103  0.7206  1.3912
73468SOL     OW32382   2.113   2.413  11.202 -0.1990  0.9578  0.0094
73468SOL    HW132383   2.038   2.467  11.226 -1.4827 -0.5578 -0.4918
73468SOL    HW232384   2.093   2.326  11.234  1.4127  0.5260 -0.0343
73469SOL     OW32385   0.261   6.762   4.587 -0.0763 -0.7106  0.2116
73469SOL    HW132386   0.280   6.838   4.642 -1.5639  0.3226 -0.6377
73469SOL    HW232387   0.323   6.769   4.514 -0.5554  0.0069 -0.1392
73470SOL     OW32388   4.202  11.426  10.300  0.1157  0.3471  0.5423
73470SOL    HW132389   4.264  11.362  10.335  1.4314 -0.1228 -2.3897
73470SOL    HW232390   4.230  11.509  10.339  0.1916 -0.3792  2.1319
73471SOL     OW32391  13.527   9.695  11.609  0.3064 -0.3743 -0.0776
73471SOL    HW132392  13.568   9.632  11.669 -0.4558 -1.8820 -1.0715
73471SOL    HW232393  13.444   9.717  11.652  0.1973 -0.7034 -0.1167
73472SOL     OW32394   9.535  10.270   2.884 -0.2943  0.3041 -0.0599
73472SOL    HW132395   9.587  10.196   2.914 -0.8980  0.6293  2.0169
73472SOL    HW232396   9.586  10.347   2.907 -1.5419  0.6245  1.9300
73473SOL     OW32397   4.389  11.310   4.489 -0.1724  0.0582  0.0746
73473SOL    HW132398   4.463  11.310   4.428 -0.3112 -1.1074 -0.1233
73473SOL    HW232399   4.391  11.397   4.529  0.7261  0.3790 -0.6178
73474SOL     OW32400  13.879   0.103   6.090 -0.1827 -0.3739 -0.4282
73474SOL    HW132401  13.971   0.077   6.089  0.0363  0.3640 -1.1685
73474SOL    HW232402  13.853   0.096   6.182  0.8999  0.3768 -0.0373
73475SOL     OW32403   8.671  11.907   4.094 -0.7047 -0.2646 -0.0291
73475SOL    HW132404   8.734  11.934   4.161  0.1480  0.4726 -1.0785
73475SOL    HW232405   8.631  11.827   4.128  0.9530 -0.8731  0.5792
73476SOL     OW32406   2.356   7.934  13.507  0.3003  0.5821 -0.2502
73476SOL    HW132407   2.333   7.841  13.502  0.8376  0.4022  0.4126
73476SOL    HW232408   2.435   7.942  13.455 -1.1319  1.1809 -2.4473
73477SOL     OW32409  10.940   1.487  10.929  0.1518  0.3830 -0.1376
73477SOL    HW132410  11.028   1.524  10.934 -0.0377  0.8310 -0.0653
73477SOL    HW232411  10.898   1.514  11.010  0.3984 -1.0287  0.4924
73478SOL     OW32412  12.589   0.369   8.230  0.1569 -0.0627  0.4977
73478SOL    HW132413  12.680   0.372   8.201  0.4561 -3.2066  0.7795
73478SOL    HW232414  12.573   0.455   8.268  2.2016  1.4524 -1.7650
73479SOL     OW32415   2.620   8.110   3.266 -0.2081  0.0113 -0.1901
73479SOL    HW132416   2.608   8.204   3.282  0.6766 -0.1775  1.7959
73479SOL    HW232417   2.547   8.068   3.311  0.7363 -0.3685  1.0399
73480SOL     OW32418   8.456  13.624   4.713  0.0219 -0.3069 -0.1560
73480SOL    HW132419   8.502  13.705   4.691  0.5335 -0.0543  1.6615
73480SOL    HW232420   8.401  13.647   4.788 -0.0664 -1.5677  0.1909
73481SOL     OW32421  11.995   4.136   0.038 -0.4414 -0.2016 -0.6929
73481SOL    HW132422  12.010   4.148  -0.056 -1.5159  1.9064 -0.6331
73481SOL    HW232423  11.914   4.086   0.043 -0.1466 -0.7103 -0.8680
73482SOL     OW32424   5.103   2.144  13.836 -0.0807 -0.1119  0.1634
73482SOL    HW132425   5.166   2.132  13.766  0.7758 -0.5558  0.9860
73482SOL    HW232426   5.051   2.063  13.837  1.0576 -0.8734  1.1404
73483SOL     OW32427  10.449   2.370   3.219  0.2982 -0.7518 -0.1204
73483SOL    HW132428  10.450   2.400   3.310 -0.3680 -0.3191 -0.2472
73483SOL    HW232429  10.522   2.418   3.178  0.0423 -0.2703 -0.0207
73484SOL     OW32430   6.609   5.728   3.471 -0.4904  0.5716 -0.4028
73484SOL    HW132431   6.638   5.714   3.381  1.1840 -1.7003  0.3764
73484SOL    HW232432   6.569   5.645   3.497  1.3948  0.2123  1.6884
73485SOL     OW32433   4.279   5.999   9.184  0.2684  0.0179 -0.3957
73485SOL    HW132434   4.364   5.972   9.150  2.3975  2.0631  2.7932
73485SOL    HW232435   4.258   5.934   9.250  0.8052  0.9949  0.7727
73486SOL     OW32436   3.638   1.579   7.598  0.6040  0.9860  0.1736
73486SOL    HW132437   3.670   1.490   7.586 -1.8452  0.2664 -1.9507
73486SOL    HW232438   3.645   1.595   7.692  0.2987 -1.7759  0.7454
73487SOL     OW32439   0.016  13.060   9.525  0.1422  0.1033 -0.1237
73487SOL    HW132440  -0.047  13.087   9.592 -0.4950 -0.3716 -0.5145
73487SOL    HW232441  -0.024  13.090   9.443  0.4328 -0.1862 -0.3724
73488SOL     OW32442   5.923   5.310   8.084 -0.0287 -0.6203  0.0462
73488SOL    HW132443   5.961   5.304   8.172  0.9212  1.2664 -0.2014
73488SOL    HW232444   5.904   5.403   8.072 -0.9244 -0.9601 -1.4427
73489SOL     OW32445   1.687   3.858  11.760  0.2720  0.1329  0.0689
73489SOL    HW132446   1.686   3.766  11.786  2.2065 -0.1071 -0.5086
73489SOL    HW232447   1.599   3.874  11.727 -0.0804 -1.5619  0.0537
73490SOL     OW32448   9.477   3.788   2.059  0.0956  0.0852  0.0385
73490SOL    HW132449   9.417   3.827   1.996  0.5523  1.2844  0.3336
73490SOL    HW232450   9.442   3.814   2.144 -1.3837 -2.7409  0.4320
73491SOL     OW32451   2.587  13.030   7.526  0.1698 -0.2010 -0.8100
73491SOL    HW132452   2.527  13.045   7.598 -0.1771 -2.0044 -0.6722
73491SOL    HW232453   2.674  13.049   7.563 -0.1488  0.7031 -0.4981
73492SOL     OW32454  13.333  10.466   0.461 -0.0070 -0.2216  0.1474
73492SOL    HW132455  13.403  10.481   0.397  0.9948  0.6309  1.3944
73492SOL    HW232456  13.272  10.539   0.447 -1.1317 -1.3930 -1.4785
73493SOL     OW32457  12.807   4.364   2.892 -0.0289 -0.0728 -0.0306
73493SOL    HW132458  12.902   4.374   2.898  0.0570 -1.0737  0.7444
73493SOL    HW232459  12.795   4.287   2.836 -0.3492 -0.3681  0.4361
73494SOL     OW32460   6.464   7.701   7.713 -0.2802 -0.0345  0.4209
73494SOL    HW132461   6.546   7.698   7.664 -0.5392 -1.2502  0.0298
73494SOL    HW232462   6.427   7.787   7.693  0.5179  0.2218 -0.0127
73495SOL     OW32463  12.142   2.561  11.978  0.3108  0.0801 -0.3358
73495SOL    HW132464  12.230   2.592  11.954 -0.0769 -0.0216 -2.0016
73495SOL    HW232465  12.086   2.636  11.965 -0.0348 -0.1981 -0.4647
73496SOL     OW32466   7.460   8.059   2.874  0.5076 -0.2222  0.4679
73496SOL    HW132467   7.435   8.137   2.922  1.2572 -0.4998  1.3418
73496SOL    HW232468   7.516   8.092   2.803 -1.0824  0.2451 -0.6091
73497SOL     OW32469  11.570   8.705  12.455  0.1495 -0.0507 -0.1150
73497SOL    HW132470  11.540   8.627  12.501 -0.3408 -0.4546 -1.1015
73497SOL    HW232471  11.645   8.735  12.506  0.5708 -1.3691  0.0674
73498SOL     OW32472   2.116   6.901  12.616  0.0159  0.0822 -0.1578
73498SOL    HW132473   2.060   6.978  12.607 -0.7606 -0.5937 -1.4037
73498SOL    HW232474   2.104   6.854  12.534 -0.6060 -2.0829  1.1052
73499SOL     OW32475  12.051  12.563  11.448  0.4228  0.0417 -0.0542
73499SOL    HW132476  12.040  12.656  11.467  1.0371  0.2320 -0.5959
73499SOL    HW232477  12.145  12.548  11.458  0.5370 -0.2003 -1.3151
73500SOL     OW32478   7.692   3.760   0.722 -0.1142  0.4305  0.0461
73500SOL    HW132479   7.626   3.715   0.669  1.7985 -0.7812 -1.4239
73500SOL    HW232480   7.723   3.832   0.667  1.6367 -0.6199 -0.4203
73501SOL     OW32481   2.718  10.798   0.841  0.2492 -0.5504 -0.4147
73501SOL    HW132482   2.732  10.799   0.746 -1.0822 -1.2449 -0.6356
73501SOL    HW232483   2.677  10.713   0.859 -0.0782 -0.1759  0.6953
73502SOL     OW32484   1.878   8.367   3.588  0.5466 -0.4317 -0.2054
73502SOL    HW132485   1.876   8.451   3.543  1.1453  0.0405  0.6278
73502SOL    HW232486   1.896   8.389   3.679 -2.8653 -1.1296  0.8054
73503SOL     OW32487  12.237   6.105   5.311  0.3753  0.3896 -0.0281
73503SOL    HW132488  12.200   6.173   5.255 -0.2853 -0.5572 -0.7883
73503SOL    HW232489  12.166   6.082   5.371  0.5515  0.2888  0.1419
73504SOL     OW32490   3.178   1.495   9.732  0.4293  0.3474  0.9754
73504SOL    HW132491   3.168   1.505   9.637 -2.8163  1.2412  1.3066
73504SOL    HW232492   3.237   1.420   9.741  1.4203  0.6614 -1.7121
73505SOL     OW32493   6.144   5.845  10.335 -0.3942  0.1324 -0.4724
73505SOL    HW132494   6.179   5.827  10.422  0.7502  2.5177 -0.3539
73505SOL    HW232495   6.164   5.767  10.284  0.8776 -0.4438  0.8491
73506SOL     OW32496   7.417   6.618  12.693  0.0038 -0.2231  0.5485
73506SOL    HW132497   7.392   6.707  12.670  1.0269  0.2123  1.0846
73506SOL    HW232498   7.513   6.619  12.695  0.0937 -1.6605 -0.7195
73507SOL     OW32499  12.279   7.095   9.052 -0.3388  0.1170 -0.3104
73507SOL    HW132500  12.257   7.005   9.026 -0.6245 -0.3470  1.3846
73507SOL    HW232501  12.373   7.102   9.036 -0.1139 -0.8480  0.4510
73508SOL     OW32502   0.762  12.466   8.690  0.3073 -0.1239  0.2255
73508SOL    HW132503   0.826  12.454   8.761  1.6623  1.2084 -0.7163
73508SOL    HW232504   0.764  12.383   8.642 -1.7797 -1.6686  2.5460
73509SOL     OW32505  12.570  10.357   2.250  0.3611 -0.4362  0.0163
73509SOL    HW132506  12.495  10.328   2.199 -0.1396  1.5971 -0.4826
73509SOL    HW232507  12.597  10.279   2.300 -1.6917 -1.3509 -0.2275
73510SOL     OW32508   0.788  11.694   7.583  0.2042  0.1377  0.2623
73510SOL    HW132509   0.866  11.747   7.566  0.4815 -0.4993 -0.5158
73510SOL    HW232510   0.715  11.756   7.579  0.3330  0.2138 -2.4587
73511SOL     OW32511   7.085   1.300   6.838  0.3693  0.1113 -0.3614
73511SOL    HW132512   7.064   1.393   6.846 -0.0556 -0.1106  1.5379
73511SOL    HW232513   7.000   1.256   6.842  0.2218 -0.3073 -4.2322
73512SOL     OW32514   4.958   1.080  11.090 -0.4768 -0.7318  0.0933
73512SOL    HW132515   4.921   1.149  11.034  0.0252 -0.2673  0.3240
73512SOL    HW232516   5.044   1.114  11.115  0.2113 -1.8905 -0.6176
73513SOL     OW32517   3.801   5.496   1.128 -0.0009 -0.1298  0.0918
73513SOL    HW132518   3.780   5.469   1.217 -0.5059 -0.4362 -0.1201
73513SOL    HW232519   3.777   5.422   1.073  1.3485 -0.3875 -0.2017
73514SOL     OW32520   9.034   1.333  13.487 -0.5321 -0.7367  0.0594
73514SOL    HW132521   9.067   1.260  13.538  0.2396 -0.1465  0.4217
73514SOL    HW232522   8.947   1.305  13.458 -0.5377 -1.5027  0.7889
73515SOL     OW32523   7.429   3.290   5.709 -0.2527  1.0378  0.1867
73515SOL    HW132524   7.334   3.296   5.718 -0.5639  0.6326 -2.0497
73515SOL    HW232525   7.453   3.365   5.655  0.4187  0.2334 -0.6809
73516SOL     OW32526  11.936   6.969   5.872 -0.1970  0.1867  0.7150
73516SOL    HW132527  11.897   7.048   5.908  0.0449  1.2031 -1.1193
73516SOL    HW232528  11.977   6.997   5.790  0.9244 -1.6121  0.5905
73517SOL     OW32529  13.027   4.950   7.437  0.1464  0.4695 -0.1440
73517SOL    HW132530  13.036   5.021   7.501  0.8371 -0.7508  1.1783
73517SOL    HW232531  13.084   4.976   7.364 -0.6432  1.8854 -0.2936
73518SOL     OW32532   0.537  13.380   6.753 -0.5749 -0.1845 -0.2349
73518SOL    HW132533   0.576  13.311   6.807  0.0171  0.4725  0.1991
73518SOL    HW232534   0.554  13.461   6.802  1.2962  0.6369 -2.0599
73519SOL     OW32535  12.790  10.306   5.796  0.6531 -0.4152  0.1954
73519SOL    HW132536  12.811  10.248   5.869 -1.4706 -2.7062 -0.8834
73519SOL    HW232537  12.820  10.259   5.718  0.8530  0.9745 -0.6113
73520SOL     OW32538  11.355  12.765   7.550 -0.2938 -0.4268  0.1847
73520SOL    HW132539  11.377  12.674   7.529  1.9441  0.1404 -0.1884
73520SOL    HW232540  11.384  12.815   7.474 -3.3647  0.4693 -0.5256
73521SOL     OW32541   8.692  10.523   9.979  0.2427 -0.5578  0.2320
73521SOL    HW132542   8.705  10.531  10.073  0.8674 -1.4553  0.2387
73521SOL    HW232543   8.600  10.547   9.965  0.5449  1.1386  0.8479
73522SOL     OW32544   1.982   3.687   1.927  0.6188 -0.3323 -0.0877
73522SOL    HW132545   2.022   3.737   1.999 -2.2500  1.5400  0.3806
73522SOL    HW232546   2.024   3.601   1.931  1.7671  0.2532  2.7382
73523SOL     OW32547   2.386   7.144   9.571  0.2999  0.0905 -0.3516
73523SOL    HW132548   2.350   7.055   9.573 -1.5233  0.7904  0.7141
73523SOL    HW232549   2.442   7.148   9.648 -1.6754  0.5910  1.1494
73524SOL     OW32550   2.872   4.749   2.799 -0.4223  0.1345 -0.5126
73524SOL    HW132551   2.955   4.795   2.808  0.4596 -1.2696 -1.0660
73524SOL    HW232552   2.818   4.808   2.746 -0.9129  2.4075  2.2823
73525SOL     OW32553   9.889   1.053   0.655 -0.0003 -0.5972  0.3514
73525SOL    HW132554   9.936   1.126   0.615  0.4030 -0.2390  1.4467
73525SOL    HW232555   9.934   1.038   0.738 -0.8071 -1.3346  0.6726
73526SOL     OW32556  10.840   0.706  12.641 -0.2982 -0.0800 -0.1402
73526SOL    HW132557  10.750   0.690  12.613  0.0845 -1.1028 -0.8323
73526SOL    HW232558  10.891   0.711  12.560  0.1520  1.3695  0.1977
73527SOL     OW32559  13.769   8.841  12.766  0.3015 -0.6272  0.3431
73527SOL    HW132560  13.752   8.748  12.779  1.3798 -0.6129  2.2390
73527SOL    HW232561  13.729   8.884  12.842  1.7943  0.1656  0.7361
73528SOL     OW32562   7.683   7.097  10.191  0.2395 -0.4172 -0.0441
73528SOL    HW132563   7.712   7.046  10.267  0.3309  1.6129  1.3599
73528SOL    HW232564   7.588   7.090  10.191  0.3127 -1.5338 -0.5785
73529SOL     OW32565  10.061   3.033  10.004  0.1505  0.3534  0.4224
73529SOL    HW132566  10.064   3.002   9.914 -0.8380  0.3258  0.3921
73529SOL    HW232567  10.147   3.010  10.040  0.1606 -0.6152 -0.1838
73530SOL     OW32568   9.952   9.867  13.463 -0.5183  0.4840 -0.8846
73530SOL    HW132569  10.007   9.821  13.528 -0.1087 -1.3500 -2.4402
73530SOL    HW232570   9.972   9.960  13.476  0.0963  0.1272  1.1005
73531SOL     OW32571   0.648   8.133   3.802 -0.3534 -0.3163 -0.4177
73531SOL    HW132572   0.715   8.068   3.824 -1.1760 -0.9853  0.1959
73531SOL    HW232573   0.685   8.217   3.830  0.7877 -0.4784 -1.3575
73532SOL     OW32574   7.720   2.468  12.888 -0.4456 -0.2015  0.1967
73532SOL    HW132575   7.680   2.539  12.938 -0.0913  0.3402 -0.2815
73532SOL    HW232576   7.744   2.403  12.954  1.9993  1.4354  1.0604
73533SOL     OW32577   6.377  10.598   8.980 -0.4326  0.3371 -0.7052
73533SOL    HW132578   6.384  10.686   8.944  0.0023  0.0626 -1.3139
73533SOL    HW232579   6.449  10.593   9.044 -0.5381  0.4645 -0.5754
73534SOL     OW32580   8.716   4.251   7.031 -0.2349 -0.0590 -0.3089
73534SOL    HW132581   8.781   4.311   6.993 -1.0474  1.5672  0.7841
73534SOL    HW232582   8.720   4.174   6.974  0.5206  1.1934 -2.0575
73535SOL     OW32583   2.647   6.268   0.729 -0.0767  0.0776 -0.4725
73535SOL    HW132584   2.596   6.340   0.766 -1.5376 -0.5359 -1.2191
73535SOL    HW232585   2.679   6.221   0.806 -0.2520  0.7347  0.0176
73536SOL     OW32586  13.208  12.985   0.089 -0.7657 -0.0143 -0.5052
73536SOL    HW132587  13.196  12.911   0.149 -2.2425 -0.0215 -0.7792
73536SOL    HW232588  13.271  12.954   0.025  1.4236  0.2318  1.4007
73537SOL     OW32589   7.280   0.727   4.735 -0.4256 -0.2526 -0.4469
73537SOL    HW132590   7.206   0.691   4.784 -0.7883  0.4448 -0.4735
73537SOL    HW232591   7.241   0.772   4.661 -0.2584  2.7303  1.1057
73538SOL     OW32592   7.528   2.329  10.144 -0.2977  0.3789  0.0322
73538SOL    HW132593   7.479   2.273  10.085 -0.0695  0.0025  0.1980
73538SOL    HW232594   7.529   2.282  10.227  0.6906  0.1924 -0.0752
73539SOL     OW32595   2.695  13.616   1.708  0.2427 -0.2980 -0.1654
73539SOL    HW132596   2.640  13.538   1.709  0.4454 -0.4504 -0.4744
73539SOL    HW232597   2.687  13.652   1.796 -0.9402  0.1012 -0.4201
73540SOL     OW32598   9.440   9.500  12.858  0.0826  0.0599 -0.0522
73540SOL    HW132599   9.476   9.541  12.937 -1.7169 -0.3941  1.0799
73540SOL    HW232600   9.363   9.552  12.837  0.2341 -0.1616 -1.2125
73541SOL     OW32601  10.790  10.107   8.152  0.1282  0.3994  0.5185
73541SOL    HW132602  10.805  10.012   8.144  1.5511  0.6144  0.3679
73541SOL    HW232603  10.769  10.120   8.244  0.8010  0.0314  0.7311
73542SOL     OW32604  14.009   6.117   2.958  0.2218  0.2405  0.4138
73542SOL    HW132605  13.966   6.124   3.043  0.1956 -1.8639  0.6241
73542SOL    HW232606  14.054   6.033   2.961 -0.9278 -0.5546 -2.1531
73543SOL     OW32607  12.271   6.883   2.277 -0.1737 -0.0725 -0.0089
73543SOL    HW132608  12.273   6.969   2.320  1.1344  0.0316 -0.2400
73543SOL    HW232609  12.333   6.830   2.326 -0.6306 -0.7534 -0.1569
73544SOL     OW32610   4.423   6.564   8.521  0.2058  0.2805 -0.3776
73544SOL    HW132611   4.400   6.606   8.604  0.1363 -2.7494  1.3093
73544SOL    HW232612   4.412   6.470   8.538  0.0023 -0.4856 -3.9120
73545SOL     OW32613   1.515   4.008  12.786  0.2193  0.3838  0.1037
73545SOL    HW132614   1.546   4.018  12.696  1.3427  0.0244  0.4315
73545SOL    HW232615   1.423   4.034  12.783 -0.3161 -1.4746 -1.5317
73546SOL     OW32616   9.487   5.675   6.858 -0.1004  0.1669  0.0085
73546SOL    HW132617   9.476   5.631   6.774  0.6388  1.6686 -0.9087
73546SOL    HW232618   9.475   5.768   6.839 -0.5793  0.4859  1.7000
73547SOL     OW32619   1.847   7.359   9.760 -0.1245 -0.3658  0.2774
73547SOL    HW132620   1.937   7.335   9.779 -0.7465 -1.7925  1.5800
73547SOL    HW232621   1.853   7.413   9.681  1.7922 -0.9313 -0.0125
73548SOL     OW32622  11.766  11.488   0.799 -0.3960 -0.8688 -0.5283
73548SOL    HW132623  11.696  11.500   0.864  0.8766  0.8844  0.6196
73548SOL    HW232624  11.762  11.395   0.776 -3.4374 -0.7417 -0.9545
73549SOL     OW32625   6.037   2.767   0.930 -0.1170  0.5838  0.3719
73549SOL    HW132626   5.979   2.764   0.854  0.2555 -0.2635  0.1036
73549SOL    HW232627   6.117   2.724   0.899  0.1840  0.6018  1.1239
73550SOL     OW32628   1.489   1.405   9.277 -0.2710  0.4894  0.0539
73550SOL    HW132629   1.444   1.451   9.207 -0.5065 -1.8706 -1.4561
73550SOL    HW232630   1.422   1.395   9.346 -1.5870 -1.2548 -1.3644
73551SOL     OW32631   4.459   3.023   6.022 -0.4723  0.0407 -0.3067
73551SOL    HW132632   4.456   2.928   6.035 -0.7433 -0.1292 -1.5160
73551SOL    HW232633   4.392   3.057   6.081 -0.8699 -0.5746 -0.3923
73552SOL     OW32634   1.487  13.568  11.708  0.0690 -0.1049 -0.2568
73552SOL    HW132635   1.522  13.564  11.797  0.8786 -0.2990 -0.5729
73552SOL    HW232636   1.452  13.481  11.692  0.6303 -0.3063 -0.4036
73553SOL     OW32637   7.604  10.551   0.925 -0.3726  0.3116 -0.1508
73553SOL    HW132638   7.643  10.636   0.907 -0.8912  0.2925 -1.4479
73553SOL    HW232639   7.610  10.503   0.842  0.6151 -1.2208  0.7414
73554SOL     OW32640   3.523  13.159  13.437  0.0965 -0.2015 -0.5016
73554SOL    HW132641   3.570  13.242  13.450  0.7724 -0.9666  2.7961
73554SOL    HW232642   3.591  13.096  13.414  0.0232 -0.4314 -0.0858
73555SOL     OW32643   5.802   5.376   3.349  0.1245  0.2354  0.2446
73555SOL    HW132644   5.835   5.306   3.292 -2.6405 -3.4327  2.6587
73555SOL    HW232645   5.841   5.358   3.434 -2.3429  0.1343  1.4442
73556SOL     OW32646   4.815   9.724  11.230 -0.9332  0.3159 -0.0855
73556SOL    HW132647   4.898   9.747  11.189 -0.9625  0.5935  0.0112
73556SOL    HW232648   4.835   9.717  11.323 -1.3882  2.1682  0.1776
73557SOL     OW32649   3.768   3.433   6.747  0.0380  0.2734  0.0298
73557SOL    HW132650   3.786   3.508   6.690 -3.3573  1.7493  0.6588
73557SOL    HW232651   3.713   3.375   6.693 -0.4498  0.0786  0.7207
73558SOL     OW32652   4.748   7.332   3.770  0.1698  0.3547 -0.5208
73558SOL    HW132653   4.704   7.370   3.846 -0.4463  1.3689 -1.3646
73558SOL    HW232654   4.680   7.285   3.723  0.7395 -1.0784  0.0127
73559SOL     OW32655   5.731   2.605   2.455 -0.2735 -0.0376 -0.1489
73559SOL    HW132656   5.668   2.605   2.527  0.7707 -1.0724  0.7861
73559SOL    HW232657   5.704   2.679   2.400 -2.1721 -0.3264  0.3257
73560SOL     OW32658  12.344  11.742   1.179  0.7357  0.0850 -0.5400
73560SOL    HW132659  12.405  11.669   1.165  0.2121 -0.5438  0.3551
73560SOL    HW232660  12.301  11.721   1.262  1.0289  1.7248  0.0643
73561SOL     OW32661   8.022   1.512   7.333  0.2422  0.1098 -0.5155
73561SOL    HW132662   7.991   1.500   7.423 -1.2461  2.4193 -0.6370
73561SOL    HW232663   8.059   1.600   7.332 -2.2612  1.2852 -2.7242
73562SOL     OW32664   2.284   2.858   0.325 -0.0883 -0.4798 -0.4203
73562SOL    HW132665   2.193   2.886   0.336  0.1462  1.2959 -2.3912
73562SOL    HW232666   2.313   2.901   0.244  2.7960 -0.2294  0.6351
73563SOL     OW32667  13.254   0.533  10.658 -0.5013  0.0190 -0.6327
73563SOL    HW132668  13.244   0.495  10.571 -0.5952  0.7907 -0.9734
73563SOL    HW232669  13.183   0.598  10.663 -0.9884 -0.5697  0.3283
73564SOL     OW32670   5.028   1.465   7.813 -0.0427 -0.1467 -0.2432
73564SOL    HW132671   5.092   1.487   7.746 -0.3379 -1.8088 -1.1100
73564SOL    HW232672   5.028   1.542   7.871  0.7615  1.0115 -1.6912
73565SOL     OW32673   6.392   2.985   9.191 -0.6389 -0.1255  0.7816
73565SOL    HW132674   6.403   3.002   9.285 -1.1133  1.5442  0.5619
73565SOL    HW232675   6.469   2.934   9.167  0.4229  0.9617  1.7358
73566SOL     OW32676  11.889   7.288  11.727  0.3852 -0.1443 -0.3804
73566SOL    HW132677  11.876   7.381  11.708 -0.2022  0.2309  1.6405
73566SOL    HW232678  11.980   7.270  11.702 -0.1087  0.4042 -2.7849
73567SOL     OW32679   5.486  11.720   7.164 -0.1413  0.3341  0.3624
73567SOL    HW132680   5.467  11.640   7.213  2.1554 -0.0307  0.7689
73567SOL    HW232681   5.406  11.737   7.114 -0.1898 -3.0847 -0.9654
73568SOL     OW32682   2.261  11.292   5.756 -0.4195 -0.0509  0.0039
73568SOL    HW132683   2.269  11.300   5.851 -0.4333 -1.8312  0.1913
73568SOL    HW232684   2.174  11.325   5.735 -0.4734  0.2009  0.6242
73569SOL     OW32685   0.836  13.111  12.210  0.1041  0.0166  0.6288
73569SOL    HW132686   0.792  13.119  12.126 -0.3031  1.7324  0.9637
73569SOL    HW232687   0.787  13.044  12.257  0.3861 -1.0089 -0.5072
73570SOL     OW32688   6.459  11.593  10.532  0.3743 -0.7088  0.7820
73570SOL    HW132689   6.440  11.500  10.543  1.6615 -0.9573  0.9988
73570SOL    HW232690   6.531  11.610  10.592 -0.2708  0.5824  1.2192
73571SOL     OW32691  13.424   4.619   6.104 -0.3735  0.6267  0.3557
73571SOL    HW132692  13.414   4.529   6.135  0.2042  0.8454  1.2235
73571SOL    HW232693  13.496   4.615   6.042  0.9526  0.7742  1.8047
73572SOL     OW32694   4.237   6.086   7.847  0.6453 -0.1357 -0.0178
73572SOL    HW132695   4.270   6.141   7.776  0.3413  1.0625  0.7454
73572SOL    HW232696   4.316   6.047   7.886  0.7671 -1.4431 -1.4808
73573SOL     OW32697   9.123  11.687  13.315 -0.5393 -0.1724 -0.2855
73573SOL    HW132698   9.030  11.667  13.311 -0.1533 -1.9357 -1.5006
73573SOL    HW232699   9.149  11.700  13.223  0.5100 -0.2611 -0.0174
73574SOL     OW32700   5.391   4.458   7.676 -0.6030 -0.1999 -0.1162
73574SOL    HW132701   5.310   4.494   7.712  0.2814  0.3934  1.3862
73574SOL    HW232702   5.441   4.535   7.649  0.7761 -0.2863  1.9540
73575SOL     OW32703   6.708  13.670  10.960  0.7902  0.1796  0.1360
73575SOL    HW132704   6.661  13.601  11.007  0.1450  0.1433 -0.5490
73575SOL    HW232705   6.736  13.731  11.029 -1.4867  0.9535  0.4389
73576SOL     OW32706  12.638   4.285  11.502  0.4349 -0.2141  0.1618
73576SOL    HW132707  12.562   4.283  11.443  0.5813  0.4128 -0.0586
73576SOL    HW232708  12.693   4.355  11.467  0.9904 -0.4873  0.4775
73577SOL     OW32709  12.596  10.787   0.980  0.0377 -0.4806  0.0970
73577SOL    HW132710  12.644  10.705   0.989 -0.8893 -1.3027 -1.9140
73577SOL    HW232711  12.655  10.853   1.015  0.3378 -2.0748  3.0218
73578SOL     OW32712   9.489   0.430  10.251  0.5928  0.8485  0.3039
73578SOL    HW132713   9.569   0.428  10.199  2.1070  1.2934  2.4686
73578SOL    HW232714   9.480   0.341  10.285  0.2096  0.8184  0.1267
73579SOL     OW32715   1.996   4.461  12.923  0.1582 -0.4381  0.2161
73579SOL    HW132716   1.994   4.382  12.869  1.2829 -0.6692  0.4821
73579SOL    HW232717   1.976   4.532  12.862  0.8383 -0.7559 -0.3904
73580SOL     OW32718   1.578   9.278   8.471 -0.3976  0.0702  0.2027
73580SOL    HW132719   1.656   9.326   8.443 -0.3330  0.0076  0.2748
73580SOL    HW232720   1.533   9.256   8.389 -1.2405  1.6004  0.2208
73581SOL     OW32721   2.024   4.564   5.430 -0.0173  0.2627 -0.0124
73581SOL    HW132722   1.955   4.619   5.468 -0.8080 -0.6468 -0.0941
73581SOL    HW232723   2.002   4.559   5.337  0.2575  0.1079 -0.0679
73582SOL     OW32724   2.670   0.288   1.065  0.1815  0.3942 -0.1666
73582SOL    HW132725   2.709   0.365   1.024 -2.4572  1.1784 -1.4076
73582SOL    HW232726   2.625   0.322   1.142 -1.6888  0.2906 -1.1716
73583SOL     OW32727   9.189   2.745   3.340 -0.6140 -0.0411 -0.0471
73583SOL    HW132728   9.181   2.834   3.375  1.3148 -0.0205  0.4013
73583SOL    HW232729   9.277   2.717   3.363 -0.2012 -1.0645 -2.5034
73584SOL     OW32730   6.853  13.858   9.157 -0.4581  0.9594  0.0035
73584SOL    HW132731   6.840  13.780   9.209 -1.4290  1.1912  0.1197
73584SOL    HW232732   6.856  13.930   9.220 -0.0147  1.0654 -0.1335
73585SOL     OW32733  13.225  11.133   1.375 -0.4849 -0.4949 -0.1652
73585SOL    HW132734  13.314  11.168   1.370 -0.0468 -1.4745  0.5528
73585SOL    HW232735  13.236  11.038   1.380 -1.5771 -0.6402 -0.1835
73586SOL     OW32736   0.328   1.803   0.504  0.2510  0.5698  0.5139
73586SOL    HW132737   0.385   1.727   0.493  1.6683  1.2055  2.8662
73586SOL    HW232738   0.252   1.770   0.551  0.3813  0.4079  0.6095
73587SOL     OW32739   8.387   3.499   6.977 -0.0950  0.5357  0.3018
73587SOL    HW132740   8.349   3.423   6.934 -2.3990  2.2105 -0.8730
73587SOL    HW232741   8.455   3.464   7.035 -0.3868 -2.2586 -0.9239
73588SOL     OW32742   3.954  12.283  13.903 -0.6422  0.4348  0.7423
73588SOL    HW132743   3.889  12.351  13.889 -1.7365 -0.6520  0.3650
73588SOL    HW232744   3.903  12.205  13.924  0.3010 -1.1800 -2.3220
73589SOL     OW32745   7.909  12.695  10.049  0.0898 -0.2852 -0.6678
73589SOL    HW132746   7.921  12.698  10.144  0.0477 -0.7860 -0.6430
73589SOL    HW232747   7.998  12.692  10.014  0.1827  2.0339 -0.7426
73590SOL     OW32748   0.370   9.266   8.023  0.1644  0.3643 -0.4886
73590SOL    HW132749   0.338   9.326   7.955 -2.7035 -1.1257 -0.6107
73590SOL    HW232750   0.309   9.277   8.095  0.1061 -1.7122 -0.1721
73591SOL     OW32751   2.425   2.589   2.036 -0.0770  0.1332  0.2751
73591SOL    HW132752   2.370   2.638   1.975  1.8886 -0.4608 -2.1529
73591SOL    HW232753   2.364   2.552   2.100 -2.1727  1.3893 -0.9079
73592SOL     OW32754  11.184  12.610   0.057 -0.1263 -0.5279  0.6014
73592SOL    HW132755  11.148  12.646  -0.024  2.0133  1.8987  0.6063
73592SOL    HW232756  11.127  12.643   0.126  0.6733  1.3702  0.4225
73593SOL     OW32757   5.129   0.696   8.476  0.2121 -0.7182 -0.8543
73593SOL    HW132758   5.156   0.728   8.562  2.2892 -1.0593 -1.3233
73593SOL    HW232759   5.158   0.605   8.474 -0.0870 -0.7999 -1.7924
73594SOL     OW32760  13.791  11.053   0.438 -0.1972  0.2235 -0.1787
73594SOL    HW132761  13.699  11.035   0.417 -0.4002  2.2024 -1.3067
73594SOL    HW232762  13.837  11.041   0.355  0.3700  0.3460  0.1178
73595SOL     OW32763   1.218   1.193   9.308 -0.2093  0.4297  0.6950
73595SOL    HW132764   1.257   1.247   9.377  0.2372  0.2420  0.5944
73595SOL    HW232765   1.128   1.180   9.335 -0.1511  0.7173  1.0280
73596SOL     OW32766   3.339   8.860  10.442 -0.1045  0.2143 -0.1316
73596SOL    HW132767   3.376   8.925  10.382  0.1958  1.7864  1.6689
73596SOL    HW232768   3.249   8.891  10.458  0.5718  1.2431  2.0614
73597SOL     OW32769   2.540   6.604   1.609 -0.1622  0.2503 -0.3657
73597SOL    HW132770   2.496   6.682   1.576 -2.1341 -0.9912 -0.8326
73597SOL    HW232771   2.499   6.531   1.562  0.4777 -1.2040  1.2194
73598SOL     OW32772   7.273   2.604   2.327 -0.2494 -0.4139 -0.4763
73598SOL    HW132773   7.256   2.644   2.242  1.5939 -0.7057 -1.0367
73598SOL    HW232774   7.188   2.573   2.357 -1.1654  0.9688 -1.5391
73599SOL     OW32775  13.626   7.264  12.429  0.1767  0.7420  0.4278
73599SOL    HW132776  13.609   7.221  12.513 -2.0817  0.4028 -0.1383
73599SOL    HW232777  13.553   7.324  12.418  0.3493  0.6679 -1.3585
73600SOL     OW32778   5.196  11.130   5.288  0.2302 -0.1680 -0.1882
73600SOL    HW132779   5.213  11.191   5.215  0.0515 -0.7054 -0.6866
73600SOL    HW232780   5.176  11.047   5.245 -1.5067 -0.1007  0.4155
73601SOL     OW32781   3.883  12.405   2.337 -0.4632 -0.1155  0.3029
73601SOL    HW132782   3.910  12.409   2.246  1.3349  2.6307  0.8265
73601SOL    HW232783   3.947  12.348   2.379  0.7866  1.2891  0.3835
73602SOL     OW32784   3.796  10.790   7.291  0.2908 -0.6025 -0.0726
73602SOL    HW132785   3.772  10.851   7.361 -2.0489 -1.4665 -0.0293
73602SOL    HW232786   3.736  10.717   7.302 -0.2143 -0.7347 -3.0258
73603SOL     OW32787   3.629  12.729   1.227  0.8954 -0.1129  0.1722
73603SOL    HW132788   3.615  12.754   1.135  1.2415 -0.5842 -0.0130
73603SOL    HW232789   3.625  12.812   1.275 -0.5669  0.0009 -0.0999
73604SOL     OW32790   1.096   5.742  10.574  0.0436 -0.0909  0.2161
73604SOL    HW132791   1.181   5.770  10.609 -0.3469  0.6168  0.6276
73604SOL    HW232792   1.037   5.750  10.648 -0.4138 -0.4321 -0.1109
73605SOL     OW32793   3.582  12.888   4.520  0.2644 -0.5533 -0.9497
73605SOL    HW132794   3.505  12.942   4.534 -0.0603 -1.0082 -0.9546
73605SOL    HW232795   3.655  12.950   4.519 -0.1472 -0.0696 -1.4044
73606SOL     OW32796   8.106   5.584   9.644 -0.1301 -0.1751 -0.4833
73606SOL    HW132797   8.140   5.566   9.731  0.4285 -2.2851 -1.0703
73606SOL    HW232798   8.174   5.551   9.584 -1.6727 -1.3461 -1.6869
73607SOL     OW32799   1.787   9.752   6.677  0.4571 -0.0072  0.0250
73607SOL    HW132800   1.792   9.827   6.737  2.9236 -1.4818  1.8861
73607SOL    HW232801   1.700   9.716   6.691  0.0980  1.1161  0.8865
73608SOL     OW32802  12.548   8.223  13.782 -0.1574  0.0248  0.3268
73608SOL    HW132803  12.500   8.157  13.834 -0.5067  0.2048  0.2368
73608SOL    HW232804  12.565   8.180  13.699  0.2115 -0.1874  0.5090
73609SOL     OW32805   5.179   6.197   8.112 -0.3634 -0.5681 -0.2984
73609SOL    HW132806   5.118   6.268   8.095  0.0609 -0.3604 -1.0211
73609SOL    HW232807   5.133   6.139   8.173  0.4193  1.8613  2.8499
73610SOL     OW32808   3.857   5.753   3.088 -0.7127 -0.5127 -0.3980
73610SOL    HW132809   3.862   5.669   3.133  0.2968 -0.8494 -1.1005
73610SOL    HW232810   3.872   5.818   3.157 -2.7930 -0.8075  0.3932
73611SOL     OW32811  10.216   4.635   1.251  0.1910 -0.2288  0.7921
73611SOL    HW132812  10.163   4.634   1.171 -3.4588  1.7558  2.8865
73611SOL    HW232813  10.191   4.554   1.297 -0.1038  0.1175  1.2482
73612SOL     OW32814  13.069  13.560  13.960 -0.1241 -0.0008 -0.4596
73612SOL    HW132815  13.090  13.634  13.904  0.9560 -1.4384 -2.0735
73612SOL    HW232816  13.138  13.496  13.942  0.6998 -0.3000  3.0904
73613SOL     OW32817   1.569   7.860   7.194 -0.0372 -0.3150 -0.4973
73613SOL    HW132818   1.488   7.909   7.188  1.3388  2.0598 -0.9158
73613SOL    HW232819   1.631   7.921   7.234  2.1911 -1.0998 -2.5245
73614SOL     OW32820   9.868   6.166   6.159  0.3077  0.3720  0.0029
73614SOL    HW132821   9.804   6.236   6.145  1.1265  0.8013 -1.9729
73614SOL    HW232822   9.821   6.086   6.138  0.9095  0.8358 -4.0179
73615SOL     OW32823   9.555   1.888   5.725  0.0176  0.0472 -0.3920
73615SOL    HW132824   9.547   1.945   5.649  1.8857  0.1966 -0.5202
73615SOL    HW232825   9.622   1.824   5.700 -0.7139 -1.0724  0.4346
73616SOL     OW32826   1.103   9.989   8.986  0.3829  0.0001 -0.5897
73616SOL    HW132827   1.091   9.980   8.892 -0.1284  0.3614 -0.5622
73616SOL    HW232828   1.018  10.015   9.019  0.2738 -1.1402  0.1132
73617SOL     OW32829   2.465   2.749  12.357 -0.4253  0.0312  0.4796
73617SOL    HW132830   2.373   2.762  12.381 -0.8492 -1.6277 -0.0631
73617SOL    HW232831   2.503   2.836  12.359 -2.2749  0.9146 -0.3146
73618SOL     OW32832  11.023  10.026   0.116  0.4332 -0.1031 -0.0332
73618SOL    HW132833  11.067  10.042   0.032 -0.2371  0.0168 -0.3670
73618SOL    HW232834  10.971  10.105   0.131  1.1682  0.2195  0.8991
73619SOL     OW32835  12.072   9.857   9.775  0.1022 -0.0661 -0.3277
73619SOL    HW132836  11.999   9.916   9.759 -1.0346 -0.5485  2.5386
73619SOL    HW232837  12.088   9.814   9.691 -2.5529  0.4688 -1.1705
73620SOL     OW32838   4.190  10.640   4.570  0.1060  0.1808 -0.3462
73620SOL    HW132839   4.130  10.699   4.525 -1.3467 -0.2392  0.9439
73620SOL    HW232840   4.216  10.687   4.649 -0.9211 -0.7733  0.5996
73621SOL     OW32841   9.021   4.415   9.076  0.6581  0.0386 -0.0489
73621SOL    HW132842   9.032   4.356   9.150 -0.6114 -2.2006 -1.5284
73621SOL    HW232843   9.101   4.403   9.023  0.5079 -0.1869 -0.2274
73622SOL     OW32844   5.179  13.104   1.397 -0.5339 -0.2967  0.2857
73622SOL    HW132845   5.247  13.159   1.357 -0.9666 -1.2709 -1.9662
73622SOL    HW232846   5.198  13.016   1.364 -2.2953 -0.7579  0.4227
73623SOL     OW32847  10.623  12.624  11.576  0.1486 -0.0627 -0.2440
73623SOL    HW132848  10.555  12.588  11.519  0.2152  0.1776 -0.4724
73623SOL    HW232849  10.700  12.571  11.558  0.2708  0.2530 -0.6443
73624SOL     OW32850   1.544   3.517   3.777 -0.2162 -0.0186  0.3950
73624SOL    HW132851   1.521   3.532   3.685  3.4404  0.5882 -0.5480
73624SOL    HW232852   1.617   3.455   3.774 -0.5730 -0.6831  3.0027
73625SOL     OW32853   6.565  12.400   0.924  0.2179 -0.2862  0.2091
73625SOL    HW132854   6.647  12.363   0.958  0.3503 -0.3390 -0.1662
73625SOL    HW232855   6.534  12.336   0.860 -0.3946 -0.5180  0.7314
73626SOL     OW32856   3.219  10.408  10.620 -0.1556 -0.0577 -0.2885
73626SOL    HW132857   3.140  10.442  10.663 -0.2842 -1.4347  0.6170
73626SOL    HW232858   3.187  10.348  10.553  0.1185 -0.6789  0.1306
73627SOL     OW32859  13.505  11.187   3.610  0.2754 -0.3441 -0.8707
73627SOL    HW132860  13.435  11.212   3.550 -0.2190 -1.3453 -0.7175
73627SOL    HW232861  13.464  11.128   3.673  0.9137  0.2416  0.1344
73628SOL     OW32862   5.260   5.328   6.895  0.1467 -0.0652 -0.3049
73628SOL    HW132863   5.250   5.240   6.930 -0.2151  0.3657  0.7149
73628SOL    HW232864   5.314   5.317   6.817  1.4892 -0.9901  0.7024
73629SOL     OW32865  10.539   6.957  10.439 -0.3750 -0.1840 -0.0147
73629SOL    HW132866  10.546   6.877  10.387 -1.3226 -0.2859  0.0024
73629SOL    HW232867  10.545   6.926  10.530  0.2609 -0.1191 -0.0306
73630SOL     OW32868  13.384   6.322   7.978 -0.4172  0.8213  0.0977
73630SOL    HW132869  13.383   6.406   8.024 -0.2200  0.7113  0.3108
73630SOL    HW232870  13.436   6.265   8.035  1.1621  1.1003 -1.0130
73631SOL     OW32871   7.564   5.585   3.771  0.4330  0.1554 -0.0600
73631SOL    HW132872   7.556   5.508   3.715  1.1937  0.3645 -0.4700
73631SOL    HW232873   7.655   5.584   3.801  0.1193  0.2204  0.9218
73632SOL     OW32874  11.029   0.091   1.349 -0.1215  0.3955  0.2869
73632SOL    HW132875  11.110   0.054   1.383  0.2763  0.1431 -0.8734
73632SOL    HW232876  10.993   0.143   1.421 -0.1879 -1.4249  1.6393
73633SOL     OW32877  12.815   8.097   2.682 -0.5828 -0.4658  0.1320
73633SOL    HW132878  12.819   8.128   2.773 -1.5663  0.7092 -0.2086
73633SOL    HW232879  12.735   8.135   2.647 -1.4093 -2.7466 -0.5886
73634SOL     OW32880   4.028  12.293  12.348 -0.8399 -0.0703 -0.1241
73634SOL    HW132881   4.009  12.381  12.382  0.6954  0.4712 -0.5916
73634SOL    HW232882   4.119  12.298  12.319 -0.6150 -1.9342  0.1793
73635SOL     OW32883  12.220  11.809   2.818  0.2830  0.1362  0.1445
73635SOL    HW132884  12.177  11.758   2.887 -0.7533  0.7452 -0.0241
73635SOL    HW232885  12.285  11.861   2.864  0.7139 -0.6409  0.4393
73636SOL     OW32886   3.815  13.230  12.051  0.0853  0.0372 -0.0107
73636SOL    HW132887   3.732  13.279  12.046  1.2183  2.4548  2.2278
73636SOL    HW232888   3.802  13.169  12.123  0.0625  0.0078 -0.0394
73637SOL     OW32889   5.504   7.046  11.183  0.2800 -0.0838  0.4357
73637SOL    HW132890   5.441   7.113  11.212  0.1456  0.0159 -0.0657
73637SOL    HW232891   5.572   7.096  11.138 -0.6700 -0.3831 -1.4514
73638SOL     OW32892   1.445   5.922  11.206 -0.5829  0.5211 -0.0841
73638SOL    HW132893   1.384   5.898  11.136  0.4389 -0.3265 -0.7128
73638SOL    HW232894   1.406   5.885  11.285  0.6902 -3.0904 -0.9404
73639SOL     OW32895   5.928   8.858   7.557  0.3868 -0.4986 -0.3788
73639SOL    HW132896   5.907   8.777   7.604  0.9150 -1.3303 -1.5449
73639SOL    HW232897   5.936   8.832   7.466 -1.5217  1.2415 -1.1298
73640SOL     OW32898   0.913  12.306   4.866 -0.0081  0.1230 -0.1151
73640SOL    HW132899   0.974  12.310   4.793  1.3519  0.5146  0.9931
73640SOL    HW232900   0.950  12.240   4.925 -0.7112  0.2870  0.5255
73641SOL     OW32901   5.575   7.849   6.990 -0.1236 -0.0249  0.0961
73641SOL    HW132902   5.582   7.860   7.085  0.5337  0.3926  0.0055
73641SOL    HW232903   5.588   7.937   6.955  0.1354 -0.2593 -0.4017
73642SOL     OW32904   8.567   5.483  10.608 -0.3382 -0.0656 -0.0828
73642SOL    HW132905   8.519   5.509  10.529  1.2114 -1.6928 -1.6545
73642SOL    HW232906   8.572   5.388  10.603  0.9637 -0.1043  1.3055
73643SOL     OW32907  11.594  10.991  10.509  0.0758 -0.2009  0.0725
73643SOL    HW132908  11.512  10.949  10.536 -0.3286 -0.3550 -1.2942
73643SOL    HW232909  11.661  10.925  10.527 -0.1029 -0.1346  1.0502
73644SOL     OW32910   0.393   6.951   8.861  0.0552  0.3829  0.5855
73644SOL    HW132911   0.306   6.940   8.898  0.2403  1.0112  1.2379
73644SOL    HW232912   0.398   7.044   8.838  1.0007  0.6506  1.7731
73645SOL     OW32913   1.868   4.832   7.546 -0.5559  0.4178  0.1895
73645SOL    HW132914   1.867   4.739   7.524  1.4776  0.8204 -2.0153
73645SOL    HW232915   1.939   4.841   7.610 -1.1378  0.4126  0.8549
73646SOL     OW32916  12.189   1.579   6.593  0.2679  0.2075  0.0587
73646SOL    HW132917  12.199   1.668   6.562 -1.0574  0.1960 -0.4555
73646SOL    HW232918  12.199   1.524   6.515  0.6658 -0.0789  0.3016
73647SOL     OW32919   3.671  11.144   8.347 -0.1454 -0.0765  0.8048
73647SOL    HW132920   3.650  11.051   8.348  0.1306 -0.3696 -3.1775
73647SOL    HW232921   3.765  11.148   8.367  0.8014 -1.2522 -2.6127
73648SOL     OW32922  10.221   2.042   8.555 -0.1306 -0.2455 -0.4731
73648SOL    HW132923  10.241   2.125   8.597 -0.1935  0.3346 -1.5471
73648SOL    HW232924  10.305   2.011   8.522  0.0567 -1.1037  0.7655
73649SOL     OW32925   1.200   9.537  11.873 -0.0564  0.1083 -0.6351
73649SOL    HW132926   1.195   9.463  11.933 -0.2403 -0.1490 -0.9678
73649SOL    HW232927   1.294   9.549  11.859 -0.0291 -0.0937 -0.6253
73650SOL     OW32928   6.900   4.370  12.214 -0.2913  0.4204  0.2609
73650SOL    HW132929   6.922   4.462  12.200  0.7684 -0.0712 -1.7639
73650SOL    HW232930   6.840   4.350  12.142  0.7950 -0.8380 -0.3455
73651SOL     OW32931  10.900   3.556   3.942  0.9836 -0.5905  0.1735
73651SOL    HW132932  10.882   3.557   3.848 -0.3759  2.1439  0.3412
73651SOL    HW232933  10.994   3.570   3.949  1.1048 -0.9007 -0.7906
73652SOL     OW32934  13.886   5.472  13.812  0.3377  0.3580  0.0612
73652SOL    HW132935  13.935   5.391  13.827 -0.1877  0.0229 -0.0386
73652SOL    HW232936  13.800   5.444  13.781 -0.0169  0.9364  0.4965
73653SOL     OW32937   5.607   4.186   7.046  0.2514  0.0708 -0.3761
73653SOL    HW132938   5.604   4.195   7.142  0.9965  0.6931 -0.4050
73653SOL    HW232939   5.658   4.261   7.016 -1.8512  1.1501 -1.4630
73654SOL     OW32940   5.068   1.374   2.877 -0.2716 -0.1589 -0.5391
73654SOL    HW132941   4.982   1.349   2.846 -0.1609  0.1798 -1.1352
73654SOL    HW232942   5.053   1.452   2.931 -0.2739  0.2215 -1.0901
73655SOL     OW32943   1.473   3.715  11.108  0.2387 -0.2839 -0.0692
73655SOL    HW132944   1.526   3.731  11.030  2.0521  0.5140  1.2717
73655SOL    HW232945   1.401   3.779  11.101  0.9686  0.5051 -0.5817
73656SOL     OW32946   9.475  10.725   9.857 -0.7149  0.2555  0.0117
73656SOL    HW132947   9.540  10.676   9.909 -0.1253  1.9301  0.9312
73656SOL    HW232948   9.528  10.787   9.807 -1.4107 -0.3637 -1.5274
73657SOL     OW32949   3.149  13.685  10.942 -0.3515 -0.5335  0.3385
73657SOL    HW132950   3.142  13.595  10.910 -1.1000 -0.6058  0.6842
73657SOL    HW232951   3.108  13.738  10.873 -1.0273 -0.5892  0.6819
73658SOL     OW32952   4.944  12.764   6.956  0.5355  0.2157  0.6664
73658SOL    HW132953   5.025  12.739   7.000 -0.8250 -2.8400  1.7181
73658SOL    HW232954   4.941  12.708   6.878 -0.3396  0.6172  0.4030
73659SOL     OW32955   4.149   2.031  12.646  0.0905 -0.1355 -0.0488
73659SOL    HW132956   4.183   2.033  12.557  1.9165  1.2047  0.6287
73659SOL    HW232957   4.225   2.013  12.701 -1.0661 -1.3651  1.2532
73660SOL     OW32958   8.714  12.593   4.648  0.6217 -0.3555  0.1726
73660SOL    HW132959   8.668  12.666   4.607 -0.1927 -0.4521  0.8851
73660SOL    HW232960   8.664  12.574   4.727 -0.1226 -2.6848 -0.7711
73661SOL     OW32961   3.550  11.416   1.094 -0.7368 -0.0723  0.2724
73661SOL    HW132962   3.525  11.377   1.011  0.1510  0.8841 -0.4780
73661SOL    HW232963   3.602  11.493   1.070  0.8086 -0.5861  1.6982
73662SOL     OW32964  11.562  12.257   2.097 -0.2164 -0.3841 -0.4760
73662SOL    HW132965  11.554  12.251   2.002 -0.1197 -1.3994 -0.4243
73662SOL    HW232966  11.651  12.230   2.116  0.4482  1.7386 -0.2346
73663SOL     OW32967  12.989  13.981  11.296  0.3152 -0.2233  0.1663
73663SOL    HW132968  13.076  13.964  11.260  0.1431  0.0406 -0.3928
73663SOL    HW232969  12.996  13.960  11.389  1.1978  0.6290  0.2984
73664SOL     OW32970   8.873   1.685   7.324  1.2496  0.3209  0.3996
73664SOL    HW132971   8.868   1.599   7.364  0.6698  0.3634  0.4274
73664SOL    HW232972   8.932   1.735   7.380  0.0291  0.5493  1.5323
73665SOL     OW32973   8.461   0.448  11.411 -0.0708 -0.0951 -0.0915
73665SOL    HW132974   8.554   0.473  11.410  0.0336 -0.2412  2.1978
73665SOL    HW232975   8.456   0.374  11.350  1.3693 -0.2729 -0.0238
73666SOL     OW32976   5.089   4.680   1.487  0.3894  0.0027  0.0060
73666SOL    HW132977   5.024   4.622   1.447  0.7734 -0.5465  0.1674
73666SOL    HW232978   5.092   4.756   1.429 -1.5816  0.7928  0.8603
73667SOL     OW32979   9.164   5.143   6.363  0.2367  0.2531 -0.2810
73667SOL    HW132980   9.072   5.170   6.359 -0.2230 -1.2254 -0.4613
73667SOL    HW232981   9.209   5.205   6.307 -1.0411 -0.3397 -2.0750
73668SOL     OW32982  11.433   9.467   6.956 -0.8956  0.1826  0.1238
73668SOL    HW132983  11.369   9.494   7.023  1.3033  1.8562  1.7159
73668SOL    HW232984  11.478   9.392   6.995 -3.2123 -2.5140 -1.9448
73669SOL     OW32985  13.758   8.672   0.482  0.1483  0.8622  0.5696
73669SOL    HW132986  13.759   8.593   0.536 -1.0277  0.0620 -0.5201
73669SOL    HW232987  13.829   8.660   0.420  1.9437  2.0863  2.2446
73670SOL     OW32988  12.049   4.345   3.343  0.4682  0.5079 -0.0020
73670SOL    HW132989  11.955   4.349   3.324  0.4938 -0.9998 -0.5516
73670SOL    HW232990  12.091   4.338   3.257  0.9674 -0.3667  0.2998
73671SOL     OW32991   0.433   0.003  11.676  0.5260 -0.4895 -0.5402
73671SOL    HW132992   0.526   0.027  11.682  0.5826 -0.8745  0.2813
73671SOL    HW232993   0.393   0.075  11.627  1.0954  0.1432 -0.0994
73672SOL     OW32994   7.383   8.973  13.114 -0.3123 -0.6119  0.2670
73672SOL    HW132995   7.329   8.932  13.046 -0.4121 -2.2559  1.2656
73672SOL    HW232996   7.451   9.020  13.066  0.2769 -2.6255 -0.9980
73673SOL     OW32997   5.552   9.695   8.300  0.7566  0.0658  0.2004
73673SOL    HW132998   5.475   9.730   8.256 -0.0416  0.0099  1.5024
73673SOL    HW232999   5.605   9.657   8.230 -0.8735 -0.8133 -0.5992
73674SOL     OW33000   8.783  10.081   0.784  0.0103  0.1124 -0.2276
73674SOL    HW133001   8.826  10.063   0.867  0.0015 -0.0899 -0.2671
73674SOL    HW233002   8.775   9.996   0.741 -1.9573 -0.1239  0.5187
73675SOL     OW33003  11.999   3.604  11.271  0.0775  0.8141 -0.6564
73675SOL    HW133004  12.020   3.554  11.350 -0.7814  1.0051 -0.2937
73675SOL    HW233005  12.019   3.545  11.199 -1.4295 -0.2916 -0.2268
73676SOL     OW33006  10.959   4.938  13.508  0.1346 -0.0697 -0.2304
73676SOL    HW133007  11.031   4.979  13.556  0.7397 -0.9358 -0.3716
73676SOL    HW233008  10.936   5.001  13.440  0.8603  0.1626 -0.2718
73677SOL     OW33009   9.192   2.215   8.489  0.3595  0.8709 -0.0109
73677SOL    HW133010   9.205   2.126   8.455  0.5986  1.7319 -2.2784
73677SOL    HW233011   9.279   2.244   8.514  0.1010 -0.0134  2.1931
73678SOL     OW33012   5.512   1.176   4.849  0.5532 -0.3977  0.3554
73678SOL    HW133013   5.492   1.130   4.767 -0.5642 -1.3483  1.1176
73678SOL    HW233014   5.442   1.149   4.909  0.7631  1.0850  1.3200
73679SOL     OW33015   2.887   6.468   7.642 -0.4275  0.2476  0.5010
73679SOL    HW133016   2.798   6.502   7.631 -0.0892  1.9515  2.3370
73679SOL    HW233017   2.898   6.460   7.737  1.7039  1.0100  0.3796
73680SOL     OW33018   7.451   4.003   8.891 -0.1991 -0.2083  0.0191
73680SOL    HW133019   7.529   3.959   8.856 -0.3807 -1.3102  0.9709
73680SOL    HW233020   7.440   4.080   8.834  0.8854 -0.6765 -0.8620
73681SOL     OW33021   8.535   4.239  11.847  0.1832 -0.0209  0.3856
73681SOL    HW133022   8.490   4.168  11.893  1.1405 -0.8723  0.0243
73681SOL    HW233023   8.534   4.312  11.909 -0.6595 -0.3904  0.8225
73682SOL     OW33024  11.369   1.541   4.392  0.0094 -0.1271  0.0568
73682SOL    HW133025  11.350   1.539   4.486  1.5476  2.1567  0.4824
73682SOL    HW233026  11.292   1.582   4.353  0.1918  0.7610  0.5984
73683SOL     OW33027   1.709   6.774   7.421 -0.1899 -0.4945  0.3166
73683SOL    HW133028   1.770   6.828   7.472  0.0812 -0.4996  0.0021
73683SOL    HW233029   1.765   6.708   7.380 -0.0342  0.9566 -1.9652
73684SOL     OW33030   8.512  13.844   5.007  0.0763 -0.0448  0.8865
73684SOL    HW133031   8.554  13.775   4.955  1.5363  0.5006  1.3063
73684SOL    HW233032   8.573  13.860   5.079  0.0744  2.1307  0.4454
73685SOL     OW33033  13.571   6.325   6.240  0.4430 -0.5026 -1.0011
73685SOL    HW133034  13.498   6.342   6.180 -1.4825  1.0760  1.6012
73685SOL    HW233035  13.590   6.232   6.230 -1.7236 -0.8911 -1.9804
73686SOL     OW33036  12.314  11.939  12.048  0.1274 -0.0674  0.0393
73686SOL    HW133037  12.239  11.916  11.993 -0.7655  1.8412  0.3635
73686SOL    HW233038  12.287  11.915  12.136  1.3212 -2.5654 -0.1984
73687SOL     OW33039   1.471   1.661   7.466 -0.1970  0.2042  0.4167
73687SOL    HW133040   1.564   1.682   7.476 -0.2762  0.5396  0.4711
73687SOL    HW233041   1.436   1.666   7.555 -0.6707  2.0615  0.1740
73688SOL     OW33042   1.410  11.519   3.336  0.0953  0.0565 -0.4892
73688SOL    HW133043   1.455  11.584   3.390 -1.3015 -0.4801  1.4589
73688SOL    HW233044   1.342  11.568   3.291  0.2485  0.2584 -0.4997
73689SOL     OW33045   3.047  12.635   4.864  0.6964  0.1001  0.3346
73689SOL    HW133046   3.127  12.587   4.841  0.9125  0.3581  0.5409
73689SOL    HW233047   2.978  12.569   4.862  1.1666 -0.4824  1.7505
73690SOL     OW33048   1.025   3.960   2.226  0.0971 -0.0870 -0.1847
73690SOL    HW133049   0.971   4.036   2.203 -0.9204 -0.9459 -0.7033
73690SOL    HW233050   1.106   3.998   2.259 -0.5035  1.2308 -0.1557
73691SOL     OW33051   1.137   4.286  12.153 -0.1530  0.2942 -0.3857
73691SOL    HW133052   1.212   4.335  12.187 -0.7771  1.4440 -0.6375
73691SOL    HW233053   1.172   4.235  12.080  0.6746 -0.2887  0.3967
73692SOL     OW33054   8.204   4.606   4.582 -0.2035  0.4067 -0.5201
73692SOL    HW133055   8.215   4.654   4.501 -1.3869  0.8218 -0.4538
73692SOL    HW233056   8.121   4.559   4.571 -0.7824  1.0787  0.7343
73693SOL     OW33057   1.534   5.153  12.903  0.4872  0.7048  0.3619
73693SOL    HW133058   1.439   5.143  12.910  0.4720 -2.1051 -1.9290
73693SOL    HW233059   1.568   5.112  12.982 -0.1986  0.5296  0.5776
73694SOL     OW33060  11.803   1.868   7.209  0.3813 -0.0060  0.0855
73694SOL    HW133061  11.708   1.874   7.221  0.3813  1.3327 -0.4207
73694SOL    HW233062  11.831   1.806   7.277 -0.8928 -0.7525 -0.0308
73695SOL     OW33063   1.618   7.161  13.080  0.4576 -0.6730 -0.3649
73695SOL    HW133064   1.547   7.112  13.121  0.4357 -0.5180 -0.2151
73695SOL    HW233065   1.578   7.202  13.003  0.0476  0.4626  0.4166
73696SOL     OW33066   8.355   8.294  10.996 -0.0641 -0.3626 -0.2975
73696SOL    HW133067   8.418   8.227  11.024  0.1979  0.4386  1.1442
73696SOL    HW233068   8.388   8.374  11.036 -1.3138  0.3093 -0.5964
73697SOL     OW33069  10.557  10.982   4.687 -0.7357  0.1172  0.2245
73697SOL    HW133070  10.630  11.026   4.645 -0.8549  1.2702  1.1645
73697SOL    HW233071  10.505  10.947   4.615 -0.0144  0.5191 -0.5028
73698SOL     OW33072   4.413   6.272   3.691  0.0153  0.2711  0.5248
73698SOL    HW133073   4.493   6.291   3.642 -1.1498  0.9802 -1.2165
73698SOL    HW233074   4.388   6.357   3.728 -1.4542  0.7518 -1.4115
73699SOL     OW33075   2.706   9.749   8.791 -0.2688 -0.0111  0.6608
73699SOL    HW133076   2.727   9.670   8.841  1.3265 -1.6808 -2.3402
73699SOL    HW233077   2.642   9.795   8.845 -0.1078 -2.5388  3.2876
73700SOL     OW33078  11.021  11.711  12.878 -0.0583 -0.1653 -0.2832
73700SOL    HW133079  11.044  11.659  12.802  1.0315  0.3846 -0.3432
73700SOL    HW233080  11.104  11.731  12.920 -0.6036 -0.0083  0.7607
73701SOL     OW33081   1.322   8.292  12.209  0.3228 -0.0920  0.3259
73701SOL    HW133082   1.411   8.318  12.185  0.4198  1.3614  2.0320
73701SOL    HW233083   1.267   8.364  12.178  0.2223  0.8008  2.3744
73702SOL     OW33084   2.824  13.315   7.483 -0.2430 -0.5500 -0.5542
73702SOL    HW133085   2.863  13.243   7.534  1.8912  2.0899  1.9039
73702SOL    HW233086   2.800  13.275   7.400  0.3857 -4.1685  0.8165
73703SOL     OW33087  11.472  11.772   5.473  0.8378  0.4853 -0.1592
73703SOL    HW133088  11.458  11.809   5.560  1.0442 -0.9125  0.4954
73703SOL    HW233089  11.429  11.687   5.476  1.5124  0.0907 -1.1642
73704SOL     OW33090  11.024  12.762   6.736 -0.0354 -0.1104 -0.1552
73704SOL    HW133091  11.056  12.775   6.647  1.3877  1.3431  0.5226
73704SOL    HW233092  10.942  12.811   6.740 -0.2454 -0.3972 -0.7024
73705SOL     OW33093   8.569   2.421   8.455  0.1598 -0.3201  0.1909
73705SOL    HW133094   8.560   2.454   8.545 -0.5226  2.6509 -0.8571
73705SOL    HW233095   8.489   2.372   8.440  0.1843 -0.6672  1.1260
73706SOL     OW33096  12.455   2.153   1.011 -0.1055 -0.2862 -0.3716
73706SOL    HW133097  12.495   2.100   0.942  1.4796 -0.3967  0.5650
73706SOL    HW233098  12.461   2.097   1.089 -0.9082  0.2383  0.0766
73707SOL     OW33099  14.040  12.785   1.151 -0.3085 -0.2944  0.0489
73707SOL    HW133100  14.047  12.794   1.246 -0.7278 -1.5016  0.2158
73707SOL    HW233101  14.116  12.733   1.125 -0.6586 -0.7282 -0.1394
73708SOL     OW33102   4.819   9.353   2.217 -0.3480  0.4643  0.2786
73708SOL    HW133103   4.908   9.358   2.185 -0.6707 -3.4431 -1.7740
73708SOL    HW233104   4.780   9.438   2.193  2.6265  2.1982  1.0818
73709SOL     OW33105   8.921   5.740  12.748  0.0393  0.1975 -0.3650
73709SOL    HW133106   8.890   5.765  12.661  0.1089  2.3131  0.1856
73709SOL    HW233107   8.847   5.756  12.806 -0.3311 -2.1042 -0.1076
73710SOL     OW33108  10.647   7.725   8.697 -0.3468 -0.4026  0.7257
73710SOL    HW133109  10.717   7.662   8.680 -1.1335 -1.2327  0.4698
73710SOL    HW233110  10.608   7.696   8.779 -1.1865 -0.7010  0.2349
73711SOL     OW33111   1.061  12.246   9.154  0.0635 -0.1791  0.1055
73711SOL    HW133112   1.134  12.279   9.101  1.5686 -1.3762  1.3507
73711SOL    HW233113   1.032  12.167   9.109  0.7804 -0.7191  0.5578
73712SOL     OW33114   6.899  11.402   9.882  0.1081 -0.2821  0.0675
73712SOL    HW133115   6.877  11.409   9.975 -0.8676 -0.4532 -0.1353
73712SOL    HW233116   6.994  11.410   9.879 -0.0326  4.3589  0.6797
73713SOL     OW33117   2.962   8.587   3.487  0.7088 -0.4839  0.2153
73713SOL    HW133118   2.916   8.540   3.557 -0.8603  0.6372 -0.0144
73713SOL    HW233119   2.946   8.679   3.506  1.1773 -0.1352 -1.0143
73714SOL     OW33120   1.077   0.595   2.748  0.0727 -0.3599  0.7254
73714SOL    HW133121   1.057   0.640   2.666  2.4150 -0.6776 -0.0953
73714SOL    HW233122   1.151   0.643   2.784  1.2781 -2.2236  0.8814
73715SOL     OW33123  11.776   6.494   4.884 -0.1623 -0.0876 -0.1802
73715SOL    HW133124  11.760   6.405   4.852 -0.0154  0.5731 -2.1871
73715SOL    HW233125  11.692   6.539   4.872 -0.2546  0.0529  0.8890
73716SOL     OW33126   0.182  12.906   7.018 -0.8135 -0.2776 -0.0575
73716SOL    HW133127   0.253  12.958   7.055  0.3173 -0.4376 -1.8811
73716SOL    HW233128   0.189  12.821   7.063 -0.2762 -0.0699  0.2674
73717SOL     OW33129   7.418   9.389   3.181  0.0858  0.4391  0.4754
73717SOL    HW133130   7.372   9.473   3.189 -1.1492  0.1467 -2.3752
73717SOL    HW233131   7.509   9.414   3.165 -0.3776  1.3277 -1.0285
73718SOL     OW33132   7.666  10.210   5.696 -0.6943  0.1085 -0.3443
73718SOL    HW133133   7.593  10.246   5.645 -0.1966  1.4646 -0.1155
73718SOL    HW233134   7.635  10.123   5.723 -2.0709  0.5102 -0.5628
73719SOL     OW33135   1.423   8.922   1.388 -0.2457 -0.0817  0.1575
73719SOL    HW133136   1.403   8.955   1.475 -0.4204  1.2715 -0.3814
73719SOL    HW233137   1.519   8.921   1.383 -0.2405  0.1477  0.2421
73720SOL     OW33138  13.196   4.193   4.930  0.0156 -0.2145 -0.2812
73720SOL    HW133139  13.218   4.101   4.918  0.9303 -0.0765  0.2065
73720SOL    HW233140  13.246   4.220   5.008 -1.7919  0.1868  0.7985
73721SOL     OW33141   7.543   8.090   2.607  0.3290  0.3200 -0.0028
73721SOL    HW133142   7.535   8.158   2.540  2.6440  0.0632 -0.6395
73721SOL    HW233143   7.481   8.023   2.581 -1.4330  1.7976  0.1924
73722SOL     OW33144   7.731   1.106  11.675  0.0950  0.2855 -0.0020
73722SOL    HW133145   7.724   1.029  11.619 -0.6416  1.1887 -1.2126
73722SOL    HW233146   7.673   1.089  11.749 -2.3417  0.8325 -1.6985
73723SOL     OW33147   8.804  10.716   0.612  0.1081 -0.2233 -0.4240
73723SOL    HW133148   8.739  10.772   0.570  2.2279 -0.0556 -3.8577
73723SOL    HW233149   8.792  10.631   0.570 -0.2298 -1.2403  1.6132
73724SOL     OW33150   4.688   4.914   9.668 -0.4573 -0.0384 -0.1071
73724SOL    HW133151   4.673   4.873   9.754 -2.0006 -0.7252 -0.6811
73724SOL    HW233152   4.610   4.893   9.617 -0.4508  2.0435 -1.0601
73725SOL     OW33153   8.916   7.408  13.648  0.7984  0.4091 -0.6534
73725SOL    HW133154   8.893   7.371  13.733  1.1274 -0.8808 -1.0981
73725SOL    HW233155   9.011   7.398  13.643  1.1304  2.7531 -0.1693
73726SOL     OW33156  10.790  13.210  10.650 -0.1384 -0.8287 -0.7764
73726SOL    HW133157  10.748  13.130  10.682  0.5620  0.3023  3.5150
73726SOL    HW233158  10.883  13.197  10.666  0.0535  0.5781 -0.6518
73727SOL     OW33159   9.049  13.319  11.647  0.5863  0.5407 -0.4982
73727SOL    HW133160   9.101  13.338  11.569 -2.7233  1.5996 -2.6310
73727SOL    HW233161   9.027  13.405  11.682 -1.1518  0.2098 -0.7069
73728SOL     OW33162   1.121  11.020  12.246 -0.0428  0.1980  0.1146
73728SOL    HW133163   1.157  10.935  12.273  1.1748  1.2536  1.9951
73728SOL    HW233164   1.028  11.002  12.231  0.1620 -1.4535  0.5441
73729SOL     OW33165  10.333   4.823   9.052 -0.2418  0.1263  0.1256
73729SOL    HW133166  10.414   4.823   9.002 -0.8646 -1.5721 -0.9815
73729SOL    HW233167  10.264   4.821   8.985 -1.1878  0.7338  1.0467
73730SOL     OW33168   8.137   5.252  10.425  0.4814  0.4647 -0.1135
73730SOL    HW133169   8.128   5.320  10.492 -2.3468 -0.9287  1.0625
73730SOL    HW233170   8.138   5.170  10.473  1.3428 -0.4828 -1.6549
73731SOL     OW33171   1.011   8.310  12.815  0.6410 -0.2208  0.0801
73731SOL    HW133172   1.000   8.384  12.755 -0.7070 -0.9746 -0.6697
73731SOL    HW233173   1.074   8.340  12.880  1.4252  0.9694 -1.1797
73732SOL     OW33174   0.418   7.148   0.135 -0.6017  0.4853  0.4671
73732SOL    HW133175   0.441   7.228   0.087 -1.3701  0.7019  0.4433
73732SOL    HW233176   0.445   7.166   0.225  0.4505  0.2450  0.2083
73733SOL     OW33177   4.298   0.042   0.962 -0.1226 -0.9824  0.2571
73733SOL    HW133178   4.286   0.028   0.868  2.0077 -2.0386  0.0626
73733SOL    HW233179   4.362  -0.025   0.988 -0.9448 -0.9767  2.5542
73734SOL     OW33180   0.811  13.937   7.607 -0.2156 -0.1003 -0.3304
73734SOL    HW133181   0.824  14.032   7.606 -0.2333 -0.0425  1.7141
73734SOL    HW233182   0.896  13.902   7.635 -0.6196 -0.5921  0.2750
73735SOL     OW33183   7.682   2.762  11.932  0.4575  0.7490  0.0496
73735SOL    HW133184   7.683   2.811  11.850 -1.4895 -0.5907 -0.8474
73735SOL    HW233185   7.670   2.671  11.906 -0.6286  0.3286  1.8074
73736SOL     OW33186  13.381   1.637  13.406 -0.3015 -0.2760  0.2080
73736SOL    HW133187  13.423   1.602  13.485 -2.1479 -0.5719  1.1297
73736SOL    HW233188  13.437   1.609  13.334  1.1017 -0.5457  1.3671
73737SOL     OW33189  10.979  10.825   7.480  0.1852 -0.4869  0.1464
73737SOL    HW133190  10.900  10.854   7.525 -0.6616 -0.6146 -1.1968
73737SOL    HW233191  11.003  10.743   7.524 -0.4557 -0.4734  0.5325
73738SOL     OW33192   7.857   9.413   7.936  0.9135  0.2560 -0.1704
73738SOL    HW133193   7.763   9.421   7.921  0.7164  0.3842  0.9890
73738SOL    HW233194   7.875   9.478   8.005  1.3111 -1.7245  1.6827
73739SOL     OW33195   6.629   6.925  12.858  0.0442 -0.2838  0.2333
73739SOL    HW133196   6.657   7.013  12.834 -0.6112 -0.6157 -2.0384
73739SOL    HW233197   6.709   6.879  12.883  0.4854  0.7195  0.7205
73740SOL     OW33198  11.442   7.237   3.271 -0.2883  0.0210 -0.3938
73740SOL    HW133199  11.374   7.216   3.206  0.2592 -2.4360 -0.2800
73740SOL    HW233200  11.393   7.254   3.352 -0.8505  0.1660 -0.7550
73741SOL     OW33201  13.466   3.605   0.967  0.0878  0.3070 -0.2493
73741SOL    HW133202  13.416   3.556   0.902 -0.8928  0.7846  0.1217
73741SOL    HW233203  13.407   3.612   1.042  0.9406  0.3661  0.4323
73742SOL     OW33204   9.182  11.528   0.480  0.1306 -0.2088  0.1368
73742SOL    HW133205   9.264  11.485   0.455 -0.8162 -1.7580 -0.3829
73742SOL    HW233206   9.161  11.584   0.405  1.1122  0.8453  0.6135
73743SOL     OW33207  13.916   6.871   0.189  0.4010  0.2319 -0.0962
73743SOL    HW133208  14.010   6.874   0.169  0.7509 -0.8884  1.2114
73743SOL    HW233209  13.911   6.895   0.282 -0.5289 -0.3595  0.0174
73744SOL     OW33210   3.964  11.511   7.800  0.2204 -0.3496 -0.1536
73744SOL    HW133211   4.044  11.562   7.815 -0.0236  0.1624 -0.5531
73744SOL    HW233212   3.899  11.576   7.775 -0.1893 -0.8238 -0.3397
73745SOL     OW33213   8.918   2.721   6.012 -0.4735 -0.0248  0.5492
73745SOL    HW133214   8.929   2.702   5.918  0.7384 -0.8722  0.8401
73745SOL    HW233215   8.825   2.704   6.028 -0.3187 -1.7966 -0.1203
73746SOL     OW33216   1.086   5.509  13.916  0.5329  0.1688  0.1913
73746SOL    HW133217   1.060   5.533  14.005 -1.2445 -0.0419 -0.2329
73746SOL    HW233218   1.182   5.503  13.920  0.4914  0.0311  2.1078
73747SOL     OW33219   5.872   2.837   9.216 -0.6779  0.1529  0.2010
73747SOL    HW133220   5.907   2.757   9.176 -0.4132  1.1299 -1.6434
73747SOL    HW233221   5.943   2.901   9.207 -1.2502  0.8735  0.7338
73748SOL     OW33222   3.117   1.357   7.882  0.1904  0.1052 -0.6815
73748SOL    HW133223   3.088   1.369   7.972 -0.3443 -2.8392 -0.3383
73748SOL    HW233224   3.164   1.273   7.883  0.8635  0.3803 -2.9871
73749SOL     OW33225   0.632   0.280   0.872 -0.4410  0.5459 -0.1310
73749SOL    HW133226   0.674   0.306   0.954 -0.0855  0.9268 -0.4218
73749SOL    HW233227   0.538   0.286   0.889 -0.5137 -2.6104  1.2729
73750SOL     OW33228   7.788   6.285  10.455 -0.2266  0.2850 -0.2742
73750SOL    HW133229   7.877   6.308  10.430  0.6933 -2.6991 -0.2180
73750SOL    HW233230   7.753   6.363  10.498  2.9823  0.9823  1.3287
73751SOL     OW33231  10.830   6.673  11.187  0.5828 -0.3745  0.1412
73751SOL    HW133232  10.922   6.648  11.189  0.6884  0.0231  0.9150
73751SOL    HW233233  10.827   6.757  11.233 -0.1169 -0.2174 -0.1736
73752SOL     OW33234   9.443   6.985  14.031  0.3137  0.1613  0.1438
73752SOL    HW133235   9.448   6.948  14.119  0.9753  0.7231  0.3535
73752SOL    HW233236   9.410   6.913  13.976 -0.8853  0.0522  0.9754
73753SOL     OW33237   2.350   2.256   2.211 -0.0376  0.0685  0.1423
73753SOL    HW133238   2.302   2.334   2.238  0.3672 -0.2788  1.9762
73753SOL    HW233239   2.300   2.183   2.246 -0.2637 -0.5275 -1.3254
73754SOL     OW33240   1.323   7.208  12.953  0.4238 -0.1450 -0.2130
73754SOL    HW133241   1.286   7.254  12.878  0.5318  0.1621 -0.0812
73754SOL    HW233242   1.399   7.162  12.919  0.2699 -0.2931 -0.3623
73755SOL     OW33243  12.443   5.468   1.620  0.3407 -0.0296  0.1141
73755SOL    HW133244  12.472   5.512   1.541  0.5259  1.2514  0.8737
73755SOL    HW233245  12.398   5.389   1.589  0.7549  0.2473 -1.2315
73756SOL     OW33246   8.212   1.124  11.347  0.4639 -0.2244 -0.2220
73756SOL    HW133247   8.252   1.042  11.319 -0.9285 -0.3027 -2.1975
73756SOL    HW233248   8.206   1.177  11.267 -1.1767  0.6785  0.4434
73757SOL     OW33249   5.735  12.544   1.286  0.8555  0.3730  0.2149
73757SOL    HW133250   5.814  12.561   1.235  0.4717  2.8704  0.3136
73757SOL    HW233251   5.663  12.563   1.226  0.2306 -2.7765 -0.1696
73758SOL     OW33252   9.966   5.752  10.624 -0.3736  0.0078 -0.5256
73758SOL    HW133253  10.012   5.719  10.701  0.4286  0.3392 -0.8423
73758SOL    HW233254   9.877   5.719  10.632 -0.7969  1.4727  1.4417
73759SOL     OW33255  12.566   9.897   5.764 -0.0787 -0.3475 -0.6663
73759SOL    HW133256  12.660   9.906   5.748  0.1075 -0.4516  0.3199
73759SOL    HW233257  12.553   9.803   5.776 -0.0781 -0.2172  0.4689
73760SOL     OW33258   1.945   1.383  12.158 -0.0913 -0.7137  0.0890
73760SOL    HW133259   1.934   1.292  12.130  0.2635 -0.0163 -2.6824
73760SOL    HW233260   1.960   1.431  12.076  1.4520  1.5903  1.5960
73761SOL     OW33261   8.043   7.236   9.906  0.0051 -0.0373  0.1294
73761SOL    HW133262   8.040   7.283   9.823 -0.1275  1.5413  0.9917
73761SOL    HW233263   7.952   7.215   9.925  0.0861 -0.9000 -0.3735
73762SOL     OW33264   2.976   5.149   6.972 -0.1712  0.2456 -0.2059
73762SOL    HW133265   3.027   5.068   6.977 -0.5608  0.0143  0.0480
73762SOL    HW233266   2.930   5.153   7.055 -0.9369  0.2087 -0.6240
73763SOL     OW33267   1.963   5.080   7.801 -0.5517 -0.2746  0.6823
73763SOL    HW133268   1.996   4.996   7.770  1.9425  0.3126  1.5655
73763SOL    HW233269   1.873   5.085   7.766  0.0165 -2.2730 -1.2651
73764SOL     OW33270   9.335   3.941   8.522  0.7235  0.5842  0.1682
73764SOL    HW133271   9.423   3.934   8.559  0.7177 -0.8966 -0.0249
73764SOL    HW233272   9.327   4.033   8.497  1.4844  1.1824  1.9366
73765SOL     OW33273   5.283  13.149   9.480  0.0846 -0.3120  0.1956
73765SOL    HW133274   5.345  13.173   9.549 -0.6272  2.1095  0.0690
73765SOL    HW233275   5.203  13.125   9.526 -0.4018  1.3401  0.2548
73766SOL     OW33276  13.903   9.433  11.712 -0.1784 -0.8709  0.3885
73766SOL    HW133277  13.892   9.383  11.793 -0.7556  1.7452  2.0443
73766SOL    HW233278  13.892   9.524  11.738 -0.6479  0.0855 -2.7140
73767SOL     OW33279   9.228  13.497   6.438 -0.3571 -0.2251 -0.5586
73767SOL    HW133280   9.281  13.510   6.517  1.0089 -2.0197 -1.0956
73767SOL    HW233281   9.290  13.510   6.366 -1.7234  2.0129 -1.4063
73768SOL     OW33282   7.451   1.191   2.976 -0.3227 -0.8932  0.0613
73768SOL    HW133283   7.424   1.249   2.904  0.1347  0.0809  0.6628
73768SOL    HW233284   7.369   1.154   3.009 -0.7652  0.4740  0.5533
73769SOL     OW33285   9.266   3.620   2.386  0.2194  0.3705 -0.0128
73769SOL    HW133286   9.277   3.709   2.354  0.8835 -0.0795 -1.0775
73769SOL    HW233287   9.334   3.610   2.453 -0.6341  1.0352  0.9933
73770SOL     OW33288  12.200   8.419   9.962 -0.7990 -0.5792 -0.3087
73770SOL    HW133289  12.171   8.460  10.043 -1.4096 -1.1970 -0.1989
73770SOL    HW233290  12.118   8.396   9.916 -0.6765 -4.1138  0.8864
73771SOL     OW33291   4.062   9.893  12.326 -0.8627 -0.0258 -0.1004
73771SOL    HW133292   4.106   9.819  12.283 -0.2177  0.0017  0.4884
73771SOL    HW233293   4.081   9.968  12.270 -1.1044 -0.2167 -0.4413
73772SOL     OW33294   2.492   5.916  12.473 -0.3566 -0.2902 -0.4595
73772SOL    HW133295   2.518   5.830  12.507  1.2270  1.4074  3.2020
73772SOL    HW233296   2.492   5.972  12.550 -1.3202  3.0358 -2.6988
73773SOL     OW33297   0.995  12.234  10.396 -1.0517  0.0142 -0.2478
73773SOL    HW133298   1.002  12.142  10.421  0.7211  0.5781  1.4968
73773SOL    HW233299   1.085  12.264  10.389 -1.6015  1.4990 -1.3659
73774SOL     OW33300   2.251   9.182  12.253 -0.2301 -0.2173  0.4486
73774SOL    HW133301   2.346   9.186  12.259 -0.1885 -0.8583  0.3575
73774SOL    HW233302   2.226   9.257  12.200  0.2642 -0.3079  0.0883
73775SOL     OW33303   1.743   3.726   9.804  0.2981 -0.0110  0.3867
73775SOL    HW133304   1.771   3.785   9.735 -1.0345 -0.2993 -0.4398
73775SOL    HW233305   1.802   3.745   9.878  0.5854  1.5652 -0.2144
73776SOL     OW33306   5.761   9.378  13.525 -0.0506  0.1168  0.2133
73776SOL    HW133307   5.806   9.411  13.603  0.8932 -0.6790  0.0254
73776SOL    HW233308   5.831   9.341  13.471 -0.3769  2.3989 -1.9582
73777SOL     OW33309  12.105   8.572   9.420 -0.1792 -0.0389 -0.6101
73777SOL    HW133310  12.152   8.489   9.424 -0.2666 -0.0832 -0.4861
73777SOL    HW233311  12.063   8.579   9.506 -1.1235 -0.4255 -1.0255
73778SOL     OW33312  11.669   1.571   8.312 -0.0011  0.3905  0.5979
73778SOL    HW133313  11.714   1.487   8.308 -0.4986  0.1523 -2.1101
73778SOL    HW233314  11.578   1.551   8.288 -0.2012  1.6362  0.2099
73779SOL     OW33315   9.998   5.746   3.918 -0.2523  0.4987  0.2078
73779SOL    HW133316   9.982   5.721   3.827  0.7035  0.6697 -0.0213
73779SOL    HW233317   9.915   5.731   3.963 -0.5791 -0.1011 -0.5826
73780SOL     OW33318   6.910  10.106   9.513  0.1958  0.4234 -0.2327
73780SOL    HW133319   6.827  10.150   9.533 -1.0077 -2.1734  0.9013
73780SOL    HW233320   6.896  10.065   9.428  0.0149 -0.6065  0.2762
73781SOL     OW33321   7.080   0.439   7.208 -0.0703 -0.6522 -0.1019
73781SOL    HW133322   6.994   0.434   7.166  0.4793 -1.5715 -1.1498
73781SOL    HW233323   7.070   0.508   7.274 -1.9891 -1.6089  0.6938
73782SOL     OW33324   8.544  10.488   1.926  0.0707 -0.7453  0.1489
73782SOL    HW133325   8.559  10.440   1.845  0.7719 -4.0905  2.0635
73782SOL    HW233326   8.613  10.554   1.929  1.9776 -2.6051 -0.5946
73783SOL     OW33327   2.558  11.223   3.636 -0.2535  0.1903  0.4089
73783SOL    HW133328   2.607  11.189   3.561  0.2196  2.2602 -0.3027
73783SOL    HW233329   2.471  11.242   3.602 -0.9381 -1.4685  1.1335
73784SOL     OW33330  12.634  12.376   5.437  0.0466 -0.0471 -0.4870
73784SOL    HW133331  12.647  12.463   5.474  1.1609  0.5867 -2.2394
73784SOL    HW233332  12.611  12.321   5.512  0.5747  1.4806  0.8479
73785SOL     OW33333   4.545   9.158  12.939  0.0387 -0.2417  0.0545
73785SOL    HW133334   4.465   9.208  12.959  0.7435  0.6096  0.7948
73785SOL    HW233335   4.579   9.132  13.025  1.3280  0.6376 -0.1670
73786SOL     OW33336  11.640  12.287   7.220  0.0382 -0.2312  0.1181
73786SOL    HW133337  11.670  12.370   7.184 -0.4791 -0.7228 -1.5141
73786SOL    HW233338  11.706  12.264   7.285  0.8215  0.8638 -0.2582
73787SOL     OW33339   4.242   1.106  10.340  1.1555  0.6018 -0.2325
73787SOL    HW133340   4.217   1.187  10.295  0.2288  0.7574  0.5268
73787SOL    HW233341   4.229   1.037  10.275  1.0472  0.9607 -0.5921
73788SOL     OW33342   4.514   0.457   2.289  0.0917  0.0882 -0.2114
73788SOL    HW133343   4.457   0.511   2.235 -0.2818 -0.1784 -0.0856
73788SOL    HW233344   4.595   0.507   2.296  0.3758 -0.1505 -1.5584
73789SOL     OW33345   5.916  13.648  12.509  0.0821  0.0885 -0.3920
73789SOL    HW133346   5.943  13.711  12.576 -0.7708 -0.0211  0.0643
73789SOL    HW233347   5.849  13.594  12.552 -0.5119  0.0497 -1.3377
73790SOL     OW33348  12.530   6.071  12.122 -0.1938 -0.2980 -0.1032
73790SOL    HW133349  12.448   6.031  12.094 -0.1679 -0.2690 -0.2207
73790SOL    HW233350  12.509   6.164  12.134 -0.6128 -0.5908  1.5824
73791SOL     OW33351  11.924  12.916   6.283  0.4123 -0.4615  0.2650
73791SOL    HW133352  12.008  12.955   6.259  0.0184  0.5060  0.3811
73791SOL    HW233353  11.912  12.843   6.222  0.8227  0.0894 -0.4875
73792SOL     OW33354   9.079   4.969  10.056 -0.0285 -0.0080 -1.0200
73792SOL    HW133355   9.152   5.011  10.102 -0.4905  1.7639 -1.8158
73792SOL    HW233356   9.104   4.972   9.964 -0.5488 -0.5910 -1.1873
73793SOL     OW33357  10.405   6.593   5.584 -0.1579  0.2580 -0.2660
73793SOL    HW133358  10.460   6.654   5.534  0.6082  0.4780  0.8009
73793SOL    HW233359  10.330   6.575   5.527  0.8265  0.2598 -1.6118
73794SOL     OW33360   4.202   8.793   8.968 -0.1620  0.1549  0.3900
73794SOL    HW133361   4.193   8.737   9.045  3.0736  0.9194  1.5006
73794SOL    HW233362   4.234   8.735   8.899 -3.2836 -0.5805 -0.6282
73795SOL     OW33363   6.475  11.447  13.380 -0.3525 -0.7909  0.0288
73795SOL    HW133364   6.570  11.449  13.386 -0.3211 -1.3379 -0.2125
73795SOL    HW233365   6.449  11.376  13.439 -0.5038 -1.5870 -0.9731
73796SOL     OW33366   2.434   7.040  13.533  0.4523  0.3985 -0.1780
73796SOL    HW133367   2.356   7.085  13.500 -0.2611 -1.2089 -0.7854
73796SOL    HW233368   2.411   6.947  13.530  1.4037  0.0233  2.2358
73797SOL     OW33369   2.546  13.678   4.020  0.7182  0.3736 -0.2796
73797SOL    HW133370   2.572  13.736   3.948  1.0090 -1.0592 -1.3698
73797SOL    HW233371   2.478  13.622   3.982  2.3208 -1.7927 -0.0985
73798SOL     OW33372   5.205  13.422   4.251 -0.4173 -0.4795  0.2141
73798SOL    HW133373   5.223  13.390   4.339 -1.0688 -0.4387  0.3690
73798SOL    HW233374   5.197  13.517   4.260  0.1301 -0.4123  0.0003
73799SOL     OW33375   4.541   3.247  10.668 -0.2723  0.3473 -0.1707
73799SOL    HW133376   4.620   3.278  10.623  0.9938  1.4919  2.5943
73799SOL    HW233377   4.485   3.324  10.674 -0.1711  0.3658  0.6446
73800SOL     OW33378   5.516   7.628   9.351 -0.3552  0.1978 -0.2647
73800SOL    HW133379   5.550   7.709   9.315 -0.6096  0.1955 -0.5134
73800SOL    HW233380   5.439   7.655   9.402  0.7290  0.3704  1.3708
73801SOL     OW33381   0.583   4.706   6.255  0.1533  0.1835 -0.0634
73801SOL    HW133382   0.672   4.689   6.224 -0.0996 -1.2131 -0.1007
73801SOL    HW233383   0.529   4.702   6.176  0.0355  0.9144 -0.0263
73802SOL     OW33384   5.472   5.830  10.763 -0.8054 -0.4699  0.0786
73802SOL    HW133385   5.463   5.736  10.747  1.1181 -0.5034 -1.1849
73802SOL    HW233386   5.442   5.872  10.683 -1.4934  0.0039  0.5729
73803SOL     OW33387   3.305   1.818  10.644 -0.0652  0.1483  0.1552
73803SOL    HW133388   3.322   1.818  10.739  0.5345  2.5186  0.1006
73803SOL    HW233389   3.303   1.725  10.621  1.1956 -0.4781  2.2458
73804SOL     OW33390   6.884   7.686   8.661  0.3952 -0.1104  0.4219
73804SOL    HW133391   6.904   7.593   8.658  0.4214 -0.1273  1.0653
73804SOL    HW233392   6.954   7.724   8.714  0.4676  0.2964  0.0394
73805SOL     OW33393  11.862  13.173  12.580 -0.2291  0.1810  0.2059
73805SOL    HW133394  11.850  13.146  12.489  1.5069 -0.8578  0.2400
73805SOL    HW233395  11.928  13.242  12.577  0.2069 -0.2056  0.7105
73806SOL     OW33396   4.199  12.436   8.297 -0.6389  0.3674 -0.0576
73806SOL    HW133397   4.167  12.482   8.375 -0.6048 -0.4985  0.4731
73806SOL    HW233398   4.195  12.343   8.320 -0.0201  0.1309 -0.8623
73807SOL     OW33399   2.184   1.255   0.755 -0.1167  0.2850  0.1480
73807SOL    HW133400   2.144   1.222   0.674  0.4853  1.0675 -0.4811
73807SOL    HW233401   2.278   1.251   0.739 -0.0086  2.8085 -0.1973
73808SOL     OW33402   5.057   8.648   8.933 -0.1006 -0.0811 -0.1838
73808SOL    HW133403   5.049   8.584   9.004 -1.7553  1.7321  1.3580
73808SOL    HW233404   4.968   8.659   8.901  0.2746  0.9024 -0.9382
73809SOL     OW33405   7.942   7.777   6.456 -0.0482 -0.6063  0.2418
73809SOL    HW133406   8.004   7.809   6.390  0.6423 -1.2141  0.5861
73809SOL    HW233407   7.859   7.817   6.431  0.7189  1.2436  0.5049
73810SOL     OW33408   9.461  10.608   0.986 -0.2919 -0.8164  0.4269
73810SOL    HW133409   9.477  10.690   0.939 -0.2599 -0.5039  0.9729
73810SOL    HW233410   9.424  10.635   1.070 -1.7710 -1.4269  0.0034
73811SOL     OW33411   1.472   5.521  13.674 -0.3084  0.5320 -0.3169
73811SOL    HW133412   1.565   5.522  13.654 -0.2532 -1.2956 -0.2811
73811SOL    HW233413   1.431   5.569  13.602  0.5610  0.5572 -0.8035
73812SOL     OW33414   0.728   2.604   5.710  0.1646  0.0651  0.2513
73812SOL    HW133415   0.737   2.561   5.795 -1.3210 -0.3915  0.2018
73812SOL    HW233416   0.698   2.692   5.731 -2.4904 -0.7341  0.1843
73813SOL     OW33417  10.208  12.010  10.888 -0.2375  0.2562 -0.1745
73813SOL    HW133418  10.196  12.102  10.862  1.4586  0.3936 -0.6000
73813SOL    HW233419  10.120  11.973  10.885 -0.9397  1.8254 -0.1427
73814SOL     OW33420  11.955   2.055   4.879  0.1190  0.1581  0.2865
73814SOL    HW133421  11.888   2.050   4.948  0.3181 -1.2931  0.4174
73814SOL    HW233422  11.975   2.148   4.872  0.2169  0.3435  2.3123
73815SOL     OW33423   0.627  12.950   5.200 -0.2681  0.1216 -0.0920
73815SOL    HW133424   0.695  12.947   5.267 -1.1911 -2.4158  0.8548
73815SOL    HW233425   0.667  12.909   5.123 -0.7842 -1.8604  0.6279
73816SOL     OW33426   3.429  12.007   6.537 -0.2698  0.1520  0.1173
73816SOL    HW133427   3.460  11.924   6.501 -0.9052  0.0096 -0.1137
73816SOL    HW233428   3.443  11.999   6.631  1.1455  0.4175 -0.0567
73817SOL     OW33429   4.753   5.673   1.744  0.1423 -0.2671  0.0010
73817SOL    HW133430   4.675   5.636   1.704  0.6025 -1.8188  0.4454
73817SOL    HW233431   4.797   5.719   1.673  0.0728 -1.5034 -0.8762
73818SOL     OW33432   7.787   2.419  11.286  0.4985 -0.2216  0.6577
73818SOL    HW133433   7.769   2.398  11.194 -0.2699 -0.8902  0.9481
73818SOL    HW233434   7.882   2.424  11.291  0.6284 -1.6747  0.1205
73819SOL     OW33435  12.258  10.434   1.747 -0.3175 -0.3176  0.4710
73819SOL    HW133436  12.286  10.344   1.763 -2.2816 -1.1609 -0.5553
73819SOL    HW233437  12.337  10.487   1.762  1.9574 -2.5367 -2.4724
73820SOL     OW33438   4.590   5.510  10.520 -0.0757  1.0122 -0.7806
73820SOL    HW133439   4.649   5.492  10.448 -0.7046  0.1142 -1.0880
73820SOL    HW233440   4.521   5.564  10.482  0.8817  2.6984 -0.2574
73821SOL     OW33441   1.580   8.632   6.577 -0.2070 -0.6773  0.4029
73821SOL    HW133442   1.555   8.540   6.583  1.0127 -0.9733  1.2290
73821SOL    HW233443   1.536   8.673   6.652  0.1031 -0.7961  0.6520
73822SOL     OW33444   1.469   2.720   4.901 -0.5557  0.0060 -0.0989
73822SOL    HW133445   1.425   2.649   4.854 -0.5490  0.6779 -1.1512
73822SOL    HW233446   1.550   2.680   4.934 -0.7348 -0.5681 -0.3439
73823SOL     OW33447   9.359   5.521   2.853 -0.2429 -0.3583 -0.3143
73823SOL    HW133448   9.303   5.580   2.904  1.6902  0.0578  1.4767
73823SOL    HW233449   9.335   5.538   2.762 -0.9664  1.9156  0.2362
73824SOL     OW33450  11.390   9.475   9.844 -0.0433 -0.8600 -0.2447
73824SOL    HW133451  11.398   9.509   9.933  0.3113  1.5010 -1.0939
73824SOL    HW233452  11.328   9.403   9.851  0.2944 -1.0009  1.9634
73825SOL     OW33453   5.914   3.037   8.330 -1.1425 -0.1283 -1.2355
73825SOL    HW133454   5.837   3.076   8.288 -1.3443 -0.2350 -0.9762
73825SOL    HW233455   5.926   3.088   8.410 -0.9486 -0.1176 -1.2709
73826SOL     OW33456  12.562   5.607   2.547  0.1228  0.5152 -0.3106
73826SOL    HW133457  12.492   5.560   2.592 -0.1224 -0.2256 -1.4349
73826SOL    HW233458  12.517   5.673   2.495  0.3623  0.9559  0.0364
73827SOL     OW33459   7.026   3.297   7.063  0.3777 -0.5945 -0.4748
73827SOL    HW133460   7.050   3.306   7.155 -1.6299 -0.3125  0.0687
73827SOL    HW233461   7.049   3.206   7.041  0.9697 -0.6311  0.2657
73828SOL     OW33462   0.468   2.352   3.495 -0.4776 -0.1107  0.0124
73828SOL    HW133463   0.487   2.441   3.465 -1.3860 -0.1788 -0.8194
73828SOL    HW233464   0.519   2.296   3.437 -0.4179 -0.1593  0.1116
73829SOL     OW33465   2.680   4.205   4.648  1.2666  0.3131  0.3831
73829SOL    HW133466   2.705   4.270   4.583  2.0227 -0.5160 -0.1779
73829SOL    HW233467   2.762   4.171   4.682  0.9720 -1.7161 -0.7398
73830SOL     OW33468   4.023   5.270   2.013 -0.0592 -0.2062 -0.3756
73830SOL    HW133469   4.060   5.356   1.995 -1.4123  0.1732 -1.5002
73830SOL    HW233470   4.026   5.223   1.929 -1.6709 -0.3040 -0.4201
73831SOL     OW33471  11.453   6.879   9.855 -0.1598  0.5414 -0.2201
73831SOL    HW133472  11.480   6.970   9.839 -0.8114  0.4660 -1.9305
73831SOL    HW233473  11.506   6.852   9.930  0.0927  2.3085  0.2927
73832SOL     OW33474   8.505   9.400  11.703  0.0097  0.0998 -0.0833
73832SOL    HW133475   8.446   9.374  11.633 -0.6128 -0.9400  0.7877
73832SOL    HW233476   8.503   9.326  11.764  1.4726  0.4617  0.4384
73833SOL     OW33477   4.031   7.228  12.096  0.1544  0.3076  0.2292
73833SOL    HW133478   4.099   7.202  12.159  0.4094  0.4119 -0.0022
73833SOL    HW233479   4.075   7.289  12.037  0.1766 -0.5110 -0.6265
73834SOL     OW33480   2.431   5.077  11.878  0.3111  0.3753 -0.0603
73834SOL    HW133481   2.462   5.067  11.788  0.6126 -2.1865  0.2585
73834SOL    HW233482   2.445   4.992  11.918 -1.1876  1.0182  2.0153
73835SOL     OW33483   6.699   9.696  13.141  0.6016 -0.2955 -0.0720
73835SOL    HW133484   6.693   9.659  13.229  0.4821 -1.2474 -0.4697
73835SOL    HW233485   6.789   9.728  13.134  1.5196 -2.8036 -0.5870
73836SOL     OW33486  13.662  10.032   8.932 -0.0415 -0.7710 -0.5483
73836SOL    HW133487  13.615  10.002   9.010 -1.2083 -0.8464 -1.2632
73836SOL    HW233488  13.753  10.006   8.948 -0.3288 -1.1481  0.6007
73837SOL     OW33489   8.732   9.165  12.242 -0.2590  0.6099  0.4168
73837SOL    HW133490   8.721   9.182  12.149 -0.7678 -0.7775  0.1889
73837SOL    HW233491   8.755   9.249  12.280  1.5916  0.8805 -1.1932
73838SOL     OW33492  12.344   5.696   2.844  0.4968  0.0650  0.4297
73838SOL    HW133493  12.273   5.634   2.860 -1.1006  2.1547  2.0486
73838SOL    HW233494  12.334   5.722   2.752  0.3135 -0.9854  0.1420
73839SOL     OW33495   2.270   0.808   5.483 -0.4925 -0.7054 -0.0887
73839SOL    HW133496   2.241   0.730   5.529 -2.0064 -0.8526 -1.1920
73839SOL    HW233497   2.238   0.881   5.536  0.0089 -0.8382  0.4002
73840SOL     OW33498  13.856   6.210   3.751 -0.1643  0.4583  0.0111
73840SOL    HW133499  13.894   6.258   3.825  0.9296  0.0821 -0.2918
73840SOL    HW233500  13.906   6.128   3.748 -1.5117 -0.3855  0.0537
73841SOL     OW33501   9.857   5.123  12.029  0.0900  0.0578 -0.1240
73841SOL    HW133502   9.947   5.122  12.062 -0.2284 -0.2605  0.7656
73841SOL    HW233503   9.813   5.190  12.080 -0.0598  0.5759 -0.9148
73842SOL     OW33504   3.379   6.203   0.728  0.3071 -0.0683  1.0319
73842SOL    HW133505   3.464   6.177   0.694  1.0385  0.2289  2.5511
73842SOL    HW233506   3.382   6.181   0.821 -2.3987 -2.8448  0.6332
73843SOL     OW33507  11.320  13.055   8.303  0.4823 -0.6870  0.3860
73843SOL    HW133508  11.362  13.069   8.388  0.4885 -0.3196  0.3261
73843SOL    HW233509  11.234  13.095   8.312  0.4592 -0.7030  0.2394
73844SOL     OW33510   3.125   6.001  11.233  0.3607 -0.0333 -0.6365
73844SOL    HW133511   3.054   6.039  11.285 -0.8176 -1.2423 -1.3130
73844SOL    HW233512   3.183   6.075  11.214 -0.5744  0.9311  0.1347
73845SOL     OW33513   7.384   3.070   6.849  0.0210 -0.1800  0.3262
73845SOL    HW133514   7.294   3.040   6.866 -0.1377 -1.3227 -2.0707
73845SOL    HW233515   7.436   2.989   6.847  0.9819  0.4034  0.8574
73846SOL     OW33516   8.563   3.094   0.734  0.1103  0.4182 -0.0451
73846SOL    HW133517   8.488   3.048   0.773 -0.4680 -1.1215 -2.7079
73846SOL    HW233518   8.533   3.184   0.723 -1.7738 -0.3352 -1.7894
73847SOL     OW33519   2.240  12.714   2.662  0.1725  0.3877 -0.3249
73847SOL    HW133520   2.333  12.709   2.685 -0.0284 -0.7655  0.3286
73847SOL    HW233521   2.239  12.716   2.566  0.8552 -0.5305 -0.3663
73848SOL     OW33522   5.294   2.119  10.601  0.6680 -0.0399 -0.6298
73848SOL    HW133523   5.350   2.195  10.584  0.0046  0.5852 -0.0585
73848SOL    HW233524   5.270   2.126  10.693  0.3803 -0.8075 -0.6352
73849SOL     OW33525   2.653   9.629  10.179 -0.5894  0.2108 -0.4512
73849SOL    HW133526   2.724   9.611  10.240 -1.0510 -0.8139 -0.1831
73849SOL    HW233527   2.573   9.612  10.229 -0.9806 -0.7120 -1.3395
73850SOL     OW33528   8.950   6.450   3.774 -0.0407  0.1747 -0.1433
73850SOL    HW133529   8.952   6.477   3.682  0.7849  2.0636  0.3713
73850SOL    HW233530   8.886   6.508   3.814  1.0806  0.7993  0.8285
73851SOL     OW33531  10.327   9.276   9.558 -0.0732 -0.1855  0.2704
73851SOL    HW133532  10.408   9.318   9.528 -0.8012  1.3238  0.2959
73851SOL    HW233533  10.296   9.225   9.484  0.4559 -0.0656 -0.0339
73852SOL     OW33534   1.442   6.543   0.831  0.2464  0.2921 -0.5271
73852SOL    HW133535   1.405   6.562   0.917  1.1422  0.9843 -0.2785
73852SOL    HW233536   1.369   6.554   0.770 -0.4137 -0.2755  0.1430
73853SOL     OW33537  11.388   6.823   4.162 -0.1208 -0.1878 -0.2446
73853SOL    HW133538  11.404   6.915   4.185  0.0491 -0.1450 -0.5315
73853SOL    HW233539  11.353   6.827   4.073 -0.5726 -0.3689 -0.0755
73854SOL     OW33540  10.443  10.082   6.034  0.2152 -0.5177 -0.2252
73854SOL    HW133541  10.399  10.011   5.989  0.4028 -0.1519 -1.0030
73854SOL    HW233542  10.532  10.082   5.999  0.1651  0.2152 -0.3772
73855SOL     OW33543   7.622   4.967   8.332  0.0564 -0.2722 -0.7116
73855SOL    HW133544   7.562   5.041   8.333 -0.1479 -0.4355  0.3008
73855SOL    HW233545   7.699   4.998   8.283  1.0176  1.4619  1.7029
73856SOL     OW33546   7.105  12.751   1.048 -0.4442 -0.0388  0.2097
73856SOL    HW133547   7.096  12.759   1.143  1.3288  1.5699  0.2942
73856SOL    HW233548   7.128  12.659   1.034  0.6760  0.0184  1.4880
73857SOL     OW33549   7.618   4.687   6.371 -0.4084  0.3053  0.2970
73857SOL    HW133550   7.603   4.662   6.279  0.6058  1.7270 -0.2871
73857SOL    HW233551   7.629   4.604   6.417 -2.4590 -0.5207 -0.5574
73858SOL     OW33552  10.385   4.288  13.717 -0.1291 -0.4745  0.1845
73858SOL    HW133553  10.436   4.312  13.794  0.2330  1.6593 -0.6225
73858SOL    HW233554  10.299   4.327  13.732  0.1676  0.6277 -0.7414
73859SOL     OW33555  13.427   3.579   7.825 -0.3576  0.1280 -0.2092
73859SOL    HW133556  13.399   3.497   7.785 -1.4914  1.2583 -1.8353
73859SOL    HW233557  13.400   3.647   7.763  0.0188  1.7883  1.3654
73860SOL     OW33558   0.750  11.001   3.616  0.1176 -0.6114  0.0725
73860SOL    HW133559   0.704  10.917   3.606  0.7464 -1.1604  1.4490
73860SOL    HW233560   0.689  11.055   3.667  0.0289 -0.4965 -0.1539
73861SOL     OW33561   9.852   1.291   1.253  0.0676 -0.4548 -0.0561
73861SOL    HW133562   9.812   1.207   1.230 -0.1002  0.3239 -2.9426
73861SOL    HW233563   9.783   1.355   1.238  0.7039  0.3782  0.5117
73862SOL     OW33564  11.470  11.675   3.034 -0.0501  0.3888  0.3961
73862SOL    HW133565  11.380  11.669   3.003  0.5479 -0.1689 -1.3259
73862SOL    HW233566  11.524  11.653   2.958  1.5751  1.5319  1.1495
73863SOL     OW33567   2.326   1.739   5.452 -0.0206  0.1043  0.5972
73863SOL    HW133568   2.238   1.730   5.488  0.0255  0.2385  0.7429
73863SOL    HW233569   2.381   1.687   5.511 -0.0413 -0.2036  0.3527
73864SOL     OW33570   3.885  13.012   4.779 -0.4356 -0.1446  0.5413
73864SOL    HW133571   3.913  13.057   4.859  1.4150 -0.1204 -0.0734
73864SOL    HW233572   3.852  12.928   4.809 -0.2941  0.0921  1.3848
73865SOL     OW33573   7.075  11.802  11.577  0.0576 -0.8033 -0.2879
73865SOL    HW133574   7.120  11.883  11.555  0.7531 -0.8181  0.9503
73865SOL    HW233575   6.984  11.827  11.593 -0.0508 -0.5189 -1.3429
73866SOL     OW33576   0.324   9.477   7.273 -0.0240 -0.5857 -0.3832
73866SOL    HW133577   0.339   9.385   7.295 -1.2073 -0.7359 -0.1334
73866SOL    HW233578   0.320   9.478   7.178 -0.4115 -0.8740 -0.3756
73867SOL     OW33579  11.142   4.050   9.031  0.3752 -0.1665  0.2410
73867SOL    HW133580  11.084   4.089   9.097 -1.0536 -0.2064 -0.9285
73867SOL    HW233581  11.224   4.097   9.040 -0.8095  2.1085 -0.0862
73868SOL     OW33582   2.487   7.432   8.485 -0.7125 -0.2458 -0.4772
73868SOL    HW133583   2.502   7.342   8.455 -0.4660 -0.4131  0.1303
73868SOL    HW233584   2.428   7.423   8.560 -0.3326  0.0568 -0.1349
73869SOL     OW33585  12.656   8.682   7.835  0.0827  0.2386  0.0745
73869SOL    HW133586  12.744   8.644   7.838 -0.1732 -0.3093  1.4503
73869SOL    HW233587  12.671   8.776   7.852  0.5203  0.4271 -1.2352
73870SOL     OW33588   5.141   9.382   6.388  0.2452 -0.3749  0.3210
73870SOL    HW133589   5.089   9.419   6.459 -1.1328  0.0160 -0.8608
73870SOL    HW233590   5.227   9.366   6.428  0.5855  2.9166  1.2426
73871SOL     OW33591   2.885   4.710   1.804  0.0604 -0.1029  0.1386
73871SOL    HW133592   2.964   4.743   1.761  0.3451  1.0536  1.4900
73871SOL    HW233593   2.883   4.754   1.888 -0.4145 -2.4033  1.4139
73872SOL     OW33594   5.036  12.381   8.098 -0.2608 -0.1557 -0.4474
73872SOL    HW133595   5.091  12.315   8.141 -0.2278  0.6754  0.8168
73872SOL    HW233596   4.946  12.353   8.115 -0.2827  0.8740  1.3869
73873SOL     OW33597   1.173   0.496   6.558  0.0635  0.4110  0.1413
73873SOL    HW133598   1.164   0.511   6.652 -0.7908 -1.0145  0.3214
73873SOL    HW233599   1.256   0.448   6.549  0.8249  1.7197 -0.0024
73874SOL     OW33600   9.792   3.138   1.813  0.2958  0.4228  0.5995
73874SOL    HW133601   9.828   3.049   1.811  0.4685  0.5008 -0.4309
73874SOL    HW233602   9.706   3.131   1.771 -0.2510  0.5187  1.6793
73875SOL     OW33603  11.196   0.444  11.830 -0.8904  0.1965  0.1725
73875SOL    HW133604  11.228   0.462  11.742  0.8373  0.1645  0.7523
73875SOL    HW233605  11.240   0.362  11.855 -1.3967  0.1758  1.0410
73876SOL     OW33606   6.416   1.750   5.162 -0.0912 -0.0259 -0.6435
73876SOL    HW133607   6.414   1.664   5.120 -0.0592 -0.3762  0.0570
73876SOL    HW233608   6.471   1.738   5.239 -2.0271 -0.0245  0.8189
73877SOL     OW33609   7.431  13.232   0.836  0.3867 -0.2115  0.1068
73877SOL    HW133610   7.470  13.212   0.751  2.2663  0.7920  0.6677
73877SOL    HW233611   7.357  13.289   0.815 -0.1895 -1.2833 -0.9336
73878SOL     OW33612  12.999   9.053   8.949  0.2997 -0.3168  0.1810
73878SOL    HW133613  13.006   9.052   8.853  0.2310  2.8006  0.0732
73878SOL    HW233614  12.913   9.091   8.966  0.7523  0.1466  1.4926
73879SOL     OW33615   9.019   5.658  13.135 -0.5594 -0.2738 -0.4290
73879SOL    HW133616   8.931   5.630  13.163 -2.7438  2.8305 -3.3753
73879SOL    HW233617   9.050   5.714  13.206 -1.3361 -0.6722  0.2431
73880SOL     OW33618   6.799   3.997   1.302  0.3536 -0.0167  0.3764
73880SOL    HW133619   6.832   3.980   1.390  1.1076 -0.3895  0.0388
73880SOL    HW233620   6.772   3.911   1.269 -0.3183  0.1835  0.3910
73881SOL     OW33621   5.034   8.132   3.692  0.7520 -0.6206 -0.3394
73881SOL    HW133622   5.050   8.122   3.599 -0.8461 -1.0180 -0.5900
73881SOL    HW233623   4.997   8.220   3.701  0.2800 -0.8348 -0.1720
73882SOL     OW33624   3.241   2.037   7.514 -0.4976 -0.2643 -0.2279
73882SOL    HW133625   3.190   2.025   7.434 -0.6193 -0.0615 -0.1823
73882SOL    HW233626   3.184   2.088   7.571  0.3038  1.2470 -0.7216
73883SOL     OW33627   8.831   8.150   9.185 -0.2145  0.3244 -0.2205
73883SOL    HW133628   8.803   8.227   9.235 -1.3980 -0.0432 -0.2910
73883SOL    HW233629   8.768   8.143   9.114  0.6671  0.0496 -0.9948
73884SOL     OW33630  13.551   3.087  11.343  0.0501  0.2499 -0.0399
73884SOL    HW133631  13.546   3.077  11.438  0.7349  0.7570  0.0609
73884SOL    HW233632  13.620   3.026  11.316 -0.0296  0.2270 -0.1907
73885SOL     OW33633  11.907   8.144   9.205  0.6024 -0.3892  0.0013
73885SOL    HW133634  11.879   8.148   9.296 -1.2815 -0.2358 -0.5286
73885SOL    HW233635  11.945   8.230   9.187  0.9130 -0.3959  0.6098
73886SOL     OW33636   8.699   5.779   5.179  0.6550  0.3551  0.6934
73886SOL    HW133637   8.623   5.727   5.154  1.5553 -1.2733  1.1797
73886SOL    HW233638   8.670   5.830   5.255 -0.5103  1.3238 -0.3580
73887SOL     OW33639   2.632   7.717   4.115 -0.2393 -0.3816 -0.4289
73887SOL    HW133640   2.664   7.806   4.130 -0.4686 -0.3344 -0.2101
73887SOL    HW233641   2.703   7.674   4.067  0.7327 -0.6649  1.1739
73888SOL     OW33642   3.238   5.062   3.743  0.3070  0.1743 -0.1005
73888SOL    HW133643   3.214   5.026   3.658  1.1828 -0.2087 -0.1949
73888SOL    HW233644   3.173   5.129   3.760 -0.0826  0.0095 -0.9129
73889SOL     OW33645  13.307   4.324  10.303 -0.4735 -0.3752 -0.2323
73889SOL    HW133646  13.307   4.352  10.212 -0.5967  2.0357  0.4333
73889SOL    HW233647  13.215   4.318  10.327 -0.4419 -0.9599 -0.2464
73890SOL     OW33648   5.592   1.891   6.087  0.0223  0.1580 -0.4716
73890SOL    HW133649   5.684   1.895   6.061 -0.3139  0.5197 -1.6674
73890SOL    HW233650   5.549   1.844   6.016 -1.0813  1.9216 -1.0242
73891SOL     OW33651   5.845   5.969   0.602 -0.1130 -0.0889  0.1947
73891SOL    HW133652   5.840   6.030   0.528 -2.0183 -1.2776 -0.7219
73891SOL    HW233653   5.938   5.968   0.626  0.3424  1.2955 -1.3438
73892SOL     OW33654   4.522   0.049   3.551  0.1809  0.3104  0.1900
73892SOL    HW133655   4.547  -0.042   3.569  0.1893  0.6609  2.2148
73892SOL    HW233656   4.467   0.044   3.473  0.2264 -1.4151  0.2281
73893SOL     OW33657   7.622  12.834  10.956  0.0249 -0.2317  0.1866
73893SOL    HW133658   7.542  12.847  11.006 -0.6307  0.3299 -0.9793
73893SOL    HW233659   7.692  12.866  11.014 -0.8906  2.3051  0.0107
73894SOL     OW33660  12.933   6.299  12.421  0.6333 -0.2799  0.3669
73894SOL    HW133661  12.900   6.246  12.493 -0.4456 -2.1416 -1.4016
73894SOL    HW233662  12.868   6.368  12.409  1.4642  0.8418  1.9273
73895SOL     OW33663   6.108  12.012  12.044 -0.0647  0.1918  0.2614
73895SOL    HW133664   6.115  12.023  11.949 -0.4413 -1.2584  0.0383
73895SOL    HW233665   6.133  11.921  12.059 -1.5321 -0.0560  1.3688
73896SOL     OW33666   1.389   2.486   6.519  0.1104 -0.3770  0.0691
73896SOL    HW133667   1.322   2.548   6.545  2.4873  1.1527  3.1730
73896SOL    HW233668   1.437   2.466   6.599  4.4425  0.0420 -2.0750
73897SOL     OW33669   3.581   3.813   1.650  0.3415 -0.1513 -0.1248
73897SOL    HW133670   3.548   3.839   1.564 -1.1575  0.3978  0.5736
73897SOL    HW233671   3.518   3.749   1.682 -0.5616  1.4469  1.5534
73898SOL     OW33672   3.728   3.729   5.064  0.1832  0.2958 -0.2873
73898SOL    HW133673   3.679   3.732   4.982 -0.7418 -0.1861  0.2349
73898SOL    HW233674   3.748   3.636   5.076 -1.2110  0.1109  0.8908
73899SOL     OW33675  13.259  11.067   2.866 -0.4764 -0.4068 -0.0046
73899SOL    HW133676  13.341  11.095   2.826 -0.3926 -1.1837 -0.3983
73899SOL    HW233677  13.282  10.988   2.915 -0.9784 -0.6089 -0.0887
73900SOL     OW33678   1.776   7.926  11.813 -0.2531  0.2317 -0.5338
73900SOL    HW133679   1.806   7.838  11.838 -1.6691 -0.4174 -1.0699
73900SOL    HW233680   1.691   7.912  11.772 -1.2969  2.0031  0.8632
73901SOL     OW33681  11.947   7.653   7.735  0.0722 -0.4567  0.8231
73901SOL    HW133682  12.029   7.691   7.768  0.6966  0.7245 -1.8313
73901SOL    HW233683  11.969   7.561   7.718  2.0175  0.4921 -2.8730
73902SOL     OW33684   4.222   4.153  13.627 -0.1386  0.2420 -0.0125
73902SOL    HW133685   4.316   4.134  13.628  0.4086  2.7022  0.8348
73902SOL    HW233686   4.194   4.128  13.538  1.1453 -1.1100 -0.0836
73903SOL     OW33687   6.409  12.013  10.885 -0.2214  0.1306 -0.4445
73903SOL    HW133688   6.418  11.959  10.964  1.1402  0.2345 -0.5089
73903SOL    HW233689   6.322  11.992  10.852 -1.4041  1.1287  1.8452
73904SOL     OW33690   8.606   3.097   4.388 -0.2646 -0.5963 -0.4030
73904SOL    HW133691   8.512   3.099   4.406 -0.5996 -0.6318 -1.9506
73904SOL    HW233692   8.634   3.009   4.415 -0.4478 -0.2478  0.9912
73905SOL     OW33693   8.477   9.629   6.455  0.0803  0.3826 -0.3960
73905SOL    HW133694   8.426   9.624   6.374 -0.7439 -2.1201  0.2016
73905SOL    HW233695   8.422   9.679   6.515  0.0954  1.0551 -0.9181
73906SOL     OW33696   0.427   8.576   3.132 -0.1351 -0.5313 -0.3866
73906SOL    HW133697   0.339   8.561   3.098 -0.3113  1.0073 -0.6728
73906SOL    HW233698   0.419   8.654   3.187  0.8587 -0.9394  0.3751
73907SOL     OW33699   4.486   5.064  12.511 -0.4295  0.3151  0.7232
73907SOL    HW133700   4.535   4.997  12.464 -0.7827  1.0203 -0.7070
73907SOL    HW233701   4.550   5.131  12.532 -0.3671  0.2195  0.8436
73908SOL     OW33702   9.335   2.281   9.164 -0.0439  0.1692  0.1945
73908SOL    HW133703   9.263   2.217   9.164 -0.2875  0.3817 -1.5808
73908SOL    HW233704   9.293   2.365   9.145  0.5984  0.3848 -0.3110
73909SOL     OW33705   3.175   3.741   6.632 -0.4495 -0.4967  0.1046
73909SOL    HW133706   3.171   3.777   6.543 -1.3673 -0.7218  0.0424
73909SOL    HW233707   3.095   3.773   6.674  0.1831 -0.0477  0.9845
73910SOL     OW33708   4.019   9.316   8.471  0.0427 -0.4122  0.0541
73910SOL    HW133709   4.095   9.261   8.486 -0.4348 -0.6625  1.6900
73910SOL    HW233710   3.948   9.274   8.520 -1.6504 -1.1701 -2.8140
73911SOL     OW33711  12.027  13.874   6.940  0.5102 -0.0636  0.5243
73911SOL    HW133712  12.003  13.963   6.914  1.9099  0.5322  1.1680
73911SOL    HW233713  12.005  13.870   7.033  0.5184 -0.3547  0.5124
73912SOL     OW33714  10.266   2.957   6.591 -0.1276 -0.5590  0.0325
73912SOL    HW133715  10.187   2.910   6.617  0.1707 -0.4532  1.1571
73912SOL    HW233716  10.270   3.032   6.650  1.2024 -0.9629  0.4916
73913SOL     OW33717   9.950  10.795  12.804 -0.2869 -0.3862  0.1273
73913SOL    HW133718  10.043  10.811  12.816 -0.1616 -1.3083  0.5403
73913SOL    HW233719   9.910  10.826  12.886 -0.6589  2.0638 -0.8967
73914SOL     OW33720   5.393   1.950   1.710  0.3443  0.6234  0.5593
73914SOL    HW133721   5.457   1.915   1.773  1.0687  2.2901  0.8103
73914SOL    HW233722   5.406   2.045   1.713 -0.7340  0.8569 -0.9290
73915SOL     OW33723   9.013   8.911  12.892 -0.6735 -0.6622 -0.2097
73915SOL    HW133724   8.988   8.863  12.970 -0.4620  1.0495  0.9627
73915SOL    HW233725   8.940   8.899  12.831 -2.9052  1.4149  1.8383
73916SOL     OW33726  14.036  12.550   0.782 -0.5527  0.6260  0.3444
73916SOL    HW133727  14.042  12.486   0.853 -0.5157 -0.2189 -0.4005
73916SOL    HW233728  13.953  12.595   0.797 -1.3101 -0.6234  0.0541
73917SOL     OW33729  11.164   3.086  12.099  0.0103 -0.1435 -0.0846
73917SOL    HW133730  11.196   3.049  12.017 -0.7458 -0.1404 -0.3881
73917SOL    HW233731  11.100   3.152  12.073  1.4145  1.4966  0.4444
73918SOL     OW33732   5.700  13.493   8.508 -0.4790 -0.2947  0.2097
73918SOL    HW133733   5.687  13.421   8.571 -0.0110 -0.2763  0.3308
73918SOL    HW233734   5.620  13.493   8.456 -0.4780 -0.9190  0.1939
73919SOL     OW33735   8.630  12.307   1.529 -0.1049 -0.1154 -0.1085
73919SOL    HW133736   8.560  12.334   1.589  0.2652  0.8682 -0.0963
73919SOL    HW233737   8.705  12.289   1.587  0.2630  0.8682 -0.2496
73920SOL     OW33738   3.628   9.225   1.093 -0.2954  0.2848 -0.3496
73920SOL    HW133739   3.657   9.264   1.010  1.4038  0.2356  0.1829
73920SOL    HW233740   3.671   9.139   1.095  0.1454  0.5291  0.8496
73921SOL     OW33741  12.636   2.299   1.833 -0.4089 -0.3333 -0.6944
73921SOL    HW133742  12.606   2.358   1.902 -1.1071 -1.6068  0.1190
73921SOL    HW233743  12.653   2.216   1.877  0.2001 -0.8604 -1.8755
73922SOL     OW33744   1.887   7.264   4.124  0.8284 -0.0153 -0.4767
73922SOL    HW133745   1.920   7.221   4.203 -0.2408 -1.1544 -0.6149
73922SOL    HW233746   1.815   7.208   4.094  0.3864  1.0694 -1.5535
73923SOL     OW33747   9.666  11.039   1.630  0.7074  0.0096 -0.3102
73923SOL    HW133748   9.662  10.968   1.694 -0.2697  0.3537  0.0314
73923SOL    HW233749   9.697  10.997   1.550  2.6478 -0.2966  0.5404
73924SOL     OW33750   2.995   0.106   1.323  0.0355  0.0615 -0.1953
73924SOL    HW133751   2.984   0.055   1.242  0.0928 -0.1649 -0.0626
73924SOL    HW233752   2.946   0.187   1.307 -0.3500 -0.1814 -0.2819
73925SOL     OW33753   1.734   2.201   9.038 -0.1045  0.8313 -0.6743
73925SOL    HW133754   1.719   2.220   8.945 -0.6933 -0.3917 -0.8400
73925SOL    HW233755   1.675   2.129   9.058  0.0196  1.0749  0.6597
73926SOL     OW33756   2.444   9.488  13.713 -0.3196 -0.1510 -0.3613
73926SOL    HW133757   2.354   9.498  13.684 -0.0244 -0.3549 -1.3714
73926SOL    HW233758   2.467   9.574  13.748 -0.9960 -0.1867  0.1916
73927SOL     OW33759  13.688   6.812   0.038  0.0669  0.8769  0.5461
73927SOL    HW133760  13.720   6.813  -0.052  1.6213 -1.2373  0.9895
73927SOL    HW233761  13.767   6.824   0.091 -0.7404  1.4575  1.6445
73928SOL     OW33762  12.956   7.145   6.119  0.3178 -0.1312 -0.0338
73928SOL    HW133763  12.912   7.135   6.203 -1.0821  0.4353 -0.6641
73928SOL    HW233764  12.936   7.064   6.072  2.0479 -0.9425  0.5672
73929SOL     OW33765   8.160   0.266   9.396  0.0369  0.6100  0.1773
73929SOL    HW133766   8.214   0.249   9.473 -1.1843 -0.7878  0.7624
73929SOL    HW233767   8.084   0.314   9.429  0.9886  2.8507 -0.6931
73930SOL     OW33768  11.248   9.508  13.981 -0.9686 -0.5379 -0.0763
73930SOL    HW133769  11.223   9.550  13.899 -2.8637 -1.7303 -0.1867
73930SOL    HW233770  11.230   9.574  14.048 -0.9420 -0.0966 -0.5045
73931SOL     OW33771  11.585   2.144   7.462  0.6016 -0.2893  0.2500
73931SOL    HW133772  11.621   2.184   7.541 -0.2819  1.2145 -0.0518
73931SOL    HW233773  11.569   2.053   7.485  1.8484 -0.2676  1.2862
73932SOL     OW33774   4.601  12.607   0.568  0.4600  0.4837 -0.1421
73932SOL    HW133775   4.635  12.678   0.512  1.1867  0.6342  0.4826
73932SOL    HW233776   4.530  12.569   0.517  0.8754  0.8576 -1.0259
73933SOL     OW33777   9.014   2.595   3.194 -0.4672 -0.1097 -0.0804
73933SOL    HW133778   9.073   2.560   3.127  0.3997  0.7675  0.1961
73933SOL    HW233779   9.067   2.659   3.241 -2.1068  1.8980 -0.8399
73934SOL     OW33780  13.633   7.364   5.512  0.1557 -0.5842  0.4051
73934SOL    HW133781  13.550   7.374   5.464 -0.0692 -0.4910  0.8103
73934SOL    HW233782  13.700   7.370   5.444 -0.1230  0.3360  0.1996
73935SOL     OW33783  13.978   3.687   1.731 -0.7062 -0.2688 -0.2244
73935SOL    HW133784  14.047   3.685   1.797 -0.4141 -1.2989 -0.5396
73935SOL    HW233785  13.915   3.751   1.764 -0.1423 -0.1335  0.6171
73936SOL     OW33786   1.577   0.212   5.192  0.1871 -0.1351 -0.4526
73936SOL    HW133787   1.485   0.200   5.172 -0.0634 -0.5789  0.8662
73936SOL    HW233788   1.587   0.307   5.202 -0.6761 -0.2152  1.6975
73937SOL     OW33789   7.312   5.301  11.072  0.1405  0.3952 -0.1071
73937SOL    HW133790   7.246   5.368  11.090 -0.0350  0.2525 -0.2196
73937SOL    HW233791   7.296   5.274  10.982  0.0957  0.0726 -0.0056
73938SOL     OW33792   8.083   0.167  12.749  0.0237 -0.1019  0.3678
73938SOL    HW133793   8.150   0.110  12.711  1.4922  1.2053  0.9081
73938SOL    HW233794   8.035   0.110  12.809 -0.7251 -1.5695 -1.5272
73939SOL     OW33795   1.748   3.455  11.035 -0.2553 -0.5254  0.3526
73939SOL    HW133796   1.799   3.374  11.038 -1.2703 -1.2750 -1.3109
73939SOL    HW233797   1.667   3.431  10.990 -0.5937  1.4098 -0.1668
73940SOL     OW33798   0.757   9.607   2.132  0.2791  0.4209  0.0299
73940SOL    HW133799   0.725   9.671   2.069  0.0920  1.4024  1.0741
73940SOL    HW233800   0.845   9.637   2.154  0.8092 -0.5884 -0.6249
73941SOL     OW33801   9.075  11.317  10.481 -0.3137 -0.4483 -0.2040
73941SOL    HW133802   9.138  11.322  10.553 -1.2440  0.9760  0.5509
73941SOL    HW233803   9.107  11.379  10.417  0.3085 -1.4464 -0.8963
73942SOL     OW33804   6.107   4.184   9.028 -0.6456 -0.1401  0.3050
73942SOL    HW133805   6.068   4.264   8.993  1.9819  0.5348 -1.3390
73942SOL    HW233806   6.087   4.117   8.962 -1.7378 -0.5960  1.0600
73943SOL     OW33807   8.739   2.100  12.444 -0.9586  0.2344 -0.3284
73943SOL    HW133808   8.808   2.162  12.470 -0.7419 -0.3456  0.5103
73943SOL    HW233809   8.701   2.070  12.526 -1.1412 -0.6582 -0.7245
73944SOL     OW33810  12.081   1.714   4.558 -0.0602 -0.0910 -0.1626
73944SOL    HW133811  12.081   1.785   4.622  1.0053 -0.1606 -0.0677
73944SOL    HW233812  12.077   1.758   4.473 -5.8744  0.0160 -0.2384
73945SOL     OW33813  11.351  12.824   1.211 -0.0823  0.0514 -0.0969
73945SOL    HW133814  11.365  12.729   1.217 -1.1607 -0.0234  2.8772
73945SOL    HW233815  11.268  12.833   1.163  0.0144 -0.4777 -0.3781
73946SOL     OW33816   3.570  10.882  13.934 -0.2604  0.3082  0.1302
73946SOL    HW133817   3.574  10.874  13.839 -1.7801 -1.7181  0.1662
73946SOL    HW233818   3.633  10.817  13.966  1.0249  1.7074  0.5587
73947SOL     OW33819   8.780   4.002  11.382 -0.3565  0.3624  0.5462
73947SOL    HW133820   8.716   4.003  11.453  0.2127 -2.5423  1.2313
73947SOL    HW233821   8.736   3.956  11.311  0.3165  0.0162  0.3486
73948SOL     OW33822  10.027  11.847   3.613 -0.1746  0.4600  0.8059
73948SOL    HW133823  10.050  11.891   3.695 -3.2521 -0.2325  2.1802
73948SOL    HW233824   9.964  11.906   3.571 -1.0429 -0.6393  0.5205
73949SOL     OW33825   7.535  13.293  13.423  0.3257  0.2218 -0.8047
73949SOL    HW133826   7.492  13.350  13.359 -2.3819  2.6127  2.7914
73949SOL    HW233827   7.509  13.205  13.396 -2.4325  1.2465 -1.9216
73950SOL     OW33828   3.782  12.506  13.820  0.5940 -0.2161 -0.3460
73950SOL    HW133829   3.821  12.487  13.734  1.9653  0.7362  0.0334
73950SOL    HW233830   3.727  12.583  13.804 -0.5485 -1.0897 -0.7180
73951SOL     OW33831   9.351  12.420   8.450  0.3926  0.0677  0.1916
73951SOL    HW133832   9.339  12.365   8.527 -0.3630 -0.5791 -0.3689
73951SOL    HW233833   9.323  12.507   8.478  0.3280 -0.1196  0.7113
73952SOL     OW33834   2.425  12.371   1.906  0.8991  0.0384  0.1358
73952SOL    HW133835   2.458  12.451   1.947  3.0177 -1.2911  1.1922
73952SOL    HW233836   2.339  12.358   1.946  0.8749  1.3297  0.5694
73953SOL     OW33837   0.282   2.569   7.402 -0.5073 -0.2168 -0.0482
73953SOL    HW133838   0.235   2.644   7.365  0.7659  0.4064 -0.4624
73953SOL    HW233839   0.250   2.494   7.353 -1.3780  0.1213 -0.0217
73954SOL     OW33840  12.031  13.741   4.590  0.1256 -0.2751 -0.5261
73954SOL    HW133841  12.080  13.778   4.517 -0.2368 -1.1317 -1.2113
73954SOL    HW233842  11.967  13.682   4.550 -0.8206  0.0712  0.4061
73955SOL     OW33843   6.446  13.867   2.600 -0.2311  0.1778 -0.3271
73955SOL    HW133844   6.423  13.790   2.652 -2.0772  1.0449  0.2645
73955SOL    HW233845   6.465  13.935   2.666  2.2726  0.0591 -0.8258
73956SOL     OW33846   2.695  11.588   8.460 -0.7047  0.5460  0.4233
73956SOL    HW133847   2.725  11.630   8.540  0.2418  0.1656  0.2849
73956SOL    HW233848   2.738  11.503   8.460  0.5240  1.1175 -1.2188
73957SOL     OW33849   8.200  13.413  10.450  0.0003  0.1103  0.1857
73957SOL    HW133850   8.109  13.392  10.428  0.3383 -1.4371  0.0944
73957SOL    HW233851   8.239  13.444  10.368 -0.0298 -0.8584 -0.2111
73958SOL     OW33852   3.026   8.055   1.980 -0.5791 -0.4357  0.5828
73958SOL    HW133853   3.042   8.126   2.042 -1.0230 -0.3845  0.6395
73958SOL    HW233854   3.112   8.014   1.968 -0.0634  0.8444 -0.3617
73959SOL     OW33855  11.483   8.771   7.981  0.0045 -0.1856  0.6206
73959SOL    HW133856  11.544   8.698   7.994  0.0531 -0.4794 -1.0466
73959SOL    HW233857  11.489   8.822   8.062  0.4336 -1.6848  1.5702
73960SOL     OW33858   5.382   0.268   0.370 -0.7494 -0.0244  0.1774
73960SOL    HW133859   5.423   0.354   0.385 -1.8184  0.6458 -0.6094
73960SOL    HW233860   5.363   0.267   0.277  0.5038 -1.7212 -0.0998
73961SOL     OW33861   4.489  10.500   8.345  0.3778 -0.2271  0.0985
73961SOL    HW133862   4.569  10.506   8.292  0.3712 -2.4102 -0.2265
73961SOL    HW233863   4.430  10.446   8.293 -2.6677  3.7875 -1.1916
73962SOL     OW33864   0.637   6.591   7.451 -0.0947  0.0429 -0.0609
73962SOL    HW133865   0.617   6.618   7.362  0.9251 -1.2045 -0.7063
73962SOL    HW233866   0.731   6.574   7.450 -0.1520 -0.4415  1.1252
73963SOL     OW33867   8.454   7.035   5.693  0.2488  0.4589 -0.2162
73963SOL    HW133868   8.364   7.028   5.727  0.2564  1.3514 -0.0083
73963SOL    HW233869   8.459   6.964   5.629 -0.3161 -0.1670  0.3978
73964SOL     OW33870  13.674  13.153  10.904  0.1784  0.0656 -0.5316
73964SOL    HW133871  13.629  13.237  10.916  1.3438  0.6490 -0.1771
73964SOL    HW233872  13.613  13.101  10.852 -0.9210  0.8337 -0.0568
73965SOL     OW33873   4.336  13.030   5.528 -0.1454  0.1547  0.1084
73965SOL    HW133874   4.427  13.056   5.511  0.2605 -1.0766  0.3294
73965SOL    HW233875   4.289  13.113   5.536  0.6053  0.8270 -1.7984
73966SOL     OW33876   1.635   2.117  11.454  0.2312  0.3181 -0.6162
73966SOL    HW133877   1.607   2.148  11.540 -0.8920  1.8470 -1.4634
73966SOL    HW233878   1.635   2.022  11.461 -1.5346  0.3548  0.5978
73967SOL     OW33879   9.335   2.511   2.320 -0.9833 -0.7828 -0.1990
73967SOL    HW133880   9.334   2.594   2.271 -0.8860 -1.7702 -1.9581
73967SOL    HW233881   9.247   2.475   2.307 -0.1982 -2.2578 -1.8940
73968SOL     OW33882   4.355   1.319   2.160 -0.4224  0.8122  0.4721
73968SOL    HW133883   4.401   1.346   2.240  1.5873  0.7032 -0.5784
73968SOL    HW233884   4.321   1.232   2.180  1.3222  0.1591  0.7646
73969SOL     OW33885   1.821  13.629   9.379  0.2031 -0.5360 -0.2090
73969SOL    HW133886   1.887  13.560   9.368  0.6919 -0.1159  0.0303
73969SOL    HW233887   1.752  13.607   9.316  0.5231 -1.0443 -0.3840
73970SOL     OW33888   0.369   8.496   1.474  0.0981 -0.0133  0.3050
73970SOL    HW133889   0.367   8.417   1.528 -0.5709 -0.2412 -0.0512
73970SOL    HW233890   0.329   8.563   1.529 -1.1378 -0.3855 -0.1230
73971SOL     OW33891  12.875   2.194  13.016  0.0755 -0.0206 -0.1660
73971SOL    HW133892  12.874   2.098  13.017  0.9981 -0.0430 -0.7184
73971SOL    HW233893  12.783   2.219  13.028  0.0161 -0.9404  1.5545
73972SOL     OW33894   1.267  12.056  13.784 -0.2730  0.2743 -0.3524
73972SOL    HW133895   1.280  11.972  13.740 -1.4001  0.6684 -1.4854
73972SOL    HW233896   1.182  12.087  13.754 -1.1773  0.5248  2.2140
73973SOL     OW33897   2.620  12.600   1.897  0.2579 -0.0199 -0.3096
73973SOL    HW133898   2.714  12.586   1.903  0.0212 -2.2005 -0.7547
73973SOL    HW233899   2.602  12.602   1.803 -0.2979 -1.1222 -0.2420
73974SOL     OW33900   8.205  13.387  12.558 -0.2637 -0.0475  0.0514
73974SOL    HW133901   8.252  13.309  12.588 -1.7704 -1.2492 -0.5717
73974SOL    HW233902   8.268  13.432  12.500 -0.0516 -1.9545 -1.3021
73975SOL     OW33903   4.227   0.705   0.584  0.1798 -0.4154  0.3109
73975SOL    HW133904   4.170   0.648   0.635  0.5661 -0.6237  0.5117
73975SOL    HW233905   4.203   0.794   0.613 -1.0474 -0.4006 -0.6498
73976SOL     OW33906  13.697   4.199   6.227 -0.0439  0.7275 -0.0270
73976SOL    HW133907  13.705   4.135   6.297 -1.9115 -0.0674 -0.4585
73976SOL    HW233908  13.772   4.182   6.170  0.3009 -0.0720  0.6371
73977SOL     OW33909   1.166  11.444   1.085  0.1703  0.2894 -0.5089
73977SOL    HW133910   1.099  11.382   1.059  0.7314 -0.5896  0.1063
73977SOL    HW233911   1.117  11.517   1.125 -0.3797 -0.8887  1.0572
73978SOL     OW33912   1.736   2.594   7.814  0.0463  0.0289  0.7625
73978SOL    HW133913   1.803   2.620   7.877  0.2263 -0.1157  0.6348
73978SOL    HW233914   1.687   2.674   7.796  2.2828  0.9826 -1.6750
73979SOL     OW33915   5.195   3.346  11.032 -0.4898  0.2726  0.2278
73979SOL    HW133916   5.223   3.321  10.944 -2.2935  0.1969 -0.3675
73979SOL    HW233917   5.242   3.286  11.091 -0.4826 -0.7423 -0.7856
73980SOL     OW33918  13.949   4.728  13.886  0.2205  0.8892 -0.1199
73980SOL    HW133919  13.938   4.678  13.805 -2.6212 -0.2593  0.8192
73980SOL    HW233920  13.978   4.663  13.950 -0.2803  1.1358  0.3693
73981SOL     OW33921   9.943   5.416  10.987 -0.0590 -0.5889 -0.0604
73981SOL    HW133922  10.022   5.367  11.006  1.2887  1.4319 -0.1517
73981SOL    HW233923   9.898   5.423  11.071  1.8617  1.5100  0.9066
73982SOL     OW33924  13.057  12.907   1.404  0.1219 -0.1136 -0.6829
73982SOL    HW133925  13.148  12.879   1.397  0.5644  1.2387 -0.5890
73982SOL    HW233926  13.055  12.994   1.363 -0.9280  0.2668  0.1332
73983SOL     OW33927   9.397   0.423   3.070  0.2380  0.9706  0.0629
73983SOL    HW133928   9.311   0.384   3.057  0.2926  1.4543 -1.9968
73983SOL    HW233929   9.444   0.359   3.124 -1.2685  0.5678  0.9722
73984SOL     OW33930   2.347   4.697   9.944 -0.0442  0.1430  0.2003
73984SOL    HW133931   2.351   4.634   9.872 -0.1582 -0.9224  1.1052
73984SOL    HW233932   2.359   4.782   9.902  0.5416 -0.5051 -0.9982
73985SOL     OW33933   0.739  10.819   4.116 -0.0066 -0.3862  0.0719
73985SOL    HW133934   0.734  10.750   4.049  1.4217  0.2689 -0.7705
73985SOL    HW233935   0.648  10.839   4.137 -0.4558 -1.7778 -0.4507
73986SOL     OW33936   0.610  10.696   5.511 -0.1891 -0.3148 -0.2027
73986SOL    HW133937   0.565  10.613   5.494 -1.4745  0.0484  1.1501
73986SOL    HW233938   0.649  10.685   5.598  0.5627  0.1343 -0.4711
73987SOL     OW33939  12.694   2.497  11.926 -0.6754 -0.3406 -0.1841
73987SOL    HW133940  12.628   2.551  11.882 -0.7638  0.1835  0.5631
73987SOL    HW233941  12.646   2.418  11.952 -0.6900 -0.5271 -0.7740
73988SOL     OW33942   9.511   3.443   5.976 -0.8871 -0.4452 -0.4194
73988SOL    HW133943   9.602   3.453   6.002 -0.8357 -0.2148 -0.6820
73988SOL    HW233944   9.511   3.453   5.881 -1.1864 -0.4377 -0.4226
73989SOL     OW33945  13.948  12.810  11.787  0.6862  0.4103  0.4201
73989SOL    HW133946  13.930  12.904  11.780  2.2106  0.7075 -0.0305
73989SOL    HW233947  13.935  12.776  11.698  0.8720  0.3469  0.4162
73990SOL     OW33948   9.730  13.287   9.121 -0.4230 -0.0203 -0.3612
73990SOL    HW133949   9.724  13.378   9.092 -0.6745 -0.1825 -0.8339
73990SOL    HW233950   9.708  13.289   9.214 -1.7151  0.2418 -0.6532
73991SOL     OW33951  12.636  11.974  13.331 -0.3660  0.6297  0.0962
73991SOL    HW133952  12.600  11.995  13.245 -0.2150 -1.0473 -0.4058
73991SOL    HW233953  12.728  11.999  13.325 -0.3450  0.4750 -0.2498
73992SOL     OW33954  12.679   5.816  10.979 -0.2448 -0.0253 -0.0226
73992SOL    HW133955  12.709   5.903  11.005 -1.8008  0.6628 -0.4140
73992SOL    HW233956  12.721   5.800  10.894 -0.9361  0.9039 -0.5515
73993SOL     OW33957   5.383  10.723   0.710 -0.6157 -0.4754  0.3353
73993SOL    HW133958   5.371  10.708   0.617 -2.8719  0.2384  0.4602
73993SOL    HW233959   5.449  10.658   0.737 -1.8013 -2.4335 -1.2406
73994SOL     OW33960   0.711  12.830   4.959 -0.4222 -0.1611 -0.3400
73994SOL    HW133961   0.622  12.797   4.943  0.0626 -0.7068 -2.0771
73994SOL    HW233962   0.768  12.756   4.939  0.4086 -0.1976  1.9380
73995SOL     OW33963   2.073   5.340   9.021  0.2042 -0.3877 -0.1798
73995SOL    HW133964   2.078   5.435   9.017 -0.8289 -0.3581 -1.3248
73995SOL    HW233965   2.146   5.314   9.077 -0.0321  1.1222  0.8815
73996SOL     OW33966   5.173   0.280   5.243 -0.0738  0.1046  0.6843
73996SOL    HW133967   5.149   0.218   5.312  0.5127 -1.3581 -0.3673
73996SOL    HW233968   5.191   0.362   5.289 -0.4413 -0.6190  2.1708
73997SOL     OW33969  13.094   9.060   1.281 -0.3452 -0.1162  0.2421
73997SOL    HW133970  13.056   9.019   1.359  0.1383 -1.1818 -0.0694
73997SOL    HW233971  13.181   9.089   1.309 -0.0583 -0.7557  0.0382
73998SOL     OW33972  10.751   6.238   6.572  0.6650 -0.4051  0.2004
73998SOL    HW133973  10.708   6.167   6.524 -1.5192  0.7366  0.3797
73998SOL    HW233974  10.795   6.193   6.645 -0.8559 -1.6014  0.4454
73999SOL     OW33975   0.440  10.020   1.187  0.0090 -0.6750 -0.4679
73999SOL    HW133976   0.366   9.972   1.149  0.8663 -1.4449 -1.2407
73999SOL    HW233977   0.401  10.079   1.250 -1.3200 -0.6613 -1.2661
74000SOL     OW33978   1.316   0.715   0.752  0.2940 -0.5415  0.5490
74000SOL    HW133979   1.244   0.742   0.809  0.2283 -0.2130  0.3133
74000SOL    HW233980   1.291   0.747   0.665 -0.1028 -1.9489  0.1261
74001SOL     OW33981   7.778  12.423   2.369  0.1995  0.1314 -0.1261
74001SOL    HW133982   7.733  12.368   2.432  0.7750 -0.4566 -0.2170
74001SOL    HW233983   7.710  12.480   2.333 -0.3451 -0.3197  0.1814
74002SOL     OW33984   1.495  10.473   4.570 -0.6535  0.1823 -0.2214
74002SOL    HW133985   1.414  10.422   4.561 -0.7615  0.5364 -1.3784
74002SOL    HW233986   1.477  10.534   4.641 -0.8040 -0.8572  0.6545
74003SOL     OW33987   0.610  11.509  11.443 -0.3955  0.3162 -0.6268
74003SOL    HW133988   0.561  11.565  11.502  0.0420  0.2309 -0.1725
74003SOL    HW233989   0.579  11.533  11.355  0.7126  2.2071 -0.5540
74004SOL     OW33990   6.965   3.480   6.870 -0.0760  0.5148 -0.4226
74004SOL    HW133991   6.982   3.402   6.924 -0.8223 -0.2807 -1.3014
74004SOL    HW233992   6.879   3.463   6.831  0.6150  0.8887 -2.1621
74005SOL     OW33993   9.347  10.044  13.881 -0.5166 -0.6887 -0.1068
74005SOL    HW133994   9.253  10.034  13.894 -0.2691 -1.1830  1.5437
74005SOL    HW233995   9.383   9.957  13.897  0.2602 -0.4268 -0.3767
74006SOL     OW33996  11.283  12.123  13.862 -0.3217 -0.3699 -0.0437
74006SOL    HW133997  11.216  12.143  13.927 -0.8856 -0.6663 -0.5184
74006SOL    HW233998  11.305  12.208  13.823 -0.9197 -0.3563 -0.3574
74007SOL     OW33999   6.562  12.802  11.028 -0.4655 -0.6594 -0.1233
74007SOL    HW134000   6.505  12.846  10.964 -0.2894 -0.7452 -0.3377
74007SOL    HW234001   6.594  12.725  10.983  0.8767  0.0689 -0.4767
74008SOL     OW34002  12.031   0.937   3.005  0.7661 -0.4511 -0.3334
74008SOL    HW134003  12.055   1.029   3.012  0.8459 -0.4656 -0.4169
74008SOL    HW234004  12.114   0.891   2.989  0.9614 -0.7150  1.2358
74009SOL     OW34005   4.421   9.192  10.058  0.4636 -1.1062 -0.2817
74009SOL    HW134006   4.359   9.262  10.036  1.6212 -0.0261 -0.2463
74009SOL    HW234007   4.494   9.205   9.998  1.0417 -1.8086  0.2468
74010SOL     OW34008  10.376   5.478  12.948  0.6162  0.2855 -0.1317
74010SOL    HW134009  10.420   5.445  13.026  0.8019 -0.8379 -0.6874
74010SOL    HW234010  10.408   5.568  12.939  2.0334 -0.1653  0.0510
74011SOL     OW34011   0.134   4.114   2.442  0.3127  0.0721 -0.8245
74011SOL    HW134012   0.200   4.076   2.383 -0.5556 -2.4415 -0.2694
74011SOL    HW234013   0.081   4.170   2.385  2.2333  1.3784 -1.4738
74012SOL     OW34014   7.083   0.499  12.781  0.1624  0.3572  0.3758
74012SOL    HW134015   7.084   0.595  12.777  0.0547  0.3252 -0.6702
74012SOL    HW234016   7.167   0.473  12.743 -0.1814  0.0224 -0.1604
74013SOL     OW34017   7.226   5.211  10.815  0.2802  0.2572 -0.0101
74013SOL    HW134018   7.238   5.294  10.768 -0.4139  0.0802 -0.5121
74013SOL    HW234019   7.224   5.144  10.747 -0.3478 -0.0431  0.2949
74014SOL     OW34020  11.428   1.382  10.843  0.1831 -0.1813 -0.2095
74014SOL    HW134021  11.372   1.441  10.793  0.8874 -0.2779 -1.1411
74014SOL    HW234022  11.367   1.323  10.888 -0.5913  1.7080  1.4051
74015SOL     OW34023  12.137  10.921  12.926 -0.4016 -0.0804 -0.8291
74015SOL    HW134024  12.184  10.946  12.846  1.3020  1.0103  0.4527
74015SOL    HW234025  12.092  11.001  12.954  0.3131 -0.0086  0.1513
74016SOL     OW34026  13.000  12.934   7.358  0.3303 -0.2718 -0.5964
74016SOL    HW134027  12.999  12.955   7.265  0.4129  0.2492 -0.4843
74016SOL    HW234028  12.916  12.892   7.375 -1.1276  2.5333 -0.2619
74017SOL     OW34029   3.461  13.175   1.446  0.0977 -0.0393 -0.3251
74017SOL    HW134030   3.503  13.261   1.448  2.0769 -0.9178 -1.4507
74017SOL    HW234031   3.443  13.155   1.538  1.5557  0.6895  0.1503
74018SOL     OW34032   6.676   7.777   7.479 -0.3331 -0.1874 -0.0026
74018SOL    HW134033   6.682   7.684   7.455 -2.3607 -0.8836  1.8521
74018SOL    HW234034   6.618   7.815   7.412 -1.2865 -0.7884  0.4614
74019SOL     OW34035   6.588   1.684   4.059  0.0212 -0.2529  0.0089
74019SOL    HW134036   6.602   1.708   4.150 -0.4773 -0.5096  0.1584
74019SOL    HW234037   6.498   1.651   4.056 -0.1539  0.2577 -0.6779
74020SOL     OW34038   0.841   4.171   5.389 -0.5974 -0.0758  0.2016
74020SOL    HW134039   0.829   4.192   5.482  1.2247  0.4117  0.3686
74020SOL    HW234040   0.808   4.248   5.342 -0.3981  0.1904  0.4974
74021SOL     OW34041   1.066  12.837   1.252 -1.0021 -0.4292  0.6217
74021SOL    HW134042   0.971  12.841   1.257 -0.9829 -0.7995  1.4728
74021SOL    HW234043   1.087  12.862   1.162 -1.8263  0.8268  0.7607
74022SOL     OW34044   9.317   9.852  11.670  0.0203  0.4910 -0.5464
74022SOL    HW134045   9.300   9.889  11.757  0.0438 -0.0612 -0.3040
74022SOL    HW234046   9.231   9.837  11.632  0.0109  0.8098 -0.6538
74023SOL     OW34047   4.176   6.933  12.634  0.3160  0.4822  0.4537
74023SOL    HW134048   4.267   6.905  12.618  0.9241  1.8054  1.4003
74023SOL    HW234049   4.160   7.001  12.569 -0.0732  0.1259  0.1732
74024SOL     OW34050   8.599   4.134   3.649  0.4487  0.4355  0.0861
74024SOL    HW134051   8.587   4.222   3.612 -0.1337  0.8191  1.1338
74024SOL    HW234052   8.631   4.150   3.738  0.4723 -0.4235  0.2421
74025SOL     OW34053  12.911  10.976   8.426 -0.8024 -0.6895  0.0057
74025SOL    HW134054  12.941  10.991   8.336  0.8477 -2.9231  0.1049
74025SOL    HW234055  12.991  10.970   8.477 -1.7005  2.2137  2.0630
74026SOL     OW34056  10.493   1.177   9.082  0.1372  0.1428 -0.1033
74026SOL    HW134057  10.408   1.216   9.063  0.8024  1.2549 -0.8735
74026SOL    HW234058  10.496   1.099   9.027 -0.8493 -0.5810  0.8139
74027SOL     OW34059   7.054   3.671   6.617 -0.4188  0.2684 -0.2698
74027SOL    HW134060   7.087   3.591   6.658  1.7220  1.3953  0.3327
74027SOL    HW234061   7.083   3.741   6.675 -0.3927  1.6421 -1.8936
74028SOL     OW34062  11.893   6.250   7.618  0.0577 -0.5316  0.2764
74028SOL    HW134063  11.859   6.330   7.578  0.0537 -0.2674  0.8014
74028SOL    HW234064  11.917   6.195   7.544 -1.9506 -0.9328 -0.1531
74029SOL     OW34065  10.768  11.976   3.733 -0.3929  0.1366  0.5260
74029SOL    HW134066  10.852  11.960   3.776  0.8957  1.3415 -1.3561
74029SOL    HW234067  10.760  12.071   3.732  0.1402  0.2591 -2.5644
74030SOL     OW34068   3.541   7.874   0.796 -0.0974  0.2380  0.7187
74030SOL    HW134069   3.513   7.782   0.798  1.2796 -0.2699 -1.0507
74030SOL    HW234070   3.493   7.912   0.723 -0.2695  0.8162  1.1235
74031SOL     OW34071   4.401  13.474   6.292 -0.4413 -0.2504 -0.0059
74031SOL    HW134072   4.322  13.527   6.285  0.3071  0.6692 -2.7118
74031SOL    HW234073   4.472  13.535   6.271  0.9175 -1.3005  1.3245
74032SOL     OW34074   0.305   0.379  10.615  0.0771  0.6061  0.0345
74032SOL    HW134075   0.400   0.384  10.603  0.2973  1.2938  1.7235
74032SOL    HW234076   0.282   0.290  10.592  0.9189  0.7969 -1.6682
74033SOL     OW34077  12.208  10.628   5.675 -0.0171  0.6214 -0.2020
74033SOL    HW134078  12.253  10.688   5.734 -1.6775  0.2083  1.5659
74033SOL    HW234079  12.213  10.543   5.719 -0.0606  0.0001 -1.3618
74034SOL     OW34080   0.233  13.835   3.480  0.0579  0.0036 -0.5509
74034SOL    HW134081   0.265  13.856   3.567 -0.5582 -0.6690 -0.1445
74034SOL    HW234082   0.138  13.833   3.489  0.0352 -1.8712 -0.7816
74035SOL     OW34083   3.701   4.227   2.265  0.3887  1.2318  0.3832
74035SOL    HW134084   3.790   4.191   2.268  0.2079  0.5187 -1.4655
74035SOL    HW234085   3.697   4.288   2.339  2.3404  1.1179  0.6313
74036SOL     OW34086   3.063   5.778  12.794  0.1037  0.3119 -0.6669
74036SOL    HW134087   3.121   5.854  12.789  0.0932  0.3711 -0.0379
74036SOL    HW234088   3.101   5.725  12.864 -0.5087  0.2717 -0.3662
74037SOL     OW34089   2.024   5.952   5.364  0.0654 -0.5050  0.1194
74037SOL    HW134090   2.023   5.883   5.298  0.3350  0.8988 -1.4370
74037SOL    HW234091   1.952   6.010   5.339  0.9904  0.7534  0.2293
74038SOL     OW34092  10.542   6.715   3.983 -0.0371  0.3436 -0.3658
74038SOL    HW134093  10.564   6.684   4.071  4.2703  0.3426 -1.2257
74038SOL    HW234094  10.471   6.776   3.997 -1.0399 -1.2913  2.8010
74039SOL     OW34095   4.212   8.160   9.602  0.1213  0.1134 -0.2778
74039SOL    HW134096   4.288   8.115   9.565 -0.3391 -1.4272  0.5709
74039SOL    HW234097   4.248   8.239   9.642  1.1677 -0.2165 -0.5300
74040SOL     OW34098   2.802  11.828   1.586 -0.0331 -0.0448 -0.4632
74040SOL    HW134099   2.847  11.783   1.657 -2.1918 -0.8155  0.4687
74040SOL    HW234100   2.777  11.913   1.623  0.6823  0.4314 -1.0204
74041SOL     OW34101   1.280  13.596   1.169  0.1447  0.0929 -0.2982
74041SOL    HW134102   1.213  13.642   1.220 -0.7536 -0.2695 -1.1168
74041SOL    HW234103   1.347  13.572   1.232  0.0692  1.4965  0.3502
74042SOL     OW34104  11.080  11.838   2.220 -0.5117  0.3831 -0.3129
74042SOL    HW134105  11.075  11.893   2.298 -0.2132  0.2924 -0.2288
74042SOL    HW234106  11.149  11.877   2.167 -1.1745  0.8513 -0.8553
74043SOL     OW34107   4.069   5.265   7.348  0.0700  0.3034 -0.7414
74043SOL    HW134108   4.011   5.340   7.331 -2.0097 -1.3899 -1.4943
74043SOL    HW234109   4.090   5.231   7.262 -0.2840 -0.8871 -0.3777
74044SOL     OW34110  12.038   7.462   3.410  0.1527  0.3346 -0.1124
74044SOL    HW134111  11.977   7.392   3.432 -0.0008  0.4228 -0.2541
74044SOL    HW234112  12.040   7.463   3.314  0.9922 -0.1953 -0.1075
74045SOL     OW34113   6.485   0.573   4.016 -0.1094  0.2292  0.1441
74045SOL    HW134114   6.405   0.608   4.055 -0.1230 -1.8918  2.2304
74045SOL    HW234115   6.461   0.487   3.982  0.8554  0.3859 -1.0112
74046SOL     OW34116  12.051   8.550   3.846  0.1444  0.1667  0.3316
74046SOL    HW134117  11.988   8.600   3.897 -0.5556 -0.2344 -0.1251
74046SOL    HW234118  12.088   8.487   3.909 -0.3077  0.0416  0.4754
74047SOL     OW34119   3.701  11.703   7.060 -0.5447  0.4936  0.2257
74047SOL    HW134120   3.756  11.782   7.063  0.2191 -0.0415  2.8270
74047SOL    HW234121   3.618  11.730   7.098 -0.6778  0.3291  0.0519
74048SOL     OW34122   2.352   4.150   5.031  0.5320 -0.0387  0.2906
74048SOL    HW134123   2.302   4.169   5.111 -0.1291 -0.5578  0.0145
74048SOL    HW234124   2.308   4.200   4.963  1.3075  0.6778  0.3016
74049SOL     OW34125  10.436   2.077   9.550  0.1229 -0.1449  0.1960
74049SOL    HW134126  10.371   2.137   9.513 -1.3042 -0.8758  1.3810
74049SOL    HW234127  10.428   1.998   9.497 -1.3678 -0.9140  1.4877
74050SOL     OW34128  12.762   3.845   2.872 -0.1953  0.0035  0.7725
74050SOL    HW134129  12.800   3.784   2.935  0.7103 -0.8253 -0.5355
74050SOL    HW234130  12.753   3.795   2.791 -2.7252  0.6009  0.5967
74051SOL     OW34131   9.809   6.172   9.595 -0.3425  0.1943  0.0175
74051SOL    HW134132   9.869   6.205   9.527  2.3718  0.3686  2.2912
74051SOL    HW234133   9.726   6.215   9.577  1.6619  4.5604 -0.1042
74052SOL     OW34134   7.811   0.690   5.215  0.3658  0.2444 -0.3101
74052SOL    HW134135   7.879   0.641   5.168  0.6852 -0.4533  0.8611
74052SOL    HW234136   7.731   0.669   5.168  0.7238 -0.1685 -0.7524
74053SOL     OW34137  10.350   0.142  12.909  0.3864 -0.1526 -0.5256
74053SOL    HW134138  10.301   0.059  12.910  1.0988 -0.5807 -0.0399
74053SOL    HW234139  10.396   0.143  12.993  0.2072  0.8566 -0.4331
74054SOL     OW34140   1.638   6.226   1.853  0.1678  0.5087  0.5630
74054SOL    HW134141   1.714   6.277   1.878  0.8833 -0.4366  0.3690
74054SOL    HW234142   1.631   6.159   1.922  0.5816 -0.4911 -0.3368
74055SOL     OW34143  11.762  11.095  13.382  0.8022  0.7942 -0.8206
74055SOL    HW134144  11.731  11.019  13.333 -0.7080  0.3519  0.7192
74055SOL    HW234145  11.834  11.062  13.436 -0.6643  0.0562  0.8015
74056SOL     OW34146  11.147   6.992   8.519  0.3230 -0.1992 -0.2759
74056SOL    HW134147  11.227   7.044   8.523  1.7764 -2.3695  0.6292
74056SOL    HW234148  11.098   7.018   8.597  0.0224  1.2263 -0.8980
74057SOL     OW34149  13.987   7.872   5.969 -0.0536 -0.0733 -0.3045
74057SOL    HW134150  13.940   7.915   5.897  0.3898 -0.4949 -0.8535
74057SOL    HW234151  13.917   7.837   6.025 -0.4136  0.7881 -0.1895
74058SOL     OW34152   0.340   6.831   0.015  0.1969  0.4481  0.0003
74058SOL    HW134153   0.401   6.876   0.073  0.3113  1.5690 -0.9763
74058SOL    HW234154   0.396   6.783  -0.046  0.0970 -1.7247  1.4734
74059SOL     OW34155   7.350   8.942   4.386  0.3971 -0.5006 -0.0287
74059SOL    HW134156   7.276   8.886   4.362  0.9335 -1.5423  0.6670
74059SOL    HW234157   7.373   8.914   4.474  0.8441  0.6653  0.2421
74060SOL     OW34158  10.541  12.657  12.813 -0.4139  1.2688  0.4160
74060SOL    HW134159  10.585  12.737  12.784 -0.4455  0.2091 -2.8620
74060SOL    HW234160  10.450  12.685  12.829 -0.1605  2.1118  0.4328
74061SOL     OW34161  10.228   2.188  11.914 -0.3143  0.0499 -0.2704
74061SOL    HW134162  10.314   2.156  11.888 -0.8266 -1.4485 -0.2120
74061SOL    HW234163  10.200   2.244  11.841  0.5706  0.3051 -0.4198
74062SOL     OW34164  11.463   9.731  11.179 -0.3554  0.7672 -0.0002
74062SOL    HW134165  11.379   9.696  11.151 -0.7960  2.2466 -0.6392
74062SOL    HW234166  11.525   9.703  11.112 -0.2361 -0.6627  0.6789
74063SOL     OW34167   6.491   5.890  11.209 -0.0204  0.1073 -0.2803
74063SOL    HW134168   6.465   5.958  11.148 -1.3596 -0.8183 -0.7963
74063SOL    HW234169   6.555   5.838  11.162 -0.0334  0.1955 -0.3955
74064SOL     OW34170   3.010  11.530   6.327 -0.2856 -0.7577  0.3462
74064SOL    HW134171   2.924  11.572   6.326 -0.2897 -0.7439 -0.9675
74064SOL    HW234172   3.033  11.524   6.419 -1.6429 -0.6509  0.7115
74065SOL     OW34173   1.605   8.723  13.199 -0.0794  0.2036  0.2161
74065SOL    HW134174   1.628   8.650  13.141 -0.6459 -0.1906  0.4742
74065SOL    HW234175   1.650   8.798  13.162 -0.3734 -0.0571 -0.6992
74066SOL     OW34176  13.566   0.695  12.649 -0.3747  0.5291  0.1012
74066SOL    HW134177  13.589   0.725  12.562  1.7563 -1.7190 -0.2245
74066SOL    HW234178  13.644   0.712  12.702 -0.7796 -0.2441  0.9758
74067SOL     OW34179   8.725   1.834   3.107 -0.3513  0.7086 -0.2696
74067SOL    HW134180   8.674   1.878   3.040  0.0221 -0.0762 -1.0846
74067SOL    HW234181   8.690   1.744   3.108  0.4419  0.3943 -0.2501
74068SOL     OW34182  12.311   8.672   0.466  0.7073  0.3851 -0.4771
74068SOL    HW134183  12.384   8.674   0.528  0.0752  2.5205  0.2878
74068SOL    HW234184  12.350   8.696   0.382  0.8176  2.2046  0.0634
74069SOL     OW34185   2.021   7.343   7.922  0.3569  0.1528 -0.3837
74069SOL    HW134186   2.061   7.295   7.995  0.1650  0.3081 -0.1749
74069SOL    HW234187   1.928   7.324   7.930  0.2739  0.5932 -0.2743
74070SOL     OW34188   3.320   0.892  11.845 -0.1814  0.0414 -0.1665
74070SOL    HW134189   3.338   0.827  11.913 -1.2535  0.3228  0.4069
74070SOL    HW234190   3.376   0.866  11.771  0.6020 -0.5786  0.6244
74071SOL     OW34191   3.989   9.116  10.608 -0.4574 -0.5606  0.1668
74071SOL    HW134192   4.076   9.145  10.582 -0.5617 -0.3579  0.0378
74071SOL    HW234193   3.935   9.196  10.604 -0.6459 -0.6831  0.2509
74072SOL     OW34194   3.557   2.077   6.691  0.2034  0.1047  0.4367
74072SOL    HW134195   3.497   2.095   6.619  0.7222 -1.5850 -0.4623
74072SOL    HW234196   3.501   2.060   6.767 -0.4795 -1.1649 -0.3201
74073SOL     OW34197   2.714   4.242   2.599 -0.7104  0.3812 -0.0444
74073SOL    HW134198   2.787   4.302   2.588 -0.8142  0.8222  1.4041
74073SOL    HW234199   2.649   4.271   2.536 -0.1986  0.8769 -0.3552
74074SOL     OW34200  10.121   9.295  10.924  0.3242  0.0774 -0.5082
74074SOL    HW134201  10.168   9.375  10.945  1.7149 -0.5539 -1.0593
74074SOL    HW234202  10.151   9.232  10.989 -0.1564 -0.1999 -0.5512
74075SOL     OW34203   4.591   4.962   1.384 -0.0822  0.4857 -0.2375
74075SOL    HW134204   4.637   4.914   1.315 -0.0133 -1.4808  1.0618
74075SOL    HW234205   4.499   4.948   1.365 -0.0635 -0.0382  0.0348
74076SOL     OW34206   1.812   7.448   1.662  0.1489 -0.6044 -0.1355
74076SOL    HW134207   1.864   7.368   1.664  1.2845 -0.0597  4.5592
74076SOL    HW234208   1.844   7.500   1.736 -2.9413  2.6259 -0.7381
74077SOL     OW34209  13.620   2.673   2.041 -0.5168  0.1118  0.4205
74077SOL    HW134210  13.699   2.669   2.095 -1.4308  2.1191  2.0261
74077SOL    HW234211  13.646   2.725   1.965 -0.2868  0.7517  0.9324
74078SOL     OW34212   4.197  10.564  11.482 -0.2595  0.1454 -0.1807
74078SOL    HW134213   4.135  10.636  11.493 -0.4597 -0.1108  0.3897
74078SOL    HW234214   4.142  10.487  11.467 -0.0854 -0.0784  0.3081
74079SOL     OW34215   7.423   8.281   2.411  0.2970 -0.5392 -0.2001
74079SOL    HW134216   7.385   8.263   2.325  0.3501  0.9539 -0.5611
74079SOL    HW234217   7.353   8.262   2.473 -0.6343  0.8964 -0.7723
74080SOL     OW34218   5.332  11.756   8.244  0.1070  0.1917 -0.4855
74080SOL    HW134219   5.382  11.734   8.165  0.7753 -0.5812  0.1360
74080SOL    HW234220   5.374  11.836   8.276 -1.0158  1.2877 -1.6148
74081SOL     OW34221  12.051   8.545  10.136  0.2008 -0.0741  0.6153
74081SOL    HW134222  11.966   8.588  10.131 -0.4021 -0.9650  2.4192
74081SOL    HW234223  12.107   8.609  10.181 -0.3222 -0.5740  2.0380
74082SOL     OW34224  10.576   9.792   3.931 -0.3547  0.2796 -0.1413
74082SOL    HW134225  10.485   9.773   3.907 -0.3972 -0.1759  0.3602
74082SOL    HW234226  10.611   9.708   3.958  0.2210  0.4583 -0.3268
74083SOL     OW34227   7.556   2.082   1.789 -0.3376  0.1733  0.2316
74083SOL    HW134228   7.616   2.086   1.864  1.2504 -1.3459 -0.8777
74083SOL    HW234229   7.471   2.108   1.825  0.6133  0.6809  2.2643
74084SOL     OW34230   2.651   7.609  12.957 -1.0532 -0.3000 -0.3594
74084SOL    HW134231   2.723   7.636  13.014 -1.6647  1.1259 -0.2249
74084SOL    HW234232   2.690   7.544  12.899  0.6416  1.1504 -0.9384
74085SOL     OW34233   7.051  12.437  13.589 -0.0728  0.1872 -0.0379
74085SOL    HW134234   7.023  12.355  13.629 -0.1744  0.3076  0.1404
74085SOL    HW234235   7.141  12.420  13.560 -0.7391 -0.5991 -1.7464
74086SOL     OW34236  11.950   2.481   8.156  0.0988  0.0311  0.4440
74086SOL    HW134237  11.912   2.397   8.183  0.9068 -0.3836  0.3290
74086SOL    HW234238  11.886   2.546   8.183 -0.1105 -0.5521  1.3970
74087SOL     OW34239  11.134   7.313  12.162  0.1125 -0.1107 -0.8788
74087SOL    HW134240  11.068   7.355  12.106 -0.0244 -1.5490 -1.8347
74087SOL    HW234241  11.156   7.380  12.227 -0.0223  1.4817 -2.3936
74088SOL     OW34242   4.910  12.127   1.801  0.1933 -0.2543  0.4966
74088SOL    HW134243   4.953  12.175   1.872 -1.2767 -0.1183  1.3475
74088SOL    HW234244   4.977  12.067   1.768  1.5922  1.2506  0.4781
74089SOL     OW34245   7.448   0.867  11.716  0.2123  0.0714  0.0658
74089SOL    HW134246   7.506   0.804  11.759 -0.0493  0.0003  0.3208
74089SOL    HW234247   7.369   0.867  11.770  0.4951  1.1763  0.5092
74090SOL     OW34248   8.166   8.932  12.771  0.1293  0.1581 -0.6108
74090SOL    HW134249   8.103   8.884  12.717  0.3016 -0.2388 -0.4612
74090SOL    HW234250   8.206   8.865  12.827 -0.0036  0.5547 -0.0329
74091SOL     OW34251   8.693  13.416  12.659 -0.5387 -0.1505 -0.0433
74091SOL    HW134252   8.762  13.424  12.725 -0.4634 -0.9460 -0.0155
74091SOL    HW234253   8.706  13.328  12.622  0.5101  0.8941 -2.3300
74092SOL     OW34254   4.007  11.236   0.787 -0.2357  0.0659  0.4499
74092SOL    HW134255   4.009  11.148   0.750  0.9697  0.2904 -0.0452
74092SOL    HW234256   3.928  11.236   0.842 -1.1289 -0.8039 -0.7586
74093SOL     OW34257   9.150   7.116   1.531  0.3348  0.0018  0.3323
74093SOL    HW134258   9.222   7.134   1.592  1.2182  0.1608 -0.7318
74093SOL    HW234259   9.128   7.202   1.494 -0.7818  0.0432  1.0261
74094SOL     OW34260  13.494   8.368   5.745 -0.6042  0.1150 -0.4385
74094SOL    HW134261  13.492   8.450   5.695 -1.3680 -0.0898 -0.7612
74094SOL    HW234262  13.422   8.377   5.808 -0.5145 -0.1940 -0.2890
74095SOL     OW34263   5.875   4.630   7.239 -0.3909 -0.0430 -0.5446
74095SOL    HW134264   5.908   4.548   7.204  0.5775 -1.0381  2.3613
74095SOL    HW234265   5.780   4.623   7.231 -0.2631  0.5987 -4.3200
74096SOL     OW34266   1.480  12.073   7.792 -0.4362  0.2351  0.5260
74096SOL    HW134267   1.470  12.155   7.742  2.6968  0.6854  0.4358
74096SOL    HW234268   1.528  12.099   7.871 -0.0744 -1.3993  0.8661
74097SOL     OW34269   0.753   9.936   1.740 -0.0230  0.2913 -0.2141
74097SOL    HW134270   0.842   9.935   1.705 -0.8241  1.9957 -2.5175
74097SOL    HW234271   0.707   9.869   1.690 -0.7452  1.4973 -1.2054
74098SOL     OW34272   5.937   3.684  13.256 -0.0200 -0.2593  0.1502
74098SOL    HW134273   6.030   3.679  13.235  0.1381  0.7680  0.5198
74098SOL    HW234274   5.905   3.595  13.244  0.9544 -0.5792 -0.2244
74099SOL     OW34275   4.154   4.308   7.792 -0.1124 -0.8534 -0.1073
74099SOL    HW134276   4.147   4.398   7.762  0.4704 -0.5361  0.6699
74099SOL    HW234277   4.072   4.289   7.836 -0.3221 -0.7804 -0.4664
74100SOL     OW34278  10.067   1.754   4.717 -0.5035  0.0287 -0.1863
74100SOL    HW134279  10.035   1.704   4.642 -0.6216 -0.1708 -0.0033
74100SOL    HW234280  10.047   1.699   4.792  1.1677 -0.5614 -0.1349
74101SOL     OW34281  12.062   2.401  11.559 -0.3195 -0.2107 -0.0291
74101SOL    HW134282  12.027   2.468  11.500 -0.8427 -0.1588  0.3318
74101SOL    HW234283  12.079   2.326  11.502  3.2887  1.1957 -1.0646
74102SOL     OW34284   6.352   8.786   6.650  0.5318 -0.0877 -0.3009
74102SOL    HW134285   6.311   8.865   6.614 -2.4286 -0.4805  1.8297
74102SOL    HW234286   6.319   8.715   6.595  0.5399 -0.1547 -0.2201
74103SOL     OW34287   3.005   0.988  11.373 -0.0080 -0.7302 -0.2488
74103SOL    HW134288   2.969   1.066  11.331  0.3005 -0.4660 -0.0177
74103SOL    HW234289   3.020   0.927  11.300  1.5969  0.1396 -0.6964
74104SOL     OW34290   1.471   9.159  13.246 -0.1724  0.0924 -0.1729
74104SOL    HW134291   1.426   9.097  13.188 -0.7867  1.7144 -1.4913
74104SOL    HW234292   1.421   9.240  13.238 -0.0306  0.5062  2.3581
74105SOL     OW34293   8.866   6.379   6.143 -0.4858 -0.0563 -0.2549
74105SOL    HW134294   8.776   6.410   6.141 -1.0442 -1.4110  1.4442
74105SOL    HW234295   8.873   6.320   6.068 -0.6613  0.8455 -1.0060
74106SOL     OW34296   3.510   6.840   0.568  0.6826  0.2503 -0.0808
74106SOL    HW134297   3.532   6.800   0.483  3.0808  2.4657 -0.6066
74106SOL    HW234298   3.416   6.858   0.561  0.3224 -1.7095 -1.2923
74107SOL     OW34299   7.561   2.509   5.855  0.2329  0.0987  0.3369
74107SOL    HW134300   7.624   2.438   5.870 -0.6012 -0.5849  0.7170
74107SOL    HW234301   7.509   2.479   5.780 -0.8307 -0.2202  1.1711
74108SOL     OW34302   0.890   4.127  12.803  0.5246 -0.2169  0.5540
74108SOL    HW134303   0.912   4.140  12.710 -0.6582  0.7793  0.3907
74108SOL    HW234304   0.939   4.195  12.849  0.5292 -0.2357  0.5766
74109SOL     OW34305   4.453   9.547  10.207  0.3034  0.4323 -0.1309
74109SOL    HW134306   4.435   9.565  10.299  1.8833 -0.2219  0.3377
74109SOL    HW234307   4.544   9.575  10.195  0.9844 -1.8654 -0.8076
74110SOL     OW34308   7.253   7.514   1.737 -0.2007 -0.3509 -0.0391
74110SOL    HW134309   7.183   7.493   1.675  0.5556  0.4607 -1.2021
74110SOL    HW234310   7.211   7.507   1.823 -0.9197 -2.9338 -0.5054
74111SOL     OW34311  12.293   6.929  10.767  0.0789 -0.0206  0.0590
74111SOL    HW134312  12.254   6.844  10.787  0.4162 -0.3093 -0.4992
74111SOL    HW234313  12.331   6.918  10.680 -0.5431  0.9388 -0.3440
74112SOL     OW34314   6.960   9.312   0.252  0.2163  0.1796 -0.3374
74112SOL    HW134315   6.930   9.292   0.340  0.5209 -1.1776 -0.5220
74112SOL    HW234316   6.883   9.298   0.197 -0.0451  1.2851 -0.2646
74113SOL     OW34317   5.586   3.464  13.326  0.1687 -0.0491 -0.0475
74113SOL    HW134318   5.643   3.398  13.367  0.5538 -0.8136 -1.7228
74113SOL    HW234319   5.528   3.414  13.269 -0.9409  0.9053  0.1993
74114SOL     OW34320  10.867   9.280   8.519 -0.6200  0.2468  0.0315
74114SOL    HW134321  10.950   9.233   8.513  0.2871  1.4684  1.8297
74114SOL    HW234322  10.805   9.216   8.554  0.1253 -0.1106  0.7334
74115SOL     OW34323   2.213   4.301   3.695 -0.4572 -0.4907 -0.4554
74115SOL    HW134324   2.200   4.319   3.602 -0.0452  0.8487 -0.2741
74115SOL    HW234325   2.279   4.365   3.723  1.1365 -2.3585  0.2526
74116SOL     OW34326   5.426   4.196   9.597 -0.4640  0.0955  0.2546
74116SOL    HW134327   5.419   4.275   9.650 -0.7577 -1.3862  2.5744
74116SOL    HW234328   5.517   4.196   9.567 -0.1010  0.6796  1.3026
74117SOL     OW34329   2.877  10.040   5.976 -0.0525  0.3164 -0.2805
74117SOL    HW134330   2.877   9.974   6.045 -0.4288 -0.8292 -1.3431
74117SOL    HW234331   2.940  10.006   5.912  0.0558  1.2099 -0.6537
74118SOL     OW34332   9.833   8.808   6.737  0.1622  0.5721  0.2712
74118SOL    HW134333   9.828   8.903   6.730  3.3528  0.8273 -0.1064
74118SOL    HW234334   9.927   8.789   6.736 -0.3515 -2.5453  1.0701
74119SOL     OW34335   4.892   9.923   8.202  0.1857  0.3972  0.4649
74119SOL    HW134336   4.920  10.014   8.194 -0.4568  0.6665  1.1767
74119SOL    HW234337   4.798   9.925   8.187  0.0248 -0.0117  1.3819
74120SOL     OW34338   3.563  12.454  13.371 -0.5762  0.0504 -0.1165
74120SOL    HW134339   3.612  12.372  13.367 -1.6156 -0.7586  2.0529
74120SOL    HW234340   3.472  12.428  13.367 -0.9201  1.2445 -0.6436
74121SOL     OW34341  11.541   2.466   6.786 -0.4099  0.0713  0.2582
74121SOL    HW134342  11.567   2.376   6.769  0.4798  0.3175  0.2433
74121SOL    HW234343  11.596   2.493   6.860 -0.2848  0.7582 -0.0785
74122SOL     OW34344   5.620   1.544   6.791  0.3340 -0.0709  0.3380
74122SOL    HW134345   5.606   1.553   6.886 -2.2630  1.8576 -0.1238
74122SOL    HW234346   5.705   1.586   6.776 -0.1457  1.4621  1.5901
74123SOL     OW34347   1.069  10.572  12.614  0.4150 -0.1510 -0.5308
74123SOL    HW134348   0.990  10.602  12.659  0.1846  0.2727 -1.1971
74123SOL    HW234349   1.047  10.576  12.521  2.2991  3.3049 -0.9895
74124SOL     OW34350   9.135   1.710  13.129  0.6935 -0.5207  0.0503
74124SOL    HW134351   9.097   1.650  13.193 -0.3236  0.5445  0.4920
74124SOL    HW234352   9.203   1.758  13.178  0.0915  0.1132  0.2886
74125SOL     OW34353  11.364  10.842  10.736  0.3223 -0.1134 -0.5890
74125SOL    HW134354  11.347  10.923  10.688  1.5546 -0.3165 -1.4078
74125SOL    HW234355  11.291  10.785  10.714  0.0833  0.3437 -0.9847
74126SOL     OW34356   1.790   2.502   8.826 -0.3215 -0.6012  0.0377
74126SOL    HW134357   1.810   2.512   8.919 -2.0753 -1.2602  0.5234
74126SOL    HW234358   1.704   2.461   8.824  0.6640 -2.7900 -1.8919
74127SOL     OW34359  11.207  12.220   6.513  0.4780 -0.0028 -0.0131
74127SOL    HW134360  11.215  12.291   6.449  1.2347 -1.1097 -1.2080
74127SOL    HW234361  11.132  12.169   6.484  0.6233 -0.3251  0.1662
74128SOL     OW34362  12.002   8.395   8.672 -0.1938 -0.7691  0.4987
74128SOL    HW134363  12.065   8.457   8.708 -0.4659 -0.5007  0.5129
74128SOL    HW234364  11.936   8.384   8.740  1.5699 -3.6811  1.9304
74129SOL     OW34365   7.134   9.815   0.998  0.3786  0.1527 -0.1452
74129SOL    HW134366   7.225   9.786   1.005 -0.2305 -1.7842  0.5321
74129SOL    HW234367   7.138   9.909   1.015  2.3404  0.2908 -1.0141
74130SOL     OW34368   2.627   8.252   8.093  0.0989 -0.0971  0.1449
74130SOL    HW134369   2.555   8.315   8.098  1.4962  1.4685  1.8854
74130SOL    HW234370   2.587   8.174   8.054 -3.0514  0.0049  2.7257
74131SOL     OW34371   2.698  12.538  11.992  0.4748  0.3081 -0.0084
74131SOL    HW134372   2.635  12.578  12.052  1.2419  0.6643  0.5858
74131SOL    HW234373   2.775  12.521  12.046  0.9145 -0.0622 -0.7316
74132SOL     OW34374  11.356  13.357   5.937 -0.3847 -0.3673 -0.3509
74132SOL    HW134375  11.285  13.321   5.990 -0.2886 -0.4339 -0.2676
74132SOL    HW234376  11.436  13.318   5.973 -0.0271  1.6545  1.2179
74133SOL     OW34377   4.032  10.717   5.018 -0.1048  0.0062  0.1314
74133SOL    HW134378   3.950  10.711   5.067 -1.0395 -0.9141 -1.4286
74133SOL    HW234379   4.078  10.636   5.040 -0.7050 -0.6002 -0.7474
74134SOL     OW34380  12.376   8.687   3.755  0.8841 -0.7198  0.0711
74134SOL    HW134381  12.460   8.669   3.799  1.3355  0.8227 -0.0756
74134SOL    HW234382  12.363   8.781   3.768  1.6910  0.1812 -4.0915
74135SOL     OW34383   1.091   1.736   7.609  0.5176 -0.0196 -0.4547
74135SOL    HW134384   1.039   1.768   7.535  1.5628 -0.1666 -1.2658
74135SOL    HW234385   1.177   1.776   7.599  1.1288 -1.1904 -0.1607
74136SOL     OW34386   2.427  11.791   3.138  0.2162 -0.6443  0.5023
74136SOL    HW134387   2.486  11.758   3.206 -0.3634  1.9825  2.4405
74136SOL    HW234388   2.352  11.826   3.186  0.4247  2.6957 -1.2963
74137SOL     OW34389   8.834   2.152  10.317 -0.5771  0.6047  0.6788
74137SOL    HW134390   8.823   2.074  10.263 -1.5166  0.3336  1.2501
74137SOL    HW234391   8.810   2.125  10.405 -1.5657  1.6821  0.7757
74138SOL     OW34392   5.314  13.459  11.049 -0.5020 -0.9479 -0.9318
74138SOL    HW134393   5.359  13.405  10.983 -0.2222 -2.6372  0.5684
74138SOL    HW234394   5.268  13.396  11.104  0.1380  0.2899  1.1379
74139SOL     OW34395   2.026  11.174   8.979 -0.3794  0.1258 -0.2905
74139SOL    HW134396   1.953  11.112   8.971 -0.3018 -0.1246  0.8121
74139SOL    HW234397   1.993  11.244   9.035  1.0369 -1.3627  2.6282
74140SOL     OW34398   5.515   4.896  10.782  0.3126 -0.0041  1.1765
74140SOL    HW134399   5.446   4.939  10.731  0.7087 -0.6355  0.0773
74140SOL    HW234400   5.471   4.867  10.862 -0.0883  1.9502  1.7420
74141SOL     OW34401   2.769   1.554   3.981  0.0074 -0.2171 -0.5322
74141SOL    HW134402   2.698   1.569   4.043  0.8987  1.3319  0.1662
74141SOL    HW234403   2.734   1.489   3.921 -1.7938  0.0860  0.1125
74142SOL     OW34404   5.357  11.376   6.692  0.3792 -0.5976  0.3132
74142SOL    HW134405   5.283  11.434   6.671 -0.6207 -2.1401 -0.5934
74142SOL    HW234406   5.383  11.402   6.780 -1.7643 -0.4959  0.9766
74143SOL     OW34407  11.313   7.384  11.141 -0.4099  0.0721 -0.5593
74143SOL    HW134408  11.254   7.310  11.157 -0.1618  0.1963  1.1183
74143SOL    HW234409  11.307   7.437  11.221  2.8452 -0.5316  0.2235
74144SOL     OW34410   6.260   0.005  12.173  0.0764  0.2408 -0.0523
74144SOL    HW134411   6.273  -0.084  12.140 -0.2969  0.1579  0.0230
74144SOL    HW234412   6.180   0.036  12.129  1.4806  1.4189 -1.9315
74145SOL     OW34413   2.728  11.772  12.034  0.5969 -0.2082  0.3691
74145SOL    HW134414   2.640  11.799  12.009  0.8559 -0.0876 -0.4489
74145SOL    HW234415   2.725  11.765  12.129 -0.0375  0.7078  0.4291
74146SOL     OW34416  11.641  12.842  11.568  0.0759 -0.3343 -0.4120
74146SOL    HW134417  11.728  12.881  11.564  1.0278 -2.1332  0.9170
74146SOL    HW234418  11.581  12.915  11.555  1.7594  0.8110 -2.3897
74147SOL     OW34419   7.775   3.224  12.522 -0.1947 -0.4022 -0.1830
74147SOL    HW134420   7.690   3.246  12.562  0.2927 -1.5870  1.6307
74147SOL    HW234421   7.820   3.172  12.588  1.0540 -1.7474 -1.9886
74148SOL     OW34422   5.284   4.391   3.899 -0.3223 -0.2020 -0.2359
74148SOL    HW134423   5.338   4.322   3.938 -0.7820 -1.4444 -1.6919
74148SOL    HW234424   5.205   4.394   3.953 -0.1490 -0.5825  0.0377
74149SOL     OW34425   7.578   8.019   0.532 -0.2974 -0.5065  0.3704
74149SOL    HW134426   7.640   8.056   0.595  0.7375 -0.6449 -0.5295
74149SOL    HW234427   7.515   7.971   0.585  0.1518 -0.0490  1.3400
74150SOL     OW34428  11.772   8.683   2.493 -0.2927  0.0261 -0.2097
74150SOL    HW134429  11.850   8.646   2.451 -0.4447  0.4845 -0.9075
74150SOL    HW234430  11.801   8.702   2.582  0.2961 -0.1183 -0.3614
74151SOL     OW34431   6.847   7.124  12.365  0.5112  0.0306  0.7076
74151SOL    HW134432   6.751   7.126  12.371  0.6120  1.1145  3.0853
74151SOL    HW234433   6.871   7.037  12.397  0.3520  0.1032  1.0312
74152SOL     OW34434   2.441   0.039   5.393  0.2615 -0.5069  0.0973
74152SOL    HW134435   2.415  -0.036   5.447 -1.0924  0.6691  1.1429
74152SOL    HW234436   2.525   0.067   5.430  1.3505 -2.1139 -0.9966
74153SOL     OW34437  13.926  11.650   8.107 -0.6689  0.0217  0.0279
74153SOL    HW134438  13.946  11.605   8.190 -1.9862  0.3845  0.5652
74153SOL    HW234439  14.001  11.631   8.051  0.1545 -0.4082  1.2361
74154SOL     OW34440  12.705   9.855   1.257  0.7833 -0.0564  0.2551
74154SOL    HW134441  12.738   9.886   1.341  1.0804 -0.1834  0.1844
74154SOL    HW234442  12.688   9.762   1.270 -2.3252  0.5335  1.1851
74155SOL     OW34443   1.766   7.309   9.381  0.3911 -0.5414 -0.3681
74155SOL    HW134444   1.827   7.359   9.434  1.5301 -0.5898 -1.5643
74155SOL    HW234445   1.710   7.374   9.339  1.6462 -0.2469 -1.6529
74156SOL     OW34446  13.589   2.499   4.021 -0.8539 -0.0689 -0.1431
74156SOL    HW134447  13.685   2.502   4.020 -0.8643  0.2294 -0.1830
74156SOL    HW234448  13.564   2.552   4.097 -1.0357  1.0528 -0.9697
74157SOL     OW34449   3.964   0.522   2.271 -0.3462 -0.2312  0.2660
74157SOL    HW134450   3.963   0.443   2.324  2.2731  0.1220  1.0080
74157SOL    HW234451   3.998   0.590   2.329  1.2456  0.4970 -1.4102
74158SOL     OW34452   9.588   2.081  11.542 -0.1979 -0.6588  0.1339
74158SOL    HW134453   9.655   2.146  11.521  0.1390 -0.5477  1.4426
74158SOL    HW234454   9.567   2.039  11.459 -0.4381  1.1379 -0.7410
74159SOL     OW34455   5.357   9.228  10.156  0.3810  0.1483  0.1111
74159SOL    HW134456   5.265   9.201  10.153  0.1684  0.8728 -0.1798
74159SOL    HW234457   5.405   9.148  10.176 -0.2756 -0.3224 -0.1694
74160SOL     OW34458   3.923   4.104   3.279 -0.1752 -0.1585 -0.2443
74160SOL    HW134459   3.862   4.178   3.286 -0.2310  0.1158 -2.8334
74160SOL    HW234460   4.008   4.140   3.303 -0.5431  0.1299  0.7109
74161SOL     OW34461   6.927  12.657   4.060  0.0471 -0.3830  0.4677
74161SOL    HW134462   6.904  12.564   4.063  0.8040 -0.5628  1.5875
74161SOL    HW234463   6.952  12.674   3.969  0.7502 -1.5035  0.4346
74162SOL     OW34464   5.838   2.740   9.480 -0.3102  0.5579 -0.1176
74162SOL    HW134465   5.772   2.793   9.524  0.5704  0.9863  0.7284
74162SOL    HW234466   5.847   2.778   9.393 -1.3635  0.3229 -0.3364
74163SOL     OW34467  10.348   6.038   1.772  0.3150  0.4322 -0.0379
74163SOL    HW134468  10.331   5.953   1.731 -3.2553  1.1307 -0.3652
74163SOL    HW234469  10.279   6.095   1.738  1.8663  3.1927  1.0784
74164SOL     OW34470  12.070   6.875   8.137  1.1533 -0.3060 -0.0303
74164SOL    HW134471  12.053   6.782   8.150 -0.7084  0.1411  1.0470
74164SOL    HW234472  12.014   6.900   8.063  2.1499 -0.1500 -0.7577
74165SOL     OW34473   9.298  11.000   3.106 -0.1094  0.0357 -0.0384
74165SOL    HW134474   9.230  10.933   3.105 -1.5427  1.4185  1.0166
74165SOL    HW234475   9.270  11.064   3.040  1.3453 -0.4414 -1.1831
74166SOL     OW34476   5.594   3.134   9.609  0.2103 -0.1133 -0.2480
74166SOL    HW134477   5.544   3.082   9.547  1.4780 -1.9361  0.1878
74166SOL    HW234478   5.624   3.210   9.559  1.1350 -1.4902 -1.8682
74167SOL     OW34479   0.628   1.020   2.779 -0.0294 -0.0911 -0.3149
74167SOL    HW134480   0.534   1.007   2.793 -0.2498  0.5048 -1.1493
74167SOL    HW234481   0.655   0.945   2.727 -0.1546  0.0022 -0.5158
74168SOL     OW34482  10.131   2.891   8.100 -0.1287 -0.2579  0.0685
74168SOL    HW134483  10.208   2.870   8.047 -0.5043 -2.6440  0.3452
74168SOL    HW234484  10.078   2.947   8.044  0.3194 -1.2502 -1.4041
74169SOL     OW34485  10.279   0.353   0.316 -0.9671 -0.2249  0.3944
74169SOL    HW134486  10.244   0.270   0.349  1.2867 -1.4788 -0.1557
74169SOL    HW234487  10.303   0.402   0.395  1.3314 -1.8078  0.7524
74170SOL     OW34488   7.073   6.381  13.204  0.2142 -0.4741  0.6043
74170SOL    HW134489   7.157   6.380  13.158  0.4828 -0.0913  1.0687
74170SOL    HW234490   7.069   6.296  13.247  0.1468 -0.6770  0.1976
74171SOL     OW34491   6.040  13.038   0.348  0.0579  0.2266  0.2970
74171SOL    HW134492   6.083  13.111   0.393  0.9511 -0.2654  0.2564
74171SOL    HW234493   6.111  12.991   0.305 -0.5313 -0.5644  0.1672
74172SOL     OW34494   7.898   3.167  12.767  0.3076  0.5188 -0.4686
74172SOL    HW134495   7.909   3.247  12.818  1.9132 -0.5304  0.9404
74172SOL    HW234496   7.831   3.117  12.815 -0.2594  0.7372 -1.0158
74173SOL     OW34497  13.691  10.763   7.862  0.0448 -0.2870  0.5719
74173SOL    HW134498  13.737  10.683   7.887 -0.1591 -0.6923 -0.3211
74173SOL    HW234499  13.618  10.733   7.808  0.4322  0.5493 -0.4471
74174SOL     OW34500   1.172   4.087   5.695  0.1138  0.4878  0.2224
74174SOL    HW134501   1.181   4.138   5.775  1.1005  1.3453 -0.4100
74174SOL    HW234502   1.261   4.078   5.662  0.2300 -3.0805  1.1246
74175SOL     OW34503  12.735   0.773   8.471  0.2567 -0.1175 -0.0083
74175SOL    HW134504  12.692   0.837   8.527 -0.3536  1.6630 -2.3513
74175SOL    HW234505  12.672   0.701   8.462 -0.8641  0.9248 -0.7017
74176SOL     OW34506  10.985   1.214  11.936 -0.1921 -0.3270 -0.3142
74176SOL    HW134507  11.025   1.179  12.016  0.7404  2.0776  0.3610
74176SOL    HW234508  11.057   1.253  11.888 -1.0689  0.0443 -1.3595
74177SOL     OW34509   5.168   5.420   5.305 -0.0068  0.3321  0.3928
74177SOL    HW134510   5.138   5.392   5.218  0.1029  1.4988 -0.0354
74177SOL    HW234511   5.116   5.498   5.325  0.1222  0.2008  1.2818
74178SOL     OW34512   1.190   6.991   5.422  0.1350  0.1984  0.7935
74178SOL    HW134513   1.133   6.929   5.377  1.3178  0.1780 -0.7152
74178SOL    HW234514   1.272   6.943   5.436  0.9602  1.3055 -0.1311
74179SOL     OW34515   7.566   0.885   5.825  0.4318 -0.4883 -0.3060
74179SOL    HW134516   7.541   0.798   5.795 -0.7353  0.5065 -2.4359
74179SOL    HW234517   7.494   0.913   5.882  1.2015 -1.1772  1.0712
74180SOL     OW34518   9.529   0.165   8.942 -0.0342  0.3795  0.3289
74180SOL    HW134519   9.592   0.182   9.013 -1.3030  1.3824  1.2606
74180SOL    HW234520   9.565   0.089   8.896  1.7727  0.8077  0.9200
74181SOL     OW34521   9.889   2.081  13.636 -0.2418 -0.4866  0.1592
74181SOL    HW134522   9.922   2.000  13.674 -0.1570 -0.3365  0.4055
74181SOL    HW234523   9.967   2.127  13.607 -0.1493  0.2529  1.4958
74182SOL     OW34524   9.563  13.106   4.665  0.7618 -0.3931  0.4033
74182SOL    HW134525   9.547  13.080   4.756  1.6044  2.3271  1.4475
74182SOL    HW234526   9.648  13.151   4.669  0.0179  1.2760 -1.3810
74183SOL     OW34527   2.738   4.708  13.716  0.2006 -0.1326  0.1578
74183SOL    HW134528   2.705   4.735  13.802 -0.1073 -2.1635  0.7240
74183SOL    HW234529   2.833   4.706  13.727  0.1579 -0.4904  0.4960
74184SOL     OW34530  12.640  11.405   8.669  0.4246 -0.1654 -0.0705
74184SOL    HW134531  12.700  11.334   8.647 -0.3734 -0.4075 -1.5710
74184SOL    HW234532  12.568  11.397   8.606  0.2239  1.8413 -0.1715
74185SOL     OW34533   3.093   7.773  11.987 -0.1581 -0.5131  0.6669
74185SOL    HW134534   3.100   7.737  11.898  2.2994  0.1636  0.4949
74185SOL    HW234535   3.029   7.718  12.031 -1.3521 -0.9436 -1.4869
74186SOL     OW34536   1.133  11.595   1.480  0.0519 -0.5577  0.3376
74186SOL    HW134537   1.157  11.591   1.387  0.1239  2.6482  0.0962
74186SOL    HW234538   1.210  11.564   1.527  0.6365 -0.6277 -0.6386
74187SOL     OW34539  12.575   5.075   0.797  0.6654 -0.4655 -0.0443
74187SOL    HW134540  12.557   5.004   0.859 -1.3866 -1.2977 -1.4611
74187SOL    HW234541  12.627   5.035   0.728  2.2393  0.2535  0.6862
74188SOL     OW34542   0.288  13.151   6.824 -0.1428  0.4110 -0.1539
74188SOL    HW134543   0.303  13.203   6.903 -1.4963 -0.2882  0.6093
74188SOL    HW234544   0.195  13.164   6.805 -0.2259 -0.7714 -0.6275
74189SOL     OW34545   3.570   7.552   5.438  0.5003  0.2706  0.0908
74189SOL    HW134546   3.628   7.597   5.500  1.0556  0.2226 -0.3916
74189SOL    HW234547   3.490   7.605   5.438 -0.7033 -1.3268  3.0959
74190SOL     OW34548   0.604   6.158  13.322 -0.0197 -0.6361 -0.3462
74190SOL    HW134549   0.647   6.146  13.238 -1.7416  0.3160 -1.4247
74190SOL    HW234550   0.675   6.167  13.385  1.3223 -0.1169 -1.8864
74191SOL     OW34551   1.517   0.767   3.406  0.1513 -0.7787  0.5317
74191SOL    HW134552   1.558   0.683   3.427  0.1303 -0.6572  1.0594
74191SOL    HW234553   1.487   0.801   3.490  1.6262  0.5430  0.5669
74192SOL     OW34554  13.745   9.695  11.115 -0.0676 -0.8649  0.1962
74192SOL    HW134555  13.831   9.664  11.143 -0.6045 -1.5399  1.1573
74192SOL    HW234556  13.690   9.687  11.193 -1.2977 -1.5840 -0.6951
74193SOL     OW34557   3.584   0.886   8.191  0.0263  0.0852 -0.3983
74193SOL    HW134558   3.641   0.814   8.217  1.7384  1.6571  0.4251
74193SOL    HW234559   3.540   0.912   8.271  1.0470  1.2990 -0.1993
74194SOL     OW34560   2.062   6.172   1.707 -0.1063  0.1391 -0.2318
74194SOL    HW134561   1.973   6.142   1.689 -1.0053  2.0792  0.7046
74194SOL    HW234562   2.103   6.098   1.751 -1.2362 -0.7927 -0.6746
74195SOL     OW34563   0.232  10.901   2.829 -0.1326 -0.0696  0.3819
74195SOL    HW134564   0.306  10.868   2.778  0.1482  0.9823  0.0784
74195SOL    HW234565   0.187  10.961   2.769 -0.4533  0.3232  1.0101
74196SOL     OW34566  13.421  10.474   9.027  0.0665 -0.3518 -0.0156
74196SOL    HW134567  13.375  10.535   8.968 -0.2148  0.2988  0.8438
74196SOL    HW234568  13.421  10.391   8.981 -0.2430  0.1231 -0.8878
74197SOL     OW34569  11.485   1.677  11.718  0.0369 -0.3916  0.2629
74197SOL    HW134570  11.441   1.625  11.651 -0.5301 -0.4229  0.6535
74197SOL    HW234571  11.428   1.671  11.795  1.0910 -1.0409  1.0164
74198SOL     OW34572   0.098  13.613   1.450 -0.1669  0.2102  0.3514
74198SOL    HW134573   0.072  13.577   1.534  0.0460  0.9027  0.7190
74198SOL    HW234574   0.094  13.538   1.390  1.4023 -0.7275  1.3282
74199SOL     OW34575   8.638   5.023   5.365  0.6714  0.3789  0.7133
74199SOL    HW134576   8.652   5.083   5.291 -0.2446 -0.0406  0.1756
74199SOL    HW234577   8.726   4.998   5.393  1.0392  0.7658 -0.0615
74200SOL     OW34578   4.002  11.262  12.243  0.5539 -0.2249 -0.1755
74200SOL    HW134579   3.954  11.180  12.243  2.2725 -1.3602 -2.4841
74200SOL    HW234580   3.989  11.297  12.155  0.9453  1.3098  0.3427
74201SOL     OW34581   0.537  12.546   7.778  0.3308 -0.5396 -0.2178
74201SOL    HW134582   0.620  12.498   7.776  0.6107 -0.0355 -1.6445
74201SOL    HW234583   0.551  12.615   7.842  1.1171 -0.2998 -0.6286
74202SOL     OW34584   0.174  13.539  10.824  0.0550 -0.2538 -0.4918
74202SOL    HW134585   0.207  13.562  10.737 -0.1557 -0.2063 -0.5607
74202SOL    HW234586   0.252  13.513  10.873  0.5360  1.9515  0.0401
74203SOL     OW34587  10.775   6.076  13.723 -0.2274  0.0206 -0.1802
74203SOL    HW134588  10.810   6.051  13.809 -1.0362 -0.7964 -0.0751
74203SOL    HW234589  10.741   6.165  13.736 -0.6984 -0.2474  0.4584
74204SOL     OW34590  10.358  11.471   8.236 -0.0462 -0.0488 -0.4975
74204SOL    HW134591  10.422  11.456   8.167  0.4353  2.4067 -0.6722
74204SOL    HW234592  10.342  11.566   8.234  0.1949  0.1981  2.9327
74205SOL     OW34593  12.730  13.470   0.643 -0.0037 -0.5681  0.0131
74205SOL    HW134594  12.698  13.554   0.609 -2.5366 -1.1607  0.6957
74205SOL    HW234595  12.824  13.471   0.626 -0.0399  2.1965 -0.4111
74206SOL     OW34596   9.669   4.636   4.761  0.0467 -0.1448  0.7504
74206SOL    HW134597   9.602   4.636   4.693  0.8891  0.4206 -0.1021
74206SOL    HW234598   9.645   4.563   4.818 -1.8477  0.6776  1.0444
74207SOL     OW34599   0.892   0.105   1.044 -0.3591  0.9878 -0.2549
74207SOL    HW134600   0.841   0.186   1.051  0.1945  1.2089  2.0718
74207SOL    HW234601   0.977   0.133   1.011 -0.4043  1.2252 -0.1717
74208SOL     OW34602  10.159   7.148   0.274 -0.3140 -0.0736 -0.0982
74208SOL    HW134603  10.213   7.119   0.201  0.6775  2.2540 -0.3785
74208SOL    HW234604  10.195   7.104   0.351  0.2055 -0.6604 -0.6765
74209SOL     OW34605   6.229  11.130  10.113 -0.4129  0.5275  0.0191
74209SOL    HW134606   6.237  11.224  10.097  0.1744  0.4520 -0.1410
74209SOL    HW234607   6.172  11.124  10.190  1.6073  1.1420  1.6658
74210SOL     OW34608   3.225   9.174   2.913 -0.2225  0.2802 -0.4374
74210SOL    HW134609   3.153   9.127   2.956 -0.3523  1.1414  0.3256
74210SOL    HW234610   3.249   9.119   2.839 -1.6837 -0.0173 -0.7206
74211SOL     OW34611   9.853   4.826  10.696  0.3518  0.2761 -0.6607
74211SOL    HW134612   9.877   4.750  10.749 -1.4488 -0.1126 -0.3527
74211SOL    HW234613   9.844   4.897  10.760 -1.4323 -0.1028 -0.4366
74212SOL     OW34614   1.749   6.823   9.341 -0.1285 -0.0113 -0.4695
74212SOL    HW134615   1.727   6.902   9.390  0.3626 -1.6002  2.5535
74212SOL    HW234616   1.665   6.790   9.309 -0.5663  0.6184  0.0107
74213SOL     OW34617   0.422   3.356  11.024 -0.2005 -0.7398  0.7918
74213SOL    HW134618   0.472   3.324  10.948  1.7399  0.5598  1.4575
74213SOL    HW234619   0.463   3.314  11.099  0.2981  0.7900  1.4070
74214SOL     OW34620   5.719  12.005  12.718  0.0593  0.1864  0.2306
74214SOL    HW134621   5.756  12.022  12.631  0.3491  0.1835  0.3506
74214SOL    HW234622   5.667  12.083  12.737 -0.8959 -0.2722 -0.4008
74215SOL     OW34623   6.055   6.669   0.738 -0.1073  0.0184 -0.0614
74215SOL    HW134624   6.041   6.763   0.729 -0.2491 -0.1049 -1.4257
74215SOL    HW234625   5.971   6.630   0.712 -0.6210 -0.4620  2.1504
74216SOL     OW34626  13.852   6.994  11.945 -0.7759  0.0740  0.2023
74216SOL    HW134627  13.805   6.979  12.027 -1.2176 -0.8927 -0.2102
74216SOL    HW234628  13.936   6.950  11.957 -1.8173 -2.3717 -0.7621
74217SOL     OW34629   3.686  11.182   9.206  0.3882 -0.0876 -0.1090
74217SOL    HW134630   3.764  11.235   9.191 -0.2429  0.9717  0.2337
74217SOL    HW234631   3.623  11.243   9.245  0.5015 -1.6667  2.8265
74218SOL     OW34632   1.077   8.950   2.174 -0.5278 -0.0565  0.9570
74218SOL    HW134633   1.025   8.870   2.181 -1.0947  0.2933  0.7383
74218SOL    HW234634   1.059   8.997   2.256 -0.3724 -0.0422  0.9833
74219SOL     OW34635   5.218  13.585   8.323 -0.5294  0.2422 -0.5224
74219SOL    HW134636   5.145  13.534   8.356 -0.2929 -0.3215 -0.8547
74219SOL    HW234637   5.199  13.675   8.349 -0.7828 -0.0619  0.3625
74220SOL     OW34638   6.250   2.139  13.405  0.1869 -0.3030  0.2626
74220SOL    HW134639   6.233   2.051  13.440 -0.4354 -0.7134 -1.0038
74220SOL    HW234640   6.345   2.143  13.394  0.2726 -0.5981  0.8875
74221SOL     OW34641  12.889  12.662   3.572 -0.4953 -0.4603 -0.2586
74221SOL    HW134642  12.973  12.694   3.605 -1.0845 -0.1523  0.9726
74221SOL    HW234643  12.887  12.691   3.480  0.5070 -0.0190 -0.1472
74222SOL     OW34644   6.256   1.988   2.349  0.3077 -0.0633  0.3479
74222SOL    HW134645   6.350   1.986   2.330  0.4845 -0.6375  1.2123
74222SOL    HW234646   6.227   1.898   2.337 -0.0457  0.0295  0.4907
74223SOL     OW34647   9.752   5.531   8.198 -0.5340  0.4326 -0.5803
74223SOL    HW134648   9.830   5.585   8.189 -0.4745  0.3197 -0.7573
74223SOL    HW234649   9.684   5.591   8.229 -0.1145  0.3185  0.6193
74224SOL     OW34650  10.352  13.912   2.090 -0.7261  0.4814 -0.4129
74224SOL    HW134651  10.360  13.819   2.114 -2.2329  0.1532 -1.1064
74224SOL    HW234652  10.322  13.911   1.999  2.2233  1.7008 -1.5550
74225SOL     OW34653   9.570   0.439   1.327 -0.3079  0.3642  0.3284
74225SOL    HW134654   9.573   0.346   1.349  0.1988 -0.0669 -1.3748
74225SOL    HW234655   9.480   0.466   1.347 -0.2625 -0.3078  1.4803
74226SOL     OW34656   9.159   6.008  12.704 -0.2312  0.0345 -0.1764
74226SOL    HW134657   9.182   6.098  12.683  0.0244 -0.3860 -1.8497
74226SOL    HW234658   9.199   5.992  12.789 -0.5249  1.5683  0.2808
74227SOL     OW34659   8.246   7.689   7.457 -0.3643  0.0571 -0.5407
74227SOL    HW134660   8.320   7.670   7.515  0.7624  2.0200 -1.2340
74227SOL    HW234661   8.192   7.751   7.506 -0.8491 -0.3230 -0.5809
74228SOL     OW34662  12.267   8.112   9.939  0.0721  0.1710 -0.2711
74228SOL    HW134663  12.347   8.068   9.967 -1.1799 -1.3531  1.2290
74228SOL    HW234664  12.237   8.159  10.017 -1.5498 -1.0308 -0.1125
74229SOL     OW34665   8.944   8.030  10.085  0.3320 -0.1566  0.1773
74229SOL    HW134666   9.038   8.010  10.092  0.3063 -0.2999  0.1139
74229SOL    HW234667   8.933   8.058   9.994  0.3186 -0.1127  0.1929
74230SOL     OW34668   3.466   1.815   3.971  0.2273 -0.3197 -0.7663
74230SOL    HW134669   3.425   1.736   4.005  0.0116  0.0664 -0.0965
74230SOL    HW234670   3.416   1.887   4.011  1.1101  0.1522 -0.4911
74231SOL     OW34671   2.801   7.006  12.132 -0.3072  0.1542  0.4376
74231SOL    HW134672   2.875   6.997  12.192  1.0658 -0.3917 -1.2307
74231SOL    HW234673   2.818   6.940  12.064 -1.0393  1.6194 -1.2604
74232SOL     OW34674   2.524   9.178  10.609  0.0374 -0.0765  0.1448
74232SOL    HW134675   2.611   9.141  10.592  0.8646  2.3431 -1.5120
74232SOL    HW234676   2.463   9.111  10.578  1.3590 -1.1603 -0.2085
74233SOL     OW34677  12.359   4.103   0.502 -0.0686 -0.2708 -0.4994
74233SOL    HW134678  12.331   4.098   0.411 -0.8745 -0.7776 -0.2345
74233SOL    HW234679  12.446   4.064   0.503 -0.8051 -1.9759 -0.7453
74234SOL     OW34680   6.444   2.458   9.307  0.1412  0.0594  0.5009
74234SOL    HW134681   6.516   2.444   9.245  0.4612  1.4033  0.5471
74234SOL    HW234682   6.465   2.541   9.350 -0.3533 -0.5871  2.0391
74235SOL     OW34683   6.556   4.284   1.908  0.5193  0.5551 -0.0075
74235SOL    HW134684   6.620   4.241   1.965 -0.2773 -1.6073 -0.6533
74235SOL    HW234685   6.600   4.291   1.824 -0.1779 -1.4249 -0.6020
74236SOL     OW34686  11.024  12.988  12.791  0.2427  0.3337  0.0873
74236SOL    HW134687  10.962  12.995  12.864  0.2373 -2.8427  0.5593
74236SOL    HW234688  10.972  13.010  12.713 -0.1640  2.2633  0.8539
74237SOL     OW34689   2.425   7.214   1.823  0.3420  1.0763  0.2459
74237SOL    HW134690   2.422   7.292   1.768  2.2227  1.5390  0.7253
74237SOL    HW234691   2.389   7.242   1.907 -1.0372  0.7986 -0.2252
74238SOL     OW34692   5.423   1.187   7.062  0.0742  0.0308  0.1927
74238SOL    HW134693   5.376   1.268   7.080  0.1421  0.1275 -0.0669
74238SOL    HW234694   5.383   1.122   7.121  0.0203  0.2501  0.3968
74239SOL     OW34695   0.995  12.492   0.280 -0.0792  0.3368  0.4206
74239SOL    HW134696   0.926  12.436   0.317 -0.8181 -0.0386 -1.4148
74239SOL    HW234697   0.993  12.473   0.187 -0.2242  3.2894 -0.2575
74240SOL     OW34698   3.100  11.910  12.814  0.1507  0.4403 -0.1108
74240SOL    HW134699   3.047  11.947  12.884  1.2589  2.4348 -0.2240
74240SOL    HW234700   3.141  11.987  12.773  1.4733 -0.8507 -1.3191
74241SOL     OW34701   5.997   5.840   1.565 -0.0226 -0.1272 -0.1085
74241SOL    HW134702   6.047   5.840   1.484 -1.2283  0.9508 -0.8930
74241SOL    HW234703   5.932   5.771   1.553 -1.5035  1.3407 -0.9579
74242SOL     OW34704   0.913  13.276   9.501 -0.3836  0.2612  0.1016
74242SOL    HW134705   0.943  13.186   9.490 -0.7018  0.2580 -0.7377
74242SOL    HW234706   0.985  13.319   9.549 -0.4712 -0.5610  1.0047
74243SOL     OW34707   4.482   4.374   9.607  0.2004  0.0001 -0.5210
74243SOL    HW134708   4.486   4.413   9.694 -0.5822  0.3598 -0.6341
74243SOL    HW234709   4.503   4.281   9.621 -0.2767 -0.0198  0.1088
74244SOL     OW34710   5.196  12.131  11.339  1.0438  0.2087  0.1306
74244SOL    HW134711   5.239  12.053  11.304  0.0217  0.2180 -1.1889
74244SOL    HW234712   5.252  12.204  11.310  0.4857  0.1744 -1.0618
74245SOL     OW34713   9.414   9.932   0.989  0.3746  0.0275  0.1445
74245SOL    HW134714   9.436   9.989   0.916  1.1285 -0.2093  0.1752
74245SOL    HW234715   9.460   9.970   1.064  1.5539 -1.0467  0.0031
74246SOL     OW34716   4.436   0.550   3.400 -0.3702 -0.2984 -0.0817
74246SOL    HW134717   4.473   0.466   3.427 -0.8607 -1.0361 -1.5997
74246SOL    HW234718   4.501   0.615   3.428 -0.1000 -1.1391  1.3363
74247SOL     OW34719   7.397   7.829  13.963 -0.8054  0.5961 -0.0861
74247SOL    HW134720   7.315   7.787  13.937 -1.3467  0.5187  1.6176
74247SOL    HW234721   7.421   7.786  14.045  2.6584 -1.6145 -2.0136
74248SOL     OW34722   1.936   2.762  10.120 -0.0454  0.0598 -0.3604
74248SOL    HW134723   1.915   2.855  10.129  1.8010  0.3952  1.2135
74248SOL    HW234724   1.851   2.718  10.115 -0.9622  1.7726 -0.7004
74249SOL     OW34725  10.250   5.758  11.076 -0.3785  0.1686  0.1304
74249SOL    HW134726  10.254   5.841  11.124 -0.2910  0.1011  0.2413
74249SOL    HW234727  10.176   5.768  11.016  0.2046  0.6744 -0.5076
74250SOL     OW34728   1.851  12.456   1.092 -0.6827 -0.2645  0.2650
74250SOL    HW134729   1.769  12.463   1.044 -0.7477  0.2354  0.4452
74250SOL    HW234730   1.895  12.380   1.053 -0.6933  0.1797 -0.6551
74251SOL     OW34731   8.457  13.013   0.363  0.1820  0.3724  0.4804
74251SOL    HW134732   8.476  12.937   0.307  0.2227  0.5809  0.2092
74251SOL    HW234733   8.402  12.978   0.433 -1.0795  0.3739 -0.4703
74252SOL     OW34734  13.068   7.309   9.341  0.1654 -0.1090  0.6497
74252SOL    HW134735  12.983   7.295   9.300  0.6108 -0.8084 -0.0638
74252SOL    HW234736  13.049   7.361   9.419 -0.9387 -0.4716  0.6339
74253SOL     OW34737   4.973  11.438  10.397 -0.3887 -0.2774 -0.3283
74253SOL    HW134738   4.991  11.374  10.466  0.7457  0.1992 -0.1493
74253SOL    HW234739   4.895  11.485  10.427  0.0742 -0.0936  0.6382
74254SOL     OW34740   9.416  13.694  13.024  0.4097  0.1969 -0.3130
74254SOL    HW134741   9.466  13.652  12.954 -0.6030 -0.2529 -0.7779
74254SOL    HW234742   9.325  13.690  12.994  0.1676  1.7225  0.1468
74255SOL     OW34743   9.166   0.237  12.815  0.4065  0.2171  0.3647
74255SOL    HW134744   9.197   0.327  12.825 -1.9644  0.8969  3.0959
74255SOL    HW234745   9.080   0.237  12.857  0.1466 -3.2557  0.1044
74256SOL     OW34746  10.588   4.769   3.955 -0.2926  0.3672  0.0149
74256SOL    HW134747  10.626   4.766   3.867 -1.6760 -1.1023 -0.6125
74256SOL    HW234748  10.661   4.786   4.013  0.5849  1.8684 -1.4572
74257SOL     OW34749   9.608  11.982   1.665  0.0615  0.1413  0.1859
74257SOL    HW134750   9.688  12.034   1.677 -0.3813  0.8095  0.2903
74257SOL    HW234751   9.538  12.036   1.701 -0.1348 -1.5032  2.4629
74258SOL     OW34752   3.590   8.571   9.667 -0.2320 -0.0954  0.1333
74258SOL    HW134753   3.520   8.538   9.724 -0.9216  0.0062 -0.6551
74258SOL    HW234754   3.546   8.622   9.600  0.4690 -1.1188 -1.1482
74259SOL     OW34755  10.322   2.055   8.217  0.3761 -0.5146 -0.2280
74259SOL    HW134756  10.296   2.083   8.129  2.0980 -1.9845 -1.2779
74259SOL    HW234757  10.340   2.137   8.263 -0.8132  0.3045 -1.1246
74260SOL     OW34758   1.097   0.309   5.837  0.0905 -0.4700  0.1076
74260SOL    HW134759   1.151   0.377   5.878  2.3986 -1.6371 -0.7961
74260SOL    HW234760   1.087   0.338   5.746  0.4693 -0.9504 -0.0954
74261SOL     OW34761  10.009   6.218   5.642 -0.2273 -0.4003 -0.0912
74261SOL    HW134762  10.004   6.170   5.559  3.4224 -0.3661 -0.4893
74261SOL    HW234763   9.962   6.163   5.705  1.7625 -3.4112 -1.0159
74262SOL     OW34764   6.468  12.499   9.367 -0.0275 -0.5501 -0.3821
74262SOL    HW134765   6.437  12.461   9.285 -3.5958 -0.0712  0.5443
74262SOL    HW234766   6.398  12.559   9.393  1.1362 -0.3750  2.8117
74263SOL     OW34767   4.103   4.660  13.992  0.1500 -0.7255 -0.4043
74263SOL    HW134768   4.042   4.722  13.951 -0.1813 -1.0157 -0.3505
74263SOL    HW234769   4.141   4.709  14.065  0.8518 -0.1521 -1.1313
74264SOL     OW34770   5.325  12.922   2.539 -0.3853  0.1824  0.5734
74264SOL    HW134771   5.287  12.999   2.582  1.1739  2.0120 -1.1306
74264SOL    HW234772   5.328  12.946   2.446  0.4622 -1.8196  0.0420
74265SOL     OW34773  11.779   9.477  11.051 -0.2761 -0.3934 -0.4029
74265SOL    HW134774  11.716   9.539  11.015 -0.5345 -0.5046 -0.1527
74265SOL    HW234775  11.726   9.400  11.072  0.1588 -0.9878 -1.4056
74266SOL     OW34776   5.240  11.415   0.631 -0.0564 -0.1834  0.1523
74266SOL    HW134777   5.232  11.322   0.608 -1.5794 -0.2446  0.8379
74266SOL    HW234778   5.182  11.460   0.570  0.3908  0.2886  0.0681
74267SOL     OW34779   5.151  13.984  12.487 -0.1764  0.2665 -0.3381
74267SOL    HW134780   5.199  13.934  12.553 -0.4463  0.7107  0.1982
74267SOL    HW234781   5.117  14.060  12.534  1.7930  1.9870 -1.5147
74268SOL     OW34782   2.710   4.267   0.476  0.2766 -0.0256 -0.1709
74268SOL    HW134783   2.717   4.303   0.565 -1.3139  0.3912 -0.1887
74268SOL    HW234784   2.694   4.343   0.420  0.1626 -0.4009 -0.6568
74269SOL     OW34785   4.643   7.717   2.623  0.0857 -0.5551 -0.0297
74269SOL    HW134786   4.648   7.652   2.553  1.5351 -0.7840  0.2483
74269SOL    HW234787   4.702   7.787   2.594 -2.1836  1.1472 -0.7917
74270SOL     OW34788   6.841   6.797   6.755 -0.5208  0.2907  0.2663
74270SOL    HW134789   6.856   6.779   6.848 -0.6656  0.1988  0.2710
74270SOL    HW234790   6.860   6.890   6.746 -0.2803  0.2516  0.3426
74271SOL     OW34791   8.122   6.916   1.496 -0.2471  0.2672 -0.5368
74271SOL    HW134792   8.177   6.988   1.465 -1.8163  0.6104 -2.7313
74271SOL    HW234793   8.077   6.952   1.572  0.6893  0.7932 -0.2127
74272SOL     OW34794   1.387   2.810   4.232  0.0182  0.1699  0.2775
74272SOL    HW134795   1.303   2.781   4.269  0.3618 -1.4957 -0.1745
74272SOL    HW234796   1.422   2.732   4.189  1.7262  0.8931  0.3055
74273SOL     OW34797   5.341   4.709   7.138  0.0501 -0.5322  0.2481
74273SOL    HW134798   5.368   4.620   7.116 -0.1778 -0.1512 -1.7629
74273SOL    HW234799   5.317   4.749   7.054  0.8448  1.6640  0.9826
74274SOL     OW34800  11.578   9.285   8.156 -0.1424  1.0103  0.2767
74274SOL    HW134801  11.541   9.235   8.084 -1.4818  2.0706  0.2032
74274SOL    HW234802  11.551   9.237   8.235 -0.9643  1.3177  0.1854
74275SOL     OW34803   6.428  11.763  13.389  0.1835  0.3251  0.2916
74275SOL    HW134804   6.465  11.731  13.307  0.3860  1.1961  0.0351
74275SOL    HW234805   6.383  11.687  13.427  2.1095 -0.7440  0.5483
74276SOL     OW34806   5.563  12.377   0.813 -0.2315 -0.4534  0.4210
74276SOL    HW134807   5.633  12.326   0.773  1.5326  1.8543  0.3524
74276SOL    HW234808   5.507  12.312   0.857  2.7273 -2.3350  1.7134
74277SOL     OW34809   1.909   2.283  10.377 -0.2828 -0.5107  0.0730
74277SOL    HW134810   1.828   2.235  10.360 -0.1408 -0.1856 -1.7093
74277SOL    HW234811   1.914   2.348  10.307  0.9670  0.2150  0.7907
74278SOL     OW34812   4.150  12.159   8.279 -0.5539 -0.3178  0.3870
74278SOL    HW134813   4.183  12.121   8.198  0.2598 -0.0233  0.5715
74278SOL    HW234814   4.155  12.088   8.343 -0.7791 -0.4259  0.2827
74279SOL     OW34815   8.331   7.450  13.565 -0.7279 -0.0888  0.2812
74279SOL    HW134816   8.309   7.537  13.533 -0.1314  0.3277  0.9684
74279SOL    HW234817   8.373   7.465  13.650  0.2132 -0.9674  0.0049
74280SOL     OW34818   6.616   8.961   5.408 -0.7726  0.0261  0.4192
74280SOL    HW134819   6.695   8.935   5.454  0.1489  0.3140 -0.9583
74280SOL    HW234820   6.630   9.053   5.387 -0.9709 -0.2231 -0.8341
74281SOL     OW34821   7.450  10.584   0.135 -0.2802  0.1204 -0.1347
74281SOL    HW134822   7.448  10.504   0.083 -0.7035 -0.0574  0.1486
74281SOL    HW234823   7.465  10.555   0.224 -0.6086  0.3430 -0.0053
74282SOL     OW34824   5.942   8.239  13.500 -0.2812  0.3245 -0.1681
74282SOL    HW134825   5.903   8.179  13.564 -1.7403  0.4300 -0.9233
74282SOL    HW234826   5.879   8.242  13.428  1.3762  0.1049 -1.7025
74283SOL     OW34827   4.293   8.185   7.665 -0.1439  0.5588  0.0972
74283SOL    HW134828   4.283   8.096   7.699  1.4310  0.2286 -0.2204
74283SOL    HW234829   4.218   8.233   7.700  0.5532 -0.1420  2.7683
74284SOL     OW34830  12.858   7.132   7.826  0.2839 -0.1452 -0.0992
74284SOL    HW134831  12.938   7.080   7.824 -0.1375 -0.8016 -1.4909
74284SOL    HW234832  12.801   7.086   7.888 -0.0616 -1.3673 -1.2701
74285SOL     OW34833  10.558  10.761   7.195  0.8859  0.1681  0.5335
74285SOL    HW134834  10.548  10.703   7.119 -1.7663 -0.7480  1.4412
74285SOL    HW234835  10.571  10.848   7.158 -0.9150 -0.1643 -1.0307
74286SOL     OW34836   7.191   3.208  11.657 -0.1998 -0.1996  0.1827
74286SOL    HW134837   7.128   3.225  11.588 -0.3484 -0.3233  0.2870
74286SOL    HW234838   7.211   3.294  11.693 -0.9877 -0.2374  0.7412
74287SOL     OW34839  13.257   8.340   4.838 -0.0995  0.1979 -0.2825
74287SOL    HW134840  13.179   8.304   4.881 -1.0314  2.2314 -0.1268
74287SOL    HW234841  13.330   8.312   4.894 -0.9336 -0.1063  0.6872
74288SOL     OW34842  10.121   5.854   3.544 -0.2954  0.1435 -0.0592
74288SOL    HW134843  10.044   5.809   3.509 -1.2831 -0.2073  2.3080
74288SOL    HW234844  10.127   5.935   3.495 -3.1580  0.8889  0.6499
74289SOL     OW34845  11.280  11.286  12.259 -0.1585 -0.2118  0.0590
74289SOL    HW134846  11.296  11.377  12.286 -0.0889 -0.4621  0.8817
74289SOL    HW234847  11.367  11.251  12.240 -0.0729 -0.4474  0.8661
74290SOL     OW34848   2.173   1.988   2.576  0.1415 -0.6216 -0.1961
74290SOL    HW134849   2.153   2.040   2.654  0.6880  1.1499 -1.1812
74290SOL    HW234850   2.132   1.903   2.593 -1.0547  0.2087  1.3561
74291SOL     OW34851   5.412  13.257  10.851  0.8731  0.2190 -0.2068
74291SOL    HW134852   5.407  13.247  10.756 -0.9130  0.2183 -0.1399
74291SOL    HW234853   5.356  13.188  10.886 -0.7671  1.9196  0.7189
74292SOL     OW34854  12.994  10.097   8.893  0.1308  0.2627  0.1158
74292SOL    HW134855  12.976  10.020   8.840 -0.9584 -0.2597  1.1989
74292SOL    HW234856  12.909  10.125   8.925  0.4648  2.1517 -0.5371
74293SOL     OW34857   5.153  13.126   2.656  0.1766 -0.2346  0.3297
74293SOL    HW134858   5.173  13.214   2.627 -1.9538  0.2297  0.0683
74293SOL    HW234859   5.147  13.132   2.751 -1.1890  0.2269  0.2348
74294SOL     OW34860   3.970   1.806   6.680  0.2767  0.6718  0.2344
74294SOL    HW134861   3.958   1.826   6.773  1.1614  2.1382  0.0647
74294SOL    HW234862   4.064   1.813   6.666  0.2273 -0.2195 -0.6386
74295SOL     OW34863   3.750   3.175  13.905 -0.3471 -0.4284  0.1723
74295SOL    HW134864   3.715   3.250  13.953  0.1798  1.1404 -1.7797
74295SOL    HW234865   3.726   3.190  13.814 -0.0375 -2.5468 -0.3266
74296SOL     OW34866   5.267   4.746   0.472  0.2828  0.0979 -0.6211
74296SOL    HW134867   5.343   4.800   0.493 -0.0592  0.3303  0.0456
74296SOL    HW234868   5.193   4.806   0.478 -0.1442 -0.5110  0.5166
74297SOL     OW34869   3.856  11.345   3.817  0.3338  0.0076  1.1369
74297SOL    HW134870   3.819  11.296   3.891 -2.6726 -0.6989 -0.6665
74297SOL    HW234871   3.937  11.299   3.796  0.5054 -0.6523  3.0680
74298SOL     OW34872  12.816   8.555   2.252 -0.1656  0.4760  0.2586
74298SOL    HW134873  12.908   8.556   2.229 -0.4649  2.2760 -1.0514
74298SOL    HW234874  12.813   8.509   2.336  1.7304 -0.7788 -0.2907
74299SOL     OW34875   5.143   0.047   8.013  0.4353  0.0881  0.2453
74299SOL    HW134876   5.138   0.127   7.961 -0.9887  0.5149  0.9968
74299SOL    HW234877   5.230   0.012   7.994  1.3536  2.1487  0.4121
74300SOL     OW34878   3.044  10.515   8.741  0.2865 -0.2287  0.3459
74300SOL    HW134879   3.038  10.485   8.651  1.9316  0.6572 -0.0760
74300SOL    HW234880   3.076  10.439   8.790  0.3745 -0.3963  0.0259
74301SOL     OW34881   0.502   7.320   3.200 -0.4709  0.1267  0.2519
74301SOL    HW134882   0.432   7.384   3.184 -1.9151 -1.3726  0.2720
74301SOL    HW234883   0.508   7.316   3.295 -0.8259 -0.2123  0.2628
74302SOL     OW34884  10.777  11.574   8.729 -0.2168 -0.2632  0.1225
74302SOL    HW134885  10.718  11.641   8.764 -1.0992  0.2979 -2.2816
74302SOL    HW234886  10.862  11.618   8.723 -0.4527  0.1841 -0.0292
74303SOL     OW34887   9.933  10.880  11.537 -0.1593  0.7795  0.8627
74303SOL    HW134888  10.019  10.838  11.547 -1.3632 -1.6657  1.8997
74303SOL    HW234889   9.948  10.950  11.473  2.3237 -0.3963  0.0154
74304SOL     OW34890  13.756  10.755   3.847  0.0111  0.0545 -0.5951
74304SOL    HW134891  13.750  10.843   3.810  0.9881  0.8180  0.9158
74304SOL    HW234892  13.717  10.698   3.781 -3.3486  1.9069 -0.4005
74305SOL     OW34893   9.352   3.266  10.832 -0.0237 -0.0995 -0.2263
74305SOL    HW134894   9.333   3.173  10.820  0.6049 -0.2699  0.0402
74305SOL    HW234895   9.269   3.305  10.859 -0.1471 -0.6990  0.2847
74306SOL     OW34896   3.431   0.962   3.920 -0.2268  0.2899 -0.8063
74306SOL    HW134897   3.523   0.988   3.911 -0.2073  1.3284  1.6805
74306SOL    HW234898   3.390   0.991   3.839  1.0157  2.7920 -0.6248
74307SOL     OW34899  10.111   0.337   1.637 -0.1248  0.0665 -0.1220
74307SOL    HW134900  10.078   0.349   1.548 -0.0562 -0.9199 -0.2880
74307SOL    HW234901  10.205   0.352   1.630 -0.2902  1.2330  0.0334
74308SOL     OW34902   5.824   9.093   2.093 -0.3498  0.0449 -0.0157
74308SOL    HW134903   5.812   9.078   2.000  1.4460  0.6089 -0.3859
74308SOL    HW234904   5.761   9.035   2.136 -2.5024  1.1216 -1.5674
74309SOL     OW34905   6.554   1.956   9.250 -0.4698  0.4208  0.8512
74309SOL    HW134906   6.516   1.914   9.327 -1.0763 -1.2812 -0.3019
74309SOL    HW234907   6.590   1.884   9.199  0.4692  1.5710 -0.1812
74310SOL     OW34908   4.670   6.838  11.853  0.3293 -0.2080 -0.2196
74310SOL    HW134909   4.750   6.817  11.901  0.6940 -3.0630 -1.8530
74310SOL    HW234910   4.694   6.912  11.797  2.2274 -1.6797 -1.4755
74311SOL     OW34911  13.810   5.628   5.985  0.5075  0.6952 -0.1072
74311SOL    HW134912  13.726   5.583   5.993 -0.2220  2.1131  0.7267
74311SOL    HW234913  13.856   5.607   6.066 -0.3439  2.3386  0.8711
74312SOL     OW34914   1.544   8.393   7.425  0.0018  0.6825  0.0440
74312SOL    HW134915   1.567   8.463   7.364  0.1647  0.7159  0.1422
74312SOL    HW234916   1.628   8.366   7.463 -0.0305  0.2697 -0.1703
74313SOL     OW34917   1.434   6.819   6.885  0.1198 -0.3137  0.0836
74313SOL    HW134918   1.445   6.913   6.872  1.8472 -0.3418  1.0174
74313SOL    HW234919   1.357   6.811   6.942 -1.0189  0.4055 -1.3094
74314SOL     OW34920   4.068   1.842   5.328 -0.4746 -0.3149  0.1869
74314SOL    HW134921   4.121   1.764   5.343 -1.4765 -1.0519 -0.0380
74314SOL    HW234922   4.069   1.854   5.233 -1.4611 -0.8818  0.0943
74315SOL     OW34923   7.345   2.203  13.897 -0.6227  0.4234  0.4784
74315SOL    HW134924   7.394   2.125  13.871 -2.3458 -1.2086  1.8309
74315SOL    HW234925   7.260   2.193  13.854 -0.6511  1.9265  0.1335
74316SOL     OW34926  10.741   2.067   8.208 -0.1169 -0.1522  0.6101
74316SOL    HW134927  10.694   1.988   8.181  1.0142 -0.5349 -0.3457
74316SOL    HW234928  10.692   2.139   8.169  0.3777 -0.5814 -0.8618
74317SOL     OW34929   5.696   3.872   3.709 -0.5314  0.0693  0.4266
74317SOL    HW134930   5.640   3.913   3.643  0.3864 -0.0181 -0.4226
74317SOL    HW234931   5.782   3.867   3.668 -0.2954 -1.4196  1.0380
74318SOL     OW34932   6.740  12.871  10.725  0.4003  0.2524  0.2728
74318SOL    HW134933   6.654  12.913  10.725  0.1865 -0.0546  2.5514
74318SOL    HW234934   6.776  12.889  10.811  2.0989 -0.6922 -0.1891
74319SOL     OW34935   8.510   4.106   9.022  0.4335  0.4503 -0.1312
74319SOL    HW134936   8.455   4.166   9.071  0.4316  0.6602 -0.3895
74319SOL    HW234937   8.598   4.118   9.059  0.7573  1.7952 -1.2503
74320SOL     OW34938   0.165   7.047   8.091 -0.1061  0.2712 -0.0669
74320SOL    HW134939   0.255   7.080   8.088  0.4838 -1.2819 -2.1597
74320SOL    HW234940   0.153   7.020   8.182  0.9272  2.0435  0.6361
74321SOL     OW34941  10.975   8.233   4.388 -0.1418 -0.3705 -0.3900
74321SOL    HW134942  11.039   8.173   4.426  0.3515  1.1725  1.3735
74321SOL    HW234943  11.009   8.320   4.408 -2.6196  0.5271  0.3611
74322SOL     OW34944   1.533   0.310   3.825 -0.4899 -0.4701  0.2126
74322SOL    HW134945   1.509   0.232   3.874 -1.4676 -1.3471 -1.5990
74322SOL    HW234946   1.560   0.278   3.739  1.4392  1.0026  0.1844
74323SOL     OW34947   2.013   2.140  11.297  0.0993  0.1931  0.5758
74323SOL    HW134948   2.095   2.099  11.270 -0.6208 -0.6827 -0.3401
74323SOL    HW234949   1.947   2.072  11.285 -0.6231  0.5067  2.3793
74324SOL     OW34950   5.364  10.343  11.436 -0.0943  0.2901  0.0449
74324SOL    HW134951   5.456  10.325  11.416  0.2020  0.4893  1.1612
74324SOL    HW234952   5.317  10.317  11.357  0.9423  0.4160 -0.6339
74325SOL     OW34953   6.864  10.716  10.271  0.1130 -0.3892  0.6460
74325SOL    HW134954   6.924  10.645  10.245 -1.1121 -0.2538 -3.2322
74325SOL    HW234955   6.904  10.795  10.234 -1.2565  0.0414  0.0351
74326SOL     OW34956   4.487  13.893  12.214 -0.1453  0.0241  0.1698
74326SOL    HW134957   4.459  13.803  12.200 -0.2201  0.2587 -1.3012
74326SOL    HW234958   4.574  13.886  12.253 -0.5552 -0.6785  0.9871
74327SOL     OW34959  12.517  10.253   1.281 -0.0129 -0.0156  0.4269
74327SOL    HW134960  12.505  10.254   1.376 -0.9387 -0.5464  0.3357
74327SOL    HW234961  12.473  10.333   1.251 -2.7001 -1.4448  0.1902
74328SOL     OW34962   3.152   4.025   1.187  0.3967  0.8465  0.5332
74328SOL    HW134963   3.172   4.113   1.153  2.5386 -0.4535 -1.9857
74328SOL    HW234964   3.080   3.994   1.132 -0.1980  0.8951  1.2652
74329SOL     OW34965   9.397   9.137   4.813 -0.1320  0.2111  0.5627
74329SOL    HW134966   9.477   9.085   4.802 -0.4833 -0.1359 -0.4422
74329SOL    HW234967   9.329   9.073   4.831 -0.4026  0.3983  0.2185
74330SOL     OW34968   3.507   7.092   0.312  0.4558  0.0852 -0.0820
74330SOL    HW134969   3.464   7.016   0.273  1.8288  0.7600 -3.2853
74330SOL    HW234970   3.435   7.153   0.330 -0.3374 -0.5215 -1.0899
74331SOL     OW34971  10.661   5.112   4.815 -0.1565  0.1263  0.0686
74331SOL    HW134972  10.731   5.060   4.778 -1.6481 -0.9433 -1.3856
74331SOL    HW234973  10.661   5.193   4.763 -2.1207 -1.2900 -2.3568
74332SOL     OW34974   9.272   7.959   9.047 -0.2030 -0.3511  0.3044
74332SOL    HW134975   9.224   8.037   9.075 -0.4226 -0.2268 -0.4050
74332SOL    HW234976   9.235   7.938   8.961  2.6923  1.1716 -1.4530
74333SOL     OW34977   0.785  11.309   3.405  0.1075  0.2936 -0.0286
74333SOL    HW134978   0.782  11.221   3.444 -1.0644  0.3673  0.0780
74333SOL    HW234979   0.739  11.365   3.467  1.2133  1.0843  0.1045
74334SOL     OW34980  10.262  13.467   8.574 -0.2316  0.4523  0.3103
74334SOL    HW134981  10.228  13.516   8.649 -0.4694  0.4713  0.1902
74334SOL    HW234982  10.214  13.502   8.499  0.2725  0.7015  0.0965
74335SOL     OW34983   9.546   4.512   4.198 -0.3433  0.7909 -0.4270
74335SOL    HW134984   9.520   4.502   4.107 -2.5563  1.1512  0.1113
74335SOL    HW234985   9.466   4.496   4.248  1.1751 -1.1693  1.5738
74336SOL     OW34986   7.039   8.097   9.356  0.2834 -0.1598 -0.5553
74336SOL    HW134987   7.055   8.023   9.414  0.0168  0.5157  0.4269
74336SOL    HW234988   7.116   8.101   9.299  0.4985 -0.9199 -0.3244
74337SOL     OW34989   2.921   0.573  13.655  0.2209  0.9046  0.9394
74337SOL    HW134990   2.912   0.620  13.739  1.2091  1.9480  0.5013
74337SOL    HW234991   2.902   0.640  13.589  0.0757  0.2528  0.3182
74338SOL     OW34992   7.489   8.172   7.854  0.3062 -0.1472 -0.6825
74338SOL    HW134993   7.450   8.090   7.884  0.6377 -1.3618 -3.2940
74338SOL    HW234994   7.582   8.152   7.844  0.4439  0.6478 -1.0634
74339SOL     OW34995   1.305  12.544   1.011 -0.1928 -0.4578 -0.1170
74339SOL    HW134996   1.355  12.626   1.021  0.0765 -0.6884  0.4535
74339SOL    HW234997   1.266  12.551   0.923 -0.3546  0.3801  0.0112
74340SOL     OW34998   7.773  10.806  10.394  0.0966  0.2164 -0.7635
74340SOL    HW134999   7.771  10.899  10.418 -0.9073  0.8068 -2.8657
74340SOL    HW235000   7.860  10.793  10.358  0.1257  0.4311 -0.7735
74341SOL     OW35001   5.594   2.513  13.508  0.0002 -0.7204 -0.1685
74341SOL    HW135002   5.534   2.451  13.467 -0.1096 -1.2557  0.7704
74341SOL    HW235003   5.644   2.459  13.571  0.3740  0.0163  0.1749
74342SOL     OW35004   2.931   7.536   3.288  0.4952  0.2216  0.4274
74342SOL    HW135005   2.875   7.504   3.359  1.3753 -0.5839  0.7680
74342SOL    HW235006   2.884   7.613   3.254 -1.1340 -0.7937  0.2689
74343SOL     OW35007  12.170   4.071   3.509 -0.2350 -0.5938  0.0106
74343SOL    HW135008  12.244   4.120   3.546 -1.4198  1.2140  0.1485
74343SOL    HW235009  12.125   4.034   3.585 -1.6199  1.5767  0.3368
74344SOL     OW35010   3.963   0.076   8.846  0.4534  0.3513  0.0210
74344SOL    HW135011   3.928   0.102   8.931 -0.0896 -0.3392  0.0174
74344SOL    HW235012   4.055   0.103   8.848  0.0653  1.7198  0.2287
74345SOL     OW35013   5.868   8.921   1.354  0.4613 -0.5568 -0.1268
74345SOL    HW135014   5.857   8.988   1.422  1.7173 -0.1213 -0.3376
74345SOL    HW235015   5.821   8.845   1.389 -1.8904  0.6868 -0.3303
74346SOL     OW35016   5.502   7.714  11.046  0.8193  0.1226  0.0928
74346SOL    HW135017   5.489   7.647  10.979  0.8956  0.1436  0.0563
74346SOL    HW235018   5.596   7.710  11.066  0.4359 -1.5385  1.9218
74347SOL     OW35019   1.209  12.268   4.660  0.6027 -0.3131  0.1815
74347SOL    HW135020   1.202  12.200   4.727  0.7416  1.0936  1.6923
74347SOL    HW235021   1.300  12.298   4.666  0.0609  1.2943  0.9008
74348SOL     OW35022   5.075  11.276   6.756  0.0651  0.0564  0.1441
74348SOL    HW135023   5.002  11.296   6.814 -1.6176  2.8725 -2.6433
74348SOL    HW235024   5.037  11.222   6.687  1.1165 -0.1636 -0.2812
74349SOL     OW35025  11.439   5.768   0.302 -0.0064  0.0731  0.3971
74349SOL    HW135026  11.467   5.855   0.330 -1.1582  0.6406 -0.1322
74349SOL    HW235027  11.351   5.759   0.337 -0.0493 -0.7218  0.1050
74350SOL     OW35028   3.482  13.720   9.286  0.2530 -0.0284  0.0914
74350SOL    HW135029   3.510  13.754   9.371 -0.8208 -0.1142  0.4984
74350SOL    HW235030   3.543  13.758   9.223  0.3158  1.0093  0.7646
74351SOL     OW35031   3.519   4.699   9.571 -0.4135  0.6973 -0.1219
74351SOL    HW135032   3.510   4.715   9.665  2.2475  0.7055  0.2009
74351SOL    HW235033   3.492   4.609   9.559  3.3276 -0.8566  1.5255
74352SOL     OW35034   7.569  13.078   1.012  0.5900 -0.3607 -0.0916
74352SOL    HW135035   7.657  13.107   0.987  0.9726 -1.4643 -0.0809
74352SOL    HW235036   7.512  13.113   0.943  1.3424 -1.4770 -1.3290
74353SOL     OW35037  13.781  10.581   7.271  0.0055  0.0426 -0.2329
74353SOL    HW135038  13.710  10.518   7.259 -0.6731  0.5585  0.9713
74353SOL    HW235039  13.857  10.527   7.295 -0.2783 -0.4136 -0.3589
74354SOL     OW35040   4.087   2.687  11.459 -0.0942 -0.1639 -0.5344
74354SOL    HW135041   4.103   2.730  11.543 -0.0793  1.5307 -1.3630
74354SOL    HW235042   4.008   2.634  11.474 -1.6183  2.0752 -0.0787
74355SOL     OW35043   2.177   6.156  11.045 -0.2347 -0.2359 -0.5187
74355SOL    HW135044   2.203   6.144  10.953  1.2440 -0.9176 -0.0499
74355SOL    HW235045   2.125   6.236  11.045  0.7647  0.4547 -1.7806
74356SOL     OW35046   9.273  12.769  13.668 -0.3064  0.3502  0.3887
74356SOL    HW135047   9.346  12.738  13.722 -1.7945 -1.1357  1.6606
74356SOL    HW235048   9.203  12.787  13.731 -1.3793  0.7771 -0.8834
74357SOL     OW35049   1.578  13.681   5.583  0.5873  0.0085 -0.3488
74357SOL    HW135050   1.486  13.660   5.564  0.8181 -1.6938  0.2742
74357SOL    HW235051   1.583  13.678   5.679  1.3400 -0.1400 -0.3927
74358SOL     OW35052   3.053   4.116   6.762  0.3245  0.2069  0.5051
74358SOL    HW135053   3.071   4.170   6.686  1.7635 -1.7232 -0.6127
74358SOL    HW235054   3.138   4.103   6.804 -0.0018 -0.9729  0.8563
74359SOL     OW35055   7.611   8.609  11.748 -0.0112 -0.3014 -0.3577
74359SOL    HW135056   7.684   8.578  11.694 -0.2865 -1.5733 -0.0330
74359SOL    HW235057   7.537   8.555  11.723 -0.8799  1.0180 -0.7147
74360SOL     OW35058   1.307   7.563   9.360 -0.1771 -0.2164  0.5894
74360SOL    HW135059   1.224   7.606   9.342  0.7439  1.9104  1.1188
74360SOL    HW235060   1.296   7.474   9.327 -2.2159  0.3705 -0.4527
74361SOL     OW35061  12.530  13.517   2.445  0.2302 -0.3392 -0.3881
74361SOL    HW135062  12.574  13.583   2.499 -0.6875  0.0041 -0.0201
74361SOL    HW235063  12.480  13.568   2.381  0.5874 -0.7217 -0.9767
74362SOL     OW35064   1.768   2.461   2.364  0.1923  0.2626  0.4508
74362SOL    HW135065   1.787   2.553   2.345 -1.6031 -0.0315 -4.1231
74362SOL    HW235066   1.849   2.415   2.341  0.0425  0.4682 -0.5132
74363SOL     OW35067  13.434   0.883   3.915  0.2585 -0.2564 -0.5336
74363SOL    HW135068  13.451   0.966   3.960 -2.6445 -0.5370  1.3446
74363SOL    HW235069  13.482   0.818   3.966 -0.6567 -0.1816  0.4707
74364SOL     OW35070  13.426   3.193   1.785  0.9040 -0.8255  0.6057
74364SOL    HW135071  13.436   3.131   1.712 -0.6944 -1.3305  0.7696
74364SOL    HW235072  13.385   3.270   1.746  1.8349 -0.3235  0.6158
74365SOL     OW35073   2.029  10.165  12.184 -0.3426 -0.2497 -0.2670
74365SOL    HW135074   2.052  10.084  12.229 -1.1243 -0.2778  0.1000
74365SOL    HW235075   1.948  10.194  12.226 -0.5903  0.2150 -1.0422
74366SOL     OW35076  10.416  11.890  12.832 -0.3682  0.3021 -0.4525
74366SOL    HW135077  10.487  11.830  12.855  0.3630  1.0495 -0.7429
74366SOL    HW235078  10.343  11.862  12.888  0.1857 -0.3765 -0.0439
74367SOL     OW35079  10.099  12.238   4.808 -0.4246 -0.3135 -0.3063
74367SOL    HW135080  10.165  12.188   4.857 -0.8450 -1.6499 -1.0346
74367SOL    HW235081  10.022  12.181   4.808 -1.6895  1.3250  0.7504
74368SOL     OW35082   5.806   6.068  11.214 -0.1187 -0.0570  0.1214
74368SOL    HW135083   5.768   5.981  11.217  1.0428 -0.5496  1.3464
74368SOL    HW235084   5.746   6.118  11.158 -2.1691 -0.9483  1.3963
74369SOL     OW35085  11.874   7.814   7.535 -0.2573 -0.2090  0.4290
74369SOL    HW135086  11.884   7.750   7.605 -1.2214  0.8126  1.5349
74369SOL    HW235087  11.945   7.877   7.551 -2.5584  2.0213  2.7713
74370SOL     OW35088  12.966   1.323   7.067 -0.3137  0.5339 -0.1733
74370SOL    HW135089  12.910   1.378   7.012 -0.2889  0.2197 -0.5125
74370SOL    HW235090  12.905   1.266   7.114 -0.2826  0.1462 -0.5921
74371SOL     OW35091   2.695   2.911   9.856 -0.2463 -0.6884  0.1969
74371SOL    HW135092   2.643   2.874   9.785 -0.6869  0.1913  0.0423
74371SOL    HW235093   2.749   2.839   9.886 -0.5426 -1.2550 -0.5833
74372SOL     OW35094   1.585  11.059   9.448 -0.0615  0.0533  0.3454
74372SOL    HW135095   1.627  11.124   9.505  1.0739 -0.1272 -0.2558
74372SOL    HW235096   1.582  10.979   9.501  0.8793 -0.0803  0.2127
74373SOL     OW35097   8.859  12.946   3.358  0.4347 -0.0659 -0.4184
74373SOL    HW135098   8.875  12.997   3.438 -2.3648  0.2988  0.0132
74373SOL    HW235099   8.814  13.007   3.299 -0.9196 -1.3477 -0.7755
74374SOL     OW35100   1.198  13.563  12.840 -0.1090 -0.0498 -0.1537
74374SOL    HW135101   1.105  13.545  12.826 -0.5302  1.0432  1.0123
74374SOL    HW235102   1.232  13.582  12.752 -1.4679  1.4984 -0.4029
74375SOL     OW35103   0.092   4.017  11.894 -0.2471  0.3931  0.0295
74375SOL    HW135104   0.053   4.103  11.907 -2.1458 -0.7134  2.7547
74375SOL    HW235105   0.022   3.955  11.916  0.9771 -1.8941 -1.9577
74376SOL     OW35106   2.253   6.262  12.818 -0.2461 -0.6184 -0.2902
74376SOL    HW135107   2.320   6.315  12.862 -0.4210  0.6054 -1.4207
74376SOL    HW235108   2.177   6.267  12.876  0.0772 -0.4968  0.1231
74377SOL     OW35109  11.016   4.763   6.907 -0.1204 -0.1247 -0.1966
74377SOL    HW135110  10.930   4.751   6.947  0.2124 -1.5086  0.1318
74377SOL    HW235111  10.997   4.771   6.813 -0.7145  1.0502 -0.0008
74378SOL     OW35112   6.700   7.090   7.338  0.4298  0.5510  0.2792
74378SOL    HW135113   6.711   6.996   7.325  0.2688  0.5371  0.2325
74378SOL    HW235114   6.624   7.112   7.283  1.5454  1.0353 -1.1355
74379SOL     OW35115   4.194   0.631  10.122 -0.3192 -0.1840 -0.2653
74379SOL    HW135116   4.139   0.667  10.052 -0.8568  1.2685  0.8628
74379SOL    HW235117   4.281   0.666  10.104 -0.1039 -1.0515 -1.0366
74380SOL     OW35118   0.071   9.360   1.175  0.4827  0.1835  0.2568
74380SOL    HW135119   0.038   9.299   1.240 -0.3393  0.2474 -0.0945
74380SOL    HW235120   0.012   9.435   1.180  1.7428  1.1673  1.0072
74381SOL     OW35121   0.359   6.355   4.860 -0.3293  0.4660  0.0826
74381SOL    HW135122   0.454   6.352   4.868 -0.3956  0.5408  0.9956
74381SOL    HW235123   0.343   6.360   4.766  0.6006  1.5668 -0.0458
74382SOL     OW35124  10.350   8.559  10.723 -0.3162  0.3624 -0.3047
74382SOL    HW135125  10.297   8.483  10.747 -0.4143  0.3082 -0.6780
74382SOL    HW235126  10.293   8.611  10.666 -0.7151  1.3915  0.9912
74383SOL     OW35127   9.897   6.579  11.929  0.7694  0.3532  0.5141
74383SOL    HW135128   9.910   6.486  11.943 -0.7977  0.2243  1.3632
74383SOL    HW235129   9.856   6.586  11.843  2.0587  0.3927 -0.1219
74384SOL     OW35130   6.105   7.014   1.460  0.1244  0.4893  0.5199
74384SOL    HW135131   6.119   7.094   1.410  1.2915  0.7178  1.1743
74384SOL    HW235132   6.050   7.041   1.534 -0.1270  0.5149  0.3258
74385SOL     OW35133   8.446  12.038   4.467 -0.5988 -0.3984 -0.0567
74385SOL    HW135134   8.465  11.946   4.453 -0.5640 -0.6472  1.4451
74385SOL    HW235135   8.453  12.050   4.562  1.9708  1.7069 -0.3991
74386SOL     OW35136   1.524  11.740   0.331 -0.1011 -0.8971 -0.1059
74386SOL    HW135137   1.526  11.794   0.252 -2.0396  0.2460  0.5496
74386SOL    HW235138   1.609  11.755   0.373  0.3634 -0.3335 -1.1987
74387SOL     OW35139   5.827   4.673   6.159 -0.4731  0.4692  0.0750
74387SOL    HW135140   5.872   4.731   6.097  1.2484 -1.0080 -0.1501
74387SOL    HW235141   5.839   4.585   6.123 -0.8219 -0.2764  1.6663
74388SOL     OW35142   4.526   0.495   2.655 -0.9235  0.4138 -0.6769
74388SOL    HW135143   4.431   0.499   2.647 -0.9590 -0.4188 -0.7479
74388SOL    HW235144   4.545   0.402   2.671 -0.0721  0.4556 -1.3676
74389SOL     OW35145   3.849   7.396  11.437 -1.1888  0.4107 -0.3516
74389SOL    HW135146   3.812   7.402  11.525 -2.3462  2.3323 -0.9092
74389SOL    HW235147   3.812   7.317  11.400 -2.5902  0.8390  0.0878
74390SOL     OW35148   3.373  13.555   1.339  0.0521  0.0956  0.0305
74390SOL    HW135149   3.337  13.629   1.388  2.6791  1.1956  0.5039
74390SOL    HW235150   3.409  13.595   1.260  1.2111 -0.6934  0.1408
74391SOL     OW35151   0.366  13.416  10.495 -0.4573 -0.4655 -0.5657
74391SOL    HW135152   0.312  13.427  10.417  1.2303 -0.5147 -1.7885
74391SOL    HW235153   0.409  13.331  10.484 -0.5520 -0.6947  0.6602
74392SOL     OW35154  11.783   1.270  10.341  0.1642  0.1227 -0.6037
74392SOL    HW135155  11.804   1.256  10.434  1.2925  0.2612 -0.8196
74392SOL    HW235156  11.690   1.291  10.340  0.3959  1.3287  0.6340
74393SOL     OW35157   0.576   7.369  11.634  0.1589 -0.2049 -0.7541
74393SOL    HW135158   0.627   7.317  11.695  1.2438 -1.3275 -2.5367
74393SOL    HW235159   0.624   7.451  11.626  0.3233 -0.2807 -0.5525
74394SOL     OW35160   5.240  13.427  12.742  0.2351  0.1378 -0.2166
74394SOL    HW135161   5.234  13.364  12.813  0.3997  1.4843  1.0228
74394SOL    HW235162   5.203  13.508  12.777 -0.1982  0.7026 -1.8464
74395SOL     OW35163   9.326   5.466  10.260  0.1818  0.2542 -0.2966
74395SOL    HW135164   9.314   5.410  10.336  2.5825 -1.3700 -1.0233
74395SOL    HW235165   9.331   5.555  10.296  0.3815 -0.3831  1.3124
74396SOL     OW35166   8.867   8.855   7.003 -0.1663  0.1605 -0.7054
74396SOL    HW135167   8.856   8.763   6.979  2.3027 -0.6337  0.8023
74396SOL    HW235168   8.959   8.873   6.984  0.1730  1.3980  1.8059
74397SOL     OW35169  12.472  10.851   8.638 -0.0434  0.2411  0.0585
74397SOL    HW135170  12.460  10.811   8.724  1.8158 -1.0969 -0.2512
74397SOL    HW235171  12.487  10.944   8.656 -1.8480  0.4079  0.9642
74398SOL     OW35172   6.060  11.569  12.709 -0.4810  0.7678  0.6481
74398SOL    HW135173   6.029  11.515  12.781 -0.9279  0.0122 -0.0976
74398SOL    HW235174   5.993  11.637  12.700 -0.2811  1.0322  1.1228
74399SOL     OW35175  11.462   5.901   2.126  0.4397 -0.1274  1.0111
74399SOL    HW135176  11.536   5.844   2.147  1.0866  0.4900  0.4632
74399SOL    HW235177  11.390   5.868   2.180  0.9338 -1.1431  1.0688
74400SOL     OW35178  13.405   7.978   5.313 -0.0752  0.1976  0.0735
74400SOL    HW135179  13.444   8.063   5.333 -1.6027  0.5770  1.7430
74400SOL    HW235180  13.473   7.914   5.334  0.8792  0.9834 -0.6133
74401SOL     OW35181  13.550   2.933  13.260  0.1474 -0.3202  0.4248
74401SOL    HW135182  13.549   2.978  13.344  0.2776 -0.5697  0.5610
74401SOL    HW235183  13.458   2.913  13.243  0.1980 -0.9812  0.8974
74402SOL     OW35184   5.069  10.217  13.261  0.0223  0.5732  0.2918
74402SOL    HW135185   5.076  10.184  13.350  1.7694  1.1837  0.4147
74402SOL    HW235186   5.080  10.140  13.206  2.9210  0.6436  0.5943
74403SOL     OW35187   1.283   8.926   7.225 -0.1051 -0.2739 -0.0275
74403SOL    HW135188   1.270   8.993   7.292  0.6879 -0.9501  0.8248
74403SOL    HW235189   1.343   8.863   7.265  2.7152  0.7034 -2.2953
74404SOL     OW35190   7.439   4.389   2.317 -0.5320  0.7075 -0.3478
74404SOL    HW135191   7.370   4.327   2.293 -0.2466  0.5061 -0.6410
74404SOL    HW235192   7.489   4.344   2.386 -1.3478  1.2811  0.6543
74405SOL     OW35193   7.939  12.358   3.458 -0.2622 -0.2946  0.5188
74405SOL    HW135194   7.844  12.365   3.458 -0.3378 -0.4221  3.3263
74405SOL    HW235195   7.965  12.387   3.370 -2.9002 -1.0228 -0.5902
74406SOL     OW35196   7.009  10.681   4.734  0.1510  0.1594 -0.2813
74406SOL    HW135197   6.951  10.737   4.683  0.2150  0.7428  0.2840
74406SOL    HW235198   7.024  10.605   4.678  0.9539  1.1920 -1.5350
74407SOL     OW35199  11.041  13.404   1.739 -0.2796  0.2632  0.4315
74407SOL    HW135200  11.127  13.362   1.732 -0.2752  0.2733  0.4263
74407SOL    HW235201  11.046  13.456   1.820 -0.0546  0.7823  0.0915
74408SOL     OW35202   5.336   4.831   2.406 -0.2417 -0.4169  0.1152
74408SOL    HW135203   5.318   4.737   2.407  1.3728 -0.7487  1.0383
74408SOL    HW235204   5.360   4.850   2.315  2.4271 -1.5692  0.4924
74409SOL     OW35205   3.864   0.779   6.015  0.0868  0.1551  0.8314
74409SOL    HW135206   3.905   0.863   6.037 -0.3884  1.0316 -1.3592
74409SOL    HW235207   3.774   0.803   5.991  0.4537 -0.6620 -1.6476
74410SOL     OW35208   4.220   2.755  10.959 -0.0684 -0.2120  0.7148
74410SOL    HW135209   4.125   2.757  10.967  0.0731  0.8931  3.0612
74410SOL    HW235210   4.241   2.664  10.939 -1.6025 -0.4381 -0.0169
74411SOL     OW35211   4.638   3.745   8.929 -0.3153 -0.6945  0.4369
74411SOL    HW135212   4.573   3.752   8.999 -1.2206 -1.2713 -0.3130
74411SOL    HW235213   4.693   3.671   8.954  0.2087 -0.0748  1.1781
74412SOL     OW35214  12.433   0.616  12.422  0.0178 -0.3874 -0.0533
74412SOL    HW135215  12.435   0.631  12.328  2.2817 -1.4966 -0.2659
74412SOL    HW235216  12.366   0.676  12.455  0.3162  1.2315 -2.1635
74413SOL     OW35217   2.726   9.178  14.016 -0.0071 -0.6277 -0.4035
74413SOL    HW135218   2.674   9.256  13.998  1.5306  0.2746 -1.1268
74413SOL    HW235219   2.737   9.178  14.111 -4.0514 -2.7046  0.2423
74414SOL     OW35220   5.948   5.559   7.808  0.7262 -0.1481 -0.2343
74414SOL    HW135221   5.905   5.475   7.819  2.6012 -1.0556  0.5402
74414SOL    HW235222   5.956   5.570   7.713 -0.8425 -0.1067 -0.3872
74415SOL     OW35223   1.054  12.175   7.594 -0.8488 -0.2552  0.1501
74415SOL    HW135224   1.110  12.169   7.516 -2.7499 -0.5997 -1.2586
74415SOL    HW235225   1.090  12.110   7.655  0.4512 -0.2507 -0.5836
74416SOL     OW35226   6.155   2.990  12.387 -0.2191 -0.0830 -0.2442
74416SOL    HW135227   6.247   2.966  12.397 -0.4761 -1.1593 -0.3988
74416SOL    HW235228   6.122   2.999  12.476 -0.2206 -0.7132 -0.1799
74417SOL     OW35229   2.677   5.588  11.531 -0.0563 -0.0232 -1.0033
74417SOL    HW135230   2.694   5.568  11.439 -0.3012 -0.7333 -0.9009
74417SOL    HW235231   2.615   5.662  11.528  1.7077  1.5111 -1.3719
74418SOL     OW35232   3.325  13.819  11.680  0.2439 -0.0345  0.3832
74418SOL    HW135233   3.312  13.790  11.590  0.1432  3.7333 -1.0028
74418SOL    HW235234   3.251  13.783  11.729  0.4433 -2.3754 -0.8972
74419SOL     OW35235   3.718   8.642  13.708  0.0114 -0.4175  0.3615
74419SOL    HW135236   3.794   8.603  13.750  0.4323 -0.3140 -0.2889
74419SOL    HW235237   3.654   8.570  13.704  0.2107 -0.6078  0.5811
74420SOL     OW35238   1.423  11.463  10.321  0.0992  0.4846  0.3072
74420SOL    HW135239   1.508  11.446  10.281 -1.2033 -1.2544 -1.9232
74420SOL    HW235240   1.398  11.380  10.361 -1.4279  0.3171 -0.8870
74421SOL     OW35241   8.698   3.158  11.762 -0.6451 -0.6517 -0.1083
74421SOL    HW135242   8.694   3.087  11.826 -0.8868 -2.0006 -1.5688
74421SOL    HW235243   8.755   3.124  11.692 -2.3190 -0.2205 -1.7622
74422SOL     OW35244  12.521   8.442  13.411  0.0847  0.4605 -0.4175
74422SOL    HW135245  12.548   8.512  13.352  1.4369 -0.1116 -0.5181
74422SOL    HW235246  12.441   8.474  13.452 -1.3695  0.5579 -3.1401
74423SOL     OW35247  10.951  12.975   3.141 -0.4847 -0.1077 -0.3683
74423SOL    HW135248  10.904  12.904   3.098 -1.2039 -0.8422  1.5388
74423SOL    HW235249  10.973  13.035   3.070 -0.4329 -1.8924 -1.9365
74424SOL     OW35250   0.912   7.993  11.767 -0.1703  0.2270 -0.2232
74424SOL    HW135251   0.897   8.075  11.815  1.0540  0.9068 -0.9285
74424SOL    HW235252   0.949   7.933  11.832 -0.1644  0.5688  0.0898
74425SOL     OW35253  12.059  10.631  12.439  0.2678 -0.3060 -0.6986
74425SOL    HW135254  12.012  10.661  12.362 -0.1972 -1.3202 -0.8184
74425SOL    HW235255  12.103  10.551  12.411  1.9466  0.5077 -0.5406
74426SOL     OW35256   8.804   2.300   8.135 -0.6848  0.5309 -0.1125
74426SOL    HW135257   8.825   2.381   8.182 -0.4943 -0.6684  2.0073
74426SOL    HW235258   8.874   2.292   8.070 -1.7384  2.9693 -1.7124
74427SOL     OW35259   8.333   4.396   0.146  0.2262 -0.0101  0.5706
74427SOL    HW135260   8.388   4.457   0.098  0.9103 -0.1416  1.1652
74427SOL    HW235261   8.286   4.348   0.078 -0.3741  1.2071  0.0986
74428SOL     OW35262   2.566   2.338   3.664 -0.0315  0.1881  0.3916
74428SOL    HW135263   2.545   2.428   3.638 -0.2662  0.2198  0.6861
74428SOL    HW235264   2.481   2.296   3.674  0.0665  0.0612  0.7047
74429SOL     OW35265  12.707   3.107   0.684 -0.2335 -0.1492 -0.2033
74429SOL    HW135266  12.800   3.098   0.704 -0.5569  0.3598  1.7520
74429SOL    HW235267  12.669   3.022   0.705  0.0312 -0.9908 -2.8383
74430SOL     OW35268   9.386   1.799   8.353 -0.7452  0.0012  0.0650
74430SOL    HW135269   9.395   1.889   8.322  1.4847 -0.3218 -0.4087
74430SOL    HW235270   9.392   1.745   8.274  1.2046 -0.6718  0.6201
74431SOL     OW35271   2.280  12.776   8.077  0.1845  0.2115 -0.1824
74431SOL    HW135272   2.223  12.845   8.112 -0.0934 -1.1276  2.2113
74431SOL    HW235273   2.364  12.791   8.121  1.6189  1.6954 -3.0991
74432SOL     OW35274   3.361   8.243   9.662 -0.0331 -0.1894 -0.2576
74432SOL    HW135275   3.371   8.330   9.699  1.1341 -0.6827  0.6604
74432SOL    HW235276   3.445   8.225   9.618  1.4241 -2.3551  2.9964
74433SOL     OW35277   7.996  13.354   8.245 -0.4221 -0.4352 -0.7374
74433SOL    HW135278   7.984  13.350   8.150 -1.3902  1.2052 -0.7174
74433SOL    HW235279   8.022  13.445   8.262 -1.5613 -0.3437  0.6853
74434SOL     OW35280  11.569   6.657   7.508  0.5869  0.0522  0.4571
74434SOL    HW135281  11.536   6.568   7.497  0.6337 -0.0900  1.3911
74434SOL    HW235282  11.582   6.689   7.419 -0.2872 -0.5478  0.1021
74435SOL     OW35283   0.634   7.612  13.789 -0.3171  0.0535 -0.6033
74435SOL    HW135284   0.716   7.634  13.744 -0.1831  0.5648 -0.1129
74435SOL    HW235285   0.639   7.658  13.873 -1.9136  1.6619 -1.3143
74436SOL     OW35286   2.739   7.346  10.683 -0.4357  0.2667 -0.5882
74436SOL    HW135287   2.807   7.408  10.658  1.2504 -0.0424  2.7390
74436SOL    HW235288   2.784   7.262  10.691 -1.6011 -0.3293 -0.0337
74437SOL     OW35289   8.726   0.474  12.765  0.2465 -0.1755  0.1205
74437SOL    HW135290   8.773   0.391  12.760 -1.5702 -1.2242 -0.4063
74437SOL    HW235291   8.733   0.501  12.856  0.8947 -0.8737  0.2856
74438SOL     OW35292  13.241  11.338   8.163  0.3495 -0.7363 -0.4818
74438SOL    HW135293  13.289  11.386   8.230 -1.4334  0.9283 -0.2764
74438SOL    HW235294  13.164  11.303   8.209 -0.6253 -0.0251 -1.5091
74439SOL     OW35295  10.963  10.594   6.738 -0.7312 -0.1733  0.0385
74439SOL    HW135296  10.870  10.573   6.732 -0.1524 -3.2839  0.1855
74439SOL    HW235297  10.978  10.609   6.832 -0.7443 -1.8573  0.3393
74440SOL     OW35298  10.117   0.093   8.188  0.3200 -0.1081  0.4126
74440SOL    HW135299  10.111   0.114   8.282 -0.4657 -1.8569  0.7905
74440SOL    HW235300  10.204   0.054   8.178 -0.3539 -1.8367  0.8797
74441SOL     OW35301   1.732   8.136   6.098  0.3219  0.1796  0.3794
74441SOL    HW135302   1.696   8.087   6.172 -0.1601  0.4019  0.2992
74441SOL    HW235303   1.664   8.131   6.031  0.4492  0.5923  0.2137
74442SOL     OW35304  10.198  12.637   1.741 -0.4058 -0.6124  0.0853
74442SOL    HW135305  10.119  12.671   1.698 -1.4986 -1.1863  1.5722
74442SOL    HW235306  10.251  12.715   1.757 -1.7420  0.1044  1.1697
74443SOL     OW35307  12.484   2.607   4.645 -0.1670  0.6576  0.2720
74443SOL    HW135308  12.415   2.589   4.709 -0.5147  0.9833 -0.0119
74443SOL    HW235309  12.530   2.523   4.636 -1.3853  0.0504 -0.5644
74444SOL     OW35310  10.530   6.129   0.227  0.9648  0.8536 -0.5149
74444SOL    HW135311  10.537   6.159   0.136  0.3038  0.2876 -0.7564
74444SOL    HW235312  10.503   6.037   0.220  0.0676  1.0450  0.2554
74445SOL     OW35313  11.155   5.719  12.396 -0.1183 -0.3975 -0.9801
74445SOL    HW135314  11.247   5.694  12.403  0.0981  0.1724 -1.6347
74445SOL    HW235315  11.131   5.746  12.484  0.5768  0.2007 -0.9588
74446SOL     OW35316   4.164  13.160  11.747  0.1500  0.3386  0.1249
74446SOL    HW135317   4.110  13.090  11.784 -1.6816  1.0001 -1.1553
74446SOL    HW235318   4.112  13.239  11.760  1.6127  1.2915  0.4008
74447SOL     OW35319  13.887   1.203   0.317 -0.0213 -0.1255  0.1397
74447SOL    HW135320  13.833   1.270   0.275 -0.0176 -1.4514 -2.1173
74447SOL    HW235321  13.906   1.239   0.404 -1.3293  2.0640 -0.4033
74448SOL     OW35322   2.825   3.952   2.599  0.1581  0.1547  0.3236
74448SOL    HW135323   2.920   3.960   2.594  0.2431 -1.3368 -1.0326
74448SOL    HW235324   2.793   4.040   2.577  1.1872  0.8211  1.3435
74449SOL     OW35325   5.310   0.557   0.799  0.0137  0.4692 -0.3004
74449SOL    HW135326   5.343   0.524   0.882  0.2792  0.3628 -0.4475
74449SOL    HW235327   5.246   0.492   0.771  0.9547 -0.2339 -0.8761
74450SOL     OW35328   4.341   0.107   7.326 -0.5661 -0.3568 -0.3182
74450SOL    HW135329   4.374   0.050   7.256 -1.9833 -1.6252  0.0034
74450SOL    HW235330   4.358   0.196   7.294 -0.0125 -0.9274 -1.6877
74451SOL     OW35331  12.130   1.003   1.519 -0.9664  0.4272  0.1704
74451SOL    HW135332  12.197   0.984   1.585  0.4275  2.3321 -0.6037
74451SOL    HW235333  12.173   0.987   1.435 -1.6567  1.1346 -0.3375
74452SOL     OW35334   0.759  11.697   6.560  0.4029  0.2065 -0.3372
74452SOL    HW135335   0.708  11.757   6.615  1.3055  1.5811 -0.9527
74452SOL    HW235336   0.850  11.719   6.579  0.7368 -0.2255 -1.3951
74453SOL     OW35337   2.751   0.135   6.577 -0.4014 -0.3218  0.2763
74453SOL    HW135338   2.833   0.117   6.622 -0.4035 -0.6530  0.1544
74453SOL    HW235339   2.684   0.095   6.632 -0.2554 -2.2354 -0.8482
74454SOL     OW35340   5.836   3.122   2.017 -0.4820 -0.1473 -0.0491
74454SOL    HW135341   5.855   3.099   1.926 -0.3012  2.0795 -0.6295
74454SOL    HW235342   5.883   3.056   2.069 -0.1680 -1.1500 -1.5527
74455SOL     OW35343   5.722   4.587  12.458  0.1353 -0.4780  0.4677
74455SOL    HW135344   5.760   4.500  12.469  1.4881  0.1846  1.2999
74455SOL    HW235345   5.766   4.624  12.382 -2.8616 -1.7131 -2.0688
74456SOL     OW35346   9.414  11.133  12.899 -0.0323 -0.6056  0.3778
74456SOL    HW135347   9.499  11.092  12.886 -1.0332 -2.8135  0.3646
74456SOL    HW235348   9.411  11.152  12.993  1.2129  1.3639  0.0777
74457SOL     OW35349   1.597  11.708   3.862  0.1204  0.2663  0.0226
74457SOL    HW135350   1.592  11.780   3.800 -0.2390 -0.7390 -1.1682
74457SOL    HW235351   1.535  11.643   3.828  1.3629 -1.1324  0.3167
74458SOL     OW35352   3.499   7.606   7.849 -0.2434  0.3615 -0.4507
74458SOL    HW135353   3.584   7.633   7.813  0.1872  1.4541  1.2629
74458SOL    HW235354   3.493   7.653   7.932 -2.7467  0.6822 -0.7607
74459SOL     OW35355   2.286   8.622   0.342 -0.0263  0.0969 -0.2029
74459SOL    HW135356   2.359   8.603   0.401 -1.0967 -1.3520  0.7020
74459SOL    HW235357   2.208   8.602   0.393 -1.0064 -0.5659 -1.8959
74460SOL     OW35358  11.598  13.510   2.702  0.3705  0.0560  0.0333
74460SOL    HW135359  11.536  13.518   2.630 -0.6878 -0.0536  0.9098
74460SOL    HW235360  11.559  13.447   2.762  2.0586 -1.1867 -0.1022
74461SOL     OW35361  13.998   5.385   1.731  0.5878 -0.0423  0.4408
74461SOL    HW135362  13.970   5.476   1.733  1.1684  0.1935 -1.1222
74461SOL    HW235363  13.924   5.337   1.769 -0.0173  1.0014  0.6361
74462SOL     OW35364  10.248   9.466   6.850  0.1142 -0.1319  0.3487
74462SOL    HW135365  10.194   9.537   6.883 -1.9887 -2.0315  1.3016
74462SOL    HW235366  10.216   9.450   6.762  1.5220  0.9304 -0.3906
74463SOL     OW35367   5.758   8.378   7.083  0.0362  0.1516 -0.0509
74463SOL    HW135368   5.686   8.350   7.027 -0.2392  2.9109 -1.2756
74463SOL    HW235369   5.830   8.395   7.022  0.2729  1.5907  0.5929
74464SOL     OW35370  13.289   2.660  10.210  0.1580  0.0771 -0.1161
74464SOL    HW135371  13.311   2.686  10.299 -0.6158  0.3260  0.0060
74464SOL    HW235372  13.366   2.683  10.159  0.3241  0.6068  0.3623
74465SOL     OW35373   9.050  11.996   1.438 -0.4216  0.0140 -0.1238
74465SOL    HW135374   8.999  12.069   1.402 -0.7897 -0.1397  0.0776
74465SOL    HW235375   9.136  12.005   1.398 -1.5581 -1.7861 -3.2808
74466SOL     OW35376   0.449  13.060  11.788 -0.0877  0.2369 -0.2962
74466SOL    HW135377   0.516  13.022  11.731  0.8324  1.3641  0.0013
74466SOL    HW235378   0.366  13.023  11.756  0.8267 -3.2746  1.0013
74467SOL     OW35379  11.579   7.593   0.571 -0.4195  0.0110  0.0130
74467SOL    HW135380  11.664   7.560   0.600 -0.2625 -0.4082 -0.9036
74467SOL    HW235381  11.526   7.515   0.556 -0.5343  0.2146 -0.6956
74468SOL     OW35382   3.991   9.145   4.366  0.3998 -0.0330 -0.5080
74468SOL    HW135383   3.981   9.055   4.337 -1.6630 -0.0964  0.2585
74468SOL    HW235384   3.932   9.153   4.441  0.0253  2.1251 -0.9661
74469SOL     OW35385  11.327   5.557   3.731  0.1980 -0.0920  0.0319
74469SOL    HW135386  11.244   5.511   3.744  0.7836 -1.2380 -0.0698
74469SOL    HW235387  11.338   5.561   3.636 -0.7790  2.0651 -0.0337
74470SOL     OW35388  13.549   6.326  12.344 -0.6034 -0.0383 -0.0200
74470SOL    HW135389  13.463   6.306  12.381 -0.6997 -2.2246 -1.2451
74470SOL    HW235390  13.532   6.342  12.252  0.4419 -2.4930 -0.7260
74471SOL     OW35391   5.261  13.656  13.228 -0.1631 -0.2837  0.2669
74471SOL    HW135392   5.170  13.658  13.198 -0.1403  0.9332  0.2075
74471SOL    HW235393   5.260  13.703  13.312  0.2129 -1.3623  0.8983
74472SOL     OW35394   9.231   1.836   7.619  0.1832 -0.0276 -0.3189
74472SOL    HW135395   9.168   1.873   7.557  0.3309 -1.0661 -1.1287
74472SOL    HW235396   9.280   1.772   7.567  0.6007 -0.6164  0.7797
74473SOL     OW35397   7.131   9.568  12.873  0.0021  0.0263  0.4373
74473SOL    HW135398   7.133   9.636  12.805  3.5809 -0.8919 -0.6009
74473SOL    HW235399   7.152   9.614  12.954  1.9656  0.3076 -0.1851
74474SOL     OW35400  13.044   7.786   1.288 -0.1500  0.2773 -0.5476
74474SOL    HW135401  13.104   7.839   1.340 -2.4242  0.6648  1.9418
74474SOL    HW235402  12.957   7.821   1.309 -1.5070 -2.4011 -1.2450
74475SOL     OW35403   8.642   0.228   3.116 -0.1506 -0.2268  0.1058
74475SOL    HW135404   8.633   0.244   3.210  0.9816  0.7353  0.0863
74475SOL    HW235405   8.731   0.259   3.096 -1.1285  1.6584 -1.6662
74476SOL     OW35406   7.682  11.645  13.487 -0.6189 -0.0701  0.2525
74476SOL    HW135407   7.633  11.576  13.443 -1.5536  0.7719 -0.0657
74476SOL    HW235408   7.759  11.600  13.524 -0.9179 -1.1658 -0.4063
74477SOL     OW35409   1.618  13.521   1.786 -0.3879 -0.5370  0.2674
74477SOL    HW135410   1.637  13.471   1.865 -0.0474 -0.4345  0.2556
74477SOL    HW235411   1.676  13.598   1.792  1.2602 -1.6067 -1.1223
74478SOL     OW35412  12.749   0.008  12.248 -0.4493 -0.1167  0.6758
74478SOL    HW135413  12.788  -0.079  12.255 -0.5647 -0.2822 -0.5600
74478SOL    HW235414  12.814   0.067  12.287  0.5112 -0.5265 -0.2670
74479SOL     OW35415  12.673   6.571   6.188  0.3213  0.0620 -0.1888
74479SOL    HW135416  12.748   6.515   6.211  0.2099  0.1116  0.3173
74479SOL    HW235417  12.712   6.645   6.141  0.7865  0.8102  1.2881
74480SOL     OW35418   8.316   8.737   4.945 -0.2962 -0.0896  0.0030
74480SOL    HW135419   8.296   8.678   5.019 -0.8724 -1.5544 -1.2643
74480SOL    HW235420   8.404   8.769   4.964  0.0555 -1.3962  0.7332
74481SOL     OW35421   4.017  11.699   0.065  0.6122  0.0567  0.2273
74481SOL    HW135422   4.047  11.624   0.117 -1.1323 -1.2286 -0.5406
74481SOL    HW235423   4.095  11.754   0.056  1.7487 -1.2539  1.4741
74482SOL     OW35424  12.543  12.339   6.991  0.2620  0.2105  0.1476
74482SOL    HW135425  12.600  12.350   7.068  1.1409  0.6372 -0.5512
74482SOL    HW235426  12.485  12.415   6.993 -0.2857 -0.2076  0.8456
74483SOL     OW35427   4.285   2.579  10.577  0.1804 -0.1164 -0.2946
74483SOL    HW135428   4.336   2.531  10.642 -0.1541  0.9017  0.7454
74483SOL    HW235429   4.262   2.513  10.512 -0.5874 -1.4721  1.2822
74484SOL     OW35430  11.349  13.584   1.809 -0.7103 -0.0396 -0.4515
74484SOL    HW135431  11.344  13.579   1.904 -0.9189 -0.7708 -0.4942
74484SOL    HW235432  11.370  13.495   1.781  0.7136  0.4497 -1.0161
74485SOL     OW35433  12.756   9.884   9.501 -0.3169  0.1148 -0.7239
74485SOL    HW135434  12.821   9.818   9.525 -0.3216 -0.2618 -1.7380
74485SOL    HW235435  12.762   9.949   9.571 -0.2642 -0.9099  0.2614
74486SOL     OW35436   2.120  11.188  13.647  0.0677 -0.1310 -0.2598
74486SOL    HW135437   2.143  11.229  13.563 -0.2308 -0.8489 -0.6962
74486SOL    HW235438   2.056  11.248  13.686 -0.0586  0.0286 -0.7043
74487SOL     OW35439  11.381  13.133   7.677  0.4207 -0.2725 -0.7568
74487SOL    HW135440  11.328  13.090   7.744  1.0756 -0.8690 -0.6099
74487SOL    HW235441  11.345  13.222   7.671  0.7189 -0.0153  0.8049
74488SOL     OW35442   3.450   2.425   8.575  0.3408  0.2948 -0.0561
74488SOL    HW135443   3.498   2.359   8.626  0.6814 -0.1828 -0.9704
74488SOL    HW235444   3.439   2.385   8.489 -0.0952  1.1443 -0.4063
74489SOL     OW35445   4.493  10.935   2.212 -0.1269 -0.2355  0.1180
74489SOL    HW135446   4.409  10.890   2.206 -0.1490 -0.2429  0.4718
74489SOL    HW235447   4.537  10.916   2.129 -0.7377  0.2970 -0.3388
74490SOL     OW35448   5.872   9.844   8.536  0.4889 -0.2597 -0.1531
74490SOL    HW135449   5.919   9.789   8.473  2.2494 -0.9019  1.6561
74490SOL    HW235450   5.935   9.861   8.605 -1.8130 -0.8769  2.2368
74491SOL     OW35451   4.508   9.154   4.181  0.0686  0.3173 -0.0433
74491SOL    HW135452   4.578   9.130   4.120  0.4161  1.6829 -0.2166
74491SOL    HW235453   4.552   9.210   4.246 -0.7444  0.6883  0.1937
74492SOL     OW35454   0.588   8.226   0.847 -0.1683  0.0423 -0.6197
74492SOL    HW135455   0.587   8.203   0.754 -0.2071  1.7302 -1.0747
74492SOL    HW235456   0.554   8.315   0.850  0.1625  0.1491  0.9835
74493SOL     OW35457   1.502   5.364   3.318  0.0550  0.1314 -0.5327
74493SOL    HW135458   1.531   5.387   3.407  0.5645 -0.4530 -0.5415
74493SOL    HW235459   1.570   5.400   3.261  0.0612 -0.0511 -0.6412
74494SOL     OW35460   0.290  11.499   0.885  1.0191 -0.7177  0.2117
74494SOL    HW135461   0.370  11.533   0.926  1.0334 -0.8397  0.2869
74494SOL    HW235462   0.321  11.424   0.833  1.1460  0.0464 -0.8249
74495SOL     OW35463   9.694  12.505   6.451  0.4525  0.0561  0.0391
74495SOL    HW135464   9.775  12.495   6.500  0.7901  0.1891 -0.4818
74495SOL    HW235465   9.720  12.550   6.370  0.4769 -2.8281 -1.7076
74496SOL     OW35466  11.093   8.802  11.336  0.1316 -1.0132 -0.0354
74496SOL    HW135467  11.024   8.868  11.334  0.7222 -0.3811  0.2251
74496SOL    HW235468  11.165   8.841  11.286  1.7453 -0.0091  2.8694
74497SOL     OW35469   2.383   7.429  12.054 -0.1401 -0.0184 -0.8181
74497SOL    HW135470   2.459   7.385  12.017  0.1332  0.4245 -0.7881
74497SOL    HW235471   2.369   7.504  11.997 -1.4674 -0.8998 -1.7135
74498SOL     OW35472   1.425   8.730   2.600  0.3598  0.6117  0.3584
74498SOL    HW135473   1.391   8.771   2.680 -0.3678  0.0110  0.3715
74498SOL    HW235474   1.459   8.803   2.549 -1.6605  1.3978  0.0119
74499SOL     OW35475   1.200   9.947   7.331  0.1618 -0.6933 -0.4602
74499SOL    HW135476   1.162  10.034   7.342  0.8933 -0.5070  0.8236
74499SOL    HW235477   1.128   9.893   7.298 -1.2459 -0.3630  1.8447
74500SOL     OW35478   3.853  10.650   6.428  1.2733 -0.4630  0.0264
74500SOL    HW135479   3.904  10.575   6.398  0.8880  0.0216 -2.0294
74500SOL    HW235480   3.842  10.704   6.349 -2.0081 -0.2987  0.4721
74501SOL     OW35481  10.303   5.918  10.390  0.2857 -0.4888  0.1625
74501SOL    HW135482  10.362   5.987  10.419 -0.2286  0.5073 -1.0629
74501SOL    HW235483  10.222   5.933  10.438  0.5292 -0.9371  0.7243
74502SOL     OW35484  13.064   2.831   3.492 -0.5535 -0.1550 -0.0399
74502SOL    HW135485  12.991   2.877   3.452 -2.6333 -0.8102  2.6862
74502SOL    HW235486  13.059   2.742   3.458 -1.4864 -0.3634  0.6004
74503SOL     OW35487   0.332   2.723  11.852 -0.2955 -0.1417 -0.6760
74503SOL    HW135488   0.285   2.758  11.777  1.1386  0.7073 -1.2204
74503SOL    HW235489   0.421   2.756  11.842 -0.1126  0.2220  1.5273
74504SOL     OW35490  11.843   4.371  12.195  0.3048  0.0344  0.4114
74504SOL    HW135491  11.831   4.276  12.204  2.6992 -0.3548  0.0455
74504SOL    HW235492  11.754   4.406  12.194 -0.6286 -2.1536  1.0374
74505SOL     OW35493   7.170   1.977   2.620 -0.2055 -0.2608  0.2613
74505SOL    HW135494   7.257   2.012   2.601  0.5163 -1.4216  1.2376
74505SOL    HW235495   7.155   1.911   2.553 -0.1062 -0.4080  0.3819
74506SOL     OW35496   7.239   1.163   7.117  0.1935 -0.3387 -0.0348
74506SOL    HW135497   7.267   1.083   7.162 -1.4645 -0.9511 -0.0455
74506SOL    HW235498   7.186   1.209   7.182 -0.8266 -0.4111 -0.8040
74507SOL     OW35499  11.957   3.286  13.478  0.0545 -0.6498  0.1469
74507SOL    HW135500  12.019   3.308  13.409  1.0397 -0.9313  0.9139
74507SOL    HW235501  11.963   3.191  13.487 -0.4654 -0.6782  0.2693
74508SOL     OW35502   4.318  10.806   7.453  0.1776  0.2965  0.0936
74508SOL    HW135503   4.343  10.892   7.486  0.2793 -0.2200  1.4504
74508SOL    HW235504   4.233  10.788   7.494 -0.7378  0.4979 -1.6158
74509SOL     OW35505   4.937   5.679  11.481  0.1456  0.5410 -0.0238
74509SOL    HW135506   5.003   5.669  11.549 -0.6167  0.6372  0.7441
74509SOL    HW235507   4.884   5.753  11.510  1.1578  2.0849 -1.8482
74510SOL     OW35508   1.316   0.442   3.606 -0.2287 -0.1123 -0.4915
74510SOL    HW135509   1.316   0.502   3.532 -0.8013  1.0291  0.4040
74510SOL    HW235510   1.409   0.428   3.626 -0.0349 -1.0886 -1.8969
74511SOL     OW35511   0.270   4.813   0.493 -0.5988 -0.4661  0.6914
74511SOL    HW135512   0.189   4.864   0.501 -0.3835 -0.2028  1.2344
74511SOL    HW235513   0.313   4.822   0.578  0.2024 -0.2716  0.2750
74512SOL     OW35514   7.313   2.963   1.788 -0.3458 -0.2943  0.2239
74512SOL    HW135515   7.333   3.039   1.843 -0.1575 -0.6653  0.6710
74512SOL    HW235516   7.224   2.939   1.812 -0.9348  0.6435 -0.9334
74513SOL     OW35517   9.332   3.146   5.885 -0.3849 -0.3649  0.0753
74513SOL    HW135518   9.359   3.081   5.949  0.7766 -0.7153 -0.7282
74513SOL    HW235519   9.404   3.149   5.822 -1.7596 -0.5276 -1.5888
74514SOL     OW35520   2.598   3.076   2.181 -0.5403 -0.1673  0.3171
74514SOL    HW135521   2.602   2.998   2.125 -0.4660 -1.9174  2.6152
74514SOL    HW235522   2.548   3.048   2.258 -1.1288  2.3014  0.9306
74515SOL     OW35523   9.234   9.721   8.360 -0.2743 -0.0247  0.2599
74515SOL    HW135524   9.140   9.740   8.363 -0.3999 -0.7243  0.8704
74515SOL    HW235525   9.240   9.626   8.366  0.3712 -0.2232 -2.2838
74516SOL     OW35526   8.424   2.020   2.501  0.5299  0.1385  0.8173
74516SOL    HW135527   8.498   1.996   2.446 -1.3319  0.6271 -2.1333
74516SOL    HW235528   8.463   2.068   2.574  3.1161  0.3366 -0.5842
74517SOL     OW35529   1.510   8.200  11.489  0.6614  0.3122  0.5341
74517SOL    HW135530   1.587   8.248  11.518  1.4322 -0.7984  0.3967
74517SOL    HW235531   1.441   8.224  11.551  1.6222 -0.1206  1.8048
74518SOL     OW35532   4.388   6.790   4.248 -0.1772 -0.0942  0.0405
74518SOL    HW135533   4.327   6.804   4.175  1.2220 -0.8350 -1.3215
74518SOL    HW235534   4.427   6.876   4.263 -2.8628  0.9093  2.2747
74519SOL     OW35535  12.425   5.746  11.245 -0.0337  0.4343  0.1893
74519SOL    HW135536  12.426   5.835  11.208 -0.7306  0.9381  1.3365
74519SOL    HW235537  12.517   5.727  11.265  0.2623  0.4425 -1.0816
74520SOL     OW35538   1.028  11.833   6.713 -0.1942  0.8091  0.3275
74520SOL    HW135539   0.979  11.915   6.716  0.7819  1.4135  0.4689
74520SOL    HW235540   0.977  11.772   6.767 -2.2778  0.5141 -1.8111
74521SOL     OW35541   1.028   8.258   2.498 -0.0286  0.3894  0.3809
74521SOL    HW135542   1.086   8.253   2.574  0.1459  1.0672  0.2944
74521SOL    HW235543   0.985   8.343   2.506 -0.1375  0.3896 -0.1871
74522SOL     OW35544   4.003  12.935   9.533  0.2818  0.2740 -0.2796
74522SOL    HW135545   3.999  12.924   9.438 -1.3857 -0.2380 -0.1680
74522SOL    HW235546   4.086  12.893   9.558  0.5357  0.0503 -1.4487
74523SOL     OW35547   0.535  10.259   9.570  0.0384 -0.6197 -0.1041
74523SOL    HW135548   0.498  10.213   9.494 -2.5418 -0.1642  0.7925
74523SOL    HW235549   0.459  10.289   9.620  1.6358  1.4624  1.2702
74524SOL     OW35550   3.785   5.598  10.014 -0.3278 -0.4665 -0.1530
74524SOL    HW135551   3.804   5.574   9.924  1.0830  0.2352 -0.0741
74524SOL    HW235552   3.852   5.554  10.066  0.2975  0.9494  0.3045
74525SOL     OW35553  11.413   1.520   8.240  0.2193  0.2530  0.1246
74525SOL    HW135554  11.358   1.505   8.317  0.4922 -0.0861  0.2571
74525SOL    HW235555  11.351   1.541   8.170 -0.1567 -0.9347  0.0748
74526SOL     OW35556  13.002  12.368  10.836  0.4774 -0.4693 -0.3138
74526SOL    HW135557  12.956  12.291  10.867 -1.8416  0.1361 -1.9877
74526SOL    HW235558  12.994  12.363  10.740  1.6267  1.0654 -0.5246
74527SOL     OW35559  10.385   2.046   1.929 -0.1824 -0.2226  0.1429
74527SOL    HW135560  10.324   2.060   1.856  0.2768  0.6408 -0.0891
74527SOL    HW235561  10.345   1.975   1.980 -0.3785 -1.0410 -1.0937
74528SOL     OW35562   7.376   7.185   3.260 -0.1139 -0.0154 -0.0601
74528SOL    HW135563   7.439   7.115   3.278 -1.9437 -1.1007  2.7231
74528SOL    HW235564   7.322   7.151   3.188 -0.9172 -1.5143  1.1910
74529SOL     OW35565   6.893   3.467   0.591 -0.3313  0.2330 -0.7321
74529SOL    HW135566   6.921   3.463   0.500 -2.3541  2.9384 -1.6233
74529SOL    HW235567   6.896   3.561   0.612 -0.7612 -0.2372  1.7008
74530SOL     OW35568   0.479   9.546   9.091  0.2176 -0.0388  0.4907
74530SOL    HW135569   0.407   9.519   9.034  0.4047  1.4745 -0.5280
74530SOL    HW235570   0.558   9.526   9.042  0.4768 -0.8313  1.2097
74531SOL     OW35571   6.336   4.982   8.419 -0.1480 -0.4667  0.8075
74531SOL    HW135572   6.274   4.984   8.346  0.0316  0.3096  0.6781
74531SOL    HW235573   6.295   5.035   8.488  0.3515  0.0208  0.7361
74532SOL     OW35574  13.057  12.353   3.187 -0.1672  0.3187 -0.5169
74532SOL    HW135575  13.006  12.336   3.107 -1.0968 -0.0541  0.1449
74532SOL    HW235576  13.148  12.350   3.157 -0.3960 -1.9646 -1.1943
74533SOL     OW35577   8.856   2.623   8.576  0.0721  0.0925 -0.1198
74533SOL    HW135578   8.896   2.537   8.593 -3.4721 -1.6562  0.1743
74533SOL    HW235579   8.829   2.619   8.485  0.6959  1.3244 -0.3759
74534SOL     OW35580   9.069  11.642  13.683  0.4535  0.1553 -0.2326
74534SOL    HW135581   9.057  11.546  13.681  1.0681  0.0660  0.3764
74534SOL    HW235582   9.160  11.655  13.708  0.1303  0.9182  0.5828
74535SOL     OW35583   2.698  13.756   5.818 -0.5478 -0.3647  0.2272
74535SOL    HW135584   2.704  13.757   5.914  0.2186  0.6113  0.1799
74535SOL    HW235585   2.606  13.774   5.800 -0.6504 -0.3133  0.7792
74536SOL     OW35586   8.295   6.343  12.492  0.3044 -0.7843 -0.4357
74536SOL    HW135587   8.382   6.351  12.531  0.7639 -1.9321 -1.1766
74536SOL    HW235588   8.240   6.308  12.561  0.4075  0.0087  0.0588
74537SOL     OW35589   6.971   5.371   1.993  0.1088 -0.1120 -0.2042
74537SOL    HW135590   6.881   5.401   2.003  0.2403 -0.1459  1.2497
74537SOL    HW235591   6.968   5.278   2.012  0.4706 -0.0908 -0.0309
74538SOL     OW35592   0.706  10.592   3.015 -0.4298 -0.1061  0.2163
74538SOL    HW135593   0.625  10.547   3.041  0.4950 -1.2011  1.3122
74538SOL    HW235594   0.745  10.534   2.950  0.6832 -0.8877  1.5140
74539SOL     OW35595   5.237   7.713  10.954 -0.3128 -0.1755  0.3534
74539SOL    HW135596   5.250   7.650  10.883  1.1648 -0.4595  0.8257
74539SOL    HW235597   5.326   7.737  10.980 -0.8521  1.6690  0.5836
74540SOL     OW35598   0.664   9.534   3.993  0.7900 -0.5674 -0.3056
74540SOL    HW135599   0.618   9.514   3.911 -1.4296  0.6575  0.5458
74540SOL    HW235600   0.735   9.593   3.967 -1.3048  1.7485 -1.1696
74541SOL     OW35601  13.997   4.054  11.404 -0.5820  0.2461  0.1235
74541SOL    HW135602  13.998   4.144  11.436 -2.2943  0.2366  0.2867
74541SOL    HW235603  13.914   4.046  11.357 -0.0130 -0.9702 -0.7346
74542SOL     OW35604  11.615  13.261  11.683  0.3489  0.4130 -0.4354
74542SOL    HW135605  11.560  13.190  11.649  0.4728  1.2144 -2.4237
74542SOL    HW235606  11.659  13.222  11.758 -0.3887 -1.2830 -0.8219
74543SOL     OW35607  10.935   3.486  12.280  0.2150  0.2613  0.3035
74543SOL    HW135608  10.899   3.573  12.265  1.9851  0.7859 -1.3317
74543SOL    HW235609  10.934   3.475  12.375 -3.4654  0.4753  0.4320
74544SOL     OW35610   7.864   4.194  13.129 -0.2150  0.0796  0.0099
74544SOL    HW135611   7.796   4.256  13.158 -0.7604 -0.2902 -0.4593
74544SOL    HW235612   7.900   4.234  13.050 -0.0691  0.1501  0.1124
74545SOL     OW35613   8.308  11.353   9.419  0.3531  0.2204  0.6069
74545SOL    HW135614   8.392  11.373   9.378  0.3606 -0.8401  0.0839
74545SOL    HW235615   8.331  11.319   9.505  0.3207  2.9423  1.8027
74546SOL     OW35616   6.170  11.428   0.622  0.0584  0.2610 -0.2084
74546SOL    HW135617   6.196  11.440   0.531 -2.7548 -1.9637 -1.4584
74546SOL    HW235618   6.140  11.515   0.650 -0.4369  0.6700 -1.9008
74547SOL     OW35619  10.735   1.992  12.527  0.0306  0.2532 -0.0828
74547SOL    HW135620  10.749   1.901  12.501 -1.2701 -1.3205  3.8218
74547SOL    HW235621  10.640   2.004  12.524 -0.2572 -0.0768  3.2340
74548SOL     OW35622   6.723   2.401  13.728  0.1867  0.3454 -0.1855
74548SOL    HW135623   6.759   2.413  13.640  1.8205 -0.1902  0.3784
74548SOL    HW235624   6.660   2.472  13.738  1.6249  1.7966 -0.9597
74549SOL     OW35625   6.379  13.374   1.699 -0.2379  0.4672 -0.3045
74549SOL    HW135626   6.411  13.292   1.661  0.5523  0.0739  1.1094
74549SOL    HW235627   6.422  13.378   1.785 -0.9290  1.9453 -0.0040
74550SOL     OW35628   5.840   3.035   5.224  0.5102 -0.3349  0.3616
74550SOL    HW135629   5.854   2.941   5.210 -2.8426 -0.7400 -1.2948
74550SOL    HW235630   5.926   3.075   5.210  1.7986 -3.0309 -0.0281
74551SOL     OW35631  12.128   8.675  11.188  0.1337 -0.2114 -0.5793
74551SOL    HW135632  12.081   8.717  11.260 -1.2885  0.7471 -2.0053
74551SOL    HW235633  12.212   8.720  11.185  0.1341 -0.1261  0.3507
74552SOL     OW35634   4.204   5.351   6.551 -0.0719 -0.2682  0.2679
74552SOL    HW135635   4.215   5.406   6.474  0.2131 -0.2380  0.3266
74552SOL    HW235636   4.273   5.284   6.542  0.2969  0.0395  0.7535
74553SOL     OW35637   8.842   1.602   7.068 -0.2371 -0.2101 -0.3363
74553SOL    HW135638   8.767   1.647   7.030 -1.2724 -2.5129 -1.1969
74553SOL    HW235639   8.852   1.639   7.155 -1.7660  0.8085 -0.5714
74554SOL     OW35640  12.838   2.302   2.119  0.2966 -0.4557 -0.0350
74554SOL    HW135641  12.799   2.219   2.147 -0.2135 -0.6555 -1.2994
74554SOL    HW235642  12.769   2.366   2.130  0.2263 -0.4617 -0.4249
74555SOL     OW35643   0.753   7.813   6.225 -0.3175 -0.0485 -0.3304
74555SOL    HW135644   0.749   7.837   6.318 -0.8220 -0.4870 -0.2370
74555SOL    HW235645   0.755   7.896   6.179  1.8615  0.2335  0.1284
74556SOL     OW35646   3.564  10.415   5.972 -0.0051 -0.1755 -0.1094
74556SOL    HW135647   3.495  10.449   5.915  1.2428  1.8718 -0.4844
74556SOL    HW235648   3.638  10.400   5.913  0.4152 -0.7752  0.5490
74557SOL     OW35649   4.407  11.427   4.050  0.2006 -0.3622 -0.0110
74557SOL    HW135650   4.315  11.411   4.071  0.0941 -0.5058 -0.5760
74557SOL    HW235651   4.455  11.378   4.117 -0.1101  0.7098  1.0555
74558SOL     OW35652   5.548   0.503   3.607  0.0391 -0.2507 -0.8095
74558SOL    HW135653   5.474   0.562   3.621 -0.5296 -1.1150 -0.0218
74558SOL    HW235654   5.514   0.433   3.552  0.0201 -1.0785  0.2181
74559SOL     OW35655  12.460  13.864  10.614 -0.0995 -0.1170  0.0566
74559SOL    HW135656  12.372  13.829  10.627  0.4739 -1.6416  0.1395
74559SOL    HW235657  12.456  13.954  10.644 -0.9989 -0.9108  2.5089
74560SOL     OW35658   8.974  12.565  11.434  0.2236  0.2005  0.3991
74560SOL    HW135659   9.008  12.490  11.384  1.7280  1.2279 -0.1771
74560SOL    HW235660   8.928  12.618  11.369  0.4814  0.5378  0.4889
74561SOL     OW35661   9.210   1.655   6.349 -0.1364  0.5885 -0.3950
74561SOL    HW135662   9.298   1.684   6.326 -0.9250  3.6428 -0.0057
74561SOL    HW235663   9.178   1.722   6.410 -3.0850  0.1771 -1.3395
74562SOL     OW35664   1.703   1.783   8.363  0.3672  0.3656 -0.3223
74562SOL    HW135665   1.612   1.807   8.347  0.1416  0.0628  0.4972
74562SOL    HW235666   1.742   1.778   8.275 -0.5034  0.0711 -0.6995
74563SOL     OW35667  12.815   3.799   3.652 -0.0030  0.1612 -0.1086
74563SOL    HW135668  12.898   3.819   3.697 -0.9841 -1.2944  2.6218
74563SOL    HW235669  12.820   3.705   3.633 -1.2552 -0.1114  0.7513
74564SOL     OW35670   9.757  13.022  10.054 -0.6751 -0.0924 -0.1255
74564SOL    HW135671   9.817  12.948  10.046  0.6025  0.8546  0.4519
74564SOL    HW235672   9.684  12.988  10.105  0.3879 -0.6756  1.0437
74565SOL     OW35673   7.207   7.294   8.271  0.0605 -0.4891  0.1781
74565SOL    HW135674   7.292   7.261   8.242  0.3425 -0.7723  1.2748
74565SOL    HW235675   7.227   7.360   8.337 -0.5434 -1.6599  1.6115
74566SOL     OW35676   6.110   7.231   0.958  0.6175  0.2044  0.2738
74566SOL    HW135677   6.082   7.146   0.924  0.5543  0.5362 -0.5248
74566SOL    HW235678   6.073   7.235   1.046 -0.9047  0.1679 -0.3350
74567SOL     OW35679   3.156   2.237  10.358 -0.1983  0.4584 -0.0620
74567SOL    HW135680   3.188   2.283  10.280  1.4944  0.3125  0.4939
74567SOL    HW235681   3.135   2.307  10.420  1.1153  0.5469  0.3133
74568SOL     OW35682   6.532   1.093   4.983 -0.5354  0.0764 -0.0238
74568SOL    HW135683   6.447   1.075   4.943 -0.3238 -0.7320 -0.1425
74568SOL    HW235684   6.568   1.006   5.002  0.9318  0.3244 -1.3946
74569SOL     OW35685  13.604  11.312   9.218  0.4060 -0.7592  0.5314
74569SOL    HW135686  13.537  11.245   9.214  0.8860 -1.2024 -0.6658
74569SOL    HW235687  13.631  11.324   9.127 -0.0287  1.4396  0.6269
74570SOL     OW35688   9.221   5.801   2.313  0.1126 -0.7946  0.3238
74570SOL    HW135689   9.216   5.729   2.376 -1.2258 -0.4565  0.6354
74570SOL    HW235690   9.131   5.833   2.306  0.8307  1.6576  1.1309
74571SOL     OW35691   6.653   1.647   8.675  0.4396  0.2112  0.0425
74571SOL    HW135692   6.677   1.606   8.592  3.1130  0.5369  0.5576
74571SOL    HW235693   6.673   1.580   8.741  1.3555  1.0416  0.6232
74572SOL     OW35694   3.885   4.289   3.707  0.3128 -0.5954 -0.4433
74572SOL    HW135695   3.919   4.375   3.683  0.9801 -0.6365  0.2981
74572SOL    HW235696   3.962   4.232   3.707  0.0873 -0.9190  0.2649
74573SOL     OW35697  10.772  12.428   5.941 -0.1359 -0.1607  0.2851
74573SOL    HW135698  10.832  12.488   5.985 -0.7537  0.9460 -0.3537
74573SOL    HW235699  10.694  12.426   5.996  0.4523 -1.6414  1.1414
74574SOL     OW35700  11.379  10.186   8.648  0.0479 -0.2495 -0.2865
74574SOL    HW135701  11.365  10.094   8.624 -0.3680 -0.0616 -0.7948
74574SOL    HW235702  11.292  10.218   8.673  0.1548  0.0574 -0.3022
74575SOL     OW35703   8.830   1.862   4.444  0.2616 -0.3705  0.3131
74575SOL    HW135704   8.832   1.893   4.354 -3.0874 -0.8027 -0.0186
74575SOL    HW235705   8.845   1.940   4.497  1.6005 -0.0041 -0.5639
74576SOL     OW35706  12.045  10.040  12.149 -0.9496 -0.6134  0.2822
74576SOL    HW135707  11.952  10.048  12.131 -0.4693  1.7352 -1.6241
74576SOL    HW235708  12.071  10.127  12.180  0.7702 -0.9491 -0.1212
74577SOL     OW35709   2.080  10.863   4.685 -0.4408  0.4056  0.2493
74577SOL    HW135710   1.985  10.865   4.679 -0.4313  0.6657  0.1856
74577SOL    HW235711   2.110  10.883   4.596 -0.3252  0.5809  0.3278
74578SOL     OW35712  11.544  11.065   1.563  0.1621 -0.5479  0.2075
74578SOL    HW135713  11.586  11.137   1.516 -1.6781  0.4053 -0.0465
74578SOL    HW235714  11.611  10.996   1.565  1.6340  0.8086 -0.3669
74579SOL     OW35715  10.296   5.491   4.485 -0.4573 -0.2255 -0.1150
74579SOL    HW135716  10.315   5.423   4.549 -0.9168  0.4566  0.7766
74579SOL    HW235717  10.258   5.444   4.410  2.7726 -1.3868 -1.1686
74580SOL     OW35718   2.733   8.152   8.867  0.6666 -0.0536 -0.4056
74580SOL    HW135719   2.815   8.106   8.887  0.4184 -1.3106 -2.0568
74580SOL    HW235720   2.754   8.244   8.879  1.8968 -0.4342  0.6342
74581SOL     OW35721   5.025   4.969   8.904  0.0541  0.3506  0.1820
74581SOL    HW135722   5.000   4.881   8.931  0.5952 -0.1079 -0.7778
74581SOL    HW235723   5.003   5.024   8.979  0.6829 -0.7435  1.2008
74582SOL     OW35724   7.018   1.617   1.827  0.3038  0.2877  0.3035
74582SOL    HW135725   7.082   1.599   1.758  0.4007  0.1507  0.4283
74582SOL    HW235726   7.070   1.626   1.907  0.5275  3.3347 -0.0573
74583SOL     OW35727   7.342   5.340  10.405 -0.0222 -0.3453  0.2874
74583SOL    HW135728   7.400   5.279  10.452 -0.0377 -0.1610  0.5502
74583SOL    HW235729   7.292   5.383  10.474  1.5802  1.6154  0.3289
74584SOL     OW35730   3.399   4.070   3.629  1.0388 -0.0764  0.8398
74584SOL    HW135731   3.478   4.024   3.603 -0.0718 -1.5012 -0.1791
74584SOL    HW235732   3.327   4.016   3.596 -0.3621  1.6414  0.8781
74585SOL     OW35733  10.277  12.864  11.235 -0.0880  0.0613  0.2471
74585SOL    HW135734  10.367  12.832  11.242 -0.9489 -2.2529  1.7227
74585SOL    HW235735  10.238  12.809  11.167 -1.3662 -1.6795  2.2555
74586SOL     OW35736  13.837  13.524   9.274 -0.3024  0.4951 -0.2074
74586SOL    HW135737  13.872  13.451   9.324 -1.1927 -0.0585 -0.3683
74586SOL    HW235738  13.808  13.587   9.340  0.3897  0.6757 -0.0682
74587SOL     OW35739  12.810   4.992   5.989  0.3914  0.2217 -0.1953
74587SOL    HW135740  12.743   5.048   5.951  0.8050  1.4946  0.8487
74587SOL    HW235741  12.780   4.977   6.079  2.1237  2.0364  0.7797
74588SOL     OW35742   6.458   5.353   8.693  0.4418 -0.2335 -0.4063
74588SOL    HW135743   6.391   5.417   8.667  1.8221  1.3415 -0.2702
74588SOL    HW235744   6.522   5.405   8.741  0.5723 -2.1401  1.6139
74589SOL     OW35745   4.227   0.593  13.536  0.0317  0.1732 -0.0440
74589SOL    HW135746   4.315   0.631  13.542 -0.0132  0.0964  1.3776
74589SOL    HW235747   4.193   0.597  13.625 -1.3301 -0.0059 -0.5366
74590SOL     OW35748  12.376   4.825   2.644 -0.0651  0.1702  0.2401
74590SOL    HW135749  12.322   4.854   2.571 -0.9902  0.2053  0.9186
74590SOL    HW235750  12.338   4.868   2.721  2.3858  2.1015  0.4795
74591SOL     OW35751   4.713   3.959   3.263  0.2385 -0.1313  0.4639
74591SOL    HW135752   4.693   3.926   3.176 -0.0446  0.9207  0.1123
74591SOL    HW235753   4.639   3.931   3.317  1.2198 -2.2406  0.7786
74592SOL     OW35754   9.332   7.092  12.503  0.5607 -0.3421 -0.1776
74592SOL    HW135755   9.295   7.180  12.508  0.6469 -0.3597  0.9165
74592SOL    HW235756   9.269   7.044  12.449 -1.0620 -0.3535  1.6040
74593SOL     OW35757  12.958   8.216   9.368  0.4987  0.1912  0.2133
74593SOL    HW135758  12.962   8.185   9.458  0.0893  0.1921  0.2344
74593SOL    HW235759  12.876   8.181   9.334 -0.4953  2.0272  0.5488
74594SOL     OW35760  13.473  13.693  12.598 -0.0630  0.8693  0.1298
74594SOL    HW135761  13.511  13.760  12.655  0.5338  0.6768 -0.0370
74594SOL    HW235762  13.521  13.613  12.619 -1.8455  0.0830  1.4835
74595SOL     OW35763   3.939   3.316   4.207  0.1088 -0.1642  0.2147
74595SOL    HW135764   3.920   3.226   4.179 -1.6095  0.3123 -0.2519
74595SOL    HW235765   3.913   3.319   4.299 -1.1753  0.2027 -0.1407
74596SOL     OW35766   1.542  12.766  12.430  0.2870  0.8591  0.3675
74596SOL    HW135767   1.592  12.841  12.398  1.5328 -0.4361 -0.9101
74596SOL    HW235768   1.563  12.696  12.367 -1.3204 -0.3763  1.1543
74597SOL     OW35769   8.633  13.824   1.963 -0.5406 -0.0515  0.0644
74597SOL    HW135770   8.609  13.904   2.010 -1.0002  0.2524 -0.6699
74597SOL    HW235771   8.668  13.855   1.879 -1.7587 -0.6354 -0.6854
74598SOL     OW35772   0.856   8.314   2.141 -0.2504 -0.2361  0.4937
74598SOL    HW135773   0.844   8.356   2.056  1.0616 -2.5717 -0.9634
74598SOL    HW235774   0.768   8.290   2.169 -0.5664 -2.1438 -1.7797
74599SOL     OW35775  13.826   0.743  10.745  0.3448  0.6141  0.0356
74599SOL    HW135776  13.776   0.818  10.778  2.0370  1.2423  1.3182
74599SOL    HW235777  13.839   0.763  10.652  0.2488  1.6149  0.2183
74600SOL     OW35778  11.043   9.044  11.779  0.5093 -0.2400  0.1420
74600SOL    HW135779  11.001   9.071  11.861 -1.9368 -0.1840 -1.0459
74600SOL    HW235780  11.123   8.999  11.806 -0.3073 -0.3488  2.5499
74601SOL     OW35781   9.976   2.961   8.940  0.6113 -0.5543  0.1664
74601SOL    HW135782   9.904   2.981   9.000  0.2769 -0.1651 -0.3569
74601SOL    HW235783   9.968   2.867   8.924  0.6217 -0.6364  0.6163
74602SOL     OW35784   5.171   3.602  11.452  0.6480 -0.3922 -0.1713
74602SOL    HW135785   5.192   3.510  11.471 -1.3259 -1.0591 -0.9627
74602SOL    HW235786   5.146   3.602  11.359 -0.7666  0.6641  0.1841
74603SOL     OW35787   4.727   6.507   1.082  0.1696 -0.6648  0.1630
74603SOL    HW135788   4.713   6.601   1.094 -0.0928 -0.6688 -0.0945
74603SOL    HW235789   4.815   6.491   1.116  0.1788 -0.3421  0.2929
74604SOL     OW35790  10.391   6.946   1.452  0.5025 -0.0275  0.2647
74604SOL    HW135791  10.421   7.036   1.464  0.1427  0.3522 -1.5143
74604SOL    HW235792  10.295   6.952   1.452  0.3331 -0.9091  3.4728
74605SOL     OW35793  13.830   9.619   1.894 -0.1102 -0.6353  0.2149
74605SOL    HW135794  13.762   9.673   1.934  1.4978  0.0258  2.1803
74605SOL    HW235795  13.859   9.670   1.819 -1.0935 -0.5045 -0.1007
74606SOL     OW35796   3.519   1.089   9.968 -0.2698 -0.3526  0.0002
74606SOL    HW135797   3.483   1.114  10.054  0.4665  0.7454  0.0018
74606SOL    HW235798   3.552   1.001   9.981  0.9506  0.2525  1.2143
74607SOL     OW35799  11.492  12.324   0.176  0.0045 -0.8383  0.2124
74607SOL    HW135800  11.546  12.392   0.216 -0.4623  1.1972 -2.3165
74607SOL    HW235801  11.554  12.268   0.129  0.1640  1.0352 -2.0273
74608SOL     OW35802   1.103   1.106   5.686 -0.3220  0.6847  0.1181
74608SOL    HW135803   1.085   1.055   5.765 -1.4877 -0.1110 -0.6279
74608SOL    HW235804   1.020   1.106   5.638 -0.4807  3.5558  0.2012
74609SOL     OW35805   7.459   4.552   9.665  0.3243  0.3407  0.0621
74609SOL    HW135806   7.419   4.611   9.729  0.0704 -0.0739  0.2917
74609SOL    HW235807   7.385   4.505   9.626  0.4561  0.8178 -0.7671
74610SOL     OW35808   9.212   5.460  11.608 -0.2540  0.3583 -0.2994
74610SOL    HW135809   9.224   5.496  11.696 -1.9669  0.1697  0.0317
74610SOL    HW235810   9.118   5.455  11.596 -0.0604 -1.1740 -1.5228
74611SOL     OW35811   1.303   2.946   4.875  0.3772  0.5666  0.3071
74611SOL    HW135812   1.312   3.042   4.872 -0.8461  0.6644 -2.3549
74611SOL    HW235813   1.393   2.915   4.883  1.3912  1.9422 -3.5248
74612SOL     OW35814   1.725  11.896   4.013  1.0103 -0.3521 -0.1337
74612SOL    HW135815   1.654  11.844   3.975  0.6690  0.5804 -0.8024
74612SOL    HW235816   1.803  11.841   4.002  1.1463  0.2594 -3.2237
74613SOL     OW35817   8.272   0.020   8.870  0.1196 -0.7563  0.1740
74613SOL    HW135818   8.197   0.079   8.863  0.9789  0.4491  0.7592
74613SOL    HW235819   8.249  -0.039   8.942  0.4114  0.6945  1.5059
74614SOL     OW35820   0.904   9.552  10.001  0.1942 -0.1089 -0.3664
74614SOL    HW135821   0.982   9.550   9.945 -0.1050  0.0734 -0.7942
74614SOL    HW235822   0.835   9.515   9.946 -0.0416 -0.1849 -0.0177
74615SOL     OW35823   3.459   6.097  12.053 -0.0078 -0.1629  0.0539
74615SOL    HW135824   3.478   6.190  12.066 -4.2139  1.0941 -1.1703
74615SOL    HW235825   3.427   6.067  12.138  3.3429 -1.2760  1.0802
74616SOL     OW35826   7.293   6.114  12.002  0.1905  0.6678 -0.3983
74616SOL    HW135827   7.298   6.200  12.044  1.9592 -0.1100  1.0808
74616SOL    HW235828   7.384   6.090  11.986 -0.2376 -1.2297 -0.1696
74617SOL     OW35829  12.321   2.335   3.948  0.3542  0.3601 -0.6246
74617SOL    HW135830  12.350   2.319   3.858  0.0945 -2.7257 -0.2735
74617SOL    HW235831  12.367   2.269   4.000 -2.3546 -0.4532  0.9189
74618SOL     OW35832  11.012   0.903   2.565 -0.5142  0.6083 -0.1790
74618SOL    HW135833  11.052   0.983   2.531 -1.4849  1.2502  0.1429
74618SOL    HW235834  11.080   0.863   2.619  0.4332  0.5141 -1.3886
74619SOL     OW35835  10.159  11.850   9.179  0.7152 -0.0826 -0.3679
74619SOL    HW135836  10.113  11.789   9.122 -0.5680 -0.2840  0.8145
74619SOL    HW235837  10.210  11.795   9.239 -2.8464 -0.3787  2.7763
74620SOL     OW35838   4.874   7.915   5.388  0.4900 -0.4562  0.0366
74620SOL    HW135839   4.841   8.004   5.391  0.8726 -0.1227 -3.0558
74620SOL    HW235840   4.800   7.862   5.358  1.3720 -0.4052 -2.4693
74621SOL     OW35841   4.595  11.349   9.258  0.5544 -0.8280  0.1188
74621SOL    HW135842   4.608  11.408   9.185  1.4815  0.7911  1.5263
74621SOL    HW235843   4.503  11.359   9.282  0.3763 -0.9893 -0.4883
74622SOL     OW35844   0.748   0.290   1.948  0.1622  0.0286 -0.0895
74622SOL    HW135845   0.663   0.292   1.992  0.7882 -0.2163  1.1820
74622SOL    HW235846   0.812   0.283   2.019  1.3581  1.9362 -0.9030
74623SOL     OW35847   2.809   9.930  13.297  0.1694  0.0004  0.1871
74623SOL    HW135848   2.882   9.986  13.270 -0.0710 -0.0388 -0.5728
74623SOL    HW235849   2.740   9.992  13.321  0.2657  0.0353  0.3771
74624SOL     OW35850   3.406   7.499   8.360  0.0335 -0.9567  0.0288
74624SOL    HW135851   3.331   7.464   8.313  0.1324 -1.1166 -0.0112
74624SOL    HW235852   3.374   7.515   8.449 -1.4624  3.5336 -1.0853
74625SOL     OW35853   2.937  12.861   0.274 -0.2658  0.5764  0.3828
74625SOL    HW135854   3.004  12.801   0.240 -0.5293  0.2000  0.5304
74625SOL    HW235855   2.982  12.946   0.279 -0.0781  0.5369 -0.4403
74626SOL     OW35856   8.876   4.810   8.152  0.0669 -0.0180 -0.3470
74626SOL    HW135857   8.903   4.773   8.067  0.4034  0.1323 -0.3092
74626SOL    HW235858   8.839   4.735   8.199  2.3811 -0.7701  0.4148
74627SOL     OW35859   5.151   6.417   6.886  0.1713  0.1359 -0.1845
74627SOL    HW135860   5.203   6.477   6.832  0.3157  0.3722  0.2113
74627SOL    HW235861   5.065   6.458   6.891  0.1069  0.0249 -0.3825
74628SOL     OW35862  11.122   4.974  11.379  0.3321 -0.4094  0.3242
74628SOL    HW135863  11.161   4.887  11.382 -1.5811 -1.2961  1.0126
74628SOL    HW235864  11.055   4.968  11.311 -1.2004 -0.1179  1.7605
74629SOL     OW35865   2.811   3.316   7.733 -0.4543 -0.4326 -0.1141
74629SOL    HW135866   2.846   3.405   7.725  0.0065 -0.7650 -2.6527
74629SOL    HW235867   2.883   3.260   7.705 -1.4624 -1.4643 -0.7190
74630SOL     OW35868  13.260   0.842  11.220  0.3449 -0.2802 -0.2301
74630SOL    HW135869  13.298   0.879  11.141 -0.2097  1.6100  0.3280
74630SOL    HW235870  13.294   0.753  11.224  1.4777  0.0397 -1.8491
74631SOL     OW35871  12.237   2.885  11.814  1.0393  0.1871  0.1277
74631SOL    HW135872  12.300   2.818  11.790 -0.5851 -1.6332  0.6842
74631SOL    HW235873  12.281   2.937  11.881  2.9028  0.7388 -1.4353
74632SOL     OW35874  13.628   0.811   0.075  0.2308  0.0176  0.0304
74632SOL    HW135875  13.665   0.836   0.160 -2.6035 -0.5201  1.5228
74632SOL    HW235876  13.705   0.794   0.020  2.1704  1.9283  1.9643
74633SOL     OW35877   1.418   8.427  10.348 -0.4115  0.5192 -0.2457
74633SOL    HW135878   1.392   8.478  10.271 -1.8065  0.4751  0.1710
74633SOL    HW235879   1.350   8.446  10.413 -0.4129 -1.1050  0.2597
74634SOL     OW35880  11.173   4.683   0.599 -0.7684 -0.2343  0.2341
74634SOL    HW135881  11.186   4.728   0.515 -0.4225  0.3609  0.5970
74634SOL    HW235882  11.105   4.734   0.642 -0.7903 -0.4105  0.4038
74635SOL     OW35883  11.423  10.129  13.642  0.3277  0.6518 -0.3648
74635SOL    HW135884  11.453  10.050  13.686  0.9621  0.8732 -0.3843
74635SOL    HW235885  11.407  10.101  13.552 -3.2658 -0.3644  0.4381
74636SOL     OW35886   8.303   4.811  13.186  0.3475 -0.0270 -0.0146
74636SOL    HW135887   8.341   4.725  13.167 -0.5374 -0.7816  1.4621
74636SOL    HW235888   8.320   4.825  13.279 -3.3113 -0.6936  0.9380
74637SOL     OW35889  11.682  11.530   0.127 -0.1651  0.3651  0.5596
74637SOL    HW135890  11.595  11.566   0.140  0.1876  1.1109  0.9000
74637SOL    HW235891  11.725  11.541   0.212  0.0481 -0.6096  0.5967
74638SOL     OW35892  11.739   2.889   2.971 -0.1044  0.1286 -0.0626
74638SOL    HW135893  11.793   2.955   2.928  0.5965 -0.9964 -0.9539
74638SOL    HW235894  11.651   2.927   2.971  0.2036  0.8841 -0.9585
74639SOL     OW35895   5.312   0.092   3.740 -0.1328  0.0899  0.3077
74639SOL    HW135896   5.338   0.021   3.799 -0.8454 -0.6663 -0.2625
74639SOL    HW235897   5.229   0.063   3.703 -1.2491  1.9553  1.2528
74640SOL     OW35898   9.528  10.078   5.409 -0.0075  0.0824  0.4555
74640SOL    HW135899   9.493  10.026   5.482  0.7052 -1.0876 -0.0040
74640SOL    HW235900   9.565  10.013   5.349 -0.0445  1.0699 -0.6636
74641SOL     OW35901  11.746   9.488   7.166 -0.1294 -0.5839 -0.4277
74641SOL    HW135902  11.752   9.510   7.073  1.7321  0.7703 -0.0391
74641SOL    HW235903  11.827   9.521   7.204 -1.8030  0.9670  2.1130
74642SOL     OW35904   2.252   8.230  11.509 -0.0388  0.0094 -0.2411
74642SOL    HW135905   2.238   8.306  11.565  0.0040 -0.0486 -0.1502
74642SOL    HW235906   2.195   8.243  11.434 -2.2048 -1.2150  1.0716
74643SOL     OW35907   5.809  13.536   7.353  0.2243  0.9177 -0.6154
74643SOL    HW135908   5.864  13.615   7.355  0.2683  0.9569  2.4666
74643SOL    HW235909   5.824  13.495   7.439 -2.5714 -0.4838 -0.6799
74644SOL     OW35910  10.866   1.234   5.921  0.1609 -0.5566  0.0070
74644SOL    HW135911  10.926   1.176   5.967  0.2929 -0.2625  0.2056
74644SOL    HW235912  10.901   1.321   5.934  0.8158 -0.5481 -1.5635
74645SOL     OW35913   1.296   6.109   2.631  0.4350  0.2123  0.1092
74645SOL    HW135914   1.224   6.063   2.587 -0.0735 -0.7924  1.8895
74645SOL    HW235915   1.365   6.113   2.565 -0.5074 -0.6595 -0.9826
74646SOL     OW35916   3.880   8.631   9.934 -0.0291 -0.7666  0.5635
74646SOL    HW135917   3.793   8.594   9.919 -0.6262  1.5206 -2.7449
74646SOL    HW235918   3.864   8.708   9.988  0.3227 -1.6450  1.9592
74647SOL     OW35919   4.657   8.353   4.240  0.7305  0.0570  0.2196
74647SOL    HW135920   4.583   8.302   4.273  0.0398 -0.3248 -1.7587
74647SOL    HW235921   4.721   8.353   4.312 -0.9540 -0.0509  1.7719
74648SOL     OW35922   1.228   5.882   5.661  0.0813  0.0546 -0.3926
74648SOL    HW135923   1.250   5.916   5.574 -1.1599  0.5444 -0.5318
74648SOL    HW235924   1.268   5.795   5.663 -2.2479 -1.2302 -2.6084
74649SOL     OW35925  10.458   5.270  12.256 -0.1391 -0.0496 -0.6134
74649SOL    HW135926  10.497   5.293  12.171  0.4942 -2.1452 -0.9421
74649SOL    HW235927  10.417   5.351  12.286  0.2575  0.9369 -2.5738
74650SOL     OW35928   8.600   7.724   0.468 -0.1642 -0.1349  0.1583
74650SOL    HW135929   8.669   7.741   0.531  0.7474 -0.2775 -0.7738
74650SOL    HW235930   8.586   7.809   0.425 -1.9086  0.3758  1.5947
74651SOL     OW35931   9.810   5.368  10.311  0.3044 -1.2425 -0.1104
74651SOL    HW135932   9.824   5.404  10.399  1.9141  0.1374 -0.8864
74651SOL    HW235933   9.897   5.338  10.284  0.0168 -0.7889 -1.5902
74652SOL     OW35934   2.541  12.925   0.768 -0.5665 -0.0768  0.2849
74652SOL    HW135935   2.586  12.950   0.687 -0.7840 -0.0902  0.1605
74652SOL    HW235936   2.610  12.928   0.835 -0.3897 -0.0482  0.1041
74653SOL     OW35937   5.164   2.854  12.975 -0.5399  0.2121  0.2088
74653SOL    HW135938   5.169   2.851  13.070 -0.3053 -0.0792  0.1878
74653SOL    HW235939   5.170   2.947  12.953 -0.0189  0.2369  0.4460
74654SOL     OW35940  13.495   1.120   1.701 -0.9301  0.6214 -0.0733
74654SOL    HW135941  13.589   1.134   1.699 -0.8475  0.1819  0.7995
74654SOL    HW235942  13.480   1.051   1.637 -0.7118  0.9358 -0.4729
74655SOL     OW35943  13.662   2.165  11.224  0.4205  0.9177 -0.0317
74655SOL    HW135944  13.660   2.174  11.319  0.2839 -0.4316  0.1211
74655SOL    HW235945  13.643   2.072  11.209  0.5999  1.0804 -1.3687
74656SOL     OW35946   5.112   0.681   1.139  0.1217 -0.1598 -0.5820
74656SOL    HW135947   5.111   0.776   1.139 -1.2321 -0.1499 -0.1980
74656SOL    HW235948   5.045   0.656   1.203  0.4447 -1.3651 -0.6821
74657SOL     OW35949   4.332  11.319  12.439  0.1503  0.0914  0.2709
74657SOL    HW135950   4.303  11.267  12.364 -1.4324 -0.0492  0.9567
74657SOL    HW235951   4.270  11.391  12.444  1.4755  1.2810  0.2031
74658SOL     OW35952  12.742  10.065   9.707 -0.0285  0.0713  0.2376
74658SOL    HW135953  12.737  10.024   9.794  1.8191  0.5162  0.5998
74658SOL    HW235954  12.766  10.156   9.725 -0.9821  0.5171 -0.6975
74659SOL     OW35955  10.388   4.710   0.293  0.1362  0.1267  0.1997
74659SOL    HW135956  10.482   4.701   0.309  0.5959  1.2858 -1.4635
74659SOL    HW235957  10.346   4.670   0.369  1.9750 -0.0866  1.1610
74660SOL     OW35958  10.602  11.852   0.388  0.1337  0.1694 -0.3441
74660SOL    HW135959  10.632  11.806   0.310  0.4886  0.2037 -0.2336
74660SOL    HW235960  10.508  11.863   0.376  0.3399  1.1395 -1.2773
74661SOL     OW35961  13.873   6.019   4.611  0.6555  0.7228  0.6691
74661SOL    HW135962  13.851   5.939   4.562  3.3191 -0.7164  1.6229
74661SOL    HW235963  13.807   6.082   4.583 -0.7148 -1.3623 -1.2404
74662SOL     OW35964   6.052   1.290   3.310  1.0558  0.0713 -0.0576
74662SOL    HW135965   6.138   1.257   3.334  1.1101  0.6671  0.6230
74662SOL    HW235966   6.070   1.356   3.242  1.0242 -0.6089 -0.7457
74663SOL     OW35967   6.777   6.019  11.891 -0.2520  0.4275 -0.4743
74663SOL    HW135968   6.873   6.016  11.888 -0.1221  2.6332  0.0877
74663SOL    HW235969   6.755   5.973  11.972  0.3419  0.1871 -0.4390
74664SOL     OW35970   1.242   0.288  12.295 -0.3908 -0.0429 -0.3279
74664SOL    HW135971   1.267   0.310  12.205  1.3034 -0.7940 -0.0678
74664SOL    HW235972   1.270   0.198  12.307  2.0176  0.8625  1.8035
74665SOL     OW35973   9.690  10.341   0.161  0.5360  0.5271 -0.1740
74665SOL    HW135974   9.656  10.252   0.167  0.2822  0.5834 -0.7885
74665SOL    HW235975   9.754  10.346   0.233  0.3859 -0.0709  0.0111
74666SOL     OW35976   6.707   5.446   6.776 -0.1844  0.7438 -0.1479
74666SOL    HW135977   6.772   5.390   6.734 -0.1792  1.1861 -0.7584
74666SOL    HW235978   6.625   5.425   6.732  0.0544  2.1589 -1.3661
74667SOL     OW35979   2.036   4.600  10.622 -0.3773 -0.5592  0.6960
74667SOL    HW135980   2.129   4.623  10.615 -0.9395  2.9671  2.4096
74667SOL    HW235981   1.996   4.637  10.543 -0.6447  0.4054  1.2604
74668SOL     OW35982   3.668  12.171   8.323  0.6661 -0.5935  0.3853
74668SOL    HW135983   3.755  12.212   8.322 -0.0514  1.0430 -1.5045
74668SOL    HW235984   3.636  12.185   8.413  1.2957  1.2597  0.3737
74669SOL     OW35985   5.603   0.624   2.901 -0.6430 -0.2893  0.1986
74669SOL    HW135986   5.580   0.709   2.940  0.5722 -0.2519  0.8970
74669SOL    HW235987   5.572   0.559   2.965 -3.2533 -0.5264 -1.1769
74670SOL     OW35988   8.139   8.287   2.729  0.3684  0.7301 -0.8340
74670SOL    HW135989   8.234   8.284   2.738  0.2464  0.1674  0.4256
74670SOL    HW235990   8.123   8.260   2.638  1.3161 -1.3747 -0.4406
74671SOL     OW35991   0.973   0.741  11.956  0.0352  0.3848  0.0032
74671SOL    HW135992   0.884   0.771  11.971 -0.9828 -2.8133  1.2906
74671SOL    HW235993   1.010   0.804  11.894 -2.6820  2.4854  0.3486
74672SOL     OW35994   8.898   6.373   1.173 -0.0755 -0.0252 -0.3633
74672SOL    HW135995   8.902   6.391   1.267 -2.0755 -0.2413 -0.2051
74672SOL    HW235996   8.936   6.285   1.165  0.4882  0.1576  0.1611
74673SOL     OW35997  12.624   5.414  13.166 -0.5715  0.2754 -0.2836
74673SOL    HW135998  12.683   5.458  13.104 -0.9718  0.4761 -0.5218
74673SOL    HW235999  12.537   5.426  13.130 -0.7907  0.2114  0.2149
74674SOL     OW36000  11.173   1.482  10.114  0.5834 -0.1261  0.1246
74674SOL    HW136001  11.232   1.528  10.175  0.6031 -0.6250  0.4850
74674SOL    HW236002  11.211   1.500  10.028 -0.4192  2.0398  0.0697
74675SOL     OW36003   4.783   3.314  10.512 -0.5648 -0.1070 -0.1811
74675SOL    HW136004   4.759   3.237  10.460 -0.6143 -0.3445  0.1863
74675SOL    HW236005   4.862   3.287  10.558  0.3239  0.6127 -1.2551
74676SOL     OW36006  10.293   2.365  13.719  0.0491 -0.0144 -0.6513
74676SOL    HW136007  10.361   2.300  13.738  1.3406  1.4617  0.0105
74676SOL    HW236008  10.234   2.360  13.794  0.2345 -0.2970 -0.5200
74677SOL     OW36009   5.181  12.164  13.638 -0.2199  0.0023 -0.4926
74677SOL    HW136010   5.150  12.231  13.699  1.2836  1.4313 -1.1929
74677SOL    HW236011   5.220  12.215  13.566  0.0912 -1.6444 -1.5273
74678SOL     OW36012   4.540   1.796   1.700 -0.1326  0.1742 -0.5086
74678SOL    HW136013   4.547   1.715   1.750 -1.4216 -0.6934 -1.6460
74678SOL    HW236014   4.580   1.776   1.616 -1.4543  0.3270 -1.2060
74679SOL     OW36015   3.441   5.839   7.418  0.2299 -0.0395 -0.4192
74679SOL    HW136016   3.456   5.893   7.341 -0.5654  0.7799 -0.0182
74679SOL    HW236017   3.347   5.821   7.417 -0.3897  2.3544  1.8251
74680SOL     OW36018  10.472   8.181   2.080 -0.2851  0.0810 -0.0239
74680SOL    HW136019  10.483   8.245   2.011  0.3940 -1.1855 -1.1369
74680SOL    HW236020  10.550   8.125   2.075 -0.2178 -0.0632  1.7644
74681SOL     OW36021   6.498   7.925   2.411  0.4222 -0.4492 -0.9174
74681SOL    HW136022   6.488   7.916   2.317  0.9085  1.1374 -1.1538
74681SOL    HW236023   6.585   7.964   2.423 -0.8478  2.4021 -0.0737
74682SOL     OW36024  11.054   8.229  11.330  0.6178 -0.0562  0.4700
74682SOL    HW136025  10.970   8.234  11.375  0.3977  1.0337 -0.0470
74682SOL    HW236026  11.114   8.277  11.387  0.4560  0.8577 -0.1170
74683SOL     OW36027  13.539  13.125   6.359  0.8737 -0.2364  0.3816
74683SOL    HW136028  13.585  13.162   6.284  0.5218 -1.2694 -0.3721
74683SOL    HW236029  13.517  13.200   6.414  1.0950  0.5389 -0.5675
74684SOL     OW36030   0.664   0.260   5.480 -0.2549 -0.1417  0.1929
74684SOL    HW136031   0.654   0.205   5.403  1.2348 -1.2815  0.7764
74684SOL    HW236032   0.594   0.232   5.539 -0.7954  0.0689 -0.3352
74685SOL     OW36033  13.301  10.727   6.901 -0.0856 -0.1309  0.6464
74685SOL    HW136034  13.302  10.805   6.956  0.8612  0.8626 -0.7069
74685SOL    HW236035  13.379  10.678   6.927  0.3917  0.3652  0.1917
74686SOL     OW36036   4.246  11.642   9.614  0.3984  0.5772 -0.1620
74686SOL    HW136037   4.337  11.644   9.585  0.2551  0.1966 -0.6393
74686SOL    HW236038   4.231  11.552   9.641 -0.0775  0.4423 -0.8620
74687SOL     OW36039   3.988  11.541  12.274  0.5516  0.1623  0.4510
74687SOL    HW136040   3.938  11.525  12.195  2.2044 -1.0730 -0.4187
74687SOL    HW236041   3.970  11.632  12.297 -0.5718  0.2994 -0.8729
74688SOL     OW36042   7.696  11.489   3.272 -0.1787 -0.8093  0.0144
74688SOL    HW136043   7.693  11.561   3.209 -0.2346  0.9426  1.8976
74688SOL    HW236044   7.647  11.419   3.230 -0.2803  0.2931 -1.8493
74689SOL     OW36045  12.011   2.744  12.912 -0.1162 -0.2615 -0.4989
74689SOL    HW136046  11.929   2.712  12.951  0.5580 -3.0308 -1.0786
74689SOL    HW236047  12.003   2.722  12.820  1.6959 -1.7409 -0.3738
74690SOL     OW36048   8.859   5.944   1.225  0.1823 -0.1637  0.2024
74690SOL    HW136049   8.764   5.937   1.229  0.2653 -1.2350  0.6489
74690SOL    HW236050   8.889   5.856   1.206  1.0158  0.5537 -2.0646
74691SOL     OW36051  13.322  13.754   4.198  0.9116  0.0663 -0.2461
74691SOL    HW136052  13.319  13.805   4.279  2.0208  0.6033 -0.5130
74691SOL    HW236053  13.369  13.674   4.221  0.9557  0.0792 -0.2891
74692SOL     OW36054   0.237  13.095  11.999  0.0904  0.3094 -0.4390
74692SOL    HW136055   0.293  13.103  11.922 -1.0000 -0.6048 -1.3555
74692SOL    HW236056   0.148  13.106  11.966 -0.5571 -2.0425  0.3035
74693SOL     OW36057   2.373   0.702   7.259  0.2004  0.3047 -0.5775
74693SOL    HW136058   2.454   0.668   7.222  0.2556 -0.3878  0.1417
74693SOL    HW236059   2.306   0.637   7.235 -0.1440  0.8575 -1.1467
74694SOL     OW36060   7.816   7.331  12.466  0.0720  0.0699 -0.3937
74694SOL    HW136061   7.754   7.358  12.533  1.3440  0.2146  0.7668
74694SOL    HW236062   7.815   7.403  12.403 -1.5559 -0.3326 -0.8646
74695SOL     OW36063  11.148   4.877  12.453 -0.1107 -0.0559 -0.3181
74695SOL    HW136064  11.184   4.908  12.536  0.0398  0.4842 -0.5833
74695SOL    HW236065  11.214   4.815  12.420  0.3838  0.6141 -0.6006
74696SOL     OW36066   2.107   0.669  11.020 -0.3242 -0.4524  0.2746
74696SOL    HW136067   2.180   0.713  11.062 -0.2157 -0.0840 -0.2943
74696SOL    HW236068   2.123   0.679  10.926 -1.0524 -0.4386  0.1425
74697SOL     OW36069   2.972   7.829   3.868 -0.2837  0.3448 -0.1325
74697SOL    HW136070   3.005   7.919   3.867  0.8045 -0.0410  0.0485
74697SOL    HW236071   3.039   7.779   3.822 -0.2943 -0.5767  0.8442
74698SOL     OW36072   1.264   4.098   4.452 -0.0515 -0.2005  0.5826
74698SOL    HW136073   1.341   4.100   4.395  0.0181  0.8858  0.6952
74698SOL    HW236074   1.286   4.036   4.522  0.0852 -1.1103 -0.2439
74699SOL     OW36075   5.140   4.696   5.350 -0.2140  0.0105 -0.1567
74699SOL    HW136076   5.216   4.744   5.384  0.4671  0.5389 -2.2704
74699SOL    HW236077   5.132   4.620   5.407  0.9912  0.7085  1.0036
74700SOL     OW36078   5.998   1.153  10.970  0.1391 -0.6910 -0.0289
74700SOL    HW136079   6.032   1.080  10.919 -0.2251  0.0281 -1.3440
74700SOL    HW236080   5.903   1.148  10.960  0.0594 -0.5460  0.5991
74701SOL     OW36081   1.240   1.939   5.047  0.2126  0.0218  0.2189
74701SOL    HW136082   1.284   1.981   4.974  2.3537 -0.1503  1.3052
74701SOL    HW236083   1.202   2.011   5.098 -0.4005  0.2139 -0.4949
74702SOL     OW36084   3.414   2.743  13.013 -0.0746  0.1511  0.4175
74702SOL    HW136085   3.334   2.691  12.999  0.2385  0.0440 -1.0996
74702SOL    HW236086   3.445   2.763  12.925  0.5732  1.7721  0.9901
74703SOL     OW36087   9.816  10.803   9.973  0.7395 -0.5929  0.3844
74703SOL    HW136088   9.840  10.770   9.886 -0.5784 -2.4500  0.6597
74703SOL    HW236089   9.793  10.895   9.958  1.4098 -0.6253 -1.0611
74704SOL     OW36090   7.566   1.338  13.168 -0.2493  0.5906  0.3860
74704SOL    HW136091   7.495   1.339  13.104 -0.4593  0.1655  0.6123
74704SOL    HW236092   7.554   1.257  13.217 -0.0580  0.8820  0.9298
74705SOL     OW36093   2.391  11.093   5.574 -0.2845 -0.2808 -0.3695
74705SOL    HW136094   2.437  11.161   5.524  0.6397 -0.7691 -0.2035
74705SOL    HW236095   2.337  11.142   5.636  0.2593  0.3127 -0.3542
74706SOL     OW36096   4.347   1.085   5.078 -0.6979 -0.3863  0.1041
74706SOL    HW136097   4.289   1.160   5.089  0.7703  0.5827  1.7439
74706SOL    HW236098   4.402   1.109   5.004  0.1810  0.4810  1.0112
74707SOL     OW36099  12.488   6.049   3.605  0.1584 -0.0242 -0.0211
74707SOL    HW136100  12.487   6.070   3.698  1.2470  0.7585 -0.1695
74707SOL    HW236101  12.461   5.957   3.601 -1.3789  0.3390  0.9237
74708SOL     OW36102   4.158   5.796   8.352  0.1682  0.6706  0.5106
74708SOL    HW136103   4.147   5.860   8.422 -1.1201 -0.0768  1.0342
74708SOL    HW236104   4.140   5.845   8.272  0.9510  1.3663  0.7505
74709SOL     OW36105   6.408   0.312   7.402  0.7824 -0.4261 -0.0162
74709SOL    HW136106   6.491   0.359   7.397  0.1117  0.7305 -0.5285
74709SOL    HW236107   6.371   0.339   7.486  1.3313 -1.6994  0.6790
74710SOL     OW36108   9.532   0.552   3.528  0.0563  0.0937  0.5289
74710SOL    HW136109   9.549   0.594   3.612 -0.3223  1.7795 -0.1801
74710SOL    HW236110   9.608   0.577   3.474 -0.9296  1.2538 -0.3787
74711SOL     OW36111   1.657   8.411   9.516  0.0353  0.2384 -0.6640
74711SOL    HW136112   1.666   8.412   9.420  0.6579 -0.2270 -0.6133
74711SOL    HW236113   1.746   8.413   9.548 -0.1892  1.2970 -0.0686
74712SOL     OW36114   9.736  12.693   9.484 -0.0898 -0.3618  0.1196
74712SOL    HW136115   9.720  12.686   9.390  0.1887  1.4367 -0.0917
74712SOL    HW236116   9.782  12.776   9.495 -0.6684 -0.2269  1.9036
74713SOL     OW36117   6.218  10.375   8.977 -0.1999  0.2324 -0.5398
74713SOL    HW136118   6.286  10.442   8.972 -0.1447  0.2629  0.4956
74713SOL    HW236119   6.157  10.397   8.906  0.6338  0.4455 -1.2064
74714SOL     OW36120  12.542   0.257   5.454  0.3003  0.6877  0.5455
74714SOL    HW136121  12.475   0.273   5.388  1.9602 -1.2004 -1.8089
74714SOL    HW236122  12.503   0.191   5.512  0.2931 -1.0803 -1.3227
74715SOL     OW36123   0.254   0.709   1.423  0.7875 -0.4721 -0.1375
74715SOL    HW136124   0.211   0.629   1.393  0.0167 -0.3267  0.5343
74715SOL    HW236125   0.340   0.681   1.453  1.4266 -0.6803 -2.0570
74716SOL     OW36126   6.127   4.132   2.707  1.0064  0.1017  0.1258
74716SOL    HW136127   6.050   4.176   2.671  1.0983  0.2306  0.0860
74716SOL    HW236128   6.202   4.184   2.676  1.2279 -0.9823 -1.2373
74717SOL     OW36129   6.981   9.747  10.513 -0.5025 -0.8360  0.6788
74717SOL    HW136130   6.893   9.719  10.537 -0.2685 -1.2097  1.1055
74717SOL    HW236131   6.968   9.834  10.474 -1.2595 -1.6238 -0.8997
74718SOL     OW36132   0.773   9.458   5.465  0.5222 -0.0053  0.0978
74718SOL    HW136133   0.731   9.484   5.383  0.5398 -0.9133 -0.2094
74718SOL    HW236134   0.701   9.429   5.521  0.7731 -3.0089 -0.9566
74719SOL     OW36135  11.002   5.898   7.651  0.0652  0.9346 -0.1838
74719SOL    HW136136  11.033   5.879   7.740 -3.2932  1.4371  1.2205
74719SOL    HW236137  11.064   5.851   7.595  1.3672 -0.8197  2.4630
74720SOL     OW36138   3.429   6.168   8.756  0.1377 -0.0274  0.5964
74720SOL    HW136139   3.486   6.208   8.822 -0.5859  0.5043  0.9206
74720SOL    HW236140   3.489   6.126   8.695  0.8821  0.5891  0.8826
74721SOL     OW36141  11.541   5.335   9.948  0.4555 -0.3478  0.4404
74721SOL    HW136142  11.479   5.385  10.000  0.0726 -0.6878  0.3188
74721SOL    HW236143  11.548   5.383   9.866 -0.4571 -0.8618  0.0447
74722SOL     OW36144   9.542   2.342   9.342 -0.0926  0.0773 -0.3721
74722SOL    HW136145   9.478   2.289   9.294 -0.6666 -1.0406  1.5218
74722SOL    HW236146   9.627   2.308   9.315 -0.4435 -1.4994  0.4458
74723SOL     OW36147  13.991   2.570  12.622  0.4714 -0.3813  0.2365
74723SOL    HW136148  14.039   2.586  12.540 -1.1111  0.6158 -0.5391
74723SOL    HW236149  13.966   2.477  12.617  0.3714 -0.3223 -0.4141
74724SOL     OW36150  10.129   5.776   6.976 -0.5663  0.1589 -0.0879
74724SOL    HW136151  10.137   5.709   7.044 -1.6774 -0.8849 -0.9448
74724SOL    HW236152  10.209   5.768   6.925 -0.8277 -0.7520 -0.3721
74725SOL     OW36153   5.654   3.619   3.797 -0.3566  0.2323  0.0662
74725SOL    HW136154   5.657   3.709   3.766  0.4456 -0.5566 -2.3573
74725SOL    HW236155   5.561   3.598   3.803 -0.5422  0.8052 -0.6977
74726SOL     OW36156   7.813   3.247   7.720 -0.4259 -0.1423  0.5811
74726SOL    HW136157   7.757   3.214   7.650 -0.9750  0.2041  0.8560
74726SOL    HW236158   7.902   3.221   7.694 -0.4352  1.3062 -1.0103
74727SOL     OW36159   1.812   9.787   2.461  0.3509  0.0057 -0.1242
74727SOL    HW136160   1.757   9.743   2.526  2.1575 -0.8511  0.8979
74727SOL    HW236161   1.886   9.819   2.511  0.7611  1.2233 -1.4490
74728SOL     OW36162   0.163   9.052   0.696  0.2981  0.1197 -0.2455
74728SOL    HW136163   0.080   9.088   0.728  0.6548  0.4379  0.3436
74728SOL    HW236164   0.138   8.998   0.621 -0.6350 -1.1173  0.9217
74729SOL     OW36165   7.128   2.447   5.533  0.1318  0.6995 -1.0724
74729SOL    HW136166   7.070   2.374   5.554 -0.5522  0.8580 -2.3066
74729SOL    HW236167   7.193   2.410   5.474  1.3782  0.5069  0.3577
74730SOL     OW36168  10.081  13.952   5.916  0.2561 -0.1251 -0.0143
74730SOL    HW136169  10.172  13.925   5.904  0.7057  1.1582  0.3385
74730SOL    HW236170  10.049  13.897   5.988  0.8185 -0.4235  0.0175
74731SOL     OW36171   8.770   2.253   4.210  0.3095  0.6274  0.0618
74731SOL    HW136172   8.786   2.298   4.127  2.0779 -0.7660 -0.4083
74731SOL    HW236173   8.778   2.160   4.189 -0.0924  0.2058  1.6271
74732SOL     OW36174  13.953  13.649  10.651  0.4038  0.1545  0.4265
74732SOL    HW136175  13.879  13.597  10.682 -0.4544  0.9477 -0.2349
74732SOL    HW236176  14.030  13.600  10.680 -0.3667 -1.3118  0.1017
74733SOL     OW36177   8.348   3.161   2.386 -0.0562 -0.0505  0.1529
74733SOL    HW136178   8.352   3.187   2.294 -0.0597 -1.3916 -0.2524
74733SOL    HW236179   8.385   3.235   2.434 -0.6270  0.9241 -0.8664
74734SOL     OW36180   9.996  10.558  13.497 -0.2022 -0.4112 -0.1686
74734SOL    HW136181   9.906  10.552  13.465 -0.7116 -1.8124  1.4208
74734SOL    HW236182  10.006  10.483  13.555  2.1907 -0.5889 -0.7377
74735SOL     OW36183   3.144  10.613  13.203  0.2095  0.0488  0.3290
74735SOL    HW136184   3.207  10.684  13.217  0.1595 -0.1407  1.6784
74735SOL    HW236185   3.186  10.556  13.139  0.8063  0.6339  0.1875
74736SOL     OW36186   3.803  13.124   0.622  0.3331 -0.0355 -0.3449
74736SOL    HW136187   3.795  13.172   0.540  0.4078  0.5435 -0.0216
74736SOL    HW236188   3.714  13.100   0.646  0.3947 -1.0912 -1.0984
74737SOL     OW36189   3.322   1.228   0.473  0.6225  0.3289  0.2152
74737SOL    HW136190   3.340   1.198   0.563 -0.7763 -1.9091 -0.1757
74737SOL    HW236191   3.394   1.192   0.421 -0.2612 -1.2050 -0.0133
74738SOL     OW36192   8.240  13.859   1.302 -0.6206 -0.0620  0.2272
74738SOL    HW136193   8.239  13.942   1.350  1.2924 -0.5707  1.2394
74738SOL    HW236194   8.164  13.864   1.244 -1.0775  1.9968  0.9219
74739SOL     OW36195   1.212   6.293   6.085  0.1161  0.1094 -0.0660
74739SOL    HW136196   1.302   6.275   6.060  0.4488 -0.0341  1.1492
74739SOL    HW236197   1.206   6.263   6.176 -1.3438 -0.5044 -0.3283
74740SOL     OW36198   6.989   4.894   9.471 -0.2784  0.3624 -0.0189
74740SOL    HW136199   6.901   4.856   9.478  0.0755 -0.4439  0.2208
74740SOL    HW236200   6.983   4.978   9.517 -0.7691  0.0166  0.5645
74741SOL     OW36201   0.350  10.221   5.769 -0.6929  0.0896  0.5104
74741SOL    HW136202   0.304  10.284   5.714 -0.8389  0.3332  0.9076
74741SOL    HW236203   0.437  10.259   5.781 -1.0232  0.6103  1.3860
74742SOL     OW36204   8.403   4.254   1.366  0.1390  0.5297 -0.2540
74742SOL    HW136205   8.444   4.177   1.406  0.7052  1.1261  0.3359
74742SOL    HW236206   8.474   4.296   1.317  0.1070  1.2611  0.3152
74743SOL     OW36207  13.792   1.368   5.812 -0.0346 -0.6512  0.1154
74743SOL    HW136208  13.750   1.389   5.896 -1.0561  1.8357 -0.9198
74743SOL    HW236209  13.838   1.448   5.787 -0.9847 -0.7904 -2.3732
74744SOL     OW36210  13.773   7.883   0.166  0.3381  0.0837  0.7229
74744SOL    HW136211  13.770   7.810   0.104 -2.5179 -0.6249  1.5268
74744SOL    HW236212  13.832   7.854   0.235  1.4780 -0.2247 -0.3508
74745SOL     OW36213   6.647  10.600   7.891 -0.2103 -0.0564 -0.4458
74745SOL    HW136214   6.685  10.656   7.824  0.5265 -1.0758 -0.9221
74745SOL    HW236215   6.557  10.631   7.902 -0.4922 -0.1710 -2.2544
74746SOL     OW36216  12.923   8.403   3.348 -0.1268 -0.3311 -0.3018
74746SOL    HW136217  12.928   8.498   3.363 -0.6246  0.3748 -3.7201
74746SOL    HW236218  13.014   8.374   3.348 -0.0127 -0.1045  1.7428
74747SOL     OW36219   7.186   7.317   2.567  0.4638 -0.4636  0.1595
74747SOL    HW136220   7.095   7.304   2.593  0.2434 -0.4789 -0.5982
74747SOL    HW236221   7.182   7.390   2.505  1.0014 -0.3033  0.3103
74748SOL     OW36222   6.591   0.106   3.431 -0.4370  0.3048  0.6697
74748SOL    HW136223   6.655   0.055   3.380 -0.0324 -0.6025  2.0029
74748SOL    HW236224   6.587   0.191   3.387  1.8168  0.4455  0.5952
74749SOL     OW36225  10.658   9.628  10.001  0.0086 -0.6473  0.5742
74749SOL    HW136226  10.753   9.631  10.011 -0.0060  1.5508  0.5505
74749SOL    HW236227  10.624   9.675  10.076 -0.9592  0.2571 -0.3955
74750SOL     OW36228   1.322   9.980   7.583  0.4378 -0.4667 -0.6286
74750SOL    HW136229   1.274   9.977   7.501 -0.0312  2.9170 -0.6532
74750SOL    HW236230   1.315  10.072   7.611  2.0237 -1.1140  2.3210
74751SOL     OW36231   4.127   0.759   1.045  0.1174 -0.0529 -0.1816
74751SOL    HW136232   4.207   0.730   1.090 -1.2449 -2.6859  0.7504
74751SOL    HW236233   4.059   0.755   1.113 -1.2084  0.0770 -1.4597
74752SOL     OW36234   9.535   8.001   8.143 -0.0577  0.5378 -0.1120
74752SOL    HW136235   9.488   8.017   8.061 -0.4902 -1.1039 -0.2050
74752SOL    HW236236   9.626   7.987   8.117 -0.4215 -1.3130 -0.4873
74753SOL     OW36237   0.093   8.824  12.598  0.0171 -0.5136 -0.1979
74753SOL    HW136238   0.024   8.891  12.602 -0.2324 -0.7711 -0.1818
74753SOL    HW236239   0.164   8.866  12.549  0.2643  0.1239  0.6900
74754SOL     OW36240  11.003   5.526   8.868  0.0668 -0.1123 -0.2970
74754SOL    HW136241  10.982   5.507   8.776  0.9369  1.3988 -0.8453
74754SOL    HW236242  11.053   5.450   8.897 -1.9408 -1.5612 -0.4020
74755SOL     OW36243   5.656  11.904   6.141  0.0661 -0.1108  0.4264
74755SOL    HW136244   5.602  11.983   6.140 -2.6509 -1.8117 -0.1768
74755SOL    HW236245   5.648  11.869   6.052  1.6327 -0.8158  0.5337
74756SOL     OW36246  10.104   5.669   2.916  0.5188  0.1430  0.1807
74756SOL    HW136247  10.032   5.607   2.926 -0.2490  1.1204  0.9777
74756SOL    HW236248  10.115   5.707   3.004  0.4934  1.6113 -0.4195
74757SOL     OW36249   6.307   3.348   8.361  0.4669 -0.2014  0.8145
74757SOL    HW136250   6.281   3.276   8.418 -0.9633 -0.5168 -0.1760
74757SOL    HW236251   6.273   3.324   8.275  0.6670  1.2706  0.2951
74758SOL     OW36252  13.196   9.728   7.365  0.4667  0.0897  0.0432
74758SOL    HW136253  13.122   9.671   7.385  1.1906 -0.4486  1.3445
74758SOL    HW236254  13.220   9.767   7.449  0.7768  1.3590 -0.6052
74759SOL     OW36255   4.700   8.458  10.806 -0.0542  0.2655  0.2834
74759SOL    HW136256   4.750   8.391  10.853 -0.3862 -0.2391 -0.0782
74759SOL    HW236257   4.613   8.457  10.847 -0.9883 -1.5626 -1.5860
74760SOL     OW36258   2.864   5.371   2.560  0.5161 -0.1263  0.3398
74760SOL    HW136259   2.934   5.419   2.516 -0.1402 -0.5638 -1.2417
74760SOL    HW236260   2.797   5.437   2.579  0.2987 -0.1322 -0.3916
74761SOL     OW36261  10.125   4.845   8.829  0.0932  0.3374  0.9241
74761SOL    HW136262  10.129   4.935   8.796 -1.7295  0.7496  1.6890
74761SOL    HW236263  10.031   4.829   8.842  0.3337 -1.8634  0.3133
74762SOL     OW36264   9.320   4.954   0.105 -0.2081  0.3056  0.1554
74762SOL    HW136265   9.286   5.022   0.163  1.1706  1.6876 -0.5730
74762SOL    HW236266   9.310   4.991   0.017 -1.5730 -1.4405 -0.4796
74763SOL     OW36267   3.946   0.638   6.655  0.3331 -0.3221  0.1061
74763SOL    HW136268   4.022   0.695   6.666  1.2180 -0.2996 -4.3296
74763SOL    HW236269   3.871   0.697   6.650  0.6324  0.0590  0.1125
74764SOL     OW36270   1.560   7.680   0.790 -0.5916 -0.0006  0.6145
74764SOL    HW136271   1.593   7.592   0.772  0.5778  0.3428  1.0281
74764SOL    HW236272   1.540   7.680   0.883 -3.7491 -0.8201  0.0495
74765SOL     OW36273   7.915  11.834   9.092 -0.3344 -0.1495  0.6525
74765SOL    HW136274   8.001  11.872   9.104 -0.8419  0.9029  1.0791
74765SOL    HW236275   7.921  11.786   9.009  0.8116 -0.5661  0.9692
74766SOL     OW36276  13.674   5.744  11.901 -0.4759  0.6762  0.1990
74766SOL    HW136277  13.690   5.764  11.808  0.8414  0.6536  0.4062
74766SOL    HW236278  13.740   5.679  11.924 -2.1662 -0.9531  0.6139
74767SOL     OW36279   3.605   0.306   1.233 -0.5369  0.6825 -0.0590
74767SOL    HW136280   3.672   0.344   1.290 -1.1221  0.8180  0.5421
74767SOL    HW236281   3.587   0.374   1.168  1.2800 -0.0426 -1.4178
74768SOL     OW36282  14.024  13.678   4.655 -0.3770  0.0418  0.1428
74768SOL    HW136283  14.104  13.638   4.620 -0.1889  0.1013  0.5029
74768SOL    HW236284  13.962  13.674   4.582 -0.2093 -0.4761  0.0237
74769SOL     OW36285   5.265  13.052   3.258  0.1322 -0.6020  0.6923
74769SOL    HW136286   5.337  13.054   3.195 -0.8552  0.0940 -0.4443
74769SOL    HW236287   5.308  13.054   3.344  1.4664 -0.5516  0.0403
74770SOL     OW36288   7.853   8.474   4.492 -0.1513 -0.1365  0.6611
74770SOL    HW136289   7.916   8.522   4.439 -0.5214 -0.9597 -0.5870
74770SOL    HW236290   7.899   8.393   4.515 -0.4065 -0.3144  0.5533
74771SOL     OW36291   8.994   4.207   4.446 -0.2902 -0.1277 -1.0008
74771SOL    HW136292   9.013   4.288   4.495  0.0781 -0.2151 -0.9955
74771SOL    HW236293   8.952   4.237   4.365  0.5119  0.1213 -1.3324
74772SOL     OW36294   7.716   7.945   6.740  0.4135  0.0244 -0.1197
74772SOL    HW136295   7.718   7.889   6.663 -0.1938  1.5460 -1.2873
74772SOL    HW236296   7.801   7.987   6.742  0.4773 -0.1136  0.1258
74773SOL     OW36297  11.416   2.855  12.837  0.2918 -0.0058  0.0491
74773SOL    HW136298  11.336   2.849  12.889  1.4462 -1.1325  1.8206
74773SOL    HW236299  11.473   2.912  12.889  0.9749  0.0500 -0.7429
74774SOL     OW36300   7.733   9.142  11.345  0.5141 -0.5381  0.1088
74774SOL    HW136301   7.724   9.181  11.259  2.4144  0.0581  0.1339
74774SOL    HW236302   7.645   9.112  11.368 -0.1294 -0.1615 -1.7582
74775SOL     OW36303   2.730   9.776  11.957  0.0902 -0.0796 -0.4402
74775SOL    HW136304   2.806   9.758  11.901  0.3080 -0.3180 -0.0676
74775SOL    HW236305   2.701   9.862  11.929  0.0414 -0.3076 -1.1021
74776SOL     OW36306  10.969   9.606   8.753  0.9001 -0.2548  0.0465
74776SOL    HW136307  10.909   9.546   8.710 -0.0497 -0.6938  1.8898
74776SOL    HW236308  10.922   9.689   8.755  1.3450  0.0200 -0.6119
74777SOL     OW36309   2.701   1.205   6.645 -0.3758  0.6501 -0.1504
74777SOL    HW136310   2.781   1.220   6.697  0.4524  0.4977 -1.3514
74777SOL    HW236311   2.633   1.252   6.693  0.7548  2.1759  0.0466
74778SOL     OW36312  11.608  10.753   7.537 -0.2050  0.6462 -0.5387
74778SOL    HW136313  11.529  10.806   7.528  0.2623  1.7146  1.1464
74778SOL    HW236314  11.679  10.817   7.541  0.2667  0.0874  2.8423
74779SOL     OW36315   2.908  12.678  11.190 -0.3802  0.2719  0.0272
74779SOL    HW136316   2.910  12.765  11.229 -2.1650  0.2201  0.3211
74779SOL    HW236317   2.920  12.618  11.264  1.5822  0.2347 -0.2666
74780SOL     OW36318   6.402  13.792   8.749  0.1256  0.4298  0.3583
74780SOL    HW136319   6.354  13.717   8.714 -0.0847  0.3378  0.8382
74780SOL    HW236320   6.421  13.768   8.840  1.4771  0.2658  0.0632
74781SOL     OW36321  10.809   2.168   6.217  0.5352 -0.0998 -0.5294
74781SOL    HW136322  10.802   2.201   6.127 -0.4239 -1.5176 -0.9998
74781SOL    HW236323  10.722   2.133   6.236  0.8604 -0.2179  0.8029
74782SOL     OW36324   7.705  13.223   0.335  0.2189  0.0779 -0.4506
74782SOL    HW136325   7.757  13.219   0.255  1.3960  0.1166  0.2890
74782SOL    HW236326   7.614  13.217   0.305  0.6151  0.5851 -1.8126
74783SOL     OW36327   8.148   3.326   0.525  0.4463  0.2762  0.3009
74783SOL    HW136328   8.062   3.344   0.563  0.5424  1.2118  0.1031
74783SOL    HW236329   8.147   3.232   0.508 -0.8296  0.3786 -0.3941
74784SOL     OW36330  11.517   1.471   7.506  0.0412  0.3935 -0.5039
74784SOL    HW136331  11.592   1.481   7.448 -0.1635 -0.8147 -1.0250
74784SOL    HW236332  11.443   1.458   7.447 -0.0372 -1.7569 -0.0145
74785SOL     OW36333   2.194  13.020  11.564 -0.3322  0.3302 -0.0122
74785SOL    HW136334   2.197  13.072  11.644  1.1897 -1.5332  1.2234
74785SOL    HW236335   2.243  13.072  11.500  2.0637  0.0523  1.4783
74786SOL     OW36336   7.308   1.547  11.265 -0.1055 -0.0379  0.1294
74786SOL    HW136337   7.294   1.530  11.172  0.6828  0.6085 -0.1160
74786SOL    HW236338   7.262   1.476  11.310 -0.9732 -0.0330 -0.7325
74787SOL     OW36339  12.354   5.016   1.648  0.0437  0.7521 -0.3158
74787SOL    HW136340  12.430   5.075   1.648  0.7798 -0.1215  1.5870
74787SOL    HW236341  12.316   5.027   1.561  0.6585  3.3626 -0.3604
74788SOL     OW36342   7.077  13.787  14.039  0.1411 -0.3022  0.1741
74788SOL    HW136343   7.008  13.849  14.062 -0.1083 -0.4770 -0.0927
74788SOL    HW236344   7.060  13.711  14.094  0.3785 -0.1824  0.4176
74789SOL     OW36345   2.133   9.579   1.350  0.0812 -0.1840  0.1483
74789SOL    HW136346   2.083   9.648   1.305 -0.0449  0.1637  0.8078
74789SOL    HW236347   2.223   9.613   1.352  0.1223 -0.2842 -0.0089
74790SOL     OW36348   6.117  13.594  13.407 -0.2278  0.1116  0.3929
74790SOL    HW136349   6.182  13.536  13.447 -0.3900  0.1053  0.6502
74790SOL    HW236350   6.151  13.682  13.422 -1.2123  0.2248  2.2492
74791SOL     OW36351   8.898   3.334   3.785  0.5068  0.0065  0.0021
74791SOL    HW136352   8.940   3.256   3.822  0.8012 -0.9299 -2.1559
74791SOL    HW236353   8.838   3.363   3.853 -0.9906 -3.2160  0.2711
74792SOL     OW36354   3.296   7.911   8.111 -0.7910  0.1826  0.1338
74792SOL    HW136355   3.367   7.975   8.114  0.7737 -1.4156 -0.9597
74792SOL    HW236356   3.293   7.874   8.199  1.9187 -1.9057 -0.5190
74793SOL     OW36357  11.172   2.861  12.948  0.3049  0.4307  0.0574
74793SOL    HW136358  11.089   2.834  12.909 -0.4643 -0.2313  2.0066
74793SOL    HW236359  11.154   2.949  12.983  1.0110  1.0641 -1.1400
74794SOL     OW36360   5.426   0.543  13.626 -0.2347 -0.0364  0.3834
74794SOL    HW136361   5.475   0.478  13.676 -0.1540  0.7052  1.3090
74794SOL    HW236362   5.407   0.612  13.690 -2.3942 -0.2380  0.0328
74795SOL     OW36363   0.715  11.489  11.762  0.1378  0.4366  0.0365
74795SOL    HW136364   0.732  11.582  11.776 -1.8610  0.9171 -0.3856
74795SOL    HW236365   0.633  11.487  11.713  1.0494 -1.5003 -1.5930
74796SOL     OW36366   9.741  10.952   6.594  0.1504 -0.2583 -0.0345
74796SOL    HW136367   9.743  11.048   6.599 -1.0358 -0.2315  0.0355
74796SOL    HW236368   9.653  10.931   6.563  0.3708 -1.3345  0.0351
74797SOL     OW36369   3.206  12.065   3.678  0.2995  0.6414 -0.1614
74797SOL    HW136370   3.137  12.123   3.645  1.0575  2.1914  0.8290
74797SOL    HW236371   3.259  12.122   3.734  0.2831 -1.3516  1.9933
74798SOL     OW36372   5.715  12.465   0.140 -0.1798  0.3806  0.0861
74798SOL    HW136373   5.720  12.443   0.233 -0.8119  1.0072  0.2811
74798SOL    HW236374   5.630  12.431   0.112  1.1468 -2.3643 -0.9998
74799SOL     OW36375   2.546  12.867   2.264  0.5150 -0.6230  0.6157
74799SOL    HW136376   2.620  12.808   2.250  0.6061 -0.4258  0.2731
74799SOL    HW236377   2.469  12.809   2.265  0.5574 -0.6924 -0.1757
74800SOL     OW36378  12.490   3.701  10.113 -0.2518 -1.0010 -0.5719
74800SOL    HW136379  12.417   3.641  10.124 -0.0937 -1.3186 -1.2058
74800SOL    HW236380  12.496   3.715  10.019 -0.1618 -0.1367 -0.4518
74801SOL     OW36381  12.665   9.971  12.817  0.5271  0.1922  0.1300
74801SOL    HW136382  12.715   9.890  12.820  1.1022  0.5218 -0.4039
74801SOL    HW236383  12.605   9.959  12.742  0.5767  0.2385  0.0831
74802SOL     OW36384  11.037   2.275   2.578 -0.7759  0.1501 -0.2157
74802SOL    HW136385  11.079   2.282   2.492 -1.1741  1.7973 -0.3098
74802SOL    HW236386  11.104   2.304   2.640 -0.9668  0.3880 -0.1202
74803SOL     OW36387  13.622  12.535   8.120  0.1258  0.1796  0.3122
74803SOL    HW136388  13.637  12.532   8.215 -0.4123  0.4731  0.4107
74803SOL    HW236389  13.702  12.498   8.082  0.3819  0.1411  0.8762
74804SOL     OW36390   3.110   9.069   0.040 -0.4011 -0.4444  0.1556
74804SOL    HW136391   3.155   9.079   0.124  0.2235  0.1254 -0.2410
74804SOL    HW236392   3.173   9.024  -0.016 -0.3173  0.3353 -0.3974
74805SOL     OW36393   0.297   5.052   9.751  0.1643 -0.0375  0.4722
74805SOL    HW136394   0.277   5.068   9.659  0.2259  1.3382  0.6872
74805SOL    HW236395   0.363   4.982   9.749 -0.3451 -0.5172 -0.4792
74806SOL     OW36396   7.975  11.002  12.721 -0.0225 -0.1558 -0.3790
74806SOL    HW136397   8.059  10.980  12.760 -0.0881 -1.5288 -0.9501
74806SOL    HW236398   7.991  11.001  12.627 -0.7278 -0.6843 -0.5032
74807SOL     OW36399   4.223  11.314   7.143 -0.1865  0.2982 -0.2580
74807SOL    HW136400   4.186  11.329   7.230  0.9685 -2.3466  0.7835
74807SOL    HW236401   4.314  11.292   7.159  0.3565  0.8299 -2.2721
74808SOL     OW36402   5.916   7.357  13.489 -0.3623 -0.3345 -0.1273
74808SOL    HW136403   6.011   7.371  13.488 -0.3417 -0.1258  1.7528
74808SOL    HW236404   5.905   7.262  13.482 -0.1525 -0.2545 -2.6935
74809SOL     OW36405  11.284   7.014  13.367 -0.1357 -0.2786  0.6835
74809SOL    HW136406  11.236   7.063  13.434 -0.9511  0.5308 -0.4662
74809SOL    HW236407  11.217   6.961  13.324  0.3102 -0.4488  0.1919
74810SOL     OW36408   8.536   5.920   5.401 -0.3988  0.4146  0.9310
74810SOL    HW136409   8.553   6.013   5.412 -1.5540  0.7686 -0.0020
74810SOL    HW236410   8.440   5.913   5.400 -0.3325 -0.7002  0.3966
74811SOL     OW36411  12.017   0.025  12.391 -0.8024 -0.3761 -0.1947
74811SOL    HW136412  12.064  -0.053  12.363  0.9925  0.0896  1.2810
74811SOL    HW236413  11.956   0.043  12.321  0.9432 -1.2824 -2.0487
74812SOL     OW36414   7.916   4.897   1.016 -0.6643 -0.1836 -0.0540
74812SOL    HW136415   7.922   4.986   1.050 -2.7771  0.3210 -0.8568
74812SOL    HW236416   7.843   4.899   0.955  0.4448 -2.0379 -1.5524
74813SOL     OW36417  10.991   2.533   4.424  0.0549 -0.0784  0.4119
74813SOL    HW136418  10.941   2.497   4.351  3.1109  0.1668 -1.9988
74813SOL    HW236419  10.973   2.627   4.422  0.5579  0.0081 -0.4328
74814SOL     OW36420  13.505  10.126   2.870  0.5170 -0.0262 -0.3799
74814SOL    HW136421  13.565  10.081   2.811 -0.2289 -3.3835  1.1787
74814SOL    HW236422  13.558  10.150   2.946  0.2835 -1.4585  0.2614
74815SOL     OW36423   2.213   2.198  13.479 -0.4196  0.0325  0.1562
74815SOL    HW136424   2.140   2.136  13.483 -1.3116  1.0396  0.0680
74815SOL    HW236425   2.196   2.250  13.400  0.4459  0.2247  0.0884
74816SOL     OW36426   2.209   1.474   2.670 -0.2345 -0.7275  0.1308
74816SOL    HW136427   2.288   1.479   2.617 -1.2767  1.1938 -1.3775
74816SOL    HW236428   2.145   1.433   2.613 -0.4705 -1.8375  1.1731
74817SOL     OW36429  10.666  13.961   6.648  0.3723 -0.3446 -0.6902
74817SOL    HW136430  10.603  13.922   6.710  1.3513 -0.3145  0.3467
74817SOL    HW236431  10.632  14.050   6.633  0.4866 -0.1166  0.3403
74818SOL     OW36432   1.639  13.127   0.007 -0.0146 -0.0638  0.5844
74818SOL    HW136433   1.550  13.129  -0.029 -0.5640 -1.1374  1.7857
74818SOL    HW236434   1.693  13.165  -0.061 -1.4024  0.6627 -0.1682
74819SOL     OW36435   0.949   7.082   4.882  0.4321  0.3529 -0.0652
74819SOL    HW136436   0.962   7.008   4.822 -0.9783  0.4054 -0.4667
74819SOL    HW236437   0.854   7.087   4.894  0.6424  0.3552  2.1731
74820SOL     OW36438   6.038   3.757   7.358  0.5101 -0.5272  0.3310
74820SOL    HW136439   5.975   3.685   7.358  0.8527 -0.8581 -1.4102
74820SOL    HW236440   5.989   3.833   7.327  0.0846  0.1056  2.4005
74821SOL     OW36441  10.003   1.135   3.139 -0.2051  0.4195  0.0455
74821SOL    HW136442   9.981   1.225   3.119 -0.3707  0.5765  0.9140
74821SOL    HW236443   9.929   1.102   3.190 -0.5811 -0.4985 -1.0423
74822SOL     OW36444   6.836   9.553   3.084 -0.4654 -0.1566  0.3091
74822SOL    HW136445   6.820   9.519   2.996  3.1814 -0.1465 -0.5084
74822SOL    HW236446   6.859   9.645   3.071  0.6454 -0.2842  1.1528
74823SOL     OW36447   8.572  12.973   5.712  0.5363  0.6971 -0.5033
74823SOL    HW136448   8.636  12.938   5.650 -1.6620 -0.9847 -2.0168
74823SOL    HW236449   8.489  12.934   5.684 -1.3211  3.4056  0.8235
74824SOL     OW36450   3.043  10.638   0.586  0.2187  0.4587  0.0855
74824SOL    HW136451   3.030  10.545   0.606 -1.4200  0.3864 -1.1394
74824SOL    HW236452   3.023  10.683   0.668 -0.5031 -0.1782  0.2772
74825SOL     OW36453   6.420   9.335  12.436 -0.1024  0.0618  0.2718
74825SOL    HW136454   6.487   9.269  12.452 -0.1953 -0.3751 -1.0218
74825SOL    HW236455   6.369   9.337  12.517  0.3578 -0.9158  0.6048
74826SOL     OW36456   9.299  12.819   8.453  0.2407  0.2070  0.4251
74826SOL    HW136457   9.299  12.886   8.520 -0.2596 -1.0737  1.7694
74826SOL    HW236458   9.388  12.783   8.454  0.4484  0.7011 -0.1438
74827SOL     OW36459   2.879   7.044   4.744  0.2092  0.1947  0.0295
74827SOL    HW136460   2.792   7.009   4.761  0.6100 -1.0741 -0.3912
74827SOL    HW236461   2.881   7.056   4.649  1.0522 -1.3867 -0.1706
74828SOL     OW36462   2.174   1.481   6.641  0.2303 -0.3070  0.0870
74828SOL    HW136463   2.118   1.405   6.625  1.9614 -1.3904 -1.0968
74828SOL    HW236464   2.214   1.465   6.726  2.0583 -1.7421 -0.9789
74829SOL     OW36465   7.594   0.261  12.222 -0.2756  0.6645  0.0091
74829SOL    HW136466   7.688   0.263  12.237 -0.1692  0.7869 -0.6680
74829SOL    HW236467   7.577   0.331  12.159 -0.6954  0.0896 -0.5289
74830SOL     OW36468   8.866   6.130   8.061  0.4351  0.5146 -0.3460
74830SOL    HW136469   8.839   6.055   8.009  0.0861  0.8037 -0.5880
74830SOL    HW236470   8.844   6.107   8.151 -0.6810  0.7635 -0.5393
74831SOL     OW36471   3.333   4.607   4.039  0.2964  0.3794 -0.1818
74831SOL    HW136472   3.392   4.535   4.016 -1.4961 -1.0641 -0.4954
74831SOL    HW236473   3.327   4.602   4.135  0.6838  0.5312 -0.1493
74832SOL     OW36474   9.647   1.957   2.619  0.3761 -0.0496 -0.0295
74832SOL    HW136475   9.690   1.891   2.673  1.3420  0.6939  0.1384
74832SOL    HW236476   9.705   1.967   2.543 -0.9114 -1.0115 -1.1810
74833SOL     OW36477  11.991  13.575   8.429  0.0640 -0.0763 -0.5271
74833SOL    HW136478  11.942  13.638   8.376 -0.2642 -1.3833 -1.8356
74833SOL    HW236479  11.949  13.491   8.411  0.6564 -0.7249  0.9753
74834SOL     OW36480   3.053  12.155   2.186 -0.6547 -0.2992 -0.3944
74834SOL    HW136481   3.125  12.122   2.240 -0.3392  0.3947 -0.3857
74834SOL    HW236482   2.974  12.124   2.230 -0.3923  0.0033  0.2948
74835SOL     OW36483   8.267  10.276  13.571  0.0598  0.2768  0.1701
74835SOL    HW136484   8.293  10.368  13.566  0.7041  0.0664 -0.5673
74835SOL    HW236485   8.234  10.256  13.483 -0.1255 -0.1813  0.3438
74836SOL     OW36486   8.353   3.655   3.571 -0.0915  0.1910 -0.1156
74836SOL    HW136487   8.383   3.745   3.556  0.5263  0.2891  1.4710
74836SOL    HW236488   8.334   3.621   3.484 -0.0655  1.7666 -0.7710
74837SOL     OW36489  11.315   7.169   8.603  0.1310  0.4607  0.2384
74837SOL    HW136490  11.337   7.113   8.677 -1.5214  1.5724  1.6848
74837SOL    HW236491  11.323   7.258   8.638  0.1583  1.0393 -1.1879
74838SOL     OW36492   6.938   1.659  11.646  0.3178  0.1972 -0.0777
74838SOL    HW136493   6.914   1.749  11.670 -0.3611 -0.2971  1.1930
74838SOL    HW236494   7.030   1.664  11.621  0.3289  1.2169  0.1275
74839SOL     OW36495   8.819   5.557  10.309  0.1433  0.0344 -0.6980
74839SOL    HW136496   8.771   5.639  10.326 -0.6289 -0.2827 -1.2588
74839SOL    HW236497   8.751   5.490  10.308  0.8124 -0.6703  0.0634
74840SOL     OW36498   4.380   2.583   6.764 -0.5130  0.1866 -0.4281
74840SOL    HW136499   4.328   2.663   6.758  0.0776  0.6556  0.4991
74840SOL    HW236500   4.350   2.541   6.844 -0.4027 -0.2236 -0.6007
74841SOL     OW36501   8.578   0.056   7.766  0.3853  0.0351  0.2298
74841SOL    HW136502   8.521   0.068   7.842 -0.9516 -0.7375 -0.6245
74841SOL    HW236503   8.659   0.101   7.790 -0.5913  1.2239  1.4522
74842SOL     OW36504   5.412   2.487   1.080  1.0958  0.0015 -0.8098
74842SOL    HW136505   5.360   2.505   1.002  0.2134 -0.6244 -0.3814
74842SOL    HW236506   5.390   2.558   1.141 -1.2601 -1.5858  0.3268
74843SOL     OW36507   8.909  13.052   1.026  0.3189 -0.2929 -0.2289
74843SOL    HW136508   8.825  13.023   1.061 -0.6667 -0.2718 -2.3696
74843SOL    HW236509   8.891  13.140   0.993  1.2715 -0.1657 -0.4166
74844SOL     OW36510   8.699   7.142   1.078  0.1869  0.3768  0.0496
74844SOL    HW136511   8.762   7.125   1.148 -0.8122  0.0082  0.8992
74844SOL    HW236512   8.724   7.228   1.044  1.8990 -0.2950 -0.5012
74845SOL     OW36513   0.065   1.107   7.145 -0.0000  0.4313  0.0675
74845SOL    HW136514   0.051   1.055   7.225 -0.7609  1.8840  0.9330
74845SOL    HW236515  -0.018   1.151   7.131  0.0647  0.0336 -1.6887
74846SOL     OW36516   2.985   2.192  13.611  0.0015  0.4699 -0.9257
74846SOL    HW136517   2.976   2.129  13.539 -1.3258  1.1134 -1.3438
74846SOL    HW236518   2.907   2.246  13.606  0.1911  0.9447  0.6229
74847SOL     OW36519   2.669   8.137   9.432  0.1523  0.0067  0.3294
74847SOL    HW136520   2.666   8.069   9.365  0.7856  0.8813 -0.6159
74847SOL    HW236521   2.741   8.111   9.489  1.0623  0.3834 -0.6114
74848SOL     OW36522  10.391   4.665  11.168  0.0289  0.5521 -0.2321
74848SOL    HW136523  10.429   4.724  11.234  1.4928 -0.4493 -0.1399
74848SOL    HW236524  10.334   4.607  11.219  2.4773 -1.3508  0.5249
74849SOL     OW36525  13.870   7.128   1.909 -0.1792  0.4402  0.2604
74849SOL    HW136526  13.783   7.092   1.924  0.0383 -0.6985 -1.0820
74849SOL    HW236527  13.859   7.190   1.837  0.5489 -1.8413 -1.9587
74850SOL     OW36528  11.646   4.580  12.209  0.1090 -0.2053 -0.8485
74850SOL    HW136529  11.721   4.627  12.247  0.5806 -0.4837 -1.4122
74850SOL    HW236530  11.654   4.597  12.115  1.3075 -2.8182 -1.2898
74851SOL     OW36531   6.259   3.603   2.439  0.6161 -0.2952  0.1645
74851SOL    HW136532   6.250   3.537   2.370 -0.8146  0.1839 -0.1417
74851SOL    HW236533   6.263   3.553   2.520  1.0590 -0.8185 -0.1728
74852SOL     OW36534  10.338   8.632   9.139  0.3755  0.6096 -0.3191
74852SOL    HW136535  10.266   8.570   9.153  1.7361 -1.4888 -1.8420
74852SOL    HW236536  10.393   8.622   9.216  0.2583  0.3872 -0.2630
74853SOL     OW36537  10.933   9.448   9.771 -0.4964 -0.1554 -0.7016
74853SOL    HW136538  10.911   9.539   9.795 -2.2855 -0.3657 -1.3425
74853SOL    HW236539  10.971   9.455   9.684 -0.1909  0.0197 -0.5556
74854SOL     OW36540   6.255   1.966   9.268 -0.2244 -0.1203  0.4490
74854SOL    HW136541   6.284   1.955   9.177 -0.1636  0.9905  0.3213
74854SOL    HW236542   6.160   1.972   9.262 -0.3777 -1.9070  0.6721
74855SOL     OW36543   0.633   8.243  10.401 -0.2693  0.3399 -0.3737
74855SOL    HW136544   0.629   8.311  10.333 -0.6313 -0.6590 -1.3944
74855SOL    HW236545   0.681   8.283  10.473 -0.5956  1.7191 -0.8917
74856SOL     OW36546   5.896  11.816  11.935 -0.6247 -0.4268  0.0644
74856SOL    HW136547   5.986  11.794  11.957 -1.1393 -2.8234 -0.0242
74856SOL    HW236548   5.846  11.737  11.955 -2.9527  1.2612  1.4106
74857SOL     OW36549  10.343   8.032   2.759  0.0047  0.2955  0.1775
74857SOL    HW136550  10.348   7.936   2.762 -2.1147  0.0987 -0.5648
74857SOL    HW236551  10.431   8.060   2.733  0.3157 -1.5620 -0.9770
74858SOL     OW36552   5.244   1.896   2.331  0.5633  0.0706  0.4145
74858SOL    HW136553   5.162   1.866   2.370  1.3369 -0.6248  1.5512
74858SOL    HW236554   5.233   1.878   2.237 -1.0159  1.0517  0.3724
74859SOL     OW36555  11.789   6.419   9.600  0.6565  0.2061  0.1403
74859SOL    HW136556  11.811   6.459   9.684  1.7080 -1.2575  0.6108
74859SOL    HW236557  11.696   6.437   9.588  0.6309  0.9636  1.3075
74860SOL     OW36558   0.961   1.072   4.839 -0.0872  0.0811 -0.2669
74860SOL    HW136559   1.005   1.110   4.915  1.2437  1.0441 -1.4777
74860SOL    HW236560   0.883   1.126   4.827  0.6364  1.0604 -0.6427
74861SOL     OW36561  12.785   2.076   1.324  0.3591 -0.1913  0.0423
74861SOL    HW136562  12.703   2.036   1.296 -0.0228  0.1108  0.7131
74861SOL    HW236563  12.770   2.100   1.415  1.4110 -0.7075  0.3605
74862SOL     OW36564  13.846  10.486   7.723 -0.1026 -0.3952  0.2900
74862SOL    HW136565  13.936  10.519   7.732  0.2521 -0.1343 -2.9294
74862SOL    HW236566  13.810  10.490   7.812  2.8357  0.1029  1.5862
74863SOL     OW36567   7.914  12.256  10.421  0.1598 -0.5589 -0.3033
74863SOL    HW136568   7.829  12.253  10.377 -0.7734  0.3608  1.3016
74863SOL    HW236569   7.930  12.349  10.436  0.1178 -0.8349  1.7738
74864SOL     OW36570  11.443   6.919   7.067 -0.1449  0.3638 -0.0129
74864SOL    HW136571  11.414   7.000   7.025  0.5139  0.1458 -0.9045
74864SOL    HW236572  11.462   6.945   7.157 -0.0734  1.1848 -0.2538
74865SOL     OW36573   6.113  12.729  13.860  0.4985  0.2075  0.4105
74865SOL    HW136574   6.190  12.673  13.860 -0.5715 -1.3681  1.7672
74865SOL    HW236575   6.071  12.713  13.775  1.9670  1.5920 -0.6190
74866SOL     OW36576  12.015   9.447   1.540  0.1497  0.4205  0.2492
74866SOL    HW136577  12.108   9.469   1.532  0.0673  0.5478 -0.4806
74866SOL    HW236578  11.970   9.515   1.490 -0.2011 -0.6454 -0.9695
74867SOL     OW36579  13.045  14.039  10.442  0.1366  0.1518  0.2075
74867SOL    HW136580  13.054  13.946  10.419  0.1726  0.3492 -0.5906
74867SOL    HW236581  13.131  14.076  10.427 -0.4128  0.7720 -1.6316
74868SOL     OW36582   2.069   8.068   0.531 -0.0893  0.8446  0.1106
74868SOL    HW136583   2.059   8.145   0.475 -0.7032  0.5094 -0.2563
74868SOL    HW236584   2.150   8.027   0.501 -0.9647  0.0733 -1.2912
74869SOL     OW36585   9.998   2.927  11.015  0.3428 -0.2685 -0.2587
74869SOL    HW136586  10.064   2.862  10.991  0.3462 -0.6805  0.8227
74869SOL    HW236587  10.034   2.969  11.093  0.1919  0.8185 -0.7521
74870SOL     OW36588   5.799   6.701  13.321 -0.1537 -0.1183 -0.3349
74870SOL    HW136589   5.866   6.763  13.291  0.4743  0.3515  1.8618
74870SOL    HW236590   5.825   6.617  13.286  0.6418  0.3606 -0.9067
74871SOL     OW36591   5.124  11.295  11.398 -0.2223 -0.1991  0.4118
74871SOL    HW136592   5.066  11.335  11.463  0.7041  0.4414  0.8707
74871SOL    HW236593   5.094  11.332  11.315 -0.8421 -0.3266  0.5711
74872SOL     OW36594   6.645   5.320   2.444  0.1085 -0.0397  0.2849
74872SOL    HW136595   6.591   5.295   2.368 -0.1954 -1.4854  0.9410
74872SOL    HW236596   6.701   5.390   2.411 -2.2417  1.6473 -0.4078
74873SOL     OW36597  12.685  10.816   8.396 -0.0916  0.1910  0.2022
74873SOL    HW136598  12.607  10.868   8.414 -0.0239 -0.5535  3.1207
74873SOL    HW236599  12.759  10.874   8.415  0.0160 -0.0639  0.5802
74874SOL     OW36600   3.341  10.517   6.316  0.2668 -0.5237  0.3997
74874SOL    HW136601   3.279  10.450   6.287 -1.5727  0.4179  1.8975
74874SOL    HW236602   3.307  10.546   6.400  0.4576  2.9025 -0.5433
74875SOL     OW36603   3.992   0.131  10.593 -0.1388 -0.5598 -0.6944
74875SOL    HW136604   4.075   0.130  10.640 -0.6078 -2.5574  0.2121
74875SOL    HW236605   4.016   0.137  10.501  0.9291  0.4931 -0.3629
74876SOL     OW36606  12.008   2.938   8.349  0.8921  0.5274 -0.6429
74876SOL    HW136607  11.984   2.901   8.264 -0.5387  0.2394 -0.1514
74876SOL    HW236608  11.928   2.982   8.379  0.3024 -1.8784  1.8363
74877SOL     OW36609  12.892   5.542   5.243 -0.1601  0.5236 -0.0408
74877SOL    HW136610  12.897   5.628   5.200  0.3706  1.2944  1.4676
74877SOL    HW236611  12.893   5.562   5.336 -2.0336 -1.0509  0.3824
74878SOL     OW36612   7.514   3.521   5.590 -0.5224 -0.2774  0.3193
74878SOL    HW136613   7.560   3.590   5.638 -1.5005 -0.0681  0.9936
74878SOL    HW236614   7.538   3.536   5.498  1.1288 -0.5032  0.6884
74879SOL     OW36615   3.069  13.306   9.679  0.5617  0.7834  0.5063
74879SOL    HW136616   3.110  13.374   9.625 -0.6504 -0.6983 -2.5024
74879SOL    HW236617   3.108  13.225   9.649  0.2059 -0.1163  2.3183
74880SOL     OW36618   7.093   5.029   2.635  0.2627  0.8080  0.2473
74880SOL    HW136619   7.081   5.111   2.587  0.0236  0.2796 -0.6251
74880SOL    HW236620   7.013   5.020   2.688  0.0104  0.8445 -0.1223
74881SOL     OW36621   7.614   2.560   6.396  0.6685 -0.1096 -0.4120
74881SOL    HW136622   7.611   2.625   6.467 -0.4566  1.8489 -2.1291
74881SOL    HW236623   7.693   2.583   6.346 -0.7862  1.3501 -2.1838
74882SOL     OW36624   1.145   6.070   6.531  0.7333 -0.3733 -0.1930
74882SOL    HW136625   1.067   6.016   6.541  0.9280 -0.2124  2.9331
74882SOL    HW236626   1.215   6.020   6.573  1.3878  1.2703  0.7651
74883SOL     OW36627   9.416   8.878   1.756 -0.4446 -0.5223  0.1512
74883SOL    HW136628   9.381   8.885   1.845  2.5437 -0.8254  1.4704
74883SOL    HW236629   9.477   8.952   1.749  1.0891 -1.8235 -0.7708
74884SOL     OW36630  13.717   1.696  10.762  0.4891 -0.3258 -0.9651
74884SOL    HW136631  13.721   1.789  10.741 -2.2445 -0.5473 -3.0398
74884SOL    HW236632  13.788   1.656  10.712  0.9626  0.5118 -0.9625
74885SOL     OW36633   0.625   6.593   8.956  0.4169  0.0492  0.3332
74885SOL    HW136634   0.605   6.681   8.986  0.1105  0.0743  0.0647
74885SOL    HW236635   0.540   6.557   8.928  0.2360 -0.9746  2.0661
74886SOL     OW36636   7.257   0.492   3.052  0.1355  0.4444  0.0902
74886SOL    HW136637   7.251   0.566   2.991  3.0531  1.5578  0.9775
74886SOL    HW236638   7.300   0.528   3.129  1.0326 -2.0393  0.8384
74887SOL     OW36639  13.201   5.961   5.743  0.3414  0.6082 -0.6846
74887SOL    HW136640  13.296   5.951   5.730  0.2452  0.6533 -1.4319
74887SOL    HW236641  13.163   5.883   5.703  0.0039  1.0357 -1.2144
74888SOL     OW36642   0.144  10.961   8.285 -0.1329 -0.4961 -0.3328
74888SOL    HW136643   0.204  10.916   8.345 -1.5505 -2.5031 -0.3000
74888SOL    HW236644   0.108  10.891   8.231  0.7826  1.2007 -3.3403
74889SOL     OW36645  10.412   2.648   9.464  0.5964  0.3173 -0.1987
74889SOL    HW136646  10.501   2.681   9.451  0.1615  1.9542  0.7010
74889SOL    HW236647  10.388   2.610   9.379  1.6204  1.1855 -0.9102
74890SOL     OW36648  10.986  13.993   5.838 -0.2408 -0.4382  0.2549
74890SOL    HW136649  10.900  13.951   5.846 -0.9553  1.2270  2.2101
74890SOL    HW236650  11.011  14.014   5.928  1.5495  0.4376 -0.3966
74891SOL     OW36651   2.390   7.176  11.386 -0.0436 -0.2705 -0.3449
74891SOL    HW136652   2.474   7.218  11.399 -0.1560  0.8550 -2.6712
74891SOL    HW236653   2.326   7.234  11.427  0.1810 -0.4368  0.2446
74892SOL     OW36654   9.051   6.292   8.652  0.3158 -0.1063  0.2882
74892SOL    HW136655   8.996   6.271   8.728  0.2458 -2.7225 -0.3699
74892SOL    HW236656   8.991   6.331   8.589 -0.2647 -0.5871  0.5299
74893SOL     OW36657   5.835   3.474  13.573  0.1271  0.1867  0.0871
74893SOL    HW136658   5.909   3.459  13.631 -0.0300  0.0614  0.2583
74893SOL    HW236659   5.787   3.546  13.613  0.7472  0.9955 -0.6051
74894SOL     OW36660   8.373  10.848   3.692  0.4664 -0.1247  0.2670
74894SOL    HW136661   8.293  10.802   3.718  0.3391 -0.6745 -1.0559
74894SOL    HW236662   8.342  10.932   3.658  0.6029  0.4128  1.4186
74895SOL     OW36663   2.974  10.798   1.155 -1.0114 -0.3326  0.3318
74895SOL    HW136664   2.969  10.749   1.073 -1.6314  2.3529 -1.3769
74895SOL    HW236665   3.067  10.817   1.167 -0.7268 -2.0433  1.1733
74896SOL     OW36666  13.131  11.535   9.962 -0.2454  0.1880 -0.0257
74896SOL    HW136667  13.109  11.468   9.896  0.8369  0.2092 -0.4295
74896SOL    HW236668  13.226  11.528   9.972 -0.4489 -0.1625  1.9352
74897SOL     OW36669   4.950   5.766  12.269 -0.2474 -0.3212  0.4433
74897SOL    HW136670   5.036   5.740  12.302  0.8894  2.3380 -0.2582
74897SOL    HW236671   4.892   5.755  12.345  1.1068 -0.1416  1.5447
74898SOL     OW36672  13.186  12.295   0.224 -0.1612  0.0710  0.8095
74898SOL    HW136673  13.233  12.368   0.265  1.5701 -1.0813  0.9967
74898SOL    HW236674  13.254  12.246   0.178 -1.5427 -0.5487 -0.6572
74899SOL     OW36675  10.154   4.440  10.485  0.2070 -0.1799  0.2436
74899SOL    HW136676  10.128   4.382  10.556 -0.7028 -0.8137 -0.5891
74899SOL    HW236677  10.095   4.418  10.413 -0.1463  1.7527 -0.1097
74900SOL     OW36678  13.437   4.281   3.234 -0.4723  0.9740  0.2162
74900SOL    HW136679  13.367   4.251   3.291 -0.9486  0.2670 -0.6954
74900SOL    HW236680  13.514   4.232   3.263 -1.0602 -0.5863 -0.7209
74901SOL     OW36681   9.928   2.964   3.276 -0.0064  0.4867 -0.7405
74901SOL    HW136682  10.007   3.007   3.246 -0.0108  0.0391 -1.4243
74901SOL    HW236683   9.898   2.913   3.201 -1.5322  1.4701 -0.8580
74902SOL     OW36684  10.713   1.878   8.430  0.1474  0.4334  0.0634
74902SOL    HW136685  10.707   1.791   8.469 -0.9129 -0.6774 -2.3624
74902SOL    HW236686  10.699   1.863   8.336  1.5110  3.0453 -0.6415
74903SOL     OW36687  10.651   0.268   3.436 -0.4898  0.2346 -0.4362
74903SOL    HW136688  10.572   0.244   3.387 -1.2097 -0.8256  1.1360
74903SOL    HW236689  10.723   0.240   3.380 -1.2312  0.5511 -1.5847
74904SOL     OW36690   0.059   5.318   8.489  0.7819 -0.5288  0.4800
74904SOL    HW136691   0.011   5.260   8.549  0.1082  0.2759  0.7374
74904SOL    HW236692   0.061   5.270   8.406  1.6965 -1.6456  1.1054
74905SOL     OW36693   6.988   0.787   9.766 -0.3021  0.0311 -0.2116
74905SOL    HW136694   7.033   0.774   9.850 -0.8032  2.0098  0.4141
74905SOL    HW236695   6.940   0.705   9.752 -1.1591  0.0625  2.0536
74906SOL     OW36696   9.863   3.273  11.121 -0.1445 -0.3672  0.4030
74906SOL    HW136697   9.958   3.271  11.108 -0.1628  1.0500 -0.1240
74906SOL    HW236698   9.841   3.366  11.124 -1.4655 -0.6710  0.9943
74907SOL     OW36699  11.800   6.608   6.103 -0.0217 -0.3473 -0.0308
74907SOL    HW136700  11.838   6.689   6.135 -1.1278 -0.5812  2.0133
74907SOL    HW236701  11.868   6.569   6.049  1.8787  0.2212  1.8429
74908SOL     OW36702   3.464   3.787   5.687  0.0071 -0.2292 -0.2421
74908SOL    HW136703   3.409   3.724   5.640 -1.9853  0.8921  0.4834
74908SOL    HW236704   3.426   3.872   5.665  2.0142  0.6744 -0.3913
74909SOL     OW36705  12.002   2.948   2.576 -0.4380  0.3951 -0.4663
74909SOL    HW136706  11.909   2.944   2.556 -0.1858 -1.5379 -1.6314
74909SOL    HW236707  12.043   2.893   2.508  1.3616 -0.1382  0.9610
74910SOL     OW36708  10.711   4.695   5.965 -0.0839  0.0915 -0.2683
74910SOL    HW136709  10.621   4.665   5.975 -0.3548  1.3703  1.3959
74910SOL    HW236710  10.705   4.790   5.964  1.3159  0.2203  0.7764
74911SOL     OW36711   7.218   4.533   1.077  0.0414  0.4738 -0.0284
74911SOL    HW136712   7.261   4.605   1.124  2.6322 -1.5376  0.8864
74911SOL    HW236713   7.220   4.460   1.138 -0.8777 -0.9017 -1.5701
74912SOL     OW36714   2.822   9.179  13.725 -0.1398 -0.2913 -0.1046
74912SOL    HW136715   2.896   9.232  13.755 -0.3023  0.1290 -0.4384
74912SOL    HW236716   2.778   9.152  13.805 -1.8242  2.5757  0.0537
74913SOL     OW36717  12.032  11.950   2.274  0.1255  0.3255 -0.4023
74913SOL    HW136718  12.084  11.898   2.213  1.4950  0.3447  0.7119
74913SOL    HW236719  11.965  11.889   2.306 -0.3083  0.1852 -1.5169
74914SOL     OW36720   6.731  12.627  11.905  0.0312 -0.1649  0.6428
74914SOL    HW136721   6.814  12.583  11.890  0.9739  1.4846  0.7297
74914SOL    HW236722   6.747  12.685  11.980 -0.7010  1.3201 -0.2950
74915SOL     OW36723   5.500   8.210  12.843 -0.0890 -0.5764 -0.1219
74915SOL    HW136724   5.512   8.122  12.809 -1.6300 -2.1653  2.9850
74915SOL    HW236725   5.408   8.230  12.825 -0.2620 -0.4344  0.8889
74916SOL     OW36726   8.417   7.857   6.268 -0.7416  0.1170 -0.2018
74916SOL    HW136727   8.411   7.809   6.186  0.1925  1.5093 -1.1277
74916SOL    HW236728   8.487   7.921   6.254 -0.5982  0.4278  1.6620
74917SOL     OW36729   1.773   7.094   2.824  0.3857  0.1806  0.2416
74917SOL    HW136730   1.824   7.111   2.745  0.1536  1.1305  0.2771
74917SOL    HW236731   1.710   7.027   2.798  0.0921  0.7227 -0.4926
74918SOL     OW36732   8.494  11.721   4.601  0.5911 -0.4958  0.3199
74918SOL    HW136733   8.511  11.651   4.663  1.0596 -0.7485 -0.0897
74918SOL    HW236734   8.553  11.792   4.627 -1.5210  0.6973  2.2077
74919SOL     OW36735   1.030  10.722   7.764 -0.2153 -0.3794  0.4977
74919SOL    HW136736   1.031  10.808   7.805 -2.1850  0.6178 -1.3358
74919SOL    HW236737   0.985  10.665   7.827 -0.5162  0.3721  0.9724
74920SOL     OW36738   6.544   6.535  11.557 -0.0416  0.2767 -0.0584
74920SOL    HW136739   6.594   6.530  11.476 -1.3762  2.5517 -1.1229
74920SOL    HW236740   6.453   6.535  11.529 -0.5570  0.3104  1.5115
74921SOL     OW36741  10.007   3.976   5.949 -0.4184  0.5853 -0.7481
74921SOL    HW136742  10.099   3.967   5.926  0.2253  3.0124  0.5362
74921SOL    HW236743   9.962   3.910   5.896  2.0590 -0.8710 -1.1745
74922SOL     OW36744   8.778  10.009  10.569  0.2537  0.0698 -0.1894
74922SOL    HW136745   8.697   9.968  10.600 -0.1566  1.1892  0.2839
74922SOL    HW236746   8.754  10.101  10.555  1.2033  0.2133 -0.9721
74923SOL     OW36747   6.097   1.610   7.264  0.5162  0.6345  0.3706
74923SOL    HW136748   6.067   1.634   7.176  2.8350  0.9195 -0.3948
74923SOL    HW236749   6.101   1.693   7.311 -0.8771  0.4646  0.8544
74924SOL     OW36750  13.382  13.676   4.963  0.5370  0.4145 -0.2944
74924SOL    HW136751  13.305  13.673   4.906  1.0596 -1.7799 -1.0023
74924SOL    HW236752  13.381  13.763   5.001 -2.0421  0.5983 -0.6184
74925SOL     OW36753  12.130   9.274   0.072  0.2070  0.5379 -0.1029
74925SOL    HW136754  12.037   9.299   0.065 -0.8880 -3.0810 -0.6809
74925SOL    HW236755  12.133   9.220   0.151  1.2090 -1.4621 -1.4336
74926SOL     OW36756   8.868  11.213   4.649 -0.2853  0.3786  0.5747
74926SOL    HW136757   8.862  11.263   4.731 -2.5464  1.2159 -0.0394
74926SOL    HW236758   8.948  11.245   4.608 -0.2246  1.4904  1.4965
74927SOL     OW36759   0.273   7.439   5.250 -0.6385  0.2558 -0.2904
74927SOL    HW136760   0.324   7.474   5.323  0.9488 -3.2083  0.4626
74927SOL    HW236761   0.326   7.456   5.173 -0.2940  0.2414 -0.0575
74928SOL     OW36762  10.999   5.782   9.581 -0.1942  0.3738  0.7618
74928SOL    HW136763  10.924   5.724   9.567 -0.4992  0.9534 -0.1095
74928SOL    HW236764  11.070   5.724   9.607 -0.5530 -0.3756  0.1175
74929SOL     OW36765   2.567  13.533   4.862  0.2316 -0.0968 -0.2970
74929SOL    HW136766   2.567  13.497   4.951  3.4627 -3.8342 -1.4833
74929SOL    HW236767   2.515  13.471   4.811  2.8071 -1.2580 -1.7675
74930SOL     OW36768   4.780   1.480  13.668 -0.3014  0.5747 -0.1116
74930SOL    HW136769   4.786   1.406  13.608 -0.3267  1.2875 -1.0231
74930SOL    HW236770   4.744   1.551  13.615 -0.6001  1.1466  0.8300
74931SOL     OW36771   9.208  11.934   3.335 -0.2478 -0.7934  0.2390
74931SOL    HW136772   9.226  11.927   3.428 -1.1494  1.1798  0.6290
74931SOL    HW236773   9.284  11.980   3.299 -0.9492  0.6068  0.4779
74932SOL     OW36774   1.961   0.459   8.225 -0.2717  0.5908 -0.3254
74932SOL    HW136775   2.056   0.450   8.226 -0.3871 -0.8939 -0.7628
74932SOL    HW236776   1.945   0.547   8.260  1.2874  1.1827 -0.9976
74933SOL     OW36777   4.603   5.465  13.649 -0.6622  0.2666  0.4043
74933SOL    HW136778   4.523   5.413  13.658 -0.0049 -0.8653 -0.0892
74933SOL    HW236779   4.633   5.476  13.739 -0.9297 -0.0248  0.5358
74934SOL     OW36780  10.992  12.834   7.305  0.0701  0.4997  0.2978
74934SOL    HW136781  11.084  12.863   7.304  0.0684  0.6535  1.8870
74934SOL    HW236782  10.992  12.758   7.363 -0.7471  0.2583 -0.0128
74935SOL     OW36783  10.158   5.540   1.695 -0.6176  0.0926 -0.3984
74935SOL    HW136784  10.187   5.451   1.672 -0.2506  0.1319 -0.0917
74935SOL    HW236785  10.078   5.526   1.746 -1.9159  0.0327 -2.3646
74936SOL     OW36786  12.570   8.868   4.219  0.0803  0.1363 -0.2780
74936SOL    HW136787  12.567   8.944   4.161  1.1802  0.6731  0.3512
74936SOL    HW236788  12.495   8.879   4.277  0.1170  0.6358 -0.3201
74937SOL     OW36789   3.559   4.902   4.127  0.5405  0.4535 -0.1029
74937SOL    HW136790   3.490   4.927   4.066 -0.4476  0.6796  1.0662
74937SOL    HW236791   3.550   4.963   4.200  1.1272 -0.3477  0.6621
74938SOL     OW36792   4.362   8.833  13.978  0.4134  0.1778  0.3530
74938SOL    HW136793   4.343   8.921  14.011  0.5536  0.0653  0.7366
74938SOL    HW236794   4.296   8.818  13.910 -1.6817 -0.6719  2.4495
74939SOL     OW36795   5.240   6.762  10.693 -0.3113  0.1332  0.9708
74939SOL    HW136796   5.287   6.728  10.617 -0.1772 -0.8238  1.4601
74939SOL    HW236797   5.309   6.779  10.757 -0.3619  1.5178  0.6764
74940SOL     OW36798   6.875   2.089  12.675  0.1667 -0.2211 -0.5470
74940SOL    HW136799   6.824   2.169  12.686  1.3496  0.5607 -0.5818
74940SOL    HW236800   6.931   2.107  12.599  0.0149 -1.3215 -0.9413
74941SOL     OW36801   6.185   8.485  13.823 -0.7283  0.3196  0.0748
74941SOL    HW136802   6.130   8.559  13.799 -0.8497 -0.0201 -0.7478
74941SOL    HW236803   6.163   8.466  13.914  0.8653  2.6609  1.0438
74942SOL     OW36804   7.519  10.021   5.278  0.0549 -0.3891  0.0246
74942SOL    HW136805   7.468   9.963   5.335 -1.7027  1.4612  0.4620
74942SOL    HW236806   7.610  10.003   5.301 -0.5149 -1.4253  1.6753
74943SOL     OW36807  10.133   3.436  12.543  0.5591 -0.2658  0.0255
74943SOL    HW136808  10.094   3.360  12.501 -1.0667  0.1635  0.6744
74943SOL    HW236809  10.163   3.491  12.470 -1.4882  0.1015 -0.6169
74944SOL     OW36810   9.621   1.792   7.656 -0.3993 -0.1538  0.0487
74944SOL    HW136811   9.590   1.877   7.624  0.9101 -0.1687 -1.3482
74944SOL    HW236812   9.647   1.745   7.577  2.1237 -0.5445  1.0333
74945SOL     OW36813  13.262  10.453   5.357  0.1930  0.1994  0.0004
74945SOL    HW136814  13.337  10.395   5.344  0.1827  0.0813  0.4692
74945SOL    HW236815  13.262  10.509   5.279  2.6942  2.3593  1.4114
74946SOL     OW36816   4.021  12.890   9.194 -0.1678 -0.1038  0.7773
74946SOL    HW136817   3.984  12.969   9.154  1.0566  0.4786  0.7618
74946SOL    HW236818   3.983  12.818   9.143  0.3396  0.5699 -0.6130
74947SOL     OW36819  11.136   1.574   2.082  0.2294  0.0341 -0.2143
74947SOL    HW136820  11.219   1.609   2.115  1.6511 -1.4866 -1.9540
74947SOL    HW236821  11.100   1.645   2.028  0.5135  0.6109  0.3407
74948SOL     OW36822   9.851   7.011   2.037 -0.0365 -0.2626  0.2799
74948SOL    HW136823   9.766   7.036   2.073 -1.3765 -0.3525 -2.5218
74948SOL    HW236824   9.906   7.088   2.049 -1.5649  1.0537 -0.7773
74949SOL     OW36825   6.418   3.249   5.387  0.1068  0.1380  0.6705
74949SOL    HW136826   6.465   3.261   5.304 -0.4404 -1.1436  0.1359
74949SOL    HW236827   6.438   3.158   5.411 -0.8767  0.0639  1.2120
74950SOL     OW36828   7.255   5.068   1.454 -1.0062  0.0527 -0.2701
74950SOL    HW136829   7.221   5.014   1.382 -3.3190  1.1202 -0.0782
74950SOL    HW236830   7.281   5.150   1.412  0.0132 -0.2330 -0.2095
74951SOL     OW36831   0.391  11.347  12.462 -0.0459  0.3665  0.1292
74951SOL    HW136832   0.312  11.391  12.429  0.1079  0.5095 -0.0520
74951SOL    HW236833   0.363  11.307  12.545 -0.3018  0.4368  0.0789
74952SOL     OW36834  11.666   0.885   1.241 -0.3513  0.6320 -0.2397
74952SOL    HW136835  11.728   0.831   1.290 -0.7128  0.5389  0.1313
74952SOL    HW236836  11.672   0.972   1.283 -0.7008  0.5377  0.0135
74953SOL     OW36837   0.235  11.815   0.045  0.6667  0.1233  0.6625
74953SOL    HW136838   0.231  11.909   0.061  1.4575  0.2585  0.0786
74953SOL    HW236839   0.275  11.779   0.124 -1.3399  0.0349  1.7056
74954SOL     OW36840  11.114   4.408   9.908 -0.0537  0.2902 -0.1875
74954SOL    HW136841  11.112   4.475   9.840  0.0416  0.2613 -0.2189
74954SOL    HW236842  11.150   4.454   9.985 -1.4382  0.6954  0.2528
74955SOL     OW36843  13.724   8.008  13.973  0.1422  0.2988 -0.2939
74955SOL    HW136844  13.807   8.055  13.977  0.2551  0.0136  1.3748
74955SOL    HW236845  13.712   7.973  14.061 -0.8142 -1.2953 -1.0189
74956SOL     OW36846  11.577  10.950  10.070  0.4044  0.0295 -0.1819
74956SOL    HW136847  11.630  10.987   9.999  1.0787  0.7841  0.6809
74956SOL    HW236848  11.615  10.864  10.086 -0.7865 -0.8403 -1.7988
74957SOL     OW36849   1.642   0.775   7.281  0.0810 -0.0012 -0.2691
74957SOL    HW136850   1.644   0.843   7.348 -1.2047  0.1528 -0.3673
74957SOL    HW236851   1.720   0.792   7.228 -0.2039  1.3923 -0.2788
74958SOL     OW36852   0.171  13.856   6.982 -0.9115 -0.0556 -0.1519
74958SOL    HW136853   0.113  13.892   7.049  1.0040  0.3406  1.3778
74958SOL    HW236854   0.242  13.921   6.974  0.1623 -1.2562 -0.7807
74959SOL     OW36855   8.927   4.961   1.479  0.3257  0.1253  0.0367
74959SOL    HW136856   8.839   4.924   1.477 -0.1569  1.1519  1.1323
74959SOL    HW236857   8.984   4.885   1.490 -0.6199 -0.3963  1.8522
74960SOL     OW36858   5.035  11.667   2.369  0.0863  0.4413  0.0275
74960SOL    HW136859   5.073  11.611   2.301 -2.2379  0.1922 -1.1626
74960SOL    HW236860   5.058  11.756   2.342  1.9272  0.2451  0.7498
74961SOL     OW36861   2.073   8.578  10.831  0.5911  0.0836 -0.2366
74961SOL    HW136862   2.034   8.495  10.859  0.6888 -0.3365 -1.2815
74961SOL    HW236863   2.104   8.561  10.742 -0.3324  1.5433 -0.8811
74962SOL     OW36864  10.730   4.125   4.493 -0.1416  0.2318  0.4383
74962SOL    HW136865  10.662   4.080   4.543 -0.6667 -0.1232 -0.5688
74962SOL    HW236866  10.683   4.168   4.421  0.6263  0.4888  0.0787
74963SOL     OW36867  12.809  12.229   6.985 -0.0134  0.2073 -0.2502
74963SOL    HW136868  12.774  12.232   7.074 -0.4268  1.3314 -0.4416
74963SOL    HW236869  12.885  12.172   6.992  0.7902  1.3891  1.1185
74964SOL     OW36870   3.059   4.350  11.637 -0.3468 -0.4705 -0.2011
74964SOL    HW136871   3.084   4.300  11.714  0.1868 -0.2843 -0.2501
74964SOL    HW236872   3.123   4.325  11.570 -1.5268 -1.5542 -0.9648
74965SOL     OW36873   7.052   3.092  13.638 -0.2263 -0.6199  0.6809
74965SOL    HW136874   7.027   3.017  13.584  0.1660 -1.0069  1.0370
74965SOL    HW236875   7.147   3.091  13.640 -0.2068  0.1075  0.3845
74966SOL     OW36876   0.955  12.238   6.650 -0.1098 -0.0648 -0.8151
74966SOL    HW136877   0.973  12.325   6.684  0.8930 -0.8048  0.6713
74966SOL    HW236878   0.908  12.194   6.721  0.2645 -1.0334 -1.1530
74967SOL     OW36879   2.826   5.260   5.421 -0.3666 -0.3938 -0.4709
74967SOL    HW136880   2.842   5.248   5.328 -1.0033  1.0480 -0.8024
74967SOL    HW236881   2.753   5.201   5.441 -1.6096  0.7579 -1.3915
74968SOL     OW36882   4.185   1.389  11.011  0.3428 -0.2709  0.8720
74968SOL    HW136883   4.166   1.327  10.941 -3.1977  0.6774  0.8002
74968SOL    HW236884   4.220   1.466  10.966 -1.0658  0.0020  0.1774
74969SOL     OW36885  13.780   8.575   6.748  0.3167  0.1153 -0.6304
74969SOL    HW136886  13.759   8.615   6.833 -3.4568 -1.2565 -0.7274
74969SOL    HW236887  13.767   8.645   6.684 -0.1205  0.3191 -0.3220
74970SOL     OW36888   5.691  11.800  10.317  0.3350  0.1633 -0.3094
74970SOL    HW136889   5.603  11.773  10.294  0.1121 -0.7859  1.4587
74970SOL    HW236890   5.707  11.879  10.265 -1.5706  0.3836 -0.6031
74971SOL     OW36891  10.066   6.544   4.814  0.0352 -0.2670  0.3404
74971SOL    HW136892  10.139   6.551   4.876  0.4264 -1.0434 -0.0275
74971SOL    HW236893  10.082   6.614   4.750  0.0745  0.0125  0.6543
74972SOL     OW36894  10.992   0.307   9.169 -0.1781 -0.1423 -0.7068
74972SOL    HW136895  10.984   0.267   9.255  0.0788 -0.3402 -0.7755
74972SOL    HW236896  10.902   0.331   9.146 -0.4071 -1.1174 -0.8737
74973SOL     OW36897   5.579  13.498   6.274  0.1680 -0.7537  0.0465
74973SOL    HW136898   5.563  13.441   6.349 -0.3245 -0.4076  0.2129
74973SOL    HW236899   5.505  13.481   6.215 -1.3467  1.4128  1.1583
74974SOL     OW36900  11.016  11.623  10.523 -0.2445 -1.2813  1.0455
74974SOL    HW136901  11.090  11.571  10.491 -1.4925 -1.5549 -1.6825
74974SOL    HW236902  11.032  11.711  10.490 -0.4205 -0.9935  1.7115
74975SOL     OW36903  12.778  12.061   7.434 -0.3039 -0.3612  0.2786
74975SOL    HW136904  12.869  12.072   7.407 -0.5790  0.0477 -0.5119
74975SOL    HW236905  12.749  12.148   7.462 -0.6411 -0.3458 -0.1000
74976SOL     OW36906   1.235   8.641   7.136 -0.0420 -0.0021  0.1995
74976SOL    HW136907   1.192   8.583   7.073 -1.5721 -1.4497  2.4205
74976SOL    HW236908   1.205   8.728   7.112 -0.3311 -0.4658 -1.2338
74977SOL     OW36909  12.264   0.410  13.433  0.2276 -0.2654 -0.1437
74977SOL    HW136910  12.270   0.315  13.437  0.9941 -0.2425 -0.5175
74977SOL    HW236911  12.343   0.437  13.385 -1.4164  0.3381 -2.7258
74978SOL     OW36912   8.286   2.054   7.938 -0.7884  0.3278  0.1044
74978SOL    HW136913   8.328   1.970   7.951  0.0654  0.5996 -0.7740
74978SOL    HW236914   8.275   2.062   7.843  1.9237  2.4640 -0.1545
74979SOL     OW36915  13.219   2.660   0.819  0.4388  0.1141 -0.1473
74979SOL    HW136916  13.166   2.606   0.760  0.8600 -1.4061  0.7913
74979SOL    HW236917  13.276   2.710   0.761  1.7641 -2.3137 -1.0790
74980SOL     OW36918   7.144  11.995   9.229 -0.0189  0.7898 -0.2027
74980SOL    HW136919   7.229  11.987   9.185  0.1510  0.8427  0.1134
74980SOL    HW236920   7.085  11.940   9.178  0.6475 -0.8602  0.7261
74981SOL     OW36921  12.842   5.662   2.531  0.3178 -0.5104  0.3435
74981SOL    HW136922  12.747   5.659   2.545  0.1789 -0.7137 -0.6281
74981SOL    HW236923  12.855   5.630   2.442  1.2566  0.0619  0.2621
74982SOL     OW36924   9.995   9.898   5.679 -0.4748 -0.0564  0.9102
74982SOL    HW136925   9.910   9.932   5.707 -0.1793 -0.4387  2.3257
74982SOL    HW236926  10.058   9.936   5.740  0.2677 -0.4519  0.4081
74983SOL     OW36927  11.804   9.396   0.342  0.9087  0.0242 -0.6688
74983SOL    HW136928  11.849   9.478   0.323 -1.0053  1.1358 -0.7307
74983SOL    HW236929  11.775   9.364   0.256  0.7083 -0.1267 -0.5473
74984SOL     OW36930   1.177  10.350   9.792 -0.0475 -0.1098 -0.2353
74984SOL    HW136931   1.269  10.356   9.817  0.0649 -1.2160 -0.3178
74984SOL    HW236932   1.180  10.316   9.702 -0.5325  0.1793 -0.3617
74985SOL     OW36933  11.438   7.597  11.719  0.6503  0.7665 -0.6380
74985SOL    HW136934  11.519   7.600  11.770 -0.7108  1.0176  1.6642
74985SOL    HW236935  11.424   7.504  11.701 -0.2731  0.3163  2.0299
74986SOL     OW36936   9.947  10.184  11.359 -0.5989  0.3730 -0.2800
74986SOL    HW136937  10.030  10.141  11.341 -0.1977  0.9122  0.2237
74986SOL    HW236938   9.957  10.272  11.322  1.8193  3.0925  5.4285
74987SOL     OW36939   1.261   5.591   2.607  0.1241  0.6680 -0.3837
74987SOL    HW136940   1.204   5.655   2.650  1.7664  1.1329  1.2442
74987SOL    HW236941   1.296   5.538   2.679  3.2684  1.7131 -0.9968
74988SOL     OW36942  13.971  12.218   3.051 -0.7405 -0.2042  0.0117
74988SOL    HW136943  13.891  12.270   3.058  0.2793  1.9945 -2.8044
74988SOL    HW236944  13.945  12.142   3.000 -1.2214  0.1085 -0.2247
74989SOL     OW36945  13.768   7.337  10.437  0.2576 -0.0103 -0.6031
74989SOL    HW136946  13.691   7.294  10.400  1.2474 -0.7670 -1.8825
74989SOL    HW236947  13.842   7.293  10.396  1.3618  1.2536 -0.0486
74990SOL     OW36948  13.831   2.623  10.806 -0.2932  0.3486 -0.2359
74990SOL    HW136949  13.785   2.640  10.887  1.1763 -1.4397  1.0575
74990SOL    HW236950  13.924   2.636  10.827  0.1486 -0.4840 -1.5100
74991SOL     OW36951   3.895  10.179   4.873  0.3533 -0.0356 -0.4555
74991SOL    HW136952   3.834  10.109   4.896  0.6863 -0.4534 -0.8189
74991SOL    HW236953   3.845  10.260   4.882 -0.1592 -0.3522 -0.4549
74992SOL     OW36954  11.529   8.576  13.579 -0.1642  0.1457 -0.4403
74992SOL    HW136955  11.601   8.620  13.625 -0.4272 -0.3075  0.4305
74992SOL    HW236956  11.567   8.492  13.553 -0.4721 -0.2398  0.3299
74993SOL     OW36957  12.869   7.167   9.767  0.0613 -0.4097  0.1636
74993SOL    HW136958  12.875   7.250   9.720  0.1523 -0.3300  0.3138
74993SOL    HW236959  12.775   7.148   9.772  0.0902 -0.9287 -0.9260
74994SOL     OW36960   5.498   2.090  12.035 -0.0840 -0.2515 -0.1277
74994SOL    HW136961   5.495   2.001  12.000 -3.4280 -1.2603  2.3019
74994SOL    HW236962   5.555   2.084  12.112 -0.5635 -0.3842  0.2199
74995SOL     OW36963   0.084   2.436  11.316  0.6419 -0.0506 -0.5605
74995SOL    HW136964   0.150   2.427  11.248  1.1913 -1.0024  0.0704
74995SOL    HW236965   0.077   2.530  11.331  0.4381  0.1802 -1.9785
74996SOL     OW36966  11.580   3.804   0.024  0.1912  0.8303  0.3682
74996SOL    HW136967  11.580   3.740   0.095 -1.4747 -1.5906 -1.6268
74996SOL    HW236968  11.492   3.841   0.025 -0.7931 -1.1825 -1.9050
74997SOL     OW36969  12.443  13.940   5.415 -0.8114 -0.1176 -0.3990
74997SOL    HW136970  12.468  14.003   5.482 -1.6849 -1.7249  1.5268
74997SOL    HW236971  12.453  13.855   5.457 -1.4636 -1.1975 -2.3064
74998SOL     OW36972   9.700  11.021  13.557 -0.3377  0.0979  0.5593
74998SOL    HW136973   9.656  10.954  13.608 -1.9933  0.6553 -0.0829
74998SOL    HW236974   9.632  11.085  13.537  0.4274  0.3319 -1.5892
74999SOL     OW36975  11.586   8.121  10.191 -0.2932 -0.2681  0.6887
74999SOL    HW136976  11.506   8.174  10.202 -0.2835 -0.0830 -0.1010
74999SOL    HW236977  11.565   8.038  10.234 -0.5721  0.1146  1.3132
75000SOL     OW36978   5.951  13.549  10.755  0.4901 -0.1920 -0.0535
75000SOL    HW136979   6.027  13.503  10.790  1.0058  0.8275  0.2213
75000SOL    HW236980   5.970  13.642  10.771 -0.3370  0.1467 -0.9243
75001SOL     OW36981   9.533   2.133   4.760  0.1367 -0.2778  0.0096
75001SOL    HW136982   9.567   2.044   4.748  0.1387 -0.5319  1.6754
75001SOL    HW236983   9.596   2.175   4.819 -0.0720  0.7178 -0.4574
75002SOL     OW36984  10.023   0.236   5.278 -0.7165 -0.5107 -0.8297
75002SOL    HW136985  10.045   0.214   5.369 -0.9628  0.5342 -0.5028
75002SOL    HW236986  10.095   0.198   5.227 -0.1860 -0.4805 -0.1344
75003SOL     OW36987   9.399   1.251   2.691 -0.2592  0.2544 -0.0121
75003SOL    HW136988   9.331   1.309   2.656 -0.1659  2.6964  3.3644
75003SOL    HW236989   9.481   1.285   2.654 -0.5067 -0.2529 -1.0675
75004SOL     OW36990  10.549  12.534   2.123  0.4217 -0.0304 -0.1363
75004SOL    HW136991  10.496  12.454   2.118  1.5238 -0.9367  1.6251
75004SOL    HW236992  10.639  12.503   2.131  0.8271  1.3413  1.1214
75005SOL     OW36993   3.129  12.643  11.546  0.2381  0.0536 -0.2031
75005SOL    HW136994   3.078  12.716  11.513  1.0425  0.3466 -0.8558
75005SOL    HW236995   3.114  12.642  11.640  0.8070  1.5241 -0.0824
75006SOL     OW36996   0.742   4.554  10.260 -0.6923 -0.1476 -0.0144
75006SOL    HW136997   0.786   4.501  10.193  0.1692 -0.7699  1.0048
75006SOL    HW236998   0.653   4.567  10.226  0.1453  0.8935 -1.9956
75007SOL     OW36999  13.232  10.460   0.800 -0.1847  0.2029 -0.2944
75007SOL    HW137000  13.263  10.379   0.759 -0.7129  0.6099 -1.5376
75007SOL    HW237001  13.144  10.472   0.765  0.0592  1.5576 -0.5054
75008SOL     OW37002   9.337  13.259   6.261 -0.7442  0.2909  0.2491
75008SOL    HW137003   9.345  13.282   6.168  1.5118 -0.4699  0.1779
75008SOL    HW237004   9.245  13.237   6.273 -0.7944 -1.1751 -2.2069
75009SOL     OW37005  12.236   1.924   8.412  0.2862 -0.5879  0.1817
75009SOL    HW137006  12.302   1.992   8.396  0.2534 -0.2187  1.4484
75009SOL    HW237007  12.154   1.964   8.385  0.4036 -0.5029 -0.0477
75010SOL     OW37008   6.676   3.311   2.517 -0.2790  0.4987  0.7522
75010SOL    HW137009   6.687   3.252   2.592 -1.4037 -0.1936  0.3959
75010SOL    HW237010   6.588   3.346   2.526 -0.1677  0.9577  0.1341
75011SOL     OW37011   9.001   5.103   5.663 -0.0890  0.2155 -0.1847
75011SOL    HW137012   8.931   5.144   5.612 -0.5375 -0.4224 -0.0962
75011SOL    HW237013   9.039   5.175   5.713 -0.0329  0.7446 -0.9692
75012SOL     OW37014  11.660  12.824   9.577  0.3695  0.9426  0.3423
75012SOL    HW137015  11.731  12.768   9.608 -1.3273 -1.6515 -0.1459
75012SOL    HW237016  11.620  12.858   9.657  0.6148  0.3725  0.7153
75013SOL     OW37017   2.295   5.487   5.154  0.7856 -0.0890  0.6319
75013SOL    HW137018   2.262   5.398   5.168  1.3925 -0.7744 -1.8383
75013SOL    HW237019   2.382   5.475   5.116  0.2643  1.5087 -1.2294
75014SOL     OW37020   3.551   1.783  13.285  0.2868 -0.1226  0.7434
75014SOL    HW137021   3.585   1.694  13.296 -0.3476 -0.1971  2.5812
75014SOL    HW237022   3.493   1.796  13.361 -0.1419  1.6309  0.1762
75015SOL     OW37023   9.984   3.250   0.639 -0.0354 -0.0180 -0.3439
75015SOL    HW137024  10.035   3.220   0.715 -2.2079 -1.4510  0.6610
75015SOL    HW237025  10.048   3.254   0.568  2.3167  2.3139  1.6740
75016SOL     OW37026  10.642   1.694  11.519 -0.3750 -0.3506  0.2540
75016SOL    HW137027  10.600   1.771  11.480  0.3374 -0.9388 -1.8236
75016SOL    HW237028  10.582   1.622  11.501  0.3872 -0.7892 -0.6283
75017SOL     OW37029  13.244  12.651   4.542  0.2645  0.0156 -0.2191
75017SOL    HW137030  13.259  12.566   4.583  0.0108  0.8278  1.6445
75017SOL    HW237031  13.242  12.713   4.615  0.8587  1.6937 -1.5687
75018SOL     OW37032   5.108  11.951   1.660  0.0716 -0.5618  0.0900
75018SOL    HW137033   5.069  11.901   1.732  0.7545 -0.0764  0.8156
75018SOL    HW237034   5.059  11.924   1.583 -2.1030  0.4515  1.0309
75019SOL     OW37035   1.333  13.857  13.438 -0.6942  0.5819 -0.3850
75019SOL    HW137036   1.388  13.780  13.455 -0.0474  1.0096 -0.4785
75019SOL    HW237037   1.387  13.913  13.382 -1.6316  0.5569 -1.3489
75020SOL     OW37038  11.236  10.075   8.889 -0.7069  0.1769  0.0396
75020SOL    HW137039  11.189  10.116   8.816  1.1990  1.1942 -0.6717
75020SOL    HW237040  11.170  10.067   8.958 -1.8653  1.7880 -0.8210
75021SOL     OW37041   0.921   4.927   4.678 -0.2720 -0.0984  0.0828
75021SOL    HW137042   0.826   4.927   4.682 -0.3585  0.7794 -1.2488
75021SOL    HW237043   0.941   4.880   4.596  0.4353 -0.2165  0.3154
75022SOL     OW37044   6.452   1.572   8.985  0.2426  0.5912  0.2151
75022SOL    HW137045   6.526   1.629   8.964  0.8297 -0.0892  0.3863
75022SOL    HW237046   6.460   1.499   8.924 -0.0338  0.3066  0.5143
75023SOL     OW37047   6.166   4.200   7.403  0.4729  0.0497  0.8277
75023SOL    HW137048   6.165   4.143   7.480  4.1107  2.3763  2.9065
75023SOL    HW237049   6.114   4.276   7.429 -1.1672 -0.5704 -0.4642
75024SOL     OW37050   8.703   3.640  11.644  0.0944 -0.1040 -0.0068
75024SOL    HW137051   8.644   3.565  11.646 -1.4357  1.0253 -0.1791
75024SOL    HW237052   8.756   3.627  11.566  1.0087 -1.8040  0.8621
75025SOL     OW37053   3.961   4.631  13.678  0.0620  0.0627  0.1212
75025SOL    HW137054   3.933   4.664  13.764  1.2347  0.8684  0.2150
75025SOL    HW237055   4.047   4.670  13.664  0.6765 -1.4876 -0.6442
75026SOL     OW37056   3.892   1.026   3.270  0.6622  0.3122  0.5625
75026SOL    HW137057   3.919   0.938   3.298  0.7013  0.3958  0.7882
75026SOL    HW237058   3.957   1.084   3.309 -0.3893  0.6086  1.9382
75027SOL     OW37059   0.208   9.889   2.236 -0.6969  0.1133  0.3797
75027SOL    HW137060   0.198   9.916   2.327 -1.3988 -1.8606  0.9339
75027SOL    HW237061   0.297   9.855   2.231 -0.8378 -0.2668  0.4630
75028SOL     OW37062   4.874   1.781   8.521 -0.1155 -0.4102 -0.6400
75028SOL    HW137063   4.915   1.720   8.461  1.9797  2.4236 -2.3515
75028SOL    HW237064   4.894   1.747   8.608  2.4730 -1.3049 -1.4978
75029SOL     OW37065  14.032  11.528   5.821  0.8193 -0.0385 -0.2801
75029SOL    HW137066  14.049  11.594   5.754 -0.3657  1.1425  0.5311
75029SOL    HW237067  13.936  11.518   5.821  0.9143 -1.0428  0.2740
75030SOL     OW37068  13.928   8.941   7.285 -0.0462  0.4629 -0.1235
75030SOL    HW137069  14.013   8.980   7.268 -0.3211  0.7962 -0.7602
75030SOL    HW237070  13.885   9.001   7.345  0.5056 -0.1639  0.9312
75031SOL     OW37071   1.816   9.223   2.634 -0.5036  0.2090  0.5243
75031SOL    HW137072   1.762   9.144   2.630 -0.0618 -0.2708  2.7096
75031SOL    HW237073   1.781   9.272   2.709 -0.1255  1.6040 -0.1823
75032SOL     OW37074   1.051   7.143   9.282 -0.2423 -0.3335  0.3616
75032SOL    HW137075   0.967   7.122   9.241 -0.2822  0.7426 -0.1413
75032SOL    HW237076   1.112   7.078   9.245 -0.3966  0.2622 -1.0178
75033SOL     OW37077   5.073  10.702  13.906 -0.5178 -0.0780  0.0143
75033SOL    HW137078   5.147  10.648  13.878  0.9479  1.5404  0.6191
75033SOL    HW237079   5.080  10.782  13.854  0.6532  1.8233  2.8361
75034SOL     OW37080   9.299  11.752  10.055 -0.0227 -0.2104 -0.2612
75034SOL    HW137081   9.337  11.671  10.021 -0.9418 -0.9014  0.3083
75034SOL    HW237082   9.229  11.723  10.113 -0.7531  1.0098 -0.4984
75035SOL     OW37083   3.373   0.203   1.911 -0.1583 -0.3298  0.9722
75035SOL    HW137084   3.322   0.235   1.836 -0.1718 -0.1724  1.0482
75035SOL    HW237085   3.308   0.164   1.970 -0.1987 -0.0576  1.1057
75036SOL     OW37086   5.329  13.837   1.684  0.0095 -0.3853 -0.3161
75036SOL    HW137087   5.402  13.815   1.626  0.7859  0.4330  0.3098
75036SOL    HW237088   5.251  13.827   1.630  0.7815  1.7869 -2.0055
75037SOL     OW37089  11.139  10.915   5.994  0.1471  0.3693 -0.0917
75037SOL    HW137090  11.102  10.893   5.909 -1.6015 -0.0907  0.7406
75037SOL    HW237091  11.071  10.965   6.038  0.5066 -0.4500  1.4871
75038SOL     OW37092   3.717   1.280   7.278  0.5618  0.4465  1.0301
75038SOL    HW137093   3.794   1.295   7.224  0.8918 -0.9019  1.0849
75038SOL    HW237094   3.737   1.324   7.361  0.5531  1.5011  0.4910
75039SOL     OW37095   8.129   1.733   9.712 -0.1925  0.7361 -1.0929
75039SOL    HW137096   8.111   1.645   9.679 -2.6907  0.5985  0.3578
75039SOL    HW237097   8.113   1.790   9.636 -0.3636  0.0705 -1.5647
75040SOL     OW37098  12.157   2.266   1.094 -0.4595 -0.0865  0.3001
75040SOL    HW137099  12.144   2.354   1.058 -0.1336 -1.0232 -2.3305
75040SOL    HW237100  12.244   2.239   1.063 -1.4809 -2.1817 -0.9898
75041SOL     OW37101   0.454   0.209   2.708 -0.1168  0.1152 -0.0349
75041SOL    HW137102   0.480   0.301   2.701 -1.8361  0.8722  2.0470
75041SOL    HW237103   0.461   0.174   2.619 -0.8269  2.6850 -1.1908
75042SOL     OW37104   6.846   6.318  10.880  0.1595 -0.2810 -0.6422
75042SOL    HW137105   6.823   6.229  10.854 -0.8428  0.1733 -1.3775
75042SOL    HW237106   6.879   6.310  10.969  1.3692 -1.5670 -1.1759
75043SOL     OW37107   1.792   7.572   7.619  0.4610 -0.0134  0.2171
75043SOL    HW137108   1.816   7.663   7.602  2.3965 -0.2361  1.4924
75043SOL    HW237109   1.791   7.531   7.532  0.3256  1.0313 -0.2877
75044SOL     OW37110  11.406   0.118   5.972 -0.0698 -0.3324  0.4030
75044SOL    HW137111  11.376   0.053   6.035  2.6646 -1.0916  1.0708
75044SOL    HW237112  11.444   0.066   5.901 -0.6771  0.5421 -0.5840
75045SOL     OW37113  12.779   8.013  13.866  0.5491 -0.0056  0.1298
75045SOL    HW137114  12.870   7.993  13.890  0.7604 -1.0110 -1.3137
75045SOL    HW237115  12.777   8.000  13.771 -0.5815  2.2139 -0.2119
75046SOL     OW37116   0.686   2.547   2.793  0.2269  1.0175 -0.3230
75046SOL    HW137117   0.781   2.559   2.792  0.0451  2.9749  0.2518
75046SOL    HW237118   0.665   2.522   2.883  0.2564 -0.3428 -0.6734
75047SOL     OW37119   4.227  10.556   2.438  0.0405  0.7520  0.3546
75047SOL    HW137120   4.319  10.573   2.458  0.6445 -2.0985  0.3651
75047SOL    HW237121   4.221  10.566   2.343  0.5508  0.1375  0.2574
75048SOL     OW37122  11.665   6.389   0.265  0.0534 -0.4985 -0.6020
75048SOL    HW137123  11.592   6.358   0.211  0.5256 -0.4571 -1.2804
75048SOL    HW237124  11.660   6.485   0.257  0.3202 -0.5035 -0.8417
75049SOL     OW37125   1.901  11.231   1.068  0.2309 -0.1542  0.0280
75049SOL    HW137126   1.814  11.242   1.029 -0.3328 -0.1206  1.2325
75049SOL    HW237127   1.934  11.320   1.079  0.6946 -0.1864 -0.9830
75050SOL     OW37128   1.626   2.093   3.351 -0.4276 -0.3891  0.6193
75050SOL    HW137129   1.543   2.106   3.397  1.2720  1.6752  3.3680
75050SOL    HW237130   1.672   2.026   3.402  0.3425 -0.1934  0.1991
75051SOL     OW37131  13.096  11.355   4.634 -0.3877 -1.1040  0.1078
75051SOL    HW137132  13.024  11.414   4.612 -1.8651 -2.1673  1.8031
75051SOL    HW237133  13.053  11.270   4.648  1.3443 -2.0011  0.2273
75052SOL     OW37134   5.923   9.145   7.172 -0.1064  0.1243  0.1162
75052SOL    HW137135   5.878   9.183   7.247  1.9986 -0.1901  1.6350
75052SOL    HW237136   5.998   9.203   7.158  1.0444 -1.3287  0.0507
75053SOL     OW37137  10.186   8.983   0.799  0.3640  0.0871 -0.0928
75053SOL    HW137138  10.242   8.942   0.734  0.1707 -2.2426  1.1268
75053SOL    HW237139  10.097   8.960   0.773  0.1488  0.9117 -0.1300
75054SOL     OW37140  12.892   5.114   5.681 -0.4447 -0.1123  0.0522
75054SOL    HW137141  12.862   5.027   5.655 -0.5228 -0.2577  0.6168
75054SOL    HW237142  12.970   5.097   5.734  1.7738  0.3043 -2.7952
75055SOL     OW37143   3.897   8.348  12.956 -0.0519  0.2646  0.5449
75055SOL    HW137144   3.850   8.270  12.987  0.8947 -0.6985 -0.3245
75055SOL    HW237145   3.973   8.312  12.911 -0.4748  1.6378 -1.3664
75056SOL     OW37146   4.752  11.030   3.509  0.5097  0.4796  0.5362
75056SOL    HW137147   4.784  11.115   3.537 -0.0639  0.7999  0.2199
75056SOL    HW237148   4.810  11.005   3.437  1.1377  0.2654  1.1097
75057SOL     OW37149   6.144   6.334   2.516  0.2689  0.3545 -0.0322
75057SOL    HW137150   6.058   6.293   2.526 -1.1193  3.2196  0.8250
75057SOL    HW237151   6.164   6.322   2.423 -0.2090 -1.7785  0.0684
75058SOL     OW37152   2.703  12.523   6.384 -0.3551 -0.0602 -0.0634
75058SOL    HW137153   2.760  12.476   6.445 -0.3022 -0.2613 -0.2685
75058SOL    HW237154   2.749  12.606   6.368  0.7622 -0.9110 -1.5808
75059SOL     OW37155   7.448  13.799   8.039 -0.8334  0.3682 -0.2910
75059SOL    HW137156   7.539  13.791   8.068 -1.1734 -1.7325  0.3362
75059SOL    HW237157   7.454  13.838   7.952  0.6246  0.8225 -0.0120
75060SOL     OW37158   0.280   3.005   5.863 -0.3676 -0.0307 -0.0634
75060SOL    HW137159   0.305   3.097   5.857 -2.0842  0.3756 -2.9029
75060SOL    HW237160   0.204   3.005   5.922  0.1390  0.2146  0.6018
75061SOL     OW37161   4.990   6.272   0.504 -0.1227  0.1286 -0.3838
75061SOL    HW137162   5.054   6.283   0.434  0.9470  2.4475  0.8366
75061SOL    HW237163   5.031   6.209   0.564  1.2438  1.8056  0.5324
75062SOL     OW37164   7.504  10.304  12.725  0.4248  0.2581 -0.4611
75062SOL    HW137165   7.410  10.288  12.713  0.3759 -0.0263  0.2280
75062SOL    HW237166   7.541  10.217  12.738  0.7103  0.4093 -0.2525
75063SOL     OW37167   0.167   1.725  10.822 -0.2212 -0.2099 -0.2541
75063SOL    HW137168   0.206   1.674  10.892 -0.4316 -1.2968 -0.9154
75063SOL    HW237169   0.156   1.813  10.860 -0.2410 -0.7445  1.0261
75064SOL     OW37170   7.345  12.282   8.891 -0.6103  0.0030 -0.3698
75064SOL    HW137171   7.362  12.366   8.933  0.0037  0.0806 -0.7683
75064SOL    HW237172   7.356  12.299   8.798 -0.6440 -0.4862 -0.4642
75065SOL     OW37173   9.615   6.202   1.351  0.4253  0.1525 -0.6214
75065SOL    HW137174   9.566   6.167   1.277 -0.6712 -0.3120  0.2997
75065SOL    HW237175   9.628   6.128   1.409 -0.9446  0.9771  0.8243
75066SOL     OW37176   6.349  12.553   9.125 -0.1820  0.4196  0.2243
75066SOL    HW137177   6.404  12.631   9.129 -1.0389  1.0557  0.0228
75066SOL    HW237178   6.377  12.509   9.044 -0.3969  1.0726 -0.2179
75067SOL     OW37179  10.650  10.713   7.804  0.4272  0.1920  0.7325
75067SOL    HW137180  10.609  10.792   7.839  2.4876  0.3902  2.8947
75067SOL    HW237181  10.668  10.659   7.880 -0.3900 -2.1755 -0.6497
75068SOL     OW37182  13.663   9.434   4.085 -0.2604  0.2370 -0.1222
75068SOL    HW137183  13.622   9.362   4.132  0.5762 -0.3985 -0.3580
75068SOL    HW237184  13.710   9.483   4.153 -0.0774  0.0391 -0.1073
75069SOL     OW37185   8.151   6.649   9.767  0.2113  0.0037 -0.3445
75069SOL    HW137186   8.183   6.582   9.827 -0.7048  2.2950  3.0147
75069SOL    HW237187   8.202   6.727   9.788 -1.3704  1.3780 -1.2839
75070SOL     OW37188   4.295   0.890   5.758 -0.1110 -0.0030  0.0860
75070SOL    HW137189   4.218   0.833   5.746  1.4543 -2.2337  0.0682
75070SOL    HW237190   4.307   0.894   5.853  0.5282 -0.7897  0.0452
75071SOL     OW37191   1.835   4.698   1.845 -0.0075  0.6525  0.3267
75071SOL    HW137192   1.794   4.649   1.774  0.7045  1.2139 -0.5073
75071SOL    HW237193   1.806   4.654   1.925  0.3788 -0.9410 -0.3642
75072SOL     OW37194  12.553   6.516  11.382 -0.6175  0.4260  0.0762
75072SOL    HW137195  12.633   6.469  11.404 -1.2500 -0.8876 -0.3266
75072SOL    HW237196  12.495   6.501  11.456  0.0030  2.7483  1.1546
75073SOL     OW37197  11.360   6.111   1.995  0.0513  0.1684 -0.4537
75073SOL    HW137198  11.288   6.129   2.055 -0.9306 -1.3432 -1.1135
75073SOL    HW237199  11.393   6.025   2.022 -0.0841 -0.3082 -1.7295
75074SOL     OW37200   5.491   7.459   0.827 -0.4209 -0.2210 -0.3196
75074SOL    HW137201   5.437   7.395   0.873  0.1980 -1.9175 -1.8236
75074SOL    HW237202   5.535   7.508   0.897 -1.9256 -0.5103  0.8913
75075SOL     OW37203  10.025  11.893   6.198  0.2592  0.1826 -0.5052
75075SOL    HW137204   9.945  11.883   6.249 -0.0156 -0.3144 -1.0087
75075SOL    HW237205  10.094  11.905   6.263 -0.3865  2.0324 -0.0927
75076SOL     OW37206   5.111   8.152   1.622  0.1425  0.1974 -0.1086
75076SOL    HW137207   5.163   8.150   1.543 -0.5427  0.0815 -0.5710
75076SOL    HW237208   5.049   8.223   1.609  0.0322  0.1863  0.3270
75077SOL     OW37209   3.142   0.213   6.266  0.0917  0.1760 -0.3520
75077SOL    HW137210   3.191   0.291   6.292  0.6246 -0.6610  1.2872
75077SOL    HW237211   3.051   0.243   6.258  0.3379  1.0288 -0.0188
75078SOL     OW37212   1.255   0.482  12.756  0.1907 -0.1520  0.1579
75078SOL    HW137213   1.305   0.405  12.728 -1.4093 -1.2610  0.1994
75078SOL    HW237214   1.268   0.485  12.851 -2.3484 -2.4528  0.7123
75079SOL     OW37215  11.345  13.984   6.149  0.1783 -0.0462 -0.0634
75079SOL    HW137216  11.332  14.018   6.237  0.4883  0.1410 -0.0887
75079SOL    HW237217  11.374  13.893   6.163 -1.5418 -0.6296 -0.0164
75080SOL     OW37218   7.358   8.483   8.391  0.2174 -0.6145 -0.3357
75080SOL    HW137219   7.351   8.540   8.314  1.6912  0.9384  0.6075
75080SOL    HW237220   7.317   8.401   8.364  0.1026  0.1069 -2.5471
75081SOL     OW37221   2.750   3.841   4.787 -0.2218 -0.1650  0.1571
75081SOL    HW137222   2.683   3.879   4.844 -1.4344 -1.2542 -0.5033
75081SOL    HW237223   2.701   3.798   4.717  1.1685 -1.0174 -0.3323
75082SOL     OW37224   2.357   6.396   8.728  0.2117  0.1210 -0.6608
75082SOL    HW137225   2.420   6.325   8.718  0.6237  0.6503 -2.0521
75082SOL    HW237226   2.410   6.474   8.742 -0.1699  0.4043 -0.7744
75083SOL     OW37227   0.811  10.030  12.999  0.2078 -0.3533  0.3192
75083SOL    HW137228   0.795   9.937  13.012  0.0863 -0.2453  1.0124
75083SOL    HW237229   0.802  10.068  13.087  0.4326  0.2816  0.0755
75084SOL     OW37230   6.016  11.665   9.735  0.0359  0.0334  0.4342
75084SOL    HW137231   6.004  11.615   9.654 -1.0810 -1.1962  1.3242
75084SOL    HW237232   5.995  11.755   9.710 -2.6063 -0.6684 -0.1690
75085SOL     OW37233   1.992  12.268  12.373  0.0645  0.0515 -0.0506
75085SOL    HW137234   2.022  12.324  12.302  0.0542  1.2826  0.8839
75085SOL    HW237235   1.959  12.189  12.329  0.3618  0.6324 -1.3708
75086SOL     OW37236   7.494  13.596   8.680 -0.0757 -0.4505  0.3567
75086SOL    HW137237   7.418  13.646   8.708  0.2996 -0.6967  1.9445
75086SOL    HW237238   7.487  13.514   8.728  1.3652 -0.3229  0.8406
75087SOL     OW37239  10.650  11.730   9.608  0.1920  0.3371  0.0596
75087SOL    HW137240  10.684  11.783   9.679 -0.8650  2.5384 -0.9898
75087SOL    HW237241  10.572  11.776   9.578 -0.7971 -1.8286 -0.9393
75088SOL     OW37242   6.791  12.938  10.267  0.1238 -0.0692  0.3260
75088SOL    HW137243   6.805  12.981  10.182  2.8020 -0.1611  0.6217
75088SOL    HW237244   6.854  12.981  10.325 -1.7824  0.1104  2.3558
75089SOL     OW37245   2.708  11.228  13.878 -0.2373  0.2572 -0.3283
75089SOL    HW137246   2.639  11.294  13.877  0.5256  1.1160  1.0519
75089SOL    HW237247   2.780  11.269  13.830  0.9872  1.3729  2.2522
75090SOL     OW37248  11.122   3.489   6.850  0.3484 -0.0215 -0.1837
75090SOL    HW137249  11.177   3.567   6.843 -0.8999  0.8301 -0.8144
75090SOL    HW237250  11.087   3.491   6.939  1.3321 -0.6056  0.2466
75091SOL     OW37251   7.356  11.846   1.713  0.4918 -0.4855 -0.5336
75091SOL    HW137252   7.430  11.883   1.665  0.0711 -0.6565 -1.3465
75091SOL    HW237253   7.395  11.786   1.776  1.0367 -1.0147 -1.3433
75092SOL     OW37254   7.399  12.075  10.974  0.0430  0.1120 -0.2708
75092SOL    HW137255   7.402  12.058  10.880 -0.9767  0.7180 -0.4320
75092SOL    HW237256   7.312  12.114  10.988  0.8721  1.7115  0.6298
75093SOL     OW37257   5.800   4.006  11.021  0.4925 -0.1947 -0.2623
75093SOL    HW137258   5.722   4.052  10.991  0.3974  0.0255  0.2995
75093SOL    HW237259   5.869   4.034  10.961  0.3566  0.4181 -0.1450
75094SOL     OW37260  13.059   3.620   3.550 -0.0353 -0.4655 -0.1437
75094SOL    HW137261  12.984   3.561   3.551 -1.1035  0.8243  1.5451
75094SOL    HW237262  13.113   3.591   3.624  0.0769 -0.1140 -0.0877
75095SOL     OW37263   2.252   3.999  10.837 -0.1951  0.2942 -0.3100
75095SOL    HW137264   2.345   3.982  10.849  0.1930  0.7295 -2.3813
75095SOL    HW237265   2.209   3.916  10.859  0.6748  0.0567  0.5326
75096SOL     OW37266   3.525   9.596  10.780 -0.3663  0.6483 -0.6490
75096SOL    HW137267   3.429   9.596  10.786 -0.3672  0.9720 -0.6325
75096SOL    HW237268   3.547   9.508  10.753 -0.7732  1.0183 -2.2667
75097SOL     OW37269   6.617   6.879   9.733  0.9856  0.3031 -0.3239
75097SOL    HW137270   6.532   6.837   9.746 -0.0444  2.4833  0.6132
75097SOL    HW237271   6.620   6.899   9.639 -1.4232  3.6131  0.1083
75098SOL     OW37272   5.274  10.758  12.571  0.1956 -0.4818 -0.3134
75098SOL    HW137273   5.212  10.827  12.545  1.7316  0.7692 -0.8672
75098SOL    HW237274   5.250  10.738  12.661 -1.6803 -0.8310 -0.8395
75099SOL     OW37275   0.814   6.967   5.378 -0.4668 -0.1015 -0.0785
75099SOL    HW137276   0.860   6.999   5.301  0.2675 -0.0673  0.3701
75099SOL    HW237277   0.738   6.920   5.342  0.4065 -0.9603 -0.8708
75100SOL     OW37278   8.916   5.778   7.369  0.3346  0.2609 -0.0871
75100SOL    HW137279   8.906   5.730   7.287  0.6091 -1.9056  1.0702
75100SOL    HW237280   8.863   5.729   7.432  2.6749 -0.1033  1.7376
75101SOL     OW37281  11.087   3.151   2.681 -0.1158 -0.0215  0.4470
75101SOL    HW137282  11.004   3.195   2.669 -1.0591 -0.9888  2.7489
75101SOL    HW237283  11.075   3.065   2.640 -0.3346 -0.2374  0.9594
75102SOL     OW37284  12.150   7.185  11.662 -0.3846  0.9915 -0.1042
75102SOL    HW137285  12.207   7.221  11.595 -2.0200  2.5679 -0.7505
75102SOL    HW237286  12.207   7.169  11.737  1.1496  0.9481 -1.2435
75103SOL     OW37287   3.744  11.171   8.706 -0.0521 -0.3991 -0.0912
75103SOL    HW137288   3.823  11.169   8.651  1.2245  0.2546  1.6139
75103SOL    HW237289   3.703  11.255   8.685 -0.0516 -0.5408 -0.6709
75104SOL     OW37290  10.946   8.896   9.167 -0.5975  0.3487 -0.1654
75104SOL    HW137291  10.934   8.819   9.111 -0.7767  1.1878 -1.3157
75104SOL    HW237292  10.977   8.964   9.108  2.6630  0.3814  1.3238
75105SOL     OW37293   0.302   4.743  10.148 -0.1111  0.2468 -0.3054
75105SOL    HW137294   0.260   4.812  10.096 -0.2713 -0.2653 -0.8699
75105SOL    HW237295   0.275   4.760  10.238 -1.0008  0.3086 -0.5816
75106SOL     OW37296  10.255  10.163   3.459 -0.0947  0.4457 -0.2998
75106SOL    HW137297  10.223  10.170   3.549  0.8606 -0.1485  0.1036
75106SOL    HW237298  10.191  10.212   3.407 -1.9363 -1.1063  0.3798
75107SOL     OW37299  12.943   0.709   9.222  0.3605  0.8460  0.2714
75107SOL    HW137300  12.909   0.798   9.216 -1.7428  0.1389  0.7783
75107SOL    HW237301  12.865   0.653   9.219  1.7144 -1.1377 -2.3434
75108SOL     OW37302   1.875   1.550  11.262 -0.1034  0.3735 -0.1162
75108SOL    HW137303   1.938   1.485  11.294 -1.1828  0.2785  1.9756
75108SOL    HW237304   1.798   1.539  11.319 -1.2652  1.8148 -1.3251
75109SOL     OW37305  11.499   5.696  11.040  0.0165  0.0975 -0.1576
75109SOL    HW137306  11.417   5.726  11.077  0.9836  2.0531  0.5486
75109SOL    HW237307  11.494   5.601  11.043 -0.8417  0.1515  3.0270
75110SOL     OW37308   7.111   2.299  12.878  0.1233 -0.0184 -0.1356
75110SOL    HW137309   7.207   2.299  12.880  0.1963 -1.5148 -1.8931
75110SOL    HW237310   7.086   2.274  12.967  1.3800 -0.4756  0.1105
75111SOL     OW37311  10.409   0.745  13.281 -0.0423 -0.0409  0.0702
75111SOL    HW137312  10.353   0.700  13.345 -0.9585 -0.1492 -0.7754
75111SOL    HW237313  10.498   0.720  13.304 -0.2569  0.8013  1.9885
75112SOL     OW37314   6.785  12.044   7.402 -0.3089  0.1909 -0.3756
75112SOL    HW137315   6.775  12.137   7.420  1.7313  0.2247  0.9078
75112SOL    HW237316   6.800  12.039   7.308 -0.5673  1.1295 -0.4734
75113SOL     OW37317   8.575   6.294  10.044  0.3626 -0.2246 -0.7379
75113SOL    HW137318   8.650   6.287   9.985  0.5176  0.8741 -0.6922
75113SOL    HW237319   8.552   6.387  10.043  1.3646  0.1534  2.1306
75114SOL     OW37320   2.817  11.641   1.149  0.6349  0.4332 -0.2291
75114SOL    HW137321   2.770  11.572   1.101  0.3768  0.9194 -0.6828
75114SOL    HW237322   2.782  11.636   1.238  0.6243 -0.0256 -0.2554
75115SOL     OW37323   6.972   2.124   9.233  0.1882  0.2249 -0.6915
75115SOL    HW137324   7.039   2.188   9.256  0.7389 -0.5582 -0.0716
75115SOL    HW237325   7.013   2.067   9.168  0.1232 -0.2499 -0.3207
75116SOL     OW37326  10.024   2.793   7.281  0.7575  0.3967  0.6306
75116SOL    HW137327  10.088   2.721   7.285 -0.1495 -0.5501 -0.8437
75116SOL    HW237328   9.962   2.766   7.214  0.2360  2.4792  0.2066
75117SOL     OW37329   2.881   1.361   3.201  0.6101  0.1218 -0.1802
75117SOL    HW137330   2.963   1.398   3.170  1.1232  1.0656  2.1195
75117SOL    HW237331   2.907   1.289   3.259 -0.1994  0.1706  0.2609
75118SOL     OW37332   1.706  10.422   9.966 -0.2350 -0.0352  0.1976
75118SOL    HW137333   1.783  10.406   9.911 -1.4515  1.9190 -2.2665
75118SOL    HW237334   1.727  10.502  10.013 -0.8456  0.6565 -0.6930
75119SOL     OW37335  10.725  12.275   9.116 -0.2787  0.0461  0.1983
75119SOL    HW137336  10.750  12.221   9.190  1.1024  0.9584  0.4420
75119SOL    HW237337  10.807  12.293   9.070 -0.9401  0.4919 -0.8643
75120SOL     OW37338   8.902   9.354  10.616 -0.0003  0.2203  0.2834
75120SOL    HW137339   8.952   9.415  10.670  0.0609 -0.6490  1.2411
75120SOL    HW237340   8.816   9.348  10.659  0.9738 -2.7733  2.1892
75121SOL     OW37341   9.033   6.443   9.702  0.2816  0.4646 -0.0308
75121SOL    HW137342   8.970   6.387   9.655 -0.6437  0.8788  0.6936
75121SOL    HW237343   9.059   6.508   9.637  1.3874 -0.7788 -0.8976
75122SOL     OW37344  11.399  13.152  12.293  0.3377 -0.9844 -0.1840
75122SOL    HW137345  11.437  13.240  12.301 -0.4158 -0.8260  2.5351
75122SOL    HW237346  11.474  13.097  12.270  0.8112  0.3277 -2.0286
75123SOL     OW37347   3.961   5.761   6.010  0.5678 -0.2237  0.1354
75123SOL    HW137348   3.915   5.677   6.017  0.0691  0.0639  0.3665
75123SOL    HW237349   4.044   5.740   5.968  0.2663 -0.7669 -0.1891
75124SOL     OW37350   3.569   8.214  12.881 -0.2479 -0.3308  0.1944
75124SOL    HW137351   3.587   8.122  12.898  1.7113 -0.0106  0.0929
75124SOL    HW237352   3.569   8.255  12.967  2.6747  0.1374  0.0673
75125SOL     OW37353   0.737   4.611   4.570 -0.0775  0.0772 -0.0496
75125SOL    HW137354   0.653   4.568   4.552  0.4894 -1.3311  0.5688
75125SOL    HW237355   0.744   4.678   4.502 -2.4344  1.3174  0.7957
75126SOL     OW37356   7.156   8.239   1.993  0.0155  0.2424  0.7516
75126SOL    HW137357   7.209   8.172   2.035  0.5134 -0.1747 -0.5029
75126SOL    HW237358   7.141   8.207   1.904  0.0089  1.6346  0.2120
75127SOL     OW37359   8.984  11.046   7.897  0.0670 -0.0586 -0.0118
75127SOL    HW137360   8.990  11.006   7.983 -0.0176  0.5661  0.2865
75127SOL    HW237361   9.068  11.088   7.883 -0.1690  0.4442  0.0682
75128SOL     OW37362   0.088   6.686  11.315  0.1514 -0.0914  0.0159
75128SOL    HW137363   0.159   6.636  11.355  0.7677  0.6626 -0.0910
75128SOL    HW237364   0.074   6.645  11.230  1.0337  0.2492 -0.3052
75129SOL     OW37365  11.604   5.992   0.859 -0.2132 -0.0830 -0.3231
75129SOL    HW137366  11.517   5.979   0.898 -0.0109  0.3982  0.3072
75129SOL    HW237367  11.588   5.988   0.765 -1.2753  1.9270 -0.3016
75130SOL     OW37368   3.820  11.231   2.138  0.8027 -0.1165 -0.0997
75130SOL    HW137369   3.874  11.310   2.133  2.3063 -1.1935 -2.9754
75130SOL    HW237370   3.883  11.160   2.145 -0.4900 -1.2052  1.1389
75131SOL     OW37371   8.706   1.130   7.469 -0.1411  0.7785 -0.5610
75131SOL    HW137372   8.787   1.101   7.510 -0.0424 -0.5542 -1.6293
75131SOL    HW237373   8.638   1.110   7.533  0.2229  0.5211 -0.2540
75132SOL     OW37374   0.975   2.914   9.047 -0.0887 -0.3658 -0.4670
75132SOL    HW137375   0.998   2.902   9.139  1.0757  0.9111 -0.5686
75132SOL    HW237376   0.880   2.920   9.047 -0.0576  0.5041  0.7794
75133SOL     OW37377  10.235   5.640   4.750 -0.0764 -0.1078 -0.2172
75133SOL    HW137378  10.258   5.584   4.677 -1.3362 -2.9158  1.3556
75133SOL    HW237379  10.142   5.622   4.766  0.1010  0.5233  1.9372
75134SOL     OW37380  12.544   6.806   2.384  0.3412 -0.2517 -0.3157
75134SOL    HW137381  12.584   6.807   2.471  2.0297  0.7808 -1.0462
75134SOL    HW237382  12.607   6.852   2.329 -0.2726 -1.6659 -2.2847
75135SOL     OW37383   7.966   5.728   0.282  0.5916  0.5741 -0.3960
75135SOL    HW137384   7.936   5.733   0.191  0.2851  0.2264 -0.3180
75135SOL    HW237385   8.031   5.797   0.290 -0.1852  1.3358 -0.5739
75136SOL     OW37386   1.161   4.138   3.181  0.0722 -0.4550 -0.2397
75136SOL    HW137387   1.154   4.108   3.090  1.9962 -0.5567 -0.4027
75136SOL    HW237388   1.214   4.218   3.175 -3.1072  1.8730  0.4214
75137SOL     OW37389   4.642   5.183   1.858 -0.0322  0.1001 -0.2669
75137SOL    HW137390   4.633   5.266   1.811 -1.4130  0.0216 -0.1730
75137SOL    HW237391   4.573   5.184   1.924 -0.5086 -1.4043 -0.6885
75138SOL     OW37392  10.634   6.443  10.280  0.2401  0.4914 -0.0215
75138SOL    HW137393  10.650   6.483  10.195  1.9828 -0.2720 -0.1138
75138SOL    HW237394  10.627   6.350  10.262 -2.3454  0.5398  0.3619
75139SOL     OW37395   3.868   7.940   9.140  0.6040  0.1064 -0.7182
75139SOL    HW137396   3.846   7.923   9.232 -1.9206  0.5235 -1.1702
75139SOL    HW237397   3.830   7.865   9.093 -0.2019  1.0491 -1.6077
75140SOL     OW37398   3.467   0.325   4.834 -0.1306  0.2146  0.4669
75140SOL    HW137399   3.486   0.258   4.769  0.2628  0.2109  0.5856
75140SOL    HW237400   3.374   0.312   4.855 -0.3969  0.5529 -0.4669
75141SOL     OW37401  10.043   6.967   3.148  0.3055  0.0291  0.2612
75141SOL    HW137402   9.952   6.940   3.143 -0.8714  3.4895  0.1890
75141SOL    HW237403  10.088   6.912   3.083 -1.9080 -1.0537 -0.4475
75142SOL     OW37404   9.017   8.411   2.108  0.4522 -0.2051  0.3675
75142SOL    HW137405   9.006   8.460   2.026  2.9642  1.2862  0.8149
75142SOL    HW237406   9.084   8.346   2.087  1.9730  0.9301  1.4481
75143SOL     OW37407  10.268   1.172   6.253  0.1952 -0.5649 -0.0873
75143SOL    HW137408  10.331   1.100   6.263  1.5615  0.4125 -1.1590
75143SOL    HW237409  10.320   1.251   6.268 -1.3533  0.2204  1.4088
75144SOL     OW37410   2.431  13.694   0.731  0.0997 -0.1127  0.0665
75144SOL    HW137411   2.469  13.778   0.754  0.7207 -0.8267  1.8413
75144SOL    HW237412   2.506  13.634   0.728 -0.4041 -0.7277 -0.4936
75145SOL     OW37413   2.830   7.104  11.686  0.2382 -0.1023 -0.5143
75145SOL    HW137414   2.880   7.177  11.651 -0.6561  0.8681  0.1716
75145SOL    HW237415   2.757   7.093  11.624  0.7885 -0.9328 -1.0332
75146SOL     OW37416   3.919  12.330  11.090  0.0846 -0.3185  0.3989
75146SOL    HW137417   3.848  12.272  11.064 -1.0846  0.4247  1.7407
75146SOL    HW237418   3.875  12.412  11.113  1.3139  0.0344  1.6297
75147SOL     OW37419   1.885   7.876   4.704  0.2926 -0.1888 -0.5699
75147SOL    HW137420   1.825   7.809   4.738  1.7166 -0.0165  2.6604
75147SOL    HW237421   1.942   7.828   4.643 -1.2482 -0.9462 -1.4759
75148SOL     OW37422   8.903   6.784  12.569  0.2508 -0.3822  0.1125
75148SOL    HW137423   8.920   6.712  12.508 -2.5986 -1.2027  0.1751
75148SOL    HW237424   8.988   6.799  12.611  1.2918 -2.6932 -0.9575
75149SOL     OW37425   3.963  11.022   2.861  0.1091  0.0829  0.7954
75149SOL    HW137426   4.003  11.068   2.935  1.5160  0.8237 -0.3624
75149SOL    HW237427   3.869  11.036   2.871  0.3889  1.6617  1.4846
75150SOL     OW37428  13.628   8.396   7.009  0.2510  0.1901  0.0830
75150SOL    HW137429  13.649   8.409   7.102 -2.9148  0.9246  0.8275
75150SOL    HW237430  13.615   8.484   6.975 -2.9195 -0.1263  0.1947
75151SOL     OW37431   4.017   3.028  13.048 -0.0502 -0.1925  0.0959
75151SOL    HW137432   4.035   2.991  13.134  0.7035  2.5312  1.1889
75151SOL    HW237433   3.921   3.036  13.045 -0.1539 -1.2311  0.2228
75152SOL     OW37434   8.723   4.276   0.518 -0.5258  0.0833  0.3473
75152SOL    HW137435   8.640   4.291   0.473 -2.1743 -1.5904  2.5829
75152SOL    HW237436   8.717   4.187   0.551  1.7189  0.2880  1.5371
75153SOL     OW37437  12.536  11.841  11.956  0.3917  0.5329  0.1575
75153SOL    HW137438  12.586  11.919  11.931 -0.9488  0.9132 -1.5786
75153SOL    HW237439  12.450  11.875  11.981  0.6504 -0.1906  2.1619
75154SOL     OW37440   6.082  13.953   2.375 -0.3971  0.0065 -0.0934
75154SOL    HW137441   6.170  13.930   2.345 -0.9030 -2.5423  0.1672
75154SOL    HW237442   6.094  13.978   2.467 -0.0144 -1.1076  0.1783
75155SOL     OW37443   3.381   9.673   9.473 -0.6410  0.1307  0.3840
75155SOL    HW137444   3.417   9.613   9.408 -2.7405 -0.9513  0.1208
75155SOL    HW237445   3.342   9.744   9.421 -1.0544  0.0112  0.5292
75156SOL     OW37446   1.169   4.482   0.193 -0.1664 -0.7619 -0.2146
75156SOL    HW137447   1.169   4.464   0.099 -0.5200 -0.2980 -0.3038
75156SOL    HW237448   1.261   4.497   0.214 -0.0082 -1.4800 -0.3648
75157SOL     OW37449   1.219   6.343   5.773  0.2428  0.2504 -0.0632
75157SOL    HW137450   1.220   6.346   5.869  0.1081  0.4028 -0.0668
75157SOL    HW237451   1.262   6.424   5.746 -0.3165  0.5220 -0.1368
75158SOL     OW37452   7.317   5.138  11.572  0.5068 -0.3004 -0.4930
75158SOL    HW137453   7.294   5.148  11.480 -1.0915  0.2166 -0.0595
75158SOL    HW237454   7.301   5.224  11.611 -0.9386 -1.0434  0.6756
75159SOL     OW37455   7.770   6.842   4.880  0.2200  0.0359  0.0253
75159SOL    HW137456   7.731   6.910   4.825 -0.5198  0.1460  0.6679
75159SOL    HW237457   7.697   6.782   4.899  0.5418 -0.1731  0.6226
75160SOL     OW37458   5.980   6.227   5.036 -0.0812 -0.4355  0.3046
75160SOL    HW137459   5.936   6.268   4.962  2.3484  2.4644  0.3053
75160SOL    HW237460   5.932   6.258   5.113 -0.5318 -0.7353  0.1562
75161SOL     OW37461   1.242   7.847  11.799  0.7161 -0.1385 -0.4691
75161SOL    HW137462   1.196   7.829  11.717 -1.2269 -2.4898  0.9783
75161SOL    HW237463   1.285   7.765  11.821  0.2138  0.0432  1.3993
75162SOL     OW37464   5.576  12.842   3.224 -0.2430 -0.0679 -0.0324
75162SOL    HW137465   5.539  12.815   3.140  0.3290 -2.7071  0.4582
75162SOL    HW237466   5.658  12.886   3.201 -0.4875 -0.0425 -0.8751
75163SOL     OW37467   8.316  11.157  12.026  0.0001  0.0212 -0.4994
75163SOL    HW137468   8.224  11.131  12.014  0.9263 -3.5898 -0.8791
75163SOL    HW237469   8.326  11.164  12.121 -0.6174  0.3419 -0.4480
75164SOL     OW37470   7.526   5.747   1.517  0.3173 -0.2443 -0.4902
75164SOL    HW137471   7.502   5.831   1.554 -0.4119  0.4441 -2.4291
75164SOL    HW237472   7.544   5.691   1.593  1.5651  1.8387  0.8302
75165SOL     OW37473   8.363  10.174   1.787  0.3066  0.0611  0.3602
75165SOL    HW137474   8.392  10.108   1.850  0.8182  0.1330  0.2070
75165SOL    HW237475   8.444  10.211   1.752  0.0315  0.0394 -0.3187
75166SOL     OW37476   6.199  12.988   9.195  0.0765  0.1252  0.0662
75166SOL    HW137477   6.260  13.035   9.139  1.0148 -1.7403 -0.5687
75166SOL    HW237478   6.119  12.979   9.142  1.0051 -1.7580 -1.1342
75167SOL     OW37479  12.977   3.982  12.398  0.3181  0.1495 -0.9148
75167SOL    HW137480  12.975   3.888  12.410 -0.9264  0.3058  0.3193
75167SOL    HW237481  12.904   4.001  12.339  0.1546  0.3944 -0.6391
75168SOL     OW37482   8.756  12.126  10.021 -0.0720  0.2861 -0.0409
75168SOL    HW137483   8.780  12.177  10.098 -1.7895  1.0431  0.0294
75168SOL    HW237484   8.672  12.086  10.044 -0.9009  0.9774 -1.7092
75169SOL     OW37485   9.172  10.834   5.467 -0.2429 -0.4069  0.1667
75169SOL    HW137486   9.110  10.904   5.486  0.0100 -0.2246  0.3209
75169SOL    HW237487   9.202  10.852   5.378 -1.7180 -1.4779 -0.6029
75170SOL     OW37488  12.331   9.596   4.184 -0.2201 -0.4783 -0.2873
75170SOL    HW137489  12.281   9.520   4.154 -1.2367  0.5310 -1.3124
75170SOL    HW237490  12.283   9.671   4.147  1.8733  0.5664 -1.0301
75171SOL     OW37491   4.888   2.260   7.522 -0.3909 -0.3832  0.2767
75171SOL    HW137492   4.955   2.259   7.590 -1.5026 -0.1375  1.4058
75171SOL    HW237493   4.910   2.185   7.467 -0.0284 -1.2001  1.4806
75172SOL     OW37494   3.688  11.437  12.520 -0.0093 -0.1009 -0.5625
75172SOL    HW137495   3.650  11.359  12.562 -0.0203 -0.7037 -1.6383
75172SOL    HW237496   3.688  11.504  12.588  0.5595 -1.2161  0.5741
75173SOL     OW37497   7.599   6.567   6.466  0.2111  0.1823  0.8090
75173SOL    HW137498   7.597   6.658   6.497 -0.9634 -0.1661  1.8140
75173SOL    HW237499   7.674   6.529   6.512  0.4012  0.5005  0.7712
75174SOL     OW37500   5.497   0.574   2.376  0.2127 -0.2752  0.1372
75174SOL    HW137501   5.435   0.639   2.345  0.3851  0.5734  1.4855
75174SOL    HW237502   5.504   0.591   2.470  0.0120 -2.4469  0.5998
75175SOL     OW37503  12.526  13.477  12.692 -0.4853 -0.6422 -0.4120
75175SOL    HW137504  12.484  13.406  12.644  1.5186 -1.9289 -0.4031
75175SOL    HW237505  12.505  13.459  12.784 -0.5037 -0.8710 -0.4605
75176SOL     OW37506   0.215  12.370  12.231  0.2959  0.0091 -0.0626
75176SOL    HW137507   0.242  12.459  12.209  1.2140 -0.0715  0.6701
75176SOL    HW237508   0.161  12.380  12.309  2.2472 -0.2213  1.4100
75177SOL     OW37509   7.066  12.946   2.100 -0.3145  0.0491  0.2865
75177SOL    HW137510   7.085  13.034   2.069 -0.6579  0.7931  2.0230
75177SOL    HW237511   7.080  12.889   2.024 -1.3008  1.7217 -1.2059
75178SOL     OW37512   2.161  14.008   9.906  0.1036  0.3501  0.4332
75178SOL    HW137513   2.145  14.102   9.902  0.2192  0.4049  1.1011
75178SOL    HW237514   2.193  13.985   9.819 -0.0506  0.9035  0.2284
75179SOL     OW37515  13.030  11.240  12.079 -0.1971 -0.6232  0.0265
75179SOL    HW137516  12.984  11.317  12.044  1.4710  0.0340 -0.8287
75179SOL    HW237517  13.009  11.170  12.017 -0.2447 -0.3875 -0.2302
75180SOL     OW37518  12.301   7.610   0.062  0.2851  0.2119  0.1560
75180SOL    HW137519  12.306   7.523   0.024  0.8170  0.5116 -0.4781
75180SOL    HW237520  12.294   7.595   0.156  0.3274 -0.5111  0.0456
75181SOL     OW37521   8.339  10.927   1.003  0.8495 -0.2316  0.0963
75181SOL    HW137522   8.344  10.934   0.908 -1.5885 -0.6268 -0.1077
75181SOL    HW237523   8.352  10.834   1.021  0.9394 -0.2127  0.1297
75182SOL     OW37524  10.987  12.607   7.939  0.4742 -0.7771  0.8481
75182SOL    HW137525  11.003  12.694   7.902  1.5769 -0.6126  1.6616
75182SOL    HW237526  11.068  12.558   7.921 -0.2485 -1.7416  0.1344
75183SOL     OW37527   2.218  11.162   5.157 -0.1134 -0.3838  0.5011
75183SOL    HW137528   2.302  11.128   5.185  1.1347  0.7127 -1.6585
75183SOL    HW237529   2.166  11.085   5.134  0.8906 -1.0173  0.3452
75184SOL     OW37530   7.908  12.029   8.060  0.5510  0.1719  0.0388
75184SOL    HW137531   7.825  11.984   8.044  0.5483 -0.4270  1.5639
75184SOL    HW237532   7.919  12.027   8.155  1.6588  1.4508 -0.0289
75185SOL     OW37533   4.450   5.255   8.573 -0.2559 -0.2935  0.0144
75185SOL    HW137534   4.460   5.229   8.481 -1.3502 -1.4264  0.1750
75185SOL    HW237535   4.419   5.345   8.570 -0.6052 -0.4338 -0.7459
75186SOL     OW37536   0.780  13.725  13.348 -0.1021 -0.1976 -0.2332
75186SOL    HW137537   0.754  13.798  13.291  1.3108 -0.1062 -0.7925
75186SOL    HW237538   0.876  13.725  13.344 -0.0425 -1.2237  0.8629
75187SOL     OW37539   0.221   0.893   5.837 -0.0435  0.0012 -0.5642
75187SOL    HW137540   0.202   0.987   5.835  0.8936  0.1915 -0.6797
75187SOL    HW237541   0.145   0.853   5.793 -0.4340  0.6997 -0.5405
75188SOL     OW37542   1.017  11.309   3.260  0.3824 -0.1238  0.3538
75188SOL    HW137543   0.925  11.308   3.288 -0.7320  0.2727 -2.8332
75188SOL    HW237544   1.030  11.395   3.221  1.6564 -0.6620 -0.5073
75189SOL     OW37545   3.647  11.938   8.683 -0.1310 -0.1876 -0.1801
75189SOL    HW137546   3.664  11.944   8.777  1.3977  2.1484 -0.5434
75189SOL    HW237547   3.709  11.872   8.652 -1.0874 -1.4547  0.4939
75190SOL     OW37548   5.640   2.815   4.890  0.0706  0.0285 -0.5505
75190SOL    HW137549   5.607   2.737   4.844 -0.1773  0.2046 -0.6787
75190SOL    HW237550   5.586   2.822   4.968  0.5094 -0.2843 -0.2181
75191SOL     OW37551  12.820  10.395   7.647 -0.3147  0.1807  0.6316
75191SOL    HW137552  12.823  10.333   7.574 -1.5667 -0.3096  0.9775
75191SOL    HW237553  12.727  10.410   7.662 -0.0763  2.4575  0.3115
75192SOL     OW37554   6.715   0.454  10.291 -0.0891 -0.0119 -0.4271
75192SOL    HW137555   6.778   0.439  10.221 -1.7714 -0.2732 -1.9597
75192SOL    HW237556   6.639   0.400  10.268 -1.1004  0.6776  1.0591
75193SOL     OW37557   1.514   3.161  13.554 -0.1377  0.1106 -0.4480
75193SOL    HW137558   1.472   3.225  13.497 -1.4391 -1.1913 -0.9949
75193SOL    HW237559   1.470   3.171  13.638  0.2000  0.4508 -0.3073
75194SOL     OW37560   4.397  10.215   8.896  0.5911 -0.5139  0.0889
75194SOL    HW137561   4.458  10.233   8.825 -0.1819  1.7866 -0.0511
75194SOL    HW237562   4.441  10.246   8.975  0.3391 -0.5216  0.2370
75195SOL     OW37563  13.443   9.523  13.581 -0.0161  0.0947 -0.3813
75195SOL    HW137564  13.359   9.568  13.571  0.6772  0.9433 -3.2735
75195SOL    HW237565  13.505   9.592  13.606  0.5659  0.3178 -2.3280
75196SOL     OW37566  10.038   7.391   3.665  0.0748 -0.6746  1.0149
75196SOL    HW137567  10.105   7.457   3.648  0.0788 -1.4256 -2.5983
75196SOL    HW237568  10.087   7.309   3.673 -0.2286 -0.8220  1.4184
75197SOL     OW37569  12.270   2.687   0.794 -0.5763 -0.1213 -0.1857
75197SOL    HW137570  12.304   2.763   0.747 -1.6262  0.2529 -0.3785
75197SOL    HW237571  12.280   2.614   0.733 -0.9045  0.1514 -0.5718
75198SOL     OW37572   6.170  11.868   6.918 -0.7643 -0.1476  0.0634
75198SOL    HW137573   6.234  11.797   6.927 -1.2804 -0.8579 -1.4941
75198SOL    HW237574   6.177  11.895   6.827 -0.7603  1.6793  0.5659
75199SOL     OW37575  13.436  13.493  10.717  0.5862 -0.3078  0.3545
75199SOL    HW137576  13.458  13.586  10.710 -0.4383 -0.1377 -1.6995
75199SOL    HW237577  13.516  13.447  10.694  0.4329  0.1804 -1.3497
75200SOL     OW37578   5.602   0.555  13.420 -0.1048 -0.0498  0.7107
75200SOL    HW137579   5.550   0.559  13.500  0.0942 -0.7693  0.8916
75200SOL    HW237580   5.583   0.636  13.374 -0.9722 -0.0632  1.0262
75201SOL     OW37581   6.823   3.194  12.429  0.0253 -0.5562 -0.4329
75201SOL    HW137582   6.856   3.281  12.451 -0.2503  0.5915 -3.9612
75201SOL    HW237583   6.898   3.136  12.437  0.0391 -0.2676  2.7310
75202SOL     OW37584   6.854  11.903  10.386 -0.3822  0.1294 -0.0226
75202SOL    HW137585   6.868  11.844  10.460 -0.4282  0.0584 -0.0708
75202SOL    HW237586   6.891  11.856  10.311  0.1388  0.4291  0.0437
75203SOL     OW37587  12.693   8.263   5.150 -0.2322 -0.3886  0.4201
75203SOL    HW137588  12.639   8.183   5.158 -1.9525  0.5614 -0.8575
75203SOL    HW237589  12.656   8.309   5.074 -0.0288  2.1796  1.7706
75204SOL     OW37590   0.952  11.265   9.510 -0.0592 -0.0289 -0.6531
75204SOL    HW137591   0.868  11.255   9.555 -0.7224  1.3601 -1.4978
75204SOL    HW237592   0.970  11.179   9.472 -1.5813 -0.1196 -1.2285
75205SOL     OW37593  10.259  12.510   4.344 -0.4930 -0.0329 -0.0519
75205SOL    HW137594  10.231  12.453   4.416  0.2950 -0.2910  0.0652
75205SOL    HW237595  10.207  12.481   4.269 -1.0332 -0.0298  0.3110
75206SOL     OW37596   5.608   3.527   7.692  0.3357  0.0315 -0.0512
75206SOL    HW137597   5.551   3.601   7.675  0.0830 -0.0198  0.5464
75206SOL    HW237598   5.636   3.497   7.605  1.4210  1.5664 -0.2720
75207SOL     OW37599   4.423   1.824   7.368  0.8359  0.2080 -0.2495
75207SOL    HW137600   4.346   1.861   7.411  0.6415 -0.6518  0.1697
75207SOL    HW237601   4.467   1.899   7.328 -1.0442  0.5437 -1.8381
75208SOL     OW37602   6.898   6.074   2.281 -0.5411  0.3696 -0.1427
75208SOL    HW137603   6.969   6.137   2.268  1.8430 -1.9696  0.5084
75208SOL    HW237604   6.819   6.120   2.253  1.3564  2.7622 -2.0132
75209SOL     OW37605   5.738   2.585  13.163  0.0456  0.1262 -0.3810
75209SOL    HW137606   5.655   2.537  13.170 -0.6469  1.4249  0.8861
75209SOL    HW237607   5.711   2.677  13.158  1.3877  0.4963 -1.0832
75210SOL     OW37608   0.760   3.039   6.566 -0.4016  0.0971  0.2999
75210SOL    HW137609   0.770   3.135   6.570  0.8670 -0.0401  0.7915
75210SOL    HW237610   0.710   3.018   6.646 -0.7303  0.3444  0.1651
75211SOL     OW37611   5.355  10.313   2.162 -0.1881  0.2904  0.4984
75211SOL    HW137612   5.312  10.384   2.114  0.2140  0.6232  0.6191
75211SOL    HW237613   5.380  10.250   2.095 -0.2762  0.4061  0.3566
75212SOL     OW37614   0.777  13.597   1.052  0.6173 -0.1508  0.0629
75212SOL    HW137615   0.744  13.639   1.131  0.6001  0.7959 -0.4262
75212SOL    HW237616   0.699  13.563   1.008  0.8297 -3.0496  1.7038
75213SOL     OW37617   9.809   8.137   7.618 -0.6048 -0.5626  0.1097
75213SOL    HW137618   9.806   8.149   7.713 -1.4948  0.9827 -0.0910
75213SOL    HW237619   9.881   8.194   7.589 -1.4215  0.2761 -0.3032
75214SOL     OW37620   4.075   3.704  11.691 -0.2122  0.0636  0.0681
75214SOL    HW137621   4.027   3.718  11.772 -1.3275 -1.9199 -0.1820
75214SOL    HW237622   4.096   3.611  11.691  0.0144  0.0691 -1.7856
75215SOL     OW37623   9.727  12.371   3.919 -0.9919  0.1316  0.5419
75215SOL    HW137624   9.704  12.440   3.857 -1.4922 -0.7543 -0.2720
75215SOL    HW237625   9.817  12.390   3.944 -0.4713  0.0202 -1.1282
75216SOL     OW37626  12.250  12.713  11.115 -0.4733 -0.2417 -0.3998
75216SOL    HW137627  12.278  12.743  11.028 -1.9677  0.3488 -0.7110
75216SOL    HW237628  12.154  12.710  11.109 -0.6066 -0.0736  1.2780
75217SOL     OW37629   4.248   6.138  12.470  0.1890  0.0354 -0.2973
75217SOL    HW137630   4.251   6.233  12.455 -0.5342  0.1018 -0.0712
75217SOL    HW237631   4.329   6.105  12.432  0.9790  0.8790  0.5926
75218SOL     OW37632   0.183   7.094   0.785 -0.1309  0.0960  0.1206
75218SOL    HW137633   0.199   7.008   0.745 -2.9597  0.0215 -1.0294
75218SOL    HW237634   0.229   7.156   0.728  0.1420 -0.4622 -0.2755
75219SOL     OW37635   2.838   9.180   5.328  0.4256  0.1089  0.0736
75219SOL    HW137636   2.818   9.273   5.320 -0.3457  0.0004  0.6994
75219SOL    HW237637   2.766   9.135   5.284  0.7606 -0.2091 -0.1715
75220SOL     OW37638   6.932   2.527  11.373  0.0776  0.0905 -0.2189
75220SOL    HW137639   6.843   2.559  11.362  0.4830  1.0530 -0.8580
75220SOL    HW237640   6.922   2.434  11.396 -1.0616 -0.3303 -2.1688
75221SOL     OW37641   4.753   9.992  11.146 -0.3890 -0.6495  0.3925
75221SOL    HW137642   4.765   9.902  11.175  0.5819 -1.1213 -1.3028
75221SOL    HW237643   4.669   9.992  11.100 -1.6460 -0.0371  2.5668
75222SOL     OW37644   2.658   9.183   6.177 -0.2655  0.0094 -0.1738
75222SOL    HW137645   2.659   9.261   6.233 -0.6714 -0.0788 -0.0418
75222SOL    HW237646   2.567   9.176   6.147 -0.4615 -0.9853  0.6125
75223SOL     OW37647   2.956   4.428  10.330  0.1627 -0.1154  0.2769
75223SOL    HW137648   3.003   4.396  10.407  0.5787 -0.1186  0.0232
75223SOL    HW237649   2.864   4.426  10.356  0.2971 -0.1443  0.7650
75224SOL     OW37650   7.261  11.134  12.846  0.1625 -0.4459 -0.3577
75224SOL    HW137651   7.314  11.153  12.923  0.2477 -3.7574  0.5561
75224SOL    HW237652   7.172  11.125  12.880 -0.5617  2.1002 -1.3975
75225SOL     OW37653   7.225  13.428   7.173 -0.2432  0.0865  0.5985
75225SOL    HW137654   7.253  13.387   7.091  0.1055  0.4616  0.5267
75225SOL    HW237655   7.225  13.522   7.154  0.1357  0.1962  1.1175
75226SOL     OW37656   9.476   7.489   6.797  0.1524 -0.0527  0.2276
75226SOL    HW137657   9.410   7.541   6.751 -0.1963 -0.7767 -0.1037
75226SOL    HW237658   9.498   7.541   6.875  0.5207  1.0404 -0.5743
75227SOL     OW37659   1.439   2.743  12.971  0.2390 -0.0340  0.4337
75227SOL    HW137660   1.449   2.734  13.066 -0.9754 -1.5690  0.4408
75227SOL    HW237661   1.357   2.791  12.960  1.4578  2.1429  0.1451
75228SOL     OW37662   4.842   4.878   4.680  0.4764 -0.0569 -0.2598
75228SOL    HW137663   4.881   4.854   4.596  0.9531 -1.1094  0.2424
75228SOL    HW237664   4.801   4.797   4.711  0.7955  0.1749  0.7816
75229SOL     OW37665   4.252   4.844  10.282 -0.4019 -0.3364 -0.5628
75229SOL    HW137666   4.220   4.776  10.341 -0.2467  1.5648  1.9029
75229SOL    HW237667   4.348   4.835  10.285 -0.3706  0.0938 -0.0410
75230SOL     OW37668  13.560  10.000   4.235 -0.1564  0.0082 -0.2633
75230SOL    HW137669  13.616   9.977   4.309 -0.5504  2.1548  0.7745
75230SOL    HW237670  13.489   9.936   4.238 -0.3792  0.2849  1.4979
75231SOL     OW37671  12.921  13.806   9.864 -0.0695  0.1111 -0.1106
75231SOL    HW137672  12.913  13.897   9.891 -2.6124 -0.1042  0.0603
75231SOL    HW237673  12.935  13.758   9.945 -0.6398  0.1661  0.0226
75232SOL     OW37674   0.280   4.603  10.639  0.5860 -0.4192  0.0954
75232SOL    HW137675   0.276   4.541  10.712 -1.4742 -0.2986  0.1520
75232SOL    HW237676   0.290   4.688  10.680 -0.5230 -0.3565  0.2714
75233SOL     OW37677  12.662  13.765   3.373  0.2658  0.2182 -0.3581
75233SOL    HW137678  12.656  13.695   3.308  0.1219  0.4837 -0.6308
75233SOL    HW237679  12.680  13.720   3.455  2.6192 -0.0214 -0.9121
75234SOL     OW37680   3.177  11.791  11.484  0.2817 -0.1517  0.3540
75234SOL    HW137681   3.269  11.800  11.509  0.5299 -3.1633  0.9503
75234SOL    HW237682   3.170  11.838  11.401  1.9514  1.4273  1.0337
75235SOL     OW37683  13.482   1.402   1.472  0.4819 -0.4309  0.3421
75235SOL    HW137684  13.549   1.429   1.536  0.8241  0.7300 -0.4740
75235SOL    HW237685  13.402   1.394   1.523  0.1659  2.9264  0.5792
75236SOL     OW37686  11.832   3.948   3.033 -0.3000  0.2616 -0.1274
75236SOL    HW137687  11.899   3.986   3.090  1.2955  1.7452 -2.7694
75236SOL    HW237688  11.783   4.023   3.000  0.6825 -0.1684 -2.8289
75237SOL     OW37689   8.018   4.186   9.811 -0.1884 -0.1685  0.0919
75237SOL    HW137690   7.966   4.146   9.741 -2.1757 -0.1087  1.4662
75237SOL    HW237691   8.055   4.265   9.771 -0.9354 -0.3552 -1.0165
75238SOL     OW37692   3.424   7.354  11.125 -0.3400 -0.0304  0.0797
75238SOL    HW137693   3.329   7.359  11.126 -0.2792  2.4030  1.3856
75238SOL    HW237694   3.450   7.385  11.212  1.6865  1.3780 -0.9645
75239SOL     OW37695   8.863  11.664  12.291 -0.4653  0.1687  0.0138
75239SOL    HW137696   8.811  11.672  12.371 -0.4524  0.9062 -0.0474
75239SOL    HW237697   8.944  11.711  12.310  0.4889 -1.5055  0.3402
75240SOL     OW37698   4.895  13.127   9.302 -0.0689 -0.6485 -0.1191
75240SOL    HW137699   4.874  13.079   9.383 -2.6729 -1.1905 -1.0290
75240SOL    HW237700   4.812  13.133   9.255  0.7462  2.2905 -1.4166
75241SOL     OW37701   0.978   9.473   5.632  0.1029  0.1235 -0.1002
75241SOL    HW137702   1.065   9.435   5.617 -0.1168 -0.0835 -0.9388
75241SOL    HW237703   0.929   9.450   5.553  0.0883  2.5296 -0.8523
75242SOL     OW37704   4.899   1.085  12.321 -0.2861 -1.1125  0.0585
75242SOL    HW137705   4.926   0.993  12.328  1.4449 -0.7321 -1.0004
75242SOL    HW237706   4.859   1.091  12.234  0.9535 -0.5660 -0.4872
75243SOL     OW37707  12.250   7.114   3.988  0.2430  0.4553  0.1564
75243SOL    HW137708  12.204   7.185   3.942 -0.1850 -1.5055 -2.6910
75243SOL    HW237709  12.181   7.052   4.011  0.8992 -0.2247  0.3212
75244SOL     OW37710   8.860  10.825  11.168  0.1187 -0.2180 -0.7274
75244SOL    HW137711   8.837  10.909  11.128  0.2248 -0.2850 -0.9275
75244SOL    HW237712   8.949  10.839  11.201 -0.2072  0.0476  0.0644
75245SOL     OW37713   0.271   4.020   0.287  0.6777 -0.1207  0.7732
75245SOL    HW137714   0.346   4.029   0.346  1.0282 -1.4575  0.5571
75245SOL    HW237715   0.261   4.106   0.248  2.4045 -0.0356  0.4504
75246SOL     OW37716   7.163   2.522  13.607  0.0807  0.3832  0.1498
75246SOL    HW137717   7.116   2.439  13.595  0.0601  0.4287 -0.0783
75246SOL    HW237718   7.248   2.497  13.643  0.6264  0.1481 -1.2313
75247SOL     OW37719  10.634   8.489   5.246 -0.2515  0.5913 -0.3709
75247SOL    HW137720  10.729   8.497   5.235 -0.1317  0.6414  0.5701
75247SOL    HW237721  10.618   8.395   5.247 -0.2413  0.5836 -0.7143
75248SOL     OW37722   1.055   7.514   3.701 -0.6822  0.5771  1.3957
75248SOL    HW137723   1.129   7.574   3.704  0.7283 -1.0040  0.2103
75248SOL    HW237724   1.023   7.518   3.611 -1.3278  0.4291  1.6118
75249SOL     OW37725   3.798  10.148  11.065  0.3415  0.0466 -0.4988
75249SOL    HW137726   3.877  10.126  11.115 -0.4318  0.3117  0.9026
75249SOL    HW237727   3.811  10.107  10.980  1.2780 -1.3212  0.2654
75250SOL     OW37728   5.364   9.643  14.014 -0.2219  0.2868  0.3858
75250SOL    HW137729   5.407   9.579  14.072 -1.1262  0.0159  0.7765
75250SOL    HW237730   5.329   9.590  13.943 -2.0877  0.1394  1.3569
75251SOL     OW37731   8.991   1.557  10.843 -0.3485 -0.0080 -0.3285
75251SOL    HW137732   9.038   1.610  10.908 -2.0741  0.3126  0.7489
75251SOL    HW237733   9.059   1.509  10.797  0.9336 -1.4681  2.7944
75252SOL     OW37734   4.711  12.585   3.932  0.4429 -0.0634  0.4132
75252SOL    HW137735   4.691  12.608   4.023 -0.3641 -1.5636  0.6543
75252SOL    HW237736   4.725  12.490   3.934 -0.4486 -0.2623 -1.1718
75253SOL     OW37737   6.463   6.830   7.365  0.0055 -0.0473  0.5456
75253SOL    HW137738   6.435   6.742   7.391  2.0422 -0.9188  0.0321
75253SOL    HW237739   6.497   6.869   7.446  2.0685 -1.0083  0.2103
75254SOL     OW37740  13.282   1.712   3.601  0.2023 -0.1188 -0.2042
75254SOL    HW137741  13.284   1.664   3.519  1.2048  1.0165 -0.8659
75254SOL    HW237742  13.270   1.803   3.575  0.7749  0.2861  0.8902
75255SOL     OW37743   6.313  11.038   1.895  0.4408  0.5381 -0.0751
75255SOL    HW137744   6.261  11.084   1.830  1.9562  0.7140 -1.2238
75255SOL    HW237745   6.290  11.080   1.978 -2.5467 -0.5879 -0.2207
75256SOL     OW37746   1.731   6.847   3.377  0.0487  0.1500  0.0292
75256SOL    HW137747   1.785   6.780   3.335  1.3175  0.6156  0.8620
75256SOL    HW237748   1.643   6.834   3.340  0.3668 -1.6508 -0.1859
75257SOL     OW37749   7.300  11.067  13.307 -0.2860  0.1856 -0.8052
75257SOL    HW137750   7.386  11.107  13.295 -0.9918  2.2153  0.3574
75257SOL    HW237751   7.318  10.974  13.319  1.8071  0.6315 -0.1176
75258SOL     OW37752   4.681   7.417  10.032  0.2885 -0.1482 -0.0165
75258SOL    HW137753   4.648   7.476  10.100  1.1544  0.1471  0.1647
75258SOL    HW237754   4.649   7.454   9.950  2.1439  1.5567 -0.0574
75259SOL     OW37755   9.783   2.078   5.308  0.3183  0.2160 -0.0709
75259SOL    HW137756   9.793   2.059   5.401 -0.0080 -0.3216 -0.1413
75259SOL    HW237757   9.740   2.163   5.305 -1.6897 -0.7284  0.3079
75260SOL     OW37758   0.010   7.852  13.092  0.4469 -0.4126 -0.3358
75260SOL    HW137759   0.023   7.791  13.165  1.1092 -0.5986 -0.6003
75260SOL    HW237760   0.057   7.812  13.019  0.9745  0.4572 -0.4881
75261SOL     OW37761   6.211   7.722   5.419 -0.1749  0.0222 -0.1910
75261SOL    HW137762   6.203   7.771   5.337 -0.7601  0.4416  0.1096
75261SOL    HW237763   6.210   7.789   5.487  0.3055 -0.3226  0.1670
75262SOL     OW37764   9.974   3.115   5.335 -0.8525 -0.3994  0.3500
75262SOL    HW137765   9.884   3.147   5.345 -0.6839 -0.1368  1.1035
75262SOL    HW237766  10.012   3.124   5.422 -0.8922 -3.0220  0.7037
75263SOL     OW37767   6.241   7.080   8.916  0.0236  0.2435  0.2352
75263SOL    HW137768   6.290   7.158   8.942  1.0238 -0.1981 -0.2781
75263SOL    HW237769   6.268   7.013   8.980  1.7177 -0.5684 -1.2517
75264SOL     OW37770  10.324   8.472   8.217 -0.0542  0.0939 -0.0287
75264SOL    HW137771  10.343   8.399   8.275  0.5039  0.7432  0.6289
75264SOL    HW237772  10.253   8.441   8.161 -0.0744 -0.8136  0.4887
75265SOL     OW37773  10.942  11.405  13.560  0.2533 -0.4126 -0.3205
75265SOL    HW137774  10.989  11.488  13.572 -0.4933  0.0723 -0.6530
75265SOL    HW237775  10.850  11.431  13.560 -0.0617 -1.4365  1.1342
75266SOL     OW37776  13.855   5.941   4.880  0.5041  0.2356 -0.0882
75266SOL    HW137777  13.810   5.861   4.853  1.6468 -0.1721 -0.8615
75266SOL    HW237778  13.866   5.991   4.798 -1.8320  2.1073  0.6018
75267SOL     OW37779  11.986   6.296   1.052 -0.1835 -0.1174 -0.1508
75267SOL    HW137780  12.073   6.256   1.046 -0.1169 -0.4267  2.2322
75267SOL    HW237781  11.958   6.280   1.141 -1.3067  2.8462  0.1410
75268SOL     OW37782   1.461  11.831   7.497 -0.2911  0.5033 -0.4318
75268SOL    HW137783   1.439  11.757   7.553 -0.1768 -0.4508 -1.5921
75268SOL    HW237784   1.539  11.802   7.449  0.4694  1.8509 -0.0420
75269SOL     OW37785   5.425   3.735   8.931 -0.0869 -0.3975  0.1622
75269SOL    HW137786   5.423   3.825   8.901 -2.4409 -1.2702 -2.7304
75269SOL    HW237787   5.361   3.732   9.003  0.8693  0.4025  1.0814
75270SOL     OW37788  13.828   6.792   5.254  0.3531 -0.4623  0.5589
75270SOL    HW137789  13.788   6.775   5.339 -0.4985 -0.8684  0.0908
75270SOL    HW237790  13.780   6.867   5.219  1.6817  0.6535  1.0530
75271SOL     OW37791  11.255  13.314   5.692  0.0059 -0.0201 -0.6106
75271SOL    HW137792  11.281  13.342   5.779  1.6007 -0.8018 -0.7859
75271SOL    HW237793  11.291  13.226   5.683 -1.9861 -0.8252 -1.2861
75272SOL     OW37794   3.961   1.686   4.928 -0.4286 -0.1149 -0.2533
75272SOL    HW137795   3.873   1.699   4.892 -0.1975  1.3057 -0.3417
75272SOL    HW237796   4.002   1.625   4.868 -0.3630  1.5147 -1.9320
75273SOL     OW37797  13.782  10.771   9.676  0.4117 -0.4084 -0.0171
75273SOL    HW137798  13.759  10.799   9.587 -3.2454 -1.9516  0.2489
75273SOL    HW237799  13.821  10.685   9.665  0.2592 -0.4596 -0.1685
75274SOL     OW37800   0.965   5.299  11.369 -0.0536 -0.3184  0.2795
75274SOL    HW137801   0.966   5.261  11.281  0.8617 -0.6847  0.4280
75274SOL    HW237802   0.999   5.229  11.425 -1.2234 -0.3156  1.0313
75275SOL     OW37803   6.252   0.194   5.909 -0.1884  0.1754 -0.2831
75275SOL    HW137804   6.174   0.237   5.876 -0.4447 -0.3899 -0.4144
75275SOL    HW237805   6.222   0.110   5.942  0.1133  0.5673  1.0627
75276SOL     OW37806   7.053   0.776   7.752  0.0976 -0.0779  0.7556
75276SOL    HW137807   7.038   0.845   7.817 -1.4244 -1.3961  1.8958
75276SOL    HW237808   7.131   0.731   7.783  1.3645  1.3711 -0.2438
75277SOL     OW37809   6.168   5.599   9.003 -0.0557  0.2630  0.7345
75277SOL    HW137810   6.164   5.558   9.090  0.4097 -0.9671  0.1973
75277SOL    HW237811   6.083   5.579   8.963  0.2159 -0.3094  0.4269
75278SOL     OW37812   0.314   9.938  11.872 -0.4657 -0.7440 -0.0813
75278SOL    HW137813   0.246   9.927  11.938 -1.7007 -0.2703 -1.2449
75278SOL    HW237814   0.282  10.006  11.814  0.5093 -1.2588 -1.2838
75279SOL     OW37815  13.495  10.938   6.676  0.0122  0.1486 -0.3253
75279SOL    HW137816  13.440  10.927   6.754 -1.6298 -1.8358 -1.6388
75279SOL    HW237817  13.579  10.900   6.701 -0.2320  0.2452  0.7039
75280SOL     OW37818   0.409   0.459   2.922 -0.2426 -0.2128  0.4144
75280SOL    HW137819   0.503   0.452   2.904 -0.0555 -0.3384  1.3786
75280SOL    HW237820   0.403   0.529   2.987 -0.5732 -1.6584  2.0086
75281SOL     OW37821   2.916   7.316   9.221 -0.6076 -0.4437  0.6205
75281SOL    HW137822   2.835   7.269   9.243 -0.0124 -1.6691  0.2964
75281SOL    HW237823   2.965   7.318   9.303 -0.6608 -0.3166  0.6499
75282SOL     OW37824   9.573   0.901  13.189 -0.1296 -0.1737 -0.1388
75282SOL    HW137825   9.517   0.971  13.157 -0.0900 -0.3958 -0.6962
75282SOL    HW237826   9.547   0.824  13.139  0.9394 -0.1960 -0.6854
75283SOL     OW37827   0.035   0.939   7.360 -0.4333 -0.5079 -0.4023
75283SOL    HW137828   0.070   0.915   7.445 -0.4398  1.0567  0.0841
75283SOL    HW237829  -0.055   0.966   7.378  0.3972  2.5876 -0.3399
75284SOL     OW37830   8.811   7.245  11.026 -0.2005  0.0950 -0.1642
75284SOL    HW137831   8.754   7.169  11.030  0.5420 -0.4797  4.0930
75284SOL    HW237832   8.769   7.309  11.083  0.7688  1.7382 -1.2173
75285SOL     OW37833   2.200   1.325   0.324 -0.3889 -0.1284  0.2085
75285SOL    HW137834   2.175   1.378   0.249 -0.6447  1.8233  1.5871
75285SOL    HW237835   2.248   1.251   0.287 -2.4042 -0.4529 -2.0281
75286SOL     OW37836   7.552   9.136   4.882  0.1376  0.0554  0.1107
75286SOL    HW137837   7.563   9.191   4.804  0.7208 -1.1894 -0.7032
75286SOL    HW237838   7.633   9.148   4.931  0.9130 -1.2006 -0.8127
75287SOL     OW37839   7.629   8.754   4.161 -0.4198 -0.2477  0.1158
75287SOL    HW137840   7.579   8.725   4.085  0.3701  0.9932 -0.9211
75287SOL    HW237841   7.650   8.673   4.208 -1.2165 -1.0022 -0.7849
75288SOL     OW37842   2.315   8.327   9.326 -0.1653 -0.4928 -0.2848
75288SOL    HW137843   2.341   8.236   9.318 -2.4306 -1.1983 -0.1546
75288SOL    HW237844   2.282   8.336   9.415  1.6901  0.9678  0.3301
75289SOL     OW37845  10.153   9.535   3.098 -0.5635  0.6507 -0.0245
75289SOL    HW137846  10.136   9.528   3.004  0.4265  1.3299 -0.2701
75289SOL    HW237847  10.242   9.501   3.109 -1.0019 -0.2575  0.8072
75290SOL     OW37848   1.490   1.669   7.728  0.1103  0.0394 -0.0140
75290SOL    HW137849   1.523   1.756   7.751  0.3760  0.3454 -1.4416
75290SOL    HW237850   1.570   1.616   7.716 -0.0119 -0.0657 -0.3688
75291SOL     OW37851   6.352  12.409   4.321  0.0802  0.0343  0.5036
75291SOL    HW137852   6.422  12.406   4.386  0.2211  1.2442  0.4188
75291SOL    HW237853   6.370  12.334   4.264  1.1207  0.1377  0.6747
75292SOL     OW37854   4.689   5.587  13.420 -0.4386 -0.3006  0.1271
75292SOL    HW137855   4.645   5.536  13.352 -1.4697  0.0526  0.5170
75292SOL    HW237856   4.669   5.541  13.501 -0.0965 -0.1264  0.3095
75293SOL     OW37857   1.091   5.009   8.414  0.3577  0.4424  0.3045
75293SOL    HW137858   1.146   5.074   8.458  1.0468 -0.8253  1.4111
75293SOL    HW237859   1.103   4.929   8.466 -0.4742 -0.5640 -0.9941
75294SOL     OW37860   6.446   9.156  13.075 -0.4463  0.1234 -0.5306
75294SOL    HW137861   6.418   9.215  13.005  0.3637 -0.0055 -0.9766
75294SOL    HW237862   6.461   9.214  13.150 -2.5515  0.1137 -0.0440
75295SOL     OW37863  12.768  10.166   4.106 -0.3347  0.6981  0.2770
75295SOL    HW137864  12.700  10.162   4.040  0.9364 -0.7299 -1.0221
75295SOL    HW237865  12.746  10.096   4.168 -0.5729  0.8839  0.4039
75296SOL     OW37866   0.310  13.114   0.884  0.3104  0.5182 -0.1725
75296SOL    HW137867   0.257  13.081   0.811 -1.3237  0.6232  0.9124
75296SOL    HW237868   0.374  13.045   0.900 -0.1854 -0.1133 -0.8323
75297SOL     OW37869  12.589  10.098   7.747 -0.5032 -0.0244 -0.0124
75297SOL    HW137870  12.523  10.126   7.684  0.0798  0.5650 -0.3790
75297SOL    HW237871  12.594  10.169   7.811 -0.0698  0.0417 -0.1138
75298SOL     OW37872   0.548  10.648   0.388 -0.1132  0.1752  0.2453
75298SOL    HW137873   0.521  10.565   0.349 -0.5859 -0.9394  2.8045
75298SOL    HW237874   0.643  10.643   0.392 -0.0452  0.3455 -0.7472
75299SOL     OW37875   6.847  13.960   1.854  0.0905 -0.3397  0.2018
75299SOL    HW137876   6.795  13.934   1.779  0.2332  2.8677 -1.1693
75299SOL    HW237877   6.937  13.935   1.831 -0.2497 -2.2846  0.8198
75300SOL     OW37878   0.439   2.306  11.244 -0.2583  0.0423  0.1431
75300SOL    HW137879   0.534   2.313  11.239  0.0303 -2.6525  0.2880
75300SOL    HW237880   0.419   2.316  11.338 -0.2037  1.1822  0.0422
75301SOL     OW37881  11.061   7.010  12.091  0.1196 -0.0015  0.4445
75301SOL    HW137882  11.153   6.999  12.066  0.4840  0.4633  1.5272
75301SOL    HW237883  11.059   7.090  12.142 -0.9658  0.1906  0.1238
75302SOL     OW37884   6.030   7.426   0.802 -0.4786  0.5328  0.3201
75302SOL    HW137885   6.049   7.351   0.857  1.3594  0.5800 -0.1783
75302SOL    HW237886   5.989   7.490   0.861  2.1258  0.8956  1.9125
75303SOL     OW37887   5.383   6.542   8.980  0.8743 -0.2985  0.7384
75303SOL    HW137888   5.331   6.583   8.911  0.2810 -1.5396  0.4198
75303SOL    HW237889   5.377   6.604   9.053 -0.1798  0.0965  0.3487
75304SOL     OW37890  10.736  11.735   1.249 -0.5303  0.3554  0.2429
75304SOL    HW137891  10.770  11.715   1.336 -0.6814 -0.1761  0.1871
75304SOL    HW237892  10.673  11.806   1.263  1.2128  1.9887  0.2274
75305SOL     OW37893   4.848   1.081   4.526 -0.7376  0.2176 -0.3560
75305SOL    HW137894   4.837   1.081   4.431 -0.3580 -0.5983 -0.4110
75305SOL    HW237895   4.908   1.008   4.543 -1.1507  0.0726  0.5490
75306SOL     OW37896   7.833   8.921  12.253 -0.4479  0.3798 -0.4267
75306SOL    HW137897   7.885   8.951  12.328  0.7717  0.4808 -1.2819
75306SOL    HW237898   7.786   8.844  12.286 -0.6133  0.9380  0.6804
75307SOL     OW37899   2.853  10.403  13.492  0.0996  0.4269 -0.4950
75307SOL    HW137900   2.863  10.482  13.439  1.0659  0.7304  0.1149
75307SOL    HW237901   2.789  10.427  13.559 -0.8637  0.1509 -1.3012
75308SOL     OW37902   2.029   3.981  13.177 -0.3649  0.1157 -0.5054
75308SOL    HW137903   2.119   4.007  13.197 -0.6283  0.5847  0.1161
75308SOL    HW237904   1.980   4.003  13.256 -1.0508 -0.0166 -0.8858
75309SOL     OW37905   0.091  11.967  13.428 -0.6308 -0.4211 -0.3390
75309SOL    HW137906   0.158  11.904  13.404 -0.6500  0.4030 -2.9287
75309SOL    HW237907   0.051  11.992  13.344 -2.8900  0.5274  0.9207
75310SOL     OW37908   8.101   0.491   0.645  0.1175 -0.4763 -0.4717
75310SOL    HW137909   8.039   0.488   0.572  1.2880  2.5231 -1.7819
75310SOL    HW237910   8.049   0.520   0.719 -0.7352 -1.7356 -0.5507
75311SOL     OW37911   7.794  12.924   6.566 -0.3666  0.2474 -0.5348
75311SOL    HW137912   7.699  12.928   6.576 -0.4147 -0.7636 -0.4976
75311SOL    HW237913   7.809  12.857   6.500  0.2709  1.6529 -1.8986
75312SOL     OW37914   6.800   6.914   9.973  0.9634  0.0370 -0.6015
75312SOL    HW137915   6.758   6.911   9.887  0.7086 -0.9848 -0.4557
75312SOL    HW237916   6.802   7.007   9.995  0.3091  0.2477 -1.3602
75313SOL     OW37917   9.773  13.103  11.541 -0.1597  0.1920 -0.3160
75313SOL    HW137918   9.836  13.037  11.569  1.9246  1.5507 -1.5640
75313SOL    HW237919   9.751  13.078  11.451  0.6744  1.1768 -0.8110
75314SOL     OW37920   6.547   1.521  10.630 -0.5326  0.5618 -0.8090
75314SOL    HW137921   6.571   1.438  10.670 -3.2104  0.3551  0.5896
75314SOL    HW237922   6.583   1.587  10.689 -2.6354  0.2659  0.9389
75315SOL     OW37923  13.884   0.400   1.222 -0.2304  0.4564  0.7065
75315SOL    HW137924  13.895   0.372   1.132  1.8960  0.3332  0.9538
75315SOL    HW237925  13.865   0.320   1.271 -3.3617  0.7521  0.1781
75316SOL     OW37926   2.827   6.937   4.482 -0.7914  0.5558  0.4602
75316SOL    HW137927   2.827   7.000   4.409  0.3200  1.0467  0.8647
75316SOL    HW237928   2.754   6.879   4.463 -2.2832  2.3653  0.4102
75317SOL     OW37929   9.372   7.203  10.829 -0.1775 -0.6905  0.6080
75317SOL    HW137930   9.324   7.133  10.784  2.2589 -1.6597 -0.7436
75317SOL    HW237931   9.425   7.157  10.894  0.4411  0.0603  0.6461
75318SOL     OW37932   5.481  10.342   9.200 -0.2740  0.4461  0.2806
75318SOL    HW137933   5.443  10.312   9.283 -0.7180 -1.4553 -0.5583
75318SOL    HW237934   5.458  10.274   9.137  0.8034  1.4152 -1.2310
75319SOL     OW37935  10.656   8.736   6.997  0.1913 -0.3075  0.1911
75319SOL    HW137936  10.711   8.659   6.985  0.0428 -0.3491 -0.2586
75319SOL    HW237937  10.574   8.714   6.952 -0.2298 -0.2792  0.9255
75320SOL     OW37938   6.656   7.948   4.253  0.2490 -0.2380 -0.2377
75320SOL    HW137939   6.640   8.018   4.190  0.8317  1.1487  1.1024
75320SOL    HW237940   6.568   7.916   4.276 -0.2295  1.8906  1.1127
75321SOL     OW37941   4.225  11.961   8.439 -0.0654 -0.0282 -0.2366
75321SOL    HW137942   4.258  11.906   8.510 -1.2345 -1.8212 -0.9982
75321SOL    HW237943   4.225  11.903   8.362 -1.9359  0.8070 -0.9320
75322SOL     OW37944   0.417   8.872  14.011 -0.5474 -0.3496  0.2976
75322SOL    HW137945   0.377   8.887  13.925  0.6078  0.9210 -0.0486
75322SOL    HW237946   0.434   8.959  14.045 -0.7691 -0.8472  1.7423
75323SOL     OW37947   9.279  12.326   0.237  0.1102  0.0175  0.3517
75323SOL    HW137948   9.245  12.414   0.230  0.0766 -0.0034  0.2575
75323SOL    HW237949   9.286  12.295   0.146  0.6150  0.1139  0.3556
75324SOL     OW37950   5.490  11.074   1.907 -0.4252 -0.5125  0.1086
75324SOL    HW137951   5.456  11.035   1.988  0.1587  1.8468  1.5883
75324SOL    HW237952   5.413  11.117   1.868 -0.6404 -1.3957 -0.4797
75325SOL     OW37953  12.317  12.194   7.484  0.3109  0.2524  0.0677
75325SOL    HW137954  12.255  12.261   7.453 -0.0379 -0.9170 -1.8669
75325SOL    HW237955  12.264  12.136   7.539 -0.4989 -1.0173 -1.9648
75326SOL     OW37956   8.963   2.519  10.863 -0.2690  0.3497 -0.2376
75326SOL    HW137957   9.018   2.465  10.921 -2.5903 -2.9237 -0.7830
75326SOL    HW237958   8.925   2.585  10.921  0.2855 -0.5593  1.2257
75327SOL     OW37959   2.755  13.362   8.950 -0.3572  0.9049  0.1275
75327SOL    HW137960   2.847  13.355   8.976  0.2656 -0.7683 -2.1517
75327SOL    HW237961   2.707  13.312   9.016  0.5087  0.8074  0.7022
75328SOL     OW37962  13.058   7.662  13.596 -0.2468 -0.1550 -0.1499
75328SOL    HW137963  12.997   7.718  13.549  0.0411 -1.1202 -1.7554
75328SOL    HW237964  13.003   7.597  13.639 -0.4453  0.0848 -0.0386
75329SOL     OW37965   6.938   4.593   3.583 -0.2169 -0.3486  0.0582
75329SOL    HW137966   6.921   4.542   3.662  1.7265  0.4779  1.0848
75329SOL    HW237967   6.874   4.561   3.519 -2.9439  0.0303  2.3887
75330SOL     OW37968  13.661   9.568   2.845 -0.0037 -0.0116  0.9323
75330SOL    HW137969  13.744   9.610   2.866  0.3709 -1.1802  1.9298
75330SOL    HW237970  13.595   9.617   2.894  0.1034  0.8084  0.2763
75331SOL     OW37971  11.401  13.100   8.032 -0.1951  0.2875  0.0077
75331SOL    HW137972  11.397  13.043   7.955 -1.3510 -0.7961  0.8436
75331SOL    HW237973  11.383  13.043   8.106  1.8987  1.1046  1.2457
75332SOL     OW37974   7.095   4.801  11.755 -0.5885  0.1486 -0.2176
75332SOL    HW137975   7.146   4.839  11.683  1.2742 -0.6464  0.6081
75332SOL    HW237976   7.049   4.875  11.794  0.8010  1.1142 -0.3406
75333SOL     OW37977   5.039   2.004   4.042  0.2493 -0.0124 -1.3044
75333SOL    HW137978   5.034   1.922   3.993 -0.3426 -0.4373 -0.5661
75333SOL    HW237979   5.089   1.981   4.121  0.2999  0.3981 -1.2175
75334SOL     OW37980   0.712   3.466   6.176 -0.0457 -0.2186  0.0260
75334SOL    HW137981   0.630   3.511   6.155  0.2404  0.1532 -0.3182
75334SOL    HW237982   0.780   3.522   6.139  0.2174 -2.1193 -2.6519
75335SOL     OW37983   2.663  11.146   1.807  0.1498 -0.5014 -0.2970
75335SOL    HW137984   2.651  11.072   1.867  2.2177 -1.2568 -0.6915
75335SOL    HW237985   2.669  11.105   1.720  1.4255  0.0837 -0.5093
75336SOL     OW37986  11.895  12.331  13.401  0.0608 -0.2848  0.0612
75336SOL    HW137987  11.906  12.426  13.409  0.4195 -0.2838 -0.4534
75336SOL    HW237988  11.803  12.319  13.379 -0.2649 -0.1242  1.2767
75337SOL     OW37989   5.669   6.591   1.792 -0.2680  0.3844  0.5640
75337SOL    HW137990   5.669   6.542   1.710  0.9090  1.0570  0.1414
75337SOL    HW237991   5.579   6.626   1.799 -0.1649  0.9904 -0.8625
75338SOL     OW37992   8.805   5.315   3.506  0.1697 -0.2427  0.1453
75338SOL    HW137993   8.806   5.255   3.431  1.0947  1.8669 -1.6212
75338SOL    HW237994   8.763   5.394   3.473  0.6246  0.7738  1.8704
75339SOL     OW37995   6.778   8.386   6.404  0.3640 -0.0463 -0.2078
75339SOL    HW137996   6.734   8.416   6.324 -1.7302  0.1216  0.9468
75339SOL    HW237997   6.755   8.294   6.411 -1.1133  0.3944  1.1871
75340SOL     OW37998  11.696  13.236  10.422 -0.4921  0.5498  0.1708
75340SOL    HW137999  11.775  13.240  10.369  0.0946  2.1185  1.0644
75340SOL    HW238000  11.692  13.322  10.465 -1.7710 -0.0872  1.4296
75341SOL     OW38001  13.871  13.537   5.484 -0.3762  0.3248  0.1084
75341SOL    HW138002  13.802  13.510   5.544  0.1312  0.3365  0.7166
75341SOL    HW238003  13.841  13.620   5.447  0.0487  1.2182  1.6644
75342SOL     OW38004  13.921   9.207   3.382  0.0461  0.2631  0.2179
75342SOL    HW138005  13.882   9.208   3.294 -0.2062  1.0577  0.3262
75342SOL    HW238006  13.856   9.162   3.436  0.4821 -0.7956 -0.1139
75343SOL     OW38007  13.815  11.130  12.423  0.1844  0.1641 -0.1892
75343SOL    HW138008  13.861  11.088  12.350  1.4456  0.5330  0.3693
75343SOL    HW238009  13.783  11.212  12.387  0.1456 -0.0015 -0.5350
75344SOL     OW38010   2.465   1.215   2.129 -0.4109 -0.6020 -1.2097
75344SOL    HW138011   2.507   1.157   2.066  1.3182  0.6835 -1.3352
75344SOL    HW238012   2.477   1.172   2.213 -0.7453 -1.2670 -1.4947
75345SOL     OW38013   5.509   3.675   2.061 -0.1508  0.2712 -0.0896
75345SOL    HW138014   5.602   3.655   2.057  0.1325  1.3913  0.5738
75345SOL    HW238015   5.467   3.593   2.085  0.5901 -0.3971 -1.0298
75346SOL     OW38016   5.795   9.506   5.502  0.1978 -0.1223 -0.1074
75346SOL    HW138017   5.851   9.554   5.563  0.7411  0.1746 -0.8189
75346SOL    HW238018   5.856   9.455   5.448 -0.2822 -0.5230 -0.2863
75347SOL     OW38019   4.142   0.436  12.295 -0.1658 -0.0429 -0.3288
75347SOL    HW138020   4.185   0.366  12.345  1.3616  0.6978 -0.5592
75347SOL    HW238021   4.093   0.484  12.361 -1.5887 -1.5360 -0.2264
75348SOL     OW38022  12.256   6.392  11.170  0.2223 -0.1848  0.1060
75348SOL    HW138023  12.224   6.482  11.178 -1.4942 -0.7548  0.0815
75348SOL    HW238024  12.304   6.391  11.087 -2.9067 -0.0940 -1.8935
75349SOL     OW38025   2.690  11.123   4.080 -0.3195  0.2211  0.0091
75349SOL    HW138026   2.663  11.204   4.037  0.1723  0.6766  0.5413
75349SOL    HW238027   2.659  11.132   4.170 -0.8266 -0.4700 -0.0825
75350SOL     OW38028   9.854   0.916   7.487 -0.6940 -0.0885 -0.3471
75350SOL    HW138029   9.791   0.843   7.486 -2.4244  1.2593  1.4085
75350SOL    HW238030   9.825   0.973   7.415 -0.0985 -0.5099 -0.9319
75351SOL     OW38031  13.721  11.025   1.829 -0.1383 -0.3298 -0.1288
75351SOL    HW138032  13.739  10.960   1.896 -2.0734  0.1258  0.9256
75351SOL    HW238033  13.801  11.077   1.822  0.9895 -2.0174 -0.1064
75352SOL     OW38034  13.745   7.673   6.510  0.1376 -0.4073  0.4682
75352SOL    HW138035  13.793   7.739   6.459  2.2414 -2.1780 -0.0224
75352SOL    HW238036  13.708   7.614   6.444 -0.7280 -0.3829  0.9209
75353SOL     OW38037   0.484   8.270   3.446  0.1631 -0.4534 -0.1747
75353SOL    HW138038   0.529   8.324   3.381  0.7955 -1.5058 -0.6457
75353SOL    HW238039   0.483   8.323   3.526 -1.5042  1.2710 -1.2561
75354SOL     OW38040   1.690  12.174   6.410 -0.7051  0.5022  0.0943
75354SOL    HW138041   1.666  12.251   6.359  0.0940  0.5797 -0.1816
75354SOL    HW238042   1.653  12.190   6.497 -1.3646  0.7480 -0.2205
75355SOL     OW38043  10.600   7.653  12.665 -0.3093  0.3269 -0.2037
75355SOL    HW138044  10.603   7.653  12.570  1.5215  1.4062 -0.1966
75355SOL    HW238045  10.657   7.581  12.692 -1.9377 -0.8890  0.1023
75356SOL     OW38046   6.168   1.573   8.001 -0.1623 -0.4848 -0.0221
75356SOL    HW138047   6.113   1.649   7.984  0.3254 -0.6133 -2.5932
75356SOL    HW238048   6.257   1.602   7.977  0.4175 -1.1985  1.1497
75357SOL     OW38049  13.221  11.868   3.561  0.0545  0.4303  0.0127
75357SOL    HW138050  13.243  11.894   3.650  0.7556  1.1841 -0.3709
75357SOL    HW238051  13.179  11.783   3.571 -0.1634  0.6458  1.0872
75358SOL     OW38052   4.624   5.597   1.423  0.0126 -0.2713 -0.5417
75358SOL    HW138053   4.677   5.518   1.427 -0.4048 -0.5129  0.8359
75358SOL    HW238054   4.560   5.587   1.493 -0.7502  0.7963 -1.0528
75359SOL     OW38055   1.561   2.861   3.805 -0.4685 -0.2845 -0.8080
75359SOL    HW138056   1.493   2.868   3.737 -0.5101 -1.3993 -0.8987
75359SOL    HW238057   1.584   2.768   3.806  0.4770 -0.0525 -0.2042
75360SOL     OW38058  11.218  12.537  13.227 -0.1152  0.0342 -0.4839
75360SOL    HW138059  11.246  12.469  13.166  0.9391  0.8712 -0.9694
75360SOL    HW238060  11.292  12.598  13.230 -0.1803  0.0803  1.5379
75361SOL     OW38061   4.111  11.096  12.480 -0.3195 -0.3058 -0.1660
75361SOL    HW138062   4.055  11.172  12.467 -1.3771 -1.0098  0.1454
75361SOL    HW238063   4.131  11.096  12.574 -3.1586 -2.2675  0.5572
75362SOL     OW38064   8.405  13.327   2.830 -0.8846  0.2595  0.5371
75362SOL    HW138065   8.486  13.348   2.783 -0.8456 -1.3766 -0.2114
75362SOL    HW238066   8.336  13.367   2.777 -0.7363 -0.4148 -0.1857
75363SOL     OW38067  13.479   8.630   0.324 -0.0501 -0.4038  0.0384
75363SOL    HW138068  13.470   8.715   0.367 -3.0406  0.7679 -2.4840
75363SOL    HW238069  13.503   8.652   0.234 -0.1256 -2.3074 -0.4847
75364SOL     OW38070  10.165   1.823   7.629  0.9432 -0.3069  0.5206
75364SOL    HW138071  10.228   1.817   7.701  1.5759 -0.5630 -0.0395
75364SOL    HW238072  10.213   1.869   7.559  0.6586 -0.8802 -0.0641
75365SOL     OW38073  11.866   6.312  11.712 -0.2801  0.0481 -0.1567
75365SOL    HW138074  11.945   6.267  11.741 -0.9787 -2.4147 -1.7824
75365SOL    HW238075  11.800   6.290  11.778 -0.6472 -1.5300 -0.9993
75366SOL     OW38076   5.326   4.713  12.763  0.5248 -0.3181 -0.1003
75366SOL    HW138077   5.335   4.676  12.851  1.5569 -1.0956 -0.5179
75366SOL    HW238078   5.408   4.759  12.748  0.3801 -0.2538 -0.6970
75367SOL     OW38079   2.754   5.062   9.087  0.2596 -0.8158  0.1926
75367SOL    HW138080   2.782   5.152   9.104 -1.9178 -0.1601  0.5857
75367SOL    HW238081   2.722   5.063   8.997  0.8256 -1.3685 -0.0187
75368SOL     OW38082   3.729   9.289   0.843  0.0939  0.3366 -0.2223
75368SOL    HW138083   3.691   9.210   0.804  1.7722  0.0820 -1.4398
75368SOL    HW238084   3.680   9.361   0.802  0.5424  0.0052 -1.4034
75369SOL     OW38085  12.018   3.315   0.737 -0.2863  0.9861  0.1380
75369SOL    HW138086  12.106   3.329   0.772  1.1287 -1.8202 -1.8857
75369SOL    HW238087  12.024   3.337   0.644 -0.6092 -2.3912 -0.8426
75370SOL     OW38088   5.329   1.437   7.113  0.1265 -0.2969 -0.1316
75370SOL    HW138089   5.371   1.500   7.055  2.1266 -4.0255 -3.1602
75370SOL    HW238090   5.235   1.450   7.098  0.5337 -0.0701 -3.2250
75371SOL     OW38091   3.108   3.407   3.943 -0.9321  0.1229  0.1327
75371SOL    HW138092   3.072   3.494   3.961 -2.4187 -0.4998  0.2538
75371SOL    HW238093   3.079   3.353   4.016 -2.6243 -1.1957 -1.4169
75372SOL     OW38094   1.246   1.108   3.747 -0.2381  0.2422  0.0019
75372SOL    HW138095   1.298   1.057   3.685  1.3327  0.9894  0.6354
75372SOL    HW238096   1.280   1.082   3.833 -0.8090  0.8723  0.4209
75373SOL     OW38097  11.248   9.043   0.546  0.2412 -0.0420 -0.4778
75373SOL    HW138098  11.178   8.979   0.558 -1.5417  1.9165  0.4260
75373SOL    HW238099  11.201   9.125   0.529  2.2728  1.5317  1.0012
75374SOL     OW38100   6.202   3.857   3.122  0.8888 -0.7646  0.0820
75374SOL    HW138101   6.288   3.897   3.129  1.2418 -1.6604  1.1820
75374SOL    HW238102   6.206   3.780   3.179 -0.0299 -1.9022 -1.3177
75375SOL     OW38103  14.037   1.406   1.007  0.4937  0.5341 -0.6075
75375SOL    HW138104  14.047   1.340   0.939  2.6244  1.7672 -1.6176
75375SOL    HW238105  14.097   1.380   1.076  1.1922  1.2593 -0.9206
75376SOL     OW38106   3.382   3.110  11.510  0.2249  0.1317 -0.5137
75376SOL    HW138107   3.302   3.130  11.559 -0.2596 -0.8079 -0.8943
75376SOL    HW238108   3.426   3.194  11.502 -1.4538  0.9631 -1.5741
75377SOL     OW38109   0.534   1.910  10.890  0.3410  0.0801  0.3722
75377SOL    HW138110   0.530   1.848  10.817  0.6798  2.2784 -1.6500
75377SOL    HW238111   0.443   1.930  10.910  0.2523 -0.0313  0.0808
75378SOL     OW38112  13.995   0.650   7.548  0.3494 -0.1755 -0.5646
75378SOL    HW138113  14.063   0.598   7.506  0.3276 -1.9492  1.4354
75378SOL    HW238114  13.919   0.641   7.491  1.0828 -0.2104 -1.5576
75379SOL     OW38115   5.807   2.365   1.111 -0.0249 -0.4941  0.3971
75379SOL    HW138116   5.832   2.456   1.097  1.7167 -0.5753  2.4380
75379SOL    HW238117   5.742   2.368   1.180 -0.3532 -0.7680  0.1022
75380SOL     OW38118   7.598   9.888  12.431 -0.0284  0.7025 -0.5999
75380SOL    HW138119   7.657   9.816  12.409  0.1601  0.8644 -0.6230
75380SOL    HW238120   7.645   9.967  12.406 -0.0960  0.8518 -0.2552
75381SOL     OW38121  13.330  13.105  12.125 -1.0967  0.1871 -0.6735
75381SOL    HW138122  13.299  13.015  12.112  0.1212 -0.6303  1.6114
75381SOL    HW238123  13.269  13.159  12.074 -2.6907 -1.8154 -1.0068
75382SOL     OW38124   2.383   0.322   7.559 -0.1767 -0.1581 -0.3401
75382SOL    HW138125   2.332   0.395   7.593  0.2314  0.8206 -1.7482
75382SOL    HW238126   2.418   0.278   7.637  1.6991  2.6725  0.5565
75383SOL     OW38127  10.645   8.716  11.379  0.6422 -0.2433  0.1517
75383SOL    HW138128  10.724   8.759  11.348  1.2651 -0.3448  1.5116
75383SOL    HW238129  10.600   8.686  11.300  3.2309 -2.4679 -0.6083
75384SOL     OW38130   4.312   0.396   2.473 -0.5575  0.3686  0.1745
75384SOL    HW138131   4.318   0.304   2.445  1.8200  0.3536  0.5292
75384SOL    HW238132   4.393   0.436   2.441  1.0942  1.0178  4.4968
75385SOL     OW38133   4.148   2.789   0.322  0.1455 -0.5060  0.4964
75385SOL    HW138134   4.149   2.875   0.364  2.4327  0.1274 -0.6595
75385SOL    HW238135   4.125   2.807   0.231 -1.3057 -1.4102  0.6578
75386SOL     OW38136   5.212   5.606   8.774  0.1614 -0.2625  0.0088
75386SOL    HW138137   5.259   5.661   8.710  0.4293 -0.8312 -0.2928
75386SOL    HW238138   5.206   5.521   8.732  0.8607 -0.8125  0.9725
75387SOL     OW38139   7.299  12.334  13.051 -0.0754 -0.7669 -0.1697
75387SOL    HW138140   7.205  12.335  13.032  0.0853 -1.4339 -1.0691
75387SOL    HW238141   7.341  12.349  12.966  0.6328 -0.4125  0.2347
75388SOL     OW38142  11.734  13.043  12.342  0.1991  0.3776 -0.0939
75388SOL    HW138143  11.695  12.997  12.417  1.4344  1.5838  1.3700
75388SOL    HW238144  11.726  12.982  12.269  1.8231 -2.2424  1.7443
75389SOL     OW38145  10.944   7.042   6.020  0.1329 -0.5465 -0.3152
75389SOL    HW138146  10.931   6.995   5.937 -0.1941  0.9464 -1.1653
75389SOL    HW238147  11.038   7.038   6.035  0.3662  0.1424 -1.4113
75390SOL     OW38148   0.140  13.960  11.494  0.3755  0.3440  0.2107
75390SOL    HW138149   0.046  13.969  11.507  0.3984  1.9959 -0.4984
75390SOL    HW238150   0.173  13.928  11.578 -0.7971 -0.2079  0.4837
75391SOL     OW38151   3.886   4.460  12.324 -0.0464 -0.6077 -0.2700
75391SOL    HW138152   3.956   4.519  12.295 -0.3410 -0.8435 -1.5210
75391SOL    HW238153   3.922   4.416  12.402  0.8838 -0.1404 -0.4205
75392SOL     OW38154   2.913   0.700   3.944  0.0430  0.6083 -0.3845
75392SOL    HW138155   2.945   0.670   4.029  0.7958 -0.5478 -1.0549
75392SOL    HW238156   2.992   0.717   3.893 -0.3497 -1.2325 -1.7034
75393SOL     OW38157   5.827   2.195   3.840  0.5557 -0.3994 -0.8606
75393SOL    HW138158   5.795   2.109   3.814  1.3697 -1.0329  0.1455
75393SOL    HW238159   5.886   2.178   3.913  2.1140  0.8363 -1.7428
75394SOL     OW38160   4.526   6.034   3.828  0.3028 -0.2848 -0.4838
75394SOL    HW138161   4.515   5.955   3.776 -1.7054 -1.0174  0.9345
75394SOL    HW238162   4.499   6.105   3.770 -1.9679 -1.0804 -0.4925
75395SOL     OW38163   3.888   0.681  12.958  0.3761 -0.1318  0.2155
75395SOL    HW138164   3.910   0.610  13.019  0.3677  0.5236  1.0076
75395SOL    HW238165   3.817   0.728  13.002  2.5205  2.3145  1.2894
75396SOL     OW38166  13.904   8.462   0.860  0.0112 -0.0411 -0.3301
75396SOL    HW138167  13.810   8.475   0.860  0.0400  0.3983  1.1282
75396SOL    HW238168  13.918   8.385   0.914  0.5485  0.7265  0.6634
75397SOL     OW38169  13.664   8.005   9.984  0.4949  0.1865  0.3323
75397SOL    HW138170  13.644   7.955   9.905 -2.1655 -1.4585  1.8873
75397SOL    HW238171  13.736   8.062   9.959 -0.1925 -0.3009 -3.2309
75398SOL     OW38172   8.198   7.144  13.188 -0.0053  0.5241  0.3634
75398SOL    HW138173   8.166   7.197  13.260  1.1528  0.4085  0.9863
75398SOL    HW238174   8.270   7.093  13.225  1.3836  1.2953 -1.1407
75399SOL     OW38175   2.854   7.820  11.667  0.3125 -0.2478  0.3082
75399SOL    HW138176   2.797   7.805  11.742  0.8190  0.6094  0.8814
75399SOL    HW238177   2.806   7.884  11.613  0.2424 -0.3649  0.2318
75400SOL     OW38178   3.787  11.857   0.066  0.3856 -0.4658 -0.0924
75400SOL    HW138179   3.853  11.789   0.077 -1.6794 -3.0740 -2.4295
75400SOL    HW238180   3.721  11.818   0.008 -3.0630  2.0677  1.7310
75401SOL     OW38181  11.074   0.982   9.916 -0.0277  0.4490  0.3340
75401SOL    HW138182  11.159   1.026   9.917  1.3843 -2.0763 -0.7542
75401SOL    HW238183  11.043   0.991   9.826  0.5595 -1.1885 -0.0632
75402SOL     OW38184   5.187   8.285  10.621 -0.5623 -0.1675  0.2669
75402SOL    HW138185   5.249   8.301  10.550 -0.4419  0.0298  0.4156
75402SOL    HW238186   5.208   8.197  10.653 -1.0924 -0.5556 -0.4171
75403SOL     OW38187   8.845   2.303   7.272 -0.2593  0.1523 -0.1784
75403SOL    HW138188   8.817   2.358   7.199 -0.5822  0.1097 -0.0884
75403SOL    HW238189   8.765   2.287   7.322  0.0544  0.6456  0.4996
75404SOL     OW38190   3.004  13.214  12.715  0.2108 -1.3243  0.4541
75404SOL    HW138191   2.971  13.136  12.670 -0.7919 -0.7645  0.1855
75404SOL    HW238192   2.938  13.232  12.782  1.2558 -1.6409  1.6087
75405SOL     OW38193   7.879   5.045   8.729 -0.0672 -0.4253 -0.0453
75405SOL    HW138194   7.784   5.039   8.714 -0.1620  0.2972  0.2388
75405SOL    HW238195   7.907   4.954   8.737 -0.8493 -0.6298  0.5488
75406SOL     OW38196   2.886  13.783   7.641  0.1353 -0.1648  0.2777
75406SOL    HW138197   2.889  13.722   7.568 -1.2994  1.2407 -1.0476
75406SOL    HW238198   2.976  13.812   7.654  0.6571 -1.7221  0.2210
75407SOL     OW38199   7.299   9.588  12.240 -0.2558 -0.0251 -0.1489
75407SOL    HW138200   7.240   9.603  12.167 -1.3390  2.2698  1.0931
75407SOL    HW238201   7.270   9.504  12.277 -0.5501 -0.5513 -1.5041
75408SOL     OW38202   8.618  12.283  10.967  0.1938 -0.4449 -0.2980
75408SOL    HW138203   8.586  12.215  10.907  0.0878  0.0251 -0.7779
75408SOL    HW238204   8.656  12.350  10.911 -0.1641  0.1388  0.1303
75409SOL     OW38205   5.106   7.528   2.847 -0.2894  0.3653 -0.0141
75409SOL    HW138206   5.165   7.596   2.880 -1.0901  1.1179 -0.0828
75409SOL    HW238207   5.019   7.567   2.853 -0.6112 -0.0075 -1.6571
75410SOL     OW38208   1.583  12.297  10.913 -0.0743  0.0612  0.7958
75410SOL    HW138209   1.560  12.384  10.944 -1.4249  1.9308 -4.3174
75410SOL    HW238210   1.517  12.239  10.952 -1.0118  1.8533  1.9914
75411SOL     OW38211   0.587   2.807  11.826  0.1318  0.4969 -0.0211
75411SOL    HW138212   0.621   2.827  11.738  1.1869 -1.1644 -0.0471
75411SOL    HW238213   0.614   2.716  11.841 -0.8833  0.4428  1.6392
75412SOL     OW38214   9.976   7.375  11.081  0.0834 -0.0301 -0.0655
75412SOL    HW138215  10.068   7.402  11.083  0.4722 -1.1121 -1.4015
75412SOL    HW238216   9.979   7.280  11.089 -0.8195 -0.1828 -1.2517
75413SOL     OW38217   8.273   5.428   0.695  0.2779  0.2517 -0.0076
75413SOL    HW138218   8.333   5.355   0.678 -0.3711 -0.0335 -1.1083
75413SOL    HW238219   8.306   5.466   0.776  1.7107 -0.1535 -0.3666
75414SOL     OW38220  11.919   3.647  12.301 -0.0974 -0.1145 -0.4408
75414SOL    HW138221  11.886   3.626  12.214 -0.3565  1.1608 -0.6646
75414SOL    HW238222  11.993   3.706  12.286 -1.3231  1.6809  0.2143
75415SOL     OW38223   7.397   8.327  13.288 -0.6369 -0.3143 -0.0699
75415SOL    HW138224   7.390   8.414  13.326  1.4811  0.3424 -1.0899
75415SOL    HW238225   7.431   8.341  13.200  2.0039 -2.2568  0.5232
75416SOL     OW38226   0.031   5.113  10.684  0.2829 -0.2078 -0.5402
75416SOL    HW138227  -0.007   5.093  10.770 -2.5848 -1.6681 -1.9900
75416SOL    HW238228   0.111   5.061  10.680  2.2204  2.2522  2.3157
75417SOL     OW38229   4.612   1.206   7.080  0.1883 -0.1162 -0.3596
75417SOL    HW138230   4.676   1.241   7.141  0.9977 -2.3765  0.1772
75417SOL    HW238231   4.663   1.161   7.013 -0.7956 -1.1056 -0.4828
75418SOL     OW38232  11.112   8.054   3.105  0.0419 -0.4743  0.4442
75418SOL    HW138233  11.149   8.130   3.149  0.5047 -0.8854  0.7711
75418SOL    HW238234  11.113   8.077   3.012 -1.5541  0.6640  0.6715
75419SOL     OW38235   7.999   4.487  13.540  0.1163 -0.6515  0.1725
75419SOL    HW138236   7.998   4.425  13.613  1.1571 -0.3759  0.4285
75419SOL    HW238237   7.910   4.482  13.504 -0.1672 -1.3995  0.9349
75420SOL     OW38238   3.882   9.358  12.507 -0.1790 -0.3544 -0.2262
75420SOL    HW138239   3.799   9.333  12.465 -0.3592 -1.9423  0.9884
75420SOL    HW238240   3.881   9.454  12.506 -1.8336 -0.3433 -0.6278
75421SOL     OW38241   1.609   3.032   5.412  0.3473 -0.5141  0.3024
75421SOL    HW138242   1.671   2.982   5.360  0.9221 -1.3704  1.7521
75421SOL    HW238243   1.653   3.116   5.427  0.2443 -0.3209 -0.4258
75422SOL     OW38244   0.218   3.899   6.309 -0.8580 -0.1068  0.4704
75422SOL    HW138245   0.217   3.962   6.382  0.3785  0.5055 -0.0133
75422SOL    HW238246   0.264   3.823   6.343  0.6249  0.5673  0.0631
75423SOL     OW38247  10.264   8.539   6.662 -0.1590 -0.3136  0.6293
75423SOL    HW138248  10.340   8.480   6.654 -0.4003 -0.5294 -0.0894
75423SOL    HW238249  10.192   8.490   6.622 -0.4303  0.3504  0.3025
75424SOL     OW38250   1.727   9.311  13.041 -0.1210 -0.6448 -0.7955
75424SOL    HW138251   1.781   9.358  12.978 -0.8035  0.9273 -0.2535
75424SOL    HW238252   1.671   9.254  12.988  0.5335 -0.6602 -1.4794
75425SOL     OW38253   5.362  10.243  12.689  0.1232  0.2085 -0.4102
75425SOL    HW138254   5.372  10.329  12.731  1.4314  0.4625 -1.1925
75425SOL    HW238255   5.319  10.263  12.606  0.2923  0.0926 -0.5258
75426SOL     OW38256   1.105   9.994  11.417  0.0677 -0.4554  0.6519
75426SOL    HW138257   1.117  10.080  11.457 -1.0987 -0.4515  1.0322
75426SOL    HW238258   1.038   9.952  11.470  0.5493 -1.5708  0.4070
75427SOL     OW38259  10.375  13.357   1.771 -0.8798 -0.2158 -0.0131
75427SOL    HW138260  10.308  13.409   1.816 -0.5748 -0.0209  0.2170
75427SOL    HW238261  10.355  13.367   1.678  1.1856  3.1784 -0.2602
75428SOL     OW38262   3.626  10.221  10.801  0.1732 -0.7186  0.2763
75428SOL    HW138263   3.594  10.226  10.711 -0.9791 -2.4080  0.5554
75428SOL    HW238264   3.702  10.163  10.797  1.1339  0.4953  0.1770
75429SOL     OW38265   0.324   0.597   0.999 -0.0845 -0.4142  0.2938
75429SOL    HW138266   0.271   0.593   0.919  0.0699 -0.5483  0.1988
75429SOL    HW238267   0.277   0.659   1.055  0.0061 -0.0377 -0.0457
75430SOL     OW38268   9.927   0.391   4.729 -0.5027  0.6048  0.1197
75430SOL    HW138269   9.934   0.350   4.643 -2.0287 -1.4784  0.9046
75430SOL    HW238270   9.898   0.481   4.710  0.0079  0.4604 -1.5394
75431SOL     OW38271  10.584   3.526   6.659  0.4587  0.5640  0.2316
75431SOL    HW138272  10.585   3.537   6.755  0.5414 -0.7765  0.4021
75431SOL    HW238273  10.575   3.432   6.646 -2.2444  0.9278 -1.1167
75432SOL     OW38274  11.900   7.822  12.039 -0.3001 -0.3094 -0.5496
75432SOL    HW138275  11.984   7.800  11.999  1.1969  0.5758  1.8967
75432SOL    HW238276  11.865   7.893  11.984  0.5295 -0.7165 -1.6225
75433SOL     OW38277   6.595   8.766   0.316  0.2110  0.0606 -0.5001
75433SOL    HW138278   6.661   8.698   0.305 -0.6269 -0.6902 -1.0151
75433SOL    HW238279   6.641   8.848   0.297  1.0920 -0.4025 -0.4218
75434SOL     OW38280   0.269   4.907   4.159  0.6697  0.4459 -0.2387
75434SOL    HW138281   0.222   4.845   4.215 -0.7580  1.7489  0.0866
75434SOL    HW238282   0.233   4.893   4.072 -0.7248  1.7424  0.0866
75435SOL     OW38283  12.767  11.466   3.095 -0.3210  0.3193 -0.1306
75435SOL    HW138284  12.713  11.411   3.039 -1.4640  0.2988  0.9307
75435SOL    HW238285  12.830  11.407   3.136  0.7332  0.3848 -1.5828
75436SOL     OW38286   3.515   9.042   4.659  0.0288  0.4952 -0.4482
75436SOL    HW138287   3.456   8.987   4.711  0.5773  1.6796  1.5610
75436SOL    HW238288   3.480   9.131   4.670  2.3449  1.3154  1.2153
75437SOL     OW38289  13.869   2.251  12.315  0.4275  0.1339 -0.3608
75437SOL    HW138290  13.895   2.167  12.278 -1.3557 -0.8647  0.5092
75437SOL    HW238291  13.949   2.304  12.313  0.8175 -0.3056 -4.2183
75438SOL     OW38292  12.313  10.632   2.297  0.2469 -1.0186  0.2031
75438SOL    HW138293  12.313  10.706   2.236  1.8513 -0.9251  0.2741
75438SOL    HW238294  12.284  10.558   2.244 -0.5849 -0.5032 -0.0792
75439SOL     OW38295   4.068   3.433   3.645  0.3505  0.4313  0.3567
75439SOL    HW138296   3.995   3.493   3.661  0.3932  0.0803  2.0515
75439SOL    HW238297   4.142   3.473   3.691  1.7634  1.6600 -2.6815
75440SOL     OW38298   2.120   7.321   4.395  0.0844 -0.3574  0.1804
75440SOL    HW138299   2.153   7.383   4.330  2.5797 -1.8320 -0.1130
75440SOL    HW238300   2.064   7.373   4.452 -0.0382  1.5576 -1.5584
75441SOL     OW38301   0.288  13.475  12.956 -0.5931  0.0983 -0.2054
75441SOL    HW138302   0.257  13.416  13.025  0.2664  1.6806  1.6159
75441SOL    HW238303   0.371  13.510  12.989  1.1976 -0.9137 -3.1308
75442SOL     OW38304   7.795  12.486   4.599  0.1998  0.0535 -0.4104
75442SOL    HW138305   7.872  12.457   4.648 -0.7187 -2.1971 -0.1771
75442SOL    HW238306   7.773  12.571   4.637 -0.6242 -1.6659  3.4396
75443SOL     OW38307   7.949  12.712   3.462  0.3690 -0.5749  0.5263
75443SOL    HW138308   7.874  12.723   3.520 -0.3151  1.6097 -0.6867
75443SOL    HW238309   8.022  12.752   3.510  0.1784 -0.3140  0.6015
75444SOL     OW38310  13.992  11.539   6.091  0.4264  0.0425  0.2894
75444SOL    HW138311  14.019  11.507   6.005 -0.7757  0.3236 -0.2108
75444SOL    HW238312  13.947  11.465   6.132  1.3504 -0.2216  0.8626
75445SOL     OW38313   4.188   2.302   1.847 -0.0181  0.4964  0.2624
75445SOL    HW138314   4.260   2.365   1.851 -1.1219  1.7756  0.1789
75445SOL    HW238315   4.219   2.235   1.785  0.9059  1.2506 -0.1145
75446SOL     OW38316   1.420   4.378   7.651  0.1218 -0.1730 -0.0190
75446SOL    HW138317   1.336   4.332   7.658 -0.6365  1.2253  0.5482
75446SOL    HW238318   1.414   4.427   7.569  0.1481  0.3582  0.2900
75447SOL     OW38319   8.395   4.376  12.995 -0.6542 -0.6728 -0.0698
75447SOL    HW138320   8.414   4.463  13.030 -0.7438 -0.2723 -0.9923
75447SOL    HW238321   8.476   4.350  12.952 -0.0178 -1.8210  1.6817
75448SOL     OW38322   2.146   0.316   9.865 -0.1262 -0.3292  0.0096
75448SOL    HW138323   2.128   0.279   9.952 -0.6260  0.0680  0.0821
75448SOL    HW238324   2.060   0.333   9.828  0.0883  0.4906 -0.1376
75449SOL     OW38325   9.275   1.662  11.449 -0.5773 -0.3300 -0.2214
75449SOL    HW138326   9.346   1.715  11.413 -0.8139 -0.0084 -0.2149
75449SOL    HW238327   9.320   1.596  11.501 -0.2721 -0.2419 -0.3677
75450SOL     OW38328  13.291   1.319   6.222  0.5149  0.3356  0.1125
75450SOL    HW138329  13.284   1.225   6.203 -0.0475 -0.0701  2.1046
75450SOL    HW238330  13.251   1.362   6.145  2.0610 -0.9444 -1.4947
75451SOL     OW38331  11.577   6.196  12.731  0.0158  0.6755  0.2724
75451SOL    HW138332  11.625   6.114  12.723  1.0731  1.3152 -0.2741
75451SOL    HW238333  11.510   6.179  12.797 -1.0501 -1.1894 -1.1777
75452SOL     OW38334   6.558   4.254  12.561 -0.1379  0.4700  0.1441
75452SOL    HW138335   6.560   4.170  12.516 -3.7229  0.9500 -1.2391
75452SOL    HW238336   6.562   4.231  12.654 -2.3528 -1.4162 -0.1350
75453SOL     OW38337  12.588   0.975   9.792  0.0823  0.0293  0.0065
75453SOL    HW138338  12.582   0.987   9.887 -0.2852  0.8629 -0.1152
75453SOL    HW238339  12.531   0.900   9.774  0.6004 -0.4975  0.5039
75454SOL     OW38340  12.967   1.833   2.043  0.1050  0.1221  0.2102
75454SOL    HW138341  12.912   1.880   2.106 -0.9402 -1.1804  0.3278
75454SOL    HW238342  12.924   1.846   1.959 -1.4879 -2.2845  0.5266
75455SOL     OW38343   2.017   6.528   5.945  0.3087  0.2810  0.2806
75455SOL    HW138344   1.967   6.469   6.002 -0.2034  0.8734  0.4508
75455SOL    HW238345   1.957   6.550   5.875  0.5253  0.5480  0.1781
75456SOL     OW38346   4.009   6.367  13.768 -0.6962  0.1386  0.4584
75456SOL    HW138347   3.977   6.296  13.824 -1.1102  2.0260  2.8258
75456SOL    HW238348   4.094   6.391  13.806 -0.6397  1.0179 -0.1877
75457SOL     OW38349  10.155   7.072   0.639 -0.3160  0.2536  0.3385
75457SOL    HW138350  10.143   7.160   0.603  0.4978  0.9675  1.7541
75457SOL    HW238351  10.084   7.063   0.703 -0.5912 -0.2506 -0.0363
75458SOL     OW38352   0.988   1.262   8.815 -0.3187  0.8081  0.2146
75458SOL    HW138353   0.901   1.278   8.777 -0.0785 -0.6019 -1.0652
75458SOL    HW238354   1.021   1.187   8.765  0.5308 -0.4097  2.4786
75459SOL     OW38355   9.636   2.238  10.261  0.3877  0.6027 -0.8169
75459SOL    HW138356   9.543   2.250  10.281  0.4331  0.0862 -0.2514
75459SOL    HW238357   9.637   2.183  10.183  0.2004 -1.1558  0.3543
75460SOL     OW38358  11.047   9.033   7.672  0.2676 -0.1270 -0.1948
75460SOL    HW138359  10.975   9.076   7.625  0.6368  0.5075 -0.1834
75460SOL    HW238360  11.003   8.968   7.728 -0.3841  0.9220  0.5501
75461SOL     OW38361  10.868  12.879  13.036 -0.5963  0.2604 -0.4703
75461SOL    HW138362  10.829  12.815  13.095 -0.6923  0.4285 -0.3489
75461SOL    HW238363  10.929  12.928  13.091 -0.0441 -0.1433 -0.7042
75462SOL     OW38364  10.492   0.467   3.589 -0.4349 -0.3737  0.3582
75462SOL    HW138365  10.507   0.445   3.681 -1.1717  0.7035  0.7689
75462SOL    HW238366  10.550   0.409   3.540  2.2153  1.0331  1.6171
75463SOL     OW38367   9.708   3.216   5.332  0.1465 -0.2418 -0.1406
75463SOL    HW138368   9.646   3.217   5.260  0.5558 -0.1926 -0.4925
75463SOL    HW238369   9.757   3.298   5.324 -0.7632  0.4588  1.0363
75464SOL     OW38370   4.335   3.997   7.498 -0.5072  0.4545 -0.4915
75464SOL    HW138371   4.319   4.030   7.587  0.7375  1.1232 -0.5009
75464SOL    HW238372   4.334   4.074   7.443  1.4714  0.4172 -0.6513
75465SOL     OW38373   8.039   7.803   5.154  0.4282 -0.0274  0.7051
75465SOL    HW138374   8.061   7.890   5.186 -0.6112  0.2817  0.6249
75465SOL    HW238375   7.951   7.786   5.187 -1.1573  0.7153 -2.6505
75466SOL     OW38376   1.312   2.509  10.417  0.1205 -0.1232  0.0422
75466SOL    HW138377   1.331   2.593  10.374 -2.5868 -0.2683 -1.6499
75466SOL    HW238378   1.288   2.533  10.506  2.0146  0.5723  0.4164
75467SOL     OW38379   0.867   1.555   0.415 -0.5579 -0.1202  0.0101
75467SOL    HW138380   0.956   1.574   0.444 -1.0056 -1.8549  2.7949
75467SOL    HW238381   0.863   1.460   0.408 -1.9610 -0.0255 -0.9723
75468SOL     OW38382   9.117   0.248  10.398 -0.0931  0.1854  0.6786
75468SOL    HW138383   9.165   0.317  10.443  1.4036 -1.9247  2.5715
75468SOL    HW238384   9.025   0.268  10.415  0.3163  1.4745  1.5657
75469SOL     OW38385  12.244   8.156   2.615 -0.2709 -0.5993 -0.1671
75469SOL    HW138386  12.280   8.070   2.595  0.1720 -0.8037  1.3425
75469SOL    HW238387  12.279   8.213   2.546  1.1894 -1.2260  0.0066
75470SOL     OW38388   0.958  12.124  13.697  0.2029  0.4054 -0.4790
75470SOL    HW138389   0.888  12.120  13.762 -0.6116 -1.6869 -1.3845
75470SOL    HW238390   0.935  12.198  13.641  0.2222  1.4193  0.8314
75471SOL     OW38391   1.863  12.277   6.117  0.8199 -0.0155  0.1029
75471SOL    HW138392   1.827  12.200   6.074 -0.5532  1.1658 -0.9321
75471SOL    HW238393   1.926  12.241   6.180 -0.5525 -2.0387  0.4362
75472SOL     OW38394  10.895   9.471   3.880 -0.4459 -0.0193  0.2530
75472SOL    HW138395  10.951   9.549   3.880 -0.9284  0.3540  1.4406
75472SOL    HW238396  10.955   9.398   3.890 -0.0234  0.2348 -0.3857
75473SOL     OW38397   6.709   3.819   4.062  0.3074  0.3398  0.1426
75473SOL    HW138398   6.695   3.847   3.972  0.9866  2.4451  0.6380
75473SOL    HW238399   6.778   3.752   4.056 -0.5491 -0.4839 -0.9728
75474SOL     OW38400   3.148   4.602   6.623  0.5344 -0.4026  0.3824
75474SOL    HW138401   3.092   4.589   6.546  0.6877 -0.5152  0.2884
75474SOL    HW238402   3.146   4.696   6.639 -0.5232 -0.5146  1.0184
75475SOL     OW38403   5.351  13.611   3.400 -0.2833 -0.0965 -0.7867
75475SOL    HW138404   5.416  13.597   3.469 -0.1967 -0.8554 -1.0167
75475SOL    HW238405   5.388  13.682   3.347 -1.2990  1.9925  1.0890
75476SOL     OW38406  13.245   3.938  12.483  0.0903  0.2523 -0.3394
75476SOL    HW138407  13.305   3.996  12.437 -1.7276  1.6786 -1.0435
75476SOL    HW238408  13.159   3.956  12.444 -1.0518 -0.6089  1.6139
75477SOL     OW38409   7.747   9.189  11.657  0.0524 -0.2781 -0.1495
75477SOL    HW138410   7.659   9.151  11.652 -0.4723  0.8351  0.4567
75477SOL    HW238411   7.772   9.182  11.749 -0.2119  1.1412  0.0593
75478SOL     OW38412   5.634   0.600   1.059  0.6511  0.4105  0.0858
75478SOL    HW138413   5.548   0.590   1.098  0.6628 -1.1219 -0.2315
75478SOL    HW238414   5.646   0.521   1.005  2.5774  0.1772  0.7823
75479SOL     OW38415   2.839   3.700  12.450  0.4710  0.8319  0.1474
75479SOL    HW138416   2.815   3.744  12.368  0.3739 -0.2048 -0.4003
75479SOL    HW238417   2.859   3.610  12.423 -1.5765 -0.0915  1.5403
75480SOL     OW38418  11.275   3.705   6.958 -0.3485 -0.5399 -0.5335
75480SOL    HW138419  11.315   3.704   7.045  0.6244 -1.0972 -0.9700
75480SOL    HW238420  11.234   3.791   6.952 -0.1219 -0.3594  0.3403
75481SOL     OW38421   4.162   1.084   8.893  0.3780 -0.4201 -0.5336
75481SOL    HW138422   4.131   1.004   8.851  0.4222  0.0726 -1.5434
75481SOL    HW238423   4.096   1.150   8.871  1.8569  0.5569 -2.4005
75482SOL     OW38424   5.353   6.323  10.510 -0.2556 -0.0248 -0.4923
75482SOL    HW138425   5.335   6.333  10.416  0.8481  0.1755 -0.6946
75482SOL    HW238426   5.414   6.394  10.530  0.8641 -1.0944 -0.0107
75483SOL     OW38427  10.562  10.693   2.855 -1.0565  0.4568 -0.0189
75483SOL    HW138428  10.488  10.666   2.801 -0.4019 -2.5914  0.4294
75483SOL    HW238429  10.575  10.621   2.916  0.5364  2.1623  1.7986
75484SOL     OW38430   7.855  10.287   9.143 -0.9567  0.1545  0.1286
75484SOL    HW138431   7.823  10.321   9.227 -0.4107  2.2692 -0.4663
75484SOL    HW238432   7.786  10.307   9.081 -1.4156 -1.5222  0.0530
75485SOL     OW38433  12.798   2.698  13.370 -0.2525 -0.0412  0.0502
75485SOL    HW138434  12.822   2.710  13.461 -0.8461 -0.5086  0.2811
75485SOL    HW238435  12.790   2.786  13.334  0.1910  0.1385  0.3918
75486SOL     OW38436   0.896   3.585   3.961  0.6034 -0.3123 -0.4192
75486SOL    HW138437   0.952   3.518   3.999 -0.0525 -0.6079  0.0377
75486SOL    HW238438   0.851   3.541   3.888  0.0747 -0.4216 -0.0379
75487SOL     OW38439   3.459   1.223  13.978  0.1138 -0.1718 -0.6108
75487SOL    HW138440   3.367   1.216  13.952  0.2265 -1.1825 -0.7712
75487SOL    HW238441   3.507   1.177  13.909  0.8670  1.3905 -1.1800
75488SOL     OW38442   5.899   7.978   6.374 -0.2588  0.5239  0.2447
75488SOL    HW138443   5.914   8.064   6.413 -0.7857  1.3141 -1.2343
75488SOL    HW238444   5.980   7.960   6.326 -0.0559  0.0671  0.7461
75489SOL     OW38445  12.948   1.553   2.995 -0.1228  0.1673  0.6735
75489SOL    HW138446  12.885   1.526   2.928 -0.5165  0.6585  0.8403
75489SOL    HW238447  13.013   1.483   2.997  1.3736  1.3218 -2.1164
75490SOL     OW38448   8.252  10.240  11.725  0.5771  0.3775  0.2155
75490SOL    HW138449   8.188  10.251  11.796 -0.9688  1.2645 -1.2499
75490SOL    HW238450   8.288  10.327  11.711  1.0557  0.1585  0.0660
75491SOL     OW38451   4.052   5.591   8.462 -0.2560 -0.4859 -0.2342
75491SOL    HW138452   4.100   5.667   8.430 -2.7606  0.7892 -1.2276
75491SOL    HW238453   4.048   5.532   8.387 -1.1422 -0.0981 -0.5000
75492SOL     OW38454   0.424   3.875   4.130  0.6892  0.3390  0.0372
75492SOL    HW138455   0.424   3.829   4.214  0.3466  2.2035  1.1104
75492SOL    HW238456   0.516   3.881   4.106  1.0134  1.7801  1.4641
75493SOL     OW38457   8.953  13.587  11.098  0.4737  0.1093  0.3139
75493SOL    HW138458   8.979  13.676  11.076  0.0847  0.1366 -0.0362
75493SOL    HW238459   8.897  13.559  11.026 -0.1664 -0.0803  0.8719
75494SOL     OW38460   5.779  11.582   7.495  0.2359 -0.0054 -0.5330
75494SOL    HW138461   5.852  11.572   7.433  1.0713  0.2920  0.3725
75494SOL    HW238462   5.806  11.654   7.552  0.2076 -1.2506  1.1359
75495SOL     OW38463   5.070   3.326   6.430 -0.9818  0.1768 -0.0735
75495SOL    HW138464   5.020   3.407   6.426 -1.8487 -0.3796 -0.7669
75495SOL    HW238465   5.036   3.273   6.359  0.0378 -0.5437 -0.0485
75496SOL     OW38466   6.482   4.420   9.258 -0.6643 -0.3808 -0.2178
75496SOL    HW138467   6.469   4.336   9.215 -1.0325 -0.8691  0.8194
75496SOL    HW238468   6.534   4.471   9.195 -2.7691 -0.3529 -2.0700
75497SOL     OW38469   1.869   6.262  12.492 -0.1887  0.1815 -0.0132
75497SOL    HW138470   1.810   6.222  12.427  0.4077  0.8208 -0.9861
75497SOL    HW238471   1.945   6.290  12.440  1.5581 -1.7011  1.3822
75498SOL     OW38472  13.267  11.066   7.872  0.0825  0.0786  0.1024
75498SOL    HW138473  13.314  11.051   7.954  0.2417  2.1789  0.4406
75498SOL    HW238474  13.176  11.045   7.893  0.2319 -0.0639  0.6244
75499SOL     OW38475   6.520   1.625  10.071  0.2511 -0.1775  0.0737
75499SOL    HW138476   6.468   1.637  10.150 -0.3869 -0.2160 -0.3344
75499SOL    HW238477   6.539   1.714  10.041  1.0507 -0.1540  0.6219
75500SOL     OW38478   9.166   9.508  13.127 -0.8754  0.1722 -0.1013
75500SOL    HW138479   9.211   9.569  13.185 -0.6137 -0.8061  0.7441
75500SOL    HW238480   9.134   9.439  13.184 -0.7707 -0.7268 -1.0924
75501SOL     OW38481   4.659   6.419   9.553  0.6847  0.1718 -0.6735
75501SOL    HW138482   4.737   6.373   9.585 -1.4502 -2.8281  0.6877
75501SOL    HW238483   4.646   6.490   9.617  1.1118 -0.6404  0.3457
75502SOL     OW38484  11.929   4.776   4.083 -0.1380 -0.6551 -0.4430
75502SOL    HW138485  11.960   4.708   4.143  0.3531  0.0005  0.0489
75502SOL    HW238486  12.000   4.788   4.020 -0.3772 -0.8550 -0.7582
75503SOL     OW38487   2.756   4.092  10.371 -0.0646  0.2533 -0.4041
75503SOL    HW138488   2.809   4.059  10.299  0.0887  2.4065 -1.3538
75503SOL    HW238489   2.665   4.078  10.343 -0.0035  0.2894 -0.6209
75504SOL     OW38490  10.324   7.058  10.637  0.2731  0.2595 -0.2922
75504SOL    HW138491  10.283   6.972  10.653 -0.0999  0.3973 -0.4773
75504SOL    HW238492  10.386   7.041  10.566  0.8906 -0.0506  0.3129
75505SOL     OW38493   2.697   5.528   4.202  0.1142  0.3834 -0.1080
75505SOL    HW138494   2.603   5.517   4.194 -0.0862  2.2553 -0.9827
75505SOL    HW238495   2.708   5.609   4.252  1.2618 -0.0252  0.3429
75506SOL     OW38496   9.391   9.860   8.153  0.1924  0.1623  0.1243
75506SOL    HW138497   9.453   9.789   8.140 -0.0811 -0.0725  0.1042
75506SOL    HW238498   9.316   9.820   8.198 -0.1893  0.3245 -0.3570
75507SOL     OW38499  13.473   8.669  12.213 -0.4662  0.3358 -0.1255
75507SOL    HW138500  13.480   8.668  12.117 -0.5953  1.8870 -0.1837
75507SOL    HW238501  13.487   8.761  12.236  1.9621 -0.3799  1.5564
75508SOL     OW38502   3.527   0.501   5.019 -0.7231  0.5020 -0.2741
75508SOL    HW138503   3.612   0.480   5.057 -0.7040  2.1580  0.7018
75508SOL    HW238504   3.512   0.433   4.954  0.3322 -1.0848  1.0582
75509SOL     OW38505  12.818   8.288   1.371 -0.5061 -0.1013 -0.2069
75509SOL    HW138506  12.857   8.237   1.442 -1.8955 -0.2888  0.4572
75509SOL    HW238507  12.744   8.334   1.411 -0.2634  1.1876 -1.1527
75510SOL     OW38508   7.951  13.960  12.119  0.3588 -0.1341 -0.4907
75510SOL    HW138509   7.872  14.012  12.105  0.6813  0.4064 -0.3460
75510SOL    HW238510   8.004  14.014  12.177  0.9757 -0.3420 -0.8548
75511SOL     OW38511   5.204  10.994  12.905 -0.3937  0.3591  0.5671
75511SOL    HW138512   5.262  11.056  12.949  0.7870 -0.2901 -0.0328
75511SOL    HW238513   5.141  11.049  12.859 -1.7673  1.0818  3.0914
75512SOL     OW38514   0.126   8.975   4.022  0.0427  0.0642 -0.1950
75512SOL    HW138515   0.116   9.063   4.057 -1.1169 -0.2706  0.3684
75512SOL    HW238516   0.188   8.932   4.081 -2.3991 -0.7125  2.0200
75513SOL     OW38517   3.022   6.427   8.533 -0.0748  0.2852  0.4911
75513SOL    HW138518   3.060   6.381   8.608  0.7004 -0.7047 -0.4767
75513SOL    HW238519   3.052   6.377   8.457 -1.1750  1.0309 -0.4614
75514SOL     OW38520  10.480   5.562   2.195 -0.3165  0.1458 -0.2596
75514SOL    HW138521  10.520   5.603   2.119  0.0777  0.9578  0.3767
75514SOL    HW238522  10.415   5.502   2.158  0.8018 -0.4753 -1.2686
75515SOL     OW38523   4.582   5.467  10.814 -1.1848 -0.7974  0.1442
75515SOL    HW138524   4.669   5.427  10.809 -0.1554  1.3622 -0.8892
75515SOL    HW238525   4.570   5.508  10.728 -2.9991 -0.5688  0.4769
75516SOL     OW38526   8.630   4.968   3.593 -0.3559 -0.0870 -0.6367
75516SOL    HW138527   8.559   4.912   3.625 -0.2204 -0.2913 -0.6979
75516SOL    HW238528   8.684   4.911   3.540  0.6063 -0.2538  0.4875
75517SOL     OW38529   7.127  13.383  10.501  0.2212 -0.5433  0.3481
75517SOL    HW138530   7.116  13.339  10.417 -0.2873 -0.0971  0.1708
75517SOL    HW238531   7.092  13.471  10.486  1.7967  0.1321  0.5203
75518SOL     OW38532  10.482  13.680   4.563 -0.1192  0.3667  0.6951
75518SOL    HW138533  10.436  13.647   4.486  1.3571  0.1000 -0.1226
75518SOL    HW238534  10.522  13.762   4.533  1.9435 -0.6010  0.5585
75519SOL     OW38535   7.432   3.194   2.678 -0.5919 -0.0262 -0.6162
75519SOL    HW138536   7.405   3.108   2.646 -1.0267 -0.1575  0.0930
75519SOL    HW238537   7.429   3.250   2.600  1.4557 -1.0191 -1.5051
75520SOL     OW38538   0.486  10.534  13.206  0.4860 -0.0807  0.5090
75520SOL    HW138539   0.564  10.479  13.201  0.8206  0.2426  1.7333
75520SOL    HW238540   0.468  10.542  13.300  0.9587  2.5761  0.4565
75521SOL     OW38541  12.934   6.764   7.164  0.1463  0.5966  0.3364
75521SOL    HW138542  12.972   6.778   7.251  0.7943 -0.3687  0.2198
75521SOL    HW238543  12.843   6.740   7.181  0.1902  0.7005  0.7323
75522SOL     OW38544  11.037   3.982   0.071 -0.2541 -0.3870  0.3421
75522SOL    HW138545  10.949   3.997   0.036 -0.2394 -2.8832 -1.0334
75522SOL    HW238546  11.023   3.928   0.149  0.0103  0.1833  0.7856
75523SOL     OW38547  10.898  11.299   4.365  0.7052  0.2289 -0.4045
75523SOL    HW138548  10.828  11.364   4.373  1.3062  0.9971 -1.1188
75523SOL    HW238549  10.928  11.285   4.454 -0.2948 -0.0534 -0.0948
75524SOL     OW38550   6.665   5.208   5.218 -0.1204 -0.3163  0.5810
75524SOL    HW138551   6.661   5.303   5.212 -2.1109 -0.4226 -0.9036
75524SOL    HW238552   6.694   5.179   5.131 -0.5160 -1.0909  0.6972
75525SOL     OW38553   8.559   1.293   9.314  0.3947 -0.0124 -0.7677
75525SOL    HW138554   8.610   1.221   9.278 -0.0828 -0.4853 -0.5185
75525SOL    HW238555   8.519   1.257   9.393  0.7309  0.7447 -0.2311
75526SOL     OW38556  11.666   1.757   3.136 -1.0759 -0.2189 -0.5031
75526SOL    HW138557  11.623   1.818   3.076 -3.0217 -0.7453  0.2604
75526SOL    HW238558  11.606   1.751   3.211  1.5456  0.9949  1.9006
75527SOL     OW38559   2.350   5.240  12.336  0.0578 -0.5019  0.2554
75527SOL    HW138560   2.431   5.192  12.320  0.1965 -0.3890  0.6064
75527SOL    HW238561   2.316   5.259  12.249 -0.1791 -1.5268  0.1075
75528SOL     OW38562   6.105   1.183  10.344 -0.2254 -0.1697  0.1481
75528SOL    HW138563   6.093   1.147  10.433 -0.7434 -1.5035 -0.4337
75528SOL    HW238564   6.135   1.109  10.292 -1.4655  0.1800 -1.1396
75529SOL     OW38565   1.944   5.222   1.876 -0.6099  0.3548 -0.0789
75529SOL    HW138566   1.990   5.249   1.956 -2.2074  0.2131  0.9159
75529SOL    HW238567   1.964   5.129   1.866  0.8722  0.7111 -0.7629
75530SOL     OW38568   2.469   2.119   5.650 -0.3588  0.0401  0.0334
75530SOL    HW138569   2.528   2.148   5.582 -0.6609  0.7073  0.0433
75530SOL    HW238570   2.447   2.199   5.698 -2.1243  0.0137 -0.6481
75531SOL     OW38571  13.354   2.850   3.332 -0.3795  0.3243  0.6589
75531SOL    HW138572  13.314   2.776   3.377 -1.4761  0.1258 -0.5533
75531SOL    HW238573  13.294   2.868   3.259  0.5909  1.5146  0.1215
75532SOL     OW38574   5.026   0.041   4.446  0.2317  0.2227  0.2047
75532SOL    HW138575   5.025   0.136   4.454 -0.1926  0.2597 -0.2656
75532SOL    HW238576   4.979   0.023   4.364 -0.7940 -0.4506  0.9190
75533SOL     OW38577  11.194   8.882   0.239 -0.1753  0.2696  0.0366
75533SOL    HW138578  11.187   8.817   0.309  0.6877  1.8201  1.6668
75533SOL    HW238579  11.273   8.857   0.191 -1.7797 -1.8897 -1.6588
75534SOL     OW38580  13.648   5.440   3.620  0.7576  0.0788  0.1478
75534SOL    HW138581  13.636   5.469   3.530  0.1536 -0.5181  0.0241
75534SOL    HW238582  13.680   5.350   3.613 -0.9518 -0.6106  0.4977
75535SOL     OW38583  11.999   5.905   8.163  0.8818  0.7399 -0.4106
75535SOL    HW138584  12.056   5.910   8.087  0.8662  0.0469 -0.4765
75535SOL    HW238585  12.009   5.815   8.195  1.1969  1.1338  0.6486
75536SOL     OW38586  13.960  13.806   9.962  0.0584  0.4295  0.2695
75536SOL    HW138587  13.941  13.896   9.934  1.9661  1.1842  1.2383
75536SOL    HW238588  14.012  13.816  10.041  2.0923 -1.4930 -0.7155
75537SOL     OW38589   2.854   4.968  11.942  0.2847  0.0549  0.4296
75537SOL    HW138590   2.855   4.889  11.996 -0.5526 -0.3878 -0.1654
75537SOL    HW238591   2.943   5.003  11.948  1.0297 -1.5905 -0.2287
75538SOL     OW38592  13.329   9.778  11.767 -0.1677 -0.0958  0.0240
75538SOL    HW138593  13.356   9.817  11.850 -1.0570 -0.4745  0.5091
75538SOL    HW238594  13.235   9.795  11.763 -0.1470 -0.1721 -0.8595
75539SOL     OW38595  12.543  13.075   4.650  0.4226  0.0607  0.6223
75539SOL    HW138596  12.496  12.992   4.655  1.8964 -0.8343  0.2248
75539SOL    HW238597  12.588  13.072   4.565  0.8000  1.0904  0.7742
75540SOL     OW38598   2.977   7.289  13.544  0.2250  0.0042 -0.4070
75540SOL    HW138599   2.909   7.267  13.607  0.1551 -1.0727 -0.8354
75540SOL    HW238600   3.059   7.286  13.594 -0.0021  1.0757  0.0560
75541SOL     OW38601  11.933   5.719  10.990  0.7212  0.6037  0.6767
75541SOL    HW138602  11.921   5.722  10.895  0.4110 -1.5067  0.6071
75541SOL    HW238603  12.023   5.688  11.002 -0.4035 -3.0105  0.9322
75542SOL     OW38604  11.037  14.025   3.859  0.1970  0.1893  0.1035
75542SOL    HW138605  11.053  14.049   3.767 -1.9563  1.1933 -0.0789
75542SOL    HW238606  10.950  13.985   3.857 -0.0789  0.6661  1.7933
75543SOL     OW38607   9.240   3.738  11.200  0.0740  0.2679 -0.1525
75543SOL    HW138608   9.216   3.725  11.108  2.4092  0.1582 -0.8066
75543SOL    HW238609   9.170   3.791  11.236 -2.3807 -2.0156 -1.2266
75544SOL     OW38610   1.794   1.454   5.345  0.1078 -0.0204  0.7214
75544SOL    HW138611   1.767   1.366   5.371 -0.1828 -0.0883  0.2047
75544SOL    HW238612   1.712   1.501   5.330  0.2437 -0.2938 -1.0821
75545SOL     OW38613   7.316  10.232   2.530  0.2408 -0.2995 -0.0547
75545SOL    HW138614   7.268  10.285   2.466 -1.0857 -1.6471 -0.2279
75545SOL    HW238615   7.256  10.160   2.551  1.3557 -0.8434  1.3841
75546SOL     OW38616   2.445  13.229   6.037  0.2829  0.4831 -0.5141
75546SOL    HW138617   2.531  13.233   6.078 -0.3403 -0.5881  0.9778
75546SOL    HW238618   2.462  13.196   5.949  1.3596 -0.1372 -0.0884
75547SOL     OW38619   1.871   0.899   1.295 -0.3890 -0.6145  0.6422
75547SOL    HW138620   1.829   0.836   1.237 -2.3298  1.2042 -0.0477
75547SOL    HW238621   1.964   0.897   1.269 -1.0485 -0.3985 -2.0795
75548SOL     OW38622   2.073   2.525   9.674  0.4121  0.1645 -0.0294
75548SOL    HW138623   2.117   2.494   9.595 -1.5426 -1.8150 -0.4296
75548SOL    HW238624   2.010   2.590   9.643  1.4628  1.3922  0.2899
75549SOL     OW38625   0.198   7.755   8.420  0.6434  0.2154 -0.1029
75549SOL    HW138626   0.211   7.734   8.327  1.9983 -1.3808  0.3912
75549SOL    HW238627   0.103   7.754   8.431  0.4814 -1.8383 -1.0575
75550SOL     OW38628   1.404   2.395   0.539 -0.3510  0.1444  0.6492
75550SOL    HW138629   1.379   2.405   0.631 -0.1408  1.4679  0.5822
75550SOL    HW238630   1.376   2.477   0.497  1.2091  0.3414 -0.0822
75551SOL     OW38631   3.360   3.000   6.603  0.5021 -0.5445 -0.0179
75551SOL    HW138632   3.376   3.065   6.535  0.4087 -1.3841 -0.8497
75551SOL    HW238633   3.265   2.985   6.601  0.3634  0.0632  0.9063
75552SOL     OW38634  13.284   8.854   2.004 -0.3420 -0.5042  0.1746
75552SOL    HW138635  13.276   8.922   1.937 -3.1454  0.3949  1.2653
75552SOL    HW238636  13.354   8.884   2.062  1.2775 -0.6855 -1.6079
75553SOL     OW38637   1.638   2.875  10.374 -0.1257 -0.0621 -0.4831
75553SOL    HW138638   1.553   2.914  10.388  0.2174  0.1764  1.1613
75553SOL    HW238639   1.701   2.943  10.398  0.4839 -1.5394  2.7312
75554SOL     OW38640   1.751   6.865   7.106  0.3070 -0.0533  0.4461
75554SOL    HW138641   1.832   6.863   7.158  0.3953  2.8229  0.5754
75554SOL    HW238642   1.775   6.914   7.027 -0.5228 -2.0449 -1.1248
75555SOL     OW38643  13.546   0.324   9.464  0.2339  0.0116  0.4657
75555SOL    HW138644  13.469   0.348   9.515 -0.2346 -0.7326  0.1283
75555SOL    HW238645  13.515   0.321   9.373  1.1739  1.8357  0.0393
75556SOL     OW38646   2.550   2.801  13.977 -0.3098 -0.1381 -0.4007
75556SOL    HW138647   2.546   2.756  13.893  0.4550  0.2735 -0.6626
75556SOL    HW238648   2.635   2.845  13.977 -0.8876  1.0170  0.0019
75557SOL     OW38649   2.837   9.265  10.455 -0.5128 -0.0607 -0.5715
75557SOL    HW138650   2.807   9.177  10.481 -1.4081  0.4772  0.2895
75557SOL    HW238651   2.904   9.287  10.519 -0.9454  0.2477 -0.2153
75558SOL     OW38652   8.842   4.516   4.404 -0.7608 -0.5963  0.0659
75558SOL    HW138653   8.772   4.555   4.456 -0.7224 -0.3911 -0.0357
75558SOL    HW238654   8.910   4.495   4.467 -1.6611 -2.5316  0.4545
75559SOL     OW38655  10.911  11.280   7.500 -0.0395  0.1663  0.1552
75559SOL    HW138656  10.936  11.369   7.525 -1.0311  0.9608 -1.4980
75559SOL    HW238657  10.956  11.266   7.417  1.4544 -1.5533  1.2058
75560SOL     OW38658   0.970   8.298   3.517  0.3913  0.3378 -0.0459
75560SOL    HW138659   1.017   8.308   3.599  0.2510 -0.3599  0.1234
75560SOL    HW238660   0.990   8.378   3.468 -0.5152  1.3301  1.1516
75561SOL     OW38661  12.107   9.807  13.644 -0.2125 -0.0965 -0.3919
75561SOL    HW138662  12.085   9.714  13.639 -2.7277  0.4793 -1.8074
75561SOL    HW238663  12.066   9.845  13.567 -1.6219  2.6000  1.5174
75562SOL     OW38664   6.845   1.699   7.648  0.0435  0.0633  0.1489
75562SOL    HW138665   6.914   1.687   7.583 -0.4505  1.4465 -0.6682
75562SOL    HW238666   6.890   1.689   7.732  1.6026  2.2899 -0.3112
75563SOL     OW38667  13.021   9.039   9.760  0.6614  0.4460  0.0959
75563SOL    HW138668  13.018   9.133   9.743 -0.8329  0.0380 -2.4476
75563SOL    HW238669  13.082   9.030   9.833  0.6768  3.3857  0.5783
75564SOL     OW38670   9.750   5.438   0.003 -0.0299 -0.7091  0.3021
75564SOL    HW138671   9.731   5.526   0.034 -0.1646 -0.9589  0.9331
75564SOL    HW238672   9.806   5.452  -0.074 -2.2502  0.0325 -1.3018
75565SOL     OW38673   2.756   4.828  13.233  1.0700  0.0531  0.4349
75565SOL    HW138674   2.719   4.760  13.289  0.2662 -0.2846 -0.4736
75565SOL    HW238675   2.680   4.874  13.198  1.5829  0.8502  0.3347
75566SOL     OW38676   1.253  13.869  11.008  0.5739 -0.1902 -0.4290
75566SOL    HW138677   1.346  13.886  10.994  0.3074  1.3279 -0.4698
75566SOL    HW238678   1.247  13.844  11.101  1.1601 -1.5520 -0.7238
75567SOL     OW38679  11.898  11.334  11.908 -0.1680  0.5225 -0.6773
75567SOL    HW138680  11.918  11.423  11.937  1.0385  0.9159 -2.5698
75567SOL    HW238681  11.945  11.324  11.826 -0.7147 -1.6985 -0.7880
75568SOL     OW38682   1.457   4.150   5.224  0.5003  0.6904 -0.4832
75568SOL    HW138683   1.516   4.157   5.149 -0.6618 -1.3744 -1.6934
75568SOL    HW238684   1.372   4.129   5.185 -0.1946 -0.1899  1.3892
75569SOL     OW38685  10.630  13.444   8.519 -0.1390  0.1639  0.2053
75569SOL    HW138686  10.628  13.349   8.531 -2.0571  0.2322  0.7455
75569SOL    HW238687  10.699  13.474   8.578  0.9056 -0.9253 -0.4184
75570SOL     OW38688  11.895  11.746   9.747 -0.2084 -0.0930 -0.2003
75570SOL    HW138689  11.972  11.768   9.695  0.9411 -0.0652  1.4509
75570SOL    HW238690  11.823  11.792   9.704  1.0879  1.8271 -0.4202
75571SOL     OW38691   0.393  10.940   5.185 -0.5132 -0.8294 -0.2013
75571SOL    HW138692   0.451  10.901   5.121  0.9253 -2.1845  1.8225
75571SOL    HW238693   0.331  10.870   5.208 -0.7610 -0.4921  0.1793
75572SOL     OW38694   4.414   0.864   8.855 -0.2663  0.5487  0.8890
75572SOL    HW138695   4.442   0.953   8.877  1.2957 -0.1855  2.0960
75572SOL    HW238696   4.404   0.821   8.940  1.9550 -1.2661  0.3219
75573SOL     OW38697   5.637   9.945   7.574  0.0287  0.0346  0.2979
75573SOL    HW138698   5.679   9.933   7.658 -0.0281 -1.7371  0.1116
75573SOL    HW238699   5.709   9.958   7.512  0.2597 -1.2970  0.2448
75574SOL     OW38700   8.827   1.050   8.712  1.0052  0.0122  0.4255
75574SOL    HW138701   8.811   1.048   8.807  1.2509 -0.7340  0.4507
75574SOL    HW238702   8.815   0.960   8.683 -1.6066  0.6333 -0.7035
75575SOL     OW38703   9.146  10.550   0.738  0.1011  1.1210  0.1113
75575SOL    HW138704   9.144  10.583   0.828  0.7114 -0.0463  0.5767
75575SOL    HW238705   9.064  10.501   0.728  0.3228  0.7144  0.2557
75576SOL     OW38706   7.350   2.678  12.009  0.1567  0.0494  0.3647
75576SOL    HW138707   7.434   2.682  11.964  0.1173  0.8787  0.3581
75576SOL    HW238708   7.365   2.618  12.083  0.7693  0.2421  0.3968
75577SOL     OW38709   3.485  12.053  12.642  0.2521 -0.5686  0.3857
75577SOL    HW138710   3.540  12.065  12.565  0.6137  0.5836  0.8101
75577SOL    HW238711   3.540  12.079  12.715  0.0953 -2.1677  1.1095
75578SOL     OW38712   8.248   1.418   2.664 -0.5010  0.5219 -0.7379
75578SOL    HW138713   8.274   1.371   2.743 -0.2023  0.5306 -0.8291
75578SOL    HW238714   8.291   1.370   2.593 -1.0297  0.3206 -0.9247
75579SOL     OW38715   7.600   4.412   6.439 -0.1813  0.2461  0.2028
75579SOL    HW138716   7.520   4.363   6.416 -1.4521  1.6814  1.3301
75579SOL    HW238717   7.652   4.350   6.490  0.0648 -1.1359 -1.6541
75580SOL     OW38718   2.159   8.496  12.557 -0.5783  0.3707  0.5823
75580SOL    HW138719   2.103   8.464  12.627 -1.8608 -3.0958 -1.7711
75580SOL    HW238720   2.242   8.450  12.569 -1.0404 -0.7844 -0.5088
75581SOL     OW38721   8.716   9.068   1.597  0.6096 -0.2378  0.5380
75581SOL    HW138722   8.727   8.996   1.659 -2.0960  0.3587  1.8580
75581SOL    HW238723   8.692   9.143   1.652  0.2383  0.8682 -1.0719
75582SOL     OW38724  11.293   2.759  10.377 -0.1352 -0.3373 -0.2753
75582SOL    HW138725  11.249   2.674  10.367 -0.0076 -0.4155 -0.1721
75582SOL    HW238726  11.293   2.796  10.288 -1.5266  0.2202 -0.0718
75583SOL     OW38727  12.355   9.121   6.465  0.0703  0.4271  0.0347
75583SOL    HW138728  12.283   9.141   6.406  0.5634 -1.0114 -1.1198
75583SOL    HW238729  12.419   9.190   6.451  0.6546 -0.4535 -1.9816
75584SOL     OW38730   7.946   0.917  11.516 -0.3113  0.1097 -0.2059
75584SOL    HW138731   7.984   0.865  11.446  0.3727  0.4012 -0.0599
75584SOL    HW238732   7.858   0.882  11.527 -0.1737 -0.4097 -0.7231
75585SOL     OW38733   7.382   4.828  13.638  0.1688 -0.1371 -0.1893
75585SOL    HW138734   7.433   4.909  13.640  1.3490 -0.8383  2.5692
75585SOL    HW238735   7.443   4.762  13.607 -0.1871 -0.3475 -0.4538
75586SOL     OW38736   2.093   6.472  12.423  0.0560  0.3786 -0.5347
75586SOL    HW138737   2.152   6.398  12.408  0.2865  0.3284  0.5624
75586SOL    HW238738   2.097   6.487  12.517  0.2797  2.0216 -0.7834
75587SOL     OW38739   1.710   2.076  10.882  0.2767 -0.1206  0.1800
75587SOL    HW138740   1.803   2.099  10.891  0.4750 -1.4446  1.9554
75587SOL    HW238741   1.710   1.984  10.859 -0.6200  0.0272 -0.4696
75588SOL     OW38742   4.246  11.256   6.867  0.1661  0.4655  0.0814
75588SOL    HW138743   4.165  11.305   6.855 -0.8438 -0.7443  1.5742
75588SOL    HW238744   4.267  11.267   6.960 -0.0025 -1.6841  0.4334
75589SOL     OW38745   2.719  10.346   7.130  0.4862  0.2190  0.3932
75589SOL    HW138746   2.706  10.353   7.224  0.9584  0.9491  0.4084
75589SOL    HW238747   2.638  10.306   7.098  0.1471  0.3655  1.0506
75590SOL     OW38748   9.950   2.182   3.404 -0.2100 -0.5039 -0.3808
75590SOL    HW138749   9.971   2.260   3.352 -4.2477  1.5547  0.6172
75590SOL    HW238750   9.992   2.197   3.488 -0.6724  0.4840 -0.3116
75591SOL     OW38751   6.182   5.740  12.118 -0.8706  0.5123 -0.0496
75591SOL    HW138752   6.256   5.693  12.156 -0.8066 -0.1590 -0.9558
75591SOL    HW238753   6.203   5.833  12.129  1.1645  0.3955 -2.1531
75592SOL     OW38754   2.289   2.300   3.045 -0.0292 -0.0169 -0.3928
75592SOL    HW138755   2.238   2.313   2.966  0.6371  0.3022 -0.7835
75592SOL    HW238756   2.375   2.338   3.025  0.5522 -1.0343  0.0320
75593SOL     OW38757   8.141   4.034   8.908  0.3450  0.2295 -0.5745
75593SOL    HW138758   8.198   3.978   8.960  0.9402  0.3353 -1.1047
75593SOL    HW238759   8.078   3.975   8.868 -0.5564  0.2136  0.7926
75594SOL     OW38760  10.556  10.283  12.573  0.4148  0.4250  0.3384
75594SOL    HW138761  10.532  10.190  12.566  0.8064  0.3388  0.1692
75594SOL    HW238762  10.545  10.302  12.667  1.9597 -0.2340  0.6752
75595SOL     OW38763   8.670  13.633  10.357  0.3967  0.1108 -0.2019
75595SOL    HW138764   8.679  13.585  10.275 -1.9173  1.0873 -1.1414
75595SOL    HW238765   8.654  13.723  10.329 -1.1008  0.3432  1.2566
75596SOL     OW38766  10.711   2.623   2.541  0.0241  0.2959  0.4529
75596SOL    HW138767  10.661   2.632   2.622  0.1709  2.2824  0.3689
75596SOL    HW238768  10.801   2.647   2.566  0.1475  0.5260 -0.2038
75597SOL     OW38769  12.852  13.777  10.708  0.3028 -0.2022 -0.0264
75597SOL    HW138770  12.921  13.841  10.723 -2.1378  2.2444  1.8604
75597SOL    HW238771  12.819  13.798  10.621  2.2988 -1.9009 -1.2781
75598SOL     OW38772   3.189  12.252   4.997 -0.4856  0.0689 -0.5728
75598SOL    HW138773   3.202  12.189   4.926 -0.3879  1.2499 -1.6590
75598SOL    HW238774   3.197  12.337   4.954  0.3410  0.8307  1.0160
75599SOL     OW38775  12.317   8.962   8.054 -0.0012  0.5464  0.3226
75599SOL    HW138776  12.231   8.941   8.091  0.2601  1.5474  1.5626
75599SOL    HW238777  12.299   8.984   7.963 -0.9071 -0.3103  0.2771
75600SOL     OW38778   0.832   4.861   9.394 -0.6339 -0.2129 -0.3396
75600SOL    HW138779   0.883   4.937   9.419 -0.3723 -0.0846 -1.2388
75600SOL    HW238780   0.889   4.811   9.336 -0.6971 -1.2482  0.4454
75601SOL     OW38781  10.745   8.549   7.536 -0.2113  0.3661  0.4273
75601SOL    HW138782  10.804   8.481   7.502 -0.6847 -0.3477  0.9922
75601SOL    HW238783  10.778   8.567   7.624  0.1106  1.1167  0.1568
75602SOL     OW38784   3.651   2.060   7.698  0.2715 -0.3490 -0.1660
75602SOL    HW138785   3.665   2.117   7.623  1.5515 -1.8813 -1.1481
75602SOL    HW238786   3.580   2.001   7.671 -0.6355  0.3466  0.6161
75603SOL     OW38787   2.863  12.462   1.890  0.5859  0.5227 -0.1078
75603SOL    HW138788   2.940  12.447   1.834  0.5231  0.5171 -0.1939
75603SOL    HW238789   2.812  12.381   1.881  0.2758  0.7576 -0.5241
75604SOL     OW38790   6.272   1.718   6.919  0.7758  0.5906  0.0408
75604SOL    HW138791   6.188   1.738   6.961 -0.5008  0.1069 -2.0835
75604SOL    HW238792   6.270   1.770   6.838  2.6569  0.7325  0.0533
75605SOL     OW38793  10.709  12.929   2.343 -0.4262  0.1537  0.4382
75605SOL    HW138794  10.791  12.885   2.366 -0.5020  0.5908  1.6267
75605SOL    HW238795  10.729  12.976   2.262  0.6333  0.5686  0.9137
75606SOL     OW38796   3.058   3.045   4.464  0.1373  0.3061 -0.6155
75606SOL    HW138797   3.067   3.139   4.479  0.3864  0.2216 -0.2338
75606SOL    HW238798   3.063   3.035   4.368 -1.0418  0.8003 -0.7490
75607SOL     OW38799  12.200   4.374  12.894  0.0246 -0.0990  0.2610
75607SOL    HW138800  12.141   4.406  12.825 -1.2704  0.4626  1.5893
75607SOL    HW238801  12.199   4.278  12.883 -0.1284 -0.0172 -0.5157
75608SOL     OW38802  13.119  10.580   5.667 -0.1426 -0.5928 -0.0028
75608SOL    HW138803  13.099  10.566   5.760  0.2082  2.6067  0.6895
75608SOL    HW238804  13.110  10.675   5.655  1.8183 -0.6330 -2.7597
75609SOL     OW38805   1.299  12.940   1.777 -0.3845 -0.0682  0.7183
75609SOL    HW138806   1.373  12.963   1.834  0.0247  0.1644  0.1063
75609SOL    HW238807   1.295  13.012   1.714  0.1148 -1.0294 -0.4563
75610SOL     OW38808   8.871   1.771  12.543  0.1704  0.0011  0.1640
75610SOL    HW138809   8.919   1.690  12.558 -0.0183 -0.3674 -1.1711
75610SOL    HW238810   8.938   1.840  12.550  0.3004 -0.2365  1.4535
75611SOL     OW38811  13.815   9.859   2.293  0.2090  0.0064  0.4524
75611SOL    HW138812  13.886   9.825   2.238 -0.5083  0.6957 -0.9600
75611SOL    HW238813  13.789   9.941   2.251 -0.1067  0.7844  2.0757
75612SOL     OW38814   7.175  10.791  13.121 -0.2140 -0.2299 -0.0656
75612SOL    HW138815   7.104  10.815  13.061 -0.6493  0.2037  0.6080
75612SOL    HW238816   7.174  10.695  13.122 -0.8242 -0.2261 -0.0315
75613SOL     OW38817   6.449  12.562  13.272  0.2758  0.2833 -0.3668
75613SOL    HW138818   6.451  12.547  13.178  0.1500  1.0086 -0.4867
75613SOL    HW238819   6.422  12.653  13.282 -3.0962 -0.6533  0.4457
75614SOL     OW38820  10.079   1.011   6.768  0.2789  0.1305 -0.2919
75614SOL    HW138821  10.112   0.948   6.704  0.5192 -0.1811  0.1363
75614SOL    HW238822  10.013   1.062   6.720 -0.1233 -0.6303 -0.5651
75615SOL     OW38823  12.289   7.623  10.801  0.0644 -0.4483  0.1346
75615SOL    HW138824  12.383   7.601  10.797 -0.0803 -0.9761 -0.6562
75615SOL    HW238825  12.245   7.539  10.787 -0.5156  0.1671 -2.0207
75616SOL     OW38826   2.199   8.905   1.413  0.2141  0.2919  0.2275
75616SOL    HW138827   2.232   8.895   1.324  1.2647 -1.4687  0.7802
75616SOL    HW238828   2.264   8.959   1.457  0.7609 -0.5491  0.4660
75617SOL     OW38829  13.308   1.034   4.196 -0.5193 -0.0968 -0.0392
75617SOL    HW138830  13.397   1.065   4.177 -0.7541  1.6728  1.4533
75617SOL    HW238831  13.318   0.941   4.214  1.3416  0.3552  1.6853
75618SOL     OW38832   5.332   0.800   3.563 -0.0731 -0.6796 -0.4215
75618SOL    HW138833   5.277   0.873   3.594  0.6454 -0.9059  1.5172
75618SOL    HW238834   5.271   0.727   3.555 -0.0615 -1.0852  2.2846
75619SOL     OW38835   3.444   9.849   4.924 -0.1531 -0.1867 -0.0675
75619SOL    HW138836   3.487   9.927   4.959  0.7049 -0.8982  0.4657
75619SOL    HW238837   3.398   9.881   4.846 -0.5319  1.0241  0.6341
75620SOL     OW38838   5.766   6.362   6.772 -0.4317  0.1671 -0.1330
75620SOL    HW138839   5.842   6.308   6.748 -1.1244 -0.0848 -1.8887
75620SOL    HW238840   5.713   6.304   6.827 -1.1825 -1.0555 -2.0230
75621SOL     OW38841  13.606  11.499  10.716  0.1697  0.7175 -0.4947
75621SOL    HW138842  13.537  11.456  10.665  1.0810  0.1405 -1.2878
75621SOL    HW238843  13.660  11.544  10.651  1.0779  0.3768  0.0014
75622SOL     OW38844  13.516   2.523   1.141  0.3031  0.3146 -0.5021
75622SOL    HW138845  13.608   2.528   1.166  0.2517 -0.6881 -0.0648
75622SOL    HW238846  13.493   2.430   1.150 -0.8950  0.6241 -0.0548
75623SOL     OW38847   8.636   0.278   6.222  0.4349 -0.1997 -0.0619
75623SOL    HW138848   8.560   0.225   6.248  1.0190 -0.4943  1.1386
75623SOL    HW238849   8.706   0.214   6.208  0.8643  0.1697  0.3535
75624SOL     OW38850  11.066   0.308   7.237 -0.0766 -0.5802  0.0225
75624SOL    HW138851  11.093   0.230   7.188  0.3111 -1.0209  0.9139
75624SOL    HW238852  11.039   0.274   7.322 -1.5655  0.0758 -0.1527
75625SOL     OW38853  11.560  13.858   7.701  0.1687 -0.1082  0.1356
75625SOL    HW138854  11.585  13.766   7.701  2.1433  0.3900  0.8070
75625SOL    HW238855  11.565  13.884   7.609  0.8441 -0.3545  0.1018
75626SOL     OW38856   7.865   4.943   9.982 -0.4747 -0.0085 -0.2739
75626SOL    HW138857   7.928   4.991  10.035 -1.7115  0.4571  0.8323
75626SOL    HW238858   7.780   4.961  10.023 -1.3819 -0.3397 -1.9120
75627SOL     OW38859  11.521   6.367   4.381  0.0574 -0.2028 -0.4334
75627SOL    HW138860  11.556   6.327   4.301 -2.0689 -0.6185 -1.2386
75627SOL    HW238861  11.433   6.330   4.389  0.1768 -0.1294  2.1016
75628SOL     OW38862  12.974   0.565   2.029  0.5790  0.3163  0.5067
75628SOL    HW138863  12.901   0.618   1.997  1.2914  1.4526  0.7016
75628SOL    HW238864  13.018   0.534   1.950 -0.0989 -0.3666  0.3893
75629SOL     OW38865  13.233   4.869   1.192  0.6466  0.0020  0.0590
75629SOL    HW138866  13.193   4.808   1.254  1.6726  0.0858  0.8448
75629SOL    HW238867  13.173   4.944   1.191  0.6016 -0.0013  0.9712
75630SOL     OW38868  12.402  13.810   1.240  0.2555  0.2452  1.0525
75630SOL    HW138869  12.423  13.798   1.147  0.4331  3.1744  0.6309
75630SOL    HW238870  12.347  13.735   1.261 -0.1500 -0.2942 -1.5334
75631SOL     OW38871   3.367   5.925   7.139  0.0083 -0.2299  0.1621
75631SOL    HW138872   3.347   5.999   7.083 -0.3862  0.1101  0.7328
75631SOL    HW238873   3.438   5.879   7.095  1.0389  1.1224  0.3663
75632SOL     OW38874   6.600  13.790   8.558  0.1325  0.0154  0.0422
75632SOL    HW138875   6.551  13.785   8.640 -1.5054  0.4334 -0.8681
75632SOL    HW238876   6.534  13.812   8.492  1.6149  0.9881 -1.1859
75633SOL     OW38877   1.233   6.551   1.471  0.5482  0.3834  0.0204
75633SOL    HW138878   1.276   6.591   1.395  0.7468 -0.3353 -0.2529
75633SOL    HW238879   1.262   6.460   1.470 -1.2758 -0.2247 -0.3855
75634SOL     OW38880   3.159   3.068   3.941 -0.4106  0.8076 -0.0047
75634SOL    HW138881   3.254   3.076   3.945 -0.4010  0.8546 -0.3822
75634SOL    HW238882   3.136   3.088   3.851 -0.8033  1.0306  0.1410
75635SOL     OW38883  13.443   4.405   3.934 -0.3959  0.4868 -0.6218
75635SOL    HW138884  13.431   4.348   4.010  1.9383  0.2085 -0.3638
75635SOL    HW238885  13.410   4.354   3.860  0.3189 -0.6330 -0.1956
75636SOL     OW38886  10.287   3.794   2.402 -0.5245  0.4144 -0.4788
75636SOL    HW138887  10.305   3.700   2.395 -3.4825 -0.2170 -0.6610
75636SOL    HW238888  10.310   3.829   2.315  1.6523  0.1315 -0.0708
75637SOL     OW38889   4.661   1.812  13.897 -0.3736  0.0355 -0.2534
75637SOL    HW138890   4.736   1.787  13.843 -1.2489 -1.0074 -1.0235
75637SOL    HW238891   4.586   1.806  13.838 -1.2424 -0.2385  0.8414
75638SOL     OW38892   4.581   0.301   0.033 -0.0853  0.3177  0.5121
75638SOL    HW138893   4.649   0.250   0.077 -0.3064  0.3658  0.9096
75638SOL    HW238894   4.570   0.257  -0.052  1.3210  1.0376 -0.0870
75639SOL     OW38895   2.968  10.718  13.588 -0.2672  0.6456  0.6920
75639SOL    HW138896   2.948  10.687  13.500 -1.1375  0.6501  0.8801
75639SOL    HW238897   3.063  10.714  13.594 -0.2683 -0.6520  0.2196
75640SOL     OW38898   6.688   7.439   2.578  0.0924  0.2390 -0.3342
75640SOL    HW138899   6.673   7.453   2.672 -0.9422  0.9916 -0.5992
75640SOL    HW238900   6.601   7.430   2.541  0.5101 -0.4847 -1.1756
75641SOL     OW38901   6.346  11.039   9.528  0.3577  0.3119  0.3214
75641SOL    HW138902   6.341  11.102   9.600 -2.8035  0.8709 -0.2259
75641SOL    HW238903   6.430  11.057   9.486  0.9142  2.0504  2.0129
75642SOL     OW38904   2.662   9.286   3.214 -0.6075  0.0278  0.0454
75642SOL    HW138905   2.718   9.323   3.146  0.3982  0.5121  1.0917
75642SOL    HW238906   2.621   9.210   3.173  0.6069 -0.1822 -0.8410
75643SOL     OW38907  13.555  11.285   4.681 -0.2554  0.6981  0.0846
75643SOL    HW138908  13.595  11.268   4.766  1.4711  3.9557  0.0527
75643SOL    HW238909  13.622  11.261   4.618 -0.0294  1.9130 -0.1569
75644SOL     OW38910   6.569  10.709   2.797 -0.4358  0.1132  0.3311
75644SOL    HW138911   6.495  10.740   2.745  0.9520  1.1491 -1.1070
75644SOL    HW238912   6.612  10.644   2.742  1.8625  2.2164 -0.5324
75645SOL     OW38913   0.643   5.377   3.832  0.2013 -0.0119 -0.5418
75645SOL    HW138914   0.551   5.399   3.846  0.2233 -0.8320  1.2007
75645SOL    HW238915   0.684   5.459   3.804 -1.0760  0.3147 -1.5489
75646SOL     OW38916   4.141   3.767   4.222  0.3745 -0.1147  0.0693
75646SOL    HW138917   4.221   3.718   4.242  1.4213  1.8471  0.9356
75646SOL    HW238918   4.082   3.748   4.295  0.5197 -0.5715  0.0721
75647SOL     OW38919   4.822  13.479   8.869  0.0024  0.1706  0.4607
75647SOL    HW138920   4.820  13.464   8.774  1.3975  0.5212  0.3518
75647SOL    HW238921   4.845  13.395   8.907  0.9320  0.3623  0.3571
75648SOL     OW38922   5.542   0.846   3.077 -0.8132  0.7003 -0.2911
75648SOL    HW138923   5.497   0.783   3.134  0.0973  0.2488 -0.0522
75648SOL    HW238924   5.611   0.883   3.132 -0.1458  0.5161 -0.9895
75649SOL     OW38925   0.957   9.813   3.735  0.1093  0.6116 -0.0581
75649SOL    HW138926   0.953   9.908   3.746  2.7273  0.9873 -1.5759
75649SOL    HW238927   0.883   9.793   3.678  0.1698  1.9389 -0.6565
75650SOL     OW38928   8.629   3.479   4.723 -0.1381  0.2614  0.6790
75650SOL    HW138929   8.582   3.476   4.640  0.3588  0.5137  0.3819
75650SOL    HW238930   8.700   3.416   4.713  0.5572  1.0444  0.5081
75651SOL     OW38931   9.131  12.677   9.605 -0.2250 -0.1671  0.4152
75651SOL    HW138932   9.063  12.659   9.540 -0.4546 -0.0550  0.6193
75651SOL    HW238933   9.148  12.592   9.647  0.3423 -0.3562 -0.1829
75652SOL     OW38934  11.938   2.708   3.020  0.2732  0.3828  0.6264
75652SOL    HW138935  11.872   2.775   3.005  0.3861 -0.1002 -2.9173
75652SOL    HW238936  12.019   2.746   2.987  0.9102 -0.4847  1.1583
75653SOL     OW38937   7.559   3.767  11.838 -0.0026 -0.0351 -0.0016
75653SOL    HW138938   7.584   3.859  11.844  2.0599 -0.5628  0.3001
75653SOL    HW238939   7.549   3.738  11.929  0.1926 -0.3123 -0.0653
75654SOL     OW38940   6.999   5.375   5.168 -0.0649  0.5073  0.6229
75654SOL    HW138941   6.938   5.395   5.096  2.3224  2.7620 -0.9470
75654SOL    HW238942   7.020   5.282   5.156  0.0722  0.7635 -1.5034
75655SOL     OW38943   9.531   2.954   8.840  0.1392  0.4346  0.4844
75655SOL    HW138944   9.451   2.965   8.891 -0.2169 -0.0021  0.0338
75655SOL    HW238945   9.509   2.887   8.775 -0.2624  2.6979 -1.8975
75656SOL     OW38946   1.391   1.550   3.222  0.2964  0.5248  0.3597
75656SOL    HW138947   1.336   1.491   3.274 -0.6691  0.8514 -0.2585
75656SOL    HW238948   1.452   1.588   3.285  0.5597 -0.6927  0.8680
75657SOL     OW38949   5.158  12.829  10.129  0.5956  0.5517 -0.1744
75657SOL    HW138950   5.071  12.833  10.087 -0.1684 -1.1743  1.1300
75657SOL    HW238951   5.215  12.792  10.061 -0.0072  0.3997 -0.6116
75658SOL     OW38952   8.622   9.782   5.284  0.4243 -0.0008  0.0742
75658SOL    HW138953   8.674   9.733   5.348  1.6732  0.9849 -0.1568
75658SOL    HW238954   8.679   9.792   5.208  0.1281  1.6187  0.0337
75659SOL     OW38955   3.741   4.507   9.013 -0.7171 -0.4532 -0.2087
75659SOL    HW138956   3.685   4.536   8.941  1.2393 -1.5909 -2.3013
75659SOL    HW238957   3.791   4.585   9.038  0.9122 -0.7010 -2.3838
75660SOL     OW38958   8.075   3.028  10.407 -0.1969  0.1420 -0.1803
75660SOL    HW138959   8.079   2.956  10.470  0.0564  1.7274  1.7076
75660SOL    HW238960   8.024   2.993  10.334 -1.5879 -1.3848  1.4346
75661SOL     OW38961   4.733   2.365   1.957 -0.5053  0.2580 -0.3425
75661SOL    HW138962   4.757   2.330   1.871  1.4716  0.0800  0.2417
75661SOL    HW238963   4.775   2.306   2.020 -1.9117  0.3930  0.7768
75662SOL     OW38964  12.816   1.148   3.290 -0.2713 -0.3940 -0.0275
75662SOL    HW138965  12.911   1.153   3.277 -0.2208 -1.0369  0.0437
75662SOL    HW238966  12.805   1.149   3.385 -0.2453 -1.4531  0.0070
75663SOL     OW38967  12.268   3.435   5.016 -0.7367  0.2118 -0.2964
75663SOL    HW138968  12.253   3.423   5.109  0.7271 -0.6707 -0.1511
75663SOL    HW238969  12.244   3.351   4.976 -0.6305  0.3265 -0.6110
75664SOL     OW38970   1.936   9.139  10.942  0.0143  0.2741  0.6534
75664SOL    HW138971   1.924   9.109  10.852  2.6367  1.0098 -0.0430
75664SOL    HW238972   1.976   9.065  10.988  1.3442  0.8035  0.4009
75665SOL     OW38973   2.127   2.182   8.031 -0.2981  0.6229 -0.3444
75665SOL    HW138974   2.133   2.153   7.939  0.2561 -1.5344  0.3089
75665SOL    HW238975   2.205   2.144   8.072 -1.2511  0.4066  1.3065
75666SOL     OW38976   2.824   9.440   5.338 -0.3314 -0.0833  0.4346
75666SOL    HW138977   2.828   9.520   5.286 -0.6271  0.6271  1.4855
75666SOL    HW238978   2.779   9.465   5.419  0.0261 -1.1848  0.9997
75667SOL     OW38979  10.521   9.518  11.368 -0.1267 -0.1104 -0.0042
75667SOL    HW138980  10.476   9.580  11.311 -0.1881 -0.4724 -0.3556
75667SOL    HW238981  10.451   9.476  11.418 -0.0745  0.1893  0.3240
75668SOL     OW38982   0.438   5.981   1.321 -0.7549 -0.1462  0.2240
75668SOL    HW138983   0.357   6.026   1.345 -0.2959 -0.2769  2.1279
75668SOL    HW238984   0.413   5.926   1.247 -2.5737 -0.6658  1.1711
75669SOL     OW38985  11.281   0.392   5.239 -0.3164  0.0271 -0.4047
75669SOL    HW138986  11.338   0.365   5.311 -0.9499 -1.3895 -0.4051
75669SOL    HW238987  11.341   0.410   5.166  0.2596  0.5349  0.1876
75670SOL     OW38988  13.137   0.943  12.900  0.3811  0.2235 -0.3440
75670SOL    HW138989  13.080   0.880  12.944 -0.7179  0.5667 -1.2533
75670SOL    HW238990  13.154   0.905  12.814 -0.1518  1.0879 -0.8341
75671SOL     OW38991   7.453   6.818  13.438  0.2006 -0.0845 -0.2969
75671SOL    HW138992   7.405   6.860  13.510 -1.1824  0.0754 -1.2827
75671SOL    HW238993   7.542   6.852  13.447 -0.3782  1.3898  0.2317
75672SOL     OW38994   4.974  12.120   1.262  0.2357  0.3367  0.6022
75672SOL    HW138995   4.938  12.180   1.328  0.6768 -1.0905  2.1981
75672SOL    HW238996   4.996  12.041   1.310 -0.5475 -1.2480 -1.4860
75673SOL     OW38997  11.022   0.781  12.436 -0.3105 -0.2459 -0.2341
75673SOL    HW138998  10.990   0.870  12.450  0.1179 -0.1156 -0.0572
75673SOL    HW238999  11.013   0.767  12.341 -1.0018 -0.2626 -0.1674
75674SOL     OW39000   9.899   5.111   6.846  0.5961 -0.2694  0.2818
75674SOL    HW139001   9.816   5.158   6.834  0.8689 -0.0623 -0.9007
75674SOL    HW239002   9.954   5.173   6.894  0.3797 -0.0420  0.2439
75675SOL     OW39003  10.487  13.888  10.300 -0.0155  0.0297  0.1832
75675SOL    HW139004  10.500  13.890  10.205  0.6157  2.7105  0.2526
75675SOL    HW239005  10.575  13.895  10.336 -0.3038 -0.4127  0.9917
75676SOL     OW39006   0.034   6.692   0.894 -0.2290 -0.4286  0.3590
75676SOL    HW139007  -0.032   6.741   0.944 -1.4790 -0.3840 -1.2637
75676SOL    HW239008  -0.015   6.621   0.853  0.8565 -0.7722 -0.3728
75677SOL     OW39009  13.643   4.650   5.948 -0.4313 -0.3314  0.0622
75677SOL    HW139010  13.692   4.663   6.029 -0.4061 -1.6245  0.2788
75677SOL    HW239011  13.673   4.565   5.916 -0.9595 -0.1513 -0.9334
75678SOL     OW39012  10.267   3.522   9.189 -0.2204  0.4891 -0.7094
75678SOL    HW139013  10.320   3.443   9.181  0.7519  0.7806  2.0066
75678SOL    HW239014  10.315   3.578   9.250 -2.5938  1.6760  0.2010
75679SOL     OW39015   3.264  13.863  12.658  0.1153  0.1316 -0.6545
75679SOL    HW139016   3.262  13.942  12.712 -0.0150 -1.1404  1.3043
75679SOL    HW239017   3.347  13.868  12.611  0.7823  0.7660  0.5538
75680SOL     OW39018   0.599  12.139   0.394  0.5576  0.6181 -0.5190
75680SOL    HW139019   0.642  12.165   0.312  0.1621  2.2489 -0.2271
75680SOL    HW239020   0.671  12.114   0.451  0.9275  0.7248 -0.9284
75681SOL     OW39021   2.508   7.744   1.318  0.0703  0.3666  0.1558
75681SOL    HW139022   2.434   7.782   1.365 -0.7176  0.1283 -0.8521
75681SOL    HW239023   2.565   7.818   1.298 -1.1681  0.9823 -1.2829
75682SOL     OW39024   5.066  11.248   8.934 -0.3286 -0.4946 -0.3464
75682SOL    HW139025   5.044  11.174   8.990  0.7591 -0.3384  0.3105
75682SOL    HW239026   5.083  11.320   8.994 -2.0195  0.5148 -0.9936
75683SOL     OW39027   5.755  13.613   5.580  0.3393  0.2757  0.2093
75683SOL    HW139028   5.721  13.699   5.608 -1.9297 -0.1166 -1.0705
75683SOL    HW239029   5.839  13.632   5.540 -0.4178  2.0496 -0.6557
75684SOL     OW39030   6.979   2.352   5.775  0.6344 -0.1285 -0.3613
75684SOL    HW139031   6.908   2.401   5.816  1.2005  0.0931  0.3776
75684SOL    HW239032   7.045   2.419   5.755  0.1025 -0.1094 -2.2965
75685SOL     OW39033   0.029   0.051   8.463 -0.2451 -0.1732  0.1467
75685SOL    HW139034   0.011   0.112   8.392 -0.8332  1.5484  1.6901
75685SOL    HW239035  -0.039   0.067   8.528  1.1754 -0.5019  1.8180
75686SOL     OW39036   3.981   0.177  11.003  0.0664 -0.2280  0.3291
75686SOL    HW139037   4.058   0.189  11.060 -0.7526  0.8096  1.2714
75686SOL    HW239038   3.907   0.205  11.057 -0.7836  0.5223 -1.1698
75687SOL     OW39039   5.393   1.001  10.373 -0.2472  0.3875  0.7067
75687SOL    HW139040   5.384   1.094  10.348 -1.2301  0.1076 -0.0180
75687SOL    HW239041   5.304   0.967  10.374  0.0903 -0.5117  1.1800
75688SOL     OW39042  12.239   2.860   2.119 -0.0527 -0.6901  0.0548
75688SOL    HW139043  12.276   2.925   2.178  2.3165 -1.3510 -0.6006
75688SOL    HW239044  12.214   2.909   2.041 -2.3237  0.0374  1.1761
75689SOL     OW39045   8.753  13.343   8.349 -0.6991 -0.3601  0.5725
75689SOL    HW139046   8.820  13.407   8.373 -0.9027  0.0845 -0.0256
75689SOL    HW239047   8.766  13.330   8.255  0.2346 -2.2329  0.9066
75690SOL     OW39048   0.537  11.678   8.983  0.0209  0.3314  0.1785
75690SOL    HW139049   0.573  11.750   8.931 -0.1430  2.3654  2.7109
75690SOL    HW239050   0.610  11.616   8.992  0.6818  0.9550 -0.6727
75691SOL     OW39051   7.264   1.474  12.597  0.4355  0.3604  0.1746
75691SOL    HW139052   7.245   1.516  12.681 -0.6072 -0.6804  0.4956
75691SOL    HW239053   7.341   1.519  12.564  0.6126  1.0714  1.4995
75692SOL     OW39054  13.589   2.387   6.993  0.1927 -0.3361  0.0693
75692SOL    HW139055  13.606   2.294   7.002  0.4867 -0.2827  0.0776
75692SOL    HW239056  13.510   2.392   6.940 -1.2778 -0.6502  2.1234
75693SOL     OW39057  10.000   3.039   6.885  0.4283 -0.3932 -0.0140
75693SOL    HW139058   9.987   2.953   6.847 -3.2202 -0.2914  0.6742
75693SOL    HW239059  10.009   3.098   6.810 -0.6778 -0.9365 -0.5903
75694SOL     OW39060  11.048   3.025   9.205  0.3403  0.2185 -0.1703
75694SOL    HW139061  11.015   2.947   9.160  0.9375 -0.1234 -0.0345
75694SOL    HW239062  11.077   3.082   9.134 -2.2275  1.3672 -0.4124
75695SOL     OW39063   7.654   8.340   1.946 -0.4743 -0.2780  0.8627
75695SOL    HW139064   7.650   8.248   1.919 -0.3066  0.0499 -0.3602
75695SOL    HW239065   7.743   8.351   1.980  0.6911  0.1520 -1.9951
75696SOL     OW39066   8.694   3.444  10.061 -0.2626  0.5189 -0.8118
75696SOL    HW139067   8.600   3.454  10.051 -0.4408 -0.5217 -0.3194
75696SOL    HW239068   8.725   3.414   9.976 -0.6445 -0.8320 -0.4946
75697SOL     OW39069   6.114  13.097   8.179 -0.1806 -0.2995  0.6413
75697SOL    HW139070   6.111  13.157   8.104  0.1195 -0.1385  0.7584
75697SOL    HW239071   6.067  13.143   8.249 -1.0951 -0.7521  0.3430
75698SOL     OW39072   5.946   9.276  10.783  0.1854 -0.4035  0.2746
75698SOL    HW139073   5.934   9.358  10.735 -1.8686 -1.2446 -0.7492
75698SOL    HW239074   5.869   9.269  10.839  0.6482 -1.3306  0.8200
75699SOL     OW39075   6.534   3.388   8.025  0.0534  0.0178  0.7158
75699SOL    HW139076   6.598   3.456   8.008 -0.1111  0.0557  0.2272
75699SOL    HW239077   6.560   3.315   7.969  0.0082 -0.1852  0.9532
75700SOL     OW39078   0.590   2.272  13.533  0.4838  0.5605  0.4353
75700SOL    HW139079   0.673   2.284  13.487  0.3105 -0.1960 -0.1110
75700SOL    HW239080   0.556   2.189  13.498 -0.6312  0.9999  0.4382
75701SOL     OW39081   3.015   3.411   6.790 -0.6993 -0.5880 -0.1811
75701SOL    HW139082   3.022   3.482   6.854 -0.0490 -1.2666  0.5120
75701SOL    HW239083   3.101   3.406   6.749 -0.3184 -1.8551  0.7285
75702SOL     OW39084   8.782   7.824  11.961  0.6239  0.0876  0.8922
75702SOL    HW139085   8.768   7.830  12.055 -1.9821  1.0559  0.5173
75702SOL    HW239086   8.746   7.905  11.925  0.9929 -0.5243 -1.0109
75703SOL     OW39087   2.752  11.933   6.591 -0.0130  0.2326  0.2731
75703SOL    HW139088   2.675  11.883   6.563  0.4923 -0.5678  0.3209
75703SOL    HW239089   2.771  11.990   6.517 -0.7623  0.5847  0.3307
75704SOL     OW39090  10.082  13.127  12.011 -0.6041 -0.0112  0.2030
75704SOL    HW139091  10.026  13.155  11.939  1.0355  1.7889 -0.4633
75704SOL    HW239092  10.131  13.205  12.036  3.3375 -1.8493 -0.8739
75705SOL     OW39093  10.424   8.782  11.726  0.1523 -0.0037  0.1952
75705SOL    HW139094  10.402   8.833  11.649  0.5247 -0.7625 -0.4344
75705SOL    HW239095  10.508   8.741  11.705  0.5973  0.3077  1.2692
75706SOL     OW39096   3.879   5.947   6.670 -0.4516  0.0358  0.1984
75706SOL    HW139097   3.973   5.935   6.682 -0.5711  0.0116  1.1776
75706SOL    HW239098   3.839   5.877   6.722 -1.0303  0.5665  0.4717
75707SOL     OW39099  10.835   0.064   5.127  0.1325  0.3727 -0.0179
75707SOL    HW139100  10.877  -0.012   5.167 -1.3361  0.0365  1.0112
75707SOL    HW239101  10.855   0.136   5.187  1.1358  0.7057 -0.7450
75708SOL     OW39102   5.958  10.712   3.423  0.0627 -0.1878  0.7030
75708SOL    HW139103   5.947  10.723   3.517  1.6267 -0.5067  0.9437
75708SOL    HW239104   6.043  10.751   3.403  0.1709 -0.9250 -0.4246
75709SOL     OW39105   3.883   0.118   8.066 -0.5547 -0.0500  0.8643
75709SOL    HW139106   3.801   0.080   8.098 -1.1008 -1.4786 -1.8945
75709SOL    HW239107   3.951   0.061   8.102 -1.1570 -1.7704 -0.5740
75710SOL     OW39108   9.493   2.705   5.837  0.4417 -0.2893 -0.0747
75710SOL    HW139109   9.458   2.789   5.807 -0.3846 -0.8195 -0.6542
75710SOL    HW239110   9.431   2.677   5.905  1.1911 -0.0441  0.7385
75711SOL     OW39111   9.106  12.957   6.090 -0.1292 -0.2527  0.5990
75711SOL    HW139112   9.072  13.014   6.159 -3.5665 -1.4243  0.0804
75711SOL    HW239113   9.128  12.876   6.135  0.5189 -0.0151  0.7173
75712SOL     OW39114   8.495   7.594   4.727  0.4291 -0.1524  0.3068
75712SOL    HW139115   8.415   7.644   4.744 -0.3669 -0.5471 -1.8383
75712SOL    HW239116   8.463   7.509   4.696  1.6144 -0.0668 -1.2966
75713SOL     OW39117   3.812   9.893   8.180 -0.3958 -0.3919  0.3248
75713SOL    HW139118   3.868   9.955   8.133 -0.3239 -0.2463  0.6020
75713SOL    HW239119   3.872   9.831   8.220 -0.5204 -1.6452 -1.3213
75714SOL     OW39120   0.858  11.990   9.027  1.0148  0.3674 -0.5850
75714SOL    HW139121   0.825  11.924   8.966 -0.2537  0.5327 -0.1174
75714SOL    HW239122   0.888  12.062   8.972 -0.9917  0.9192 -1.0517
75715SOL     OW39123   0.157   3.585   1.956 -0.3554  0.3064  0.4315
75715SOL    HW139124   0.182   3.541   1.875 -0.4068  2.4024 -0.7988
75715SOL    HW239125   0.240   3.604   2.001 -0.3311 -0.9088  0.9341
75716SOL     OW39126  10.549   6.806   0.098 -0.5691  0.0586 -0.0044
75716SOL    HW139127  10.555   6.722   0.143 -1.1001 -0.0110 -0.0596
75716SOL    HW239128  10.576   6.787   0.008 -0.3735  0.0177  0.0609
75717SOL     OW39129  13.035  10.824   9.343 -0.0031  0.0715  0.3522
75717SOL    HW139130  13.094  10.792   9.274  0.0481 -0.2670  0.5488
75717SOL    HW239131  13.047  10.762   9.415 -1.7751 -0.9451 -0.1772
75718SOL     OW39132  11.752   2.674  12.062  0.3397  0.4366  0.1924
75718SOL    HW139133  11.836   2.718  12.078 -0.3314  0.7194  3.6531
75718SOL    HW239134  11.686   2.737  12.091 -1.0750 -0.1744 -1.5252
75719SOL     OW39135   0.804   8.711   3.301  0.2414 -0.7988  0.4638
75719SOL    HW139136   0.782   8.684   3.391 -0.0344  0.4847  0.8001
75719SOL    HW239137   0.821   8.805   3.308  0.2553 -0.6954 -0.8259
75720SOL     OW39138   1.948  13.599   1.768  0.3111 -0.6212  0.0668
75720SOL    HW139139   1.943  13.504   1.762 -1.6328 -0.5822  0.5199
75720SOL    HW239140   1.933  13.629   1.678  1.6724 -0.7242 -0.2206
75721SOL     OW39141   9.806   8.588   2.322 -0.4440  0.4532  0.0858
75721SOL    HW139142   9.829   8.624   2.237 -0.2807 -1.0886 -0.5564
75721SOL    HW239143   9.712   8.571   2.317 -0.7417  1.7604  0.7843
75722SOL     OW39144   6.045   9.221  12.281  0.1687  0.0542 -0.7283
75722SOL    HW139145   6.096   9.159  12.333  0.6726 -0.6604 -2.0211
75722SOL    HW239146   6.059   9.193  12.190 -2.6957 -0.2943 -1.1545
75723SOL     OW39147   0.335   3.423   4.653 -0.7203 -0.0890 -0.6276
75723SOL    HW139148   0.390   3.405   4.577 -1.0071  0.2433 -0.9193
75723SOL    HW239149   0.396   3.425   4.727 -0.6651 -2.1335 -0.5803
75724SOL     OW39150   4.838   6.154  13.355 -0.0697 -0.0888  0.0055
75724SOL    HW139151   4.786   6.124  13.430 -1.4459  2.0859 -0.0002
75724SOL    HW239152   4.787   6.129  13.278 -1.1884  1.9652 -0.0016
75725SOL     OW39153   0.974   0.254  12.931 -0.7796 -0.0410 -0.5840
75725SOL    HW139154   0.940   0.315  12.995 -0.5647  0.0063 -0.5123
75725SOL    HW239155   0.934   0.280  12.848 -0.9225  0.0055 -0.5007
75726SOL     OW39156  12.216   8.072   3.506 -0.0951  0.2581  0.0738
75726SOL    HW139157  12.131   8.061   3.463  0.4317 -0.1740 -0.8953
75726SOL    HW239158  12.279   8.040   3.442  0.9025  1.6258  0.3352
75727SOL     OW39159   8.129   4.019   4.208 -0.0809 -0.7102 -0.3461
75727SOL    HW139160   8.054   4.053   4.159  0.9619  0.3582 -1.2508
75727SOL    HW239161   8.140   4.080   4.281  1.5321  0.7265 -1.7329
75728SOL     OW39162   1.637   4.473   7.776 -0.5369  0.2441  0.4394
75728SOL    HW139163   1.637   4.529   7.853  0.3845 -0.3645  0.8982
75728SOL    HW239164   1.545   4.469   7.749 -0.5197  2.8237 -0.2644
75729SOL     OW39165  11.070   9.735   4.664 -0.4918 -0.2853 -0.0337
75729SOL    HW139166  11.139   9.795   4.692 -0.4117 -0.5051  0.2395
75729SOL    HW239167  11.070   9.665   4.729 -1.1975 -0.1228  0.1542
75730SOL     OW39168  13.567  11.969   7.634 -0.1943  0.4176 -0.1958
75730SOL    HW139169  13.517  11.890   7.653 -0.0642 -0.1259 -1.9928
75730SOL    HW239170  13.647  11.937   7.593  0.5126  1.4258  0.3510
75731SOL     OW39171   9.558   0.225  10.821  0.0869  0.3629 -0.3180
75731SOL    HW139172   9.565   0.131  10.805 -0.7437  0.0151  1.1606
75731SOL    HW239173   9.629   0.264  10.769  0.9119 -1.1438 -0.3704
75732SOL     OW39174  12.147   1.565   5.131  0.2326 -0.0535 -0.0080
75732SOL    HW139175  12.088   1.539   5.060  0.6799 -1.3766  0.0724
75732SOL    HW239176  12.106   1.530   5.210  1.3967 -1.5682 -0.0211
75733SOL     OW39177   3.988  10.191  10.188 -0.2976 -0.5729  0.1244
75733SOL    HW139178   4.061  10.149  10.233 -0.7063 -0.6417  0.7343
75733SOL    HW239179   3.973  10.137  10.111 -0.4180 -1.1963  0.5769
75734SOL     OW39180   4.363   4.010   0.045  0.2747  0.2353  0.4883
75734SOL    HW139181   4.314   4.030  -0.035  1.5860  0.0287 -0.3924
75734SOL    HW239182   4.308   4.043   0.116 -1.1525 -0.0207 -0.4598
75735SOL     OW39183  11.443   4.273   9.942  0.3279 -0.7391 -0.5222
75735SOL    HW139184  11.447   4.229  10.027 -1.5162 -1.5828 -0.8243
75735SOL    HW239185  11.457   4.366   9.962 -0.5770 -0.8532  0.7798
75736SOL     OW39186   3.688   5.065   1.185 -0.3403 -0.3239  0.1921
75736SOL    HW139187   3.751   5.017   1.132 -0.2421  1.6669 -1.5893
75736SOL    HW239188   3.682   5.013   1.266 -0.4017 -3.4019 -1.6130
75737SOL     OW39189  13.703   7.132   9.499 -0.0144  0.6836 -0.3066
75737SOL    HW139190  13.657   7.216   9.508 -1.9826 -0.3677  0.0560
75737SOL    HW239191  13.636   7.070   9.471  1.7001 -0.5011 -2.0735
75738SOL     OW39192   4.436   7.407  10.975 -0.1811 -0.1125  0.0018
75738SOL    HW139193   4.508   7.364  11.021 -0.3921 -0.0953  0.3528
75738SOL    HW239194   4.357   7.367  11.010 -0.4041  0.9310  0.7368
75739SOL     OW39195   4.022   8.362   9.973 -0.6287 -0.4313  0.5794
75739SOL    HW139196   4.012   8.376  10.067  1.4913  0.7536  0.7009
75739SOL    HW239197   3.979   8.439   9.934 -2.3789 -1.4104  0.4836
75740SOL     OW39198   4.537  13.657   1.551 -0.1610  0.1701  0.1230
75740SOL    HW139199   4.626  13.640   1.581 -0.4034  0.7312  1.1868
75740SOL    HW239200   4.488  13.578   1.573 -0.0150  0.0048 -0.1371
75741SOL     OW39201  13.331  11.986   1.251 -0.4914 -0.0643  0.5008
75741SOL    HW139202  13.260  12.014   1.309 -0.7961 -0.9184  0.5526
75741SOL    HW239203  13.290  11.928   1.188  0.3095 -1.4054  1.1535
75742SOL     OW39204   1.150  12.114   4.882 -0.7326  0.3311 -0.4281
75742SOL    HW139205   1.218  12.062   4.924 -0.8819 -0.1428 -0.7578
75742SOL    HW239206   1.069  12.066   4.901 -0.5712 -1.3330 -3.3133
75743SOL     OW39207   7.601  10.636   5.719 -0.1589  0.0299  0.1045
75743SOL    HW139208   7.608  10.689   5.639 -2.1886  3.0122  1.6855
75743SOL    HW239209   7.552  10.559   5.692 -0.1316  0.5865 -1.6927
75744SOL     OW39210   7.874   5.343  10.970 -0.3213 -0.1978 -0.3961
75744SOL    HW139211   7.897   5.254  10.998  1.3305  0.6274  1.0497
75744SOL    HW239212   7.958   5.387  10.957 -1.0082  1.9235  1.5649
75745SOL     OW39213  13.216  13.172   8.302  0.2660  0.0097 -0.2644
75745SOL    HW139214  13.242  13.114   8.230  0.4494 -1.1554  0.7043
75745SOL    HW239215  13.242  13.124   8.382 -0.7553  0.8500  0.6002
75746SOL     OW39216  13.294   1.772  10.804  0.2349  0.4033 -0.2834
75746SOL    HW139217  13.321   1.778  10.712 -2.9288  0.4545 -1.3125
75746SOL    HW239218  13.270   1.862  10.828  1.4421  0.4694  0.7866
75747SOL     OW39219   3.033   0.507   7.630  0.0324  0.0273  0.2635
75747SOL    HW139220   2.999   0.576   7.573 -1.2401 -0.9052 -0.1543
75747SOL    HW239221   3.127   0.503   7.610 -0.0995  0.8325 -0.5587
75748SOL     OW39222  11.311  11.392   6.730 -0.1010 -0.1007  0.6129
75748SOL    HW139223  11.349  11.412   6.816  0.3931 -1.0197  0.6221
75748SOL    HW239224  11.379  11.416   6.667 -0.2610  0.0843  0.5113
75749SOL     OW39225   4.011   3.781   8.295 -0.2331 -0.2735  0.3289
75749SOL    HW139226   4.096   3.750   8.326 -0.8766 -0.2653  2.2408
75749SOL    HW239227   4.025   3.872   8.271  0.4712 -0.5043 -0.1558
75750SOL     OW39228  11.466   6.493   9.181  0.5053  0.5258  0.0611
75750SOL    HW139229  11.559   6.495   9.158  0.6377 -3.1449 -0.1769
75750SOL    HW239230  11.424   6.547   9.113  2.1215 -0.7412 -2.0713
75751SOL     OW39231   8.191   8.062   6.540 -0.2138  0.0350  0.6348
75751SOL    HW139232   8.184   8.093   6.449  0.9177  0.2951  0.6234
75751SOL    HW239233   8.242   8.129   6.584 -1.4200  0.3048  1.6807
75752SOL     OW39234   5.717   8.496   8.600 -0.1893 -0.3599 -0.3799
75752SOL    HW139235   5.626   8.526   8.603 -0.4384 -0.9387 -1.5502
75752SOL    HW239236   5.712   8.403   8.620  0.3706 -0.0472  1.3699
75753SOL     OW39237  13.609  13.903  13.772  0.4529  0.0285 -0.5752
75753SOL    HW139238  13.571  13.982  13.734 -0.7736 -0.3519 -0.1851
75753SOL    HW239239  13.533  13.849  13.795  1.2475 -0.8389  0.0536
75754SOL     OW39240  12.624   6.177   6.416  0.0174 -0.1952  0.0167
75754SOL    HW139241  12.616   6.236   6.492 -0.4982  0.2779 -0.3984
75754SOL    HW239242  12.718   6.163   6.407  0.0265 -1.6958  1.8389
75755SOL     OW39243  13.302   1.343  11.721  0.1157  0.3536  0.6810
75755SOL    HW139244  13.378   1.345  11.780  0.4544 -0.8094  0.3057
75755SOL    HW239245  13.301   1.254  11.686 -0.2030  0.9478 -0.9156
75756SOL     OW39246   2.081   2.443   5.855 -0.6067  0.1199  0.8219
75756SOL    HW139247   2.009   2.402   5.807 -0.2782 -0.1310  0.5361
75756SOL    HW239248   2.123   2.370   5.902 -1.1048  0.4065  1.7336
75757SOL     OW39249  10.714   6.267   7.294  0.3622 -0.4039  0.1748
75757SOL    HW139250  10.751   6.193   7.343 -0.4722 -1.7926 -1.1895
75757SOL    HW239251  10.783   6.333   7.295  1.5920 -1.6448  0.4833
75758SOL     OW39252   9.290   0.035   4.557  0.2094 -0.1983 -0.3564
75758SOL    HW139253   9.302   0.119   4.514 -2.9287  1.0774  0.9619
75758SOL    HW239254   9.239  -0.017   4.495 -1.1038  0.2918  0.2799
75759SOL     OW39255  11.578   5.583   9.363  0.1568 -0.1092 -0.0009
75759SOL    HW139256  11.523   5.636   9.422 -0.1729 -0.3673 -0.0683
75759SOL    HW239257  11.646   5.547   9.420 -0.6113 -0.9892  0.3919
75760SOL     OW39258   5.590   8.680  11.166 -0.3028 -0.2539  0.4469
75760SOL    HW139259   5.569   8.681  11.072 -0.0555  1.8734  0.3687
75760SOL    HW239260   5.684   8.659  11.169  0.0613  1.1987  0.0804
75761SOL     OW39261   1.677   2.846   1.001  0.1481  0.5275 -0.2055
75761SOL    HW139262   1.666   2.777   0.935  0.3300 -0.6343  0.9354
75761SOL    HW239263   1.644   2.925   0.959 -2.4337 -0.7220 -0.7199
75762SOL     OW39264  13.460   9.346   7.153 -0.1627 -0.0608  0.2785
75762SOL    HW139265  13.447   9.439   7.136  2.1510  0.4836  1.0982
75762SOL    HW239266  13.540   9.324   7.107 -0.2431 -1.4540  0.7634
75763SOL     OW39267   7.952   6.551   1.539  1.0538  0.0221 -0.5328
75763SOL    HW139268   7.926   6.591   1.622  0.7873  1.0758 -1.1119
75763SOL    HW239269   7.914   6.463   1.542  1.1337  0.0044  0.4927
75764SOL     OW39270   9.856   2.389  12.115  0.0340  0.0532 -0.5094
75764SOL    HW139271   9.927   2.449  12.090  1.5625 -0.8711  1.2756
75764SOL    HW239272   9.849   2.400  12.210 -0.2400 -1.9174 -0.2593
75765SOL     OW39273   2.102   7.245  11.539 -0.6394 -0.1219  0.8729
75765SOL    HW139274   2.080   7.156  11.511 -0.5054  0.4803 -1.3143
75765SOL    HW239275   2.017   7.288  11.548 -0.6626 -0.0921  0.5407
75766SOL     OW39276  13.322   7.064   6.763 -0.5841 -0.6006  0.0270
75766SOL    HW139277  13.227   7.064   6.778 -0.4960  1.7782  0.9392
75766SOL    HW239278  13.334   7.116   6.683  0.0816  1.8952  1.6398
75767SOL     OW39279   5.127   0.185   3.223 -0.1485 -0.1187 -0.5589
75767SOL    HW139280   5.172   0.132   3.156  0.3451 -0.6208  0.1609
75767SOL    HW239281   5.096   0.121   3.287  0.4851  0.4586  0.3416
75768SOL     OW39282   3.289   9.649   6.339  0.8829  0.3114 -0.1073
75768SOL    HW139283   3.230   9.587   6.384  1.4028 -0.0694  0.0563
75768SOL    HW239284   3.360   9.664   6.401 -0.0599  2.3861  0.5335
75769SOL     OW39285  12.579   5.120   9.921  0.6461  0.1502  0.0098
75769SOL    HW139286  12.659   5.112   9.869  0.4243  0.2556 -0.3548
75769SOL    HW239287  12.599   5.188   9.986  0.6543  0.6194 -0.4717
75770SOL     OW39288   8.681   2.443   7.113  0.0539  0.1707 -0.5008
75770SOL    HW139289   8.673   2.352   7.083  0.5601  0.6860 -2.3437
75770SOL    HW239290   8.612   2.489   7.066 -0.8351  0.6041  1.1677
75771SOL     OW39291   5.046   8.312   8.504 -0.0143  0.7713 -0.0956
75771SOL    HW139292   4.992   8.366   8.446  0.1295  2.6081  1.3927
75771SOL    HW239293   4.987   8.245   8.536 -0.7164  1.1683 -0.5211
75772SOL     OW39294   4.360  13.774   9.376  0.0478 -0.3986 -0.6216
75772SOL    HW139295   4.388  13.780   9.467 -2.4225  0.2233  0.1806
75772SOL    HW239296   4.376  13.683   9.351  1.4111 -0.4003  0.1737
75773SOL     OW39297  11.161   5.058   9.782  0.0546 -0.3448  0.0780
75773SOL    HW139298  11.243   5.056   9.732 -0.1642  0.3618 -0.3163
75773SOL    HW239299  11.152   5.149   9.810 -1.2058 -0.1363 -0.9111
75774SOL     OW39300   3.166   2.196   2.957  0.7540 -0.2521  0.0685
75774SOL    HW139301   3.082   2.211   2.914  0.4547 -0.2757  0.6371
75774SOL    HW239302   3.158   2.109   2.996 -0.0376  0.8528  2.5566
75775SOL     OW39303  12.198   2.526   8.195  0.5593  0.3844 -0.1314
75775SOL    HW139304  12.215   2.620   8.203  0.2126  0.4322  0.0567
75775SOL    HW239305  12.103   2.520   8.181  0.6366  0.0867 -0.5489
75776SOL     OW39306   0.288  11.500  13.042  0.5168  1.1696 -0.1630
75776SOL    HW139307   0.346  11.485  12.968 -0.1001  0.4476 -0.5090
75776SOL    HW239308   0.235  11.421  13.048 -0.7338  1.9748 -0.1379
75777SOL     OW39309   5.358  10.968   6.596  0.3601  0.9335  0.6877
75777SOL    HW139310   5.430  10.919   6.557  0.0349 -0.1541  1.4001
75777SOL    HW239311   5.279  10.924   6.565 -0.0304  2.1640 -0.1524
75778SOL     OW39312  12.737  11.762   9.636 -0.1043 -0.3559  0.2556
75778SOL    HW139313  12.773  11.674   9.630  1.8346  0.4570 -1.0172
75778SOL    HW239314  12.651  11.756   9.593  0.8872 -1.2119 -1.7181
75779SOL     OW39315   2.768   5.244   9.963 -1.0018 -0.4461 -0.4717
75779SOL    HW139316   2.697   5.195  10.004  0.0407 -0.7033  1.1196
75779SOL    HW239317   2.817   5.179   9.914 -0.9038 -0.5890 -0.1869
75780SOL     OW39318  12.178  10.167   2.881  0.2454  0.2817 -0.1171
75780SOL    HW139319  12.100  10.150   2.828  0.0006  1.6109 -0.2160
75780SOL    HW239320  12.203  10.257   2.859  2.5433 -0.5017 -1.0294
75781SOL     OW39321  13.544  10.802   4.858  0.0672 -0.7720 -0.0679
75781SOL    HW139322  13.522  10.833   4.770 -0.9462 -2.8633 -0.6140
75781SOL    HW239323  13.639  10.804   4.861  0.0857  0.6569 -0.6849
75782SOL     OW39324   7.731  12.265  12.181  0.2697  0.8148 -0.6688
75782SOL    HW139325   7.695  12.268  12.092 -1.2747 -0.8552 -0.1480
75782SOL    HW239326   7.696  12.344  12.223 -0.5048  0.6651 -1.0119
75783SOL     OW39327   2.482   0.568   8.293  0.3552  0.2493 -0.2088
75783SOL    HW139328   2.549   0.635   8.281  1.1823 -0.4316  0.4953
75783SOL    HW239329   2.475   0.558   8.388 -0.6996  0.2495 -0.2682
75784SOL     OW39330  12.136   8.971   4.952 -0.1161  0.1005 -0.0738
75784SOL    HW139331  12.086   9.047   4.983  0.9085  0.7699 -0.0348
75784SOL    HW239332  12.153   8.920   5.031 -1.6100 -0.6932 -0.2184
75785SOL     OW39333   4.846   1.004  13.635  0.4105  0.0700 -0.3238
75785SOL    HW139334   4.762   0.978  13.673  0.3641  0.4618 -0.1552
75785SOL    HW239335   4.886   0.922  13.606  0.7432 -0.3142  1.1509
75786SOL     OW39336   3.855   0.504   7.360  0.0305  0.3065  0.1769
75786SOL    HW139337   3.861   0.575   7.297 -0.8812 -1.2540 -1.7508
75786SOL    HW239338   3.931   0.449   7.341 -0.4614 -0.3817  0.1958
75787SOL     OW39339   8.736   9.658  10.525  0.0836 -0.0681  0.2447
75787SOL    HW139340   8.678   9.728  10.555 -1.5252 -1.5663  0.7916
75787SOL    HW239341   8.678   9.588  10.498  1.6013 -0.5949 -1.9743
75788SOL     OW39342   8.465   4.465   5.670 -0.6215 -0.4700 -0.2295
75788SOL    HW139343   8.491   4.453   5.761 -1.3475  0.2533  0.0863
75788SOL    HW239344   8.486   4.382   5.627  1.6117 -0.1649  0.1330
75789SOL     OW39345  12.225   3.728   5.373 -0.1508  0.1234 -0.0820
75789SOL    HW139346  12.311   3.769   5.357  0.6348 -1.0573  0.9190
75789SOL    HW239347  12.174   3.748   5.294  1.3852  0.0055 -1.1603
75790SOL     OW39348   5.933   3.618   4.746  0.3476 -0.8905 -0.0611
75790SOL    HW139349   5.866   3.568   4.793 -3.3743  2.2064 -1.4495
75790SOL    HW239350   5.896   3.632   4.659  2.6939  1.3323 -0.8328
75791SOL     OW39351   9.219   3.356   3.628  0.3748 -1.0319 -0.5148
75791SOL    HW139352   9.246   3.301   3.702 -2.0128  1.1474  2.2371
75791SOL    HW239353   9.143   3.310   3.591  1.5042 -2.0720 -1.6042
75792SOL     OW39354   4.436   4.291   1.256 -0.1046  0.4824 -0.1783
75792SOL    HW139355   4.440   4.196   1.244 -1.0049  0.5276 -0.9425
75792SOL    HW239356   4.428   4.302   1.351 -0.0678 -0.2035 -0.0874
75793SOL     OW39357   2.311   3.234   1.546 -0.2771  0.1935 -0.0945
75793SOL    HW139358   2.276   3.147   1.525 -0.4101 -0.3166  1.9931
75793SOL    HW239359   2.401   3.232   1.516  0.4462 -1.5537  1.9562
75794SOL     OW39360  12.969   2.980   2.350  0.1484  0.3204 -0.8119
75794SOL    HW139361  12.941   2.988   2.441 -0.9057  1.5550 -1.2190
75794SOL    HW239362  13.054   2.936   2.355  0.1722  0.4901  0.7642
75795SOL     OW39363   5.698   7.070   1.688  0.3327  0.2467 -0.3348
75795SOL    HW139364   5.757   7.030   1.625 -1.3406 -3.6443  0.2695
75795SOL    HW239365   5.703   7.013   1.765 -2.4153  1.0889  0.5905
75796SOL     OW39366  12.014  13.280  11.855 -0.4346 -0.5077 -0.2611
75796SOL    HW139367  12.109  13.292  11.861 -0.4623 -0.7027  0.6202
75796SOL    HW239368  12.000  13.190  11.884 -0.8276 -0.7134 -1.0577
75797SOL     OW39369   2.527   5.418   5.059  0.1056 -0.3115 -0.0308
75797SOL    HW139370   2.479   5.352   5.010 -0.2460  0.9771 -1.5054
75797SOL    HW239371   2.618   5.406   5.032  0.4139 -1.6857  1.5083
75798SOL     OW39372   8.576   5.279  12.622 -0.0573  0.3155  0.1247
75798SOL    HW139373   8.617   5.204  12.665 -1.1639  0.2985  1.2093
75798SOL    HW239374   8.486   5.277  12.652 -0.2817  1.6807 -0.3904
75799SOL     OW39375  13.007  12.535   5.490 -0.2076 -0.1293  0.0704
75799SOL    HW139376  13.036  12.615   5.447 -1.1695  1.1984  1.7512
75799SOL    HW239377  12.981  12.563   5.578 -0.9253 -2.2285  0.5953
75800SOL     OW39378  11.565  10.723   3.430 -0.1576 -0.3793 -0.4510
75800SOL    HW139379  11.564  10.630   3.450  1.4010 -0.5629 -1.1098
75800SOL    HW239380  11.636  10.734   3.368 -0.3618  1.2492 -0.4513
75801SOL     OW39381  10.820  12.001  11.733 -0.2116  0.0758  0.0202
75801SOL    HW139382  10.728  11.986  11.758  0.0148 -1.0646  0.2011
75801SOL    HW239383  10.868  11.999  11.816  0.2136 -1.1912 -0.2428
75802SOL     OW39384   8.640   1.533  13.424  0.0939 -0.3643  0.1311
75802SOL    HW139385   8.684   1.520  13.508  0.1324  1.1856  0.3748
75802SOL    HW239386   8.569   1.469  13.425  0.6001 -0.9429  0.9677
75803SOL     OW39387  11.186   4.224   1.028 -0.5586 -0.1751  0.0701
75803SOL    HW139388  11.242   4.297   1.054  0.3130 -0.3155 -1.2981
75803SOL    HW239389  11.112   4.227   1.089 -0.4468  1.7173  0.1603
75804SOL     OW39390  12.100   0.436   9.179 -0.3330  0.0033  0.0562
75804SOL    HW139391  12.038   0.366   9.196 -0.3612  0.0680  0.2253
75804SOL    HW239392  12.060   0.514   9.218 -0.3567  0.1376 -0.2313
75805SOL     OW39393   2.051   1.355   4.981  0.1500 -0.3274  0.0123
75805SOL    HW139394   2.107   1.326   4.908  0.3217  0.8036 -0.3229
75805SOL    HW239395   1.964   1.363   4.942  0.4144  1.1559 -0.3158
75806SOL     OW39396   9.958  12.018  11.244 -0.2916  0.0152  0.4092
75806SOL    HW139397   9.975  12.098  11.194 -0.3736 -0.4467 -0.3716
75806SOL    HW239398  10.040  12.002  11.291  0.1328 -0.0795 -0.3450
75807SOL     OW39399   0.495   9.814   9.410 -0.2284  0.0829 -0.3628
75807SOL    HW139400   0.491   9.909   9.398 -1.4265  0.1225  0.1600
75807SOL    HW239401   0.540   9.801   9.493 -0.0487  0.1907 -0.4433
75808SOL     OW39402  11.491   0.485  10.056 -0.1471  0.1420  0.5183
75808SOL    HW139403  11.522   0.514  10.142 -1.0767 -0.8591  1.2105
75808SOL    HW239404  11.411   0.436  10.074 -0.4430  0.0427 -0.9400
75809SOL     OW39405   9.945  12.320   9.926  0.3695 -0.5116 -0.0909
75809SOL    HW139406   9.885  12.352   9.993  2.0618 -1.0390  1.7851
75809SOL    HW239407   9.930  12.377   9.851 -1.4124  0.2949  0.8202
75810SOL     OW39408   9.960  11.730   7.177 -0.0443  0.6702 -0.2000
75810SOL    HW139409   9.968  11.722   7.082 -1.4528  1.8733 -0.4653
75810SOL    HW239410   9.869  11.706   7.196 -0.6568  3.1477  0.4382
75811SOL     OW39411   8.632   9.502   2.535 -0.2654 -0.2184 -0.9255
75811SOL    HW139412   8.658   9.553   2.459 -0.4391 -0.6069 -1.2475
75811SOL    HW239413   8.711   9.455   2.561 -0.1265  0.1447 -0.6789
75812SOL     OW39414   2.112   6.327   0.431  0.6270  0.2945 -0.2763
75812SOL    HW139415   2.039   6.291   0.381  0.7436 -0.9789  0.4389
75812SOL    HW239416   2.075   6.348   0.516  0.8956  0.5220 -0.2135
75813SOL     OW39417   1.937   1.402   9.078  0.1648  0.4861  0.0821
75813SOL    HW139418   1.898   1.453   9.148  0.5571  0.9647 -0.0477
75813SOL    HW239419   1.976   1.466   9.019  2.7883  0.0011  1.1454
75814SOL     OW39420   4.852  13.988  11.442  0.4608 -0.4709 -0.1256
75814SOL    HW139421   4.856  14.084  11.440  1.5974 -0.4374  1.3876
75814SOL    HW239422   4.921  13.960  11.381  0.2400 -0.3305 -0.4421
75815SOL     OW39423   8.600   7.617   0.863 -0.5036 -0.5864  0.1918
75815SOL    HW139424   8.550   7.650   0.789  0.3573 -2.5061 -1.3388
75815SOL    HW239425   8.559   7.533   0.884  0.7074 -1.1636  0.3307
75816SOL     OW39426   2.669   6.885   8.738 -0.1305 -0.6056  0.5174
75816SOL    HW139427   2.685   6.915   8.828 -0.8008 -0.6167  0.6441
75816SOL    HW239428   2.634   6.962   8.693  0.1903 -0.6045  0.2639
75817SOL     OW39429   6.922   1.738  12.296  0.8859  0.2916  0.0468
75817SOL    HW139430   6.987   1.804  12.273  0.9194  0.2178 -0.0740
75817SOL    HW239431   6.970   1.673  12.346  0.7207  0.6744  0.7109
75818SOL     OW39432   4.302   8.998   6.439  0.8515  0.4661 -0.3601
75818SOL    HW139433   4.291   8.944   6.517  1.1961  2.2627  1.0071
75818SOL    HW239434   4.245   8.958   6.374  0.3842 -0.9732  0.8765
75819SOL     OW39435  13.392   8.036   3.082 -0.6059 -0.6307  0.0816
75819SOL    HW139436  13.368   8.007   3.170  2.2365 -0.0446  1.1939
75819SOL    HW239437  13.478   7.995   3.066  0.2825  1.5416 -1.1726
75820SOL     OW39438   1.377   7.104  12.350  0.1330 -0.0651  0.3383
75820SOL    HW139439   1.412   7.184  12.389 -1.5400  1.0009 -0.2246
75820SOL    HW239440   1.332   7.135  12.271 -1.7169 -1.3808  0.8352
75821SOL     OW39441   3.843   1.161   7.014 -0.1387 -0.2408  0.2748
75821SOL    HW139442   3.886   1.245   7.031 -1.3995  0.3355  0.7315
75821SOL    HW239443   3.870   1.106   7.087 -0.5364  0.2563  0.8044
75822SOL     OW39444   1.223   2.891  13.259 -0.2176 -0.2471  0.5043
75822SOL    HW139445   1.197   2.865  13.171 -0.8410 -0.6341  0.7942
75822SOL    HW239446   1.231   2.808  13.307 -2.1709  0.0404  1.4338
75823SOL     OW39447   5.271  11.923  11.211 -0.3707 -0.2660  0.2791
75823SOL    HW139448   5.343  11.863  11.188 -0.3114 -0.4493  0.9379
75823SOL    HW239449   5.203  11.866  11.247 -0.3058  0.0616  0.9308
75824SOL     OW39450   9.517   6.646   7.083  0.3484  0.3045  0.1493
75824SOL    HW139451   9.496   6.613   6.995 -2.0823  1.7035  0.1502
75824SOL    HW239452   9.483   6.579   7.142 -0.3104  0.5687  0.0694
75825SOL     OW39453   2.355   2.584  10.661 -0.1759 -0.1574 -0.1085
75825SOL    HW139454   2.319   2.616  10.578  0.6352  1.0189 -0.0371
75825SOL    HW239455   2.281   2.582  10.721 -0.2426  1.8489 -0.0635
75826SOL     OW39456  11.481   3.596   9.212  0.2859 -0.0535 -0.2993
75826SOL    HW139457  11.536   3.549   9.275 -0.4402 -1.0065 -0.3475
75826SOL    HW239458  11.395   3.602   9.255 -0.3388 -1.0918 -1.3299
75827SOL     OW39459   8.475  10.518   0.659  0.1069  0.6641  0.0399
75827SOL    HW139460   8.496  10.502   0.567  1.7906  0.3968  0.4283
75827SOL    HW239461   8.525  10.451   0.707 -1.7145 -0.0157  1.1024
75828SOL     OW39462   2.123   9.453   1.073  0.4478  0.1017 -0.4373
75828SOL    HW139463   2.105   9.395   1.148  0.5505 -1.1176 -1.3188
75828SOL    HW239464   2.121   9.541   1.110  0.0103 -0.4395  0.9082
75829SOL     OW39465  10.579   8.596   5.490 -0.2353 -0.7149 -0.2959
75829SOL    HW139466  10.653   8.641   5.530  1.4451 -1.9798 -1.8244
75829SOL    HW239467  10.614   8.561   5.408 -2.9511 -0.0210 -1.8665
75830SOL     OW39468   9.913   9.922  11.524  0.2790 -0.5568 -0.4607
75830SOL    HW139469   9.963   9.976  11.585 -1.3926 -1.2881  1.6784
75830SOL    HW239470   9.945   9.833  11.539  0.7975 -0.5815 -1.6554
75831SOL     OW39471   1.003   0.019   1.909  0.1559 -0.2477 -0.3176
75831SOL    HW139472   0.956   0.103   1.906  0.4512 -0.0193  0.9322
75831SOL    HW239473   1.071   0.027   1.842  0.4423  0.6862  0.0629
75832SOL     OW39474   7.045   3.598   5.994 -0.1300 -0.3471  0.2786
75832SOL    HW139475   7.012   3.593   5.904 -1.8395  1.0802  0.7726
75832SOL    HW239476   7.030   3.510   6.029  2.6457 -1.6555 -1.4040
75833SOL     OW39477   6.431  13.426  13.385 -0.4960 -0.2362  0.7669
75833SOL    HW139478   6.443  13.343  13.338 -1.6525 -0.1382  0.2692
75833SOL    HW239479   6.490  13.487  13.339  0.7994 -0.8902  1.5021
75834SOL     OW39480   5.791   4.856  11.099  0.1062  0.2227 -0.1475
75834SOL    HW139481   5.730   4.912  11.148  0.5941  0.2762  0.4199
75834SOL    HW239482   5.872   4.859  11.151 -0.3475 -2.3629  0.8445
75835SOL     OW39483   1.963   2.430   3.804  0.0850  0.4967 -0.0328
75835SOL    HW139484   1.894   2.487   3.838 -0.6111  0.2466 -0.9964
75835SOL    HW239485   1.949   2.428   3.710  0.3954 -0.8684 -0.0749
75836SOL     OW39486   0.418  13.062   5.980 -0.3207  0.3188 -0.1820
75836SOL    HW139487   0.325  13.071   6.000 -0.4999 -0.5643 -0.5314
75836SOL    HW239488   0.463  13.111   6.048 -0.9701 -1.0595  1.3202
75837SOL     OW39489   1.757  11.229   0.778  0.0102  0.5500 -0.6952
75837SOL    HW139490   1.697  11.229   0.852  0.3678  1.1225 -0.3977
75837SOL    HW239491   1.763  11.137   0.752 -0.3255  0.3792 -0.1875
75838SOL     OW39492  13.504   5.680   0.952 -0.1709 -0.0034 -0.3026
75838SOL    HW139493  13.450   5.662   1.029 -0.2784 -0.4442 -0.4779
75838SOL    HW239494  13.487   5.606   0.893 -1.4214  1.1825 -1.4897
75839SOL     OW39495   3.993  11.713   6.131 -0.0147 -0.6933  0.6372
75839SOL    HW139496   3.922  11.683   6.073 -1.3582 -0.2595  1.9809
75839SOL    HW239497   3.947  11.749   6.208  1.6242  1.3769  0.7295
75840SOL     OW39498   7.908   6.329   7.030 -0.2992  0.2559 -0.2327
75840SOL    HW139499   7.829   6.289   7.067  0.0671 -0.8950 -0.6328
75840SOL    HW239500   7.970   6.332   7.103  0.3979 -1.9410 -0.6320
75841SOL     OW39501  11.208   3.503   7.330 -0.8142  0.6808 -0.2740
75841SOL    HW139502  11.263   3.442   7.379 -0.7169 -2.1256 -3.5002
75841SOL    HW239503  11.270   3.567   7.295 -0.1848 -0.0910 -0.6027
75842SOL     OW39504   9.632  11.432   5.845 -0.1326 -0.4048  0.4121
75842SOL    HW139505   9.561  11.373   5.872 -0.9035  0.3554  0.1206
75842SOL    HW239506   9.671  11.462   5.927 -0.1297 -0.8569  0.5777
75843SOL     OW39507   9.106   8.172   9.104  0.1706 -0.2397  0.1760
75843SOL    HW139508   9.012   8.168   9.120  0.2608 -1.8325  0.4740
75843SOL    HW239509   9.125   8.265   9.094 -1.2999  0.1632  0.9040
75844SOL     OW39510   7.543   5.106   2.219 -0.1382 -0.2248 -0.1251
75844SOL    HW139511   7.535   5.024   2.170  1.8324 -0.1276 -0.7012
75844SOL    HW239512   7.507   5.086   2.306  1.4676 -2.1026  0.1702
75845SOL     OW39513  13.082   7.701  11.234 -0.0761  0.7593 -0.5507
75845SOL    HW139514  13.103   7.711  11.142 -0.6401 -0.0605 -0.7812
75845SOL    HW239515  12.993   7.735  11.242  0.0153  0.9398 -0.2868
75846SOL     OW39516  11.909   1.440  10.850  0.0502 -0.1213 -0.0150
75846SOL    HW139517  11.842   1.425  10.917  1.5759  1.1574  1.9039
75846SOL    HW239518  11.907   1.360  10.796 -1.3641 -1.1260  1.4362
75847SOL     OW39519   5.051   1.014   4.934  0.3021  0.0667  0.3628
75847SOL    HW139520   4.999   1.029   5.012  1.3275  0.2380  1.0384
75847SOL    HW239521   5.023   1.083   4.873 -0.9686 -0.4741  0.3163
75848SOL     OW39522  12.105  13.648   9.313 -0.0150  0.4464 -0.0733
75848SOL    HW139523  12.166  13.639   9.240 -0.7760 -0.8637 -0.5780
75848SOL    HW239524  12.034  13.586   9.293 -0.2501  0.0724  1.7581
75849SOL     OW39525  13.488   1.589  12.534  0.5351  0.3561 -0.3541
75849SOL    HW139526  13.545   1.610  12.460  1.0934 -2.4865 -0.8483
75849SOL    HW239527  13.402   1.571  12.494  0.8167 -1.0996 -0.3676
75850SOL     OW39528  13.484   9.326  13.337 -0.3304 -0.6994 -0.2026
75850SOL    HW139529  13.426   9.357  13.406  1.3563  1.3454  0.3943
75850SOL    HW239530  13.541   9.401  13.317  1.2720 -2.1923 -1.6268
75851SOL     OW39531   3.121   6.267   0.830 -0.5324 -0.5743 -0.3722
75851SOL    HW139532   3.196   6.240   0.778 -0.7958 -0.3674 -0.8620
75851SOL    HW239533   3.051   6.281   0.767 -0.9215 -0.5420  0.0576
75852SOL     OW39534   8.489   5.102   4.169 -0.2113 -0.2666 -0.0071
75852SOL    HW139535   8.529   5.040   4.107 -0.3534  1.9494 -2.5100
75852SOL    HW239536   8.399   5.073   4.178 -0.9841  0.7829 -3.1038
75853SOL     OW39537  12.804   2.832   1.678  0.0310 -0.0453  0.2636
75853SOL    HW139538  12.747   2.867   1.609  1.4561  1.3717 -0.2549
75853SOL    HW239539  12.878   2.792   1.631  0.3268 -0.3200  0.9496
75854SOL     OW39540   7.437   3.813  13.252  0.0748 -0.2227 -0.0893
75854SOL    HW139541   7.417   3.884  13.313 -0.4998 -0.1563 -0.3485
75854SOL    HW239542   7.357   3.804  13.199  0.4995 -0.4012 -0.7075
75855SOL     OW39543  11.465   0.597  11.265 -0.4650 -0.1215  0.1172
75855SOL    HW139544  11.463   0.528  11.332  0.8225 -0.9208 -0.6156
75855SOL    HW239545  11.528   0.566  11.201  0.2046  1.7832 -0.2198
75856SOL     OW39546   8.759   3.904  10.986 -1.0358  0.2931 -0.1333
75856SOL    HW139547   8.679   3.889  10.935 -1.8759  0.4693  1.0712
75856SOL    HW239548   8.747   3.851  11.064 -0.3243  0.9225  0.4163
75857SOL     OW39549   2.018   4.284   6.135  0.3378 -0.9906  0.0998
75857SOL    HW139550   2.010   4.229   6.057  0.8336  0.6534 -1.1846
75857SOL    HW239551   2.108   4.318   6.131  0.4654 -1.1216  1.5688
75858SOL     OW39552   7.497   1.052   0.271 -0.1054  0.0827 -0.2902
75858SOL    HW139553   7.531   1.121   0.215 -0.1653  0.1067 -0.2965
75858SOL    HW239554   7.435   1.095   0.329 -0.1846  0.0260 -0.3309
75859SOL     OW39555   1.398   8.556  13.563  0.2902 -0.3211 -0.1085
75859SOL    HW139556   1.409   8.644  13.528  1.2548 -0.3741  0.0336
75859SOL    HW239557   1.420   8.564  13.656 -2.4661 -0.1288  0.6186
75860SOL     OW39558   4.454  10.892   0.772 -0.3183 -0.2298  0.2830
75860SOL    HW139559   4.414  10.835   0.707 -0.1411 -0.4629  0.3794
75860SOL    HW239560   4.385  10.954   0.795 -0.1000  0.4788 -0.8528
75861SOL     OW39561   2.084   6.084   2.715 -0.4048  0.1198 -0.4965
75861SOL    HW139562   2.035   6.166   2.710 -0.7085  0.0390  0.7611
75861SOL    HW239563   2.016   6.016   2.716 -0.2810 -0.0198  0.6885
75862SOL     OW39564   3.661  14.009   7.779  0.4502  0.4640 -0.1069
75862SOL    HW139565   3.634  14.067   7.850  0.7010 -0.4350  0.7262
75862SOL    HW239566   3.594  14.023   7.711 -0.7182  0.1318  0.9357
75863SOL     OW39567   5.703   6.156   1.771  0.2077 -0.0974  0.1515
75863SOL    HW139568   5.785   6.158   1.723  0.0375  1.5821 -0.1252
75863SOL    HW239569   5.724   6.110   1.853  1.3320  0.0034 -0.0664
75864SOL     OW39570   4.505  10.205   2.263 -0.1783 -0.4850 -0.1486
75864SOL    HW139571   4.570  10.187   2.331  0.3975  1.9841  0.0660
75864SOL    HW239572   4.425  10.226   2.311  0.7050  3.1371  0.0349
75865SOL     OW39573   1.820  10.554   0.532 -0.1336  0.0352  0.3020
75865SOL    HW139574   1.895  10.598   0.572 -0.2136  0.3334  0.1255
75865SOL    HW239575   1.796  10.486   0.595 -0.1936  0.4398  0.7247
75866SOL     OW39576   6.411   3.232   1.823  0.0071  0.1878 -0.7838
75866SOL    HW139577   6.498   3.228   1.784  0.9578  1.7973  1.0209
75866SOL    HW239578   6.370   3.310   1.783  1.4890  2.6764  2.1134
75867SOL     OW39579   1.099   0.890   6.362 -0.1134  0.1118  0.1504
75867SOL    HW139580   1.037   0.821   6.381  0.7198 -1.0020 -0.9951
75867SOL    HW239581   1.047   0.970   6.360 -0.9135 -0.2673  2.6518
75868SOL     OW39582  11.652   9.212   4.046 -0.4291 -0.3298 -0.1937
75868SOL    HW139583  11.580   9.166   4.090 -1.1719  0.4926 -0.5252
75868SOL    HW239584  11.729   9.156   4.061 -0.7808 -0.4009  1.5941
75869SOL     OW39585   3.423  13.570   9.998  0.2816  0.3889  0.7190
75869SOL    HW139586   3.409  13.611  10.083  1.4394  0.1842  1.0185
75869SOL    HW239587   3.353  13.505   9.991 -1.5907  2.3353  0.2317
75870SOL     OW39588  10.042   3.751   7.543  0.5804 -0.5222 -0.2328
75870SOL    HW139589   9.972   3.799   7.497  0.7131 -0.9746 -0.9263
75870SOL    HW239590  10.053   3.798   7.626 -0.4799 -0.3867 -0.1542
75871SOL     OW39591  10.942   6.840   9.949  0.6609  0.0416  0.7121
75871SOL    HW139592  10.957   6.771  10.013  1.3754  0.2465  0.7701
75871SOL    HW239593  10.899   6.910   9.999 -1.0627 -0.7533  0.4309
75872SOL     OW39594   6.339   8.952  13.238  0.4127 -0.1359 -0.4375
75872SOL    HW139595   6.302   8.987  13.320 -2.7574  1.1893 -2.2440
75872SOL    HW239596   6.373   9.029  13.193  1.9271 -0.8275 -0.5200
75873SOL     OW39597   0.031  10.652  11.530  0.5987  0.0326  0.1519
75873SOL    HW139598   0.125  10.660  11.517  0.4346  0.2259 -0.9541
75873SOL    HW239599  -0.008  10.717  11.473 -0.2158 -0.0293  0.6105
75874SOL     OW39600   3.300  12.452  12.313  0.2267  0.0369  0.4298
75874SOL    HW139601   3.291  12.382  12.249  0.7119 -1.6694  2.1395
75874SOL    HW239602   3.225  12.509  12.299 -0.2180 -0.8710 -0.9517
75875SOL     OW39603   9.072   9.826   8.018 -0.0454 -0.1989  0.2589
75875SOL    HW139604   9.134   9.821   7.945 -0.2347 -1.2266  0.1543
75875SOL    HW239605   9.075   9.739   8.058 -1.2286 -0.1922  0.4080
75876SOL     OW39606  13.529   6.347   3.091  0.5354  0.3606 -0.4126
75876SOL    HW139607  13.495   6.436   3.094 -1.2894 -0.3169  0.6709
75876SOL    HW239608  13.499   6.312   3.007 -0.5823  0.1112  0.0762
75877SOL     OW39609   6.056   3.057   9.228 -0.1032 -0.3015 -0.1290
75877SOL    HW139610   6.122   3.008   9.178 -0.0596  1.1764 -1.6008
75877SOL    HW239611   6.054   3.143   9.187 -1.6469  0.2814  1.0797
75878SOL     OW39612  12.902   3.089  13.534  0.0403  0.1623  0.2762
75878SOL    HW139613  12.840   3.087  13.607 -0.2328 -0.2916  0.0413
75878SOL    HW239614  12.986   3.110  13.574 -0.1375  0.0845  0.6984
75879SOL     OW39615  10.781   5.110   0.635 -0.2900  0.1519 -0.0557
75879SOL    HW139616  10.782   5.161   0.554  0.2180  0.0537 -0.1168
75879SOL    HW239617  10.872   5.084   0.648 -0.3418  0.2981  0.6348
75880SOL     OW39618   3.966   1.593   3.211  0.0137 -0.6002 -0.0006
75880SOL    HW139619   3.987   1.545   3.291 -1.3012 -1.6626 -0.2403
75880SOL    HW239620   3.954   1.525   3.145  0.1784  0.1988 -0.8775
75881SOL     OW39621  12.666   7.899   5.912  0.0147 -0.1883 -0.0303
75881SOL    HW139622  12.582   7.940   5.934 -1.2947 -2.5572 -0.3114
75881SOL    HW239623  12.705   7.879   5.997 -1.4205 -2.2848  0.2036
75882SOL     OW39624   0.467   6.465   5.759 -0.5105  0.5479 -0.4948
75882SOL    HW139625   0.419   6.470   5.676  1.2415 -0.1032 -1.6271
75882SOL    HW239626   0.504   6.552   5.770 -1.0079  0.7274 -0.2153
75883SOL     OW39627   2.185   5.786  13.845 -0.2735 -0.4973  0.1638
75883SOL    HW139628   2.273   5.753  13.826  0.1730  0.7317 -0.0205
75883SOL    HW239629   2.135   5.767  13.765  0.0808 -0.3585 -0.0954
75884SOL     OW39630   4.168  11.667  11.614  0.3370  0.2501 -0.2951
75884SOL    HW139631   4.205  11.581  11.594 -0.0064 -0.1685  0.7916
75884SOL    HW239632   4.083  11.668  11.570  0.3464  0.0383 -0.3178
75885SOL     OW39633   2.112   6.189   1.289 -0.2204 -0.1877 -0.0806
75885SOL    HW139634   2.086   6.099   1.310 -0.4459 -0.2646 -0.6851
75885SOL    HW239635   2.054   6.243   1.343  1.3760 -0.3995  1.9974
75886SOL     OW39636   1.086  12.318   1.372 -0.0095 -0.9128  0.3881
75886SOL    HW139637   1.100  12.400   1.326 -0.9539 -0.8978  0.1153
75886SOL    HW239638   1.143  12.323   1.448  0.0155 -0.0474  0.3150
75887SOL     OW39639   0.601   4.004  12.010  0.1344 -1.2517 -0.5590
75887SOL    HW139640   0.629   3.929  11.959 -1.3277 -3.1711  1.2926
75887SOL    HW239641   0.505   3.997  12.012  0.0327  0.0395  0.5549
75888SOL     OW39642  11.417   2.651   9.745 -0.7388 -0.4421 -0.5409
75888SOL    HW139643  11.372   2.618   9.668 -0.7686 -0.0110 -0.7139
75888SOL    HW239644  11.507   2.666   9.716 -0.6506 -0.6542 -0.3835
75889SOL     OW39645   4.190  13.989  12.822 -0.0807 -0.6122  0.4176
75889SOL    HW139646   4.237  14.068  12.848  1.0550 -0.3395 -2.2001
75889SOL    HW239647   4.219  13.923  12.885  1.2154  0.3592  0.8950
75890SOL     OW39648   5.830   0.331   5.088  0.3647  0.4154  0.2455
75890SOL    HW139649   5.818   0.359   5.179 -0.2810  0.3302  0.1888
75890SOL    HW239650   5.887   0.254   5.095 -1.1732 -0.7378  0.7645
75891SOL     OW39651   6.509   2.934   9.681 -0.0236 -0.2100 -0.2869
75891SOL    HW139652   6.592   2.951   9.724  0.0152  1.5916 -0.9852
75891SOL    HW239653   6.448   2.916   9.753  0.3037  1.5488  0.4931
75892SOL     OW39654   7.700   1.594  12.746  0.2585 -0.5291 -0.0886
75892SOL    HW139655   7.786   1.572  12.782  0.9603  1.6274 -0.2762
75892SOL    HW239656   7.719   1.622  12.656 -0.3794  1.4078  0.3309
75893SOL     OW39657   4.564  11.016   4.686  0.2886  0.3675 -0.5385
75893SOL    HW139658   4.472  11.023   4.713  0.5985  0.5103  0.5356
75893SOL    HW239659   4.564  10.950   4.617 -0.5767  0.1107 -0.3042
75894SOL     OW39660  10.555   7.711   1.727 -0.0778 -0.5492  0.2369
75894SOL    HW139661  10.523   7.740   1.812 -0.2484 -0.1228  0.0305
75894SOL    HW239662  10.492   7.645   1.699 -0.2935 -0.3378  0.2230
75895SOL     OW39663   3.254   6.359   7.150  0.1591  0.8512 -0.0870
75895SOL    HW139664   3.237   6.350   7.244  0.2431  1.9320  0.0403
75895SOL    HW239665   3.178   6.407   7.117  0.3728  0.9175 -0.4830
75896SOL     OW39666   0.086   7.360   2.000  0.6121 -0.2798 -0.8989
75896SOL    HW139667   0.027   7.435   2.011 -0.4219 -1.2197  0.3466
75896SOL    HW239668   0.076   7.336   1.908 -0.8717 -0.3076 -0.7617
75897SOL     OW39669   9.578  10.378   9.705  0.1186 -0.2197 -0.2114
75897SOL    HW139670   9.626  10.330   9.773  0.0202  0.0050  0.0210
75897SOL    HW239671   9.624  10.461   9.698 -1.5046  0.9596  1.6334
75898SOL     OW39672   2.388  12.609  11.162  0.5611  0.7105  0.1302
75898SOL    HW139673   2.438  12.564  11.230 -0.3099 -0.4484  0.0184
75898SOL    HW239674   2.412  12.565  11.081  0.3342  1.0021 -0.0970
75899SOL     OW39675  12.379   4.278   3.170  0.1867 -0.4304 -0.3680
75899SOL    HW139676  12.370   4.226   3.090  0.3669  1.6802 -1.8440
75899SOL    HW239677  12.471   4.304   3.171  0.1018 -0.1394  0.3595
75900SOL     OW39678   2.218  13.313  11.452  0.4535  0.4011  0.5819
75900SOL    HW139679   2.297  13.260  11.438  1.9031  2.4801  0.4366
75900SOL    HW239680   2.230  13.389  11.395 -2.2570  0.2370 -0.3209
75901SOL     OW39681   8.159  13.296   5.752 -0.1178  0.0554 -0.3403
75901SOL    HW139682   8.186  13.208   5.777  1.1039  0.0726 -1.5142
75901SOL    HW239683   8.239  13.348   5.754 -0.8265  1.1668  0.3507
75902SOL     OW39684   4.102   2.390   1.458  0.0412  0.2079 -0.0349
75902SOL    HW139685   4.027   2.385   1.518 -0.5583  3.0891 -0.4277
75902SOL    HW239686   4.064   2.403   1.372  0.9708 -1.6426 -0.7863
75903SOL     OW39687   6.931  12.621  12.581 -0.2562  0.3387  0.5226
75903SOL    HW139688   6.995  12.688  12.601 -0.5562  1.0969 -0.8933
75903SOL    HW239689   6.922  12.624  12.485 -0.6584 -1.3587  0.4695
75904SOL     OW39690   6.981  13.834   7.122  0.7649  0.2167  0.8097
75904SOL    HW139691   6.935  13.887   7.187  0.1875 -0.3085  0.8476
75904SOL    HW239692   6.911  13.798   7.067  1.2874  1.5312 -0.8229
75905SOL     OW39693   4.920  10.390   6.476 -0.3667 -0.0573  0.6719
75905SOL    HW139694   4.897  10.345   6.557  0.1060 -0.6124  0.5003
75905SOL    HW239695   4.905  10.324   6.407  0.4446  0.0064  0.4303
75906SOL     OW39696   3.647   1.592   6.860  0.0457  0.2673 -0.0386
75906SOL    HW139697   3.662   1.504   6.825  0.3918  0.6638 -0.9033
75906SOL    HW239698   3.638   1.648   6.783  1.9557  1.3485  0.4670
75907SOL     OW39699  12.036   7.454  13.913 -0.1342  0.1141  0.4554
75907SOL    HW139700  12.116   7.402  13.923 -0.2564  0.0379  1.0447
75907SOL    HW239701  12.064   7.533  13.867  0.5432  0.7156  1.8524
75908SOL     OW39702   8.056   1.890   9.470  0.2447  0.2837  0.3858
75908SOL    HW139703   8.135   1.936   9.500 -0.0079 -0.2678  2.0011
75908SOL    HW239704   7.996   1.960   9.444  0.4491  0.8121  1.2999
75909SOL     OW39705   3.093   3.902   3.636  0.8131  0.1820  0.2708
75909SOL    HW139706   3.175   3.863   3.604  0.3576 -0.6191  0.0510
75909SOL    HW239707   3.034   3.828   3.647 -0.2714  0.8628 -0.6920
75910SOL     OW39708   0.273   9.150   5.283 -0.3698  0.2421  0.3024
75910SOL    HW139709   0.199   9.210   5.288 -1.3096 -0.5582 -2.5091
75910SOL    HW239710   0.259   9.090   5.357 -2.9646 -0.2800 -0.4809
75911SOL     OW39711  12.334  12.137  10.825 -0.0468  0.0571  0.0267
75911SOL    HW139712  12.330  12.233  10.825 -0.3238  0.0498 -0.4652
75911SOL    HW239713  12.243  12.110  10.831  0.0021 -0.1744 -0.2727
75912SOL     OW39714   6.692  12.364   4.224 -0.4276  0.8568 -0.1180
75912SOL    HW139715   6.694  12.269   4.231 -0.3975  0.8476 -0.2457
75912SOL    HW239716   6.637  12.393   4.297  0.5914  0.8245  0.6760
75913SOL     OW39717  11.370   3.007   6.828 -0.2635  0.3751  0.2631
75913SOL    HW139718  11.458   3.025   6.794 -0.2495  0.8210  0.5191
75913SOL    HW239719  11.327   3.093   6.829 -1.2614 -0.0585 -1.3940
75914SOL     OW39720   8.020   9.369   7.698 -0.4808  0.0376  0.0847
75914SOL    HW139721   7.938   9.362   7.649 -0.7509  2.6489 -0.0005
75914SOL    HW239722   7.992   9.385   7.788 -0.0189 -1.0395  0.4279
75915SOL     OW39723  12.173   6.644  11.250  0.4943  0.3787 -0.3531
75915SOL    HW139724  12.079   6.648  11.270  0.4301 -0.6707 -0.3804
75915SOL    HW239725  12.216   6.663  11.333  0.2439 -0.4175 -0.0305
75916SOL     OW39726  11.858   6.743   2.616  0.6346  0.4458  0.2332
75916SOL    HW139727  11.861   6.740   2.520 -2.4170  2.5771 -0.0755
75916SOL    HW239728  11.917   6.815   2.640  1.5367 -0.2039  0.0090
75917SOL     OW39729   1.374   7.103   1.795 -0.0414 -0.0406 -0.1378
75917SOL    HW139730   1.418   7.182   1.826 -0.8655  0.2632  0.2993
75917SOL    HW239731   1.329   7.130   1.715 -1.2754  0.2654  0.6251
75918SOL     OW39732   8.203   2.235   1.421  0.1386  0.7371 -0.1842
75918SOL    HW139733   8.138   2.205   1.358 -1.9769  0.6659  1.8801
75918SOL    HW239734   8.227   2.156   1.469  1.1126  0.9193 -0.3564
75919SOL     OW39735   0.713   4.376  13.322 -0.4047 -0.0083  0.1231
75919SOL    HW139736   0.709   4.368  13.417  1.2284 -0.6748  0.1512
75919SOL    HW239737   0.787   4.322  13.295 -0.3943  0.7251 -1.4635
75920SOL     OW39738   0.044   8.020   5.654 -0.5441 -0.2859  0.0328
75920SOL    HW139739   0.120   7.963   5.646  0.9716  1.7213 -0.6141
75920SOL    HW239740  -0.023   7.979   5.599  0.6094 -1.2289 -0.7006
75921SOL     OW39741   2.643  11.834   9.329  0.3019  0.0575  0.1476
75921SOL    HW139742   2.705  11.905   9.314  0.8234 -0.5539 -0.6577
75921SOL    HW239743   2.696  11.761   9.360 -0.2386  0.0311  1.0358
75922SOL     OW39744   1.788   5.086   8.846  0.1775  0.4004 -0.3507
75922SOL    HW139745   1.793   5.138   8.926 -2.6355  2.6390 -1.4291
75922SOL    HW239746   1.698   5.099   8.815  0.2774 -2.7111 -2.3834
75923SOL     OW39747   4.932   6.580   8.927 -0.1932 -0.1921  0.3758
75923SOL    HW139748   4.849   6.625   8.912 -0.7574 -1.5307 -0.8332
75923SOL    HW239749   4.972   6.627   9.000 -3.1270 -0.9565  2.7013
75924SOL     OW39750  14.024   0.792   3.222  0.0664  0.5617  0.5202
75924SOL    HW139751  13.976   0.739   3.159  1.2013 -1.2176  1.0825
75924SOL    HW239752  13.978   0.779   3.305  1.0045 -0.5144  0.8953
75925SOL     OW39753  10.609   0.548  13.358  0.1668  0.6523 -0.0844
75925SOL    HW139754  10.582   0.515  13.272 -1.0375  0.2804  0.4261
75925SOL    HW239755  10.638   0.470  13.405  0.4035  0.7976  0.0152
75926SOL     OW39756  13.290   9.244   9.830 -0.5741  0.1147  0.3082
75926SOL    HW139757  13.331   9.266   9.746 -0.1759 -0.8919  0.2159
75926SOL    HW239758  13.206   9.289   9.829  0.0607  1.3480  0.0284
75927SOL     OW39759   8.918  13.342   0.116 -0.1546 -0.6286  0.3702
75927SOL    HW139760   8.917  13.408   0.185 -5.1865 -0.6728  0.6852
75927SOL    HW239761   8.928  13.393   0.035  0.0451  0.0466  0.8059
75928SOL     OW39762   8.931  11.224   1.870 -0.0080  0.5788  0.5964
75928SOL    HW139763   8.993  11.196   1.802 -0.1555  2.6207 -0.4476
75928SOL    HW239764   8.896  11.142   1.905  0.2966 -0.5747 -1.5949
75929SOL     OW39765   1.814   3.209  11.636  0.9351 -0.7946  0.1387
75929SOL    HW139766   1.820   3.259  11.717  0.9434 -0.7111  0.0875
75929SOL    HW239767   1.776   3.270  11.573  1.8945 -0.5177 -0.1953
75930SOL     OW39768   6.888   2.130   6.335  0.5842  1.1026  0.2552
75930SOL    HW139769   6.947   2.057   6.354  0.7574  0.6840 -1.7406
75930SOL    HW239770   6.938   2.208   6.362  0.8997  0.5807  1.2151
75931SOL     OW39771   1.291  11.397   6.214 -0.9726 -0.2704 -0.4955
75931SOL    HW139772   1.325  11.401   6.125 -0.9681  1.0724 -0.4559
75931SOL    HW239773   1.313  11.482   6.252 -0.3230 -1.0738  1.0386
75932SOL     OW39774   1.666   0.780   9.306 -0.1158  0.2501 -0.0316
75932SOL    HW139775   1.709   0.861   9.279 -0.1139  0.8056  1.5552
75932SOL    HW239776   1.732   0.712   9.289  0.6415  0.8352  0.4890
75933SOL     OW39777  10.092  11.767   5.849 -0.0561  0.0481 -0.7272
75933SOL    HW139778  10.084  11.783   5.755  0.3326  1.7057 -0.5169
75933SOL    HW239779  10.183  11.740   5.861 -0.2248 -0.5913 -0.8768
75934SOL     OW39780  13.830  11.741  13.453  0.0767 -0.0852 -0.3499
75934SOL    HW139781  13.924  11.747  13.471  0.4032 -1.8143 -1.2833
75934SOL    HW239782  13.824  11.685  13.376 -1.7679 -0.4064 -0.0201
75935SOL     OW39783  12.467  10.387   9.186  0.4638 -0.0670 -0.2330
75935SOL    HW139784  12.470  10.298   9.153 -1.5656 -0.3974  0.3389
75935SOL    HW239785  12.377  10.415   9.172  0.5804  1.2224  1.3125
75936SOL     OW39786  13.112   0.154  13.946 -0.5002  0.3854  0.0228
75936SOL    HW139787  13.164   0.112  14.015  1.1832  1.5202 -0.4916
75936SOL    HW239788  13.176   0.203  13.894 -1.7314 -0.3260 -2.3019
75937SOL     OW39789  13.446  13.883   6.843 -0.6159  0.1843 -0.1641
75937SOL    HW139790  13.359  13.866   6.878 -0.4401 -2.9174 -0.9187
75937SOL    HW239791  13.505  13.866   6.917 -0.5220 -1.5319 -0.5748
75938SOL     OW39792   7.768  12.015   9.457  1.0081  0.1081  0.0749
75938SOL    HW139793   7.707  12.053   9.521  0.6019 -1.4683  0.6853
75938SOL    HW239794   7.853  12.052   9.481  1.0088 -1.0245  2.1000
75939SOL     OW39795   9.416   1.434   1.310 -0.1927  1.4378 -0.2686
75939SOL    HW139796   9.339   1.404   1.262 -0.4826  2.8416 -0.7347
75939SOL    HW239797   9.394   1.523   1.338  1.1911  1.7999 -0.2496
75940SOL     OW39798  13.790  12.486   3.706 -0.4311  0.2196 -0.5674
75940SOL    HW139799  13.701  12.513   3.683 -0.5741 -0.5029 -0.9155
75940SOL    HW239800  13.831  12.468   3.621 -0.3246 -0.5499 -0.3618
75941SOL     OW39801   6.177  11.635   6.038  0.5236  0.2320 -0.2634
75941SOL    HW139802   6.194  11.703   6.104  1.4983 -0.1480 -0.1147
75941SOL    HW239803   6.211  11.673   5.956  1.2171 -0.1275 -0.1501
75942SOL     OW39804   8.052  10.412   4.017  0.3282  0.5547 -0.0061
75942SOL    HW139805   8.081  10.456   4.097  0.4717  0.8466 -0.2214
75942SOL    HW239806   8.006  10.479   3.967 -1.0920  0.0126  0.5075
75943SOL     OW39807   5.693  13.142  13.793 -0.4697  0.3983  0.0012
75943SOL    HW139808   5.707  13.166  13.885 -2.1035 -1.0690  0.6919
75943SOL    HW239809   5.707  13.048  13.791 -2.8951 -0.0106 -0.6716
75944SOL     OW39810   4.166   4.591  12.933 -0.4934 -0.1771  0.3039
75944SOL    HW139811   4.085   4.576  12.982  0.3110 -0.8211  1.5067
75944SOL    HW239812   4.169   4.685  12.919 -1.5847 -0.1825 -0.0099
75945SOL     OW39813  10.974   4.953   3.079 -0.2024  0.1479  0.5267
75945SOL    HW139814  11.055   5.001   3.098 -0.3710  0.8456 -0.4427
75945SOL    HW239815  10.913   4.980   3.147  0.8376 -1.6361  2.2686
75946SOL     OW39816   8.343  10.129   0.467 -0.1519  0.1764  0.0513
75946SOL    HW139817   8.327  10.213   0.422  0.8162  0.9322  1.0603
75946SOL    HW239818   8.381  10.074   0.399 -1.4335  0.3053 -0.8091
75947SOL     OW39819   8.017   6.418   1.898  0.3104 -0.2893 -0.4892
75947SOL    HW139820   8.053   6.337   1.863  0.3726  0.0898 -1.3234
75947SOL    HW239821   8.086   6.451   1.956  0.3128 -0.7894 -0.1988
75948SOL     OW39822  13.896  13.798   5.311  0.0414  0.8795 -0.2485
75948SOL    HW139823  13.989  13.795   5.332 -0.2507 -2.4343  1.2619
75948SOL    HW239824  13.870  13.888   5.329  2.6399  1.5142  0.7321
75949SOL     OW39825   8.395   5.938   0.356 -0.5839 -0.3160 -0.0783
75949SOL    HW139826   8.399   6.030   0.381  0.7755 -0.0309 -1.2155
75949SOL    HW239827   8.303   5.922   0.338 -0.9747  0.5599  1.0422
75950SOL     OW39828  11.685   6.890  10.369 -0.0795  0.1791 -0.0106
75950SOL    HW139829  11.671   6.955  10.438  0.2588  1.6566 -1.2898
75950SOL    HW239830  11.775   6.905  10.339 -0.4017 -0.0544 -1.1544
75951SOL     OW39831  11.198   8.812   4.278 -0.4539  0.5866 -0.1840
75951SOL    HW139832  11.285   8.788   4.247  0.8678  1.4986  2.5699
75951SOL    HW239833  11.198   8.907   4.278 -2.4641  0.7048 -2.5535
75952SOL     OW39834  10.961   8.286   7.879 -0.3537 -0.2159 -0.7469
75952SOL    HW139835  10.911   8.281   7.961 -0.6280 -1.0711 -0.9537
75952SOL    HW239836  11.017   8.363   7.889  0.6188 -1.0887  0.7992
75953SOL     OW39837   4.003   2.180   6.263 -0.5935 -0.0483  0.3162
75953SOL    HW139838   4.019   2.229   6.344  0.7810  1.6065 -0.8815
75953SOL    HW239839   4.009   2.246   6.194 -3.1648 -1.1372 -1.0774
75954SOL     OW39840   3.027  13.600   3.223  0.2147 -0.0282 -0.2248
75954SOL    HW139841   2.941  13.572   3.253  0.6671  0.3105  1.5052
75954SOL    HW239842   3.089  13.550   3.276  1.1333 -0.9456 -2.0736
75955SOL     OW39843   8.439   6.859  11.929  0.3767 -0.1042 -0.1223
75955SOL    HW139844   8.515   6.807  11.903  1.3260  0.7508  0.8368
75955SOL    HW239845   8.403   6.891  11.847 -0.0932 -2.0547 -0.7189
75956SOL     OW39846   8.213  12.380  11.981  0.1446 -0.3106  0.1389
75956SOL    HW139847   8.179  12.358  12.067 -1.2088 -0.1964 -0.3436
75956SOL    HW239848   8.160  12.454  11.952  4.6425  4.1549  1.8452
75957SOL     OW39849   8.415   1.548   6.379 -0.2822  0.8510 -0.3165
75957SOL    HW139850   8.349   1.510   6.321 -0.1478  0.9885 -0.5623
75957SOL    HW239851   8.479   1.478   6.392 -1.4012  0.0868  1.4173
75958SOL     OW39852   3.761  10.536   8.769 -0.0284  0.0698 -0.1245
75958SOL    HW139853   3.687  10.548   8.709 -0.1249  0.9270  0.1547
75958SOL    HW239854   3.741  10.454   8.814 -0.2002 -0.3304 -0.9120
75959SOL     OW39855   0.392  10.976  11.976 -0.1289  0.2811  0.9876
75959SOL    HW139856   0.344  11.059  11.978  0.8539  0.8925  0.1634
75959SOL    HW239857   0.459  10.988  11.908  0.4643 -0.9514  1.3181
75960SOL     OW39858  10.848   3.460  10.003  0.3175 -0.0466 -0.6408
75960SOL    HW139859  10.821   3.370  10.022  0.8290  0.1468  1.1092
75960SOL    HW239860  10.849   3.504  10.088  2.1436  1.0500 -1.1729
75961SOL     OW39861  10.973   0.929  13.764  0.2830  0.2488 -0.0627
75961SOL    HW139862  10.882   0.906  13.750  0.2160 -0.5105  1.4157
75961SOL    HW239863  11.007   0.950  13.677 -1.9360  3.0600 -0.3788
75962SOL     OW39864   2.402   5.258  13.578 -0.3088  0.2179 -0.3087
75962SOL    HW139865   2.308   5.244  13.592 -0.0568 -1.1459  0.1207
75962SOL    HW239866   2.407   5.302  13.493 -1.2609 -1.1474 -1.1027
75963SOL     OW39867   5.983  13.216   2.909 -0.1061 -0.2789 -0.1224
75963SOL    HW139868   5.985  13.307   2.940  0.2882 -0.5970  0.8006
75963SOL    HW239869   5.978  13.224   2.814 -0.2972  0.7138 -0.0412
75964SOL     OW39870   6.299   2.470  12.508 -0.1286 -0.3718  0.1056
75964SOL    HW139871   6.347   2.497  12.429  0.2989 -1.2697  0.0435
75964SOL    HW239872   6.352   2.399  12.545  0.4900  1.0047  2.0332
75965SOL     OW39873   7.101   0.111  11.451  0.1126 -0.1596 -0.0756
75965SOL    HW139874   7.139   0.193  11.484 -2.2289  1.7350 -1.7440
75965SOL    HW239875   7.174   0.068  11.407  0.7987  2.6879 -2.0403
75966SOL     OW39876  12.251   2.808   4.270  0.0055 -0.1488  0.0699
75966SOL    HW139877  12.272   2.882   4.213  0.6190  0.5301  1.1462
75966SOL    HW239878  12.168   2.833   4.311 -0.1546 -0.3860 -0.1101
75967SOL     OW39879   4.908  13.312   2.814 -0.3915  0.5837  0.4040
75967SOL    HW139880   4.845  13.330   2.884 -0.6280  4.1249 -0.5527
75967SOL    HW239881   4.854  13.294   2.737 -0.2142  1.2086  0.1286
75968SOL     OW39882   0.488   4.472   0.409 -0.2748 -0.3172  0.2168
75968SOL    HW139883   0.551   4.439   0.345 -0.5445 -3.6656  1.4745
75968SOL    HW239884   0.537   4.471   0.492 -0.3951  2.4470  0.4005
75969SOL     OW39885   9.844   0.663   4.688 -0.5023  0.4114 -0.4385
75969SOL    HW139886   9.816   0.690   4.601 -1.8610 -0.4542 -0.3003
75969SOL    HW239887   9.765   0.668   4.742 -0.1173 -0.8653  0.2919
75970SOL     OW39888   9.396   5.994   4.208  0.1941 -0.0855  0.0274
75970SOL    HW139889   9.419   5.903   4.228 -0.5119 -0.5613 -1.1751
75970SOL    HW239890   9.322   5.987   4.148 -1.9178  1.3392  2.2759
75971SOL     OW39891   5.230   6.593  10.123  0.2712  0.1202 -0.0590
75971SOL    HW139892   5.145   6.630  10.096 -0.6368 -2.6690 -1.4401
75971SOL    HW239893   5.291   6.621  10.054 -0.0196  0.4157 -0.2011
75972SOL     OW39894  12.404   5.925   1.224 -0.4478 -0.3273  0.3132
75972SOL    HW139895  12.366   5.917   1.136 -1.3232 -0.1853  0.6640
75972SOL    HW239896  12.493   5.891   1.215 -0.8116 -1.1325 -0.4344
75973SOL     OW39897   5.797   2.643  12.527  0.5318  0.1210  0.6556
75973SOL    HW139898   5.888   2.656  12.502  0.5169 -0.0041  0.5367
75973SOL    HW239899   5.768   2.570  12.473 -0.0262  0.9923 -0.2660
75974SOL     OW39900   6.096   8.696   6.345  0.1809 -0.4872  0.0825
75974SOL    HW139901   6.085   8.601   6.342 -0.3796 -0.4798  1.4748
75974SOL    HW239902   6.023   8.730   6.292  1.0713 -0.8336 -1.4368
75975SOL     OW39903  13.018  12.185   3.900 -0.0935 -0.8397  0.1580
75975SOL    HW139904  12.925  12.204   3.905 -0.5645 -2.9333  0.5623
75975SOL    HW239905  13.048  12.186   3.991  0.2636 -0.2516  0.0358
75976SOL     OW39906   5.083   6.021   1.091 -0.4182 -0.4976 -0.3201
75976SOL    HW139907   5.167   6.016   1.138 -0.3077  0.7906 -0.3492
75976SOL    HW239908   5.106   6.007   0.999 -0.0661  0.9017 -0.4620
75977SOL     OW39909   2.460  10.795   1.041  0.0058  0.2840  0.2103
75977SOL    HW139910   2.504  10.749   0.970  0.4708  1.3254 -0.1988
75977SOL    HW239911   2.524  10.861   1.070 -0.1289 -0.1726  1.6630
75978SOL     OW39912   4.817   9.873   1.110 -0.5832  0.1231 -0.3768
75978SOL    HW139913   4.818   9.831   1.024  1.0731 -2.3195  0.7445
75978SOL    HW239914   4.898   9.924   1.113 -0.8480  0.5494 -0.4128
75979SOL     OW39915   2.880  11.040   0.152 -0.2366 -0.0436  0.1835
75979SOL    HW139916   2.930  11.009   0.076  2.8424 -0.5433  2.2415
75979SOL    HW239917   2.849  11.127   0.126  0.6326 -0.2277 -1.6586
75980SOL     OW39918   6.629   6.365  10.649 -0.2355 -0.4071 -0.6349
75980SOL    HW139919   6.608   6.404  10.734  0.6144  1.0139 -1.0334
75980SOL    HW239920   6.599   6.275  10.655  1.1393 -0.7747  1.6931
75981SOL     OW39921  13.197   6.041  10.072 -0.6539  0.0479 -0.2234
75981SOL    HW139922  13.182   6.117  10.129  0.1336 -0.3936  0.5891
75981SOL    HW239923  13.290   6.047  10.048 -0.3567 -1.1290  0.5634
75982SOL     OW39924  11.021   0.890   5.359 -0.5278  0.2435 -0.3843
75982SOL    HW139925  11.006   0.808   5.406 -0.7381  0.3699 -0.2272
75982SOL    HW239926  10.964   0.954   5.403  0.0678  0.6140 -0.1370
75983SOL     OW39927   9.594   2.405   2.648  0.3543  0.0510 -0.6571
75983SOL    HW139928   9.585   2.419   2.553 -2.5565 -1.6291 -0.7221
75983SOL    HW239929   9.658   2.334   2.655 -0.4928 -0.8180 -1.4652
75984SOL     OW39930   2.012   5.541   1.223  0.1359 -0.0974 -0.5630
75984SOL    HW139931   2.042   5.553   1.313  0.6679 -0.2843 -0.7166
75984SOL    HW239932   2.015   5.446   1.209 -1.9332 -0.2941 -0.0980
75985SOL     OW39933   9.350   9.913   4.482  0.1889  0.1021  0.0521
75985SOL    HW139934   9.269   9.958   4.457 -0.0692 -0.3917 -0.0298
75985SOL    HW239935   9.398   9.905   4.400 -0.6070 -1.4137 -0.3087
75986SOL     OW39936  12.403   3.958   9.320  0.5177 -0.9061  0.1661
75986SOL    HW139937  12.472   3.903   9.283  0.5950 -0.8053  0.1603
75986SOL    HW239938  12.327   3.944   9.263  1.4521  1.4730 -1.8349
75987SOL     OW39939   6.653  11.391   0.068 -0.7083  0.1768 -1.1815
75987SOL    HW139940   6.621  11.475   0.103  0.2930 -0.6716  2.1220
75987SOL    HW239941   6.735  11.413   0.024  0.7607  0.7883  1.6165
75988SOL     OW39942   0.976   9.044   4.844 -0.4733  0.2441  0.0747
75988SOL    HW139943   0.916   9.105   4.887 -0.4876  1.3902 -1.4733
75988SOL    HW239944   0.982   9.076   4.754  0.3414 -1.4542 -0.5199
75989SOL     OW39945   2.684   8.438   3.050 -0.0688 -0.2327 -0.1699
75989SOL    HW139946   2.677   8.525   3.010 -2.0618  0.4036  1.3470
75989SOL    HW239947   2.771   8.436   3.089  0.1436  0.9544 -0.5454
75990SOL     OW39948   1.286   8.835   9.162 -0.4046 -0.3178  0.5937
75990SOL    HW139949   1.277   8.922   9.201  0.0549  0.1297 -0.2663
75990SOL    HW239950   1.348   8.790   9.219 -0.0645  0.1786  0.6220
75991SOL     OW39951   8.151   1.159   2.202 -0.2386 -0.4203  0.4092
75991SOL    HW139952   8.235   1.115   2.216 -0.1362 -0.4380 -0.2369
75991SOL    HW239953   8.109   1.160   2.289  0.0185 -1.2596  0.5481
75992SOL     OW39954   6.628   3.259   1.656 -0.1238  0.3018  0.1353
75992SOL    HW139955   6.591   3.314   1.588  1.9551 -0.2994 -1.5921
75992SOL    HW239956   6.667   3.185   1.609  1.6430 -0.0009  1.9130
75993SOL     OW39957   8.806  10.917  11.738  0.5660 -0.1702  0.9984
75993SOL    HW139958   8.782  10.882  11.823 -0.0862 -0.5026  0.6870
75993SOL    HW239959   8.799  11.012  11.748 -3.2710 -0.2393  0.3064
75994SOL     OW39960  11.250  14.013   0.948  0.0013 -0.1793  0.3817
75994SOL    HW139961  11.314  14.063   0.897  1.6450 -1.3101  1.2181
75994SOL    HW239962  11.284  14.016   1.038 -2.3145  0.9890  1.3047
75995SOL     OW39963  11.125  10.542   3.882  0.4591  0.0817 -0.1789
75995SOL    HW139964  11.097  10.592   3.805  0.6348 -0.1897 -0.4229
75995SOL    HW239965  11.200  10.591   3.915 -0.3385  0.8574  0.5293
75996SOL     OW39966   0.937   0.606   9.715 -0.7085  0.2089  0.0234
75996SOL    HW139967   0.953   0.553   9.637 -1.3506 -2.7155  1.7103
75996SOL    HW239968   0.843   0.594   9.733 -0.4223  0.1668  1.6516
75997SOL     OW39969   2.621   5.145   7.028  0.1807  0.3088 -0.3476
75997SOL    HW139970   2.569   5.092   7.089  0.4735 -0.0389 -0.3938
75997SOL    HW239971   2.669   5.206   7.084 -0.3258  0.6766 -0.3105
75998SOL     OW39972   8.602   4.555  10.209 -0.2731  0.2026  0.4868
75998SOL    HW139973   8.598   4.501  10.130  2.2427  0.2773  0.2174
75998SOL    HW239974   8.581   4.643  10.179 -0.1506  0.0910  0.0670
75999SOL     OW39975   9.902  13.981  10.838  0.3659 -0.4297 -0.0155
75999SOL    HW139976   9.957  14.028  10.776  1.1681 -1.5316 -0.1824
75999SOL    HW239977   9.909  14.031  10.920  1.0763 -0.1786 -0.2218
76000SOL     OW39978  10.508   2.067   4.085 -0.1056 -0.1145  0.1538
76000SOL    HW139979  10.523   2.093   4.176 -0.5269 -0.0048  0.1961
76000SOL    HW239980  10.415   2.087   4.070  0.5668  2.5082 -1.1547
76001SOL     OW39981   6.441   9.315   7.108 -0.4003 -0.7021  0.0276
76001SOL    HW139982   6.448   9.349   7.197 -0.5202  2.3490 -1.0054
76001SOL    HW239983   6.532   9.313   7.076 -0.5768  1.7088 -0.8571
76002SOL     OW39984   9.624   4.578   0.912  0.8060  0.3697  0.1618
76002SOL    HW139985   9.531   4.597   0.926  1.2350  2.8134  0.1066
76002SOL    HW239986   9.626   4.520   0.836 -0.6996 -0.3629  0.6440
76003SOL     OW39987   8.102   0.332  12.364  0.1016  0.2675 -0.0535
76003SOL    HW139988   8.113   0.401  12.429  0.2181  0.6545 -0.4782
76003SOL    HW239989   8.173   0.346  12.301 -0.5685  0.4850 -0.7794
76004SOL     OW39990  10.509   8.957   8.753  0.0442 -0.8739  0.3210
76004SOL    HW139991  10.529   8.947   8.846 -0.8832  2.5665  1.0236
76004SOL    HW239992  10.424   8.914   8.742 -0.2731 -0.5156  1.2842
76005SOL     OW39993   6.532   5.381  13.226 -0.2381 -0.0335 -0.1089
76005SOL    HW139994   6.565   5.323  13.295  0.4259  1.7014  1.0889
76005SOL    HW239995   6.444   5.349  13.207  0.4579 -2.0285 -0.2116
76006SOL     OW39996   4.493  10.275   8.638 -0.0209 -0.3068  0.0468
76006SOL    HW139997   4.434  10.224   8.583 -0.6916  1.5355 -1.0056
76006SOL    HW239998   4.581  10.251   8.607 -0.1283 -2.9070  1.4891
76007SOL     OW39999  12.789  11.064   9.902 -0.0858 -0.6063  0.7230
76007SOL    HW140000  12.865  11.030   9.855  0.6489 -1.6113  2.5245
76007SOL    HW240001  12.801  11.034   9.992 -1.7492  0.6810  1.4391
76008SOL     OW40002   6.171   2.397   9.399 -0.3190  0.3484  0.2286
76008SOL    HW140003   6.083   2.423   9.425 -0.6204 -0.5751  0.1817
76008SOL    HW240004   6.216   2.479   9.380 -2.0546  0.7846 -2.6860
76009SOL     OW40005  13.317  13.475   3.418 -0.1972 -0.1084  0.2985
76009SOL    HW140006  13.362  13.496   3.501 -2.3605 -0.4066  1.6188
76009SOL    HW240007  13.349  13.388   3.396 -0.6850 -0.6617  1.6544
76010SOL     OW40008  10.883  10.491   0.988  0.5030 -0.6064  0.1662
76010SOL    HW140009  10.822  10.419   1.001  0.2826 -0.4830 -0.1893
76010SOL    HW240010  10.962  10.464   1.036 -0.7762  0.5199  3.1993
76011SOL     OW40011  14.042  12.795   8.260  0.0565  0.3076  0.1389
76011SOL    HW140012  14.116  12.837   8.217  0.9553 -0.7986  0.5546
76011SOL    HW240013  14.064  12.701   8.259 -1.3169 -0.0365  0.3015
76012SOL     OW40014   6.385   7.911  13.188  0.2839  0.2298  0.4698
76012SOL    HW140015   6.427   7.847  13.245  1.0582  1.5297  1.4242
76012SOL    HW240016   6.292   7.902  13.207  0.3135 -1.1172  0.0308
76013SOL     OW40017   7.905   2.275  11.812  0.5597  0.1979  0.5176
76013SOL    HW140018   7.903   2.369  11.800  1.7523  0.8683  4.1220
76013SOL    HW240019   7.998   2.254  11.821  0.4342 -1.6327 -1.7070
76014SOL     OW40020  13.610  12.000   4.775 -0.3882 -0.0497 -0.3847
76014SOL    HW140021  13.581  12.071   4.832  0.8259 -1.2648  1.8905
76014SOL    HW240022  13.691  11.968   4.815  0.1312 -1.4916 -2.4061
76015SOL     OW40023   8.274   8.492  13.894  0.2271 -0.2809  0.0418
76015SOL    HW140024   8.224   8.416  13.865  1.4829 -1.0694 -0.1317
76015SOL    HW240025   8.211   8.564  13.893 -0.6748 -1.0535 -1.0390
76016SOL     OW40026   5.028   9.381  11.432 -0.1280  0.0096 -0.3088
76016SOL    HW140027   4.933   9.394  11.428 -0.0761  0.2645 -3.3567
76016SOL    HW240028   5.056   9.431  11.508 -2.4152  0.0297  0.6008
76017SOL     OW40029   0.265   5.354  12.609  0.1956 -0.5438  0.0378
76017SOL    HW140030   0.285   5.390  12.696 -0.4038 -1.2932  0.4981
76017SOL    HW240031   0.350   5.353  12.564  0.2855  1.1609  0.1005
76018SOL     OW40032  13.572   7.171   0.681 -0.8157  0.3836 -0.0933
76018SOL    HW140033  13.491   7.214   0.709 -0.5371  0.4395  0.6436
76018SOL    HW240034  13.624   7.240   0.642 -1.5291  0.1583 -1.5159
76019SOL     OW40035   0.469   5.323   9.719  0.7272  0.1811  0.7308
76019SOL    HW140036   0.428   5.336   9.634  1.1273 -0.3295  0.4607
76019SOL    HW240037   0.396   5.327   9.781  0.1935 -1.1331  0.2234
76020SOL     OW40038   0.873   7.210   1.071 -0.1338  0.2544 -0.1298
76020SOL    HW140039   0.910   7.209   1.160 -0.5464 -0.2408  0.0420
76020SOL    HW240040   0.806   7.278   1.073 -1.3152 -0.8887  0.4375
76021SOL     OW40041  14.017   1.133   5.653 -0.3629 -0.2473  0.0016
76021SOL    HW140042  14.046   1.042   5.664  0.9406  0.2539  0.8930
76021SOL    HW240043  13.966   1.152   5.731 -2.4264 -0.8346 -1.1444
76022SOL     OW40044   5.530   4.898   0.204 -0.3276 -0.2632 -0.0109
76022SOL    HW140045   5.602   4.906   0.266  0.6253 -0.5566 -1.0467
76022SOL    HW240046   5.528   4.983   0.159  0.8853 -1.0168 -1.5603
76023SOL     OW40047   3.280  11.261   0.041 -0.4226  0.2251  0.2414
76023SOL    HW140048   3.355  11.226  -0.005 -1.3436 -2.3321  0.5470
76023SOL    HW240049   3.273  11.208   0.120 -3.9417 -1.3675 -0.9466
76024SOL     OW40050   1.187   3.908   5.961  0.6471 -0.0065 -0.0383
76024SOL    HW140051   1.096   3.935   5.957  0.4424 -0.5052  1.0843
76024SOL    HW240052   1.237   3.988   5.940  0.0154  0.8854  1.6932
76025SOL     OW40053   7.588   9.474   7.029 -0.9550  0.2637 -0.1247
76025SOL    HW140054   7.544   9.549   6.989 -1.0492  1.0350  1.3649
76025SOL    HW240055   7.676   9.474   6.990 -0.7352  1.5499  0.3373
76026SOL     OW40056   9.132   5.344   3.271  0.3793  0.3918  0.1589
76026SOL    HW140057   9.226   5.359   3.272  0.6175 -0.8649 -0.9239
76026SOL    HW240058   9.119   5.272   3.333  0.7218 -2.1963 -2.5706
76027SOL     OW40059   5.442   2.154   5.878 -0.5292 -0.5715 -0.1181
76027SOL    HW140060   5.480   2.209   5.946  1.6396 -0.7999 -1.0881
76027SOL    HW240061   5.465   2.065   5.903  0.1890 -0.6667 -1.0492
76028SOL     OW40062  11.201  10.574   8.357 -0.5503 -0.0685 -0.8063
76028SOL    HW140063  11.128  10.537   8.406  0.9259 -1.1044  0.7174
76028SOL    HW240064  11.229  10.504   8.298 -0.8386  0.3594 -1.4609
76029SOL     OW40065  11.867  11.016   1.364  0.6932  0.4901 -0.2928
76029SOL    HW140066  11.795  10.956   1.341  1.0297 -0.5097  1.1139
76029SOL    HW240067  11.916  10.969   1.431 -0.1915  3.1229  2.4393
76030SOL     OW40068  12.508  10.179   1.000 -0.0485 -0.2301  0.0448
76030SOL    HW140069  12.551  10.174   1.086  2.9049  0.0420 -1.2890
76030SOL    HW240070  12.487  10.088   0.979 -1.0434 -0.2747  1.1386
76031SOL     OW40071   9.930   4.717   6.203 -0.1943 -0.5518  0.6101
76031SOL    HW140072   9.847   4.709   6.156 -0.6261 -0.6342  1.3690
76031SOL    HW240073   9.934   4.809   6.229 -0.4572 -0.7326  1.3026
76032SOL     OW40074   5.823   5.965   2.734 -0.7035 -0.1511  0.1270
76032SOL    HW140075   5.818   5.973   2.829  1.4499 -1.5740  0.4389
76032SOL    HW240076   5.761   6.030   2.701 -0.1253  1.7099  2.4509
76033SOL     OW40077   7.722  10.170  13.394 -0.1922 -0.0485  0.0667
76033SOL    HW140078   7.627  10.161  13.402  0.0867 -2.8804  1.6569
76033SOL    HW240079   7.752  10.193  13.482  0.6202  0.9152 -0.4360
76034SOL     OW40080  10.355   5.304   0.657  0.6845  0.2794  0.0139
76034SOL    HW140081  10.282   5.326   0.716 -0.8954 -2.0067 -0.9369
76034SOL    HW240082  10.321   5.322   0.569  0.9446 -1.4592 -0.4823
76035SOL     OW40083   9.508  11.203  13.534 -0.0939  0.4906 -0.1922
76035SOL    HW140084   9.426  11.173  13.572  0.1100  3.3201  2.9797
76035SOL    HW240085   9.483  11.238  13.448 -1.8738 -0.1302  0.0256
76036SOL     OW40086   1.230   8.177   6.994 -0.3611  0.2736 -0.2127
76036SOL    HW140087   1.296   8.108   7.007  0.2768  0.9389  0.1364
76036SOL    HW240088   1.152   8.130   6.964  0.7478 -0.3731 -2.2768
76037SOL     OW40089   7.186   0.227  12.800  0.2474 -0.4516 -0.4573
76037SOL    HW140090   7.256   0.172  12.836 -0.1031  0.2868  1.4851
76037SOL    HW240091   7.170   0.292  12.868 -2.4659 -0.7148 -0.7495
76038SOL     OW40092   5.625   5.526   1.213  0.1004 -0.3851  0.5934
76038SOL    HW140093   5.553   5.577   1.177  0.7640  1.1901  1.3907
76038SOL    HW240094   5.661   5.478   1.138 -1.4002 -0.7723  0.0943
76039SOL     OW40095  12.183  13.379   5.105 -0.0206 -0.3024 -0.1726
76039SOL    HW140096  12.202  13.454   5.048  1.7222 -0.7998 -0.3000
76039SOL    HW240097  12.266  13.331   5.111 -0.3359 -0.6689  2.2179
76040SOL     OW40098  10.735   4.434   9.873  0.0343  0.3378  0.0795
76040SOL    HW140099  10.781   4.360   9.913  2.1125  0.8664 -1.1668
76040SOL    HW240100  10.645   4.404   9.862  0.4878 -1.4486  0.9532
76041SOL     OW40101   9.916  11.970   9.260  0.5086 -0.1645 -0.3619
76041SOL    HW140102  10.010  11.985   9.261  0.3625  1.2410 -2.0200
76041SOL    HW240103   9.890  11.982   9.168 -1.4939  1.2272  0.2887
76042SOL     OW40104  13.178   8.617   1.950 -0.3047 -0.4111 -0.0050
76042SOL    HW140105  13.223   8.594   1.869 -0.1461 -0.1101 -0.0041
76042SOL    HW240106  13.214   8.703   1.974 -0.3408 -0.5050  0.3897
76043SOL     OW40107  12.090   2.891  13.191  0.6727  0.1658 -0.3923
76043SOL    HW140108  12.125   2.916  13.105  0.7737 -1.3755 -0.8298
76043SOL    HW240109  12.132   2.808  13.210 -1.8863 -1.2426 -0.4436
76044SOL     OW40110   9.106   3.126  11.972 -0.3211 -0.3303 -0.2020
76044SOL    HW140111   9.084   3.122  11.879 -1.4896  1.3102 -0.0394
76044SOL    HW240112   9.075   3.043  12.008 -1.3971 -0.2885 -0.9828
76045SOL     OW40113   4.242   7.769   1.958 -0.7225 -0.0629 -0.5327
76045SOL    HW140114   4.284   7.821   2.027 -1.3312 -1.0254  0.6124
76045SOL    HW240115   4.301   7.776   1.883  0.7713 -0.2219  0.5709
76046SOL     OW40116   9.580   5.927   1.461 -0.6744 -1.1662  0.5666
76046SOL    HW140117   9.495   5.910   1.502 -0.8135 -0.0221  0.8058
76046SOL    HW240118   9.644   5.903   1.527 -0.8374 -1.3570  0.6549
76047SOL     OW40119   3.628   7.860   9.759  0.3711 -0.2690  0.0671
76047SOL    HW140120   3.689   7.930   9.736  0.3332 -0.5486 -0.9537
76047SOL    HW240121   3.607   7.876   9.851 -0.0997  1.4190 -0.2890
76048SOL     OW40122   4.057  11.419   1.957 -0.0989  0.6474  0.6278
76048SOL    HW140123   3.962  11.408   1.947  0.0182 -0.0572  0.2223
76048SOL    HW240124   4.094  11.383   1.876  0.5180  0.8353  0.8220
76049SOL     OW40125   8.620   5.261   6.079 -0.2775 -0.3416  0.0637
76049SOL    HW140126   8.693   5.246   6.018 -1.2779 -0.9974 -1.0382
76049SOL    HW240127   8.629   5.352   6.106  1.6497 -0.7445  0.9381
76050SOL     OW40128  11.828   8.129  13.369  0.6270 -0.1204 -0.1123
76050SOL    HW140129  11.872   8.177  13.440  0.8516 -0.9887  0.3493
76050SOL    HW240130  11.892   8.063  13.342 -0.1131 -0.9213  0.0574
76051SOL     OW40131   1.416   2.092   5.890 -0.3393  0.3260  0.1969
76051SOL    HW140132   1.329   2.057   5.874 -0.1400 -0.0224 -0.1428
76051SOL    HW240133   1.437   2.065   5.980 -0.1111 -0.6044 -0.1209
76052SOL     OW40134   1.279  14.027   2.040 -0.4315  0.0052 -0.2706
76052SOL    HW140135   1.330  13.952   2.070 -0.4412 -0.0253 -0.3305
76052SOL    HW240136   1.232  14.057   2.117 -0.3104  0.0437 -0.2114
76053SOL     OW40137   2.946  10.638   9.634  0.1800 -0.1931  0.0307
76053SOL    HW140138   2.888  10.640   9.710  0.8635 -0.0792  0.5616
76053SOL    HW240139   3.011  10.706   9.652  0.3600 -0.1792 -0.6476
76054SOL     OW40140   5.425   5.495   0.211  0.0244  0.6102 -0.1199
76054SOL    HW140141   5.378   5.522   0.291 -1.9378 -2.5978  0.0242
76054SOL    HW240142   5.516   5.515   0.229 -0.4399  0.7138  2.6738
76055SOL     OW40143   4.208   2.086  13.409 -0.4453  0.7184  0.2456
76055SOL    HW140144   4.153   2.024  13.361 -0.2458  0.9218 -0.2517
76055SOL    HW240145   4.222   2.044  13.494  0.8103 -0.5682 -0.5514
76056SOL     OW40146  11.070   7.539   8.548 -0.1014 -0.1508 -0.0704
76056SOL    HW140147  11.095   7.624   8.513 -0.4339 -0.1955 -0.4283
76056SOL    HW240148  11.099   7.476   8.482  0.0079 -0.3063  0.1225
76057SOL     OW40149  11.679   2.091   6.267  0.3230 -0.1038 -0.2831
76057SOL    HW140150  11.598   2.100   6.217 -0.3697  0.7747  0.9428
76057SOL    HW240151  11.666   2.148   6.343  2.4923  0.8267 -0.5542
76058SOL     OW40152   0.813   1.176   2.657  0.3150  0.0061  0.1956
76058SOL    HW140153   0.791   1.269   2.651 -0.8346 -0.2923 -0.6634
76058SOL    HW240154   0.736   1.136   2.697  1.3345 -0.4146  1.8046
76059SOL     OW40155   3.544   7.038   6.702 -0.3626 -0.3628 -0.2961
76059SOL    HW140156   3.555   6.945   6.723 -0.1691 -0.3677 -0.4221
76059SOL    HW240157   3.631   7.075   6.711 -0.5008 -0.1220  0.0951
76060SOL     OW40158   2.025   8.581  13.000  0.1197  0.0999  0.2360
76060SOL    HW140159   2.062   8.576  13.088 -0.3700  0.4345  0.4670
76060SOL    HW240160   2.005   8.674  12.987  0.3696  0.0838 -0.3065
76061SOL     OW40161  12.514  11.961   8.876 -0.0825 -0.0852  0.4799
76061SOL    HW140162  12.607  11.941   8.880 -0.1843 -0.5403  0.6722
76061SOL    HW240163  12.478  11.894   8.817 -0.0357  1.0587 -0.8955
76062SOL     OW40164   3.205  13.625   6.069  0.2178 -0.0511  0.3766
76062SOL    HW140165   3.165  13.540   6.051  0.1547  0.2793 -1.1754
76062SOL    HW240166   3.142  13.668   6.127 -0.7836 -0.2806 -0.5009
76063SOL     OW40167   0.227   4.010   4.348 -0.5724  0.5674  0.0394
76063SOL    HW140168   0.300   3.953   4.322 -0.1451  2.5603 -3.8134
76063SOL    HW240169   0.150   3.953   4.346  0.2723 -0.5926 -0.3741
76064SOL     OW40170   2.595  11.358  13.070  0.1988 -0.2118 -0.2559
76064SOL    HW140171   2.528  11.415  13.108  0.3818  0.2143 -0.5589
76064SOL    HW240172   2.546  11.287  13.029 -0.0227 -0.4153  0.3554
76065SOL     OW40173   2.224   4.751  12.722 -0.0950  0.8157  0.1523
76065SOL    HW140174   2.294   4.791  12.670 -0.1373  0.1246 -0.4370
76065SOL    HW240175   2.264   4.674  12.761 -0.4395  0.5983  0.0760
76066SOL     OW40176  11.523   0.236   6.472 -0.3794  0.3836 -0.0640
76066SOL    HW140177  11.446   0.236   6.415 -0.9026  1.2082  0.6260
76066SOL    HW240178  11.589   0.188   6.422 -1.7211 -1.5242 -0.1134
76067SOL     OW40179   1.499   6.716  12.090  0.6733 -0.5463  0.1631
76067SOL    HW140180   1.581   6.669  12.078  1.1130  0.1480  0.3757
76067SOL    HW240181   1.434   6.648  12.103  1.1252 -1.1255 -0.5344
76068SOL     OW40182  11.997   4.060  11.945  0.2433 -0.0126  0.5866
76068SOL    HW140183  12.063   4.106  11.894 -0.5832 -0.5983 -1.0643
76068SOL    HW240184  11.918   4.112  11.936 -0.8029 -1.8097 -1.6141
76069SOL     OW40185   2.844  13.035  13.368 -0.0719 -0.6136  0.3933
76069SOL    HW140186   2.937  13.046  13.389  0.0086 -0.4532 -0.0478
76069SOL    HW240187   2.839  12.948  13.328  0.1032 -0.1113 -0.7710
76070SOL     OW40188   6.167   4.706   4.314 -0.0104  0.1611  0.2628
76070SOL    HW140189   6.201   4.626   4.353 -2.0507 -1.1261 -0.4808
76070SOL    HW240190   6.171   4.690   4.219  1.0860  1.6234  0.0206
76071SOL     OW40191  11.289   4.569   0.844 -0.0637 -0.1934 -0.2049
76071SOL    HW140192  11.265   4.599   0.756  0.0255  2.1205  0.5043
76071SOL    HW240193  11.207   4.564   0.892 -0.2238 -2.3024 -0.5949
76072SOL     OW40194   0.837   1.719   5.863 -0.0854  0.0913  0.3662
76072SOL    HW140195   0.787   1.658   5.917 -0.5435 -0.1618 -0.3300
76072SOL    HW240196   0.921   1.676   5.850  0.3838  0.5689  1.6366
76073SOL     OW40197  11.125   1.085   0.804  0.0604 -0.1016  0.1009
76073SOL    HW140198  11.164   0.997   0.800 -0.8110 -0.5458  0.8615
76073SOL    HW240199  11.127   1.116   0.714 -0.0176 -1.0822 -0.2514
76074SOL     OW40200   4.372  13.358   9.682  0.3816  0.4191  0.2640
76074SOL    HW140201   4.458  13.400   9.680 -0.1140  1.4468 -1.4532
76074SOL    HW240202   4.320  13.413   9.742  0.3104  1.1403 -0.4326
76075SOL     OW40203   1.463   9.192   5.334 -0.0836  0.3703 -0.4582
76075SOL    HW140204   1.404   9.251   5.288  1.6452  3.4654  0.9449
76075SOL    HW240205   1.529   9.168   5.269 -1.5195 -1.2332 -1.4004
76076SOL     OW40206   5.659   3.168   2.754 -0.1365 -0.0337  0.5213
76076SOL    HW140207   5.614   3.164   2.669 -0.8224 -1.6021  0.9203
76076SOL    HW240208   5.591   3.189   2.817 -0.2319 -1.6551  1.0256
76077SOL     OW40209   1.478   6.358   2.635 -0.4610  0.2473 -0.3769
76077SOL    HW140210   1.396   6.406   2.625 -0.2418  0.7196  0.0793
76077SOL    HW240211   1.450   6.267   2.651 -0.8706  0.2037 -1.2744
76078SOL     OW40212  12.205   4.260   8.074 -0.0303 -0.1258  0.3857
76078SOL    HW140213  12.301   4.265   8.083  0.2723  1.0648 -2.3790
76078SOL    HW240214  12.189   4.174   8.036  0.0953  0.1480 -0.3026
76079SOL     OW40215   8.553  12.308   4.690 -0.7972  0.0300 -0.4760
76079SOL    HW140216   8.573  12.270   4.776 -1.4018  3.5509  1.3980
76079SOL    HW240217   8.637  12.311   4.645 -0.1554 -0.3917  0.6432
76080SOL     OW40218   3.666  11.971  11.423  0.0836  0.2505  0.0043
76080SOL    HW140219   3.658  12.056  11.381  2.0254  0.2590 -0.4533
76080SOL    HW240220   3.733  11.926  11.372 -1.6350 -1.9956 -0.4349
76081SOL     OW40221  10.603   0.323   9.357  0.3990  0.2956  0.5617
76081SOL    HW140222  10.672   0.389   9.362  0.7949 -0.0379 -0.2961
76081SOL    HW240223  10.589   0.295   9.447  1.1580  0.6051  0.7765
76082SOL     OW40224  12.289   1.321  11.079 -0.3887 -0.4256  0.1000
76082SOL    HW140225  12.248   1.405  11.059 -0.5288 -0.5817 -0.2839
76082SOL    HW240226  12.224   1.256  11.054 -0.0446 -0.6663 -0.1967
76083SOL     OW40227   2.746   6.829  10.742 -0.2921 -0.3954 -0.3672
76083SOL    HW140228   2.780   6.751  10.786 -0.8247  0.3337  1.4474
76083SOL    HW240229   2.687   6.795  10.674  1.2758 -1.5803 -1.2091
76084SOL     OW40230   6.994   5.159   4.506 -0.1315  0.5345  0.2852
76084SOL    HW140231   6.998   5.229   4.441  2.0937  2.1557  1.9690
76084SOL    HW240232   7.086   5.134   4.519 -0.5295  0.0184  2.4685
76085SOL     OW40233   9.608   6.946  10.935 -0.1294 -0.4497  0.5361
76085SOL    HW140234   9.543   6.876  10.944  1.8189 -2.4764 -0.2885
76085SOL    HW240235   9.637   6.941  10.844 -0.2111  1.7761  0.3228
76086SOL     OW40236   6.134   0.148   1.690  0.2197  0.3370  0.2085
76086SOL    HW140237   6.168   0.211   1.752 -3.1450  3.2431 -0.6086
76086SOL    HW240238   6.076   0.092   1.741  0.9229 -0.2641  0.3833
76087SOL     OW40239   5.195  13.708   2.722 -0.3725  0.1226  0.6784
76087SOL    HW140240   5.156  13.646   2.783  0.4111 -1.7953 -0.6667
76087SOL    HW240241   5.221  13.655   2.647 -0.6332  2.2705 -1.0344
76088SOL     OW40242   0.184  12.231  13.482 -0.4746 -0.0369 -0.6250
76088SOL    HW140243   0.160  12.141  13.461 -0.2893 -0.6926  1.7059
76088SOL    HW240244   0.273  12.241  13.448  0.1357 -1.3164  0.4931
76089SOL     OW40245   8.184   4.196   6.302 -0.0546  0.2096 -0.0784
76089SOL    HW140246   8.125   4.195   6.377  1.0731  0.8963  0.8485
76089SOL    HW240247   8.258   4.142   6.329  0.8367  1.3074 -0.2794
76090SOL     OW40248   8.441   4.504   9.055 -0.2989 -0.0668  0.3424
76090SOL    HW140249   8.533   4.527   9.065  0.0513 -1.1454 -0.2668
76090SOL    HW240250   8.435   4.414   9.089 -1.0327 -0.1777 -0.0640
76091SOL     OW40251   1.452   3.481   4.899  0.2938 -0.3236 -0.2773
76091SOL    HW140252   1.410   3.499   4.983  1.6752  0.0776  0.3648
76091SOL    HW240253   1.411   3.401   4.867 -1.3213  0.3515  0.0321
76092SOL     OW40254   1.767   5.590   2.980 -0.3149  0.0357 -0.3656
76092SOL    HW140255   1.771   5.496   2.960 -0.4761  0.2492 -1.4455
76092SOL    HW240256   1.855   5.612   3.010  1.3240  0.5407 -4.8592
76093SOL     OW40257   2.708   6.049  13.863  0.3073  0.1318  0.2218
76093SOL    HW140258   2.679   6.043  13.954 -0.6268 -0.8010 -0.1182
76093SOL    HW240259   2.757   5.968  13.848  1.8927  1.0361  0.3623
76094SOL     OW40260   2.228   6.314  13.695 -0.3081 -0.3124  0.0028
76094SOL    HW140261   2.204   6.263  13.772 -0.9488  0.2709  0.2008
76094SOL    HW240262   2.189   6.267  13.621 -1.7033  0.3657  0.2759
76095SOL     OW40263   6.884  12.899   5.023  0.6193  0.1280 -0.6854
76095SOL    HW140264   6.893  12.917   5.116  1.1269 -0.3356 -0.6347
76095SOL    HW240265   6.884  12.803   5.017  3.3608  0.0806 -1.3725
76096SOL     OW40266  13.571   0.383   1.671  0.5641  0.4079 -0.1565
76096SOL    HW140267  13.542   0.429   1.750 -3.2042 -0.6470 -0.7598
76096SOL    HW240268  13.662   0.359   1.690 -0.6246 -1.4847  4.7359
76097SOL     OW40269   1.719   5.850  10.339 -0.0322  0.2210 -0.2775
76097SOL    HW140270   1.642   5.880  10.290  0.4749 -0.0404 -1.2672
76097SOL    HW240271   1.684   5.820  10.423 -0.8529  1.2455 -0.2422
76098SOL     OW40272  12.464  12.383   9.152  0.0466 -0.3891  0.0419
76098SOL    HW140273  12.432  12.296   9.126 -1.6825  0.2544 -0.0977
76098SOL    HW240274  12.557  12.382   9.128 -0.3820 -1.4993 -1.8007
76099SOL     OW40275  12.455  11.836   2.166  0.1946  0.4793 -0.3672
76099SOL    HW140276  12.375  11.817   2.117  1.3910 -1.4234 -1.7068
76099SOL    HW240277  12.451  11.778   2.242 -0.3680  1.4880  0.4097
76100SOL     OW40278   2.775  13.968   2.122  0.5468 -0.9822 -0.1421
76100SOL    HW140279   2.737  14.052   2.149  0.3770 -1.7064  2.0310
76100SOL    HW240280   2.714  13.902   2.156  1.2133 -2.0241 -0.9059
76101SOL     OW40281   0.344   8.694   6.729  0.4319 -0.2433  0.0038
76101SOL    HW140282   0.300   8.673   6.812  0.4146  1.1307  0.3693
76101SOL    HW240283   0.391   8.776   6.747 -0.3780  0.6226 -1.6144
76102SOL     OW40284   6.860   5.191   1.695 -0.3713 -0.2296  0.0443
76102SOL    HW140285   6.883   5.154   1.780 -0.4140  0.3740  0.3278
76102SOL    HW240286   6.899   5.131   1.631  2.0913  0.7525  0.4883
76103SOL     OW40287  11.581   4.061   3.267 -0.4507 -0.0368 -0.4577
76103SOL    HW140288  11.524   4.136   3.249 -0.8689 -0.3256 -0.3626
76103SOL    HW240289  11.658   4.075   3.211 -0.5516  0.4302 -0.4839
76104SOL     OW40290  11.364  10.061   3.222 -0.5963  0.2914 -0.2762
76104SOL    HW140291  11.324  10.065   3.136  0.7463  2.6651 -0.8921
76104SOL    HW240292  11.291  10.067   3.284 -1.4168  1.1948 -1.3017
76105SOL     OW40293   1.988   4.880  12.205 -0.8422  0.3966  0.1294
76105SOL    HW140294   2.083   4.887  12.200 -0.8060  1.1660  1.4333
76105SOL    HW240295   1.973   4.796  12.249 -0.7681  0.3770  0.1170
76106SOL     OW40296   9.737   4.168   5.469  0.4482  0.0437 -0.0679
76106SOL    HW140297   9.689   4.241   5.429  1.4355  1.0695  0.5818
76106SOL    HW240298   9.668   4.115   5.510 -0.2828  0.6008 -0.5314
76107SOL     OW40299   6.352   7.339   6.764 -0.1958 -0.3624  0.2298
76107SOL    HW140300   6.289   7.267   6.762 -0.2832 -0.2755 -0.5838
76107SOL    HW240301   6.361   7.361   6.856 -0.8665 -0.8043  0.4050
76108SOL     OW40302  13.037   3.173  11.054  0.4927 -0.0406  0.1230
76108SOL    HW140303  13.023   3.090  11.010 -0.2588  0.2272 -0.1586
76108SOL    HW240304  13.017   3.156  11.146  0.8662 -0.2957  0.1606
76109SOL     OW40305   8.779  12.089   1.643 -0.3529  0.3483 -0.2969
76109SOL    HW140306   8.737  12.040   1.573  0.1381 -1.9194  0.8919
76109SOL    HW240307   8.725  12.073   1.720  1.1528 -0.4175  0.6592
76110SOL     OW40308   7.653   7.153  12.351  0.7637  0.4249 -0.3652
76110SOL    HW140309   7.721   7.207  12.391  0.0197  0.6748  0.6084
76110SOL    HW240310   7.689   7.128  12.266  2.0066  0.6732  0.0618
76111SOL     OW40311   0.357   6.973   9.231  0.5850  0.5723 -0.0035
76111SOL    HW140312   0.316   6.908   9.289  0.5307 -0.3775 -1.0792
76111SOL    HW240313   0.287   7.001   9.172  1.6013 -1.8569 -2.5672
76112SOL     OW40314   3.316   1.952   3.529  0.0652  0.0150 -0.7894
76112SOL    HW140315   3.283   1.901   3.603  1.6162  1.5507  1.0364
76112SOL    HW240316   3.377   1.893   3.485 -0.4501 -0.7162 -0.5441
76113SOL     OW40317  11.628   0.457   0.357  0.2603 -0.3227  0.0886
76113SOL    HW140318  11.704   0.444   0.300  1.5441  0.2611  1.5965
76113SOL    HW240319  11.598   0.545   0.336  0.2370 -0.3988 -0.2149
76114SOL     OW40320  10.389   6.985  13.206  0.2232 -0.4895 -0.5287
76114SOL    HW140321  10.483   6.966  13.209  0.2726 -0.2958 -0.8221
76114SOL    HW240322  10.363   6.962  13.117 -0.2647 -1.7372 -0.0875
76115SOL     OW40323   9.540  10.280  11.721  0.3703 -0.4987  0.4287
76115SOL    HW140324   9.620  10.324  11.748  1.2941 -0.6473 -1.8154
76115SOL    HW240325   9.559  10.248  11.633 -1.6381 -1.9102  0.4324
76116SOL     OW40326   9.035   3.816   9.352  0.1202  0.5513  0.3105
76116SOL    HW140327   9.084   3.742   9.387  0.7278 -0.3054 -2.1433
76116SOL    HW240328   8.955   3.777   9.317  0.6086  0.9393 -1.3349
76117SOL     OW40329   4.483  10.672   5.156  0.1536 -0.1827  0.0914
76117SOL    HW140330   4.440  10.757   5.159  0.7280  0.2176 -1.5128
76117SOL    HW240331   4.414  10.609   5.174 -0.9978  0.4844 -1.6675
76118SOL     OW40332   9.439   4.583   0.644  0.0126  0.0713  0.3617
76118SOL    HW140333   9.428   4.507   0.701  1.3677  0.0495  0.6260
76118SOL    HW240334   9.351   4.601   0.610 -0.5992 -0.6574  1.5041
76119SOL     OW40335   0.040   4.300  11.947  0.2023 -0.0551 -0.1796
76119SOL    HW140336   0.124   4.341  11.925  0.1545  0.3157  0.3223
76119SOL    HW240337  -0.026   4.363  11.919  0.0474 -0.7032 -1.3480
76120SOL     OW40338  12.487   8.904   6.578 -0.4249 -0.4782 -0.3800
76120SOL    HW140339  12.541   8.869   6.507 -0.6803 -1.2635 -0.1909
76120SOL    HW240340  12.423   8.960   6.534 -0.3192 -0.6274 -0.7272
76121SOL     OW40341   3.749   1.159   5.366  0.0429 -0.5085  0.3373
76121SOL    HW140342   3.826   1.167   5.309 -0.8296 -1.0605 -0.9709
76121SOL    HW240343   3.727   1.066   5.364 -0.5071 -0.3927  0.9126
76122SOL     OW40344   3.757   3.391   3.868 -0.0202 -0.0684 -0.2937
76122SOL    HW140345   3.740   3.484   3.855 -0.6597 -0.1150  0.1341
76122SOL    HW240346   3.701   3.366   3.942 -0.1568 -0.8768 -0.6525
76123SOL     OW40347   1.440   2.330  13.825  0.1805 -0.5079 -0.4633
76123SOL    HW140348   1.521   2.281  13.834  1.1589  1.3340  1.5827
76123SOL    HW240349   1.450   2.405  13.883 -2.6169  0.3083 -0.8636
76124SOL     OW40350   7.980   0.183   5.925 -0.0457  0.2044  0.3066
76124SOL    HW140351   8.001   0.151   6.013  2.3040  2.1905  0.5670
76124SOL    HW240352   8.028   0.126   5.866  1.0079  0.8255  0.5401
76125SOL     OW40353  13.703   1.390   7.545 -0.3928  0.0307  0.0129
76125SOL    HW140354  13.713   1.299   7.516 -1.8766 -0.5858  1.3125
76125SOL    HW240355  13.629   1.424   7.495 -0.4385  0.2387  0.2205
76126SOL     OW40356  11.316   0.034   0.165  0.9881  0.3263 -0.0075
76126SOL    HW140357  11.310   0.042   0.070  0.8812 -0.0318 -0.0330
76126SOL    HW240358  11.318  -0.060   0.181 -2.3213  0.2228  0.5404
76127SOL     OW40359   5.135   2.543   4.354 -0.1836  0.1213 -0.0341
76127SOL    HW140360   5.207   2.606   4.351 -1.8484  2.0514 -2.0074
76127SOL    HW240361   5.154   2.481   4.284  0.6590 -0.7589  0.9250
76128SOL     OW40362   3.802   7.067   5.658 -0.3121 -0.6037  0.0344
76128SOL    HW140363   3.715   7.051   5.621  0.1309 -0.4571 -1.0792
76128SOL    HW240364   3.830   6.982   5.691 -0.0367 -1.0881 -1.4199
76129SOL     OW40365   4.081   5.183   2.517  1.2297  0.0445  0.2892
76129SOL    HW140366   4.088   5.094   2.552  0.5868 -0.0726  0.1203
76129SOL    HW240367   4.000   5.218   2.554  0.0501 -0.3892 -1.7143
76130SOL     OW40368   4.824   6.628   2.217  0.6839  0.6454  0.5766
76130SOL    HW140369   4.865   6.550   2.254 -0.0306  0.3943  0.8674
76130SOL    HW240370   4.858   6.701   2.268 -0.9643  0.2333  2.3999
76131SOL     OW40371   5.640   3.961   5.886  0.0540 -0.5271  0.0990
76131SOL    HW140372   5.655   4.025   5.956  1.2713  0.6846 -1.1944
76131SOL    HW240373   5.548   3.972   5.864  0.0553  0.2381  0.4216
76132SOL     OW40374   3.684   0.298   3.244 -0.2432 -0.2604 -0.4697
76132SOL    HW140375   3.627   0.302   3.168 -0.0959 -1.7841 -0.6964
76132SOL    HW240376   3.693   0.204   3.262  1.2507 -0.0026  0.2639
76133SOL     OW40377   1.649  12.670  12.719  0.0489  0.0568  0.4043
76133SOL    HW140378   1.615  12.592  12.675  0.0183  0.6734 -0.7061
76133SOL    HW240379   1.610  12.743  12.672  2.6567  0.8186 -0.7838
76134SOL     OW40380   4.389  13.123  12.947  0.1057  0.0185 -0.1848
76134SOL    HW140381   4.479  13.090  12.949 -0.9055 -3.1614 -0.8438
76134SOL    HW240382   4.390  13.194  12.883  2.0375 -0.2141 -0.4714
76135SOL     OW40383   0.629  11.269   4.985 -0.2547 -0.5643 -0.1208
76135SOL    HW140384   0.633  11.330   5.059  0.1793  0.2121 -0.7732
76135SOL    HW240385   0.607  11.185   5.025 -1.4699  0.1193  0.7339
76136SOL     OW40386   9.926  13.003   6.236 -0.3053 -0.5921 -0.1675
76136SOL    HW140387   9.949  12.959   6.154 -1.5233 -1.2375 -0.1816
76136SOL    HW240388   9.888  12.934   6.290 -0.7123  0.1040  0.4522
76137SOL     OW40389   9.782   0.838  13.750 -0.0468  0.2469  0.1453
76137SOL    HW140390   9.788   0.877  13.837  1.9190  1.1545 -0.3358
76137SOL    HW240391   9.799   0.910  13.689  0.4239 -0.7027 -0.8995
76138SOL     OW40392   6.602  11.298  13.041  0.0750  0.2102 -0.3283
76138SOL    HW140393   6.605  11.220  12.985  1.8609 -0.5691  0.7669
76138SOL    HW240394   6.511  11.328  13.036 -0.7185 -2.0676 -0.6111
76139SOL     OW40395   8.270   4.522  12.163  0.3440  0.8088  0.3534
76139SOL    HW140396   8.356   4.563  12.172  0.5242  0.6183 -0.4174
76139SOL    HW240397   8.208   4.594  12.179  0.6477  1.0918  0.2808
76140SOL     OW40398   3.844  10.618   1.529  0.4502  0.0576 -0.4419
76140SOL    HW140399   3.891  10.560   1.468  0.6454 -0.3669  0.1011
76140SOL    HW240400   3.913  10.660   1.580  0.2616 -0.8275  0.5978
76141SOL     OW40401   6.753   8.744   9.847  0.7005 -0.2150 -0.6387
76141SOL    HW140402   6.770   8.817   9.787 -0.3109 -0.0845 -0.7780
76141SOL    HW240403   6.793   8.669   9.804  0.8716  0.0659 -0.9814
76142SOL     OW40404  13.793  13.539   7.827  0.3150 -0.0207 -0.1266
76142SOL    HW140405  13.753  13.452   7.832 -0.4745  0.3936  2.0286
76142SOL    HW240406  13.737  13.589   7.767 -2.0508  0.3005  2.1645
76143SOL     OW40407   9.921  13.539   9.626  0.3544 -0.1665 -0.2955
76143SOL    HW140408   9.943  13.461   9.677 -0.1409  0.0635  0.2811
76143SOL    HW240409   9.886  13.505   9.544 -0.7645 -0.5769  0.3318
76144SOL     OW40410   6.656  11.785   6.193  0.3304  0.0405 -0.2683
76144SOL    HW140411   6.580  11.778   6.251  0.9122  0.1902  0.5250
76144SOL    HW240412   6.662  11.878   6.172  1.5199  0.4031  1.3971
76145SOL     OW40413  11.921  10.420  12.661 -0.3045 -0.2377 -0.4633
76145SOL    HW140414  12.016  10.418  12.651 -0.4314 -1.7738 -1.8127
76145SOL    HW240415  11.907  10.460  12.746  1.5378  0.2562 -0.3457
76146SOL     OW40416   4.754   0.732   3.856 -0.6383 -0.0139 -0.2660
76146SOL    HW140417   4.710   0.813   3.830 -1.8117 -1.1052 -1.8794
76146SOL    HW240418   4.684   0.679   3.894 -0.4228 -1.1768 -1.4397
76147SOL     OW40419  12.753   1.728  10.997 -0.1196  0.0523  0.1746
76147SOL    HW140420  12.826   1.762  10.945  0.1151 -1.5060 -0.5667
76147SOL    HW240421  12.676   1.776  10.965  0.1103 -0.4771 -1.2455
76148SOL     OW40422   3.931  11.112   8.431 -0.2390  0.1625 -0.1834
76148SOL    HW140423   3.963  11.172   8.365  0.6624 -1.3737 -1.1945
76148SOL    HW240424   3.997  11.043   8.436  0.1767  0.6444  2.9660
76149SOL     OW40425  10.675   0.038   4.083 -0.7684  0.2578  0.5886
76149SOL    HW140426  10.707   0.002   4.165  0.4108  1.5295  0.7316
76149SOL    HW240427  10.603  -0.020   4.057 -0.9223 -0.3780  2.3122
76150SOL     OW40428  13.347  12.419   6.019  0.1466  0.8992  0.1521
76150SOL    HW140429  13.329  12.450   6.107  1.6402  1.3015  0.3530
76150SOL    HW240430  13.438  12.388   6.022  0.1300  0.6225 -1.1637
76151SOL     OW40431   7.176  13.895   3.169 -0.0075 -0.2772  0.1640
76151SOL    HW140432   7.208  13.818   3.216  0.7340 -0.1493 -0.1314
76151SOL    HW240433   7.228  13.898   3.089 -1.7724 -0.9582 -1.0911
76152SOL     OW40434   9.400   7.423   8.861 -0.2856  0.3484 -0.2847
76152SOL    HW140435   9.443   7.447   8.943 -0.8485  0.2277  0.0566
76152SOL    HW240436   9.454   7.462   8.793 -2.0419  4.1488  0.2679
76153SOL     OW40437   8.847  13.573   6.202 -0.1722 -0.1175 -0.1445
76153SOL    HW140438   8.921  13.576   6.142 -1.0509 -0.7616 -1.3037
76153SOL    HW240439   8.848  13.484   6.237  1.5186  0.8100  2.4099
76154SOL     OW40440   4.044   4.795   3.605 -0.2593 -0.1285 -0.1640
76154SOL    HW140441   4.030   4.868   3.666  0.7250 -0.7841  0.8739
76154SOL    HW240442   3.980   4.810   3.535 -0.3367  1.5097  0.2260
76155SOL     OW40443  10.418   0.719  10.229 -0.7678 -0.3535  0.0883
76155SOL    HW140444  10.432   0.634  10.270  1.4908 -0.7832 -1.3899
76155SOL    HW240445  10.445   0.783  10.295 -0.6579 -0.8496  0.5296
76156SOL     OW40446   2.148   4.459   3.182 -0.3668 -0.1096 -0.2758
76156SOL    HW140447   2.178   4.464   3.091  2.0443  0.1617  0.4826
76156SOL    HW240448   2.112   4.546   3.200  1.4978  0.6945 -0.2375
76157SOL     OW40449   3.026   3.357   8.489  0.1723 -0.1134 -0.2998
76157SOL    HW140450   2.999   3.331   8.577 -0.0323  0.2055 -0.2649
76157SOL    HW240451   2.946   3.391   8.449  0.7029  1.8202  0.1522
76158SOL     OW40452  12.371  11.743   6.872 -0.1068  0.5894 -0.0438
76158SOL    HW140453  12.405  11.701   6.793 -0.3279  1.7217 -0.7646
76158SOL    HW240454  12.437  11.726   6.939  1.0874  1.3071 -0.9940
76159SOL     OW40455  11.471   6.435  12.865  0.2585  0.2298  0.1219
76159SOL    HW140456  11.399   6.382  12.832 -0.3971  0.9459  0.3725
76159SOL    HW240457  11.550   6.395  12.828 -0.2933 -0.3316 -0.4615
76160SOL     OW40458   5.601   5.184  11.051  0.3133 -0.4808  0.4111
76160SOL    HW140459   5.675   5.211  11.105  0.0063  0.0087  0.5923
76160SOL    HW240460   5.551   5.264  11.036 -1.1262 -1.0721  1.7340
76161SOL     OW40461   3.678  11.163   4.413  0.0859 -0.6231  0.4881
76161SOL    HW140462   3.592  11.204   4.421 -0.7965 -1.6129 -2.5500
76161SOL    HW240463   3.673  11.086   4.470 -0.4542  0.1673  1.5309
76162SOL     OW40464   6.919   5.130  10.615 -0.4386  0.0286  0.5590
76162SOL    HW140465   6.824   5.141  10.620 -0.5481 -0.3374 -0.4198
76162SOL    HW240466   6.935   5.042  10.651 -0.6974 -0.6849 -0.9853
76163SOL     OW40467   1.023   4.816   0.824 -0.2329  0.3662  0.0186
76163SOL    HW140468   1.088   4.750   0.851 -0.1784  0.1937 -0.5208
76163SOL    HW240469   0.970   4.831   0.902  1.8842  2.2457  1.2042
76164SOL     OW40470   5.875   6.907   3.340  0.6249  0.0961  0.0141
76164SOL    HW140471   5.792   6.925   3.386 -0.2996 -1.6640 -0.8525
76164SOL    HW240472   5.911   6.993   3.322 -0.8864  0.9198  0.6753
76165SOL     OW40473   7.636   5.350  12.950  0.0394  0.0022 -0.3056
76165SOL    HW140474   7.561   5.315  12.999 -0.6432 -0.5577 -1.6864
76165SOL    HW240475   7.605   5.433  12.914  0.8307  0.8526  0.8897
76166SOL     OW40476   6.285   8.288  12.517 -0.1950  0.2111 -0.0279
76166SOL    HW140477   6.264   8.307  12.609 -1.0629  1.8179 -0.5153
76166SOL    HW240478   6.217   8.226  12.489 -0.0448 -0.1302  0.3551
76167SOL     OW40479   6.564   8.604   0.891 -0.5456 -0.4290 -0.4651
76167SOL    HW140480   6.600   8.562   0.970 -1.5297 -1.2055 -0.4023
76167SOL    HW240481   6.594   8.549   0.819  2.2676  1.5247 -0.9479
76168SOL     OW40482   1.674   5.475  11.240  0.8086 -0.0022  0.2147
76168SOL    HW140483   1.627   5.547  11.198 -1.3632 -1.3074  0.2565
76168SOL    HW240484   1.622   5.456  11.318  0.5303 -2.4838 -0.5174
76169SOL     OW40485   2.181   9.327  13.936 -0.3806 -0.2369 -0.1174
76169SOL    HW140486   2.098   9.290  13.906  0.3947 -0.4702 -2.1461
76169SOL    HW240487   2.247   9.265  13.905  0.6517  0.6868  0.1700
76170SOL     OW40488  11.747   2.743   9.051 -0.5042 -0.0066  0.7061
76170SOL    HW140489  11.678   2.688   9.016 -0.1663  0.3779 -0.6569
76170SOL    HW240490  11.817   2.738   8.986  0.5319  0.0440  1.7826
76171SOL     OW40491   6.306   4.152   0.260 -0.2984  0.0252  0.5771
76171SOL    HW140492   6.358   4.142   0.340  0.3116 -0.9458  0.0686
76171SOL    HW240493   6.371   4.160   0.190 -0.8326  0.3433  0.1108
76172SOL     OW40494   6.834   7.297   5.122  0.5137 -0.0935 -0.2620
76172SOL    HW140495   6.771   7.290   5.051 -2.5341 -0.3928  2.2700
76172SOL    HW240496   6.894   7.224   5.107 -1.1601 -1.3001 -1.4821
76173SOL     OW40497   4.449   7.088  11.875  0.2182 -0.2397 -0.4625
76173SOL    HW140498   4.501   7.059  11.950 -1.6995 -1.3671  0.5156
76173SOL    HW240499   4.388   7.015  11.858 -2.5745  1.8135 -0.0449
76174SOL     OW40500  11.016   1.287   8.378 -0.1367 -0.7674  0.0407
76174SOL    HW140501  10.952   1.258   8.313  1.0226 -2.9455 -0.2332
76174SOL    HW240502  10.965   1.303   8.457 -1.4619  1.1291 -1.0929
76175SOL     OW40503   4.839   6.611   5.483  0.0081 -0.4693  0.3623
76175SOL    HW140504   4.834   6.539   5.421  0.3578 -0.0572 -0.1480
76175SOL    HW240505   4.763   6.666   5.464  0.7212  0.2663 -0.4835
76176SOL     OW40506   6.316  14.027  11.763 -0.1660  0.3988 -0.0263
76176SOL    HW140507   6.251  14.098  11.767  0.3053  0.7928  1.0157
76176SOL    HW240508   6.397  14.070  11.737 -0.6251 -0.3578 -3.0809
76177SOL     OW40509   9.591   2.560  13.324 -0.2453  0.3184 -0.3217
76177SOL    HW140510   9.508   2.535  13.364 -0.3538  0.6295 -0.3448
76177SOL    HW240511   9.573   2.560  13.230  0.0360 -0.5092 -0.3748
76178SOL     OW40512   1.344   9.377   7.718  0.0308 -0.1327 -0.0665
76178SOL    HW140513   1.275   9.381   7.652  0.9742 -0.1346 -1.0960
76178SOL    HW240514   1.385   9.291   7.704  0.6574  0.1362  0.0773
76179SOL     OW40515   7.479   2.088   5.902 -0.1790 -0.0577  0.0468
76179SOL    HW140516   7.398   2.134   5.880 -1.5738 -1.4857  1.8428
76179SOL    HW240517   7.483   2.090   5.998  2.0366  0.1255  0.0150
76180SOL     OW40518   5.881   2.486   5.409  0.3805  0.0127  0.5617
76180SOL    HW140519   5.973   2.458   5.413  0.0723 -0.9541  0.9913
76180SOL    HW240520   5.847   2.447   5.329  0.4048  0.6036  0.2546
76181SOL     OW40521   0.945   9.752   5.471  0.8133 -0.4776  0.0573
76181SOL    HW140522   0.941   9.674   5.527  1.4680  0.2917  1.2131
76181SOL    HW240523   1.037   9.761   5.448  0.4837 -1.0806 -1.6255
76182SOL     OW40524   1.137   8.381   4.388 -0.2816  0.6848 -0.0014
76182SOL    HW140525   1.201   8.450   4.404  1.1226 -0.1879 -1.5005
76182SOL    HW240526   1.173   8.304   4.432  0.1667 -0.0198 -1.5348
76183SOL     OW40527   5.617   2.816  13.104  0.2927 -0.1128 -0.3334
76183SOL    HW140528   5.534   2.785  13.139  0.9410 -2.1783 -0.4649
76183SOL    HW240529   5.624   2.906  13.134 -1.5709 -0.1790  0.4192
76184SOL     OW40530  13.053  10.478   5.110  0.6240 -0.2617 -0.4287
76184SOL    HW140531  12.965  10.448   5.087  0.8850 -1.3418 -0.0971
76184SOL    HW240532  13.108  10.401   5.098  1.3009  0.0266  0.6469
76185SOL     OW40533   7.638   1.555   7.125 -0.2226 -0.0496 -0.1574
76185SOL    HW140534   7.547   1.564   7.156  0.5431 -1.3150  2.7692
76185SOL    HW240535   7.683   1.629   7.165  0.5410 -0.9536  0.6924
76186SOL     OW40536   1.889  10.557   1.063  0.7132  0.4176  0.4418
76186SOL    HW140537   1.926  10.469   1.062  1.9995  0.9280  0.4848
76186SOL    HW240538   1.965  10.615   1.073  0.1257  1.6631 -1.6575
76187SOL     OW40539  13.643  11.336   6.969  0.0540 -0.1108  0.2463
76187SOL    HW140540  13.735  11.354   6.950  0.0389 -1.0601 -0.8719
76187SOL    HW240541  13.630  11.367   7.059  2.0732 -2.0428  1.2967
76188SOL     OW40542   6.244   4.989  11.082 -0.5281 -0.4122  0.9015
76188SOL    HW140543   6.159   4.946  11.090 -0.2214 -1.3170 -0.4261
76188SOL    HW240544   6.298   4.926  11.035  0.7168  0.3835  1.2376
76189SOL     OW40545  11.276   2.815   9.911  0.2216 -0.6611 -0.0966
76189SOL    HW140546  11.333   2.747   9.876  0.5792 -0.6042  0.3691
76189SOL    HW240547  11.214   2.833   9.840  1.2465 -0.1877 -0.9182
76190SOL     OW40548   1.930   1.329  13.415  0.2749  0.3675  0.2347
76190SOL    HW140549   1.943   1.414  13.457 -0.3808  0.1428  0.9173
76190SOL    HW240550   1.946   1.345  13.322 -0.0374  1.2854  0.3299
76191SOL     OW40551  10.657   8.133   8.553 -0.0014  0.3770 -0.1668
76191SOL    HW140552  10.578   8.187   8.552 -0.3401 -0.1144 -0.7203
76191SOL    HW240553  10.701   8.152   8.471 -0.0989 -0.1431 -0.3461
76192SOL     OW40554  12.703  13.716   2.601  0.6002  0.1188  0.1345
76192SOL    HW140555  12.700  13.745   2.510 -1.3264 -0.8192 -0.1587
76192SOL    HW240556  12.793  13.687   2.614  0.5229 -1.3460 -2.0436
76193SOL     OW40557   9.234   4.251   1.154  0.1988 -0.3080 -0.1351
76193SOL    HW140558   9.252   4.196   1.077 -0.7097 -1.5127  0.4906
76193SOL    HW240559   9.201   4.190   1.220 -1.6701  1.1037  0.3036
76194SOL     OW40560  12.635   5.037  11.023  0.2452 -0.0983 -0.0610
76194SOL    HW140561  12.649   4.986  11.103  1.2476 -0.2587 -0.3207
76194SOL    HW240562  12.666   5.125  11.045  1.3846 -0.3626 -0.5327
76195SOL     OW40563  10.815  13.965   2.636 -0.1899 -0.3474  0.1952
76195SOL    HW140564  10.860  14.038   2.594 -2.7601  0.4029 -1.5219
76195SOL    HW240565  10.788  13.909   2.563 -0.4669 -1.6842  1.2921
76196SOL     OW40566   4.532  12.079   5.712 -0.4312  0.3820  0.3667
76196SOL    HW140567   4.471  12.150   5.729  0.1368  0.4958  2.1286
76196SOL    HW240568   4.599  12.087   5.781 -1.5890 -3.2429  2.1923
76197SOL     OW40569  10.011   2.674   9.873 -0.2768 -0.2836 -0.1339
76197SOL    HW140570   9.979   2.714   9.954  0.2278  1.3353 -0.7021
76197SOL    HW240571  10.011   2.745   9.810 -0.3860 -1.4611 -1.5034
76198SOL     OW40572   3.904   5.594  10.691 -0.3748  0.3794 -0.2426
76198SOL    HW140573   3.855   5.556  10.618  1.5018 -2.0730 -0.3396
76198SOL    HW240574   3.839   5.607  10.760 -1.6529 -0.0610 -1.3275
76199SOL     OW40575  12.690  13.416   8.544 -0.4522  0.4055 -0.2925
76199SOL    HW140576  12.685  13.400   8.450 -0.1853  0.1723 -0.2686
76199SOL    HW240577  12.784  13.427   8.561 -0.5069  0.5312 -0.0658
76200SOL     OW40578   0.031  10.623  12.894  0.0997  0.0371 -0.5786
76200SOL    HW140579   0.054  10.555  12.957  0.7930  1.1378  0.4006
76200SOL    HW240580  -0.053  10.595  12.859  1.2959 -2.3798 -1.7544
76201SOL     OW40581   3.741   5.124   7.136  0.1049  0.4717 -0.2871
76201SOL    HW140582   3.681   5.100   7.207 -0.4096  0.0418 -0.8571
76201SOL    HW240583   3.824   5.143   7.180  0.2645 -1.3681  0.2934
76202SOL     OW40584   8.210   5.266   4.561  0.6959 -0.1804  0.1515
76202SOL    HW140585   8.173   5.321   4.493  0.7576 -0.4936 -0.1388
76202SOL    HW240586   8.199   5.176   4.528  3.3880 -0.2395 -0.8451
76203SOL     OW40587   5.038   7.819  10.761 -0.1551 -0.3212  0.0037
76203SOL    HW140588   4.986   7.899  10.762  0.7446  0.2738 -0.3137
76203SOL    HW240589   5.115   7.841  10.709  0.3797 -1.2210  0.4038
76204SOL     OW40590   4.313   5.199   9.468  0.1252 -0.7742  0.3923
76204SOL    HW140591   4.321   5.123   9.526  0.1309 -0.5910  0.6329
76204SOL    HW240592   4.286   5.270   9.526 -2.2531 -1.1069 -0.1896
76205SOL     OW40593   1.533   1.481  11.115 -0.1875 -0.2115  0.6305
76205SOL    HW140594   1.548   1.576  11.117 -3.3203  0.3914  3.4334
76205SOL    HW240595   1.538   1.459  11.022 -1.6402  3.1860 -0.4320
76206SOL     OW40596  11.619   3.228   9.523 -0.0464 -0.4025  0.0760
76206SOL    HW140597  11.599   3.235   9.617 -2.6365 -3.1866 -0.1324
76206SOL    HW240598  11.570   3.301   9.484 -0.9726 -0.6650  0.6954
76207SOL     OW40599   9.597   1.599   3.325 -0.2539 -0.4075  0.5124
76207SOL    HW140600   9.663   1.584   3.256  0.2399  0.2074  0.8447
76207SOL    HW240601   9.595   1.694   3.335 -2.1991 -0.3000 -0.4519
76208SOL     OW40602   5.883  12.917   3.658  0.3228  0.3335  0.3513
76208SOL    HW140603   5.973  12.909   3.625 -0.0833  2.1264 -1.4080
76208SOL    HW240604   5.878  13.006   3.692 -0.9464  0.4539 -0.0976
76209SOL     OW40605   1.021   8.536   9.586  0.8462 -0.4934 -0.3208
76209SOL    HW140606   0.981   8.623   9.580 -2.3051 -1.7277  0.7140
76209SOL    HW240607   1.036   8.523   9.680 -1.4078 -2.0583 -0.0938
76210SOL     OW40608   6.854  11.064   1.219  0.6311  0.3669 -0.4014
76210SOL    HW140609   6.882  10.974   1.200  1.2618  0.9399 -2.4162
76210SOL    HW240610   6.906  11.089   1.296 -0.0718 -1.2005  0.6256
76211SOL     OW40611  10.178  11.402   5.847  0.0715 -0.8812  0.2270
76211SOL    HW140612  10.246  11.395   5.780 -0.2150 -0.2136 -0.1366
76211SOL    HW240613  10.099  11.425   5.799 -0.4264 -1.6867  0.6441
76212SOL     OW40614  11.716  13.257   7.384 -0.4388 -0.1528 -0.5541
76212SOL    HW140615  11.792  13.241   7.327  0.5709  0.7135  0.4891
76212SOL    HW240616  11.727  13.348   7.412 -1.2374 -0.3750  0.5316
76213SOL     OW40617   9.933   0.252   7.134 -0.5191  0.4036  0.4492
76213SOL    HW140618   9.965   0.288   7.051  0.8924  1.5800  1.4548
76213SOL    HW240619   9.867   0.315   7.164 -0.5500  0.3332  0.5297
76214SOL     OW40620  10.834   3.487   7.703  0.4807  0.2882  0.2636
76214SOL    HW140621  10.766   3.462   7.640  0.4665  0.5277  0.1852
76214SOL    HW240622  10.799   3.564   7.747  0.8149  0.5654  0.0435
76215SOL     OW40623  11.172  12.326   7.120 -0.6335  0.3738  0.3113
76215SOL    HW140624  11.121  12.267   7.175  1.9064 -2.0432  0.2654
76215SOL    HW240625  11.176  12.408   7.171 -2.3911 -0.1558  1.4085
76216SOL     OW40626   6.131   3.388  12.635 -0.0929  0.3058  0.8479
76216SOL    HW140627   6.048   3.394  12.683 -0.5613  0.4001  0.0421
76216SOL    HW240628   6.180   3.466  12.661 -0.3382  0.3602  1.1566
76217SOL     OW40629   2.284   7.630   9.416 -0.4870  0.0606  0.8291
76217SOL    HW140630   2.276   7.547   9.463 -0.4206 -0.1718  0.4367
76217SOL    HW240631   2.378   7.651   9.419  0.0097 -1.3917 -1.5860
76218SOL     OW40632   0.434   2.422   3.818  0.1916  0.1570  0.9071
76218SOL    HW140633   0.472   2.384   3.738  0.8401 -0.0647  1.3109
76218SOL    HW240634   0.353   2.373   3.831 -0.2182  0.5926  0.0621
76219SOL     OW40635   5.348  11.451   6.312  0.2368 -0.5434  0.2445
76219SOL    HW140636   5.309  11.372   6.350  0.8568 -1.1015 -0.2505
76219SOL    HW240637   5.279  11.489   6.258 -0.1037 -0.6765  0.5777
76220SOL     OW40638  12.759   5.917   7.327 -0.0606 -0.3381  0.6500
76220SOL    HW140639  12.792   6.004   7.305  1.4070 -1.0463 -0.1375
76220SOL    HW240640  12.692   5.932   7.393 -1.3549  1.5352 -1.0096
76221SOL     OW40641   5.865   9.005  11.103 -0.1037  0.8081  0.0656
76221SOL    HW140642   5.835   9.062  11.174 -1.5366  1.3292 -0.9090
76221SOL    HW240643   5.863   8.917  11.141  1.1925  1.2573  1.2920
76222SOL     OW40644   0.530  12.130   6.273 -0.3578  0.2028 -0.4948
76222SOL    HW140645   0.466  12.064   6.249 -0.3906  0.5252 -1.3154
76222SOL    HW240646   0.493  12.212   6.240 -0.2396  0.6102  0.3635
76223SOL     OW40647  10.275  11.854   1.904  0.2579 -0.1681  0.4839
76223SOL    HW140648  10.364  11.835   1.875  0.5288  2.0190 -0.3217
76223SOL    HW240649  10.284  11.926   1.966 -0.9194 -0.0275  0.5298
76224SOL     OW40650   2.317   8.778  13.034 -0.2855  0.5294 -0.0197
76224SOL    HW140651   2.313   8.713  12.963  0.0481  1.4876 -0.9393
76224SOL    HW240652   2.226   8.793  13.058 -0.4522  0.8175 -0.8230
76225SOL     OW40653  12.235  12.944   4.081 -0.4030  0.2414 -0.1956
76225SOL    HW140654  12.162  12.939   4.143  0.9918 -1.2516  1.4046
76225SOL    HW240655  12.303  12.992   4.128 -0.1295  1.1741 -1.4910
76226SOL     OW40656   2.367  10.511  12.542  0.6792 -0.6008 -0.0781
76226SOL    HW140657   2.385  10.605  12.550  1.2559 -0.5941 -1.2074
76226SOL    HW240658   2.313  10.504  12.463  0.0743 -1.1690  0.3702
76227SOL     OW40659   6.107   9.838  13.102 -0.4117  0.2972  0.4224
76227SOL    HW140660   6.141   9.914  13.056  0.4973 -0.1503  0.3424
76227SOL    HW240661   6.126   9.764  13.044 -0.0248 -0.1638  1.1245
76228SOL     OW40662  10.179  12.682   5.761  0.3655 -0.2547  0.1824
76228SOL    HW140663  10.174  12.769   5.722  2.7531  0.2713  0.8993
76228SOL    HW240664  10.259  12.644   5.724  0.4947 -1.3078  1.4774
76229SOL     OW40665   6.913  12.327   2.297  0.2101 -0.5470 -0.3715
76229SOL    HW140666   6.993  12.286   2.330 -0.7153 -1.8925  0.2661
76229SOL    HW240667   6.925  12.329   2.202  1.5130  0.4170 -0.2222
76230SOL     OW40668   2.145   6.385   4.022  0.1961 -0.0667  0.0586
76230SOL    HW140669   2.081   6.451   4.047  0.5152 -0.1885  1.2584
76230SOL    HW240670   2.140   6.382   3.926 -0.8751  0.6215  0.0738
76231SOL     OW40671   0.470  10.077   7.015 -0.3832 -0.3056 -0.6074
76231SOL    HW140672   0.417   9.997   7.012  1.0009 -1.3075  0.4670
76231SOL    HW240673   0.535  10.064   6.946 -1.2427  0.7252 -1.6351
76232SOL     OW40674   3.362   2.688   3.832  0.1668 -0.0446 -0.5955
76232SOL    HW140675   3.266   2.694   3.824  0.1113  1.7533  0.9044
76232SOL    HW240676   3.385   2.614   3.776 -1.8535  0.8703 -2.8248
76233SOL     OW40677   5.091  11.425  13.334  0.2625  0.1544  0.1366
76233SOL    HW140678   5.025  11.411  13.402 -0.1031  1.4233  0.0761
76233SOL    HW240679   5.167  11.458  13.382  1.1960 -2.0998  0.3165
76234SOL     OW40680   7.652   1.377  12.241  0.0419  0.2418  0.2888
76234SOL    HW140681   7.725   1.358  12.299  0.2088 -0.4918 -0.1507
76234SOL    HW240682   7.574   1.352  12.290  0.1848 -0.4036  0.1910
76235SOL     OW40683  11.825  13.981   0.627 -0.4606 -0.3710  0.2876
76235SOL    HW140684  11.776  13.925   0.566 -2.3396 -2.0691  3.1370
76235SOL    HW240685  11.774  14.061   0.632 -1.0956 -0.7953  0.6920
76236SOL     OW40686   7.630   3.969   2.779  0.1910  0.6263 -0.1366
76236SOL    HW140687   7.706   4.021   2.751 -0.2707  1.1137 -0.5117
76236SOL    HW240688   7.630   3.977   2.874  0.4443  0.8663 -0.1538
76237SOL     OW40689   4.232   4.701  13.637  0.3824 -0.0429  0.1922
76237SOL    HW140690   4.234   4.606  13.648  1.4961 -0.2528 -1.4237
76237SOL    HW240691   4.290   4.717  13.562 -0.9387  1.7727 -0.4993
76238SOL     OW40692   2.948   0.227   9.997 -0.6163 -0.6530  0.5513
76238SOL    HW140693   3.017   0.231   9.930 -0.5303 -1.2368  0.5938
76238SOL    HW240694   2.887   0.296   9.973  0.1310  0.0620  0.6796
76239SOL     OW40695   0.971   3.252   2.030 -0.2923 -0.4938 -0.0422
76239SOL    HW140696   1.059   3.215   2.042  0.3239  0.2968 -1.8127
76239SOL    HW240697   0.983   3.346   2.045 -1.0280 -0.4804  0.5033
76240SOL     OW40698  11.657   9.339   1.065  0.1474  0.0135 -1.4432
76240SOL    HW140699  11.572   9.383   1.059 -0.3691 -0.9993 -1.6289
76240SOL    HW240700  11.658   9.278   0.992  0.8996 -0.2300 -1.2390
76241SOL     OW40701  11.936   3.189   0.165 -0.0888 -0.2347  0.8922
76241SOL    HW140702  11.882   3.265   0.185  1.3949  1.6154 -1.5218
76241SOL    HW240703  11.881   3.135   0.107 -0.4208  0.0875  0.9035
76242SOL     OW40704  13.585  10.131   7.286 -0.1097 -0.3887 -0.1108
76242SOL    HW140705  13.510  10.073   7.277 -1.4613  0.7857  2.7029
76242SOL    HW240706  13.621  10.111   7.373  0.7581  1.4325 -0.0170
76243SOL     OW40707   4.664  11.526  11.543  0.2612 -0.0407  0.0334
76243SOL    HW140708   4.721  11.539  11.619  1.9550 -1.4569 -0.9125
76243SOL    HW240709   4.620  11.610  11.532 -0.1359  0.1750  2.6131
76244SOL     OW40710   8.760   0.440   6.015  0.0900  0.3247  1.0916
76244SOL    HW140711   8.767   0.386   5.936  1.0759 -0.2564  1.5550
76244SOL    HW240712   8.759   0.377   6.087  0.3275  0.8890  1.5977
76245SOL     OW40713   5.907   5.385   5.514 -0.2736  0.4974 -0.2963
76245SOL    HW140714   5.870   5.326   5.448 -0.2866  1.8970 -1.5825
76245SOL    HW240715   5.848   5.460   5.516  0.5652  1.1622  0.1967
76246SOL     OW40716   1.870  11.922  13.027  0.6693  0.8782 -0.1016
76246SOL    HW140717   1.802  11.979  13.062  0.7144 -0.1169  1.6866
76246SOL    HW240718   1.840  11.834  13.046  1.0155  0.2848 -2.0588
76247SOL     OW40719   3.707   9.912   4.410 -0.7320  0.6418  0.6381
76247SOL    HW140720   3.774   9.975   4.436 -0.6574  1.2736 -0.9434
76247SOL    HW240721   3.755   9.831   4.393 -0.4469  0.9114  0.1329
76248SOL     OW40722   7.470  13.670  10.082  0.3484  0.0546 -0.7553
76248SOL    HW140723   7.451  13.596  10.023 -2.0333  0.5372 -0.7156
76248SOL    HW240724   7.401  13.733  10.063  1.1495  1.4108  0.6561
76249SOL     OW40725  13.060   9.916   4.195  0.2101 -0.2655 -0.0068
76249SOL    HW140726  13.047   9.902   4.289  1.6035  0.6550  0.3579
76249SOL    HW240727  12.974   9.940   4.163 -0.1140  0.3349  1.2295
76250SOL     OW40728   4.210   9.427   5.335 -0.4543 -0.2763  0.0485
76250SOL    HW140729   4.155   9.430   5.256  0.7621  0.3139 -0.8054
76250SOL    HW240730   4.195   9.511   5.378  0.2628  0.1758 -0.5503
76251SOL     OW40731   9.191   8.743   0.588 -0.4328 -0.0594 -0.7368
76251SOL    HW140732   9.261   8.808   0.593 -0.3459 -0.2094  0.0505
76251SOL    HW240733   9.114   8.788   0.624 -0.1879 -0.6332  0.5298
76252SOL     OW40734  10.026   2.223   2.389 -0.1957  0.0472  0.6215
76252SOL    HW140735  10.102   2.214   2.447 -0.0842  0.8918  0.6234
76252SOL    HW240736   9.973   2.292   2.430 -0.1085  0.6755 -0.2793
76253SOL     OW40737   1.169   6.441   0.855 -0.0801 -0.3488 -0.0375
76253SOL    HW140738   1.077   6.436   0.879 -0.3082  1.0103 -0.5312
76253SOL    HW240739   1.199   6.350   0.855 -1.7989 -0.9620 -1.3169
76254SOL     OW40740   9.245   4.176   5.422 -0.0925  0.3229  0.3808
76254SOL    HW140741   9.255   4.081   5.429  0.2017  0.2589 -0.7303
76254SOL    HW240742   9.176   4.188   5.356  0.4489  0.8825 -0.0927
76255SOL     OW40743   3.961   4.170   0.719  0.0520  0.0989  0.0484
76255SOL    HW140744   4.053   4.149   0.704 -0.3846 -1.0677 -1.2706
76255SOL    HW240745   3.940   4.130   0.803 -0.0297 -2.5815 -1.1374
76256SOL     OW40746  10.494   5.080   2.833  0.2752 -0.3107  0.3220
76256SOL    HW140747  10.590   5.080   2.841  0.1974 -0.4397  1.4909
76256SOL    HW240748  10.478   5.082   2.739  1.4277  0.2707  0.1121
76257SOL     OW40749  13.056  13.102   6.404  0.3635 -0.4999  0.4663
76257SOL    HW140750  13.005  13.073   6.328  1.9727  0.6721 -1.1606
76257SOL    HW240751  12.991  13.139   6.463 -0.9156 -1.1508 -0.4703
76258SOL     OW40752   4.315   9.203   6.129 -0.3818  0.4012  0.5398
76258SOL    HW140753   4.307   9.121   6.080 -1.7620 -0.0292  1.4058
76258SOL    HW240754   4.406   9.207   6.156 -0.3858 -1.0846  0.8479
76259SOL     OW40755   4.152  11.219   7.978 -0.0982 -0.0833 -0.1327
76259SOL    HW140756   4.159  11.134   8.021 -0.1239 -0.5897 -1.0936
76259SOL    HW240757   4.058  11.236   7.973 -0.0651  0.6616  1.2733
76260SOL     OW40758   4.378   8.453   6.047 -0.2178 -0.3274  0.2232
76260SOL    HW140759   4.442   8.396   6.004 -0.9890 -0.2783 -1.0074
76260SOL    HW240760   4.295   8.433   6.005 -0.8140  0.4932  0.9631
76261SOL     OW40761   9.375   8.967  11.303 -0.1382 -0.1752 -0.0873
76261SOL    HW140762   9.327   8.884  11.296  0.4711 -0.5141 -0.3328
76261SOL    HW240763   9.362   9.009  11.218  1.2262 -0.9593 -0.7182
76262SOL     OW40764  10.477   5.279   6.049  0.0966  0.2269 -0.5616
76262SOL    HW140765  10.389   5.300   6.082  0.3042  1.4659 -0.7611
76262SOL    HW240766  10.482   5.321   5.963  0.6858 -0.3238 -0.8060
76263SOL     OW40767   0.551   1.548  11.602  0.3081  0.1169 -0.7916
76263SOL    HW140768   0.594   1.489  11.539 -0.7163 -0.3862 -1.0399
76263SOL    HW240769   0.493   1.602  11.548 -1.8860 -1.4678 -0.1626
76264SOL     OW40770   9.619   0.975   8.832 -0.1482 -0.6093  0.2303
76264SOL    HW140771   9.579   1.038   8.892 -1.4941  0.2152 -1.4208
76264SOL    HW240772   9.547   0.919   8.804  0.3149 -0.6564 -0.9497
76265SOL     OW40773   6.277   6.573  12.607  0.3723 -0.2207  0.1050
76265SOL    HW140774   6.351   6.632  12.590  0.2145 -0.2542 -0.7373
76265SOL    HW240775   6.308   6.488  12.578 -0.1398 -0.1579 -0.6340
76266SOL     OW40776  12.367   6.714   5.335  0.4359  0.1349 -0.5137
76266SOL    HW140777  12.325   6.684   5.255 -0.1791  0.2718 -0.2474
76266SOL    HW240778  12.375   6.635   5.389 -1.8772  0.5113  0.5021
76267SOL     OW40779   5.359   7.425  10.571 -0.2650  0.0941  0.4779
76267SOL    HW140780   5.275   7.470  10.582 -0.5931 -0.5749  0.7343
76267SOL    HW240781   5.336   7.334  10.553  0.4300 -0.5683  2.6298
76268SOL     OW40782  11.929   8.335  11.454 -0.3684  0.7889  0.6091
76268SOL    HW140783  11.891   8.260  11.408  0.8489  0.3146  0.3357
76268SOL    HW240784  11.888   8.332  11.541 -0.0057 -0.4823  0.7649
76269SOL     OW40785   8.342  12.830   5.171  0.3864  0.2213  0.7923
76269SOL    HW140786   8.263  12.787   5.205  1.1918 -1.3346  0.7627
76269SOL    HW240787   8.309  12.887   5.102 -0.5831 -2.0282 -0.7417
76270SOL     OW40788  11.022  12.914   5.243  0.0088  0.1769 -0.1438
76270SOL    HW140789  10.950  12.957   5.197 -0.9689  0.3385  1.4618
76270SOL    HW240790  11.046  12.974   5.313  2.1952  0.4235 -1.0175
76271SOL     OW40791  10.393   8.834   0.243  0.4566  0.4929  0.5264
76271SOL    HW140792  10.388   8.765   0.177  1.8043  1.3773 -0.5512
76271SOL    HW240793  10.327   8.898   0.216  0.2922  0.3655  0.6273
76272SOL     OW40794   5.481   5.913   8.869  0.2838  0.0665 -0.4181
76272SOL    HW140795   5.394   5.947   8.851  0.5112  0.2174 -1.3250
76272SOL    HW240796   5.468   5.820   8.889 -0.3239  0.5875  1.9080
76273SOL     OW40797   4.424  13.640   7.378 -0.4493 -0.0626 -0.1081
76273SOL    HW140798   4.344  13.652   7.429 -0.2687 -1.4108  0.5434
76273SOL    HW240799   4.481  13.711   7.405 -0.9683  0.1819  0.3609
76274SOL     OW40800  10.658   1.973   7.284  0.0746 -0.1452 -0.1648
76274SOL    HW140801  10.628   2.024   7.209 -0.9116 -0.9074 -0.3064
76274SOL    HW240802  10.597   1.900   7.289 -0.4255  0.3497  1.9059
76275SOL     OW40803   3.589  13.769   5.850 -0.0925  0.0185  0.1403
76275SOL    HW140804   3.527  13.818   5.905 -2.4088  0.2938 -2.4857
76275SOL    HW240805   3.616  13.832   5.783  1.4429 -0.7445  0.0023
76276SOL     OW40806   3.875   4.975   7.756  0.4086 -0.4523 -0.3960
76276SOL    HW140807   3.797   5.028   7.740 -0.4336 -1.6652 -0.4213
76276SOL    HW240808   3.930   4.990   7.679  0.4241  0.7669 -0.1664
76277SOL     OW40809  13.245   6.810  12.649  0.5415  0.4803  0.0487
76277SOL    HW140810  13.226   6.884  12.591 -0.9815 -1.3782 -2.0060
76277SOL    HW240811  13.216   6.839  12.735 -0.6679  2.0380 -0.8214
76278SOL     OW40812   0.022   8.604   6.892  0.2533  0.1208  0.0882
76278SOL    HW140813  -0.040   8.675   6.908  0.8645  1.7492 -3.7662
76278SOL    HW240814   0.102   8.632   6.935  0.2291  1.4123 -0.6623
76279SOL     OW40815   5.008  13.720   8.621  0.1746  0.5095  0.2576
76279SOL    HW140816   5.047  13.805   8.599  0.5570  0.3226  0.2072
76279SOL    HW240817   4.916  13.740   8.638 -0.2192  0.6260 -1.7765
76280SOL     OW40818   4.396   4.408  11.422  0.0707 -0.0924  0.1717
76280SOL    HW140819   4.445   4.487  11.444 -1.1946  0.4071  1.3024
76280SOL    HW240820   4.413   4.396  11.328  2.5253 -0.1040  0.5580
76281SOL     OW40821   8.829   6.754   4.682 -0.1199 -0.4899 -0.0537
76281SOL    HW140822   8.781   6.830   4.652  0.7884  0.7695  1.5266
76281SOL    HW240823   8.837   6.766   4.777  0.5282 -2.2768  0.1690
76282SOL     OW40824  13.103   8.860   7.277 -0.0672 -0.1746  0.6682
76282SOL    HW140825  13.099   8.803   7.200  0.0882 -2.6059  2.3380
76282SOL    HW240826  13.177   8.917   7.261  0.1305 -0.8111 -0.8638
76283SOL     OW40827  13.426  12.893   8.242  0.3431 -0.2734  0.2026
76283SOL    HW140828  13.438  12.974   8.192 -0.3761  0.0953  0.6004
76283SOL    HW240829  13.514  12.860   8.256  0.6242  0.2563 -0.2675
76284SOL     OW40830   2.725   3.458   4.455  0.1988  0.2555 -0.0475
76284SOL    HW140831   2.646   3.500   4.490  0.5105  0.0760  0.9111
76284SOL    HW240832   2.746   3.390   4.519  0.2868 -0.7037 -1.0550
76285SOL     OW40833  12.807   8.301   3.839 -0.5587  0.5897 -0.1360
76285SOL    HW140834  12.813   8.220   3.890 -1.0984 -0.0315 -1.0297
76285SOL    HW240835  12.717   8.330   3.851 -1.0187 -0.1514 -1.5748
76286SOL     OW40836   8.288   7.620   3.369 -0.3492 -0.2509  0.1098
76286SOL    HW140837   8.335   7.550   3.324 -0.5310 -0.2182 -0.1324
76286SOL    HW240838   8.352   7.691   3.376 -0.2199 -0.3757  0.1975
76287SOL     OW40839   9.360   1.853   3.485  0.4738 -0.1605  0.3898
76287SOL    HW140840   9.433   1.851   3.422  1.5795 -0.4929  1.6352
76287SOL    HW240841   9.362   1.766   3.526 -0.7451 -0.2332  0.3385
76288SOL     OW40842   4.851  11.631  12.007 -0.5073 -0.3794  0.1253
76288SOL    HW140843   4.825  11.650  12.097  0.0529  1.8314 -0.1355
76288SOL    HW240844   4.773  11.650  11.955 -0.3879 -0.2106  0.0054
76289SOL     OW40845   0.757   4.308  10.414 -0.6784  0.1654 -0.3764
76289SOL    HW140846   0.722   4.389  10.376 -2.5742 -0.4254 -0.0122
76289SOL    HW240847   0.712   4.300  10.498 -0.1115 -1.0014 -0.1589
76290SOL     OW40848  12.557  11.177   9.782 -0.0385  0.2279 -0.6096
76290SOL    HW140849  12.647  11.149   9.802 -0.0880  0.5324  0.0680
76290SOL    HW240850  12.518  11.196   9.867 -1.0123 -0.6680 -0.8350
76291SOL     OW40851   6.073  10.198  12.043  0.4280 -0.5280  0.5416
76291SOL    HW140852   6.028  10.114  12.049  0.9610 -0.7881  0.9421
76291SOL    HW240853   6.081  10.227  12.134  1.0476 -0.4792  0.4755
76292SOL     OW40854   9.494   3.534   9.504 -0.0087 -0.3090 -0.3680
76292SOL    HW140855   9.418   3.574   9.546  0.0561 -1.7985  1.3051
76292SOL    HW240856   9.546   3.607   9.472 -1.1754  0.8025  0.2016
76293SOL     OW40857   9.260  12.275  12.882  0.0564  0.1319 -0.1310
76293SOL    HW140858   9.324  12.281  12.811 -0.6522 -1.0773 -0.9025
76293SOL    HW240859   9.311  12.296  12.961  1.3222 -0.3808 -0.7710
76294SOL     OW40860   4.963   6.458  14.005  0.1923  0.9052  0.4574
76294SOL    HW140861   4.965   6.495  13.917  0.6813  0.4209  0.2651
76294SOL    HW240862   4.922   6.527  14.058  0.8686  1.6416  0.0575
76295SOL     OW40863   5.262   4.177   7.282  0.3717 -0.0775 -0.0051
76295SOL    HW140864   5.357   4.188   7.287  0.2484  0.5138  2.8699
76295SOL    HW240865   5.233   4.179   7.374 -2.5567  0.9232 -0.8584
76296SOL     OW40866   4.869   8.925   3.565 -0.1218  0.2319 -0.5900
76296SOL    HW140867   4.865   9.011   3.608 -0.7030 -1.6983  3.7385
76296SOL    HW240868   4.963   8.908   3.555 -0.0020  1.3792 -1.6571
76297SOL     OW40869  10.110  11.696   1.281  0.0729  0.7877  0.5727
76297SOL    HW140870  10.193  11.648   1.288  0.2077  1.0933  1.1257
76297SOL    HW240871  10.124  11.775   1.334 -0.1397  1.4462 -0.3121
76298SOL     OW40872  10.637   4.527   4.702 -0.4533 -0.4069 -0.7101
76298SOL    HW140873  10.593   4.443   4.716  0.0250 -0.8312 -1.6569
76298SOL    HW240874  10.570   4.593   4.721 -0.6830 -0.9783  0.5881
76299SOL     OW40875   4.467   6.855  10.568 -0.3392 -0.1294 -0.4305
76299SOL    HW140876   4.400   6.923  10.558 -1.0601 -0.6980  0.3980
76299SOL    HW240877   4.439   6.805  10.644  1.5767  0.2330  0.5745
76300SOL     OW40878   2.328  12.343  10.522 -0.8084  0.4647  0.4522
76300SOL    HW140879   2.268  12.270  10.508 -0.1907  0.1369 -0.6706
76300SOL    HW240880   2.405  12.303  10.563 -0.8902  0.6684  0.8019
76301SOL     OW40881   5.008  12.261   5.782 -0.3441  0.1695 -0.1282
76301SOL    HW140882   4.976  12.330   5.841  1.0050  0.1928  0.6200
76301SOL    HW240883   4.963  12.182   5.812  0.8981  0.0313  1.4878
76302SOL     OW40884  13.117   1.232   3.356 -0.3463  0.2595 -0.0697
76302SOL    HW140885  13.113   1.148   3.310 -0.9494  1.3122 -2.0483
76302SOL    HW240886  13.191   1.224   3.415  0.4753 -1.1840 -1.2474
76303SOL     OW40887   2.550  13.837  12.089 -0.1381 -0.2398  0.2460
76303SOL    HW140888   2.495  13.759  12.080  0.2511 -0.4028 -0.8523
76303SOL    HW240889   2.498  13.908  12.053  0.0867 -0.2648 -0.1290
76304SOL     OW40890  10.751   6.086  11.015  0.0671  0.1326 -0.0320
76304SOL    HW140891  10.758   6.096  10.920  0.7572  0.3137  0.0274
76304SOL    HW240892  10.838   6.055  11.041 -0.8076 -2.1967  0.2712
76305SOL     OW40893   4.696   0.702   2.897 -0.2518 -0.1256  0.1168
76305SOL    HW140894   4.622   0.758   2.920  0.7005  1.6053 -0.7862
76305SOL    HW240895   4.724   0.662   2.979 -1.6861 -0.2037  0.5875
76306SOL     OW40896  13.102   3.091  11.952 -0.2361  0.8283  0.3672
76306SOL    HW140897  13.127   3.178  11.984 -1.8734  1.3333  0.3769
76306SOL    HW240898  13.006   3.094  11.949 -0.2559 -0.4751 -1.0709
76307SOL     OW40899   6.122  12.049   0.315 -0.3722 -0.3301  0.0541
76307SOL    HW140900   6.149  12.122   0.259 -0.8290 -0.7428 -0.7157
76307SOL    HW240901   6.120  11.973   0.256 -1.1947 -0.7073  0.5585
76308SOL     OW40902   7.611  10.260   4.098  0.0655  0.6547 -0.5979
76308SOL    HW140903   7.517  10.245   4.105  0.2109 -0.9547 -1.5691
76308SOL    HW240904   7.628  10.335   4.156 -1.8347  1.1592 -0.6282
76309SOL     OW40905   7.207   1.478   2.430  0.2356 -0.5132 -0.3356
76309SOL    HW140906   7.118   1.464   2.463 -0.6305  0.6254 -2.0753
76309SOL    HW240907   7.218   1.413   2.362  1.7128 -2.2946  1.4852
76310SOL     OW40908   0.858   9.515  10.270  0.9693  0.3956  0.6890
76310SOL    HW140909   0.796   9.443  10.281 -1.3832  2.1851 -0.0370
76310SOL    HW240910   0.876   9.518  10.176  2.4879 -0.3088  0.9287
76311SOL     OW40911   8.759  12.641  12.844 -0.0899 -0.2528 -0.1984
76311SOL    HW140912   8.700  12.679  12.909  0.0996 -0.4945  0.1135
76311SOL    HW240913   8.771  12.550  12.872 -0.1547 -0.4088 -0.6733
76312SOL     OW40914  11.118   2.367   6.175 -0.4258 -0.9674 -0.2742
76312SOL    HW140915  11.099   2.274   6.161 -0.8541 -0.9631  0.2233
76312SOL    HW240916  11.140   2.372   6.268  3.9387 -1.2949 -1.0755
76313SOL     OW40917  12.599  13.923   6.096  0.0697  0.0170  0.0316
76313SOL    HW140918  12.518  13.887   6.131 -0.2297  1.6927  1.1628
76313SOL    HW240919  12.587  13.924   6.001 -0.8957 -0.4646  0.1413
76314SOL     OW40920  13.871   3.444   3.219 -1.1394  0.4154  0.2786
76314SOL    HW140921  13.924   3.408   3.148 -0.9919  1.1292  0.0144
76314SOL    HW240922  13.910   3.530   3.237 -1.8087  0.6811  0.5070
76315SOL     OW40923   9.431   2.375   6.726 -0.5029 -0.6959  0.5892
76315SOL    HW140924   9.445   2.349   6.818  1.9260 -2.5096 -0.1805
76315SOL    HW240925   9.364   2.444   6.730  0.2885  0.0449  3.8070
76316SOL     OW40926   9.154  10.469  10.595 -0.7940  0.2503 -0.0513
76316SOL    HW140927   9.209  10.398  10.628 -2.1465 -1.6193 -1.5618
76316SOL    HW240928   9.216  10.532  10.558  0.5314  0.6436  2.5610
76317SOL     OW40929   6.572   5.590  10.726  0.2875  0.7226  0.3811
76317SOL    HW140930   6.509   5.610  10.795 -0.9786  0.9366 -0.7983
76317SOL    HW240931   6.519   5.556  10.654  1.1901  2.9355 -1.4717
76318SOL     OW40932   0.281   5.939   7.205  0.3757 -0.0023 -0.7050
76318SOL    HW140933   0.229   5.905   7.279  0.6419 -0.6829 -0.8216
76318SOL    HW240934   0.216   5.970   7.143  0.0598 -1.4285 -1.1300
76319SOL     OW40935   8.122   5.901   8.497 -0.0304 -0.5467  0.0550
76319SOL    HW140936   8.119   5.969   8.429 -0.2673  0.5740  1.1587
76319SOL    HW240937   8.144   5.821   8.449 -0.7915  0.0858 -1.4416
76320SOL     OW40938   0.083   8.640   4.274 -0.5292 -0.2454  0.0503
76320SOL    HW140939   0.065   8.546   4.282  0.2399 -0.6773 -2.5687
76320SOL    HW240940   0.009   8.682   4.319 -0.8015 -2.0559  1.4459
76321SOL     OW40941   6.664   5.816   2.104 -0.5600 -0.9518 -0.2211
76321SOL    HW140942   6.729   5.837   2.036 -1.3561  0.5803 -0.5511
76321SOL    HW240943   6.716   5.803   2.183  0.2030 -0.1537 -0.5615
76322SOL     OW40944   7.347   5.422   5.894 -0.3388 -0.2130 -0.4022
76322SOL    HW140945   7.380   5.336   5.868  0.8755 -0.5464  2.0157
76322SOL    HW240946   7.409   5.484   5.856  0.7997 -0.6348  0.6979
76323SOL     OW40947   7.253   3.792   9.484  0.6788 -0.2865  0.2843
76323SOL    HW140948   7.252   3.707   9.441  0.8784  0.2107 -0.7295
76323SOL    HW240949   7.184   3.787   9.550 -1.6478 -0.0939 -1.9935
76324SOL     OW40950   7.613   8.353   3.782  0.1139 -0.6712 -0.0490
76324SOL    HW140951   7.548   8.422   3.769  0.3111 -0.3449  0.6220
76324SOL    HW240952   7.697   8.393   3.759 -0.0287 -1.4785 -2.1809
76325SOL     OW40953   2.797   2.566  10.539 -0.3463 -0.3237 -0.0204
76325SOL    HW140954   2.862   2.637  10.538 -0.6920  0.0043  0.4079
76325SOL    HW240955   2.714   2.609  10.558 -0.8025 -0.6629 -1.1418
76326SOL     OW40956   1.756   1.504   1.554  0.0518  0.5404  0.0883
76326SOL    HW140957   1.837   1.498   1.503  0.4051  1.0787  0.5803
76326SOL    HW240958   1.709   1.578   1.516 -0.4480 -0.0577 -0.5076
76327SOL     OW40959   7.961   4.763   6.365 -0.2821 -0.1969  0.1954
76327SOL    HW140960   8.038   4.788   6.417  0.2544 -0.5562 -0.4078
76327SOL    HW240961   7.888   4.809   6.406  0.2272  0.0070  0.8902
76328SOL     OW40962  13.277   2.324   1.909  0.1349 -0.0727 -0.5938
76328SOL    HW140963  13.361   2.369   1.912 -0.5344  1.4921 -2.5760
76328SOL    HW240964  13.212   2.395   1.916 -0.9780 -0.9236 -1.7421
76329SOL     OW40965  11.432   2.951  10.091  0.6375  0.5377 -0.2663
76329SOL    HW140966  11.368   3.016  10.118  0.7347  0.0423  1.2953
76329SOL    HW240967  11.390   2.902  10.021  0.8600  2.7331 -2.0412
76330SOL     OW40968   6.198   2.080   9.978  0.2319  0.2182 -0.4755
76330SOL    HW140969   6.165   1.991   9.976  0.9664 -0.0951  0.8206
76330SOL    HW240970   6.123   2.133  10.004 -0.0174 -0.1064 -0.5333
76331SOL     OW40971   0.409  12.865   2.602 -0.2053  0.2095 -0.7255
76331SOL    HW140972   0.478  12.866   2.669 -0.8360 -0.1040 -0.0585
76331SOL    HW240973   0.428  12.787   2.550  1.0787  1.1787 -1.7810
76332SOL     OW40974   7.083  13.199  13.169  0.1289 -1.0530  0.0633
76332SOL    HW140975   7.091  13.105  13.155 -2.2652 -1.0878 -1.9053
76332SOL    HW240976   7.127  13.216  13.252  0.4775 -3.9080  0.5440
76333SOL     OW40977  11.522  12.371   6.184  0.4194 -0.6739 -0.3483
76333SOL    HW140978  11.542  12.329   6.101  1.0861 -1.8939  0.3959
76333SOL    HW240979  11.539  12.304   6.250 -2.4297 -0.5725  0.6461
76334SOL     OW40980   9.076   0.478   5.361  0.1065 -0.1880 -0.1792
76334SOL    HW140981   9.140   0.547   5.344  0.6307 -0.3849  0.8801
76334SOL    HW240982   9.080   0.465   5.456 -2.7151  0.9529  0.1932
76335SOL     OW40983  12.928   2.154  12.008 -0.3685  0.6075  0.1488
76335SOL    HW140984  12.948   2.157  12.101 -0.4910  2.0825  0.1533
76335SOL    HW240985  12.979   2.225  11.969  0.6862 -0.7764 -1.1420
76336SOL     OW40986   9.940   0.746   0.630 -0.0567  0.1621  0.9036
76336SOL    HW140987   9.857   0.697   0.628  0.0529 -0.0157  0.0662
76336SOL    HW240988   9.916   0.834   0.657 -0.5209  0.1006  0.6992
76337SOL     OW40989   0.944  11.438   1.597 -0.0296  0.0215  0.1132
76337SOL    HW140990   1.018  11.485   1.559 -0.2317  0.3458  0.1147
76337SOL    HW240991   0.949  11.350   1.560 -0.7841  0.5995 -1.4505
76338SOL     OW40992   4.651   5.399   0.882 -0.2387 -0.2484 -0.8058
76338SOL    HW140993   4.579   5.354   0.927  0.3568 -0.6724 -0.2601
76338SOL    HW240994   4.612   5.481   0.851 -0.7336 -0.0570  0.2685
76339SOL     OW40995   0.034  12.160  11.490  0.6178  0.2592 -0.0079
76339SOL    HW140996   0.004  12.240  11.448 -1.5018 -0.9863 -0.9949
76339SOL    HW240997   0.005  12.169  11.581  1.4035  1.0656  0.1840
76340SOL     OW40998  13.081   9.166   9.261 -0.3937 -0.2946  0.4822
76340SOL    HW140999  13.093   9.170   9.166 -1.3414 -1.4350  0.2993
76340SOL    HW241000  13.169   9.151   9.296  0.2944  2.0909 -0.0425
76341SOL     OW41001   2.176   8.562  11.909  0.0643 -0.3424 -0.5810
76341SOL    HW141002   2.237   8.570  11.835  0.3131 -0.3734 -0.3833
76341SOL    HW241003   2.096   8.605  11.880  0.2816 -0.0458 -0.7414
76342SOL     OW41004   8.191   9.097  10.831 -0.4317 -0.0028 -0.1459
76342SOL    HW141005   8.142   9.179  10.824  0.9203  0.8208 -0.2712
76342SOL    HW241006   8.212   9.090  10.924  0.2786  0.3161 -0.2716
76343SOL     OW41007  11.140   2.865  10.157  0.0341 -0.5800 -0.1711
76343SOL    HW141008  11.174   2.831  10.074  1.3593  0.2169  0.0077
76343SOL    HW241009  11.047   2.843  10.157  0.2916 -1.7560 -1.2670
76344SOL     OW41010   7.612  12.163   9.634 -0.6864 -0.4905 -0.0965
76344SOL    HW141011   7.539  12.166   9.571 -1.8849  1.9289  1.2688
76344SOL    HW241012   7.570  12.143   9.718  0.6048 -1.5919  0.3143
76345SOL     OW41013   8.349   3.785   8.762  0.4040 -0.7806  0.0461
76345SOL    HW141014   8.383   3.822   8.843 -0.9711  0.1281  0.2478
76345SOL    HW241015   8.287   3.718   8.790  1.1451 -1.6380 -0.3013
76346SOL     OW41016   3.132  11.435   0.180  0.0294 -0.5374  0.3668
76346SOL    HW141017   3.177  11.385   0.112 -0.5380 -0.2075 -0.2680
76346SOL    HW241018   3.182  11.419   0.260  0.1520 -1.7002  0.0659
76347SOL     OW41019   5.755   2.844  11.147 -0.4345  0.0502 -0.0774
76347SOL    HW141020   5.701   2.920  11.126 -0.3553 -0.1226 -0.9689
76347SOL    HW241021   5.826   2.847  11.084 -2.2505 -2.6266 -2.5435
76348SOL     OW41022   3.434   5.838  11.431  0.1312 -0.6538  0.0410
76348SOL    HW141023   3.524   5.866  11.447 -0.3166  0.5812  0.5616
76348SOL    HW241024   3.416   5.773  11.499  0.0308  0.5246  1.1937
76349SOL     OW41025   3.832  10.895   1.349  0.0067  0.1854  0.2906
76349SOL    HW141026   3.795  10.818   1.306  0.3899  0.4499 -0.5228
76349SOL    HW241027   3.892  10.932   1.285 -0.1199  1.1239  0.6957
76350SOL     OW41028  12.149   9.827   8.432  0.0165 -0.0158  0.3310
76350SOL    HW141029  12.089   9.893   8.398 -0.6525 -1.2724 -1.0524
76350SOL    HW241030  12.232   9.873   8.442 -1.0309  1.6510  1.8598
76351SOL     OW41031   8.061   2.243   3.542  0.2688  0.1527 -0.4965
76351SOL    HW141032   8.010   2.321   3.525  1.2756  1.1909  0.9768
76351SOL    HW241033   8.026   2.177   3.482 -2.6416  0.8315  0.3094
76352SOL     OW41034  11.181   9.785   8.255 -0.2064  0.6693  0.1145
76352SOL    HW141035  11.260   9.781   8.200 -0.6299 -0.7794 -0.4560
76352SOL    HW241036  11.197   9.721   8.324 -0.0952  1.7707  1.1232
76353SOL     OW41037   8.415   5.963  13.907 -0.7534 -0.1514 -0.2565
76353SOL    HW141038   8.410   5.925  13.995  2.2770 -1.4224 -0.5140
76353SOL    HW241039   8.410   5.888  13.849  1.7319  0.1175 -0.9259
76354SOL     OW41040   4.185  10.925   1.311 -0.1026 -0.0002  0.1282
76354SOL    HW141041   4.226  10.902   1.228  0.0124 -0.4948  0.3201
76354SOL    HW241042   4.152  11.014   1.297  2.6019  1.1735  0.5483
76355SOL     OW41043  13.276   9.549   8.952 -0.4034 -0.0588  0.0089
76355SOL    HW141044  13.232   9.599   9.020 -0.8675  0.9837 -1.0164
76355SOL    HW241045  13.229   9.571   8.872  0.0441 -1.3493 -0.6380
76356SOL     OW41046   9.423   1.921   9.975  0.3892 -0.4349 -0.5530
76356SOL    HW141047   9.339   1.962   9.996  0.8997  0.2341  0.2743
76356SOL    HW241048   9.477   1.936  10.053  1.8697  0.7762 -1.7479
76357SOL     OW41049   6.966  11.064   4.378  1.0661 -0.1680 -0.3742
76357SOL    HW141050   6.935  11.023   4.298  0.6616 -2.1414  0.7349
76357SOL    HW241051   7.057  11.037   4.387  1.3250  0.6241 -0.5046
76358SOL     OW41052   7.507   3.921   3.943  0.2526  0.0766  0.0146
76358SOL    HW141053   7.472   3.904   4.030 -0.4865 -1.0839 -0.4896
76358SOL    HW241054   7.472   4.007   3.919 -1.4297 -0.6025 -0.0511
76359SOL     OW41055   4.549  10.516  13.084  0.1975 -0.1896  0.1647
76359SOL    HW141056   4.543  10.477  13.171  0.3701  0.1274  0.3175
76359SOL    HW241057   4.602  10.594  13.096 -3.2580  2.3147  0.6172
76360SOL     OW41058  13.360   3.392   6.501 -0.5978 -0.1491  0.4178
76360SOL    HW141059  13.402   3.344   6.573 -2.4803 -0.7224  1.1823
76360SOL    HW241060  13.291   3.443   6.543  0.3214  2.0911 -0.5912
76361SOL     OW41061   5.133   3.577   5.762 -0.1188 -0.2663 -0.2969
76361SOL    HW141062   5.074   3.542   5.695  0.5076 -0.2113 -0.8814
76361SOL    HW241063   5.108   3.669   5.771 -0.5684 -0.4089 -0.0541
76362SOL     OW41064   7.737   5.789   3.059  0.6818 -0.5257  0.1026
76362SOL    HW141065   7.725   5.695   3.066  1.0942 -0.6103 -0.2963
76362SOL    HW241066   7.825   5.805   3.093  0.7459 -0.3281 -0.1499
76363SOL     OW41067   9.510   2.719   9.881 -0.1187 -0.3185  0.3515
76363SOL    HW141068   9.523   2.681   9.968  0.3149  0.3053  0.5691
76363SOL    HW241069   9.593   2.762   9.861  0.2708 -1.6229 -0.9889
76364SOL     OW41070  12.777  12.128  13.029 -0.3569  0.0784  0.1669
76364SOL    HW141071  12.698  12.074  13.039  0.2698 -0.6838  1.2906
76364SOL    HW241072  12.810  12.106  12.942  0.2304 -1.8909  0.8295
76365SOL     OW41073   7.429   6.468   6.741 -0.2512 -0.1798 -0.8737
76365SOL    HW141074   7.483   6.491   6.665  1.4316 -2.0932 -0.3551
76365SOL    HW241075   7.462   6.524   6.811 -1.1221  0.8734 -1.2785
76366SOL     OW41076   9.761   5.359   6.553 -0.2068  0.2689  0.3902
76366SOL    HW141077   9.829   5.375   6.618 -2.0604 -0.3005  2.6154
76366SOL    HW241078   9.690   5.419   6.577 -1.6676 -1.2595  0.0843
76367SOL     OW41079   3.470  11.962   7.419  0.0439 -0.0545  0.3117
76367SOL    HW141080   3.385  11.919   7.429 -1.5411  2.7095 -0.3276
76367SOL    HW241081   3.500  11.936   7.332 -1.1048  0.4750 -0.2571
76368SOL     OW41082   2.809  10.969   2.745  0.2959  0.4169  0.5118
76368SOL    HW141083   2.874  10.942   2.809 -1.0757  1.2336  2.3300
76368SOL    HW241084   2.791  10.890   2.694  0.1663 -0.7255  2.2756
76369SOL     OW41085  12.505   4.894   9.277 -0.4910 -0.3870 -0.1804
76369SOL    HW141086  12.577   4.883   9.214 -1.4307  0.5190 -1.4594
76369SOL    HW241087  12.549   4.897   9.362  0.7907 -2.0551 -0.7049
76370SOL     OW41088  10.953  11.594   0.316  0.5157  0.2422  0.6366
76370SOL    HW141089  10.912  11.513   0.285 -2.8845  2.5914 -1.7285
76370SOL    HW241090  10.898  11.621   0.390 -0.0576  1.6357 -0.2625
76371SOL     OW41091   4.614   2.038   4.120 -0.1710  0.1443 -0.2946
76371SOL    HW141092   4.608   2.094   4.198  1.3885 -0.3961  0.2461
76371SOL    HW241093   4.666   2.089   4.058  0.4078 -0.2803 -0.1688
76372SOL     OW41094  11.042   3.116   3.311  0.5141  0.0712  0.0842
76372SOL    HW141095  11.134   3.141   3.318  0.4011  0.0553  2.4243
76372SOL    HW241096  10.995   3.190   3.350 -0.7126  1.1823 -3.2133
76373SOL     OW41097   8.865   1.792   9.386 -0.5321 -0.0911  0.0907
76373SOL    HW141098   8.814   1.731   9.440  0.1469 -0.5769  0.1937
76373SOL    HW241099   8.947   1.746   9.371  0.5338  1.3511  1.2825
76374SOL     OW41100   0.388   0.437   0.240 -0.6311 -0.1448  0.0046
76374SOL    HW141101   0.341   0.420   0.322 -0.5255  2.1468  0.6339
76374SOL    HW241102   0.479   0.415   0.260 -0.5637  0.6273  0.6280
76375SOL     OW41103   1.806   0.521  10.626  0.0442  0.5001  0.6545
76375SOL    HW141104   1.764   0.456  10.568  1.2278 -0.9906  1.3907
76375SOL    HW241105   1.867   0.567  10.569 -0.3021  0.4970  0.2686
76376SOL     OW41106  10.267   7.067  11.912 -0.1212 -0.2433  0.3520
76376SOL    HW141107  10.199   7.096  11.973  2.5424 -0.1443  3.5724
76376SOL    HW241108  10.258   6.971  11.912 -0.7469 -0.1910  0.0959
76377SOL     OW41109   1.549   5.703   3.078 -0.4369  0.3351  0.2852
76377SOL    HW141110   1.518   5.772   3.020 -3.0334 -0.1056  1.0325
76377SOL    HW241111   1.632   5.674   3.039 -1.7955  0.4041 -2.9242
76378SOL     OW41112   8.027   5.824   2.849 -0.2552 -0.8271  0.1601
76378SOL    HW141113   8.017   5.825   2.944  0.4379 -1.1863  0.2441
76378SOL    HW241114   8.009   5.733   2.825  1.1059 -1.1212  0.1405
76379SOL     OW41115   7.778   5.900  13.625  0.0658  0.2146  0.3640
76379SOL    HW141116   7.805   5.959  13.554 -1.0536  0.9838  0.5498
76379SOL    HW241117   7.831   5.822  13.612 -0.7442 -0.0361 -1.8828
76380SOL     OW41118  12.959  12.887  14.039  0.3706  0.6971 -0.0836
76380SOL    HW141119  13.042  12.918  14.074  2.3112 -2.6415 -1.2412
76380SOL    HW241120  12.915  12.847  14.115 -0.1154  2.1958  0.4641
76381SOL     OW41121   1.175   9.215   3.247 -0.1930 -0.7070 -0.2350
76381SOL    HW141122   1.239   9.276   3.210 -0.0899 -0.9381 -0.4439
76381SOL    HW241123   1.209   9.129   3.224  0.0045 -0.8670  0.6162
76382SOL     OW41124   2.862   5.776   6.881 -0.2857  0.4488 -0.0881
76382SOL    HW141125   2.943   5.734   6.852 -0.0943  1.6338 -1.3529
76382SOL    HW241126   2.794   5.735   6.828 -0.8607 -1.8623  2.2157
76383SOL     OW41127   6.671   6.836  13.734  0.1758  0.1869  0.5964
76383SOL    HW141128   6.754   6.883  13.744  0.1391  0.6747 -1.0898
76383SOL    HW241129   6.696   6.750  13.702  0.1108 -0.2679  1.7187
76384SOL     OW41130   6.156  13.652  10.188  0.2488  0.8270  0.2700
76384SOL    HW141131   6.080  13.604  10.222  0.6976 -0.5653 -0.6069
76384SOL    HW241132   6.205  13.678  10.266 -0.5819  0.8286  0.8007
76385SOL     OW41133   4.189   5.056  10.509 -0.2880 -0.2644  0.0964
76385SOL    HW141134   4.175   5.049  10.603  1.3602  1.3172  0.5069
76385SOL    HW241135   4.237   4.976  10.485 -0.1038 -0.3397  0.7209
76386SOL     OW41136   8.611   2.614  11.254 -0.0320 -0.1208 -0.4803
76386SOL    HW141137   8.612   2.703  11.287 -1.5158 -0.5975  0.9740
76386SOL    HW241138   8.696   2.577  11.280 -0.8549 -0.2449  2.2810
76387SOL     OW41139   8.813   6.694   9.810 -0.6049  0.7812  0.1471
76387SOL    HW141140   8.793   6.688   9.904 -2.5304  1.4761 -0.1800
76387SOL    HW241141   8.834   6.605   9.784  0.7921  0.7102  1.3904
76388SOL     OW41142   3.898  10.112  12.790  0.0284  0.0982 -0.1350
76388SOL    HW141143   3.870  10.106  12.699  1.5449 -2.6385 -0.5097
76388SOL    HW241144   3.837  10.056  12.838  0.0953  0.4093  0.3192
76389SOL     OW41145   0.008  10.366   2.227  0.3950 -0.4235 -0.1399
76389SOL    HW141146   0.031  10.282   2.189 -0.1056 -0.9601  0.7085
76389SOL    HW241147  -0.081  10.354   2.260  0.3127  0.4423 -0.0254
76390SOL     OW41148  13.673   8.668   6.979  0.3603 -0.1237 -0.2800
76390SOL    HW141149  13.618   8.699   7.051 -0.4006 -0.2459 -0.7998
76390SOL    HW241150  13.753   8.719   6.986  0.1573  0.1053  0.4513
76391SOL     OW41151   7.430  12.264  12.076 -0.5890 -0.1101 -0.0527
76391SOL    HW141152   7.406  12.284  12.167 -0.8011 -0.3790 -0.0503
76391SOL    HW241153   7.408  12.344  12.027 -0.3166  0.0986  0.1580
76392SOL     OW41154   3.857   2.108  13.396 -0.0020  0.1919 -0.5706
76392SOL    HW141155   3.901   2.030  13.430 -0.6546 -0.3167 -0.8666
76392SOL    HW241156   3.802   2.138  13.469 -0.0993  0.1008 -0.6056
76393SOL     OW41157   2.174   8.858   2.313  0.0766  0.5160 -0.0310
76393SOL    HW141158   2.266   8.867   2.290  0.1309  0.2010  0.0535
76393SOL    HW241159   2.129   8.926   2.263  0.3381  0.5759 -0.1821
76394SOL     OW41160   8.227   5.347   1.193 -0.1040 -0.0745 -0.2173
76394SOL    HW141161   8.254   5.282   1.129 -0.3039 -0.0948 -0.2810
76394SOL    HW241162   8.183   5.296   1.261  0.0672 -0.0479 -0.0844
76395SOL     OW41163   4.538  10.469   6.864 -0.2124 -0.1686  0.0522
76395SOL    HW141164   4.497  10.393   6.822 -1.1542 -0.0786  0.7809
76395SOL    HW241165   4.466  10.515   6.907  0.8146 -0.9234  2.8410
76396SOL     OW41166   1.077  12.539   6.383  0.1062 -0.1245 -0.0013
76396SOL    HW141167   1.114  12.490   6.456  0.3608 -0.4836 -0.3635
76396SOL    HW241168   1.152  12.555   6.325 -0.4305 -1.7216 -1.2390
76397SOL     OW41169  12.556   4.005   9.001  0.0865 -0.3687  0.4960
76397SOL    HW141170  12.492   3.979   8.935  0.5820 -1.3880  0.3945
76397SOL    HW241171  12.579   3.923   9.046  1.6661 -0.1208  0.2120
76398SOL     OW41172   8.729   0.170   9.859 -0.1705  0.2164  0.5473
76398SOL    HW141173   8.786   0.211   9.925 -0.3435  0.1077  0.7691
76398SOL    HW241174   8.737   0.076   9.876  0.1482  0.1614  0.1063
76399SOL     OW41175  11.463   5.037   0.648 -0.3186  0.2119 -0.2717
76399SOL    HW141176  11.460   4.950   0.608  1.3423 -0.7002  1.4248
76399SOL    HW241177  11.537   5.080   0.607 -0.9224  0.7096 -0.8524
76400SOL     OW41178   2.973  11.557   8.299 -0.1180 -0.8526 -0.5234
76400SOL    HW141179   2.880  11.574   8.280 -0.0476 -0.6591 -0.7014
76400SOL    HW241180   2.978  11.560   8.394  0.1544  1.6753 -0.5500
76401SOL     OW41181   0.919   9.263  12.583  0.0668  0.3314 -0.1157
76401SOL    HW141182   1.002   9.270  12.629 -0.1351 -0.9002  0.4994
76401SOL    HW241183   0.920   9.176  12.544 -1.0098  0.2006  0.0949
76402SOL     OW41184  10.241  12.388  10.165 -0.0934  0.2769  0.2349
76402SOL    HW141185  10.245  12.307  10.114 -1.0331  0.9788 -0.9896
76402SOL    HW241186  10.332  12.412  10.180  0.2387  0.5350 -1.9210
76403SOL     OW41187  11.235  10.172  13.403 -0.4354  0.2300 -0.0091
76403SOL    HW141188  11.236  10.264  13.375 -2.9845  0.0921 -0.7730
76403SOL    HW241189  11.317  10.136  13.370  1.4327  2.5622  1.7137
76404SOL     OW41190  11.234   8.269   3.219 -0.6735  0.6308  0.1337
76404SOL    HW141191  11.275   8.341   3.171 -0.7402 -0.3589 -1.4800
76404SOL    HW241192  11.308   8.220   3.255 -0.5958  0.9961  0.4803
76405SOL     OW41193   9.487   0.287   0.925  0.0725 -0.0457 -0.1682
76405SOL    HW141194   9.460   0.207   0.879 -1.1912 -0.3265  0.9960
76405SOL    HW241195   9.424   0.296   0.996  1.2225  1.0590  0.7604
76406SOL     OW41196   1.081   6.026  11.817  0.1974  0.2248 -0.0195
76406SOL    HW141197   1.045   5.938  11.828 -1.2959  0.2602 -3.4093
76406SOL    HW241198   1.151   6.015  11.753  0.3466  1.4268 -0.0842
76407SOL     OW41199  10.710  11.179   9.427 -0.4194  0.3153  0.2266
76407SOL    HW141200  10.728  11.230   9.349  0.9258  0.4201  0.5716
76407SOL    HW241201  10.615  11.170   9.429 -0.4561 -0.2172 -1.7390
76408SOL     OW41202   7.405   1.567   7.298 -0.5461 -0.5719  0.5251
76408SOL    HW141203   7.356   1.517   7.233 -0.4830  0.3012 -0.2182
76408SOL    HW241204   7.400   1.658   7.267  3.6820 -0.6784 -1.0389
76409SOL     OW41205   1.057   1.193  14.008 -0.3560 -0.5946 -0.1997
76409SOL    HW141206   1.103   1.209  13.926  0.6373  1.6944  0.7321
76409SOL    HW241207   0.965   1.207  13.987 -0.3603 -2.0489 -1.3374
76410SOL     OW41208  12.474   6.395  12.153  0.9544 -0.0255 -0.6893
76410SOL    HW141209  12.424   6.447  12.215 -1.9188 -1.8036 -1.3442
76410SOL    HW241210  12.440   6.420  12.067  1.6095 -0.8924 -1.2205
76411SOL     OW41211  11.594   2.554  11.401 -0.3109 -0.1389  0.7995
76411SOL    HW141212  11.620   2.501  11.325 -2.5322 -0.7299  0.3824
76411SOL    HW241213  11.663   2.620  11.409 -0.2873  0.3190 -2.1304
76412SOL     OW41214   4.073   8.614   8.417 -0.0333 -0.2368 -0.1061
76412SOL    HW141215   4.067   8.709   8.427 -1.1028 -0.3143  0.1953
76412SOL    HW241216   3.984   8.583   8.434  0.3488 -1.3148  0.0137
76413SOL     OW41217   2.565   8.149  12.631  0.2041  0.4773 -0.0873
76413SOL    HW141218   2.619   8.093  12.687 -1.3559 -2.1166 -0.9949
76413SOL    HW241219   2.596   8.130  12.542 -0.7072  0.6414 -0.4444
76414SOL     OW41220   2.374   4.808   4.157 -0.2427 -0.1626  0.3912
76414SOL    HW141221   2.406   4.723   4.186 -1.0840 -0.3262  0.8754
76414SOL    HW241222   2.453   4.855   4.130  0.2445 -1.0376  0.2541
76415SOL     OW41223   7.131   7.633   2.251  0.2130  0.0930  0.2723
76415SOL    HW141224   7.059   7.581   2.286 -0.6059  0.0855 -1.3300
76415SOL    HW241225   7.171   7.673   2.328 -0.6770 -0.9361  1.3172
76416SOL     OW41226   2.233   1.191  13.449  0.2777  0.4506 -0.0358
76416SOL    HW141227   2.236   1.256  13.519 -0.0831  0.8408 -0.3768
76416SOL    HW241228   2.223   1.243  13.369  1.1419  0.0352 -0.4190
76417SOL     OW41229  13.609   6.075   1.150  0.5974  1.0907  0.0708
76417SOL    HW141230  13.696   6.117   1.148  0.2751  1.7290 -1.7149
76417SOL    HW241231  13.600   6.045   1.241  2.2173  2.0037  0.5817
76418SOL     OW41232   3.514   0.844   2.588  0.2621  0.0612  0.0590
76418SOL    HW141233   3.595   0.831   2.537  0.2573 -0.8431  0.2773
76418SOL    HW241234   3.444   0.829   2.525  0.2617  0.0960  0.0510
76419SOL     OW41235   8.697   2.436   3.054 -0.0089  0.4208 -0.1268
76419SOL    HW141236   8.711   2.362   3.113 -0.2161  0.9937  0.6579
76419SOL    HW241237   8.771   2.432   2.994 -1.5482 -2.2291 -2.0732
76420SOL     OW41238  10.492   4.283   4.741  0.2269  0.4119  0.2358
76420SOL    HW141239  10.493   4.200   4.694  0.6962  0.1578  0.6797
76420SOL    HW241240  10.403   4.316   4.730  0.1919  0.1139 -0.4015
76421SOL     OW41241   1.743   9.416   0.660  0.0876 -0.4359  0.0981
76421SOL    HW141242   1.757   9.323   0.678 -0.6880 -0.9259 -1.6664
76421SOL    HW241243   1.830   9.451   0.642  0.1673 -1.2965 -1.2638
76422SOL     OW41244   7.453   0.654   5.717 -0.9351 -0.2504 -0.0439
76422SOL    HW141245   7.380   0.612   5.763 -0.3717  1.0157  2.1486
76422SOL    HW241246   7.412   0.714   5.655 -1.7718 -0.1996  0.5491
76423SOL     OW41247  11.540   8.220   7.100  0.3744  0.3184  0.0425
76423SOL    HW141248  11.500   8.289   7.153 -0.7974 -0.0627 -0.3348
76423SOL    HW241249  11.495   8.225   7.016  0.5718 -0.6417 -0.1292
76424SOL     OW41250   8.487   1.324  12.105  0.0120  0.0589  0.1514
76424SOL    HW141251   8.458   1.325  12.196 -1.1952  1.6849 -0.2071
76424SOL    HW241252   8.577   1.357  12.108  0.5572 -1.3786  0.8740
76425SOL     OW41253   5.114  12.938   0.256 -0.0294  0.3298 -0.1079
76425SOL    HW141254   5.085  12.984   0.335 -1.0576 -0.2540 -0.1314
76425SOL    HW241255   5.063  12.977   0.186 -0.8821 -0.7915 -0.1357
76426SOL     OW41256   7.733  13.134  13.819  0.1975  0.3454  0.2585
76426SOL    HW141257   7.719  13.118  13.726 -0.5779  1.6469  0.1360
76426SOL    HW241258   7.688  13.061  13.863  1.7732 -1.0836 -0.3721
76427SOL     OW41259  12.452   1.944   6.249 -0.2747  1.0199 -0.3577
76427SOL    HW141260  12.368   1.919   6.212 -0.9877 -1.9282  2.6916
76427SOL    HW241261  12.430   1.986   6.332  1.2632  1.8353 -0.3208
76428SOL     OW41262  13.321  14.005   7.257  0.3011  0.7827  0.1191
76428SOL    HW141263  13.295  14.085   7.303 -0.3264  1.0845 -0.7280
76428SOL    HW241264  13.321  14.030   7.164  0.8848  0.0148 -0.0954
76429SOL     OW41265   0.804  11.613   8.256  0.1848  0.8516 -0.2679
76429SOL    HW141266   0.859  11.649   8.326 -0.7237  0.7503  0.5127
76429SOL    HW241267   0.795  11.520   8.279  1.6673  0.2958 -1.7161
76430SOL     OW41268  12.771   8.915   0.102 -0.5725  0.3329  0.3236
76430SOL    HW141269  12.821   8.980   0.151  0.5693  0.6754 -1.2336
76430SOL    HW241270  12.740   8.961   0.024 -0.1959 -0.8210 -0.5378
76431SOL     OW41271  13.810  11.476   9.643  0.1520  0.4738  0.1326
76431SOL    HW141272  13.744  11.493   9.577 -1.1960 -0.0981  1.2821
76431SOL    HW241273  13.872  11.549   9.635 -1.0239  1.4381 -0.4562
76432SOL     OW41274   0.991  11.065   2.573  0.1677 -0.1650  0.4266
76432SOL    HW141275   0.931  11.049   2.645 -0.5270  1.4007  0.2166
76432SOL    HW241276   0.935  11.071   2.495  0.7471 -0.2459 -0.0106
76433SOL     OW41277   4.860  12.483  10.679 -0.4866 -0.4127 -0.1723
76433SOL    HW141278   4.906  12.552  10.727  0.8066  0.6412 -2.7623
76433SOL    HW241279   4.779  12.469  10.729 -0.5039  2.5237  0.7857
76434SOL     OW41280   2.222   9.239  13.553 -0.1320  0.6444  0.8275
76434SOL    HW141281   2.150   9.183  13.524 -0.6101  1.5405  0.2267
76434SOL    HW241282   2.284   9.179  13.595 -0.4286 -0.3978 -0.1669
76435SOL     OW41283   4.198   4.211   5.568 -0.2830 -0.2022 -0.1650
76435SOL    HW141284   4.167   4.279   5.509 -1.9867  0.0039  0.9154
76435SOL    HW241285   4.151   4.132   5.540 -1.2724 -0.0530  1.0207
76436SOL     OW41286   5.291   3.213   6.100 -0.0069 -0.6218 -0.2789
76436SOL    HW141287   5.308   3.148   6.168  2.8842  0.6384  0.3326
76436SOL    HW241288   5.334   3.178   6.022 -1.2703 -0.9321 -0.8678
76437SOL     OW41289  13.247   1.947  11.275 -0.0709  0.4258 -0.3994
76437SOL    HW141290  13.326   1.975  11.228  1.8922  0.6316  2.7057
76437SOL    HW241291  13.258   1.853  11.286 -1.3229  0.1084 -1.6619
76438SOL     OW41292   8.874   9.499   6.794  0.5079  0.4135  0.7019
76438SOL    HW141293   8.940   9.431   6.808  0.6865  0.6371  0.9533
76438SOL    HW241294   8.923   9.572   6.756  0.1996  0.1657 -0.1991
76439SOL     OW41295   6.638   3.180   7.462  0.4788 -0.5548  0.3492
76439SOL    HW141296   6.699   3.128   7.410  0.7454  1.7605 -1.9020
76439SOL    HW241297   6.689   3.256   7.489 -1.0689  0.9598 -0.7667
76440SOL     OW41298   1.865   0.733   1.741 -0.4491  0.0926 -0.2483
76440SOL    HW141299   1.898   0.690   1.663 -0.1700 -1.5097  0.7081
76440SOL    HW241300   1.804   0.670   1.780  0.3129  0.3267  1.4457
76441SOL     OW41301   1.734   2.142   0.356  0.1435 -0.0063 -0.1495
76441SOL    HW141302   1.657   2.197   0.340  0.7024  0.2726 -2.2642
76441SOL    HW241303   1.699   2.063   0.398 -1.1759  0.4838 -0.2796
76442SOL     OW41304  11.356   6.639  13.050 -0.0910  0.2289  0.3212
76442SOL    HW141305  11.305   6.719  13.038  0.1106  0.2651 -0.3567
76442SOL    HW241306  11.386   6.617  12.962  1.4985  0.4900  0.7693
76443SOL     OW41307   9.006   2.864   8.408 -0.8377 -0.0056  0.0856
76443SOL    HW141308   9.035   2.778   8.442  0.5695  0.0913 -0.7759
76443SOL    HW241309   8.999   2.919   8.487  0.9740 -0.1785  0.4328
76444SOL     OW41310   8.908   7.756   9.087 -0.2323 -0.0114  0.5526
76444SOL    HW141311   8.975   7.692   9.111  0.9036  1.2584  0.9225
76444SOL    HW241312   8.897   7.810   9.165 -0.1619  1.0665 -0.1578
76445SOL     OW41313   3.624   1.404  11.789 -0.4146  0.1716 -0.1310
76445SOL    HW141314   3.583   1.441  11.711  0.4481 -1.5616 -1.4772
76445SOL    HW241315   3.621   1.310  11.775  1.0256 -0.1191  1.2724
76446SOL     OW41316   7.016   0.313  13.468 -0.3839  0.2821  0.0032
76446SOL    HW141317   7.101   0.352  13.486 -0.5460  0.5786  0.1237
76446SOL    HW241318   6.978   0.367  13.399 -0.9448  0.8329  0.7179
76447SOL     OW41319  12.662  12.718  12.574  0.6659 -0.2768 -0.0615
76447SOL    HW141320  12.635  12.710  12.483 -0.9562  0.0754  0.3588
76447SOL    HW241321  12.708  12.636  12.592  0.0251 -0.8368 -0.8840
76448SOL     OW41322  10.273   4.598   8.840 -0.1341  0.0591 -0.2674
76448SOL    HW141323  10.195   4.650   8.819  0.3585  0.0285 -2.3857
76448SOL    HW241324  10.280   4.603   8.935 -2.0186  1.0765 -0.1319
76449SOL     OW41325   5.821  12.858   7.913  0.0089  0.2335  0.1615
76449SOL    HW141326   5.850  12.940   7.955  0.1911  0.4836 -0.4434
76449SOL    HW241327   5.727  12.870   7.900  0.3219  1.1089 -1.5598
76450SOL     OW41328   8.509   5.046  11.471 -0.0111  0.0403  0.1736
76450SOL    HW141329   8.520   4.962  11.516 -1.6353  0.4993  1.5762
76450SOL    HW241330   8.592   5.092  11.483  1.3938 -1.7985 -1.7531
76451SOL     OW41331   5.275  13.207   7.662  0.0056  0.4017 -0.0124
76451SOL    HW141332   5.218  13.166   7.727 -0.6086  0.5675 -0.4441
76451SOL    HW241333   5.227  13.200   7.580  0.5709  0.6192 -0.3651
76452SOL     OW41334   9.923   5.147   2.571 -0.2087  0.3175 -0.1790
76452SOL    HW141335   9.870   5.073   2.601  0.5931 -0.6187 -0.9946
76452SOL    HW241336   9.902   5.155   2.478  1.4762 -0.4634 -0.6662
76453SOL     OW41337  12.751   4.325   8.925 -0.7446  0.3518  0.0668
76453SOL    HW141338  12.831   4.349   8.877 -0.0681 -2.8600 -0.6029
76453SOL    HW241339  12.686   4.309   8.857 -0.9836 -0.2367  0.4283
76454SOL     OW41340  13.213   0.747   7.591 -0.3588 -0.4420 -0.3939
76454SOL    HW141341  13.293   0.788   7.623 -0.8876  0.5199 -0.2935
76454SOL    HW241342  13.217   0.658   7.626  1.0956 -0.6993 -1.1292
76455SOL     OW41343  12.977   9.392   2.787 -0.2388 -0.2886  0.4726
76455SOL    HW141344  12.926   9.446   2.727  0.9761  0.0427 -0.2994
76455SOL    HW241345  13.066   9.427   2.781  0.3177 -1.5615  0.9149
76456SOL     OW41346  10.743  14.033   8.212 -0.2578 -0.1608 -0.0812
76456SOL    HW141347  10.709  14.010   8.299  0.9668  1.0681  0.7782
76456SOL    HW241348  10.686  14.104   8.182  0.4600  0.7510  0.6202
76457SOL     OW41349   4.015   7.708   8.415 -0.1246 -0.0741 -0.1525
76457SOL    HW141350   3.961   7.663   8.350  0.8490  0.8347 -1.6414
76457SOL    HW241351   4.096   7.728   8.369  1.7440 -1.8303  2.1424
76458SOL     OW41352   4.684   8.631   2.895 -0.6610 -0.3003 -0.1324
76458SOL    HW141353   4.623   8.558   2.903 -1.2864  0.1818 -0.3279
76458SOL    HW241354   4.642   8.690   2.831 -0.1160  0.1635 -0.0731
76459SOL     OW41355   8.630   0.248   6.988  0.1035  0.0838  0.2212
76459SOL    HW141356   8.693   0.301   7.037 -0.5337 -0.6261  1.8550
76459SOL    HW241357   8.634   0.283   6.899  0.6288  2.0304  0.9604
76460SOL     OW41358  10.189  10.034   1.572  0.0679 -0.0765  0.0243
76460SOL    HW141359  10.096  10.012   1.577  0.1048 -0.1431  0.4133
76460SOL    HW241360  10.194  10.102   1.504 -0.4458  0.9111  0.9425
76461SOL     OW41361   8.966  11.740   1.357  0.2322  0.6621 -0.2351
76461SOL    HW141362   8.924  11.777   1.280  0.1538 -0.7545 -0.9112
76461SOL    HW241363   9.011  11.813   1.398  1.5859  1.1551 -2.4843
76462SOL     OW41364  11.616   5.653   1.671  0.8661  0.3314 -0.0569
76462SOL    HW141365  11.647   5.699   1.749  1.0021 -0.2567  0.2466
76462SOL    HW241366  11.554   5.713   1.631 -0.2522  0.1106  1.2582
76463SOL     OW41367   2.637   4.168   9.524  0.0175 -0.5192 -0.4893
76463SOL    HW141368   2.732   4.178   9.529 -0.1569  0.7967  1.2557
76463SOL    HW241369   2.604   4.258   9.519 -1.1821 -0.7980  1.3618
76464SOL     OW41370   5.166  11.441   4.336  0.1394 -0.5117 -0.1695
76464SOL    HW141371   5.140  11.351   4.318 -1.0831 -0.7900  2.4454
76464SOL    HW241372   5.229  11.434   4.408  0.8562  0.6852 -0.6417
76465SOL     OW41373  13.348  12.085  13.677  0.0186  0.3624  0.0632
76465SOL    HW141374  13.308  12.009  13.722 -2.1668  1.5677  0.3161
76465SOL    HW241375  13.325  12.159  13.732  1.6560  1.2931 -0.4733
76466SOL     OW41376   3.384   2.889  11.320 -0.1239  0.3058 -0.4724
76466SOL    HW141377   3.372   2.965  11.377  0.9535  0.6026 -0.6215
76466SOL    HW241378   3.307   2.890  11.263 -0.7549  0.5318  0.3683
76467SOL     OW41379   6.192   0.796   7.988 -0.5131  0.3113 -0.7324
76467SOL    HW141380   6.201   0.815   7.895  1.7124 -0.3086 -0.7032
76467SOL    HW241381   6.201   0.701   7.994 -1.0790  0.3029  0.0725
76468SOL     OW41382   4.698   6.231  12.335 -0.3734  0.1479 -0.2811
76468SOL    HW141383   4.738   6.304  12.382  1.2411 -1.7576  1.5504
76468SOL    HW241384   4.756   6.217  12.260  2.3884 -2.1872  2.0148
76469SOL     OW41385   7.037  13.331   2.228  0.8240  0.2918 -0.4159
76469SOL    HW141386   7.061  13.424   2.226 -1.4757  0.9675 -0.1571
76469SOL    HW241387   7.080  13.293   2.151  0.0955  2.0673 -1.7735
76470SOL     OW41388  13.421   2.429   0.830 -0.1879 -0.0021 -0.9098
76470SOL    HW141389  13.453   2.491   0.895  1.4456  0.0282 -1.6969
76470SOL    HW241390  13.341   2.470   0.796 -0.7825  0.2185  0.6808
76471SOL     OW41391   3.079   3.861   6.409 -0.0387 -0.1468 -0.0265
76471SOL    HW141392   3.017   3.792   6.385 -0.9174  0.2173  1.0855
76471SOL    HW241393   3.116   3.890   6.326 -1.5762 -0.1831 -0.7697
76472SOL     OW41394  11.450   7.093   3.814  0.5115  0.1433 -0.0450
76472SOL    HW141395  11.451   7.047   3.730  1.7284 -1.6420  0.8657
76472SOL    HW241396  11.510   7.042   3.870  0.6747  1.9497  1.5481
76473SOL     OW41397  12.466  12.855   5.758  0.3305  0.1844  0.0853
76473SOL    HW141398  12.387  12.819   5.797  0.9924 -0.9450  0.4328
76473SOL    HW241399  12.538  12.817   5.809  1.1470  0.2073 -1.0060
76474SOL     OW41400   7.219  11.952   2.414  0.2238  0.0518  0.1755
76474SOL    HW141401   7.146  11.929   2.471  0.5252  2.3351  1.6481
76474SOL    HW241402   7.227  11.879   2.353 -2.2719 -0.9597  0.9490
76475SOL     OW41403   4.221   7.826   2.418  0.1216  0.3554 -0.0800
76475SOL    HW141404   4.303   7.866   2.390  0.6616 -0.9083 -0.3467
76475SOL    HW241405   4.246   7.758   2.480 -0.7485  0.1518  0.0701
76476SOL     OW41406   4.327   5.393   2.170 -0.0492  0.1039 -0.6486
76476SOL    HW141407   4.246   5.442   2.188  0.3756  1.3994 -2.0398
76476SOL    HW241408   4.374   5.394   2.253 -0.2946  1.6513 -0.4865
76477SOL     OW41409   4.429  11.722   9.865 -0.1560 -0.0708 -0.4899
76477SOL    HW141410   4.513  11.682   9.844  0.4531  0.0355  1.6184
76477SOL    HW241411   4.366  11.650   9.858  0.1376 -0.2498 -1.6137
76478SOL     OW41412   0.014   8.415   7.456  0.0787  0.1045  0.4771
76478SOL    HW141413  -0.007   8.471   7.531 -3.1151  0.1095 -0.2733
76478SOL    HW241414   0.012   8.326   7.492  0.4166  0.2037  0.7481
76479SOL     OW41415   0.076   9.825   8.507  0.8860 -0.2523  0.4410
76479SOL    HW141416   0.040   9.745   8.469 -1.6789  1.1122 -0.2291
76479SOL    HW241417   0.165   9.801   8.534 -0.0538 -3.5149  1.0324
76480SOL     OW41418   3.572  11.639   6.826 -0.0075 -0.1270 -0.2134
76480SOL    HW141419   3.503  11.581   6.857 -1.0597  0.3826 -1.4828
76480SOL    HW241420   3.636  11.642   6.898 -1.4044 -0.4421  1.0900
76481SOL     OW41421   5.118   7.186   7.176 -0.4416 -0.0199  1.0736
76481SOL    HW141422   5.210   7.171   7.154  0.4424  1.8892  3.0067
76481SOL    HW241423   5.097   7.119   7.241 -0.7755 -1.0903 -0.1045
76482SOL     OW41424   0.319  12.971   3.184  0.3863 -0.0976 -0.3868
76482SOL    HW141425   0.236  12.984   3.140  0.7902  1.3227 -0.8101
76482SOL    HW241426   0.329  13.048   3.240  1.8439  0.2809 -1.0913
76483SOL     OW41427  13.151   2.927   0.303  0.0131  0.0955  0.4821
76483SOL    HW141428  13.079   2.947   0.244  0.9635 -0.2867 -0.8380
76483SOL    HW241429  13.164   3.007   0.353 -0.3905  0.6400 -0.2669
76484SOL     OW41430   0.607  13.224   7.441 -0.2275 -0.0044  0.4122
76484SOL    HW141431   0.610  13.135   7.407 -0.1989  0.1955 -0.1044
76484SOL    HW241432   0.529  13.262   7.401 -0.3855  0.1274  0.8327
76485SOL     OW41433  11.912   5.843   6.723  0.0655 -0.1394 -0.1328
76485SOL    HW141434  11.896   5.915   6.662  0.8305  0.4871  0.3889
76485SOL    HW241435  12.001   5.814   6.701  1.1052  1.3073  1.8664
76486SOL     OW41436  13.236   5.309   8.852  0.3264  0.5421  0.4988
76486SOL    HW141437  13.202   5.221   8.870  1.2984  0.2571  1.0049
76486SOL    HW241438  13.169   5.349   8.797 -0.2781 -0.4067  0.5093
76487SOL     OW41439  13.822  10.960   4.904  0.2933  0.1263  0.1770
76487SOL    HW141440  13.888  10.959   4.835 -0.3830 -0.8637 -0.4869
76487SOL    HW241441  13.871  10.978   4.984  1.2512  0.1610 -0.3998
76488SOL     OW41442   0.316   8.920  13.766  0.6249 -0.5952 -0.2163
76488SOL    HW141443   0.315   8.864  13.688  2.3606  2.1315 -2.3968
76488SOL    HW241444   0.233   8.966  13.763 -0.2383 -1.9839  0.8536
76489SOL     OW41445   9.894   9.963   4.008 -0.6238  0.0996  0.3926
76489SOL    HW141446   9.946  10.022   4.062  1.8265 -0.6823 -0.9732
76489SOL    HW241447   9.887  10.007   3.923  0.2671 -0.9953 -0.2877
76490SOL     OW41448   4.042  11.011   5.459 -0.1258  0.2583  0.1910
76490SOL    HW141449   4.071  11.096   5.492  0.4137 -0.0587  0.5492
76490SOL    HW241450   3.999  11.031   5.376 -2.0636  1.1503  1.3392
76491SOL     OW41451  10.032   7.217   2.082  0.1894  0.1783 -0.3115
76491SOL    HW141452  10.093   7.185   2.149  0.7432  1.4781 -0.1748
76491SOL    HW241453   9.998   7.299   2.117 -1.1469 -0.1895 -0.6943
76492SOL     OW41454   4.074  13.587   6.447 -0.4193  0.3385 -1.0479
76492SOL    HW141455   4.107  13.624   6.365  0.4666  0.4506 -0.6452
76492SOL    HW241456   4.148  13.591   6.507 -1.6269  2.1683  0.4266
76493SOL     OW41457   8.550   2.258   9.431  0.4931 -0.1251  0.3994
76493SOL    HW141458   8.504   2.342   9.439 -1.2377 -1.0114  0.3367
76493SOL    HW241459   8.638   2.276   9.464  1.5484  2.7239 -3.2984
76494SOL     OW41460   9.792   7.612   7.029 -0.5153 -0.0906  0.1324
76494SOL    HW141461   9.700   7.641   7.025 -0.6799 -0.7091 -0.7816
76494SOL    HW241462   9.812   7.582   6.941  0.8728  0.9012  0.0740
76495SOL     OW41463  12.379   7.591   2.443  0.0291  0.0358 -0.5286
76495SOL    HW141464  12.393   7.684   2.426 -3.4049  0.8784  0.3584
76495SOL    HW241465  12.309   7.566   2.382 -0.3537 -1.4556  0.4621
76496SOL     OW41466   2.868   4.213   6.407 -0.6264  0.4148 -0.1163
76496SOL    HW141467   2.913   4.142   6.362  0.8117  1.0346  0.2606
76496SOL    HW241468   2.826   4.263   6.337  0.4257  0.5882 -0.6461
76497SOL     OW41469  10.627   8.219   3.924 -0.3483  0.5369 -0.1191
76497SOL    HW141470  10.599   8.255   3.840  1.0907 -0.0112 -0.8686
76497SOL    HW241471  10.704   8.166   3.903 -0.1978  0.0668  1.4927
76498SOL     OW41472   2.028   7.546  10.613 -0.4882 -0.0512 -0.0535
76498SOL    HW141473   2.055   7.489  10.541  0.2591  1.2763 -0.8714
76498SOL    HW241474   2.100   7.542  10.676  0.2121  1.0253 -0.7562
76499SOL     OW41475   0.102   8.073  13.278 -0.1008  0.2662  0.6160
76499SOL    HW141476   0.179   8.032  13.316 -0.8300  0.8070  2.8469
76499SOL    HW241477   0.068   8.008  13.217  0.9119 -0.8580  1.2029
76500SOL     OW41478  12.503  13.626   6.632 -0.3739 -0.0064 -0.7787
76500SOL    HW141479  12.529  13.536   6.611 -0.8884 -0.7321  1.4136
76500SOL    HW241480  12.415  13.617   6.669 -1.4913  1.7334 -2.8209
76501SOL     OW41481  10.351   6.692   0.339 -0.1451 -0.7932  0.1927
76501SOL    HW141482  10.410   6.679   0.413  0.4964  1.0149  0.0521
76501SOL    HW241483  10.320   6.782   0.348 -0.0217 -0.5136 -1.7524
76502SOL     OW41484   1.057  12.083  12.968 -0.0078 -0.5479 -0.0485
76502SOL    HW141485   1.033  12.146  12.900  0.5114 -1.1375 -0.7961
76502SOL    HW241486   0.993  12.012  12.958 -1.6925  0.5859  1.9210
76503SOL     OW41487   7.631   2.318   4.789 -0.0653  0.7306 -0.3076
76503SOL    HW141488   7.690   2.323   4.864  0.7359  0.5614 -0.9200
76503SOL    HW241489   7.574   2.395   4.799 -0.4657  0.3108  0.8662
76504SOL     OW41490   0.044  10.949   7.946  0.2301 -0.0047 -0.8058
76504SOL    HW141491   0.012  11.037   7.966 -1.4582 -0.5760 -0.8528
76504SOL    HW241492   0.064  10.911   8.032  1.9956  0.7410 -0.8313
76505SOL     OW41493  12.846  13.154   7.634  0.1105  0.4785  0.1900
76505SOL    HW141494  12.933  13.192   7.619  0.0178  0.7469  0.3346
76505SOL    HW241495  12.817  13.192   7.716 -0.7938  1.5605 -0.6032
76506SOL     OW41496   1.735  13.351   0.815  0.0837  0.5254 -0.3854
76506SOL    HW141497   1.655  13.320   0.772 -0.5539 -0.4027  1.3693
76506SOL    HW241498   1.725  13.323   0.906  1.7452  1.7122  0.1936
76507SOL     OW41499  10.036   8.519  10.955 -0.0596  0.1176 -0.0429
76507SOL    HW141500  10.031   8.562  10.870 -0.9930  0.1989  0.0326
76507SOL    HW241501  10.118   8.471  10.954  1.2906  2.2812  0.0630
76508SOL     OW41502   4.456   7.764   7.784  0.1675 -0.2709  0.4713
76508SOL    HW141503   4.362   7.778   7.770  0.1772 -1.5540 -1.0776
76508SOL    HW241504   4.477   7.686   7.734  1.6108 -1.4307  2.6887
76509SOL     OW41505   7.999   2.823   6.464  0.1707 -0.8325  0.0322
76509SOL    HW141506   7.985   2.732   6.488  0.4413 -1.3459 -1.6442
76509SOL    HW241507   7.922   2.847   6.413  1.5368 -1.2215 -2.4035
76510SOL     OW41508   8.714  13.431  11.765  0.1019 -0.2166  0.6758
76510SOL    HW141509   8.774  13.395  11.830 -1.1506 -0.1861  1.8857
76510SOL    HW241510   8.677  13.354  11.722  0.6597 -0.2452  0.2379
76511SOL     OW41511  13.924   9.385  10.899  0.1023 -0.0330 -0.5186
76511SOL    HW141512  13.972   9.453  10.945 -1.6367  0.4883  0.6303
76511SOL    HW241513  13.884   9.333  10.969 -0.9379 -0.4699 -1.4154
76512SOL     OW41514  11.476   8.677   9.448 -0.5817 -0.0777 -0.3550
76512SOL    HW141515  11.424   8.731   9.508 -1.2428 -0.8691 -0.1970
76512SOL    HW241516  11.416   8.657   9.376 -0.3724 -0.6920 -0.3596
76513SOL     OW41517  10.657   4.737   3.283  0.0147  0.5923 -0.7884
76513SOL    HW141518  10.594   4.786   3.230 -0.5359  1.1242  0.3198
76513SOL    HW241519  10.613   4.723   3.366  1.4261  1.1829  0.1140
76514SOL     OW41520  10.099   9.274   7.011  0.4161  0.3311  0.6521
76514SOL    HW141521  10.077   9.185   6.984 -1.9856  0.4614  1.9461
76514SOL    HW241522  10.161   9.305   6.944  0.9649 -2.1134 -0.0577
76515SOL     OW41523   5.698   6.673   5.328  0.0767  0.3343  0.0757
76515SOL    HW141524   5.670   6.709   5.244  1.0754  1.3459  0.1504
76515SOL    HW241525   5.786   6.707   5.340 -0.0463  0.1894  1.5383
76516SOL     OW41526   8.386   0.655   1.035 -0.3849  0.4460  0.1413
76516SOL    HW141527   8.377   0.562   1.014 -0.6160  0.6990 -0.9660
76516SOL    HW241528   8.298   0.683   1.059  0.0434 -0.0520  2.5078
76517SOL     OW41529   2.615   6.753   0.288 -0.6288  0.5312 -0.1298
76517SOL    HW141530   2.690   6.742   0.229 -0.4039  1.6483 -0.0777
76517SOL    HW241531   2.566   6.672   0.280  0.5124 -0.1594 -0.2737
76518SOL     OW41532   3.995   2.408   3.276  0.2673 -0.4035  0.3668
76518SOL    HW141533   3.948   2.448   3.350  0.6192 -0.1466  0.4541
76518SOL    HW241534   4.017   2.320   3.307  2.8376  0.5978  1.6625
76519SOL     OW41535   3.019   5.287  11.190 -0.7988  0.0658  0.1307
76519SOL    HW141536   2.939   5.305  11.141  1.0153  2.1064 -2.3849
76519SOL    HW241537   3.079   5.356  11.163  1.7908 -1.2780  2.0235
76520SOL     OW41538   5.837  10.356  10.730  0.1067 -0.3655 -0.3362
76520SOL    HW141539   5.888  10.278  10.708 -0.1502  0.0092 -2.4527
76520SOL    HW241540   5.824  10.350  10.825  0.4808 -2.6538 -0.3707
76521SOL     OW41541   9.015  13.688  10.703 -0.1152  0.0852 -0.5038
76521SOL    HW141542   9.026  13.715  10.612  0.4833  1.6446 -0.0020
76521SOL    HW241543   9.097  13.713  10.746  0.2631 -2.0379  0.1819
76522SOL     OW41544   4.313   1.838  10.949  0.5867 -0.5103  0.0045
76522SOL    HW141545   4.285   1.904  11.013 -1.1520  0.6485 -1.8257
76522SOL    HW241546   4.357   1.888  10.880  2.6046 -1.7546  0.3118
76523SOL     OW41547   7.130   5.721  11.114 -0.0557 -0.0271  0.3147
76523SOL    HW141548   7.082   5.758  11.040  1.9625 -0.0588 -1.0815
76523SOL    HW241549   7.135   5.792  11.178  1.5785  1.3580 -1.2576
76524SOL     OW41550   1.978  11.316   3.933 -0.2994  0.0760  1.0134
76524SOL    HW141551   1.940  11.305   3.846  0.9364  2.0473  0.1467
76524SOL    HW241552   1.909  11.359   3.984 -0.4215  0.5818  0.4398
76525SOL     OW41553   8.503   2.503  13.011 -0.1861 -0.0954  0.1408
76525SOL    HW141554   8.532   2.439  13.076 -0.8123 -0.5508 -0.0134
76525SOL    HW241555   8.408   2.491  13.007 -0.2957  0.7368 -0.0080
76526SOL     OW41556  11.488   0.396  12.007 -0.7716 -0.1868  0.2239
76526SOL    HW141557  11.515   0.345  12.083  1.6889 -0.5376 -0.8112
76526SOL    HW241558  11.450   0.332  11.947  0.4712 -0.5029 -0.2455
76527SOL     OW41559   5.934  12.219   5.457  0.1844 -0.3576  0.2206
76527SOL    HW141560   6.013  12.222   5.402 -0.2165  0.2897 -0.3396
76527SOL    HW241561   5.964  12.180   5.540  1.1723  0.2182  0.1533
76528SOL     OW41562  10.674  11.745   3.608  0.0853  0.7148  0.0726
76528SOL    HW141563  10.753  11.771   3.656  0.1585 -0.5722  0.6832
76528SOL    HW241564  10.630  11.828   3.588  1.3996  1.4314  0.0279
76529SOL     OW41565   1.420   7.520   3.856  0.4867  0.6469  0.2884
76529SOL    HW141566   1.493   7.536   3.796  0.2699 -0.1856 -0.2112
76529SOL    HW241567   1.397   7.607   3.890  0.7566  1.1056 -0.6661
76530SOL     OW41568   1.388   9.270  10.875  0.3622 -0.0239 -0.3688
76530SOL    HW141569   1.432   9.210  10.814  1.2194 -0.4087  0.5992
76530SOL    HW241570   1.458   9.329  10.905  0.1475 -0.3654  0.8608
76531SOL     OW41571  13.206   6.567   3.590  0.2909  0.3534 -0.4971
76531SOL    HW141572  13.245   6.652   3.608  0.4402  0.2033 -0.1005
76531SOL    HW241573  13.249   6.538   3.509 -0.5724  1.1429 -1.2617
76532SOL     OW41574  11.883   2.403   9.524  0.0510  0.3689  0.3157
76532SOL    HW141575  11.788   2.413   9.519 -0.0578 -0.1527  1.1036
76532SOL    HW241576  11.916   2.452   9.449 -0.7499  1.7428  0.8221
76533SOL     OW41577   5.299   4.235  13.032 -0.0428  0.0024 -0.2208
76533SOL    HW141578   5.293   4.154  12.981 -0.0446  0.1194 -0.4061
76533SOL    HW241579   5.218   4.282  13.012 -1.6718 -1.4163  2.4277
76534SOL     OW41580  10.692   1.247  12.919 -0.2662  0.1049  0.4755
76534SOL    HW141581  10.734   1.333  12.913  1.9526 -0.7195  2.6360
76534SOL    HW241582  10.616   1.262  12.975 -0.6803  0.8775 -0.2601
76535SOL     OW41583  10.506   7.374   8.938  0.0702 -0.2840  0.1225
76535SOL    HW141584  10.460   7.290   8.933 -0.0522 -0.1818 -0.5140
76535SOL    HW241585  10.516   7.390   9.032 -1.2285 -0.2935  0.2836
76536SOL     OW41586   0.608  11.090  11.396 -0.0396  0.0497  0.1327
76536SOL    HW141587   0.624  11.146  11.473  1.7783  0.2626 -0.3365
76536SOL    HW241588   0.575  11.150  11.330 -1.1562 -0.0481  0.5777
76537SOL     OW41589  10.589   5.548   6.803  0.0105 -0.0752 -0.4698
76537SOL    HW141590  10.676   5.560   6.840 -0.0382 -0.2517 -0.2974
76537SOL    HW241591  10.603   5.548   6.708 -0.0382  1.7397 -0.5094
76538SOL     OW41592   3.727   4.912   6.500 -0.0380  0.2684 -0.9263
76538SOL    HW141593   3.679   4.842   6.545 -1.2077  1.4411 -0.2895
76538SOL    HW241594   3.751   4.873   6.416 -0.1078 -1.1028 -0.3452
76539SOL     OW41595   1.999   5.714   5.165  0.4812  0.7414  0.4699
76539SOL    HW141596   1.957   5.758   5.092 -0.0105 -0.8508 -0.2460
76539SOL    HW241597   1.947   5.635   5.179 -0.1367  1.5457  3.2968
76540SOL     OW41598   4.223   4.439  11.985  0.0211 -0.1733  0.0181
76540SOL    HW141599   4.250   4.434  12.077 -0.1227  0.9039  0.1331
76540SOL    HW241600   4.246   4.528  11.958  0.8474 -0.7524 -1.2475
76541SOL     OW41601   3.342   5.235  10.345 -0.0231 -0.0183  0.1670
76541SOL    HW141602   3.292   5.306  10.304  1.1375  0.7703  0.0661
76541SOL    HW241603   3.407   5.211  10.279 -0.8842 -1.7353 -0.1005
76542SOL     OW41604  12.519   9.287   8.086 -0.7016  0.2125 -0.1395
76542SOL    HW141605  12.506   9.255   7.997 -0.6426 -0.8983  0.2393
76542SOL    HW241606  12.438   9.335   8.106  0.0207  2.0959 -1.4306
76543SOL     OW41607   7.466   0.395   9.981 -0.0925  0.0351 -0.5403
76543SOL    HW141608   7.416   0.366  10.057  2.8054 -1.7732  0.8534
76543SOL    HW241609   7.546   0.432  10.018  0.8091  0.3597 -2.6928
76544SOL     OW41610  13.038  10.404  12.096 -0.2163 -0.0227 -0.0534
76544SOL    HW141611  12.949  10.417  12.129  0.2696  1.2296  0.8569
76544SOL    HW241612  13.032  10.424  12.003 -0.5083  2.2114  0.3820
76545SOL     OW41613   0.199   7.461  12.083  0.2117  0.4030 -0.5863
76545SOL    HW141614   0.178   7.541  12.131 -0.3616  0.2643 -0.5949
76545SOL    HW241615   0.115   7.416  12.075  1.0841 -2.3155  3.1572
76546SOL     OW41616   4.912  13.391   4.168 -0.1753  0.4898  0.5362
76546SOL    HW141617   5.007  13.404   4.158 -0.5202  1.8844 -1.3025
76546SOL    HW241618   4.891  13.436   4.249  0.4874  1.6898  0.0683
76547SOL     OW41619  10.588   7.562   9.571 -0.0270  0.5012  0.4695
76547SOL    HW141620  10.592   7.639   9.628  1.2524  0.6782  0.1693
76547SOL    HW241621  10.677   7.526   9.573 -0.2669 -0.1799 -0.4686
76548SOL     OW41622  12.279  13.435   1.652 -0.4259 -0.2381 -0.5510
76548SOL    HW141623  12.201  13.490   1.649  0.4981  1.3374  1.5593
76548SOL    HW241624  12.338  13.471   1.586  0.1747  1.4362  0.8201
76549SOL     OW41625   3.613   4.120   4.541  0.0953 -0.4196 -0.0065
76549SOL    HW141626   3.587   4.173   4.466  1.6670  1.2429  0.5410
76549SOL    HW241627   3.708   4.122   4.540  0.2175  1.0928  2.9204
76550SOL     OW41628   1.648  10.599   9.249  0.1662 -0.0213 -0.0397
76550SOL    HW141629   1.711  10.670   9.240 -0.1638  0.0559 -2.2977
76550SOL    HW241630   1.585  10.631   9.314  0.2223  1.6182 -0.7476
76551SOL     OW41631   9.431  13.413  12.499  0.2673 -0.2930  0.6838
76551SOL    HW141632   9.517  13.371  12.495  0.4025  0.0757 -0.6500
76551SOL    HW241633   9.406  13.425  12.408  0.0653  2.1724  0.9980
76552SOL     OW41634   3.846   4.911   3.464 -0.4914  0.0699 -0.0157
76552SOL    HW141635   3.789   4.896   3.539  0.2385  4.8136  1.8053
76552SOL    HW241636   3.801   4.977   3.412  1.5555  1.0823 -0.5987
76553SOL     OW41637   2.802  12.597  13.122  0.3821  0.2466  0.4562
76553SOL    HW141638   2.858  12.565  13.051 -0.7129 -0.3963 -0.1637
76553SOL    HW241639   2.719  12.550  13.109  0.6974 -1.3153  3.2578
76554SOL     OW41640   8.380   9.232  12.432  0.3951 -0.2213  0.3058
76554SOL    HW141641   8.375   9.144  12.394  0.5453  0.3217 -1.0396
76554SOL    HW241642   8.295   9.246  12.472 -0.8929  0.2195 -2.3212
76555SOL     OW41643   0.475   3.740  13.772  0.1112  0.3748  0.5801
76555SOL    HW141644   0.477   3.770  13.863  1.8112  0.8155  0.4196
76555SOL    HW241645   0.566   3.722  13.750 -0.2311  0.5715 -1.1454
76556SOL     OW41646  11.841   4.924   6.662 -0.2131 -0.1821  0.0234
76556SOL    HW141647  11.789   4.999   6.693 -0.2797 -0.2911  0.1754
76556SOL    HW241648  11.888   4.958   6.585  0.4961  0.2974  0.6516
76557SOL     OW41649  13.039   0.836   9.575 -0.1776  0.2827  0.6364
76557SOL    HW141650  13.029   0.896   9.501 -0.4797 -1.1489 -0.5308
76557SOL    HW241651  12.957   0.843   9.624 -0.8735 -0.3633 -0.4146
76558SOL     OW41652   0.329   9.867   6.048  0.0280 -0.2896  0.2062
76558SOL    HW141653   0.398   9.883   5.983  1.8313  0.2527  2.1281
76558SOL    HW241654   0.287   9.952   6.060 -1.5851 -0.7695 -1.5007
76559SOL     OW41655  13.156   1.400  13.485  0.1728  0.0046  0.1206
76559SOL    HW141656  13.174   1.466  13.418  0.4410 -0.1459  0.0414
76559SOL    HW241657  13.104   1.445  13.551  0.4262  0.3172  0.1077
76560SOL     OW41658  12.759  13.271  12.428 -0.9123 -0.1348 -0.2663
76560SOL    HW141659  12.679  13.288  12.478 -0.6248  0.0402  0.1442
76560SOL    HW241660  12.730  13.220  12.353 -1.5581  0.8057 -0.6689
76561SOL     OW41661  13.416   7.750   0.253  0.5060 -0.0324  0.0371
76561SOL    HW141662  13.342   7.725   0.198  0.4472  1.5269 -0.6408
76561SOL    HW241663  13.381   7.816   0.312  1.0416 -0.2578  0.6196
76562SOL     OW41664  11.767   3.216   8.865  0.0188  0.1260  0.1758
76562SOL    HW141665  11.780   3.277   8.937 -0.1990 -0.5637  0.8200
76562SOL    HW241666  11.725   3.140   8.905  2.3310 -1.4292 -0.1474
76563SOL     OW41667   3.650   6.756   3.021  0.6578  0.1607 -0.4384
76563SOL    HW141668   3.571   6.767   3.074  0.4504  0.3390 -0.7848
76563SOL    HW241669   3.640   6.818   2.949  1.4469  0.6967 -0.1058
76564SOL     OW41670  13.245   5.328   8.444 -0.5497 -0.2080  0.1104
76564SOL    HW141671  13.240   5.240   8.405 -1.4929 -0.4250  0.6671
76564SOL    HW241672  13.323   5.326   8.498 -0.1746 -0.4720 -0.4324
76565SOL     OW41673   5.054   4.041   6.436 -0.2054  0.2119  0.0713
76565SOL    HW141674   4.980   4.018   6.381  0.1717 -0.1063 -0.3063
76565SOL    HW241675   5.032   4.003   6.522 -1.8486  2.6041  0.8156
76566SOL     OW41676  11.642   2.915   5.828 -0.3019  0.4267 -0.5135
76566SOL    HW141677  11.658   2.978   5.898 -0.2853  0.8047 -0.8524
76566SOL    HW241678  11.574   2.857   5.862  1.6108 -1.1546  0.9349
76567SOL     OW41679   5.381   5.323  11.932 -0.0474 -0.0710 -0.0221
76567SOL    HW141680   5.308   5.353  11.987 -1.6472 -2.5938 -0.5731
76567SOL    HW241681   5.411   5.402  11.887 -3.4256  0.9575 -0.8177
76568SOL     OW41682  10.919   3.310   3.470 -0.0803 -0.3978 -0.3830
76568SOL    HW141683  10.938   3.308   3.564  0.9381  0.3825 -0.5458
76568SOL    HW241684  10.825   3.298   3.463 -0.2017 -0.1474  0.7558
76569SOL     OW41685   5.438  12.832  10.300  0.2050  0.3219 -0.2166
76569SOL    HW141686   5.511  12.865  10.248  0.4299  2.2073  1.2143
76569SOL    HW241687   5.457  12.738  10.310  0.5724  0.0622 -2.7498
76570SOL     OW41688  12.845  11.415  11.945  0.2414  0.1722 -0.4336
76570SOL    HW141689  12.842  11.478  12.017 -1.6035  1.3892 -1.4978
76570SOL    HW241690  12.778  11.350  11.967  0.5650 -0.1697 -0.4462
76571SOL     OW41691   7.889   9.273  13.427  0.2544  0.3632  0.3232
76571SOL    HW141692   7.839   9.346  13.390 -1.2196 -1.0695 -0.6292
76571SOL    HW241693   7.978   9.307  13.435 -0.3541  2.2077 -0.2259
76572SOL     OW41694   7.387  12.155   7.015  0.2088  0.3499  0.2217
76572SOL    HW141695   7.388  12.089   6.946 -0.1391 -0.0244  0.5656
76572SOL    HW241696   7.340  12.113   7.087  0.0701  0.9410  0.4809
76573SOL     OW41697   6.411   2.419  11.733 -0.2777  0.1007 -0.1520
76573SOL    HW141698   6.416   2.356  11.805 -0.2376 -0.2958 -0.5002
76573SOL    HW241699   6.336   2.390  11.681  0.0574  0.0357 -0.6018
76574SOL     OW41700   3.849   1.729  12.316  0.1994 -0.0297  0.9081
76574SOL    HW141701   3.796   1.751  12.240  0.5994 -0.9036  0.3611
76574SOL    HW241702   3.789   1.684  12.376  0.2447 -0.7600  0.4155
76575SOL     OW41703   5.857  12.428   7.294  0.2907 -0.0935 -0.4024
76575SOL    HW141704   5.821  12.352   7.247  0.2700 -1.6204  1.8907
76575SOL    HW241705   5.781  12.471   7.331  0.4664 -0.4584  0.3974
76576SOL     OW41706  13.115   1.471   6.043  0.5447 -0.6976 -0.2727
76576SOL    HW141707  13.034   1.517   6.024  0.2116 -1.3014 -0.3508
76576SOL    HW241708  13.169   1.483   5.964  1.5413  1.7558  0.6842
76577SOL     OW41709   8.972   4.266  10.004  0.2383  0.1154 -0.0945
76577SOL    HW141710   9.026   4.309  10.071  0.0332 -1.0515  0.8490
76577SOL    HW241711   9.011   4.180   9.993 -0.6885 -0.2921 -0.3084
76578SOL     OW41712   5.417  13.795   2.892  0.0823  0.7646  0.3109
76578SOL    HW141713   5.399  13.737   2.966  0.1628  0.8656  0.4097
76578SOL    HW241714   5.359  13.763   2.822  2.1883 -1.2861 -0.6098
76579SOL     OW41715   5.626   0.125   0.482 -0.4488  0.0992  0.6543
76579SOL    HW141716   5.554   0.162   0.431  0.8653  0.3621 -1.0969
76579SOL    HW241717   5.678   0.200   0.509 -0.2672 -0.1475  0.9989
76580SOL     OW41718   0.855   6.280   5.453 -0.0381  0.0611  0.2013
76580SOL    HW141719   0.941   6.242   5.438 -0.0732  0.4655 -1.1349
76580SOL    HW241720   0.796   6.205   5.458  0.0150 -0.1372 -1.5763
76581SOL     OW41721  13.718  12.491   0.662 -0.3738  0.2473  0.1960
76581SOL    HW141722  13.739  12.567   0.608  1.5056 -0.2440  0.1661
76581SOL    HW241723  13.771  12.420   0.625 -1.8671 -1.0429  0.3915
76582SOL     OW41724   5.144   1.015   9.781  0.0840 -0.5130  0.1737
76582SOL    HW141725   5.094   0.936   9.758 -0.2096  0.0292 -1.0832
76582SOL    HW241726   5.217   1.016   9.720  0.5313 -0.2268  0.7091
76583SOL     OW41727  13.029   2.418   8.705 -0.2384  0.1111 -0.1856
76583SOL    HW141728  13.031   2.403   8.610  1.1321  1.2475 -0.3681
76583SOL    HW241729  13.035   2.330   8.743  2.2966 -0.2429 -1.1865
76584SOL     OW41730  13.378   9.722   2.630  0.0494  0.2261  0.1123
76584SOL    HW141731  13.472   9.734   2.612 -0.5883  0.2028 -4.5675
76584SOL    HW241732  13.346   9.810   2.646  0.3794  0.8620 -2.2757
76585SOL     OW41733   6.488  11.750   6.408  0.1227  0.6744  0.1975
76585SOL    HW141734   6.556  11.801   6.451 -0.2007  1.2243  0.0565
76585SOL    HW241735   6.423  11.733   6.477  0.8071 -0.5906  0.5543
76586SOL     OW41736   3.368   2.820  13.431 -0.2731 -0.4262  0.9799
76586SOL    HW141737   3.334   2.763  13.363 -1.0020 -0.7983  1.6477
76586SOL    HW241738   3.445   2.861  13.391 -1.9703  1.1207 -0.8794
76587SOL     OW41739  11.236   5.646   7.779 -0.6193 -0.1193  0.7165
76587SOL    HW141740  11.221   5.640   7.874  3.0905 -2.0554  1.3687
76587SOL    HW241741  11.303   5.714   7.770 -0.5765 -0.3089 -0.4530
76588SOL     OW41742   3.667   6.036   4.231 -0.5586 -0.0085  0.3411
76588SOL    HW141743   3.691   5.944   4.230  1.8437  0.5052  2.3824
76588SOL    HW241744   3.576   6.037   4.261 -0.4951 -1.6621  0.6826
76589SOL     OW41745   8.980   4.552  12.182 -0.4173  0.2469 -0.3297
76589SOL    HW141746   8.957   4.519  12.095  0.4530 -2.2247  0.2930
76589SOL    HW241747   8.898   4.588  12.217 -1.3952 -1.0428 -1.2228
76590SOL     OW41748   3.481   9.764   6.176 -0.1406 -0.6634  0.2191
76590SOL    HW141749   3.404   9.712   6.201 -0.4178 -0.1046  0.5456
76590SOL    HW241750   3.511   9.803   6.258  2.4140 -3.3270  0.7122
76591SOL     OW41751   1.667   2.342   7.784 -0.4981 -0.0814  0.6623
76591SOL    HW141752   1.686   2.435   7.779  0.0179 -0.1764  0.7638
76591SOL    HW241753   1.674   2.321   7.878 -1.6521 -0.0148  0.7750
76592SOL     OW41754   7.821  11.223   1.060 -0.4087 -0.0902  0.3314
76592SOL    HW141755   7.800  11.315   1.040  0.2590 -0.0800 -0.3479
76592SOL    HW241756   7.898  11.228   1.116 -0.4416 -0.2408  0.3909
76593SOL     OW41757   3.029   6.866  11.368  0.1503 -0.0969 -0.5226
76593SOL    HW141758   2.969   6.914  11.311  2.0811  2.1181 -0.8712
76593SOL    HW241759   3.064   6.796  11.313  0.1652  0.5162 -1.3097
76594SOL     OW41760   1.322   6.983   0.221  0.1556  0.7160 -0.3527
76594SOL    HW141761   1.259   7.032   0.168 -0.0883 -0.3240 -1.0605
76594SOL    HW241762   1.269   6.939   0.288  0.1563  0.1609 -0.7035
76595SOL     OW41763   7.093  11.536   9.214 -0.0425 -0.1808  0.1900
76595SOL    HW141764   7.005  11.511   9.185 -0.0327 -1.4734  1.2118
76595SOL    HW241765   7.078  11.604   9.280 -0.1554  1.1354 -1.1440
76596SOL     OW41766   8.690   1.175   6.643 -0.1442  0.6607 -0.1266
76596SOL    HW141767   8.651   1.119   6.576  2.2199 -0.0755 -1.0087
76596SOL    HW241768   8.652   1.145   6.725  0.4229 -1.7339 -0.6669
76597SOL     OW41769   5.964   5.268  11.311  0.2805  0.5508 -0.0364
76597SOL    HW141770   6.004   5.272  11.224 -0.0961 -0.3428 -0.2684
76597SOL    HW241771   6.037   5.269  11.372  0.6146 -0.1497 -0.4177
76598SOL     OW41772   0.351  12.070   4.089  0.0393 -0.5577  0.0321
76598SOL    HW141773   0.290  12.030   4.027  0.9970  0.4004 -1.6053
76598SOL    HW241774   0.301  12.142   4.128 -0.5924 -1.2099  0.4636
76599SOL     OW41775   5.570   9.418  11.129 -0.0924 -0.2706  0.3328
76599SOL    HW141776   5.532   9.396  11.214 -0.0299 -2.9665 -0.2437
76599SOL    HW241777   5.659   9.447  11.148 -0.8914  1.6759  1.3384
76600SOL     OW41778   3.244   5.401   3.534  0.0542 -0.1406 -0.3163
76600SOL    HW141779   3.222   5.450   3.613 -1.6262  2.0516 -2.0018
76600SOL    HW241780   3.338   5.414   3.522  0.1181  0.4471  0.7103
76601SOL     OW41781  13.891  12.575   6.838  0.2242  0.3770  0.0039
76601SOL    HW141782  13.933  12.549   6.756  0.3743  1.1337 -0.1708
76601SOL    HW241783  13.798  12.556   6.825  0.4747 -1.3180  0.3959
76602SOL     OW41784   6.674   8.092   7.177  0.4870 -0.1368  0.2939
76602SOL    HW141785   6.618   8.162   7.143  2.2947  1.3813  0.2800
76602SOL    HW241786   6.613   8.022   7.201 -1.3345  1.1453 -0.3595
76603SOL     OW41787   2.818   1.269  12.447  0.0104 -0.4219  0.0411
76603SOL    HW141788   2.778   1.334  12.505  0.7203 -0.4954  0.6293
76603SOL    HW241789   2.901   1.308  12.421  0.3929 -1.0391  0.3079
76604SOL     OW41790   4.704   1.649   3.871 -0.8927 -0.3103 -0.4813
76604SOL    HW141791   4.679   1.585   3.937  0.2944 -0.5078 -0.1924
76604SOL    HW241792   4.636   1.644   3.804 -0.6170 -2.1891 -0.6664
76605SOL     OW41793  12.614   9.429  10.541  0.2769 -0.6609 -0.1639
76605SOL    HW141794  12.561   9.433  10.461  0.0077  2.2262  0.0516
76605SOL    HW241795  12.566   9.481  10.604  2.2346  0.1117  0.7698
76606SOL     OW41796  11.892   7.505   1.002  0.2864  0.4628 -0.0264
76606SOL    HW141797  11.877   7.599   1.011 -0.2736  0.3492  0.2226
76606SOL    HW241798  11.982   7.499   0.970  0.0921  1.1053 -0.7265
76607SOL     OW41799   1.144   5.950   9.673 -0.5785 -0.2019 -0.2345
76607SOL    HW141800   1.131   5.881   9.608 -1.1862  0.3088 -0.6610
76607SOL    HW241801   1.152   5.903   9.756 -1.0173 -0.7860 -0.5132
76608SOL     OW41802   7.806  12.519  13.375  0.3835 -0.0145  0.2013
76608SOL    HW141803   7.845  12.479  13.297  0.0168  2.6631 -1.4691
76608SOL    HW241804   7.712  12.500  13.367  0.2977  0.5663 -0.2299
76609SOL     OW41805   4.221   7.186  13.708  0.0566 -0.3114 -0.4467
76609SOL    HW141806   4.261   7.220  13.788 -0.0782  0.5121 -0.7166
76609SOL    HW241807   4.128   7.176  13.730  0.1751 -0.9532 -0.2252
76610SOL     OW41808   7.723   1.703  11.992 -0.3880 -0.1658 -0.1644
76610SOL    HW141809   7.728   1.682  12.085  0.4103 -1.9645 -0.5503
76610SOL    HW241810   7.814   1.705  11.963 -0.6373 -0.1729 -0.9953
76611SOL     OW41811  13.472  13.362  13.778 -0.0210  0.3453  0.5936
76611SOL    HW141812  13.563  13.336  13.768 -0.5402 -1.9773  1.3116
76611SOL    HW241813  13.444  13.388  13.690  1.4757  1.7511  0.4963
76612SOL     OW41814   0.393   8.894   7.663  0.3341 -0.0890 -0.2133
76612SOL    HW141815   0.465   8.881   7.602  1.0594 -2.4687  1.0343
76612SOL    HW241816   0.368   8.986   7.651  2.8221  0.5202 -1.4743
76613SOL     OW41817  11.398  12.128   2.292 -0.4037  0.4064  0.7143
76613SOL    HW141818  11.452  12.172   2.227  0.4635  1.0611  1.8498
76613SOL    HW241819  11.309  12.159   2.275 -0.2329  0.3790 -0.2920
76614SOL     OW41820   6.015   4.407   2.122 -0.4471  0.5604 -0.3188
76614SOL    HW141821   6.041   4.415   2.214 -2.1841 -0.0617  0.2841
76614SOL    HW241822   5.923   4.380   2.126 -0.3632 -0.1745 -2.2437
76615SOL     OW41823   2.639  10.034   5.064  0.0571  0.0437  0.3373
76615SOL    HW141824   2.554  10.056   5.103  0.5666  0.4881  1.2363
76615SOL    HW241825   2.617   9.986   4.984 -1.0464  0.5913  0.2855
76616SOL     OW41826   2.696   9.498   6.932  0.1372  0.2008  0.1395
76616SOL    HW141827   2.789   9.489   6.907  0.0109  0.6472 -0.5205
76616SOL    HW241828   2.684   9.433   7.001  1.2081  0.8469  0.9734
76617SOL     OW41829   4.613  11.457  13.688 -0.0848  0.3612 -0.2865
76617SOL    HW141830   4.668  11.524  13.649 -0.2695  2.7154  3.1449
76617SOL    HW241831   4.661  11.427  13.765 -2.0520 -0.0729  0.8388
76618SOL     OW41832   0.124   4.430   2.068 -0.0161 -0.3338  0.2974
76618SOL    HW141833   0.204   4.401   2.111  0.7372  1.1709  0.0052
76618SOL    HW241834   0.155   4.477   1.990 -1.1200  1.1564  0.7103
76619SOL     OW41835   6.142  13.862   3.358 -0.4123 -0.1889 -0.1171
76619SOL    HW141836   6.204  13.891   3.424  0.9507 -1.7977 -0.6381
76619SOL    HW241837   6.166  13.911   3.279 -1.9091  1.5767  0.4363
76620SOL     OW41838  11.932   1.797   5.749 -0.2454  0.0664 -0.1875
76620SOL    HW141839  12.002   1.765   5.806  0.0938 -0.3698 -0.8356
76620SOL    HW241840  11.879   1.853   5.806  0.7454  0.5827  0.2605
76621SOL     OW41841   8.738   1.266  13.056 -0.0050  0.1658  0.3037
76621SOL    HW141842   8.652   1.291  13.090 -0.2656  0.6404 -0.6629
76621SOL    HW241843   8.796   1.338  13.082 -0.2624  0.6646 -0.4678
76622SOL     OW41844   6.770   4.119  13.516 -0.0700 -0.3586  0.1547
76622SOL    HW141845   6.782   4.173  13.438  2.4170 -0.0146  0.7141
76622SOL    HW241846   6.742   4.034  13.482  1.1756 -0.2737 -1.1562
76623SOL     OW41847  12.512   3.537   7.159 -0.2537 -0.1110  0.3296
76623SOL    HW141848  12.505   3.504   7.069 -0.7024  1.8001 -0.3875
76623SOL    HW241849  12.442   3.492   7.206 -1.4608  0.4653 -0.8338
76624SOL     OW41850   1.477  10.224   0.780 -0.3994  0.2314  0.1416
76624SOL    HW141851   1.544  10.206   0.847 -1.3193  0.5282  1.1801
76624SOL    HW241852   1.505  10.175   0.704  0.8867  0.1678  0.6291
76625SOL     OW41853   9.164  12.684  13.091  0.3899 -0.2989 -0.8628
76625SOL    HW141854   9.098  12.751  13.072 -0.5064 -0.8155  0.2576
76625SOL    HW241855   9.211  12.718  13.168  0.2709 -0.7100 -0.6060
76626SOL     OW41856  13.985   7.330  12.072  0.1524 -0.0521 -0.2580
76626SOL    HW141857  13.914   7.350  12.133  0.6812 -1.1172  0.7616
76626SOL    HW241858  13.991   7.235  12.073  2.7874  0.0209  1.1767
76627SOL     OW41859   8.569   9.436   3.000 -0.2416  0.1815 -0.5748
76627SOL    HW141860   8.575   9.414   3.093 -1.1035 -0.4752 -0.6695
76627SOL    HW241861   8.503   9.505   2.995 -0.1710  0.2416 -0.7078
76628SOL     OW41862   0.215  12.699   7.213 -0.4781  0.0566  0.2368
76628SOL    HW141863   0.192  12.699   7.306 -1.4516 -1.6242  0.0438
76628SOL    HW241864   0.132  12.683   7.168 -0.0696  1.1360 -0.9600
76629SOL     OW41865   6.176   7.743   9.974 -0.5028  0.9563  0.3165
76629SOL    HW141866   6.155   7.710   9.886 -1.2799 -1.9442  1.4622
76629SOL    HW241867   6.090   7.755  10.015 -0.1580 -0.3258  1.4940
76630SOL     OW41868   9.289  10.165   4.078 -0.4653 -0.6199  0.0059
76630SOL    HW141869   9.240  10.086   4.058 -1.5697 -0.6237  2.3471
76630SOL    HW241870   9.257  10.230   4.017 -0.3899 -1.6595 -1.1814
76631SOL     OW41871   8.380   3.124   7.331  0.1795 -0.0551  0.2356
76631SOL    HW141872   8.330   3.074   7.265  0.7723 -0.7428  0.3009
76631SOL    HW241873   8.416   3.198   7.282 -1.2201  0.6797  0.2663
76632SOL     OW41874  11.664   8.467  10.061  0.1947 -0.1478 -0.4661
76632SOL    HW141875  11.722   8.500  10.130  0.5862 -1.2222 -0.2588
76632SOL    HW241876  11.673   8.529   9.990 -0.7746  1.4154  0.6981
76633SOL     OW41877   2.153   0.561  12.126  0.5321 -0.0850  0.0292
76633SOL    HW141878   2.171   0.625  12.194  1.5570 -0.4536  0.1225
76633SOL    HW241879   2.169   0.476  12.168  1.1465 -0.3180 -0.6527
76634SOL     OW41880  13.500   3.608  12.742 -0.1527 -0.1973  0.6748
76634SOL    HW141881  13.441   3.603  12.667  0.6656 -1.2357  0.0762
76634SOL    HW241882  13.473   3.536  12.798  0.1495 -0.2946  0.6955
76635SOL     OW41883  11.917   0.086   9.407  0.3853  0.4289 -0.3945
76635SOL    HW141884  11.901   0.142   9.331  1.0159  0.9637 -0.1393
76635SOL    HW241885  11.832   0.082   9.451  0.3707  1.3610 -0.3038
76636SOL     OW41886   0.459  13.757  11.661 -0.1323  0.4872 -0.2224
76636SOL    HW141887   0.503  13.841  11.672 -1.5876  1.1132  1.2207
76636SOL    HW241888   0.514  13.695  11.708  0.9272  0.6045 -1.2523
76637SOL     OW41889   2.592   7.376   9.430 -0.1067 -0.3374 -0.2927
76637SOL    HW141890   2.674   7.407   9.468 -0.5861  1.5530 -0.7188
76637SOL    HW241891   2.536   7.357   9.505 -0.0740  0.6350 -0.0159
76638SOL     OW41892  11.845  13.026   9.717  0.1015  0.1633  0.4767
76638SOL    HW141893  11.864  12.938   9.750  0.6040  0.6780  1.6067
76638SOL    HW241894  11.885  13.027   9.629 -2.5324 -1.7182 -0.8952
76639SOL     OW41895   9.050  12.125  12.382 -0.6240  0.3429 -0.0019
76639SOL    HW141896   9.009  12.183  12.318  1.6293  0.1362 -1.7563
76639SOL    HW241897   9.063  12.180  12.459 -0.3948  1.5949 -0.8972
76640SOL     OW41898  14.030  10.176  11.282 -0.0613  0.0290  0.1655
76640SOL    HW141899  14.073  10.255  11.249  0.5610 -0.2702  0.2585
76640SOL    HW241900  13.991  10.137  11.204  1.0341 -0.4397 -0.1615
76641SOL     OW41901   5.246  11.805  12.471  0.7092 -0.1503  0.3246
76641SOL    HW141902   5.215  11.877  12.416  0.9500 -0.0019  0.3841
76641SOL    HW241903   5.329  11.836  12.508 -0.4407  0.6350  2.4835
76642SOL     OW41904   0.528   3.532   6.745 -0.0985  0.1488 -1.0330
76642SOL    HW141905   0.445   3.520   6.698 -0.1523 -0.8998 -0.6997
76642SOL    HW241906   0.513   3.607   6.803  0.5504  2.7224 -3.9166
76643SOL     OW41907   3.041   5.573  11.939  0.0063  0.0528  0.0204
76643SOL    HW141908   3.068   5.632  12.009  0.9787 -1.0209  0.5906
76643SOL    HW241909   2.946   5.569  11.946 -0.0557  1.3297  0.1298
76644SOL     OW41910   0.512   5.912   3.355  0.3878 -0.0558  0.1823
76644SOL    HW141911   0.469   5.894   3.439  0.1324 -0.2570  0.0104
76644SOL    HW241912   0.604   5.926   3.378 -0.1914  3.4688  0.9758
76645SOL     OW41913   3.319   7.126   0.663 -0.6847  0.1541 -0.1355
76645SOL    HW141914   3.403   7.147   0.623 -0.8657  1.3409  0.0732
76645SOL    HW241915   3.257   7.187   0.623 -0.9959  0.9132  1.4436
76646SOL     OW41916   6.650   7.066  11.727 -0.0962  0.8187 -0.2343
76646SOL    HW141917   6.609   7.126  11.789  0.9321  0.8589  0.4299
76646SOL    HW241918   6.742   7.062  11.754 -0.2039 -1.3780  0.0287
76647SOL     OW41919   9.385  10.201   6.383 -0.3858 -0.2667  0.4526
76647SOL    HW141920   9.360  10.287   6.348 -3.4456 -0.9392  0.6832
76647SOL    HW241921   9.451  10.169   6.322 -2.0653  0.6245 -2.0036
76648SOL     OW41922   7.765   4.354   1.926 -0.2461  0.0869  0.4798
76648SOL    HW141923   7.831   4.392   1.868  2.2150 -2.3790  1.4410
76648SOL    HW241924   7.712   4.298   1.869  0.7877 -0.6506  0.2076
76649SOL     OW41925   4.877  11.798  11.691 -0.0710  0.2018  0.0291
76649SOL    HW141926   4.950  11.739  11.674 -1.0376 -1.1439  0.3918
76649SOL    HW241927   4.903  11.844  11.771  0.8334  0.5427 -0.4348
76650SOL     OW41928   4.262   4.522   5.079  0.1920  0.4383  0.4058
76650SOL    HW141929   4.248   4.455   5.012 -1.2037  1.6313 -0.5802
76650SOL    HW241930   4.265   4.474   5.161 -1.1298 -0.8387 -0.2352
76651SOL     OW41931   1.601   6.991   1.301  0.1222  0.6584 -0.2451
76651SOL    HW141932   1.557   6.937   1.368  1.2012 -0.8268 -0.6855
76651SOL    HW241933   1.535   7.003   1.233 -0.3420  0.4583  0.1615
76652SOL     OW41934  10.129   5.229   3.310 -0.5231 -0.4135  0.1328
76652SOL    HW141935  10.111   5.316   3.272  1.2705 -0.0236  0.0933
76652SOL    HW241936  10.053   5.176   3.284 -1.0669  0.8076 -0.9165
76653SOL     OW41937   1.878   4.502   8.169  0.8094 -0.2680  0.0631
76653SOL    HW141938   1.818   4.436   8.204  0.0652 -0.5243 -1.5684
76653SOL    HW241939   1.923   4.538   8.246 -0.9679 -0.5347  1.2860
76654SOL     OW41940   0.740   1.348  12.925  0.3605 -0.2253 -0.4351
76654SOL    HW141941   0.743   1.254  12.910 -0.9329  0.0867 -3.2387
76654SOL    HW241942   0.736   1.357  13.020  2.9465 -2.8454  0.0555
76655SOL     OW41943   7.239   2.830   4.652  0.3152 -0.2910 -0.3179
76655SOL    HW141944   7.217   2.874   4.570  1.5209 -0.2861 -0.6664
76655SOL    HW241945   7.264   2.900   4.712 -0.1227 -0.3287 -0.0873
76656SOL     OW41946  12.007   0.550   6.615  0.4302 -0.6253 -0.0838
76656SOL    HW141947  12.095   0.520   6.638  0.2845  0.7039  2.6559
76656SOL    HW241948  12.018   0.599   6.534  2.2131 -0.6041  0.1373
76657SOL     OW41949   6.289   1.506   9.667  0.1234  0.1053 -0.5632
76657SOL    HW141950   6.275   1.593   9.703 -0.7433 -0.3767  0.2907
76657SOL    HW241951   6.204   1.464   9.672  0.3227 -0.4851 -1.8301
76658SOL     OW41952  13.030  13.656   5.060  0.9493 -0.5119 -0.0146
76658SOL    HW141953  12.992  13.569   5.073 -1.0387  0.0990 -1.1807
76658SOL    HW241954  13.043  13.690   5.148 -1.8365 -0.5859  0.5215
76659SOL     OW41955  10.996   3.812   5.950  0.1931  0.4644 -0.3244
76659SOL    HW141956  10.948   3.767   6.020 -0.1476 -0.0025 -0.8551
76659SOL    HW241957  11.088   3.802   5.975  0.2163 -1.6118 -1.0372
76660SOL     OW41958   8.064   4.094   8.286  0.0906  0.2253  0.5750
76660SOL    HW141959   8.075   4.179   8.243 -1.3544  0.2087  0.1108
76660SOL    HW241960   8.005   4.112   8.360 -1.8253 -0.6445 -0.6408
76661SOL     OW41961   1.981   3.822   1.690 -0.2990  0.3315  0.4035
76661SOL    HW141962   1.948   3.760   1.755 -0.0176  0.3699  0.5846
76661SOL    HW241963   1.967   3.778   1.606  0.1806 -0.1102  0.5523
76662SOL     OW41964   9.240   8.546  10.329 -0.5457  0.2152 -0.4540
76662SOL    HW141965   9.189   8.514  10.404  1.3660 -2.2040 -0.0182
76662SOL    HW241966   9.304   8.606  10.368 -0.2426 -0.2129 -0.2761
76663SOL     OW41967   3.780   9.342   1.284 -0.2324  0.3110 -0.3092
76663SOL    HW141968   3.849   9.350   1.219 -0.6165 -1.6370 -1.0323
76663SOL    HW241969   3.702   9.320   1.233 -0.9760  0.6357  0.6632
76664SOL     OW41970   9.476  13.168   2.066  0.0010  0.2595  0.3686
76664SOL    HW141971   9.522  13.194   1.986 -0.9650  0.2414 -0.1984
76664SOL    HW241972   9.438  13.250   2.099 -1.5420 -0.1106 -0.4486
76665SOL     OW41973  11.574   0.584  13.484  0.4489  0.3151  0.7006
76665SOL    HW141974  11.566   0.571  13.578 -0.4136  0.5715  0.6752
76665SOL    HW241975  11.622   0.507  13.452  0.3120 -0.0105  1.2766
76666SOL     OW41976   7.312   2.351   5.367 -0.3486 -0.3967 -0.3517
76666SOL    HW141977   7.273   2.266   5.348 -0.3436 -0.8686  1.5668
76666SOL    HW241978   7.354   2.377   5.285 -0.6337 -2.0691 -1.0678
76667SOL     OW41979   8.080   1.330   5.716  0.1754  0.5439  0.2500
76667SOL    HW141980   8.175   1.335   5.721  0.1905  0.8690 -0.3134
76667SOL    HW241981   8.058   1.371   5.633 -0.4049 -0.2244  0.0105
76668SOL     OW41982   3.050   4.755  12.671  0.3777 -0.2189  0.0530
76668SOL    HW141983   2.997   4.835  12.667 -0.7855 -0.9945 -0.5147
76668SOL    HW241984   3.076   4.747  12.762  0.4009  0.7365  0.1365
76669SOL     OW41985   3.073   4.108  11.826  0.2437 -0.1714 -0.7190
76669SOL    HW141986   3.054   4.016  11.844 -0.3230 -0.3251 -1.9905
76669SOL    HW241987   3.152   4.127  11.878 -1.4711 -0.4179  2.1816
76670SOL     OW41988  13.595  10.556   4.571 -0.0165  0.1569  0.0566
76670SOL    HW141989  13.555  10.552   4.484 -1.0355 -0.4865  0.5397
76670SOL    HW241990  13.629  10.646   4.577 -3.3872  1.5764  0.4466
76671SOL     OW41991   8.250  11.179   6.440  0.6945  0.1428 -0.1527
76671SOL    HW141992   8.315  11.246   6.465 -0.3234  1.4369 -0.8461
76671SOL    HW241993   8.274  11.102   6.491  2.3869  0.7891  0.0923
76672SOL     OW41994  10.968   4.271  12.468  1.0548 -0.1757 -0.3235
76672SOL    HW141995  10.945   4.233  12.553 -2.3625  0.2166 -0.9144
76672SOL    HW241996  11.003   4.358  12.489  1.0533 -0.4168  0.7226
76673SOL     OW41997   9.711   3.913   3.316  0.8539  0.0443  0.3134
76673SOL    HW141998   9.795   3.912   3.271  0.7822 -1.2176  0.1937
76673SOL    HW241999   9.678   3.824   3.309 -0.9506  0.7190 -0.4911
76674SOL     OW42000  10.649  13.449  10.651  0.0538  0.0545  0.1498
76674SOL    HW142001  10.584  13.419  10.587  0.6308  1.4073 -1.1195
76674SOL    HW242002  10.709  13.375  10.660 -0.1912 -0.2603 -0.6761
76675SOL     OW42003   3.062   5.340   6.141 -0.1520 -0.1519 -0.4026
76675SOL    HW142004   3.011   5.366   6.218  0.9844 -0.1026  0.3609
76675SOL    HW242005   3.048   5.246   6.134 -2.3109  0.1998 -1.7053
76676SOL     OW42006  13.956  10.929   8.525  0.0312  0.1062  0.0062
76676SOL    HW142007  13.979  10.945   8.433  0.5528 -1.0701 -0.0976
76676SOL    HW242008  13.918  11.011   8.555  0.6464  0.7975 -1.0179
76677SOL     OW42009   8.451   3.684   2.525 -0.1828 -0.3208  0.0625
76677SOL    HW142010   8.503   3.643   2.455 -0.3003  1.7310 -1.3092
76677SOL    HW242011   8.515   3.733   2.577 -0.4682  0.5405 -0.3902
76678SOL     OW42012   2.349   8.329  12.663 -0.0780  0.0584  0.2851
76678SOL    HW142013   2.299   8.249  12.681 -0.7634 -0.0084 -1.6171
76678SOL    HW242014   2.432   8.298  12.627 -0.7430  0.1598 -1.4191
76679SOL     OW42015   4.164   2.060   9.558  0.0813  0.0331 -0.0862
76679SOL    HW142016   4.088   2.038   9.504 -0.2339 -0.7545  0.6437
76679SOL    HW242017   4.178   2.153   9.544  0.5103 -0.3049 -2.1512
76680SOL     OW42018  13.706  11.992   8.128  0.1866 -0.8437 -0.2927
76680SOL    HW142019  13.783  12.004   8.183 -0.4645 -0.7850  0.6350
76680SOL    HW242020  13.712  12.062   8.063  0.4497 -0.2773  0.3293
76681SOL     OW42021   1.431   9.914   1.438  0.6772  0.0188  0.9783
76681SOL    HW142022   1.495   9.858   1.481 -1.0310 -2.4777  0.4996
76681SOL    HW242023   1.400   9.972   1.508  1.5213 -0.5551  1.8623
76682SOL     OW42024   5.984  13.100   8.559 -0.3624  0.0926  0.2814
76682SOL    HW142025   6.023  13.033   8.502 -0.3461  1.0725 -0.9127
76682SOL    HW242026   5.993  13.181   8.509  1.0958  1.3120  2.3416
76683SOL     OW42027  10.175   0.040   9.080  0.4958 -0.1285  0.3248
76683SOL    HW142028  10.254   0.020   9.130  1.3811 -0.1031 -1.0077
76683SOL    HW242029  10.107  -0.011   9.123  0.8757  0.9925  2.4330
76684SOL     OW42030  11.266   8.171   5.958 -0.3306  0.1733  0.7456
76684SOL    HW142031  11.338   8.170   5.894 -0.1932 -0.4551  0.9004
76684SOL    HW242032  11.198   8.224   5.917 -0.8674 -1.4698 -0.6268
76685SOL     OW42033  10.157   7.999   4.518 -0.2510  0.0039  0.2827
76685SOL    HW142034  10.158   8.073   4.457  1.3036 -1.0066 -1.0199
76685SOL    HW242035  10.162   8.039   4.604 -0.5373  1.4376 -0.3307
76686SOL     OW42036   5.452   6.676  12.789 -0.1235 -0.3598 -0.1890
76686SOL    HW142037   5.546   6.669  12.803  0.2258 -0.1736 -2.1967
76686SOL    HW242038   5.443   6.716  12.703 -2.0745  2.4106  1.1459
76687SOL     OW42039  13.909   6.964   7.032  0.4963  0.0219  0.1152
76687SOL    HW142040  13.829   6.983   7.080  0.5830  0.4117  0.1093
76687SOL    HW242041  13.904   7.019   6.953 -0.1838 -1.4299 -0.9094
76688SOL     OW42042   9.197   4.930   6.497 -0.0075  0.3485 -0.4025
76688SOL    HW142043   9.190   4.999   6.431  1.1910  0.1593 -0.7552
76688SOL    HW242044   9.230   4.974   6.575  0.3599  0.2552 -0.5022
76689SOL     OW42045  13.699   5.021   7.135 -0.2480  0.3003  0.1677
76689SOL    HW142046  13.675   5.094   7.191 -1.6690  0.1004 -0.1471
76689SOL    HW242047  13.761   5.058   7.072  0.0460  0.9160  0.8113
76690SOL     OW42048  13.011   9.470  13.003 -0.3112  0.0687  0.4996
76690SOL    HW142049  12.974   9.386  12.975 -0.8500  0.1854  0.8437
76690SOL    HW242050  13.046   9.453  13.091  1.6323 -0.3708 -0.2991
76691SOL     OW42051  10.301   9.957  14.000 -0.1054 -0.0028  0.6250
76691SOL    HW142052  10.212   9.922  13.997 -0.0002 -0.3028  0.8492
76691SOL    HW242053  10.317   9.972  14.093  0.9435 -2.2515  0.8645
76692SOL     OW42054  12.618   8.077  13.235 -0.0743  0.2764  0.1641
76692SOL    HW142055  12.598   7.985  13.218  0.9216  0.0779  0.0058
76692SOL    HW242056  12.569   8.124  13.167  1.3286 -0.3112 -1.3325
76693SOL     OW42057   4.218   2.015  11.141  0.7815 -0.6655  0.2951
76693SOL    HW142058   4.136   2.062  11.126  0.5949 -0.7932  0.8504
76693SOL    HW242059   4.235   2.028  11.235  2.5049  1.1134 -0.2192
76694SOL     OW42060   3.595  11.185   6.490  0.4861  0.5751 -0.6213
76694SOL    HW142061   3.528  11.253   6.499 -1.3791 -1.1179 -0.7677
76694SOL    HW242062   3.675  11.232   6.469 -0.4561  2.7811  0.4045
76695SOL     OW42063   6.136   7.629  13.634 -0.2630 -0.0329 -0.0557
76695SOL    HW142064   6.109   7.551  13.683 -0.5018  0.5964  0.8436
76695SOL    HW242065   6.076   7.632  13.559  0.0428 -0.9586 -0.3502
76696SOL     OW42066   2.125   4.177   7.523  0.1448 -0.4595  0.7362
76696SOL    HW142067   2.089   4.179   7.611 -0.4434  0.4137  0.4871
76696SOL    HW242068   2.109   4.088   7.492 -0.4091 -0.5236  1.2036
76697SOL     OW42069  11.190   4.846   3.781 -0.3111 -0.3706  1.1021
76697SOL    HW142070  11.236   4.926   3.755 -0.5313 -0.6131 -0.1255
76697SOL    HW242071  11.259   4.780   3.790 -0.3653 -0.7437 -0.7747
76698SOL     OW42072   9.831   4.921  12.383 -0.3095 -0.1652 -0.7719
76698SOL    HW142073   9.798   4.848  12.435 -1.4890  0.5303 -0.4983
76698SOL    HW242074   9.828   4.996  12.443 -0.5720  0.4090 -1.4855
76699SOL     OW42075   7.364   9.593   5.744 -0.1487 -0.1396  0.6649
76699SOL    HW142076   7.358   9.631   5.656  0.1991 -0.8289  0.3352
76699SOL    HW242077   7.303   9.645   5.797 -1.3843 -0.5842 -0.2858
76700SOL     OW42078   9.678   0.760   6.510 -0.3696  0.2420  0.4600
76700SOL    HW142079   9.722   0.834   6.552  0.8322  0.6626 -1.4203
76700SOL    HW242080   9.586   0.787   6.507  0.0907  1.8860 -0.5371
76701SOL     OW42081   7.400   1.326   0.175 -0.4958  0.3368 -0.4217
76701SOL    HW142082   7.311   1.292   0.187 -0.6264  0.8848  0.1805
76701SOL    HW242083   7.411   1.392   0.243  0.2434  0.5457 -0.7255
76702SOL     OW42084  10.144  11.586   5.084  0.0826 -0.4370 -0.6505
76702SOL    HW142085  10.118  11.649   5.017 -0.5993 -0.1501 -0.1318
76702SOL    HW242086  10.237  11.570   5.068  0.3194  0.8381 -0.6832
76703SOL     OW42087  10.598   6.569  13.758 -0.3239 -0.0495  0.5363
76703SOL    HW142088  10.686   6.569  13.794 -0.2386 -1.6750  0.4186
76703SOL    HW242089  10.611   6.552  13.664 -0.7347  0.1277  0.4460
76704SOL     OW42090  11.632   5.103   0.463  0.0690 -0.6891  0.2591
76704SOL    HW142091  11.637   5.156   0.383 -0.5321  0.4141  0.9329
76704SOL    HW242092  11.710   5.129   0.513 -0.4629 -0.0652  0.7940
76705SOL     OW42093   5.873   4.148   9.684 -0.3771 -0.0820 -0.2501
76705SOL    HW142094   5.795   4.169   9.632 -0.2431  1.0824 -0.0000
76705SOL    HW242095   5.937   4.215   9.660  0.5842 -1.0620 -0.4997
76706SOL     OW42096   4.134  13.591   3.365 -0.0295 -0.0953 -0.3843
76706SOL    HW142097   4.089  13.675   3.358  2.3414  1.2349 -0.7169
76706SOL    HW242098   4.124  13.551   3.279 -0.7113  0.0758 -0.3909
76707SOL     OW42099   7.601   6.815   6.554 -0.1501 -0.1385 -0.2218
76707SOL    HW142100   7.506   6.822   6.561 -0.0641  1.0443  0.0369
76707SOL    HW242101   7.629   6.785   6.640 -0.1009  2.1213  0.6041
76708SOL     OW42102   5.006   2.336   2.040 -0.9024  0.8240 -0.0730
76708SOL    HW142103   5.087   2.305   2.080 -0.7548 -0.6468 -1.4238
76708SOL    HW242104   4.937   2.298   2.094 -0.6993  0.1406 -0.2869
76709SOL     OW42105   4.073   5.384   8.251  0.3283 -0.0119  0.1520
76709SOL    HW142106   4.025   5.465   8.234  0.1084  0.0917  1.2327
76709SOL    HW242107   4.098   5.353   8.164 -1.2686  0.1892 -0.4084
76710SOL     OW42108   4.695   3.889   3.714  0.0182 -0.6505 -0.1168
76710SOL    HW142109   4.658   3.943   3.785  2.1869  0.9276 -0.0817
76710SOL    HW242110   4.788   3.911   3.714  0.1283 -0.6282 -3.4231
76711SOL     OW42111  12.778   5.571   7.501 -0.1389 -0.0382  1.2184
76711SOL    HW142112  12.807   5.578   7.410  0.1117 -1.6814  1.1538
76711SOL    HW242113  12.684   5.591   7.497  0.1615  1.4240  0.8546
76712SOL     OW42114   8.345   3.222   0.004 -0.0787  0.3338 -0.1208
76712SOL    HW142115   8.361   3.274  -0.075  1.2890  0.3509  0.1393
76712SOL    HW242116   8.318   3.286   0.070 -0.1866  0.4642 -0.2909
76713SOL     OW42117   0.933  12.134  11.680 -0.3411 -0.2858  0.1177
76713SOL    HW142118   0.874  12.111  11.608 -1.8657 -0.0466  1.2514
76713SOL    HW242119   0.995  12.061  11.684  1.5837  0.9174 -3.1808
76714SOL     OW42120  12.227   6.681   6.500  0.3243  0.3603  0.1311
76714SOL    HW142121  12.235   6.721   6.413  1.4804  0.1053  0.0998
76714SOL    HW242122  12.200   6.591   6.483  1.7707 -0.0577 -0.0590
76715SOL     OW42123  10.041   8.151  13.301 -0.2906  0.5101  0.1484
76715SOL    HW142124   9.949   8.170  13.321 -0.5092  0.1429 -0.4904
76715SOL    HW242125  10.039   8.070  13.250  0.5805 -0.9311  2.2646
76716SOL     OW42126   4.224  10.283  12.348  0.0146 -0.5910  0.8522
76716SOL    HW142127   4.158  10.264  12.415 -0.0107 -1.5693  0.5675
76716SOL    HW242128   4.307  10.270  12.392  0.0300  0.7691  1.2459
76717SOL     OW42129   8.531   3.424   3.461  0.0629 -0.8841  0.0242
76717SOL    HW142130   8.509   3.357   3.397 -1.0270 -0.6952  0.1848
76717SOL    HW242131   8.461   3.489   3.453  1.0701  0.2229 -0.0978
76718SOL     OW42132  12.710  12.737   5.854 -0.3060  0.7759  0.4243
76718SOL    HW142133  12.740  12.813   5.905  1.2879 -0.1165  0.8830
76718SOL    HW242134  12.730  12.662   5.910 -0.7644 -0.0701 -0.5265
76719SOL     OW42135   7.061   5.311   7.906 -0.0559  0.0520  0.5367
76719SOL    HW142136   7.125   5.340   7.840 -1.6379 -0.5651 -1.3838
76719SOL    HW242137   6.990   5.375   7.899  0.5222  1.0681  3.0482
76720SOL     OW42138   8.182   5.312  10.854  0.0717 -0.2025  0.2778
76720SOL    HW142139   8.261   5.281  10.898 -0.5497 -0.0271  1.5582
76720SOL    HW242140   8.149   5.382  10.910 -1.8386 -1.2882  0.6050
76721SOL     OW42141   3.922   4.182   7.968 -0.0948 -0.1617 -0.5382
76721SOL    HW142142   3.874   4.227   8.037  0.9572 -1.1545  0.8873
76721SOL    HW242143   3.899   4.089   7.978  0.8452 -0.4483 -0.8669
76722SOL     OW42144   1.949   8.928   5.121  0.1917  0.5698  0.1442
76722SOL    HW142145   2.032   8.925   5.073 -0.0286 -1.2434 -0.1525
76722SOL    HW242146   1.942   9.020   5.149  2.7651  0.5834  0.9951
76723SOL     OW42147   8.426   4.058   0.040 -0.0557 -0.2466  0.3074
76723SOL    HW142148   8.416   4.117  -0.035  2.0128  0.3571  0.4315
76723SOL    HW242149   8.342   4.061   0.085 -0.6066  1.1412 -0.7449
76724SOL     OW42150   5.730   9.269  11.650  0.8905  0.4959 -0.3970
76724SOL    HW142151   5.727   9.211  11.726  0.4271  1.4474  0.3296
76724SOL    HW242152   5.638   9.282  11.627  0.9993  0.8711 -0.6127
76725SOL     OW42153   9.578  10.267   9.451 -0.8433  0.2864  0.5958
76725SOL    HW142154   9.569  10.174   9.473 -0.5231  0.1912  0.3238
76725SOL    HW242155   9.584  10.311   9.536  1.3853 -0.1770  0.7427
76726SOL     OW42156  12.198   2.093   4.239 -0.2259  0.0948  0.0906
76726SOL    HW142157  12.258   2.121   4.170 -0.4354 -1.1700 -0.6180
76726SOL    HW242158  12.253   2.046   4.302  0.0292  1.5432  1.0108
76727SOL     OW42159   6.111   9.363   7.066 -0.1539 -0.0138 -0.2854
76727SOL    HW142160   6.061   9.417   7.005 -0.0401  1.0947  0.5807
76727SOL    HW242161   6.172   9.424   7.108  0.3043 -0.9030  0.3745
76728SOL     OW42162   7.224   2.433   9.535  0.1239 -0.2993  0.1565
76728SOL    HW142163   7.309   2.449   9.576 -0.2352  0.7083  0.5554
76728SOL    HW242164   7.202   2.343   9.559  1.7579 -1.1280 -1.2436
76729SOL     OW42165  13.500   4.112   0.311 -0.4688 -0.4584 -0.2127
76729SOL    HW142166  13.520   4.069   0.228 -2.5756 -2.5814  0.2471
76729SOL    HW242167  13.495   4.205   0.289  1.5071 -0.6849 -1.8872
76730SOL     OW42168  11.877   5.657   8.690  0.0829 -0.0097 -0.4809
76730SOL    HW142169  11.814   5.632   8.757  0.8855  0.1674  0.3547
76730SOL    HW242170  11.895   5.750   8.706  0.2541  0.0454 -0.9621
76731SOL     OW42171  10.240   0.726  11.447  0.1888 -0.3450 -0.1966
76731SOL    HW142172  10.302   0.690  11.383  1.1791 -2.4216  1.7418
76731SOL    HW242173  10.296   0.756  11.519 -0.9245  0.7443  0.2405
76732SOL     OW42174   0.477   7.540   3.931  0.7791 -0.2200  0.0364
76732SOL    HW142175   0.439   7.547   4.018 -0.2768 -1.8177 -0.2666
76732SOL    HW242176   0.403   7.527   3.872  1.3073  2.4714 -1.3749
76733SOL     OW42177   9.407  12.609   0.742 -0.1095 -0.4520 -0.2431
76733SOL    HW142178   9.339  12.605   0.674 -0.7203 -0.0399  0.3277
76733SOL    HW242179   9.477  12.660   0.703 -1.4162  1.8178  0.2251
76734SOL     OW42180   4.430   3.233   0.628 -0.0179  0.4329  0.4500
76734SOL    HW142181   4.432   3.274   0.714  0.6629  0.1656  0.5719
76734SOL    HW242182   4.351   3.267   0.586 -0.0024  1.0748  0.9297
76735SOL     OW42183  12.436  12.563   1.346  0.0564  0.5004  0.2094
76735SOL    HW142184  12.391  12.623   1.405 -0.8572  0.1409 -0.1035
76735SOL    HW242185  12.420  12.476   1.383  0.7637  0.3903  0.2684
76736SOL     OW42186   7.400   4.196   1.523 -0.0027  0.4284  0.1903
76736SOL    HW142187   7.454   4.127   1.484 -1.4609  0.0409 -1.2528
76736SOL    HW242188   7.392   4.170   1.615  0.8930 -0.3861  0.0561
76737SOL     OW42189   8.000  10.293  11.238 -0.0392  0.1496  0.5423
76737SOL    HW142190   8.023  10.220  11.295  0.0040  0.6792  1.2258
76737SOL    HW242191   7.905  10.300  11.243  0.0566  1.0212  1.6304
76738SOL     OW42192  13.238  10.089   8.756  0.3314 -0.3629  0.0708
76738SOL    HW142193  13.330  10.095   8.784  0.2260 -1.8322  0.8678
76738SOL    HW242194  13.188  10.116   8.833  0.0773 -0.4649 -0.0581
76739SOL     OW42195   9.232   0.979   0.489  0.1455  0.6576 -0.6969
76739SOL    HW142196   9.209   0.887   0.476  2.5477 -0.0347 -0.5489
76739SOL    HW242197   9.296   0.978   0.560  0.4033  2.4366 -0.8629
76740SOL     OW42198   1.587   9.001   6.320 -0.3593 -0.2875  0.8682
76740SOL    HW142199   1.541   8.958   6.392  0.4117  1.0426  2.2194
76740SOL    HW242200   1.675   9.016   6.354  0.2449 -0.2601 -0.6362
76741SOL     OW42201   3.117   2.158  10.764 -0.1357 -0.3436  0.1090
76741SOL    HW142202   3.056   2.105  10.712  0.3249 -0.7235 -0.0463
76741SOL    HW242203   3.189   2.177  10.704  1.0378 -1.8834  0.9744
76742SOL     OW42204  13.185   0.294   3.371  0.2141  0.6090 -0.6707
76742SOL    HW142205  13.123   0.222   3.381  1.5942 -0.4397  0.9429
76742SOL    HW242206  13.195   0.329   3.460  1.6036  1.0290 -0.9671
76743SOL     OW42207   0.583   8.937   1.964  0.0848 -0.3622  0.4665
76743SOL    HW142208   0.491   8.961   1.951 -0.0356 -0.7150  0.6474
76743SOL    HW242209   0.583   8.842   1.960  0.5456 -0.3354 -0.1775
76744SOL     OW42210  11.810   5.088   3.882  0.3230 -0.3059 -0.2265
76744SOL    HW142211  11.885   5.076   3.824  1.0897 -2.2068  1.0418
76744SOL    HW242212  11.761   5.160   3.844  1.7505 -0.2998 -2.1939
76745SOL     OW42213   7.397   6.404   0.756  0.8599 -0.1921 -0.6828
76745SOL    HW142214   7.482   6.441   0.782  0.5400  0.4689 -0.5418
76745SOL    HW242215   7.394   6.318   0.798  0.7211  0.5087  0.8063
76746SOL     OW42216  12.581   9.633  13.760  0.1698  0.0617 -0.2487
76746SOL    HW142217  12.549   9.553  13.802  0.3880 -1.2469 -2.4087
76746SOL    HW242218  12.531   9.640  13.679  2.2992  0.3213 -1.6461
76747SOL     OW42219   3.378   2.492   0.864  0.6580  0.2895 -0.3597
76747SOL    HW142220   3.313   2.562   0.860  0.3415  0.0485  0.4690
76747SOL    HW242221   3.411   2.495   0.954  0.0627 -1.1445 -0.0743
76748SOL     OW42222   4.747  12.333   6.759 -0.0425  0.2980 -0.5481
76748SOL    HW142223   4.658  12.367   6.754 -0.9823 -2.0111 -0.7768
76748SOL    HW242224   4.739  12.251   6.809  2.4144  1.3999  1.9735
76749SOL     OW42225   9.580  10.586   6.002  0.1353  0.1701 -0.2583
76749SOL    HW142226   9.533  10.559   6.081  0.5698  1.8599  0.6353
76749SOL    HW242227   9.513  10.591   5.934 -0.1819 -1.6509 -0.1108
76750SOL     OW42228   2.869  10.113  13.547 -0.4801 -0.1542 -0.1692
76750SOL    HW142229   2.776  10.090  13.537 -1.4018  2.2620  1.8057
76750SOL    HW242230   2.870  10.208  13.539  1.7533 -0.0839  0.5148
76751SOL     OW42231  10.737   5.472   0.182  0.0915 -0.2760 -0.1687
76751SOL    HW142232  10.770   5.395   0.135 -1.5052 -1.1765  0.0838
76751SOL    HW242233  10.646   5.480   0.152  0.7336  2.6917 -1.6415
76752SOL     OW42234   7.421  11.829   3.307 -0.7778 -0.5758 -0.0800
76752SOL    HW142235   7.510  11.815   3.340 -0.8903  0.0785  0.5422
76752SOL    HW242236   7.433  11.866   3.219 -0.4601 -1.5957 -0.4755
76753SOL     OW42237   0.160   9.284   3.068  0.3301 -0.4888  0.1540
76753SOL    HW142238   0.197   9.225   3.133  1.4986 -0.4965 -0.4816
76753SOL    HW242239   0.065   9.274   3.077  0.4916 -1.1907  1.1973
76754SOL     OW42240  10.841   6.898   5.826  0.5023 -0.0232 -0.0114
76754SOL    HW142241  10.860   6.807   5.801  0.6169 -0.3180  1.1007
76754SOL    HW242242  10.755   6.894   5.867  1.1105  0.1103  1.3208
76755SOL     OW42243   3.301   8.418   4.702 -0.5473  0.0714  0.0204
76755SOL    HW142244   3.254   8.488   4.747 -2.0883 -0.7147 -0.2937
76755SOL    HW242245   3.301   8.444   4.610 -1.8166 -0.6577 -0.2183
76756SOL     OW42246   3.446   2.251   4.049  0.0038  0.0158 -0.0806
76756SOL    HW142247   3.520   2.284   4.100  1.4216 -3.3605  0.3134
76756SOL    HW242248   3.485   2.220   3.967 -1.5155  1.0066 -1.2206
76757SOL     OW42249   6.871  13.072   1.447 -0.0928 -0.1200 -0.0090
76757SOL    HW142250   6.934  13.142   1.428 -1.5029  1.4808  0.9422
76757SOL    HW242251   6.910  13.023   1.519  0.6473  0.0459 -0.2871
76758SOL     OW42252   8.216   4.853  13.924 -0.4183 -0.6110  0.0565
76758SOL    HW142253   8.194   4.764  13.896 -0.8967 -0.4811  0.0120
76758SOL    HW242254   8.131   4.894  13.941 -0.2189 -0.0551 -0.2631
76759SOL     OW42255  12.018   0.282  11.597 -0.5643  0.2233 -0.0975
76759SOL    HW142256  12.076   0.264  11.671 -0.5022  2.2099  0.4066
76759SOL    HW242257  12.077   0.299  11.524 -0.6126 -1.0279 -0.4480
76760SOL     OW42258   5.455   8.350   2.306  0.3317  0.1368  0.2617
76760SOL    HW142259   5.367   8.349   2.269  0.8829  0.1588 -1.1088
76760SOL    HW242260   5.512   8.369   2.231  1.6217 -1.2237  0.8649
76761SOL     OW42261   1.402   4.811   5.468 -0.1923  0.4732  0.1449
76761SOL    HW142262   1.461   4.879   5.501 -0.8139  1.0311  0.1457
76761SOL    HW242263   1.393   4.750   5.540 -0.3869  0.9110  0.4980
76762SOL     OW42264   7.636  11.261   8.473 -0.2395  0.6985 -0.1719
76762SOL    HW142265   7.677  11.343   8.445  0.0428  1.6822  2.7417
76762SOL    HW242266   7.563  11.289   8.529 -0.2897 -1.0465  0.7023
76763SOL     OW42267  13.972   2.731   4.560  0.4278 -0.0699  0.2473
76763SOL    HW142268  14.052   2.776   4.532  0.8235  0.3918  1.9761
76763SOL    HW242269  14.004   2.648   4.597  0.0560 -0.1383  0.4175
76764SOL     OW42270  12.057   4.648  10.650  0.4021 -0.2249 -0.0248
76764SOL    HW142271  12.061   4.606  10.736 -1.4299 -2.0861 -0.7565
76764SOL    HW242272  12.016   4.733  10.667 -4.0318 -2.1708  0.6614
76765SOL     OW42273  13.658   4.057   9.007 -0.1646 -0.4891 -0.6009
76765SOL    HW142274  13.586   4.120   9.013  1.3371  1.4543 -1.6537
76765SOL    HW242275  13.723   4.101   8.952  1.7263 -2.2592  0.1079
76766SOL     OW42276   2.719  10.588   1.595 -0.4607 -0.3738  0.0716
76766SOL    HW142277   2.744  10.520   1.531  0.1122 -0.4891  0.4046
76766SOL    HW242278   2.763  10.667   1.564 -0.2282 -0.4167  0.2892
76767SOL     OW42279   9.449  13.777   3.760  0.4320  0.0769 -0.0156
76767SOL    HW142280   9.433  13.725   3.682 -0.4605  0.5204 -0.1380
76767SOL    HW242281   9.365  13.817   3.781  0.4437 -0.6571  1.6301
76768SOL     OW42282   2.002   6.052   4.344  0.0393 -0.1490  0.5549
76768SOL    HW142283   2.096   6.050   4.327  0.1376 -0.3416  1.0960
76768SOL    HW242284   1.971   5.964   4.319  0.0031 -0.0804  0.3624
76769SOL     OW42285   4.742   9.362   1.898 -0.7130  0.7816 -0.1566
76769SOL    HW142286   4.832   9.380   1.872 -0.2759 -0.1478  0.6334
76769SOL    HW242287   4.689   9.388   1.823  0.2015  1.4050 -0.6031
76770SOL     OW42288   2.419   8.897   4.129 -0.3488  0.5001 -0.2595
76770SOL    HW142289   2.386   8.876   4.041 -1.2220 -0.2938  0.2460
76770SOL    HW242290   2.513   8.879   4.123 -0.3232  0.8789 -1.1561
76771SOL     OW42291   7.531   1.024   8.807 -0.1216  0.3571 -0.0478
76771SOL    HW142292   7.556   0.960   8.740 -1.1543  0.7562 -0.8373
76771SOL    HW242293   7.455   0.985   8.850 -0.0546  0.5430  0.2395
76772SOL     OW42294   3.878  13.825   8.205 -0.5824  0.4874  0.2570
76772SOL    HW142295   3.803  13.869   8.165  0.5857  1.2315 -1.2527
76772SOL    HW242296   3.953  13.855   8.153  0.6321 -1.0346  1.0478
76773SOL     OW42297   5.141   7.429   9.923 -0.1548 -0.8803  0.7474
76773SOL    HW142298   5.069   7.472   9.969 -1.0131  0.3497 -1.5702
76773SOL    HW242299   5.124   7.336   9.933 -1.3850 -0.6162  1.2997
76774SOL     OW42300   9.420   8.243   9.216  0.2041  0.0555 -0.0750
76774SOL    HW142301   9.486   8.227   9.283 -0.2016 -0.2803  0.2550
76774SOL    HW242302   9.347   8.283   9.264 -0.2479 -0.5620 -0.2408
76775SOL     OW42303   5.545   3.697  13.148  0.4790  0.5474 -0.2864
76775SOL    HW142304   5.625   3.694  13.097  1.2429 -1.9673  0.8696
76775SOL    HW242305   5.553   3.624  13.209 -2.3030  0.7598  0.4845
76776SOL     OW42306  11.072  13.613   4.094 -0.1959 -0.2859 -0.1922
76776SOL    HW142307  11.020  13.599   4.173 -1.7537 -0.0414 -1.1277
76776SOL    HW242308  11.152  13.655   4.125 -1.0232  0.3429  1.1862
76777SOL     OW42309   9.817   1.343   9.679  0.1872  0.5569  0.0390
76777SOL    HW142310   9.831   1.255   9.714  0.2853 -0.0331 -1.4179
76777SOL    HW242311   9.891   1.357   9.620 -0.3791  1.2112 -0.5227
76778SOL     OW42312   8.757   1.182   2.580  0.3093  0.0887  0.0670
76778SOL    HW142313   8.829   1.122   2.603 -0.8924 -0.9965  1.1280
76778SOL    HW242314   8.799   1.268   2.579  1.6193 -0.4937  0.7765
76779SOL     OW42315   4.894   0.241   1.850 -0.6031 -0.0056 -0.4267
76779SOL    HW142316   4.957   0.262   1.919 -0.4122  1.1288 -0.9361
76779SOL    HW242317   4.914   0.150   1.827  1.6272  0.6675 -1.3769
76780SOL     OW42318   3.701   9.335  13.770 -0.2850  0.3307  0.1415
76780SOL    HW142319   3.682   9.298  13.857  1.6172  2.1592  1.4383
76780SOL    HW242320   3.664   9.423  13.773 -2.4283 -0.4127 -1.9144
76781SOL     OW42321  11.030   9.163   3.045 -0.1339  0.3211  0.1718
76781SOL    HW142322  11.063   9.234   3.101 -0.9881  1.3900 -0.6128
76781SOL    HW242323  11.090   9.160   2.971  0.6627 -0.6966  0.8443
76782SOL     OW42324   6.086   6.762   1.698  0.5970  0.4355 -0.1066
76782SOL    HW142325   6.063   6.854   1.682  0.5972  0.4578  0.0172
76782SOL    HW242326   6.117   6.730   1.613  0.2714  0.4530 -0.2310
76783SOL     OW42327   1.559   3.427   3.034 -0.3082  0.1788  0.1478
76783SOL    HW142328   1.472   3.395   3.060 -1.0035  2.3672  0.7526
76783SOL    HW242329   1.598   3.460   3.115 -0.0779  1.6941 -0.5345
76784SOL     OW42330   2.551  10.456   1.809  0.2958 -0.2313 -0.5381
76784SOL    HW142331   2.510  10.486   1.728 -2.9755 -1.0222  0.6860
76784SOL    HW242332   2.500  10.497   1.878 -0.6224 -3.7871  1.1447
76785SOL     OW42333   9.886   5.649  12.080 -0.2007  0.1454 -0.5188
76785SOL    HW142334   9.887   5.743  12.062  0.6836  0.0049 -1.3106
76785SOL    HW242335   9.915   5.641  12.171 -0.5724  0.6560 -0.3538
76786SOL     OW42336   1.239   8.957   2.585 -0.0232  0.1405  0.9093
76786SOL    HW142337   1.248   8.934   2.677 -0.8153  1.4134  1.3374
76786SOL    HW242338   1.148   8.938   2.564  0.1029  0.0388  0.4341
76787SOL     OW42339   8.428   7.627   9.188 -0.3456  0.3175 -0.4886
76787SOL    HW142340   8.504   7.590   9.143  0.9174  2.7566 -0.5128
76787SOL    HW242341   8.414   7.712   9.147 -1.7081  0.8744  1.0160
76788SOL     OW42342   8.772   5.621  13.657  0.2688  0.5505  0.1513
76788SOL    HW142343   8.794   5.584  13.743  1.6341  2.0810  0.5170
76788SOL    HW242344   8.788   5.549  13.595 -1.1911 -0.7187  1.1761
76789SOL     OW42345   1.533   7.691  13.866  0.0630  0.6669 -0.2339
76789SOL    HW142346   1.498   7.748  13.798  3.1636  0.6999 -1.9917
76789SOL    HW242347   1.562   7.750  13.935  1.5996  1.1608 -1.2457
76790SOL     OW42348   3.863  11.765   5.483 -0.0058 -0.0719  0.3170
76790SOL    HW142349   3.897  11.794   5.567  1.3449  1.6004 -0.7181
76790SOL    HW242350   3.768  11.768   5.492  0.0861  2.3694  1.1121
76791SOL     OW42351  11.578   2.839  10.300 -0.0993  0.0655  0.1261
76791SOL    HW142352  11.552   2.847  10.208 -0.0188  0.2777  0.1210
76791SOL    HW242353  11.528   2.765  10.333  0.9985 -0.9707 -0.4835
76792SOL     OW42354  10.571  13.167   8.344  0.2364  0.0894  0.7757
76792SOL    HW142355  10.643  13.198   8.288 -0.9576  1.1968 -0.1843
76792SOL    HW242356  10.614  13.107   8.405  1.4282 -2.4316 -2.2358
76793SOL     OW42357   5.967   2.909   2.821 -0.4420  0.0771  0.4864
76793SOL    HW142358   5.937   2.996   2.849  0.6833 -0.0074  2.0772
76793SOL    HW242359   6.023   2.879   2.892 -1.2840 -2.2380  0.2488
76794SOL     OW42360  13.814  12.770   4.171 -0.6488  0.1739 -0.1630
76794SOL    HW142361  13.882  12.714   4.135 -1.9257 -0.8000 -1.1705
76794SOL    HW242362  13.830  12.856   4.133  0.0669 -0.0221 -0.3066
76795SOL     OW42363  10.088   7.427   3.022 -0.2998 -0.3581  0.1687
76795SOL    HW142364  10.127   7.514   3.033  1.1257 -1.1150  1.5983
76795SOL    HW242365  10.141   7.385   2.954 -0.6475 -0.2843 -0.1464
76796SOL     OW42366   1.658   1.820   4.960  0.3295  0.1559  0.1220
76796SOL    HW142367   1.699   1.864   4.886  1.5876 -0.8897  0.1578
76796SOL    HW242368   1.613   1.745   4.921  0.4538 -0.0352  0.3476
76797SOL     OW42369   1.365   6.097   4.367 -0.0454  0.5693  0.5977
76797SOL    HW142370   1.377   6.191   4.379  0.3439  0.5169  0.6310
76797SOL    HW242371   1.375   6.084   4.272  0.6335  0.4615  0.6800
76798SOL     OW42372   3.815   7.600   8.249  0.2174 -0.4807 -0.3833
76798SOL    HW142373   3.739   7.655   8.228  0.2904 -0.3181 -0.2298
76798SOL    HW242374   3.778   7.527   8.299  0.1242 -0.5490 -0.5531
76799SOL     OW42375   3.998   0.993   6.089 -0.3119 -0.1709  0.0929
76799SOL    HW142376   4.041   1.022   6.008 -0.4700 -0.0177  0.0654
76799SOL    HW242377   3.944   1.067   6.115 -1.3973 -0.7542 -0.4562
76800SOL     OW42378  13.093   5.237  11.424  0.2757 -0.0729  0.1561
76800SOL    HW142379  13.109   5.181  11.348 -2.1249 -1.2894  0.4495
76800SOL    HW242380  13.098   5.177  11.499  2.0365  1.0027  0.9485
76801SOL     OW42381  11.438   1.468   2.359  0.2801 -0.5361 -0.0807
76801SOL    HW142382  11.431   1.533   2.288  0.0941  0.7093  1.0475
76801SOL    HW242383  11.519   1.421   2.339  2.2518  2.2246  0.7662
76802SOL     OW42384   1.084   1.129  12.128 -0.4068  0.3550  0.5367
76802SOL    HW142385   1.112   1.081  12.050  0.2271  1.1551  0.2584
76802SOL    HW242386   1.164   1.140  12.180 -0.3167  1.9660  0.1120
76803SOL     OW42387  10.172   8.115   5.191  0.4701  0.2552 -0.1154
76803SOL    HW142388  10.246   8.054   5.189  1.0839  0.9397  0.7289
76803SOL    HW242389  10.207   8.192   5.236 -1.3144 -0.1466  2.0967
76804SOL     OW42390   4.955  13.516   3.497  0.0497  0.4499 -0.0946
76804SOL    HW142391   4.940  13.597   3.545 -0.0054  1.0745 -1.1487
76804SOL    HW242392   4.868  13.491   3.464  0.4381  1.3372 -1.8980
76805SOL     OW42393  10.080   9.566   7.425 -0.0821  0.1711 -0.5342
76805SOL    HW142394  10.003   9.514   7.448  0.6533 -0.6835  0.0756
76805SOL    HW242395  10.090   9.553   7.330  1.0505 -2.2309 -0.1596
76806SOL     OW42396   6.686  11.830   6.567  0.2600  0.4045 -0.4732
76806SOL    HW142397   6.744  11.837   6.643 -0.4238  1.1634 -0.0019
76806SOL    HW242398   6.710  11.747   6.526  0.3133 -0.2578  0.8413
76807SOL     OW42399   1.685   8.664   1.156  0.0300 -0.0564  0.0983
76807SOL    HW142400   1.722   8.596   1.212 -1.5642 -0.1257  1.1254
76807SOL    HW242401   1.632   8.718   1.216  0.2922  1.3766 -0.9027
76808SOL     OW42402   1.006   8.130   4.538 -0.2000  0.0562 -0.3911
76808SOL    HW142403   0.973   8.109   4.625 -0.2363  0.5152 -0.2884
76808SOL    HW242404   1.102   8.127   4.547 -0.1532 -2.4270 -0.9736
76809SOL     OW42405  12.105   5.431   7.715 -0.5667 -0.3742  0.5786
76809SOL    HW142406  12.111   5.497   7.646  0.7707 -1.1451 -0.0821
76809SOL    HW242407  12.161   5.465   7.785  0.1951 -0.8292  0.2016
76810SOL     OW42408  10.030   5.457   5.919 -0.3743 -0.0198  0.0865
76810SOL    HW142409   9.943   5.442   5.956 -1.5552  0.4661 -2.2796
76810SOL    HW242410  10.037   5.552   5.911  0.3708 -0.0535  0.1966
76811SOL     OW42411   3.901   0.711   9.340 -0.1598  0.5565 -0.5597
76811SOL    HW142412   3.912   0.741   9.250 -0.9681  1.6734 -0.3147
76811SOL    HW242413   3.845   0.778   9.380 -0.7682 -0.5236  0.4485
76812SOL     OW42414   5.285  11.017   3.169  0.5374  0.3791 -0.5700
76812SOL    HW142415   5.231  11.076   3.116 -0.2670  1.2571  1.1788
76812SOL    HW242416   5.248  11.022   3.257  0.0268 -3.1845 -0.4052
76813SOL     OW42417   6.088   4.776   3.126  0.6113  0.4571 -0.0791
76813SOL    HW142418   6.178   4.776   3.159  0.2165 -1.4746  1.1500
76813SOL    HW242419   6.062   4.868   3.130  2.5076  1.0609 -0.4437
76814SOL     OW42420   0.196  10.494  11.845 -0.2237  0.1808 -0.3582
76814SOL    HW142421   0.118  10.453  11.882 -0.5197 -0.5696 -1.7529
76814SOL    HW242422   0.254  10.507  11.920 -1.6928  0.7885  0.6969
76815SOL     OW42423   5.912   0.536  10.637  0.1888  0.3186  0.1070
76815SOL    HW142424   5.858   0.574  10.568 -1.1799 -2.2333 -0.3767
76815SOL    HW242425   5.878   0.574  10.718 -2.4666 -1.1672 -0.1860
76816SOL     OW42426   9.897  11.839   9.894  0.4364  0.5733  0.6245
76816SOL    HW142427   9.928  11.918   9.851  1.3814 -1.3271 -2.5455
76816SOL    HW242428   9.805  11.832   9.870  0.5772  0.2893  0.1510
76817SOL     OW42429  13.053   9.337   7.876 -0.2774 -0.0281  0.4022
76817SOL    HW142430  13.093   9.359   7.960 -0.1844  2.2691 -0.1710
76817SOL    HW242431  13.008   9.417   7.850 -0.7519 -0.8674 -1.4929
76818SOL     OW42432   1.325   7.144   8.734 -0.0361 -0.4367 -0.0833
76818SOL    HW142433   1.326   7.053   8.707 -0.3053 -0.3016 -0.5614
76818SOL    HW242434   1.407   7.156   8.782  0.2756 -0.7830 -0.5210
76819SOL     OW42435   1.084  13.656  10.802  0.2022  0.3060  0.1485
76819SOL    HW142436   1.030  13.725  10.840 -0.4893 -0.9403  1.5181
76819SOL    HW242437   1.052  13.576  10.842  1.2701 -0.7777 -1.0851
76820SOL     OW42438   4.659   9.027  13.185  0.0822 -0.0654 -0.1155
76820SOL    HW142439   4.603   8.949  13.180  2.3933 -1.7725 -2.2546
76820SOL    HW242440   4.721   9.007  13.255  1.0444 -0.4960 -1.0543
76821SOL     OW42441   7.777   7.089   3.077 -0.1982 -0.0551 -0.3499
76821SOL    HW142442   7.817   7.019   3.025  1.2915 -0.5947  1.3922
76821SOL    HW242443   7.811   7.170   3.040  0.0333 -0.3706 -0.8351
76822SOL     OW42444   5.285   3.012   9.717  0.4791 -0.5239  0.9618
76822SOL    HW142445   5.300   2.918   9.703  1.3254 -0.3235  0.4298
76822SOL    HW242446   5.370   3.052   9.699 -0.2066  0.4767 -0.1686
76823SOL     OW42447   6.102   4.001   5.497 -0.1382  0.1176  0.0775
76823SOL    HW142448   6.154   3.961   5.427 -0.5672  1.5586 -1.1409
76823SOL    HW242449   6.122   4.095   5.490  0.7646  0.2000  2.7407
76824SOL     OW42450   7.157  12.864   5.758  0.2023  0.1838  0.1643
76824SOL    HW142451   7.212  12.942   5.756  1.1878 -0.5156 -0.4057
76824SOL    HW242452   7.217  12.791   5.770 -0.4507 -0.7038 -1.5255
76825SOL     OW42453  11.447  13.755   1.167  0.4869 -0.7733 -0.3412
76825SOL    HW142454  11.366  13.706   1.179 -0.0882 -0.1404 -1.4922
76825SOL    HW242455  11.444  13.824   1.234 -0.8120  0.3345 -1.4671
76826SOL     OW42456   0.085  11.678  13.132  0.7013 -0.0240 -0.0409
76826SOL    HW142457   0.156  11.627  13.093 -0.2553 -1.0750 -0.4518
76826SOL    HW242458   0.117  11.700  13.220  1.6243 -0.2730 -0.3054
76827SOL     OW42459  13.519   3.036   9.644 -0.2610  0.7156 -1.0570
76827SOL    HW142460  13.460   2.989   9.703  0.6298 -0.8321 -1.3249
76827SOL    HW242461  13.550   3.111   9.695  2.3095 -1.8116  1.4720
76828SOL     OW42462   7.055   2.469   2.419 -0.1778  0.3119  0.9383
76828SOL    HW142463   7.108   2.488   2.497 -0.7957 -0.8604  1.6686
76828SOL    HW242464   6.966   2.458   2.453 -0.6415  0.7590 -0.0809
76829SOL     OW42465  14.022  10.357  11.974 -0.9545  0.8500  1.1966
76829SOL    HW142466  14.000  10.299  11.901  2.0188  1.7189 -0.5457
76829SOL    HW242467  14.065  10.300  12.037 -2.2424  0.3678  1.6793
76830SOL     OW42468   5.636   6.168   4.268  0.2069  0.4921 -0.2727
76830SOL    HW142469   5.621   6.249   4.318  0.1041 -0.1583  0.7836
76830SOL    HW242470   5.730   6.152   4.276  0.1026  0.0918  0.1888
76831SOL     OW42471   1.337   0.278   2.923  0.9513 -0.0964  0.2574
76831SOL    HW142472   1.344   0.292   2.828  0.9097  1.1108  0.4088
76831SOL    HW242473   1.361   0.187   2.936 -0.3057 -0.6519 -1.0567
76832SOL     OW42474   9.285  13.555   9.523  0.0333 -0.1632 -0.2585
76832SOL    HW142475   9.307  13.597   9.440 -1.6613 -0.7930 -1.0808
76832SOL    HW242476   9.370  13.533   9.562  0.8777  1.1141 -1.3020
76833SOL     OW42477   2.266   2.501   2.247  0.1659 -0.1715  0.0270
76833SOL    HW142478   2.342   2.518   2.302  0.2544  1.8454 -0.6241
76833SOL    HW242479   2.192   2.540   2.294  0.4951  3.1091 -1.8878
76834SOL     OW42480  12.355   2.756   1.545 -0.2668 -0.4754 -0.1890
76834SOL    HW142481  12.391   2.742   1.458 -1.1109 -3.0285 -0.2022
76834SOL    HW242482  12.413   2.708   1.604 -0.4104  0.1938  0.5228
76835SOL     OW42483   3.653   3.165  11.736  0.2145 -0.1809  0.0350
76835SOL    HW142484   3.628   3.232  11.800  0.2393 -0.3390  0.2105
76835SOL    HW242485   3.702   3.100  11.787  1.9795  0.6637 -0.4705
76836SOL     OW42486   0.009  13.349  12.559 -0.5769  0.4660  0.2041
76836SOL    HW142487  -0.011  13.391  12.642  0.8723 -0.0773  0.8667
76836SOL    HW242488   0.078  13.286  12.580 -1.1749 -0.6858 -1.1607
76837SOL     OW42489   5.610  12.652   7.659  0.1417 -0.0502 -0.0526
76837SOL    HW142490   5.608  12.728   7.716  0.3310 -1.3479  1.7577
76837SOL    HW242491   5.530  12.604   7.679  1.1504 -1.5235  0.5930
76838SOL     OW42492   0.179   8.610   8.060 -0.4254 -0.1710  0.8366
76838SOL    HW142493   0.271   8.588   8.078 -0.8025 -0.9311  1.9064
76838SOL    HW242494   0.172   8.702   8.085  0.2852  0.2187 -0.2760
76839SOL     OW42495   1.963   7.256  10.936  0.4574  0.3085 -0.1381
76839SOL    HW142496   1.913   7.317  10.882  0.3011  0.1718 -0.1482
76839SOL    HW242497   1.950   7.288  11.026  0.1992  0.1606 -0.1249
76840SOL     OW42498  13.360   3.693   0.472 -0.1969 -0.4767 -0.4057
76840SOL    HW142499  13.363   3.602   0.502  0.4372  0.2824  2.0636
76840SOL    HW242500  13.417   3.695   0.396  1.4145 -1.7838  0.7056
76841SOL     OW42501   8.661  13.810   9.353  0.0385  0.4702 -0.2600
76841SOL    HW142502   8.621  13.818   9.266 -1.6284  0.9639  0.5136
76841SOL    HW242503   8.617  13.735   9.393  0.4498  0.5418  0.3370
76842SOL     OW42504  13.047   4.183  13.772  0.3928 -0.1537 -0.2216
76842SOL    HW142505  12.967   4.167  13.722  1.0224 -0.5043 -1.1427
76842SOL    HW242506  13.024   4.254  13.832 -0.7896 -0.6706 -0.0280
76843SOL     OW42507   7.195   9.360   3.836 -0.1499  0.1845 -0.1254
76843SOL    HW142508   7.268   9.353   3.897 -1.4371  0.3558  1.5068
76843SOL    HW242509   7.231   9.330   3.752  1.3856 -1.1760  0.9424
76844SOL     OW42510   8.309   7.757   1.591  0.0571  0.4117  0.2098
76844SOL    HW142511   8.362   7.703   1.533  3.2637  0.0401  3.1393
76844SOL    HW242512   8.263   7.695   1.647  1.6554  0.6393  1.8429
76845SOL     OW42513   1.231   2.953   8.630 -0.2369  0.0676 -0.6014
76845SOL    HW142514   1.226   2.935   8.724  1.8399  0.9154 -0.2816
76845SOL    HW242515   1.320   2.927   8.605 -0.5720  0.3790 -2.2287
76846SOL     OW42516  12.646  11.020  12.486 -0.0685  1.0344  0.1447
76846SOL    HW142517  12.625  11.009  12.393 -0.1822 -0.2474  0.2990
76846SOL    HW242518  12.592  11.093  12.514 -1.6528  0.0924 -0.3207
76847SOL     OW42519   9.538   7.579  11.240  0.4911 -0.0939  0.8047
76847SOL    HW142520   9.503   7.642  11.303  0.3576  0.6637 -0.0103
76847SOL    HW242521   9.605   7.531  11.289  0.1289  0.2266  1.6281
76848SOL     OW42522  13.816   5.232   3.578 -0.1752  0.5675  0.1768
76848SOL    HW142523  13.797   5.149   3.622 -2.4843  0.7778 -0.2694
76848SOL    HW242524  13.862   5.285   3.643  1.6023 -1.1403  0.3693
76849SOL     OW42525   1.800   0.573  13.529  0.0247  0.2036 -0.8356
76849SOL    HW142526   1.835   0.510  13.593 -0.3590 -0.0554 -0.8716
76849SOL    HW242527   1.864   0.644  13.527  0.3835 -0.1103 -0.6704
76850SOL     OW42528  10.067   7.709  13.320  0.2556 -0.1687 -0.0046
76850SOL    HW142529  10.046   7.794  13.281  0.2483  0.0614  0.4983
76850SOL    HW242530  10.035   7.715  13.410 -1.1282 -1.2597 -0.3994
76851SOL     OW42531  11.254  11.174   8.896 -0.7063 -0.5181  0.4469
76851SOL    HW142532  11.202  11.145   8.822 -0.6229 -0.1838  0.2511
76851SOL    HW242533  11.220  11.126   8.971 -1.3221 -0.2633  0.3290
76852SOL     OW42534  13.208   2.851  11.974 -0.2983  0.4638  0.1224
76852SOL    HW142535  13.154   2.930  11.970  0.2665  0.8229 -0.6826
76852SOL    HW242536  13.194   2.816  12.062 -2.3997  0.1553 -0.2851
76853SOL     OW42537  13.600   3.002   8.734 -0.0123  0.0653 -0.5320
76853SOL    HW142538  13.541   3.012   8.659  0.1811  0.1579 -0.6741
76853SOL    HW242539  13.573   2.921   8.776 -1.0019  0.6995  0.0913
76854SOL     OW42540   1.132   0.049  11.772 -0.0318  0.2451  0.0930
76854SOL    HW142541   1.093   0.136  11.758  0.6232  0.5982  0.4367
76854SOL    HW242542   1.212   0.050  11.719 -0.5231 -0.5132 -0.6923
76855SOL     OW42543   7.010   8.766   1.942  0.0776  0.2996  0.4206
76855SOL    HW142544   6.971   8.695   1.890  0.5113  0.0837  0.3897
76855SOL    HW242545   6.935   8.819   1.969  0.0070  2.1739 -2.9355
76856SOL     OW42546   7.580   9.837   6.037  0.2785 -0.5368 -0.1110
76856SOL    HW142547   7.670   9.852   6.068  0.8577 -2.5131 -0.6940
76856SOL    HW242548   7.591   9.799   5.950 -1.2398  1.7874 -1.4401
76857SOL     OW42549   4.847   6.347   6.720  0.3460 -0.1716  0.4727
76857SOL    HW142550   4.831   6.253   6.713  0.5739 -0.2100  0.4687
76857SOL    HW242551   4.845   6.378   6.630 -0.9518  0.0317  0.5559
76858SOL     OW42552  10.912   7.296   2.539 -0.7222 -0.5324  0.0759
76858SOL    HW142553  10.979   7.354   2.503 -1.1463 -0.1287 -0.0677
76858SOL    HW242554  10.961   7.234   2.594 -0.2694 -0.0516  0.2220
76859SOL     OW42555  12.235   3.445   1.990 -0.0779 -0.0272 -0.1555
76859SOL    HW142556  12.311   3.452   1.932  0.0402  1.2562  0.1216
76859SOL    HW242557  12.171   3.506   1.953 -0.2692  0.2778  0.6499
76860SOL     OW42558  11.051   1.535   2.439 -0.2563 -0.4522  0.2000
76860SOL    HW142559  11.135   1.516   2.481  0.8653 -2.7952 -2.7705
76860SOL    HW242560  11.040   1.465   2.375 -2.6736  1.8705 -2.1718
76861SOL     OW42561   4.277  13.175   8.779  0.3568  0.1101  0.4546
76861SOL    HW142562   4.346  13.150   8.716  0.3134 -4.5550  1.8319
76861SOL    HW242563   4.312  13.146   8.863 -2.0272  0.5578  1.6473
76862SOL     OW42564  13.929   3.194   6.154 -0.0117 -0.3707  0.4558
76862SOL    HW142565  13.973   3.274   6.184 -0.2988 -0.4347  1.0500
76862SOL    HW242566  13.916   3.142   6.233 -3.3221  0.6686  0.7275
76863SOL     OW42567  13.931  11.249   3.140  0.1365  0.1430 -0.1999
76863SOL    HW142568  14.023  11.275   3.146  0.2129 -0.0679 -0.4525
76863SOL    HW242569  13.882  11.331   3.149  0.3418  0.2338  0.1191
76864SOL     OW42570   0.600   5.558  11.841 -0.0755 -0.4404 -0.6619
76864SOL    HW142571   0.517   5.605  11.840  0.5517  0.7192 -1.9794
76864SOL    HW242572   0.639   5.576  11.755  1.1589 -1.6578 -0.4022
76865SOL     OW42573   7.637  10.370   4.714 -0.2797 -0.4073  0.0205
76865SOL    HW142574   7.561  10.422   4.689 -0.7191 -0.6756  0.7558
76865SOL    HW242575   7.605  10.279   4.712 -0.2075 -0.4704  1.0684
76866SOL     OW42576   0.371  13.698   0.750  0.3292 -0.2713  0.2356
76866SOL    HW142577   0.440  13.669   0.690 -0.6419 -1.4588 -0.3473
76866SOL    HW242578   0.305  13.737   0.694  0.9589  1.8726  0.8906
76867SOL     OW42579   6.660  11.223  11.740 -0.2594 -0.0722 -0.3233
76867SOL    HW142580   6.621  11.264  11.663 -3.1376  0.6530  1.3852
76867SOL    HW242581   6.717  11.291  11.777 -0.3206  0.2258 -0.7659
76868SOL     OW42582   8.238   4.348   5.894 -0.0377 -0.0366  0.0059
76868SOL    HW142583   8.212   4.424   5.842 -0.6107  1.0372  1.8041
76868SOL    HW242584   8.326   4.368   5.924  0.2843 -0.6478 -0.5040
76869SOL     OW42585  13.562   5.233  11.135 -0.1397 -0.4549 -0.1885
76869SOL    HW142586  13.628   5.302  11.130  0.8783 -1.1255  2.3969
76869SOL    HW242587  13.531   5.222  11.045  2.4733  0.6559 -1.3054
76870SOL     OW42588   4.232   2.614   4.877 -0.5653  0.6998 -0.7495
76870SOL    HW142589   4.202   2.563   4.952 -1.9853  0.6459 -1.3336
76870SOL    HW242590   4.324   2.588   4.866 -0.2427  0.9037  1.1059
76871SOL     OW42591   0.312  13.718   9.441 -0.0007  0.2965 -0.1809
76871SOL    HW142592   0.374  13.719   9.513  0.7791  0.2780 -0.8305
76871SOL    HW242593   0.262  13.637   9.453  0.0443  0.3568  0.3984
76872SOL     OW42594   1.944   5.633   0.229  0.1934 -1.0181  0.0547
76872SOL    HW142595   1.996   5.637   0.148 -0.1199  2.0503 -0.1273
76872SOL    HW242596   2.006   5.655   0.298 -0.4898  1.6167 -0.0486
76873SOL     OW42597  14.016  13.852   8.282 -0.3097  0.1330  0.1473
76873SOL    HW142598  14.049  13.779   8.229  0.5862 -0.3395  1.3054
76873SOL    HW242599  13.924  13.860   8.257  0.0981 -0.0249 -1.5020
76874SOL     OW42600  11.240   8.764   4.851 -0.5183  0.2071  0.6127
76874SOL    HW142601  11.181   8.725   4.916 -0.6400  0.2536  0.5313
76874SOL    HW242602  11.314   8.796   4.902 -0.1213 -0.6821  0.6129
76875SOL     OW42603  12.732  10.898   9.540 -0.1912  0.2143 -0.4284
76875SOL    HW142604  12.696  10.851   9.615  0.8081  0.2365  0.0781
76875SOL    HW242605  12.744  10.831   9.473  1.6012 -0.3652  0.4205
76876SOL     OW42606   0.245   0.801  12.281  0.0180 -0.2829  0.1032
76876SOL    HW142607   0.160   0.782  12.320  0.9945  0.2923  2.6647
76876SOL    HW242608   0.251   0.896  12.278  1.4099 -0.2304  2.1325
76877SOL     OW42609  11.398   8.385   5.616 -0.6415  0.5515 -0.5429
76877SOL    HW142610  11.487   8.375   5.583 -0.8002  1.7140 -1.3727
76877SOL    HW242611  11.408   8.404   5.709 -0.0294  0.6803 -0.6350
76878SOL     OW42612   8.247   1.141   6.794 -0.1606  0.2519 -0.3189
76878SOL    HW142613   8.164   1.152   6.746  0.7102  1.2624 -1.6663
76878SOL    HW242614   8.246   1.212   6.858  0.0611  0.8400 -0.9548
76879SOL     OW42615   0.115  10.407   4.672 -0.3997  0.3760 -0.3253
76879SOL    HW142616   0.094  10.334   4.613 -0.3440 -1.0622  1.3260
76879SOL    HW242617   0.190  10.451   4.632 -0.4106 -0.5107 -1.3477
76880SOL     OW42618  11.973  11.181   2.096  0.4445  0.5048  0.1235
76880SOL    HW142619  11.906  11.156   2.160  0.5938 -1.4219 -0.3965
76880SOL    HW242620  12.048  11.208   2.149 -0.0009  0.5558  0.7441
76881SOL     OW42621   2.883   1.612   8.410  0.5304  0.1394  0.3800
76881SOL    HW142622   2.851   1.529   8.375 -0.5028  0.4726  0.5111
76881SOL    HW242623   2.965   1.589   8.454  0.2796 -0.7995  0.3808
76882SOL     OW42624   6.959  11.464   3.735  0.0503  0.1973 -0.7848
76882SOL    HW142625   6.904  11.515   3.675 -0.1427  1.9747  0.8412
76882SOL    HW242626   7.027  11.525   3.764  0.8483 -0.9744 -0.0964
76883SOL     OW42627   3.968   0.741   0.053 -0.3535 -0.8748 -0.1209
76883SOL    HW142628   4.061   0.747   0.073 -0.1915  2.0205 -1.3264
76883SOL    HW242629   3.963   0.740  -0.042 -1.5738  0.9642 -0.1257
76884SOL     OW42630   3.754   9.097   5.508  0.1551 -0.1553 -0.8160
76884SOL    HW142631   3.754   9.104   5.412  2.6195 -3.0968 -1.2084
76884SOL    HW242632   3.664   9.075   5.531 -0.1859 -0.8768 -2.6656
76885SOL     OW42633   0.869   1.199   3.678 -0.3762  0.5169  0.2081
76885SOL    HW142634   0.910   1.279   3.712 -1.2532  1.2357 -0.3812
76885SOL    HW242635   0.907   1.129   3.730  1.0220  1.2257  0.2045
76886SOL     OW42636   9.143  11.432   7.813  0.6758  0.0925 -0.0286
76886SOL    HW142637   9.049  11.419   7.823  0.7624 -0.6438 -0.1684
76886SOL    HW242638   9.180  11.344   7.814  1.4572  0.4153  0.8867
76887SOL     OW42639  11.129   7.838   1.442  0.5158  0.7296  0.0425
76887SOL    HW142640  11.038   7.866   1.454  0.2708 -0.0314  0.0333
76887SOL    HW242641  11.126   7.743   1.451  1.0968  0.5622 -1.2882
76888SOL     OW42642   5.576  12.849  12.597 -0.1455 -0.4304 -0.4415
76888SOL    HW142643   5.610  12.937  12.610 -1.1042  0.1778 -1.8256
76888SOL    HW242644   5.622  12.817  12.519  1.0393 -1.6304  0.6958
76889SOL     OW42645   0.545   9.261  12.573 -0.1346  0.0010 -0.4452
76889SOL    HW142646   0.567   9.283  12.664 -1.5881  0.1904 -0.1132
76889SOL    HW242647   0.525   9.168  12.576 -1.4299  0.2672 -0.2898
76890SOL     OW42648   7.660   2.689   0.327  0.3890  0.3480  0.6854
76890SOL    HW142649   7.638   2.736   0.246 -0.0091 -0.2770  0.4244
76890SOL    HW242650   7.579   2.692   0.379 -0.4066 -1.9949 -0.2934
76891SOL     OW42651  11.326  10.309  10.107 -0.0910  0.1054 -0.5389
76891SOL    HW142652  11.301  10.399  10.085  0.8096  0.7816  1.0441
76891SOL    HW242653  11.288  10.293  10.193  0.0430 -0.9284 -0.6506
76892SOL     OW42654  11.074  13.009   9.506 -0.4199 -0.3266  0.3096
76892SOL    HW142655  11.152  13.003   9.451 -1.2839  0.8885 -1.1344
76892SOL    HW242656  11.006  12.964   9.457 -1.1644  0.6003  0.4512
76893SOL     OW42657  10.214   1.832   6.665 -0.0837 -0.2706  0.1251
76893SOL    HW142658  10.124   1.858   6.685 -0.1484  0.4460 -1.0307
76893SOL    HW242659  10.220   1.742   6.696 -0.9918 -0.1087  0.8186
76894SOL     OW42660   7.560  11.206   3.797 -0.2234 -0.0896 -0.0601
76894SOL    HW142661   7.566  11.288   3.749 -1.7952  0.8018  1.1502
76894SOL    HW242662   7.604  11.142   3.742  0.9602  1.5370 -1.0750
76895SOL     OW42663   8.217   6.863   6.565  0.1447  0.1365 -0.3480
76895SOL    HW142664   8.247   6.775   6.589 -0.3811 -0.0085 -0.1985
76895SOL    HW242665   8.229   6.868   6.470  1.7105  0.5052 -0.1479
76896SOL     OW42666   1.609   0.857  10.414  0.0888  0.0950  0.4239
76896SOL    HW142667   1.688   0.902  10.384 -0.7174  1.0558 -0.3530
76896SOL    HW242668   1.607   0.872  10.508  0.9393 -0.1241  0.4875
76897SOL     OW42669   9.743  13.508   0.444  0.2658  0.0542  0.5056
76897SOL    HW142670   9.828  13.541   0.471  0.4575  0.2705 -0.3291
76897SOL    HW242671   9.747  13.414   0.461  0.0432  0.3114  2.0528
76898SOL     OW42672   1.370   4.988   6.014  0.1420 -0.3071  0.0013
76898SOL    HW142673   1.394   4.991   5.922  0.0786 -3.9810 -0.2741
76898SOL    HW242674   1.451   5.006   6.061  0.7076 -0.7237 -0.8023
76899SOL     OW42675  10.065  13.738   0.238 -0.0353 -0.1359 -0.4295
76899SOL    HW142676   9.975  13.753   0.265  0.6188  1.5254  1.0207
76899SOL    HW242677  10.118  13.775   0.309  1.7991 -1.3192 -1.0993
76900SOL     OW42678   9.751  10.767  11.252 -0.3010 -0.3491 -0.0674
76900SOL    HW142679   9.719  10.718  11.328 -0.9373 -0.9864 -0.7290
76900SOL    HW242680   9.811  10.832  11.289  0.0248 -1.1680  0.8993
76901SOL     OW42681   7.905   2.748  12.285  0.5650 -0.5531  0.6269
76901SOL    HW142682   7.900   2.836  12.322  1.2397 -1.0102  1.8528
76901SOL    HW242683   7.953   2.697  12.350 -0.3674 -1.9914  0.2356
76902SOL     OW42684   7.871   0.945   4.431  0.2722 -0.1219  0.5046
76902SOL    HW142685   7.947   0.985   4.390  0.0743 -0.5686 -0.3122
76902SOL    HW242686   7.878   0.852   4.411 -0.1474 -0.2662  0.9806
76903SOL     OW42687  13.563  10.682   9.803 -0.4767  0.1432 -0.3086
76903SOL    HW142688  13.580  10.602   9.853 -1.0765  0.6302  0.7265
76903SOL    HW242689  13.650  10.718   9.786 -0.2417  1.2617  2.6560
76904SOL     OW42690   3.095   1.481   5.100 -0.3095  0.8577 -0.1607
76904SOL    HW142691   3.166   1.518   5.048  1.1279  0.6913  1.5983
76904SOL    HW242692   3.124   1.392   5.121 -1.9699  0.0488 -1.0948
76905SOL     OW42693   7.365   8.004   6.881 -0.2755  0.1467 -0.4523
76905SOL    HW142694   7.346   8.066   6.810 -3.9195  0.7913  0.8670
76905SOL    HW242695   7.354   7.918   6.840 -0.5867  0.4811 -1.0928
76906SOL     OW42696   7.268   4.755  11.015  0.3100 -0.2272  0.1805
76906SOL    HW142697   7.207   4.690  10.980 -0.7446  1.1521 -0.6781
76906SOL    HW242698   7.328   4.773  10.943  0.0230  0.4035  0.0926
76907SOL     OW42699  11.722   5.383   1.570 -0.1618  0.0938 -0.0002
76907SOL    HW142700  11.704   5.420   1.483 -1.1165 -1.5070 -0.5327
76907SOL    HW242701  11.768   5.301   1.551 -1.1011 -0.6797  0.9456
76908SOL     OW42702   8.527   5.788   0.525  0.0314 -0.0223 -0.1144
76908SOL    HW142703   8.493   5.864   0.476  0.5047 -0.0926 -0.5599
76908SOL    HW242704   8.493   5.712   0.478 -0.9552 -0.1066  0.6900
76909SOL     OW42705  13.450   2.524  13.856 -0.3223 -0.2971  0.0579
76909SOL    HW142706  13.484   2.465  13.790 -0.5650  0.0822 -0.4115
76909SOL    HW242707  13.378   2.476  13.898 -1.7736  0.3298 -1.5906
76910SOL     OW42708  11.271  11.623   5.582  0.2334 -0.3108  0.2822
76910SOL    HW142709  11.312  11.693   5.632 -2.1768  0.8759  0.7651
76910SOL    HW242710  11.260  11.552   5.644 -0.5595  0.2621  0.8217
76911SOL     OW42711   4.372   7.399   5.394 -0.3449  0.0274 -0.2432
76911SOL    HW142712   4.413   7.362   5.472  0.4091  1.6376  0.1622
76911SOL    HW242713   4.315   7.329   5.361 -0.3417 -0.8401  1.4862
76912SOL     OW42714   4.974  13.584   1.140  0.1957 -0.0682  0.3338
76912SOL    HW142715   4.948  13.501   1.180 -0.6576  0.2905  0.5547
76912SOL    HW242716   4.936  13.582   1.053  0.8491 -0.2381  0.0443
76913SOL     OW42717   3.885  10.157  13.163 -0.5773  0.4361 -0.0607
76913SOL    HW142718   3.938  10.103  13.105 -1.2284  0.9799 -1.1832
76913SOL    HW242719   3.841  10.094  13.220  0.8449 -0.0490  0.5509
76914SOL     OW42720   2.112   7.737   3.535  0.2654  0.1648 -0.0221
76914SOL    HW142721   2.159   7.733   3.451  0.2198  0.0604 -0.0430
76914SOL    HW242722   2.166   7.686   3.595 -0.6733 -1.4514 -0.4593
76915SOL     OW42723   1.774   7.251   7.977 -0.3488  0.1486 -0.0864
76915SOL    HW142724   1.703   7.303   8.013 -0.7743 -1.6746  1.9410
76915SOL    HW242725   1.732   7.189   7.918 -0.4420 -0.6652  0.8050
76916SOL     OW42726   4.791  10.418   2.875  0.0343  0.5184 -0.1491
76916SOL    HW142727   4.798  10.422   2.971  0.6642  1.2514 -0.2080
76916SOL    HW242728   4.744  10.498   2.851 -2.4729 -0.9108 -0.3043
76917SOL     OW42729   2.199   3.326   1.080 -0.4263 -0.1088  0.2389
76917SOL    HW142730   2.194   3.402   1.138  0.6059  0.0705  0.1080
76917SOL    HW242731   2.162   3.254   1.131 -2.6473  0.7216 -0.0950
76918SOL     OW42732   9.500  10.873   2.971 -0.1953  0.1500 -0.6904
76918SOL    HW142733   9.427  10.916   3.015 -0.1673 -0.5007  0.0117
76918SOL    HW242734   9.573  10.935   2.979 -0.4249  0.4088 -0.5870
76919SOL     OW42735   7.036   5.450   6.035 -0.3090  0.3767  0.4295
76919SOL    HW142736   6.987   5.400   6.101 -0.5196 -1.2248 -0.8686
76919SOL    HW242737   7.126   5.419   6.043 -0.7127 -1.5497 -1.4475
76920SOL     OW42738   9.295  10.573  12.441 -0.0200  0.0567 -0.2648
76920SOL    HW142739   9.347  10.515  12.497 -0.2147  1.1752  1.1338
76920SOL    HW242740   9.349  10.586  12.363  0.3179 -1.4422 -0.3039
76921SOL     OW42741  11.366  13.425   6.276  0.1575  0.0187  0.1797
76921SOL    HW142742  11.349  13.333   6.260 -1.2035  0.2883 -0.1073
76921SOL    HW242743  11.452  13.441   6.238 -0.1085 -0.8732 -0.8546
76922SOL     OW42744   6.862   9.384   6.803  0.3911 -0.6048  0.1582
76922SOL    HW142745   6.777   9.414   6.771  1.0726 -0.7693 -1.9741
76922SOL    HW242746   6.912   9.464   6.817  0.4730 -0.5588 -0.3765
76923SOL     OW42747   6.781   3.090   1.486  0.5466 -0.7009  0.0451
76923SOL    HW142748   6.729   3.021   1.527  0.5698 -0.5056  0.4045
76923SOL    HW242749   6.871   3.056   1.485  0.7915 -0.1627  1.4011
76924SOL     OW42750   4.409   2.933  13.387 -0.2825  0.2588 -0.2664
76924SOL    HW142751   4.448   2.861  13.339  1.2567  0.7391  0.1901
76924SOL    HW242752   4.330   2.896  13.427  0.3574 -1.1109 -0.2088
76925SOL     OW42753   4.234  11.760   1.008  0.8670  0.0795  0.3447
76925SOL    HW142754   4.254  11.671   0.980  1.0581  0.4493 -0.7392
76925SOL    HW242755   4.140  11.770   0.990  0.2054 -0.7249  2.8490
76926SOL     OW42756   1.399   6.111   8.193 -0.1645  0.1080 -0.1573
76926SOL    HW142757   1.400   6.068   8.107  0.9356  0.6369 -0.4212
76926SOL    HW242758   1.406   6.204   8.173  0.5940  0.2033  0.5277
76927SOL     OW42759   4.129   8.917   5.506  0.2353  0.2949 -0.0926
76927SOL    HW142760   4.118   8.832   5.464  2.0553 -0.9660  1.7879
76927SOL    HW242761   4.143   8.978   5.434 -0.1070 -1.1604 -1.4437
76928SOL     OW42762  12.642  10.889   5.243  0.0482  0.1672  0.3156
76928SOL    HW142763  12.616  10.969   5.198 -0.4265 -0.4727 -0.5949
76928SOL    HW242764  12.563  10.858   5.287  0.1803  0.1038  0.5117
76929SOL     OW42765   8.683  12.723   1.977  0.5422  0.4037 -0.1944
76929SOL    HW142766   8.670  12.672   2.056  0.5598  0.4353 -0.1709
76929SOL    HW242767   8.774  12.705   1.951 -0.3345 -2.1039 -1.9699
76930SOL     OW42768   8.407   0.476   5.466 -0.0764 -0.5827 -0.7200
76930SOL    HW142769   8.312   0.486   5.458 -0.2703 -1.3191  0.3558
76930SOL    HW242770   8.444   0.549   5.416 -1.1789 -0.9927 -2.1740
76931SOL     OW42771   4.770  11.019   9.176  0.0049  0.3852 -0.3134
76931SOL    HW142772   4.844  11.077   9.193 -0.2220  0.2557  1.2808
76931SOL    HW242773   4.809  10.937   9.146  0.3968  0.8625 -1.1416
76932SOL     OW42774   4.760   9.343   9.815 -0.1317 -0.1062 -0.1753
76932SOL    HW142775   4.667   9.347   9.794 -0.2135  0.2988  0.2474
76932SOL    HW242776   4.784   9.252   9.800 -0.4585 -0.0882 -0.8518
76933SOL     OW42777   4.960   0.329   8.922 -0.0165 -0.7542  1.2099
76933SOL    HW142778   5.006   0.301   9.001 -0.3941 -1.7315  1.1018
76933SOL    HW242779   4.872   0.293   8.932 -0.2167 -0.4630  0.5652
76934SOL     OW42780   5.446   8.739   6.525 -1.7945 -0.2162 -0.0098
76934SOL    HW142781   5.487   8.759   6.440 -2.8162 -0.0245 -0.4702
76934SOL    HW242782   5.421   8.647   6.518  1.4922 -1.3897  1.5298
76935SOL     OW42783   1.517   4.903  10.195  0.1182  0.4530 -0.4893
76935SOL    HW142784   1.524   4.816  10.156  1.2721  0.1341  0.3968
76935SOL    HW242785   1.521   4.963  10.120 -0.2508 -0.2265 -1.0676
76936SOL     OW42786   5.048   6.446   2.095  0.2725  0.3898  0.1736
76936SOL    HW142787   4.996   6.415   2.169 -0.7473 -2.2711 -1.4785
76936SOL    HW242788   5.057   6.369   2.038  2.9279  1.7204 -1.4079
76937SOL     OW42789  11.022   0.129  10.383  0.7235  0.0020  0.1629
76937SOL    HW142790  11.014   0.039  10.415 -0.1192  0.1293  0.3184
76937SOL    HW242791  11.088   0.169  10.441  1.0652 -0.4920  0.1221
76938SOL     OW42792   8.817  13.488   7.727  0.5417 -0.1460 -0.3885
76938SOL    HW142793   8.909  13.462   7.714  0.6975  0.2123 -0.0278
76938SOL    HW242794   8.772  13.407   7.749 -0.0328 -1.1453 -4.4157
76939SOL     OW42795   9.820   3.557   9.431  0.1796  0.6841 -0.0314
76939SOL    HW142796   9.771   3.627   9.475 -0.1248 -0.0691  0.8473
76939SOL    HW242797   9.756   3.515   9.375  0.0696  0.3721  0.3231
76940SOL     OW42798  12.079  13.043   0.807 -0.6790  0.4698 -0.4676
76940SOL    HW142799  12.070  12.995   0.725  0.5192 -0.0324 -0.3380
76940SOL    HW242800  12.154  13.001   0.850 -0.0872  1.9620  0.0082
76941SOL     OW42801   8.333   3.567   3.979  0.7184 -0.4404 -0.0880
76941SOL    HW142802   8.373   3.646   3.945  0.2486 -0.9019 -1.7891
76941SOL    HW242803   8.242   3.592   3.999 -0.5197 -1.2548 -3.8943
76942SOL     OW42804   3.780  11.217   0.236  0.0004  0.1588  0.1479
76942SOL    HW142805   3.699  11.266   0.252  0.3495  0.2840  1.6287
76942SOL    HW242806   3.822  11.264   0.164 -0.9821  0.4020 -0.2851
76943SOL     OW42807   5.596  13.440  13.370  0.7763  0.4572  0.0958
76943SOL    HW142808   5.681  13.476  13.345  0.9376  0.4843  0.6622
76943SOL    HW242809   5.570  13.490  13.447  1.4277 -1.1971  1.4436
76944SOL     OW42810  10.399  12.332   0.224  0.6675 -0.7514 -0.0299
76944SOL    HW142811  10.313  12.325   0.264  0.0899 -0.5181 -1.1958
76944SOL    HW242812  10.442  12.249   0.242  0.7608 -0.3417  1.7984
76945SOL     OW42813   8.653   9.334  11.251  0.3701  0.1898  0.3946
76945SOL    HW142814   8.591   9.272  11.212 -1.6064  1.6044  1.1655
76945SOL    HW242815   8.739   9.292  11.239 -0.3907 -0.6600 -3.0084
76946SOL     OW42816   9.056   4.134   0.233 -0.3530 -0.0084  0.0271
76946SOL    HW142817   9.060   4.219   0.276  2.9780  0.2187 -0.4616
76946SOL    HW242818   9.090   4.072   0.298 -1.4283 -0.7786 -0.1054
76947SOL     OW42819  12.313  13.435  12.189 -0.1292  0.5127  0.1219
76947SOL    HW142820  12.256  13.425  12.113 -1.9688  0.0376  1.4669
76947SOL    HW242821  12.397  13.462  12.154 -1.0107  0.6195 -2.0327
76948SOL     OW42822   1.030   3.302   4.419 -0.1430 -0.0547  0.4988
76948SOL    HW142823   1.115   3.272   4.453 -0.1650 -0.4212  0.2408
76948SOL    HW242824   0.969   3.231   4.441 -0.0530 -0.5470 -0.7563
76949SOL     OW42825   0.158  13.979   9.414 -0.0618  0.2606  0.5032
76949SOL    HW142826   0.221  13.914   9.444 -0.1658 -0.0510  0.0547
76949SOL    HW242827   0.134  13.951   9.326  0.6223  1.4362 -0.0850
76950SOL     OW42828  10.740   0.003   1.648 -0.4733 -0.3557  0.9639
76950SOL    HW142829  10.751   0.097   1.656  1.0255 -0.3687 -0.3945
76950SOL    HW242830  10.645  -0.011   1.648 -0.7709  1.3266 -0.4264
76951SOL     OW42831  12.784   0.024  11.741  0.3412 -0.5439  0.2628
76951SOL    HW142832  12.848   0.072  11.794 -0.8296  1.9566 -0.4072
76951SOL    HW242833  12.801   0.053  11.651 -1.5049 -0.0285  0.0303
76952SOL     OW42834   4.751   1.500   8.135 -0.3775 -0.3525  1.2157
76952SOL    HW142835   4.794   1.571   8.087  0.7619 -2.5691 -1.2558
76952SOL    HW242836   4.671   1.483   8.086  0.1670 -1.8218  0.7914
76953SOL     OW42837  12.786   3.388  10.458  0.0641 -0.2506 -0.0795
76953SOL    HW142838  12.708   3.398  10.403 -0.4923  0.3135  0.7802
76953SOL    HW242839  12.856   3.365  10.396 -0.2822  1.4769 -1.2104
76954SOL     OW42840   4.920  10.503   1.038 -0.2595 -0.3078 -0.2831
76954SOL    HW142841   4.969  10.583   1.019  0.9926 -0.4594  1.9439
76954SOL    HW242842   4.843  10.507   0.981 -0.3367  2.5795 -0.0860
76955SOL     OW42843   0.974  10.849   1.305 -0.0569 -0.2257  0.5628
76955SOL    HW142844   1.033  10.879   1.235 -0.5646 -0.6695 -0.0670
76955SOL    HW242845   0.891  10.892   1.287 -0.7012 -1.7042 -0.1567
76956SOL     OW42846   2.068   1.181   9.812  0.4819 -0.1036  0.1960
76956SOL    HW142847   2.040   1.251   9.754 -1.8343 -1.1372 -0.0064
76956SOL    HW242848   2.142   1.140   9.767  0.2462  0.6121 -0.8611
76957SOL     OW42849  13.064   1.543   8.723 -0.0883 -0.5105 -0.0217
76957SOL    HW142850  12.981   1.498   8.708 -0.1808 -0.6766  0.9433
76957SOL    HW242851  13.040   1.626   8.762  0.1775 -0.3622 -0.1721
76958SOL     OW42852   2.530   2.936   6.966 -0.0812 -1.0300  0.4939
76958SOL    HW142853   2.499   2.847   6.980  0.7475 -1.2276  1.1704
76958SOL    HW242854   2.537   2.945   6.870  1.5545 -2.3296  0.4472
76959SOL     OW42855  10.852  10.285   9.631  0.5302  0.3164  0.5372
76959SOL    HW142856  10.803  10.264   9.710 -0.2335 -0.1464 -0.0522
76959SOL    HW242857  10.849  10.381   9.626 -0.4543  0.2909  0.4247
76960SOL     OW42858   2.481  12.867  11.367 -0.3161  0.2026 -0.0638
76960SOL    HW142859   2.570  12.874  11.332 -1.0102  1.1322 -1.7362
76960SOL    HW242860   2.434  12.816  11.302 -1.4664  1.3283 -0.1403
76961SOL     OW42861  13.491   2.704   9.807 -0.0386  0.0150 -0.3409
76961SOL    HW142862  13.445   2.675   9.728 -0.1341 -0.2694 -0.1836
76961SOL    HW242863  13.577   2.662   9.801 -0.8132 -1.8719  0.8079
76962SOL     OW42864   3.333  12.472  13.008 -0.0240 -0.0679  0.3851
76962SOL    HW142865   3.374  12.390  12.983 -0.9945  0.0379 -1.7370
76962SOL    HW242866   3.277  12.450  13.083 -1.1276 -1.5996 -0.8507
76963SOL     OW42867   1.969  13.576   8.758  0.3346  0.0395 -0.3041
76963SOL    HW142868   2.054  13.598   8.720  0.6114 -0.3450  0.0875
76963SOL    HW242869   1.978  13.596   8.851  0.2477 -0.7061 -0.1290
76964SOL     OW42870  12.192   6.857   2.608  0.3496 -0.7500 -0.3603
76964SOL    HW142871  12.266   6.916   2.621  0.4659 -0.4908 -2.0416
76964SOL    HW242872  12.152   6.885   2.526 -2.4543 -0.0214  1.1165
76965SOL     OW42873   4.628  11.546   8.454  0.3273 -0.0600 -0.1267
76965SOL    HW142874   4.638  11.491   8.532  0.1014  0.8230  0.5325
76965SOL    HW242875   4.626  11.635   8.487  0.8062  0.3668 -1.2016
76966SOL     OW42876   3.832  12.592   8.822 -0.0359 -0.7977  0.9328
76966SOL    HW142877   3.850  12.499   8.835 -0.6077 -0.7059  2.7133
76966SOL    HW242878   3.763  12.595   8.756  2.0995 -1.4377 -1.4922
76967SOL     OW42879  12.997   5.306   5.485 -0.3494 -0.1599 -0.4716
76967SOL    HW142880  12.944   5.381   5.513  0.5872  0.4232 -0.2203
76967SOL    HW242881  12.953   5.230   5.522  0.0925  0.4751  1.4532
76968SOL     OW42882   9.500  12.959  10.251 -0.1451  0.0691 -0.0190
76968SOL    HW142883   9.444  12.987  10.179  0.6168 -0.9218 -1.0435
76968SOL    HW242884   9.498  13.031  10.314 -2.7817 -0.0445  0.1384
76969SOL     OW42885   6.142   5.180   3.814 -0.4127  0.3883  0.2507
76969SOL    HW142886   6.159   5.117   3.884  0.4682 -0.2070 -0.4821
76969SOL    HW242887   6.130   5.264   3.860 -1.1389 -0.2112  1.1967
76970SOL     OW42888  10.270   1.646   1.387  0.1773 -0.1309 -0.2967
76970SOL    HW142889  10.255   1.690   1.471 -0.1135 -2.7380  1.1196
76970SOL    HW242890  10.182   1.635   1.351  0.3221  1.2636 -1.1671
76971SOL     OW42891   9.583  13.209   3.497 -0.2087 -0.2154 -0.0232
76971SOL    HW142892   9.601  13.119   3.522 -1.0887  0.0932  1.9271
76971SOL    HW242893   9.501  13.204   3.448 -0.8817 -0.3916  1.0753
76972SOL     OW42894  12.934   0.732  11.603  0.3046 -0.1327  0.1524
76972SOL    HW142895  13.020   0.770  11.585 -0.5034  1.8979  0.3617
76972SOL    HW242896  12.872   0.804  11.591 -1.2368 -1.1660  1.4353
76973SOL     OW42897   6.738  10.249  10.208 -0.2212 -0.1639 -0.0013
76973SOL    HW142898   6.817  10.196  10.206  0.5805  0.7069  3.1309
76973SOL    HW242899   6.748  10.310  10.134  1.6335 -0.5833 -0.1357
76974SOL     OW42900   4.745   0.530   9.109  0.1842  0.2898  0.1334
76974SOL    HW142901   4.789   0.537   9.193  0.5930 -0.1306 -0.0433
76974SOL    HW242902   4.735   0.620   9.079  0.6671  0.4026  0.3082
76975SOL     OW42903  13.006   4.284   1.189 -0.1559  0.0845 -0.2329
76975SOL    HW142904  12.947   4.284   1.113 -0.2939 -1.1306 -0.1427
76975SOL    HW242905  13.079   4.229   1.163  1.2907  2.0575 -0.5610
76976SOL     OW42906   6.146  11.964   4.039 -0.3618 -0.8902 -0.0014
76976SOL    HW142907   6.069  12.020   4.046 -0.7064 -1.4016  0.2817
76976SOL    HW242908   6.128  11.889   4.096  0.8112 -0.4820  0.9697
76977SOL     OW42909   4.805   8.570  12.182 -0.2696  0.0985 -0.5592
76977SOL    HW142910   4.825   8.550  12.091  2.6514  1.0087 -0.2197
76977SOL    HW242911   4.811   8.665  12.188  0.4964 -0.0066  0.7380
76978SOL     OW42912   1.961   6.156   6.894  0.3312  0.1309  0.8828
76978SOL    HW142913   1.995   6.227   6.839  0.1147 -0.6636 -0.3141
76978SOL    HW242914   1.877   6.189   6.925  0.6443  0.7550  1.0772
76979SOL     OW42915  11.740   1.563  13.368 -0.3225 -0.1765 -0.3350
76979SOL    HW142916  11.788   1.643  13.348 -0.3429 -0.4550 -1.6437
76979SOL    HW242917  11.684   1.550  13.291 -1.5952 -0.5149  0.6169
76980SOL     OW42918   0.072   8.564   3.989 -0.1847  0.2218 -0.2045
76980SOL    HW142919   0.021   8.486   4.011 -3.4963  2.2577  0.0373
76980SOL    HW242920   0.075   8.614   4.071 -1.3584  1.9706 -1.1674
76981SOL     OW42921  10.237   6.330   9.367  0.4393 -0.3007 -0.3314
76981SOL    HW142922  10.198   6.344   9.281 -0.9019  1.0829  0.4488
76981SOL    HW242923  10.259   6.237   9.368  0.1158 -0.4282 -2.0081
76982SOL     OW42924   7.994   5.203   7.495  0.2972  0.0194  0.1843
76982SOL    HW142925   7.947   5.236   7.419  1.4452 -0.5607 -0.8146
76982SOL    HW242926   8.070   5.261   7.505  0.5459 -0.3362  0.4316
76983SOL     OW42927  11.279  12.270   1.832  0.5225 -0.2761 -0.1695
76983SOL    HW142928  11.250  12.194   1.883  1.8550  0.3519  1.6474
76983SOL    HW242929  11.374  12.262   1.828  0.4827 -0.2126 -2.5222
76984SOL     OW42930   9.074   9.158   6.945  0.1002 -0.0671  0.1706
76984SOL    HW142931   9.099   9.249   6.933  2.9989 -0.6434  1.0024
76984SOL    HW242932   9.123   9.111   6.877 -0.7725 -1.0705  0.2157
76985SOL     OW42933  10.403  12.389   5.915 -0.2214 -0.3071 -0.0944
76985SOL    HW142934  10.377  12.474   5.950 -0.6620 -0.9863  1.2924
76985SOL    HW242935  10.447  12.346   5.988 -0.9663 -1.6945 -0.4400
76986SOL     OW42936   6.846   8.527   1.903  0.1851  0.0754 -0.3970
76986SOL    HW142937   6.874   8.521   1.995 -1.0424  0.2123 -0.0019
76986SOL    HW242938   6.888   8.453   1.860  1.0757  0.2249  0.1924
76987SOL     OW42939   9.466   9.948   0.163  0.6461 -0.2770  0.1616
76987SOL    HW142940   9.432   9.918   0.079 -0.9390 -2.7276  1.5702
76987SOL    HW242941   9.389   9.955   0.219  1.6929  1.0482  1.5184
76988SOL     OW42942   7.952   0.861   5.001  0.2013 -0.1617  0.3544
76988SOL    HW142943   7.899   0.828   4.928 -0.0245  0.5420  0.1858
76988SOL    HW242944   8.024   0.907   4.958 -1.6734  3.1824  0.4162
76989SOL     OW42945   3.225   4.766   1.840  1.2498  0.5462 -0.1467
76989SOL    HW142946   3.240   4.848   1.888  1.9240 -0.4715  1.4508
76989SOL    HW242947   3.254   4.698   1.900 -0.6363 -0.9696 -0.8809
76990SOL     OW42948   6.770   2.371   1.933 -0.3816  0.2192  0.0503
76990SOL    HW142949   6.675   2.382   1.945 -0.9039 -3.6029  0.7618
76990SOL    HW242950   6.809   2.437   1.989 -2.6334  0.9902  0.8496
76991SOL     OW42951   7.820  12.334  11.146  0.3692 -0.3816  0.3605
76991SOL    HW142952   7.770  12.267  11.100 -0.4275  0.0286  0.6163
76991SOL    HW242953   7.910  12.319  11.119  0.0985 -1.0569 -0.1974
76992SOL     OW42954  13.233   8.261   2.003 -0.1356 -0.4080 -0.4040
76992SOL    HW142955  13.211   8.307   2.085  0.3092 -0.5591 -0.1923
76992SOL    HW242956  13.320   8.296   1.980 -0.0146 -0.7781 -0.5082
76993SOL     OW42957   6.982   8.124   8.795 -0.1797  0.3793 -0.0310
76993SOL    HW142958   6.937   8.205   8.822 -0.0188 -0.1671  2.0930
76993SOL    HW242959   7.057   8.118   8.855  0.3553 -0.8541 -0.7937
76994SOL     OW42960   2.158   4.854   3.671  0.1085 -0.4299 -0.5861
76994SOL    HW142961   2.210   4.888   3.743  0.9738 -0.1535 -1.3304
76994SOL    HW242962   2.108   4.929   3.639 -0.4185 -0.5928 -0.1778
76995SOL     OW42963   4.908   4.967   4.173  0.0756  0.7779 -0.4689
76995SOL    HW142964   4.953   4.921   4.102  1.1570  0.6168  0.3055
76995SOL    HW242965   4.926   5.059   4.158  0.6825  0.7116 -0.1471
76996SOL     OW42966   4.437   0.191   1.598 -0.1476 -0.0739 -0.5923
76996SOL    HW142967   4.507   0.256   1.603 -0.3676  0.1815 -0.8356
76996SOL    HW242968   4.431   0.156   1.687  1.9945 -1.9148 -1.0686
76997SOL     OW42969   2.446   7.784   7.736  0.5628  0.5352 -0.3440
76997SOL    HW142970   2.428   7.753   7.825  0.4539  1.8418  0.1120
76997SOL    HW242971   2.512   7.723   7.702 -0.5688 -0.9637  0.0042
76998SOL     OW42972   9.695   8.838  10.577  0.3520  0.2132 -0.2014
76998SOL    HW142973   9.628   8.894  10.539  0.6353  0.4282 -0.3864
76998SOL    HW242974   9.668   8.749  10.554  0.2121  0.3079 -0.4062
76999SOL     OW42975  11.351   5.085   5.407 -0.2469 -0.1132  0.2104
76999SOL    HW142976  11.338   4.994   5.433 -1.5135 -0.2424 -0.7534
76999SOL    HW242977  11.262   5.120   5.396  0.2225  1.1068  0.1438
77000SOL     OW42978   3.512  11.466   7.844 -0.2374  0.0010  0.4039
77000SOL    HW142979   3.450  11.408   7.800 -0.5126  0.6335 -0.0502
77000SOL    HW242980   3.538  11.417   7.923  0.6675 -1.3750 -0.7006
77001SOL     OW42981   4.405   7.328   2.846  0.4609  0.5722  0.4230
77001SOL    HW142982   4.373   7.293   2.929 -0.3003 -1.2682 -0.5707
77001SOL    HW242983   4.498   7.306   2.845  0.2244 -0.4857  0.3065
77002SOL     OW42984  13.028   0.651   8.107 -0.1209  0.2265  0.4995
77002SOL    HW142985  13.068   0.638   8.193  1.1487  2.4860  0.3089
77002SOL    HW242986  13.101   0.673   8.049 -0.9722 -1.0197 -1.1512
77003SOL     OW42987   9.539   4.812   0.169  0.2343  0.0714  0.2908
77003SOL    HW142988   9.535   4.744   0.236  1.7272  0.0075  0.3381
77003SOL    HW242989   9.452   4.851   0.170  0.1574 -0.0542  2.1413
77004SOL     OW42990  13.238   5.164   2.861  0.6339 -0.0474 -0.1971
77004SOL    HW142991  13.270   5.081   2.896 -0.3034 -0.5238 -0.4235
77004SOL    HW242992  13.143   5.162   2.877  0.5143  0.7225 -0.7385
77005SOL     OW42993   7.176   7.891   1.068  0.4030  0.5743 -0.7634
77005SOL    HW142994   7.170   7.827   1.139  1.8557  1.3059  0.0771
77005SOL    HW242995   7.197   7.840   0.991 -1.8539 -0.3166 -0.8700
77006SOL     OW42996  10.749   3.796   4.800 -0.1915  0.2711 -0.1222
77006SOL    HW142997  10.689   3.782   4.873  0.3056 -0.2756  0.1888
77006SOL    HW242998  10.693   3.790   4.722 -0.2671 -2.3323  0.0317
77007SOL     OW42999   8.406   6.713   8.524 -0.1580  0.3603 -0.6635
77007SOL    HW143000   8.485   6.668   8.553 -0.6402 -0.6958 -0.9335
77007SOL    HW243001   8.429   6.752   8.440  0.0261 -0.0991 -0.8277
77008SOL     OW43002  12.215  12.356   3.964 -0.1092  0.1386 -0.1140
77008SOL    HW143003  12.192  12.265   3.944  0.0466 -0.1699  1.0453
77008SOL    HW243004  12.138  12.391   4.008  1.4363 -0.9099  3.8303
77009SOL     OW43005  11.212   1.316   0.962  0.0332 -0.1003 -0.1824
77009SOL    HW143006  11.186   1.402   0.930 -0.1588 -0.0764  0.0319
77009SOL    HW243007  11.197   1.257   0.889  0.8889  0.1687 -0.5839
77010SOL     OW43008  13.734   8.238   5.876 -0.1805  0.0762 -0.1414
77010SOL    HW143009  13.676   8.298   5.829  0.8233  0.5869 -0.7748
77010SOL    HW243010  13.765   8.177   5.810  0.0043 -0.1849  0.1838
77011SOL     OW43011   8.599   8.981  13.604 -0.6289 -0.3410  0.1388
77011SOL    HW143012   8.562   8.937  13.527 -2.0324  0.8116  0.1349
77011SOL    HW243013   8.542   8.955  13.676 -0.3762  0.0227  0.4695
77012SOL     OW43014   2.592  11.101  12.436 -0.1366  0.1842 -0.0912
77012SOL    HW143015   2.685  11.087  12.455  0.0781 -0.3787 -1.4772
77012SOL    HW243016   2.591  11.160  12.361 -0.9347  0.8475  0.4172
77013SOL     OW43017   7.440   4.559  12.603  0.2662 -0.8246 -0.1525
77013SOL    HW143018   7.518   4.614  12.605 -0.1027 -0.3023  2.5666
77013SOL    HW243019   7.371   4.614  12.638 -0.9127 -1.9303 -0.6718
77014SOL     OW43020   2.848   3.023   6.810 -0.0273  0.5246  0.3852
77014SOL    HW143021   2.765   3.049   6.770  0.7803  2.3772 -0.2328
77014SOL    HW243022   2.887   3.105   6.840  2.6607  0.0952 -1.5345
77015SOL     OW43023   5.697  13.881   5.618 -0.2381 -0.3321  0.2675
77015SOL    HW143024   5.673  13.902   5.708  2.2157 -0.7529  1.0931
77015SOL    HW243025   5.709  13.966   5.576 -0.0137 -0.1220  0.7467
77016SOL     OW43026   4.391   6.538   7.340  0.2128  0.1220  0.1627
77016SOL    HW143027   4.384   6.572   7.429  0.4196  1.5618 -0.3397
77016SOL    HW243028   4.418   6.614   7.288  2.2180 -1.1868 -0.7966
77017SOL     OW43029   8.975  11.171   0.377  0.2251 -0.1988 -0.2167
77017SOL    HW143030   8.996  11.156   0.469 -0.7313  0.8924  0.2080
77017SOL    HW243031   9.057  11.202   0.338  0.5208 -0.2378  0.3625
77018SOL     OW43032   2.554   5.270   9.271  0.1759  0.4213  0.7450
77018SOL    HW143033   2.464   5.264   9.238  0.9851 -1.0471 -1.3814
77018SOL    HW243034   2.544   5.295   9.363 -2.3645  0.9877  0.3841
77019SOL     OW43035   2.335   3.060  10.406 -0.4569 -0.0453  0.2255
77019SOL    HW143036   2.408   3.059  10.468  1.7505 -3.0236 -2.0903
77019SOL    HW243037   2.375   3.081  10.322 -1.9027 -2.8230 -1.3212
77020SOL     OW43038  11.042  10.792   4.606  0.3775  0.3949  0.5239
77020SOL    HW143039  11.046  10.751   4.519 -2.3887  0.2011  0.4005
77020SOL    HW243040  11.103  10.741   4.659 -0.1051 -1.4548 -0.5858
77021SOL     OW43041  11.939   0.647   9.314 -0.0199 -0.0759  0.1943
77021SOL    HW143042  11.995   0.724   9.302 -0.9467  0.5961  0.0386
77021SOL    HW243043  11.866   0.661   9.253 -0.6186 -0.6788  0.7548
77022SOL     OW43044  11.501   0.672   1.528  0.5257 -0.1473  0.0823
77022SOL    HW143045  11.428   0.696   1.471  0.4031  0.0409  0.3167
77022SOL    HW243046  11.513   0.748   1.585  0.0621 -0.6834  0.9048
77023SOL     OW43047   3.793   3.027  11.946  0.2139 -0.1419  0.2691
77023SOL    HW143048   3.716   3.013  12.001  0.9305 -1.9530  0.8852
77023SOL    HW243049   3.841   3.098  11.990 -0.9391  0.8213  0.0145
77024SOL     OW43050   6.593   0.730   3.244 -0.0297  0.0214 -0.5946
77024SOL    HW143051   6.534   0.705   3.174  0.0439 -2.2459  0.0582
77024SOL    HW243052   6.593   0.826   3.244 -2.6575  0.0892 -1.4548
77025SOL     OW43053   0.457  13.979   9.303 -1.1300  0.2245 -0.1526
77025SOL    HW143054   0.501  14.003   9.221 -1.0003  0.5172  0.0008
77025SOL    HW243055   0.397  13.909   9.279 -1.6797  0.8594 -0.6496
77026SOL     OW43056   0.891   0.589   5.326  0.2936  0.1916  0.6471
77026SOL    HW143057   0.979   0.597   5.364  0.9549  0.4235 -0.8865
77026SOL    HW243058   0.884   0.497   5.301  0.3247  0.3031  0.2304
77027SOL     OW43059  10.540   1.637   0.507 -0.0347 -0.2621 -0.9596
77027SOL    HW143060  10.449   1.656   0.483  0.2757  2.5125 -0.2327
77027SOL    HW243061  10.551   1.676   0.593  2.0053 -0.0345 -1.2736
77028SOL     OW43062  12.710   8.732  11.986 -0.2060  0.2453 -0.1741
77028SOL    HW143063  12.670   8.708  11.902  2.3129 -1.4077 -1.0318
77028SOL    HW243064  12.740   8.822  11.973 -0.3941  0.2153 -0.8532
77029SOL     OW43065   0.575   1.873  12.631  0.2023 -0.3117  0.1034
77029SOL    HW143066   0.483   1.897  12.643  0.5294  2.0382 -1.3608
77029SOL    HW243067   0.579   1.834  12.543  0.6041 -0.3015  0.1125
77030SOL     OW43068   6.516   6.542  13.326 -0.1659 -0.1130 -0.0355
77030SOL    HW143069   6.489   6.476  13.390  0.3914 -0.7043 -0.3994
77030SOL    HW243070   6.441   6.551  13.268 -1.0489  1.1231  1.2293
77031SOL     OW43071   5.218   6.847  13.750 -0.1893  0.4811 -0.7751
77031SOL    HW143072   5.239   6.757  13.775 -1.4013  0.0068 -1.3904
77031SOL    HW243073   5.294   6.876  13.699  0.7516  0.2548  0.4555
77032SOL     OW43074  12.447   4.224  12.761 -0.3706 -0.7318  0.7214
77032SOL    HW143075  12.460   4.315  12.787 -2.3757 -0.2569  0.2638
77032SOL    HW243076  12.352   4.216  12.751 -0.1972 -2.7791  0.3810
77033SOL     OW43077   4.028  12.291   9.999  0.1133 -0.3239 -0.5302
77033SOL    HW143078   4.110  12.312   9.954  1.0399  0.1776  1.2886
77033SOL    HW243079   4.041  12.202  10.033  0.2295  0.0390  0.4098
77034SOL     OW43080   1.636   7.493   3.240  0.4281  0.1848  0.5358
77034SOL    HW143081   1.651   7.464   3.329  0.3302 -1.3211  0.0855
77034SOL    HW243082   1.676   7.580   3.236 -0.6457  0.8152  2.3677
77035SOL     OW43083   6.286   5.496   0.830  0.4458 -0.0335  0.4142
77035SOL    HW143084   6.303   5.430   0.897  0.1582 -0.0210  0.5016
77035SOL    HW243085   6.304   5.579   0.874 -0.7425  0.0342  0.8008
77036SOL     OW43086  13.006   8.401   7.315  0.1193  0.4445  0.6216
77036SOL    HW143087  13.089   8.378   7.275 -0.5350 -1.2833  0.1680
77036SOL    HW243088  13.022   8.394   7.409  0.0092 -1.8154  0.5053
77037SOL     OW43089   1.030   6.693   1.589 -0.0585  0.8963  0.1933
77037SOL    HW143090   1.107   6.644   1.559  0.3480  1.0360  0.9568
77037SOL    HW243091   1.034   6.685   1.685 -1.0278  0.8641  0.2349
77038SOL     OW43092   4.781   2.999   2.281  0.1672 -0.1761  0.3800
77038SOL    HW143093   4.771   3.084   2.325  0.7494 -0.2770  0.7132
77038SOL    HW243094   4.790   3.021   2.188  1.8020  0.2406  0.6140
77039SOL     OW43095   0.838   3.169   7.537 -0.3242  0.0356  0.4943
77039SOL    HW143096   0.878   3.164   7.449 -0.4224 -0.6962  0.4885
77039SOL    HW243097   0.815   3.261   7.547 -0.1910  0.1520 -0.2010
77040SOL     OW43098   9.302  10.884   0.982  0.0844 -0.2495  0.5694
77040SOL    HW143099   9.348  10.841   1.054  2.6036  2.2688  0.6320
77040SOL    HW243100   9.369  10.897   0.915 -0.8303  2.2448  0.0123
77041SOL     OW43101  10.049   3.614   2.171 -0.3993  0.5418 -0.6193
77041SOL    HW143102  10.060   3.644   2.261 -2.8691  0.3032 -0.1680
77041SOL    HW243103  10.129   3.563   2.153  1.8589  3.5372  0.0917
77042SOL     OW43104   0.598   1.073   3.746 -0.3315  0.7729 -0.0221
77042SOL    HW143105   0.522   1.129   3.731 -0.0971  1.4959  1.2889
77042SOL    HW243106   0.651   1.121   3.811  1.3050  0.3470 -0.9773
77043SOL     OW43107   3.547   8.695  12.832 -0.0697 -0.4965  0.1891
77043SOL    HW143108   3.609   8.625  12.852 -0.5495 -1.1019 -0.3716
77043SOL    HW243109   3.547   8.699  12.736  0.1928  0.4972  0.2253
77044SOL     OW43110   1.771   7.719  10.148 -0.0129  0.6049  0.1115
77044SOL    HW143111   1.682   7.753  10.140  0.0279  0.6772 -0.0306
77044SOL    HW243112   1.772   7.676  10.234 -0.1953  0.5730  0.0985
77045SOL     OW43113   6.266   6.771   5.085 -0.0247  0.1050  0.3360
77045SOL    HW143114   6.360   6.781   5.106  0.0308 -0.1099  0.1909
77045SOL    HW243115   6.230   6.859   5.096 -0.1423 -0.1104  2.0691
77046SOL     OW43116   3.760  10.462  10.275  0.2146 -0.3990 -0.9284
77046SOL    HW143117   3.731  10.538  10.326  1.2053  0.6340 -1.8807
77046SOL    HW243118   3.773  10.495  10.187  0.2689 -1.7799 -1.4656
77047SOL     OW43119  13.331   4.537   1.098  0.2336 -0.2038  0.8311
77047SOL    HW143120  13.379   4.585   1.166 -0.1936 -1.4315  2.0432
77047SOL    HW243121  13.239   4.547   1.121 -0.0245  0.5896 -0.4333
77048SOL     OW43122  13.729   4.551   9.984 -0.0477 -0.2966  0.1808
77048SOL    HW143123  13.787   4.626   9.970  0.7241 -0.6079  1.4941
77048SOL    HW243124  13.752   4.489   9.916  1.1896 -0.4074  0.6687
77049SOL     OW43125  13.984  12.830   5.626 -0.2865 -0.0475  0.6351
77049SOL    HW143126  13.930  12.761   5.663 -1.4181  1.1001  1.2185
77049SOL    HW243127  13.966  12.829   5.532 -2.3834  1.1409  0.9660
77050SOL     OW43128  10.384   0.968   4.942 -0.0883 -0.3620 -0.0898
77050SOL    HW143129  10.399   0.973   5.037 -0.6321 -1.1499  0.0456
77050SOL    HW243130  10.472   0.967   4.904  0.1316  0.1884  0.3906
77051SOL     OW43131   5.450  13.596   8.959 -0.1691 -0.0459 -0.1142
77051SOL    HW143132   5.466  13.507   8.928 -0.5668 -0.6191  1.2524
77051SOL    HW243133   5.495  13.652   8.896  0.3906 -1.2282 -0.7983
77052SOL     OW43134  11.543  13.620   5.610  0.4698 -0.0102  0.1802
77052SOL    HW143135  11.539  13.599   5.703  0.3643  0.7802  0.3636
77052SOL    HW243136  11.513  13.541   5.566 -0.7611  0.0470  0.8727
77053SOL     OW43137  13.331  12.888   9.522  0.7963 -0.1472 -0.0933
77053SOL    HW143138  13.267  12.955   9.497  0.7063 -0.1965  0.0037
77053SOL    HW243139  13.288  12.805   9.500 -0.2679 -0.3384  2.3187
77054SOL     OW43140  10.479   2.084   0.231  0.5122 -0.5917  0.3725
77054SOL    HW143141  10.446   1.998   0.207 -0.2835 -0.3184  0.4300
77054SOL    HW243142  10.451   2.096   0.322 -0.3537  0.1638  0.0223
77055SOL     OW43143   0.763   8.365   0.378 -0.3497  0.2480 -0.0209
77055SOL    HW143144   0.842   8.331   0.335  0.0364 -0.0018  0.8594
77055SOL    HW243145   0.771   8.460   0.371  1.4372  0.3793  2.3852
77056SOL     OW43146   8.410   4.269   7.660  0.3063  0.2061  0.4509
77056SOL    HW143147   8.359   4.265   7.579 -1.5905  0.7918  1.5543
77056SOL    HW243148   8.418   4.177   7.688  0.0139  0.0985  0.1791
77057SOL     OW43149   7.521   3.017   5.744  0.0419 -0.0527 -0.5216
77057SOL    HW143150   7.490   3.107   5.748 -1.4916 -0.5963  0.6598
77057SOL    HW243151   7.453   2.966   5.788  1.8480 -1.5325  0.7062
77058SOL     OW43152  11.550  10.057   9.502 -0.0936 -0.3770 -0.0675
77058SOL    HW143153  11.633  10.096   9.528 -0.1894 -0.1844 -0.0472
77058SOL    HW243154  11.485  10.097   9.559 -0.3061  0.0443 -0.5962
77059SOL     OW43155   2.438   1.625  11.076  0.3758  0.1223  0.1751
77059SOL    HW143156   2.360   1.655  11.030 -0.3007 -0.0336  1.1735
77059SOL    HW243157   2.489   1.704  11.092 -0.2580  0.4329  0.7193
77060SOL     OW43158   0.266   0.450  10.281 -0.6144  0.1709 -0.0180
77060SOL    HW143159   0.304   0.526  10.238 -1.8353  1.2626  0.7893
77060SOL    HW243160   0.217   0.485  10.355 -0.9290 -1.4270  0.5828
77061SOL     OW43161   7.483   3.080   3.152 -0.5769 -0.0879 -0.5351
77061SOL    HW143162   7.488   3.144   3.080  0.6545 -0.4348 -0.7756
77061SOL    HW243163   7.435   3.126   3.221  1.7954  1.8168 -0.0203
77062SOL     OW43164   3.119   9.606   8.518  0.3783  0.0566 -0.2929
77062SOL    HW143165   3.043   9.618   8.575  0.3398  0.2518 -0.3842
77062SOL    HW243166   3.193   9.597   8.578  0.2429 -0.4470 -0.1932
77063SOL     OW43167  10.473   6.089  11.799  0.6323  0.1113  0.6063
77063SOL    HW143168  10.420   6.113  11.875  1.3399 -1.4335  1.6142
77063SOL    HW243169  10.563   6.100  11.828  0.9079  0.2024 -0.2621
77064SOL     OW43170  12.541   2.147   6.086 -0.4424  0.3172  0.3163
77064SOL    HW143171  12.493   2.101   6.155  0.8194  0.3770  1.2883
77064SOL    HW243172  12.485   2.142   6.009 -1.2114 -1.1083  0.9372
77065SOL     OW43173  12.410  10.015  12.598  0.3291  0.5955 -0.2967
77065SOL    HW143174  12.327  10.017  12.549 -0.0562  1.4077  0.3755
77065SOL    HW243175  12.396  10.074  12.672  0.4773 -1.5018  1.5138
77066SOL     OW43176   7.009  10.712   5.366  0.0504 -0.1261  0.0520
77066SOL    HW143177   7.011  10.804   5.391 -0.9807  0.3304 -1.4517
77066SOL    HW243178   7.080  10.702   5.304  0.4845 -0.4803  0.5951
77067SOL     OW43179   6.345   1.190  12.116 -0.2664 -0.1329  0.0234
77067SOL    HW143180   6.421   1.196  12.059  0.2274 -1.1011  0.5459
77067SOL    HW243181   6.275   1.157  12.060  0.6995 -2.9571  0.3148
77068SOL     OW43182   4.703  12.175  13.479  0.0081  0.3158 -0.0379
77068SOL    HW143183   4.659  12.195  13.562  1.7433  1.2063  0.7088
77068SOL    HW243184   4.695  12.256  13.429 -0.2563  0.0712 -0.3940
77069SOL     OW43185   3.303  12.042   3.326 -0.2816 -0.3058 -0.1101
77069SOL    HW143186   3.288  11.957   3.366  0.4263 -0.5138 -0.2826
77069SOL    HW243187   3.226  12.056   3.270 -0.6964 -0.5447  0.3928
77070SOL     OW43188   4.573  12.784   5.520  0.7182  0.0417  0.3056
77070SOL    HW143189   4.494  12.821   5.481 -0.1997 -1.8480  0.2596
77070SOL    HW243190   4.644  12.817   5.465 -0.2632 -0.1036 -1.1015
77071SOL     OW43191   9.417  11.696   0.129 -0.2265 -0.1261 -0.0620
77071SOL    HW143192   9.384  11.608   0.112  0.9129 -0.8477  1.2512
77071SOL    HW243193   9.433  11.698   0.223  0.3058  1.3004 -0.1548
77072SOL     OW43194  10.235   2.368  10.299  0.2679  0.5061 -0.3645
77072SOL    HW143195  10.285   2.321  10.232 -1.1260 -3.9587  1.3716
77072SOL    HW243196  10.144   2.358  10.272 -0.1544  1.1356  0.7682
77073SOL     OW43197   1.718  13.661   3.206  0.0282  0.2811 -0.2372
77073SOL    HW143198   1.786  13.596   3.189  1.5177  1.4376  1.0437
77073SOL    HW243199   1.659  13.618   3.268 -1.9266 -1.6337 -3.1430
77074SOL     OW43200   0.349   6.953   5.252 -0.0182 -0.3223  0.2494
77074SOL    HW143201   0.320   7.036   5.290 -0.5518 -0.8902  1.1168
77074SOL    HW243202   0.269   6.900   5.248  0.0179 -0.3105 -1.6580
77075SOL     OW43203   9.733  13.193   9.626  0.0200 -0.3669 -0.2164
77075SOL    HW143204   9.807  13.243   9.660 -1.2811  1.4926  0.0081
77075SOL    HW243205   9.736  13.110   9.675  0.8164  0.4504  1.1832
77076SOL     OW43206   4.809   5.788   1.521  0.0170  0.5969 -0.2749
77076SOL    HW143207   4.866   5.829   1.456 -1.8589  2.6596 -0.7172
77076SOL    HW243208   4.739   5.747   1.469 -0.8998  1.3017  0.3829
77077SOL     OW43209   8.097  10.852  13.928  0.6798  0.1205 -0.2540
77077SOL    HW143210   8.054  10.932  13.959  1.5987  0.0299  1.3804
77077SOL    HW243211   8.048  10.781  13.969  1.7533 -0.0105  0.8615
77078SOL     OW43212  13.793  10.540  12.031 -0.2713 -0.1358  0.1983
77078SOL    HW143213  13.810  10.549  11.938 -3.5603 -0.3459 -0.5517
77078SOL    HW243214  13.845  10.465  12.059  1.4717  0.4903 -1.2153
77079SOL     OW43215   7.051   0.924  12.393 -0.2035  0.0212  0.3051
77079SOL    HW143216   7.072   0.979  12.318  0.5244 -0.7949 -0.1103
77079SOL    HW243217   6.959   0.943  12.412 -0.6070 -0.2796 -1.2522
77080SOL     OW43218   1.993  11.733   7.690 -0.2040  0.4614  1.1788
77080SOL    HW143219   2.052  11.662   7.662 -1.1225 -0.1430  0.7359
77080SOL    HW243220   2.052  11.802   7.721  0.8491  0.7682 -1.3188
77081SOL     OW43221   1.062   3.211   7.035  0.3812  0.1886 -0.0615
77081SOL    HW143222   1.130   3.156   7.075 -1.8919 -2.5652  0.3849
77081SOL    HW243223   1.053   3.176   6.946 -2.0257 -1.2704  0.6556
77082SOL     OW43224  11.293   8.722   9.224 -0.0739  0.2915 -0.3105
77082SOL    HW143225  11.225   8.687   9.166 -1.1240 -0.5600  1.3760
77082SOL    HW243226  11.266   8.812   9.241 -1.4326 -0.3655  1.2235
77083SOL     OW43227  12.012   3.006  10.814  0.2781 -0.0400 -0.5780
77083SOL    HW143228  12.063   2.967  10.742 -0.1713  1.5422 -1.8187
77083SOL    HW243229  11.921   3.003  10.784  0.1608  1.3032 -0.4241
77084SOL     OW43230   2.100   2.227   8.370  1.2086  0.2194 -0.2545
77084SOL    HW143231   2.157   2.202   8.298  0.7605 -0.0043 -0.5360
77084SOL    HW243232   2.093   2.323   8.363  0.5911  0.1293 -0.9529
77085SOL     OW43233   3.452  11.129   5.017 -0.4942 -0.4260 -0.0487
77085SOL    HW143234   3.378  11.089   5.063 -0.1895 -0.7268  0.1902
77085SOL    HW243235   3.413  11.197   4.963 -0.9192 -0.4123  0.2671
77086SOL     OW43236   6.743   1.165  10.813 -0.2049  0.0769  0.3573
77086SOL    HW143237   6.767   1.215  10.735 -0.4786  0.0105  0.2319
77086SOL    HW243238   6.656   1.196  10.836 -0.4356 -0.4503  0.1957
77087SOL     OW43239   5.279   1.456   6.225  0.0132  0.8877  0.0245
77087SOL    HW143240   5.374   1.460   6.236  0.2452  0.8166 -1.6025
77087SOL    HW243241   5.259   1.362   6.226  0.4165  0.6870 -2.3918
77088SOL     OW43242  11.549   5.047  10.162  0.5817 -0.5444 -0.2256
77088SOL    HW143243  11.583   5.136  10.161 -0.1490 -0.2645 -0.3327
77088SOL    HW243244  11.467   5.051  10.113  0.5216 -1.2665 -0.2005
77089SOL     OW43245   0.090   8.427   9.617  0.1551  0.8906  0.3364
77089SOL    HW143246   0.102   8.486   9.542  1.0664  0.6243  0.2682
77089SOL    HW243247   0.074   8.341   9.578 -2.1310  1.2075  0.4126
77090SOL     OW43248  12.621   9.858  12.003 -0.7262 -0.8448  0.2103
77090SOL    HW143249  12.566   9.917  12.055 -1.4238  0.9737 -2.3853
77090SOL    HW243250  12.591   9.871  11.913  1.6661 -2.4111 -0.9054
77091SOL     OW43251   5.188  12.002   5.589 -0.2600 -0.0045 -0.6323
77091SOL    HW143252   5.251  12.031   5.524 -0.1943  1.4548  0.0514
77091SOL    HW243253   5.174  11.909   5.569  3.2496 -0.8334  0.1327
77092SOL     OW43254  12.120   1.711   5.499  0.3026 -0.1533  0.4002
77092SOL    HW143255  12.077   1.794   5.476  1.9422  0.8458  0.7727
77092SOL    HW243256  12.151   1.725   5.589 -0.9241 -1.8415  1.1336
77093SOL     OW43257   6.829   0.852   0.984 -0.6326  0.1755  0.1289
77093SOL    HW143258   6.900   0.909   0.954 -0.9912  0.5832  0.0451
77093SOL    HW243259   6.838   0.773   0.931 -1.2665  0.8958 -1.1173
77094SOL     OW43260   9.067   9.516  11.835  0.2803 -0.1870 -0.4847
77094SOL    HW143261   9.132   9.585  11.844  0.4326 -0.4043  0.1494
77094SOL    HW243262   9.010   9.545  11.765 -0.5912  1.3255  0.7956
77095SOL     OW43263   3.369  11.628   6.181  0.2377 -0.1210 -0.2294
77095SOL    HW143264   3.295  11.580   6.143 -0.1394 -1.0529  1.5798
77095SOL    HW243265   3.329  11.708   6.216 -0.3665 -1.4589  2.4153
77096SOL     OW43266  12.662   0.223  11.320  0.0174  0.0660  0.5039
77096SOL    HW143267  12.664   0.318  11.305  1.9970  0.2120  1.2933
77096SOL    HW243268  12.727   0.188  11.258 -0.1279 -0.6736  0.7620
77097SOL     OW43269   6.413   8.082  10.523  0.7998 -0.5202 -0.3350
77097SOL    HW143270   6.401   8.159  10.468  2.2001 -0.8028 -1.0920
77097SOL    HW243271   6.356   8.097  10.598  0.6018  0.9754 -0.7511
77098SOL     OW43272   9.841   0.444   0.438  0.0616  0.1266 -0.3200
77098SOL    HW143273   9.826   0.503   0.364  0.2670  1.4204  0.6328
77098SOL    HW243274   9.755   0.433   0.478  0.0472 -0.1349 -0.4186
77099SOL     OW43275  12.586   2.040  12.411  0.6608  0.0663 -0.2930
77099SOL    HW143276  12.641   2.115  12.435  0.5893  0.3435 -0.9805
77099SOL    HW243277  12.509   2.079  12.369  0.2861 -0.3587 -0.0048
77100SOL     OW43278   9.746   9.218  12.269  0.0084  0.2395  0.0624
77100SOL    HW143279   9.675   9.161  12.241 -0.7246  1.7446 -1.3432
77100SOL    HW243280   9.826   9.167  12.254 -0.5985 -0.3179 -1.4665
77101SOL     OW43281   9.238   5.634  11.841  0.0291 -0.1446 -0.2274
77101SOL    HW143282   9.263   5.563  11.900  2.3601 -0.3219 -1.2960
77101SOL    HW243283   9.306   5.700  11.853 -1.2353  1.2442 -0.4042
77102SOL     OW43284  13.465  12.478   4.847 -0.0782 -0.2092  0.3613
77102SOL    HW143285  13.421  12.508   4.926 -0.5635 -1.8682  0.7590
77102SOL    HW243286  13.395  12.458   4.785  0.2221 -0.5155  0.1118
77103SOL     OW43287   3.462   9.313   9.959 -0.4313 -0.3198 -0.6784
77103SOL    HW143288   3.441   9.261   9.882 -0.5172 -0.3292 -0.6484
77103SOL    HW243289   3.508   9.252  10.018 -2.3778 -0.9618  0.2548
77104SOL     OW43290   1.846  10.876  11.274 -0.2337  0.2604  0.2683
77104SOL    HW143291   1.781  10.906  11.338 -0.6542 -0.6450  0.2807
77104SOL    HW243292   1.921  10.935  11.286 -0.1184 -0.1742  1.9118
77105SOL     OW43293   5.778   7.998   6.710 -0.0257 -0.3529 -0.0132
77105SOL    HW143294   5.712   8.059   6.744 -0.4356 -0.6655 -0.2370
77105SOL    HW243295   5.727   7.922   6.681  0.4640 -0.7224  0.0892
77106SOL     OW43296   1.547   3.357  10.212  0.4596 -0.3998  0.4872
77106SOL    HW143297   1.498   3.433  10.242  0.1997 -0.5514  0.4556
77106SOL    HW243298   1.577   3.380  10.125 -0.7878 -0.8447 -0.0862
77107SOL     OW43299   0.632  10.283  12.185 -0.3931  0.6628 -0.3540
77107SOL    HW143300   0.621  10.211  12.123  0.3580  0.2338  0.0005
77107SOL    HW243301   0.602  10.360  12.137 -0.9865  0.1556 -0.8207
77108SOL     OW43302   9.482   2.244   9.779 -0.5847 -0.5511 -0.4639
77108SOL    HW143303   9.546   2.293   9.726  0.5443 -0.5603  0.8500
77108SOL    HW243304   9.441   2.185   9.716  1.3690 -1.2164 -1.2143
77109SOL     OW43305   3.261  12.470   5.974 -0.3099 -0.0868 -0.1688
77109SOL    HW143306   3.284  12.519   5.895 -1.2685  0.1135 -0.3308
77109SOL    HW243307   3.271  12.533   6.045 -2.5534  0.7097 -0.4832
77110SOL     OW43308  13.436  10.198   6.813 -0.2067 -0.2352 -0.4377
77110SOL    HW143309  13.428  10.175   6.720  2.1232 -0.9047 -0.5317
77110SOL    HW243310  13.530  10.200   6.830 -0.5600  0.0702  1.8890
77111SOL     OW43311   4.143  10.254   0.482  0.9287  0.1626  0.0718
77111SOL    HW143312   4.195  10.226   0.407  0.6232  0.5436 -0.2921
77111SOL    HW243313   4.052  10.252   0.450  0.8404  0.8035  0.2700
77112SOL     OW43314  12.566   4.792  11.473  0.3130 -0.2539  0.3355
77112SOL    HW143315  12.572   4.863  11.536 -1.2243  2.3696 -2.2454
77112SOL    HW243316  12.626   4.816  11.403 -2.2890  0.1759 -1.9528
77113SOL     OW43317  11.278   7.292   3.497  0.1705  0.6112  0.2822
77113SOL    HW143318  11.208   7.242   3.539 -0.4769 -1.5594 -3.0150
77113SOL    HW243319  11.310   7.351   3.566 -1.3664 -1.9099  3.4416
77114SOL     OW43320   2.192  13.446   0.248  0.2325 -0.3315 -0.5372
77114SOL    HW143321   2.253  13.463   0.319 -0.3465 -2.3240  0.5012
77114SOL    HW243322   2.186  13.529   0.201  2.1461  0.4730  0.5400
77115SOL     OW43323  11.907   7.008   3.528 -0.0800 -0.2184 -0.0527
77115SOL    HW143324  11.951   6.946   3.585  1.0343  0.4953 -0.0974
77115SOL    HW243325  11.962   7.010   3.449 -1.0770 -0.4879 -0.7732
77116SOL     OW43326  11.084   0.399  12.122  0.2544  0.1458  0.9266
77116SOL    HW143327  11.058   0.446  12.043  2.8674 -0.4826 -0.4329
77116SOL    HW243328  11.145   0.332  12.090  0.5809 -0.8098  3.3768
77117SOL     OW43329  12.782   4.942   0.664 -0.0256  0.4961 -0.0975
77117SOL    HW143330  12.827   4.999   0.601 -0.1503  0.9300  0.2047
77117SOL    HW243331  12.775   4.858   0.618 -0.7121  0.9919 -0.9336
77118SOL     OW43332  12.354  11.152  11.300 -0.1410 -0.3365 -0.3790
77118SOL    HW143333  12.281  11.121  11.246 -0.0707 -0.3436 -0.4700
77118SOL    HW243334  12.363  11.086  11.369  0.4203 -0.8553 -0.9386
77119SOL     OW43335  13.209  13.368   4.264  0.6884 -0.3056  0.2619
77119SOL    HW143336  13.181  13.359   4.355 -3.3293  2.3311 -0.4312
77119SOL    HW243337  13.248  13.283   4.242  0.4445 -1.5527  3.9552
77120SOL     OW43338   9.208   3.275   7.585 -0.3750 -0.6027  0.7305
77120SOL    HW143339   9.186   3.367   7.598  3.9760  0.4405  2.7048
77120SOL    HW243340   9.205   3.262   7.491 -0.1429  1.9240  0.3044
77121SOL     OW43341   6.274   5.854   4.627 -0.3106 -0.3319 -0.1678
77121SOL    HW143342   6.263   5.768   4.668  0.8088  0.0492  0.9804
77121SOL    HW243343   6.352   5.843   4.572  0.1525  0.0889  0.3982
77122SOL     OW43344  12.360   0.286   3.678 -0.2086 -0.6312  0.0499
77122SOL    HW143345  12.268   0.310   3.675 -0.0096  0.1127 -1.3564
77122SOL    HW243346  12.393   0.307   3.590  1.0222 -1.9906  0.1490
77123SOL     OW43347   3.424   4.179   0.840 -0.3588  0.3412  0.3536
77123SOL    HW143348   3.379   4.231   0.774  0.5543 -1.5164 -1.9154
77123SOL    HW243349   3.385   4.091   0.832  0.4556 -0.1700  1.6162
77124SOL     OW43350   4.399  10.877  11.285  0.2182  0.0089 -0.1355
77124SOL    HW143351   4.381  10.967  11.314  1.6633  0.2238  0.2003
77124SOL    HW243352   4.364  10.873  11.196 -0.4383  0.7031  0.0839
77125SOL     OW43353   6.351   7.951   0.534  0.4854 -0.5288 -0.0750
77125SOL    HW143354   6.258   7.942   0.556  0.5692 -1.1727  0.0330
77125SOL    HW243355   6.396   7.899   0.600  0.9138 -0.3470 -0.2226
77126SOL     OW43356  11.793   3.578   0.429 -0.2819 -0.2753  0.3153
77126SOL    HW143357  11.799   3.660   0.479 -0.5204 -0.1283  0.1042
77126SOL    HW243358  11.786   3.510   0.496  0.7800 -0.2000  0.5116
77127SOL     OW43359   3.245   8.288   2.117  0.9607 -0.4162 -0.3398
77127SOL    HW143360   3.258   8.349   2.044  0.8029  0.5767  0.4321
77127SOL    HW243361   3.150   8.281   2.126  0.9510 -2.0628 -1.4437
77128SOL     OW43362   1.196   8.948   7.648 -0.2687  0.6264  0.2743
77128SOL    HW143363   1.254   8.891   7.698 -2.7636 -3.7045 -1.2067
77128SOL    HW243364   1.125   8.970   7.709 -0.3867  0.2338  0.2847
77129SOL     OW43365   8.931   1.063   3.339  0.2426  0.6551  0.6418
77129SOL    HW143366   9.025   1.078   3.336  0.1931  0.9290  0.2972
77129SOL    HW243367   8.897   1.135   3.392  0.1666  0.9051  0.2608
77130SOL     OW43368  11.104  11.165   7.329  0.2199  0.5266 -0.5633
77130SOL    HW143369  11.173  11.173   7.264 -0.7198 -0.7699 -1.7735
77130SOL    HW243370  11.064  11.080   7.313 -2.3650  1.6405 -0.6586
77131SOL     OW43371   0.001   2.920   1.996 -0.7143 -0.1317  0.0304
77131SOL    HW143372  -0.065   2.869   2.042  0.7798 -1.6688  0.5665
77131SOL    HW243373  -0.039   2.940   1.911 -2.5872  0.7053  1.0490
77132SOL     OW43374  13.680   0.046  12.847 -0.0504 -0.8246 -0.2180
77132SOL    HW143375  13.649  -0.026  12.793  1.6571 -1.5323 -0.3009
77132SOL    HW243376  13.604   0.069  12.901 -0.7934 -2.3195 -0.5652
77133SOL     OW43377  13.481   8.877   8.689  0.1434  0.2106  0.4405
77133SOL    HW143378  13.558   8.918   8.651  1.5464  0.1507  2.9596
77133SOL    HW243379  13.421   8.950   8.706  0.2569  0.4543 -0.1868
77134SOL     OW43380   9.403   8.726  10.910  0.1775  0.1182  0.2946
77134SOL    HW143381   9.411   8.660  10.842 -0.0863  0.0641  0.3159
77134SOL    HW243382   9.450   8.689  10.985  2.3496  1.0994 -0.5153
77135SOL     OW43383   7.674   3.788   9.346 -0.6904 -0.3134  0.3228
77135SOL    HW143384   7.600   3.839   9.377 -2.6974 -2.6843 -0.2585
77135SOL    HW243385   7.731   3.778   9.422 -1.1531  1.2107  0.8883
77136SOL     OW43386   8.540   7.350  11.601 -0.0854 -0.9558  0.1858
77136SOL    HW143387   8.525   7.321  11.692 -1.4329 -0.0560  0.2849
77136SOL    HW243388   8.619   7.404  11.606  0.6137 -1.9785  0.5703
77137SOL     OW43389  10.588   8.168   6.789 -0.2782  0.2274  0.5001
77137SOL    HW143390  10.567   8.113   6.865 -2.5466  0.8417  0.3896
77137SOL    HW243391  10.682   8.155   6.776  0.0036 -0.6376  2.8070
77138SOL     OW43392   8.857   3.910   3.674 -0.0644 -0.2403  0.1256
77138SOL    HW143393   8.869   3.815   3.671  1.2086 -0.0794 -0.8723
77138SOL    HW243394   8.762   3.923   3.680 -0.2360 -1.5619  0.4842
77139SOL     OW43395  11.926   8.101   1.479 -0.0755 -0.1750  0.1295
77139SOL    HW143396  11.873   8.061   1.411  0.1333 -1.9307  0.9485
77139SOL    HW243397  12.011   8.057   1.473  0.0382 -0.1558  1.3319
77140SOL     OW43398   2.866   7.217  11.311 -0.3349 -0.0793  0.1244
77140SOL    HW143399   2.926   7.226  11.384  0.5529  0.9379 -0.6980
77140SOL    HW243400   2.867   7.123  11.290 -0.7702 -0.4193  1.5220
77141SOL     OW43401  13.248  13.991   8.972 -0.1180  0.3148  0.6513
77141SOL    HW143402  13.307  14.058   9.008  0.4785  0.3582 -0.3640
77141SOL    HW243403  13.160  14.028   8.983  0.2443  1.6469 -0.5900
77142SOL     OW43404   4.092   0.876  12.966 -0.2785  0.2073 -0.4122
77142SOL    HW143405   4.138   0.818  13.027  0.5803 -0.7076 -1.8790
77142SOL    HW243406   3.999   0.856  12.979 -0.1899  0.6599  1.1819
77143SOL     OW43407   0.323  12.474   1.729  0.5009 -0.7068 -0.5980
77143SOL    HW143408   0.405  12.496   1.685  1.9676 -1.4124  1.6135
77143SOL    HW243409   0.298  12.389   1.693 -0.0943  0.1465 -2.3150
77144SOL     OW43410   1.274   6.415   6.629  0.3109 -0.2099 -0.0480
77144SOL    HW143411   1.238   6.395   6.715 -2.9603 -1.7465 -1.6214
77144SOL    HW243412   1.310   6.503   6.638  0.4929 -0.4997  2.9488
77145SOL     OW43413  12.178  13.017   6.979  0.5826  0.0654  0.0840
77145SOL    HW143414  12.092  12.981   6.958 -0.4296  2.0383  0.5743
77145SOL    HW243415  12.240  12.960   6.933 -1.0903 -0.1411 -2.0994
77146SOL     OW43416  12.610   7.464   3.829 -0.4774 -0.2397  0.2318
77146SOL    HW143417  12.680   7.477   3.765  0.2637 -0.3268  1.0063
77146SOL    HW243418  12.618   7.373   3.856 -1.2479 -0.4094 -0.0650
77147SOL     OW43419   3.250   6.962   6.668  0.2919 -0.2399  0.1320
77147SOL    HW143420   3.158   6.988   6.659 -0.3041 -2.6062 -1.6129
77147SOL    HW243421   3.299   7.044   6.660 -1.6268  1.2078  1.9187
77148SOL     OW43422  11.633   7.206  11.752 -0.0321 -0.3685  0.1482
77148SOL    HW143423  11.613   7.189  11.660  0.4909 -0.6422  0.0801
77148SOL    HW243424  11.721   7.244  11.750  0.0780 -0.6018  0.5504
77149SOL     OW43425   0.955  13.915   1.625  0.0288 -0.2740  0.4467
77149SOL    HW143426   1.039  13.955   1.648 -0.5203  1.6222 -0.5930
77149SOL    HW243427   0.903  13.919   1.705 -0.1269  1.5083  0.2910
77150SOL     OW43428  11.735  10.496  13.347 -0.0503  0.1812 -1.1310
77150SOL    HW143429  11.816  10.498  13.295  0.9506  1.7067  0.3534
77150SOL    HW243430  11.740  10.576  13.400 -0.4595 -1.7393  2.0757
77151SOL     OW43431   2.462  12.264   3.619 -0.2938  0.0538 -0.3036
77151SOL    HW143432   2.456  12.254   3.714  0.0338 -2.0159 -0.4358
77151SOL    HW243433   2.398  12.332   3.597 -1.7882 -0.7909  1.2210
77152SOL     OW43434  11.866  13.717   8.235  0.3287 -0.4835  0.4023
77152SOL    HW143435  11.809  13.641   8.233 -0.3651  0.0381 -0.1956
77152SOL    HW243436  11.941  13.692   8.180  0.6823 -1.1565  1.1668
77153SOL     OW43437   3.654  14.010   8.162 -0.6302 -0.0408  0.2689
77153SOL    HW143438   3.601  14.042   8.089  0.2159  1.2561  0.1877
77153SOL    HW243439   3.590  13.984   8.229 -1.3909 -0.2457 -0.5177
77154SOL     OW43440  14.017   2.036   3.754 -0.3058 -0.4023 -0.1350
77154SOL    HW143441  14.112   2.033   3.743 -0.2866 -0.6396  0.0816
77154SOL    HW243442  13.987   1.949   3.730 -0.4308 -0.4386  0.1528
77155SOL     OW43443   5.367  11.804   9.276  0.7786  0.1366 -0.3257
77155SOL    HW143444   5.411  11.745   9.338 -1.4705 -0.2504  1.0112
77155SOL    HW243445   5.403  11.891   9.297 -0.8495  0.2466  2.5604
77156SOL     OW43446   5.011  10.541  13.310 -0.0124 -0.0247  0.0043
77156SOL    HW143447   5.061  10.461  13.295 -0.6643 -0.5949  0.7368
77156SOL    HW243448   4.951  10.545  13.236 -1.4704 -1.4339  1.0216
77157SOL     OW43449  13.651   4.868   4.798 -0.1382 -0.6050 -0.0526
77157SOL    HW143450  13.710   4.925   4.847  1.6100 -2.3122 -0.1031
77157SOL    HW243451  13.669   4.887   4.707  2.2622 -2.8624 -0.1535
77158SOL     OW43452  10.561  11.954  10.986  0.7263 -0.4052 -0.5050
77158SOL    HW143453  10.512  11.905  10.919 -0.0093 -0.1305 -0.1825
77158SOL    HW243454  10.633  11.896  11.009 -0.2762 -1.4786  0.0526
77159SOL     OW43455   7.913   8.406   4.050 -0.0257 -0.4081  0.1986
77159SOL    HW143456   7.972   8.345   4.094 -0.8169 -0.9998  0.4556
77159SOL    HW243457   7.828   8.362   4.049  0.1179 -0.8712 -2.7567
77160SOL     OW43458  13.732  13.558  10.874 -0.2570 -0.0123  0.3498
77160SOL    HW143459  13.800  13.524  10.933  1.1115  0.2803 -1.0035
77160SOL    HW243460  13.671  13.604  10.932  1.7050  1.3645  1.4396
77161SOL     OW43461  10.042   1.570   4.454  0.3094 -0.0933  0.3453
77161SOL    HW143462  10.076   1.651   4.415 -0.5257  0.4106  0.6302
77161SOL    HW243463  10.035   1.509   4.381  1.8030 -0.2155  0.2793
77162SOL     OW43464   9.880   1.149   5.037 -0.1366  0.2126  0.7595
77162SOL    HW143465   9.835   1.097   4.971 -1.3113  0.4489  1.3548
77162SOL    HW243466   9.973   1.132   5.022 -0.4507 -0.8914  0.0068
77163SOL     OW43467   8.429   3.606   1.299  0.2807 -0.6614 -0.5144
77163SOL    HW143468   8.404   3.514   1.293  0.4029 -0.7291  0.0224
77163SOL    HW243469   8.469   3.615   1.385 -1.4115  0.2843  0.2391
77164SOL     OW43470   8.898   5.125   5.320 -0.8599 -0.1904  0.7541
77164SOL    HW143471   8.944   5.200   5.358 -0.8620  0.0450  0.2978
77164SOL    HW243472   8.965   5.058   5.309 -0.6116  0.1566  0.0751
77165SOL     OW43473   7.252  10.643   8.767 -0.2392 -0.7790 -0.3903
77165SOL    HW143474   7.231  10.678   8.854  1.1655 -0.1956 -0.2649
77165SOL    HW243475   7.175  10.590   8.744  0.2950 -2.8988  2.2102
77166SOL     OW43476   6.556   9.385  10.012  0.5704  0.3302  0.5357
77166SOL    HW143477   6.508   9.327  10.070 -1.1079 -0.3680 -1.4296
77166SOL    HW243478   6.544   9.472  10.050 -3.1125  0.3256 -0.2754
77167SOL     OW43479   5.838   2.149   0.109 -0.3571  0.6053 -0.1786
77167SOL    HW143480   5.748   2.160   0.141 -0.1803  1.6278 -0.0042
77167SOL    HW243481   5.892   2.199   0.170  0.3918 -0.3278 -0.0464
77168SOL     OW43482   7.217   1.005   3.636 -0.1487  0.2209 -0.4078
77168SOL    HW143483   7.189   1.056   3.560  0.8760  1.9531  0.3167
77168SOL    HW243484   7.257   1.069   3.695  1.6722 -1.4875  0.3567
77169SOL     OW43485   7.172   7.493   5.052  0.5648 -0.9305 -0.0293
77169SOL    HW143486   7.083   7.517   5.025  0.9113  2.4763  1.4039
77169SOL    HW243487   7.170   7.493   5.148  2.2740  0.1845  0.0618
77170SOL     OW43488   0.864   0.899   1.247 -0.0327  0.4559 -0.2034
77170SOL    HW143489   0.876   0.805   1.262  0.5658  0.5476 -0.0720
77170SOL    HW243490   0.769   0.912   1.251 -0.1549 -0.2224 -0.7021
77171SOL     OW43491   1.030  12.455   0.669 -0.2491  0.3727 -0.8110
77171SOL    HW143492   0.936  12.438   0.671  0.0417 -1.3942  0.5540
77171SOL    HW243493   1.064  12.399   0.600 -0.1347  0.7385 -1.0568
77172SOL     OW43494   1.857  10.920   2.182  0.3686  0.0315  0.3041
77172SOL    HW143495   1.804  10.998   2.160  0.0603 -0.2077  0.1945
77172SOL    HW243496   1.851  10.913   2.277  1.5294  0.9432  0.4671
77173SOL     OW43497   3.265   3.451   6.683 -0.1622 -0.3573  0.1343
77173SOL    HW143498   3.346   3.467   6.635 -0.7184  0.1425 -0.6768
77173SOL    HW243499   3.219   3.535   6.680 -0.9315 -0.7724  0.1518
77174SOL     OW43500   3.213   0.352   8.503 -0.0410  0.7799  0.0345
77174SOL    HW143501   3.293   0.349   8.451 -0.8825  0.5605 -1.3187
77174SOL    HW243502   3.241   0.377   8.591  1.4577  1.0147 -0.4925
77175SOL     OW43503   0.281   6.794  13.687 -0.5279  0.3035 -0.0215
77175SOL    HW143504   0.322   6.786  13.601  1.1896 -1.6215  0.8805
77175SOL    HW243505   0.227   6.873  13.681  0.0814  0.6111 -2.6162
77176SOL     OW43506  11.602   1.472   3.485  0.6223  0.1522 -0.5863
77176SOL    HW143507  11.687   1.514   3.493  0.5484  0.1251  0.4592
77176SOL    HW243508  11.621   1.379   3.486  0.5091  0.1156  0.9474
77177SOL     OW43509   5.703  12.365   2.395 -1.1014 -0.1953  0.0651
77177SOL    HW143510   5.763  12.398   2.328  0.2034  0.2412  1.3790
77177SOL    HW243511   5.658  12.443   2.427 -1.4186 -0.3477 -0.0032
77178SOL     OW43512   1.406   2.819   3.576 -0.2590  0.2143 -0.1976
77178SOL    HW143513   1.494   2.804   3.541  0.4796  2.0560  0.7536
77178SOL    HW243514   1.353   2.839   3.498  0.0254 -1.2560 -0.8172
77179SOL     OW43515  13.599   9.514   1.334 -0.2706 -0.1805  0.3707
77179SOL    HW143516  13.672   9.464   1.298  0.0265 -0.0994  0.8579
77179SOL    HW243517  13.626   9.605   1.326 -0.3365 -0.1485  0.5099
77180SOL     OW43518   5.130   8.662  12.723 -0.6328  0.2282 -0.0071
77180SOL    HW143519   5.138   8.683  12.816  0.5909  0.4048 -0.1374
77180SOL    HW243520   5.053   8.604  12.718 -1.2362  0.9121  0.9787
77181SOL     OW43521  11.533   7.065   7.409 -0.1481  0.0096  0.2118
77181SOL    HW143522  11.617   7.111   7.404 -0.7810  1.1080 -1.2397
77181SOL    HW243523  11.520   7.049   7.503  1.1516  0.8339  0.5638
77182SOL     OW43524   7.677   6.347   9.579 -0.4372  0.2537  0.2417
77182SOL    HW143525   7.628   6.284   9.632  0.7896 -0.1748  0.9200
77182SOL    HW243526   7.697   6.300   9.499 -2.4602  0.9658 -0.7465
77183SOL     OW43527   8.439   6.894  13.833 -0.1333  0.0226 -0.1081
77183SOL    HW143528   8.516   6.923  13.784 -1.0596 -0.9045 -2.2724
77183SOL    HW243529   8.472   6.827  13.893  1.0796  1.3639  0.7925
77184SOL     OW43530   2.035   1.106   1.452  0.0831 -0.4553 -0.5963
77184SOL    HW143531   2.125   1.077   1.439  0.1117  0.1295 -1.9843
77184SOL    HW243532   1.981   1.038   1.411 -0.0322 -0.2337 -0.8179
77185SOL     OW43533  11.570  13.325   8.357 -0.0140  0.0122  0.2371
77185SOL    HW143534  11.485  13.368   8.363  0.7059  1.8901 -1.6818
77185SOL    HW243535  11.629  13.381   8.407  0.7143  0.6769 -1.3065
77186SOL     OW43536   1.736   7.362  12.189  0.2052 -0.1234  0.0260
77186SOL    HW143537   1.697   7.306  12.121 -0.3341  1.3124 -0.8929
77186SOL    HW243538   1.711   7.320  12.271 -0.6503 -0.9421 -0.6234
77187SOL     OW43539   3.136  12.883  12.262  0.0411 -0.3002 -0.1028
77187SOL    HW143540   3.193  12.960  12.259 -1.3995  0.7806 -1.6239
77187SOL    HW243541   3.093  12.888  12.347  0.8493 -0.1188  0.3083
77188SOL     OW43542  11.202   1.605  11.059  0.1839 -0.0545  0.1996
77188SOL    HW143543  11.253   1.616  10.979  1.5488  0.6901  1.1359
77188SOL    HW243544  11.173   1.694  11.082 -0.8206 -0.3525  0.1586
77189SOL     OW43545   2.527  10.648  12.270 -0.1263 -0.1663  0.3139
77189SOL    HW143546   2.461  10.579  12.282 -0.9445  0.4383 -0.5399
77189SOL    HW243547   2.585  10.640  12.346 -0.0675 -1.9327  0.1161
77190SOL     OW43548   7.902   3.589  10.751 -0.4373  0.1758 -0.0738
77190SOL    HW143549   7.816   3.601  10.790 -0.8347 -2.0753 -0.0943
77190SOL    HW243550   7.889   3.603  10.658 -1.1078 -1.3004 -0.2386
77191SOL     OW43551   3.307   9.768  13.768  0.1766  0.4706  0.3660
77191SOL    HW143552   3.222   9.731  13.790  0.6825 -0.4968  0.7635
77191SOL    HW243553   3.343   9.796  13.852  0.9338 -0.6456  0.4306
77192SOL     OW43554  11.078  11.767   8.370  0.4170 -0.6778  0.3481
77192SOL    HW143555  11.029  11.689   8.344 -1.9154  0.5071  0.9368
77192SOL    HW243556  11.105  11.808   8.288  1.7567 -2.0904  0.0340
77193SOL     OW43557  12.480  11.610   6.663  0.1348  0.2801 -0.1163
77193SOL    HW143558  12.512  11.528   6.625  0.2120  0.6169 -0.7949
77193SOL    HW243559  12.536  11.677   6.625 -0.2681  0.7026  0.0280
77194SOL     OW43560   1.545   4.716   3.867  0.4067  0.0194 -0.3401
77194SOL    HW143561   1.528   4.651   3.800  1.0100 -1.6194  1.0161
77194SOL    HW243562   1.483   4.696   3.937  0.1753  1.3205 -0.1441
77195SOL     OW43563   9.441  12.274  12.676 -0.3165 -0.0543 -0.4548
77195SOL    HW143564   9.496  12.234  12.609  1.9615 -3.0430  2.8388
77195SOL    HW243565   9.495  12.344  12.713  0.2727 -1.1696  0.9153
77196SOL     OW43566  13.293  13.924   3.994 -0.4964  0.0223 -0.0331
77196SOL    HW143567  13.206  13.958   4.014 -1.3640 -1.7780 -0.5150
77196SOL    HW243568  13.305  13.851   4.055  0.5674  0.0663 -0.1669
77197SOL     OW43569   1.188  10.521   1.671 -0.0271  0.0070  0.0421
77197SOL    HW143570   1.109  10.474   1.645  0.2841 -1.2159  1.2126
77197SOL    HW243571   1.260  10.469   1.636  0.2962  1.0564 -0.9248
77198SOL     OW43572   1.104   6.450   2.020 -0.3222 -0.5719 -0.4687
77198SOL    HW143573   1.072   6.371   1.977  0.4675 -1.4877  0.5659
77198SOL    HW243574   1.040   6.466   2.090  0.6610 -1.6080  0.7225
77199SOL     OW43575  10.030   5.686   0.041  0.2769 -0.3980 -0.2083
77199SOL    HW143576  10.049   5.708  -0.050  0.4790  0.1444 -0.0415
77199SOL    HW243577  10.013   5.771   0.082 -1.1970 -0.7449 -0.0494
77200SOL     OW43578   1.369   7.410   4.408 -0.1000 -0.5546  0.2682
77200SOL    HW143579   1.328   7.401   4.322 -0.2651 -1.2288  0.4089
77200SOL    HW243580   1.463   7.412   4.389 -0.1350 -0.7190  0.0702
77201SOL     OW43581  10.230   3.984   7.947  0.5673  0.2577 -0.2583
77201SOL    HW143582  10.308   4.036   7.929 -0.1274  1.2709 -0.3870
77201SOL    HW243583  10.167   4.046   7.984 -0.3991 -0.4097 -0.7396
77202SOL     OW43584   9.124   7.095   0.042 -0.0985 -0.0621 -0.6148
77202SOL    HW143585   9.124   7.007   0.078  0.5363 -0.4056 -1.4146
77202SOL    HW243586   9.192   7.141   0.091  0.0156 -0.2067 -0.6366
77203SOL     OW43587   8.993   9.812  13.362 -0.3706  0.5214  0.2562
77203SOL    HW143588   8.984   9.729  13.408  0.8807  1.0544  1.5387
77203SOL    HW243589   8.932   9.805  13.288  0.3720 -1.8858 -0.2184
77204SOL     OW43590   0.558  13.484   3.055 -0.9436  0.1179 -0.5926
77204SOL    HW143591   0.573  13.455   2.966  0.9618 -1.7095  0.2532
77204SOL    HW243592   0.604  13.568   3.062  0.5534 -0.6691 -0.8135
77205SOL     OW43593  10.435   7.747   5.353  0.5065  0.1453  0.4209
77205SOL    HW143594  10.412   7.719   5.441 -1.2241 -0.0630 -0.0407
77205SOL    HW243595  10.527   7.724   5.343  0.2704 -1.4860  1.5472
77206SOL     OW43596   3.463   1.623   2.774 -0.6658 -0.6727 -0.3476
77206SOL    HW143597   3.440   1.533   2.749 -1.4105 -0.0830 -1.8449
77206SOL    HW243598   3.514   1.657   2.701 -1.2977  0.4870 -0.2660
77207SOL     OW43599  11.534   8.948  11.413  0.4820 -0.0977 -0.0993
77207SOL    HW143600  11.501   8.990  11.333 -2.1771  1.5491  1.7086
77207SOL    HW243601  11.465   8.886  11.437 -0.5695  1.9852  2.7463
77208SOL     OW43602   6.720  12.681  11.437  0.2013  0.5729 -0.6747
77208SOL    HW143603   6.769  12.760  11.414 -0.9639  1.8234  0.8904
77208SOL    HW243604   6.653  12.712  11.498 -1.5024 -1.3277 -1.4803
77209SOL     OW43605   0.732   7.304   9.350  0.1978  0.6511  0.0305
77209SOL    HW143606   0.770   7.317   9.263  3.1666 -1.3516  0.8890
77209SOL    HW243607   0.807   7.294   9.408 -1.6695 -0.7834  2.3941
77210SOL     OW43608  13.855   0.348   1.776  0.0769 -0.0106  0.1980
77210SOL    HW143609  13.940   0.345   1.732  1.0604  3.1941  1.5301
77210SOL    HW243610  13.857   0.273   1.836  1.2313 -0.9500 -0.9493
77211SOL     OW43611  10.901   9.992  13.037  0.1801  0.2149 -0.1625
77211SOL    HW143612  10.870  10.082  13.045 -1.9035 -0.3348 -1.4257
77211SOL    HW243613  10.948   9.976  13.119 -1.2182  1.7903  1.0247
77212SOL     OW43614   3.059   4.687   3.766  0.6060  0.1629  0.1389
77212SOL    HW143615   3.018   4.762   3.809  1.1677 -0.4584  1.8740
77212SOL    HW243616   3.008   4.673   3.687 -0.5933  1.2883  0.6807
77213SOL     OW43617  10.294   2.061   7.225  0.3933  0.1112  0.1375
77213SOL    HW143618  10.370   2.050   7.169  0.0376 -3.0556  0.0669
77213SOL    HW243619  10.223   2.019   7.177 -0.3196 -1.1186  2.1310
77214SOL     OW43620   5.789   5.829   0.254  0.1986 -0.2660  0.4710
77214SOL    HW143621   5.883   5.846   0.258  0.6561 -1.9349 -1.5996
77214SOL    HW243622   5.754   5.903   0.204  0.7278 -0.5596 -0.3627
77215SOL     OW43623   9.857  11.051   7.172  0.2962 -0.0872 -0.2053
77215SOL    HW143624   9.948  11.036   7.146  0.4269  0.8407 -0.3190
77215SOL    HW243625   9.807  10.988   7.121  0.8706 -0.6032 -0.1457
77216SOL     OW43626   1.176   8.622   0.004 -0.1726  0.0725 -0.0715
77216SOL    HW143627   1.182   8.529  -0.019 -3.1464 -0.2045 -0.0864
77216SOL    HW243628   1.227   8.630   0.084 -0.1744 -1.6445  0.1325
77217SOL     OW43629   7.627  10.635  13.914 -0.1177  0.7546  0.5376
77217SOL    HW143630   7.565  10.703  13.887  1.4573  2.9620  2.0470
77217SOL    HW243631   7.705  10.684  13.941  1.4780 -1.7636  0.8008
77218SOL     OW43632   8.114   0.492  12.583  0.0848 -0.3726 -0.2702
77218SOL    HW143633   8.090   0.435  12.656  1.0998 -1.3349 -0.6736
77218SOL    HW243634   8.191   0.539  12.614  0.1382 -0.3127 -0.4923
77219SOL     OW43635   0.515   3.950  10.863 -0.5809  1.1189 -0.2206
77219SOL    HW143636   0.516   4.019  10.930 -0.6631  0.1002  0.8572
77219SOL    HW243637   0.602   3.954  10.823 -0.5456  1.7664 -0.0999
77220SOL     OW43638   6.302  12.454  11.970  0.3904 -0.5843  0.0179
77220SOL    HW143639   6.388  12.464  11.929  0.9532 -0.6004  1.1656
77220SOL    HW243640   6.276  12.543  11.993  0.4513 -0.6550  0.3643
77221SOL     OW43641   1.801   8.359   0.989 -0.3734 -0.4471 -0.2979
77221SOL    HW143642   1.768   8.441   0.955  0.3768 -0.2235 -0.4962
77221SOL    HW243643   1.781   8.294   0.921  1.1872  0.0074 -1.2323
77222SOL     OW43644  12.051  11.976   8.775  0.2055  0.2945 -0.0971
77222SOL    HW143645  12.096  11.893   8.789  0.5302  0.3025 -1.0105
77222SOL    HW243646  12.110  12.026   8.720 -0.8192  0.3792 -1.1738
77223SOL     OW43647   1.256   0.014  11.423  0.4236 -0.4336 -0.2657
77223SOL    HW143648   1.277  -0.022  11.510 -1.4469  0.0242  0.4284
77223SOL    HW243649   1.337   0.057  11.396  0.7929  0.2350  1.6946
77224SOL     OW43650   3.849   0.200   8.381  0.2776  0.0393 -0.2727
77224SOL    HW143651   3.913   0.221   8.313  1.1698 -0.8483  0.2588
77224SOL    HW243652   3.902   0.165   8.453 -0.8908 -2.1948 -0.3993
77225SOL     OW43653   4.356   6.257   7.674  0.0970 -0.7229  0.1571
77225SOL    HW143654   4.323   6.249   7.584 -0.5769 -0.1841  0.3532
77225SOL    HW243655   4.448   6.279   7.663  0.4160 -2.1999 -0.3991
77226SOL     OW43656   8.139   6.051  12.049 -0.1054  0.0330 -0.2660
77226SOL    HW143657   8.217   5.994  12.048 -0.3128 -0.2615 -1.9781
77226SOL    HW243658   8.140   6.090  12.136  1.2986 -0.8817  0.1700
77227SOL     OW43659   8.581   6.433   1.507 -0.0608  0.2682 -0.5886
77227SOL    HW143660   8.590   6.505   1.445 -0.5947 -0.0652 -1.0673
77227SOL    HW243661   8.526   6.467   1.577 -0.0103  0.4341 -0.6300
77228SOL     OW43662   4.458   8.044  12.502  0.0852  0.0148 -0.8532
77228SOL    HW143663   4.452   8.108  12.573  0.4091 -0.8592 -0.0006
77228SOL    HW243664   4.513   7.974  12.538 -1.8179 -1.6500 -1.0165
77229SOL     OW43665   1.583   5.211   8.370 -0.3237 -0.4225 -0.4100
77229SOL    HW143666   1.533   5.254   8.300 -1.7012  1.5341  1.6343
77229SOL    HW243667   1.568   5.118   8.357 -3.3775  0.0183 -0.7913
77230SOL     OW43668  12.770   0.301   5.599  0.4387 -0.2566  0.4195
77230SOL    HW143669  12.701   0.271   5.540 -0.5188 -1.8465  2.2092
77230SOL    HW243670  12.818   0.222   5.622  0.5875  0.2456  1.9534
77231SOL     OW43671   3.567   0.627  12.946 -0.0783  0.1342  0.0586
77231SOL    HW143672   3.555   0.566  12.874  1.1563 -0.5437  0.4039
77231SOL    HW243673   3.542   0.712  12.910 -0.3342 -0.3353 -0.8953
77232SOL     OW43674   8.184   4.482   2.983  0.4289  0.1270 -0.0378
77232SOL    HW143675   8.196   4.495   2.889  0.8860 -0.7630 -0.1103
77232SOL    HW243676   8.265   4.440   3.012 -0.2209 -0.7935  0.5098
77233SOL     OW43677  13.471  11.302   4.242  0.4380  0.5451 -0.0231
77233SOL    HW143678  13.405  11.369   4.226  0.3396  1.0700  2.2578
77233SOL    HW243679  13.540  11.320   4.178 -0.3237  1.7995 -0.5119
77234SOL     OW43680  13.584   6.529   4.571  0.0846 -0.0495  0.0722
77234SOL    HW143681  13.667   6.567   4.600  0.7832 -1.2004 -0.3613
77234SOL    HW243682  13.587   6.439   4.604  0.0619 -0.8218 -1.9306
77235SOL     OW43683  12.108   2.199   2.101  0.1811 -0.1453 -0.6090
77235SOL    HW143684  12.117   2.165   2.012  0.5665 -2.4745  0.2474
77235SOL    HW243685  12.169   2.147   2.153 -0.3534  0.8480  1.1009
77236SOL     OW43686   8.371  12.532   0.676  0.1774  0.6546 -0.0425
77236SOL    HW143687   8.418  12.538   0.592 -0.4429 -0.5327 -0.4944
77236SOL    HW243688   8.371  12.439   0.697  0.1645  0.9216  1.2088
77237SOL     OW43689   1.320   4.446  13.650 -0.0481 -0.3606  0.1685
77237SOL    HW143690   1.388   4.398  13.697  1.4018  0.2216 -1.2539
77237SOL    HW243691   1.309   4.527  13.699  1.3613  0.1861 -0.3702
77238SOL     OW43692  11.879  11.351  13.030  0.5433  0.2800  0.0653
77238SOL    HW143693  11.793  11.377  13.063 -0.0788 -1.5697  0.0057
77238SOL    HW243694  11.915  11.296  13.099  2.0948  1.7137  0.4663
77239SOL     OW43695  13.634  12.308   8.289 -0.7944 -0.1906  0.7035
77239SOL    HW143696  13.591  12.224   8.310  1.0366 -1.3673 -0.0381
77239SOL    HW243697  13.644  12.307   8.194 -1.2121  1.1339  0.6312
77240SOL     OW43698   0.307   8.177   3.259  0.2490  0.2973  0.0745
77240SOL    HW143699   0.233   8.161   3.317  0.6199 -1.4005  0.1088
77240SOL    HW243700   0.372   8.219   3.314  0.4689 -0.9938  0.8353
77241SOL     OW43701   7.985   0.727  13.542 -0.2440  0.2554 -0.2229
77241SOL    HW143702   8.078   0.724  13.566 -0.3643 -0.2643  0.1933
77241SOL    HW243703   7.939   0.715  13.625 -0.6767 -2.5787 -0.7874
77242SOL     OW43704   1.042   9.755  12.726 -0.3295  0.7000 -0.4101
77242SOL    HW143705   1.043   9.751  12.631 -0.1242 -1.2448 -0.3537
77242SOL    HW243706   0.994   9.836  12.746 -3.3906 -0.4893 -2.1757
77243SOL     OW43707   5.788   3.754   3.113  0.2445 -0.3706  0.1869
77243SOL    HW143708   5.855   3.709   3.164 -0.4731 -4.2570 -1.9045
77243SOL    HW243709   5.712   3.695   3.114 -2.0215  2.3019 -0.2660
77244SOL     OW43710  13.600  11.422   5.640  0.0233 -0.0751  0.0827
77244SOL    HW143711  13.562  11.506   5.617  0.7741  0.2300 -0.0651
77244SOL    HW243712  13.535  11.358   5.613 -0.6224  0.4614  0.3349
77245SOL     OW43713  12.738   7.224   4.074  0.4606  0.6004  0.3726
77245SOL    HW143714  12.647   7.225   4.105 -0.0773  2.5924 -1.0678
77245SOL    HW243715  12.782   7.162   4.133 -2.0226 -1.2773  0.4549
77246SOL     OW43716  10.118   9.120   3.545  0.0769 -0.2296 -0.1139
77246SOL    HW143717  10.074   9.162   3.619  0.6141  2.0667 -0.9925
77246SOL    HW243718  10.047   9.079   3.495 -0.5173 -0.2075  0.6879
77247SOL     OW43719   4.099   6.746  13.708  0.5621 -0.3702  0.8830
77247SOL    HW143720   4.058   6.824  13.744  1.1022  0.8493 -0.9705
77247SOL    HW243721   4.027   6.699  13.665  0.7023  0.7738 -0.7007
77248SOL     OW43722  12.842   3.315   9.509  0.5772 -0.2173  0.1929
77248SOL    HW143723  12.843   3.342   9.601  2.4770  0.2778  0.0635
77248SOL    HW243724  12.892   3.382   9.463  0.1094 -0.7394 -1.1480
77249SOL     OW43725   3.121  11.862   2.454  0.3614 -0.0833  0.0259
77249SOL    HW143726   3.061  11.828   2.520  0.0067 -0.0530 -0.2836
77249SOL    HW243727   3.067  11.915   2.396  0.5178 -0.7984 -0.7880
77250SOL     OW43728  12.673  12.823  12.291 -0.2423  0.2412 -0.2571
77250SOL    HW143729  12.695  12.738  12.252  0.5144  0.2762  0.0643
77250SOL    HW243730  12.579  12.819  12.306 -0.0899 -0.8841  0.5438
77251SOL     OW43731   7.270   5.605   5.253  0.2989  0.6633  0.6810
77251SOL    HW143732   7.221   5.586   5.333 -0.0400  1.7311  0.7547
77251SOL    HW243733   7.348   5.652   5.284 -0.1638  1.6765  0.3564
77252SOL     OW43734   7.910   8.947  11.568 -0.0042 -0.3446 -0.4642
77252SOL    HW143735   7.919   8.917  11.659 -0.4382  0.8848  0.0195
77252SOL    HW243736   7.969   8.891  11.518 -1.5727 -2.7173  0.1654
77253SOL     OW43737  13.929   9.005  13.044  0.6358 -0.0804 -0.3418
77253SOL    HW143738  13.853   9.018  13.102 -0.1690 -1.1663 -1.1104
77253SOL    HW243739  13.964   8.920  13.068  0.8946 -0.1009 -0.7817
77254SOL     OW43740   1.987   3.721   4.652  0.0073 -0.9731  0.6278
77254SOL    HW143741   1.917   3.750   4.594  0.3207  0.9447  1.1405
77254SOL    HW243742   2.062   3.775   4.628  0.7482 -1.6169  1.4111
77255SOL     OW43743  11.711   1.689   4.640  0.3936 -0.1628  0.2113
77255SOL    HW143744  11.638   1.705   4.700  0.2537 -1.8441  0.5328
77255SOL    HW243745  11.700   1.598   4.613  1.0594  0.2446 -1.5744
77256SOL     OW43746   5.032   6.892  10.383 -0.1767  0.3411  0.1581
77256SOL    HW143747   4.954   6.839  10.397 -0.5436  1.0104  0.6847
77256SOL    HW243748   5.104   6.829  10.384 -0.6058 -0.1429  0.7863
77257SOL     OW43749   5.697   3.817   5.590  0.1635  0.6910  0.4348
77257SOL    HW143750   5.787   3.807   5.560 -0.4834 -2.0345 -0.9701
77257SOL    HW243751   5.675   3.732   5.628 -1.1916  1.9782  2.7104
77258SOL     OW43752   0.211   1.917   0.275 -0.2006  0.4461  0.1757
77258SOL    HW143753   0.267   1.860   0.327  0.5108 -0.4642 -1.5105
77258SOL    HW243754   0.272   1.973   0.227 -0.8763  2.2989  1.3601
77259SOL     OW43755   6.523   1.948  12.938  0.5541  0.1318 -0.0959
77259SOL    HW143756   6.542   2.038  12.967  1.0376  0.0974 -0.2864
77259SOL    HW243757   6.497   1.902  13.018  0.3345  0.4352  0.0086
77260SOL     OW43758  10.324   6.518  12.701 -0.3499  0.4053 -0.4730
77260SOL    HW143759  10.310   6.610  12.683 -0.6895  0.0593 -2.1264
77260SOL    HW243760  10.357   6.515  12.791 -1.7792  2.0040  0.1372
77261SOL     OW43761   8.825   6.863   1.306  0.9287  0.1573 -0.1357
77261SOL    HW143762   8.880   6.872   1.228  0.6634  0.5533 -0.2818
77261SOL    HW243763   8.884   6.884   1.379  0.9267  0.8029 -0.3088
77262SOL     OW43764   0.829   4.918   1.524  0.0257  0.3890 -0.6511
77262SOL    HW143765   0.759   4.855   1.505  0.2214 -0.1993  0.4796
77262SOL    HW243766   0.788   5.003   1.515 -1.6067  0.0832  2.4198
77263SOL     OW43767  13.672   3.506   1.460 -0.0516  0.0097  0.2562
77263SOL    HW143768  13.667   3.530   1.553  2.0971  0.4226  0.3138
77263SOL    HW243769  13.583   3.480   1.437 -0.7849  0.6164  2.2365
77264SOL     OW43770   8.992  10.965   8.817 -0.1027  0.2672 -0.0196
77264SOL    HW143771   9.064  11.000   8.765 -0.9659  0.2315 -1.3031
77264SOL    HW243772   9.016  10.983   8.908  0.6761  1.8551 -0.5131
77265SOL     OW43773   0.006   8.665  11.079 -0.2892 -0.3228 -0.5861
77265SOL    HW143774  -0.010   8.717  11.158 -0.1260 -0.3212 -0.5545
77265SOL    HW243775  -0.082   8.647  11.045 -0.3250  0.8541 -1.1646
77266SOL     OW43776   9.524  13.864   0.347  0.1408  0.6259 -0.3452
77266SOL    HW143777   9.615  13.848   0.322 -0.1897  1.0833 -1.9707
77266SOL    HW243778   9.497  13.938   0.293 -1.6021 -0.3611 -0.9284
77267SOL     OW43779   7.476   5.969   1.668  0.2915 -0.3746 -0.5562
77267SOL    HW143780   7.383   5.949   1.675  0.7795 -2.4562  0.6268
77267SOL    HW243781   7.499   6.006   1.753  0.6643 -0.2849 -0.6917
77268SOL     OW43782   6.607  10.808   3.300 -0.1485  0.0690  0.1433
77268SOL    HW143783   6.622  10.814   3.206 -0.7210 -2.0678 -0.1527
77268SOL    HW243784   6.680  10.855   3.340  0.1123  0.9814 -1.3635
77269SOL     OW43785   4.186   9.551   0.555  0.2052  0.3672 -0.0185
77269SOL    HW143786   4.212   9.639   0.582 -0.9448  1.0268 -0.9705
77269SOL    HW243787   4.091   9.550   0.565  0.0777 -0.3565 -1.1363
77270SOL     OW43788  10.451  14.015   8.949  0.7887  0.6544 -0.1772
77270SOL    HW143789  10.473  14.085   9.010  2.1947 -0.4448  0.6313
77270SOL    HW243790  10.533  13.997   8.902  0.8389 -1.3500  0.5931
77271SOL     OW43791   7.823  13.347   9.529  0.1335 -0.1424 -0.1872
77271SOL    HW143792   7.750  13.315   9.582  0.5727 -0.1718  0.4096
77271SOL    HW243793   7.801  13.439   9.511 -0.0663 -0.1609 -0.0484
77272SOL     OW43794  11.746   2.989   8.349  0.1028 -0.0464  0.2374
77272SOL    HW143795  11.725   2.921   8.413  1.9571 -2.0161 -1.1153
77272SOL    HW243796  11.668   3.045   8.348 -1.0624 -1.4804  2.2135
77273SOL     OW43797   7.198  10.908   4.323 -0.4378  0.1618  0.1217
77273SOL    HW143798   7.150  10.828   4.303 -0.1664 -0.2720  1.1228
77273SOL    HW243799   7.266  10.913   4.255 -0.3457 -0.5555  0.1566
77274SOL     OW43800   4.757   3.329   3.990 -0.4254 -0.0316  0.1325
77274SOL    HW143801   4.728   3.409   4.034  1.0973  1.1739 -0.9349
77274SOL    HW243802   4.852   3.329   4.002 -0.2449 -0.8719 -1.1869
77275SOL     OW43803   0.697   2.566  10.917 -0.4622 -0.6346 -0.4769
77275SOL    HW143804   0.629   2.574  10.851 -0.6921 -0.0206 -0.1737
77275SOL    HW243805   0.668   2.622  10.989  0.6956  0.1977 -0.6214
77276SOL     OW43806   4.979  11.593   4.460  0.0495  0.4059  0.0683
77276SOL    HW143807   4.905  11.612   4.403 -0.8194 -0.0669  0.9951
77276SOL    HW243808   5.031  11.528   4.412 -0.1314  0.7401 -0.5873
77277SOL     OW43809  13.522  11.373   9.610 -0.1275 -0.5532  0.1286
77277SOL    HW143810  13.575  11.418   9.545 -1.3419  2.2392  0.8980
77277SOL    HW243811  13.469  11.311   9.560 -0.0727  0.5617 -1.3699
77278SOL     OW43812  11.455  11.101  12.720  0.9618  0.0504  0.6463
77278SOL    HW143813  11.411  11.021  12.748  1.5063 -0.5676 -0.2058
77278SOL    HW243814  11.385  11.161  12.694  0.6026 -0.8994 -0.6576
77279SOL     OW43815   1.977   8.036  10.579 -0.0784 -0.3658  0.4421
77279SOL    HW143816   2.070   8.052  10.562 -0.2354 -0.6966 -0.8029
77279SOL    HW243817   1.931   8.085  10.511 -0.7325 -1.8175 -0.2044
77280SOL     OW43818   9.356   4.124  11.292 -0.1479  0.5163 -0.2768
77280SOL    HW143819   9.330   4.069  11.218  0.6892  0.5785 -0.6337
77280SOL    HW243820   9.299   4.097  11.364  0.6765 -1.3078 -0.2498
77281SOL     OW43821   1.442   9.967  12.994 -0.2301 -0.6226 -0.0808
77281SOL    HW143822   1.431  10.056  13.025  0.6822 -1.5517  3.3610
77281SOL    HW243823   1.368   9.919  13.031 -1.0924 -1.2640 -2.4366
77282SOL     OW43824   6.904   1.266   9.562  0.6171  0.1522  0.2583
77282SOL    HW143825   6.878   1.345   9.610 -2.2103 -0.2113 -0.5037
77282SOL    HW243826   6.877   1.193   9.617 -0.5320 -0.2555 -0.7839
77283SOL     OW43827  11.561   2.721   3.202  0.0467  0.5307 -0.4900
77283SOL    HW143828  11.590   2.812   3.210  1.0363  0.2148 -0.3292
77283SOL    HW243829  11.619   2.672   3.260 -2.0861  0.0899  1.3832
77284SOL     OW43830   2.297   6.451   9.976  0.5954 -0.6146  0.8144
77284SOL    HW143831   2.323   6.380  10.034  1.4371 -0.2753  0.8690
77284SOL    HW243832   2.336   6.529  10.014  1.3095 -0.4076 -0.2974
77285SOL     OW43833  10.863   1.451   3.569  0.7451  0.5078 -0.2012
77285SOL    HW143834  10.835   1.491   3.487 -0.3316 -0.2876 -0.2454
77285SOL    HW243835  10.830   1.361   3.565  2.4918 -0.2033  0.1962
77286SOL     OW43836   2.052   8.345   1.113  0.3760  0.1881  0.2611
77286SOL    HW143837   2.093   8.276   1.060 -1.9250 -1.7312  0.8261
77286SOL    HW243838   1.971   8.366   1.068  0.2987  1.4521  0.9353
77287SOL     OW43839   6.600   9.556   6.939 -0.2590 -0.2355  0.7592
77287SOL    HW143840   6.561   9.628   6.890 -0.6359 -0.1269  1.2075
77287SOL    HW243841   6.525   9.503   6.966 -0.2039  0.4201  2.3276
77288SOL     OW43842   2.990   4.581   3.486 -0.0489  0.0013  0.3372
77288SOL    HW143843   2.964   4.559   3.397 -1.0058  3.5611 -0.4349
77288SOL    HW243844   3.070   4.531   3.502 -0.8920 -2.1559 -1.7633
77289SOL     OW43845   1.752   4.389   0.431  0.0067  0.0143 -0.4189
77289SOL    HW143846   1.665   4.357   0.456 -0.0622 -1.0675 -1.9127
77289SOL    HW243847   1.803   4.386   0.513 -1.1877  0.1414  0.3568
77290SOL     OW43848   6.004   1.457  13.190  0.3704 -0.4743  0.1222
77290SOL    HW143849   6.081   1.444  13.136  0.6761  1.5208 -0.0169
77290SOL    HW243850   5.943   1.505  13.134 -0.4922 -0.9632  0.6147
77291SOL     OW43851   6.377   1.797   0.512 -0.1812  0.3040  0.3351
77291SOL    HW143852   6.378   1.836   0.424 -0.3915  1.3719  0.7942
77291SOL    HW243853   6.287   1.810   0.543  0.0858  0.6123  0.9955
77292SOL     OW43854   7.933   8.570   0.929 -0.2966  0.0192  0.0771
77292SOL    HW143855   7.891   8.539   1.009  0.1378  0.9501  0.6834
77292SOL    HW243856   8.026   8.551   0.941  0.1042  2.2050  0.8229
77293SOL     OW43857   2.589   5.792  12.992 -0.5987  0.5471 -0.8839
77293SOL    HW143858   2.659   5.853  13.014 -0.2354 -0.4023  0.8241
77293SOL    HW243859   2.512   5.847  12.980  0.0430  1.4573 -0.9008
77294SOL     OW43860   5.505   3.640   9.557  0.1604  0.1614  0.1710
77294SOL    HW143861   5.475   3.637   9.648  1.2665  1.0499  0.5871
77294SOL    HW243862   5.478   3.556   9.520 -1.5143  0.3256  0.9165
77295SOL     OW43863   0.259  10.723   3.063 -0.1139 -0.0580 -0.3124
77295SOL    HW143864   0.173  10.708   3.102 -0.0142  1.8406  0.7704
77295SOL    HW243865   0.241  10.753   2.974 -0.6105  0.4571 -0.0448
77296SOL     OW43866   7.568   5.552  10.102 -0.2243 -0.3656 -0.2272
77296SOL    HW143867   7.526   5.468  10.120 -0.0345 -0.3305  0.4062
77296SOL    HW243868   7.661   5.531  10.098 -0.1548 -0.1462  0.1936
77297SOL     OW43869   2.755   8.378   1.072 -0.3695  0.1128 -0.2185
77297SOL    HW143870   2.798   8.294   1.090  1.4363  1.1193  0.3969
77297SOL    HW243871   2.820   8.429   1.025 -1.2131  1.3981 -0.0467
77298SOL     OW43872  11.482   7.796   7.721  0.0283  0.2161 -0.0184
77298SOL    HW143873  11.562   7.771   7.767  0.7927  1.7045 -0.4509
77298SOL    HW243874  11.413   7.788   7.786 -0.1028 -4.0987 -0.4317
77299SOL     OW43875   3.317   3.914   8.472  0.1856  0.7600 -0.1817
77299SOL    HW143876   3.231   3.951   8.492  0.4982  0.6316  1.5623
77299SOL    HW243877   3.377   3.988   8.477  0.5180  0.4161  1.1827
77300SOL     OW43878   5.651   7.426   1.197  0.3118 -0.2164 -0.6230
77300SOL    HW143879   5.562   7.409   1.227 -0.1969  0.5618 -1.5976
77300SOL    HW243880   5.703   7.431   1.277 -0.6177 -0.1549 -0.0048
77301SOL     OW43881   9.312   7.088  11.780 -0.5197  0.1404  0.1004
77301SOL    HW143882   9.250   7.114  11.712 -0.3271 -0.1965 -0.2142
77301SOL    HW243883   9.387   7.146  11.768 -0.6550  0.3554  0.2932
77302SOL     OW43884   0.237   4.493   9.897 -0.2063 -0.1615  0.2710
77302SOL    HW143885   0.223   4.509   9.990 -0.3518 -0.9162  0.3840
77302SOL    HW243886   0.149   4.494   9.859 -0.2770 -1.2447  0.3774
77303SOL     OW43887  10.938  12.250   3.576 -0.0563 -0.3974  0.2554
77303SOL    HW143888  10.879  12.300   3.633  0.8245 -0.9682  1.7523
77303SOL    HW243889  10.891  12.241   3.494 -1.3563  0.5600  0.8580
77304SOL     OW43890  12.978   5.911  13.829  0.0908  0.3368 -0.4738
77304SOL    HW143891  12.975   5.854  13.906 -1.0932  1.8492  0.6679
77304SOL    HW243892  13.036   5.983  13.855  0.9951  0.0616 -1.6290
77305SOL     OW43893   6.716   2.843   4.313 -0.4175  0.8176 -0.0319
77305SOL    HW143894   6.699   2.936   4.300 -2.3063  0.3419 -1.2542
77305SOL    HW243895   6.651   2.798   4.260  1.2589 -1.2281 -0.5194
77306SOL     OW43896   0.428   5.369   1.084  0.4573  0.8675  0.1165
77306SOL    HW143897   0.367   5.296   1.094 -0.5858  1.6536 -0.2848
77306SOL    HW243898   0.461   5.362   0.994  0.2491  0.9541  0.0313
77307SOL     OW43899   0.681   2.299  12.443  0.3716  0.4298 -0.3901
77307SOL    HW143900   0.632   2.382  12.444  1.6480  1.2513 -1.9043
77307SOL    HW243901   0.738   2.305  12.520  1.1975  1.4496 -1.0570
77308SOL     OW43902   9.822  12.165   9.466 -0.9439  0.2710  0.5702
77308SOL    HW143903   9.780  12.250   9.452 -0.9252 -0.0099 -1.4438
77308SOL    HW243904   9.817  12.121   9.382 -0.2409 -1.4300  1.3670
77309SOL     OW43905  10.380   5.232   3.696  0.2827  0.2983  0.0777
77309SOL    HW143906  10.386   5.286   3.617  2.4557  0.1593  0.0967
77309SOL    HW243907  10.304   5.267   3.743 -1.5149 -0.0933 -2.3751
77310SOL     OW43908   7.991  11.078   8.883 -0.5654  0.2855 -0.4961
77310SOL    HW143909   8.074  11.115   8.911  0.1838 -0.1403 -2.0131
77310SOL    HW243910   7.996  11.079   8.787 -2.6358  0.9707 -0.6454
77311SOL     OW43911   3.367   1.667  11.933 -1.0628 -0.0086  0.2781
77311SOL    HW143912   3.341   1.746  11.981 -2.1055 -0.6212  0.7806
77311SOL    HW243913   3.425   1.698  11.864 -2.0752  1.3068 -0.0312
77312SOL     OW43914   9.001  10.137  13.320  0.2290  0.3898 -0.1968
77312SOL    HW143915   8.916  10.167  13.353  1.8381  1.4687  3.4043
77312SOL    HW243916   9.015  10.053  13.364  0.9931  0.1771 -0.8410
77313SOL     OW43917   3.332  12.472   2.739  0.0040  0.3083 -0.5647
77313SOL    HW143918   3.402  12.415   2.769 -0.9709 -0.3134  0.6372
77313SOL    HW243919   3.314  12.529   2.814 -1.4205 -0.2010 -0.4978
77314SOL     OW43920   0.967   6.313   3.808 -0.0417  0.2837 -0.9156
77314SOL    HW143921   0.926   6.390   3.848  1.7277  0.5861  0.4320
77314SOL    HW243922   1.036   6.348   3.752  0.5170 -0.3141 -0.6105
77315SOL     OW43923  10.990  13.429   9.518 -0.1805  0.0144  0.9306
77315SOL    HW143924  11.064  13.380   9.554  0.2100 -1.2287 -1.3823
77315SOL    HW243925  10.927  13.361   9.493 -0.2041  0.7228 -1.0992
77316SOL     OW43926   7.867   4.820   1.315 -0.5535 -0.2060 -0.1974
77316SOL    HW143927   7.813   4.845   1.241 -2.2238 -2.4447  0.1621
77316SOL    HW243928   7.957   4.833   1.285 -1.2178  0.9791 -1.8019
77317SOL     OW43929   7.750   0.086  12.050  0.0323 -0.3442 -0.3600
77317SOL    HW143930   7.765   0.152  11.982 -1.5106  1.0206  0.5243
77317SOL    HW243931   7.667   0.113  12.090 -0.3072 -2.4865  0.4750
77318SOL     OW43932   2.279   5.523   3.665  0.1708  0.3555  0.0921
77318SOL    HW143933   2.216   5.581   3.623 -0.6205  0.0689  0.8572
77318SOL    HW243934   2.295   5.454   3.601 -1.2784 -0.2620  0.3587
77319SOL     OW43935   2.934   7.976  12.343  0.0521  0.0715 -0.2157
77319SOL    HW143936   2.991   7.910  12.303 -0.1864 -0.2181 -0.0828
77319SOL    HW243937   2.994   8.039  12.382  0.2898  0.3282 -0.9782
77320SOL     OW43938  10.063   6.632  10.517  0.1332  0.3919 -0.5016
77320SOL    HW143939  10.019   6.547  10.512  0.1242  0.1399  2.1557
77320SOL    HW243940  10.021   6.685  10.449 -1.3606 -1.0782 -0.8027
77321SOL     OW43941   8.761  11.103   4.355  0.5355  0.2245 -0.4149
77321SOL    HW143942   8.730  11.066   4.438  3.1371 -0.3090  0.4171
77321SOL    HW243943   8.711  11.056   4.288 -0.7122 -0.2619  0.8087
77322SOL     OW43944  12.361  10.334   0.626 -0.4147  0.2047 -0.4089
77322SOL    HW143945  12.321  10.306   0.544 -2.1644  2.9027 -0.6073
77322SOL    HW243946  12.449  10.364   0.601 -0.5277 -0.0341 -1.1107
77323SOL     OW43947   0.275  12.700  11.860 -0.3889 -0.4200 -0.1469
77323SOL    HW143948   0.208  12.766  11.842  0.4599  0.8352  1.0521
77323SOL    HW243949   0.332  12.702  11.783 -0.2852  0.3762 -0.0595
77324SOL     OW43950   2.350   8.396   6.732  0.3546 -0.3384 -0.1339
77324SOL    HW143951   2.298   8.316   6.735  3.1371 -2.3027 -0.3298
77324SOL    HW243952   2.286   8.466   6.720 -2.1290 -2.6294 -1.2346
77325SOL     OW43953   6.471   4.706   0.094  0.1239 -0.1522  0.5541
77325SOL    HW143954   6.459   4.726   0.001 -0.1470 -1.4065  0.2905
77325SOL    HW243955   6.443   4.615   0.102  0.7006 -0.2432  1.7567
77326SOL     OW43956   6.297   2.310   9.624 -0.1699  0.4840  0.1258
77326SOL    HW143957   6.310   2.318   9.529  2.5601  0.9635  0.4421
77326SOL    HW243958   6.208   2.341   9.639 -0.5238  0.8051 -2.2245
77327SOL     OW43959   7.924   0.124   1.957  0.1726  0.3484  0.2743
77327SOL    HW143960   7.886   0.176   1.886 -0.7591 -0.5383  0.0999
77327SOL    HW243961   8.000   0.175   1.986  0.7519  0.5959 -1.5490
77328SOL     OW43962   7.666   1.470   5.062 -0.0943 -0.0764  0.2593
77328SOL    HW143963   7.708   1.517   4.989 -1.4682 -0.1596 -0.6263
77328SOL    HW243964   7.734   1.467   5.130  1.9626 -1.7610 -1.6928
77329SOL     OW43965   1.807   8.332   7.897 -0.3241  0.2504  0.2915
77329SOL    HW143966   1.778   8.354   7.986  0.3511 -1.9468  1.1098
77329SOL    HW243967   1.901   8.349   7.897 -0.5480  1.7388 -0.5501
77330SOL     OW43968  10.450  12.916   7.719 -0.0639  0.1133 -0.1643
77330SOL    HW143969  10.432  12.826   7.693  0.0080 -0.4806  1.7131
77330SOL    HW243970  10.492  12.909   7.805 -2.3251  1.9867  1.2453
77331SOL     OW43971   5.945   4.437   0.197  0.7538 -0.1278 -0.0563
77331SOL    HW143972   5.889   4.514   0.200 -0.5640 -1.0758  0.6569
77331SOL    HW243973   6.024   4.463   0.244  0.9247  1.2148 -1.0406
77332SOL     OW43974   0.567   6.037   2.378 -0.0723 -0.0664 -0.1189
77332SOL    HW143975   0.535   6.119   2.415 -0.2630 -0.2129  0.0435
77332SOL    HW243976   0.543   6.041   2.285 -0.9598 -0.3610  0.0853
77333SOL     OW43977   2.586   4.962   9.307 -0.7343 -0.2519  0.6500
77333SOL    HW143978   2.550   5.019   9.375 -0.0379 -0.4605  1.2182
77333SOL    HW243979   2.636   5.020   9.251  0.4167 -0.3493  1.5348
77334SOL     OW43980   0.895   2.484  12.362 -0.0568 -0.2718  0.5699
77334SOL    HW143981   0.893   2.432  12.442  0.6287 -0.3630  0.5342
77334SOL    HW243982   0.840   2.560  12.381 -1.3624 -1.1689  0.4966
77335SOL     OW43983   1.518   3.413   4.510  0.5518  0.4489 -0.3596
77335SOL    HW143984   1.539   3.338   4.566  1.6408 -0.7505 -2.2642
77335SOL    HW243985   1.602   3.445   4.479 -0.0319  0.3850 -2.1416
77336SOL     OW43986  10.535  10.578   6.944 -0.0190 -0.1095  0.3012
77336SOL    HW143987  10.548  10.484   6.955  0.9944  0.1646  1.7214
77336SOL    HW243988  10.594  10.602   6.873  0.7296 -0.3287  0.8432
77337SOL     OW43989   1.500   2.979   3.023 -0.5103 -0.1038  0.0126
77337SOL    HW143990   1.524   3.032   3.099 -0.8692  1.1962 -0.7480
77337SOL    HW243991   1.582   2.937   2.996 -0.3220 -0.3446  0.9218
77338SOL     OW43992  13.208   1.385   6.606 -0.0889  0.5698  0.1214
77338SOL    HW143993  13.159   1.305   6.585 -0.0696  0.5230  0.2551
77338SOL    HW243994  13.263   1.361   6.680 -0.0498  0.6943  0.1330
77339SOL     OW43995  10.274   4.736  12.156  0.2859 -0.3536 -0.7919
77339SOL    HW143996  10.295   4.749  12.249 -0.5540 -0.1936 -0.6212
77339SOL    HW243997  10.193   4.785  12.142  0.4884 -0.2398 -1.6554
77340SOL     OW43998   4.642   9.616   3.918 -0.4771  0.4053 -0.2679
77340SOL    HW143999   4.571   9.679   3.909 -0.2301  0.5123 -1.6172
77340SOL    HW244000   4.601   9.540   3.960 -1.2454  0.7008 -0.4702
77341SOL     OW44001  10.774   8.142   7.108 -0.2896  0.4764 -0.3016
77341SOL    HW144002  10.754   8.058   7.067  1.0428 -0.8081  1.4963
77341SOL    HW244003  10.868   8.153   7.095 -0.5198  1.9106 -0.8620
77342SOL     OW44004   6.518   0.249   5.531  0.0809  0.3487  0.5429
77342SOL    HW144005   6.531   0.309   5.458 -1.5477 -1.1872 -1.0751
77342SOL    HW244006   6.462   0.180   5.497 -0.3543 -0.6914  3.1189
77343SOL     OW44007  13.121   4.346   4.607 -0.1012  0.3478  0.3344
77343SOL    HW144008  13.137   4.401   4.683  1.1726  0.6147 -0.1007
77343SOL    HW244009  13.191   4.369   4.546 -0.7088 -0.3445 -0.6445
77344SOL     OW44010   8.728  10.135   5.794  0.1279  0.3307 -0.0193
77344SOL    HW144011   8.654  10.167   5.743 -1.7130 -0.1535  2.1363
77344SOL    HW244012   8.710  10.041   5.804 -0.5177  0.6354  2.7096
77345SOL     OW44013   4.395   3.423   9.740 -0.1620 -0.0529  0.4547
77345SOL    HW144014   4.487   3.449   9.744 -0.0062  0.0522 -2.1900
77345SOL    HW244015   4.362   3.438   9.828  2.3513 -0.1240  1.4832
77346SOL     OW44016  12.668   7.902  11.782 -0.0047 -0.4279  0.4116
77346SOL    HW144017  12.736   7.870  11.723 -0.3131 -0.2509 -0.0458
77346SOL    HW244018  12.688   7.861  11.866 -0.3101 -1.7270 -0.1214
77347SOL     OW44019   9.956   4.217   5.600 -0.6098 -0.2318 -0.4693
77347SOL    HW144020   9.896   4.185   5.533 -2.9624  1.0245  0.8836
77347SOL    HW244021  10.025   4.262   5.552 -0.7792 -1.5890 -2.0893
77348SOL     OW44022   0.465   1.456   7.747 -0.8833  0.0494 -0.2508
77348SOL    HW144023   0.453   1.525   7.682 -1.3112 -0.5450 -0.8087
77348SOL    HW244024   0.554   1.425   7.734  0.1211  1.9632  1.4589
77349SOL     OW44025   4.039  10.976  13.456 -0.3485  0.3248  0.0400
77349SOL    HW144026   4.077  10.890  13.440  0.5536  0.2870  2.1388
77349SOL    HW244027   4.098  11.017  13.519 -1.6093  1.8804  0.2616
77350SOL     OW44028  13.051   8.243   0.786  0.6810 -0.1697 -0.3016
77350SOL    HW144029  13.070   8.200   0.703 -2.5862 -1.4095 -0.5515
77350SOL    HW244030  13.002   8.322   0.761  0.8599  0.1829  0.4317
77351SOL     OW44031   7.095   9.458   7.408 -0.0573  0.1459  0.2319
77351SOL    HW144032   7.071   9.503   7.488 -1.5586 -0.0061 -0.1084
77351SOL    HW244033   7.182   9.421   7.426  0.0959  1.0221  1.3831
77352SOL     OW44034   7.759   1.691   9.710 -0.2766  0.0795 -0.2400
77352SOL    HW144035   7.754   1.774   9.663 -1.7215 -0.3003 -0.8280
77352SOL    HW244036   7.791   1.629   9.646 -1.4289 -0.2642 -0.5162
77353SOL     OW44037  11.683   6.031  12.013  0.0640 -0.4533 -0.0320
77353SOL    HW144038  11.729   5.979  12.080 -0.3066 -1.1487 -0.3115
77353SOL    HW244039  11.662   5.969  11.944 -0.4620  0.0529 -0.3391
77354SOL     OW44040   7.156   2.977  10.231  0.0374 -0.1686 -0.4024
77354SOL    HW144041   7.117   3.021  10.155 -0.3626 -2.9667 -1.9417
77354SOL    HW244042   7.249   3.000  10.228 -0.1347  0.4484 -1.2200
77355SOL     OW44043  11.268   5.492  10.028 -0.1668 -0.2508  0.3751
77355SOL    HW144044  11.343   5.518  10.081  0.2235  0.8991 -0.6770
77355SOL    HW244045  11.200   5.469  10.091  0.7575 -0.3745  1.3448
77356SOL     OW44046   3.054   1.510   3.959 -0.0706 -0.2559 -0.0965
77356SOL    HW144047   2.986   1.571   3.988  0.0656 -0.8090  1.5031
77356SOL    HW244048   3.021   1.472   3.879 -1.5615 -0.3627  0.5483
77357SOL     OW44049   1.344   5.246  10.061  0.3690 -0.1425  1.2023
77357SOL    HW144050   1.255   5.262  10.028  0.3412 -0.4889  1.1093
77357SOL    HW244051   1.390   5.329  10.046 -0.3283  0.5311  2.5729
77358SOL     OW44052   8.807  10.413  12.885  0.7591 -0.9154  0.3761
77358SOL    HW144053   8.814  10.471  12.809 -0.1579 -1.1708  0.0765
77358SOL    HW244054   8.896  10.382  12.901  1.2128  0.3161  0.3446
77359SOL     OW44055   8.854   5.088   3.739 -0.1488  0.2184  0.1378
77359SOL    HW144056   8.771   5.062   3.699  1.0823 -2.6235 -0.8194
77359SOL    HW244057   8.888   5.156   3.681 -1.0786  0.3273 -0.3041
77360SOL     OW44058   2.843   7.474   3.015  0.0685 -0.1320  0.0926
77360SOL    HW144059   2.827   7.463   3.109 -0.3320 -0.0245  0.0408
77360SOL    HW244060   2.890   7.394   2.989  0.7134  0.1091  0.4987
77361SOL     OW44061   0.207   5.790   9.991  0.2007 -0.2093  0.1372
77361SOL    HW144062   0.137   5.766   9.931 -1.0664  0.4534  1.2942
77361SOL    HW244063   0.235   5.707  10.030  1.1203 -0.6572 -1.4147
77362SOL     OW44064   9.961   0.695   3.865  0.3686 -0.4446  0.0120
77362SOL    HW144065   9.898   0.636   3.908  1.8376 -1.7574  0.4508
77362SOL    HW244066   9.986   0.757   3.933 -1.2624  0.8135 -0.4792
77363SOL     OW44067  12.160   8.670   5.667  0.6818  0.1718  0.2548
77363SOL    HW144068  12.095   8.718   5.616 -0.3599 -0.8479  0.5893
77363SOL    HW244069  12.187   8.598   5.609 -0.4792 -0.9683  1.0859
77364SOL     OW44070   9.133   5.386   7.733  0.1814  1.3581 -0.4151
77364SOL    HW144071   9.138   5.473   7.692 -1.2500  0.6459 -2.2705
77364SOL    HW244072   9.039   5.366   7.735  0.4786 -0.1002  0.0698
77365SOL     OW44073   4.469   2.567   7.104  0.0794  0.5171  0.4587
77365SOL    HW144074   4.393   2.622   7.085  0.2130  0.8794  0.9398
77365SOL    HW244075   4.537   2.629   7.129  0.3925  0.1624  0.4938
77366SOL     OW44076   7.838  10.621  13.224 -0.2635  0.1885  0.2149
77366SOL    HW144077   7.753  10.606  13.182 -0.2455 -0.5901  0.4410
77366SOL    HW244078   7.862  10.535  13.260  2.0411 -0.4403 -2.4257
77367SOL     OW44079   4.837  12.840   6.664  0.3685 -0.4260 -0.1492
77367SOL    HW144080   4.912  12.795   6.627 -0.4680 -0.0143 -2.5101
77367SOL    HW244081   4.846  12.931   6.633 -0.5936 -0.1573  0.3095
77368SOL     OW44082   7.641   4.908  10.739 -0.1226 -0.2930 -0.4626
77368SOL    HW144083   7.720   4.957  10.765  0.2217 -1.2406  0.3303
77368SOL    HW244084   7.675   4.837  10.685 -0.3870 -0.9080  0.1651
77369SOL     OW44085   3.873   2.705  12.067  0.7233 -0.1562 -0.5446
77369SOL    HW144086   3.895   2.733  11.978 -1.2788 -1.5784 -1.5583
77369SOL    HW244087   3.890   2.611  12.067  1.1598 -0.0992  0.7673
77370SOL     OW44088   9.333  11.770   1.531 -0.2617  0.4807  0.0972
77370SOL    HW144089   9.417  11.762   1.576 -0.1648  1.5773  0.1325
77370SOL    HW244090   9.291  11.846   1.571 -0.4830  1.0561 -1.1745
77371SOL     OW44091   1.975   0.237   8.624 -0.3173 -0.6509 -0.4799
77371SOL    HW144092   2.002   0.203   8.538 -1.3576 -0.9519 -0.7081
77371SOL    HW244093   1.970   0.332   8.612 -0.2209 -0.6714 -0.6858
77372SOL     OW44094   8.603   8.881  10.119 -0.9036  0.2119  0.0880
77372SOL    HW144095   8.616   8.797  10.164 -0.6367  0.0022 -0.3738
77372SOL    HW244096   8.574   8.941  10.188 -2.2128 -0.5408  0.2233
77373SOL     OW44097   9.527   2.948   9.485  0.4828 -0.3809  0.2104
77373SOL    HW144098   9.597   3.012   9.474  0.6378 -0.6706 -0.5948
77373SOL    HW244099   9.450   3.000   9.508  0.7643  0.0210  0.2541
77374SOL     OW44100   9.903  11.844   5.215  0.0811 -0.5382  0.3508
77374SOL    HW144101   9.854  11.923   5.192  2.1077  0.1682 -1.9702
77374SOL    HW244102   9.863  11.814   5.297 -0.7983  2.8440  1.3284
77375SOL     OW44103   0.341   2.338   7.662 -0.5738  0.3084 -0.1391
77375SOL    HW144104   0.272   2.287   7.620 -0.1448 -1.0229  0.7004
77375SOL    HW244105   0.422   2.289   7.644 -0.0884  0.8841  0.3942
77376SOL     OW44106   8.094   8.278  11.850 -0.2952 -0.5146 -0.2788
77376SOL    HW144107   8.164   8.213  11.845 -0.0087 -0.2549  0.2828
77376SOL    HW244108   8.077   8.302  11.759 -0.1003 -1.0494 -0.4596
77377SOL     OW44109   9.106   7.824   9.472  0.2031 -0.0969  0.2093
77377SOL    HW144110   9.036   7.858   9.416  2.2317 -1.0217 -3.2195
77377SOL    HW244111   9.158   7.901   9.494 -1.2457  0.4503  1.9549
77378SOL     OW44112   7.458   5.329   2.674 -0.3204  0.0078  1.1795
77378SOL    HW144113   7.463   5.307   2.767  1.4755 -1.6984  0.7441
77378SOL    HW244114   7.419   5.417   2.673 -1.9373 -0.5775  3.4139
77379SOL     OW44115   0.630  13.094   3.719 -0.6525 -0.0276  0.4759
77379SOL    HW144116   0.582  13.177   3.716  1.6118  1.3613  0.3815
77379SOL    HW244117   0.681  13.100   3.800 -1.6243 -2.0580  1.2871
77380SOL     OW44118   6.860   9.631  11.408  0.4589 -0.2450  0.2533
77380SOL    HW144119   6.898   9.707  11.454 -1.1840  0.5785  0.3174
77380SOL    HW244120   6.817   9.669  11.332  0.5721 -1.2630 -0.3221
77381SOL     OW44121   7.159   0.059   3.364 -0.2799  0.1023  0.0811
77381SOL    HW144122   7.194  -0.008   3.305  0.9368  0.7907 -0.0157
77381SOL    HW244123   7.128   0.129   3.305 -1.2486 -0.2235  0.1906
77382SOL     OW44124  12.624   4.061  10.996 -0.1907  0.2510 -0.3177
77382SOL    HW144125  12.621   4.098  10.908 -0.2838  0.7189 -0.1176
77382SOL    HW244126  12.713   4.026  11.004  1.2434  3.6907  0.7962
77383SOL     OW44127   2.144   8.055   6.395  0.6018  0.0539  0.2593
77383SOL    HW144128   2.143   7.960   6.410  0.0522  0.2599  1.7916
77383SOL    HW244129   2.236   8.078   6.398  0.8138 -0.5440 -1.0647
77384SOL     OW44130   9.081   5.249   1.042 -0.1632  0.2913 -0.1868
77384SOL    HW144131   9.151   5.248   1.107 -0.8604 -1.9435  0.6096
77384SOL    HW244132   9.012   5.195   1.080 -1.4771  0.7009 -1.8751
77385SOL     OW44133   6.087   1.042   1.858  0.5032 -0.3993  0.3333
77385SOL    HW144134   6.145   0.966   1.853 -1.5289 -2.2386  2.5446
77385SOL    HW244135   6.012   1.019   1.803  1.6523  1.9704 -2.5314
77386SOL     OW44136   6.630   4.048  10.827 -0.6176  0.1887 -0.4861
77386SOL    HW144137   6.675   3.980  10.777  3.6110  1.3078  1.4134
77386SOL    HW244138   6.626   4.123  10.767 -0.2603 -0.0249 -0.7811
77387SOL     OW44139   3.130   4.977   2.520  0.1074  0.3876  0.1961
77387SOL    HW144140   3.096   5.065   2.506  1.7767  1.4118  2.0809
77387SOL    HW244141   3.201   4.968   2.456  1.9357  1.6745  1.9040
77388SOL     OW44142   5.614  10.852  10.125  0.2833  0.4952  0.5024
77388SOL    HW144143   5.695  10.903  10.123  0.5078  0.1103 -1.1468
77388SOL    HW244144   5.546  10.916  10.146  0.7708  1.1818  0.0178
77389SOL     OW44145   7.035   0.108   2.881 -0.0808 -0.0744 -0.5003
77389SOL    HW144146   7.008   0.018   2.862  1.4773 -1.0480  1.5287
77389SOL    HW244147   7.115   0.120   2.830 -0.7438  0.5160 -1.4430
77390SOL     OW44148  13.609   5.120   0.402 -0.6676  0.1299  0.0039
77390SOL    HW144149  13.573   5.059   0.338 -1.1268  0.3282  0.0757
77390SOL    HW244150  13.540   5.132   0.466  0.2856 -1.2041  1.3578
77391SOL     OW44151  10.055   3.236   5.102 -0.4563 -0.6572 -0.1226
77391SOL    HW144152  10.028   3.199   5.186  1.1902 -0.1199  0.6863
77391SOL    HW244153  10.105   3.166   5.060  2.2079  0.3163  1.1795
77392SOL     OW44154   5.573   5.817   0.452  0.0376  0.0689  0.7459
77392SOL    HW144155   5.650   5.834   0.399  0.3500 -0.0355  1.1578
77392SOL    HW244156   5.606   5.767   0.527 -0.9346 -3.1401 -0.7894
77393SOL     OW44157   3.727  10.025   0.756 -0.3008 -0.0818  0.2329
77393SOL    HW144158   3.669   9.981   0.817  0.2139 -0.1382  0.6865
77393SOL    HW244159   3.765  10.097   0.806 -1.1063  0.8753 -0.4899
77394SOL     OW44160   6.906   3.253   9.609  0.0185 -0.2132 -0.5960
77394SOL    HW144161   6.966   3.314   9.566  0.0540 -0.5356 -1.0115
77394SOL    HW244162   6.888   3.292   9.694  1.8247 -0.7250  0.0551
77395SOL     OW44163   6.403   5.913   1.393 -0.0457  0.2226  0.0379
77395SOL    HW144164   6.308   5.918   1.396 -0.1968 -1.0514 -1.4169
77395SOL    HW244165   6.422   5.848   1.325  1.8738  1.1109 -0.3564
77396SOL     OW44166   7.726   8.862  10.848  0.4181 -0.2306 -0.0189
77396SOL    HW144167   7.742   8.941  10.798  1.0533  1.0135  2.0268
77396SOL    HW244168   7.634   8.869  10.876  0.1698 -0.7414 -0.6917
77397SOL     OW44169   7.009   1.538  10.471  0.6010 -0.0092  0.3548
77397SOL    HW144170   7.045   1.622  10.446 -1.3261  1.5260  2.3546
77397SOL    HW244171   6.978   1.499  10.389  2.2781  0.7896 -0.6991
77398SOL     OW44172   4.809   9.750  10.676 -0.4557 -0.1752 -0.0893
77398SOL    HW144173   4.849   9.799  10.748  0.1110 -1.0288  0.1869
77398SOL    HW244174   4.726   9.795  10.660  0.6119  1.6805 -0.7209
77399SOL     OW44175   7.200   1.824   9.312 -0.1107  0.0741  0.9176
77399SOL    HW144176   7.235   1.872   9.387 -0.4853  0.6337  0.7374
77399SOL    HW244177   7.124   1.778   9.347  0.1858 -0.3094  1.0655
77400SOL     OW44178   0.163   1.397   2.759  0.2256  0.6917 -0.0944
77400SOL    HW144179   0.092   1.418   2.819 -0.0095 -0.8234  0.2159
77400SOL    HW244180   0.150   1.455   2.684 -0.4617  1.4506  0.5910
77401SOL     OW44181  10.157   9.720   3.683 -0.3901 -0.8415  0.1035
77401SOL    HW144182  10.180   9.628   3.667 -1.6737 -0.9064 -1.6449
77401SOL    HW244183  10.070   9.716   3.723 -1.3560 -0.3814 -1.8472
77402SOL     OW44184   5.033  10.950   9.494  0.6427  0.3663  0.1483
77402SOL    HW144185   4.944  10.915   9.496  1.2081 -1.4014 -2.0125
77402SOL    HW244186   5.062  10.947   9.586 -0.0462 -3.1360  0.3907
77403SOL     OW44187   0.385   6.249  11.342 -1.2390  0.1600  0.2490
77403SOL    HW144188   0.290   6.259  11.328 -1.3629 -0.0502  0.9013
77403SOL    HW244189   0.392   6.215  11.431 -0.6346 -1.8333 -0.5187
77404SOL     OW44190  10.359   3.172  10.574 -0.4577  0.5733 -0.1007
77404SOL    HW144191  10.311   3.128  10.504  0.5734 -0.5696 -0.1164
77404SOL    HW244192  10.291   3.200  10.636 -1.2443  0.2137 -0.7800
77405SOL     OW44193  12.156   1.568   9.001 -0.1029  0.0263 -0.0247
77405SOL    HW144194  12.064   1.572   8.972  0.3108  0.4386 -1.3462
77405SOL    HW244195  12.169   1.476   9.025  0.0914 -0.8703 -3.1990
77406SOL     OW44196   8.418  12.002  11.052  0.0912 -0.0380 -0.1302
77406SOL    HW144197   8.500  11.957  11.072  0.5789  0.2465 -1.3522
77406SOL    HW244198   8.375  12.012  11.136  1.8287  0.7947  0.7176
77407SOL     OW44199   8.213   2.177   8.318 -0.0876 -0.0850 -0.0941
77407SOL    HW144200   8.175   2.090   8.304 -1.0785  0.4511 -0.8978
77407SOL    HW244201   8.237   2.207   8.231 -3.0602  1.8695 -0.3709
77408SOL     OW44202  10.915  12.222   6.234  0.2115 -0.2457  0.3488
77408SOL    HW144203  10.867  12.304   6.222 -0.4271 -0.7326 -0.5919
77408SOL    HW244204  10.900  12.174   6.152  0.7119 -1.2255  0.8183
77409SOL     OW44205   7.776   3.283   5.127  0.1098 -0.8314 -0.2207
77409SOL    HW144206   7.864   3.286   5.089  0.4361  0.5650  0.5848
77409SOL    HW244207   7.791   3.281   5.222 -0.5666  4.4070  0.2976
77410SOL     OW44208  12.341   1.011  13.447  0.0590  0.5435  0.1883
77410SOL    HW144209  12.363   0.976  13.361 -0.2331  0.0862  0.2947
77410SOL    HW244210  12.298   1.094  13.429 -2.0609 -0.5747 -0.2517
77411SOL     OW44211   1.405   7.356  11.855  0.1112  0.4312  0.1373
77411SOL    HW144212   1.408   7.448  11.827  1.8779 -0.3518 -2.7237
77411SOL    HW244213   1.337   7.316  11.799 -1.0366  0.0425  1.7384
77412SOL     OW44214   0.625   3.669  11.244 -0.1004 -0.7442  0.2362
77412SOL    HW144215   0.543   3.662  11.292 -0.7003  0.3874 -0.5802
77412SOL    HW244216   0.598   3.682  11.153  0.9763 -0.4416 -0.0504
77413SOL     OW44217   8.846   7.631   7.808  0.2235  0.1094 -0.3600
77413SOL    HW144218   8.896   7.701   7.768  1.5910 -1.4672 -1.5182
77413SOL    HW244219   8.909   7.582   7.860 -1.0260  0.6234  1.7678
77414SOL     OW44220  13.325   9.633   1.781  0.5297  0.2174 -0.2044
77414SOL    HW144221  13.367   9.622   1.696 -0.6840 -1.8610 -0.6208
77414SOL    HW244222  13.244   9.680   1.762 -0.4317 -1.4554 -0.5039
77415SOL     OW44223  10.147  10.097   7.188  0.4449 -0.0488 -0.3589
77415SOL    HW144224  10.134  10.180   7.235 -1.3774  0.0604 -0.9732
77415SOL    HW244225  10.237  10.073   7.207  0.2575  0.7863  1.8951
77416SOL     OW44226   1.755   5.959   7.675  0.2350  0.3958  0.2140
77416SOL    HW144227   1.742   5.992   7.586 -0.3513 -0.3640 -0.0003
77416SOL    HW244228   1.746   6.036   7.731  0.1563  0.8062 -0.3560
77417SOL     OW44229   3.053   7.654  11.727  0.4811  0.4041 -0.8558
77417SOL    HW144230   3.095   7.667  11.641  0.2726  0.5337 -0.9393
77417SOL    HW244231   2.975   7.710  11.724  0.1210 -0.0928 -0.8308
77418SOL     OW44232   6.726   4.048   0.089  0.6571  0.2713 -0.3047
77418SOL    HW144233   6.773   3.973   0.051 -0.2828  0.2493 -1.4700
77418SOL    HW244234   6.795   4.098   0.133  2.0712  0.8914 -2.9832
77419SOL     OW44235   6.040  10.698   5.927 -0.6764  0.2134 -0.0071
77419SOL    HW144236   6.011  10.787   5.909  1.6784  1.1933  0.6377
77419SOL    HW244237   6.048  10.695   6.023  1.2261  0.0539 -0.1249
77420SOL     OW44238  13.516  10.606   1.331  0.2493  0.4573 -0.3437
77420SOL    HW144239  13.567  10.681   1.362  0.3013  0.4116 -0.3198
77420SOL    HW244240  13.557  10.530   1.372  1.1015  0.2672 -1.5156
77421SOL     OW44241   0.753   8.429   8.336 -0.2970  0.0962 -0.0259
77421SOL    HW144242   0.701   8.372   8.393 -3.1256  1.2950 -1.1851
77421SOL    HW244243   0.700   8.509   8.329  3.0040  2.5840  0.7766
77422SOL     OW44244   3.500   4.333   9.334 -0.1101 -0.7967 -0.1253
77422SOL    HW144245   3.557   4.409   9.320  0.5792 -1.3319 -0.2773
77422SOL    HW244246   3.558   4.266   9.371 -0.2171 -1.9748 -1.9945
77423SOL     OW44247   9.847   7.023   0.118 -0.4947  0.1626 -0.6527
77423SOL    HW144248   9.792   6.999   0.043 -0.9528 -0.8218 -0.0249
77423SOL    HW244249   9.923   7.065   0.080 -1.5552  1.3306 -1.5687
77424SOL     OW44250   2.848   3.616   0.351 -0.9152 -0.3587  0.3184
77424SOL    HW144251   2.769   3.607   0.403 -1.6170  1.0458 -0.4661
77424SOL    HW244252   2.827   3.681   0.284  0.4628 -0.9511 -0.7544
77425SOL     OW44253  13.550  10.027  10.268 -0.2683  0.3128  0.2018
77425SOL    HW144254  13.543  10.008  10.362  1.3542  1.5811  0.6280
77425SOL    HW244255  13.496   9.959  10.226 -1.5115  0.0597  2.0543
77426SOL     OW44256  11.754   0.125  10.714  0.3053  0.0674  0.0849
77426SOL    HW144257  11.819   0.113  10.784 -1.2154 -0.3947  1.4755
77426SOL    HW244258  11.772   0.054  10.652  1.0133 -0.1558  0.5402
77427SOL     OW44259   3.480  14.006  11.229  0.2771  0.4316  0.5664
77427SOL    HW144260   3.460  14.072  11.162  0.3447 -0.2127 -0.1101
77427SOL    HW244261   3.435  14.036  11.307 -1.0950  0.4282 -0.1795
77428SOL     OW44262   5.229   2.001   4.613  0.5307  0.2633 -0.3142
77428SOL    HW144263   5.296   2.036   4.554  0.3566  0.7867 -0.2058
77428SOL    HW244264   5.185   2.078   4.647  1.9432  0.1283  2.0755
77429SOL     OW44265   2.269  10.520   5.386 -0.0318 -0.2986  0.0317
77429SOL    HW144266   2.255  10.453   5.318 -0.6924  1.3016 -1.5000
77429SOL    HW244267   2.362  10.542   5.379  0.5103 -1.9631  1.4741
77430SOL     OW44268   3.026  12.529   1.606  0.0277 -0.3325  0.1793
77430SOL    HW144269   2.961  12.462   1.584 -1.1608  0.9014 -0.1965
77430SOL    HW244270   3.097  12.515   1.545  0.2849 -1.9187  0.8056
77431SOL     OW44271  10.327   6.085  13.510  0.6601  0.0515  0.3258
77431SOL    HW144272  10.373   6.168  13.526  0.4773  0.4017 -0.8680
77431SOL    HW244273  10.236   6.102  13.532  0.8205 -0.1927  1.2175
77432SOL     OW44274   6.152   4.901   9.173  0.2616 -0.3250  0.1589
77432SOL    HW144275   6.204   4.980   9.187 -2.1774  1.3638  0.3608
77432SOL    HW244276   6.145   4.894   9.078 -1.0903  0.9018  0.1251
77433SOL     OW44277  13.020   6.694  13.710 -0.0368 -0.1052 -0.1364
77433SOL    HW144278  12.951   6.633  13.735  1.2787 -1.2201  0.9548
77433SOL    HW244279  13.064   6.715  13.792  0.9978  0.4849 -0.8247
77434SOL     OW44280   7.063  13.721   2.797 -0.3595  0.7759  0.0729
77434SOL    HW144281   7.056  13.789   2.729 -0.4582  1.1820  0.4844
77434SOL    HW244282   7.136  13.666   2.768 -1.6883 -0.2950 -1.4455
77435SOL     OW44283   9.872   7.205   3.068 -0.0377 -0.1007 -0.5372
77435SOL    HW144284   9.926   7.280   3.091  0.1774 -0.6312  0.8059
77435SOL    HW244285   9.928   7.129   3.084 -0.6929 -0.5968 -0.5442
77436SOL     OW44286  10.941  12.627   3.535 -0.8857 -1.1045  0.5254
77436SOL    HW144287  10.907  12.717   3.536 -0.0610 -0.7762  1.7850
77436SOL    HW244288  10.898  12.586   3.460 -0.5145  0.6244 -0.7014
77437SOL     OW44289   3.301   5.288   9.362 -0.0342 -0.0395  0.1955
77437SOL    HW144290   3.240   5.278   9.289 -0.1812 -3.1279  0.5778
77437SOL    HW244291   3.377   5.332   9.325 -0.3197 -1.0846 -1.7512
77438SOL     OW44292   7.599  12.794  12.881  0.2740  0.1745 -0.3324
77438SOL    HW144293   7.680  12.787  12.931  0.3749  2.6008 -0.0499
77438SOL    HW244294   7.624  12.835  12.799 -0.4295 -0.6773 -0.9945
77439SOL     OW44295   8.243  13.599  10.252  0.4780 -0.0450  0.1602
77439SOL    HW144296   8.275  13.625  10.166  1.9654  0.0015  0.6900
77439SOL    HW244297   8.148  13.606  10.246  0.4575 -1.3156 -1.8752
77440SOL     OW44298   5.404   1.569   7.473 -0.1917  0.3784  0.0346
77440SOL    HW144299   5.466   1.513   7.426 -0.4452  1.1943 -1.3175
77440SOL    HW244300   5.459   1.627   7.525  0.2046  1.0209 -1.0651
77441SOL     OW44301  10.199  12.517   2.738 -0.0831  0.1631 -0.0369
77441SOL    HW144302  10.114  12.537   2.777  0.8036  1.2748  1.4136
77441SOL    HW244303  10.248  12.600   2.741  1.4775 -0.7273  0.2798
77442SOL     OW44304   0.198  12.632   1.431 -0.0319 -0.6931 -0.0477
77442SOL    HW144305   0.273  12.631   1.371  0.4272 -0.1673  0.5034
77442SOL    HW244306   0.237  12.632   1.518 -0.6695 -0.3471  0.2472
77443SOL     OW44307   9.655  13.263   2.629  0.3824  0.0444  0.0429
77443SOL    HW144308   9.742  13.274   2.590  0.9093 -0.6001  0.9960
77443SOL    HW244309   9.640  13.344   2.677  1.5069 -0.7391  1.8208
77444SOL     OW44310   9.739   3.042   1.529 -0.3635  0.2589 -0.5509
77444SOL    HW144311   9.673   3.094   1.574  1.3741  1.0948  1.1917
77444SOL    HW244312   9.699   2.956   1.518 -2.0207  0.9668 -0.3372
77445SOL     OW44313   1.498   6.421   7.277 -0.3733 -0.1912  0.1206
77445SOL    HW144314   1.531   6.487   7.216  0.0223  0.2992  0.8527
77445SOL    HW244315   1.408   6.447   7.295  0.0748  0.6977  1.1359
77446SOL     OW44316   6.378  13.419   8.196  0.5924  0.4580 -0.0408
77446SOL    HW144317   6.355  13.341   8.246  0.4300 -0.7395 -1.8780
77446SOL    HW244318   6.296  13.468   8.187  0.9068  1.4651  2.0499
77447SOL     OW44319   2.153   3.283   5.547  0.2565 -0.5306 -0.0284
77447SOL    HW144320   2.069   3.305   5.508  0.5709 -0.8536 -0.9098
77447SOL    HW244321   2.132   3.258   5.637 -0.2651  2.0502  0.6498
77448SOL     OW44322  13.884   7.887   6.386 -0.3761  0.0819 -0.1626
77448SOL    HW144323  13.861   7.935   6.306 -0.7074 -1.3295 -0.9382
77448SOL    HW244324  13.888   7.955   6.454 -2.1418  1.0271 -0.9492
77449SOL     OW44325  13.115   7.038   7.778  0.3638 -0.0811 -0.0604
77449SOL    HW144326  13.157   7.123   7.790  0.2692 -0.1399  0.7180
77449SOL    HW244327  13.121   7.022   7.684  0.2848  0.8368 -0.2354
77450SOL     OW44328   8.760  13.707  13.493  0.5218 -0.1790  0.2592
77450SOL    HW144329   8.796  13.619  13.494  3.0810  0.7869  1.3419
77450SOL    HW244330   8.829  13.761  13.454 -2.1921  1.0009 -3.6011
77451SOL     OW44331   0.064   6.029   4.454  0.1569  0.2969  0.0619
77451SOL    HW144332  -0.029   6.021   4.477 -0.4146  2.9887 -0.9402
77451SOL    HW244333   0.098   6.094   4.516  1.4113 -0.6679  0.4251
77452SOL     OW44334   9.719   6.624   2.733  0.0618 -0.6124  0.3134
77452SOL    HW144335   9.718   6.545   2.679 -0.2135 -0.6298  0.3448
77452SOL    HW244336   9.797   6.672   2.704  0.3931 -1.0327  0.4963
77453SOL     OW44337  12.705   9.707   4.353 -0.2080 -0.2415 -0.2547
77453SOL    HW144338  12.681   9.782   4.299 -1.8313  0.2791  1.1085
77453SOL    HW244339  12.783   9.735   4.401 -0.7241  0.5341  0.1421
77454SOL     OW44340   4.760   8.673  10.389 -0.2136  0.3688 -0.1711
77454SOL    HW144341   4.781   8.639  10.302 -4.1147  2.8006 -2.3787
77454SOL    HW244342   4.822   8.745  10.402  1.6028 -1.1498  0.0532
77455SOL     OW44343   5.096  12.260   5.528  0.8079 -0.1552 -0.1994
77455SOL    HW144344   5.104  12.167   5.549  0.4199 -0.2174 -0.3161
77455SOL    HW244345   5.046  12.296   5.600  2.0093  0.2070  0.4735
77456SOL     OW44346   7.197  12.520   3.819 -0.3382  0.2537 -0.5220
77456SOL    HW144347   7.205  12.464   3.741 -0.4673  0.3214 -0.5843
77456SOL    HW244348   7.250  12.476   3.885 -1.8635 -0.9010 -0.0252
77457SOL     OW44349   7.878   4.142   8.478 -0.2170 -0.0141  0.1881
77457SOL    HW144350   7.793   4.101   8.494 -0.8688  1.1067 -0.3165
77457SOL    HW244351   7.859   4.235   8.472  0.8234  0.1316 -1.3767
77458SOL     OW44352  13.887   4.540  13.696 -0.3160 -0.3376  0.4579
77458SOL    HW144353  13.835   4.461  13.681 -0.7568  0.1831 -0.8791
77458SOL    HW244354  13.908   4.572  13.609 -1.0526  1.6265  0.9489
77459SOL     OW44355   5.781   3.936   4.865  0.2656 -0.0226 -0.1450
77459SOL    HW144356   5.761   3.843   4.879  1.2584 -0.1531  0.5548
77459SOL    HW244357   5.870   3.937   4.830  0.0502  0.6401 -0.6896
77460SOL     OW44358   7.858   1.981   0.907 -0.2050  0.1820  0.9112
77460SOL    HW144359   7.945   2.020   0.903  0.5621 -1.4492  1.0035
77460SOL    HW244360   7.826   1.983   0.816 -0.4174  1.4749  0.9962
77461SOL     OW44361  10.794   1.826   0.541 -0.5150 -0.1003  0.6129
77461SOL    HW144362  10.779   1.846   0.448 -0.9706 -0.2388  0.6524
77461SOL    HW244363  10.813   1.911   0.581 -0.4927 -0.0153  0.4233
77462SOL     OW44364   8.156  11.730  11.145  0.1272 -0.1380 -0.8640
77462SOL    HW144365   8.127  11.679  11.069 -0.5147 -0.2906 -0.5236
77462SOL    HW244366   8.251  11.734  11.136  0.0921 -0.5069 -1.4545
77463SOL     OW44367   9.984   0.406  13.089 -0.0785  0.1392  0.3658
77463SOL    HW144368   9.911   0.403  13.151 -1.0099 -0.8219 -0.7126
77463SOL    HW244369   9.955   0.465  13.020  0.1096 -0.3236 -0.1200
77464SOL     OW44370  11.632   3.413   6.665  0.2421  1.1078  0.0543
77464SOL    HW144371  11.605   3.377   6.749  1.5163  0.1105  0.0721
77464SOL    HW244372  11.583   3.495   6.657 -1.8615 -0.0209  0.5639
77465SOL     OW44373  11.308   7.383   1.057 -0.0911  0.2484 -0.3542
77465SOL    HW144374  11.252   7.459   1.068  0.1834  0.4393 -0.2575
77465SOL    HW244375  11.297   7.333   1.138  0.3976  0.6339 -0.0446
77466SOL     OW44376   2.378  12.881   5.571  0.1606 -0.0178  0.3191
77466SOL    HW144377   2.466  12.914   5.554  0.3454 -0.3018  0.7060
77466SOL    HW244378   2.356  12.831   5.492 -0.3376  1.4437 -0.4933
77467SOL     OW44379   9.964  11.888  10.872  0.1397 -0.5874  0.4738
77467SOL    HW144380   9.966  11.914  10.780  1.0273  0.5617  0.7956
77467SOL    HW244381   9.875  11.910  10.902 -1.2861 -3.9093 -0.8640
77468SOL     OW44382  10.965  12.241  13.522 -0.0545  0.3177  0.1111
77468SOL    HW144383  11.012  12.318  13.554  0.0341  1.0308 -1.6417
77468SOL    HW244384  11.008  12.219  13.440 -0.2014 -1.5162  0.4918
77469SOL     OW44385   1.947   7.406   8.396  0.3188 -0.1918 -0.0813
77469SOL    HW144386   2.007   7.431   8.466 -1.6079  2.5261  0.7560
77469SOL    HW244387   1.860   7.417   8.433 -0.7631  0.0407 -2.4906
77470SOL     OW44388   0.050   8.886  10.248 -0.2982 -0.5810 -0.3846
77470SOL    HW144389   0.112   8.819  10.218  0.9320 -0.8403  2.4725
77470SOL    HW244390   0.104   8.949  10.297 -2.0595  0.0268  0.8670
77471SOL     OW44391   7.291   0.773  11.424  0.3534 -1.0032 -0.3834
77471SOL    HW144392   7.287   0.779  11.520  1.1982  1.5675 -0.4421
77471SOL    HW244393   7.200   0.762  11.397 -0.3772  1.7558  0.6165
77472SOL     OW44394   0.916   9.203   8.578  0.0133  0.0583 -0.3317
77472SOL    HW144395   0.957   9.181   8.661  0.8055  3.1226  0.2153
77472SOL    HW244396   0.952   9.140   8.516  0.5137 -1.3817  1.3268
77473SOL     OW44397   5.864   5.500   6.192 -0.4425 -0.5355  0.0803
77473SOL    HW144398   5.864   5.406   6.212 -1.2356 -0.4509  0.5133
77473SOL    HW244399   5.946   5.532   6.230 -1.4638 -0.5439  2.4644
77474SOL     OW44400   5.564   8.083   8.989  0.5286  0.3784 -0.3918
77474SOL    HW144401   5.570   7.988   8.978  3.6643  0.0275  2.5813
77474SOL    HW244402   5.582   8.119   8.902 -1.0450 -1.6787 -1.6650
77475SOL     OW44403   8.494  11.622  10.336 -0.5353  0.3588 -0.5128
77475SOL    HW144404   8.427  11.585  10.279  0.7749 -0.5434 -1.5466
77475SOL    HW244405   8.477  11.717  10.335 -1.8239  0.1419 -0.6576
77476SOL     OW44406   0.627   4.944   3.112 -0.3473 -0.3296 -0.2757
77476SOL    HW144407   0.574   4.944   3.032 -0.8296  0.2710  0.0353
77476SOL    HW244408   0.564   4.955   3.183  0.2061  0.7541  0.0790
77477SOL     OW44409   6.536   2.928   6.100 -0.0528 -0.7163  0.1715
77477SOL    HW144410   6.458   2.880   6.074 -0.2874 -0.1549 -0.1671
77477SOL    HW244411   6.505   3.016   6.121  0.6600 -0.0969 -1.2546
77478SOL     OW44412  13.212  10.532   8.562  0.3733 -0.4227 -0.2838
77478SOL    HW144413  13.194  10.616   8.605  1.1677 -0.3895  0.0056
77478SOL    HW244414  13.142  10.474   8.593  0.2551 -0.0770  0.1156
77479SOL     OW44415   0.658   4.179   7.381 -0.3861 -0.1814 -0.1350
77479SOL    HW144416   0.753   4.177   7.365 -0.0903 -0.6941  1.5248
77479SOL    HW244417   0.630   4.089   7.366 -0.6412 -0.0145 -0.6940
77480SOL     OW44418  14.040   5.097  12.246 -0.0769  0.3643 -0.1625
77480SOL    HW144419  14.106   5.142  12.299 -0.2213  0.0282  0.3206
77480SOL    HW244420  14.012   5.024  12.302 -2.1253  1.5042  0.3613
77481SOL     OW44421   1.158  12.278   5.977  0.0612  0.1624 -0.8060
77481SOL    HW144422   1.167  12.366   6.012 -1.3913  0.1658 -0.3799
77481SOL    HW244423   1.168  12.221   6.053 -1.5417  0.0996 -0.6092
77482SOL     OW44424  10.466   8.311   6.063  0.3142  0.4861  0.2980
77482SOL    HW144425  10.373   8.297   6.046  0.3262 -0.5753  1.0369
77482SOL    HW244426  10.482   8.401   6.035 -1.0739  0.8915  0.7619
77483SOL     OW44427   9.680   7.345   4.739 -0.2196  0.4233  0.1515
77483SOL    HW144428   9.762   7.342   4.788 -0.6162 -1.7710  0.7544
77483SOL    HW244429   9.629   7.414   4.783  0.7948  0.9133  0.5839
77484SOL     OW44430   8.452   7.903   3.124  0.4934  0.1768  0.4081
77484SOL    HW144431   8.470   7.994   3.147  2.9238 -0.4130  1.0915
77484SOL    HW244432   8.463   7.854   3.205 -1.6192 -0.6877  0.2407
77485SOL     OW44433  10.116   4.001   3.763  0.0541  0.2849  0.0243
77485SOL    HW144434  10.073   3.927   3.807 -0.3205 -0.3084 -1.3081
77485SOL    HW244435  10.079   4.079   3.806 -1.3798 -0.2477 -0.2008
77486SOL     OW44436   4.855  10.948   5.336 -0.0087  0.2876  0.0636
77486SOL    HW144437   4.842  11.018   5.271  0.5564  0.6081  0.2897
77486SOL    HW244438   4.797  10.972   5.408 -1.4000 -0.6008 -0.7147
77487SOL     OW44439  10.166  12.082   6.057 -0.1343  0.1663 -0.1962
77487SOL    HW144440  10.228  12.033   6.003 -0.2118  1.2672 -1.3071
77487SOL    HW244441  10.118  12.014   6.105  0.7702 -0.7710 -0.5948
77488SOL     OW44442  13.811  13.522   2.132 -0.5543  0.5164  0.3703
77488SOL    HW144443  13.750  13.454   2.160 -1.2404  0.5049 -1.0229
77488SOL    HW244444  13.758  13.602   2.133 -0.9566  0.3410 -1.8448
77489SOL     OW44445   9.538   4.951   0.868 -0.5424  0.1016  0.1636
77489SOL    HW144446   9.537   4.974   0.775 -0.6845  0.7572  0.3302
77489SOL    HW244447   9.498   4.864   0.871  2.5441 -1.5156 -0.8151
77490SOL     OW44448  11.251   9.867   6.482  0.1146  0.0325  0.1479
77490SOL    HW144449  11.338   9.898   6.455  0.5222  0.6675  2.0549
77490SOL    HW244450  11.255   9.864   6.578 -1.9411 -0.0200  0.2704
77491SOL     OW44451   8.809   9.412  12.318 -0.2052 -0.1592  0.3867
77491SOL    HW144452   8.863   9.413  12.238 -0.3580  0.2563  0.2856
77491SOL    HW244453   8.824   9.497  12.358 -0.8034 -0.0288  0.3460
77492SOL     OW44454   4.967   1.917  13.707 -0.1000 -0.1289 -0.4711
77492SOL    HW144455   5.052   1.877  13.726  1.8430  2.1000 -3.5785
77492SOL    HW244456   4.930   1.862  13.638 -1.5971 -1.4314  1.2626
77493SOL     OW44457   2.951  12.019  11.499 -0.5155 -0.3467 -0.7276
77493SOL    HW144458   3.004  12.036  11.577 -1.3186  2.9332 -0.7484
77493SOL    HW244459   3.014  12.000  11.430  0.4344  0.3465 -0.0716
77494SOL     OW44460   8.160   4.738  12.858 -0.4534  0.0802  0.2927
77494SOL    HW144461   8.132   4.758  12.947 -2.3080 -0.8625 -0.0324
77494SOL    HW244462   8.194   4.820  12.823  2.1402  0.0555  2.4615
77495SOL     OW44463  12.844   2.205   9.019  0.7764  0.0811 -0.4861
77495SOL    HW144464  12.794   2.224   8.940  1.5800  0.6456 -0.8645
77495SOL    HW244465  12.932   2.185   8.988  1.2624  0.9300  0.2914
77496SOL     OW44466  13.675   0.172   7.178 -0.0548  0.2513  0.4206
77496SOL    HW144467  13.765   0.202   7.187 -0.5266  1.6383  0.7982
77496SOL    HW244468  13.630   0.211   7.253 -0.8972 -0.7128  0.4304
77497SOL     OW44469   1.399   7.168   5.543 -0.4275 -0.1590  0.0231
77497SOL    HW144470   1.305   7.160   5.556 -0.4302  1.0615  0.9336
77497SOL    HW244471   1.409   7.246   5.488  0.1529  1.5249  2.3905
77498SOL     OW44472   4.598   7.649  13.065  0.4173  0.1558 -0.1728
77498SOL    HW144473   4.571   7.729  13.110  1.3512  0.1029  0.5021
77498SOL    HW244474   4.532   7.637  12.997 -1.3330 -0.0178  1.4562
77499SOL     OW44475   3.671   4.960   3.232 -0.9750 -0.4516 -0.4404
77499SOL    HW144476   3.712   4.877   3.255 -1.8270 -0.7732 -0.0710
77499SOL    HW244477   3.653   4.953   3.139  0.3981 -0.0397 -0.7700
77500SOL     OW44478  10.537   6.876  10.704  0.0164  0.0669 -0.1704
77500SOL    HW144479  10.515   6.784  10.715  1.3171 -0.3230 -0.5526
77500SOL    HW244480  10.544   6.910  10.793  2.1463 -0.9119  0.1024
77501SOL     OW44481   7.975   1.916  12.313  0.0542 -0.5581 -0.6285
77501SOL    HW144482   8.033   1.843  12.334  2.9650  1.3463 -1.4202
77501SOL    HW244483   7.982   1.926  12.218  0.7047  1.4398 -0.4231
77502SOL     OW44484   4.762   1.241   0.820  0.1401  0.3940  0.3018
77502SOL    HW144485   4.737   1.327   0.788 -2.6087  0.0583  1.2435
77502SOL    HW244486   4.771   1.252   0.915 -1.0850 -0.4946  0.5403
77503SOL     OW44487  13.111   6.320   7.180 -0.3873  0.2708 -0.6213
77503SOL    HW144488  13.175   6.251   7.162 -0.2076  0.4247 -0.5761
77503SOL    HW244489  13.120   6.382   7.108 -1.6905 -0.5675 -1.5450
77504SOL     OW44490   5.590   9.704  10.354  0.1790  0.3813 -0.1867
77504SOL    HW144491   5.517   9.765  10.362  0.4294  0.6806 -0.1675
77504SOL    HW244492   5.664   9.749  10.394  0.4969  0.2851 -0.6574
77505SOL     OW44493  12.643   0.421   2.421  0.3178 -0.3139 -0.3982
77505SOL    HW144494  12.689   0.440   2.502 -0.0181  1.2913 -0.5477
77505SOL    HW244495  12.709   0.427   2.352  0.5529 -1.4338 -0.2880
77506SOL     OW44496   8.857   9.825   0.676  0.0945  0.4742  0.1360
77506SOL    HW144497   8.922   9.809   0.608  0.8619  1.3571  0.6356
77506SOL    HW244498   8.773   9.809   0.634  0.5081  1.6258 -1.2064
77507SOL     OW44499   4.265   5.950   7.248 -0.1435  0.1862 -0.3923
77507SOL    HW144500   4.305   6.004   7.316 -0.3401 -0.9857  0.6967
77507SOL    HW244501   4.172   5.947   7.271 -0.3650  0.4751 -1.2133
77508SOL     OW44502   9.610  10.464   1.436  0.2523  0.4204  0.1019
77508SOL    HW144503   9.532  10.517   1.451 -0.2780  0.1763 -1.5893
77508SOL    HW244504   9.611  10.449   1.341  1.1176 -1.4789  0.3664
77509SOL     OW44505  13.593   5.443   2.627  0.2987 -0.2092  0.0277
77509SOL    HW144506  13.651   5.460   2.701 -0.8961  0.2742  0.8807
77509SOL    HW244507  13.545   5.364   2.650 -0.3717  0.1706 -0.0371
77510SOL     OW44508   6.342  10.176  10.652 -0.0986  0.2224  0.3364
77510SOL    HW144509   6.349  10.177  10.556 -0.7613 -1.5000  0.2269
77510SOL    HW244510   6.385  10.257  10.680  0.7782  0.4097 -1.3777
77511SOL     OW44511   8.112   5.478  11.067  0.1415 -0.0329  0.6400
77511SOL    HW144512   8.157   5.559  11.040  0.7473 -0.6967 -0.4090
77511SOL    HW244513   8.165   5.444  11.139  0.5564 -0.0964  0.3107
77512SOL     OW44514  13.991   5.363   6.040 -0.5671 -0.4409 -0.3982
77512SOL    HW144515  13.905   5.324   6.055 -0.8163  0.2859  0.1162
77512SOL    HW244516  13.994   5.439   6.098  0.0547  0.0961 -1.1027
77513SOL     OW44517   3.208  12.736   9.374 -0.5015  0.9071 -0.3254
77513SOL    HW144518   3.253  12.816   9.345 -1.8109  1.7606 -0.0710
77513SOL    HW244519   3.172  12.698   9.294 -0.8210  1.1764 -0.3112
77514SOL     OW44520   3.030   2.596  13.473  0.3327  0.3010  0.1153
77514SOL    HW144521   3.080   2.545  13.537  0.3118  0.2365  0.0807
77514SOL    HW244522   2.988   2.665  13.524  1.1200  0.8552  0.0288
77515SOL     OW44523   4.891  12.579   1.023  0.2360 -0.5328  0.1679
77515SOL    HW144524   4.905  12.658   1.076  1.4332 -0.0753 -0.7987
77515SOL    HW244525   4.826  12.529   1.073  0.0755  0.6585  1.2221
77516SOL     OW44526  12.339  10.960  11.505  0.3663  0.9133 -0.1272
77516SOL    HW144527  12.282  10.939  11.578  1.1645  1.4743  0.6881
77516SOL    HW244528  12.386  10.878  11.486  1.2752  1.1370  1.0334
77517SOL     OW44529   0.245   7.644  10.567  0.0656 -0.3860  0.2511
77517SOL    HW144530   0.237   7.653  10.472  0.7149  0.6613  0.2842
77517SOL    HW244531   0.326   7.690  10.589 -0.9615  0.9345  1.5088
77518SOL     OW44532   7.937   4.191   3.481 -0.0015 -0.3670  0.5024
77518SOL    HW144533   7.927   4.183   3.576  0.1362  1.6542  0.7399
77518SOL    HW244534   8.014   4.247   3.470 -1.2727  1.2743 -0.6881
77519SOL     OW44535   5.188   2.692   8.329  0.4029 -0.0308  0.1449
77519SOL    HW144536   5.165   2.773   8.374  0.5712 -0.2572  0.6410
77519SOL    HW244537   5.283   2.694   8.323  0.2934  1.2842 -2.6074
77520SOL     OW44538  12.449  13.048   0.279 -0.4396  0.3480 -0.1413
77520SOL    HW144539  12.410  13.134   0.294 -2.1049 -0.4007  0.0343
77520SOL    HW244540  12.467  13.014   0.366  1.4799  1.0116 -0.2202
77521SOL     OW44541   0.003  12.941   2.028  0.6067  0.1403 -0.0074
77521SOL    HW144542   0.030  12.851   2.010 -0.4796 -0.3786  0.7909
77521SOL    HW244543   0.081  12.993   2.013  1.1159 -0.8639 -1.0358
77522SOL     OW44544   1.780   0.947   5.709  0.2602  0.3590 -0.8494
77522SOL    HW144545   1.712   1.007   5.740 -1.0252  0.0996 -2.9966
77522SOL    HW244546   1.845   1.003   5.666  1.6894  0.6447  1.4990
77523SOL     OW44547   9.630  12.241   2.527 -0.0618  0.0797 -0.1641
77523SOL    HW144548   9.546  12.265   2.488  0.3589  1.8788 -0.0448
77523SOL    HW244549   9.627  12.279   2.615  1.2318  0.9670 -0.4904
77524SOL     OW44550  13.418   8.590   9.661 -0.1240  0.0585 -0.2764
77524SOL    HW144551  13.343   8.540   9.628  0.1999 -1.7325  1.5285
77524SOL    HW244552  13.385   8.633   9.740  0.2047  1.0092 -0.6420
77525SOL     OW44553   8.092   6.515   5.825  0.0496  0.0401 -0.3531
77525SOL    HW144554   8.098   6.508   5.921 -0.2981 -0.3575 -0.3558
77525SOL    HW244555   8.129   6.601   5.805  0.3260  0.0395  0.1193
77526SOL     OW44556   2.193   8.029  10.033  0.0091 -0.6474 -0.1256
77526SOL    HW144557   2.110   7.980  10.038  0.5010 -1.5191 -0.2651
77526SOL    HW244558   2.185   8.081   9.953 -0.5029 -0.5444 -0.0094
77527SOL     OW44559   1.757  12.859   7.517 -0.1331 -0.1669 -0.3348
77527SOL    HW144560   1.805  12.864   7.600  0.6513 -0.9182 -0.7273
77527SOL    HW244561   1.695  12.788   7.530  0.6680 -0.9587 -0.7095
77528SOL     OW44562  11.199   3.125  12.541 -0.2826 -0.4241  0.2052
77528SOL    HW144563  11.129   3.069  12.507 -1.2731  1.6750 -1.4444
77528SOL    HW244564  11.251   3.147  12.463  2.2932 -1.8851  1.3675
77529SOL     OW44565   4.808   1.882   9.389 -0.2994  0.1483 -0.2813
77529SOL    HW144566   4.748   1.955   9.402 -1.1732 -0.6800  0.4669
77529SOL    HW244567   4.841   1.863   9.477  1.0121  0.5354 -0.6653
77530SOL     OW44568  13.775  12.013   3.827 -0.1580  0.0882 -0.3926
77530SOL    HW144569  13.702  11.970   3.783 -0.4564  0.1433  0.0317
77530SOL    HW244570  13.786  12.096   3.781 -1.0813  0.5643  0.2082
77531SOL     OW44571   3.656  10.914   8.663  0.0973 -0.4528 -0.4586
77531SOL    HW144572   3.663  11.009   8.664  0.1426 -0.4365 -1.4710
77531SOL    HW244573   3.706  10.887   8.586 -0.6289 -1.2303 -0.6732
77532SOL     OW44574  11.408   1.469  12.824 -0.0738  0.4185 -0.0306
77532SOL    HW144575  11.420   1.562  12.806  0.9602  0.1350 -0.9338
77532SOL    HW244576  11.313   1.456  12.824 -0.2225  0.9972 -2.6006
77533SOL     OW44577   7.889   5.110   3.792  0.6366 -0.1146  0.4186
77533SOL    HW144578   7.907   5.076   3.879 -0.3680 -1.5136  0.1189
77533SOL    HW244579   7.807   5.068   3.766  0.5577  0.7964 -0.9242
77534SOL     OW44580  11.788  12.884   1.300  0.7194 -0.3024  0.2620
77534SOL    HW144581  11.749  12.802   1.330 -1.1001  0.0538 -0.9940
77534SOL    HW244582  11.847  12.857   1.229 -1.5379 -0.4050 -1.6779
77535SOL     OW44583   2.635   8.082  12.367  0.1520  0.5106 -0.5778
77535SOL    HW144584   2.722   8.059  12.335  0.1364  0.7114 -0.7666
77535SOL    HW244585   2.578   8.073  12.291  0.1831  1.3846 -0.7133
77536SOL     OW44586   3.616   4.834  10.913 -0.0705  0.2828 -1.1745
77536SOL    HW144587   3.540   4.777  10.926 -0.2567  0.2903 -2.1266
77536SOL    HW244588   3.625   4.882  10.995 -0.4608 -0.4673 -0.6835
77537SOL     OW44589   0.557   6.240   0.025 -0.2726  0.7827 -0.0880
77537SOL    HW144590   0.535   6.241   0.118  1.4166 -1.5428  0.4422
77537SOL    HW244591   0.490   6.184  -0.015  0.2182  0.0013  0.1545
77538SOL     OW44592  12.729   9.034  12.855 -0.3298  0.1037  0.3087
77538SOL    HW144593  12.698   9.125  12.850  0.4178  0.5603  2.7836
77538SOL    HW244594  12.809   9.033  12.802 -1.8195  0.0870 -2.1312
77539SOL     OW44595  13.655   5.167   5.755 -0.4637 -0.2587  0.3982
77539SOL    HW144596  13.599   5.242   5.772 -0.8321  0.2121 -2.4067
77539SOL    HW244597  13.628   5.102   5.820 -2.7819  0.7114  0.5143
77540SOL     OW44598   8.887  10.251   9.962  0.5776 -0.3991 -0.3364
77540SOL    HW144599   8.822  10.316   9.934 -1.4843 -1.8396  0.8198
77540SOL    HW244600   8.927  10.290  10.040 -1.9379 -1.1299  1.4541
77541SOL     OW44601   7.339  10.760   6.570  0.1188 -0.2419 -0.1714
77541SOL    HW144602   7.288  10.724   6.643  0.6459  1.8311  1.3217
77541SOL    HW244603   7.424  10.716   6.577 -0.0673 -0.5857 -0.0095
77542SOL     OW44604  10.325   6.683   7.779 -0.0989  0.1350 -0.6718
77542SOL    HW144605  10.402   6.662   7.727  0.4249  1.4709 -0.4661
77542SOL    HW244606  10.253   6.642   7.731  0.6326 -0.4668 -1.2906
77543SOL     OW44607   5.571   6.266  13.150 -0.0344  0.7271  0.2028
77543SOL    HW144608   5.525   6.334  13.100  1.5652  2.5150  1.0533
77543SOL    HW244609   5.591   6.198  13.086 -2.9430  0.2802 -0.3997
77544SOL     OW44610   1.812   2.384   3.259 -0.1382 -0.4302 -0.0144
77544SOL    HW144611   1.758   2.452   3.218 -0.4266 -0.0502  0.9590
77544SOL    HW244612   1.750   2.333   3.311  0.2635 -0.7014  0.2044
77545SOL     OW44613   2.680   9.471   2.597 -0.1344 -0.3120  0.2625
77545SOL    HW144614   2.664   9.563   2.620 -0.0035 -0.8270  2.6872
77545SOL    HW244615   2.596   9.428   2.610  0.6845 -1.2279  3.2873
77546SOL     OW44616   5.403   2.552   1.708  0.4214 -0.0755  0.1948
77546SOL    HW144617   5.432   2.558   1.799 -0.5734 -3.4861  0.9070
77546SOL    HW244618   5.330   2.613   1.700 -1.2037 -1.5584  2.5576
77547SOL     OW44619  11.220  10.261  10.364  0.0308 -0.1104  0.3630
77547SOL    HW144620  11.230  10.356  10.358  2.1840 -0.3588 -0.9266
77547SOL    HW244621  11.266  10.237  10.444  0.7360 -0.2018 -0.0656
77548SOL     OW44622  10.213   5.283   7.381 -0.3202 -0.0703 -0.3774
77548SOL    HW144623  10.221   5.223   7.306  1.5903 -0.8427  0.3701
77548SOL    HW244624  10.206   5.225   7.457 -1.1911  0.6985  0.1323
77549SOL     OW44625   7.652   4.468   9.094  0.7189 -0.1336 -0.3936
77549SOL    HW144626   7.720   4.415   9.052 -0.6853 -0.6677 -2.1105
77549SOL    HW244627   7.639   4.426   9.180  2.0756 -0.4001 -0.2997
77550SOL     OW44628   1.164   1.430   9.148  0.4962 -0.0794  0.6922
77550SOL    HW144629   1.240   1.447   9.092 -0.8738 -0.9333 -1.5380
77550SOL    HW244630   1.143   1.515   9.186  1.4281  0.5537 -0.1413
77551SOL     OW44631  11.819   8.685   7.201  0.1046 -0.2022  0.0673
77551SOL    HW144632  11.870   8.622   7.253 -0.1459 -0.8047 -0.4136
77551SOL    HW244633  11.828   8.767   7.250  0.7421 -0.5153  0.5072
77552SOL     OW44634  11.291   6.521   3.941  0.3839 -0.0983  0.0210
77552SOL    HW144635  11.216   6.515   3.882  0.7772  0.2171 -0.5250
77552SOL    HW244636  11.291   6.439   3.989 -1.1333  0.4501  1.0463
77553SOL     OW44637   9.612  11.540   8.178 -0.0783  0.2571 -0.2559
77553SOL    HW144638   9.678  11.567   8.114 -0.8742  0.0222 -1.1927
77553SOL    HW244639   9.538  11.510   8.126 -0.5524 -0.4360  0.7759
77554SOL     OW44640   9.398  11.268   0.589  0.1941 -0.7786  0.1233
77554SOL    HW144641   9.437  11.291   0.505 -0.5975  1.1465  0.2281
77554SOL    HW244642   9.406  11.347   0.642 -3.3379 -0.3959  0.3129
77555SOL     OW44643  11.876   1.501   1.070  0.4604  0.9894 -0.1249
77555SOL    HW144644  11.801   1.471   1.019  1.8329 -0.5913 -1.3253
77555SOL    HW244645  11.842   1.575   1.121 -1.3938  1.6212 -2.1070
77556SOL     OW44646   8.119   7.148  11.613 -0.7593 -0.0547 -0.2004
77556SOL    HW144647   8.165   7.223  11.579 -0.2161 -0.4344 -0.3112
77556SOL    HW244648   8.040   7.141  11.559 -1.4418  1.1464  0.5852
77557SOL     OW44649   0.630   1.030   6.145  0.0360 -0.0310  0.4371
77557SOL    HW144650   0.617   1.102   6.206 -2.9480  1.0988 -1.3333
77557SOL    HW244651   0.607   1.066   6.059  1.2471 -2.3407 -0.9723
77558SOL     OW44652   2.199  13.629   7.417  0.0278 -0.4721 -0.3652
77558SOL    HW144653   2.194  13.542   7.456  2.5063 -0.0883  1.0499
77558SOL    HW244654   2.190  13.689   7.491 -0.4148  0.4413 -1.1422
77559SOL     OW44655   4.215  13.775  11.742 -0.0874  0.0398  0.6835
77559SOL    HW144656   4.243  13.862  11.713 -2.0552  0.2937 -0.6155
77559SOL    HW244657   4.219  13.721  11.663  1.2776 -1.1561  1.5084
77560SOL     OW44658   3.244  11.830   5.761  0.4445 -0.1914 -0.0196
77560SOL    HW144659   3.235  11.923   5.743 -0.8263 -0.5709 -1.5847
77560SOL    HW244660   3.234  11.822   5.856 -0.6544  1.1350 -0.0087
77561SOL     OW44661  13.218   2.612   9.096 -0.0028 -0.6530 -0.0389
77561SOL    HW144662  13.158   2.540   9.111 -0.8524 -0.0924 -0.6900
77561SOL    HW244663  13.262   2.623   9.181  0.6220 -2.3352 -0.1108
77562SOL     OW44664   2.191   4.150  12.329  0.1483  0.2097 -0.4263
77562SOL    HW144665   2.153   4.133  12.243 -1.5865 -1.6739  0.6402
77562SOL    HW244666   2.224   4.240  12.322  0.1660  0.0911 -3.0570
77563SOL     OW44667   4.031   6.401   3.800 -0.0181  0.4747 -0.7232
77563SOL    HW144668   4.039   6.364   3.888  0.5693  1.6542 -0.2692
77563SOL    HW244669   4.117   6.439   3.781  0.0055 -0.1435 -2.0002
77564SOL     OW44670  12.793   3.983   6.825 -0.0077 -0.0284  0.2143
77564SOL    HW144671  12.873   4.035   6.815  0.8989 -1.5884 -1.4080
77564SOL    HW244672  12.759   3.975   6.736  0.7510 -3.3360  0.0749
77565SOL     OW44673   5.050   8.449  10.116 -0.2759  0.5976 -0.1954
77565SOL    HW144674   5.122   8.489  10.164  0.6898 -1.6141  0.3457
77565SOL    HW244675   5.088   8.425  10.031 -0.2521 -0.7565  0.1621
77566SOL     OW44676   5.550  12.573   9.982  0.1805  0.0563 -0.2016
77566SOL    HW144677   5.584  12.485   9.998 -4.2425 -1.9336 -0.3023
77566SOL    HW244678   5.547  12.614  10.068 -0.1364 -0.9408  0.2729
77567SOL     OW44679   3.576  13.403   1.449 -0.6027 -1.0721 -0.1676
77567SOL    HW144680   3.514  13.471   1.421 -2.6041 -1.2763  3.2381
77567SOL    HW244681   3.661  13.446   1.444 -1.4822  0.7084 -0.8924
77568SOL     OW44682   8.281  13.003  12.965 -0.0282  0.1351 -0.3075
77568SOL    HW144683   8.255  13.061  13.037  4.6665 -0.0723  1.9016
77568SOL    HW244684   8.256  12.915  12.994 -0.3763  0.2962 -0.1169
77569SOL     OW44685   0.134   1.497   3.240  0.5502 -0.2658  0.0705
77569SOL    HW144686   0.075   1.436   3.195  2.4441 -2.4074  0.2810
77569SOL    HW244687   0.130   1.471   3.332 -1.0407  2.1440  0.7790
77570SOL     OW44688   8.055  12.607   0.021 -0.3676  0.5124 -0.4997
77570SOL    HW144689   7.974  12.559   0.003 -1.5015  3.2097 -3.4572
77570SOL    HW244690   8.118  12.571  -0.041 -0.1699  0.4571 -0.2672
77571SOL     OW44691   7.816   5.585   0.091 -0.3777 -0.3682 -0.3190
77571SOL    HW144692   7.740   5.552   0.043 -2.1907  0.3869  1.8607
77571SOL    HW244693   7.781   5.613   0.175  2.8813 -3.4782  2.3646
77572SOL     OW44694  12.345   2.953  11.072  0.2363  0.3729  0.5123
77572SOL    HW144695  12.336   2.889  11.142 -0.1836  1.6301  1.6450
77572SOL    HW244696  12.409   3.016  11.105 -1.6388  2.2468  0.7785
77573SOL     OW44697   0.999  10.465   2.438 -0.4071  0.5610  0.6588
77573SOL    HW144698   0.979  10.436   2.349 -2.0273 -0.4160  1.3076
77573SOL    HW244699   0.955  10.402   2.494  0.4154  1.2891  2.1688
77574SOL     OW44700   1.018   8.607   1.504  0.1553  0.0907  0.2321
77574SOL    HW144701   0.977   8.648   1.428  0.0740 -0.5700 -0.0868
77574SOL    HW244702   0.961   8.533   1.525  0.8490 -0.4809  0.1570
77575SOL     OW44703   8.888  13.786   2.720  0.0549 -0.4837  0.2168
77575SOL    HW144704   8.803  13.825   2.744 -0.0933 -0.9393  0.4420
77575SOL    HW244705   8.887  13.700   2.761  1.5360  0.3361  2.1393
77576SOL     OW44706   6.205   8.983   7.964  0.0963 -0.4857  0.0456
77576SOL    HW144707   6.287   8.935   7.954 -0.3711 -0.9942 -1.7316
77576SOL    HW244708   6.148   8.947   7.896 -0.8466  1.4031 -0.2384
77577SOL     OW44709   9.252   6.546  12.695  0.3262 -0.1349 -0.2030
77577SOL    HW144710   9.341   6.562  12.726 -0.1305 -0.4465  1.3276
77577SOL    HW244711   9.197   6.561  12.771 -1.0894  1.3229 -1.4387
77578SOL     OW44712   2.103   8.971   6.111 -0.2408  0.2537  0.6274
77578SOL    HW144713   2.140   9.056   6.136  1.2439 -0.3593  0.5994
77578SOL    HW244714   2.045   8.991   6.037 -0.0799  1.2640  0.7594
77579SOL     OW44715   3.566   7.367  11.626 -0.2323  0.4723 -0.3030
77579SOL    HW144716   3.602   7.453  11.646 -0.7930  0.3079  1.6329
77579SOL    HW244717   3.511   7.346  11.702  1.3864 -2.3876  0.2304
77580SOL     OW44718  13.587   1.693   0.611 -0.2378 -0.6135  0.0767
77580SOL    HW144719  13.651   1.763   0.630 -1.5343  0.3776  1.0043
77580SOL    HW244720  13.641   1.618   0.588  1.2506  0.4468 -0.1086
77581SOL     OW44721  12.497   7.228   6.849  0.4275  0.9430 -0.6209
77581SOL    HW144722  12.406   7.199   6.857  0.1733  1.5983 -1.0404
77581SOL    HW244723  12.490   7.320   6.824  1.2101  0.9736 -0.7348
77582SOL     OW44724   4.238   5.031   6.041 -0.0822  0.2718  0.1327
77582SOL    HW144725   4.218   4.951   6.089 -1.6578  1.1894  1.0877
77582SOL    HW244726   4.174   5.032   5.969 -0.7742  1.1683  0.7444
77583SOL     OW44727   2.996   0.233   5.902  0.0586  0.2652 -0.4254
77583SOL    HW144728   3.047   0.169   5.852 -1.3252 -0.5142 -0.9094
77583SOL    HW244729   3.041   0.316   5.888  1.6929 -0.5247 -0.0911
77584SOL     OW44730   5.635  11.668  12.498 -0.3981 -0.2820 -0.1220
77584SOL    HW144731   5.689  11.615  12.440 -0.1882  0.0788 -0.2573
77584SOL    HW244732   5.638  11.756  12.461  0.2692  0.0976  0.7903
77585SOL     OW44733   0.351   9.212   7.240  0.5294 -0.1217  0.0171
77585SOL    HW144734   0.356   9.124   7.278  0.8074  0.3385  1.0970
77585SOL    HW244735   0.441   9.231   7.213  0.6518  0.1748  0.6167
77586SOL     OW44736  10.508   2.731   2.738 -0.2470 -0.2095  0.2410
77586SOL    HW144737  10.575   2.797   2.755 -2.4248  1.8808  1.4673
77586SOL    HW244738  10.436   2.781   2.698 -1.5423 -2.0960  0.0920
77587SOL     OW44739  12.599   0.577  13.557 -0.0802  0.3139 -0.1193
77587SOL    HW144740  12.553   0.562  13.640 -0.3784  0.5779 -0.2348
77587SOL    HW244741  12.637   0.665  13.567  0.4723  0.0692  0.0055
77588SOL     OW44742   7.128   3.800  12.696 -0.4392 -0.6318 -0.4090
77588SOL    HW144743   7.195   3.868  12.708 -1.1738 -0.2102  1.7952
77588SOL    HW244744   7.176   3.724  12.663  0.9116  0.0730 -0.1357
77589SOL     OW44745   7.341   7.690  12.850 -0.6483  0.1994  0.1024
77589SOL    HW144746   7.379   7.773  12.878  0.3791 -0.6388  1.2801
77589SOL    HW244747   7.355   7.688  12.755 -0.2054  1.1328  0.1392
77590SOL     OW44748   1.654  11.050   1.806  0.0301 -0.1900 -0.5530
77590SOL    HW144749   1.576  10.995   1.796  0.8407 -1.1275 -2.3004
77590SOL    HW244750   1.675  11.047   1.899 -1.0908 -1.2485 -0.3158
77591SOL     OW44751   3.180  13.916   8.553 -0.6650  0.1154  0.0403
77591SOL    HW144752   3.147  13.867   8.478  0.2949 -0.7128  0.1413
77591SOL    HW244753   3.137  14.001   8.547 -1.2695 -0.2471 -0.9472
77592SOL     OW44754   0.927   4.818   4.422  0.2706  0.3649  0.4389
77592SOL    HW144755   0.876   4.802   4.342  1.0425 -1.4203  0.2666
77592SOL    HW244756   1.017   4.825   4.392  0.6519 -0.9731  1.1924
77593SOL     OW44757   3.747   9.295   7.049  0.0761 -0.1259 -0.6564
77593SOL    HW144758   3.746   9.379   7.004 -1.1610 -1.4817 -3.4035
77593SOL    HW244759   3.671   9.297   7.107 -0.6156  0.2599 -1.5562
77594SOL     OW44760  13.713   0.877   1.668 -0.2225 -0.3545  0.3757
77594SOL    HW144761  13.622   0.877   1.638 -0.4359  1.3248  0.9536
77594SOL    HW244762  13.765   0.867   1.588 -0.8973 -0.9339  0.0027
77595SOL     OW44763   0.408   4.113   6.782 -0.0750 -0.4318 -0.2045
77595SOL    HW144764   0.358   4.067   6.850 -0.2367  1.1174  0.7855
77595SOL    HW244765   0.342   4.135   6.715 -0.3714  0.0372  0.2373
77596SOL     OW44766   4.653   0.770   9.226 -0.4190  0.2408 -0.3176
77596SOL    HW144767   4.612   0.766   9.312  0.7669  0.4474  0.2833
77596SOL    HW244768   4.728   0.829   9.238 -1.3153  1.8450 -1.9710
77597SOL     OW44769  12.281  10.730  13.997 -0.1949 -0.0721  1.0252
77597SOL    HW144770  12.310  10.737  14.088 -0.2590  0.8592  0.9829
77597SOL    HW244771  12.290  10.818  13.963 -0.3549 -0.3807  0.1760
77598SOL     OW44772   9.749   7.664   4.047 -0.3382  0.1026  0.8289
77598SOL    HW144773   9.787   7.615   3.974  0.6500  2.1968 -0.1192
77598SOL    HW244774   9.672   7.708   4.010 -0.8913 -0.2457  1.5310
77599SOL     OW44775  12.316  10.405   7.340 -0.2133  0.7995 -0.2867
77599SOL    HW144776  12.350  10.443   7.259  0.4439 -1.0607 -0.9194
77599SOL    HW244777  12.270  10.326   7.312 -0.3438  0.3522  1.1227
77600SOL     OW44778   7.774   5.300   3.435  0.0944  0.4347 -0.4651
77600SOL    HW144779   7.744   5.228   3.380 -0.3501  0.0993  0.2142
77600SOL    HW244780   7.699   5.359   3.441  0.1161  0.4260 -0.1345
77601SOL     OW44781   2.875   4.847   0.343 -0.1353  0.3719  0.1767
77601SOL    HW144782   2.912   4.759   0.349 -0.5809  0.2278  0.9904
77601SOL    HW244783   2.806   4.848   0.409  0.1517  1.4616  0.4839
77602SOL     OW44784  14.045   6.685   4.902  0.2013 -0.1802  0.2526
77602SOL    HW144785  13.985   6.669   4.975  3.4565 -0.9224  3.0036
77602SOL    HW244786  14.109   6.613   4.907  1.7945  0.9427 -2.0040
77603SOL     OW44787  13.793  12.583  12.563 -0.0344  0.5380  0.2261
77603SOL    HW144788  13.707  12.587  12.605 -0.6301 -0.4309 -0.8441
77603SOL    HW244789  13.848  12.639  12.617 -0.7862 -0.5198  2.1979
77604SOL     OW44790   2.424   8.780   2.969 -0.2890  0.0234 -0.3702
77604SOL    HW144791   2.356   8.813   3.028 -1.6420 -1.6753 -0.9156
77604SOL    HW244792   2.504   8.783   3.022 -1.2707 -0.4637  1.2201
77605SOL     OW44793   5.735   9.150  12.838  0.3922 -0.1547 -0.4688
77605SOL    HW144794   5.731   9.093  12.762  1.2516  1.1514 -1.5409
77605SOL    HW244795   5.734   9.090  12.913 -0.3227 -1.4723 -1.4855
77606SOL     OW44796   2.617  13.354   1.649 -0.6560  0.3929  0.1621
77606SOL    HW144797   2.682  13.336   1.581 -0.3052  0.0766  0.5709
77606SOL    HW244798   2.655  13.316   1.728 -1.2291  0.4268  0.4567
77607SOL     OW44799   8.990  12.010   6.425 -0.5846 -0.0214  0.1024
77607SOL    HW144800   9.001  12.092   6.473 -0.0425 -0.8777  1.5147
77607SOL    HW244801   9.028  12.028   6.339  1.1690  0.7004  0.9726
77608SOL     OW44802   0.570   3.446  13.548  0.2062  0.0055  0.0585
77608SOL    HW144803   0.520   3.520  13.515 -1.9066 -0.5049  1.8895
77608SOL    HW244804   0.555   3.447  13.643  3.0536 -0.6791  0.6152
77609SOL     OW44805  13.579   8.687   8.380  0.2823 -0.2125  0.4654
77609SOL    HW144806  13.555   8.628   8.309 -1.2860 -0.6124  1.2847
77609SOL    HW244807  13.496   8.707   8.424  0.9295  1.6778  0.9263
77610SOL     OW44808  12.739  13.849   5.451  0.7864  0.1385 -0.2387
77610SOL    HW144809  12.749  13.761   5.414 -1.5404 -0.5361  0.6036
77610SOL    HW244810  12.776  13.842   5.539 -0.3056 -0.2995  0.1956
77611SOL     OW44811  12.524   1.530  13.866  0.4982 -0.0693 -0.3807
77611SOL    HW144812  12.428   1.532  13.864  0.4764  0.9957  0.7066
77611SOL    HW244813  12.549   1.498  13.779 -0.8412 -0.6294 -0.5864
77612SOL     OW44814   3.166   1.423   2.810 -0.5064  0.3024 -0.1764
77612SOL    HW144815   3.252   1.405   2.771  0.1835 -0.1311  1.4657
77612SOL    HW244816   3.145   1.512   2.780  0.7309  0.6039 -0.2216
77613SOL     OW44817  13.148   5.365   8.178  0.0852 -0.0066 -0.0582
77613SOL    HW144818  13.175   5.379   8.269  1.9787  0.9401 -0.6942
77613SOL    HW244819  13.223   5.395   8.126 -0.7954 -0.8558 -1.9353
77614SOL     OW44820   1.398   6.350   4.374  0.3699 -0.1047 -0.3833
77614SOL    HW144821   1.325   6.410   4.390  1.1562  0.6999  0.2832
77614SOL    HW244822   1.458   6.364   4.447 -0.1452 -2.8934  0.6852
77615SOL     OW44823   1.968   2.178   7.467  0.0215 -0.0352 -0.0361
77615SOL    HW144824   1.882   2.136   7.466  1.0103 -2.2680  1.7692
77615SOL    HW244825   2.017   2.133   7.398 -0.1459  1.1399 -0.9664
77616SOL     OW44826   2.132   3.853   2.113  0.7768 -0.4725  0.2478
77616SOL    HW144827   2.142   3.766   2.151 -0.1415 -0.8983 -0.4492
77616SOL    HW244828   2.092   3.905   2.183 -1.7000 -1.4636 -0.3302
77617SOL     OW44829   6.629  13.263   7.897  0.5521 -0.2677 -0.1369
77617SOL    HW144830   6.661  13.288   7.984 -0.7305  1.2513 -0.0505
77617SOL    HW244831   6.550  13.316   7.885  0.0763 -1.2893 -1.7712
77618SOL     OW44832   8.662   7.395   9.417  0.3504  0.1519 -0.4096
77618SOL    HW144833   8.737   7.429   9.466 -0.2721 -0.5404  1.0746
77618SOL    HW244834   8.621   7.331   9.476 -1.7905  0.9796 -0.9090
77619SOL     OW44835   2.393  14.041   1.335 -0.0383 -0.8528 -0.4461
77619SOL    HW144836   2.412  13.980   1.264  0.7925 -0.0749 -0.9173
77619SOL    HW244837   2.332  13.994   1.392 -0.3862 -1.6443 -1.4505
77620SOL     OW44838   0.505   1.702   1.830 -0.0909 -0.5377  0.4641
77620SOL    HW144839   0.487   1.705   1.924  0.6984 -0.3818  0.6255
77620SOL    HW244840   0.549   1.618   1.816  2.1583  0.5066  0.7285
77621SOL     OW44841  14.000   5.980   3.728  0.0642 -0.0851  0.3499
77621SOL    HW144842  14.050   5.964   3.808  0.2407 -1.2684  0.0212
77621SOL    HW244843  13.935   5.910   3.726 -0.3619  0.3155 -0.2150
77622SOL     OW44844   3.751   2.856   8.589  0.3245  0.2306  0.4684
77622SOL    HW144845   3.658   2.851   8.610  0.2367  1.2647  0.3730
77622SOL    HW244846   3.756   2.836   8.496  0.2872 -0.5473  0.6265
77623SOL     OW44847  11.211  12.492  11.661  0.0017  0.1480 -0.3253
77623SOL    HW144848  11.163  12.455  11.735  0.9751 -1.6868 -0.5459
77623SOL    HW244849  11.206  12.587  11.675 -0.0974 -0.1207  1.9445
77624SOL     OW44850   1.449   3.806  11.613 -0.0910 -0.3352  0.0078
77624SOL    HW144851   1.427   3.843  11.528 -1.6350 -0.7476  0.2043
77624SOL    HW244852   1.495   3.725  11.593 -0.7038 -0.5777 -0.4496
77625SOL     OW44853   4.494   5.779   4.161 -0.0648  0.2933 -0.0555
77625SOL    HW144854   4.435   5.735   4.100 -1.1686  0.7711  0.6291
77625SOL    HW244855   4.496   5.722   4.238 -0.4088  0.7518  0.2974
77626SOL     OW44856   3.672   1.192  10.311  0.3581  0.0387 -0.1402
77626SOL    HW144857   3.612   1.265  10.323  0.8508  0.2537  1.1175
77626SOL    HW244858   3.723   1.216  10.233  0.3887  0.9397  0.1489
77627SOL     OW44859   9.748  10.033   5.728 -0.7962  0.5194 -0.2145
77627SOL    HW144860   9.818  10.097   5.717  1.4557 -0.9166  3.7966
77627SOL    HW244861   9.678  10.081   5.772 -0.9548  1.1853 -1.1784
77628SOL     OW44862   9.140   2.843   8.769  0.1741 -0.9807  0.0714
77628SOL    HW144863   9.221   2.840   8.718  0.2808 -0.6738  0.2226
77628SOL    HW244864   9.089   2.913   8.729  0.3914 -0.5239  0.5809
77629SOL     OW44865  12.930  12.018   7.659 -0.0697 -0.9061 -0.0019
77629SOL    HW144866  12.896  12.099   7.698  0.1493 -0.5310 -0.5777
77629SOL    HW244867  12.871  12.000   7.586  0.9249 -0.2635 -0.9946
77630SOL     OW44868   5.245   9.979  11.790  0.0328  0.1232 -0.8851
77630SOL    HW144869   5.220  10.051  11.732 -2.4772  0.0175 -0.0477
77630SOL    HW244870   5.229   9.900  11.739 -0.7227  0.0763 -0.5877
77631SOL     OW44871   4.846   9.871  11.920 -0.8391  0.1672  0.1824
77631SOL    HW144872   4.929   9.885  11.964 -1.4953 -1.1141  1.9299
77631SOL    HW244873   4.825   9.779  11.936 -2.3635  0.3286 -0.6455
77632SOL     OW44874   0.170  11.405   0.237  0.0322 -0.2161 -0.5811
77632SOL    HW144875   0.224  11.345   0.185  0.1163  0.5192 -1.3622
77632SOL    HW244876   0.161  11.483   0.182  0.4897  0.7625  0.6913
77633SOL     OW44877  12.779   6.667   6.932 -0.4663 -0.2073 -0.2786
77633SOL    HW144878  12.690   6.658   6.896 -1.4983  0.4578  1.9362
77633SOL    HW244879  12.766   6.681   7.026  2.1416 -3.2639  0.7032
77634SOL     OW44880   3.720   3.088   9.190 -0.0023 -0.2750  0.3783
77634SOL    HW144881   3.697   3.098   9.098 -1.3139  0.6750  0.7734
77634SOL    HW244882   3.643   3.048   9.230  0.7893 -1.2631  0.9657
77635SOL     OW44883   5.119   7.604   6.160 -0.0080 -0.1885  0.3903
77635SOL    HW144884   5.206   7.581   6.126 -1.2200 -1.7788 -1.8848
77635SOL    HW244885   5.105   7.541   6.231  0.2585 -0.6960  0.0066
77636SOL     OW44886  12.281  13.061   4.447 -0.4035  0.0825 -0.6591
77636SOL    HW144887  12.323  12.984   4.484  1.1405 -0.0576 -2.5274
77636SOL    HW244888  12.235  13.102   4.520  0.0938 -1.7130  0.7074
77637SOL     OW44889   2.057   8.587  10.196  0.3377 -0.2889 -0.4184
77637SOL    HW144890   1.978   8.568  10.145 -1.5967  3.0528  0.9320
77637SOL    HW244891   2.097   8.662  10.151 -0.9828  2.2263  2.2439
77638SOL     OW44892   0.218   9.271  13.729  0.8915  0.4071 -0.9064
77638SOL    HW144893   0.128   9.251  13.704 -0.2671 -0.6059  3.3089
77638SOL    HW244894   0.249   9.331  13.661 -2.5429  0.0071 -3.0845
77639SOL     OW44895   5.099  13.779  10.459  0.2319 -0.2301  0.4989
77639SOL    HW144896   5.016  13.731  10.459  0.3576 -0.4560 -0.1532
77639SOL    HW244897   5.165  13.713  10.439  0.4835  0.0837  0.2805
77640SOL     OW44898   5.275   0.894   5.640  0.3946  0.0172  0.3565
77640SOL    HW144899   5.327   0.889   5.560  1.7013  1.5061  1.0748
77640SOL    HW244900   5.185   0.874   5.611  0.8719  0.2531 -1.4185
77641SOL     OW44901   3.169   4.506   9.108 -0.2260  0.0033 -0.1380
77641SOL    HW144902   3.212   4.528   9.192 -1.8604  0.0330  0.7297
77641SOL    HW244903   3.216   4.559   9.044  0.9769  0.1036  0.7797
77642SOL     OW44904   3.251  10.368  13.986 -0.0334  0.1662  0.2512
77642SOL    HW144905   3.167  10.365  13.939 -0.0261 -0.4558  0.2687
77642SOL    HW244906   3.237  10.434  14.054 -0.5284  0.0412  0.2798
77643SOL     OW44907   5.114  12.169   8.266 -0.3484  0.0802 -0.2226
77643SOL    HW144908   5.204  12.154   8.237 -1.0440  0.4638 -2.9022
77643SOL    HW244909   5.073  12.082   8.262  0.0173 -0.2231  1.6805
77644SOL     OW44910  10.423   6.995   5.484  0.0581  0.1447  0.4204
77644SOL    HW144911  10.436   6.924   5.421  0.7798  0.1814  0.5180
77644SOL    HW244912  10.509   7.038   5.490 -0.3243  0.9325  0.4731
77645SOL     OW44913  10.189  13.063   5.042  0.1693 -0.2822 -0.5611
77645SOL    HW144914  10.247  13.012   5.098  0.4768  0.4072 -0.2373
77645SOL    HW244915  10.205  13.154   5.067  1.5658  0.2051 -2.8824
77646SOL     OW44916   0.735   3.955   0.631  0.3253 -0.0800 -0.3911
77646SOL    HW144917   0.719   3.874   0.678 -0.4555 -0.1949 -0.8427
77646SOL    HW244918   0.749   3.928   0.540 -1.5776  0.3879 -0.8705
77647SOL     OW44919   7.414   1.729   9.597 -0.4917 -0.3452 -0.4853
77647SOL    HW144920   7.433   1.792   9.528 -0.0740  1.3260  1.0610
77647SOL    HW244921   7.460   1.764   9.674 -2.1708 -1.2858  1.0294
77648SOL     OW44922   1.293   5.272  13.897 -0.1828  0.1111  0.2180
77648SOL    HW144923   1.312   5.261  13.804 -0.0069  0.7315  0.1792
77648SOL    HW244924   1.317   5.362  13.916 -1.9930  0.5986  0.4335
77649SOL     OW44925   1.292   4.100   2.370  0.3871  0.1227  0.1835
77649SOL    HW144926   1.266   4.191   2.381  0.5486  0.1610  0.2488
77649SOL    HW244927   1.386   4.104   2.351  0.4733 -0.0548  0.5726
77650SOL     OW44928  13.439  12.292   2.051  0.5823 -0.2155  0.5079
77650SOL    HW144929  13.499  12.362   2.024 -1.1312  1.2409  0.2887
77650SOL    HW244930  13.459  12.220   1.992 -0.4079  1.5393 -2.1733
77651SOL     OW44931  12.721  10.235   6.272 -0.4835 -0.7229 -0.2586
77651SOL    HW144932  12.715  10.243   6.367  1.8952  0.7072 -0.1508
77651SOL    HW244933  12.666  10.306   6.239  2.9031  2.4688  0.3020
77652SOL     OW44934   7.945   3.228  13.898 -0.0776  0.0030 -0.0866
77652SOL    HW144935   7.873   3.230  13.835 -0.2152 -1.8730 -0.0375
77652SOL    HW244936   7.969   3.136  13.905  1.1267  0.3729  1.2822
77653SOL     OW44937  10.055   6.163   0.810 -0.3806 -0.5417  0.6973
77653SOL    HW144938  10.005   6.127   0.737 -0.1179 -0.5334  0.5085
77653SOL    HW244939  10.112   6.092   0.838  0.4608 -0.1600  0.0292
77654SOL     OW44940   8.213  12.019   4.734 -0.0195 -0.5420 -0.0598
77654SOL    HW144941   8.303  12.002   4.763  0.1177  0.4891  0.1744
77654SOL    HW244942   8.158  11.968   4.793  0.4025 -1.0967 -0.1330
77655SOL     OW44943   2.141   2.290   0.608  0.1818 -0.0217 -0.4505
77655SOL    HW144944   2.180   2.354   0.548 -0.8690  1.6963  0.6227
77655SOL    HW244945   2.090   2.233   0.551  0.9896  0.1732 -1.4142
77656SOL     OW44946  11.831  13.269  13.294  0.2040 -0.4645  0.0823
77656SOL    HW144947  11.744  13.307  13.295 -1.1531 -3.2712 -0.6484
77656SOL    HW244948  11.817  13.177  13.271  3.2838 -1.2308  0.7520
77657SOL     OW44949   5.033   4.970   0.625 -0.1121  0.1407  0.5054
77657SOL    HW144950   5.013   4.878   0.605  1.2066 -0.0146 -0.2343
77657SOL    HW244951   5.031   4.974   0.721  0.7842 -0.9130  0.5929
77658SOL     OW44952   4.376  11.374   8.838  0.0740 -0.3303  0.3457
77658SOL    HW144953   4.368  11.310   8.909 -0.0001 -0.4029  0.2729
77658SOL    HW244954   4.287  11.383   8.805  0.0524 -0.0488  0.4770
77659SOL     OW44955   1.800   1.150   6.872  0.3262  0.2435 -0.4689
77659SOL    HW144956   1.732   1.187   6.815  0.9722  2.0823 -0.1200
77659SOL    HW244957   1.760   1.147   6.959  0.3862  0.4398 -0.4348
77660SOL     OW44958   5.365   4.112   4.187 -0.4411  0.5001 -0.4852
77660SOL    HW144959   5.398   4.130   4.099  0.5815 -2.6193 -0.8619
77660SOL    HW244960   5.431   4.151   4.245  0.6605 -0.2733 -1.1723
77661SOL     OW44961   1.660   7.656   2.425  0.3999  0.2673  0.3744
77661SOL    HW144962   1.615   7.591   2.371 -1.7311  1.0962  1.0242
77661SOL    HW244963   1.753   7.640   2.410 -0.0288 -2.8161  0.4319
77662SOL     OW44964   5.166   3.874   2.272 -0.0425  0.3375 -0.2316
77662SOL    HW144965   5.141   3.785   2.294 -1.0863  0.7701  0.4254
77662SOL    HW244966   5.208   3.868   2.186  2.2584 -1.1287  0.9204
77663SOL     OW44967  11.700   8.532  12.841 -0.1608 -0.4014  0.2805
77663SOL    HW144968  11.628   8.469  12.845 -1.1183  0.7009  1.1089
77663SOL    HW244969  11.660   8.612  12.807  1.2303 -0.4542 -1.6674
77664SOL     OW44970   7.661  10.684  10.137 -0.0714 -0.3660  0.1340
77664SOL    HW144971   7.754  10.661  10.132  0.0278 -0.1270  0.7592
77664SOL    HW244972   7.659  10.778  10.119 -0.1925 -0.3679  0.1370
77665SOL     OW44973   1.411  11.415   7.569 -0.2244 -0.6344 -0.4797
77665SOL    HW144974   1.445  11.390   7.655  0.3942 -0.0432 -0.5413
77665SOL    HW244975   1.380  11.504   7.580  0.4215 -0.3319 -1.0090
77666SOL     OW44976   2.672   5.934  12.277 -0.0763 -0.2947  0.9880
77666SOL    HW144977   2.607   5.945  12.347 -0.7543 -0.6615  0.4342
77666SOL    HW244978   2.717   5.852  12.300 -0.3218 -0.4343  0.9738
77667SOL     OW44979   2.957   1.972   6.983  0.4961 -0.4745  0.1558
77667SOL    HW144980   2.936   2.025   6.907  0.3317 -0.1118  0.4508
77667SOL    HW244981   3.053   1.965   6.982  0.6339  0.9769  0.8653
77668SOL     OW44982   7.869  11.216   3.546  0.6074  0.0726  0.1229
77668SOL    HW144983   7.954  11.251   3.519  0.3915  1.2016  0.8388
77668SOL    HW244984   7.870  11.220   3.642 -0.4192  0.5182  0.1261
77669SOL     OW44985   1.371  11.371   0.912  0.0116 -0.3568 -0.3255
77669SOL    HW144986   1.303  11.400   0.973 -0.9965  0.1261 -1.6331
77669SOL    HW244987   1.323  11.341   0.835  1.2709 -0.1152 -1.2390
77670SOL     OW44988   0.471   7.301   0.886 -0.3607  0.0026  0.0100
77670SOL    HW144989   0.379   7.317   0.862 -0.1781  1.1273  0.0035
77670SOL    HW244990   0.498   7.381   0.931  1.0279  0.2567 -1.2171
77671SOL     OW44991   1.272   7.579  11.731  0.5141 -0.0226 -0.3487
77671SOL    HW144992   1.288   7.511  11.666 -0.1943 -0.4192 -0.1225
77671SOL    HW244993   1.184   7.560  11.765  0.4155  0.8364 -0.0819
77672SOL     OW44994  10.319   4.816   3.670 -0.3180  0.0170 -0.1946
77672SOL    HW144995  10.351   4.848   3.585 -0.4106  0.9834  0.1146
77672SOL    HW244996  10.224   4.823   3.663 -0.3165  0.3538  0.0714
77673SOL     OW44997  12.591   7.740   1.222 -0.0323  0.8273 -0.4837
77673SOL    HW144998  12.625   7.807   1.163 -0.0844  1.0745 -0.2355
77673SOL    HW244999  12.567   7.788   1.302  3.0465  0.1305  1.0283
77674SOL     OW45000   6.294   9.421   3.741 -0.6791  0.4243  0.2479
77674SOL    HW145001   6.383   9.456   3.729 -0.1636 -1.2993 -1.4687
77674SOL    HW245002   6.284   9.356   3.671 -3.6720  1.2306 -0.1957
77675SOL     OW45003   0.221  11.091   4.732  0.3436  0.1844 -0.2919
77675SOL    HW145004   0.184  11.059   4.814 -0.7063  0.8054 -0.5141
77675SOL    HW245005   0.315  11.096   4.749  0.1551  0.1443  0.8115
77676SOL     OW45006   9.479  13.896   0.748 -0.0075  0.4417 -0.4041
77676SOL    HW145007   9.432  13.959   0.802 -1.2654 -0.0943 -0.8448
77676SOL    HW245008   9.562  13.939   0.727  0.6172  0.5908  2.0825
77677SOL     OW45009   4.707   6.156   9.809  0.4985 -0.3079 -0.7357
77677SOL    HW145010   4.778   6.211   9.842  0.4632 -0.6654 -0.0490
77677SOL    HW245011   4.654   6.136   9.886 -0.1114 -0.3882 -1.1724
77678SOL     OW45012   4.979  11.746  11.169 -0.2559  0.4806  0.4822
77678SOL    HW145013   4.889  11.729  11.195  0.2185  0.5103  2.3337
77678SOL    HW245014   5.023  11.661  11.177  0.0539  0.6281  0.3743
77679SOL     OW45015   0.966   7.864   9.806  0.5658 -0.4062 -0.2098
77679SOL    HW145016   1.013   7.813   9.741 -0.8683 -0.7181 -1.0386
77679SOL    HW245017   0.879   7.825   9.809 -0.7281  2.1743 -1.1597
77680SOL     OW45018  12.820  13.407   6.301 -0.0244  0.0632 -0.2453
77680SOL    HW145019  12.801  13.499   6.283 -1.9196  0.0259  1.2274
77680SOL    HW245020  12.772  13.359   6.234  0.9992  0.1106 -1.0401
77681SOL     OW45021   6.581   8.026  11.912  0.0044 -0.2727 -0.4365
77681SOL    HW145022   6.607   8.031  12.004  0.2201  0.0104 -0.5114
77681SOL    HW245023   6.486   8.032  11.914  0.0822  1.1712 -0.3214
77682SOL     OW45024   7.276  11.976   7.191  0.3661 -0.0335 -0.1207
77682SOL    HW145025   7.224  11.981   7.272 -0.2203  0.7476 -0.5275
77682SOL    HW245026   7.221  11.925   7.131  0.0975  0.7110 -0.5212
77683SOL     OW45027   7.519   7.085   6.019 -0.0790 -0.1103 -0.4512
77683SOL    HW145028   7.529   6.992   6.001 -0.6064 -0.1095 -0.7802
77683SOL    HW245029   7.565   7.128   5.947  4.0304 -0.0596  1.9299
77684SOL     OW45030   9.068  12.713   7.597 -0.3217 -0.3915 -0.1371
77684SOL    HW145031   9.118  12.705   7.515  0.8924  1.0074  0.4281
77684SOL    HW245032   9.122  12.770   7.652 -2.3963  0.9028  0.6446
77685SOL     OW45033  12.282   0.339  11.579 -0.0055 -0.1223  0.4040
77685SOL    HW145034  12.319   0.423  11.550  2.0132 -0.9330  0.4547
77685SOL    HW245035  12.358   0.280  11.582 -1.3177 -1.8487  0.7446
77686SOL     OW45036   7.806  13.640   9.517  0.2651  0.2183  0.0785
77686SOL    HW145037   7.798  13.662   9.425 -2.2245 -0.4226  0.0887
77686SOL    HW245038   7.738  13.691   9.561  2.7276  2.1708  1.9479
77687SOL     OW45039   2.444   9.572   1.808 -0.1921 -0.3526  0.2521
77687SOL    HW145040   2.513   9.629   1.840 -0.5369 -0.6450  1.5668
77687SOL    HW245041   2.379   9.570   1.879 -1.6659  0.0961 -1.0179
77688SOL     OW45042  11.269   4.972   3.204 -0.2711 -0.3490  0.5870
77688SOL    HW145043  11.209   4.928   3.265 -1.3626  0.0190 -0.2002
77688SOL    HW245044  11.356   4.938   3.227 -0.9130 -1.7976  0.9577
77689SOL     OW45045  10.734  11.711   4.660 -0.2964 -0.3129  0.6417
77689SOL    HW145046  10.702  11.630   4.700 -0.9150 -0.4953 -0.2112
77689SOL    HW245047  10.689  11.716   4.576  1.2393 -0.1050 -0.2113
77690SOL     OW45048   1.542   7.909  11.180  0.2196  0.5001 -0.2596
77690SOL    HW145049   1.616   7.933  11.124  0.4602 -1.2834 -0.8013
77690SOL    HW245050   1.578   7.902  11.268  0.6528 -0.0650 -0.4747
77691SOL     OW45051  10.452   2.234  10.414 -0.0624 -0.0071 -0.0828
77691SOL    HW145052  10.357   2.241  10.415 -0.0265  0.4621  0.4215
77691SOL    HW245053  10.473   2.209  10.324 -0.5268  2.0651 -0.8183
77692SOL     OW45054  10.631  11.510   7.366  0.1469  0.1665 -0.4464
77692SOL    HW145055  10.685  11.526   7.288 -1.6980  2.4088 -1.3875
77692SOL    HW245056  10.553  11.465   7.334  0.3868 -1.0198  0.5342
77693SOL     OW45057   1.899   2.460   8.422 -0.5886  0.6139 -0.4735
77693SOL    HW145058   1.847   2.382   8.439 -0.8526  0.8332 -0.2782
77693SOL    HW245059   1.882   2.480   8.330  1.1240 -0.7814 -1.1509
77694SOL     OW45060   6.613  10.938  13.112 -0.7827  0.5108 -0.2818
77694SOL    HW145061   6.697  10.909  13.149  0.0328  0.0826 -2.3460
77694SOL    HW245062   6.637  10.986  13.033 -2.5344 -0.5093 -1.4888
77695SOL     OW45063   4.335   4.712   3.123  0.0568 -0.5182 -0.2861
77695SOL    HW145064   4.275   4.668   3.063 -3.0999  0.7231  1.7050
77695SOL    HW245065   4.345   4.800   3.086  0.3793 -0.6178 -0.4372
77696SOL     OW45066   5.543   2.682   5.498 -0.2684  0.2987 -0.7993
77696SOL    HW145067   5.498   2.658   5.417  0.7872  1.2148 -1.6847
77696SOL    HW245068   5.558   2.776   5.491 -2.9508  1.1139  1.9202
77697SOL     OW45069  13.748   9.769  10.186  0.2028 -0.0956  0.0152
77697SOL    HW145070  13.840   9.778  10.163  0.4234 -0.0703  0.8786
77697SOL    HW245071  13.745   9.786  10.280 -0.7965  0.7103 -0.1496
77698SOL     OW45072   1.141   9.264  10.739 -0.0172 -0.3630  0.0047
77698SOL    HW145073   1.211   9.256  10.804  1.7053 -1.0732 -1.8085
77698SOL    HW245074   1.106   9.352  10.752  0.0220 -0.6209  2.0926
77699SOL     OW45075   6.155   3.807   6.417 -0.1790  0.8324  0.2983
77699SOL    HW145076   6.220   3.843   6.356  0.5700 -2.5662 -1.1748
77699SOL    HW245077   6.070   3.826   6.375  0.1633  0.9931 -0.3371
77700SOL     OW45078   8.703   5.752  10.958  0.9240 -0.1990  0.4331
77700SOL    HW145079   8.729   5.691  10.888  0.0370  0.4597 -0.4894
77700SOL    HW245080   8.780   5.807  10.970  1.3822 -0.8567  0.5684
77701SOL     OW45081   9.541   0.750   9.155  0.1821  0.2392  0.0303
77701SOL    HW145082   9.480   0.676   9.162 -0.6850  0.6850 -2.0361
77701SOL    HW245083   9.593   0.730   9.077  1.8446  0.5164  1.0122
77702SOL     OW45084  12.009   1.557   1.436  0.0042 -0.4982  0.7522
77702SOL    HW145085  11.946   1.590   1.373  0.7990 -0.2949  0.0391
77702SOL    HW245086  11.991   1.463   1.442 -1.2060 -0.2256  1.5588
77703SOL     OW45087   6.924  14.006  13.297 -0.2959  0.7923 -0.1768
77703SOL    HW145088   6.894  13.928  13.251  1.6807 -0.0831 -0.0782
77703SOL    HW245089   6.922  14.075  13.232 -2.4178  0.8000 -0.1759
77704SOL     OW45090  12.865  10.837   2.566  0.4000 -0.2015 -0.2816
77704SOL    HW145091  12.781  10.849   2.611 -0.1031  0.5816 -1.3738
77704SOL    HW245092  12.841  10.822   2.474  1.4455 -0.2685 -0.5566
77705SOL     OW45093   8.524   4.847   6.304 -0.2183 -0.0103  0.0758
77705SOL    HW145094   8.437   4.885   6.295 -0.0641 -0.0041 -1.5576
77705SOL    HW245095   8.535   4.793   6.227  1.1679 -0.1471  0.3466
77706SOL     OW45096  11.042  11.876   3.133  0.2973  0.4143  0.9052
77706SOL    HW145097  11.068  11.814   3.201 -0.3284  0.3688  1.1059
77706SOL    HW245098  11.124  11.898   3.088  0.7391  0.5813  1.7818
77707SOL     OW45099   6.156   1.241  12.789 -0.0557  0.4762 -0.4539
77707SOL    HW145100   6.166   1.237  12.884  0.9123 -0.2270 -0.5732
77707SOL    HW245101   6.064   1.266  12.775 -0.8122 -1.4680  0.6506
77708SOL     OW45102  10.524   7.341   1.054  0.3550  0.1395 -0.6784
77708SOL    HW145103  10.446   7.315   1.103  0.6719 -0.2290 -0.3614
77708SOL    HW245104  10.494   7.409   0.995 -0.4685 -0.8718 -1.4551
77709SOL     OW45105   2.645   1.695   0.429  0.3800 -0.3850 -0.3745
77709SOL    HW145106   2.573   1.680   0.368  0.7395 -0.7827 -0.7157
77709SOL    HW245107   2.689   1.773   0.395  0.5553 -0.5823 -0.6109
77710SOL     OW45108   0.356   5.063   9.458 -0.4200 -0.0290  0.6882
77710SOL    HW145109   0.281   5.045   9.402  0.7557 -0.8048 -0.6736
77710SOL    HW245110   0.421   4.996   9.436  0.2871 -0.0449  2.6118
77711SOL     OW45111   1.412   9.307   6.535 -0.0345  0.1318 -0.1745
77711SOL    HW145112   1.503   9.299   6.506 -0.0126 -1.5054  0.2404
77711SOL    HW245113   1.366   9.345   6.460  0.9647  0.8535 -0.4300
77712SOL     OW45114   8.965   3.738   4.683  0.3220  0.5462 -0.0472
77712SOL    HW145115   8.920   3.704   4.606  0.6438  1.4266 -0.6509
77712SOL    HW245116   9.019   3.810   4.649  1.2036  0.3359  0.8536
77713SOL     OW45117  10.515   3.995   4.625  0.0934 -0.3982 -0.1814
77713SOL    HW145118  10.421   3.986   4.642 -0.0257 -0.3436 -0.7906
77713SOL    HW245119  10.549   3.906   4.628  0.1888 -0.3417  0.9334
77714SOL     OW45120   7.956   3.315   0.870 -0.3060  0.1182 -0.4733
77714SOL    HW145121   7.888   3.354   0.924  0.5454  0.6979  0.2103
77714SOL    HW245122   7.929   3.332   0.780 -2.8719 -2.7190 -0.3839
77715SOL     OW45123   7.757  12.074   1.041  0.3477 -0.3260  0.4250
77715SOL    HW145124   7.735  12.016   1.114 -1.3161 -0.2798  0.0078
77715SOL    HW245125   7.811  12.142   1.080  0.5152 -0.9728  1.3629
77716SOL     OW45126   6.638  12.572  10.918 -0.6090 -0.7198  0.0201
77716SOL    HW145127   6.583  12.539  10.989 -1.5769  0.2242 -0.2710
77716SOL    HW245128   6.619  12.515  10.844  0.4971 -1.7888  0.5089
77717SOL     OW45129   6.293   9.800   3.686 -0.2876 -0.0862  0.6364
77717SOL    HW145130   6.283   9.731   3.620  0.2545 -0.3345  0.8121
77717SOL    HW245131   6.385   9.797   3.710  0.0521  1.5572 -0.2876
77718SOL     OW45132   9.210  11.769  12.120  0.1893  0.0802  0.6351
77718SOL    HW145133   9.297  11.798  12.150  0.6944 -1.4831  0.8020
77718SOL    HW245134   9.151  11.840  12.143  1.3088  0.8428  1.2293
77719SOL     OW45135   0.945   2.431   3.437 -0.0649  0.0596  0.4581
77719SOL    HW145136   0.870   2.488   3.425 -0.1082  0.8325  3.6080
77719SOL    HW245137   1.008   2.484   3.485  1.7009 -1.2181 -0.3250
77720SOL     OW45138   1.816   5.809  10.818 -0.1272  0.0670  0.0512
77720SOL    HW145139   1.809   5.796  10.912 -1.6295  1.7194  0.2237
77720SOL    HW245140   1.842   5.901  10.808 -1.0548  0.2317 -1.1348
77721SOL     OW45141  10.165   0.915   3.235 -0.1646  0.5031  0.1955
77721SOL    HW145142  10.113   0.836   3.244  0.7099 -0.1229 -0.1503
77721SOL    HW245143  10.105   0.979   3.196 -0.7378 -0.1379  0.0102
77722SOL     OW45144   5.803   3.786  11.734 -0.3907 -0.1410  0.3896
77722SOL    HW145145   5.807   3.833  11.652  0.3107  0.3766  0.7126
77722SOL    HW245146   5.710   3.767  11.746 -0.9265  2.4690  0.9743
77723SOL     OW45147  12.509   7.337   0.507  0.1968 -0.7054 -0.1026
77723SOL    HW145148  12.526   7.304   0.595  1.3745 -2.1967 -0.8499
77723SOL    HW245149  12.582   7.397   0.489 -0.1355 -0.2667 -0.0210
77724SOL     OW45150  12.524   3.133  10.378  0.4944 -0.0413  0.4796
77724SOL    HW145151  12.491   3.123  10.468  0.1392  0.5235  0.4159
77724SOL    HW245152  12.573   3.052  10.362  1.3761  0.2568  1.5242
77725SOL     OW45153   9.258   3.510   4.480 -0.0988 -0.3861  0.0696
77725SOL    HW145154   9.338   3.517   4.533 -0.2551  1.4323  0.1080
77725SOL    HW245155   9.214   3.594   4.492 -0.7487 -0.3934 -1.9987
77726SOL     OW45156  12.661   4.560  11.134 -0.1371  0.1277  0.3808
77726SOL    HW145157  12.570   4.556  11.105  0.0900  1.1169 -0.5067
77726SOL    HW245158  12.706   4.496  11.079 -0.3340 -0.5876  1.0319
77727SOL     OW45159  13.788  10.552   0.147  0.5229  0.0210  0.3240
77727SOL    HW145160  13.854  10.602   0.099  0.6987 -1.0822 -0.6364
77727SOL    HW245161  13.790  10.465   0.106 -2.3259  0.2630 -0.5433
77728SOL     OW45162   4.555  12.171   0.040 -0.0790 -0.3622  0.1453
77728SOL    HW145163   4.580  12.085   0.074 -1.3963 -0.8323 -0.0193
77728SOL    HW245164   4.635  12.224   0.046  0.6396 -1.4776  0.6194
77729SOL     OW45165  10.257  12.781   0.292  0.4234 -0.0337  0.2505
77729SOL    HW145166  10.299  12.708   0.247  0.6688  0.2181  0.0694
77729SOL    HW245167  10.210  12.740   0.365  1.3479 -0.2853  0.7277
77730SOL     OW45168   6.202   4.445   2.747  0.2582 -0.2673  0.5651
77730SOL    HW145169   6.264   4.512   2.777 -0.7668  0.7141  0.5666
77730SOL    HW245170   6.156   4.418   2.827 -1.1601  0.9688  0.1928
77731SOL     OW45171  10.589   9.778   0.959 -0.0273 -0.1769 -0.0924
77731SOL    HW145172  10.519   9.712   0.960  0.4352 -0.6672  0.2782
77731SOL    HW245173  10.666   9.731   0.989  0.1482  0.7132  0.8705
77732SOL     OW45174   0.745   9.192   2.869 -0.2318  0.5615  0.5071
77732SOL    HW145175   0.676   9.252   2.840  0.1264  0.0828 -1.4983
77732SOL    HW245176   0.703   9.106   2.870  0.2935  0.2670 -0.7252
77733SOL     OW45177   9.484   1.758   6.357 -0.5028  0.2233 -0.2637
77733SOL    HW145178   9.501   1.829   6.296 -2.7518 -0.0627 -1.3518
77733SOL    HW245179   9.491   1.797   6.444 -0.7322  1.5340 -0.8218
77734SOL     OW45180  11.244   0.735   2.656  0.3021  0.2987  0.1259
77734SOL    HW145181  11.308   0.723   2.586  0.9530  1.1735  0.5434
77734SOL    HW245182  11.283   0.691   2.732  0.5820  1.1218  0.4695
77735SOL     OW45183   3.499  12.917   2.245  0.7814 -0.1523  0.0786
77735SOL    HW145184   3.520  13.010   2.235 -1.6285  0.4440 -0.0669
77735SOL    HW245185   3.537  12.893   2.330 -0.5702  1.6612  1.2926
77736SOL     OW45186   1.780   2.712   8.247 -0.6110  0.2971 -0.0995
77736SOL    HW145187   1.712   2.693   8.312 -0.5742  0.6575  0.0462
77736SOL    HW245188   1.824   2.789   8.281  0.9473 -0.8729  0.6440
77737SOL     OW45189  12.067   3.772   5.141  0.0374 -0.7051  0.6042
77737SOL    HW145190  11.976   3.796   5.123  1.0770  3.1292 -0.3698
77737SOL    HW245191  12.103   3.749   5.055  0.6697  0.6689  0.4751
77738SOL     OW45192   7.421   2.535  11.498  0.5869 -0.4702  0.6623
77738SOL    HW145193   7.335   2.571  11.518  0.8487  1.2538 -1.0239
77738SOL    HW245194   7.438   2.472  11.568 -1.3014  0.3780  1.9542
77739SOL     OW45195  13.847  11.149   8.137  0.5782 -0.3429 -0.2088
77739SOL    HW145196  13.764  11.170   8.095  0.5138  1.2949  0.6341
77739SOL    HW245197  13.828  11.074   8.193 -0.5079  0.3598  0.4097
77740SOL     OW45198   4.728   9.718   6.503 -0.6735 -0.3133  0.1128
77740SOL    HW145199   4.714   9.627   6.530  0.9343 -1.0654 -1.3746
77740SOL    HW245200   4.727   9.768   6.585  1.1412 -2.0545  1.2825
77741SOL     OW45201   7.846   7.292   3.627  0.0369 -0.1855 -0.2154
77741SOL    HW145202   7.759   7.315   3.595 -0.7340 -0.9228  1.2427
77741SOL    HW245203   7.852   7.334   3.713  1.7149  1.0672 -0.9011
77742SOL     OW45204  10.315   6.240   1.425 -0.2925  0.2012 -0.1657
77742SOL    HW145205  10.270   6.244   1.509  0.1524  3.6347  0.0629
77742SOL    HW245206  10.254   6.194   1.367 -2.0395  0.6120  1.2672
77743SOL     OW45207   1.884  10.513  11.985 -0.0040  0.2324  0.1032
77743SOL    HW145208   1.797  10.520  11.944 -1.5361 -2.9148  2.4489
77743SOL    HW245209   1.937  10.467  11.920  0.2284  2.6736 -1.5895
77744SOL     OW45210   3.525   6.367  12.093  0.0418 -0.0468 -0.2403
77744SOL    HW145211   3.445   6.372  12.145 -0.2221  3.0519 -0.7628
77744SOL    HW245212   3.593   6.402  12.151  0.5523 -0.3916 -0.6210
77745SOL     OW45213   2.759   2.917   4.310 -0.0955  0.6632  0.4214
77745SOL    HW145214   2.700   2.851   4.272  0.2408 -0.0171  1.0425
77745SOL    HW245215   2.798   2.961   4.234  0.2995 -0.4294 -0.0309
77746SOL     OW45216   6.617   0.851   5.029  0.5276  0.3400 -0.0851
77746SOL    HW145217   6.596   0.770   5.075 -0.8624  0.4769 -0.4168
77746SOL    HW245218   6.684   0.892   5.082  0.2051 -0.3366  0.8795
77747SOL     OW45219  10.242   1.302   7.441 -0.3457 -0.4094  0.2733
77747SOL    HW145220  10.336   1.285   7.448 -0.2866 -0.1996  0.0037
77747SOL    HW245221  10.207   1.226   7.395 -0.4124 -0.8034  0.9641
77748SOL     OW45222  12.397   5.736   0.386 -0.5351  0.0547  0.1688
77748SOL    HW145223  12.340   5.764   0.313  0.3379  0.2863 -0.4424
77748SOL    HW245224  12.467   5.687   0.344  0.1626  0.4723  0.8170
77749SOL     OW45225   9.384   0.837   9.393  0.1513  0.1786  0.1940
77749SOL    HW145226   9.413   0.806   9.308  1.7190 -0.9772  1.0934
77749SOL    HW245227   9.452   0.899   9.420 -0.6650  1.0403  0.3637
77750SOL     OW45228   8.144   7.875   4.907 -0.1786  0.0855  0.4030
77750SOL    HW145229   8.229   7.908   4.935 -0.5664  1.3638  0.1067
77750SOL    HW245230   8.099   7.851   4.988 -0.5917  2.0410  0.8010
77751SOL     OW45231   0.807   0.245  13.584  0.4927 -0.0715 -0.6612
77751SOL    HW145232   0.727   0.230  13.533  0.8418 -1.3259 -0.8876
77751SOL    HW245233   0.854   0.162  13.579  2.4329  1.0112 -1.6031
77752SOL     OW45234  12.482  11.859   9.334 -0.5335 -0.2035 -0.2318
77752SOL    HW145235  12.454  11.950   9.329 -2.2815 -0.7562 -1.4929
77752SOL    HW245236  12.561  11.855   9.280 -0.6808  0.4823 -0.5027
77753SOL     OW45237  11.649  13.629   1.758  0.0612  0.2468  0.5185
77753SOL    HW145238  11.555  13.638   1.769 -0.1617  0.1916 -1.1207
77753SOL    HW245239  11.683  13.618   1.847 -1.5093 -0.1513  1.0912
77754SOL     OW45240  12.379  13.840   3.953 -0.3265 -0.2399 -0.9022
77754SOL    HW145241  12.329  13.921   3.949 -1.4799 -0.9593 -1.6628
77754SOL    HW245242  12.440  13.845   3.879  0.8027  0.6534  0.0449
77755SOL     OW45243  13.092  13.713  11.056 -0.2592  0.5329 -0.0514
77755SOL    HW145244  13.132  13.679  10.976 -0.0041  1.0890 -0.1665
77755SOL    HW245245  13.150  13.785  11.083  0.3868 -0.4541  1.3337
77756SOL     OW45246  11.013   1.778   1.930  0.2649 -0.5218 -0.1164
77756SOL    HW145247  11.044   1.867   1.914  0.7603 -0.5308  0.7149
77756SOL    HW245248  10.985   1.746   1.844 -0.9622  0.8226 -0.2549
77757SOL     OW45249   8.917   3.077   0.249  0.2124  0.0043  0.1186
77757SOL    HW145250   8.878   3.073   0.336 -1.4361 -0.3616 -0.6026
77757SOL    HW245251   9.006   3.108   0.264  0.1629 -0.6482  1.9821
77758SOL     OW45252  13.970   8.645   2.645 -0.7052  0.0196 -0.6883
77758SOL    HW145253  13.990   8.738   2.652 -0.4392 -0.1000  0.2539
77758SOL    HW245254  13.910   8.639   2.570 -1.3814  1.0618 -0.2555
77759SOL     OW45255   9.558   1.890  13.611 -0.0359  0.2787 -0.1481
77759SOL    HW145256   9.509   1.909  13.691  1.1223  2.4692  0.1155
77759SOL    HW245257   9.647   1.871  13.641 -0.4882 -3.4033 -0.6403
77760SOL     OW45258  13.679   3.046  11.923 -0.0917 -0.5439  0.8527
77760SOL    HW145259  13.600   2.992  11.919 -0.6104  0.2539 -1.0593
77760SOL    HW245260  13.654   3.127  11.879  2.0049 -0.5976 -0.6005
77761SOL     OW45261   7.408   6.788   1.319  0.0336 -0.2652 -0.7108
77761SOL    HW145262   7.445   6.793   1.407  0.2343 -0.6613 -0.7686
77761SOL    HW245263   7.485   6.788   1.261  0.1629 -3.7272 -0.7395
77762SOL     OW45264   4.828  12.644  12.716  0.1377 -0.2414 -0.0680
77762SOL    HW145265   4.820  12.576  12.783 -1.1135  0.8146  0.9009
77762SOL    HW245266   4.875  12.715  12.759 -0.7158  0.4679 -0.2791
77763SOL     OW45267   6.775   3.636   8.285 -0.1342  0.3403  0.4184
77763SOL    HW145268   6.811   3.570   8.345  0.7137 -0.7551 -1.2089
77763SOL    HW245269   6.680   3.626   8.293 -0.0707 -2.3723 -1.0453
77764SOL     OW45270  13.911   9.778   4.887  0.2513  0.2398  0.0233
77764SOL    HW145271  13.851   9.755   4.958 -0.1339 -0.5085 -0.5409
77764SOL    HW245272  13.890   9.717   4.817  0.7609  0.8528 -0.6719
77765SOL     OW45273  13.176   4.824   2.831  0.1208 -0.2743 -0.5747
77765SOL    HW145274  13.265   4.827   2.794 -0.1866  1.2185 -1.2471
77765SOL    HW245275  13.119   4.807   2.756 -0.3091  0.5138 -0.4336
77766SOL     OW45276   0.740   5.166  10.636 -0.4181  0.3741 -0.8615
77766SOL    HW145277   0.696   5.155  10.720  0.1342 -0.3842 -0.6665
77766SOL    HW245278   0.774   5.079  10.615  1.8433  1.1124 -0.5419
77767SOL     OW45279   2.578   8.072   7.291 -0.0338 -0.0500  0.4239
77767SOL    HW145280   2.516   8.106   7.356 -0.8719 -2.5699  1.0610
77767SOL    HW245281   2.635   8.014   7.342  0.9502 -0.0805 -0.6832
77768SOL     OW45282   5.455  12.556   4.670 -0.1138 -0.6652  0.3085
77768SOL    HW145283   5.547  12.563   4.644 -0.4191  1.7608 -0.4183
77768SOL    HW245284   5.453  12.586   4.761 -0.2291 -0.2941  0.1861
77769SOL     OW45285   0.305   0.789   2.927  0.3475 -0.1074  0.1286
77769SOL    HW145286   0.340   0.866   2.972  0.4404 -0.3173  0.4237
77769SOL    HW245287   0.313   0.809   2.834 -0.2059  0.4947  0.2063
77770SOL     OW45288   6.605   0.541   2.705  0.1683 -0.1818 -0.2620
77770SOL    HW145289   6.549   0.526   2.629  0.0809  1.0317 -0.4513
77770SOL    HW245290   6.694   0.540   2.669  0.1097  0.7042 -0.4335
77771SOL     OW45291   2.897   3.993  13.709 -0.3653 -0.0750 -0.2408
77771SOL    HW145292   2.858   3.945  13.636 -1.5938  0.1088  0.2622
77771SOL    HW245293   2.937   4.070  13.669 -1.5963  0.3687 -0.6889
77772SOL     OW45294   7.250   1.851  11.930 -0.1134  0.1865 -0.0613
77772SOL    HW145295   7.262   1.901  12.011  1.5899 -0.9258  0.4263
77772SOL    HW245296   7.318   1.784  11.933 -1.2973 -1.1494 -1.4682
77773SOL     OW45297   8.989   4.148   5.894  0.3356 -0.5946  0.0385
77773SOL    HW145298   9.051   4.197   5.840 -1.6864  0.9169 -1.0586
77773SOL    HW245299   8.988   4.195   5.978 -0.9771  0.8614 -0.7307
77774SOL     OW45300   8.394   1.294  12.351  0.5168 -0.5115 -0.4831
77774SOL    HW145301   8.440   1.309  12.434  1.4988 -0.0296 -1.1060
77774SOL    HW245302   8.329   1.227  12.372 -0.0786  0.4521  0.9768
77775SOL     OW45303   6.674   5.456  12.209  0.2223  0.5992  0.7843
77775SOL    HW145304   6.760   5.417  12.221  1.2885  2.5432 -0.0059
77775SOL    HW245305   6.666   5.519  12.281  0.4174  1.9318 -0.3106
77776SOL     OW45306   6.749  12.257  13.674  0.7817 -0.2840 -0.1443
77776SOL    HW145307   6.825  12.241  13.730  1.2205  0.1046 -0.6155
77776SOL    HW245308   6.781  12.238  13.586 -0.0117 -1.2699 -0.2284
77777SOL     OW45309   3.452   8.142   0.263 -0.8584 -0.3621 -0.0846
77777SOL    HW145310   3.372   8.148   0.315  1.3756 -0.4055  3.7727
77777SOL    HW245311   3.465   8.048   0.251 -0.9705 -0.3949  0.0373
77778SOL     OW45312   6.494   4.706  13.856  0.1022  0.5054 -0.1324
77778SOL    HW145313   6.456   4.770  13.795 -1.4174 -0.6382 -0.4264
77778SOL    HW245314   6.454   4.623  13.832 -0.1903 -0.0599  2.1278
77779SOL     OW45315   3.095   9.391   4.642  0.4405  0.3033 -0.3859
77779SOL    HW145316   3.097   9.433   4.556 -1.9266 -0.2151 -0.7554
77779SOL    HW245317   3.012   9.419   4.681  1.1029 -0.0966  1.4335
77780SOL     OW45318   3.474   4.509   4.624 -0.0490 -0.4472 -0.3997
77780SOL    HW145319   3.462   4.454   4.547 -2.9447 -0.5571  0.0216
77780SOL    HW245320   3.410   4.579   4.614 -1.4718 -1.1849  2.4551
77781SOL     OW45321  10.996  11.827  10.990  0.3619  0.2855  0.8099
77781SOL    HW145322  10.903  11.804  10.998  0.3348 -0.7621 -1.5285
77781SOL    HW245323  11.011  11.893  11.058 -1.9407  0.0658  1.6160
77782SOL     OW45324  11.597   3.908   6.894  0.0263 -0.0585  0.3626
77782SOL    HW145325  11.505   3.932   6.882  0.4750  1.0933 -0.9028
77782SOL    HW245326  11.629   3.970   6.959  0.7976  1.9772 -1.8267
77783SOL     OW45327  12.212   3.857   4.014  0.0377  0.0983  0.1835
77783SOL    HW145328  12.148   3.866   3.943  1.2209 -0.7945 -1.0485
77783SOL    HW245329  12.233   3.947   4.039 -0.6155  0.4207 -0.3881
77784SOL     OW45330  10.126   3.319   5.563  0.0777  0.2729 -0.0443
77784SOL    HW145331  10.118   3.385   5.632 -2.3535 -0.9826  1.0020
77784SOL    HW245332  10.160   3.241   5.608  0.2118 -0.0414 -0.6706
77785SOL     OW45333   5.247   5.068   1.345  0.0307 -0.0563  0.0948
77785SOL    HW145334   5.228   5.107   1.259 -0.3647  1.5651  0.8843
77785SOL    HW245335   5.164   5.029   1.372  0.2288 -0.8169 -0.3660
77786SOL     OW45336   0.452   7.262  10.183  0.0313 -0.3314 -0.0159
77786SOL    HW145337   0.364   7.240  10.152  0.2526  0.4631 -1.2810
77786SOL    HW245338   0.480   7.334  10.127  1.4586 -0.5025  0.4363
77787SOL     OW45339   0.108   0.666   3.733 -0.5532  0.4570  0.9371
77787SOL    HW145340   0.050   0.742   3.739 -1.6432 -0.2372 -0.2543
77787SOL    HW245341   0.118   0.651   3.639 -1.1467 -1.4282  1.1342
77788SOL     OW45342   8.586   1.007   7.220 -0.1547 -0.0759  0.0685
77788SOL    HW145343   8.630   1.044   7.297  1.5047 -0.4386 -0.6598
77788SOL    HW245344   8.495   0.999   7.246  0.0183  1.5543  1.3494
77789SOL     OW45345   9.300   6.000  10.576 -0.2727  0.6982  0.4014
77789SOL    HW145346   9.264   5.915  10.552  2.7093 -0.8977  1.0123
77789SOL    HW245347   9.342   6.032  10.496  0.6408  0.4029  0.7431
77790SOL     OW45348   5.022   5.806   8.573 -0.2119 -0.3768  0.4057
77790SOL    HW145349   5.080   5.744   8.618  0.1176 -1.5801 -1.5434
77790SOL    HW245350   5.080   5.853   8.513 -0.8084  0.3795  0.4181
77791SOL     OW45351  13.015   8.746   3.446 -0.0295 -0.4146  0.3151
77791SOL    HW145352  13.092   8.724   3.498 -0.8111  2.7575  3.2003
77791SOL    HW245353  13.038   8.829   3.404 -1.3828 -0.0895  0.1597
77792SOL     OW45354   4.991  11.971   3.464 -0.4912  0.4838  0.0047
77792SOL    HW145355   4.985  12.066   3.451 -0.6937  0.2582 -1.7177
77792SOL    HW245356   4.944  11.933   3.390  1.8523 -0.9920 -0.8403
77793SOL     OW45357   6.770   0.631   5.614 -0.0139 -0.2875  0.3399
77793SOL    HW145358   6.701   0.656   5.552 -0.3636  0.0614  0.8609
77793SOL    HW245359   6.810   0.554   5.575 -1.4847 -1.2254  0.6012
77794SOL     OW45360   8.353   9.512   2.526 -0.5183  0.1540  0.9634
77794SOL    HW145361   8.440   9.519   2.565  0.5977 -0.1850 -1.3335
77794SOL    HW245362   8.321   9.603   2.524  1.0650  0.7411 -0.8373
77795SOL     OW45363   3.408   1.826  13.767  0.1596 -0.1938 -0.2305
77795SOL    HW145364   3.479   1.809  13.829  1.7868 -0.6494 -2.1177
77795SOL    HW245365   3.337   1.767  13.795  0.0308  1.0467  2.3496
77796SOL     OW45366   3.576  11.559  13.391 -0.5895  0.5203 -0.2922
77796SOL    HW145367   3.590  11.653  13.389  0.6047  0.3553 -1.7340
77796SOL    HW245368   3.659  11.522  13.362 -1.4285 -0.9258 -0.9820
77797SOL     OW45369   7.768   5.414   9.616 -0.1618  0.1806 -0.2283
77797SOL    HW145370   7.804   5.372   9.694  0.0449 -0.1052 -0.4726
77797SOL    HW245371   7.807   5.501   9.614  0.2340  0.0060 -0.2869
77798SOL     OW45372  12.505   8.866  10.282 -0.1215 -0.5494 -0.4487
77798SOL    HW145373  12.503   8.962  10.281  0.5950 -0.5067 -2.3234
77798SOL    HW245374  12.413   8.840  10.290 -0.1850  0.1368  5.0734
77799SOL     OW45375  11.388   5.821   6.232  0.0875 -0.0429  0.1776
77799SOL    HW145376  11.403   5.762   6.158  1.7248 -0.8428  1.0729
77799SOL    HW245377  11.305   5.864   6.213  0.5079 -0.1295 -2.1688
77800SOL     OW45378  13.649   5.484  12.566 -0.4127  0.1479 -0.2166
77800SOL    HW145379  13.608   5.566  12.539  1.0194  1.0345  0.2110
77800SOL    HW245380  13.662   5.435  12.484  0.7704  1.3253 -0.7564
77801SOL     OW45381   2.653   4.191   6.811  0.0141 -0.5492 -1.0837
77801SOL    HW145382   2.562   4.221   6.813 -0.3327 -1.5988  0.2240
77801SOL    HW245383   2.648   4.100   6.784  0.5571 -0.9694  0.1844
77802SOL     OW45384  10.462  11.669   7.858  0.1535  0.0314  0.2832
77802SOL    HW145385  10.522  11.731   7.901 -1.0745  2.1757 -0.9126
77802SOL    HW245386  10.501  11.654   7.772  0.3007 -0.6598  0.4667
77803SOL     OW45387  12.046   1.204   7.757 -0.3673 -0.5247 -0.4392
77803SOL    HW145388  12.081   1.209   7.846 -1.8635  0.5935  0.1290
77803SOL    HW245389  12.043   1.111   7.737 -1.2510 -0.8954  1.2281
77804SOL     OW45390   8.504  11.693  13.061  0.1381 -0.9633  0.2593
77804SOL    HW145391   8.515  11.719  12.969 -0.5966 -0.1329  0.3899
77804SOL    HW245392   8.482  11.600  13.057 -0.6557 -0.7609 -0.4636
77805SOL     OW45393   2.600   2.583  12.520  1.2241 -0.0381 -0.3447
77805SOL    HW145394   2.550   2.618  12.446  0.7136 -0.9709 -0.4618
77805SOL    HW245395   2.545   2.513  12.555  1.0760  0.9208  1.4566
77806SOL     OW45396   9.167  12.567   2.097 -0.3072  0.1989 -0.2534
77806SOL    HW145397   9.218  12.486   2.099 -0.4363  0.0820 -1.1510
77806SOL    HW245398   9.178  12.601   2.008 -1.7200  0.2009 -0.4624
77807SOL     OW45399  12.447   3.871   5.274  0.1524  0.3425 -0.2942
77807SOL    HW145400  12.484   3.951   5.235  1.7127  1.6472  3.4379
77807SOL    HW245401  12.523   3.820   5.301 -0.7462  0.1466  2.0971
77808SOL     OW45402   5.495   5.498   5.883  0.9783  0.0621  0.6948
77808SOL    HW145403   5.521   5.534   5.798 -2.1410 -1.3006 -0.9898
77808SOL    HW245404   5.577   5.468   5.922  2.3910 -0.8436 -2.5990
77809SOL     OW45405  11.429   4.379   7.995 -0.4340 -0.3322  0.2908
77809SOL    HW145406  11.457   4.356   8.084  0.5185 -1.5961 -0.2957
77809SOL    HW245407  11.486   4.451   7.970 -2.8316  2.3013  1.8126
77810SOL     OW45408   4.887   6.696  13.549  0.0812  0.0452 -0.5059
77810SOL    HW145409   4.799   6.675  13.519 -0.3408  1.3724 -0.2214
77810SOL    HW245410   4.892   6.791  13.548  0.9503  0.0613  1.0767
77811SOL     OW45411  12.096   3.069   9.137 -0.1811 -0.6593 -0.2230
77811SOL    HW145412  12.089   2.980   9.173 -1.3979 -0.9476 -1.1188
77811SOL    HW245413  12.059   3.062   9.049  0.0199  0.6673 -0.4269
77812SOL     OW45414  12.362  13.106   7.158 -0.6152  0.0156  0.1498
77812SOL    HW145415  12.297  13.064   7.102  1.0243 -0.6511 -1.3599
77812SOL    HW245416  12.389  13.184   7.109  1.5218 -1.0801 -0.5508
77813SOL     OW45417   7.847   3.698  13.099 -0.0391  0.2849  0.3981
77813SOL    HW145418   7.809   3.785  13.108  0.5752  0.4178  1.9928
77813SOL    HW245419   7.882   3.696  13.010  0.7358  1.9993  0.6249
77814SOL     OW45420   8.678   0.411   5.513 -0.1892 -0.6016 -0.3181
77814SOL    HW145421   8.711   0.482   5.458 -0.9210  0.1425  0.1677
77814SOL    HW245422   8.584   0.411   5.497 -0.3183 -0.8275  0.4054
77815SOL     OW45423   5.756   5.767   8.935 -0.0608  0.1051  0.4267
77815SOL    HW145424   5.684   5.725   8.982 -0.3354  1.1451  0.9679
77815SOL    HW245425   5.777   5.844   8.988 -0.8848  1.7469 -1.5326
77816SOL     OW45426   1.139  13.805   1.048 -0.2151  0.3742 -0.0816
77816SOL    HW145427   1.204  13.738   1.068 -0.1423  0.5438  0.2516
77816SOL    HW245428   1.088  13.813   1.129  0.8527  1.9419  0.4663
77817SOL     OW45429   9.399  11.116  10.770  0.2644 -0.1793  0.3370
77817SOL    HW145430   9.326  11.135  10.829  1.7858 -0.1610  2.3196
77817SOL    HW245431   9.403  11.021  10.766 -1.0730 -0.2169 -1.4401
77818SOL     OW45432   6.860   5.648   4.103 -0.6574  0.3710  0.6080
77818SOL    HW145433   6.939   5.609   4.066 -1.5104 -0.3603 -0.4987
77818SOL    HW245434   6.869   5.634   4.198  0.0582 -0.6000  0.4133
77819SOL     OW45435   0.904  13.082  11.541  0.3581  0.4191 -0.5261
77819SOL    HW145436   0.849  13.022  11.590  0.0454  1.1563  0.0416
77819SOL    HW245437   0.926  13.034  11.461  2.6278 -1.6554  1.1967
77820SOL     OW45438  13.640  12.283   2.651 -0.2949  0.2490 -0.4897
77820SOL    HW145439  13.708  12.337   2.611 -1.5871  1.4297 -1.2072
77820SOL    HW245440  13.669  12.270   2.741  1.2120  0.0931 -0.9681
77821SOL     OW45441  13.234   0.960   7.006 -0.3889 -0.4448  0.4730
77821SOL    HW145442  13.200   0.995   7.088  0.1622  0.9794  0.1334
77821SOL    HW245443  13.186   0.878   6.992 -2.3435  0.5634  0.9242
77822SOL     OW45444  11.306   5.358  13.055 -0.5263  0.2230  0.1544
77822SOL    HW145445  11.230   5.330  13.004 -0.3378  1.8952 -1.1643
77822SOL    HW245446  11.280   5.442  13.092  0.2720  0.2520  0.6635
77823SOL     OW45447   5.390   5.982   8.558 -0.1321  0.4914  0.4032
77823SOL    HW145448   5.477   6.022   8.551  0.1227 -0.0657  0.3332
77823SOL    HW245449   5.361   6.005   8.646 -0.9364  2.6909 -0.3789
77824SOL     OW45450   7.381   8.973   7.081 -0.0850  0.1550  0.2304
77824SOL    HW145451   7.350   9.060   7.056  1.1511  0.6302  0.2897
77824SOL    HW245452   7.330   8.913   7.026 -0.2728  0.9710 -0.5111
77825SOL     OW45453   0.222   8.580   8.792  0.0196 -0.6734  0.6418
77825SOL    HW145454   0.238   8.629   8.712  1.0959 -2.1351 -0.0833
77825SOL    HW245455   0.140   8.532   8.775 -0.4999  0.0764  0.9723
77826SOL     OW45456  12.418   8.994   0.026 -0.2629  0.0388  0.9074
77826SOL    HW145457  12.476   9.064  -0.001  0.3415 -0.7523  0.0863
77826SOL    HW245458  12.472   8.915   0.025 -1.0018 -0.5036  1.4969
77827SOL     OW45459  12.575   9.951   2.114  0.6340 -0.1617  0.2182
77827SOL    HW145460  12.598  10.020   2.051 -0.5837 -0.4073 -0.5268
77827SOL    HW245461  12.633   9.878   2.092  0.7616  0.0361 -0.1135
77828SOL     OW45462   1.136   0.595  13.632 -0.0543 -0.5696  0.1873
77828SOL    HW145463   1.118   0.670  13.577 -0.0529 -0.6359  0.0965
77828SOL    HW245464   1.227   0.572  13.615  0.9499  1.2698  2.4417
77829SOL     OW45465   7.305  11.646   9.858 -0.3393  0.2757  0.3975
77829SOL    HW145466   7.233  11.708   9.863 -1.1155 -0.6637  1.0591
77829SOL    HW245467   7.383  11.702   9.854 -1.0680  1.2987 -0.1239
77830SOL     OW45468  11.066   7.580   5.343 -0.5560 -0.4275  0.1098
77830SOL    HW145469  11.005   7.523   5.390  1.2649 -2.0950  0.5769
77830SOL    HW245470  11.110   7.521   5.281  1.2797  0.4964  0.4879
77831SOL     OW45471  12.376   4.251   4.317  0.1823 -0.2687  0.4422
77831SOL    HW145472  12.347   4.336   4.348 -0.0722 -0.2449  0.1412
77831SOL    HW245473  12.350   4.248   4.225 -1.4592 -1.3896  0.8854
77832SOL     OW45474  13.405   8.829   1.065  0.1759 -0.7771 -0.2777
77832SOL    HW145475  13.487   8.799   1.102  0.1522  0.2651  0.6694
77832SOL    HW245476  13.420   8.921   1.044 -0.2981 -0.9510 -1.4741
77833SOL     OW45477   4.846   5.322   1.152  0.4442 -0.3091 -0.3209
77833SOL    HW145478   4.904   5.391   1.184 -0.5568  0.3475  0.1268
77833SOL    HW245479   4.797   5.363   1.080 -1.1074 -0.1081  0.8123
77834SOL     OW45480   9.369  10.043   8.582 -0.5105 -0.0895  0.4072
77834SOL    HW145481   9.352  10.132   8.612 -1.5659 -0.5810  1.3431
77834SOL    HW245482   9.449  10.050   8.530 -0.0026  1.2266  1.3129
77835SOL     OW45483   4.138   7.421   2.415 -0.5763 -0.0409  0.1011
77835SOL    HW145484   4.208   7.471   2.373  0.2995  0.3493  1.9317
77835SOL    HW245485   4.097   7.482   2.476 -2.2579 -0.3903 -0.6079
77836SOL     OW45486   2.297   6.929  11.292  0.2554 -0.2283  1.2175
77836SOL    HW145487   2.273   6.961  11.205  0.5969 -1.2327  0.7350
77836SOL    HW245488   2.312   7.008  11.343  0.6859  0.3847  0.1837
77837SOL     OW45489   4.719  11.968   6.603 -0.3874 -0.1908 -0.2694
77837SOL    HW145490   4.628  11.961   6.634 -1.6642 -1.4771 -3.7881
77837SOL    HW245491   4.718  12.045   6.545  1.4933  1.2958  1.5533
77838SOL     OW45492   1.008   1.933   3.353  0.3685  0.3301 -1.1954
77838SOL    HW145493   0.934   1.879   3.380 -0.0646  2.1441  1.7397
77838SOL    HW245494   0.968   2.011   3.315  0.8786  0.2751 -1.8612
77839SOL     OW45495  12.400  12.487   1.081 -0.2822  0.1827 -0.2997
77839SOL    HW145496  12.387  12.539   1.160  0.1620  0.5662 -0.4716
77839SOL    HW245497  12.313  12.452   1.061 -0.6370  1.0186 -0.2818
77840SOL     OW45498   7.121  10.442   0.586  0.3354 -0.3023 -0.4263
77840SOL    HW145499   7.043  10.463   0.637  0.3413 -1.8320  0.2572
77840SOL    HW245500   7.088  10.407   0.503  0.3082  0.2075 -0.6310
77841SOL     OW45501  11.253   2.187   0.755  0.1026 -0.2993 -0.2562
77841SOL    HW145502  11.227   2.190   0.663 -0.1802 -0.9647 -0.2060
77841SOL    HW245503  11.275   2.095   0.771 -1.7712 -0.6194  0.8418
77842SOL     OW45504   7.314   5.636  10.064  0.0493 -0.5635  0.0711
77842SOL    HW145505   7.409   5.633  10.055  0.2115  1.0983  0.9797
77842SOL    HW245506   7.298   5.675  10.150 -1.4733 -1.2975  0.1730
77843SOL     OW45507   3.926   3.787   9.978  0.2859  0.0486  0.7158
77843SOL    HW145508   3.958   3.711   9.929  0.8429  0.2994  0.6926
77843SOL    HW245509   3.997   3.807  10.039 -0.2566 -0.0477  1.3900
77844SOL     OW45510   6.340   2.867   3.224 -0.2472 -0.8745 -0.2585
77844SOL    HW145511   6.384   2.947   3.252  0.8882 -1.3150 -0.7273
77844SOL    HW245512   6.404   2.822   3.169 -1.9488 -0.6025 -2.6687
77845SOL     OW45513  10.183  12.983  10.131  0.5235  0.1826  0.0874
77845SOL    HW145514  10.126  13.057  10.152  1.8765  0.4967  3.2620
77845SOL    HW245515  10.256  13.021  10.082  0.1500  0.5349 -0.2023
77846SOL     OW45516   4.952   3.869   5.111  0.1884 -0.0940 -0.5038
77846SOL    HW145517   4.882   3.848   5.173  1.0268  1.7907  1.2031
77846SOL    HW245518   4.974   3.960   5.130  2.6798 -0.4354 -1.3997
77847SOL     OW45519   3.806   7.574   4.710 -0.3771 -0.2842 -0.5220
77847SOL    HW145520   3.742   7.628   4.757  1.6370  2.9697 -1.2423
77847SOL    HW245521   3.832   7.507   4.774 -1.9175  0.4531  0.9415
77848SOL     OW45522  13.309   7.267   1.070 -0.1132 -0.4281 -0.1039
77848SOL    HW145523  13.306   7.187   1.017 -0.1956  1.0124 -2.3947
77848SOL    HW245524  13.397   7.301   1.056 -0.7534  0.9712 -0.8988
77849SOL     OW45525   3.097   9.523   0.336 -0.1921  0.1109 -0.2060
77849SOL    HW145526   3.103   9.509   0.241  1.5832  2.0731 -0.4651
77849SOL    HW245527   3.040   9.599   0.346 -0.2625 -0.0037  0.2950
77850SOL     OW45528  11.595   2.394   3.669 -0.0323 -0.4411  1.0669
77850SOL    HW145529  11.551   2.310   3.658  0.4881 -0.6559  0.5839
77850SOL    HW245530  11.544   2.456   3.618  1.1588 -1.0147 -0.9266
77851SOL     OW45531   5.916  11.053   8.395 -0.4249  0.5462  0.1797
77851SOL    HW145532   5.905  11.013   8.308  1.4579 -0.4970  0.3734
77851SOL    HW245533   5.827  11.074   8.423 -1.3150 -1.4538 -0.9124
77852SOL     OW45534   9.985   5.372   8.998 -0.4135 -0.4828 -0.1514
77852SOL    HW145535   9.977   5.390   9.091  0.0903 -2.4517  0.3137
77852SOL    HW245536  10.049   5.437   8.966  0.0995 -0.3738  1.0513
77853SOL     OW45537   1.626  12.157   7.117  0.1174  0.0213  0.6203
77853SOL    HW145538   1.702  12.167   7.061 -1.1192  0.2684 -1.0961
77853SOL    HW245539   1.638  12.071   7.159  1.8674  0.5605  1.2893
77854SOL     OW45540  13.913  11.221   2.826 -0.1596  0.1552 -0.1367
77854SOL    HW145541  13.881  11.234   2.915  1.8499  0.4976  0.6095
77854SOL    HW245542  13.924  11.309   2.791 -1.2865  0.0143 -0.8883
77855SOL     OW45543   3.688  10.024   3.329  0.1511  0.2202 -0.3049
77855SOL    HW145544   3.715   9.933   3.340 -0.9323 -0.1001 -0.1532
77855SOL    HW245545   3.641  10.045   3.409  2.5266  1.7606  0.7915
77856SOL     OW45546   7.445   3.158   8.351 -0.3314 -0.1890  0.2529
77856SOL    HW145547   7.363   3.135   8.306  0.6523 -0.2332 -1.6204
77856SOL    HW245548   7.440   3.253   8.362 -1.6591 -0.4424  2.3639
77857SOL     OW45549   4.501   0.702  10.062 -0.3573 -0.1141  0.1701
77857SOL    HW145550   4.529   0.745  10.143 -2.8122  1.0340  0.5110
77857SOL    HW245551   4.552   0.622  10.059  0.1498  0.0259  2.6496
77858SOL     OW45552   9.990   5.709   8.771 -0.1999 -0.1990 -0.0258
77858SOL    HW145553  10.040   5.644   8.722 -0.1607 -0.5239  0.4450
77858SOL    HW245554  10.019   5.700   8.861 -0.4839  0.1998  0.1100
77859SOL     OW45555   3.880  12.061   8.070 -0.1155 -0.4925 -0.4856
77859SOL    HW145556   3.945  12.126   8.097  0.7532 -0.6338 -2.1247
77859SOL    HW245557   3.802  12.082   8.123  0.3293  1.4875 -0.5286
77860SOL     OW45558  10.297   1.894   6.417 -0.0699  0.4372  0.5857
77860SOL    HW145559  10.276   1.865   6.506  0.1407 -0.5572  0.3240
77860SOL    HW245560  10.213   1.894   6.372 -0.4839  2.6506  1.2158
77861SOL     OW45561   8.367   2.183   4.721 -0.0502  0.0124  0.2162
77861SOL    HW145562   8.450   2.185   4.769  0.4336 -0.6585 -0.5660
77861SOL    HW245563   8.300   2.175   4.790  0.5703 -0.0839  0.8219
77862SOL     OW45564   6.221   5.457   3.876  0.2529  0.1356  0.3836
77862SOL    HW145565   6.176   5.528   3.830 -1.1351 -0.5037  0.6944
77862SOL    HW245566   6.161   5.432   3.946  1.8435  0.3426  1.8690
77863SOL     OW45567   1.311   3.546   0.062 -0.5897 -0.1924  0.3752
77863SOL    HW145568   1.364   3.493   0.002  0.6255  1.3976 -0.0204
77863SOL    HW245569   1.222   3.514   0.050 -0.0531 -1.4167 -0.6124
77864SOL     OW45570   7.277   1.265   2.761 -0.6299 -0.8475  0.1354
77864SOL    HW145571   7.231   1.190   2.797 -1.4751  0.3562  1.7007
77864SOL    HW245572   7.233   1.341   2.801  0.2193  0.4688 -1.3427
77865SOL     OW45573   6.798   1.172   7.288  0.4265 -0.8522  0.5284
77865SOL    HW145574   6.749   1.253   7.302  0.3146 -0.6101 -1.1421
77865SOL    HW245575   6.732   1.102   7.297  0.1520 -0.6440  0.1403
77866SOL     OW45576   0.206   7.819  13.369  0.5692 -0.4279  0.8002
77866SOL    HW145577   0.222   7.858  13.454  1.3753 -0.6952  0.7898
77866SOL    HW245578   0.294   7.803  13.334  0.3786 -3.6829  1.4879
77867SOL     OW45579   7.046  11.806   9.900 -0.3662  0.4721 -0.5346
77867SOL    HW145580   6.982  11.815   9.970  1.0873 -2.0568  1.2926
77867SOL    HW245581   7.112  11.873   9.919  0.5385 -0.8356  1.2411
77868SOL     OW45582   0.591   8.763   8.710 -0.5381  0.0175 -0.7175
77868SOL    HW145583   0.499   8.780   8.694 -0.4294  0.5081 -0.8630
77868SOL    HW245584   0.593   8.705   8.786 -0.9639 -0.0428 -0.7535
77869SOL     OW45585   8.354   2.534   5.463  0.0780  0.2421 -0.4104
77869SOL    HW145586   8.267   2.500   5.482  0.6425 -2.2216 -1.7320
77869SOL    HW245587   8.343   2.584   5.382 -0.1923  0.3111 -0.3320
77870SOL     OW45588   1.834   5.339   2.905 -0.1410  0.1500  0.1681
77870SOL    HW145589   1.761   5.313   2.847  0.1408 -0.7144  0.1888
77870SOL    HW245590   1.912   5.312   2.858  0.0814 -0.9093  1.1058
77871SOL     OW45591   4.461   2.284   3.050  0.1413  0.2870  0.0711
77871SOL    HW145592   4.385   2.277   3.109  0.9436 -1.5971  0.9773
77871SOL    HW245593   4.499   2.369   3.070 -1.2108  0.8676  0.2626
77872SOL     OW45594   2.790   2.493   1.580 -0.5313 -0.0585  0.0966
77872SOL    HW145595   2.801   2.557   1.510 -0.0857  1.4938  1.5145
77872SOL    HW245596   2.701   2.461   1.570 -0.3910 -0.0553 -1.3093
77873SOL     OW45597   4.969  13.086   0.053  0.5056  0.1847  0.1138
77873SOL    HW145598   5.008  13.173   0.038  1.2051 -0.1717 -0.2013
77873SOL    HW245599   4.977  13.042  -0.032 -0.8496  0.1947 -0.0293
77874SOL     OW45600  13.956   8.487   1.295 -0.0637  0.3905  0.3521
77874SOL    HW145601  13.962   8.395   1.267  0.1434  0.2930  0.7115
77874SOL    HW245602  14.045   8.521   1.283 -0.3554  0.8312 -0.7333
77875SOL     OW45603   3.861  13.115   5.128 -0.0923 -0.1803  0.7348
77875SOL    HW145604   3.953  13.090   5.131 -0.2670 -1.0325 -0.3290
77875SOL    HW245605   3.822  13.056   5.063 -1.3642  0.2400  1.0842
77876SOL     OW45606   3.598   2.668  11.393  0.5427 -0.0413 -0.5852
77876SOL    HW145607   3.528   2.612  11.359  1.7110 -0.8615 -1.7015
77876SOL    HW245608   3.587   2.751  11.347 -0.2033  0.1254 -0.1224
77877SOL     OW45609  12.728  12.669  11.215  0.1611  0.8767  0.1378
77877SOL    HW145610  12.789  12.650  11.143  0.7467 -1.1356  1.1054
77877SOL    HW245611  12.692  12.755  11.193  0.9518  0.7052 -2.1216
77878SOL     OW45612   9.934  13.908   9.161 -0.1520 -0.6217  0.2653
77878SOL    HW145613   9.909  13.819   9.136  0.1559 -0.8440  0.7261
77878SOL    HW245614   9.917  13.912   9.255  0.3084 -0.3553  0.3395
77879SOL     OW45615   1.364   2.970   5.453  0.4724  0.4909 -0.5614
77879SOL    HW145616   1.456   2.986   5.432  1.0438 -1.4949  0.2261
77879SOL    HW245617   1.349   3.020   5.533  2.7307 -3.7162  2.8984
77880SOL     OW45618   6.025   0.981   6.534  0.1061 -0.3807 -0.7625
77880SOL    HW145619   5.982   1.047   6.588 -0.0641 -0.1809 -1.1384
77880SOL    HW245620   5.956   0.916   6.516 -0.2139  0.2352 -1.8508
77881SOL     OW45621   5.870  13.949  11.725  0.4502  0.5031  0.4382
77881SOL    HW145622   5.842  13.972  11.636  0.5910  0.1707  0.3024
77881SOL    HW245623   5.944  13.889  11.711 -0.6261 -0.9622  0.7523
77882SOL     OW45624  11.721  10.923   5.507  0.3235 -0.7751  0.2615
77882SOL    HW145625  11.682  10.848   5.551 -1.1731 -0.0304  0.2540
77882SOL    HW245626  11.653  10.990   5.507  0.5644 -0.4194 -2.3756
77883SOL     OW45627   0.214   8.665   1.669  0.1684 -0.5888 -0.4392
77883SOL    HW145628   0.155   8.727   1.625 -0.4051  0.6021  1.8501
77883SOL    HW245629   0.157   8.591   1.690 -0.1895 -0.0809  0.4490
77884SOL     OW45630  10.094   8.200   9.677  0.0328  0.0825 -0.1566
77884SOL    HW145631  10.095   8.248   9.759 -0.6425 -1.2720  0.6865
77884SOL    HW245632  10.121   8.111   9.700  0.1833 -0.2432 -1.4645
77885SOL     OW45633   2.394  10.845   0.601  0.3127 -0.3726 -0.1614
77885SOL    HW145634   2.333  10.849   0.528 -0.4479  2.9091  0.5031
77885SOL    HW245635   2.339  10.837   0.679  0.9856 -1.4931  0.2293
77886SOL     OW45636  13.777  10.712   6.471  0.8644 -0.1204 -0.2678
77886SOL    HW145637  13.690  10.673   6.480  0.2999  0.7137 -1.7636
77886SOL    HW245638  13.794  10.752   6.556 -0.8546  0.9429 -0.3849
77887SOL     OW45639  10.053   8.508   1.139 -0.2262  0.3059 -0.2642
77887SOL    HW145640  10.114   8.448   1.182 -0.3052  1.1625  1.1028
77887SOL    HW245641   9.993   8.450   1.091 -0.8608 -0.8230  1.7486
77888SOL     OW45642   4.232   5.329  10.619  0.3976 -0.0186  0.2014
77888SOL    HW145643   4.312   5.282  10.644 -0.1230 -1.7758 -1.1750
77888SOL    HW245644   4.245   5.350  10.526 -0.5429  0.0571  0.0752
77889SOL     OW45645   5.281   7.737   2.168 -0.3703 -0.1658 -0.1596
77889SOL    HW145646   5.223   7.725   2.243 -0.3782 -1.3460 -0.3370
77889SOL    HW245647   5.270   7.830   2.144 -2.7688 -0.4945 -0.6451
77890SOL     OW45648   3.105  10.782   5.881  0.0095  0.4261  0.3831
77890SOL    HW145649   3.193  10.808   5.906 -0.3234  0.6590  1.3500
77890SOL    HW245650   3.048  10.847   5.922 -0.5582  0.9728 -1.2003
77891SOL     OW45651  10.048   9.566   0.485  0.3820 -0.7056 -0.6248
77891SOL    HW145652  10.136   9.572   0.523  0.2687 -0.8327 -0.3414
77891SOL    HW245653  10.002   9.642   0.520  1.1957  0.9811 -2.9556
77892SOL     OW45654   5.553   8.816   3.094 -0.2496 -0.0632 -0.6491
77892SOL    HW145655   5.599   8.748   3.044  0.1115  0.0992 -0.5412
77892SOL    HW245656   5.461   8.805   3.071 -0.1843 -0.5424 -0.6903
77893SOL     OW45657  10.635   7.470  10.664 -0.4894 -0.0308 -0.2988
77893SOL    HW145658  10.691   7.547  10.673  0.2597 -0.4983 -0.7625
77893SOL    HW245659  10.581   7.489  10.587 -0.2799  0.0219 -0.4366
77894SOL     OW45660   2.950   2.307   5.672  0.1579 -0.2785  0.4344
77894SOL    HW145661   3.010   2.360   5.725  0.0974  0.3079 -0.0709
77894SOL    HW245662   3.006   2.241   5.631  0.6080  0.6986 -0.5948
77895SOL     OW45663   8.037  10.872   0.760  0.0242  0.3071 -0.2219
77895SOL    HW145664   8.054  10.958   0.721 -0.7534 -0.5141 -2.5787
77895SOL    HW245665   8.117  10.823   0.743 -0.1354  0.0904 -0.3558
77896SOL     OW45666  12.749  12.195  10.554 -0.6272 -0.3203 -0.1264
77896SOL    HW145667  12.679  12.256  10.532 -0.8118 -0.2959  0.5084
77896SOL    HW245668  12.826  12.250  10.564 -0.3650 -0.4088 -1.4098
77897SOL     OW45669  12.167   5.847   5.997 -0.4124  0.5017  0.2555
77897SOL    HW145670  12.241   5.907   5.984 -0.7940  1.0113  0.3860
77897SOL    HW245671  12.148   5.852   6.091 -0.0339 -0.3284  0.3870
77898SOL     OW45672   1.303   8.329   0.765 -0.4652  0.0920  0.4012
77898SOL    HW145673   1.208   8.321   0.771 -0.4133 -2.1453 -0.6829
77898SOL    HW245674   1.335   8.238   0.760  1.5133  0.7921 -1.8519
77899SOL     OW45675  12.871  10.323   0.852  0.2761  0.3497 -0.4635
77899SOL    HW145676  12.914  10.252   0.900  1.8365  0.5720 -1.4422
77899SOL    HW245677  12.923  10.333   0.772 -1.2262  1.1325 -1.3904
77900SOL     OW45678   9.940   8.550   9.549  0.0978  0.0465 -0.3828
77900SOL    HW145679   9.973   8.639   9.533 -1.4904  0.2028 -3.3890
77900SOL    HW245680   9.940   8.542   9.645  2.2340  2.4912 -0.0724
77901SOL     OW45681  13.942   9.878   3.114  0.4933 -0.0376 -0.1993
77901SOL    HW145682  14.008   9.824   3.158 -0.2216 -1.0812 -0.3577
77901SOL    HW245683  13.887   9.911   3.185  1.8883  1.9145  0.0720
77902SOL     OW45684  10.166   7.215   3.260 -0.2127 -0.6173 -0.6981
77902SOL    HW145685  10.201   7.251   3.179 -0.0206 -1.8273 -1.1746
77902SOL    HW245686  10.142   7.125   3.238 -1.9992 -0.3827  0.0678
77903SOL     OW45687   1.712   4.075  13.753  0.5853  0.4097 -0.1409
77903SOL    HW145688   1.795   4.072  13.706  1.3233  3.4583  0.7297
77903SOL    HW245689   1.737   4.079  13.846 -0.6000  0.2569  0.2149
77904SOL     OW45690   0.923   3.788  10.961 -0.3625 -0.2300  0.3228
77904SOL    HW145691   0.915   3.723  11.032 -0.5669  0.5217  0.9995
77904SOL    HW245692   0.993   3.846  10.990 -0.2115 -0.1151 -0.2636
77905SOL     OW45693  12.962  12.642   3.291  0.3138 -0.3518 -0.2274
77905SOL    HW145694  12.970  12.721   3.238 -0.7833  1.1678  1.7572
77905SOL    HW245695  13.051  12.609   3.299  0.8475  0.9273 -0.7361
77906SOL     OW45696  13.315   4.070   2.726 -0.2644 -0.0749 -0.1546
77906SOL    HW145697  13.238   4.014   2.734 -0.8281  0.3800 -1.8447
77906SOL    HW245698  13.281   4.153   2.692  0.9284  0.2407 -0.6483
77907SOL     OW45699  12.821   5.092  13.431  0.0788  0.6265  0.3826
77907SOL    HW145700  12.766   5.106  13.354  0.4299 -1.6175 -0.3619
77907SOL    HW245701  12.910   5.090  13.396  0.2428 -0.3954  0.8353
77908SOL     OW45702   4.730   2.718   7.196  0.0545  0.0614  0.0942
77908SOL    HW145703   4.782   2.670   7.131  0.2309  0.3179  0.0433
77908SOL    HW245704   4.736   2.809   7.169 -1.7886 -0.0586 -0.8602
77909SOL     OW45705  10.134  11.159  12.988  0.3112  0.1809 -0.1966
77909SOL    HW145706  10.190  11.156  12.910  2.3272 -1.5582  1.1997
77909SOL    HW245707  10.187  11.204  13.054 -1.2305  1.3397  0.3134
77910SOL     OW45708   2.301   0.731   5.199 -0.1994 -0.5507 -0.4470
77910SOL    HW145709   2.301   0.758   5.291  2.2023 -2.6068  0.2448
77910SOL    HW245710   2.353   0.798   5.155 -2.0203  0.8830 -0.5342
77911SOL     OW45711   3.331   2.513   4.731  0.1739 -0.0076 -0.2536
77911SOL    HW145712   3.408   2.494   4.785  0.0955  1.0410  0.2407
77911SOL    HW245713   3.296   2.595   4.765 -0.0413  0.5494 -1.7296
77912SOL     OW45714  12.749  11.764   6.634  0.0700  0.3447 -0.0679
77912SOL    HW145715  12.739  11.716   6.552  0.0510  1.2525 -0.6105
77912SOL    HW245716  12.703  11.847   6.619  0.8655  0.9081  0.5275
77913SOL     OW45717   0.509   7.341   7.878  0.4456  0.0385 -0.1712
77913SOL    HW145718   0.447   7.406   7.909 -2.7279 -2.6523 -0.4171
77913SOL    HW245719   0.532   7.370   7.789 -1.7515  0.3097 -0.6890
77914SOL     OW45720  12.728   4.707  10.752 -0.0216  0.3975  0.0317
77914SOL    HW145721  12.761   4.713  10.662  0.3312 -0.2413  0.1196
77914SOL    HW245722  12.747   4.618  10.779 -1.8423 -0.0345  0.0713
77915SOL     OW45723   7.299   3.148   6.223  0.5156 -0.1907 -0.0560
77915SOL    HW145724   7.211   3.149   6.261  0.5988 -1.4643  0.2081
77915SOL    HW245725   7.324   3.240   6.220 -1.0070  0.2374 -0.5874
77916SOL     OW45726   4.421   8.552  12.425 -0.3147  0.8606 -0.4824
77916SOL    HW145727   4.460   8.562  12.338 -2.4941  3.3246 -1.2864
77916SOL    HW245728   4.343   8.498  12.410 -0.0799  0.3279  0.1759
77917SOL     OW45729   3.509   5.537  11.791  0.6782 -0.2381  0.1993
77917SOL    HW145730   3.501   5.444  11.810  1.8769 -0.1403  1.3132
77917SOL    HW245731   3.499   5.580  11.876  0.0315  0.6699 -0.3200
77918SOL     OW45732   8.444   0.132  13.731 -0.1990  0.3620 -0.1341
77918SOL    HW145733   8.488   0.149  13.814  0.4843  2.2268 -0.8239
77918SOL    HW245734   8.376   0.068  13.752  0.4045  0.2756  1.7058
77919SOL     OW45735   6.668  13.940  13.443  0.1257 -0.4481  0.0011
77919SOL    HW145736   6.658  13.862  13.497 -1.2970 -0.6045 -0.4559
77919SOL    HW245737   6.647  13.911  13.355  3.1404 -0.3893 -0.8706
77920SOL     OW45738   4.928   9.401  12.375  0.2115 -0.2155  0.0709
77920SOL    HW145739   4.837   9.414  12.349  0.0942 -2.1919 -0.6784
77920SOL    HW245740   4.924   9.357  12.460  0.3567 -2.3176 -0.9478
77921SOL     OW45741   7.689   0.465  13.962  0.1839 -0.1115  0.0511
77921SOL    HW145742   7.780   0.458  13.990 -0.1213 -1.3129  0.8375
77921SOL    HW245743   7.646   0.510  14.035 -0.3077 -1.8329  0.8960
77922SOL     OW45744  13.638  12.286   9.048  0.0730  0.8976  0.3733
77922SOL    HW145745  13.634  12.299   8.953  1.3876 -0.2921  0.1186
77922SOL    HW245746  13.731  12.273   9.067 -0.4343 -3.4982  1.0762
77923SOL     OW45747   7.661   5.316   3.689  0.0501  0.0547 -0.1276
77923SOL    HW145748   7.710   5.243   3.729  0.6525 -1.1050 -2.7777
77923SOL    HW245749   7.716   5.346   3.617 -1.2943  1.5332 -0.6009
77924SOL     OW45750   0.942  13.123   7.833 -0.1939  0.6482 -0.0714
77924SOL    HW145751   0.947  13.195   7.896 -0.1688 -0.2997  1.0433
77924SOL    HW245752   0.910  13.163   7.752 -0.6420  1.8124  0.6727
77925SOL     OW45753   9.066   1.676   3.450  0.4740 -0.5070  0.3104
77925SOL    HW145754   9.148   1.629   3.439  0.2757 -0.5417 -1.3867
77925SOL    HW245755   9.089   1.756   3.497  1.4514 -0.6068  0.0096
77926SOL     OW45756   7.054  13.042   7.043  0.1740 -0.1016  0.3195
77926SOL    HW145757   7.105  13.029   6.963  0.4261 -0.5619  0.5512
77926SOL    HW245758   6.969  13.004   7.024  0.5980 -1.2408  0.6582
77927SOL     OW45759  11.271   9.750  11.909  0.1104  0.1234  0.1932
77927SOL    HW145760  11.304   9.794  11.831  2.7497 -0.9681  0.5817
77927SOL    HW245761  11.266   9.819  11.975 -0.8868  0.7985 -0.5574
77928SOL     OW45762   1.731   7.732   9.684  0.3465  0.4280 -0.0012
77928SOL    HW145763   1.677   7.682   9.745  0.4711  0.8950  0.5005
77928SOL    HW245764   1.667   7.776   9.627  0.1591  1.3533  0.8873
77929SOL     OW45765  12.664   6.059   2.280  0.3553 -1.1434  0.4889
77929SOL    HW145766  12.579   6.020   2.259  0.6874 -0.4500 -2.5300
77929SOL    HW245767  12.670   6.052   2.375 -2.3029 -2.7772  0.6463
77930SOL     OW45768   7.473   6.855   5.683 -0.4921 -0.1255 -0.2875
77930SOL    HW145769   7.404   6.915   5.712 -0.3047 -0.8570  1.8131
77930SOL    HW245770   7.527   6.840   5.760 -0.2759 -2.6475 -0.8360
77931SOL     OW45771   3.221   5.072   8.469 -0.0601  0.1710 -0.3600
77931SOL    HW145772   3.183   5.014   8.535 -0.0349  0.1212 -0.3884
77931SOL    HW245773   3.250   5.149   8.517 -0.6485  0.4298 -0.4046
77932SOL     OW45774   8.959   5.687   6.277  0.2141  0.1657 -0.1372
77932SOL    HW145775   9.032   5.749   6.278 -1.5874  2.4296  0.3369
77932SOL    HW245776   8.949   5.662   6.185  1.4690 -0.1015 -0.2195
77933SOL     OW45777   5.494   8.766  13.213 -0.2221 -0.4468  0.3731
77933SOL    HW145778   5.419   8.825  13.216  0.7872  0.8886  0.1472
77933SOL    HW245779   5.514   8.757  13.120  0.2981 -0.2660  0.4630
77934SOL     OW45780   9.099   2.164  11.413  0.4908  0.0319  0.4289
77934SOL    HW145781   9.157   2.135  11.344  2.2662  0.8086  1.5150
77934SOL    HW245782   9.034   2.094  11.422  0.3919 -0.2086 -1.7668
77935SOL     OW45783   3.398  10.504  13.679  0.1260 -0.0577  0.0778
77935SOL    HW145784   3.412  10.566  13.607 -0.2340  0.6994  0.6416
77935SOL    HW245785   3.312  10.467  13.662  0.2247 -0.2006 -0.1144
77936SOL     OW45786   4.772   0.627  11.900  0.4373 -0.2233 -0.1115
77936SOL    HW145787   4.844   0.643  11.839 -0.0104 -1.4186 -0.9932
77936SOL    HW245788   4.706   0.693  11.877 -0.4326 -1.6959 -2.1370
77937SOL     OW45789   6.456   3.489   6.775 -0.1689  0.3103 -0.4297
77937SOL    HW145790   6.440   3.582   6.792 -2.6965 -0.2009  0.3680
77937SOL    HW245791   6.405   3.470   6.696  0.2211 -0.4179 -0.5142
77938SOL     OW45792   9.931   5.166  10.672 -0.0845 -0.3270 -0.3709
77938SOL    HW145793   9.903   5.131  10.756 -0.8543  1.1829  0.0365
77938SOL    HW245794  10.024   5.187  10.684 -0.2429  0.0893  0.1948
77939SOL     OW45795   7.956  10.103   1.288  0.0819 -0.2137  0.1525
77939SOL    HW145796   7.931  10.196   1.288 -0.9246 -0.4567  0.7861
77939SOL    HW245797   7.915  10.067   1.210 -1.0415 -0.4682  0.8293
77940SOL     OW45798  12.502   1.739   2.632  0.2471  0.2608 -0.1456
77940SOL    HW145799  12.414   1.774   2.647 -0.2742 -1.3897  0.9276
77940SOL    HW245800  12.540   1.731   2.719  1.5258  1.0542 -0.6138
77941SOL     OW45801   2.184   3.082  11.443 -0.5406 -0.0719  0.2357
77941SOL    HW145802   2.252   3.084  11.376 -0.8957 -1.2175 -0.1853
77941SOL    HW245803   2.223   3.032  11.515 -1.6177 -2.6371 -0.8518
77942SOL     OW45804   3.369  10.104   9.799  0.1188  0.2470  0.2258
77942SOL    HW145805   3.407  10.028   9.756  0.6762  1.2567 -1.1283
77942SOL    HW245806   3.275  10.088   9.798  0.0570  0.4987 -1.9513
77943SOL     OW45807  10.929  12.038   4.984 -0.1114 -0.1784 -0.3141
77943SOL    HW145808  11.011  12.086   4.972  0.0477 -0.0525  1.0897
77943SOL    HW245809  10.946  11.951   4.948  0.2540  0.2010 -1.0674
77944SOL     OW45810   9.255   7.081   6.681 -0.2000  0.8399 -0.2336
77944SOL    HW145811   9.221   7.161   6.640  0.8245  0.7549 -1.2863
77944SOL    HW245812   9.326   7.111   6.738 -0.7812  0.8118  0.5381
77945SOL     OW45813   7.485   8.293   8.097  0.0335  0.1694  0.4787
77945SOL    HW145814   7.559   8.316   8.153  1.0835  2.2201 -1.5996
77945SOL    HW245815   7.524   8.258   8.017 -1.2321  0.5909 -0.3671
77946SOL     OW45816   8.009   7.836  14.014 -0.0941 -0.2717 -0.3840
77946SOL    HW145817   8.054   7.914  14.047  0.3136 -1.2835  1.6494
77946SOL    HW245818   8.071   7.794  13.955  0.3431  0.0863 -0.1803
77947SOL     OW45819  12.038   0.591   6.329 -0.2037  0.3980 -0.0614
77947SOL    HW145820  12.115   0.552   6.288  0.2040  0.4630  0.6214
77947SOL    HW245821  12.060   0.683   6.340  0.9654 -0.1176  3.0136
77948SOL     OW45822   6.561   0.802   9.029 -0.6982 -0.3112 -0.0740
77948SOL    HW145823   6.654   0.812   9.006 -0.3897 -1.5604  0.5423
77948SOL    HW245824   6.562   0.750   9.109 -1.9462 -0.3382 -0.0641
77949SOL     OW45825   8.220  13.100   9.085  0.2510 -0.3886  0.1141
77949SOL    HW145826   8.197  13.139   9.169  1.8251  2.3539 -0.6151
77949SOL    HW245827   8.142  13.111   9.030 -0.7343 -2.0705  1.0959
77950SOL     OW45828  11.757   2.193   0.681 -0.3872  0.2828 -0.5494
77950SOL    HW145829  11.667   2.223   0.671  0.0513  1.7081 -0.4137
77950SOL    HW245830  11.810   2.264   0.645  0.6758 -0.7128 -1.0144
77951SOL     OW45831  13.758   3.670   7.055 -0.3990 -0.1477 -0.0850
77951SOL    HW145832  13.821   3.692   7.123  0.7746 -3.5253  0.1178
77951SOL    HW245833  13.803   3.607   7.000 -2.4216  0.0420 -2.1111
77952SOL     OW45834   9.273  12.194  14.020  0.3655 -0.0843  0.5747
77952SOL    HW145835   9.275  12.269  13.960 -0.2685  0.6846  1.4730
77952SOL    HW245836   9.188  12.152  14.004  0.7077 -0.6043  0.0928
77953SOL     OW45837   1.618   6.948   1.924 -0.4157 -0.0345  0.0349
77953SOL    HW145838   1.652   6.939   1.835 -0.3999 -1.1159  0.1417
77953SOL    HW245839   1.531   6.907   1.922 -1.1339  1.4091  0.1233
77954SOL     OW45840   9.579   4.812   4.139 -0.1929 -0.6093 -0.0090
77954SOL    HW145841   9.607   4.721   4.138  1.7359 -0.0725 -0.9647
77954SOL    HW245842   9.626   4.852   4.065 -0.8630  1.1793  0.4851
77955SOL     OW45843   7.333   8.108   2.225  0.2245  0.1518 -0.2217
77955SOL    HW145844   7.256   8.072   2.270  1.7005 -1.1024  1.3982
77955SOL    HW245845   7.382   8.031   2.196  1.3003  0.9158 -0.4989
77956SOL     OW45846  10.085   5.606  10.816  0.0620 -0.0000  0.5258
77956SOL    HW145847  10.040   5.527  10.846  0.2253 -0.0539  0.6287
77956SOL    HW245848  10.177   5.581  10.813 -0.1356 -0.6806 -2.0937
77957SOL     OW45849  11.434  13.918   1.419  0.2256  0.2187 -0.8832
77957SOL    HW145850  11.407  13.884   1.504  0.1228 -0.5265 -1.2042
77957SOL    HW245851  11.373  13.990   1.401 -2.2535 -1.9711 -1.9922
77958SOL     OW45852   0.898   4.479  11.356 -0.6447  0.0647 -0.0838
77958SOL    HW145853   0.959   4.458  11.285 -0.7797  1.8573 -0.7641
77958SOL    HW245854   0.914   4.411  11.421  0.4154 -0.8650 -1.2560
77959SOL     OW45855   0.352   1.294   1.410 -0.2318  0.2776  0.0397
77959SOL    HW145856   0.425   1.263   1.464  0.0589 -1.4211 -1.2377
77959SOL    HW245857   0.364   1.389   1.406  1.5200  0.1051  0.3991
77960SOL     OW45858   9.014  11.012  12.875 -0.2680  0.0597  0.1871
77960SOL    HW145859   8.964  11.029  12.954 -1.4413 -0.6254 -0.3747
77960SOL    HW245860   8.957  10.955  12.822  1.2176 -1.0219 -0.3447
77961SOL     OW45861   0.735   6.170   8.908 -0.0623 -0.3218 -0.6063
77961SOL    HW145862   0.746   6.229   8.982  0.7051 -1.2095  0.0075
77961SOL    HW245863   0.812   6.114   8.909  0.3690  0.1548 -2.5783
77962SOL     OW45864  13.355   7.799  10.929  0.1218 -0.5396  0.2757
77962SOL    HW145865  13.446   7.826  10.941 -0.4611  1.3124  0.8484
77962SOL    HW245866  13.346   7.720  10.983  1.3458 -0.6964  0.2851
77963SOL     OW45867   0.308  13.514   1.685 -0.1605  0.2667 -0.0331
77963SOL    HW145868   0.395  13.549   1.670  0.1485 -0.8109 -0.8748
77963SOL    HW245869   0.251  13.591   1.689  0.3677  0.8886 -2.6513
77964SOL     OW45870  13.775   1.058   3.900  0.1772 -0.0098  0.2838
77964SOL    HW145871  13.746   1.044   3.810  0.9379 -0.1157  0.0539
77964SOL    HW245872  13.854   1.112   3.892  0.3954 -0.2378  0.8750
77965SOL     OW45873   7.709  10.372   0.705 -0.1718  0.2093  0.4509
77965SOL    HW145874   7.784  10.398   0.650  1.4040  0.0900  2.4438
77965SOL    HW245875   7.634  10.411   0.662  1.3368  2.5382 -0.2529
77966SOL     OW45876  10.778   4.855   2.624  0.1238  0.1538  0.3279
77966SOL    HW145877  10.850   4.912   2.649 -0.1891  0.5554  0.3355
77966SOL    HW245878  10.721   4.911   2.570  1.5339 -1.0489 -2.6107
77967SOL     OW45879   4.007   0.891   6.799 -0.0456  0.4626  0.1204
77967SOL    HW145880   3.985   0.964   6.741 -2.3948 -0.8512 -0.7526
77967SOL    HW245881   3.931   0.883   6.857  0.0994 -1.3810  0.1018
77968SOL     OW45882   6.025   7.935  11.085 -0.1506  0.7081 -0.3982
77968SOL    HW145883   5.985   8.010  11.042 -1.4735 -0.1241 -0.6800
77968SOL    HW245884   6.073   7.890  11.016 -0.6781  0.4290 -0.5861
77969SOL     OW45885   7.995  12.755  10.915  0.1440 -0.3395  0.0832
77969SOL    HW145886   7.902  12.736  10.903  0.0374 -0.2219  0.6673
77969SOL    HW245887   8.040  12.682  10.873 -0.1518  0.5800 -1.9506
77970SOL     OW45888   9.567  11.470  13.871  0.1016 -0.5617 -0.5084
77970SOL    HW145889   9.588  11.466  13.778  0.8803  0.5980 -0.3956
77970SOL    HW245890   9.592  11.558  13.898 -0.4989 -0.7412  0.7146
77971SOL     OW45891   4.985   5.505  10.816  0.0248  0.5193 -0.1120
77971SOL    HW145892   5.071   5.527  10.852  0.6320 -0.5566 -0.8264
77971SOL    HW245893   4.933   5.479  10.892  1.0816 -1.0928  0.1138
77972SOL     OW45894  10.516  10.101  10.557 -0.2287 -0.0718 -0.3524
77972SOL    HW145895  10.465  10.165  10.507 -0.9427 -0.7099 -0.4397
77972SOL    HW245896  10.463  10.022  10.557 -0.8194  0.2399  2.4365
77973SOL     OW45897   5.559   6.667   7.881  0.1770  0.0107 -0.2896
77973SOL    HW145898   5.525   6.704   7.963  0.0316 -0.2910 -0.2119
77973SOL    HW245899   5.652   6.691   7.881  0.0529  0.5060 -0.3162
77974SOL     OW45900  11.096   6.791   0.994  1.1020 -0.4708  0.1311
77974SOL    HW145901  11.070   6.858   0.930  1.9717 -0.1765  0.0773
77974SOL    HW245902  11.168   6.831   1.042 -0.0946 -0.3248  1.9113
77975SOL     OW45903  13.717  11.069  13.784 -0.0108  0.1803 -0.2067
77975SOL    HW145904  13.764  11.149  13.811 -1.2995  1.2257 -0.9237
77975SOL    HW245905  13.786  11.004  13.772  0.9272  0.5438  2.4047
77976SOL     OW45906   6.899   3.695   9.212  0.0398  0.0022  0.2237
77976SOL    HW145907   6.846   3.623   9.246 -1.8592  1.0757 -0.3634
77976SOL    HW245908   6.872   3.705   9.121  2.7003 -0.6682 -0.7375
77977SOL     OW45909   1.150   4.568   1.547 -0.0897 -0.2573 -0.1308
77977SOL    HW145910   1.170   4.547   1.456 -0.7064 -0.7038 -0.1674
77977SOL    HW245911   1.082   4.505   1.572  2.8709 -2.9875  1.9272
77978SOL     OW45912   7.389   4.860  10.790 -0.0578 -0.3052 -0.8302
77978SOL    HW145913   7.474   4.898  10.814 -0.0597 -0.5180 -0.4729
77978SOL    HW245914   7.360   4.911  10.715 -0.1801  0.5964 -0.1978
77979SOL     OW45915   9.586  10.979   8.031  0.0122  0.0973 -0.2750
77979SOL    HW145916   9.599  11.068   7.997 -0.6026  0.5299  0.5609
77979SOL    HW245917   9.670  10.936   8.018  0.9045  1.3770  0.8996
77980SOL     OW45918  10.736   7.454   7.765  0.7253  0.3622 -0.8071
77980SOL    HW145919  10.726   7.534   7.713  0.4540  0.2254 -0.9716
77980SOL    HW245920  10.764   7.484   7.851  0.7217  0.6263 -0.8962
77981SOL     OW45921   7.882   0.631  10.857 -0.8118  0.1110  0.6110
77981SOL    HW145922   7.959   0.653  10.806 -1.5044 -0.8360 -0.9151
77981SOL    HW245923   7.812   0.622  10.792 -1.6393 -1.5163  1.6677
77982SOL     OW45924  12.560  13.631   3.124  0.4456 -0.0375 -0.7290
77982SOL    HW145925  12.515  13.618   3.041 -0.4407 -0.1083 -0.2461
77982SOL    HW245926  12.494  13.615   3.191  0.9965  0.5797 -0.0104
77983SOL     OW45927   2.260   8.622  11.049  0.3899 -0.2171  0.6041
77983SOL    HW145928   2.220   8.589  10.969 -0.1232  1.1394  0.2729
77983SOL    HW245929   2.301   8.545  11.089 -3.0867 -1.9068  1.3377
77984SOL     OW45930  10.545   3.616  13.013  0.5812  0.2224 -0.3043
77984SOL    HW145931  10.582   3.540  12.969 -1.0391  0.9237 -3.1569
77984SOL    HW245932  10.482   3.580  13.075  0.3508 -0.8070 -1.1072
77985SOL     OW45933   7.786   9.966  13.248 -0.0131  0.2306 -0.0656
77985SOL    HW145934   7.785  10.039  13.311 -0.9089  0.7886 -0.7070
77985SOL    HW245935   7.735   9.998  13.174  1.8725 -0.0370 -1.5442
77986SOL     OW45936   2.378   5.980  12.958 -0.4016  0.3626  0.3379
77986SOL    HW145937   2.374   5.957  12.866 -1.3905  1.1718  0.1589
77986SOL    HW245938   2.340   6.068  12.963 -2.1907 -0.4241  1.7487
77987SOL     OW45939  11.843  11.231   9.731 -0.0655 -0.0392  0.3617
77987SOL    HW145940  11.861  11.297   9.797  0.7721  0.4995 -0.3785
77987SOL    HW245941  11.778  11.271   9.673  0.4988  0.1788 -0.1309
77988SOL     OW45942   5.763   5.615   5.560  0.7254  0.2677 -0.4958
77988SOL    HW145943   5.754   5.679   5.489  0.2323 -0.2528 -0.9105
77988SOL    HW245944   5.677   5.614   5.603  0.4099 -0.8036 -1.0991
77989SOL     OW45945   4.955  13.705   4.523 -0.1636 -0.5261  0.0133
77989SOL    HW145946   4.914  13.771   4.466 -0.7315 -0.3449  0.6284
77989SOL    HW245947   5.011  13.756   4.581 -0.5539 -0.5822  0.4469
77990SOL     OW45948   6.388  12.151   8.997  0.2340 -0.6315  0.7507
77990SOL    HW145949   6.402  12.245   8.983  0.7538 -0.8836 -0.5560
77990SOL    HW245950   6.302  12.135   8.958  0.9237 -1.0073 -0.6971
77991SOL     OW45951  11.686   9.113  13.159 -0.2661  0.0964  0.1621
77991SOL    HW145952  11.650   9.168  13.228  0.8524 -1.7501  2.3663
77991SOL    HW245953  11.750   9.057  13.204  0.4495 -1.2767 -2.3729
77992SOL     OW45954   9.419  10.527   7.312  0.4544  0.3951  0.2343
77992SOL    HW145955   9.488  10.536   7.378  1.1819 -1.7612 -0.1297
77992SOL    HW245956   9.383  10.439   7.328  0.6648 -0.1997 -2.2078
77993SOL     OW45957   1.328   5.436   1.858 -0.2011 -0.7032 -0.9193
77993SOL    HW145958   1.272   5.453   1.783  1.3984 -0.9531 -2.2307
77993SOL    HW245959   1.360   5.347   1.845  0.9142 -0.3855 -0.5067
77994SOL     OW45960   4.397   7.034  11.115  0.0975  0.3012  0.2137
77994SOL    HW145961   4.455   7.097  11.073 -0.1518 -0.2276 -0.9764
77994SOL    HW245962   4.345   6.998  11.043 -0.8927 -0.0804  1.0936
77995SOL     OW45963   0.549   6.464   5.195 -0.0449  0.3086  0.0886
77995SOL    HW145964   0.645   6.470   5.198  0.3725 -1.5836 -3.2630
77995SOL    HW245965   0.527   6.396   5.258  0.9853  0.0190  0.1528
77996SOL     OW45966   0.945   6.100   1.516 -0.2116  0.4831  0.2156
77996SOL    HW145967   0.923   6.119   1.425  2.4147  0.6813 -0.4627
77996SOL    HW245968   0.988   6.014   1.512  1.6422  1.3249  0.9290
77997SOL     OW45969   6.013   3.275   4.585 -0.2288 -0.5845 -0.2041
77997SOL    HW145970   6.035   3.313   4.501  0.1510 -0.7036 -0.1573
77997SOL    HW245971   6.072   3.317   4.647 -3.8609  3.5555  0.9525
77998SOL     OW45972  11.597   9.072   6.387 -0.6765  0.1454  0.1189
77998SOL    HW145973  11.638   9.056   6.472  0.3526  0.3079 -0.3300
77998SOL    HW245974  11.668   9.063   6.324 -1.9641 -3.1401 -1.0899
77999SOL     OW45975  12.254   0.990   7.101  0.1882  0.0058 -0.2335
77999SOL    HW145976  12.234   0.941   7.181  2.2295  0.7998  0.8597
77999SOL    HW245977  12.316   1.057   7.130 -1.6489  2.5750 -1.8610
78000SOL     OW45978   5.686   7.446   3.135  0.5935  0.2031  0.1299
78000SOL    HW145979   5.617   7.450   3.201 -0.1739  0.1224 -0.6433
78000SOL    HW245980   5.742   7.521   3.154  0.7350 -0.1740  1.2459
78001SOL     OW45981   6.343   3.514   6.292  0.2759 -0.5765 -0.2813
78001SOL    HW145982   6.264   3.567   6.286  0.8911  0.2213 -1.8952
78001SOL    HW245983   6.341   3.458   6.215  1.8101  0.2405 -0.9558
78002SOL     OW45984  13.552  11.908   9.432  0.0958 -0.5997 -0.4404
78002SOL    HW145985  13.466  11.937   9.464 -0.6952 -2.7054 -0.5215
78002SOL    HW245986  13.532  11.856   9.354  1.0557 -3.9925  1.4076
78003SOL     OW45987  11.131  11.182   9.301 -0.2733  0.2590  0.6514
78003SOL    HW145988  11.131  11.158   9.394  0.6563  0.1773  0.6383
78003SOL    HW245989  11.044  11.219   9.286 -0.8153 -0.7007  1.2976
78004SOL     OW45990   9.387   3.178  11.476 -0.6417 -0.0597  0.0858
78004SOL    HW145991   9.294   3.182  11.501 -0.7468  0.7846 -0.3958
78004SOL    HW245992   9.397   3.093  11.433 -1.0947 -0.3275  0.4961
78005SOL     OW45993  13.500   6.979   3.901  0.2347 -0.4792 -0.0221
78005SOL    HW145994  13.535   7.059   3.941 -1.3510  0.5180 -0.5123
78005SOL    HW245995  13.520   6.987   3.808 -0.2142 -0.4893 -0.1222
78006SOL     OW45996   2.162   5.044   1.365  0.0740  0.4392  0.1488
78006SOL    HW145997   2.167   4.952   1.392 -1.0709  0.3963  0.2489
78006SOL    HW245998   2.208   5.047   1.281 -0.9597 -0.4885 -0.4729
78007SOL     OW45999   7.081  11.027   0.223  0.0807  0.0657  0.0201
78007SOL    HW146000   7.134  11.090   0.272  0.6907 -0.9911  0.7507
78007SOL    HW246001   7.139  10.995   0.154 -0.0501 -0.1219 -0.0029
78008SOL     OW46002  11.283   5.188  11.296 -0.5245 -0.3924 -0.3941
78008SOL    HW146003  11.214   5.132  11.330 -0.2346 -0.1996  0.5384
78008SOL    HW246004  11.364   5.139  11.311 -0.2704  0.2657  0.4178
78009SOL     OW46005  13.639   2.357   8.308 -0.3317  0.2651 -0.2938
78009SOL    HW146006  13.546   2.375   8.295 -0.6000 -1.9434 -1.8248
78009SOL    HW246007  13.648   2.347   8.403 -1.5988  0.6372 -0.1128
78010SOL     OW46008   4.750   1.023   2.997  0.2502 -0.1250  0.8455
78010SOL    HW146009   4.813   1.022   3.068  0.3046  1.3762  0.8591
78010SOL    HW246010   4.801   1.002   2.919 -0.0702 -3.2956  1.3459
78011SOL     OW46011   9.122   9.803  12.340  0.2742 -0.1798 -0.3024
78011SOL    HW146012   9.152   9.806  12.431  3.1556  0.6437 -1.1822
78011SOL    HW246013   9.103   9.894  12.317  4.1258  0.4596 -1.7575
78012SOL     OW46014   6.440   9.773   4.219 -0.0675  0.5326 -0.4259
78012SOL    HW146015   6.480   9.848   4.177 -0.3986  1.5004  0.9071
78012SOL    HW246016   6.379   9.811   4.282 -0.2405 -0.8554  0.2807
78013SOL     OW46017   7.545   1.045   5.299  0.0606  0.4000 -0.6464
78013SOL    HW146018   7.620   0.993   5.272  0.0051  0.6572 -1.3212
78013SOL    HW246019   7.488   1.046   5.222 -0.0941  1.1646 -0.5314
78014SOL     OW46020   3.472   2.998   5.412 -0.2426  0.1229 -0.7983
78014SOL    HW146021   3.427   2.928   5.459  0.5486 -0.0827 -0.3336
78014SOL    HW246022   3.411   3.072   5.415 -0.9502 -0.4421 -1.0142
78015SOL     OW46023   9.036   3.006   3.000  0.3138  0.2278 -0.0736
78015SOL    HW146024   8.950   2.990   3.038  0.3380 -1.1296 -0.5365
78015SOL    HW246025   9.050   2.933   2.939  0.7192  1.7505 -1.9028
78016SOL     OW46026  10.441   5.890   5.984  0.1794 -0.0685  0.4691
78016SOL    HW146027  10.520   5.943   5.993 -0.1719  0.7778 -1.0476
78016SOL    HW246028  10.423   5.858   6.073  2.7194 -1.0899  0.6712
78017SOL     OW46029   7.727   6.374  10.053 -0.8265  0.0156 -0.7384
78017SOL    HW146030   7.642   6.398  10.014 -1.6408 -0.2179  0.8176
78017SOL    HW246031   7.763   6.458  10.084  0.5832  0.4539 -3.3160
78018SOL     OW46032   1.488  11.070   0.756 -0.8647 -0.1254  0.1408
78018SOL    HW146033   1.527  11.029   0.679 -1.4109 -0.4964  0.0650
78018SOL    HW246034   1.481  11.163   0.732  1.5874  0.3081  0.7966
78019SOL     OW46035  10.351  12.272   2.745  0.0307  0.1726 -0.6578
78019SOL    HW146036  10.300  12.353   2.738  0.5543  0.7144  1.1701
78019SOL    HW246037  10.314  12.227   2.821  0.4802 -0.7691 -0.9795
78020SOL     OW46038  12.619   6.169  10.676  0.1769  0.0988 -1.1090
78020SOL    HW146039  12.709   6.199  10.691 -0.3145  0.5253  1.4921
78020SOL    HW246040  12.582   6.159  10.764 -1.5719 -2.4781 -2.0099
78021SOL     OW46041   5.480   0.089   6.721 -0.2961 -0.3488 -1.0095
78021SOL    HW146042   5.561   0.046   6.750 -0.0930  1.3780  1.2906
78021SOL    HW246043   5.478   0.076   6.626  2.5111 -0.7332 -1.0890
78022SOL     OW46044   1.093   7.802  10.682 -0.5621 -0.1299  0.4883
78022SOL    HW146045   1.103   7.775  10.774 -1.9037 -1.2625  0.3382
78022SOL    HW246046   1.110   7.723  10.632 -2.4560 -0.2469 -0.0797
78023SOL     OW46047   4.906  11.298   0.213 -0.4805  0.1404  0.5636
78023SOL    HW146048   4.921  11.216   0.166 -0.8707 -0.1811  0.9885
78023SOL    HW246049   4.954  11.364   0.162 -0.1704 -0.3456  0.2128
78024SOL     OW46050  10.669  13.066  12.071  0.1486  0.0494 -0.4407
78024SOL    HW146051  10.598  13.037  12.013 -0.6468 -0.9786  0.9888
78024SOL    HW246052  10.737  13.000  12.061  0.3364  0.2851 -0.7562
78025SOL     OW46053   6.564   6.437   5.362 -0.2345  0.2492 -0.3056
78025SOL    HW146054   6.582   6.481   5.279  2.1660 -1.3518 -0.7134
78025SOL    HW246055   6.510   6.361   5.339 -0.4191  0.3597 -0.2443
78026SOL     OW46056   1.418   2.487   9.543 -0.8320 -0.0652 -0.2773
78026SOL    HW146057   1.426   2.508   9.636  2.2853  2.7814 -1.0054
78026SOL    HW246058   1.356   2.551   9.508 -2.8007 -1.7707 -0.1066
78027SOL     OW46059  12.818   9.854   4.043  0.0936  0.3980  0.1308
78027SOL    HW146060  12.727   9.883   4.052 -0.0354 -0.1172  0.4791
78027SOL    HW246061  12.813   9.759   4.039  0.6623  0.3400  0.7178
78028SOL     OW46062   7.894   6.646   9.978  0.1157 -0.5880  0.7102
78028SOL    HW146063   7.834   6.688   9.917  0.3016 -2.0160 -0.5098
78028SOL    HW246064   7.957   6.599   9.923  2.6291  1.1267  1.9325
78029SOL     OW46065  13.026   6.527   4.438  0.4888 -0.0723 -0.3618
78029SOL    HW146066  13.013   6.612   4.397 -1.2012  0.0404  0.3083
78029SOL    HW246067  13.119   6.523   4.457  0.5650  1.7260 -0.2127
78030SOL     OW46068   4.809   9.305  11.649 -0.0815 -0.1030 -0.0466
78030SOL    HW146069   4.901   9.313  11.672 -0.1641  1.1712 -0.0539
78030SOL    HW246070   4.808   9.267  11.562  0.4693  0.2975 -0.2327
78031SOL     OW46071  13.143  11.412   0.847 -0.2098  0.6323 -0.6604
78031SOL    HW146072  13.190  11.360   0.912 -0.8285  0.8839 -0.0095
78031SOL    HW246073  13.196  11.492   0.838  0.4169  0.1745 -1.2257
78032SOL     OW46074   1.711  10.445   4.394  0.8397  0.5824 -0.0049
78032SOL    HW146075   1.627  10.448   4.440 -0.3991  1.8319 -2.1837
78032SOL    HW246076   1.691  10.473   4.305  3.0875 -1.8914 -1.4221
78033SOL     OW46077  12.697   5.756  11.249 -0.1519 -0.5972 -0.2901
78033SOL    HW146078  12.696   5.810  11.171 -0.0355 -1.4430 -0.8857
78033SOL    HW246079  12.781   5.775  11.292 -0.3970  0.1758 -0.1417
78034SOL     OW46080   9.716   3.967   8.373 -0.1708  0.0526 -0.6087
78034SOL    HW146081   9.739   4.058   8.393  2.1345 -0.6881  0.5038
78034SOL    HW246082   9.678   3.934   8.455 -0.9699 -0.0266 -1.0005
78035SOL     OW46083   5.154   2.962   5.913 -0.2639  0.0272  0.0292
78035SOL    HW146084   5.116   2.943   5.998 -1.3677 -1.8674 -0.8264
78035SOL    HW246085   5.231   2.906   5.908  0.1985  0.6533  0.0481
78036SOL     OW46086   1.456  12.480  11.839 -0.0974  0.1061  0.1792
78036SOL    HW146087   1.373  12.434  11.852  0.0915 -0.4528 -0.4914
78036SOL    HW246088   1.433  12.560  11.792 -0.1030 -0.8513 -1.5410
78037SOL     OW46089  11.697   5.879   9.629  0.0046 -0.3825 -0.0837
78037SOL    HW146090  11.606   5.853   9.617  0.4841 -2.3660  0.2563
78037SOL    HW246091  11.692   5.972   9.652 -1.8490 -0.2127 -1.0029
78038SOL     OW46092   9.708   6.142   7.644  0.1572 -0.5532 -0.0081
78038SOL    HW146093   9.681   6.052   7.659 -1.3445 -0.0060  0.7308
78038SOL    HW246094   9.715   6.149   7.548  1.6895 -1.8072 -0.0202
78039SOL     OW46095   8.579   3.579   2.293 -0.3161  0.4796  0.1842
78039SOL    HW146096   8.673   3.593   2.302 -0.2000  1.6715 -2.1337
78039SOL    HW246097   8.572   3.517   2.220 -1.3403 -0.0663  0.7252
78040SOL     OW46098  11.929  13.230  12.970 -0.0024  0.1698  0.3964
78040SOL    HW146099  11.887  13.143  12.971 -0.9675  0.5757 -1.1518
78040SOL    HW246100  11.873  13.282  12.913  1.7456  1.2134 -0.4362
78041SOL     OW46101  12.716   9.198   1.072 -0.4722  0.4530  0.5651
78041SOL    HW146102  12.685   9.180   1.161  0.3813 -1.0981  0.5712
78041SOL    HW246103  12.699   9.118   1.023  0.6157  0.6888 -0.2308
78042SOL     OW46104   4.105   4.274  12.770  0.2016 -0.2700  0.0475
78042SOL    HW146105   4.149   4.343  12.821 -0.2241  0.8529 -1.0309
78042SOL    HW246106   4.082   4.207  12.834  3.3195 -0.8725  0.7244
78043SOL     OW46107   7.493  10.827   8.041  0.6268  0.6263  0.1501
78043SOL    HW146108   7.449  10.858   7.962  2.6114  1.2599 -0.7850
78043SOL    HW246109   7.425  10.828   8.108 -1.6161 -1.6462 -1.8735
78044SOL     OW46110   1.191   2.709   2.471  0.2531  0.5889 -0.2133
78044SOL    HW146111   1.218   2.766   2.543  1.1756  3.1805 -2.4201
78044SOL    HW246112   1.266   2.651   2.456  0.3491  0.5495  0.4164
78045SOL     OW46113   7.556   9.929   5.757  0.6105 -0.0185  0.2759
78045SOL    HW146114   7.512   9.889   5.681 -0.8644  1.7864  0.1056
78045SOL    HW246115   7.490   9.988   5.794  2.6194  2.1636  0.5505
78046SOL     OW46116   9.266   8.698   5.369 -0.0041  0.3457  0.3300
78046SOL    HW146117   9.191   8.641   5.351  0.2844  0.3042 -0.8721
78046SOL    HW246118   9.251   8.774   5.313  0.6976  0.4739  0.3086
78047SOL     OW46119  10.760  13.919  10.325  0.1505 -0.1298  0.4479
78047SOL    HW146120  10.835  13.933  10.382 -0.5253 -0.5132  1.4456
78047SOL    HW246121  10.795  13.869  10.251  1.1845  1.0077  0.1371
78048SOL     OW46122  10.066  12.819   6.045 -0.3544  0.2424  0.0371
78048SOL    HW146123  10.010  12.769   5.985  1.3249 -1.3816 -0.2625
78048SOL    HW246124  10.125  12.868   5.988  1.6747 -1.7976  0.2499
78049SOL     OW46125   8.750   9.347   5.252 -0.4235 -0.5246  0.4913
78049SOL    HW146126   8.658   9.322   5.249 -1.0236  1.5888 -1.2724
78049SOL    HW246127   8.783   9.329   5.165  0.3198  0.4219  0.5629
78050SOL     OW46128  13.248  12.372   9.796  0.8075 -0.1188  0.7494
78050SOL    HW146129  13.254  12.399   9.888 -0.5157  0.2853  0.7409
78050SOL    HW246130  13.221  12.280   9.799  0.3676  0.0115  0.7632
78051SOL     OW46131  13.780   7.876   5.722 -0.1570  1.0639  0.2391
78051SOL    HW146132  13.825   7.794   5.700 -0.0831  1.1274  0.1560
78051SOL    HW246133  13.792   7.932   5.645  1.3360  1.8184  0.9789
78052SOL     OW46134   4.450  13.492   3.296 -0.0741  0.0729  0.7313
78052SOL    HW146135   4.456  13.587   3.308  2.1614  0.0777 -0.0889
78052SOL    HW246136   4.393  13.481   3.220  1.1995  0.8945 -0.3962
78053SOL     OW46137   7.946   9.889  12.497 -0.1289  0.3047 -0.0695
78053SOL    HW146138   7.935   9.964  12.438  0.2981  0.1506 -0.3480
78053SOL    HW246139   7.901   9.817  12.452  0.2022  0.1858 -0.2085
78054SOL     OW46140   0.397   2.705   3.082 -0.2361  1.0485  0.0473
78054SOL    HW146141   0.488   2.732   3.070 -0.2512  0.6899 -1.0073
78054SOL    HW246142   0.370   2.746   3.164  0.3927  2.4737 -0.4211
78055SOL     OW46143   2.080  13.316  13.147 -0.6481  0.1458 -0.0974
78055SOL    HW146144   2.050  13.330  13.237  0.4423  2.3756  0.0024
78055SOL    HW246145   2.164  13.271  13.157 -0.4249  0.5779  0.0497
78056SOL     OW46146  10.366   3.405   1.047 -0.5908  0.0250  0.1466
78056SOL    HW146147  10.273   3.380   1.050 -0.4207 -0.7778 -0.7432
78056SOL    HW246148  10.408   3.347   1.111 -0.6752  0.3048  0.4605
78057SOL     OW46149  13.788   5.577   8.006  0.3588 -0.6901  0.4566
78057SOL    HW146150  13.752   5.629   8.077  2.4844  1.0341  0.3724
78057SOL    HW246151  13.720   5.577   7.938 -0.5437  0.0945  1.3431
78058SOL     OW46152   8.604   4.746   3.122  0.0021 -0.0053  0.4540
78058SOL    HW146153   8.560   4.821   3.162  0.7897 -0.1519  1.6385
78058SOL    HW246154   8.623   4.688   3.195  1.8942 -0.0817 -0.0451
78059SOL     OW46155   4.080   0.788   9.097 -0.1357 -0.5456  0.2969
78059SOL    HW146156   4.160   0.839   9.103  0.1947 -0.8737 -1.0226
78059SOL    HW246157   4.057   0.789   9.004 -0.6519 -1.9892  0.3762
78060SOL     OW46158   9.122   3.875   5.907 -0.4277 -0.1666 -0.2705
78060SOL    HW146159   9.085   3.955   5.946  0.0111  0.0162 -0.2213
78060SOL    HW246160   9.123   3.892   5.813 -1.0823 -0.4350 -0.3286
78061SOL     OW46161  10.340  11.387   7.565 -0.0282  0.4282 -0.2305
78061SOL    HW146162  10.375  11.399   7.476  1.8616 -0.3355  0.3588
78061SOL    HW246163  10.260  11.336   7.553  0.2083  0.3277 -1.5028
78062SOL     OW46164   0.835   2.388   1.593 -0.1828 -0.0098  0.0140
78062SOL    HW146165   0.764   2.442   1.628  1.3536  2.2893 -0.1438
78062SOL    HW246166   0.822   2.302   1.633 -0.1221  1.6799  4.2204
78063SOL     OW46167   5.096   6.491  10.907 -0.2075  0.3631 -0.3396
78063SOL    HW146168   5.005   6.499  10.934 -0.6633 -0.9870 -1.3389
78063SOL    HW246169   5.100   6.540  10.825  0.3193  1.5475  0.3696
78064SOL     OW46170   3.118   3.253   1.598 -0.4714  0.1830  0.2681
78064SOL    HW146171   3.144   3.210   1.516 -1.5281 -0.0519  0.0454
78064SOL    HW246172   3.024   3.237   1.605 -0.6907  1.5589  0.7301
78065SOL     OW46173   9.762   1.834   7.363 -0.1172  0.9037 -0.3369
78065SOL    HW146174   9.857   1.823   7.367 -0.2124  0.1628  0.0208
78065SOL    HW246175   9.727   1.746   7.371 -0.8703  1.2760  0.7556
78066SOL     OW46176   0.510   5.168  13.069 -0.4705 -0.2081  0.0531
78066SOL    HW146177   0.458   5.230  13.019  0.1372 -0.5232 -1.0142
78066SOL    HW246178   0.575   5.221  13.114 -0.4903  0.0153 -0.1798
78067SOL     OW46179  11.497   2.746   4.673 -0.4005  0.9382 -0.3602
78067SOL    HW146180  11.572   2.695   4.643 -0.9076  0.1892 -0.3771
78067SOL    HW246181  11.422   2.705   4.630 -1.0055  0.6013  0.9949
78068SOL     OW46182   2.278   2.691  13.013 -0.5676  0.1137 -0.0913
78068SOL    HW146183   2.280   2.598  12.990 -0.5035  0.4571 -1.5826
78068SOL    HW246184   2.366   2.723  12.992 -0.0710  0.1858  1.9552
78069SOL     OW46185   3.567   8.447  13.892 -0.1186  0.3536 -0.1412
78069SOL    HW146186   3.643   8.460  13.949 -1.0026  1.5278  0.8273
78069SOL    HW246187   3.533   8.361  13.917  0.9138 -0.2200 -0.6404
78070SOL     OW46188   6.294   5.954  12.752 -0.0806 -0.5197 -0.4353
78070SOL    HW146189   6.253   6.041  12.746  1.4799  0.3551  0.8916
78070SOL    HW246190   6.240   5.907  12.815  0.8181  0.5895  1.2317
78071SOL     OW46191   9.186   5.568   0.674 -0.0276 -0.2331 -0.6862
78071SOL    HW146192   9.137   5.552   0.754 -0.8505 -0.3567 -1.1977
78071SOL    HW246193   9.231   5.651   0.690 -0.2694 -0.2022 -0.1350
78072SOL     OW46194   1.192  10.485  12.850 -0.0292 -0.4346 -0.1650
78072SOL    HW146195   1.172  10.401  12.891  1.5180 -1.5080 -1.5268
78072SOL    HW246196   1.152  10.480  12.763  1.7633 -0.6047 -1.0140
78073SOL     OW46197   7.879  14.003   5.692 -0.0121  0.3902 -0.2159
78073SOL    HW146198   7.911  13.921   5.655  0.3863  1.2637 -1.9301
78073SOL    HW246199   7.958  14.057   5.701 -0.1614  0.3523  1.6110
78074SOL     OW46200  10.319   7.146  12.540 -0.6546 -0.2906  0.0143
78074SOL    HW146201  10.240   7.134  12.592  0.3701 -1.3236  1.3918
78074SOL    HW246202  10.327   7.066  12.488 -0.2236 -0.4338  0.2939
78075SOL     OW46203   5.497  11.664   2.787 -0.2880 -0.2733 -0.6192
78075SOL    HW146204   5.588  11.666   2.818 -0.0183 -0.0575 -1.4017
78075SOL    HW246205   5.504  11.676   2.692 -1.1740  0.3168 -0.6193
78076SOL     OW46206   7.708  13.798   2.046 -0.2090  0.3459 -0.0399
78076SOL    HW146207   7.658  13.857   2.103  1.3044  1.0269  0.6472
78076SOL    HW246208   7.799  13.830   2.052  0.4440 -1.2808 -0.6617
78077SOL     OW46209   7.455   3.585  12.552  0.0453  0.6088 -0.6827
78077SOL    HW146210   7.473   3.583  12.646  0.1920 -2.8417 -0.6557
78077SOL    HW246211   7.364   3.558  12.544 -0.3452  2.0710 -1.5342
78078SOL     OW46212  13.877   4.632   4.274  0.0506  0.2441  0.2701
78078SOL    HW146213  13.876   4.710   4.330  0.8872 -0.8479  1.8767
78078SOL    HW246214  13.861   4.559   4.334 -1.0914 -0.8242 -1.2467
78079SOL     OW46215   1.957   7.472  12.052 -0.1392 -0.3840 -0.0316
78079SOL    HW146216   2.023   7.403  12.052 -0.4413 -0.6797 -0.2708
78079SOL    HW246217   1.879   7.430  12.089 -0.1564 -0.0060  0.3563
78080SOL     OW46218   2.765   9.279   0.561  0.2802 -0.0301  0.6933
78080SOL    HW146219   2.851   9.278   0.518 -0.7628  1.3690 -1.6239
78080SOL    HW246220   2.755   9.368   0.593 -0.8919  0.2666 -0.4246
78081SOL     OW46221   2.043   0.853  10.285  0.1621 -0.2693 -0.2466
78081SOL    HW146222   2.039   0.871  10.191 -0.6840  1.4874  0.0796
78081SOL    HW246223   2.129   0.887  10.312 -0.1492  0.4802 -0.1730
78082SOL     OW46224   4.020   1.579   9.009 -0.7346 -0.6417 -0.0178
78082SOL    HW146225   4.098   1.529   9.032 -0.0606 -0.0781 -1.0005
78082SOL    HW246226   4.007   1.639   9.084 -0.1555 -0.6573  0.1016
78083SOL     OW46227   0.604   1.182  13.754 -0.0675 -0.1413  0.0176
78083SOL    HW146228   0.558   1.101  13.776 -2.1243  0.7775 -0.6004
78083SOL    HW246229   0.617   1.178  13.660 -2.6977  1.3417 -0.5232
78084SOL     OW46230   1.960  12.906   3.195 -0.1114 -0.6345  0.6808
78084SOL    HW146231   2.031  12.886   3.255  0.1966  0.8167  0.8477
78084SOL    HW246232   1.931  12.821   3.161  1.0662 -1.3095  1.3278
78085SOL     OW46233  13.748   2.339   9.280 -0.5466  0.3739  0.0212
78085SOL    HW146234  13.810   2.364   9.212 -0.8117 -0.8954 -0.7090
78085SOL    HW246235  13.802   2.319   9.357 -0.0816 -0.2983 -0.4751
78086SOL     OW46236   0.727   3.636   8.016 -0.7593  0.4796  0.1924
78086SOL    HW146237   0.707   3.646   8.109 -2.3046 -2.5301  0.3314
78086SOL    HW246238   0.800   3.696   8.000  0.0896  0.5309  3.5340
78087SOL     OW46239  10.055   6.828   8.719  0.0562 -0.0069 -0.6017
78087SOL    HW146240  10.003   6.761   8.675  1.2102  0.0609 -2.1483
78087SOL    HW246241  10.144   6.793   8.719  0.6833  1.4806 -1.4371
78088SOL     OW46242  11.617   9.232   9.130 -0.7720 -0.3001 -0.4904
78088SOL    HW146243  11.659   9.317   9.148 -2.3272  0.5498 -0.6926
78088SOL    HW246244  11.536   9.255   9.084 -0.7955 -1.9641 -1.3578
78089SOL     OW46245  10.865   8.714   1.278 -0.6469  0.0132 -0.2974
78089SOL    HW146246  10.903   8.700   1.365 -0.4814 -0.7967 -0.4961
78089SOL    HW246247  10.771   8.718   1.293 -0.5749  0.6415  0.0160
78090SOL     OW46248  12.561  13.581  11.627  0.6055  0.0260 -0.1772
78090SOL    HW146249  12.655  13.566  11.639  0.8790 -0.3749 -2.3549
78090SOL    HW246250  12.539  13.530  11.549 -1.2189  0.9227 -0.2936
78091SOL     OW46251   1.718   8.056   3.577  0.2628 -0.2406 -0.2179
78091SOL    HW146252   1.748   8.098   3.657 -0.6755  0.4765 -0.2240
78091SOL    HW246253   1.742   7.963   3.588  2.3291  0.2488 -0.1972
78092SOL     OW46254  12.874   7.600   9.822 -0.0193 -0.1427 -0.3732
78092SOL    HW146255  12.819   7.678   9.824  0.4776  0.1977  1.9182
78092SOL    HW246256  12.963   7.634   9.810 -0.1245 -0.7034 -4.5055
78093SOL     OW46257   1.286   1.463  12.818 -0.4157 -0.1946 -0.0908
78093SOL    HW146258   1.248   1.493  12.735 -0.0698 -0.0598 -0.1994
78093SOL    HW246259   1.237   1.383  12.838  0.4038 -0.9859 -1.1166
78094SOL     OW46260   9.656   7.159   2.187  0.1941 -0.2390  0.4699
78094SOL    HW146261   9.712   7.176   2.263 -0.0946  0.2931  0.5691
78094SOL    HW246262   9.570   7.196   2.211  0.2635  0.5119 -0.3530
78095SOL     OW46263   1.537   5.511   4.266 -0.3227  0.1449 -0.4219
78095SOL    HW146264   1.578   5.597   4.263 -1.7090  0.8752  0.3282
78095SOL    HW246265   1.610   5.450   4.275  0.6078  1.3852  0.9509
78096SOL     OW46266   3.921  13.136  10.496  0.1117 -0.3956  0.4916
78096SOL    HW146267   3.826  13.147  10.501  0.2046 -0.0576  1.9577
78096SOL    HW246268   3.934  13.056  10.445 -0.9439 -0.2230 -0.0601
78097SOL     OW46269   7.183   8.788   5.637  0.1618 -0.0528 -0.5549
78097SOL    HW146270   7.142   8.772   5.722 -2.2735  1.5196 -1.3335
78097SOL    HW246271   7.261   8.839   5.657  0.5047 -1.0774  0.8330
78098SOL     OW46272   0.355   4.157   2.768 -0.0430 -0.1709  0.0207
78098SOL    HW146273   0.400   4.091   2.820 -2.0685 -1.9698 -0.3560
78098SOL    HW246274   0.271   4.169   2.812  0.1318  1.9518 -0.1285
78099SOL     OW46275   5.277   0.034  11.240  0.2313 -0.0970 -0.6274
78099SOL    HW146276   5.353   0.064  11.190  0.7499 -0.3738 -0.0193
78099SOL    HW246277   5.203   0.083  11.203  1.1195  2.4526  0.7586
78100SOL     OW46278   2.640   6.846   6.725  0.6104 -0.0941 -0.0732
78100SOL    HW146279   2.616   6.892   6.806  0.2077 -1.1035  0.3878
78100SOL    HW246280   2.558   6.809   6.692  1.0460 -1.1244 -0.0325
78101SOL     OW46281  13.895   2.930   9.887  0.1213  0.0946 -0.4906
78101SOL    HW146282  13.893   2.942   9.792 -1.8917 -1.6212 -0.7351
78101SOL    HW246283  13.949   2.852   9.900 -0.3020 -0.1678 -0.2987
78102SOL     OW46284  13.189   7.227   4.910  0.0165  0.5190  0.4567
78102SOL    HW146285  13.172   7.264   4.997  0.6916  0.9820  0.3967
78102SOL    HW246286  13.210   7.302   4.855  3.0287 -0.0032  0.7197
78103SOL     OW46287   6.918   8.229   0.091 -0.5252  0.1589  0.0658
78103SOL    HW146288   6.869   8.154   0.058 -0.1017  0.1313 -0.5307
78103SOL    HW246289   6.937   8.208   0.182  1.2859 -1.3839 -0.6082
78104SOL     OW46290  12.836   4.735   8.392 -0.4043 -0.7124  0.1229
78104SOL    HW146291  12.762   4.728   8.331  0.4600  1.8696 -1.3757
78104SOL    HW246292  12.833   4.825   8.423  1.0671 -1.0834  1.4560
78105SOL     OW46293   7.119   8.821  12.516  0.0393 -0.0988 -0.2584
78105SOL    HW146294   7.095   8.762  12.587  1.9237  0.9247  1.3340
78105SOL    HW246295   7.047   8.884  12.510 -0.6403 -0.8564 -0.0161
78106SOL     OW46296   7.525   7.115  12.007  0.2331  0.0338  0.3185
78106SOL    HW146297   7.577   7.040  12.037 -0.9784 -0.4455  1.3147
78106SOL    HW246298   7.577   7.154  11.937  2.1565 -0.1175  1.5954
78107SOL     OW46299   2.790  12.006  10.854 -0.8103  0.2679 -0.6845
78107SOL    HW146300   2.698  11.980  10.850 -0.7049  0.0186 -2.3742
78107SOL    HW246301   2.789  12.101  10.849 -0.9900  0.3305  0.2668
78108SOL     OW46302   1.447   2.466  11.999 -0.7664  0.4120  0.4645
78108SOL    HW146303   1.373   2.521  11.975 -0.4837  1.9705  2.7955
78108SOL    HW246304   1.514   2.528  12.029  0.0647 -1.1077  1.9102
78109SOL     OW46305   8.484  12.326   4.397  0.4094 -0.1282  0.2056
78109SOL    HW146306   8.471  12.234   4.376  0.7556 -0.3824  1.0893
78109SOL    HW246307   8.467  12.333   4.491  3.0108  0.1771  0.7338
78110SOL     OW46308   1.258  12.308   9.000  0.1256  0.0074  0.2794
78110SOL    HW146309   1.289  12.245   9.065 -2.2328  0.0741  1.5754
78110SOL    HW246310   1.263  12.393   9.044  0.7110  0.3749 -0.4791
78111SOL     OW46311  12.762   6.884  10.106 -0.8001  0.0446 -0.5763
78111SOL    HW146312  12.817   6.842  10.040 -0.1115  1.4102 -0.9195
78111SOL    HW246313  12.714   6.952  10.057 -0.1714  1.1741  0.3296
78112SOL     OW46314   7.585  13.904  12.473  0.2430 -0.0084  0.0038
78112SOL    HW146315   7.571  13.987  12.427 -1.4700  0.6678  1.6097
78112SOL    HW246316   7.531  13.841  12.425 -1.9267  0.7954  1.2160
78113SOL     OW46317   7.715   7.628   3.025 -0.0686  0.2229 -0.2356
78113SOL    HW146318   7.713   7.627   3.121 -1.4119 -1.8243 -0.2126
78113SOL    HW246319   7.661   7.703   3.000 -0.9502 -0.1001  0.6381
78114SOL     OW46320  11.650   8.854   8.276 -0.0043  0.1365 -0.4869
78114SOL    HW146321  11.563   8.893   8.272  0.2750  1.0482  1.2161
78114SOL    HW246322  11.634   8.760   8.284 -0.7662  0.1269 -1.8867
78115SOL     OW46323   0.253  10.941   4.475 -0.6393  0.3672 -0.4695
78115SOL    HW146324   0.211  10.862   4.509  0.1462 -0.5120 -1.4656
78115SOL    HW246325   0.283  10.988   4.552 -1.8206  0.1013  0.1753
78116SOL     OW46326   1.517  12.229   1.739  0.0089 -0.5463  0.1220
78116SOL    HW146327   1.427  12.256   1.721  0.4272  0.7632 -0.0886
78116SOL    HW246328   1.517  12.134   1.726 -1.2685 -0.5191 -0.1546
78117SOL     OW46329   4.289  10.863  12.482  0.2111  0.1698 -0.0419
78117SOL    HW146330   4.211  10.918  12.493 -0.1090 -0.1675 -0.5783
78117SOL    HW246331   4.278  10.793  12.545  0.3809  0.4533  0.3063
78118SOL     OW46332   6.796  12.559   6.916  0.0669  0.0562 -0.0816
78118SOL    HW146333   6.805  12.493   6.848  2.1316 -0.5660  0.7160
78118SOL    HW246334   6.860  12.627   6.893 -0.6550  0.8326  0.1526
78119SOL     OW46335   9.063   4.074   3.361  0.1808  0.6338 -0.2286
78119SOL    HW146336   8.994   4.122   3.407  0.3476  1.1492 -0.5068
78119SOL    HW246337   9.053   4.099   3.269 -0.8176 -1.1905 -0.6679
78120SOL     OW46338  10.527  13.118  11.227  0.1719 -0.6444  0.2937
78120SOL    HW146339  10.580  13.108  11.148 -0.5936 -1.6041 -0.1170
78120SOL    HW246340  10.583  13.085  11.297  0.7790  0.0258  0.1508
78121SOL     OW46341   8.172  12.999   5.823 -0.5619 -0.7614 -0.4942
78121SOL    HW146342   8.136  12.944   5.753 -1.5459 -1.2835  0.3954
78121SOL    HW246343   8.113  12.985   5.897  0.6620 -0.4820  0.5579
78122SOL     OW46344  13.543   7.717   5.333 -0.3700  0.2801 -0.4135
78122SOL    HW146345  13.567   7.704   5.425 -0.4952  1.5942 -0.1726
78122SOL    HW246346  13.522   7.629   5.301 -1.7956 -0.0356  1.2346
78123SOL     OW46347   2.626  12.928   9.331 -0.4023  0.2467 -0.1476
78123SOL    HW146348   2.690  12.972   9.275 -1.1418  0.6693 -0.6851
78123SOL    HW246349   2.670  12.848   9.359  0.2905  0.4363 -0.6586
78124SOL     OW46350   1.118   6.360   6.866  0.2903 -0.4715 -0.2628
78124SOL    HW146351   1.141   6.425   6.932 -1.0847 -1.2863  1.0748
78124SOL    HW246352   1.127   6.276   6.911 -1.5654 -1.0039 -0.8066
78125SOL     OW46353   0.041  12.970   3.079  0.5236 -0.0259  0.6960
78125SOL    HW146354  -0.037  13.012   3.116  0.7980  2.2057 -1.0557
78125SOL    HW246355   0.007  12.898   3.025 -0.1883 -0.0673  1.1893
78126SOL     OW46356   2.526  11.518   9.221 -0.7243 -0.2038  0.1817
78126SOL    HW146357   2.465  11.444   9.222 -0.9534 -0.0218 -0.0281
78126SOL    HW246358   2.483  11.585   9.273 -1.3013  0.3809 -0.9993
78127SOL     OW46359   1.710   2.497   1.095 -0.2371 -0.7132 -0.8095
78127SOL    HW146360   1.772   2.431   1.125  0.6804  0.9779  1.3650
78127SOL    HW246361   1.636   2.491   1.156 -0.1032  0.2626 -0.5202
78128SOL     OW46362   9.575  10.249  12.800 -0.1064 -0.2931  0.4216
78128SOL    HW146363   9.626  10.168  12.799 -1.5072 -1.2616  1.4318
78128SOL    HW246364   9.491  10.224  12.761 -0.1150  1.0374 -0.4663
78129SOL     OW46365   8.231  12.558   9.234  0.0179 -0.0409 -0.2987
78129SOL    HW146366   8.284  12.637   9.226  0.0780 -0.0315  0.1854
78129SOL    HW246367   8.248  12.510   9.153  1.3222 -0.3649  0.1285
78130SOL     OW46368  10.088   5.313   9.774  0.0013  0.1484 -0.0249
78130SOL    HW146369  10.145   5.281   9.704  0.9333  0.7397  0.4392
78130SOL    HW246370  10.112   5.261   9.850 -2.4116 -1.9149 -0.5411
78131SOL     OW46371  12.899   5.228   8.385  0.2836  0.6960  1.0911
78131SOL    HW146372  12.910   5.224   8.480 -3.9874  2.5554  1.9045
78131SOL    HW246373  12.876   5.319   8.367 -1.0175 -0.0180 -1.3642
78132SOL     OW46374   4.810  11.018  10.784  0.5715 -0.3989 -0.2513
78132SOL    HW146375   4.775  11.041  10.870  1.5494 -0.2737  0.1206
78132SOL    HW246376   4.740  11.041  10.723  0.0343 -0.0866  0.4683
78133SOL     OW46377   7.236  12.994   2.308  0.9127  0.8927 -0.1434
78133SOL    HW146378   7.169  12.984   2.240  0.3832 -0.2119  0.5111
78133SOL    HW246379   7.287  13.070   2.280  0.2329  0.9328 -1.3702
78134SOL     OW46380   2.868   4.575   4.633  0.6652  0.1085 -0.9518
78134SOL    HW146381   2.855   4.520   4.711  1.6558 -1.8637 -2.1078
78134SOL    HW246382   2.819   4.530   4.564  1.4168  0.7252 -1.9089
78135SOL     OW46383  13.116   6.290   0.127  0.2091 -0.2834  0.0090
78135SOL    HW146384  13.155   6.290   0.040 -0.7608  1.7275 -0.4995
78135SOL    HW246385  13.190   6.285   0.187  1.2646  2.3651 -0.9246
78136SOL     OW46386   4.689   1.860   5.762 -0.3955 -0.1868  0.3094
78136SOL    HW146387   4.748   1.911   5.707  0.6092 -1.1420  0.4661
78136SOL    HW246388   4.713   1.769   5.746 -0.3840 -0.5169  1.9682
78137SOL     OW46389  12.859  12.669  13.883 -0.0304 -0.2795 -0.1412
78137SOL    HW146390  12.857  12.729  13.958  0.5612  0.3157 -0.5907
78137SOL    HW246391  12.819  12.719  13.812  1.2794 -0.0882 -0.7544
78138SOL     OW46392   3.022  12.750   8.606 -0.4248  0.1387  0.4440
78138SOL    HW146393   3.097  12.810   8.601  0.5772 -1.1105  0.1458
78138SOL    HW246394   2.977  12.762   8.522 -0.5469  0.8402  0.5967
78139SOL     OW46395   3.546   0.337  12.128 -0.0179 -0.0743 -0.0060
78139SOL    HW146396   3.639   0.335  12.152 -0.0102  1.4391  0.2469
78139SOL    HW246397   3.500   0.341  12.212 -0.2316  0.5513 -0.1481
78140SOL     OW46398  13.728  14.001   8.388 -0.1432 -0.1852  0.7071
78140SOL    HW146399  13.783  13.976   8.462  0.8785 -0.3416 -0.0842
78140SOL    HW246400  13.674  13.924   8.370 -0.0039 -0.3352  0.9361
78141SOL     OW46401  10.430   1.540   2.645 -0.2658  0.5045 -0.5698
78141SOL    HW146402  10.352   1.565   2.694 -1.2399 -0.6059 -1.5128
78141SOL    HW246403  10.455   1.455   2.681  0.8186  1.0550  0.0451
78142SOL     OW46404   1.045  13.503   4.731 -0.2286  0.6253  0.1112
78142SOL    HW146405   1.033  13.441   4.802 -0.1155  0.2957 -0.1543
78142SOL    HW246406   1.122  13.554   4.756  1.1753 -0.9367 -0.7710
78143SOL     OW46407   0.782   2.656   0.446  0.3553 -0.5925 -0.5022
78143SOL    HW146408   0.746   2.604   0.374 -1.7779  1.0672 -0.7126
78143SOL    HW246409   0.715   2.653   0.514  1.4419 -0.4199  0.6268
78144SOL     OW46410   0.907   9.647   3.942 -1.0066  0.0979 -0.0793
78144SOL    HW146411   0.972   9.578   3.958 -2.6449 -1.1333  1.8349
78144SOL    HW246412   0.930   9.683   3.856  2.4566  0.1012  0.7262
78145SOL     OW46413  11.493   2.314   5.923 -0.1688  0.3246  0.6927
78145SOL    HW146414  11.434   2.335   5.851  0.5003  0.4156  0.1608
78145SOL    HW246415  11.531   2.398   5.949 -1.1495  0.4477  1.8359
78146SOL     OW46416   5.815   8.516   6.446  0.1702  0.1187  0.1402
78146SOL    HW146417   5.895   8.486   6.403  0.5688 -0.3794  1.1874
78146SOL    HW246418   5.843   8.590   6.500 -0.0246 -0.2265  0.7141
78147SOL     OW46419   9.317   3.889   9.471 -0.6744  0.0222 -0.1007
78147SOL    HW146420   9.363   3.837   9.405 -0.2016  0.4046 -0.0739
78147SOL    HW246421   9.259   3.946   9.421  0.1435  0.7577 -0.2221
78148SOL     OW46422   5.266   0.113  12.848  0.7181 -0.3102 -0.0225
78148SOL    HW146423   5.339   0.097  12.907  1.1735 -1.2194 -0.8071
78148SOL    HW246424   5.307   0.143  12.767  0.1286  0.4908 -0.0354
78149SOL     OW46425  11.414  10.497   5.171  0.9988  0.1459  0.5918
78149SOL    HW146426  11.413  10.402   5.157  1.3059  0.0723  1.0566
78149SOL    HW246427  11.403  10.534   5.083 -0.0364 -0.3123  0.5124
78150SOL     OW46428   2.332   1.265   6.788 -0.1587  0.4738 -0.0366
78150SOL    HW146429   2.250   1.274   6.836  0.3948 -2.8747  1.8640
78150SOL    HW246430   2.355   1.172   6.798  3.5867  1.1582 -0.9239
78151SOL     OW46431  10.281   3.729   5.757 -0.5320  0.0185  0.1608
78151SOL    HW146432  10.324   3.703   5.838 -1.3682 -1.4355  0.1711
78151SOL    HW246433  10.284   3.825   5.757  1.9720  0.0026  0.5241
78152SOL     OW46434   2.867   9.673   5.673  0.4660 -0.0135  0.3742
78152SOL    HW146435   2.772   9.681   5.679  0.3186  0.5817 -1.8637
78152SOL    HW246436   2.886   9.583   5.698 -0.9168 -0.7300 -1.0442
78153SOL     OW46437   5.051  11.587  12.492  0.2308  0.0534  0.7878
78153SOL    HW146438   5.121  11.636  12.449  1.2240 -0.6598  1.5484
78153SOL    HW246439   5.003  11.652  12.543  0.4712  0.5024  0.4462
78154SOL     OW46440  11.598   6.310   3.129  0.6734 -0.0611  0.3249
78154SOL    HW146441  11.534   6.270   3.189 -0.3061 -1.6460 -1.6613
78154SOL    HW246442  11.565   6.399   3.116 -0.1034 -0.2682  0.7895
78155SOL     OW46443   5.304   2.606  11.973 -0.1095 -0.4856 -0.2935
78155SOL    HW146444   5.322   2.575  11.883  0.1758 -0.2931 -0.3044
78155SOL    HW246445   5.311   2.701  11.967 -0.5289 -0.4453 -0.1578
78156SOL     OW46446   4.933  13.674   3.080  0.1304  0.0448  0.7934
78156SOL    HW146447   4.983  13.712   3.152 -1.5031  2.6869  0.6769
78156SOL    HW246448   4.877  13.745   3.050  0.5307 -1.0039 -2.9533
78157SOL     OW46449   5.635  13.628  10.141  0.2288 -0.5992 -0.4460
78157SOL    HW146450   5.601  13.700  10.195  0.0332 -1.8024  1.1189
78157SOL    HW246451   5.558  13.590  10.099  0.2225 -0.4492 -0.5706
78158SOL     OW46452   4.120   6.546  11.272  0.4392 -0.5923  0.1029
78158SOL    HW146453   4.192   6.528  11.332  1.1437  2.3394  0.2437
78158SOL    HW246454   4.161   6.549  11.185  1.1978  3.6897  0.4067
78159SOL     OW46455   2.373   1.557   8.047 -0.1249  1.0814  0.0850
78159SOL    HW146456   2.451   1.503   8.034  0.1320  1.1046  1.3590
78159SOL    HW246457   2.347   1.583   7.959  0.2074 -0.4674 -0.5023
78160SOL     OW46458   9.088   6.457   0.810 -0.3212  0.2889 -0.2327
78160SOL    HW146459   9.007   6.429   0.851 -0.4145  0.0822 -0.5510
78160SOL    HW246460   9.072   6.445   0.716  0.1017  0.1749 -0.2912
78161SOL     OW46461  11.301   5.958   8.085 -0.2389  0.7768  0.2548
78161SOL    HW146462  11.301   5.966   7.990  0.1859  1.9379  0.3358
78161SOL    HW246463  11.220   5.999   8.113 -0.1628  0.8069  0.4284
78162SOL     OW46464   4.989  11.876   1.430 -0.2330  0.0808  0.4114
78162SOL    HW146465   4.992  11.821   1.352 -0.2004  2.0441 -1.0590
78162SOL    HW246466   4.903  11.919   1.425  0.7850  2.1993 -0.0455
78163SOL     OW46467  10.353  13.806  10.028  0.0356  0.4817 -0.0758
78163SOL    HW146468  10.353  13.754   9.947 -1.4075 -1.9096  1.3323
78163SOL    HW246469  10.428  13.772  10.077  2.1286  3.2663 -1.0427
78164SOL     OW46470  10.924   4.524   8.178 -0.2799  0.3328 -0.3455
78164SOL    HW146471  11.019   4.537   8.172 -0.3455  0.2462 -2.1846
78164SOL    HW246472  10.903   4.465   8.105 -1.6402 -0.3256  0.5342
78165SOL     OW46473   5.587  11.779  13.041 -0.1907 -0.3317 -0.3134
78165SOL    HW146474   5.677  11.771  13.071 -0.2162 -0.3449 -0.2400
78165SOL    HW246475   5.543  11.831  13.109  0.2024  1.2941 -1.2558
78166SOL     OW46476   7.313   7.278  12.872  0.1909  0.4821 -0.2128
78166SOL    HW146477   7.233   7.321  12.900  0.0519  0.3327 -0.3781
78166SOL    HW246478   7.383   7.338  12.898  0.0310  0.5767 -0.0010
78167SOL     OW46479   7.356   5.151  13.874  0.7101  0.0150  0.4971
78167SOL    HW146480   7.265   5.128  13.894  0.3728 -0.1701 -1.1048
78167SOL    HW246481   7.399   5.153  13.959 -0.3160 -1.9663  1.1404
78168SOL     OW46482   7.186   6.167   2.748 -0.1539 -0.4892 -0.3299
78168SOL    HW146483   7.229   6.123   2.674  0.3266  1.5568 -1.3300
78168SOL    HW246484   7.103   6.198   2.712 -0.5010 -0.5715  0.3754
78169SOL     OW46485  12.799  11.644  10.567  0.0224 -0.0417 -0.6568
78169SOL    HW146486  12.831  11.641  10.476 -1.3246 -0.7134 -1.1360
78169SOL    HW246487  12.776  11.736  10.581  1.6249  0.3662 -0.4611
78170SOL     OW46488   8.262   2.916  13.438  0.3232 -0.1832  0.0588
78170SOL    HW146489   8.351   2.880  13.431  0.6530  0.0722  2.2747
78170SOL    HW246490   8.270   2.987  13.501 -1.8258 -1.6461  2.1539
78171SOL     OW46491   0.795  12.482   6.480  0.6154 -0.3447  0.2125
78171SOL    HW146492   0.726  12.546   6.496 -0.9639 -1.4966 -1.5347
78171SOL    HW246493   0.854  12.525   6.419  0.1078 -0.1758 -0.1698
78172SOL     OW46494   1.532  13.442   7.597 -0.2433  0.8166  0.5500
78172SOL    HW146495   1.517  13.485   7.513  0.3263  0.9773  0.5264
78172SOL    HW246496   1.495  13.501   7.662  1.1767  1.7265  0.5822
78173SOL     OW46497  12.434   6.044   8.191  0.8581 -0.3112  0.0970
78173SOL    HW146498  12.484   5.999   8.259  2.3838  1.4073  0.1713
78173SOL    HW246499  12.486   6.036   8.112  0.3225 -0.1161 -0.2859
78174SOL     OW46500   1.429   0.859  13.520 -0.0732  0.8161  0.3742
78174SOL    HW146501   1.374   0.847  13.597 -0.9900 -0.3595 -0.4396
78174SOL    HW246502   1.455   0.771  13.494  0.0501  1.1724 -0.7785
78175SOL     OW46503   0.540   0.690   8.057  0.0353  0.0884  0.3798
78175SOL    HW146504   0.621   0.739   8.069 -0.2092  0.7368 -0.5520
78175SOL    HW246505   0.471   0.755   8.065 -0.4158 -0.4662  1.1875
78176SOL     OW46506   4.283   0.497  11.372  0.4870 -0.1625 -0.0586
78176SOL    HW146507   4.219   0.567  11.384 -0.2354 -0.7737 -0.2767
78176SOL    HW246508   4.234   0.427  11.328 -0.2320 -2.7424  4.2387
78177SOL     OW46509   0.912  13.290   3.089 -0.0117  0.2186 -0.5397
78177SOL    HW146510   0.830  13.262   3.130  0.1093 -1.5435 -1.3864
78177SOL    HW246511   0.967  13.319   3.161 -0.8913  0.0920  0.2017
78178SOL     OW46512  10.529   6.453   0.618 -0.1960  0.2202 -0.0831
78178SOL    HW146513  10.486   6.424   0.698 -2.3829  0.4074 -1.1230
78178SOL    HW246514  10.509   6.546   0.612 -1.2796 -0.0667 -1.5098
78179SOL     OW46515  12.004   6.553   5.028  0.2661  0.4807  0.2547
78179SOL    HW146516  11.913   6.538   5.000 -0.8020  0.8674  3.1759
78179SOL    HW246517  12.026   6.639   4.993 -1.1440  1.1458  0.9113
78180SOL     OW46518   2.239   2.874   2.969  0.4867  0.1846 -0.0332
78180SOL    HW146519   2.328   2.909   2.956  0.1458  1.0224 -0.1476
78180SOL    HW246520   2.192   2.944   3.015 -0.4057  0.1568 -0.8798
78181SOL     OW46521  10.903   0.510   7.101 -0.2599  0.3667  0.2347
78181SOL    HW146522  10.962   0.578   7.134 -0.3379 -0.4361  2.1570
78181SOL    HW246523  10.938   0.428   7.138  0.8484 -0.9665 -3.3617
78182SOL     OW46524   3.237   0.027  10.858  0.9444 -0.1997  0.0854
78182SOL    HW146525   3.164  -0.034  10.861  0.5409  0.2653 -0.1472
78182SOL    HW246526   3.269   0.023  10.768  0.5472  0.3557 -0.0844
78183SOL     OW46527   1.476   9.353   2.598 -0.8356 -0.5212  0.1515
78183SOL    HW146528   1.521   9.376   2.680  0.0053  1.4854 -0.8148
78183SOL    HW246529   1.393   9.315   2.626 -1.8405  2.6943  1.9969
78184SOL     OW46530  11.234  12.941   5.697 -0.1245 -0.1799  0.3784
78184SOL    HW146531  11.300  12.991   5.649 -0.4011  0.1279  0.3181
78184SOL    HW246532  11.285  12.875   5.744  0.1818 -0.2456 -0.0402
78185SOL     OW46533  13.991   3.824  12.647 -0.2116 -0.0680 -0.2843
78185SOL    HW146534  13.921   3.868  12.597 -1.1936 -1.1441  0.0972
78185SOL    HW246535  13.946   3.754  12.694  0.6797  0.8204  2.0550
78186SOL     OW46536   0.109   9.694   9.525  0.0785  0.4098  0.2567
78186SOL    HW146537   0.107   9.790   9.527  1.1635  0.4751 -0.8192
78186SOL    HW246538   0.202   9.671   9.532 -0.1502 -0.5627  0.2543
78187SOL     OW46539  12.366   6.115   5.769  0.2471  0.1296  0.5611
78187SOL    HW146540  12.416   6.082   5.694  0.3365 -2.2414  1.5926
78187SOL    HW246541  12.279   6.135   5.732  0.0842 -1.6178 -0.1019
78188SOL     OW46542   0.275   8.418   0.534 -0.2519 -0.1414 -0.3746
78188SOL    HW146543   0.269   8.453   0.623 -0.9264 -0.7576 -0.1661
78188SOL    HW246544   0.364   8.385   0.527 -0.1494  0.0503  0.0201
78189SOL     OW46545   1.722  13.293   9.615  0.6031  0.2465 -1.1229
78189SOL    HW146546   1.767  13.239   9.550  2.0340  0.8556 -0.6875
78189SOL    HW246547   1.749  13.256   9.699  1.2722  1.3638 -0.8309
78190SOL     OW46548   7.038  12.542   2.414 -0.0854 -0.4725 -0.0052
78190SOL    HW146549   7.013  12.464   2.364 -3.4515  1.3040 -1.3934
78190SOL    HW246550   7.085  12.597   2.352  0.9919 -0.7383  0.5543
78191SOL     OW46551   7.999   4.661  10.546  0.0538  0.2260  0.0713
78191SOL    HW146552   8.033   4.579  10.510  1.1360  0.7909 -0.2417
78191SOL    HW246553   7.994   4.645  10.640  0.1148 -0.2390  0.0004
78192SOL     OW46554  11.685  12.163   0.080  0.2892  0.1368 -0.1325
78192SOL    HW146555  11.754  12.133   0.140 -2.3160 -0.0445  3.0443
78192SOL    HW246556  11.723  12.152  -0.007  2.7309 -4.1232  1.1540
78193SOL     OW46557   1.107   6.068  12.202  0.0789  0.6834  0.1449
78193SOL    HW146558   1.133   6.151  12.243  1.1918  0.7456 -0.6426
78193SOL    HW246559   1.045   6.094  12.134 -0.2063  0.7761  0.4343
78194SOL     OW46560   8.395   7.907   0.036 -0.7469 -0.4106 -0.6339
78194SOL    HW146561   8.380   7.831   0.093  0.3704 -1.3931 -1.6000
78194SOL    HW246562   8.314   7.957   0.042 -2.2409 -2.5834 -1.3304
78195SOL     OW46563   8.781  13.466   5.655 -0.0369  0.2518  0.0114
78195SOL    HW146564   8.729  13.541   5.684  0.0397  1.3375 -2.3798
78195SOL    HW246565   8.730  13.389   5.680 -1.4874  1.2042  0.0584
78196SOL     OW46566   7.021  10.442   0.322  0.1996  0.2305  0.0541
78196SOL    HW146567   6.933  10.438   0.285  0.8195 -1.9177 -1.4001
78196SOL    HW246568   7.078  10.451   0.246  1.4116 -2.4655  0.5062
78197SOL     OW46569  12.887   9.001  10.685 -0.0090 -0.4958 -1.1616
78197SOL    HW146570  12.951   8.996  10.614  2.3244 -1.3796  0.8875
78197SOL    HW246571  12.838   9.082  10.666  1.4918  0.0731 -2.9590
78198SOL     OW46572  10.598   0.215  10.692 -0.4546 -0.5712 -0.7931
78198SOL    HW146573  10.656   0.185  10.621  0.3816 -1.3839  0.1955
78198SOL    HW246574  10.639   0.181  10.772 -1.0912  0.7653  0.1390
78199SOL     OW46575  10.432   8.179  12.889  0.3157 -0.3302 -0.2665
78199SOL    HW146576  10.377   8.246  12.930 -0.5442 -2.2095  1.8768
78199SOL    HW246577  10.518   8.192  12.929  0.9108  1.1411 -1.8972
78200SOL     OW46578   9.980   0.868  13.322 -0.5293 -0.2824 -0.3563
78200SOL    HW146579   9.993   0.914  13.406  0.0508 -1.1813  0.0606
78200SOL    HW246580   9.907   0.914  13.281 -2.0736 -0.9478  1.4834
78201SOL     OW46581  12.819   0.427  10.856 -0.0912 -0.3926  0.0676
78201SOL    HW146582  12.774   0.469  10.929 -0.8169 -1.7351  0.4377
78201SOL    HW246583  12.797   0.334  10.865 -0.2571 -0.5858 -1.8962
78202SOL     OW46584   4.920   2.091  10.864 -0.0190 -0.4548 -0.8423
78202SOL    HW146585   4.938   2.068  10.773  2.8529 -0.4782 -0.3467
78202SOL    HW246586   4.922   2.187  10.866 -2.0944 -0.3616 -1.1066
78203SOL     OW46587   8.573   9.335   3.263 -0.2557 -0.0659  0.2900
78203SOL    HW146588   8.656   9.288   3.275 -0.6587 -0.9355 -0.2952
78203SOL    HW246589   8.506   9.267   3.269 -0.9525  0.6692  0.9977
78204SOL     OW46590   0.663   8.719  12.978  0.7994 -0.1414  0.5707
78204SOL    HW146591   0.639   8.638  13.023  0.9732 -0.1807  0.5925
78204SOL    HW246592   0.757   8.708  12.958  0.7971  0.0084  0.4791
78205SOL     OW46593   7.419  10.701  10.803 -0.0743  0.2039 -0.4425
78205SOL    HW146594   7.475  10.766  10.762  1.0021  1.0423  2.2042
78205SOL    HW246595   7.367  10.750  10.867  1.5841 -1.5507  2.4709
78206SOL     OW46596   7.626   7.477   9.428 -0.2032 -0.0985 -0.3594
78206SOL    HW146597   7.574   7.513   9.501 -0.4800 -1.2637  0.0335
78206SOL    HW246598   7.664   7.397   9.463  0.7565  0.0241 -1.0924
78207SOL     OW46599   5.862   5.417  12.476 -0.0834  0.3001 -0.1887
78207SOL    HW146600   5.790   5.411  12.414 -0.3649 -1.2079  0.2531
78207SOL    HW246601   5.836   5.488  12.535 -0.6263  0.5835 -0.7515
78208SOL     OW46602   5.853   5.620   6.983  0.4214 -0.0992  0.3298
78208SOL    HW146603   5.861   5.677   6.907 -2.9680  0.9141  0.5841
78208SOL    HW246604   5.844   5.532   6.947  1.5941  0.0062 -0.2610
78209SOL     OW46605   2.992   7.269   2.920 -0.1738 -0.2142 -0.7770
78209SOL    HW146606   2.982   7.188   2.970  1.8339  0.7496  1.4132
78209SOL    HW246607   2.972   7.245   2.830 -3.7028 -2.1366  0.3544
78210SOL     OW46608   1.996   7.150   8.434 -0.7863 -0.4356 -0.4268
78210SOL    HW146609   1.966   7.238   8.410 -0.2191 -0.1780 -0.2073
78210SOL    HW246610   1.916   7.098   8.437 -1.1361  0.0824 -0.5069
78211SOL     OW46611   1.338   4.564   3.740  0.4047 -0.1859  0.0671
78211SOL    HW146612   1.343   4.515   3.659 -1.4021 -0.9525  0.3680
78211SOL    HW246613   1.308   4.652   3.714 -2.8250 -1.1573  0.0239
78212SOL     OW46614   1.518  10.961   9.168  0.1310 -0.1325 -0.2160
78212SOL    HW146615   1.431  10.976   9.130 -0.9496 -1.5448  1.5622
78212SOL    HW246616   1.529  11.032   9.231 -0.2941 -0.6090  0.4171
78213SOL     OW46617  12.704  11.416  13.856 -0.3686 -0.3826  0.3795
78213SOL    HW146618  12.761  11.418  13.780 -0.3149  2.0746  0.3830
78213SOL    HW246619  12.688  11.323  13.873  2.5291 -1.1296 -0.4046
78214SOL     OW46620   4.260   1.464   7.204  0.5823  0.3823  0.3915
78214SOL    HW146621   4.199   1.484   7.275 -0.2868 -2.2349  0.4702
78214SOL    HW246622   4.235   1.525   7.135 -0.0211  1.4911  1.5307
78215SOL     OW46623   7.451   0.547   3.232 -0.1133  0.6989 -0.3796
78215SOL    HW146624   7.430   0.461   3.269 -0.0052  1.4282  1.4893
78215SOL    HW246625   7.536   0.569   3.270  1.9467 -0.1062 -4.0638
78216SOL     OW46626   4.789   7.165  10.105  0.1623 -0.1370  0.0435
78216SOL    HW146627   4.778   7.260  10.107  2.3023  0.1937 -1.2093
78216SOL    HW246628   4.882   7.151  10.122 -0.4253 -2.1636  2.0705
78217SOL     OW46629   0.292  13.345   4.262 -0.0081  0.5987  0.2468
78217SOL    HW146630   0.336  13.337   4.177  0.3248 -0.6494  0.5259
78217SOL    HW246631   0.354  13.308   4.325 -1.2077 -0.7020  0.7196
78218SOL     OW46632  11.193  10.016  11.378 -0.3238  0.0796 -0.1829
78218SOL    HW146633  11.107   9.984  11.353 -0.6540  0.4145  0.5011
78218SOL    HW246634  11.212   9.973  11.462  0.6423 -0.8112 -0.8252
78219SOL     OW46635  11.447  11.543   6.555  0.0396 -0.0146 -0.0035
78219SOL    HW146636  11.440  11.633   6.588 -0.0147 -0.1114  0.2546
78219SOL    HW246637  11.531  11.541   6.509 -0.5399  0.5097 -1.1027
78220SOL     OW46638   1.816  12.370   5.312  0.6098 -0.0504 -0.2065
78220SOL    HW146639   1.831  12.323   5.229 -0.4325 -0.6867 -0.0549
78220SOL    HW246640   1.842  12.460   5.294 -0.2334 -0.0241 -1.4509
78221SOL     OW46641   0.779   7.846   9.385 -0.7350  0.1833 -0.2803
78221SOL    HW146642   0.789   7.885   9.299 -2.2208  2.1896  0.3749
78221SOL    HW246643   0.817   7.910   9.445 -1.1189 -0.4446  0.6599
78222SOL     OW46644   7.799   9.768   1.439  0.2230 -0.4593  0.3162
78222SOL    HW146645   7.737   9.826   1.395  0.4387 -0.9332 -0.6384
78222SOL    HW246646   7.749   9.688   1.457  0.3672 -0.5881  0.1500
78223SOL     OW46647   4.306   1.754   1.528  0.4268  0.0552  0.1303
78223SOL    HW146648   4.286   1.756   1.621 -0.7096  1.6070 -0.1026
78223SOL    HW246649   4.378   1.817   1.517  1.5634 -1.2008  0.1341
78224SOL     OW46650   8.865   6.215   2.424 -0.9230  0.2886  0.1439
78224SOL    HW146651   8.929   6.286   2.412  0.3261 -0.9435 -0.9341
78224SOL    HW246652   8.894   6.148   2.362 -2.3135 -0.9915  0.8472
78225SOL     OW46653   0.835  13.639   4.584 -0.5341 -0.3330 -0.0863
78225SOL    HW146654   0.797  13.705   4.641  0.9888 -0.1620  0.7959
78225SOL    HW246655   0.896  13.591   4.641  0.6120 -0.5290 -1.4210
78226SOL     OW46656   8.532   5.884   0.131  0.3393 -0.2571 -0.4398
78226SOL    HW146657   8.599   5.951   0.147 -0.2631  0.3984 -0.6048
78226SOL    HW246658   8.474   5.889   0.207 -0.2650  0.1048 -0.9085
78227SOL     OW46659   7.436   6.273  13.999  0.0246  0.1807 -0.4665
78227SOL    HW146660   7.495   6.348  13.996  1.8156 -0.9817  2.1778
78227SOL    HW246661   7.348   6.312  13.998  0.8623  2.1848 -0.9142
78228SOL     OW46662   3.500   0.148   1.483 -0.4688  0.6792 -0.2382
78228SOL    HW146663   3.490   0.242   1.501  0.5372  0.6589  0.5353
78228SOL    HW246664   3.567   0.143   1.415  0.9766  0.4538  1.1659
78229SOL     OW46665  12.546   2.757  11.497 -0.2465 -0.8568  0.4312
78229SOL    HW146666  12.566   2.684  11.438  0.2566 -0.2140 -0.2136
78229SOL    HW246667  12.534   2.716  11.583  0.6106 -1.6392  0.1943
78230SOL     OW46668  13.968   1.683   6.901  0.1527 -0.0250  0.3733
78230SOL    HW146669  13.927   1.737   6.833  2.2005 -1.1161 -1.8865
78230SOL    HW246670  13.937   1.594   6.884  0.0853 -0.2101  1.3891
78231SOL     OW46671   2.051   6.713   8.888  0.3696  0.4995 -0.1003
78231SOL    HW146672   2.054   6.695   8.982 -0.3015 -0.0797 -0.1769
78231SOL    HW246673   2.137   6.750   8.867  0.8290 -0.1563  0.5873
78232SOL     OW46674   9.235  12.700   7.372 -0.2871  0.3137 -0.0574
78232SOL    HW146675   9.325  12.678   7.393 -0.1061 -0.8334 -1.8178
78232SOL    HW246676   9.220  12.661   7.286 -2.7058 -0.2055  0.5204
78233SOL     OW46677   5.066   2.548   1.542 -0.5967  0.0631  0.0452
78233SOL    HW146678   5.004   2.508   1.481 -0.0232 -0.8566  0.0538
78233SOL    HW246679   5.084   2.634   1.505 -0.8582 -0.1814 -0.6655
78234SOL     OW46680   4.502   4.116  13.653 -0.0633 -0.3883  0.2182
78234SOL    HW146681   4.546   4.128  13.738  0.9935 -0.4102 -0.3061
78234SOL    HW246682   4.566   4.069  13.600  0.3502  1.8728 -1.4383
78235SOL     OW46683   2.904  11.401   6.720 -0.0928 -0.6364  0.5027
78235SOL    HW146684   2.830  11.342   6.711  0.1773 -1.0180  0.7743
78235SOL    HW246685   2.865  11.489   6.714 -0.5284 -0.8347  0.3829
78236SOL     OW46686   1.008   3.165   2.956 -0.1822 -0.3211 -0.4049
78236SOL    HW146687   1.057   3.089   2.925  0.1790 -0.3564  0.2430
78236SOL    HW246688   0.970   3.203   2.876  0.4148 -0.6289 -0.8466
78237SOL     OW46689   4.605   4.750   5.276  0.3271  0.0078  0.2919
78237SOL    HW146690   4.566   4.743   5.189 -0.1974  0.9727  0.4379
78237SOL    HW246691   4.698   4.763   5.260  0.1696  0.6341 -0.1434
78238SOL     OW46692   3.883   3.944   3.589 -0.2040  0.1095  0.3389
78238SOL    HW146693   3.925   3.936   3.676 -0.1903  0.0495  0.3264
78238SOL    HW246694   3.957   3.957   3.529 -0.2973  1.7178  0.5281
78239SOL     OW46695   6.023   7.062   4.608 -0.1337 -0.4031 -0.3328
78239SOL    HW146696   6.021   7.003   4.683  1.6219 -0.1775 -0.0526
78239SOL    HW246697   6.042   7.148   4.645  0.4353 -0.2312 -0.9953
78240SOL     OW46698   9.878  12.614   3.185 -0.4505  0.6483  0.0403
78240SOL    HW146699   9.832  12.690   3.220 -0.2769  0.5665  0.4467
78240SOL    HW246700   9.811  12.546   3.179 -0.6783  0.9222 -0.6216
78241SOL     OW46701   9.995   6.537  12.859  0.1462  0.6051 -0.4238
78241SOL    HW146702  10.034   6.521  12.945 -0.6398  0.5337 -0.0752
78241SOL    HW246703  10.040   6.615  12.826  1.2718 -0.0378 -0.4547
78242SOL     OW46704   5.424   6.933   4.819 -0.5001 -0.1224  0.2027
78242SOL    HW146705   5.511   6.922   4.782 -0.6282 -1.4946  0.2502
78242SOL    HW246706   5.422   6.873   4.894 -2.0351 -1.4758 -0.8351
78243SOL     OW46707   3.207   7.257   7.952  0.5421  0.4133 -0.1251
78243SOL    HW146708   3.150   7.207   8.010  0.4951  1.6951  1.0063
78243SOL    HW246709   3.161   7.259   7.869 -0.0766 -0.2950  0.1929
78244SOL     OW46710   8.864   1.024  13.917  0.0853  0.4338  0.0785
78244SOL    HW146711   8.857   1.020  13.821 -0.8549 -0.9385  0.1661
78244SOL    HW246712   8.955   1.000  13.935  0.4119  1.2220 -0.4921
78245SOL     OW46713   4.673   1.838   1.214  0.1154 -0.6887 -0.3827
78245SOL    HW146714   4.601   1.882   1.167 -0.6520 -0.5906  0.8489
78245SOL    HW246715   4.752   1.871   1.171 -0.5521 -1.9942 -2.8243
78246SOL     OW46716   1.849   1.030   0.487 -0.3030 -0.8037 -0.4799
78246SOL    HW146717   1.790   1.082   0.542 -0.5426 -1.7247  0.1632
78246SOL    HW246718   1.844   0.942   0.524  0.4140 -1.1950 -1.2884
78247SOL     OW46719   1.298   1.536   5.470  0.2938  0.3740 -0.3958
78247SOL    HW146720   1.249   1.512   5.392  0.4049 -0.5213 -0.2013
78247SOL    HW246721   1.261   1.481   5.539  2.3474 -1.2032 -0.4767
78248SOL     OW46722   6.923  13.368  13.610  0.1108 -0.1888 -0.2779
78248SOL    HW146723   6.899  13.460  13.618  0.0409 -0.2584  0.3487
78248SOL    HW246724   6.843  13.320  13.634 -0.3230 -0.4224 -2.0582
78249SOL     OW46725   4.429  13.943  13.114 -0.4748  0.0624 -0.0381
78249SOL    HW146726   4.452  13.980  13.029  1.7159 -1.8727 -0.4038
78249SOL    HW246727   4.349  13.894  13.098 -1.6959  2.0271 -0.2427
78250SOL     OW46728   0.044  11.300  12.229  0.9138  0.1341  0.1028
78250SOL    HW146729  -0.011  11.221  12.230 -0.4668  1.0696  0.4583
78250SOL    HW246730   0.059  11.316  12.136 -0.0850  0.2994 -0.0426
78251SOL     OW46731  10.965   9.992   9.567  0.1955  0.5856  0.0351
78251SOL    HW146732  10.982   9.996   9.661 -0.9035 -0.7096  0.3114
78251SOL    HW246733  11.046   9.957   9.530 -0.3136 -1.5997  0.8531
78252SOL     OW46734   3.632  10.219   2.955  0.4538  0.0928 -0.4735
78252SOL    HW146735   3.573  10.268   2.898  0.9709  0.8764 -0.3510
78252SOL    HW246736   3.597  10.233   3.043 -0.8931 -1.8789 -0.6326
78253SOL     OW46737  11.037   8.335   5.904  0.0447 -0.1793 -0.1796
78253SOL    HW146738  11.017   8.421   5.941 -0.8231 -0.9959  1.3213
78253SOL    HW246739  10.952   8.294   5.889  0.4567 -1.0791 -0.1424
78254SOL     OW46740   8.435   5.763   8.839  0.4916 -0.1101 -0.2232
78254SOL    HW146741   8.435   5.668   8.827 -1.6218 -0.1734 -0.1199
78254SOL    HW246742   8.509   5.780   8.897  1.3093 -1.5986 -0.7805
78255SOL     OW46743   9.879   2.463  12.389 -0.4839  0.1198 -0.3294
78255SOL    HW146744   9.954   2.404  12.397 -1.1108 -0.5481  0.9650
78255SOL    HW246745   9.897   2.533  12.452 -0.3795  0.6117 -0.8978
78256SOL     OW46746  12.121   9.955   3.231 -0.3732  0.5326  0.5395
78256SOL    HW146747  12.133   9.938   3.138 -2.1160  0.3932  0.3102
78256SOL    HW246748  12.027   9.969   3.242  0.0937  3.4602  1.8176
78257SOL     OW46749  13.382   0.301  10.805  0.1740  0.2958 -0.2742
78257SOL    HW146750  13.325   0.376  10.788  0.5554  0.2457 -1.9531
78257SOL    HW246751  13.470   0.339  10.808  0.1105  0.3708  2.2777
78258SOL     OW46752   7.484   9.974   3.220  0.2661  0.3764  0.7450
78258SOL    HW146753   7.527   9.917   3.155  2.4941  1.6826  0.9807
78258SOL    HW246754   7.431  10.034   3.167  1.1443  0.6930  0.2093
78259SOL     OW46755  10.242   8.810   2.109 -0.4029 -0.0907  0.1285
78259SOL    HW146756  10.150   8.796   2.087 -1.4934 -3.5399  5.1380
78259SOL    HW246757  10.289   8.739   2.065 -0.6820 -0.2618  0.1040
78260SOL     OW46758  12.845  10.036  10.911 -0.2094  0.4662 -0.2229
78260SOL    HW146759  12.794  10.075  10.982 -1.4136  0.0732 -0.8260
78260SOL    HW246760  12.807   9.949  10.900  0.4069  0.2724 -0.9008
78261SOL     OW46761   5.989   8.820   4.687  0.8461 -0.2692  0.0558
78261SOL    HW146762   6.045   8.829   4.610 -2.0639  1.5865 -2.0736
78261SOL    HW246763   5.975   8.910   4.717  1.6680 -0.9317  2.6560
78262SOL     OW46764   1.164   6.857  13.266 -0.1296 -0.8690  0.4015
78262SOL    HW146765   1.139   6.870  13.175 -1.0421 -0.1238  0.7443
78262SOL    HW246766   1.081   6.841  13.312  0.3299 -1.3579  1.0900
78263SOL     OW46767  10.567   7.626   4.603 -0.6590  0.1039  0.0705
78263SOL    HW146768  10.569   7.621   4.699  2.5162  1.8743  0.2463
78263SOL    HW246769  10.529   7.712   4.585  2.2434  1.5052  0.0447
78264SOL     OW46770   6.409   9.218   5.775  0.3240 -0.3677 -0.1394
78264SOL    HW146771   6.400   9.146   5.713 -1.2450 -0.3636  0.0575
78264SOL    HW246772   6.359   9.191   5.851  0.2275  0.6728  0.1864
78265SOL     OW46773   0.200  10.995   4.990 -0.2742  0.1102  1.3503
78265SOL    HW146774   0.220  10.902   4.977  0.4970  0.2203  1.7016
78265SOL    HW246775   0.275  11.029   5.039 -0.2237  1.0777  0.6179
78266SOL     OW46776   3.143  10.809   9.331  0.0039 -0.2720  0.0562
78266SOL    HW146777   3.211  10.757   9.374  0.0966 -0.3018 -0.1250
78266SOL    HW246778   3.178  10.826   9.243 -0.3627 -0.5632 -0.1476
78267SOL     OW46779   4.996   8.993   9.903 -0.4477  0.2048  0.1095
78267SOL    HW146780   4.984   8.940   9.981  0.6093 -1.5914 -0.8787
78267SOL    HW246781   5.088   8.982   9.879 -1.3406 -1.8259 -3.0491
78268SOL     OW46782   9.322  10.154  12.721  0.3268 -0.5966  0.1574
78268SOL    HW146783   9.230  10.149  12.747  0.6114 -0.8697  1.1813
78268SOL    HW246784   9.342  10.066  12.688 -0.1024 -0.1780 -1.2706
78269SOL     OW46785   6.841   4.473   9.492  0.0392 -0.2327 -0.0913
78269SOL    HW146786   6.865   4.428   9.573 -0.1986 -2.0625 -0.9865
78269SOL    HW246787   6.754   4.440   9.471 -1.3296  2.6810  0.5599
78270SOL     OW46788   1.485   9.860   1.046 -0.1117  0.2305 -0.1863
78270SOL    HW146789   1.539   9.803   1.102 -0.4348  0.9633  0.9059
78270SOL    HW246790   1.517   9.843   0.957 -0.5169 -2.0117  0.0238
78271SOL     OW46791   7.577   3.098   5.483 -0.3880  0.1630  0.4954
78271SOL    HW146792   7.563   3.060   5.570 -0.0605 -3.2930 -0.7794
78271SOL    HW246793   7.499   3.073   5.433  1.0401 -1.2772 -1.1460
78272SOL     OW46794   2.593   4.877   6.815  0.0555  0.1314  0.1178
78272SOL    HW146795   2.680   4.854   6.848  0.5043  1.8988  0.2740
78272SOL    HW246796   2.585   4.971   6.831 -1.6074  0.1463 -0.5570
78273SOL     OW46797   4.787   3.719  13.310  0.0018 -0.3672 -0.2725
78273SOL    HW146798   4.775   3.812  13.292  0.0657 -0.2916  0.0583
78273SOL    HW246799   4.874   3.713  13.350 -0.1960 -0.5005  0.1523
78274SOL     OW46800  13.264   6.210   3.966 -0.0203  0.2578  0.3818
78274SOL    HW146801  13.254   6.121   3.932 -1.8914  0.9971 -1.1843
78274SOL    HW246802  13.351   6.237   3.935  0.3698 -0.8427  0.4742
78275SOL     OW46803   4.521   9.261   2.796 -0.1700  0.4133 -0.5185
78275SOL    HW146804   4.495   9.338   2.745  0.0468  0.6110 -0.3395
78275SOL    HW246805   4.610   9.241   2.766 -0.9635 -1.0547 -2.0598
78276SOL     OW46806  13.117   8.605   8.164  0.1743  0.0801 -0.6888
78276SOL    HW146807  13.185   8.587   8.229 -0.3683 -2.3621 -0.6927
78276SOL    HW246808  13.164   8.617   8.082  0.6784 -0.2262 -0.4486
78277SOL     OW46809   6.215  11.824  13.881  0.1618  0.9131 -0.3283
78277SOL    HW146810   6.248  11.735  13.873  1.3315  1.4044 -1.2534
78277SOL    HW246811   6.151  11.832  13.810  0.8820  1.1506 -0.9604
78278SOL     OW46812   2.897   1.168   7.535 -0.1575  0.5726 -0.0385
78278SOL    HW146813   2.964   1.147   7.471  0.4257 -0.1591  0.7971
78278SOL    HW246814   2.935   1.240   7.586 -0.1800  0.4387  0.1670
78279SOL     OW46815   1.806   5.988   6.334  0.4103 -0.4109 -0.2405
78279SOL    HW146816   1.750   6.036   6.273 -1.6243 -0.5833  1.3620
78279SOL    HW246817   1.781   5.896   6.322 -1.3290 -0.3209  1.9357
78280SOL     OW46818   4.628   6.110  12.800 -0.4112  0.0763 -0.0396
78280SOL    HW146819   4.598   6.068  12.720 -2.2174  0.6773  0.2801
78280SOL    HW246820   4.566   6.081  12.867 -0.1073  1.1209  0.7222
78281SOL     OW46821   5.907   8.522   9.622 -0.1894 -0.6242  0.4309
78281SOL    HW146822   5.874   8.548   9.708  1.5087 -0.5226  1.0919
78281SOL    HW246823   5.973   8.588   9.599  0.7015 -1.6385 -0.0774
78282SOL     OW46824  11.238  13.174   6.468  0.4271 -0.1189  0.0156
78282SOL    HW146825  11.295  13.184   6.393 -0.7696  0.2814 -0.8649
78282SOL    HW246826  11.152  13.154   6.431 -0.0257 -0.6726  1.2987
78283SOL     OW46827  13.172   9.568   3.890  0.5228  0.2354 -0.1791
78283SOL    HW146828  13.124   9.648   3.912 -0.6982 -0.5901  0.2274
78283SOL    HW246829  13.263   9.597   3.883  0.1368  1.6251  0.1481
78284SOL     OW46830   7.814   6.345   9.097 -0.1984  0.5255 -0.4679
78284SOL    HW146831   7.805   6.439   9.107  0.1223  0.5293 -0.1858
78284SOL    HW246832   7.726   6.310   9.111  0.1650  0.5335  2.4590
78285SOL     OW46833   7.876   9.945  11.925  0.5008 -0.0357  0.9318
78285SOL    HW146834   7.893   9.998  12.002 -1.4000 -0.7303  1.8871
78285SOL    HW246835   7.826   9.870  11.957  1.2074 -1.2869 -0.7070
78286SOL     OW46836   9.931   8.560   8.595 -0.8981  0.0758  0.3362
78286SOL    HW146837   9.889   8.493   8.649  1.0706 -0.3028  1.4814
78286SOL    HW246838   9.923   8.641   8.645  0.2976 -0.1339  0.8898
78287SOL     OW46839   7.393   4.866   4.875  0.8231  0.2839 -0.8589
78287SOL    HW146840   7.333   4.821   4.936  0.6052  0.0446 -1.2477
78287SOL    HW246841   7.477   4.867   4.921  0.2970  1.5413  0.1373
78288SOL     OW46842  13.489   2.794   8.899  0.9649  0.1428 -0.2214
78288SOL    HW146843  13.445   2.720   8.940 -0.0267 -0.1127 -1.6819
78288SOL    HW246844  13.581   2.784   8.925  0.7483 -1.2457  0.1101
78289SOL     OW46845  10.813  12.023   7.267 -0.3584  0.2733  0.0589
78289SOL    HW146846  10.738  11.974   7.300 -1.5554  2.8012  1.3883
78289SOL    HW246847  10.806  12.017   7.171 -2.3968  0.6074  0.1527
78290SOL     OW46848   4.108   1.859   7.267 -0.1731 -0.1480  0.2060
78290SOL    HW146849   4.111   1.846   7.362  0.0313 -1.1923  0.0634
78290SOL    HW246850   4.018   1.887   7.250 -0.1311  0.3319  0.7356
78291SOL     OW46851  13.556  13.755   0.031 -0.7831  0.4078  0.2714
78291SOL    HW146852  13.542  13.750  -0.063  3.3195  0.0731 -0.4796
78291SOL    HW246853  13.543  13.665   0.062  0.3582 -0.0339 -0.4687
78292SOL     OW46854  10.170   8.866   1.048  0.1326  0.2461  0.0031
78292SOL    HW146855  10.258   8.883   1.082  0.2996  0.1610 -0.3886
78292SOL    HW246856  10.169   8.906   0.961 -0.0124 -0.3040 -0.2487
78293SOL     OW46857   4.359   2.717   5.744 -0.1127  0.0718 -0.1682
78293SOL    HW146858   4.307   2.794   5.721 -0.2847  0.0897  0.2683
78293SOL    HW246859   4.310   2.644   5.707 -1.9473 -0.2019  2.4984
78294SOL     OW46860  10.099  13.142  11.232  0.0303 -0.0791 -0.2518
78294SOL    HW146861  10.088  13.066  11.174  0.5229  0.2941 -0.8496
78294SOL    HW246862  10.194  13.153  11.239  0.0033  1.7939 -1.9625
78295SOL     OW46863   5.134   0.744   5.214 -0.3008  0.1214 -0.5523
78295SOL    HW146864   5.142   0.701   5.299 -1.3832  1.8080  0.4716
78295SOL    HW246865   5.090   0.827   5.233  1.4897  1.6402 -2.4187
78296SOL     OW46866   7.540   6.690   4.938 -0.0476 -0.2446 -0.0741
78296SOL    HW146867   7.497   6.738   4.868  1.2538  0.8427 -0.1805
78296SOL    HW246868   7.493   6.714   5.018 -0.2548  0.1479 -0.3146
78297SOL     OW46869   3.577   3.950   6.951 -0.8284 -0.1210 -0.3947
78297SOL    HW146870   3.487   3.977   6.932 -0.6372  0.7543 -0.1195
78297SOL    HW246871   3.596   3.882   6.887 -0.9977  1.1203 -1.8142
78298SOL     OW46872  10.548  12.455  11.241 -0.4598 -0.1371  0.6102
78298SOL    HW146873  10.520  12.438  11.151  0.7636  1.4531 -0.1232
78298SOL    HW246874  10.643  12.443  11.238 -0.0794  2.3798  1.0394
78299SOL     OW46875   0.675   6.297   1.016 -0.4881  0.2893  0.4124
78299SOL    HW146876   0.633   6.212   1.004 -0.7993  0.5213 -0.1225
78299SOL    HW246877   0.609   6.351   1.060 -0.2143  0.1959  0.9545
78300SOL     OW46878  10.476   2.541   4.693 -0.3663 -0.5157 -0.4177
78300SOL    HW146879  10.435   2.626   4.677  0.5639  0.0487  0.0798
78300SOL    HW246880  10.522   2.552   4.777 -4.3278 -3.0318  2.4968
78301SOL     OW46881   0.114   8.775   6.469 -0.4008  0.1827 -0.3842
78301SOL    HW146882   0.129   8.683   6.492 -1.9291 -0.0951 -0.4090
78301SOL    HW246883   0.197   8.804   6.431  0.4952 -0.8230  0.7266
78302SOL     OW46884   5.566  10.993   7.215 -0.2416 -0.4576  0.1765
78302SOL    HW146885   5.507  10.919   7.226  0.0694 -0.4982  1.8676
78302SOL    HW246886   5.651  10.953   7.195  0.0988 -0.6319  1.8538
78303SOL     OW46887  12.235   7.657  13.146 -0.2408  0.0258  0.1074
78303SOL    HW146888  12.249   7.707  13.065 -0.3090 -0.0635  0.0405
78303SOL    HW246889  12.292   7.580  13.137 -0.0058  0.1783  0.2857
78304SOL     OW46890  13.267   4.105   7.362  0.0555 -0.8624  0.3122
78304SOL    HW146891  13.263   4.029   7.303  0.2405  0.1853 -1.1105
78304SOL    HW246892  13.212   4.171   7.320  1.1662  0.3377  0.6794
78305SOL     OW46893   0.252  10.370   9.901 -0.4225  0.2872 -0.1108
78305SOL    HW146894   0.245  10.464   9.880  1.0314  0.3397 -0.4184
78305SOL    HW246895   0.204  10.327   9.830 -0.0957  0.7428 -0.6172
78306SOL     OW46896   6.199   6.030   9.844  0.1475  0.0562  0.1226
78306SOL    HW146897   6.117   6.024   9.796  0.3410 -0.0008 -0.2046
78306SOL    HW246898   6.183   5.982   9.926 -0.2627  0.3754  0.2274
78307SOL     OW46899   1.248   7.681  12.602  0.2663  0.0749 -0.0327
78307SOL    HW146900   1.235   7.775  12.613  0.9928  0.4154 -1.7820
78307SOL    HW246901   1.307   7.656  12.673 -0.6262  0.7398  0.9702
78308SOL     OW46902   4.830   7.692   0.006 -0.8502  0.2824  0.9795
78308SOL    HW146903   4.782   7.622  -0.037 -1.8899  0.1845  2.2484
78308SOL    HW246904   4.922   7.670  -0.008 -1.1675 -0.5546  0.1361
78309SOL     OW46905  10.154  12.043  13.096 -0.2049 -0.3338 -0.3238
78309SOL    HW146906  10.164  12.130  13.057  2.1727 -0.6301 -0.4778
78309SOL    HW246907  10.163  11.983  13.022 -1.0374 -0.7592 -0.0942
78310SOL     OW46908   0.602   3.899   7.404 -0.0272  0.0167 -0.1638
78310SOL    HW146909   0.559   3.938   7.481 -1.7441 -0.8851 -0.6291
78310SOL    HW246910   0.674   3.847   7.441 -0.3352  0.2302  0.7664
78311SOL     OW46911   1.897  12.838  10.951  0.1119  0.0295  0.6732
78311SOL    HW146912   1.873  12.870  11.038  1.3687 -0.7315  1.3251
78311SOL    HW246913   1.981  12.880  10.933 -1.6984  3.0300 -1.7666
78312SOL     OW46914   0.005   7.824   2.525  1.1459 -0.4414  0.2622
78312SOL    HW146915  -0.029   7.737   2.550  0.9161 -0.0312  1.4143
78312SOL    HW246916   0.069   7.845   2.592  0.8062  0.5263  0.2880
78313SOL     OW46917   8.938  10.937  13.706  0.7029 -0.1561 -0.8002
78313SOL    HW146918   8.874  10.966  13.771  1.5107 -0.9001  0.3553
78313SOL    HW246919   8.968  10.852  13.737  2.1418  0.0998 -1.3832
78314SOL     OW46920  11.232  12.455   2.450  0.2413  0.0465 -0.2623
78314SOL    HW146921  11.263  12.416   2.369 -0.8659  1.8902 -1.6739
78314SOL    HW246922  11.150  12.409   2.470  0.4753 -0.3565 -0.2401
78315SOL     OW46923   7.027   4.595   3.153 -0.4633  0.1584  0.0752
78315SOL    HW146924   6.995   4.559   3.070  0.6294  0.3468 -0.4435
78315SOL    HW246925   7.091   4.531   3.184 -0.6280  0.2496  0.6199
78316SOL     OW46926  10.533   6.422   9.641  0.3806  0.0380 -0.0666
78316SOL    HW146927  10.445   6.384   9.646  1.2301 -1.9393  1.2489
78316SOL    HW246928  10.518   6.516   9.634 -1.8378 -0.1922  0.7461
78317SOL     OW46929   9.466   5.421  13.296  0.1725  0.2847 -0.0808
78317SOL    HW146930   9.372   5.415  13.310  0.1299  0.6650 -0.1880
78317SOL    HW246931   9.493   5.498  13.346  0.7245 -0.8422  1.4488
78318SOL     OW46932   5.024   6.318   4.606 -0.2356 -0.0840 -0.1380
78318SOL    HW146933   5.111   6.330   4.642  0.3803 -0.3073 -1.4885
78318SOL    HW246934   5.032   6.344   4.514 -1.5906 -0.0901 -0.2836
78319SOL     OW46935   0.258   3.746   5.239  0.0815  0.4269 -0.1064
78319SOL    HW146936   0.313   3.706   5.171  0.2673 -1.1218  0.9016
78319SOL    HW246937   0.231   3.673   5.293 -0.1108  1.6187  1.4684
78320SOL     OW46938   8.111   5.200  13.234 -0.3515  0.1574  0.0185
78320SOL    HW146939   8.080   5.134  13.172 -1.0291 -0.6127  1.1331
78320SOL    HW246940   8.041   5.205  13.299  1.0535 -0.2959  1.6227
78321SOL     OW46941   0.247  12.413   3.914  0.6160  0.0568  0.3259
78321SOL    HW146942   0.157  12.447   3.915  0.7715  0.5473 -0.7390
78321SOL    HW246943   0.259  12.373   4.000 -1.0559 -1.1821  0.0236
78322SOL     OW46944   1.449  12.571  10.389  0.3336  0.5440 -0.1822
78322SOL    HW146945   1.474  12.575  10.297  0.7724  1.0708 -0.0395
78322SOL    HW246946   1.524  12.605  10.437  0.8794 -1.4610  0.5151
78323SOL     OW46947   8.903   5.416   9.040 -0.0192  0.4627 -0.3105
78323SOL    HW146948   8.931   5.402   8.950 -0.0421 -1.0482 -0.1045
78323SOL    HW246949   8.976   5.465   9.080  0.8335 -0.4940 -0.6580
78324SOL     OW46950   1.201   9.335  12.053  0.2948 -0.3915  0.2122
78324SOL    HW146951   1.163   9.390  12.122 -0.1723 -0.1370 -0.2392
78324SOL    HW246952   1.159   9.250  12.063  0.0219 -0.2737  0.0699
78325SOL     OW46953  10.175   4.325   1.952  0.2182  0.2415 -0.3660
78325SOL    HW146954  10.134   4.243   1.981  1.3982 -0.5928 -0.9667
78325SOL    HW246955  10.251   4.297   1.901  0.8160  1.7227 -0.3406
78326SOL     OW46956  10.452   5.818   7.616 -0.5310 -0.0493 -0.3680
78326SOL    HW146957  10.429   5.897   7.568 -0.4471  1.0036  1.2407
78326SOL    HW246958  10.395   5.819   7.693  0.1379 -1.0403  0.1657
78327SOL     OW46959   2.009   6.276  13.494 -0.0843 -0.1507  0.6336
78327SOL    HW146960   1.920   6.254  13.521 -0.3433 -1.1363 -0.9119
78327SOL    HW246961   2.015   6.248  13.403  1.3239  1.3291  0.2061
78328SOL     OW46962   2.416   0.259   9.795 -0.6532 -0.7435 -0.7272
78328SOL    HW146963   2.334   0.300   9.823  0.8205  2.1745 -0.2815
78328SOL    HW246964   2.430   0.292   9.706  1.8939  2.2051  0.5841
78329SOL     OW46965  10.733   3.336  13.954  0.7728  0.3940 -0.6239
78329SOL    HW146966  10.755   3.374  14.040 -1.8451  2.0010 -0.5613
78329SOL    HW246967  10.758   3.404  13.891  0.0545  0.4170 -0.8858
78330SOL     OW46968   8.868  10.863   3.126 -0.3467  0.3039 -0.6522
78330SOL    HW146969   8.833  10.894   3.209 -0.1802 -0.3667 -0.3266
78330SOL    HW246970   8.829  10.776   3.114  1.0357 -0.3904 -0.3582
78331SOL     OW46971  12.121  13.071   7.994 -0.3257  0.6482  0.2119
78331SOL    HW146972  12.213  13.085   8.016  0.5854 -2.4886 -1.0511
78331SOL    HW246973  12.112  13.103   7.904  0.1685 -0.9682 -0.4528
78332SOL     OW46974   5.450  10.947  13.707  0.6137  0.1534 -0.3978
78332SOL    HW146975   5.383  11.010  13.681 -0.3159 -0.3134  0.7889
78332SOL    HW246976   5.443  10.877  13.643  1.1950  0.9127 -1.3249
78333SOL     OW46977  13.888  10.810  13.014  0.3068  0.3221 -0.4564
78333SOL    HW146978  13.842  10.775  13.090  0.3147 -1.0200 -1.0393
78333SOL    HW246979  13.949  10.741  12.989 -0.0684  0.5008 -1.9997
78334SOL     OW46980   0.315   5.322   5.118  0.2214 -0.3960 -0.6545
78334SOL    HW146981   0.270   5.252   5.070  2.1645 -2.1595 -0.0290
78334SOL    HW246982   0.393   5.280   5.155  0.3576  1.5995  1.5557
78335SOL     OW46983   9.637  11.005   8.810 -0.0990 -0.2860 -0.8724
78335SOL    HW146984   9.626  11.005   8.715  0.8717 -0.4585 -0.9941
78335SOL    HW246985   9.659  11.096   8.832 -3.8469  0.6633 -0.3277
78336SOL     OW46986   9.962   7.542  10.190 -0.1257 -0.5638 -0.3679
78336SOL    HW146987   9.917   7.599  10.127 -1.0392  1.8042  2.2070
78336SOL    HW246988  10.053   7.570  10.186 -0.3308  0.1870 -0.0964
78337SOL     OW46989  10.687   0.737  10.547 -0.0543  0.2172 -0.3180
78337SOL    HW146990  10.716   0.667  10.489 -1.8084 -1.2103  0.4236
78337SOL    HW246991  10.600   0.709  10.576  0.1151  1.6426  1.7545
78338SOL     OW46992  11.807   6.013   0.537 -0.1410  0.0557 -0.5644
78338SOL    HW146993  11.774   6.040   0.451  1.6163 -1.2464 -1.7466
78338SOL    HW246994  11.805   6.093   0.590 -4.8110  0.1206 -0.5075
78339SOL     OW46995   4.504  10.289  11.636 -0.1889 -0.1586 -0.2892
78339SOL    HW146996   4.482  10.228  11.707 -0.1473  0.5650  0.3691
78339SOL    HW246997   4.465  10.372  11.665 -0.0169  0.1837 -1.0407
78340SOL     OW46998   4.044   2.132   0.428  0.4959  0.0558  0.0121
78340SOL    HW146999   3.998   2.122   0.345  0.8609  2.5287 -0.5895
78340SOL    HW247000   4.136   2.122   0.406  0.5595  0.1753  0.2141
78341SOL     OW47001   8.512   4.118   5.759 -0.0864  0.2795 -0.6779
78341SOL    HW147002   8.512   4.151   5.669 -1.7139 -0.0954 -0.8483
78341SOL    HW247003   8.601   4.134   5.791  0.8275 -0.5374 -2.6931
78342SOL     OW47004   2.526   0.318   6.239 -0.8796 -0.1416 -0.1308
78342SOL    HW147005   2.499   0.234   6.277  1.1095 -0.4326  0.7349
78342SOL    HW247006   2.597   0.348   6.295 -0.3907  1.2804 -1.4537
78343SOL     OW47007   6.025  13.908   5.735 -0.1831 -0.0009  0.2717
78343SOL    HW147008   6.043  13.930   5.644 -2.0431  0.9276  0.0770
78343SOL    HW247009   5.930  13.907   5.741 -0.1035 -0.7506  2.0531
78344SOL     OW47010   1.755   0.760  11.325  0.2848 -0.1276 -0.5102
78344SOL    HW147011   1.689   0.736  11.260 -0.7514  0.7366  0.1713
78344SOL    HW247012   1.816   0.817  11.278  1.1777 -1.7603 -1.4129
78345SOL     OW47013   8.251   5.508   8.121 -0.4958 -0.1844 -0.2318
78345SOL    HW147014   8.292   5.588   8.087 -0.0324 -0.1939  0.2856
78345SOL    HW247015   8.292   5.437   8.071 -0.3244 -0.1505 -0.1413
78346SOL     OW47016   2.800   8.847   3.638 -0.0733 -0.0668  0.4375
78346SOL    HW147017   2.868   8.894   3.686  0.4086 -0.3640  0.0538
78346SOL    HW247018   2.719   8.895   3.657  0.5929  1.6965 -0.9724
78347SOL     OW47019   9.529   2.577   6.398  0.3896 -0.6504  0.2058
78347SOL    HW147020   9.435   2.571   6.387  0.2929 -1.1458  1.1697
78347SOL    HW247021   9.541   2.607   6.488  1.1243  1.6569 -0.5783
78348SOL     OW47022   3.779   7.890  12.019 -0.5202 -0.0578  0.0431
78348SOL    HW147023   3.689   7.861  12.031 -0.1084 -0.8197  1.5457
78348SOL    HW247024   3.826   7.811  11.991 -0.2762  0.2940 -0.5648
78349SOL     OW47025  13.684   3.796  13.176 -0.5178 -0.4461 -0.4106
78349SOL    HW147026  13.770   3.835  13.162 -0.2968 -0.6210  0.3868
78349SOL    HW247027  13.627   3.839  13.112  0.1983 -0.4751 -1.0861
78350SOL     OW47028   5.273   3.031   4.168 -0.3402 -0.1003 -0.1691
78350SOL    HW147029   5.236   3.062   4.251 -1.1400 -0.2727 -0.4444
78350SOL    HW247030   5.357   3.074   4.161 -0.9563  1.1614 -0.0296
78351SOL     OW47031  11.317   8.197   5.351  0.2833  0.3124 -0.3353
78351SOL    HW147032  11.250   8.260   5.326 -1.2330 -0.7313  0.9257
78351SOL    HW247033  11.318   8.133   5.280  0.0229  0.4091 -0.4262
78352SOL     OW47034   3.311   1.129   3.274  0.2614 -0.3242  0.0773
78352SOL    HW147035   3.371   1.184   3.224 -0.2861  1.8400  1.6886
78352SOL    HW247036   3.360   1.048   3.289  1.7290  0.3423 -0.9353
78353SOL     OW47037   0.037  10.813   2.226 -0.2611  0.0291 -0.0672
78353SOL    HW147038  -0.055  10.789   2.238 -0.9017  2.2438 -0.0324
78353SOL    HW247039   0.065  10.844   2.312  0.2738  0.0994 -0.2665
78354SOL     OW47040   5.376   5.537   6.320 -0.0356  0.3673  0.5176
78354SOL    HW147041   5.467   5.563   6.302 -0.4953  0.9778 -1.1788
78354SOL    HW247042   5.331   5.619   6.337 -1.3161  0.8776 -3.9958
78355SOL     OW47043   2.523   5.655   0.619 -0.2326 -0.7826 -0.3669
78355SOL    HW147044   2.455   5.722   0.613  2.0555  1.7088 -0.1098
78355SOL    HW247045   2.521   5.628   0.711 -1.6027 -1.6524 -0.6142
78356SOL     OW47046  11.702  11.977   4.502 -0.1703 -0.5966  0.1077
78356SOL    HW147047  11.774  11.915   4.490  0.3271 -0.2684  1.2306
78356SOL    HW247048  11.667  11.992   4.414  0.1477 -1.9222 -0.2673
78357SOL     OW47049  11.980  14.042   8.214 -0.3851 -0.1349 -0.2670
78357SOL    HW147050  11.912  14.006   8.272 -0.0859  0.7053  0.6330
78357SOL    HW247051  12.039  14.088   8.273  1.9334 -2.2325 -0.8121
78358SOL     OW47052  10.500   2.235  13.888  0.6805 -0.0292  0.5321
78358SOL    HW147053  10.569   2.193  13.940  1.3597 -1.1824 -1.1985
78358SOL    HW247054  10.428   2.247  13.949  0.3962 -3.8376  1.2222
78359SOL     OW47055   3.290   7.639  13.922 -0.0143 -0.5913 -0.3764
78359SOL    HW147056   3.296   7.548  13.893 -1.4260 -0.6177 -0.6746
78359SOL    HW247057   3.206   7.670  13.886  0.5919  0.9323 -0.5619
78360SOL     OW47058   6.329  10.174   7.431 -0.1824  0.4375 -0.0766
78360SOL    HW147059   6.377  10.127   7.364 -1.0160  0.8235 -0.9687
78360SOL    HW247060   6.393  10.235   7.468  1.2519 -2.0479  1.8933
78361SOL     OW47061  10.943   3.376  13.496 -0.0306  0.6644 -0.5293
78361SOL    HW147062  11.009   3.431  13.455  0.5280  1.0295  0.8166
78361SOL    HW247063  10.993   3.307  13.540 -0.5372  0.7687  0.2433
78362SOL     OW47064   7.887   7.130   2.601 -0.1852 -0.2410 -0.5160
78362SOL    HW147065   7.836   7.049   2.592 -0.3725 -0.1951  0.0892
78362SOL    HW247066   7.898   7.161   2.511 -1.5389 -0.0649 -0.6555
78363SOL     OW47067  12.256   4.324   1.326 -0.1840 -0.1431 -0.0700
78363SOL    HW147068  12.198   4.252   1.302 -2.1372  1.2944  0.1344
78363SOL    HW247069  12.260   4.321   1.422 -0.2119 -0.0004 -0.0652
78364SOL     OW47070   3.579  13.621  13.321  0.1184 -0.0496 -0.4262
78364SOL    HW147071   3.642  13.557  13.354  1.3211  0.2302 -2.0325
78364SOL    HW247072   3.497  13.572  13.315  0.8868 -1.3245 -1.1017
78365SOL     OW47073   2.336   7.108   3.872  0.0876  0.3824 -0.7635
78365SOL    HW147074   2.312   7.069   3.956  1.6928 -2.0650 -1.3473
78365SOL    HW247075   2.267   7.080   3.812  1.2217 -1.7417 -1.1756
78366SOL     OW47076  10.428   9.568   0.990 -0.7394  0.0524  0.0642
78366SOL    HW147077  10.407   9.546   0.899 -0.3239 -0.9394  0.1921
78366SOL    HW247078  10.344   9.567   1.035 -1.1290  1.9096 -0.5598
78367SOL     OW47079   6.023   9.677   8.361  0.3479  0.1415 -0.5483
78367SOL    HW147080   6.055   9.691   8.272  0.0662 -0.8854 -0.8246
78367SOL    HW247081   6.013   9.582   8.369 -0.0494  0.2451  0.4324
78368SOL     OW47082   5.786  11.299  10.017 -0.4654 -0.1781 -0.4727
78368SOL    HW147083   5.837  11.379  10.027 -1.6159  0.5747 -0.4587
78368SOL    HW247084   5.753  11.281  10.105 -1.6711  0.3443 -0.8036
78369SOL     OW47085  13.148   9.977   5.534 -0.5286 -0.9931 -0.4392
78369SOL    HW147086  13.082   9.969   5.603  0.4074 -0.0572  0.6054
78369SOL    HW247087  13.229   9.998   5.580  0.0086  0.2546 -1.8428
78370SOL     OW47088   6.769   8.259   1.431  0.2640 -0.5467 -0.0254
78370SOL    HW147089   6.693   8.219   1.389 -1.2307  0.3195  1.7041
78370SOL    HW247090   6.739   8.347   1.455  0.9040 -1.0565  3.0061
78371SOL     OW47091   3.483  13.022  11.079  0.0796 -0.0619  0.0012
78371SOL    HW147092   3.548  12.994  11.014 -0.2964  0.4389 -0.6026
78371SOL    HW247093   3.528  13.016  11.163  1.4878  1.9185 -0.5370
78372SOL     OW47094   8.319   2.101  10.518 -0.1338  0.0817 -0.1943
78372SOL    HW147095   8.307   2.008  10.539  0.0464 -0.0951 -0.8584
78372SOL    HW247096   8.230   2.135  10.511 -0.2930  0.7474  3.2914
78373SOL     OW47097   2.399  11.215  13.284 -0.9138 -0.7989  0.6735
78373SOL    HW147098   2.368  11.149  13.222 -0.5977 -0.8224  0.5414
78373SOL    HW247099   2.335  11.286  13.276  1.0174  0.8438 -2.4147
78374SOL     OW47100   2.084   4.199   3.181 -0.3731 -0.7215  0.0713
78374SOL    HW147101   2.111   4.290   3.168 -1.6446 -0.0993  1.3454
78374SOL    HW247102   1.988   4.203   3.178 -0.4273 -2.2297 -0.9555
78375SOL     OW47103   1.293   8.511   4.984 -0.1601  0.7428 -0.2778
78375SOL    HW147104   1.325   8.425   5.009  0.0005  1.2687  1.4633
78375SOL    HW247105   1.252   8.498   4.898  2.2013 -0.5033 -1.3207
78376SOL     OW47106   0.246   6.969  11.399  0.1585 -0.0817  0.3972
78376SOL    HW147107   0.269   7.052  11.442 -0.6218  0.0544  0.5725
78376SOL    HW247108   0.227   6.994  11.309  0.3461 -0.1385  0.3417
78377SOL     OW47109   6.607   6.893   9.030 -0.2185  0.3980  0.2588
78377SOL    HW147110   6.653   6.927   9.107  1.5912  0.6646 -0.9034
78377SOL    HW247111   6.514   6.894   9.056  0.2561  1.2833  2.1108
78378SOL     OW47112   1.917   7.594   3.406 -0.4948 -0.5948  0.2873
78378SOL    HW147113   1.906   7.667   3.345  0.5604 -0.2269  0.5189
78378SOL    HW247114   1.948   7.635   3.487 -0.5248 -1.2312  0.6259
78379SOL     OW47115  11.751   0.686   3.580 -0.8312  0.3642 -0.6925
78379SOL    HW147116  11.715   0.687   3.669  0.8362  0.8756  0.0127
78379SOL    HW247117  11.843   0.662   3.591 -0.2848  1.6055 -2.1493
78380SOL     OW47118   2.188  12.339   2.174  0.2327  0.0008  0.5694
78380SOL    HW147119   2.188  12.249   2.209  1.4185 -1.4041 -2.6259
78380SOL    HW247120   2.095  12.362   2.170 -0.2028 -1.6066  0.3232
78381SOL     OW47121   0.221  11.396  13.521  0.1445 -0.0194  0.1773
78381SOL    HW147122   0.218  11.303  13.501  0.2368 -0.2048  0.9950
78381SOL    HW247123   0.302  11.427  13.479 -0.2282 -0.1560 -0.6641
78382SOL     OW47124   6.387  11.829   3.518 -0.1010  0.1083 -0.2884
78382SOL    HW147125   6.418  11.774   3.446 -0.7242 -0.3357 -0.2307
78382SOL    HW247126   6.297  11.799   3.534  0.1143  0.0214  0.8466
78383SOL     OW47127  12.892   8.587  10.563  0.1936 -0.6203 -0.7029
78383SOL    HW147128  12.972   8.626  10.528  0.1832  0.9565  0.8803
78383SOL    HW247129  12.821   8.633  10.517  0.1938 -0.0136 -0.1073
78384SOL     OW47130   8.255   0.056  10.854  0.3864 -0.0874  0.1831
78384SOL    HW147131   8.284   0.054  10.945 -1.0439  0.8120  0.6838
78384SOL    HW247132   8.161   0.075  10.858 -0.0444 -1.5462 -1.4158
78385SOL     OW47133   0.144   8.190  11.442  0.0528  0.6023 -0.0043
78385SOL    HW147134   0.201   8.141  11.501 -1.0358 -1.2245 -0.3915
78385SOL    HW247135   0.055   8.171  11.473 -0.5179  0.0480 -1.8842
78386SOL     OW47136  12.639  10.927  10.625 -0.8457 -0.5653  0.7513
78386SOL    HW147137  12.697  10.939  10.700  0.6873  0.7993 -0.5822
78386SOL    HW247138  12.562  10.981  10.647  0.0013  0.6054  0.9669
78387SOL     OW47139  11.108   2.918   1.440 -0.1130  0.3053 -0.3190
78387SOL    HW147140  11.160   2.889   1.365  1.0336 -0.6470  0.8053
78387SOL    HW247141  11.170   2.965   1.496 -0.8123  0.5111  0.2965
78388SOL     OW47142  11.650   3.703   7.088 -0.0352 -0.0263 -0.1913
78388SOL    HW147143  11.607   3.695   7.003 -2.0447  0.5500  0.7185
78388SOL    HW247144  11.671   3.796   7.096 -1.4658  0.2556  0.6421
78389SOL     OW47145  12.178  10.568   0.328  0.1078 -1.0719 -0.0586
78389SOL    HW147146  12.269  10.588   0.303 -0.3431  2.1238  0.4358
78389SOL    HW247147  12.129  10.572   0.246  0.1669 -0.9644 -0.0900
78390SOL     OW47148   0.067  12.564   9.666 -1.0079  0.0140  0.4370
78390SOL    HW147149   0.093  12.656   9.667  4.0811 -1.0669 -0.9702
78390SOL    HW247150   0.031  12.550   9.578 -1.5063  0.5413  0.5482
78391SOL     OW47151   5.492   4.614   5.204 -0.0754  1.1794  0.2691
78391SOL    HW147152   5.561   4.565   5.249  1.7323  0.4408 -2.9504
78391SOL    HW247153   5.528   4.702   5.192 -0.9012  1.6303  0.9968
78392SOL     OW47154   3.574   2.381   5.365  0.3080  0.0349 -0.2833
78392SOL    HW147155   3.662   2.363   5.397 -0.0662 -0.7001  0.3696
78392SOL    HW247156   3.522   2.398   5.444 -0.0212  1.0219 -0.6940
78393SOL     OW47157  13.213  13.180   7.742  0.4195 -0.3010 -0.1217
78393SOL    HW147158  13.201  13.159   7.650 -0.8644  0.0152 -0.0458
78393SOL    HW247159  13.190  13.272   7.749  0.8207 -0.2346  0.4700
78394SOL     OW47160  11.910   3.003  10.471  0.1137  0.3025 -0.3503
78394SOL    HW147161  11.924   2.915  10.435 -1.7821  0.1093 -0.7023
78394SOL    HW247162  11.880   3.055  10.396 -0.3433  0.8358  0.2013
78395SOL     OW47163  12.492   3.444   3.689  0.0394  0.1386  0.2366
78395SOL    HW147164  12.416   3.435   3.632 -0.6619  3.2085  0.5180
78395SOL    HW247165  12.546   3.368   3.669 -0.1419  0.9895 -4.5414
78396SOL     OW47166   9.537  10.295  10.634  0.6443  0.1934 -0.0665
78396SOL    HW147167   9.449  10.303  10.673  0.3365 -1.0806 -0.4393
78396SOL    HW247168   9.585  10.370  10.668 -0.2899  0.3522  0.9692
78397SOL     OW47169  12.079  12.821  11.550 -0.2590 -0.1079 -0.0100
78397SOL    HW147170  12.027  12.901  11.560  0.0056 -0.1404  2.0969
78397SOL    HW247171  12.141  12.823  11.622  2.3581 -0.3722 -2.1052
78398SOL     OW47172  11.390   9.561  11.438 -0.2614  0.7311 -0.3158
78398SOL    HW147173  11.432   9.522  11.515  1.8060  0.8527 -1.3118
78398SOL    HW247174  11.311   9.603  11.472 -0.9753 -1.6898  1.2699
78399SOL     OW47175  10.669   1.116   9.983  0.2684 -0.3846  0.3083
78399SOL    HW147176  10.609   1.181   9.947 -0.3293 -1.3435 -0.4949
78399SOL    HW247177  10.639   1.103  10.073  0.3694  0.4022  0.4630
78400SOL     OW47178   4.734   3.750   7.511 -0.5211  0.5058  0.6087
78400SOL    HW147179   4.772   3.781   7.429  1.8765 -2.9736  0.1752
78400SOL    HW247180   4.647   3.717   7.486 -0.1602  0.2539 -0.3544
78401SOL     OW47181  11.731  11.265   1.466 -0.5658  0.2698  0.0461
78401SOL    HW147182  11.796  11.198   1.444 -0.8035 -0.0567  0.3244
78401SOL    HW247183  11.766  11.308   1.543 -0.8960 -0.2157  0.4726
78402SOL     OW47184   5.354   6.242   7.546  0.2379 -0.1804 -0.4771
78402SOL    HW147185   5.393   6.328   7.555  1.4295 -0.7844  0.3817
78402SOL    HW247186   5.366   6.200   7.631 -2.2963 -0.4315 -0.1486
78403SOL     OW47187   4.076  12.370   9.426  0.2693  0.3433  0.3983
78403SOL    HW147188   4.160  12.330   9.404  0.6859  2.2813 -1.9314
78403SOL    HW247189   4.088  12.464   9.409 -1.9067  0.9186  1.5420
78404SOL     OW47190   2.873   5.743   8.175 -0.0360  0.2380 -0.1948
78404SOL    HW147191   2.954   5.726   8.127  0.9918  0.8500  1.2525
78404SOL    HW247192   2.884   5.696   8.258 -0.1754  2.0815  0.9226
78405SOL     OW47193   0.995   6.229   7.740 -0.6566  0.1058  0.0460
78405SOL    HW147194   1.083   6.259   7.714 -0.7615  0.3203 -0.0659
78405SOL    HW247195   1.003   6.134   7.742 -0.7632  0.0464 -1.2532
78406SOL     OW47196  10.326   5.633   5.682  0.8094  0.2052  0.0115
78406SOL    HW147197  10.393   5.632   5.749  3.3854 -1.7944 -2.3600
78406SOL    HW247198  10.284   5.548   5.688  0.2044  0.4840 -0.1554
78407SOL     OW47199   7.781   7.469  11.210  0.1714  0.3010  0.2783
78407SOL    HW147200   7.800   7.481  11.303  1.8639 -1.7886  0.2814
78407SOL    HW247201   7.860   7.429  11.174 -0.8776 -0.0451 -1.8132
78408SOL     OW47202   1.242   6.691   2.219  0.1640 -0.0570 -0.4184
78408SOL    HW147203   1.232   6.607   2.173 -1.3394 -0.7589  1.1001
78408SOL    HW247204   1.254   6.755   2.149  0.7882 -1.4516 -1.6471
78409SOL     OW47205   2.785  10.620  11.326 -0.3085  0.5623  0.3779
78409SOL    HW147206   2.776  10.709  11.292  1.2508  0.9227  0.8052
78409SOL    HW247207   2.857  10.626  11.390 -1.2135 -0.6771  1.5850
78410SOL     OW47208  13.950   9.155  11.168 -0.0986 -0.7708  0.3673
78410SOL    HW147209  13.873   9.211  11.162 -0.4171 -1.3467 -1.8398
78410SOL    HW247210  14.008   9.199  11.230  0.2090  2.7052 -2.1198
78411SOL     OW47211   5.374   0.242   6.266  0.1398  0.1864  0.5362
78411SOL    HW147212   5.305   0.265   6.328  1.1773  1.5817  1.2411
78411SOL    HW247213   5.387   0.322   6.214 -0.2673 -0.7497 -1.0844
78412SOL     OW47214   2.766  13.338   4.956 -0.2253  0.5916  0.0212
78412SOL    HW147215   2.724  13.381   5.030  2.2354  0.5271  1.5873
78412SOL    HW247216   2.801  13.410   4.903 -1.0314  0.6106 -0.4981
78413SOL     OW47217   1.760  10.670   4.561 -0.3408 -0.2295  0.2912
78413SOL    HW147218   1.673  10.631   4.555 -0.4069  0.0822 -0.9520
78413SOL    HW247219   1.797  10.661   4.473  0.3254  0.9172  0.4294
78414SOL     OW47220  10.161   8.787  13.501 -0.7426 -0.0168  0.3037
78414SOL    HW147221  10.072   8.821  13.508 -0.4031  0.9854 -0.1566
78414SOL    HW247222  10.161   8.737  13.419 -0.4927  1.1915 -0.4429
78415SOL     OW47223   1.344   1.248  12.265 -0.4552 -0.2224  0.4541
78415SOL    HW147224   1.305   1.319  12.214  1.3932  0.1118 -0.5787
78415SOL    HW247225   1.383   1.291  12.341  0.9371 -0.0481 -0.3310
78416SOL     OW47226  13.253   5.390   6.695 -0.1996 -0.3075  0.2871
78416SOL    HW147227  13.274   5.361   6.784  1.1010  3.2300  1.2786
78416SOL    HW247228  13.333   5.430   6.663 -1.3043  0.5262 -1.6192
78417SOL     OW47229   7.522   1.836   4.932  0.0037  0.2919  0.1284
78417SOL    HW147230   7.532   1.928   4.908 -0.6848  0.7807  1.5879
78417SOL    HW247231   7.443   1.808   4.886  0.8521  0.0674 -1.2500
78418SOL     OW47232   4.959  12.120   8.506 -0.7247 -0.3837 -0.3025
78418SOL    HW147233   5.015  12.052   8.543  0.9540  1.9780  1.9144
78418SOL    HW247234   5.003  12.147   8.425 -0.3310 -0.6139 -0.1671
78419SOL     OW47235   5.838  12.385   5.122 -0.4196  0.4515  0.0899
78419SOL    HW147236   5.905  12.416   5.061 -0.5107  0.5283  0.0289
78419SOL    HW247237   5.876  12.307   5.162 -0.3874  0.3585 -0.1201
78420SOL     OW47238   3.090   4.209  12.876  0.0373  0.8555  0.7485
78420SOL    HW147239   3.108   4.204  12.970 -0.6695  2.3271  0.9835
78420SOL    HW247240   3.101   4.301  12.854  1.2488  0.3824 -0.8572
78421SOL     OW47241   7.044   7.352   9.179  0.4757 -0.0138  0.0401
78421SOL    HW147242   6.972   7.365   9.241  0.9111  0.0946  0.5303
78421SOL    HW247243   7.098   7.431   9.188 -0.0152  0.5134 -1.2524
78422SOL     OW47244   2.907   1.668   9.571 -0.8481 -0.1237 -0.5090
78422SOL    HW147245   2.973   1.650   9.504 -0.5259 -1.9853  0.2662
78422SOL    HW247246   2.884   1.583   9.606 -0.1537  0.8215  2.5591
78423SOL     OW47247   8.720   5.252   0.644 -0.0674  0.4000  0.2466
78423SOL    HW147248   8.778   5.295   0.706 -0.5434 -1.1619  1.8865
78423SOL    HW247249   8.775   5.233   0.568  0.7976  1.4900  0.5745
78424SOL     OW47250  12.919   1.890   5.115 -0.1696 -0.0196 -0.7038
78424SOL    HW147251  12.994   1.937   5.079  1.5736 -1.6338  0.6308
78424SOL    HW247252  12.927   1.901   5.210  0.8089 -3.5553 -0.2468
78425SOL     OW47253   6.846  11.657  10.951  0.2285  0.0616 -0.1242
78425SOL    HW147254   6.894  11.659  11.034 -0.5276  1.5433  0.3045
78425SOL    HW247255   6.856  11.567  10.921  3.0345  0.2294  0.0577
78426SOL     OW47256   6.659   7.629   0.519  0.0384 -0.2969 -0.0364
78426SOL    HW147257   6.669   7.720   0.491  0.2586 -0.5165 -0.6836
78426SOL    HW247258   6.739   7.585   0.489  1.0121 -0.2305  2.2468
78427SOL     OW47259   0.008   7.538   5.416 -0.2587 -0.0501 -0.3481
78427SOL    HW147260  -0.063   7.537   5.352 -0.7731  1.1238  0.1737
78427SOL    HW247261   0.052   7.454   5.404 -0.1815  0.2273 -2.4054
78428SOL     OW47262   1.759  10.949   5.945  0.1372 -0.2247 -0.4147
78428SOL    HW147263   1.794  10.995   5.869 -1.0778 -0.4948 -1.1620
78428SOL    HW247264   1.833  10.901   5.981  1.1568  1.3442 -0.3267
78429SOL     OW47265  11.330  10.112   8.280  0.1492 -0.2575  0.6278
78429SOL    HW147266  11.422  10.131   8.263 -0.4964  0.4555 -2.7000
78429SOL    HW247267  11.321  10.018   8.261 -0.2738  0.2378 -1.9701
78430SOL     OW47268   2.840   0.419  12.052  0.4100 -0.6418  0.0127
78430SOL    HW147269   2.810   0.383  12.136  1.9617  0.8503  1.2878
78430SOL    HW247270   2.933   0.399  12.049  0.6002  0.3004 -0.8195
78431SOL     OW47271   6.399  14.018   7.501 -0.5794 -0.4088 -0.2025
78431SOL    HW147272   6.360  14.100   7.469 -1.5947  0.1466  2.2295
78431SOL    HW247273   6.490  14.040   7.520 -0.3740 -0.3516 -1.1670
78432SOL     OW47274   0.866  12.642  10.326  0.0517  0.0359 -0.1655
78432SOL    HW147275   0.946  12.643  10.273  0.0576 -3.2205 -0.4311
78432SOL    HW247276   0.893  12.674  10.412  1.3109  0.3056 -0.6395
78433SOL     OW47277   7.332   1.905   1.945  0.0321 -0.5493 -0.0663
78433SOL    HW147278   7.257   1.964   1.947  0.0151 -0.5504 -0.6319
78433SOL    HW247279   7.341   1.875   2.035 -1.5019 -1.6403 -0.2354
78434SOL     OW47280  10.669   2.137   0.018  0.0391  0.4065 -0.1195
78434SOL    HW147281  10.627   2.131   0.103  0.5595  1.1524  0.2019
78434SOL    HW247282  10.757   2.171   0.037  0.6574 -0.7280 -0.8115
78435SOL     OW47283  12.319  11.972   7.302 -0.5457 -0.1224  0.1590
78435SOL    HW147284  12.328  12.054   7.351 -0.3372 -0.1180  0.1168
78435SOL    HW247285  12.387  11.916   7.338 -1.5547 -0.7544  1.1214
78436SOL     OW47286   4.601  10.344  11.387  0.0125 -0.1175  0.0940
78436SOL    HW147287   4.548  10.312  11.461  0.3186 -0.7930  0.0307
78436SOL    HW247288   4.607  10.438  11.401 -0.5873 -0.1307  0.5098
78437SOL     OW47289  10.813   5.295   2.351  0.2753  0.0246 -0.1194
78437SOL    HW147290  10.766   5.278   2.433  0.4338  1.6045  0.3423
78437SOL    HW247291  10.743   5.307   2.286  0.1495 -1.1967 -0.2336
78438SOL     OW47292   4.762  13.439   3.871 -0.4169 -0.2822 -0.1826
78438SOL    HW147293   4.782  13.507   3.936  0.0466 -2.4550  2.1058
78438SOL    HW247294   4.848  13.411   3.840 -0.6522  1.2302 -2.3842
78439SOL     OW47295   5.471  10.106   8.459  0.1630 -0.1185  0.1115
78439SOL    HW147296   5.542  10.098   8.396  0.3339 -1.1175  0.4068
78439SOL    HW247297   5.394  10.126   8.406  0.3518 -0.6984 -0.3965
78440SOL     OW47298   3.167   3.758  10.522  0.4396  0.1750 -0.3783
78440SOL    HW147299   3.169   3.849  10.551 -1.7390  0.2303 -0.2589
78440SOL    HW247300   3.081   3.747  10.482  0.2626 -2.0885  0.4837
78441SOL     OW47301  13.994  10.919   7.650  0.8561  0.0295 -0.1273
78441SOL    HW147302  13.992  10.900   7.744  0.0780  0.3017 -0.0859
78441SOL    HW247303  13.934  10.855   7.612  1.4060 -0.2820 -0.4815
78442SOL     OW47304   3.232   1.008   1.285 -0.1368 -0.0834  0.1310
78442SOL    HW147305   3.225   1.040   1.375 -0.4743  0.0219  0.0703
78442SOL    HW247306   3.230   1.086   1.230  0.0573 -0.1477  0.0310
78443SOL     OW47307   0.213   3.304  10.578 -0.7416 -0.1602 -0.7456
78443SOL    HW147308   0.204   3.396  10.603 -0.6680  0.7968 -3.8010
78443SOL    HW247309   0.124   3.276  10.556 -0.4562  0.0439 -2.3016
78444SOL     OW47310   4.662   0.977  13.993  0.2443  0.0180 -0.1064
78444SOL    HW147311   4.708   0.899  14.023  0.6834  0.2684 -0.1211
78444SOL    HW247312   4.641   0.959  13.902  1.0186  0.2168 -0.3341
78445SOL     OW47313  12.745   6.263  13.062  0.4440  0.6696  0.2347
78445SOL    HW147314  12.722   6.334  13.002 -0.9907 -1.2931 -1.6779
78445SOL    HW247315  12.663   6.244  13.109  0.5670 -0.2963  0.0760
78446SOL     OW47316  10.115   1.293   4.831  0.2301  0.2076  0.0488
78446SOL    HW147317  10.092   1.217   4.884 -3.2548  0.4438 -0.9331
78446SOL    HW247318  10.077   1.367   4.877 -0.2915  0.7712 -1.2302
78447SOL     OW47319   5.215   3.815   3.040  0.4651  0.0849  0.3727
78447SOL    HW147320   5.180   3.751   3.102  1.1863  1.6345  2.4950
78447SOL    HW247321   5.172   3.898   3.064 -0.0555  0.5552 -1.9459
78448SOL     OW47322   1.789   0.177   5.497  0.1058  0.3555 -0.7898
78448SOL    HW147323   1.773   0.197   5.405  0.0678  2.9743 -0.2942
78448SOL    HW247324   1.705   0.145   5.529  0.0022 -0.1807 -1.5681
78449SOL     OW47325  11.226   9.674   1.423 -0.0725 -0.5534 -0.3997
78449SOL    HW147326  11.164   9.699   1.354  1.4137  0.7653 -1.3348
78449SOL    HW247327  11.308   9.656   1.376  1.3206  1.5318  1.0527
78450SOL     OW47328   8.459   6.687   9.541  0.2037 -0.2270  0.2840
78450SOL    HW147329   8.411   6.616   9.584 -0.9530  0.5993  0.4147
78450SOL    HW247330   8.451   6.669   9.447 -2.5153  1.1411  0.1490
78451SOL     OW47331   1.142   8.049   7.279 -0.2157  0.1032  0.2774
78451SOL    HW147332   1.135   8.031   7.185 -3.4372  1.1647  0.1937
78451SOL    HW247333   1.209   8.118   7.285 -1.0438  1.1207 -1.4448
78452SOL     OW47334   7.458  10.811  13.818  0.8994 -0.1168 -0.2506
78452SOL    HW147335   7.389  10.787  13.757  1.4617 -0.7964 -0.6365
78452SOL    HW247336   7.494  10.893  13.783 -0.2832  0.7418  0.4539
78453SOL     OW47337   8.386   5.111   6.053  0.2919 -0.4783  0.2030
78453SOL    HW147338   8.442   5.169   6.106 -1.1387  0.1401  1.0856
78453SOL    HW247339   8.393   5.146   5.964  2.2482 -1.1587  0.0293
78454SOL     OW47340   9.001   4.087   3.961 -0.3137  0.2297 -0.3708
78454SOL    HW147341   8.945   4.043   4.026 -1.7104  1.1940 -0.8863
78454SOL    HW247342   9.086   4.044   3.971 -1.2228 -1.5503  0.1792
78455SOL     OW47343  13.502   9.972   6.079 -0.2464 -0.2156 -0.2938
78455SOL    HW147344  13.583   9.928   6.055  0.3427 -0.6134  2.1897
78455SOL    HW247345  13.501  10.051   6.025  1.0143 -0.9385 -1.4346
78456SOL     OW47346   8.405   3.095   8.688 -0.1882  0.0586 -0.1384
78456SOL    HW147347   8.374   3.154   8.619  0.4239  1.6527  0.8822
78456SOL    HW247348   8.388   3.144   8.769  0.6038 -1.0717  0.7259
78457SOL     OW47349  13.160  11.846   2.657  0.3774  0.2438 -0.0863
78457SOL    HW147350  13.138  11.756   2.630  0.7964  0.8215 -2.5740
78457SOL    HW247351  13.075  11.888   2.668  0.1453  0.3332 -1.9385
78458SOL     OW47352  13.185  10.380  10.108  0.4244 -0.3608  0.2431
78458SOL    HW147353  13.094  10.355  10.123  0.6736 -1.1407  0.5004
78458SOL    HW247354  13.234  10.298  10.113  1.2940  0.1901  1.3019
78459SOL     OW47355   1.644   3.105  12.455  1.3854 -0.1955  0.4544
78459SOL    HW147356   1.579   3.078  12.390  0.4778  0.2631  1.1307
78459SOL    HW247357   1.704   3.032  12.462  0.6322 -0.8574  0.1727
78460SOL     OW47358   6.122   7.967   4.327 -0.3133  0.6517 -0.8574
78460SOL    HW147359   6.080   7.911   4.263 -1.9823  0.9938 -0.1179
78460SOL    HW247360   6.103   7.925   4.411 -1.0931  1.9773 -0.3396
78461SOL     OW47361   2.674   7.303   8.835  0.5522 -0.3016  0.2520
78461SOL    HW147362   2.683   7.380   8.892  0.4624 -0.2756  0.2315
78461SOL    HW247363   2.725   7.235   8.878  1.3041 -0.0008 -0.1483
78462SOL     OW47364   1.591  12.611   6.091  0.0016  0.0453  0.2781
78462SOL    HW147365   1.683  12.627   6.069 -0.4217  0.1433 -1.5616
78462SOL    HW247366   1.592  12.592   6.185  1.7912  0.8244  0.4541
78463SOL     OW47367  10.387  13.734   9.298  0.6182 -0.1797  0.1182
78463SOL    HW147368  10.384  13.730   9.202  0.9891 -2.2280  0.1351
78463SOL    HW247369  10.472  13.696   9.321  0.1423 -0.5819  1.2788
78464SOL     OW47370   0.495   2.423   2.371 -0.2012 -0.0431 -0.0783
78464SOL    HW147371   0.562   2.488   2.392  0.2325 -0.5965  0.2701
78464SOL    HW247372   0.508   2.353   2.435 -0.7055 -0.4441 -0.4050
78465SOL     OW47373   7.711  13.715   8.471 -0.1918 -0.7471  0.0845
78465SOL    HW147374   7.622  13.750   8.481 -0.2067 -0.2846 -1.4034
78465SOL    HW247375   7.768  13.786   8.501 -0.2956 -0.7448  0.2805
78466SOL     OW47376  13.494   6.487  10.902  0.6920 -0.1686 -0.0017
78466SOL    HW147377  13.508   6.477  10.996 -0.7738 -0.8564  0.1776
78466SOL    HW247378  13.519   6.578  10.883  1.5499 -0.1929  0.9255
78467SOL     OW47379   7.110   5.275   7.319  0.5310 -0.6531 -0.4941
78467SOL    HW147380   7.194   5.320   7.311  1.0616 -1.8564 -2.0589
78467SOL    HW247381   7.092   5.275   7.413  1.7646  0.5231 -0.2311
78468SOL     OW47382   2.214   1.316   1.998 -0.6037 -0.0370 -0.7413
78468SOL    HW147383   2.303   1.281   1.994 -1.7073 -3.0520 -1.3626
78468SOL    HW247384   2.185   1.319   1.907 -0.5344  2.9075 -0.7606
78469SOL     OW47385   2.263   6.886   1.845  0.0368  0.2289 -0.1802
78469SOL    HW147386   2.201   6.864   1.775 -0.6456 -0.4193  0.6048
78469SOL    HW247387   2.222   6.958   1.892  0.5235  0.7042 -0.4739
78470SOL     OW47388   9.877   3.713  12.458 -0.0847  0.8553  0.1210
78470SOL    HW147389   9.915   3.685  12.374  0.5866  2.5381 -0.1805
78470SOL    HW247390   9.826   3.638  12.487 -0.8950  0.4295 -2.1378
78471SOL     OW47391   7.448  13.736   1.264 -0.1361 -0.2764 -0.0480
78471SOL    HW147392   7.407  13.748   1.350 -0.1312  0.2522 -0.1185
78471SOL    HW247393   7.376  13.711   1.206  0.0034 -1.5215  0.2929
78472SOL     OW47394   9.913  13.633   6.296  0.0150 -0.1733  0.5430
78472SOL    HW147395   9.821  13.613   6.313 -0.0405 -0.6323 -0.2657
78472SOL    HW247396   9.961  13.558   6.332 -0.0562 -0.7953 -0.6140
78473SOL     OW47397   5.590  11.064  10.384  0.0839 -0.0075 -0.2584
78473SOL    HW147398   5.600  10.972  10.408 -1.5711 -0.1119  0.1848
78473SOL    HW247399   5.526  11.098  10.447  0.6117  1.4362 -0.4616
78474SOL     OW47400   2.887   7.515   0.308  0.1414  0.3803  0.0070
78474SOL    HW147401   2.893   7.590   0.366  1.5950 -0.1085  0.5555
78474SOL    HW247402   2.936   7.542   0.230  1.1269 -0.1531  0.4203
78475SOL     OW47403   5.302   3.808  13.090  0.0852 -0.3988 -0.0728
78475SOL    HW147404   5.393   3.785  13.108  0.1461 -0.2888 -0.2325
78475SOL    HW247405   5.307   3.888  13.036 -0.1366  0.4359  1.1011
78476SOL     OW47406   1.052   4.517   2.178 -0.0474 -0.0069 -0.1302
78476SOL    HW147407   0.988   4.543   2.245  0.4189 -1.0616  0.7563
78476SOL    HW247408   0.998   4.484   2.106 -0.5284 -0.2755  0.3403
78477SOL     OW47409   8.834  13.196   8.651  0.5730  0.2174 -0.0827
78477SOL    HW147410   8.827  13.272   8.594 -0.3539 -0.6411 -1.1692
78477SOL    HW247411   8.801  13.226   8.736  0.9599  1.2197 -0.2735
78478SOL     OW47412   2.703   5.410   3.159 -0.0210 -0.2197  0.1752
78478SOL    HW147413   2.693   5.490   3.211  0.2951 -0.2092  0.2238
78478SOL    HW247414   2.717   5.441   3.069  0.8629 -0.1962  0.3160
78479SOL     OW47415   1.002   5.341   7.633 -0.1038 -0.0971 -0.0041
78479SOL    HW147416   0.925   5.285   7.625 -0.0419 -0.2496  0.4228
78479SOL    HW247417   0.974   5.412   7.691 -0.0804  0.1322 -0.2719
78480SOL     OW47418   4.035   9.358   0.124 -0.1535  0.6766 -0.5045
78480SOL    HW147419   4.072   9.447   0.124 -0.8101  1.0029 -2.3825
78480SOL    HW247420   4.111   9.301   0.126  0.2682  1.2087  1.8898
78481SOL     OW47421  11.222   7.534   9.822  0.0323  0.2756 -0.0869
78481SOL    HW147422  11.208   7.474   9.748  1.3513 -0.4996  0.2664
78481SOL    HW247423  11.316   7.533   9.836 -0.0894  1.2977  0.8877
78482SOL     OW47424   9.454   9.486  10.673  0.0679  0.0069  0.7965
78482SOL    HW147425   9.514   9.451  10.740  2.9651 -0.1120 -1.6420
78482SOL    HW247426   9.388   9.418  10.663  0.2776 -0.5339  2.6130
78483SOL     OW47427   6.115   1.965   0.884 -0.2573  0.0403  0.3119
78483SOL    HW147428   6.129   1.987   0.976 -0.2556  0.0421  0.3112
78483SOL    HW247429   6.021   1.946   0.877 -0.6646  2.0122 -0.1124
78484SOL     OW47430   5.813   6.555   0.666  0.0138 -0.0166 -0.3299
78484SOL    HW147431   5.836   6.466   0.694  1.4790  0.6905  0.8229
78484SOL    HW247432   5.788   6.545   0.574 -3.5191 -2.1949  0.6805
78485SOL     OW47433   2.261   5.770  11.097 -0.1742 -0.4659 -0.2643
78485SOL    HW147434   2.242   5.689  11.144  1.9172 -0.6690  0.3608
78485SOL    HW247435   2.190   5.830  11.121 -1.7753 -2.0895 -0.7643
78486SOL     OW47436   6.087  14.009   4.523  0.3491 -0.3354 -0.0272
78486SOL    HW147437   6.048  14.023   4.610 -2.4656 -0.5851 -1.1427
78486SOL    HW247438   6.016  13.971   4.471  1.9943 -0.3211 -2.4154
78487SOL     OW47439  10.754   4.885   0.394  0.0431  0.1217 -0.1160
78487SOL    HW147440  10.716   4.797   0.400 -0.2451  0.1914 -0.9492
78487SOL    HW247441  10.844   4.869   0.363 -0.9000  0.2847 -3.2040
78488SOL     OW47442  11.150  12.066   8.262  0.2127  0.7827  0.0400
78488SOL    HW147443  11.198  12.149   8.262 -1.1557  1.6110 -0.6800
78488SOL    HW247444  11.113  12.060   8.174  0.5084 -0.7378 -0.0097
78489SOL     OW47445  12.769   7.671   6.334 -0.4310 -1.1010  0.3434
78489SOL    HW147446  12.851   7.642   6.374 -0.0597  2.7730  2.9832
78489SOL    HW247447  12.701   7.639   6.394 -0.5421 -1.4685  0.0204
78490SOL     OW47448   8.130  13.580  12.037  0.4499 -0.3469  0.6068
78490SOL    HW147449   8.177  13.500  12.063  0.8899  0.0409  1.0096
78490SOL    HW247450   8.130  13.635  12.114  0.6036  0.2640  0.1774
78491SOL     OW47451   2.623   8.766   2.536  0.5512 -0.0060 -0.4680
78491SOL    HW147452   2.551   8.704   2.551 -0.8884  1.5020 -0.8107
78491SOL    HW247453   2.675   8.762   2.617 -1.1434  0.4059  0.6991
78492SOL     OW47454  10.832   0.074   6.417  0.1846  0.2549  0.2032
78492SOL    HW147455  10.885   0.009   6.462  2.3605  0.3044 -2.0381
78492SOL    HW247456  10.877   0.157   6.434 -0.6847  0.6869  0.4007
78493SOL     OW47457   6.207   3.360   3.820 -0.2129  0.1756  0.1038
78493SOL    HW147458   6.150   3.358   3.743  0.5654  0.0249 -0.4866
78493SOL    HW247459   6.152   3.330   3.892 -1.3032  1.4668 -0.1515
78494SOL     OW47460   0.506   1.133   7.996  0.3714  0.4108 -0.1197
78494SOL    HW147461   0.550   1.217   7.989 -0.2362  0.7804  0.4019
78494SOL    HW247462   0.481   1.127   8.088  1.5557 -0.9225  0.1493
78495SOL     OW47463  11.319   0.751   1.318  0.5068  0.0716 -0.4388
78495SOL    HW147464  11.252   0.683   1.314  0.7931 -0.2973  0.7007
78495SOL    HW247465  11.297   0.811   1.247 -0.9833 -0.0868 -0.1349
78496SOL     OW47466   1.389  11.233   6.863  0.5671 -0.7551  0.0034
78496SOL    HW147467   1.391  11.287   6.784 -0.0763 -0.7271  0.0007
78496SOL    HW247468   1.423  11.148   6.835  0.2675 -0.7681 -0.3310
78497SOL     OW47469   2.849  12.758   4.497 -0.5387  0.4085 -0.3829
78497SOL    HW147470   2.810  12.830   4.545 -0.6725  0.1703 -0.1317
78497SOL    HW247471   2.802  12.756   4.413 -0.9485  0.2373 -0.1540
78498SOL     OW47472   7.913   7.100   5.592  0.0674  0.0393 -0.7601
78498SOL    HW147473   7.858   7.027   5.565  0.5807 -0.3057 -0.8888
78498SOL    HW247474   7.950   7.134   5.511  0.9891 -0.5012 -0.5852
78499SOL     OW47475   9.494  11.919   6.143  0.6690  0.3212  0.2650
78499SOL    HW147476   9.512  11.858   6.072  0.9495 -0.4227  0.9555
78499SOL    HW247477   9.399  11.917   6.154  0.7217 -0.3409  0.5900
78500SOL     OW47478   7.081  13.218   9.672 -0.9132  0.1717  0.0376
78500SOL    HW147479   7.142  13.172   9.614  1.2286  1.5373  1.0911
78500SOL    HW247480   7.057  13.152   9.737  1.4049  0.1533  0.9990
78501SOL     OW47481   3.344  10.766  11.122 -0.4160  0.3616  0.1513
78501SOL    HW147482   3.379  10.844  11.166  1.9450 -0.1768 -0.5854
78501SOL    HW247483   3.324  10.705  11.193  0.2901  0.6841  0.6422
78502SOL     OW47484   6.731  13.534  12.831 -0.0389 -0.1393  0.1154
78502SOL    HW147485   6.748  13.481  12.753 -1.2050  0.3173 -0.4820
78502SOL    HW247486   6.649  13.580  12.811 -2.2995 -2.5563  2.8745
78503SOL     OW47487   7.053  10.337   9.174 -0.3485  0.4095 -0.4616
78503SOL    HW147488   7.033  10.361   9.084  0.1235 -1.6413 -1.1502
78503SOL    HW247489   6.993  10.390   9.226 -0.2787  2.0029 -1.9247
78504SOL     OW47490   2.722   1.322   0.305 -0.2881  0.1049 -0.3489
78504SOL    HW147491   2.642   1.353   0.347  1.2532  1.8790  1.4549
78504SOL    HW247492   2.697   1.307   0.214 -2.6038  0.8169  0.1201
78505SOL     OW47493   2.749   1.632   0.818  0.3504 -0.4225 -0.2391
78505SOL    HW147494   2.713   1.708   0.774  1.2572 -0.3626 -0.8924
78505SOL    HW247495   2.842   1.632   0.796  0.4236 -1.5581 -0.0243
78506SOL     OW47496   5.530   1.339   3.180  0.1143  0.4117  0.8620
78506SOL    HW147497   5.501   1.274   3.116 -1.3538  1.8449  0.0049
78506SOL    HW247498   5.617   1.366   3.149 -0.0526  0.1838  0.1766
78507SOL     OW47499  12.833  12.486  12.716  0.0161  0.2768 -0.9233
78507SOL    HW147500  12.880  12.533  12.785  1.1957 -0.1289 -1.4286
78507SOL    HW247501  12.744  12.476  12.750  0.5406  0.1949  0.4756
78508SOL     OW47502  13.059   8.030  11.944 -0.5978  0.1466 -0.0322
78508SOL    HW147503  13.036   7.943  11.912  2.2259  0.1552 -2.6058
78508SOL    HW247504  13.076   8.018  12.037 -0.6428 -1.9931 -0.2524
78509SOL     OW47505   5.224   6.037   8.841 -0.3615 -0.5884  0.4849
78509SOL    HW147506   5.249   6.125   8.869 -0.0685 -0.6557  0.4316
78509SOL    HW247507   5.131   6.044   8.821 -0.2585 -0.2041  0.1369
78510SOL     OW47508  10.319   7.434   4.555  0.9188  0.3763 -0.7759
78510SOL    HW147509  10.350   7.515   4.515 -0.9719  1.4411 -0.1875
78510SOL    HW247510  10.378   7.420   4.629  0.1267  2.3345  0.3084
78511SOL     OW47511   9.016   2.137   9.822  0.2831 -0.9376  0.4775
78511SOL    HW147512   8.991   2.214   9.872 -1.9335 -1.5667  0.4654
78511SOL    HW247513   9.023   2.168   9.732 -0.5458 -0.7104  0.4807
78512SOL     OW47514   2.863   8.113   3.587  0.3931  0.0996  0.6837
78512SOL    HW147515   2.937   8.173   3.582  0.7831 -0.4155  0.1722
78512SOL    HW247516   2.798   8.159   3.639  0.9496  0.6886  0.8629
78513SOL     OW47517  13.975  10.193  11.541 -0.3092 -0.3588 -0.0703
78513SOL    HW147518  14.002  10.173  11.452 -0.3015 -0.7557  0.0201
78513SOL    HW247519  14.026  10.270  11.565 -1.6206  0.8732 -1.0455
78514SOL     OW47520   9.393  11.918   9.456 -0.2176 -0.4552 -0.1562
78514SOL    HW147521   9.451  11.949   9.526  0.5997 -0.8736 -0.6289
78514SOL    HW247522   9.448  11.920   9.377 -1.1610  0.1395 -0.8269
78515SOL     OW47523   2.199   6.803   5.229  0.2051 -0.5920  0.4485
78515SOL    HW147524   2.229   6.718   5.198 -2.3215 -1.0916 -0.9476
78515SOL    HW247525   2.107   6.789   5.252 -0.5606  1.9362 -0.7115
78516SOL     OW47526   2.453   3.189   8.557 -0.0901  0.5273 -0.6490
78516SOL    HW147527   2.387   3.258   8.554 -2.6054 -1.6996 -0.3471
78516SOL    HW247528   2.493   3.197   8.644 -1.2571  0.8500 -0.1237
78517SOL     OW47529   2.588  11.146   0.089 -0.6056  0.2691 -0.7358
78517SOL    HW147530   2.543  11.115   0.010 -0.2764  0.1844 -0.8915
78517SOL    HW247531   2.647  11.214   0.058 -1.0722  0.8212 -0.4414
78518SOL     OW47532   4.748   5.478  11.441  0.5915  0.0214  0.5603
78518SOL    HW147533   4.706   5.466  11.355  1.2827 -1.4503  0.3895
78518SOL    HW247534   4.811   5.549  11.427 -0.5583  1.0465  0.3622
78519SOL     OW47535   0.688   5.473   0.921 -0.4026  0.4687 -0.6968
78519SOL    HW147536   0.756   5.535   0.896 -1.6580  1.8493 -0.8023
78519SOL    HW247537   0.657   5.504   1.005  0.8241 -1.6695  0.6553
78520SOL     OW47538   9.302   1.851   4.399  0.0598 -0.2380 -0.2795
78520SOL    HW147539   9.388   1.890   4.411 -0.7014  0.8810  2.1391
78520SOL    HW247540   9.268   1.839   4.488 -2.1551 -0.9420 -1.1401
78521SOL     OW47541   5.369   2.253  12.445  0.4196  0.4550 -0.5691
78521SOL    HW147542   5.436   2.314  12.413  1.2478 -0.5210 -0.7149
78521SOL    HW247543   5.344   2.202  12.369 -0.8785  1.1400 -0.6306
78522SOL     OW47544   5.106  10.989   8.811 -0.2617  0.2885 -0.5827
78522SOL    HW147545   5.047  10.924   8.773 -0.6396 -0.2196  0.8158
78522SOL    HW247546   5.075  11.073   8.777 -0.3053 -0.1675 -1.7181
78523SOL     OW47547   4.630  12.531   6.003  0.6172  0.6530 -0.1440
78523SOL    HW147548   4.562  12.538   5.937 -1.6805 -1.2936  1.8344
78523SOL    HW247549   4.593  12.572   6.081  2.1827  0.5844  0.6807
78524SOL     OW47550   8.452  12.027   0.499 -0.2044 -0.0399  0.0912
78524SOL    HW147551   8.506  11.978   0.561  0.0540  0.9932  0.7141
78524SOL    HW247552   8.473  12.119   0.517 -0.2965  0.2940 -1.3741
78525SOL     OW47553  13.778  13.316   5.209  0.2231  0.4246 -0.6055
78525SOL    HW147554  13.836  13.340   5.282 -0.7764 -1.1435  0.7666
78525SOL    HW247555  13.736  13.399   5.185 -2.4995  0.5335  3.4215
78526SOL     OW47556  10.471   2.334   6.113  0.5824 -0.1856 -0.2205
78526SOL    HW147557  10.439   2.356   6.025 -0.5137 -0.4372  0.0977
78526SOL    HW247558  10.465   2.239   6.118 -0.4380 -0.1006  0.5052
78527SOL     OW47559  13.723   8.891   1.573 -0.4864 -0.2222 -0.2786
78527SOL    HW147560  13.703   8.941   1.652  1.1169 -0.1799  0.1374
78527SOL    HW247561  13.693   8.802   1.593 -1.9213  0.2102 -0.4230
78528SOL     OW47562   8.380  10.422  11.245 -0.4329  0.4142 -0.4635
78528SOL    HW147563   8.332  10.455  11.321 -0.6313 -0.0525 -0.3855
78528SOL    HW247564   8.314  10.417  11.176  0.0061  2.0783 -1.0516
78529SOL     OW47565  13.209   0.136   3.738  0.4108  0.0843 -0.1290
78529SOL    HW147566  13.287   0.135   3.681  0.4005 -0.1515 -0.1386
78529SOL    HW247567  13.166   0.053   3.720  0.1446  0.2246 -0.1370
78530SOL     OW47568  10.347   6.460   7.205  0.4069  0.8663  0.1446
78530SOL    HW147569  10.350   6.440   7.111 -1.8200  1.7944 -0.1879
78530SOL    HW247570  10.308   6.547   7.209 -0.6178  0.3610  1.9664
78531SOL     OW47571   6.395  13.397   7.904 -0.8376 -0.9229  0.1690
78531SOL    HW147572   6.397  13.419   7.997  2.3573  1.2836 -0.2430
78531SOL    HW247573   6.337  13.464   7.865 -0.2868 -0.3515  0.3149
78532SOL     OW47574  11.683  10.464   5.910 -0.4056 -0.1848  0.1849
78532SOL    HW147575  11.610  10.407   5.932 -0.7173  0.2295  0.2351
78532SOL    HW247576  11.732  10.474   5.992 -0.9357  0.4550  0.4277
78533SOL     OW47577  12.700   2.790   9.281 -0.1642  0.3419  0.0523
78533SOL    HW147578  12.734   2.874   9.250 -1.2747  1.3251  1.3809
78533SOL    HW247579  12.686   2.803   9.375  2.0660 -2.1589  0.8548
78534SOL     OW47580  12.522  10.863  11.983  0.0277  0.6129 -0.4967
78534SOL    HW147581  12.476  10.947  11.986  0.6890  1.0087 -0.9882
78534SOL    HW247582  12.510  10.833  11.893  0.5254  0.6070 -0.5634
78535SOL     OW47583   5.358   5.155   3.350  0.0718  0.2834  0.1616
78535SOL    HW147584   5.328   5.098   3.279  2.2887 -1.7696  0.7412
78535SOL    HW247585   5.334   5.243   3.322  0.1136 -0.5196 -2.7398
78536SOL     OW47586  13.907   9.994   1.338 -0.1195  0.2654 -0.0718
78536SOL    HW147587  13.952  10.065   1.294  0.1079  0.6095  0.6943
78536SOL    HW247588  13.858   9.950   1.269 -0.9790  1.7060 -0.4240
78537SOL     OW47589   8.190   1.162  12.453 -0.1443  1.4774 -0.0461
78537SOL    HW147590   8.161   1.195  12.538  1.3357 -0.2735  1.2293
78537SOL    HW247591   8.117   1.108  12.422 -0.5833  1.9070  0.2249
78538SOL     OW47592   4.319   1.840   7.079  0.7099  0.0508 -0.0656
78538SOL    HW147593   4.255   1.877   7.141  1.3153  1.0507 -0.0084
78538SOL    HW247594   4.374   1.783   7.132  1.7808  1.5730  0.5636
78539SOL     OW47595   1.053  10.996   1.936 -0.6399 -0.2513 -0.1707
78539SOL    HW147596   1.020  10.936   2.002 -0.5905 -1.1295 -0.9266
78539SOL    HW247597   1.121  11.046   1.981 -0.2875 -1.1553  0.3230
78540SOL     OW47598  11.936   6.562   7.887 -0.0580  0.6569 -0.1469
78540SOL    HW147599  11.872   6.628   7.859 -0.8222  1.3804  2.9536
78540SOL    HW247600  11.885   6.483   7.900  0.1839  0.4824 -0.2490
78541SOL     OW47601   5.429   8.496   8.608 -0.0644 -0.7170  0.3658
78541SOL    HW147602   5.412   8.511   8.701 -1.6617 -2.6704  0.4686
78541SOL    HW247603   5.349   8.453   8.576  0.3177  0.1893 -1.9980
78542SOL     OW47604   5.535  11.949   6.447  0.3613  0.3835  0.5121
78542SOL    HW147605   5.528  11.857   6.420  1.3421  0.8151 -1.4528
78542SOL    HW247606   5.451  11.988   6.424  0.3086  0.1841  0.3642
78543SOL     OW47607  13.099   1.117  12.248  0.3937 -0.4918  0.2991
78543SOL    HW147608  13.121   1.152  12.162 -0.4946  1.5178  0.8476
78543SOL    HW247609  13.092   1.022  12.234  1.9715 -0.4024 -1.4345
78544SOL     OW47610   7.341   3.294  10.856 -0.0482 -0.1522  0.1920
78544SOL    HW147611   7.376   3.290  10.767  0.3005 -1.0457  0.3562
78544SOL    HW247612   7.295   3.210  10.868  3.7529 -2.1904  2.3865
78545SOL     OW47613   2.873  13.633  10.200  0.1436 -0.2888 -0.2415
78545SOL    HW147614   2.848  13.720  10.170  1.1545 -0.5335 -1.9498
78545SOL    HW247615   2.793  13.581  10.194  0.1379 -0.1332 -1.8830
78546SOL     OW47616   7.617   3.767   0.991 -0.0763 -0.6071 -0.3899
78546SOL    HW147617   7.652   3.774   0.903  0.9670  0.3983  0.0815
78546SOL    HW247618   7.687   3.729   1.043 -0.0677  0.3273  0.3259
78547SOL     OW47619   3.221   4.680  11.921 -0.4483  0.2288  0.3518
78547SOL    HW147620   3.258   4.594  11.902 -1.7664 -0.5342  1.1216
78547SOL    HW247621   3.134   4.680  11.882 -1.5587  0.1492  2.6203
78548SOL     OW47622  13.292   8.748   1.304 -0.5319 -0.2498  0.7758
78548SOL    HW147623  13.320   8.781   1.218  0.6525  0.7890  1.5354
78548SOL    HW247624  13.262   8.659   1.286 -0.7187  0.0877 -0.7887
78549SOL     OW47625   7.127  12.226   2.416 -0.3494  0.1783 -0.4143
78549SOL    HW147626   7.152  12.134   2.422  0.7326  0.2686 -2.5214
78549SOL    HW247627   7.203  12.273   2.452 -1.7796  0.2985  2.7913
78550SOL     OW47628  10.206  14.024   8.794  0.2873 -0.2303  0.1500
78550SOL    HW147629  10.197  14.102   8.849  1.1705  0.5027 -0.7069
78550SOL    HW247630  10.292  13.988   8.817  0.1035 -0.6682  0.1699
78551SOL     OW47631   6.910   6.662  10.620 -0.4640 -0.2906  0.2536
78551SOL    HW147632   6.939   6.693  10.706 -1.7437 -0.6886  0.8540
78551SOL    HW247633   6.839   6.721  10.595  0.4351  0.3398 -0.9398
78552SOL     OW47634   0.921  11.415   5.717 -0.2706  0.4675  0.3999
78552SOL    HW147635   0.910  11.375   5.803 -0.7035 -0.4866 -0.0944
78552SOL    HW247636   1.016  11.419   5.705 -0.2175 -0.4371  0.4464
78553SOL     OW47637   9.595   5.924  10.483  0.3972  0.3821 -0.2214
78553SOL    HW147638   9.542   6.002  10.471  3.2268  3.2076  3.2024
78553SOL    HW247639   9.665   5.932  10.418  0.4055  0.4258 -0.2067
78554SOL     OW47640   9.646   7.907   5.284 -0.3086  0.4212  0.4840
78554SOL    HW147641   9.731   7.937   5.314 -0.0232 -0.9810  1.1520
78554SOL    HW247642   9.664   7.829   5.232 -1.1628  0.2515  0.4162
78555SOL     OW47643   3.831   3.814   6.416  0.1649 -0.0437 -0.2174
78555SOL    HW147644   3.860   3.901   6.442 -0.2832 -0.2401  1.0577
78555SOL    HW247645   3.882   3.793   6.338  3.1184 -0.1888  1.6090
78556SOL     OW47646  10.939  10.103  12.649  0.3390  0.3561  0.2516
78556SOL    HW147647  10.975  10.025  12.692  0.2027  0.6861  0.9796
78556SOL    HW247648  10.946  10.084  12.555  0.6206 -0.3897  0.4151
78557SOL     OW47649  11.630  12.979   3.307 -0.3673  0.0443 -0.5365
78557SOL    HW147650  11.568  12.909   3.332  0.9727 -0.7207  0.8124
78557SOL    HW247651  11.576  13.043   3.261 -2.0366 -0.9361 -0.0496
78558SOL     OW47652   8.993   9.997   0.185  0.0796 -0.8330  0.8194
78558SOL    HW147653   8.937  10.039   0.120  2.3526 -0.1285 -0.7918
78558SOL    HW247654   8.978   9.903   0.174 -0.6237 -0.6639  0.2995
78559SOL     OW47655   1.391  12.618   9.649  0.1043 -0.0982 -0.0347
78559SOL    HW147656   1.452  12.590   9.717  0.1927 -0.3100 -0.1988
78559SOL    HW247657   1.380  12.712   9.664  0.0740 -0.1530  0.3084
78560SOL     OW47658   5.238   9.196   5.705 -0.2026  0.2530 -0.4500
78560SOL    HW147659   5.181   9.121   5.727 -1.3970  0.5529 -2.2928
78560SOL    HW247660   5.186   9.273   5.728  0.2658  0.5264 -0.3012
78561SOL     OW47661   6.638   4.649  11.649  0.7340 -0.3639  0.1129
78561SOL    HW147662   6.553   4.693  11.647  0.2978 -1.1772 -1.5786
78561SOL    HW247663   6.661   4.644  11.742  0.0182  1.8501  0.4786
78562SOL     OW47664   2.587  13.492  13.329  0.9806 -0.0944 -0.2780
78562SOL    HW147665   2.564  13.479  13.421  2.0980 -0.2370 -0.0036
78562SOL    HW247666   2.509  13.534  13.290 -0.3019 -1.8947  0.2379
78563SOL     OW47667  10.326   5.928  11.487  0.9130 -0.3239 -0.3055
78563SOL    HW147668  10.296   5.851  11.440  0.2208 -0.3581  0.1780
78563SOL    HW247669  10.421   5.921  11.486  0.8710 -2.0707  1.1357
78564SOL     OW47670   5.813   1.942  10.299 -0.0469  0.1290 -0.4553
78564SOL    HW147671   5.755   1.893  10.240 -0.0228  0.9113 -1.1354
78564SOL    HW247672   5.814   2.031  10.264  1.6415  0.1143 -0.5099
78565SOL     OW47673  10.672   4.333   8.573 -0.3834 -0.6667 -0.2030
78565SOL    HW147674  10.614   4.388   8.625  1.5959  0.7132  0.6510
78565SOL    HW247675  10.756   4.337   8.618  0.6635 -1.8031 -1.9309
78566SOL     OW47676  12.009   7.740   6.170  0.1047  0.2945 -0.7444
78566SOL    HW147677  12.088   7.788   6.146  0.7746 -1.0170 -1.2092
78566SOL    HW247678  11.979   7.782   6.251 -0.4067  2.7105 -2.0841
78567SOL     OW47679  11.211   6.985   4.727  0.4308  0.5802 -0.4725
78567SOL    HW147680  11.215   7.006   4.634 -0.0509 -0.2783 -0.6985
78567SOL    HW247681  11.302   6.978   4.755  0.5757  0.4807 -0.9638
78568SOL     OW47682   7.436   9.439  14.000 -0.3899  0.0538 -0.0656
78568SOL    HW147683   7.368   9.411  14.061 -1.1544 -0.8832 -1.2892
78568SOL    HW247684   7.450   9.532  14.019 -1.0436 -0.0696  1.0951
78569SOL     OW47685  13.992  11.526   2.191 -0.0841  1.0504 -0.8065
78569SOL    HW147686  13.991  11.449   2.248  0.2828 -0.1539 -2.3621
78569SOL    HW247687  13.958  11.597   2.246 -3.0329 -0.7640 -0.0711
78570SOL     OW47688   5.885   2.534  13.693  0.1489 -0.4441  0.3939
78570SOL    HW147689   5.954   2.468  13.698 -0.6080 -1.6011 -2.4157
78570SOL    HW247690   5.922   2.603  13.637 -0.6344 -0.6413 -0.3764
78571SOL     OW47691  11.252   6.869   6.668 -0.3454  0.2951  0.0609
78571SOL    HW147692  11.190   6.875   6.741  1.1885 -2.6118  1.7791
78571SOL    HW247693  11.316   6.938   6.686  0.1498 -0.5332  1.6771
78572SOL     OW47694   4.795   3.723   6.114  0.2676  0.2434  0.2903
78572SOL    HW147695   4.853   3.795   6.092 -0.7800  1.6487  1.8286
78572SOL    HW247696   4.738   3.713   6.037  1.0892  0.3249 -0.3427
78573SOL     OW47697   1.067  13.760  13.305  0.0972 -0.3450  0.1630
78573SOL    HW147698   1.152  13.792  13.335 -0.1963 -0.0830  0.7393
78573SOL    HW247699   1.063  13.784  13.213 -0.1355  1.3663  0.5844
78574SOL     OW47700   2.415   0.051  12.459  0.1709 -0.3141 -0.5062
78574SOL    HW147701   2.355   0.064  12.532  2.7366  0.2131  1.6546
78574SOL    HW247702   2.484  -0.006  12.494  0.7291 -1.3224 -3.0130
78575SOL     OW47703  12.322  11.523   9.122 -0.7625 -0.5377 -0.2020
78575SOL    HW147704  12.413  11.527   9.091  0.5153 -0.9466  3.0372
78575SOL    HW247705  12.313  11.435   9.158 -1.7211  0.1821  1.3994
78576SOL     OW47706   3.919   0.787  13.836  0.2230  0.1851 -0.1719
78576SOL    HW147707   3.931   0.704  13.790 -0.3493 -1.5102  2.5006
78576SOL    HW247708   3.896   0.849  13.768  1.9481 -1.5168 -2.4654
78577SOL     OW47709   4.054  11.398   1.463 -0.3278 -0.4599 -0.3496
78577SOL    HW147710   4.077  11.449   1.386 -1.2896  1.1191  0.3407
78577SOL    HW247711   3.966  11.428   1.486  0.5777  0.4654  2.3748
78578SOL     OW47712  12.815   3.510   9.198  0.4627  0.6033 -0.5282
78578SOL    HW147713  12.769   3.531   9.279  1.0582  0.2445 -0.0847
78578SOL    HW247714  12.846   3.595   9.165  0.8244  0.6831  0.0021
78579SOL     OW47715   2.907   8.957   5.534  0.6659 -0.0862 -0.0303
78579SOL    HW147716   2.878   9.041   5.497  1.8991  2.4898  4.1113
78579SOL    HW247717   2.826   8.917   5.566  0.2736  0.6309 -0.0859
78580SOL     OW47718   4.087   8.685   9.742  0.3948  0.0038  0.4466
78580SOL    HW147719   4.016   8.675   9.805  0.9863  0.1728  1.1568
78580SOL    HW247720   4.091   8.601   9.696 -0.1177 -0.0801  0.5487
78581SOL     OW47721   7.558   4.925   1.541  0.4320  0.3842 -0.2222
78581SOL    HW147722   7.508   4.844   1.527  1.2908 -0.4521  1.2529
78581SOL    HW247723   7.562   4.965   1.454  0.5569 -1.4999 -1.1592
78582SOL     OW47724   5.900  10.842   9.411  0.1064 -0.0608 -0.7343
78582SOL    HW147725   5.935  10.927   9.439  0.5493  0.4429 -2.7125
78582SOL    HW247726   5.805  10.850   9.424  0.3129 -0.0312  0.9873
78583SOL     OW47727   6.698  11.909   8.731 -0.3230 -0.0912 -0.1335
78583SOL    HW147728   6.713  11.979   8.668 -1.9791  1.1862  0.7875
78583SOL    HW247729   6.610  11.877   8.711 -0.1313 -0.9578  0.3428
78584SOL     OW47730   7.786   6.047   1.752  0.2704  0.1233 -0.4865
78584SOL    HW147731   7.698   6.051   1.791  0.6761  2.0747  0.3533
78584SOL    HW247732   7.808   5.953   1.752 -0.9956 -0.2274  1.1855
78585SOL     OW47733  10.650   7.725   7.893 -0.2806  0.1815  0.7888
78585SOL    HW147734  10.676   7.745   7.983 -1.5747  0.8850  1.0363
78585SOL    HW247735  10.673   7.804   7.844  1.4052 -0.5988  0.2562
78586SOL     OW47736   2.829  12.582   6.725  0.3197 -0.3235 -0.0240
78586SOL    HW147737   2.850  12.495   6.690  2.0443  0.6549 -1.5792
78586SOL    HW247738   2.886  12.591   6.802 -0.6615 -0.9725  0.7955
78587SOL     OW47739  10.557  11.740   2.117 -0.0903 -0.7148  0.0729
78587SOL    HW147740  10.644  11.699   2.124 -0.1559 -1.5406 -2.7513
78587SOL    HW247741  10.520  11.704   2.037 -3.1824 -0.5388  1.2910
78588SOL     OW47742   9.725   2.273  10.809  0.3319 -0.2354 -0.3407
78588SOL    HW147743   9.692   2.235  10.727 -2.5555  0.1619  0.5374
78588SOL    HW247744   9.747   2.363  10.786 -1.3871  0.1683 -0.5254
78589SOL     OW47745   6.206  13.227   2.448  0.4120  0.1950 -0.0573
78589SOL    HW147746   6.301  13.227   2.463  0.3050  0.0632  0.6382
78589SOL    HW247747   6.178  13.315   2.470  0.2784  0.0438  0.3975
78590SOL     OW47748   9.569   5.920  13.741 -0.0059  0.2328  0.1479
78590SOL    HW147749   9.643   5.939  13.798  1.4646 -0.5413 -1.3893
78590SOL    HW247750   9.516   5.858  13.790  0.3370  0.8364  1.3073
78591SOL     OW47751   8.203   4.488   2.687  0.3555 -0.0145 -0.6912
78591SOL    HW147752   8.265   4.418   2.708  1.3012  0.8648 -0.4695
78591SOL    HW247753   8.163   4.460   2.605  1.2735 -0.4568 -1.0016
78592SOL     OW47754   5.169   0.543  13.907  0.3159 -0.4124 -0.5668
78592SOL    HW147755   5.250   0.594  13.918 -0.0751  0.1940 -0.4183
78592SOL    HW247756   5.114   0.569  13.981  1.0378 -2.9412  0.9799
78593SOL     OW47757   6.425   7.203   2.318 -0.4417  0.0053 -0.6021
78593SOL    HW147758   6.485   7.162   2.256 -0.3663  0.1639 -0.6353
78593SOL    HW247759   6.339   7.196   2.276 -0.5285 -0.7130 -0.3054
78594SOL     OW47760  13.152   0.704   8.400 -0.1467 -0.4387  0.4399
78594SOL    HW147761  13.059   0.685   8.412 -0.3482 -0.3465 -0.8167
78594SOL    HW247762  13.193   0.672   8.480 -0.8364 -3.5800 -0.2959
78595SOL     OW47763   4.353   5.358   0.903 -0.5358  0.1058  0.4462
78595SOL    HW147764   4.287   5.330   0.967  1.6237  2.0377  3.7975
78595SOL    HW247765   4.340   5.452   0.895 -2.4037 -0.2885 -4.2606
78596SOL     OW47766   3.069   3.910   7.313 -0.6891  0.3046 -0.1340
78596SOL    HW147767   3.054   3.982   7.376  0.1381 -0.3354  0.8257
78596SOL    HW247768   3.062   3.952   7.227 -1.1964  1.3416  0.3896
78597SOL     OW47769  11.612  11.151   4.599 -0.2016 -0.3513  0.5429
78597SOL    HW147770  11.621  11.056   4.591 -0.6600 -0.4642  1.2857
78597SOL    HW247771  11.702  11.183   4.606  0.2120 -0.3879 -2.8790
78598SOL     OW47772   0.430  11.948   0.625  0.9405  0.5084 -0.2514
78598SOL    HW147773   0.366  12.008   0.586  2.0129  0.8555 -1.5124
78598SOL    HW247774   0.382  11.866   0.637 -0.1274  1.1668  0.1427
78599SOL     OW47775  10.294   9.006   1.758  0.4442 -0.2125  0.1862
78599SOL    HW147776  10.217   9.062   1.770  0.1793 -0.2830 -1.0615
78599SOL    HW247777  10.258   8.923   1.726  1.0656 -0.1369 -0.7205
78600SOL     OW47778   4.252   4.335   1.975 -0.2500  0.0216  0.3104
78600SOL    HW147779   4.216   4.400   2.034  0.9665  1.6835 -0.6914
78600SOL    HW247780   4.176   4.297   1.931 -1.0744 -0.4029  2.0465
78601SOL     OW47781   9.743   3.562   0.146  0.5935  0.1057  0.1475
78601SOL    HW147782   9.798   3.515   0.209  1.0411  0.4630  0.0241
78601SOL    HW247783   9.666   3.588   0.196 -0.3011 -1.9162 -0.0853
78602SOL     OW47784   6.755   4.669   8.210  0.0543 -0.0870 -0.2830
78602SOL    HW147785   6.688   4.726   8.172  0.4899  0.8423  0.2882
78602SOL    HW247786   6.837   4.701   8.173  0.3723  0.1240  0.5759
78603SOL     OW47787   2.955   3.862   9.832  0.4573 -0.0038  0.1209
78603SOL    HW147788   2.975   3.776   9.869 -1.6656 -1.4639 -1.9009
78603SOL    HW247789   2.898   3.903   9.897  2.3371  0.4282  1.6040
78604SOL     OW47790   2.321   9.034   5.272 -1.0221 -0.0831  0.2707
78604SOL    HW147791   2.323   8.939   5.280  1.5709 -0.2832 -1.4080
78604SOL    HW247792   2.334   9.050   5.178 -3.5581  1.9711  0.1495
78605SOL     OW47793   2.665  12.453   8.798  0.4852  0.2226 -0.4349
78605SOL    HW147794   2.599  12.421   8.859 -1.0966  3.5515 -0.1539
78605SOL    HW247795   2.615  12.498   8.730  2.3635 -0.4471 -2.3835
78606SOL     OW47796   8.382   7.382   8.911  0.3410  0.0381 -0.2397
78606SOL    HW147797   8.395   7.300   8.864 -0.6645 -1.2304  1.5402
78606SOL    HW247798   8.452   7.383   8.976  1.3833  1.4814 -1.3495
78607SOL     OW47799   7.242   3.341   2.243 -0.5790  0.6410  0.2079
78607SOL    HW147800   7.256   3.247   2.229 -0.4898  0.5860  0.6448
78607SOL    HW247801   7.261   3.381   2.158  1.5378  0.4898  0.5485
78608SOL     OW47802   1.981   4.678   0.859 -0.9131 -0.4114 -0.4472
78608SOL    HW147803   2.038   4.601   0.864 -2.4291 -1.5328  0.1558
78608SOL    HW247804   1.930   4.665   0.779  0.8507  1.4888 -1.9859
78609SOL     OW47805   2.311   5.268   1.805 -0.1486 -0.0514  1.1384
78609SOL    HW147806   2.230   5.269   1.857 -1.3499 -0.0295 -0.6740
78609SOL    HW247807   2.341   5.177   1.809 -1.3366 -0.5040  0.2555
78610SOL     OW47808   8.286  12.052   7.405 -0.2799  0.4220  0.5998
78610SOL    HW147809   8.337  12.077   7.328 -0.3969  0.4751  0.5395
78610SOL    HW247810   8.339  11.984   7.448 -1.4372 -1.6227 -1.0122
78611SOL     OW47811  13.509   1.715   6.315 -0.6132  0.5073 -0.4924
78611SOL    HW147812  13.467   1.634   6.342 -0.1517  0.5450  0.3885
78611SOL    HW247813  13.490   1.722   6.221 -2.7721  0.6648 -0.0894
78612SOL     OW47814  11.952   2.220  12.294  0.3337 -0.4655  0.8505
78612SOL    HW147815  12.029   2.256  12.250  0.3904 -1.4329  0.1178
78612SOL    HW247816  11.879   2.272  12.261  0.5806 -0.0368  0.9721
78613SOL     OW47817   9.377   6.198   6.793  0.1308  0.5979  0.1954
78613SOL    HW147818   9.289   6.237   6.789  0.0905  0.6180  1.0819
78613SOL    HW247819   9.422   6.249   6.860  0.2409 -0.5596  1.0314
78614SOL     OW47820   6.474   8.727  13.807 -0.1535  0.0641 -0.2419
78614SOL    HW147821   6.445   8.733  13.898 -0.9568  0.4619 -0.5082
78614SOL    HW247822   6.537   8.655  13.806 -0.6633 -0.4031  0.4942
78615SOL     OW47823   0.018   2.786  10.361 -0.3675  0.0393 -0.5530
78615SOL    HW147824   0.050   2.696  10.353 -0.1556  0.1106 -0.5222
78615SOL    HW247825   0.066   2.834  10.293  0.3299  0.3478  0.1506
78616SOL     OW47826   6.431  11.657   2.421  0.6628  0.2279  0.5106
78616SOL    HW147827   6.513  11.701   2.401  1.4803 -1.3467  0.2081
78616SOL    HW247828   6.386  11.715   2.482  1.8226  1.2975  0.3740
78617SOL     OW47829   5.661   7.857   8.299 -0.4822  0.0528 -0.1519
78617SOL    HW147830   5.614   7.800   8.239 -1.5753  0.1874  0.5560
78617SOL    HW247831   5.594   7.891   8.358  0.1671  1.9456 -0.4388
78618SOL     OW47832   3.046   3.301   3.050 -0.4179  0.5323 -0.1505
78618SOL    HW147833   3.022   3.380   3.098  1.7958  0.5180  1.0984
78618SOL    HW247834   3.110   3.331   2.985  1.7285 -0.3572  1.4153
78619SOL     OW47835  12.718   7.903   6.195  0.0054  0.0304 -0.2578
78619SOL    HW147836  12.740   7.836   6.260  1.6882  0.2028 -0.6017
78619SOL    HW247837  12.748   7.985   6.235 -0.3092  0.3320 -0.6375
78620SOL     OW47838   8.009   6.046   6.645  0.7360 -0.1510  0.0914
78620SOL    HW147839   7.965   6.111   6.699  0.1182 -0.1444 -0.4076
78620SOL    HW247840   8.075   6.095   6.597  1.1586 -0.1255  0.6915
78621SOL     OW47841   6.612   6.160  11.738 -0.0734  0.1510 -0.6138
78621SOL    HW147842   6.666   6.118  11.805  0.5203 -1.4661 -2.0444
78621SOL    HW247843   6.535   6.104  11.730 -0.0452  0.2171 -1.4158
78622SOL     OW47844   2.020   0.204   7.300 -0.0923 -0.1800  0.0982
78622SOL    HW147845   1.937   0.207   7.252  0.4970  1.1135 -0.8920
78622SOL    HW247846   2.034   0.111   7.317 -1.2766 -0.5008 -0.5439
78623SOL     OW47847  11.508   3.894  12.021 -0.2528 -0.6746 -0.1167
78623SOL    HW147848  11.452   3.824  12.055  0.4242 -0.2766  2.0000
78623SOL    HW247849  11.485   3.970  12.075  0.5275  0.1768 -0.9572
78624SOL     OW47850  12.509   8.192  11.382  0.7815 -0.2017  0.4144
78624SOL    HW147851  12.514   8.160  11.472  0.9932  0.9224  0.8130
78624SOL    HW247852  12.557   8.274  11.383  0.4984 -0.0124 -0.6537
78625SOL     OW47853   2.227   3.516   2.493  0.0816  0.0835 -0.3705
78625SOL    HW147854   2.298   3.452   2.504 -0.2797 -0.7449 -2.3482
78625SOL    HW247855   2.253   3.591   2.546  1.8214 -0.6912 -0.0697
78626SOL     OW47856  10.603   8.930   7.279 -0.6226  0.2992 -0.2683
78626SOL    HW147857  10.697   8.946   7.288 -0.2365 -0.9308 -1.5654
78626SOL    HW247858  10.580   8.876   7.355  0.4903 -2.1451 -1.5543
78627SOL     OW47859   5.348   3.792   0.212  0.6045  0.1608 -0.4309
78627SOL    HW147860   5.406   3.857   0.175 -1.0748  1.1110 -1.4937
78627SOL    HW247861   5.282   3.842   0.260 -1.9604 -0.4742 -2.9957
78628SOL     OW47862   7.528  10.414  10.643  0.5156 -0.4002 -0.0696
78628SOL    HW147863   7.567  10.472  10.577  1.7461 -1.9615 -0.7887
78628SOL    HW247864   7.603  10.370  10.683 -0.2616  0.0443  1.9714
78629SOL     OW47865   0.740   2.042  10.996 -0.6567 -0.0311 -0.4125
78629SOL    HW147866   0.673   2.003  10.939  0.5537 -0.3190 -1.7059
78629SOL    HW247867   0.790   2.100  10.939 -0.2411  0.7355  0.6894
78630SOL     OW47868   2.417   3.778   0.517 -0.2980 -0.2729 -0.2359
78630SOL    HW147869   2.398   3.718   0.589 -1.2829  0.5507  0.2241
78630SOL    HW247870   2.346   3.842   0.521 -1.4689 -1.2558 -3.1301
78631SOL     OW47871   0.042   8.252  13.019  0.2682  0.1308  0.5198
78631SOL    HW147872   0.029   8.188  13.089  0.5221 -1.2609 -0.6693
78631SOL    HW247873   0.134   8.277  13.027  0.6942 -1.1360 -0.2041
78632SOL     OW47874   2.339   7.740   0.233  0.0895  0.1419  0.5735
78632SOL    HW147875   2.409   7.694   0.186  0.1587 -1.3541  2.0491
78632SOL    HW247876   2.297   7.672   0.285 -2.6489  0.9637 -0.4290
78633SOL     OW47877  11.105   2.936   4.089  0.3934 -0.1126 -0.5162
78633SOL    HW147878  11.043   2.864   4.077  2.0587 -1.7088  0.0329
78633SOL    HW247879  11.089   2.995   4.016 -1.7173 -0.4845 -0.4143
78634SOL     OW47880   2.566  10.151   0.443  0.6384 -0.2026 -0.7750
78634SOL    HW147881   2.586  10.173   0.352 -1.5599 -0.1950 -1.2931
78634SOL    HW247882   2.577  10.056   0.447  1.1174 -0.1600 -0.9183
78635SOL     OW47883  13.117  12.459   8.570 -0.4203 -0.3463 -0.7304
78635SOL    HW147884  13.033  12.489   8.535  0.0239  0.7631 -0.8893
78635SOL    HW247885  13.182  12.492   8.507  0.4846  2.4954  1.4938
78636SOL     OW47886   8.427   2.929  12.368  0.1705  0.6322 -0.6068
78636SOL    HW147887   8.492   2.895  12.306 -1.9513 -1.3673 -1.8804
78636SOL    HW247888   8.396   2.852  12.415 -1.1135  1.5724  0.1541
78637SOL     OW47889   9.812   3.319   3.398 -0.1880  0.3475 -0.3087
78637SOL    HW147890   9.803   3.311   3.303  0.8577  0.5598 -0.4354
78637SOL    HW247891   9.906   3.308   3.414 -0.3731  0.2126  0.7122
78638SOL     OW47892   8.221  13.113  11.733  1.0078 -0.3903 -0.2460
78638SOL    HW147893   8.195  13.112  11.640  0.4421 -0.6620 -0.0910
78638SOL    HW247894   8.239  13.022  11.753 -0.8816 -0.6563  0.4441
78639SOL     OW47895   6.901  11.604   4.031  0.5839  0.2054  0.5646
78639SOL    HW147896   6.810  11.597   4.004  0.6510 -0.0866  0.4105
78639SOL    HW247897   6.927  11.693   4.004  0.6724 -0.1017 -0.4156
78640SOL     OW47898   3.396  13.961   8.319  0.4402  0.3897  0.1352
78640SOL    HW147899   3.305  13.950   8.347 -0.0182 -1.3432 -1.7970
78640SOL    HW247900   3.448  13.921   8.389 -0.3491  0.2869  0.6691
78641SOL     OW47901   0.448   6.923   9.860 -0.1539 -0.1821 -0.2174
78641SOL    HW147902   0.477   6.842   9.817 -0.0176 -0.4322  0.3233
78641SOL    HW247903   0.515   6.987   9.836 -0.1442 -0.2868 -0.4761
78642SOL     OW47904   7.719   5.913   0.857  0.4071 -0.4365  0.3278
78642SOL    HW147905   7.703   5.975   0.786  1.0095  0.3279  0.8383
78642SOL    HW247906   7.640   5.859   0.861 -0.2055  0.4277 -0.0075
78643SOL     OW47907   2.344   2.911   7.389  0.3830  0.2774 -0.9729
78643SOL    HW147908   2.282   2.876   7.325  0.8470  0.8631 -1.7468
78643SOL    HW247909   2.408   2.959   7.338  1.8133 -0.7539 -0.2485
78644SOL     OW47910   2.825   7.588   2.765 -0.2951 -0.2609 -0.4096
78644SOL    HW147911   2.788   7.667   2.806  2.8821  0.3306  1.6951
78644SOL    HW247912   2.829   7.524   2.836  0.1314 -1.2107 -1.2729
78645SOL     OW47913  12.598   8.420   4.922  0.1674 -0.2812 -0.0654
78645SOL    HW147914  12.601   8.504   4.969 -0.3152  0.2037 -0.8901
78645SOL    HW247915  12.517   8.379   4.952 -0.0650 -0.0375 -0.3511
78646SOL     OW47916   0.332   3.958  12.028 -0.2637 -1.0336  0.0827
78646SOL    HW147917   0.261   3.993  11.975 -0.3790 -0.1463  0.7949
78646SOL    HW247918   0.344   3.868  11.996 -1.2250 -0.9618 -0.5206
78647SOL     OW47919   2.356  13.135   3.088 -0.2649  0.0879 -0.0336
78647SOL    HW147920   2.366  13.165   3.178 -1.4918  2.1803 -0.5290
78647SOL    HW247921   2.439  13.158   3.045  0.4265 -1.1637  0.5894
78648SOL     OW47922  14.010   1.955   1.738 -0.2954  0.0434  0.0027
78648SOL    HW147923  14.066   1.931   1.813 -0.3396 -0.5383 -0.1464
78648SOL    HW247924  13.925   1.916   1.759 -0.1342 -0.6879 -0.6516
78649SOL     OW47925  10.887  12.900   9.347  0.6320  0.1556  0.0751
78649SOL    HW147926  10.807  12.951   9.361  0.8443  0.6187 -0.3624
78649SOL    HW247927  10.916  12.925   9.259  1.1762 -0.1202  0.1740
78650SOL     OW47928   7.004   3.883   7.460  0.1824 -0.2156 -0.2449
78650SOL    HW147929   7.095   3.912   7.454 -0.5635  2.2328 -1.5596
78650SOL    HW247930   6.985   3.880   7.553  1.2078  0.7737  0.0166
78651SOL     OW47931   8.859  12.249  12.639 -0.1817  0.5680  0.0474
78651SOL    HW147932   8.793  12.198  12.685  0.3908 -1.5795 -1.3474
78651SOL    HW247933   8.942  12.209  12.665  0.2949  0.7906 -1.0720
78652SOL     OW47934   9.807   1.890   6.857  0.5562 -0.3071 -0.2106
78652SOL    HW147935   9.861   1.812   6.869  3.1988  1.4451  0.2202
78652SOL    HW247936   9.779   1.913   6.946 -1.3787 -1.4220 -0.4671
78653SOL     OW47937   4.030   6.391   8.229  0.4592 -0.3514 -0.3584
78653SOL    HW147938   3.993   6.392   8.141  0.7333  0.3462 -0.4737
78653SOL    HW247939   4.000   6.309   8.267  1.2344 -1.1992 -1.4857
78654SOL     OW47940   2.470   6.811   3.613  0.1640 -0.2426  0.4176
78654SOL    HW147941   2.480   6.886   3.671 -0.7920  0.1394  0.1115
78654SOL    HW247942   2.380   6.781   3.628  0.5282 -1.3351  0.5449
78655SOL     OW47943   0.382   4.862   1.199 -0.1402 -0.9229 -0.6802
78655SOL    HW147944   0.309   4.865   1.261  0.3581 -0.2004 -0.1281
78655SOL    HW247945   0.387   4.769   1.174 -0.3260 -1.2363  0.3764
78656SOL     OW47946  13.660  12.498   4.470  0.8195 -0.2955 -0.5395
78656SOL    HW147947  13.718  12.451   4.410  1.1803 -2.4861  1.3638
78656SOL    HW247948  13.579  12.445   4.470  0.2509  0.5555 -0.2789
78657SOL     OW47949   8.575   5.129   0.829  0.4002 -0.4138  0.1566
78657SOL    HW147950   8.637   5.068   0.869  0.4252  0.4166  1.4175
78657SOL    HW247951   8.620   5.161   0.751  0.8854 -1.0550  0.1660
78658SOL     OW47952   8.548   1.726   6.585 -0.2823 -0.0512 -0.1804
78658SOL    HW147953   8.558   1.640   6.546 -3.8899  0.1837 -2.0042
78658SOL    HW247954   8.454   1.737   6.595  0.1730  2.5208  2.8669
78659SOL     OW47955  10.771  11.753   6.549 -0.2370 -0.5530 -0.6155
78659SOL    HW147956  10.803  11.726   6.463 -0.5797 -2.0765 -0.3039
78659SOL    HW247957  10.750  11.846   6.540  0.1846 -0.5828 -2.0287
78660SOL     OW47958   7.191  11.592   3.239  0.4537 -0.5628 -0.0399
78660SOL    HW147959   7.267  11.566   3.291  0.7452  2.4324  1.2254
78660SOL    HW247960   7.226  11.600   3.150  1.4103 -0.0567  0.3639
78661SOL     OW47961  13.307   1.990   9.874  0.0933 -0.2200 -0.3154
78661SOL    HW147962  13.362   1.988   9.953 -1.5648  0.0171  0.9077
78661SOL    HW247963  13.246   2.063   9.890 -0.2628 -0.1574 -1.8394
78662SOL     OW47964  12.722   4.518  12.925 -0.6060 -0.4454 -0.1783
78662SOL    HW147965  12.813   4.536  12.900 -1.0873  1.1681 -0.9665
78662SOL    HW247966  12.720   4.425  12.946  1.0839 -0.6555 -0.8020
78663SOL     OW47967   2.933   4.759  13.497 -0.8238 -0.1389  0.1615
78663SOL    HW147968   2.913   4.823  13.428 -1.7067  0.9117  1.3453
78663SOL    HW247969   2.849   4.743  13.540 -0.2735 -0.7128  1.0440
78664SOL     OW47970   2.089   4.922  11.852  0.8875  0.1260  0.1423
78664SOL    HW147971   2.011   4.868  11.864 -1.2259  2.7014 -1.0629
78664SOL    HW247972   2.109   4.955  11.939 -0.5003  0.8112  0.2333
78665SOL     OW47973   6.447  10.079   5.181  0.0437  0.0134  0.1083
78665SOL    HW147974   6.441  10.024   5.103 -0.5625  0.8901 -0.4866
78665SOL    HW247975   6.405  10.161   5.155 -0.2611  0.2811  1.3992
78666SOL     OW47976   7.739   7.700  10.763 -0.9855 -0.0357  0.3520
78666SOL    HW147977   7.765   7.742  10.846  0.4836 -0.2209  0.0086
78666SOL    HW247978   7.670   7.638  10.788 -1.6197  0.9690  1.2026
78667SOL     OW47979  12.300   0.639   7.780  0.9820 -0.4291  0.5470
78667SOL    HW147980  12.262   0.727   7.781  0.3817 -0.6815  0.8131
78667SOL    HW247981  12.251   0.592   7.712  2.1016 -0.2270 -0.4220
78668SOL     OW47982   8.663   6.468  10.315 -0.0955  0.0829 -0.5321
78668SOL    HW147983   8.740   6.525  10.317 -0.8395  1.1651  2.5021
78668SOL    HW247984   8.697   6.385  10.283  2.7707  0.0409  2.0941
78669SOL     OW47985   5.951   7.709   8.781  0.4519  0.1563 -0.4892
78669SOL    HW147986   5.899   7.700   8.702 -3.1795  0.4368  1.6314
78669SOL    HW247987   5.960   7.804   8.794 -0.4307  0.1534  0.2443
78670SOL     OW47988  12.945   7.085   0.584 -0.4595 -0.1033  0.2415
78670SOL    HW147989  13.036   7.069   0.558 -0.3187  1.8480 -0.6496
78670SOL    HW247990  12.948   7.089   0.680  0.5296  0.5301  0.2022
78671SOL     OW47991   0.659   7.302  12.004  0.5415 -0.2321 -0.6998
78671SOL    HW147992   0.566   7.283  12.005  0.5705 -0.3432 -0.1755
78671SOL    HW247993   0.687   7.292  12.095  1.4178 -1.9884 -1.1099
78672SOL     OW47994  13.165   2.869   2.710 -0.3407 -0.1073  0.2761
78672SOL    HW147995  13.187   2.779   2.685 -0.3319  0.4036 -1.7472
78672SOL    HW247996  13.244   2.920   2.691 -1.2477  0.7648 -1.3260
78673SOL     OW47997   1.631   3.833   3.938 -0.0612  0.1621  0.6977
78673SOL    HW147998   1.645   3.755   3.990 -0.6207 -0.4189 -0.0008
78673SOL    HW247999   1.543   3.863   3.962 -0.1536  0.1315  0.4061
78674SOL     OW48000   9.750   9.908   5.277  0.4887  0.2127  0.1747
78674SOL    HW148001   9.736   9.891   5.184 -1.4649  1.1814  0.2354
78674SOL    HW248002   9.700   9.840   5.322 -2.0244  2.0994  0.4343
78675SOL     OW48003   6.115   5.795   1.322  0.6752 -0.3625 -0.1962
78675SOL    HW148004   6.174   5.769   1.252 -0.0036 -1.6400 -0.3335
78675SOL    HW248005   6.031   5.756   1.298  0.1905  0.0161  0.8249
78676SOL     OW48006  12.014   9.541   5.828 -0.2408  0.1894  0.3966
78676SOL    HW148007  12.029   9.614   5.888  0.8449 -0.8924  1.5097
78676SOL    HW248008  12.102   9.504   5.814 -0.6050 -0.1391 -1.1316
78677SOL     OW48009   3.423   4.297   4.450  0.9562  0.1334  0.0681
78677SOL    HW148010   3.377   4.215   4.468  2.8232 -0.6335  1.6580
78677SOL    HW248011   3.461   4.285   4.362 -0.7051  0.2724 -0.7037
78678SOL     OW48012   5.700   6.575  13.691 -0.0039  0.2607 -0.5853
78678SOL    HW148013   5.678   6.571  13.784 -0.4129 -1.8047 -0.7222
78678SOL    HW248014   5.788   6.538  13.685 -0.1197  0.0411 -1.0404
78679SOL     OW48015  11.381   8.703   6.021 -0.3194  0.8556  0.4048
78679SOL    HW148016  11.319   8.770   5.993 -0.7388  1.1597  1.9521
78679SOL    HW248017  11.358   8.686   6.113  0.9649 -0.0701  0.5844
78680SOL     OW48018   4.620   8.727   2.515  0.0184  0.1552  0.2684
78680SOL    HW148019   4.559   8.791   2.551  0.2703  2.2934 -2.6848
78680SOL    HW248020   4.705   8.771   2.517  0.9561 -1.5658  1.4519
78681SOL     OW48021   6.231   5.216   4.469 -0.1219  0.3139  0.0934
78681SOL    HW148022   6.273   5.130   4.477 -0.0594  0.2938 -0.4528
78681SOL    HW248023   6.285   5.274   4.523 -0.9471 -0.2591  1.5957
78682SOL     OW48024   8.412   4.698   5.132  0.3740 -0.2773 -0.2214
78682SOL    HW148025   8.395   4.609   5.163 -1.4171  0.3885  0.8604
78682SOL    HW248026   8.384   4.697   5.041 -0.8723 -0.5340  0.1369
78683SOL     OW48027   1.961  10.615   5.197  0.0492 -0.2559  0.3952
78683SOL    HW148028   1.897  10.584   5.133  0.1830 -0.2503  0.2568
78683SOL    HW248029   2.018  10.540   5.213 -1.0547 -0.8391  1.8912
78684SOL     OW48030   0.284  11.267   5.997  0.2822 -0.2795 -0.3937
78684SOL    HW148031   0.310  11.322   5.923  0.0941 -0.1856 -0.3901
78684SOL    HW248032   0.363  11.217   6.018 -0.2310 -1.8746 -2.0113
78685SOL     OW48033  13.515   1.151   9.972  0.7083 -0.0022  0.4858
78685SOL    HW148034  13.466   1.103  10.038 -0.9500  2.5334  1.2466
78685SOL    HW248035  13.607   1.139   9.996  0.3677 -2.5094  0.7363
78686SOL     OW48036   2.368  13.558   1.663 -0.0004 -0.4341 -0.1202
78686SOL    HW148037   2.445  13.502   1.650  0.1258 -1.1239  2.7861
78686SOL    HW248038   2.304  13.500   1.705 -1.1900  0.7512 -0.2621
78687SOL     OW48039  13.334  10.296   6.157 -0.0583  0.2365  0.2549
78687SOL    HW148040  13.382  10.239   6.217 -1.2953 -0.7434  0.3589
78687SOL    HW248041  13.246  10.259   6.154 -0.4135  1.1103 -1.0657
78688SOL     OW48042  11.207   0.610   7.359 -0.2834  0.1753  0.2455
78688SOL    HW148043  11.177   0.576   7.443  1.5120 -0.9539  0.4982
78688SOL    HW248044  11.147   0.573   7.295 -0.2922 -0.8822  0.8401
78689SOL     OW48045   8.727  13.157   3.239  0.2030  0.0552  0.1592
78689SOL    HW148046   8.677  13.238   3.228  1.6603  0.8462 -1.0079
78689SOL    HW248047   8.721  13.114   3.154 -0.1755 -0.8578  0.6370
78690SOL     OW48048   9.666   9.417  11.190 -1.2447 -0.1297 -0.0593
78690SOL    HW148049   9.667   9.332  11.235 -1.2891 -0.8700 -1.4023
78690SOL    HW248050   9.730   9.408  11.120 -2.3749  0.3828 -1.2111
78691SOL     OW48051   8.983   9.620   5.898 -0.7517  0.3147  0.1319
78691SOL    HW148052   8.955   9.592   5.985  1.1076  1.6407  1.2333
78691SOL    HW248053   9.007   9.538   5.854  0.1424 -0.2633  1.6008
78692SOL     OW48054  13.716   3.961  11.494 -0.2054  0.3434 -0.1943
78692SOL    HW148055  13.659   3.886  11.476 -0.2576  0.3319  0.0146
78692SOL    HW248056  13.721   4.008  11.410 -0.6362  0.4210 -0.1805
78693SOL     OW48057   1.335   5.837  10.960 -0.9114  0.3540  0.7312
78693SOL    HW148058   1.333   5.745  10.934  1.2743  0.1927  0.8970
78693SOL    HW248059   1.290   5.883  10.890 -1.6965 -0.8019  0.4527
78694SOL     OW48060   1.098   0.160   0.065 -0.3580  0.6637  0.5560
78694SOL    HW148061   1.025   0.197   0.016 -2.4766 -1.8443  1.6177
78694SOL    HW248062   1.072   0.168   0.156  0.3381 -0.8945  0.9234
78695SOL     OW48063  11.506   1.823   6.303 -0.2937  0.2195 -0.1612
78695SOL    HW148064  11.568   1.764   6.262 -0.6476 -1.4282  1.5232
78695SOL    HW248065  11.558   1.900   6.327  0.7517 -0.4524 -0.1979
78696SOL     OW48066  13.487   7.799   7.947  0.4733 -0.4139  0.1715
78696SOL    HW148067  13.424   7.749   7.998  1.5229 -0.7318  1.1974
78696SOL    HW248068  13.474   7.769   7.857  0.2094 -1.6034  0.5830
78697SOL     OW48069  12.827   1.818  13.269 -0.6060  0.0348 -0.0146
78697SOL    HW148070  12.907   1.785  13.309 -1.7774 -2.7351  0.2752
78697SOL    HW248071  12.851   1.903  13.233  2.5585 -0.8775 -0.3171
78698SOL     OW48072   1.765  10.834   9.227  0.0874 -0.3387  0.4796
78698SOL    HW148073   1.830  10.894   9.265  0.5494 -0.6988  0.2624
78698SOL    HW248074   1.683  10.884   9.229  0.6048  0.5952 -0.3687
78699SOL     OW48075   1.251   7.107  11.250 -0.3151  0.2837 -0.2614
78699SOL    HW148076   1.241   7.175  11.317  0.1487  0.6979 -0.6119
78699SOL    HW248077   1.344   7.087  11.250 -0.3379  0.1689 -0.6677
78700SOL     OW48078  11.747   3.360   6.407 -0.0826 -0.6613 -0.1149
78700SOL    HW148079  11.742   3.265   6.405  0.8515 -0.7849  1.7715
78700SOL    HW248080  11.750   3.383   6.500 -0.3881  1.2233 -0.5159
78701SOL     OW48081   2.877   8.104  13.891  0.0602  0.4552 -0.7039
78701SOL    HW148082   2.838   8.192  13.884  1.1527  0.9655 -0.6679
78701SOL    HW248083   2.950   8.106  13.828  0.8839  0.0111  0.2190
78702SOL     OW48084   0.411  12.932   5.553  0.0477 -0.0315  0.2739
78702SOL    HW148085   0.505  12.916   5.564  0.1447  0.1950 -0.1751
78702SOL    HW248086   0.403  13.028   5.559 -0.1157 -0.0328  0.0843
78703SOL     OW48087   1.645   9.340   6.862 -0.3981 -0.1187  0.2640
78703SOL    HW148088   1.715   9.343   6.928 -0.0212  0.3168 -0.1579
78703SOL    HW248089   1.663   9.260   6.812 -0.2794 -0.0780  0.2409
78704SOL     OW48090   6.834   7.489   0.025  0.4436  0.1686 -0.4851
78704SOL    HW148091   6.801   7.418  -0.030  0.1720 -0.5528  0.5763
78704SOL    HW248092   6.839   7.564  -0.034  0.4490 -0.6478 -1.5608
78705SOL     OW48093  13.052   6.784   7.903  0.2631  0.0425 -0.8747
78705SOL    HW148094  13.118   6.851   7.886 -2.6173  3.6298  0.6187
78705SOL    HW248095  13.050   6.776   7.998 -1.7657  0.5071 -0.8293
78706SOL     OW48096   6.872   1.753   5.867 -0.0030  0.2118  0.2274
78706SOL    HW148097   6.919   1.690   5.922 -0.9652 -0.0008  0.8286
78706SOL    HW248098   6.876   1.715   5.779 -3.1075 -2.3253  0.9977
78707SOL     OW48099   9.171   2.553   9.690 -0.1200 -0.0563 -0.3209
78707SOL    HW148100   9.102   2.545   9.624 -1.0110 -1.8679  0.7298
78707SOL    HW248101   9.248   2.513   9.649 -0.8682 -1.8689 -0.0893
78708SOL     OW48102   4.816   5.703  10.617  0.2934 -0.5090 -0.4799
78708SOL    HW148103   4.845   5.664  10.699  0.1028 -0.4394 -0.3781
78708SOL    HW248104   4.758   5.638  10.578 -1.3146  0.2965  0.4616
78709SOL     OW48105   5.160  10.843   6.491  0.3745  0.4905 -0.2316
78709SOL    HW148106   5.093  10.791   6.535 -0.4359  0.6062 -1.2885
78709SOL    HW248107   5.186  10.791   6.415  1.0255  0.7413 -0.1921
78710SOL     OW48108   3.073   7.487   4.502 -0.7516  0.1117 -0.0696
78710SOL    HW148109   3.002   7.551   4.509 -0.0623  0.8480  0.4161
78710SOL    HW248110   3.065   7.451   4.414 -1.1742  0.8574 -0.3433
78711SOL     OW48111  11.541   7.095   0.051 -0.1833 -0.2591  0.0959
78711SOL    HW148112  11.487   7.035   0.001  0.5950 -1.8625  1.0899
78711SOL    HW248113  11.545   7.175  -0.002 -1.8600 -0.8051 -0.9072
78712SOL     OW48114  12.407   1.067   7.944 -0.1247 -0.2356 -0.8023
78712SOL    HW148115  12.372   1.031   8.025  0.2377 -0.5323 -0.7720
78712SOL    HW248116  12.367   1.014   7.875  1.5251 -1.7115 -0.6960
78713SOL     OW48117   7.946   2.024   0.608 -0.3215 -0.0338 -0.0698
78713SOL    HW148118   7.926   2.064   0.523  1.5874 -0.3399 -0.7149
78713SOL    HW248119   8.009   2.083   0.649  0.4210 -0.9476  0.1636
78714SOL     OW48120   6.609  13.795  11.670 -0.0447  0.1415  0.4749
78714SOL    HW148121   6.590  13.701  11.679 -0.4170  0.1318 -0.4028
78714SOL    HW248122   6.670  13.800  11.597  0.6238  0.5182  1.0441
78715SOL     OW48123   8.245  11.101   3.094  0.5439  0.2862 -0.2181
78715SOL    HW148124   8.159  11.108   3.053 -0.6363 -0.6668  1.9230
78715SOL    HW248125   8.300  11.062   3.026 -1.1483 -0.6729 -1.1127
78716SOL     OW48126   9.168   8.688   4.451  0.1609 -0.1266 -0.3792
78716SOL    HW148127   9.181   8.647   4.536 -2.6229  1.0061  0.7287
78716SOL    HW248128   9.201   8.777   4.462 -1.5793  0.5009  0.0933
78717SOL     OW48129   6.513   3.979   0.391  0.6186 -0.1138  0.9881
78717SOL    HW148130   6.467   3.908   0.437  0.8774 -0.7438  0.2856
78717SOL    HW248131   6.605   3.952   0.391  0.2866 -1.8313 -2.7788
78718SOL     OW48132   9.833  13.467   2.966 -0.5864 -0.7226 -0.7970
78718SOL    HW148133   9.813  13.554   3.000 -1.9435 -0.8464 -1.2211
78718SOL    HW248134   9.924  13.473   2.936 -0.5013  0.3915 -0.3504
78719SOL     OW48135   8.646  12.783   9.856  0.5290  0.3571  0.6429
78719SOL    HW148136   8.710  12.786   9.928  2.0710 -1.3517 -0.5788
78719SOL    HW248137   8.588  12.710   9.879  0.1678  0.6806  0.7871
78720SOL     OW48138   5.044   3.753  13.417  0.3539 -0.3946  0.1701
78720SOL    HW148139   5.075   3.791  13.499 -2.6487  0.9163  0.7913
78720SOL    HW248140   5.085   3.806  13.349  3.4475 -1.9283  0.6328
78721SOL     OW48141   0.145   7.781   8.856  0.3789 -0.2454 -0.6794
78721SOL    HW148142   0.100   7.856   8.895 -1.3224 -0.6912 -1.6649
78721SOL    HW248143   0.227   7.817   8.823  0.9310  0.5504  1.3986
78722SOL     OW48144  10.569  10.352  13.110  0.1487 -0.6736 -0.2806
78722SOL    HW148145  10.474  10.359  13.117  0.1347 -0.7828 -0.3530
78722SOL    HW248146  10.601  10.371  13.198  0.2407  2.2312 -0.8329
78723SOL     OW48147   2.458   4.714   7.574  0.1050  0.0112  0.5312
78723SOL    HW148148   2.480   4.674   7.658 -1.1784 -1.3590  0.2582
78723SOL    HW248149   2.447   4.640   7.514 -1.7500  0.7601 -0.1449
78724SOL     OW48150   7.713   8.687  12.125 -0.1859 -0.1822 -0.1307
78724SOL    HW148151   7.637   8.701  12.070 -0.1768 -0.3700 -0.1891
78724SOL    HW248152   7.774   8.638  12.070  0.8335  1.7511 -0.8170
78725SOL     OW48153   8.333  10.459  10.422 -0.2519  0.1598  0.9354
78725SOL    HW148154   8.370  10.376  10.451  4.9588  2.4310  1.8941
78725SOL    HW248155   8.309  10.444  10.331  1.6997 -2.1478  0.7052
78726SOL     OW48156   8.942  13.422   3.755  0.0822  0.3448 -0.3916
78726SOL    HW148157   8.948  13.373   3.837  0.3592  0.1496 -0.5282
78726SOL    HW248158   8.850  13.415   3.730  0.2780 -0.8815 -0.8722
78727SOL     OW48159   1.137  10.667  11.515 -0.0360  0.0330  0.1508
78727SOL    HW148160   1.130  10.741  11.454 -0.2885  0.5372  0.7763
78727SOL    HW248161   1.230  10.646  11.515 -0.3534 -2.0121 -2.7401
78728SOL     OW48162  12.413  10.874   7.096  0.2103  0.1573  0.3496
78728SOL    HW148163  12.379  10.931   7.028  3.3542  1.7243 -0.1003
78728SOL    HW248164  12.441  10.795   7.049 -1.1345 -0.4070  0.4670
78729SOL     OW48165  13.042   2.304  11.082 -0.3858  0.1175  0.6279
78729SOL    HW148166  13.136   2.288  11.081 -0.2022  0.9061 -2.0384
78729SOL    HW248167  13.002   2.218  11.072  0.2196  0.0357 -1.6560
78730SOL     OW48168   3.833   4.416   6.212 -0.5331  0.0576 -0.2165
78730SOL    HW148169   3.835   4.359   6.289  0.1103  0.2245 -0.1057
78730SOL    HW248170   3.896   4.377   6.151  0.3489  0.9627  0.0915
78731SOL     OW48171   3.319  13.847   4.880  0.2805  0.0737  0.2813
78731SOL    HW148172   3.227  13.845   4.905 -0.0226 -1.5274 -0.8230
78731SOL    HW248173   3.320  13.818   4.789  1.8265  0.7260  0.0516
78732SOL     OW48174   3.119  11.796   8.132 -0.5317  0.3675 -0.5542
78732SOL    HW148175   3.054  11.737   8.094 -0.5664 -0.2834  0.4761
78732SOL    HW248176   3.086  11.814   8.220  0.3831  0.4960 -0.2327
78733SOL     OW48177   5.087   3.029  13.502 -0.2204  0.9090  0.3278
78733SOL    HW148178   5.002   3.057  13.538 -0.0948  1.0447  0.5197
78733SOL    HW248179   5.106   2.947  13.548 -0.6800  0.3955 -0.3730
78734SOL     OW48180   8.863   3.630   1.077  0.0965  0.4097 -0.5307
78734SOL    HW148181   8.909   3.629   0.993 -1.5753 -0.3580 -1.4894
78734SOL    HW248182   8.770   3.626   1.054 -0.4041 -3.2212  1.3450
78735SOL     OW48183   4.295   7.312  11.923  0.6073  0.2533 -0.3762
78735SOL    HW148184   4.261   7.355  11.844 -0.3220  0.8704  0.3308
78735SOL    HW248185   4.330   7.229  11.892  1.2858  0.9573 -1.6013
78736SOL     OW48186  12.319  11.419  11.272  0.5914 -0.0855  0.0226
78736SOL    HW148187  12.359  11.334  11.290  1.6536  0.0230 -1.6282
78736SOL    HW248188  12.322  11.428  11.177  0.0058  1.5719  0.1226
78737SOL     OW48189  10.764   2.089   8.938 -0.1819 -0.2976 -0.5578
78737SOL    HW148190  10.701   2.161   8.944  0.3288  0.2982 -2.0124
78737SOL    HW248191  10.765   2.065   8.845 -1.3537 -3.1268  0.0285
78738SOL     OW48192   7.757   7.266   9.499  0.0653  0.1619  0.1677
78738SOL    HW148193   7.844   7.259   9.459 -0.2574 -1.9809 -0.2728
78738SOL    HW248194   7.727   7.176   9.506 -1.8990  0.8305  0.8594
78739SOL     OW48195  11.852  10.359   9.000  0.3546 -0.0367 -0.1543
78739SOL    HW148196  11.766  10.401   9.001 -0.2028 -1.0994 -0.9484
78739SOL    HW248197  11.864  10.327   9.089 -0.1953 -0.0998 -0.1000
78740SOL     OW48198   1.186  10.668   9.745  0.0028  0.1155  0.4349
78740SOL    HW148199   1.215  10.606   9.678  0.0244 -0.0940  0.6366
78740SOL    HW248200   1.093  10.682   9.725  0.1346  0.4609  0.0436
78741SOL     OW48201   1.562   8.751  10.345 -0.4307 -0.2586  0.2362
78741SOL    HW148202   1.548   8.660  10.320 -1.0592 -0.6706  1.9186
78741SOL    HW248203   1.614   8.746  10.425  2.3220  1.0168 -1.3540
78742SOL     OW48204   5.451   3.402   2.198  0.5341  0.0271 -0.6732
78742SOL    HW148205   5.509   3.410   2.273 -1.6293  2.4187  0.9380
78742SOL    HW248206   5.367   3.376   2.236 -0.0879 -0.9027 -2.5831
78743SOL     OW48207   2.194   3.469  10.932 -0.2103  0.4552 -0.2097
78743SOL    HW148208   2.236   3.427  11.007 -1.3922 -0.4882 -0.0346
78743SOL    HW248209   2.172   3.397  10.873 -0.1664  1.0863 -1.0189
78744SOL     OW48210   8.312   4.117   5.257 -0.2294 -0.1876  0.8007
78744SOL    HW148211   8.296   4.211   5.252 -0.4915 -0.1331  2.1662
78744SOL    HW248212   8.230   4.081   5.289 -0.2243 -0.9339  0.0005
78745SOL     OW48213   6.274   6.445  10.699  0.1683  0.0350  0.3915
78745SOL    HW148214   6.348   6.385  10.709  0.3990  0.2479 -0.0665
78745SOL    HW248215   6.273   6.495  10.781  1.4478  1.0692 -0.2040
78746SOL     OW48216  11.707   9.374   6.434  0.1738 -0.2528 -0.3836
78746SOL    HW148217  11.748   9.293   6.465 -2.0047 -1.5100 -0.5346
78746SOL    HW248218  11.719   9.372   6.339  0.2850 -0.3159 -0.3677
78747SOL     OW48219   5.284   6.298   4.675  0.1276  0.3622 -0.1202
78747SOL    HW148220   5.345   6.232   4.644 -1.6581 -1.9977  0.9972
78747SOL    HW248221   5.339   6.370   4.705  2.2338 -0.9171 -0.7214
78748SOL     OW48222  11.101   8.440   1.879 -0.0330 -0.2575 -0.6610
78748SOL    HW148223  11.014   8.402   1.889 -0.7058  1.3815  0.2114
78748SOL    HW248224  11.142   8.428   1.965 -0.5212  1.4880 -0.1356
78749SOL     OW48225   4.865   2.673   9.112  0.0825 -0.1962 -0.5503
78749SOL    HW148226   4.878   2.767   9.097 -0.7875 -0.0526 -0.4790
78749SOL    HW248227   4.841   2.638   9.027  0.1375 -0.3090 -0.5205
78750SOL     OW48228  11.663   6.158   5.730  0.4857 -0.2116 -0.2376
78750SOL    HW148229  11.724   6.146   5.657  0.2769 -0.4920 -0.3670
78750SOL    HW248230  11.718   6.151   5.808  0.7530  0.3547 -0.3728
78751SOL     OW48231  10.477  12.276  12.183  0.7309 -0.1892  0.1555
78751SOL    HW148232  10.554  12.297  12.131  1.0260  0.8481  0.9710
78751SOL    HW248233  10.492  12.320  12.267  0.6410 -2.4128  1.4308
78752SOL     OW48234   4.372  11.064   5.997  0.5876  0.0461  0.1053
78752SOL    HW148235   4.426  11.053   6.075  1.7097 -0.3412 -0.7099
78752SOL    HW248236   4.412  11.137   5.950 -0.0920  0.2913 -0.1013
78753SOL     OW48237   8.356   7.010  11.673  0.8477  0.2807  0.4017
78753SOL    HW148238   8.336   6.927  11.630  1.3186 -0.0570  0.8389
78753SOL    HW248239   8.279   7.065  11.654  0.6235 -0.1808 -0.0547
78754SOL     OW48240   4.104   4.743  13.311 -0.2279 -0.2024 -0.0125
78754SOL    HW148241   4.041   4.792  13.364  0.6009  0.6145  0.2501
78754SOL    HW248242   4.189   4.764  13.351  0.4088  0.3601 -1.5952
78755SOL     OW48243   2.417   4.919   7.389  0.1569 -0.1865  0.5748
78755SOL    HW148244   2.499   4.947   7.348 -0.8425  1.9741 -0.0652
78755SOL    HW248245   2.445   4.866   7.464  2.1424  0.7049  0.5307
78756SOL     OW48246   6.849   1.536   8.511  0.2701 -0.1348 -0.4339
78756SOL    HW148247   6.901   1.616   8.518  1.4136 -0.7478 -1.6290
78756SOL    HW248248   6.907   1.466   8.541 -0.8709 -0.5106  1.0511
78757SOL     OW48249   5.580  13.849   2.219  0.2615  0.1485  0.0865
78757SOL    HW148250   5.543  13.791   2.285  0.8003  0.5650  0.7595
78757SOL    HW248251   5.534  13.825   2.138  1.5237 -2.2763  0.0045
78758SOL     OW48252   7.767  13.803   3.382  0.2094  0.3050 -0.2282
78758SOL    HW148253   7.680  13.793   3.342  0.5476 -1.3767 -0.6084
78758SOL    HW248254   7.758  13.765   3.469  0.5646  0.1297 -0.2663
78759SOL     OW48255   1.866   3.182   3.132  0.2345  0.2642  0.7258
78759SOL    HW148256   1.813   3.170   3.054  0.9656  0.3218  0.2082
78759SOL    HW248257   1.824   3.129   3.199 -0.0389 -0.2885  0.1198
78760SOL     OW48258   2.493   4.972  13.848 -0.4922  0.1933  0.1194
78760SOL    HW148259   2.421   4.934  13.798  0.0727  0.6279 -1.0580
78760SOL    HW248260   2.533   4.898  13.893 -0.6838 -0.2917 -0.4996
78761SOL     OW48261   3.362  14.022   4.287  0.0467 -0.0897  0.3398
78761SOL    HW148262   3.289  13.962   4.304 -0.7649  0.4784 -0.9817
78761SOL    HW248263   3.322  14.108   4.276  1.0610  0.4824  0.9055
78762SOL     OW48264   4.552  13.476  13.395  0.0351 -0.1719 -0.1441
78762SOL    HW148265   4.588  13.404  13.448  0.4608 -2.1127 -2.8585
78762SOL    HW248266   4.465  13.446  13.370  0.3256  0.1187 -1.5540
78763SOL     OW48267   1.368   8.785   7.786  0.0509  0.0568  0.0057
78763SOL    HW148268   1.415   8.720   7.733  0.9671 -0.4070  1.3508
78763SOL    HW248269   1.299   8.736   7.829 -0.2625  0.2994 -0.2156
78764SOL     OW48270  12.057   3.327   5.624 -0.2128 -0.0770 -0.1435
78764SOL    HW148271  12.133   3.295   5.576  0.3756  0.1521  0.6114
78764SOL    HW248272  12.074   3.420   5.636  0.9495 -0.5588  2.7265
78765SOL     OW48273   1.596  12.290   0.288  0.4884 -0.2239 -0.2848
78765SOL    HW148274   1.586  12.201   0.320  0.9246 -0.6860 -1.4113
78765SOL    HW248275   1.531  12.299   0.219 -0.0544  0.5854  0.2957
78766SOL     OW48276   0.953   2.243   7.692  0.1296 -0.8908  0.3397
78766SOL    HW148277   0.938   2.318   7.750  2.0539 -1.1093  1.1693
78766SOL    HW248278   0.900   2.263   7.614 -0.0101  0.9504  0.8492
78767SOL     OW48279   0.223   3.926  10.823 -0.3405 -0.3696 -0.1398
78767SOL    HW148280   0.215   3.917  10.918 -0.3697 -2.6938 -0.3032
78767SOL    HW248281   0.318   3.923  10.806 -0.3588 -0.4452 -0.2287
78768SOL     OW48282   4.755   1.161   9.200  0.3604 -0.6596  0.0008
78768SOL    HW148283   4.757   1.067   9.185  0.3509 -0.7304  0.4457
78768SOL    HW248284   4.729   1.171   9.292  2.3392 -0.2721  0.5653
78769SOL     OW48285   9.911   4.198  13.281 -0.1210  0.1593  0.2415
78769SOL    HW148286   9.924   4.109  13.248  1.4648  0.1088  0.9316
78769SOL    HW248287   9.842   4.234  13.225 -1.2060 -1.6789  0.3201
78770SOL     OW48288   6.358  10.409   8.151 -0.6740  0.1011  0.4101
78770SOL    HW148289   6.425  10.351   8.115 -1.0661  0.2628 -0.6169
78770SOL    HW248290   6.407  10.487   8.179 -0.4238  0.2520 -0.4007
78771SOL     OW48291   0.274   4.508   1.602  0.2531  0.4495  0.6067
78771SOL    HW148292   0.353   4.463   1.631  1.1030  2.1005  1.0061
78771SOL    HW248293   0.216   4.508   1.678  0.6680  0.8924  0.9309
78772SOL     OW48294   7.146   3.574   4.317 -0.4535  0.1251  0.1663
78772SOL    HW148295   7.154   3.596   4.410 -0.3608 -0.1936  0.2365
78772SOL    HW248296   7.055   3.547   4.306 -0.6276  0.7607  0.0304
78773SOL     OW48297   3.252   1.910   4.119  0.7124  0.0116 -0.0887
78773SOL    HW148298   3.236   1.919   4.213  0.7723 -1.1202  0.0530
78773SOL    HW248299   3.167   1.925   4.079  0.8882  1.5062  0.0505
78774SOL     OW48300   9.257   2.562   6.395  0.5467 -0.3712 -0.4215
78774SOL    HW148301   9.178   2.603   6.359  0.6363  0.5030  0.3594
78774SOL    HW248302   9.226   2.509   6.468  0.6410 -0.3383 -0.3574
78775SOL     OW48303   7.154  10.834  11.944  0.0867 -0.2685 -0.4406
78775SOL    HW148304   7.188  10.923  11.956  0.0619 -0.5292  2.0737
78775SOL    HW248305   7.229  10.784  11.912  0.6775  0.2182  0.1539
78776SOL     OW48306   3.869  12.573  13.525 -0.6215 -0.5320 -0.6333
78776SOL    HW148307   3.917  12.649  13.490 -0.4114 -0.6929 -0.7001
78776SOL    HW248308   3.778  12.600  13.524 -0.5131 -0.1469 -0.3221
78777SOL     OW48309   6.475   9.550   8.117  0.6093 -0.5605  0.0694
78777SOL    HW148310   6.488   9.455   8.114 -0.6555 -0.7341 -2.6653
78777SOL    HW248311   6.390   9.560   8.161  0.2789 -0.7719 -0.5122
78778SOL     OW48312   3.078   8.196   6.917  0.3754  0.1872 -0.4345
78778SOL    HW148313   3.048   8.287   6.926 -0.7775 -0.2233  0.0999
78778SOL    HW248314   3.123   8.178   7.000 -1.5419 -0.4607  0.5408
78779SOL     OW48315   9.511   0.958   4.361 -0.3206 -0.8001  0.3254
78779SOL    HW148316   9.538   0.995   4.277 -0.0239  1.3363  1.2817
78779SOL    HW248317   9.445   0.893   4.339 -0.9239  0.3694 -1.5284
78780SOL     OW48318   4.312  12.807  10.980  0.0270  0.0313  0.1117
78780SOL    HW148319   4.326  12.901  10.974 -2.7566  0.4902 -0.4087
78780SOL    HW248320   4.398  12.769  10.961  1.3817  2.4317  1.0475
78781SOL     OW48321   1.701  11.019   8.033  0.1871 -0.2848 -0.0734
78781SOL    HW148322   1.757  10.983   7.964  1.6662  1.0325  0.3702
78781SOL    HW248323   1.732  10.977   8.113 -1.5805 -1.8733 -0.1497
78782SOL     OW48324  10.520  12.762   5.118 -0.5160 -0.0416 -0.0570
78782SOL    HW148325  10.568  12.689   5.157  1.1128  1.3182  0.6194
78782SOL    HW248326  10.568  12.782   5.038  0.2450  1.4668  0.7267
78783SOL     OW48327   7.021   1.921   2.843  0.4890  0.2500 -0.5821
78783SOL    HW148328   7.023   1.905   2.937  1.2144  1.8518 -0.2848
78783SOL    HW248329   7.112   1.913   2.815  0.5940  1.7377 -0.7500
78784SOL     OW48330   8.614   6.380   6.753 -0.5437 -0.2126  0.6943
78784SOL    HW148331   8.608   6.450   6.817  1.3071 -0.9466  1.7671
78784SOL    HW248332   8.708   6.362   6.747 -0.7321 -0.6792 -1.6914
78785SOL     OW48333  12.419   7.002   7.984 -0.3222 -0.5469  0.0042
78785SOL    HW148334  12.361   7.008   7.908 -1.2548  1.4930  0.8143
78785SOL    HW248335  12.388   6.926   8.033 -1.2289 -0.4805 -0.4500
78786SOL     OW48336  11.743   2.428   1.538 -0.3776  0.6470 -0.1286
78786SOL    HW148337  11.778   2.453   1.452 -0.7724  1.3591 -0.0918
78786SOL    HW248338  11.820   2.403   1.589 -0.1161  0.4218 -0.6224
78787SOL     OW48339   2.510   7.555   4.625  0.4922 -0.8112 -0.4220
78787SOL    HW148340   2.540   7.467   4.649  0.2377 -1.0321 -0.9119
78787SOL    HW248341   2.518   7.558   4.530  0.6979 -0.2278 -0.3872
78788SOL     OW48342   0.573   5.671  13.142  0.2941  0.4319  0.2095
78788SOL    HW148343   0.612   5.688  13.228  0.3216  1.2462  0.0388
78788SOL    HW248344   0.595   5.747  13.089 -1.6502  1.0263  0.1584
78789SOL     OW48345  11.366   9.236   0.141  0.0715  0.1861  0.1834
78789SOL    HW148346  11.392   9.317   0.096 -0.2446  0.4465  0.4659
78789SOL    HW248347  11.272   9.245   0.154 -0.6197 -1.6240 -2.6532
78790SOL     OW48348  13.631  11.960  13.712  0.0683  0.3707 -0.0923
78790SOL    HW148349  13.630  11.883  13.655 -0.8404  0.1970  0.1293
78790SOL    HW248350  13.581  11.933  13.789  1.1515  0.6484  0.7336
78791SOL     OW48351  11.558  12.102   8.239  0.4919  0.1028  1.1119
78791SOL    HW148352  11.520  12.173   8.188 -1.9889 -1.0539  1.1938
78791SOL    HW248353  11.618  12.058   8.178 -1.7374 -0.7168 -0.6543
78792SOL     OW48354   0.828   0.177   8.001 -0.4696 -0.7822 -0.0224
78792SOL    HW148355   0.847   0.266   8.032  0.5223 -1.3447  1.0721
78792SOL    HW248356   0.903   0.154   7.946 -0.4448 -1.1417  0.1583
78793SOL     OW48357   4.758   3.948   1.174 -0.0251 -0.0602 -0.3369
78793SOL    HW148358   4.798   3.863   1.154  0.0393  0.5199 -3.0312
78793SOL    HW248359   4.808   3.982   1.248  0.5106 -1.9612  0.2307
78794SOL     OW48360  11.577  10.701   2.491  0.3384 -0.7889  0.3871
78794SOL    HW148361  11.611  10.622   2.534  1.6186 -0.2816  0.3360
78794SOL    HW248362  11.653  10.741   2.450 -0.2171  0.7111  0.7549
78795SOL     OW48363   2.384   2.244   5.161  0.3872  0.1660 -0.7023
78795SOL    HW148364   2.461   2.302   5.163  0.6542 -0.1466 -1.4418
78795SOL    HW248365   2.406   2.174   5.223  0.0667  0.8335  0.1906
78796SOL     OW48366  13.289   6.116   7.831  0.4209  0.0434 -0.5013
78796SOL    HW148367  13.359   6.163   7.877 -0.3118 -0.3380  1.1008
78796SOL    HW248368  13.252   6.057   7.898 -1.0737 -0.1369 -1.4347
78797SOL     OW48369  10.554  13.222   0.868  0.0259 -0.0904  0.0317
78797SOL    HW148370  10.514  13.247   0.951 -3.0886  0.0036 -1.3456
78797SOL    HW248371  10.590  13.303   0.832  0.6529  0.0181  0.8902
78798SOL     OW48372   8.807   1.434   1.407  0.0840  0.1668  0.0422
78798SOL    HW148373   8.859   1.502   1.451 -0.0123  0.2724 -0.0058
78798SOL    HW248374   8.716   1.456   1.428  0.1160 -1.2339  1.9152
78799SOL     OW48375   0.439   3.601  10.322 -0.5322 -0.7635  0.0225
78799SOL    HW148376   0.345   3.614  10.328 -0.9066 -3.0118 -0.2301
78799SOL    HW248377   0.476   3.668  10.380 -2.3809 -1.1672  1.7876
78800SOL     OW48378   2.368   5.115   7.667 -0.3677  0.0441  0.7699
78800SOL    HW148379   2.297   5.165   7.707 -0.2914  0.0740  0.8672
78800SOL    HW248380   2.397   5.054   7.735 -1.2029 -0.9105  0.3007
78801SOL     OW48381   9.981   7.938   4.916 -0.3627 -0.1938  0.6672
78801SOL    HW148382  10.055   7.960   4.859  0.3573  1.0373  1.9821
78801SOL    HW248383  10.015   7.869   4.973  0.1420  1.0096  1.8865
78802SOL     OW48384   4.179  10.078  12.761 -0.2296 -0.1444 -0.2681
78802SOL    HW148385   4.089  10.102  12.743 -0.1980 -0.4210 -0.8348
78802SOL    HW248386   4.229  10.159  12.750 -0.4138  0.0174  0.0908
78803SOL     OW48387   1.753  11.813   5.653  0.3345 -0.5304 -0.1538
78803SOL    HW148388   1.793  11.783   5.572  0.0691 -0.0900 -0.4501
78803SOL    HW248389   1.664  11.779   5.650  0.6091 -1.3325  0.4084
78804SOL     OW48390   4.849  10.558   3.386 -0.4318 -0.1712 -0.1469
78804SOL    HW148391   4.755  10.566   3.402 -0.4843  0.1546 -0.6088
78804SOL    HW248392   4.878  10.648   3.367 -0.6327 -0.6581 -3.2706
78805SOL     OW48393   0.803   6.800   6.160 -0.2023 -0.6676  0.1440
78805SOL    HW148394   0.874   6.752   6.203 -0.4633 -0.6292  0.6343
78805SOL    HW248395   0.826   6.892   6.174  0.7659 -0.6054 -1.5681
78806SOL     OW48396  10.051   8.283   5.550 -0.0472 -0.4632 -0.3715
78806SOL    HW148397  10.074   8.343   5.621 -0.3111 -0.6681 -0.1146
78806SOL    HW248398  10.126   8.223   5.545  0.2050 -0.1329 -0.6112
78807SOL     OW48399   7.555  11.315   9.090 -0.3515  0.5129 -0.7182
78807SOL    HW148400   7.576  11.231   9.130  0.2151  0.9914  0.0139
78807SOL    HW248401   7.637  11.345   9.052 -0.2985  1.2093 -0.0741
78808SOL     OW48402  12.020   1.781  12.335  0.4465 -0.8218 -0.0395
78808SOL    HW148403  11.950   1.845  12.322  1.1291  0.1443  0.8120
78808SOL    HW248404  12.058   1.769  12.248 -1.0494 -1.7184 -0.5946
78809SOL     OW48405   9.810   9.582   8.026 -0.3146  0.4916  0.0622
78809SOL    HW148406   9.839   9.499   7.991 -1.4128  0.8685 -1.8740
78809SOL    HW248407   9.875   9.604   8.093  1.6682 -0.4707 -1.4460
78810SOL     OW48408   2.505   8.801   8.405 -0.2908 -0.0689  0.0595
78810SOL    HW148409   2.579   8.781   8.348 -0.1972  3.0448 -1.1260
78810SOL    HW248410   2.428   8.787   8.349 -0.4715 -1.0479  0.5425
78811SOL     OW48411   3.338   2.553   9.253  0.3611 -0.0102  0.4027
78811SOL    HW148412   3.367   2.559   9.162 -0.9144 -1.2222 -0.1117
78811SOL    HW248413   3.382   2.474   9.286 -1.2638 -1.1406 -0.0122
78812SOL     OW48414   3.478  13.901   2.376  0.3960 -0.1419 -0.1113
78812SOL    HW148415   3.468  13.845   2.300 -3.2813 -1.8278  1.3631
78812SOL    HW248416   3.400  13.956   2.376  0.8384  0.5887  1.8195
78813SOL     OW48417   7.256   0.234   1.629 -0.4487  0.1654 -0.6070
78813SOL    HW148418   7.305   0.154   1.613  2.6889  1.6531  0.7271
78813SOL    HW248419   7.220   0.257   1.543 -0.1133 -1.8123 -1.3335
78814SOL     OW48420  13.386   0.430   6.255 -0.0028 -0.1780  0.4407
78814SOL    HW148421  13.301   0.423   6.297 -0.6886  0.9992 -0.6476
78814SOL    HW248422  13.442   0.367   6.301 -1.6492 -1.5314  0.6778
78815SOL     OW48423   8.551   8.376   4.340 -0.1420  0.2648  0.2686
78815SOL    HW148424   8.641   8.386   4.307 -0.9226 -0.4586 -2.2957
78815SOL    HW248425   8.546   8.285   4.368 -0.7573 -0.5031 -2.1114
78816SOL     OW48426   3.408   4.533  11.679  0.6079  0.0838 -0.0777
78816SOL    HW148427   3.437   4.595  11.745 -0.7048  0.4005  0.2144
78816SOL    HW248428   3.329   4.571  11.642  0.3600 -0.9179 -0.6223
78817SOL     OW48429   8.508   6.033   2.351  0.0245 -0.1166  0.1143
78817SOL    HW148430   8.511   6.044   2.256  1.1980  1.0539  0.2633
78817SOL    HW248431   8.415   6.034   2.373 -0.3466 -1.6982 -1.1369
78818SOL     OW48432   4.624   7.055   1.552  0.1789  0.1959  0.0447
78818SOL    HW148433   4.637   6.962   1.571  0.0053  0.5061  1.8714
78818SOL    HW248434   4.712   7.092   1.551  0.2071  0.1306  0.0934
78819SOL     OW48435   8.640   1.323   3.175  0.0137  0.1053 -0.5825
78819SOL    HW148436   8.598   1.313   3.261  1.6691 -0.5530  0.1937
78819SOL    HW248437   8.629   1.238   3.134 -1.4179  0.6317 -1.3775
78820SOL     OW48438   1.278  10.645  10.000 -0.5385 -0.6132 -0.3564
78820SOL    HW148439   1.222  10.692   9.939 -0.7427  0.4812  0.6490
78820SOL    HW248440   1.346  10.606   9.945 -0.1164  1.2200 -1.1995
78821SOL     OW48441  11.213  13.852  13.036  0.0487 -0.0603  0.2185
78821SOL    HW148442  11.145  13.917  13.048 -0.3834  0.1074 -2.5082
78821SOL    HW248443  11.166  13.768  13.034  0.0238 -0.0322 -0.6809
78822SOL     OW48444   4.460  10.107  10.595  0.1100 -0.4162  0.4570
78822SOL    HW148445   4.371  10.073  10.600 -0.0247 -0.4359 -1.4599
78822SOL    HW248446   4.449  10.202  10.583  0.3283 -0.5093 -0.4996
78823SOL     OW48447   7.545   1.111  10.521  0.4776  0.0028 -0.3310
78823SOL    HW148448   7.608   1.050  10.483  0.5969 -0.2682  0.2908
78823SOL    HW248449   7.523   1.170  10.449  0.2511 -0.8543 -0.9879
78824SOL     OW48450   1.374  13.246   9.096 -0.5084 -0.0817 -0.0464
78824SOL    HW148451   1.359  13.162   9.052 -1.8884 -0.3065  0.8242
78824SOL    HW248452   1.390  13.224   9.187  1.0500  0.4892 -0.1456
78825SOL     OW48453  10.830   3.721  12.354 -0.0818  0.7409  0.5943
78825SOL    HW148454  10.851   3.753  12.442 -0.6343  1.3965  0.4998
78825SOL    HW248455  10.744   3.760  12.335  0.0941  0.7077 -0.2823
78826SOL     OW48456  11.458  12.685   5.687 -0.2356 -0.0897 -0.2316
78826SOL    HW148457  11.459  12.663   5.594  0.4031 -0.8062 -0.0742
78826SOL    HW248458  11.434  12.602   5.730  1.0844 -0.2107  0.3248
78827SOL     OW48459   4.464   3.778   9.536 -0.4107  0.4718 -0.5412
78827SOL    HW148460   4.447   3.855   9.482  0.5825  0.8405 -0.3463
78827SOL    HW248461   4.553   3.750   9.512  0.7792  1.6778  2.0536
78828SOL     OW48462   0.276   3.442   4.204 -0.2051  0.4109 -0.0152
78828SOL    HW148463   0.215   3.372   4.178 -0.2579  0.4620 -0.0277
78828SOL    HW248464   0.222   3.504   4.252 -0.2959  0.7815 -0.5886
78829SOL     OW48465  13.473   5.467   2.342  0.0589 -0.4661  0.9100
78829SOL    HW148466  13.473   5.393   2.281 -0.6622  1.4042 -1.5740
78829SOL    HW248467  13.393   5.458   2.392 -0.0479 -1.3239  0.5905
78830SOL     OW48468   0.056   2.992   7.857  0.4341  0.2214 -0.1483
78830SOL    HW148469  -0.025   3.012   7.904  0.3086 -1.0140  0.1959
78830SOL    HW248470   0.118   2.965   7.925  1.0519  0.8647 -0.4429
78831SOL     OW48471   0.285  10.146   6.023  0.2076 -0.4238  0.0626
78831SOL    HW148472   0.374  10.153   6.059  0.3805 -1.0329 -0.2327
78831SOL    HW248473   0.295  10.168   5.931  0.1064 -0.7585 -0.0320
78832SOL     OW48474   2.729   3.415  13.487  0.2923  0.2109 -0.4869
78832SOL    HW148475   2.761   3.341  13.436 -1.7040 -0.1277 -1.3496
78832SOL    HW248476   2.713   3.484  13.422 -0.5087  0.4154 -0.0908
78833SOL     OW48477  10.376  11.586  13.770  0.6850 -0.0332 -0.1862
78833SOL    HW148478  10.290  11.607  13.808  0.5533 -0.2731 -0.3543
78833SOL    HW248479  10.391  11.654  13.705  2.2755  2.2636  2.3439
78834SOL     OW48480   9.597   6.354   8.160 -0.1223 -0.2000 -0.1634
78834SOL    HW148481   9.670   6.328   8.103 -0.5056 -1.6481 -0.0286
78834SOL    HW248482   9.523   6.364   8.101 -0.0056  0.5399 -0.1999
78835SOL     OW48483   7.672  12.476   3.802  0.0469  0.6071  0.5955
78835SOL    HW148484   7.584  12.460   3.837 -0.6187 -0.1608 -1.2799
78835SOL    HW248485   7.698  12.393   3.762  1.1170  1.1726  0.0602
78836SOL     OW48486  13.162   0.772   3.586  0.3455  0.2763  0.4281
78836SOL    HW148487  13.212   0.691   3.576 -1.1512 -0.6405 -0.0753
78836SOL    HW248488  13.206   0.835   3.530  2.0199  0.0781  1.4555
78837SOL     OW48489   0.621  13.891   4.641 -0.5033  0.3980 -0.4327
78837SOL    HW148490   0.713  13.914   4.630 -0.4924 -0.0243 -1.3732
78837SOL    HW248491   0.610  13.877   4.735 -0.2015  2.8524  0.0538
78838SOL     OW48492  13.907  14.041   1.183 -0.3085 -0.0123  0.4795
78838SOL    HW148493  13.987  14.090   1.162 -0.9255  0.3960 -1.0699
78838SOL    HW248494  13.859  14.100   1.242  1.0503 -0.7923  2.4802
78839SOL     OW48495  10.850   0.300   5.871 -0.3032  0.3342 -0.7266
78839SOL    HW148496  10.775   0.320   5.814 -1.9101 -1.4970  0.6064
78839SOL    HW248497  10.824   0.220   5.918  1.5140  0.9614  1.5452
78840SOL     OW48498   6.858  12.546   6.204  0.9366  0.0234 -0.1933
78840SOL    HW148499   6.948  12.521   6.182  0.5583 -1.1587 -0.4858
78840SOL    HW248500   6.845  12.630   6.160  1.6719 -0.1386 -0.7513
78841SOL     OW48501   3.877  13.127   1.526 -0.3711  0.6172  0.2746
78841SOL    HW148502   3.954  13.183   1.532 -0.1343  0.2611  0.6147
78841SOL    HW248503   3.868  13.109   1.432 -0.1471  0.8077  0.2148
78842SOL     OW48504   6.877   2.714   9.827 -0.7138  0.1949 -0.4617
78842SOL    HW148505   6.826   2.636   9.850 -0.6575 -0.3181 -2.0046
78842SOL    HW248506   6.919   2.692   9.744  0.4693  1.3412 -0.1914
78843SOL     OW48507   2.001  11.794   4.092  0.6693 -0.2272 -0.2772
78843SOL    HW148508   2.083  11.745   4.097  1.9829  1.6395 -1.7781
78843SOL    HW248509   1.939  11.734   4.051  1.2622 -1.6541  0.8258
78844SOL     OW48510   3.322   9.234  12.599  0.1653  0.3283  0.3193
78844SOL    HW148511   3.383   9.308  12.599 -0.5472  0.9329  0.0086
78844SOL    HW248512   3.373   9.161  12.564  0.6210  0.9019 -0.2379
78845SOL     OW48513   1.645   9.280   1.889  0.3547  0.1406  0.0454
78845SOL    HW148514   1.582   9.351   1.897  0.3537  0.3302 -1.3794
78845SOL    HW248515   1.636   9.230   1.970 -0.5153  1.0557  0.5294
78846SOL     OW48516  12.476  12.839  10.219  0.0436  0.2146 -0.0126
78846SOL    HW148517  12.555  12.865  10.266  1.1102  1.3699 -2.2859
78846SOL    HW248518  12.505  12.772  10.157 -0.7926  0.4694 -0.7073
78847SOL     OW48519  13.088   8.365  10.687  0.0771 -0.0819  0.2763
78847SOL    HW148520  13.131   8.443  10.652 -2.1150  0.8266 -0.5602
78847SOL    HW248521  13.080   8.381  10.781  0.0308  0.5024  0.1714
78848SOL     OW48522   0.256   5.261   4.515 -0.3964 -0.1123 -0.0346
78848SOL    HW148523   0.289   5.194   4.455  1.8209 -1.1326  2.1669
78848SOL    HW248524   0.289   5.343   4.478 -0.5814 -0.5248 -1.1602
78849SOL     OW48525   7.545   9.420  12.867 -0.0378  0.3473 -0.2508
78849SOL    HW148526   7.509   9.459  12.947  0.8882  0.0395  0.3273
78849SOL    HW248527   7.569   9.495  12.813 -0.0779  0.5671  0.0308
78850SOL     OW48528   4.476   6.052  12.372  0.1094 -0.2725 -0.0222
78850SOL    HW148529   4.459   6.063  12.278 -2.3635  0.0267  0.3876
78850SOL    HW248530   4.557   6.101  12.387 -0.8821  2.0640 -1.5477
78851SOL     OW48531   7.233   5.904   9.387  0.1883 -0.3034  0.3106
78851SOL    HW148532   7.260   5.815   9.409 -0.0168 -0.4859 -0.1668
78851SOL    HW248533   7.220   5.903   9.292  0.1830  0.2359  0.2998
78852SOL     OW48534   0.301   2.297  10.631  0.4368  0.6079  0.9238
78852SOL    HW148535   0.290   2.202  10.639 -1.9444  0.8012  0.5431
78852SOL    HW248536   0.377   2.307  10.573  0.0942 -1.0836  0.1108
78853SOL     OW48537   4.184   2.072   4.886 -0.0282 -0.2015  0.0259
78853SOL    HW148538   4.248   2.117   4.831  0.8207  1.0092  1.9274
78853SOL    HW248539   4.129   2.142   4.922 -0.5281 -0.9521  0.7692
78854SOL     OW48540   9.832   3.581   1.593  0.6689  0.0191 -0.8851
78854SOL    HW148541   9.786   3.556   1.673 -0.0474  1.1244 -0.9330
78854SOL    HW248542   9.800   3.669   1.573  0.8930 -0.2095 -2.3490
78855SOL     OW48543   1.695   7.058   4.080 -0.1553  0.5631  0.1305
78855SOL    HW148544   1.729   6.970   4.062 -1.3555  0.2033 -0.4961
78855SOL    HW248545   1.606   7.043   4.112 -0.3864  1.5521 -0.0186
78856SOL     OW48546   8.609   7.642   5.067  0.1543  0.0932 -0.0384
78856SOL    HW148547   8.613   7.624   5.161  2.0946  2.3836  0.4274
78856SOL    HW248548   8.568   7.565   5.029 -1.1064 -0.7184  2.7265
78857SOL     OW48549   5.061   1.821   6.135 -0.3500  0.4534  0.3966
78857SOL    HW148550   4.991   1.793   6.193  0.2742 -2.1090  0.0281
78857SOL    HW248551   5.118   1.876   6.189  0.1237 -1.7180  2.2172
78858SOL     OW48552   2.201  13.086   8.707 -0.1072 -0.3141  0.1544
78858SOL    HW148553   2.161  13.154   8.653  1.3392  0.0472 -0.5159
78858SOL    HW248554   2.215  13.128   8.792  0.4858  0.1537 -0.1614
78859SOL     OW48555   2.601   6.022   5.430  0.1121 -0.3264  0.3308
78859SOL    HW148556   2.623   6.085   5.499 -0.9108 -0.9769  1.2984
78859SOL    HW248557   2.517   6.051   5.397 -0.1359 -0.8927  0.4477
78860SOL     OW48558   1.181   7.835   1.355 -0.6401 -0.4222 -1.2755
78860SOL    HW148559   1.254   7.877   1.402 -1.0641 -0.5643 -0.4898
78860SOL    HW248560   1.134   7.908   1.315 -0.7363 -0.2354 -0.8242
78861SOL     OW48561  13.843  13.267   6.463  0.0900 -0.2565 -0.4853
78861SOL    HW148562  13.815  13.359   6.468 -0.7380 -0.4902 -0.6536
78861SOL    HW248563  13.856  13.241   6.554  1.4220  0.3336 -0.4739
78862SOL     OW48564  11.238   2.584  12.012 -0.6003 -0.3410  0.7738
78862SOL    HW148565  11.333   2.584  12.002 -0.5266 -0.6672  1.4272
78862SOL    HW248566  11.205   2.627  11.933  0.1099  0.1500  0.7413
78863SOL     OW48567   3.481   2.833   1.778  0.2957  0.1726 -0.0970
78863SOL    HW148568   3.535   2.777   1.723  1.4462  0.5584  0.5887
78863SOL    HW248569   3.395   2.793   1.777  0.6793 -0.6607 -0.9530
78864SOL     OW48570  13.910   6.369  11.342  0.2169  0.1381 -0.1192
78864SOL    HW148571  13.912   6.373  11.247  1.6115  0.3536 -0.1108
78864SOL    HW248572  13.860   6.446  11.369  0.9452  0.8057 -0.6562
78865SOL     OW48573   1.833   9.684   3.774 -0.3379 -0.0435 -0.1449
78865SOL    HW148574   1.792   9.661   3.857  0.3975 -0.6486  0.0658
78865SOL    HW248575   1.824   9.779   3.768 -1.6549 -0.1463 -0.0620
78866SOL     OW48576  12.635  13.706  12.488  0.3666  0.0638 -0.0699
78866SOL    HW148577  12.698  13.640  12.519  0.7350  0.1358 -0.6571
78866SOL    HW248578  12.656  13.784  12.539  0.3900 -0.0648  0.1229
78867SOL     OW48579  14.018   0.760   1.596  0.6273 -0.2959 -0.3341
78867SOL    HW148580  13.991   0.713   1.518  0.6016 -0.8835  0.0247
78867SOL    HW248581  13.974   0.715   1.668  2.1222 -0.9487  0.2095
78868SOL     OW48582   2.908   2.723   2.815  0.1146  0.0991 -0.3425
78868SOL    HW148583   2.862   2.655   2.765  0.7764 -1.9061  1.6003
78868SOL    HW248584   2.950   2.777   2.748 -1.7647 -0.3812 -2.0289
78869SOL     OW48585   0.859   6.299   1.672 -0.4728 -0.4216  0.1583
78869SOL    HW148586   0.879   6.277   1.763  0.7167  0.4501  0.1410
78869SOL    HW248587   0.901   6.230   1.621 -0.0868 -0.2447  0.2335
78870SOL     OW48588   4.613   7.254  11.719  0.6886 -0.1230 -0.1000
78870SOL    HW148589   4.560   7.208  11.783  0.9104 -1.5066 -0.8799
78870SOL    HW248590   4.578   7.343  11.719 -0.1454 -0.4316  0.9981
78871SOL     OW48591   7.644   0.947  10.123  0.0922 -0.1565  0.2739
78871SOL    HW148592   7.676   0.878  10.065 -1.2545 -1.3828  0.9040
78871SOL    HW248593   7.577   0.993  10.072  0.9655  0.6996 -0.1339
78872SOL     OW48594   9.010   2.010   6.040 -0.1339 -0.2074 -0.6502
78872SOL    HW148595   8.943   1.942   6.045 -1.6365  1.1975 -0.6981
78872SOL    HW248596   8.982   2.066   5.967  0.7929  0.7153 -0.3337
78873SOL     OW48597   1.302   5.546  12.748  0.2783  0.6862  0.3601
78873SOL    HW148598   1.265   5.572  12.664 -0.3019 -0.7191  0.1621
78873SOL    HW248599   1.373   5.487  12.727  0.3055  0.5366  0.8501
78874SOL     OW48600   5.909  13.474   4.064 -0.2504  0.4209 -0.0708
78874SOL    HW148601   5.938  13.559   4.030  0.3155 -0.3830 -1.7421
78874SOL    HW248602   5.849  13.495   4.135 -1.2892  2.2529 -1.4080
78875SOL     OW48603   2.719   7.914   7.083  0.4461  0.5617  0.1291
78875SOL    HW148604   2.787   7.925   7.149 -0.3742 -0.3067  1.1527
78875SOL    HW248605   2.762   7.864   7.013  0.3857 -1.8343  1.6700
78876SOL     OW48606  13.784   1.570   6.622 -0.2573 -0.2958 -0.1324
78876SOL    HW148607  13.750   1.658   6.638 -1.7039 -0.8965  0.2298
78876SOL    HW248608  13.716   1.511   6.653 -0.1978 -1.5498 -2.1662
78877SOL     OW48609   0.506  11.954   4.307 -0.0650  0.4354  0.7250
78877SOL    HW148610   0.459  12.030   4.273  0.5988  0.9963  1.0286
78877SOL    HW248611   0.438  11.897   4.342 -0.5128  1.3282  1.3353
78878SOL     OW48612   2.517   3.636   6.669  0.3631  0.7729 -0.8265
78878SOL    HW148613   2.449   3.690   6.708  0.0487 -0.2870  0.1418
78878SOL    HW248614   2.474   3.593   6.595  0.8927  2.5809 -2.2906
78879SOL     OW48615   8.123   5.620   2.562 -0.4197  0.3527  0.8412
78879SOL    HW148616   8.192   5.681   2.591  1.0084 -0.8171  0.0398
78879SOL    HW248617   8.090   5.581   2.643  1.5608 -0.8095  1.1539
78880SOL     OW48618  14.036   2.705   2.705  0.4261  0.0280  0.4744
78880SOL    HW148619  14.025   2.796   2.677 -1.7455  0.3090  1.9459
78880SOL    HW248620  14.111   2.706   2.764  0.5710  0.8152  0.2817
78881SOL     OW48621   3.209  12.594   1.111 -0.3499  0.0228 -0.5737
78881SOL    HW148622   3.227  12.595   1.017  1.7943 -0.0741 -0.2230
78881SOL    HW248623   3.177  12.683   1.130  0.2054  0.3802 -1.2387
78882SOL     OW48624   1.606  13.137  10.569  0.1975 -0.1917 -0.4861
78882SOL    HW148625   1.551  13.082  10.625  1.5086 -1.0114  0.0425
78882SOL    HW248626   1.667  13.179  10.629  0.6595  0.0861 -1.1436
78883SOL     OW48627  12.318   2.138   4.594 -0.1152  0.2947 -0.7200
78883SOL    HW148628  12.313   2.063   4.652  0.4519  0.6038 -0.2653
78883SOL    HW248629  12.391   2.190   4.627 -1.0631  1.5253 -0.4465
78884SOL     OW48630   0.224   6.479  12.852  0.0160 -0.0927 -0.3533
78884SOL    HW148631   0.215   6.400  12.905 -2.8592  0.0627 -0.4214
78884SOL    HW248632   0.143   6.482  12.801  0.6666  2.1797 -1.3594
78885SOL     OW48633   1.510   8.573   8.899 -0.4457  0.0801  0.0868
78885SOL    HW148634   1.520   8.604   8.989 -3.4424  1.4974  0.0564
78885SOL    HW248635   1.591   8.600   8.856  0.2490  1.1138  1.9100
78886SOL     OW48636   9.096   0.475  13.334 -0.0777  0.1180 -0.3708
78886SOL    HW148637   9.094   0.519  13.419  3.3173  1.3305 -0.7648
78886SOL    HW248638   9.128   0.387  13.352  1.7817  0.7461 -0.4421
78887SOL     OW48639   3.045   2.909   0.341 -0.8808 -0.3143 -0.3379
78887SOL    HW148640   3.140   2.897   0.330 -0.8280  0.4478 -0.7727
78887SOL    HW248641   3.026   2.993   0.299 -1.6446 -0.1278  0.3536
78888SOL     OW48642   1.353  13.429   4.583 -0.2685  0.4952 -0.3047
78888SOL    HW148643   1.389  13.514   4.608 -0.3493  0.4855 -0.1509
78888SOL    HW248644   1.382  13.369   4.652 -0.4340  0.4529 -0.2709
78889SOL     OW48645   7.268   2.836   5.177  0.0347  0.0631  0.6291
78889SOL    HW148646   7.255   2.747   5.208  0.3025  0.3418  1.5749
78889SOL    HW248647   7.187   2.882   5.198  0.2493  0.2750  1.0092
78890SOL     OW48648   7.742   4.641   0.407  0.1976  0.0503  0.2625
78890SOL    HW148649   7.835   4.627   0.423 -0.1594 -1.2820  1.3695
78890SOL    HW248650   7.722   4.585   0.332  0.1524 -0.1873  0.4514
78891SOL     OW48651   7.118  12.210  14.026 -0.1638  0.2438  0.1000
78891SOL    HW148652   7.047  12.173  14.078 -1.2688 -1.1369 -2.2148
78891SOL    HW248653   7.195  12.158  14.048 -0.5257 -0.0793  0.6053
78892SOL     OW48654   0.443  12.776   4.947 -0.0008 -0.9102  0.0125
78892SOL    HW148655   0.374  12.837   4.974 -0.5028 -0.9404 -1.1365
78892SOL    HW248656   0.415  12.691   4.979  0.4483 -0.6372  1.1780
78893SOL     OW48657   5.168   6.935   0.145  0.0492 -0.1493  0.3495
78893SOL    HW148658   5.134   7.013   0.188  0.8922  0.1709  0.4549
78893SOL    HW248659   5.208   6.883   0.215  1.3996  0.3590 -0.0089
78894SOL     OW48660  10.568  11.773  10.102 -0.3741 -0.7684  0.0587
78894SOL    HW148661  10.515  11.728  10.037  0.9556 -0.0531 -1.6106
78894SOL    HW248662  10.658  11.743  10.085  0.1174  0.1163  0.9613
78895SOL     OW48663   5.512   1.254   1.730 -0.5797 -0.1557 -0.1797
78895SOL    HW148664   5.477   1.297   1.652  1.2371  1.7058 -0.0760
78895SOL    HW248665   5.482   1.308   1.803 -1.0247 -1.0198  0.2920
78896SOL     OW48666   5.256   7.590   3.935  0.2452  0.0788 -0.0177
78896SOL    HW148667   5.279   7.683   3.934  0.1726  0.0958 -0.2987
78896SOL    HW248668   5.247   7.567   3.843  1.3757 -0.4879 -0.0092
78897SOL     OW48669  13.108   2.277   3.034 -0.5191 -0.3703  0.5995
78897SOL    HW148670  13.118   2.373   3.032 -0.6413 -0.3710 -0.0244
78897SOL    HW248671  13.030   2.260   2.982 -0.0669 -0.8721  0.0816
78898SOL     OW48672   9.573   3.755   8.008  0.2879  0.2959  0.0154
78898SOL    HW148673   9.512   3.723   7.942  1.8286 -0.0204 -1.3173
78898SOL    HW248674   9.531   3.834   8.043 -1.6732 -0.8517  0.4328
78899SOL     OW48675  11.427  12.214   5.615 -0.4916 -0.4774 -0.5651
78899SOL    HW148676  11.338  12.236   5.587 -0.5456  0.1042  0.0260
78899SOL    HW248677  11.419  12.192   5.708  0.0181 -0.1404 -0.4336
78900SOL     OW48678   6.167   8.781  10.221 -0.7518 -0.4204 -0.0119
78900SOL    HW148679   6.081   8.824  10.224 -1.2768 -1.4866  1.2271
78900SOL    HW248680   6.155   8.707  10.162 -0.8914 -0.9352  0.6418
78901SOL     OW48681   1.513   8.372  13.396 -0.1495  0.6223 -0.1403
78901SOL    HW148682   1.468   8.433  13.455  0.4806  0.1249  0.8772
78901SOL    HW248683   1.604   8.373  13.426  0.0295 -0.2067 -0.6339
78902SOL     OW48684   4.484   6.190  11.253 -0.0506  0.2178 -0.1998
78902SOL    HW148685   4.395   6.155  11.244  0.2905 -0.4279 -1.3241
78902SOL    HW248686   4.501   6.191  11.347 -0.7110 -1.0697 -0.0483
78903SOL     OW48687   3.268   9.104   1.799  0.2957  0.5786 -0.1094
78903SOL    HW148688   3.262   9.045   1.724 -2.2086  1.2213 -0.5118
78903SOL    HW248689   3.195   9.078   1.855  1.8664  0.3726  1.9768
78904SOL     OW48690   3.019   1.414   7.655  0.3345  0.5561  0.4236
78904SOL    HW148691   3.073   1.487   7.625  2.9387 -1.9919 -1.6464
78904SOL    HW248692   3.064   1.382   7.733  1.7436 -1.2861 -1.0449
78905SOL     OW48693   8.443   5.576   8.444  0.2207  0.6511  0.5475
78905SOL    HW148694   8.507   5.505   8.449 -0.2490  0.0597 -1.3354
78905SOL    HW248695   8.491   5.654   8.473  2.5071  0.6433 -2.7527
78906SOL     OW48696   0.085   4.289   3.354  0.2161 -0.0528  0.4210
78906SOL    HW148697   0.002   4.327   3.327 -0.3900 -1.2898  0.4466
78906SOL    HW248698   0.073   4.267   3.446  0.5869 -0.1999  0.4382
78907SOL     OW48699   7.480  13.050   2.971  0.2791  0.5360 -0.2013
78907SOL    HW148700   7.481  13.013   2.883  1.9996  0.4004 -0.1588
78907SOL    HW248701   7.558  13.105   2.975 -0.7246  2.0053  0.6626
78908SOL     OW48702   4.695  13.036   0.181  0.2550  0.3596  0.4121
78908SOL    HW148703   4.665  13.041   0.090  1.2492  0.7663  0.1024
78908SOL    HW248704   4.789  13.049   0.177  0.2239  1.1630  1.5712
78909SOL     OW48705   0.713   1.689  11.784 -0.6824  1.0836  0.1710
78909SOL    HW148706   0.714   1.620  11.851  1.6147  1.8370  1.0034
78909SOL    HW248707   0.645   1.661  11.723 -1.9471 -0.3290  2.0891
78910SOL     OW48708   3.866   1.838   8.162  0.2358  0.0781  0.0894
78910SOL    HW148709   3.935   1.784   8.124 -0.7288 -2.1984  1.3247
78910SOL    HW248710   3.792   1.827   8.103 -0.2482 -0.7689  0.8246
78911SOL     OW48711   0.582   2.309   2.114  0.1148  0.1329  0.4194
78911SOL    HW148712   0.569   2.369   2.186 -0.5406 -1.2409  1.4979
78911SOL    HW248713   0.677   2.297   2.109  0.4354  2.7306 -1.1255
78912SOL     OW48714   7.379   6.024  13.465 -0.6417  0.2689  0.3146
78912SOL    HW148715   7.362   6.027  13.559 -0.6497  0.9560  0.2896
78912SOL    HW248716   7.466   6.061  13.455 -1.5018  2.3035 -0.1630
78913SOL     OW48717   9.484   5.718  13.902 -0.0145  0.0512 -0.3090
78913SOL    HW148718   9.573   5.708  13.936  0.4774  0.7676 -1.3139
78913SOL    HW248719   9.435   5.757  13.974  0.4620 -0.4633  0.2961
78914SOL     OW48720   3.341   1.398   8.232 -0.1817 -0.3775  0.6709
78914SOL    HW148721   3.412   1.457   8.211 -0.1461 -0.5865  0.1831
78914SOL    HW248722   3.311   1.426   8.318 -1.0075  1.1810 -0.0779
78915SOL     OW48723   2.591   7.216   2.654  0.2537  0.1697 -0.2187
78915SOL    HW148724   2.622   7.301   2.620  1.8271  0.3671  1.5402
78915SOL    HW248725   2.671   7.166   2.667 -0.2973 -0.1769  2.3362
78916SOL     OW48726   3.209   5.998  12.704 -0.1717 -0.1687 -0.1085
78916SOL    HW148727   3.292   6.005  12.752  0.0906 -1.0371 -0.4243
78916SOL    HW248728   3.234   6.004  12.612 -0.5273  0.1041 -0.1905
78917SOL     OW48729   4.854   9.565  10.907 -0.2165 -0.6551 -0.1661
78917SOL    HW148730   4.908   9.644  10.900 -0.0476 -0.8585 -1.3328
78917SOL    HW248731   4.886   9.521  10.986  0.6993 -0.3048 -0.3253
78918SOL     OW48732  10.260  11.680   4.348 -0.1837  0.0729  0.4767
78918SOL    HW148733  10.302  11.751   4.300 -1.1316 -1.6068 -3.1871
78918SOL    HW248734  10.169  11.709   4.360  0.0206  0.4363  1.2050
78919SOL     OW48735  12.790  13.245  13.080 -0.2456 -0.0971 -0.4721
78919SOL    HW148736  12.739  13.165  13.068  0.6953 -0.6040 -1.2319
78919SOL    HW248737  12.728  13.308  13.117 -1.3094 -0.8205 -0.9792
78920SOL     OW48738   3.450  13.089   3.747  0.2904 -0.0887 -0.1911
78920SOL    HW148739   3.395  13.118   3.820 -0.0742 -0.1032 -0.4541
78920SOL    HW248740   3.388  13.051   3.685  0.4143  1.2699 -1.1918
78921SOL     OW48741  13.677  11.870  11.057  0.0523 -0.1119  0.5984
78921SOL    HW148742  13.651  11.942  11.000  0.3861  0.0268  0.6264
78921SOL    HW248743  13.716  11.912  11.134 -1.6018 -0.2348  1.5545
78922SOL     OW48744  11.859   0.285   1.909 -0.1597 -0.6476  0.0082
78922SOL    HW148745  11.946   0.251   1.931  0.0523  0.4561  0.9642
78922SOL    HW248746  11.859   0.288   1.813 -0.4619 -3.9185 -0.1726
78923SOL     OW48747   2.729   8.986  10.540  0.1982 -0.5559 -0.2043
78923SOL    HW148748   2.678   8.931  10.599 -1.2155  1.0266  0.1370
78923SOL    HW248749   2.796   8.928  10.505 -0.6730 -2.2511  0.7930
78924SOL     OW48750   2.284   9.121   1.863  0.2453 -0.1467 -0.1261
78924SOL    HW148751   2.316   9.062   1.795  0.3801  1.6081 -1.6659
78924SOL    HW248752   2.338   9.199   1.854 -1.8079  1.3538 -0.1510
78925SOL     OW48753   8.072   6.064   3.992  0.5268 -0.1082 -0.1699
78925SOL    HW148754   8.087   5.970   3.993  0.1770 -0.1801 -0.8819
78925SOL    HW248755   7.976   6.073   3.989  0.4701  0.3027  1.6007
78926SOL     OW48756   5.503  13.971   8.099  0.0604  0.1769 -0.3638
78926SOL    HW148757   5.579  13.913   8.090  0.8262  1.0967  0.0584
78926SOL    HW248758   5.528  14.051   8.054 -0.7059  0.4745 -0.2826
78927SOL     OW48759  13.340   6.881   6.497  0.3892  0.2424 -0.8478
78927SOL    HW148760  13.322   6.820   6.569 -0.2369  0.7394 -0.5781
78927SOL    HW248761  13.321   6.830   6.418  0.2538 -0.0392 -0.6352
78928SOL     OW48762   8.532  11.405  13.326  0.1071 -0.7652 -0.1928
78928SOL    HW148763   8.466  11.448  13.273  0.6473 -2.2536 -2.1789
78928SOL    HW248764   8.615  11.426  13.284  0.8702  0.3198  1.7240
78929SOL     OW48765   1.988   0.048   0.308  0.4053  0.2997  0.2880
78929SOL    HW148766   2.059   0.111   0.300 -0.1570  1.0674  1.0719
78929SOL    HW248767   1.985   0.028   0.402 -0.6134  0.5275  0.3118
78930SOL     OW48768   8.059   8.064  13.280  0.0136  0.0646 -0.1221
78930SOL    HW148769   7.980   8.104  13.244  0.2483 -0.3250 -1.0939
78930SOL    HW248770   8.124   8.134  13.278 -0.9944  1.3645  3.4827
78931SOL     OW48771   3.605   8.550   7.753  0.6225 -0.2852  0.0609
78931SOL    HW148772   3.665   8.490   7.798  0.5150 -0.2085  0.3100
78931SOL    HW248773   3.630   8.637   7.784 -0.1904 -0.3217  0.8536
78932SOL     OW48774   9.895   8.272   4.887 -0.2474  0.2982  0.1049
78932SOL    HW148775   9.820   8.260   4.946 -1.5771  1.1516 -1.3248
78932SOL    HW248776   9.887   8.200   4.824 -0.8163  1.2625 -0.9687
78933SOL     OW48777  12.911   8.263  14.002 -0.0724 -0.3442  0.2922
78933SOL    HW148778  12.948   8.351  14.009 -1.9170  0.4778  0.4269
78933SOL    HW248779  12.948   8.227  13.922 -0.6633  1.2726 -0.7520
78934SOL     OW48780   5.684  12.108   9.071 -0.9922  0.4379 -0.4641
78934SOL    HW148781   5.731  12.121   9.153 -1.3690 -0.7965 -0.0433
78934SOL    HW248782   5.743  12.056   9.017 -1.7616 -0.9536 -0.0066
78935SOL     OW48783   2.234  10.988  10.943 -0.2375 -0.4844  0.4679
78935SOL    HW148784   2.189  11.072  10.952  1.7604  0.8997 -1.4135
78935SOL    HW248785   2.280  10.976  11.027  0.2605  0.8318  0.4040
78936SOL     OW48786   4.566   9.244  10.520 -0.3760  0.2608 -0.0396
78936SOL    HW148787   4.483   9.198  10.503 -0.2379 -0.2102  0.5318
78936SOL    HW248788   4.629   9.175  10.539 -0.3215  0.6975  1.5055
78937SOL     OW48789   0.997   7.841  12.236  0.3090 -0.5037  0.6272
78937SOL    HW148790   0.963   7.902  12.302 -0.6251  0.3117 -0.5639
78937SOL    HW248791   1.091   7.858  12.232 -0.0427  1.4508 -0.2359
78938SOL     OW48792   8.420   1.704  13.653  0.6495  0.2713  0.2351
78938SOL    HW148793   8.475   1.682  13.578  1.2127  1.3835  0.2983
78938SOL    HW248794   8.375   1.785  13.628  0.1841  0.1916  0.7722
78939SOL     OW48795  13.687   8.932  10.938 -0.2440  0.5236 -0.3904
78939SOL    HW148796  13.707   8.843  10.968  1.6992  0.9650 -0.2505
78939SOL    HW248797  13.635   8.970  11.010 -1.4539 -0.5895 -0.6293
78940SOL     OW48798   6.136   0.137   1.191 -0.8744 -0.7426 -0.2185
78940SOL    HW148799   6.226   0.157   1.167 -0.4822 -3.9531 -1.9291
78940SOL    HW248800   6.139   0.122   1.286  0.3376 -0.6317 -0.2287
78941SOL     OW48801   6.805   3.623   2.288 -0.8982  0.1760 -0.1316
78941SOL    HW148802   6.717   3.589   2.274 -0.8043 -0.3097  0.4223
78941SOL    HW248803   6.862   3.548   2.272 -0.6510  0.2269  0.4821
78942SOL     OW48804  13.084  12.459   6.820  0.3051 -0.2469 -0.7294
78942SOL    HW148805  12.998  12.431   6.788  0.7295 -0.8267 -1.3937
78942SOL    HW248806  13.065  12.512   6.898 -0.5939 -1.2589 -0.2348
78943SOL     OW48807   4.529   4.181   3.430 -0.2228 -0.1481 -0.2825
78943SOL    HW148808   4.491   4.126   3.361 -0.6353  0.4203 -0.5066
78943SOL    HW248809   4.561   4.258   3.385 -1.0054  0.4928  0.2315
78944SOL     OW48810   8.191   8.049  11.341  0.2083  0.0775 -0.1281
78944SOL    HW148811   8.283   8.041  11.365  0.3212  0.5594 -0.3712
78944SOL    HW248812   8.184   8.137  11.301 -0.6084  0.5689  1.0395
78945SOL     OW48813   2.563  12.935  13.326 -0.2574  0.4007 -0.5836
78945SOL    HW148814   2.588  12.852  13.367 -1.5157  0.2728 -0.0424
78945SOL    HW248815   2.637  12.956  13.269  1.4859  0.4949  1.5733
78946SOL     OW48816   5.782   5.445   0.975 -0.8718 -0.0256 -0.3887
78946SOL    HW148817   5.839   5.437   0.898  0.2050  0.7281  0.3086
78946SOL    HW248818   5.694   5.454   0.938 -0.3059  0.9732 -1.5835
78947SOL     OW48819  12.762   7.411   4.309 -0.5155  0.6095  0.6940
78947SOL    HW148820  12.795   7.385   4.223 -1.9001 -1.1754  0.6477
78947SOL    HW248821  12.753   7.329   4.356  0.7370  1.5949  2.7936
78948SOL     OW48822  13.920   6.544   2.010 -0.3197  0.1547 -0.3442
78948SOL    HW148823  13.952   6.461   2.046  1.3559  0.8478 -0.1783
78948SOL    HW248824  13.972   6.557   1.931 -0.5800  1.0503 -0.3707
78949SOL     OW48825  11.070   6.330   9.361  0.2256  0.0399 -0.4367
78949SOL    HW148826  11.157   6.321   9.323  0.0588 -0.3075 -0.7457
78949SOL    HW248827  11.076   6.286   9.446  0.7866  1.3993  0.2623
78950SOL     OW48828   1.764   7.018   8.124  0.1230 -0.0109 -0.3167
78950SOL    HW148829   1.790   7.107   8.099 -0.7144  0.5277  0.6864
78950SOL    HW248830   1.772   7.016   8.219 -3.9564  0.4324  0.2364
78951SOL     OW48831   5.382  13.097  11.493 -0.3997  0.1855 -0.2623
78951SOL    HW148832   5.295  13.133  11.479 -1.0035 -1.2961 -0.5475
78951SOL    HW248833   5.432  13.169  11.532 -2.4463  0.3760  2.3121
78952SOL     OW48834  13.793  11.050   4.088 -0.4361 -0.2904 -0.2415
78952SOL    HW148835  13.774  11.129   4.138  3.2618  1.0934 -0.7154
78952SOL    HW248836  13.776  11.074   3.997 -1.3538 -0.7947 -0.2141
78953SOL     OW48837  12.350   1.545  12.339 -0.1065 -0.1985  0.4124
78953SOL    HW148838  12.445   1.530  12.344 -0.3317 -1.6781  0.5118
78953SOL    HW248839  12.335   1.619  12.398  1.2968  1.7724 -1.5056
78954SOL     OW48840   1.285   2.267   1.139 -0.0580  0.4924  0.1452
78954SOL    HW148841   1.297   2.361   1.146 -0.7009  0.6766 -1.0220
78954SOL    HW248842   1.217   2.256   1.074  1.3350 -0.8385 -1.1751
78955SOL     OW48843   9.363   5.869   5.455  0.1785 -0.4795 -0.3441
78955SOL    HW148844   9.353   5.822   5.537  0.5162 -1.6959 -0.9860
78955SOL    HW248845   9.456   5.888   5.449  0.2089 -0.7106 -0.6171
78956SOL     OW48846  13.911  11.351   4.769 -0.1955 -0.1896  0.1872
78956SOL    HW148847  13.844  11.283   4.768  1.1398 -1.5364  0.3270
78956SOL    HW248848  13.890  11.404   4.847 -1.7731  0.1568 -0.4284
78957SOL     OW48849   7.473   5.104   2.486  0.4204  0.1234 -0.0643
78957SOL    HW148850   7.563   5.077   2.506  0.6824  0.8987 -0.1519
78957SOL    HW248851   7.453   5.170   2.553  0.3994  0.9056 -0.8247
78958SOL     OW48852  11.971   5.636   4.659 -1.0438 -0.0607  0.1960
78958SOL    HW148853  11.995   5.580   4.732 -0.2017  0.9219  0.7123
78958SOL    HW248854  11.998   5.588   4.581  1.9651  0.5665  0.7021
78959SOL     OW48855   5.570   5.490   2.616  0.1600  0.3029 -0.8528
78959SOL    HW148856   5.553   5.578   2.649 -0.4192 -0.2766  0.4575
78959SOL    HW248857   5.666   5.485   2.610  0.2834  0.4908  0.6390
78960SOL     OW48858   7.432  13.170   1.929  0.7621 -0.1696 -0.2270
78960SOL    HW148859   7.483  13.104   1.976  0.5945 -0.6507 -0.7131
78960SOL    HW248860   7.496  13.238   1.907  0.7756  0.2365  0.9936
78961SOL     OW48861   0.754   7.717   9.669  0.0546  0.0235 -0.5570
78961SOL    HW148862   0.750   7.737   9.576  2.3617  1.8084 -0.3754
78961SOL    HW248863   0.815   7.643   9.675 -0.2186 -0.1959 -0.4670
78962SOL     OW48864  13.309   9.090   8.721 -0.0668  0.6353 -0.2031
78962SOL    HW148865  13.324   9.121   8.632 -1.0875 -0.7289 -0.8700
78962SOL    HW248866  13.215   9.073   8.726  0.1719 -0.5714  0.7034
78963SOL     OW48867   1.624   8.627   0.035  0.4980  0.2050  0.4535
78963SOL    HW148868   1.593   8.558   0.093  2.1898 -0.1326  1.0082
78963SOL    HW248869   1.705   8.593  -0.002  0.2958  1.0821 -0.8549
78964SOL     OW48870   4.162  13.227   0.950 -0.7405 -0.5201 -0.5182
78964SOL    HW148871   4.143  13.141   0.913 -3.0112 -0.3050 -0.0272
78964SOL    HW248872   4.252  13.246   0.922  0.4650 -3.7143  0.7248
78965SOL     OW48873   0.479  11.114   9.639 -0.7271 -0.3020  0.2133
78965SOL    HW148874   0.463  11.150   9.727 -0.0541  0.7893 -0.0855
78965SOL    HW248875   0.393  11.109   9.599 -0.9153  0.4408  0.4908
78966SOL     OW48876   2.112   2.591   4.043  0.3895  0.3547  0.7089
78966SOL    HW148877   2.068   2.662   3.996  0.2712  1.6983  2.7260
78966SOL    HW248878   2.151   2.537   3.974 -2.0817  0.6215 -1.0536
78967SOL     OW48879   5.408  11.981   8.609 -0.2171 -0.4810  0.0309
78967SOL    HW148880   5.398  12.077   8.610 -1.0834 -0.5645  0.7676
78967SOL    HW248881   5.340  11.950   8.669  1.5891 -1.4168  1.6991
78968SOL     OW48882   2.329  10.415   4.774 -0.9413  0.5364  0.3790
78968SOL    HW148883   2.238  10.427   4.747 -0.6284  0.3999 -0.8332
78968SOL    HW248884   2.338  10.466   4.854 -2.1702  0.2756  0.7041
78969SOL     OW48885   2.269   1.619   9.105 -0.6020  0.3492 -0.1991
78969SOL    HW148886   2.319   1.627   9.186 -0.4294  0.5493 -0.3263
78969SOL    HW248887   2.317   1.672   9.041 -1.0797  0.7022 -0.2710
78970SOL     OW48888   0.126  10.359   3.062 -0.0561 -0.1900 -0.9347
78970SOL    HW148889   0.165  10.427   3.117  0.0949 -0.7562 -0.3195
78970SOL    HW248890   0.198  10.298   3.046 -0.5205 -0.9285 -0.3001
78971SOL     OW48891   3.859   8.672   9.541  0.1372  0.3749 -0.1458
78971SOL    HW148892   3.917   8.596   9.549 -1.7843 -1.2481 -0.8060
78971SOL    HW248893   3.786   8.653   9.600 -0.5597  1.5498 -0.5875
78972SOL     OW48894  12.065   0.413   2.166  0.4965  0.0105  0.3745
78972SOL    HW148895  12.073   0.332   2.116  0.9555 -0.3163  0.9591
78972SOL    HW248896  12.115   0.396   2.246  1.0747  1.0683  0.2578
78973SOL     OW48897   5.702   0.646   4.715  0.0275  0.1576  0.1119
78973SOL    HW148898   5.608   0.666   4.712 -0.1192 -0.5897 -2.4455
78973SOL    HW248899   5.743   0.727   4.746 -1.5175  0.0284  2.7349
78974SOL     OW48900  11.829   7.753   8.400  0.1101  0.3957 -0.1290
78974SOL    HW148901  11.907   7.805   8.416  0.1438  0.5021 -0.6282
78974SOL    HW248902  11.842   7.716   8.313 -0.9237  1.3728 -0.7240
78975SOL     OW48903  12.029   9.185   8.284 -0.2674  0.5003  0.2516
78975SOL    HW148904  11.966   9.155   8.349 -0.8260 -1.1288 -0.9625
78975SOL    HW248905  12.071   9.260   8.324 -0.6393 -0.3863  2.4539
78976SOL     OW48906  11.188   8.211   5.641 -1.1003  0.3361 -0.0838
78976SOL    HW148907  11.272   8.253   5.622 -0.5460  0.6501  2.5716
78976SOL    HW248908  11.131   8.283   5.671 -1.9223 -0.0579 -0.6574
78977SOL     OW48909   1.473   1.069   1.217 -0.4308 -0.4774  0.0473
78977SOL    HW148910   1.409   1.129   1.179 -0.8260 -1.4053 -0.8025
78977SOL    HW248911   1.522   1.122   1.279  0.0239  1.0093 -1.5240
78978SOL     OW48912  12.484   6.448   0.173 -0.2231 -0.0928  0.0605
78978SOL    HW148913  12.546   6.481   0.237 -0.5699 -0.3657  0.5410
78978SOL    HW248914  12.404   6.431   0.223  0.4572 -3.4164  0.2476
78979SOL     OW48915   6.434   9.060  12.756  0.0453  0.2757  0.1848
78979SOL    HW148916   6.439   9.114  12.835 -0.0485  0.3277  0.1556
78979SOL    HW248917   6.442   8.970  12.788 -0.4264  0.2728  0.3008
78980SOL     OW48918  11.573   7.511   4.486  0.0351 -0.0268 -0.9394
78980SOL    HW148919  11.619   7.533   4.567 -2.3053 -1.6084  0.9582
78980SOL    HW248920  11.547   7.596   4.450 -0.0980  0.6856  0.7403
78981SOL     OW48921   2.205   6.757   9.863  0.3614  0.4469 -0.8145
78981SOL    HW148922   2.267   6.687   9.843  2.5586  1.2396  2.4325
78981SOL    HW248923   2.258   6.837   9.863 -0.9473  1.3736  0.6277
78982SOL     OW48924   6.835   8.304   8.394 -0.3153 -0.0166 -0.3075
78982SOL    HW148925   6.799   8.232   8.446 -0.2555  1.1203  1.4130
78982SOL    HW248926   6.764   8.333   8.338 -1.2993  0.4725  1.1360
78983SOL     OW48927   0.533   8.112   9.628  0.6646  0.0035  0.3264
78983SOL    HW148928   0.557   8.045   9.564 -1.0352 -0.2853 -0.0673
78983SOL    HW248929   0.516   8.191   9.576 -1.7601 -0.5100  0.2263
78984SOL     OW48930   3.358   7.639   1.916 -0.1801  0.5957 -0.1373
78984SOL    HW148931   3.375   7.633   2.010  1.7858  0.6410 -0.4555
78984SOL    HW248932   3.381   7.729   1.893  0.9552  0.1291 -0.9301
78985SOL     OW48933  11.713   5.086   7.273 -0.3641 -0.0888 -0.1717
78985SOL    HW148934  11.762   5.021   7.224 -0.1494  0.4794 -0.7278
78985SOL    HW248935  11.779   5.148   7.304 -0.5765 -0.0752  0.2556
78986SOL     OW48936   6.765   6.079  10.797 -0.1048  0.8071 -0.3741
78986SOL    HW148937   6.678   6.048  10.823  0.4107  0.9233  1.6663
78986SOL    HW248938   6.804   6.005  10.750 -0.6549  0.0964  0.2647
78987SOL     OW48939   9.253   6.368   8.254 -0.2834 -0.0393 -0.6107
78987SOL    HW148940   9.291   6.324   8.178 -0.2894  1.6770 -1.6411
78987SOL    HW248941   9.174   6.317   8.274 -0.3340 -0.4711 -1.8173
78988SOL     OW48942   0.260  12.117   0.502 -0.1659 -0.0220 -0.0821
78988SOL    HW148943   0.232  12.207   0.515  1.3630  0.1544  2.5919
78988SOL    HW248944   0.342  12.124   0.453  0.5161  0.1607  1.0475
78989SOL     OW48945   6.421   2.746   3.506 -0.0553  0.2629 -0.2418
78989SOL    HW148946   6.502   2.789   3.479  0.0644 -0.8766 -1.9051
78989SOL    HW248947   6.443   2.652   3.506 -1.4771 -0.1032 -1.1974
78990SOL     OW48948   6.492  10.224   6.274 -0.6238 -0.0853 -0.3515
78990SOL    HW148949   6.451  10.141   6.247 -4.9860  1.4210  0.8345
78990SOL    HW248950   6.507  10.215   6.368 -1.5739  0.5801 -0.1218
78991SOL     OW48951   2.253  13.377   3.585 -0.3765  0.2520  0.0054
78991SOL    HW148952   2.322  13.436   3.616 -1.1975  0.4563  1.5371
78991SOL    HW248953   2.173  13.413   3.622 -1.2816 -0.1519 -1.5106
78992SOL     OW48954   1.964   0.520   7.291 -0.0031 -0.4744 -0.2249
78992SOL    HW148955   2.036   0.458   7.303 -0.8395 -1.3323  0.5500
78992SOL    HW248956   1.893   0.485   7.344 -0.7830  0.7150 -0.4361
78993SOL     OW48957  12.178   1.896   6.164  0.4194 -0.9676 -0.0376
78993SOL    HW148958  12.164   1.942   6.081 -0.7576 -1.1425  0.0543
78993SOL    HW248959  12.117   1.937   6.225  2.5760  0.4588  1.2952
78994SOL     OW48960   5.989  12.562   2.501 -0.0014 -0.1678  0.4169
78994SOL    HW148961   6.007  12.649   2.464 -0.3751 -0.5824 -0.7734
78994SOL    HW248962   5.894  12.561   2.514  0.3105  0.7961  3.5845
78995SOL     OW48963   9.474   1.934  12.564  0.8284 -0.2656  0.1405
78995SOL    HW148964   9.433   1.985  12.494 -0.3712 -0.0374  0.9865
78995SOL    HW248965   9.418   1.858  12.575  0.3595  0.2593  1.6000
78996SOL     OW48966  10.010   6.960  11.584 -0.1098 -0.5616  0.7584
78996SOL    HW148967   9.965   6.930  11.506 -1.2877  2.1737  0.2566
78996SOL    HW248968  10.102   6.939  11.568 -0.4770 -1.0935 -0.8299
78997SOL     OW48969   1.519   3.797   4.404  0.1392  0.4914  0.0401
78997SOL    HW148970   1.509   3.879   4.355  0.3556  1.4427  1.5305
78997SOL    HW248971   1.430   3.772   4.427  0.1612  1.3881  1.2355
78998SOL     OW48972   7.986   8.863   5.975 -0.4718  0.1637 -0.1749
78998SOL    HW148973   7.991   8.925   5.902 -0.1211 -0.2603 -0.5116
78998SOL    HW248974   8.039   8.789   5.948 -1.0185 -0.3604  0.1646
78999SOL     OW48975  13.979   9.582  10.456  0.1724 -0.1788  0.2248
78999SOL    HW148976  13.977   9.676  10.473  0.7459 -0.0582 -0.3245
78999SOL    HW248977  13.918   9.545  10.519  0.4972  0.4845  0.9469
79000SOL     OW48978   8.876   4.657   7.194  0.2322  0.1375 -0.4472
79000SOL    HW148979   8.790   4.620   7.210  0.7651 -0.5979  0.8491
79000SOL    HW248980   8.937   4.587   7.217  1.2233  1.2075  0.2941
79001SOL     OW48981  10.677   1.971  12.171  0.4570 -0.1037 -0.4268
79001SOL    HW148982  10.750   2.032  12.161 -0.0245  0.5436 -0.0712
79001SOL    HW248983  10.621   2.011  12.238  0.3250 -1.1225  0.0871
79002SOL     OW48984   1.724  12.337   9.898  0.1547  0.0094 -0.0077
79002SOL    HW148985   1.729  12.334   9.993 -1.1033  2.1132  0.1909
79002SOL    HW248986   1.635  12.309   9.877  0.5441 -0.8348 -0.6275
79003SOL     OW48987   5.350  13.790  12.979 -0.1777  0.0944  0.1783
79003SOL    HW148988   5.363  13.747  13.063  1.2663 -0.1973 -0.1737
79003SOL    HW248989   5.408  13.866  12.982 -0.5585  0.4091 -0.3305
79004SOL     OW48990   1.656   6.582   1.908  0.2055 -0.1024  0.3627
79004SOL    HW148991   1.663   6.653   1.972 -0.1832  1.6218 -1.4242
79004SOL    HW248992   1.570   6.595   1.868 -1.1036 -3.2494  1.7858
79005SOL     OW48993   0.028  10.396   6.029 -0.4257 -0.4645 -0.4830
79005SOL    HW148994   0.037  10.332   6.099 -0.1673  0.1958  0.0928
79005SOL    HW248995  -0.056  10.437   6.045 -0.2556 -0.1422 -0.4174
79006SOL     OW48996   7.563  13.977  11.839 -0.0592  0.2906  0.4011
79006SOL    HW148997   7.556  14.022  11.923 -0.8174 -0.4219  0.7382
79006SOL    HW248998   7.638  14.018  11.796 -0.5338  1.6520  0.8158
79007SOL     OW48999  11.349   1.478   0.268 -0.1001  0.3309  0.1323
79007SOL    HW149000  11.366   1.468   0.175 -1.9617  1.1158 -0.3474
79007SOL    HW249001  11.296   1.402   0.291 -0.1396  0.4386  0.4023
79008SOL     OW49002   2.662   4.780   4.129  0.3224 -0.7023  0.0256
79008SOL    HW149003   2.748   4.784   4.171  0.3529  0.7677 -0.1263
79008SOL    HW249004   2.630   4.692   4.150  0.3572 -0.1014  3.0712
79009SOL     OW49005  13.210   8.196   1.677  0.2169 -0.0366 -0.3236
79009SOL    HW149006  13.287   8.142   1.691  1.0530  1.0763 -0.5253
79009SOL    HW249007  13.213   8.218   1.584 -0.3347  0.0396 -0.3265
79010SOL     OW49008   4.578   8.118  11.800  0.5816 -0.0421  0.6794
79010SOL    HW149009   4.562   8.152  11.712 -0.4000  1.8386  1.5351
79010SOL    HW249010   4.650   8.170  11.834  0.0539  0.1849  1.4811
79011SOL     OW49011   9.546   9.073  13.999 -0.3423 -0.0395  0.2308
79011SOL    HW149012   9.508   9.000  14.048  3.2738 -1.5188  1.1916
79011SOL    HW249013   9.634   9.084  14.037 -0.0260  3.6509 -1.1331
79012SOL     OW49014  13.271   1.275   0.935  0.8768 -0.1315 -0.3854
79012SOL    HW149015  13.215   1.343   0.898 -1.1724 -1.6139 -0.1417
79012SOL    HW249016  13.273   1.295   1.029  1.3017  0.2818 -0.4778
79013SOL     OW49017   3.144   9.430   0.074  0.8505  0.2121  0.4062
79013SOL    HW149018   3.156   9.336   0.057 -0.1295  0.0646  0.5110
79013SOL    HW249019   3.234   9.464   0.077  1.2522 -0.8174  0.9175
79014SOL     OW49020   6.659   0.146   2.426 -0.1565 -0.4838 -1.0693
79014SOL    HW149021   6.733   0.202   2.450 -1.2804  1.2759 -1.5470
79014SOL    HW249022   6.589   0.171   2.486 -0.5051 -1.8661 -0.8699
79015SOL     OW49023   3.777   5.665  11.875  0.1009 -0.3097  0.2259
79015SOL    HW149024   3.736   5.638  11.958 -0.2665  1.5507  0.6999
79015SOL    HW249025   3.712   5.642  11.808 -1.5399  1.9748  0.9042
79016SOL     OW49026   9.785   1.929   8.333 -0.0473 -0.4762 -0.1675
79016SOL    HW149027   9.874   1.950   8.362 -0.0715  1.2565 -1.1764
79016SOL    HW249028   9.730   1.998   8.372 -0.4753  0.2462 -1.9402
79017SOL     OW49029   0.997  10.114   8.623 -0.0089  0.3440 -0.5127
79017SOL    HW149030   0.994  10.207   8.600  2.7277  0.4778 -0.6052
79017SOL    HW249031   1.055  10.075   8.558 -0.3613 -1.2662  0.0907
79018SOL     OW49032   3.650  13.801   9.062 -0.2604  0.1623  0.1585
79018SOL    HW149033   3.674  13.788   8.971 -1.6192  2.1267 -0.5546
79018SOL    HW249034   3.730  13.783   9.111  0.7530 -0.0179 -1.4999
79019SOL     OW49035   8.104   4.643   0.554  0.4127  0.1095  0.3122
79019SOL    HW149036   8.083   4.614   0.465  2.5043 -0.9875  0.0893
79019SOL    HW249037   8.112   4.738   0.547 -0.4914  0.1453 -0.4255
79020SOL     OW49038   5.521   9.096   0.908 -0.4179  0.4331  0.3890
79020SOL    HW149039   5.571   9.016   0.925  0.9589  1.4212  1.2129
79020SOL    HW249040   5.530   9.111   0.814 -2.1269 -1.2542 -0.1192
79021SOL     OW49041   9.236   5.658   0.974 -0.2165  0.1437  0.5515
79021SOL    HW149042   9.173   5.716   0.932 -0.3318 -0.0261  0.4900
79021SOL    HW249043   9.190   5.575   0.984  0.2542 -0.2188 -0.2020
79022SOL     OW49044   5.067   2.029   5.282  0.3464 -0.5964 -0.1720
79022SOL    HW149045   5.132   2.059   5.218  1.9091 -0.4056  1.4296
79022SOL    HW249046   5.099   1.943   5.310 -0.8026 -1.0727 -0.2774
79023SOL     OW49047   9.178   4.261   8.689 -0.6120 -0.5647  0.8871
79023SOL    HW149048   9.219   4.229   8.609 -0.9977 -0.0103  0.4619
79023SOL    HW249049   9.085   4.266   8.668 -0.7537 -0.6856  1.4623
79024SOL     OW49050   4.789  10.364   8.069  0.3960 -0.3602 -0.1507
79024SOL    HW149051   4.818  10.422   7.999 -1.5301 -0.1691 -0.8528
79024SOL    HW249052   4.784  10.421   8.146 -1.9982  0.6475 -0.9489
79025SOL     OW49053   7.381   9.320   1.292 -0.3839  0.2857 -0.5761
79025SOL    HW149054   7.355   9.315   1.384  1.1198 -1.0225 -0.1717
79025SOL    HW249055   7.462   9.371   1.293  0.7244 -1.4151 -0.8926
79026SOL     OW49056   3.474   2.522   8.935  0.3681 -0.0475 -0.1166
79026SOL    HW149057   3.549   2.573   8.963  2.4668 -2.7213 -0.4509
79026SOL    HW249058   3.448   2.561   8.851  2.5916 -0.1321 -0.9135
79027SOL     OW49059   2.542   4.726   3.785  0.0729  0.5326 -0.0151
79027SOL    HW149060   2.542   4.756   3.694 -0.1731 -1.0903 -0.5865
79027SOL    HW249061   2.512   4.801   3.835 -3.4267  0.4326 -1.6634
79028SOL     OW49062   9.163   2.051   2.345  0.5679  0.0597  0.4920
79028SOL    HW149063   9.234   2.023   2.402  0.6862 -0.0366  0.2977
79028SOL    HW249064   9.084   2.042   2.399  0.2125 -3.2884 -0.3525
79029SOL     OW49065  11.173  13.303   8.069  0.0105  0.3799  0.3387
79029SOL    HW149066  11.084  13.273   8.051  0.2637  0.6342 -1.6175
79029SOL    HW249067  11.228  13.225   8.059  0.3458  0.8152 -1.9737
79030SOL     OW49068   9.904   1.100   9.406  0.1034  0.4762 -0.1935
79030SOL    HW149069   9.891   1.005   9.417 -2.0834  0.9730  2.5244
79030SOL    HW249070   9.969   1.123   9.472 -1.0993  1.1585  0.7989
79031SOL     OW49071   0.497   2.007   3.707  0.1256 -0.7194  0.2772
79031SOL    HW149072   0.542   2.075   3.657 -0.1031 -0.8940 -0.1782
79031SOL    HW249073   0.566   1.963   3.756  0.5305 -1.3016 -0.7814
79032SOL     OW49074   9.714   6.215   2.866  0.5686  0.1122 -0.6363
79032SOL    HW149075   9.772   6.276   2.819  0.7971  0.6717  0.3384
79032SOL    HW249076   9.637   6.267   2.888  0.4320 -0.1657 -0.4498
79033SOL     OW49077   8.063   1.479   9.163  0.4332 -0.0962  0.4246
79033SOL    HW149078   8.030   1.550   9.218 -0.0167  1.4437 -1.7402
79033SOL    HW249079   8.037   1.399   9.210 -1.5577  1.1136  1.5285
79034SOL     OW49080   8.487   4.452  12.359  0.3402 -0.6751 -0.1560
79034SOL    HW149081   8.392   4.447  12.351  0.3604 -1.0103 -0.2080
79034SOL    HW249082   8.505   4.542  12.386  0.0777 -0.2937 -1.1808
79035SOL     OW49083   0.657   3.409   1.240  0.1378 -0.4934  0.4266
79035SOL    HW149084   0.734   3.450   1.280 -0.2097  0.8342 -0.2004
79035SOL    HW249085   0.670   3.315   1.254  2.8055 -0.4890 -1.2034
79036SOL     OW49086  13.788  11.212  10.783 -0.4229 -0.6967 -0.1078
79036SOL    HW149087  13.832  11.291  10.753  1.7712 -1.2470  1.4282
79036SOL    HW249088  13.705  11.243  10.820  1.0402  1.1504  1.8645
79037SOL     OW49089  10.714   7.071   2.213  0.1603  0.2787 -0.4741
79037SOL    HW149090  10.693   7.148   2.266  0.0978  0.2746 -0.4926
79037SOL    HW249091  10.747   7.107   2.131  0.9123  0.2853 -0.1778
79038SOL     OW49092   8.947   3.825   1.570  0.3340  0.1854  0.4170
79038SOL    HW149093   8.990   3.799   1.652  2.0361  1.0878 -0.1277
79038SOL    HW249094   9.018   3.826   1.505 -0.5040  1.6843 -0.5444
79039SOL     OW49095  13.932   9.209  12.504 -0.4412  0.4139  0.3371
79039SOL    HW149096  13.857   9.265  12.520  0.1792  0.8025  2.0547
79039SOL    HW249097  13.957   9.176  12.590  1.4138  0.3732 -0.1593
79040SOL     OW49098  11.941   9.423  13.318 -0.5756 -0.1795 -0.2452
79040SOL    HW149099  11.848   9.435  13.300 -0.3992  0.7740 -0.5877
79040SOL    HW249100  11.965   9.346  13.266 -0.3309  1.8493 -3.4877
79041SOL     OW49101  12.365   2.362   0.376  0.1588 -0.1488  0.1940
79041SOL    HW149102  12.406   2.415   0.308  0.1232 -0.0863  0.2203
79041SOL    HW249103  12.343   2.279   0.333 -2.5086  0.8955 -0.7024
79042SOL     OW49104  11.955   4.419   6.310 -0.1685  0.2370 -0.1454
79042SOL    HW149105  11.981   4.490   6.369 -1.5164  0.6449 -0.0206
79042SOL    HW249106  11.878   4.380   6.352 -0.7064  0.0602 -1.2690
79043SOL     OW49107   0.054   5.812  11.544  0.0187  0.1407  0.2630
79043SOL    HW149108   0.109   5.876  11.590  1.0763 -0.7586  0.2749
79043SOL    HW249109   0.021   5.860  11.468  0.4719  0.8277  0.4906
79044SOL     OW49110  12.042  10.055   2.353 -0.3865 -0.1344 -0.0536
79044SOL    HW149111  12.111  10.027   2.413 -1.1701  2.0386  2.0460
79044SOL    HW249112  12.083  10.124   2.300 -0.9793  1.5294  1.5532
79045SOL     OW49113   4.037   1.203   9.608  0.2010 -0.4034  0.0446
79045SOL    HW149114   3.969   1.265   9.580 -0.2657 -0.2696  1.4316
79045SOL    HW249115   3.998   1.155   9.680  1.2222 -1.0549  0.1823
79046SOL     OW49116   1.965  13.859   9.583  0.1760  0.0326 -0.5943
79046SOL    HW149117   1.917  13.898   9.656  1.8423  0.0407  0.5743
79046SOL    HW249118   1.923  13.894   9.504 -2.6673 -1.1570  0.2564
79047SOL     OW49119   9.855  13.093   1.198  0.2243  0.3050 -0.3336
79047SOL    HW149120   9.832  13.107   1.106 -0.7299 -0.3255 -0.2083
79047SOL    HW249121   9.912  13.016   1.197 -1.8744 -1.3821 -0.2172
79048SOL     OW49122   5.957   0.363   4.546  0.0110  0.5832 -0.2133
79048SOL    HW149123   5.877   0.365   4.600  0.5467  2.4614  0.5975
79048SOL    HW249124   5.932   0.314   4.468 -1.5147 -0.1048  0.6566
79049SOL     OW49125   2.157  12.572   9.005 -0.1589  0.8455  0.0529
79049SOL    HW149126   2.231  12.597   8.949 -0.6265  0.0344 -0.9618
79049SOL    HW249127   2.130  12.487   8.972  0.1282 -0.1097  2.1442
79050SOL     OW49128  13.286   8.086   7.016  0.5425 -0.1871 -0.4041
79050SOL    HW149129  13.335   8.139   6.954  1.3374  2.0549  1.9937
79050SOL    HW249130  13.200   8.128   7.021  0.4399 -0.4336 -0.0582
79051SOL     OW49131   2.327   3.055  12.884  0.0900 -0.5409  0.2153
79051SOL    HW149132   2.408   3.007  12.903 -0.3654 -1.5318 -0.2624
79051SOL    HW249133   2.353   3.147  12.883  1.1321 -0.8180  0.4515
79052SOL     OW49134   6.900  11.094   0.007 -0.2413 -0.3940 -0.0949
79052SOL    HW149135   6.973  11.092   0.069 -1.2670 -0.8053  1.1507
79052SOL    HW249136   6.823  11.107   0.062 -1.0379  0.8892 -1.4596
79053SOL     OW49137   5.702   3.065  13.290  0.8314  0.8731  0.2044
79053SOL    HW149138   5.648   3.021  13.355  0.4717  0.0196 -0.6527
79053SOL    HW249139   5.765   3.115  13.342  2.4291 -2.0114  1.2955
79054SOL     OW49140   0.982   9.131   9.074 -0.0018 -0.3711  0.1628
79054SOL    HW149141   0.989   9.147   9.168 -0.6875 -0.7983  0.2923
79054SOL    HW249142   0.889   9.116   9.059  0.3862 -3.0649 -0.1052
79055SOL     OW49143  13.704  11.473   6.346 -0.3299 -0.0669  0.4940
79055SOL    HW149144  13.741  11.412   6.283 -1.0290 -1.9979  1.8675
79055SOL    HW249145  13.750  11.556   6.329  0.8722 -1.0273 -1.2168
79056SOL     OW49146  11.152   3.554   0.201  0.1502  0.0615 -0.2745
79056SOL    HW149147  11.133   3.641   0.235  0.2671 -0.4365  1.1675
79056SOL    HW249148  11.239   3.533   0.236  0.4981 -0.3053 -1.3140
79057SOL     OW49149   9.520   1.058  10.734  0.5290 -0.3172 -0.7053
79057SOL    HW149150   9.534   1.030  10.643 -2.4199 -1.0195 -1.0549
79057SOL    HW249151   9.472   1.140  10.727 -2.1658 -1.7205  0.0774
79058SOL     OW49152   7.149   3.529   3.585  0.4851  0.3150 -0.4900
79058SOL    HW149153   7.205   3.471   3.636  0.5151  0.5941 -0.2044
79058SOL    HW249154   7.170   3.509   3.494 -0.0572 -0.6685 -0.4129
79059SOL     OW49155  13.213  10.064  11.428 -0.6053  0.2028  0.2406
79059SOL    HW149156  13.281  10.100  11.372  0.0449 -1.3315 -0.0001
79059SOL    HW249157  13.221  10.113  11.510  1.4413 -0.5738  0.5656
79060SOL     OW49158   1.175   2.905   4.629 -0.6727  0.3135 -0.0437
79060SOL    HW149159   1.201   2.934   4.716 -0.9763  0.2648  0.0635
79060SOL    HW249160   1.238   2.837   4.606 -0.3316  0.6255 -0.0406
79061SOL     OW49161   1.007  13.996  10.575  0.2187  0.0992 -0.0017
79061SOL    HW149162   1.049  13.962  10.496  0.7969 -0.9986  0.7500
79061SOL    HW249163   1.068  14.062  10.608 -0.9572  2.1115 -1.5241
79062SOL     OW49164   3.602   3.960  12.309  0.2043  0.4555 -0.4878
79062SOL    HW149165   3.531   3.971  12.372 -0.8505  0.4704 -1.6211
79062SOL    HW249166   3.615   4.047  12.271 -0.1266  0.1996 -1.2273
79063SOL     OW49167   0.134   2.887   4.450 -0.0613  0.4661 -0.6198
79063SOL    HW149168   0.120   2.967   4.501 -0.3224 -0.6145  1.0849
79063SOL    HW249169   0.221   2.899   4.412  1.2112  0.3854  2.0010
79064SOL     OW49170   7.846  13.934   0.027 -0.0825  0.0687  0.0374
79064SOL    HW149171   7.909  13.990  -0.017  1.3984 -1.9584 -0.5368
79064SOL    HW249172   7.760  13.970   0.002  0.7845  1.9629 -0.3830
79065SOL     OW49173   2.009   7.726  11.945  0.2762  0.0950  0.3148
79065SOL    HW149174   1.983   7.637  11.971  0.2849  0.1148  0.3923
79065SOL    HW249175   1.995   7.729  11.851 -0.6859  0.3426  0.4551
79066SOL     OW49176   2.883   1.779  10.486 -0.4961  0.4108 -0.7530
79066SOL    HW149177   2.791   1.777  10.511 -0.7876 -2.9013 -1.5211
79066SOL    HW249178   2.883   1.806  10.395 -0.8329 -0.4627 -1.0204
79067SOL     OW49179  12.133   9.671  12.334 -0.0129 -0.1476 -0.0902
79067SOL    HW149180  12.066   9.603  12.325 -0.5965  0.5466 -1.2517
79067SOL    HW249181  12.148   9.702  12.244  1.4764  0.0861  0.2129
79068SOL     OW49182   8.791   2.291  13.479 -0.0347 -0.3318  0.6506
79068SOL    HW149183   8.806   2.385  13.492  1.3165 -0.3267 -0.6672
79068SOL    HW249184   8.821   2.251  13.560 -0.3893  0.3551  1.1292
79069SOL     OW49185   3.105  10.507  12.565  0.2572 -0.3395  0.6726
79069SOL    HW149186   3.038  10.557  12.612  0.9044 -0.1075  1.3688
79069SOL    HW249187   3.132  10.439  12.626  0.1026 -0.9346  0.0975
79070SOL     OW49188   6.771   7.243   5.532 -0.1374  0.7537 -0.2044
79070SOL    HW149189   6.711   7.268   5.461  2.1178  0.9166 -2.2203
79070SOL    HW249190   6.814   7.164   5.500 -0.5430 -0.4379  2.0029
79071SOL     OW49191  13.504  10.601   7.707  0.1720  0.0189  0.4766
79071SOL    HW149192  13.470  10.639   7.626  0.7928  0.7265  0.5325
79071SOL    HW249193  13.426  10.574   7.756 -0.4690  2.9993  1.2953
79072SOL     OW49194   1.088   3.361  13.357  0.1113  0.2078 -0.6141
79072SOL    HW149195   1.054   3.407  13.433 -1.1123  1.0455 -1.6283
79072SOL    HW249196   1.145   3.293  13.393 -1.9293 -0.6678  1.1222
79073SOL     OW49197   6.472  11.391   0.338 -0.2676 -0.2179 -0.2661
79073SOL    HW149198   6.501  11.481   0.354 -0.4495 -0.0452 -0.8947
79073SOL    HW249199   6.377  11.397   0.327 -0.3345 -0.5471  0.0915
79074SOL     OW49200   8.236  10.754   9.816 -0.1727  0.2078  0.2044
79074SOL    HW149201   8.162  10.750   9.756  0.8430 -0.1278 -1.0572
79074SOL    HW249202   8.265  10.845   9.813  0.7846 -0.1073 -0.9871
79075SOL     OW49203   6.906   3.076   5.484 -0.3763  0.0254  0.2655
79075SOL    HW149204   6.879   3.153   5.435 -2.2189 -1.6641 -1.5338
79075SOL    HW249205   7.000   3.090   5.502  1.3416 -0.3124 -6.1459
79076SOL     OW49206   1.728  10.059  11.242  0.2144  0.6187 -0.2493
79076SOL    HW149207   1.729  10.085  11.150 -0.8668  2.2251  0.1581
79076SOL    HW249208   1.812  10.090  11.277  1.0676 -0.8706 -0.8789
79077SOL     OW49209   9.991  12.803   1.155 -0.1749  0.3162  0.6499
79077SOL    HW149210  10.085  12.824   1.150 -0.3141  0.6735 -0.7116
79077SOL    HW249211   9.986  12.709   1.141 -0.0344  0.3311  0.4972
79078SOL     OW49212   6.811   8.710   6.679  0.4042 -0.1551  0.5603
79078SOL    HW149213   6.763   8.788   6.651  1.0786  0.5022  1.1845
79078SOL    HW249214   6.747   8.639   6.675 -0.8504  0.8260  2.1395
79079SOL     OW49215  10.444   4.002   8.359  0.7015  0.1673 -0.3367
79079SOL    HW149216  10.537   4.009   8.380  0.8046  0.8301 -1.0001
79079SOL    HW249217  10.441   3.949   8.280  0.5095  0.0960 -0.2834
79080SOL     OW49218   9.247  11.910   0.247 -0.3045  0.4604  0.3427
79080SOL    HW149219   9.328  11.877   0.207 -0.1463  1.0583  0.1711
79080SOL    HW249220   9.274  11.986   0.298 -0.4904 -0.3199  1.6632
79081SOL     OW49221   9.644   8.323   4.369 -0.2763 -0.3461  0.0223
79081SOL    HW149222   9.662   8.413   4.344  0.2881 -1.1282 -2.7379
79081SOL    HW249223   9.550   8.321   4.383 -0.2492  0.7474  0.4414
79082SOL     OW49224   9.809   3.360   5.573  0.8077  0.1558  0.1738
79082SOL    HW149225   9.888   3.307   5.587  1.3146  0.6235 -0.7765
79082SOL    HW249226   9.747   3.300   5.531  0.6145 -0.2441  1.0249
79083SOL     OW49227   8.990   3.468   0.768 -0.1181  0.2600  0.5267
79083SOL    HW149228   9.013   3.403   0.834  1.2966  1.0198  0.8357
79083SOL    HW249229   9.054   3.538   0.781  0.0422  0.5292 -1.5058
79084SOL     OW49230  12.141   0.099   3.511 -0.7452 -0.3980 -0.0583
79084SOL    HW149231  12.215   0.116   3.453 -0.4744  1.5210  0.7758
79084SOL    HW249232  12.063   0.115   3.457 -0.5174 -0.0355 -0.2761
79085SOL     OW49233  13.004   5.352   2.427  0.1740  0.3128 -0.2894
79085SOL    HW149234  12.972   5.302   2.503  0.5052 -2.7841 -1.9909
79085SOL    HW249235  13.026   5.284   2.362  0.6351  2.7594 -2.8786
79086SOL     OW49236   6.288   5.464  13.760 -0.1283 -0.1461  0.2120
79086SOL    HW149237   6.325   5.473  13.847  1.0871 -1.6823 -0.0931
79086SOL    HW249238   6.327   5.535  13.709  0.8335 -0.5129  0.4149
79087SOL     OW49239  13.778   8.641   1.140 -0.3437 -0.0929 -0.0414
79087SOL    HW149240  13.708   8.578   1.124 -0.8073 -0.0161  1.4483
79087SOL    HW249241  13.857   8.588   1.153 -0.2513 -0.2176 -1.0827
79088SOL     OW49242   4.661   5.771   6.048 -0.2478 -0.0369  0.0588
79088SOL    HW149243   4.737   5.740   5.999 -0.1825 -0.9554  0.7156
79088SOL    HW249244   4.586   5.731   6.004 -0.2633 -0.0523  0.0986
79089SOL     OW49245   9.427   2.600  13.842 -0.2044  0.8027  0.6356
79089SOL    HW149246   9.458   2.565  13.759 -0.8987  2.9881 -0.6324
79089SOL    HW249247   9.395   2.524  13.890  1.0540 -0.6329 -0.6856
79090SOL     OW49248   8.581   1.694  11.014 -0.3285 -0.0686 -0.6139
79090SOL    HW149249   8.634   1.720  11.089  0.4775  0.2797 -1.2838
79090SOL    HW249250   8.491   1.695  11.046  0.0705 -0.9256  0.6218
79091SOL     OW49251  13.402   9.520  13.022 -0.4997 -0.5031 -0.0051
79091SOL    HW149252  13.407   9.544  12.929  1.6261 -0.8467 -0.0117
79091SOL    HW249253  13.452   9.439  13.029  0.1318 -0.0119  1.6087
79092SOL     OW49254   7.048   8.060  10.905  0.5123 -0.1157  0.2890
79092SOL    HW149255   6.982   8.128  10.891  0.7886  0.4417  1.5892
79092SOL    HW249256   6.999   7.978  10.902  0.0943  0.1463 -0.7824
79093SOL     OW49257   4.774   7.777   6.445  0.1752  0.0005 -0.3482
79093SOL    HW149258   4.797   7.699   6.497 -0.9647 -1.0229 -1.3220
79093SOL    HW249259   4.705   7.747   6.385  0.9497  1.3147 -1.9809
79094SOL     OW49260  13.385   1.024   7.497  0.2382 -0.0533  0.1204
79094SOL    HW149261  13.369   1.117   7.510 -0.1377 -0.3283  2.0384
79094SOL    HW249262  13.319   0.997   7.433 -0.0971  0.8697  0.0609
79095SOL     OW49263   4.752   3.184   8.662 -0.3651 -0.0657 -0.1094
79095SOL    HW149264   4.808   3.187   8.739 -0.2178 -2.2118 -0.0781
79095SOL    HW249265   4.695   3.261   8.671 -0.4006 -0.2929  2.1726
79096SOL     OW49266   4.446   7.917   0.190 -0.2852  0.1372  0.3307
79096SOL    HW149267   4.465   7.931   0.098 -0.7080  1.3071  0.4000
79096SOL    HW249268   4.465   7.825   0.205 -2.8589 -0.8317 -1.5807
79097SOL     OW49269  10.323   2.541   6.684  0.0995 -0.2445  0.1749
79097SOL    HW149270  10.411   2.509   6.702  0.1625 -1.2803 -1.6763
79097SOL    HW249271  10.318   2.547   6.588 -2.1649 -1.3027  0.1381
79098SOL     OW49272   3.192   8.326   7.312  0.4742  0.4163  0.0298
79098SOL    HW149273   3.098   8.315   7.298  0.6076  1.7810 -2.5496
79098SOL    HW249274   3.202   8.420   7.330  1.2748  0.1261  1.1784
79099SOL     OW49275   3.098  10.327  11.364  0.6660 -0.6070  0.5365
79099SOL    HW149276   3.032  10.346  11.298  0.8339  1.2277  0.8630
79099SOL    HW249277   3.148  10.253  11.327  1.1308  0.7279 -1.6942
79100SOL     OW49278   2.176   6.730  12.017  0.3488 -0.4847  0.5646
79100SOL    HW149279   2.185   6.801  12.081  0.1139 -0.5535  0.6790
79100SOL    HW249280   2.152   6.654  12.070 -1.0390 -0.2725  0.2794
79101SOL     OW49281   6.585   4.123   7.964  0.2536  0.0344  0.5228
79101SOL    HW149282   6.651   4.147   8.029 -0.7459 -1.1024  2.0420
79101SOL    HW249283   6.633   4.115   7.882  1.4113  2.4348  0.8817
79102SOL     OW49284   7.459   1.112  11.020  0.1853  0.1562  0.0554
79102SOL    HW149285   7.498   1.076  11.099  0.1505  2.0053  0.9756
79102SOL    HW249286   7.368   1.082  11.022  0.8161 -1.9494 -0.6917
79103SOL     OW49287   3.452   8.618   4.249 -0.0325  0.5725  0.1533
79103SOL    HW149288   3.456   8.556   4.177 -0.5607 -0.7337  1.1952
79103SOL    HW249289   3.527   8.676   4.235 -0.0828  0.3069 -1.3807
79104SOL     OW49290  11.567   6.649  13.273  0.0526  0.0549  0.0295
79104SOL    HW149291  11.652   6.684  13.246  0.0473  0.4775  0.5252
79104SOL    HW249292  11.519   6.636  13.192  0.1893  0.8768 -0.1994
79105SOL     OW49293   1.990   9.621  11.746 -0.7539  0.1938  0.1498
79105SOL    HW149294   2.003   9.570  11.827 -2.4560 -0.4085  0.0902
79105SOL    HW249295   1.963   9.707  11.776 -1.2801  0.0023  0.2473
79106SOL     OW49296  13.445   9.711   5.359  0.7234 -0.5236 -0.2907
79106SOL    HW149297  13.494   9.630   5.347  0.4318 -0.9448  1.1582
79106SOL    HW249298  13.506   9.769   5.406 -0.6137 -1.6555  3.1147
79107SOL     OW49299  11.270  10.817   0.254 -0.0182 -0.3461 -0.2490
79107SOL    HW149300  11.175  10.814   0.271 -0.1158  1.7301 -0.0758
79107SOL    HW249301  11.278  10.811   0.159 -0.3969  0.0456 -0.3125
79108SOL     OW49302   0.808   3.582  10.259 -0.2024 -0.4652 -0.3668
79108SOL    HW149303   0.788   3.619  10.345  1.5581 -0.4788  0.0946
79108SOL    HW249304   0.771   3.644  10.196 -2.3558 -0.9294  0.3502
79109SOL     OW49305  13.358   3.318   1.065  0.2690 -0.4603  0.4872
79109SOL    HW149306  13.377   3.249   1.129  0.0316 -0.5445  0.4665
79109SOL    HW249307  13.331   3.393   1.117 -3.2466 -1.5133  0.4164
79110SOL     OW49308   8.407   3.462  10.000  0.1030  0.5550 -0.3948
79110SOL    HW149309   8.347   3.519   9.951  1.6675  1.3413 -1.4992
79110SOL    HW249310   8.394   3.375   9.962 -1.4768  0.3683  0.5092
79111SOL     OW49311  11.682   6.971   3.922  0.2449  0.2613  0.0767
79111SOL    HW149312  11.690   6.879   3.900 -0.0578 -0.1184  1.4361
79111SOL    HW249313  11.730   6.980   4.005  2.8834  1.9550 -1.4742
79112SOL     OW49314   8.364   2.620   0.169 -0.0525  0.0505  0.2379
79112SOL    HW149315   8.379   2.590   0.079 -1.7017  0.2405 -0.1276
79112SOL    HW249316   8.435   2.683   0.185 -0.7995  1.5046 -1.6676
79113SOL     OW49317   3.256   6.588   2.116  0.2441  0.1020 -0.3491
79113SOL    HW149318   3.316   6.619   2.184  0.4577 -0.0959 -0.4495
79113SOL    HW249319   3.267   6.650   2.044  0.6553 -0.1922 -0.5408
79114SOL     OW49320   7.969  11.186   2.438  0.5791 -0.4661  0.7706
79114SOL    HW149321   7.921  11.263   2.470 -0.8251 -1.4152  1.0493
79114SOL    HW249322   8.040  11.222   2.385  0.5125  1.0352  1.6495
79115SOL     OW49323   5.101   2.151  11.130 -0.1249  0.7635  0.2696
79115SOL    HW149324   5.014   2.151  11.090 -0.7169  2.1443  1.4690
79115SOL    HW249325   5.162   2.160  11.057 -1.0021  0.2016 -0.5494
79116SOL     OW49326   3.694   6.290   9.326  0.3095 -0.3262 -0.0751
79116SOL    HW149327   3.731   6.338   9.400 -2.5572  0.4349  1.0121
79116SOL    HW249328   3.700   6.198   9.351 -0.1686 -0.1038  0.9340
79117SOL     OW49329  11.093   1.428   8.932  0.0315  0.3156 -0.0485
79117SOL    HW149330  11.059   1.450   8.846 -1.3047 -0.0987  0.3546
79117SOL    HW249331  11.171   1.375   8.915 -1.0720 -1.0591 -1.0194
79118SOL     OW49332   5.051   6.004   2.016 -0.2903 -0.4148 -0.0552
79118SOL    HW149333   5.009   5.936   1.963 -2.1370 -0.0721  0.9047
79118SOL    HW249334   5.120   5.957   2.063 -0.3611 -1.2536 -0.7571
79119SOL     OW49335   3.286  10.941   4.048  0.5504 -0.2297 -0.2521
79119SOL    HW149336   3.304  10.897   4.131  1.5204  0.4529 -0.0858
79119SOL    HW249337   3.240  11.022   4.074  1.0892  0.1141 -0.3491
79120SOL     OW49338   1.824  13.325   5.346 -0.1490  0.0105  0.3817
79120SOL    HW149339   1.741  13.297   5.386  0.6157 -1.6713  0.8678
79120SOL    HW249340   1.847  13.405   5.393 -1.4018  0.4034  0.3631
79121SOL     OW49341   1.030   0.627   7.122  0.1777  0.4070 -0.4919
79121SOL    HW149342   1.087   0.703   7.129  0.0397  0.4335  0.3751
79121SOL    HW249343   1.013   0.619   7.028  1.2611  0.6453 -0.7209
79122SOL     OW49344   8.908   6.064   6.652  0.3106 -0.2128  0.3735
79122SOL    HW149345   8.831   6.007   6.645 -0.8552  1.3393  0.1158
79122SOL    HW249346   8.934   6.058   6.744 -1.3088  0.7064  0.9296
79123SOL     OW49347   1.849  10.273   7.242 -0.5302 -0.0746 -0.4944
79123SOL    HW149348   1.917  10.324   7.286 -1.3726  1.3000 -0.7081
79123SOL    HW249349   1.866  10.285   7.149 -0.5967 -0.3689 -0.5439
79124SOL     OW49350   4.311   6.572  10.373  0.0701 -0.2765  0.5326
79124SOL    HW149351   4.230   6.619  10.393 -1.2679 -0.9300 -2.8122
79124SOL    HW249352   4.289   6.480  10.387  0.3409 -0.4284 -0.0313
79125SOL     OW49353  10.976   3.682   4.615  0.4209  0.4499  0.3907
79125SOL    HW149354  10.933   3.754   4.661  2.5460  2.4288 -0.5653
79125SOL    HW249355  10.925   3.605   4.639 -2.3210  2.3161  0.9729
79126SOL     OW49356  10.151   9.424  12.367 -0.3135  0.0458  0.2811
79126SOL    HW149357  10.183   9.359  12.429 -1.2410 -0.3406  0.3780
79126SOL    HW249358  10.056   9.410  12.365 -0.4459  0.9486 -0.2091
79127SOL     OW49359  11.920   4.369   8.618  0.3131  0.0556  0.6782
79127SOL    HW149360  12.001   4.374   8.568 -0.0044  0.3718  0.1935
79127SOL    HW249361  11.946   4.391   8.708  0.5915  1.2172  0.3313
79128SOL     OW49362  12.214   0.313   2.372  0.1022 -0.1117  0.1298
79128SOL    HW149363  12.284   0.311   2.438  0.6235 -1.7089 -0.4270
79128SOL    HW249364  12.138   0.349   2.419  1.0439  0.8453  0.9795
79129SOL     OW49365   3.067   4.609   0.851  0.3305  0.0860 -0.5216
79129SOL    HW149366   3.156   4.598   0.818  0.1662  1.0633 -1.3433
79129SOL    HW249367   3.018   4.643   0.776 -0.9259 -1.1861 -0.3026
79130SOL     OW49368   2.174  12.412  13.484  0.3020 -0.6206 -0.5159
79130SOL    HW149369   2.110  12.463  13.533 -1.5114 -0.9398 -2.4566
79130SOL    HW249370   2.184  12.331  13.535  2.0523  0.8984  1.7591
79131SOL     OW49371  13.122   8.412  11.291  0.6184  0.4525 -0.4557
79131SOL    HW149372  13.106   8.331  11.242  0.5228 -0.6701  1.3699
79131SOL    HW249373  13.036   8.434  11.328  0.4409  1.9094 -1.6463
79132SOL     OW49374   0.179   0.261   0.730 -0.2715 -0.2220 -0.5528
79132SOL    HW149375   0.182   0.350   0.764  1.4747 -0.2109 -0.6492
79132SOL    HW249376   0.205   0.269   0.639 -2.2879 -0.5936 -1.2103
79133SOL     OW49377   3.955  13.120  13.388  0.8231  0.2539  0.5876
79133SOL    HW149378   3.991  13.158  13.469 -0.0299  0.6701  0.7820
79133SOL    HW249379   4.031  13.082  13.344  1.1714 -0.8155  2.0327
79134SOL     OW49380  10.238   4.398   1.602 -0.4629  0.1300 -0.8191
79134SOL    HW149381  10.318   4.351   1.575  0.0049  0.3552  0.1273
79134SOL    HW249382  10.265   4.447   1.679 -1.7472 -0.4850  0.0538
79135SOL     OW49383   2.783   3.491   8.394 -0.5028 -0.5771 -0.2696
79135SOL    HW149384   2.711   3.434   8.365 -1.4176  0.0824  0.6304
79135SOL    HW249385   2.786   3.561   8.328 -1.3086 -0.1232  0.1481
79136SOL     OW49386   7.002   2.086   7.377 -0.0014 -0.2620  0.0159
79136SOL    HW149387   7.045   2.044   7.451  0.3118  0.3767  0.1994
79136SOL    HW249388   6.959   2.014   7.330  1.1252 -0.8826 -0.0823
79137SOL     OW49389   1.180   8.523   3.481  0.0604 -0.4197  0.3864
79137SOL    HW149390   1.176   8.475   3.563 -0.8691  1.2931  1.4016
79137SOL    HW249391   1.269   8.511   3.450  0.6392 -0.5335  2.0064
79138SOL     OW49392   2.129   2.507   9.088  0.2833  0.0030 -0.4498
79138SOL    HW149393   2.220   2.477   9.075  0.8035  1.1406  0.4053
79138SOL    HW249394   2.081   2.427   9.107  1.2831 -0.5232 -0.0353
79139SOL     OW49395   1.315  10.110  11.579 -0.1383 -0.3511  0.1985
79139SOL    HW149396   1.366  10.045  11.531 -0.5713 -0.5138 -0.0496
79139SOL    HW249397   1.378  10.178  11.602  0.3570 -0.9479  0.6247
79140SOL     OW49398   5.695   7.649   7.601 -0.6740 -0.2613 -0.0973
79140SOL    HW149399   5.784   7.677   7.577 -1.0553  1.8472  0.7233
79140SOL    HW249400   5.708   7.568   7.650  0.7412 -0.3369 -0.5256
79141SOL     OW49401   3.336   6.341  12.268  0.2640 -0.5944  0.3203
79141SOL    HW149402   3.353   6.257  12.312  1.0172 -1.0964 -0.8774
79141SOL    HW249403   3.350   6.406  12.336 -3.8623 -1.4904  2.3294
79142SOL     OW49404  12.692  11.273   0.424  0.0412 -0.0788 -0.2284
79142SOL    HW149405  12.610  11.292   0.469 -0.6672 -0.7401 -1.2130
79142SOL    HW249406  12.756  11.330   0.467 -0.5261 -0.8658  1.8143
79143SOL     OW49407  10.937  11.505   9.007 -0.7880 -0.1297  0.2879
79143SOL    HW149408  10.967  11.499   8.916  1.9248 -1.1136  1.1513
79143SOL    HW249409  10.867  11.440   9.013  0.0128 -1.1381 -0.7602
79144SOL     OW49410  10.246  13.001   8.014 -0.2480 -0.0554 -0.4022
79144SOL    HW149411  10.210  13.035   8.096 -0.3368 -0.1723 -0.3921
79144SOL    HW249412  10.340  13.021   8.019  0.1003 -1.7184  0.5831
79145SOL     OW49413   1.753  13.265  13.286  0.2287  0.2920  0.1607
79145SOL    HW149414   1.689  13.329  13.318  1.0444  0.6862  1.0084
79145SOL    HW249415   1.761  13.286  13.193 -2.2919 -0.9850 -0.4463
79146SOL     OW49416  11.596  10.993   0.619  0.1391 -0.1835  0.5159
79146SOL    HW149417  11.669  10.933   0.605  0.0213 -0.5066  1.2200
79146SOL    HW249418  11.536  10.976   0.546  0.8734  0.2696 -0.2119
79147SOL     OW49419   5.622   8.602   7.514 -0.9535  0.3380 -0.5981
79147SOL    HW149420   5.672   8.556   7.446 -0.3001  1.3568 -0.8260
79147SOL    HW249421   5.685   8.614   7.585 -1.0528  1.0609 -0.6277
79148SOL     OW49422   5.445   7.032   1.819  0.2097  0.2182  0.3388
79148SOL    HW149423   5.404   6.953   1.783 -0.2997  0.3196  0.6880
79148SOL    HW249424   5.530   7.036   1.776  0.2260 -0.5009  0.2815
79149SOL     OW49425   8.283   5.460   9.418  0.0313 -0.4555  0.1751
79149SOL    HW149426   8.263   5.370   9.442 -1.0993  0.4173  2.9024
79149SOL    HW249427   8.215   5.484   9.355 -1.2630 -0.7689  1.3901
79150SOL     OW49428   3.885   2.968   9.562 -0.1650 -0.0271  0.2632
79150SOL    HW149429   3.791   2.982   9.555 -0.0489  0.5780 -0.1174
79150SOL    HW249430   3.908   2.919   9.484  0.1216  1.4092 -0.5957
79151SOL     OW49431   4.353   9.969   4.495 -0.2830  0.8885  0.1086
79151SOL    HW149432   4.443   9.941   4.477 -0.7588 -0.0387 -0.9773
79151SOL    HW249433   4.307   9.956   4.412 -2.2405 -1.9908  1.4825
79152SOL     OW49434   2.877   4.652   9.820 -0.2829 -0.0543 -0.1359
79152SOL    HW149435   2.843   4.690   9.739  0.0237 -2.5438 -1.5455
79152SOL    HW249436   2.811   4.587   9.846 -0.1594  0.3960  1.3839
79153SOL     OW49437  13.233  10.313   3.052  0.0519 -0.1642  0.0658
79153SOL    HW149438  13.304  10.339   3.111 -0.7543  0.4564  0.7881
79153SOL    HW249439  13.227  10.218   3.063  0.6146 -0.1917  0.1766
79154SOL     OW49440   5.617   0.422  12.201  0.3876  0.9055  0.1635
79154SOL    HW149441   5.530   0.381  12.199  0.1252  1.4155  0.7774
79154SOL    HW249442   5.665   0.378  12.130 -0.8882  1.7646 -1.3135
79155SOL     OW49443  10.936   0.238   0.159  0.1839  0.2033  0.2270
79155SOL    HW149444  10.993   0.193   0.221 -0.1578 -1.6450 -0.7127
79155SOL    HW249445  10.848   0.229   0.197 -0.1694 -1.8201 -0.9087
79156SOL     OW49446  11.689   1.127   8.390 -0.3437  0.4192 -0.0310
79156SOL    HW149447  11.738   1.045   8.397 -0.7099 -0.0295 -2.0016
79156SOL    HW249448  11.691   1.148   8.296 -4.3858  0.0125 -0.4112
79157SOL     OW49449   3.595   7.773   8.595 -0.4604  0.5390  0.0434
79157SOL    HW149450   3.681   7.792   8.633  0.5372 -0.9020 -1.3710
79157SOL    HW249451   3.532   7.799   8.663  1.0047  2.7497  0.6697
79158SOL     OW49452   1.654   0.811   2.979  0.0931  0.0371 -0.1019
79158SOL    HW149453   1.726   0.807   3.042 -0.2823 -0.2280  0.3173
79158SOL    HW249454   1.660   0.899   2.941  0.7536 -0.0530 -0.2144
79159SOL     OW49455   9.963   2.914   1.157 -0.4536 -0.3086 -0.0592
79159SOL    HW149456   9.988   2.885   1.069  0.3465  1.2980 -0.3998
79159SOL    HW249457  10.041   2.957   1.191 -0.9625 -0.3502  1.1976
79160SOL     OW49458   8.038   8.469   3.819 -0.2288  0.0469  0.4504
79160SOL    HW149459   8.112   8.522   3.850  0.5481 -0.3396 -0.6436
79160SOL    HW249460   7.995   8.438   3.898  0.6959  0.4122  1.1166
79161SOL     OW49461   5.956   8.742   4.393 -0.2909  0.0319  0.4667
79161SOL    HW149462   6.045   8.776   4.404 -0.2843  0.4197 -0.6474
79161SOL    HW249463   5.956   8.701   4.307 -1.8551  2.3313 -0.7649
79162SOL     OW49464   0.184  12.491   2.450  0.2391 -0.4258  0.0234
79162SOL    HW149465   0.157  12.421   2.390 -0.5208  1.8906 -2.5974
79162SOL    HW249466   0.219  12.559   2.392  1.1552  1.2686  2.4317
79163SOL     OW49467   0.017  11.478   8.272  0.6405 -0.3348 -0.6798
79163SOL    HW149468   0.036  11.390   8.240 -0.3094 -0.9586  0.4171
79163SOL    HW249469  -0.007  11.466   8.363 -0.3394  0.9665 -0.7382
79164SOL     OW49470   4.862  12.647   1.935 -0.1383  0.3605 -0.1825
79164SOL    HW149471   4.819  12.687   2.011  2.0301  1.5050  0.5204
79164SOL    HW249472   4.852  12.711   1.865 -1.0115 -0.1331 -0.5325
79165SOL     OW49473   0.015   7.813   9.483 -0.1404 -0.1902  0.2347
79165SOL    HW149474  -0.040   7.784   9.410 -0.4354  1.5797 -0.2757
79165SOL    HW249475  -0.045   7.824   9.556 -0.4262  1.2563 -0.1878
79166SOL     OW49476  10.007   4.550   6.473  0.2851  0.1222 -0.3405
79166SOL    HW149477   9.996   4.645   6.478  1.1449  0.3440 -1.9417
79166SOL    HW249478   9.957   4.524   6.396 -0.4097 -0.8347  0.4052
79167SOL     OW49479   4.516   1.172   7.476  0.1327 -0.1138  0.1134
79167SOL    HW149480   4.455   1.242   7.499  1.0677  0.6860  0.2135
79167SOL    HW249481   4.501   1.157   7.382 -1.5946 -1.3208  0.5394
79168SOL     OW49482   6.441   3.916   3.831  0.0721 -0.4117  0.0859
79168SOL    HW149483   6.537   3.909   3.830  0.1360  0.4144  0.1065
79168SOL    HW249484   6.424   4.010   3.832 -0.7469 -0.4965 -1.7669
79169SOL     OW49485  11.957   6.940   6.349  0.2987 -0.3193  0.3163
79169SOL    HW149486  11.906   6.874   6.395 -1.0350 -0.2586 -0.9898
79169SOL    HW249487  12.021   6.970   6.413  0.2646 -2.1220  1.2694
79170SOL     OW49488   0.330   7.902  14.012  0.1854 -0.3636  0.0119
79170SOL    HW149489   0.276   7.859  14.078 -0.2456  0.2675  0.0785
79170SOL    HW249490   0.405   7.937  14.061  0.7774 -1.4181 -0.1126
79171SOL     OW49491  11.587   5.070   1.040  0.5452  0.0812 -0.0773
79171SOL    HW149492  11.658   5.104   0.986  0.0247  1.3303 -0.0127
79171SOL    HW249493  11.507   5.095   0.993  0.1294 -1.3740 -0.1953
79172SOL     OW49494   9.234   3.817   6.275  0.0397  0.3633  0.4860
79172SOL    HW149495   9.215   3.723   6.266 -1.3310  0.7600 -1.1999
79172SOL    HW249496   9.330   3.821   6.275  0.1318 -1.0530  0.8708
79173SOL     OW49497   1.646   0.188   0.376 -0.9110  0.7303 -0.2293
79173SOL    HW149498   1.555   0.160   0.363 -0.4516 -0.3165 -1.4267
79173SOL    HW249499   1.663   0.248   0.303 -0.9282  1.7183  0.5624
79174SOL     OW49500   4.410   7.989   4.525 -0.3148 -0.0494  0.4113
79174SOL    HW149501   4.391   7.919   4.587  1.4969 -0.2491  0.8195
79174SOL    HW249502   4.469   8.048   4.573  0.1206  0.4574 -0.7143
79175SOL     OW49503   2.177  12.443   8.640  0.5654  0.0999  0.0949
79175SOL    HW149504   2.134  12.366   8.601  4.4542 -2.3242  0.0250
79175SOL    HW249505   2.208  12.493   8.564 -1.9713  1.9351  0.1404
79176SOL     OW49506   9.551   4.764  13.921 -0.5961  0.0643  0.4253
79176SOL    HW149507   9.604   4.724  13.852 -2.2318 -2.4956  0.5014
79176SOL    HW249508   9.468   4.785  13.877 -0.7399  0.8518  1.0566
79177SOL     OW49509   3.926   9.776  11.916  0.2331  0.1992  0.0289
79177SOL    HW149510   3.893   9.796  12.003 -0.6207 -0.9167 -0.0148
79177SOL    HW249511   3.930   9.680  11.913 -0.1368  0.2033 -1.2824
79178SOL     OW49512   6.751   9.586   5.650  0.1624 -0.4469 -0.0969
79178SOL    HW149513   6.658   9.604   5.661  0.1645 -0.7525  0.4292
79178SOL    HW249514   6.762   9.495   5.675  0.5333 -0.5445 -0.5875
79179SOL     OW49515  13.231   5.121   6.386 -0.1680 -0.1818  0.2755
79179SOL    HW149516  13.255   5.214   6.386 -1.1733  0.1207  2.1274
79179SOL    HW249517  13.264   5.088   6.302  0.9102  1.6516 -0.0840
79180SOL     OW49518   7.090   6.597  13.757 -0.3152 -0.5159  0.5450
79180SOL    HW149519   7.058   6.549  13.680 -0.1059  0.5291 -0.2100
79180SOL    HW249520   7.091   6.689  13.729 -0.0736 -0.1440  1.7467
79181SOL     OW49521   4.520   8.734   4.338  0.1187  0.5389  0.2225
79181SOL    HW149522   4.593   8.727   4.278 -1.3724  3.0730 -2.0907
79181SOL    HW249523   4.472   8.652   4.327  0.2620  0.6665 -1.5495
79182SOL     OW49524  10.207  10.049   6.622  0.3686  0.0469  0.6063
79182SOL    HW149525  10.285  10.052   6.677  1.1234 -0.0328 -0.4390
79182SOL    HW249526  10.240  10.058   6.533 -0.8340  0.1898  0.1572
79183SOL     OW49527   8.059   3.603  13.258 -0.4765  0.4167 -0.1495
79183SOL    HW149528   8.119   3.676  13.245  1.5967 -1.4007 -1.6581
79183SOL    HW249529   7.982   3.626  13.206 -0.7054  2.3135  0.9387
79184SOL     OW49530   7.510   9.210  12.039 -0.2282  0.2739 -0.3503
79184SOL    HW149531   7.439   9.149  12.060  0.9215 -1.5747 -1.5062
79184SOL    HW249532   7.558   9.220  12.121 -0.2581 -0.6210 -0.2178
79185SOL     OW49533   8.434  13.199  12.841 -0.3656  0.2403  0.1712
79185SOL    HW149534   8.397  13.118  12.876  1.5499 -0.2380  1.2192
79185SOL    HW249535   8.365  13.264  12.853 -1.6818 -1.0672 -0.0550
79186SOL     OW49536  12.587   1.620  12.775 -0.1504  0.0974  0.8156
79186SOL    HW149537  12.648   1.689  12.801 -0.4718  0.5301  0.4493
79186SOL    HW249538  12.625   1.583  12.696 -2.1573  2.9335 -1.7301
79187SOL     OW49539  10.822   6.636   7.519 -1.1900  0.3087 -0.1017
79187SOL    HW149540  10.831   6.577   7.594 -1.5178  1.5425  0.9389
79187SOL    HW249541  10.860   6.718   7.548 -0.2828  0.4957 -1.7066
79188SOL     OW49542   0.554   0.669  11.117  0.6782  0.6261  0.3863
79188SOL    HW149543   0.612   0.620  11.058  1.0312  1.4546  0.0274
79188SOL    HW249544   0.473   0.680  11.067  0.7684  0.8226  0.2842
79189SOL     OW49545   2.615  10.800   4.827  0.2545  0.1571  0.2706
79189SOL    HW149546   2.547  10.825   4.890  0.7046  0.4185  0.6524
79189SOL    HW249547   2.577  10.725   4.780 -0.2895  0.2873  0.4920
79190SOL     OW49548   4.354   1.336   5.360 -0.1991  0.2375 -0.6896
79190SOL    HW149549   4.285   1.290   5.407  0.1901  0.6897  0.3460
79190SOL    HW249550   4.333   1.322   5.267 -2.0007  0.8397 -0.4074
79191SOL     OW49551  12.137   7.331  11.351 -0.1443 -1.2561 -0.6710
79191SOL    HW149552  12.119   7.238  11.338  0.5370 -1.2958 -1.3915
79191SOL    HW249553  12.153   7.365  11.263 -0.1656 -0.4964 -0.3923
79192SOL     OW49554  11.045   6.408  11.753  0.2111  0.1744 -0.5830
79192SOL    HW149555  11.101   6.330  11.758 -1.7142 -1.1939  0.9341
79192SOL    HW249556  11.029   6.418  11.659  0.6850 -1.1258 -0.8382
79193SOL     OW49557   9.561   6.587  10.656  0.2369  0.1992  0.2593
79193SOL    HW149558   9.631   6.644  10.625  1.4774 -1.7676 -0.7913
79193SOL    HW249559   9.591   6.557  10.742  1.8496 -2.2704 -1.0340
79194SOL     OW49560   9.698   7.759  13.981 -0.2009 -0.4526  0.2992
79194SOL    HW149561   9.610   7.768  14.019 -0.7174  0.9859 -1.1254
79194SOL    HW249562   9.743   7.698  14.039 -2.8123 -2.9921 -0.1594
79195SOL     OW49563   5.098   5.556  13.966 -0.1550 -0.0925 -0.6133
79195SOL    HW149564   5.048   5.496  13.909 -0.8779  1.3866 -1.5877
79195SOL    HW249565   5.107   5.636  13.914  1.2797  0.4685  0.4486
79196SOL     OW49566   8.332   0.060   2.725 -0.0492 -0.4139  0.4427
79196SOL    HW149567   8.357  -0.018   2.775 -0.1472 -0.2240  0.7838
79196SOL    HW249568   8.369   0.133   2.774 -2.5972  0.0232  1.8592
79197SOL     OW49569   0.281   1.513   0.826  0.4076 -0.2558 -0.4701
79197SOL    HW149570   0.247   1.470   0.905  1.1717  0.4351  0.2523
79197SOL    HW249571   0.329   1.589   0.859  1.2565 -0.2998 -1.5706
79198SOL     OW49572  12.561   5.666  12.186  0.5504  0.0771 -0.0125
79198SOL    HW149573  12.613   5.660  12.106 -0.0932  0.7861 -0.4982
79198SOL    HW249574  12.573   5.581  12.228  0.1808 -0.6474 -1.3065
79199SOL     OW49575   4.230   5.904   5.224 -0.3030  0.4161 -0.0761
79199SOL    HW149576   4.210   5.834   5.286  0.3516  0.3651  0.0763
79199SOL    HW249577   4.144   5.936   5.196 -0.6003  0.0831  0.4515
79200SOL     OW49578   4.086   5.367  12.925  0.5253 -0.6936 -0.0266
79200SOL    HW149579   4.154   5.435  12.927  0.1515 -0.2401 -1.4547
79200SOL    HW249580   4.119   5.303  12.862  0.4171 -1.3596  0.5787
79201SOL     OW49581  13.017   1.900   0.573  0.3400  0.1745  0.2572
79201SOL    HW149582  13.044   1.907   0.665  1.4303 -0.2042 -0.0179
79201SOL    HW249583  12.976   1.814   0.568 -0.2185  0.4229  0.5075
79202SOL     OW49584  11.251   1.773   3.833  0.4224 -0.6446 -0.5127
79202SOL    HW149585  11.286   1.754   3.921  0.0618 -0.4355 -0.3217
79202SOL    HW249586  11.166   1.813   3.850 -0.4801 -2.2511 -0.9813
79203SOL     OW49587   7.196   0.545  12.427 -0.2669 -0.2232  0.5782
79203SOL    HW149588   7.218   0.634  12.452  0.9322 -0.0931 -0.8374
79203SOL    HW249589   7.152   0.554  12.342 -1.7220 -0.8627  1.2296
79204SOL     OW49590   4.103  11.869   6.620 -0.6761 -0.3293  0.3255
79204SOL    HW149591   4.033  11.879   6.556 -0.6868  0.4116  0.4406
79204SOL    HW249592   4.058  11.846   6.702 -0.8134  0.3290  0.4435
79205SOL     OW49593   8.659   5.323  10.340  0.0276 -0.2237 -0.0124
79205SOL    HW149594   8.649   5.240  10.387  1.3881  0.7113  2.0660
79205SOL    HW249595   8.692   5.298  10.253  1.6169 -1.8264  0.9822
79206SOL     OW49596   9.263   6.253  12.460 -0.1963  0.2434 -0.1920
79206SOL    HW149597   9.345   6.241  12.509 -0.3072  0.4463  0.0395
79206SOL    HW249598   9.254   6.347  12.451 -0.3979  0.2199 -0.2349
79207SOL     OW49599   8.481   1.360   6.102  0.1943  0.0707  0.3646
79207SOL    HW149600   8.512   1.289   6.159 -0.1618 -0.2758  0.1258
79207SOL    HW249601   8.554   1.377   6.042 -0.2354 -1.0705 -0.5070
79208SOL     OW49602  12.438   3.799   5.691 -0.7830 -0.3509 -0.2098
79208SOL    HW149603  12.440   3.881   5.643 -0.2022 -0.6249 -0.6630
79208SOL    HW249604  12.348   3.791   5.722 -0.2298  1.8850  2.3457
79209SOL     OW49605   1.429  12.820   1.090 -0.1600  0.4574 -0.4493
79209SOL    HW149606   1.435  12.845   1.183  0.4008 -1.2628  0.0054
79209SOL    HW249607   1.477  12.889   1.044 -2.9278  2.9989  0.1580
79210SOL     OW49608   6.553   2.332   1.374 -0.6783 -0.7369  0.2742
79210SOL    HW149609   6.537   2.238   1.366  0.4321 -0.9138 -0.0257
79210SOL    HW249610   6.489   2.362   1.439  0.1935 -2.0576  1.8135
79211SOL     OW49611   9.800   4.468   0.256  0.1666 -0.1942 -0.1570
79211SOL    HW149612   9.736   4.466   0.327  1.0504 -1.0944  0.6511
79211SOL    HW249613   9.784   4.388   0.207  2.4503 -1.9696  1.7537
79212SOL     OW49614   0.634   4.588   3.854  0.1279 -0.4405  0.1557
79212SOL    HW149615   0.655   4.495   3.847 -1.3748 -0.8189  0.4094
79212SOL    HW249616   0.567   4.602   3.787  0.9506  0.6647 -0.4718
79213SOL     OW49617   2.748   2.793   1.073 -0.0166  0.1583 -0.0039
79213SOL    HW149618   2.788   2.719   1.028 -0.4088 -1.0879  1.5869
79213SOL    HW249619   2.732   2.858   1.004  1.3164 -0.7904 -1.2639
79214SOL     OW49620   7.158   4.675  10.586 -0.3485  0.1691  0.9253
79214SOL    HW149621   7.161   4.714  10.498 -1.0423 -2.6281 -0.4676
79214SOL    HW249622   7.130   4.746  10.643  0.5312  2.2126 -1.0212
79215SOL     OW49623   6.329   5.613  11.247 -0.2868 -0.3052 -0.0884
79215SOL    HW149624   6.360   5.641  11.333 -1.6644 -0.7751  0.5994
79215SOL    HW249625   6.390   5.545  11.220  0.4763  0.2246  0.2691
79216SOL     OW49626   9.423   5.119   5.091  0.6488 -0.3513 -0.2849
79216SOL    HW149627   9.482   5.182   5.133 -0.6692  1.1829 -0.6585
79216SOL    HW249628   9.344   5.169   5.072  0.2347 -1.6461 -2.2648
79217SOL     OW49629   0.495   8.362  10.910  0.1095 -0.4743 -0.1953
79217SOL    HW149630   0.562   8.294  10.908  0.1835 -0.4252  0.5007
79217SOL    HW249631   0.415   8.318  10.880  0.4935 -0.4773 -1.2382
79218SOL     OW49632   9.604   5.864  11.401 -0.0170  0.4946 -0.6786
79218SOL    HW149633   9.689   5.849  11.359 -0.3438 -0.9703 -0.8544
79218SOL    HW249634   9.610   5.819  11.485 -0.6943  0.2099 -0.7811
79219SOL     OW49635  10.625   4.148   6.187  0.2334 -0.0437 -0.2258
79219SOL    HW149636  10.668   4.078   6.138  0.2833  0.1712 -0.4948
79219SOL    HW249637  10.621   4.116   6.277  1.8941  0.3449  0.0204
79220SOL     OW49638   2.152   0.073  11.937 -0.2007  0.5059 -0.3247
79220SOL    HW149639   2.067   0.060  11.980  0.8845 -2.3759  1.2908
79220SOL    HW249640   2.138   0.045  11.847 -1.2437  1.3423 -0.4418
79221SOL     OW49641   7.730   9.872   7.359  0.4048 -0.2673  0.2203
79221SOL    HW149642   7.657   9.906   7.308  1.0616  3.3432  1.4411
79221SOL    HW249643   7.689   9.825   7.431 -0.7356  0.8594  0.3388
79222SOL     OW49644  13.969  10.881  11.444  0.5179  0.1693 -0.0276
79222SOL    HW149645  14.060  10.909  11.441  0.6492 -0.2011  0.3552
79222SOL    HW249646  13.941  10.902  11.533 -0.4928  2.4816 -0.8061
79223SOL     OW49647   4.831  11.106   4.649 -0.1378  0.1478 -0.7560
79223SOL    HW149648   4.740  11.077   4.647 -0.5166  1.2035 -3.4363
79223SOL    HW249649   4.854  11.118   4.557  2.0087  2.0435 -0.0636
79224SOL     OW49650   9.682  13.768   1.056 -0.4526 -0.0425 -0.3859
79224SOL    HW149651   9.594  13.753   1.089 -0.7859 -0.0838 -1.2802
79224SOL    HW249652   9.683  13.860   1.031  0.2454  0.3660  1.0429
79225SOL     OW49653   8.719  11.892  10.207 -0.7294  0.0961 -0.7424
79225SOL    HW149654   8.714  11.813  10.154  0.4769 -0.8487  0.4866
79225SOL    HW249655   8.688  11.865  10.294  0.2061  0.8119 -0.1581
79226SOL     OW49656  12.978   2.205  12.249  0.0560  0.5097 -0.4056
79226SOL    HW149657  12.966   2.290  12.292 -2.5748 -0.7714  1.7679
79226SOL    HW249658  13.070   2.183  12.264  0.6869  2.7345 -0.6548
79227SOL     OW49659   8.404   5.088   7.218  0.3022 -0.1226  0.1475
79227SOL    HW149660   8.381   5.019   7.280 -1.4646  0.2108 -0.0819
79227SOL    HW249661   8.463   5.046   7.156 -0.2814 -1.2784  0.3480
79228SOL     OW49662   3.166   6.554   3.867  0.6449  0.3173 -0.1853
79228SOL    HW149663   3.189   6.611   3.793  0.8099  1.5623  0.7886
79228SOL    HW249664   3.250   6.521   3.899  0.5954  0.0111 -0.3668
79229SOL     OW49665   4.022   1.768   9.203 -0.4126  0.0287  0.2086
79229SOL    HW149666   4.107   1.766   9.248  0.4410 -1.0733 -1.3509
79229SOL    HW249667   4.010   1.860   9.180  0.9869  0.0366 -0.6243
79230SOL     OW49668  11.511   6.228   1.475  0.4517 -0.4854  0.3623
79230SOL    HW149669  11.556   6.294   1.527  1.8524 -1.7642  0.8293
79230SOL    HW249670  11.494   6.271   1.391  2.0454  0.2427  0.3775
79231SOL     OW49671  13.810  10.404   5.710 -0.1633  0.2218  0.0098
79231SOL    HW149672  13.767  10.486   5.685  0.1856  0.1472 -0.8673
79231SOL    HW249673  13.904  10.425   5.710 -0.1325  0.1444  1.0206
79232SOL     OW49674  11.919  12.319   6.277  0.2408  0.1192 -0.0369
79232SOL    HW149675  11.846  12.380   6.289 -0.0728  0.0989 -1.6209
79232SOL    HW249676  11.879  12.241   6.239  1.0291  0.0112 -0.6924
79233SOL     OW49677   5.652  12.479  12.474  0.3574  0.2672  0.8826
79233SOL    HW149678   5.652  12.385  12.456  1.3362  0.5352 -0.7518
79233SOL    HW249679   5.568  12.510  12.441  0.7283  0.1952 -0.1901
79234SOL     OW49680   6.992  11.313   8.846 -0.0555  0.8688  0.1956
79234SOL    HW149681   6.905  11.277   8.863  0.1124  0.6294  0.5452
79234SOL    HW249682   7.046  11.281   8.918 -0.0356  2.3126  0.8669
79235SOL     OW49683   8.215   1.726   0.648  0.9033  0.2604  0.6927
79235SOL    HW149684   8.258   1.644   0.674  0.0093 -0.5012 -0.1372
79235SOL    HW249685   8.286   1.780   0.614  1.1649 -1.3029 -1.4712
79236SOL     OW49686   2.785   0.244  12.273 -0.0073 -0.2104  0.0032
79236SOL    HW149687   2.733   0.163  12.274  0.1776 -0.3306  0.0128
79236SOL    HW249688   2.876   0.214  12.283  0.1163 -0.0431 -0.5719
79237SOL     OW49689  13.903   2.470   3.509 -0.5457 -0.3598  0.3413
79237SOL    HW149690  13.948   2.458   3.592  0.4160  1.7705  0.1964
79237SOL    HW249691  13.817   2.505   3.533 -0.8293 -1.1387  0.4799
79238SOL     OW49692   8.110   0.929   9.799  0.1563 -0.5288  0.2803
79238SOL    HW149693   8.180   0.973   9.848 -0.1488 -1.2948  1.4553
79238SOL    HW249694   8.085   0.992   9.732 -0.4168  1.2317  2.0250
79239SOL     OW49695   9.022   4.074   9.212  0.1803 -0.3076  0.3366
79239SOL    HW149696   9.065   4.143   9.263  0.5778 -0.6568  0.4838
79239SOL    HW249697   9.043   3.993   9.260 -2.3269 -0.3141  1.5921
79240SOL     OW49698   7.766   4.534   3.246  0.1040  0.9087 -0.3949
79240SOL    HW149699   7.824   4.460   3.228 -0.5699  0.5517 -1.1332
79240SOL    HW249700   7.707   4.537   3.171 -1.2399  0.8703  0.6309
79241SOL     OW49701   0.894  11.775   4.009 -0.7091 -0.0389  0.5994
79241SOL    HW149702   0.956  11.774   4.082 -0.5755  1.2718  0.5384
79241SOL    HW249703   0.864  11.685   4.001  0.2882 -0.4611  1.4060
79242SOL     OW49704   7.661   1.248  10.902  0.1093  0.4814 -0.2598
79242SOL    HW149705   7.652   1.334  10.943 -0.6736  0.2760  0.0190
79242SOL    HW249706   7.598   1.192  10.949  0.4654 -0.1946 -0.5655
79243SOL     OW49707   6.910  11.156   3.193  0.3176 -0.2929  0.6087
79243SOL    HW149708   6.917  11.081   3.135 -0.4086  0.1405 -0.0552
79243SOL    HW249709   6.890  11.230   3.135  0.2479  0.2701  1.3309
79244SOL     OW49710   0.084   5.211   2.122 -0.1232  0.6293 -0.0382
79244SOL    HW149711   0.119   5.135   2.169 -0.6158 -0.1384 -0.8929
79244SOL    HW249712   0.113   5.286   2.174  1.9519 -0.0268 -0.1893
79245SOL     OW49713   1.502   2.076  12.112  0.2188  0.4668  0.0648
79245SOL    HW149714   1.499   2.044  12.022  1.2148  2.6053 -0.7786
79245SOL    HW249715   1.573   2.026  12.153  0.2035 -0.0325 -0.5052
79246SOL     OW49716  13.855  11.758   4.043  0.4028 -0.2533 -0.2663
79246SOL    HW149717  13.776  11.811   4.045  0.4092 -0.2624  0.5114
79246SOL    HW249718  13.860  11.719   4.131  0.8536 -0.8614 -0.5511
79247SOL     OW49719   6.982  11.586   8.871 -0.1930  0.3395  0.1241
79247SOL    HW149720   7.066  11.541   8.882  0.2336  1.1425  0.2596
79247SOL    HW249721   6.916  11.520   8.892  0.2597 -1.1711 -2.6215
79248SOL     OW49722   9.036  10.048  12.370 -0.1636 -0.8763  1.1271
79248SOL    HW149723   9.105  10.111  12.349  0.2343 -1.4796  0.5850
79248SOL    HW249724   8.961  10.076  12.317 -0.0627 -0.7231  1.0624
79249SOL     OW49725  11.927  13.412   0.804 -0.3297  0.2691  0.5191
79249SOL    HW149726  11.974  13.397   0.722 -2.1616 -2.1090 -0.1915
79249SOL    HW249727  11.960  13.344   0.863 -2.5830 -1.3191  0.0670
79250SOL     OW49728   6.000   6.809  13.186  0.2487  0.0585  0.4561
79250SOL    HW149729   6.013   6.889  13.134 -1.1207  1.4002  2.0990
79250SOL    HW249730   6.087   6.791  13.223  0.8315  0.0950 -0.8124
79251SOL     OW49731   6.478   6.574   7.964 -0.1209  0.8732  0.7546
79251SOL    HW149732   6.498   6.622   8.044  0.9948  0.7968  0.5400
79251SOL    HW249733   6.435   6.494   7.994 -0.1279  1.0604  1.2473
79252SOL     OW49734   8.961   2.910  10.833  0.5735 -0.8137 -0.0306
79252SOL    HW149735   8.902   2.869  10.896 -0.2610 -2.1254 -1.5919
79252SOL    HW249736   9.008   2.837  10.793 -1.4864 -0.4938 -3.4406
79253SOL     OW49737   2.000   8.539  13.723 -0.0658 -0.2829 -0.1444
79253SOL    HW149738   1.963   8.474  13.664  0.1652 -0.4268 -0.1307
79253SOL    HW249739   2.094   8.519  13.726 -0.2126 -0.9162  1.0607
79254SOL     OW49740   2.755  13.266   9.694  0.0134 -0.0806  0.6852
79254SOL    HW149741   2.778  13.353   9.726 -2.4050  1.2944 -1.0318
79254SOL    HW249742   2.774  13.269   9.600 -1.2354 -0.9891  0.3834
79255SOL     OW49743   8.717   6.533   4.597  0.4146  0.2810  0.1990
79255SOL    HW149744   8.755   6.608   4.643 -0.1595 -0.1069  1.3222
79255SOL    HW249745   8.623   6.542   4.609  0.0925  1.0199 -2.2446
79256SOL     OW49746   8.106  12.093   1.877  0.2729  0.1190  0.1041
79256SOL    HW149747   8.131  12.009   1.917  1.1763 -0.0049 -0.6824
79256SOL    HW249748   8.188  12.142   1.872 -0.1424  0.8060 -0.0201
79257SOL     OW49749  10.430  10.783   0.885  0.4560  0.3489  0.6784
79257SOL    HW149750  10.378  10.745   0.814  0.7945  2.6735 -0.9272
79257SOL    HW249751  10.449  10.709   0.943  0.0851 -1.6619 -1.5885
79258SOL     OW49752   8.622  10.054  11.577 -0.7892 -0.2075  0.3199
79258SOL    HW149753   8.706  10.085  11.611 -1.2393  0.0663  1.2035
79258SOL    HW249754   8.569  10.133  11.569 -1.0469 -0.4121 -0.0036
79259SOL     OW49755  13.483  12.975  11.442 -0.2412  0.0729  0.4155
79259SOL    HW149756  13.528  12.907  11.492 -1.8230 -2.7546 -1.7256
79259SOL    HW249757  13.458  13.040  11.507  1.4896 -1.2716  2.5610
79260SOL     OW49758  12.215   6.527   2.793 -0.4484 -0.6260 -0.1415
79260SOL    HW149759  12.256   6.536   2.707 -0.3292 -0.6569 -0.0877
79260SOL    HW249760  12.272   6.576   2.852 -0.6681 -0.3903 -0.1224
79261SOL     OW49761   4.060   7.493  13.841  0.3695 -0.0370 -0.0112
79261SOL    HW149762   4.097   7.574  13.804 -0.5848  1.3211  1.8808
79261SOL    HW249763   4.136   7.436  13.853  1.2801  1.1196 -0.0471
79262SOL     OW49764   0.160   0.697   9.161 -0.5980  0.0944 -0.5794
79262SOL    HW149765   0.173   0.787   9.190  1.4512 -0.2389 -0.3259
79262SOL    HW249766   0.227   0.647   9.208 -2.2028 -1.7224 -0.0800
79263SOL     OW49767  13.287   6.382   1.450 -0.1441  0.4456  0.0508
79263SOL    HW149768  13.348   6.341   1.512  0.2036  0.8008 -0.0482
79263SOL    HW249769  13.206   6.332   1.459 -0.4444  1.1525  1.5736
79264SOL     OW49770   2.083   9.278   8.443  0.1489 -0.8163  0.2112
79264SOL    HW149771   2.011   9.334   8.413  0.5080  0.2117  1.1707
79264SOL    HW249772   2.121   9.242   8.363 -0.9100 -0.7257 -0.3525
79265SOL     OW49773   1.030   7.658  12.994  0.1490 -0.2227  0.1159
79265SOL    HW149774   0.982   7.610  12.927  0.0643  0.7058 -0.5112
79265SOL    HW249775   1.053   7.592  13.059  1.3201 -1.3946 -1.4139
79266SOL     OW49776   1.328   1.905   6.304 -0.2595  0.7976  0.1641
79266SOL    HW149777   1.347   1.993   6.272  0.4372  0.1651 -1.2615
79266SOL    HW249778   1.242   1.883   6.267  0.6570 -0.0304 -1.5952
79267SOL     OW49779   3.410  13.379   3.969  0.3331 -0.1176  0.5040
79267SOL    HW149780   3.409  13.423   3.885 -0.0171 -0.7390  0.1779
79267SOL    HW249781   3.376  13.291   3.951  2.9544 -1.2665  0.7236
79268SOL     OW49782  10.316   5.740  12.130 -0.3727  0.4295 -0.6073
79268SOL    HW149783  10.313   5.751  12.035 -1.3494  0.2515 -0.6062
79268SOL    HW249784  10.253   5.804  12.164 -0.8378 -0.2512 -0.1602
79269SOL     OW49785  13.303  13.244   2.141 -0.0268  0.2395  0.5044
79269SOL    HW149786  13.395  13.224   2.128 -0.1539  0.9232 -2.0912
79269SOL    HW249787  13.303  13.317   2.204  1.2858  0.8640 -0.1707
79270SOL     OW49788  10.804   2.845   5.059 -0.7781  0.7448  0.9685
79270SOL    HW149789  10.880   2.901   5.043 -1.4723  1.1050 -1.3596
79270SOL    HW249790  10.741   2.902   5.103 -0.4524  0.9836  1.1323
79271SOL     OW49791   6.039   9.055   4.843 -0.4925 -0.7964 -0.1103
79271SOL    HW149792   6.071   9.056   4.933  0.8959  0.9416 -0.5820
79271SOL    HW249793   5.973   9.124   4.840  1.3020  0.9852 -0.9812
79272SOL     OW49794   0.430  11.636  11.644  0.0563  0.2640  0.3850
79272SOL    HW149795   0.450  11.705  11.708 -0.4119 -1.4213  2.4477
79272SOL    HW249796   0.357  11.672  11.594  2.2080  2.7986 -1.2377
79273SOL     OW49797  13.046   7.901   2.168  0.0913 -0.0494  0.3199
79273SOL    HW149798  13.045   7.973   2.104 -2.0297  1.3276  1.7790
79273SOL    HW249799  12.957   7.868   2.168  0.7968 -2.0930  0.4209
79274SOL     OW49800   4.693   6.658   6.427 -0.2868  0.2974 -0.1247
79274SOL    HW149801   4.616   6.714   6.436 -0.1848  0.3776  0.2683
79274SOL    HW249802   4.762   6.703   6.476  0.0676  0.3268 -0.6344
79275SOL     OW49803   2.170   1.964   7.146 -0.2331  0.1117  0.1514
79275SOL    HW149804   2.242   1.901   7.149  0.2681  0.6860  0.5699
79275SOL    HW249805   2.096   1.917   7.185  0.7148  0.4777  2.5801
79276SOL     OW49806  13.727   2.838   1.864  0.3519 -0.0704  1.1329
79276SOL    HW149807  13.695   2.923   1.895 -0.9238 -0.3095  0.5646
79276SOL    HW249808  13.805   2.860   1.812 -1.0234  1.0248 -0.6310
79277SOL     OW49809   5.388   2.103   7.970  0.0142  0.0012 -0.4121
79277SOL    HW149810   5.311   2.138   7.924  1.2643  2.0895 -1.0230
79277SOL    HW249811   5.401   2.163   8.043  0.1648 -1.2726  0.6528
79278SOL     OW49812   6.836   9.350   8.079  0.0420 -0.8732  0.5555
79278SOL    HW149813   6.866   9.440   8.091 -2.1157  0.1497 -1.0975
79278SOL    HW249814   6.747   9.348   8.115 -0.1837 -2.1761  0.0066
79279SOL     OW49815   2.891   7.511  10.420 -0.2402  0.5467  0.3092
79279SOL    HW149816   2.931   7.592  10.391 -0.0482  0.8069  1.2881
79279SOL    HW249817   2.940   7.485  10.498 -1.4394  0.4609  1.0725
79280SOL     OW49818  11.527   7.125  10.443  0.2597  0.0275  0.2505
79280SOL    HW149819  11.488   7.053  10.395 -0.9117  0.6481  0.2326
79280SOL    HW249820  11.581   7.171  10.378 -0.5768  0.3207 -0.2453
79281SOL     OW49821  13.897   5.875  10.595 -0.1128  0.2362  0.2167
79281SOL    HW149822  13.947   5.954  10.579 -1.4660  0.9684 -0.5708
79281SOL    HW249823  13.942   5.832  10.668 -0.0358  2.3332  1.4693
79282SOL     OW49824   8.159   5.151  11.938  0.2303  0.1175  0.0311
79282SOL    HW149825   8.074   5.113  11.958  0.0888  1.0133  1.2161
79282SOL    HW249826   8.155   5.240  11.972  1.9811 -0.1326  1.0500
79283SOL     OW49827  12.201   7.892  10.746  0.2695 -0.1312 -0.2887
79283SOL    HW149828  12.259   7.935  10.808  3.5217 -2.0822 -1.6802
79283SOL    HW249829  12.209   7.799  10.766 -2.1453 -0.5421 -0.8701
79284SOL     OW49830   9.867   1.214   0.956 -0.0086 -0.3257  0.2724
79284SOL    HW149831   9.827   1.179   1.036  0.5810  2.3893  1.8785
79284SOL    HW249832   9.959   1.189   0.962 -0.3459 -1.9657 -0.7220
79285SOL     OW49833   2.531   8.510   6.944  0.1377 -0.0303  0.8099
79285SOL    HW149834   2.496   8.599   6.946  0.6563  0.2247 -0.7820
79285SOL    HW249835   2.485   8.468   6.871  0.0157 -1.0337  1.4424
79286SOL     OW49836   0.710   7.486   0.801  0.3266 -0.6611 -0.1137
79286SOL    HW149837   0.713   7.491   0.897 -0.0824  1.3626 -0.1626
79286SOL    HW249838   0.618   7.496   0.779  0.5292 -0.0264 -0.7383
79287SOL     OW49839   3.601   3.997   7.918 -0.1707  0.2090 -0.0969
79287SOL    HW149840   3.686   3.953   7.913  1.2661  2.7209  0.0167
79287SOL    HW249841   3.553   3.968   7.840  1.0130 -0.8305 -0.4684
79288SOL     OW49842  10.946   3.504  12.574 -0.3464 -0.2720  0.0392
79288SOL    HW149843  10.900   3.588  12.580  0.4934  0.1147  1.4705
79288SOL    HW249844  10.884   3.441  12.611 -0.3236  0.0076  0.5736
79289SOL     OW49845   2.489   1.336   9.594 -0.2099 -0.1833  0.1311
79289SOL    HW149846   2.507   1.259   9.648  1.2729  1.2650  1.8387
79289SOL    HW249847   2.401   1.363   9.620  1.1673  1.6345  3.5202
79290SOL     OW49848   4.151   6.240  12.784  0.3413 -0.5501 -0.2926
79290SOL    HW149849   4.112   6.168  12.736 -2.2198 -0.2521  1.1576
79290SOL    HW249850   4.096   6.316  12.763  0.7377  0.1399  1.0049
79291SOL     OW49851  13.784  13.179   1.068  0.0433 -0.7096  0.4283
79291SOL    HW149852  13.861  13.138   1.108  1.9934  0.6020 -1.7538
79291SOL    HW249853  13.795  13.272   1.086 -2.9804 -0.7035  3.0906
79292SOL     OW49854  12.917   4.439   8.771  0.4509 -0.2029  0.2509
79292SOL    HW149855  12.892   4.431   8.679  0.6274  0.6347  0.1140
79292SOL    HW249856  13.012   4.428   8.771  0.4778  0.0194  0.2958
79293SOL     OW49857   0.377   5.309   8.472  0.0052 -0.0023 -0.1495
79293SOL    HW149858   0.309   5.244   8.486 -0.7448  0.4919 -1.3844
79293SOL    HW249859   0.445   5.264   8.422  0.3199 -0.3238  0.5555
79294SOL     OW49860  12.611   3.438   3.015  0.5530 -0.8757  0.2214
79294SOL    HW149861  12.550   3.366   3.002  0.0109 -0.2808 -0.5856
79294SOL    HW249862  12.680   3.423   2.950  1.0877 -1.3253  0.8674
79295SOL     OW49863   4.546  11.462   6.078  0.7332 -0.9058 -0.2133
79295SOL    HW149864   4.556  11.400   6.150  1.4396 -1.3759 -0.7010
79295SOL    HW249865   4.537  11.407   6.000 -0.4105 -0.4149 -0.4533
79296SOL     OW49866   6.100   0.974  12.655  0.1269  0.0771 -0.0016
79296SOL    HW149867   6.011   0.943  12.675  0.1222 -0.4275 -0.7524
79296SOL    HW249868   6.106   1.059  12.697 -1.2996  0.8656 -1.2968
79297SOL     OW49869   0.552  12.763   4.665 -0.5416 -0.2094 -0.2626
79297SOL    HW149870   0.579  12.855   4.671 -0.0666 -0.3170 -0.7418
79297SOL    HW249871   0.512  12.745   4.750  1.8558 -0.3574  0.8958
79298SOL     OW49872   2.900   0.547   4.887  0.4485 -0.1158 -0.2005
79298SOL    HW149873   2.885   0.540   4.982 -1.0264  0.0169 -0.3920
79298SOL    HW249874   2.843   0.480   4.849  0.1178  0.6313 -1.0541
79299SOL     OW49875   6.922   5.125   6.083 -0.4886 -0.2111 -0.1592
79299SOL    HW149876   6.979   5.079   6.145  1.7139  1.1050 -1.1025
79299SOL    HW249877   6.922   5.216   6.113  0.1074  0.3269 -1.6800
79300SOL     OW49878  13.050   1.020   5.529 -0.1072 -0.1744 -0.5468
79300SOL    HW149879  12.973   1.054   5.483 -0.7813  0.6997  1.1656
79300SOL    HW249880  13.123   1.072   5.495 -0.5745  0.3752 -0.7221
79301SOL     OW49881   3.245   0.680   5.391  0.1296 -0.2313  0.5208
79301SOL    HW149882   3.328   0.729   5.386  0.2825 -0.5159  0.1744
79301SOL    HW249883   3.262   0.601   5.341  0.2230 -1.1331  1.9188
79302SOL     OW49884   0.580   2.294   4.162 -0.1593  0.2948 -0.6937
79302SOL    HW149885   0.545   2.208   4.139  0.4805 -0.4441  0.9629
79302SOL    HW249886   0.648   2.311   4.097  1.7279 -1.8068  0.6079
79303SOL     OW49887   2.726  11.611   6.043  0.2946 -0.2747 -0.1253
79303SOL    HW149888   2.716  11.524   6.006  1.4394 -0.0720 -0.9414
79303SOL    HW249889   2.800  11.649   5.997  0.1069  0.9647  0.5472
79304SOL     OW49890   1.735   2.832   1.721 -0.1960  0.1545 -0.5602
79304SOL    HW149891   1.811   2.883   1.693  0.1814  0.2397  0.5750
79304SOL    HW249892   1.756   2.742   1.697  1.1578 -0.1334  1.4119
79305SOL     OW49893   2.066  12.098   7.015  0.0252  0.5591  0.0661
79305SOL    HW149894   2.126  12.040   7.061  1.3795  0.8729 -1.2328
79305SOL    HW249895   2.037  12.047   6.939 -0.6024  0.7629  0.1629
79306SOL     OW49896   0.478  12.158   3.606 -0.1852 -0.4555  0.7441
79306SOL    HW149897   0.557  12.202   3.575 -0.7462  0.3307  0.3751
79306SOL    HW249898   0.501  12.122   3.691  0.7904 -0.8991  0.3089
79307SOL     OW49899  11.402   4.791   8.819  0.4722  0.7890  0.0523
79307SOL    HW149900  11.466   4.857   8.794  1.4412 -0.2728 -0.3651
79307SOL    HW249901  11.424   4.767   8.909  1.3171 -0.2806 -0.4160
79308SOL     OW49902   5.579   4.754   0.811 -0.0616  0.4624 -0.4411
79308SOL    HW149903   5.545   4.817   0.748 -0.0055  1.0255  0.0767
79308SOL    HW249904   5.536   4.671   0.789 -0.9401  0.9199 -0.4743
79309SOL     OW49905  10.566  10.834   3.865 -0.1696  0.3406 -0.3589
79309SOL    HW149906  10.650  10.863   3.832  0.5892 -2.0109 -0.6314
79309SOL    HW249907  10.566  10.862   3.957  1.6473 -1.0252  0.1141
79310SOL     OW49908  11.831  11.609   7.129  0.0305 -0.1733 -0.7762
79310SOL    HW149909  11.915  11.650   7.105  0.2227  0.4397  0.8112
79310SOL    HW249910  11.770  11.682   7.136  0.0542 -0.2731  0.7873
79311SOL     OW49911  13.198   9.639  13.547  0.0244  0.1973 -0.7755
79311SOL    HW149912  13.167   9.689  13.622 -0.4816  0.3255 -1.0664
79311SOL    HW249913  13.158   9.681  13.472 -1.8286 -1.6491 -0.9301
79312SOL     OW49914  13.960  12.146  10.446  0.1049  0.0161  0.2524
79312SOL    HW149915  14.009  12.227  10.432  0.1229 -0.0900 -0.3029
79312SOL    HW249916  14.015  12.095  10.505  0.8881 -0.2932 -0.7128
79313SOL     OW49917  10.894   5.658   9.294 -0.0456  0.4144  0.0767
79313SOL    HW149918  10.901   5.566   9.270 -1.4631  0.3294 -0.1116
79313SOL    HW249919  10.871   5.657   9.387 -0.2023  0.5580  0.0422
79314SOL     OW49920  10.546   0.338  13.733 -0.2929  0.5651 -0.1307
79314SOL    HW149921  10.560   0.363  13.824 -0.5968  0.4653 -0.0537
79314SOL    HW249922  10.617   0.380  13.685  1.7064 -1.7851  0.5133
79315SOL     OW49923   5.305   6.761  12.193  0.2927 -0.6515 -0.1838
79315SOL    HW149924   5.321   6.756  12.099 -1.4077  0.4418 -0.5804
79315SOL    HW249925   5.289   6.854  12.210  0.7600 -0.7985  1.2432
79316SOL     OW49926  12.152   1.706   0.736  0.0347  0.1206 -0.2830
79316SOL    HW149927  12.093   1.653   0.682 -1.5311  0.9246  0.5407
79316SOL    HW249928  12.144   1.667   0.824  1.9084 -0.6643 -0.4244
79317SOL     OW49929   1.793   3.091  10.423  0.3017  0.2895  0.1241
79317SOL    HW149930   1.885   3.115  10.432 -0.0699  1.1630  2.3345
79317SOL    HW249931   1.746   3.174  10.433 -0.7534 -0.2099 -0.4988
79318SOL     OW49932   5.695  13.542   3.422  0.6241 -0.0998  0.8948
79318SOL    HW149933   5.750  13.465   3.406  0.8740  0.4171 -0.8816
79318SOL    HW249934   5.623  13.534   3.359 -0.4997  0.0742  2.1001
79319SOL     OW49935  11.155  12.880   2.846  0.1694 -0.0002 -0.3650
79319SOL    HW149936  11.085  12.913   2.790  0.5069  0.3108 -0.6097
79319SOL    HW249937  11.128  12.791   2.870 -0.3806  0.1792 -0.3253
79320SOL     OW49938   3.480   9.032   5.543  0.2757 -0.1815  0.2747
79320SOL    HW149939   3.405   9.032   5.602  1.5576 -2.2221  2.0379
79320SOL    HW249940   3.452   9.085   5.469 -3.1225 -1.3459  0.5645
79321SOL     OW49941  10.700   6.310   9.435 -0.0549 -1.1754 -0.0583
79321SOL    HW149942  10.786   6.332   9.472  0.0814  0.1961 -1.0840
79321SOL    HW249943  10.637   6.344   9.499  0.1823 -0.0475 -0.3898
79322SOL     OW49944  10.762   9.290   1.442 -0.2290 -0.0611  0.7303
79322SOL    HW149945  10.712   9.328   1.370  0.5304  1.8560  1.1697
79322SOL    HW249946  10.810   9.217   1.402 -0.7762  0.1952 -0.4289
79323SOL     OW49947  10.558   4.680   8.472  0.5353 -0.1808 -0.2962
79323SOL    HW149948  10.551   4.763   8.520  0.8908  0.2560 -0.9861
79323SOL    HW249949  10.469   4.661   8.443  0.5062  0.1191 -0.4029
79324SOL     OW49950   0.203   6.448   0.017 -0.1524 -0.6814 -0.1806
79324SOL    HW149951   0.167   6.500  -0.054 -0.0498 -0.1542  0.1469
79324SOL    HW249952   0.166   6.361   0.004 -1.3201 -0.2286 -0.0205
79325SOL     OW49953   2.031   6.298   6.337  0.5001  0.9047  0.7422
79325SOL    HW149954   1.975   6.372   6.361  0.6709  1.4265 -0.4004
79325SOL    HW249955   2.013   6.232   6.404 -1.1590  1.2255  0.6597
79326SOL     OW49956   3.279   1.791  11.521  0.1649  0.0718 -0.2843
79326SOL    HW149957   3.295   1.839  11.440 -0.6941 -1.9438 -1.7285
79326SOL    HW249958   3.197   1.745  11.506 -0.6782  0.6322  2.2520
79327SOL     OW49959   6.133   0.968   5.963 -0.6620 -0.1552 -0.8197
79327SOL    HW149960   6.213   0.916   5.961 -0.1812  0.4366  0.9919
79327SOL    HW249961   6.143   1.025   6.039 -1.5010  2.0671 -2.2704
79328SOL     OW49962  12.173   7.346   6.612 -0.2801  0.4104 -0.2128
79328SOL    HW149963  12.149   7.261   6.575  1.8910 -0.3532 -0.0516
79328SOL    HW249964  12.101   7.367   6.672 -0.5645 -1.6803  0.2751
79329SOL     OW49965   6.369   3.227  11.181  0.3084 -0.1045  0.4564
79329SOL    HW149966   6.419   3.186  11.252 -1.2101  0.6272  2.0114
79329SOL    HW249967   6.279   3.198  11.196 -0.2738  1.2262 -0.3202
79330SOL     OW49968  13.087   6.391   8.019 -0.1946  0.1465  0.3725
79330SOL    HW149969  13.151   6.320   8.022 -0.0593  0.2363 -0.2666
79330SOL    HW249970  13.080   6.421   8.109  1.6199  0.9822  0.2653
79331SOL     OW49971  11.164   6.517   3.144  0.3315 -0.8407 -0.4032
79331SOL    HW149972  11.137   6.609   3.134  0.4771 -0.7609 -0.0514
79331SOL    HW249973  11.250   6.521   3.186 -0.6104 -1.1976  1.6527
79332SOL     OW49974   9.279   1.453   1.677 -0.4062  1.1622 -0.0201
79332SOL    HW149975   9.344   1.446   1.747  0.0250 -0.7033 -0.5588
79332SOL    HW249976   9.224   1.527   1.702  2.0143  2.9150  0.3593
79333SOL     OW49977  10.456   3.713   9.281  0.3737 -0.3561  0.4641
79333SOL    HW149978  10.384   3.773   9.260  1.1496  0.3597 -0.2541
79333SOL    HW249979  10.532   3.751   9.236  1.0722 -1.4140  0.7261
79334SOL     OW49980   9.107   9.517   3.521  0.5454 -0.5459 -0.2887
79334SOL    HW149981   9.120   9.448   3.455 -1.0631 -0.5384 -0.6493
79334SOL    HW249982   9.086   9.469   3.601  0.1864 -0.4882 -0.3500
79335SOL     OW49983  10.753   9.090   7.609  0.2932 -0.0921  0.5404
79335SOL    HW149984  10.697   9.098   7.686 -1.5874  1.8511 -0.9235
79335SOL    HW249985  10.722   9.011   7.565 -1.1175  0.7475 -0.0434
79336SOL     OW49986   5.710   3.629   8.215  0.5167 -0.3127  0.2775
79336SOL    HW149987   5.738   3.640   8.306 -0.1155  0.6967  0.3631
79336SOL    HW249988   5.617   3.607   8.220  0.4724 -0.2295 -0.1296
79337SOL     OW49989  12.339  11.567   6.216  0.3948 -0.4445  0.0782
79337SOL    HW149990  12.388  11.493   6.179 -0.5133 -0.8974 -0.2307
79337SOL    HW249991  12.378  11.644   6.174  0.8457 -0.8012 -0.1656
79338SOL     OW49992   2.625   4.129  12.126 -0.4183  0.1517 -0.1358
79338SOL    HW149993   2.671   4.174  12.198  1.4759  0.2227 -1.3267
79338SOL    HW249994   2.557   4.078  12.170  1.1075 -0.3338  1.7995
79339SOL     OW49995  12.098   5.458   4.057 -0.2337 -0.5549  0.0792
79339SOL    HW149996  12.028   5.430   4.115  0.0083 -0.7752  0.2651
79339SOL    HW249997  12.066   5.436   3.969 -1.0142  0.6555  0.0388
79340SOL     OW49998   4.576  12.521  12.589  0.7332 -0.0482  0.0697
79340SOL    HW149999   4.559  12.456  12.521  0.1600  0.7869 -0.5966
79340SOL    HW250000   4.672  12.524  12.596  0.8864  0.8862 -1.7430
79341SOL     OW50001   0.892   9.196   0.049 -0.1962 -0.1553 -0.0672
79341SOL    HW150002   0.918   9.189  -0.043  1.0967  1.9577  0.0799
79341SOL    HW250003   0.974   9.202   0.097 -0.8844  0.2525  1.0911
79342SOL     OW50004  11.483   1.993  10.894 -0.5146  0.0480 -0.1458
79342SOL    HW150005  11.430   1.915  10.878 -0.5884 -0.1404  0.9496
79342SOL    HW250006  11.430   2.047  10.952 -0.6321  1.1193 -1.2065
79343SOL     OW50007  11.379   9.674   9.136  0.6463  0.2143  0.1901
79343SOL    HW150008  11.394   9.749   9.079 -0.7325  0.7112  0.4340
79343SOL    HW250009  11.294   9.640   9.107  1.1214 -1.0985  0.2636
79344SOL     OW50010   2.092   1.374   1.177  0.5138  0.0573  0.0644
79344SOL    HW150011   2.021   1.319   1.142  1.2677  0.0317 -1.5339
79344SOL    HW250012   2.057   1.463   1.173 -0.1797 -0.1319  1.3008
79345SOL     OW50013   5.687   2.680   8.452 -0.2711  0.0570  0.6602
79345SOL    HW150014   5.658   2.733   8.526  0.4872  1.1648  0.1804
79345SOL    HW250015   5.774   2.713   8.431 -0.0979 -0.8740 -0.1348
79346SOL     OW50016   1.534  11.364   5.139 -0.0521  0.9531  0.2304
79346SOL    HW150017   1.544  11.455   5.166  1.0470  1.1059 -0.6078
79346SOL    HW250018   1.622  11.326   5.149 -0.9347 -0.6475  2.6976
79347SOL     OW50019   0.375  13.294   2.377 -0.0895  0.6002 -0.7202
79347SOL    HW150020   0.340  13.205   2.366 -0.5094  0.1818  2.8892
79347SOL    HW250021   0.324  13.331   2.448  1.8325  2.7949 -0.3757
79348SOL     OW50022   8.604   4.406  12.061 -0.2960  0.1555 -0.9170
79348SOL    HW150023   8.626   4.492  12.024  0.2711 -0.2451 -1.5347
79348SOL    HW250024   8.585   4.424  12.153  0.8189  0.8054 -0.7909
79349SOL     OW50025   6.668  13.580  11.890  0.1651  0.2331  0.4407
79349SOL    HW150026   6.745  13.632  11.914  0.2112 -0.0728  0.9726
79349SOL    HW250027   6.606  13.595  11.961  0.1245 -0.3315  0.5305
79350SOL     OW50028   5.425   5.876  12.382  1.2003  0.4594 -0.4485
79350SOL    HW150029   5.448   5.966  12.401  1.6327  0.7742 -2.3108
79350SOL    HW250030   5.508   5.833  12.362  0.7630  0.3570 -2.2392
79351SOL     OW50031   1.238   8.211   1.463 -0.0232 -0.3396  0.0198
79351SOL    HW150032   1.272   8.123   1.478 -0.6687 -0.5878  0.0438
79351SOL    HW250033   1.226   8.216   1.368  0.6332 -0.0386 -0.0566
79352SOL     OW50034  12.719  13.178   6.772  0.8311 -0.2306  0.4978
79352SOL    HW150035  12.803  13.170   6.818  0.9363  1.2385  0.5992
79352SOL    HW250036  12.684  13.262   6.801 -0.8442 -0.9654  0.7031
79353SOL     OW50037  10.814   3.763   5.586 -0.4014 -0.3292 -0.6486
79353SOL    HW150038  10.831   3.702   5.658 -2.0983 -1.8407 -1.4428
79353SOL    HW250039  10.737   3.811   5.615 -0.0975  0.2340 -0.7716
79354SOL     OW50040   4.799   3.491   6.582  0.0832  0.2165 -0.1232
79354SOL    HW150041   4.889   3.493   6.613 -0.3427  1.7431  1.1264
79354SOL    HW250042   4.791   3.569   6.526 -0.5799  0.3370  0.1332
79355SOL     OW50043  11.964   2.733   8.870  0.2029 -0.4294 -0.0152
79355SOL    HW150044  12.054   2.702   8.885  1.4605  2.2319 -1.3878
79355SOL    HW250045  11.961   2.749   8.775 -0.5884  2.6072  0.4346
79356SOL     OW50046   1.874   6.753   8.494  0.6257  0.0322  0.2505
79356SOL    HW150047   1.967   6.768   8.512  0.7939 -0.6826  0.0245
79356SOL    HW250048   1.862   6.659   8.507  0.6595 -0.4932 -2.7047
79357SOL     OW50049  12.554  11.819   4.340 -0.0741 -0.1132 -0.3627
79357SOL    HW150050  12.632  11.769   4.317 -0.2329 -0.4811 -0.1209
79357SOL    HW250051  12.560  11.899   4.289  1.3179  0.6295  0.8762
79358SOL     OW50052  14.008   5.500   8.874 -0.1977 -0.1733  0.0399
79358SOL    HW150053  13.917   5.475   8.857 -0.4662  0.4384  0.5351
79358SOL    HW250054  14.056   5.470   8.797 -0.6871 -1.1909  0.1126
79359SOL     OW50055   0.666   4.196   9.352  0.1256 -0.1539 -0.4239
79359SOL    HW150056   0.651   4.112   9.309  0.1288 -0.3151 -0.1140
79359SOL    HW250057   0.597   4.202   9.418  1.1758 -0.7341  0.7647
79360SOL     OW50058   9.687   1.513   7.823  0.3415  0.1455 -0.1037
79360SOL    HW150059   9.663   1.478   7.737  0.6548  1.2650 -0.6773
79360SOL    HW250060   9.668   1.607   7.816  1.3730  0.4299  0.6839
79361SOL     OW50061  13.630   2.263   9.969 -0.1119  0.0111 -0.7512
79361SOL    HW150062  13.608   2.179  10.010  0.4626 -0.5286 -1.5041
79361SOL    HW250063  13.695   2.240   9.902  0.1439  1.0807 -0.8824
79362SOL     OW50064   2.742   2.393  12.360 -0.0967  0.0229  0.2423
79362SOL    HW150065   2.727   2.445  12.438  3.2550  0.6786  0.6101
79362SOL    HW250066   2.696   2.310  12.377 -1.7155  1.1356  1.6280
79363SOL     OW50067  13.926   1.780   8.782 -0.4432 -0.0349 -0.9820
79363SOL    HW150068  13.926   1.686   8.797  0.1969 -0.0089 -0.7634
79363SOL    HW250069  14.017   1.806   8.795 -1.1035  1.1652  2.7053
79364SOL     OW50070   9.765   2.199   6.154 -0.1393  0.1734 -0.2717
79364SOL    HW150071   9.775   2.133   6.085 -0.2945  0.8263 -0.9412
79364SOL    HW250072   9.819   2.168   6.226 -3.1541 -2.7482  1.0249
79365SOL     OW50073   4.187  12.634   9.336  0.3052  0.2846 -0.0072
79365SOL    HW150074   4.216  12.657   9.247 -1.2247 -0.1471 -0.6353
79365SOL    HW250075   4.109  12.687   9.350 -0.7340 -1.2693  0.2200
79366SOL     OW50076   3.338   0.875   4.929  0.2938 -0.5362  0.0502
79366SOL    HW150077   3.347   0.848   5.020  1.3580 -1.5081 -0.3256
79366SOL    HW250078   3.426   0.898   4.901 -0.0973  0.2178 -0.6068
79367SOL     OW50079  12.406   0.194  11.977  0.2299  0.5451 -0.2001
79367SOL    HW150080  12.448   0.218  11.894 -0.5879 -0.0329 -0.7884
79367SOL    HW250081  12.320   0.162  11.952 -1.0905  2.8200  1.0521
79368SOL     OW50082   1.044   7.137   7.325 -0.2299  0.3476  0.4269
79368SOL    HW150083   1.083   7.168   7.243  0.3433 -0.6406  0.3196
79368SOL    HW250084   0.954   7.171   7.323 -0.9796 -1.5754 -1.7130
79369SOL     OW50085   1.668   3.191   8.417  0.2918 -0.2307  0.2044
79369SOL    HW150086   1.725   3.255   8.375  1.8969 -1.1728  0.8465
79369SOL    HW250087   1.710   3.107   8.401 -1.8608 -1.1973 -0.7661
79370SOL     OW50088   1.627  11.404  10.136  0.2778 -0.3543  0.0680
79370SOL    HW150089   1.718  11.393  10.106  0.1786 -1.6675  0.2223
79370SOL    HW250090   1.587  11.458  10.068  0.8234 -0.8910 -0.7023
79371SOL     OW50091   2.087   4.850   7.716  0.2755 -0.8409  0.5425
79371SOL    HW150092   2.059   4.812   7.800  1.5784 -1.8565  0.5488
79371SOL    HW250093   2.182   4.842   7.717  0.4283  0.5400 -0.4010
79372SOL     OW50094   6.603   8.240   7.496  0.2352 -0.0414  0.0033
79372SOL    HW150095   6.611   8.335   7.497 -0.9808  0.1151 -1.4941
79372SOL    HW250096   6.617   8.215   7.404 -3.5330 -0.8106 -0.5340
79373SOL     OW50097   1.673  13.004  13.350  0.3049 -0.3178 -0.2244
79373SOL    HW150098   1.716  13.082  13.315  1.1041 -0.9559 -0.7154
79373SOL    HW250099   1.690  12.937  13.284 -0.2829 -0.9359  0.2433
79374SOL     OW50100   0.320   7.504  13.392 -0.0906 -0.3759  0.0077
79374SOL    HW150101   0.362   7.486  13.476 -2.0095 -0.9422  0.8855
79374SOL    HW250102   0.342   7.595  13.373 -0.6440  0.1524  1.7311
79375SOL     OW50103   0.334   0.066  12.516  0.3667 -0.4070 -0.3394
79375SOL    HW150104   0.411   0.077  12.572 -0.7126  1.7208  0.8129
79375SOL    HW250105   0.320  -0.029  12.514  1.2356 -0.6467  1.9428
79376SOL     OW50106   5.527  12.685   3.962 -0.7130  0.3385  0.4151
79376SOL    HW150107   5.442  12.675   3.918 -0.5127  0.8605 -0.1084
79376SOL    HW250108   5.577  12.743   3.904  0.4229 -0.9119  0.1127
79377SOL     OW50109   5.096   2.663  11.567  1.0142  0.8938  0.1207
79377SOL    HW150110   5.151   2.584  11.569  0.3353  0.3834 -0.7197
79377SOL    HW250111   5.112   2.700  11.480  0.2771  0.9218 -0.0049
79378SOL     OW50112   7.881   1.662  12.517  0.3062  0.1348  0.6789
79378SOL    HW150113   7.975   1.670  12.497  0.0067  0.3066 -0.7724
79378SOL    HW250114   7.838   1.709  12.446 -0.8341  2.1616  2.5902
79379SOL     OW50115   2.253   6.948   4.106 -0.1256  0.0431 -0.4329
79379SOL    HW150116   2.340   6.912   4.121 -0.3455 -0.4469 -0.2929
79379SOL    HW250117   2.215   6.956   4.194 -0.3039  0.0386 -0.5089
79380SOL     OW50118  12.976  12.317   2.287 -0.6752  0.3007  0.3814
79380SOL    HW150119  12.993  12.365   2.368  3.0733  0.1598 -0.1454
79380SOL    HW250120  12.935  12.381   2.230 -1.6895  0.9244  1.7484
79381SOL     OW50121   6.322  11.952   8.798  0.0970  0.4713 -0.7837
79381SOL    HW150122   6.373  11.873   8.783  0.2703  0.9787 -3.3798
79381SOL    HW250123   6.238  11.921   8.831  1.2070 -0.5205  1.3099
79382SOL     OW50124  10.204  12.081   2.929  0.5009 -0.3806  0.9876
79382SOL    HW150125  10.264  12.014   2.961  0.4418 -1.1448 -0.4348
79382SOL    HW250126  10.118  12.054   2.962  0.8119  0.3885  2.5155
79383SOL     OW50127   5.822   8.730   9.805 -0.0200  0.3012 -0.4509
79383SOL    HW150128   5.863   8.785   9.871  2.4051  0.0010 -1.5891
79383SOL    HW250129   5.732   8.720   9.835  1.0444 -0.2179  3.0664
79384SOL     OW50130  11.386   2.241   0.152  0.2363  0.1888 -0.0687
79384SOL    HW150131  11.322   2.307   0.178 -1.4240 -1.3154 -0.1709
79384SOL    HW250132  11.416   2.202   0.235  0.2936  0.2440 -0.0638
79385SOL     OW50133   9.794   1.752   5.678 -0.4511  0.1171  0.1338
79385SOL    HW150134   9.862   1.706   5.627 -2.0358 -1.6055 -0.5471
79385SOL    HW250135   9.824   1.744   5.768  0.7675  0.2986 -0.2279
79386SOL     OW50136   0.441   7.014   8.390 -0.0511  0.2248  0.3804
79386SOL    HW150137   0.425   7.024   8.297  1.0248 -1.9326 -0.1094
79386SOL    HW250138   0.378   6.947   8.419 -0.1809  0.6565  1.1333
79387SOL     OW50139   5.018   3.997   4.120 -0.0954  0.4175 -0.2029
79387SOL    HW150140   5.074   4.018   4.045 -2.0695 -0.3270 -1.9999
79387SOL    HW250141   5.001   4.082   4.162  0.7264  0.9171 -0.8506
79388SOL     OW50142   3.511   2.590   8.306 -0.1267 -0.1959 -0.0827
79388SOL    HW150143   3.418   2.612   8.299 -0.0983 -0.2443 -0.6966
79388SOL    HW250144   3.524   2.520   8.242 -0.2495 -2.2080  1.9658
79389SOL     OW50145  12.409   1.559   6.337  0.3857 -0.3748 -0.2342
79389SOL    HW150146  12.421   1.600   6.423  1.0806 -0.8744 -0.0844
79389SOL    HW250147  12.492   1.514   6.321  0.7022  0.6378 -1.6744
79390SOL     OW50148   3.119  12.817  13.064  0.2023  0.4100 -0.5364
79390SOL    HW150149   3.177  12.893  13.075  1.5452 -0.5322 -0.8238
79390SOL    HW250150   3.115  12.778  13.151  0.9042 -0.1325 -0.7352
79391SOL     OW50151   0.792   6.116   5.112  0.1736 -0.1715 -0.4140
79391SOL    HW150152   0.884   6.144   5.104 -0.0292  1.2612  1.6228
79391SOL    HW250153   0.794   6.050   5.181 -0.3895  0.0995 -0.1431
79392SOL     OW50154   8.645   8.161   5.028 -0.3698  0.4753 -0.5769
79392SOL    HW150155   8.669   8.178   4.937 -1.8697  2.1260 -0.7114
79392SOL    HW250156   8.701   8.221   5.078 -0.2491  0.2736 -0.4679
79393SOL     OW50157   0.424   3.155   0.152 -0.2765 -1.0564  0.5546
79393SOL    HW150158   0.346   3.100   0.158 -1.5300  0.7073  1.3432
79393SOL    HW250159   0.403   3.232   0.205  0.8114  0.8533 -1.5879
79394SOL     OW50160   8.021  11.260  13.475  0.1316 -0.5096  0.3125
79394SOL    HW150161   8.070  11.200  13.418  2.2924  0.6093  0.8892
79394SOL    HW250162   8.081  11.279  13.547 -1.4917  0.3149  1.5109
79395SOL     OW50163  10.934   9.817   0.792 -0.0234 -0.0223  0.6792
79395SOL    HW150164  10.940   9.725   0.817 -0.2144  0.1771  1.4679
79395SOL    HW250165  10.853   9.822   0.741 -1.2289  0.1248  2.5451
79396SOL     OW50166   7.229   3.607   3.028  0.3778  0.2537 -0.4093
79396SOL    HW150167   7.310   3.655   3.046  1.1304 -1.3720  0.8346
79396SOL    HW250168   7.235   3.584   2.935 -0.1034  2.6201 -1.0999
79397SOL     OW50169   3.793   6.038   0.680 -0.1966 -0.3901 -0.0623
79397SOL    HW150170   3.738   6.099   0.632  0.1049 -0.5769 -0.6564
79397SOL    HW250171   3.754   6.034   0.767 -0.7575 -0.0556 -0.2918
79398SOL     OW50172   5.549   7.330   9.794 -0.2521 -0.1775 -0.3957
79398SOL    HW150173   5.612   7.288   9.852 -0.7146 -0.4754 -0.1035
79398SOL    HW250174   5.556   7.423   9.815 -0.6125 -0.3130  0.3397
79399SOL     OW50175   9.305  12.630   0.310  0.3793  0.1892 -0.1765
79399SOL    HW150176   9.231  12.685   0.287 -0.4549 -0.9300 -0.2447
79399SOL    HW250177   9.368  12.690   0.352 -0.2973  1.2539 -0.6584
79400SOL     OW50178   8.454  12.472   4.159  0.0951 -0.1039  0.4017
79400SOL    HW150179   8.536  12.460   4.110  0.2577 -1.4407  0.9856
79400SOL    HW250180   8.468  12.427   4.242 -0.0477  2.4072  1.9206
79401SOL     OW50181   0.273  10.662  10.034 -0.0954  0.1214  0.2629
79401SOL    HW150182   0.241  10.739  10.080 -1.1672  0.6867 -1.3352
79401SOL    HW250183   0.361  10.687  10.004  0.0188  0.2926  0.7361
79402SOL     OW50184   5.248  13.485   6.995 -0.5017  0.2628  0.1054
79402SOL    HW150185   5.287  13.399   6.980  0.2988  0.6138  0.1353
79402SOL    HW250186   5.159  13.477   6.961 -0.2739 -0.4194 -0.3587
79403SOL     OW50187  11.398  14.001  10.302 -0.5971 -0.2284 -0.4573
79403SOL    HW150188  11.356  13.964  10.379 -0.0930 -1.5838 -0.8088
79403SOL    HW250189  11.325  14.025  10.244 -0.9547  0.2643  0.1853
79404SOL     OW50190  11.561   1.117   8.849 -0.5525 -0.0774  0.0025
79404SOL    HW150191  11.581   1.024   8.846  3.6780  0.5187  2.0665
79404SOL    HW250192  11.599   1.152   8.768  0.2898  0.1674  0.4984
79405SOL     OW50193   4.387   8.180   5.211  0.0160  0.1732  0.5484
79405SOL    HW150194   4.318   8.244   5.194 -1.1460 -1.3224 -0.6121
79405SOL    HW250195   4.468   8.232   5.213 -0.7751  1.5805 -1.2014
79406SOL     OW50196   3.117   9.002  10.489 -0.1860  0.5250  0.1375
79406SOL    HW150197   3.059   8.948  10.543  0.0091  1.0243  0.8568
79406SOL    HW250198   3.142   9.074  10.546  0.8372  0.5230 -0.3007
79407SOL     OW50199   3.773  11.578   5.955 -0.5196 -0.5075 -0.1246
79407SOL    HW150200   3.685  11.587   5.989  0.2047 -0.0259  1.7232
79407SOL    HW250201   3.794  11.485   5.965 -0.2365 -0.3322  0.9671
79408SOL     OW50202   2.018  12.715  13.411  0.6458  0.1549 -0.2618
79408SOL    HW150203   1.923  12.707  13.399  0.8401 -2.4688 -0.7797
79408SOL    HW250204   2.053  12.719  13.322  1.1091 -1.3330 -0.1764
79409SOL     OW50205   3.857   5.076  11.042  0.1134  0.2067  0.1976
79409SOL    HW150206   3.915   5.103  11.114 -2.1216  0.6782  1.9530
79409SOL    HW250207   3.785   5.029  11.086  0.1842 -2.2903 -2.0690
79410SOL     OW50208   4.142  13.430  10.995 -0.4632  0.0928  0.0857
79410SOL    HW150209   4.173  13.381  11.071 -0.1013 -0.7060 -0.5573
79410SOL    HW250210   4.047  13.432  11.004 -0.4150  0.0867  0.6057
79411SOL     OW50211   6.809   3.368   6.503 -0.1900  0.7034 -0.6954
79411SOL    HW150212   6.885   3.410   6.463 -0.8170  1.5284 -1.0516
79411SOL    HW250213   6.736   3.392   6.446 -0.7998  0.3252 -0.0886
79412SOL     OW50214   2.417  13.471   8.134  0.6770  0.3970 -0.2637
79412SOL    HW150215   2.500  13.504   8.099  1.2646 -0.1650  0.5661
79412SOL    HW250216   2.352  13.535   8.105  1.5284  1.3193 -0.2060
79413SOL     OW50217  13.714   2.958  10.327 -0.1330  0.1328 -0.2600
79413SOL    HW150218  13.725   2.964  10.232 -1.7938 -2.0592 -0.6684
79413SOL    HW250219  13.639   3.016  10.346  1.6000  2.3985  0.1501
79414SOL     OW50220   8.708   4.056  12.530  0.4219 -0.1942  0.3034
79414SOL    HW150221   8.684   3.970  12.494  2.1691 -0.5117 -0.2083
79414SOL    HW250222   8.631   4.084  12.578 -0.7694 -1.3323 -0.8546
79415SOL     OW50223   3.172   5.664  10.071 -0.0241  0.1707  0.2665
79415SOL    HW150224   3.185   5.663   9.977  0.5572  2.0342  0.2909
79415SOL    HW250225   3.077   5.657  10.083 -0.0664 -0.5251 -0.4166
79416SOL     OW50226   9.363   1.137   5.576 -0.2257 -0.0115  0.3107
79416SOL    HW150227   9.345   1.187   5.496 -0.5506 -0.5262  0.0537
79416SOL    HW250228   9.324   1.189   5.646  0.2221  0.5374  0.1661
79417SOL     OW50229   6.793   0.764   1.445  0.7969  0.0896  0.2477
79417SOL    HW150230   6.764   0.721   1.364  1.3046 -0.8548  0.5554
79417SOL    HW250231   6.725   0.742   1.509  0.3336  0.9372  0.0639
79418SOL     OW50232   9.839  13.750   5.098 -0.3020 -0.9740  0.2808
79418SOL    HW150233   9.830  13.664   5.137 -0.9024 -0.7720  0.5942
79418SOL    HW250234   9.923  13.783   5.131  0.5924 -1.9629 -0.8911
79419SOL     OW50235   4.671  10.306   5.979  0.0773  0.2563 -0.7826
79419SOL    HW150236   4.745  10.353   5.943  0.2648 -0.2542 -1.0677
79419SOL    HW250237   4.598  10.368   5.974  0.0800  0.1842 -2.0953
79420SOL     OW50238  13.050  12.821   0.462  0.5596  0.1678  0.2390
79420SOL    HW150239  13.060  12.817   0.366  2.9960 -0.0381  0.4260
79420SOL    HW250240  13.049  12.730   0.490 -0.6034  0.2163  0.4132
79421SOL     OW50241   2.217   6.229  12.433 -0.0881 -0.0782 -0.0415
79421SOL    HW150242   2.291   6.244  12.492  1.0947 -1.7408 -1.0206
79421SOL    HW250243   2.201   6.135  12.439 -0.3898 -0.1601 -1.8486
79422SOL     OW50244   0.210   3.060   3.908  0.0450  0.5840 -0.0887
79422SOL    HW150245   0.165   3.045   3.824  0.3861  0.0921 -0.1862
79422SOL    HW250246   0.172   3.141   3.941 -1.1612  0.0205 -0.0193
79423SOL     OW50247   6.505  12.425  10.000  0.3915 -0.5183 -0.0217
79423SOL    HW150248   6.566  12.447  10.070 -0.1222  0.7702  0.0384
79423SOL    HW250249   6.545  12.461   9.921  0.5619 -1.2404 -0.2763
79424SOL     OW50250   4.922   6.968  13.542  0.0523  1.1878  0.3237
79424SOL    HW150251   4.993   7.024  13.573  2.0241 -1.2058  0.4237
79424SOL    HW250252   4.906   6.997  13.453  2.2826  0.8408 -0.2484
79425SOL     OW50253   8.463   0.097   8.030  0.5099 -0.5880  0.1497
79425SOL    HW150254   8.384   0.049   8.055  0.0378 -0.9106 -1.8261
79425SOL    HW250255   8.519   0.094   8.108 -2.3931  1.8405  2.6066
79426SOL     OW50256   0.478  11.805   8.385  0.6575  0.4825 -0.0923
79426SOL    HW150257   0.385  11.814   8.406  0.6757 -1.5456  1.1795
79426SOL    HW250258   0.522  11.860   8.449  0.3796  0.2332  0.3216
79427SOL     OW50259   9.940  13.488   4.785  0.2741 -0.3652  0.6616
79427SOL    HW150260   9.973  13.506   4.697  0.7161 -2.0967  0.4407
79427SOL    HW250261   9.900  13.570   4.813  0.3484  0.2852 -1.0498
79428SOL     OW50262  10.029   1.611   2.737 -0.1151 -0.5111  0.3525
79428SOL    HW150263  10.065   1.576   2.655  2.0877 -0.5500  1.2745
79428SOL    HW250264  10.053   1.546   2.803 -0.2328  0.4078  1.3140
79429SOL     OW50265   4.955   4.333   8.002 -0.0015  0.0552 -0.3212
79429SOL    HW150266   5.034   4.385   8.019 -0.2402  0.5562 -0.7208
79429SOL    HW250267   4.906   4.336   8.084  0.2393  0.0083 -0.1735
79430SOL     OW50268   6.155  10.926  10.699 -0.5273  0.5040  0.6402
79430SOL    HW150269   6.173  10.943  10.606 -0.2807  0.5411  0.6947
79430SOL    HW250270   6.130  10.834  10.701 -1.0360  0.6319  0.4655
79431SOL     OW50271   5.647   0.904  13.187  0.0464  0.3015  0.8224
79431SOL    HW150272   5.575   0.853  13.224 -1.0049  0.3812 -1.0263
79431SOL    HW250273   5.666   0.863  13.103 -0.3789  2.5042 -0.4157
79432SOL     OW50274  11.161   2.752  13.764  0.3693  0.4336 -0.2973
79432SOL    HW150275  11.155   2.832  13.815  0.6925  0.1887  0.1336
79432SOL    HW250276  11.243   2.760  13.715  0.5548  0.2370 -0.0227
79433SOL     OW50277   7.905  13.839   0.718  0.7266 -0.4447 -0.0397
79433SOL    HW150278   7.845  13.764   0.725  0.2998 -0.1395 -0.3962
79433SOL    HW250279   7.957  13.819   0.640 -1.5483  1.1344 -2.1026
79434SOL     OW50280   2.565   8.284  11.325  0.0914 -0.1275 -0.4247
79434SOL    HW150281   2.655   8.307  11.349  1.6044 -1.9054 -3.7046
79434SOL    HW250282   2.557   8.191  11.349  0.0843 -0.6711 -2.3327
79435SOL     OW50283   6.669   2.009   3.076 -0.4355 -0.4301 -0.0539
79435SOL    HW150284   6.605   2.044   3.138 -1.3478 -1.1349 -0.5796
79435SOL    HW250285   6.753   2.022   3.119 -1.0516 -1.0863  1.4343
79436SOL     OW50286   3.235   9.793   0.024  0.7197 -0.8110 -0.1976
79436SOL    HW150287   3.175   9.770  -0.047 -0.5366  0.9188  0.2513
79436SOL    HW250288   3.192   9.865   0.070  1.5908 -1.7461  2.2354
79437SOL     OW50289   4.918   8.053   0.859  0.2053 -0.6820  0.0708
79437SOL    HW150290   4.877   7.976   0.821  0.1089 -0.1823 -0.8774
79437SOL    HW250291   5.012   8.036   0.853  0.1759 -0.9065  0.2526
79438SOL     OW50292  10.359   3.098  13.719 -0.5772 -0.1044  0.1124
79438SOL    HW150293  10.384   3.190  13.732 -1.0880 -0.0949  1.0849
79438SOL    HW250294  10.351   3.089  13.624 -0.4735  0.8436 -0.0003
79439SOL     OW50295  12.997   9.397   0.220  0.1162  0.2696  0.2648
79439SOL    HW150296  13.028   9.478   0.180 -0.6384 -0.2153 -1.3561
79439SOL    HW250297  13.057   9.330   0.188 -1.2784 -0.3380 -1.1989
79440SOL     OW50298   1.408  11.786   0.071 -0.3640  0.0450  0.3083
79440SOL    HW150299   1.337  11.725   0.090 -2.0789  1.3188 -1.5360
79440SOL    HW250300   1.434  11.766  -0.019  0.9184  0.3106  0.5912
79441SOL     OW50301   9.344   3.208   0.910 -0.1887 -0.1891 -0.1710
79441SOL    HW150302   9.254   3.222   0.881  0.1966  1.2700 -0.7363
79441SOL    HW250303   9.369   3.290   0.953  0.7233 -0.7444  0.3950
79442SOL     OW50304  12.550   5.890  13.130 -0.5502 -0.0354  0.2652
79442SOL    HW150305  12.561   5.946  13.053  0.5187 -2.1013 -1.1482
79442SOL    HW250306  12.627   5.907  13.184  0.1317 -0.6431 -0.5050
79443SOL     OW50307   7.353  10.865   1.346 -0.3964  0.1647  0.5602
79443SOL    HW150308   7.325  10.953   1.320  0.5068 -0.1871 -1.8919
79443SOL    HW250309   7.274  10.825   1.382 -1.5825  1.0753 -0.8792
79444SOL     OW50310  10.694   4.874   1.590  0.3910 -0.0012 -0.5595
79444SOL    HW150311  10.654   4.912   1.511  1.0183  0.1628 -0.7987
79444SOL    HW250312  10.621   4.870   1.653 -0.0416  0.1623 -1.0377
79445SOL     OW50313   0.255  12.255   3.300 -0.1865  0.5989 -0.3815
79445SOL    HW150314   0.346  12.239   3.277 -0.3247  0.6116 -0.9479
79445SOL    HW250315   0.238  12.194   3.372  0.6848  1.6441  0.7540
79446SOL     OW50316   6.063   2.869   7.563 -0.6566 -0.4942 -0.4329
79446SOL    HW150317   6.047   2.956   7.599 -1.3088 -0.5248 -0.6386
79446SOL    HW250318   6.012   2.867   7.482 -1.6971 -1.5229  0.2171
79447SOL     OW50319   3.898   6.540   7.131  0.5852  0.0921 -0.1562
79447SOL    HW150320   3.896   6.563   7.038  0.9996 -0.1132 -0.2156
79447SOL    HW250321   3.962   6.600   7.170  1.8518 -1.0792 -0.3551
79448SOL     OW50322   6.537  12.516   0.609 -0.0465 -0.0249  0.3174
79448SOL    HW150323   6.562  12.605   0.582 -0.7626 -0.5676 -2.5175
79448SOL    HW250324   6.620  12.470   0.619  0.3206  0.8183  1.4475
79449SOL     OW50325   0.831  13.839   3.934  0.6185  0.1352 -0.3053
79449SOL    HW150326   0.900  13.871   3.876  0.0550  0.9734 -0.5451
79449SOL    HW250327   0.771  13.913   3.942  1.7128  0.8597  3.0305
79450SOL     OW50328  10.700  12.214   1.021 -0.4086 -0.1840 -0.2252
79450SOL    HW150329  10.793  12.208   1.046 -0.5856 -3.3240 -0.0041
79450SOL    HW250330  10.653  12.180   1.097 -1.4305 -2.5758 -1.8431
79451SOL     OW50331   8.599   8.046   5.388 -0.1540  0.4313  0.0062
79451SOL    HW150332   8.521   7.992   5.378 -0.0037  0.2729 -0.3441
79451SOL    HW250333   8.645   8.009   5.463  0.7734 -0.9868 -1.1970
79452SOL     OW50334   0.136   6.702   2.378 -0.1599 -0.3191 -0.5047
79452SOL    HW150335   0.074   6.759   2.424  0.5171  0.4033 -0.4645
79452SOL    HW250336   0.116   6.716   2.285  0.9286  1.1087 -0.5651
79453SOL     OW50337  13.887  13.492   6.874  0.3108  0.1019  0.1652
79453SOL    HW150338  13.925  13.528   6.793 -0.1439  0.8539  0.2720
79453SOL    HW250339  13.841  13.566   6.913  2.0847  0.2929  2.0852
79454SOL     OW50340   6.082  13.422  13.786 -0.1510 -0.5331  0.3153
79454SOL    HW150341   6.047  13.337  13.758  2.0986 -2.0282  1.6904
79454SOL    HW250342   6.167  13.428  13.742  0.5366  0.1095  1.6938
79455SOL     OW50343  12.210   0.914   7.801 -0.3987  0.1582 -0.5825
79455SOL    HW150344  12.157   0.911   7.721 -0.0381 -0.6767 -0.8078
79455SOL    HW250345  12.149   0.895   7.872 -1.1424  2.9030 -0.3991
79456SOL     OW50346   5.593   1.650   9.242 -0.0042 -0.2124  0.2743
79456SOL    HW150347   5.637   1.724   9.200  2.7947 -1.1616  1.2762
79456SOL    HW250348   5.579   1.678   9.332 -0.6335 -0.2544  0.1925
79457SOL     OW50349   9.320   3.390   7.321 -0.5774 -0.7949 -0.2602
79457SOL    HW150350   9.343   3.297   7.321  2.4644 -0.1855  0.6290
79457SOL    HW250351   9.380   3.429   7.257 -1.0799  0.6643  0.1249
79458SOL     OW50352   3.974   3.850   5.128  0.0218 -0.1985  0.0026
79458SOL    HW150353   4.010   3.869   5.041 -0.0245  1.6953  0.3634
79458SOL    HW250354   3.907   3.784   5.112 -0.1671  0.3134 -1.4375
79459SOL     OW50355   4.220  10.547   5.193  0.4690 -0.5155 -0.4153
79459SOL    HW150356   4.217  10.481   5.262 -0.3482  0.3008  0.3686
79459SOL    HW250357   4.205  10.630   5.239  0.8017  0.1395 -1.4619
79460SOL     OW50358   8.183  12.001   1.268  0.3533 -0.0565 -0.0634
79460SOL    HW150359   8.162  12.090   1.298  0.4508  0.3066 -1.0516
79460SOL    HW250360   8.098  11.957   1.263  0.3883 -0.3441  1.3697
79461SOL     OW50361   6.763  12.160  11.248 -0.3629 -0.6697  0.1250
79461SOL    HW150362   6.809  12.093  11.298  0.4001  0.7217  1.3824
79461SOL    HW250363   6.791  12.243  11.288 -1.3334  0.3957 -1.3074
79462SOL     OW50364  11.030   4.061  12.309 -0.2168  0.5765 -0.6728
79462SOL    HW150365  11.009   4.143  12.352 -0.9526 -0.8216  1.8140
79462SOL    HW250366  10.945   4.024  12.284  0.0982  0.5116 -1.7035
79463SOL     OW50367   5.533   9.501   1.538  0.5424  0.4626 -0.6386
79463SOL    HW150368   5.467   9.570   1.531 -0.9583 -0.9416 -0.9182
79463SOL    HW250369   5.534   9.478   1.630  0.3761  0.2593 -0.6848
79464SOL     OW50370   6.724   7.027   6.466 -0.5914  0.0665  0.6126
79464SOL    HW150371   6.691   7.095   6.524  1.3657  1.2830  0.4028
79464SOL    HW250372   6.692   7.050   6.379 -1.4117 -0.3299  0.7953
79465SOL     OW50373  13.196  12.641   5.220  0.2287 -0.4617 -0.6502
79465SOL    HW150374  13.151  12.709   5.170 -2.6279 -0.9713  1.0348
79465SOL    HW250375  13.202  12.567   5.160 -0.5285 -0.1202 -1.1584
79466SOL     OW50376  13.785   1.862  12.563  0.1879  0.2296  0.7269
79466SOL    HW150377  13.854   1.880  12.499 -0.3386 -0.3492 -0.0250
79466SOL    HW250378  13.780   1.942  12.615  0.8588  0.5892  0.2626
79467SOL     OW50379   9.424   7.294   2.899 -0.2507  0.3287 -0.4216
79467SOL    HW150380   9.490   7.225   2.902  0.9336  1.3849 -1.1074
79467SOL    HW250381   9.362   7.266   2.831  0.7486  0.3743 -1.3788
79468SOL     OW50382   0.743  10.366   2.861 -0.1021  0.5273  0.4161
79468SOL    HW150383   0.720  10.383   2.770 -2.0861 -1.6940  0.4083
79468SOL    HW250384   0.839  10.357   2.860  0.0471  1.7646 -1.1778
79469SOL     OW50385   8.927   5.205   4.611 -0.0898 -0.1669 -0.2124
79469SOL    HW150386   8.928   5.130   4.670 -1.4939  0.0209  0.0968
79469SOL    HW250387   9.007   5.197   4.559  0.8588 -0.6857  1.2817
79470SOL     OW50388   6.601  13.233   6.596 -0.0788  0.0074 -0.1807
79470SOL    HW150389   6.622  13.178   6.671  0.0350  0.1411 -0.1120
79470SOL    HW250390   6.635  13.320   6.621 -3.0265  0.9208  1.0855
79471SOL     OW50391   8.562   6.621   6.914  0.0533 -0.1252 -0.0604
79471SOL    HW150392   8.655   6.629   6.934  0.5864 -1.9156 -1.5622
79471SOL    HW250393   8.519   6.621   6.999  1.4577  0.1754  0.6847
79472SOL     OW50394  13.033   2.998   9.310 -0.3731  0.1156  0.0197
79472SOL    HW150395  13.081   3.080   9.325  0.0516 -0.4304  1.7954
79472SOL    HW250396  13.046   2.981   9.216  2.3498  0.3590  0.2613
79473SOL     OW50397   3.239  11.070   4.732  0.5918  0.1900 -0.0598
79473SOL    HW150398   3.332  11.095   4.732  1.0004 -1.2001  0.2607
79473SOL    HW250399   3.206  11.104   4.815  1.6269 -1.8537  1.3066
79474SOL     OW50400   9.198  12.752  10.905  0.2309  0.1147 -0.1814
79474SOL    HW150401   9.170  12.733  10.816  2.2278 -1.1262 -0.6099
79474SOL    HW250402   9.279  12.802  10.894  0.9692 -0.7911  0.9041
79475SOL     OW50403   4.093   5.140   3.975 -0.1809 -0.8164 -0.3415
79475SOL    HW150404   4.020   5.198   3.996 -1.6068 -2.4744 -0.3820
79475SOL    HW250405   4.165   5.170   4.030 -0.8936  0.8537 -0.2540
79476SOL     OW50406   8.926   1.479  13.113 -0.9483 -0.4611  0.2224
79476SOL    HW150407   9.020   1.460  13.104 -0.5104  1.8823 -0.7479
79476SOL    HW250408   8.921   1.540  13.186 -1.2865  1.7253 -1.5205
79477SOL     OW50409  10.308   4.785   2.313 -0.3107 -0.5423  0.3773
79477SOL    HW150410  10.231   4.840   2.298 -1.2368 -2.0677 -0.7736
79477SOL    HW250411  10.350   4.778   2.227 -0.6966 -2.2848  0.2863
79478SOL     OW50412   9.915   3.021  14.036  0.0276  0.2278  0.4714
79478SOL    HW150413   9.928   2.930  14.012 -2.2253  0.1845 -0.8601
79478SOL    HW250414   9.956   3.029  14.122  0.7337 -1.8839  0.3919
79479SOL     OW50415   3.401   1.362   2.684  0.0294  0.4328  0.1288
79479SOL    HW150416   3.456   1.333   2.758 -2.0568  1.0834  2.0274
79479SOL    HW250417   3.464   1.387   2.616  2.0403 -0.3497  1.6083
79480SOL     OW50418   8.509   1.352   5.201 -0.5850  0.2478  0.2403
79480SOL    HW150419   8.468   1.436   5.176 -1.6401 -1.0330 -2.8201
79480SOL    HW250420   8.573   1.376   5.268  0.8885  3.9057 -2.1628
79481SOL     OW50421   0.016  10.315  10.916  0.6694 -0.1658  0.1040
79481SOL    HW150422  -0.078  10.324  10.901  0.2271 -1.7697  1.5464
79481SOL    HW250423   0.032  10.360  10.999  0.8609 -1.1862  0.6384
79482SOL     OW50424   1.860   2.047   6.840 -0.1658  0.1397  0.4906
79482SOL    HW150425   1.884   1.956   6.859  0.3098  0.4487  1.4223
79482SOL    HW250426   1.941   2.096   6.852 -0.6705  0.8453  1.1112
79483SOL     OW50427   2.287   3.139   4.487 -0.0714  0.1427  0.5943
79483SOL    HW150428   2.218   3.193   4.447 -0.1806 -1.5240 -1.6129
79483SOL    HW250429   2.357   3.201   4.508 -1.3594  1.5501  0.9319
79484SOL     OW50430   2.872   7.532   3.607 -0.2017 -0.0331 -0.2902
79484SOL    HW150431   2.866   7.626   3.588 -0.3645  0.4158  1.7868
79484SOL    HW250432   2.946   7.525   3.667 -1.4561 -0.9264  1.2223
79485SOL     OW50433   2.425  11.193   9.069  0.9273 -0.0278 -0.0906
79485SOL    HW150434   2.389  11.244   9.141  0.1379 -1.2260  0.3903
79485SOL    HW250435   2.369  11.215   8.994  0.9684  0.2769 -0.0315
79486SOL     OW50436   4.096  11.113   2.103 -0.0698  0.6708  0.3441
79486SOL    HW150437   4.076  11.027   2.066  1.4077  0.0369  0.9233
79486SOL    HW250438   4.185  11.132   2.074  0.6017  0.7969  2.2761
79487SOL     OW50439   7.832  10.553   0.311 -0.3710 -0.0853  0.4865
79487SOL    HW150440   7.816  10.476   0.366 -0.2434 -0.4780 -0.0215
79487SOL    HW250441   7.832  10.519   0.222 -2.3346  0.8138  0.0865
79488SOL     OW50442   6.314   8.209  14.032 -0.1539 -0.0166  0.4883
79488SOL    HW150443   6.281   8.123  14.006  0.6250 -0.1354 -0.1299
79488SOL    HW250444   6.336   8.253  13.950  0.7666  0.2377  0.8577
79489SOL     OW50445   5.431  13.449   2.749  0.0627 -0.5395 -0.0998
79489SOL    HW150446   5.508  13.395   2.731 -0.3622 -0.7049 -1.6260
79489SOL    HW250447   5.369  13.425   2.679  0.1974  2.5806 -1.4420
79490SOL     OW50448   2.952  12.180  12.511 -0.0549 -0.7373 -0.6481
79490SOL    HW150449   3.015  12.114  12.542  1.6964  1.6314  1.1908
79490SOL    HW250450   2.870  12.157  12.554  1.1189 -0.4270  1.9204
79491SOL     OW50451   7.310   7.785   7.365 -0.4590  0.6932 -0.0242
79491SOL    HW150452   7.334   7.814   7.277 -0.3547 -0.0403 -0.2474
79491SOL    HW250453   7.217   7.762   7.358 -0.2363 -0.1929 -0.1753
79492SOL     OW50454   7.375   5.334   6.887 -0.7423  0.3026 -0.6857
79492SOL    HW150455   7.461   5.321   6.927 -0.9759  1.2987  0.1869
79492SOL    HW250456   7.317   5.276   6.935 -1.0340  1.5431  0.5018
79493SOL     OW50457   8.477   9.524  13.015 -0.0711  0.0384 -0.6614
79493SOL    HW150458   8.478   9.509  12.920  0.2493  0.9456 -0.8133
79493SOL    HW250459   8.535   9.457  13.050  1.1706  0.7390 -1.2922
79494SOL     OW50460   3.146  13.042   3.225  0.2326 -0.0945  0.4591
79494SOL    HW150461   3.109  13.100   3.158 -0.6595 -0.8238  0.2982
79494SOL    HW250462   3.227  13.085   3.252  0.0036  0.8080 -0.2413
79495SOL     OW50463  12.289   2.836   8.409 -0.5125  0.6055 -0.1649
79495SOL    HW150464  12.210   2.889   8.405 -0.6298  0.5759  1.2836
79495SOL    HW250465  12.293   2.806   8.500  0.9571  0.3034 -0.3063
79496SOL     OW50466  13.304  13.583   8.332  0.7169  0.3979 -0.0419
79496SOL    HW150467  13.247  13.534   8.274 -0.2915  0.9550  0.4531
79496SOL    HW250468  13.270  13.566   8.420  2.3038 -0.5545  0.4371
79497SOL     OW50469   7.538   7.206   4.545 -0.1218  0.5095 -0.2743
79497SOL    HW150470   7.561   7.274   4.608 -0.0825 -1.3396  1.8045
79497SOL    HW250471   7.621   7.176   4.509 -0.0563  0.7319 -0.3088
79498SOL     OW50472   2.344  10.019   2.494 -0.2114 -0.2209  0.3847
79498SOL    HW150473   2.336   9.924   2.489  1.2866 -0.3072 -1.8551
79498SOL    HW250474   2.292  10.052   2.421 -0.0798  0.6277  0.6571
79499SOL     OW50475   4.388   4.210   6.085 -0.2671 -0.5135  0.3302
79499SOL    HW150476   4.425   4.126   6.114 -0.9600 -1.1673 -0.5937
79499SOL    HW250477   4.297   4.189   6.064 -0.6238  0.6242  0.6948
79500SOL     OW50478  12.062  12.270   7.102  0.0443 -0.4404 -0.4790
79500SOL    HW150479  11.992  12.273   7.167  1.7907  0.7047  1.4804
79500SOL    HW250480  12.020  12.297   7.020 -1.5809  1.4632  0.8719
79501SOL     OW50481   4.299  13.228   2.832  0.3725 -0.4154 -0.1947
79501SOL    HW150482   4.275  13.151   2.884  1.0606 -0.9886 -0.6987
79501SOL    HW250483   4.264  13.302   2.880 -0.5917 -1.0741  0.1323
79502SOL     OW50484   6.909   1.774   8.734 -0.1236 -0.5243  0.1032
79502SOL    HW150485   6.906   1.740   8.823  2.6551  0.3717  0.6508
79502SOL    HW250486   6.818   1.796   8.713 -0.8319 -0.5353  2.7940
79503SOL     OW50487   3.984   2.439   9.798 -0.4214 -0.5631 -0.0870
79503SOL    HW150488   3.889   2.451   9.805 -0.0575  2.6576  1.0724
79503SOL    HW250489   4.020   2.483   9.875  2.0755 -0.6062 -1.1210
79504SOL     OW50490   3.747   4.541   1.578  0.0673 -0.1517 -0.0550
79504SOL    HW150491   3.769   4.512   1.489  1.0668 -1.1245  0.4811
79504SOL    HW250492   3.826   4.585   1.609 -0.5454  0.8677  0.0892
79505SOL     OW50493   0.486   7.334   8.407  0.3011  1.0748 -0.1426
79505SOL    HW150494   0.497   7.263   8.471 -0.6300  1.2219  0.1851
79505SOL    HW250495   0.575   7.368   8.395  0.6055  0.5474  0.5001
79506SOL     OW50496  12.373  12.978  10.915  0.3411 -0.1257  0.7272
79506SOL    HW150497  12.446  13.012  10.863  1.3647 -0.9461  1.5757
79506SOL    HW250498  12.359  12.889  10.881 -2.5073  1.0646 -1.6804
79507SOL     OW50499   9.594   7.129   5.592  0.3305  0.2857 -0.5786
79507SOL    HW150500   9.566   7.220   5.589 -0.6231 -0.0002 -0.8633
79507SOL    HW250501   9.689   7.133   5.602  0.1498  1.3046  1.2127
79508SOL     OW50502   4.452   4.143   9.120  0.4075 -0.3508 -0.8447
79508SOL    HW150503   4.544   4.131   9.096  0.3846 -1.3167 -0.5115
79508SOL    HW250504   4.403   4.118   9.042  0.4365  2.1981 -1.7668
79509SOL     OW50505  11.136   3.951   2.909 -0.1336 -0.5264 -0.5473
79509SOL    HW150506  11.119   4.038   2.873  0.6328  0.5778  1.5439
79509SOL    HW250507  11.224   3.929   2.877 -0.9296 -1.2718 -2.3351
79510SOL     OW50508   8.012   1.162   9.265  0.9698 -0.1918 -0.2719
79510SOL    HW150509   8.007   1.149   9.359 -3.4935 -0.8417 -0.3803
79510SOL    HW250510   8.040   1.078   9.230  1.2393 -0.3922  0.4193
79511SOL     OW50511  11.771  11.198   4.025  0.0164 -0.7066 -0.5242
79511SOL    HW150512  11.761  11.232   4.113 -1.0241 -0.4040 -0.7520
79511SOL    HW250513  11.760  11.103   4.034  1.1379 -0.8164 -0.1587
79512SOL     OW50514  10.486   3.073   2.902  0.2648  0.0699  0.1779
79512SOL    HW150515  10.394   3.081   2.881  0.4175  1.1300 -0.1200
79512SOL    HW250516  10.493   3.103   2.993  0.0765 -1.6494  0.8158
79513SOL     OW50517   5.004   0.962   0.525 -0.0664 -0.1382 -0.1364
79513SOL    HW150518   5.060   1.033   0.558  0.6735 -0.6543 -0.2581
79513SOL    HW250519   5.043   0.882   0.560  0.5335 -0.6891 -1.9171
79514SOL     OW50520   8.744  13.041  13.626  0.1720 -0.3946  0.1771
79514SOL    HW150521   8.736  13.061  13.532  0.2885 -0.2688  0.1937
79514SOL    HW250522   8.717  13.122  13.670  1.3583 -0.0045  0.2400
79515SOL     OW50523  10.821   2.457  12.584  0.6889  0.3074  0.1961
79515SOL    HW150524  10.913   2.468  12.559  0.7526  1.4313  0.8524
79515SOL    HW250525  10.795   2.543  12.615 -0.4078 -0.1676  0.6206
79516SOL     OW50526   7.226  12.726   2.564  0.2502 -0.2396  0.8366
79516SOL    HW150527   7.148  12.739   2.510  1.5158 -0.2288 -1.1101
79516SOL    HW250528   7.295  12.706   2.501  1.8080 -0.3396  2.4977
79517SOL     OW50529   6.812  10.501   7.659  0.2217 -0.0269  0.1334
79517SOL    HW150530   6.722  10.477   7.682 -1.1014  2.9112 -1.4633
79517SOL    HW250531   6.844  10.428   7.607 -1.8570 -0.4223 -0.6562
79518SOL     OW50532   8.323   1.681  12.667  1.1141  0.4805  0.1510
79518SOL    HW150533   8.349   1.662  12.756  1.2486  2.5534  0.6094
79518SOL    HW250534   8.388   1.744  12.636  1.7180 -1.0048 -1.8300
79519SOL     OW50535   4.116   8.589  12.821 -0.2961  0.5678  0.6935
79519SOL    HW150536   4.124   8.570  12.727 -0.6909 -0.1858  0.8009
79519SOL    HW250537   4.058   8.665  12.825  0.7868  1.4363  0.2727
79520SOL     OW50538   6.228   7.920  13.983 -0.3594 -0.4107 -0.3342
79520SOL    HW150539   6.179   7.942  13.903 -1.1822 -1.4638 -0.1457
79520SOL    HW250540   6.281   7.844  13.957 -0.3177 -0.4937 -0.0040
79521SOL     OW50541   0.399   6.170  11.605 -0.4492  0.1330  0.6760
79521SOL    HW150542   0.429   6.082  11.627  0.3112  0.6535  1.8175
79521SOL    HW250543   0.427   6.224  11.679 -0.9827  1.3196  0.0368
79522SOL     OW50544   6.883   9.404   4.499 -0.2186  0.6085  0.3543
79522SOL    HW150545   6.906   9.312   4.511  0.0438  0.5851 -0.2852
79522SOL    HW250546   6.851   9.410   4.409  1.1832  1.4026 -0.1274
79523SOL     OW50547  11.191   3.237  13.611  0.4477 -0.2969  0.3299
79523SOL    HW150548  11.151   3.271  13.690 -0.6901 -0.8993  0.0472
79523SOL    HW250549  11.260   3.299  13.589 -1.0702  1.4404  0.2226
79524SOL     OW50550   9.326   7.336   0.228  0.3417 -0.6675 -0.1349
79524SOL    HW150551   9.270   7.263   0.257  0.9403 -1.5472 -1.1128
79524SOL    HW250552   9.353   7.311   0.140  0.5880  0.7433 -0.4746
79525SOL     OW50553   5.108  12.419  11.528 -0.1941 -0.4649  0.2450
79525SOL    HW150554   5.138  12.449  11.442 -0.1820 -2.0799 -0.3541
79525SOL    HW250555   5.093  12.499  11.578 -0.0143  0.5017 -1.1990
79526SOL     OW50556  11.964   8.280   9.499  0.0775 -0.1217 -0.0867
79526SOL    HW150557  12.042   8.336   9.495  0.4582 -0.6539 -0.1659
79526SOL    HW250558  11.998   8.191   9.497 -0.5318 -0.3600  0.0016
79527SOL     OW50559   7.939   1.512  12.817  0.0743  0.1880  0.5887
79527SOL    HW150560   7.985   1.450  12.760 -1.0951  0.3229 -0.5399
79527SOL    HW250561   7.962   1.485  12.905  1.0627 -0.6993  0.0830
79528SOL     OW50562   5.317   8.590   2.078  0.0879  0.2270  0.1428
79528SOL    HW150563   5.223   8.603   2.065  0.1358 -0.9598 -1.7717
79528SOL    HW250564   5.345   8.541   2.001  2.2484  0.3497  0.7914
79529SOL     OW50565   6.708   6.628   2.615  0.1531  0.5317  0.0923
79529SOL    HW150566   6.779   6.564   2.615  0.3796  0.7302  1.7751
79529SOL    HW250567   6.730   6.689   2.545 -0.3968 -1.5175 -2.0086
79530SOL     OW50568  11.098   9.915  11.029  0.3103  0.4556  0.2458
79530SOL    HW150569  11.044   9.950  11.100 -0.8956 -0.1606 -0.3335
79530SOL    HW250570  11.176   9.970  11.028  0.3997  0.4016  2.1106
79531SOL     OW50571  10.564   4.214   5.699  0.2584 -0.6414  0.3087
79531SOL    HW150572  10.566   4.305   5.670 -0.2363 -1.0119 -0.9823
79531SOL    HW250573  10.522   4.217   5.785  0.4580  0.3682  0.3842
79532SOL     OW50574  12.123   5.562  13.566  0.1916  0.1126  0.0759
79532SOL    HW150575  12.031   5.566  13.540 -0.0572 -0.5900  0.8094
79532SOL    HW250576  12.122   5.572  13.661  0.6404 -2.2401  0.4048
79533SOL     OW50577  12.488   8.600   7.629  0.0242  0.6572 -0.0344
79533SOL    HW150578  12.522   8.637   7.710  0.0528  0.1716  0.1779
79533SOL    HW250579  12.565   8.565   7.584  0.4689  3.3501 -1.5984
79534SOL     OW50580   3.996  12.762   2.595  0.2206  0.6215 -0.4139
79534SOL    HW150581   4.052  12.704   2.544  0.4864  1.1836 -0.7774
79534SOL    HW250582   4.050  12.839   2.612 -1.1583  2.2600 -2.8732
79535SOL     OW50583  14.037   1.076  10.035  0.3610 -0.5396 -0.4676
79535SOL    HW150584  14.085   1.056   9.955  0.2159  0.8782 -0.9425
79535SOL    HW250585  14.084   1.151  10.072 -0.6630 -0.0140 -0.2061
79536SOL     OW50586  11.246  10.976   2.910  0.1845 -0.0045 -0.1760
79536SOL    HW150587  11.282  10.926   2.984  1.0005  1.1379  0.2237
79536SOL    HW250588  11.262  11.067   2.933 -1.0927  0.4464 -0.9898
79537SOL     OW50589   8.493  10.658  10.533  0.3961 -0.0773  0.9183
79537SOL    HW150590   8.433  10.590  10.500 -2.0287  1.7364  1.2680
79537SOL    HW250591   8.461  10.678  10.621  0.5460  1.9590  0.5777
79538SOL     OW50592   9.555   4.303  11.026 -0.7443  0.1767  0.4963
79538SOL    HW150593   9.521   4.260  10.947 -0.6635 -0.9266  1.0347
79538SOL    HW250594   9.488   4.367  11.049 -0.6193  0.7393 -0.6442
79539SOL     OW50595   7.169  10.285   3.237  0.3875 -0.2795 -0.0761
79539SOL    HW150596   7.174  10.306   3.330 -0.9175  2.0462 -0.4617
79539SOL    HW250597   7.124  10.201   3.233 -0.3661  0.0377  1.3448
79540SOL     OW50598  12.811   7.761   2.097  0.7014 -0.2629 -0.1527
79540SOL    HW150599  12.765   7.678   2.104  0.7246 -0.1831  1.1036
79540SOL    HW250600  12.788   7.794   2.010 -1.4166 -0.3276  0.3468
79541SOL     OW50601   4.680  13.304   0.682 -0.2544  0.0614  0.1860
79541SOL    HW150602   4.725  13.294   0.766 -0.1863 -0.3456  0.1048
79541SOL    HW250603   4.672  13.398   0.670 -0.7934  0.1177  0.9333
79542SOL     OW50604   8.060   5.527   2.806  0.1968  0.1483  0.1445
79542SOL    HW150605   7.971   5.494   2.791 -0.6749  1.7382  1.4715
79542SOL    HW250606   8.112   5.448   2.821 -1.1486 -0.7909  0.0534
79543SOL     OW50607   1.690   5.950   3.209  0.4275 -0.1232 -0.6961
79543SOL    HW150608   1.608   5.994   3.230  0.3031 -1.4436  1.9382
79543SOL    HW250609   1.665   5.858   3.197  1.3346 -0.2963 -1.3994
79544SOL     OW50610   6.753   8.863   3.125  0.1174  0.2312 -0.5055
79544SOL    HW150611   6.674   8.809   3.134  0.3035 -0.7513 -3.7166
79544SOL    HW250612   6.816   8.823   3.184 -0.4831 -1.6727 -1.0791
79545SOL     OW50613  10.307   5.115  11.926 -0.3510 -0.0582 -0.5492
79545SOL    HW150614  10.282   5.194  11.879  0.0068 -1.0006 -2.4155
79545SOL    HW250615  10.228   5.061  11.928 -0.6531  0.3855  0.9003
79546SOL     OW50616   0.599  11.140   0.985  0.6095 -0.1223 -0.1956
79546SOL    HW150617   0.526  11.182   1.030  0.5900  1.3170 -1.5137
79546SOL    HW250618   0.672  11.145   1.047  0.2028  0.5126  0.2389
79547SOL     OW50619  13.513   0.623   8.013 -0.2629 -0.6718 -0.0419
79547SOL    HW150620  13.596   0.668   8.030  1.3828 -1.5026 -4.5285
79547SOL    HW250621  13.522   0.538   8.056  1.3091 -0.7732 -0.5278
79548SOL     OW50622  12.288  10.056  11.708 -0.1024 -0.3878  0.5621
79548SOL    HW150623  12.244  10.052  11.623 -0.6047 -0.9345  0.8366
79548SOL    HW250624  12.241  10.124  11.757 -0.3285 -0.6217  0.6757
79549SOL     OW50625  10.843   2.613   5.186  0.3952 -0.2407  0.0015
79549SOL    HW150626  10.935   2.602   5.159  0.4635  0.9399 -0.3366
79549SOL    HW250627  10.817   2.696   5.146 -1.2405 -1.1869 -0.9891
79550SOL     OW50628   7.430   6.820   9.598  0.0604 -0.9723 -0.3553
79550SOL    HW150629   7.490   6.752   9.628  0.8865  0.0800  0.4474
79550SOL    HW250630   7.382   6.846   9.676 -0.1323 -0.5313 -0.6135
79551SOL     OW50631  12.806   9.664  13.255  0.5198  0.7967 -0.0496
79551SOL    HW150632  12.811   9.670  13.159 -3.2260 -0.5683 -0.4716
79551SOL    HW250633  12.732   9.720  13.279  0.5639  0.0895  1.9051
79552SOL     OW50634   1.766   1.143  13.784  0.2370 -0.3453 -0.0526
79552SOL    HW150635   1.796   1.061  13.744 -1.5405 -1.8358  1.4825
79552SOL    HW250636   1.816   1.148  13.866  1.9490  1.3342 -1.1177
79553SOL     OW50637  10.001  12.555   0.632  0.2599  0.6721  0.3437
79553SOL    HW150638  10.096  12.560   0.630  0.2615  0.5070 -0.2829
79553SOL    HW250639   9.981  12.467   0.599 -0.1486  1.1936 -0.8351
79554SOL     OW50640   8.777   5.693  12.253 -0.2185 -0.0664  0.2493
79554SOL    HW150641   8.817   5.606  12.255 -1.0739 -0.4972 -0.2819
79554SOL    HW250642   8.845   5.752  12.283 -0.0105 -1.0645  1.8267
79555SOL     OW50643   7.789   8.146  11.323 -0.2193 -0.2941 -0.4082
79555SOL    HW150644   7.724   8.154  11.393  0.3553  0.0549  0.0973
79555SOL    HW250645   7.787   8.231  11.279 -2.8892 -1.5121 -2.9315
79556SOL     OW50646  12.630  11.485  11.675  0.2050 -0.0788  0.7794
79556SOL    HW150647  12.658  11.429  11.603  0.9869  0.9208  0.2718
79556SOL    HW250648  12.705  11.544  11.690 -1.2801  2.1833 -0.0998
79557SOL     OW50649  10.584   5.476   5.579 -0.4002 -0.1634 -0.0709
79557SOL    HW150650  10.622   5.503   5.496 -0.5779 -0.3920 -0.2266
79557SOL    HW250651  10.582   5.556   5.632 -0.0146 -0.0780 -0.1802
79558SOL     OW50652  12.892   0.508  10.116 -0.5186 -0.6987 -0.0607
79558SOL    HW150653  12.855   0.476  10.198  1.5795 -1.7114  0.5746
79558SOL    HW250654  12.962   0.568  10.143 -0.1954 -0.5630 -1.1305
79559SOL     OW50655   2.959  12.767  12.071 -0.0630 -0.1757 -0.1087
79559SOL    HW150656   2.909  12.839  12.032  0.9296 -0.0484 -1.1930
79559SOL    HW250657   3.001  12.806  12.148 -0.7888 -0.0240  0.2254
79560SOL     OW50658   8.278   3.291   5.160 -0.1014 -0.3556 -0.5188
79560SOL    HW150659   8.305   3.235   5.087 -1.1609 -1.8095  0.1751
79560SOL    HW250660   8.338   3.270   5.231 -1.4307 -1.8050  0.2376
79561SOL     OW50661   9.521   8.540   2.299 -0.1956  0.2489 -0.1789
79561SOL    HW150662   9.513   8.626   2.341  0.0739 -0.6372  1.8339
79561SOL    HW250663   9.470   8.547   2.219 -0.3546  2.2164  0.0515
79562SOL     OW50664   8.219   8.271   6.243  0.2468 -0.0951  0.4193
79562SOL    HW150665   8.198   8.341   6.181  0.5284 -0.5763 -0.2430
79562SOL    HW250666   8.171   8.195   6.210  1.4594 -0.7071 -0.0071
79563SOL     OW50667  13.119  12.263   1.163 -0.3903 -0.1796  0.3929
79563SOL    HW150668  13.209  12.255   1.195  0.6345  1.9162 -1.7028
79563SOL    HW250669  13.068  12.204   1.219  1.8485  0.4178  3.2436
79564SOL     OW50670   1.542  13.855   8.386 -0.2076 -0.4606 -0.1623
79564SOL    HW150671   1.492  13.781   8.418 -0.3423 -0.1862  0.2667
79564SOL    HW250672   1.492  13.932   8.414 -0.6110 -0.2172 -1.4701
79565SOL     OW50673   9.976   7.173   8.154 -0.1047 -0.1737 -0.4108
79565SOL    HW150674  10.057   7.201   8.111  0.5265 -2.5405 -0.9315
79565SOL    HW250675   9.981   7.077   8.154 -2.4804 -0.3652  0.4079
79566SOL     OW50676   4.640   6.371   7.848 -0.1837 -0.1993  0.3471
79566SOL    HW150677   4.689   6.298   7.810  1.7928  1.2179 -0.0065
79566SOL    HW250678   4.593   6.333   7.921  0.9107 -1.8091  0.2755
79567SOL     OW50679   8.379  10.488   9.002  0.3672  0.6131 -0.4421
79567SOL    HW150680   8.327  10.568   8.992  0.0161  0.3052 -1.2854
79567SOL    HW250681   8.340  10.428   8.938  2.3713  0.6757 -1.8245
79568SOL     OW50682   0.142   8.130   9.916  0.3343  0.6212 -0.6852
79568SOL    HW150683   0.167   8.040   9.934 -0.1448  0.7181  0.5646
79568SOL    HW250684   0.224   8.179   9.916  0.4614  0.4229  0.1934
79569SOL     OW50685   7.305   5.781   6.119 -0.1337 -0.1736  0.4207
79569SOL    HW150686   7.338   5.859   6.165 -0.4738  0.2941 -0.1210
79569SOL    HW250687   7.293   5.716   6.189  3.5088 -0.9738  0.4844
79570SOL     OW50688  12.912   8.878  10.053  0.3805  0.4511 -0.6281
79570SOL    HW150689  12.909   8.782  10.044 -1.2493  0.6059 -2.4789
79570SOL    HW250690  12.886   8.894  10.144 -0.5246 -0.8307 -0.6334
79571SOL     OW50691   0.929   8.762   4.645  0.0190  0.3228 -0.1584
79571SOL    HW150692   0.958   8.851   4.625 -0.6553  0.1885 -1.9417
79571SOL    HW250693   0.957   8.711   4.569  0.6709 -1.0704  0.9666
79572SOL     OW50694  13.146   5.239   0.660 -0.0018 -0.0060 -0.3913
79572SOL    HW150695  13.116   5.253   0.750 -1.6606 -0.5237 -0.8406
79572SOL    HW250696  13.124   5.148   0.641  0.0776  0.1810 -1.4234
79573SOL     OW50697   9.391   7.943  13.526  0.0446  0.3254  0.2592
79573SOL    HW150698   9.393   7.878  13.597  0.4486 -0.3431 -0.3574
79573SOL    HW250699   9.330   8.010  13.557  2.0837  1.3690  2.3962
79574SOL     OW50700   2.208   4.753   0.005 -0.4008 -0.5247 -0.1202
79574SOL    HW150701   2.186   4.810  -0.068 -2.4023 -1.0962 -0.0276
79574SOL    HW250702   2.227   4.668  -0.035  0.7630 -0.2803 -0.1200
79575SOL     OW50703   9.160   2.801  10.583 -0.0214 -0.2103 -0.2294
79575SOL    HW150704   9.107   2.724  10.602 -2.3732  0.7267 -2.4738
79575SOL    HW250705   9.098   2.865  10.550  1.3418  3.6064  3.6169
79576SOL     OW50706   2.814   0.701  13.408  0.3265 -0.6307  0.2098
79576SOL    HW150707   2.863   0.733  13.332 -1.7163 -0.0687 -0.9532
79576SOL    HW250708   2.731   0.750  13.406 -1.0031 -2.6843  1.1016
79577SOL     OW50709   7.507   5.510   1.842 -0.4982  0.7221  0.1044
79577SOL    HW150710   7.412   5.517   1.846 -0.4883  0.4359  2.4258
79577SOL    HW250711   7.527   5.430   1.890  0.8649  0.1301 -1.3914
79578SOL     OW50712  12.952   0.923  13.789  0.1805 -0.2840  0.7489
79578SOL    HW150713  13.008   0.955  13.718  0.4332 -2.8221 -0.2960
79578SOL    HW250714  12.996   0.951  13.869  0.3384  1.9133 -0.0367
79579SOL     OW50715  10.111   6.970   4.394 -0.1661  0.4878 -0.2030
79579SOL    HW150716  10.166   7.047   4.409  0.6587  0.1395 -1.2500
79579SOL    HW250717  10.173   6.904   4.362 -1.0215 -0.2886 -0.2759
79580SOL     OW50718   1.908  13.887   6.669 -0.3458  0.0549 -0.2500
79580SOL    HW150719   1.887  13.939   6.747 -0.2931 -0.5118  0.1518
79580SOL    HW250720   1.928  13.800   6.704 -0.0061 -0.1188 -0.8719
79581SOL     OW50721  12.993  10.329   4.067  0.2383  0.4609 -0.4491
79581SOL    HW150722  12.969  10.413   4.106 -1.3173  0.9073 -2.2133
79581SOL    HW250723  12.925  10.269   4.097  0.2945  0.2847 -0.6694
79582SOL     OW50724   7.786  11.761  11.822  0.4708 -0.5114  0.4827
79582SOL    HW150725   7.775  11.690  11.759 -0.1339  0.5931 -0.6931
79582SOL    HW250726   7.873  11.747  11.859  0.3460 -1.8713  0.3095
79583SOL     OW50727   1.551   0.289   7.196  0.2966  0.0293 -0.3421
79583SOL    HW150728   1.526   0.233   7.122 -1.5584 -1.9207  1.6060
79583SOL    HW250729   1.529   0.377   7.167  0.3285 -0.5734 -2.3795
79584SOL     OW50730  11.199   4.708   1.170 -0.0177  0.5129 -0.3128
79584SOL    HW150731  11.274   4.730   1.115  1.2734 -2.8884 -0.1718
79584SOL    HW250732  11.212   4.758   1.250  0.8625  1.6557 -1.1345
79585SOL     OW50733   2.642   3.356  12.317 -0.3274  0.2227  0.0113
79585SOL    HW150734   2.569   3.297  12.298  0.4806 -1.2351  1.1478
79585SOL    HW250735   2.632   3.378  12.410 -1.1717  2.7761 -0.6135
79586SOL     OW50736   3.281   4.365   4.878 -0.1694 -0.6419 -0.3325
79586SOL    HW150737   3.265   4.270   4.875 -2.1988 -0.3683  0.1798
79586SOL    HW250738   3.235   4.399   4.801  0.1389 -0.0146 -0.2449
79587SOL     OW50739  11.940  12.615   7.322  0.3150 -0.0352 -0.2960
79587SOL    HW150740  12.019  12.566   7.299  0.1342 -1.2027  1.3858
79587SOL    HW250741  11.923  12.670   7.246  1.3129 -1.5909 -1.7168
79588SOL     OW50742   8.354  13.002   3.702  0.1131  0.1815 -0.1149
79588SOL    HW150743   8.415  12.983   3.773 -0.2572 -1.9119 -0.3037
79588SOL    HW250744   8.406  12.995   3.622  0.1599  0.8686 -0.1498
79589SOL     OW50745   6.306   2.926   5.220 -0.0172  1.0354  0.0034
79589SOL    HW150746   6.255   2.855   5.258  0.2024 -0.3998 -2.2004
79589SOL    HW250747   6.388   2.926   5.269 -0.1423 -0.0418  0.2234
79590SOL     OW50748   2.793   5.527  12.582 -0.4013  0.2356 -0.3238
79590SOL    HW150749   2.775   5.599  12.643 -2.1954  1.5143 -2.2303
79590SOL    HW250750   2.884   5.503  12.600  0.5994  3.5678 -0.1281
79591SOL     OW50751  13.178   4.107  10.007 -0.2894 -0.1336 -0.1536
79591SOL    HW150752  13.183   4.122   9.912  1.4399  0.0959 -0.0612
79591SOL    HW250753  13.168   4.195  10.044 -0.9440 -0.2217 -0.1134
79592SOL     OW50754  12.302   0.184  13.972  0.2509  0.0406  1.0450
79592SOL    HW150755  12.249   0.158  13.897 -1.9478 -1.7849  3.0841
79592SOL    HW250756  12.392   0.164  13.946 -0.4263 -0.4518 -1.1035
79593SOL     OW50757   0.319  12.859   8.848  0.4490  0.4272 -0.1765
79593SOL    HW150758   0.264  12.930   8.882 -0.9624 -0.6950 -0.0258
79593SOL    HW250759   0.350  12.814   8.927 -0.3176 -0.3281 -0.2961
79594SOL     OW50760   0.228   5.302   9.903 -0.0137  0.3251 -0.3893
79594SOL    HW150761   0.209   5.210   9.884 -0.4674  0.2729  0.2707
79594SOL    HW250762   0.150   5.349   9.873 -1.5280  0.0672  2.7039
79595SOL     OW50763   8.108  11.279  13.161  0.6383 -0.5097  0.3710
79595SOL    HW150764   8.125  11.200  13.211 -0.5371 -1.4117 -0.6123
79595SOL    HW250765   8.049  11.252  13.091  1.8162  0.8059 -1.2244
79596SOL     OW50766   8.300   6.343   2.304 -0.2691  0.0867 -0.4450
79596SOL    HW150767   8.387   6.357   2.266 -0.1962 -0.1329 -0.3648
79596SOL    HW250768   8.249   6.304   2.233  0.1381 -1.2259 -0.0589
79597SOL     OW50769  10.408   8.295  11.133 -0.0558  0.0612 -0.3871
79597SOL    HW150770  10.424   8.201  11.139 -0.8775 -0.0276  0.5054
79597SOL    HW250771  10.357   8.317  11.211  1.8448  1.6199  0.5031
79598SOL     OW50772   1.883   8.560   8.202  0.7107  0.2195  0.3705
79598SOL    HW150773   1.810   8.617   8.182 -1.3408 -2.2254  0.4112
79598SOL    HW250774   1.918   8.594   8.285 -1.2984  0.6455  1.1063
79599SOL     OW50775  10.286   9.645   1.900  0.3726  0.4545  0.5767
79599SOL    HW150776  10.368   9.597   1.899 -0.9265 -1.9258  0.6940
79599SOL    HW250777  10.293   9.706   1.826  2.5453  0.9531  1.1439
79600SOL     OW50778  10.836   7.380   6.873  0.0114 -0.0388 -0.8384
79600SOL    HW150779  10.751   7.335   6.870  0.4686 -0.9456 -0.3946
79600SOL    HW250780  10.816   7.464   6.916 -0.2090 -1.3673  1.8467
79601SOL     OW50781   3.784   8.018   7.528  0.0132  0.4202 -0.5008
79601SOL    HW150782   3.751   7.929   7.540 -0.5598  0.3478 -2.2957
79601SOL    HW250783   3.875   8.006   7.501 -0.0992  0.3518 -0.8637
79602SOL     OW50784   3.173   9.087   0.792  0.4550 -0.0204  0.6002
79602SOL    HW150785   3.205   9.037   0.867  0.8081  0.3856  0.7246
79602SOL    HW250786   3.252   9.119   0.749  0.3291 -1.6605 -0.9353
79603SOL     OW50787   9.291   2.237   0.588 -0.0637 -0.5647 -0.0583
79603SOL    HW150788   9.310   2.182   0.512 -2.5495 -1.2004 -0.3294
79603SOL    HW250789   9.316   2.184   0.663 -1.3721 -1.6619 -0.3520
79604SOL     OW50790   8.730   8.217   6.319  0.0491 -0.4920  0.3971
79604SOL    HW150791   8.709   8.132   6.357 -0.1564  0.2846  2.0918
79604SOL    HW250792   8.651   8.242   6.271  0.5777 -1.8173 -1.2865
79605SOL     OW50793  10.157   5.090  10.433 -0.1887 -0.1465 -0.2685
79605SOL    HW150794  10.226   5.116  10.494 -1.2441  0.7575  0.5975
79605SOL    HW250795  10.096   5.038  10.486 -1.4844  1.2344 -0.3056
79606SOL     OW50796   2.012   5.285   1.269  0.3674 -0.1011  0.4179
79606SOL    HW150797   2.034   5.199   1.232 -1.5897 -0.2377 -0.5122
79606SOL    HW250798   2.065   5.290   1.348 -0.2818 -2.6771  1.1182
79607SOL     OW50799   0.008  12.517   8.284  0.0914  0.1686  0.3819
79607SOL    HW150800   0.087  12.463   8.285 -1.7927 -2.8626 -0.5069
79607SOL    HW250801  -0.014  12.530   8.376  1.9660  1.6961  0.6552
79608SOL     OW50802   7.170   8.014   0.022  0.2118  0.3365  0.3625
79608SOL    HW150803   7.093   7.987   0.073  0.3372 -0.1499  0.2931
79608SOL    HW250804   7.242   8.011   0.084  0.6703 -1.8495 -0.2095
79609SOL     OW50805   6.055  11.601   7.621 -0.6532 -0.7762 -0.7688
79609SOL    HW150806   6.122  11.543   7.583  0.3396  0.5157 -1.0540
79609SOL    HW250807   6.043  11.670   7.557  1.1681  1.5431  1.2017
79610SOL     OW50808   1.550   5.490  10.785 -0.1150  0.4132 -0.3072
79610SOL    HW150809   1.496   5.453  10.715  0.3380  1.0245 -1.0000
79610SOL    HW250810   1.610   5.419  10.809 -0.6827  0.0023 -0.1057
79611SOL     OW50811   5.851  12.405  13.256  0.3126  0.2764  0.5660
79611SOL    HW150812   5.894  12.416  13.171  0.3047 -2.1919  0.1767
79611SOL    HW250813   5.761  12.381  13.234 -0.1055  1.1164  1.3194
79612SOL     OW50814   8.507   8.515   0.925 -0.1778  0.0913  0.5476
79612SOL    HW150815   8.564   8.461   0.870  2.3016  1.7328  1.3610
79612SOL    HW250816   8.509   8.473   1.011 -0.3804  0.0478  0.5331
79613SOL     OW50817   3.720   1.382   8.983  0.4126  0.4514 -0.1887
79613SOL    HW150818   3.756   1.386   9.071 -0.1088 -1.0656  0.1302
79613SOL    HW250819   3.739   1.467   8.944  3.0117  0.2262  0.4442
79614SOL     OW50820   7.227   4.407  12.801  0.7731 -0.0626 -0.0863
79614SOL    HW150821   7.144   4.369  12.829  0.4426 -0.0718 -1.0357
79614SOL    HW250822   7.220   4.411  12.705  1.7306  0.2465 -0.1519
79615SOL     OW50823   2.059  12.433  12.164  1.3304  0.2753 -0.0898
79615SOL    HW150824   2.075  12.511  12.112 -0.9887  0.9683  0.1439
79615SOL    HW250825   2.072  12.360  12.103  1.1668  0.9451 -0.9280
79616SOL     OW50826  12.611   2.358  10.970  0.0449 -0.5924  0.3482
79616SOL    HW150827  12.621   2.297  11.044  0.4892  0.4971  1.2093
79616SOL    HW250828  12.688   2.343  10.916 -0.7424 -2.0606 -0.4261
79617SOL     OW50829   1.614   0.228   1.001  0.0457  0.0502 -0.0805
79617SOL    HW150830   1.554   0.295   1.033  1.3066  0.2144  2.2340
79617SOL    HW250831   1.630   0.172   1.078  0.8978 -1.4523 -1.2968
79618SOL     OW50832   3.923   6.190   9.696  1.0334  0.2204  0.0185
79618SOL    HW150833   3.918   6.168   9.603  0.8158  0.7282 -0.0940
79618SOL    HW250834   3.849   6.145   9.736 -0.5009  2.1469 -0.5033
79619SOL     OW50835   9.319   2.929   6.337  0.0824 -0.0130 -0.2599
79619SOL    HW150836   9.337   2.848   6.288  1.2846  0.1935 -0.1798
79619SOL    HW250837   9.265   2.981   6.277  0.9842 -0.0383 -1.1104
79620SOL     OW50838  12.741  10.584   4.595 -0.2716 -0.5099  0.3529
79620SOL    HW150839  12.775  10.545   4.675  0.6067 -1.4588 -0.4544
79620SOL    HW250840  12.751  10.516   4.529  1.1340  0.9910 -1.0839
79621SOL     OW50841  12.136   4.800   4.684 -0.4535 -0.4979 -0.2132
79621SOL    HW150842  12.059   4.840   4.724  0.1965 -0.6761  1.2686
79621SOL    HW250843  12.205   4.865   4.695 -0.3057 -0.4498 -1.2907
79622SOL     OW50844  10.385  13.895  11.347  0.0333  0.1436 -0.0155
79622SOL    HW150845  10.298  13.865  11.371  0.1525 -0.2076 -0.0205
79622SOL    HW250846  10.444  13.847  11.406  0.3039 -0.4449 -0.7522
79623SOL     OW50847   4.061  12.238  10.651  0.0806  0.1585 -0.2369
79623SOL    HW150848   4.078  12.327  10.620 -1.4872  1.3300  2.0350
79623SOL    HW250849   4.058  12.185  10.571 -1.3979  2.5803 -1.8893
79624SOL     OW50850   7.026  11.460   0.510  0.1994  0.0441 -0.2587
79624SOL    HW150851   7.058  11.393   0.571  0.5006 -0.8309 -1.3485
79624SOL    HW250852   7.081  11.451   0.433 -1.7057 -0.5284 -1.6273
79625SOL     OW50853   4.832  10.220  11.292 -0.8027 -0.2019  0.6235
79625SOL    HW150854   4.810  10.161  11.220 -0.4236 -1.3748  1.4393
79625SOL    HW250855   4.752  10.269  11.309 -1.5159 -1.3610  0.7312
79626SOL     OW50856  13.872   7.409  13.997 -0.2367 -0.0668  0.4582
79626SOL    HW150857  13.843   7.356  13.923 -3.2578  1.6243  0.2893
79626SOL    HW250858  13.876   7.347  14.070 -1.1504 -1.0204 -0.2751
79627SOL     OW50859  13.217   3.851  12.951 -0.7356 -0.3760  0.1403
79627SOL    HW150860  13.165   3.829  12.874  0.0843 -0.3175 -0.4507
79627SOL    HW250861  13.307   3.826  12.927  0.3281  3.4604 -0.6195
79628SOL     OW50862  12.787   1.901   9.733  0.1884 -0.2164 -0.0705
79628SOL    HW150863  12.854   1.834   9.720 -0.2494 -0.4283 -1.3398
79628SOL    HW250864  12.721   1.858   9.787  0.0066 -0.7612 -0.7058
79629SOL     OW50865   3.390   8.193   7.385 -0.1235 -0.0976  0.1233
79629SOL    HW150866   3.393   8.217   7.478 -3.1328 -2.5456  1.0122
79629SOL    HW250867   3.303   8.220   7.356  0.2845 -0.5384 -1.6487
79630SOL     OW50868  13.393   9.620   3.700 -0.1791  0.4302 -0.6822
79630SOL    HW150869  13.335   9.696   3.697  0.0283  0.5938 -0.6148
79630SOL    HW250870  13.442   9.624   3.618  0.1076  0.5940 -0.5079
79631SOL     OW50871   1.950  12.489   0.475  0.2941  0.6467 -0.3829
79631SOL    HW150872   1.895  12.494   0.397  0.6636  0.0331 -0.6880
79631SOL    HW250873   2.039  12.503   0.443  0.4259  0.6275 -0.0366
79632SOL     OW50874   1.917  11.701   6.825 -0.4479  0.1436  0.0242
79632SOL    HW150875   1.973  11.624   6.818  0.6789  0.8877  0.4706
79632SOL    HW250876   1.948  11.759   6.755 -0.7636  0.5096  0.1843
79633SOL     OW50877   9.662   5.713   0.056 -0.0266  0.3876  0.2879
79633SOL    HW150878   9.586   5.761   0.090  0.0434 -0.3915  1.5839
79633SOL    HW250879   9.738   5.760   0.092  0.1014  0.7021 -0.3761
79634SOL     OW50880   2.920   5.772   2.383  0.1098 -0.2810  0.3660
79634SOL    HW150881   2.993   5.826   2.414  1.0190 -1.5203  0.4483
79634SOL    HW250882   2.956   5.724   2.309 -0.4919 -1.2281  0.6753
79635SOL     OW50883   1.814   3.025  10.151  0.3513  0.0531 -0.4674
79635SOL    HW150884   1.733   3.034  10.101 -0.0496 -0.4919  0.0720
79635SOL    HW250885   1.790   3.054  10.240  0.7009 -0.2754 -0.2648
79636SOL     OW50886   2.982   1.932   7.538  0.5110 -0.0858 -0.1224
79636SOL    HW150887   2.940   1.870   7.599 -2.9901  0.3407 -1.8424
79636SOL    HW250888   2.961   2.018   7.573  2.0860  0.1774  0.2282
79637SOL     OW50889   8.632   5.694   5.929  0.4569 -0.4945  0.1693
79637SOL    HW150890   8.718   5.653   5.937  0.1935 -0.7677  2.1725
79637SOL    HW250891   8.630   5.758   6.000 -0.7390  0.0187 -0.3023
79638SOL     OW50892   7.186   5.451   9.927  0.7067  0.3985 -0.4042
79638SOL    HW150893   7.203   5.522   9.989 -0.2934  1.7289 -1.5990
79638SOL    HW250894   7.270   5.405   9.920  0.8946  0.3062  1.7739
79639SOL     OW50895  12.896   7.770  13.095  0.3910 -0.8077 -0.6109
79639SOL    HW150896  12.858   7.854  13.069 -0.7097 -1.0606  0.0695
79639SOL    HW250897  12.981   7.793  13.132  0.7686 -0.1677 -1.8240
79640SOL     OW50898   9.857   0.947   8.709  0.1645  0.0402  0.7826
79640SOL    HW150899   9.869   1.018   8.646  1.7672 -0.3182  0.6454
79640SOL    HW250900   9.768   0.959   8.742 -0.7693  0.1784 -1.6104
79641SOL     OW50901   9.881   2.966  11.674  0.2876 -0.6467  0.3524
79641SOL    HW150902   9.918   2.936  11.591 -2.6372  0.6874 -1.6021
79641SOL    HW250903   9.820   2.896  11.699 -0.0178 -0.3227  0.5224
79642SOL     OW50904  10.344   4.142   2.999 -0.0217 -0.3901 -0.1289
79642SOL    HW150905  10.345   4.234   3.027  2.3277 -0.6309  0.7841
79642SOL    HW250906  10.283   4.099   3.060 -1.3406  0.5619 -0.7245
79643SOL     OW50907   9.604  13.855   5.952 -0.6883  0.0498 -0.1632
79643SOL    HW150908   9.650  13.784   5.998 -1.7424  0.3272  1.4140
79643SOL    HW250909   9.642  13.855   5.864 -0.3101 -2.1230 -0.0623
79644SOL     OW50910   6.436   9.965   6.242 -0.2986  0.0260 -0.2488
79644SOL    HW150911   6.476   9.878   6.244 -0.9985 -0.2985  0.4612
79644SOL    HW250912   6.354   9.952   6.193  0.0284  0.4860 -0.9253
79645SOL     OW50913   8.874   0.269  13.618  0.5751  0.6350 -0.6014
79645SOL    HW150914   8.956   0.276  13.569  1.3749 -0.7646  0.4478
79645SOL    HW250915   8.810   0.237  13.554  1.8403 -2.1829 -0.5912
79646SOL     OW50916  10.656  11.250   9.174  0.2461  0.0336  0.0023
79646SOL    HW150917  10.586  11.185   9.163 -0.9169  1.4222 -1.2822
79646SOL    HW250918  10.722  11.225   9.109  0.3803 -0.5606  0.3579
79647SOL     OW50919   4.065   7.978   7.434  0.2176  0.5415 -0.5970
79647SOL    HW150920   4.089   7.941   7.519 -1.7653 -1.7952 -0.9450
79647SOL    HW250921   4.110   7.922   7.370 -0.7757  0.3056 -1.1079
79648SOL     OW50922  10.246   4.014  10.536 -0.0033 -0.1760 -0.2386
79648SOL    HW150923  10.215   4.074  10.604  0.5350 -2.2385  1.9811
79648SOL    HW250924  10.185   3.941  10.540  1.2634 -1.2790 -0.4972
79649SOL     OW50925   1.719   7.891  12.847 -0.1500 -0.1176  0.0383
79649SOL    HW150926   1.684   7.859  12.763  1.2490 -0.0559 -0.5834
79649SOL    HW250927   1.754   7.812  12.889  1.4794  0.2388 -0.5990
79650SOL     OW50928   3.164  10.446  12.290  0.5228  0.7039 -0.6224
79650SOL    HW150929   3.256  10.446  12.263  0.6081  2.0856 -0.4201
79650SOL    HW250930   3.167  10.446  12.385  0.3305  1.3106 -0.6150
79651SOL     OW50931   0.458   0.235   4.607  0.3442  0.1823 -0.1655
79651SOL    HW150932   0.482   0.146   4.633 -0.7509  0.3200  1.5147
79651SOL    HW250933   0.370   0.227   4.570  0.1356  0.5793  0.2290
79652SOL     OW50934   3.351   9.909   1.658  0.0315 -0.4770 -0.1343
79652SOL    HW150935   3.375   9.876   1.571  0.2451 -1.2629  0.2174
79652SOL    HW250936   3.422   9.969   1.681  0.6063 -1.1931  0.0058
79653SOL     OW50937  13.284   9.590   9.344 -0.1743  0.3101  0.1054
79653SOL    HW150938  13.254   9.660   9.285  0.2145  1.8344  1.6351
79653SOL    HW250939  13.210   9.530   9.350 -1.6248  2.0874  0.9599
79654SOL     OW50940   8.928   9.415   6.465  0.0657 -0.6642 -0.3799
79654SOL    HW150941   8.870   9.366   6.524  1.0699 -2.2807 -0.6843
79654SOL    HW250942   8.889   9.405   6.379 -0.6694  0.5755 -0.2157
79655SOL     OW50943   5.966   0.204  11.613  0.2858  0.3256  0.2568
79655SOL    HW150944   6.030   0.167  11.552 -0.3302 -0.4223  0.0485
79655SOL    HW250945   5.936   0.284  11.571 -0.5952 -0.5060 -0.7426
79656SOL     OW50946  12.264  10.982  12.450  0.0795  0.0750  0.4238
79656SOL    HW150947  12.239  11.040  12.378 -0.1459  0.5337  0.8636
79656SOL    HW250948  12.190  10.986  12.511  1.6635  2.5435  2.4213
79657SOL     OW50949   8.446   8.489   3.765 -0.0483  0.0086  0.3892
79657SOL    HW150950   8.436   8.462   3.673  0.0994  1.5005 -0.1024
79657SOL    HW250951   8.474   8.410   3.810 -0.3746 -0.8280 -0.8084
79658SOL     OW50952   2.875   4.830  10.030  0.0430  0.2680 -0.0806
79658SOL    HW150953   2.877   4.764   9.961 -0.7809  0.2560 -0.1037
79658SOL    HW250954   2.896   4.912   9.985  1.0392  0.0425 -0.0565
79659SOL     OW50955   4.170  12.188   7.407 -0.0880 -0.0299  0.4651
79659SOL    HW150956   4.079  12.186   7.436 -0.5575  1.6403 -0.7206
79659SOL    HW250957   4.216  12.237   7.475 -0.3169  0.1460  0.4948
79660SOL     OW50958  11.353  13.611   9.858 -0.1393 -0.1281 -0.3289
79660SOL    HW150959  11.447  13.608   9.870  0.1283  0.4257 -2.0086
79660SOL    HW250960  11.323  13.678   9.920  0.5197 -0.4979  0.4032
79661SOL     OW50961   8.939   6.432   7.076 -0.3966  0.5491  0.4929
79661SOL    HW150962   8.986   6.416   7.158  0.5805  0.8095  0.0069
79661SOL    HW250963   8.859   6.380   7.084  0.5702 -0.9767  0.8254
79662SOL     OW50964   3.341   7.533   4.927  0.3972  0.0109 -0.5922
79662SOL    HW150965   3.353   7.588   5.004  0.2214 -1.9831  0.9534
79662SOL    HW250966   3.250   7.547   4.902 -0.0416 -0.5026  0.6031
79663SOL     OW50967   2.392   6.753   9.187 -0.0278  0.2555  0.2486
79663SOL    HW150968   2.298   6.732   9.192 -0.3792  0.6020 -2.9367
79663SOL    HW250969   2.434   6.684   9.238 -1.9174 -1.0978  0.1033
79664SOL     OW50970   4.023   0.252   3.907  0.7247  0.2164  0.4487
79664SOL    HW150971   4.080   0.304   3.965 -1.0484 -0.8391  3.3235
79664SOL    HW250972   3.950   0.310   3.888  1.1588  0.4542 -0.5243
79665SOL     OW50973   2.517   5.059   4.346 -0.6354 -0.1358 -0.3398
79665SOL    HW150974   2.573   4.986   4.372 -0.3750  0.0507 -0.3655
79665SOL    HW250975   2.579   5.128   4.321 -0.8016  0.9126  1.8960
79666SOL     OW50976   4.155  10.208   2.883 -0.0963 -0.0040 -0.3768
79666SOL    HW150977   4.078  10.247   2.926 -0.0062 -0.0914 -0.1331
79666SOL    HW250978   4.121  10.129   2.840  0.3400 -1.6733  2.1280
79667SOL     OW50979   0.553   2.231   8.123 -0.1679  0.1258  0.3976
79667SOL    HW150980   0.596   2.315   8.137 -1.7572  0.6672  2.5073
79667SOL    HW250981   0.483   2.249   8.059 -0.6301  0.4680  0.9944
79668SOL     OW50982   7.407  12.252   1.543  0.3577  0.0887 -0.1957
79668SOL    HW150983   7.349  12.192   1.589  0.1793  0.2531 -0.2053
79668SOL    HW250984   7.367  12.263   1.457  1.0936 -0.8120 -0.6745
79669SOL     OW50985   3.077   9.189  11.464  0.0761  0.7463  0.2654
79669SOL    HW150986   3.012   9.196  11.534 -0.1728 -2.3490  0.4685
79669SOL    HW250987   3.042   9.245  11.394 -3.2882 -1.3049  0.1012
79670SOL     OW50988   9.143   9.181   9.377  0.1083 -0.2650  0.1543
79670SOL    HW150989   9.110   9.182   9.287  0.0934  2.2214  0.1337
79670SOL    HW250990   9.083   9.123   9.424 -2.9731  2.2264 -0.3943
79671SOL     OW50991   1.977   8.666  12.437  0.2148 -0.4322 -0.0398
79671SOL    HW150992   1.903   8.622  12.476  0.4819 -1.3375 -0.5276
79671SOL    HW250993   2.048   8.601  12.437  0.3742 -0.3141 -1.5127
79672SOL     OW50994   5.971   2.276  12.410 -0.1597  0.0245 -0.1455
79672SOL    HW150995   6.046   2.276  12.350 -0.2373  1.4878 -0.2759
79672SOL    HW250996   6.010   2.280  12.498 -0.0613 -1.5196 -0.0898
79673SOL     OW50997   5.877  12.012  11.598 -0.5956 -0.6215  0.5709
79673SOL    HW150998   5.877  12.041  11.689 -0.3872 -0.9088  0.6630
79673SOL    HW250999   5.944  12.066  11.555  1.0790 -2.1636  1.1326
79674SOL     OW51000   2.890   9.251  12.157 -0.1462  0.3117  0.0936
79674SOL    HW151001   2.856   9.279  12.071  0.1708 -0.4289 -0.2795
79674SOL    HW251002   2.985   9.253  12.147 -0.1121 -0.2574  0.2671
79675SOL     OW51003  12.802   7.571   3.664 -0.2181  0.3763 -0.2805
79675SOL    HW151004  12.787   7.640   3.599 -0.1020  1.5194  0.8707
79675SOL    HW251005  12.859   7.611   3.729  0.9891 -1.2601 -0.2699
79676SOL     OW51006  10.459   1.160   0.406  0.4087 -0.0570 -0.1797
79676SOL    HW151007  10.523   1.143   0.338  1.2395 -1.7123  0.9493
79676SOL    HW251008  10.507   1.148   0.488 -0.9577  0.2327  0.7019
79677SOL     OW51009   2.870   6.914   9.985  0.0501  0.0926  0.4506
79677SOL    HW151010   2.900   6.925   9.895 -2.1893  0.8454 -0.2859
79677SOL    HW251011   2.949   6.892  10.035  1.8294  2.3460 -1.1841
79678SOL     OW51012   8.453   1.621  10.199  0.5631 -0.5839 -0.2540
79678SOL    HW151013   8.491   1.684  10.139  0.5548 -2.3926 -2.2765
79678SOL    HW251014   8.366   1.656  10.220  1.3207  1.0238  0.2840
79679SOL     OW51015   8.269  13.595   6.994  1.0565  0.1977 -0.2453
79679SOL    HW151016   8.345  13.648   7.017 -0.3765  1.9882  0.7011
79679SOL    HW251017   8.269  13.523   7.057  0.9769  1.2296  0.9827
79680SOL     OW51018   7.369   2.679   1.220 -0.7066  0.8028 -0.3798
79680SOL    HW151019   7.353   2.585   1.230 -1.0667  0.9655  0.6891
79680SOL    HW251020   7.356   2.695   1.127 -1.2054 -0.1073 -0.4858
79681SOL     OW51021   5.757   1.323  13.483 -0.3951  0.1409  0.0526
79681SOL    HW151022   5.727   1.347  13.396  1.8648  0.0045 -0.8149
79681SOL    HW251023   5.707   1.379  13.542 -1.2520  0.9313 -1.3799
79682SOL     OW51024   7.874   0.691   8.984  0.3850 -0.1471 -0.1181
79682SOL    HW151025   7.813   0.717   8.915 -1.5270  0.5132  1.7121
79682SOL    HW251026   7.911   0.609   8.953 -1.3739 -0.5267 -1.3829
79683SOL     OW51027   2.156  11.635  11.771 -0.0490  0.5162  0.6220
79683SOL    HW151028   2.174  11.593  11.686 -0.2334  0.6207  0.5322
79683SOL    HW251029   2.238  11.624  11.820  0.9287  2.4902 -0.4128
79684SOL     OW51030  11.460  11.105   6.459 -0.1767 -0.1642 -0.1334
79684SOL    HW151031  11.367  11.127   6.450 -0.6000 -0.6068  2.4768
79684SOL    HW251032  11.506  11.186   6.440 -1.1923  0.4349 -0.0880
79685SOL     OW51033   8.745   4.384  11.055  0.0383 -0.1042 -0.2013
79685SOL    HW151034   8.778   4.447  10.992 -0.9172  1.2851  0.6374
79685SOL    HW251035   8.734   4.303  11.005 -0.1829  0.8028 -1.6737
79686SOL     OW51036   2.367   6.758  13.567  0.0315 -0.4170  0.3924
79686SOL    HW151037   2.378   6.664  13.556 -0.1808 -0.2785 -1.3140
79686SOL    HW251038   2.279   6.776  13.532  0.4623  0.5254 -0.2588
79687SOL     OW51039   4.234   6.562  13.350 -0.0938 -0.1242  0.0542
79687SOL    HW151040   4.310   6.509  13.327 -1.0698 -0.3634 -3.2017
79687SOL    HW251041   4.178   6.504  13.401  1.0106 -0.5810  0.7709
79688SOL     OW51042   6.033  11.206  12.776  0.0756 -0.0155 -0.4062
79688SOL    HW151043   6.086  11.131  12.751  0.9683  0.2964  0.4795
79688SOL    HW251044   6.069  11.234  12.861  0.3009  1.9079 -1.0770
79689SOL     OW51045  11.176  12.820   0.471  0.3775  0.3692  0.1437
79689SOL    HW151046  11.102  12.770   0.506  0.3346  0.7667  0.6153
79689SOL    HW251047  11.225  12.849   0.548  1.3257 -0.3297 -0.1695
79690SOL     OW51048  10.736   7.431   6.270  0.0326 -0.1941  0.0053
79690SOL    HW151049  10.690   7.500   6.222  0.4209  1.1650  1.4797
79690SOL    HW251050  10.675   7.405   6.339  0.6020  0.0186  0.5970
79691SOL     OW51051   5.647   1.054   2.448 -0.4414 -0.6407  0.6077
79691SOL    HW151052   5.655   0.997   2.525  0.2608 -0.4971  0.6489
79691SOL    HW251053   5.560   1.035   2.413 -0.4660 -1.2695  0.9931
79692SOL     OW51054   5.241  10.069  13.744 -0.4009 -0.3733 -0.4926
79692SOL    HW151055   5.201   9.994  13.788  0.4483 -0.0473  0.9079
79692SOL    HW251056   5.273  10.124  13.815 -0.5244  1.0654 -1.5048
79693SOL     OW51057   4.597   1.535   5.149 -0.0944 -0.1701 -0.0871
79693SOL    HW151058   4.572   1.504   5.236  0.4858  0.9992  0.5194
79693SOL    HW251059   4.536   1.606   5.130  0.1077 -0.0802 -0.4131
79694SOL     OW51060   9.529   6.296   8.445  0.0337  0.5474  0.6995
79694SOL    HW151061   9.554   6.336   8.361 -0.6231  0.2500  0.3493
79694SOL    HW251062   9.433   6.292   8.441  0.0910 -1.7321  0.4065
79695SOL     OW51063  12.108   1.355  11.938  0.4663 -0.0285 -0.5215
79695SOL    HW151064  12.094   1.410  11.861 -1.6538  0.0788 -0.1223
79695SOL    HW251065  12.165   1.407  11.995 -0.9555  1.5172 -0.4421
79696SOL     OW51066   4.812   6.031   3.707 -0.1497 -0.0901 -0.0125
79696SOL    HW151067   4.724   6.002   3.731 -0.7365  0.3761 -1.4546
79696SOL    HW251068   4.808   6.126   3.711  0.7711 -0.0846  1.4035
79697SOL     OW51069   5.201   4.643   6.636 -0.8402 -0.2850 -0.4345
79697SOL    HW151070   5.200   4.703   6.562 -0.8493  1.1709  0.7031
79697SOL    HW251071   5.250   4.567   6.605 -0.6352  0.3905 -1.8436
79698SOL     OW51072  13.636   5.462   9.014  0.2771  0.1669  0.2473
79698SOL    HW151073  13.549   5.498   9.030 -0.3743 -1.0503 -0.3565
79698SOL    HW251074  13.645   5.463   8.918  0.5393 -0.5417  0.2553
79699SOL     OW51075  10.023   2.208  10.808  0.7130 -0.1388 -0.2835
79699SOL    HW151076   9.929   2.223  10.807  0.5626 -0.5916  1.8969
79699SOL    HW251077  10.042   2.168  10.723 -1.1787 -0.7062 -0.4771
79700SOL     OW51078   2.371   7.073   0.737  0.6505  0.1109 -0.6308
79700SOL    HW151079   2.428   7.085   0.813 -1.3275  0.0540  0.9440
79700SOL    HW251080   2.362   7.161   0.699 -0.0384  0.5556  0.5133
79701SOL     OW51081  11.639   2.757   9.534 -0.0356 -0.0666 -0.2196
79701SOL    HW151082  11.591   2.817   9.477  0.9345  1.2513  0.3041
79701SOL    HW251083  11.725   2.749   9.492  0.7378  1.0341  1.0763
79702SOL     OW51084   0.370   7.729   1.450 -0.0153  0.1306 -0.3211
79702SOL    HW151085   0.350   7.667   1.380 -0.5364  1.0793 -1.0256
79702SOL    HW251086   0.444   7.780   1.416  0.7332 -0.4003  0.4548
79703SOL     OW51087   0.675   5.521  10.355  0.9561  0.4165  0.0398
79703SOL    HW151088   0.766   5.500  10.332  0.0897 -0.8961 -2.6245
79703SOL    HW251089   0.667   5.614  10.337  1.7815  0.5818  0.4433
79704SOL     OW51090   2.200  11.116   3.354  0.0963 -0.1612  0.5112
79704SOL    HW151091   2.193  11.136   3.261 -1.1098 -1.2660  0.3431
79704SOL    HW251092   2.260  11.041   3.358 -0.4104 -0.5663  0.5545
79705SOL     OW51093   8.147   3.760  12.864 -0.4345  1.0018 -0.2491
79705SOL    HW151094   8.136   3.711  12.782  0.5150  2.1040 -1.0743
79705SOL    HW251095   8.070   3.817  12.869 -0.0931  1.5243 -0.8182
79706SOL     OW51096  11.382  13.030   8.871 -0.0587 -0.2421 -0.0212
79706SOL    HW151097  11.381  13.022   8.967  0.8257  1.1536  0.1356
79706SOL    HW251098  11.324  13.104   8.853  3.4781  2.7991 -0.0862
79707SOL     OW51099   1.806   6.734   0.353  0.5506 -0.0018  0.3361
79707SOL    HW151100   1.727   6.788   0.345  0.9763  0.4303 -1.6175
79707SOL    HW251101   1.875   6.788   0.315  1.3584 -1.2069  0.0447
79708SOL     OW51102   7.402   0.391   6.286 -0.2044  0.0322  0.4498
79708SOL    HW151103   7.334   0.448   6.250  0.6611  1.0520  0.3903
79708SOL    HW251104   7.470   0.451   6.317  1.7033 -0.9865 -1.4833
79709SOL     OW51105  13.025  10.743   8.124 -0.2841 -0.0312  0.6914
79709SOL    HW151106  13.076  10.783   8.194 -1.2282  0.6529  1.0067
79709SOL    HW251107  12.997  10.817   8.070 -2.4511 -0.1710  1.5434
79710SOL     OW51108  13.760   0.348   6.033 -0.4807 -0.2791 -0.4832
79710SOL    HW151109  13.670   0.339   6.063 -0.0452 -0.0124  0.9894
79710SOL    HW251110  13.805   0.270   6.067  0.5956  1.2452  1.8975
79711SOL     OW51111  10.777   5.615  10.273  0.4047 -0.4864  0.1421
79711SOL    HW151112  10.757   5.539  10.328 -0.1177 -0.0016  0.6325
79711SOL    HW251113  10.691   5.650  10.248  0.6301  0.3802  0.5418
79712SOL     OW51114   8.698  10.782  13.933  0.5641  0.0481  0.2299
79712SOL    HW151115   8.771  10.721  13.927  0.9452  0.5079  0.1053
79712SOL    HW251116   8.739  10.867  13.952  0.0256  0.2157  0.6825
79713SOL     OW51117  11.326   5.770   9.416 -0.3083  0.1004  0.0851
79713SOL    HW151118  11.401   5.773   9.357  0.5452  0.8265  1.1535
79713SOL    HW251119  11.357   5.813   9.496 -2.0729  0.9993  0.3259
79714SOL     OW51120  12.325  10.951   8.189 -0.2512  0.4489  0.3021
79714SOL    HW151121  12.352  11.037   8.156 -0.2340  0.0021 -0.8873
79714SOL    HW251122  12.230  10.949   8.177  0.0152 -0.6321 -2.0467
79715SOL     OW51123  11.744   0.208  10.422 -0.1249  0.0596  0.4314
79715SOL    HW151124  11.721   0.182  10.512 -0.8108  2.1600  0.9181
79715SOL    HW251125  11.762   0.302  10.428  4.5610 -0.5321 -0.7495
79716SOL     OW51126  13.722   9.111   1.778 -0.3589  0.1841  0.6341
79716SOL    HW151127  13.662   9.130   1.705  0.5009 -0.8096 -0.3799
79716SOL    HW251128  13.751   9.197   1.808  0.4670  0.6177 -1.2517
79717SOL     OW51129  13.909  11.214  10.399  0.3135 -0.5929 -0.0635
79717SOL    HW151130  13.962  11.269  10.458 -0.3691  0.3197 -0.2843
79717SOL    HW251131  13.910  11.260  10.316 -0.8362 -0.5530 -0.0673
79718SOL     OW51132  10.916  11.346  10.669  0.5975 -0.6536  0.3950
79718SOL    HW151133  10.843  11.350  10.731  1.4461 -0.7308  1.4522
79718SOL    HW251134  10.875  11.332  10.584 -0.5914 -1.2028  1.0245
79719SOL     OW51135   9.813   1.627   5.163 -0.3925 -0.7931  0.1130
79719SOL    HW151136   9.782   1.539   5.141 -0.1857 -1.5111  2.4777
79719SOL    HW251137   9.734   1.675   5.187 -0.3369 -0.8314  0.3780
79720SOL     OW51138   6.995   3.349  10.875  0.0010  0.1933 -0.1017
79720SOL    HW151139   7.044   3.411  10.929 -0.8819  0.3079  0.5854
79720SOL    HW251140   6.957   3.287  10.937  1.2069 -1.3040 -0.8177
79721SOL     OW51141   3.461  10.701  12.892 -0.0811  0.1636  0.1758
79721SOL    HW151142   3.513  10.661  12.961  0.0191  2.0979  1.3034
79721SOL    HW251143   3.513  10.688  12.812  1.1636  0.3020  0.9326
79722SOL     OW51144   1.511   0.123   5.466 -0.2445 -0.0731  0.4913
79722SOL    HW151145   1.422   0.106   5.496  0.0036 -2.2003  0.1682
79722SOL    HW251146   1.500   0.159   5.377 -0.8047  1.8618  1.2873
79723SOL     OW51147   4.012  10.172   1.971 -0.2353  0.1497 -0.0897
79723SOL    HW151148   4.015  10.205   2.061  0.1517  0.7661 -0.3256
79723SOL    HW251149   4.080  10.104   1.969  2.0242  2.2830 -0.7389
79724SOL     OW51150  13.806   2.624   4.382  0.6225 -0.5045 -0.3259
79724SOL    HW151151  13.858   2.653   4.457  1.5914 -2.6218 -0.1210
79724SOL    HW251152  13.871   2.600   4.315 -0.1986 -0.1002 -1.3010
79725SOL     OW51153  10.685   1.230   3.611 -0.1780 -0.2951 -0.4149
79725SOL    HW151154  10.679   1.139   3.642 -2.6795  0.3638  1.3317
79725SOL    HW251155  10.655   1.283   3.685 -0.1214  1.8834 -1.8610
79726SOL     OW51156  13.851   2.852   0.689  0.4549 -0.3300 -0.3789
79726SOL    HW151157  13.863   2.768   0.646  0.7375 -0.6442  0.3096
79726SOL    HW251158  13.885   2.916   0.626  2.2286 -0.8869 -0.0408
79727SOL     OW51159   4.953   2.009  13.222 -0.5186 -0.2807  0.2784
79727SOL    HW151160   4.982   2.035  13.309 -0.9263 -2.1678  1.0403
79727SOL    HW251161   4.860   2.029  13.220 -0.2600  0.9854 -0.2522
79728SOL     OW51162   1.630  12.027   5.455 -0.2034 -0.3366 -0.0290
79728SOL    HW151163   1.639  11.969   5.531 -4.3790 -2.0891 -0.6154
79728SOL    HW251164   1.684  11.988   5.387 -0.9952 -2.1924  0.3569
79729SOL     OW51165   7.210   0.943   2.653 -0.3343  0.2066 -0.1073
79729SOL    HW151166   7.279   0.985   2.602 -1.4001  0.5262 -1.3384
79729SOL    HW251167   7.232   0.850   2.651  0.1382  0.3175 -0.3393
79730SOL     OW51168   7.052   3.521   5.346 -0.3592 -0.5335  0.0255
79730SOL    HW151169   7.016   3.591   5.291  0.2144  0.5451  0.9803
79730SOL    HW251170   6.976   3.467   5.370 -1.1829  0.9752  0.9748
79731SOL     OW51171   1.745  13.509   0.100 -0.0242 -0.0309  0.3488
79731SOL    HW151172   1.809  13.512   0.028 -0.5523 -0.3103 -0.1420
79731SOL    HW251173   1.759  13.590   0.148 -0.1706  0.5271 -0.5203
79732SOL     OW51174  13.566   9.217   4.749 -0.1825  0.0822  0.5311
79732SOL    HW151175  13.532   9.306   4.756 -0.4801 -0.0630  0.9488
79732SOL    HW251176  13.547   9.191   4.659  0.1112  0.5195  0.3382
79733SOL     OW51177   1.166   2.772   4.380 -0.2561  0.0568 -0.2880
79733SOL    HW151178   1.081   2.794   4.344  0.4219  2.2824 -0.6466
79733SOL    HW251179   1.165   2.806   4.470 -0.0794 -0.8168  0.0638
79734SOL     OW51180   4.991   2.523  10.424 -0.1075  0.0803 -0.0061
79734SOL    HW151181   4.911   2.483  10.459 -0.0083 -0.0507  0.0715
79734SOL    HW251182   5.004   2.479  10.340 -0.7345  0.8873 -0.5425
79735SOL     OW51183   3.138   9.363   9.448  0.0003 -0.3903 -0.2941
79735SOL    HW151184   3.153   9.356   9.353  1.3053  2.1407 -0.3862
79735SOL    HW251185   3.082   9.440   9.457  0.8265  0.0868  1.0279
79736SOL     OW51186   9.539   4.179   6.300  0.1189  0.0251  0.4939
79736SOL    HW151187   9.566   4.090   6.321  0.7059  0.3865  1.3073
79736SOL    HW251188   9.592   4.202   6.224 -1.0318 -0.7956 -0.6094
79737SOL     OW51189  10.353   2.404   1.455  0.7310  0.2553  0.3437
79737SOL    HW151190  10.424   2.468   1.452  0.4991  0.4982 -0.0504
79737SOL    HW251191  10.285   2.442   1.399  0.6211 -0.3711  0.0532
79738SOL     OW51192   0.429   3.524   1.432  0.1002  0.5413  0.3523
79738SOL    HW151193   0.451   3.461   1.363 -0.8688 -0.2675  0.7587
79738SOL    HW251194   0.513   3.543   1.474  0.2111 -1.9165  1.4148
79739SOL     OW51195   5.812  11.344   6.075  0.1897  0.7185  0.2157
79739SOL    HW151196   5.811  11.276   6.142 -0.2094  0.7057  0.1968
79739SOL    HW251197   5.773  11.421   6.117 -0.1058  0.6957 -0.0151
79740SOL     OW51198   7.583   8.886   9.657  0.3362 -0.3339 -0.1275
79740SOL    HW151199   7.597   8.902   9.564 -1.3936 -1.7250 -0.6915
79740SOL    HW251200   7.631   8.804   9.674 -2.3417 -2.1832 -0.7987
79741SOL     OW51201   6.775   7.060   4.870  0.1386 -0.5442 -0.0036
79741SOL    HW151202   6.701   7.114   4.896  1.0676  1.3589 -1.1238
79741SOL    HW251203   6.784   6.996   4.940 -2.3423 -0.6391  0.3059
79742SOL     OW51204   8.196   9.759   1.144 -0.2932  0.1009  0.4663
79742SOL    HW151205   8.256   9.800   1.206  1.0671 -0.1364 -0.6533
79742SOL    HW251206   8.207   9.808   1.063 -1.3539 -0.1872  0.1257
79743SOL     OW51207  10.323   9.754   5.437 -0.2686 -0.4163  0.1854
79743SOL    HW151208  10.364   9.801   5.509  0.7894  0.3368 -0.8824
79743SOL    HW251209  10.387   9.687   5.411 -0.6789 -0.7494 -0.0007
79744SOL     OW51210   4.130  12.800  13.512 -0.0182 -0.2679 -0.0099
79744SOL    HW151211   4.148  12.829  13.423 -2.2405 -1.3764 -0.9056
79744SOL    HW251212   4.173  12.865  13.568  1.6825  0.2830 -1.8599
79745SOL     OW51213   4.306  11.916   3.873 -0.1757 -0.0349 -0.1557
79745SOL    HW151214   4.225  11.962   3.894  0.1913 -0.0635  1.4649
79745SOL    HW251215   4.279  11.826   3.857 -0.3805 -0.2494  1.3071
79746SOL     OW51216  12.357   1.907  12.217 -0.0523 -0.1187  0.1806
79746SOL    HW151217  12.338   1.850  12.142  0.6562 -1.8463  1.2524
79746SOL    HW251218  12.415   1.974  12.182 -0.4885 -0.3406 -1.0147
79747SOL     OW51219   8.007   0.945   3.756  0.0073  0.0576  0.6757
79747SOL    HW151220   8.014   0.891   3.677  0.7325 -0.9456  1.4026
79747SOL    HW251221   7.996   1.034   3.723 -0.1700 -0.3934 -0.5556
79748SOL     OW51222   6.216   8.004   7.128  0.3558 -0.4174 -0.0202
79748SOL    HW151223   6.147   7.964   7.074  0.1493  1.4351 -1.2348
79748SOL    HW251224   6.176   8.013   7.214  0.0944 -1.9259  0.0455
79749SOL     OW51225  10.453   5.869   0.237 -0.2843  0.1924 -0.0437
79749SOL    HW151226  10.434   5.777   0.251  0.2819 -0.0157 -0.5802
79749SOL    HW251227  10.370   5.908   0.211 -0.2928 -0.4000 -0.9412
79750SOL     OW51228  12.554   4.971   4.549  0.2841  0.1162  0.2661
79750SOL    HW151229  12.645   4.948   4.566  0.5720  0.1196 -1.1386
79750SOL    HW251230  12.558   5.061   4.516 -0.0831 -0.2639 -0.8709
79751SOL     OW51231   1.225   1.233   1.191 -1.0161 -0.0310 -0.2238
79751SOL    HW151232   1.258   1.302   1.133 -1.2123 -0.5568 -0.9847
79751SOL    HW251233   1.175   1.279   1.258 -0.1762  0.6472 -0.0511
79752SOL     OW51234  10.481  10.408   4.384  0.0632 -0.5762  0.3881
79752SOL    HW151235  10.495  10.485   4.328 -0.0857 -0.9259 -0.1329
79752SOL    HW251236  10.493  10.333   4.325 -3.5335 -0.9654 -0.0790
79753SOL     OW51237   4.071   4.209  12.312  0.3085 -0.2062  0.3270
79753SOL    HW151238   4.146   4.189  12.368 -0.0688 -1.6968  0.3394
79753SOL    HW251239   4.067   4.305  12.311 -0.0668 -0.0749  3.4107
79754SOL     OW51240   3.452   2.121   0.058  0.2586 -0.2466 -0.6044
79754SOL    HW151241   3.459   2.188   0.126  1.7854  1.6182 -2.4586
79754SOL    HW251242   3.514   2.149  -0.010 -0.3098 -2.6489 -2.2435
79755SOL     OW51243  10.066   9.799   1.157 -0.7983  0.1936 -0.0941
79755SOL    HW151244  10.148   9.846   1.171  0.0055 -1.3829  0.7289
79755SOL    HW251245  10.061   9.737   1.229 -2.0736 -0.6395 -0.8561
79756SOL     OW51246   1.719   2.857   2.929 -0.0214  0.6217 -0.2433
79756SOL    HW151247   1.813   2.866   2.940  0.5719 -0.3957 -3.3414
79756SOL    HW251248   1.708   2.776   2.880 -2.3553  1.4832 -1.3326
79757SOL     OW51249   6.321   7.496   6.546 -0.2820  0.8005  0.6184
79757SOL    HW151250   6.351   7.435   6.613 -1.3917 -1.9118 -1.1710
79757SOL    HW251251   6.240   7.457   6.512  0.4505  1.7472 -2.5535
79758SOL     OW51252  13.300   6.831  12.974 -0.2820 -0.0046  0.1213
79758SOL    HW151253  13.270   6.895  13.038  1.2363  0.9975 -0.1020
79758SOL    HW251254  13.237   6.759  12.980 -1.2872  0.9286  1.3171
79759SOL     OW51255  10.870   5.116   5.015  0.1136  0.0473  0.3822
79759SOL    HW151256  10.951   5.110   4.964  0.5046  1.6135  0.7608
79759SOL    HW251257  10.843   5.208   5.007 -2.0726 -0.5877 -0.3705
79760SOL     OW51258   7.271   4.779   2.288 -0.2481 -0.8093 -0.0599
79760SOL    HW151259   7.267   4.767   2.193 -1.5452  0.2436 -0.1704
79760SOL    HW251260   7.238   4.867   2.303 -0.7419 -1.2064  1.4186
79761SOL     OW51261   1.916  11.377   4.616  0.5652  0.1129 -0.2027
79761SOL    HW151262   1.822  11.372   4.633  0.2666  0.9784 -1.4549
79761SOL    HW251263   1.943  11.461   4.654  0.8442 -0.1621  0.2108
79762SOL     OW51264   8.783  12.809   7.619 -0.1061  0.2469  0.0183
79762SOL    HW151265   8.879  12.802   7.616  0.0140  1.4153  0.6142
79762SOL    HW251266   8.754  12.722   7.648  0.7738 -0.1017 -0.0952
79763SOL     OW51267   6.074  11.528   5.713 -0.1760 -0.5795  0.3798
79763SOL    HW151268   5.987  11.503   5.681 -0.9999  2.2594  0.0792
79763SOL    HW251269   6.135  11.478   5.658 -1.6007 -1.5130 -0.4282
79764SOL     OW51270   5.240   0.046  10.680  0.3644 -0.3763 -0.0099
79764SOL    HW151271   5.151   0.040  10.645  0.1279  1.6773  0.1182
79764SOL    HW251272   5.276  -0.042  10.668 -1.8330 -1.4112  0.4109
79765SOL     OW51273   0.800   0.111   3.286  0.0064 -0.1224  0.0396
79765SOL    HW151274   0.874   0.106   3.225 -1.0102  0.0082 -1.2688
79765SOL    HW251275   0.749   0.186   3.254 -1.0186 -0.5992  0.5246
79766SOL     OW51276   0.977   9.803   7.227 -0.1117 -0.1274 -0.0961
79766SOL    HW151277   0.920   9.838   7.295 -0.7261  2.0512 -1.5979
79766SOL    HW251278   0.926   9.733   7.186 -0.5613 -0.0874  0.3938
79767SOL     OW51279   8.815   7.196   9.988 -0.3247 -0.0036  0.3250
79767SOL    HW151280   8.848   7.144   9.915  0.7343 -0.4326  1.0859
79767SOL    HW251281   8.853   7.283   9.973  0.1237 -0.1650  0.5140
79768SOL     OW51282   8.413   5.932   0.833 -0.0657 -0.7488 -0.1937
79768SOL    HW151283   8.492   5.897   0.790  0.1133  0.9034 -1.3244
79768SOL    HW251284   8.445   6.003   0.888 -0.8457  0.8078 -1.6687
79769SOL     OW51285   9.341  13.448   1.354  0.4475 -0.5933  0.3622
79769SOL    HW151286   9.294  13.365   1.348 -0.6212 -0.0691  1.1637
79769SOL    HW251287   9.351  13.477   1.263 -1.8731 -0.1346  0.2083
79770SOL     OW51288   2.625  12.645   0.265  0.3563 -0.2608  0.3589
79770SOL    HW151289   2.534  12.654   0.295 -0.1626 -1.0256 -0.8783
79770SOL    HW251290   2.648  12.732   0.233 -0.2630 -0.2756 -0.1492
79771SOL     OW51291   9.278  10.017  12.159  0.0472  0.6661 -0.0563
79771SOL    HW151292   9.214   9.982  12.097  1.2561  1.3311 -1.7827
79771SOL    HW251293   9.248  10.107  12.175  0.1524  0.7442 -0.2922
79772SOL     OW51294   5.997   4.370   2.916  0.4358  0.0116 -0.2187
79772SOL    HW151295   5.956   4.410   2.839 -2.1948 -1.9016  0.0483
79772SOL    HW251296   6.022   4.282   2.887  0.1886 -0.4307  0.8641
79773SOL     OW51297   9.182   3.897   2.111 -0.5447 -0.0490 -0.1302
79773SOL    HW151298   9.229   3.948   2.045  1.2262 -0.3705  0.8394
79773SOL    HW251299   9.229   3.914   2.193 -0.8662 -2.0273  0.5077
79774SOL     OW51300   6.057   3.924   3.851  0.3112 -0.0112  0.5078
79774SOL    HW151301   6.049   3.948   3.759 -0.1728  0.5149  0.6847
79774SOL    HW251302   6.086   3.832   3.849 -0.8218 -0.3700 -0.1675
79775SOL     OW51303   3.549   0.753  11.071 -0.1864 -0.3515 -0.2162
79775SOL    HW151304   3.623   0.723  11.019 -0.7155  1.5772 -2.2424
79775SOL    HW251305   3.474   0.748  11.012 -1.0010  1.0989  0.6216
79776SOL     OW51306   6.604   1.669  11.809 -0.5706 -0.1884 -0.5056
79776SOL    HW151307   6.588   1.719  11.889 -2.0874 -0.0958 -0.8233
79776SOL    HW251308   6.632   1.583  11.840 -2.0173 -0.4514  0.2014
79777SOL     OW51309   6.885   3.614  11.833 -0.1895  0.3947 -0.3044
79777SOL    HW151310   6.814   3.555  11.860 -0.4723  0.2068 -1.4244
79777SOL    HW251311   6.855   3.652  11.751  0.9981  0.3149 -0.7973
79778SOL     OW51312   1.640   4.976   5.536  0.4503  0.4628 -0.5043
79778SOL    HW151313   1.727   5.006   5.563  0.8203 -0.4936 -0.6308
79778SOL    HW251314   1.635   4.999   5.443  1.6506 -1.8686 -1.2246
79779SOL     OW51315   0.998   5.258   5.343 -0.2500  0.3770  0.0861
79779SOL    HW151316   1.046   5.331   5.383 -0.0084  0.0753  0.3598
79779SOL    HW251317   0.910   5.263   5.380 -0.0794  0.2109  0.5198
79780SOL     OW51318   3.510   6.300  13.314 -0.1200  0.1844  0.1055
79780SOL    HW151319   3.489   6.340  13.230  1.2669 -0.2453 -0.4852
79780SOL    HW251320   3.466   6.354  13.379 -0.6887  0.9026 -0.8568
79781SOL     OW51321  12.018  12.518   0.228  0.7515 -0.2406 -0.0799
79781SOL    HW151322  11.977  12.545   0.311  1.0242 -0.5823  0.1667
79781SOL    HW251323  11.975  12.573   0.162 -0.9940 -1.4099  0.0037
79782SOL     OW51324   6.008   8.238  13.826  0.7743 -0.1402  0.6840
79782SOL    HW151325   5.928   8.252  13.876  0.2551 -1.0378  0.1322
79782SOL    HW251326   6.035   8.326  13.798 -0.7507  0.0709 -0.2238
79783SOL     OW51327  11.440  11.588  13.321  0.2583  0.1901  0.0404
79783SOL    HW151328  11.378  11.657  13.298 -0.3310 -0.6692 -1.0123
79783SOL    HW251329  11.446  11.592  13.417 -2.2113 -0.3810  0.2844
79784SOL     OW51330  13.486   0.269   4.255  0.4529 -0.1086  0.7804
79784SOL    HW151331  13.556   0.207   4.275 -0.2784 -0.9784  0.6868
79784SOL    HW251332  13.440   0.230   4.180  0.1412  0.6768  0.5510
79785SOL     OW51333  12.615   9.780  11.156 -0.7756 -0.3420  0.1063
79785SOL    HW151334  12.533   9.782  11.205 -1.8394 -0.8160 -1.5828
79785SOL    HW251335  12.590   9.799  11.066  0.8994 -0.9628 -0.5295
79786SOL     OW51336   3.150  13.771   8.065  0.3921 -0.4001  0.0109
79786SOL    HW151337   3.153  13.822   7.984  0.8201 -0.4156  0.0192
79786SOL    HW251338   3.105  13.690   8.041 -0.0602 -0.1352 -0.0617
79787SOL     OW51339   0.890   6.146   2.433  0.2283 -0.0731  0.3351
79787SOL    HW151340   0.824   6.127   2.499  0.0651  0.2292  0.2620
79787SOL    HW251341   0.923   6.233   2.458 -2.2039  1.6343 -1.8652
79788SOL     OW51342   9.193   5.073   0.546 -0.1749  0.2063 -0.5406
79788SOL    HW151343   9.180   5.044   0.636  0.4370 -0.2163 -0.5839
79788SOL    HW251344   9.249   5.150   0.554 -0.6980  0.5913 -0.5179
79789SOL     OW51345  12.659   6.799  11.039  0.1300 -0.2308  0.3070
79789SOL    HW151346  12.678   6.892  11.031 -0.5342 -0.0654  0.5585
79789SOL    HW251347  12.595   6.793  11.109  2.3077 -1.1841  2.3542
79790SOL     OW51348   3.312   5.280   5.997  0.3346  0.7086  0.0625
79790SOL    HW151349   3.239   5.341   5.980 -0.8862 -0.8680 -0.6978
79790SOL    HW251350   3.279   5.221   6.064  0.6435 -0.4169 -0.7362
79791SOL     OW51351   0.301   2.198   3.168 -0.0567 -0.0438 -0.2785
79791SOL    HW151352   0.298   2.294   3.175  0.2899 -0.0050 -0.6438
79791SOL    HW251353   0.394   2.177   3.176 -0.0913 -0.3200 -0.6158
79792SOL     OW51354   2.157  11.200   3.087 -0.4666  0.2542 -0.2774
79792SOL    HW151355   2.075  11.153   3.067 -0.3207  0.1895 -0.7444
79792SOL    HW251356   2.226  11.140   3.059 -0.1867 -0.5504  1.9761
79793SOL     OW51357   9.562   8.223   8.280  0.1356 -0.1655 -0.2372
79793SOL    HW151358   9.610   8.189   8.355 -1.1812 -0.3798  0.5222
79793SOL    HW251359   9.531   8.145   8.234  1.1786 -0.0495 -1.2118
79794SOL     OW51360  10.885   2.874  11.245 -0.1566 -0.0625 -0.5381
79794SOL    HW151361  10.875   2.943  11.178  2.5601 -0.7625 -1.8430
79794SOL    HW251362  10.839   2.799  11.209  0.2033 -0.0506 -1.0440
79795SOL     OW51363  13.759   0.167   1.334 -0.4771 -0.3732 -0.3234
79795SOL    HW151364  13.746   0.109   1.409  0.7460 -0.2813 -0.0264
79795SOL    HW251365  13.670   0.194   1.309 -0.9954 -1.6122  0.1271
79796SOL     OW51366  12.632  12.816  13.005  0.1024  0.4525  0.0116
79796SOL    HW151367  12.547  12.812  13.047 -0.0144 -1.0983 -0.3209
79796SOL    HW251368  12.691  12.847  13.073 -0.0384 -2.1792  1.4622
79797SOL     OW51369   0.566  10.689   4.524  0.4735  0.3749  0.3093
79797SOL    HW151370   0.624  10.615   4.506  1.0893  0.9403 -0.0881
79797SOL    HW251371   0.554  10.732   4.440 -1.3193 -0.2639  0.1938
79798SOL     OW51372   6.427   5.658  13.575 -0.1759 -0.3951  0.1159
79798SOL    HW151373   6.495   5.590  13.583  1.5488  1.1638 -0.6595
79798SOL    HW251374   6.438   5.692  13.486 -2.0408 -0.1104 -0.0376
79799SOL     OW51375   5.763   0.010  10.461 -0.5875 -0.4236 -0.7171
79799SOL    HW151376   5.671  -0.004  10.482 -0.0861 -1.2236  1.2275
79799SOL    HW251377   5.810  -0.023  10.538  1.2678  1.3817 -0.9863
79800SOL     OW51378   0.800   3.491  13.319 -0.8969  0.0719  0.5361
79800SOL    HW151379   0.771   3.536  13.399 -0.9500 -0.8890  1.0711
79800SOL    HW251380   0.895   3.490  13.325 -0.7713  1.8388 -0.4547
79801SOL     OW51381   1.568   1.148  11.458  0.2701 -0.0517  0.4289
79801SOL    HW151382   1.637   1.124  11.520  1.2110 -0.2040 -0.6406
79801SOL    HW251383   1.562   1.074  11.399 -2.4299 -1.0610  1.7915
79802SOL     OW51384  12.998   1.333  12.346  0.1976  0.3566  0.6345
79802SOL    HW151385  12.925   1.348  12.286  1.9449  1.9522 -1.2645
79802SOL    HW251386  13.044   1.258  12.309  0.3984  0.3522  0.8917
79803SOL     OW51387   9.693   4.504   1.675 -0.0925  0.4746  0.1723
79803SOL    HW151388   9.789   4.498   1.682 -0.0040  1.9726  0.4559
79803SOL    HW251389   9.678   4.580   1.620 -1.1349 -0.1942 -0.4976
79804SOL     OW51390   5.432   8.551   5.609 -0.7715  0.5849  0.0143
79804SOL    HW151391   5.380   8.482   5.569 -1.0903  0.5695  0.4564
79804SOL    HW251392   5.391   8.632   5.580  0.4264  0.6479 -1.6498
79805SOL     OW51393  11.240   0.155   1.533 -0.9434  0.3028 -0.9318
79805SOL    HW151394  11.288   0.220   1.482  0.3171 -1.3675 -1.9837
79805SOL    HW251395  11.282   0.155   1.619 -2.6016  2.6088 -0.0341
79806SOL     OW51396   2.104   0.305  13.297  1.3140 -0.4250  0.2507
79806SOL    HW151397   2.011   0.296  13.318  1.2300 -0.9140 -0.2855
79806SOL    HW251398   2.150   0.279  13.377  0.9998 -1.5969  0.0764
79807SOL     OW51399   9.336   5.719   5.685 -0.6755  0.0142 -0.3700
79807SOL    HW151400   9.369   5.667   5.758 -2.7330  0.0973  0.7090
79807SOL    HW251401   9.312   5.655   5.618 -0.9421 -0.2471 -0.0267
79808SOL     OW51402  11.843   1.370   8.273  0.4910 -0.3140  0.2103
79808SOL    HW151403  11.936   1.372   8.250  0.6037 -1.4126  0.5214
79808SOL    HW251404  11.827   1.279   8.301 -0.7824 -0.2700 -0.3107
79809SOL     OW51405   4.688   9.179   1.374  0.3212 -0.5959 -0.1539
79809SOL    HW151406   4.677   9.154   1.283 -0.5330 -0.6586 -0.0454
79809SOL    HW251407   4.604   9.219   1.398  0.5049 -0.6561  0.6205
79810SOL     OW51408   4.826  10.273   6.252 -0.2012  0.8874  0.8451
79810SOL    HW151409   4.737  10.304   6.270 -0.1626  0.7317  1.3246
79810SOL    HW251410   4.829  10.263   6.157 -1.6014 -1.7470  0.9752
79811SOL     OW51411  12.539   5.799   6.682 -0.1604  0.1679 -0.0840
79811SOL    HW151412  12.621   5.848   6.669 -0.2211  0.1534 -0.5202
79811SOL    HW251413  12.470   5.862   6.661 -0.2266 -0.3098 -1.3172
79812SOL     OW51414   9.471   2.226   3.812 -0.2097  0.1621  0.0827
79812SOL    HW151415   9.512   2.312   3.821 -0.2946  0.1094  1.1121
79812SOL    HW251416   9.382   2.238   3.845 -0.2719 -0.2830  0.0851
79813SOL     OW51417   6.113   2.556   6.278  0.4315 -0.0343 -0.3378
79813SOL    HW151418   6.088   2.473   6.238 -0.5952  0.0478  0.0993
79813SOL    HW251419   6.057   2.564   6.355  2.7081 -0.4440  1.4776
79814SOL     OW51420   6.005   0.901   4.194 -0.0999 -0.0879  0.2032
79814SOL    HW151421   5.943   0.828   4.201 -0.7230  0.2911 -1.0559
79814SOL    HW251422   5.955   0.978   4.220 -0.1428  0.1991 -0.6718
79815SOL     OW51423   8.205   7.395   9.677  0.4904 -0.1367 -0.2102
79815SOL    HW151424   8.266   7.324   9.661  0.9027  0.3509 -0.8682
79815SOL    HW251425   8.250   7.454   9.738  0.5727  0.0863 -0.4833
79816SOL     OW51426  10.900   6.255  13.362  0.0122  0.1736  0.1359
79816SOL    HW151427  10.947   6.323  13.314  0.1449  0.1741  0.2647
79816SOL    HW251428  10.951   6.242  13.442 -0.5295  0.5994  0.5596
79817SOL     OW51429   0.896   5.609   6.797 -0.6315 -0.0193  0.5199
79817SOL    HW151430   0.988   5.594   6.777 -0.2656  1.7113  0.7073
79817SOL    HW251431   0.848   5.561   6.730  0.3741 -1.5845  0.8787
79818SOL     OW51432   2.680  12.156  11.542 -0.7156  0.3370 -0.6562
79818SOL    HW151433   2.754  12.121  11.492 -0.0191  0.3843  0.3038
79818SOL    HW251434   2.603  12.114  11.503 -0.2123  0.4467 -1.8086
79819SOL     OW51435   1.774   2.648   2.684 -0.4854 -0.4467 -0.3079
79819SOL    HW151436   1.760   2.554   2.676  0.0086 -0.5372 -0.1585
79819SOL    HW251437   1.739   2.685   2.603 -0.6689 -0.7599 -0.3723
79820SOL     OW51438   0.361  11.934   3.467 -0.4657 -0.0164 -0.4495
79820SOL    HW151439   0.268  11.956   3.458 -0.6680 -1.2031 -1.5150
79820SOL    HW251440   0.397  12.005   3.521 -1.6890  1.2186 -1.1938
79821SOL     OW51441  11.969  10.268  10.455 -0.0234  0.2236 -0.5340
79821SOL    HW151442  11.953  10.280  10.361 -0.3763  1.5051 -0.3303
79821SOL    HW251443  12.041  10.205  10.459 -0.5790 -0.5102 -1.6360
79822SOL     OW51444   0.834   4.162   2.177 -0.0697 -0.4074  0.6395
79822SOL    HW151445   0.739   4.158   2.165  0.1592  0.0166 -1.8198
79822SOL    HW251446   0.847   4.218   2.253 -1.7824  0.0534  0.6184
79823SOL     OW51447  12.035   4.100  12.230 -0.0336 -0.5095 -0.6096
79823SOL    HW151448  11.998   4.086  12.143  0.8106  0.2822 -1.1135
79823SOL    HW251449  12.123   4.133  12.214 -0.1399  0.4148  0.5334
79824SOL     OW51450  12.170   5.728   9.506 -0.0536  0.3186  0.3040
79824SOL    HW151451  12.083   5.765   9.491  0.1874  0.7550 -0.0620
79824SOL    HW251452  12.154   5.638   9.534 -0.5936 -0.0009 -0.9768
79825SOL     OW51453   8.725   7.293   8.497 -0.3059  0.2613 -0.2830
79825SOL    HW151454   8.680   7.282   8.581  1.0268  0.5565  0.4966
79825SOL    HW251455   8.818   7.289   8.519  0.0743 -0.6374 -1.8835
79826SOL     OW51456  13.542   5.556   6.920 -0.2490  0.2827 -0.0757
79826SOL    HW151457  13.603   5.520   6.856 -0.5841 -0.8783  0.2349
79826SOL    HW251458  13.499   5.628   6.875  0.1277  0.0200 -0.8695
79827SOL     OW51459  11.231   3.552   9.366  0.0304  0.0239 -0.0750
79827SOL    HW151460  11.154   3.600   9.336  1.8224  2.2455 -1.4432
79827SOL    HW251461  11.235   3.475   9.308  0.5685  1.5725 -2.2250
79828SOL     OW51462  12.670   3.312   3.510 -0.3249  0.5102  0.5412
79828SOL    HW151463  12.686   3.368   3.434 -3.6132  3.0865  1.5300
79828SOL    HW251464  12.644   3.228   3.473  0.9179  0.7843 -1.0672
79829SOL     OW51465   9.058  10.334  12.873  0.4461 -0.1386 -0.3135
79829SOL    HW151466   9.094  10.422  12.885 -1.2015  0.3437  1.9090
79829SOL    HW251467   9.098  10.283  12.944 -0.1847 -0.6326 -0.3112
79830SOL     OW51468   0.205   3.343  11.845 -0.0244  0.1975 -0.2652
79830SOL    HW151469   0.298   3.337  11.866  0.2233  1.6997 -0.8608
79830SOL    HW251470   0.201   3.389  11.762 -1.2677 -0.8740 -0.8447
79831SOL     OW51471   9.369   2.825   8.607 -0.6369 -0.2144  0.0582
79831SOL    HW151472   9.426   2.871   8.546 -2.4563  2.1315 -0.0044
79831SOL    HW251473   9.340   2.747   8.558 -2.2461  1.7085 -2.3156
79832SOL     OW51474   8.932   8.885  11.782 -0.6182  0.0065 -0.3098
79832SOL    HW151475   9.017   8.857  11.747  0.5159  1.9524  0.6534
79832SOL    HW251476   8.903   8.953  11.721 -0.0526  1.3444  0.8488
79833SOL     OW51477   6.958  13.551  11.151 -0.4769 -0.3002  0.1989
79833SOL    HW151478   6.943  13.486  11.220 -0.7519  0.0303  0.4497
79833SOL    HW251479   6.993  13.500  11.078 -0.0093 -0.6293  0.6403
79834SOL     OW51480  13.761   6.454   9.873  0.3399  0.4687 -0.2465
79834SOL    HW151481  13.693   6.513   9.840 -0.5706  0.5026  1.5995
79834SOL    HW251482  13.768   6.386   9.806 -0.1247  1.4952 -1.3751
79835SOL     OW51483  13.187   1.970   0.376 -0.3561 -0.1960 -0.3832
79835SOL    HW151484  13.130   1.950   0.451 -0.3663  0.1956 -0.2882
79835SOL    HW251485  13.263   1.913   0.388 -0.5620 -0.4596 -0.3161
79836SOL     OW51486   5.440  10.126  13.526 -0.1750 -0.0588 -0.6076
79836SOL    HW151487   5.443  10.221  13.514  0.0165 -0.0906 -0.8106
79836SOL    HW251488   5.391  10.114  13.607  0.7845  0.2512  0.0196
79837SOL     OW51489   7.819   3.474   3.252  0.1859 -0.7397  0.3504
79837SOL    HW151490   7.739   3.458   3.202  1.3032 -3.0227 -0.8322
79837SOL    HW251491   7.871   3.531   3.195  0.0971 -0.5985  0.4077
79838SOL     OW51492   2.030  13.736   8.988 -0.2026 -0.0365  0.0606
79838SOL    HW151493   1.970  13.783   9.046  0.8093  1.4180 -0.0270
79838SOL    HW251494   2.039  13.793   8.911  2.8290  0.8274  0.9289
79839SOL     OW51495   0.412   1.131  10.199  0.0573  0.2987 -0.4749
79839SOL    HW151496   0.487   1.108  10.254 -0.4722 -2.5704 -0.7759
79839SOL    HW251497   0.419   1.073  10.123 -1.8279  0.7581 -1.0649
79840SOL     OW51498  11.163   0.580   1.830  0.6157 -0.8217 -0.1222
79840SOL    HW151499  11.257   0.580   1.810  1.2505  0.6989  2.4070
79840SOL    HW251500  11.128   0.651   1.777  1.3691  0.1501  0.6509
79841SOL     OW51501  10.798  11.961   5.260  0.1674  0.1123  0.1700
79841SOL    HW151502  10.859  12.013   5.207  0.8548  0.5532  1.3398
79841SOL    HW251503  10.733  12.023   5.291 -0.4725 -0.2233 -0.4974
79842SOL     OW51504   4.648   3.550   9.778 -0.3702 -0.1848  0.6474
79842SOL    HW151505   4.652   3.628   9.834  3.7319  1.7935 -1.9072
79842SOL    HW251506   4.711   3.490   9.816 -0.8541 -0.7440  0.5773
79843SOL     OW51507   8.360   6.726  13.562  0.3376  0.0865  0.2411
79843SOL    HW151508   8.373   6.656  13.626 -0.4485  0.6517  1.0415
79843SOL    HW251509   8.275   6.707  13.522 -0.4168  1.1475  1.2493
79844SOL     OW51510  11.855   7.783  12.332 -0.2480 -0.0375 -0.4623
79844SOL    HW151511  11.883   7.846  12.398 -0.9167 -0.3222  0.1102
79844SOL    HW251512  11.852   7.833  12.250  0.2150  0.4147 -0.2089
79845SOL     OW51513  13.020   1.072  10.491 -0.1993  0.8205  0.1173
79845SOL    HW151514  12.968   1.048  10.415 -1.2298 -0.9140  1.2822
79845SOL    HW251515  12.960   1.120  10.548  0.4217  1.6843  0.0596
79846SOL     OW51516   4.354   1.012   9.635 -0.3844 -0.7881 -0.1016
79846SOL    HW151517   4.373   0.918   9.623  1.9333 -0.2664 -0.9907
79846SOL    HW251518   4.295   1.033   9.563  0.0100 -1.3438 -0.6050
79847SOL     OW51519   8.744   6.371   9.745 -0.0721  0.2197 -0.3120
79847SOL    HW151520   8.723   6.351   9.654  0.7148 -0.0099 -0.4533
79847SOL    HW251521   8.771   6.288   9.783  0.8764  0.5387 -0.2440
79848SOL     OW51522   4.403   1.198   1.942 -0.1253  0.0681 -0.4226
79848SOL    HW151523   4.375   1.262   2.007 -1.0341  1.9826 -2.5719
79848SOL    HW251524   4.324   1.148   1.922 -0.1896  0.3933 -1.0064
79849SOL     OW51525   5.346  11.866  11.577  0.5533  0.2224 -0.7705
79849SOL    HW151526   5.294  11.863  11.496  1.3435 -2.0712 -1.2554
79849SOL    HW251527   5.425  11.817  11.556  1.2295  0.4396  1.1246
79850SOL     OW51528  13.280   1.818  10.541 -0.4881  0.3891  0.2833
79850SOL    HW151529  13.206   1.875  10.560 -1.8952 -1.3651  0.3847
79850SOL    HW251530  13.241   1.742  10.498  1.3008 -0.4633  0.0849
79851SOL     OW51531  10.006  11.709   9.001 -0.1930  0.0950 -0.2267
79851SOL    HW151532   9.928  11.654   9.002  0.2151 -0.4807  0.0871
79851SOL    HW251533   9.997  11.762   8.921 -0.5280 -0.5092 -0.5919
79852SOL     OW51534   5.779   6.147  11.974 -0.2426  0.6728 -0.5021
79852SOL    HW151535   5.724   6.130  11.897 -0.0248 -1.4419 -0.2548
79852SOL    HW251536   5.723   6.129  12.049 -0.0919  1.5268 -0.1686
79853SOL     OW51537   3.113   1.946   3.030  0.3033  0.3850 -0.1500
79853SOL    HW151538   3.150   1.875   3.083 -0.5563  0.8329  1.0935
79853SOL    HW251539   3.021   1.920   3.016  0.6813 -0.0964 -2.1136
79854SOL     OW51540   4.070   9.675   7.796 -0.1614 -0.2315  0.1973
79854SOL    HW151541   4.046   9.755   7.749 -0.3633 -0.4461 -0.0694
79854SOL    HW251542   4.000   9.613   7.774 -0.7338 -0.0761  1.4808
79855SOL     OW51543   1.637  11.102   3.032 -0.4778 -0.1640 -0.7081
79855SOL    HW151544   1.618  11.173   2.971 -0.8782  1.8933  1.6435
79855SOL    HW251545   1.558  11.094   3.085  0.5285 -0.5409  0.7878
79856SOL     OW51546   3.096   6.355   9.011 -0.4700 -0.0272  0.0077
79856SOL    HW151547   3.170   6.309   9.051  1.9870  2.1830 -1.6431
79856SOL    HW251548   3.086   6.435   9.064 -0.3644  0.6120 -0.9160
79857SOL     OW51549  12.703  10.597   0.532  0.7624 -0.0045 -0.1280
79857SOL    HW151550  12.696  10.531   0.600  1.2922  0.2323  0.1639
79857SOL    HW251551  12.615  10.634   0.526  0.7009 -0.0494  0.4069
79858SOL     OW51552  12.078   5.585   5.928 -0.0310  0.0543  0.6822
79858SOL    HW151553  12.127   5.667   5.929 -1.0588  0.6904  0.4279
79858SOL    HW251554  12.141   5.520   5.898  1.4544  0.2897  3.0285
79859SOL     OW51555  10.836   2.006   3.123 -0.3155 -0.2009 -0.2514
79859SOL    HW151556  10.886   1.944   3.070  1.5105  1.7356 -0.9376
79859SOL    HW251557  10.746   1.977   3.116  0.3221 -2.0210 -1.5760
79860SOL     OW51558   9.625  13.996  10.814  0.1230 -0.2288  0.0444
79860SOL    HW151559   9.717  13.987  10.840  0.4639  2.2693 -0.0896
79860SOL    HW251560   9.612  13.927  10.749  1.2552 -1.9914  1.5775
79861SOL     OW51561   2.075   3.968  12.088 -0.1667  0.2853 -0.4155
79861SOL    HW151562   2.016   3.913  12.037 -0.4265 -0.4102  0.6233
79861SOL    HW251563   2.140   3.998  12.024 -0.3935 -0.6935 -1.1295
79862SOL     OW51564   3.623   1.603  13.631  0.0588  0.5306  0.0846
79862SOL    HW151565   3.637   1.558  13.714  0.1540  1.5155  0.6205
79862SOL    HW251566   3.689   1.672  13.630  0.9540 -0.2930 -1.4483
79863SOL     OW51567   5.044   0.137  12.696 -0.2318  0.0045  0.7302
79863SOL    HW151568   5.042   0.228  12.664 -0.7918 -0.1630  0.2694
79863SOL    HW251569   5.119   0.134  12.755 -0.8126  1.0571  1.5754
79864SOL     OW51570   4.174  10.610  13.206  0.0533 -0.5016  0.9370
79864SOL    HW151571   4.192  10.520  13.230  0.3439 -0.2028  1.8798
79864SOL    HW251572   4.099  10.635  13.261 -0.1989 -0.2513  0.4887
79865SOL     OW51573   5.897   1.811  11.994 -0.6389  0.3743 -0.4848
79865SOL    HW151574   5.933   1.891  12.033  1.5586 -0.7799  0.0596
79865SOL    HW251575   5.865   1.760  12.068  1.4925 -0.8431 -0.2929
79866SOL     OW51576   5.193  12.213   7.877  0.2309  0.1487 -0.0911
79866SOL    HW151577   5.245  12.253   7.946  0.2779 -0.8460  0.4662
79866SOL    HW251578   5.222  12.122   7.874  1.8033  0.6096 -2.8956
79867SOL     OW51579   5.623  12.049  11.242 -0.0247  0.0187  0.3806
79867SOL    HW151580   5.570  12.117  11.284 -1.7226 -1.7515  1.2759
79867SOL    HW251581   5.577  12.030  11.160  1.6863  1.4245 -1.0080
79868SOL     OW51582   5.309   1.107   4.277  0.2838 -0.1506 -0.2418
79868SOL    HW151583   5.346   1.185   4.318  0.6230  0.0234 -0.8735
79868SOL    HW251584   5.239   1.139   4.221 -1.4454 -0.5499  1.5889
79869SOL     OW51585  13.488  11.063  11.025  0.0362  0.0536 -0.2905
79869SOL    HW151586  13.479  11.159  11.025  3.4097  0.5369 -1.7667
79869SOL    HW251587  13.459  11.037  10.937  1.0347  0.0238 -0.6211
79870SOL     OW51588   5.741  11.498  12.334  0.2534 -0.0108  0.0754
79870SOL    HW151589   5.696  11.450  12.264  0.2054  0.9020 -0.5404
79870SOL    HW251590   5.791  11.431  12.381  0.3934 -0.6177 -0.9150
79871SOL     OW51591  11.893   1.910   9.806 -0.1523  0.0876 -0.1776
79871SOL    HW151592  11.800   1.893   9.825 -0.7368  3.5957  0.8645
79871SOL    HW251593  11.903   1.886   9.714 -1.6004 -1.9141  0.1002
79872SOL     OW51594   3.470  13.148   0.003 -0.2972  0.3688 -0.2615
79872SOL    HW151595   3.545  13.089  -0.007  1.1843  2.1412 -0.1370
79872SOL    HW251596   3.394  13.094  -0.019  0.7864 -2.0709  1.4854
79873SOL     OW51597   9.983   5.395   7.203 -0.2207 -0.2183 -0.0705
79873SOL    HW151598   9.927   5.467   7.172  1.4068  0.8034 -0.8062
79873SOL    HW251599  10.061   5.439   7.237  1.2649 -1.6489 -1.4634
79874SOL     OW51600   2.967   3.993   4.497 -0.0344  0.4177  0.2906
79874SOL    HW151601   2.931   3.904   4.500  0.0400  0.3688 -0.2621
79874SOL    HW251602   3.007   4.005   4.583  0.5097 -0.3189  0.1497
79875SOL     OW51603   1.097   8.697   3.256 -0.1126  0.1899 -0.3226
79875SOL    HW151604   1.005   8.673   3.260 -0.5146  1.5929 -0.4457
79875SOL    HW251605   1.141   8.636   3.315 -1.3873  0.6601  1.1658
79876SOL     OW51606   0.315   2.470  10.834  0.3367  1.1056  0.4442
79876SOL    HW151607   0.383   2.530  10.805 -1.2474  2.2588 -1.1060
79876SOL    HW251608   0.313   2.402  10.765  0.1866  0.8602  0.6889
79877SOL     OW51609   7.903   6.366  12.631 -0.3097  0.8601  0.2326
79877SOL    HW151610   7.885   6.299  12.697  1.7647  0.0086 -0.0096
79877SOL    HW251611   7.977   6.415  12.666  2.2028 -0.8626 -2.2232
79878SOL     OW51612   3.315   4.692   8.458  0.1000 -0.4619 -0.5238
79878SOL    HW151613   3.286   4.765   8.513  1.6167  0.0357 -0.3314
79878SOL    HW251614   3.260   4.697   8.380  1.3041  2.0566 -1.3318
79879SOL     OW51615   0.746  11.486   9.057  0.1806  0.5231 -0.3392
79879SOL    HW151616   0.712  11.434   9.131  0.9011 -0.8464 -0.9322
79879SOL    HW251617   0.831  11.518   9.087  1.6978 -2.1806 -1.3855
79880SOL     OW51618   6.898   5.092   2.001  0.6648  0.6788 -0.1492
79880SOL    HW151619   6.979   5.042   2.008 -0.2040 -1.3519 -2.7591
79880SOL    HW251620   6.857   5.085   2.087  1.7208 -1.0615  0.2521
79881SOL     OW51621  10.733   2.994   5.979 -0.6863  0.1450  0.0924
79881SOL    HW151622  10.680   2.948   5.915 -1.2003  0.7105  0.1044
79881SOL    HW251623  10.676   3.062   6.014  0.3371  1.4350 -0.6392
79882SOL     OW51624   8.623   3.396   1.089 -0.0975 -0.0565 -0.0774
79882SOL    HW151625   8.582   3.390   1.175 -0.0164  2.4333  0.2263
79882SOL    HW251626   8.702   3.343   1.095  0.5682  1.0593  1.8462
79883SOL     OW51627  12.306   9.525  10.889 -0.6659  0.5787 -0.0925
79883SOL    HW151628  12.218   9.490  10.905  0.2170 -1.3353  0.8729
79883SOL    HW251629  12.305   9.611  10.930 -1.3191 -0.4869  2.3114
79884SOL     OW51630   1.416   2.961   9.733 -0.6653  0.0434 -0.5438
79884SOL    HW151631   1.509   2.939   9.723 -0.6256 -0.7958  1.2377
79884SOL    HW251632   1.413   3.056   9.723  0.3150  0.0323 -1.0879
79885SOL     OW51633   9.860  13.033   0.302 -0.5390  0.0648  0.5367
79885SOL    HW151634   9.803  13.102   0.267  0.7924  1.8596  1.7247
79885SOL    HW251635   9.800  12.971   0.343 -1.8087  0.2788 -0.9079
79886SOL     OW51636   4.101   3.556  13.904 -0.6084 -0.4967 -0.0039
79886SOL    HW151637   4.096   3.609  13.824 -0.7805 -0.5637 -0.0370
79886SOL    HW251638   4.184   3.508  13.895 -0.3194 -0.0258  0.1553
79887SOL     OW51639   1.829   3.913   2.671  0.5025  0.0436  0.2897
79887SOL    HW151640   1.877   3.839   2.634  0.2396  0.1886 -0.3412
79887SOL    HW251641   1.745   3.912   2.626  0.7309  1.0992 -0.1802
79888SOL     OW51642  10.342   2.053  10.712  0.3345  0.1836 -0.5789
79888SOL    HW151643  10.390   1.974  10.685 -1.6168 -0.8068 -1.3501
79888SOL    HW251644  10.336   2.045  10.808 -0.1527 -0.8223 -0.6740
79889SOL     OW51645   1.142   0.648   7.607 -0.2816 -0.1441 -0.2283
79889SOL    HW151646   1.125   0.581   7.540  0.0715  1.0368 -1.5488
79889SOL    HW251647   1.204   0.607   7.667  1.6453 -0.2958 -2.2242
79890SOL     OW51648   9.928  10.351   1.010 -0.4673  0.2558  0.0062
79890SOL    HW151649   9.987  10.294   1.059  0.4042  1.3468  0.2348
79890SOL    HW251650   9.974  10.434   1.001 -2.5119  1.6643  1.4839
79891SOL     OW51651   5.592   3.125  10.573  0.6005 -0.3098  0.2393
79891SOL    HW151652   5.634   3.092  10.653  0.7372  1.6527  1.0163
79891SOL    HW251653   5.530   3.191  10.604 -0.1410 -0.2964 -1.2117
79892SOL     OW51654   2.363   4.793   0.975  0.1367 -0.3611 -0.4021
79892SOL    HW151655   2.322   4.744   1.047 -0.3172 -1.2926 -1.2762
79892SOL    HW251656   2.457   4.788   0.993  0.3295 -3.4749 -1.5712
79893SOL     OW51657   9.938   3.414   4.758  0.7284  0.4562  0.4330
79893SOL    HW151658  10.002   3.395   4.689 -0.4793 -0.3450 -0.5125
79893SOL    HW251659   9.950   3.507   4.777  1.1116  0.6847 -0.8388
79894SOL     OW51660   1.894   1.707   7.939 -0.4770  0.4038 -0.1502
79894SOL    HW151661   1.957   1.762   7.987  0.0577  0.8978 -1.3700
79894SOL    HW251662   1.932   1.619   7.943 -0.1005  0.5578 -0.2063
79895SOL     OW51663  11.935   4.357   3.830  0.2811 -0.0315 -0.1415
79895SOL    HW151664  11.910   4.280   3.881  0.1667  0.4061  0.4751
79895SOL    HW251665  11.996   4.324   3.764  0.3397 -0.6230  0.2077
79896SOL     OW51666   0.132  12.202  13.073  0.6510 -0.2889 -0.0583
79896SOL    HW151667   0.106  12.261  13.143 -0.9862 -0.3900 -0.5288
79896SOL    HW251668   0.225  12.220  13.058  0.8624  0.1668  1.6910
79897SOL     OW51669   0.030   1.123   7.651  0.4036 -0.0620  0.1329
79897SOL    HW151670   0.110   1.173   7.636 -1.1224  2.4391 -0.1799
79897SOL    HW251671  -0.017   1.128   7.568 -0.4343 -0.8976  0.5416
79898SOL     OW51672   7.777   3.177   0.051 -0.1010 -0.0753 -0.1679
79898SOL    HW151673   7.684   3.191   0.033 -0.3317  0.4755  1.3129
79898SOL    HW251674   7.821   3.236  -0.010 -0.7197 -0.2177 -0.7736
79899SOL     OW51675   7.995   1.344  11.450 -0.8899  0.3482  0.1908
79899SOL    HW151676   8.009   1.262  11.403 -0.4436 -0.2026  1.2300
79899SOL    HW251677   7.948   1.400  11.388  1.0775  0.2579 -1.4722
79900SOL     OW51678   5.827  11.044   5.333 -0.0554  0.3395 -0.0922
79900SOL    HW151679   5.770  11.040   5.257 -0.8414  0.6726  0.4663
79900SOL    HW251680   5.788  11.111   5.389 -0.4093 -1.0190  1.3453
79901SOL     OW51681   7.417   2.583   1.627 -0.4954 -0.3766 -0.3228
79901SOL    HW151682   7.465   2.502   1.609 -0.8863 -1.0496  1.4902
79901SOL    HW251683   7.328   2.566   1.597 -0.1898  0.0454 -1.5477
79902SOL     OW51684   4.317   0.280   6.143 -0.2155 -0.2733 -0.0496
79902SOL    HW151685   4.391   0.340   6.143 -0.4338  0.0338 -1.4551
79902SOL    HW251686   4.354   0.196   6.171  0.2908  0.2636  0.9502
79903SOL     OW51687   4.920   8.061  10.768 -0.3223 -0.1606  0.0995
79903SOL    HW151688   4.843   8.064  10.826 -0.5603 -0.4892 -0.1966
79903SOL    HW251689   4.970   8.139  10.792 -1.5450  0.9478 -0.7859
79904SOL     OW51690   1.475   4.886   1.628  0.5382 -0.9270 -1.1269
79904SOL    HW151691   1.503   4.910   1.716 -2.4484 -0.6306 -0.1381
79904SOL    HW251692   1.413   4.815   1.641 -2.1916  1.0066 -2.6167
79905SOL     OW51693   4.361  12.151   9.711  0.0550  0.2068  0.0621
79905SOL    HW151694   4.453  12.125   9.715  0.7678  2.6369  1.6012
79905SOL    HW251695   4.316  12.092   9.771  0.8186 -0.1877  0.2540
79906SOL     OW51696  13.538   8.010   4.433  0.6029 -0.0563 -0.2284
79906SOL    HW151697  13.473   7.957   4.388  1.0206 -2.0405  1.3576
79906SOL    HW251698  13.623   7.974   4.406  0.8664 -1.2038  1.9179
79907SOL     OW51699  11.551   6.365   2.045  0.1137 -0.0663  0.0379
79907SOL    HW151700  11.502   6.322   1.975 -0.3838 -0.4512  0.6101
79907SOL    HW251701  11.631   6.314   2.053  1.1960  1.2222 -1.6659
79908SOL     OW51702   0.180   8.829  10.674  0.1339  0.4126  0.3153
79908SOL    HW151703   0.182   8.877  10.757 -1.2854 -0.6322  1.0016
79908SOL    HW251704   0.272   8.817  10.652  0.5603  0.5966  1.8283
79909SOL     OW51705   9.405   3.641   0.984  0.0483 -0.4350 -0.3391
79909SOL    HW151706   9.470   3.578   0.952  1.9464  0.5072  1.3943
79909SOL    HW251707   9.377   3.605   1.068 -1.3495 -0.5790 -0.8526
79910SOL     OW51708   3.707   5.568   2.779 -0.1547 -0.1669  0.0423
79910SOL    HW151709   3.613   5.568   2.796  0.0375 -0.5937  1.2058
79910SOL    HW251710   3.735   5.479   2.799  1.0534  0.8011  3.3365
79911SOL     OW51711   1.459   3.233   6.390 -0.4708  0.0287  0.1325
79911SOL    HW151712   1.365   3.225   6.406 -0.4946 -0.6382 -0.3106
79911SOL    HW251713   1.472   3.194   6.304  0.2067  0.1645  0.1689
79912SOL     OW51714   4.782  13.790   8.138 -0.4638  0.5984 -0.2302
79912SOL    HW151715   4.769  13.758   8.228 -0.8904  0.3094 -0.3922
79912SOL    HW251716   4.839  13.724   8.098 -0.4859  0.5919 -0.2509
79913SOL     OW51717   9.058   2.219   2.012  0.0062  0.0261 -0.4224
79913SOL    HW151718   9.096   2.134   2.033  2.1276  0.8254 -0.7335
79913SOL    HW251719   9.015   2.206   1.927 -3.0446 -1.5920  1.1868
79914SOL     OW51720   4.962   9.582  13.986  0.0652 -0.1114  0.4895
79914SOL    HW151721   4.908   9.659  13.998 -1.7258 -1.3429  0.6901
79914SOL    HW251722   5.011   9.574  14.068  0.2829  0.7831  0.4578
79915SOL     OW51723   1.391  11.195   7.398  0.2467  0.6148 -0.4020
79915SOL    HW151724   1.381  11.272   7.454  0.4573  0.0127  0.4946
79915SOL    HW251725   1.419  11.126   7.458 -0.4010 -0.2842 -1.1078
79916SOL     OW51726   3.215   1.069   9.913 -0.0332 -0.1378  0.9798
79916SOL    HW151727   3.300   1.034   9.938  0.1152 -0.4171  0.1170
79916SOL    HW251728   3.212   1.059   9.818 -0.5330  0.9726  0.8610
79917SOL     OW51729  12.106  11.264   9.502  0.4247  0.1626 -0.3883
79917SOL    HW151730  12.035  11.226   9.555  0.5294 -0.6253 -0.7944
79917SOL    HW251731  12.178  11.276   9.564 -0.1745  1.3252  0.1097
79918SOL     OW51732   2.037   9.740   1.133 -0.4174  0.0467 -0.3658
79918SOL    HW151733   2.111   9.797   1.150 -0.5458  0.4968 -1.2407
79918SOL    HW251734   2.033   9.734   1.037 -1.4719 -0.0140 -0.3302
79919SOL     OW51735   6.760  10.681  12.971 -0.3092  0.3174 -0.0318
79919SOL    HW151736   6.789  10.724  12.891 -3.7793  0.7256 -1.2508
79919SOL    HW251737   6.779  10.744  13.041 -1.4727  2.0945 -1.2234
79920SOL     OW51738   6.686  13.271   1.538  0.2092  0.0277  0.4036
79920SOL    HW151739   6.622  13.259   1.468 -0.1846  3.8217 -0.1018
79920SOL    HW251740   6.744  13.195   1.531 -3.1666 -2.7867 -0.1480
79921SOL     OW51741   7.417   0.328   7.026  0.0314  0.2900  0.0308
79921SOL    HW151742   7.360   0.265   6.983 -1.1778  0.4100  1.3547
79921SOL    HW251743   7.492   0.277   7.056  0.6590  0.1283 -1.7379
79922SOL     OW51744   8.206  13.077   2.151  0.1578  0.0095  0.0169
79922SOL    HW151745   8.260  13.126   2.090  1.1834 -1.4800 -0.3197
79922SOL    HW251746   8.209  13.128   2.232  2.5071 -0.2182  0.1621
79923SOL     OW51747   8.392   4.758  10.142 -0.6331 -0.4025 -0.6655
79923SOL    HW151748   8.427   4.838  10.182  1.1981 -0.9549 -1.0402
79923SOL    HW251749   8.345   4.715  10.213 -0.2521  0.2307 -0.0079
79924SOL     OW51750   8.780  11.039   2.000  0.6900  0.0266  0.1468
79924SOL    HW151751   8.720  11.009   1.932  0.7182  0.8183 -0.2464
79924SOL    HW251752   8.746  11.000   2.080 -0.0243 -0.0033 -0.1556
79925SOL     OW51753  12.948   4.048   5.198  0.4845  0.2267 -0.2373
79925SOL    HW151754  12.955   4.085   5.286 -0.2744 -0.1144 -0.0222
79925SOL    HW251755  13.020   3.985   5.192 -0.2256 -0.6807  0.6136
79926SOL     OW51756   4.783  12.411   6.360  0.1572 -0.4970 -0.6439
79926SOL    HW151757   4.837  12.392   6.436  0.3623 -1.5344 -1.0329
79926SOL    HW251758   4.720  12.477   6.390  0.7622 -0.2889  0.1804
79927SOL     OW51759  13.617  12.610   8.391  0.0965 -0.0776  0.0592
79927SOL    HW151760  13.697  12.662   8.392  0.9301 -1.2611 -1.5071
79927SOL    HW251761  13.624  12.553   8.468  1.0668 -0.6144 -0.4185
79928SOL     OW51762   1.130   4.332   4.361  0.3926 -0.4200  0.4284
79928SOL    HW151763   1.052   4.350   4.415 -0.2493 -0.6160 -0.4075
79928SOL    HW251764   1.177   4.264   4.409  0.5043  0.3072  1.3761
79929SOL     OW51765   8.572   0.637   6.035  0.3712 -0.5920 -0.4169
79929SOL    HW151766   8.623   0.557   6.024  1.2615 -0.0533 -0.3119
79929SOL    HW251767   8.636   0.708   6.030 -0.1931  0.0529  0.8156
79930SOL     OW51768   3.986   3.106  14.021  0.4063  0.3602  0.8286
79930SOL    HW151769   3.900   3.141  13.998  0.4697  1.1888  1.7894
79930SOL    HW251770   3.993   3.120  14.115  0.7118 -1.6750  1.1469
79931SOL     OW51771   2.400   4.475   3.402 -0.4522 -0.3817 -0.3085
79931SOL    HW151772   2.334   4.527   3.357 -0.7299  1.2941  1.8840
79931SOL    HW251773   2.481   4.492   3.354 -0.9330  0.4648 -0.8389
79932SOL     OW51774   8.812   3.213   1.131 -0.4266  0.4442 -0.1189
79932SOL    HW151775   8.796   3.166   1.049 -1.7358  0.6017  0.0251
79932SOL    HW251776   8.859   3.151   1.186  0.0818  0.1869 -0.8340
79933SOL     OW51777  11.374   1.710   1.239  0.1232  0.2465  0.2024
79933SOL    HW151778  11.292   1.684   1.197 -1.2019  0.1086  2.6413
79933SOL    HW251779  11.438   1.715   1.168 -2.2217  1.4384 -1.9784
79934SOL     OW51780   5.874  12.740   2.123  0.1080 -0.0337 -0.9896
79934SOL    HW151781   5.869  12.824   2.077 -0.0464 -0.3236 -1.5034
79934SOL    HW251782   5.953  12.748   2.177 -0.4121  0.7935 -0.3188
79935SOL     OW51783   1.434  10.056   6.727  0.1185  0.1827  0.6100
79935SOL    HW151784   1.493  10.092   6.793 -0.3338  0.0549  1.0884
79935SOL    HW251785   1.349  10.053   6.770  0.0854 -1.1893  0.4956
79936SOL     OW51786   3.907  12.188   9.504 -0.6722  0.0045 -0.3115
79936SOL    HW151787   3.945  12.270   9.472 -1.2523  0.5783  0.4382
79936SOL    HW251788   3.812  12.202   9.500 -0.7744 -0.5189  0.1087
79937SOL     OW51789  12.187  11.866   0.038  0.6869 -0.6353 -0.1011
79937SOL    HW151790  12.224  11.784   0.006  2.3239  0.0267 -0.0065
79937SOL    HW251791  12.231  11.882   0.121 -0.9680 -0.5563  0.8126
79938SOL     OW51792  12.523  12.856  12.776  0.3133 -0.1430  0.5958
79938SOL    HW151793  12.563  12.820  12.855 -0.8337 -1.6524  0.5389
79938SOL    HW251794  12.566  12.809  12.704 -0.9822 -1.2312  0.5037
79939SOL     OW51795  13.832  13.224   6.179  0.3268 -0.1181 -0.4739
79939SOL    HW151796  13.872  13.138   6.190  0.4539  0.1409  1.3115
79939SOL    HW251797  13.854  13.272   6.259 -1.2630  0.9546 -0.6302
79940SOL     OW51798  12.548   5.123   8.425  0.1870 -0.8429 -0.3165
79940SOL    HW151799  12.558   5.148   8.333  0.0822  1.8909  0.3322
79940SOL    HW251800  12.637   5.121   8.459  0.1656 -1.0582 -0.2693
79941SOL     OW51801  10.908   0.713  11.608  0.8894  0.5986 -0.5042
79941SOL    HW151802  10.828   0.680  11.567  1.8424  1.5079 -3.3030
79941SOL    HW251803  10.972   0.642  11.597  1.7976  1.6699 -2.8753
79942SOL     OW51804   2.006   1.747  14.021  0.1322  0.3729 -0.1112
79942SOL    HW151805   1.933   1.733  14.082 -0.3382 -2.9605 -1.1983
79942SOL    HW251806   2.002   1.840  14.000 -2.3577  0.7782  1.6455
79943SOL     OW51807   1.460  13.812   0.692 -0.2163 -0.7082 -0.5864
79943SOL    HW151808   1.510  13.835   0.770 -1.0258  0.8897 -0.4837
79943SOL    HW251809   1.472  13.718   0.682  0.5407 -0.8138  1.0027
79944SOL     OW51810   6.067   4.562   1.380  0.4606  0.3195  0.1135
79944SOL    HW151811   6.048   4.494   1.445  1.5909  2.3058  2.7167
79944SOL    HW251812   6.032   4.642   1.419 -0.4242  1.3921 -2.6347
79945SOL     OW51813  13.146   6.196   6.034  0.5502  0.7140 -0.3206
79945SOL    HW151814  13.055   6.181   6.010  0.3997  1.7558 -0.4372
79945SOL    HW251815  13.188   6.110   6.024 -0.4162  0.2250 -0.2304
79946SOL     OW51816   0.135  12.512   7.682 -0.7405  0.5482  0.3709
79946SOL    HW151817   0.095  12.432   7.717 -1.4276  0.1418 -1.2760
79946SOL    HW251818   0.222  12.485   7.654 -1.2513  0.1536 -0.9090
79947SOL     OW51819   5.238   5.044  10.910  0.3178 -0.3844  0.8661
79947SOL    HW151820   5.222   5.116  10.850 -0.8797 -0.9621  0.4615
79947SOL    HW251821   5.176   5.057  10.982  1.8650  0.4118  2.1274
79948SOL     OW51822   4.800   8.193   5.383 -0.0375  0.6120  0.1667
79948SOL    HW151823   4.758   8.241   5.311  1.8003 -0.5397 -1.7657
79948SOL    HW251824   4.861   8.256   5.421 -0.0082  0.8065 -0.1960
79949SOL     OW51825   6.688   6.030   8.611 -0.3380 -0.1216 -0.2651
79949SOL    HW151826   6.651   6.113   8.583  2.1933  0.1133 -3.4017
79949SOL    HW251827   6.649   6.015   8.697 -2.1822  3.4158 -0.2948
79950SOL     OW51828   2.331  12.778   3.284  0.0118 -0.0741 -0.1735
79950SOL    HW151829   2.286  12.700   3.253 -0.2685 -0.7737  1.8458
79950SOL    HW251830   2.262  12.832   3.322  0.2830  0.9479 -1.0692
79951SOL     OW51831   3.168  11.506   0.939  0.0628 -0.5918  0.3797
79951SOL    HW151832   3.147  11.583   0.886  0.5433 -0.0670  0.9396
79951SOL    HW251833   3.211  11.446   0.877 -0.2329 -0.3800 -0.0393
79952SOL     OW51834  14.026  12.402   1.020 -0.1920  0.0931 -0.3711
79952SOL    HW151835  14.024  12.455   1.100 -0.5851  0.5402 -0.6666
79952SOL    HW251836  14.037  12.312   1.050  1.8391  0.4629  0.0915
79953SOL     OW51837   1.479   2.181   2.256  0.1296  0.1202 -0.0734
79953SOL    HW151838   1.481   2.111   2.322 -0.6335 -0.0207 -0.1901
79953SOL    HW251839   1.391   2.219   2.265  0.7644  1.5478  0.4871
79954SOL     OW51840   6.781   0.725   0.172 -0.2018 -0.7121 -0.2216
79954SOL    HW151841   6.755   0.639   0.205  0.2166 -0.2469  1.4612
79954SOL    HW251842   6.848   0.707   0.107 -0.1462 -1.6522  0.0831
79955SOL     OW51843   6.174   3.236   1.966  0.2776 -0.3549 -0.4208
79955SOL    HW151844   6.140   3.148   1.982  0.3673 -0.2153  0.6265
79955SOL    HW251845   6.266   3.222   1.945  0.6612 -0.4475  1.1462
79956SOL     OW51846   6.387   1.241   5.185  0.2265  0.1559 -0.5036
79956SOL    HW151847   6.466   1.201   5.149  0.3151  0.2904 -0.4581
79956SOL    HW251848   6.348   1.172   5.238 -0.8522 -0.6516 -2.2463
79957SOL     OW51849   7.655   3.965   5.618  0.1577  0.1008  0.1279
79957SOL    HW151850   7.630   3.954   5.710 -1.3775  0.1087 -0.2699
79957SOL    HW251851   7.686   4.055   5.612  0.1369  0.1409  0.6038
79958SOL     OW51852   7.976  10.978   9.913 -0.0352 -0.0667 -0.0609
79958SOL    HW151853   8.066  10.961   9.940 -0.5089 -0.9184  1.0262
79958SOL    HW251854   7.969  11.074   9.911  0.9091  0.0021 -0.2353
79959SOL     OW51855   5.177   0.781   4.643  0.5532  0.0363  0.1602
79959SOL    HW151856   5.178   0.694   4.682 -3.3624  1.0469  3.2342
79959SOL    HW251857   5.100   0.781   4.587  1.7402  0.9574 -1.5409
79960SOL     OW51858  10.594   0.904   4.789 -0.9081  0.2563  0.0846
79960SOL    HW151859  10.669   0.894   4.847 -0.8029  1.6450  0.2236
79960SOL    HW251860  10.627   0.957   4.716 -1.6541  0.5308 -0.0580
79961SOL     OW51861   0.123   5.677   9.037 -0.2041  0.9433 -0.6306
79961SOL    HW151862   0.178   5.609   9.075 -1.0990  0.3903 -0.2928
79961SOL    HW251863   0.068   5.630   8.974 -0.4959  1.4320 -0.7406
79962SOL     OW51864  12.016   7.871   5.601 -0.9407 -0.4206  0.2163
79962SOL    HW151865  11.967   7.794   5.631  0.4487 -1.0711  0.8940
79962SOL    HW251866  11.949   7.929   5.565 -2.1019 -1.6571  0.2951
79963SOL     OW51867   3.254  12.030  11.948 -0.1308  0.5933 -0.1398
79963SOL    HW151868   3.315  11.982  12.003 -0.9554 -0.1371  0.1574
79963SOL    HW251869   3.212  12.092  12.008 -4.2078 -3.0261  1.3153
79964SOL     OW51870  13.435  12.737   8.649  0.0450 -0.4456  0.4229
79964SOL    HW151871  13.502  12.716   8.715 -1.9509  0.5928  2.9306
79964SOL    HW251872  13.470  12.813   8.603  1.7970 -1.6258 -0.3157
79965SOL     OW51873   2.736   6.695   9.262 -0.3665  0.1605  0.0821
79965SOL    HW151874   2.750   6.709   9.168 -1.0841  1.4793  0.1372
79965SOL    HW251875   2.679   6.618   9.267 -1.0755  0.6252 -0.6291
79966SOL     OW51876  13.531   2.089   6.093 -0.0792  0.2016  0.0371
79966SOL    HW151877  13.497   2.177   6.107 -1.5290 -0.4563  0.9351
79966SOL    HW251878  13.625   2.096   6.114 -0.2663  1.4263  0.5478
79967SOL     OW51879   6.282   7.293   7.476  0.1785 -0.0633 -0.1628
79967SOL    HW151880   6.213   7.347   7.516  0.6309 -0.2582  0.9299
79967SOL    HW251881   6.235   7.218   7.440 -0.4731  1.0845 -1.8060
79968SOL     OW51882  13.917  12.265  10.809  0.6691 -0.2177 -0.4770
79968SOL    HW151883  13.834  12.277  10.763  1.0087  0.9026 -0.8371
79968SOL    HW251884  13.956  12.186  10.770 -1.2579 -2.1959  1.3312
79969SOL     OW51885  10.891   6.039   3.543 -0.6340  0.2944 -0.3491
79969SOL    HW151886  10.857   6.022   3.455 -0.6566 -0.3376 -0.2272
79969SOL    HW251887  10.969   5.983   3.549 -0.9397 -0.0837  0.2205
79970SOL     OW51888   0.194  13.105   3.495 -0.0205 -0.0656 -0.0750
79970SOL    HW151889   0.269  13.126   3.550  0.8669 -0.5915 -1.0627
79970SOL    HW251890   0.223  13.126   3.406 -0.9400 -0.5649 -0.5034
79971SOL     OW51891   7.248   3.218   4.908  0.1941 -0.1669 -0.2411
79971SOL    HW151892   7.255   3.249   4.818  2.8545 -2.5471 -0.9948
79971SOL    HW251893   7.199   3.137   4.901 -1.1322  0.5169  0.7665
79972SOL     OW51894   0.621   7.775  12.841  0.2981  0.3230 -0.2303
79972SOL    HW151895   0.655   7.761  12.753 -1.7401  1.4356 -1.2860
79972SOL    HW251896   0.685   7.831  12.883  0.8599  0.5382 -1.3280
79973SOL     OW51897  10.093   2.317  12.441 -0.3716 -0.5856 -0.3463
79973SOL    HW151898  10.103   2.229  12.477  0.9630 -0.5338 -0.5120
79973SOL    HW251899  10.156   2.320  12.369  1.3588  1.2244  1.1102
79974SOL     OW51900   8.037   9.651   6.610 -0.3791  0.2360 -0.0432
79974SOL    HW151901   7.946   9.640   6.637 -0.3428 -0.9960 -0.3628
79974SOL    HW251902   8.034   9.641   6.514  0.0274  0.6838 -0.1046
79975SOL     OW51903   2.863   5.091   2.257 -0.0133  0.2902 -0.3106
79975SOL    HW151904   2.940   5.035   2.259  0.1846  0.5531 -0.5753
79975SOL    HW251905   2.801   5.045   2.201  0.1309  0.3127 -0.4877
79976SOL     OW51906  10.645   7.080   4.616 -0.2929 -0.3073 -0.5985
79976SOL    HW151907  10.680   7.047   4.699  0.4810  1.2233 -0.2807
79976SOL    HW251908  10.721   7.091   4.560 -0.5873  0.4166 -0.8670
79977SOL     OW51909   2.934   9.919  13.721 -0.0220  0.3232 -0.0556
79977SOL    HW151910   2.915   9.992  13.662  3.6517  1.2592 -0.3004
79977SOL    HW251911   2.930   9.957  13.809 -1.7663 -0.1704  0.1214
79978SOL     OW51912   3.393   1.339   4.307  0.3803  0.3295  0.1389
79978SOL    HW151913   3.393   1.250   4.270  1.1473 -0.2709  1.5125
79978SOL    HW251914   3.462   1.385   4.260  0.5766 -0.0642  0.0400
79979SOL     OW51915  14.031   7.253  11.127 -0.3421 -0.0657 -0.5581
79979SOL    HW151916  14.087   7.209  11.063  0.8857 -1.4724  1.3810
79979SOL    HW251917  13.968   7.185  11.154  1.7410 -0.9320  2.6809
79980SOL     OW51918   5.390   2.800  11.002 -0.0490  0.5526  0.1782
79980SOL    HW151919   5.312   2.745  10.999 -0.8052  1.5287  0.9698
79980SOL    HW251920   5.448   2.757  11.065  0.2036 -0.3344 -0.6349
79981SOL     OW51921   9.878   0.363  11.196  0.2372 -0.1117 -0.0640
79981SOL    HW151922   9.831   0.447  11.195 -0.8225 -0.6847  0.1820
79981SOL    HW251923   9.931   0.366  11.276 -0.4222  0.0012  0.3775
79982SOL     OW51924   4.004  11.154   1.311 -0.0148 -0.5289 -0.2651
79982SOL    HW151925   4.016  11.186   1.401 -0.8106 -1.9299  0.3704
79982SOL    HW251926   3.911  11.170   1.293  0.1106 -0.3913 -0.7879
79983SOL     OW51927   3.793   0.572  11.324 -0.1890 -0.2013  0.2559
79983SOL    HW151928   3.849   0.571  11.246 -0.0238  1.7854  0.2954
79983SOL    HW251929   3.849   0.538  11.394  0.1667 -0.5355 -0.1838
79984SOL     OW51930   8.107   5.073   5.771  0.0392 -0.5957  0.1191
79984SOL    HW151931   8.177   5.033   5.823  0.6856  1.0271  0.5521
79984SOL    HW251932   8.148   5.092   5.686 -0.3040 -0.9443 -0.1309
79985SOL     OW51933   5.048   3.932   4.484  0.1999  0.0751 -0.2950
79985SOL    HW151934   5.074   3.882   4.562  1.4045  1.8708  0.5143
79985SOL    HW251935   4.960   3.899   4.464 -0.2092 -0.3773  1.9104
79986SOL     OW51936  13.510   3.308  12.390 -0.4950 -0.0804 -0.4101
79986SOL    HW151937  13.600   3.279  12.401  0.1075  1.9847  0.5737
79986SOL    HW251938  13.457   3.232  12.418  0.9830 -0.2393  2.3391
79987SOL     OW51939   0.381  12.884   1.683  0.9234  0.1138  0.5759
79987SOL    HW151940   0.314  12.930   1.735  0.4009  1.0044 -0.8333
79987SOL    HW251941   0.420  12.952   1.629  0.7245 -0.9389 -0.9571
79988SOL     OW51942  12.029   1.826   4.288  0.0528  0.3626  0.0128
79988SOL    HW151943  12.071   1.770   4.222 -0.1563  0.8908 -0.5718
79988SOL    HW251944  12.032   1.914   4.250  0.7318  0.8276  1.0896
79989SOL     OW51945   6.328   6.335   7.644  0.6882 -0.8896 -0.0744
79989SOL    HW151946   6.419   6.311   7.658  0.9782  0.2406  0.0177
79989SOL    HW251947   6.294   6.356   7.731  1.1376  1.4055 -0.4110
79990SOL     OW51948  10.722   7.849   9.621  0.2575 -0.0914  0.1007
79990SOL    HW151949  10.743   7.767   9.576  1.0732  1.0549 -1.7159
79990SOL    HW251950  10.789   7.910   9.590  0.6430  0.8834  2.6507
79991SOL     OW51951   2.235   8.059   3.126  0.0900 -0.3257 -0.3205
79991SOL    HW151952   2.152   8.091   3.091 -0.2120 -2.0121 -1.2377
79991SOL    HW251953   2.298   8.072   3.055  0.1662 -0.8658 -0.3581
79992SOL     OW51954   8.525  12.686  12.997  0.4004 -0.0783  0.1764
79992SOL    HW151955   8.446  12.694  12.942  1.4301  2.1546 -1.1518
79992SOL    HW251956   8.493  12.651  13.080 -2.4088  2.5257  0.3781
79993SOL     OW51957   9.552   7.163   7.615  0.1563  0.1622 -0.6143
79993SOL    HW151958   9.536   7.094   7.550  1.6142 -0.3655 -0.4458
79993SOL    HW251959   9.585   7.116   7.692 -1.3042  0.7984  0.4530
79994SOL     OW51960   3.593  11.959   3.004 -0.2492  0.4091 -0.1744
79994SOL    HW151961   3.567  12.016   2.932  2.4035  0.8820 -0.8871
79994SOL    HW251962   3.581  12.013   3.083 -1.9380  0.3493 -0.3663
79995SOL     OW51963  11.084   2.040   8.461  0.1643 -0.3092 -0.0107
79995SOL    HW151964  11.156   2.049   8.398 -0.1540  0.1798 -0.3107
79995SOL    HW251965  11.108   2.098   8.533  0.5025 -0.8272  0.3011
79996SOL     OW51966  12.391   7.436   4.267 -0.0673 -0.2200  0.7586
79996SOL    HW151967  12.310   7.478   4.296  0.0030  0.5844 -0.1818
79996SOL    HW251968  12.424   7.492   4.198  2.1475  0.3246  2.1817
79997SOL     OW51969   0.155   8.974  10.902  0.4491  0.0209  0.5187
79997SOL    HW151970   0.199   8.956  10.985 -0.0435 -0.3635  0.6984
79997SOL    HW251971   0.063   8.989  10.926  0.2410 -0.4321  0.0087
79998SOL     OW51972   0.587  10.857   5.016  0.2955 -0.3524  0.3215
79998SOL    HW151973   0.584  10.773   4.970 -1.2010 -0.0678 -0.1667
79998SOL    HW251974   0.679  10.870   5.037  0.6560 -1.7327 -0.3033
79999SOL     OW51975   0.132   3.963   5.348 -0.0443  0.5008 -0.5948
79999SOL    HW151976   0.142   3.924   5.436 -1.3650 -2.2446 -1.5431
79999SOL    HW251977   0.185   3.907   5.292  0.9579  2.3626 -1.5739
80000SOL     OW51978   9.129   6.066   4.373  0.0140  0.2099  0.1897
80000SOL    HW151979   9.173   6.064   4.288  2.4946  1.2745  1.3433
80000SOL    HW251980   9.177   6.003   4.426 -1.6706 -0.6265  0.7727
80001SOL     OW51981   2.039   8.211   6.764 -0.0127 -0.7845 -0.2054
80001SOL    HW151982   1.972   8.197   6.697 -0.8056  2.0998 -0.1278
80001SOL    HW251983   1.990   8.235   6.842  1.0026  2.3902 -0.4064
80002SOL     OW51984   4.021  10.460   1.375 -0.8855 -0.1084 -0.1160
80002SOL    HW151985   4.071  10.384   1.404 -0.9098 -0.5419 -1.1704
80002SOL    HW251986   4.088  10.528   1.362 -0.6970 -0.3394 -0.3877
80003SOL     OW51987   0.808   8.318  11.105  0.0409 -0.4273 -0.5633
80003SOL    HW151988   0.834   8.371  11.181 -1.7055 -1.0074  0.4963
80003SOL    HW251989   0.850   8.233  11.120 -2.0362 -1.2621  0.9780
80004SOL     OW51990  12.281   9.825  12.796 -0.1413  0.1920  0.3124
80004SOL    HW151991  12.294   9.736  12.764 -1.0011  0.0645  0.2923
80004SOL    HW251992  12.269   9.878  12.716  0.7958  0.4059  0.3053
80005SOL     OW51993   2.646   7.556  10.076 -0.0304 -0.3591  0.0688
80005SOL    HW151994   2.716   7.588  10.132  0.5152 -0.3667 -0.5991
80005SOL    HW251995   2.629   7.629  10.016  0.0726 -0.7092 -0.3902
80006SOL     OW51996   7.939   1.045  12.470 -0.0701  0.1603 -0.0473
80006SOL    HW151997   7.928   0.951  12.451 -2.0030  0.4786 -0.7061
80006SOL    HW251998   7.947   1.049  12.565 -2.7939 -0.5162  0.2968
80007SOL     OW51999   5.213   3.722   5.139 -0.1152  0.5015 -0.5377
80007SOL    HW152000   5.122   3.740   5.117  0.5354  3.1220 -1.5255
80007SOL    HW252001   5.230   3.777   5.216  0.2439 -1.2153  0.6605
80008SOL     OW52002  13.861   7.824   1.580  0.6754 -0.4072 -0.0151
80008SOL    HW152003  13.885   7.819   1.673  1.5914  3.2227  0.0847
80008SOL    HW252004  13.765   7.827   1.580  0.6911  1.5483  1.0539
80009SOL     OW52005  13.365   3.943   8.308 -0.1598  0.4621  0.7855
80009SOL    HW152006  13.414   3.860   8.312  1.2571  1.0479 -1.8718
80009SOL    HW252007  13.279   3.917   8.276  0.3163 -0.0068 -0.1669
80010SOL     OW52008   0.954   4.728   1.254 -0.5707  0.4155  0.3163
80010SOL    HW152009   0.994   4.641   1.255 -2.3555 -0.4658  2.1236
80010SOL    HW252010   0.956   4.757   1.346  1.1013  2.8952 -0.3764
80011SOL     OW52011   9.649   9.720   1.072 -0.2013 -0.5538 -0.3311
80011SOL    HW152012   9.733   9.693   1.035  0.3204  0.4773  0.0682
80011SOL    HW252013   9.631   9.805   1.031  0.5107  0.7533  1.9034
80012SOL     OW52014   6.470   6.077  10.245 -0.0597  0.0625 -0.3323
80012SOL    HW152015   6.461   5.984  10.265 -0.3296 -0.0178 -0.8244
80012SOL    HW252016   6.406   6.119  10.303  1.8448  0.2103  1.8244
80013SOL     OW52017   5.365  12.050   1.612 -0.3585  0.9643  0.8807
80013SOL    HW152018   5.334  12.093   1.533 -1.9015  1.4444  1.7249
80013SOL    HW252019   5.287  12.014   1.653  0.5492 -0.2277  1.6426
80014SOL     OW52020   2.060   4.812   5.720 -0.0777 -0.4631  0.1829
80014SOL    HW152021   1.992   4.761   5.675  0.0354 -0.2859 -0.1892
80014SOL    HW252022   2.034   4.809   5.813 -1.7329  1.2823 -0.1513
80015SOL     OW52023   3.100  11.304   7.412  0.0224  0.0361 -0.3035
80015SOL    HW152024   3.166  11.374   7.410  0.2334 -0.1626 -1.7391
80015SOL    HW252025   3.133  11.239   7.351 -2.2432  0.6593 -2.3575
80016SOL     OW52026   3.783   2.717   5.647  0.4729 -0.3771 -0.1659
80016SOL    HW152027   3.735   2.653   5.595 -0.1407 -0.5301  0.5827
80016SOL    HW252028   3.735   2.724   5.729  0.8201  0.6667 -0.0284
80017SOL     OW52029   1.720  13.939  12.361  0.0861  0.3188  0.6090
80017SOL    HW152030   1.656  13.903  12.299  1.2058 -2.7086  1.0346
80017SOL    HW252031   1.735  14.028  12.330 -4.5371  1.4236  0.7198
80018SOL     OW52032   0.183  13.556   1.972  0.1293 -0.9201 -0.3480
80018SOL    HW152033   0.234  13.492   1.922 -1.5585 -0.4130 -2.9101
80018SOL    HW252034   0.124  13.503   2.026  0.6030 -1.4964 -0.3885
80019SOL     OW52035   7.751   9.559   1.873  0.0997  0.6327 -0.0064
80019SOL    HW152036   7.670   9.547   1.922  0.3520 -0.1785  0.2423
80019SOL    HW252037   7.731   9.531   1.784  0.4803 -1.0873  0.3985
80020SOL     OW52038  12.992   3.441   1.047  0.3657  0.6609  0.1839
80020SOL    HW152039  12.940   3.361   1.051 -0.3198  1.1116  0.4586
80020SOL    HW252040  13.008   3.455   0.953  0.9852 -0.1024  0.1653
80021SOL     OW52041   0.601   0.072   4.264 -0.7040  0.7759  0.0776
80021SOL    HW152042   0.663   0.026   4.320 -0.5772 -0.1904 -0.8179
80021SOL    HW252043   0.643   0.156   4.245 -0.4144  0.7969  0.8094
80022SOL     OW52044   8.166  13.701  10.535  0.1686  0.0326  0.1926
80022SOL    HW152045   8.225  13.758  10.488 -1.7715 -0.2636 -2.8477
80022SOL    HW252046   8.196  13.612  10.514 -2.1058 -0.1676 -2.6885
80023SOL     OW52047   2.413  12.924  12.389 -0.5337  0.4022  0.3683
80023SOL    HW152048   2.349  12.991  12.369 -0.4438  0.7928  1.3383
80023SOL    HW252049   2.362  12.844  12.400 -0.8329  0.6534  0.8469
80024SOL     OW52050   0.732   5.353   7.882 -0.5664 -0.3677 -0.1355
80024SOL    HW152051   0.749   5.320   7.794  0.4303 -0.4295  0.0642
80024SOL    HW252052   0.696   5.441   7.869 -0.1319 -0.2538 -0.6070
80025SOL     OW52053  12.333   8.957   6.967 -0.1212  0.3364  0.1926
80025SOL    HW152054  12.360   9.048   6.962 -1.2503  0.6105 -1.9712
80025SOL    HW252055  12.414   8.908   6.977  0.5953  1.4894  0.1894
80026SOL     OW52056   3.549   1.403   6.656 -0.2545  0.2172  0.7591
80026SOL    HW152057   3.520   1.316   6.685  1.7964 -0.0507  2.2372
80026SOL    HW252058   3.472   1.458   6.663 -1.5138 -1.3910  0.1474
80027SOL     OW52059  12.255   1.548   2.011  0.6694  0.1833  0.0504
80027SOL    HW152060  12.180   1.489   1.999  0.6725 -0.2348  1.8755
80027SOL    HW252061  12.257   1.600   1.930 -0.8779 -0.5771 -0.5205
80028SOL     OW52062   3.432   6.791  14.004 -0.1590 -0.1714  0.0467
80028SOL    HW152063   3.485   6.750  13.936 -0.9984 -0.0240 -0.7203
80028SOL    HW252064   3.348   6.745  13.999 -0.8555  1.0824 -0.2936
80029SOL     OW52065   4.742  13.920  13.348  0.1606  0.3101 -0.1928
80029SOL    HW152066   4.772  13.832  13.327 -1.6309 -0.0295 -1.5344
80029SOL    HW252067   4.819  13.976  13.335  1.8529 -1.1873  2.4264
80030SOL     OW52068   9.650   0.077  12.033  0.8630 -0.0735  0.1883
80030SOL    HW152069   9.732   0.094  11.987  0.6442 -0.5159 -0.3704
80030SOL    HW252070   9.668  -0.002  12.085  1.0817  0.3744  0.8155
80031SOL     OW52071   3.991   8.349   1.652 -0.8105 -1.2793  0.6881
80031SOL    HW152072   4.062   8.287   1.669  0.8048  0.0413 -0.8124
80031SOL    HW252073   3.982   8.349   1.557 -0.3077  1.2033  0.5793
80032SOL     OW52074  11.624   2.256   9.507 -0.6627 -0.1861  0.1141
80032SOL    HW152075  11.616   2.177   9.453 -2.7474 -1.0412  1.5228
80032SOL    HW252076  11.558   2.316   9.473  1.0981  1.1342 -1.1232
80033SOL     OW52077   7.981   1.194  10.865  0.2049  0.7926  0.2679
80033SOL    HW152078   7.908   1.244  10.828 -1.6174 -0.3097  2.2022
80033SOL    HW252079   8.022   1.255  10.927 -0.9094  0.5183  1.3104
80034SOL     OW52080  12.565   1.792   7.892  0.2086  0.3553  0.3467
80034SOL    HW152081  12.525   1.719   7.846 -2.9133  1.7324  0.6430
80034SOL    HW252082  12.603   1.846   7.823  0.9529 -0.5958 -0.0162
80035SOL     OW52083   4.342  12.016   2.295 -0.0133  0.2306  0.0855
80035SOL    HW152084   4.384  11.962   2.227 -2.3063  0.3765 -1.5440
80035SOL    HW252085   4.356  11.967   2.376  2.1163 -0.3532 -0.5689
80036SOL     OW52086  12.642   5.320  12.774  0.3293  0.2064  0.5837
80036SOL    HW152087  12.720   5.320  12.830  1.3556  1.1365 -0.7867
80036SOL    HW252088  12.617   5.412  12.768  0.2373  0.1231 -0.4678
80037SOL     OW52089   1.740   0.460   4.949 -0.9350 -0.0934  0.0741
80037SOL    HW152090   1.815   0.443   4.892 -0.5892 -1.3975  0.8631
80037SOL    HW252091   1.751   0.551   4.976 -0.1587  0.0156 -0.5721
80038SOL     OW52092   8.085   9.112  10.496 -0.1320 -0.7073  0.5905
80038SOL    HW152093   8.160   9.080  10.447  0.3010 -0.5487  1.1323
80038SOL    HW252094   8.122   9.145  10.578 -0.4789  1.4479 -0.0387
80039SOL     OW52095   1.685   4.780   3.146 -0.0711 -0.4268 -0.1589
80039SOL    HW152096   1.692   4.700   3.094  1.9551  0.8157 -1.9320
80039SOL    HW252097   1.762   4.779   3.202 -0.8371 -0.4237  0.9271
80040SOL     OW52098   4.777   8.473   8.655  0.7685  0.1124  0.1796
80040SOL    HW152099   4.828   8.492   8.576  1.2761 -3.9182 -0.6686
80040SOL    HW252100   4.694   8.437   8.622 -0.5222  1.6403  1.5760
80041SOL     OW52101   4.685   0.256   6.594 -0.0957  0.3922 -0.2840
80041SOL    HW152102   4.722   0.191   6.534 -1.5532 -0.3683 -0.3915
80041SOL    HW252103   4.664   0.206   6.674  0.4178  1.0939  0.3021
80042SOL     OW52104   1.999  10.589   7.573 -0.0434 -0.1022  0.1369
80042SOL    HW152105   2.060  10.530   7.530 -0.9663 -0.6580 -0.4485
80042SOL    HW252106   1.927  10.532   7.602 -0.3605  0.5529  0.6760
80043SOL     OW52107  12.470   7.891   1.411  0.3937 -0.2919 -0.2325
80043SOL    HW152108  12.540   7.870   1.472 -1.0503  2.3936  2.6358
80043SOL    HW252109  12.397   7.836   1.438  0.1547 -0.0527 -0.3808
80044SOL     OW52110   1.596   2.297   4.338 -0.0914 -0.2792  0.0837
80044SOL    HW152111   1.669   2.353   4.311 -0.6302 -0.8333 -2.8227
80044SOL    HW252112   1.623   2.209   4.311 -0.7228 -0.9324  1.4734
80045SOL     OW52113  13.724   5.258   7.340 -0.0705 -0.1432  0.0738
80045SOL    HW152114  13.681   5.305   7.413  0.3750  1.0845 -0.4311
80045SOL    HW252115  13.757   5.178   7.380 -0.3110  0.2518  1.1071
80046SOL     OW52116  13.660   1.804   1.268  0.6321  0.0680 -0.1191
80046SOL    HW152117  13.753   1.818   1.284  0.2140  1.0488  1.7659
80046SOL    HW252118  13.652   1.710   1.249  1.7293 -0.6010  2.2961
80047SOL     OW52119   6.356   7.760  12.302  0.4749  0.3952 -0.0623
80047SOL    HW152120   6.293   7.813  12.253 -0.1386 -0.7644 -0.5801
80047SOL    HW252121   6.338   7.780  12.394 -0.7902 -0.0318 -0.1974
80048SOL     OW52122   1.059   6.777   5.325 -0.6337  0.2421 -0.0547
80048SOL    HW152123   1.070   6.727   5.406  0.0813 -0.1340 -0.3698
80048SOL    HW252124   0.966   6.769   5.304 -0.7225 -0.1044  0.4426
80049SOL     OW52125   2.614   7.593  11.066  0.3487  0.4999  0.9882
80049SOL    HW152126   2.574   7.585  10.980 -0.2515 -0.1473  1.3087
80049SOL    HW252127   2.556   7.652  11.114 -0.1926 -0.3599  1.4225
80050SOL     OW52128   7.865   0.154  12.593  0.0058  0.1612 -0.2062
80050SOL    HW152129   7.949   0.166  12.636  0.2896  0.6791 -0.8900
80050SOL    HW252130   7.834   0.068  12.623  0.9578 -0.2061 -0.2572
80051SOL     OW52131  13.546  10.323  10.680  0.1918  0.2749 -0.7670
80051SOL    HW152132  13.473  10.345  10.623  0.1823 -0.8251 -1.1941
80051SOL    HW252133  13.623  10.359  10.635 -0.0212  1.0570 -0.5251
80052SOL     OW52134   8.746  12.808   8.579  0.3909  0.0348  0.2864
80052SOL    HW152135   8.683  12.880   8.574  0.4038  0.0123 -0.1929
80052SOL    HW252136   8.707  12.738   8.526 -1.3055 -1.6137  3.3709
80053SOL     OW52137  12.778   0.544   9.448 -0.0657 -0.2363 -0.2985
80053SOL    HW152138  12.779   0.449   9.460  1.3974 -0.3204 -0.8444
80053SOL    HW252139  12.820   0.578   9.527  0.5091 -0.1398 -0.6372
80054SOL     OW52140   9.737  12.994   8.376 -0.3234  0.1012  0.6609
80054SOL    HW152141   9.799  13.062   8.352  0.0916 -0.7596 -0.7927
80054SOL    HW252142   9.695  13.028   8.455 -0.5857  2.3191 -0.3510
80055SOL     OW52143   3.172   3.356  12.543  0.5643  0.2091  0.1560
80055SOL    HW152144   3.200   3.404  12.621  0.0699  0.1862  0.3515
80055SOL    HW252145   3.078   3.341  12.557  0.4806  0.1814 -0.4292
80056SOL     OW52146   5.444   8.389   8.144  0.6121 -0.0975  0.1648
80056SOL    HW152147   5.349   8.402   8.145  0.6719  0.3668  0.3275
80056SOL    HW252148   5.465   8.366   8.235  0.7603  0.6734  0.3369
80057SOL     OW52149   0.192   1.644  12.846  0.0826 -0.2098  0.2858
80057SOL    HW152150   0.221   1.563  12.889  0.6441 -0.5445 -0.7002
80057SOL    HW252151   0.139   1.688  12.913  1.3268 -0.4736  1.4842
80058SOL     OW52152   7.487   7.160   0.853 -0.3002 -0.1806 -0.3425
80058SOL    HW152153   7.545   7.122   0.787 -1.0047  1.0103 -1.7299
80058SOL    HW252154   7.417   7.097   0.863  1.4694 -1.9663  1.8656
80059SOL     OW52155   5.673   4.292   6.274 -0.2162 -0.4991 -0.2326
80059SOL    HW152156   5.628   4.292   6.190 -0.7391 -1.3769  0.0365
80059SOL    HW252157   5.653   4.377   6.313  2.4221  1.1961 -2.2152
80060SOL     OW52158   9.487  10.784   7.165  0.0608  0.1780  0.0185
80060SOL    HW152159   9.461  10.857   7.221  1.0200 -0.6365  1.5824
80060SOL    HW252160   9.446  10.707   7.204  1.1144 -0.4776 -0.1300
80061SOL     OW52161  10.438   3.673   8.917 -0.2255 -0.2976 -0.3863
80061SOL    HW152162  10.398   3.653   9.002 -0.2317 -0.0625 -0.3334
80061SOL    HW252163  10.506   3.738   8.937  1.7626 -2.3280 -0.1214
80062SOL     OW52164   5.074   5.316   0.780 -0.1830 -0.1312  0.1684
80062SOL    HW152165   5.039   5.318   0.690  1.2777  1.9515 -0.4278
80062SOL    HW252166   5.149   5.257   0.775  0.2457  0.4259 -0.1537
80063SOL     OW52167   0.922  13.396   0.262  0.3823 -0.7089  0.0011
80063SOL    HW152168   0.963  13.472   0.222 -0.0179 -0.9634 -0.9228
80063SOL    HW252169   0.995  13.339   0.286  0.6795 -0.0582  0.6588
80064SOL     OW52170   4.008   8.306   0.694  0.3679 -0.3006 -0.0940
80064SOL    HW152171   4.095   8.345   0.692  0.5930 -0.8183 -1.3022
80064SOL    HW252172   3.960   8.351   0.624 -0.2234 -0.2832  0.3123
80065SOL     OW52173   5.707   0.405   8.195 -0.0372 -0.4148  0.3498
80065SOL    HW152174   5.702   0.322   8.240  0.3996 -0.0143  1.1572
80065SOL    HW252175   5.681   0.470   8.260  1.9549  0.3088  0.5011
80066SOL     OW52176   9.881   0.926   9.010  0.1424 -0.2227 -0.0432
80066SOL    HW152177   9.964   0.879   9.000 -0.9304 -1.9337 -1.5374
80066SOL    HW252178   9.857   0.950   8.921 -1.5640 -0.8753  0.2067
80067SOL     OW52179  10.476   0.437   4.266 -0.2378 -0.3292  0.1319
80067SOL    HW152180  10.401   0.446   4.325  0.5441 -2.6699  1.5880
80067SOL    HW252181  10.549   0.477   4.313 -0.0353 -0.2903 -0.2080
80068SOL     OW52182   4.291   3.002   7.043 -0.0464 -0.3322 -0.5231
80068SOL    HW152183   4.239   2.958   6.975 -0.1039  0.5096 -1.0394
80068SOL    HW252184   4.289   3.095   7.018 -2.1754  0.4260  1.9499
80069SOL     OW52185  13.503   5.656   9.418 -0.0524  0.1147 -0.3945
80069SOL    HW152186  13.511   5.560   9.424  4.6791  0.3710  1.7805
80069SOL    HW252187  13.556   5.679   9.342 -0.1045  1.0578 -0.1510
80070SOL     OW52188   0.804   6.671  11.119 -0.8052 -0.2617  0.0434
80070SOL    HW152189   0.709   6.660  11.124 -0.8037 -0.3510 -0.1369
80070SOL    HW252190   0.837   6.585  11.092 -0.7627  0.0617 -0.9735
80071SOL     OW52191   6.188   1.473  11.317  0.0250 -0.4686  0.3640
80071SOL    HW152192   6.140   1.556  11.317  0.4883 -0.1825  1.7276
80071SOL    HW252193   6.279   1.499  11.302  0.0446 -0.8353 -0.1857
80072SOL     OW52194   2.522  11.553   3.833  0.1410  0.1922  0.2508
80072SOL    HW152195   2.458  11.590   3.894  0.7082 -0.0427  1.0092
80072SOL    HW252196   2.502  11.593   3.749 -1.8507 -0.8426  0.1679
80073SOL     OW52197  14.023   9.184   6.295  0.0188 -0.1925  0.2805
80073SOL    HW152198  13.952   9.161   6.354  0.9886 -1.8988  0.8621
80073SOL    HW252199  14.045   9.275   6.317 -1.2795  0.0102  0.7865
80074SOL     OW52200   2.765   7.690   6.016  0.4618 -0.5380  0.1793
80074SOL    HW152201   2.810   7.662   6.096 -0.4508 -0.3358  0.7730
80074SOL    HW252202   2.725   7.774   6.039 -1.0684 -1.1846  0.0033
80075SOL     OW52203   3.215   4.236   1.026 -0.0387 -0.6614 -0.0150
80075SOL    HW152204   3.209   4.329   1.047  0.0132 -0.5144 -0.6359
80075SOL    HW252205   3.292   4.229   0.970 -0.5350 -0.9410 -0.6785
80076SOL     OW52206   6.435   4.507   7.427  0.2018  0.3226 -0.0408
80076SOL    HW152207   6.427   4.417   7.458 -0.4017  0.1246 -0.7327
80076SOL    HW252208   6.345   4.535   7.410  0.2270  1.6212  1.6755
80077SOL     OW52209   1.216   3.756   1.586  0.5532 -0.0587 -0.2395
80077SOL    HW152210   1.278   3.779   1.655  1.9004 -1.2190 -1.0254
80077SOL    HW252211   1.265   3.767   1.505 -0.3491 -0.7784 -0.9016
80078SOL     OW52212  10.604   7.414   1.879  0.0759  0.5190  0.0505
80078SOL    HW152213  10.518   7.372   1.869 -0.3968  1.5040 -0.1557
80078SOL    HW252214  10.586   7.495   1.926  0.6449  1.5261 -1.3849
80079SOL     OW52215  11.775  10.939  13.126 -0.3447 -0.2780 -0.1956
80079SOL    HW152216  11.699  10.997  13.135 -0.4040 -0.3576 -0.1785
80079SOL    HW252217  11.784  10.925  13.032  0.2257  0.4871 -0.2633
80080SOL     OW52218   5.789   0.712   8.951 -0.2250  0.5400 -0.2468
80080SOL    HW152219   5.733   0.789   8.936 -1.3868 -0.4681 -1.4593
80080SOL    HW252220   5.821   0.722   9.040 -0.8595  2.1113 -0.1589
80081SOL     OW52221  11.964   2.495   7.035 -0.2242  0.1863  0.4104
80081SOL    HW152222  11.947   2.438   7.111  0.7670  0.7694  1.0993
80081SOL    HW252223  12.060   2.499   7.030 -0.2880  1.2039 -0.0798
80082SOL     OW52224   3.013  12.025   9.438  0.2149 -0.0908 -0.0894
80082SOL    HW152225   2.933  12.007   9.487  0.9687  0.0879  1.2562
80082SOL    HW252226   3.065  12.081   9.495  1.6172 -0.7835 -0.6152
80083SOL     OW52227  11.533   7.092   1.347  0.2579  0.0098 -0.2803
80083SOL    HW152228  11.566   7.174   1.311  1.7393 -0.3551  0.1711
80083SOL    HW252229  11.612   7.041   1.366 -0.6244 -1.3711 -0.2026
80084SOL     OW52230   2.638   0.064   7.533  0.0333 -0.3740 -0.0477
80084SOL    HW152231   2.616   0.151   7.501 -0.1696  0.2485  1.6900
80084SOL    HW252232   2.729   0.050   7.507 -0.6763 -0.7635 -2.6102
80085SOL     OW52233   2.511  12.430  11.332 -0.1328  0.6240  0.2306
80085SOL    HW152234   2.432  12.420  11.386  0.4465 -1.9322  0.7139
80085SOL    HW252235   2.583  12.402  11.389  0.9388  1.2476 -0.7623
80086SOL     OW52236   5.828   5.425  11.579 -0.4431  0.0661 -0.1522
80086SOL    HW152237   5.763   5.483  11.539 -0.4833  1.5302  1.8992
80086SOL    HW252238   5.909   5.445  11.532 -0.8635  0.3172 -0.7935
80087SOL     OW52239  12.355   5.182   8.602  0.4206  0.2247 -0.6179
80087SOL    HW152240  12.418   5.150   8.538  0.2211 -0.2089 -0.6022
80087SOL    HW252241  12.390   5.267   8.630  0.2500  0.6415 -1.6510
80088SOL     OW52242   2.376   9.746   4.653 -0.3260  0.2021  0.1616
80088SOL    HW152243   2.285   9.777   4.647 -0.3753  0.0291 -0.0077
80088SOL    HW252244   2.378   9.667   4.599  0.3704  1.1898 -1.3087
80089SOL     OW52245   0.557   5.681  10.958 -0.3816  0.5983  0.5280
80089SOL    HW152246   0.527   5.760  10.912 -0.7138  0.3599  0.3227
80089SOL    HW252247   0.530   5.695  11.049 -0.7483  0.5759  0.4265
80090SOL     OW52248   1.579  12.208   2.303  0.2876  0.3194 -0.0754
80090SOL    HW152249   1.619  12.141   2.246 -0.4890  1.2006 -1.7274
80090SOL    HW252250   1.625  12.288   2.280  0.8204  0.4836  1.4881
80091SOL     OW52251   0.276   7.304   0.596 -0.3323 -0.3515  0.3152
80091SOL    HW152252   0.246   7.261   0.516 -1.5101 -0.4192  0.7668
80091SOL    HW252253   0.241   7.393   0.591  0.5154 -0.0181  0.2497
80092SOL     OW52254   4.887   2.634  12.993  0.0269 -0.4099  0.2559
80092SOL    HW152255   4.857   2.695  13.061 -0.9474 -0.9875  0.3730
80092SOL    HW252256   4.806   2.602  12.952  0.5578 -0.8929 -0.4438
80093SOL     OW52257  13.377   0.515   2.357 -0.1578 -0.0669 -0.4865
80093SOL    HW152258  13.313   0.560   2.302  0.3271 -0.3762 -1.3265
80093SOL    HW252259  13.380   0.567   2.438 -0.8645  0.4131 -0.7586
80094SOL     OW52260   9.763  10.428  12.611 -0.1073 -0.1563  0.2083
80094SOL    HW152261   9.698  10.493  12.585 -0.2214  0.1022  1.1155
80094SOL    HW252262   9.755  10.358  12.545 -0.6060  0.3314 -0.2530
80095SOL     OW52263   1.555   5.378   5.271  0.4683 -0.5906  0.6948
80095SOL    HW152264   1.479   5.358   5.326  0.2466 -0.6235  0.3869
80095SOL    HW252265   1.517   5.390   5.183  0.7909 -0.3589  0.5863
80096SOL     OW52266   5.649   2.627   5.787 -0.3068  0.1573 -0.0844
80096SOL    HW152267   5.626   2.634   5.694 -0.7220  0.0407  0.0044
80096SOL    HW252268   5.742   2.650   5.791  0.0339 -1.0556 -0.7019
80097SOL     OW52269   0.987   1.090   1.689 -0.0218  0.0079  0.1352
80097SOL    HW152270   0.957   1.157   1.628 -1.1157  0.7121  1.4042
80097SOL    HW252271   1.027   1.139   1.761  0.2467 -0.7609  0.5212
80098SOL     OW52272  13.054   6.132   9.098  0.4519 -0.3068 -0.1733
80098SOL    HW152273  13.024   6.185   9.025  2.0487 -0.7745 -1.2421
80098SOL    HW252274  13.067   6.194   9.170  0.4098  0.4326 -0.7916
80099SOL     OW52275   1.139   5.954   9.121  0.1544 -0.1015  0.8448
80099SOL    HW152276   1.231   5.946   9.096  0.5214  1.8176  1.3920
80099SOL    HW252277   1.130   6.045   9.148 -2.3846  0.3009 -1.0364
80100SOL     OW52278   1.542   7.868   4.621 -0.4525 -0.1651 -0.6340
80100SOL    HW152279   1.452   7.868   4.652 -0.0718  0.0766  0.5572
80100SOL    HW252280   1.572   7.958   4.636 -0.0616 -0.2014 -1.1718
80101SOL     OW52281   3.496   3.965   9.711 -0.3771  0.0366  0.2189
80101SOL    HW152282   3.434   3.914   9.762 -0.3720 -3.9108 -3.1832
80101SOL    HW252283   3.461   3.964   9.622  2.5428  1.1840 -1.0883
80102SOL     OW52284   1.395  13.452   8.294  0.6590  0.0113 -0.8396
80102SOL    HW152285   1.340  13.433   8.218  0.6590  0.2539 -0.9021
80102SOL    HW252286   1.484  13.430   8.266  0.4888 -1.2066 -0.4481
80103SOL     OW52287   8.930   4.931  11.281  0.0034 -0.1671  0.1024
80103SOL    HW152288   8.878   4.978  11.216 -1.0326 -0.6390  0.5758
80103SOL    HW252289   9.012   4.911  11.235 -0.8207 -0.7784 -1.1801
80104SOL     OW52290   3.204  13.674   6.767  0.1243  0.4075  0.5484
80104SOL    HW152291   3.273  13.625   6.812 -1.1212 -1.4369  0.5634
80104SOL    HW252292   3.130  13.671   6.827 -1.1493 -0.9377 -0.9873
80105SOL     OW52293   3.355   2.924   3.277 -0.4596 -0.4026 -0.2099
80105SOL    HW152294   3.373   2.849   3.333 -1.5758  0.4413  1.3946
80105SOL    HW252295   3.274   2.961   3.313  0.2279  1.7438 -0.6967
80106SOL     OW52296   5.869   0.817   1.166  0.1329  0.3120  0.2434
80106SOL    HW152297   5.805   0.888   1.157 -0.7160 -0.3715  0.7289
80106SOL    HW252298   5.822   0.738   1.140  0.8701 -0.1726  0.3370
80107SOL     OW52299  13.073   0.495  13.177  0.0438  0.2731  0.2128
80107SOL    HW152300  13.110   0.458  13.257  1.2786 -1.3080 -1.0228
80107SOL    HW252301  13.149   0.520  13.125 -0.6813 -0.1949 -1.1051
80108SOL     OW52302  14.007   9.365  10.270  0.0682 -0.9796 -0.1199
80108SOL    HW152303  14.013   9.455  10.300 -1.0828 -0.5454 -1.0975
80108SOL    HW252304  13.943   9.324  10.328  1.1390 -1.3935  0.7951
80109SOL     OW52305   0.043  10.077  12.328 -0.6072 -0.1624 -0.5744
80109SOL    HW152306  -0.036  10.075  12.275 -0.5821  1.4773 -0.7074
80109SOL    HW252307   0.104  10.133  12.280 -0.5976  1.4308  1.1638
80110SOL     OW52308  13.877   7.023   6.006 -0.1084  0.2982  0.2357
80110SOL    HW152309  13.913   7.031   6.094  0.4412  0.2021  0.0264
80110SOL    HW252310  13.943   7.065   5.949 -0.4646  0.3783 -0.1251
80111SOL     OW52311  10.562  10.819  10.546 -0.1661  0.8257  0.2891
80111SOL    HW152312  10.580  10.855  10.633 -0.0592  0.1283  0.5585
80111SOL    HW252313  10.645  10.827  10.499 -0.2546  1.3096  0.2055
80112SOL     OW52314   8.497   1.107   2.610 -0.3604 -0.1373  0.0820
80112SOL    HW152315   8.591   1.126   2.602 -0.7350  1.9992  0.0047
80112SOL    HW252316   8.456   1.164   2.545 -1.8123  0.2114  1.2468
80113SOL     OW52317  12.639   6.738   5.302 -0.8594  0.2363  0.0734
80113SOL    HW152318  12.634   6.832   5.287 -1.7085  0.0584 -0.8569
80113SOL    HW252319  12.556   6.717   5.345 -0.7024 -0.1040  0.2142
80114SOL     OW52320   0.406   6.615  12.121  0.5097  0.7360  0.8020
80114SOL    HW152321   0.470   6.549  12.146  0.2683 -0.4380 -1.4630
80114SOL    HW252322   0.451   6.670  12.057 -0.6596 -0.0532 -0.7555
80115SOL     OW52323   3.925   1.389   7.066  0.2187 -0.3371 -0.4285
80115SOL    HW152324   3.876   1.470   7.077  0.4558 -0.0245 -1.5134
80115SOL    HW252325   4.017   1.415   7.079  0.3201 -0.3611 -1.0636
80116SOL     OW52326  13.416   0.673   0.442  0.3350 -0.0476  0.3439
80116SOL    HW152327  13.467   0.671   0.523  1.7933 -0.5590 -0.5475
80116SOL    HW252328  13.379   0.762   0.439  0.3903  0.0252  1.4721
80117SOL     OW52329   9.770   7.294   8.339  0.5547  0.5581  0.4750
80117SOL    HW152330   9.839   7.335   8.391 -0.2783 -0.0698  2.1418
80117SOL    HW252331   9.817   7.243   8.273  1.7064  0.0880  1.6116
80118SOL     OW52332  12.425   5.724   6.933  0.2896 -0.2291  0.1914
80118SOL    HW152333  12.501   5.693   6.982  0.4981  0.9163  0.6371
80118SOL    HW252334  12.454   5.729   6.842  0.1576 -1.5765  0.0575
80119SOL     OW52335   9.686   0.522  10.064  0.5028 -0.3645 -0.0191
80119SOL    HW152336   9.749   0.592  10.049 -1.3101  2.1238  2.9295
80119SOL    HW252337   9.623   0.530   9.993  0.8980  0.2956 -0.2998
80120SOL     OW52338   5.196   5.100  10.192 -0.6361 -0.2043  0.0659
80120SOL    HW152339   5.287   5.124  10.177 -0.3953 -0.3507  1.1796
80120SOL    HW252340   5.173   5.043  10.119  0.4667 -0.9349  0.2749
80121SOL     OW52341   6.264  11.382   4.693 -0.7422  0.9275  0.0027
80121SOL    HW152342   6.245  11.387   4.599 -0.1392  1.8087 -0.0941
80121SOL    HW252343   6.190  11.336   4.731  0.4348 -2.3456 -1.2919
80122SOL     OW52344   1.254  10.724  11.048  0.5895 -0.8352 -0.0445
80122SOL    HW152345   1.346  10.697  11.053  0.0089 -2.8601  0.5550
80122SOL    HW252346   1.235  10.723  10.954  0.7536 -2.0950 -0.0909
80123SOL     OW52347   6.458   6.763   6.919 -0.2602 -0.2124  0.0517
80123SOL    HW152348   6.471   6.812   6.838 -1.0745  0.6030  0.4065
80123SOL    HW252349   6.371   6.787   6.949  0.1376 -0.2812  1.3280
80124SOL     OW52350  13.759   4.059   1.785  0.4789 -0.4851  0.2548
80124SOL    HW152351  13.674   4.067   1.828 -0.2174 -0.7923 -1.0155
80124SOL    HW252352  13.810   4.132   1.819  0.3317 -1.2895  2.3604
80125SOL     OW52353   6.646   5.105  10.663  0.1122  0.3896  0.0402
80125SOL    HW152354   6.591   5.026  10.658 -0.5784  0.8224  0.6681
80125SOL    HW252355   6.611   5.154  10.737  1.9099  0.2733  1.0161
80126SOL     OW52356   1.251  10.430  13.784  0.3085  0.5250  0.0809
80126SOL    HW152357   1.273  10.502  13.725  1.0754  0.6167  0.4694
80126SOL    HW252358   1.162  10.405  13.759  1.3532 -0.9271 -2.6121
80127SOL     OW52359  12.029   5.540   0.474 -0.0154 -0.2690 -0.0169
80127SOL    HW152360  12.016   5.577   0.387 -0.0118 -1.5667 -0.5957
80127SOL    HW252361  12.116   5.500   0.470  0.5358  0.7804  1.0124
80128SOL     OW52362  13.749  13.707   1.879 -0.1546 -0.2458  0.1191
80128SOL    HW152363  13.694  13.696   1.957 -1.1899 -0.4629 -0.6201
80128SOL    HW252364  13.838  13.697   1.911 -0.5336  0.3153  1.3843
80129SOL     OW52365  12.616   1.687   0.478 -0.1740 -0.4526  0.0344
80129SOL    HW152366  12.665   1.650   0.552  1.1505 -0.6555 -0.8921
80129SOL    HW252367  12.671   1.668   0.401 -2.5075 -2.1994 -1.3317
80130SOL     OW52368   9.924   5.381   8.707  0.5699  0.4544  0.2250
80130SOL    HW152369   9.997   5.442   8.694  0.1903  1.0220  0.6794
80130SOL    HW252370   9.898   5.356   8.618 -0.7973  2.8378 -0.1532
80131SOL     OW52371  12.087   5.369   7.430 -0.3946  0.3320 -0.0527
80131SOL    HW152372  12.046   5.283   7.427 -2.0598  1.0873  0.2798
80131SOL    HW252373  12.151   5.363   7.501 -0.7002 -0.5365  0.1570
80132SOL     OW52374   5.359  12.682   5.899 -0.6398 -0.5974 -0.7499
80132SOL    HW152375   5.291  12.710   5.838  0.7742  1.9255 -1.3052
80132SOL    HW252376   5.362  12.751   5.966  2.1599  0.0805 -1.4468
80133SOL     OW52377   6.544  12.149  10.243  0.2909 -0.7426  0.0377
80133SOL    HW152378   6.460  12.173  10.204  0.2999  0.8239  0.8706
80133SOL    HW252379   6.527  12.069  10.293 -0.5635 -0.7535 -0.2725
80134SOL     OW52380   2.680   0.956  10.158 -0.3917  0.3418 -0.2092
80134SOL    HW152381   2.731   1.008  10.096 -1.5940  0.0433 -1.4908
80134SOL    HW252382   2.592   0.992  10.154 -1.0067 -1.1192 -0.3421
80135SOL     OW52383   2.013   3.607   0.612  0.0245 -0.6691  0.5719
80135SOL    HW152384   2.090   3.553   0.593  0.1965 -0.6767  1.2772
80135SOL    HW252385   2.048   3.696   0.621 -0.1281 -0.5852  0.3486
80136SOL     OW52386   4.500  10.825   1.217 -0.1745 -0.3350 -0.2665
80136SOL    HW152387   4.521  10.735   1.193 -1.3545  0.1428 -3.4675
80136SOL    HW252388   4.568  10.878   1.175 -0.7277  0.4060 -0.2477
80137SOL     OW52389  11.158  11.832  12.459  0.3477 -0.2215 -0.1932
80137SOL    HW152390  11.096  11.857  12.528 -0.7528  1.1469 -1.5902
80137SOL    HW252391  11.241  11.871  12.486 -0.0461  0.2360  0.3902
80138SOL     OW52392   0.401  13.678   2.680 -0.1134 -1.0647  0.3805
80138SOL    HW152393   0.478  13.731   2.703  0.0566 -0.4400 -1.3909
80138SOL    HW252394   0.337  13.742   2.648 -1.5434 -1.5352  2.1542
80139SOL     OW52395   9.068   3.750   1.800 -0.2883 -0.3726 -0.3470
80139SOL    HW152396   9.134   3.683   1.784  0.0690  0.1463 -1.1332
80139SOL    HW252397   9.035   3.732   1.888  0.9598 -0.5952  0.0860
80140SOL     OW52398   3.488  11.069  13.437 -0.2901  0.1973  0.3635
80140SOL    HW152399   3.428  11.133  13.398 -0.5878 -0.8997 -1.0833
80140SOL    HW252400   3.441  10.986  13.432 -0.4610 -0.0092  3.4103
80141SOL     OW52401   2.834  12.257   9.038  0.3355 -0.2991 -0.2833
80141SOL    HW152402   2.891  12.197   9.085 -1.1685 -1.6940 -0.1380
80141SOL    HW252403   2.835  12.226   8.947  2.1657  1.5654 -0.9855
80142SOL     OW52404  12.413   6.410   5.745 -0.0118  0.1811  0.8411
80142SOL    HW152405  12.429   6.316   5.736 -0.9303  0.0796  0.0932
80142SOL    HW252406  12.322   6.415   5.774  0.6439  0.7849  2.9457
80143SOL     OW52407   4.667  12.160   4.976  0.7015  0.2609 -0.8033
80143SOL    HW152408   4.669  12.170   4.881  0.5891 -0.3602 -0.8759
80143SOL    HW252409   4.648  12.247   5.009 -1.7424  0.0428 -1.4437
80144SOL     OW52410   2.888   0.902   0.609  0.1136  0.0403  0.0862
80144SOL    HW152411   2.866   0.951   0.529  1.3741 -0.3048 -0.5060
80144SOL    HW252412   2.939   0.964   0.661  0.6568 -0.2415 -0.1065
80145SOL     OW52413   1.458   8.760   3.085  1.3170  0.2739  0.0153
80145SOL    HW152414   1.525   8.695   3.108  1.1487  0.1582  0.1759
80145SOL    HW252415   1.506   8.826   3.034  1.1997 -0.7330 -1.4608
80146SOL     OW52416   6.539   5.228  10.036  0.0369 -0.0082 -0.3629
80146SOL    HW152417   6.462   5.227  10.094 -0.5075 -0.5598 -1.0768
80146SOL    HW252418   6.535   5.314   9.994 -0.5299 -0.2528 -0.8273
80147SOL     OW52419   9.114  12.529  13.455  0.4687  0.1321 -0.4909
80147SOL    HW152420   9.206  12.551  13.466  0.4380  0.0193  0.0135
80147SOL    HW252421   9.103  12.445  13.500 -0.2948  1.0971  1.2018
80148SOL     OW52422   3.143   1.651   7.588 -0.0134  0.7357 -0.1233
80148SOL    HW152423   3.106   1.700   7.515 -0.1365  1.8216  0.6547
80148SOL    HW252424   3.236   1.642   7.568  0.1201  1.7796 -0.0182
80149SOL     OW52425   0.271  10.798  10.585 -0.2070 -0.2242  0.2001
80149SOL    HW152426   0.215  10.786  10.508  0.9884  1.1553 -0.9551
80149SOL    HW252427   0.337  10.730  10.578 -1.8932 -2.1852  1.8421
80150SOL     OW52428   3.210   9.589   7.998  0.3192  0.4526  0.3896
80150SOL    HW152429   3.194   9.502   7.959  0.5729  0.1969  0.8507
80150SOL    HW252430   3.196   9.576   8.092  0.5568  0.8671  0.4818
80151SOL     OW52431   0.180   3.005   5.149  0.1018 -0.3638  0.3271
80151SOL    HW152432   0.172   2.910   5.160 -0.4156 -0.1935  1.5635
80151SOL    HW252433   0.090   3.036   5.140  0.3404 -0.1797 -2.1558
80152SOL     OW52434   2.243  10.942   6.175  0.4986  0.0988 -0.0203
80152SOL    HW152435   2.242  10.854   6.213 -0.7728  0.8471  1.7940
80152SOL    HW252436   2.276  10.928   6.086  1.4750 -2.0356  0.5867
80153SOL     OW52437   1.004  10.485   9.960 -0.1525  0.1456  0.2582
80153SOL    HW152438   1.070  10.470   9.891 -1.2014 -1.4004 -0.4638
80153SOL    HW252439   1.051  10.467  10.042  0.2097 -1.5896 -0.2796
80154SOL     OW52440   4.913   1.664   1.073 -0.1895  0.1424 -0.0324
80154SOL    HW152441   4.936   1.753   1.046  1.9322 -0.9157 -2.0780
80154SOL    HW252442   4.998   1.623   1.093 -0.9753 -1.8017 -0.4506
80155SOL     OW52443   5.586   5.161   6.536  1.0270 -0.1203  0.1231
80155SOL    HW152444   5.643   5.115   6.598 -0.3820 -0.4184  1.2333
80155SOL    HW252445   5.562   5.094   6.472  1.1649 -0.2392  0.1934
80156SOL     OW52446   4.305   8.092   8.500  0.2756 -0.8195  0.0558
80156SOL    HW152447   4.357   8.152   8.555 -0.3196 -0.1825 -0.0629
80156SOL    HW252448   4.356   8.011   8.499  0.1619 -0.9501  1.7866
80157SOL     OW52449  13.769   1.377   6.911 -0.3491 -0.1109 -0.3044
80157SOL    HW152450  13.700   1.439   6.932  0.0051  0.9717 -2.0937
80157SOL    HW252451  13.738   1.334   6.830  0.5954 -0.3551 -0.5485
80158SOL     OW52452   2.298   4.488   2.200 -0.1225  0.4680  0.0449
80158SOL    HW152453   2.324   4.396   2.198 -3.1973 -0.5497  1.1498
80158SOL    HW252454   2.319   4.520   2.113  0.4396 -1.4775 -0.5949
80159SOL     OW52455   0.326   0.675   6.030 -0.2111 -0.6716 -0.3503
80159SOL    HW152456   0.302   0.589   5.996 -1.3952 -0.0719 -1.1338
80159SOL    HW252457   0.301   0.736   5.960  1.4038  0.2494 -0.1697
80160SOL     OW52458   2.373  12.883   8.730  0.1036  0.0418 -0.1829
80160SOL    HW152459   2.374  12.836   8.646 -2.2326  0.2992 -0.4273
80160SOL    HW252460   2.325  12.964   8.712 -1.8698 -0.6097  1.7098
80161SOL     OW52461   5.158   9.269   3.003  0.4263 -0.2094  0.1830
80161SOL    HW152462   5.236   9.266   3.059 -0.2442  0.4824  1.1866
80161SOL    HW252463   5.132   9.361   3.004 -0.4720 -0.4559 -0.0479
80162SOL     OW52464   2.769   4.345   8.365  0.8697 -0.0853 -0.2833
80162SOL    HW152465   2.828   4.418   8.384  0.5405 -0.0139  0.4959
80162SOL    HW252466   2.737   4.363   8.276 -1.7457  2.5437  1.0012
80163SOL     OW52467   2.570   4.072   4.889 -0.4969 -0.0404  0.3559
80163SOL    HW152468   2.497   4.112   4.936  1.0590  2.1822  1.0637
80163SOL    HW252469   2.580   4.126   4.810 -0.0885 -0.7887 -0.1194
80164SOL     OW52470   2.144   9.564   2.007 -0.0054 -0.6343 -0.2812
80164SOL    HW152471   2.104   9.550   2.092 -1.8335  0.4622 -0.8829
80164SOL    HW252472   2.142   9.479   1.964  0.4743 -1.0848  0.5845
80165SOL     OW52473  10.162   9.121  13.199 -0.1948 -0.2569 -0.1484
80165SOL    HW152474  10.168   9.216  13.192 -0.1289 -0.0274  2.2136
80165SOL    HW252475  10.112   9.094  13.122  0.3851  1.5918 -1.2289
80166SOL     OW52476   8.313   2.027   5.594 -0.2599 -0.2028 -0.3212
80166SOL    HW152477   8.271   2.034   5.680 -0.0426  0.4125 -0.2573
80166SOL    HW252478   8.357   2.111   5.583 -1.9689  0.5262 -1.9465
80167SOL     OW52479   8.309   0.025   6.970  0.3350 -0.1855 -0.4127
80167SOL    HW152480   8.254   0.095   6.937  0.0422 -0.1813  0.0750
80167SOL    HW252481   8.303  -0.044   6.904 -1.1274 -0.6185  0.1508
80168SOL     OW52482   5.399  11.988  12.884  0.2990  0.0527  0.1126
80168SOL    HW152483   5.485  11.985  12.924  0.1921  0.4927  0.3810
80168SOL    HW252484   5.387  11.901  12.845  1.2031  0.2516 -0.6561
80169SOL     OW52485   4.176  13.633   1.707  0.1055 -0.3651 -0.0527
80169SOL    HW152486   4.127  13.562   1.749  1.1863 -1.2464 -0.2347
80169SOL    HW252487   4.230  13.669   1.777  0.6452 -0.7038 -0.2891
80170SOL     OW52488  13.575   7.079   8.521  1.0848 -0.4545 -0.2582
80170SOL    HW152489  13.618   6.996   8.503  0.1664 -0.7573 -1.1953
80170SOL    HW252490  13.493   7.054   8.565  0.8909 -0.0450 -0.3803
80171SOL     OW52491   5.732   1.609   6.446  0.0899 -0.0893  0.2131
80171SOL    HW152492   5.761   1.646   6.529  0.5430 -0.9928  0.4663
80171SOL    HW252493   5.651   1.655   6.426 -0.7458 -0.8075  1.8332
80172SOL     OW52494   8.537   5.435   6.535  0.1287  0.1092  0.0491
80172SOL    HW152495   8.612   5.463   6.483 -1.0136 -0.2124 -1.8762
80172SOL    HW252496   8.517   5.510   6.591  1.4601  0.4357  0.1164
80173SOL     OW52497  10.296   9.405  11.610 -0.4510 -0.0057 -0.5804
80173SOL    HW152498  10.303   9.338  11.678  0.4707  0.2134 -0.4449
80173SOL    HW252499  10.273   9.485  11.659  0.4925  0.2159 -0.4629
80174SOL     OW52500   8.821   3.795  12.725  0.3686  0.1268  0.2898
80174SOL    HW152501   8.728   3.804  12.705 -0.0900 -1.4152  1.4885
80174SOL    HW252502   8.848   3.716  12.678  0.4139 -0.8431  1.8426
80175SOL     OW52503   5.884  10.760  12.351  0.4690 -0.2795  0.0010
80175SOL    HW152504   5.867  10.837  12.406  0.3046 -2.6233  3.5565
80175SOL    HW252505   5.980  10.754  12.348  0.4810 -0.0444 -0.1623
80176SOL     OW52506  13.020   2.815   7.501  0.5309  0.6999 -0.6648
80176SOL    HW152507  13.079   2.859   7.563 -0.1846 -0.2043  0.7034
80176SOL    HW252508  12.994   2.884   7.440  0.3358  1.9422  0.7488
80177SOL     OW52509   4.686  10.402   9.988 -0.8558 -0.3401 -0.5871
80177SOL    HW152510   4.708  10.316  10.023  0.8104  0.0938 -0.5263
80177SOL    HW252511   4.591  10.408  10.000 -1.0201 -2.1648 -0.6132
80178SOL     OW52512   5.102   5.947   0.141  0.4476  0.0258  0.5083
80178SOL    HW152513   5.036   6.015   0.150  0.9868  0.3381  2.9140
80178SOL    HW252514   5.052   5.866   0.129 -0.2071  0.6826 -1.6081
80179SOL     OW52515   3.284   3.828  11.665  0.0759  0.2209  0.2517
80179SOL    HW152516   3.299   3.816  11.759 -0.5462  2.2968  0.6466
80179SOL    HW252517   3.197   3.791  11.649  0.4690 -0.7819  0.3118
80180SOL     OW52518  11.971   3.829  13.784 -0.5482 -0.0596 -0.4916
80180SOL    HW152519  11.975   3.806  13.691 -3.5539 -3.3479 -0.0285
80180SOL    HW252520  12.061   3.821  13.815  0.3182 -0.1125 -2.8364
80181SOL     OW52521   5.928   9.945   4.054  0.3145  0.5584 -0.6393
80181SOL    HW152522   5.901   9.864   4.012 -0.3425  0.6726 -0.4527
80181SOL    HW252523   5.858  10.007   4.034  1.5371  1.5373 -2.0993
80182SOL     OW52524  13.450   4.955   2.969 -0.7920 -0.5796 -0.5234
80182SOL    HW152525  13.512   4.935   2.899 -1.3903  0.0918 -1.2737
80182SOL    HW252526  13.478   4.901   3.043 -0.9546 -2.3576 -1.6982
80183SOL     OW52527   0.935   7.287   2.171 -0.1190  0.3666  0.6547
80183SOL    HW152528   0.992   7.339   2.114  0.9608 -1.2582  0.1985
80183SOL    HW252529   0.847   7.318   2.150  0.4300  1.4898 -0.1266
80184SOL     OW52530   4.898   3.058   6.703 -0.1965  0.5576  0.7376
80184SOL    HW152531   4.987   3.094   6.707  0.9607 -2.0588  0.4852
80184SOL    HW252532   4.845   3.130   6.669  2.2247  1.5308 -1.2878
80185SOL     OW52533   6.659   9.622   4.335 -0.4137 -0.5565 -0.0093
80185SOL    HW152534   6.662   9.675   4.414 -0.8246 -0.3432 -0.1304
80185SOL    HW252535   6.582   9.655   4.287  0.3549 -0.0446 -0.9340
80186SOL     OW52536   9.398   3.245   8.077  0.1308  0.1464 -0.1358
80186SOL    HW152537   9.396   3.153   8.053  0.2159  0.3663 -1.0000
80186SOL    HW252538   9.484   3.276   8.050 -0.5292  0.8984 -1.5030
80187SOL     OW52539   5.246   8.261  11.306 -0.1666  1.1318  0.2046
80187SOL    HW152540   5.241   8.190  11.242 -0.2963  0.2358  1.1715
80187SOL    HW252541   5.230   8.340  11.256 -0.9707  0.3922 -0.7462
80188SOL     OW52542  10.190  12.888   0.033  0.4679 -0.1838 -0.0458
80188SOL    HW152543  10.218  12.860   0.120 -1.1233 -0.5936  0.3729
80188SOL    HW252544  10.173  12.981   0.042  2.8428  0.3686 -0.6488
80189SOL     OW52545   1.580  10.072  13.235 -0.2928  0.2571 -0.4970
80189SOL    HW152546   1.562  10.049  13.143 -0.9597 -0.9474 -0.0949
80189SOL    HW252547   1.661  10.026  13.255 -0.1923  0.4518 -0.4646
80190SOL     OW52548  11.245   0.689   6.569  0.2131  0.2832  0.1886
80190SOL    HW152549  11.217   0.748   6.499  0.2635  2.3304  1.8187
80190SOL    HW252550  11.333   0.717   6.591  0.0787 -0.1223  1.2866
80191SOL     OW52551  12.846   8.106   3.650  0.3673 -0.2104  0.3568
80191SOL    HW152552  12.849   8.183   3.706 -0.6601 -0.4954  0.8308
80191SOL    HW252553  12.760   8.066   3.668  0.1011 -0.4425 -1.2344
80192SOL     OW52554   2.094   7.350  12.771  0.4364 -0.8379  0.3234
80192SOL    HW152555   2.103   7.404  12.849  1.6616  1.0736 -1.0638
80192SOL    HW252556   2.178   7.306  12.762  0.6243 -0.3340 -0.4132
80193SOL     OW52557   9.353   0.693  10.247 -0.4813  0.1715  0.4332
80193SOL    HW152558   9.309   0.691  10.332 -1.2146  1.1739  0.0971
80193SOL    HW252559   9.402   0.611  10.243 -0.3045  0.1793  1.8879
80194SOL     OW52560  12.733   0.018   0.769 -0.1387 -0.2037 -0.2615
80194SOL    HW152561  12.791   0.081   0.812  2.6445 -1.4720 -1.8829
80194SOL    HW252562  12.759  -0.066   0.806 -0.2290 -0.8983 -1.7264
80195SOL     OW52563   5.952  13.249   0.062  0.4066 -0.0553 -0.2546
80195SOL    HW152564   5.900  13.229   0.140 -0.9569  1.5424 -0.6987
80195SOL    HW252565   6.036  13.207   0.079  0.1954  0.2906  2.1149
80196SOL     OW52566   8.192   5.830  14.036  0.2435 -0.7998 -0.5195
80196SOL    HW152567   8.099   5.848  14.023  0.6874  2.4944 -0.0179
80196SOL    HW252568   8.227   5.816  13.948 -0.2900  0.6703 -0.9910
80197SOL     OW52569   9.890   4.860   1.134 -0.2666 -0.0552 -0.4680
80197SOL    HW152570   9.956   4.929   1.128  1.3381 -1.2096  2.0118
80197SOL    HW252571   9.808   4.906   1.152  0.9221  1.2737  2.0361
80198SOL     OW52572   6.008  11.923   2.940 -0.4935 -0.3495  0.3739
80198SOL    HW152573   6.071  11.937   2.870 -0.2925 -1.5416  0.2868
80198SOL    HW252574   5.958  11.846   2.912 -2.2740  0.7937  0.2547
80199SOL     OW52575  13.673   5.592   9.635 -0.4281  0.3113 -0.0252
80199SOL    HW152576  13.622   5.652   9.690 -3.1907 -0.9563 -1.0204
80199SOL    HW252577  13.639   5.606   9.547  0.2645 -1.3082 -0.5874
80200SOL     OW52578   2.510   5.573   3.809  0.0540 -0.0882  0.1792
80200SOL    HW152579   2.426   5.572   3.763  1.2837  2.3812 -2.3966
80200SOL    HW252580   2.524   5.665   3.831  1.8172 -0.5432  1.0955
80201SOL     OW52581   6.154   4.764  13.911  0.2719 -0.1095  0.6617
80201SOL    HW152582   6.201   4.683  13.889  1.4044  0.6545  0.1783
80201SOL    HW252583   6.069   4.755  13.868  0.5300 -0.8587  0.2857
80202SOL     OW52584   8.972   1.754  10.028 -0.0644  0.3914 -0.0507
80202SOL    HW152585   9.057   1.719  10.002 -0.2499 -1.6536  1.7964
80202SOL    HW252586   8.910   1.717   9.966 -0.0242 -1.2692  0.8361
80203SOL     OW52587   6.014  11.019   0.054 -0.2471  0.2861  0.9486
80203SOL    HW152588   6.081  11.001  -0.012 -1.9290 -0.1146 -0.7119
80203SOL    HW252589   5.980  11.105   0.031 -1.3831 -0.1888  0.7974
80204SOL     OW52590   8.172   0.973   6.138 -0.2747  0.2820 -0.0869
80204SOL    HW152591   8.260   0.968   6.100 -0.4040  2.6932 -0.9169
80204SOL    HW252592   8.130   0.891   6.112  1.7724 -1.0633  0.5755
80205SOL     OW52593   1.118  10.394  11.515 -0.5683 -0.1767 -0.4320
80205SOL    HW152594   1.100  10.371  11.606 -1.3322  0.6006 -0.3807
80205SOL    HW252595   1.078  10.479  11.503  0.2075  0.0878 -1.2845
80206SOL     OW52596   5.006  10.804   3.577 -0.5993  0.0243 -0.8672
80206SOL    HW152597   5.096  10.818   3.607 -0.0490 -3.2915 -0.5481
80206SOL    HW252598   5.011  10.812   3.481  0.7089 -2.6259 -1.1036
80207SOL     OW52599   4.135   3.487   1.292 -0.7609 -0.0564  0.2661
80207SOL    HW152600   4.053   3.527   1.264 -0.8770  0.2174  0.9980
80207SOL    HW252601   4.111   3.398   1.319 -0.6402 -0.3402 -0.5283
80208SOL     OW52602  13.245   4.151   5.967 -0.3255 -0.7712 -0.4061
80208SOL    HW152603  13.228   4.153   6.061 -1.7215  0.3726 -0.6464
80208SOL    HW252604  13.174   4.203   5.929  1.4007  0.6039 -1.9165
80209SOL     OW52605   1.766   7.904  13.797 -0.0233 -0.1827 -0.0912
80209SOL    HW152606   1.743   7.860  13.879 -0.2761 -0.6009 -0.3789
80209SOL    HW252607   1.850   7.865  13.772  0.1741  0.1218  0.0911
80210SOL     OW52608   8.689   9.674   4.539  0.2397 -0.6511 -0.0242
80210SOL    HW152609   8.599   9.706   4.533  1.4740  3.2454 -0.6325
80210SOL    HW252610   8.694   9.605   4.473 -1.8369  0.4417 -1.4379
80211SOL     OW52611   1.133   0.166  10.642 -0.2022 -0.1392 -0.2101
80211SOL    HW152612   1.119   0.251  10.684  3.1104 -0.0899  1.0784
80211SOL    HW252613   1.170   0.188  10.556  2.0502 -0.1723  0.6867
80212SOL     OW52614  11.562   8.541   4.589 -0.1011 -0.3923 -0.5545
80212SOL    HW152615  11.618   8.508   4.659 -2.8746 -0.9423  1.5999
80212SOL    HW252616  11.548   8.466   4.531 -1.3737 -1.3391  0.8887
80213SOL     OW52617   8.000   1.874   3.595  0.0357  0.4767 -0.2619
80213SOL    HW152618   7.919   1.914   3.563  0.1117  1.4899  0.7471
80213SOL    HW252619   8.069   1.914   3.542  0.0901  1.5631  0.5964
80214SOL     OW52620   8.267   4.975  12.742  0.4763 -0.2156 -0.1289
80214SOL    HW152621   8.284   5.059  12.784 -0.9599  0.4211 -0.7602
80214SOL    HW252622   8.329   4.972  12.669  0.7640  0.1325  0.0979
80215SOL     OW52623   4.140  12.010   9.571  0.0012 -0.4074 -0.1688
80215SOL    HW152624   4.069  12.074   9.571  0.7918  0.5028 -1.1595
80215SOL    HW252625   4.210  12.050   9.622 -0.3747 -1.5539  1.3249
80216SOL     OW52626  12.598   7.284   3.280 -0.3730 -0.4752  0.5031
80216SOL    HW152627  12.569   7.300   3.370  0.6354 -1.3890  1.0071
80216SOL    HW252628  12.693   7.279   3.286 -0.1466  1.0764 -0.8877
80217SOL     OW52629   8.289   1.531   6.010 -0.4124 -0.0617  0.1997
80217SOL    HW152630   8.206   1.484   6.001 -1.3420  1.2960  1.2748
80217SOL    HW252631   8.349   1.465   6.045 -1.3736 -0.7626  0.5948
80218SOL     OW52632   2.186  13.960   4.728 -0.4727 -0.3887  0.2517
80218SOL    HW152633   2.162  14.028   4.791  1.4775  1.0797 -0.5173
80218SOL    HW252634   2.223  14.007   4.653  0.2881 -2.2384 -0.6002
80219SOL     OW52635   3.429  11.891   6.793  0.1559 -0.3631 -0.0874
80219SOL    HW152636   3.430  11.927   6.882 -1.3887 -0.1219 -0.1379
80219SOL    HW252637   3.479  11.810   6.800  0.4460 -0.1201  0.8976
80220SOL     OW52638  13.645   7.273   0.233 -0.4590 -0.2659  0.0434
80220SOL    HW152639  13.712   7.246   0.170  1.7370  0.8244  1.7642
80220SOL    HW252640  13.628   7.365   0.211  0.4691  0.1806  1.1160
80221SOL     OW52641   3.253   0.508   0.653 -0.3724 -0.0307 -0.0919
80221SOL    HW152642   3.345   0.528   0.667 -0.7435  1.9298 -0.2038
80221SOL    HW252643   3.230   0.554   0.572 -1.4187 -0.5923 -0.1340
80222SOL     OW52644   3.889  12.165   9.209  0.0693  0.6747 -0.0120
80222SOL    HW152645   3.900  12.100   9.139 -0.6970  1.1474 -0.5941
80222SOL    HW252646   3.942  12.131   9.281 -0.0888 -0.4599 -0.3949
80223SOL     OW52647   2.183   3.959   5.445 -0.2375  0.2501 -0.2577
80223SOL    HW152648   2.103   3.963   5.498  0.5476 -0.7350  1.0479
80223SOL    HW252649   2.254   3.960   5.508  0.7625 -0.0483 -1.3459
80224SOL     OW52650   3.281  13.718   5.284  0.5209  0.5903  0.0138
80224SOL    HW152651   3.314  13.743   5.370  0.8644 -0.6360  0.2503
80224SOL    HW252652   3.263  13.802   5.241  1.7905  1.2530  0.6989
80225SOL     OW52653   7.150  12.799   9.115 -0.0883 -0.1846 -0.0102
80225SOL    HW152654   7.227  12.846   9.083  0.8810 -2.0672 -0.5805
80225SOL    HW252655   7.075  12.848   9.081  0.8028  1.8764  0.8186
80226SOL     OW52656   6.984   4.463   6.468  0.6857  0.6103 -0.2766
80226SOL    HW152657   7.079   4.461   6.453  0.6823  1.9161 -0.5924
80226SOL    HW252658   6.960   4.555   6.456 -0.4415  0.5132  1.0205
80227SOL     OW52659   0.028  11.137   1.622 -0.3857  0.0985 -0.1520
80227SOL    HW152660   0.029  11.139   1.526  0.1637 -1.1403 -0.1908
80227SOL    HW252661   0.117  11.111   1.646 -0.0892  1.7882  0.7621
80228SOL     OW52662   9.536   2.355   8.994  0.3052  0.1021 -0.4630
80228SOL    HW152663   9.471   2.328   9.059  1.8169  1.6746  1.8703
80228SOL    HW252664   9.620   2.331   9.033  1.2560 -1.2927 -3.0967
80229SOL     OW52665   9.504   6.698  11.109  0.3934  0.4620  0.5214
80229SOL    HW152666   9.446   6.754  11.162 -0.9019  0.0515 -0.4195
80229SOL    HW252667   9.447   6.662  11.042  1.8193  0.2542 -0.6152
80230SOL     OW52668   8.583   4.610   9.467  0.1139 -0.1150  0.1267
80230SOL    HW152669   8.630   4.535   9.505  0.3874  0.7296  1.5344
80230SOL    HW252670   8.651   4.677   9.455 -0.4571  0.6207  0.8504
80231SOL     OW52671   1.377  12.284   1.004  0.3349 -0.1403  0.3034
80231SOL    HW152672   1.389  12.261   1.096 -0.8336  1.1905  0.8319
80231SOL    HW252673   1.352  12.376   1.006 -0.4836 -0.2981 -1.2883
80232SOL     OW52674   3.860   2.540  11.470  0.0886 -0.1661 -0.2820
80232SOL    HW152675   3.801   2.614  11.457 -2.1438 -1.6387  0.9181
80232SOL    HW252676   3.815   2.466  11.430  1.4399 -1.2392  0.1109
80233SOL     OW52677  11.216   4.914  11.061  0.0404 -0.5988 -0.1746
80233SOL    HW152678  11.161   4.980  11.020  1.2597 -0.0908 -1.0643
80233SOL    HW252679  11.155   4.856  11.106 -1.1107  0.7079  0.0134
80234SOL     OW52680   3.981   9.274   0.556 -0.2544  0.1772  0.1934
80234SOL    HW152681   3.964   9.367   0.563 -0.9340 -0.0058  1.1588
80234SOL    HW252682   3.994   9.245   0.647  0.0465 -0.6416 -0.1028
80235SOL     OW52683  12.851   2.980   4.191  0.2934 -0.8625 -0.5973
80235SOL    HW152684  12.829   2.946   4.277  0.1617  0.5396 -0.0534
80235SOL    HW252685  12.898   2.908   4.148 -0.1020 -1.7593  0.4382
80236SOL     OW52686   3.869   9.419   9.745 -0.0481 -0.0699  0.0698
80236SOL    HW152687   3.939   9.374   9.697  0.1667 -0.9383  1.1507
80236SOL    HW252688   3.896   9.511   9.746  0.4966 -0.2159 -0.4964
80237SOL     OW52689   5.052   2.514   6.031 -0.3275 -0.5715  0.3244
80237SOL    HW152690   5.017   2.572   6.099 -0.4200 -1.2836  0.9026
80237SOL    HW252691   4.992   2.523   5.958  0.1240  0.6930  0.0846
80238SOL     OW52692   6.797   2.942  10.748  0.4769  0.2447 -0.1769
80238SOL    HW152693   6.887   2.931  10.777  0.1765 -2.4639 -0.0276
80238SOL    HW252694   6.757   2.856  10.760 -1.9965  1.2254 -0.7314
80239SOL     OW52695   0.175  11.111  11.108 -0.3714 -0.3951 -0.2293
80239SOL    HW152696   0.183  11.020  11.081  0.7776 -0.1149 -0.9276
80239SOL    HW252697   0.257  11.152  11.079 -1.1711  1.0268 -0.5944
80240SOL     OW52698   1.948   1.223  10.399 -0.2711  0.6528 -0.3439
80240SOL    HW152699   1.902   1.266  10.472 -1.3379  0.5453 -0.9325
80240SOL    HW252700   1.913   1.266  10.321  0.9502  0.8518 -0.8098
80241SOL     OW52701  12.682  13.620   1.760  0.4303  0.0828  0.1222
80241SOL    HW152702  12.676  13.623   1.665 -0.4215 -1.1460  0.1073
80241SOL    HW252703  12.702  13.710   1.786 -1.7967  0.9950 -1.0689
80242SOL     OW52704   5.568   5.006   3.458 -0.0702 -0.1046 -0.2906
80242SOL    HW152705   5.518   4.936   3.417 -1.2431  0.8595 -0.5643
80242SOL    HW252706   5.508   5.080   3.462  0.2182  0.0883  2.5242
80243SOL     OW52707   0.581   5.927   7.392  0.5239 -0.3177 -0.2731
80243SOL    HW152708   0.526   5.994   7.350 -0.3415 -2.2157 -2.3951
80243SOL    HW252709   0.572   5.944   7.486 -1.7751  0.9356 -0.6438
80244SOL     OW52710  11.465   0.721   3.603 -0.2881  0.0050  0.2376
80244SOL    HW152711  11.559   0.739   3.591  0.0184 -1.3063  0.5326
80244SOL    HW252712  11.456   0.628   3.583 -1.9496  0.5851 -2.0984
80245SOL     OW52713   3.176   8.939   5.629 -0.2836 -0.2138 -0.0671
80245SOL    HW152714   3.219   8.922   5.545 -0.4608 -0.8779 -0.0286
80245SOL    HW252715   3.083   8.941   5.608 -0.2994  0.1223  0.0329
80246SOL     OW52716  10.219   0.675   2.817  0.1539  0.1767  0.0618
80246SOL    HW152717  10.300   0.633   2.790 -0.6806 -1.2549 -0.3382
80246SOL    HW252718  10.231   0.694   2.910  1.4868  1.3734 -0.3144
80247SOL     OW52719   7.724   3.187  13.707  0.1868  0.3086 -0.0240
80247SOL    HW152720   7.733   3.104  13.661  1.3066  0.1988  0.3826
80247SOL    HW252721   7.670   3.241  13.649  0.0179 -0.4694 -0.5961
80248SOL     OW52722   7.491   2.427   2.330 -0.1591  0.4574 -0.3046
80248SOL    HW152723   7.479   2.381   2.413 -0.9726 -0.8109 -1.0790
80248SOL    HW252724   7.432   2.502   2.335 -0.8290 -0.0725 -0.0371
80249SOL     OW52725   0.174   6.744   7.874  0.5116 -0.1268  0.5007
80249SOL    HW152726   0.212   6.829   7.897  0.5447  0.2173 -0.7692
80249SOL    HW252727   0.083   6.750   7.902 -0.0884  1.1833 -1.5754
80250SOL     OW52728   0.148   9.473  11.930  0.3253  0.0905 -0.3757
80250SOL    HW152729   0.078   9.527  11.967  1.5853  0.3767  1.7337
80250SOL    HW252730   0.131   9.385  11.964  0.7462  0.0713 -0.2131
80251SOL     OW52731   4.770  11.197   6.201  0.2306 -0.8778 -0.0732
80251SOL    HW152732   4.801  11.185   6.111 -0.3524  0.7188 -0.5322
80251SOL    HW252733   4.677  11.174   6.198 -0.1355  0.4884 -0.2491
80252SOL     OW52734   8.494   8.330   6.191 -0.0843  0.6101 -0.4637
80252SOL    HW152735   8.491   8.408   6.136  0.6601  0.6764 -0.4191
80252SOL    HW252736   8.407   8.291   6.182 -0.3594  1.2736 -0.7297
80253SOL     OW52737   1.929  10.875   3.277  0.0164  0.5278  0.4245
80253SOL    HW152738   1.875  10.868   3.199  0.1749 -0.9416  0.4137
80253SOL    HW252739   1.868  10.899   3.346 -0.3585  0.5559  0.0895
80254SOL     OW52740   5.526   0.933   8.588  0.1188 -0.3509 -0.0130
80254SOL    HW152741   5.580   0.890   8.522  0.1746  0.1546 -0.2981
80254SOL    HW252742   5.454   0.972   8.539 -0.8141 -1.4589  0.4155
80255SOL     OW52743  11.275   6.529   5.068  0.1897  0.0213  0.2275
80255SOL    HW152744  11.308   6.619   5.060 -0.9627  0.4293 -0.1728
80255SOL    HW252745  11.180   6.540   5.077 -0.0933 -1.2156 -1.0625
80256SOL     OW52746   1.657   8.994   8.130 -0.5386 -0.3852  0.5026
80256SOL    HW152747   1.642   8.939   8.053  0.9809 -1.0622  0.6549
80256SOL    HW252748   1.630   8.940   8.204 -0.5003 -0.3398  0.5500
80257SOL     OW52749  13.264   0.651  13.527  0.0597  0.0193 -0.0816
80257SOL    HW152750  13.204   0.648  13.602  0.0285 -0.1604 -0.1117
80257SOL    HW252751  13.220   0.708  13.464 -0.8392 -1.3119 -0.7327
80258SOL     OW52752   7.485   0.694   6.908 -0.0204 -0.4450 -0.0044
80258SOL    HW152753   7.485   0.603   6.876  0.2503 -0.8530  1.1215
80258SOL    HW252754   7.502   0.687   7.002  1.4871  0.8625 -0.1378
80259SOL     OW52755   5.360   9.148  10.566 -0.0947 -1.4991  0.0418
80259SOL    HW152756   5.394   9.232  10.538  1.0967 -1.3158  1.8493
80259SOL    HW252757   5.414   9.083  10.520  1.6482 -1.2104  1.5671
80260SOL     OW52758   2.070   6.676   0.641 -0.3724  0.4574 -0.5415
80260SOL    HW152759   2.090   6.764   0.674 -0.6829  0.3753 -0.1256
80260SOL    HW252760   2.116   6.671   0.557  0.4266  0.6749 -0.1288
80261SOL     OW52761   1.660  10.171   9.002 -0.0187 -0.0607 -0.1024
80261SOL    HW152762   1.701  10.248   8.963  0.3731  0.4450  1.2530
80261SOL    HW252763   1.651  10.193   9.095 -1.4784 -0.9718  0.0063
80262SOL     OW52764   3.373   3.773   8.268  0.8575 -0.4353  0.3857
80262SOL    HW152765   3.367   3.829   8.345  1.7621  1.9228 -1.1557
80262SOL    HW252766   3.433   3.703   8.295  1.9416  0.8731  1.5432
80263SOL     OW52767  10.995   9.256   4.074 -0.5245  0.2289  0.0368
80263SOL    HW152768  11.039   9.235   4.156 -2.7103 -3.4169  0.4817
80263SOL    HW252769  10.943   9.334   4.094 -0.9104 -0.4992  2.1303
80264SOL     OW52770  11.198  10.196  11.063 -0.1892  0.5849 -0.5072
80264SOL    HW152771  11.262  10.145  11.114 -1.7190 -0.4284  0.4608
80264SOL    HW252772  11.178  10.271  11.119 -0.3276  0.5666 -0.5340
80265SOL     OW52773  10.660   9.378   5.733 -0.2346 -0.0167 -0.1208
80265SOL    HW152774  10.754   9.378   5.749  0.0456  1.5838 -1.4786
80265SOL    HW252775  10.624   9.431   5.804  0.4020  2.6726 -1.6714
80266SOL     OW52776  13.775  11.143   8.479 -0.4300 -0.4388  0.0573
80266SOL    HW152777  13.789  11.216   8.539  1.4979 -0.0706 -0.7649
80266SOL    HW252778  13.748  11.070   8.535  1.5693 -0.1847  1.4720
80267SOL     OW52779  11.051  10.640   4.371 -0.7132  1.0825 -0.2497
80267SOL    HW152780  10.971  10.641   4.319 -0.7176  1.7090 -0.2401
80267SOL    HW252781  11.120  10.621   4.307 -0.9760 -0.6178 -0.0737
80268SOL     OW52782   8.161   5.217   9.477 -0.2591 -0.3864 -0.0175
80268SOL    HW152783   8.159   5.140   9.420 -1.2369 -0.1704 -0.2876
80268SOL    HW252784   8.082   5.209   9.530  0.9626 -0.9435  1.8297
80269SOL     OW52785  10.020   0.437  13.642 -0.0562 -0.5173 -0.0826
80269SOL    HW152786   9.942   0.465  13.690  0.2845 -1.4221  1.0323
80269SOL    HW252787  10.015   0.484  13.559 -1.4694 -0.0982  0.2171
80270SOL     OW52788  11.626  10.676   8.587 -0.1736 -0.1488 -0.0842
80270SOL    HW152789  11.648  10.582   8.585 -1.9651 -0.6871  1.7862
80270SOL    HW252790  11.552  10.681   8.647  0.5346  2.6395  0.6532
80271SOL     OW52791   2.647   3.888   7.622 -0.1465 -0.3220  0.1688
80271SOL    HW152792   2.642   3.874   7.716 -1.3065  0.6349  0.2680
80271SOL    HW252793   2.621   3.979   7.609  0.8720 -0.1734 -1.0012
80272SOL     OW52794  12.778   4.740   0.177  0.1522  0.1420 -0.4096
80272SOL    HW152795  12.820   4.824   0.196 -0.5680  0.1548  1.2554
80272SOL    HW252796  12.840   4.675   0.211 -0.0400  0.0678 -0.2012
80273SOL     OW52797  11.829   9.629   5.639  0.5474  0.3129 -0.0896
80273SOL    HW152798  11.792   9.568   5.576 -0.4044 -0.1618  0.8874
80273SOL    HW252799  11.898   9.579   5.683  1.2062  0.6415 -0.7277
80274SOL     OW52800  11.729  10.107   9.246 -0.0811  0.0268  0.4360
80274SOL    HW152801  11.769  10.036   9.196  0.7290  0.8561 -0.1234
80274SOL    HW252802  11.767  10.100   9.334 -1.8095 -1.6844  1.1081
80275SOL     OW52803   1.000  13.481  12.389  0.1462  0.1341  0.3621
80275SOL    HW152804   0.998  13.523  12.475  1.1658 -1.9427  1.4663
80275SOL    HW252805   1.086  13.505  12.353 -0.8556  2.2208 -0.7846
80276SOL     OW52806   9.168   4.527   4.105 -0.5721  0.0815 -0.3507
80276SOL    HW152807   9.091   4.505   4.052 -1.0298 -1.2530  0.8059
80276SOL    HW252808   9.149   4.490   4.191  2.6872 -3.3040 -0.8186
80277SOL     OW52809   5.635  12.594   5.132 -0.0819  0.2811  0.4290
80277SOL    HW152810   5.615  12.569   5.222 -0.9967 -1.4501 -0.2000
80277SOL    HW252811   5.717  12.549   5.112 -0.7994 -0.8146 -0.1409
80278SOL     OW52812  10.417   3.439   0.257  0.1112  0.0204 -0.4712
80278SOL    HW152813  10.455   3.482   0.180 -0.7465  0.2262 -0.7888
80278SOL    HW252814  10.490   3.432   0.318  0.0727  3.0402  0.0759
80279SOL     OW52815   3.467  13.403   0.605  0.2018  0.2765  0.1658
80279SOL    HW152816   3.432  13.422   0.518  0.5196 -0.1937 -0.0660
80279SOL    HW252817   3.538  13.466   0.617 -1.8131  2.4923  1.3746
80280SOL     OW52818   9.154   0.693   2.288 -0.3047 -0.0734  0.3626
80280SOL    HW152819   9.103   0.733   2.218  1.2725  0.3607 -0.5655
80280SOL    HW252820   9.245   0.715   2.268  0.3751 -1.8261  1.3172
80281SOL     OW52821   2.098   3.949  12.498  0.1742 -0.2469  0.1610
80281SOL    HW152822   2.105   4.030  12.447  0.4746  0.0457  0.6608
80281SOL    HW252823   2.117   3.879  12.435  3.1282  0.2185  0.3826
80282SOL     OW52824   1.570  13.741   4.823  0.0566 -0.0510 -0.2944
80282SOL    HW152825   1.504  13.797   4.784  0.4398  0.5146 -0.1444
80282SOL    HW252826   1.538  13.722   4.911  1.0729  1.9878  0.5798
80283SOL     OW52827   4.419   5.346   3.439 -0.4458  0.1393 -0.3204
80283SOL    HW152828   4.459   5.267   3.474 -0.5742 -0.7744 -2.1476
80283SOL    HW252829   4.492   5.406   3.424  0.1322 -0.9465 -2.1615
80284SOL     OW52830   2.307   4.941   3.910 -0.3824 -0.0796 -0.0968
80284SOL    HW152831   2.274   4.929   3.999  2.1853  0.0342  0.9648
80284SOL    HW252832   2.402   4.936   3.919 -0.0094  0.7134 -2.7398
80285SOL     OW52833  10.163   6.538   1.994  0.0951  0.0451 -0.2280
80285SOL    HW152834  10.238   6.556   2.051  0.2373 -0.4232 -0.2611
80285SOL    HW252835  10.199   6.483   1.924 -0.5376 -1.3265  0.4702
80286SOL     OW52836   2.557  11.367   7.531  0.0390  0.3045 -0.3936
80286SOL    HW152837   2.622  11.298   7.515 -0.6168 -0.2328 -0.7954
80286SOL    HW252838   2.530  11.394   7.443  0.3708  1.1582 -0.2360
80287SOL     OW52839  12.843  12.374   5.956  0.4088 -0.0175 -0.3321
80287SOL    HW152840  12.815  12.362   5.866 -0.1255  0.5822 -0.2548
80287SOL    HW252841  12.927  12.329   5.962  2.0400  2.5574 -1.9647
80288SOL     OW52842   4.314  11.369   8.162  0.3462  0.1119  0.4787
80288SOL    HW152843   4.327  11.275   8.151 -0.3526  0.0613 -0.0107
80288SOL    HW252844   4.224  11.384   8.134 -0.4801  0.5226  3.0240
80289SOL     OW52845   9.576  11.009  12.315 -0.0602 -0.2671 -0.4676
80289SOL    HW152846   9.627  10.994  12.235  1.2789 -2.9491  0.7789
80289SOL    HW252847   9.627  11.075  12.363  0.2192 -0.1500 -0.9106
80290SOL     OW52848   6.497  13.345   2.997 -0.2317  0.6938 -0.2094
80290SOL    HW152849   6.506  13.437   2.971  1.5641  0.3402 -1.0044
80290SOL    HW252850   6.580  13.305   2.971 -0.8621 -1.0959  0.4078
80291SOL     OW52851   8.960   4.276  13.307 -0.1433  0.0988  0.2169
80291SOL    HW152852   8.879   4.247  13.349 -0.3261  0.5025  0.1434
80291SOL    HW252853   8.956   4.371  13.311  0.4419  0.1196  0.4338
80292SOL     OW52854   4.762   3.267   0.779 -0.5975 -0.2425 -0.1225
80292SOL    HW152855   4.704   3.191   0.778  0.4586 -1.0812 -1.1803
80292SOL    HW252856   4.841   3.237   0.825 -0.3242  0.3210 -0.2098
80293SOL     OW52857  12.678   8.499   4.225 -0.0975  0.1895  0.1095
80293SOL    HW152858  12.747   8.533   4.168 -0.4502 -0.7174 -0.8989
80293SOL    HW252859  12.722   8.478   4.307  1.0365 -1.2184 -0.8134
80294SOL     OW52860   0.934   2.741   2.369 -0.1649  0.5181 -0.0099
80294SOL    HW152861   0.988   2.760   2.446 -1.1126 -0.2259  0.8765
80294SOL    HW252862   0.985   2.772   2.295  1.1533  0.4849  0.8597
80295SOL     OW52863   8.957   9.747   4.351  0.2683 -0.4564 -0.0023
80295SOL    HW152864   8.862   9.757   4.341  0.0384 -2.2132  0.1983
80295SOL    HW252865   8.972   9.765   4.444  0.2585  0.5381 -0.1763
80296SOL     OW52866   6.029   6.431   7.441  0.2536 -0.2143 -0.4562
80296SOL    HW152867   5.981   6.379   7.505 -1.1435  0.8967 -0.5523
80296SOL    HW252868   6.119   6.431   7.473 -0.7269  2.1302  2.8295
80297SOL     OW52869   4.108   6.299   6.516 -0.0551  0.3449 -0.3208
80297SOL    HW152870   4.152   6.220   6.547  0.7303  0.9859  0.2491
80297SOL    HW252871   4.106   6.357   6.593 -2.6945  0.0325 -0.0571
80298SOL     OW52872   7.069   3.437   5.008  0.1985 -0.1777 -0.0179
80298SOL    HW152873   7.092   3.347   4.984  0.5008 -0.3892  1.0400
80298SOL    HW252874   7.152   3.480   5.026  0.0269  0.2059 -0.1108
80299SOL     OW52875   3.287  13.769   1.736  1.0046 -0.8406 -0.0545
80299SOL    HW152876   3.319  13.859   1.733 -1.2791  0.0537  0.4840
80299SOL    HW252877   3.264  13.754   1.828  1.0972 -1.8820 -0.1821
80300SOL     OW52878   5.387  11.193  11.423 -0.3785 -0.4604 -0.4350
80300SOL    HW152879   5.341  11.113  11.447 -1.0308  0.0433  0.0599
80300SOL    HW252880   5.317  11.255  11.401  0.1483 -0.2994 -1.7108
80301SOL     OW52881   2.656   2.901  13.424  0.4722 -0.2379  0.0699
80301SOL    HW152882   2.618   2.912  13.511 -1.7589 -0.3528 -0.8271
80301SOL    HW252883   2.691   2.987  13.401  0.4046 -0.0193  0.7833
80302SOL     OW52884  10.547  12.580  13.071  0.5101  0.5303 -0.1450
80302SOL    HW152885  10.472  12.638  13.081  1.9274  2.1806  1.4521
80302SOL    HW252886  10.563  12.578  12.977 -0.3160  1.7551 -0.3306
80303SOL     OW52887  10.407   3.854  11.324  0.5236  0.0055  0.0547
80303SOL    HW152888  10.342   3.844  11.394  1.1273 -1.0174  0.4822
80303SOL    HW252889  10.378   3.932  11.276  0.3380  0.9768  1.6846
80304SOL     OW52890  11.764  11.179  11.192 -0.0748 -0.1734  0.0787
80304SOL    HW152891  11.759  11.108  11.129 -3.2115  0.2329 -0.2841
80304SOL    HW252892  11.797  11.254  11.142  0.6933 -0.6796 -0.1860
80305SOL     OW52893   2.646  10.017   7.313 -0.0289 -0.0748 -0.4428
80305SOL    HW152894   2.671  10.017   7.406  0.1199 -0.2312 -0.4823
80305SOL    HW252895   2.666   9.929   7.283  1.2372  0.3756 -0.9778
80306SOL     OW52896   1.954  13.211   6.715  0.0433 -0.2770 -0.2637
80306SOL    HW152897   1.941  13.129   6.764  1.1789 -0.5739 -0.4159
80306SOL    HW252898   1.896  13.203   6.639 -1.2248 -0.1115  0.6483
80307SOL     OW52899   6.192   1.196   6.654  0.1880 -0.0758 -0.2059
80307SOL    HW152900   6.103   1.226   6.671  0.6036  0.8664  0.3699
80307SOL    HW252901   6.214   1.233   6.569  0.0098 -0.3710 -0.3828
80308SOL     OW52902   6.444   3.376  12.865 -0.0126  0.2677  0.0183
80308SOL    HW152903   6.435   3.363  12.770 -2.4245 -1.1063  0.3393
80308SOL    HW252904   6.453   3.471  12.875 -0.8181  0.5588 -1.5540
80309SOL     OW52905  13.048  10.151   1.004  0.7979 -0.6621 -0.5646
80309SOL    HW152906  13.012  10.065   1.025 -0.1745 -0.4427 -1.2379
80309SOL    HW252907  13.136  10.133   0.971  0.2080 -1.5152 -1.7540
80310SOL     OW52908   5.383  13.680  10.402 -0.0398 -0.3292 -0.0012
80310SOL    HW152909   5.459  13.628  10.429  0.5556  0.1479 -0.6836
80310SOL    HW252910   5.420  13.744  10.340 -0.9367  0.1711 -0.0297
80311SOL     OW52911   7.650   4.139   4.976  0.5785  0.6030  0.7510
80311SOL    HW152912   7.687   4.149   5.064  0.6310  0.6003  0.7293
80311SOL    HW252913   7.681   4.216   4.928  0.5083  0.6298  0.7494
80312SOL     OW52914   5.874   8.273   3.489 -0.1026 -0.0125  0.5856
80312SOL    HW152915   5.896   8.344   3.549  0.1679  0.3064  0.1174
80312SOL    HW252916   5.914   8.299   3.405 -0.9873 -0.1513  0.1072
80313SOL     OW52917   1.162   0.042   1.698 -0.1022 -0.0297  0.0213
80313SOL    HW152918   1.151   0.073   1.608  1.9061  1.5555  0.2536
80313SOL    HW252919   1.243   0.083   1.728  0.2620 -1.9762  1.9601
80314SOL     OW52920   9.794  13.697   5.415 -0.2040  0.0521  0.3614
80314SOL    HW152921   9.738  13.710   5.339 -2.5197 -0.6101  1.8638
80314SOL    HW252922   9.812  13.785   5.448 -0.7324  0.2472  0.1199
80315SOL     OW52923   2.706  10.524  12.420 -0.4182  0.0452 -0.2351
80315SOL    HW152924   2.711  10.486  12.332 -2.4823  1.5474 -1.0970
80315SOL    HW252925   2.691  10.450  12.478 -1.3518 -0.7756 -1.4749
80316SOL     OW52926  12.226   0.726   9.057 -0.1693  0.7484 -0.0948
80316SOL    HW152927  12.142   0.694   9.025  0.0732 -0.7341  0.6121
80316SOL    HW252928  12.288   0.656   9.034  0.6512  1.3018  0.3749
80317SOL     OW52929   6.116   0.378   7.843  0.0070  0.0809 -0.3760
80317SOL    HW152930   6.085   0.290   7.821 -0.8067  0.2738 -0.0133
80317SOL    HW252931   6.047   0.415   7.898 -0.7974  1.8139 -2.4336
80318SOL     OW52932   8.971   0.812   8.482 -0.4909 -0.5013 -0.2079
80318SOL    HW152933   8.920   0.841   8.406 -0.6295  2.5017  0.9351
80318SOL    HW252934   8.954   0.718   8.486 -0.8840 -0.7221 -3.5615
80319SOL     OW52935  11.924   7.424  10.525  0.2475  0.2620  0.1420
80319SOL    HW152936  11.865   7.356  10.557  1.2486 -0.6930  0.0549
80319SOL    HW252937  11.882   7.457  10.446  0.8807 -2.0951 -1.3023
80320SOL     OW52938   9.386   4.657   2.062 -0.0633 -0.4443  0.4987
80320SOL    HW152939   9.409   4.634   1.972 -0.8045 -0.3253  0.2753
80320SOL    HW252940   9.334   4.583   2.093  1.3775 -1.1465  1.3171
80321SOL     OW52941   7.249   0.303   7.370 -0.6860 -0.3078  0.5004
80321SOL    HW152942   7.223   0.359   7.298 -1.6543 -1.4886 -0.0990
80321SOL    HW252943   7.333   0.339   7.399 -0.3337  0.2663 -1.1280
80322SOL     OW52944   5.362  11.271   3.637 -0.3956 -0.0341 -0.0580
80322SOL    HW152945   5.379  11.359   3.671 -1.5511 -0.2823  1.2461
80322SOL    HW252946   5.266  11.265   3.634 -0.3311 -0.8491 -1.2670
80323SOL     OW52947   7.422   1.220  13.909 -0.3183 -0.1310 -0.5402
80323SOL    HW152948   7.509   1.215  13.949  0.8122  2.6890 -2.2943
80323SOL    HW252949   7.386   1.132  13.918  2.9410 -1.5884 -0.2659
80324SOL     OW52950  12.451   3.582  13.910 -0.1657 -0.5798 -0.4423
80324SOL    HW152951  12.402   3.578  13.992 -0.9722  0.0453 -0.8848
80324SOL    HW252952  12.395   3.539  13.846 -0.4282  0.6981 -1.0899
80325SOL     OW52953   5.792   6.314   7.919 -0.9144 -0.2567 -0.1354
80325SOL    HW152954   5.819   6.317   8.010  2.2053  2.2726 -0.9523
80325SOL    HW252955   5.713   6.368   7.915  0.1332  1.4203  0.8135
80326SOL     OW52956   2.225   9.571  13.290  0.4465 -0.1439  0.5735
80326SOL    HW152957   2.208   9.636  13.358  2.1015  2.2755 -1.1659
80326SOL    HW252958   2.316   9.545  13.304  1.2330  1.3531 -1.3856
80327SOL     OW52959  12.151   6.892  13.195  1.1060  0.0851  0.0176
80327SOL    HW152960  12.096   6.814  13.196  0.5476  0.4250  2.2959
80327SOL    HW252961  12.230   6.866  13.242  0.8442  0.9088  0.9483
80328SOL     OW52962  11.030   2.472  10.594 -0.2545  0.5817  0.5201
80328SOL    HW152963  10.938   2.449  10.610  0.0233  0.4789  2.0607
80328SOL    HW252964  11.037   2.562  10.625  0.0444  0.7817 -0.1175
80329SOL     OW52965   8.692   0.131   9.306 -0.3813  0.1352 -0.4418
80329SOL    HW152966   8.632   0.068   9.267  0.8681 -0.3259 -1.6929
80329SOL    HW252967   8.738   0.169   9.232  0.0944  1.2895  0.4179
80330SOL     OW52968   4.889   6.935   4.638  0.0473 -0.1209  0.1610
80330SOL    HW152969   4.964   6.942   4.579  1.1460  0.8471  1.5917
80330SOL    HW252970   4.905   6.854   4.687  0.2159  0.1448  0.5452
80331SOL     OW52971   3.952  11.061   3.932 -0.0931 -0.4164  0.0022
80331SOL    HW152972   4.043  11.091   3.941 -0.9223  2.8507 -1.0169
80331SOL    HW252973   3.924  11.043   4.022  1.0991  0.0861  0.5071
80332SOL     OW52974   6.014   7.760   4.199 -0.0100  0.4454  0.6733
80332SOL    HW152975   6.054   7.693   4.144 -0.5864  1.5889 -1.2379
80332SOL    HW252976   5.935   7.786   4.151 -1.6678  0.0965  3.0523
80333SOL     OW52977   3.263   0.889  13.769 -0.1535 -0.0624  0.7644
80333SOL    HW152978   3.354   0.914  13.752  0.3401 -0.6261  2.4493
80333SOL    HW252979   3.216   0.918  13.691  1.1794  1.8086  0.5845
80334SOL     OW52980   0.950  13.817  12.256  0.2993  0.3243 -0.3467
80334SOL    HW152981   0.865  13.797  12.296 -0.3453 -0.4094 -1.9683
80334SOL    HW252982   0.946  13.911  12.239  0.4308  0.5754  0.9111
80335SOL     OW52983   1.502  12.498   8.683  0.0870  0.2328 -0.1053
80335SOL    HW152984   1.581  12.450   8.707  0.8053  1.0783 -0.6727
80335SOL    HW252985   1.528  12.547   8.604 -0.6371  1.4256  0.3826
80336SOL     OW52986   9.622   5.613   5.780 -0.1754 -0.6868  0.3720
80336SOL    HW152987   9.712   5.641   5.800  0.2132 -1.8323  0.2895
80336SOL    HW252988   9.597   5.665   5.704  0.7665 -1.0073 -0.1741
80337SOL     OW52989   9.167  14.004   7.797  0.1496  0.3962 -0.3954
80337SOL    HW152990   9.230  13.969   7.734  1.2900  0.0100  0.9107
80337SOL    HW252991   9.202  14.090   7.821  0.3806  0.0292  0.6070
80338SOL     OW52992   3.867  12.326   2.028 -0.7364  0.0624  0.6654
80338SOL    HW152993   3.803  12.395   2.014  1.3735  2.2178  1.0645
80338SOL    HW252994   3.895  12.300   1.940  0.0425  1.3203  0.5257
80339SOL     OW52995  10.189   3.390   9.457 -0.5952  0.1857 -0.4686
80339SOL    HW152996  10.217   3.320   9.397 -0.8367  1.3330 -2.0033
80339SOL    HW252997  10.225   3.365   9.542  0.6071 -1.0332 -1.2899
80340SOL     OW52998   0.010   0.925   0.907 -0.6700 -0.1179  0.1460
80340SOL    HW152999   0.106   0.922   0.910 -0.6025  1.7532  2.2043
80340SOL    HW253000  -0.018   0.873   0.982 -1.3020 -0.8732 -0.5999
80341SOL     OW53001  13.163   8.033  12.789 -0.0429 -0.3704 -0.2831
80341SOL    HW153002  13.148   8.128  12.788  0.0185 -0.3601 -0.2019
80341SOL    HW253003  13.104   7.999  12.722 -0.1383 -0.2855 -0.2421
80342SOL     OW53004   0.726  11.099   8.343  0.0411 -0.1075 -0.4352
80342SOL    HW153005   0.700  11.128   8.255 -0.3835 -2.6195 -1.2179
80342SOL    HW253006   0.644  11.098   8.393 -0.0765 -0.5989 -0.6277
80343SOL     OW53007   6.655  10.232  11.633  0.2009 -0.0056  0.3019
80343SOL    HW153008   6.606  10.152  11.616 -2.4420  1.1538  1.9290
80343SOL    HW253009   6.648  10.282  11.552  0.6242 -0.7751 -0.2255
80344SOL     OW53010   8.164   1.097   1.325 -0.2351 -0.5773 -0.7068
80344SOL    HW153011   8.231   1.155   1.362 -0.7121 -1.2450  1.3899
80344SOL    HW253012   8.192   1.081   1.235  0.9228  1.3407 -0.7381
80345SOL     OW53013  11.946   0.174   5.425 -0.0792 -0.1816 -0.5073
80345SOL    HW153014  11.898   0.127   5.493 -0.6442  1.7087  0.4601
80345SOL    HW253015  12.003   0.107   5.386 -0.8145 -1.6442  0.7988
80346SOL     OW53016   5.834   6.540  12.074  0.5709 -0.2517 -0.5502
80346SOL    HW153017   5.895   6.519  12.145  0.9755 -0.0030 -0.8206
80346SOL    HW253018   5.866   6.490  11.999  0.8557  0.4266 -0.8832
80347SOL     OW53019   3.202   3.590   3.191  0.1632 -0.4700 -0.0323
80347SOL    HW153020   3.272   3.526   3.204 -0.4828 -1.0486  0.6900
80347SOL    HW253021   3.247   3.675   3.192  0.8309 -0.8171  0.6597
80348SOL     OW53022   9.435   6.262  11.256 -0.4368 -0.0957 -0.2721
80348SOL    HW153023   9.431   6.221  11.342  1.4061  0.8218  0.3161
80348SOL    HW253024   9.374   6.212  11.202 -1.1212 -1.1178  1.3814
80349SOL     OW53025  13.856   0.819   8.647 -0.3704 -0.1171 -0.7733
80349SOL    HW153026  13.880   0.745   8.702  2.8375  1.6495  0.4783
80349SOL    HW253027  13.793   0.869   8.699  1.7071  0.8920  0.9002
80350SOL     OW53028   1.468   4.759   2.668  0.3021 -0.3380 -0.7114
80350SOL    HW153029   1.531   4.831   2.672 -0.3771  0.2384  1.7218
80350SOL    HW253030   1.384   4.802   2.650  0.0327 -0.5860 -0.0899
80351SOL     OW53031  11.774   4.752  11.415  0.4296 -0.0673 -0.3456
80351SOL    HW153032  11.823   4.688  11.364  0.3113  1.0011 -1.8865
80351SOL    HW253033  11.812   4.837  11.390 -1.0201  0.6494 -0.2392
80352SOL     OW53034   7.959   9.591  13.517 -0.1955 -0.1823 -0.2515
80352SOL    HW153035   8.030   9.529  13.535  1.2551  2.1657  3.1497
80352SOL    HW253036   7.988   9.639  13.439  1.1860 -0.2942  0.1801
80353SOL     OW53037   5.088  11.549   5.340 -0.1325 -0.6650 -0.4586
80353SOL    HW153038   5.004  11.539   5.296 -0.8147 -0.6046  0.7892
80353SOL    HW253039   5.105  11.463   5.380 -0.2102 -0.3355  0.3145
80354SOL     OW53040   6.244  13.326   8.776  0.4800  0.6408 -0.1547
80354SOL    HW153041   6.282  13.352   8.859  1.8175 -0.1736 -0.4886
80354SOL    HW253042   6.237  13.230   8.781 -0.2437  0.6516 -0.6516
80355SOL     OW53043   6.005  12.954   4.511 -0.4766 -0.7633 -0.7334
80355SOL    HW153044   6.066  12.936   4.583 -0.9968 -0.3782 -0.1822
80355SOL    HW253045   6.061  12.978   4.437  0.0675 -1.1741 -0.4641
80356SOL     OW53046  12.554   3.095   3.403  0.4177 -0.0500  0.1732
80356SOL    HW153047  12.542   3.006   3.373 -0.4277 -0.4157  1.4910
80356SOL    HW253048  12.484   3.145   3.360  0.9249  0.0127 -0.6055
80357SOL     OW53049   9.253   0.655   6.863  0.1149 -0.4578  0.3409
80357SOL    HW153050   9.295   0.635   6.947  0.4083 -1.9906 -0.1394
80357SOL    HW253051   9.160   0.668   6.886  0.4411  0.7223  1.0925
80358SOL     OW53052   3.056  10.847   3.853 -0.2443  0.6604  0.6740
80358SOL    HW153053   3.146  10.818   3.860 -0.2963  0.4624  0.5275
80358SOL    HW253054   3.052  10.928   3.904 -0.5919 -0.6942  2.9335
80359SOL     OW53055  11.988   5.371   3.824  0.2029 -0.4179  0.1865
80359SOL    HW153056  11.994   5.387   3.730  0.7242  1.4648  0.4869
80359SOL    HW253057  11.894   5.371   3.843  0.1125 -0.2921 -0.2574
80360SOL     OW53058   5.754   1.143   0.595 -0.3763  0.2105  0.2713
80360SOL    HW153059   5.785   1.123   0.684  0.9680 -1.4753 -0.5134
80360SOL    HW253060   5.674   1.092   0.586 -0.8606  0.8714  0.6960
80361SOL     OW53061   5.218  12.489   5.429  0.0071  0.2153  0.3653
80361SOL    HW153062   5.205  12.502   5.335  2.8598 -1.4865 -0.3972
80361SOL    HW253063   5.169  12.410   5.449  1.7550 -1.1525 -0.4642
80362SOL     OW53064   1.865  13.295  12.747 -0.4616  0.2109 -0.4417
80362SOL    HW153065   1.931  13.356  12.712  0.3554 -0.6710 -0.4652
80362SOL    HW253066   1.830  13.251  12.670 -2.3642  1.8811 -0.6202
80363SOL     OW53067   7.517   2.332   1.529  0.3448  0.7120 -0.4346
80363SOL    HW153068   7.548   2.361   1.444  1.9564 -1.4929 -0.6872
80363SOL    HW253069   7.586   2.275   1.562 -1.4928 -0.8363  1.0392
80364SOL     OW53070  12.272   5.313   6.956 -0.3152 -0.4087 -0.2319
80364SOL    HW153071  12.361   5.278   6.963 -0.7808 -1.9253 -1.2653
80364SOL    HW253072  12.277   5.374   6.883  0.0564  0.1564  0.2588
80365SOL     OW53073   0.181   1.771   2.982  0.2432  0.0095 -0.9981
80365SOL    HW153074   0.173   1.806   2.894 -0.7885  2.3211 -0.0700
80365SOL    HW253075   0.092   1.743   3.006  0.4401 -0.2578 -0.5475
80366SOL     OW53076  11.443   4.116   2.505  0.1436 -0.2519  0.0202
80366SOL    HW153077  11.493   4.074   2.435  1.1687 -1.4310  1.3992
80366SOL    HW253078  11.384   4.047   2.537  0.0828  0.1048  0.6959
80367SOL     OW53079   4.263  12.852   9.553 -0.2738 -0.3501  0.3489
80367SOL    HW153080   4.278  12.854   9.648  0.3145 -0.8483  0.2695
80367SOL    HW253081   4.350  12.857   9.514 -0.5098 -0.1814 -0.1692
80368SOL     OW53082   4.793   1.990  12.550 -0.2635  0.5913 -0.1947
80368SOL    HW153083   4.747   2.067  12.583 -1.1009  0.9824 -2.1361
80368SOL    HW253084   4.800   2.005  12.456  2.4968 -0.1994 -0.1915
80369SOL     OW53085   0.475   1.723  13.432  0.3759  0.4564 -0.3497
80369SOL    HW153086   0.510   1.708  13.344  0.8038 -3.0112  0.2676
80369SOL    HW253087   0.381   1.734  13.418  0.6666  1.8957 -1.3672
80370SOL     OW53088   8.257  12.297   4.060  0.1639  0.0942  0.2586
80370SOL    HW153089   8.328  12.359   4.075  1.8282 -1.8883  0.8687
80370SOL    HW253090   8.275  12.224   4.119 -0.3109 -2.1332 -2.1545
80371SOL     OW53091   4.507  12.914   1.294  0.3896 -1.0019 -0.0377
80371SOL    HW153092   4.495  12.846   1.227 -1.1122 -1.1305  0.3385
80371SOL    HW253093   4.421  12.955   1.303  0.6779 -0.6746  1.4750
80372SOL     OW53094  10.017   8.518   8.960  0.1245 -0.2096 -0.3360
80372SOL    HW153095   9.998   8.531   9.053 -1.2697 -1.3924 -0.4068
80372SOL    HW253096   9.931   8.503   8.920  0.7113  0.1582 -1.8048
80373SOL     OW53097   0.526   1.984   6.574  0.1705  0.3858 -0.1064
80373SOL    HW153098   0.446   2.002   6.623  0.5697  0.0914  0.6623
80373SOL    HW253099   0.499   1.926   6.503  0.0580 -1.5322  1.4323
80374SOL     OW53100   7.744   5.029   2.852 -0.2186  0.0039 -0.3208
80374SOL    HW153101   7.684   4.981   2.795  1.1787  0.1131 -1.9711
80374SOL    HW253102   7.807   5.070   2.792 -0.4540  2.7038  1.0939
80375SOL     OW53103   4.456   2.458   4.827  0.0486 -0.7350 -0.0688
80375SOL    HW153104   4.396   2.406   4.773  0.2068  0.0743 -1.0581
80375SOL    HW253105   4.498   2.393   4.884 -0.8521 -1.4805 -0.2185
80376SOL     OW53106   4.793  10.965  13.845 -0.1588  0.1980 -0.3268
80376SOL    HW153107   4.705  10.973  13.884  0.6654 -2.5141  2.4589
80376SOL    HW253108   4.776  10.946  13.752 -2.6125 -1.3013  0.3318
80377SOL     OW53109   7.926   7.847  12.618 -0.3807  0.0433  0.0107
80377SOL    HW153110   7.875   7.843  12.699  0.7712  0.1394  0.7686
80377SOL    HW253111   7.967   7.760  12.612 -1.4370 -0.4112 -1.1600
80378SOL     OW53112   1.791   6.481  13.647  0.5135  0.1343 -0.1622
80378SOL    HW153113   1.883   6.500  13.666  0.0159  0.2968  2.5504
80378SOL    HW253114   1.760   6.558  13.600  1.6085  0.3681 -0.5269
80379SOL     OW53115   0.886   5.573   4.565  0.0097  0.5778  0.3834
80379SOL    HW153116   0.952   5.606   4.503  0.9849 -0.5695  0.7720
80379SOL    HW253117   0.842   5.502   4.517  0.8414 -0.3871  1.0230
80380SOL     OW53118   0.819   8.089   2.475 -0.2130 -0.1038  0.3534
80380SOL    HW153119   0.771   8.140   2.541  1.6955  2.2679  0.0895
80380SOL    HW253120   0.902   8.136   2.465  0.7394 -2.0281 -1.6844
80381SOL     OW53121  11.962   2.592   1.946  0.0198  0.3484  0.5532
80381SOL    HW153122  11.888   2.624   1.997 -0.7271 -2.0785  1.1202
80381SOL    HW253123  12.031   2.575   2.010  1.2373  2.7870  0.0073
80382SOL     OW53124   3.519   6.867   6.114 -1.1069  0.2309 -0.2798
80382SOL    HW153125   3.579   6.894   6.184  0.5592 -1.6630 -0.8679
80382SOL    HW253126   3.440   6.919   6.129 -0.3200  0.8884  2.1625
80383SOL     OW53127   6.132  10.459   3.679 -0.2355 -0.0404 -0.1449
80383SOL    HW153128   6.149  10.485   3.770 -1.3320 -0.1200  0.0973
80383SOL    HW253129   6.037  10.448   3.675 -0.2524  0.4159 -1.4220
80384SOL     OW53130   1.285  11.301   3.209  0.0593 -0.5689  0.1126
80384SOL    HW153131   1.318  11.381   3.249 -0.3685 -0.7783  0.9246
80384SOL    HW253132   1.189  11.310   3.214 -0.0013 -1.3863  0.7926
80385SOL     OW53133  12.132   5.019   8.267  0.1561  0.4081  0.3461
80385SOL    HW153134  12.150   4.959   8.340  1.1038  1.4784  1.0259
80385SOL    HW253135  12.042   4.997   8.241 -0.0685 -0.2726  1.5725
80386SOL     OW53136   4.882   0.197  11.364  0.5233 -0.0867 -0.3459
80386SOL    HW153137   4.819   0.256  11.325 -0.7745 -1.3304 -0.2162
80386SOL    HW253138   4.959   0.202  11.307  0.2523  1.3152 -0.6046
80387SOL     OW53139   8.885   5.226   9.307  0.1463  0.0015  0.2172
80387SOL    HW153140   8.891   5.315   9.341  0.0792  0.1256 -0.0993
80387SOL    HW253141   8.866   5.236   9.214 -0.9182 -0.3556  0.3874
80388SOL     OW53142  10.433   6.777  13.805  0.0069 -0.1482  0.1354
80388SOL    HW153143  10.478   6.696  13.783 -2.0853 -0.7449 -2.4419
80388SOL    HW253144  10.344   6.750  13.827 -0.6573  1.4115 -0.4925
80389SOL     OW53145  13.075   8.701   1.636 -0.0255 -0.0050  0.1300
80389SOL    HW153146  12.996   8.662   1.598  0.2408 -0.9670  0.5350
80389SOL    HW253147  13.131   8.626   1.656  0.7217  0.6305  0.4420
80390SOL     OW53148   0.648  13.407   1.347 -0.1182 -0.0341 -0.0296
80390SOL    HW153149   0.570  13.402   1.292 -0.4293 -0.1144  0.4128
80390SOL    HW253150   0.677  13.498   1.339  0.3277 -0.2489 -0.9840
80391SOL     OW53151   8.591  12.075   9.485 -0.3750  0.3352 -0.1265
80391SOL    HW153152   8.684  12.099   9.487 -0.3525  0.2146  0.5480
80391SOL    HW253153   8.546  12.156   9.461 -0.1652  0.6329  0.4732
80392SOL     OW53154  10.788   5.506  10.802  0.4361 -0.1725 -0.2170
80392SOL    HW153155  10.831   5.568  10.860  0.8769  0.2194 -0.9358
80392SOL    HW253156  10.811   5.536  10.714 -1.2582 -0.0044 -0.6246
80393SOL     OW53157  12.584   3.109   4.386 -0.1453  0.4574 -0.4094
80393SOL    HW153158  12.618   3.155   4.462 -0.3442  1.4982 -0.9327
80393SOL    HW253159  12.589   3.016   4.409 -2.0806  0.8049  1.6705
80394SOL     OW53160   3.073   5.268   5.604 -0.5262  0.0961  0.0274
80394SOL    HW153161   2.989   5.285   5.560 -0.2389  1.1904 -0.1136
80394SOL    HW253162   3.070   5.322   5.683  0.3510  0.7341 -0.3582
80395SOL     OW53163   7.462   0.825   0.475 -0.1317 -0.5268 -0.6867
80395SOL    HW153164   7.384   0.769   0.481 -0.5819  0.2494  1.2581
80395SOL    HW253165   7.443   0.884   0.402 -1.0269 -0.8689 -0.7470
80396SOL     OW53166   7.680   7.869   8.331  0.1666 -1.3208  0.6572
80396SOL    HW153167   7.720   7.847   8.415  2.8386 -0.8619 -0.4067
80396SOL    HW253168   7.672   7.964   8.333 -1.2450 -1.4305  0.9805
80397SOL     OW53169   8.848  12.192   6.043  0.0125 -0.0547  0.0669
80397SOL    HW153170   8.891  12.201   5.958  0.4344  0.8215  0.3553
80397SOL    HW253171   8.920  12.184   6.106 -0.2954 -2.5316  0.2003
80398SOL     OW53172  13.532   4.629   2.684  0.2079 -0.5763  0.1428
80398SOL    HW153173  13.584   4.685   2.742 -0.4979  0.8615 -0.5554
80398SOL    HW253174  13.588   4.616   2.608  0.3640 -0.8032  0.2956
80399SOL     OW53175   7.329  11.182  12.578 -0.1797  0.3752  0.0094
80399SOL    HW153176   7.297  11.211  12.664 -0.8909 -0.3477 -0.0029
80399SOL    HW253177   7.262  11.123  12.546  0.4316  0.0639 -0.7325
80400SOL     OW53178  13.598   9.260   2.186  0.3100 -0.8521 -0.2995
80400SOL    HW153179  13.595   9.201   2.262 -0.4212 -0.1394  0.2371
80400SOL    HW253180  13.509   9.258   2.151  0.3328 -0.2221 -0.3982
80401SOL     OW53181   9.871   3.728   5.059  1.2387  0.0656 -0.5510
80401SOL    HW153182   9.824   3.809   5.037  0.6632 -0.0462  0.2287
80401SOL    HW253183   9.805   3.659   5.050  1.3538 -0.1440  0.1625
80402SOL     OW53184   1.086  12.150   8.158 -0.1005  0.2776  0.0575
80402SOL    HW153185   1.146  12.117   8.091 -2.8598 -0.6988 -2.1598
80402SOL    HW253186   1.063  12.073   8.210 -0.8438  0.2210 -0.3385
80403SOL     OW53187   1.523   4.673  11.101  0.0812  0.3128  0.8542
80403SOL    HW153188   1.468   4.751  11.101 -0.6792 -0.2142  1.1856
80403SOL    HW253189   1.482   4.614  11.038  2.3642  1.3264 -1.7505
80404SOL     OW53190  12.551   3.390  10.248  0.1593 -0.2408  0.1533
80404SOL    HW153191  12.466   3.431  10.261 -1.0875 -2.4126 -0.6453
80404SOL    HW253192  12.543   3.304  10.289  2.3356 -0.1303  0.9521
80405SOL     OW53193  11.278   3.917  11.811 -0.0540  0.0300  0.2004
80405SOL    HW153194  11.264   3.944  11.902 -1.0442 -0.1313  0.1142
80405SOL    HW253195  11.191   3.923  11.771  0.3518  0.0029 -0.7141
80406SOL     OW53196   7.388   4.771   7.177 -0.3837 -0.0234 -0.2419
80406SOL    HW153197   7.450   4.800   7.111 -0.7962 -0.5281 -0.8588
80406SOL    HW253198   7.440   4.765   7.258  0.2218  0.1485 -0.6109
80407SOL     OW53199   4.105   4.968   5.395  0.1072 -0.1184 -0.0485
80407SOL    HW153200   4.181   4.909   5.395  0.0406 -0.2453 -1.6043
80407SOL    HW253201   4.131   5.041   5.338 -0.5644  0.3389  0.2189
80408SOL     OW53202   5.430   9.790   9.666 -0.0601 -0.3238  0.4667
80408SOL    HW153203   5.404   9.765   9.755  0.2439 -1.4728  0.2574
80408SOL    HW253204   5.407   9.714   9.613  0.2086  0.1624 -0.3497
80409SOL     OW53205   4.220   5.435   3.595 -0.4562  0.9123  0.9231
80409SOL    HW153206   4.287   5.409   3.532 -1.5137  1.2877 -0.3999
80409SOL    HW253207   4.175   5.354   3.617 -1.3456  1.0394 -0.3401
80410SOL     OW53208   3.654   4.914   4.517  0.2297 -0.1535  0.1476
80410SOL    HW153209   3.724   4.873   4.567  2.5479  0.1180 -2.5991
80410SOL    HW253210   3.667   5.008   4.530 -1.2313 -0.1066  1.5514
80411SOL     OW53211   1.292   8.923   3.249  0.0334  0.0307  0.1876
80411SOL    HW153212   1.336   8.868   3.185 -0.6907 -0.8434  0.4309
80411SOL    HW253213   1.207   8.882   3.263  0.6911 -0.6383  2.7568
80412SOL     OW53214   0.752  12.916  11.668 -0.3319 -0.5411  0.0961
80412SOL    HW153215   0.764  12.903  11.762  1.4742 -1.8781 -0.2681
80412SOL    HW253216   0.731  12.828  11.635 -1.3310 -0.0167 -0.7099
80413SOL     OW53217   1.948  12.325  12.876 -0.0147 -0.9076  0.3907
80413SOL    HW153218   2.018  12.273  12.835  0.0948  0.8488 -1.9068
80413SOL    HW253219   1.949  12.408  12.827 -1.8601  0.2606  2.1769
80414SOL     OW53220   3.658  12.044   6.157  0.0263 -0.0836  0.2655
80414SOL    HW153221   3.566  12.032   6.183 -0.2360  1.0864 -0.0574
80414SOL    HW253222   3.707  11.984   6.213 -0.9214 -0.5639  0.5939
80415SOL     OW53223   4.082   6.756   6.829  0.2611 -0.6508 -1.2058
80415SOL    HW153224   4.034   6.839   6.830  0.2613 -0.6511 -0.3704
80415SOL    HW253225   4.013   6.689   6.831  0.2703 -0.6557 -0.9165
80416SOL     OW53226  11.218  12.023   5.183  0.0318  0.1874  0.0750
80416SOL    HW153227  11.240  12.112   5.156  0.4338  0.0507 -0.0621
80416SOL    HW253228  11.227  11.971   5.103  0.7120 -0.1311  0.3415
80417SOL     OW53229   7.051   1.805   3.543 -0.1256 -0.3265  0.1217
80417SOL    HW153230   7.134   1.775   3.505  0.0052 -0.4786  0.5173
80417SOL    HW253231   7.030   1.739   3.610  0.1987  0.4884  1.0510
80418SOL     OW53232   2.777   5.651   8.711  0.0008 -0.4513 -0.2142
80418SOL    HW153233   2.743   5.589   8.775 -0.7938 -1.5221 -1.6189
80418SOL    HW253234   2.702   5.708   8.691  0.2400 -0.1323 -0.2024
80419SOL     OW53235   4.504   5.494   6.802 -0.3790 -0.2105 -0.0213
80419SOL    HW153236   4.444   5.465   6.871 -0.1344  0.9822  0.7223
80419SOL    HW253237   4.570   5.546   6.848 -0.0318  0.3547 -1.1253
80420SOL     OW53238   0.304   8.304   8.543 -0.2488  0.1894 -0.4443
80420SOL    HW153239   0.305   8.378   8.604 -2.0205 -1.1421  1.3285
80420SOL    HW253240   0.217   8.308   8.503 -0.7197 -1.4033  0.3582
80421SOL     OW53241   1.171  10.565   1.963  0.4112 -0.1141 -0.1180
80421SOL    HW153242   1.263  10.548   1.985  1.0569  2.4245 -0.6110
80421SOL    HW253243   1.170  10.578   1.868 -0.0676  1.8327  0.1122
80422SOL     OW53244  13.928   2.416   7.948 -0.5145 -0.3475 -0.4546
80422SOL    HW153245  13.866   2.342   7.946 -1.5464  0.4656  0.1129
80422SOL    HW253246  14.011   2.378   7.921 -0.7400 -1.9915  0.9309
80423SOL     OW53247   5.424  11.621   8.490  0.2291  0.3186 -0.0911
80423SOL    HW153248   5.335  11.654   8.500 -0.4262 -1.6871  1.4613
80423SOL    HW253249   5.419  11.564   8.412 -0.3466 -1.1269  0.9555
80424SOL     OW53250   0.324   9.392  12.236 -0.3220 -0.1881  0.1867
80424SOL    HW153251   0.254   9.452  12.208 -1.2581 -1.6291 -0.6611
80424SOL    HW253252   0.325   9.399  12.331 -2.0961 -0.6536  0.2610
80425SOL     OW53253  13.100  13.977  10.108 -0.2546  0.4011 -0.0665
80425SOL    HW153254  13.150  13.920  10.049  0.9659 -0.1129  1.3727
80425SOL    HW253255  13.045  13.917  10.158  1.4541  0.3062  1.8572
80426SOL     OW53256   9.505   4.858  11.732 -0.2431 -0.0110  0.5308
80426SOL    HW153257   9.415   4.834  11.710 -0.1798  1.1201 -1.1748
80426SOL    HW253258   9.515   4.948  11.700  2.0571 -0.7781 -1.1885
80427SOL     OW53259   1.483   1.694   6.234  0.4980 -0.0416  0.3140
80427SOL    HW153260   1.430   1.747   6.294  2.8688  0.4902  2.0927
80427SOL    HW253261   1.460   1.727   6.147 -1.2205  0.9190  1.0788
80428SOL     OW53262  12.248   6.906   4.549  0.1885 -0.8516  0.1337
80428SOL    HW153263  12.292   6.955   4.619 -0.5477 -0.2831  0.2097
80428SOL    HW253264  12.221   6.824   4.591  0.0083 -0.6364  0.4453
80429SOL     OW53265  10.184   3.456   0.809 -0.1141 -0.5674  0.0954
80429SOL    HW153266  10.169   3.472   0.716  0.2337  0.4003  0.1966
80429SOL    HW253267  10.182   3.543   0.849 -0.0479 -0.9540  0.9638
80430SOL     OW53268   3.357  11.323   1.790 -0.4035  0.2323  0.3850
80430SOL    HW153269   3.409  11.401   1.804 -1.5282  0.9633  0.6214
80430SOL    HW253270   3.350  11.282   1.876  1.9660 -1.3364 -0.0818
80431SOL     OW53271   6.759  12.241  12.221  0.2776 -0.3213 -1.0214
80431SOL    HW153272   6.675  12.244  12.175  0.4891 -1.1619 -1.4921
80431SOL    HW253273   6.818  12.197  12.159  1.1696  0.6015 -0.8563
80432SOL     OW53274   6.745   3.119   0.621  0.0403  0.1813  0.6458
80432SOL    HW153275   6.706   3.175   0.554  0.8157 -0.8730 -0.7331
80432SOL    HW253276   6.751   3.175   0.698  0.0783  1.7514 -0.4540
80433SOL     OW53277   4.288   4.467  13.935  0.0370 -0.2108  0.2228
80433SOL    HW153278   4.369   4.515  13.954  1.6303 -1.5235 -2.6188
80433SOL    HW253279   4.222   4.535  13.926  1.1562  1.0383  1.0607
80434SOL     OW53280   8.819   0.069  11.714 -0.1549 -0.0183 -0.7339
80434SOL    HW153281   8.850   0.099  11.800 -0.9971  0.3724 -0.5611
80434SOL    HW253282   8.743   0.014  11.734  0.3168 -0.8608 -1.1682
80435SOL     OW53283   2.175  13.829   5.278  0.1779 -0.1568  0.8120
80435SOL    HW153284   2.215  13.757   5.328 -0.0833  0.0980  1.3995
80435SOL    HW253285   2.112  13.786   5.221  0.2290 -0.4252  0.9556
80436SOL     OW53286   5.920   4.089  11.278 -0.6203  0.6250 -0.5020
80436SOL    HW153287   5.888   4.075  11.189 -0.3912 -0.3051 -0.4410
80436SOL    HW253288   6.009   4.053  11.278 -0.6823  0.4541  0.1515
80437SOL     OW53289   6.000   2.015   3.515 -0.0802 -0.3561  0.4202
80437SOL    HW153290   6.023   2.105   3.539 -1.4654 -0.1341  1.0778
80437SOL    HW253291   6.039   1.961   3.584 -2.7790  0.1575  2.5343
80438SOL     OW53292   5.301   9.782  10.565 -0.2975 -0.0900  0.1662
80438SOL    HW153293   5.314   9.806  10.473 -1.4076  2.9357  0.6690
80438SOL    HW253294   5.280   9.865  10.608  0.7175 -1.3211  3.2781
80439SOL     OW53295  13.595   0.526   8.992  0.0117  0.1846  0.3194
80439SOL    HW153296  13.625   0.467   9.061 -0.9763  0.5364  1.0871
80439SOL    HW253297  13.576   0.608   9.038 -0.3666  0.5205 -0.4231
80440SOL     OW53298   3.720   6.460   1.662  0.1708 -0.2088  0.5748
80440SOL    HW153299   3.765   6.402   1.600 -0.4658  0.9621 -1.0664
80440SOL    HW253300   3.787   6.521   1.691 -0.0968  1.0759 -1.3025
80441SOL     OW53301   3.992  13.707   4.049  0.0173 -0.3713  0.2274
80441SOL    HW153302   4.024  13.796   4.045 -0.2052 -0.2332  1.2041
80441SOL    HW253303   3.914  13.712   4.105 -0.9764 -0.9041 -1.0416
80442SOL     OW53304   3.413   6.477  13.859 -0.3941  0.0147  0.0016
80442SOL    HW153305   3.371   6.419  13.795 -0.6069 -1.5205  1.4846
80442SOL    HW253306   3.436   6.420  13.932  2.5803  1.1296  0.0885
80443SOL     OW53307   5.546   2.327  13.879 -0.1620  0.3502  0.5381
80443SOL    HW153308   5.641   2.319  13.869 -0.3536 -0.5861 -0.8788
80443SOL    HW253309   5.516   2.236  13.887 -0.8869  0.6751  1.7280
80444SOL     OW53310  10.016   8.141   2.340  0.4734  0.1054 -0.5425
80444SOL    HW153311  10.097   8.119   2.294  0.6201 -0.7140  0.0885
80444SOL    HW253312   9.948   8.091   2.295  0.6876 -1.0694  0.4006
80445SOL     OW53313  12.526   6.390   5.161  0.1670  0.1547 -0.2807
80445SOL    HW153314  12.518   6.441   5.241  2.6638  0.4346 -0.1460
80445SOL    HW253315  12.565   6.307   5.190  0.9168  0.1884 -1.1585
80446SOL     OW53316   2.844   1.463   0.514  0.0971  0.0956 -0.4952
80446SOL    HW153317   2.799   1.393   0.469  0.2454 -0.8348  0.7433
80446SOL    HW253318   2.785   1.538   0.508 -0.8114 -0.6023 -0.4215
80447SOL     OW53319   9.030  11.790   8.800  0.1135 -0.2817  0.5797
80447SOL    HW153320   9.034  11.848   8.876  1.0130 -2.3129  2.1761
80447SOL    HW253321   9.118  11.792   8.762 -0.5809  1.4817 -1.0825
80448SOL     OW53322   0.085   2.639   3.853 -0.1705  0.1168 -0.4350
80448SOL    HW153323   0.024   2.708   3.829 -0.6626 -0.5119 -1.0493
80448SOL    HW253324   0.029   2.566   3.879  0.1675 -1.3681 -3.4336
80449SOL     OW53325  11.695  12.040  12.812  0.0950 -0.0318 -0.0220
80449SOL    HW153326  11.689  12.134  12.828  0.7348  0.1137 -0.5827
80449SOL    HW253327  11.605  12.007  12.824 -0.1040  0.6217  0.3042
80450SOL     OW53328   3.100   4.908   6.965 -0.3432 -0.5902  0.0452
80450SOL    HW153329   3.094   4.827   7.018  0.2182 -0.0829  0.9071
80450SOL    HW253330   3.193   4.916   6.945 -0.3868 -0.1085  0.0443
80451SOL     OW53331   9.524   4.044   9.563  0.2007 -0.2288  0.3740
80451SOL    HW153332   9.542   4.011   9.651 -0.4369 -0.0379  0.5797
80451SOL    HW253333   9.438   4.009   9.541  0.6195 -0.7778 -0.4246
80452SOL     OW53334  12.538   2.078   4.796  0.0123 -0.3245  0.9032
80452SOL    HW153335  12.467   2.080   4.860 -0.8095 -1.0236  0.0462
80452SOL    HW253336  12.597   2.010   4.828 -0.3159 -0.5676  0.9978
80453SOL     OW53337  10.318   1.377   8.184  0.3986 -0.1712  0.2264
80453SOL    HW153338  10.318   1.282   8.197  1.4340 -0.3403 -0.8172
80453SOL    HW253339  10.292   1.413   8.269 -1.0362 -1.4029  0.3476
80454SOL     OW53340   4.987  11.774   9.412  0.0577 -0.3317  0.5512
80454SOL    HW153341   4.996  11.848   9.472 -0.2301 -3.1204  4.3771
80454SOL    HW253342   4.893  11.765   9.398 -0.0865 -1.1568  1.8613
80455SOL     OW53343   4.144   9.487   1.410 -0.4702  0.2297 -0.3638
80455SOL    HW153344   4.128   9.578   1.383  0.3568  0.3912 -0.3374
80455SOL    HW253345   4.207   9.454   1.346 -0.1796 -0.0789  0.0765
80456SOL     OW53346  11.071  13.248   6.879  0.1555  0.0036 -0.1431
80456SOL    HW153347  11.152  13.285   6.915  1.2237  0.5653 -2.8904
80456SOL    HW253348  11.087  13.154   6.878  0.3535  0.0274  0.2736
80457SOL     OW53349  13.649   0.788   6.228 -0.7940 -0.0024  0.1106
80457SOL    HW153350  13.582   0.828   6.284  1.0487 -0.0102  2.4845
80457SOL    HW253351  13.669   0.704   6.271  1.2292  0.3368 -0.0843
80458SOL     OW53352   1.284   2.374   5.955  0.8085  0.0902  0.3797
80458SOL    HW153353   1.284   2.378   6.051  0.1111 -1.4930  0.4707
80458SOL    HW253354   1.277   2.466   5.927  1.3682  0.5975  1.8314
80459SOL     OW53355   9.989  12.326   9.194 -0.3044  0.2626  0.1927
80459SOL    HW153356   9.902  12.290   9.177 -0.0132 -0.2319 -0.2899
80459SOL    HW253357  10.025  12.344   9.107  1.1489 -2.1548  0.2064
80460SOL     OW53358  12.445   2.388   4.871 -0.0783  0.9565 -0.0102
80460SOL    HW153359  12.354   2.362   4.862  0.2208 -1.0616  1.8640
80460SOL    HW253360  12.488   2.355   4.792 -0.8578  1.4263 -0.6370
80461SOL     OW53361  13.049   6.049   4.123  0.3578 -0.0724  0.4457
80461SOL    HW153362  12.970   6.049   4.068  0.9502 -0.5645 -0.4202
80461SOL    HW253363  13.109   6.109   4.080  0.5533  0.1266  0.9835
80462SOL     OW53364   7.282  11.325   0.968 -0.5704 -0.2799 -0.0489
80462SOL    HW153365   7.283  11.380   1.046 -0.0383 -0.1808 -0.1218
80462SOL    HW253366   7.191  11.297   0.959 -1.0530  1.3138 -0.5209
80463SOL     OW53367  10.318   4.592   1.776 -0.7714 -0.4244 -0.1644
80463SOL    HW153368  10.283   4.678   1.754 -0.6432 -0.6037 -1.1226
80463SOL    HW253369  10.301   4.582   1.869 -0.1854  0.9227  0.1092
80464SOL     OW53370   6.085   8.030   8.090 -0.0716 -0.1823 -0.6409
80464SOL    HW153371   6.112   8.114   8.052 -0.4512 -0.3420 -1.2672
80464SOL    HW253372   6.046   8.054   8.174  1.3823  0.1198 -0.0112
80465SOL     OW53373   4.044   2.217   2.679 -0.2628  0.2137 -0.0328
80465SOL    HW153374   4.029   2.123   2.689 -0.0753  0.0555 -1.1410
80465SOL    HW253375   4.127   2.233   2.724  0.6085 -0.4861 -1.3236
80466SOL     OW53376   1.315  12.976   9.046 -0.6040 -0.2340  0.6292
80466SOL    HW153377   1.300  12.935   8.961 -0.2976 -0.8348  0.8575
80466SOL    HW253378   1.233  12.961   9.094 -0.7164 -0.0420  0.4936
80467SOL     OW53379   9.186   6.388   7.674  0.7541  0.5262  0.2609
80467SOL    HW153380   9.263   6.395   7.729  0.8350  2.2510 -0.0273
80467SOL    HW253381   9.203   6.312   7.618  2.3940  1.0748 -0.0256
80468SOL     OW53382  13.357   6.254  14.004 -0.2872 -0.1749  0.4962
80468SOL    HW153383  13.373   6.346  13.983  3.3031 -0.5371  0.8472
80468SOL    HW253384  13.361   6.209  13.920 -1.0922 -0.1122  0.4230
80469SOL     OW53385   0.302   4.943   7.537 -0.0579 -0.5727 -0.3570
80469SOL    HW153386   0.219   4.938   7.490 -0.4675  1.4553  0.0467
80469SOL    HW253387   0.293   5.019   7.594  1.6126 -1.0710  0.6660
80470SOL     OW53388   1.344  10.760   1.144  0.2707 -0.2280  0.0602
80470SOL    HW153389   1.413  10.793   1.086  0.0661  1.9150  0.9439
80470SOL    HW253390   1.286  10.710   1.087  1.4517 -0.3326 -1.0855
80471SOL     OW53391   8.576   6.274   8.726 -0.1283  0.2098 -0.0995
80471SOL    HW153392   8.513   6.227   8.782 -0.4185 -1.7455 -1.9498
80471SOL    HW253393   8.659   6.269   8.775 -0.2150 -2.0717 -0.0551
80472SOL     OW53394   7.277  11.519   0.030  0.0034  0.4085 -0.4511
80472SOL    HW153395   7.211  11.570  -0.017  0.3986  0.5514 -0.8541
80472SOL    HW253396   7.358  11.567   0.016 -0.0958  1.2452  1.5508
80473SOL     OW53397   3.961   3.788  11.903 -0.1287 -0.0449  0.1019
80473SOL    HW153398   3.907   3.863  11.928 -2.1125 -1.5379  0.5385
80473SOL    HW253399   3.978   3.742  11.985  0.3347 -0.5475 -0.2653
80474SOL     OW53400  13.361   2.439   4.379 -0.3998 -0.3429 -0.1361
80474SOL    HW153401  13.438   2.386   4.398  1.0854  1.5381 -0.5176
80474SOL    HW253402  13.307   2.432   4.458 -0.0688 -2.0275 -0.0175
80475SOL     OW53403   7.377   9.994   8.009 -0.2779 -0.2196  0.4674
80475SOL    HW153404   7.341   9.948   7.932 -0.8329 -0.1475  0.6784
80475SOL    HW253405   7.388  10.084   7.979 -0.6060 -0.1651  0.5050
80476SOL     OW53406   1.936   1.851   7.239  0.2602  0.2946 -0.7109
80476SOL    HW153407   1.856   1.895   7.208 -0.2791  0.2362  0.5527
80476SOL    HW253408   1.919   1.758   7.225 -1.1484  0.0226  2.2176
80477SOL     OW53409   1.245   3.589   8.742 -0.1819 -0.3552  0.2117
80477SOL    HW153410   1.252   3.681   8.718 -0.6552 -0.4529 -0.3357
80477SOL    HW253411   1.176   3.587   8.809  1.1234 -0.0857  1.6265
80478SOL     OW53412   6.257  13.056   1.401 -0.0084 -0.0183 -0.1727
80478SOL    HW153413   6.298  13.034   1.317  1.0504 -1.0928  0.6005
80478SOL    HW253414   6.203  12.980   1.423  0.4789 -0.1678  0.5638
80479SOL     OW53415   6.631   6.593   5.098 -0.0962 -0.8957 -0.0531
80479SOL    HW153416   6.593   6.680   5.092 -1.3743 -0.7313  5.4160
80479SOL    HW253417   6.722   6.608   5.124  1.0028 -1.3612 -3.2158
80480SOL     OW53418  12.206   2.195  10.362  0.2860 -0.1222  0.0261
80480SOL    HW153419  12.243   2.143  10.433  0.3834  0.2403  0.2410
80480SOL    HW253420  12.146   2.135  10.318  0.6718 -0.5317  0.0438
80481SOL     OW53421   1.595   8.026   6.321 -0.1712  0.1891 -0.0242
80481SOL    HW153422   1.537   8.062   6.387  2.0864  0.0533  2.1940
80481SOL    HW253423   1.630   7.946   6.359 -0.8341 -1.4450 -2.5770
80482SOL     OW53424  10.845   8.282   9.380 -0.4502  0.9456  0.1351
80482SOL    HW153425  10.817   8.320   9.296  1.1139  0.2639 -0.7409
80482SOL    HW253426  10.928   8.326   9.399  1.7298 -2.2643 -1.2075
80483SOL     OW53427  11.656   6.098   1.993 -0.1407  0.0980 -0.1611
80483SOL    HW153428  11.608   6.039   2.052  0.7417 -0.0479  0.4332
80483SOL    HW253429  11.601   6.103   1.915 -0.1130 -1.7411 -0.3517
80484SOL     OW53430  10.782   2.053   3.388 -0.3966  0.0696 -0.1022
80484SOL    HW153431  10.785   2.030   3.295 -0.7705  0.3606 -0.1907
80484SOL    HW253432  10.813   1.975   3.434 -1.1910 -0.4340 -0.4194
80485SOL     OW53433  11.989   3.885   5.606 -0.5814  0.0751  0.0357
80485SOL    HW153434  11.900   3.874   5.574  0.0016 -1.5902 -1.1981
80485SOL    HW253435  12.028   3.951   5.548 -0.2072 -1.2888 -1.3435
80486SOL     OW53436  10.713   8.086  13.715 -0.1512  0.5462  0.1356
80486SOL    HW153437  10.807   8.075  13.697 -0.3306 -0.6312 -0.2075
80486SOL    HW253438  10.676   7.999  13.698 -1.1658  0.7594  1.1635
80487SOL     OW53439   7.413   2.437  12.669  0.0102 -0.2086  0.1559
80487SOL    HW153440   7.434   2.434  12.762  0.2649  1.8310  0.2064
80487SOL    HW253441   7.359   2.516  12.659 -0.0181 -0.3907 -1.4259
80488SOL     OW53442   4.409   6.574   9.669  0.2418 -0.0102  0.6393
80488SOL    HW153443   4.466   6.650   9.677  1.5648 -0.7942 -0.9156
80488SOL    HW253444   4.409   6.553   9.576 -2.1978 -0.3630  0.6557
80489SOL     OW53445   6.546   9.051   2.011  0.5240  0.3336  0.1955
80489SOL    HW153446   6.535   8.961   2.043  2.2439  0.3745  0.9836
80489SOL    HW253447   6.460   9.073   1.975 -0.1259 -1.3953  0.5492
80490SOL     OW53448   2.904   2.816   4.545  0.2201 -0.9660 -0.0316
80490SOL    HW153449   2.975   2.879   4.553  1.2109 -2.0284 -0.2130
80490SOL    HW253450   2.845   2.854   4.480  1.1636 -0.5452 -0.6650
80491SOL     OW53451   1.493  13.427   7.053 -0.1441  0.2781  0.4879
80491SOL    HW153452   1.507  13.334   7.068 -1.0509  0.3574  2.1028
80491SOL    HW253453   1.537  13.470   7.127 -2.5423  0.8996  1.6400
80492SOL     OW53454   7.409   0.571  11.102 -0.1486  0.0122 -0.2270
80492SOL    HW153455   7.462   0.531  11.034  0.0951  0.1625 -0.1266
80492SOL    HW253456   7.471   0.593  11.172 -0.3174  0.3191 -0.1703
80493SOL     OW53457   9.832   5.441   3.822  0.2218  0.2196 -0.1615
80493SOL    HW153458   9.917   5.400   3.817 -0.0458 -0.3401 -0.1729
80493SOL    HW253459   9.809   5.438   3.915 -0.3241 -0.7459 -0.3212
80494SOL     OW53460  13.904  10.242  13.442 -0.0254 -0.0086 -0.0506
80494SOL    HW153461  13.817  10.244  13.403 -0.3308  0.0338  0.6244
80494SOL    HW253462  13.893  10.192  13.523 -0.0132  2.2382  1.4095
80495SOL     OW53463   6.071   0.394   8.622  0.0829  0.0952 -0.9055
80495SOL    HW153464   6.045   0.317   8.671  0.9244  0.9572  1.0344
80495SOL    HW253465   5.992   0.447   8.615  0.2521  0.6959  1.0519
80496SOL     OW53466   1.502   4.125   9.326 -0.1081  0.1597 -0.8423
80496SOL    HW153467   1.479   4.037   9.297 -0.9147  0.3379 -0.7929
80496SOL    HW253468   1.427   4.152   9.379  0.0610  0.9270 -0.9833
80497SOL     OW53469   1.960  13.931  10.870 -0.3029  0.0899 -0.0272
80497SOL    HW153470   1.891  13.932  10.936 -1.1466 -1.9944 -0.8264
80497SOL    HW253471   2.028  13.874  10.907 -0.2842 -0.1869 -0.4847
80498SOL     OW53472   3.472   8.836   2.420  0.2657 -0.3939 -0.0027
80498SOL    HW153473   3.519   8.915   2.393 -0.2825  0.4967  1.5274
80498SOL    HW253474   3.393   8.836   2.366  0.5193 -0.1883 -0.3826
80499SOL     OW53475  12.943   5.165   0.195 -0.1098 -0.2434 -0.2656
80499SOL    HW153476  12.914   5.254   0.211 -0.0178 -0.3415  0.4997
80499SOL    HW253477  13.029   5.175   0.154 -0.8829  0.0331 -1.9109
80500SOL     OW53478  13.343   3.062   2.642 -0.1959 -0.1898 -0.6755
80500SOL    HW153479  13.288   3.131   2.680  0.2803  0.3411 -0.9432
80500SOL    HW253480  13.432   3.088   2.664 -0.0375 -0.9679 -0.3745
80501SOL     OW53481  10.100   7.000   1.437  0.0568 -0.8476 -0.8478
80501SOL    HW153482  10.091   7.094   1.454  0.0784 -0.6498 -1.8560
80501SOL    HW253483  10.033   6.981   1.372  1.1543 -1.1612 -1.9229
80502SOL     OW53484   8.940  12.663   2.515 -0.0939 -0.0164  0.0892
80502SOL    HW153485   8.952  12.675   2.421 -0.5620 -0.3848 -0.0205
80502SOL    HW253486   8.985  12.581   2.535  1.6784  0.9963  0.5462
80503SOL     OW53487   1.080  13.280   5.165 -0.4382 -0.1072  0.3654
80503SOL    HW153488   0.992  13.281   5.201 -0.0740 -3.9820  1.9359
80503SOL    HW253489   1.071  13.237   5.080 -0.1872  0.8061 -0.1402
80504SOL     OW53490  13.722   9.922  12.427 -0.4731 -0.0925 -0.0093
80504SOL    HW153491  13.705  10.010  12.393 -0.9262  0.2580  1.0600
80504SOL    HW253492  13.778   9.937  12.504 -1.4335 -0.6186  0.8287
80505SOL     OW53493   1.272   9.214   2.685  0.1349 -0.0346  0.4886
80505SOL    HW153494   1.184   9.246   2.699 -0.4995 -1.0927 -0.8013
80505SOL    HW253495   1.261   9.135   2.631  1.9616  1.2515 -2.0230
80506SOL     OW53496   9.568   2.865   1.018 -0.2132 -0.3143 -0.0180
80506SOL    HW153497   9.574   2.920   0.940 -0.2104 -0.0928  0.1366
80506SOL    HW253498   9.476   2.871   1.044  0.0677  0.7609  0.8128
80507SOL     OW53499   2.058   9.352   1.767 -0.2531 -0.3920  0.0210
80507SOL    HW153500   1.994   9.285   1.741  1.3775 -1.7785 -0.6004
80507SOL    HW253501   2.142   9.306   1.767  0.6476  1.1535  1.6996
80508SOL     OW53502   3.005  10.118   8.728 -0.1052 -0.1461  0.1588
80508SOL    HW153503   3.024  10.036   8.775  0.5265  0.0346  0.2288
80508SOL    HW253504   3.043  10.186   8.783 -2.5257  0.4415  1.2153
80509SOL     OW53505   0.255   9.068   1.567  0.1369 -0.3388 -0.4493
80509SOL    HW153506   0.323   9.001   1.576  1.2701  0.8860  0.3473
80509SOL    HW253507   0.225   9.084   1.656 -0.3423  0.0071 -0.6663
80510SOL     OW53508   0.044  11.981  12.547 -0.3600  0.0101  0.3620
80510SOL    HW153509   0.094  12.061  12.557 -0.6557  0.1792  0.5133
80510SOL    HW253510   0.097  11.914  12.589  0.4953 -0.1282 -0.8824
80511SOL     OW53511  11.731   8.087   0.401 -0.2874 -0.0899 -0.3859
80511SOL    HW153512  11.765   8.002   0.430  0.7036 -0.0152 -1.2717
80511SOL    HW253513  11.657   8.065   0.344  0.7596 -0.4436 -1.6641
80512SOL     OW53514   0.866  10.703   4.891 -0.2739  0.1847 -0.7272
80512SOL    HW153515   0.867  10.744   4.977  1.4177 -1.5935  0.1771
80512SOL    HW253516   0.846  10.774   4.830  2.5305  2.3914  0.7064
80513SOL     OW53517   0.158   3.534  10.221 -0.2045 -0.5768 -0.7445
80513SOL    HW153518   0.119   3.612  10.183 -0.0816 -0.6603 -1.0513
80513SOL    HW253519   0.090   3.497  10.277 -0.0330  0.1146 -0.0646
80514SOL     OW53520   4.148   2.448   0.318 -0.0991 -0.0349  0.6638
80514SOL    HW153521   4.151   2.454   0.414 -0.4641  1.3084  0.6152
80514SOL    HW253522   4.114   2.533   0.290  0.9696 -0.0353 -0.7270
80515SOL     OW53523   6.476   8.973   7.150 -0.0003  0.0998  0.0638
80515SOL    HW153524   6.486   9.016   7.064 -0.7783  1.6384  0.7051
80515SOL    HW253525   6.522   8.890   7.140 -0.7388 -0.1246 -2.1087
80516SOL     OW53526   7.142   3.507  12.817 -0.1114  0.0114 -0.2222
80516SOL    HW153527   7.150   3.412  12.814  0.0074  0.0300 -0.5300
80516SOL    HW253528   7.227   3.538  12.848 -0.2072  0.0105  0.0494
80517SOL     OW53529   8.113   2.926   5.158  0.8137  0.3996 -1.0563
80517SOL    HW153530   8.156   2.962   5.081  2.4624  0.1610 -0.2905
80517SOL    HW253531   8.114   2.996   5.223  0.1395  0.3534 -0.9878
80518SOL     OW53532   4.694   7.442   6.440 -0.1217 -0.1292 -0.7462
80518SOL    HW153533   4.611   7.402   6.414 -0.2663 -1.4018  1.4036
80518SOL    HW253534   4.758   7.372   6.426 -0.3988 -1.4427  3.2408
80519SOL     OW53535  12.921  12.973  10.518  0.4289  0.4621 -0.0602
80519SOL    HW153536  12.911  12.879  10.502  1.6968 -0.0543  1.8985
80519SOL    HW253537  12.839  12.999  10.561  0.1012  0.2711 -0.5526
80520SOL     OW53538  12.096  10.956   3.684 -0.1293  0.2430 -0.1722
80520SOL    HW153539  12.092  11.023   3.752  0.7230 -0.4001  0.5316
80520SOL    HW253540  12.186  10.959   3.652 -0.1927 -0.2945 -0.4118
80521SOL     OW53541  11.859  11.222   0.972  0.5991  0.4406 -0.1137
80521SOL    HW153542  11.846  11.251   0.881  0.2274  1.2582  0.1928
80521SOL    HW253543  11.933  11.161   0.967 -0.1294 -0.4061 -1.1396
80522SOL     OW53544   5.838  11.966   1.148  0.3394  0.7855 -0.0130
80522SOL    HW153545   5.770  11.900   1.155  2.0519 -0.9883  1.0430
80522SOL    HW253546   5.864  11.964   1.056  0.3486 -0.0279 -0.0031
80523SOL     OW53547   7.106   6.211  13.590 -0.1166  0.1760  0.5799
80523SOL    HW153548   7.097   6.141  13.655 -1.5541  0.9131  1.2162
80523SOL    HW253549   7.016   6.239  13.572  0.2477  0.0937 -1.6389
80524SOL     OW53550   9.221   0.454   7.817  0.1279  0.1037  0.3411
80524SOL    HW153551   9.174   0.469   7.899  0.4933 -1.9243  0.9757
80524SOL    HW253552   9.257   0.366   7.826  1.6308  0.4926 -1.3085
80525SOL     OW53553  12.735  10.465   3.034  1.4042  0.4608  0.4411
80525SOL    HW153554  12.655  10.428   3.072  0.8834  2.1723  1.1094
80525SOL    HW253555  12.727  10.446   2.940  0.7775 -0.3724  0.6453
80526SOL     OW53556   4.063  13.872   3.338  0.0009  0.5284  0.1805
80526SOL    HW153557   4.081  13.901   3.249 -1.3222 -0.7211 -0.5334
80526SOL    HW253558   3.978  13.912   3.359 -0.1814 -0.0053  0.4839
80527SOL     OW53559   2.709  12.024  13.282  0.3491  0.3152 -0.2721
80527SOL    HW153560   2.776  11.986  13.340  1.3153  1.2040 -0.7626
80527SOL    HW253561   2.720  12.119  13.293 -0.9910  0.4788 -0.2123
80528SOL     OW53562  13.231   2.721   6.834 -0.2093  0.2750  0.7398
80528SOL    HW153563  13.270   2.722   6.922 -0.9964 -0.8330  1.1175
80528SOL    HW253564  13.303   2.695   6.776  0.2865  0.8990  1.0523
80529SOL     OW53565   2.266  13.584   9.776  0.4930  0.7061 -0.2342
80529SOL    HW153566   2.217  13.622   9.702 -0.4808  2.9971  1.4793
80529SOL    HW253567   2.242  13.491   9.775 -0.8054  1.0077 -1.8011
80530SOL     OW53568   3.938   8.961  11.742 -0.4309  0.3096 -0.2490
80530SOL    HW153569   3.886   8.907  11.683  2.1276  0.3653 -2.7762
80530SOL    HW253570   3.970   8.901  11.809 -1.2194 -0.3355 -0.4391
80531SOL     OW53571  11.523   9.669  10.285  0.3063 -0.2756  0.8172
80531SOL    HW153572  11.583   9.661  10.359  0.0102 -1.1417  0.9709
80531SOL    HW253573  11.532   9.587  10.237  0.1795  0.1024  0.1251
80532SOL     OW53574   4.810  12.038   4.370  0.4811 -0.2441  0.5489
80532SOL    HW153575   4.782  11.972   4.432  0.2344 -0.6121  0.0503
80532SOL    HW253576   4.906  12.040   4.378  0.4231  0.0412  1.2626
80533SOL     OW53577  12.835  12.325   5.683 -0.3251  0.2546  0.6883
80533SOL    HW153578  12.802  12.237   5.702 -0.0567  0.1083  0.4990
80533SOL    HW253579  12.892  12.312   5.607  0.8675  0.3380  1.5362
80534SOL     OW53580  11.808   2.498  13.440 -0.1123  0.1514  0.7183
80534SOL    HW153581  11.852   2.564  13.494  0.1653  0.6171 -0.0577
80534SOL    HW253582  11.794   2.424  13.499  1.4561  0.1017  1.0817
80535SOL     OW53583   6.827  11.403   6.093 -0.1899  0.0108  0.1710
80535SOL    HW153584   6.783  11.474   6.046 -1.6588 -0.3223  0.9743
80535SOL    HW253585   6.757  11.360   6.142  0.8892 -1.1924  0.7109
80536SOL     OW53586   3.522   8.046  11.814  0.2241 -0.4602  0.0167
80536SOL    HW153587   3.586   7.997  11.865 -0.4145 -0.1753  1.1193
80536SOL    HW253588   3.533   8.137  11.842  0.8962 -0.0415 -1.4820
80537SOL     OW53589  13.466   5.377   8.247  0.1856 -0.9674 -0.6082
80537SOL    HW153590  13.561   5.385   8.259  0.2037 -1.1076 -0.6622
80537SOL    HW253591  13.438   5.324   8.322 -0.4647  2.7512  2.1141
80538SOL     OW53592  10.183   4.725   8.570 -0.6081  0.0172 -0.1429
80538SOL    HW153593  10.093   4.723   8.537 -0.9473  1.4769  0.6194
80538SOL    HW253594  10.174   4.745   8.663  0.4670 -1.1146  0.2403
80539SOL     OW53595   4.690   6.971  10.870  0.1672  0.6777  0.1372
80539SOL    HW153596   4.728   6.892  10.908 -2.3243 -0.1167  1.1565
80539SOL    HW253597   4.674   6.948  10.778 -0.4143  0.0606  0.3954
80540SOL     OW53598   5.493  12.905  12.977  0.0796  0.5031 -0.0915
80540SOL    HW153599   5.461  12.824  12.937  2.5604  0.8857 -3.1770
80540SOL    HW253600   5.532  12.877  13.060 -1.0993 -1.0397  0.0021
80541SOL     OW53601  13.779   9.177  10.041 -0.3421  0.1922 -0.1794
80541SOL    HW153602  13.730   9.180  10.123 -1.1954 -0.5175 -0.6379
80541SOL    HW253603  13.723   9.125   9.982 -0.1705  1.4225 -1.4858
80542SOL     OW53604   3.988   9.461   9.427  0.3157 -0.8258  0.4697
80542SOL    HW153605   3.972   9.555   9.418  0.5140 -0.7975  0.3912
80542SOL    HW253606   3.930   9.420   9.364  0.5959 -0.7243  0.1401
80543SOL     OW53607   3.017   6.950   1.882  0.4617  0.4042  0.4873
80543SOL    HW153608   3.058   6.968   1.967 -0.1224 -1.7854  1.2962
80543SOL    HW253609   2.960   7.025   1.867  3.0805  2.5270  0.3288
80544SOL     OW53610   9.234   1.181   6.197  0.3956  0.0824  0.0843
80544SOL    HW153611   9.206   1.264   6.156  2.3861  1.3967  1.2369
80544SOL    HW253612   9.184   1.177   6.278  2.0957  1.5282  1.2763
80545SOL     OW53613   2.551   3.140   3.619 -0.3183 -0.2965 -0.0687
80545SOL    HW153614   2.573   3.124   3.528 -1.0786 -1.6972 -0.0397
80545SOL    HW253615   2.467   3.185   3.616  0.5255  1.3619 -0.0741
80546SOL     OW53616  10.213   0.642   5.337  0.2772 -0.0169 -0.6036
80546SOL    HW153617  10.245   0.731   5.321 -0.2179  0.4767  0.9740
80546SOL    HW253618  10.274   0.586   5.290  2.1907  1.0313  0.4996
80547SOL     OW53619  12.115   3.938   3.283 -0.0066 -0.0773 -0.5450
80547SOL    HW153620  12.196   3.917   3.237  0.8447  2.4289 -0.3467
80547SOL    HW253621  12.142   3.991   3.358 -1.6122 -1.6309  1.2470
80548SOL     OW53622   2.158   4.614  11.854  0.5707 -0.3771 -0.3711
80548SOL    HW153623   2.090   4.659  11.904  1.8678  0.2254  0.9358
80548SOL    HW253624   2.146   4.644  11.764  0.1771  1.0729  0.1374
80549SOL     OW53625   7.683  11.770   3.395 -0.0467  0.7574  0.6266
80549SOL    HW153626   7.747  11.711   3.436  1.5873  1.1974 -1.1349
80549SOL    HW253627   7.736  11.829   3.341 -1.9454  1.1415 -0.9286
80550SOL     OW53628   3.247   0.585   8.658 -0.2833  0.8432 -0.2815
80550SOL    HW153629   3.334   0.562   8.626 -0.3543 -0.1303  0.1840
80550SOL    HW253630   3.257   0.597   8.752 -0.7915 -0.0533 -0.1028
80551SOL     OW53631  12.732   2.275   4.972  0.0006  0.1699 -0.2247
80551SOL    HW153632  12.654   2.331   4.965  0.0282  0.5129  1.7070
80551SOL    HW253633  12.698   2.192   5.004  0.5241  0.7911  2.1566
80552SOL     OW53634   4.411   1.644   9.243 -0.0579 -0.1902  0.4171
80552SOL    HW153635   4.375   1.727   9.213 -0.8282 -0.6798 -0.0337
80552SOL    HW253636   4.503   1.646   9.214 -0.1867  0.3040  0.0274
80553SOL     OW53637  13.432   1.842   4.173  0.1118  0.4641  0.2196
80553SOL    HW153638  13.512   1.799   4.204  0.7824  2.3606  1.2932
80553SOL    HW253639  13.439   1.839   4.078  1.1694  0.0683  0.2898
80554SOL     OW53640  13.503   2.866   2.893  0.1237  0.0262  0.2326
80554SOL    HW153641  13.502   2.771   2.885  2.4517 -0.0573  0.4545
80554SOL    HW253642  13.508   2.898   2.803  0.6723 -0.1060  0.2146
80555SOL     OW53643  13.200   2.579   4.193 -0.0206  0.4020 -0.0043
80555SOL    HW153644  13.256   2.509   4.226  1.0265  0.4973 -1.4528
80555SOL    HW253645  13.221   2.655   4.247  1.3238  0.4409 -0.5238
80556SOL     OW53646   1.944   8.657   8.458  0.4268 -0.0433 -0.5009
80556SOL    HW153647   2.026   8.678   8.503  0.3149  0.0048 -0.3180
80556SOL    HW253648   1.899   8.741   8.448  0.4314 -0.0599 -0.6621
80557SOL     OW53649   0.040  11.600   0.980 -0.0726 -0.7349  0.1362
80557SOL    HW153650   0.056  11.666   1.047  1.9002 -0.1360 -0.8366
80557SOL    HW253651   0.125  11.556   0.969 -0.0131 -0.1173 -2.6209
80558SOL     OW53652  10.625  12.056   9.810 -0.2639 -0.2864 -0.0798
80558SOL    HW153653  10.619  12.149   9.790  0.3694  0.5101  2.8815
80558SOL    HW253654  10.535  12.025   9.811 -0.3578 -0.5448 -4.0310
80559SOL     OW53655  11.341   1.514  11.566  0.1893 -0.0753 -0.0594
80559SOL    HW153656  11.364   1.490  11.477  1.0757 -1.1857  0.4452
80559SOL    HW253657  11.298   1.436  11.602  3.7723 -1.4343  1.8534
80560SOL     OW53658   8.990   8.309   4.658 -0.0820 -0.8926  0.1967
80560SOL    HW153659   9.046   8.280   4.730  0.2570 -0.4795  0.1036
80560SOL    HW253660   9.016   8.400   4.643  1.5843 -1.6493 -2.0256
80561SOL     OW53661   6.629   0.178   9.725 -0.1752  0.2024  0.2566
80561SOL    HW153662   6.633   0.193   9.630 -0.2499  0.0130  0.2230
80561SOL    HW253663   6.706   0.125   9.744  0.3933  1.0980  0.4646
80562SOL     OW53664   3.641   7.439  12.942 -0.5247  0.6368 -0.0828
80562SOL    HW153665   3.590   7.520  12.946 -1.2779  0.1511  0.5719
80562SOL    HW253666   3.724   7.461  12.984 -0.5021  1.2219 -0.4244
80563SOL     OW53667   7.569   2.435   3.311 -0.5482 -0.1201  0.3168
80563SOL    HW153668   7.559   2.456   3.218 -2.2950  0.7482  0.6525
80563SOL    HW253669   7.547   2.342   3.318 -1.1716 -0.0044 -0.0526
80564SOL     OW53670  12.228   9.514  12.082 -0.4118 -0.7398  0.2181
80564SOL    HW153671  12.185   9.434  12.052  0.2637 -0.5007 -1.5055
80564SOL    HW253672  12.159   9.580  12.080 -0.8846 -1.1840  1.2917
80565SOL     OW53673   3.423  10.442   9.929  0.6467  0.5684  0.4810
80565SOL    HW153674   3.359  10.387   9.884 -0.5550  1.1163  1.4703
80565SOL    HW253675   3.503  10.389   9.931  0.2693 -0.0933 -0.8451
80566SOL     OW53676   0.335   6.522   7.930  0.2285 -0.4168  0.1409
80566SOL    HW153677   0.273   6.595   7.930  0.1667 -0.4421  1.7603
80566SOL    HW253678   0.420   6.563   7.914 -0.2910 -0.5934 -4.4484
80567SOL     OW53679   3.132  11.190  13.430  0.1687 -0.0424  0.3308
80567SOL    HW153680   3.214  11.236  13.415  0.1401  0.2903  1.1940
80567SOL    HW253681   3.150  11.130  13.503  0.7283 -2.7386 -1.8186
80568SOL     OW53682   8.197  11.476   9.162  0.0332 -0.0155 -0.7001
80568SOL    HW153683   8.241  11.539   9.218  2.4739 -0.3236 -2.1449
80568SOL    HW253684   8.266  11.418   9.131 -1.5922 -1.3370 -2.1088
80569SOL     OW53685  10.636   9.512   1.248  0.3043  0.4125  0.0144
80569SOL    HW153686  10.686   9.587   1.282  0.2435  0.4554  0.0087
80569SOL    HW253687  10.584   9.549   1.176 -0.6517  0.6172  0.8008
80570SOL     OW53688  10.800   9.340   7.466 -0.0328  0.0609  0.3556
80570SOL    HW153689  10.774   9.262   7.515 -0.4411 -0.7156 -1.0707
80570SOL    HW253690  10.726   9.360   7.409  0.7110  0.5002 -0.4940
80571SOL     OW53691   7.360  12.497  10.774 -0.1749  0.3069 -0.4473
80571SOL    HW153692   7.441  12.453  10.798  1.8944  2.4817 -2.7455
80571SOL    HW253693   7.349  12.478  10.681 -2.3700  0.0652 -0.2020
80572SOL     OW53694   8.866   2.819  13.066 -0.6877 -0.1534  0.5283
80572SOL    HW153695   8.817   2.769  13.000  0.2805 -0.8054  0.2818
80572SOL    HW253696   8.863   2.763  13.144 -1.9020  0.6539  1.0962
80573SOL     OW53697   6.433  10.783   9.484 -0.3182 -0.1393 -0.2045
80573SOL    HW153698   6.411  10.874   9.501  1.1269  0.1832  0.1149
80573SOL    HW253699   6.511  10.767   9.538 -0.7414 -1.6612  0.0094
80574SOL     OW53700  10.140  12.332   3.298  0.3116  0.0018  0.1825
80574SOL    HW153701  10.132  12.369   3.210  2.7987  0.4530  0.0673
80574SOL    HW253702  10.128  12.407   3.357 -0.2058 -0.0784  0.1787
80575SOL     OW53703   4.793   4.534   4.122  0.4861  0.3254  0.4247
80575SOL    HW153704   4.700   4.538   4.097 -0.0523 -0.4558  2.1565
80575SOL    HW253705   4.836   4.593   4.061 -0.9743 -0.1821 -1.1969
80576SOL     OW53706  11.470   6.411   2.300  0.9470 -0.0583  0.1681
80576SOL    HW153707  11.380   6.380   2.292  0.1657  2.2565 -0.5688
80576SOL    HW253708  11.514   6.380   2.221  0.6457 -0.6580  0.2339
80577SOL     OW53709  13.477  11.578   4.897  0.2033 -0.0771  0.4243
80577SOL    HW153710  13.427  11.527   4.834  0.1229 -0.6991  0.9747
80577SOL    HW253711  13.485  11.664   4.857 -1.2169  0.0143  0.2735
80578SOL     OW53712   2.974   7.594  13.389 -0.1829  0.1318 -0.3234
80578SOL    HW153713   2.997   7.619  13.300  0.9759  0.2082 -0.0118
80578SOL    HW253714   3.055   7.563  13.427 -0.6526  0.1585  0.7333
80579SOL     OW53715   2.022   0.955   9.556  0.1466 -0.4731  0.2484
80579SOL    HW153716   2.007   0.874   9.508  0.9558 -1.5417  1.7395
80579SOL    HW253717   1.935   0.995   9.563 -0.1909 -0.9547 -0.8973
80580SOL     OW53718  10.626   9.697   4.525  0.1474 -0.5310  0.4087
80580SOL    HW153719  10.711   9.731   4.500 -0.2470  0.6828  0.6612
80580SOL    HW253720  10.564   9.768   4.505 -0.3888 -0.0240  3.3357
80581SOL     OW53721   5.572   2.842  12.520  0.6405 -0.3993 -0.7887
80581SOL    HW153722   5.494   2.791  12.499  1.1972 -1.9708  0.7810
80581SOL    HW253723   5.643   2.778  12.524  0.9475 -0.0711  3.7262
80582SOL     OW53724  11.300   4.686   0.360 -0.3356  0.7758 -0.3097
80582SOL    HW153725  11.359   4.758   0.335 -1.3884  1.5896 -0.5302
80582SOL    HW253726  11.312   4.620   0.291 -1.5990  2.0656 -1.8473
80583SOL     OW53727   9.538   6.074   5.839  0.0844  0.2075  0.6141
80583SOL    HW153728   9.454   6.058   5.794 -1.0882  1.2481  2.3077
80583SOL    HW253729   9.586   6.132   5.780 -0.7785  0.3318  0.0157
80584SOL     OW53730   1.616  13.323   6.019 -0.0738  0.4750 -0.4713
80584SOL    HW153731   1.656  13.268   5.951 -0.1476 -0.6051  0.3394
80584SOL    HW253732   1.528  13.288   6.031 -0.1902  0.8887 -0.0609
80585SOL     OW53733   1.111   4.807   8.125  0.1575 -0.0433  0.1758
80585SOL    HW153734   1.194   4.818   8.171 -0.4080  0.1894  1.1642
80585SOL    HW253735   1.136   4.783   8.036  1.2945 -2.0391  0.9668
80586SOL     OW53736  12.349   9.727   6.990 -0.0693  0.2768  0.2168
80586SOL    HW153737  12.427   9.759   6.945  0.1457  1.1717  1.1937
80586SOL    HW253738  12.380   9.655   7.045  0.0095  0.4024  0.3369
80587SOL     OW53739   3.176  11.689  13.192 -0.2061 -0.3430  0.5391
80587SOL    HW153740   3.160  11.660  13.102 -0.7106  1.3300  0.0626
80587SOL    HW253741   3.266  11.721  13.191  0.8489 -2.9579  1.4039
80588SOL     OW53742   6.085   7.639  12.654  0.4070  0.2386 -0.5207
80588SOL    HW153743   6.162   7.690  12.630  0.3641  0.0270 -1.1276
80588SOL    HW253744   6.089   7.561  12.598  0.1261 -0.1098 -0.0674
80589SOL     OW53745   7.215  13.443   0.887 -0.1543 -0.0870 -0.0515
80589SOL    HW153746   7.209  13.508   0.817 -1.8305 -0.7625 -0.5932
80589SOL    HW253747   7.134  13.454   0.936  0.3935 -0.5413  0.9683
80590SOL     OW53748   4.812  10.985   8.387 -0.5731 -0.0993 -0.3198
80590SOL    HW153749   4.782  11.061   8.336 -0.2220 -0.0328 -0.4355
80590SOL    HW253750   4.885  10.950   8.336  0.8720  0.9532  0.9442
80591SOL     OW53751   4.332   0.267  12.381  0.1756 -0.3328  0.7016
80591SOL    HW153752   4.389   0.231  12.449  0.7465 -0.6240  0.0807
80591SOL    HW253753   4.361   0.226  12.300  1.2992  1.9879 -0.1720
80592SOL     OW53754  11.992   8.777  12.371 -0.2130 -0.0893  0.1260
80592SOL    HW153755  11.950   8.861  12.389  0.7170  0.8450 -1.8250
80592SOL    HW253756  11.922   8.721  12.339 -0.6878  0.1937  0.6625
80593SOL     OW53757   0.591   1.524   4.717  0.5079  0.0811  0.0090
80593SOL    HW153758   0.505   1.549   4.685  0.0234  1.0959  1.9806
80593SOL    HW253759   0.623   1.460   4.652 -1.3647  0.2599 -1.1599
80594SOL     OW53760   5.997   6.444   6.484 -0.0211  0.1868  0.0886
80594SOL    HW153761   6.068   6.503   6.459  0.4234 -0.0794  0.6903
80594SOL    HW253762   5.921   6.501   6.495  0.4845  0.7122  1.0013
80595SOL     OW53763   5.264   1.102  12.598 -0.1067  0.6272  0.2076
80595SOL    HW153764   5.287   1.174  12.657  1.1338  1.7380 -1.5603
80595SOL    HW253765   5.189   1.060  12.641  1.2126  0.8508  2.9702
80596SOL     OW53766  12.539   2.806  13.389 -0.3788  0.0497  0.1156
80596SOL    HW153767  12.604   2.770  13.329 -0.5437  0.8209 -0.5399
80596SOL    HW253768  12.506   2.884  13.345 -2.2769 -0.7173  0.0763
80597SOL     OW53769  11.922   5.246  11.552 -0.2808  0.3175 -0.1037
80597SOL    HW153770  11.982   5.297  11.607  0.8624 -1.3084  0.2426
80597SOL    HW253771  11.893   5.307  11.485  0.9734  1.4439  0.3328
80598SOL     OW53772   2.365   7.951  11.855 -0.1062 -0.6512  0.1315
80598SOL    HW153773   2.450   7.985  11.826 -1.3259  2.4597 -0.2754
80598SOL    HW253774   2.313   7.945  11.774 -1.2008  0.6141  0.7033
80599SOL     OW53775   4.053  12.014   2.246  0.1276 -0.2271 -0.5013
80599SOL    HW153776   4.121  12.003   2.312  1.0258  1.7674 -1.0202
80599SOL    HW253777   4.072  12.099   2.205 -1.3024 -0.6881 -2.2685
80600SOL     OW53778  12.419  12.460   6.451 -0.3033  0.0056 -0.1781
80600SOL    HW153779  12.431  12.483   6.359 -0.3657 -2.3012 -0.8239
80600SOL    HW253780  12.395  12.367   6.450 -0.5991 -0.0090  2.1563
80601SOL     OW53781  10.853  13.594   3.218 -0.2332 -0.1025 -0.3766
80601SOL    HW153782  10.921  13.642   3.170 -0.1305  0.6182  0.4743
80601SOL    HW253783  10.792  13.565   3.150  1.1668 -1.2048 -1.2270
80602SOL     OW53784   8.882  12.870  13.092 -0.0069 -0.0784  0.3227
80602SOL    HW153785   8.791  12.881  13.063 -1.0342 -0.0633  3.2299
80602SOL    HW253786   8.877  12.813  13.168  2.0885  1.7891  2.0315
80603SOL     OW53787   4.837   4.501   0.119 -0.1314 -0.3714 -0.4649
80603SOL    HW153788   4.929   4.524   0.109 -0.1937  0.1489  0.1349
80603SOL    HW253789   4.812   4.535   0.205 -0.9723 -0.2036 -0.7613
80604SOL     OW53790   3.498   0.078   4.719 -0.0932  0.1618  0.1956
80604SOL    HW153791   3.403   0.065   4.729  0.0578 -1.8434 -0.4013
80604SOL    HW253792   3.535  -0.008   4.740  1.3783  0.1956 -1.9610
80605SOL     OW53793  13.192   2.797  11.364  0.0201 -0.0084  0.1711
80605SOL    HW153794  13.242   2.821  11.286  3.2383  0.1579  2.1192
80605SOL    HW253795  13.221   2.709  11.386  0.4428  0.5518  2.0614
80606SOL     OW53796  13.804   6.469   5.243 -0.0235 -0.3256  0.6408
80606SOL    HW153797  13.730   6.411   5.263 -0.4604  0.0336  0.1060
80606SOL    HW253798  13.783   6.551   5.288  1.5060 -1.1256  2.9960
80607SOL     OW53799   2.124   7.671  12.679  0.6452 -0.0043 -0.0019
80607SOL    HW153800   2.196   7.639  12.624  0.6646  1.0258 -0.6071
80607SOL    HW253801   2.134   7.625  12.762  0.0587 -2.3248 -1.1351
80608SOL     OW53802  13.173   2.614  11.029 -0.0729 -0.0150  0.0624
80608SOL    HW153803  13.173   2.572  11.115 -1.0074 -0.4486 -0.1378
80608SOL    HW253804  13.101   2.572  10.982  0.9480 -0.3795 -1.2257
80609SOL     OW53805   7.045   3.351   1.036  0.1205 -0.2226  0.0768
80609SOL    HW153806   7.052   3.262   1.000 -3.4204 -0.6298  0.0471
80609SOL    HW253807   7.034   3.337   1.130  1.4168  0.3784  0.3479
80610SOL     OW53808  12.529   3.363   5.222 -0.0966  1.0076 -0.2122
80610SOL    HW153809  12.560   3.334   5.308 -0.1747 -0.6485 -0.7000
80610SOL    HW253810  12.540   3.458   5.223 -1.0176  1.1593  1.9891
80611SOL     OW53811  11.867   9.825  10.321  0.4836 -0.4334 -0.1333
80611SOL    HW153812  11.883   9.731  10.333 -1.4916 -0.6594  1.1863
80611SOL    HW253813  11.906   9.865  10.399  0.6384 -0.2274 -0.3149
80612SOL     OW53814   0.385   1.268   9.890  0.1215 -0.1237 -0.3127
80612SOL    HW153815   0.365   1.307   9.804  0.9327 -0.3425 -0.6027
80612SOL    HW253816   0.472   1.301   9.912 -0.7273  1.2807  1.2148
80613SOL     OW53817   8.146  11.729   4.557  0.0219  0.0847 -0.1390
80613SOL    HW153818   8.229  11.761   4.593 -0.6461  1.2441  0.4267
80613SOL    HW253819   8.125  11.790   4.486 -0.7270  0.2635  0.2256
80614SOL     OW53820  12.102   9.567  10.379 -0.2871 -0.7921  0.3781
80614SOL    HW153821  12.182   9.615  10.358 -0.1416 -0.8727  0.7434
80614SOL    HW253822  12.125   9.475  10.365 -0.4037 -0.7958  0.2052
80615SOL     OW53823  11.954   6.677   9.764  0.0623  0.1707  0.3748
80615SOL    HW153824  12.044   6.648   9.751 -0.3535 -0.9910 -0.0915
80615SOL    HW253825  11.942   6.748   9.700  1.1995  1.6847  1.7619
80616SOL     OW53826   9.120   7.485   9.759  0.2865  0.2005  0.0316
80616SOL    HW153827   9.196   7.452   9.807 -1.3014 -0.3456  2.3341
80616SOL    HW253828   9.129   7.580   9.763  2.1449  0.1984 -2.0494
80617SOL     OW53829   3.957   0.342  12.769 -1.1641  0.3253  0.3742
80617SOL    HW153830   3.873   0.368  12.731 -1.1126  2.3703  1.4885
80617SOL    HW253831   4.023   0.380  12.711 -0.9483 -1.6144 -0.7206
80618SOL     OW53832  11.782   4.798   0.885  0.3868  0.5456  0.2238
80618SOL    HW153833  11.775   4.702   0.883 -1.6919  0.6526 -0.5242
80618SOL    HW253834  11.768   4.825   0.794 -1.1802  1.6241  0.7370
80619SOL     OW53835   1.693   6.165  12.329 -0.4906  0.3354  0.1769
80619SOL    HW153836   1.681   6.075  12.298 -1.7708 -0.2236  2.1249
80619SOL    HW253837   1.719   6.214  12.251 -2.6648 -1.1199 -1.5827
80620SOL     OW53838   1.518   4.802  12.505 -0.4078 -0.2343  0.4270
80620SOL    HW153839   1.497   4.802  12.599  0.6777 -1.9158  0.7076
80620SOL    HW253840   1.601   4.755  12.499  1.4491  2.9006 -1.0121
80621SOL     OW53841  11.989   4.629  12.954 -0.1635  0.6730  0.3718
80621SOL    HW153842  11.983   4.613  12.859 -1.6689  0.3771  0.4933
80621SOL    HW253843  12.083   4.624  12.972  0.2025  1.2043 -1.1773
80622SOL     OW53844   3.377   4.142   7.496  0.5346  0.9585 -0.0739
80622SOL    HW153845   3.437   4.071   7.516  0.1137  1.2759  2.8635
80622SOL    HW253846   3.322   4.149   7.574  0.3803  4.3288 -0.3409
80623SOL     OW53847  12.034  10.995   9.181  0.4289 -0.1687  0.4580
80623SOL    HW153848  11.981  11.016   9.105  1.4738 -1.1990 -0.5939
80623SOL    HW253849  11.975  10.948   9.240 -0.1522 -0.1828 -0.1278
80624SOL     OW53850  12.647  13.197  13.936 -0.5045  0.0590 -0.3598
80624SOL    HW153851  12.624  13.156  14.019  1.9453 -0.6438  0.0244
80624SOL    HW253852  12.725  13.249  13.955  0.9477 -1.2171 -2.4808
80625SOL     OW53853   2.463   2.913  11.102  0.2067 -1.3876  0.0037
80625SOL    HW153854   2.531   2.954  11.048 -0.1103 -0.7998  0.0368
80625SOL    HW253855   2.432   2.984  11.159 -0.5412 -1.6057 -0.1199
80626SOL     OW53856  13.344   8.184  12.280  0.0536  1.0076  0.1054
80626SOL    HW153857  13.362   8.091  12.293 -2.3267  0.1823 -1.7410
80626SOL    HW253858  13.428   8.221  12.252  0.8785 -0.7420  0.1244
80627SOL     OW53859   8.129   7.348  14.033  0.3969  0.2110  0.4483
80627SOL    HW153860   8.097   7.437  14.016  1.8328  1.2358  2.6532
80627SOL    HW253861   8.101   7.298  13.956  1.1557  2.9889 -1.8395
80628SOL     OW53862   1.118   6.546   6.290  0.0962  0.3466 -0.2337
80628SOL    HW153863   1.135   6.456   6.318 -0.7990  0.7463  1.7641
80628SOL    HW253864   1.031   6.566   6.325 -0.4162  1.4877 -2.0224
80629SOL     OW53865   0.822   7.422   1.348  0.3162  0.2904  0.2439
80629SOL    HW153866   0.902   7.372   1.363 -0.4740 -1.0501  0.1701
80629SOL    HW253867   0.795   7.451   1.435  0.5051  0.1412  0.3519
80630SOL     OW53868   3.970   0.277   9.937  0.2248 -0.2168 -0.2568
80630SOL    HW153869   4.022   0.312  10.009  0.9611  0.7199 -1.2168
80630SOL    HW253870   3.999   0.326   9.860 -1.2892 -0.4643 -1.0163
80631SOL     OW53871  10.052  12.502   7.791  0.3138  0.3042 -0.1560
80631SOL    HW153872   9.984  12.463   7.846 -0.2809  1.3356 -0.1401
80631SOL    HW253873  10.131  12.451   7.811  0.0076  0.3745  1.3364
80632SOL     OW53874  12.732  13.318   8.241  0.2413  1.1201  0.1148
80632SOL    HW153875  12.762  13.376   8.171  0.1424  0.2376 -0.6775
80632SOL    HW253876  12.716  13.235   8.197  2.1335 -0.0641  1.5384
80633SOL     OW53877   5.304   9.957   2.181  0.3085 -0.2467  0.0777
80633SOL    HW153878   5.233   9.967   2.118  0.7113 -2.5564 -0.8353
80633SOL    HW253879   5.377  10.004   2.142 -0.0581  0.1546 -0.1334
80634SOL     OW53880  11.081   1.284   1.924 -0.0261  0.3662 -0.0824
80634SOL    HW153881  11.041   1.215   1.976 -0.8730 -0.1409 -1.3437
80634SOL    HW253882  11.165   1.301   1.966 -0.0288 -1.0702  0.5502
80635SOL     OW53883   3.833  10.004  10.841 -0.5796  0.2656 -0.4336
80635SOL    HW153884   3.778   9.932  10.810 -2.0817  0.6153  1.2304
80635SOL    HW253885   3.919   9.965  10.852 -1.2296 -1.1393 -0.1073
80636SOL     OW53886   4.716   7.184   3.147  0.1120 -0.4317  0.2353
80636SOL    HW153887   4.635   7.194   3.197 -0.4852  2.3699 -1.0920
80636SOL    HW253888   4.776   7.248   3.185  0.7008 -0.4359 -0.6518
80637SOL     OW53889  13.626   9.981   1.065 -0.1856  0.5171 -0.0596
80637SOL    HW153890  13.545   9.960   1.112 -0.0230 -1.3560 -0.5689
80637SOL    HW253891  13.683   9.906   1.080  1.3721  1.6494  0.0069
80638SOL     OW53892   3.498   6.118   1.676 -0.1461 -0.5199  0.0768
80638SOL    HW153893   3.508   6.175   1.752 -1.1964 -0.0220 -0.1386
80638SOL    HW253894   3.403   6.105   1.668  0.0063 -1.3327 -0.5894
80639SOL     OW53895   7.111   4.634  10.287  0.3948 -0.0119  0.0002
80639SOL    HW153896   7.124   4.617  10.193 -0.6745  0.5154 -0.2608
80639SOL    HW253897   7.176   4.579  10.330  1.5025  0.4041 -1.0829
80640SOL     OW53898   1.100   7.562   3.232 -0.2561  0.0068 -0.1899
80640SOL    HW153899   1.179   7.530   3.276 -0.1649 -0.1643 -0.4733
80640SOL    HW253900   1.028   7.520   3.279 -0.1331 -0.6950 -0.6065
80641SOL     OW53901   2.117   5.730   5.984 -0.0698  0.1665  0.4309
80641SOL    HW153902   2.080   5.800   6.036 -1.2108 -0.5890  0.6910
80641SOL    HW253903   2.046   5.705   5.924  0.7912  0.1819 -0.6272
80642SOL     OW53904   4.316   6.557   3.526 -0.0400 -0.6103  0.0484
80642SOL    HW153905   4.407   6.544   3.499  0.0275 -0.4712  0.2063
80642SOL    HW253906   4.269   6.480   3.492  0.1509 -0.7203  0.0332
80643SOL     OW53907   9.838   9.159   1.092  0.4981 -0.3253 -0.8384
80643SOL    HW153908   9.841   9.085   1.031 -1.8311 -0.4702 -0.8948
80643SOL    HW253909   9.851   9.236   1.037 -0.2694 -0.5386 -1.3454
80644SOL     OW53910   6.668   1.731   9.148 -0.1487 -0.8119  0.0936
80644SOL    HW153911   6.757   1.726   9.113 -0.7318 -1.3196 -1.3598
80644SOL    HW253912   6.643   1.640   9.164 -0.7243 -0.7312 -0.3314
80645SOL     OW53913   9.718   1.265  13.017 -0.0544 -0.6735  0.7868
80645SOL    HW153914   9.625   1.248  13.002 -0.1198  0.2214  0.1118
80645SOL    HW253915   9.730   1.356  12.990  1.4629 -1.4013 -1.1901
80646SOL     OW53916   3.741  11.231   1.808  0.7315  0.0834  0.0163
80646SOL    HW153917   3.825  11.212   1.850  0.0441 -0.2958  1.2602
80646SOL    HW253918   3.718  11.319   1.839  0.7186  0.2357 -0.4207
80647SOL     OW53919  10.495  13.974   5.804  0.0104  0.2201  0.0960
80647SOL    HW153920  10.460  13.909   5.864  1.5855  0.5111  1.3959
80647SOL    HW253921  10.443  13.963   5.724  0.0212 -2.3894  0.3625
80648SOL     OW53922  12.576   3.614   8.178  0.0699 -0.3389  0.0014
80648SOL    HW153923  12.542   3.557   8.247 -0.1389 -0.9538 -0.6057
80648SOL    HW253924  12.670   3.622   8.197 -0.4196  1.8342  2.0310
80649SOL     OW53925  10.309  13.313  11.292 -0.0343  0.4502 -0.0457
80649SOL    HW153926  10.382  13.252  11.287 -1.2842 -1.2141  0.9905
80649SOL    HW253927  10.302  13.349  11.204  0.3998 -1.3288 -0.8541
80650SOL     OW53928   0.667   8.204   6.380 -0.1311  0.1074 -0.1995
80650SOL    HW153929   0.706   8.284   6.343 -0.4099 -0.4417 -1.7605
80650SOL    HW253930   0.620   8.165   6.307 -0.7389 -1.0364  0.7802
80651SOL     OW53931   1.054   2.588   6.226  0.4820  0.0918  0.9438
80651SOL    HW153932   1.061   2.494   6.212  0.0722  0.2031 -0.0507
80651SOL    HW253933   0.996   2.597   6.302 -0.9390 -0.4217 -0.0422
80652SOL     OW53934  12.284   9.350   1.334  0.0115  0.2661  0.3277
80652SOL    HW153935  12.283   9.295   1.257 -0.3447 -0.0342  0.5486
80652SOL    HW253936  12.247   9.433   1.305 -0.3679  0.0671  0.2464
80653SOL     OW53937   7.418   7.886  10.807  0.1471  0.5224 -0.2915
80653SOL    HW153938   7.412   7.793  10.829  0.2121  0.7751  0.8749
80653SOL    HW253939   7.435   7.929  10.891 -1.3628  1.7303 -0.5574
80654SOL     OW53940  13.023   6.050   0.926  0.0154 -0.0395 -0.4987
80654SOL    HW153941  12.969   6.028   0.851 -0.3380  0.8442 -0.5132
80654SOL    HW253942  13.089   5.980   0.930 -1.5811 -1.5990  0.0049
80655SOL     OW53943  13.223   8.314   4.523 -0.0391 -0.6657 -0.2552
80655SOL    HW153944  13.266   8.353   4.599 -1.5929 -0.9983  0.8637
80655SOL    HW253945  13.178   8.386   4.480 -1.9202 -0.9208  1.1259
80656SOL     OW53946   0.202   2.906   3.245  0.6954  0.4756  0.3163
80656SOL    HW153947   0.240   2.968   3.183  1.9412 -0.5178  0.0342
80656SOL    HW253948   0.109   2.903   3.223  0.9393  0.9085 -0.8217
80657SOL     OW53949   0.481  12.198   8.183 -0.5387  0.3577 -1.0008
80657SOL    HW153950   0.571  12.172   8.161 -0.6534 -0.2526 -0.7744
80657SOL    HW253951   0.463  12.154   8.266 -1.4294 -0.4338 -1.5911
80658SOL     OW53952   7.939   9.529  11.553  0.4143  0.3654 -0.6034
80658SOL    HW153953   7.941   9.508  11.646 -0.8573  2.5785 -0.0077
80658SOL    HW253954   7.963   9.447  11.510  1.7762 -0.5332  1.6593
80659SOL     OW53955   5.437   0.299  13.079  0.3874  0.7320 -0.2123
80659SOL    HW153956   5.486   0.281  13.159 -0.0737  1.3003  0.2123
80659SOL    HW253957   5.439   0.217  13.030  0.8631  0.4438  0.2811
80660SOL     OW53958   1.106  11.560  13.779 -0.0066  0.0750 -0.1249
80660SOL    HW153959   1.014  11.535  13.787  0.1263 -0.3134  0.2097
80660SOL    HW253960   1.114  11.638  13.834 -0.7847  1.8606 -2.4219
80661SOL     OW53961   5.593   0.839  13.551 -0.6479  0.4787  0.2333
80661SOL    HW153962   5.668   0.872  13.502  0.4351  1.0637  2.1887
80661SOL    HW253963   5.547   0.918  13.581 -0.7669  0.1523  0.9256
80662SOL     OW53964  12.686  10.365   2.766 -0.1093 -0.1600  0.0455
80662SOL    HW153965  12.737  10.388   2.689 -1.1550 -1.0806 -0.9610
80662SOL    HW253966  12.697  10.270   2.775 -1.0532 -0.2634  0.2149
80663SOL     OW53967  12.216   3.427  10.941 -0.4986 -0.0330 -0.0426
80663SOL    HW153968  12.306   3.409  10.913  0.0381  2.0751  0.2033
80663SOL    HW253969  12.181   3.341  10.964  0.9700 -1.0852 -1.5019
80664SOL     OW53970   1.904  12.688   2.586 -0.1493 -0.3602 -0.3114
80664SOL    HW153971   1.926  12.596   2.576  0.1394 -0.5200  1.5427
80664SOL    HW253972   1.909  12.705   2.680  1.3020  1.9174 -0.7236
80665SOL     OW53973   9.455  12.677   6.069 -0.3144  0.0538  0.1106
80665SOL    HW153974   9.516  12.717   6.131 -0.8733  0.2223  0.5652
80665SOL    HW253975   9.406  12.750   6.033 -0.5172 -0.1110  0.0492
80666SOL     OW53976  12.696  10.965   2.124  0.0719  0.2429  0.5845
80666SOL    HW153977  12.693  10.899   2.194  1.3998 -0.1154  0.3408
80666SOL    HW253978  12.746  10.923   2.054  0.0581  1.1437  0.0148
80667SOL     OW53979   6.432   6.625   3.784 -0.1263 -0.8513 -0.7812
80667SOL    HW153980   6.351   6.660   3.821  1.3319  0.9062  0.9666
80667SOL    HW253981   6.472   6.577   3.857  2.0435  1.3269 -0.4334
80668SOL     OW53982   1.658   3.566  11.249  0.5257 -0.4446 -0.5717
80668SOL    HW153983   1.704   3.530  11.173  0.6608  1.5379 -1.4993
80668SOL    HW253984   1.578   3.603  11.213  0.4223  0.2144  0.2941
80669SOL     OW53985  10.530   1.241   8.768 -0.6576 -0.0308  0.6581
80669SOL    HW153986  10.443   1.210   8.793 -0.5705  0.1600  1.2025
80669SOL    HW253987  10.564   1.172   8.711 -0.8652 -0.4647  1.0551
80670SOL     OW53988   7.641   6.339   4.960  0.2094  0.3176 -0.3600
80670SOL    HW153989   7.679   6.383   4.884  1.1951 -0.8642 -0.5966
80670SOL    HW253990   7.617   6.409   5.020  2.1164  1.1739 -0.5269
80671SOL     OW53991   1.379   0.988   6.346 -0.0069  0.3731  0.0355
80671SOL    HW153992   1.362   1.002   6.253  0.9097  0.6005 -0.1104
80671SOL    HW253993   1.307   0.931   6.376  1.5683 -2.7981 -1.6442
80672SOL     OW53994  10.959   9.443  11.760  0.0985 -0.3632  0.0709
80672SOL    HW153995  10.945   9.352  11.786 -0.8071 -0.2624 -0.0327
80672SOL    HW253996  10.874   9.472  11.726  0.4774  0.4044 -0.2506
80673SOL     OW53997  11.221  10.518   9.433 -0.3984  0.4213  0.5014
80673SOL    HW153998  11.179  10.573   9.500 -1.4115  1.0375 -0.5943
80673SOL    HW253999  11.152  10.504   9.368  1.0118  1.2261 -1.2342
80674SOL     OW54000  12.201   6.674   6.771 -0.0443 -0.0999 -0.1952
80674SOL    HW154001  12.226   6.662   6.679  0.0272  0.7007 -0.2812
80674SOL    HW254002  12.122   6.728   6.767  0.3096  0.4562  0.2366
80675SOL     OW54003  11.013  13.658  13.131 -0.2203  0.3482 -0.4686
80675SOL    HW154004  10.959  13.618  13.200  1.5539  1.3070  1.5993
80675SOL    HW254005  10.950  13.698  13.071 -1.8439 -0.3293  0.7065
80676SOL     OW54006   0.862   9.149   1.280  0.4346 -0.1190  0.0913
80676SOL    HW154007   0.861   9.063   1.323  1.4642 -0.4436 -0.4906
80676SOL    HW254008   0.922   9.137   1.206 -0.5204  0.7126 -0.8358
80677SOL     OW54009  13.878  10.617  11.086 -0.2222  0.0996  0.0017
80677SOL    HW154010  13.818  10.615  11.012 -1.5722 -0.0411  1.0641
80677SOL    HW254011  13.853  10.694  11.136 -0.7429 -0.9309  1.4142
80678SOL     OW54012   4.121   3.466   3.353 -0.1511  0.2880  0.0908
80678SOL    HW154013   4.083   3.456   3.440 -0.4479 -2.5011 -0.2478
80678SOL    HW254014   4.045   3.481   3.296 -0.3176 -0.9185 -0.0319
80679SOL     OW54015  11.429   9.053   1.412 -0.1066 -0.1858  0.0759
80679SOL    HW154016  11.414   8.962   1.436  1.4100 -0.6001 -0.4554
80679SOL    HW254017  11.480   9.049   1.331  1.2753  1.0965  0.8370
80680SOL     OW54018  12.981   6.275   4.683 -0.1889 -0.0807 -0.6226
80680SOL    HW154019  12.892   6.286   4.717 -0.4940  0.7547 -1.6321
80680SOL    HW254020  12.971   6.273   4.588  0.6439 -2.3185 -0.7179
80681SOL     OW54021   0.301   4.438   7.245  0.3628  1.1668  0.4558
80681SOL    HW154022   0.232   4.381   7.212  0.7245 -0.2039  1.9587
80681SOL    HW254023   0.328   4.489   7.168  0.3496 -1.0083 -1.0792
80682SOL     OW54024   6.147  11.724  13.010  0.0331  0.2208  0.1880
80682SOL    HW154025   6.227  11.710  12.958 -0.9089 -0.9439 -1.0315
80682SOL    HW254026   6.100  11.792  12.962  0.1551  0.7191  0.7642
80683SOL     OW54027   6.553  10.802   6.228  0.0111  0.1323 -0.0799
80683SOL    HW154028   6.466  10.797   6.188 -0.5446  0.6115  1.0221
80683SOL    HW254029   6.611  10.825   6.156 -1.0974  1.9281 -0.4697
80684SOL     OW54030   1.085  12.117   2.268  0.2123 -0.2737  0.2080
80684SOL    HW154031   1.058  12.169   2.343 -0.6921 -0.2752 -0.1062
80684SOL    HW254032   1.171  12.152   2.243 -0.7337  1.6193 -0.5139
80685SOL     OW54033   3.691   6.413   7.858 -0.1757  0.5146 -0.0617
80685SOL    HW154034   3.644   6.484   7.901  0.1090  1.2388 -0.9263
80685SOL    HW254035   3.625   6.345   7.846 -0.1379  0.0596  1.9959
80686SOL     OW54036  10.600   4.829   4.930 -0.4453 -1.0950 -0.0623
80686SOL    HW154037  10.641   4.852   4.846  0.8828 -0.1097  0.8144
80686SOL    HW254038  10.566   4.913   4.963  0.1996 -1.2371  0.9819
80687SOL     OW54039  13.858   7.924  13.409 -0.0139  0.0581 -0.6523
80687SOL    HW154040  13.897   7.959  13.489 -1.7068  0.9777 -0.1772
80687SOL    HW254041  13.842   7.832  13.428 -0.3082  0.2474  0.0283
80688SOL     OW54042   6.273  10.112   6.658  0.0510  0.0851 -0.2672
80688SOL    HW154043   6.217  10.052   6.706 -0.6528  0.5357 -0.5114
80688SOL    HW254044   6.329  10.055   6.605  1.5699 -0.4650  1.8291
80689SOL     OW54045   7.692   5.612  13.754  0.2160 -0.5115 -0.3748
80689SOL    HW154046   7.748   5.538  13.776  0.9150  0.3751  0.9809
80689SOL    HW254047   7.739   5.658  13.684  2.0875  1.1182  1.8137
80690SOL     OW54048  11.663  10.882   4.547  0.5580  0.0036  0.4925
80690SOL    HW154049  11.667  10.806   4.489  1.4258  0.2739  0.1719
80690SOL    HW254050  11.735  10.867   4.609 -0.5457 -0.4298  1.6911
80691SOL     OW54051  13.808   6.567   8.750 -0.2649 -0.0833 -0.2842
80691SOL    HW154052  13.889   6.558   8.800 -0.9850 -0.0551  0.9271
80691SOL    HW254053  13.744   6.600   8.813 -1.6411 -1.6706 -0.7686
80692SOL     OW54054   9.580   4.168  12.729  0.0230 -0.0030 -0.6526
80692SOL    HW154055   9.664   4.198  12.696  1.0663 -1.4048  0.5820
80692SOL    HW254056   9.533   4.248  12.750  0.3189  0.8522 -2.9849
80693SOL     OW54057   6.832   1.100  12.344  0.7407  0.2364  0.2023
80693SOL    HW154058   6.762   1.162  12.324  0.5224 -0.3472 -0.9269
80693SOL    HW254059   6.912   1.142  12.312  0.5918 -0.0482 -0.5692
80694SOL     OW54060   8.542   9.107  10.313 -0.3210  0.1537  0.1065
80694SOL    HW154061   8.468   9.095  10.373 -0.6061  0.4574 -0.1745
80694SOL    HW254062   8.610   9.050  10.346 -0.8577 -0.5091  0.0832
80695SOL     OW54063   4.382   7.137   9.516  0.2009 -0.7942 -0.0233
80695SOL    HW154064   4.300   7.171   9.481  0.5019 -0.8854 -0.8205
80695SOL    HW254065   4.402   7.196   9.590 -0.2187 -0.3466 -0.2619
80696SOL     OW54066  10.716   3.000   4.333  0.3498  0.3789  0.0121
80696SOL    HW154067  10.717   2.973   4.242  1.9574 -0.3279  0.2066
80696SOL    HW254068  10.624   3.000   4.357 -0.0587  0.0390 -1.4450
80697SOL     OW54069   2.728   3.157  13.335 -0.6509  0.3874 -0.0611
80697SOL    HW154070   2.777   3.185  13.257 -0.8613 -1.9165 -1.1199
80697SOL    HW254071   2.638   3.183  13.318 -0.3863  1.6615  0.3671
80698SOL     OW54072   0.895   5.309   5.928 -0.0389  0.6863 -0.5109
80698SOL    HW154073   0.895   5.404   5.913  0.7419  0.5155 -1.7783
80698SOL    HW254074   0.923   5.272   5.844  2.3653 -0.5265  0.7186
80699SOL     OW54075   0.572   6.336  12.226 -0.1114  0.0099 -0.1317
80699SOL    HW154076   0.623   6.258  12.206  0.3280 -0.3032  2.0391
80699SOL    HW254077   0.622   6.408  12.186  0.8622 -0.5394  0.0647
80700SOL     OW54078   1.630   1.904   7.785  0.2201  0.1763  0.0326
80700SOL    HW154079   1.649   1.950   7.703  0.3948 -0.2683 -0.1785
80700SOL    HW254080   1.709   1.917   7.838 -0.8132  2.6107  1.1525
80701SOL     OW54081   9.206   0.007   3.166  0.2996  0.1827  0.5973
80701SOL    HW154082   9.158  -0.044   3.100  0.7783 -1.1800  1.2725
80701SOL    HW254083   9.196   0.098   3.137  0.4323 -0.3605 -1.3232
80702SOL     OW54084   0.588  12.072  12.818  0.4673 -0.0334  0.7144
80702SOL    HW154085   0.615  12.071  12.726  1.9925  1.9606  1.0707
80702SOL    HW254086   0.533  11.994  12.828  0.4034 -0.3969 -1.8255
80703SOL     OW54087  11.928  10.260   3.044 -0.2477  0.3675 -0.2993
80703SOL    HW154088  12.013  10.294   3.071  1.2797 -2.9076 -0.5353
80703SOL    HW254089  11.881  10.242   3.126  1.0807 -1.8106  0.0547
80704SOL     OW54090   4.345  13.065   0.781  0.1714  0.0306  0.1376
80704SOL    HW154091   4.397  13.090   0.705  1.8373  0.1902  1.2851
80704SOL    HW254092   4.398  13.001   0.828 -0.1920  0.9292  1.8740
80705SOL     OW54093   9.392   4.562   6.815  0.5707  0.3867  0.2169
80705SOL    HW154094   9.373   4.624   6.885  0.6310 -3.3168  3.8787
80705SOL    HW254095   9.487   4.567   6.803  0.7242  0.2552  1.2921
80706SOL     OW54096   0.540   5.882  10.574  0.0556 -0.2743  0.3112
80706SOL    HW154097   0.605   5.859  10.508  0.9382 -0.5137  1.2385
80706SOL    HW254098   0.503   5.964  10.542 -1.4918 -1.7118 -1.8510
80707SOL     OW54099   6.073   9.004   4.146 -0.8666  0.3733  0.1261
80707SOL    HW154100   6.046   9.035   4.232 -0.4721 -1.6501  1.0495
80707SOL    HW254101   6.118   9.078   4.106  0.3197  0.9012  2.3016
80708SOL     OW54102   5.582  13.271   1.660  0.3301  0.5570  0.2561
80708SOL    HW154103   5.560  13.355   1.619 -0.6877 -0.0715 -0.5274
80708SOL    HW254104   5.502  13.219   1.655  0.8410 -0.3487  1.0471
80709SOL     OW54105   9.960   5.269   1.862  0.2896  0.6254 -0.4024
80709SOL    HW154106   9.893   5.202   1.879  0.7133 -0.0615 -1.3591
80709SOL    HW254107  10.037   5.238   1.911  0.2626  0.8014 -0.2490
80710SOL     OW54108   3.769   3.876   1.842  0.2870  0.2116 -0.3540
80710SOL    HW154109   3.710   3.883   1.767  0.2367 -0.2567 -0.3666
80710SOL    HW254110   3.719   3.911   1.916  1.3051  3.3110 -0.9833
80711SOL     OW54111   2.135  11.953  13.377 -1.0643  0.4041 -0.0945
80711SOL    HW154112   2.184  11.927  13.455 -0.1212  0.6002 -0.6035
80711SOL    HW254113   2.058  11.997  13.411 -1.6114 -1.1328  0.7584
80712SOL     OW54114   3.350   8.511   9.785  0.5183 -0.1454  0.3128
80712SOL    HW154115   3.361   8.536   9.877  3.1836  1.2328 -0.2715
80712SOL    HW254116   3.319   8.591   9.742 -1.6640 -1.0419  0.0881
80713SOL     OW54117   5.924   8.288   1.462 -0.1753 -0.5925  0.5529
80713SOL    HW154118   5.951   8.207   1.420  0.2169 -0.3607  0.3508
80713SOL    HW254119   5.868   8.260   1.535 -0.0852 -1.0385  0.4533
80714SOL     OW54120   4.161  11.146  11.841  0.1692 -0.6295  0.6212
80714SOL    HW154121   4.169  11.086  11.767  1.5112 -1.4929  1.4223
80714SOL    HW254122   4.118  11.094  11.909 -0.0753 -0.1899  0.8058
80715SOL     OW54123   7.578   9.509   0.687  0.0328 -0.0024  0.5916
80715SOL    HW154124   7.604   9.582   0.744 -2.0321  0.8342  0.5806
80715SOL    HW254125   7.583   9.546   0.599 -2.1015  0.5684  0.6565
80716SOL     OW54126   5.926   5.037  11.865 -0.5200  0.2329 -0.5546
80716SOL    HW154127   5.880   5.116  11.892 -1.5013 -0.4133 -0.2777
80716SOL    HW254128   6.004   5.034  11.920 -0.9181  0.5592  0.0343
80717SOL     OW54129   4.813   0.963  11.586 -0.5538  0.5505 -0.4462
80717SOL    HW154130   4.751   0.917  11.644 -0.5963  1.2873  0.1071
80717SOL    HW254131   4.814   0.910  11.506 -0.1326 -0.7585  0.3857
80718SOL     OW54132   5.194  11.529   2.186  0.2793  0.0204  0.0525
80718SOL    HW154133   5.276  11.571   2.157 -0.6889  1.3095 -0.9677
80718SOL    HW254134   5.211  11.435   2.179  1.2219  0.2662 -1.5533
80719SOL     OW54135   0.412   6.373  13.328  0.1327  0.0028  0.2753
80719SOL    HW154136   0.455   6.398  13.409 -0.7506  0.3931  0.6347
80719SOL    HW254137   0.471   6.404  13.259  0.0512  1.2742  0.7416
80720SOL     OW54138  13.095   6.501   8.243  0.4217 -0.1219 -0.3363
80720SOL    HW154139  13.086   6.594   8.226 -1.2505 -0.3194 -0.7081
80720SOL    HW254140  13.101   6.494   8.338  1.0266  0.3987 -0.3376
80721SOL     OW54141  11.711  12.200   2.667  0.7698 -0.4774 -0.0503
80721SOL    HW154142  11.668  12.217   2.583  3.2283  0.6575 -1.1887
80721SOL    HW254143  11.763  12.121   2.652 -1.1448 -2.1278  1.4546
80722SOL     OW54144  10.892   2.839   9.404 -0.2545  0.2491 -0.1954
80722SOL    HW154145  10.977   2.864   9.367  0.2698 -0.9153  0.1589
80722SOL    HW254146  10.897   2.866   9.495 -0.2354  0.1375 -0.1626
80723SOL     OW54147   4.233  10.138  10.315  0.4729  0.0872  0.4870
80723SOL    HW154148   4.222  10.092  10.398  0.3138 -0.8586 -0.0471
80723SOL    HW254149   4.319  10.181  10.323 -0.2564  1.3724  1.7634
80724SOL     OW54150   5.160   8.891   6.095  0.6827  0.1248 -0.1406
80724SOL    HW154151   5.113   8.891   6.011  1.1725 -0.6177 -0.4279
80724SOL    HW254152   5.169   8.984   6.118 -2.4055  0.2832  0.7957
80725SOL     OW54153   7.672   6.891   8.080  0.3881 -0.0124  0.0125
80725SOL    HW154154   7.744   6.888   8.144 -0.4648  1.9735  1.1703
80725SOL    HW254155   7.630   6.805   8.087  1.6604 -0.6284  0.4652
80726SOL     OW54156   7.301   0.929   5.669 -0.3629  0.8894  0.5910
80726SOL    HW154157   7.210   0.957   5.657 -0.0480  1.2718 -1.0528
80726SOL    HW254158   7.353   1.002   5.637  0.4831 -0.6109 -1.7298
80727SOL     OW54159   6.636   7.594  13.502  0.6764 -0.6001 -0.7840
80727SOL    HW154160   6.551   7.639  13.504  1.7388  1.5064  0.2592
80727SOL    HW254161   6.617   7.506  13.533 -1.1332 -0.1902 -0.5843
80728SOL     OW54162   5.250   9.717   6.961  0.4808  0.0994 -0.7636
80728SOL    HW154163   5.221   9.764   7.040 -2.2580 -0.2867 -1.4393
80728SOL    HW254164   5.216   9.629   6.972  1.4341 -0.4027 -1.7000
80729SOL     OW54165  11.055   3.880   4.083  0.0210  0.3156 -0.5097
80729SOL    HW154166  11.075   3.962   4.039 -0.5958  1.8159  1.8018
80729SOL    HW254167  10.967   3.857   4.052 -0.2021  1.0726 -0.4615
80730SOL     OW54168  13.657   9.095   2.368 -0.0972 -0.2413 -0.2106
80730SOL    HW154169  13.727   9.032   2.349  0.9457  0.3677  1.3786
80730SOL    HW254170  13.654   9.099   2.464 -0.5795  1.6304 -0.2671
80731SOL     OW54171   4.251   9.543   1.161 -0.3374  0.2592  0.2939
80731SOL    HW154172   4.195   9.607   1.116  0.0979  1.2121  1.0824
80731SOL    HW254173   4.340   9.570   1.139 -0.1078  0.8762  1.8904
80732SOL     OW54174   8.042   0.343   7.088 -0.2378 -0.2525  0.3360
80732SOL    HW154175   8.028   0.260   7.133 -0.3176  0.1636  1.0927
80732SOL    HW254176   8.124   0.377   7.124  1.0663 -1.1013 -1.6723
80733SOL     OW54177   1.300   9.551   8.194 -0.3843  0.1364  0.4966
80733SOL    HW154178   1.275   9.472   8.242 -0.3998 -0.0796  0.1427
80733SOL    HW254179   1.349   9.518   8.118 -0.7470  0.4389  0.1248
80734SOL     OW54180   1.391   6.483   7.778 -0.3370  0.3071 -0.1709
80734SOL    HW154181   1.472   6.507   7.733  0.6117  0.1553  1.3831
80734SOL    HW254182   1.341   6.565   7.782  0.6004  0.8697  0.5427
80735SOL     OW54183   2.681   5.254  10.714 -0.0343 -0.3098  0.2447
80735SOL    HW154184   2.626   5.283  10.641 -0.1921 -1.6259 -0.1917
80735SOL    HW254185   2.769   5.249  10.677  0.0006 -0.3459  0.3319
80736SOL     OW54186  13.654   3.454  13.395  0.9321 -0.5877  0.2710
80736SOL    HW154187  13.666   3.487  13.306 -0.5210  0.2842  0.3678
80736SOL    HW254188  13.652   3.532  13.450  0.2927 -1.0174  0.8716
80737SOL     OW54189  13.565   6.832   6.195  0.3788 -0.5698  0.0540
80737SOL    HW154190  13.579   6.908   6.138 -2.2052 -1.0610 -1.3902
80737SOL    HW254191  13.517   6.867   6.270 -1.7589 -0.8421 -1.1103
80738SOL     OW54192   7.641  10.103   8.735 -0.3169  0.1600 -0.0038
80738SOL    HW154193   7.627  10.015   8.703  1.5612 -0.4290  0.6479
80738SOL    HW254194   7.622  10.160   8.660 -0.4015 -0.8581 -0.7711
80739SOL     OW54195  10.635   1.764   7.606  0.1241 -0.3138 -0.2827
80739SOL    HW154196  10.719   1.747   7.649 -0.3881  0.2467  0.9918
80739SOL    HW254197  10.654   1.834   7.543  0.3325  0.8932  1.0716
80740SOL     OW54198   0.739   9.057  12.228 -0.3296 -0.2956 -0.3743
80740SOL    HW154199   0.688   8.988  12.185  1.7617 -1.0163 -1.8757
80740SOL    HW254200   0.725   9.134  12.173  0.4129 -0.5800 -0.9814
80741SOL     OW54201   4.903   3.217  11.654 -0.1096  0.1058 -0.0853
80741SOL    HW154202   4.969   3.193  11.719  1.0804  1.1751 -0.8465
80741SOL    HW254203   4.862   3.134  11.629  1.9889 -0.8069 -0.6756
80742SOL     OW54204  13.510  10.688   0.806 -0.3116  0.1603  1.0575
80742SOL    HW154205  13.429  10.643   0.778 -0.2010  0.4836  0.1623
80742SOL    HW254206  13.580  10.633   0.773 -0.1469 -0.4173  2.3312
80743SOL     OW54207   7.108   0.191   6.671 -0.1509  0.1356 -0.0072
80743SOL    HW154208   7.138   0.260   6.729 -0.6439  0.0293  0.3805
80743SOL    HW254209   7.064   0.128   6.728 -1.9727  0.7583 -0.6425
80744SOL     OW54210  10.521   3.655  12.618  0.3615  0.0648 -0.4231
80744SOL    HW154211  10.527   3.702  12.701 -0.1166  0.6850 -0.7324
80744SOL    HW254212  10.552   3.717  12.552 -0.0215 -0.1390 -0.8073
80745SOL     OW54213   9.509  10.153   6.641 -1.1227  0.1166 -0.3412
80745SOL    HW154214   9.592  10.111   6.620 -1.3669 -1.0380  0.8489
80745SOL    HW254215   9.480  10.192   6.559  1.3403  1.9690 -0.4263
80746SOL     OW54216  11.443   4.292   3.196 -0.2786  0.4571 -0.3807
80746SOL    HW154217  11.348   4.291   3.206 -0.4284 -1.8200 -1.3555
80746SOL    HW254218  11.473   4.364   3.253 -2.2190 -1.4206  3.4136
80747SOL     OW54219   8.496   6.535  12.835 -0.3775 -0.3354 -0.0775
80747SOL    HW154220   8.564   6.573  12.891 -0.2716  0.7815 -0.9454
80747SOL    HW254221   8.420   6.525  12.893 -0.0985  0.2888  0.3990
80748SOL     OW54222   9.155   4.076  13.326  0.4768  0.1542 -0.3168
80748SOL    HW154223   9.075   4.122  13.300 -0.1335 -1.2065 -0.9473
80748SOL    HW254224   9.214   4.086  13.252  0.7701  0.8602  0.0058
80749SOL     OW54225   4.917   9.857  10.920  0.2555 -0.0439  0.0953
80749SOL    HW154226   4.874   9.917  10.980  0.3166  0.0132  0.0814
80749SOL    HW254227   5.007   9.888  10.914  0.8603 -1.3418  1.6948
80750SOL     OW54228   0.459   1.821   5.356 -0.4780 -0.2292 -0.2262
80750SOL    HW154229   0.481   1.912   5.337 -0.9976  0.1700  0.9694
80750SOL    HW254230   0.425   1.823   5.445  0.4600 -1.7512  0.2063
80751SOL     OW54231  12.346   1.717  11.941  0.0506 -0.3947 -0.7483
80751SOL    HW154232  12.284   1.765  11.887 -0.8266 -2.3558 -1.5798
80751SOL    HW254233  12.431   1.757  11.921 -0.6623  0.9649 -1.1707
80752SOL     OW54234  10.996  11.905  13.257  0.3374 -0.9917  0.4599
80752SOL    HW154235  10.977  11.931  13.348 -0.0841  0.1112  0.0783
80752SOL    HW254236  10.909  11.896  13.217  0.5325 -0.6099 -0.0556
80753SOL     OW54237  11.262   0.526  11.591  0.0845  0.0666  0.0997
80753SOL    HW154238  11.183   0.513  11.538 -0.8578 -1.2554  1.7151
80753SOL    HW254239  11.329   0.474  11.547  0.3920  1.9122 -1.7993
80754SOL     OW54240   6.809  12.960  10.965 -0.0761 -0.0348  0.0068
80754SOL    HW154241   6.744  12.921  11.024  1.7580  0.7589  2.7785
80754SOL    HW254242   6.779  13.050  10.952  0.5759  0.4443  1.5849
80755SOL     OW54243  12.760   5.589   1.323  0.0048 -0.3554  0.7243
80755SOL    HW154244  12.812   5.587   1.404 -0.5032  1.7388  1.1765
80755SOL    HW254245  12.670   5.582   1.352 -0.1353 -0.6437  0.2342
80756SOL     OW54246   4.487   7.664   9.044  0.0219  0.3032 -0.2071
80756SOL    HW154247   4.557   7.695   8.986  0.5358  0.2928  0.3903
80756SOL    HW254248   4.428   7.738   9.053 -0.5563  0.0068 -1.4764
80757SOL     OW54249   6.646   6.870  11.118 -0.4267  0.2678 -0.8918
80757SOL    HW154250   6.619   6.950  11.163  1.9495  1.0814 -0.7359
80757SOL    HW254251   6.603   6.799  11.166  0.3063  1.2446  1.3665
80758SOL     OW54252   6.705  10.458   1.576 -0.2558 -0.3402  0.2294
80758SOL    HW154253   6.762  10.396   1.623  1.0538  0.1567 -0.6437
80758SOL    HW254254   6.743  10.463   1.488 -1.0704  0.7861 -0.0748
80759SOL     OW54255  12.561   5.141   6.313 -0.0713 -0.1877 -0.0412
80759SOL    HW154256  12.481   5.092   6.329  0.1616 -0.3344  0.6967
80759SOL    HW254257  12.631   5.076   6.323  0.2089  0.1905  0.4701
80760SOL     OW54258  11.772   5.000   3.084 -0.0051 -0.0311 -0.6702
80760SOL    HW154259  11.814   4.920   3.051  1.0160  0.2066  0.0221
80760SOL    HW254260  11.679   4.986   3.067  0.0070 -1.8947  0.4739
80761SOL     OW54261  10.550  13.334   2.525  0.3530 -0.1359  0.3182
80761SOL    HW154262  10.599  13.364   2.448 -0.2001 -1.3197 -0.5161
80761SOL    HW254263  10.515  13.249   2.500  0.5288 -0.7586  2.0512
80762SOL     OW54264  12.744   2.266   8.128  0.2356  0.3782  0.1496
80762SOL    HW154265  12.836   2.281   8.104  0.7689 -0.3932  1.6107
80762SOL    HW254266  12.730   2.173   8.113 -0.0767  0.3389  0.6781
80763SOL     OW54267  13.243   5.569   5.250 -0.0127 -0.1471 -0.4067
80763SOL    HW154268  13.171   5.561   5.188 -0.2441 -1.8636  0.0429
80763SOL    HW254269  13.322   5.563   5.196 -0.2146 -1.2902 -0.6057
80764SOL     OW54270   8.227  10.343  12.611  0.1690  0.2178 -0.4551
80764SOL    HW154271   8.252  10.310  12.697 -1.0943  0.1934 -0.0725
80764SOL    HW254272   8.134  10.324  12.604 -0.0003  1.2515 -1.3555
80765SOL     OW54273   0.898   1.916   0.134  0.5167  0.6638 -0.1144
80765SOL    HW154274   0.968   1.898   0.071  0.6596  0.7981  0.0033
80765SOL    HW254275   0.944   1.935   0.216  0.4377  2.3518 -0.4155
80766SOL     OW54276  10.970   4.191  11.583 -0.0907  0.1464  0.9313
80766SOL    HW154277  10.905   4.125  11.608  1.2332 -0.8782  1.8266
80766SOL    HW254278  10.928   4.275  11.604 -0.9957 -0.4981  1.8256
80767SOL     OW54279   3.833   0.808   2.573 -0.1453  0.0223  0.3527
80767SOL    HW154280   3.829   0.845   2.485  0.9571 -0.7312 -0.0275
80767SOL    HW254281   3.926   0.803   2.593 -0.3928  1.4469  2.1301
80768SOL     OW54282   3.919   5.752  13.631  0.0468 -0.1903 -0.7043
80768SOL    HW154283   3.842   5.773  13.578 -0.6016 -0.5245  0.0859
80768SOL    HW254284   3.963   5.837  13.644 -0.7031  0.1617 -0.3784
80769SOL     OW54285  13.199   3.732  13.209  0.3175 -0.3760  0.1359
80769SOL    HW154286  13.169   3.750  13.120  0.5964 -1.6242 -0.2366
80769SOL    HW254287  13.122   3.748  13.264 -0.0480 -0.2413 -0.4090
80770SOL     OW54288   7.900  10.509  12.158 -0.2184  0.5996  0.2792
80770SOL    HW154289   7.923  10.468  12.074 -3.4899  0.7238 -0.8018
80770SOL    HW254290   7.810  10.481  12.174 -0.6138  2.7953  2.3918
80771SOL     OW54291   7.795   3.826   1.857 -0.2191  0.0791 -0.0523
80771SOL    HW154292   7.791   3.849   1.764  1.0022  0.2382 -0.0826
80771SOL    HW254293   7.871   3.767   1.864 -0.1251  0.2963  0.8864
80772SOL     OW54294   6.192   3.668  13.152  0.7141 -0.7405  0.2617
80772SOL    HW154295   6.241   3.588  13.136  1.9784 -0.1080  0.8110
80772SOL    HW254296   6.230   3.703  13.233  1.2976  1.2178 -0.7933
80773SOL     OW54297  10.203   0.225  12.034  0.4456  0.3803 -0.0675
80773SOL    HW154298  10.253   0.199  11.956  1.8212 -0.3525  1.0106
80773SOL    HW254299  10.210   0.320  12.037  0.1819  0.4379 -0.9478
80774SOL     OW54300   6.400  10.299   0.371  0.6569 -0.2475 -0.0170
80774SOL    HW154301   6.443  10.277   0.454 -0.6106  1.0334  1.0278
80774SOL    HW254302   6.331  10.234   0.362  2.1868 -1.7853 -1.2705
80775SOL     OW54303  10.293   1.948   9.354  0.0016 -0.0980  0.1679
80775SOL    HW154304  10.346   1.911   9.283 -0.6660 -1.4626  0.3375
80775SOL    HW254305  10.245   2.020   9.314 -3.2007 -3.0730 -1.8751
80776SOL     OW54306  11.002   4.804   0.317  0.0238 -0.6746 -0.4889
80776SOL    HW154307  11.002   4.713   0.289 -0.4182 -0.4208 -1.3787
80776SOL    HW254308  11.025   4.853   0.238 -1.6622  0.1074 -0.5508
80777SOL     OW54309   9.493   9.817   9.228  0.8794 -1.0119 -0.8286
80777SOL    HW154310   9.493   9.852   9.139 -0.8224  1.0153 -0.1166
80777SOL    HW254311   9.569   9.857   9.269 -1.1007  2.2663  0.0076
80778SOL     OW54312   1.862  10.038   2.718 -0.5540 -0.8554  0.2732
80778SOL    HW154313   1.770  10.061   2.717 -0.5378 -0.7246  1.2380
80778SOL    HW254314   1.871   9.979   2.793  0.0552 -1.2557 -0.1047
80779SOL     OW54315   7.714  13.893   0.312  0.1220  0.2266 -0.0880
80779SOL    HW154316   7.774  13.940   0.254  0.5392 -0.5766 -0.3266
80779SOL    HW254317   7.770  13.831   0.359 -0.1292  1.1560  1.5165
80780SOL     OW54318   6.410  13.137  11.495  0.3550  0.2581 -0.2588
80780SOL    HW154319   6.482  13.140  11.557  0.5280  1.0363 -0.4941
80780SOL    HW254320   6.435  13.068  11.433 -0.0284 -0.8443  0.7601
80781SOL     OW54321   5.481  11.983  11.999  0.5273 -0.3481 -0.1166
80781SOL    HW154322   5.503  11.890  11.993  1.4501 -0.3155  1.7387
80781SOL    HW254323   5.478  12.014  11.909 -0.3868 -2.2885 -0.7918
80782SOL     OW54324   7.270   3.085   1.043 -0.1117 -0.1891  0.3985
80782SOL    HW154325   7.311   3.003   1.072 -1.0597 -0.9225 -0.3051
80782SOL    HW254326   7.221   3.115   1.119 -1.9290 -1.6872 -0.1238
80783SOL     OW54327   2.900  10.899   1.876 -0.2846 -0.2911 -0.3466
80783SOL    HW154328   2.820  10.916   1.926 -1.4981  3.4443 -3.1048
80783SOL    HW254329   2.880  10.821   1.824 -2.0220  0.3387 -0.6756
80784SOL     OW54330   6.741  11.116   2.593  0.0787 -0.3612  0.1103
80784SOL    HW154331   6.688  11.182   2.638 -0.5625 -0.7147 -0.1087
80784SOL    HW254332   6.799  11.167   2.536 -1.6879  0.0168 -1.4836
80785SOL     OW54333  13.100   9.401  13.260 -0.0150  0.1787 -0.2077
80785SOL    HW154334  13.129   9.313  13.237  0.3659  0.4750 -0.9104
80785SOL    HW254335  13.022   9.388  13.313  0.9549 -0.6293  1.0875
80786SOL     OW54336   5.437   1.211  12.181  0.1115 -0.1123 -0.3306
80786SOL    HW154337   5.445   1.306  12.175  0.3197  0.1422  2.5256
80786SOL    HW254338   5.363   1.197  12.241  0.7827 -1.7179  0.1781
80787SOL     OW54339  13.661  13.431   3.221 -0.4180 -0.3486  0.5677
80787SOL    HW154340  13.671  13.476   3.305  1.7870 -0.3099  0.3378
80787SOL    HW254341  13.598  13.485   3.173  1.5089  2.1796  0.6042
80788SOL     OW54342   3.169  10.734   4.977  0.4034  0.3534  0.8698
80788SOL    HW154343   3.165  10.829   4.967 -0.0676  0.4966  2.2609
80788SOL    HW254344   3.261  10.712   4.965  0.5132  0.9784  0.5146
80789SOL     OW54345   8.426  10.330  12.279  0.2157 -0.0370  0.3922
80789SOL    HW154346   8.499  10.376  12.236  0.6594 -0.7480  0.3708
80789SOL    HW254347   8.443  10.340  12.372  1.5236 -1.9713  0.4207
80790SOL     OW54348   6.023  13.831  12.336 -0.3399 -0.0370 -0.4257
80790SOL    HW154349   6.069  13.882  12.403  0.1875 -0.1519 -0.6933
80790SOL    HW254350   5.955  13.784  12.384  0.1230 -0.2281  0.0551
80791SOL     OW54351   1.296  10.559  13.369 -0.4081 -0.3490 -0.3547
80791SOL    HW154352   1.248  10.619  13.425 -0.0744  0.0221 -0.4623
80791SOL    HW254353   1.230  10.497  13.338 -0.4922 -0.9383  0.9301
80792SOL     OW54354  13.820   5.509  11.279  0.2358 -0.4025 -0.1004
80792SOL    HW154355  13.788   5.574  11.216  0.1472 -0.0156  0.3376
80792SOL    HW254356  13.813   5.553  11.364  0.5898 -0.8314  0.1516
80793SOL     OW54357   9.125  13.410   8.239 -0.2671  0.4942 -0.3081
80793SOL    HW154358   9.180  13.407   8.160 -0.0489  1.8837 -0.2220
80793SOL    HW254359   9.058  13.475   8.219 -2.5644 -1.8593 -0.8030
80794SOL     OW54360  13.027   5.595   4.459 -0.2206  0.0279 -0.2748
80794SOL    HW154361  13.105   5.622   4.411  0.0711 -1.1297 -0.5046
80794SOL    HW254362  13.059   5.527   4.519 -0.9137  0.1223  0.2057
80795SOL     OW54363   5.587  10.536   8.939 -0.0704 -0.2340 -0.7024
80795SOL    HW154364   5.587  10.570   9.029 -1.6441  0.9346 -1.1032
80795SOL    HW254365   5.543  10.604   8.888 -0.0944 -1.3285 -2.1876
80796SOL     OW54366   5.266   0.889  10.006 -0.7575 -0.8007 -0.2878
80796SOL    HW154367   5.260   0.800   9.971 -0.0485 -0.6278 -0.8910
80796SOL    HW254368   5.203   0.939   9.955 -0.9973 -0.9114 -0.1007
80797SOL     OW54369  12.493  13.740   0.967 -0.2823  0.3561 -0.2131
80797SOL    HW154370  12.480  13.793   0.889 -0.6043  1.1518  0.3717
80797SOL    HW254371  12.456  13.654   0.944 -1.0107  0.7879 -0.6842
80798SOL     OW54372   0.337   7.409   8.184  0.4489 -0.0516  0.5199
80798SOL    HW154373   0.429   7.400   8.211  0.4431 -1.3278  0.1560
80798SOL    HW254374   0.287   7.367   8.254  0.0498  1.4507  1.1792
80799SOL     OW54375  13.968   6.845   0.466 -0.4905 -0.2847  0.1481
80799SOL    HW154376  13.887   6.801   0.493 -0.2904 -0.4364  0.5033
80799SOL    HW254377  13.967   6.928   0.514 -1.4970  0.6905 -1.4747
80800SOL     OW54378  12.131   3.966   1.442 -0.1295 -0.0007  0.0489
80800SOL    HW154379  12.111   4.011   1.359  2.1756  2.6700  0.7918
80800SOL    HW254380  12.065   3.999   1.503 -1.0417 -0.9698 -0.3972
80801SOL     OW54381  13.861   0.752  13.956  0.1261 -0.2727  0.2263
80801SOL    HW154382  13.927   0.718  14.017  1.6322  0.8074 -0.7071
80801SOL    HW254383  13.862   0.691  13.882  0.0237 -0.3076  0.2543
80802SOL     OW54384  11.809   8.131   4.325  0.3041 -0.3462  0.0326
80802SOL    HW154385  11.798   8.071   4.251  0.3647 -1.0474  0.5852
80802SOL    HW254386  11.821   8.074   4.401 -3.1084  0.2372  1.1943
80803SOL     OW54387   3.315  10.667   6.793 -0.2656  0.0332 -0.8142
80803SOL    HW154388   3.374  10.729   6.836  0.4526 -0.0553 -1.6322
80803SOL    HW254389   3.278  10.615   6.865  1.0327 -0.2172 -0.2957
80804SOL     OW54390  14.041   3.700   0.190 -0.1847  0.0458  0.2527
80804SOL    HW154391  14.017   3.672   0.102  1.2471 -0.8581  0.1108
80804SOL    HW254392  13.997   3.637   0.247 -0.5906  0.2375  0.1528
80805SOL     OW54393   3.731   5.103   7.427  0.2152  0.0652  0.5132
80805SOL    HW154394   3.823   5.090   7.450  0.3638 -0.8401 -0.4949
80805SOL    HW254395   3.688   5.125   7.510  1.4837  1.4561  0.8339
80806SOL     OW54396   5.808  12.971  11.860 -0.3171  0.5142  0.4466
80806SOL    HW154397   5.759  12.983  11.779  0.4008  2.5097  0.2519
80806SOL    HW254398   5.896  12.947  11.831  0.0597  1.6657  0.5845
80807SOL     OW54399   4.009   7.203   7.392 -0.4794  0.0521  0.2838
80807SOL    HW154400   3.984   7.290   7.425 -1.1793 -0.2483  0.5675
80807SOL    HW254401   3.926   7.156   7.384 -0.3650  0.1106 -1.9634
80808SOL     OW54402   5.716   6.854  10.061 -0.3701  0.1108  0.4549
80808SOL    HW154403   5.803   6.828  10.030 -0.6847  0.6724 -0.9539
80808SOL    HW254404   5.729   6.939  10.104  0.0675 -0.6795  1.9831
80809SOL     OW54405   2.486  12.320  13.668  0.1666  0.3555  0.1865
80809SOL    HW154406   2.479  12.353  13.578 -0.5519  1.5498  0.6574
80809SOL    HW254407   2.412  12.260  13.677  1.6777 -1.7917 -0.7850
80810SOL     OW54408  11.207  12.840   9.035  0.3736  0.5156 -0.2283
80810SOL    HW154409  11.178  12.751   9.013 -0.5893  1.0546 -1.2207
80810SOL    HW254410  11.297  12.844   9.002  0.6096 -0.2508  0.2916
80811SOL     OW54411   9.422   6.652   2.083 -0.1391  0.6827 -0.0675
80811SOL    HW154412   9.438   6.747   2.080  0.8952  0.6223  1.8560
80811SOL    HW254413   9.508   6.614   2.099 -0.7623 -0.4581  0.6698
80812SOL     OW54414  10.132   6.079   1.285  0.0226 -0.4734 -0.1482
80812SOL    HW154415  10.092   6.037   1.209 -0.4696  2.0317 -1.3662
80812SOL    HW254416  10.058   6.107   1.339  0.3058 -0.4508  0.2346
80813SOL     OW54417   7.681   9.318   3.827  0.3454  0.3623  0.0773
80813SOL    HW154418   7.717   9.352   3.909  0.3677 -0.8370  0.5893
80813SOL    HW254419   7.609   9.260   3.855  0.8837 -0.7070 -0.6822
80814SOL     OW54420  11.170   4.418   2.275  0.2023  0.2056 -0.4461
80814SOL    HW154421  11.193   4.454   2.189 -1.9062  0.3256 -0.9983
80814SOL    HW254422  11.131   4.333   2.255  0.6698 -0.2447  0.5035
80815SOL     OW54423   2.467   4.771   8.232  0.1727  0.2292 -0.0738
80815SOL    HW154424   2.552   4.788   8.192 -0.1263  0.6435 -0.5509
80815SOL    HW254425   2.483   4.772   8.326  1.1183 -1.9040 -0.1689
80816SOL     OW54426   8.686   2.703   8.782 -0.8200 -0.1305 -0.1248
80816SOL    HW154427   8.749   2.671   8.718 -0.8506  0.1982 -0.3228
80816SOL    HW254428   8.729   2.692   8.866  0.0621  1.3215 -0.3416
80817SOL     OW54429   6.336   1.217   4.302 -0.0620  0.1860 -0.3648
80817SOL    HW154430   6.317   1.305   4.269 -1.5644 -0.2924 -0.8971
80817SOL    HW254431   6.285   1.210   4.383 -0.2684 -0.3159 -0.5337
80818SOL     OW54432  10.422   7.510  11.112  0.2238 -0.0329 -0.1164
80818SOL    HW154433  10.516   7.509  11.126  0.0939 -1.1972  0.7395
80818SOL    HW254434  10.412   7.540  11.021  1.3949  0.3275 -0.1406
80819SOL     OW54435  13.415  13.355   5.919 -0.7470  0.5962  0.0281
80819SOL    HW154436  13.402  13.389   5.831 -1.6077 -1.9612 -0.9325
80819SOL    HW254437  13.494  13.300   5.912 -0.7534  0.4555  0.8882
80820SOL     OW54438   0.078   9.763   7.890 -0.4048 -0.1807  0.4694
80820SOL    HW154439   0.101   9.814   7.967 -1.4316 -1.0567  1.3830
80820SOL    HW254440   0.048   9.679   7.924  0.3088 -1.0579 -0.9508
80821SOL     OW54441   7.939  11.812   1.261 -0.4912 -0.2278 -0.0536
80821SOL    HW154442   7.906  11.898   1.286  0.1859  0.2351 -0.7088
80821SOL    HW254443   7.862  11.756   1.259 -1.8707  1.4308 -4.2741
80822SOL     OW54444   4.012   2.087   2.193 -0.1124  0.2944  0.5575
80822SOL    HW154445   4.005   2.114   2.101 -0.2810  0.6514  0.6715
80822SOL    HW254446   3.982   2.164   2.242 -0.6043 -0.1011  0.8883
80823SOL     OW54447  12.365   4.909   6.436 -0.0831 -0.2827 -0.5281
80823SOL    HW154448  12.393   4.905   6.345  0.9733 -0.5133 -0.2038
80823SOL    HW254449  12.295   4.844   6.442  0.3250 -0.7820 -1.0196
80824SOL     OW54450  12.108   4.508   5.225  0.1557 -0.4608 -0.3995
80824SOL    HW154451  12.065   4.451   5.161 -1.5984 -1.5348  1.5894
80824SOL    HW254452  12.042   4.520   5.294  2.0178  0.4201  1.3273
80825SOL     OW54453   8.337   7.792  10.530  0.2083 -0.4659  0.3960
80825SOL    HW154454   8.252   7.753  10.554 -0.5178 -0.2086 -1.5749
80825SOL    HW254455   8.392   7.717  10.508  0.8563 -0.7023  2.5222
80826SOL     OW54456   9.486   1.416  13.470  0.0802 -0.6180 -0.8419
80826SOL    HW154457   9.570   1.394  13.509  0.5063  0.6098 -1.0145
80826SOL    HW254458   9.502   1.414  13.375  0.9076  2.8188 -0.9297
80827SOL     OW54459   2.523   0.572  10.570 -0.1715  0.3742 -0.7100
80827SOL    HW154460   2.489   0.507  10.632 -0.6049 -0.5020 -1.8366
80827SOL    HW254461   2.559   0.520  10.498 -1.2070  1.3866 -2.0099
80828SOL     OW54462   4.563   6.361   7.481 -0.0798 -0.3631  0.1168
80828SOL    HW154463   4.571   6.443   7.433  2.3086 -0.1890  0.7168
80828SOL    HW254464   4.652   6.326   7.486 -0.8762 -2.4617  0.8170
80829SOL     OW54465   3.692  11.647   0.836 -0.1069  0.1706 -0.2519
80829SOL    HW154466   3.784  11.632   0.856 -0.0937 -0.1866 -0.5583
80829SOL    HW254467   3.689  11.737   0.804  0.3383 -0.2032 -1.3893
80830SOL     OW54468  10.960  11.112   2.917  0.0691  0.1187 -0.4350
80830SOL    HW154469  10.980  11.041   2.978  2.0861  0.1287 -1.0035
80830SOL    HW254470  11.042  11.161   2.910 -0.6691  1.2425 -1.6927
80831SOL     OW54471   3.750   2.037   6.120  0.4552  0.0151 -0.0563
80831SOL    HW154472   3.751   2.000   6.208 -0.7917  0.7181  0.2684
80831SOL    HW254473   3.840   2.027   6.090  1.1028  0.4364  1.5897
80832SOL     OW54474   3.242   5.357   8.247  0.0853 -0.4687  0.1115
80832SOL    HW154475   3.328   5.364   8.289  0.1729 -1.6289  0.1567
80832SOL    HW254476   3.236   5.265   8.220 -0.0970  0.1729 -2.1638
80833SOL     OW54477  10.248   1.328   0.730 -0.1750 -0.2142 -0.2770
80833SOL    HW154478  10.172   1.296   0.681  0.7037  1.3039 -2.8472
80833SOL    HW254479  10.235   1.422   0.735  0.6446 -0.1426  0.9288
80834SOL     OW54480  11.398   1.418   5.204 -0.5682  0.7047 -0.3999
80834SOL    HW154481  11.361   1.393   5.289  4.3015  1.7538  2.4256
80834SOL    HW254482  11.428   1.336   5.165  0.1074  0.5099  0.5179
80835SOL     OW54483  12.422  13.646   4.132  0.0755  0.2971 -0.7555
80835SOL    HW154484  12.419  13.716   4.066 -0.9257  0.4880 -0.5330
80835SOL    HW254485  12.330  13.630   4.153  0.3895  1.0311  1.4134
80836SOL     OW54486   4.148   2.884   3.157  0.4539  0.4680 -0.0093
80836SOL    HW154487   4.136   2.886   3.062 -0.5389 -0.8525  0.0509
80836SOL    HW254488   4.060   2.897   3.193  0.7057  0.2742  0.7078
80837SOL     OW54489   3.260   0.842   2.491 -0.7210  0.9480 -0.1517
80837SOL    HW154490   3.200   0.786   2.539 -0.9086  0.4641 -0.9271
80837SOL    HW254491   3.257   0.808   2.401  1.3352  0.3580 -0.0468
80838SOL     OW54492   1.427   8.041   7.409 -0.1091 -0.5300  0.4471
80838SOL    HW154493   1.348   8.064   7.458 -0.1791  0.7264 -0.2229
80838SOL    HW254494   1.434   8.108   7.341 -0.4315 -2.6271 -1.7788
80839SOL     OW54495  10.582   9.755  10.241  0.7206  0.3201 -0.4942
80839SOL    HW154496  10.586   9.762  10.336 -3.7753  2.2324 -0.1837
80839SOL    HW254497  10.596   9.845  10.210  0.5745  0.0024 -1.5228
80840SOL     OW54498   2.248  13.271   0.005  0.8167 -0.3079 -0.0573
80840SOL    HW154499   2.234  13.271   0.099 -0.7358  1.0611 -0.2490
80840SOL    HW254500   2.228  13.181  -0.022 -0.6648 -0.2194  0.6719
80841SOL     OW54501   7.707  12.842   9.588  0.3903  0.5858  0.3624
80841SOL    HW154502   7.656  12.801   9.519  2.1959 -0.0612 -0.6770
80841SOL    HW254503   7.761  12.907   9.543  0.9163  0.8378  1.3146
80842SOL     OW54504   9.321  11.785  11.495 -0.1580 -0.1449  0.0434
80842SOL    HW154505   9.262  11.756  11.425 -0.7982  2.5068 -0.6414
80842SOL    HW254506   9.268  11.778  11.575 -0.7726  0.4339 -0.3035
80843SOL     OW54507   2.432   4.645   0.315 -0.0903 -0.4939 -0.1053
80843SOL    HW154508   2.465   4.732   0.336  0.2282 -0.2821 -1.4060
80843SOL    HW254509   2.437   4.640   0.219 -1.2260 -1.4915 -0.1360
80844SOL     OW54510  12.611   6.262  13.842 -0.0647  0.9507  0.7680
80844SOL    HW154511  12.632   6.264  13.935  1.3771  0.8558  0.4649
80844SOL    HW254512  12.561   6.342  13.828  0.6039  1.5052  1.4351
80845SOL     OW54513   8.254   2.422   1.212 -0.6202  0.4327 -0.3284
80845SOL    HW154514   8.194   2.358   1.173  1.3055 -1.6482 -0.0747
80845SOL    HW254515   8.253   2.402   1.306 -0.4226  1.1795 -0.1602
80846SOL     OW54516   2.437   2.033   3.355  0.7674  0.6012 -0.0403
80846SOL    HW154517   2.449   2.006   3.264  1.8844  0.2111  0.2102
80846SOL    HW254518   2.373   2.104   3.350 -0.3373 -0.3990 -0.9701
80847SOL     OW54519   3.510   3.076   1.655 -0.0675  0.0363  0.4979
80847SOL    HW154520   3.603   3.099   1.650  0.3579 -1.7073 -0.3574
80847SOL    HW254521   3.506   3.009   1.724 -0.5621 -0.4336  0.0188
80848SOL     OW54522   2.865   2.733  11.753 -0.1786 -0.1700  0.2770
80848SOL    HW154523   2.879   2.768  11.665  1.0836 -1.5825 -0.1281
80848SOL    HW254524   2.863   2.810  11.809 -1.7556  0.8139 -1.0441
80849SOL     OW54525  14.031   0.360   9.245 -0.0506 -0.1271 -0.4794
80849SOL    HW154526  13.968   0.391   9.310 -1.8047 -2.4129 -0.9310
80849SOL    HW254527  14.103   0.325   9.297 -0.5658 -0.2411  0.1754
80850SOL     OW54528   1.840  12.049  12.541 -0.2390  0.2924 -0.0175
80850SOL    HW154529   1.914  12.003  12.582 -2.3092 -2.3790  1.0250
80850SOL    HW254530   1.867  12.060  12.450  2.5964  2.1591  0.9102
80851SOL     OW54531   9.415   9.227   5.353 -0.4949 -0.0545 -0.5298
80851SOL    HW154532   9.451   9.292   5.292 -1.9671  1.4445  0.1051
80851SOL    HW254533   9.467   9.237   5.433 -1.7412  1.5942  0.1385
80852SOL     OW54534   1.291   4.648   9.003  0.2017  0.0487  0.4409
80852SOL    HW154535   1.311   4.599   8.923 -1.0574 -1.8112  1.1743
80852SOL    HW254536   1.234   4.720   8.974 -2.1031 -1.8763 -0.1710
80853SOL     OW54537  12.581  13.181   3.778 -0.0229  0.0607  0.2168
80853SOL    HW154538  12.491  13.152   3.794  0.0467  0.7313  2.1302
80853SOL    HW254539  12.587  13.265   3.825  0.4857  1.9999 -3.0231
80854SOL     OW54540   3.976   1.808  11.471  0.8580 -0.0006  0.7783
80854SOL    HW154541   3.940   1.798  11.560 -1.8237 -1.8480 -0.3752
80854SOL    HW254542   4.004   1.900  11.467 -2.6561  1.3411  2.3559
80855SOL     OW54543   0.606   2.232   9.616 -0.3487 -0.1218 -0.3538
80855SOL    HW154544   0.601   2.275   9.702 -0.1351  0.6310 -0.7084
80855SOL    HW254545   0.515   2.221   9.589 -0.4521 -1.1178  0.3226
80856SOL     OW54546   1.169   4.086   9.870 -0.0214  0.4668  0.3380
80856SOL    HW154547   1.226   4.081   9.947  0.3604  0.4361  0.0565
80856SOL    HW254548   1.226   4.063   9.796 -0.5356 -0.1036  0.1135
80857SOL     OW54549   5.364   2.276  11.874  0.3549 -0.1200  0.2119
80857SOL    HW154550   5.428   2.230  11.929 -0.4771 -0.6273  0.7757
80857SOL    HW254551   5.408   2.358  11.850  0.5481  0.3846  2.1174
80858SOL     OW54552   4.275   0.917   3.168  0.3638  0.6027  0.7483
80858SOL    HW154553   4.370   0.903   3.167  0.4385  0.8838  2.2679
80858SOL    HW254554   4.249   0.905   3.259 -1.3120 -0.9354  0.1369
80859SOL     OW54555   6.357  13.523   9.468 -0.4212 -0.0149 -0.1314
80859SOL    HW154556   6.262  13.528   9.454 -0.4570  1.8637  0.4650
80859SOL    HW254557   6.366  13.521   9.564  0.1513  2.5531 -0.0528
80860SOL     OW54558  10.689   0.624   6.614  0.1029  0.2010 -0.3564
80860SOL    HW154559  10.785   0.634   6.614  0.1065  1.7325  3.5138
80860SOL    HW254560  10.669   0.588   6.700 -2.9693  2.4099  0.0099
80861SOL     OW54561   9.138   5.949   7.385 -0.1858 -0.0862  0.2526
80861SOL    HW154562   9.200   5.901   7.331  0.1679  0.1027  0.4811
80861SOL    HW254563   9.061   5.893   7.390 -0.8636  0.5718 -1.7632
80862SOL     OW54564  14.008   8.363   0.464 -0.2085 -0.2455 -0.5871
80862SOL    HW154565  13.932   8.360   0.522  0.6762 -0.2086  0.6118
80862SOL    HW254566  14.072   8.305   0.505  0.4652 -0.1712 -1.5001
80863SOL     OW54567   8.133   3.781   4.036 -0.4857  0.0663 -0.2177
80863SOL    HW154568   8.059   3.757   3.979  0.4941 -2.5276 -0.5142
80863SOL    HW254569   8.093   3.798   4.121 -1.5054 -0.6609 -0.5293
80864SOL     OW54570  10.407   6.366   5.270  0.2944 -0.2518 -0.1023
80864SOL    HW154571  10.427   6.363   5.364 -0.5392 -1.4282  0.0597
80864SOL    HW254572  10.467   6.303   5.230 -0.1250 -0.6044 -0.1906
80865SOL     OW54573   8.398   6.567  10.310 -0.5768 -0.3417 -0.0358
80865SOL    HW154574   8.490   6.555  10.287 -0.1278  0.6124  1.1156
80865SOL    HW254575   8.373   6.650  10.269 -0.3638  0.3333  1.1619
80866SOL     OW54576   9.002   5.833  12.332  0.5512  0.2524  0.4470
80866SOL    HW154577   9.051   5.790  12.402  1.7561 -0.3531 -0.7173
80866SOL    HW254578   9.066   5.846  12.262 -0.3152  1.9356 -0.1108
80867SOL     OW54579   0.895   9.684   1.218 -0.4799 -0.2905  0.5203
80867SOL    HW154580   0.867   9.748   1.152  1.1950  0.1713  0.2054
80867SOL    HW254581   0.899   9.601   1.171 -1.1463 -0.3329  0.5329
80868SOL     OW54582   6.580   6.152   4.820  0.1612 -0.8057 -0.1714
80868SOL    HW154583   6.568   6.196   4.905  2.6913  2.2360 -1.2054
80868SOL    HW254584   6.490   6.141   4.787 -0.7758  2.2512  0.9486
80869SOL     OW54585  10.619   6.805   1.545  0.0551  0.1286  0.0288
80869SOL    HW154586  10.569   6.886   1.539 -0.9104 -0.4911 -0.6023
80869SOL    HW254587  10.665   6.798   1.461  0.1478  0.0325  0.0863
80870SOL     OW54588  11.301   9.231  13.756 -0.5941 -0.1129  0.3021
80870SOL    HW154589  11.332   9.269  13.674  1.4484 -0.3673  0.9013
80870SOL    HW254590  11.283   9.306  13.812 -1.4515  0.0445 -0.1625
80871SOL     OW54591   7.682   1.988  12.173 -0.1348  0.7718  0.0168
80871SOL    HW154592   7.740   1.930  12.223 -1.4905  0.0772  0.8333
80871SOL    HW254593   7.715   1.984  12.084  1.0944  0.4254  0.4677
80872SOL     OW54594  11.983  12.622   6.565  0.6908 -0.2397  0.2582
80872SOL    HW154595  12.005  12.540   6.608 -1.8405 -1.1919 -0.1293
80872SOL    HW254596  11.921  12.598   6.497 -0.4574  2.0597  0.3933
80873SOL     OW54597  11.608   1.116  11.153  0.6589 -0.1649  0.4941
80873SOL    HW154598  11.649   1.061  11.086 -0.3888 -0.0462 -0.2794
80873SOL    HW254599  11.571   1.053  11.215  1.0777 -0.2918  0.6159
80874SOL     OW54600   1.359  13.705   2.040 -0.0488 -0.0212  0.1859
80874SOL    HW154601   1.376  13.717   2.133  1.2291 -1.0709  0.1167
80874SOL    HW254602   1.445  13.684   2.002 -0.8132 -1.2914 -0.9388
80875SOL     OW54603  13.549   8.326  12.856 -0.2355 -0.1779 -0.3272
80875SOL    HW154604  13.624   8.362  12.809 -0.7410 -0.1214 -1.1097
80875SOL    HW254605  13.479   8.325  12.791 -1.5705  1.8732  0.9802
80876SOL     OW54606  10.939  10.082   7.877  0.1231  0.4763 -0.5270
80876SOL    HW154607  11.024  10.041   7.892 -0.1059  0.3207  0.4336
80876SOL    HW254608  10.892  10.072   7.961 -0.3755  1.6467 -0.6414
80877SOL     OW54609  13.545  13.896   8.671 -0.5563  0.0585  0.1745
80877SOL    HW154610  13.485  13.962   8.637 -2.0484 -0.5028  1.5821
80877SOL    HW254611  13.562  13.838   8.597 -3.6564 -1.1063  0.2382
80878SOL     OW54612   7.135  12.196  10.888  0.4605 -0.7768 -0.5845
80878SOL    HW154613   7.096  12.115  10.922 -1.1143 -0.0255 -0.5660
80878SOL    HW254614   7.095  12.208  10.802  1.6085 -0.6433 -1.1179
80879SOL     OW54615  13.401   8.230   6.272  0.3454  0.2506  0.5177
80879SOL    HW154616  13.364   8.155   6.318  1.5976  0.3602  1.7639
80879SOL    HW254617  13.496   8.214   6.273  0.5365  1.2608 -0.2670
80880SOL     OW54618   1.862   1.480   1.808 -0.2225 -0.0766 -0.2843
80880SOL    HW154619   1.937   1.423   1.792  0.8158  0.6946  1.6216
80880SOL    HW254620   1.816   1.482   1.724  2.0242 -0.3600 -1.6042
80881SOL     OW54621  13.051   9.147   2.873 -0.5543  0.7064 -0.0813
80881SOL    HW154622  13.060   9.081   2.804  2.1454  0.2255  0.5877
80881SOL    HW254623  13.016   9.224   2.829  0.6658  0.2817 -1.9249
80882SOL     OW54624  10.757  10.980   6.621 -0.0731  0.3438  0.6267
80882SOL    HW154625  10.772  10.976   6.716  0.7130  2.6888  0.6610
80882SOL    HW254626  10.844  10.981   6.583 -0.3755  0.1836 -0.0864
80883SOL     OW54627   3.280   0.999   8.098 -0.9972 -0.6547  0.1892
80883SOL    HW154628   3.350   1.060   8.077  0.4338 -1.9905  0.8874
80883SOL    HW254629   3.218   1.009   8.026 -0.3095  0.8448 -0.2475
80884SOL     OW54630   7.031  11.278   7.876 -0.2384 -0.3138 -0.2899
80884SOL    HW154631   7.099  11.211   7.872  0.2661  0.2574 -1.7298
80884SOL    HW254632   6.966  11.251   7.811 -0.1194  0.4981 -0.7509
80885SOL     OW54633   4.667   1.665   1.465  0.0772  0.0648  0.7547
80885SOL    HW154634   4.587   1.613   1.462  1.8621 -2.9102  0.3503
80885SOL    HW254635   4.674   1.703   1.377  0.7185 -2.4608 -0.3723
80886SOL     OW54636   4.488   0.184   5.287  0.2754 -0.0752 -0.0499
80886SOL    HW154637   4.430   0.260   5.296  1.1525  0.5521  0.3699
80886SOL    HW254638   4.556   0.212   5.226  1.9758  0.3535  1.9313
80887SOL     OW54639   9.277   6.091   8.422  0.1640  0.3284 -0.1310
80887SOL    HW154640   9.295   6.094   8.516  0.0368 -2.1405  0.0179
80887SOL    HW254641   9.188   6.126   8.413  0.6670  1.8727  0.4469
80888SOL     OW54642   6.530  13.441   0.853  0.5082 -0.6545  0.6949
80888SOL    HW154643   6.468  13.505   0.817  0.1890 -0.7510  1.0711
80888SOL    HW254644   6.581  13.491   0.917 -0.0642 -0.8817  1.3429
80889SOL     OW54645  10.269   4.858  12.765 -0.5737 -0.5707  0.8608
80889SOL    HW154646  10.256   4.946  12.731 -2.6773 -1.2060 -0.1185
80889SOL    HW254647  10.214   4.853  12.843  0.6057 -0.6100  1.7145
80890SOL     OW54648   8.649   1.276   3.999 -0.2403 -0.1052 -0.6225
80890SOL    HW154649   8.676   1.367   3.991 -0.4410  0.0948  0.7147
80890SOL    HW254650   8.730   1.226   3.985 -0.1718  0.2591 -1.5789
80891SOL     OW54651   2.434   3.398  11.401  0.5880  0.2470  0.3005
80891SOL    HW154652   2.510   3.454  11.390  0.1808  0.7927  0.2168
80891SOL    HW254653   2.426   3.386  11.496 -0.0137  1.3234  0.4086
80892SOL     OW54654   1.686   1.030   5.285 -0.2322 -0.0643 -0.0100
80892SOL    HW154655   1.684   0.966   5.357  1.8192  1.4891  1.5524
80892SOL    HW254656   1.780   1.043   5.268 -0.6049 -0.9159 -3.5840
80893SOL     OW54657  13.111   0.738   6.506 -0.0607  0.2867 -0.1589
80893SOL    HW154658  13.048   0.789   6.557  0.4399 -0.5975  1.4185
80893SOL    HW254659  13.166   0.804   6.462 -0.9215  1.0632 -0.1003
80894SOL     OW54660  13.539   1.161   1.275 -0.1823  0.1010  0.5537
80894SOL    HW154661  13.605   1.177   1.343 -0.5148  1.8289  0.5358
80894SOL    HW254662  13.462   1.130   1.323  0.6043 -1.9386  0.5719
80895SOL     OW54663   8.814  10.310   7.472  0.5890  0.2504  0.3917
80895SOL    HW154664   8.733  10.272   7.440  1.9779 -2.4561 -0.1798
80895SOL    HW254665   8.858  10.342   7.393  0.8951 -0.0044  0.4551
80896SOL     OW54666  11.314   9.381  11.115 -0.0345  0.1002 -0.0451
80896SOL    HW154667  11.242   9.327  11.146 -1.3666  0.9975 -1.4126
80896SOL    HW254668  11.344   9.429  11.192 -0.0224 -1.2194  0.7997
80897SOL     OW54669  10.939   8.560  10.520  0.4238  0.0474 -0.0572
80897SOL    HW154670  10.863   8.507  10.494  1.5526 -1.4423 -0.4106
80897SOL    HW254671  10.948   8.543  10.614  1.1419 -0.8850 -0.2846
80898SOL     OW54672   4.468   7.785   3.205 -0.0680  0.3257 -0.2450
80898SOL    HW154673   4.409   7.793   3.130 -1.2272  0.6397  0.6703
80898SOL    HW254674   4.452   7.696   3.238 -0.5108  0.6244  0.3751
80899SOL     OW54675   7.352   9.383  10.414 -0.0790 -0.1714  0.1279
80899SOL    HW154676   7.285   9.447  10.391 -0.0997 -0.5228 -0.8412
80899SOL    HW254677   7.329   9.354  10.502 -2.7878 -2.2198 -1.1081
80900SOL     OW54678   7.026  12.217   4.910  0.0648  0.6767 -0.1146
80900SOL    HW154679   7.119  12.198   4.910  0.0125  0.3581 -0.8954
80900SOL    HW254680   6.994  12.177   4.829 -0.8822  0.1324  0.5035
80901SOL     OW54681  10.352   6.730   6.646  0.3447 -0.6582  0.0600
80901SOL    HW154682  10.317   6.810   6.686  1.5335  0.3078 -0.7727
80901SOL    HW254683  10.440   6.754   6.618  0.0227 -1.6990 -1.9663
80902SOL     OW54684   7.578  11.984   1.802 -0.0524  0.3829 -0.1356
80902SOL    HW154685   7.665  12.005   1.837 -0.8463  1.2692  1.4340
80902SOL    HW254686   7.517  12.030   1.860 -1.5982 -0.6138 -0.8957
80903SOL     OW54687  11.814   7.582  12.988 -0.0121 -0.4726 -0.0480
80903SOL    HW154688  11.773   7.512  13.039 -3.4198 -1.0630 -3.2198
80903SOL    HW254689  11.891   7.541  12.949 -0.0835 -1.4180  0.7710
80904SOL     OW54690   2.819  10.957   6.431  0.5488 -0.1486 -0.0532
80904SOL    HW154691   2.821  10.893   6.360 -0.4871 -2.1297  1.6030
80904SOL    HW254692   2.741  11.010   6.413  1.5900  0.9594 -1.6105
80905SOL     OW54693   6.797   2.137  12.224  0.2939  0.1230  0.0446
80905SOL    HW154694   6.876   2.142  12.277  0.2247 -2.8363  0.5787
80905SOL    HW254695   6.762   2.226  12.225  1.8526  0.8071  2.5156
80906SOL     OW54696  11.128   8.061   1.288 -0.4105 -0.4687 -0.3326
80906SOL    HW154697  11.036   8.048   1.310 -0.8515 -1.8001 -2.6605
80906SOL    HW254698  11.172   7.982   1.321  0.1540  0.5966  1.6592
80907SOL     OW54699   2.007   5.160  10.961  0.4251 -0.0116 -0.2433
80907SOL    HW154700   1.979   5.161  10.869  0.9669 -2.0843 -0.4791
80907SOL    HW254701   2.099   5.133  10.957  0.5221  0.1016  0.9102
80908SOL     OW54702   3.135  11.566   7.054  0.6275  0.0647  0.4679
80908SOL    HW154703   3.181  11.643   7.089  1.8522 -0.8420  0.9349
80908SOL    HW254704   3.181  11.545   6.973  0.0877  0.0166  0.1729
80909SOL     OW54705   3.719   2.306  11.403 -0.1654  0.4635  0.3148
80909SOL    HW154706   3.732   2.224  11.451  1.9897  0.7410  0.3214
80909SOL    HW254707   3.625   2.311  11.388 -0.4044 -1.7484  0.7752
80910SOL     OW54708   9.886  11.579   5.928  0.2936 -0.2940  0.2784
80910SOL    HW154709   9.940  11.500   5.926 -1.0752 -1.2606  0.3287
80910SOL    HW254710   9.946  11.650   5.903  1.1402 -1.5773 -1.5306
80911SOL     OW54711   6.452   4.736   0.579 -0.0450  0.8097 -0.4156
80911SOL    HW154712   6.478   4.722   0.670 -1.8597 -0.0991  0.0208
80911SOL    HW254713   6.368   4.782   0.585 -1.6817 -1.7901 -1.4653
80912SOL     OW54714  11.885   7.824   3.505 -0.0679  0.2620  0.5879
80912SOL    HW154715  11.908   7.739   3.543  0.2968 -1.4980 -3.1254
80912SOL    HW254716  11.967   7.874   3.509  0.9115 -1.1296 -0.7517
80913SOL     OW54717   5.467   2.348   9.770 -0.1178  0.8862  0.1214
80913SOL    HW154718   5.444   2.255   9.773  1.0051  0.6017  2.8920
80913SOL    HW254719   5.387   2.393   9.797 -0.8046  0.8399 -1.6570
80914SOL     OW54720   0.104  10.691  13.663 -0.2256 -0.2669 -0.0072
80914SOL    HW154721   0.051  10.624  13.708 -0.2827  0.5229  1.1595
80914SOL    HW254722   0.176  10.709  13.723 -0.6308  1.2605  0.0674
80915SOL     OW54723   9.114   0.993   9.365 -0.7605  0.3203 -0.3553
80915SOL    HW154724   9.082   1.019   9.451 -2.2154 -0.0995 -0.7363
80915SOL    HW254725   9.036   0.961   9.319 -0.1337  1.0179 -2.0093
80916SOL     OW54726  13.625   8.272   5.252  0.3715  0.3470 -0.2056
80916SOL    HW154727  13.717   8.283   5.229  0.0043  2.2272 -0.9160
80916SOL    HW254728  13.610   8.335   5.323 -0.8351  1.5826 -1.5013
80917SOL     OW54729   4.525  11.044   5.323  0.0017 -0.0955  1.3009
80917SOL    HW154730   4.533  11.094   5.241  1.6169 -1.4523  0.5856
80917SOL    HW254731   4.498  11.110   5.388 -2.1887  0.8605 -0.4412
80918SOL     OW54732   2.656   0.224  10.177  0.2391 -0.0342 -0.0502
80918SOL    HW154733   2.564   0.224  10.151  0.7520 -1.3166 -2.1060
80918SOL    HW254734   2.704   0.245  10.097  1.7494  0.5400  0.9676
80919SOL     OW54735   8.270   3.065   1.348  0.5713  0.5173  0.1782
80919SOL    HW154736   8.354   3.109   1.360  0.0334  1.6571 -0.0671
80919SOL    HW254737   8.258   3.014   1.428  0.4991  2.0892  1.2151
80920SOL     OW54738   6.400   5.107   6.541 -0.5620 -0.3339  0.4707
80920SOL    HW154739   6.391   5.198   6.512 -1.5559 -0.8615 -1.0226
80920SOL    HW254740   6.473   5.108   6.603 -0.6102  1.4868  0.5369
80921SOL     OW54741   6.403  13.632   2.742  0.4573  0.4010  0.0280
80921SOL    HW154742   6.479  13.575   2.754  0.2410  0.5515  2.7545
80921SOL    HW254743   6.343  13.608   2.812 -0.8303  2.1678 -0.3844
80922SOL     OW54744   3.623   2.152   9.815  0.3719  0.0121  0.1716
80922SOL    HW154745   3.630   2.222   9.880  0.7796 -0.3450  0.5148
80922SOL    HW254746   3.563   2.089   9.855  0.5488 -0.1632  0.1620
80923SOL     OW54747   6.852   4.197   8.905  0.5466  0.0788 -0.1638
80923SOL    HW154748   6.781   4.189   8.842  0.3267 -0.8652  0.1879
80923SOL    HW254749   6.931   4.174   8.856  0.4631  0.0127 -0.2664
80924SOL     OW54750   3.972  11.615  10.351  0.6792 -0.2026 -0.5721
80924SOL    HW154751   4.016  11.590  10.433 -1.1235 -2.4836 -0.1934
80924SOL    HW254752   3.978  11.537  10.296  1.2232  1.0575 -2.3891
80925SOL     OW54753   8.685   5.109   9.498 -0.6549  0.6233 -0.1623
80925SOL    HW154754   8.711   5.045   9.564 -2.7412 -0.5763 -0.4336
80925SOL    HW254755   8.766   5.157   9.478  1.1749 -2.3423 -0.4276
80926SOL     OW54756  10.811   0.055  10.900 -0.1668 -1.0105  0.1703
80926SOL    HW154757  10.751   0.099  10.961  1.5078  1.9032 -0.1398
80926SOL    HW254758  10.845  -0.019  10.950  0.0228  0.4172  2.2841
80927SOL     OW54759   9.673   7.479  10.071  0.0716 -0.2538  0.0232
80927SOL    HW154760   9.632   7.393  10.067 -1.5969  0.4627  0.7456
80927SOL    HW254761   9.650   7.513  10.158  2.4946  0.0908  0.6136
80928SOL     OW54762   1.039   9.321  13.271 -0.5467 -0.0538 -0.1952
80928SOL    HW154763   0.956   9.303  13.314 -1.5062  1.7831 -1.1797
80928SOL    HW254764   1.016   9.373  13.194  1.3392 -1.1599 -1.6068
80929SOL     OW54765  13.545  14.025   0.052 -0.0554  0.5567 -0.4535
80929SOL    HW154766  13.473  14.034  -0.010  0.2878  0.3038 -0.8968
80929SOL    HW254767  13.556  13.930   0.062  1.4680  0.5365 -1.8961
80930SOL     OW54768   9.097   2.278   5.407  0.1648  0.4808 -0.1754
80930SOL    HW154769   9.043   2.329   5.467  1.7947  0.5363  1.3227
80930SOL    HW254770   9.068   2.187   5.419  1.0125  0.3803  1.3706
80931SOL     OW54771  11.374   4.356  11.547  0.1185  0.1554 -0.1337
80931SOL    HW154772  11.329   4.287  11.597  2.7121 -1.0345  0.7529
80931SOL    HW254773  11.312   4.380  11.479 -1.2004 -2.6140 -0.0706
80932SOL     OW54774  10.655   3.189   6.678  0.1993 -0.0549  0.5666
80932SOL    HW154775  10.662   3.095   6.662 -0.3036 -0.0035  0.0231
80932SOL    HW254776  10.745   3.219   6.686  0.4225 -0.3382 -0.6963
80933SOL     OW54777   6.996   8.338   4.926 -0.2461 -0.2870  0.0318
80933SOL    HW154778   6.987   8.246   4.904 -0.0073  0.0005 -1.3361
80933SOL    HW254779   7.086   8.360   4.902 -0.1966  0.2312  0.6530
80934SOL     OW54780   2.465   6.902   2.437  0.0429  0.3938  0.1413
80934SOL    HW154781   2.440   6.901   2.345  0.0026  0.6418  0.1505
80934SOL    HW254782   2.407   6.838   2.478  1.0849 -0.8756 -0.2718
80935SOL     OW54783  10.871   2.071   0.275 -0.2560  0.2601 -0.2154
80935SOL    HW154784  10.821   2.105   0.350  1.1098  1.1723  0.3256
80935SOL    HW254785  10.895   2.149   0.225  0.0181 -0.2287 -0.8530
80936SOL     OW54786   5.046   2.119  11.895  0.1926  0.0524 -0.5526
80936SOL    HW154787   5.040   2.143  11.803 -2.9245 -0.1541 -0.5051
80936SOL    HW254788   5.085   2.195  11.938  1.0074  0.4267 -1.9042
80937SOL     OW54789   5.145   6.112   2.731  0.0604 -0.2230  0.3844
80937SOL    HW154790   5.115   6.198   2.700 -0.5508 -0.3760  0.5351
80937SOL    HW254791   5.071   6.054   2.714  0.7233 -0.8759 -0.3545
80938SOL     OW54792   4.752   6.527   1.678  0.0455  0.2008  0.3211
80938SOL    HW154793   4.826   6.512   1.619 -0.5614 -1.9894  0.0618
80938SOL    HW254794   4.786   6.503   1.765 -0.0483  0.2237  0.3638
80939SOL     OW54795  11.707   8.346   2.682  0.0207 -0.0595 -0.0028
80939SOL    HW154796  11.711   8.251   2.679 -1.0989 -0.3684  3.6882
80939SOL    HW254797  11.795   8.373   2.709 -0.4534 -0.3963  2.0700
80940SOL     OW54798  10.835   5.145  12.480 -0.3726 -0.0057 -0.2286
80940SOL    HW154799  10.740   5.156  12.490 -0.4549  0.1010 -1.0894
80940SOL    HW254800  10.852   5.056  12.511 -0.5514  0.4200  1.1681
80941SOL     OW54801  12.032   2.930   4.459  0.3443 -0.1541 -0.2064
80941SOL    HW154802  11.979   2.946   4.538 -0.1543  0.8660 -0.7380
80941SOL    HW254803  12.105   2.877   4.491  0.8397  1.2996  1.1980
80942SOL     OW54804   0.592   2.209   4.911  0.6971  0.2244 -0.6129
80942SOL    HW154805   0.658   2.150   4.875  0.0989 -0.3850 -0.7275
80942SOL    HW254806   0.543   2.241   4.835 -1.6973 -2.4084 -0.3224
80943SOL     OW54807   7.823  11.244  11.820  0.0567 -0.4763  0.3177
80943SOL    HW154808   7.737  11.228  11.780 -0.0997 -1.7702  1.1020
80943SOL    HW254809   7.803  11.286  11.904  0.1839 -0.6565  0.4402
80944SOL     OW54810   8.477   0.854   9.108  0.3166 -0.2004  0.5095
80944SOL    HW154811   8.426   0.775   9.090  1.4789 -0.8074 -0.2161
80944SOL    HW254812   8.419   0.908   9.163 -1.9922  0.1466 -2.0701
80945SOL     OW54813   0.523   7.229   6.236  0.0012 -0.5369 -0.2303
80945SOL    HW154814   0.479   7.290   6.176  0.1499 -0.5164 -0.3186
80945SOL    HW254815   0.500   7.142   6.203  0.7561 -0.5296 -0.8208
80946SOL     OW54816   8.358  11.726   9.582  0.0895 -0.0599 -0.3293
80946SOL    HW154817   8.393  11.652   9.532  0.2096  1.2412 -2.2604
80946SOL    HW254818   8.433  11.758   9.632 -0.3343 -2.1904  1.8743
80947SOL     OW54819  12.169  11.729   0.421  0.0014  0.3080  0.0995
80947SOL    HW154820  12.092  11.764   0.377  0.1065  0.1580 -0.2135
80947SOL    HW254821  12.242  11.778   0.383  0.1586 -0.3073 -0.4136
80948SOL     OW54822   2.026   8.465   5.547 -0.5320  0.3489  0.0087
80948SOL    HW154823   2.039   8.467   5.642 -2.2036 -0.0876  0.2900
80948SOL    HW254824   2.062   8.548   5.516  2.1850 -0.4723  0.6624
80949SOL     OW54825   8.841   2.959   5.085 -0.1519 -0.2344 -0.0297
80949SOL    HW154826   8.899   2.885   5.063 -0.7275 -0.5413 -0.5618
80949SOL    HW254827   8.842   3.013   5.006 -0.7035 -0.3225 -0.0980
80950SOL     OW54828  12.490  10.888   9.247  0.1008 -0.1160  0.2570
80950SOL    HW154829  12.400  10.869   9.275 -0.1619  0.8001  0.0734
80950SOL    HW254830  12.544  10.861   9.321 -0.3328 -0.5844  0.4084
80951SOL     OW54831   2.618   6.263  12.373  0.6338 -0.6442  0.2086
80951SOL    HW154832   2.567   6.189  12.405 -3.6176  1.9001  0.1119
80951SOL    HW254833   2.636   6.316  12.450  0.0160  0.1615 -0.1813
80952SOL     OW54834   5.359   7.252   0.927  0.1164  1.0710  0.0685
80952SOL    HW154835   5.409   7.193   0.871 -0.7141  2.5079 -2.2885
80952SOL    HW254836   5.374   7.218   1.016 -1.1295 -3.2976 -1.1393
80953SOL     OW54837   5.633   3.908  11.274  0.2051  0.1981 -0.1876
80953SOL    HW154838   5.702   3.926  11.210 -0.4268  1.5402 -0.5093
80953SOL    HW254839   5.616   3.814  11.264  0.9630  0.1378 -1.1248
80954SOL     OW54840   2.536   6.297   2.782  0.0202 -0.8530  0.1305
80954SOL    HW154841   2.515   6.207   2.807 -0.2706 -1.5372 -2.3037
80954SOL    HW254842   2.456   6.347   2.800  0.8170 -0.5105  3.4693
80955SOL     OW54843   2.298   0.179   5.206 -0.4247 -0.3920 -0.7495
80955SOL    HW154844   2.236   0.114   5.239 -2.6898  1.9047 -0.1206
80955SOL    HW254845   2.370   0.178   5.269 -1.3504 -0.9684  0.3426
80956SOL     OW54846   4.902  10.163  13.639 -0.2208 -0.0753 -0.6704
80956SOL    HW154847   4.933  10.129  13.723  0.3482 -1.1535 -1.2901
80956SOL    HW254848   4.958  10.120  13.574 -0.7740  0.5994 -1.6153
80957SOL     OW54849  13.528   6.193   7.202  0.0267  0.2059 -0.0892
80957SOL    HW154850  13.603   6.232   7.155 -0.0175  0.3508 -0.0413
80957SOL    HW254851  13.561   6.180   7.291 -0.3504  1.3267  0.2373
80958SOL     OW54852   0.143   0.206   6.935 -0.2310 -0.5202  0.2285
80958SOL    HW154853   0.112   0.208   6.844  1.5985 -0.6585 -0.4354
80958SOL    HW254854   0.153   0.299   6.959  2.7918 -0.4076 -1.0427
80959SOL     OW54855   0.672  10.216   3.947  0.1298 -0.4623  0.6219
80959SOL    HW154856   0.742  10.198   4.008 -0.2337 -2.6862  0.4512
80959SOL    HW254857   0.603  10.153   3.969 -0.9002  0.1540 -0.6483
80960SOL     OW54858  13.732  10.329  12.617 -0.3127  0.4119 -0.0285
80960SOL    HW154859  13.648  10.331  12.571 -0.2364  1.5326 -0.1416
80960SOL    HW254860  13.760  10.237  12.612 -0.6807  0.3503 -1.5502
80961SOL     OW54861   0.272   9.511   7.538  0.2926  0.3713  0.1712
80961SOL    HW154862   0.311   9.489   7.454  0.3281  1.9083 -0.2526
80961SOL    HW254863   0.180   9.528   7.518 -0.1682 -1.2130  0.8102
80962SOL     OW54864   1.963   9.416   0.272 -0.0308 -0.3310  0.5498
80962SOL    HW154865   2.051   9.402   0.236 -0.5271  0.0248 -0.8792
80962SOL    HW254866   1.945   9.336   0.322  0.8344 -0.7162  0.2695
80963SOL     OW54867   9.980   5.589  12.351 -0.1428  0.6702  0.3812
80963SOL    HW154868  10.047   5.581  12.419 -0.0311 -1.3813  0.0921
80963SOL    HW254869   9.923   5.514  12.364 -1.2383  1.2827 -0.6410
80964SOL     OW54870  10.654   3.974  12.670  0.7290 -0.2526 -0.1022
80964SOL    HW154871  10.654   3.940  12.581  0.1425  1.0386 -0.6301
80964SOL    HW254872  10.603   3.911  12.720 -1.2193  0.3005 -1.2626
80965SOL     OW54873   0.803   2.948   0.723 -0.2543 -0.0011 -0.1065
80965SOL    HW154874   0.886   2.906   0.701  0.5298  1.0971  0.6360
80965SOL    HW254875   0.754   2.881   0.771  1.6735  0.4080  2.5995
80966SOL     OW54876  13.941  10.074   9.376 -0.0991  0.3797 -0.2610
80966SOL    HW154877  13.877  10.022   9.424 -1.0949  2.5922  0.9494
80966SOL    HW254878  14.020  10.071   9.431 -0.4356  0.8378  0.2603
80967SOL     OW54879  13.751   4.786  11.208 -0.2921 -0.2976 -0.0694
80967SOL    HW154880  13.682   4.791  11.275  1.4145  2.6583  1.7131
80967SOL    HW254881  13.821   4.736  11.249 -0.6530 -1.7695 -1.1896
80968SOL     OW54882   6.849   1.717   9.577 -0.1213  0.5306 -0.0523
80968SOL    HW154883   6.833   1.804   9.542 -2.1317 -0.3559 -1.5494
80968SOL    HW254884   6.768   1.693   9.622 -0.0397 -0.9464 -0.6139
80969SOL     OW54885   4.064   1.865   0.001 -0.0128  0.6833  0.0716
80969SOL    HW154886   4.080   1.821  -0.082  0.4668 -0.5883  0.8093
80969SOL    HW254887   4.135   1.928   0.010  1.0863 -0.5549  0.4058
80970SOL     OW54888   7.929  11.200   8.333 -0.0318 -0.6743  0.6694
80970SOL    HW154889   7.968  11.251   8.262  0.3336 -0.7266  0.8352
80970SOL    HW254890   7.863  11.259   8.371 -0.6631 -0.8579 -0.0977
80971SOL     OW54891   1.015   0.697  10.931  0.2407  0.0614 -0.4064
80971SOL    HW154892   1.104   0.729  10.947  0.5873 -0.7384 -0.6906
80971SOL    HW254893   1.017   0.605  10.958 -1.0351  0.5146  1.4002
80972SOL     OW54894   9.902  12.500   3.631 -0.1847  0.2980  0.2391
80972SOL    HW154895   9.950  12.572   3.673  0.1427 -0.0318  0.4322
80972SOL    HW254896   9.968  12.433   3.616 -0.5785 -0.1469  0.4687
80973SOL     OW54897   5.160   2.902   1.188  0.1346 -0.3431 -0.0315
80973SOL    HW154898   5.071   2.867   1.177  0.3326 -0.8083 -0.1731
80973SOL    HW254899   5.147   2.995   1.207 -0.4041 -0.5034  0.4173
80974SOL     OW54900   8.070   1.430   0.894  0.4944 -0.2939  0.0585
80974SOL    HW154901   8.085   1.518   0.929  0.9815 -0.8610  1.3524
80974SOL    HW254902   8.095   1.435   0.802 -0.7860  1.2572 -0.2569
80975SOL     OW54903  10.810   7.948   6.634  0.6275 -0.0165  0.2702
80975SOL    HW154904  10.890   7.897   6.647  1.2242  1.1249  1.2438
80975SOL    HW254905  10.743   7.901   6.684  0.4788 -1.3686 -1.1145
80976SOL     OW54906  13.276   2.098  12.060  0.1475  0.2981 -0.2320
80976SOL    HW154907  13.279   2.112  12.155 -0.2985  0.8329 -0.2910
80976SOL    HW254908  13.233   2.176  12.026  1.4970  0.7234 -1.0215
80977SOL     OW54909   5.743   8.291   3.067 -0.4691  0.0540  0.0273
80977SOL    HW154910   5.721   8.292   2.974  1.1620  3.8052 -0.4862
80977SOL    HW254911   5.828   8.248   3.072 -0.6052 -0.2413 -0.2216
80978SOL     OW54912  12.745   8.653   6.095  0.0114  0.2540  0.3747
80978SOL    HW154913  12.654   8.671   6.073 -0.5119 -0.6660  1.6794
80978SOL    HW254914  12.754   8.679   6.186  0.7160 -0.8123  0.6355
80979SOL     OW54915  13.886   8.363   5.191 -0.5673  0.2436 -0.4264
80979SOL    HW154916  13.973   8.402   5.189 -1.1712  1.6535 -0.7448
80979SOL    HW254917  13.872   8.340   5.282 -0.5422  1.6706 -0.0410
80980SOL     OW54918   0.027   1.498  10.376 -0.1264  0.2212 -0.3366
80980SOL    HW154919   0.000   1.424  10.321  1.0808  0.6224 -1.5234
80980SOL    HW254920  -0.001   1.576  10.327  2.0503  0.6182 -1.0537
80981SOL     OW54921   4.489   2.423   5.818  0.2249 -0.0906 -0.6797
80981SOL    HW154922   4.414   2.483   5.814  0.4480  0.1771 -0.9989
80981SOL    HW254923   4.454   2.339   5.790  0.1033  0.0995 -1.1131
80982SOL     OW54924   0.257  10.530  11.215  0.1556  0.0053  0.1566
80982SOL    HW154925   0.295  10.530  11.303  0.6336  0.3825 -0.0486
80982SOL    HW254926   0.329  10.506  11.157 -0.4982 -1.6952  0.0006
80983SOL     OW54927   5.736   9.812   1.902  0.0968 -0.0622 -0.4500
80983SOL    HW154928   5.650   9.770   1.898 -0.3157  0.6067  0.9383
80983SOL    HW254929   5.765   9.813   1.811 -1.0470 -0.9293 -0.8622
80984SOL     OW54930  11.222  12.040   1.961 -0.2082 -0.3236 -0.4586
80984SOL    HW154931  11.153  11.987   1.923 -0.5039  0.9644 -1.7908
80984SOL    HW254932  11.298  11.982   1.964 -0.6338 -0.9546 -1.4828
80985SOL     OW54933   0.052   4.696   1.001  0.0244  0.5227 -0.0101
80985SOL    HW154934  -0.026   4.750   0.998  0.4585  1.1185 -1.2164
80985SOL    HW254935   0.021   4.610   1.029 -0.7825  1.1787  1.1722
80986SOL     OW54936   1.643   7.562   9.022 -0.0504 -0.3063 -0.0488
80986SOL    HW154937   1.561   7.560   8.972 -0.2204 -1.1741  0.2346
80986SOL    HW254938   1.622   7.513   9.102  0.2821  0.8613  0.7697
80987SOL     OW54939  12.172   5.304  10.279  0.1057 -0.4083  0.2495
80987SOL    HW154940  12.115   5.236  10.244 -0.3837 -0.5516  1.3135
80987SOL    HW254941  12.134   5.328  10.363  2.4941 -1.7077  1.8362
80988SOL     OW54942   3.746   6.117   2.905  0.0486 -0.3043 -0.3736
80988SOL    HW154943   3.682   6.091   2.971  0.2284  1.5189  0.5676
80988SOL    HW254944   3.781   6.034   2.873 -1.4930 -1.2911  0.3569
80989SOL     OW54945  12.950  11.963   6.079 -0.2829 -0.3222  0.5811
80989SOL    HW154946  12.976  11.871   6.081  2.9820  0.4544 -0.9176
80989SOL    HW254947  12.988  12.000   6.159  0.3782  0.1510  0.0584
80990SOL     OW54948   2.344   4.561   8.110  0.8691 -0.0972  0.0669
80990SOL    HW154949   2.389   4.635   8.152  0.2104  0.3862 -0.0511
80990SOL    HW254950   2.330   4.498   8.180  0.4586  0.3726  0.4206
80991SOL     OW54951   2.959  12.574   3.871 -0.0987  0.1351  0.2299
80991SOL    HW154952   2.988  12.620   3.950  1.8405 -0.7968  0.1413
80991SOL    HW254953   2.869  12.548   3.889  0.4204 -0.3841  2.3065
80992SOL     OW54954  10.031   9.636   2.027  0.0652 -0.3320  0.3100
80992SOL    HW154955  10.110   9.642   1.973  0.6434 -2.1445  0.8807
80992SOL    HW254956   9.960   9.623   1.965  0.2567  0.8573 -0.1819
80993SOL     OW54957   0.466  11.942  13.265  0.1660  0.0082 -0.0368
80993SOL    HW154958   0.436  11.860  13.225  0.6360  0.0301 -0.4482
80993SOL    HW254959   0.463  11.925  13.359  0.9993 -0.7684 -0.1299
80994SOL     OW54960   9.718   3.247   8.810  0.2096 -0.8726  0.5596
80994SOL    HW154961   9.768   3.308   8.865  1.4365 -0.0962 -1.3155
80994SOL    HW254962   9.774   3.170   8.802  1.4097  0.1302 -1.8190
80995SOL     OW54963   7.932   4.271   6.395 -0.4487 -0.5211  0.1090
80995SOL    HW154964   7.961   4.248   6.483 -1.7906  1.9842  1.3107
80995SOL    HW254965   8.007   4.317   6.357  0.0653 -1.4338  0.0002
80996SOL     OW54966  11.696  12.820   5.101  0.2201 -0.2681  0.1424
80996SOL    HW154967  11.627  12.832   5.166  1.6388  1.8614  1.3882
80996SOL    HW254968  11.735  12.735   5.122 -0.2348 -0.2321  1.1865
80997SOL     OW54969   3.035  11.860   7.359  0.4506  0.4818 -0.4301
80997SOL    HW154970   3.077  11.945   7.345 -0.5423  0.8734 -1.0977
80997SOL    HW254971   2.989  11.841   7.277  0.6085 -0.6791 -0.2753
80998SOL     OW54972  10.801   4.828  14.038  0.1373  0.1999  0.5041
80998SOL    HW154973  10.763   4.897  14.092 -0.5807 -0.0766  0.3631
80998SOL    HW254974  10.758   4.747  14.068  1.0474 -0.2085  0.7489
80999SOL     OW54975   0.212   5.526   6.847 -0.3197 -0.0195 -0.4910
80999SOL    HW154976   0.159   5.462   6.799 -0.8990 -0.7306  1.0225
80999SOL    HW254977   0.250   5.476   6.919 -0.3673  1.2289  0.4326
81000SOL     OW54978  12.187   3.156   2.761 -0.3552  0.4069 -0.0262
81000SOL    HW154979  12.221   3.105   2.689  0.3489  1.3378 -0.3760
81000SOL    HW254980  12.188   3.247   2.729 -1.8338  0.6252  0.4633
81001SOL     OW54981  11.680   4.247  13.756  0.4902 -0.1871  1.0026
81001SOL    HW154982  11.673   4.161  13.715 -0.3048 -0.5696  1.8847
81001SOL    HW254983  11.685   4.309  13.683  1.7008 -1.0095  0.3577
81002SOL     OW54984   3.738  13.403   3.609 -0.1399 -0.6752  0.1262
81002SOL    HW154985   3.729  13.478   3.668  0.6515  0.9602 -1.7156
81002SOL    HW254986   3.807  13.350   3.649  0.3787  0.3868  0.6868
81003SOL     OW54987   5.272   0.942   9.248  0.2263  0.2539 -0.5201
81003SOL    HW154988   5.292   1.025   9.206  2.7122 -0.0758 -0.1546
81003SOL    HW254989   5.325   0.878   9.200  1.9923 -0.3665  2.0534
81004SOL     OW54990  11.623   2.261   7.207 -0.1408  0.4682 -0.2061
81004SOL    HW154991  11.624   2.220   7.294 -2.4038  1.8250  0.5689
81004SOL    HW254992  11.557   2.212   7.158  0.0951  0.6086 -0.6744
81005SOL     OW54993  13.617  10.884   3.314 -0.2216  0.1949  0.5662
81005SOL    HW154994  13.537  10.856   3.359 -0.5715  0.0807 -0.1150
81005SOL    HW254995  13.658  10.802   3.284 -0.1361  0.2832  0.4386
81006SOL     OW54996  12.893   5.601  10.311 -0.5716 -0.4541 -0.1836
81006SOL    HW154997  12.936   5.680  10.277  0.2617 -0.6381  0.3955
81006SOL    HW254998  12.801   5.626  10.321 -0.1510  0.7870  0.9581
81007SOL     OW54999   9.617   2.148   4.033 -0.5022 -0.8202 -0.0421
81007SOL    HW155000   9.552   2.092   4.076  0.5481 -2.2812 -0.2855
81007SOL    HW255001   9.575   2.175   3.951 -0.3971 -2.7796 -0.8061
81008SOL     OW55002   1.319   5.242  10.346  0.4313  0.0440 -0.3883
81008SOL    HW155003   1.241   5.293  10.321 -0.8291 -2.7674 -2.8495
81008SOL    HW255004   1.373   5.241  10.267  1.3192 -0.8105  0.2095
81009SOL     OW55005   0.254   6.363   6.354  0.1781 -0.0665  0.6651
81009SOL    HW155006   0.302   6.281   6.354  0.3294  0.0128 -0.5783
81009SOL    HW255007   0.180   6.348   6.295  0.5578  0.8821 -0.0687
81010SOL     OW55008  13.087   5.749   0.597  0.3331  0.1457 -0.4001
81010SOL    HW155009  13.163   5.690   0.595 -0.0297 -0.3109 -1.8484
81010SOL    HW255010  13.040   5.731   0.515 -0.0487  2.1159 -0.6745
81011SOL     OW55011  11.228  11.625   1.942  0.3349  0.0408 -0.5846
81011SOL    HW155012  11.300  11.575   1.904  1.8507  1.1539  0.7140
81011SOL    HW255013  11.253  11.716   1.931 -0.4795  0.4398  0.6641
81012SOL     OW55014  11.786   2.839  12.747 -0.1231 -0.1003  0.2176
81012SOL    HW155015  11.755   2.880  12.828 -0.1612  1.1199 -0.3984
81012SOL    HW255016  11.769   2.904  12.679  2.2438 -0.0287 -0.4089
81013SOL     OW55017   6.420   3.001   1.365 -0.1158 -0.0816  0.1765
81013SOL    HW155018   6.504   2.994   1.320 -0.3223  0.5387 -0.3262
81013SOL    HW255019   6.437   2.969   1.453  0.1897 -1.7529 -0.4670
81014SOL     OW55020   8.952   2.796   1.858  0.0153  0.5500  0.3341
81014SOL    HW155021   8.988   2.849   1.929 -0.4492 -0.1397  1.1026
81014SOL    HW255022   8.983   2.707   1.876  0.4018  0.4607 -0.6830
81015SOL     OW55023   7.773  12.085  11.023 -0.5162 -0.2102 -0.4341
81015SOL    HW155024   7.868  12.091  11.036 -0.7694  0.0749  1.5094
81015SOL    HW255025   7.761  12.002  10.976  0.6357 -0.6254 -0.0335
81016SOL     OW55026  13.382   3.378   2.300 -0.3753 -0.0931 -0.4560
81016SOL    HW155027  13.294   3.351   2.325 -0.3142  0.9079  0.9790
81016SOL    HW255028  13.399   3.333   2.217 -2.1095 -0.5312 -0.6041
81017SOL     OW55029  11.184   9.899   4.423  0.2699 -0.0693 -0.4439
81017SOL    HW155030  11.169   9.817   4.375 -1.0241  0.2223 -0.5898
81017SOL    HW255031  11.125   9.894   4.498  0.5163  0.5234 -0.2070
81018SOL     OW55032  10.950   2.160   4.403 -0.6628  0.2290  0.2537
81018SOL    HW155033  10.871   2.172   4.455  0.2089 -0.4318  1.8021
81018SOL    HW255034  11.022   2.183   4.462  0.3024  1.6155 -1.3637
81019SOL     OW55035  11.639   0.055   0.177 -0.0754  0.2240 -0.0815
81019SOL    HW155036  11.595   0.010   0.105  0.6239 -0.0335 -0.3647
81019SOL    HW255037  11.570   0.072   0.241 -0.6128  0.0050 -0.5907
81020SOL     OW55038   7.595   6.087  11.050 -0.1950  0.2683  0.5231
81020SOL    HW155039   7.503   6.072  11.026 -0.6108  1.6365  1.1788
81020SOL    HW255040   7.643   6.024  10.996 -1.4108  0.4182 -0.8190
81021SOL     OW55041  10.332   8.088   6.644 -0.2060 -0.3792  0.1064
81021SOL    HW155042  10.413   8.139   6.650 -1.3705  1.6434 -0.3374
81021SOL    HW255043  10.316   8.080   6.550 -1.9179  1.7368  0.1330
81022SOL     OW55044  12.074   3.929   9.078 -0.0606  0.0176 -0.4832
81022SOL    HW155045  12.054   3.905   9.169 -0.2481 -2.6769 -1.1640
81022SOL    HW255046  12.023   3.868   9.025 -2.2810  3.3602 -2.5569
81023SOL     OW55047   0.867   0.873   4.301 -0.6670 -0.0767 -0.3804
81023SOL    HW155048   0.952   0.871   4.257 -0.7006  2.3177 -0.6869
81023SOL    HW255049   0.808   0.828   4.241 -0.2777  1.2776 -1.8533
81024SOL     OW55050   5.223   0.938  11.995 -0.1705  0.3870 -0.8359
81024SOL    HW155051   5.191   0.975  11.913  0.9839  1.4098 -0.8453
81024SOL    HW255052   5.308   0.901  11.973 -0.3331 -0.3323 -0.3225
81025SOL     OW55053  10.884   5.872   3.910  0.0673  0.3120 -0.3589
81025SOL    HW155054  10.978   5.880   3.899  0.3104 -2.4609 -0.8887
81025SOL    HW255055  10.873   5.843   4.001 -0.3534  1.1130 -0.1377
81026SOL     OW55056  10.016  13.976   4.125  0.1091 -0.1883  0.1697
81026SOL    HW155057   9.945  13.913   4.113 -1.1370  0.7566  2.0045
81026SOL    HW255058   9.989  14.052   4.074 -0.4107  0.2971  1.1400
81027SOL     OW55059   2.516  13.969   3.795 -0.4964 -0.4995 -0.1664
81027SOL    HW155060   2.423  13.967   3.816 -0.0751  0.5257  2.0272
81027SOL    HW255061   2.530  14.056   3.757 -0.2991 -0.3542  0.2348
81028SOL     OW55062  10.296   0.701  12.739  0.2011 -0.3732  0.4566
81028SOL    HW155063  10.277   0.774  12.680  0.9546 -2.0304 -1.9801
81028SOL    HW255064  10.216   0.690  12.790 -0.7140  0.7762 -0.6714
81029SOL     OW55065   3.474   6.157  10.720  0.0527  0.2971 -0.2959
81029SOL    HW155066   3.479   6.240  10.768 -2.6916  0.9016 -0.9119
81029SOL    HW255067   3.484   6.181  10.628  3.3429 -0.6363 -0.3214
81030SOL     OW55068  11.139   4.884   8.863 -0.4125 -0.0396  0.0002
81030SOL    HW155069  11.214   4.839   8.824 -0.1742  0.1340  0.2530
81030SOL    HW255070  11.086   4.814   8.901 -1.2650 -0.3376 -1.6484
81031SOL     OW55071   2.815   7.809  11.118 -0.3589  0.5750  0.3504
81031SOL    HW155072   2.776   7.847  11.039 -1.3233  0.1634  0.6228
81031SOL    HW255073   2.768   7.727  11.132 -0.3643  0.7589  1.4949
81032SOL     OW55074   3.580  12.096  12.380 -0.2180  0.3650 -0.0813
81032SOL    HW155075   3.655  12.097  12.320 -2.3894  0.6419 -3.0674
81032SOL    HW255076   3.563  12.189  12.397 -1.7481  0.5661 -2.1953
81033SOL     OW55077  13.417   1.099   2.220 -0.0506 -0.1148  0.7086
81033SOL    HW155078  13.447   1.134   2.136 -0.0891  1.4638  1.3293
81033SOL    HW255079  13.488   1.118   2.281 -0.0897 -1.1210  1.0852
81034SOL     OW55080   3.772  11.825   1.343 -0.1660  0.6069 -0.2680
81034SOL    HW155081   3.684  11.846   1.314 -0.4609 -0.9403 -0.6191
81034SOL    HW255082   3.828  11.847   1.269 -0.4013  0.6138 -0.4458
81035SOL     OW55083   4.674  12.373  10.136 -0.2344 -0.0824  0.0120
81035SOL    HW155084   4.669  12.435  10.063 -0.8526 -0.2268 -0.0717
81035SOL    HW255085   4.691  12.428  10.212 -0.6575  0.1826 -0.0808
81036SOL     OW55086   7.246   3.622  10.615 -0.0951 -0.1288 -0.2983
81036SOL    HW155087   7.295   3.648  10.693  1.7137  1.5403 -1.8807
81036SOL    HW255088   7.289   3.542  10.585  0.6726  0.4687 -0.8124
81037SOL     OW55089   8.255   0.167   1.280  0.1451 -0.8113  0.1385
81037SOL    HW155090   8.325   0.183   1.216  0.2283  1.0281  0.6168
81037SOL    HW255091   8.174   0.173   1.230  0.2468 -0.3131  0.0289
81038SOL     OW55092   4.248   9.967   2.471 -0.0639 -0.1750  0.8535
81038SOL    HW155093   4.225  10.052   2.433  1.2595 -0.3222 -0.3496
81038SOL    HW255094   4.259   9.985   2.565 -0.7039  0.7679  0.7653
81039SOL     OW55095  11.603   0.907   1.684 -0.4224  0.6664 -0.0345
81039SOL    HW155096  11.698   0.892   1.677 -0.0972  1.9384  1.2476
81039SOL    HW255097  11.595   0.995   1.719 -2.0679  0.1247  1.0809
81040SOL     OW55098   6.120   9.389   1.735 -0.3225  0.6361 -0.6187
81040SOL    HW155099   6.178   9.316   1.757 -0.6598  0.5155 -0.1025
81040SOL    HW255100   6.054   9.389   1.804 -0.9081  0.8056 -1.1605
81041SOL     OW55101   2.973   1.387   2.488  0.1253 -0.2027  0.5626
81041SOL    HW155102   3.050   1.436   2.463 -0.6647  1.3304  1.0059
81041SOL    HW255103   3.007   1.305   2.524  1.5983  0.8222  1.6021
81042SOL     OW55104   2.096  11.445  11.407  0.2740  0.0277  0.0335
81042SOL    HW155105   2.143  11.404  11.335 -0.3317 -0.1326 -0.2759
81042SOL    HW255106   2.135  11.532  11.415 -0.7716  0.6993 -1.6054
81043SOL     OW55107  11.895  11.752   9.168 -0.1938  0.3107 -0.1867
81043SOL    HW155108  11.972  11.742   9.111  0.0604 -0.5452  0.2854
81043SOL    HW255109  11.921  11.711   9.250 -1.4816 -0.8111 -0.3083
81044SOL     OW55110   6.610   9.388   4.819 -0.5036  0.4412  0.0244
81044SOL    HW155111   6.650   9.459   4.868 -1.1404  0.9362 -0.1734
81044SOL    HW255112   6.522   9.381   4.853 -0.1284 -0.9615  0.7897
81045SOL     OW55113   6.148   7.630   1.065  0.0883  1.0504  0.0593
81045SOL    HW155114   6.169   7.723   1.058 -1.3511  1.3435 -1.0109
81045SOL    HW255115   6.053   7.628   1.081  0.3359 -0.2142  1.5618
81046SOL     OW55116   3.092  11.653  10.418  0.3465  0.1921 -0.6967
81046SOL    HW155117   3.066  11.610  10.499 -0.1177  0.0128 -0.9359
81046SOL    HW255118   3.173  11.699  10.440  0.5821 -0.3992 -0.3117
81047SOL     OW55119   5.575   5.527   3.265 -0.3959  0.0848  0.6611
81047SOL    HW155120   5.658   5.480   3.275 -0.8161 -1.1016 -1.0218
81047SOL    HW255121   5.523   5.499   3.340  0.2730 -0.1428  1.0508
81048SOL     OW55122   6.018  11.919   9.617  0.3538 -0.4564  0.1148
81048SOL    HW155123   5.939  11.964   9.588  0.5225 -1.2520 -1.7223
81048SOL    HW255124   6.066  11.984   9.668  0.5172  1.4093 -2.2737
81049SOL     OW55125  11.785   3.961   0.125  0.4650 -1.0727 -0.1922
81049SOL    HW155126  11.716   3.906   0.087 -1.0758 -0.6880  1.8681
81049SOL    HW255127  11.866   3.915   0.103 -0.6295 -3.0690 -0.3111
81050SOL     OW55128   1.235   0.519   5.992 -0.0822  0.1973 -0.1457
81050SOL    HW155129   1.255   0.613   5.996  1.3757 -0.1375  1.5981
81050SOL    HW255130   1.320   0.476   6.003 -0.6319 -1.3699 -1.5531
81051SOL     OW55131   9.362   3.730   5.172 -0.1783  0.4372 -0.0230
81051SOL    HW155132   9.365   3.791   5.098  0.7230 -0.9879 -1.2120
81051SOL    HW255133   9.286   3.675   5.155  0.4825 -0.4031 -0.3338
81052SOL     OW55134  12.458   6.976   1.547  0.3286 -0.3058 -0.3961
81052SOL    HW155135  12.501   6.980   1.462 -0.8965  0.5546 -1.0101
81052SOL    HW255136  12.374   6.932   1.529  0.2214 -0.4567  0.4417
81053SOL     OW55137   4.772   7.730  10.225  0.3657 -0.8271 -0.6702
81053SOL    HW155138   4.752   7.823  10.230  0.9647 -0.6643 -1.1430
81053SOL    HW255139   4.688   7.688  10.205 -0.2261 -0.5649  1.1191
81054SOL     OW55140  10.111   1.357   1.371 -0.0570 -0.0094  0.5975
81054SOL    HW155141  10.106   1.441   1.417  0.6586  1.0224 -1.0783
81054SOL    HW255142  10.022   1.340   1.341 -0.0121  0.7149  0.0352
81055SOL     OW55143   5.035  10.103   6.461  0.1905 -0.3205  0.3145
81055SOL    HW155144   4.983  10.024   6.451 -0.6507  0.4196 -2.0844
81055SOL    HW255145   5.072  10.118   6.374  0.5185  1.7649  0.7527
81056SOL     OW55146   6.934   0.590   8.853 -0.1129  0.0153  0.2253
81056SOL    HW155147   6.970   0.647   8.920  1.3068  0.7785 -1.1173
81056SOL    HW255148   6.839   0.600   8.861  0.0779  2.1830  0.3769
81057SOL     OW55149  10.968  10.784   6.479  0.1542 -0.0353 -0.1118
81057SOL    HW155150  10.920  10.711   6.440  0.2749 -1.0468  1.5700
81057SOL    HW255151  10.998  10.751   6.563  2.2180  1.1874 -0.3004
81058SOL     OW55152   4.840  12.909   0.626  0.0232  0.1194 -0.0970
81058SOL    HW155153   4.816  12.855   0.700 -0.4734  0.2638 -0.1479
81058SOL    HW255154   4.765  12.903   0.566  0.0616  0.6693 -0.2069
81059SOL     OW55155   6.891   5.857   8.534 -0.3589 -0.0698  0.3026
81059SOL    HW155156   6.862   5.781   8.484 -0.2480 -0.5178  0.9150
81059SOL    HW255157   6.810   5.894   8.570 -0.3295 -0.3973  0.7073
81060SOL     OW55158  12.822   0.245  12.869 -0.1175  0.4545 -0.0511
81060SOL    HW155159  12.909   0.247  12.830  0.4184  1.1657  1.1067
81060SOL    HW255160  12.763   0.229  12.796  0.9814 -0.0268 -0.8570
81061SOL     OW55161  12.281  12.231   1.724 -0.1246 -0.9720 -0.0687
81061SOL    HW155162  12.306  12.268   1.808  1.4633  0.2100 -1.0047
81061SOL    HW255163  12.266  12.138   1.742 -2.0741 -0.3616  1.9123
81062SOL     OW55164  13.995   9.125   2.452 -0.4679  0.2203 -0.0041
81062SOL    HW155165  14.006   9.039   2.412 -2.9593 -0.7261  1.1674
81062SOL    HW255166  13.936   9.110   2.526  0.3635  2.6707  1.2476
81063SOL     OW55167   3.514   8.649   4.631  0.1571 -0.0562 -0.1249
81063SOL    HW155168   3.441   8.656   4.570  0.7970 -0.0881 -0.9104
81063SOL    HW255169   3.504   8.725   4.689 -0.9707 -0.5213  0.3230
81064SOL     OW55170   7.472   8.684   2.021  0.6436 -0.4046  0.0629
81064SOL    HW155171   7.510   8.650   1.940  1.4729 -1.1273  0.7397
81064SOL    HW255172   7.458   8.607   2.076 -2.8801 -0.3682 -0.5452
81065SOL     OW55173   1.709  13.120   3.328  0.1316  0.0634 -0.1243
81065SOL    HW155174   1.659  13.126   3.409 -0.4545 -2.3878 -0.2227
81065SOL    HW255175   1.651  13.074   3.268  1.2329  0.2630 -1.3838
81066SOL     OW55176   5.267  10.818   3.685  0.2876  0.5811 -0.3483
81066SOL    HW155177   5.298  10.821   3.594  0.9383  1.2545 -0.1227
81066SOL    HW255178   5.340  10.855   3.735 -0.6430  1.6088  0.2816
81067SOL     OW55179   2.563   6.232   1.804  0.2381 -0.1699 -0.4531
81067SOL    HW155180   2.533   6.183   1.727 -1.7733 -0.6365  0.5396
81067SOL    HW255181   2.658   6.222   1.804  0.1225 -1.6533 -1.8982
81068SOL     OW55182   2.821   4.706   6.532  0.7108 -0.0208 -0.4933
81068SOL    HW155183   2.771   4.764   6.475 -0.2577 -0.8911 -0.5502
81068SOL    HW255184   2.868   4.648   6.472  0.3559 -0.3865 -0.4194
81069SOL     OW55185   2.618  10.046  13.447 -0.4439  0.5741 -0.6666
81069SOL    HW155186   2.578   9.964  13.418 -2.2017  1.1283  0.0683
81069SOL    HW255187   2.562  10.114  13.411  0.2141  1.4197 -0.1207
81070SOL     OW55188   4.770   0.184   9.188 -0.8342  0.0695 -0.0262
81070SOL    HW155189   4.727   0.226   9.263  0.6582  1.5624  0.0672
81070SOL    HW255190   4.860   0.216   9.192  0.1284 -2.3898 -0.6019
81071SOL     OW55191  12.705  11.935  10.569 -0.8240 -0.5594 -0.4919
81071SOL    HW155192  12.750  11.913  10.651 -2.9589  1.5875  1.4147
81071SOL    HW255193  12.738  12.022  10.546 -0.5588 -0.9667 -1.7057
81072SOL     OW55194   0.563   5.487   7.483 -0.2059 -0.5772 -0.0628
81072SOL    HW155195   0.493   5.482   7.548 -0.7174 -1.0438 -0.6393
81072SOL    HW255196   0.546   5.414   7.424 -0.0324  0.1150 -0.9961
81073SOL     OW55197   8.495   5.174   3.742  0.1253  0.4880 -0.0669
81073SOL    HW155198   8.421   5.201   3.687  1.0068  3.0637 -0.1544
81073SOL    HW255199   8.553   5.126   3.683  0.1952  1.6190 -0.9602
81074SOL     OW55200   5.477   0.821  11.473 -0.1420 -0.2489  0.0858
81074SOL    HW155201   5.439   0.823  11.561  0.0933 -1.5177  0.2417
81074SOL    HW255202   5.457   0.733  11.441 -0.1328  0.1730 -1.0913
81075SOL     OW55203   6.158   2.936   9.873 -0.2795 -0.7131 -0.3538
81075SOL    HW155204   6.079   2.920   9.925 -1.3120  0.3503 -1.5272
81075SOL    HW255205   6.230   2.910   9.931 -1.5043 -3.9548 -0.0557
81076SOL     OW55206  12.700  12.776   7.640 -0.2122  0.1918 -0.4796
81076SOL    HW155207  12.647  12.829   7.699 -0.2139 -0.5987  0.2406
81076SOL    HW255208  12.787  12.777   7.679  0.0254  0.4749 -1.0020
81077SOL     OW55209  13.789   1.970   1.533 -0.5023 -0.6317  0.1878
81077SOL    HW155210  13.827   2.058   1.533  0.5794 -1.0715  0.7369
81077SOL    HW255211  13.856   1.915   1.493 -1.1767 -1.2110 -0.1662
81078SOL     OW55212   5.017   1.083   3.787 -0.1858 -0.3461  0.4200
81078SOL    HW155213   4.978   1.010   3.836  0.5964 -1.3064 -0.3570
81078SOL    HW255214   4.943   1.142   3.772 -1.0277 -1.3651  0.3625
81079SOL     OW55215  13.510   3.850   9.815 -0.4406 -0.3111  0.4133
81079SOL    HW155216  13.470   3.818   9.896 -1.7444  1.5895  0.5965
81079SOL    HW255217  13.445   3.831   9.748 -0.1884 -0.1719  0.1304
81080SOL     OW55218   2.524   4.532  13.827  0.2582  0.3506 -0.2364
81080SOL    HW155219   2.477   4.577  13.757 -2.0253 -1.5333 -0.0213
81080SOL    HW255220   2.519   4.439  13.805  1.4920 -0.1244  1.2647
81081SOL     OW55221   3.164   6.835  12.167 -0.9186 -0.2801 -0.0715
81081SOL    HW155222   3.184   6.742  12.153 -1.9895 -0.3009 -1.7219
81081SOL    HW255223   3.205   6.880  12.093 -0.0537  0.6292  0.9417
81082SOL     OW55224  13.533   4.746  12.754 -0.0839 -0.6543 -0.1245
81082SOL    HW155225  13.455   4.719  12.802 -1.1752  0.0038 -1.4731
81082SOL    HW255226  13.500   4.791  12.677  1.6345  1.5736  0.3429
81083SOL     OW55227  13.513   4.693   4.519  0.0789  0.3279  0.3488
81083SOL    HW155228  13.525   4.660   4.430 -0.2762  0.3257  0.3033
81083SOL    HW255229  13.483   4.618   4.569 -0.3588  0.4900  0.3285
81084SOL     OW55230   2.020   2.877   0.221 -0.0048 -0.4549 -0.8790
81084SOL    HW155231   1.944   2.879   0.280  1.1239 -1.3413  0.6993
81084SOL    HW255232   2.026   2.965   0.186 -0.2105  0.3939  1.0882
81085SOL     OW55233   0.844   1.813   5.584  0.4344 -0.0874  0.4223
81085SOL    HW155234   0.800   1.731   5.565 -3.6231  1.4313  2.1431
81085SOL    HW255235   0.869   1.806   5.676 -0.5222  0.7764  0.7653
81086SOL     OW55236   0.583  13.768  12.100  0.6805 -0.4594 -0.1805
81086SOL    HW155237   0.646  13.699  12.123  0.1915 -1.2194 -1.0599
81086SOL    HW255238   0.625  13.817  12.030  1.9666  1.5595  1.8873
81087SOL     OW55239  11.557   7.960   1.261  0.3611 -0.3104  0.0109
81087SOL    HW155240  11.492   7.898   1.294  0.4115 -0.4473 -0.1399
81087SOL    HW255241  11.511   8.012   1.197  1.0111 -2.1864 -2.1224
81088SOL     OW55242   7.347  11.948   0.602 -0.3896  0.3016 -0.1094
81088SOL    HW155243   7.379  11.928   0.514  1.3806  0.5409  0.4295
81088SOL    HW255244   7.363  12.042   0.612 -2.4124  0.7046 -0.2049
81089SOL     OW55245   2.333   4.955   8.110  0.5290  0.3861  0.0130
81089SOL    HW155246   2.372   4.879   8.153 -1.5418 -1.7697 -1.6376
81089SOL    HW255247   2.300   5.008   8.182  2.1938 -0.1472  1.2308
81090SOL     OW55248  11.131   9.003  10.733 -0.0091  0.4637 -0.3790
81090SOL    HW155249  11.116   8.936  10.667 -0.3483  1.2865 -1.1670
81090SOL    HW255250  11.185   9.068  10.689 -2.2797  2.2642 -0.7379
81091SOL     OW55251   8.040   5.464   6.286  0.1527  0.1051  0.3973
81091SOL    HW155252   8.068   5.410   6.212 -1.5636 -0.0871 -0.1392
81091SOL    HW255253   8.022   5.550   6.248  1.2431  0.6020  0.9644
81092SOL     OW55254  10.313   6.464   1.782  0.0223  0.4003  0.0430
81092SOL    HW155255  10.319   6.537   1.720  1.6296  0.4780  0.2493
81092SOL    HW255256  10.364   6.394   1.742 -1.3243 -0.5884 -0.0481
81093SOL     OW55257   2.944   3.824   1.094  0.3398 -0.2350 -0.5531
81093SOL    HW155258   3.008   3.759   1.067  0.7688 -0.3089  0.5901
81093SOL    HW255259   2.873   3.815   1.030  1.5024 -0.0539 -1.9212
81094SOL     OW55260   7.217  11.380   2.225  0.4659 -0.3483 -0.1522
81094SOL    HW155261   7.122  11.393   2.223  0.5624  0.8268  1.0547
81094SOL    HW255262   7.232  11.333   2.307  0.8606 -1.3931 -0.8078
81095SOL     OW55263   6.649   5.349   4.740 -0.1759 -0.0273 -0.5129
81095SOL    HW155264   6.740   5.372   4.723  0.4187 -0.9635  1.1177
81095SOL    HW255265   6.624   5.295   4.665  1.2929 -1.4339 -0.0557
81096SOL     OW55266   7.016  11.243   5.671 -0.1056 -0.0342 -0.2791
81096SOL    HW155267   7.064  11.309   5.622 -0.2229 -0.5782 -1.1594
81096SOL    HW255268   7.014  11.275   5.761  0.5421  0.7490 -0.5396
81097SOL     OW55269   7.355   6.767   6.892  0.1958 -0.0095 -0.2254
81097SOL    HW155270   7.314   6.692   6.934 -0.8757  0.6787  0.0179
81097SOL    HW255271   7.449   6.756   6.908 -0.0845 -0.3280  1.4481
81098SOL     OW55272   8.546   7.644   0.060  1.0123  0.3478 -0.1002
81098SOL    HW155273   8.470   7.587   0.046 -1.3363  2.9540  0.9566
81098SOL    HW255274   8.560   7.687  -0.024 -0.8264  2.1593  0.4478
81099SOL     OW55275   0.604   7.132  13.462  0.3588  0.4636  0.0202
81099SOL    HW155276   0.667   7.059  13.458 -1.7661 -1.4889  0.0235
81099SOL    HW255277   0.637   7.188  13.532  2.0159 -0.5622  0.1172
81100SOL     OW55278   3.759   6.677   3.637  0.1404 -0.9356  0.2489
81100SOL    HW155279   3.740   6.768   3.659 -2.1316 -1.2798 -0.0633
81100SOL    HW255280   3.834   6.682   3.578 -1.3642  0.9473 -1.6617
81101SOL     OW55281   7.145  10.096  11.346 -0.4048  0.1638  0.0282
81101SOL    HW155282   7.075  10.031  11.336  0.3819 -0.6914 -0.0260
81101SOL    HW255283   7.178  10.108  11.257 -1.6535  1.9318 -0.2475
81102SOL     OW55284  13.564  13.407   9.139  0.3454 -0.1763  0.2421
81102SOL    HW155285  13.526  13.439   9.057  0.4399 -2.4657 -0.7887
81102SOL    HW255286  13.651  13.446   9.143  0.3038  0.0361 -0.7267
81103SOL     OW55287   0.391   6.242   9.493 -0.1809  0.6771 -0.4427
81103SOL    HW155288   0.373   6.236   9.587  0.2891 -0.8012 -0.4268
81103SOL    HW255289   0.486   6.237   9.486 -0.3006 -1.6043 -1.1026
81104SOL     OW55290  12.703   0.855   1.576 -0.5453  0.3064  0.0668
81104SOL    HW155291  12.633   0.828   1.635  0.1858  0.0334  0.8212
81104SOL    HW255292  12.666   0.928   1.526 -1.6799 -0.4452 -0.2199
81105SOL     OW55293   7.898   2.129   0.362 -0.5778  0.3782  0.2716
81105SOL    HW155294   7.958   2.106   0.291 -0.4436 -1.7717  0.9972
81105SOL    HW255295   7.822   2.168   0.319  0.4658  1.2427 -0.8287
81106SOL     OW55296  10.341  10.176   3.012 -0.0945  0.0641  0.1879
81106SOL    HW155297  10.372  10.148   3.099 -0.2821  1.9338  0.9070
81106SOL    HW255298  10.246  10.167   3.016  0.0347 -2.1194 -0.7028
81107SOL     OW55299   2.462  12.955   7.848 -0.6794  0.5669 -0.7215
81107SOL    HW155300   2.547  12.924   7.880 -0.2371  1.2649 -1.1933
81107SOL    HW255301   2.473  13.049   7.840 -1.5143  0.6602 -0.7638
81108SOL     OW55302  11.120  12.726  12.896 -0.2794  0.2866 -0.2824
81108SOL    HW155303  11.198  12.704  12.845  0.8878 -0.0506  1.5608
81108SOL    HW255304  11.096  12.814  12.867  1.4452  0.8437 -0.1647
81109SOL     OW55305   6.713   2.750  13.439 -0.6966 -0.1982  0.0455
81109SOL    HW155306   6.681   2.808  13.370  1.2163  0.6482 -0.2023
81109SOL    HW255307   6.719   2.664  13.398 -0.2782  0.1465 -0.6375
81110SOL     OW55308  10.796   5.020   9.020  0.0390  0.0476 -0.5998
81110SOL    HW155309  10.833   5.021   8.932  2.5307  1.5161  0.3566
81110SOL    HW255310  10.872   5.017   9.078 -1.4461 -3.9231  1.6193
81111SOL     OW55311   0.857  11.732  11.809  0.2343  0.3796 -0.5697
81111SOL    HW155312   0.896  11.730  11.721 -0.2619 -1.3996 -0.7905
81111SOL    HW255313   0.926  11.765  11.865  1.2863 -0.4931 -1.3180
81112SOL     OW55314  12.372   9.561  12.434  0.3307  0.0146 -0.7618
81112SOL    HW155315  12.294   9.601  12.396  0.5421  0.3391 -0.8582
81112SOL    HW255316  12.399   9.622  12.503 -0.0508 -0.5672 -0.0776
81113SOL     OW55317   0.453   2.085   5.246  0.2516 -0.3830 -0.3875
81113SOL    HW155318   0.400   2.119   5.174  0.2942  0.4802 -0.0227
81113SOL    HW255319   0.527   2.146   5.251 -0.9058  0.9638  1.8488
81114SOL     OW55320   5.455  10.603   3.286 -0.1819 -0.3360  0.3085
81114SOL    HW155321   5.490  10.640   3.205  1.2419 -0.5114  0.8226
81114SOL    HW255322   5.425  10.679   3.336  2.0491  0.1287  1.0413
81115SOL     OW55323   1.995   4.289   2.412  0.3075 -0.7819 -0.6059
81115SOL    HW155324   1.962   4.347   2.343  1.2211  0.6775  0.1437
81115SOL    HW255325   2.037   4.217   2.364  0.0065 -0.3404 -1.5670
81116SOL     OW55326   0.835   5.400   1.484  0.7733  0.3424 -0.0762
81116SOL    HW155327   0.888   5.479   1.470 -1.7550  2.0481 -0.7939
81116SOL    HW255328   0.770   5.402   1.414  0.9012 -2.7254 -0.4173
81117SOL     OW55329  10.965   8.451   1.179 -0.0312  0.3248 -1.0925
81117SOL    HW155330  10.915   8.533   1.190  2.0916  1.5574 -0.0259
81117SOL    HW255331  11.049   8.468   1.221  1.2689 -1.7190 -2.6531
81118SOL     OW55332  12.493   8.433  12.186  0.0906  0.1156 -0.5345
81118SOL    HW155333  12.486   8.338  12.194  0.1288  0.2217  1.0331
81118SOL    HW255334  12.587   8.449  12.172  0.2527 -0.0208  0.3586
81119SOL     OW55335   1.998  12.426   2.543  0.1324 -0.0121 -0.1422
81119SOL    HW155336   1.964  12.376   2.469 -0.8295 -1.5218  1.2344
81119SOL    HW255337   2.087  12.394   2.555 -0.6644 -1.9157  1.0827
81120SOL     OW55338   0.405   9.765   1.978  0.4326  0.0789 -0.1230
81120SOL    HW155339   0.381   9.854   1.951 -0.5351 -0.2985 -0.5381
81120SOL    HW255340   0.400   9.767   2.073  1.4308  0.7378 -0.0620
81121SOL     OW55341   7.396   2.848   9.877  0.3404  0.7143  0.2443
81121SOL    HW155342   7.366   2.818   9.963 -0.5955  0.1076 -0.2795
81121SOL    HW255343   7.317   2.853   9.824  1.1275 -0.9436 -1.1869
81122SOL     OW55344   9.808   9.040   0.091 -0.0856  0.0519  0.1399
81122SOL    HW155345   9.844   9.029   0.003  0.3883 -0.3571  0.3782
81122SOL    HW255346   9.855   9.116   0.126  1.1788 -0.9690  0.7486
81123SOL     OW55347  13.916  12.867  10.531  0.4673 -0.2365 -0.6426
81123SOL    HW155348  13.958  12.894  10.449  1.0810  0.8339 -0.0153
81123SOL    HW255349  13.882  12.780  10.514  2.1527 -0.7675 -1.4982
81124SOL     OW55350  10.221   9.876   3.432  0.2316 -0.4101 -0.6855
81124SOL    HW155351  10.169   9.956   3.428  0.1950 -0.2782  1.1875
81124SOL    HW255352  10.238   9.864   3.526  1.5876 -1.7330 -1.0677
81125SOL     OW55353   1.111  12.669   3.894  0.0920 -0.1019  0.1151
81125SOL    HW155354   1.149  12.602   3.950 -1.3432 -1.5262 -0.5434
81125SOL    HW255355   1.050  12.717   3.950  0.5946  0.2016  0.4069
81126SOL     OW55356   0.115  11.705  11.631  1.0673  0.2691 -0.2280
81126SOL    HW155357   0.151  11.793  11.648  0.0016  0.8455 -0.8600
81126SOL    HW255358   0.039  11.721  11.576 -1.1889 -0.7308  2.3620
81127SOL     OW55359  10.860   0.568   8.660  0.2557 -0.2946  0.4932
81127SOL    HW155360  10.930   0.505   8.672  0.7878  0.1331 -0.2769
81127SOL    HW255361  10.809   0.534   8.586 -0.2878 -0.5435  0.9748
81128SOL     OW55362   2.879   6.261   1.865 -0.3608 -0.5897  0.1451
81128SOL    HW155363   2.889   6.249   1.771  1.7528 -0.9599  0.3554
81128SOL    HW255364   2.930   6.190   1.904 -0.4169  0.0916  1.5487
81129SOL     OW55365   9.393   6.029  13.243 -0.0832  0.5628 -0.2806
81129SOL    HW155366   9.356   6.038  13.331  0.2281  1.8899 -0.2726
81129SOL    HW255367   9.415   5.936  13.237  0.0155  0.4652  1.0880
81130SOL     OW55368   5.813   4.053   2.228 -0.5941  0.0154  0.6337
81130SOL    HW155369   5.738   3.997   2.208 -1.4391  1.2379  0.2292
81130SOL    HW255370   5.790   4.095   2.311 -1.3095  1.8916 -0.4516
81131SOL     OW55371  13.843  10.549   5.339 -0.0085 -0.3593  0.3434
81131SOL    HW155372  13.825  10.564   5.246  1.0985  2.4176  0.4815
81131SOL    HW255373  13.771  10.592   5.385 -0.4210 -1.5034  0.8133
81132SOL     OW55374   4.231   0.721   7.193  0.1882  0.4942  0.0529
81132SOL    HW155375   4.254   0.814   7.193  1.2999  0.2418 -1.0322
81132SOL    HW255376   4.295   0.681   7.252 -0.9342  0.5467  1.3338
81133SOL     OW55377   1.765  11.847   6.123 -0.1696 -0.0898  0.6553
81133SOL    HW155378   1.694  11.865   6.062 -0.5547  0.1621  1.1817
81133SOL    HW255379   1.830  11.801   6.070 -0.6512 -0.1775  0.1350
81134SOL     OW55380   4.757  10.973   0.388  0.0503 -0.0123  0.0700
81134SOL    HW155381   4.796  11.052   0.426 -1.3629 -0.6329  3.0876
81134SOL    HW255382   4.803  10.901   0.430 -0.4655 -0.8001 -0.6808
81135SOL     OW55383   6.632   9.149   9.156  0.6421  0.0825  0.5547
81135SOL    HW155384   6.609   9.182   9.069  1.9805 -1.2146 -0.3349
81135SOL    HW255385   6.602   9.058   9.156  3.5679 -0.9830  0.1500
81136SOL     OW55386   0.070   4.140   8.546  0.3948  0.3574  0.4593
81136SOL    HW155387   0.039   4.050   8.545 -0.0527  0.5047  0.9542
81136SOL    HW255388   0.014   4.185   8.609  1.5463  0.6433  1.3149
81137SOL     OW55389   4.008   6.685   3.493 -0.2905 -0.1309 -0.7927
81137SOL    HW155390   3.977   6.676   3.403 -0.1188  1.7021 -1.0604
81137SOL    HW255391   4.040   6.775   3.499 -1.1173  0.0784  1.3494
81138SOL     OW55392  13.022  10.465   6.761  0.6075  0.2464 -0.0823
81138SOL    HW155393  13.048  10.554   6.737  0.8004 -0.4522 -2.7092
81138SOL    HW255394  13.103  10.423   6.788  0.8434  0.3473 -0.6243
81139SOL     OW55395   3.979   8.199   8.630  0.1494  0.4686  0.2596
81139SOL    HW155396   4.007   8.229   8.543 -0.8421  1.4201  0.2392
81139SOL    HW255397   3.984   8.104   8.626  1.0467  0.5332 -0.5160
81140SOL     OW55398   0.642  13.736   9.354 -0.5580 -0.4888 -0.0237
81140SOL    HW155399   0.580  13.802   9.386  1.6665  2.4524 -1.3099
81140SOL    HW255400   0.724  13.755   9.400  0.8376 -0.6309 -2.3079
81141SOL     OW55401  10.612   5.894  12.535 -0.5665  0.1001 -0.2579
81141SOL    HW155402  10.636   5.825  12.597 -0.8840  1.3099  1.2701
81141SOL    HW255403  10.594   5.970  12.590 -1.8152  0.9607 -1.7740
81142SOL     OW55404   5.762  11.164  12.878  0.3886 -0.3875  0.3636
81142SOL    HW155405   5.846  11.176  12.832 -1.6088  1.8939 -3.2462
81142SOL    HW255406   5.755  11.241  12.934 -0.1668  0.6002 -1.0175
81143SOL     OW55407   6.684   5.711   0.427 -0.1019 -0.2378  0.2150
81143SOL    HW155408   6.756   5.762   0.464 -0.1070  0.7381 -1.0500
81143SOL    HW255409   6.708   5.620   0.442  2.7703 -0.0659 -2.5847
81144SOL     OW55410   5.041   0.227   9.213  0.2230  0.0080 -0.4886
81144SOL    HW155411   5.085   0.297   9.260 -1.3346  1.4243 -1.0229
81144SOL    HW255412   5.031   0.156   9.277  0.7642  0.7423  0.4172
81145SOL     OW55413   6.062   4.290   3.176  0.1112 -0.7296 -0.9126
81145SOL    HW155414   5.995   4.270   3.241  0.1644  0.6315 -0.4074
81145SOL    HW255415   6.024   4.263   3.093 -0.7107 -0.7735 -0.5290
81146SOL     OW55416   3.923   5.964  11.858  0.4454  0.5801  0.0732
81146SOL    HW155417   3.840   5.975  11.905  0.4166  1.9222 -0.2530
81146SOL    HW255418   3.928   5.870  11.840 -2.5906  0.7559 -2.7141
81147SOL     OW55419   4.310   3.150   7.367  0.3185  0.4097 -0.3475
81147SOL    HW155420   4.340   3.230   7.409 -1.1152  0.3133  0.9180
81147SOL    HW255421   4.379   3.130   7.303  0.8890  2.4216 -0.4425
81148SOL     OW55422   8.322  10.404   7.428 -0.0492 -0.5290  0.2801
81148SOL    HW155423   8.240  10.432   7.469  0.6141  0.3872  1.0239
81148SOL    HW255424   8.340  10.472   7.362  0.1967 -0.6438  0.2282
81149SOL     OW55425   0.133  12.764   3.757 -0.5110 -0.2606 -0.2649
81149SOL    HW155426   0.079  12.842   3.742 -0.7922 -0.5352 -0.7110
81149SOL    HW255427   0.197  12.765   3.685  0.0138  0.0056  0.2009
81150SOL     OW55428   8.903   4.711   1.155  0.0802  0.3148  0.1595
81150SOL    HW155429   8.946   4.629   1.180 -1.7682 -0.5558  0.6465
81150SOL    HW255430   8.812   4.699   1.181 -0.4868  2.0698 -0.8746
81151SOL     OW55431   7.988   0.743   5.491  1.0784  0.3718  0.6163
81151SOL    HW155432   7.931   0.786   5.428  1.6535  0.4195  0.1224
81151SOL    HW255433   8.048   0.813   5.520  0.2565  0.5829  1.8959
81152SOL     OW55434   8.897  14.003   0.521  0.1998  0.1124  0.3098
81152SOL    HW155435   8.803  13.991   0.507  0.4907 -2.0971 -0.1358
81152SOL    HW255436   8.914  14.092   0.490 -1.7434  0.5912  0.4646
81153SOL     OW55437   3.353  12.104   8.328  0.0924 -0.3669 -0.1174
81153SOL    HW155438   3.410  12.039   8.370  1.3685 -0.1289 -1.4080
81153SOL    HW255439   3.354  12.179   8.388 -1.3070 -1.4464  1.3312
81154SOL     OW55440  10.767   7.955   7.448 -0.1581  0.1497 -0.5184
81154SOL    HW155441  10.710   7.937   7.373  0.2369  1.6338 -1.2213
81154SOL    HW255442  10.821   7.876   7.457  0.1507  0.1376 -2.1553
81155SOL     OW55443  13.510   4.295  13.900 -0.0485  0.2935 -0.3763
81155SOL    HW155444  13.452   4.255  13.965  1.5991 -1.7380 -0.0543
81155SOL    HW255445  13.598   4.269  13.927  0.8194  0.9887 -2.3637
81156SOL     OW55446   5.124   6.588   3.524  0.1492 -0.3964 -0.4294
81156SOL    HW155447   5.089   6.669   3.486  1.2220  0.5732  0.5655
81156SOL    HW255448   5.082   6.518   3.474 -1.5161  0.7456 -0.7028
81157SOL     OW55449   2.065   8.114   7.119  0.0475  0.3497  0.0892
81157SOL    HW155450   2.117   8.189   7.147 -0.5854  1.5700 -1.8038
81157SOL    HW255451   1.992   8.152   7.070 -1.1440 -1.4437  0.3494
81158SOL     OW55452   9.444   0.792   8.084  0.4092 -0.6251  0.3080
81158SOL    HW155453   9.419   0.839   8.164 -0.5126  1.5567 -1.1457
81158SOL    HW255454   9.466   0.704   8.113 -0.3181 -0.0313  2.8964
81159SOL     OW55455   4.966   2.089   6.986 -0.1201  0.7685  0.4359
81159SOL    HW155456   4.916   2.021   6.941  0.5500  1.2940 -1.2212
81159SOL    HW255457   5.046   2.045   7.015 -0.9012  0.2446  1.8574
81160SOL     OW55458   4.974  10.700  10.899  0.2158  0.2546  0.2403
81160SOL    HW155459   4.897  10.739  10.940 -1.7082 -2.9914  0.0772
81160SOL    HW255460   4.991  10.755  10.822 -1.7821  1.2077  0.4182
81161SOL     OW55461  10.229   8.802  12.188 -0.0649 -0.1629 -0.0339
81161SOL    HW155462  10.199   8.822  12.099 -0.4342  1.0385  0.3485
81161SOL    HW255463  10.323   8.786  12.178  0.1516  1.2074 -0.4780
81162SOL     OW55464   3.763   7.458   3.853 -0.4591 -0.5217  0.5066
81162SOL    HW155465   3.752   7.519   3.780  2.2081 -1.0113 -0.4224
81162SOL    HW255466   3.783   7.514   3.928 -0.8589 -0.1113  0.3094
81163SOL     OW55467   4.151   6.829   7.751 -0.1125  0.3989  0.0837
81163SOL    HW155468   4.196   6.866   7.827  0.9669 -1.3671  0.3584
81163SOL    HW255469   4.213   6.766   7.715 -1.6104 -0.6575 -0.7406
81164SOL     OW55470   1.729   3.080   0.000 -0.6383  0.0477  0.3601
81164SOL    HW155471   1.805   3.126   0.036  0.8798 -1.3072 -0.9541
81164SOL    HW255472   1.736   2.991   0.034 -1.8263 -0.0339  0.4507
81165SOL     OW55473   6.091   6.683   5.783  0.3961  0.7686  0.0464
81165SOL    HW155474   6.148   6.655   5.854  0.5804  1.8982  0.3685
81165SOL    HW255475   6.061   6.602   5.742  2.3343  0.1414 -0.2191
81166SOL     OW55476  11.717  11.795   2.627 -0.0314 -0.0217  0.5477
81166SOL    HW155477  11.806  11.802   2.593 -0.5652 -0.5159 -1.0359
81166SOL    HW255478  11.692  11.885   2.650  0.7528  0.1543  0.7363
81167SOL     OW55479   2.840   5.295   4.506  0.0766 -1.1795  0.1659
81167SOL    HW155480   2.816   5.256   4.422  0.7837  0.5793 -0.9012
81167SOL    HW255481   2.764   5.345   4.532  0.3654 -0.5608 -0.1606
81168SOL     OW55482  10.754   7.908  12.633  0.1148 -0.1345  1.0903
81168SOL    HW155483  10.695   7.851  12.682 -2.2412 -1.4711 -2.8653
81168SOL    HW255484  10.706   7.931  12.554  2.5553  4.1125  0.4984
81169SOL     OW55485  11.763   3.007  11.900 -0.0385  0.1728 -0.0130
81169SOL    HW155486  11.832   3.009  11.966  1.0571  0.9075 -1.1135
81169SOL    HW255487  11.765   3.095  11.861 -1.7106  0.2573  0.0237
81170SOL     OW55488   0.796  10.456  13.516  0.1233  0.4149  0.1779
81170SOL    HW155489   0.817  10.547  13.498  0.6980 -0.0940 -1.8894
81170SOL    HW255490   0.704  10.447  13.491 -0.5156  0.8119  2.1394
81171SOL     OW55491  11.151   8.846   5.997 -0.2874 -0.2499  0.5207
81171SOL    HW155492  11.122   8.937   5.997  1.0375  0.2222 -1.0501
81171SOL    HW255493  11.140   8.818   5.906  1.6122 -0.8593  0.4535
81172SOL     OW55494   2.417  13.539   6.532 -0.9304 -0.0733  0.0434
81172SOL    HW155495   2.353  13.552   6.603  1.0753  0.7009  1.8356
81172SOL    HW255496   2.422  13.444   6.521 -3.0610 -0.1342 -0.8558
81173SOL     OW55497  13.371  10.647   3.526 -0.4073  0.2679 -0.0973
81173SOL    HW155498  13.291  10.611   3.564 -0.5535 -0.2947 -0.9238
81173SOL    HW255499  13.394  10.586   3.456  0.6416  0.5246  0.0076
81174SOL     OW55500  12.170   6.971   8.566  0.6102 -0.7146 -0.9528
81174SOL    HW155501  12.142   7.017   8.487 -0.6047 -0.7353 -0.5561
81174SOL    HW255502  12.194   7.042   8.627 -0.5066 -0.6095 -0.6148
81175SOL     OW55503   9.238   8.504   3.611  0.4028  0.0739  0.1619
81175SOL    HW155504   9.181   8.483   3.537 -1.9347  0.1252  1.8439
81175SOL    HW255505   9.201   8.584   3.649  1.5910  0.1102  1.3264
81176SOL     OW55506   8.842   3.914   9.790 -0.3274 -0.0063 -0.3721
81176SOL    HW155507   8.772   3.904   9.726 -0.7125 -0.4296  0.0997
81176SOL    HW255508   8.819   3.853   9.860  0.6307 -0.3151 -0.3088
81177SOL     OW55509   3.469   0.815  10.067 -0.0321 -0.4139 -0.2698
81177SOL    HW155510   3.470   0.783   9.977  2.6278 -2.7998  0.4476
81177SOL    HW255511   3.407   0.757  10.112  0.8068 -1.1771 -0.0507
81178SOL     OW55512   0.736   9.547  13.199 -0.3929  0.3787 -1.0689
81178SOL    HW155513   0.760   9.638  13.216 -0.1988  0.4131 -1.4934
81178SOL    HW255514   0.806   9.515  13.141 -0.4456 -0.0458 -0.8998
81179SOL     OW55515   8.823   4.433   3.852 -0.1001  0.1459  0.3232
81179SOL    HW155516   8.785   4.347   3.838  1.2640 -0.2229 -1.5500
81179SOL    HW255517   8.816   4.448   3.946 -1.4012 -1.4881  0.5250
81180SOL     OW55518  11.579  10.326  11.257  0.2682  0.3013 -0.0032
81180SOL    HW155519  11.581  10.398  11.319  1.8839  1.8789 -1.7614
81180SOL    HW255520  11.622  10.254  11.302  1.0769  1.2783  0.8322
81181SOL     OW55521   4.297   1.348   4.413 -0.2028 -0.1560 -0.5084
81181SOL    HW155522   4.271   1.439   4.397 -1.3046 -0.0848  1.3942
81181SOL    HW255523   4.392   1.352   4.423 -0.3322  0.9856  0.5506
81182SOL     OW55524   3.660  12.238   7.932  0.0458  0.4096  0.1102
81182SOL    HW155525   3.570  12.212   7.954  0.6656 -1.6323  0.4859
81182SOL    HW255526   3.658  12.248   7.837 -0.1373 -1.7908 -0.1740
81183SOL     OW55527   8.487   6.459   1.849  0.3967 -0.5594 -0.4300
81183SOL    HW155528   8.427   6.440   1.777 -1.7301  0.0436  1.0817
81183SOL    HW255529   8.455   6.542   1.885  1.2009 -0.9966  1.3929
81184SOL     OW55530  11.515   1.331   3.808 -0.0761  0.1974  0.4978
81184SOL    HW155531  11.518   1.368   3.896 -0.5115 -0.4867  0.8041
81184SOL    HW255532  11.505   1.408   3.751 -2.3470  0.5131  1.2096
81185SOL     OW55533   8.939  13.712   4.033  0.5126  0.5590  0.5956
81185SOL    HW155534   8.879  13.638   4.049  0.5451  0.4433  0.1791
81185SOL    HW255535   8.882  13.789   4.030  0.4723  0.5464  0.9869
81186SOL     OW55536   4.439  13.611   7.689 -0.4618  0.2063  0.0841
81186SOL    HW155537   4.421  13.521   7.716  1.5533 -0.3839 -0.3450
81186SOL    HW255538   4.382  13.626   7.614  0.3698 -1.3743 -0.9472
81187SOL     OW55539  12.417   8.252   7.535 -0.1973 -0.4238 -0.3411
81187SOL    HW155540  12.393   8.316   7.601 -2.4965 -1.0844 -0.4477
81187SOL    HW255541  12.498   8.212   7.568  0.0095  0.9100  0.8369
81188SOL     OW55542   6.259   0.047   7.044 -0.2159 -0.3173 -0.0231
81188SOL    HW155543   6.347   0.067   7.075 -0.0007 -0.0870 -0.7599
81188SOL    HW255544   6.204   0.116   7.080  0.2300  0.6324 -1.0985
81189SOL     OW55545   1.703   1.609   3.971  0.2132 -0.0440  0.3385
81189SOL    HW155546   1.755   1.542   4.016 -0.0635 -0.5697 -0.1092
81189SOL    HW255547   1.690   1.575   3.883  0.6974  0.9500 -0.1329
81190SOL     OW55548  12.242   8.677   8.642  0.2320  0.4411  0.0792
81190SOL    HW155549  12.298   8.707   8.570 -1.4218  3.1320 -0.2131
81190SOL    HW255550  12.269   8.729   8.717 -0.5547  0.3852  0.4136
81191SOL     OW55551   7.953   5.721  11.336  0.4075 -0.6203  0.0222
81191SOL    HW155552   7.956   5.728  11.240  0.6845  1.0345  0.1267
81191SOL    HW255553   7.880   5.661  11.353  0.4306 -1.0357 -1.2226
81192SOL     OW55554  10.190   1.345   0.359  0.0518  0.0017 -0.0605
81192SOL    HW155555  10.188   1.291   0.439  0.3225  1.3418  0.8915
81192SOL    HW255556  10.100   1.377   0.350 -0.0654 -0.4543 -0.5151
81193SOL     OW55557  13.824  11.602   8.575  0.0227  0.0384 -0.2102
81193SOL    HW155558  13.853  11.511   8.564 -0.5259 -0.3163  1.0487
81193SOL    HW255559  13.756  11.597   8.642  0.9988  1.5725  0.9525
81194SOL     OW55560  11.948   9.625   7.605  0.1695  0.0015 -0.2075
81194SOL    HW155561  11.856   9.643   7.586 -0.2205  0.2974  1.7388
81194SOL    HW255562  11.990   9.711   7.611  0.1264 -0.0372  0.8414
81195SOL     OW55563   4.616   9.231   4.579 -0.2394 -0.5864 -0.7638
81195SOL    HW155564   4.612   9.289   4.503  1.7050 -1.2649 -1.4498
81195SOL    HW255565   4.683   9.166   4.556 -1.2089 -2.1652  0.6289
81196SOL     OW55566   4.609   2.551  11.171 -0.2283 -0.2906  0.1608
81196SOL    HW155567   4.536   2.490  11.164 -1.6854  1.3436  0.2428
81196SOL    HW255568   4.610   2.578  11.263 -1.5600  1.9585 -0.3933
81197SOL     OW55569   9.051   5.082   1.799  0.3576 -0.3134  0.0185
81197SOL    HW155570   9.096   5.113   1.721 -0.1989 -0.9422 -0.5601
81197SOL    HW255571   9.113   5.023   1.841 -0.0307 -1.4504 -0.9602
81198SOL     OW55572  13.131  12.550   1.675  0.2163 -0.1845 -0.1005
81198SOL    HW155573  13.155  12.630   1.722 -1.5748 -0.1869  0.9118
81198SOL    HW255574  13.193  12.545   1.602  1.4033  1.2313  0.7664
81199SOL     OW55575   2.618   1.367  12.602  0.6494  0.5578 -0.6035
81199SOL    HW155576   2.579   1.425  12.667  0.6785  0.0045 -0.0737
81199SOL    HW255577   2.552   1.360  12.533 -0.5439 -0.9316  0.6146
81200SOL     OW55578  10.924   4.384   8.706  0.5689 -0.3617 -0.2081
81200SOL    HW155579  10.980   4.418   8.636  2.2632 -0.5581  1.0022
81200SOL    HW255580  10.982   4.329   8.758 -0.6312 -0.1261  1.4267
81201SOL     OW55581   4.522   6.934   8.182 -0.3868 -0.2720 -0.1140
81201SOL    HW155582   4.500   7.020   8.219 -1.6236 -0.4858 -0.3412
81201SOL    HW255583   4.466   6.872   8.229 -1.6029 -0.6150 -1.9259
81202SOL     OW55584   8.352  12.950   8.884 -0.3705  0.1957 -0.1774
81202SOL    HW155585   8.294  12.964   8.958 -0.5554  0.2186 -0.3258
81202SOL    HW255586   8.348  12.855   8.868  0.2790  0.0681  0.3366
81203SOL     OW55587   5.850   4.447   5.517 -0.0193  0.0103 -0.8034
81203SOL    HW155588   5.822   4.357   5.535  0.1526  0.3938  1.8283
81203SOL    HW255589   5.862   4.485   5.604  0.1714  2.5096 -1.8642
81204SOL     OW55590   8.448   1.295  10.569  0.1063  0.0368  0.0413
81204SOL    HW155591   8.483   1.374  10.528  0.5094 -0.6733 -1.0184
81204SOL    HW255592   8.423   1.239  10.495 -2.0281 -0.0354  0.7472
81205SOL     OW55593   7.204   4.089   3.575  0.1228 -0.1092  0.4913
81205SOL    HW155594   7.198   3.996   3.597  1.7897 -0.8777 -1.9749
81205SOL    HW255595   7.259   4.127   3.643  0.2109 -1.1111  0.9853
81206SOL     OW55596   3.303   3.748   7.620 -0.0566 -0.4180  0.5103
81206SOL    HW155597   3.284   3.694   7.544  1.4967  1.7658 -1.5861
81206SOL    HW255598   3.217   3.780   7.648 -0.5888 -0.3769 -1.0708
81207SOL     OW55599   1.220   2.669  13.431 -0.1812  1.1633 -0.5358
81207SOL    HW155600   1.136   2.644  13.470 -1.4222  3.5546 -1.4576
81207SOL    HW255601   1.279   2.681  13.505 -0.3160 -1.4304  0.0865
81208SOL     OW55602   8.539   9.890   5.631  0.1548  0.7426  0.1771
81208SOL    HW155603   8.557   9.802   5.600  0.4749  0.8598  0.0256
81208SOL    HW255604   8.596   9.901   5.707 -0.8341  0.3525  1.0033
81209SOL     OW55605   1.129   7.271   8.282 -0.1893 -0.1525 -0.0605
81209SOL    HW155606   1.181   7.318   8.217 -0.9106  1.3188  0.3986
81209SOL    HW255607   1.166   7.296   8.366 -0.4889 -0.5414  0.1931
81210SOL     OW55608   3.991   9.303  10.336  0.3676  0.1116 -0.1117
81210SOL    HW155609   4.086   9.294  10.343  0.5282  1.6291 -0.0999
81210SOL    HW255610   3.966   9.355  10.412 -0.0569  2.1719 -1.5660
81211SOL     OW55611  10.703   3.280  13.535 -0.1042 -0.2158  0.4134
81211SOL    HW155612  10.791   3.313  13.515 -0.5973  0.8208 -0.1520
81211SOL    HW255613  10.692   3.204  13.479 -0.4936  1.1339 -1.4405
81212SOL     OW55614  10.793  10.222   0.972 -0.8144 -0.2561  0.1459
81212SOL    HW155615  10.872  10.213   0.919 -0.9100  0.1737 -0.0745
81212SOL    HW255616  10.782  10.137   1.014 -0.9876 -0.7429 -0.8716
81213SOL     OW55617  13.518  11.054   8.996 -0.0899  0.3077  0.5823
81213SOL    HW155618  13.609  11.035   9.020 -0.1910 -3.5840 -1.2735
81213SOL    HW255619  13.524  11.105   8.916  0.5077 -0.5188  0.0863
81214SOL     OW55620   0.586  11.056   7.472 -0.2043  0.1759  0.0702
81214SOL    HW155621   0.526  11.066   7.545 -0.7774  2.1750 -0.6113
81214SOL    HW255622   0.665  11.102   7.499 -1.4533  3.6146 -1.5914
81215SOL     OW55623  10.984   3.797   7.712 -0.5806 -0.3347 -0.0591
81215SOL    HW155624  10.910   3.746   7.681 -1.0901 -0.0646  0.6748
81215SOL    HW255625  11.059   3.766   7.661 -0.4397 -3.3090  1.7043
81216SOL     OW55626   0.908  13.059  10.874 -0.8676 -0.1039  0.1975
81216SOL    HW155627   0.926  13.090  10.963 -2.7176  0.0612  0.5504
81216SOL    HW255628   0.814  13.070  10.863 -0.5250  1.0496 -2.2456
81217SOL     OW55629   4.987   0.865   3.452  0.7993 -0.3182 -0.1286
81217SOL    HW155630   5.059   0.927   3.468  0.4123 -0.0257  0.5065
81217SOL    HW255631   4.943   0.900   3.374  0.0917  0.6692  0.7006
81218SOL     OW55632   8.944   1.712   6.256  0.1686 -0.4490  0.3964
81218SOL    HW155633   8.898   1.752   6.329  0.7984 -0.3492  0.7510
81218SOL    HW255634   9.037   1.728   6.275  0.2953  1.0721 -1.2739
81219SOL     OW55635  14.021   1.605  12.375 -0.2482 -0.4119  0.1801
81219SOL    HW155636  14.105   1.625  12.416 -0.7853 -2.0437  2.2066
81219SOL    HW255637  14.040   1.533  12.315  0.1345  0.6119 -0.9914
81220SOL     OW55638  10.534   0.350   0.834 -0.3668  0.4678  0.0728
81220SOL    HW155639  10.488   0.267   0.822 -0.3554  0.3884  0.5542
81220SOL    HW255640  10.479   0.400   0.894 -0.2148  0.6807  0.0379
81221SOL     OW55641  12.184   6.679   8.831 -0.3853 -0.7806 -0.5068
81221SOL    HW155642  12.244   6.604   8.829  0.3932 -0.1510 -2.2048
81221SOL    HW255643  12.241   6.755   8.829 -1.2088 -0.1360  0.0052
81222SOL     OW55644   6.538   2.157   4.354 -0.2491 -0.5147  0.0211
81222SOL    HW155645   6.562   2.247   4.332 -0.5446 -0.3434  0.3890
81222SOL    HW255646   6.443   2.155   4.341 -0.3682 -0.5266  0.8921
81223SOL     OW55647   5.938   0.785  10.274 -0.7002 -0.2665  0.9466
81223SOL    HW155648   5.918   0.866  10.225 -1.3510  0.1832  1.9211
81223SOL    HW255649   5.989   0.732  10.212 -0.9956  0.5249 -0.0155
81224SOL     OW55650   2.261  11.828  13.579  0.0440 -0.0212  0.4017
81224SOL    HW155651   2.255  11.738  13.550  0.7410 -0.1130  0.5314
81224SOL    HW255652   2.222  11.827  13.667  1.2942 -0.4889  0.9845
81225SOL     OW55653   3.811   1.051   9.778 -0.1514 -0.4048 -0.2135
81225SOL    HW155654   3.752   1.109   9.825 -0.6931  0.0107 -1.3622
81225SOL    HW255655   3.829   0.980   9.839 -0.8822  0.0774  0.5803
81226SOL     OW55656  13.066   5.420   8.674  0.1121  0.3973 -0.4297
81226SOL    HW155657  12.984   5.465   8.653  0.6569  1.5351 -0.1782
81226SOL    HW255658  13.109   5.407   8.589 -0.0543  0.3362 -0.5042
81227SOL     OW55659  10.785   7.397   1.629  0.3639 -0.1243 -0.2002
81227SOL    HW155660  10.755   7.327   1.572  0.9543 -0.7912  0.2866
81227SOL    HW255661  10.711   7.417   1.686  0.3381 -0.6801 -0.0360
81228SOL     OW55662   3.066   7.737   4.198 -0.1303 -0.0636 -0.0284
81228SOL    HW155663   3.006   7.811   4.209 -0.8349 -0.7888  1.2636
81228SOL    HW255664   3.137   7.772   4.145 -0.5679  1.4735  0.3336
81229SOL     OW55665   9.905   4.908  10.461 -0.2800  0.0706 -0.4471
81229SOL    HW155666   9.903   4.867  10.547  0.3553 -0.7161 -0.7975
81229SOL    HW255667   9.863   4.993  10.474 -1.7652 -0.7233  0.2650
81230SOL     OW55668   2.707  13.804   3.362 -0.4270  0.2370  0.3429
81230SOL    HW155669   2.742  13.861   3.430 -0.2312 -0.3904  0.7699
81230SOL    HW255670   2.711  13.857   3.282 -0.7032  0.9942  0.8171
81231SOL     OW55671   0.714  12.468   7.244 -0.3495 -0.3538 -0.1042
81231SOL    HW155672   0.668  12.486   7.162 -1.7872 -1.7668  0.3532
81231SOL    HW255673   0.803  12.501   7.229 -0.6092 -0.4718 -2.1680
81232SOL     OW55674   0.295   4.829   8.108  0.0557 -0.4408 -0.6418
81232SOL    HW155675   0.333   4.805   8.193 -1.4797 -1.0032 -0.0908
81232SOL    HW255676   0.292   4.747   8.060  0.5305 -0.1959 -1.0964
81233SOL     OW55677  11.007   8.274   8.350 -0.4041 -0.2554  0.9017
81233SOL    HW155678  11.096   8.306   8.367  0.4808 -0.5306 -2.4175
81233SOL    HW255679  11.016   8.178   8.351 -1.1640 -0.3356  2.5123
81234SOL     OW55680   5.928   7.298   5.040  0.1053 -0.1308 -0.6694
81234SOL    HW155681   5.943   7.388   5.068  0.9407 -0.3434 -0.3816
81234SOL    HW255682   5.855   7.268   5.093  1.0988 -0.2415  0.7060
81235SOL     OW55683   7.143   1.717   8.230 -0.2686 -0.0744  0.2137
81235SOL    HW155684   7.057   1.691   8.198  0.3222 -1.8645 -0.0166
81235SOL    HW255685   7.128   1.747   8.319 -1.4967  2.1913 -0.6816
81236SOL     OW55686   9.375   2.015   2.954  0.9964 -0.6917  0.4577
81236SOL    HW155687   9.316   1.942   2.934 -0.5859  0.2256  1.4920
81236SOL    HW255688   9.362   2.076   2.881 -1.2299  0.5573  1.7606
81237SOL     OW55689   8.655   3.887   4.634  0.1946  0.0480 -0.0298
81237SOL    HW155690   8.714   3.951   4.674  0.3250 -0.2252  0.2215
81237SOL    HW255691   8.679   3.887   4.542 -0.3821  0.9823 -0.1903
81238SOL     OW55692   1.374   9.398  12.643  0.1197 -0.2348  0.5932
81238SOL    HW155693   1.459   9.379  12.683 -0.7412 -0.7944  2.2111
81238SOL    HW255694   1.322   9.320  12.659 -0.9999  0.4646  0.4438
81239SOL     OW55695   3.540  10.254   6.577 -0.2497  0.0668  0.0122
81239SOL    HW155696   3.502  10.319   6.637  0.2734  0.5932 -0.2221
81239SOL    HW255697   3.572  10.305   6.503  0.7976 -0.3869  0.1437
81240SOL     OW55698   5.137   9.276   3.738 -0.1884 -0.2760 -0.1030
81240SOL    HW155699   5.051   9.272   3.697 -0.6943 -0.4840  0.9438
81240SOL    HW255700   5.199   9.284   3.665 -1.1982  1.7314 -0.8147
81241SOL     OW55701  12.276   0.369   9.580 -0.0686  0.0984 -0.6344
81241SOL    HW155702  12.336   0.368   9.655  1.1496 -0.3569 -1.5736
81241SOL    HW255703  12.244   0.459   9.575 -0.3798  0.0722  0.5759
81242SOL     OW55704   8.026   7.892   9.220 -0.7316  0.1064  0.0054
81242SOL    HW155705   8.029   7.800   9.246 -1.9914  0.2334  0.6921
81242SOL    HW255706   8.116   7.913   9.195 -0.3957 -1.2568  0.0086
81243SOL     OW55707  13.725   9.415  12.262 -0.4908 -1.4340 -0.1958
81243SOL    HW155708  13.652   9.353  12.259 -0.3205 -1.8272  2.2145
81243SOL    HW255709  13.686   9.496  12.293 -0.7367 -0.1475 -3.4459
81244SOL     OW55710   5.420  11.880   4.968 -0.3310 -0.4182 -0.3490
81244SOL    HW155711   5.357  11.837   4.911 -0.1543  0.2218 -1.0406
81244SOL    HW255712   5.474  11.932   4.909 -0.5007  0.6953  0.4432
81245SOL     OW55713   1.239   4.874   0.671 -0.3028  0.6801  0.0521
81245SOL    HW155714   1.294   4.935   0.720  0.3334 -0.1886  0.4519
81245SOL    HW255715   1.163   4.860   0.728  0.5188 -0.4646  0.9064
81246SOL     OW55716   4.352   2.878   1.333 -0.1571  0.3234  0.3126
81246SOL    HW155717   4.307   2.952   1.375  0.1957  0.8900 -0.2989
81246SOL    HW255718   4.291   2.850   1.264  0.6311  1.4468 -0.8843
81247SOL     OW55719  11.910   5.391   1.234 -0.0743  0.0192 -0.5496
81247SOL    HW155720  11.867   5.309   1.255 -1.1289  0.6006 -0.3639
81247SOL    HW255721  11.992   5.365   1.192  0.2723 -1.1250  0.7605
81248SOL     OW55722   0.265   7.801   3.588  0.4731  0.1981 -0.0435
81248SOL    HW155723   0.278   7.816   3.494  0.4806 -3.3846 -0.7613
81248SOL    HW255724   0.351   7.819   3.627  0.7687  0.6613 -0.8622
81249SOL     OW55725   2.043   4.574   2.314 -0.3058  0.8383 -0.4764
81249SOL    HW155726   1.988   4.525   2.253 -1.7925  0.3821  1.1498
81249SOL    HW255727   2.129   4.534   2.306 -0.9946 -0.6728 -0.7150
81250SOL     OW55728   2.229   4.000  13.872 -0.7182 -0.4023 -0.4510
81250SOL    HW155729   2.223   3.911  13.838  0.2920 -0.6548 -0.0033
81250SOL    HW255730   2.207   3.991  13.965  1.8623 -0.6414  0.2038
81251SOL     OW55731   6.101  10.979   6.077  0.0392 -0.1692 -0.0894
81251SOL    HW155732   6.169  11.022   6.025  0.6459 -1.1555 -0.1414
81251SOL    HW255733   6.024  11.035   6.068  0.5139  0.3512 -0.9966
81252SOL     OW55734   0.349   7.577   1.222  0.1965  0.0721  0.1782
81252SOL    HW155735   0.410   7.517   1.264  0.8606  2.9590  3.8781
81252SOL    HW255736   0.395   7.608   1.144  0.2420 -3.1938 -1.2218
81253SOL     OW55737   1.055  11.644   2.109 -0.4251 -0.9125 -0.2183
81253SOL    HW155738   1.015  11.617   2.026 -2.0699  1.4421 -0.3107
81253SOL    HW255739   1.057  11.565   2.161 -0.8931 -2.1185 -1.9321
81254SOL     OW55740   0.852   2.112   9.519  0.4326 -0.0668 -0.2228
81254SOL    HW155741   0.897   2.189   9.554 -0.8695  0.2926  0.7272
81254SOL    HW255742   0.760   2.137   9.517  0.0400 -1.4586 -0.3180
81255SOL     OW55743  13.887  13.902  13.876  0.4185 -0.3857  0.3590
81255SOL    HW155744  13.793  13.907  13.865  0.3817  0.3463  0.9348
81255SOL    HW255745  13.923  13.945  13.798  0.2270  1.1742  1.0831
81256SOL     OW55746   6.126   4.410   3.911  0.4317  0.1318  0.0234
81256SOL    HW155747   6.078   4.413   3.829 -0.6918 -0.5237  0.6323
81256SOL    HW255748   6.134   4.316   3.931  2.3833  0.1960 -0.2816
81257SOL     OW55749   0.865   8.073   0.662 -0.4056  0.0962  0.2564
81257SOL    HW155750   0.839   7.982   0.648 -0.7501  0.1879  0.2936
81257SOL    HW255751   0.783   8.121   0.665 -0.2810  0.2621  1.3148
81258SOL     OW55752   4.467   9.775   2.656  0.0354 -0.4063  0.0499
81258SOL    HW155753   4.499   9.797   2.568 -2.1014 -0.6964 -0.8501
81258SOL    HW255754   4.490   9.683   2.667  1.2886 -0.0842  0.2755
81259SOL     OW55755  10.977  12.500  13.118 -0.9461 -0.2625 -0.6535
81259SOL    HW155756  11.053  12.536  13.164  0.0490 -1.1906 -1.5025
81259SOL    HW255757  10.987  12.531  13.028 -2.2567  0.6076 -0.5263
81260SOL     OW55758   6.428   2.495   5.218 -0.3230  0.1112  0.7577
81260SOL    HW155759   6.382   2.508   5.134 -0.7741 -1.0921  0.8025
81260SOL    HW255760   6.395   2.566   5.274 -2.2480 -0.7490  0.8146
81261SOL     OW55761   4.161   2.166   0.668  0.2111  0.8547 -0.3967
81261SOL    HW155762   4.099   2.114   0.617  0.0996  0.6516 -0.0515
81261SOL    HW255763   4.246   2.130   0.645  0.2370  1.3741 -1.1551
81262SOL     OW55764   1.062   2.411   2.226 -0.1906 -0.2187  0.0645
81262SOL    HW155765   1.135   2.364   2.267  1.1873  0.7681 -1.1750
81262SOL    HW255766   0.984   2.377   2.270  1.0881 -0.2793  2.4371
81263SOL     OW55767  13.735   5.633   7.109  0.1974 -0.4891  0.1855
81263SOL    HW155768  13.759   5.725   7.101  0.5231 -0.4774  1.2187
81263SOL    HW255769  13.667   5.620   7.042 -1.0028  0.8833  1.0914
81264SOL     OW55770   5.780   0.549   6.650  0.5942  0.1483 -0.5013
81264SOL    HW155771   5.808   0.631   6.692  0.1175 -0.0181  0.1701
81264SOL    HW255772   5.814   0.481   6.708  1.2427 -0.1436 -1.2179
81265SOL     OW55773   7.293   7.267   2.866  0.1908 -0.2544 -0.1909
81265SOL    HW155774   7.367   7.327   2.861  1.2012 -1.5674 -1.7408
81265SOL    HW255775   7.237   7.292   2.793  0.6632 -1.2180 -0.9035
81266SOL     OW55776  10.251  11.411  10.588  0.9487  0.3305 -0.1549
81266SOL    HW155777  10.161  11.442  10.591  0.5534 -0.5560 -1.8659
81266SOL    HW255778  10.300  11.474  10.641 -0.8186  0.2021  1.7554
81267SOL     OW55779  11.578   6.043   3.805 -0.6554 -0.1449 -0.2515
81267SOL    HW155780  11.545   5.957   3.780 -1.1242 -0.0464  0.0290
81267SOL    HW255781  11.527   6.068   3.882 -0.2657  0.2211 -0.1025
81268SOL     OW55782  10.242  13.143   3.344  0.3249 -0.5975 -0.5520
81268SOL    HW155783  10.290  13.075   3.297 -1.8770 -1.3372 -1.9050
81268SOL    HW255784  10.201  13.196   3.275  0.7176  1.1965  0.5026
81269SOL     OW55785   8.000   2.050   3.352 -0.7344  0.4760 -0.1020
81269SOL    HW155786   7.948   1.990   3.297  0.6240 -1.1394  0.2937
81269SOL    HW255787   8.084   2.056   3.307 -0.0225  0.1073  1.1547
81270SOL     OW55788  12.194   0.563   5.338 -0.0729  0.1999  0.5832
81270SOL    HW155789  12.130   0.546   5.269 -0.2579  1.1152  0.5144
81270SOL    HW255790  12.242   0.640   5.307 -0.6371  1.0699  1.8029
81271SOL     OW55791  13.090   6.598   5.282 -0.0352 -0.3589  0.0477
81271SOL    HW155792  13.154   6.653   5.236  0.0621  0.9702  1.7097
81271SOL    HW255793  13.005   6.632   5.255  0.0048 -0.2392  0.0698
81272SOL     OW55794  13.461   1.239  10.581  0.2149 -0.2787  0.0367
81272SOL    HW155795  13.458   1.187  10.500  0.4590  0.1324 -0.2428
81272SOL    HW255796  13.480   1.328  10.551 -2.7372  0.5411  0.2591
81273SOL     OW55797   9.673   5.644   2.571 -0.2346 -0.3171 -0.2154
81273SOL    HW155798   9.636   5.706   2.507 -1.9178 -0.3252  0.6891
81273SOL    HW255799   9.619   5.565   2.561  0.3942 -0.8136  0.2497
81274SOL     OW55800   2.323   7.629   3.678  0.2616  0.0686  0.1391
81274SOL    HW155801   2.393   7.608   3.616 -0.8081 -0.1523 -1.0378
81274SOL    HW255802   2.368   7.642   3.761  1.5135 -2.1064 -0.1086
81275SOL     OW55803   5.104   1.437   6.006 -0.7149  0.5656 -0.7926
81275SOL    HW155804   5.187   1.457   6.050 -1.2037 -0.1574  0.5135
81275SOL    HW255805   5.039   1.442   6.075 -1.9187  1.9405 -1.9562
81276SOL     OW55806   6.899  12.528   1.522 -0.4208 -0.6363  0.5170
81276SOL    HW155807   6.917  12.475   1.444 -0.9761 -0.6121  0.3720
81276SOL    HW255808   6.851  12.604   1.489 -2.0743 -1.3988  1.0756
81277SOL     OW55809   7.859  12.811   7.157  0.2603  0.5123  0.1862
81277SOL    HW155810   7.796  12.851   7.097  0.9827  0.9769 -0.2731
81277SOL    HW255811   7.895  12.885   7.207  0.3507  0.2374  0.5300
81278SOL     OW55812  12.530   6.156   1.968 -0.2983 -0.4678  0.3472
81278SOL    HW155813  12.598   6.105   1.924  0.1630 -1.0051  1.6347
81278SOL    HW255814  12.574   6.236   1.996  0.0730 -1.2080  1.9761
81279SOL     OW55815   8.126   3.896  11.807  0.1909  0.0773  0.3191
81279SOL    HW155816   8.088   3.825  11.859  0.3015  0.0754  0.3982
81279SOL    HW255817   8.131   3.969  11.868 -1.3419  0.6234 -0.1682
81280SOL     OW55818   8.581   1.680   6.884 -0.1396  0.5012 -0.2813
81280SOL    HW155819   8.584   1.687   6.789  1.6679  1.0355 -0.2153
81280SOL    HW255820   8.495   1.641   6.902 -0.0459 -0.7232 -2.1855
81281SOL     OW55821  13.236   6.997   3.101 -0.0615  0.0072 -0.3560
81281SOL    HW155822  13.145   7.011   3.127 -0.1068  1.6402 -1.2647
81281SOL    HW255823  13.281   7.078   3.124  1.1919 -0.7805  0.0934
81282SOL     OW55824   9.489   2.867  13.697 -0.9593 -0.0656 -0.3457
81282SOL    HW155825   9.523   2.947  13.738  0.3211  0.4745 -2.3013
81282SOL    HW255826   9.516   2.797  13.756 -0.9814  0.8126  0.7575
81283SOL     OW55827   0.856  12.101  10.190  0.1836  0.2337  0.2655
81283SOL    HW155828   0.906  12.172  10.229  0.8140 -0.8989  1.5752
81283SOL    HW255829   0.765  12.130  10.195  0.4638  1.0882  0.4594
81284SOL     OW55830  11.100  12.234  13.283 -0.4176  0.0195 -0.3793
81284SOL    HW155831  11.125  12.298  13.215 -1.0233  3.0945  2.0592
81284SOL    HW255832  11.183  12.195  13.310  0.0083 -0.1485 -1.8088
81285SOL     OW55833  13.746   6.612  12.110  0.6183  0.3475 -0.4894
81285SOL    HW155834  13.794   6.576  12.035  1.0838  0.3519 -0.1979
81285SOL    HW255835  13.803   6.596  12.185 -0.8188 -1.7676  0.2495
81286SOL     OW55836   2.800   9.736   1.443 -0.1347  0.6627  0.1776
81286SOL    HW155837   2.803   9.753   1.537 -0.1770 -0.5100  0.4096
81286SOL    HW255838   2.719   9.686   1.431 -0.1552  0.8525 -0.4867
81287SOL     OW55839  12.312   0.474   8.939 -0.2285  0.5402  0.8268
81287SOL    HW155840  12.332   0.384   8.915 -0.9069  0.1995  1.5137
81287SOL    HW255841  12.255   0.467   9.016 -0.2910  1.5509  0.8918
81288SOL     OW55842  12.188   9.285  11.771  0.2003 -0.5716 -0.3491
81288SOL    HW155843  12.241   9.210  11.743 -0.2519 -1.2172  0.4619
81288SOL    HW255844  12.214   9.299  11.863  1.5125  1.3702 -0.9544
81289SOL     OW55845  10.410  13.197   6.678  0.2659 -0.3213  0.3047
81289SOL    HW155846  10.431  13.240   6.595 -0.0919  0.9334  0.8329
81289SOL    HW255847  10.325  13.155   6.663 -1.7279  3.0437  1.0344
81290SOL     OW55848   5.929   1.348   3.552 -0.0891  0.0108 -0.5735
81290SOL    HW155849   5.849   1.296   3.539  0.4766 -0.4290 -2.4997
81290SOL    HW255850   5.976   1.341   3.470  2.5096 -0.6744  0.8641
81291SOL     OW55851   5.080   8.727  13.367  0.1535  0.4495 -0.0481
81291SOL    HW155852   5.109   8.646  13.409  0.0725  0.1213 -0.6142
81291SOL    HW255853   5.120   8.797  13.419  0.5442  0.0360  0.2119
81292SOL     OW55854  10.063   2.190   0.651  0.7926  0.1762 -0.0609
81292SOL    HW155855  10.007   2.115   0.630 -0.6012  0.7537  1.3244
81292SOL    HW255856  10.070   2.187   0.747  2.5224  0.5856 -0.1532
81293SOL     OW55857   9.400   6.549   6.807  0.1937  0.5093 -0.5441
81293SOL    HW155858   9.310   6.534   6.779  0.6745 -2.3786 -0.8290
81293SOL    HW255859   9.454   6.499   6.745  1.8421  0.5785  0.7478
81294SOL     OW55860  10.801  10.375   0.342  0.2833  0.2374  0.2578
81294SOL    HW155861  10.822  10.283   0.362 -1.9136 -0.4341 -0.2664
81294SOL    HW255862  10.785  10.414   0.428 -3.0808 -1.0780  0.4011
81295SOL     OW55863   2.952  11.123   3.161 -0.0103 -0.5412  0.5959
81295SOL    HW155864   2.956  11.208   3.116 -0.5817 -1.4031 -1.1620
81295SOL    HW255865   3.038  11.083   3.144 -0.7482 -1.5019 -1.1133
81296SOL     OW55866  13.392   9.264   6.722 -0.2703 -0.1746  0.1432
81296SOL    HW155867  13.460   9.286   6.786 -1.6455 -0.9120  1.9802
81296SOL    HW255868  13.380   9.169   6.733  1.0900 -0.8537 -2.9952
81297SOL     OW55869  10.629   1.093   8.085  0.6653 -1.0480  0.4630
81297SOL    HW155870  10.547   1.050   8.111  0.1883 -0.4299 -0.0024
81297SOL    HW255871  10.634   1.080   7.990 -1.0114  2.4172 -0.2259
81298SOL     OW55872  10.445   1.944  13.994  0.4094  0.2981  0.8592
81298SOL    HW155873  10.433   1.913  14.084  2.3808 -1.1844  0.6700
81298SOL    HW255874  10.513   2.012  14.001 -1.2661  2.0796  0.7681
81299SOL     OW55875   1.674  12.386  10.656 -0.5946  0.1107 -0.4234
81299SOL    HW155876   1.737  12.327  10.616 -0.8323 -0.2777 -0.2371
81299SOL    HW255877   1.671  12.358  10.748 -1.3998 -0.2045 -0.5369
81300SOL     OW55878   0.971   0.909   9.204  0.0474 -0.2615  0.4291
81300SOL    HW155879   1.056   0.868   9.219  0.3905  0.3257  0.1341
81300SOL    HW255880   0.936   0.924   9.292  0.5683  0.1458  0.5685
81301SOL     OW55881   8.899  10.020  13.983  0.1048  0.0830 -0.5801
81301SOL    HW155882   8.842  10.054  13.915  0.6347  0.5732 -0.7844
81301SOL    HW255883   8.975   9.986  13.935  0.5043  0.4798 -0.2376
81302SOL     OW55884   2.001   3.424   6.337 -0.2033  0.0476  0.4732
81302SOL    HW155885   2.074   3.365   6.356 -0.3580  0.1320  1.3945
81302SOL    HW255886   1.928   3.389   6.389 -0.7291  0.1513 -0.1874
81303SOL     OW55887   0.059   7.502  10.029 -0.2810 -0.0058  0.4118
81303SOL    HW155888   0.038   7.582   9.981 -1.2765 -0.2109  0.4973
81303SOL    HW255889   0.019   7.515  10.115 -0.9234 -0.8258  0.2443
81304SOL     OW55890   8.286   5.300  12.653  0.2277 -0.7480  0.0298
81304SOL    HW155891   8.208   5.291  12.599 -0.5008 -0.2780  0.9945
81304SOL    HW255892   8.289   5.393  12.676  1.3327 -0.6680 -0.3736
81305SOL     OW55893   0.515   2.541   0.539  0.3165  0.1843  0.0179
81305SOL    HW155894   0.532   2.520   0.631  2.7406  0.7465 -0.2286
81305SOL    HW255895   0.522   2.457   0.494  1.1753  0.1825  0.1261
81306SOL     OW55896   1.257  11.225   1.648  0.1605 -0.3287  0.2301
81306SOL    HW155897   1.168  11.195   1.628  0.1856 -0.7150  0.6597
81306SOL    HW255898   1.314  11.161   1.607  0.2085 -1.3283  1.7588
81307SOL     OW55899   6.945   5.325  12.222  0.2132  0.1011 -0.2051
81307SOL    HW155900   7.024   5.367  12.254  1.2677 -1.0261 -1.2004
81307SOL    HW255901   6.949   5.236  12.258  0.2664 -0.4708 -1.5479
81308SOL     OW55902   3.316   7.605  10.985 -0.6877 -0.3377  0.5589
81308SOL    HW155903   3.382   7.557  11.036 -0.9284 -0.0498  1.1529
81308SOL    HW255904   3.232   7.574  11.020 -0.8514  0.0654  0.5240
81309SOL     OW55905  13.783   5.389  10.038  0.5712  0.2743  0.2468
81309SOL    HW155906  13.807   5.435  10.119  1.1196 -0.2318  0.3795
81309SOL    HW255907  13.766   5.299  10.066 -2.6943  0.8218  0.3541
81310SOL     OW55908  12.877   0.510   6.788  0.2646  0.2044  0.1814
81310SOL    HW155909  12.799   0.469   6.751  1.1562 -0.3882 -1.1497
81310SOL    HW255910  12.846   0.560   6.863 -1.2652 -0.6813  0.1712
81311SOL     OW55911   6.311   8.251   1.524 -0.1845 -0.4422  0.7857
81311SOL    HW155912   6.383   8.297   1.565  0.4881 -1.0517  0.3213
81311SOL    HW255913   6.336   8.244   1.432 -0.8449 -0.6396  0.6114
81312SOL     OW55914   3.188   4.091  12.636 -0.6471  0.5417  0.4940
81312SOL    HW155915   3.126   4.125  12.701  1.2126  0.6684  2.3266
81312SOL    HW255916   3.269   4.137  12.655  0.7158 -1.5334 -0.0224
81313SOL     OW55917   3.695  12.725   1.563 -0.2609  0.1807 -0.5759
81313SOL    HW155918   3.617  12.670   1.575 -1.0791  1.5430  0.6898
81313SOL    HW255919   3.737  12.726   1.649  1.4834 -0.9579 -1.3787
81314SOL     OW55920  13.578   6.157   3.296 -0.3963 -0.6092  0.2723
81314SOL    HW155921  13.524   6.199   3.363 -0.1267 -1.6588  1.1647
81314SOL    HW255922  13.580   6.221   3.224 -3.7944 -0.9899 -0.3301
81315SOL     OW55923   1.089   1.783   3.693 -0.0416  0.1463 -0.0712
81315SOL    HW155924   1.132   1.722   3.634 -0.3691  0.9440 -1.1684
81315SOL    HW255925   1.155   1.851   3.709 -0.6069  1.0155 -1.2170
81316SOL     OW55926   6.167   7.828   7.930  0.3686  0.3752 -0.1380
81316SOL    HW155927   6.165   7.876   7.847 -2.0461  1.5132  0.4720
81316SOL    HW255928   6.145   7.894   7.996  1.1396 -0.7397  1.2771
81317SOL     OW55929  11.325   9.259  11.676  0.0843 -0.0903 -0.1279
81317SOL    HW155930  11.276   9.226  11.600 -0.7168  1.6578 -0.4237
81317SOL    HW255931  11.416   9.238  11.656 -0.3483 -2.1461 -0.2344
81318SOL     OW55932  13.184   1.225   5.796 -0.3438  0.1687 -0.4594
81318SOL    HW155933  13.132   1.145   5.802 -0.7848  0.5029  0.2732
81318SOL    HW255934  13.271   1.195   5.769  0.0615 -0.7991  1.6884
81319SOL     OW55935   6.282  10.068   3.745  0.2896 -0.5916  0.4274
81319SOL    HW155936   6.281   9.973   3.733  0.9537 -0.5934  0.3548
81319SOL    HW255937   6.366  10.087   3.786  0.4554  0.0372 -0.1726
81320SOL     OW55938   5.430  12.116   8.198 -0.1592 -0.3769  0.1016
81320SOL    HW155939   5.443  12.048   8.264  1.1671  0.2255  0.5086
81320SOL    HW255940   5.494  12.184   8.221 -2.2994  1.6365  0.5184
81321SOL     OW55941  13.905   3.519   6.856  0.1631 -0.1342  0.1213
81321SOL    HW155942  13.977   3.464   6.887  0.5196 -0.4634 -1.1972
81321SOL    HW255943  13.839   3.456   6.826  0.2331  0.1493 -0.6488
81322SOL     OW55944   6.307   9.981  12.916  0.6979  0.7232 -0.3486
81322SOL    HW155945   6.356  10.017  12.842  0.8935  3.0654  0.8168
81322SOL    HW255946   6.370   9.926  12.963  0.4719 -1.0629 -2.0570
81323SOL     OW55947   8.380   7.657   2.725 -0.4153  0.9404 -0.6672
81323SOL    HW155948   8.308   7.601   2.694  1.1057 -0.8957 -1.1027
81323SOL    HW255949   8.410   7.702   2.646 -0.1472  0.5686 -0.7802
81324SOL     OW55950   5.338   4.792   7.747  0.3236 -0.1646 -0.4771
81324SOL    HW155951   5.406   4.789   7.815  0.9184  0.8777 -1.0089
81324SOL    HW255952   5.256   4.775   7.794  0.9044 -1.1565  0.2193
81325SOL     OW55953  11.143   7.410   2.471 -0.1103 -0.1945 -0.0605
81325SOL    HW155954  11.226   7.413   2.520  0.3896  0.8682 -0.9301
81325SOL    HW255955  11.169   7.424   2.380 -0.9900 -2.4640 -0.7203
81326SOL     OW55956  13.291   7.300   0.752 -0.0734  0.0755 -0.3295
81326SOL    HW155957  13.291   7.384   0.706 -0.0549  0.5864  0.5833
81326SOL    HW255958  13.253   7.319   0.837  3.2892  0.0101  1.3457
81327SOL     OW55959   3.461  11.119  10.188  0.3501  0.1256 -0.2163
81327SOL    HW155960   3.409  11.198  10.177  0.1785 -0.1198 -1.3057
81327SOL    HW255961   3.399  11.048  10.168  0.8046 -0.2201 -0.4030
81328SOL     OW55962   1.820   2.404   0.428 -0.1980 -0.1319  0.0327
81328SOL    HW155963   1.864   2.427   0.346 -2.4363 -0.0662 -1.2504
81328SOL    HW255964   1.800   2.311   0.419 -2.4767  0.3389 -0.6331
81329SOL     OW55965  11.073   9.583  12.010  0.2055  0.2389 -0.0701
81329SOL    HW155966  11.011   9.567  11.939 -0.7412  0.8796  0.5950
81329SOL    HW255967  11.133   9.649  11.974  0.3883 -0.2283 -0.6450
81330SOL     OW55968   4.655   7.574   2.030 -0.5092 -0.0740  0.0858
81330SOL    HW155969   4.571   7.533   2.012 -1.5852  1.3654  1.5199
81330SOL    HW255970   4.693   7.591   1.944 -1.8751 -0.3870 -0.6001
81331SOL     OW55971   8.445   1.395   2.026  0.2877 -0.1179 -0.0838
81331SOL    HW155972   8.378   1.435   1.970 -1.1542 -0.2230  1.4669
81331SOL    HW255973   8.424   1.426   2.114  2.2999 -0.2015  0.4714
81332SOL     OW55974   9.389   6.334   0.214 -0.0196 -0.3286 -0.3207
81332SOL    HW155975   9.325   6.373   0.155 -0.4047  0.4314  0.5579
81332SOL    HW255976   9.337   6.277   0.271  0.4310 -1.5369 -1.0897
81333SOL     OW55977  11.854   8.144  11.304  0.3262  0.2433  0.3382
81333SOL    HW155978  11.820   8.065  11.261 -1.6762  0.8344  0.7611
81333SOL    HW255979  11.854   8.210  11.235  1.5745  0.0197  0.1018
81334SOL     OW55980   5.052  11.790  13.377  0.1766  0.1535 -0.3718
81334SOL    HW155981   5.028  11.866  13.431  1.5103  0.6032 -0.3677
81334SOL    HW255982   5.044  11.820  13.287  1.2826  0.5164 -0.3656
81335SOL     OW55983   1.279   5.307   0.482  0.1107 -0.1045  0.1914
81335SOL    HW155984   1.291   5.380   0.542  1.5415 -1.6438  1.9238
81335SOL    HW255985   1.223   5.246   0.531  0.7197 -1.0925 -0.3200
81336SOL     OW55986  10.648   1.971   6.831 -0.1920  0.0754 -0.0776
81336SOL    HW155987  10.634   1.991   6.739  0.2017 -0.0586 -0.1685
81336SOL    HW255988  10.664   1.876   6.832 -1.8753 -0.2411  0.3248
81337SOL     OW55989   0.833  10.972   2.793  0.4304 -0.0270 -0.1508
81337SOL    HW155990   0.775  10.919   2.848  3.6578 -0.2663  3.4406
81337SOL    HW255991   0.849  11.051   2.845  0.5190  1.7557 -2.6909
81338SOL     OW55992   1.008   5.582   4.142  0.3035 -0.0641 -0.3121
81338SOL    HW155993   1.091   5.628   4.148  0.0065  0.9673 -2.9412
81338SOL    HW255994   0.942   5.647   4.166  0.0862 -0.1287 -0.7333
81339SOL     OW55995   6.034   4.103   5.767 -0.3203 -0.3075  0.1836
81339SOL    HW155996   6.093   4.177   5.784 -1.1976  0.2614  0.8371
81339SOL    HW255997   5.986   4.129   5.689 -0.5221 -0.2534  0.3262
81340SOL     OW55998  10.654  13.691   4.053 -0.9726 -0.5415  0.0131
81340SOL    HW155999  10.583  13.753   4.038  0.0697  0.7692  0.2915
81340SOL    HW256000  10.677  13.703   4.145 -0.4209 -0.9599 -0.0661
81341SOL     OW56001  13.582   6.660  10.266 -0.4622 -0.4679  0.0356
81341SOL    HW156002  13.613   6.570  10.260  0.2931 -0.3803  1.7833
81341SOL    HW256003  13.540   6.677  10.182 -0.3364 -2.3321 -0.4562
81342SOL     OW56004   1.097   5.027  11.055 -0.3491 -0.0393 -0.1472
81342SOL    HW156005   1.035   5.026  10.983  1.7054  0.2703 -2.0334
81342SOL    HW256006   1.180   5.053  11.015  1.1604 -1.0299  2.1125
81343SOL     OW56007  13.747  12.339   6.293  0.3893  0.1823  0.5915
81343SOL    HW156008  13.715  12.289   6.219 -0.3204 -0.7068  1.4791
81343SOL    HW256009  13.676  12.336   6.358  1.2587  0.3338  1.5887
81344SOL     OW56010   7.830   0.362   8.568  0.0793 -0.7488 -0.7195
81344SOL    HW156011   7.920   0.338   8.590  0.0255  1.5138  2.7509
81344SOL    HW256012   7.786   0.368   8.652 -3.1515 -0.9854 -2.2741
81345SOL     OW56013   4.287   1.544   0.218 -0.2732  0.0109  0.0998
81345SOL    HW156014   4.193   1.530   0.215 -0.4681  0.6801  1.7849
81345SOL    HW256015   4.317   1.488   0.290  0.7694 -0.8806 -0.9860
81346SOL     OW56016   0.435   3.537   9.270 -0.2377  0.7165  0.4317
81346SOL    HW156017   0.381   3.614   9.252  0.0361  0.6821 -0.5682
81346SOL    HW256018   0.379   3.462   9.246 -0.2185  0.6293  0.6546
81347SOL     OW56019   6.207  11.547   6.497  0.0348 -0.2623  0.5337
81347SOL    HW156020   6.261  11.597   6.558  0.2178 -0.1027  0.2459
81347SOL    HW256021   6.149  11.496   6.552  0.3052 -0.2375  0.8454
81348SOL     OW56022   7.301  11.596   6.637 -0.0144 -0.0953  0.0242
81348SOL    HW156023   7.305  11.500   6.642 -0.6078 -0.1165  0.2476
81348SOL    HW256024   7.284  11.624   6.726 -1.3634  0.1133 -0.2701
81349SOL     OW56025   7.615   0.838   5.030  0.0778 -0.2942 -0.7563
81349SOL    HW156026   7.595   0.781   4.955 -2.4792  1.0874 -1.2561
81349SOL    HW256027   7.695   0.884   5.004  1.6799 -2.8297 -0.7323
81350SOL     OW56028  13.607   0.812   1.929 -0.3515  0.2249 -0.2398
81350SOL    HW156029  13.682   0.775   1.975 -0.6299 -2.1403 -1.5412
81350SOL    HW256030  13.639   0.827   1.840 -0.1664  3.5914  0.2770
81351SOL     OW56031  13.902   2.600   2.130  0.1263  0.2650 -0.2046
81351SOL    HW156032  13.868   2.520   2.169 -2.2558  1.1409 -0.3163
81351SOL    HW256033  13.904   2.582   2.036  0.1349  0.1338 -0.1790
81352SOL     OW56034   6.060  11.850   2.232 -0.1952  0.1097  0.0837
81352SOL    HW156035   6.144  11.895   2.240  1.4245 -2.2760 -2.1336
81352SOL    HW256036   6.005  11.911   2.182  1.1677  0.5811 -0.9041
81353SOL     OW56037   6.717  11.066   3.547  0.2265  0.0118 -0.1322
81353SOL    HW156038   6.678  11.057   3.634 -1.1461 -1.6352 -0.8593
81353SOL    HW256039   6.753  10.979   3.528  1.2127  0.5736 -0.9085
81354SOL     OW56040   9.532  11.555  13.155  0.0699  0.4148 -0.3572
81354SOL    HW156041   9.598  11.620  13.178  0.8606 -0.5950  0.2969
81354SOL    HW256042   9.505  11.579  13.066  1.7872  0.4850 -0.8870
81355SOL     OW56043  10.963   3.198   4.833  0.0708 -0.3449  0.4511
81355SOL    HW156044  11.026   3.268   4.850 -1.7875  1.5026  0.2928
81355SOL    HW256045  10.977   3.174   4.742 -0.0075  0.7105  0.1387
81356SOL     OW56046   1.071   4.007   5.418  0.1795  0.6563 -0.0835
81356SOL    HW156047   1.003   4.070   5.394  0.7062  1.4313  0.4012
81356SOL    HW256048   1.100   4.034   5.505 -0.0407 -0.6724  0.4277
81357SOL     OW56049   4.200  12.111  11.367 -0.0207 -0.3049  0.0401
81357SOL    HW156050   4.258  12.185  11.354 -0.0549 -0.0286  1.3246
81357SOL    HW256051   4.113  12.144  11.344 -0.0833  0.1690  0.9093
81358SOL     OW56052  13.914  10.978  13.496  0.2092  0.1212  0.1054
81358SOL    HW156053  13.852  10.974  13.569 -0.4492 -0.4277 -0.4736
81358SOL    HW256054  13.911  10.891  13.458  0.3518  0.4788 -0.7410
81359SOL     OW56055   6.276   9.136   4.709 -0.4039 -0.2404 -0.1151
81359SOL    HW156056   6.227   9.098   4.782 -0.1874  0.2005  0.2634
81359SOL    HW256057   6.333   9.065   4.680 -0.1629 -0.2822  0.4446
81360SOL     OW56058  12.529  13.193   0.994 -0.1979  0.8119 -1.0565
81360SOL    HW156059  12.570  13.129   0.936  1.2383  2.5151 -1.9922
81360SOL    HW256060  12.573  13.180   1.078 -0.8113 -0.2476 -0.8771
81361SOL     OW56061   5.151   7.232   8.626 -0.3418 -0.2238 -0.8869
81361SOL    HW156062   5.106   7.198   8.703  0.6499 -1.3707 -0.7871
81361SOL    HW256063   5.236   7.260   8.659 -0.9247  1.9408 -1.0662
81362SOL     OW56064  11.393   2.081   5.315 -0.1225 -0.1185  0.1666
81362SOL    HW156065  11.459   2.147   5.294 -0.9021  0.3111 -1.0564
81362SOL    HW256066  11.350   2.114   5.394  1.3852 -0.6247  1.2409
81363SOL     OW56067   9.792   3.924   6.142  0.4328 -0.6549  0.4734
81363SOL    HW156068   9.869   3.907   6.087 -0.6443 -0.9770 -0.9920
81363SOL    HW256069   9.737   3.847   6.129 -1.2441  0.6375 -0.4972
81364SOL     OW56070   2.544   1.900   1.274  0.1881  0.3059 -0.3490
81364SOL    HW156071   2.571   1.886   1.183  0.0874  0.4506 -0.4016
81364SOL    HW256072   2.617   1.947   1.314  0.2856  0.1339 -0.3209
81365SOL     OW56073   6.614   8.829   7.634 -0.1850  0.0337 -0.2852
81365SOL    HW156074   6.636   8.840   7.727 -1.6777  1.8401 -0.0713
81365SOL    HW256075   6.698   8.822   7.590  0.5623 -0.9037  1.1942
81366SOL     OW56076  11.466   5.792   3.784 -0.2208  0.5255  0.4444
81366SOL    HW156077  11.386   5.838   3.812 -0.8085  0.0169 -0.3451
81366SOL    HW256078  11.435   5.705   3.760  0.3980  0.6550 -0.8918
81367SOL     OW56079   6.297   0.956   4.215 -0.0110 -0.3073  0.1675
81367SOL    HW156080   6.208   0.924   4.227 -0.5032  1.0164  0.1750
81367SOL    HW256081   6.296   1.045   4.250  0.9182  0.2670 -1.1557
81368SOL     OW56082   7.587   0.620   0.116 -0.0147 -0.2852  0.3819
81368SOL    HW156083   7.543   0.570   0.184 -0.4760 -0.1693  0.1692
81368SOL    HW256084   7.634   0.688   0.164 -0.5413 -0.0499  0.5719
81369SOL     OW56085  10.486  11.523   2.258 -0.5295 -0.3240  0.3508
81369SOL    HW156086  10.515  11.551   2.345 -0.9355 -1.2265  0.7928
81369SOL    HW256087  10.505  11.598   2.201  0.7043 -0.0948  1.0146
81370SOL     OW56088   5.084   1.522   7.316 -0.1243 -0.2236  0.2552
81370SOL    HW156089   4.993   1.493   7.318 -0.1268 -0.2272  0.1087
81370SOL    HW256090   5.080   1.613   7.288 -0.1871  0.2173  1.6066
81371SOL     OW56091   2.460   4.617   5.429 -0.1415  0.4555 -0.0817
81371SOL    HW156092   2.496   4.642   5.514  0.2020  0.6604 -0.2789
81371SOL    HW256093   2.385   4.562   5.449  1.1404 -1.2165  0.3451
81372SOL     OW56094   0.520   5.775   9.615  0.1533  0.3489  0.0490
81372SOL    HW156095   0.503   5.827   9.693  1.3696 -0.4120  0.8525
81372SOL    HW256096   0.451   5.801   9.554 -0.8107  0.9970  1.3481
81373SOL     OW56097   7.872   0.584  13.326  0.5345  0.1096 -0.2384
81373SOL    HW156098   7.870   0.497  13.365  1.7517  0.4444  0.6028
81373SOL    HW256099   7.896   0.643  13.398  1.4729  0.9085 -1.1669
81374SOL     OW56100   0.118   5.842   5.368 -0.0075  0.0600 -0.5239
81374SOL    HW156101   0.027   5.850   5.397  0.5294  0.3207  1.2492
81374SOL    HW256102   0.158   5.926   5.391  0.9864 -0.5246 -0.0377
81375SOL     OW56103   7.189   1.897   4.421 -0.0650  0.0196  0.2987
81375SOL    HW156104   7.194   1.875   4.514 -1.4583 -1.6224  0.0447
81375SOL    HW256105   7.275   1.875   4.386  0.9000  1.8375  1.3725
81376SOL     OW56106   6.004  12.074  10.315  0.3348  0.4766  0.1373
81376SOL    HW156107   5.990  12.080  10.409 -0.1015  1.0671  0.0365
81376SOL    HW256108   6.081  12.018  10.306 -0.8238 -1.3056  0.7611
81377SOL     OW56109   8.627  11.051   7.091  0.1248 -0.1992  0.2876
81377SOL    HW156110   8.660  10.970   7.054  0.3008  1.0275 -2.5023
81377SOL    HW256111   8.701  11.112   7.085 -0.6144  0.7264  0.3567
81378SOL     OW56112   7.394   8.065  13.111  0.0837  0.0697  0.3891
81378SOL    HW156113   7.341   8.130  13.158  0.1324  1.9931 -2.0114
81378SOL    HW256114   7.463   8.041  13.173 -1.6483 -0.0248  2.4184
81379SOL     OW56115   8.196   3.927  11.355 -0.0315  0.0287  0.5202
81379SOL    HW156116   8.135   3.885  11.415 -0.5521 -0.7077 -0.5007
81379SOL    HW256117   8.212   4.013  11.394 -0.2622 -0.4619  1.7639
81380SOL     OW56118   4.811   1.596  10.872  1.3280  0.3143  0.3505
81380SOL    HW156119   4.901   1.584  10.901  0.6802  0.1916  2.5180
81380SOL    HW256120   4.772   1.652  10.940 -0.5552 -0.6998  0.1672
81381SOL     OW56121   2.609   3.456  13.742  0.0842 -0.2291  0.4540
81381SOL    HW156122   2.574   3.513  13.672 -2.5232 -2.0889  0.0766
81381SOL    HW256123   2.672   3.400  13.697  0.8043  0.6776  0.3032
81382SOL     OW56124   7.597  10.459   2.190  0.3525 -0.0364  0.5023
81382SOL    HW156125   7.597  10.367   2.162  1.7299 -0.6033  2.1910
81382SOL    HW256126   7.634  10.457   2.278  0.3356  2.1471  0.6047
81383SOL     OW56127   2.310   0.951  10.295 -0.4518  0.5457 -0.5343
81383SOL    HW156128   2.362   1.005  10.235  1.1049  1.1745  1.2677
81383SOL    HW256129   2.267   1.015  10.352  1.7033  0.0026  1.8711
81384SOL     OW56130   6.942   6.988   2.076 -0.8048  0.2972  0.0359
81384SOL    HW156131   6.992   7.066   2.049 -0.6210  0.7088  1.4925
81384SOL    HW256132   6.940   6.992   2.171 -1.7129 -0.9310  0.0983
81385SOL     OW56133   3.169  10.323   0.841  0.3694  0.0179  0.1525
81385SOL    HW156134   3.091  10.342   0.790  0.5027  0.5867  0.1524
81385SOL    HW256135   3.162  10.379   0.918  1.0065  0.4306 -0.0824
81386SOL     OW56136  10.164   4.251  10.700  0.7838 -0.0113 -0.0518
81386SOL    HW156137  10.201   4.288  10.781  0.1982  0.1166  0.1582
81386SOL    HW256138  10.074   4.282  10.698  0.0788 -1.9223  0.4269
81387SOL     OW56139   5.866   8.273   6.141 -0.4445  0.2264 -0.2136
81387SOL    HW156140   5.800   8.335   6.111 -0.9722  0.2584  0.9457
81387SOL    HW256141   5.816   8.207   6.189  0.1638 -0.8412 -1.0109
81388SOL     OW56142   7.793   2.558  12.656 -0.5875  0.5831  0.0661
81388SOL    HW156143   7.721   2.621  12.653 -0.4853  0.6932 -0.0861
81388SOL    HW256144   7.777   2.506  12.735 -0.8620  0.5737  0.0036
81389SOL     OW56145  13.183   0.396   3.638 -0.6188  0.3788  0.5218
81389SOL    HW156146  13.091   0.422   3.628 -1.2400 -2.3442 -4.4622
81389SOL    HW256147  13.179   0.309   3.675 -0.3946 -0.6229 -1.6337
81390SOL     OW56148  13.457  12.492  11.271 -0.5184  0.0383 -0.6257
81390SOL    HW156149  13.512  12.435  11.217 -1.9549 -0.0909 -2.0488
81390SOL    HW256150  13.443  12.570  11.217 -0.6793  0.6184  0.2318
81391SOL     OW56151   5.385   9.426   4.989 -0.5454  0.2304  0.3462
81391SOL    HW156152   5.311   9.369   5.008 -0.3996  0.2782  1.0996
81391SOL    HW256153   5.398   9.419   4.895 -1.5144  0.2340  0.2089
81392SOL     OW56154  13.811  12.260   9.501 -0.1315  0.0625  0.2121
81392SOL    HW156155  13.882  12.323   9.488  0.6020 -0.9521 -0.8953
81392SOL    HW256156  13.853  12.174   9.496 -1.2373 -0.5501  0.8827
81393SOL     OW56157   2.958   5.478   9.021 -0.9795  0.0807  0.5201
81393SOL    HW156158   2.888   5.413   9.021 -0.7457 -0.2807 -1.7210
81393SOL    HW256159   2.917   5.559   9.052 -3.4191  0.7474 -3.6162
81394SOL     OW56160  12.244   8.487   3.641  0.0055 -0.4526  0.0794
81394SOL    HW156161  12.316   8.543   3.672 -0.7429  0.3948  0.3162
81394SOL    HW256162  12.174   8.502   3.704 -0.2398 -1.6087  0.0930
81395SOL     OW56163   1.600   0.114   7.448 -0.5848 -0.1073  0.0980
81395SOL    HW156164   1.602   0.028   7.406 -1.6335 -0.6379  1.0728
81395SOL    HW256165   1.636   0.174   7.383  0.7840 -1.3709 -0.3620
81396SOL     OW56166   0.657   5.189   0.026 -0.0155 -0.3543  0.0265
81396SOL    HW156167   0.746   5.209  -0.002  0.3062 -0.1807  1.1031
81396SOL    HW256168   0.655   5.093   0.033 -0.1210 -0.4049 -0.6168
81397SOL     OW56169  13.496  13.405   6.459  0.2552  0.6263  0.1359
81397SOL    HW156170  13.516  13.408   6.366 -0.9136  1.2515 -0.1282
81397SOL    HW256171  13.580  13.417   6.503  0.4882  3.7702 -0.8774
81398SOL     OW56172  13.916  11.309   8.643 -0.1535  0.2674 -0.1815
81398SOL    HW156173  14.010  11.312   8.622  0.1400  1.4737  1.1188
81398SOL    HW256174  13.913  11.304   8.739 -1.4199  0.5079 -0.1905
81399SOL     OW56175   5.413   9.436  11.363  0.2353  0.1866  0.4919
81399SOL    HW156176   5.472   9.505  11.393 -1.6308  0.6613  3.4958
81399SOL    HW256177   5.416   9.370  11.432 -2.9387  0.4199  1.0344
81400SOL     OW56178   1.886  10.130   5.808  0.0904 -0.2416 -0.0584
81400SOL    HW156179   1.855  10.219   5.825  4.3428  1.2443  0.9999
81400SOL    HW256180   1.944  10.138   5.732  2.0722 -1.6555  1.2191
81401SOL     OW56181   2.705   1.636  12.808  0.0738  0.3115  0.0152
81401SOL    HW156182   2.771   1.597  12.750 -0.2935  0.3197 -0.4212
81401SOL    HW256183   2.636   1.666  12.748  0.9789  2.9403  0.2029
81402SOL     OW56184   5.504   1.214  10.006  0.8227 -0.2797 -0.2952
81402SOL    HW156185   5.528   1.306  10.019 -0.2982 -0.0078 -0.0393
81402SOL    HW256186   5.578   1.176   9.960  0.4863  1.2554 -2.2630
81403SOL     OW56187  12.632   7.775   9.755 -0.0400 -0.2317  0.3225
81403SOL    HW156188  12.563   7.711   9.775  0.7357 -1.3040 -0.3418
81403SOL    HW256189  12.657   7.756   9.664  2.0809 -0.7709  0.9734
81404SOL     OW56190   4.121  12.058  10.444  0.2352  0.2756 -0.4042
81404SOL    HW156191   4.178  12.025  10.514  1.1397  2.4318 -0.0527
81404SOL    HW256192   4.112  11.984  10.384  4.4311  0.1018 -1.1059
81405SOL     OW56193   6.555   0.637   5.203  0.2842 -0.0767  0.1531
81405SOL    HW156194   6.532   0.679   5.286  0.4213 -1.7736  1.1023
81405SOL    HW256195   6.476   0.645   5.150  0.1900  1.0324  0.4269
81406SOL     OW56196   1.911   3.040  11.365  0.6277 -0.6139  0.0042
81406SOL    HW156197   2.004   3.016  11.361  1.2473  1.6007 -0.1138
81406SOL    HW256198   1.908   3.114  11.426 -1.4284 -2.0507  1.7777
81407SOL     OW56199   5.962   1.266   7.343  0.3350 -0.1996 -0.2654
81407SOL    HW156200   5.935   1.352   7.312 -0.3714 -0.7380 -1.2165
81407SOL    HW256201   6.027   1.236   7.280 -0.6267 -1.0319 -0.8920
81408SOL     OW56202  11.372   7.117   6.397  0.3845  0.0902 -0.1766
81408SOL    HW156203  11.338   7.158   6.477 -2.0168  1.5969 -1.8436
81408SOL    HW256204  11.467   7.128   6.403  0.2076  0.9206  2.0410
81409SOL     OW56205   4.157   4.349   4.864  0.0585 -0.1496 -0.1655
81409SOL    HW156206   4.218   4.276   4.860 -1.9937 -1.9656 -0.1493
81409SOL    HW256207   4.072   4.309   4.881 -1.1200  2.2847  0.1703
81410SOL     OW56208  13.029   1.226   6.815  0.0220 -0.4942  0.7669
81410SOL    HW156209  13.107   1.175   6.797 -0.3987 -1.2331  0.9989
81410SOL    HW256210  13.041   1.259   6.904  0.8667  0.8914  0.1734
81411SOL     OW56211   2.179   8.778   8.547  0.3976  0.1282 -0.0887
81411SOL    HW156212   2.238   8.750   8.616  1.2809  0.4653 -0.6859
81411SOL    HW256213   2.142   8.861   8.578  1.6895  0.8850 -0.5059
81412SOL     OW56214   2.553   2.759   4.237  0.2265 -0.4469  0.2892
81412SOL    HW156215   2.479   2.736   4.181  0.1057  0.6301  0.0031
81412SOL    HW256216   2.517   2.757   4.326 -0.3182  0.6915  0.1061
81413SOL     OW56217   5.162   6.595   8.729 -0.5809 -0.2744 -0.6160
81413SOL    HW156218   5.200   6.681   8.711 -0.3937 -0.1578  0.3220
81413SOL    HW256219   5.089   6.613   8.788 -1.0789 -0.6778 -1.0921
81414SOL     OW56220   8.882  10.439  10.482  0.1230  0.2916 -0.3807
81414SOL    HW156221   8.965  10.441  10.530  0.0547  0.6127 -0.2727
81414SOL    HW256222   8.902  10.392  10.402  0.4740  0.5804 -0.4683
81415SOL     OW56223   5.629   4.589   7.582 -0.2743 -0.2741  0.4101
81415SOL    HW156224   5.682   4.634   7.648 -0.5416  0.6172  0.0351
81415SOL    HW256225   5.667   4.617   7.498  0.4103 -1.8122  0.1609
81416SOL     OW56226   8.231   9.188  12.657 -0.1205 -0.0743  0.9621
81416SOL    HW156227   8.305   9.128  12.663 -0.8940 -1.5453 -2.1613
81416SOL    HW256228   8.158   9.140  12.696 -0.3458 -0.4894  0.0641
81417SOL     OW56229  11.857   1.277  11.267 -0.2869  0.8027  0.7392
81417SOL    HW156230  11.781   1.220  11.281  0.4370 -0.2560  0.4712
81417SOL    HW256231  11.919   1.251  11.335  0.8690 -0.2010 -0.6274
81418SOL     OW56232   3.960   8.826   8.220 -0.0797 -0.2733  0.1964
81418SOL    HW156233   3.931   8.909   8.181  0.7189  1.1309  2.3965
81418SOL    HW256234   3.896   8.762   8.190 -1.4802  1.3776 -0.5561
81419SOL     OW56235  13.267   6.242   0.375 -0.0608  0.5023 -0.6657
81419SOL    HW156236  13.216   6.171   0.415  0.6632  0.3386  0.0076
81419SOL    HW256237  13.332   6.265   0.442  0.9533  0.4742 -1.6093
81420SOL     OW56238   7.990  10.761   0.395 -0.1791  0.4288 -0.0016
81420SOL    HW156239   7.937  10.841   0.393 -2.5453 -1.0633 -0.8077
81420SOL    HW256240   7.927  10.691   0.408  1.2187 -1.6966 -3.3047
81421SOL     OW56241   7.046   8.720   4.880 -0.4719  0.3170  0.3142
81421SOL    HW156242   6.952   8.726   4.898 -0.5779 -1.1866  0.4500
81421SOL    HW256243   7.084   8.689   4.962  0.1222  0.7074  0.1943
81422SOL     OW56244   9.579   8.582   7.677  0.4993  0.0657 -0.2102
81422SOL    HW156245   9.528   8.660   7.660 -0.5193 -0.4442  0.4107
81422SOL    HW256246   9.631   8.568   7.598  0.6446  1.3220 -0.3417
81423SOL     OW56247  10.068   4.139   2.816  0.1345 -0.0485 -0.1706
81423SOL    HW156248  10.122   4.079   2.867  0.0739 -0.7886 -0.9508
81423SOL    HW256249  10.090   4.226   2.850  3.3223 -0.0886 -1.7433
81424SOL     OW56250   5.135   6.869   4.468 -0.1060  0.8623  0.1552
81424SOL    HW156251   5.158   6.905   4.553  1.7899 -1.5848  0.7972
81424SOL    HW256252   5.142   6.774   4.479 -0.2759  0.4387 -2.5913
81425SOL     OW56253  12.036   7.234  12.452 -0.7777 -0.4482 -0.3597
81425SOL    HW156254  12.014   7.247  12.545 -0.6978 -0.2105 -0.3733
81425SOL    HW256255  12.055   7.141  12.445  0.8862 -0.2011  0.2318
81426SOL     OW56256   1.962   3.219   0.119 -0.4765 -0.4238 -0.0810
81426SOL    HW156257   2.046   3.218   0.074 -0.8156 -0.6734 -0.7308
81426SOL    HW256258   1.967   3.292   0.180  0.2373 -0.4926 -0.0530
81427SOL     OW56259   1.590   0.742   0.798  0.3092  1.0175 -0.4281
81427SOL    HW156260   1.509   0.726   0.750  1.0725  2.1863 -2.2284
81427SOL    HW256261   1.570   0.816   0.855 -0.5823 -0.3275  1.0740
81428SOL     OW56262   1.463   8.962  11.939 -0.4521 -0.0771 -0.0851
81428SOL    HW156263   1.412   8.947  11.860 -1.7829  1.0626  0.5067
81428SOL    HW256264   1.406   8.934  12.011 -0.2968  1.2507  0.6016
81429SOL     OW56265   2.977   7.187   7.064 -0.1946 -0.5195 -0.2969
81429SOL    HW156266   3.005   7.262   7.010  0.0724  0.3787  1.0381
81429SOL    HW256267   3.052   7.128   7.064  0.6492  0.5100  0.8647
81430SOL     OW56268   8.309   4.703   4.325  0.7450 -0.2447 -0.4124
81430SOL    HW156269   8.241   4.744   4.272  0.3521 -0.8249 -0.3664
81430SOL    HW256270   8.381   4.686   4.264  0.2714 -0.9631 -0.7710
81431SOL     OW56271  12.546   1.776   5.392  0.3050  0.5699  0.4981
81431SOL    HW156272  12.582   1.851   5.344  0.3665  0.6969  0.7450
81431SOL    HW256273  12.492   1.815   5.461 -2.2969  0.4359 -1.2934
81432SOL     OW56274  12.591   5.000  11.620 -0.0228 -0.1993  0.1437
81432SOL    HW156275  12.562   5.056  11.692  0.9328 -0.9165  1.1039
81432SOL    HW256276  12.653   5.054  11.571 -1.3100  0.5946 -0.6883
81433SOL     OW56277   9.142   4.829  12.274 -0.0424 -0.0431 -0.1653
81433SOL    HW156278   9.203   4.899  12.298 -1.1131  1.6667 -2.1477
81433SOL    HW256279   9.064   4.847  12.326 -0.3094  0.2266 -0.6577
81434SOL     OW56280   1.079  12.944   9.153  0.5462  0.0666  0.4720
81434SOL    HW156281   1.018  13.015   9.173  0.6110  0.8037 -1.6144
81434SOL    HW256282   1.032  12.864   9.177 -2.0399  0.4888 -2.4963
81435SOL     OW56283   7.203   0.483  11.759  0.3832  0.2787  0.2524
81435SOL    HW156284   7.131   0.432  11.797 -0.1826  0.7450 -0.1678
81435SOL    HW256285   7.260   0.503  11.834  1.9248 -2.9458  0.1047
81436SOL     OW56286   6.840   3.787   3.611 -0.0821  0.4785  0.2366
81436SOL    HW156287   6.930   3.817   3.627  0.2628 -0.3317 -0.1290
81436SOL    HW256288   6.840   3.695   3.637  0.3044 -0.7368 -3.4408
81437SOL     OW56289   6.329   7.444   1.015  0.2546 -0.2447  0.0705
81437SOL    HW156290   6.319   7.419   1.107  4.3316 -0.1091  0.7384
81437SOL    HW256291   6.269   7.517   1.003 -0.3942 -0.2703  2.5996
81438SOL     OW56292   9.436   8.427   1.387 -0.8860 -0.6948  0.0909
81438SOL    HW156293   9.391   8.388   1.462 -0.3443  0.0526  0.8237
81438SOL    HW256294   9.472   8.353   1.339  0.7838 -1.1164  1.8772
81439SOL     OW56295   4.184  10.511   6.415 -0.0487  0.2473  0.3174
81439SOL    HW156296   4.259  10.495   6.359  0.1097 -1.0078  0.8655
81439SOL    HW256297   4.208  10.589   6.466 -0.0349  1.1582 -1.0412
81440SOL     OW56298   9.955   5.758   0.907 -0.0124 -0.1220  0.2980
81440SOL    HW156299  10.009   5.701   0.853  0.0899 -1.6836  1.9563
81440SOL    HW256300   9.878   5.778   0.853 -0.4729 -2.5622 -0.0449
81441SOL     OW56301   7.267  13.240   1.097  0.8536  0.2268  0.3479
81441SOL    HW156302   7.252  13.160   1.045 -1.6654  0.3112  0.8223
81441SOL    HW256303   7.284  13.308   1.031 -3.6821  0.6482 -0.7191
81442SOL     OW56304  11.072   8.279   2.132 -0.6518 -0.2177  0.2948
81442SOL    HW156305  11.073   8.205   2.072  0.4237  0.6910 -0.8661
81442SOL    HW256306  10.982   8.282   2.166 -0.8444 -1.7066 -0.0372
81443SOL     OW56307   5.406  12.712   2.082 -0.2989  0.1627  0.2030
81443SOL    HW156308   5.314  12.692   2.099 -0.8454  2.2249 -0.0479
81443SOL    HW256309   5.412  12.714   1.986 -0.4082  1.6555  0.2137
81444SOL     OW56310  10.307   7.474   7.079 -0.6999  0.4599  0.0849
81444SOL    HW156311  10.265   7.534   7.018 -1.0986  0.2562  0.1589
81444SOL    HW256312  10.280   7.386   7.050  0.6276  0.2365 -0.6008
81445SOL     OW56313  10.905   8.200   6.671 -0.2149  0.2187 -0.0108
81445SOL    HW156314  11.000   8.197   6.683 -0.5218 -1.8692  3.1015
81445SOL    HW256315  10.879   8.108   6.665 -2.2127  0.5772  1.8213
81446SOL     OW56316   9.861   2.195   7.255  0.2673 -0.5705  0.2614
81446SOL    HW156317   9.830   2.285   7.259 -0.4447 -0.7021 -1.3769
81446SOL    HW256318   9.886   2.173   7.345 -0.3922  0.9555  0.8384
81447SOL     OW56319   6.523  12.798   4.899 -0.4213  0.8711 -0.2076
81447SOL    HW156320   6.592  12.736   4.877 -1.2047 -0.1654  0.1726
81447SOL    HW256321   6.444  12.764   4.856 -0.8155  1.7466 -0.2096
81448SOL     OW56322   5.317   9.703   1.472  0.1883 -0.0590 -0.5489
81448SOL    HW156323   5.317   9.627   1.414 -0.0226 -0.2661 -0.2773
81448SOL    HW256324   5.250   9.761   1.436  0.3990  0.0291 -0.7978
81449SOL     OW56325   1.828   9.788  13.833 -0.8186  0.4145  0.0262
81449SOL    HW156326   1.804   9.870  13.790  0.2438  0.7360  0.0178
81449SOL    HW256327   1.923   9.793  13.842 -0.6435 -1.1211 -0.6078
81450SOL     OW56328  13.990  11.120  13.242  0.6216  0.0644  0.2300
81450SOL    HW156329  13.921  11.077  13.191 -0.5397  1.9769  0.1101
81450SOL    HW256330  14.009  11.057  13.312 -0.3964 -1.0142 -0.4072
81451SOL     OW56331  12.766   0.386   3.828 -0.1564 -0.4226  0.0483
81451SOL    HW156332  12.828   0.382   3.901  0.2918 -0.6448 -0.3338
81451SOL    HW256333  12.822   0.397   3.751 -0.6409  0.1420 -0.2291
81452SOL     OW56334  11.090  13.811   2.763 -1.0337 -0.1303 -0.6020
81452SOL    HW156335  11.134  13.761   2.695  0.5557  0.4672 -0.0764
81452SOL    HW256336  11.065  13.893   2.720 -0.3424  0.1024 -0.5835
81453SOL     OW56337   8.931   9.816   1.073 -0.3173 -0.3499  0.2487
81453SOL    HW156338   8.916   9.827   1.167 -0.6533  1.0538  0.0604
81453SOL    HW256339   9.015   9.859   1.058 -0.9345  0.7191 -0.2952
81454SOL     OW56340   0.963   2.152   8.387 -0.4405  0.1096 -0.4506
81454SOL    HW156341   0.870   2.137   8.372  0.0479 -1.2900 -2.3772
81454SOL    HW256342   0.969   2.247   8.399 -1.9922  0.3540 -1.2833
81455SOL     OW56343   3.531   3.396  11.436 -0.0774 -0.3469 -0.0785
81455SOL    HW156344   3.508   3.471  11.382 -0.0801 -0.0541  0.3198
81455SOL    HW256345   3.476   3.406  11.515  0.6499 -0.2069  0.4202
81456SOL     OW56346   2.774   4.624  10.741  0.6294  0.2736  0.1483
81456SOL    HW156347   2.793   4.533  10.719  0.0120  0.1873 -0.0403
81456SOL    HW256348   2.760   4.667  10.656 -0.5696  0.2056  0.2998
81457SOL     OW56349   0.561   6.110   8.595  0.1508 -0.6194 -0.1279
81457SOL    HW156350   0.573   6.163   8.516 -0.6389 -0.2534 -0.0075
81457SOL    HW256351   0.634   6.135   8.651  0.3612 -0.4137 -0.4877
81458SOL     OW56352   4.400   3.974   6.221 -0.6060 -0.2561 -0.1541
81458SOL    HW156353   4.427   3.936   6.137 -1.0581 -0.5172 -0.1871
81458SOL    HW256354   4.466   3.944   6.283 -1.0154 -1.2154 -0.1567
81459SOL     OW56355  12.304   8.090   7.352 -0.4284  0.3139  0.2623
81459SOL    HW156356  12.378   8.040   7.317 -0.6608 -1.1080  1.7294
81459SOL    HW256357  12.344   8.154   7.410 -0.2979  0.0506  0.4641
81460SOL     OW56358   1.463   2.518   2.465  0.7315  0.4774  0.0686
81460SOL    HW156359   1.553   2.490   2.446  0.1129 -1.9066  0.3805
81460SOL    HW256360   1.432   2.456   2.531 -0.8412  1.8500  0.6857
81461SOL     OW56361   1.291   5.987   5.407  0.2267  0.3078  0.0651
81461SOL    HW156362   1.339   6.069   5.408 -0.6784  0.9455  2.8221
81461SOL    HW256363   1.257   5.979   5.318  4.1446  0.4642 -1.6482
81462SOL     OW56364   2.973   1.684   1.930 -0.4215 -0.2466  0.3266
81462SOL    HW156365   2.895   1.738   1.917 -0.0636  0.3851  0.7370
81462SOL    HW256366   2.991   1.647   1.843 -0.9386 -0.0711  0.1404
81463SOL     OW56367  12.673  13.794   5.130  0.4089  0.0739  0.0663
81463SOL    HW156368  12.669  13.858   5.201  1.9075  1.4180 -0.9881
81463SOL    HW256369  12.714  13.717   5.170 -0.7952 -0.0292  1.1799
81464SOL     OW56370  12.243   1.016   4.903  0.3308  0.1319 -0.3933
81464SOL    HW156371  12.312   0.950   4.892 -0.0745 -0.1147 -1.5585
81464SOL    HW256372  12.203   1.024   4.816 -1.2384  0.1245  0.2962
81465SOL     OW56373   1.767  13.287   0.481 -0.7869 -0.0307  0.6391
81465SOL    HW156374   1.697  13.248   0.534 -0.0052 -1.9494  0.3319
81465SOL    HW256375   1.744  13.263   0.391  0.3060 -0.7628  0.5468
81466SOL     OW56376   1.780   9.048   3.971  0.2022  0.5988  0.1515
81466SOL    HW156377   1.755   9.077   4.059  2.6713  0.7030  0.8745
81466SOL    HW256378   1.843   8.978   3.986  0.5597  0.5235 -1.5443
81467SOL     OW56379  11.340   8.778  13.648  0.5071  0.0152  0.1419
81467SOL    HW156380  11.348   8.795  13.742  0.3610  0.2601  0.1119
81467SOL    HW256381  11.399   8.705  13.631  0.5875  0.0185  0.4119
81468SOL     OW56382   2.991   5.934   1.344 -0.1216  0.2726 -0.0984
81468SOL    HW156383   3.067   5.906   1.395  0.5872  1.6501 -0.3379
81468SOL    HW256384   2.960   6.013   1.389 -3.0634 -1.6501  1.5323
81469SOL     OW56385  12.270   9.572   9.238 -0.3240  0.6664 -0.0643
81469SOL    HW156386  12.302   9.597   9.152 -0.3935 -0.1992 -0.3520
81469SOL    HW256387  12.333   9.508   9.270 -0.7174  0.4014  0.1968
81470SOL     OW56388   7.203  13.001   0.986  0.4682  0.2989 -0.0655
81470SOL    HW156389   7.182  13.014   0.893 -0.6649  1.1044  0.2766
81470SOL    HW256390   7.164  12.917   1.008  0.2150  0.3823 -0.1874
81471SOL     OW56391  11.053   7.403  11.514  0.1558  0.5152  0.4394
81471SOL    HW156392  11.009   7.324  11.546 -0.3329  0.8462  0.6076
81471SOL    HW256393  10.994   7.474  11.539  0.9319  1.0033  0.9311
81472SOL     OW56394   0.295  12.963  13.759 -0.1077 -0.3120  0.1898
81472SOL    HW156395   0.374  12.927  13.797  0.6298  1.0450 -0.0050
81472SOL    HW256396   0.225  12.905  13.789  0.8833 -1.2246  0.7842
81473SOL     OW56397   7.015   3.818   2.930 -0.2119 -0.4441  0.0569
81473SOL    HW156398   6.970   3.855   3.006 -1.3647  0.2240 -0.9088
81473SOL    HW256399   7.093   3.776   2.966 -1.2000 -0.9602  1.7136
81474SOL     OW56400   8.049  13.550   9.914 -0.0262  0.5406 -0.0553
81474SOL    HW156401   8.017  13.500   9.989 -0.7825  0.8659 -0.1537
81474SOL    HW256402   8.005  13.634   9.921 -0.1644  0.5430 -0.9141
81475SOL     OW56403  13.010   3.601   4.429  0.3002  0.3933 -0.4645
81475SOL    HW156404  13.061   3.638   4.356  1.1524  0.4216  0.1253
81475SOL    HW256405  12.950   3.671   4.454 -0.5353  0.1232 -1.6124
81476SOL     OW56406  11.026   7.617  13.122 -0.8856  0.1062 -0.0380
81476SOL    HW156407  10.939   7.600  13.158 -0.7173  1.0592  0.8583
81476SOL    HW256408  11.082   7.626  13.199 -0.1497  0.3123 -0.5909
81477SOL     OW56409   7.439   6.677   2.290  0.4932  0.7717  0.0408
81477SOL    HW156410   7.350   6.709   2.305 -0.2027 -1.2942  0.7113
81477SOL    HW256411   7.435   6.632   2.205  0.4611 -0.6963  0.7987
81478SOL     OW56412   2.545   2.561  12.919  0.2822 -0.0276 -0.2746
81478SOL    HW156413   2.586   2.518  12.994 -1.1747  1.2706  1.3352
81478SOL    HW256414   2.616   2.610  12.878  0.9774 -0.2431  0.6392
81479SOL     OW56415   7.982   5.748  11.051  0.0777  0.2302  0.1428
81479SOL    HW156416   8.074   5.724  11.065  0.3750  0.4525 -1.2529
81479SOL    HW256417   7.983   5.843  11.039 -0.4869  0.3726  1.0765
81480SOL     OW56418   8.697  11.992   6.492 -0.7476 -0.4891  0.4277
81480SOL    HW156419   8.677  12.072   6.442  0.2603 -1.0648 -0.9355
81480SOL    HW256420   8.774  11.956   6.450  0.2984 -0.9028  2.5684
81481SOL     OW56421   4.532  12.033   8.771 -0.1246 -0.3493  0.5278
81481SOL    HW156422   4.579  12.035   8.687  2.9496  0.8708  2.1011
81481SOL    HW256423   4.496  11.945   8.776  0.5441 -0.8069 -1.6012
81482SOL     OW56424   1.390   2.246   3.988 -0.3672 -0.5882 -0.8114
81482SOL    HW156425   1.472   2.284   4.018 -0.8614 -1.3388  1.6618
81482SOL    HW256426   1.407   2.152   3.982 -1.4743 -1.0191  1.5841
81483SOL     OW56427   6.884   8.701   1.663  0.5055  0.1868  0.4347
81483SOL    HW156428   6.817   8.761   1.695 -1.4199  0.0207 -2.8171
81483SOL    HW256429   6.846   8.614   1.675 -0.6284  0.1403 -2.6105
81484SOL     OW56430   2.741  11.618  13.807 -0.4913  0.2805 -0.4033
81484SOL    HW156431   2.671  11.558  13.834 -1.8231  1.6383 -0.7070
81484SOL    HW256432   2.818  11.562  13.796 -0.7865 -0.8746  2.5912
81485SOL     OW56433   8.164   9.180   5.977 -0.5591  0.0120  0.0344
81485SOL    HW156434   8.208   9.155   6.059 -1.9256 -0.9537  0.5060
81485SOL    HW256435   8.105   9.250   6.003  0.8256  1.4837 -0.6477
81486SOL     OW56436   5.360  13.627  12.164 -0.1236  0.1515  0.3806
81486SOL    HW156437   5.333  13.717  12.181  2.5234  1.2627 -0.7075
81486SOL    HW256438   5.321  13.606  12.079 -0.0734  0.6029  0.2421
81487SOL     OW56439   9.586   9.651  13.060  0.1244  0.6095  0.4898
81487SOL    HW156440   9.577   9.588  13.132  0.3414 -0.2107 -0.1861
81487SOL    HW256441   9.679   9.673  13.059  0.1414  0.5334  0.3845
81488SOL     OW56442   7.168   2.145   9.467  0.2055 -0.3096 -0.3883
81488SOL    HW156443   7.168   2.067   9.523 -0.3071 -1.7650 -2.3181
81488SOL    HW256444   7.242   2.132   9.408  0.8498  1.2868  0.0389
81489SOL     OW56445  13.065   1.487  11.746 -0.2957  0.1152  0.0723
81489SOL    HW156446  13.141   1.429  11.747  0.5970  1.1898 -1.3710
81489SOL    HW256447  13.101   1.573  11.727 -1.9122  0.5996 -0.9575
81490SOL     OW56448   0.311  13.517   8.753  0.1302 -0.4488 -0.4032
81490SOL    HW156449   0.239  13.475   8.800  1.3283 -0.2025  1.7755
81490SOL    HW256450   0.389  13.469   8.780  1.0853  0.8756 -0.6789
81491SOL     OW56451   0.440   9.823  11.631  0.1741 -0.5260 -0.8405
81491SOL    HW156452   0.519   9.868  11.603 -0.4264  1.2496  0.1740
81491SOL    HW256453   0.381   9.893  11.658 -0.5540 -1.9337  1.4948
81492SOL     OW56454  14.006   7.864  10.137 -0.4899  0.1793  0.2011
81492SOL    HW156455  14.013   7.941  10.194 -0.7150  0.2963  0.0707
81492SOL    HW256456  13.913   7.843  10.135 -0.5393  0.4194 -0.4416
81493SOL     OW56457   9.342   5.344   5.894  0.1241 -0.1215  0.2074
81493SOL    HW156458   9.391   5.274   5.850  0.3666  0.5021 -0.5329
81493SOL    HW256459   9.261   5.352   5.843  0.5733  0.8626 -0.3666
81494SOL     OW56460   9.327   8.179   7.217  0.0283 -0.0960 -0.6518
81494SOL    HW156461   9.283   8.094   7.213  0.4626 -0.2961 -1.5475
81494SOL    HW256462   9.268   8.239   7.171 -0.8486  0.3665  1.0323
81495SOL     OW56463  13.197   3.579  11.946 -0.6090  0.8330 -0.0811
81495SOL    HW156464  13.189   3.528  11.865 -0.6764  1.0546 -0.2120
81495SOL    HW256465  13.118   3.559  11.995  0.2122 -0.6787  0.7145
81496SOL     OW56466  11.534  13.894   8.575  0.5164  0.3295 -0.0412
81496SOL    HW156467  11.539  13.824   8.509  1.3357  0.1427  0.2026
81496SOL    HW256468  11.460  13.869   8.631  0.6007 -0.1800 -0.1461
81497SOL     OW56469   4.744   4.945   9.065 -0.6810  0.0652 -0.1550
81497SOL    HW156470   4.717   4.944   8.973  0.2848  1.1468 -0.4723
81497SOL    HW256471   4.717   5.031   9.097  0.8143  0.5020 -0.0170
81498SOL     OW56472   3.538   3.676   9.358  0.0148 -0.7992  0.0472
81498SOL    HW156473   3.607   3.619   9.391  0.9762 -0.3938 -1.1773
81498SOL    HW256474   3.462   3.657   9.413  1.0439 -1.3913  1.3045
81499SOL     OW56475   6.443  11.614  11.840  0.4600  0.0056 -0.6084
81499SOL    HW156476   6.477  11.540  11.789  0.1139 -0.3676 -0.2988
81499SOL    HW256477   6.348  11.603  11.839  0.5057 -1.8394  2.7759
81500SOL     OW56478  13.514   8.864   3.466  0.2803 -0.6413 -0.6465
81500SOL    HW156479  13.512   8.899   3.555  1.0905 -0.4667 -0.6922
81500SOL    HW256480  13.581   8.915   3.421  1.1843 -1.9513 -0.8382
81501SOL     OW56481   1.784  12.941  11.209  0.3075 -0.3210 -0.3642
81501SOL    HW156482   1.791  12.949  11.304  0.8834  0.6488 -0.4814
81501SOL    HW256483   1.694  12.910  11.194 -0.3919  1.2278  0.4194
81502SOL     OW56484   3.625   0.802   7.908 -0.4922  0.9689  0.1391
81502SOL    HW156485   3.575   0.730   7.869  1.2767 -0.2346 -0.0426
81502SOL    HW256486   3.593   0.808   7.998 -0.1298 -0.6484  0.4134
81503SOL     OW56487   9.349   1.062  11.899 -0.4321  0.1316  0.0613
81503SOL    HW156488   9.371   1.122  11.828 -0.3752 -0.7039 -0.6448
81503SOL    HW256489   9.429   1.010  11.913 -0.0018  1.1650  1.6503
81504SOL     OW56490  13.542   9.431   5.557  0.2805 -0.7727  0.4319
81504SOL    HW156491  13.521   9.447   5.649 -0.6052  0.5903  0.0244
81504SOL    HW256492  13.573   9.340   5.555 -0.1919 -0.9983  1.9829
81505SOL     OW56493   4.022   5.054   7.527  0.0841  0.1486  0.6697
81505SOL    HW156494   4.082   4.990   7.489 -1.4963 -0.0244 -1.7949
81505SOL    HW256495   4.044   5.136   7.483 -0.9999  0.2213  0.2345
81506SOL     OW56496   3.601   1.026   3.352 -0.2590 -0.5993  0.1643
81506SOL    HW156497   3.580   0.934   3.366  0.3402 -1.0204 -1.5321
81506SOL    HW256498   3.696   1.031   3.359 -0.3321  0.0193  0.8598
81507SOL     OW56499  12.733   6.684   3.846 -0.2282  0.4626 -0.3956
81507SOL    HW156500  12.721   6.751   3.913 -0.8833 -0.5298  0.5096
81507SOL    HW256501  12.664   6.703   3.782 -0.8425  0.2759  0.1913
81508SOL     OW56502   4.192  13.850   8.854 -0.3261  0.2911  0.3131
81508SOL    HW156503   4.228  13.806   8.931 -0.3705  0.9657  0.7232
81508SOL    HW256504   4.105  13.878   8.882  0.0754  1.5058  0.3772
81509SOL     OW56505   1.684   2.343   8.064  0.0069 -0.3094 -0.2678
81509SOL    HW156506   1.674   2.257   8.103  0.3629  0.1160  0.7894
81509SOL    HW256507   1.767   2.376   8.098 -0.1256  0.4577 -0.6492
81510SOL     OW56508   9.094   2.776   5.582  0.0393 -0.4363 -0.3212
81510SOL    HW156509   9.032   2.735   5.642  1.3323  0.2977  1.5885
81510SOL    HW256510   9.157   2.707   5.563  1.1565  0.0605  1.3952
81511SOL     OW56511   4.660   7.559  13.366  0.4308 -0.4669 -0.0692
81511SOL    HW156512   4.739   7.598  13.328  1.2304 -1.6162  0.3910
81511SOL    HW256513   4.617   7.632  13.412  0.4370  0.5029 -1.5349
81512SOL     OW56514  10.580  11.569   0.678 -0.6839 -0.4690 -0.5115
81512SOL    HW156515  10.656  11.544   0.731 -1.0747  0.6517  0.6205
81512SOL    HW256516  10.613  11.634   0.617 -0.5111 -0.7676 -0.7360
81513SOL     OW56517   3.212   1.136   6.085  0.0956 -0.0179  0.6015
81513SOL    HW156518   3.232   1.076   6.156 -0.8496  0.3815  1.2234
81513SOL    HW256519   3.135   1.185   6.115  0.5635  1.1793 -0.0804
81514SOL     OW56520   0.553  13.113  12.364 -0.3276  0.7482 -0.1225
81514SOL    HW156521   0.468  13.083  12.396  0.6532 -0.5460  1.3964
81514SOL    HW256522   0.607  13.034  12.359  0.8028  1.5354 -1.0765
81515SOL     OW56523   1.865   4.968   9.342 -0.3170  0.0646 -0.0865
81515SOL    HW156524   1.774   4.996   9.330 -0.3801 -0.5268 -1.0741
81515SOL    HW256525   1.861   4.872   9.343  0.1303  0.0369  1.3410
81516SOL     OW56526  10.204   0.446   2.045  0.1274  0.1384 -0.1124
81516SOL    HW156527  10.121   0.493   2.033  0.1923  0.3619  0.2879
81516SOL    HW256528  10.203   0.420   2.137 -0.0087 -0.8621 -0.3895
81517SOL     OW56529   9.778   0.196   3.091 -0.7996  0.4149  0.3830
81517SOL    HW156530   9.707   0.197   3.155 -0.6001  1.6193  0.6194
81517SOL    HW256531   9.753   0.263   3.027 -0.3257  0.1924 -0.0411
81518SOL     OW56532   0.523  10.990   3.193  0.4833 -0.0506 -0.3005
81518SOL    HW156533   0.538  11.077   3.231  0.0888 -0.9057  1.9862
81518SOL    HW256534   0.463  10.947   3.254  1.5601 -2.3414 -0.7418
81519SOL     OW56535   7.005   7.682   2.008 -0.3601 -0.3317  0.5507
81519SOL    HW156536   7.024   7.591   1.983  1.3756 -0.3252  1.6597
81519SOL    HW256537   7.033   7.687   2.099 -2.1447  0.8643  1.0755
81520SOL     OW56538   6.342   2.174  10.773 -0.0428 -0.3188  0.0096
81520SOL    HW156539   6.310   2.246  10.826 -2.2886  0.0196 -1.6480
81520SOL    HW256540   6.436   2.172  10.789  0.1450  3.0826 -0.0212
81521SOL     OW56541   7.145   8.782   0.534  0.1435  0.6815  0.5442
81521SOL    HW156542   7.090   8.766   0.458  1.8962 -1.2257 -0.4303
81521SOL    HW256543   7.096   8.845   0.587 -1.5745  1.3057 -1.6554
81522SOL     OW56544   9.773  12.407  12.194 -0.1090  0.1794  0.1710
81522SOL    HW156545   9.780  12.461  12.273 -2.0164  0.1717  0.3967
81522SOL    HW256546   9.856  12.420  12.148  1.4086 -0.4823  2.5645
81523SOL     OW56547   8.153   3.470  10.824 -0.3179 -0.1485 -0.7954
81523SOL    HW156548   8.222   3.534  10.805 -1.6549  1.7686  0.4918
81523SOL    HW256549   8.073   3.510  10.791 -1.2363 -1.0373  0.2668
81524SOL     OW56550   7.466   6.194   9.706 -0.4069  0.9880  0.1706
81524SOL    HW156551   7.452   6.221   9.797 -1.0981  0.5013  0.2144
81524SOL    HW256552   7.425   6.108   9.699  0.6404  0.5043 -0.3068
81525SOL     OW56553   3.377  13.781   7.321 -0.1513 -0.2823 -0.1872
81525SOL    HW156554   3.345  13.785   7.231  0.7483  0.4069 -0.4956
81525SOL    HW256555   3.470  13.803   7.314  0.1193 -1.0715  0.8151
81526SOL     OW56556  10.662   1.051   8.608 -0.5464  0.2919  0.1365
81526SOL    HW156557  10.597   0.983   8.589 -0.8830  0.8690 -0.8616
81526SOL    HW256558  10.744   1.003   8.615 -1.0846 -0.4768  1.6514
81527SOL     OW56559   9.236  12.417  13.853  0.8320  0.1365 -0.3253
81527SOL    HW156560   9.175  12.479  13.892  0.8344  0.8114 -1.3527
81527SOL    HW256561   9.194  12.391  13.771  0.8238 -1.2487  0.0909
81528SOL     OW56562   2.085  10.885   5.676 -0.4794  0.0246  0.1159
81528SOL    HW156563   2.116  10.829   5.748  1.6664  1.1148  0.1211
81528SOL    HW256564   2.087  10.828   5.599 -0.6530 -0.5568  0.5330
81529SOL     OW56565  10.678   8.207   5.210  0.0106  0.4898  0.1255
81529SOL    HW156566  10.764   8.206   5.252  0.1972  0.5915 -0.2512
81529SOL    HW256567  10.630   8.134   5.251 -0.1444  1.1627  1.2044
81530SOL     OW56568   9.120   4.600   2.635  0.1875 -0.2337 -0.0689
81530SOL    HW156569   9.056   4.647   2.582  0.7525 -0.2459 -0.7756
81530SOL    HW256570   9.174   4.553   2.571  0.3031 -0.9832  0.5677
81531SOL     OW56571   1.385   5.027   3.480 -0.4392  0.7396  0.0063
81531SOL    HW156572   1.395   5.056   3.571 -1.2193  3.4629 -0.6732
81531SOL    HW256573   1.463   5.060   3.435  0.7452 -1.9565 -0.1061
81532SOL     OW56574   0.247   6.085   5.363  0.0772  0.1937 -0.6482
81532SOL    HW156575   0.233   6.165   5.413 -1.0898 -0.4415  0.0780
81532SOL    HW256576   0.342   6.079   5.355  0.5587 -0.8990  3.5759
81533SOL     OW56577   4.161   4.858  12.908  0.9730 -0.0068 -0.3756
81533SOL    HW156578   4.126   4.899  12.988 -0.5228 -1.1131 -0.4175
81533SOL    HW256579   4.234   4.915  12.882  2.1013 -0.0877  2.2568
81534SOL     OW56580   6.479   2.427  13.361  0.1148 -0.1726  0.0220
81534SOL    HW156581   6.575   2.430  13.353  0.1231  0.4056  0.3195
81534SOL    HW256582   6.448   2.469  13.281  0.0977 -0.8211 -0.3185
81535SOL     OW56583   9.900   9.672   5.385 -0.2225  0.0970 -0.3172
81535SOL    HW156584   9.949   9.750   5.412  1.5030 -1.6284  2.0391
81535SOL    HW256585   9.808   9.695   5.398  0.1635  2.1282 -0.9569
81536SOL     OW56586  10.556  13.689   7.135  0.1176 -0.0389 -0.0036
81536SOL    HW156587  10.514  13.659   7.054  1.2020  0.9733 -0.9818
81536SOL    HW256588  10.616  13.618   7.158  0.6366  0.1479 -0.7406
81537SOL     OW56589   8.737   0.768   7.144  0.2469  1.1879 -1.0241
81537SOL    HW156590   8.805   0.815   7.191 -0.4072  1.9726 -0.8520
81537SOL    HW256591   8.663   0.829   7.139 -0.5046  0.3060 -1.0691
81538SOL     OW56592   5.812   1.142   9.140 -0.4709  0.2605  0.5266
81538SOL    HW156593   5.777   1.199   9.209 -1.6070  0.9973 -0.6099
81538SOL    HW256594   5.899   1.178   9.122 -1.4126  2.1096 -0.6201
81539SOL     OW56595   7.665   3.048   3.542 -0.2385  0.3875 -0.0686
81539SOL    HW156596   7.734   3.004   3.493  0.6483  2.5603 -0.9020
81539SOL    HW256597   7.630   2.981   3.601  2.6810 -0.7639  0.5047
81540SOL     OW56598  11.717   8.627   2.900 -0.0039 -0.2858  0.0767
81540SOL    HW156599  11.730   8.580   2.982 -1.6476  1.3933  1.3863
81540SOL    HW256600  11.658   8.572   2.849 -1.0538 -0.1767  1.1369
81541SOL     OW56601  13.149   5.932  11.508 -0.5312  0.0807 -0.1591
81541SOL    HW156602  13.113   6.001  11.563 -0.8129 -1.0538  1.1096
81541SOL    HW256603  13.225   5.899  11.557 -1.6166 -1.9037  0.2762
81542SOL     OW56604  10.100  14.022   2.347 -0.2605  0.2179 -0.0024
81542SOL    HW156605  10.108  13.936   2.305  0.0120 -0.0138  0.5131
81542SOL    HW256606  10.158  14.079   2.296 -1.0735  0.2939 -0.8522
81543SOL     OW56607  12.008  11.242   2.523  0.2641  0.1935 -0.7770
81543SOL    HW156608  11.924  11.260   2.565  0.8433  3.1920 -0.7168
81543SOL    HW256609  12.072  11.247   2.595  0.7336  0.2275 -1.1934
81544SOL     OW56610   1.653   8.951   6.807  0.2139  0.0601 -0.4665
81544SOL    HW156611   1.582   9.013   6.794  0.5770  0.5440 -0.1827
81544SOL    HW256612   1.733   9.002   6.794  0.5279 -0.1883  0.3884
81545SOL     OW56613  12.297   5.920  10.884  0.2113  0.1355  0.5692
81545SOL    HW156614  12.221   5.919  10.825 -1.2248 -0.3629  2.3389
81545SOL    HW256615  12.261   5.949  10.968  1.6631 -1.6228  1.8687
81546SOL     OW56616   1.085  11.588   9.446  0.3363 -0.4190 -1.0932
81546SOL    HW156617   1.055  11.500   9.467  2.5950 -0.5385  2.5639
81546SOL    HW256618   1.164  11.575   9.393  0.7503 -0.6711 -0.4344
81547SOL     OW56619   8.940  11.760   2.427 -0.5924 -0.8780 -0.4984
81547SOL    HW156620   8.910  11.821   2.359 -2.5355 -0.0739  0.9691
81547SOL    HW256621   8.928  11.808   2.509 -1.5897 -2.9631  0.6674
81548SOL     OW56622   8.501  13.115   7.938  0.0732  0.5259  0.2938
81548SOL    HW156623   8.513  13.039   7.882  2.3836  1.4379 -0.5903
81548SOL    HW256624   8.571  13.108   8.004 -0.4778  1.2235  0.9765
81549SOL     OW56625  13.323  11.094   4.381  0.3273  0.6002  0.4654
81549SOL    HW156626  13.376  11.168   4.352 -1.4633  1.7991  0.0862
81549SOL    HW256627  13.356  11.073   4.468  1.6702  1.0153  0.0913
81550SOL     OW56628  13.171  10.453   9.764  0.1023  0.3539  0.5624
81550SOL    HW156629  13.186  10.420   9.853 -0.0498  0.5340  0.6565
81550SOL    HW256630  13.081  10.487   9.766 -0.1730 -0.3435  0.1216
81551SOL     OW56631   8.255  10.575   1.897 -0.0473 -0.1353  0.1149
81551SOL    HW156632   8.342  10.535   1.896  0.7273  1.4569  0.1495
81551SOL    HW256633   8.254  10.629   1.976  0.2173  2.4524 -1.5295
81552SOL     OW56634   8.032   1.518   2.301 -0.7563 -0.3487  0.0470
81552SOL    HW156635   8.027   1.443   2.240  0.5506  0.5086 -1.1897
81552SOL    HW256636   7.985   1.588   2.256  0.0535  0.2388  0.1059
81553SOL     OW56637  10.429   3.013  13.440  0.0057 -0.1895 -0.1612
81553SOL    HW156638  10.433   3.030  13.345  1.3304 -2.2369 -0.5271
81553SOL    HW256639  10.520   2.995  13.465 -0.6256 -2.0265  0.9987
81554SOL     OW56640  12.433  11.143  13.320 -0.2073  0.0920 -0.5529
81554SOL    HW156641  12.462  11.158  13.410 -0.9529 -0.0051 -0.2901
81554SOL    HW256642  12.467  11.056  13.298  1.4161  0.8049 -0.9683
81555SOL     OW56643   9.928  10.461   9.773 -0.0237  0.1067  0.4608
81555SOL    HW156644   9.941  10.420   9.687 -0.1250 -1.1902  1.0396
81555SOL    HW256645   9.899  10.550   9.753 -0.2256 -0.2292 -0.8463
81556SOL     OW56646   9.177  12.622   3.008 -0.3034 -0.4820 -0.0332
81556SOL    HW156647   9.094  12.656   3.040 -0.6677 -0.4147 -1.0180
81556SOL    HW256648   9.241  12.647   3.075 -1.0616 -0.4942  0.7096
81557SOL     OW56649  12.889   7.041  13.466 -0.3773  0.3163  0.4234
81557SOL    HW156650  12.827   7.056  13.395  0.4437 -0.3164 -0.4409
81557SOL    HW256651  12.931   7.127  13.480 -1.1333  0.6434  0.7320
81558SOL     OW56652   3.515  13.201   7.598 -0.5901  0.1638  0.0392
81558SOL    HW156653   3.530  13.144   7.673  2.2451  2.3888  1.3834
81558SOL    HW256654   3.452  13.266   7.628 -0.6372  0.1471 -0.0226
81559SOL     OW56655  12.355   8.606   4.852  0.2371 -0.3150 -0.1987
81559SOL    HW156656  12.336   8.643   4.938 -0.9843 -1.8649  0.2665
81559SOL    HW256657  12.444   8.635   4.832  0.9902 -0.8094  2.0835
81560SOL     OW56658   6.763   9.418  13.917  0.0574 -0.5100 -0.3795
81560SOL    HW156659   6.848   9.375  13.909  0.2379 -0.2771  0.2745
81560SOL    HW256660   6.765   9.487  13.850  0.5391 -0.2424 -0.0936
81561SOL     OW56661   2.943   4.012  10.172 -0.6972  0.3477 -0.3041
81561SOL    HW156662   2.935   4.096  10.127 -1.3215 -1.3204 -3.5731
81561SOL    HW256663   3.033   3.984  10.154 -0.1404  0.7058  1.6797
81562SOL     OW56664   6.166  10.380   4.115 -0.0052  0.0697  0.7930
81562SOL    HW156665   6.128  10.324   4.048  1.3204  1.2098 -1.0153
81562SOL    HW256666   6.248  10.336   4.139  1.4146  1.4459 -1.1688
81563SOL     OW56667   3.159   7.856   3.618  0.0973  0.1259 -0.4121
81563SOL    HW156668   3.154   7.951   3.623  0.9763  0.2323 -1.2104
81563SOL    HW256669   3.069   7.827   3.602  0.0882  0.9642 -2.0587
81564SOL     OW56670  12.207   4.700   6.385  0.6501  0.4306  0.1133
81564SOL    HW156671  12.218   4.644   6.308  1.4973 -0.2985  0.7305
81564SOL    HW256672  12.118   4.734   6.379 -0.3508 -1.9323  0.3055
81565SOL     OW56673  11.029   9.780   1.219 -0.1753 -0.3169 -0.2402
81565SOL    HW156674  11.022   9.875   1.210 -1.2314 -0.4882 -1.5331
81565SOL    HW256675  11.086   9.753   1.146 -0.9629 -0.7929 -0.6921
81566SOL     OW56676   8.747   8.280  13.853  0.2455  0.0472 -0.1742
81566SOL    HW156677   8.661   8.322  13.860  0.6028  0.5848  1.7699
81566SOL    HW256678   8.751   8.224  13.931  1.6563  0.0555 -0.2224
81567SOL     OW56679  13.817  12.037   1.197  0.0300 -0.5643 -0.4516
81567SOL    HW156680  13.839  12.123   1.234  0.0127 -0.4859 -0.6256
81567SOL    HW256681  13.733  12.050   1.153 -0.8154 -1.0597  0.9414
81568SOL     OW56682  13.044   4.396   0.525  0.3336 -0.4097 -0.0098
81568SOL    HW156683  13.041   4.457   0.599 -0.5138 -0.8123  0.3032
81568SOL    HW256684  13.083   4.316   0.561  0.2019 -0.5041 -0.0766
81569SOL     OW56685  11.613   5.757  13.914  0.3934  0.3719  0.1651
81569SOL    HW156686  11.577   5.682  13.960 -0.4726  0.5607 -0.1813
81569SOL    HW256687  11.707   5.744  13.917  0.2324 -1.9568 -1.8952
81570SOL     OW56688   3.683   8.517   9.051  0.0062 -0.6600 -0.0734
81570SOL    HW156689   3.658   8.425   9.053 -1.3510 -0.3805 -1.7879
81570SOL    HW256690   3.605   8.563   9.020  1.1433  0.8682 -0.8546
81571SOL     OW56691  12.625   4.549  13.766 -0.2366  0.3883  0.0224
81571SOL    HW156692  12.603   4.636  13.798  2.5580  1.0676  0.3495
81571SOL    HW256693  12.683   4.512  13.832 -1.9893 -2.1230  0.2922
81572SOL     OW56694   3.233   0.011   1.381 -0.4923 -0.1799 -0.4868
81572SOL    HW156695   3.155   0.062   1.358 -0.5781  1.4147  2.8529
81572SOL    HW256696   3.300   0.076   1.399 -0.1914 -1.1610  2.5583
81573SOL     OW56697   3.302   5.619   6.308 -0.2960  0.1385  0.4263
81573SOL    HW156698   3.266   5.702   6.340 -0.1573  0.1834  0.4642
81573SOL    HW256699   3.342   5.579   6.385 -1.5560 -0.6042  0.7325
81574SOL     OW56700   3.044  10.031  10.996 -0.7559 -0.1511  0.3756
81574SOL    HW156701   3.085  10.079  11.067  0.8197  1.2359 -1.3762
81574SOL    HW256702   3.111  10.025  10.928 -2.4214 -0.7213 -1.3230
81575SOL     OW56703   7.491  12.096   2.410 -0.1397  0.3248 -0.5937
81575SOL    HW156704   7.416  12.037   2.404  0.6254 -0.7175 -0.1652
81575SOL    HW256705   7.562  12.042   2.444  0.9715  1.1423 -1.5121
81576SOL     OW56706  11.605   3.013   3.259 -0.2346  0.3374  0.2127
81576SOL    HW156707  11.698   3.036   3.269  0.1608 -1.1100  0.0679
81576SOL    HW256708  11.575   2.996   3.348 -0.5416  1.4261  0.3254
81577SOL     OW56709   5.646   3.233   9.084  0.1983  0.0601 -0.3328
81577SOL    HW156710   5.712   3.302   9.085  2.1621 -1.7004 -0.7031
81577SOL    HW256711   5.675   3.171   9.151 -0.4542 -1.2808 -1.2324
81578SOL     OW56712   4.242   5.443   4.396  0.3757 -0.0690  0.1606
81578SOL    HW156713   4.319   5.497   4.410  1.4512 -1.2470 -0.9955
81578SOL    HW256714   4.238   5.385   4.473  0.7304 -0.0992  0.1567
81579SOL     OW56715   7.066  13.475  13.158  0.2048 -0.2015 -0.0082
81579SOL    HW156716   6.995  13.497  13.219  0.1018 -1.5020  0.3560
81579SOL    HW256717   7.063  13.380  13.150  1.2863 -0.1899 -0.7625
81580SOL     OW56718  11.139  11.161   6.962  0.1155 -0.1373  0.2297
81580SOL    HW156719  11.064  11.216   6.985 -0.2150 -0.6272  0.3433
81580SOL    HW256720  11.112  11.114   6.884  0.0399 -0.8262  0.6601
81581SOL     OW56721   4.031   7.597  12.512 -0.1056 -0.0649  0.2568
81581SOL    HW156722   4.003   7.665  12.450  0.2430  1.1267  1.3675
81581SOL    HW256723   3.954   7.579  12.564  0.2503  0.7601  1.0960
81582SOL     OW56724   7.095   6.890  13.318  0.3712 -0.0964 -0.1486
81582SOL    HW156725   7.157   6.924  13.253  0.5722 -1.3317 -0.6412
81582SOL    HW256726   7.012   6.933  13.296  1.0922  1.8708  0.7623
81583SOL     OW56727  13.505   8.095   9.698  0.0679  0.4018 -0.1965
81583SOL    HW156728  13.580   8.151   9.677  2.0227 -2.9871 -3.3799
81583SOL    HW256729  13.439   8.118   9.632 -0.3711  0.9779  0.4257
81584SOL     OW56730  12.298   4.035  10.712 -0.0020 -0.2802 -0.4841
81584SOL    HW156731  12.260   4.061  10.795  1.4370  0.0215  0.1078
81584SOL    HW256732  12.278   4.107  10.652  0.9126  0.5867  0.2177
81585SOL     OW56733   3.023  13.022   1.706 -0.0636  0.7092  0.7811
81585SOL    HW156734   2.989  13.001   1.619 -0.6073 -0.0998  1.1773
81585SOL    HW256735   3.065  13.108   1.696  1.3155 -0.0931 -0.6576
81586SOL     OW56736   0.191   5.659   0.038  0.4872 -0.4869  0.5043
81586SOL    HW156737   0.131   5.708   0.093  1.4779  3.3128 -1.4630
81586SOL    HW256738   0.266   5.642   0.095  0.4288  1.0702  1.1090
81587SOL     OW56739   9.509   2.414  11.946  0.4920 -0.3779 -0.0722
81587SOL    HW156740   9.586   2.469  11.929  1.5776 -2.2727 -1.6520
81587SOL    HW256741   9.518   2.340  11.886 -2.0158 -1.2335  0.4838
81588SOL     OW56742   2.949   3.150  10.095 -0.2179 -0.8333 -0.1466
81588SOL    HW156743   2.984   3.179  10.180  1.6056 -2.8839 -0.1065
81588SOL    HW256744   3.008   3.189  10.031  0.1019 -1.4896 -0.2694
81589SOL     OW56745   0.805  12.188   7.746 -0.0708  0.2426 -0.5072
81589SOL    HW156746   0.860  12.235   7.809  0.4907  0.8668 -1.4404
81589SOL    HW256747   0.866  12.151   7.683 -0.6016 -0.6724 -0.5040
81590SOL     OW56748  11.728   9.382   1.754 -0.1690  1.0744 -0.1144
81590SOL    HW156749  11.675   9.423   1.686  0.3445  0.3843 -0.9466
81590SOL    HW256750  11.796   9.334   1.707  1.0247  1.6736  0.9212
81591SOL     OW56751  13.424   1.296  14.034 -0.3946  0.2408 -0.1751
81591SOL    HW156752  13.486   1.227  14.056 -1.3365 -0.3424  0.7363
81591SOL    HW256753  13.474   1.377  14.046  0.3577 -0.2334 -0.0194
81592SOL     OW56754   8.806  10.563  12.664 -0.3726  0.2267 -0.4647
81592SOL    HW156755   8.892  10.543  12.627 -0.3313 -0.1660 -0.1670
81592SOL    HW256756   8.744  10.519  12.606 -0.2690 -1.0507  0.3291
81593SOL     OW56757   6.176   4.124   3.980  0.2007 -0.0802 -0.5958
81593SOL    HW156758   6.128   4.055   3.933  0.5144 -0.2771 -0.6281
81593SOL    HW256759   6.229   4.077   4.044  0.3478  0.1416 -0.5539
81594SOL     OW56760   4.446   0.455  10.311  0.3375  0.6414 -0.3616
81594SOL    HW156761   4.502   0.457  10.233 -0.1896 -1.3172 -0.8446
81594SOL    HW256762   4.373   0.398  10.288  0.1391  0.0338  1.5518
81595SOL     OW56763   7.873  11.995   5.060  0.1214  0.5000 -0.5998
81595SOL    HW156764   7.833  11.977   5.145  0.0215  1.2685 -0.4697
81595SOL    HW256765   7.848  12.086   5.041 -0.3158  0.1717 -1.7010
81596SOL     OW56766   3.544   5.297   2.134  0.6107 -0.3185 -0.2585
81596SOL    HW156767   3.612   5.359   2.160 -0.4471  0.2456  1.3066
81596SOL    HW256768   3.560   5.220   2.187  0.5015 -0.4944 -0.4758
81597SOL     OW56769   4.312   6.352  12.306  0.0542  0.1462  0.8033
81597SOL    HW156770   4.358   6.392  12.232 -0.0173 -1.6133 -0.2625
81597SOL    HW256771   4.219   6.372  12.290  0.0960  0.3016  0.7530
81598SOL     OW56772   8.309   7.291   0.568 -0.7051  0.1923  0.7466
81598SOL    HW156773   8.277   7.380   0.578  1.7216  1.2545 -0.1933
81598SOL    HW256774   8.369   7.278   0.642  1.1216  0.4436 -0.6099
81599SOL     OW56775  11.497   5.978  11.029 -0.3799 -0.1654 -0.5209
81599SOL    HW156776  11.573   5.999  10.975 -0.7946 -1.2768 -1.5747
81599SOL    HW256777  11.514   5.891  11.064 -0.4109  0.2726  0.6608
81600SOL     OW56778  10.951   3.128   5.782  0.0928  0.3009  0.3431
81600SOL    HW156779  10.929   3.196   5.719  0.2305 -0.2454 -0.3016
81600SOL    HW256780  10.936   3.046   5.736  1.9016 -0.1172  0.3899
81601SOL     OW56781   7.397   6.752   2.967 -0.0120 -0.0645 -0.2913
81601SOL    HW156782   7.455   6.797   2.906  0.5077 -1.8378 -1.1950
81601SOL    HW256783   7.433   6.663   2.973 -1.8876 -0.8501  0.1174
81602SOL     OW56784  10.957   2.399   8.294 -0.3037 -0.4928 -0.4688
81602SOL    HW156785  10.919   2.345   8.363  0.5320  1.4818  1.6974
81602SOL    HW256786  10.907   2.480   8.297  1.2710  0.5168 -0.5183
81603SOL     OW56787   5.797   0.123  13.437 -0.6633 -0.6948 -0.4219
81603SOL    HW156788   5.790   0.203  13.489 -0.5139 -0.7366 -0.3362
81603SOL    HW256789   5.891   0.116  13.417 -0.4855 -1.5222  0.6386
81604SOL     OW56790  13.218   8.718   4.427 -0.0740  0.3910  0.2214
81604SOL    HW156791  13.161   8.641   4.419  2.0936 -1.3308  0.4738
81604SOL    HW256792  13.298   8.693   4.381  0.6207  2.6259  0.1048
81605SOL     OW56793   0.452  13.384   9.640 -0.2530 -0.6327 -0.3451
81605SOL    HW156794   0.522  13.346   9.588 -0.1484  0.9852 -1.4621
81605SOL    HW256795   0.494  13.412   9.721  0.4499  0.3500 -1.0181
81606SOL     OW56796   9.898  11.948   7.889  0.3322  0.3215 -0.1526
81606SOL    HW156797   9.833  11.895   7.843  0.8876  0.1178 -0.7133
81606SOL    HW256798   9.937  11.889   7.954  0.6326  0.1710 -0.4697
81607SOL     OW56799   1.089   1.824   3.107 -0.3354  0.3645  0.2318
81607SOL    HW156800   1.068   1.874   3.028  0.2742 -1.1280 -0.9122
81607SOL    HW256801   1.079   1.887   3.178  0.3283  2.1051 -1.1373
81608SOL     OW56802   7.273  12.903   6.193 -0.7554  0.1974 -0.5526
81608SOL    HW156803   7.337  12.906   6.122 -0.3500  0.2471 -0.1960
81608SOL    HW256804   7.189  12.893   6.150 -0.3731 -1.5807 -0.9838
81609SOL     OW56805   7.786   0.555  12.263 -0.0394  0.1267 -0.7966
81609SOL    HW156806   7.853   0.622  12.280  1.7809 -1.3640 -1.8321
81609SOL    HW256807   7.826   0.473  12.291 -1.9229 -0.6837 -0.3171
81610SOL     OW56808   0.478   9.773   2.256  0.1671 -0.0448  0.1297
81610SOL    HW156809   0.522   9.812   2.332  0.9776  0.1735 -0.4327
81610SOL    HW256810   0.482   9.679   2.273 -2.8675  0.0402  2.0802
81611SOL     OW56811   0.796   2.109   2.112 -0.6331  0.3084 -0.5512
81611SOL    HW156812   0.860   2.118   2.042 -0.5508 -1.0475 -0.6757
81611SOL    HW256813   0.840   2.144   2.190 -0.0769  0.2112 -0.8177
81612SOL     OW56814   0.795  12.972  13.858  0.9373 -0.7011 -0.1046
81612SOL    HW156815   0.831  13.008  13.939  0.3213  0.6893 -0.4123
81612SOL    HW256816   0.842  13.018  13.788 -1.2117  1.0591 -0.5153
81613SOL     OW56817  10.437   0.457   0.535  0.0830 -0.2684 -0.6622
81613SOL    HW156818  10.445   0.552   0.532  0.5140 -0.2888 -0.2732
81613SOL    HW256819  10.401   0.438   0.622 -0.6968 -0.4202 -1.0075
81614SOL     OW56820   9.057   6.405  10.821  0.2799  0.8078  0.1339
81614SOL    HW156821   9.022   6.351  10.892 -0.4076  0.3690 -0.5232
81614SOL    HW256822   9.152   6.389  10.824  0.5495  2.3856  2.2395
81615SOL     OW56823   3.844   5.774  12.181 -0.0855  0.1838 -0.3287
81615SOL    HW156824   3.806   5.801  12.097 -0.1873  1.5468  0.1336
81615SOL    HW256825   3.908   5.706  12.158 -0.2326  0.4171 -1.4819
81616SOL     OW56826   0.021   3.709   8.449 -0.3525  0.3580  0.2389
81616SOL    HW156827  -0.060   3.678   8.408  0.8743 -0.9666 -1.3051
81616SOL    HW256828  -0.007   3.778   8.509 -2.6851 -0.5105  0.2363
81617SOL     OW56829  13.227  11.371   2.619  0.6018  0.6154  0.4054
81617SOL    HW156830  13.154  11.388   2.679  0.0049  1.9106 -0.6393
81617SOL    HW256831  13.212  11.281   2.588  0.3995  0.2695  1.4377
81618SOL     OW56832   3.092   5.296   9.190 -0.0527 -0.0687  0.1404
81618SOL    HW156833   3.020   5.233   9.188  0.3110 -0.4849  0.0496
81618SOL    HW256834   3.083   5.345   9.108  0.3916 -0.8331 -0.3786
81619SOL     OW56835  12.728   6.447  12.603  0.3201 -0.5823  0.5702
81619SOL    HW156836  12.653   6.485  12.648  2.1041  3.4201  0.5689
81619SOL    HW256837  12.696   6.430  12.514 -0.8815 -0.0280  0.8744
81620SOL     OW56838   2.525  10.983   2.277  0.4030  0.0972 -0.1155
81620SOL    HW156839   2.491  11.044   2.342  1.2989  0.2185  0.2477
81620SOL    HW256840   2.462  10.910   2.278 -0.1557  0.5730  0.1227
81621SOL     OW56841  11.699  11.030   1.113  0.2555  0.1952  0.9250
81621SOL    HW156842  11.755  11.086   1.167 -1.6659  2.2902  0.8705
81621SOL    HW256843  11.610  11.055   1.137 -0.6660 -0.5410 -1.4659
81622SOL     OW56844   8.334   0.488   4.106 -0.5205 -0.3598 -0.2422
81622SOL    HW156845   8.358   0.396   4.107 -1.2372 -0.5533  0.8574
81622SOL    HW256846   8.246   0.490   4.068 -0.0485  0.0195 -1.3812
81623SOL     OW56847   8.557  10.789   0.474 -0.2530  0.0910 -0.2206
81623SOL    HW156848   8.488  10.835   0.521  0.0388  0.0545  0.2555
81623SOL    HW256849   8.530  10.791   0.382 -0.6431  0.4963 -0.0991
81624SOL     OW56850   7.423   3.452   2.396 -0.7235 -1.0830  0.1926
81624SOL    HW156851   7.361   3.407   2.339  0.8580 -1.2779 -1.4686
81624SOL    HW256852   7.461   3.520   2.340  1.0444 -1.4150  0.9353
81625SOL     OW56853  12.189  12.070   1.420 -0.0971 -0.6195 -0.1879
81625SOL    HW156854  12.280  12.065   1.392  0.4594 -1.3988  1.5567
81625SOL    HW256855  12.187  12.017   1.500 -1.6671  0.9207  0.8530
81626SOL     OW56856   6.379   8.953   7.607 -0.3640 -0.0824 -0.1091
81626SOL    HW156857   6.463   8.907   7.602  0.1703  0.8475 -0.0836
81626SOL    HW256858   6.325   8.911   7.540  0.5878  0.1995 -1.1023
81627SOL     OW56859   3.815   8.180  13.863 -0.0047 -0.0442 -0.0575
81627SOL    HW156860   3.791   8.272  13.858  0.4449  0.0084 -2.1177
81627SOL    HW256861   3.815   8.150  13.772  2.4396 -1.4058  0.2972
81628SOL     OW56862   6.526   3.725   5.200 -0.2509  0.3273  0.6599
81628SOL    HW156863   6.618   3.735   5.175  0.2583 -1.4748  1.6527
81628SOL    HW256864   6.518   3.634   5.229 -2.1976  0.6247  1.2216
81629SOL     OW56865  12.371  11.881  11.002  0.5830  0.5044 -0.5528
81629SOL    HW156866  12.365  11.809  11.066  1.1409  1.7586  0.9818
81629SOL    HW256867  12.286  11.882  10.959  0.3308 -0.6308 -0.1310
81630SOL     OW56868   9.356   1.477   0.936 -0.6935  0.2819 -0.3573
81630SOL    HW156869   9.341   1.466   0.842  0.1267 -1.7130 -0.3037
81630SOL    HW256870   9.446   1.507   0.943 -0.2284 -1.1103 -0.1685
81631SOL     OW56871   0.323   9.213   4.751 -0.7649  0.3975 -0.2369
81631SOL    HW156872   0.238   9.171   4.760 -1.0480  0.6666 -1.5129
81631SOL    HW256873   0.312   9.275   4.679  0.3892  0.7515 -0.1311
81632SOL     OW56874   1.338   5.168  11.265  0.2967 -0.0298 -0.0542
81632SOL    HW156875   1.354   5.174  11.171 -2.5932 -0.6675 -0.6906
81632SOL    HW256876   1.300   5.253  11.288 -0.1082 -0.2966  0.2747
81633SOL     OW56877  11.041  12.011   7.792 -0.1721  0.2987 -0.0516
81633SOL    HW156878  11.117  12.056   7.754  1.4356  0.5214  3.1337
81633SOL    HW256879  11.002  12.075   7.851 -1.1413 -0.7285  0.4484
81634SOL     OW56880   7.310   8.366   9.412 -0.2654  0.0969  0.4571
81634SOL    HW156881   7.345   8.306   9.478 -0.3366  0.8359  1.1853
81634SOL    HW256882   7.378   8.433   9.404 -1.1972  1.1982  1.4127
81635SOL     OW56883   0.205   8.226   1.095  0.3817 -0.2335 -0.0895
81635SOL    HW156884   0.236   8.164   1.029  1.5354 -0.5120  0.6773
81635SOL    HW256885   0.111   8.209   1.102  0.4256 -0.8887 -0.9409
81636SOL     OW56886   1.753   9.019   5.655 -0.2378  0.6965 -0.2697
81636SOL    HW156887   1.663   9.003   5.683  0.4516 -1.9466  0.7841
81636SOL    HW256888   1.766   8.960   5.581  0.7457  0.7022 -0.1133
81637SOL     OW56889  12.955   0.572  11.327 -0.0070 -0.0735  0.4219
81637SOL    HW156890  12.974   0.551  11.419 -1.5168  0.6397  0.9330
81637SOL    HW256891  12.929   0.664  11.329 -0.8395 -0.2723 -0.5861
81638SOL     OW56892   1.551   2.176   1.925  0.5153  0.1425 -0.0991
81638SOL    HW156893   1.609   2.228   1.981  0.6788 -1.3710  1.2353
81638SOL    HW256894   1.571   2.085   1.950  0.7912 -0.6286 -2.8458
81639SOL     OW56895   6.969   6.298  13.940  0.1576 -0.2296 -0.0429
81639SOL    HW156896   6.998   6.216  13.901  0.1930 -0.3131  0.1587
81639SOL    HW256897   6.889   6.276  13.987  0.4871 -0.2710  0.5032
81640SOL     OW56898   0.633   5.239   0.819  0.8975  0.4230 -0.3190
81640SOL    HW156899   0.707   5.194   0.779  1.5676  0.1686  1.1385
81640SOL    HW256900   0.667   5.326   0.842  0.4821  0.6219 -0.4401
81641SOL     OW56901   4.958   5.467   4.260  0.1428  0.0499  0.0687
81641SOL    HW156902   4.882   5.469   4.202 -1.6453  0.0508  2.3025
81641SOL    HW256903   4.968   5.376   4.285  1.1699 -0.0166 -0.5034
81642SOL     OW56904  13.122   7.334   7.460 -0.2486 -0.4244 -0.2005
81642SOL    HW156905  13.182   7.405   7.483 -0.4326 -0.4097  0.2350
81642SOL    HW256906  13.035   7.370   7.475 -0.4090 -0.2000 -1.5175
81643SOL     OW56907   9.681  10.554   5.134 -0.2028  0.2270 -0.0386
81643SOL    HW156908   9.648  10.465   5.127 -1.0278  0.5516 -0.4291
81643SOL    HW256909   9.719  10.572   5.048 -1.2075  0.6867 -0.4094
81644SOL     OW56910   4.623  11.418  11.282  0.6514  0.2806 -0.6715
81644SOL    HW156911   4.681  11.455  11.215 -0.3173  0.0369 -1.6729
81644SOL    HW256912   4.661  11.447  11.365  0.4566  2.8082 -1.3665
81645SOL     OW56913   4.588   7.118  12.089 -0.0039 -0.4599 -0.3847
81645SOL    HW156914   4.567   7.137  12.181 -0.5839 -2.0178 -0.1571
81645SOL    HW256915   4.667   7.169  12.071 -0.5041  0.7207  0.6461
81646SOL     OW56916   3.141   7.161   7.668  0.2201  0.1081 -0.2114
81646SOL    HW156917   3.183   7.224   7.609 -0.4272 -1.2078 -2.1626
81646SOL    HW256918   3.054   7.147   7.631 -0.3004 -0.5858  1.2059
81647SOL     OW56919   8.014   3.685   2.082 -0.3470  0.2512  0.9294
81647SOL    HW156920   7.993   3.775   2.107 -1.2800  0.0367  0.9582
81647SOL    HW256921   7.959   3.631   2.139 -2.4369 -0.2591 -1.3900
81648SOL     OW56922   1.678   0.358  13.165  0.2944 -0.2745  0.6730
81648SOL    HW156923   1.688   0.433  13.223 -1.5855  0.5295  0.0454
81648SOL    HW256924   1.658   0.396  13.079 -0.0157 -1.4736  0.1905
81649SOL     OW56925   1.308   6.791  11.539  0.3664 -0.1378 -0.4056
81649SOL    HW156926   1.397   6.814  11.566  1.2720  0.5914 -3.5911
81649SOL    HW256927   1.277   6.733  11.608  2.0997  2.0198  2.4028
81650SOL     OW56928  12.682   2.629   8.340 -0.1123 -0.3022 -0.1535
81650SOL    HW156929  12.603   2.604   8.387  1.3546 -2.1445  1.4775
81650SOL    HW256930  12.739   2.668   8.407  0.8685 -0.1737 -1.0332
81651SOL     OW56931  13.783  10.372   2.274  0.6853 -0.2385 -0.1695
81651SOL    HW156932  13.811  10.449   2.324  0.7212  1.3789 -2.4966
81651SOL    HW256933  13.692  10.391   2.250  0.5708 -1.1167 -0.4460
81652SOL     OW56934   5.344   5.408   0.630 -0.4007 -0.5083  0.5151
81652SOL    HW156935   5.266   5.355   0.613 -0.2890 -0.8961  1.1769
81652SOL    HW256936   5.315   5.477   0.689 -0.4072 -0.1975  0.1524
81653SOL     OW56937   8.387   2.789   2.223  0.0370 -0.2927  0.3207
81653SOL    HW156938   8.469   2.818   2.183 -0.6345 -0.7742 -1.5044
81653SOL    HW256939   8.363   2.860   2.282  1.3599  0.1956  0.3113
81654SOL     OW56940   3.215   7.824   9.053 -0.2782 -0.1412  0.1421
81654SOL    HW156941   3.171   7.739   9.061  0.2746 -0.5155 -0.5951
81654SOL    HW256942   3.145   7.887   9.040 -0.5951 -0.8526 -2.0749
81655SOL     OW56943  10.756  11.575   7.765  0.3672 -0.1826  0.1910
81655SOL    HW156944  10.751  11.646   7.830  0.0183 -1.5563  1.7375
81655SOL    HW256945  10.789  11.500   7.815  3.3907 -0.4576 -1.9945
81656SOL     OW56946   7.492  12.436  11.533 -0.1541 -0.5405 -0.1957
81656SOL    HW156947   7.503  12.520  11.578  0.5869 -1.0982  0.7120
81656SOL    HW256948   7.414  12.447  11.480 -0.4620  0.4970  0.4426
81657SOL     OW56949   9.767   3.540  11.081 -0.3708  0.2281  0.0055
81657SOL    HW156950   9.821   3.609  11.119 -0.3172 -0.6158  1.5296
81657SOL    HW256951   9.779   3.550  10.986  0.0370  1.9646  0.2066
81658SOL     OW56952   0.619   5.919   1.509  0.2575  0.2581  0.4325
81658SOL    HW156953   0.638   5.983   1.578 -0.6588  0.2433  0.7114
81658SOL    HW256954   0.555   5.962   1.453  0.2738 -0.0968  0.1386
81659SOL     OW56955  13.400   2.749  10.434  0.1614  0.1803  0.5194
81659SOL    HW156956  13.495   2.737  10.429  0.1654 -0.1070  1.1442
81659SOL    HW256957  13.389   2.840  10.462  0.1896  0.9330 -1.7552
81660SOL     OW56958  10.234   1.193   9.030  0.4829  0.1950 -0.6777
81660SOL    HW156959  10.175   1.249   8.979  1.3184  0.9600 -0.8229
81660SOL    HW256960  10.182   1.168   9.106 -0.6788 -0.7215 -1.7350
81661SOL     OW56961   1.953  12.338   5.770  0.5134 -0.2145  0.0771
81661SOL    HW156962   1.861  12.358   5.754  0.0237 -2.7216 -0.7036
81661SOL    HW256963   2.001  12.408   5.726 -1.0248  0.0584 -1.2530
81662SOL     OW56964   3.183   1.543   8.994  0.4063 -0.0182 -0.2208
81662SOL    HW156965   3.156   1.600   9.066  1.1133  0.4697 -0.3278
81662SOL    HW256966   3.142   1.458   9.013  0.1091  0.2709  0.4385
81663SOL     OW56967   3.998   3.874   6.951 -0.5057  0.0811 -0.1526
81663SOL    HW156968   3.995   3.795   6.897 -1.3419  0.2700 -0.3840
81663SOL    HW256969   3.983   3.946   6.890 -0.2793  0.3861  0.1467
81664SOL     OW56970   2.039   8.973   8.679  0.0149 -0.5105  0.5297
81664SOL    HW156971   2.086   9.057   8.683  0.9058 -0.8345 -1.6585
81664SOL    HW256972   1.959   8.993   8.630 -0.0583 -0.8131  0.5257
81665SOL     OW56973   0.880  10.212   8.966 -0.5859  0.3526 -0.3636
81665SOL    HW156974   0.897  10.299   8.930 -1.0530  1.0270  0.9635
81665SOL    HW256975   0.830  10.229   9.046  0.3098 -1.0661  0.5406
81666SOL     OW56976   5.867  10.130   1.224  0.5622 -0.0955  0.3469
81666SOL    HW156977   5.847  10.217   1.190 -0.1551 -0.0081  0.9713
81666SOL    HW256978   5.809  10.119   1.299  0.9446 -0.9462  0.5365
81667SOL     OW56979   2.688  12.467   1.053  1.0773  0.3072  0.0060
81667SOL    HW156980   2.695  12.442   1.145 -1.3839 -1.0943 -0.1085
81667SOL    HW256981   2.623  12.408   1.017  1.2559  1.4817 -2.4288
81668SOL     OW56982   0.544  13.964  11.402 -0.7385  0.0970 -0.2051
81668SOL    HW156983   0.558  14.029  11.470 -0.0630  0.1197 -0.3555
81668SOL    HW256984   0.564  13.881  11.443 -0.0727  0.1338 -0.4356
81669SOL     OW56985   3.932  13.853   3.662 -0.4593 -0.8200 -0.0778
81669SOL    HW156986   3.921  13.931   3.716  0.8741  1.6665 -3.1297
81669SOL    HW256987   3.998  13.801   3.707  0.4571  1.0465  0.8172
81670SOL     OW56988   0.705   4.744  12.320  0.0334 -0.0054  0.0002
81670SOL    HW156989   0.768   4.772  12.254 -1.6291 -0.9398 -2.0662
81670SOL    HW256990   0.624   4.788  12.296 -0.6534 -0.4954  1.3371
81671SOL     OW56991   6.452   7.188   1.310 -0.2011 -0.3271  0.0259
81671SOL    HW156992   6.499   7.161   1.231 -2.1935 -0.4096 -1.1900
81671SOL    HW256993   6.521   7.217   1.369  1.5086 -2.0010 -1.0292
81672SOL     OW56994   7.116  13.959   7.532 -0.2321 -0.0798 -0.1301
81672SOL    HW156995   7.133  13.994   7.444  2.1761 -0.6134  0.0648
81672SOL    HW256996   7.152  14.024   7.592 -0.7492 -0.3011  0.4277
81673SOL     OW56997  10.333  10.852  12.578  0.7870 -0.1413  0.4023
81673SOL    HW156998  10.411  10.894  12.616  0.5551 -0.4905  1.3017
81673SOL    HW256999  10.360  10.762  12.563  0.0616 -0.7689  2.4313
81674SOL     OW57000   5.784  13.597   0.234  0.3801 -0.4250  0.2763
81674SOL    HW157001   5.707  13.569   0.283 -0.6141 -1.3194 -1.6919
81674SOL    HW257002   5.847  13.526   0.246 -0.2460 -1.1357 -0.5713
81675SOL     OW57003   3.205   1.747   7.846  0.5521  0.1256  0.1463
81675SOL    HW157004   3.184   1.718   7.757 -0.5925  1.8055 -0.1847
81675SOL    HW257005   3.300   1.761   7.845  0.4013  1.2788 -1.2062
81676SOL     OW57006   5.378   0.846   4.242 -0.6265 -0.5789 -0.8116
81676SOL    HW157007   5.336   0.929   4.265  0.8772  0.1329 -0.4764
81676SOL    HW257008   5.329   0.780   4.290 -0.4804  0.3708  0.7346
81677SOL     OW57009   4.673   6.903  10.070 -0.3428  0.4597  0.3332
81677SOL    HW157010   4.608   6.843  10.106  0.3371  0.3696  1.4718
81677SOL    HW257011   4.650   6.988  10.108 -1.2814  0.9489 -1.2478
81678SOL     OW57012  11.250   8.478   0.389 -0.1599 -0.5589 -0.3467
81678SOL    HW157013  11.264   8.515   0.302  1.3321  0.7644  0.3982
81678SOL    HW257014  11.160   8.500   0.411 -0.0233  0.5979 -0.8805
81679SOL     OW57015   4.435  13.026  13.910 -0.3225  0.5751  0.4382
81679SOL    HW157016   4.530  13.038  13.912 -0.4453  1.4911  1.5973
81679SOL    HW257017   4.417  12.961  13.978 -0.5109  0.1591  0.0015
81680SOL     OW57018  12.919   6.327   6.640  0.1371  0.7729  0.0316
81680SOL    HW157019  13.002   6.298   6.602 -1.2518 -0.9245 -1.9805
81680SOL    HW257020  12.897   6.406   6.590  0.2927  0.9355  0.2181
81681SOL     OW57021   9.036   9.116   6.514  0.0774 -0.2547  0.2742
81681SOL    HW157022   9.083   9.188   6.471  1.3571 -0.5804  1.0792
81681SOL    HW257023   8.969   9.091   6.451  1.0953  0.1117 -1.0091
81682SOL     OW57024   2.305   8.541  12.157  0.2596  0.0688 -0.1500
81682SOL    HW157025   2.269   8.568  12.072 -0.9159  0.8791  0.5745
81682SOL    HW257026   2.314   8.446  12.149 -1.2124 -0.0610 -0.7196
81683SOL     OW57027  11.102   8.037  11.906  0.2564  0.0577  0.3934
81683SOL    HW157028  11.192   8.012  11.926  0.6930  0.0267 -1.4667
81683SOL    HW257029  11.096   8.033  11.811 -1.8269 -0.2987  0.4883
81684SOL     OW57030   6.081  13.945   8.974  0.3359  0.1965  0.1437
81684SOL    HW157031   6.061  13.943   8.881 -0.8734 -2.0027  0.3938
81684SOL    HW257032   6.153  13.883   8.985  0.0664 -0.0117  0.7529
81685SOL     OW57033   8.763   5.606   6.447 -0.6602  1.2171  0.3597
81685SOL    HW157034   8.845   5.630   6.403  0.0973 -0.8169  0.5819
81685SOL    HW257035   8.762   5.660   6.526  1.0556  0.4853  0.9260
81686SOL     OW57036   2.237  13.151   7.026 -0.1530  0.2614  0.3567
81686SOL    HW157037   2.272  13.175   6.940  0.9974 -0.5822  0.5622
81686SOL    HW257038   2.213  13.234   7.066 -0.8673  0.6497 -0.8441
81687SOL     OW57039   3.448   7.216  10.880  0.2197 -0.0025  0.4060
81687SOL    HW157040   3.369   7.249  10.838  0.5806 -0.3245 -0.5672
81687SOL    HW257041   3.439   7.240  10.972 -0.9478  0.0656  0.2850
81688SOL     OW57042  11.451   8.531   8.779  0.0346 -0.1904 -0.5303
81688SOL    HW157043  11.540   8.537   8.814  0.1737  0.4378 -0.9776
81688SOL    HW257044  11.395   8.554   8.854  0.2267 -0.9254 -0.1568
81689SOL     OW57045   8.958   1.234   6.658 -0.2457  0.4956  0.3545
81689SOL    HW157046   8.932   1.324   6.677  0.2280  0.6143  0.4646
81689SOL    HW257047   8.879   1.182   6.670 -0.5064  0.8921  0.3498
81690SOL     OW57048  13.450  10.511   5.917 -0.3046  0.6521  0.1298
81690SOL    HW157049  13.457  10.605   5.931  3.1403  0.5367  0.0742
81690SOL    HW257050  13.443  10.502   5.822  2.4345  0.8940 -0.1795
81691SOL     OW57051  10.797  11.155   4.013  0.1416  0.1313  0.2983
81691SOL    HW157052  10.878  11.203   4.032 -0.0516  0.1025  1.2731
81691SOL    HW257053  10.757  11.142   4.099 -0.7352 -0.1451 -0.1422
81692SOL     OW57054   9.891   8.413   6.744 -0.0326 -0.3215 -0.0858
81692SOL    HW157055   9.878   8.466   6.665  0.2983  1.1124  0.7832
81692SOL    HW257056   9.901   8.477   6.815  1.4337 -1.5160  0.8590
81693SOL     OW57057   0.421   1.510   1.083  0.5658 -0.1832 -0.1701
81693SOL    HW157058   0.515   1.523   1.093  0.5550  0.4865 -0.9278
81693SOL    HW257059   0.382   1.570   1.146  0.6516 -2.0946  1.8519
81694SOL     OW57060   3.587  10.509   9.217  0.0715  0.2257  0.2179
81694SOL    HW157061   3.523  10.572   9.184 -2.2410 -0.4360  2.9180
81694SOL    HW257062   3.584  10.436   9.155 -2.5183 -0.1072  0.5999
81695SOL     OW57063   9.028   8.463  10.521  0.3060 -0.1647  0.8375
81695SOL    HW157064   8.991   8.375  10.520 -0.2958  0.0812  0.8104
81695SOL    HW257065   8.953   8.520  10.507  0.9052  0.2832 -0.6990
81696SOL     OW57066  11.809  12.801   3.544  0.2112  0.3601 -0.0259
81696SOL    HW157067  11.719  12.794   3.511  0.8623 -0.8907 -1.7162
81696SOL    HW257068  11.851  12.864   3.486  0.4144  1.0177  0.8211
81697SOL     OW57069   4.135   5.887   4.818  0.3829  0.5463 -0.0784
81697SOL    HW157070   4.069   5.829   4.782 -1.3191  0.2257  3.1751
81697SOL    HW257071   4.216   5.861   4.775 -0.9897 -1.5387 -1.5853
81698SOL     OW57072  13.146   1.740  10.076  0.2135 -0.2780 -0.1237
81698SOL    HW157073  13.232   1.713  10.109  0.3109  0.0250 -0.1328
81698SOL    HW257074  13.146   1.835  10.083 -1.0143 -0.3726  2.1813
81699SOL     OW57075  12.810   4.432   1.901 -0.2931 -0.2025  0.1469
81699SOL    HW157076  12.863   4.459   1.825 -1.1427  0.7967 -0.1151
81699SOL    HW257077  12.785   4.342   1.881  0.5243 -0.3761 -0.1629
81700SOL     OW57078   3.817   3.149   3.360 -0.1371 -0.1182 -0.2257
81700SOL    HW157079   3.761   3.152   3.438 -0.4153  0.8025 -0.4426
81700SOL    HW257080   3.893   3.202   3.382  0.4868 -1.0619 -0.0679
81701SOL     OW57081  10.476   5.991   0.520  0.2404 -0.0362  0.3729
81701SOL    HW157082  10.495   5.973   0.428  1.7252 -0.6021  0.7694
81701SOL    HW257083  10.388   6.030   0.519  0.5339  0.6493 -1.3361
81702SOL     OW57084  10.746  10.698   3.219 -0.7072  0.5044  0.1639
81702SOL    HW157085  10.822  10.742   3.256 -0.3240 -1.2547  1.5947
81702SOL    HW257086  10.782  10.644   3.148 -0.6269 -0.1381  0.6810
81703SOL     OW57087   4.189   4.120   2.190 -0.1344  0.1450  0.0320
81703SOL    HW157088   4.239   4.039   2.193  1.2933  0.9657  3.1637
81703SOL    HW257089   4.217   4.163   2.109  2.3599 -0.6166  0.4138
81704SOL     OW57090  11.522   9.191  10.195  0.1457  0.0457 -0.2345
81704SOL    HW157091  11.549   9.239  10.117 -0.5413  1.3359  0.2777
81704SOL    HW257092  11.602   9.184  10.248  0.8047 -1.5626 -1.3709
81705SOL     OW57093   2.943   8.976  13.572  0.2670  0.1685  0.9245
81705SOL    HW157094   2.877   8.908  13.563  0.3020  0.2921 -0.4003
81705SOL    HW257095   2.913   9.030  13.645 -1.2010  0.3326  0.2261
81706SOL     OW57096   4.781   5.621   1.120 -0.6263  0.7447 -0.1823
81706SOL    HW157097   4.707   5.636   1.178 -0.4726  2.8579 -0.4669
81706SOL    HW257098   4.751   5.554   1.058 -1.6144  0.2122  0.8566
81707SOL     OW57099   5.486   0.799   3.996 -0.3990 -0.0215 -0.0152
81707SOL    HW157100   5.440   0.811   4.079 -0.4929 -0.6670  0.0300
81707SOL    HW257101   5.418   0.775   3.934 -0.4497  1.2540 -0.4758
81708SOL     OW57102   0.588   3.521  13.088  0.1143  0.1018 -0.2470
81708SOL    HW157103   0.601   3.452  13.153 -1.4333  0.2004  0.2146
81708SOL    HW257104   0.675   3.539  13.053  0.9759  0.0274  1.7743
81709SOL     OW57105   8.501   2.083   7.307  0.0711  0.1256 -0.1725
81709SOL    HW157106   8.519   2.172   7.336  0.2146 -0.0852  0.4016
81709SOL    HW257107   8.517   2.084   7.213  0.7236  0.5413 -0.0573
81710SOL     OW57108   6.531   1.846   9.877  0.0646 -0.2344 -0.5364
81710SOL    HW157109   6.563   1.776   9.820  0.2018  0.4566 -1.3265
81710SOL    HW257110   6.479   1.902   9.819 -0.6527 -0.0734  0.2424
81711SOL     OW57111   1.226   7.048   6.442 -0.0517 -0.1143 -0.7041
81711SOL    HW157112   1.226   6.958   6.410 -2.1616  0.3529 -2.2233
81711SOL    HW257113   1.152   7.051   6.503  1.5187  0.0310  1.3184
81712SOL     OW57114   4.381   6.781   8.349  0.3507  0.0110  0.3547
81712SOL    HW157115   4.330   6.701   8.346  1.4411 -0.8967  2.9113
81712SOL    HW257116   4.439   6.770   8.425  0.6109  3.1700  0.7712
81713SOL     OW57117   5.704   7.777   6.448 -0.3079 -0.0642  0.2177
81713SOL    HW157118   5.621   7.824   6.451 -0.1299  0.2315  2.7782
81713SOL    HW257119   5.769   7.844   6.426 -0.5119  0.1123  0.1530
81714SOL     OW57120   2.789   7.035   8.933 -0.1208 -0.3655  0.3184
81714SOL    HW157121   2.820   6.979   9.004  0.3494 -0.8788 -0.2731
81714SOL    HW257122   2.861   7.036   8.870 -0.3172  0.5130  0.0872
81715SOL     OW57123  10.964   5.008   8.127 -0.3284 -0.2067  0.3249
81715SOL    HW157124  11.017   4.950   8.182  1.4229  0.4649 -0.5832
81715SOL    HW257125  10.952   5.087   8.179  0.2523 -0.0568  0.2370
81716SOL     OW57126   2.863  10.797   1.463  0.3218 -0.5295 -0.1829
81716SOL    HW157127   2.832  10.886   1.479  0.3231 -0.4815 -0.4469
81716SOL    HW257128   2.954  10.797   1.494  1.0639  0.1817 -2.1995
81717SOL     OW57129  11.245   1.265  13.847 -0.2038 -0.1470  0.0022
81717SOL    HW157130  11.222   1.326  13.777  1.2309 -0.3982 -0.7324
81717SOL    HW257131  11.162   1.225  13.873 -0.9386  0.9321 -0.6145
81718SOL     OW57132   2.856   7.595   3.990  0.1871 -0.1173 -0.0030
81718SOL    HW157133   2.923   7.640   4.041 -0.0129  2.1403 -1.5837
81718SOL    HW257134   2.884   7.606   3.899 -0.6883 -1.9351 -0.5389
81719SOL     OW57135   8.448  13.615   3.668 -0.0439  0.1544  0.2565
81719SOL    HW157136   8.384  13.596   3.736  0.6289 -0.2863  0.7848
81719SOL    HW257137   8.510  13.675   3.709  0.4595 -0.2406  0.0906
81720SOL     OW57138  10.383   5.010   9.278 -0.4307  0.4000 -0.1471
81720SOL    HW157139  10.295   5.044   9.263 -1.4603 -2.2292 -0.4683
81720SOL    HW257140  10.431   5.031   9.198 -1.0882  0.7851 -0.4441
81721SOL     OW57141   2.839   7.157   1.394  0.6647  0.4033 -0.1615
81721SOL    HW157142   2.832   7.062   1.400 -1.0333  0.4606 -0.8596
81721SOL    HW257143   2.823   7.188   1.484 -2.2938  0.1664 -0.5295
81722SOL     OW57144   0.000   5.696  10.721  0.0704  0.1066  0.3884
81722SOL    HW157145   0.074   5.736  10.768  1.2649  0.0905 -1.3765
81722SOL    HW257146   0.028   5.606  10.704 -0.4804  0.0155 -0.0585
81723SOL     OW57147  13.505   5.700  10.687  0.1536 -0.4036 -1.0952
81723SOL    HW157148  13.523   5.669  10.775  0.3712 -0.5974 -1.2056
81723SOL    HW257149  13.564   5.649  10.631 -0.3240 -0.6217 -1.4049
81724SOL     OW57150  11.041   1.624  12.773 -0.3135  0.0193 -0.0503
81724SOL    HW157151  11.039   1.646  12.867  1.4365 -3.2027  0.8929
81724SOL    HW257152  10.974   1.557  12.763 -0.0565 -0.1015 -0.9712
81725SOL     OW57153   6.983   9.161   4.263  0.0353 -0.3874  0.3830
81725SOL    HW157154   6.919   9.145   4.193 -0.2996  0.6210  0.4435
81725SOL    HW257155   6.934   9.147   4.344  0.4905 -1.8138  0.4410
81726SOL     OW57156   0.245   9.956  11.097 -0.2702  0.0653  0.5284
81726SOL    HW157157   0.152   9.976  11.091 -0.6171 -1.6859 -0.6045
81726SOL    HW257158   0.250   9.885  11.161  0.5259  1.2941  1.8905
81727SOL     OW57159   2.994   8.171   4.008 -0.5598 -0.2856 -0.3394
81727SOL    HW157160   2.925   8.228   4.042 -0.7136 -0.1279 -0.8938
81727SOL    HW257161   3.040   8.225   3.943  2.5305  0.9536  2.5937
81728SOL     OW57162   4.797  13.270   0.417  0.0794 -0.1333  0.0907
81728SOL    HW157163   4.766  13.256   0.506 -1.0125 -0.5566 -0.3305
81728SOL    HW257164   4.735  13.332   0.379 -0.6920 -1.4894 -0.9753
81729SOL     OW57165  11.255   5.386  10.469 -0.0571  0.0752  0.0552
81729SOL    HW157166  11.168   5.347  10.455  0.1823 -0.5067  0.1452
81729SOL    HW257167  11.240   5.454  10.535 -0.1756 -1.1757  1.3872
81730SOL     OW57168  13.831  11.547  10.888  0.2465 -0.2057  0.1125
81730SOL    HW157169  13.885  11.620  10.857  1.3319 -0.6707  0.8630
81730SOL    HW257170  13.788  11.514  10.810  1.3536 -0.0711 -0.5722
81731SOL     OW57171  11.638   3.227  13.258  0.2816 -0.0494 -0.0409
81731SOL    HW157172  11.702   3.169  13.217 -0.4109 -0.9720  0.1266
81731SOL    HW257173  11.557   3.175  13.259 -0.3312  0.8838  0.2331
81732SOL     OW57174   8.500  11.508   8.353  0.2608  0.4809 -0.3304
81732SOL    HW157175   8.559  11.562   8.404 -0.9667  0.5158  1.1487
81732SOL    HW257176   8.413  11.545   8.370 -0.6803 -2.0533  1.0118
81733SOL     OW57177  12.081   4.078   5.425  0.2352 -0.0103 -0.4263
81733SOL    HW157178  12.043   4.077   5.337  0.1729 -0.9587 -0.4013
81733SOL    HW257179  12.070   4.168   5.455  2.3591  0.9630 -2.2840
81734SOL     OW57180   2.428   5.558  11.301  0.2220  0.4344  0.5147
81734SOL    HW157181   2.482   5.498  11.250 -1.4187  0.0464 -0.8825
81734SOL    HW257182   2.338   5.531  11.282 -0.4878  1.4362  2.2517
81735SOL     OW57183   2.705  13.215   0.309 -0.3534 -0.2914 -0.2962
81735SOL    HW157184   2.768  13.242   0.376 -1.3009 -0.9629  0.8868
81735SOL    HW257185   2.753  13.227   0.227  1.0919 -0.1327  0.5217
81736SOL     OW57186  13.224   8.135   5.994 -0.0477 -0.6502  0.0742
81736SOL    HW157187  13.256   8.080   5.922 -1.0232 -0.9064 -0.1878
81736SOL    HW257188  13.238   8.082   6.072 -0.7998 -1.2096 -0.1569
81737SOL     OW57189   0.252  10.182   6.806  0.2768  0.2167  0.5552
81737SOL    HW157190   0.194  10.150   6.737 -0.7846  0.3250  1.3654
81737SOL    HW257191   0.297  10.104   6.838  1.1107  0.2280 -0.5338
81738SOL     OW57192  11.027   7.424   4.094 -0.1466 -0.0289  0.3050
81738SOL    HW157193  11.113   7.388   4.118  0.9558  1.4170 -1.1818
81738SOL    HW257194  11.033   7.438   4.000 -1.9417  0.3954  0.2192
81739SOL     OW57195   2.749  12.834   1.685 -0.1130 -0.3172 -0.2754
81739SOL    HW157196   2.733  12.743   1.662 -0.8332 -0.0861 -0.7266
81739SOL    HW257197   2.787  12.873   1.606  1.5316 -0.5390  0.3611
81740SOL     OW57198  11.827   0.278  12.489 -0.3287  0.0429  0.3440
81740SOL    HW157199  11.859   0.294  12.400  0.0673 -0.0417  0.4683
81740SOL    HW257200  11.886   0.211  12.524 -0.0809  0.5307  0.8869
81741SOL     OW57201  11.109   6.319   0.811 -0.8887  0.1119  0.2011
81741SOL    HW157202  11.051   6.320   0.734  0.2829  0.9963 -0.7213
81741SOL    HW257203  11.114   6.227   0.835 -2.1643 -0.0572 -0.0848
81742SOL     OW57204  10.541  13.838   1.026 -0.2489  0.2648 -0.1571
81742SOL    HW157205  10.629  13.806   1.005 -0.7933 -0.4758 -1.3924
81742SOL    HW257206  10.511  13.781   1.097 -0.8279 -1.4096 -1.6776
81743SOL     OW57207  12.679   7.391  12.919 -0.1611  0.4638  0.2543
81743SOL    HW157208  12.610   7.336  12.881  0.1484 -0.6766  1.2627
81743SOL    HW257209  12.759   7.364  12.874 -0.1530  0.7417  0.1033
81744SOL     OW57210   2.756   3.069   3.774 -0.3996  0.1464 -0.2939
81744SOL    HW157211   2.691   3.090   3.707  1.3373 -1.3983 -2.6453
81744SOL    HW257212   2.765   3.149   3.825 -1.4232  1.6054 -2.2658
81745SOL     OW57213  12.740   8.450  12.817 -0.9144  0.0174  0.4451
81745SOL    HW157214  12.801   8.523  12.825 -3.1605  2.2364 -1.2242
81745SOL    HW257215  12.685   8.473  12.743 -1.4441 -3.6831 -0.4888
81746SOL     OW57216   1.012   9.331   7.247  0.0155 -0.3047 -0.1269
81746SOL    HW157217   0.994   9.377   7.330  1.2841  3.9387 -1.9000
81746SOL    HW257218   1.104   9.307   7.253  0.1699  0.2117 -0.3433
81747SOL     OW57219  11.234   8.916   1.745 -0.0718  0.1318 -0.0793
81747SOL    HW157220  11.329   8.926   1.747 -0.0463 -0.2710  1.1229
81747SOL    HW257221  11.220   8.824   1.724 -0.2065  0.2259 -0.4134
81748SOL     OW57222   6.154   4.985  12.427  0.4293 -0.2516  0.1790
81748SOL    HW157223   6.241   5.014  12.401 -0.3135  1.0401 -1.0373
81748SOL    HW257224   6.142   4.901  12.383  1.0726 -0.4685  0.4101
81749SOL     OW57225   9.639   9.259  10.474  0.0894 -0.0821 -0.0218
81749SOL    HW157226   9.584   9.181  10.469 -0.4524  0.3661 -1.4319
81749SOL    HW257227   9.633   9.287  10.566 -1.2007 -0.6384  0.0833
81750SOL     OW57228   6.797   0.733   6.003 -0.2525  0.0002 -0.5303
81750SOL    HW157229   6.799   0.821   5.966 -1.6676  0.3158  0.0941
81750SOL    HW257230   6.707   0.703   5.990  0.1131 -1.2120 -0.3908
81751SOL     OW57231   3.941   3.729  10.983 -0.2135 -0.0655  0.5883
81751SOL    HW157232   3.847   3.710  10.989 -0.9742  2.9848 -0.2662
81751SOL    HW257233   3.959   3.786  11.057  0.8030  0.0634  0.2514
81752SOL     OW57234   9.910   1.343   4.334 -0.0349 -0.5215 -0.1036
81752SOL    HW157235   9.914   1.383   4.247  0.5263  0.2637  0.2695
81752SOL    HW257236   9.844   1.395   4.381  0.7280  0.0099  0.3991
81753SOL     OW57237  10.596   0.490   5.620 -0.2825 -0.1857  0.1160
81753SOL    HW157238  10.643   0.407   5.624  1.8537  0.9702  0.2444
81753SOL    HW257239  10.608   0.520   5.530  0.4426  0.7792  0.5217
81754SOL     OW57240   7.280   8.224  13.543  0.4525  0.1450 -0.0931
81754SOL    HW157241   7.334   8.271  13.606  0.4440  0.9072 -0.6430
81754SOL    HW257242   7.320   8.244  13.458  1.0259 -1.5954 -0.2919
81755SOL     OW57243   0.581  12.509   9.405  0.4642 -0.1658  0.0713
81755SOL    HW157244   0.611  12.522   9.315  1.4214 -0.4331  0.3356
81755SOL    HW257245   0.547  12.419   9.407 -1.9663  0.6714 -0.6396
81756SOL     OW57246  13.121   0.972   1.193  0.2387  0.2033 -0.5111
81756SOL    HW157247  13.056   0.946   1.129 -1.4550  0.5874  0.9646
81756SOL    HW257248  13.121   1.068   1.191 -1.0665  0.2998  1.1216
81757SOL     OW57249   8.325   2.764   1.764 -0.2126 -0.0167 -0.0450
81757SOL    HW157250   8.335   2.677   1.802  0.3463  0.1981  0.2985
81757SOL    HW257251   8.230   2.777   1.761 -0.4866 -1.7729 -2.7127
81758SOL     OW57252   3.703   6.778   4.885  0.3952  0.0647  0.0450
81758SOL    HW157253   3.616   6.761   4.923  0.0867  0.1780 -0.5991
81758SOL    HW257254   3.685   6.808   4.796  1.0775  0.5182  0.0487
81759SOL     OW57255   0.529   8.181   8.211 -0.5285 -0.3955  0.0918
81759SOL    HW157256   0.509   8.223   8.295  3.0665  0.5938  0.6325
81759SOL    HW257257   0.539   8.088   8.232  1.2633 -0.0397  1.0785
81760SOL     OW57258  10.800   4.519   2.146 -1.0888 -0.0478 -0.7121
81760SOL    HW157259  10.708   4.520   2.175 -1.7126  1.1941 -2.5530
81760SOL    HW257260  10.844   4.578   2.207 -1.3146 -1.2368  0.6582
81761SOL     OW57261   0.454  11.028  10.646  0.2879  0.8501  0.5476
81761SOL    HW157262   0.382  10.965  10.648 -0.6424  1.8438 -0.5525
81761SOL    HW257263   0.520  10.991  10.705  0.6696 -2.2371 -1.5663
81762SOL     OW57264   3.831   2.251   7.941 -0.2267  0.7510 -0.3448
81762SOL    HW157265   3.917   2.268   7.902  0.5177 -1.3470  0.2616
81762SOL    HW257266   3.851   2.208   8.024 -1.8738  0.6809  0.0358
81763SOL     OW57267   3.335   4.898   3.036  0.2124  0.6911 -0.3821
81763SOL    HW157268   3.242   4.915   3.019  0.7749  1.8943 -2.5615
81763SOL    HW257269   3.381   4.973   2.999  2.0384  0.7370  1.7539
81764SOL     OW57270   0.380   5.021   6.087  0.1313 -0.2837 -0.3879
81764SOL    HW157271   0.331   5.103   6.078  1.1830  0.8372  2.6938
81764SOL    HW257272   0.457   5.032   6.031 -0.2133  0.4178 -0.7409
81765SOL     OW57273  13.244  13.612   1.105 -0.5414 -0.0657 -0.3568
81765SOL    HW157274  13.278  13.610   1.194  1.8376 -0.4472 -1.2010
81765SOL    HW257275  13.244  13.520   1.077 -1.3873  0.0320 -0.7189
81766SOL     OW57276  13.015   9.229  10.103  0.0316 -0.0022 -0.1423
81766SOL    HW157277  13.042   9.142  10.133  1.1390 -0.4315 -2.2090
81766SOL    HW257278  13.071   9.289  10.152  1.2021 -0.6241 -0.6800
81767SOL     OW57279  11.644  10.226   1.149 -0.1521  1.0824  0.5833
81767SOL    HW157280  11.670  10.282   1.075 -1.7555  0.4614 -0.5007
81767SOL    HW257281  11.652  10.137   1.115  1.3140  0.6542  1.9426
81768SOL     OW57282   2.865   0.057  10.199  0.3278  0.4716  0.3798
81768SOL    HW157283   2.801   0.126  10.218 -0.2895 -0.0482  0.2049
81768SOL    HW257284   2.920   0.095  10.130 -2.1062 -0.4027 -2.2362
81769SOL     OW57285   7.885   1.165  12.009 -0.3051  0.1565  0.2825
81769SOL    HW157286   7.956   1.223  11.983  0.4502 -0.5191  0.7905
81769SOL    HW257287   7.805   1.210  11.981  0.3449  0.6632 -0.8060
81770SOL     OW57288   5.920  13.690  11.345 -0.7776 -0.7344 -0.2505
81770SOL    HW157289   5.843  13.638  11.323 -0.9832 -0.7568  0.5089
81770SOL    HW257290   5.962  13.643  11.417 -0.1694 -0.6066 -0.5127
81771SOL     OW57291  11.081  14.036   6.098 -0.0358 -0.2909  0.0824
81771SOL    HW157292  11.080  14.130   6.120  2.1480 -0.6325  1.9201
81771SOL    HW257293  11.171  14.008   6.115 -0.5703 -2.6853 -0.6964
81772SOL     OW57294   3.250  13.658   7.538  0.1508  0.1145 -0.8266
81772SOL    HW157295   3.191  13.595   7.498 -0.0726  0.3917 -0.9325
81772SOL    HW257296   3.290  13.704   7.465 -0.7469  1.0785 -0.7407
81773SOL     OW57297   0.368   1.766   1.249 -0.2803 -0.5349 -0.3508
81773SOL    HW157298   0.432   1.831   1.279 -0.2681 -0.6390 -0.1521
81773SOL    HW257299   0.346   1.794   1.160  0.7971 -1.0638 -0.8032
81774SOL     OW57300   4.916   6.911   5.152  0.0371  0.1753 -0.0458
81774SOL    HW157301   4.858   6.840   5.122  0.3573 -0.0433 -0.1458
81774SOL    HW257302   4.904   6.911   5.247  0.1730 -0.1343 -0.0260
81775SOL     OW57303  10.173   1.531   6.746  0.1208  0.2889  0.7881
81775SOL    HW157304  10.168   1.443   6.783  1.5861 -0.3267 -0.3868
81775SOL    HW257305  10.125   1.525   6.663  0.9634  0.3405  0.2852
81776SOL     OW57306   3.897   2.215  13.155 -0.1045  0.1652  0.3655
81776SOL    HW157307   3.809   2.195  13.123 -0.7040  0.7174  1.5993
81776SOL    HW257308   3.889   2.212  13.251  0.6237  2.5141  0.5729
81777SOL     OW57309  11.397   4.388  11.244 -0.0981 -0.1663 -0.1266
81777SOL    HW157310  11.462   4.415  11.309  0.2423  0.3313 -0.6631
81777SOL    HW257311  11.313   4.416  11.281 -0.3763 -3.0534  1.7916
81778SOL     OW57312   3.229   6.642   9.382  0.1737 -0.1717  0.0147
81778SOL    HW157313   3.270   6.621   9.466  1.6408 -0.7059 -0.8056
81778SOL    HW257314   3.302   6.658   9.323 -0.8186  2.2995 -0.6822
81779SOL     OW57315  12.050   9.023   0.573  0.0356 -0.1675  0.5299
81779SOL    HW157316  12.085   9.005   0.486 -0.1124 -0.3202  0.4996
81779SOL    HW257317  12.018   8.938   0.604  0.5483 -0.2141  0.9420
81780SOL     OW57318  13.994  11.659  10.235  0.4782  0.6983  0.1544
81780SOL    HW157319  14.059  11.611  10.286  0.0954 -0.4325 -0.3970
81780SOL    HW257320  14.044  11.697  10.163  0.9020  1.7480  0.9632
81781SOL     OW57321   5.577  12.071   1.298  0.0253  0.0326  0.2637
81781SOL    HW157322   5.493  12.092   1.256 -0.7778  0.5264  2.0325
81781SOL    HW257323   5.613  12.155   1.323  1.3209 -0.1458 -0.9096
81782SOL     OW57324   1.624  11.303   4.637 -0.1860  0.4432  0.7984
81782SOL    HW157325   1.555  11.342   4.583  1.0819  0.0784 -1.2012
81782SOL    HW257326   1.609  11.208   4.629  2.0603  0.1743 -2.0280
81783SOL     OW57327   0.418   7.507   0.398 -0.0640 -0.5286 -0.2031
81783SOL    HW157328   0.344   7.524   0.340 -0.4571  2.5024  1.0145
81783SOL    HW257329   0.377   7.477   0.480  0.2100 -0.7804 -0.1575
81784SOL     OW57330   3.221   1.215  13.849  0.1813  0.0013  0.1634
81784SOL    HW157331   3.172   1.146  13.893 -0.6833  0.0553 -0.6907
81784SOL    HW257332   3.159   1.253  13.787  0.2950  2.2498  1.3214
81785SOL     OW57333   7.379   4.112   4.955  0.1578  0.8133  0.4573
81785SOL    HW157334   7.332   4.040   4.914 -1.5935  1.7924  0.6368
81785SOL    HW257335   7.471   4.096   4.934 -0.4620  0.1982 -2.1574
81786SOL     OW57336  10.162   3.970  11.112 -0.0685  0.4884 -0.5068
81786SOL    HW157337  10.069   3.954  11.131  0.1756 -0.7330 -0.2836
81786SOL    HW257338  10.187   4.040  11.173 -0.2288 -0.8637  1.2024
81787SOL     OW57339   2.871   7.915   9.951 -0.3714 -0.3867  0.2451
81787SOL    HW157340   2.807   7.949  10.013 -0.3038  0.8739 -0.3463
81787SOL    HW257341   2.860   7.968   9.872  2.4219  0.9722  0.6345
81788SOL     OW57342   2.968   0.830   9.585 -0.2458  0.4583 -0.1561
81788SOL    HW157343   2.964   0.735   9.574 -0.8323  0.4481  0.1106
81788SOL    HW257344   3.052   0.845   9.629  0.8334  0.2656 -2.0337
81789SOL     OW57345   8.286  11.382   5.509  0.5147 -0.1572 -0.3755
81789SOL    HW157346   8.290  11.308   5.449 -0.1920  0.6069 -1.3979
81789SOL    HW257347   8.377  11.398   5.534  0.6827 -1.3141 -0.1821
81790SOL     OW57348  13.059  14.016   3.474  0.3920  0.4348 -0.0813
81790SOL    HW157349  13.068  13.927   3.509 -0.8045 -0.4810 -1.9324
81790SOL    HW257350  13.133  14.025   3.414  1.1992  1.1741  0.9955
81791SOL     OW57351  12.239   9.003  13.591 -0.2988 -0.3508 -0.1897
81791SOL    HW157352  12.147   8.987  13.571 -0.6978  0.2465  1.0486
81791SOL    HW257353  12.283   8.921  13.569 -0.8534 -0.1233 -2.2820
81792SOL     OW57354  10.049   5.587  10.440 -0.5659  0.4865 -0.1286
81792SOL    HW157355   9.995   5.516  10.474  0.7136  0.2603  1.5516
81792SOL    HW257356  10.020   5.664  10.489  1.1710  0.1931  1.4829
81793SOL     OW57357   0.058   3.953   6.707 -0.0431 -0.0407 -0.6839
81793SOL    HW157358  -0.014   3.892   6.722  0.3642 -0.1832  0.8531
81793SOL    HW257359   0.134   3.898   6.690  0.1421  0.0581 -0.1816
81794SOL     OW57360  10.922  13.051   5.614  1.1607  0.0903  0.2087
81794SOL    HW157361  10.992  13.054   5.680  1.3714  1.7520 -0.0654
81794SOL    HW257362  10.962  13.087   5.535  0.6311 -1.0392 -0.6079
81795SOL     OW57363   5.931   9.790   0.115 -0.5106  0.5280 -0.1135
81795SOL    HW157364   5.850   9.758   0.155  0.1914  1.2381  2.0416
81795SOL    HW257365   5.908   9.875   0.077 -0.8092  0.6988  0.4364
81796SOL     OW57366   5.267  12.195   1.366 -0.0519 -0.3167  0.1110
81796SOL    HW157367   5.326  12.270   1.359 -1.3830  0.9493  1.6615
81796SOL    HW257368   5.179  12.233   1.362 -0.7578 -1.7031  1.3623
81797SOL     OW57369   9.886   0.324   8.173 -0.2713 -0.1187  0.4273
81797SOL    HW157370   9.975   0.289   8.178  0.6977  1.9231 -0.8664
81797SOL    HW257371   9.849   0.285   8.095  0.2777  0.5828 -0.1996
81798SOL     OW57372   7.845   0.783  11.238 -0.8705 -1.1662 -0.2000
81798SOL    HW157373   7.809   0.702  11.204 -0.8880 -1.6266  0.8793
81798SOL    HW257374   7.914   0.756  11.298 -1.2005 -0.4198  0.5478
81799SOL     OW57375   2.565   8.873  11.089 -0.1209  0.1983 -0.1853
81799SOL    HW157376   2.545   8.950  11.035  0.3947  1.4160  1.2733
81799SOL    HW257377   2.480   8.843  11.121 -0.2120  1.0869  0.4270
81800SOL     OW57378   8.448   4.600   7.470 -1.0006  0.8131  0.2589
81800SOL    HW157379   8.404   4.655   7.534 -1.4792 -0.1199  0.7542
81800SOL    HW257380   8.382   4.583   7.403 -0.5535  1.6457 -0.4213
81801SOL     OW57381  13.035  12.013  11.397  0.3125 -0.4809  0.1485
81801SOL    HW157382  13.075  11.941  11.348  1.7146  1.5948 -1.9691
81801SOL    HW257383  13.074  12.007  11.484  2.6046 -0.6494 -0.8179
81802SOL     OW57384  10.172  11.215   5.161 -0.4308 -0.2742  0.2693
81802SOL    HW157385  10.121  11.134   5.162 -1.7788  0.4586 -2.1034
81802SOL    HW257386  10.261  11.187   5.182 -1.0433 -2.2135  0.4659
81803SOL     OW57387  12.593   0.921   7.609  0.6614  0.0417 -0.2755
81803SOL    HW157388  12.653   0.926   7.534  0.4435  0.9667 -0.3900
81803SOL    HW257389  12.516   0.875   7.575  0.0138  1.6063 -1.0052
81804SOL     OW57390  12.283  10.828  13.568 -0.0795 -0.7126  0.2808
81804SOL    HW157391  12.367  10.828  13.614 -0.0563  0.5165  0.2602
81804SOL    HW257392  12.236  10.753  13.604  0.7300 -0.9681  0.8286
81805SOL     OW57393   6.761   3.824   6.923 -0.3814 -0.3066 -0.0190
81805SOL    HW157394   6.829   3.889   6.942 -0.0593  0.5072 -3.3455
81805SOL    HW257395   6.776   3.800   6.832 -2.4111 -2.8082  0.2071
81806SOL     OW57396   2.874  13.061   7.576  0.2321 -0.1451  0.5414
81806SOL    HW157397   2.886  13.003   7.650  0.2450 -0.1175  0.5610
81806SOL    HW257398   2.876  13.004   7.499  1.6598 -0.0138  0.4562
81807SOL     OW57399   0.436   7.987   1.864  0.6646 -0.0605  0.1264
81807SOL    HW157400   0.389   7.987   1.781  2.9780 -0.8647 -1.2685
81807SOL    HW257401   0.475   7.900   1.870 -0.0802 -0.2984  2.4861
81808SOL     OW57402   8.275  13.688   9.986  0.3929 -0.3954  0.1725
81808SOL    HW157403   8.303  13.768   9.942  0.7799 -0.6726 -0.0931
81808SOL    HW257404   8.192  13.665   9.944 -0.0139  0.1796  0.6505
81809SOL     OW57405   5.196  12.114   7.110  0.1839  0.1626 -0.2176
81809SOL    HW157406   5.144  12.034   7.112 -0.6702  0.7156  1.3589
81809SOL    HW257407   5.197  12.140   7.018 -1.3022 -0.5432 -0.4643
81810SOL     OW57408   2.675   1.569  13.077  0.2624  0.1476  0.5944
81810SOL    HW157409   2.712   1.481  13.087 -1.2086 -0.7063 -0.9742
81810SOL    HW257410   2.678   1.586  12.983 -1.6802  0.7343  0.5847
81811SOL     OW57411   9.371   8.995   4.066 -0.4008 -0.3538 -0.3292
81811SOL    HW157412   9.390   9.088   4.076 -1.1180 -0.0935 -1.2742
81811SOL    HW257413   9.412   8.954   4.142 -0.1298  0.7388  0.1308
81812SOL     OW57414   5.710   6.923   4.231  0.2401 -0.4782  0.3018
81812SOL    HW157415   5.747   6.925   4.320 -1.6959  2.2566  1.1720
81812SOL    HW257416   5.743   7.002   4.190 -2.1625  0.4945  0.0969
81813SOL     OW57417  13.702  13.056   0.636 -0.6647  0.5612 -0.1279
81813SOL    HW157418  13.617  13.078   0.675 -0.2824  0.1422  0.9970
81813SOL    HW257419  13.703  13.101   0.552 -1.5226  1.5356  0.3669
81814SOL     OW57420   3.998   8.048   6.087 -0.6266 -0.8710  0.6852
81814SOL    HW157421   3.970   7.965   6.048 -0.3026 -0.7235  0.1351
81814SOL    HW257422   4.012   8.107   6.012  0.4164 -0.7141  0.9901
81815SOL     OW57423   7.132   6.121   1.473 -0.5375  0.2429 -0.5372
81815SOL    HW157424   7.056   6.090   1.522 -1.0142  0.7431 -0.9454
81815SOL    HW257425   7.197   6.142   1.540 -1.0359  0.5353 -0.1352
81816SOL     OW57426  13.816   5.727   6.403 -0.1951  0.3552  0.4887
81816SOL    HW157427  13.813   5.762   6.492  2.2142 -0.2230  0.8752
81816SOL    HW257428  13.725   5.728   6.374 -0.8211  2.2941  2.2575
81817SOL     OW57429  11.315   4.605   1.809 -0.3177  0.3684 -0.2307
81817SOL    HW157430  11.232   4.591   1.765  0.0530 -0.7175 -0.6159
81817SOL    HW257431  11.304   4.562   1.894 -0.5956  1.3697  0.2526
81818SOL     OW57432  10.343   2.463  13.122 -0.2381  0.2052 -0.5675
81818SOL    HW157433  10.366   2.440  13.031  0.0993 -2.7654  0.1501
81818SOL    HW257434  10.406   2.531  13.146  1.8575 -1.2472 -1.5686
81819SOL     OW57435   6.271   8.220  11.088 -0.0486  0.0800  0.1144
81819SOL    HW157436   6.356   8.176  11.089 -0.5064 -0.8414 -0.1359
81819SOL    HW257437   6.290   8.309  11.117  1.1784  0.2070 -0.9698
81820SOL     OW57438   1.739  12.042   2.133  0.3396  0.1734 -0.1232
81820SOL    HW157439   1.697  11.962   2.103  2.2766 -0.5081 -1.2155
81820SOL    HW257440   1.761  12.090   2.054  0.3574  1.1704  0.4661
81821SOL     OW57441   7.513  11.224  12.350  0.2612  0.6789  0.5289
81821SOL    HW157442   7.479  11.170  12.420  0.9215  1.0131  1.1221
81821SOL    HW257443   7.441  11.283  12.327 -0.8675 -1.1751 -0.9294
81822SOL     OW57444  11.902   1.558   3.102  0.2469 -0.3757 -0.0598
81822SOL    HW157445  11.832   1.623   3.089  0.8691 -0.0089 -1.7681
81822SOL    HW257446  11.880   1.516   3.185 -0.7106  1.3543  0.6072
81823SOL     OW57447   0.088   3.565  10.635 -0.1253 -0.3808  0.1695
81823SOL    HW157448   0.166   3.564  10.690  0.1987  1.1085 -0.2087
81823SOL    HW257449   0.042   3.645  10.660 -0.8900 -0.6073 -0.4743
81824SOL     OW57450   3.083   3.504   3.574  0.2170 -0.4191  0.9318
81824SOL    HW157451   3.003   3.482   3.620  0.5407  1.0251  2.2811
81824SOL    HW257452   3.058   3.574   3.514 -0.1606 -2.1542 -1.0599
81825SOL     OW57453   8.198   3.274   8.835  0.0112  0.1808 -0.0044
81825SOL    HW157454   8.159   3.237   8.756  0.7634  0.7267 -0.6467
81825SOL    HW257455   8.127   3.274   8.899 -0.4195 -0.9299 -0.4476
81826SOL     OW57456  13.091   5.028   5.930 -0.2050 -0.0427 -0.1476
81826SOL    HW157457  12.999   5.007   5.948 -0.2161 -0.8297 -1.1132
81826SOL    HW257458  13.136   5.012   6.013 -0.9258  0.3422  0.3307
81827SOL     OW57459   2.324   5.227   2.819 -0.5722  0.4538  0.3779
81827SOL    HW157460   2.326   5.179   2.902 -0.6958 -0.3530 -0.0725
81827SOL    HW257461   2.302   5.317   2.843 -0.9827  0.1467  1.1815
81828SOL     OW57462   8.032   4.627   4.987  0.2190 -0.0847 -0.0160
81828SOL    HW157463   8.004   4.631   4.895 -0.7642 -0.2071  0.2720
81828SOL    HW257464   8.031   4.718   5.016 -1.1665 -0.1983  0.3575
81829SOL     OW57465   1.797   2.300   1.249 -0.2429 -0.0903 -0.3321
81829SOL    HW157466   1.889   2.276   1.254 -0.0176  0.2144 -2.0781
81829SOL    HW257467   1.754   2.248   1.316  1.3601  0.6832  1.3705
81830SOL     OW57468   3.793   2.565  12.859 -0.0500  0.2816 -0.6166
81830SOL    HW157469   3.798   2.474  12.831 -0.6077  0.3153 -0.8504
81830SOL    HW257470   3.728   2.565  12.930  0.8989  0.2961  0.2615
81831SOL     OW57471   5.255   1.168   6.306 -0.0526  0.3678  0.1448
81831SOL    HW157472   5.167   1.204   6.320  0.4708  1.4863  0.6369
81831SOL    HW257473   5.304   1.193   6.384  0.5152 -0.9164  0.2337
81832SOL     OW57474   4.145   6.004   2.067 -0.1476  0.3862  0.4417
81832SOL    HW157475   4.219   5.961   2.111  0.9048  0.6719 -0.9823
81832SOL    HW257476   4.178   6.025   1.980 -1.8448  0.7659 -0.1451
81833SOL     OW57477   2.877  11.051   9.717 -0.0331  0.2763 -0.3690
81833SOL    HW157478   2.810  11.007   9.666 -0.1933  2.5679 -2.3091
81833SOL    HW257479   2.960  11.016   9.684 -0.1872  0.4146 -0.8999
81834SOL     OW57480   8.820   4.852   2.214  1.1077 -0.4578  0.7384
81834SOL    HW157481   8.812   4.922   2.149  2.6804 -0.5754  0.3760
81834SOL    HW257482   8.740   4.801   2.204  1.5513 -0.8274 -1.5781
81835SOL     OW57483   9.694   0.444   1.047 -0.1124 -0.0869  0.3538
81835SOL    HW157484   9.636   0.368   1.048  0.0061 -0.1690  1.2626
81835SOL    HW257485   9.669   0.495   1.124  0.3794  0.3723  0.2204
81836SOL     OW57486   8.854   2.826   9.660  0.2831  0.2516 -0.0199
81836SOL    HW157487   8.863   2.787   9.746  0.5957  0.6117  0.1134
81836SOL    HW257488   8.789   2.772   9.615 -0.0784  0.2228  0.5358
81837SOL     OW57489  12.853  13.985   5.013  0.2170 -0.0417 -0.0857
81837SOL    HW157490  12.910  13.996   5.090 -0.6094  2.4652  0.2673
81837SOL    HW257491  12.788  13.921   5.041  0.9468 -0.4868  0.6669
81838SOL     OW57492   9.144   1.901   6.464  0.1709  0.4928 -0.5396
81838SOL    HW157493   9.203   1.939   6.529 -2.0747 -0.0466  2.0160
81838SOL    HW257494   9.115   1.975   6.411  1.1312  1.1645 -0.1427
81839SOL     OW57495   0.560  12.076   2.169  0.1643 -0.5173  0.2985
81839SOL    HW157496   0.571  12.145   2.234  0.8562  0.1091 -0.4509
81839SOL    HW257497   0.643  12.076   2.120  0.1068 -1.7520  0.1618
81840SOL     OW57498   4.289  10.274   2.492 -0.4003 -0.5306  0.5794
81840SOL    HW157499   4.238  10.352   2.469 -1.5346 -1.5456 -0.5542
81840SOL    HW257500   4.320  10.290   2.581 -0.9033  1.0435  0.5018
81841SOL     OW57501   4.620   2.151   5.676 -0.2645  0.3432  0.6665
81841SOL    HW157502   4.637   2.121   5.587 -1.1900 -0.2897  0.6957
81841SOL    HW257503   4.689   2.216   5.693  0.7029 -0.4668 -0.0375
81842SOL     OW57504   2.188   1.579  13.267  0.1376  0.2972 -0.0492
81842SOL    HW157505   2.269   1.535  13.293  1.3242  2.2080 -0.3366
81842SOL    HW257506   2.126   1.507  13.253  1.1030 -1.1144  2.2962
81843SOL     OW57507   5.285   1.786   2.086  0.0219  0.0269  0.4941
81843SOL    HW157508   5.300   1.692   2.092  0.4847  0.0339 -0.4672
81843SOL    HW257509   5.245   1.799   2.000 -1.4414  0.5421  1.2182
81844SOL     OW57510   7.402   8.730  13.847  0.2348 -0.3436  0.4075
81844SOL    HW157511   7.382   8.727  13.753  1.5809  0.9146  0.0359
81844SOL    HW257512   7.354   8.656  13.884 -2.3884  0.6016 -0.8516
81845SOL     OW57513  13.864   7.137   0.056 -0.1183  0.0465 -0.5287
81845SOL    HW157514  13.905   7.124  -0.030  0.7424 -0.5707 -0.0315
81845SOL    HW257515  13.892   7.062   0.108 -0.5142  0.4922  0.3497
81846SOL     OW57516  10.782   4.831  13.697 -0.0441  0.0854 -0.4524
81846SOL    HW157517  10.841   4.757  13.711 -0.8413 -0.5129 -0.2228
81846SOL    HW257518  10.830   4.888  13.635  1.7784  0.7838  1.4787
81847SOL     OW57519   4.112   0.970   9.483  0.4590 -0.5363 -0.0323
81847SOL    HW157520   4.087   1.051   9.526  0.6448 -0.5590  0.1202
81847SOL    HW257521   4.114   0.991   9.390 -2.2081 -1.0548 -0.2882
81848SOL     OW57522   1.181   8.833   4.895 -0.6509  0.2222  0.1870
81848SOL    HW157523   1.101   8.878   4.871 -0.8283  0.0886  0.5252
81848SOL    HW257524   1.233   8.899   4.942  0.9057  1.3805 -2.8409
81849SOL     OW57525   1.923   5.173   4.603 -0.1322 -0.0145  0.3184
81849SOL    HW157526   1.996   5.233   4.589  0.3395 -0.0293  2.4427
81849SOL    HW257527   1.926   5.114   4.527  0.5418  1.4642 -0.8508
81850SOL     OW57528   5.075  10.552  12.467 -0.2472 -0.2843  0.4950
81850SOL    HW157529   5.063  10.625  12.528 -1.5194 -0.1762  0.1374
81850SOL    HW257530   5.031  10.581  12.387 -1.2465 -1.6601  0.5250
81851SOL     OW57531   5.748   0.625   5.505  0.0112 -0.2070  0.1619
81851SOL    HW157532   5.688   0.658   5.572  1.2262  2.2827  0.1519
81851SOL    HW257533   5.754   0.531   5.522 -0.9710  0.0926  2.5285
81852SOL     OW57534   5.399  12.523  12.373  0.0665  0.0584  0.1202
81852SOL    HW157535   5.360  12.566  12.297  0.9331  0.1063 -0.3113
81852SOL    HW257536   5.402  12.591  12.440 -0.1386  0.1871  0.0001
81853SOL     OW57537   5.963   2.822   5.393 -0.1837 -0.2838 -0.1408
81853SOL    HW157538   6.049   2.789   5.367 -0.1799 -0.1723 -0.2744
81853SOL    HW257539   5.905   2.747   5.383  0.4946 -1.4365  3.4077
81854SOL     OW57540  12.630  13.214   1.253 -0.4095  0.2239  0.0627
81854SOL    HW157541  12.712  13.235   1.297 -0.1898 -1.4220  0.5136
81854SOL    HW257542  12.585  13.155   1.313 -1.4947  0.3351 -0.6083
81855SOL     OW57543   5.670   5.226   2.031  0.5169  0.3898  0.2743
81855SOL    HW157544   5.642   5.136   2.047  0.4646  0.2735 -0.4216
81855SOL    HW257545   5.725   5.220   1.952  0.8142  0.9120  0.4391
81856SOL     OW57546  12.631   4.185   4.356 -0.2604 -0.0427 -0.2236
81856SOL    HW157547  12.642   4.136   4.437 -0.2733 -3.2298 -1.9832
81856SOL    HW257548  12.536   4.190   4.344 -0.2640 -0.9384 -0.7174
81857SOL     OW57549  10.948   1.792   2.925  0.0707 -0.0229 -0.1461
81857SOL    HW157550  10.916   1.721   2.980 -0.6604 -0.1136 -0.6660
81857SOL    HW257551  10.871   1.819   2.874  0.1805  1.5358  0.4622
81858SOL     OW57552   5.115  10.856   8.383 -0.2081  0.7580  0.0614
81858SOL    HW157553   5.100  10.875   8.290 -1.4013  1.2472  0.3306
81858SOL    HW257554   5.207  10.879   8.398 -0.0405  0.7974 -0.9675
81859SOL     OW57555   5.792  10.614  10.629 -0.1069 -0.3417  1.0038
81859SOL    HW157556   5.703  10.642  10.650 -1.4983 -2.0931 -1.8418
81859SOL    HW257557   5.806  10.535  10.682 -0.4841 -0.3566  1.0852
81860SOL     OW57558  10.553   0.168   9.134  0.2669 -0.0988 -0.5347
81860SOL    HW157559  10.565   0.194   9.225 -0.7877  1.2658 -0.7504
81860SOL    HW257560  10.626   0.208   9.087  1.3750 -1.6174 -0.1920
81861SOL     OW57561  11.199  11.545   7.107 -0.4134  0.4166 -0.3432
81861SOL    HW157562  11.239  11.520   7.024  0.2304  1.9231 -0.5227
81861SOL    HW257563  11.208  11.468   7.162 -1.2182 -0.7495 -1.7918
81862SOL     OW57564  10.249  13.625   3.041 -0.1806 -0.6199  0.1371
81862SOL    HW157565  10.179  13.592   3.097 -1.1908 -0.3051 -0.9026
81862SOL    HW257566  10.292  13.692   3.094  0.7986 -2.3111  1.6253
81863SOL     OW57567  13.971  11.767   0.244  0.0007 -0.2685  0.1983
81863SOL    HW157568  14.032  11.837   0.267 -0.7070  1.0860 -1.8292
81863SOL    HW257569  14.027  11.696   0.212  0.5736  0.6956 -0.9942
81864SOL     OW57570   7.572  13.664   0.597  0.3076 -0.0869  0.0103
81864SOL    HW157571   7.571  13.683   0.504 -0.4655  3.8655  0.6552
81864SOL    HW257572   7.516  13.587   0.606  0.2348 -0.4539 -2.7251
81865SOL     OW57573   4.868  11.457   0.724  0.1910  0.1394 -0.3521
81865SOL    HW157574   4.936  11.497   0.778  1.0714  0.5384 -1.6907
81865SOL    HW257575   4.843  11.526   0.662 -1.0313 -0.1930 -0.2714
81866SOL     OW57576   9.283   3.862  13.442 -0.1837 -0.1080 -0.3277
81866SOL    HW157577   9.206   3.806  13.438 -0.7344 -0.0170  4.0633
81866SOL    HW257578   9.251   3.949  13.419 -1.2762 -0.2306  0.6085
81867SOL     OW57579  13.059   9.315  11.435 -0.8943  0.5361 -0.6346
81867SOL    HW157580  12.969   9.344  11.421 -0.9113  0.7580 -0.0838
81867SOL    HW257581  13.105   9.393  11.466 -0.7803  0.1480  0.1812
81868SOL     OW57582  12.974   4.193   9.672  0.2995  0.3040  0.5226
81868SOL    HW157583  13.063   4.159   9.683  0.8997  1.4729 -0.4216
81868SOL    HW257584  12.952   4.175   9.581  0.2818  1.5547  0.2569
81869SOL     OW57585   3.093  10.366   3.999 -0.1295 -0.2984 -0.3600
81869SOL    HW157586   3.132  10.443   4.041 -0.1966 -0.1441 -0.5801
81869SOL    HW257587   3.076  10.306   4.071  1.7924 -0.9412 -0.3951
81870SOL     OW57588   7.341  12.575   9.548  0.6552  0.1637 -0.5975
81870SOL    HW157589   7.384  12.631   9.613 -0.0482 -0.8253  0.7676
81870SOL    HW257590   7.258  12.620   9.530  0.5750  0.1216 -0.3357
81871SOL     OW57591   4.717   7.435  11.148 -0.1139 -0.0374  0.1826
81871SOL    HW157592   4.800   7.397  11.175  0.3231  1.6189  1.3320
81871SOL    HW257593   4.653   7.399  11.208 -0.0713 -0.5244 -0.0549
81872SOL     OW57594   8.756   2.843   7.184  0.2023  0.0865 -0.6463
81872SOL    HW157595   8.735   2.934   7.164  2.1293  0.6028 -0.5104
81872SOL    HW257596   8.710   2.825   7.266 -0.1159  0.9446 -0.6264
81873SOL     OW57597   3.565  12.697   5.564 -0.1116  0.4138  0.0005
81873SOL    HW157598   3.540  12.771   5.618 -1.0763 -0.1979  0.4174
81873SOL    HW257599   3.642  12.727   5.515 -0.1523  1.4819  0.5794
81874SOL     OW57600   0.310  10.269   9.197  0.4870  0.5025 -0.3000
81874SOL    HW157601   0.332  10.353   9.157 -0.1375  0.4187 -0.8279
81874SOL    HW257602   0.225  10.245   9.160 -0.4428  0.7394  1.5421
81875SOL     OW57603   1.723   8.144   2.557  0.1578 -0.8656 -0.2652
81875SOL    HW157604   1.689   8.230   2.535  0.2258 -0.4927  0.9953
81875SOL    HW257605   1.683   8.085   2.494 -0.7787 -0.0697 -0.4280
81876SOL     OW57606  12.598  13.132   2.507 -0.4552  0.5128  0.0994
81876SOL    HW157607  12.525  13.174   2.553 -0.1285  0.4993  0.6482
81876SOL    HW257608  12.603  13.178   2.423 -0.3608  1.3097  0.5249
81877SOL     OW57609   0.667  13.234   8.551  0.4494  0.4881  0.1081
81877SOL    HW157610   0.734  13.301   8.565 -1.2489  1.9364  1.8786
81877SOL    HW257611   0.687  13.167   8.617 -0.2215  1.2643  1.1246
81878SOL     OW57612   2.381   1.836   4.099 -0.0485 -0.3290 -0.5788
81878SOL    HW157613   2.403   1.876   4.014 -0.4338 -2.0798 -1.5544
81878SOL    HW257614   2.289   1.861   4.113 -0.0485 -0.2110 -0.7813
81879SOL     OW57615   4.666   8.659   2.098  0.3611  0.6343 -0.1246
81879SOL    HW157616   4.690   8.596   2.166 -0.3769 -0.2315 -0.6488
81879SOL    HW257617   4.577   8.634   2.072  0.1050  1.8077 -0.4439
81880SOL     OW57618   2.179   0.302   2.615  0.3153  0.6394  0.0374
81880SOL    HW157619   2.237   0.226   2.624  1.3328  1.0962 -2.1141
81880SOL    HW257620   2.120   0.279   2.543 -1.7863  0.4827  1.7153
81881SOL     OW57621   6.458   0.089  11.475 -0.5033  0.0877 -0.0240
81881SOL    HW157622   6.381   0.084  11.419  0.7696  1.5971 -2.0467
81881SOL    HW257623   6.499   0.173  11.453  2.3075 -1.1033  0.1437
81882SOL     OW57624   3.389  13.104   3.339  0.4900  0.2544 -0.1122
81882SOL    HW157625   3.414  13.186   3.296  2.2236 -0.0161  0.3170
81882SOL    HW257626   3.446  13.098   3.415 -1.6436  0.0785  1.5582
81883SOL     OW57627   4.820   7.383   4.200  0.0747  0.1375  0.1032
81883SOL    HW157628   4.846   7.321   4.267  0.1025  0.4881  0.4195
81883SOL    HW257629   4.903   7.420   4.168  0.0060  0.7195  0.5972
81884SOL     OW57630   2.332   2.751   8.783  0.2384 -0.3139 -0.1905
81884SOL    HW157631   2.324   2.788   8.695 -1.2409  1.0933  0.4753
81884SOL    HW257632   2.351   2.659   8.769 -1.1247 -0.3690 -2.0152
81885SOL     OW57633   3.809   3.042  10.464 -0.1598  0.2064  0.0285
81885SOL    HW157634   3.900   3.023  10.489 -0.9330 -1.3492  1.9326
81885SOL    HW257635   3.789   2.977  10.397 -0.0875  0.1012  0.1086
81886SOL     OW57636   2.403   8.089   8.035 -0.2073  0.0122  0.2669
81886SOL    HW157637   2.430   8.001   8.062 -0.2582 -0.9917 -2.5357
81886SOL    HW257638   2.311   8.096   8.062 -0.4742 -1.2008 -0.2432
81887SOL     OW57639   9.996   3.447   9.219 -0.3662 -0.0003  0.0892
81887SOL    HW157640   9.984   3.451   9.314 -2.5613  0.5233 -0.1410
81887SOL    HW257641  10.090   3.455   9.206 -0.1170  1.2017  2.1643
81888SOL     OW57642   7.081  13.584   9.201 -0.0399  0.0119  0.2209
81888SOL    HW157643   7.112  13.515   9.260  0.5520  1.6913  1.9881
81888SOL    HW257644   7.012  13.629   9.251 -0.1561  0.9282 -0.7306
81889SOL     OW57645  10.876  10.727  11.546 -0.5776  0.2009 -0.6399
81889SOL    HW157646  10.828  10.686  11.474 -0.8724  1.8480 -1.4098
81889SOL    HW257647  10.843  10.683  11.625 -1.5859 -0.3546 -1.3528
81890SOL     OW57648  12.836   0.790   1.283 -0.1450 -0.5107 -0.2354
81890SOL    HW157649  12.813   0.842   1.206 -1.4137 -2.2546 -1.1123
81890SOL    HW257650  12.760   0.797   1.340 -0.2459 -1.2021 -0.2749
81891SOL     OW57651   7.813   7.668   2.413 -1.1609 -0.1978 -0.3577
81891SOL    HW157652   7.891   7.615   2.428 -1.7122 -0.8640  0.2717
81891SOL    HW257653   7.783   7.691   2.501 -0.6341  1.6359 -0.6250
81892SOL     OW57654  13.841   9.003   6.723  0.6133 -0.2584  0.0292
81892SOL    HW157655  13.768   9.005   6.785  0.0518  0.0897 -0.6240
81892SOL    HW257656  13.814   8.939   6.657  0.0463  1.1986 -1.2092
81893SOL     OW57657   9.625   7.831   7.201  0.2023  0.1934  0.0238
81893SOL    HW157658   9.583   7.898   7.255 -0.6130  0.2286 -0.6273
81893SOL    HW257659   9.665   7.771   7.264  0.3021  0.8811  0.6328
81894SOL     OW57660   3.479  11.066   2.600  0.2589 -0.7064  0.2944
81894SOL    HW157661   3.388  11.094   2.602 -0.3142 -2.4545  3.4188
81894SOL    HW257662   3.480  10.991   2.541  0.0525  0.1668 -0.8840
81895SOL     OW57663   0.577   0.377   0.510  0.3259  0.3597  0.4801
81895SOL    HW157664   0.670   0.400   0.499  0.3165  0.9256  1.4961
81895SOL    HW257665   0.576   0.282   0.503  0.4952  0.4596 -2.8392
81896SOL     OW57666   8.792   5.781   8.688  0.3246  0.0799  0.1076
81896SOL    HW157667   8.774   5.712   8.752  1.5194 -0.9021 -0.5825
81896SOL    HW257668   8.880   5.762   8.656  0.6671  1.9113 -0.1446
81897SOL     OW57669   7.627   6.351  13.010 -0.4061  0.3345 -0.3476
81897SOL    HW157670   7.601   6.440  12.986  0.0856  0.4343 -0.5268
81897SOL    HW257671   7.723   6.353  13.012 -0.4096  0.1455  0.9500
81898SOL     OW57672  10.929   0.203   7.808  0.1476 -0.0137 -0.2771
81898SOL    HW157673  10.955   0.116   7.837  1.9214  0.2801 -0.9249
81898SOL    HW257674  10.927   0.198   7.713 -0.2808  0.5081 -0.3016
81899SOL     OW57675   1.537   0.373   0.593  0.4749 -0.8476  0.1316
81899SOL    HW157676   1.565   0.450   0.544  0.5916  0.1739  1.7402
81899SOL    HW257677   1.591   0.302   0.559  2.0619  0.2540  0.2485
81900SOL     OW57678   9.470   3.544  10.966 -0.4747 -0.0225 -0.7788
81900SOL    HW157679   9.446   3.553  11.058 -2.5589 -0.2659 -1.2426
81900SOL    HW257680   9.387   3.554  10.919  0.2251 -1.8383 -2.5173
81901SOL     OW57681   3.818   9.528   1.456 -0.3153 -0.3085  0.6402
81901SOL    HW157682   3.870   9.589   1.403  1.1583 -1.3191  0.8512
81901SOL    HW257683   3.779   9.468   1.392 -0.4088 -0.1369  0.5381
81902SOL     OW57684  11.904   4.506   2.006  0.1433  0.1677  0.1595
81902SOL    HW157685  11.992   4.476   2.030  0.0667 -0.8025 -0.7170
81902SOL    HW257686  11.919   4.572   1.939  0.2077  0.2633  0.2663
81903SOL     OW57687   2.034  11.477   7.568 -0.2728 -0.0810 -0.7795
81903SOL    HW157688   1.945  11.448   7.547  0.0474 -1.6195 -0.1414
81903SOL    HW257689   2.091  11.418   7.520  0.4089 -0.5809  0.5698
81904SOL     OW57690   4.822  10.369  12.292  0.1206  0.5274  0.3234
81904SOL    HW157691   4.873  10.298  12.331 -1.3826 -0.6111  0.2991
81904SOL    HW257692   4.850  10.448  12.339  1.7422 -0.0671  0.4268
81905SOL     OW57693   6.657   6.311   0.814  0.2052  0.0633 -0.5573
81905SOL    HW157694   6.731   6.347   0.862 -0.4223  0.1799  0.3471
81905SOL    HW257695   6.697   6.259   0.744  1.1984 -1.3608  0.9905
81906SOL     OW57696   2.818   0.006   4.895  0.0356 -0.5466 -0.3230
81906SOL    HW157697   2.779  -0.072   4.934 -0.8582  0.2250  0.4091
81906SOL    HW257698   2.749   0.042   4.840  0.3235 -0.1125 -0.4052
81907SOL     OW57699   9.662   8.302   7.456 -0.1405 -0.2957  0.0689
81907SOL    HW157700   9.713   8.234   7.499  0.1316  0.0854  0.3511
81907SOL    HW257701   9.710   8.383   7.473 -1.6330  0.3262  1.7154
81908SOL     OW57702   4.793   3.463  11.845 -0.0171  0.1726 -0.4889
81908SOL    HW157703   4.724   3.527  11.828 -0.7989 -0.9223 -1.5821
81908SOL    HW257704   4.858   3.480  11.778 -1.6214 -2.0569 -2.7943
81909SOL     OW57705   2.304   2.205  12.918 -0.7052 -0.2925  0.2722
81909SOL    HW157706   2.243   2.138  12.949 -0.4130 -0.6383  0.1193
81909SOL    HW257707   2.373   2.206  12.984  0.0286 -1.1823 -0.4459
81910SOL     OW57708   6.616  10.832  11.985  0.7738 -0.3782  0.8369
81910SOL    HW157709   6.579  10.915  11.953 -2.6780 -0.1909  4.5140
81910SOL    HW257710   6.582  10.766  11.926  0.9106  0.5156 -0.2707
81911SOL     OW57711   7.017   5.380   3.416 -0.2148 -0.0246 -0.2960
81911SOL    HW157712   6.959   5.309   3.442  0.3609 -0.0613  0.9578
81911SOL    HW257713   7.063   5.346   3.338  0.0124 -1.0109  0.2546
81912SOL     OW57714   9.466   0.457   8.483 -0.3614 -1.1437 -0.0278
81912SOL    HW157715   9.540   0.458   8.422 -0.7384 -1.6682 -0.4954
81912SOL    HW257716   9.401   0.400   8.442 -1.1980 -0.3611  0.1796
81913SOL     OW57717  10.574   3.541   5.404  0.4476  0.1535  0.6270
81913SOL    HW157718  10.561   3.623   5.452  2.7416  0.6823  0.4833
81913SOL    HW257719  10.576   3.473   5.472  1.9648  0.6855  1.1657
81914SOL     OW57720   3.237   2.113   8.087 -0.0193  0.1583 -0.4865
81914SOL    HW157721   3.229   2.144   7.997 -0.9762  0.3351 -0.3471
81914SOL    HW257722   3.331   2.107   8.101  0.1672 -1.2964 -1.9939
81915SOL     OW57723   1.068   9.010   8.089 -0.3235 -0.2470 -0.0229
81915SOL    HW157724   1.062   8.930   8.141  0.5355 -1.2102 -1.3491
81915SOL    HW257725   1.034   8.986   8.003  0.2880  0.6995 -0.5549
81916SOL     OW57726   1.096   0.133   1.449  0.4625 -0.3053 -0.1757
81916SOL    HW157727   1.002   0.123   1.438  0.5395 -0.9196 -0.3150
81916SOL    HW257728   1.121   0.201   1.386  0.3995 -1.5131 -1.5696
81917SOL     OW57729   3.491   5.062  12.514 -0.0772  0.1899 -0.1423
81917SOL    HW157730   3.508   5.097  12.602  2.2811  0.1750 -0.5356
81917SOL    HW257731   3.546   4.984  12.508 -0.0188  0.3215 -1.7236
81918SOL     OW57732  12.391   3.250   9.676  0.3905  0.4768  0.1513
81918SOL    HW157733  12.346   3.291   9.602  1.0058 -0.7875 -0.9578
81918SOL    HW257734  12.451   3.187   9.636 -0.1351 -1.1242  1.7799
81919SOL     OW57735   2.380   5.463   7.627  0.0692 -0.1365 -0.4382
81919SOL    HW157736   2.469   5.430   7.619 -0.1090 -0.8495  0.3385
81919SOL    HW257737   2.364   5.469   7.721 -0.4924  0.5707 -0.5679
81920SOL     OW57738   6.093  11.401  13.249 -0.0727 -0.0411 -0.2501
81920SOL    HW157739   6.124  11.348  13.323  0.5989  2.6222  1.5112
81920SOL    HW257740   5.998  11.406  13.262 -0.1258 -0.6883 -0.3597
81921SOL     OW57741   6.195   5.386   5.518 -0.3115  0.0584 -0.3191
81921SOL    HW157742   6.202   5.291   5.526  1.4290  0.2017  0.3525
81921SOL    HW257743   6.101   5.403   5.515 -0.7138 -1.5733  1.0973
81922SOL     OW57744   3.592  10.402   4.410  0.6246  0.2965  0.2922
81922SOL    HW157745   3.599  10.351   4.490 -0.5991 -2.1596 -1.0433
81922SOL    HW257746   3.591  10.337   4.340 -0.0686  2.2296 -1.6202
81923SOL     OW57747   2.909   8.300   2.686 -0.7970 -0.1626  0.0353
81923SOL    HW157748   2.953   8.378   2.651 -1.9532  1.2342  1.5301
81923SOL    HW257749   2.883   8.251   2.608 -0.3779  1.1435 -0.9764
81924SOL     OW57750   1.272   5.893   9.910 -0.1876 -0.7681 -0.1257
81924SOL    HW157751   1.352   5.851   9.879  0.0606 -1.8268  1.8582
81924SOL    HW257752   1.302   5.974   9.951 -0.0211 -1.4623  1.1768
81925SOL     OW57753  12.258  10.049   9.757 -0.1447 -0.5993 -0.6151
81925SOL    HW157754  12.323   9.987   9.725 -0.6469 -0.3194 -2.3163
81925SOL    HW257755  12.176  10.000   9.760  0.0691 -0.9069  1.3612
81926SOL     OW57756   5.392   7.033   8.240  0.3241 -0.5406 -0.0099
81926SOL    HW157757   5.356   7.122   8.243 -1.0312 -1.0140 -1.0953
81926SOL    HW257758   5.364   6.993   8.323 -1.5451 -0.8127 -0.7090
81927SOL     OW57759   8.144   8.051   0.081 -0.3279 -0.2766 -0.6206
81927SOL    HW157760   8.169   8.131   0.126  0.8464 -0.1310 -1.4713
81927SOL    HW257761   8.082   8.079   0.014  0.0216 -0.0900 -0.8662
81928SOL     OW57762   4.453  10.998  11.731  0.0865  0.6892  0.5257
81928SOL    HW157763   4.509  10.935  11.776  0.6068  0.2161 -0.7476
81928SOL    HW257764   4.374  10.949  11.709 -1.4674  1.6435  3.3571
81929SOL     OW57765   4.125   9.544   1.871 -0.1146  0.6209  0.1686
81929SOL    HW157766   4.087   9.631   1.861  1.0635  1.0514 -0.7804
81929SOL    HW257767   4.095   9.495   1.794 -0.6407  0.2176  0.6165
81930SOL     OW57768  11.204   9.774   0.190 -0.3573 -0.2302 -0.3276
81930SOL    HW157769  11.152   9.854   0.185  0.2494  0.1085 -1.9616
81930SOL    HW257770  11.258   9.785   0.267 -1.4722  0.1733  0.4206
81931SOL     OW57771   0.977   7.101   0.566 -0.2132  0.0636  0.0002
81931SOL    HW157772   0.960   7.009   0.584  2.1385 -0.3171  0.6529
81931SOL    HW257773   0.985   7.142   0.652 -0.0142  0.6129 -0.2701
81932SOL     OW57774   6.428  11.239  13.557 -0.0543  0.1294  0.0050
81932SOL    HW157775   6.434  11.157  13.509 -0.6749 -0.9062  1.6246
81932SOL    HW257776   6.500  11.236  13.620 -0.6392  0.3911  0.7027
81933SOL     OW57777   3.224  11.499   3.558 -0.3640 -0.6557 -0.4108
81933SOL    HW157778   3.151  11.538   3.606 -0.3977 -0.7706 -0.3669
81933SOL    HW257779   3.186  11.425   3.512  0.0201 -1.7272  0.9119
81934SOL     OW57780  10.189  10.982   1.555  0.3639 -0.1237 -0.2201
81934SOL    HW157781  10.285  10.974   1.552  0.4705  1.1037 -0.4376
81934SOL    HW257782  10.173  11.058   1.611 -0.4897 -0.2610 -0.2714
81935SOL     OW57783   4.249   4.760  11.651  0.3893 -0.6244 -0.6163
81935SOL    HW157784   4.196   4.730  11.577  1.1517 -0.8947 -1.0638
81935SOL    HW257785   4.328   4.796  11.611  1.0889 -1.3437  0.0875
81936SOL     OW57786   8.794   8.203  10.219 -0.4404 -0.6717  0.3576
81936SOL    HW157787   8.851   8.139  10.178  0.1655 -0.2999  0.6059
81936SOL    HW257788   8.723   8.151  10.258 -0.8360 -1.0486 -0.8364
81937SOL     OW57789   1.380  11.598   0.584 -0.2519  0.2252  0.2960
81937SOL    HW157790   1.366  11.676   0.530 -0.1627 -0.1177 -0.2214
81937SOL    HW257791   1.442  11.627   0.651 -1.5417  1.0852  1.1661
81938SOL     OW57792   0.818   8.150  11.987 -0.5963  0.0745 -0.1050
81938SOL    HW157793   0.735   8.198  11.978 -0.6357  0.1701  0.6955
81938SOL    HW257794   0.874   8.209  12.037 -0.3992 -0.4160  0.2585
81939SOL     OW57795   3.403   4.458  10.339  0.1776  0.2452 -0.1294
81939SOL    HW157796   3.359   4.542  10.329 -0.4717 -0.0203  0.4651
81939SOL    HW257797   3.444   4.442  10.253  0.1137  1.0487 -0.3177
81940SOL     OW57798   6.191   4.612   9.863  0.3802  0.7993 -0.3402
81940SOL    HW157799   6.269   4.633   9.811 -0.6088 -0.3416 -2.4064
81940SOL    HW257800   6.178   4.518   9.849 -2.3695  1.2583 -1.6107
81941SOL     OW57801  11.924   1.377   4.176 -0.7452  0.0134  0.1927
81941SOL    HW157802  11.854   1.437   4.201 -1.8302 -0.4681 -1.5534
81941SOL    HW257803  11.916   1.367   4.081  1.1639 -0.7292  0.0540
81942SOL     OW57804   5.991   3.974  13.465 -0.3819  0.6117 -0.1135
81942SOL    HW157805   6.030   3.918  13.532 -1.0203 -2.5103 -2.0805
81942SOL    HW257806   5.898   3.975  13.486 -0.4485  0.4101 -0.3826
81943SOL     OW57807  12.786   6.531   0.776 -0.5507 -0.4850  0.5269
81943SOL    HW157808  12.834   6.458   0.816  0.5131  0.5468  1.2314
81943SOL    HW257809  12.702   6.533   0.823 -0.9302 -1.7317 -0.0579
81944SOL     OW57810  13.232   4.063   0.386 -0.0021 -0.0246  0.4109
81944SOL    HW157811  13.160   4.062   0.322  0.0427  2.3870  0.2579
81944SOL    HW257812  13.303   4.110   0.342  0.9213 -0.4954  1.3575
81945SOL     OW57813   1.484   9.343   9.104  0.2312  0.5948  0.0729
81945SOL    HW157814   1.544   9.346   9.030  0.7675 -1.3498  0.3513
81945SOL    HW257815   1.424   9.272   9.082 -0.1936  0.6299  1.0703
81946SOL     OW57816  10.812  13.506   8.715 -0.8658  0.3612  0.3841
81946SOL    HW157817  10.815  13.559   8.794 -0.0095 -1.9081  1.9720
81946SOL    HW257818  10.902  13.474   8.703 -1.0605  0.3158 -1.2942
81947SOL     OW57819   6.492   2.612   1.854  0.6165  0.2480  0.8835
81947SOL    HW157820   6.571   2.652   1.816  1.1794 -1.3207  0.2958
81947SOL    HW257821   6.521   2.526   1.885 -0.8751 -0.4110  0.5595
81948SOL     OW57822  12.092   0.533   5.084 -0.4935 -0.1767 -0.4067
81948SOL    HW157823  12.158   0.520   5.016 -0.1198  1.4942 -0.4149
81948SOL    HW257824  12.022   0.472   5.062  1.0095 -1.9603 -0.4113
81949SOL     OW57825   4.705   8.431   3.985  0.1281  0.6580 -0.9335
81949SOL    HW157826   4.793   8.407   3.957  0.8198  1.0665  0.7691
81949SOL    HW257827   4.690   8.379   4.063 -1.5654 -0.1442 -1.7392
81950SOL     OW57828   5.941   5.210  13.779  0.0030 -0.0148  0.5578
81950SOL    HW157829   6.006   5.254  13.725  1.9085 -1.6131  1.4129
81950SOL    HW257830   5.896   5.281  13.825  0.5727  1.1780 -0.6565
81951SOL     OW57831   3.602   8.696   1.916  0.1738  0.5952  0.3894
81951SOL    HW157832   3.673   8.680   1.854 -1.2768 -0.2348 -1.1535
81951SOL    HW257833   3.642   8.688   2.002  2.3480  2.1573 -0.4001
81952SOL     OW57834   2.882   3.635   6.316  0.0612  0.3680  0.4836
81952SOL    HW157835   2.936   3.649   6.238  0.4808 -0.4072  0.6315
81952SOL    HW257836   2.856   3.543   6.312  0.5850  0.1623  1.5648
81953SOL     OW57837   0.897   3.665   8.420 -0.8361 -0.1336 -0.2947
81953SOL    HW157838   0.813   3.697   8.384 -1.3275 -0.4236  0.5748
81953SOL    HW257839   0.889   3.569   8.415 -0.4703 -0.1587 -0.3859
81954SOL     OW57840   3.491   6.536   9.029  0.4299  0.0333 -0.2537
81954SOL    HW157841   3.410   6.582   9.008  0.9355  0.2625 -1.8298
81954SOL    HW257842   3.542   6.538   8.948  2.1277  0.1188  0.7603
81955SOL     OW57843   4.018  12.257   5.396  0.2762  0.2615  0.5145
81955SOL    HW157844   4.061  12.262   5.310 -0.8860 -0.5627 -0.1506
81955SOL    HW257845   3.928  12.282   5.378 -0.3968 -1.5586  1.1484
81956SOL     OW57846   0.370   8.164  10.356  0.2301  0.2470  0.3158
81956SOL    HW157847   0.463   8.181  10.338  0.1407  0.1646 -0.2636
81956SOL    HW257848   0.358   8.190  10.447  0.6894  0.8221  0.2214
81957SOL     OW57849  13.366   8.476   2.683  0.6114  0.7623 -0.4951
81957SOL    HW157850  13.418   8.514   2.612 -0.1654  0.7910 -1.0586
81957SOL    HW257851  13.430   8.430   2.738  1.3314  1.4509 -0.7395
81958SOL     OW57852  10.123   7.937   6.761  0.4202 -0.5081  0.3588
81958SOL    HW157853  10.078   8.013   6.798  0.0816 -0.6681  0.2782
81958SOL    HW257854  10.193   7.975   6.708 -0.1125 -0.2309 -0.1571
81959SOL     OW57855  13.381   6.221   5.282  0.0320  0.2274  0.1330
81959SOL    HW157856  13.384   6.159   5.355  2.2946  1.8444  1.5441
81959SOL    HW257857  13.362   6.166   5.205 -0.5986 -1.8005  1.6497
81960SOL     OW57858   8.160  13.818  13.607 -0.5317  0.5123  0.5582
81960SOL    HW157859   8.085  13.781  13.653  0.2421 -1.1503  0.5650
81960SOL    HW257860   8.198  13.745  13.559  1.2211  1.2326  0.7407
81961SOL     OW57861  13.488  11.283  13.302  0.3609  0.2134  0.4732
81961SOL    HW157862  13.570  11.260  13.259  0.5112 -0.4626  1.0903
81961SOL    HW257863  13.447  11.346  13.244  0.9039 -0.1104 -0.2794
81962SOL     OW57864   1.233  12.301  12.336  0.0888  0.1868 -0.0150
81962SOL    HW157865   1.251  12.391  12.361 -0.0688  0.1427  0.2570
81962SOL    HW257866   1.286  12.247  12.395  0.3068  0.1030 -0.2805
81963SOL     OW57867   5.240   4.790   4.402  0.5131 -0.7628  0.0535
81963SOL    HW157868   5.171   4.731   4.431 -0.5809  1.2196  1.8051
81963SOL    HW257869   5.322   4.748   4.430 -0.2398 -1.3177  1.5212
81964SOL     OW57870  10.914   0.425  13.333  0.5837 -0.2691 -0.2044
81964SOL    HW157871  10.899   0.331  13.345  0.6523 -0.2677 -0.0996
81964SOL    HW257872  10.968   0.450  13.409 -0.1812  0.0373  0.2513
81965SOL     OW57873  14.011   0.705   0.745  0.3617 -0.1226  0.0829
81965SOL    HW157874  14.039   0.793   0.770 -1.3106  0.5494 -0.2216
81965SOL    HW257875  13.945   0.682   0.810  0.2278 -0.8209 -0.2912
81966SOL     OW57876   1.435   8.316   0.365 -0.2749  0.2765  0.0030
81966SOL    HW157877   1.374   8.354   0.427 -0.5567  1.5676 -1.0374
81966SOL    HW257878   1.490   8.258   0.418 -1.5377  0.1073  1.1642
81967SOL     OW57879  11.630   4.287   0.624  0.6327 -0.3238  0.5121
81967SOL    HW157880  11.574   4.290   0.702  0.7615 -0.1795  0.6006
81967SOL    HW257881  11.582   4.336   0.558  0.5625 -0.3714  0.5278
81968SOL     OW57882   5.485   5.756   3.128  0.7675  0.5305 -0.0307
81968SOL    HW157883   5.397   5.791   3.139  0.4566  0.2730 -1.5195
81968SOL    HW257884   5.497   5.696   3.202 -0.2981  0.5427  0.1617
81969SOL     OW57885  10.881   9.892  11.704  0.5351  0.1155  0.1411
81969SOL    HW157886  10.898   9.979  11.668  1.3222 -0.2817 -0.4922
81969SOL    HW257887  10.951   9.877  11.767  1.2200 -0.6052 -0.7677
81970SOL     OW57888   9.882  10.989   8.083 -0.4477 -0.0361  0.1978
81970SOL    HW157889   9.882  11.050   8.009 -0.8169  0.3898  0.5466
81970SOL    HW257890   9.974  10.983   8.109 -0.3548  0.0397 -0.1112
81971SOL     OW57891  11.735   4.925   1.616 -0.2245 -0.1551  0.7348
81971SOL    HW157892  11.673   4.854   1.595  0.1759 -0.8643  1.8328
81971SOL    HW257893  11.703   4.960   1.699 -0.3517  0.8934  0.2481
81972SOL     OW57894   1.646  10.425   3.512  0.2963  0.0276  0.8589
81972SOL    HW157895   1.675  10.349   3.462 -0.1950  0.5430 -0.2336
81972SOL    HW257896   1.552  10.430   3.497  0.5709  1.9032 -0.6092
81973SOL     OW57897   7.952  13.984   7.425 -0.1879  0.0975  0.5038
81973SOL    HW157898   8.027  14.036   7.455 -0.3806  1.1832 -0.7828
81973SOL    HW257899   7.971  13.895   7.454  1.3867  0.4430  0.6094
81974SOL     OW57900   6.811  10.326   1.784 -0.0707  0.2626 -0.0006
81974SOL    HW157901   6.819  10.276   1.866  2.2151 -0.4041 -0.5654
81974SOL    HW257902   6.901  10.338   1.755 -0.8362  0.3985 -2.4830
81975SOL     OW57903  13.867   0.653   3.030  0.6625 -0.6812 -0.0281
81975SOL    HW157904  13.777   0.684   3.015  0.2992 -2.2351 -1.3417
81975SOL    HW257905  13.892   0.610   2.948  1.4425 -3.0247  1.3348
81976SOL     OW57906   8.642   2.384   5.954  0.4733 -0.2148  0.0175
81976SOL    HW157907   8.655   2.473   5.987  0.2180  0.0683 -0.6330
81976SOL    HW257908   8.720   2.367   5.901 -0.0735  0.1174 -0.9183
81977SOL     OW57909  12.033   4.482  10.884  0.1104 -0.5310 -0.1193
81977SOL    HW157910  11.947   4.469  10.842  0.9323 -1.0155 -1.7493
81977SOL    HW257911  12.066   4.394  10.898  0.4676 -0.3400  0.2311
81978SOL     OW57912  10.059   2.640   9.185 -0.0059 -0.1761  0.4165
81978SOL    HW157913  10.004   2.572   9.224 -1.4973  1.3347  1.0572
81978SOL    HW257914  10.013   2.722   9.203  2.1072  1.1097  0.3437
81979SOL     OW57915   9.638   6.921   6.773 -0.3156  0.5662  0.3182
81979SOL    HW157916   9.611   6.941   6.684  1.6437  1.9431 -0.0267
81979SOL    HW257917   9.558   6.887   6.815 -0.8792 -1.8463 -2.3728
81980SOL     OW57918  13.700   8.884   4.189 -0.2313 -0.4129 -0.4393
81980SOL    HW157919  13.743   8.927   4.262  1.1662 -1.7015 -0.4470
81980SOL    HW257920  13.609   8.914   4.193 -0.3590 -0.8811  2.1858
81981SOL     OW57921   2.220  13.036   4.448 -0.1892  0.5644  0.2612
81981SOL    HW157922   2.213  13.094   4.372  0.0181  0.8283  0.4406
81981SOL    HW257923   2.294  13.071   4.498  0.6702 -0.5393 -0.2093
81982SOL     OW57924   7.526   7.687   6.385  0.8088 -0.3332 -0.1551
81982SOL    HW157925   7.462   7.712   6.318  1.1349  0.0643 -0.3255
81982SOL    HW257926   7.474   7.673   6.464  0.5126  0.0471 -0.2770
81983SOL     OW57927   0.258  12.616   0.772 -0.3833  0.5445  0.2419
81983SOL    HW157928   0.174  12.572   0.762  0.3899 -0.9717  0.1022
81983SOL    HW257929   0.256  12.654   0.860 -1.2364  0.5978  0.2041
81984SOL     OW57930   8.133   7.890   1.394 -0.7021  0.4299  0.0213
81984SOL    HW157931   8.176   7.865   1.312 -1.0666  0.7733 -0.2788
81984SOL    HW257932   8.174   7.835   1.461  0.1812  0.7253 -0.2590
81985SOL     OW57933   4.144   7.209   8.442 -0.0628 -0.1353  0.0152
81985SOL    HW157934   4.067   7.212   8.385  0.9367  2.8142 -1.3507
81985SOL    HW257935   4.109   7.181   8.527 -2.8107  1.8112 -0.3297
81986SOL     OW57936  12.782   3.992   6.306  0.1274  0.5954 -0.1037
81986SOL    HW157937  12.849   4.036   6.358 -0.6035  0.7105  0.7698
81986SOL    HW257938  12.804   3.899   6.311  2.3907  0.8293 -2.9606
81987SOL     OW57939   7.130  11.351   4.464  0.2617 -0.5973  0.1163
81987SOL    HW157940   7.096  11.391   4.384 -1.2109 -0.8873  0.5567
81987SOL    HW257941   7.068  11.281   4.484 -0.0080  0.1159  2.0618
81988SOL     OW57942   2.842   2.783   8.017 -0.3780  0.6013 -0.6825
81988SOL    HW157943   2.908   2.826   7.963  0.8377  0.0063  0.2699
81988SOL    HW257944   2.785   2.854   8.047  0.9325  1.4168 -0.0293
81989SOL     OW57945   5.104  10.021  13.065 -0.0864  0.3080 -0.2736
81989SOL    HW157946   5.091  10.066  12.981 -2.0866 -1.7797 -1.1738
81989SOL    HW257947   5.181   9.965  13.051 -0.4363 -0.0611 -0.7428
81990SOL     OW57948   1.205  13.559   6.546  0.2547  1.0198 -0.2641
81990SOL    HW157949   1.138  13.519   6.491  0.6506 -0.8713  0.5743
81990SOL    HW257950   1.287  13.543   6.499  0.3665  1.4256 -0.2166
81991SOL     OW57951   9.582  12.283  10.993  0.0900  0.2583  0.3266
81991SOL    HW157952   9.509  12.225  11.014  0.8310 -1.3451 -1.2582
81991SOL    HW257953   9.625  12.299  11.077 -0.5442 -0.9351  0.9007
81992SOL     OW57954  11.170  12.070   9.069 -0.3345  0.3375 -0.3416
81992SOL    HW157955  11.157  12.158   9.103 -1.9505 -0.4862  1.3313
81992SOL    HW257956  11.223  12.026   9.136 -1.9060 -0.7458  0.2443
81993SOL     OW57957  12.205   3.124  13.330 -0.6160 -0.2533  0.8441
81993SOL    HW157958  12.262   3.095  13.401 -1.6418  0.0303  1.8066
81993SOL    HW257959  12.129   3.066  13.334 -0.7354 -0.1681  0.0419
81994SOL     OW57960   3.120  12.693  13.688  0.2262 -0.2310  0.2892
81994SOL    HW157961   3.170  12.682  13.769  1.1310  0.9610 -0.0694
81994SOL    HW257962   3.029  12.678  13.713  0.3044  1.4834  1.8672
81995SOL     OW57963   6.419   3.715   7.683 -0.1492  0.3798  0.1794
81995SOL    HW157964   6.331   3.749   7.698 -0.1100  0.3207  0.5443
81995SOL    HW257965   6.474   3.761   7.746  0.0630  0.3365  0.0256
81996SOL     OW57966   0.055   0.572   1.206 -0.0273  0.1722 -0.2488
81996SOL    HW157967  -0.009   0.503   1.221  0.8383 -0.4467  0.7474
81996SOL    HW257968   0.140   0.528   1.215  0.5428  1.4648  0.9699
81997SOL     OW57969   6.236   8.365   9.426 -0.4205  0.3690 -0.1617
81997SOL    HW157970   6.168   8.432   9.436 -1.3847 -0.4908 -0.6431
81997SOL    HW257971   6.230   8.312   9.505  1.3600  1.6801  0.9271
81998SOL     OW57972  13.732   7.560   1.904  0.7158  0.0486 -0.4330
81998SOL    HW157973  13.741   7.529   1.993  0.2512 -1.3117 -0.8412
81998SOL    HW257974  13.638   7.568   1.890  0.6194 -2.1762 -1.5585
81999SOL     OW57975   8.075  12.043   5.401  0.1048 -0.0538  0.3525
81999SOL    HW157976   7.995  12.065   5.354 -1.3965 -2.1217  1.7697
81999SOL    HW257977   8.119  12.127   5.414 -2.8823  1.5019  1.3361
82000SOL     OW57978  11.576   0.310  12.248 -0.0065 -0.5978 -0.5305
82000SOL    HW157979  11.649   0.355  12.292 -1.8171  1.2268  0.8182
82000SOL    HW257980  11.521   0.278  12.320 -2.0448  0.7501 -1.3934
82001SOL     OW57981  13.286  13.048   6.807 -0.1696 -0.5001  0.0494
82001SOL    HW157982  13.203  13.087   6.780 -0.3927 -0.7001  0.4398
82001SOL    HW257983  13.335  13.120   6.847 -0.5480 -0.5940  0.6950
82002SOL     OW57984   5.247   7.249  11.218  0.7814 -0.1317 -0.7534
82002SOL    HW157985   5.266   7.342  11.230  1.0571 -0.3955  1.1759
82002SOL    HW257986   5.186   7.228  11.288 -0.0772 -1.2027 -1.7854
82003SOL     OW57987  12.498  12.715  11.531  0.0509  0.1133  0.3361
82003SOL    HW157988  12.535  12.646  11.476 -0.5506  0.9496 -1.1550
82003SOL    HW257989  12.534  12.796  11.495 -1.1016  0.7430  0.5641
82004SOL     OW57990   3.101   3.639   0.964  0.0905  0.2254  0.3553
82004SOL    HW157991   3.097   3.697   0.888 -2.3509  1.1467  1.0789
82004SOL    HW257992   3.068   3.555   0.931 -1.3193  0.7222  0.4013
82005SOL     OW57993   6.179   1.798   7.465 -0.0015  0.4442 -0.4608
82005SOL    HW157994   6.138   1.758   7.542  1.5264 -1.8808 -0.7294
82005SOL    HW257995   6.270   1.812   7.492  0.0546  1.5726 -1.1953
82006SOL     OW57996   4.559   9.504   6.916  0.0188 -0.3254  0.1780
82006SOL    HW157997   4.484   9.453   6.946  0.6913 -2.7125 -1.8288
82006SOL    HW257998   4.521   9.580   6.872 -1.1828 -0.7312  0.4882
82007SOL     OW57999   6.305  11.490   1.067  0.0750  0.3935 -0.0860
82007SOL    HW158000   6.303  11.426   1.138  0.4350  1.6249  1.0830
82007SOL    HW258001   6.266  11.445   0.993  2.1090 -1.8855  0.0814
82008SOL     OW58002  11.795   2.501   0.178 -0.5161 -0.1608  0.3178
82008SOL    HW158003  11.712   2.538   0.148 -0.2757 -0.2133 -0.4311
82008SOL    HW258004  11.839   2.574   0.221 -0.0165  0.4919 -1.2105
82009SOL     OW58005  12.491  11.777  13.413 -0.3726 -0.2863 -0.1120
82009SOL    HW158006  12.550  11.844  13.378  0.4276 -0.9849 -0.1234
82009SOL    HW258007  12.547  11.720  13.465 -0.7437 -1.8902 -1.4094
82010SOL     OW58008  12.183  11.330  12.384 -0.0287 -0.1454 -0.3888
82010SOL    HW158009  12.101  11.356  12.424  0.5851  0.1151  0.7385
82010SOL    HW258010  12.174  11.356  12.292 -1.2277 -0.2165 -0.3075
82011SOL     OW58011  10.772  13.020  11.720  0.6072  0.1525 -0.1672
82011SOL    HW158012  10.784  12.989  11.810  0.9481  1.4235  0.2460
82011SOL    HW258013  10.713  12.955  11.680  0.6508 -0.5648  0.8874
82012SOL     OW58014   1.215  12.958  11.624  0.4032  1.0317  0.0170
82012SOL    HW158015   1.198  12.924  11.712 -1.2944 -0.1575 -0.7166
82012SOL    HW258016   1.197  13.052  11.631  1.4944  1.1902  1.1953
82013SOL     OW58017  13.773   6.259   4.491 -0.4567  0.3841 -0.6406
82013SOL    HW158018  13.851   6.258   4.436  0.2088 -0.1144  0.2771
82013SOL    HW258019  13.701   6.238   4.431  0.4372 -1.7874 -1.0604
82014SOL     OW58020  12.464  11.255  12.315 -0.1057 -0.2165 -0.0565
82014SOL    HW158021  12.449  11.271  12.222 -0.7322 -1.9631 -0.2910
82014SOL    HW258022  12.406  11.317  12.359  0.0391  0.4768 -0.8159
82015SOL     OW58023  12.787   2.411   6.925  0.7265 -0.1221 -0.0436
82015SOL    HW158024  12.810   2.417   6.832 -1.5291 -0.6220 -0.6883
82015SOL    HW258025  12.722   2.480   6.938 -1.1492 -1.8709  0.3952
82016SOL     OW58026   9.768   4.086   8.116 -0.0482  0.3228  0.3214
82016SOL    HW158027   9.757   4.175   8.151 -0.9119  0.1169  0.5854
82016SOL    HW258028   9.763   4.029   8.193 -0.3849 -0.0154  0.0536
82017SOL     OW58029  10.655   1.495  13.570 -0.0851  0.7415  0.6511
82017SOL    HW158030  10.691   1.579  13.600 -0.2182  1.3145 -0.7179
82017SOL    HW258031  10.714   1.430  13.608  0.6333  1.5085  0.9008
82018SOL     OW58032   8.335  13.664   0.069 -0.2097 -0.1247  0.3576
82018SOL    HW158033   8.365  13.578   0.038 -0.0950 -0.4127  1.2570
82018SOL    HW258034   8.355  13.723  -0.004 -1.1915 -1.0197 -0.6685
82019SOL     OW58035   8.819  10.173  11.240 -0.3224 -0.1703  0.1333
82019SOL    HW158036   8.752  10.164  11.172 -0.6667 -1.7552  0.6336
82019SOL    HW258037   8.780  10.234  11.304 -1.3334 -1.1017  0.4359
82020SOL     OW58038  11.460   8.982   4.657  0.2240  0.5981  0.3086
82020SOL    HW158039  11.473   8.926   4.580 -0.3049  0.6873  0.1520
82020SOL    HW258040  11.368   9.007   4.653 -0.2855 -0.8260  1.9222
82021SOL     OW58041   8.841  11.800   9.742  0.0113  0.0492 -0.5554
82021SOL    HW158042   8.897  11.875   9.722  1.8780 -0.7386  1.4106
82021SOL    HW258043   8.901  11.731   9.770 -1.8961 -0.8636  1.6010
82022SOL     OW58044   9.164  11.144   4.842  0.1710  0.6625 -0.5185
82022SOL    HW158045   9.240  11.111   4.889 -0.1786 -0.1131 -0.4680
82022SOL    HW258046   9.200  11.195   4.770  0.7461 -0.0020 -0.7130
82023SOL     OW58047   4.978   2.620   1.971 -0.1245  0.1962 -0.0026
82023SOL    HW158048   4.907   2.653   2.027  0.4414  1.9753 -0.2595
82023SOL    HW258049   4.967   2.525   1.971 -0.2863  0.1236  2.9397
82024SOL     OW58050  13.961   8.510  10.329 -0.3327 -0.1195 -0.2536
82024SOL    HW158051  13.894   8.502  10.397  0.0867 -0.2803  0.1469
82024SOL    HW258052  14.036   8.550  10.373 -0.1433  0.0070 -0.6828
82025SOL     OW58053  12.980   0.072   5.928  0.0211  0.1829  0.2359
82025SOL    HW158054  13.060   0.030   5.960 -0.8352 -1.0039  0.8941
82025SOL    HW258055  12.931   0.095   6.007 -1.4617 -1.4891 -0.1347
82026SOL     OW58056  12.420   7.712  11.790  0.4911 -0.1104 -0.2386
82026SOL    HW158057  12.490   7.775  11.806  0.7433 -0.8323  1.7078
82026SOL    HW258058  12.449   7.631  11.833 -1.0678 -0.7357 -0.2938
82027SOL     OW58059   3.118   2.625   2.986  0.1047  0.3123 -0.2661
82027SOL    HW158060   3.176   2.701   2.986 -1.6017  1.6692  0.7474
82027SOL    HW258061   3.045   2.649   2.930 -0.5266 -0.5332  0.1631
82028SOL     OW58062   4.242   4.814   1.513 -0.2032  0.3627  0.1469
82028SOL    HW158063   4.203   4.758   1.581 -0.2208  1.2883  0.9167
82028SOL    HW258064   4.191   4.894   1.516  0.2365  0.6706 -0.5006
82029SOL     OW58065   9.914  13.639   7.245  0.2064  0.1786 -0.1030
82029SOL    HW158066   9.903  13.664   7.337 -0.7049 -0.8574  0.0933
82029SOL    HW258067  10.007  13.654   7.227  0.2493  1.0740  0.7693
82030SOL     OW58068   8.830   6.281   0.626  0.5084  0.4648  0.3263
82030SOL    HW158069   8.902   6.337   0.596  0.0343  0.7028 -0.3936
82030SOL    HW258070   8.792   6.329   0.699 -0.5237  1.6067 -0.9027
82031SOL     OW58071   2.012   0.597   1.047  0.1068  0.4768  1.0070
82031SOL    HW158072   1.998   0.528   0.982 -2.2813  1.4998  0.3195
82031SOL    HW258073   1.936   0.655   1.038  1.3621  2.5106  2.4373
82032SOL     OW58074   0.503   6.138   1.819 -0.3375  0.3181  0.0034
82032SOL    HW158075   0.536   6.161   1.732  0.3474 -0.3939  0.0644
82032SOL    HW258076   0.478   6.222   1.858 -2.3648  0.5126 -1.5410
82033SOL     OW58077  12.131  11.759   6.553 -0.0068  0.3853 -0.1279
82033SOL    HW158078  12.099  11.690   6.496  0.2881  0.0028  0.1622
82033SOL    HW258079  12.176  11.713   6.624  2.0148  0.9209 -0.9957
82034SOL     OW58080   7.919   5.678  13.580 -0.3669  0.1642 -0.2350
82034SOL    HW158081   8.014   5.670  13.581 -0.0102  2.8408 -1.6872
82034SOL    HW258082   7.893   5.652  13.492 -0.7672  0.8546 -0.3345
82035SOL     OW58083   6.873   2.474   9.197 -0.4859 -0.2394  0.0111
82035SOL    HW158084   6.858   2.500   9.288  1.0082  1.7500 -0.2336
82035SOL    HW258085   6.952   2.420   9.200  0.3670  0.9471 -0.2000
82036SOL     OW58086  11.118   2.663   5.172  0.0793  0.4502  0.3329
82036SOL    HW158087  11.139   2.720   5.098  0.2499  0.0321  0.0617
82036SOL    HW258088  11.203   2.632   5.203 -0.1007 -1.2700 -0.7798
82037SOL     OW58089  10.850  13.943  13.838  0.6101  0.0046 -0.1220
82037SOL    HW158090  10.820  14.027  13.871  0.9475  0.1040 -0.0669
82037SOL    HW258091  10.945  13.948  13.842  0.6313 -0.3958 -0.0775
82038SOL     OW58092   7.721   2.971  11.404  0.4571  0.2216  0.3837
82038SOL    HW158093   7.709   2.925  11.322  0.6666 -1.0746  1.0601
82038SOL    HW258094   7.707   3.063  11.382 -0.0139 -0.1567 -0.9841
82039SOL     OW58095   1.768   5.658   1.199  0.0248 -0.3678 -0.0757
82039SOL    HW158096   1.749   5.741   1.243 -0.1298 -0.6205  0.3432
82039SOL    HW258097   1.859   5.640   1.219 -0.0321 -0.4585  0.1114
82040SOL     OW58098   4.349   3.170  11.758  0.2747 -0.5431  0.3204
82040SOL    HW158099   4.363   3.230  11.685 -2.0768  0.9601  1.0005
82040SOL    HW258100   4.410   3.201  11.826 -1.4617  1.7252  0.9655
82041SOL     OW58101  12.315   0.348   1.962  0.1662 -0.0105  0.3585
82041SOL    HW158102  12.336   0.280   2.027 -1.2617 -1.7409 -0.8884
82041SOL    HW258103  12.222   0.336   1.943  0.6260  0.0061 -2.4132
82042SOL     OW58104  10.279   2.073  11.611 -0.1732 -0.3772  0.0296
82042SOL    HW158105  10.213   2.088  11.543 -3.2285 -1.9606  2.4002
82042SOL    HW258106  10.316   2.159  11.628 -0.1543  0.2651 -2.7000
82043SOL     OW58107   3.156   9.455  12.701  0.3080  0.2791 -0.1644
82043SOL    HW158108   3.194   9.406  12.628  0.5106  0.7720 -0.3917
82043SOL    HW258109   3.138   9.388  12.768  0.5042 -0.1163 -0.5024
82044SOL     OW58110   4.599  12.296  11.827 -0.3660  0.0722  0.4625
82044SOL    HW158111   4.546  12.315  11.750 -0.3794  0.3162  0.5304
82044SOL    HW258112   4.680  12.258  11.793 -0.1086  0.7665  0.2929
82045SOL     OW58113   1.917  12.145  10.191  0.8987  0.1812 -0.2122
82045SOL    HW158114   1.929  12.083  10.263 -0.1083  2.0426  1.6686
82045SOL    HW258115   1.823  12.148  10.177  1.1231 -2.0387 -3.5155
82046SOL     OW58116   1.118   3.778   1.031  0.2314 -0.1809 -0.0816
82046SOL    HW158117   1.160   3.713   1.087 -1.5970  0.1848  1.8242
82046SOL    HW258118   1.081   3.843   1.091 -0.2694  1.2303 -1.8008
82047SOL     OW58119   6.696   1.007   7.537  0.1447 -0.1326  0.0904
82047SOL    HW158120   6.685   1.041   7.626  0.8211  2.3445 -0.6855
82047SOL    HW258121   6.787   1.028   7.515 -0.2452  0.0029 -1.4477
82048SOL     OW58122   1.459   0.416   1.437 -0.4134 -0.1969 -0.4201
82048SOL    HW158123   1.432   0.325   1.422  0.0034 -0.2143 -1.1205
82048SOL    HW258124   1.464   0.454   1.349 -0.0296  0.3432 -0.1707
82049SOL     OW58125   6.081  13.230  10.677  0.2351  0.3354  0.7184
82049SOL    HW158126   6.148  13.271  10.623  1.1850 -2.1292 -0.1087
82049SOL    HW258127   6.000  13.242  10.627  0.7211  0.0137 -0.1577
82050SOL     OW58128  10.146  11.026   8.195 -0.2572 -0.2761 -0.7586
82050SOL    HW158129  10.123  11.119   8.193 -1.8369 -0.6444 -1.5581
82050SOL    HW258130  10.166  11.008   8.287  1.7368  1.1933 -0.8328
82051SOL     OW58131   7.304   0.538   6.562  0.3650  0.5436  0.5320
82051SOL    HW158132   7.367   0.516   6.631  0.6829 -1.8014 -0.4179
82051SOL    HW258133   7.336   0.491   6.484 -2.3798 -0.5539 -0.0523
82052SOL     OW58134   9.240  11.447  14.036  0.3645 -0.0872  0.1224
82052SOL    HW158135   9.147  11.428  14.037  0.0949  1.1834  0.4465
82052SOL    HW258136   9.249  11.522  13.978  0.9017  1.0767  1.6446
82053SOL     OW58137   6.108  10.110   5.364  0.0258  0.1535  0.3046
82053SOL    HW158138   6.140  10.020   5.376  2.4851  1.1993  2.5879
82053SOL    HW258139   6.014  10.100   5.352  0.4440 -2.8240 -1.4064
82054SOL     OW58140  10.189   5.407   5.686 -0.3085 -0.1446 -0.1934
82054SOL    HW158141  10.126   5.423   5.756  1.5345 -1.8955  2.0472
82054SOL    HW258142  10.148   5.340   5.632 -0.3943 -1.3323  1.2867
82055SOL     OW58143   3.959  12.509   2.776 -0.0159  0.8025  0.3147
82055SOL    HW158144   4.053  12.510   2.754  0.4963 -2.9045  1.6622
82055SOL    HW258145   3.923  12.584   2.729  3.0875  0.6085 -2.7575
82056SOL     OW58146   3.246  11.066  12.538 -0.1034 -0.2768  0.0578
82056SOL    HW158147   3.330  11.053  12.495 -0.0300 -1.0140  0.4020
82056SOL    HW258148   3.192  11.110  12.472  1.4832  3.2208  0.9081
82057SOL     OW58149  10.192  10.894  13.968  0.1620  0.8617 -0.1300
82057SOL    HW158150  10.117  10.864  14.021  0.9134  1.4363  1.3048
82057SOL    HW258151  10.168  10.871  13.879 -1.3186  0.1728  0.4045
82058SOL     OW58152   6.624   5.799   7.507  0.0483 -0.1304  0.0910
82058SOL    HW158153   6.699   5.745   7.532 -0.0993 -0.3602  0.0417
82058SOL    HW258154   6.631   5.877   7.562  0.1825 -0.2657  0.2666
82059SOL     OW58155  13.868  12.050   5.815 -0.1029  0.2383  0.5984
82059SOL    HW158156  13.901  12.003   5.739  0.3398  2.5232 -0.7390
82059SOL    HW258157  13.774  12.058   5.800 -0.1723 -0.1758  0.8079
82060SOL     OW58158  11.607   7.886   2.438  0.4014  0.5619  0.0373
82060SOL    HW158159  11.674   7.954   2.429 -0.2405  1.2084  0.1140
82060SOL    HW258160  11.607   7.865   2.532  0.2559  0.8082  0.0926
82061SOL     OW58161   7.876   2.580  12.024 -0.6866 -0.5285  0.4467
82061SOL    HW158162   7.837   2.495  12.043  0.3632 -1.1643 -0.1745
82061SOL    HW258163   7.879   2.585  11.928 -3.3855  1.4635  0.3388
82062SOL     OW58164  12.495   0.977   1.962 -0.6600 -0.4777 -0.3675
82062SOL    HW158165  12.514   1.062   1.923  1.3111 -0.4944  0.4453
82062SOL    HW258166  12.521   0.986   2.054 -0.4798 -1.9295 -0.2500
82063SOL     OW58167   4.929   8.896  10.399 -0.5520 -0.0498 -0.6680
82063SOL    HW158168   5.016   8.906  10.438 -0.0132 -2.1228 -1.1896
82063SOL    HW258169   4.874   8.959  10.445  1.1365  1.0251 -0.0402
82064SOL     OW58170   6.315   6.953   0.413 -0.6053 -0.2361  0.3816
82064SOL    HW158171   6.385   7.019   0.414  0.3152 -1.1707 -0.1647
82064SOL    HW258172   6.238   7.001   0.382  0.0533  0.5863 -0.0395
82065SOL     OW58173  11.897   1.907  13.051 -0.0221  0.0405  0.0971
82065SOL    HW158174  11.953   1.855  12.993 -0.1722 -2.1946  1.8194
82065SOL    HW258175  11.809   1.872  13.037 -0.1264 -0.2299  1.3037
82066SOL     OW58176   1.944   8.781   6.281  0.6384 -0.2847  1.0439
82066SOL    HW158177   1.933   8.708   6.220 -0.0749 -0.2443  1.1177
82066SOL    HW258178   1.977   8.853   6.226  0.4271 -0.3795  0.7937
82067SOL     OW58179   0.834   5.959  11.189  0.6716 -0.4388 -0.1344
82067SOL    HW158180   0.828   6.013  11.268 -1.9336  1.9948 -1.8495
82067SOL    HW258181   0.920   5.980  11.152 -0.0333  2.1683 -0.4325
82068SOL     OW58182   0.756   3.807  13.265 -0.3376 -0.0443 -0.2787
82068SOL    HW158183   0.722   3.879  13.212 -1.7813  1.0468  1.9893
82068SOL    HW258184   0.720   3.822  13.352  3.2327 -0.8207  1.5173
82069SOL     OW58185   9.808  13.444   6.692 -0.1527  0.4233 -0.1321
82069SOL    HW158186   9.835  13.535   6.683 -0.9686  0.6573 -0.3562
82069SOL    HW258187   9.742  13.446   6.761  2.9453 -0.6825  3.1748
82070SOL     OW58188   3.645   9.250  14.011 -0.2715 -0.7181  0.8563
82070SOL    HW158189   3.676   9.184  14.073  0.1766 -0.1514  1.2508
82070SOL    HW258190   3.679   9.333  14.045  0.0357 -0.3990 -0.1869
82071SOL     OW58191   0.122   1.373  12.307  0.5647  0.2630 -0.0749
82071SOL    HW158192   0.155   1.284  12.295  0.2074 -0.1017  1.5057
82071SOL    HW258193   0.200   1.426  12.323  0.7406  0.1720 -0.6094
82072SOL     OW58194   2.504   9.091  10.932  0.1030 -0.1220  0.1140
82072SOL    HW158195   2.555   9.134  10.863 -1.1078  0.1256 -0.6692
82072SOL    HW258196   2.416   9.128  10.923 -0.3005 -0.7727  1.2090
82073SOL     OW58197  10.411   8.202   8.270  0.2053 -0.3714 -0.0522
82073SOL    HW158198  10.339   8.157   8.314  0.6069 -0.8510  0.1194
82073SOL    HW258199  10.486   8.144   8.281  0.7797  0.4271  0.3486
82074SOL     OW58200  10.684   8.496   8.020 -0.0111 -0.0897 -0.6246
82074SOL    HW158201  10.741   8.434   8.065  0.5082  0.4260 -0.5635
82074SOL    HW258202  10.596   8.460   8.031 -0.0139  0.4367  1.5429
82075SOL     OW58203  12.267   5.068   5.044 -0.1044  0.7232  0.1632
82075SOL    HW158204  12.176   5.054   5.019  0.3454 -0.1014 -1.1263
82075SOL    HW258205  12.317   5.013   4.983  1.1450 -0.5517  2.2288
82076SOL     OW58206   0.141   6.802   3.464  0.3500 -0.2772 -0.1293
82076SOL    HW158207   0.151   6.895   3.444  3.5475 -0.6567 -0.9660
82076SOL    HW258208   0.157   6.796   3.558  1.3465 -0.0574 -0.2710
82077SOL     OW58209  13.028   3.802   7.339 -0.3976  0.2023  0.2604
82077SOL    HW158210  13.012   3.873   7.400  0.2894  0.0474  0.6314
82077SOL    HW258211  13.119   3.813   7.313  0.1960 -1.4317  1.5091
82078SOL     OW58212  13.939   2.961   1.725  0.4817 -0.6377  0.1699
82078SOL    HW158213  13.922   3.052   1.701  0.4211 -0.7357 -0.1696
82078SOL    HW258214  14.025   2.943   1.689 -0.2639 -1.2663 -1.3878
82079SOL     OW58215   9.025   2.448   6.945  0.2023 -0.3106 -0.5416
82079SOL    HW158216   8.951   2.509   6.952  0.1277 -0.1831 -2.0534
82079SOL    HW258217   9.094   2.488   6.997 -0.6031 -0.1340  0.4100
82080SOL     OW58218   3.017   4.031  12.353  0.0987  0.2148  0.3525
82080SOL    HW158219   3.071   3.953  12.337 -0.1361  0.1657 -0.1855
82080SOL    HW258220   3.010   4.035  12.449 -0.3106 -0.7106  0.3712
82081SOL     OW58221   6.259   1.624  12.795  0.1961 -0.3658 -0.0090
82081SOL    HW158222   6.336   1.583  12.757 -0.3311 -1.1369 -0.2728
82081SOL    HW258223   6.215   1.554  12.843 -1.0878 -0.2982 -1.0415
82082SOL     OW58224   9.688   8.277   9.403 -0.0076  0.0740  0.1664
82082SOL    HW158225   9.638   8.326   9.468 -0.9822 -0.6275 -0.0354
82082SOL    HW258226   9.743   8.218   9.454 -0.2448  0.0289  0.3724
82083SOL     OW58227  12.862   2.562   3.836  0.4923  0.3211 -0.0505
82083SOL    HW158228  12.893   2.652   3.845 -0.8349  0.6012  2.6928
82083SOL    HW258229  12.927   2.509   3.881  0.5798  0.0507 -0.4871
82084SOL     OW58230  12.987  12.020   3.448  0.4424 -0.2511  0.2739
82084SOL    HW158231  12.978  11.993   3.357  0.5496 -1.0404  0.4895
82084SOL    HW258232  13.076  11.992   3.472  0.7664  0.8109  0.3377
82085SOL     OW58233   9.027   2.963   0.018  0.3231 -0.0802  0.3954
82085SOL    HW158234   9.052   2.881   0.061  1.1399  0.3789  0.8300
82085SOL    HW258235   9.012   3.024   0.090  0.2297  0.2893  0.0639
82086SOL     OW58236   6.967   0.878   3.237 -0.8480  0.3560  0.6475
82086SOL    HW158237   6.938   0.821   3.308  0.7877 -0.3584  0.7842
82086SOL    HW258238   6.919   0.849   3.160  1.1029 -2.4090  0.3191
82087SOL     OW58239   1.968   0.247   3.833 -0.0508  0.0328  0.1150
82087SOL    HW158240   2.045   0.192   3.828  0.4556  0.5753  1.4277
82087SOL    HW258241   1.907   0.209   3.770  0.7654 -1.2281  0.0508
82088SOL     OW58242   5.093   1.112   0.102 -0.0586 -0.7817 -0.5207
82088SOL    HW158243   5.034   1.146   0.035 -0.9620 -2.8045 -0.8266
82088SOL    HW258244   5.035   1.078   0.170  0.8346  1.3779  1.4563
82089SOL     OW58245   9.663   2.369  12.699 -0.0409  0.3851  0.1313
82089SOL    HW158246   9.638   2.326  12.780  1.9141 -0.3262  0.4294
82089SOL    HW258247   9.658   2.300  12.633 -0.4631  0.6495 -0.1128
82090SOL     OW58248   8.110   4.627   7.594 -0.4470 -0.1010  0.0922
82090SOL    HW158249   8.058   4.669   7.663  0.5351  1.4735 -0.0628
82090SOL    HW258250   8.053   4.558   7.559 -1.7786  0.4795  1.0272
82091SOL     OW58251   2.321   1.513   8.305 -0.2299 -1.0029  0.2840
82091SOL    HW158252   2.255   1.582   8.311  1.7855  0.9330  1.7625
82091SOL    HW258253   2.346   1.512   8.212 -0.0976  0.5130  0.2744
82092SOL     OW58254  13.505   8.659   0.060 -0.0696  0.3676 -0.0375
82092SOL    HW158255  13.421   8.618   0.043  0.2596 -0.1524 -0.4035
82092SOL    HW258256  13.555   8.648  -0.020  0.7087 -0.2081  0.5074
82093SOL     OW58257   6.619  10.084  10.837 -0.6014  0.0721 -0.0899
82093SOL    HW158258   6.711  10.107  10.853 -1.0162  0.5401  1.9295
82093SOL    HW258259   6.605  10.104  10.745  1.2289  0.3121 -0.3538
82094SOL     OW58260   1.126  10.367  10.586  0.4024  0.2680  0.2341
82094SOL    HW158261   1.115  10.462  10.592  0.9191  0.2440  2.1541
82094SOL    HW258262   1.182  10.355  10.510  0.0698  1.4693 -0.2371
82095SOL     OW58263  11.664  12.908   7.692 -0.6626  0.2904 -0.2629
82095SOL    HW158264  11.651  12.936   7.601  1.0937  2.7881  0.1665
82095SOL    HW258265  11.582  12.931   7.736 -0.8139  0.8541 -0.8266
82096SOL     OW58266  12.710  11.989   3.446  0.6321 -0.3931 -0.0496
82096SOL    HW158267  12.699  12.037   3.528  0.6284  0.0328 -0.2959
82096SOL    HW258268  12.804  11.977   3.438  0.5738 -1.3235  0.5152
82097SOL     OW58269  13.197   4.765   2.360  0.5223 -0.6064 -0.1942
82097SOL    HW158270  13.134   4.817   2.309  2.2678  2.9022  0.8970
82097SOL    HW258271  13.282   4.785   2.321  1.3489 -2.3196  0.6247
82098SOL     OW58272  12.298  13.259  11.871  0.1974 -0.2018  0.2449
82098SOL    HW158273  12.392  13.246  11.856 -0.0441  0.3892 -2.0981
82098SOL    HW258274  12.274  13.188  11.931  2.3836  0.4767  2.0872
82099SOL     OW58275   0.006   5.849  13.754 -0.1635  0.0546 -0.2940
82099SOL    HW158276  -0.021   5.816  13.840  0.0160  0.8794  0.0861
82099SOL    HW258277  -0.038   5.791  13.692 -0.7601 -0.1985  0.3455
82100SOL     OW58278   5.641   4.194   1.855  0.5498 -0.6050  0.0046
82100SOL    HW158279   5.707   4.141   1.900 -1.2786 -1.7440  1.5389
82100SOL    HW258280   5.605   4.136   1.788 -0.4064 -0.8131  0.6742
82101SOL     OW58281   8.744   6.496  12.019 -0.4843 -0.3416 -0.2378
82101SOL    HW158282   8.697   6.450  11.950  2.9644 -0.5131 -2.7421
82101SOL    HW258283   8.808   6.431  12.051 -0.1997  0.5995  1.1571
82102SOL     OW58284   5.634   8.615   1.374  0.0831 -0.1882  0.0700
82102SOL    HW158285   5.691   8.623   1.451 -1.7968  0.2149  1.4726
82102SOL    HW258286   5.671   8.541   1.325  0.8672 -0.9800  1.7747
82103SOL     OW58287   8.387   3.975   9.335 -0.3004  0.0562 -0.0366
82103SOL    HW158288   8.385   4.021   9.418 -0.5911  1.1011 -0.6048
82103SOL    HW258289   8.453   4.021   9.283  0.4952 -1.1125 -0.1012
82104SOL     OW58290   0.340   6.405   2.163  0.3777 -0.7385  0.3501
82104SOL    HW158291   0.316   6.409   2.255  1.0620  0.7100  0.5005
82104SOL    HW258292   0.432   6.378   2.162  0.4239 -0.5829  0.1083
82105SOL     OW58293   0.397   4.623  13.249 -0.2153 -0.1316 -0.5151
82105SOL    HW158294   0.446   4.640  13.168 -0.6731  0.1234 -0.7404
82105SOL    HW258295   0.381   4.710  13.285  1.0073 -0.2967  0.4643
82106SOL     OW58296   1.630   7.502  11.509 -0.0066  0.6351  0.1966
82106SOL    HW158297   1.542   7.468  11.527  0.9387 -1.6008  1.0410
82106SOL    HW258298   1.633   7.511  11.414 -0.9117 -0.0203  0.0858
82107SOL     OW58299  12.360   6.194  11.747 -0.5280  0.9972 -0.1706
82107SOL    HW158300  12.309   6.115  11.764  0.4786  0.5696  0.9552
82107SOL    HW258301  12.331   6.257  11.813  0.6784  0.6039  0.7679
82108SOL     OW58302   3.019   7.878   8.762  0.3207  0.1689 -0.0832
82108SOL    HW158303   3.017   7.926   8.845 -1.7537  0.3693 -0.2103
82108SOL    HW258304   3.027   7.786   8.788  1.2663  0.3356  0.2595
82109SOL     OW58305   8.902   2.329   5.862 -0.0744  0.5807  0.3954
82109SOL    HW158306   8.925   2.244   5.825  0.6786  1.1226 -0.4552
82109SOL    HW258307   8.956   2.336   5.941 -1.8667 -0.6857  1.8012
82110SOL     OW58308  14.000   5.596   0.364  0.6900 -0.2215 -0.0914
82110SOL    HW158309  13.995   5.665   0.298  0.5253  1.3954  1.5345
82110SOL    HW258310  14.007   5.642   0.447  2.7942 -2.1857  0.9302
82111SOL     OW58311   1.811   6.394  10.847 -0.3236 -0.1774 -0.3932
82111SOL    HW158312   1.768   6.380  10.932 -1.0767 -0.6327 -0.8355
82111SOL    HW258313   1.743   6.430  10.791 -0.3425 -1.5352 -1.3027
82112SOL     OW58314   4.944   7.655   0.581 -0.2065  0.4207 -0.4952
82112SOL    HW158315   4.923   7.618   0.496 -1.2952  1.1429 -0.5589
82112SOL    HW258316   5.037   7.677   0.576 -0.1911  0.1617 -1.3778
82113SOL     OW58317  10.276   2.370  11.324 -0.0095 -0.3398 -0.6814
82113SOL    HW158318  10.187   2.396  11.301  0.9589  1.9288 -2.2677
82113SOL    HW258319  10.277   2.370  11.420 -2.0926 -2.0604 -0.5960
82114SOL     OW58320   6.991   1.955   2.200 -0.7972  0.0524 -0.4482
82114SOL    HW158321   6.920   1.893   2.206 -1.4807  0.9337  1.2050
82114SOL    HW258322   7.016   1.955   2.107 -0.6562 -2.7348 -0.4888
82115SOL     OW58323   1.347   3.121   7.183 -0.6834  0.1575 -0.0055
82115SOL    HW158324   1.398   3.083   7.111 -1.2665  0.2460 -0.4784
82115SOL    HW258325   1.410   3.173   7.232 -0.3256  0.3010 -0.6039
82116SOL     OW58326   4.030   2.128   5.876  0.2340  0.4654  0.2082
82116SOL    HW158327   4.043   2.046   5.923  1.5775 -0.5992 -1.9003
82116SOL    HW258328   3.997   2.188   5.943  1.8457 -0.9954  2.4778
82117SOL     OW58329   7.082   0.337   9.084 -0.0591 -0.1632 -0.5154
82117SOL    HW158330   7.081   0.377   8.997  1.1936  1.7470  0.2572
82117SOL    HW258331   7.060   0.409   9.143  1.8818 -0.6583  0.9368
82118SOL     OW58332  13.094   9.412   1.390 -0.6580  0.4773 -0.2672
82118SOL    HW158333  13.149   9.438   1.317 -0.5307 -0.5849 -0.5777
82118SOL    HW258334  13.124   9.323   1.412  1.5877  1.8666  3.2476
82119SOL     OW58335   0.138  10.841   2.470 -0.2777 -0.1680  0.4713
82119SOL    HW158336   0.164  10.932   2.483  2.6652 -0.8805  0.1431
82119SOL    HW258337   0.124  10.807   2.558  0.8152  0.0200  0.7236
82120SOL     OW58338   8.796   7.978   4.221 -0.6431 -0.0396  0.3274
82120SOL    HW158339   8.794   7.883   4.216  0.4033 -0.1459  1.5093
82120SOL    HW258340   8.716   8.002   4.267 -1.4858 -0.2437 -0.9832
82121SOL     OW58341   0.143  11.224  13.035 -0.0443  0.0026  0.0434
82121SOL    HW158342   0.080  11.189  13.098 -0.3550  0.8371  0.2085
82121SOL    HW258343   0.110  11.195  12.950  0.2690 -0.9622  0.2414
82122SOL     OW58344   2.343   8.409  13.054  0.3148 -0.0986  0.7022
82122SOL    HW158345   2.351   8.488  13.000  1.2443 -0.8475 -0.2812
82122SOL    HW258346   2.272   8.430  13.115  0.2236  1.3177  0.1609
82123SOL     OW58347   5.806  11.236   6.757  0.4148 -0.1666 -0.1750
82123SOL    HW158348   5.796  11.199   6.844 -0.0440 -2.3513 -1.0965
82123SOL    HW258349   5.725  11.213   6.711  0.4736  1.2859 -1.0718
82124SOL     OW58350   7.619  12.946  14.002  0.3284  0.0668  0.0410
82124SOL    HW158351   7.526  12.925  13.996  0.5897 -2.7505  2.8636
82124SOL    HW258352   7.639  12.937  14.095  3.0441  2.7296 -0.1485
82125SOL     OW58353   4.451   3.817  12.193 -0.1941  0.2817 -0.7145
82125SOL    HW158354   4.398   3.850  12.266 -0.2528  0.8176 -0.9938
82125SOL    HW258355   4.393   3.820  12.118 -0.7031 -1.9468 -0.4723
82126SOL     OW58356  12.109   9.507   0.250 -0.0110 -0.5655  0.2692
82126SOL    HW158357  12.196   9.469   0.258  0.1412 -0.1589  0.5762
82126SOL    HW258358  12.065   9.485   0.332 -0.1826 -0.7345  0.1318
82127SOL     OW58359   9.097   8.931   4.056 -0.0967  0.0191  0.2244
82127SOL    HW158360   9.077   8.967   3.969  0.0690 -1.2020 -0.3318
82127SOL    HW258361   9.192   8.925   4.059 -0.1449 -1.0281  0.0278
82128SOL     OW58362  11.961  13.481  10.114  0.1788  0.4641  0.3543
82128SOL    HW158363  12.008  13.467  10.032  0.1077  0.8644  0.2433
82128SOL    HW258364  12.029  13.498  10.179  0.1830  1.2818  0.1473
82129SOL     OW58365   1.584   1.663   7.200 -0.0170  0.2332  0.5483
82129SOL    HW158366   1.538   1.601   7.144 -0.1018 -0.2724  1.1788
82129SOL    HW258367   1.548   1.650   7.287  0.2993  0.8376  0.7782
82130SOL     OW58368   8.231   6.411   6.816 -0.5224  0.7905 -0.0324
82130SOL    HW158369   8.193   6.463   6.887  1.1809  1.3131  0.5289
82130SOL    HW258370   8.295   6.355   6.859 -0.6479 -0.0954 -0.9556
82131SOL     OW58371  12.419   1.257   3.075 -0.3091 -0.0114 -0.1366
82131SOL    HW158372  12.494   1.281   3.019 -0.8843 -1.4908 -1.6050
82131SOL    HW258373  12.391   1.171   3.043 -1.8307 -0.0836  1.2529
82132SOL     OW58374   8.669  11.932  10.773 -0.2317 -0.0980  0.0601
82132SOL    HW158375   8.727  11.950  10.846  0.2873 -0.3703 -0.2767
82132SOL    HW258376   8.581  11.934  10.810  0.0300 -0.2669  0.6909
82133SOL     OW58377   4.423   8.208  12.704 -0.6912 -0.3968 -0.0316
82133SOL    HW158378   4.369   8.254  12.768  2.3518  2.2009  0.9277
82133SOL    HW258379   4.460   8.134  12.752  1.0274  1.1494  1.1975
82134SOL     OW58380   8.504   4.725   8.615  0.0617 -0.5515 -0.4510
82134SOL    HW158381   8.472   4.766   8.695  1.1180  1.2077 -0.8984
82134SOL    HW258382   8.500   4.631   8.633  0.9828 -0.1892  1.9516
82135SOL     OW58383   6.404   2.083  12.147 -0.2717 -0.0577  0.2023
82135SOL    HW158384   6.310   2.097  12.155 -0.2676 -0.7349  1.8836
82135SOL    HW258385   6.435   2.076  12.238  1.0364 -2.1184 -0.3301
82136SOL     OW58386   9.828   4.714   8.863  0.0133 -0.2008 -0.3045
82136SOL    HW158387   9.776   4.782   8.905  0.6112  0.2311 -0.2532
82136SOL    HW258388   9.858   4.659   8.935  0.6456  0.2658 -0.2037
82137SOL     OW58389  10.008   5.845   1.789 -0.1112 -0.6453  0.2474
82137SOL    HW158390  10.078   5.867   1.850  0.1115 -0.8091  0.0541
82137SOL    HW258391   9.973   5.762   1.821 -1.3723  0.2590  1.3450
82138SOL     OW58392   3.458   1.193  11.012 -0.2470 -0.6776 -0.1965
82138SOL    HW158393   3.432   1.172  11.102  1.4295 -0.4803  0.3759
82138SOL    HW258394   3.525   1.128  10.991 -0.5662 -0.6661 -1.2890
82139SOL     OW58395  12.238  12.911  11.352  0.0147  0.2139 -0.1217
82139SOL    HW158396  12.237  12.842  11.286 -2.0893  0.4516 -0.4150
82139SOL    HW258397  12.190  12.874  11.426  0.2415  0.8151  0.3313
82140SOL     OW58398   8.896  12.964  10.064 -0.6755 -0.1778  0.2656
82140SOL    HW158399   8.845  12.888  10.091 -0.2953 -0.2467  0.8020
82140SOL    HW258400   8.912  13.013  10.144  2.3636 -1.5420  0.6251
82141SOL     OW58401   6.645   5.005   7.159 -0.0702  0.3271  0.4100
82141SOL    HW158402   6.554   4.986   7.139 -0.4417  1.5729  0.8546
82141SOL    HW258403   6.690   4.921   7.147 -1.1290 -0.1282 -0.5612
82142SOL     OW58404   2.806  10.333   3.237 -0.0348 -0.0141  0.6228
82142SOL    HW158405   2.826  10.323   3.330 -0.1439 -0.4835  0.5965
82142SOL    HW258406   2.803  10.243   3.203  0.8506  0.1837 -0.0083
82143SOL     OW58407   3.327  12.591   6.229  0.1119  0.5348  0.8948
82143SOL    HW158408   3.348  12.685   6.234  1.2746  0.2559  1.3781
82143SOL    HW258409   3.237  12.585   6.261 -0.2316  1.5679  0.1984
82144SOL     OW58410   5.301   7.182  13.918  0.5052  0.6763  0.1595
82144SOL    HW158411   5.228   7.237  13.890  0.3145  0.9450  1.1347
82144SOL    HW258412   5.337   7.228  13.994 -1.5427 -1.9257  2.9639
82145SOL     OW58413   0.588   8.897   2.816 -0.3189  0.3945 -0.5315
82145SOL    HW158414   0.539   8.972   2.782  0.6781  1.3123  0.0269
82145SOL    HW258415   0.556   8.823   2.764  0.4360  1.5804 -2.7978
82146SOL     OW58416   1.926   1.775  10.449 -0.5031  0.8245 -0.0610
82146SOL    HW158417   1.931   1.830  10.528  0.2196  0.9291 -0.1743
82146SOL    HW258418   1.877   1.698  10.477 -0.9278  1.2110  0.2836
82147SOL     OW58419   1.243  11.535   8.232  0.2305 -0.3362  0.2208
82147SOL    HW158420   1.188  11.597   8.184  0.9899  1.0845  1.1092
82147SOL    HW258421   1.325  11.532   8.182  0.1587 -0.6994  0.1254
82148SOL     OW58422   1.712   9.984  10.701 -0.2160  0.0851  0.0503
82148SOL    HW158423   1.652   9.939  10.761 -1.0943  0.3785 -0.5800
82148SOL    HW258424   1.655  10.023  10.635  0.7290 -0.3994 -1.1056
82149SOL     OW58425  11.707   5.535   4.748 -0.2856 -0.4558 -0.0449
82149SOL    HW158426  11.734   5.493   4.831  0.7388 -0.8845 -0.5664
82149SOL    HW258427  11.656   5.468   4.703 -0.5751 -0.3324  0.0955
82150SOL     OW58428  13.048  11.325   6.538  0.2989 -0.3481  0.9847
82150SOL    HW158429  13.119  11.344   6.598  1.3467  3.0969 -1.0623
82150SOL    HW258430  13.077  11.246   6.491  2.4125  0.4762  0.7885
82151SOL     OW58431   8.984   3.052   6.381 -0.1202 -0.4852 -0.4969
82151SOL    HW158432   9.022   3.043   6.294 -0.1341  0.2843 -0.5920
82151SOL    HW258433   8.898   3.092   6.365 -1.1685 -2.5598 -0.3265
82152SOL     OW58434   6.717   2.865   9.458 -0.0923  0.0573 -0.1060
82152SOL    HW158435   6.804   2.902   9.467  0.8660 -1.9291 -0.5235
82152SOL    HW258436   6.669   2.897   9.535  1.0933  0.9495  0.2841
82153SOL     OW58437   7.869   3.962   2.326  0.0345  0.1079  0.2973
82153SOL    HW158438   7.784   3.974   2.285  0.3929  2.5656  0.1549
82153SOL    HW258439   7.856   3.988   2.417  0.3967 -0.6274  0.5744
82154SOL     OW58440   8.897   1.719   0.592  0.0618 -0.1797 -0.1013
82154SOL    HW158441   8.879   1.635   0.550  0.6467  0.6029 -2.0742
82154SOL    HW258442   8.966   1.700   0.655  1.5651 -0.9180 -1.8514
82155SOL     OW58443   2.891  13.869   9.586 -0.1326 -0.0085 -0.0235
82155SOL    HW158444   2.799  13.878   9.609 -0.9594 -2.6517 -1.8317
82155SOL    HW258445   2.935  13.848   9.668 -1.4161 -0.3245  0.5973
82156SOL     OW58446  10.778   5.272  10.155  0.6266  0.2515  0.3531
82156SOL    HW158447  10.685   5.265  10.177  1.0103  1.1710  2.4627
82156SOL    HW258448  10.799   5.187  10.116 -0.8530 -0.3543  0.7798
82157SOL     OW58449   9.540  11.020   2.160  0.4513 -0.1678 -0.7592
82157SOL    HW158450   9.621  11.056   2.197  0.1490 -0.5899  0.3204
82157SOL    HW258451   9.561  10.928   2.142  0.0249 -0.4479  0.1273
82158SOL     OW58452  10.339  10.402  10.948  0.2556 -0.2530  0.3953
82158SOL    HW158453  10.280  10.471  10.917  2.1867  1.0727 -0.5679
82158SOL    HW258454  10.329  10.331  10.885 -0.7090 -0.2809  0.5744
82159SOL     OW58455   5.646  12.784   0.923  0.1072 -0.1728  0.1234
82159SOL    HW158456   5.650  12.740   0.839 -1.2898  1.6378 -0.9769
82159SOL    HW258457   5.630  12.876   0.901  0.9153  0.5669  2.3389
82160SOL     OW58458  12.550  11.883  10.332  0.1027  0.1881 -0.5303
82160SOL    HW158459  12.622  11.856  10.276 -0.0204 -0.0859 -0.5586
82160SOL    HW258460  12.588  11.890  10.420  1.3799  4.7521 -1.1921
82161SOL     OW58461  12.639   4.806   8.694 -0.0935 -0.0209 -0.9424
82161SOL    HW158462  12.674   4.801   8.783 -0.1571  0.7962 -0.8628
82161SOL    HW258463  12.577   4.879   8.697 -0.9538 -0.6984 -1.3704
82162SOL     OW58464   4.878   1.602   7.623 -0.2848 -0.1335  0.0652
82162SOL    HW158465   4.936   1.543   7.671  0.8611 -2.1304 -3.4214
82162SOL    HW258466   4.794   1.555   7.621  0.6459 -1.8833 -2.7692
82163SOL     OW58467   2.227   9.923  13.154 -0.7891 -0.2758 -0.3652
82163SOL    HW158468   2.317   9.892  13.160 -0.2287  1.4640  1.2042
82163SOL    HW258469   2.215   9.943  13.061 -0.0368 -1.7677 -0.8201
82164SOL     OW58470   7.044  10.268  11.104 -0.2366  0.0111  0.8414
82164SOL    HW158471   7.061  10.335  11.170 -1.5757 -1.0016  2.3011
82164SOL    HW258472   7.131  10.240  11.075  0.3623  1.2798  1.3272
82165SOL     OW58473   8.978   9.786   6.705 -0.3528  0.4059  0.1386
82165SOL    HW158474   9.044   9.802   6.638  0.3901  1.4017  1.0819
82165SOL    HW258475   8.898   9.766   6.656  0.6088 -0.7480 -1.0187
82166SOL     OW58476  12.097   1.112  12.064  0.0574  0.2643 -0.6675
82166SOL    HW158477  12.192   1.101  12.069 -0.0735 -0.6893  0.0179
82166SOL    HW258478  12.084   1.182  12.000  1.2623  1.0990 -0.0416
82167SOL     OW58479   0.896   3.666  11.215  0.1391  0.6524  0.0276
82167SOL    HW158480   0.924   3.578  11.240  0.1124  1.2107  2.1949
82167SOL    HW258481   0.801   3.659  11.207  0.2237  0.2825 -0.7430
82168SOL     OW58482  11.713   3.434  13.827 -0.8408 -0.0557  0.3065
82168SOL    HW158483  11.631   3.483  13.821 -0.6739  0.2534  0.5365
82168SOL    HW258484  11.759   3.456  13.746 -0.4754  0.7032  0.7047
82169SOL     OW58485   7.125   1.907  12.272 -0.1484  0.2243  0.4459
82169SOL    HW158486   7.105   1.998  12.295  0.3153  0.3442  0.3946
82169SOL    HW258487   7.216   1.896  12.298  0.1152  0.0857 -0.4893
82170SOL     OW58488   9.145  10.252   3.458  0.2048  0.3967 -0.3438
82170SOL    HW158489   9.083  10.281   3.525 -0.5507  0.8808 -1.2359
82170SOL    HW258490   9.130  10.158   3.451  0.5214  0.2826  0.3915
82171SOL     OW58491  10.336   5.130   7.574 -0.4628  0.1269  0.4398
82171SOL    HW158492  10.387   5.208   7.554 -0.1164  0.1395  1.3471
82171SOL    HW258493  10.388   5.083   7.639  0.8912 -2.4491 -2.2601
82172SOL     OW58494   0.414  10.518   7.078  0.1409  0.1309  0.0752
82172SOL    HW158495   0.502  10.554   7.077 -0.5048  1.7835 -1.0060
82172SOL    HW258496   0.368  10.567   7.146  0.0988 -0.8889  0.8037
82173SOL     OW58497  10.463   7.568  10.467 -0.1425  0.2555 -0.7771
82173SOL    HW158498  10.430   7.493  10.417  0.8236 -1.9080  1.6483
82173SOL    HW258499  10.384   7.617  10.492 -0.8450 -0.3330 -1.7688
82174SOL     OW58500   2.964   6.720   3.061 -0.1179  0.1709  0.0543
82174SOL    HW158501   3.028   6.710   3.132 -1.8960 -0.5670  1.6633
82174SOL    HW258502   3.011   6.694   2.982  1.7457  0.3100  1.0682
82175SOL     OW58503  10.192   3.723  12.495  0.4411  0.0235 -0.1469
82175SOL    HW158504  10.254   3.724  12.422 -1.2006 -1.9191 -1.7369
82175SOL    HW258505  10.108   3.743  12.454 -0.4675 -0.7038  1.2923
82176SOL     OW58506   5.431   4.563   4.534 -0.5210  0.1147 -0.1077
82176SOL    HW158507   5.486   4.486   4.521 -1.1884 -0.0329 -2.3799
82176SOL    HW258508   5.345   4.528   4.557 -0.3599  0.2581  0.7364
82177SOL     OW58509   9.910   0.982   2.916 -0.1969 -0.2813 -0.2651
82177SOL    HW158510   9.929   1.035   2.994  0.7978  0.3812 -0.9347
82177SOL    HW258511   9.944   0.895   2.937  0.4447  0.0036 -0.1241
82178SOL     OW58512   1.153   4.165   2.589 -0.1054  0.2351  0.2045
82178SOL    HW158513   1.061   4.138   2.585  0.2883 -1.0963 -0.4001
82178SOL    HW258514   1.194   4.120   2.515  1.0318  0.8145  0.4689
82179SOL     OW58515   5.126   0.160   6.515 -0.2106  0.3159  0.1486
82179SOL    HW158516   5.132   0.066   6.499 -0.5600  0.4466 -0.8503
82179SOL    HW258517   5.080   0.194   6.438 -1.5650  1.0772  1.2374
82180SOL     OW58518   6.902  10.067  12.877 -0.2107  0.5962 -0.6297
82180SOL    HW158519   6.989  10.044  12.908 -1.4388 -0.2259  2.5329
82180SOL    HW258520   6.864   9.985  12.846 -0.7575  0.3779  0.5430
82181SOL     OW58521   8.647   0.196   2.588  0.5903  0.0687 -0.2684
82181SOL    HW158522   8.564   0.150   2.597  1.1967 -1.0431 -0.2022
82181SOL    HW258523   8.659   0.206   2.494  0.3648  0.2731 -0.2766
82182SOL     OW58524   7.710   7.253   7.583  0.1629 -0.1803 -0.0942
82182SOL    HW158525   7.669   7.278   7.666 -0.6208 -0.8169 -0.2774
82182SOL    HW258526   7.718   7.336   7.534 -0.9168 -0.0333 -0.0514
82183SOL     OW58527   4.165   9.233   8.743  0.2695 -0.0355  0.1494
82183SOL    HW158528   4.158   9.233   8.838 -1.6441 -1.3884  0.0640
82183SOL    HW258529   4.075   9.232   8.712  0.7980  2.3532 -1.7675
82184SOL     OW58530   9.107   1.667   1.300 -0.2812 -0.2101 -0.2011
82184SOL    HW158531   9.099   1.608   1.224 -0.7627 -1.2599  0.6330
82184SOL    HW258532   9.033   1.726   1.291 -1.8675 -1.9409  0.7580
82185SOL     OW58533   0.749  12.469  13.847  0.1173 -0.1214 -0.3106
82185SOL    HW158534   0.805  12.540  13.880  0.8970 -0.6771 -0.4063
82185SOL    HW258535   0.770  12.464  13.753  0.8220 -1.1352 -0.1126
82186SOL     OW58536   2.075   2.661   3.187 -0.0249 -0.0134  0.1469
82186SOL    HW158537   2.152   2.663   3.244  0.1633 -1.8616  0.0202
82186SOL    HW258538   2.002   2.684   3.245  0.2289 -1.4047  1.0829
82187SOL     OW58539   3.947   3.079  12.654  0.2283  0.0422 -0.3964
82187SOL    HW158540   3.904   3.024  12.719  2.3691 -0.3309  0.8092
82187SOL    HW258541   3.933   3.169  12.685  0.6358 -0.0994  0.2163
82188SOL     OW58542  11.100   4.898   3.407  0.2279  0.6146 -0.3565
82188SOL    HW158543  11.084   4.973   3.464 -1.9327  0.1640 -0.2550
82188SOL    HW258544  11.032   4.835   3.433  3.1663 -2.2827  1.0084
82189SOL     OW58545   8.367   6.669   6.681 -0.0302 -0.3446  0.4256
82189SOL    HW158546   8.435   6.648   6.746 -0.7043  1.3523  1.7841
82189SOL    HW258547   8.291   6.618   6.708  0.8756 -3.0584 -1.7052
82190SOL     OW58548   1.680   3.142   6.990  0.7066 -0.4613 -0.2208
82190SOL    HW158549   1.712   3.168   7.077 -0.5519  1.2535 -0.2116
82190SOL    HW258550   1.692   3.220   6.936 -2.4615 -0.0149 -0.4470
82191SOL     OW58551   0.521   0.331  12.965 -0.8137  0.2377 -0.2707
82191SOL    HW158552   0.526   0.262  12.899 -0.0266 -0.1950  0.2221
82191SOL    HW258553   0.498   0.409  12.916  0.6470  0.1117 -1.2056
82192SOL     OW58554   3.503   0.716   9.812 -0.2748 -0.0804  0.5552
82192SOL    HW158555   3.538   0.632   9.843  0.0283 -0.0468  0.3114
82192SOL    HW258556   3.557   0.738   9.736  0.7438  1.1565  1.5955
82193SOL     OW58557   6.146   3.064   4.420 -0.3913 -0.2798  0.8172
82193SOL    HW158558   6.223   3.010   4.399  0.1281  0.6919  0.1904
82193SOL    HW258559   6.159   3.087   4.512  0.1275 -0.0301  0.6848
82194SOL     OW58560   8.981  13.809  13.330  0.8509 -0.3638 -0.1695
82194SOL    HW158561   8.999  13.734  13.274 -0.9041 -0.7825 -0.2230
82194SOL    HW258562   8.889  13.831  13.313  0.4590 -0.0666  1.9981
82195SOL     OW58563   4.777  10.717   7.854 -0.3746  0.1413 -0.6851
82195SOL    HW158564   4.761  10.784   7.921  1.3525  0.2600 -0.3399
82195SOL    HW258565   4.707  10.730   7.790 -1.0352  1.1919  0.2076
82196SOL     OW58566  11.065  10.978  10.869 -0.6125  0.1286 -0.4678
82196SOL    HW158567  11.084  10.924  10.792  1.5391 -0.3128  0.3108
82196SOL    HW258568  11.141  11.037  10.876 -0.8301  0.2568  1.2140
82197SOL     OW58569   0.016  13.086   6.747 -0.0391 -0.0336 -0.0269
82197SOL    HW158570  -0.045  13.059   6.678  0.6873 -0.7199 -0.4156
82197SOL    HW258571  -0.038  13.089   6.827 -0.5031 -0.9658 -0.2972
82198SOL     OW58572   2.841   8.922  13.197  0.0094  0.4571 -0.1654
82198SOL    HW158573   2.866   8.858  13.264  0.2264  0.5755 -0.1333
82198SOL    HW258574   2.787   8.872  13.136  0.5221  0.1301 -0.3626
82199SOL     OW58575   5.103   8.813   3.422  0.0260  0.4137 -0.4088
82199SOL    HW158576   5.177   8.874   3.423 -0.3852  0.9251  0.6694
82199SOL    HW258577   5.141   8.728   3.444  0.5150  0.3844 -1.3426
82200SOL     OW58578  10.546   6.118  13.984  0.3104  0.0935 -0.0933
82200SOL    HW158579  10.518   6.031  13.954  2.1264 -0.3199 -0.7701
82200SOL    HW258580  10.521   6.177  13.912 -0.9917  0.1646  0.4000
82201SOL     OW58581  12.112   9.365  10.108  0.7351  0.2137 -0.1897
82201SOL    HW158582  12.179   9.297  10.100 -0.5372 -1.1121 -0.0253
82201SOL    HW258583  12.036   9.329  10.062  0.0407  1.5568 -0.1438
82202SOL     OW58584   8.376   8.679  12.133 -0.5577  0.3398  0.5630
82202SOL    HW158585   8.389   8.640  12.220  0.9813  1.6095  0.9539
82202SOL    HW258586   8.449   8.645  12.080  0.2460  1.8363  0.6442
82203SOL     OW58587   6.456   3.490   4.157  0.1245  0.1360  0.7567
82203SOL    HW158588   6.451   3.584   4.179  0.5078  0.2457  0.3799
82203SOL    HW258589   6.497   3.450   4.234 -0.9657  0.1212  1.3455
82204SOL     OW58590   8.822   5.072   7.011  0.3219  0.3140  0.4037
82204SOL    HW158591   8.852   5.009   7.076  0.3892 -0.0673  0.0088
82204SOL    HW258592   8.811   5.154   7.060  0.0737 -0.0433  0.9512
82205SOL     OW58593   7.331   3.521   5.032  0.3469 -0.3564 -0.3738
82205SOL    HW158594   7.395   3.461   5.070  0.0894 -0.3243  0.1112
82205SOL    HW258595   7.360   3.608   5.058  0.5100 -0.2878 -0.7664
82206SOL     OW58596   5.928   6.694   8.210  0.5080 -0.0164 -0.2700
82206SOL    HW158597   5.904   6.748   8.135  0.7144  0.8319  0.2616
82206SOL    HW258598   5.849   6.643   8.229 -0.5358  1.8983  0.7426
82207SOL     OW58599   8.121   8.372   0.263  0.0075 -0.2427 -0.3323
82207SOL    HW158600   8.045   8.314   0.265 -0.2553 -0.1326  4.4237
82207SOL    HW258601   8.088   8.454   0.227 -1.3097 -1.0340 -1.0011
82208SOL     OW58602  10.523   1.740   7.276  0.6302 -0.2721  0.3344
82208SOL    HW158603  10.563   1.657   7.303  1.9149 -0.2531 -1.3628
82208SOL    HW258604  10.452   1.714   7.218  1.8515 -0.1970 -1.2425
82209SOL     OW58605   9.166   7.558   6.381 -0.0418  0.5204 -0.0684
82209SOL    HW158606   9.134   7.481   6.335  1.4257 -0.1660 -0.0025
82209SOL    HW258607   9.087   7.605   6.408 -0.9521 -0.6923 -0.5458
82210SOL     OW58608   9.849  13.774   1.639 -0.4932  0.2751  0.2416
82210SOL    HW158609   9.851  13.686   1.676  1.4887 -0.1112 -0.6045
82210SOL    HW258610   9.847  13.760   1.544  0.4874  1.0915  0.0736
82211SOL     OW58611   2.432  11.540  11.682 -0.2139  0.4222 -0.0677
82211SOL    HW158612   2.482  11.622  11.684  0.8497 -0.2083  1.1583
82211SOL    HW258613   2.429  11.512  11.774  1.8362 -2.2543 -0.6883
82212SOL     OW58614   6.503   5.495   1.083  0.0031  0.7198 -0.7446
82212SOL    HW158615   6.441   5.422   1.092 -0.1753  0.9832  0.3407
82212SOL    HW258616   6.585   5.453   1.058  0.0886  0.0416  0.5503
82213SOL     OW58617   1.841   5.291  11.694  0.2204  0.8531 -0.2728
82213SOL    HW158618   1.812   5.215  11.643 -0.8601  0.6093  0.6686
82213SOL    HW258619   1.830   5.265  11.785  2.0495  1.3188  0.1201
82214SOL     OW58620   3.516  11.110   6.835  0.2418  0.1692  0.7290
82214SOL    HW158621   3.523  11.073   6.747 -2.6650  0.8380  0.1176
82214SOL    HW258622   3.598  11.159   6.847  0.7378  0.0061 -1.5532
82215SOL     OW58623   5.479   6.161   1.998 -0.4537  0.1075  0.3315
82215SOL    HW158624   5.514   6.216   1.928  3.0116 -2.4426 -0.2031
82215SOL    HW258625   5.410   6.110   1.957  0.4284 -0.1969 -0.8195
82216SOL     OW58626   5.869   3.347   5.085 -0.0848 -0.7307 -0.4351
82216SOL    HW158627   5.931   3.322   5.017  1.2109  1.1835 -0.0214
82216SOL    HW258628   5.915   3.326   5.167 -0.4194 -0.2641 -0.1291
82217SOL     OW58629  10.830  10.727  10.557 -0.2979  0.0594  0.2461
82217SOL    HW158630  10.829  10.703  10.649 -1.3413  1.4425  0.6158
82217SOL    HW258631  10.803  10.648  10.511 -0.7836 -0.3394  1.2020
82218SOL     OW58632   2.435  13.967   5.935 -0.2274 -0.4975 -0.1368
82218SOL    HW158633   2.470  14.054   5.952  0.1313 -0.4969 -0.8395
82218SOL    HW258634   2.443  13.956   5.841  0.7563 -1.7303  0.0745
82219SOL     OW58635   5.370   3.587   3.833 -0.0533  0.5259  0.2173
82219SOL    HW158636   5.333   3.653   3.775 -0.2360  0.5361  0.3474
82219SOL    HW258637   5.319   3.593   3.914  1.7409  2.2170  1.3175
82220SOL     OW58638   9.338   6.698   3.709  0.4875 -0.0397  0.4484
82220SOL    HW158639   9.433   6.708   3.714  0.6025 -1.3583  1.3549
82220SOL    HW258640   9.304   6.765   3.768  0.9391 -0.6216  1.3942
82221SOL     OW58641   3.859   8.870   2.445 -0.4321 -0.3256 -0.2160
82221SOL    HW158642   3.864   8.810   2.370 -3.4241 -0.2006 -0.6688
82221SOL    HW258643   3.878   8.956   2.408 -2.0307 -0.2431 -0.9386
82222SOL     OW58644   4.883   9.500   0.429 -0.3738 -0.0957 -0.3683
82222SOL    HW158645   4.866   9.539   0.343  0.2367 -1.2382 -1.0404
82222SOL    HW258646   4.965   9.540   0.458 -0.0998 -0.3730 -0.7491
82223SOL     OW58647  13.064   7.607   0.563  0.4179  0.2856  0.1286
82223SOL    HW158648  13.030   7.608   0.652  0.1764 -0.1112  0.0432
82223SOL    HW258649  13.033   7.524   0.526  2.9612 -0.9937  0.6259
82224SOL     OW58650   0.899  12.273   0.895  0.5065 -0.2269 -0.3366
82224SOL    HW158651   0.859  12.277   0.808  0.2193 -0.1019 -0.1996
82224SOL    HW258652   0.989  12.303   0.881  0.5917 -0.6360 -0.6684
82225SOL     OW58653  13.314   1.950   2.726  0.0263 -0.6394  0.5852
82225SOL    HW158654  13.218   1.945   2.732 -0.0530  0.5054  0.4382
82225SOL    HW258655  13.338   2.021   2.786  0.8857 -1.5897  1.3913
82226SOL     OW58656   5.310  12.805   9.451  0.1153  0.6248  0.0499
82226SOL    HW158657   5.324  12.730   9.393 -0.5183  0.3155  0.2921
82226SOL    HW258658   5.263  12.869   9.397 -0.3681  0.3845  0.1794
82227SOL     OW58659  12.703   0.719   4.245 -0.6501  0.2789  0.7690
82227SOL    HW158660  12.719   0.789   4.308 -1.1281  1.0864  0.0190
82227SOL    HW258661  12.778   0.723   4.185  0.6157 -1.4988  2.1256
82228SOL     OW58662   7.050  11.742   0.445 -0.3615 -0.3986 -0.1328
82228SOL    HW158663   7.065  11.746   0.351 -1.2569  0.8458 -0.2503
82228SOL    HW258664   7.048  11.649   0.465 -3.1883 -0.8454 -1.8865
82229SOL     OW58665   1.579   8.154   4.619  0.3929 -0.5621  0.5775
82229SOL    HW158666   1.593   8.249   4.622  0.5873 -0.6098  2.3914
82229SOL    HW258667   1.659   8.119   4.580  0.8485 -0.0541  1.0332
82230SOL     OW58668  13.672   7.183   8.025  0.1854  0.4237  0.4168
82230SOL    HW158669  13.579   7.205   8.028 -0.1614 -0.9601  0.6594
82230SOL    HW258670  13.717   7.267   8.014 -1.1429  1.0266 -0.6897
82231SOL     OW58671   1.778  12.704   8.932 -0.1424 -0.4956 -0.6571
82231SOL    HW158672   1.863  12.735   8.901  0.6672 -1.7409  0.2796
82231SOL    HW258673   1.796  12.660   9.015 -1.7280 -0.6531 -0.3561
82232SOL     OW58674   5.604  13.145   2.412 -0.2200  0.2861  0.5026
82232SOL    HW158675   5.689  13.153   2.369 -0.8533  0.3222 -0.7944
82232SOL    HW258676   5.594  13.052   2.429  0.8205  0.4570  2.2822
82233SOL     OW58677   8.507   2.962  10.456  0.8180 -0.0274  0.5761
82233SOL    HW158678   8.469   2.972  10.543  0.9841 -0.3399  0.6868
82233SOL    HW258679   8.558   3.042  10.442 -0.9807  1.0319 -0.1433
82234SOL     OW58680  10.079  12.822  12.701 -0.1090 -0.5970 -0.3096
82234SOL    HW158681  10.089  12.792  12.611  1.9068 -0.2547 -0.2496
82234SOL    HW258682  10.111  12.912  12.700  0.3841 -0.7406  0.8369
82235SOL     OW58683  13.061   6.164   6.844 -0.3224 -0.0722  0.3414
82235SOL    HW158684  12.993   6.206   6.791 -1.1011 -0.9387  0.6270
82235SOL    HW258685  13.106   6.236   6.888  0.1380  0.6514 -1.2456
82236SOL     OW58686  11.949   2.386   2.195 -0.0206 -0.2561  0.5742
82236SOL    HW158687  11.999   2.312   2.160 -0.6859 -1.0913  1.3606
82236SOL    HW258688  12.013   2.456   2.203  0.1501  0.1000 -2.5569
82237SOL     OW58689  11.973  10.764   3.516  0.5186 -0.4453  0.0122
82237SOL    HW158690  12.043  10.800   3.570 -0.7798 -1.1102  2.2971
82237SOL    HW258691  11.964  10.673   3.544 -0.5207 -0.6876 -1.0036
82238SOL     OW58692   4.734   2.867  10.325  0.1634 -0.0575 -0.1312
82238SOL    HW158693   4.671   2.831  10.262 -0.1902 -0.3563  0.3861
82238SOL    HW258694   4.743   2.798  10.392  1.4777 -0.2678 -0.4879
82239SOL     OW58695   6.900   5.967  11.104 -0.0283  0.3463 -0.6988
82239SOL    HW158696   6.825   6.021  11.127 -0.5687 -0.5822 -0.2329
82239SOL    HW258697   6.959   5.974  11.180 -0.9767 -1.2268  0.2584
82240SOL     OW58698  10.358   0.031  10.662 -0.4253  0.0918 -0.4268
82240SOL    HW158699  10.341   0.052  10.754 -1.2328 -0.4268 -0.4499
82240SOL    HW258700  10.453   0.034  10.654 -0.4023  1.6866  0.0471
82241SOL     OW58701   0.149  11.882   2.143  0.4759  0.2376 -0.0880
82241SOL    HW158702   0.198  11.816   2.093 -0.5104 -0.3879 -0.2571
82241SOL    HW258703   0.191  11.965   2.120  0.0072 -0.0050 -2.0675
82242SOL     OW58704  11.263   7.211   1.263 -0.5776 -0.1154  0.0414
82242SOL    HW158705  11.349   7.182   1.232  0.0239  0.2519  1.3183
82242SOL    HW258706  11.264   7.194   1.357 -1.4010  1.1275  0.2951
82243SOL     OW58707   1.189   2.196   5.172 -0.5823 -0.1193 -0.4725
82243SOL    HW158708   1.163   2.151   5.252  2.6525  1.0392  1.3900
82243SOL    HW258709   1.143   2.280   5.177 -0.6765 -0.1944 -0.0001
82244SOL     OW58710  13.224   3.526   0.178 -0.2152 -0.4666 -0.0015
82244SOL    HW158711  13.156   3.472   0.136 -0.7701  0.0380  0.2269
82244SOL    HW258712  13.191   3.540   0.267  1.1813 -1.9534  0.8119
82245SOL     OW58713  12.134  13.587   1.315  0.9113 -0.2440 -0.3236
82245SOL    HW158714  12.139  13.502   1.272 -0.6169  0.3198 -1.7176
82245SOL    HW258715  12.081  13.641   1.256  0.2736  1.1219  1.4095
82246SOL     OW58716   8.421   6.358   6.088 -0.3831  0.5502  0.0536
82246SOL    HW158717   8.500   6.394   6.128 -0.0700 -0.1948  0.1326
82246SOL    HW258718   8.452   6.281   6.039 -1.1986 -0.4289  1.0223
82247SOL     OW58719   0.490   3.198   6.429  0.2351 -0.6795 -0.6550
82247SOL    HW158720   0.441   3.125   6.468  1.3571 -1.4026 -0.5389
82247SOL    HW258721   0.545   3.157   6.362  2.4992 -0.3345  0.8624
82248SOL     OW58722   1.580  11.352   8.896  0.3591 -0.6528  0.6961
82248SOL    HW158723   1.623  11.350   8.981  1.5562  0.5735  0.1611
82248SOL    HW258724   1.605  11.269   8.854  0.7876 -0.7148  1.0696
82249SOL     OW58725   5.136  10.321   2.317  0.1361  0.3579 -0.3135
82249SOL    HW158726   5.221  10.339   2.278  0.2768 -3.1520 -1.9513
82249SOL    HW258727   5.084  10.285   2.245 -1.9712  0.2405  1.1863
82250SOL     OW58728   4.744   8.094  13.030  0.1827  0.2284  0.1240
82250SOL    HW158729   4.725   8.178  13.072 -1.6789  0.3967 -0.9346
82250SOL    HW258730   4.716   8.029  13.095  0.8794  0.4124  0.6242
82251SOL     OW58731   4.878   3.293   2.115 -0.2952 -0.1507 -0.6688
82251SOL    HW158732   4.852   3.251   2.197  0.3637  0.2631 -0.2406
82251SOL    HW258733   4.935   3.365   2.141  0.9119 -0.7382 -1.5551
82252SOL     OW58734   7.616   1.482   0.415  0.0782  0.0821 -0.5495
82252SOL    HW158735   7.544   1.532   0.374  0.2537  2.3727  1.6798
82252SOL    HW258736   7.572   1.427   0.480  0.2923  1.9463  1.2541
82253SOL     OW58737   3.235   8.088   6.529  0.5347 -0.2013 -0.1459
82253SOL    HW158738   3.183   8.024   6.578  1.2584  0.9631  2.2906
82253SOL    HW258739   3.171   8.147   6.491 -0.1746 -2.4057 -2.7182
82254SOL     OW58740  11.272   7.497  11.394  0.1282  0.7725  0.4109
82254SOL    HW158741  11.290   7.579  11.441  0.5775  0.2016  1.2560
82254SOL    HW258742  11.189   7.467  11.430 -0.4015  1.2165 -0.4187
82255SOL     OW58743   7.601  11.350   0.046 -0.0805 -0.1517  0.1309
82255SOL    HW158744   7.544  11.352   0.123  0.8702 -0.0669  0.8562
82255SOL    HW258745   7.558  11.407  -0.017 -1.3833 -0.9923  0.2234
82256SOL     OW58746   6.222   3.376  12.122  0.0583 -0.0130 -0.1071
82256SOL    HW158747   6.284   3.315  12.162 -0.8088 -0.5618  0.4526
82256SOL    HW258748   6.186   3.425  12.196 -2.8627 -2.2392  0.1327
82257SOL     OW58749   6.330  11.114   7.220  0.1189  0.4111 -0.2996
82257SOL    HW158750   6.385  11.192   7.217 -0.8790  1.1041 -0.8650
82257SOL    HW258751   6.380  11.052   7.273  1.0503  1.3280 -0.0764
82258SOL     OW58752   5.341   8.586   3.513 -0.1694  0.1586 -0.0989
82258SOL    HW158753   5.404   8.516   3.497 -2.3554 -2.3606  1.4084
82258SOL    HW258754   5.291   8.593   3.432  0.5028  0.5312 -0.4933
82259SOL     OW58755   4.565  11.761  11.450 -0.3160  0.2648 -0.6074
82259SOL    HW158756   4.500  11.830  11.468  1.5338  1.6802  1.0277
82259SOL    HW258757   4.568  11.756  11.354 -2.0366  0.9072 -0.7389
82260SOL     OW58758   6.754   3.643  13.296  0.4057 -0.4208  0.2722
82260SOL    HW158759   6.843   3.649  13.259  0.3800  0.2436  0.2963
82260SOL    HW258760   6.713   3.571  13.249  0.7003 -0.2139 -0.3119
82261SOL     OW58761  11.242   8.687   2.748 -0.3887  0.2880 -0.4746
82261SOL    HW158762  11.326   8.701   2.703 -1.3578  2.9957 -1.6231
82261SOL    HW258763  11.264   8.698   2.841  0.4431  1.8444 -0.8095
82262SOL     OW58764  13.342   0.771   4.207 -0.7017  0.3010 -0.1120
82262SOL    HW158765  13.319   0.692   4.256 -1.1506  0.2182 -0.4574
82262SOL    HW258766  13.434   0.758   4.182 -0.6727  0.0448  0.1237
82263SOL     OW58767   8.540   0.518  12.553 -0.5392  0.0289  0.0925
82263SOL    HW158768   8.527   0.431  12.516 -0.2609 -1.5291  3.2710
82263SOL    HW258769   8.625   0.513  12.596 -0.6567  1.7611  0.5977
82264SOL     OW58770   5.003   6.631  10.622  0.0193 -0.3035  0.1391
82264SOL    HW158771   4.923   6.657  10.669 -0.0452 -1.0234  0.4369
82264SOL    HW258772   5.071   6.690  10.656  0.2684 -1.6403  2.1403
82265SOL     OW58773   9.927   5.449   6.778  0.0146 -0.0156 -0.3495
82265SOL    HW158774  10.021   5.465   6.766 -0.1583  1.3021 -0.0987
82265SOL    HW258775   9.900   5.514   6.843 -1.3305  0.5335 -1.4089
82266SOL     OW58776   0.886   9.102   6.611  0.1526 -0.5222 -0.3346
82266SOL    HW158777   0.979   9.089   6.592  0.0230 -2.2261  0.0033
82266SOL    HW258778   0.881   9.101   6.707 -0.1729 -0.0150 -0.3435
82267SOL     OW58779   4.307   6.662   4.484  0.0381 -0.1332  0.1697
82267SOL    HW158780   4.337   6.681   4.395 -1.0203 -1.4175 -0.5132
82267SOL    HW258781   4.287   6.748   4.522  1.4699  0.5022 -0.4580
82268SOL     OW58782   1.973   1.272   6.656  0.4371  0.1703  0.0995
82268SOL    HW158783   1.955   1.278   6.562  0.6320 -0.3082  0.0310
82268SOL    HW258784   1.904   1.214   6.690 -0.9287  2.0024  0.6219
82269SOL     OW58785  13.724   6.961  13.319  0.3695 -0.1704  0.2598
82269SOL    HW158786  13.739   6.868  13.301 -0.0779 -0.1804 -0.0637
82269SOL    HW258787  13.720   7.001  13.232 -2.4465 -0.3068  0.2349
82270SOL     OW58788  13.638   3.811   1.673 -0.1914 -0.2616 -0.0096
82270SOL    HW158789  13.654   3.834   1.582  0.9208 -0.7122  0.0524
82270SOL    HW258790  13.677   3.883   1.723  0.5496 -0.7425  0.1247
82271SOL     OW58791  12.247   2.041  12.573 -0.1639 -0.6430  0.1825
82271SOL    HW158792  12.280   2.092  12.499 -0.8170  1.7310  1.4135
82271SOL    HW258793  12.227   1.955  12.536 -2.2743  0.9644 -2.8790
82272SOL     OW58794  11.057   4.061  11.347 -0.2494  0.3925 -0.2481
82272SOL    HW158795  11.041   4.093  11.436  1.2305 -0.5754  0.4255
82272SOL    HW258796  11.135   4.006  11.356  1.5726  2.3506 -2.6014
82273SOL     OW58797  11.075   2.025  13.738  0.3959 -0.5309 -0.0100
82273SOL    HW158798  11.079   2.004  13.645  2.1652 -2.8946  0.4905
82273SOL    HW258799  11.136   2.098  13.749  0.3930 -0.4249 -0.6435
82274SOL     OW58800  10.026   1.661   1.179  0.0173  0.3214  0.3029
82274SOL    HW158801  10.018   1.747   1.139  2.4276  0.3366 -0.2804
82274SOL    HW258802  10.056   1.604   1.108  0.9630 -0.4208  1.2538
82275SOL     OW58803  11.085   1.464  13.213  0.0153  0.0201  0.1424
82275SOL    HW158804  11.041   1.488  13.295  1.2424 -0.4975  0.9956
82275SOL    HW258805  11.047   1.379  13.189  1.0577 -0.8320  1.3265
82276SOL     OW58806   3.167  11.157   4.966  0.1210  0.6036 -0.4787
82276SOL    HW158807   3.138  11.242   4.935 -0.9552  0.6598  0.5746
82276SOL    HW258808   3.174  11.168   5.061 -1.5236 -0.8553 -0.1343
82277SOL     OW58809   8.953  10.217   0.428  0.5705 -0.2736 -0.3548
82277SOL    HW158810   8.869  10.172   0.429  0.8775 -0.8651  0.4570
82277SOL    HW258811   9.008  10.163   0.371  0.5284 -0.1272 -0.5355
82278SOL     OW58812  10.661   8.205  12.103  0.9640  0.9748 -0.5889
82278SOL    HW158813  10.571   8.204  12.073  0.8427 -0.5967 -0.2392
82278SOL    HW258814  10.700   8.126  12.066  0.8862 -0.9411  2.9878
82279SOL     OW58815   6.488   1.627   1.797 -0.2962 -0.0691  0.4590
82279SOL    HW158816   6.511   1.719   1.812  0.7660  0.3276 -2.8057
82279SOL    HW258817   6.394   1.630   1.777 -0.4129  0.2136  1.0393
82280SOL     OW58818   8.576   9.762   0.676 -0.2476  0.4663 -0.8700
82280SOL    HW158819   8.517   9.837   0.667 -0.2797  0.3380 -1.7529
82280SOL    HW258820   8.619   9.776   0.761 -0.6752  1.1769 -0.7617
82281SOL     OW58821  11.241   4.444   3.578  0.3365 -0.2355 -0.2086
82281SOL    HW158822  11.304   4.400   3.635 -1.2797 -0.3581  1.5768
82281SOL    HW258823  11.263   4.537   3.587  1.4368 -0.3736 -1.1296
82282SOL     OW58824   2.868  13.533  12.974 -0.5436 -0.1453 -0.2616
82282SOL    HW158825   2.834  13.553  13.061  0.0817 -2.0489  0.4690
82282SOL    HW258826   2.837  13.444  12.956  1.7274 -0.9080 -0.7100
82283SOL     OW58827  12.759  10.111  13.209 -0.4853  0.5806  0.1265
82283SOL    HW158828  12.685  10.171  13.198 -0.9171  0.6996  2.9773
82283SOL    HW258829  12.727  10.027  13.178 -1.4451  0.8676  0.3230
82284SOL     OW58830  13.103   4.900   5.700 -0.2326  0.0905 -0.3833
82284SOL    HW158831  13.099   4.949   5.782  1.3740 -0.8352  0.2933
82284SOL    HW258832  13.176   4.839   5.711 -0.9504 -1.1410 -1.9173
82285SOL     OW58833   8.051  12.255   8.295  0.4031  0.3329  0.2448
82285SOL    HW158834   7.991  12.241   8.369 -0.5352 -1.3886 -0.7610
82285SOL    HW258835   8.134  12.279   8.336 -0.4504  0.8219  1.7810
82286SOL     OW58836   3.164   8.595   9.063 -0.2051 -0.1142  0.3609
82286SOL    HW158837   3.191   8.668   9.119 -1.6013  1.7434 -1.2593
82286SOL    HW258838   3.215   8.606   8.983  1.3105 -2.3762  0.9233
82287SOL     OW58839  11.546   9.195   2.086 -0.1760  0.0268 -0.3691
82287SOL    HW158840  11.622   9.138   2.081  0.4909  0.9146 -0.6479
82287SOL    HW258841  11.478   9.142   2.128  0.7710 -0.5972  0.4048
82288SOL     OW58842   6.963   3.987   3.153 -0.4040  0.6196  0.0410
82288SOL    HW158843   7.042   4.041   3.159  0.4541 -0.5527 -0.2567
82288SOL    HW258844   6.891   4.048   3.167  0.6078  1.4284  2.2140
82289SOL     OW58845   8.926  10.885  13.266  0.1135 -0.1293 -0.3059
82289SOL    HW158846   8.919  10.811  13.327 -0.6310  0.8059  0.7853
82289SOL    HW258847   8.920  10.845  13.179 -3.4840 -1.1099  0.2522
82290SOL     OW58848  13.228  10.441  10.961  0.6660  0.3889  0.0745
82290SOL    HW158849  13.169  10.366  10.968 -0.2580  0.6007 -3.6057
82290SOL    HW258850  13.315  10.402  10.960  0.6531 -0.0794  3.4822
82291SOL     OW58851   7.965  11.633   7.029 -0.4864  0.1568 -0.4965
82291SOL    HW158852   8.060  11.639   7.039 -0.6570  0.9525  0.9366
82291SOL    HW258853   7.930  11.667   7.111 -2.0247  0.1414 -1.1094
82292SOL     OW58854   4.928   1.087  10.323  0.7210 -0.1202  0.4435
82292SOL    HW158855   5.006   1.065  10.272  0.7521  0.8515  0.0477
82292SOL    HW258856   4.947   1.053  10.411  1.1822 -0.7287  0.1139
82293SOL     OW58857   9.440  10.089   1.637  0.4044 -1.1426 -0.2825
82293SOL    HW158858   9.344  10.097   1.640  0.4114 -0.9963  2.7903
82293SOL    HW258859   9.471  10.178   1.620 -0.0261 -0.7163  1.0155
82294SOL     OW58860   3.426   2.857  11.631  0.1352 -0.1141 -0.2738
82294SOL    HW158861   3.394   2.788  11.572 -0.2789  0.3496 -0.5894
82294SOL    HW258862   3.437   2.933  11.575 -1.2484  0.6390  0.4296
82295SOL     OW58863   6.052   9.198   6.549 -0.3200  0.1259 -0.4522
82295SOL    HW158864   6.002   9.154   6.481 -1.6146  1.5184 -0.4427
82295SOL    HW258865   6.132   9.228   6.505 -1.0726  0.8785 -1.3263
82296SOL     OW58866   2.387  13.482   0.454 -0.3409 -0.0986 -0.0327
82296SOL    HW158867   2.370  13.552   0.517 -0.0967 -1.9805  2.2427
82296SOL    HW258868   2.460  13.514   0.401 -1.1213  1.8834  0.0261
82297SOL     OW58869  11.687   9.908   5.066  0.5260 -0.0012  0.3272
82297SOL    HW158870  11.747   9.927   4.993 -0.6607  0.5165 -0.5417
82297SOL    HW258871  11.735   9.936   5.144  1.3606  0.5343 -0.3560
82298SOL     OW58872   9.043   1.543  12.568 -0.2950 -0.0636  0.2823
82298SOL    HW158873   9.072   1.549  12.659 -2.1227 -0.6425  0.9557
82298SOL    HW258874   9.063   1.454  12.542 -1.1239 -0.3642  0.6393
82299SOL     OW58875   2.122   4.930   0.936 -0.4759 -0.2053  0.5447
82299SOL    HW158876   2.206   4.886   0.940 -0.4155 -0.0135  1.6235
82299SOL    HW258877   2.061   4.863   0.905 -0.0490 -0.5159  0.3667
82300SOL     OW58878   9.450   5.533  10.635 -0.0516  0.3761  0.2524
82300SOL    HW158879   9.546   5.535  10.633 -0.0240 -0.0463 -2.5437
82300SOL    HW258880   9.428   5.569  10.721  2.6148 -2.9022  2.5985
82301SOL     OW58881   4.121   3.893  10.149  0.6129 -0.4428 -0.1769
82301SOL    HW158882   4.191   3.936  10.198 -0.3595  0.9904  0.0292
82301SOL    HW258883   4.058   3.866  10.216 -1.3102  2.5916 -0.5483
82302SOL     OW58884   2.857  10.011   6.598  0.5016 -0.3926  0.0316
82302SOL    HW158885   2.865  10.107   6.600 -0.8666 -0.2585  2.3966
82302SOL    HW258886   2.806   9.993   6.518 -0.6580  1.0171  0.4102
82303SOL     OW58887   5.925   1.430   6.444  0.0158  0.5416 -0.0211
82303SOL    HW158888   5.997   1.456   6.500  0.0399 -0.5807  0.4986
82303SOL    HW258889   5.865   1.505   6.444  0.4453  0.8890  0.7728
82304SOL     OW58890  10.909   1.354   5.505 -0.1669 -0.9557  0.8245
82304SOL    HW158891  10.982   1.295   5.487 -0.8292 -0.9816 -2.3064
82304SOL    HW258892  10.938   1.439   5.473 -0.3335 -0.1842  2.6052
82305SOL     OW58893  12.602   8.156  11.945  0.4045 -0.7848  0.0286
82305SOL    HW158894  12.570   8.129  12.031 -1.5832 -0.0804 -0.4385
82305SOL    HW258895  12.673   8.094  11.925 -0.0321 -1.8232  1.5510
82306SOL     OW58896   8.533   5.200  11.853 -0.3790  0.0714 -0.1417
82306SOL    HW158897   8.598   5.138  11.819 -1.9883 -2.5536  1.1984
82306SOL    HW258898   8.541   5.195  11.948 -1.8162  0.4554  0.0310
82307SOL     OW58899   8.774   9.155   3.264 -0.4045 -0.1326  0.8619
82307SOL    HW158900   8.856   9.159   3.313  0.4004  1.7602 -0.5510
82307SOL    HW258901   8.791   9.093   3.193  0.5704  1.7550 -0.6411
82308SOL     OW58902  13.922   2.521   2.541  0.0731 -0.7445  0.2448
82308SOL    HW158903  13.848   2.568   2.502  0.6181 -0.3725 -0.3818
82308SOL    HW258904  13.961   2.584   2.602  1.1687 -0.1268 -1.0436
82309SOL     OW58905  14.029   5.223  13.837  0.3901 -0.0595 -0.5130
82309SOL    HW158906  14.090   5.149  13.837  1.0441  0.3756 -3.1027
82309SOL    HW258907  13.943   5.183  13.842  0.7464 -1.0150 -1.6199
82310SOL     OW58908  12.765  11.037   3.844 -0.2738  0.6734  0.0444
82310SOL    HW158909  12.733  11.091   3.772  0.5094  2.7493  1.1782
82310SOL    HW258910  12.721  10.953   3.833 -3.8514  2.4031 -0.1360
82311SOL     OW58911  10.178  10.344   5.144 -0.1332  0.1845 -0.0158
82311SOL    HW158912  10.233  10.420   5.162  0.9658 -0.3667 -0.9875
82311SOL    HW258913  10.108  10.350   5.209 -0.8899  2.8174 -0.9535
82312SOL     OW58914  11.663  12.669   1.355 -0.2570  0.8028 -0.0021
82312SOL    HW158915  11.632  12.580   1.335  1.2908 -0.0291  1.0519
82312SOL    HW258916  11.633  12.686   1.444  1.3452  0.3742  0.6630
82313SOL     OW58917   0.304   5.909   7.999 -0.2766  0.2250  0.4502
82313SOL    HW158918   0.279   5.876   8.086 -1.5395 -0.8154 -0.2735
82313SOL    HW258919   0.224   5.948   7.964 -0.1534 -0.5676 -0.7706
82314SOL     OW58920  10.884  13.073  13.663  0.0720  0.0220 -0.6277
82314SOL    HW158921  10.914  12.984  13.648 -0.0180  0.2473 -2.3920
82314SOL    HW258922  10.963  13.126  13.656 -0.0646  0.1932 -0.9136
82315SOL     OW58923   7.416   6.998  11.233  0.2086  0.1830  0.1943
82315SOL    HW158924   7.424   6.955  11.148 -0.3795  0.7696 -0.1546
82315SOL    HW258925   7.424   7.091  11.215 -2.1623  0.4809  0.4763
82316SOL     OW58926   9.361  12.941  10.527 -0.2975 -0.0675  0.2529
82316SOL    HW158927   9.338  13.033  10.539  0.9513  0.2443  0.4225
82316SOL    HW258928   9.354  12.927  10.432  0.1208  0.3893  0.1455
82317SOL     OW58929   5.863   2.615  11.264 -0.2005 -0.2801  0.6357
82317SOL    HW158930   5.799   2.576  11.323 -0.1986  1.6553  1.9997
82317SOL    HW258931   5.825   2.699  11.239  0.5691 -0.3258 -0.8157
82318SOL     OW58932   0.560   6.611   6.940  0.3652  0.0586  0.3705
82318SOL    HW158933   0.509   6.634   6.862  2.1715  1.5818 -0.4555
82318SOL    HW258934   0.629   6.553   6.906  1.5061  1.1951  0.6929
82319SOL     OW58935   7.134  10.528  12.341 -0.3200 -0.3606  0.0532
82319SOL    HW158936   7.176  10.548  12.258 -0.7235  1.2293  0.1844
82319SOL    HW258937   7.073  10.457  12.321 -1.5717  1.0476 -1.4068
82320SOL     OW58938   0.249   4.470   5.207 -0.1928  0.1814 -0.0413
82320SOL    HW158939   0.218   4.380   5.208  1.5601 -0.5130  2.7781
82320SOL    HW258940   0.176   4.520   5.245 -0.9597 -0.0864 -1.1111
82321SOL     OW58941   3.784   7.981   0.260  0.5200 -0.1488  0.0271
82321SOL    HW158942   3.741   8.007   0.178 -3.1265 -0.2818  1.6724
82321SOL    HW258943   3.796   8.063   0.308 -0.7450 -0.3460  0.7430
82322SOL     OW58944   2.299   0.403   4.248  0.0166  0.0722  0.0464
82322SOL    HW158945   2.231   0.459   4.211  0.2465 -0.4265 -1.2046
82322SOL    HW258946   2.275   0.315   4.219  2.3494  0.1080 -2.4243
82323SOL     OW58947   1.851   5.772   8.513 -0.3643  0.2915  0.2414
82323SOL    HW158948   1.849   5.715   8.590 -0.0401 -0.3760 -0.2421
82323SOL    HW258949   1.851   5.861   8.550 -0.5358 -0.0169  1.0046
82324SOL     OW58950  12.512   8.706   0.647 -0.2232  0.3553  1.1183
82324SOL    HW158951  12.563   8.633   0.682  0.1942  0.4541  0.7154
82324SOL    HW258952  12.576   8.772   0.625 -0.2426 -0.4906 -1.7940
82325SOL     OW58953   4.113   6.966  11.319  0.8022  0.1583 -0.5060
82325SOL    HW158954   4.025   6.947  11.285  0.2647  3.7084 -1.5303
82325SOL    HW258955   4.105   7.053  11.358  3.9476  0.8323 -1.0641
82326SOL     OW58956   8.677   4.400  12.610  0.1156 -0.1941 -0.1281
82326SOL    HW158957   8.598   4.356  12.643 -0.3742  0.2479 -0.6808
82326SOL    HW258958   8.688   4.364  12.521  0.5995 -0.3268 -0.0157
82327SOL     OW58959   8.015   8.072   1.173  0.0845 -0.4853 -0.1398
82327SOL    HW158960   7.938   8.044   1.124 -0.3969  0.0443  0.2980
82327SOL    HW258961   8.026   8.006   1.242 -0.5654 -0.0499  0.3929
82328SOL     OW58962   2.207   1.061   8.073 -0.0292 -0.2683  0.5852
82328SOL    HW158963   2.174   0.992   8.130 -0.7546 -1.1373 -0.8036
82328SOL    HW258964   2.300   1.043   8.064 -0.2025 -1.0745  0.2753
82329SOL     OW58965   3.884   3.496   7.247 -0.7213 -0.6396  0.0844
82329SOL    HW158966   3.943   3.531   7.180 -1.6587  0.9514  0.0303
82329SOL    HW258967   3.838   3.424   7.203 -0.2340 -0.6057 -0.4977
82330SOL     OW58968   9.410   6.077  11.444 -0.1003 -0.3547 -0.0864
82330SOL    HW158969   9.368   6.069  11.529  0.1274 -0.3127  0.0302
82330SOL    HW258970   9.473   6.005  11.442  0.0614 -0.2134 -0.1228
82331SOL     OW58971   2.852   6.325   6.608  0.3798 -0.1764 -0.0010
82331SOL    HW158972   2.776   6.278   6.574  1.3819 -1.6121 -0.3954
82331SOL    HW258973   2.834   6.334   6.702 -0.4399 -0.1753 -0.1535
82332SOL     OW58974   6.305   7.022   0.774  0.0205  0.3804 -0.8643
82332SOL    HW158975   6.319   7.092   0.838 -2.1670 -0.9336  1.2313
82332SOL    HW258976   6.249   7.062   0.707  0.4210  1.1485 -0.7589
82333SOL     OW58977  12.977   5.953  12.206  0.2840  0.5904  0.3643
82333SOL    HW158978  12.881   5.945  12.202  0.2955  0.7968 -0.2991
82333SOL    HW258979  13.009   5.864  12.198  0.1955  0.6617 -0.9879
82334SOL     OW58980   3.236   7.659   1.627 -0.0091  0.3062  0.0589
82334SOL    HW158981   3.324   7.687   1.651  0.7089 -3.2054  2.3227
82334SOL    HW258982   3.250   7.586   1.566 -1.3453 -0.1818  0.3028
82335SOL     OW58983  11.537   8.462   0.340  0.3647 -0.0919  0.1570
82335SOL    HW158984  11.537   8.555   0.322  1.5206 -0.0574  0.3160
82335SOL    HW258985  11.446   8.443   0.365  0.1736  1.0230  0.3568
82336SOL     OW58986   1.360   1.615  13.052  0.1851 -0.2110  0.7989
82336SOL    HW158987   1.320   1.578  12.973 -0.9051  0.5686  0.9646
82336SOL    HW258988   1.379   1.706  13.028  1.2732 -0.3791  0.9530
82337SOL     OW58989   8.307   4.006   2.209  0.2734  0.1017  0.3310
82337SOL    HW158990   8.214   3.997   2.188  0.2091  2.0799 -0.3641
82337SOL    HW258991   8.350   3.943   2.152 -0.4036  1.4111 -1.7352
82338SOL     OW58992  10.596   4.218  13.370 -0.2218  0.0138  0.2729
82338SOL    HW158993  10.689   4.200  13.377 -0.3653 -0.3254  1.6900
82338SOL    HW258994  10.581   4.291  13.431 -1.1255 -0.9746  1.2806
82339SOL     OW58995  11.892   2.728   2.693  0.0334  0.6317  0.9141
82339SOL    HW158996  11.945   2.808   2.689  0.2871  0.4378  0.2890
82339SOL    HW258997  11.849   2.732   2.778  1.1666  0.7259  1.4939
82340SOL     OW58998   2.093  11.033  11.321  0.1249 -0.3811 -0.0647
82340SOL    HW158999   2.181  11.018  11.285 -0.2119  0.0346 -1.0870
82340SOL    HW259000   2.072  11.123  11.297  0.1538  0.1540  1.7924
82341SOL     OW59001   6.037   6.026  11.987  0.0316  0.5295 -0.0433
82341SOL    HW159002   5.953   6.071  11.978 -0.0621  0.3906  0.1355
82341SOL    HW259003   6.014   5.933  11.990  0.1390  0.5180  0.6439
82342SOL     OW59004   9.255   7.073   1.907  0.4413 -0.0980  0.1098
82342SOL    HW159005   9.232   6.991   1.863 -2.0271 -0.3205  1.6329
82342SOL    HW259006   9.283   7.131   1.836  0.8094 -1.7664 -1.1761
82343SOL     OW59007  13.314  11.574   7.886  0.3439  0.8347  0.1443
82343SOL    HW159008  13.236  11.523   7.867 -0.8752  2.5796  0.2574
82343SOL    HW259009  13.371  11.513   7.933 -0.9051 -0.4897  0.0255
82344SOL     OW59010   6.100   3.391   8.846 -0.2612 -0.3876 -0.2003
82344SOL    HW159011   6.139   3.305   8.859  1.3146  0.4448  0.9130
82344SOL    HW259012   6.164   3.452   8.883 -0.4203  1.4264 -2.6350
82345SOL     OW59013   4.003   9.114  10.883  0.0455 -0.3787  0.2343
82345SOL    HW159014   3.949   9.055  10.830 -0.0589 -1.0986  1.1216
82345SOL    HW259015   3.958   9.198  10.880 -0.2066 -0.5315 -0.4345
82346SOL     OW59016   1.738  12.420   5.607 -0.0757 -0.5246 -0.0702
82346SOL    HW159017   1.655  12.413   5.653 -0.4251 -0.3596 -0.6689
82346SOL    HW259018   1.725  12.372   5.525  0.0892  0.3257 -0.6097
82347SOL     OW59019   1.720  11.674   4.332 -0.4595 -0.5877  0.6614
82347SOL    HW159020   1.767  11.608   4.279 -2.7270 -1.0956 -0.8970
82347SOL    HW259021   1.628  11.663   4.306 -1.4616  0.3807  3.4987
82348SOL     OW59022   2.244   2.953   3.997 -0.2180 -0.4706 -0.4732
82348SOL    HW159023   2.312   2.959   3.930 -0.3167  1.5073 -0.4395
82348SOL    HW259024   2.169   2.999   3.959 -0.0365  1.3775  1.2474
82349SOL     OW59025   0.060  10.222   9.071  0.1043 -0.5799 -0.0471
82349SOL    HW159026  -0.009  10.254   9.012 -0.7894  0.9088  1.7030
82349SOL    HW259027   0.036  10.131   9.088  0.1155 -0.8944 -1.5771
82350SOL     OW59028   0.300   1.584   3.701 -0.4163  1.1677  0.8265
82350SOL    HW159029   0.311   1.623   3.787  0.7055  0.2144  1.1310
82350SOL    HW259030   0.241   1.509   3.716  0.5347  0.4257  0.9631
82351SOL     OW59031  12.443  10.670   9.618  0.5632  0.4948  0.3210
82351SOL    HW159032  12.366  10.726   9.626 -0.4296 -0.5582 -1.2183
82351SOL    HW259033  12.409  10.586   9.586  2.3398  0.0294 -0.5156
82352SOL     OW59034   0.411   7.064   6.981 -0.6584  0.3007 -0.4981
82352SOL    HW159035   0.440   7.130   6.918  0.3463  1.0767  0.7426
82352SOL    HW259036   0.349   7.110   7.037  1.2670  0.7431  1.4060
82353SOL     OW59037  10.683   3.936   3.879  0.2464  0.3968 -0.1292
82353SOL    HW159038  10.639   3.852   3.892  1.8235 -0.2325  1.5578
82353SOL    HW259039  10.676   3.980   3.964  0.1646  1.6334 -0.7543
82354SOL     OW59040   0.838   4.118   4.679  0.1031 -0.0680  0.4074
82354SOL    HW159041   0.745   4.138   4.690  0.6907  2.2118  1.8519
82354SOL    HW259042   0.843   4.023   4.688 -1.9318 -0.1166  1.6207
82355SOL     OW59043   6.750   0.997   2.681  0.0512 -0.2893 -0.1763
82355SOL    HW159044   6.695   1.003   2.760  2.6950  0.8827  1.7301
82355SOL    HW259045   6.743   0.906   2.654 -1.3263 -0.6142  1.1188
82356SOL     OW59046  13.861  11.968   0.061 -0.5623 -0.4330  0.1515
82356SOL    HW159047  13.879  11.886   0.107  1.9565 -1.5943 -2.5379
82356SOL    HW259048  13.927  12.029   0.095 -1.3004 -0.0459  0.9043
82357SOL     OW59049  12.301   2.231   8.604 -0.5553 -0.1143 -0.0199
82357SOL    HW159050  12.256   2.169   8.660 -0.0114 -1.6857 -1.2548
82357SOL    HW259051  12.390   2.198   8.598 -0.5154  0.1906 -1.5097
82358SOL     OW59052  13.855  13.342   2.502  0.6213 -0.2756 -0.5580
82358SOL    HW159053  13.817  13.427   2.479  0.0850  0.2737  1.9787
82358SOL    HW259054  13.781  13.292   2.539  1.5980 -0.5062  1.1888
82359SOL     OW59055   2.387   4.341   4.376  0.1231 -0.5479  0.2029
82359SOL    HW159056   2.354   4.253   4.355  0.3885 -0.5450 -0.2408
82359SOL    HW259057   2.312   4.387   4.413 -0.4787 -0.4437 -1.0730
82360SOL     OW59058  10.114   0.633  10.612  0.0423 -0.5182  0.4404
82360SOL    HW159059  10.055   0.610  10.683 -1.0307 -1.9514 -0.8670
82360SOL    HW259060  10.159   0.551  10.590 -0.7038 -0.4580 -1.4648
82361SOL     OW59061  10.323   3.513   6.404  0.0877  0.4290  0.7093
82361SOL    HW159062  10.314   3.520   6.499  0.9149  0.4582  0.7936
82361SOL    HW259063  10.383   3.439   6.391 -1.2019 -0.5556  0.1539
82362SOL     OW59064   7.857   2.589   9.883  0.1621  0.2983 -0.1392
82362SOL    HW159065   7.761   2.582   9.883 -0.0552  2.6751 -0.3905
82362SOL    HW259066   7.887   2.505   9.848 -1.8564 -0.1688 -0.8816
82363SOL     OW59067   7.293   0.293  13.739  0.5323  0.1684 -0.0839
82363SOL    HW159068   7.352   0.301  13.814  0.1593  0.0210  0.2342
82363SOL    HW259069   7.299   0.201  13.714 -0.2928 -0.0737  0.5707
82364SOL     OW59070   0.815  10.727   3.802 -0.3544 -0.2055 -0.5141
82364SOL    HW159071   0.775  10.713   3.716 -1.4938 -1.0138  0.1063
82364SOL    HW259072   0.806  10.642   3.846  1.2618 -0.1418  0.0014
82365SOL     OW59073  11.768  10.355   4.706  0.1651  0.5110 -0.6457
82365SOL    HW159074  11.852  10.402   4.706 -0.1667  1.1139  0.0603
82365SOL    HW259075  11.749  10.341   4.613  0.6295  1.1137 -0.8397
82366SOL     OW59076   1.659  13.690  13.107 -0.0857 -0.1991  0.4382
82366SOL    HW159077   1.721  13.655  13.042 -2.3591  1.8662 -3.1921
82366SOL    HW259078   1.686  13.781  13.119 -1.8267  0.5220 -0.6511
82367SOL     OW59079   5.346   4.383  13.689 -0.2454 -0.4030  0.3289
82367SOL    HW159080   5.378   4.326  13.759 -1.7763 -0.0576  1.3591
82367SOL    HW259081   5.423   4.400  13.635  1.0223 -0.5967  1.9976
82368SOL     OW59082   3.223   6.697   0.901  0.7751  1.0043 -0.0585
82368SOL    HW159083   3.241   6.722   0.810  0.8942  1.5458  0.1073
82368SOL    HW259084   3.282   6.624   0.918 -0.3770 -0.1657 -0.9097
82369SOL     OW59085   9.790   6.816   3.210 -0.5528 -0.0915  0.0934
82369SOL    HW159086   9.739   6.839   3.288 -1.1168 -0.3881 -0.1878
82369SOL    HW259087   9.859   6.757   3.244 -1.3002 -0.8966  0.2444
82370SOL     OW59088   0.547   7.766  11.393  0.2791 -0.4425  0.4219
82370SOL    HW159089   0.485   7.707  11.435  0.0931 -0.7668 -0.3005
82370SOL    HW259090   0.625   7.762  11.449  0.8961 -2.6804 -0.4891
82371SOL     OW59091  10.232   5.456  13.440  0.3678 -0.2870  0.5046
82371SOL    HW159092  10.323   5.484  13.430  1.2322 -3.1322 -0.7377
82371SOL    HW259093  10.186   5.503  13.370  1.0441  0.5099  0.5688
82372SOL     OW59094   9.143  12.339   7.758  0.1841 -0.2382  0.1223
82372SOL    HW159095   9.198  12.391   7.700 -1.8788 -0.4020 -2.1534
82372SOL    HW259096   9.202  12.307   7.826  2.2172  2.0653 -0.4401
82373SOL     OW59097   1.362   4.547   2.464 -0.0284 -0.5873 -0.3893
82373SOL    HW159098   1.324   4.516   2.546  0.9012 -0.4283  0.1118
82373SOL    HW259099   1.306   4.620   2.438  1.0668  0.9823  1.4128
82374SOL     OW59100   1.991   5.027   4.967  0.0363 -0.0932 -0.0164
82374SOL    HW159101   2.028   4.943   4.995  0.6058 -0.4332 -1.6781
82374SOL    HW259102   1.921   5.003   4.906  0.1177  0.6372 -0.4053
82375SOL     OW59103  10.402   4.771   4.646  0.1799 -0.0089 -0.2682
82375SOL    HW159104  10.444   4.849   4.610 -0.0517 -0.1559 -0.8688
82375SOL    HW259105  10.361   4.801   4.728 -1.2059  0.8717 -1.2489
82376SOL     OW59106   1.517  11.172  12.153 -0.1158  0.0085  0.0775
82376SOL    HW159107   1.591  11.221  12.189 -0.2847  0.6221 -0.3883
82376SOL    HW259108   1.522  11.086  12.195  1.0485 -0.0648 -0.1842
82377SOL     OW59109   4.193  11.465   3.178  0.4666  0.0344  0.1916
82377SOL    HW159110   4.174  11.377   3.147  0.7689  0.3184 -0.8211
82377SOL    HW259111   4.257  11.452   3.248  3.0880 -0.3792 -2.1476
82378SOL     OW59112   5.115  13.874  12.263 -0.6179 -0.2344 -0.6148
82378SOL    HW159113   5.126  13.921  12.346 -2.4023  1.5539 -1.3210
82378SOL    HW259114   5.201  13.879  12.221  0.2172 -0.8627  0.9314
82379SOL     OW59115   3.095   7.456   4.244 -0.4789 -0.3369  0.3846
82379SOL    HW159116   3.098   7.429   4.152  0.6208  0.3264  0.2014
82379SOL    HW259117   3.086   7.552   4.240  1.9052 -0.0192  0.8766
82380SOL     OW59118   5.388  13.708  10.900  0.0413  0.5505 -0.8760
82380SOL    HW159119   5.382  13.658  10.982 -2.2400  0.1313 -1.2491
82380SOL    HW259120   5.353  13.794  10.922  0.9034  0.9640 -1.0583
82381SOL     OW59121  10.483   9.734   4.265  0.2178  0.3655  0.0158
82381SOL    HW159122  10.564   9.701   4.226 -0.2030 -0.1560 -0.4203
82381SOL    HW259123  10.513   9.797   4.331  0.9827  0.0075  0.0205
82382SOL     OW59124   9.079   0.805  13.672 -0.2130  0.1599  0.3181
82382SOL    HW159125   9.145   0.761  13.726 -0.1257  0.1314  0.1891
82382SOL    HW259126   9.127   0.831  13.593 -0.4904 -0.3595 -0.0219
82383SOL     OW59127   7.476   5.425   8.134  0.1747  0.3559  0.3072
82383SOL    HW159128   7.454   5.364   8.064 -1.5999  1.0788  0.1867
82383SOL    HW259129   7.547   5.479   8.097  0.4851 -0.4152 -0.2542
82384SOL     OW59130   2.829  11.293   0.102  0.0772  0.2085 -0.7119
82384SOL    HW159131   2.882  11.334   0.034 -0.3369  1.5589 -0.2656
82384SOL    HW259132   2.820  11.361   0.169  0.7796 -1.1884  0.8728
82385SOL     OW59133  12.230   0.080   4.522  0.3036 -0.3395  0.0170
82385SOL    HW159134  12.179   0.148   4.478 -0.1006 -0.5867  0.0966
82385SOL    HW259135  12.321   0.107   4.511  0.3190 -1.0742 -2.1503
82386SOL     OW59136   9.052   6.724  13.909  0.8176 -0.4968 -0.0167
82386SOL    HW159137   8.976   6.749  13.857  1.6627 -0.5875 -1.3372
82386SOL    HW259138   9.043   6.775  13.990 -0.7560 -0.6878 -0.0286
82387SOL     OW59139  11.154   3.127   0.284  0.8410 -0.3135  0.7918
82387SOL    HW159140  11.069   3.102   0.247  0.3977  1.1940  0.7439
82387SOL    HW259141  11.198   3.175   0.214  0.7461  0.9616  1.5732
82388SOL     OW59142  10.759  13.083  11.421 -0.3142 -0.1765 -0.2433
82388SOL    HW159143  10.746  13.017  11.489  1.9027 -1.6707 -1.1468
82388SOL    HW259144  10.758  13.166  11.468 -0.5580 -1.0416  1.3545
82389SOL     OW59145  11.758   4.629   4.273  0.1031 -0.5714  0.1568
82389SOL    HW159146  11.803   4.564   4.218  0.7531  1.7603 -2.2994
82389SOL    HW259147  11.824   4.697   4.288 -1.5584  1.3090 -0.6375
82390SOL     OW59148  13.351   8.472   6.563  0.3698 -0.1244  0.1525
82390SOL    HW159149  13.391   8.501   6.481 -0.5536  1.7285  0.3100
82390SOL    HW259150  13.405   8.512   6.632  0.0302 -0.0912  0.4046
82391SOL     OW59151   3.679   1.017   3.858 -0.0130  0.2677 -0.4770
82391SOL    HW159152   3.735   0.991   3.931  0.0066 -0.8481 -0.8637
82391SOL    HW259153   3.738   1.022   3.783 -0.3217 -0.3449 -0.7696
82392SOL     OW59154  12.451   0.506   5.566 -0.3072  0.1142 -0.0125
82392SOL    HW159155  12.458   0.574   5.499 -0.8581  0.7350  0.5610
82392SOL    HW259156  12.497   0.431   5.527  0.6538  0.9222 -0.4826
82393SOL     OW59157   0.945   5.882  13.142  1.0162  0.1613  0.1493
82393SOL    HW159158   0.917   5.907  13.230 -1.3198 -1.6466  0.0163
82393SOL    HW259159   0.999   5.805  13.155  0.3943 -0.3061 -0.0002
82394SOL     OW59160   9.878  10.573   9.185  0.1961  0.2031 -0.0404
82394SOL    HW159161   9.850  10.623   9.262  0.3616  3.0086 -1.6374
82394SOL    HW259162   9.958  10.618   9.155  2.1958 -2.9661  0.0755
82395SOL     OW59163   8.105   6.185   7.650  0.3610 -0.0522  0.6088
82395SOL    HW159164   8.098   6.099   7.691  0.2761  0.5891  1.9771
82395SOL    HW259165   8.195   6.213   7.668  0.8072 -0.3500 -0.9217
82396SOL     OW59166  11.312   4.833   8.288  0.2156 -0.5146  0.5917
82396SOL    HW159167  11.330   4.877   8.205  1.5826  0.5208  1.3914
82396SOL    HW259168  11.217   4.837   8.298  0.2290  1.4809  0.2204
82397SOL     OW59169   7.530   2.063   7.344 -0.1649 -0.8415  0.0890
82397SOL    HW159170   7.492   2.120   7.412 -0.9012 -0.8270 -0.3165
82397SOL    HW259171   7.571   2.124   7.283 -1.3026 -0.7001 -0.5568
82398SOL     OW59172   1.340   5.526  13.921  0.1556  0.4979 -0.0374
82398SOL    HW159173   1.404   5.564  13.982  0.4239  1.1852 -0.7324
82398SOL    HW259174   1.390   5.512  13.840 -0.3083  0.0111 -0.2421
82399SOL     OW59175   8.255   0.550  11.258 -0.1296  0.2127  0.2618
82399SOL    HW159176   8.261   0.495  11.181 -0.5861  0.1246  0.2833
82399SOL    HW259177   8.334   0.531  11.309 -0.6651 -1.0122  0.6597
82400SOL     OW59178  11.274   3.090   8.477 -0.2394  0.1525  0.1528
82400SOL    HW159179  11.269   2.998   8.452 -2.6752  0.4093 -0.5567
82400SOL    HW259180  11.365   3.114   8.464  0.3421 -2.0172 -0.1153
82401SOL     OW59181  13.887  10.707  10.083 -0.0015  0.3285  0.2074
82401SOL    HW159182  13.935  10.690  10.002 -3.0947 -2.8704 -1.2031
82401SOL    HW259183  13.925  10.789  10.116  1.8662  1.5080 -4.0957
82402SOL     OW59184   4.401   6.076   3.433  0.1039  0.3751  0.9116
82402SOL    HW159185   4.482   6.049   3.391 -0.7232 -0.9496  0.0924
82402SOL    HW259186   4.406   6.172   3.436  1.3968  0.3453  0.2993
82403SOL     OW59187  12.170   2.860   3.366 -0.4111 -0.4557 -0.7301
82403SOL    HW159188  12.258   2.893   3.384 -1.2250  1.5471 -0.1249
82403SOL    HW259189  12.172   2.769   3.395  0.3784  0.6251  3.1266
82404SOL     OW59190  11.305  10.956   4.836 -0.0057 -0.3446  0.0078
82404SOL    HW159191  11.331  11.048   4.844  1.2428 -0.7856  1.7158
82404SOL    HW259192  11.309  10.922   4.926 -0.7757 -1.9890 -0.5311
82405SOL     OW59193  11.519   6.610   4.057 -0.1648 -0.5447  0.0427
82405SOL    HW159194  11.472   6.665   4.120 -0.9025  2.8506 -3.1574
82405SOL    HW259195  11.451   6.578   3.998  0.9156 -0.0538 -1.5239
82406SOL     OW59196   3.863   9.915   5.037  0.2202 -0.1650  0.0506
82406SOL    HW159197   3.915   9.844   5.074 -0.1854  0.2975  1.5726
82406SOL    HW259198   3.907   9.995   5.067 -0.6300  0.2241  0.2926
82407SOL     OW59199   6.637   4.552   6.849  0.1234  0.2072 -0.0925
82407SOL    HW159200   6.640   4.471   6.901 -0.6413  0.6205  0.6159
82407SOL    HW259201   6.544   4.576   6.846  0.5365  2.5051  2.0224
82408SOL     OW59202  10.371   1.507   8.811  0.1163  0.1591  0.1578
82408SOL    HW159203  10.344   1.432   8.759 -2.5970  0.7893  0.4924
82408SOL    HW259204  10.430   1.556   8.754 -0.4284 -0.7047 -1.1925
82409SOL     OW59205  11.490   3.150   1.375  0.2072  0.3388 -0.2572
82409SOL    HW159206  11.487   3.222   1.312  0.3078  1.3577  0.8627
82409SOL    HW259207  11.418   3.167   1.435  0.0357 -0.6824 -0.1573
82410SOL     OW59208   7.155   0.525  13.703 -0.1357  0.0718 -0.8358
82410SOL    HW159209   7.171   0.438  13.740  1.1921  0.3338 -0.7477
82410SOL    HW259210   7.174   0.586  13.774 -1.5528  0.4471 -0.7377
82411SOL     OW59211   2.275   8.333   6.352  0.6155 -0.1140  0.0752
82411SOL    HW159212   2.301   8.421   6.322  0.3293 -0.5080 -1.4071
82411SOL    HW259213   2.208   8.349   6.418  1.2468  0.8065  0.5080
82412SOL     OW59214   4.419   6.129   7.411 -0.2722 -0.0117 -0.0995
82412SOL    HW159215   4.468   6.211   7.407  0.4120 -0.4280 -0.3845
82412SOL    HW259216   4.482   6.064   7.442 -0.9790 -0.3126  0.7586
82413SOL     OW59217   3.877  13.459   6.601  0.8335 -0.0988  0.1627
82413SOL    HW159218   3.822  13.537   6.602  1.0049  0.0272 -0.1268
82413SOL    HW259219   3.937  13.473   6.527 -0.6361 -1.5634 -1.3868
82414SOL     OW59220  13.692  11.136   3.846 -0.6177 -0.3804  1.0354
82414SOL    HW159221  13.654  11.222   3.829  0.3811  0.0616  0.9502
82414SOL    HW259222  13.661  11.081   3.773 -2.1669 -0.4139  1.6884
82415SOL     OW59223   6.581   1.414   6.721  0.6105 -0.4817 -0.2808
82415SOL    HW159224   6.674   1.391   6.726  1.1513  1.4586 -0.8216
82415SOL    HW259225   6.557   1.434   6.812  1.0944  0.3055 -0.3146
82416SOL     OW59226   8.633   6.152   3.213  0.0398  0.2247  0.4848
82416SOL    HW159227   8.586   6.141   3.131 -2.4234  0.4489  1.7829
82416SOL    HW259228   8.707   6.208   3.191 -1.4638  1.6268 -1.2899
82417SOL     OW59229   0.185   0.921  14.028 -0.2024  0.0718  0.5139
82417SOL    HW159230   0.128   0.932  14.103 -1.0125  0.7619 -0.1779
82417SOL    HW259231   0.185   1.007  13.985  0.7949 -0.1116  0.1130
82418SOL     OW59232   5.183   7.990   8.409 -0.7728  0.5671 -0.1557
82418SOL    HW159233   5.158   8.055   8.343 -0.4460  0.7577 -0.0966
82418SOL    HW259234   5.104   7.977   8.461 -0.9381  0.6625 -0.3791
82419SOL     OW59235   9.009   1.996   1.495  0.0067  0.0570  0.2995
82419SOL    HW159236   8.993   2.058   1.424  1.9542 -0.6746 -0.8436
82419SOL    HW259237   9.060   2.045   1.560 -2.7009  1.0639  1.8482
82420SOL     OW59238  13.139  13.951  12.363 -0.4513 -0.2897 -0.3758
82420SOL    HW159239  13.102  13.875  12.408 -1.5529  0.4930  0.0739
82420SOL    HW259240  13.090  13.955  12.280  1.0130 -1.2498 -1.3356
82421SOL     OW59241   9.987   6.932   4.847 -0.0918 -0.0807  0.4872
82421SOL    HW159242  10.077   6.905   4.861 -1.1869 -3.4605  2.0103
82421SOL    HW259243   9.947   6.860   4.798 -2.3319  0.5382  1.2666
82422SOL     OW59244  11.157  10.387  12.907  0.0946 -0.0628 -0.3585
82422SOL    HW159245  11.113  10.320  12.854  0.6778 -1.2510  0.5987
82422SOL    HW259246  11.175  10.458  12.846  2.9462 -2.3290 -2.4743
82423SOL     OW59247   2.268   5.803  11.841 -0.2636 -0.2491  0.0332
82423SOL    HW159248   2.229   5.758  11.766  0.2177 -0.7990  0.1037
82423SOL    HW259249   2.361   5.779  11.837  0.0440  0.9044 -0.0465
82424SOL     OW59250   2.471   5.223   8.270 -0.4167 -0.1935 -0.4639
82424SOL    HW159251   2.501   5.314   8.280  0.3639 -0.6470  2.0196
82424SOL    HW259252   2.386   5.222   8.314  0.1384 -0.8980  0.6351
82425SOL     OW59253   2.015   9.096  13.457  0.0674 -0.3610 -0.7621
82425SOL    HW159254   1.955   9.044  13.511  0.7056 -2.3187 -1.8566
82425SOL    HW259255   1.957   9.143  13.396 -0.4542 -0.6958 -0.5309
82426SOL     OW59256   6.810   9.118  13.381  0.4001  0.0149 -0.3481
82426SOL    HW159257   6.718   9.121  13.404  0.0375  0.8868 -1.8140
82426SOL    HW259258   6.847   9.199  13.415  0.2108  0.5437 -1.3804
82427SOL     OW59259   2.389   3.323  12.957 -0.5200  0.1038 -0.5701
82427SOL    HW159260   2.476   3.346  12.988  0.5395 -1.3379 -2.2553
82427SOL    HW259261   2.342   3.407  12.952  0.4429  0.7928  1.2257
82428SOL     OW59262   8.237  13.274   1.783 -0.4132 -0.6678  0.2239
82428SOL    HW159263   8.299  13.277   1.856  2.9116  0.9628 -2.3952
82428SOL    HW259264   8.256  13.190   1.740 -0.1668 -0.2812 -0.4345
82429SOL     OW59265  11.970   2.045   3.601  0.3407  0.6406  0.5183
82429SOL    HW159266  12.063   2.036   3.624  0.4493  3.8316  1.8607
82429SOL    HW259267  11.968   2.037   3.506  2.2857  1.9275  0.3001
82430SOL     OW59268   8.509   3.748  12.810  0.5835  0.3055  0.1452
82430SOL    HW159269   8.452   3.802  12.864  0.6725  0.2038  0.3402
82430SOL    HW259270   8.584   3.727  12.866  0.5193 -0.0749  0.0953
82431SOL     OW59271   9.786   0.567  13.718  0.3060  0.0166 -0.1204
82431SOL    HW159272   9.791   0.662  13.726  0.1861  0.0068  0.0986
82431SOL    HW259273   9.720   0.552  13.651 -0.1984  0.0810  0.3526
82432SOL     OW59274   0.864  12.408   2.110 -0.0340  0.1909  0.0314
82432SOL    HW159275   0.865  12.495   2.072  0.2509 -0.1617 -0.7904
82432SOL    HW259276   0.773  12.395   2.138  0.0518  0.9720  0.7116
82433SOL     OW59277   2.148   0.652   1.262 -0.4589  0.3744  0.9264
82433SOL    HW159278   2.083   0.627   1.197  2.4174 -0.1161 -2.0407
82433SOL    HW259279   2.174   0.740   1.237  1.5214 -0.2531  0.5545
82434SOL     OW59280  12.709   7.743  10.384 -0.1976 -0.1731  0.3047
82434SOL    HW159281  12.664   7.758  10.301 -0.4115 -1.6660  0.1291
82434SOL    HW259282  12.740   7.653  10.379  0.5927  0.0071  1.4799
82435SOL     OW59283   6.431   2.830  13.243  0.7301  0.1959  0.0063
82435SOL    HW159284   6.428   2.746  13.198  0.0037  0.9724 -1.4701
82435SOL    HW259285   6.516   2.867  13.217 -0.0147  0.9830 -1.4543
82436SOL     OW59286   8.979   2.467   4.401  0.5291  0.2553 -0.4124
82436SOL    HW159287   8.992   2.547   4.350 -0.2907 -1.6339 -3.9127
82436SOL    HW259288   8.899   2.483   4.451 -0.0904  1.3723 -1.6953
82437SOL     OW59289   8.830   6.209  10.395  0.0370  0.2552  0.1730
82437SOL    HW159290   8.748   6.184  10.352  0.8458  0.9019 -1.8532
82437SOL    HW259291   8.889   6.230  10.323  2.1717 -0.6718  1.5749
82438SOL     OW59292   3.042   6.579   5.847 -0.2789 -0.0935  0.3087
82438SOL    HW159293   2.997   6.509   5.895  0.5343  1.5764  3.8433
82438SOL    HW259294   2.983   6.599   5.774 -0.8367 -3.8969 -0.5534
82439SOL     OW59295   8.536  14.038   8.835  0.0093 -0.2830 -0.7924
82439SOL    HW159296   8.543  13.945   8.854  0.3572 -0.5181 -2.0092
82439SOL    HW259297   8.442  14.056   8.837  0.0097  0.0417  2.4720
82440SOL     OW59298  13.672   6.755   7.013  0.1947 -0.1716  0.0977
82440SOL    HW159299  13.599   6.708   7.054  0.5306  0.5403  1.5953
82440SOL    HW259300  13.696   6.822   7.077  0.9688  0.8047 -1.1599
82441SOL     OW59301   2.565   5.389   2.367  0.2490  0.0219  0.4456
82441SOL    HW159302   2.613   5.451   2.421  1.6187 -1.3203  0.8643
82441SOL    HW259303   2.497   5.354   2.424 -2.5110  3.1313 -0.6182
82442SOL     OW59304  12.547  11.621   4.854  0.4259 -0.4080  0.5963
82442SOL    HW159305  12.605  11.635   4.779  0.0069  1.2706  0.5532
82442SOL    HW259306  12.604  11.583   4.921  1.0325 -0.9919 -0.2231
82443SOL     OW59307  13.351  12.688  11.085 -0.4288 -0.5885  0.1184
82443SOL    HW159308  13.337  12.767  11.138  0.3761 -0.2364 -0.1935
82443SOL    HW259309  13.262  12.658  11.065 -0.7445 -0.0213  0.6144
82444SOL     OW59310   0.837   9.097   3.777  0.0219  0.2113 -0.2000
82444SOL    HW159311   0.855   9.004   3.763  1.8223  0.4924  0.0316
82444SOL    HW259312   0.806   9.103   3.868  0.2190 -0.1193 -0.1119
82445SOL     OW59313   1.727   0.114   0.787  0.1611 -0.2182  0.2017
82445SOL    HW159314   1.817   0.123   0.820  0.4206  2.8058 -1.0287
82445SOL    HW259315   1.673   0.159   0.852 -0.7403 -2.9261  1.4993
82446SOL     OW59316   1.294   9.885  12.662 -0.5653  0.2745 -0.7060
82446SOL    HW159317   1.203   9.876  12.693  0.1562 -0.4212  1.3566
82446SOL    HW259318   1.342   9.816  12.707  0.8329 -0.0454 -2.5841
82447SOL     OW59319  12.402   3.955   2.211 -0.1140  0.2047  0.0828
82447SOL    HW159320  12.439   3.869   2.229 -0.6566  0.2351  1.4713
82447SOL    HW259321  12.436   3.979   2.124  2.4362 -0.0950  0.9243
82448SOL     OW59322   4.079  11.508   0.835 -0.2615  0.2710  0.2836
82448SOL    HW159323   4.034  11.545   0.759 -0.7788 -0.7677  0.0620
82448SOL    HW259324   4.055  11.415   0.834 -2.4857  0.6993  3.2507
82449SOL     OW59325   5.418   5.637   4.720  0.2437 -0.3630 -0.2246
82449SOL    HW159326   5.472   5.645   4.799  0.7039 -1.2197 -0.4432
82449SOL    HW259327   5.356   5.710   4.727  1.0269  0.2796  0.3403
82450SOL     OW59328   0.806   5.043  12.943 -0.0134 -0.2106 -0.3460
82450SOL    HW159329   0.832   5.094  13.019 -0.2079  1.6422 -1.4744
82450SOL    HW259330   0.724   5.001  12.969 -1.2393  2.1414 -0.2210
82451SOL     OW59331   8.558  13.694   4.234  0.1698  0.4186 -0.6431
82451SOL    HW159332   8.585  13.785   4.221 -0.8867  0.9329  0.5189
82451SOL    HW259333   8.481  13.683   4.177 -0.5786  0.7185  0.2814
82452SOL     OW59334  10.503   2.209   4.772  0.2642 -0.0665 -0.0079
82452SOL    HW159335  10.505   2.203   4.677 -4.2582  0.4530 -0.3540
82452SOL    HW259336  10.483   2.120   4.802 -0.4230  0.1684  0.2555
82453SOL     OW59337   2.705   8.500  11.757 -0.1317 -0.3596  0.1909
82453SOL    HW159338   2.795   8.482  11.728  0.2670  0.2474  1.0054
82453SOL    HW259339   2.650   8.464  11.688  0.7652  0.6485 -1.0992
82454SOL     OW59340  12.812   2.355  12.723 -0.0483  0.7496  0.0305
82454SOL    HW159341  12.813   2.290  12.793 -1.2241  0.6499 -0.0396
82454SOL    HW259342  12.899   2.396  12.728  2.3368 -3.3192 -2.3018
82455SOL     OW59343  10.512   9.786   9.560  0.0634 -0.3339  0.2220
82455SOL    HW159344  10.485   9.713   9.617 -0.1137 -0.7799 -0.4171
82455SOL    HW259345  10.458   9.859   9.589 -0.5227 -0.7384  0.1868
82456SOL     OW59346   9.909   2.397   8.871 -0.0941 -0.3451 -0.1077
82456SOL    HW159347   9.985   2.340   8.874 -0.2546 -0.7758 -2.2897
82456SOL    HW259348   9.884   2.409   8.962  1.5692 -1.5404  0.5593
82457SOL     OW59349  10.711   0.299   2.758 -0.8204  0.6181 -0.2314
82457SOL    HW159350  10.699   0.393   2.769  0.6253  0.8048 -0.0424
82457SOL    HW259351  10.748   0.289   2.670 -1.7098  0.1418 -0.5652
82458SOL     OW59352   9.108  13.702   8.153 -0.0189  0.6686 -0.3999
82458SOL    HW159353   9.148  13.685   8.067  0.7580  0.1206  0.0486
82458SOL    HW259354   9.165  13.767   8.193  0.5114 -0.1939  0.2880
82459SOL     OW59355   8.208   2.906  10.013 -0.2991  0.1014  0.0941
82459SOL    HW159356   8.287   2.861  10.043 -0.7310 -0.0233  1.0799
82459SOL    HW259357   8.137   2.844  10.029 -0.4989 -0.2371 -1.8168
82460SOL     OW59358  11.886   4.210  10.539  0.2150  0.0545 -0.9526
82460SOL    HW159359  11.939   4.245  10.467 -1.1742  1.2858 -1.4127
82460SOL    HW259360  11.920   4.122  10.552  2.0672  0.6267 -1.5356
82461SOL     OW59361   5.315  10.575   0.454 -0.4534 -0.1814 -0.2700
82461SOL    HW159362   5.257  10.520   0.507  1.1745 -0.6108  1.1763
82461SOL    HW259363   5.368  10.512   0.404  1.0171  0.0027  0.9537
82462SOL     OW59364  13.422  11.740   7.060 -0.3410 -0.1067  0.2581
82462SOL    HW159365  13.331  11.762   7.077 -0.1801  0.9600 -0.1778
82462SOL    HW259366  13.445  11.792   6.983  0.0662 -1.8467 -0.8413
82463SOL     OW59367  12.150  11.294  10.039 -0.7587  0.2118  0.3239
82463SOL    HW159368  12.123  11.329  10.124  1.0748  0.0332  1.0212
82463SOL    HW259369  12.081  11.230  10.017 -1.0519 -0.0445  1.8711
82464SOL     OW59370   4.141   4.746   2.399  0.2378 -0.0023  0.0516
82464SOL    HW159371   4.161   4.816   2.336 -1.7577 -0.0166 -0.6647
82464SOL    HW259372   4.226   4.726   2.439  1.2038  1.4864 -1.0961
82465SOL     OW59373   8.490  12.689  10.480 -0.5775  0.3166  0.0658
82465SOL    HW159374   8.507  12.623  10.413  4.1070  0.4209  0.7634
82465SOL    HW259375   8.512  12.772  10.437  0.0393  0.6453  0.9958
82466SOL     OW59376   4.463   6.634   9.062  0.0088 -0.5435  0.8635
82466SOL    HW159377   4.448   6.553   9.013 -0.2176  0.2067 -0.3529
82466SOL    HW259378   4.381   6.683   9.054  1.4246  1.6885 -2.1715
82467SOL     OW59379  11.308   3.683  13.044  0.5003  0.2073 -0.4342
82467SOL    HW159380  11.267   3.725  12.969  1.1266 -1.2323 -1.6285
82467SOL    HW259381  11.275   3.593  13.042  0.4975  0.1545  1.0537
82468SOL     OW59382   4.784  13.238   4.665  0.1670 -0.4216 -0.2587
82468SOL    HW159383   4.773  13.295   4.589 -0.8220 -1.3739 -0.8454
82468SOL    HW259384   4.701  13.244   4.712  0.4805 -0.4765  0.3175
82469SOL     OW59385   6.560   2.996  10.409  0.5199 -0.1579 -0.1360
82469SOL    HW159386   6.606   2.917  10.379  2.4543  1.9257 -3.1982
82469SOL    HW259387   6.629   3.050  10.448 -0.6819  0.2993  1.4423
82470SOL     OW59388   7.655   7.752   7.282 -0.0894 -0.2731  0.1263
82470SOL    HW159389   7.589   7.803   7.236  0.5609  0.4923  0.0263
82470SOL    HW259390   7.608   7.674   7.313 -0.5952 -0.6963 -1.6156
82471SOL     OW59391  10.937  12.232   6.955 -0.0715 -0.3006 -0.2088
82471SOL    HW159392  10.950  12.288   7.031 -1.0926  0.6423 -0.6928
82471SOL    HW259393  10.992  12.270   6.886  0.2973 -0.7247 -0.1539
82472SOL     OW59394   7.141   4.618  10.020 -0.4885  0.2869  0.1366
82472SOL    HW159395   7.202   4.666   9.964 -0.2130 -0.9681 -0.6939
82472SOL    HW259396   7.055   4.637   9.983 -0.7309  2.6090  1.7244
82473SOL     OW59397  12.055  13.478   2.315 -0.2606  0.0702 -0.8624
82473SOL    HW159398  12.134  13.435   2.283  0.9455  1.1529  0.4960
82473SOL    HW259399  12.086  13.539   2.382 -2.3467 -0.0624  0.3256
82474SOL     OW59400   5.251  11.316   1.525  0.6366 -0.2658  0.1411
82474SOL    HW159401   5.287  11.350   1.606  0.1911  1.2553 -0.2644
82474SOL    HW259402   5.168  11.362   1.514  0.6697 -0.4588 -1.1385
82475SOL     OW59403   0.229   1.100   2.012 -0.0277  0.1594  0.2525
82475SOL    HW159404   0.148   1.144   2.039 -0.2188 -0.1818  0.2394
82475SOL    HW259405   0.251   1.042   2.085  1.1862  1.5484  1.0458
82476SOL     OW59406   6.331   6.275   1.924  0.0498  0.2795 -0.0695
82476SOL    HW159407   6.421   6.246   1.906  0.7692  1.1735  1.7983
82476SOL    HW259408   6.313   6.242   2.012 -0.1454  2.9730  0.9943
82477SOL     OW59409   2.065   6.547  13.736  0.2509  0.2443  0.0497
82477SOL    HW159410   2.105   6.460  13.732 -0.4572 -0.1112  0.6249
82477SOL    HW259411   2.129   6.601  13.783  0.2090 -0.2421  0.6726
82478SOL     OW59412   7.498  13.884  13.761  0.0674  0.3521  0.0588
82478SOL    HW159413   7.465  13.859  13.848  2.5789 -0.5512  0.8532
82478SOL    HW259414   7.587  13.849  13.759  0.2341  0.7610 -2.7417
82479SOL     OW59415   5.354   9.407   3.994 -0.2281  0.2208 -0.4808
82479SOL    HW159416   5.348   9.314   3.973 -2.0928 -0.1837  1.4817
82479SOL    HW259417   5.422   9.441   3.935 -0.6770 -2.0026 -2.4334
82480SOL     OW59418  10.159   2.766   1.520  0.6170  0.4053 -0.8935
82480SOL    HW159419  10.206   2.695   1.563 -1.0138 -0.5840 -0.6975
82480SOL    HW259420  10.182   2.757   1.428 -0.3323 -1.0143 -1.0207
82481SOL     OW59421   3.259   6.584  12.130 -0.0260 -0.1501  0.4405
82481SOL    HW159422   3.338   6.609  12.082  0.4810  1.4550  2.0038
82481SOL    HW259423   3.269   6.490  12.145  2.0177  0.1471  1.2846
82482SOL     OW59424  13.056   0.371   0.371 -0.0950 -0.3175 -0.2924
82482SOL    HW159425  13.004   0.312   0.317  0.7300 -0.9367 -0.4371
82482SOL    HW259426  13.073   0.322   0.452 -2.3542  1.0552  1.1073
82483SOL     OW59427  12.874   3.536   2.260 -0.1473 -0.1010  0.3347
82483SOL    HW159428  12.965   3.546   2.290 -0.7901  0.1231  2.3419
82483SOL    HW259429  12.836   3.473   2.322 -1.3831 -0.1236 -0.4322
82484SOL     OW59430  11.347   2.017  13.379 -0.1697  0.3905  0.3439
82484SOL    HW159431  11.400   2.097  13.390  1.8476 -1.0385  1.7327
82484SOL    HW259432  11.388   1.971  13.306 -1.4911  0.7023 -0.6296
82485SOL     OW59433   1.170  13.916   7.209  0.1901  0.9672 -0.0760
82485SOL    HW159434   1.097  13.963   7.249  0.1434  1.6125 -0.8906
82485SOL    HW259435   1.248  13.961   7.242  0.2580 -0.1335  1.3068
82486SOL     OW59436   6.432   6.116   0.898  1.0223  0.3007  0.1916
82486SOL    HW159437   6.353   6.154   0.860  0.1663 -1.2242  0.3855
82486SOL    HW259438   6.504   6.164   0.857  0.0620  0.3399 -1.5360
82487SOL     OW59439   0.551   6.373   0.514  0.7619  1.0377 -0.3247
82487SOL    HW159440   0.564   6.396   0.422 -2.2940 -0.5023 -1.2730
82487SOL    HW259441   0.472   6.319   0.514  0.3730  1.3902  3.2898
82488SOL     OW59442  12.877   3.707   6.629 -0.2456  0.3336  0.0248
82488SOL    HW159443  12.788   3.672   6.625 -0.3269  0.5485 -0.0468
82488SOL    HW259444  12.892   3.745   6.542  0.0326  0.0142 -0.0707
82489SOL     OW59445   6.473  10.913   7.353  0.3553 -0.2543 -0.1916
82489SOL    HW159446   6.503  10.865   7.276  0.2856 -3.1268  1.4435
82489SOL    HW259447   6.425  10.848   7.405  0.5397  1.4989  2.3579
82490SOL     OW59448   8.824   5.550  13.918 -0.0694 -0.5320 -0.1507
82490SOL    HW159449   8.747   5.589  13.961  0.8937 -0.6001  1.7710
82490SOL    HW259450   8.899   5.593  13.960  0.9699 -0.4713 -1.9811
82491SOL     OW59451   7.288  13.717   0.871 -0.3093  0.3710  0.2374
82491SOL    HW159452   7.347  13.754   0.805  0.6287  0.3904  1.0654
82491SOL    HW259453   7.216  13.780   0.877  0.6022  1.4044  0.6652
82492SOL     OW59454  10.876   7.927   2.617 -0.0528  0.1629  0.3521
82492SOL    HW159455  10.952   7.886   2.658 -0.2833  0.0685  0.6867
82492SOL    HW259456  10.868   7.882   2.533  1.7753  1.8659 -0.8348
82493SOL     OW59457  12.725   6.392   8.179  0.3793  0.1048 -0.6830
82493SOL    HW159458  12.759   6.463   8.125  0.9055 -1.1779 -2.1158
82493SOL    HW259459  12.748   6.312   8.131 -0.8462 -1.0074  0.4911
82494SOL     OW59460   7.874  13.481   0.375 -0.2313 -0.0853 -0.0299
82494SOL    HW159461   7.784  13.455   0.355 -1.0320  3.2234 -1.4087
82494SOL    HW259462   7.888  13.453   0.465 -1.9255 -2.2846 -0.3453
82495SOL     OW59463  12.445  13.091   2.210  0.2178 -0.1313 -0.5711
82495SOL    HW159464  12.491  13.151   2.151  1.4815  1.9784  2.3163
82495SOL    HW259465  12.515  13.042   2.253 -0.5569 -0.5466  0.2362
82496SOL     OW59466   9.089   0.968  11.769 -0.3194 -0.2761 -0.0633
82496SOL    HW159467   9.040   0.979  11.851  0.3637  1.2502  0.1902
82496SOL    HW259468   9.166   0.916  11.794 -1.2386 -1.7688 -0.2434
82497SOL     OW59469   1.931   5.602   5.806 -0.1485 -0.1459 -0.2950
82497SOL    HW159470   1.923   5.507   5.815 -1.7220  0.0359  0.5843
82497SOL    HW259471   1.872   5.624   5.734  1.2951  0.0420 -1.4672
82498SOL     OW59472  13.071   1.856  11.972  0.1639  0.0594  0.0200
82498SOL    HW159473  13.033   1.934  12.014 -1.2316  0.9614 -2.6630
82498SOL    HW259474  13.000   1.792  11.971  1.2177 -1.2329  1.9448
82499SOL     OW59475  10.990   9.316   9.298  0.5486  0.0354 -0.3631
82499SOL    HW159476  11.016   9.397   9.341  0.0498  1.4572 -2.5661
82499SOL    HW259477  10.894   9.320   9.295  0.3066 -1.9715  1.8315
82500SOL     OW59478  10.717   5.226   0.390  0.2175  0.3153  0.3922
82500SOL    HW159479  10.773   5.242   0.315  0.6377  2.9088  1.1572
82500SOL    HW259480  10.629   5.249   0.361  0.1964  0.1989  0.3646
82501SOL     OW59481   9.786  13.386   5.691 -0.3657  0.3837  0.3930
82501SOL    HW159482   9.785  13.308   5.636  1.7498 -0.5473  1.5140
82501SOL    HW259483   9.870  13.428   5.671 -0.9947  1.7862  0.6019
82502SOL     OW59484   4.242   3.666   8.443 -0.0847 -0.0784  0.0169
82502SOL    HW159485   4.284   3.635   8.523 -0.9051 -1.6796 -0.1285
82502SOL    HW259486   4.247   3.591   8.383  0.8971  1.2285 -1.6023
82503SOL     OW59487   8.595  12.733   5.213 -0.3063 -0.0284 -0.4240
82503SOL    HW159488   8.586  12.665   5.280 -0.4400 -0.0178 -0.4307
82503SOL    HW259489   8.506  12.764   5.197 -0.1897  0.5548  0.0050
82504SOL     OW59490   0.629   3.064   4.897 -0.0608 -0.5693 -0.3341
82504SOL    HW159491   0.616   3.058   4.992  0.3315 -0.5410 -0.2773
82504SOL    HW259492   0.543   3.087   4.863 -0.1020 -0.1090  0.0599
82505SOL     OW59493   5.692   4.124  11.788  0.1029  0.4621 -0.3079
82505SOL    HW159494   5.605   4.160  11.769  0.6328  2.7589  1.2624
82505SOL    HW259495   5.740   4.134  11.706 -0.3915  1.5176 -0.4896
82506SOL     OW59496   6.147   7.746   2.415  0.3377 -0.3237 -0.3155
82506SOL    HW159497   6.074   7.689   2.389 -0.3777  1.5795 -2.8334
82506SOL    HW259498   6.107   7.833   2.425  1.6563  0.1058  1.9973
82507SOL     OW59499   5.744   2.446  10.166 -0.3087 -0.2855 -0.1373
82507SOL    HW159500   5.671   2.501  10.196 -0.2519  0.7938 -1.8871
82507SOL    HW259501   5.711   2.404  10.087  0.6126 -0.6258 -0.3440
82508SOL     OW59502   9.684  13.979  11.409  0.2769 -0.0004 -0.3960
82508SOL    HW159503   9.608  13.999  11.355  0.6806  0.1057 -0.9354
82508SOL    HW259504   9.736  13.919  11.356 -0.2783 -1.4809  0.6791
82509SOL     OW59505   6.984  10.994   9.180  0.0924  0.5443  0.0708
82509SOL    HW159506   7.015  11.020   9.266 -2.5521  2.3507  0.6213
82509SOL    HW259507   6.997  11.072   9.125 -0.1310  0.1111 -0.6187
82510SOL     OW59508   0.101  10.290   1.688  0.1515  0.2165 -0.2189
82510SOL    HW159509   0.122  10.360   1.749 -0.7801  1.4079 -1.2136
82510SOL    HW259510   0.122  10.326   1.601 -0.9368 -0.4809 -0.7965
82511SOL     OW59511   1.928   1.285   6.383 -0.5061  0.0789  0.0111
82511SOL    HW159512   1.834   1.287   6.370 -0.5482  0.8060  0.3782
82511SOL    HW259513   1.961   1.361   6.335 -0.0868 -0.2777 -0.2723
82512SOL     OW59514   5.769   3.533  11.611  0.1221  0.6296  0.1049
82512SOL    HW159515   5.843   3.475  11.599  0.7406  1.1550  1.2343
82512SOL    HW259516   5.804   3.607  11.660 -0.4693  2.3282 -1.8593
82513SOL     OW59517   5.386   2.679   4.411 -0.5789  0.3551 -0.3272
82513SOL    HW159518   5.367   2.738   4.483  2.0988 -0.0930  0.8613
82513SOL    HW259519   5.392   2.735   4.334 -2.2721  0.9950 -0.0374
82514SOL     OW59520   6.151   5.000   1.307 -0.0060 -0.2274 -0.4373
82514SOL    HW159521   6.120   5.001   1.217 -0.7839  0.2128 -0.1741
82514SOL    HW259522   6.081   4.958   1.357 -0.4507  1.2587  0.2431
82515SOL     OW59523  13.516   5.537   3.337 -0.4105  0.6260 -0.3461
82515SOL    HW159524  13.439   5.588   3.313 -0.3655  0.0241 -1.8801
82515SOL    HW259525  13.541   5.492   3.257  1.1543  0.2897  0.2891
82516SOL     OW59526   9.821  10.233   5.962 -0.3280  0.2649 -0.6461
82516SOL    HW159527   9.804  10.296   5.891  0.2200  1.4089  0.1985
82516SOL    HW259528   9.737  10.221   6.005 -0.3704  0.6925 -0.6069
82517SOL     OW59529   8.983  13.956   6.739 -0.3524 -0.1415 -0.4925
82517SOL    HW159530   8.912  14.009   6.776 -0.0780 -0.5889  0.7232
82517SOL    HW259531   8.950  13.929   6.653 -1.1363  0.6840 -0.4695
82518SOL     OW59532   6.130   1.567   6.619 -0.4611 -0.2145  0.0398
82518SOL    HW159533   6.198   1.521   6.667  0.5232  0.1040 -1.0265
82518SOL    HW259534   6.173   1.602   6.541 -1.4116  1.5713  0.2547
82519SOL     OW59535  12.576   2.390   6.158 -0.1653 -0.1378  0.0098
82519SOL    HW159536  12.572   2.296   6.144 -1.2165 -0.3968  1.7775
82519SOL    HW259537  12.487   2.420   6.140 -0.1175  0.3444  0.5588
82520SOL     OW59538   4.825   7.445   5.095 -0.6267 -0.5332 -0.3348
82520SOL    HW159539   4.882   7.379   5.135 -0.2254 -0.0279 -0.0670
82520SOL    HW259540   4.737   7.416   5.118 -0.4178 -0.4277  0.6696
82521SOL     OW59541   4.064  12.760  10.808  0.9352  0.1851 -0.0437
82521SOL    HW159542   4.149  12.778  10.849  1.6580 -0.6416 -1.1453
82521SOL    HW259543   4.001  12.811  10.860  2.3068  2.2172 -0.2638
82522SOL     OW59544   1.160  13.287   6.166 -0.0356 -0.0407  0.0803
82522SOL    HW159545   1.247  13.248   6.171  0.0948 -0.1883 -2.3394
82522SOL    HW259546   1.118  13.261   6.248  2.6207  1.2570  1.9953
82523SOL     OW59547  12.691   3.184  13.191 -0.0751  0.3777 -0.3343
82523SOL    HW159548  12.712   3.208  13.100  0.5321 -0.0151 -0.3053
82523SOL    HW259549  12.684   3.268  13.236  0.3065  0.5573 -0.6025
82524SOL     OW59550   1.034   6.010  10.129 -0.0863 -0.1831 -0.2040
82524SOL    HW159551   1.037   5.931  10.184  1.2578 -0.7302 -0.9977
82524SOL    HW259552   0.997   5.980  10.046  1.3718 -0.2622 -0.8680
82525SOL     OW59553   9.929   9.969   9.029 -0.1202 -0.5150  0.2309
82525SOL    HW159554   9.889   9.892   9.071 -2.5235  0.0411 -0.8913
82525SOL    HW259555   9.905   9.961   8.937  1.1320  0.6867 -0.2222
82526SOL     OW59556  11.604   4.780   1.369 -0.0412 -0.4410  0.2508
82526SOL    HW159557  11.548   4.808   1.297  1.8183  0.5120 -0.9041
82526SOL    HW259558  11.684   4.747   1.326  0.1693 -2.1291  1.8095
82527SOL     OW59559   4.296   6.569   1.378  0.7381  0.1156  0.0294
82527SOL    HW159560   4.237   6.494   1.387  0.2395  0.6890  2.0950
82527SOL    HW259561   4.263   6.615   1.301 -1.1009  0.0224  0.7001
82528SOL     OW59562  13.958  13.674  12.023 -0.0187  0.3324  0.6273
82528SOL    HW159563  13.938  13.766  12.042  1.6149  0.8846 -0.1503
82528SOL    HW259564  13.914  13.656  11.940 -0.1506  0.4773  0.6653
82529SOL     OW59565   8.441  11.336   6.515 -0.4425  0.6524 -0.1740
82529SOL    HW159566   8.425  11.429   6.531  2.6751  1.4948 -1.2531
82529SOL    HW259567   8.511  11.313   6.576 -1.9343 -1.3526  0.8729
82530SOL     OW59568   4.638   0.441   4.183 -0.6534  0.1877  0.5717
82530SOL    HW159569   4.631   0.431   4.278  1.5570 -1.2915  0.6490
82530SOL    HW259570   4.684   0.362   4.154 -1.7382  0.3617 -1.8222
82531SOL     OW59571   5.245   3.863   6.026  0.3485 -0.2978  0.0895
82531SOL    HW159572   5.247   3.768   6.035 -1.1757 -0.1612  3.1497
82531SOL    HW259573   5.316   3.894   6.083 -0.5674  0.4170  0.8674
82532SOL     OW59574   2.478  13.452   9.597 -0.4577 -0.8559  0.3015
82532SOL    HW159575   2.407  13.494   9.645  0.3648  1.1262 -0.1218
82532SOL    HW259576   2.558  13.495   9.628  0.4073 -1.9303 -0.3591
82533SOL     OW59577   1.255   5.152   6.414  0.0168  0.6648 -0.2978
82533SOL    HW159578   1.239   5.218   6.346 -2.7420  0.6652  0.2545
82533SOL    HW259579   1.178   5.095   6.411 -0.0076  0.4369  2.5408
82534SOL     OW59580   0.597   9.184   7.579  0.6996 -0.1144  0.3199
82534SOL    HW159581   0.621   9.276   7.583  0.4673 -0.0847  1.3038
82534SOL    HW259582   0.511   9.180   7.621 -0.7569 -0.3255 -2.4102
82535SOL     OW59583  12.427   8.355   4.258 -0.0177 -0.4698  0.3840
82535SOL    HW159584  12.505   8.412   4.254 -1.0855  1.1007  0.9454
82535SOL    HW259585  12.434   8.311   4.343  0.3354 -0.4654  0.3595
82536SOL     OW59586   8.285   5.395   6.662 -0.5431 -0.9225 -0.1918
82536SOL    HW159587   8.319   5.371   6.749 -0.7839 -1.6968 -0.3023
82536SOL    HW259588   8.200   5.434   6.680  0.0596  0.3605  0.0292
82537SOL     OW59589  12.544   9.647   1.492  0.6108  0.2361  0.5134
82537SOL    HW159590  12.568   9.740   1.492 -0.8395  0.6497 -0.9662
82537SOL    HW259591  12.577   9.614   1.409  0.7129 -0.4811  0.8276
82538SOL     OW59592   8.090   0.423   6.474  0.2583  0.5287  0.1057
82538SOL    HW159593   8.169   0.442   6.423 -0.4367 -0.9522 -1.6460
82538SOL    HW259594   8.049   0.508   6.488  2.7229  1.4883  2.1374
82539SOL     OW59595   3.741   3.726   2.372  0.1528  0.1190  0.1374
82539SOL    HW159596   3.654   3.746   2.405 -1.0245 -0.6097 -2.2686
82539SOL    HW259597   3.743   3.630   2.364  1.3666  0.0803  0.6167
82540SOL     OW59598   4.939   2.231   2.443  0.2489  0.2416 -0.4932
82540SOL    HW159599   5.020   2.261   2.403  0.9301 -2.1990 -1.0838
82540SOL    HW259600   4.922   2.146   2.403 -1.1244 -0.5486  1.6037
82541SOL     OW59601   5.832   2.231  11.791 -0.4389  0.1227 -0.7419
82541SOL    HW159602   5.818   2.136  11.786  1.8285 -0.5425  2.5295
82541SOL    HW259603   5.924   2.243  11.767 -0.5931  1.4875 -0.7416
82542SOL     OW59604   9.348   2.264   4.327  0.2429 -0.3518  0.1522
82542SOL    HW159605   9.392   2.179   4.325 -1.0418 -1.0446  0.1905
82542SOL    HW259606   9.379   2.305   4.407  1.9081 -0.1891 -0.5364
82543SOL     OW59607   9.704   8.248   5.109 -0.5325  0.4473  0.3608
82543SOL    HW159608   9.727   8.333   5.149 -0.9809  0.1275  1.3298
82543SOL    HW259609   9.625   8.221   5.155 -0.8050 -0.1638 -0.4523
82544SOL     OW59610   3.539   4.583  12.724  0.2264  0.1435 -0.0217
82544SOL    HW159611   3.487   4.533  12.788 -1.1878  0.7775 -0.6161
82544SOL    HW259612   3.473   4.619  12.664  1.5305 -0.7237 -2.0575
82545SOL     OW59613   2.596   8.135  13.752  0.0798  0.6549  0.3178
82545SOL    HW159614   2.617   8.043  13.732 -3.3044 -0.2346  0.3096
82545SOL    HW259615   2.595   8.178  13.666 -1.1530 -0.0060 -0.0146
82546SOL     OW59616   0.939   9.876  11.625 -0.2193 -0.0860 -0.3328
82546SOL    HW159617   0.976   9.916  11.704  0.3058  0.0283 -0.6331
82546SOL    HW259618   0.885   9.804  11.658 -0.1204  0.0484  0.1374
82547SOL     OW59619   2.233   6.627  10.543  0.1220  0.0977  0.1070
82547SOL    HW159620   2.277   6.543  10.525 -1.0761 -0.7034  0.7734
82547SOL    HW259621   2.174   6.608  10.616 -0.0069  1.5969  0.4211
82548SOL     OW59622   7.119   8.259  13.210 -0.2824 -0.2134 -0.7686
82548SOL    HW159623   7.057   8.332  13.218 -0.0864 -0.2525  2.0457
82548SOL    HW259624   7.201   8.293  13.245  0.5718 -1.0119 -1.9282
82549SOL     OW59625   3.585   0.253   7.249  0.5411  0.2129  0.0203
82549SOL    HW159626   3.623   0.193   7.313 -0.2193  0.8076  1.0554
82549SOL    HW259627   3.660   0.284   7.197  1.0773 -0.7740  0.1841
82550SOL     OW59628  13.504   9.938   1.597 -0.0559  0.1408 -0.2319
82550SOL    HW159629  13.459   9.987   1.528 -0.0793 -0.9439 -1.0192
82550SOL    HW259630  13.434   9.912   1.657 -0.1057  0.6692 -0.0592
82551SOL     OW59631  13.127  12.846   1.850  0.9315  0.0570  0.5288
82551SOL    HW159632  13.096  12.913   1.910 -1.4806 -0.3014 -0.2382
82551SOL    HW259633  13.139  12.768   1.905 -0.1186  0.0504  0.7608
82552SOL     OW59634  12.202  11.901   9.217  0.4350 -0.3110  0.1841
82552SOL    HW159635  12.291  11.870   9.233  0.4864 -0.6508 -0.7424
82552SOL    HW259636  12.160  11.831   9.168  0.3573  0.7769 -1.3672
82553SOL     OW59637   0.534   9.901  12.784  0.2976 -0.3865 -0.7325
82553SOL    HW159638   0.595   9.831  12.764  1.2973  0.3903 -0.4523
82553SOL    HW259639   0.512   9.888  12.877 -0.8258 -1.2948 -1.0946
82554SOL     OW59640   1.677  12.637  10.550 -0.1921 -0.1384 -0.3293
82554SOL    HW159641   1.734  12.625  10.475 -1.0815 -0.7001 -0.9363
82554SOL    HW259642   1.694  12.561  10.607 -1.7122 -1.4056 -1.4569
82555SOL     OW59643   9.876   8.508   3.767  0.0375  0.2044 -0.0319
82555SOL    HW159644   9.966   8.507   3.801 -0.0555  0.6612  0.2351
82555SOL    HW259645   9.821   8.496   3.844 -0.1286 -0.1904 -0.2099
82556SOL     OW59646   1.416  11.902   4.371 -0.1454 -0.5687 -0.2706
82556SOL    HW159647   1.430  11.885   4.465  1.6768 -0.6418 -0.5110
82556SOL    HW259648   1.498  11.942   4.342 -1.4307  1.3737 -1.4272
82557SOL     OW59649   7.297  10.448   4.007  0.9606 -0.0443  0.0985
82557SOL    HW159650   7.350  10.403   4.073  0.0352 -0.1122  0.8171
82557SOL    HW259651   7.207  10.423   4.028  0.5988  0.5234 -0.7469
82558SOL     OW59652  11.791   2.958  14.002 -0.6120  0.4736  0.3586
82558SOL    HW159653  11.772   3.026  13.938 -0.2782 -0.1201 -0.3783
82558SOL    HW259654  11.743   2.881  13.971 -0.1559  0.0771  0.6187
82559SOL     OW59655   6.920   6.155   1.141  0.1111  0.0454 -0.1518
82559SOL    HW159656   6.881   6.089   1.198 -1.6202 -0.3457 -1.6837
82559SOL    HW259657   6.959   6.218   1.201  1.8240 -2.2881  1.3764
82560SOL     OW59658   7.461   4.868   2.096 -0.8035  0.0136 -0.0149
82560SOL    HW159659   7.455   4.844   2.003 -2.4080 -0.1517  0.1046
82560SOL    HW259660   7.454   4.785   2.143  1.8970 -0.1429  0.2739
82561SOL     OW59661   4.412   1.522   1.445 -0.0457 -0.0598  0.0696
82561SOL    HW159662   4.341   1.512   1.382  0.6233  2.4670 -1.1761
82561SOL    HW259663   4.368   1.550   1.526 -0.5493  0.7912 -0.4850
82562SOL     OW59664   7.691   8.678  11.323 -0.4632  0.7813 -0.3572
82562SOL    HW159665   7.743   8.655  11.246 -0.6932 -1.3394  0.0448
82562SOL    HW259666   7.713   8.611  11.388 -1.6967  1.4037  0.7641
82563SOL     OW59667   2.901   2.019   8.217 -0.0204 -0.1872  0.3524
82563SOL    HW159668   2.849   1.979   8.286  1.1033 -0.2496  1.1839
82563SOL    HW259669   2.851   2.097   8.191 -1.2193 -1.0053  0.1313
82564SOL     OW59670   1.801   2.345   2.974  0.1460 -0.5741 -0.8190
82564SOL    HW159671   1.719   2.301   2.954 -0.5980  0.7599 -0.8381
82564SOL    HW259672   1.807   2.343   3.070  1.0082 -2.2347 -0.8822
82565SOL     OW59673   7.345   9.898  13.117  0.7060 -0.4519 -0.2798
82565SOL    HW159674   7.367   9.906  13.210  0.8933  0.2396 -0.3840
82565SOL    HW259675   7.319   9.806  13.107  2.1559 -0.9365  0.1475
82566SOL     OW59676   5.855  10.349  13.746 -0.1622 -0.0778  0.4359
82566SOL    HW159677   5.825  10.372  13.657  0.3158  0.3314  0.3784
82566SOL    HW259678   5.861  10.433  13.791 -0.4636 -0.2923  0.8794
82567SOL     OW59679  14.012   6.519  12.964 -0.7144 -0.0330 -0.6981
82567SOL    HW159680  13.923   6.484  12.970 -0.2629 -0.9987  0.7650
82567SOL    HW259681  14.055   6.491  13.044  0.1984  2.5168 -0.1835
82568SOL     OW59682   9.260   6.571   5.273 -0.4205  0.0526  0.6147
82568SOL    HW159683   9.310   6.494   5.247 -0.5702  0.0383  0.3672
82568SOL    HW259684   9.301   6.599   5.355  2.3871  2.1543 -1.2997
82569SOL     OW59685   9.814   8.734  13.098  0.1963 -0.0121  0.6139
82569SOL    HW159686   9.791   8.756  13.008 -1.0657  0.9749  1.1551
82569SOL    HW259687   9.737   8.759  13.150 -0.0237 -2.6303  1.7164
82570SOL     OW59688   3.441   8.080  10.223 -0.4167 -0.3266 -0.0288
82570SOL    HW159689   3.364   8.063  10.169  0.2196 -0.0291 -1.0453
82570SOL    HW259690   3.512   8.031  10.181  0.4517  1.2420 -0.4413
82571SOL     OW59691   2.733   3.706   0.644  0.6798 -0.3041  1.2721
82571SOL    HW159692   2.715   3.613   0.662  1.5660 -0.6144  0.6643
82571SOL    HW259693   2.647   3.746   0.637  0.2363 -1.3692  0.1623
82572SOL     OW59694   7.402   6.223   1.276 -0.5866 -0.0133 -0.7659
82572SOL    HW159695   7.453   6.268   1.344  0.2915 -1.6869 -0.2785
82572SOL    HW259696   7.405   6.283   1.201  1.8046  0.1501 -0.6311
82573SOL     OW59697   9.858   0.971   4.784  0.0700 -0.1242  0.4269
82573SOL    HW159698   9.893   0.890   4.821  0.3054  0.6286  1.8922
82573SOL    HW259699   9.777   0.945   4.740  0.3311 -1.2007  0.5735
82574SOL     OW59700   1.773   0.794   0.608  0.5784 -0.0015  0.3231
82574SOL    HW159701   1.734   0.728   0.549 -0.1301 -0.6202  1.4409
82574SOL    HW259702   1.710   0.801   0.680  0.2018  2.5587 -0.1673
82575SOL     OW59703  10.593   7.329   5.882 -0.7534  0.5730  0.2401
82575SOL    HW159704  10.676   7.291   5.853 -0.9965 -0.0043  0.2970
82575SOL    HW259705  10.604   7.423   5.869  0.4348  0.6439  1.5667
82576SOL     OW59706  13.362   9.355   2.966 -0.2552  0.2995 -0.4017
82576SOL    HW159707  13.299   9.422   2.940  1.1718  1.9948  0.2595
82576SOL    HW259708  13.421   9.347   2.890  0.5247  1.0248  0.1045
82577SOL     OW59709   3.158   2.671   0.656  0.9517  0.2189  0.5743
82577SOL    HW159710   3.235   2.637   0.610  1.3002 -0.3227  1.5222
82577SOL    HW259711   3.086   2.616   0.626  1.2650 -0.4516  1.0186
82578SOL     OW59712   4.246  13.783  13.013 -0.3195  0.4398 -0.1945
82578SOL    HW159713   4.158  13.813  13.037  0.0034  1.1254  0.1596
82578SOL    HW259714   4.243  13.688  13.027 -0.5677  0.6296  1.2284
82579SOL     OW59715   8.360   4.573  10.373  0.2939  0.1167  0.1711
82579SOL    HW159716   8.419   4.522  10.317 -0.0174 -0.1063  0.0370
82579SOL    HW259717   8.281   4.519  10.378  0.2573  0.2191  0.6870
82580SOL     OW59718  13.115   7.467   3.943 -0.0259 -0.3641  0.0652
82580SOL    HW159719  13.089   7.402   4.009 -1.5870 -0.1674 -0.3332
82580SOL    HW259720  13.168   7.417   3.881  0.9016 -0.6983  1.0824
82581SOL     OW59721  10.889   1.585   9.589 -0.2596 -0.2007 -0.0811
82581SOL    HW159722  10.977   1.616   9.565 -1.7724  2.3564 -3.0220
82581SOL    HW259723  10.873   1.511   9.531 -0.8441  0.8142 -1.2651
82582SOL     OW59724  11.311   0.115   4.680  0.3312 -0.0026 -0.0664
82582SOL    HW159725  11.241   0.156   4.731 -0.0722  0.5304 -1.0282
82582SOL    HW259726  11.291   0.137   4.589  1.8284  0.2691 -0.3515
82583SOL     OW59727  11.858   2.560   1.050  0.2856  0.2117  0.0753
82583SOL    HW159728  11.800   2.527   0.981  0.5258  1.1760 -0.6138
82583SOL    HW259729  11.830   2.651   1.063 -0.4192 -0.2274  1.9825
82584SOL     OW59730   9.628   9.373   8.663 -0.0218  0.3544  0.1685
82584SOL    HW159731   9.537   9.355   8.637 -0.1760  0.4873  0.6042
82584SOL    HW259732   9.680   9.345   8.588 -0.3124 -1.1039  0.4636
82585SOL     OW59733   3.489  10.135   0.523 -0.2451  1.1442  0.2911
82585SOL    HW159734   3.513  10.188   0.447  0.6421  1.0001  0.4634
82585SOL    HW259735   3.400  10.164   0.544 -0.1168  1.9237 -0.1663
82586SOL     OW59736   0.934   1.377   2.010  0.2860 -0.0644  0.0763
82586SOL    HW159737   0.995   1.321   1.961  0.2018 -0.9653  0.9641
82586SOL    HW259738   0.979   1.460   2.018  2.2533 -1.2212  2.2645
82587SOL     OW59739   9.844   9.569   1.844 -0.4884 -0.9173 -0.0333
82587SOL    HW159740   9.773   9.619   1.804 -1.3994 -1.4530  0.8710
82587SOL    HW259741   9.918   9.582   1.785 -1.3375 -0.3596 -1.0157
82588SOL     OW59742   9.753   2.364   8.229 -0.0269 -0.9032  0.8705
82588SOL    HW159743   9.762   2.273   8.257 -0.7109 -1.9602 -1.9421
82588SOL    HW259744   9.727   2.358   8.137  1.2125  2.1590  0.1833
82589SOL     OW59745   0.931   1.936  12.642 -0.0794 -0.1023 -0.4018
82589SOL    HW159746   1.016   1.932  12.686  0.0789 -1.0102 -0.7698
82589SOL    HW259747   0.922   1.850  12.600 -1.9760 -0.7094  1.1190
82590SOL     OW59748   2.949  10.236  12.971 -0.1610 -0.0230 -0.0758
82590SOL    HW159749   2.962  10.214  12.878 -0.3639 -1.1369  0.1526
82590SOL    HW259750   2.946  10.332  12.972 -1.9350 -0.0230 -1.4672
82591SOL     OW59751  12.611   9.496  12.249 -0.0505  0.4543 -0.6014
82591SOL    HW159752  12.593   9.519  12.158  0.5381 -1.1967 -1.1741
82591SOL    HW259753  12.525   9.497  12.291 -0.5681 -0.4114 -1.5968
82592SOL     OW59754  10.876  13.859  11.014 -0.2374  0.4185 -0.5955
82592SOL    HW159755  10.813  13.879  11.084  2.0589  2.3186  1.1050
82592SOL    HW259756  10.954  13.829  11.061  0.6211 -0.5220 -2.5396
82593SOL     OW59757   0.307   6.399   7.268 -0.2008  0.0628 -0.2934
82593SOL    HW159758   0.314   6.468   7.202 -0.9144  3.0529  2.4400
82593SOL    HW259759   0.291   6.447   7.350 -1.3546 -3.4477  1.7517
82594SOL     OW59760  12.551   9.040  11.713 -0.4798 -0.6450 -0.5494
82594SOL    HW159761  12.468   9.045  11.760 -1.8827  0.3869 -2.9450
82594SOL    HW259762  12.575   9.131  11.697  1.4275 -0.9062  0.5143
82595SOL     OW59763   0.162  13.380   6.532  0.9015  0.2483 -0.5647
82595SOL    HW159764   0.182  13.389   6.625 -0.5105 -1.8917  0.0358
82595SOL    HW259765   0.211  13.303   6.504  0.8445  0.5171 -1.4330
82596SOL     OW59766   7.076   4.027  13.808 -0.1956 -0.7561  0.3172
82596SOL    HW159767   7.117   4.045  13.892 -1.1017 -0.9798  0.8145
82596SOL    HW259768   7.021   4.103  13.791  0.2983 -0.5231 -0.2783
82597SOL     OW59769  12.992  10.251   9.356 -0.3541 -0.0493  0.1503
82597SOL    HW159770  12.899  10.274   9.363 -0.1224  1.6135 -1.4067
82597SOL    HW259771  12.993  10.172   9.301 -0.8761 -0.6053  0.9225
82598SOL     OW59772  12.523  10.741   8.160  0.1423 -0.2749  0.2158
82598SOL    HW159773  12.570  10.791   8.093 -1.9968 -0.8983 -1.8885
82598SOL    HW259774  12.455  10.801   8.191 -0.4109 -0.7747  0.0042
82599SOL     OW59775  12.612   6.288   3.812 -0.4222  0.0897  0.3454
82599SOL    HW159776  12.628   6.382   3.804  0.6726 -0.0216  0.9493
82599SOL    HW259777  12.535   6.282   3.868 -0.2431  0.6314  0.6644
82600SOL     OW59778  12.873   7.312   3.608 -0.3071 -0.0125  0.1016
82600SOL    HW159779  12.853   7.403   3.631  1.9324  0.5806 -0.0551
82600SOL    HW259780  12.811   7.260   3.659 -0.1202  1.5433  2.0532
82601SOL     OW59781  10.757   8.626  12.839  0.6765  0.1793 -0.0970
82601SOL    HW159782  10.799   8.593  12.760  1.7001  1.5386 -0.1551
82601SOL    HW259783  10.724   8.547  12.883  1.2858 -0.7172 -1.1923
82602SOL     OW59784   3.449   9.176   3.116 -0.3189  0.0200 -0.1063
82602SOL    HW159785   3.395   9.181   3.037  1.7926 -0.8045 -1.6801
82602SOL    HW259786   3.445   9.084   3.141  0.4466 -0.0645 -0.2965
82603SOL     OW59787   8.638  12.833   1.718 -0.0665  0.2724 -0.1737
82603SOL    HW159788   8.670  12.797   1.801  0.2817 -2.6295 -1.4208
82603SOL    HW259789   8.543  12.837   1.727 -0.0432 -0.2201  0.3141
82604SOL     OW59790   2.948   8.222   4.382 -0.0992  0.1661 -0.0189
82604SOL    HW159791   2.858   8.244   4.360  0.5318  0.9992 -2.0168
82604SOL    HW259792   2.997   8.303   4.365  0.9110  0.0873  2.1127
82605SOL     OW59793  12.323  12.410   0.356 -0.3448 -0.2626 -0.2306
82605SOL    HW159794  12.311  12.408   0.261 -0.5268  1.5301 -0.2882
82605SOL    HW259795  12.391  12.477   0.370 -0.9039  0.0957  0.9355
82606SOL     OW59796   8.376   3.474   3.053 -0.5598  0.4483 -0.1023
82606SOL    HW159797   8.341   3.385   3.045  2.5692 -0.9418  0.0175
82606SOL    HW259798   8.340   3.521   2.978  0.1540 -1.8832 -2.0202
82607SOL     OW59799   0.715   1.747   7.188 -0.1018 -0.2520 -0.2285
82607SOL    HW159800   0.713   1.720   7.097 -0.7557  0.2414 -0.3685
82607SOL    HW259801   0.660   1.826   7.191  0.4932  0.1497  0.4498
82608SOL     OW59802  13.948   9.657   6.727  0.2573 -0.2751 -0.1103
82608SOL    HW159803  13.995   9.651   6.810  0.4502 -0.1826 -0.2109
82608SOL    HW259804  13.858   9.632   6.748  0.7945 -2.6482 -0.3308
82609SOL     OW59805   6.195   1.405   8.695  0.1754  0.2985  0.9034
82609SOL    HW159806   6.147   1.373   8.771 -1.1640  0.9274  0.3670
82609SOL    HW259807   6.133   1.398   8.623  1.7127 -1.1943 -0.3794
82610SOL     OW59808   3.450  12.781  11.612  0.2750 -0.0732  0.4967
82610SOL    HW159809   3.404  12.861  11.638 -1.3434 -0.6918 -0.2954
82610SOL    HW259810   3.391  12.739  11.550  2.2465 -0.6023 -1.1349
82611SOL     OW59811   3.039  13.915   4.918 -0.0389 -0.2248 -0.6292
82611SOL    HW159812   3.037  13.906   5.013  0.7803  0.3833 -0.5436
82611SOL    HW259813   2.960  13.964   4.897 -1.6720 -2.6335 -0.5666
82612SOL     OW59814   1.109  12.800   6.189  0.4083  0.2805 -0.3272
82612SOL    HW159815   1.045  12.870   6.176 -0.3813 -0.4465 -0.4386
82612SOL    HW259816   1.138  12.810   6.280  2.8123  2.7864 -1.2213
82613SOL     OW59817   2.286  13.808  11.544  0.2097  0.1778  0.4511
82613SOL    HW159818   2.340  13.735  11.572  0.3591  0.3233  0.5455
82613SOL    HW259819   2.200  13.770  11.526  0.0077  0.1482  1.4735
82614SOL     OW59820   6.801  10.625  12.216 -0.6604  0.1259 -0.4305
82614SOL    HW159821   6.858  10.641  12.142 -1.2932  2.6550 -0.4715
82614SOL    HW259822   6.762  10.710  12.236 -1.1781 -0.6190  2.2681
82615SOL     OW59823  10.631  12.244   5.331  0.6157 -0.2827  0.3557
82615SOL    HW159824  10.558  12.240   5.268 -0.4199 -1.7208  1.5893
82615SOL    HW259825  10.654  12.337   5.334 -1.3868  0.2637  0.1713
82616SOL     OW59826   8.923  13.644  12.221 -0.6909 -0.0757  0.2489
82616SOL    HW159827   8.935  13.699  12.144 -0.6154 -0.0450  0.2833
82616SOL    HW259828   8.975  13.565  12.202 -2.3549 -1.0122 -0.6769
82617SOL     OW59829   7.882   0.437   9.731 -0.1971  0.4356 -0.4098
82617SOL    HW159830   7.975   0.443   9.711 -0.3413 -0.4119 -1.4513
82617SOL    HW259831   7.838   0.457   9.648 -0.8192 -3.2692 -1.1698
82618SOL     OW59832   9.807   5.163   1.454  0.0991 -0.0138 -0.6562
82618SOL    HW159833   9.795   5.243   1.506  1.2377 -0.6040  0.5869
82618SOL    HW259834   9.836   5.194   1.369 -0.0196  0.9240 -0.3691
82619SOL     OW59835   8.052   4.008   4.994 -0.6806 -0.0333  0.2933
82619SOL    HW159836   8.005   4.023   4.912 -0.8905 -0.5626  0.3131
82619SOL    HW259837   8.138   4.047   4.979 -0.9348  0.4662  0.0629
82620SOL     OW59838   8.433   5.235  13.033 -0.5675 -0.4739  0.2038
82620SOL    HW159839   8.385   5.152  13.040  1.5016 -1.6401  1.4245
82620SOL    HW259840   8.365   5.302  13.040 -2.2369 -2.0418 -0.2195
82621SOL     OW59841  11.404  13.680   3.816  0.0148 -0.0016 -0.2618
82621SOL    HW159842  11.311  13.685   3.794  0.2704  0.8847 -1.2431
82621SOL    HW259843  11.445  13.644   3.737  0.8681  2.5452 -1.0924
82622SOL     OW59844   5.275   4.051   3.215 -0.6931  0.2467  0.1717
82622SOL    HW159845   5.333   3.983   3.247 -0.0957  1.0744  0.8989
82622SOL    HW259846   5.328   4.101   3.152 -1.2805 -0.2395 -0.7417
82623SOL     OW59847   0.997   6.221  12.006  0.0609 -0.2955 -0.3574
82623SOL    HW159848   1.029   6.306  11.975  1.1059 -0.7152 -0.4660
82623SOL    HW259849   1.027   6.159  11.940  0.4736 -0.9169  0.3918
82624SOL     OW59850   6.784   3.671   2.782 -0.9363 -0.0434 -0.1882
82624SOL    HW159851   6.810   3.702   2.696  1.2630 -4.2872 -1.3294
82624SOL    HW259852   6.858   3.691   2.839 -0.5504 -0.9074 -0.3635
82625SOL     OW59853  10.794   9.084   3.169  0.2753  0.4163 -0.3575
82625SOL    HW159854  10.754   9.167   3.144 -0.6308  0.7777  1.9913
82625SOL    HW259855  10.871   9.076   3.113  1.5835  3.8581  0.6937
82626SOL     OW59856   6.089   5.868   5.856  0.1482 -0.2702  0.5734
82626SOL    HW159857   6.073   5.804   5.787  1.8933 -0.8622  0.6682
82626SOL    HW259858   6.181   5.857   5.878  0.2373  1.5636  1.3263
82627SOL     OW59859  12.761  12.202   3.663 -0.1114  0.5434 -0.0594
82627SOL    HW159860  12.794  12.246   3.585 -1.5295  0.1764 -0.8947
82627SOL    HW259861  12.790  12.257   3.736 -0.4217  1.9550 -0.9696
82628SOL     OW59862   1.088   3.345  10.913 -0.2975 -0.5545 -0.0479
82628SOL    HW159863   1.127   3.288  10.847 -0.5098 -0.6206 -0.1135
82628SOL    HW259864   0.994   3.333  10.904 -0.3787  0.4026 -0.5972
82629SOL     OW59865   1.575   2.678   2.235  0.7727 -0.1745 -0.5630
82629SOL    HW159866   1.556   2.706   2.146 -0.6853  1.5073  0.2125
82629SOL    HW259867   1.504   2.617   2.257  0.7823 -0.1101 -0.3513
82630SOL     OW59868   2.835   6.733   0.088 -0.0508 -0.3545 -0.3759
82630SOL    HW159869   2.886   6.691   0.018 -2.0518 -2.4041 -0.7480
82630SOL    HW259870   2.785   6.801   0.043  1.1672  0.6396 -0.2764
82631SOL     OW59871   3.293   8.796   0.232  0.2461 -0.1077  0.3331
82631SOL    HW159872   3.221   8.804   0.170  1.3257 -2.2006 -1.3453
82631SOL    HW259873   3.331   8.884   0.236 -1.0977  0.5445 -0.3518
82632SOL     OW59874  10.074   8.465   2.697  0.2919  0.0593  0.3048
82632SOL    HW159875   9.981   8.467   2.718  0.4313 -1.2601  1.1996
82632SOL    HW259876  10.077   8.442   2.605 -0.2641  1.0237  0.0282
82633SOL     OW59877   1.253   5.722   6.111 -0.5503 -0.0460  0.2221
82633SOL    HW159878   1.264   5.636   6.070 -0.0882  0.7775 -1.4928
82633SOL    HW259879   1.294   5.713   6.197  1.8552 -0.8409 -0.9036
82634SOL     OW59880   0.102   6.098  13.380  0.1334 -0.7947 -0.1561
82634SOL    HW159881   0.185   6.101  13.332  0.2100  0.5316  0.0377
82634SOL    HW259882   0.128   6.099  13.472 -0.1086  0.6606 -0.0877
82635SOL     OW59883   3.644   2.917  11.260 -0.2341  0.4812  0.3105
82635SOL    HW159884   3.655   2.998  11.309 -0.8339  0.4837  0.4370
82635SOL    HW259885   3.554   2.890  11.276  0.6659 -1.6553  2.4938
82636SOL     OW59886   1.017   4.472  11.102 -0.1487  0.3282  0.2096
82636SOL    HW159887   1.001   4.544  11.041  1.3294  2.8564  2.5517
82636SOL    HW259888   1.105   4.440  11.079 -0.6604 -0.5394 -0.6020
82637SOL     OW59889   0.458   5.276   2.614  0.2257 -0.2570  0.0700
82637SOL    HW159890   0.440   5.300   2.705  0.9580  0.4467  0.0335
82637SOL    HW259891   0.471   5.359   2.569  0.8610 -0.6432 -0.4693
82638SOL     OW59892   6.183   4.158   4.575  0.0513 -0.2747  0.0874
82638SOL    HW159893   6.095   4.131   4.550 -0.1383  0.6516 -0.2762
82638SOL    HW259894   6.216   4.208   4.500  0.9222 -0.6844  0.1838
82639SOL     OW59895  10.393   1.744   1.973  0.0890 -0.2167 -0.3260
82639SOL    HW159896  10.476   1.749   1.926  0.3019  0.4242  0.1041
82639SOL    HW259897  10.409   1.683   2.045 -0.1794 -1.0434 -0.9495
82640SOL     OW59898   5.813  11.454   5.687 -0.5016  0.5869 -0.1815
82640SOL    HW159899   5.730  11.405   5.689 -0.4065  0.4359  1.1418
82640SOL    HW259900   5.813  11.504   5.768  1.5167 -0.8255  0.7825
82641SOL     OW59901   7.020  10.032  11.814 -0.1848  0.1468  0.3005
82641SOL    HW159902   6.942  10.084  11.831  0.2030  0.7670  0.2195
82641SOL    HW259903   7.072  10.085  11.753  0.6104  0.0543  0.8773
82642SOL     OW59904   5.370   3.160   4.547 -0.0674  0.2554  0.0180
82642SOL    HW159905   5.340   3.183   4.635 -0.3946  1.4324 -0.3720
82642SOL    HW259906   5.366   3.065   4.544 -1.4324  0.2682  0.7958
82643SOL     OW59907  11.273   2.743   0.399 -0.0497 -0.2386 -0.2904
82643SOL    HW159908  11.323   2.756   0.318  0.7489 -3.0348 -0.3548
82643SOL    HW259909  11.332   2.772   0.468  0.1921 -0.0356 -0.5767
82644SOL     OW59910   4.490   8.006  13.946  0.0206 -0.6555  0.2549
82644SOL    HW159911   4.441   8.059  13.883 -1.3289 -2.7390 -0.5549
82644SOL    HW259912   4.566   8.059  13.968 -0.9045  1.3060 -1.0051
82645SOL     OW59913   5.162   8.910   0.651 -0.4093 -0.1080  0.2311
82645SOL    HW159914   5.130   8.899   0.561 -0.3445 -0.7834  0.2903
82645SOL    HW259915   5.253   8.880   0.648 -0.3003  0.1933  0.4519
82646SOL     OW59916   5.527  13.122   5.703 -0.1199  1.1634 -0.2028
82646SOL    HW159917   5.529  13.210   5.666 -1.1954  0.6616 -1.5390
82646SOL    HW259918   5.495  13.133   5.792 -0.2711  2.1106 -0.3700
82647SOL     OW59919   0.027   8.194  14.010  0.1249  0.7932 -0.4253
82647SOL    HW159920   0.091   8.151  13.953 -0.1401  0.2578 -0.3215
82647SOL    HW259921  -0.019   8.256  13.953 -0.6695 -0.2878 -0.9857
82648SOL     OW59922   3.159   1.188   8.387 -0.0504  0.7165  0.2227
82648SOL    HW159923   3.179   1.116   8.327 -1.1887  0.3086  0.3190
82648SOL    HW259924   3.244   1.212   8.424  0.6948  1.0433 -1.6121
82649SOL     OW59925   4.988   0.971   5.371  0.5487  0.0768  0.7096
82649SOL    HW159926   4.984   1.044   5.432  1.0555 -1.5360  2.7806
82649SOL    HW259927   4.973   0.893   5.425  1.1184 -1.4469 -1.2035
82650SOL     OW59928   2.037  10.306   5.219 -0.2816  0.3701 -0.5155
82650SOL    HW159929   2.046  10.222   5.264  1.8715  1.6515  1.6869
82650SOL    HW259930   2.122  10.320   5.177 -0.5672  1.4652 -0.7712
82651SOL     OW59931   9.273   6.416   1.246 -0.1680 -0.1474  0.0955
82651SOL    HW159932   9.239   6.367   1.320 -0.3836 -0.3284 -0.1205
82651SOL    HW259933   9.319   6.351   1.193 -1.0398 -0.2576 -0.5442
82652SOL     OW59934   7.390   5.147   6.591 -0.4905  0.0832 -0.4729
82652SOL    HW159935   7.412   5.240   6.589  1.2714 -0.2065  1.8266
82652SOL    HW259936   7.401   5.118   6.500  0.8740  1.7292 -0.8822
82653SOL     OW59937  13.139  11.181   9.703  0.6274 -0.7147  0.5044
82653SOL    HW159938  13.067  11.141   9.654  0.9057 -1.1051  0.4161
82653SOL    HW259939  13.204  11.112   9.713  2.1553  0.2885 -1.6676
82654SOL     OW59940   4.063  12.281   4.039 -0.1794 -0.5492 -0.4577
82654SOL    HW159941   3.985  12.337   4.051  0.4229  0.1634  0.2436
82654SOL    HW259942   4.121  12.334   3.985  0.0767 -0.8285 -0.4534
82655SOL     OW59943   7.843   7.824  10.986 -0.0556  0.2228 -0.6625
82655SOL    HW159944   7.921   7.767  10.986 -0.6057 -0.5430 -0.4235
82655SOL    HW259945   7.874   7.906  11.024  1.1039  0.5963 -2.2679
82656SOL     OW59946   2.367  11.349   7.729 -0.0582 -0.4473 -0.0587
82656SOL    HW159947   2.424  11.348   7.652  0.8594 -1.2897  0.6029
82656SOL    HW259948   2.332  11.260   7.734 -0.4260 -0.2853  0.2761
82657SOL     OW59949   0.494   7.554   5.429  0.2388 -0.3346 -0.0831
82657SOL    HW159950   0.568   7.494   5.421  1.9956  1.4028  2.0647
82657SOL    HW259951   0.463   7.543   5.519 -1.0259  0.2158 -0.4230
82658SOL     OW59952  11.041  11.020   8.748 -0.3986  0.2886  0.3289
82658SOL    HW159953  11.041  11.073   8.668  0.9462 -0.7116 -0.3656
82658SOL    HW259954  10.988  10.943   8.725 -0.1066  0.0546  0.4411
82659SOL     OW59955   9.739   7.963   9.531 -0.1135 -0.1594 -0.1751
82659SOL    HW159956   9.767   7.988   9.443 -0.7389 -1.0008 -0.6267
82659SOL    HW259957   9.760   8.039   9.585  0.9698  0.0867 -0.9052
82660SOL     OW59958   7.744   3.104   9.763  0.3568 -0.0473  0.7473
82660SOL    HW159959   7.667   3.099   9.818 -0.0033 -0.1966  0.2382
82660SOL    HW259960   7.736   3.031   9.702 -0.4257  1.3657 -0.9648
82661SOL     OW59961   1.228   4.606   1.943 -0.0700 -0.3814 -0.0202
82661SOL    HW159962   1.245   4.678   2.004 -0.7534 -0.1282 -0.1222
82661SOL    HW259963   1.163   4.552   1.987 -0.7535 -0.0613 -0.6168
82662SOL     OW59964   3.241   1.970   8.805  0.2704  0.0091  0.1410
82662SOL    HW159965   3.156   1.988   8.847  0.2284  1.2189 -0.4325
82662SOL    HW259966   3.222   1.975   8.711  0.8980 -0.1253  0.0072
82663SOL     OW59967  11.399   4.328   3.759 -0.4211 -0.0836  0.1793
82663SOL    HW159968  11.456   4.323   3.836 -1.0872  0.6112  0.7224
82663SOL    HW259969  11.433   4.259   3.701  1.1644  0.5054  0.3532
82664SOL     OW59970   9.657  12.362  12.887  0.1418  0.1649 -0.3427
82664SOL    HW159971   9.646  12.456  12.870  1.1603  0.4788  0.6141
82664SOL    HW259972   9.727  12.335  12.829  0.1405  0.0904 -0.3103
82665SOL     OW59973   3.207   5.023   9.981 -0.1487  0.0289  0.0522
82665SOL    HW159974   3.270   5.060   9.919  0.5971  1.5836  1.6412
82665SOL    HW259975   3.243   4.937  10.004  0.2149 -0.0329 -0.7288
82666SOL     OW59976  11.493   4.204   6.562 -0.1555  0.4625  0.2618
82666SOL    HW159977  11.584   4.179   6.579 -0.2840 -0.4154 -0.2723
82666SOL    HW259978  11.473   4.164   6.478 -0.8251  1.2349  0.0431
82667SOL     OW59979   0.755  10.714  13.416 -0.5520  0.1647  0.0797
82667SOL    HW159980   0.671  10.749  13.385 -0.6314  0.9755  1.1444
82667SOL    HW259981   0.819  10.746  13.353 -1.0824 -0.8582 -1.0108
82668SOL     OW59982   2.844   8.232  13.131  0.4024  0.4148  1.1323
82668SOL    HW159983   2.760   8.201  13.096  1.3810 -1.0761 -0.0327
82668SOL    HW259984   2.873   8.298  13.069  0.3498  0.5240  1.2246
82669SOL     OW59985   2.650   5.754   0.307 -0.4877 -0.0773 -0.2784
82669SOL    HW159986   2.705   5.707   0.370 -0.2407 -0.6855 -0.9303
82669SOL    HW259987   2.653   5.845   0.335  1.2930 -0.0032 -0.6177
82670SOL     OW59988  12.515   6.134  10.926  0.2210 -0.7738 -0.0284
82670SOL    HW159989  12.593   6.117  10.980  0.7397  0.6264 -0.2959
82670SOL    HW259990  12.463   6.054  10.933  2.4202 -2.4020 -1.1248
82671SOL     OW59991   5.863  11.186   2.039  0.0786  0.3507 -0.6344
82671SOL    HW159992   5.773  11.204   2.068 -0.7860 -2.4597 -1.3081
82671SOL    HW259993   5.861  11.201   1.945  0.8366  1.9799 -0.4221
82672SOL     OW59994  12.654   3.421  14.007  0.3602  0.3994 -0.3747
82672SOL    HW159995  12.624   3.480  13.938 -0.1689 -0.1402 -0.6133
82672SOL    HW259996  12.741   3.393  13.979  0.8470  1.4714  0.0058
82673SOL     OW59997   4.611  11.201   3.752  0.1114  0.0379  0.6049
82673SOL    HW159998   4.641  11.206   3.842 -1.3329 -0.1273  1.1218
82673SOL    HW259999   4.540  11.137   3.754 -0.7926  0.9619 -0.3880
82674SOL     OW60000  12.836   9.590   4.105  0.0305  0.1517 -0.6921
82674SOL    HW160001  12.802   9.566   4.191  0.7384  0.2138 -0.3866
82674SOL    HW260002  12.787   9.535   4.044 -0.7719  0.4006 -0.2929
82675SOL     OW60003  12.560   3.591   1.656  0.0716  0.5802  0.4097
82675SOL    HW160004  12.473   3.573   1.621  0.0657  0.5641  0.4320
82675SOL    HW260005  12.620   3.557   1.591  0.0749 -1.4721  1.4073
82676SOL     OW60006   9.873   2.008   0.659 -0.0741  0.2845  0.0383
82676SOL    HW160007   9.826   2.081   0.619  0.5087  0.9209  0.5087
82676SOL    HW260008   9.811   1.972   0.723 -0.8857 -0.5242 -1.1419
82677SOL     OW60009   8.287   9.960   6.268  0.0953 -0.0265 -0.2140
82677SOL    HW160010   8.271  10.001   6.183  0.5109 -1.1696 -0.8507
82677SOL    HW260011   8.234   9.880   6.267 -0.7251  0.4541  1.0273
82678SOL     OW60012   2.182   3.298   7.441  0.2590 -0.3998 -0.1730
82678SOL    HW160013   2.168   3.355   7.365  1.3778 -0.2263 -0.2697
82678SOL    HW260014   2.188   3.358   7.515  1.6328 -0.3592 -0.3012
82679SOL     OW60015   3.775   3.818  13.993  0.0837 -0.2341 -0.5514
82679SOL    HW160016   3.865   3.798  14.020  0.2467 -2.2417 -2.3212
82679SOL    HW260017   3.721   3.763  14.049 -0.1807  1.7430  1.2332
82680SOL     OW60018   0.409   0.035   3.541 -0.4802 -0.2698  0.4601
82680SOL    HW160019   0.381  -0.026   3.610 -1.2666 -1.4941 -0.8692
82680SOL    HW260020   0.470  -0.016   3.488  1.9442  1.3973  1.5167
82681SOL     OW60021   9.704  12.171   1.981 -0.8074  0.1171  0.3963
82681SOL    HW160022   9.760  12.241   1.948  0.1184 -0.6605  0.2702
82681SOL    HW260023   9.759  12.123   2.043 -1.8740  0.3195  1.5310
82682SOL     OW60024   5.471  11.390   5.511  0.4943 -0.0504 -0.0344
82682SOL    HW160025   5.474  11.482   5.535 -1.1075  0.2831 -1.0264
82682SOL    HW260026   5.464  11.389   5.416  3.1911 -1.2884 -0.3370
82683SOL     OW60027   1.917   5.609  12.909  0.6643 -0.1917  0.3074
82683SOL    HW160028   1.827   5.639  12.895  1.2742  1.0065 -1.2400
82683SOL    HW260029   1.909   5.514  12.921 -0.6907 -0.2664 -0.9815
82684SOL     OW60030   8.642  12.931   2.329 -0.2715 -0.5332  0.8818
82684SOL    HW160031   8.594  12.851   2.350  1.8470 -2.4832 -1.0526
82684SOL    HW260032   8.731  12.914   2.360  0.2454  1.0199  0.3163
82685SOL     OW60033   9.601   0.688   2.887  0.1988 -0.5179  0.6040
82685SOL    HW160034   9.516   0.706   2.846 -0.2460  0.2788  1.8171
82685SOL    HW260035   9.581   0.682   2.981  1.2715 -1.7073  0.7822
82686SOL     OW60036   1.095  11.364  10.010 -0.1089 -0.1742 -0.2388
82686SOL    HW160037   1.190  11.360  10.023 -0.0050  0.3072 -0.7924
82686SOL    HW260038   1.066  11.435  10.067  0.2100  1.2709 -1.7820
82687SOL     OW60039   4.623   8.901   9.798 -0.5191  0.1007  0.0974
82687SOL    HW160040   4.579   8.828   9.755  1.0302 -0.2976 -0.8949
82687SOL    HW260041   4.620   8.879   9.892 -0.5308 -0.9885 -0.1401
82688SOL     OW60042  13.015   0.543   4.284 -0.2075  0.1744  0.1861
82688SOL    HW160043  12.984   0.629   4.255 -0.9390 -0.5437 -1.2586
82688SOL    HW260044  13.109   0.555   4.298  0.2255  0.5935 -2.5575
82689SOL     OW60045  13.343  12.127   5.024 -0.2428 -0.3650 -0.0880
82689SOL    HW160046  13.273  12.174   5.069 -0.2508 -1.9703  1.6791
82689SOL    HW260047  13.315  12.036   5.023  1.0573 -0.7945 -0.8726
82690SOL     OW60048   1.805  10.921  12.823  0.7018 -0.3353  0.0839
82690SOL    HW160049   1.725  10.891  12.865  0.5307 -0.9468 -0.6464
82690SOL    HW260050   1.782  11.004  12.782  1.2121  0.9552  2.2331
82691SOL     OW60051   8.550   0.608  12.084 -0.7767  0.0402 -0.4128
82691SOL    HW160052   8.523   0.684  12.032 -1.5239 -0.7265 -1.1798
82691SOL    HW260053   8.639   0.590  12.054 -1.1939 -0.3854 -1.4552
82692SOL     OW60054   8.735   4.951   8.899  0.3137 -0.6682 -0.3364
82692SOL    HW160055   8.769   4.930   8.812  0.1365 -1.5237 -0.2118
82692SOL    HW260056   8.807   4.996   8.943  1.2223 -2.2182 -0.1660
82693SOL     OW60057  12.907  11.967   2.602 -0.4804 -0.3893 -0.0450
82693SOL    HW160058  12.829  11.988   2.552  0.1649  0.0158 -0.9058
82693SOL    HW260059  12.939  12.051   2.634 -0.6419 -0.5992  0.6959
82694SOL     OW60060  13.996   5.433   9.861 -0.0738  0.0949  0.0384
82694SOL    HW160061  13.943   5.414   9.784 -1.5846  0.7520  0.8676
82694SOL    HW260062  13.939   5.413   9.935  1.4804 -0.9342  1.0244
82695SOL     OW60063  13.376   0.266   5.692 -0.5350 -0.3128  0.1048
82695SOL    HW160064  13.404   0.356   5.678  0.6110 -0.5347  0.8137
82695SOL    HW260065  13.355   0.261   5.785  0.7717 -1.0984  0.3949
82696SOL     OW60066   2.680   2.455   8.394  0.0286  0.2450  0.1109
82696SOL    HW160067   2.653   2.494   8.311 -0.2091  0.2811  0.2061
82696SOL    HW260068   2.672   2.525   8.458 -0.6554 -0.0260  0.3306
82697SOL     OW60069   6.937   2.224   6.049 -0.3211 -0.4724  0.2204
82697SOL    HW160070   6.922   2.179   6.132  2.0104 -0.0199  0.9693
82697SOL    HW260071   6.953   2.154   5.986 -2.5630 -0.8399 -0.0225
82698SOL     OW60072  13.546   9.665   0.953 -0.0996 -0.4156 -0.0474
82698SOL    HW160073  13.623   9.678   1.007  1.1355 -1.5012 -1.4673
82698SOL    HW260074  13.476   9.714   0.998  0.2455 -3.0120  3.7295
82699SOL     OW60075  10.339   4.281   8.138  0.2164 -0.3680 -0.5506
82699SOL    HW160076  10.349   4.202   8.085 -0.4770 -2.1923  1.8610
82699SOL    HW260077  10.415   4.281   8.197  0.4620  1.0666 -0.8152
82700SOL     OW60078   1.451  11.236   8.567 -0.0032  0.0662  0.4138
82700SOL    HW160079   1.363  11.234   8.528 -0.4428  1.2655  1.2689
82700SOL    HW260080   1.469  11.329   8.579  1.7232 -0.1291 -0.4189
82701SOL     OW60081   2.813   9.426   4.325 -0.1472  0.7581 -0.0804
82701SOL    HW160082   2.800   9.348   4.379 -1.4503  0.4947 -0.7301
82701SOL    HW260083   2.838   9.392   4.239 -1.2543  1.0055 -0.5183
82702SOL     OW60084   1.977   4.008   5.941  0.0639  0.2647  0.1765
82702SOL    HW160085   1.968   3.936   6.003  2.0451  1.5066  2.0578
82702SOL    HW260086   1.982   3.965   5.855  1.9630 -1.9578  1.2762
82703SOL     OW60087   5.991  12.747   6.377 -0.1813 -0.7257 -1.2091
82703SOL    HW160088   6.031  12.662   6.359 -2.6269 -2.1008 -0.5569
82703SOL    HW260089   5.947  12.770   6.295 -0.4835 -0.6548 -1.0283
82704SOL     OW60090  13.565   3.382   8.189  0.3190 -0.1927 -0.5996
82704SOL    HW160091  13.530   3.298   8.162 -1.1542  0.5298 -1.0250
82704SOL    HW260092  13.606   3.365   8.274 -1.1594 -1.0742 -0.0236
82705SOL     OW60093  12.950   0.813   0.479 -0.1847 -0.3652 -0.1003
82705SOL    HW160094  12.965   0.822   0.573 -0.8068 -0.7134  0.0397
82705SOL    HW260095  12.855   0.805   0.471 -0.0280 -2.1462 -0.5911
82706SOL     OW60096   0.575   9.597   5.196 -0.3771  0.1558  0.3516
82706SOL    HW160097   0.652   9.648   5.170 -0.6276  0.9384  1.0755
82706SOL    HW260098   0.508   9.663   5.214 -0.5108 -0.3694  1.9644
82707SOL     OW60099   4.971   3.174  14.008 -0.4504  0.6239 -0.1410
82707SOL    HW160100   4.905   3.235  13.973  0.3352  1.6177  0.0635
82707SOL    HW260101   5.041   3.231  14.040  0.2401 -0.3976  0.1969
82708SOL     OW60102   3.654   4.546   5.722  0.4404  0.4448 -0.2399
82708SOL    HW160103   3.575   4.507   5.759 -0.0060 -0.8127 -2.3579
82708SOL    HW260104   3.669   4.625   5.775 -1.5741  0.1281  0.9098
82709SOL     OW60105   3.027   4.607   7.759  0.2032 -0.4782  0.4603
82709SOL    HW160106   3.121   4.597   7.747 -0.0403 -1.1544 -1.2489
82709SOL    HW260107   3.005   4.547   7.831  0.7376 -2.3007 -0.8301
82710SOL     OW60108   0.380   2.333   9.262 -0.5766 -0.7495 -0.5560
82710SOL    HW160109   0.384   2.371   9.174 -1.0611 -1.7308 -1.0163
82710SOL    HW260110   0.444   2.263   9.260  0.1090 -0.1607  0.2009
82711SOL     OW60111   9.463   3.032   9.180  0.4018  0.0578 -0.1058
82711SOL    HW160112   9.410   3.051   9.102 -0.2416 -1.6740 -0.1418
82711SOL    HW260113   9.422   2.955   9.218  2.1092 -0.5215  0.6499
82712SOL     OW60114   5.067   1.617   5.770  0.0556  0.3608 -0.8131
82712SOL    HW160115   5.082   1.565   5.849  1.8381  0.5768 -0.9651
82712SOL    HW260116   5.092   1.706   5.796 -0.6743  0.6950 -1.2379
82713SOL     OW60117   5.971   6.749   1.221  0.2336 -0.3613 -0.1588
82713SOL    HW160118   5.913   6.783   1.153  1.5705  1.7728 -0.3358
82713SOL    HW260119   5.951   6.656   1.226 -3.5129  0.3041  0.1458
82714SOL     OW60120   3.957   4.162   7.223  0.0111  0.4180 -0.4529
82714SOL    HW160121   3.896   4.124   7.159 -0.3461  0.9062 -0.4009
82714SOL    HW260122   3.936   4.255   7.225  1.5786  0.8335 -1.3540
82715SOL     OW60123   5.189   5.097   7.315 -0.2992 -0.8207 -0.6049
82715SOL    HW160124   5.096   5.104   7.332  0.1452 -0.8592  2.3605
82715SOL    HW260125   5.215   5.186   7.288 -1.0919 -0.6833 -0.9294
82716SOL     OW60126   2.720   3.537   2.379 -0.0879  0.1685  0.0686
82716SOL    HW160127   2.689   3.627   2.382 -0.0608  0.2145 -0.8085
82716SOL    HW260128   2.815   3.544   2.385  0.0165  0.3060 -1.3789
82717SOL     OW60129   3.020   5.188   3.992  0.6424 -0.0306  0.1170
82717SOL    HW160130   3.026   5.204   3.898 -1.1206 -0.3491 -0.0871
82717SOL    HW260131   2.990   5.271   4.029 -2.9261 -1.0053 -0.2223
82718SOL     OW60132   0.188   8.820   2.543 -0.1596 -0.2835 -0.0099
82718SOL    HW160133   0.241   8.740   2.537  2.7505  1.4312  0.6707
82718SOL    HW260134   0.230   8.881   2.482 -1.3693  1.1984  0.5709
82719SOL     OW60135  11.695   3.962   7.176  0.1498  0.5129 -0.2010
82719SOL    HW160136  11.721   4.052   7.190  1.1116  0.0282  1.3320
82719SOL    HW260137  11.740   3.912   7.245  0.6633 -1.3041 -1.7464
82720SOL     OW60138   5.396   0.389   4.657  0.3704  0.3005 -0.3840
82720SOL    HW160139   5.437   0.334   4.591  1.9798 -0.0731  0.8611
82720SOL    HW260140   5.454   0.383   4.733 -2.0182 -0.2833  1.5287
82721SOL     OW60141  11.840   6.470   9.351 -0.4574 -0.3117  0.0897
82721SOL    HW160142  11.924   6.504   9.322 -0.5896 -1.1417 -1.3946
82721SOL    HW260143  11.853   6.448   9.443  1.4441 -1.8378 -0.4686
82722SOL     OW60144  12.172   3.546  13.064  0.6970 -0.3808  0.2480
82722SOL    HW160145  12.086   3.519  13.030 -0.2330  0.1478  2.0613
82722SOL    HW260146  12.233   3.523  12.994 -1.0248  0.1367 -1.5401
82723SOL     OW60147   7.516  11.608   9.287  0.4043  0.1800  0.0449
82723SOL    HW160148   7.610  11.624   9.297  0.1881  2.8363 -1.1500
82723SOL    HW260149   7.475  11.662   9.356 -0.2772  0.2576 -0.4093
82724SOL     OW60150   2.756   1.043   4.346  0.0958  0.0544 -0.0142
82724SOL    HW160151   2.712   1.093   4.415  1.0996  0.9058  0.0346
82724SOL    HW260152   2.687   0.991   4.306 -1.0045  1.5385 -0.1159
82725SOL     OW60153   5.646   4.474   9.503 -0.1866  0.5409 -0.4459
82725SOL    HW160154   5.708   4.536   9.541 -0.1172  1.5890 -2.1431
82725SOL    HW260155   5.562   4.519   9.505 -1.3646 -1.4173  3.1800
82726SOL     OW60156  10.541  12.347  13.767 -0.1413 -0.0106  0.8170
82726SOL    HW160157  10.621  12.310  13.731 -1.2552 -1.2650 -0.4809
82726SOL    HW260158  10.471  12.296  13.727 -1.6034  1.0957  1.8654
82727SOL     OW60159   5.974  11.598   6.377  0.3248 -0.3842  0.4944
82727SOL    HW160160   5.985  11.535   6.306  0.6339 -0.7595  0.8643
82727SOL    HW260161   6.058  11.596   6.424  1.2533  2.1296 -0.9134
82728SOL     OW60162   9.897   8.029  10.503  0.6130  0.6847 -0.6414
82728SOL    HW160163   9.972   8.015  10.561  0.9816  2.0588 -0.7344
82728SOL    HW260164   9.870   7.941  10.477  0.5296  0.0270  1.4622
82729SOL     OW60165  10.632  12.399  13.391 -0.4170 -0.0945  0.1240
82729SOL    HW160166  10.716  12.386  13.347  0.5565  0.6844  1.6334
82729SOL    HW260167  10.570  12.349  13.340  0.8986 -0.3815 -1.2745
82730SOL     OW60168   0.235   5.507   6.021  0.0394 -0.4699  0.6250
82730SOL    HW160169   0.147   5.476   6.002  0.2754 -0.6795 -0.1754
82730SOL    HW260170   0.223   5.597   6.053 -0.2689  0.9008 -2.9310
82731SOL     OW60171   8.951   8.864   0.667  0.3416 -0.7666 -0.0578
82731SOL    HW160172   8.945   8.910   0.751  1.9309  0.0330 -0.3444
82731SOL    HW260173   8.897   8.916   0.607  1.6317  0.4348 -0.2305
82732SOL     OW60174   4.017   4.850  10.126 -0.8174 -0.4755 -0.2235
82732SOL    HW160175   3.980   4.805  10.202  0.6103  0.8530  1.3451
82732SOL    HW260176   4.108   4.868  10.150 -0.8656  1.7838 -1.4162
82733SOL     OW60177  12.040   3.137   3.802 -0.3641 -0.5364 -0.2880
82733SOL    HW160178  12.133   3.158   3.799 -0.2613 -0.9019  0.2779
82733SOL    HW260179  12.037   3.045   3.829 -0.8871 -0.5330 -0.3307
82734SOL     OW60180   5.576  11.172   6.655  0.4854 -0.4944 -0.0184
82734SOL    HW160181   5.521  11.240   6.616  0.5960 -1.0093 -1.1147
82734SOL    HW260182   5.515  11.099   6.672  0.5556 -0.4996  0.2226
82735SOL     OW60183   5.230   2.378  10.355 -0.3134 -0.1822  0.9237
82735SOL    HW160184   5.320   2.392  10.384 -0.3681  2.2371  0.1927
82735SOL    HW260185   5.181   2.451  10.393 -1.5499 -0.3321 -0.2948
82736SOL     OW60186   7.474  10.442   6.420  0.2704  0.4763 -0.4050
82736SOL    HW160187   7.381  10.424   6.439  0.3442  1.1496  0.6949
82736SOL    HW260188   7.481  10.435   6.325 -0.9407  0.5336 -0.5142
82737SOL     OW60189   4.979  13.495   6.934  0.4019  0.0781  0.1334
82737SOL    HW160190   4.910  13.467   6.874  1.7486 -0.5485 -1.1659
82737SOL    HW260191   4.933  13.548   6.999 -1.1542  0.5719 -1.2935
82738SOL     OW60192  11.555  10.159  10.371 -0.7859  0.1240 -0.4501
82738SOL    HW160193  11.486  10.159  10.437  0.8641  2.0684  1.4275
82738SOL    HW260194  11.633  10.130  10.419  0.0781 -0.2935 -2.0549
82739SOL     OW60195  11.388   7.282   7.266  0.5315  0.3800 -0.4377
82739SOL    HW160196  11.390   7.190   7.238  0.8863  0.7870 -1.7923
82739SOL    HW260197  11.424   7.280   7.355 -1.8319 -1.1093  0.5712
82740SOL     OW60198   1.483  12.575   9.898 -0.4046  0.0542 -0.4205
82740SOL    HW160199   1.508  12.655   9.944  0.9583 -0.0186 -0.9730
82740SOL    HW260200   1.477  12.509   9.966 -1.4868  0.5967  0.0330
82741SOL     OW60201   1.741  11.774  11.083  0.1832  0.2437 -0.3990
82741SOL    HW160202   1.782  11.837  11.023  1.1398  0.5413  0.5510
82741SOL    HW260203   1.805  11.763  11.153 -0.5124 -0.8505  0.0760
82742SOL     OW60204   7.644  12.039  12.302  0.5136 -0.3143 -0.1484
82742SOL    HW160205   7.617  12.015  12.213 -1.8555  1.7136 -0.1039
82742SOL    HW260206   7.699  12.117  12.290  1.3082 -0.8324  0.1058
82743SOL     OW60207   0.404   2.322   6.462 -0.2296  0.2666  0.6146
82743SOL    HW160208   0.409   2.307   6.557 -0.7313 -0.1735  0.5765
82743SOL    HW260209   0.326   2.273   6.434  0.1680  0.0225 -0.0927
82744SOL     OW60210   3.429   2.767   9.807 -0.0938 -0.2156  0.0134
82744SOL    HW160211   3.376   2.722   9.741  1.8322 -1.4359 -0.7992
82744SOL    HW260212   3.513   2.722   9.804  1.1450  1.9060  0.9343
82745SOL     OW60213   7.739   3.593   1.455  0.4777 -0.0317 -0.0177
82745SOL    HW160214   7.648   3.579   1.430  0.4759 -0.5751  0.2781
82745SOL    HW260215   7.789   3.574   1.377  0.5086 -2.1509  0.4731
82746SOL     OW60216   5.363   7.512  12.257 -0.0158 -0.2845 -0.4036
82746SOL    HW160217   5.310   7.588  12.232 -0.4366 -1.0176 -1.8978
82746SOL    HW260218   5.452   7.546  12.264 -0.6645  1.1340  2.8658
82747SOL     OW60219   0.215   4.375   2.627 -0.6251  0.3752  0.2743
82747SOL    HW160220   0.129   4.365   2.669 -1.4876  0.7439 -1.3368
82747SOL    HW260221   0.246   4.286   2.613 -2.1543  0.1123 -1.8623
82748SOL     OW60222   7.797   1.179   0.870  0.0799  0.9342 -0.3343
82748SOL    HW160223   7.702   1.189   0.866 -0.1662  0.6923  2.8212
82748SOL    HW260224   7.811   1.088   0.894  1.1565  0.9240 -0.9311
82749SOL     OW60225  13.381   5.174   0.560 -0.2220  0.3562 -0.0752
82749SOL    HW160226  13.402   5.129   0.641 -1.3272  0.2360  0.1614
82749SOL    HW260227  13.295   5.214   0.576 -1.3011 -1.1438 -1.7725
82750SOL     OW60228  10.402   4.603  10.688 -0.0268 -0.9744  0.3556
82750SOL    HW160229  10.414   4.542  10.616  0.7028 -0.9330  0.4307
82750SOL    HW260230  10.311   4.632  10.680  0.0365 -0.9827 -0.5315
82751SOL     OW60231   0.765   3.402   2.236  0.1127 -0.4276 -0.3552
82751SOL    HW160232   0.775   3.457   2.314 -1.1590 -0.4830 -0.1183
82751SOL    HW260233   0.803   3.452   2.165 -2.5954  1.6562 -0.5074
82752SOL     OW60234   9.477   3.638  12.075  0.0133 -0.9500 -0.1953
82752SOL    HW160235   9.426   3.655  11.995 -0.8993 -1.6944  0.2115
82752SOL    HW260236   9.513   3.550  12.062  0.1704 -0.9240  0.0587
82753SOL     OW60237  10.198  13.389   3.563  0.3279  0.1228 -0.0121
82753SOL    HW160238  10.289  13.397   3.532 -0.0295  1.9498 -0.6893
82753SOL    HW260239  10.171  13.302   3.534  1.4828  0.0344 -0.8866
82754SOL     OW60240   0.803  10.052  12.235 -0.4252  0.0414  0.3724
82754SOL    HW160241   0.729  10.111  12.218 -0.1451  0.0740 -0.7827
82754SOL    HW260242   0.881  10.107  12.222 -0.1433 -0.7324 -1.4521
82755SOL     OW60243  11.026   1.818   5.759 -0.4101 -0.1129  0.0036
82755SOL    HW160244  11.069   1.735   5.780 -0.4885 -0.3205 -0.6420
82755SOL    HW260245  11.085   1.860   5.697  0.0024  0.6640  0.8941
82756SOL     OW60246   4.005   5.372   0.850 -0.1662 -0.5932 -0.6367
82756SOL    HW160247   4.076   5.415   0.803  1.0248 -2.9991 -1.1954
82756SOL    HW260248   4.032   5.376   0.942  2.0951 -3.5929 -1.0117
82757SOL     OW60249   0.257   4.579   8.063  0.4064  0.2253  0.0935
82757SOL    HW160250   0.185   4.524   8.092 -0.7396  0.3113 -2.3479
82757SOL    HW260251   0.330   4.518   8.049  0.1110 -0.1918  0.3375
82758SOL     OW60252   4.848  10.903   4.311  0.4086 -0.1374 -0.4924
82758SOL    HW160253   4.940  10.887   4.293  0.4450 -0.4185 -0.0766
82758SOL    HW260254   4.847  10.989   4.355  0.5830 -0.5722  0.3859
82759SOL     OW60255   0.062   4.868   6.864 -0.1294 -0.1188  0.4884
82759SOL    HW160256   0.091   4.805   6.798 -0.1204  0.2823  0.1090
82759SOL    HW260257   0.037   4.814   6.939  0.2687 -0.5517  0.3150
82760SOL     OW60258   4.486  11.303   0.897 -0.6637  0.0218  0.6976
82760SOL    HW160259   4.526  11.351   0.970 -1.4252 -0.1682  1.2496
82760SOL    HW260260   4.555  11.299   0.830 -0.7783  2.5494  0.3130
82761SOL     OW60261  12.845   3.910  11.051 -0.1227 -0.0145 -0.3335
82761SOL    HW160262  12.903   3.885  11.122 -0.3492  0.2068 -0.0652
82761SOL    HW260263  12.860   3.845  10.983  0.3172 -0.0521 -0.2021
82762SOL     OW60264   5.678  11.927  13.912 -0.3216  0.0483  0.3905
82762SOL    HW160265   5.617  11.990  13.950 -0.4870 -1.1030  2.1516
82762SOL    HW260266   5.762  11.947  13.953  0.3243  1.0504 -1.3522
82763SOL     OW60267   3.567   1.493  13.383  0.1622 -0.2515 -0.1137
82763SOL    HW160268   3.513   1.418  13.410  0.9660 -0.8576 -0.1737
82763SOL    HW260269   3.577   1.545  13.463 -1.9411  0.8162 -0.4535
82764SOL     OW60270   4.042  11.264  13.732  0.1336 -0.5220 -0.2473
82764SOL    HW160271   4.052  11.359  13.725 -2.3171 -0.1012  1.0736
82764SOL    HW260272   3.981  11.241  13.662 -0.4816 -0.8836  0.4013
82765SOL     OW60273   7.890   6.697   0.661  0.7254  0.2255 -0.5965
82765SOL    HW160274   7.882   6.712   0.755 -0.0270 -0.0504 -0.6125
82765SOL    HW260275   7.812   6.648   0.638  0.2764  1.3523 -1.5892
82766SOL     OW60276   8.919  10.354   2.750  0.2355  0.4583  0.3275
82766SOL    HW160277   8.912  10.371   2.656  0.6321 -0.3833  0.1403
82766SOL    HW260278   8.865  10.422   2.790 -1.1435 -0.0657 -0.5809
82767SOL     OW60279   2.545   7.041  13.192 -0.4256  0.1740  0.0872
82767SOL    HW160280   2.565   7.041  13.098  0.3620  0.3074  0.2513
82767SOL    HW260281   2.458   7.001  13.197 -1.2686  1.7257 -0.8611
82768SOL     OW60282   2.323  10.453   6.502 -0.2088 -0.1692  0.8606
82768SOL    HW160283   2.269  10.515   6.551  0.1542  0.5798  0.3322
82768SOL    HW260284   2.278  10.444   6.418  0.0661 -0.1502  0.7100
82769SOL     OW60285  12.392   1.945   2.934 -0.1281 -0.0194  0.1912
82769SOL    HW160286  12.326   2.000   2.892 -0.9076 -2.9785 -2.8518
82769SOL    HW260287  12.475   1.989   2.915 -0.8031  0.7571 -1.0963
82770SOL     OW60288  11.872   0.807   2.804 -0.1159  0.5918 -0.3024
82770SOL    HW160289  11.922   0.850   2.874 -0.8924  3.3389 -1.3155
82770SOL    HW260290  11.930   0.811   2.728 -0.5627  0.6511 -0.6381
82771SOL     OW60291  10.156   8.136  12.784  0.1714  0.0600 -0.1316
82771SOL    HW160292  10.119   8.224  12.774  1.1287  0.2367 -3.6938
82771SOL    HW260293  10.248   8.152  12.806  0.3132 -0.0411 -0.6471
82772SOL     OW60294   7.461  10.189   4.460 -0.0307  0.1309 -0.3521
82772SOL    HW160295   7.519  10.215   4.531  3.5485 -1.1136 -2.5663
82772SOL    HW260296   7.432  10.101   4.484  0.3585  0.0961  0.0020
82773SOL     OW60297  11.766   9.518   9.191  0.5731 -0.4993  1.2978
82773SOL    HW160298  11.836   9.476   9.242  2.7859  1.8324  0.4242
82773SOL    HW260299  11.809   9.593   9.149 -2.0111 -0.1644 -1.0313
82774SOL     OW60300  11.323   0.014  12.495  0.1082  0.1930  0.4863
82774SOL    HW160301  11.246   0.043  12.447 -0.4435  0.6342  1.6082
82774SOL    HW260302  11.320  -0.082  12.489 -0.0190  0.2390 -0.2350
82775SOL     OW60303   3.138   9.843   3.258  0.3939 -0.4527 -0.2620
82775SOL    HW160304   3.047   9.818   3.244 -0.2416  0.6222  1.5575
82775SOL    HW260305   3.189   9.771   3.222 -1.2410 -2.5382  1.3560
82776SOL     OW60306  13.432   9.620   7.136 -0.2639  0.2558  0.2066
82776SOL    HW160307  13.522   9.628   7.169  0.2904 -2.2518 -0.4220
82776SOL    HW260308  13.434   9.665   7.051  0.0807  1.1728  0.6887
82777SOL     OW60309   4.068   0.629  12.495 -0.4739 -0.3632 -0.4068
82777SOL    HW160310   4.008   0.675  12.555 -3.5067 -1.8024 -2.0812
82777SOL    HW260311   4.078   0.542  12.535 -1.5588 -0.9348 -1.3278
82778SOL     OW60312  12.113  11.199   7.196  0.8005  0.0042 -0.1758
82778SOL    HW160313  12.204  11.187   7.223  1.4893 -0.0624 -2.3422
82778SOL    HW260314  12.063  11.193   7.278  2.6561 -0.6355  0.9856
82779SOL     OW60315   2.106   9.811   0.846 -0.2344  0.4087 -0.0776
82779SOL    HW160316   2.093   9.721   0.816 -0.5843  0.6391 -0.6186
82779SOL    HW260317   2.191   9.836   0.811 -0.1787  0.3230 -0.0050
82780SOL     OW60318   4.916   2.239   7.868 -0.0790 -0.2694 -0.2854
82780SOL    HW160319   5.005   2.216   7.841 -0.2738 -0.3139 -0.9009
82780SOL    HW260320   4.910   2.334   7.856 -0.3181 -0.3549 -0.8610
82781SOL     OW60321  11.696  10.429   2.272 -0.8521 -0.1724 -0.2767
82781SOL    HW160322  11.734  10.386   2.349 -1.5143 -0.9688 -0.3831
82781SOL    HW260323  11.760  10.413   2.202 -0.4497  0.1948  0.0024
82782SOL     OW60324   3.450   0.933   5.723 -0.0650  0.1508  0.5936
82782SOL    HW160325   3.411   1.019   5.738  0.4099  0.5472 -0.3805
82782SOL    HW260326   3.532   0.934   5.772 -0.8160 -0.3693  1.9309
82783SOL     OW60327   8.647   9.425  10.382  0.0960  0.5118  0.7348
82783SOL    HW160328   8.610   9.339  10.365 -0.8490  1.1326 -0.4882
82783SOL    HW260329   8.742   9.412  10.377 -0.0587 -0.0306 -1.7622
82784SOL     OW60330   4.582   5.243   9.042  1.1030  0.1217 -0.5354
82784SOL    HW160331   4.639   5.315   9.070  1.2338  0.2813 -1.2066
82784SOL    HW260332   4.547   5.208   9.124  0.6262  1.2761 -0.2249
82785SOL     OW60333   3.297   3.592   0.564 -0.4926 -1.0749  0.1570
82785SOL    HW160334   3.363   3.569   0.629 -0.6022  0.3964  0.8165
82785SOL    HW260335   3.339   3.656   0.508 -1.1974 -0.4637  0.3093
82786SOL     OW60336   7.112   5.975  11.298  0.0106  0.5370  0.9910
82786SOL    HW160337   7.155   6.030  11.233  0.4168  0.4208  1.1591
82786SOL    HW260338   7.182   5.949  11.358  0.6216 -3.2044 -1.0728
82787SOL     OW60339   6.332   1.283   3.670  0.3891 -0.0518  0.0814
82787SOL    HW160340   6.424   1.262   3.652  0.6136 -0.1222  1.2302
82787SOL    HW260341   6.336   1.351   3.737 -0.3725 -2.2806  2.5858
82788SOL     OW60342   4.749  12.705  13.470  0.5712 -0.1682  0.1484
82788SOL    HW160343   4.779  12.720  13.560 -1.3374 -0.3655  0.8692
82788SOL    HW260344   4.710  12.789  13.444 -0.7276 -0.6847  0.3108
82789SOL     OW60345   0.595   4.507   7.220  0.3992 -0.1139  0.2155
82789SOL    HW160346   0.632   4.594   7.234  0.5428  0.1158 -1.4448
82789SOL    HW260347   0.504   4.515   7.247  0.7318  0.1638  1.3469
82790SOL     OW60348   3.793  13.580   3.889 -0.3174 -0.5224  0.7151
82790SOL    HW160349   3.724  13.646   3.894 -0.0679 -0.2064  0.0979
82790SOL    HW260350   3.868  13.620   3.934  0.2655  0.1888 -0.8206
82791SOL     OW60351   8.392   5.676   9.560  0.2608 -0.7358  0.3479
82791SOL    HW160352   8.358   5.611   9.498 -0.0436 -1.7063  1.4819
82791SOL    HW260353   8.345   5.757   9.539  0.8166 -0.8049 -1.2501
82792SOL     OW60354   0.670   2.355  10.297  0.0828  0.4410  0.0563
82792SOL    HW160355   0.729   2.288  10.264 -1.6332 -1.4772  0.6996
82792SOL    HW260356   0.696   2.435  10.251  0.6010 -1.1498 -2.5961
82793SOL     OW60357   1.295  13.238  13.630 -0.4145  0.7192 -0.3654
82793SOL    HW160358   1.224  13.282  13.677 -0.2729  0.6571 -0.0933
82793SOL    HW260359   1.335  13.307  13.577  0.8837  1.3168  1.3233
82794SOL     OW60360  10.464   3.493   1.494  0.2104 -0.2244 -0.0156
82794SOL    HW160361  10.383   3.443   1.487 -0.3591  0.6438  0.2684
82794SOL    HW260362  10.528   3.431   1.529 -0.8869 -0.3277  1.9175
82795SOL     OW60363  13.173   8.599   0.673 -0.0484  0.4020 -0.0146
82795SOL    HW160364  13.237   8.548   0.624 -0.3091 -1.8764  1.8568
82795SOL    HW260365  13.225   8.669   0.714  1.0178 -0.5943  0.3843
82796SOL     OW60366   8.802   5.192   7.530 -0.0438 -0.4828  0.0869
82796SOL    HW160367   8.811   5.150   7.444  0.5795 -0.9635  0.3798
82796SOL    HW260368   8.714   5.169   7.558 -0.6104  0.4644 -0.8260
82797SOL     OW60369  10.259   6.031   3.308  0.0651  0.1116 -0.3091
82797SOL    HW160370  10.235   6.117   3.342  0.8998 -0.6057  2.3269
82797SOL    HW260371  10.355   6.030   3.311  0.0680 -0.8648 -0.4529
82798SOL     OW60372   3.972  10.445   4.249  0.3096  0.4046 -0.0307
82798SOL    HW160373   3.925  10.516   4.293  0.8931  0.5400  0.3999
82798SOL    HW260374   4.058  10.483   4.228  0.4760 -0.0444 -0.1756
82799SOL     OW60375   9.166  13.066  11.647  0.5699 -0.1119  0.3290
82799SOL    HW160376   9.131  13.153  11.667 -0.7364 -0.6894  0.6639
82799SOL    HW260377   9.125  13.042  11.564 -0.8819 -1.3105  1.3289
82800SOL     OW60378   5.470   5.268   6.228  0.1415  0.3265  0.2263
82800SOL    HW160379   5.410   5.339   6.251  0.2956  0.5843 -0.1571
82800SOL    HW260380   5.414   5.190   6.222 -0.0547  0.4489  0.4806
82801SOL     OW60381   1.361   2.421   0.805  0.5115  0.1966 -0.6091
82801SOL    HW160382   1.301   2.473   0.859  0.6176 -1.2347  0.9654
82801SOL    HW260383   1.331   2.331   0.816  1.7555 -0.3368 -1.3919
82802SOL     OW60384  12.663   0.150   9.841  0.1976  0.4895 -0.1561
82802SOL    HW160385  12.607   0.228   9.846  0.3613  0.7368 -1.6086
82802SOL    HW260386  12.605   0.081   9.808 -0.0416 -0.1307  1.4853
82803SOL     OW60387  11.552   5.148   3.445  0.1693  0.2687 -0.2587
82803SOL    HW160388  11.597   5.064   3.442 -0.7959 -0.2562 -0.5355
82803SOL    HW260389  11.582   5.195   3.368  0.1448 -0.1250 -0.5080
82804SOL     OW60390   8.438  11.977   1.193 -0.3078 -0.3490  0.2746
82804SOL    HW160391   8.352  11.977   1.236  0.5692  0.0401  2.1403
82804SOL    HW260392   8.459  12.070   1.180  0.2986 -0.3977  0.8525
82805SOL     OW60393   4.044   1.751  10.219  0.4761  0.2578 -0.0932
82805SOL    HW160394   4.091   1.809  10.159 -0.4100 -0.0440 -1.1157
82805SOL    HW260395   3.954   1.784  10.217  0.0948 -0.7665 -0.2057
82806SOL     OW60396   2.760   1.284   1.974  0.4371  0.1686  0.1964
82806SOL    HW160397   2.839   1.315   2.019  0.3913  0.6341 -0.0447
82806SOL    HW260398   2.746   1.195   2.009 -0.1032  0.8349  1.7933
82807SOL     OW60399   8.817   7.765   3.807 -0.2008 -0.0575 -0.1167
82807SOL    HW160400   8.856   7.730   3.727  0.5897  0.7480 -0.0973
82807SOL    HW260401   8.762   7.837   3.777  0.6009  0.6602  0.1106
82808SOL     OW60402   8.768   5.589  10.720 -0.0660 -0.0652 -0.6572
82808SOL    HW160403   8.688   5.565  10.674 -0.3250  1.5318 -1.1061
82808SOL    HW260404   8.798   5.508  10.761 -2.4883 -0.5084  0.4075
82809SOL     OW60405   3.499   7.424  12.249 -0.0272 -0.2528 -0.0856
82809SOL    HW160406   3.590   7.419  12.221 -0.0704  0.3625 -0.3536
82809SOL    HW260407   3.469   7.333  12.250  0.1710 -0.3584 -1.3968
82810SOL     OW60408   6.801  11.598  11.698  0.9128  0.3223  0.0416
82810SOL    HW160409   6.883  11.647  11.698  0.6816  0.7946  2.0639
82810SOL    HW260410   6.779  11.589  11.791 -0.6309 -0.9710 -0.4185
82811SOL     OW60411   1.652   2.656  10.149 -0.4308 -0.5885  0.2648
82811SOL    HW160412   1.638   2.572  10.193  1.8784 -0.9050  0.5571
82811SOL    HW260413   1.682   2.715  10.219  1.1552 -0.4823 -0.4457
82812SOL     OW60414  13.140   8.901   3.663 -0.1904  0.3155  0.1634
82812SOL    HW160415  13.198   8.907   3.588 -1.1844  3.3462 -0.5299
82812SOL    HW260416  13.167   8.973   3.721 -0.6613 -0.7618  1.8100
82813SOL     OW60417   9.599   0.710   4.780  0.3043  0.1600  0.4435
82813SOL    HW160418   9.546   0.637   4.748 -1.0760  2.2145 -2.3608
82813SOL    HW260419   9.579   0.714   4.874 -2.4796 -0.8331  0.0046
82814SOL     OW60420   6.699  13.285   0.711 -0.0337 -0.4628  0.3179
82814SOL    HW160421   6.623  13.312   0.763 -0.4968  1.2676 -1.1589
82814SOL    HW260422   6.769  13.345   0.737  0.8919 -2.0315  1.6493
82815SOL     OW60423   1.855  12.359   8.969  0.4415 -0.0327  0.0369
82815SOL    HW160424   1.886  12.397   9.051 -1.4002 -0.1117  0.8191
82815SOL    HW260425   1.905  12.278   8.959  0.9560  0.1710  0.8678
82816SOL     OW60426  10.541   9.924  13.833 -0.5217 -0.0387 -0.1610
82816SOL    HW160427  10.587  10.008  13.840  2.5875 -1.6219 -0.1422
82816SOL    HW260428  10.472   9.929  13.900 -0.4907  2.5006 -0.2235
82817SOL     OW60429   8.359   2.115   6.360 -0.3431 -0.9506 -0.0065
82817SOL    HW160430   8.391   2.108   6.450  0.7654 -0.4923 -0.3513
82817SOL    HW260431   8.399   2.195   6.327 -1.7609 -0.4226 -0.5154
82818SOL     OW60432  13.242   1.830   4.374 -0.0967 -0.0268  0.4149
82818SOL    HW160433  13.223   1.739   4.353  0.5233  0.0396 -0.4724
82818SOL    HW260434  13.320   1.852   4.322 -1.4129  1.6071 -1.0100
82819SOL     OW60435   3.028   7.415   1.914 -0.4503  0.0493 -0.1009
82819SOL    HW160436   3.088   7.466   1.861  1.4754 -0.4007  1.5250
82819SOL    HW260437   2.968   7.480   1.951 -0.7257  0.5586 -1.3912
82820SOL     OW60438   0.627   7.081   9.706 -0.2951 -0.0748  0.7672
82820SOL    HW160439   0.688   7.151   9.727 -0.9173  0.6814  0.1265
82820SOL    HW260440   0.681   7.013   9.665  0.5437 -0.6150  2.6998
82821SOL     OW60441  10.017  13.561  11.669 -0.2551 -0.1678 -0.1187
82821SOL    HW160442   9.941  13.511  11.697 -0.5241  0.9813  1.2877
82821SOL    HW260443  10.055  13.508  11.598 -0.7504 -2.1344  1.0031
82822SOL     OW60444   3.528   3.750   6.130  0.0502 -0.7728 -0.0357
82822SOL    HW160445   3.568   3.813   6.069  3.3438 -0.1571  2.4934
82822SOL    HW260446   3.511   3.672   6.076  1.1027  0.3218 -2.0793
82823SOL     OW60447  13.402   4.753   5.181  0.2168 -0.0124 -0.2709
82823SOL    HW160448  13.344   4.679   5.162 -1.7447  0.9990  1.3422
82823SOL    HW260449  13.356   4.829   5.145  1.9092  0.5415 -1.3740
82824SOL     OW60450   0.628   9.096   7.213  0.2588  0.4267 -0.6018
82824SOL    HW160451   0.665   9.166   7.159  0.6859  2.7647  2.4295
82824SOL    HW260452   0.703   9.063   7.263 -0.3098 -0.8149 -0.5525
82825SOL     OW60453   8.048   8.579  13.296 -0.2257  0.4159 -0.2381
82825SOL    HW160454   8.087   8.663  13.273  1.6952 -0.1969  0.5888
82825SOL    HW260455   8.103   8.545  13.366 -1.0567 -1.4584 -0.4260
82826SOL     OW60456   2.298  12.999  13.997  0.6224 -0.3699  0.2637
82826SOL    HW160457   2.322  12.972  14.086  2.5295  0.4447  0.0373
82826SOL    HW260458   2.374  12.976  13.944  0.2025  0.7155 -0.8437
82827SOL     OW60459   2.971   6.025   6.377 -0.0678 -0.2857  0.3332
82827SOL    HW160460   2.994   6.051   6.467  2.5060  2.4368 -0.9354
82827SOL    HW260461   2.882   6.059   6.365 -0.4868 -0.7692  1.8457
82828SOL     OW60462   3.794  13.549   1.441  0.6872  0.8406  0.2722
82828SOL    HW160463   3.856  13.602   1.490  0.0637  1.9516 -0.1122
82828SOL    HW260464   3.844  13.517   1.365  0.9814  1.1195  0.3487
82829SOL     OW60465   6.956   5.109   0.192  0.0440 -0.4510 -0.2004
82829SOL    HW160466   6.883   5.065   0.235 -0.3494  1.2561  0.9777
82829SOL    HW260467   7.015   5.135   0.263 -0.7175  2.6113 -0.5470
82830SOL     OW60468   8.772   0.345   7.287 -0.4390  0.1901  0.6513
82830SOL    HW160469   8.754   0.357   7.381 -0.4354 -1.1361  0.8398
82830SOL    HW260470   8.806   0.256   7.281  1.5604  0.9756 -0.3434
82831SOL     OW60471   7.043   8.176   3.615  0.4581  0.1397 -0.6044
82831SOL    HW160472   7.078   8.219   3.693  0.3110 -3.4275  1.6625
82831SOL    HW260473   7.115   8.121   3.583 -0.8660 -2.0725  0.0053
82832SOL     OW60474   0.358   4.665   9.051 -0.2314 -0.1016 -0.0233
82832SOL    HW160475   0.401   4.647   8.967  0.4890 -1.5120  0.6071
82832SOL    HW260476   0.414   4.623   9.116 -0.5776  1.2873  1.2171
82833SOL     OW60477   6.550  11.835  12.523  0.1831 -0.2497 -0.2942
82833SOL    HW160478   6.613  11.827  12.452  0.1477 -2.0298 -0.1720
82833SOL    HW260479   6.467  11.805  12.485  0.0825 -0.8532  0.3769
82834SOL     OW60480   3.529  11.146  13.974 -0.1822 -0.1318  0.5739
82834SOL    HW160481   3.524  11.053  13.953 -3.2670  0.2697 -1.0836
82834SOL    HW260482   3.607  11.177  13.927  0.8431 -1.8118  1.1017
82835SOL     OW60483   0.483  13.872   2.351 -0.0068  0.0516  0.1231
82835SOL    HW160484   0.480  13.794   2.407  1.8316  0.5713  1.0348
82835SOL    HW260485   0.449  13.843   2.267 -0.3969 -1.4494  0.7713
82836SOL     OW60486  10.404   7.521   1.643 -0.2234  0.1376  0.1350
82836SOL    HW160487  10.484   7.515   1.591 -0.8212  0.7421 -0.8773
82836SOL    HW260488  10.356   7.441   1.623 -0.0643 -0.0382  0.4400
82837SOL     OW60489  12.395   1.170  12.183 -0.0962 -0.5700 -0.0472
82837SOL    HW160490  12.463   1.106  12.163 -0.8513 -1.1019 -0.9819
82837SOL    HW260491  12.433   1.254  12.157  1.1346 -0.5130  1.7431
82838SOL     OW60492   0.926   1.620   4.621  0.2554 -0.2571 -0.9663
82838SOL    HW160493   0.859   1.556   4.597 -0.0719 -0.8171  1.1928
82838SOL    HW260494   0.987   1.572   4.677  1.2877  0.7695 -1.1650
82839SOL     OW60495  11.518   6.742  12.711 -0.2966 -0.5782  0.7510
82839SOL    HW160496  11.484   6.831  12.701  1.2026 -0.0884 -0.4857
82839SOL    HW260497  11.458   6.687  12.660  0.8814  0.3237 -1.7577
82840SOL     OW60498   6.972   6.014   7.463  0.2266  0.2813  0.0227
82840SOL    HW160499   6.951   5.931   7.420 -0.0517  0.3347  0.0513
82840SOL    HW260500   6.958   6.080   7.395  2.0939  0.1796 -0.5268
82841SOL     OW60501   5.945   2.928   2.226  0.7898 -0.0486 -0.3288
82841SOL    HW160502   5.866   2.876   2.213  0.4332  0.3480  0.2088
82841SOL    HW260503   5.938   2.960   2.316  0.6289  1.5262 -0.8656
82842SOL     OW60504   9.892   1.421   0.345 -0.0258 -0.1282 -0.0128
82842SOL    HW160505   9.839   1.361   0.294  0.1135 -0.2505 -0.0137
82842SOL    HW260506   9.851   1.507   0.332  0.4529 -0.0316 -0.9325
82843SOL     OW60507   9.430   1.473   2.348 -0.0092  0.6339 -0.5504
82843SOL    HW160508   9.493   1.402   2.359 -1.2702 -0.6549 -1.3567
82843SOL    HW260509   9.441   1.501   2.257 -0.3789  0.6151 -0.6017
82844SOL     OW60510   0.815   7.878  12.026 -0.3526 -0.4848  0.3678
82844SOL    HW160511   0.800   7.972  12.037 -0.2525 -0.6478  2.1949
82844SOL    HW260512   0.901   7.863  12.065 -0.2850 -1.2978 -0.0945
82845SOL     OW60513   8.918   8.343   6.164  0.3352 -0.1117 -0.0924
82845SOL    HW160514   8.872   8.300   6.236  1.3694 -2.7649 -0.9148
82845SOL    HW260515   8.998   8.378   6.204 -0.3934  0.9097  0.5332
82846SOL     OW60516   4.776  11.027   6.423 -0.8152  0.0943  0.1808
82846SOL    HW160517   4.801  11.100   6.366  0.0014  0.5882  1.1407
82846SOL    HW260518   4.734  10.964   6.364 -1.2870  1.2082 -0.7154
82847SOL     OW60519   6.720  11.088  10.658 -0.7383  0.1511  0.4215
82847SOL    HW160520   6.652  11.089  10.589  0.7640  1.7186 -1.1268
82847SOL    HW260521   6.745  11.180  10.668  0.8610 -0.3527  1.2548
82848SOL     OW60522  10.193   5.745   0.391  0.2881  0.1135 -0.4289
82848SOL    HW160523  10.240   5.691   0.329  0.2672  0.5453 -0.8282
82848SOL    HW260524  10.171   5.825   0.342 -2.5927 -0.8401 -0.8989
82849SOL     OW60525   8.058  13.254   9.589 -0.0546  0.3284  0.5708
82849SOL    HW160526   8.067  13.268   9.683  1.7165  0.4033  0.4103
82849SOL    HW260527   7.973  13.294   9.568  0.2847  1.8444  1.8560
82850SOL     OW60528   4.723   4.409   7.795 -0.6622 -0.5386  0.2574
82850SOL    HW160529   4.795   4.396   7.857 -0.3402 -0.7632 -0.1582
82850SOL    HW260530   4.738   4.342   7.727  1.7689  2.6145 -2.6590
82851SOL     OW60531   1.741   4.388  13.888  0.5364 -0.6524 -0.0217
82851SOL    HW160532   1.834   4.392  13.869  0.4536  1.4411 -0.3283
82851SOL    HW260533   1.734   4.411  13.981  0.3939 -2.2769  0.3892
82852SOL     OW60534   0.204   2.352   5.550  0.1651 -0.2571  0.3084
82852SOL    HW160535   0.141   2.340   5.621  0.1483  1.7176  0.6910
82852SOL    HW260536   0.163   2.417   5.492  1.6110  0.7050  0.3119
82853SOL     OW60537   0.772  10.302   4.770 -0.2159 -0.4907 -0.4586
82853SOL    HW160538   0.732  10.216   4.780 -0.4225 -0.2819  0.6623
82853SOL    HW260539   0.764  10.342   4.856  0.0570  0.5782 -0.9135
82854SOL     OW60540   9.924   4.603  10.800 -0.1117 -0.3130 -0.0385
82854SOL    HW160541   9.834   4.599  10.833 -0.5007 -0.0357 -1.0313
82854SOL    HW260542   9.945   4.512  10.780 -0.4466 -0.2879 -0.5141
82855SOL     OW60543   3.001   7.663   8.305 -0.3861 -0.1154  0.2013
82855SOL    HW160544   2.942   7.695   8.373  0.6067  0.5955  0.7448
82855SOL    HW260545   2.945   7.651   8.228 -1.4790 -0.6969  1.0541
82856SOL     OW60546   3.871   0.343   4.325 -0.2831  0.5494 -0.0070
82856SOL    HW160547   3.966   0.343   4.328 -0.0883 -1.3416 -2.7287
82856SOL    HW260548   3.845   0.287   4.399  0.7289  0.5259  0.3402
82857SOL     OW60549  13.884  13.728   0.066 -0.5684  0.1080  0.0070
82857SOL    HW160550  13.843  13.768  -0.010  1.7457 -0.0914 -1.4311
82857SOL    HW260551  13.945  13.795   0.099  0.1796 -0.6498  0.2059
82858SOL     OW60552  13.158   1.500   8.263  0.2512 -0.0211 -0.4470
82858SOL    HW160553  13.252   1.510   8.282  0.2497 -0.0699 -0.4112
82858SOL    HW260554  13.131   1.426   8.317 -0.0837  0.7572  0.4782
82859SOL     OW60555   8.665  12.036  12.966 -0.1029  0.4508  0.1524
82859SOL    HW160556   8.605  12.019  12.893 -1.5507 -0.8065  1.5642
82859SOL    HW260557   8.678  11.950  13.007 -0.2296  1.2800  2.0438
82860SOL     OW60558  10.298   9.780   4.531  0.8365 -0.1090 -0.4057
82860SOL    HW160559  10.364   9.842   4.499  0.5279  0.3597 -0.1289
82860SOL    HW260560  10.288   9.800   4.624 -0.2658  0.3469 -0.6090
82861SOL     OW60561  11.354  10.598   2.304  0.0194 -0.3183  0.5921
82861SOL    HW160562  11.394  10.637   2.381 -0.9613  0.9558  0.4697
82861SOL    HW260563  11.423  10.601   2.237  0.2979  0.2179  0.8993
82862SOL     OW60564  11.731  10.088   3.949  0.0548  0.3139 -0.2093
82862SOL    HW160565  11.824  10.104   3.965  0.5386 -0.5411 -1.9375
82862SOL    HW260566  11.697  10.173   3.919  0.5154  0.3813 -0.5501
82863SOL     OW60567   2.040   5.976   9.275 -0.8681 -0.0743 -0.1285
82863SOL    HW160568   2.064   6.025   9.196 -1.0590  0.7283  0.2936
82863SOL    HW260569   1.968   5.920   9.247  0.4483 -1.3711 -1.0280
82864SOL     OW60570  11.798   4.413   9.277  0.4779  0.3098 -0.3449
82864SOL    HW160571  11.788   4.423   9.372 -0.5199  1.4346 -0.5390
82864SOL    HW260572  11.860   4.341   9.267 -0.4956 -0.7923  1.1417
82865SOL     OW60573   9.304   0.215  12.078  0.6405  0.0165 -0.1293
82865SOL    HW160574   9.338   0.147  12.137  2.0359 -0.1922 -1.1331
82865SOL    HW260575   9.327   0.186  11.990 -2.1052 -0.0702 -0.9139
82866SOL     OW60576   1.213   0.598  11.364 -0.1180 -0.0377  0.4853
82866SOL    HW160577   1.195   0.546  11.285  0.7249  0.5308 -0.1003
82866SOL    HW260578   1.297   0.640  11.346 -0.9771  1.9035  0.7573
82867SOL     OW60579  13.872  12.807  10.116 -0.3987  0.3027  0.1777
82867SOL    HW160580  13.808  12.838  10.053 -0.6834 -2.4888 -1.0390
82867SOL    HW260581  13.823  12.749  10.174  0.0225  2.1756  2.6011
82868SOL     OW60582   6.028  12.471   5.782  0.3694  0.0271 -0.2986
82868SOL    HW160583   6.066  12.383   5.777  1.5377  0.4123  1.0176
82868SOL    HW260584   5.972  12.478   5.705 -0.1993 -2.0724 -0.1184
82869SOL     OW60585   9.769   7.993   9.246 -0.6800 -0.3211 -0.1880
82869SOL    HW160586   9.836   8.045   9.202 -0.0670 -0.8478  0.0953
82869SOL    HW260587   9.774   7.907   9.204 -2.6301  0.1903 -1.6182
82870SOL     OW60588  13.223   5.424   4.617  0.2877 -0.2689  0.2712
82870SOL    HW160589  13.259   5.339   4.593  0.0101 -0.2693 -0.1389
82870SOL    HW260590  13.214   5.419   4.713  1.1092 -0.3688  0.3527
82871SOL     OW60591   0.599   5.812   6.568  0.0203  0.4484 -0.3803
82871SOL    HW160592   0.623   5.751   6.498  0.7987 -0.2627  0.4706
82871SOL    HW260593   0.574   5.755   6.641  1.8725  1.0883  0.8231
82872SOL     OW60594   5.052   4.358  13.102 -0.1444  0.4350  0.4687
82872SOL    HW160595   5.035   4.290  13.167 -0.6138 -0.7076 -0.8325
82872SOL    HW260596   4.967   4.377  13.063  0.2149  0.7572 -0.1766
82873SOL     OW60597   1.030   0.082   4.041  0.3511  0.2287  0.5193
82873SOL    HW160598   0.950   0.113   3.998 -0.8054 -0.4795  2.0949
82873SOL    HW260599   1.002   0.007   4.093  2.3399 -0.9751 -0.0505
82874SOL     OW60600   1.309   4.452   3.973  0.3320  0.1955  0.2244
82874SOL    HW160601   1.216   4.470   3.987 -0.2298 -1.7812 -0.6390
82874SOL    HW260602   1.327   4.490   3.887 -0.4022 -1.6161 -0.7970
82875SOL     OW60603   7.950   3.581   6.236 -0.2583 -0.0561 -0.2438
82875SOL    HW160604   7.918   3.569   6.325 -1.0623 -1.7778 -0.7068
82875SOL    HW260605   8.045   3.580   6.243 -0.3197 -0.0209  0.6141
82876SOL     OW60606   2.152   2.672   0.081  0.5302 -0.1836 -0.5918
82876SOL    HW160607   2.202   2.611   0.134 -1.5294 -1.8301 -0.4085
82876SOL    HW260608   2.088   2.709   0.142  0.6779  0.9300 -1.0831
82877SOL     OW60609   4.769   8.242   8.304  0.0282  0.3917 -0.6035
82877SOL    HW160610   4.776   8.337   8.297 -0.5194  0.4724 -0.1428
82877SOL    HW260611   4.675   8.226   8.318  0.2510 -0.1417  0.3262
82878SOL     OW60612   4.154   8.360   8.461  0.1324 -0.4649  0.1397
82878SOL    HW160613   4.242   8.365   8.499  0.0685  0.9231  0.1567
82878SOL    HW260614   4.125   8.451   8.458 -0.6164 -0.7372 -1.4897
82879SOL     OW60615  10.605   1.820   3.828 -0.3116  0.0571  0.3920
82879SOL    HW160616  10.658   1.895   3.852  1.3180 -0.3494 -1.6337
82879SOL    HW260617  10.668   1.749   3.813 -1.4442 -0.6399 -1.4489
82880SOL     OW60618   1.601  11.743   2.967  1.0648  0.0595 -0.2553
82880SOL    HW160619   1.517  11.717   2.930  1.7824 -1.5958 -0.8529
82880SOL    HW260620   1.666  11.713   2.903  2.2102 -0.6448  1.1655
82881SOL     OW60621   6.161   8.390   3.057 -0.0129 -0.0841 -0.1021
82881SOL    HW160622   6.122   8.304   3.069  1.9177 -1.3740 -2.1714
82881SOL    HW260623   6.247   8.372   3.018 -0.3200  2.8132 -2.5413
82882SOL     OW60624   9.604   4.443   0.443 -0.0848 -0.1886  0.9741
82882SOL    HW160625   9.599   4.441   0.538  2.0660 -0.4710  1.1175
82882SOL    HW260626   9.604   4.536   0.421  2.2080 -0.0056  1.4986
82883SOL     OW60627   5.394   4.455   3.210  0.0526  0.0289  0.3391
82883SOL    HW160628   5.322   4.519   3.203  1.0432  1.1069 -0.5321
82883SOL    HW260629   5.465   4.504   3.250 -0.0370 -1.3720  2.3371
82884SOL     OW60630  12.750  11.008   0.961  0.1743  0.3258  0.1805
82884SOL    HW160631  12.816  11.058   1.010  1.1040 -0.8958  0.2260
82884SOL    HW260632  12.749  11.047   0.874  2.2888 -0.7254 -0.3839
82885SOL     OW60633   9.153  12.419   1.819 -0.1298 -0.0490 -0.2889
82885SOL    HW160634   9.061  12.437   1.799 -0.4350  0.0455  1.1007
82885SOL    HW260635   9.156  12.326   1.838 -0.1878  0.1606  0.8334
82886SOL     OW60636  12.017  11.534   7.326 -0.6235  0.1854  0.3419
82886SOL    HW160637  11.962  11.563   7.253 -1.4692  0.4314  1.0525
82886SOL    HW260638  11.991  11.443   7.341  1.4634 -0.7521 -1.3718
82887SOL     OW60639   4.446  13.088   9.671 -0.4311 -0.3706  0.6009
82887SOL    HW160640   4.398  13.169   9.689 -4.3976 -2.3060 -0.1056
82887SOL    HW260641   4.465  13.052   9.758 -3.5975 -1.1558  1.1170
82888SOL     OW60642   8.461   7.596   8.406  0.2534 -0.2135 -0.1783
82888SOL    HW160643   8.499   7.542   8.475  0.4324 -0.8252 -0.7360
82888SOL    HW260644   8.490   7.685   8.426 -0.4368 -0.2510  1.0191
82889SOL     OW60645   6.948   4.390   6.944  0.4969  0.1744 -0.2819
82889SOL    HW160646   6.966   4.450   7.017  4.2325 -0.2845 -0.6008
82889SOL    HW260647   6.994   4.310   6.968 -0.7188 -1.0457 -1.8550
82890SOL     OW60648   6.443   2.803  10.596  0.1697  0.0857  0.1468
82890SOL    HW160649   6.476   2.889  10.569  0.9264 -0.2187  0.0951
82890SOL    HW260650   6.509   2.770  10.657  1.2970 -1.6334 -1.8646
82891SOL     OW60651   8.929   3.998   6.639  0.3540  0.0456 -0.4021
82891SOL    HW160652   8.887   4.077   6.606  1.0867  0.3412 -0.6536
82891SOL    HW260653   8.868   3.928   6.619 -0.6267  0.6212  0.4450
82892SOL     OW60654   0.948  10.012   5.532 -0.6871  0.0782  1.0015
82892SOL    HW160655   1.002  10.053   5.464 -0.1643 -0.3748  1.1352
82892SOL    HW260656   0.948   9.919   5.509 -1.6502  0.1104  0.8445
82893SOL     OW60657   5.791   1.298   0.001 -0.1973 -0.3194 -1.0750
82893SOL    HW160658   5.745   1.215  -0.012  0.6575 -1.0009  0.0422
82893SOL    HW260659   5.834   1.289   0.086  0.6332  0.9320 -1.3273
82894SOL     OW60660  13.361  11.367   2.935  0.3870 -0.1966 -0.5695
82894SOL    HW160661  13.417  11.310   2.882 -0.1027 -1.0310 -0.2158
82894SOL    HW260662  13.389  11.456   2.912  1.5112 -0.5770 -0.7689
82895SOL     OW60663   6.575   9.161   3.832  0.0209 -0.3302  0.3262
82895SOL    HW160664   6.618   9.244   3.852  1.3820 -0.4788 -1.7468
82895SOL    HW260665   6.523   9.178   3.754 -1.2355 -0.9723  0.9853
82896SOL     OW60666   6.877   3.193  11.067 -0.2916  0.3088  0.2469
82896SOL    HW160667   6.941   3.125  11.049 -0.3204  0.8149 -2.0814
82896SOL    HW260668   6.848   3.176  11.157  2.0407 -0.7606  0.8646
82897SOL     OW60669  12.587   4.231   5.794  0.4685  0.3983 -0.2294
82897SOL    HW160670  12.552   4.147   5.764  0.0228  0.5813 -0.2398
82897SOL    HW260671  12.650   4.209   5.862 -0.6947  0.1166  0.7888
82898SOL     OW60672   1.502   3.846   9.946 -0.4595 -0.5066  0.8133
82898SOL    HW160673   1.568   3.827   9.879 -0.3527 -0.2525  0.8467
82898SOL    HW260674   1.449   3.766   9.951  1.0493 -1.4831  2.2015
82899SOL     OW60675  11.071  12.502   9.457  0.4852  0.2154 -0.1853
82899SOL    HW160676  11.132  12.554   9.405  0.5626  0.7387  0.4186
82899SOL    HW260677  11.125  12.466   9.528  0.4006 -0.5613 -0.5105
82900SOL     OW60678  12.441  10.964  10.112 -0.3845  0.2776 -0.4385
82900SOL    HW160679  12.531  10.961  10.143 -0.2881  0.5239 -0.6903
82900SOL    HW260680  12.431  10.886  10.058 -0.3605  0.1858 -0.3105
82901SOL     OW60681   1.719   5.152   4.881 -0.0145 -0.2209 -0.3404
82901SOL    HW160682   1.770   5.162   4.801  0.4171 -0.1518 -0.0577
82901SOL    HW260683   1.699   5.058   4.885  0.5916 -0.3439 -0.1490
82902SOL     OW60684   0.907   4.046   2.573 -0.2727 -0.1137  0.2540
82902SOL    HW160685   0.855   3.992   2.632  0.0746 -1.6003 -0.7193
82902SOL    HW260686   0.844   4.086   2.513 -0.3651 -2.4035 -1.3212
82903SOL     OW60687  11.949   3.060  13.684 -0.6319  0.0372 -0.4797
82903SOL    HW160688  11.858   3.032  13.682 -0.6055 -0.3975  1.6768
82903SOL    HW260689  11.990   3.002  13.748  0.8979  0.9566 -0.5844
82904SOL     OW60690   9.235   4.250   7.693  0.0620 -0.3852 -0.1314
82904SOL    HW160691   9.269   4.216   7.611 -1.1328 -1.2463 -0.2949
82904SOL    HW260692   9.156   4.198   7.710 -0.4231  0.6364  0.8973
82905SOL     OW60693   3.277   2.896   3.604 -0.6542  0.5301  0.3334
82905SOL    HW160694   3.187   2.921   3.582 -0.3595  2.4031  1.1112
82905SOL    HW260695   3.267   2.824   3.666 -1.5687 -0.1238 -0.5243
82906SOL     OW60696   4.668   2.114   5.980  0.2422 -0.3310 -0.5728
82906SOL    HW160697   4.643   2.117   5.888  0.8240 -3.3641 -0.9305
82906SOL    HW260698   4.627   2.192   6.019  0.8423  1.5957 -3.5280
82907SOL     OW60699  10.657  12.591   2.909 -0.4822  0.5294  0.2622
82907SOL    HW160700  10.610  12.512   2.937 -0.5680 -0.0299 -1.3433
82907SOL    HW260701  10.594  12.638   2.854  0.7436 -0.2584 -1.9795
82908SOL     OW60702   2.982   9.286  10.964 -0.2778  0.1110 -0.0014
82908SOL    HW160703   2.925   9.362  10.956 -0.2559  0.3152  1.5476
82908SOL    HW260704   3.039   9.291  10.888 -3.0658 -0.7922 -2.3554
82909SOL     OW60705  12.001  13.482  13.245 -0.3717  0.2835  0.9577
82909SOL    HW160706  11.949  13.403  13.261  0.4128 -0.1052  1.6929
82909SOL    HW260707  12.080  13.450  13.201 -0.6228  0.8384  0.0651
82910SOL     OW60708   7.644  12.497   6.702  0.0644  0.5991  0.2419
82910SOL    HW160709   7.706  12.547   6.756 -0.4374  0.5240  0.9025
82910SOL    HW260710   7.647  12.409   6.738 -0.4940  0.6173  0.3320
82911SOL     OW60711   7.942   1.216   0.605 -0.2239  0.3334  0.0279
82911SOL    HW160712   7.916   1.261   0.685  0.9591  2.2164 -0.5698
82911SOL    HW260713   7.948   1.124   0.630 -0.4222  0.7962  1.9546
82912SOL     OW60714  11.468  11.707   6.946  0.1439 -0.5166  0.7311
82912SOL    HW160715  11.542  11.754   6.984  0.4818 -1.0048  0.6932
82912SOL    HW260716  11.432  11.767   6.881  0.2489 -0.1137  1.0395
82913SOL     OW60717   2.001   8.180  13.054 -0.2062  0.2291  0.1596
82913SOL    HW160718   1.991   8.104  13.111 -3.0260  0.4746  0.1348
82913SOL    HW260719   1.957   8.155  12.972 -0.5424  1.5956 -0.1164
82914SOL     OW60720  10.018   6.720  11.230 -0.9451 -0.2688 -0.4496
82914SOL    HW160721  10.082   6.660  11.267 -0.4786  0.3441 -0.2693
82914SOL    HW260722  10.027   6.709  11.135  0.5885  1.0211 -0.4764
82915SOL     OW60723  12.514  11.859   0.583  0.3931 -0.0553  0.5517
82915SOL    HW160724  12.517  11.777   0.534  0.4347 -0.9957  2.0554
82915SOL    HW260725  12.484  11.924   0.520  0.3342 -1.2289 -0.6730
82916SOL     OW60726   4.649   2.001   8.139  0.6063  0.3425 -0.4573
82916SOL    HW160727   4.586   2.013   8.211  0.7518 -2.6237  0.2649
82916SOL    HW260728   4.732   1.984   8.183  0.9119 -0.5124 -1.3457
82917SOL     OW60729   0.627  12.596   0.503 -0.0895 -0.1316 -0.3817
82917SOL    HW160730   0.627  12.691   0.517 -2.3571  0.3610 -2.9394
82917SOL    HW260731   0.663  12.585   0.415 -0.7037 -1.5809 -0.4734
82918SOL     OW60732   8.875   2.985  13.830  0.1227  0.1574  0.0421
82918SOL    HW160733   8.813   3.056  13.849 -0.6486 -0.2177 -1.0096
82918SOL    HW260734   8.931   2.981  13.908  0.3968  2.1204 -0.0093
82919SOL     OW60735  11.843  12.114  11.260  0.0098 -0.4606  0.0829
82919SOL    HW160736  11.772  12.108  11.196 -0.2683  0.8123  0.2395
82919SOL    HW260737  11.807  12.169  11.330  1.9011  2.2577 -0.9463
82920SOL     OW60738   4.729  13.746   0.346 -0.2537 -0.2434  0.0292
82920SOL    HW160739   4.714  13.654   0.328  1.1406 -0.3755 -0.5932
82920SOL    HW260740   4.643  13.787   0.338 -0.4492 -1.0039 -2.7621
82921SOL     OW60741  12.033  11.755   3.798  0.1012 -0.1959  0.0661
82921SOL    HW160742  12.057  11.662   3.796  0.5383 -0.0801 -0.2450
82921SOL    HW260743  11.945  11.757   3.835  1.0674 -0.5444  2.6277
82922SOL     OW60744   1.862   2.162  12.848  0.4472 -0.7803  0.7166
82922SOL    HW160745   1.867   2.176  12.754 -2.0622 -0.4466  0.5699
82922SOL    HW260746   1.925   2.091  12.865 -0.2855 -2.0569 -1.4931
82923SOL     OW60747   2.474   8.124   9.802 -0.3493 -0.0505  0.3136
82923SOL    HW160748   2.471   8.029   9.798  0.1786 -0.0600 -0.0031
82923SOL    HW260749   2.384   8.151   9.817 -0.8477 -0.5047 -1.6277
82924SOL     OW60750  12.634  11.146   5.518 -0.4161  0.2537  0.2519
82924SOL    HW160751  12.610  11.075   5.578  0.8382  0.7113  1.3434
82924SOL    HW260752  12.626  11.226   5.570 -1.2334  0.8760 -0.7844
82925SOL     OW60753   9.774  10.984   4.790  0.4354 -0.1621 -0.4603
82925SOL    HW160754   9.722  10.910   4.760  1.0022 -0.2403 -1.2668
82925SOL    HW260755   9.765  11.050   4.722 -0.3008  0.6421  0.3870
82926SOL     OW60756   5.965   6.087  14.044 -0.4257  0.4432  0.1074
82926SOL    HW160757   6.049   6.115  14.079 -0.8354  1.6200  0.1893
82926SOL    HW260758   5.975   6.097  13.949 -0.2131 -0.1678  0.0650
82927SOL     OW60759   7.971  12.242   5.770  0.3093 -0.1325 -0.6186
82927SOL    HW160760   8.019  12.160   5.779  0.7230  0.1575 -0.1361
82927SOL    HW260761   7.960  12.254   5.676  1.3428 -0.1093 -0.7414
82928SOL     OW60762   0.078   6.827   8.660 -0.0161  0.0056  0.4912
82928SOL    HW160763   0.147   6.761   8.649  1.1777  1.2946 -0.1300
82928SOL    HW260764   0.097   6.867   8.745 -0.1232  0.2030  0.4235
82929SOL     OW60765   4.569  10.594   0.636 -0.2739  0.3111  0.6888
82929SOL    HW160766   4.529  10.668   0.590  1.4095  0.6369 -0.3291
82929SOL    HW260767   4.563  10.522   0.574 -0.1149  0.1327  0.8813
82930SOL     OW60768   1.715   3.182   5.070 -0.0755  0.5496  0.2142
82930SOL    HW160769   1.639   3.189   5.127 -0.7082  0.4555 -0.6055
82930SOL    HW260770   1.744   3.273   5.057  0.2702  0.5518  0.9246
82931SOL     OW60771   1.204  12.367   2.880  0.3014  0.2115 -0.0803
82931SOL    HW160772   1.171  12.284   2.913 -0.6603  0.8123  0.5004
82931SOL    HW260773   1.278  12.343   2.824  1.2549 -0.9306  1.5637
82932SOL     OW60774   7.441   8.402  13.666 -0.1542 -0.0731  0.0214
82932SOL    HW160775   7.385   8.440  13.735 -0.5305 -2.5900  1.2060
82932SOL    HW260776   7.521   8.378  13.712  0.1949 -0.4255 -0.7630
82933SOL     OW60777   5.274  12.640   0.855  0.2555  0.0573 -0.0062
82933SOL    HW160778   5.343  12.704   0.836 -1.5722  3.5193  3.4905
82933SOL    HW260779   5.197  12.672   0.807 -0.2131 -0.6736  0.2397
82934SOL     OW60780  12.861   0.220   4.923 -0.2899 -0.4556 -0.1812
82934SOL    HW160781  12.912   0.139   4.929  0.2111 -0.1379 -0.0492
82934SOL    HW260782  12.893   0.274   4.996 -0.6837 -0.1748 -0.2132
82935SOL     OW60783   5.623  13.146   3.250 -0.3388 -0.2394  0.6415
82935SOL    HW160784   5.650  13.097   3.328 -1.9799 -0.1058  1.3400
82935SOL    HW260785   5.664  13.101   3.177  0.8121 -0.6826  1.5413
82936SOL     OW60786   5.123   6.078  10.317  0.2192  0.1806 -0.1072
82936SOL    HW160787   5.130   6.079  10.412 -1.7632  1.5833  0.0915
82936SOL    HW260788   5.059   6.008  10.298  0.8705 -0.3342 -0.4568
82937SOL     OW60789   2.145  12.245   4.427  0.1756 -0.1257  0.0575
82937SOL    HW160790   2.166  12.181   4.359  0.5709  0.0589  0.0086
82937SOL    HW260791   2.164  12.200   4.510  1.2906  0.2237  0.0039
82938SOL     OW60792   6.014   6.924   8.889  0.5498 -0.0614  0.1574
82938SOL    HW160793   5.988   6.946   8.800  0.9273 -1.2946 -0.2769
82938SOL    HW260794   6.094   6.975   8.904  0.6471 -0.0716 -0.3092
82939SOL     OW60795   1.660   0.859   7.765  0.7125  0.1371 -0.0950
82939SOL    HW160796   1.741   0.856   7.712 -0.2435 -1.4055 -1.5972
82939SOL    HW260797   1.615   0.938   7.736  1.5237  0.8649  0.5611
82940SOL     OW60798   7.832   5.780   6.674 -0.3782 -0.1478 -0.3280
82940SOL    HW160799   7.791   5.828   6.745 -2.3496 -1.5011 -0.4800
82940SOL    HW260800   7.876   5.847   6.621 -2.0283  1.3343  0.1209
82941SOL     OW60801   7.176   4.556   1.609  0.3405  0.6140 -0.1171
82941SOL    HW160802   7.147   4.516   1.527  0.1775  0.5301 -0.0190
82941SOL    HW260803   7.098   4.599   1.643  0.3503  0.4513  0.1112
82942SOL     OW60804   8.991  11.513   9.045  0.3819 -0.1755  0.1848
82942SOL    HW160805   8.987  11.580   9.114 -1.3302 -1.3828  1.3518
82942SOL    HW260806   8.948  11.553   8.970  0.4856  0.4585  0.4539
82943SOL     OW60807   7.093  11.841  12.201 -1.3410  0.1490 -0.7299
82943SOL    HW160808   7.062  11.752  12.184  0.2715 -1.0235  1.8042
82943SOL    HW260809   7.188  11.837  12.188 -0.9074  0.7827  1.6847
82944SOL     OW60810  13.514   9.261  11.943 -0.9125  1.0247  0.0048
82944SOL    HW160811  13.420   9.259  11.925 -1.0839 -0.3319  0.9471
82944SOL    HW260812  13.521   9.245  12.037  0.2477  1.6467  0.0418
82945SOL     OW60813   8.919   3.498  11.214 -0.5975  0.5531 -0.0985
82945SOL    HW160814   8.894   3.449  11.293  2.1028 -0.6206  0.1309
82945SOL    HW260815   8.920   3.589  11.241 -1.6782  0.3699  0.6232
82946SOL     OW60816   7.815   5.446   8.468  0.3362  0.0889 -0.8668
82946SOL    HW160817   7.902   5.451   8.507  0.1377 -2.8210  0.1881
82946SOL    HW260818   7.831   5.450   8.373  1.2823  2.4691 -0.6602
82947SOL     OW60819   7.349  11.993  12.887  0.0874  0.1652 -0.5690
82947SOL    HW160820   7.254  11.993  12.886 -0.1584  1.7991  3.6165
82947SOL    HW260821   7.374  12.079  12.853  0.1769 -0.4784 -2.2155
82948SOL     OW60822  12.621  13.198   5.874 -0.7676 -0.1246 -0.3182
82948SOL    HW160823  12.708  13.226   5.902  0.0093 -2.1985 -0.5099
82948SOL    HW260824  12.565  13.274   5.892  0.8947  0.9501  0.6260
82949SOL     OW60825  14.015   7.910  13.830 -0.0592  0.1198 -0.5507
82949SOL    HW160826  14.045   7.957  13.752  0.8056 -1.2660 -1.1041
82949SOL    HW260827  13.929   7.876  13.806 -0.7727  1.5459 -0.0771
82950SOL     OW60828   9.553   5.995   8.063  0.2390  0.6629  0.4460
82950SOL    HW160829   9.518   5.973   8.149  1.6448  0.9139  1.1060
82950SOL    HW260830   9.621   6.060   8.079  1.5224 -0.3153 -0.6728
82951SOL     OW60831   7.042  13.397  12.035  0.4058  0.0884  0.5819
82951SOL    HW160832   7.028  13.485  11.998  1.8939  0.4076  0.7115
82951SOL    HW260833   7.010  13.338  11.967  1.6633  0.6963 -0.5931
82952SOL     OW60834   0.868   4.343   2.386 -0.8836  0.0722  0.1005
82952SOL    HW160835   0.946   4.398   2.382 -1.6142  1.1319 -0.0131
82952SOL    HW260836   0.844   4.342   2.478  0.8848 -2.6702  0.6607
82953SOL     OW60837   6.410   0.050   5.718  0.6905  0.0076  0.1195
82953SOL    HW160838   6.382   0.073   5.807  1.2594  0.4797  0.1815
82953SOL    HW260839   6.395   0.130   5.667 -1.4060 -0.7893 -0.6579
82954SOL     OW60840  10.369  13.164   6.153 -0.1508  0.4075 -0.0099
82954SOL    HW160841  10.430  13.114   6.098  0.3729 -0.1362  1.0372
82954SOL    HW260842  10.350  13.243   6.102  0.8104  0.2165 -0.6968
82955SOL     OW60843   0.286   1.623  11.461  0.4961  0.2669  0.5891
82955SOL    HW160844   0.361   1.597  11.408  0.1110 -0.2371  0.2806
82955SOL    HW260845   0.216   1.562  11.435 -0.0724  0.8498  0.7303
82956SOL     OW60846   6.481   0.689  10.800  0.2772 -0.3374 -0.1618
82956SOL    HW160847   6.422   0.652  10.865  0.9105 -0.6306  0.2606
82956SOL    HW260848   6.553   0.626  10.794  0.0984 -0.4517 -1.3524
82957SOL     OW60849   5.121  13.211  11.489 -0.8747  0.5022  0.4341
82957SOL    HW160850   5.078  13.146  11.544 -0.8308 -0.2693 -0.4153
82957SOL    HW260851   5.096  13.296  11.527 -1.6395  0.0160  1.0349
82958SOL     OW60852  12.772  13.471  13.339  0.2393 -0.2344 -0.3977
82958SOL    HW160853  12.801  13.562  13.342  1.5411 -0.6224 -0.6805
82958SOL    HW260854  12.711  13.468  13.266  0.3061  0.3757 -0.4832
82959SOL     OW60855   8.537   4.523   3.802  0.2053  0.4779  0.3338
82959SOL    HW160856   8.628   4.497   3.817 -0.0020 -2.0819 -2.0018
82959SOL    HW260857   8.485   4.457   3.846 -0.5268  1.2333  0.6363
82960SOL     OW60858   5.498  10.596   3.906 -0.1834 -0.2767  0.2106
82960SOL    HW160859   5.459  10.680   3.932  1.7271  0.4495  0.8990
82960SOL    HW260860   5.549  10.617   3.828 -0.8755 -1.1517 -0.5060
82961SOL     OW60861   0.256   6.474   9.431 -0.5786  0.0652 -0.1215
82961SOL    HW160862   0.190   6.444   9.368 -0.7946  1.7292 -0.7297
82961SOL    HW260863   0.312   6.398   9.445 -0.0292 -0.1417 -2.9423
82962SOL     OW60864   4.797  12.128   9.664 -0.0840 -0.1107 -0.1286
82962SOL    HW160865   4.732  12.081   9.716 -1.4118 -1.7186 -3.0078
82962SOL    HW260866   4.757  12.214   9.648  0.6021  0.6350  1.8555
82963SOL     OW60867   3.879   2.916   7.049  0.1892  0.5683 -0.1064
82963SOL    HW160868   3.850   3.001   7.082  0.3901  0.7645 -0.4331
82963SOL    HW260869   3.972   2.927   7.033  0.1871  0.3323 -0.2910
82964SOL     OW60870   8.910   4.225  12.707  0.7241  0.2923 -0.0009
82964SOL    HW160871   8.865   4.236  12.623  0.3411 -0.9211  0.0171
82964SOL    HW260872   8.955   4.141  12.699 -1.0863 -0.9287  1.7523
82965SOL     OW60873   9.104   4.160   9.527  0.8880  0.3945 -0.1358
82965SOL    HW160874   9.167   4.117   9.585  0.8310 -0.8223 -0.9222
82965SOL    HW260875   9.025   4.168   9.580  0.3985 -1.9492 -0.3711
82966SOL     OW60876  13.667  12.005   2.614 -0.2753 -0.1628 -0.6433
82966SOL    HW160877  13.675  11.977   2.522 -2.6115  0.2986 -1.0473
82966SOL    HW260878  13.649  12.099   2.609  0.3268  0.0206  0.3558
82967SOL     OW60879  10.127   0.255  13.416  0.2770  0.2232 -0.1776
82967SOL    HW160880  10.120   0.350  13.417 -1.3622  0.1369  1.0414
82967SOL    HW260881  10.156   0.232  13.505  0.5328 -0.4151 -0.4211
82968SOL     OW60882  11.252   2.840  11.644 -0.5509  0.5938 -0.0371
82968SOL    HW160883  11.250   2.869  11.553 -1.5730  1.9871  0.4043
82968SOL    HW260884  11.322   2.774  11.646 -2.2842 -1.5547 -2.3999
82969SOL     OW60885  11.230   7.723  10.736  0.4382 -0.1838 -0.0152
82969SOL    HW160886  11.321   7.751  10.736  0.6324 -0.8002  0.1523
82969SOL    HW260887  11.227   7.651  10.800 -0.5036  0.9250  1.2329
82970SOL     OW60888   9.281  13.962   1.114  0.6424 -0.6609  0.4708
82970SOL    HW160889   9.198  13.918   1.095  1.3763 -3.0174  2.2256
82970SOL    HW260890   9.265  14.008   1.196  0.4687  0.7781 -0.3417
82971SOL     OW60891  12.519   9.430   1.954  0.5370  0.1385  0.2601
82971SOL    HW160892  12.594   9.376   1.977  0.1577 -0.9539 -0.9264
82971SOL    HW260893  12.454   9.368   1.922 -0.5021  1.1629  0.3229
82972SOL     OW60894   4.113  11.514  10.988 -0.0008  0.0903  0.2991
82972SOL    HW160895   4.138  11.506  11.080  0.1058 -0.5431  0.2209
82972SOL    HW260896   4.050  11.443  10.974  0.7293 -0.4474 -0.3609
82973SOL     OW60897   0.495  12.642  11.690 -0.3764 -0.3387 -0.2616
82973SOL    HW160898   0.561  12.620  11.756  0.1907 -1.6490 -1.2155
82973SOL    HW260899   0.535  12.617  11.607 -0.9846  1.4748 -1.1603
82974SOL     OW60900   6.753  11.509  12.926  0.0791 -0.1587  0.5046
82974SOL    HW160901   6.824  11.448  12.905 -0.0771 -0.6468  1.3601
82974SOL    HW260902   6.677  11.454  12.943 -0.8151  0.4019 -1.4420
82975SOL     OW60903   4.208  10.252  10.782 -0.2246  0.2116 -0.0412
82975SOL    HW160904   4.257  10.213  10.856  2.0417 -1.1342 -2.0885
82975SOL    HW260905   4.160  10.179  10.744  0.2773  0.4138 -1.0978
82976SOL     OW60906   0.419   5.146   1.428  1.0151  0.3145  0.1978
82976SOL    HW160907   0.428   5.210   1.358  0.7436 -0.5799 -0.6782
82976SOL    HW260908   0.349   5.180   1.483  1.7834  1.4388  0.5086
82977SOL     OW60909   7.486  11.573  11.595  0.5754 -0.5601 -0.0503
82977SOL    HW160910   7.578  11.561  11.618  0.7740  1.7418  0.6892
82977SOL    HW260911   7.487  11.601  11.503  0.7477  0.5536  0.2756
82978SOL     OW60912   9.202  13.897   3.851 -0.0513  0.2746  0.5059
82978SOL    HW160913   9.134  13.957   3.880 -0.2946 -0.0813  0.6811
82978SOL    HW260914   9.190  13.819   3.905  0.7739  0.3709  0.8402
82979SOL     OW60915  10.238   1.152   3.431  0.1922 -0.2802  0.2804
82979SOL    HW160916  10.177   1.186   3.365  1.3599  2.0093  0.2747
82979SOL    HW260917  10.189   1.154   3.513 -0.3405 -0.3205 -0.0308
82980SOL     OW60918   9.074   5.941  11.435  0.2930  0.3692  0.5846
82980SOL    HW160919   9.028   5.913  11.514 -0.5183  0.2160  0.0728
82980SOL    HW260920   9.166   5.921  11.453  0.0981  0.1501  1.4043
82981SOL     OW60921   9.923  10.031   1.134  0.6541  0.2297  0.3575
82981SOL    HW160922   9.997  10.092   1.132  1.7562 -1.0117 -2.9797
82981SOL    HW260923   9.964   9.944   1.128 -1.0269 -0.6405  0.9590
82982SOL     OW60924   6.130  12.707   0.114  0.7741  0.0347  0.5684
82982SOL    HW160925   6.092  12.722   0.027  1.0051  0.9037  0.6169
82982SOL    HW260926   6.212  12.755   0.113 -0.2757  1.9739  2.0559
82983SOL     OW60927  14.028  13.481   1.674 -0.7012  0.9500  0.2783
82983SOL    HW160928  13.940  13.481   1.711  0.1094  2.1387  2.3077
82983SOL    HW260929  14.081  13.433   1.737  0.3710  1.3744 -0.2711
82984SOL     OW60930  11.703  11.876   2.253  0.1206 -0.2375 -0.4187
82984SOL    HW160931  11.676  11.916   2.335  2.0736  2.1014 -0.8159
82984SOL    HW260932  11.782  11.826   2.276  0.9483  0.8130 -0.9135
82985SOL     OW60933   1.950  13.717  13.217 -0.1625 -0.4455  0.1466
82985SOL    HW160934   1.893  13.791  13.196 -1.6809 -1.4832  0.4087
82985SOL    HW260935   2.039  13.749  13.201 -0.8835  0.6912 -2.0144
82986SOL     OW60936   2.274   3.439   8.559  0.2360 -0.5670  0.3103
82986SOL    HW160937   2.261   3.439   8.653 -1.5035 -1.5000  0.1050
82986SOL    HW260938   2.212   3.374   8.525  0.5775 -0.0236 -1.5052
82987SOL     OW60939   3.138   8.125   8.754  0.4302 -0.7119 -0.5601
82987SOL    HW160940   3.099   8.044   8.722 -0.3954 -0.8419  0.7090
82987SOL    HW260941   3.221   8.132   8.707  1.8060 -3.6666  1.1642
82988SOL     OW60942   7.561  11.627   3.736  0.3766  0.3415 -0.1829
82988SOL    HW160943   7.548  11.608   3.829 -0.1818 -0.6252 -0.4525
82988SOL    HW260944   7.656  11.639   3.728  0.4196  0.5216  0.5238
82989SOL     OW60945   5.365  13.932   3.925  0.0994 -0.1988  0.3585
82989SOL    HW160946   5.435  13.971   3.976  0.0508 -0.0672  0.3250
82989SOL    HW260947   5.296  13.913   3.988  0.2767 -0.5899  0.4368
82990SOL     OW60948  12.013   5.379   2.681  0.0647 -0.2676  0.4837
82990SOL    HW160949  12.082   5.315   2.701  1.7615  0.4954 -2.3512
82990SOL    HW260950  12.055   5.464   2.694 -1.4347  0.3331  1.8606
82991SOL     OW60951   7.007   7.844   9.511 -0.1220  0.7962 -0.3917
82991SOL    HW160952   6.972   7.798   9.587  0.0633  1.1732 -0.0748
82991SOL    HW260953   6.932   7.851   9.451  0.4139 -2.2356 -1.6274
82992SOL     OW60954  11.313  11.420   5.769 -0.6897 -0.2889 -0.2709
82992SOL    HW160955  11.285  11.404   5.860 -1.1012  3.0665  0.3186
82992SOL    HW260956  11.407  11.408   5.770 -0.8495 -1.6793  0.2244
82993SOL     OW60957   0.438   2.786  10.241  0.2526  0.3190  0.1830
82993SOL    HW160958   0.348   2.814  10.229  0.4643  0.3108 -1.8906
82993SOL    HW260959   0.479   2.856  10.292 -0.8078  0.5401  0.7466
82994SOL     OW60960  14.018   7.329   9.002  0.2493 -0.4713 -0.3851
82994SOL    HW160961  14.008   7.247   9.051  0.4379  1.2815  2.8797
82994SOL    HW260962  14.113   7.345   9.002  0.1683  0.0185 -0.5171
82995SOL     OW60963   5.301   4.308   1.837 -0.0460  0.3358  0.0301
82995SOL    HW160964   5.291   4.355   1.920 -1.3333  0.7414 -0.3239
82995SOL    HW260965   5.318   4.377   1.773 -1.0940  0.2544 -0.3557
82996SOL     OW60966  13.390  10.187   7.659  0.3870  0.1122 -0.0695
82996SOL    HW160967  13.422  10.138   7.735  1.1105  0.3659 -0.2028
82996SOL    HW260968  13.455  10.255   7.645  1.9695 -1.7804 -2.8295
82997SOL     OW60969   3.846   6.363   3.606  0.4682  0.0379 -0.0141
82997SOL    HW160970   3.914   6.381   3.672 -1.7428  1.2036  2.1027
82997SOL    HW260971   3.827   6.449   3.567 -0.4259 -0.0940  0.1091
82998SOL     OW60972   5.955   0.099   4.733 -0.2024  0.5982 -0.2420
82998SOL    HW160973   5.862   0.120   4.722 -0.5186 -0.6430 -0.0139
82998SOL    HW260974   5.998   0.185   4.735 -1.3101  1.1834 -0.5621
82999SOL     OW60975  10.693   0.453  11.031  0.5516  0.0477 -0.3687
82999SOL    HW160976  10.715   0.467  10.939  0.2502 -1.6263 -0.7284
82999SOL    HW260977  10.734   0.527  11.076  1.9909  0.1122 -1.6635
83000SOL     OW60978   4.209   2.180   2.445 -0.1904 -0.2172  0.0487
83000SOL    HW160979   4.151   2.239   2.398  1.0124  0.2298 -0.9172
83000SOL    HW260980   4.172   2.177   2.534 -1.4140  0.3980 -0.4069
83001SOL     OW60981   5.777   2.588   4.295 -0.2134  0.3263 -0.2541
83001SOL    HW160982   5.709   2.537   4.339 -0.9131  1.6433  0.2555
83001SOL    HW260983   5.832   2.621   4.367 -0.2501  0.9560 -0.5158
83002SOL     OW60984   2.147   2.675   7.331  0.2418  0.1442 -0.1458
83002SOL    HW160985   2.068   2.718   7.298  0.1823 -0.5706 -0.9943
83002SOL    HW260986   2.132   2.664   7.425 -0.5197  0.3302 -0.2407
83003SOL     OW60987   9.416   9.103  11.767  0.1897  0.0333 -0.1165
83003SOL    HW160988   9.337   9.148  11.797  0.3561 -0.1648  0.6467
83003SOL    HW260989   9.474   9.103  11.843  0.4191 -0.9424 -0.2762
83004SOL     OW60990   0.136  10.613   2.661 -0.0421  0.0189  0.4150
83004SOL    HW160991   0.144  10.556   2.584  0.8324  0.7891 -0.0951
83004SOL    HW260992   0.072  10.569   2.717  0.4616 -1.3629 -0.0419
83005SOL     OW60993   5.957   2.729   1.561 -0.4047 -0.7123 -0.1514
83005SOL    HW160994   5.937   2.663   1.494 -0.9649 -0.0401 -0.6643
83005SOL    HW260995   5.955   2.812   1.513 -1.8138 -0.1132  0.8838
83006SOL     OW60996   9.992   4.418  12.350  1.0152  0.3670  0.1379
83006SOL    HW160997   9.896   4.424  12.359  0.8459  2.0283 -1.9166
83006SOL    HW260998  10.025   4.496  12.394  1.0554  1.9011 -2.4190
83007SOL     OW60999   9.026   9.018   9.580  0.2743 -0.4412  0.1994
83007SOL    HW161000   8.978   8.953   9.529 -0.8192  0.2754  0.2875
83007SOL    HW261001   9.063   8.969   9.653  1.7024 -1.4521 -1.1242
83008SOL     OW61002   1.828   5.595  13.599  1.1118 -0.5048 -0.1308
83008SOL    HW161003   1.818   5.683  13.565 -1.2827 -0.3542  0.7960
83008SOL    HW261004   1.922   5.579  13.596  1.4151  1.1533 -2.5135
83009SOL     OW61005  13.281  13.520   9.638  0.1566 -0.1560 -0.5899
83009SOL    HW161006  13.234  13.551   9.716 -1.4731 -0.5360 -1.3730
83009SOL    HW261007  13.367  13.495   9.671  0.2411  1.6218  0.7208
83010SOL     OW61008   4.718  12.933  11.159 -0.0311 -0.2755  0.1630
83010SOL    HW161009   4.779  12.954  11.088 -0.6467  1.5823  0.1371
83010SOL    HW261010   4.771  12.942  11.238 -0.2982  1.7770  0.1716
83011SOL     OW61011   6.405   6.943   7.932  0.2881 -0.0398 -0.1546
83011SOL    HW161012   6.454   6.860   7.932  2.5092  1.1140  1.9712
83011SOL    HW261013   6.473   7.010   7.929 -1.1961  1.6845  1.8340
83012SOL     OW61014   3.018  11.322  10.154  0.1722 -0.4089  0.0143
83012SOL    HW161015   2.986  11.274  10.078  1.2938  1.2604 -1.6092
83012SOL    HW261016   2.954  11.392  10.166  1.2201  0.7565 -0.9474
83013SOL     OW61017   9.931   4.615  13.068 -0.1454  0.3800  0.3598
83013SOL    HW161018   9.895   4.674  13.134 -2.7233 -1.7531  1.0487
83013SOL    HW261019  10.006   4.573  13.112 -2.1382 -1.4157  2.3246
83014SOL     OW61020   2.796   8.665  12.700  0.0339 -0.1758 -0.1635
83014SOL    HW161021   2.819   8.579  12.663 -1.1277 -0.9271  0.7629
83014SOL    HW261022   2.712   8.650  12.745  0.6025  1.0446  1.4078
83015SOL     OW61023   0.108   9.864   0.044  0.1467 -0.1064  0.3910
83015SOL    HW161024   0.175   9.830   0.105  0.1025 -1.5059 -0.2915
83015SOL    HW261025   0.030   9.874   0.098  0.2954 -0.6626  0.7218
83016SOL     OW61026   6.668  12.662   0.905  0.3922 -0.1878  0.2904
83016SOL    HW161027   6.748  12.649   0.854  0.8432 -1.2446  1.2238
83016SOL    HW261028   6.633  12.573   0.917  0.0846  0.0809  1.4612
83017SOL     OW61029  10.775  12.808  10.340 -0.4250  0.2334  0.5387
83017SOL    HW161030  10.808  12.762  10.263 -0.3764 -0.8733  1.1935
83017SOL    HW261031  10.727  12.884  10.305  0.3796  0.2684 -0.5268
83018SOL     OW61032   6.489   1.128   7.135  0.3013  0.3370  0.6759
83018SOL    HW161033   6.511   1.199   7.195  1.1536  0.1239  0.6227
83018SOL    HW261034   6.425   1.167   7.076  2.2438  1.7234 -0.6507
83019SOL     OW61035   1.477   9.130  11.154 -0.2918  0.5766 -0.5554
83019SOL    HW161036   1.572   9.124  11.147 -0.1252 -3.7033  1.9521
83019SOL    HW261037   1.460   9.146  11.247 -2.0011 -0.3010 -0.6764
83020SOL     OW61038   6.661   6.128   2.523 -0.1067 -0.3145 -0.6421
83020SOL    HW161039   6.624   6.040   2.522 -1.9665  0.4095 -0.3969
83020SOL    HW261040   6.671   6.151   2.430 -0.3714 -0.4953 -0.7163
83021SOL     OW61041   9.158   8.876  12.378 -0.0343  0.4586  0.2565
83021SOL    HW161042   9.216   8.937  12.332  1.4457 -1.3811 -0.4756
83021SOL    HW261043   9.072   8.890  12.338  0.2543  2.0546  0.1380
83022SOL     OW61044  11.719  11.419  12.185  0.3876  1.2229 -0.3222
83022SOL    HW161045  11.799  11.392  12.140 -0.4225 -1.0021 -0.5855
83022SOL    HW261046  11.649  11.409  12.120 -0.4909  0.1221  0.7232
83023SOL     OW61047   8.186   1.229  13.701  0.5079 -0.3553  0.3351
83023SOL    HW161048   8.201   1.323  13.711 -1.8728  0.0733  0.4401
83023SOL    HW261049   8.197   1.193  13.789  0.1377  0.0318  0.5400
83024SOL     OW61050  10.841  12.670   4.091  0.1127  0.1150  0.4168
83024SOL    HW161051  10.780  12.597   4.081 -0.1016  0.3448  0.0149
83024SOL    HW261052  10.850  12.706   4.003  2.3634 -1.1091  0.0538
83025SOL     OW61053  10.838   8.212   2.273 -0.0068  0.1568  0.0707
83025SOL    HW161054  10.845   8.211   2.368  0.7088  0.8370  0.0330
83025SOL    HW261055  10.803   8.126   2.251  0.5800 -0.3051  0.8900
83026SOL     OW61056   2.190  13.901   1.475  0.0600 -0.3020  0.6302
83026SOL    HW161057   2.168  13.810   1.455  0.6132 -0.1821 -0.6110
83026SOL    HW261058   2.127  13.926   1.542 -0.0567 -1.6166  1.0477
83027SOL     OW61059  12.179   5.225   1.978 -0.3779 -0.2599 -0.1652
83027SOL    HW161060  12.217   5.144   2.012  1.1426  0.2999 -0.4753
83027SOL    HW261061  12.120   5.196   1.908  0.0286 -1.1029 -0.1682
83028SOL     OW61062   3.097  11.682  10.093  0.5398 -0.2351 -0.0465
83028SOL    HW161063   3.127  11.696  10.183 -0.0450 -0.5939  0.2149
83028SOL    HW261064   3.135  11.754  10.043  1.2833 -0.3187  0.3944
83029SOL     OW61065   7.304   9.797   0.446 -0.0634 -0.4042  0.0105
83029SOL    HW161066   7.242   9.814   0.375  0.0805 -0.1850 -0.0604
83029SOL    HW261067   7.260   9.730   0.500 -1.6802  1.7558  1.5751
83030SOL     OW61068   8.427  12.916  11.430  0.3488  0.2545  0.5920
83030SOL    HW161069   8.345  12.960  11.454  0.2729  0.4570 -0.0140
83030SOL    HW261070   8.471  12.979  11.373  0.2035 -0.4932 -0.3522
83031SOL     OW61071  10.156   9.967  11.926 -0.2033 -0.6151  1.0678
83031SOL    HW161072  10.069   9.934  11.947 -0.5548  0.3536  1.1744
83031SOL    HW261073  10.180  10.021  12.001 -0.6165  1.2309 -0.0613
83032SOL     OW61074  13.752  11.460  10.210  0.5191 -0.8891 -0.3439
83032SOL    HW161075  13.757  11.516  10.133 -1.2594 -0.5819 -0.2725
83032SOL    HW261076  13.747  11.371  10.175  2.4416 -0.9912 -0.4766
83033SOL     OW61077   2.906   9.574   2.458 -0.0335  0.3210 -0.3396
83033SOL    HW161078   2.845   9.522   2.510  1.4294  0.2842  1.4138
83033SOL    HW261079   2.971   9.510   2.427  0.3417  0.6977 -0.3429
83034SOL     OW61080   7.012   5.033  11.957  0.0085 -0.0473 -0.6438
83034SOL    HW161081   7.003   5.054  12.050  0.3927  1.5088 -0.9455
83034SOL    HW261082   6.944   5.085  11.914 -1.4484 -2.1512 -1.1074
83035SOL     OW61083   1.090   8.752   6.550  0.3149  0.7061 -0.1249
83035SOL    HW161084   1.123   8.785   6.466  1.3197  1.0232  0.3840
83035SOL    HW261085   1.161   8.697   6.583 -0.3852 -0.0413  0.1687
83036SOL     OW61086   9.829   2.524   7.681 -0.2683 -0.0396  0.1901
83036SOL    HW161087   9.780   2.444   7.700  0.8515 -0.3721  1.9774
83036SOL    HW261088   9.903   2.495   7.628  0.7337 -0.4342  1.7302
83037SOL     OW61089   1.010   3.006   9.704 -0.3619 -0.3116  0.1331
83037SOL    HW161090   0.935   3.006   9.644 -0.7457 -0.8321  0.5954
83037SOL    HW261091   1.086   2.989   9.648 -0.8214 -1.6811 -0.1137
83038SOL     OW61092   6.019  12.361   8.175 -0.3416  0.3353 -0.2123
83038SOL    HW161093   6.015  12.308   8.095  0.9326  1.3932 -1.0093
83038SOL    HW261094   6.076  12.311   8.234 -0.9506 -0.2457 -0.1030
83039SOL     OW61095   6.723  10.424  13.017 -0.3040  0.1587  0.4254
83039SOL    HW161096   6.756  10.513  13.005  1.3742 -0.2378  1.7741
83039SOL    HW261097   6.686  10.401  12.932 -1.2993  2.3247  0.1863
83040SOL     OW61098   4.738  13.298  10.636  0.1083  0.2068 -0.0840
83040SOL    HW161099   4.758  13.381  10.680  0.0603 -0.3026  0.9241
83040SOL    HW261100   4.655  13.315  10.591  0.0835  0.6934  0.1375
83041SOL     OW61101   0.694   4.218  10.893 -0.1017 -0.1195  0.4947
83041SOL    HW161102   0.670   4.150  10.956 -1.4894  0.8420  1.0519
83041SOL    HW261103   0.730   4.289  10.947  3.8483 -1.2952 -0.2574
83042SOL     OW61104   4.232   2.286   6.742 -0.4193  0.0999 -0.1241
83042SOL    HW161105   4.296   2.355   6.725  0.1861 -0.1925  0.8619
83042SOL    HW261106   4.244   2.265   6.835 -2.2875  0.3719  0.2113
83043SOL     OW61107   4.841  12.004   1.066 -0.1914 -0.6506  0.4018
83043SOL    HW161108   4.878  12.060   1.134 -0.2292 -0.4377  0.2464
83043SOL    HW261109   4.814  11.925   1.113  0.1505 -0.6701  0.5690
83044SOL     OW61110   8.971   0.172   5.507  0.3802  0.0986  0.3171
83044SOL    HW161111   9.011   0.198   5.424  1.2866 -1.6017  0.1946
83044SOL    HW261112   9.026   0.101   5.540 -0.5332  0.0718  1.8972
83045SOL     OW61113   9.818   9.400  11.585 -0.2744 -0.0894 -0.0944
83045SOL    HW161114   9.732   9.442  11.596  0.4085  1.3329  0.1251
83045SOL    HW261115   9.867   9.428  11.662  0.0784 -1.7263  0.2995
83046SOL     OW61116   0.157   4.879   1.367 -0.2856 -0.5543  0.0716
83046SOL    HW161117   0.104   4.803   1.346 -0.3489 -0.1055 -1.5418
83046SOL    HW261118   0.109   4.924   1.437 -0.5306 -1.6636  0.6381
83047SOL     OW61119   3.591  12.948   0.146 -0.7844 -0.3932 -0.1192
83047SOL    HW161120   3.639  12.873   0.181 -2.3311 -0.6798  1.5687
83047SOL    HW261121   3.636  13.025   0.182  1.4200 -0.3595 -2.6553
83048SOL     OW61122   7.759   3.270   5.405  0.3226 -0.0378  0.0325
83048SOL    HW161123   7.690   3.210   5.431  0.7820 -0.7777 -0.4159
83048SOL    HW261124   7.760   3.337   5.473 -0.6514 -0.1581  0.1775
83049SOL     OW61125   5.630   1.160  13.113 -0.5118  0.1894  0.2733
83049SOL    HW161126   5.547   1.181  13.157 -0.3483 -0.2175  0.7968
83049SOL    HW261127   5.652   1.073  13.146  0.5424  0.6275  0.7803
83050SOL     OW61128   5.159   1.554   1.257  0.4618  0.3247 -0.0398
83050SOL    HW161129   5.091   1.514   1.311 -0.6202  1.4545 -0.4973
83050SOL    HW261130   5.191   1.628   1.310  0.8689  0.1901 -0.0954
83051SOL     OW61131   5.197  12.770   8.590 -0.3462  0.3447  0.3651
83051SOL    HW161132   5.257  12.709   8.634 -0.9241 -0.1728  0.4561
83051SOL    HW261133   5.110  12.744   8.621 -0.6469  0.8663 -0.0255
83052SOL     OW61134   5.855  13.417   7.882 -0.8366  0.4577  0.7085
83052SOL    HW161135   5.768  13.457   7.881 -2.2643 -2.2905 -0.7444
83052SOL    HW261136   5.897  13.449   7.802 -1.3421  0.2479  0.3542
83053SOL     OW61137   7.054   8.487  13.774 -0.0623  0.4265 -0.0175
83053SOL    HW161138   7.041   8.482  13.679  0.0204  1.4642 -0.0941
83053SOL    HW261139   7.040   8.397  13.804  3.4543 -0.7735 -1.4327
83054SOL     OW61140   8.553   9.841   8.188 -0.4923  0.9792 -0.4733
83054SOL    HW161141   8.487   9.904   8.160 -0.5902  1.3488  0.5666
83054SOL    HW261142   8.520   9.807   8.271  1.0122  1.7872  0.4893
83055SOL     OW61143   0.068  11.354  11.001  0.8881 -0.0843  0.2686
83055SOL    HW161144   0.143  11.412  11.019  1.6374 -1.2230  0.9894
83055SOL    HW261145   0.085  11.277  11.056  0.0290 -1.0754 -0.8206
83056SOL     OW61146   0.073   0.462   0.438 -0.8854  0.3366 -0.2106
83056SOL    HW161147   0.068   0.436   0.346 -0.3789 -1.1134  0.1374
83056SOL    HW261148   0.137   0.401   0.476  0.5189  2.2526  0.6524
83057SOL     OW61149   6.923   3.385   2.227 -0.4077  1.0620  0.2937
83057SOL    HW161150   7.012   3.414   2.210 -0.5603  0.4428 -1.7714
83057SOL    HW261151   6.933   3.307   2.282  0.4367 -0.0326 -1.3586
83058SOL     OW61152   2.300  12.048   9.067  0.0425 -0.2670  0.7476
83058SOL    HW161153   2.371  11.985   9.076  0.4832  0.1521  0.2963
83058SOL    HW261154   2.309  12.105   9.143  0.1027 -0.2979  0.7642
83059SOL     OW61155   6.410  11.315   1.500  0.0609 -0.1573 -0.3468
83059SOL    HW161156   6.380  11.271   1.421  0.5076 -1.5407  0.2238
83059SOL    HW261157   6.505  11.321   1.490  0.0503  0.2940 -0.2166
83060SOL     OW61158   7.275   9.327   9.119 -0.2818  0.1790 -0.6857
83060SOL    HW161159   7.209   9.298   9.056  1.4377 -1.4275 -1.8526
83060SOL    HW261160   7.315   9.404   9.078  0.1093 -0.2304 -1.0900
83061SOL     OW61161  11.563   9.596  13.804 -0.3366 -0.1477 -0.6546
83061SOL    HW161162  11.513   9.677  13.816 -0.0647  0.3525 -2.5714
83061SOL    HW261163  11.635   9.620  13.746  0.6147 -1.4510 -0.0717
83062SOL     OW61164   2.660   7.440   7.278 -0.3471 -0.3403 -0.0239
83062SOL    HW161165   2.607   7.440   7.358  0.9367  2.1164  0.9134
83062SOL    HW261166   2.604   7.481   7.212 -0.5300 -0.1327  0.2605
83063SOL     OW61167   1.355   9.223   0.371 -0.6171 -0.5907 -0.6586
83063SOL    HW161168   1.390   9.147   0.417 -2.4464  0.0095  1.9463
83063SOL    HW261169   1.429   9.283   0.365 -0.1130 -1.0212  0.8440
83064SOL     OW61170   0.475  10.135  13.834  0.2294  0.2270 -0.2599
83064SOL    HW161171   0.393  10.090  13.856 -0.4810  0.8384 -1.4943
83064SOL    HW261172   0.531  10.123  13.910 -0.9497 -0.3673  0.5435
83065SOL     OW61173   1.871  10.900  13.173 -0.1975 -0.0771  0.6343
83065SOL    HW161174   1.825  10.816  13.169  0.7116 -0.5611  0.2065
83065SOL    HW261175   1.942  10.892  13.109 -2.2190  2.3215 -2.2038
83066SOL     OW61176   9.877  10.181  13.117  0.2620  0.1735 -0.4232
83066SOL    HW161177   9.872  10.089  13.141 -6.0816 -0.6311 -2.8177
83066SOL    HW261178   9.833  10.227  13.189  1.7584  1.1321 -0.0868
83067SOL     OW61179   3.987   1.961   1.400 -0.0356  0.0958 -0.3885
83067SOL    HW161180   3.910   2.008   1.433  0.4819 -0.0571  1.0699
83067SOL    HW261181   4.060   2.021   1.415  0.5523 -0.9279  1.0152
83068SOL     OW61182   3.592   4.245   1.712  0.5803 -0.3795 -0.1077
83068SOL    HW161183   3.580   4.308   1.641  0.7624 -0.9521 -0.6650
83068SOL    HW261184   3.659   4.283   1.768 -1.4427  1.3637  1.2850
83069SOL     OW61185   1.389   5.808  10.625  0.2012 -0.4182 -0.1171
83069SOL    HW161186   1.381   5.772  10.536 -0.3253 -1.1311  0.2035
83069SOL    HW261187   1.479   5.790  10.650  0.3483 -0.2319 -0.4944
83070SOL     OW61188   5.038  11.888  12.690  0.1016  0.3730 -0.0502
83070SOL    HW161189   4.965  11.854  12.638 -0.1773 -0.4874  0.8681
83070SOL    HW261190   5.081  11.810  12.725  0.9558  0.9072  0.1054
83071SOL     OW61191  13.267  13.207   0.502 -0.5486 -0.3539  0.7182
83071SOL    HW161192  13.219  13.250   0.431 -0.0662 -1.3015 -0.2112
83071SOL    HW261193  13.199  13.170   0.558 -0.9474 -1.1073 -0.2240
83072SOL     OW61194   1.295   4.462  10.736  0.2444 -0.6419 -0.1612
83072SOL    HW161195   1.200   4.463  10.744  0.1582  1.0567 -0.9790
83072SOL    HW261196   1.312   4.436  10.646  0.5229 -0.4162 -0.1780
83073SOL     OW61197   8.492  11.086   0.273 -0.0050  0.7773  0.2662
83073SOL    HW161198   8.570  11.100   0.327 -1.3098  0.3218  2.4039
83073SOL    HW261199   8.502  10.997   0.239  1.8492  1.7870 -2.1648
83074SOL     OW61200  10.098   6.938   8.357 -0.0453 -0.9478 -0.0936
83074SOL    HW161201  10.064   7.010   8.409  0.5868  0.1013 -1.0943
83074SOL    HW261202  10.191   6.958   8.347 -0.0750 -1.3513 -1.2671
83075SOL     OW61203  10.229  10.456   1.437  0.1019 -0.5766  0.0766
83075SOL    HW161204  10.136  10.469   1.418 -0.2274  1.1289  2.3899
83075SOL    HW261205  10.262  10.543   1.460  2.3449 -1.1099 -0.8169
83076SOL     OW61206   7.760   4.930   4.059  0.0881  0.2610  0.3594
83076SOL    HW161207   7.718   5.015   4.068 -0.4784 -0.2167  2.7424
83076SOL    HW261208   7.698   4.877   4.008 -0.3966  0.7183  0.4767
83077SOL     OW61209   0.055  13.959  12.882 -0.8452  0.0655 -0.6893
83077SOL    HW161210   0.044  14.049  12.851 -0.1094  0.6701  0.7319
83077SOL    HW261211  -0.001  13.953  12.959  1.4155  0.3395  1.1068
83078SOL     OW61212   4.928   4.037  11.505  0.2813 -0.8327  0.1427
83078SOL    HW161213   5.021   4.040  11.530 -0.1176 -1.6769  1.8673
83078SOL    HW261214   4.929   4.048  11.410  1.8977  2.4911  0.3971
83079SOL     OW61215   5.081   7.913   4.577  0.3945 -0.2441 -0.2173
83079SOL    HW161216   5.165   7.914   4.623  0.4425  0.6025 -0.3132
83079SOL    HW261217   5.092   7.847   4.509  0.5549 -1.0353  0.5532
83080SOL     OW61218   8.345   6.380   9.117  0.5838  0.8600  0.1857
83080SOL    HW161219   8.371   6.391   9.026  1.9774  2.0607  0.6938
83080SOL    HW261220   8.268   6.323   9.113  1.1888  0.1022 -1.6552
83081SOL     OW61221   2.936  13.798   4.590  0.0311 -0.0509 -0.3561
83081SOL    HW161222   2.893  13.865   4.643  1.9465  1.8645 -1.0973
83081SOL    HW261223   2.914  13.716   4.633 -1.8510  1.0812  0.9842
83082SOL     OW61224   6.553   9.209   4.384 -0.5051 -0.2121  0.0476
83082SOL    HW161225   6.458   9.203   4.399 -0.5108  1.2564  0.7707
83082SOL    HW261226   6.562   9.271   4.312 -0.1970 -2.9199 -2.3878
83083SOL     OW61227   7.176   5.608   3.667  0.1111  0.0465 -0.3962
83083SOL    HW161228   7.181   5.683   3.727  1.2593 -0.9454  0.8088
83083SOL    HW261229   7.085   5.605   3.640 -0.6691  0.0164  2.0066
83084SOL     OW61230   9.655   3.594  11.377 -0.1112  0.4593 -0.5512
83084SOL    HW161231   9.597   3.668  11.361  0.8385  1.6514  1.2035
83084SOL    HW261232   9.710   3.588  11.299 -0.2334  1.5724 -0.7347
83085SOL     OW61233   6.551   4.964   6.353  0.5918  0.3775  0.1016
83085SOL    HW161234   6.491   5.010   6.411  0.8315  1.0658 -0.1781
83085SOL    HW261235   6.575   4.884   6.401 -0.3979  0.1748  0.2869
83086SOL     OW61236   7.495   5.675   4.677  0.0287  0.2326 -0.0202
83086SOL    HW161237   7.515   5.599   4.731  1.9323  0.4224 -0.3938
83086SOL    HW261238   7.502   5.642   4.587  1.5026  0.9423 -0.2007
83087SOL     OW61239   1.169   6.450   5.260 -0.0997  0.0524 -0.0588
83087SOL    HW161240   1.240   6.446   5.324 -2.2458  1.0441  2.5968
83087SOL    HW261241   1.194   6.521   5.201  0.2653  1.7687  2.0294
83088SOL     OW61242  13.533   1.100   8.653  0.2544  0.3161  0.0186
83088SOL    HW161243  13.457   1.136   8.698  1.6862  1.4196  1.6711
83088SOL    HW261244  13.608   1.148   8.690  1.6015  0.8091 -3.0750
83089SOL     OW61245   3.638   1.621  12.457  0.1918 -0.1952  0.8566
83089SOL    HW161246   3.615   1.600  12.548  0.4713  0.3616  1.0617
83089SOL    HW261247   3.554   1.619  12.411 -0.4140  2.2006  1.6862
83090SOL     OW61248  13.888   5.306  10.895 -0.3613  0.2138  0.2613
83090SOL    HW161249  13.945   5.336  10.967  0.0638  0.7944 -0.3031
83090SOL    HW261250  13.826   5.378  10.883 -0.6943 -0.0630  0.3239
83091SOL     OW61251   2.484   2.406   7.503 -0.3629  0.2986  0.1524
83091SOL    HW161252   2.491   2.500   7.518 -1.3044  0.4453 -0.2681
83091SOL    HW261253   2.408   2.396   7.445  1.8826 -0.3884 -2.9435
83092SOL     OW61254   7.219  13.067   6.813 -0.0280 -0.0215  0.2852
83092SOL    HW161255   7.304  13.053   6.855 -0.4998 -0.1624  1.2193
83092SOL    HW261256   7.232  13.039   6.722  1.0559  0.4177  0.2847
83093SOL     OW61257   4.427  10.542  11.614 -0.0409  0.4337 -0.8229
83093SOL    HW161258   4.361  10.537  11.545 -1.0151  1.2914  0.0054
83093SOL    HW261259   4.486  10.611  11.586  0.1672  0.0785 -1.2768
83094SOL     OW61260  14.013   6.694   4.633  0.6311 -0.4900  0.4988
83094SOL    HW161261  14.044   6.720   4.720  0.0998 -2.6823  1.4103
83094SOL    HW261262  14.092   6.666   4.588  0.8277  0.0479  0.5065
83095SOL     OW61263  11.703  12.755  12.666  0.1808 -0.1816 -0.0273
83095SOL    HW161264  11.764  12.778  12.736  2.0935  1.2257 -2.0120
83095SOL    HW261265  11.665  12.839  12.639 -0.6910 -0.7296 -0.5271
83096SOL     OW61266   0.517   5.612  12.274 -0.3107  0.5442 -0.4565
83096SOL    HW161267   0.471   5.695  12.288  2.0764  1.8629  0.1411
83096SOL    HW261268   0.565   5.598  12.355  0.6462 -0.5313 -1.1839
83097SOL     OW61269  10.722   2.757   8.718  0.8266  0.1001 -0.2601
83097SOL    HW161270  10.693   2.678   8.764  0.0208  2.2081  3.2320
83097SOL    HW261271  10.807   2.778   8.758  0.0928  2.0219  0.4231
83098SOL     OW61272   7.880  10.422   5.194  0.2649 -0.4820 -0.3088
83098SOL    HW161273   7.872  10.404   5.287  0.2637 -0.5068 -0.3134
83098SOL    HW261274   7.848  10.511   5.183  2.1696  0.2855  0.0023
83099SOL     OW61275   0.103   6.364  10.207 -0.3708  0.0328  0.2169
83099SOL    HW161276   0.030   6.410  10.166  0.3488  1.2508  0.2364
83099SOL    HW261277   0.168   6.433  10.224  0.0726 -0.7185  1.7821
83100SOL     OW61278   2.208  11.468   3.085  0.3244 -0.0459  0.0014
83100SOL    HW161279   2.177  11.377   3.083  0.7638 -0.2339  1.0545
83100SOL    HW261280   2.153  11.513   3.021 -0.4477 -0.8900  0.0453
83101SOL     OW61281   4.533  11.779   9.581 -0.0035 -0.1267 -0.1724
83101SOL    HW161282   4.582  11.781   9.498  0.7582  1.0438  0.2708
83101SOL    HW261283   4.445  11.809   9.557 -1.7259 -5.3086 -1.6014
83102SOL     OW61284  11.160   6.135   2.674 -0.4278  0.0730 -0.3905
83102SOL    HW161285  11.136   6.125   2.582  0.2025  2.5734 -0.9071
83102SOL    HW261286  11.082   6.173   2.715 -0.9023 -1.5314  0.2893
83103SOL     OW61287   9.603   7.598   3.168  0.5629 -0.2188  0.0994
83103SOL    HW161288   9.643   7.513   3.190  0.5645 -0.7396 -1.7558
83103SOL    HW261289   9.656   7.662   3.216  1.0394 -1.2002  0.9326
83104SOL     OW61290   1.243  13.371   3.057  0.0559  0.4595  0.3626
83104SOL    HW161291   1.151  13.390   3.038  0.2337  0.6990 -0.2733
83104SOL    HW261292   1.260  13.287   3.014  0.1509  0.4385  0.4408
83105SOL     OW61293   5.963   0.083   4.214  0.5287  0.2721 -0.6034
83105SOL    HW161294   5.899   0.129   4.268  3.0844  3.6770 -0.0824
83105SOL    HW261295   6.013   0.030   4.276 -0.4536 -0.7788 -0.6903
83106SOL     OW61296  12.330   5.172  13.173  0.3480  0.0549 -0.1693
83106SOL    HW161297  12.362   5.186  13.084  3.7313  0.1937  0.9372
83106SOL    HW261298  12.275   5.248  13.191  1.3080  1.0921 -1.4652
83107SOL     OW61299  12.845   4.951   8.582 -0.2939 -0.0074 -0.4600
83107SOL    HW161300  12.863   5.024   8.641 -2.0138 -0.0357  0.1700
83107SOL    HW261301  12.772   4.905   8.624 -0.9097 -0.6009 -2.1165
83108SOL     OW61302  10.259   5.836  13.418 -0.3061  0.1890 -0.1785
83108SOL    HW161303  10.283   5.928  13.427 -0.5131  0.1788  0.6146
83108SOL    HW261304  10.172   5.830  13.457  1.0046 -0.9093  2.8893
83109SOL     OW61305  12.873   0.225   0.224  0.1519 -0.4966 -0.0355
83109SOL    HW161306  12.852   0.258   0.137 -1.2086 -1.9717 -0.3095
83109SOL    HW261307  12.904   0.136   0.208 -0.1847 -0.8033  0.9941
83110SOL     OW61308   9.562   6.727   1.505 -0.1131  0.2777 -0.0194
83110SOL    HW161309   9.579   6.668   1.431  1.2650 -0.2873  0.6876
83110SOL    HW261310   9.622   6.800   1.491  0.8687 -0.2983  1.0029
83111SOL     OW61311  11.373   8.549   0.641 -0.0149  0.1275  0.5841
83111SOL    HW161312  11.328   8.561   0.558  0.1418  0.7147  0.5786
83111SOL    HW261313  11.308   8.572   0.708 -0.5685 -1.6057  0.7009
83112SOL     OW61314   4.253  13.578   5.810  0.2940 -0.4476  0.2906
83112SOL    HW161315   4.285  13.488   5.818  1.2756 -0.2699 -1.2748
83112SOL    HW261316   4.301  13.614   5.736 -3.0458  0.0563 -1.8541
83113SOL     OW61317  13.899   8.600   6.130 -0.2763 -0.4075  0.1558
83113SOL    HW161318  13.871   8.573   6.042  0.2393  1.8301 -0.7584
83113SOL    HW261319  13.992   8.579   6.133 -0.5181 -1.4861  0.6107
83114SOL     OW61320   8.040   8.957   2.718  0.3302 -0.5735 -0.1144
83114SOL    HW161321   7.959   8.912   2.742  0.2572 -0.9046 -0.9724
83114SOL    HW261322   8.108   8.907   2.762 -0.0309  0.8437  2.2543
83115SOL     OW61323   2.644   3.452   3.627 -0.2275  0.1747 -0.1390
83115SOL    HW161324   2.600   3.531   3.597 -0.9901  0.3060  1.2498
83115SOL    HW261325   2.637   3.390   3.554 -1.1490  0.7969 -0.5841
83116SOL     OW61326  13.794   5.153   1.228  0.1781  0.3903  0.3003
83116SOL    HW161327  13.753   5.237   1.206 -0.2028  0.4941  1.3245
83116SOL    HW261328  13.851   5.173   1.302 -0.9917 -0.4809  1.5099
83117SOL     OW61329   0.860   9.688  11.402  0.2943  0.0394 -0.0705
83117SOL    HW161330   0.803   9.763  11.387  2.5679  1.9541  0.3861
83117SOL    HW261331   0.857   9.673  11.496 -0.4706 -0.7849 -0.2017
83118SOL     OW61332   8.279  12.014  11.284  0.0831 -0.1844  0.0744
83118SOL    HW161333   8.343  12.046  11.348 -0.5067  1.2609 -0.0255
83118SOL    HW261334   8.195  12.026  11.327 -0.3537  1.1393 -1.0805
83119SOL     OW61335  11.086  11.531  10.992 -0.3125  0.2005 -0.2248
83119SOL    HW161336  11.112  11.600  11.053 -1.6210 -0.5685  1.3002
83119SOL    HW261337  11.038  11.577  10.923  0.1730  0.9754 -0.0615
83120SOL     OW61338   5.060   3.346   4.058  0.3430  0.0393 -0.1815
83120SOL    HW161339   5.098   3.274   4.008 -0.0009 -1.0049  0.9872
83120SOL    HW261340   5.119   3.420   4.044 -0.2158  0.0828 -2.7991
83121SOL     OW61341  13.624  11.880   1.062 -0.2494  0.0229 -0.2467
83121SOL    HW161342  13.646  11.862   1.153  0.4111 -0.5108 -0.4941
83121SOL    HW261343  13.541  11.836   1.047 -0.0542 -0.4147 -0.0617
83122SOL     OW61344   3.153   6.524   4.555  0.0715 -0.0824 -0.2451
83122SOL    HW161345   3.249   6.517   4.555  0.0081 -1.3251  0.9816
83122SOL    HW261346   3.130   6.529   4.462  1.3202  0.2881 -0.5618
83123SOL     OW61347  11.088   0.623  12.898  0.8248  0.0570  0.0786
83123SOL    HW161348  11.052   0.704  12.862  0.3233 -0.6193 -0.9974
83123SOL    HW261349  11.013   0.579  12.937  0.9630 -0.1856  0.0749
83124SOL     OW61350   7.249   0.718  13.894  0.4430 -0.0508 -0.3050
83124SOL    HW161351   7.334   0.729  13.936 -0.3577  0.8388  1.1687
83124SOL    HW261352   7.229   0.804  13.858  0.5268 -0.4722 -1.3711
83125SOL     OW61353   1.328  13.802   8.984 -0.4043 -0.4340 -0.9790
83125SOL    HW161354   1.403  13.756   8.945  1.3056  1.8339 -0.5653
83125SOL    HW261355   1.318  13.763   9.071  1.6799  0.5607 -0.2311
83126SOL     OW61356   0.035   7.680  12.848  0.0645  0.0828  0.1549
83126SOL    HW161357  -0.026   7.639  12.786 -0.4045 -1.8484  1.7822
83126SOL    HW261358   0.065   7.759  12.804 -0.3691 -1.1149 -2.4406
83127SOL     OW61359   1.366   8.158  10.904  0.1332  0.0384  0.4436
83127SOL    HW161360   1.445   8.184  10.953  0.2300 -0.9514  0.8344
83127SOL    HW261361   1.300   8.144  10.971  0.1425 -0.9107  0.2687
83128SOL     OW61362   6.626  10.542   4.292  0.3559 -0.7785  0.1446
83128SOL    HW161363   6.585  10.482   4.230 -0.0094 -0.6696  0.2807
83128SOL    HW261364   6.644  10.489   4.369 -1.3621 -0.3843  0.8592
83129SOL     OW61365  11.979  11.759  10.218  0.0895  0.2039 -0.2900
83129SOL    HW161366  11.917  11.812  10.268 -0.7645 -0.9201 -0.1204
83129SOL    HW261367  11.963  11.782  10.127  0.2035  0.7238 -0.1840
83130SOL     OW61368   1.207   0.891  12.598 -0.4910 -0.6300  0.1097
83130SOL    HW161369   1.175   0.905  12.509  0.5319  1.4739  0.0126
83130SOL    HW261370   1.140   0.930  12.654 -0.1737 -0.1251  0.1412
83131SOL     OW61371   5.508   2.594  10.198  0.4183  0.3952  0.3474
83131SOL    HW161372   5.429   2.595  10.252  0.3362  0.1960  0.2316
83131SOL    HW261373   5.484   2.644  10.120 -0.4317 -1.8086 -0.8661
83132SOL     OW61374   1.789  13.555   9.640 -0.1629  0.7378  0.3875
83132SOL    HW161375   1.742  13.476   9.617  0.1800  0.2477  1.3339
83132SOL    HW261376   1.815  13.593   9.555  1.2434 -1.1054 -0.0738
83133SOL     OW61377  11.273   5.062   9.023 -0.0430  0.4374  0.0912
83133SOL    HW161378  11.206   4.999   8.998 -1.3413  0.9894  1.9942
83133SOL    HW261379  11.320   5.020   9.095  0.1845  0.9689  0.2560
83134SOL     OW61380  12.879   9.928   1.010 -0.3637  0.4060  0.2442
83134SOL    HW161381  12.813   9.915   1.078 -0.4153 -0.0703  0.1041
83134SOL    HW261382  12.831   9.973   0.940 -1.0089 -1.4820 -0.5883
83135SOL     OW61383  13.542   0.603   7.739 -0.2047  0.2831  0.0503
83135SOL    HW161384  13.499   0.627   7.821  1.3505 -0.4042  1.1233
83135SOL    HW261385  13.513   0.669   7.676 -3.3234 -0.5465  0.4848
83136SOL     OW61386  12.145  13.093   4.780  0.4352 -0.2649  0.5620
83136SOL    HW161387  12.111  13.138   4.857 -0.8840  0.5748 -0.4845
83136SOL    HW261388  12.086  13.019   4.767 -0.2320  0.4259 -0.4699
83137SOL     OW61389   0.845  11.151   5.999 -0.0880  0.3289  0.6446
83137SOL    HW161390   0.831  11.244   6.015 -2.3561  0.4718 -1.5238
83137SOL    HW261391   0.883  11.118   6.080  0.4823  3.0568  1.5915
83138SOL     OW61392   3.091   2.393  12.525  0.8053  0.8022  0.0521
83138SOL    HW161393   3.131   2.443  12.596  0.7734 -1.4187  1.7542
83138SOL    HW261394   3.098   2.302  12.553 -2.3178  0.0403 -1.1931
83139SOL     OW61395   0.750   4.895   1.875  0.0391 -0.2515  0.1829
83139SOL    HW161396   0.801   4.814   1.866  1.1902  0.3196  1.3021
83139SOL    HW261397   0.798   4.959   1.822 -0.6533 -0.1879 -0.3840
83140SOL     OW61398   6.532   5.417  11.949  0.5197  0.3127 -0.0208
83140SOL    HW161399   6.604   5.422  12.012  0.9906  1.0624 -0.5901
83140SOL    HW261400   6.550   5.488  11.887  0.5202 -0.8975 -1.4732
83141SOL     OW61401   6.084  11.799   5.612 -0.3546  0.0493 -0.3495
83141SOL    HW161402   6.100  11.813   5.706 -1.3729  0.3869 -0.2099
83141SOL    HW261403   6.092  11.704   5.601  1.9654  0.2012 -0.3831
83142SOL     OW61404   3.013   0.046   2.957 -0.3783  0.3413 -0.7362
83142SOL    HW161405   3.030  -0.032   3.010  1.8521  1.3745  0.2065
83142SOL    HW261406   2.945   0.093   3.005 -0.7358 -0.3362 -0.5665
83143SOL     OW61407  11.769   3.332   8.629 -0.7001 -0.4773  0.0044
83143SOL    HW161408  11.772   3.289   8.714  1.5347 -0.9557 -0.2718
83143SOL    HW261409  11.806   3.419   8.644 -2.0308  0.1539 -0.1441
83144SOL     OW61410   5.372   4.175  10.706  0.2311 -0.2539 -0.0805
83144SOL    HW161411   5.408   4.124  10.634 -1.0572 -3.5958  1.4184
83144SOL    HW261412   5.423   4.147  10.782 -1.7382 -0.8286  1.1057
83145SOL     OW61413   3.080   3.822   1.915  0.2919 -0.2155  0.2111
83145SOL    HW161414   3.104   3.809   1.824 -0.3088  2.0745 -0.3302
83145SOL    HW261415   3.155   3.868   1.953 -0.2264  0.5112  0.3709
83146SOL     OW61416   9.566   0.254  12.273  0.1778 -0.2876  0.0277
83146SOL    HW161417   9.583   0.173  12.225 -0.7978 -0.6223  0.2274
83146SOL    HW261418   9.470   0.262  12.274  0.2671  1.0289 -0.2577
83147SOL     OW61419  13.457   2.430   1.486  0.3743 -0.1856  0.8257
83147SOL    HW161420  13.521   2.499   1.468  0.4318 -0.3962  0.1767
83147SOL    HW261421  13.510   2.353   1.505  0.3101 -0.0257  1.6649
83148SOL     OW61422  10.331   3.140   2.471  0.1733  0.1375 -0.3379
83148SOL    HW161423  10.241   3.170   2.464 -0.2475 -0.6915  1.2441
83148SOL    HW261424  10.346   3.127   2.565  1.2691 -1.7007 -0.7094
83149SOL     OW61425  11.210  12.242   3.106 -0.0021 -0.4224 -0.0979
83149SOL    HW161426  11.207  12.294   3.186  1.5356 -0.7623  0.2044
83149SOL    HW261427  11.286  12.185   3.117 -0.2586 -1.0589 -1.4455
83150SOL     OW61428   3.054   8.479   9.437 -0.0125  0.9523  0.3056
83150SOL    HW161429   3.003   8.482   9.519 -0.6656  1.2152 -0.1060
83150SOL    HW261430   3.098   8.564   9.433 -0.3308  1.1098  0.1609
83151SOL     OW61431   5.829   1.870   0.426 -0.0409 -0.2552 -0.2361
83151SOL    HW161432   5.755   1.925   0.400 -0.7040 -0.3546  1.2986
83151SOL    HW261433   5.901   1.931   0.439 -0.4833  0.1498  0.4171
83152SOL     OW61434  12.019   9.304  13.589 -0.1033  0.2027  0.2751
83152SOL    HW161435  12.037   9.210  13.600 -0.0989  0.1661 -0.0405
83152SOL    HW261436  11.967   9.309  13.509 -0.1826  0.4621  0.3413
83153SOL     OW61437   7.694   0.933   9.161 -0.6004 -0.1599  0.2962
83153SOL    HW161438   7.789   0.918   9.167 -0.5833 -1.3709 -1.7504
83153SOL    HW261439   7.686   1.007   9.101 -0.9219 -0.8171 -0.5061
83154SOL     OW61440  13.410  12.970   7.726 -0.2527  0.5245  0.6661
83154SOL    HW161441  13.364  12.913   7.788  1.1547  1.4649  2.6485
83154SOL    HW261442  13.351  13.045   7.715 -1.0988 -0.2356 -0.2130
83155SOL     OW61443  13.423   3.464   9.316  0.3122 -0.1837  0.4748
83155SOL    HW161444  13.461   3.421   9.239  1.0113  1.5992 -0.2398
83155SOL    HW261445  13.419   3.395   9.382 -0.3130 -1.7793 -1.1336
83156SOL     OW61446   5.673   6.290  13.912  0.0075  0.5521 -0.2442
83156SOL    HW161447   5.685   6.216  13.852 -0.0899 -0.7123  1.2335
83156SOL    HW261448   5.580   6.287  13.934  0.6109 -1.1966  2.5862
83157SOL     OW61449   6.056   9.186   1.131 -0.3403  0.4533 -0.1440
83157SOL    HW161450   5.970   9.186   1.090 -0.9638  0.7833  1.1203
83157SOL    HW261451   6.103   9.259   1.090 -1.6962  2.1523  1.1956
83158SOL     OW61452  10.780   3.841   9.525 -0.2024 -0.5626 -0.1052
83158SOL    HW161453  10.699   3.830   9.575 -1.7975 -0.5964 -2.4868
83158SOL    HW261454  10.800   3.934   9.532  0.3485 -0.7844  1.5849
83159SOL     OW61455  11.372   6.034   8.892  0.4909  0.1591  0.3226
83159SOL    HW161456  11.349   6.127   8.887 -0.4324 -0.0607  0.3045
83159SOL    HW261457  11.447   6.025   8.835  2.4478  1.4421  2.5181
83160SOL     OW61458   7.989   1.516   0.217  0.6996  0.7373  0.2219
83160SOL    HW161459   7.940   1.448   0.264  1.5235  0.2536  0.3872
83160SOL    HW261460   8.029   1.569   0.285  0.1549  1.3394  0.0897
83161SOL     OW61461   1.330   8.892   2.111  1.2419  0.5934 -0.2131
83161SOL    HW161462   1.235   8.899   2.109  1.2603  0.7517 -0.9384
83161SOL    HW261463   1.358   8.957   2.176  0.8233  0.0573  0.5152
83162SOL     OW61464   0.647   8.856   6.936  0.2500 -0.1606 -0.5646
83162SOL    HW161465   0.597   8.895   6.864  1.2977 -0.2001 -1.3283
83162SOL    HW261466   0.711   8.923   6.960  0.7115 -0.6188 -0.5042
83163SOL     OW61467   1.215   9.762   5.399  0.4969  0.5229  0.4868
83163SOL    HW161468   1.186   9.717   5.320 -0.4654  0.0333  1.1092
83163SOL    HW261469   1.264   9.837   5.366  1.6916 -0.6623 -0.5758
83164SOL     OW61470   4.817  12.251   0.053 -0.0897 -0.0927 -0.0365
83164SOL    HW161471   4.892  12.239   0.111  0.0755  0.8344 -0.0457
83164SOL    HW261472   4.803  12.345   0.051 -0.4272 -0.1495 -1.0874
83165SOL     OW61473   3.830   7.181   8.680  0.6780 -0.0122 -0.8625
83165SOL    HW161474   3.737   7.175   8.660  0.6496  0.0245 -0.7453
83165SOL    HW261475   3.861   7.257   8.631  0.5732  0.1786 -0.6324
83166SOL     OW61476  12.497   5.111  12.283  0.3550  0.2852  0.4098
83166SOL    HW161477  12.589   5.094  12.268  1.0686  2.8829  1.1707
83166SOL    HW261478  12.465   5.147  12.200 -0.1480 -1.0791 -0.0141
83167SOL     OW61479   2.584   1.649  13.911 -0.0095  0.3964 -0.1202
83167SOL    HW161480   2.576   1.579  13.975  0.0920  1.1351  0.7197
83167SOL    HW261481   2.653   1.705  13.946 -0.7475  1.4290 -0.2927
83168SOL     OW61482   3.580   4.307   3.408  0.6582 -0.3117  0.2017
83168SOL    HW161483   3.490   4.298   3.377  1.0243 -0.9053 -0.7452
83168SOL    HW261484   3.572   4.330   3.500 -0.4651  0.1367  0.0021
83169SOL     OW61485   2.716  10.148   3.962  0.0776 -0.0856  0.0875
83169SOL    HW161486   2.700  10.155   4.056 -1.1149  3.0893 -0.2369
83169SOL    HW261487   2.629  10.149   3.923  0.4726 -2.9207 -1.0752
83170SOL     OW61488   3.259   0.732   2.233  0.0856  0.0306  0.1495
83170SOL    HW161489   3.172   0.738   2.196  0.3708 -0.2149 -0.5787
83170SOL    HW261490   3.294   0.649   2.199  0.2326 -0.3642  1.2341
83171SOL     OW61491   2.073  11.972   2.635  0.2715 -0.1781  0.3895
83171SOL    HW161492   2.165  11.989   2.610  0.1171  2.0777  1.0990
83171SOL    HW261493   2.073  11.977   2.730 -0.7011  0.6016  0.3618
83172SOL     OW61494   2.873   7.623   2.368  0.3030  0.4274 -0.4969
83172SOL    HW161495   2.880   7.718   2.374 -0.7691  0.4398  1.2585
83172SOL    HW261496   2.837   7.607   2.281  0.0921  1.6472 -0.6481
83173SOL     OW61497   3.157   5.232   7.638 -0.7080  0.1986 -0.1836
83173SOL    HW161498   3.193   5.285   7.566  0.0589  1.0780  0.8157
83173SOL    HW261499   3.181   5.280   7.717 -1.6979 -0.6591  0.6629
83174SOL     OW61500   8.017  11.179   5.273  0.2796 -0.2330  0.1128
83174SOL    HW161501   8.003  11.166   5.179 -0.7299  2.6148 -0.2314
83174SOL    HW261502   8.111  11.195   5.281  0.3583 -0.4133 -0.4015
83175SOL     OW61503   6.252  12.023   1.485 -0.2462  0.3813 -0.3395
83175SOL    HW161504   6.235  12.092   1.549  1.2803  2.2610 -1.8541
83175SOL    HW261505   6.166  11.982   1.471 -1.0695  1.5027  1.0957
83176SOL     OW61506  11.199   9.561   4.073 -0.6186  0.5550 -0.0658
83176SOL    HW161507  11.233   9.480   4.035 -1.6362  0.2229 -0.3071
83176SOL    HW261508  11.273   9.621   4.070 -0.4021  0.2577 -1.7386
83177SOL     OW61509  10.007   7.422  12.109  0.0327 -0.0088 -1.0172
83177SOL    HW161510  10.042   7.505  12.075  0.2569 -0.3733 -1.7097
83177SOL    HW261511   9.960   7.446  12.189  0.4608  0.7263 -0.9778
83178SOL     OW61512   0.319   8.379   5.001 -0.3979 -0.0987  0.1992
83178SOL    HW161513   0.358   8.466   5.003  1.6974 -1.0019  0.9780
83178SOL    HW261514   0.324   8.352   4.909 -0.5380  0.3578  0.0554
83179SOL     OW61515   2.293   3.763   3.334 -0.0780  0.1743  0.1180
83179SOL    HW161516   2.255   3.833   3.281 -0.1966  0.3995  0.4951
83179SOL    HW261517   2.218   3.713   3.366 -0.0078  0.0445  0.0801
83180SOL     OW61518  12.905  11.757   8.706  0.2278 -0.3792  0.0768
83180SOL    HW161519  12.907  11.847   8.673  0.1003 -0.6200 -0.6039
83180SOL    HW261520  12.844  11.761   8.780 -0.3859 -0.0577 -0.4282
83181SOL     OW61521  11.723   4.039  10.757 -0.1228  0.3002 -0.4828
83181SOL    HW161522  11.677   3.966  10.797 -0.2091  0.9578  0.6673
83181SOL    HW261523  11.675   4.056  10.676 -0.0714 -0.9272 -0.7789
83182SOL     OW61524   8.996   3.285   3.213  0.7926 -0.2952 -0.0816
83182SOL    HW161525   9.059   3.244   3.272  1.7067 -1.4350 -1.7747
83182SOL    HW261526   8.910   3.258   3.247  1.3385 -2.8600 -0.5364
83183SOL     OW61527   2.563  14.001  12.729 -0.1501 -0.0603  0.3557
83183SOL    HW161528   2.528  13.929  12.781  0.3130 -1.0872 -0.6910
83183SOL    HW261529   2.495  14.068  12.733 -2.4031 -2.0025 -1.6793
83184SOL     OW61530  11.579   8.876   5.871 -0.6781 -0.0403 -0.2196
83184SOL    HW161531  11.598   8.822   5.948  0.7047  0.7462  0.0302
83184SOL    HW261532  11.512   8.937   5.901  0.0305  0.4218  0.4546
83185SOL     OW61533   5.248   1.896  11.880 -0.8377  0.1430  0.0666
83185SOL    HW161534   5.256   1.989  11.862 -0.4654 -0.0925 -1.0697
83185SOL    HW261535   5.164   1.887  11.924 -0.9308  1.0014  0.0812
83186SOL     OW61536   8.744   9.849  13.622 -0.2533 -0.0730 -0.1762
83186SOL    HW161537   8.822   9.795  13.617 -1.3061 -1.5189 -1.8764
83186SOL    HW261538   8.686   9.801  13.681 -1.0695 -0.7029 -1.4464
83187SOL     OW61539   8.170   8.247   3.703 -0.3355 -0.0966 -0.1529
83187SOL    HW161540   8.150   8.303   3.778  0.6150  0.1675 -0.0852
83187SOL    HW261541   8.249   8.200   3.729 -0.9346 -1.2444 -0.3355
83188SOL     OW61542   2.471  12.399   7.489 -0.4200 -0.0616 -0.5515
83188SOL    HW161543   2.531  12.472   7.503  2.1573 -2.0848 -0.2711
83188SOL    HW261544   2.509  12.327   7.539 -2.5444 -1.7848 -1.2526
83189SOL     OW61545   1.530   2.318  11.284  0.4327 -0.0339  0.3236
83189SOL    HW161546   1.510   2.273  11.202  0.5518 -0.8453  0.7272
83189SOL    HW261547   1.592   2.261  11.328  1.1737  0.9013  0.5235
83190SOL     OW61548   6.255  12.520   0.372  0.5199 -0.0349 -0.9400
83190SOL    HW161549   6.173  12.557   0.340  1.6647  1.1718 -2.6928
83190SOL    HW261550   6.263  12.436   0.327  0.3015 -0.1020 -0.8534
83191SOL     OW61551   2.387   0.837   8.211  0.4384  0.2095  0.3663
83191SOL    HW161552   2.407   0.748   8.239 -1.5900 -0.6870 -0.8362
83191SOL    HW261553   2.309   0.861   8.261  0.7066  1.1674  0.3496
83192SOL     OW61554   3.558   3.985   0.176  0.1606  0.2650 -0.1698
83192SOL    HW161555   3.558   3.921   0.105 -0.8256 -0.5717  0.5616
83192SOL    HW261556   3.644   3.977   0.216  0.3872  0.0861 -0.6854
83193SOL     OW61557  13.253   5.986   6.725 -0.2464 -0.1076  0.1379
83193SOL    HW161558  13.191   6.025   6.786 -1.6588 -0.5431 -0.9492
83193SOL    HW261559  13.331   6.040   6.732 -0.8603  0.6731  1.3053
83194SOL     OW61560   3.203   2.550  13.002  0.1687  0.4001  0.1188
83194SOL    HW161561   3.218   2.482  13.068  0.9458  1.8293  1.5218
83194SOL    HW261562   3.108   2.565  13.004  0.0304 -0.4424  0.0012
83195SOL     OW61563   9.209   7.755  10.836 -0.0429  0.0412 -0.1411
83195SOL    HW161564   9.121   7.765  10.871 -0.0087 -1.5813  0.5220
83195SOL    HW261565   9.245   7.679  10.883  1.7786  0.7899 -0.2467
83196SOL     OW61566   7.454   3.818   8.636  0.0725  0.8379  0.1062
83196SOL    HW161567   7.372   3.865   8.652 -0.8747 -0.6273 -0.2632
83196SOL    HW261568   7.446   3.788   8.545 -1.0034 -3.0150  1.2997
83197SOL     OW61569   1.221   4.921   9.285  0.1259 -0.0204 -0.0415
83197SOL    HW161570   1.316   4.936   9.286  0.3413 -1.3470  0.4183
83197SOL    HW261571   1.206   4.856   9.353 -1.1839  0.4909  0.1869
83198SOL     OW61572   0.856  13.740   9.938  0.3578 -0.1372 -0.2904
83198SOL    HW161573   0.937  13.698   9.910  0.1213  0.4231 -1.8966
83198SOL    HW261574   0.803  13.746   9.859  0.4560  3.3380 -0.2546
83199SOL     OW61575   5.894  11.921   5.425 -0.0115  0.3164  0.0811
83199SOL    HW161576   5.945  11.869   5.488  2.3999  2.5281  0.1054
83199SOL    HW261577   5.960  11.969   5.375 -1.9587  0.1434 -2.8580
83200SOL     OW61578  10.794   7.602  13.251 -0.3304 -0.1034 -0.0206
83200SOL    HW161579  10.822   7.530  13.308  1.9044  0.2350 -0.5898
83200SOL    HW261580  10.699   7.605  13.260 -0.3330 -2.1769  1.1343
83201SOL     OW61581   8.326   4.841   8.444  0.4540  0.0991  0.0853
83201SOL    HW161582   8.311   4.934   8.462  0.6598  0.0750  0.3770
83201SOL    HW261583   8.389   4.813   8.511 -0.8499 -0.6497  1.0580
83202SOL     OW61584   3.661   3.469   4.557  0.7323  0.1517  0.4597
83202SOL    HW161585   3.647   3.375   4.541 -0.5172  0.6539 -1.8883
83202SOL    HW261586   3.581   3.498   4.599  0.4331  0.4489 -0.3010
83203SOL     OW61587   4.799   0.832   7.590 -0.1481 -0.1054 -0.4184
83203SOL    HW161588   4.884   0.790   7.606  0.4890  1.0942 -0.5202
83203SOL    HW261589   4.802   0.858   7.498 -0.3805  0.4661 -0.2714
83204SOL     OW61590   5.448   2.082   2.462 -0.5924 -0.2260 -0.0007
83204SOL    HW161591   5.360   2.053   2.484 -0.0856 -1.7975  0.0847
83204SOL    HW261592   5.456   2.065   2.368 -0.0814 -0.9684  0.1671
83205SOL     OW61593   2.003   0.872   2.745 -0.1567  0.2903 -0.3551
83205SOL    HW161594   2.059   0.878   2.822  1.9740  1.7789 -1.8970
83205SOL    HW261595   1.957   0.956   2.742 -0.9848 -0.1485 -0.1986
83206SOL     OW61596   9.011  10.660  11.628 -0.5382  0.1145 -0.5897
83206SOL    HW161597   9.022  10.647  11.722  1.7048 -1.3245 -0.9864
83206SOL    HW261598   8.977  10.576  11.596 -0.9843  0.4900 -1.1289
83207SOL     OW61599  12.106  11.412   1.932 -0.2075  0.0520 -0.1395
83207SOL    HW161600  12.036  11.438   1.992  0.4555 -1.4788  1.3748
83207SOL    HW261601  12.075  11.330   1.892  0.1947  0.0335 -0.4241
83208SOL     OW61602  12.222   8.102   1.689  0.2176 -0.0028 -0.1825
83208SOL    HW161603  12.206   8.026   1.634 -2.0550 -0.4866  1.0136
83208SOL    HW261604  12.140   8.115   1.737  0.9372  2.4713  0.5596
83209SOL     OW61605   7.085   3.463   1.754 -0.0090  0.2323  0.1929
83209SOL    HW161606   7.097   3.543   1.806 -2.9348 -0.6562  2.5369
83209SOL    HW261607   7.020   3.413   1.802  0.8555 -3.1109 -1.7999
83210SOL     OW61608   1.999  12.313   7.388  0.0385  0.0277 -0.6902
83210SOL    HW161609   2.062  12.363   7.439  0.6665 -1.7900  0.3841
83210SOL    HW261610   2.048  12.282   7.312 -0.0346  0.0559 -0.7495
83211SOL     OW61611  12.572   8.451  11.451 -0.2049 -0.1655 -0.1365
83211SOL    HW161612  12.665   8.466  11.467  0.0635 -2.8936  1.6997
83211SOL    HW261613  12.528   8.491  11.526 -0.6692  1.8267 -1.4007
83212SOL     OW61614   6.866   7.320   7.760 -0.1751  0.1507 -0.0016
83212SOL    HW161615   6.825   7.265   7.826 -0.5216 -0.8789 -1.0518
83212SOL    HW261616   6.822   7.297   7.679  0.3225  1.3141 -0.6207
83213SOL     OW61617   1.606   2.915  13.462 -0.4240 -0.3790 -0.4818
83213SOL    HW161618   1.700   2.929  13.466 -0.4124 -0.6791  1.2602
83213SOL    HW261619   1.568   2.997  13.494 -0.7042 -0.6511 -0.1038
83214SOL     OW61620   8.115   4.486   4.164  0.5549  0.1906 -0.3251
83214SOL    HW161621   8.146   4.430   4.235  2.3232  0.5482 -0.7840
83214SOL    HW261622   8.023   4.503   4.186  0.4224 -1.5563  0.6578
83215SOL     OW61623   7.312   3.282  13.157 -0.6876 -0.1749 -0.3247
83215SOL    HW161624   7.356   3.336  13.223 -2.8469 -1.5990  2.4463
83215SOL    HW261625   7.225   3.321  13.148 -0.7901 -0.6448 -1.6156
83216SOL     OW61626  10.012   9.370   6.352 -0.7077 -0.7107  0.3089
83216SOL    HW161627   9.953   9.296   6.338 -1.3645 -0.4923  1.7234
83216SOL    HW261628   9.957   9.447   6.337 -0.1257 -0.4796 -0.7781
83217SOL     OW61629   0.572  11.511   9.747  0.4967 -0.2283 -1.3296
83217SOL    HW161630   0.524  11.590   9.722  0.8735  0.0386 -1.2166
83217SOL    HW261631   0.629  11.539   9.818 -2.4093 -1.5090  1.8167
83218SOL     OW61632   2.777  13.298  13.791  0.6033 -0.0342 -0.1478
83218SOL    HW161633   2.729  13.242  13.730 -1.5277  0.7623  0.6903
83218SOL    HW261634   2.721  13.375  13.803  2.2149  1.0857  0.7454
83219SOL     OW61635  13.424   4.890   9.511 -0.0563 -0.1631  0.7943
83219SOL    HW161636  13.488   4.869   9.443 -0.5617  0.6977  0.0307
83219SOL    HW261637  13.444   4.981   9.534 -1.7216  0.5286 -0.3058
83220SOL     OW61638   5.208  10.514   3.664 -0.2288  0.1521 -0.0586
83220SOL    HW161639   5.255  10.473   3.737 -0.3110  0.3164  0.0894
83220SOL    HW261640   5.251  10.599   3.653  0.0630 -0.0496 -0.4854
83221SOL     OW61641   1.780   5.215   3.296 -0.2562  0.3541  0.0852
83221SOL    HW161642   1.689   5.190   3.282 -0.1026 -0.8214  1.0224
83221SOL    HW261643   1.823   5.134   3.325  0.6797  1.2944  1.4534
83222SOL     OW61644   6.448   2.570  12.022  0.2131  0.4129 -0.2282
83222SOL    HW161645   6.473   2.480  11.999  0.3449  0.6613 -1.0647
83222SOL    HW261646   6.371   2.588  11.969  0.7739  1.1426 -0.8149
83223SOL     OW61647  12.266  11.831  10.350  0.0964 -0.3263  0.2087
83223SOL    HW161648  12.361  11.842  10.338  0.0052 -0.9563 -1.4577
83223SOL    HW261649  12.228  11.901  10.297 -0.3767 -0.6119  0.1739
83224SOL     OW61650   4.417   4.191   8.581  0.5106 -0.7386  0.0598
83224SOL    HW161651   4.370   4.110   8.598  1.4322 -1.2377  0.3440
83224SOL    HW261652   4.356   4.260   8.604 -0.6195 -1.3293 -1.0601
83225SOL     OW61653  12.887   6.029  10.429 -0.3192 -0.2256  0.0180
83225SOL    HW161654  12.867   5.938  10.451  0.0468 -0.5983 -1.1074
83225SOL    HW261655  12.827   6.050  10.357 -1.2185  0.8226  1.0281
83226SOL     OW61656   8.395  11.103  13.129 -0.3962  0.0345 -0.4492
83226SOL    HW161657   8.419  11.118  13.220  2.9150 -2.7261 -0.6705
83226SOL    HW261658   8.307  11.066  13.133 -1.4275  2.4395  1.2961
83227SOL     OW61659   8.417   0.183   2.170  0.4976 -0.3682  1.0112
83227SOL    HW161660   8.478   0.110   2.158 -3.0310 -3.3039 -1.0645
83227SOL    HW261661   8.349   0.149   2.228 -2.6904  0.1135 -2.1226
83228SOL     OW61662  10.681  11.981   6.240  0.3200 -0.0951  0.1588
83228SOL    HW161663  10.770  11.947   6.242  0.2054 -0.3876  0.7571
83228SOL    HW261664  10.649  11.969   6.330 -0.4849 -0.4527 -0.1580
83229SOL     OW61665   9.373  13.392   7.231  0.3495 -0.2686  0.2414
83229SOL    HW161666   9.280  13.409   7.218  0.3031 -0.3746  0.4369
83229SOL    HW261667   9.382  13.297   7.226  0.4053 -0.2771  0.4970
83230SOL     OW61668   3.082   8.804   4.638  0.3770  0.2288 -0.1395
83230SOL    HW161669   3.107   8.884   4.592 -0.7347 -0.6032 -2.2965
83230SOL    HW261670   2.990   8.818   4.661 -0.3101 -1.0091 -1.9582
83231SOL     OW61671  11.577  10.111   8.132  0.3707  0.3094 -0.1095
83231SOL    HW161672  11.638  10.109   8.058 -0.9118 -0.4253 -1.1833
83231SOL    HW261673  11.613  10.047   8.195  1.6702  1.2139  0.1044
83232SOL     OW61674   4.835   2.914  11.668 -0.1233  0.3363  0.3771
83232SOL    HW161675   4.756   2.963  11.643 -0.2029 -0.7294 -1.7264
83232SOL    HW261676   4.809   2.822  11.664  0.7923  0.0217  1.3123
83233SOL     OW61677   2.274   7.171   7.574  0.3550 -0.0480  0.0341
83233SOL    HW161678   2.259   7.120   7.494  0.3707  0.0889 -0.0582
83233SOL    HW261679   2.351   7.224   7.554  1.2501 -1.0757  0.6737
83234SOL     OW61680   4.652   4.371   1.980 -0.0012 -0.2647  0.0478
83234SOL    HW161681   4.661   4.465   1.994 -0.3166 -0.4352  1.4671
83234SOL    HW261682   4.647   4.333   2.068 -0.1686 -1.5847 -0.5030
83235SOL     OW61683   8.718  10.678  11.354  0.4118  0.6443  0.2217
83235SOL    HW161684   8.644  10.733  11.380  0.5647  0.3709  1.2870
83235SOL    HW261685   8.773  10.735  11.301 -0.6726  0.7852 -0.8145
83236SOL     OW61686   4.601  12.807  13.088  0.1225 -0.3751 -0.1184
83236SOL    HW161687   4.570  12.767  13.007  0.3606 -0.5606 -0.1175
83236SOL    HW261688   4.688  12.841  13.067  0.5924 -1.2727  0.3229
83237SOL     OW61689   7.845   7.639   0.631  0.2317  0.5823  0.0381
83237SOL    HW161690   7.913   7.706   0.628  1.2369 -0.4550 -2.1802
83237SOL    HW261691   7.810   7.635   0.542 -1.9115  0.2261  0.8376
83238SOL     OW61692   2.532   1.558   5.540 -0.3800  0.0950 -0.0154
83238SOL    HW161693   2.535   1.473   5.497  0.3539 -0.2205  0.6335
83238SOL    HW261694   2.621   1.592   5.535 -0.6691  0.8461 -0.2965
83239SOL     OW61695   2.972   4.758   7.512  0.2201 -0.4006  0.4326
83239SOL    HW161696   2.975   4.725   7.602  1.7622  1.0221  0.9440
83239SOL    HW261697   2.978   4.853   7.520 -2.1595 -0.0195 -1.0982
83240SOL     OW61698  12.091  12.002   6.458 -0.0568  0.9965 -0.0472
83240SOL    HW161699  12.078  11.962   6.372 -2.1522  0.0200  0.6585
83240SOL    HW261700  12.118  11.930   6.514 -2.6192  0.6841  0.9499
83241SOL     OW61701   5.674   5.296  11.308  0.7648 -0.1622  0.6977
83241SOL    HW161702   5.640   5.270  11.394  1.1030  0.8520  1.1429
83241SOL    HW261703   5.769   5.286  11.316  0.7347 -1.1861  0.0505
83242SOL     OW61704  10.800   6.248   3.932 -0.0418  0.3023 -0.3050
83242SOL    HW161705  10.734   6.316   3.915 -1.1606 -0.6045  0.2652
83242SOL    HW261706  10.774   6.175   3.876 -0.9731 -0.9460  1.6614
83243SOL     OW61707  13.378   4.234  13.265  0.5995  0.3058 -0.5124
83243SOL    HW161708  13.366   4.328  13.248 -0.4494  0.2548 -0.1658
83243SOL    HW261709  13.336   4.190  13.191 -1.3527  0.1147  0.6350
83244SOL     OW61710  10.426  11.528   4.965  0.1034 -0.1914  0.2574
83244SOL    HW161711  10.479  11.527   4.885  0.0980  0.0195  0.2510
83244SOL    HW261712  10.443  11.614   5.004 -1.4158  0.5098 -0.5333
83245SOL     OW61713  11.679   6.008   9.299 -0.6366 -0.0236  0.2107
83245SOL    HW161714  11.671   6.095   9.338 -0.8846 -0.2668  0.7158
83245SOL    HW261715  11.604   6.001   9.240 -0.6623  0.0782  0.2306
83246SOL     OW61716   0.851   0.475   7.986  0.0082  0.2459  0.0637
83246SOL    HW161717   0.785   0.467   8.055 -1.5877  0.7973 -1.3339
83246SOL    HW261718   0.880   0.566   7.991  0.4971  0.0695  0.5171
83247SOL     OW61719  11.622  12.210  10.986  0.4788 -0.0783  0.2791
83247SOL    HW161720  11.668  12.187  10.906  1.5019 -1.8988  1.3436
83247SOL    HW261721  11.535  12.170  10.977 -0.1383  1.3611 -0.6937
83248SOL     OW61722   6.872  11.060   6.762  0.2121 -0.1680  0.6244
83248SOL    HW161723   6.787  11.024   6.738  0.3925 -0.7510  0.8529
83248SOL    HW261724   6.861  11.155   6.755  0.6881 -0.2315 -3.4165
83249SOL     OW61725   6.426   6.404   9.643 -0.2175 -0.1591  0.2161
83249SOL    HW161726   6.419   6.331   9.705 -0.2142 -0.6329 -0.3351
83249SOL    HW261727   6.460   6.365   9.563 -0.6497  0.3651 -0.2337
83250SOL     OW61728   2.512   7.611   7.504 -0.4968 -0.0837  0.1409
83250SOL    HW161729   2.417   7.605   7.497 -0.6179  1.0513  0.7318
83250SOL    HW261730   2.537   7.680   7.442 -0.2426  0.8471  1.2658
83251SOL     OW61731   5.258   3.684   9.194  0.5694  0.7130  0.2118
83251SOL    HW161732   5.163   3.682   9.205  0.7439 -1.1386  1.8924
83251SOL    HW261733   5.288   3.751   9.254  0.3148  1.7662 -0.7988
83252SOL     OW61734   7.514   8.995  11.674  0.3325  0.4971  0.0273
83252SOL    HW161735   7.546   8.925  11.731  2.8989  2.0069  0.5889
83252SOL    HW261736   7.516   8.956  11.586 -1.2704 -1.0659  0.6354
83253SOL     OW61737  11.058   3.038   2.235 -0.5042 -0.2572 -0.1088
83253SOL    HW161738  11.028   3.074   2.152  1.6229 -0.2546 -0.9514
83253SOL    HW261739  11.099   3.113   2.280 -1.7523 -0.2264  1.0293
83254SOL     OW61740   9.437  13.911  13.913 -0.5834 -0.0732 -0.1654
83254SOL    HW161741   9.467  14.000  13.899  1.9555 -1.0047 -1.1833
83254SOL    HW261742   9.341  13.918  13.916 -0.4446  2.9390  2.1493
83255SOL     OW61743   2.572   0.748   9.095  0.0133 -0.3039 -0.3227
83255SOL    HW161744   2.580   0.691   9.171  2.3796 -0.1405 -0.3836
83255SOL    HW261745   2.662   0.758   9.063 -0.4986  2.3345 -1.1420
83256SOL     OW61746   7.687   6.987   2.111  0.3385  0.1234 -0.2952
83256SOL    HW161747   7.653   7.033   2.188  2.8184  0.3748  0.7296
83256SOL    HW261748   7.702   7.056   2.047  1.3964  0.3913  0.2232
83257SOL     OW61749   0.613   6.709   0.995 -0.2324 -0.0320  0.1361
83257SOL    HW161750   0.574   6.673   0.916 -0.7830  1.6218 -0.3794
83257SOL    HW261751   0.708   6.695   0.984 -0.4377 -1.7615  0.2264
83258SOL     OW61752   7.971   8.995   2.003 -0.4348  0.0376  0.3871
83258SOL    HW161753   7.948   8.976   1.912  1.4194 -2.9051  0.3993
83258SOL    HW261754   8.066   9.009   2.002 -0.5284  1.0529  1.7641
83259SOL     OW61755   9.088  13.120   4.298  0.4457 -0.1196 -0.0990
83259SOL    HW161756   9.175  13.156   4.312  0.7606 -0.5154 -0.9624
83259SOL    HW261757   9.104  13.027   4.279 -0.0917 -0.0199 -1.0874
83260SOL     OW61758   8.360   3.549  11.711  0.3940 -0.1049  0.7905
83260SOL    HW161759   8.301   3.537  11.785  0.1575 -1.5913  0.3922
83260SOL    HW261760   8.405   3.465  11.702  2.3584  0.8748  0.8740
83261SOL     OW61761   7.243   2.441   4.991 -0.2318 -0.1544 -0.3266
83261SOL    HW161762   7.226   2.511   5.054  1.3471 -0.4788  0.5075
83261SOL    HW261763   7.313   2.475   4.936  0.6067 -1.0951  0.1337
83262SOL     OW61764   3.868   3.242   4.756  0.7573  0.1655 -0.4034
83262SOL    HW161765   3.911   3.187   4.821 -0.9454  0.3082  0.9395
83262SOL    HW261766   3.885   3.332   4.785 -0.3200  0.2251  0.1010
83263SOL     OW61767   5.611  11.319  13.740  0.3645  0.1662  0.4567
83263SOL    HW161768   5.684  11.258  13.746 -1.2499 -1.9240 -0.1385
83263SOL    HW261769   5.564  11.309  13.823  0.2160  0.8011  0.4570
83264SOL     OW61770  10.108  12.699  11.106 -0.3757 -0.4800  0.0464
83264SOL    HW161771  10.060  12.687  11.024  0.4914  0.5356 -0.6309
83264SOL    HW261772  10.159  12.619  11.116 -0.9473 -0.8641 -0.0864
83265SOL     OW61773   4.839   8.184   6.304 -0.2074 -0.0308 -0.6740
83265SOL    HW161774   4.823   8.271   6.269 -1.2002  0.2189  0.3635
83265SOL    HW261775   4.921   8.192   6.352 -0.3787  0.3637 -0.4496
83266SOL     OW61776   2.342   4.759   2.314 -0.0429 -0.0314 -0.3817
83266SOL    HW161777   2.350   4.668   2.285 -0.2813 -0.1974  0.0595
83266SOL    HW261778   2.247   4.774   2.318 -0.1955 -0.9464  3.0699
83267SOL     OW61779  10.735  11.036   8.073 -0.4132  0.2272  0.4564
83267SOL    HW161780  10.656  11.029   8.019  0.8187  1.2060 -1.5564
83267SOL    HW261781  10.710  11.093   8.145 -1.3031  1.3118 -0.6757
83268SOL     OW61782  10.092  10.997  12.606  0.3167 -0.5373 -0.2601
83268SOL    HW161783  10.152  10.933  12.570  0.3418 -0.2632 -0.7118
83268SOL    HW261784  10.008  10.952  12.611 -0.0975 -0.0749 -2.2676
83269SOL     OW61785   0.240   0.131   8.655 -0.0521  0.0808 -0.1873
83269SOL    HW161786   0.198   0.093   8.577 -1.1930  0.2828  0.3091
83269SOL    HW261787   0.202   0.218   8.663  0.3490  0.2077  0.3852
83270SOL     OW61788   5.594  10.587  10.381 -0.6918 -0.5935 -0.1395
83270SOL    HW161789   5.584  10.505  10.429  0.9377  0.2849  1.8386
83270SOL    HW261790   5.596  10.655  10.449  1.3769  0.7561 -1.4477
83271SOL     OW61791   6.324   7.179   6.381 -0.1089 -0.5812 -0.3376
83271SOL    HW161792   6.269   7.106   6.354  1.6803 -1.5433 -1.6102
83271SOL    HW261793   6.332   7.233   6.303 -1.4758  1.0939  0.6142
83272SOL     OW61794   0.106  10.073   1.842 -0.2499 -0.3825  0.1683
83272SOL    HW161795   0.112  10.159   1.801 -2.7969  0.0994  0.6310
83272SOL    HW261796   0.197  10.045   1.853  0.6792  2.4128  0.3643
83273SOL     OW61797   4.637   8.561   0.987 -0.2885 -0.1060  0.1966
83273SOL    HW161798   4.644   8.646   0.943 -0.8895  0.3710  0.9954
83273SOL    HW261799   4.566   8.516   0.942  2.0869 -1.5933 -2.4365
83274SOL     OW61800   9.210   8.708  13.124 -0.1279  0.3659 -0.1013
83274SOL    HW161801   9.292   8.659  13.125 -0.2756  0.1193  0.3402
83274SOL    HW261802   9.231   8.791  13.082 -0.0269 -0.3440 -1.5123
83275SOL     OW61803   0.542  12.228   7.788  0.2079  0.4012  0.0829
83275SOL    HW161804   0.505  12.176   7.717  0.0508 -1.0961  1.2333
83275SOL    HW261805   0.635  12.209   7.785  0.1907  0.2864  0.3304
83276SOL     OW61806   4.597  13.132   5.485  0.2258  0.1934 -0.2111
83276SOL    HW161807   4.602  13.213   5.436 -0.0456  0.3091 -0.0507
83276SOL    HW261808   4.662  13.075   5.445  1.4059  0.9605  0.5534
83277SOL     OW61809   1.877  12.568   4.845 -0.2065  0.3093 -0.4514
83277SOL    HW161810   1.813  12.603   4.783 -0.2636  1.3011  0.1438
83277SOL    HW261811   1.960  12.568   4.797 -0.6530 -1.1102 -1.2745
83278SOL     OW61812   6.394   5.815   9.445 -0.3203  0.2421 -0.2753
83278SOL    HW161813   6.427   5.781   9.361 -0.4133  0.5974 -0.4584
83278SOL    HW261814   6.323   5.874   9.420 -0.3315  0.3691  0.0559
83279SOL     OW61815  13.535   0.365   6.542  0.4661 -0.5320  0.0484
83279SOL    HW161816  13.505   0.391   6.629  0.5969 -1.3173  0.3339
83279SOL    HW261817  13.596   0.434   6.516 -1.2776  0.9390 -0.4053
83280SOL     OW61818   0.754   6.475   4.780  0.0596 -0.3605 -0.1494
83280SOL    HW161819   0.748   6.417   4.856  1.3568  0.2743  0.4797
83280SOL    HW261820   0.729   6.421   4.706 -1.8542 -0.8298  0.7920
83281SOL     OW61821   0.032   1.068  13.453 -0.3737 -0.4512  0.3239
83281SOL    HW161822  -0.013   1.001  13.403 -0.5938 -0.5389  0.6354
83281SOL    HW261823   0.016   1.149  13.405 -0.2093 -0.6007  0.0159
83282SOL     OW61824  13.073   9.484   1.682  0.1312  0.3023 -0.2007
83282SOL    HW161825  13.083   9.504   1.589  2.2615 -0.0614 -0.0822
83282SOL    HW261826  13.075   9.388   1.686 -0.6914  0.2868  0.1809
83283SOL     OW61827  11.234   3.289   8.879 -0.3013  0.1073 -0.6221
83283SOL    HW161828  11.258   3.205   8.917  0.2249 -0.0473 -1.2640
83283SOL    HW261829  11.305   3.308   8.817  0.7054  2.0367  1.0121
83284SOL     OW61830   0.839   7.219   5.478 -0.2226 -0.1233  0.2287
83284SOL    HW161831   0.848   7.127   5.454 -0.2218 -0.7076  2.2922
83284SOL    HW261832   0.845   7.266   5.395  0.8475 -1.8972 -0.7565
83285SOL     OW61833  13.861   2.481  11.595 -0.1424 -0.4144  0.2127
83285SOL    HW161834  13.791   2.544  11.580 -1.1956 -1.3800  0.8968
83285SOL    HW261835  13.867   2.433  11.512 -0.9176 -0.9075  0.4275
83286SOL     OW61836   7.038   0.502   6.700  0.1588 -0.6819  0.9570
83286SOL    HW161837   7.043   0.431   6.764  1.0942 -2.3551 -0.8724
83286SOL    HW261838   7.129   0.521   6.677 -0.1784 -0.3421 -0.1378
83287SOL     OW61839   4.814   8.398   4.686 -0.1677 -0.5229 -0.3716
83287SOL    HW161840   4.841   8.483   4.720  3.0607 -1.0715 -1.1713
83287SOL    HW261841   4.892   8.343   4.696 -2.5895 -4.0058  1.7503
83288SOL     OW61842  13.250  12.993  13.611  0.1902  0.1482  0.1142
83288SOL    HW161843  13.267  13.073  13.562  0.7737 -0.2966 -0.4300
83288SOL    HW261844  13.204  13.022  13.690  0.8081  1.0669  0.1549
83289SOL     OW61845   6.091   7.380  12.924  0.2029 -0.4022  0.0288
83289SOL    HW161846   6.149   7.308  12.899  2.6121  0.8758  1.4560
83289SOL    HW261847   6.140   7.459  12.899 -1.2429  0.7542  0.7198
83290SOL     OW61848   3.599   5.421  10.178 -0.5305 -0.4064 -0.2273
83290SOL    HW161849   3.590   5.327  10.162 -1.0977 -0.2858 -0.6259
83290SOL    HW261850   3.672   5.427  10.240 -0.1409 -1.0717 -0.6029
83291SOL     OW61851   0.758   3.263   7.056 -0.0998  0.3331  0.3734
83291SOL    HW161852   0.720   3.261   7.144  0.0010 -2.1995  0.4238
83291SOL    HW261853   0.839   3.212   7.064  1.0348  1.8506 -0.7493
83292SOL     OW61854   6.418   7.252   6.125  0.0240  0.9944  0.0773
83292SOL    HW161855   6.358   7.326   6.135  2.2765  2.7617  1.4597
83292SOL    HW261856   6.383   7.203   6.051 -4.4270  0.5568  2.1490
83293SOL     OW61857   4.690  12.897  10.216 -0.3185 -0.2344  0.0010
83293SOL    HW161858   4.645  12.839  10.155  0.9706 -1.0594 -0.1887
83293SOL    HW261859   4.726  12.839  10.282 -1.1148  0.5921  1.2051
83294SOL     OW61860  13.033   2.949   6.127 -0.2631  0.5948  0.4495
83294SOL    HW161861  13.082   2.939   6.045 -0.9411 -1.5109  0.2336
83294SOL    HW261862  13.099   2.971   6.192  0.6402  0.0405 -0.2503
83295SOL     OW61863   3.250   0.467  12.473  0.4348 -0.0667  0.1577
83295SOL    HW161864   3.334   0.435  12.506  0.8816 -2.2121 -2.6916
83295SOL    HW261865   3.273   0.535  12.410 -0.0917  0.3356  0.3869
83296SOL     OW61866   0.480   5.154   5.548 -0.4267  0.6000 -0.0547
83296SOL    HW161867   0.437   5.097   5.611  0.5956 -0.1793 -0.0373
83296SOL    HW261868   0.561   5.108   5.525 -0.3418  1.3036 -1.2390
83297SOL     OW61869   5.877   6.813  13.891 -0.1118 -0.1887 -0.3700
83297SOL    HW161870   5.965   6.779  13.903 -0.0447  0.4045  1.0461
83297SOL    HW261871   5.820   6.742  13.920 -0.0166  0.2026  0.8459
83298SOL     OW61872   8.186   6.168   9.331 -0.1115 -0.3351  0.5909
83298SOL    HW161873   8.197   6.131   9.419 -1.1849  1.0490  1.3510
83298SOL    HW261874   8.221   6.101   9.272  1.4436 -0.9363  2.1101
83299SOL     OW61875   8.063   2.632  11.069  0.1224  0.3805 -0.1387
83299SOL    HW161876   8.033   2.546  11.040 -1.1328  0.3372  1.1243
83299SOL    HW261877   8.071   2.624  11.164  0.8408  1.4115 -0.0913
83300SOL     OW61878   6.138   8.676   9.615 -0.2260 -0.2445 -0.0298
83300SOL    HW161879   6.132   8.769   9.595 -1.2613 -0.5055 -1.0061
83300SOL    HW261880   6.191   8.672   9.695  1.4220  1.0435 -1.0125
83301SOL     OW61881  11.250  12.961   4.993  0.2568 -0.2176 -0.1878
83301SOL    HW161882  11.156  12.950   4.981  0.2190  0.3811 -0.4459
83301SOL    HW261883  11.289  12.881   4.957 -0.2202 -1.0664  1.0818
83302SOL     OW61884  13.708   4.810   8.270 -0.0370  0.0132  0.4318
83302SOL    HW161885  13.655   4.890   8.265 -0.3138 -0.2441 -2.8445
83302SOL    HW261886  13.645   4.739   8.267  0.2710 -0.2950 -3.2957
83303SOL     OW61887   9.549  10.048   2.596 -0.0581  0.2258  0.1382
83303SOL    HW161888   9.598  10.130   2.588  0.0264  0.1062 -0.6314
83303SOL    HW261889   9.615   9.980   2.604 -0.0796  0.0791 -0.7672
83304SOL     OW61890   4.663   1.425   7.638  0.1333 -0.3430 -0.4667
83304SOL    HW161891   4.605   1.442   7.564  0.3698  1.3788 -0.3130
83304SOL    HW261892   4.625   1.350   7.683 -1.8346  0.5694 -0.5359
83305SOL     OW61893  13.888  10.606  11.781  0.2391 -0.1438 -0.2492
83305SOL    HW161894  13.952  10.576  11.716 -0.3925  0.6355 -1.2593
83305SOL    HW261895  13.813  10.635  11.729 -0.7615 -0.6059  0.8963
83306SOL     OW61896  13.449   5.339   5.819  0.1064  0.0930  0.2048
83306SOL    HW161897  13.417   5.328   5.908  0.5917 -0.7597  0.2788
83306SOL    HW261898  13.370   5.335   5.764  0.0276 -1.8023  0.4017
83307SOL     OW61899  12.099  10.029   1.821  0.5160 -0.3866 -0.2239
83307SOL    HW161900  12.034  10.049   1.754 -0.0302 -0.6961  0.1998
83307SOL    HW261901  12.157   9.965   1.781  1.4800  0.9943 -1.1280
83308SOL     OW61902   7.022   9.509   1.693  0.1721 -0.4296  0.2149
83308SOL    HW161903   7.111   9.544   1.699  0.3929  0.3333 -4.3218
83308SOL    HW261904   7.032   9.426   1.646 -1.4260 -1.1700  1.0884
83309SOL     OW61905  13.615  13.501   7.607  0.2029 -0.2763 -0.8623
83309SOL    HW161906  13.694  13.502   7.553  1.8112  0.6876  1.3957
83309SOL    HW261907  13.572  13.585   7.587  1.1553  0.3957 -0.1671
83310SOL     OW61908   2.674  12.154  12.577 -0.7872  0.4525  0.3068
83310SOL    HW161909   2.616  12.195  12.513 -1.6749  0.5657  1.1787
83310SOL    HW261910   2.663  12.205  12.657  2.4023  2.0850 -0.1258
83311SOL     OW61911   9.913  13.342  13.698 -0.1093 -0.1199 -0.1667
83311SOL    HW161912   9.962  13.424  13.708 -0.0271 -0.0359 -1.0928
83311SOL    HW261913   9.925  13.296  13.781 -0.7781  1.1333  0.6614
83312SOL     OW61914   0.016   7.892  11.832  0.4393 -0.4778 -0.2924
83312SOL    HW161915  -0.026   7.938  11.904  0.2757 -0.2860 -0.5107
83312SOL    HW261916   0.078   7.832  11.874 -1.1619 -1.9005  0.1147
83313SOL     OW61917   7.016   1.164  12.598 -0.4643  0.4587 -0.1477
83313SOL    HW161918   6.965   1.086  12.576  0.8071 -0.3247 -0.3855
83313SOL    HW261919   7.107   1.138  12.585 -0.0345  2.2135 -0.9988
83314SOL     OW61920   2.554   2.853   5.688 -0.6296  0.3236 -0.2229
83314SOL    HW161921   2.587   2.803   5.763  2.4947  1.4874 -0.6520
83314SOL    HW261922   2.543   2.788   5.619  0.4050 -0.2198  0.1021
83315SOL     OW61923   8.446  12.466   8.954 -0.2077 -0.8341 -0.5146
83315SOL    HW161924   8.360  12.426   8.941  0.2684 -2.1190  0.1172
83315SOL    HW261925   8.503  12.421   8.892  0.0041  0.1132 -1.0333
83316SOL     OW61926   1.023   6.154   7.170  0.0182 -0.1663  0.2424
83316SOL    HW161927   0.931   6.164   7.147  0.4316  1.3887 -0.8791
83316SOL    HW261928   1.063   6.115   7.092  0.2003 -1.6528  1.0304
83317SOL     OW61929   3.725  11.387   2.769  0.1905 -0.0775  0.4443
83317SOL    HW161930   3.736  11.292   2.770 -0.4368 -0.1989 -1.1695
83317SOL    HW261931   3.639  11.401   2.809 -0.7439 -0.4193 -1.3098
83318SOL     OW61932   6.444   8.987   3.290 -0.0157  0.1359 -0.1137
83318SOL    HW161933   6.429   9.050   3.361 -1.0034 -1.2097  0.9171
83318SOL    HW261934   6.478   8.909   3.334  0.5754 -0.2814 -1.2899
83319SOL     OW61935   5.029   8.111   7.180 -0.1234  0.7948 -0.2334
83319SOL    HW161936   5.090   8.148   7.243  0.1666 -0.1341  0.0574
83319SOL    HW261937   5.060   8.143   7.095  2.7898 -2.0546 -0.4928
83320SOL     OW61938  12.409   5.046   2.881 -0.1031 -0.0312  0.2738
83320SOL    HW161939  12.411   4.987   2.956 -0.6900  0.2073  0.4877
83320SOL    HW261940  12.463   5.121   2.907 -1.0253  0.4603  0.8242
83321SOL     OW61941   2.643   9.835  13.712 -0.0168  0.0563  0.1253
83321SOL    HW161942   2.731   9.871  13.703  0.4295 -0.5708  1.7350
83321SOL    HW261943   2.610   9.830  13.622  1.5716  0.3135 -0.4992
83322SOL     OW61944  13.979  11.824   8.684 -0.1881  0.6986  0.2422
83322SOL    HW161945  14.045  11.874   8.636  0.3385 -0.6362 -0.4902
83322SOL    HW261946  13.941  11.765   8.618  0.1565 -0.7945  1.3199
83323SOL     OW61947  10.799   7.088  10.898 -0.3277  0.1334  0.3234
83323SOL    HW161948  10.795   7.146  10.821 -1.8177 -0.2006  0.1131
83323SOL    HW261949  10.860   7.019  10.872  0.4795  0.9046  0.0951
83324SOL     OW61950   2.001  12.027   8.174 -0.5535 -0.2087  0.5122
83324SOL    HW161951   1.925  11.972   8.154 -0.5207 -1.0519  2.3987
83324SOL    HW261952   2.032  11.994   8.259  2.2265 -0.2146 -0.3927
83325SOL     OW61953   6.204   0.072  13.928  0.5064 -0.2431  0.4992
83325SOL    HW161954   6.206   0.142  13.994 -0.2460 -0.4438  0.7464
83325SOL    HW261955   6.161   0.111  13.852  0.2779 -0.3739  0.5612
83326SOL     OW61956   4.003   0.499  13.121  0.1303  0.1851 -0.3502
83326SOL    HW161957   4.089   0.534  13.098 -0.5146  1.2469 -1.2102
83326SOL    HW261958   3.990   0.525  13.212 -0.4180  2.4370 -1.0213
83327SOL     OW61959   7.278   5.620  13.536 -0.5492 -0.1983  0.4852
83327SOL    HW161960   7.255   5.555  13.470  0.0442 -0.0723  0.1414
83327SOL    HW261961   7.355   5.583  13.579  0.1491  0.5323 -0.1063
83328SOL     OW61962  12.299   2.946   9.571  0.4521 -0.1171  0.1571
83328SOL    HW161963  12.303   2.869   9.515  1.4456  0.1707 -0.2018
83328SOL    HW261964  12.348   3.013   9.523 -2.9763  1.7647 -1.0521
83329SOL     OW61965   4.586   0.591   7.718  0.3081  0.3240 -0.1421
83329SOL    HW161966   4.643   0.657   7.678 -1.2981  0.8980 -1.6509
83329SOL    HW261967   4.567   0.530   7.647  1.4183 -1.5783  1.1324
83330SOL     OW61968   2.663  11.047  13.530  0.2733  0.2767 -0.0055
83330SOL    HW161969   2.636  11.043  13.438 -1.7463  1.2452  0.4656
83330SOL    HW261970   2.753  11.078  13.527  0.7286 -1.0415 -1.6826
83331SOL     OW61971   9.469   8.928   8.900 -0.5789  0.3869  0.3327
83331SOL    HW161972   9.547   8.970   8.935  0.2574 -1.2058  0.4843
83331SOL    HW261973   9.484   8.926   8.805 -0.2387 -0.2545  0.3932
83332SOL     OW61974  11.329   2.389   5.685  0.3287 -0.8522 -0.0739
83332SOL    HW161975  11.304   2.313   5.632  0.8968  1.1500 -3.4552
83332SOL    HW261976  11.246   2.424   5.719 -0.3594 -0.7356 -1.8031
83333SOL     OW61977   3.839  13.518   2.544  0.7648 -0.2704  0.6476
83333SOL    HW161978   3.764  13.468   2.511  2.1616 -2.3097  0.4504
83333SOL    HW261979   3.881  13.551   2.465 -0.5372  1.9526  0.7882
83334SOL     OW61980   5.372   3.588  12.751 -0.2825  0.3794 -0.4871
83334SOL    HW161981   5.308   3.626  12.691  0.0113 -0.3974 -1.3014
83334SOL    HW261982   5.436   3.658  12.764 -1.2179  1.1429  0.2831
83335SOL     OW61983   5.153   9.303   0.770  0.2719 -0.1531  0.1777
83335SOL    HW161984   5.167   9.238   0.839 -0.4730  0.7701  1.2410
83335SOL    HW261985   5.237   9.308   0.724  0.9578 -0.4264  1.3509
83336SOL     OW61986   6.340   8.231   7.400 -0.5310  0.4502 -0.1658
83336SOL    HW161987   6.382   8.200   7.480 -2.4470  1.9544  1.5409
83336SOL    HW261988   6.270   8.168   7.384 -0.3326  0.3131 -0.4992
83337SOL     OW61989   9.704   6.292   5.808 -0.1754 -0.8211  0.3409
83337SOL    HW161990   9.738   6.368   5.760  2.1338 -1.1647  1.3140
83337SOL    HW261991   9.668   6.328   5.889  0.6190 -0.7254  0.6539
83338SOL     OW61992  13.424   9.400   4.519  0.1360 -0.6282 -0.1248
83338SOL    HW161993  13.490   9.345   4.477 -1.0252 -1.1284 -1.3898
83338SOL    HW261994  13.457   9.489   4.511  1.9452 -1.0396  1.7560
83339SOL     OW61995   8.170   8.886   6.726  0.3151  0.3825  0.3327
83339SOL    HW161996   8.186   8.889   6.632  0.0229 -1.4270  0.1832
83339SOL    HW261997   8.255   8.906   6.766  0.8824 -0.5477 -0.3586
83340SOL     OW61998   1.478   3.652   5.332  0.2094 -0.3840  0.6020
83340SOL    HW161999   1.463   3.728   5.276  1.4640 -0.5053  0.0753
83340SOL    HW262000   1.555   3.674   5.383 -0.7936 -0.3694  2.1682
83341SOL     OW62001   1.078   9.648   4.639  0.4351  0.2101  0.3293
83341SOL    HW162002   1.037   9.575   4.684 -0.4454  0.4309 -0.0944
83341SOL    HW262003   1.047   9.640   4.548  0.2241  1.1760  0.3081
83342SOL     OW62004   9.594   9.966  13.220 -0.3762 -0.1967  0.0086
83342SOL    HW162005   9.593   9.880  13.262 -0.3951 -0.2234 -0.0456
83342SOL    HW262006   9.684   9.997  13.231  0.0310 -0.8631 -1.2726
83343SOL     OW62007   4.415   0.362   9.907 -0.4736 -0.0130  0.3029
83343SOL    HW162008   4.373   0.423   9.846  0.1884 -0.0166 -0.1618
83343SOL    HW262009   4.349   0.294   9.921  0.3426 -1.6031 -2.6939
83344SOL     OW62010   7.930  12.056   2.341 -0.5501 -0.2171 -0.0956
83344SOL    HW162011   7.999  12.103   2.388 -1.4010  1.2012 -0.2127
83344SOL    HW262012   7.871  12.025   2.409 -0.6977  0.0410 -0.1084
83345SOL     OW62013   4.366   2.832   9.045  0.3939 -0.0317  0.5805
83345SOL    HW162014   4.319   2.766   9.095 -0.1217  1.0524  1.5852
83345SOL    HW262015   4.298   2.879   8.997  0.7476 -0.1922 -0.0934
83346SOL     OW62016   1.908  11.112   3.101  0.0530 -0.6909  0.1528
83346SOL    HW162017   1.925  11.194   3.148  0.1490  0.4537 -1.7934
83346SOL    HW262018   1.814  11.114   3.084  0.4891  0.7837 -2.8326
83347SOL     OW62019   3.273   7.010  10.305 -0.0067  0.4570  0.1783
83347SOL    HW162020   3.231   7.068  10.368 -0.9134  0.6649 -0.6102
83347SOL    HW262021   3.279   7.061  10.225  2.1331  0.5830  0.3522
83348SOL     OW62022   5.881  10.058   8.254 -0.6082  0.2349 -0.2680
83348SOL    HW162023   5.815  10.126   8.261  0.2782  1.0949 -0.0699
83348SOL    HW262024   5.858   9.995   8.323 -1.2175  0.5186 -0.2091
83349SOL     OW62025  11.803   9.199   4.767 -0.2518  0.1274 -0.1824
83349SOL    HW162026  11.783   9.163   4.681 -0.2858 -1.6872  0.5388
83349SOL    HW262027  11.741   9.156   4.826  1.1792 -0.3033  1.0633
83350SOL     OW62028   6.668   9.561   8.848  0.5210 -0.6021 -0.1408
83350SOL    HW162029   6.584   9.521   8.873  0.3300 -0.8255 -1.0971
83350SOL    HW262030   6.722   9.554   8.927 -0.5541  0.1188  0.6984
83351SOL     OW62031   9.200   9.500  12.703 -0.2779 -0.2577  0.2582
83351SOL    HW162032   9.108   9.525  12.700 -0.4871 -0.9503  0.6462
83351SOL    HW262033   9.220   9.474  12.613 -0.8510 -1.3881  0.4298
83352SOL     OW62034   3.867  13.173   9.565  0.8287  0.0066  0.1151
83352SOL    HW162035   3.930  13.104   9.546 -1.1682 -1.7211 -0.6276
83352SOL    HW262036   3.859  13.222   9.482 -0.2886 -1.0733 -0.4378
83353SOL     OW62037  12.564  10.164  12.105 -0.4995 -0.2505 -0.0019
83353SOL    HW162038  12.491  10.102  12.102  1.2810 -2.5292  0.4946
83353SOL    HW262039  12.612  10.149  12.024  0.1173  0.2945  0.2467
83354SOL     OW62040   9.410   1.156   1.925 -0.1383 -0.0350  0.0383
83354SOL    HW162041   9.443   1.236   1.885  1.2384 -0.7978 -0.4253
83354SOL    HW262042   9.471   1.088   1.897 -0.6093 -1.0543  1.3676
83355SOL     OW62043   8.644  12.400   5.737  0.7014 -0.0370  0.4592
83355SOL    HW162044   8.602  12.475   5.695 -0.5504 -0.4141  0.9834
83355SOL    HW262045   8.622  12.326   5.680  0.7971 -0.2166  0.6566
83356SOL     OW62046   5.051   2.504  13.584  0.2324  0.0189  0.3708
83356SOL    HW162047   4.968   2.488  13.629  0.3876  0.4376  0.8184
83356SOL    HW262048   5.117   2.461  13.638  0.2000 -1.2648 -0.5667
83357SOL     OW62049   7.458  10.822  13.076  0.3754  0.1366 -0.3624
83357SOL    HW162050   7.481  10.823  12.984  1.0093  1.0015 -0.2019
83357SOL    HW262051   7.362  10.824  13.077  0.3771  0.8615 -0.9945
83358SOL     OW62052   3.843   0.447   9.404 -0.0482 -0.4085 -0.4820
83358SOL    HW162053   3.856   0.542   9.392 -1.6748  0.1213  1.3326
83358SOL    HW262054   3.784   0.422   9.334  1.0570 -0.2858 -1.4855
83359SOL     OW62055   5.128   3.019   8.009  0.4513  0.3911  0.2840
83359SOL    HW162056   5.033   3.010   8.005  0.5262  0.0821 -1.9245
83359SOL    HW262057   5.142   3.111   8.031 -0.3585  0.4262  0.6836
83360SOL     OW62058  10.054   5.022   8.005 -0.2961 -0.2561  0.2288
83360SOL    HW162059  10.108   4.961   8.055  0.7550  0.3336 -0.1490
83360SOL    HW262060  10.112   5.096   7.987 -0.8192 -0.1784 -1.3225
83361SOL     OW62061  11.626   1.480  10.644 -0.2060  0.0474  0.2350
83361SOL    HW162062  11.575   1.462  10.723 -0.6934  0.6101  0.0560
83361SOL    HW262063  11.581   1.553  10.602  0.9889  0.8537  0.3030
83362SOL     OW62064   1.786  13.343   7.359  0.2896 -0.2459 -0.1020
83362SOL    HW162065   1.754  13.313   7.444  1.3455 -0.1888  0.3393
83362SOL    HW262066   1.728  13.416   7.336  0.8421  0.6776  1.2701
83363SOL     OW62067   1.445   8.758  11.284 -0.1073  0.4968  0.1676
83363SOL    HW162068   1.533   8.744  11.251  0.0884  0.2417  0.7829
83363SOL    HW262069   1.387   8.737  11.211  0.3218  0.1867 -0.0815
83364SOL     OW62070  10.871   5.860   1.077  0.2832 -0.6853  0.6998
83364SOL    HW162071  10.784   5.840   1.044 -0.4624 -1.0299  2.7602
83364SOL    HW262072  10.919   5.777   1.068  0.1858 -0.6986  0.2594
83365SOL     OW62073   2.059  11.291   8.034 -0.2568 -0.0509 -0.6961
83365SOL    HW162074   2.039  11.382   8.011  1.8168  0.2307 -1.6456
83365SOL    HW262075   2.031  11.239   7.959  0.0559  0.0048 -0.8518
83366SOL     OW62076   3.972   9.010   1.098 -0.3105  0.2775 -0.7287
83366SOL    HW162077   4.031   8.976   1.030  0.5333  0.3248 -0.0481
83366SOL    HW262078   3.885   8.986   1.069 -0.1319  1.7752 -2.6955
83367SOL     OW62079  12.344   8.015  10.928 -0.2374  0.1670  0.2925
83367SOL    HW162080  12.431   7.976  10.916 -1.1324 -1.7173 -0.4448
83367SOL    HW262081  12.342   8.042  11.020  1.2723  0.6705  0.2050
83368SOL     OW62082   1.340   0.474   3.920 -0.0739  0.7201 -0.1083
83368SOL    HW162083   1.398   0.417   3.868 -0.1553  1.6181 -1.2267
83368SOL    HW262084   1.272   0.415   3.952  0.7009 -0.1004  0.0784
83369SOL     OW62085   5.179   7.412   3.193  0.5331  0.0448 -0.0628
83369SOL    HW162086   5.203   7.502   3.212  0.0508 -0.2317  2.1688
83369SOL    HW262087   5.233   7.387   3.118  1.4725  1.8297 -0.0178
83370SOL     OW62088   6.712  13.765   6.514  0.4288 -0.4093 -0.6088
83370SOL    HW162089   6.655  13.834   6.479  0.2539  0.2880  0.9585
83370SOL    HW262090   6.790  13.812   6.545  0.1456 -0.8252  0.8171
83371SOL     OW62091   9.203   2.363   1.379  0.8208 -0.4428 -0.3148
83371SOL    HW162092   9.114   2.339   1.404  0.0257  0.3529 -2.1944
83371SOL    HW262093   9.251   2.366   1.462 -1.1713  0.2057  0.8834
83372SOL     OW62094   2.975   5.393   1.250 -0.6006  0.0469 -0.3092
83372SOL    HW162095   2.901   5.332   1.251  1.0105 -2.0483  0.9173
83372SOL    HW262096   3.039   5.352   1.192  0.4121  0.7027  0.3043
83373SOL     OW62097  13.901  12.288   3.884 -0.0926  0.0806 -0.5239
83373SOL    HW162098  13.851  12.328   3.955  0.2457 -0.8733  0.2829
83373SOL    HW262099  13.886  12.344   3.808  0.1176  1.5353  0.4743
83374SOL     OW62100   3.198   4.947  11.698 -0.1790  0.1005  0.0894
83374SOL    HW162101   3.180   4.951  11.792  0.6540  0.5388  0.2458
83374SOL    HW262102   3.285   4.987  11.689  0.2350 -0.9322 -0.7353
83375SOL     OW62103  11.752  11.774  11.534  0.1478 -0.1276  0.2473
83375SOL    HW162104  11.755  11.696  11.589  0.4233  0.1829  0.6700
83375SOL    HW262105  11.843  11.788  11.507  0.3313  0.8902  1.3525
83376SOL     OW62106   4.929   4.295   9.676 -0.2169  0.2030 -0.7335
83376SOL    HW162107   5.014   4.256   9.696 -0.6297  0.4118  1.7469
83376SOL    HW262108   4.867   4.222   9.684 -0.5826  0.6196  0.4494
83377SOL     OW62109  12.351   4.135  13.238  0.0596  0.2899 -0.5984
83377SOL    HW162110  12.276   4.192  13.252 -0.4130 -0.3551 -0.4197
83377SOL    HW262111  12.423   4.178  13.284 -0.2966  0.7125 -0.4233
83378SOL     OW62112  12.906  12.454   7.353  0.1165 -0.3407  0.0204
83378SOL    HW162113  12.816  12.452   7.385  0.3006  1.0337  0.7137
83378SOL    HW262114  12.948  12.524   7.404  1.7635 -1.3989  0.1901
83379SOL     OW62115  12.270   8.072   0.955  0.2444 -0.5851  0.3141
83379SOL    HW162116  12.341   8.129   0.929 -0.2165  0.5231  1.3765
83379SOL    HW262117  12.289   8.050   1.046 -0.6775 -0.3996  0.5651
83380SOL     OW62118   3.405  13.918   6.044 -0.2446 -0.5528  0.6975
83380SOL    HW162119   3.489  13.941   6.083  0.3983 -2.8839  0.8090
83380SOL    HW262120   3.366  14.002   6.019  0.8550  0.7952  3.1835
83381SOL     OW62121   4.818   8.659   0.113 -0.2017 -0.1436  0.4042
83381SOL    HW162122   4.863   8.575   0.102 -0.5492 -0.4397  1.1852
83381SOL    HW262123   4.730   8.645   0.077 -0.0822  0.0647  0.0176
83382SOL     OW62124   1.816  10.570  12.955  0.3149  0.1745  0.7451
83382SOL    HW162125   1.907  10.559  12.982  0.0793 -0.3002  1.3382
83382SOL    HW262126   1.777  10.623  13.024 -0.3184 -1.1452  1.4143
83383SOL     OW62127  10.138  12.954  11.459  0.2330  0.2450  0.0741
83383SOL    HW162128  10.190  12.914  11.389 -0.5922 -0.0085 -0.4198
83383SOL    HW262129  10.093  13.027  11.416 -1.2034 -0.6377  0.0239
83384SOL     OW62130  10.818   9.332  13.986  0.2424  0.5747 -0.3718
83384SOL    HW162131  10.727   9.308  13.970  0.8136 -0.1411 -2.9237
83384SOL    HW262132  10.814   9.424  14.014 -1.2271  0.6457 -0.7560
83385SOL     OW62133  11.633   3.803   5.723  1.1503  0.5026 -0.3756
83385SOL    HW162134  11.693   3.730   5.739  2.7474  1.1038 -3.0343
83385SOL    HW262135  11.686   3.881   5.738  0.4254  1.0885 -0.8292
83386SOL     OW62136   4.961   0.491   7.918 -0.1196  0.1826 -0.8884
83386SOL    HW162137   4.981   0.397   7.914 -1.4681 -0.1543 -0.1912
83386SOL    HW262138   4.900   0.500   7.991 -1.8512  1.2576 -2.3821
83387SOL     OW62139   4.912  10.885  13.101 -0.1553  0.0383  1.2863
83387SOL    HW162140   4.865  10.948  13.046  2.5704 -0.3753 -1.8343
83387SOL    HW262141   4.967  10.938  13.158 -1.2079  0.4724  1.9108
83388SOL     OW62142   4.226   0.206   5.625  0.1572  0.4725 -0.8490
83388SOL    HW162143   4.261   0.295   5.636 -1.1185  0.7051  2.3274
83388SOL    HW262144   4.131   0.218   5.622  0.0146 -0.7111 -1.7508
83389SOL     OW62145   7.605  13.550  13.693  0.2822  0.5972  0.8983
83389SOL    HW162146   7.648  13.634  13.710  0.3606  0.8880 -0.6292
83389SOL    HW262147   7.536  13.545  13.759 -0.3198  2.3029  0.4530
83390SOL     OW62148   3.894   0.200   3.551  0.5648 -0.4743  0.3572
83390SOL    HW162149   3.872   0.142   3.478 -1.6547 -1.3505  1.5955
83390SOL    HW262150   3.827   0.181   3.617  1.8710  1.0104  2.2251
83391SOL     OW62151   9.672  11.311   8.843  0.1645  0.1915 -0.2681
83391SOL    HW162152   9.726  11.364   8.901  0.3724  0.4163 -0.6616
83391SOL    HW262153   9.659  11.366   8.765 -2.9358  1.2559  0.8822
83392SOL     OW62154   8.277   1.271   4.451  0.2938  0.8690  0.2452
83392SOL    HW162155   8.193   1.241   4.416  0.1731  1.3558  0.1095
83392SOL    HW262156   8.341   1.244   4.385  0.7172 -2.4855  1.8627
83393SOL     OW62157   8.468  10.019   0.263 -0.2098 -0.3034 -0.4309
83393SOL    HW162158   8.527  10.066   0.204 -0.7107  0.3516 -0.4130
83393SOL    HW262159   8.416   9.963   0.206 -0.7391  0.3768 -0.6269
83394SOL     OW62160   2.981   4.294  10.032 -0.4763 -0.6201 -0.1615
83394SOL    HW162161   3.076   4.284  10.023 -0.5814 -1.7644 -0.1932
83394SOL    HW262162   2.970   4.340  10.116  0.0873 -1.2469  0.2712
83395SOL     OW62163  12.061   5.453   4.439  0.0832 -0.1482 -0.2913
83395SOL    HW162164  12.126   5.449   4.369 -0.2930 -0.5896 -0.6164
83395SOL    HW262165  12.044   5.362   4.462 -1.0231 -0.0672 -0.7664
83396SOL     OW62166  12.538   2.728   9.866  0.1469 -0.1120  0.3612
83396SOL    HW162167  12.493   2.740   9.950  0.2019  1.6735  0.1762
83396SOL    HW262168  12.620   2.684   9.889 -0.5352 -1.0729  1.0272
83397SOL     OW62169   5.294  13.853  13.438  0.4936  0.3932  0.5964
83397SOL    HW162170   5.270  13.803  13.516 -1.7117  2.6134  1.4579
83397SOL    HW262171   5.348  13.924  13.471  0.1141  0.9549  0.0244
83398SOL     OW62172   5.261   8.400  12.524  0.5199  0.0971 -0.3263
83398SOL    HW162173   5.273   8.361  12.611 -0.7033  0.2751 -0.0590
83398SOL    HW262174   5.231   8.489  12.542  1.2936  0.4855 -0.9355
83399SOL     OW62175  11.481   5.714   9.022  0.0183 -0.5025 -0.2870
83399SOL    HW162176  11.512   5.793   9.066  1.3925 -2.1008  1.7820
83399SOL    HW262177  11.386   5.726   9.015  0.0647  0.8652  0.9505
83400SOL     OW62178   2.568  11.999   1.441  0.5456 -0.5490  0.4189
83400SOL    HW162179   2.615  11.985   1.358  0.8197 -1.9090  0.7925
83400SOL    HW262180   2.581  11.919   1.490 -0.8895 -0.3433  1.1799
83401SOL     OW62181  10.378   0.708   9.104  0.2939  0.1280  0.0580
83401SOL    HW162182  10.434   0.631   9.106 -0.0383 -0.1067  0.9320
83401SOL    HW262183  10.427   0.774   9.153 -0.1758 -0.0723  0.8078
83402SOL     OW62184  13.367   8.064   1.274 -0.5205 -0.0645 -0.4404
83402SOL    HW162185  13.343   8.002   1.206 -1.2447 -1.7726  1.2790
83402SOL    HW262186  13.462   8.053   1.283 -0.6671 -1.1206 -0.0095
83403SOL     OW62187   4.305   1.369   5.084 -0.1712  0.1738  0.2124
83403SOL    HW162188   4.217   1.400   5.061  0.1212  1.5985  0.8985
83403SOL    HW262189   4.362   1.406   5.016 -0.1106 -1.0552 -0.4476
83404SOL     OW62190   3.794   0.918   6.430  0.3355  0.2736 -0.6318
83404SOL    HW162191   3.884   0.925   6.399  1.7912  4.0885  3.3963
83404SOL    HW262192   3.741   0.931   6.351  3.3581  0.8711 -2.7544
83405SOL     OW62193  13.954   1.250   6.168 -0.1338 -0.4433  0.0741
83405SOL    HW162194  13.890   1.181   6.151 -0.5872 -0.5083  1.8897
83405SOL    HW262195  13.954   1.261   6.263 -1.4915  3.3995 -0.1960
83406SOL     OW62196   1.876  12.950  13.112 -0.2665 -0.0212 -0.1683
83406SOL    HW162197   1.893  13.030  13.063  0.9719 -1.2785 -1.9403
83406SOL    HW262198   1.798  12.913  13.071  1.5022 -1.7352 -2.2610
83407SOL     OW62199   6.143  13.171   9.640 -0.2811  0.4841  0.0796
83407SOL    HW162200   6.064  13.119   9.647  0.5918 -1.0177 -0.7601
83407SOL    HW262201   6.139  13.211   9.553  0.6068 -0.9049 -0.6367
83408SOL     OW62202  13.966  14.022   3.337  0.1736  0.3151 -0.2120
83408SOL    HW162203  14.060  14.040   3.332  0.2906  0.0071  0.6892
83408SOL    HW262204  13.927  14.078   3.270  1.0103  0.3553 -0.6768
83409SOL     OW62205   0.681   0.595   5.734 -0.2277  0.1539  0.2249
83409SOL    HW162206   0.756   0.540   5.711 -0.6535 -0.1154 -0.5684
83409SOL    HW262207   0.717   0.684   5.737  0.5736 -0.2070  2.0447
83410SOL     OW62208   4.011   3.830   7.680  0.4247  0.5026 -0.2288
83410SOL    HW162209   3.968   3.767   7.623  0.8564  0.5694 -0.6361
83410SOL    HW262210   4.009   3.912   7.631 -2.6102  1.5504  1.3917
83411SOL     OW62211   2.856   0.634   8.604  0.0116  0.2777  0.9837
83411SOL    HW162212   2.803   0.557   8.626  1.6998 -1.0212  0.7337
83411SOL    HW262213   2.919   0.602   8.539 -0.7815  2.4823 -1.0371
83412SOL     OW62214   9.659   1.496  11.989 -0.0304  0.2902  0.4578
83412SOL    HW162215   9.583   1.540  12.027  0.2016  0.6214  0.5454
83412SOL    HW262216   9.734   1.546  12.021  0.4330 -1.5678  2.5305
83413SOL     OW62217   9.491   4.243   2.906 -0.7334 -0.6767  0.3143
83413SOL    HW162218   9.418   4.183   2.892 -1.5968  0.3742  0.1605
83413SOL    HW262219   9.569   4.188   2.904 -1.2825 -1.4619 -2.3185
83414SOL     OW62220  13.055  11.689   1.931  0.4905  0.4181  0.0938
83414SOL    HW162221  13.069  11.611   1.986  0.6265 -0.1755 -0.7636
83414SOL    HW262222  13.144  11.716   1.906  0.4327  0.7294  0.2286
83415SOL     OW62223   7.138  13.175  12.814  0.1246 -1.0062  0.0567
83415SOL    HW162224   7.132  13.172  12.718 -1.0083  1.2471 -0.0131
83415SOL    HW262225   7.231  13.162  12.833  0.2091 -2.6992 -1.2280
83416SOL     OW62226   2.352   1.610  10.572  0.1788 -0.3242  0.3686
83416SOL    HW162227   2.289   1.545  10.602 -1.5251  0.6381 -0.8940
83416SOL    HW262228   2.321   1.692  10.610 -1.0488  0.6318 -2.4073
83417SOL     OW62229   7.453   5.256   5.681 -0.5276  0.3611 -0.3569
83417SOL    HW162230   7.493   5.209   5.607  0.6995 -1.1489  1.1877
83417SOL    HW262231   7.443   5.346   5.649  3.5898  0.7481 -1.1321
83418SOL     OW62232   5.328  13.574  11.466  0.4248 -0.3876 -0.4498
83418SOL    HW162233   5.240  13.539  11.477 -0.7007  1.6559 -2.2018
83418SOL    HW262234   5.343  13.626  11.545  0.4830 -1.4943  0.2889
83419SOL     OW62235   3.126   8.775   0.463 -0.2902  0.0134  0.4327
83419SOL    HW162236   3.088   8.859   0.488  0.1982  1.0173 -1.9201
83419SOL    HW262237   3.157   8.788   0.373  2.4456 -1.8039  0.9967
83420SOL     OW62238   0.350  13.808   4.560  0.1783 -0.1937  0.3719
83420SOL    HW162239   0.440  13.837   4.575 -0.0678  0.4392  0.6764
83420SOL    HW262240   0.327  13.843   4.474  0.3409 -0.6731  0.1271
83421SOL     OW62241   0.062   5.677  11.211  0.5776  0.2243  0.0446
83421SOL    HW162242   0.017   5.598  11.182  1.2060 -0.5026  1.0096
83421SOL    HW262243   0.153   5.650  11.223  0.6546  0.8893  1.1039
83422SOL     OW62244   5.617   1.479   2.039 -0.1115  0.0230  0.0478
83422SOL    HW162245   5.682   1.509   1.976  0.4256 -0.8880  0.1475
83422SOL    HW262246   5.640   1.523   2.120 -1.9468  2.7264 -0.7460
83423SOL     OW62247   3.568   6.449   0.865 -0.2532 -0.0760  0.8268
83423SOL    HW162248   3.483   6.418   0.896 -1.0207  0.2919 -0.7723
83423SOL    HW262249   3.608   6.490   0.941 -2.1688  1.1196  1.2850
83424SOL     OW62250   8.430   7.283  12.931 -0.2638  0.0793  0.2681
83424SOL    HW162251   8.349   7.313  12.974 -0.1077  0.5475  0.2397
83424SOL    HW262252   8.400   7.239  12.852 -0.5598 -0.7850  0.8482
83425SOL     OW62253   4.842   9.005   6.219  0.2911 -0.6048  0.5254
83425SOL    HW162254   4.898   9.047   6.285 -1.5834  0.2079  1.7193
83425SOL    HW262255   4.846   9.064   6.144 -0.9729  0.9151  1.5713
83426SOL     OW62256   8.291   8.547   6.969 -0.2186 -0.3403  0.7900
83426SOL    HW162257   8.257   8.530   6.881 -0.5005  2.8636  0.1350
83426SOL    HW262258   8.385   8.533   6.962 -0.0867  0.9081 -0.3789
83427SOL     OW62259   0.660   9.389  12.348  1.0005  0.1091 -0.1177
83427SOL    HW162260   0.700   9.452  12.408  0.1908 -0.5731  1.1586
83427SOL    HW262261   0.593   9.345  12.399  0.1494 -0.3701 -1.5797
83428SOL     OW62262  10.451  13.298   1.112 -0.0832  0.5115  0.4335
83428SOL    HW162263  10.428  13.373   1.167 -3.4980 -0.2342  0.2515
83428SOL    HW262264  10.478  13.230   1.174  0.7305  1.1284  0.7716
83429SOL     OW62265   4.162  10.124  11.611 -0.1167  0.7897  0.2618
83429SOL    HW162266   4.252  10.100  11.635 -0.3362 -0.9277 -0.5344
83429SOL    HW262267   4.108  10.060  11.657 -0.7336 -0.2258 -1.7747
83430SOL     OW62268   7.099  12.474   0.046 -0.2253 -0.4089  0.0718
83430SOL    HW162269   7.076  12.492  -0.045 -2.7357  0.4142  0.7889
83430SOL    HW262270   7.114  12.380   0.049  1.3830 -0.2588 -1.4309
83431SOL     OW62271  13.738   5.998   7.362  0.5923 -0.5640  0.3148
83431SOL    HW162272  13.673   5.984   7.431 -1.4510  3.4759 -0.4963
83431SOL    HW262273  13.808   6.047   7.404  0.8067 -0.7023  0.1245
83432SOL     OW62274   3.380   3.615   1.691 -0.4365  0.0833  0.1252
83432SOL    HW162275   3.289   3.632   1.665  0.3430  1.9055 -1.6513
83432SOL    HW262276   3.388   3.520   1.685 -2.0432 -0.0612 -0.3917
83433SOL     OW62277   7.383  11.198   4.405 -0.4183 -0.3868 -0.2179
83433SOL    HW162278   7.416  11.170   4.490  0.2656 -1.5996 -0.8516
83433SOL    HW262279   7.288  11.193   4.413 -0.3535 -0.6524  0.4105
83434SOL     OW62280  12.655   1.103   5.169 -0.1690 -0.6170  0.1460
83434SOL    HW162281  12.566   1.131   5.148  0.3713  0.9581 -0.1936
83434SOL    HW262282  12.709   1.143   5.101  1.0148  0.0961  1.4601
83435SOL     OW62283  13.558   4.356  12.308  0.9941  0.0082 -0.3223
83435SOL    HW162284  13.610   4.436  12.300  0.5031  0.2353 -1.3216
83435SOL    HW262285  13.529   4.337  12.219 -0.8167 -0.0059  0.2480
83436SOL     OW62286   7.251   4.698   1.319 -0.2025  0.0780 -0.1299
83436SOL    HW162287   7.213   4.782   1.292  1.2063  0.6977 -0.2579
83436SOL    HW262288   7.196   4.669   1.391 -2.6136 -0.4330 -2.0426
83437SOL     OW62289  13.798   9.937   9.548  0.4765  0.1684  0.4087
83437SOL    HW162290  13.717   9.886   9.550 -0.0781  1.0505  2.3560
83437SOL    HW262291  13.865   9.878   9.582 -0.0344  0.4781  2.0248
83438SOL     OW62292  12.880   2.903  12.324  0.2046 -0.0121 -0.0530
83438SOL    HW162293  12.806   2.933  12.271 -0.0394  0.2825  0.4381
83438SOL    HW262294  12.840   2.853  12.395  0.5770 -1.0000 -0.5327
83439SOL     OW62295   1.927   7.448   4.543 -0.0278 -0.5475  0.2999
83439SOL    HW162296   1.841   7.435   4.503 -0.2981 -0.3793  0.8066
83439SOL    HW262297   1.908   7.459   4.636  0.4870  0.1120  0.3333
83440SOL     OW62298   4.051   1.397  10.590  0.2898  0.3053  0.4611
83440SOL    HW162299   4.065   1.473  10.646 -0.3098  0.9528 -0.2650
83440SOL    HW262300   4.140   1.367  10.569  0.6044 -0.9910  3.0714
83441SOL     OW62301   7.904   4.068   4.784 -0.0783 -0.1637 -0.6396
83441SOL    HW162302   7.839   4.112   4.839  0.9531  0.3967  0.1969
83441SOL    HW262303   7.860   4.052   4.701 -1.1050  0.6835 -0.2787
83442SOL     OW62304   9.480   8.741   9.266  0.3263 -0.6691  0.3429
83442SOL    HW162305   9.411   8.796   9.229  1.7058 -0.2739 -1.8376
83442SOL    HW262306   9.451   8.723   9.356 -2.1255  0.2174 -0.1952
83443SOL     OW62307   1.543   4.521   2.764 -0.4705 -0.0811 -0.2780
83443SOL    HW162308   1.492   4.596   2.735  1.3125  0.5127 -2.1270
83443SOL    HW262309   1.612   4.558   2.819  0.7658 -0.2203 -1.6688
83444SOL     OW62310  14.029   5.790   0.963  0.3401 -0.1940 -0.5103
83444SOL    HW162311  13.936   5.776   0.977  0.3827  0.8809  1.1053
83444SOL    HW262312  14.035   5.830   0.876 -0.5726 -1.2833 -1.1013
83445SOL     OW62313   4.215   2.697   3.451  0.3320  0.3752  0.1826
83445SOL    HW162314   4.180   2.686   3.539 -0.5725  0.1419 -0.1868
83445SOL    HW262315   4.147   2.747   3.404  0.6941  0.2997 -0.4366
83446SOL     OW62316  11.409   2.829  12.137 -0.1798 -0.0742  0.0841
83446SOL    HW162317  11.418   2.734  12.148  0.2443 -0.2929 -1.9309
83446SOL    HW262318  11.425   2.845  12.044 -0.7917  1.9233  0.2744
83447SOL     OW62319   0.604   8.193   1.835 -0.2144  0.2078 -0.0583
83447SOL    HW162320   0.545   8.133   1.882  0.3742  0.4876  1.0906
83447SOL    HW262321   0.641   8.248   1.904  3.4781 -1.7122 -0.2815
83448SOL     OW62322   5.979   9.201  10.065 -0.7927 -0.1244 -0.1825
83448SOL    HW162323   5.975   9.289  10.102 -0.6562 -0.0877 -0.2584
83448SOL    HW262324   6.036   9.152  10.125  1.3613  0.5255 -1.5868
83449SOL     OW62325  13.753   9.357   7.106  0.1433 -0.0381 -0.5975
83449SOL    HW162326  13.841   9.380   7.077 -0.1489  0.7004 -0.9447
83449SOL    HW262327  13.765   9.318   7.192  0.8342 -0.2335 -0.7789
83450SOL     OW62328   0.985  11.804  11.303  0.0910 -0.1525 -0.1218
83450SOL    HW162329   1.065  11.811  11.250  0.0042 -1.0226 -0.3723
83450SOL    HW262330   0.947  11.892  11.299  0.3700 -0.0567 -1.0424
83451SOL     OW62331   4.580   7.303   4.302 -0.3790 -0.2368  0.0906
83451SOL    HW162332   4.671   7.330   4.287 -0.8842  0.6665 -1.6551
83451SOL    HW262333   4.535   7.383   4.330 -1.2062  0.0578 -1.9085
83452SOL     OW62334   0.289   1.242  13.232 -0.7179  0.1292 -0.6488
83452SOL    HW162335   0.279   1.319  13.176 -0.4185 -0.4863 -1.5919
83452SOL    HW262336   0.247   1.172  13.182  0.3241 -0.6193 -0.5028
83453SOL     OW62337   5.894   5.351   5.008  0.4948 -0.3774  0.1111
83453SOL    HW162338   5.812   5.369   4.961  0.9879  0.1114 -0.5840
83453SOL    HW262339   5.894   5.256   5.020 -0.0187 -0.4193 -0.1739
83454SOL     OW62340   0.181  12.316   8.623 -0.0174 -0.0792  0.3975
83454SOL    HW162341   0.170  12.221   8.621 -1.1362  0.0170 -2.5539
83454SOL    HW262342   0.211  12.339   8.535 -0.7300  2.3950  0.7107
83455SOL     OW62343  11.896   6.684  11.355 -0.3610 -0.1389 -0.4048
83455SOL    HW162344  11.903   6.629  11.433  0.0843  1.3597  0.6601
83455SOL    HW262345  11.852   6.763  11.385  1.9107  1.4830 -1.0478
83456SOL     OW62346   3.394   4.936   6.972  0.1987 -0.4817  0.6773
83456SOL    HW162347   3.395   4.851   7.016 -0.9641  0.1784  2.0704
83456SOL    HW262348   3.420   4.998   7.039 -1.4468  0.5420  0.4290
83457SOL     OW62349   1.907   7.549   0.566 -0.2114 -0.2883 -0.3144
83457SOL    HW162350   1.974   7.522   0.629  0.1126  2.1334  0.4778
83457SOL    HW262351   1.908   7.645   0.569 -3.1376 -0.1460 -0.9127
83458SOL     OW62352   1.187   3.115  13.409 -0.1394  0.0972 -0.3054
83458SOL    HW162353   1.204   3.036  13.358 -0.0063  0.0875 -0.2443
83458SOL    HW262354   1.266   3.128  13.461 -1.1980 -1.3237  1.8309
83459SOL     OW62355   2.161  10.454   0.844 -0.0734  0.0273 -0.6460
83459SOL    HW162356   2.184  10.429   0.754  0.5535 -2.1465  0.0475
83459SOL    HW262357   2.078  10.410   0.860 -0.5710  1.0486 -0.4147
83460SOL     OW62358  13.339  13.118   8.650  0.1040  0.1951 -0.1096
83460SOL    HW162359  13.408  13.065   8.610 -0.9127 -1.7118  0.5217
83460SOL    HW262360  13.288  13.056   8.702 -3.3483  1.0419 -2.1375
83461SOL     OW62361   7.744   7.637   7.955  0.0367  0.1863  0.3847
83461SOL    HW162362   7.816   7.698   7.973 -1.3774  1.1038  3.9502
83461SOL    HW262363   7.668   7.679   7.995 -1.7209 -2.3844 -0.0579
83462SOL     OW62364  13.741   3.002   1.087 -0.6553 -0.2438  0.3914
83462SOL    HW162365  13.725   3.082   1.136  1.9997  1.1831 -0.9020
83462SOL    HW262366  13.739   3.029   0.996  1.6636 -1.3082 -0.0334
83463SOL     OW62367  12.957   3.866  13.576 -0.0630 -0.0606  0.3160
83463SOL    HW162368  12.872   3.909  13.565 -0.2780 -0.6464 -0.4078
83463SOL    HW262369  12.966   3.854  13.671 -0.0690  1.4079  0.5199
83464SOL     OW62370   2.479   9.521   2.929 -0.5335 -0.4282  0.1583
83464SOL    HW162371   2.456   9.428   2.927 -2.3478 -0.0074 -0.9636
83464SOL    HW262372   2.404   9.562   2.973  1.4887  0.2526  3.3052
83465SOL     OW62373  10.340  10.875  13.610 -0.1937 -0.1689  0.0543
83465SOL    HW162374  10.422  10.887  13.657  0.5640 -0.8342 -1.0523
83465SOL    HW262375  10.318  10.962  13.577 -0.5295  0.2258  1.2532
83466SOL     OW62376  11.200   6.847  12.960  0.1918  0.0051  0.4214
83466SOL    HW162377  11.138   6.918  12.980 -0.8084 -0.9249  0.7460
83466SOL    HW262378  11.193   6.835  12.865 -0.4653 -0.3770  0.5097
83467SOL     OW62379   5.830   2.947   2.491  0.0290 -0.2536  0.0925
83467SOL    HW162380   5.895   3.007   2.528  1.0433 -1.0026 -0.4204
83467SOL    HW262381   5.769   2.931   2.563  0.6429  0.1475  0.7175
83468SOL     OW62382   1.635   8.906   2.914 -0.5728  0.3608 -0.1887
83468SOL    HW162383   1.642   8.917   2.819  0.5948 -0.5148 -0.2189
83468SOL    HW262384   1.651   8.994   2.949 -1.2495  0.7442 -0.7916
83469SOL     OW62385   2.591   3.141   4.901  0.2352  0.0190 -0.3034
83469SOL    HW162386   2.660   3.078   4.881 -0.2007 -0.4745 -0.2658
83469SOL    HW262387   2.512   3.088   4.912 -0.0531  0.5285  0.1459
83470SOL     OW62388   4.725  10.149   2.717  0.0301 -0.5162  0.1834
83470SOL    HW162389   4.743  10.198   2.797 -0.3551 -0.4342  0.2209
83470SOL    HW262390   4.715  10.058   2.746  1.2748 -0.7201  0.0473
83471SOL     OW62391   5.049  13.723   9.259 -0.2774  0.0094 -0.6304
83471SOL    HW162392   5.085  13.664   9.193  3.5365  0.3557  0.8814
83471SOL    HW262393   5.104  13.801   9.253 -1.3617  1.0031  1.3969
83472SOL     OW62394   8.747   3.960  13.584  0.3149  0.5351  0.2455
83472SOL    HW162395   8.756   3.866  13.569  2.0829  0.6275  0.5314
83472SOL    HW262396   8.767   3.972  13.677  0.5473  1.2425  0.1144
83473SOL     OW62397   4.061   5.759   6.313  0.5039 -0.4734 -0.3577
83473SOL    HW162398   4.026   5.833   6.264 -1.0438 -1.1847 -0.3987
83473SOL    HW262399   4.050   5.684   6.255 -0.6146 -1.1946  0.7023
83474SOL     OW62400   4.586   3.948  13.008 -0.3387  0.7628  0.5269
83474SOL    HW162401   4.637   3.910  12.935  1.1407  1.0348  1.3718
83474SOL    HW262402   4.575   4.040  12.984 -2.5235  0.2246 -0.7597
83475SOL     OW62403   0.197   6.287  13.813  0.5123  0.0881  0.3812
83475SOL    HW162404   0.258   6.360  13.803  0.5791  0.0790  0.6932
83475SOL    HW262405   0.112   6.328  13.826  0.6092  0.1221  0.9427
83476SOL     OW62406  10.018   9.848  14.044 -0.1877 -0.7288 -0.2093
83476SOL    HW162407   9.979   9.914  13.987  1.1494 -1.1053 -1.6410
83476SOL    HW262408  10.059   9.897  14.115 -2.4954 -0.2838  0.9380
83477SOL     OW62409  11.622  13.761   2.985 -0.9030  0.0760  0.1290
83477SOL    HW162410  11.705  13.788   2.946 -0.0705 -0.7490  1.2411
83477SOL    HW262411  11.559  13.765   2.914  0.5468 -1.4534 -1.3188
83478SOL     OW62412   6.712   4.500  10.713  0.3178  0.6597  0.2421
83478SOL    HW162413   6.709   4.592  10.687  0.6084  0.1579 -1.7682
83478SOL    HW262414   6.800   4.471  10.690  0.2756 -0.0948  0.9735
83479SOL     OW62415  11.603  10.241   4.506  0.3472  0.0683 -0.2598
83479SOL    HW162416  11.523  10.207   4.466 -0.7782 -0.2784  2.1122
83479SOL    HW262417  11.577  10.264   4.596  2.5394  1.4789  0.0785
83480SOL     OW62418  12.994   8.146   0.532  0.4613  0.0523 -0.4272
83480SOL    HW162419  12.972   8.054   0.546  0.4529 -0.2012 -1.8930
83480SOL    HW262420  12.912   8.193   0.546  1.0455  0.2535  3.2012
83481SOL     OW62421   2.076   9.163   0.775 -0.0831  0.2808  0.0136
83481SOL    HW162422   2.105   9.080   0.814  0.6993  0.7232  0.3981
83481SOL    HW262423   2.142   9.226   0.802 -0.4204  0.9383 -0.6796
83482SOL     OW62424   4.400   9.753  11.798 -0.0150  0.1065 -0.6818
83482SOL    HW162425   4.450   9.782  11.873 -2.3073  1.2435  0.5273
83482SOL    HW262426   4.408   9.657  11.798 -0.6259  0.0149  1.5385
83483SOL     OW62427  13.064   8.352   5.833  0.3366 -0.3200  0.0853
83483SOL    HW162428  13.153   8.349   5.867 -0.3111 -1.9451  1.7915
83483SOL    HW262429  13.024   8.428   5.875  0.4127 -0.5938  0.6521
83484SOL     OW62430   5.047   2.238   1.037  0.0579 -0.1275  0.3869
83484SOL    HW162431   4.963   2.283   1.046 -0.2184 -0.7241  0.9077
83484SOL    HW262432   5.084   2.240   1.125  1.5761  1.9540 -0.2144
83485SOL     OW62433   2.549   9.307   9.315  0.0804 -0.6806 -0.1712
83485SOL    HW162434   2.494   9.241   9.357  1.0951 -2.0631 -0.9280
83485SOL    HW262435   2.609   9.257   9.260  1.1981  0.8525 -0.4253
83486SOL     OW62436   0.399   4.987  10.992 -0.1953 -0.2572 -0.4826
83486SOL    HW162437   0.358   4.908  10.956 -1.1523  0.7262 -1.6564
83486SOL    HW262438   0.410   4.968  11.085 -0.2117 -1.8391 -0.7701
83487SOL     OW62439   0.261   3.372  13.376 -0.0244  0.4668 -0.2772
83487SOL    HW162440   0.210   3.298  13.342  3.1519 -1.3156 -1.6099
83487SOL    HW262441   0.245   3.442  13.313 -3.0207  1.0459  0.9601
83488SOL     OW62442  13.375  13.161   9.225 -0.1255  0.1938 -0.1923
83488SOL    HW162443  13.433  13.175   9.150 -0.2635  0.4016 -0.2619
83488SOL    HW262444  13.420  13.096   9.279  0.9176  1.5007  0.5550
83489SOL     OW62445   3.843  12.663   0.983 -0.1984 -0.2780  0.2964
83489SOL    HW162446   3.777  12.730   1.003 -1.7764 -1.6159 -0.1930
83489SOL    HW262447   3.927  12.707   0.997 -1.0780  2.5377 -2.1898
83490SOL     OW62448   6.950   0.533   1.881 -0.0040 -0.5713 -0.0674
83490SOL    HW162449   7.011   0.474   1.926  2.8306  1.2757 -1.1751
83490SOL    HW262450   6.865   0.517   1.922  1.2340 -3.1681  1.7432
83491SOL     OW62451   4.696   3.854  12.297 -0.3265 -0.2990  0.0571
83491SOL    HW162452   4.745   3.868  12.216 -1.0639  1.6190 -0.1034
83491SOL    HW262453   4.610   3.822  12.268 -0.3957 -0.1665  0.1163
83492SOL     OW62454   4.085   7.026   0.980 -0.2986 -0.3237 -0.4535
83492SOL    HW162455   4.125   7.079   0.911 -0.6771 -0.0063 -0.4291
83492SOL    HW262456   4.080   7.084   1.056 -0.5690 -0.4424 -0.3786
83493SOL     OW62457   1.438   0.344   0.179 -0.3038  0.4076  0.6508
83493SOL    HW162458   1.420   0.273   0.118  1.2951  0.8486 -0.4006
83493SOL    HW262459   1.533   0.345   0.189 -0.2615  2.4055  0.5954
83494SOL     OW62460   9.952   0.288   1.867 -0.2902  0.4418 -0.0460
83494SOL    HW162461  10.010   0.293   1.791 -0.8224 -0.1468 -0.4948
83494SOL    HW262462   9.966   0.200   1.903  1.6193  1.4299  1.8971
83495SOL     OW62463  13.546   4.142   5.304 -0.0971 -0.5814  0.0790
83495SOL    HW162464  13.588   4.160   5.389 -0.8094  1.2670  0.0853
83495SOL    HW262465  13.491   4.065   5.320  0.6849 -0.9757  0.9644
83496SOL     OW62466  11.320   3.927  10.973  0.4766 -0.1378  0.2510
83496SOL    HW162467  11.347   4.018  10.990  0.1351  0.0539 -0.2049
83496SOL    HW262468  11.387   3.893  10.914 -0.0012  0.1869 -0.4978
83497SOL     OW62469  12.893   5.380   9.828  0.2035 -0.3276 -0.2113
83497SOL    HW162470  12.945   5.439   9.881  0.1203 -1.8484  1.6739
83497SOL    HW262471  12.948   5.362   9.751  0.5215  1.5438 -0.4675
83498SOL     OW62472   0.497   7.843   0.778  0.1189 -0.3307  0.0645
83498SOL    HW162473   0.483   7.770   0.838  0.5810  1.0338  1.9271
83498SOL    HW262474   0.410   7.883   0.767  0.0687 -0.4586  0.0005
83499SOL     OW62475   7.973   8.454   5.042 -0.3401  0.1045  0.8355
83499SOL    HW162476   7.952   8.427   5.131  0.7563  0.5511  1.2373
83499SOL    HW262477   7.944   8.380   4.988 -0.2888 -0.5100  1.6221
83500SOL     OW62478  11.181  10.438   0.440 -0.1175 -0.0839 -0.6164
83500SOL    HW162479  11.161  10.396   0.524 -0.6010 -2.1675 -1.7028
83500SOL    HW262480  11.217  10.523   0.464  2.3342 -1.6071  1.8354
83501SOL     OW62481   8.170   3.464   8.212  0.6158  0.2698 -0.1113
83501SOL    HW162482   8.095   3.520   8.230  1.4489  1.3377  0.1187
83501SOL    HW262483   8.190   3.422   8.295  0.2805 -0.0069 -0.1707
83502SOL     OW62484   1.045   6.481   9.050 -0.5486 -0.0079  0.1527
83502SOL    HW162485   1.058   6.553   9.112  1.0698  0.6832 -0.9004
83502SOL    HW262486   1.127   6.433   9.050 -1.6193 -1.9464  0.8598
83503SOL     OW62487  13.804   0.951   9.502  0.0090  0.0526 -0.4124
83503SOL    HW162488  13.882   0.898   9.485 -0.5390 -0.5844 -1.0667
83503SOL    HW262489  13.765   0.964   9.415 -2.3523 -2.3990  0.1207
83504SOL     OW62490   8.322  10.373   0.345 -0.2939  0.0694  0.3223
83504SOL    HW162491   8.255  10.441   0.334  0.8993  0.9466 -2.5423
83504SOL    HW262492   8.404  10.421   0.356  0.3308 -0.9200  0.1322
83505SOL     OW62493   2.099   8.913  12.720  0.1045  0.1891  0.1746
83505SOL    HW162494   2.163   8.844  12.699 -0.6452 -0.5666  0.3078
83505SOL    HW262495   2.084   8.958  12.636  2.1017  1.5401  0.4714
83506SOL     OW62496  11.905  13.580   6.601  0.0480 -0.6878 -0.2403
83506SOL    HW162497  11.813  13.605   6.613 -0.0730 -1.5407  0.8585
83506SOL    HW262498  11.947  13.604   6.684  1.0650  0.6412 -1.1073
83507SOL     OW62499   8.562   0.641   8.452  0.1932  0.8529 -0.0949
83507SOL    HW162500   8.496   0.706   8.479 -0.8706 -1.3816  3.3384
83507SOL    HW262501   8.517   0.557   8.456  2.6767 -0.5791  0.2189
83508SOL     OW62502   6.850   4.973   3.820  0.3594  0.3220 -0.2366
83508SOL    HW162503   6.912   5.005   3.885 -0.5550 -0.3374  1.0033
83508SOL    HW262504   6.819   4.890   3.855 -1.2628  0.6563 -0.7798
83509SOL     OW62505  11.043   2.227   6.582 -0.2259  0.3773 -0.5840
83509SOL    HW162506  10.950   2.236   6.604 -0.1655 -0.6151  0.1650
83509SOL    HW262507  11.072   2.316   6.565 -1.1361  0.7913 -0.0741
83510SOL     OW62508  13.870   6.149   3.194  0.3224  0.1136  0.1042
83510SOL    HW162509  13.899   6.111   3.277  0.4817  0.5257  0.2427
83510SOL    HW262510  13.795   6.204   3.219 -1.2647 -1.7166 -0.3798
83511SOL     OW62511  11.145   8.263  10.587 -0.0372  0.1124 -0.4885
83511SOL    HW162512  11.219   8.205  10.569 -0.4661 -0.8692  0.7548
83511SOL    HW262513  11.180   8.328  10.647 -0.0963 -0.1820 -0.1288
83512SOL     OW62514  10.810   0.537  11.934  0.3848 -0.4171  0.3141
83512SOL    HW162515  10.733   0.584  11.963  0.2930 -0.6486  0.4482
83512SOL    HW262516  10.790   0.510  11.844  1.0099  1.0445 -0.2997
83513SOL     OW62517  13.060   2.518   3.502  0.2971  0.0826  0.5641
83513SOL    HW162518  13.076   2.500   3.595  0.8299 -0.8451  0.3064
83513SOL    HW262519  12.982   2.467   3.481  1.2369 -1.1918  0.0696
83514SOL     OW62520   0.632   1.295  11.728  1.0617  0.5214  0.2429
83514SOL    HW162521   0.619   1.379  11.772  0.0215 -0.0994  1.1589
83514SOL    HW262522   0.676   1.240  11.792  0.8664  0.0629 -0.0103
83515SOL     OW62523   4.035   8.515  13.142 -0.0896  0.1926 -0.7112
83515SOL    HW162524   3.973   8.477  13.080 -1.1835 -0.8030  0.9449
83515SOL    HW262525   4.009   8.482  13.227  1.3577  1.5542  0.3326
83516SOL     OW62526   9.187  13.132  10.591  0.1679 -0.2745  0.4818
83516SOL    HW162527   9.149  13.097  10.672  1.7576 -0.0597  1.3424
83516SOL    HW262528   9.142  13.215  10.578  1.7084  0.9685  2.6069
83517SOL     OW62529  11.988  12.727   4.834 -0.2117 -0.1138 -0.1903
83517SOL    HW162530  11.916  12.788   4.849  0.1281  0.3666 -0.4784
83517SOL    HW262531  11.993  12.676   4.915 -0.6543  0.0770 -0.0382
83518SOL     OW62532   9.411  12.960   2.713  0.2456  0.1154 -0.7169
83518SOL    HW162533   9.422  13.009   2.631 -1.3832 -0.5084 -1.3616
83518SOL    HW262534   9.394  13.027   2.779  0.5983  0.5674 -1.0752
83519SOL     OW62535   3.296   3.072   6.149  0.2741 -0.2375  0.0514
83519SOL    HW162536   3.231   3.053   6.216  0.7431 -2.5809 -0.0769
83519SOL    HW262537   3.261   3.033   6.069  0.9372  0.2048 -0.4712
83520SOL     OW62538   6.415  11.721   4.935  0.1427  0.2075  0.4033
83520SOL    HW162539   6.463  11.692   4.858 -0.0016 -1.9256  1.0341
83520SOL    HW262540   6.356  11.648   4.955 -1.8879  1.8835  0.8745
83521SOL     OW62541   9.256   3.906  12.880 -0.2580 -0.2797  0.5930
83521SOL    HW162542   9.283   3.973  12.943  0.6982 -1.0559  1.0323
83521SOL    HW262543   9.171   3.876  12.912 -1.7335  2.1042 -0.7329
83522SOL     OW62544   5.928   2.155   0.424 -0.2500 -0.1895  0.1509
83522SOL    HW162545   5.862   2.186   0.487  0.1349 -0.1814  0.5546
83522SOL    HW262546   5.988   2.229   0.414  0.8032 -0.8639  1.2925
83523SOL     OW62547  11.860   0.357   3.095  0.1793  0.4823  0.2842
83523SOL    HW162548  11.779   0.352   3.045  2.0086  1.7283 -3.2029
83523SOL    HW262549  11.883   0.450   3.094  2.2408  0.0381 -0.0372
83524SOL     OW62550   3.839   9.078  12.648 -0.2305 -0.3420 -0.4736
83524SOL    HW162551   3.836   9.172  12.631  0.4405 -0.3208 -0.5348
83524SOL    HW262552   3.899   9.044  12.581 -2.0159 -1.1236 -1.7625
83525SOL     OW62553   8.524   9.071   6.064  0.3583 -0.2783  0.7529
83525SOL    HW162554   8.619   9.065   6.079  0.8584 -3.5258 -2.3509
83525SOL    HW262555   8.487   9.086   6.151  3.5589 -1.7141  2.5448
83526SOL     OW62556   3.472   5.562   7.045  0.0264  0.2577  0.0737
83526SOL    HW162557   3.493   5.468   7.049  0.5807  0.3940  0.3992
83526SOL    HW262558   3.504   5.597   7.128 -0.2780  0.7189 -0.0047
83527SOL     OW62559  12.570   0.072  10.574  0.1416  0.3716  0.0316
83527SOL    HW162560  12.516   0.118  10.510  1.7731  1.7425 -0.4429
83527SOL    HW262561  12.650   0.049  10.526  1.4522  1.5269  1.5361
83528SOL     OW62562   7.459   4.523  13.779 -0.9285  0.4324  0.4049
83528SOL    HW162563   7.374   4.552  13.812 -0.8478 -1.2482  2.2553
83528SOL    HW262564   7.450   4.429  13.768  0.3607  0.3826 -0.5401
83529SOL     OW62565   8.142  10.627   6.291  0.0944 -0.5898 -0.0039
83529SOL    HW162566   8.212  10.577   6.335  0.6784  0.6253  0.4849
83529SOL    HW262567   8.184  10.662   6.212 -0.3346 -0.9223 -0.3831
83530SOL     OW62568   5.999   0.755  13.237 -0.3148 -0.1046  0.1474
83530SOL    HW162569   5.987   0.668  13.275  0.4663  0.1590  1.0250
83530SOL    HW262570   6.079   0.748  13.185  0.3621  0.3684  1.1034
83531SOL     OW62571   1.016   6.670   1.865 -0.6696  0.0129 -0.2027
83531SOL    HW162572   0.987   6.742   1.920 -0.4899 -0.0426 -0.0353
83531SOL    HW262573   1.058   6.609   1.925  0.6321  0.5183 -0.5555
83532SOL     OW62574   6.883  12.858   3.209 -0.3196 -0.4226  0.6231
83532SOL    HW162575   6.910  12.932   3.264 -1.3785  1.9234 -1.7988
83532SOL    HW262576   6.947  12.857   3.138 -1.0151 -1.0551 -0.0044
83533SOL     OW62577   7.464   1.083  13.268 -0.4624  0.2212 -0.1317
83533SOL    HW162578   7.481   1.039  13.185  0.1941 -0.1300  0.1808
83533SOL    HW262579   7.372   1.111  13.263 -0.5585 -0.2090 -0.7814
83534SOL     OW62580   0.161   9.394   6.833 -0.4607 -0.2349 -0.5583
83534SOL    HW162581   0.116   9.331   6.888  0.4538 -1.1622 -0.8380
83534SOL    HW262582   0.104   9.405   6.757 -1.6049  0.8595  0.4163
83535SOL     OW62583  13.059   9.661   2.989 -0.0696  0.5205 -0.1529
83535SOL    HW162584  13.018   9.745   2.971 -0.1061  0.3633 -0.8215
83535SOL    HW262585  12.986   9.599   2.992 -0.5184  0.9935  3.8671
83536SOL     OW62586   2.464  12.818   3.802 -0.4289 -0.5333 -0.3555
83536SOL    HW162587   2.439  12.907   3.776  0.7270 -0.2489 -0.5712
83536SOL    HW262588   2.549  12.804   3.759  0.0838 -1.1995  0.8396
83537SOL     OW62589   1.159  11.869   9.279 -0.3807 -0.4085 -0.2291
83537SOL    HW162590   1.064  11.859   9.284 -0.4097 -0.1509 -0.2931
83537SOL    HW262591   1.192  11.779   9.284 -0.6706 -0.5835 -1.2113
83538SOL     OW62592   1.466   5.062   5.155 -0.3646 -0.4875 -0.5224
83538SOL    HW162593   1.384   5.085   5.199 -0.3531  0.0721 -0.7855
83538SOL    HW262594   1.487   5.138   5.102  0.0198 -0.8589 -0.9164
83539SOL     OW62595   4.956   3.440   9.749 -0.0127  0.4918 -0.1005
83539SOL    HW162596   4.988   3.350   9.740  1.9166  1.2224 -1.2341
83539SOL    HW262597   5.010   3.478   9.819 -2.2734  0.2329  1.9309
83540SOL     OW62598   5.833   4.586  10.335 -0.1827  0.1406  0.1031
83540SOL    HW162599   5.749   4.555  10.368 -0.5275  0.0378 -0.8348
83540SOL    HW262600   5.898   4.536  10.384 -0.6355  0.6696  1.2839
83541SOL     OW62601   1.447   9.739  11.550  0.3880 -0.3327  0.2872
83541SOL    HW162602   1.498   9.819  11.544  1.1907 -0.9006 -0.6929
83541SOL    HW262603   1.477   9.685  11.477 -1.0924 -0.9830  0.1158
83542SOL     OW62604  11.693  10.503   2.672 -0.5421 -0.3817  0.2233
83542SOL    HW162605  11.626  10.490   2.740 -0.4192  1.8801  0.8532
83542SOL    HW262606  11.775  10.509   2.720 -0.3379  0.3577 -0.2108
83543SOL     OW62607   7.706   6.758   1.228  0.1234 -0.3056  0.1821
83543SOL    HW162608   7.797   6.777   1.249  0.7594 -2.1192 -0.7186
83543SOL    HW262609   7.692   6.669   1.261 -1.4629  0.0950  0.6798
83544SOL     OW62610   7.646  12.203   8.423  0.0206 -0.2405 -0.1826
83544SOL    HW162611   7.633  12.248   8.340  0.9550 -0.1258 -0.2819
83544SOL    HW262612   7.573  12.232   8.478  0.8485  1.8181 -0.0808
83545SOL     OW62613  12.287   6.265   6.277  0.1319 -0.6680 -0.6244
83545SOL    HW162614  12.342   6.342   6.289 -0.2131 -0.5190  0.0629
83545SOL    HW262615  12.326   6.219   6.204 -0.0549  0.5184 -1.5064
83546SOL     OW62616   4.924   7.217   9.738 -0.2380  0.9989 -0.0469
83546SOL    HW162617   4.851   7.280   9.742  1.0249  2.4424  1.9933
83546SOL    HW262618   4.899   7.148   9.799 -0.5761  0.6854 -0.5311
83547SOL     OW62619  12.841   4.465  11.400  0.1244  0.7522 -0.5572
83547SOL    HW162620  12.876   4.447  11.488 -0.4133 -0.4908 -0.5812
83547SOL    HW262621  12.851   4.560  11.390  2.6540  0.6167 -0.1990
83548SOL     OW62622   1.513  11.343   6.396 -0.1042  0.3474  0.5059
83548SOL    HW162623   1.464  11.336   6.314 -0.7720  1.5448  0.7728
83548SOL    HW262624   1.453  11.311   6.463  0.4329 -0.6061  0.5518
83549SOL     OW62625   0.902   1.375   1.132 -0.4709 -0.0347 -0.0351
83549SOL    HW162626   0.854   1.305   1.175 -1.0358  1.6255  2.2282
83549SOL    HW262627   0.991   1.368   1.167 -0.3229 -0.1077 -0.4221
83550SOL     OW62628   6.124   1.979  12.204  0.2106  0.2479  0.1680
83550SOL    HW162629   6.050   2.034  12.179  0.4485  1.0606  1.1813
83550SOL    HW262630   6.087   1.912  12.261  0.4973  1.9035  2.4433
83551SOL     OW62631  12.219   0.558  10.815 -0.2275 -0.2922  0.0204
83551SOL    HW162632  12.201   0.518  10.730  1.4629 -0.5795 -0.2328
83551SOL    HW262633  12.303   0.602  10.804  0.6246 -1.3382  1.8514
83552SOL     OW62634   1.033  11.392   5.003 -0.0748  0.3515 -0.8195
83552SOL    HW162635   1.027  11.403   4.908  0.6471  0.8784 -0.8147
83552SOL    HW262636   0.963  11.448   5.038 -0.7705 -0.3492 -1.0517
83553SOL     OW62637  10.665  11.368   5.682  0.5304  0.9216  0.1468
83553SOL    HW162638  10.717  11.402   5.609  0.5139 -0.8990 -0.7730
83553SOL    HW262639  10.716  11.389   5.760  1.3792  1.4269 -0.5270
83554SOL     OW62640   4.643   7.844   3.419 -0.8873 -0.3515 -0.4144
83554SOL    HW162641   4.711   7.905   3.388 -1.1203  0.6852  0.9925
83554SOL    HW262642   4.592   7.824   3.341  1.5582 -1.9404 -1.7513
83555SOL     OW62643   5.977   1.032   3.247  0.7640 -0.3987 -0.3151
83555SOL    HW162644   6.019   0.968   3.304  2.2094  0.0521 -0.8306
83555SOL    HW262645   5.997   1.116   3.288 -1.4399 -0.2417  0.5656
83556SOL     OW62646  10.718  11.757   4.281 -0.2097  0.0170  0.1327
83556SOL    HW162647  10.775  11.821   4.323  0.8468 -1.3158  0.8155
83556SOL    HW262648  10.630  11.789   4.297  0.2945  1.3373  0.3749
83557SOL     OW62649   4.516   5.564   6.524  0.0603  0.3264  0.0248
83557SOL    HW162650   4.505   5.478   6.483  1.3877  0.0868  0.1373
83557SOL    HW262651   4.521   5.545   6.618  1.1382  0.4280 -0.0019
83558SOL     OW62652  11.381   9.826  13.967  0.0974 -0.3899  0.0147
83558SOL    HW162653  11.405   9.760  14.032 -0.5712 -2.0352 -1.3252
83558SOL    HW262654  11.319   9.884  14.011  1.2477 -0.1951  1.4379
83559SOL     OW62655   6.117   1.244  12.305  0.1794  0.3304  0.0257
83559SOL    HW162656   6.172   1.241  12.226 -1.1756 -0.6548 -0.9159
83559SOL    HW262657   6.052   1.312  12.286 -0.6540 -0.4753 -0.0814
83560SOL     OW62658   2.342   9.597   8.984  0.6716 -0.4347  0.6310
83560SOL    HW162659   2.305   9.553   9.060 -1.5131 -0.2221 -0.2483
83560SOL    HW262660   2.381   9.677   9.019 -1.4479  0.3154  1.4146
83561SOL     OW62661   0.730   7.149  12.764 -0.5217 -0.2884  0.0092
83561SOL    HW162662   0.667   7.188  12.825  0.5492  1.8664 -0.1560
83561SOL    HW262663   0.813   7.193  12.785  0.6427 -2.0590 -0.6828
83562SOL     OW62664   2.653   6.966   3.862  0.2303 -0.6223  0.5975
83562SOL    HW162665   2.677   7.058   3.871  0.9356 -0.5624 -1.3775
83562SOL    HW262666   2.596   6.948   3.937  2.7557  0.4738  2.9415
83563SOL     OW62667  11.881   9.546  10.247  0.0478  0.1205  0.0677
83563SOL    HW162668  11.901   9.498  10.167  1.1715 -0.0640  0.4453
83563SOL    HW262669  11.963   9.548  10.296 -0.4800  0.6992  0.9753
83564SOL     OW62670  10.322   7.234   1.611 -0.0280  0.6850  0.3420
83564SOL    HW162671  10.388   7.174   1.646  1.1369  1.8005  0.1830
83564SOL    HW262672  10.239   7.204   1.647  0.6182 -0.5462  0.8589
83565SOL     OW62673   5.971  12.484   0.590 -0.3989 -0.0839  0.1060
83565SOL    HW162674   6.064  12.496   0.570  0.0134 -0.0467  1.8122
83565SOL    HW262675   5.965  12.503   0.684 -2.1248 -0.1803  0.0451
83566SOL     OW62676   4.164   5.252   7.700 -0.2695  0.3313  0.3877
83566SOL    HW162677   4.121   5.169   7.678 -0.1049  0.5788 -1.0041
83566SOL    HW262678   4.106   5.319   7.662 -0.5345  0.8847  1.7235
83567SOL     OW62679  10.004   1.081   2.667  0.0983  0.3315 -0.1840
83567SOL    HW162680  10.090   1.124   2.665  0.3049 -0.0952 -0.7371
83567SOL    HW262681   9.991   1.056   2.758 -0.5150  2.5322  0.3916
83568SOL     OW62682   5.942   4.622  13.284  0.2379 -0.5039 -0.1466
83568SOL    HW162683   5.872   4.621  13.219 -1.0998 -0.6870  1.2561
83568SOL    HW262684   6.015   4.666  13.240 -0.9328  0.1957 -1.4552
83569SOL     OW62685   3.441  12.150   2.517  0.1687 -0.4635  0.0824
83569SOL    HW162686   3.485  12.226   2.481  1.9769 -0.7524  1.5110
83569SOL    HW262687   3.362  12.185   2.560  0.4282  0.4542 -0.1847
83570SOL     OW62688   5.190   1.066   4.541 -0.1910 -0.3216 -0.6214
83570SOL    HW162689   5.157   0.985   4.581 -1.4301 -0.3010 -1.5440
83570SOL    HW262690   5.230   1.039   4.459  0.0865 -0.0789 -0.5695
83571SOL     OW62691  12.591  12.586   2.727  0.1076  0.4957 -0.1692
83571SOL    HW162692  12.548  12.653   2.780 -1.0108  0.4044 -0.9239
83571SOL    HW262693  12.653  12.635   2.672 -0.9322  0.9832 -0.9480
83572SOL     OW62694   9.120   4.362   5.653  0.5630  0.4153 -0.0386
83572SOL    HW162695   9.199   4.389   5.700  0.0325 -1.6072  2.2082
83572SOL    HW262696   9.152   4.301   5.586  0.9044 -0.8641  1.2548
83573SOL     OW62697  11.992   5.945   5.735 -0.1900  0.2762 -0.6056
83573SOL    HW162698  11.913   5.900   5.763 -0.2673 -0.2533 -1.6130
83573SOL    HW262699  12.061   5.911   5.792 -0.8979  1.8597  1.3112
83574SOL     OW62700   5.784   9.814   9.562  0.2935  0.1111  0.4484
83574SOL    HW162701   5.721   9.743   9.575  0.4244  0.1389  1.2769
83574SOL    HW262702   5.753   9.885   9.619  0.6229  0.4189  0.2521
83575SOL     OW62703   7.159   7.981  12.595 -0.0171 -0.0172  0.8437
83575SOL    HW162704   7.213   8.039  12.541 -0.1069  0.1556  0.9412
83575SOL    HW262705   7.150   7.902  12.542 -3.1940  1.4446 -1.0666
83576SOL     OW62706   0.549   0.838  11.739 -0.3606 -0.2513 -0.3580
83576SOL    HW162707   0.504   0.773  11.685  0.0210 -1.9550  1.2650
83576SOL    HW262708   0.478   0.891  11.777 -0.8369 -1.0990 -0.0419
83577SOL     OW62709  10.473  10.768   1.941  0.3182 -0.3855 -0.0715
83577SOL    HW162710  10.535  10.717   1.993 -0.4701 -2.4464 -1.0376
83577SOL    HW262711  10.418  10.812   2.006  1.2119 -0.5208  0.7995
83578SOL     OW62712  11.432   6.078   2.638 -0.4476  0.2454  0.0784
83578SOL    HW162713  11.437   6.024   2.717 -3.2639  2.9279  2.3793
83578SOL    HW262714  11.339   6.097   2.629  0.0171  1.5979 -2.8410
83579SOL     OW62715   4.369   3.521   8.643  0.2843  0.2003  0.6329
83579SOL    HW162716   4.393   3.428   8.642  0.1926  0.1674  1.0457
83579SOL    HW262717   4.432   3.562   8.702 -0.0313  0.2902  0.9192
83580SOL     OW62718   1.908   4.590   8.445 -0.1253  0.0888 -0.3008
83580SOL    HW162719   1.886   4.524   8.511 -2.4255  1.3990  0.3562
83580SOL    HW262720   1.995   4.621   8.470 -0.5271 -0.1589  1.5846
83581SOL     OW62721   4.738  12.317   7.672  0.3430  0.2888 -0.1114
83581SOL    HW162722   4.823  12.286   7.700  1.0982  0.5187 -2.0015
83581SOL    HW262723   4.700  12.244   7.622  0.2044  0.7910 -0.7632
83582SOL     OW62724   2.317  13.028   3.665 -0.1364  0.2200 -0.5082
83582SOL    HW162725   2.380  13.035   3.594 -1.9202  0.8321 -2.1147
83582SOL    HW262726   2.296  13.119   3.687 -0.1060  0.0272  0.3485
83583SOL     OW62727   3.044   8.672  13.364  0.5709 -0.3344  0.0683
83583SOL    HW162728   3.066   8.711  13.279  0.9958 -0.5894  0.0603
83583SOL    HW262729   3.118   8.616  13.384  0.5400 -0.1583  0.6831
83584SOL     OW62730   0.360   1.260  12.198  0.3654 -0.1154 -0.3069
83584SOL    HW162731   0.350   1.187  12.259 -0.1703 -0.3030 -0.6030
83584SOL    HW262732   0.443   1.242  12.153  1.6119  0.8868  1.4608
83585SOL     OW62733   2.348  10.936  10.213 -0.9972  0.2998  0.5613
83585SOL    HW162734   2.310  10.849  10.226 -0.0792 -0.3071 -0.6325
83585SOL    HW262735   2.433  10.933  10.257 -1.2277  0.8215  1.0638
83586SOL     OW62736   8.626   7.876  11.152  0.1410 -0.0142 -0.0973
83586SOL    HW162737   8.530   7.883  11.146  0.2184  1.7553  0.1103
83586SOL    HW262738   8.641   7.807  11.216 -1.0094  0.0034  0.2181
83587SOL     OW62739   5.951   7.865   9.843 -0.3744  0.0870  0.3651
83587SOL    HW162740   5.929   7.839   9.933  0.5075 -0.0088  0.5609
83587SOL    HW262741   5.879   7.830   9.791 -0.0109 -1.4266  0.8228
83588SOL     OW62742   1.410  13.152  13.892 -0.2400 -0.2881 -0.0637
83588SOL    HW162743   1.458  13.233  13.907 -0.6796 -0.1338  0.5369
83588SOL    HW262744   1.365  13.165  13.808 -0.8292  0.3445  0.3436
83589SOL     OW62745  13.892   6.612   7.884  0.4270 -0.7608 -0.1289
83589SOL    HW162746  13.884   6.578   7.973  0.6023  2.3141  1.1808
83589SOL    HW262747  13.914   6.704   7.896 -1.4954  0.2564 -3.3606
83590SOL     OW62748  10.084  12.231  11.125 -0.0235 -0.2839 -0.2351
83590SOL    HW162749  10.041  12.276  11.052  0.1341  0.7594  0.2810
83590SOL    HW262750  10.177  12.236  11.106  0.3487  3.1398  1.6099
83591SOL     OW62751   5.204   9.975   0.042  0.1463  0.3174  0.1811
83591SOL    HW162752   5.287   9.929   0.052  0.4981  0.8377 -0.2794
83591SOL    HW262753   5.169   9.943  -0.042 -0.7960 -0.9339  1.0082
83592SOL     OW62754  11.807   7.584  12.675  0.1200  0.0316  0.6445
83592SOL    HW162755  11.873   7.603  12.609 -1.2341 -0.5271 -0.9633
83592SOL    HW262756  11.766   7.502  12.645 -0.0534 -0.6528  2.6015
83593SOL     OW62757   0.104   7.585   7.445 -0.2915  0.0249 -0.1570
83593SOL    HW162758   0.018   7.558   7.477 -0.2869 -2.1189 -1.6820
83593SOL    HW262759   0.093   7.592   7.350  0.6381  2.2068 -0.1484
83594SOL     OW62760  10.250  12.285   2.386  0.0990  0.4788  0.4345
83594SOL    HW162761  10.222  12.234   2.461 -1.5540  2.5688  1.3612
83594SOL    HW262762  10.179  12.275   2.322  0.1101  1.0045  0.3322
83595SOL     OW62763   9.826   2.789   3.071 -0.0071 -0.0864 -0.4039
83595SOL    HW162764   9.901   2.765   3.017  0.3044  0.4463 -0.2152
83595SOL    HW262765   9.807   2.712   3.123  2.0689  0.5791  1.4750
83596SOL     OW62766   8.382   4.180  13.556  0.0662  0.3074  0.0910
83596SOL    HW162767   8.372   4.146  13.467  0.5050  1.6760 -0.5049
83596SOL    HW262768   8.451   4.245  13.549 -0.2515  0.8047  1.3381
83597SOL     OW62769   5.664   3.446   2.391 -0.1759 -0.2748  0.4216
83597SOL    HW162770   5.616   3.388   2.451 -1.5458 -1.6572 -1.8748
83597SOL    HW262771   5.750   3.405   2.382 -0.9354 -1.6987 -0.7303
83598SOL     OW62772  11.220   1.885   5.554  0.1805 -0.0338  0.0039
83598SOL    HW162773  11.244   1.793   5.548 -0.2037 -0.0942 -0.7085
83598SOL    HW262774  11.175   1.904   5.472  0.5524  0.8730 -0.0118
83599SOL     OW62775  13.470   8.590  11.951 -0.3721 -0.2144  0.0471
83599SOL    HW162776  13.396   8.584  11.890 -0.6887  0.7816  0.3209
83599SOL    HW262777  13.546   8.606  11.895 -0.5991  0.2828 -0.1236
83600SOL     OW62778   3.558  12.497   1.329  0.4068  0.0438  0.1379
83600SOL    HW162779   3.580  12.581   1.289  0.0466 -0.3600 -0.9558
83600SOL    HW262780   3.643  12.457   1.351  0.7515 -0.5461 -2.0127
83601SOL     OW62781   6.786   7.121   0.233 -0.4594 -0.2912 -0.6559
83601SOL    HW162782   6.810   7.058   0.164 -0.8204 -1.5622  0.3255
83601SOL    HW262783   6.829   7.086   0.312  1.1067  1.8904 -0.4715
83602SOL     OW62784  10.726  10.399   3.806  0.4136  0.0146 -0.4514
83602SOL    HW162785  10.775  10.331   3.852  2.3905  0.9687 -1.0223
83602SOL    HW262786  10.700  10.357   3.724 -3.1682 -1.7071  1.3254
83603SOL     OW62787   9.009   0.519   4.928 -0.4549  0.6612 -0.5265
83603SOL    HW162788   8.937   0.458   4.944  0.7713 -1.1687 -1.5986
83603SOL    HW262789   8.966   0.603   4.914 -2.3131 -0.1851 -0.2396
83604SOL     OW62790  11.160   7.970   5.757  0.2805  0.1749 -0.1349
83604SOL    HW162791  11.181   8.042   5.698 -0.5517 -0.2386 -0.9532
83604SOL    HW262792  11.189   8.000   5.843  1.4206  0.8211 -0.7326
83605SOL     OW62793  12.221  13.764   6.441 -0.9247  0.1358 -0.2541
83605SOL    HW162794  12.183  13.828   6.501 -0.9765 -0.8748  0.8282
83605SOL    HW262795  12.303  13.803   6.412 -1.4091  1.0994 -0.3675
83606SOL     OW62796  12.940   9.215   9.519  0.2754  0.1576  0.3217
83606SOL    HW162797  12.917   9.130   9.557 -1.8181  0.3276 -0.4667
83606SOL    HW262798  12.952   9.197   9.426 -0.7239  0.8017  0.0557
83607SOL     OW62799   3.577  12.534  11.414 -0.0888  0.5524  0.5529
83607SOL    HW162800   3.534  12.510  11.495  0.1975 -0.2543  0.4743
83607SOL    HW262801   3.645  12.597  11.440  0.7504 -0.5561  1.1025
83608SOL     OW62802   3.391   2.037   9.028  0.7531  0.3853 -0.1642
83608SOL    HW162803   3.354   1.990   8.954  3.1488 -1.3801 -0.3676
83608SOL    HW262804   3.392   2.129   9.001 -4.5388  0.9093  0.4473
83609SOL     OW62805  10.786  12.671  13.210  0.5388 -0.4042 -0.5617
83609SOL    HW162806  10.698  12.648  13.180  0.4996 -1.0802  0.0672
83609SOL    HW262807  10.845  12.614  13.160  0.6821  0.5117 -1.4745
83610SOL     OW62808   7.962   0.503   9.473 -0.8956 -0.7848  0.1443
83610SOL    HW162809   8.035   0.564   9.481  0.1078 -1.9403  0.1553
83610SOL    HW262810   7.901   0.545   9.412  0.2254 -0.2186 -0.6092
83611SOL     OW62811   6.793  12.740  10.050 -1.1786  0.3702 -0.5506
83611SOL    HW162812   6.766  12.811  10.109  0.0259  0.3105  0.1057
83611SOL    HW262813   6.775  12.774   9.963 -4.1036 -0.0060 -0.1658
83612SOL     OW62814   3.267  13.379   9.355  0.4827  0.1974 -0.7200
83612SOL    HW162815   3.186  13.331   9.339  0.4516  0.1543 -0.4336
83612SOL    HW262816   3.258  13.413   9.444  1.4584 -1.2119 -0.0297
83613SOL     OW62817  11.413   1.704   6.551  0.0801 -0.3864 -0.7283
83613SOL    HW162818  11.399   1.792   6.587 -1.8919 -0.3793 -1.3906
83613SOL    HW262819  11.478   1.717   6.482  0.0787  0.4926 -0.5882
83614SOL     OW62820  12.047   9.379   8.926 -0.0055 -0.6042 -0.5365
83614SOL    HW162821  11.979   9.319   8.956 -0.3189 -0.2575 -0.5458
83614SOL    HW262822  12.127   9.347   8.967  0.0931 -1.8517 -1.6561
83615SOL     OW62823   1.314   5.851  14.004  0.5183 -0.3440  0.3499
83615SOL    HW162824   1.327   5.838  13.910 -1.9153 -0.0875 -0.0803
83615SOL    HW262825   1.383   5.913  14.030 -0.4620  1.8286 -1.8917
83616SOL     OW62826   3.167   3.037  11.983  0.0079 -0.1365 -0.2124
83616SOL    HW162827   3.237   3.082  12.030  1.0456 -2.0878  0.1913
83616SOL    HW262828   3.212   2.987  11.915 -1.0324 -1.0683 -0.2364
83617SOL     OW62829   4.089   5.348  11.930  0.0531  0.4774  0.1810
83617SOL    HW162830   4.079   5.266  11.980 -1.5125 -0.0545 -0.9000
83617SOL    HW262831   4.083   5.417  11.996 -1.5817 -0.2158  0.8199
83618SOL     OW62832   1.908   7.875   4.350 -0.8761  0.2327 -0.1646
83618SOL    HW162833   1.897   7.795   4.300  1.7218 -0.0481 -0.4375
83618SOL    HW262834   1.959   7.849   4.427  0.2178  1.6249 -0.3709
83619SOL     OW62835   1.552   6.155   5.065  0.8484 -0.3616  0.0388
83619SOL    HW162836   1.646   6.143   5.050  1.0811  0.1919  0.9800
83619SOL    HW262837   1.513   6.072   5.039  2.0930 -2.3641  3.7974
83620SOL     OW62838  11.908   5.415  13.760 -0.2158  0.8719  0.6002
83620SOL    HW162839  11.890   5.345  13.698 -0.5054  1.3510  0.1366
83620SOL    HW262840  11.878   5.494  13.716 -3.5951  0.8991  2.6202
83621SOL     OW62841   0.428   8.050  10.824  0.7090 -0.4431  0.3359
83621SOL    HW162842   0.365   8.030  10.894  0.4291  1.0849  0.5634
83621SOL    HW262843   0.511   8.061  10.870  0.8044 -0.8158  0.2510
83622SOL     OW62844   2.601   6.246  11.507 -0.3150  0.2300 -0.2644
83622SOL    HW162845   2.645   6.166  11.533 -0.7511 -0.3859 -1.3284
83622SOL    HW262846   2.588   6.295  11.588 -1.5658 -1.5571  0.6705
83623SOL     OW62847   5.221   7.954   2.677  0.0356 -0.6671  0.0120
83623SOL    HW162848   5.187   7.964   2.766  0.9736  0.8909  0.2333
83623SOL    HW262849   5.312   7.984   2.683  0.1344 -0.6130 -1.4564
83624SOL     OW62850   8.090   9.553   4.900  0.1468  0.0739  0.4362
83624SOL    HW162851   7.996   9.542   4.912  0.0535 -0.8828 -0.9780
83624SOL    HW262852   8.110   9.635   4.945 -1.2101 -0.1034  1.4313
83625SOL     OW62853   6.240  12.799  13.171  0.0641 -0.2275  0.0052
83625SOL    HW162854   6.197  12.778  13.254 -0.1007 -0.8035 -0.2244
83625SOL    HW262855   6.333  12.808  13.193 -0.2215  1.7512  0.6495
83626SOL     OW62856  11.683   0.700   9.190 -0.1209  0.3448  0.2859
83626SOL    HW162857  11.702   0.788   9.224 -0.3156  0.1477  0.9294
83626SOL    HW262858  11.589   0.700   9.177 -0.3106 -0.1819  1.5331
83627SOL     OW62859   4.599   1.259  12.756  0.2208 -0.1360 -0.1048
83627SOL    HW162860   4.555   1.343  12.770 -0.5348 -0.5783  0.2175
83627SOL    HW262861   4.579   1.236  12.665  0.8471  0.2597 -0.3538
83628SOL     OW62862   4.706   3.725   8.602 -0.8891  0.3186 -1.0321
83628SOL    HW162863   4.766   3.799   8.616 -0.8815  0.5554 -2.2112
83628SOL    HW262864   4.726   3.695   8.513 -1.9895 -0.0869 -1.1523
83629SOL     OW62865   0.256   0.041   0.500 -0.1858 -0.4057  0.4371
83629SOL    HW162866   0.337   0.013   0.457  0.3481 -2.1207  2.3878
83629SOL    HW262867   0.186   0.014   0.440  0.6249  1.3224 -1.3971
83630SOL     OW62868   5.039   2.632  13.860  0.1868 -0.0103  0.0363
83630SOL    HW162869   5.027   2.540  13.885 -1.2726 -0.0484 -0.7411
83630SOL    HW262870   4.965   2.677  13.901  0.6392  0.7477  0.0236
83631SOL     OW62871  13.650   1.731   7.327 -0.3221  0.1403 -0.0220
83631SOL    HW162872  13.732   1.713   7.281  0.2878  1.2654  0.5758
83631SOL    HW262873  13.646   1.827   7.331 -0.3873  0.1024  2.1419
83632SOL     OW62874   2.718   8.115   6.847 -0.6951  0.2506  0.2513
83632SOL    HW162875   2.645   8.128   6.786 -0.4931  1.3443  0.2289
83632SOL    HW262876   2.760   8.034   6.816 -1.5239 -0.0596 -0.1023
83633SOL     OW62877   3.851   3.485  10.219 -0.3385 -0.4625 -0.0803
83633SOL    HW162878   3.836   3.441  10.135  0.0316 -0.9120  0.0851
83633SOL    HW262879   3.858   3.414  10.283  1.7049 -0.2689 -0.0308
83634SOL     OW62880  13.011   7.581   0.147  0.2081 -0.1790  0.3586
83634SOL    HW162881  13.028   7.490   0.168 -0.7180 -0.4845 -0.1718
83634SOL    HW262882  12.919   7.594   0.168  0.2960  0.5950  0.2911
83635SOL     OW62883   3.822   0.840   4.525  0.0009  0.2560  0.1876
83635SOL    HW162884   3.818   0.745   4.514 -0.6384  0.5373 -3.2156
83635SOL    HW262885   3.867   0.853   4.609 -0.0613 -3.0083  0.8563
83636SOL     OW62886   8.286   5.488   3.225  0.4319 -0.0834 -0.5877
83636SOL    HW162887   8.206   5.510   3.177  1.0069 -0.4447 -1.7618
83636SOL    HW262888   8.339   5.438   3.162  0.8810 -1.3009  0.6932
83637SOL     OW62889   8.154   9.950   0.194  0.3433  0.6414  0.2315
83637SOL    HW162890   8.230   9.906   0.155 -0.6847  0.2255 -1.4075
83637SOL    HW262891   8.170  10.043   0.179  0.2455  0.5184 -0.6904
83638SOL     OW62892   9.024   3.459   1.631  0.9536  0.1837 -0.2750
83638SOL    HW162893   9.076   3.490   1.705 -2.5485 -1.1082  3.0429
83638SOL    HW262894   9.056   3.371   1.615  0.2432 -0.4239  1.4018
83639SOL     OW62895  12.921   2.735   6.393  0.4379 -0.3392 -0.7469
83639SOL    HW162896  12.837   2.698   6.367 -0.1335 -0.6958  1.4085
83639SOL    HW262897  12.945   2.793   6.321 -1.1362 -1.0207 -1.8797
83640SOL     OW62898   0.270   0.461   5.866 -0.2590  0.0886  0.3175
83640SOL    HW162899   0.190   0.408   5.860 -1.2335  1.6618 -1.9840
83640SOL    HW262900   0.332   0.416   5.807 -0.2731  0.1986  0.2192
83641SOL     OW62901  13.388  10.515  13.233 -0.3141 -0.5031 -0.1706
83641SOL    HW162902  13.369  10.527  13.140 -0.7117 -2.0235 -0.3101
83641SOL    HW262903  13.423  10.426  13.239 -0.6378 -0.5569  1.1899
83642SOL     OW62904   0.393   1.600  10.387 -0.4581  0.1678  0.0398
83642SOL    HW162905   0.442   1.556  10.318  1.2672  2.3361 -0.2383
83642SOL    HW262906   0.334   1.659  10.341 -4.8193 -3.4918  0.2961
83643SOL     OW62907  10.630   3.966  10.973  0.3869 -0.0418 -0.8901
83643SOL    HW162908  10.716   3.927  10.961  0.7583  1.0366 -1.7967
83643SOL    HW262909  10.589   3.962  10.886  1.3160  3.6157 -1.6377
83644SOL     OW62910   7.109  13.947   8.463 -0.6299  0.0907 -0.6248
83644SOL    HW162911   7.020  13.914   8.451 -0.5141 -0.4147 -0.1206
83644SOL    HW262912   7.113  13.976   8.554 -0.8368  1.8684 -1.1478
83645SOL     OW62913  10.287   6.182   8.379  0.1939  0.1709 -0.5492
83645SOL    HW162914  10.257   6.112   8.321  1.4164  0.9631 -2.2344
83645SOL    HW262915  10.372   6.208   8.344  0.0717  2.0644  0.3886
83646SOL     OW62916  13.311  12.194  11.174  0.1560 -0.0009  0.2544
83646SOL    HW162917  13.266  12.278  11.178  0.6497  0.2720  0.1347
83646SOL    HW262918  13.283  12.155  11.091  1.6954  1.0707 -0.8258
83647SOL     OW62919   5.080   6.010   3.745  0.1610  0.0237  0.0855
83647SOL    HW162920   4.986   6.022   3.727  0.0213  0.3141  0.9640
83647SOL    HW262921   5.097   5.919   3.722 -0.3206 -0.0115 -0.1531
83648SOL     OW62922   5.108   2.241  11.558  0.3528  0.7031  0.1436
83648SOL    HW162923   5.129   2.306  11.491 -2.9093 -0.5587 -2.3891
83648SOL    HW262924   5.015   2.255  11.577 -0.5061 -3.0091 -0.4685
83649SOL     OW62925   0.178   4.297   5.955 -0.1754 -0.3178 -0.0851
83649SOL    HW162926   0.203   4.210   5.985 -2.1026 -1.2359 -0.9667
83649SOL    HW262927   0.122   4.282   5.879  0.9300  1.7752 -1.4285
83650SOL     OW62928  13.358   9.496   4.174  0.3728 -0.4115  0.4765
83650SOL    HW162929  13.265   9.477   4.189  0.0740  0.2399 -0.4204
83650SOL    HW262930  13.391   9.419   4.127  0.4220 -0.8727  1.2568
83651SOL     OW62931   9.761   4.748  11.021  0.0858  0.1622 -0.4936
83651SOL    HW162932   9.707   4.823  11.048  0.5874  1.6545 -3.2279
83651SOL    HW262933   9.700   4.691  10.974 -0.1322 -0.8098  0.9199
83652SOL     OW62934  11.918   3.208   8.221 -0.2021  0.5378 -0.5813
83652SOL    HW162935  11.865   3.287   8.225 -0.0340  0.5980  1.8396
83652SOL    HW262936  11.857   3.137   8.238  0.3225  0.5696  1.7564
83653SOL     OW62937   4.117   9.760  14.027  0.5764 -0.1077  0.3494
83653SOL    HW162938   4.183   9.691  14.030  1.4519  0.6715 -0.3659
83653SOL    HW262939   4.034   9.713  14.017  1.1680 -1.0552 -0.3603
83654SOL     OW62940  12.944  13.657  10.086 -0.1743 -0.1144  0.2680
83654SOL    HW162941  12.871  13.598  10.105 -0.4280 -0.0021 -0.3302
83654SOL    HW262942  13.022  13.602  10.095 -0.2629 -0.0449  1.6851
83655SOL     OW62943   2.715   8.701  10.157 -0.1972 -0.4203 -0.2109
83655SOL    HW162944   2.724   8.616  10.200  1.0270 -1.2689 -2.0171
83655SOL    HW262945   2.621   8.712  10.143 -0.3902 -1.3046  0.3284
83656SOL     OW62946   0.838   2.707  12.627 -0.7785  0.2944  0.2182
83656SOL    HW162947   0.854   2.747  12.712 -1.1850  0.9439 -0.0099
83656SOL    HW262948   0.852   2.777  12.564 -0.0297 -0.2879 -0.2999
83657SOL     OW62949   2.442   9.009   1.518  0.1198 -0.0349 -0.3541
83657SOL    HW162950   2.416   9.098   1.496  0.1002 -0.0331 -0.3212
83657SOL    HW262951   2.532   9.002   1.486  0.1220 -0.0032 -0.3545
83658SOL     OW62952   0.374  10.614  11.471  0.0605 -0.3879  0.3740
83658SOL    HW162953   0.406  10.568  11.548  1.8630  1.9339  1.1123
83658SOL    HW262954   0.442  10.677  11.450 -1.0173  0.0339 -2.3055
83659SOL     OW62955   6.962   1.667  10.702  0.2865 -0.0078  0.4349
83659SOL    HW162956   6.967   1.606  10.628 -1.7019  0.5881 -0.2542
83659SOL    HW262957   6.927   1.615  10.774 -3.9156  0.6994 -0.8326
83660SOL     OW62958  11.637   8.331   2.412 -0.3929  0.1706  0.5482
83660SOL    HW162959  11.577   8.260   2.434 -1.1813  0.0893 -1.6278
83660SOL    HW262960  11.681   8.352   2.495 -0.6959 -2.3012  1.4129
83661SOL     OW62961   2.607  13.170   4.813  0.2821  0.8191  0.1438
83661SOL    HW162962   2.668  13.215   4.871 -1.4099  3.1055  0.3131
83661SOL    HW262963   2.535  13.144   4.871  0.1742 -0.0592 -0.3712
83662SOL     OW62964   8.226   8.942   3.415 -0.1801 -0.0795  0.1592
83662SOL    HW162965   8.181   9.023   3.439 -0.2586  1.1564 -3.4654
83662SOL    HW262966   8.171   8.872   3.450 -1.5365  1.4127  1.1453
83663SOL     OW62967   6.416  13.153   0.231  0.2762  0.0234  0.2034
83663SOL    HW162968   6.436  13.239   0.267  0.2632 -0.0590  0.4149
83663SOL    HW262969   6.379  13.170   0.145  0.4374  0.2206  0.1749
83664SOL     OW62970   6.507   5.199  12.136  0.3040 -0.3015  0.2979
83664SOL    HW162971   6.504   5.267  12.069 -0.8729  1.1163  1.7167
83664SOL    HW262972   6.567   5.233  12.202  1.2698 -1.5790  0.1304
83665SOL     OW62973   8.813   9.646   8.645 -0.3394 -0.7218 -0.0865
83665SOL    HW162974   8.740   9.590   8.619  0.3566 -0.2880 -3.4566
83665SOL    HW262975   8.870   9.589   8.696 -1.2402 -2.1408 -0.6019
83666SOL     OW62976  10.030   7.688  12.051 -0.1204  0.1708  0.3561
83666SOL    HW162977  10.013   7.702  11.958  0.4140 -1.9360 -0.1298
83666SOL    HW262978   9.960   7.735  12.096 -0.7859  0.6608 -1.1310
83667SOL     OW62979  10.940   7.780   3.529  0.4042 -0.0116  0.3358
83667SOL    HW162980  11.010   7.802   3.467 -0.7416  1.7853 -0.4211
83667SOL    HW262981  10.882   7.722   3.480 -0.9540  2.0777 -0.6951
83668SOL     OW62982   7.641   3.749   7.786 -0.3801  0.0891  0.1254
83668SOL    HW162983   7.693   3.669   7.786 -1.2331 -0.4799 -0.5398
83668SOL    HW262984   7.676   3.800   7.859  0.9353 -0.3786 -0.1576
83669SOL     OW62985  10.790  13.920   7.503  0.7980  0.5982  1.0886
83669SOL    HW162986  10.850  13.994   7.491  0.9675  0.4522  1.0311
83669SOL    HW262987  10.724  13.931   7.435  2.0375 -0.5168 -0.3385
83670SOL     OW62988   5.546   3.104   1.434 -0.2994  0.2016 -0.3026
83670SOL    HW162989   5.532   3.063   1.348  0.9752 -0.1259 -0.3770
83670SOL    HW262990   5.496   3.186   1.429 -0.2723  0.1739 -1.3548
83671SOL     OW62991  11.298   1.170   6.231  0.3279 -0.2691 -0.7740
83671SOL    HW162992  11.331   1.258   6.209 -0.6845  0.2847 -0.1598
83671SOL    HW262993  11.305   1.165   6.326  0.7847 -1.0307 -0.8453
83672SOL     OW62994   9.517   5.676   1.030 -0.2065 -0.2128 -0.4244
83672SOL    HW162995   9.547   5.591   1.065  0.3921  0.0682 -0.2390
83672SOL    HW262996   9.423   5.665   1.019 -0.2910 -0.5835  0.5248
83673SOL     OW62997   5.434  10.165  10.751  0.0571 -0.1806 -0.1016
83673SOL    HW162998   5.490  10.101  10.797  0.4833  0.3597  0.1357
83673SOL    HW262999   5.494  10.214  10.696  0.1602  1.6505  1.5227
83674SOL     OW63000   6.801  13.584   1.579 -0.4956  0.2761  0.5635
83674SOL    HW163001   6.742  13.510   1.569 -0.5312  0.3978 -0.1334
83674SOL    HW263002   6.875  13.549   1.629 -0.2082 -0.4012 -0.3215
83675SOL     OW63003   0.500   8.321   0.342  0.5227 -0.3819  0.4274
83675SOL    HW163004   0.487   8.348   0.250  1.1977 -2.5439 -0.3574
83675SOL    HW263005   0.591   8.343   0.361  0.0112  1.3694  1.1148
83676SOL     OW63006   4.548  12.141   9.068  0.3569 -0.4579  0.2253
83676SOL    HW163007   4.516  12.105   8.986  0.0754 -0.1802  0.2117
83676SOL    HW263008   4.491  12.105   9.135  1.1188 -1.3726  0.4056
83677SOL     OW63009  10.387   9.988   0.219  0.2625 -0.7528 -0.0483
83677SOL    HW163010  10.393   9.913   0.279  1.3254 -0.2970  0.4511
83677SOL    HW263011  10.305  10.030   0.242  1.3302  0.2844  2.2074
83678SOL     OW63012   1.629   4.608   8.006 -0.4401 -0.2213  0.0395
83678SOL    HW163013   1.671   4.561   8.079 -0.5070 -1.7355 -0.8574
83678SOL    HW263014   1.535   4.596   8.021 -0.5559  1.3500  0.8662
83679SOL     OW63015   4.123   8.510   7.619 -0.1286  0.1435  0.8560
83679SOL    HW163016   4.091   8.482   7.705 -2.3903  1.6311  0.5926
83679SOL    HW263017   4.148   8.602   7.632 -0.0478  0.2435  0.0171
83680SOL     OW63018  11.911  11.549   1.420 -0.0598  1.2298  0.3269
83680SOL    HW163019  11.980  11.508   1.472  0.1783  1.6898  0.3770
83680SOL    HW263020  11.932  11.526   1.330  0.6145  2.0156  0.2664
83681SOL     OW63021  12.255  11.507   6.487  0.1340  0.0086  0.0456
83681SOL    HW163022  12.339  11.527   6.527 -0.0113  2.2039 -0.5740
83681SOL    HW263023  12.272  11.509   6.393 -0.1332 -2.1089 -0.0954
83682SOL     OW63024   2.331   9.296   4.637  0.3364 -0.2385 -0.0087
83682SOL    HW163025   2.249   9.344   4.626  0.4576 -0.0702 -0.1780
83682SOL    HW263026   2.382   9.316   4.558  1.6449  1.8080  1.2731
83683SOL     OW63027   9.893   6.449  10.458  0.1103  0.0790 -0.2471
83683SOL    HW163028   9.831   6.394  10.507  0.6789 -0.7821 -0.4670
83683SOL    HW263029   9.944   6.387  10.407  0.6146  0.8481 -0.6905
83684SOL     OW63030  10.024  12.372   1.390 -0.1731  0.6361  0.7962
83684SOL    HW163031  10.072  12.369   1.307 -1.1818  0.7158  0.1982
83684SOL    HW263032   9.943  12.324   1.373 -0.7280  1.2831  1.5072
83685SOL     OW63033   1.773  10.783   9.565  0.3007  0.2625  0.2374
83685SOL    HW163034   1.759  10.690   9.549 -3.6279  0.3758  1.8909
83685SOL    HW263035   1.796  10.788   9.657 -2.8101  0.9780  1.0835
83686SOL     OW63036   8.419  11.421   8.943  0.7087  0.0259  0.3975
83686SOL    HW163037   8.492  11.409   8.883  0.7599  1.4299  0.1628
83686SOL    HW263038   8.366  11.490   8.904 -0.9302 -1.1679  0.4095
83687SOL     OW63039   3.972   4.224   6.034 -0.1071  0.3449  0.1908
83687SOL    HW163040   3.947   4.228   5.942 -0.3478 -0.0764  0.2353
83687SOL    HW263041   3.933   4.142   6.066  0.7592  0.0164  0.4308
83688SOL     OW63042   1.373   7.948   7.045 -0.3978  0.4125  0.6223
83688SOL    HW163043   1.466   7.934   7.028 -0.6128 -0.3056 -0.0215
83688SOL    HW263044   1.332   7.863   7.030 -1.3417  1.0194 -0.4389
83689SOL     OW63045   6.855   7.817   6.648  0.7220 -0.0616 -0.0576
83689SOL    HW163046   6.950   7.814   6.633  0.7990  0.0184  0.3986
83689SOL    HW263047   6.822   7.876   6.580  1.1357  0.7353  0.4231
83690SOL     OW63048  13.739   4.356   9.270  1.0041  0.4162 -0.4821
83690SOL    HW163049  13.824   4.381   9.234  0.4321  2.2237 -0.6676
83690SOL    HW263050  13.692   4.438   9.280 -0.7604 -0.5461 -0.4350
83691SOL     OW63051  11.858  11.947   2.039  0.1120  1.0833  0.1160
83691SOL    HW163052  11.938  11.967   2.086  0.2917 -0.7770  0.6818
83691SOL    HW263053  11.790  11.945   2.107 -0.4138  2.4900 -0.3340
83692SOL     OW63054  12.863   8.404   7.915  0.0532 -0.1338  0.3209
83692SOL    HW163055  12.837   8.435   8.001 -0.0909 -1.0882  0.6329
83692SOL    HW263056  12.956   8.427   7.908  0.0551 -0.0212  0.7081
83693SOL     OW63057   6.647  10.252  13.653  0.0572 -0.1146 -0.6445
83693SOL    HW163058   6.700  10.332  13.654  0.5901 -0.3776 -2.9127
83693SOL    HW263059   6.677  10.204  13.576 -1.9200 -1.3861 -0.6947
83694SOL     OW63060   6.495   0.550   1.415 -0.4852  0.0918  0.1484
83694SOL    HW163061   6.549   0.586   1.345  1.8001 -1.1113  1.1914
83694SOL    HW263062   6.485   0.457   1.393 -0.1375 -0.1941  1.1354
83695SOL     OW63063  12.651   2.930   3.031 -0.1138  0.2435  0.1162
83695SOL    HW163064  12.727   2.970   2.988 -0.3326 -0.2231 -0.7340
83695SOL    HW263065  12.579   2.945   2.970 -0.9898  1.7494  1.4598
83696SOL     OW63066   1.823   1.813  13.657  0.0970 -0.0168  0.4847
83696SOL    HW163067   1.765   1.825  13.732  2.7310  1.9919  2.3885
83696SOL    HW263068   1.775   1.852  13.584 -1.7386 -0.2145  1.5110
83697SOL     OW63069   6.836   8.672   8.456 -1.0851  0.2313 -0.0157
83697SOL    HW163070   6.901   8.602   8.446  0.5479  1.9432 -3.2286
83697SOL    HW263071   6.886   8.747   8.488 -1.3755  1.5413 -2.3823
83698SOL     OW63072   0.190  12.578   6.244  0.6670  0.2623  0.5469
83698SOL    HW163073   0.104  12.599   6.282 -0.0206 -1.1620 -0.1097
83698SOL    HW263074   0.227  12.662   6.219 -1.6292  0.8178 -1.4054
83699SOL     OW63075   8.168   8.540   1.126 -0.2655 -0.0726 -0.0463
83699SOL    HW163076   8.129   8.614   1.171  2.9235  1.1028  1.0801
83699SOL    HW263077   8.148   8.464   1.181 -2.1057  0.1624 -0.3182
83700SOL     OW63078   7.610  12.509   2.160 -0.0556  0.4824  0.5951
83700SOL    HW163079   7.610  12.480   2.068  0.2610  0.0818  0.7191
83700SOL    HW263080   7.680  12.574   2.164  0.7017 -0.3286  0.8037
83701SOL     OW63081   1.461   1.621   0.424  0.0409 -0.2616 -0.1834
83701SOL    HW163082   1.382   1.590   0.380 -1.3979 -0.2265  2.2007
83701SOL    HW263083   1.441   1.613   0.518  2.2181  1.3581  0.5034
83702SOL     OW63084  13.073   4.194   1.746  0.0858  0.0963  0.2526
83702SOL    HW163085  13.110   4.159   1.665 -0.0439  1.8300 -0.6197
83702SOL    HW263086  13.092   4.128   1.813  1.8561 -0.5357 -0.8119
83703SOL     OW63087   0.341   9.854   8.545 -0.2303  0.4089 -0.3167
83703SOL    HW163088   0.391   9.879   8.622  0.2159 -0.3054 -0.3662
83703SOL    HW263089   0.351   9.928   8.485 -0.0555  0.6928  0.0578
83704SOL     OW63090  13.253   2.421   6.493 -0.1053  0.3137 -0.1250
83704SOL    HW163091  13.196   2.449   6.564  0.1806 -2.0324  1.1389
83704SOL    HW263092  13.339   2.456   6.515  0.1155 -0.8902  1.0899
83705SOL     OW63093   1.321   8.157   8.645 -0.1617 -0.0948  0.4694
83705SOL    HW163094   1.351   8.246   8.666  0.9067 -0.5225  0.8191
83705SOL    HW263095   1.378   8.100   8.696 -1.1950 -0.9816  0.6762
83706SOL     OW63096  13.555   7.464   8.947  0.0756 -0.0007  0.5592
83706SOL    HW163097  13.571   7.533   9.011  1.7999 -0.2084  0.3856
83706SOL    HW263098  13.631   7.406   8.953 -0.7688 -1.2527 -0.1257
83707SOL     OW63099   9.553  11.076  13.153 -0.3715 -0.1461  0.9184
83707SOL    HW163100   9.639  11.039  13.175 -0.2563  0.1594  0.9837
83707SOL    HW263101   9.491  11.010  13.182 -0.1207 -0.8273 -0.0452
83708SOL     OW63102  13.557   4.003   0.541  0.1939 -0.6060 -0.3681
83708SOL    HW163103  13.618   4.074   0.563 -0.3406 -0.4280  0.6343
83708SOL    HW263104  13.526   4.024   0.453  0.6178 -0.0131 -0.3843
83709SOL     OW63105   9.645   6.398   3.191  0.5757 -0.0252  0.5306
83709SOL    HW163106   9.706   6.418   3.120 -1.3336  0.7048 -1.0221
83709SOL    HW263107   9.659   6.305   3.210  1.9426  0.0596  0.0179
83710SOL     OW63108   9.673   7.778  10.162  0.2370 -0.5954  0.0587
83710SOL    HW163109   9.582   7.759  10.185 -0.0783  0.0039 -0.6374
83710SOL    HW263110   9.679   7.873  10.164  0.3639 -0.5451 -1.6314
83711SOL     OW63111  12.795   7.493  10.347 -0.3185 -0.1176  0.6048
83711SOL    HW163112  12.846   7.503  10.267  0.9899  0.1583  1.4390
83711SOL    HW263113  12.771   7.400  10.348 -0.7934 -0.0199 -0.3459
83712SOL     OW63114   0.799   1.168   1.266  0.0456  0.4591 -0.0289
83712SOL    HW163115   0.845   1.172   1.350  1.1340 -0.8180 -0.5136
83712SOL    HW263116   0.822   1.081   1.231 -0.4625  0.9246 -1.5958
83713SOL     OW63117   2.253   8.623   9.978 -0.2121  0.0348  0.1232
83713SOL    HW163118   2.227   8.689  10.042  1.4929  0.6312  0.2644
83713SOL    HW263119   2.319   8.667   9.925  0.8079 -1.4820  0.0825
83714SOL     OW63120   7.438   4.922   2.961 -0.2558 -0.5981  0.5484
83714SOL    HW163121   7.528   4.916   2.995 -0.0621  2.3441  0.8547
83714SOL    HW263122   7.389   4.860   3.014  1.7113 -2.9999 -0.2714
83715SOL     OW63123   5.134   7.848   8.641 -0.0498 -0.1406 -0.3523
83715SOL    HW163124   5.210   7.806   8.682  0.3436  0.0226 -0.9065
83715SOL    HW263125   5.085   7.885   8.715  0.9828  0.7000 -0.0662
83716SOL     OW63126   9.184  13.370   1.748  0.1511  0.4366  0.2343
83716SOL    HW163127   9.280  13.379   1.749  0.1279  0.7075  0.1377
83716SOL    HW263128   9.155  13.424   1.675 -0.1460  1.1134  0.8372
83717SOL     OW63129   9.473   8.690  12.907 -0.5426  0.3838 -0.2465
83717SOL    HW163130   9.498   8.668  12.996 -1.2415  0.3720 -0.0520
83717SOL    HW263131   9.478   8.785  12.903 -0.1855  0.3633 -0.2930
83718SOL     OW63132   8.252   2.382   9.195  0.2183  0.3354  0.0599
83718SOL    HW163133   8.262   2.349   9.106 -0.6099  2.0816 -0.7189
83718SOL    HW263134   8.169   2.346   9.225  0.5226 -0.2952  0.1554
83719SOL     OW63135   1.124   4.607  10.398 -0.3342 -0.2592  0.5420
83719SOL    HW163136   1.153   4.643  10.314 -0.0506  0.2240  0.8423
83719SOL    HW263137   1.203   4.569  10.436 -0.0085  1.1838  1.4234
83720SOL     OW63138   4.478   0.154  12.166 -0.1954  0.9702 -0.4298
83720SOL    HW163139   4.428   0.143  12.085  0.3942  1.0737 -0.8140
83720SOL    HW263140   4.497   0.065  12.195  0.5607  0.9296 -1.0196
83721SOL     OW63141   6.893   0.989  10.347  0.0616  0.0525 -0.1449
83721SOL    HW163142   6.965   1.024  10.400 -0.0651 -0.7916  0.5971
83721SOL    HW263143   6.855   1.066  10.305 -0.0405  0.7924  1.2469
83722SOL     OW63144   3.657   9.076  11.539 -0.1111 -0.1383 -0.4652
83722SOL    HW163145   3.571   9.094  11.500  0.7664  3.8341 -1.0249
83722SOL    HW263146   3.642   9.082  11.633 -0.5354  0.0026 -0.5365
83723SOL     OW63147  11.968   8.400   2.686  0.2718 -0.3547  0.3238
83723SOL    HW163148  12.025   8.360   2.752  0.1305 -0.5384  0.3371
83723SOL    HW263149  12.027   8.424   2.615  0.6381  1.1003  1.0766
83724SOL     OW63150   8.530   6.512   8.924 -0.6598  0.4408 -0.0179
83724SOL    HW163151   8.548   6.451   8.853 -0.2281 -0.8334  1.1452
83724SOL    HW263152   8.603   6.574   8.922 -0.3430  0.0595 -0.3105
83725SOL     OW63153   0.768  10.557  10.839 -0.0732 -0.5156 -0.6768
83725SOL    HW163154   0.766  10.564  10.744 -2.0960 -1.5635 -0.7671
83725SOL    HW263155   0.694  10.611  10.869  0.2721 -0.5485  0.2829
83726SOL     OW63156   3.361   0.664  12.314  0.4836 -0.4039  0.6354
83726SOL    HW163157   3.435   0.706  12.269  0.1647 -0.2711  0.2290
83726SOL    HW263158   3.285   0.714  12.286  0.2189 -0.6316  0.9443
83727SOL     OW63159  13.605   4.672  10.962 -0.3581 -0.8867  0.1366
83727SOL    HW163160  13.650   4.691  11.044 -2.7782 -0.6969  1.4939
83727SOL    HW263161  13.600   4.757  10.918 -0.5325 -0.6632  0.5786
83728SOL     OW63162   1.738   0.922  11.538  0.1302  0.6558 -0.0716
83728SOL    HW163163   1.769   0.878  11.459  1.2979  0.4239  0.5009
83728SOL    HW263164   1.817   0.954  11.580 -0.3716 -0.1854  1.5770
83729SOL     OW63165   1.771   5.935   1.289  0.3131 -0.6815 -0.1837
83729SOL    HW163166   1.717   6.014   1.291 -0.8325 -1.4234 -0.6810
83729SOL    HW263167   1.808   5.934   1.201  2.5466  0.7014  0.6699
83730SOL     OW63168   5.939   0.082   3.509  0.0155 -0.3199 -0.5003
83730SOL    HW163169   6.010   0.125   3.462 -1.4879 -0.0485 -2.7088
83730SOL    HW263170   5.981   0.013   3.559  1.9571  0.7330 -0.5737
83731SOL     OW63171   0.892  11.663   4.416  0.2066  0.5095 -0.5773
83731SOL    HW163172   0.873  11.579   4.374  1.4435 -0.2482  0.3106
83731SOL    HW263173   0.964  11.699   4.365  0.8732  0.1719  0.1037
83732SOL     OW63174   2.476   7.506  10.755  0.3262 -0.0074 -0.1060
83732SOL    HW163175   2.545   7.441  10.762  0.2485 -0.1966 -0.9698
83732SOL    HW263176   2.503   7.561  10.681 -1.0008 -0.7707 -1.1887
83733SOL     OW63177   4.414  11.672  12.074 -0.0399  0.0846 -0.2688
83733SOL    HW163178   4.375  11.588  12.098  0.1171 -0.5209 -1.9944
83733SOL    HW263179   4.436  11.663  11.982  3.0397  0.8476  0.2609
83734SOL     OW63180   4.456   4.105   9.715  0.1621 -0.0405 -0.2065
83734SOL    HW163181   4.478   4.036   9.653  1.6341 -0.7265  1.0182
83734SOL    HW263182   4.496   4.078   9.798  0.2023  1.9410  0.4915
83735SOL     OW63183   4.333   8.087   4.022 -0.0985  0.3633  0.0412
83735SOL    HW163184   4.396   8.069   4.091  0.1636  1.0006 -0.0299
83735SOL    HW263185   4.385   8.120   3.949 -0.6416  2.5024  0.5467
83736SOL     OW63186   4.642  11.566   1.677 -0.0339 -0.8319  0.0777
83736SOL    HW163187   4.600  11.507   1.615 -1.2545 -0.8364  0.8620
83736SOL    HW263188   4.718  11.518   1.710  0.1511 -1.1465 -0.7819
83737SOL     OW63189  11.970   7.190   6.919 -0.3515  0.0214 -0.0127
83737SOL    HW163190  11.928   7.129   6.980  1.5504 -0.2298  1.1160
83737SOL    HW263191  11.917   7.269   6.925  0.8191  0.7427  3.5742
83738SOL     OW63192   2.986   2.298   5.390  0.1168  0.3275  0.0072
83738SOL    HW163193   3.062   2.356   5.403  0.3084 -0.0901  0.7978
83738SOL    HW263194   3.024   2.211   5.378 -0.2662 -0.2099  2.2736
83739SOL     OW63195   9.895   7.287  10.115  0.0549  0.5605 -0.3213
83739SOL    HW163196   9.925   7.364  10.165  0.5140  0.4183 -0.3754
83739SOL    HW263197   9.809   7.312  10.082 -0.0404  0.8425  0.1340
83740SOL     OW63198   7.918   8.683   7.254  0.0773 -0.3957 -0.6937
83740SOL    HW163199   7.851   8.624   7.289 -3.0714  0.3667 -4.6424
83740SOL    HW263200   7.951   8.638   7.176  1.4656  0.9002 -0.8955
83741SOL     OW63201  11.569   7.577   9.028  0.2991 -0.0055  0.4219
83741SOL    HW163202  11.622   7.654   9.049  0.7402  0.1519 -1.1891
83741SOL    HW263203  11.484   7.613   9.003  0.3757 -0.0590  0.0778
83742SOL     OW63204   6.421   6.634   0.024 -0.2604  0.4691  0.7787
83742SOL    HW163205   6.370   6.581  -0.037  0.9185 -0.1074  0.2519
83742SOL    HW263206   6.388   6.611   0.110  0.1667 -1.0940  0.5579
83743SOL     OW63207  11.406   8.407  10.064  0.9798  0.5204  0.2489
83743SOL    HW163208  11.501   8.417  10.063  1.0561  0.4396  2.4169
83743SOL    HW263209  11.377   8.445   9.981  2.9563 -0.2616 -0.8680
83744SOL     OW63210   3.640   1.815   8.333  0.0684 -0.3911  0.0565
83744SOL    HW163211   3.727   1.787   8.303 -1.0939 -2.9687 -1.2305
83744SOL    HW263212   3.640   1.910   8.322  2.1745 -0.4985 -1.4229
83745SOL     OW63213  11.576   5.851  13.567 -0.2377 -0.5320 -0.1435
83745SOL    HW163214  11.610   5.894  13.488 -1.4392  0.4072 -0.1749
83745SOL    HW263215  11.639   5.875  13.635 -0.0430 -0.0227 -0.4893
83746SOL     OW63216   7.250  11.717  11.795 -0.1695  0.8313  0.7365
83746SOL    HW163217   7.186  11.719  11.724 -1.3529 -1.6461  1.6107
83746SOL    HW263218   7.331  11.686  11.754 -0.7947 -0.4106  0.3929
83747SOL     OW63219   8.075  11.359  10.158 -0.1884 -0.0583  0.5200
83747SOL    HW163220   8.028  11.442  10.149  0.3242  0.4524  2.1617
83747SOL    HW263221   8.041  11.320  10.238  1.1199 -0.3711  0.9464
83748SOL     OW63222  10.986   4.250   1.210  0.7286  0.0320 -0.7887
83748SOL    HW163223  10.923   4.300   1.158  1.3301  1.0287 -0.5752
83748SOL    HW263224  10.963   4.270   1.301  0.4864 -0.7119 -0.6712
83749SOL     OW63225   8.121  10.999   1.400  0.0288 -0.4413  0.3161
83749SOL    HW163226   8.199  10.957   1.436  0.8583 -0.6337 -1.5786
83749SOL    HW263227   8.122  10.976   1.307 -0.9058  1.6438 -0.2757
83750SOL     OW63228   0.761   6.154   2.182 -0.5512  0.1621  0.3725
83750SOL    HW163229   0.805   6.152   2.267  1.2605  0.9307 -0.5018
83750SOL    HW263230   0.799   6.080   2.134  0.6614  1.4362 -0.7521
83751SOL     OW63231   0.372   2.644   7.678 -0.6238 -0.4328 -0.0248
83751SOL    HW163232   0.344   2.592   7.753  0.6415 -1.2902 -0.1207
83751SOL    HW263233   0.298   2.638   7.617 -0.5115 -2.1945 -0.0470
83752SOL     OW63234   4.401   0.871   2.612 -0.1149 -0.1027 -0.2818
83752SOL    HW163235   4.452   0.791   2.595  0.4969  0.3547 -0.6419
83752SOL    HW263236   4.320   0.840   2.651  0.9524 -0.7751  1.5010
83753SOL     OW63237   6.933   8.022   9.825 -0.0337 -0.0810  0.4409
83753SOL    HW163238   6.962   8.009   9.915 -0.7336 -0.8178  0.5682
83753SOL    HW263239   6.935   7.934   9.786  0.1415  0.2078 -0.2260
83754SOL     OW63240   0.622  13.679   0.215 -0.1678  0.2382 -0.3761
83754SOL    HW163241   0.577  13.631   0.145  0.7049  1.1636 -1.6170
83754SOL    HW263242   0.690  13.728   0.169  0.6074  0.6501  1.1839
83755SOL     OW63243   0.737   4.113  13.765 -0.1715  0.4074 -0.4494
83755SOL    HW163244   0.775   4.105  13.677  0.4251 -0.7880 -0.0947
83755SOL    HW263245   0.811   4.137  13.821  0.2360 -2.3043  0.3159
83756SOL     OW63246   3.201  13.529   0.292 -0.4991  0.1554  0.1343
83756SOL    HW163247   3.238  13.569   0.371 -0.1917 -1.1904  0.6955
83756SOL    HW263248   3.127  13.478   0.324 -0.7449  0.0804 -0.5427
83757SOL     OW63249  13.759   5.654   7.620 -0.6279 -0.4701  0.3681
83757SOL    HW163250  13.764   5.666   7.525 -0.9584 -3.2009 -0.0534
83757SOL    HW263251  13.835   5.600   7.641 -1.6717 -1.6282  1.3143
83758SOL     OW63252   6.508   2.379   1.998  0.0184 -0.4480  0.2300
83758SOL    HW163253   6.417   2.410   2.001  0.1067 -0.1163 -0.2623
83758SOL    HW263254   6.501   2.284   2.000 -0.3321 -0.4203  0.4181
83759SOL     OW63255   8.483   3.097   1.671 -0.1289  0.2859 -0.6915
83759SOL    HW163256   8.446   3.053   1.748  2.0601  0.0937  0.3328
83759SOL    HW263257   8.455   3.188   1.680  1.3713  0.6351  1.3074
83760SOL     OW63258   7.134   6.323   1.223 -0.0546 -0.3594  0.3114
83760SOL    HW163259   7.139   6.308   1.128 -0.4336 -0.1578  0.2599
83760SOL    HW263260   7.188   6.253   1.261  0.0463 -0.4809 -0.0474
83761SOL     OW63261  13.829   6.837  11.700  0.1925 -0.3293  0.1020
83761SOL    HW163262  13.837   6.907  11.764 -0.2787  0.5903 -0.8115
83761SOL    HW263263  13.910   6.842  11.649 -0.2867  0.2419 -0.6212
83762SOL     OW63264  14.038   2.339   1.968  0.3730 -0.0825 -0.1692
83762SOL    HW163265  14.020   2.391   2.047  1.6423 -0.1913  0.2281
83762SOL    HW263266  13.953   2.306   1.940 -0.1794  0.4881  0.7910
83763SOL     OW63267   8.483   7.729  13.213  0.5960 -0.7086 -0.0117
83763SOL    HW163268   8.466   7.660  13.149  0.5757 -1.7924  1.1358
83763SOL    HW263269   8.407   7.788  13.206  1.0117 -0.3187 -1.5774
83764SOL     OW63270   0.172   8.893   4.491 -0.1618 -0.3250  0.4815
83764SOL    HW163271   0.157   8.986   4.472  0.9851 -0.2123 -0.0113
83764SOL    HW263272   0.263   8.890   4.521 -0.5144 -1.1555  1.4995
83765SOL     OW63273   3.048   0.389   5.160  0.2831 -0.2724 -0.1381
83765SOL    HW163274   2.972   0.446   5.150  0.0724 -0.8654 -2.3131
83765SOL    HW263275   3.021   0.324   5.226 -1.7146 -1.3911 -1.9504
83766SOL     OW63276  12.618   5.647   4.528 -1.1307 -0.4924  0.0810
83766SOL    HW163277  12.644   5.623   4.439 -0.4845 -1.8356  0.6008
83766SOL    HW263278  12.543   5.705   4.516 -2.1696 -2.0141 -1.3363
83767SOL     OW63279   6.484  13.489   8.830  0.0583  0.3764  0.5475
83767SOL    HW163280   6.404  13.494   8.778  0.6153  0.8809 -0.2691
83767SOL    HW263281   6.555  13.507   8.769  0.7436  0.8441  1.4434
83768SOL     OW63282  11.171   7.452  13.958  0.4491 -0.4863 -0.2681
83768SOL    HW163283  11.080   7.421  13.955  0.2126  0.1235  0.3067
83768SOL    HW263284  11.222   7.379  13.923 -0.0982 -1.5132  0.9753
83769SOL     OW63285   1.920  10.795   9.873 -0.4568  0.4213  0.1887
83769SOL    HW163286   1.834  10.780   9.912  0.0170  0.2544  1.2087
83769SOL    HW263287   1.980  10.743   9.927  0.3914  1.1884  0.0118
83770SOL     OW63288  10.815   3.314  13.214  0.1806  0.2307 -0.4040
83770SOL    HW163289  10.820   3.391  13.270 -1.2557  0.6710 -0.8479
83770SOL    HW263290  10.878   3.253  13.252  0.5810  1.2125  0.5701
83771SOL     OW63291  13.062  12.385  13.086  0.3586  0.1037 -0.1887
83771SOL    HW163292  13.075  12.290  13.096 -0.9875  0.0772  1.8484
83771SOL    HW263293  13.093  12.422  13.169 -1.3055  1.1929 -0.0203
83772SOL     OW63294   1.618   8.818  10.704  0.5593  0.0712 -0.5532
83772SOL    HW163295   1.674   8.785  10.634  1.4066 -0.8590  0.5563
83772SOL    HW263296   1.675   8.827  10.780 -0.7694 -0.8899  0.6083
83773SOL     OW63297  11.787   4.738   6.873  0.4636 -0.8023 -0.5953
83773SOL    HW163298  11.845   4.662   6.876  2.1267  0.4058  0.0204
83773SOL    HW263299  11.824   4.793   6.804 -1.1464 -0.8559 -1.5371
83774SOL     OW63300   1.619  13.090  11.873 -0.9171  0.1324 -0.5196
83774SOL    HW163301   1.677  13.164  11.887 -1.1313  0.2026  0.0028
83774SOL    HW263302   1.656  13.019  11.925 -0.9151 -0.0256 -0.7323
83775SOL     OW63303   7.173   3.571  12.510  0.6952  0.4745 -0.2587
83775SOL    HW163304   7.094   3.557  12.560  0.7108  1.6319  0.1116
83775SOL    HW263305   7.143   3.582  12.419  0.4810  0.3805 -0.1982
83776SOL     OW63306   0.248   1.848   5.645  0.4092 -0.2266 -0.2989
83776SOL    HW163307   0.275   1.762   5.614 -3.3012 -1.1331 -1.4634
83776SOL    HW263308   0.195   1.831   5.723 -0.3589  0.9985 -0.5236
83777SOL     OW63309  11.090   2.248   3.305 -0.4594 -0.1799  0.5299
83777SOL    HW163310  10.999   2.234   3.333 -0.0924 -2.2570  0.8533
83777SOL    HW263311  11.087   2.240   3.209 -0.8911  1.7539  0.3411
83778SOL     OW63312  11.346  12.524  11.362  0.3949  0.5970 -0.1931
83778SOL    HW163313  11.290  12.528  11.441 -0.9854  0.6347 -1.1352
83778SOL    HW263314  11.286  12.542  11.290  1.4455 -0.3977 -1.3524
83779SOL     OW63315  13.951   3.892   2.334 -0.5849 -0.0950  0.5532
83779SOL    HW163316  13.910   3.811   2.304 -0.1286 -0.1827  0.1666
83779SOL    HW263317  13.946   3.951   2.259  2.5302 -1.0219 -0.5442
83780SOL     OW63318   6.885   7.092   6.087  0.5240 -0.0003 -0.0459
83780SOL    HW163319   6.855   7.117   6.000  0.6281 -1.6779 -0.5949
83780SOL    HW263320   6.805   7.081   6.138  0.3628 -0.9986 -0.5087
83781SOL     OW63321   0.105  10.392   6.974 -0.0160  0.0502 -0.1706
83781SOL    HW163322   0.150  10.311   6.997  0.6516  0.7820  1.2278
83781SOL    HW263323   0.125  10.452   7.046 -1.1678  1.2004 -0.7643
83782SOL     OW63324  10.529   3.955  13.199 -0.4775  0.2715  0.3224
83782SOL    HW163325  10.548   4.034  13.249  0.8563 -0.0278  0.3306
83782SOL    HW263326  10.616   3.918  13.180 -1.0728 -0.9837 -0.0032
83783SOL     OW63327   9.279   1.693  11.929 -0.1889 -0.6704 -0.3331
83783SOL    HW163328   9.280   1.750  12.006  0.1422 -1.9876  0.6800
83783SOL    HW263329   9.232   1.743  11.863 -2.5217 -0.3857  1.4091
83784SOL     OW63330   5.293   4.257   0.614  0.5111 -0.2154  0.7790
83784SOL    HW163331   5.287   4.266   0.709  1.2263  0.0865  0.7982
83784SOL    HW263332   5.317   4.344   0.582 -1.2794  0.0826  0.1687
83785SOL     OW63333  13.781   0.614   0.601  1.0741  0.1426  0.5648
83785SOL    HW163334  13.866   0.639   0.636  1.7523 -1.9219  0.5344
83785SOL    HW263335  13.800   0.573   0.517 -0.1678  1.4161 -0.3940
83786SOL     OW63336   6.150   0.206  11.815 -0.1694  0.5548  0.4828
83786SOL    HW163337   6.115   0.179  11.900 -0.2298 -0.1935  0.2331
83786SOL    HW263338   6.073   0.208  11.758 -0.0285  0.3811  0.2866
83787SOL     OW63339   7.765   4.870  11.093  0.0793  0.6272  0.5052
83787SOL    HW163340   7.811   4.897  11.173  0.9368  1.6766 -0.3105
83787SOL    HW263341   7.713   4.947  11.068 -0.9401 -0.0258  0.5641
83788SOL     OW63342   6.829   0.070  11.456  0.7254  0.0522  0.7641
83788SOL    HW163343   6.923   0.081  11.471  1.4751 -1.4332 -2.0889
83788SOL    HW263344   6.805  -0.008  11.506  1.5426 -0.8241 -0.1740
83789SOL     OW63345  13.880   5.625   3.111  0.1629 -0.0336 -0.2724
83789SOL    HW163346  13.965   5.632   3.153 -0.7893  0.6024  1.6802
83789SOL    HW263347  13.831   5.563   3.164 -0.5876 -0.4480 -1.3985
83790SOL     OW63348  11.728   6.099   0.276  0.6483  0.1765 -0.6018
83790SOL    HW163349  11.727   6.187   0.237 -0.2872  0.3169 -0.2845
83790SOL    HW263350  11.767   6.043   0.209  0.2238  0.6352 -1.2398
83791SOL     OW63351   2.592   7.632   5.635  0.0642  0.1959  0.1888
83791SOL    HW163352   2.501   7.641   5.609 -0.5808 -3.5194  0.5567
83791SOL    HW263353   2.589   7.573   5.711  2.7988 -0.5415 -0.1733
83792SOL     OW63354  11.171   0.922   0.564 -0.1672  0.0649  0.7169
83792SOL    HW163355  11.164   0.870   0.484  0.3935 -1.6376  1.7090
83792SOL    HW263356  11.102   0.888   0.621 -0.5430  1.2303  0.9834
83793SOL     OW63357  12.069  11.500   2.849 -0.5532  0.5537 -0.5784
83793SOL    HW163358  12.074  11.414   2.808  0.5574  1.4266 -2.4179
83793SOL    HW263359  11.981  11.504   2.886 -0.5414 -1.4447 -0.2201
83794SOL     OW63360   1.429   0.588   2.519 -0.0169  0.1442 -0.1709
83794SOL    HW163361   1.408   0.676   2.488  0.6931 -0.4837 -2.6437
83794SOL    HW263362   1.523   0.579   2.502  0.2391 -0.6111  1.4497
83795SOL     OW63363   6.580   4.291   6.977 -0.4238 -0.0515  0.0999
83795SOL    HW163364   6.507   4.254   7.026 -0.7912 -0.9492 -1.0819
83795SOL    HW263365   6.642   4.218   6.968  0.1370  0.4112  0.1890
83796SOL     OW63366  10.863   6.432  11.971  0.4477  0.7006  0.4607
83796SOL    HW163367  10.812   6.358  11.937  1.0269  0.6223 -0.2460
83796SOL    HW263368  10.935   6.442  11.909 -0.2221  2.5591 -0.0713
83797SOL     OW63369  12.443  11.614  11.504 -0.4882  0.1413  0.1376
83797SOL    HW163370  12.514  11.576  11.556  1.1280 -0.5285 -2.3605
83797SOL    HW263371  12.391  11.539  11.475  1.1884 -0.0773 -2.6575
83798SOL     OW63372   9.125  12.994  13.078 -0.0448  0.7906  0.3880
83798SOL    HW163373   9.046  12.952  13.111  0.1432  0.2065  0.1129
83798SOL    HW263374   9.178  13.011  13.156 -0.3348  0.9720  0.5479
83799SOL     OW63375   1.599  13.196   7.169  0.6185 -0.1287  0.2946
83799SOL    HW163376   1.649  13.255   7.225  0.9215 -2.3177  2.5297
83799SOL    HW263377   1.611  13.110   7.209 -1.4528 -1.4107 -1.6097
83800SOL     OW63378   2.425   6.045   5.814  0.3799 -0.4163 -0.0785
83800SOL    HW163379   2.499   6.076   5.762 -1.3053  0.7756 -1.9020
83800SOL    HW263380   2.349   6.056   5.757 -1.4611 -0.0079  2.3051
83801SOL     OW63381   1.218  10.274  12.634 -0.5828  0.5182 -0.7434
83801SOL    HW163382   1.142  10.254  12.578 -0.3524  0.3143 -0.9881
83801SOL    HW263383   1.193  10.241  12.720 -1.6028  2.2839 -0.3163
83802SOL     OW63384   3.758   1.354  12.673  0.0446  0.3868 -0.6132
83802SOL    HW163385   3.679   1.377  12.721  0.2888  0.6221 -0.3241
83802SOL    HW263386   3.789   1.437  12.636  0.2246  0.3178 -0.6193
83803SOL     OW63387   1.505  12.984   8.138  0.2869  0.3630  0.2043
83803SOL    HW163388   1.572  12.972   8.071  1.5948  1.7696  1.1793
83803SOL    HW263389   1.422  12.969   8.093  1.2379 -2.4236 -0.8153
83804SOL     OW63390   5.789   8.944   3.762 -0.6309 -0.3881 -0.4872
83804SOL    HW163391   5.871   8.904   3.793 -0.3703  1.3239  1.2341
83804SOL    HW263392   5.817   9.013   3.702 -0.6800  1.0467  1.0810
83805SOL     OW63393   2.389   6.244   9.557 -0.0443 -0.5912  0.0509
83805SOL    HW163394   2.440   6.322   9.533 -0.2691 -0.9312 -1.6040
83805SOL    HW263395   2.301   6.261   9.523  0.0095 -1.7385 -0.6829
83806SOL     OW63396   6.200   0.962  10.165  0.3714 -0.7865  0.0663
83806SOL    HW163397   6.166   0.893  10.108 -1.8158 -1.1428  1.6905
83806SOL    HW263398   6.281   0.925  10.202  2.4468 -0.1803 -3.3737
83807SOL     OW63399   3.384   1.957   2.665  0.1901  0.2016  0.2491
83807SOL    HW163400   3.398   1.995   2.752 -0.1333 -0.0382  0.4083
83807SOL    HW263401   3.469   1.917   2.643 -0.0048 -0.5924  0.8873
83808SOL     OW63402   3.332  10.658   2.998 -0.1366 -0.1575  0.5633
83808SOL    HW163403   3.340  10.583   3.057  0.2910 -0.8033 -0.2965
83808SOL    HW263404   3.411  10.710   3.015 -0.7385  0.4576  1.6151
83809SOL     OW63405  11.122  13.827  12.162  0.0077  0.0386 -0.1253
83809SOL    HW163406  11.073  13.750  12.135 -1.7766  0.0995  2.6551
83809SOL    HW263407  11.190  13.794  12.220  0.6072  0.3835 -0.6130
83810SOL     OW63408   9.959  12.620   6.641  0.0494 -0.0924 -0.1088
83810SOL    HW163409   9.999  12.576   6.566 -0.3195 -1.1512  0.2920
83810SOL    HW263410  10.031  12.632   6.703  0.1801 -0.0186 -0.2740
83811SOL     OW63411   0.774  10.348   1.742 -0.1621 -0.6565 -0.1539
83811SOL    HW163412   0.821  10.413   1.795 -1.0274  0.5341 -0.8084
83811SOL    HW263413   0.828  10.339   1.663  0.2525 -1.1746  0.1805
83812SOL     OW63414   4.435  13.692   9.635 -0.6845  0.3806  0.1012
83812SOL    HW163415   4.350  13.660   9.664 -0.1046 -0.4591  0.9021
83812SOL    HW263416   4.480  13.718   9.715  0.1590 -0.0351 -0.2298
83813SOL     OW63417   5.604  13.713   0.041 -0.2800  0.2495 -0.6621
83813SOL    HW163418   5.679  13.693   0.097 -0.4859 -0.0747 -0.5011
83813SOL    HW263419   5.573  13.798   0.073 -2.6189 -1.4960  2.1888
83814SOL     OW63420  11.601   1.594  12.555  0.0253  0.0874  0.0172
83814SOL    HW163421  11.628   1.599  12.463 -0.9565  0.2399 -0.2756
83814SOL    HW263422  11.570   1.505  12.567  0.0554  0.0969  0.1773
83815SOL     OW63423   2.242   7.668   4.314  0.1755  0.1020  0.0662
83815SOL    HW163424   2.282   7.732   4.373 -1.0851  0.5547  0.4681
83815SOL    HW263425   2.312   7.607   4.293  1.0331  0.8014  0.8292
83816SOL     OW63426  13.680  13.400   5.637  0.9076  0.1155  0.4783
83816SOL    HW163427  13.658  13.329   5.576  0.7727  0.3695  0.2263
83816SOL    HW263428  13.599  13.418   5.684  0.7958  0.4745  0.1525
83817SOL     OW63429  12.233   0.716  11.283  0.2133  0.7726  0.8424
83817SOL    HW163430  12.214   0.766  11.362 -2.0148 -0.1083  0.9527
83817SOL    HW263431  12.192   0.631  11.298 -0.6163  0.7090 -1.3682
83818SOL     OW63432   2.423   2.328   8.395 -0.1366  0.3519  0.2663
83818SOL    HW163433   2.510   2.364   8.415  0.3032 -1.0782  1.0314
83818SOL    HW263434   2.397   2.373   8.315  1.3844  0.6964 -0.0737
83819SOL     OW63435   2.109   2.976   2.745  0.5413 -0.0843  0.2675
83819SOL    HW163436   2.034   2.993   2.687  0.3657  0.5799  0.6781
83819SOL    HW263437   2.071   2.974   2.833  0.8503 -0.8074  0.3923
83820SOL     OW63438  11.671  12.118   5.493  0.0792  0.1971 -0.1228
83820SOL    HW163439  11.586  12.137   5.533  0.3580 -1.6539  1.4530
83820SOL    HW263440  11.660  12.031   5.455  0.9855  0.3806 -0.8304
83821SOL     OW63441  11.134  13.621   7.605 -0.0835  0.5423 -0.4336
83821SOL    HW163442  11.145  13.665   7.521 -1.3526  1.5900 -0.0874
83821SOL    HW263443  11.190  13.670   7.665 -0.6678  1.0112 -0.2701
83822SOL     OW63444  11.879   5.386   2.072  0.2628 -0.0869 -0.8546
83822SOL    HW163445  11.851   5.300   2.041  1.2513 -1.2972  1.3226
83822SOL    HW263446  11.896   5.436   1.992 -0.5284 -1.8395 -2.1916
83823SOL     OW63447   1.457  13.415   9.641 -0.3657  0.1612 -0.1695
83823SOL    HW163448   1.544  13.375   9.641  1.0890  2.9213  2.3704
83823SOL    HW263449   1.421  13.394   9.727 -2.1248 -0.5987 -1.0409
83824SOL     OW63450   1.018   6.177  13.332 -0.0364  0.1289  0.1166
83824SOL    HW163451   0.990   6.200  13.420 -0.0207  0.6075  0.0037
83824SOL    HW263452   1.077   6.103  13.343  4.2365  3.3228  1.1083
83825SOL     OW63453   8.392   2.745   9.824 -0.0381  0.2716  0.5872
83825SOL    HW163454   8.419   2.671   9.770  1.0766  0.9747  0.1431
83825SOL    HW263455   8.417   2.720   9.913  1.5064  0.5910  0.2840
83826SOL     OW63456   3.808   0.901   2.326 -0.2982 -0.1628 -0.4124
83826SOL    HW163457   3.716   0.890   2.302  0.1571 -0.2621 -2.2177
83826SOL    HW263458   3.854   0.911   2.243  1.0521  2.1871  0.5317
83827SOL     OW63459   8.907  13.104  13.996 -0.4160 -0.5423  0.2740
83827SOL    HW163460   8.980  13.134  14.049  0.5876  0.1273 -1.3962
83827SOL    HW263461   8.878  13.182  13.948 -1.1997 -1.1342 -0.2537
83828SOL     OW63462   0.279  10.476   5.674 -0.6785 -1.0890 -0.0751
83828SOL    HW163463   0.348  10.507   5.734 -1.1703  0.3148 -0.1986
83828SOL    HW263464   0.314  10.495   5.587  0.3165 -3.7151 -0.3346
83829SOL     OW63465   1.083   3.995   6.632 -0.2124  0.3372 -0.0288
83829SOL    HW163466   0.993   3.987   6.665 -1.0984 -0.1369 -2.3310
83829SOL    HW263467   1.087   3.932   6.560  2.2979 -0.3323  0.6047
83830SOL     OW63468   3.272  10.806   7.581  0.2541  0.3834  0.1051
83830SOL    HW163469   3.233  10.838   7.663  2.7300  1.2327  1.0411
83830SOL    HW263470   3.238  10.866   7.514 -1.8408 -0.3436  0.4332
83831SOL     OW63471  13.904   5.697   2.785  0.0235 -0.3356  0.1961
83831SOL    HW163472  13.830   5.756   2.771  1.1611  1.1103 -0.0405
83831SOL    HW263473  13.866   5.619   2.823 -1.4955  0.7561  1.0322
83832SOL     OW63474   2.468   1.853  12.055 -0.3102 -0.0838  0.4620
83832SOL    HW163475   2.562   1.834  12.052 -0.0648  1.0522  0.3423
83832SOL    HW263476   2.461   1.927  12.115 -0.9990  0.5128 -0.3206
83833SOL     OW63477   4.114   1.500   0.834  0.7301  0.3868 -0.1223
83833SOL    HW163478   4.157   1.424   0.794  0.9580 -0.1115  1.0117
83833SOL    HW263479   4.182   1.537   0.891  0.8882  1.9479 -1.2688
83834SOL     OW63480   3.412  13.310   2.945 -0.0694 -0.1810 -0.4360
83834SOL    HW163481   3.440  13.387   2.896 -0.4532  0.8627  0.9082
83834SOL    HW263482   3.358  13.260   2.884 -1.1059  1.4192 -0.8812
83835SOL     OW63483  13.248   5.180  11.159 -0.4850  0.4301 -0.1463
83835SOL    HW163484  13.288   5.095  11.177  0.5451  0.9340  0.0030
83835SOL    HW263485  13.173   5.159  11.104 -0.8925 -0.6754  0.7813
83836SOL     OW63486  10.462  10.725   7.608  0.5133 -0.2848  0.3415
83836SOL    HW163487  10.405  10.781   7.555  0.6350 -0.3657  0.1223
83836SOL    HW263488  10.415  10.714   7.690  0.1523 -0.4569  0.1132
83837SOL     OW63489   6.448   9.878  11.797  0.0612  0.3635 -0.0705
83837SOL    HW163490   6.400   9.797  11.781 -0.7090  0.6055  0.9181
83837SOL    HW263491   6.384   9.936  11.839  0.8382  1.1775  0.0151
83838SOL     OW63492  11.330   1.971   7.115 -0.5823  0.5266 -0.1379
83838SOL    HW163493  11.256   1.923   7.153  0.0104 -0.6944 -0.4945
83838SOL    HW263494  11.310   2.063   7.133 -1.5048  0.1321  0.9800
83839SOL     OW63495  11.554   5.007  14.007  0.1404  0.1814  0.4615
83839SOL    HW163496  11.585   5.013  13.916  1.2032  0.5119  0.8324
83839SOL    HW263497  11.590   4.924  14.039  0.6089  0.5433  0.8852
83840SOL     OW63498  10.703  11.394   1.814 -0.0910 -0.5826 -0.6469
83840SOL    HW163499  10.706  11.365   1.723  1.5519  0.1123 -0.8515
83840SOL    HW263500  10.793  11.388   1.844 -0.1387  1.5721  0.1450
83841SOL     OW63501   2.422  12.409   6.935 -0.8183 -0.1603  0.3241
83841SOL    HW163502   2.347  12.462   6.961 -2.5829 -2.3293  0.0069
83841SOL    HW263503   2.473  12.398   7.015 -1.5707  0.2680  0.8710
83842SOL     OW63504  11.853   9.988   3.110  0.1498 -0.2163 -0.2739
83842SOL    HW163505  11.865  10.075   3.073 -1.5566 -0.0073 -0.4130
83842SOL    HW263506  11.775   9.955   3.068  0.7305 -1.8092 -0.1652
83843SOL     OW63507   2.100   5.349   4.519  0.6531 -0.0104 -0.1345
83843SOL    HW163508   2.071   5.431   4.479  0.5872 -0.2120 -0.5038
83843SOL    HW263509   2.194   5.344   4.500  0.8639  0.4534  0.7302
83844SOL     OW63510   2.611   4.445  12.632 -0.2289  0.5327  0.1691
83844SOL    HW163511   2.634   4.523  12.582 -0.6657 -0.9438 -2.5493
83844SOL    HW263512   2.695   4.412  12.665 -0.0097  1.9242  1.0978
83845SOL     OW63513   2.666   9.366   4.641  0.3587  0.1742 -0.3192
83845SOL    HW163514   2.608   9.337   4.571  2.2486 -0.9632 -1.5095
83845SOL    HW263515   2.665   9.295   4.705  0.7018 -0.0302 -0.5328
83846SOL     OW63516   8.962  10.965   4.748 -0.2960 -0.0884 -0.0882
83846SOL    HW163517   9.034  11.020   4.781 -1.1811  0.2612  1.3432
83846SOL    HW263518   8.909  11.025   4.696 -0.2843 -0.0085 -0.0107
83847SOL     OW63519   2.133   4.738  13.486  0.2724 -0.3063 -0.1150
83847SOL    HW163520   2.039   4.722  13.482 -0.1938  1.3741  2.1659
83847SOL    HW263521   2.157   4.761  13.396 -2.2386  2.7192 -0.1815
83848SOL     OW63522   4.376  13.287   9.131  0.0127  0.3294 -0.4997
83848SOL    HW163523   4.437  13.334   9.187 -1.1867 -0.7781  1.8862
83848SOL    HW263524   4.411  13.298   9.043  3.0236  0.6442  0.6139
83849SOL     OW63525   5.825  12.259   9.798  0.2705  0.8269  0.4731
83849SOL    HW163526   5.910  12.302   9.787  0.2147  0.3388 -3.9450
83849SOL    HW263527   5.761  12.324   9.770 -0.5103  0.2703  0.9455
83850SOL     OW63528   5.517   6.954   1.085 -0.5692  0.1644  0.5027
83850SOL    HW163529   5.503   7.043   1.118 -0.3883  0.3528  0.0878
83850SOL    HW263530   5.432   6.911   1.094 -0.6532  0.3722  0.7241
83851SOL     OW63531  11.468   1.678   9.614  0.4845 -0.4306 -0.8286
83851SOL    HW163532  11.374   1.682   9.632  0.4940 -0.2263 -0.8282
83851SOL    HW263533  11.477   1.613   9.544  0.4390 -1.1766 -0.1664
83852SOL     OW63534   7.356   0.055  13.641  0.5087  0.6364  0.1635
83852SOL    HW163535   7.385   0.022  13.556  0.1964  1.0059 -0.0870
83852SOL    HW263536   7.379  -0.015  13.702 -0.6804 -0.3155 -0.4472
83853SOL     OW63537  13.510   3.598   6.944  0.4734 -0.2101  0.5855
83853SOL    HW163538  13.533   3.642   6.862  1.3753 -1.1841  0.2912
83853SOL    HW263539  13.589   3.604   6.997  0.4035 -0.9504  0.7750
83854SOL     OW63540   5.024   2.573   0.802 -0.9348 -0.5296  0.5188
83854SOL    HW163541   5.037   2.604   0.712  0.4836 -1.5246  0.3494
83854SOL    HW263542   4.937   2.606   0.826 -0.9672  0.5102 -0.8876
83855SOL     OW63543   7.580   1.221   7.881 -0.4653  0.7360 -0.2911
83855SOL    HW163544   7.617   1.192   7.798 -0.6496 -2.1923  0.5675
83855SOL    HW263545   7.543   1.307   7.861  1.0542  0.9248 -2.7580
83856SOL     OW63546  11.196  10.760   5.086  0.4317 -0.0001  0.2468
83856SOL    HW163547  11.212  10.671   5.056  0.5622  0.5078 -1.2967
83856SOL    HW263548  11.105  10.759   5.117 -0.6741  0.0276 -2.7281
83857SOL     OW63549  11.850   2.799  11.721  0.2475  0.3159  0.5718
83857SOL    HW163550  11.908   2.775  11.793 -0.2607 -0.9095  0.6008
83857SOL    HW263551  11.810   2.882  11.748 -0.7000 -0.6231  2.1855
83858SOL     OW63552   9.699   9.688  12.726 -0.2674  0.3447 -0.0028
83858SOL    HW163553   9.638   9.623  12.693  0.5214 -0.9575  1.0189
83858SOL    HW263554   9.741   9.724  12.647  0.0875 -1.1907 -0.5400
83859SOL     OW63555   0.257   3.152   3.098  0.2096  0.0848 -0.0305
83859SOL    HW163556   0.260   3.247   3.108  1.4204  0.1105 -0.4775
83859SOL    HW263557   0.217   3.139   3.012 -2.1625  0.0863  0.9819
83860SOL     OW63558   9.243   1.525   0.430  0.3989  0.0368 -0.4350
83860SOL    HW163559   9.258   1.619   0.442 -0.1644  0.2554 -1.3474
83860SOL    HW263560   9.167   1.520   0.372 -0.0274 -0.9922  0.1800
83861SOL     OW63561   2.827  11.818   5.825 -0.2375 -0.2299 -0.0957
83861SOL    HW163562   2.743  11.858   5.801  0.2326  1.6950  1.1865
83861SOL    HW263563   2.892  11.877   5.787  0.5318 -1.1462 -0.2189
83862SOL     OW63564   1.669   0.968   9.971  0.0770 -0.1954  0.7982
83862SOL    HW163565   1.727   1.028   9.924  0.2258 -1.8921 -1.3240
83862SOL    HW263566   1.727   0.916  10.026  0.3705 -0.7497 -0.0317
83863SOL     OW63567  13.056   0.475   7.419 -0.1093 -0.0908 -0.1198
83863SOL    HW163568  12.983   0.533   7.443  1.0185  0.9570  0.9089
83863SOL    HW263569  13.114   0.478   7.495 -0.2318 -3.0095  0.1945
83864SOL     OW63570   9.776   0.464   2.918 -0.2222 -0.1789 -0.3840
83864SOL    HW163571   9.849   0.503   2.871  0.8758 -0.2638  1.1773
83864SOL    HW263572   9.701   0.519   2.897  0.7789  1.3083 -0.1730
83865SOL     OW63573   6.080   9.811   9.156 -0.1920 -0.2220  0.6385
83865SOL    HW163574   6.170   9.843   9.151  0.8312 -2.7311  1.7987
83865SOL    HW263575   6.037   9.871   9.218  0.1227  2.0290 -1.1866
83866SOL     OW63576   5.779  12.031  10.185 -0.0113 -0.4850  0.5633
83866SOL    HW163577   5.855  12.051  10.240 -0.7655  1.4871  0.9594
83866SOL    HW263578   5.810  12.045  10.096  0.5411 -1.3510  0.6051
83867SOL     OW63579   3.356   4.199  13.092 -0.1616 -0.3692 -0.5150
83867SOL    HW163580   3.413   4.149  13.033 -1.3292 -2.2607 -0.1328
83867SOL    HW263581   3.364   4.155  13.176 -0.3416  0.8477  0.1637
83868SOL     OW63582   7.382   2.348  13.397 -0.4484 -0.4080 -0.0237
83868SOL    HW163583   7.385   2.392  13.482 -1.4997 -0.0718 -0.1443
83868SOL    HW263584   7.368   2.255  13.418 -2.5876 -0.0995  0.1769
83869SOL     OW63585   1.757   0.092   8.710  0.1293  0.2140  0.5047
83869SOL    HW163586   1.785   0.001   8.723  0.4026 -0.0682 -1.7097
83869SOL    HW263587   1.837   0.140   8.689 -0.2610  0.5299 -0.3383
83870SOL     OW63588   1.366  11.078   4.322  0.1373  0.0902  0.1224
83870SOL    HW163589   1.276  11.073   4.289  0.3853 -1.1874 -0.4260
83870SOL    HW263590   1.360  11.134   4.399 -1.3178 -0.7298  0.6542
83871SOL     OW63591  10.439   5.399   7.177 -0.3296 -0.0651  0.0831
83871SOL    HW163592  10.512   5.457   7.198 -0.6022 -0.2419  1.6062
83871SOL    HW263593  10.409   5.366   7.262 -0.8772 -1.5817 -0.6544
83872SOL     OW63594  11.571   3.530  11.566 -0.5047 -0.5052  0.4165
83872SOL    HW163595  11.532   3.577  11.492  1.1879  2.4880  1.2520
83872SOL    HW263596  11.532   3.569  11.643 -0.6608 -2.0978  1.1895
83873SOL     OW63597   0.414   1.162   4.662 -0.1602 -0.2816 -0.2713
83873SOL    HW163598   0.375   1.229   4.718 -1.9242 -0.7733 -0.8175
83873SOL    HW263599   0.431   1.088   4.721 -0.3759 -0.1740 -0.0747
83874SOL     OW63600   2.289   5.218   5.164 -0.0517 -0.0812 -0.2295
83874SOL    HW163601   2.203   5.208   5.123 -0.1041  0.5360 -0.2860
83874SOL    HW263602   2.329   5.131   5.159 -0.0960 -0.0437 -1.5133
83875SOL     OW63603   3.246  13.786   5.845  0.6431 -0.6218 -0.1194
83875SOL    HW163604   3.305  13.730   5.795  1.3920  1.1265 -1.3003
83875SOL    HW263605   3.221  13.733   5.921  2.1667 -2.1285 -0.6019
83876SOL     OW63606  10.425   9.090  12.490 -0.4464 -0.8105  0.2681
83876SOL    HW163607  10.517   9.093  12.515 -0.2978 -0.1175 -0.3014
83876SOL    HW263608  10.389   9.174  12.522 -0.4506 -0.2928 -1.0262
83877SOL     OW63609   3.017  13.232  13.909 -0.2586  0.8456 -0.2159
83877SOL    HW163610   3.032  13.138  13.896  2.2511  1.1732 -0.2051
83877SOL    HW263611   2.948  13.254  13.847  0.9974 -0.5179 -2.2222
83878SOL     OW63612   5.981   0.496   2.323 -0.0533  0.1323 -0.2393
83878SOL    HW163613   5.955   0.488   2.232 -1.1516 -0.3292  0.1045
83878SOL    HW263614   6.077   0.495   2.320 -0.0721  0.2311 -1.3896
83879SOL     OW63615  12.007   1.178  11.029 -0.6966  0.5757  0.1189
83879SOL    HW163616  11.975   1.087  11.023 -0.0848  0.3699 -0.1014
83879SOL    HW263617  11.963   1.213  11.107 -1.0607  0.1383  0.1183
83880SOL     OW63618  14.003   5.312   8.202 -0.0115 -0.1528  0.1598
83880SOL    HW163619  14.008   5.217   8.195 -1.8453 -0.1796 -2.0588
83880SOL    HW263620  14.089   5.343   8.176  0.3303 -1.1947  0.0048
83881SOL     OW63621   9.597   7.709   7.984  0.3359  0.7559  0.4064
83881SOL    HW163622   9.618   7.730   7.893  0.4474 -0.1267  0.2132
83881SOL    HW263623   9.639   7.624   7.999  0.8617  1.1847  1.4789
83882SOL     OW63624   6.725   7.582   9.063  0.0152 -0.8205 -0.0775
83882SOL    HW163625   6.699   7.512   9.003  0.3711 -2.4374  1.5737
83882SOL    HW263626   6.677   7.563   9.144  0.6999  0.4348  0.6558
83883SOL     OW63627   3.370   7.410   0.177  0.4629 -0.1317  0.1982
83883SOL    HW163628   3.387   7.444   0.264 -0.3283 -1.4083  0.8786
83883SOL    HW263629   3.439   7.448   0.123 -0.3271  2.4848  0.8676
83884SOL     OW63630   0.032   8.350  13.694 -0.5098  0.2277 -0.0504
83884SOL    HW163631  -0.054   8.368  13.732 -0.2538 -1.9330  1.8031
83884SOL    HW263632   0.094   8.396  13.752 -0.3680  2.0290 -1.5536
83885SOL     OW63633   1.936  11.914   9.320  0.1074 -0.4300 -0.0923
83885SOL    HW163634   1.842  11.906   9.307 -0.1479  1.1541  0.4700
83885SOL    HW263635   1.956  12.004   9.293  1.4877 -0.7750 -0.3117
83886SOL     OW63636   4.539   0.460  11.094 -0.2991  0.1989 -0.5498
83886SOL    HW163637   4.475   0.417  11.037 -1.4806  1.4232 -0.2020
83886SOL    HW263638   4.528   0.553  11.077 -0.3465  0.5749  1.2952
83887SOL     OW63639   4.383  10.346  10.059  0.4112  0.3211 -0.5456
83887SOL    HW163640   4.396  10.307  10.146 -0.4140  1.0834 -0.0693
83887SOL    HW263641   4.412  10.278   9.999 -2.2263 -1.6468  0.2086
83888SOL     OW63642  10.396   2.143  11.227  0.1992 -0.1428  0.2072
83888SOL    HW163643  10.367   2.229  11.259 -2.4298 -1.7247  2.5747
83888SOL    HW263644  10.349   2.130  11.145 -0.1147  0.2798  0.3212
83889SOL     OW63645   9.954  11.001   1.837 -0.3796  0.5271  0.2955
83889SOL    HW163646   9.886  10.966   1.778 -0.0312  0.1292  0.1265
83889SOL    HW263647   9.972  11.089   1.803 -1.1194  0.8068  0.6031
83890SOL     OW63648  13.295   8.941  12.794  0.1394  0.1404  0.3234
83890SOL    HW163649  13.333   9.011  12.848 -0.4735  0.2013  0.6859
83890SOL    HW263650  13.349   8.940  12.715  0.6477  0.4891  0.6572
83891SOL     OW63651   4.571  12.382   0.929  0.3926 -0.0958 -0.2377
83891SOL    HW163652   4.654  12.369   0.975 -0.5719 -0.2155  1.5601
83891SOL    HW263653   4.540  12.466   0.960 -1.0347 -0.8923  0.5836
83892SOL     OW63654   6.029   3.959   9.570  0.3311  0.0886  0.0203
83892SOL    HW163655   5.986   4.025   9.624  0.5077  0.8835 -0.7797
83892SOL    HW263656   5.993   3.972   9.482  0.4578 -0.8057 -0.1758
83893SOL     OW63657  10.456   4.656   6.060  0.1783  0.2932 -0.1211
83893SOL    HW163658  10.480   4.715   6.131  1.9899 -1.3056  0.6803
83893SOL    HW263659  10.361   4.644   6.070  0.1830  1.1391  1.1729
83894SOL     OW63660  12.276   6.312   8.978  0.0303  0.4837  0.3707
83894SOL    HW163661  12.319   6.301   8.893 -0.7956  2.9819 -0.4742
83894SOL    HW263662  12.183   6.307   8.958 -0.1602 -0.1670  1.3718
83895SOL     OW63663   3.427   9.487   2.228  0.6322 -0.0292  0.1081
83895SOL    HW163664   3.522   9.489   2.245  1.3621  4.3330 -2.7645
83895SOL    HW263665   3.417   9.429   2.153  0.8701 -1.1174  0.9007
83896SOL     OW63666  11.058  11.765   0.821 -0.3014 -0.0280  0.2224
83896SOL    HW163667  11.122  11.811   0.875  0.1569 -0.1316 -0.2176
83896SOL    HW263668  11.108  11.692   0.782  0.0499  1.3960 -2.2378
83897SOL     OW63669   8.351  13.123   4.445  0.0212 -0.4659  0.0136
83897SOL    HW163670   8.360  13.033   4.414 -0.2659 -1.1670  1.8336
83897SOL    HW263671   8.435  13.142   4.487 -0.0172  0.0336 -0.1239
83898SOL     OW63672   5.710   2.391   9.907  0.0545  0.1073  0.3230
83898SOL    HW163673   5.645   2.389   9.837 -1.0442  0.5152  1.3007
83898SOL    HW263674   5.735   2.299   9.919 -1.4314 -0.2504  0.8974
83899SOL     OW63675  13.091   3.945   6.651  0.5944 -0.3347 -0.2644
83899SOL    HW163676  13.184   3.922   6.647  0.1300 -2.6425  0.5031
83899SOL    HW263677  13.053   3.879   6.709 -1.2753  1.5162  0.7318
83900SOL     OW63678   4.248   4.989   3.781 -0.4898 -0.6425  0.4412
83900SOL    HW163679   4.281   4.947   3.860  0.3933 -1.0834 -0.1569
83900SOL    HW263680   4.210   5.072   3.812 -0.6871 -1.0777  1.3919
83901SOL     OW63681   5.406   6.590   2.744 -0.1172  0.5897  0.4956
83901SOL    HW163682   5.332   6.622   2.795 -2.6919  0.1827 -2.6593
83901SOL    HW263683   5.370   6.520   2.690  2.7097  0.0601 -0.9182
83902SOL     OW63684   9.508   7.463   3.832  0.3466 -0.0783  0.3137
83902SOL    HW163685   9.444   7.469   3.761  0.4879 -1.8778  0.0023
83902SOL    HW263686   9.588   7.500   3.795 -0.1403  0.9560  0.2652
83903SOL     OW63687   3.871   4.679  10.287  0.1228 -0.0100  0.0812
83903SOL    HW163688   3.871   4.585  10.302 -0.8148  0.1095  0.9412
83903SOL    HW263689   3.842   4.717  10.371 -0.3052  0.9884 -0.4958
83904SOL     OW63690   0.882  12.119  13.386 -0.4602 -0.2356  0.2744
83904SOL    HW163691   0.821  12.083  13.321 -0.1313 -1.4773  0.6218
83904SOL    HW263692   0.877  12.058  13.459 -0.3113  0.7824  1.1480
83905SOL     OW63693   8.938   1.538   6.774  0.0150  0.0352  0.1527
83905SOL    HW163694   8.875   1.575   6.835 -0.4810 -0.3159 -0.1403
83905SOL    HW263695   8.969   1.613   6.722  0.1898  0.2782  0.6053
83906SOL     OW63696  10.176   3.110   4.584  0.4171 -0.2215 -0.1648
83906SOL    HW163697  10.132   3.059   4.652 -0.3826 -1.2011 -1.3882
83906SOL    HW263698  10.258   3.139   4.626  1.0547 -2.7369  0.5040
83907SOL     OW63699   4.536   1.289   8.759 -0.6357 -0.6276 -0.0591
83907SOL    HW163700   4.625   1.256   8.752 -1.1986 -1.9731 -1.6535
83907SOL    HW263701   4.546   1.383   8.775  1.0700 -0.5822 -1.1501
83908SOL     OW63702  10.044   1.366  12.514 -0.6357 -0.0794  0.0074
83908SOL    HW163703  10.088   1.421  12.578  0.0557 -0.7800  0.1490
83908SOL    HW263704  10.011   1.427  12.448 -2.7834  0.8576  1.7995
83909SOL     OW63705  11.864   6.325   9.090  0.9796  0.2177  0.1395
83909SOL    HW163706  11.829   6.397   9.037 -0.5575  0.1596  1.0087
83909SOL    HW263707  11.856   6.355   9.180 -2.7208 -2.1156  0.8027
83910SOL     OW63708  12.809   7.115   5.184  0.2347  0.0465  0.4726
83910SOL    HW163709  12.901   7.092   5.192  0.1178 -0.4030  0.5185
83910SOL    HW263710  12.764   7.032   5.167 -0.0072  0.4161 -0.8728
83911SOL     OW63711  11.653  10.375   6.395  0.3616  0.4816 -0.0227
83911SOL    HW163712  11.581  10.354   6.336 -1.4896  1.5737  1.7470
83911SOL    HW263713  11.661  10.299   6.453  1.3156 -0.0344 -0.7882
83912SOL     OW63714  12.544  10.864  13.271  0.5539  0.0629 -0.3589
83912SOL    HW163715  12.567  10.772  13.260 -1.2012 -0.3908 -0.5147
83912SOL    HW263716  12.479  10.881  13.203  1.6088  1.7292 -1.0089
83913SOL     OW63717   3.449   5.379   1.509 -0.1284  0.4881  0.2682
83913SOL    HW163718   3.425   5.307   1.452 -0.3158  0.6022  0.2028
83913SOL    HW263719   3.413   5.457   1.467  1.1323  0.7805 -0.3066
83914SOL     OW63720   3.236   9.232  11.136 -0.2508 -0.2457  0.1948
83914SOL    HW163721   3.260   9.285  11.212 -0.1989  0.2985 -0.1973
83914SOL    HW263722   3.146   9.256  11.117 -1.4678 -2.8279  2.1151
83915SOL     OW63723  10.070  10.088   0.141 -0.4010  0.6162  0.8542
83915SOL    HW163724  10.111  10.174   0.134 -1.4020  1.1783  1.7403
83915SOL    HW263725  10.005  10.097   0.210 -1.5200 -0.4640 -0.0182
83916SOL     OW63726   8.206   8.800   7.122 -0.4668  0.3209 -0.6878
83916SOL    HW163727   8.130   8.746   7.139 -1.0497  1.0525 -0.9255
83916SOL    HW263728   8.265   8.744   7.071  0.0274 -0.9014  1.1339
83917SOL     OW63729  10.661   6.618   2.994 -0.4870 -0.3298  0.3657
83917SOL    HW163730  10.592   6.554   3.012 -1.3945  0.7235  0.7144
83917SOL    HW263731  10.676   6.662   3.078 -0.5755  0.5841 -0.0825
83918SOL     OW63732  12.429   6.057   3.880 -0.2333  0.2418 -0.0604
83918SOL    HW163733  12.481   6.023   3.953  0.0359 -1.3345 -0.9460
83918SOL    HW263734  12.364   5.988   3.863 -1.3928  1.3339 -0.2251
83919SOL     OW63735   3.882   7.177  12.630  0.4529 -0.2366  0.0371
83919SOL    HW163736   3.825   7.235  12.682 -0.3140 -1.0434  0.1215
83919SOL    HW263737   3.928   7.124  12.695 -0.1377 -0.9042 -0.0762
83920SOL     OW63738  13.929  10.415   6.409  0.2910  0.2049  0.2906
83920SOL    HW163739  13.887  10.348   6.463 -1.7308  1.2159  0.0892
83920SOL    HW263740  13.878  10.494   6.426  1.2473  1.1672 -1.1154
83921SOL     OW63741   5.029   6.769   5.927  0.1269  0.5553 -0.3407
83921SOL    HW163742   4.981   6.700   5.881 -0.9901  0.7650  0.4464
83921SOL    HW263743   5.095   6.722   5.978 -0.3721  0.0919 -0.1073
83922SOL     OW63744  12.021   7.602   8.652  0.3399 -0.1315 -0.5755
83922SOL    HW163745  12.034   7.633   8.742  1.2801 -0.3217 -0.6353
83922SOL    HW263746  11.926   7.591   8.644 -0.2233  3.4639 -0.7867
83923SOL     OW63747  12.380   9.948   8.442 -0.5031 -0.0432 -0.0107
83923SOL    HW163748  12.467   9.928   8.479  0.4795  1.6099 -1.2808
83923SOL    HW263749  12.373  10.044   8.449 -2.4632 -0.1858  0.5022
83924SOL     OW63750   1.959   4.515   2.602 -0.1207 -0.2412  0.1227
83924SOL    HW163751   1.937   4.428   2.567 -2.1454 -0.0381  0.7403
83924SOL    HW263752   1.991   4.564   2.526 -1.2203 -0.8287 -0.7589
83925SOL     OW63753   5.615   2.438   9.544 -0.3521  0.3989 -0.3380
83925SOL    HW163754   5.568   2.494   9.483  0.1725  1.3159  0.0777
83925SOL    HW263755   5.559   2.434   9.621  0.5167  2.0754  0.4361
83926SOL     OW63756   2.454   1.208   4.089 -0.0072 -0.0676  0.0239
83926SOL    HW163757   2.424   1.128   4.132  1.2604 -0.1203  0.8355
83926SOL    HW263758   2.420   1.279   4.144  0.9574 -0.1177  0.7011
83927SOL     OW63759   0.197  13.308   4.621 -0.0888  0.4624  0.3166
83927SOL    HW163760   0.132  13.250   4.660 -0.6918  0.9545  0.0500
83927SOL    HW263761   0.232  13.358   4.695  2.4176 -2.0552  1.0471
83928SOL     OW63762  13.558   8.982   5.312 -0.0613 -0.2328 -0.0221
83928SOL    HW163763  13.516   9.049   5.365 -0.0893 -0.7098  0.5627
83928SOL    HW263764  13.487   8.940   5.264 -0.2688 -0.9959  0.9179
83929SOL     OW63765   2.077   6.828   3.942  0.4013 -0.4341  0.1001
83929SOL    HW163766   2.064   6.896   3.875  2.6411 -0.2868 -0.2821
83929SOL    HW263767   2.140   6.867   4.003  1.8407 -2.1791 -0.1868
83930SOL     OW63768  11.917  11.514   6.358  0.2015 -0.0976 -0.1774
83930SOL    HW163769  11.978  11.446   6.385  0.2188  0.2694  0.7728
83930SOL    HW263770  11.959  11.557   6.284  2.0117  1.3288  1.5636
83931SOL     OW63771  11.642   2.883   9.778 -0.1186  0.1680 -0.1098
83931SOL    HW163772  11.617   2.851   9.692 -1.9962  0.5372  0.2639
83931SOL    HW263773  11.727   2.841   9.796  0.3279  0.1245 -2.1291
83932SOL     OW63774   6.008   7.457  10.647 -1.3449  0.1293 -0.0112
83932SOL    HW163775   5.933   7.463  10.588 -0.4950  0.7303 -1.0830
83932SOL    HW263776   5.976   7.487  10.731 -2.1012  1.2181 -0.6659
83933SOL     OW63777  10.937  11.990   1.137  0.1283 -0.3460 -0.2414
83933SOL    HW163778  10.889  11.955   1.212  0.6058  0.4106  0.4399
83933SOL    HW263779  10.924  12.085   1.143 -1.3023 -0.3379 -2.1383
83934SOL     OW63780   3.173   0.307   0.797 -0.2162 -0.6054  0.1621
83934SOL    HW163781   3.192   0.390   0.752 -0.2948 -0.5201  0.2854
83934SOL    HW263782   3.078   0.298   0.793 -0.2216 -0.6091  0.2903
83935SOL     OW63783   5.910   7.771  10.090 -0.4836 -0.1064 -0.0911
83935SOL    HW163784   5.946   7.714  10.158 -2.7806 -0.2320  1.1094
83935SOL    HW263785   5.852   7.831  10.137 -0.2727  1.4222 -1.6758
83936SOL     OW63786   3.225  10.142   7.861 -0.7325 -0.3438  0.3297
83936SOL    HW163787   3.151  10.202   7.868  0.1362  0.7494  0.5716
83936SOL    HW263788   3.200  10.081   7.792 -0.9151  1.4237 -1.2665
83937SOL     OW63789   2.610   2.166   2.250 -0.0038 -0.1425  1.1880
83937SOL    HW163790   2.580   2.133   2.334 -1.2351  0.8766  1.1690
83937SOL    HW263791   2.531   2.191   2.203  0.7223  0.2760  0.1280
83938SOL     OW63792   2.592   1.046  12.198 -0.1176  0.2986  0.4797
83938SOL    HW163793   2.677   1.064  12.158 -0.9365 -1.6696 -2.4629
83938SOL    HW263794   2.528   1.063  12.128 -1.9058 -1.0068  1.6959
83939SOL     OW63795   2.203   7.292   9.037  0.3456  0.1094 -0.1839
83939SOL    HW163796   2.154   7.355   9.090  0.3086 -0.4323  0.4503
83939SOL    HW263797   2.247   7.344   8.971 -0.1703  0.7318 -0.0458
83940SOL     OW63798   5.408   3.306   3.478  0.2361 -0.1846 -0.1624
83940SOL    HW163799   5.320   3.283   3.507 -0.4806  2.0023 -0.4883
83940SOL    HW263800   5.400   3.392   3.439  2.8936  1.1116  1.7873
83941SOL     OW63801   9.690   9.204  11.386 -0.1454  0.3579 -0.4184
83941SOL    HW163802   9.723   9.116  11.366 -1.4800 -0.6340  1.4853
83941SOL    HW263803   9.733   9.228  11.468 -0.6857  0.9944 -0.3112
83942SOL     OW63804   8.245   1.184   8.342  0.4082 -0.1532  0.1874
83942SOL    HW163805   8.209   1.178   8.430 -0.2347  1.6719  0.0961
83942SOL    HW263806   8.318   1.245   8.350 -0.0328  0.5100 -0.6134
83943SOL     OW63807   5.323   5.257   6.632  0.9192 -0.0695  0.3273
83943SOL    HW163808   5.402   5.210   6.606 -0.1265 -1.4269 -0.5269
83943SOL    HW263809   5.290   5.295   6.551  0.1262 -0.4051  0.4868
83944SOL     OW63810   8.910   0.960   1.386  0.6651  0.0344 -0.2774
83944SOL    HW163811   8.856   0.977   1.308  0.4297  0.3097 -0.0563
83944SOL    HW263812   8.943   1.047   1.411  0.4963 -0.0114  0.1061
83945SOL     OW63813   3.516   2.343   6.573 -0.4940 -0.4187  0.6826
83945SOL    HW163814   3.443   2.348   6.635 -1.2751 -1.3349 -0.1388
83945SOL    HW263815   3.593   2.332   6.628 -1.1557 -1.0495  1.5114
83946SOL     OW63816   7.473   0.937  11.265  0.2981 -0.2436 -0.6026
83946SOL    HW163817   7.511   0.883  11.196  0.4003 -1.6800  0.5221
83946SOL    HW263818   7.412   0.879  11.311 -1.1090  1.1880 -0.5594
83947SOL     OW63819  13.583   3.903   5.978 -0.1464 -0.5368  0.5470
83947SOL    HW163820  13.545   3.918   6.064 -2.6156 -0.9176 -0.3967
83947SOL    HW263821  13.575   3.808   5.964  0.0947 -0.4610 -0.1585
83948SOL     OW63822  13.252   6.108  10.923  0.1055  0.5435 -0.1261
83948SOL    HW163823  13.164   6.077  10.942 -0.1393  1.4313  0.1914
83948SOL    HW263824  13.241   6.171  10.852  0.6201 -0.1380 -0.8463
83949SOL     OW63825   6.848   5.087  12.663  0.1232 -0.1638 -0.5134
83949SOL    HW163826   6.776   5.104  12.602  0.1844  0.1701 -0.4935
83949SOL    HW263827   6.875   5.173  12.692 -1.7859 -0.3647  2.1959
83950SOL     OW63828   6.308   2.022   5.195  0.1369 -0.2789  0.0435
83950SOL    HW163829   6.373   2.088   5.171 -1.1742  0.8913 -0.4004
83950SOL    HW263830   6.344   1.940   5.161 -0.1987  0.8344 -3.3193
83951SOL     OW63831  12.906   8.561   5.895 -0.2597  0.8493  0.5379
83951SOL    HW163832  12.924   8.650   5.866 -2.1184  1.4115  1.0081
83951SOL    HW263833  12.828   8.568   5.950 -0.1281 -0.9958  1.0468
83952SOL     OW63834  11.087   9.264   0.489  0.2206  0.5751  0.1074
83952SOL    HW163835  10.995   9.265   0.462  0.3706  0.7446 -0.4100
83952SOL    HW263836  11.127   9.337   0.440  0.6416  0.4627  0.2813
83953SOL     OW63837   9.433   0.318  13.420 -0.5525 -0.0282  0.0664
83953SOL    HW163838   9.376   0.274  13.483  1.5972 -0.5995  1.7431
83953SOL    HW263839   9.468   0.246  13.367  3.3243 -0.7418  3.1022
83954SOL     OW63840   1.710   1.606   9.500 -0.2193 -0.1128  0.1146
83954SOL    HW163841   1.746   1.576   9.417 -0.9907  1.7471 -0.9645
83954SOL    HW263842   1.655   1.534   9.530 -0.0150 -0.7791 -1.0533
83955SOL     OW63843   6.819   1.988   6.741  0.2711  0.2454  0.3370
83955SOL    HW163844   6.897   1.974   6.687  0.2049 -2.0584  0.7556
83955SOL    HW263845   6.853   2.022   6.824  0.7784 -0.1353  0.2881
83956SOL     OW63846   5.980  11.757   5.069  0.1505  0.0154 -0.4635
83956SOL    HW163847   5.886  11.763   5.081  0.1281  0.8942 -1.0086
83956SOL    HW263848   6.015  11.838   5.108  0.8376 -0.9870  1.1259
83957SOL     OW63849   1.138   9.379   8.615 -0.7396 -0.2494  0.7194
83957SOL    HW163850   1.051   9.399   8.649 -1.1271 -1.8754  0.7492
83957SOL    HW263851   1.140   9.284   8.607  0.9606 -0.2306  0.4923
83958SOL     OW63852   7.174   5.906   2.504  0.1282 -0.1617 -0.0640
83958SOL    HW163853   7.246   5.915   2.566  0.9814  1.4750 -1.2239
83958SOL    HW263854   7.212   5.860   2.430  0.0149  0.7505 -0.7036
83959SOL     OW63855   4.896   5.135  14.045  0.0335  0.1785  0.0904
83959SOL    HW163856   4.895   5.108  13.953  1.3539 -0.1701  0.1705
83959SOL    HW263857   4.862   5.059  14.093  1.1017 -0.3337  0.0547
83960SOL     OW63858   7.360  13.798   6.626 -0.2763  0.3923  0.2194
83960SOL    HW163859   7.419  13.872   6.618  0.0750  0.1719  0.6654
83960SOL    HW263860   7.382  13.759   6.711 -1.9639  1.0861  1.0189
83961SOL     OW63861   6.044  10.470   6.779  0.3947  0.3014  0.3042
83961SOL    HW163862   6.119  10.411   6.786 -0.0494 -0.1719  1.2503
83961SOL    HW263863   6.010  10.476   6.868 -0.8891  0.2416 -0.1606
83962SOL     OW63864  12.972   6.348   1.857 -0.6309  0.2584  0.2614
83962SOL    HW163865  12.945   6.284   1.923 -2.0586  1.9713  1.4388
83962SOL    HW263866  12.906   6.342   1.788 -0.1335 -0.2866 -0.1801
83963SOL     OW63867   5.538   2.335   2.555 -0.1434  0.1436 -0.3375
83963SOL    HW163868   5.503   2.261   2.505 -1.8404  1.0865 -0.6071
83963SOL    HW263869   5.467   2.360   2.614  0.1232  2.0295 -0.7676
83964SOL     OW63870   2.119  10.416  13.235 -0.1803 -0.2677  0.1623
83964SOL    HW163871   2.123  10.462  13.151 -0.8351  1.0955  0.8473
83964SOL    HW263872   2.202  10.368  13.240 -0.4148 -0.9326 -1.5483
83965SOL     OW63873   6.914  12.937   1.682  0.0302  0.3595 -0.9385
83965SOL    HW163874   6.858  12.983   1.745  0.6292  0.4891 -0.4872
83965SOL    HW263875   6.990  12.910   1.734 -0.4705 -1.4760 -1.0903
83966SOL     OW63876  13.598   2.147   1.416 -0.1865  0.4564 -0.4249
83966SOL    HW163877  13.591   2.076   1.480  1.7974 -0.1474 -0.8206
83966SOL    HW263878  13.688   2.179   1.426 -0.7457  2.2825 -0.9369
83967SOL     OW63879   7.602   1.612   6.873  0.4055 -0.2344  0.2711
83967SOL    HW163880   7.605   1.595   6.967 -1.1637 -0.7323  0.2524
83967SOL    HW263881   7.626   1.705   6.865 -0.0068 -0.0414  1.2106
83968SOL     OW63882   0.767   8.369   5.530 -0.5001 -0.4912  0.8545
83968SOL    HW163883   0.764   8.300   5.464  1.3588  0.0021  0.1827
83968SOL    HW263884   0.853   8.410   5.517 -1.0878  1.1909  1.9940
83969SOL     OW63885  12.322  12.146  13.158 -0.4867  0.0530  0.1152
83969SOL    HW163886  12.390  12.116  13.098 -0.9209  0.0239 -0.3717
83969SOL    HW263887  12.370  12.184  13.232  0.0673  1.3958 -0.8962
83970SOL     OW63888   6.597   8.541   7.535  0.3185  0.3752  0.3028
83970SOL    HW163889   6.507   8.514   7.553  1.0158 -0.5798  2.8147
83970SOL    HW263890   6.600   8.633   7.563  0.0275  0.5394 -0.1978
83971SOL     OW63891   0.071   7.127   9.575  0.3672 -0.0798 -0.0375
83971SOL    HW163892   0.073   7.193   9.505  0.0908 -0.8824 -0.8199
83971SOL    HW263893   0.155   7.082   9.568  1.1152  1.0148  1.3440
83972SOL     OW63894   6.109   1.909   0.499  0.4329 -0.7234 -0.1670
83972SOL    HW163895   6.086   1.904   0.591  0.6668 -0.9961 -0.1222
83972SOL    HW263896   6.102   2.002   0.477 -0.1368 -0.7294 -0.0103
83973SOL     OW63897  13.563  12.293  11.095 -0.6159 -0.2843  0.8875
83973SOL    HW163898  13.483  12.252  11.128  0.2410 -2.3351  0.5907
83973SOL    HW263899  13.574  12.257  11.007  0.3080  0.4302  0.6968
83974SOL     OW63900   7.542   8.165  10.707 -0.1669 -0.3806  0.5903
83974SOL    HW163901   7.506   8.201  10.788 -1.2530 -2.0467  0.8933
83974SOL    HW263902   7.465   8.141  10.655  0.4641 -2.5786  0.5835
83975SOL     OW63903   0.695   9.969   7.893  0.1849  0.0639 -0.3296
83975SOL    HW163904   0.789   9.960   7.907  0.0695  0.7023  1.0305
83975SOL    HW263905   0.661   9.880   7.901  0.4246  0.0949  1.4751
83976SOL     OW63906   4.650   0.618   1.942 -0.0562  0.1828  0.1501
83976SOL    HW163907   4.613   0.636   2.028 -1.2887  0.3450 -0.3915
83976SOL    HW263908   4.610   0.683   1.884  0.4844 -0.1414 -0.6017
83977SOL     OW63909   7.457   0.339  13.948 -0.4761 -0.7150  0.1344
83977SOL    HW163910   7.440   0.321  14.041 -0.6401  0.3094  0.3130
83977SOL    HW263911   7.547   0.372  13.946 -0.3055 -1.1727 -0.1474
83978SOL     OW63912   4.393  12.266  11.235 -0.1079 -0.4644  0.6574
83978SOL    HW163913   4.425  12.256  11.146 -0.0191  2.1667  0.3288
83978SOL    HW263914   4.462  12.227  11.290  1.1873  0.3948 -0.2988
83979SOL     OW63915   6.205   8.034   6.317  0.4581 -0.0559 -0.0972
83979SOL    HW163916   6.216   7.944   6.348  1.3659  0.5838  1.5857
83979SOL    HW263917   6.244   8.088   6.386  1.9718  1.5261 -2.0661
83980SOL     OW63918   8.560  12.890   4.664  0.7095 -0.0633 -0.2020
83980SOL    HW163919   8.592  12.977   4.639 -1.6153  0.4944 -1.4864
83980SOL    HW263920   8.491  12.907   4.728 -0.7589 -0.8099 -1.5175
83981SOL     OW63921  11.679  10.585   7.791  0.1802 -0.5362 -0.2597
83981SOL    HW163922  11.767  10.553   7.773 -0.0774 -1.2912 -0.2484
83981SOL    HW263923  11.642  10.603   7.704  0.2211 -0.5647 -0.2832
83982SOL     OW63924  13.277  10.308   1.492 -0.2345 -0.0834 -0.1736
83982SOL    HW163925  13.345  10.332   1.429  0.6026  0.6707  0.9688
83982SOL    HW263926  13.273  10.213   1.489  1.1215 -0.1686 -0.0455
83983SOL     OW63927   7.204   5.737   4.766 -0.3433 -0.0071  0.4290
83983SOL    HW163928   7.131   5.724   4.706 -2.8649 -0.2083  3.2494
83983SOL    HW263929   7.278   5.694   4.724 -2.8118 -3.4753 -0.8737
83984SOL     OW63930  13.121   2.895   9.858  0.1286 -0.0633  0.2332
83984SOL    HW163931  13.049   2.906   9.919 -0.2321  2.3617 -0.5193
83984SOL    HW263932  13.125   2.801   9.842 -2.3054 -0.3519  0.9284
83985SOL     OW63933   4.428  13.245   7.388  0.6364  0.1187 -0.0987
83985SOL    HW163934   4.354  13.296   7.420  0.7419 -0.5706  1.3078
83985SOL    HW263935   4.498  13.261   7.452  1.9511  1.2504 -1.7106
83986SOL     OW63936   3.752  11.680   7.708  0.4620  0.7662 -0.1815
83986SOL    HW163937   3.701  11.691   7.788 -0.5518 -2.8160 -0.1476
83986SOL    HW263938   3.688  11.679   7.638  0.9684  0.4760 -0.6475
83987SOL     OW63939   1.122  10.697   6.859 -0.1138  0.1190  0.1797
83987SOL    HW163940   1.105  10.755   6.934  3.6882 -0.3537  1.6316
83987SOL    HW263941   1.130  10.610   6.897  0.4989 -0.3660 -0.9973
83988SOL     OW63942  12.181  11.927   5.653  0.1123  0.1144 -0.0664
83988SOL    HW163943  12.194  11.931   5.558 -0.2320 -1.3944 -0.1983
83988SOL    HW263944  12.178  12.019   5.680 -2.0905  0.6502 -1.8208
83989SOL     OW63945  12.612   8.819   9.714 -0.0554  0.2349 -0.0278
83989SOL    HW163946  12.548   8.795   9.647 -0.4961 -0.5029  0.6412
83989SOL    HW263947  12.696   8.792   9.677 -0.4675 -1.7838  0.4196
83990SOL     OW63948  12.484   6.969   3.893 -0.1259 -0.2908 -0.0868
83990SOL    HW163949  12.402   7.019   3.890 -0.5584 -0.9895 -0.1470
83990SOL    HW263950  12.459   6.882   3.863  0.2467 -1.0583  1.7231
83991SOL     OW63951   5.442   9.875   0.399 -0.6601 -0.0522 -0.2131
83991SOL    HW163952   5.386   9.833   0.465  0.4567  0.7905  1.3466
83991SOL    HW263953   5.462   9.961   0.436  0.9664 -0.0147 -1.0851
83992SOL     OW63954   1.986  12.865  12.730  0.1640 -0.1610  0.3155
83992SOL    HW163955   2.019  12.776  12.736 -0.7081 -0.5585 -0.6035
83992SOL    HW263956   2.062  12.920  12.749  0.4740 -1.0981  1.8689
83993SOL     OW63957  10.615  11.104  12.538 -0.3681  0.6969  0.0703
83993SOL    HW163958  10.617  11.021  12.587  1.8742  0.3239 -0.5635
83993SOL    HW263959  10.594  11.078  12.448  0.1359  0.8384 -0.0882
83994SOL     OW63960   7.457   6.532   8.405  0.4616 -0.0589  0.0693
83994SOL    HW163961   7.508   6.609   8.381 -0.3072  0.8028  1.1307
83994SOL    HW263962   7.516   6.458   8.389  2.1189  0.9028  1.3868
83995SOL     OW63963   9.135  12.091   7.961  0.0861 -0.4309 -0.7511
83995SOL    HW163964   9.062  12.088   8.024 -0.5419 -0.0258 -1.4412
83995SOL    HW263965   9.178  12.175   7.978  1.2139 -1.2209  0.5272
83996SOL     OW63966   5.566  11.466   0.248 -0.0319  0.0416 -0.3719
83996SOL    HW163967   5.473  11.446   0.255 -0.0353  0.3894  0.7278
83996SOL    HW263968   5.595  11.478   0.338  0.9934  0.3268 -0.7255
83997SOL     OW63969  13.858  10.434   1.638  0.1580 -0.1817 -0.4020
83997SOL    HW163970  13.811  10.374   1.695 -1.3831 -0.6758 -2.1008
83997SOL    HW263971  13.877  10.510   1.694 -1.9639 -0.3109  0.5822
83998SOL     OW63972  11.598   2.213   7.994  0.0985  0.1605 -0.4648
83998SOL    HW163973  11.549   2.173   7.923  1.8435 -3.3503  0.0808
83998SOL    HW263974  11.533   2.261   8.045 -2.5565 -2.9755 -0.6129
83999SOL     OW63975   6.367   6.642   5.475 -0.2945 -0.3155  0.4718
83999SOL    HW163976   6.377   6.600   5.389  2.4950  2.2283 -0.6139
83999SOL    HW263977   6.434   6.601   5.529 -2.8037 -2.7590  1.9738
84000SOL     OW63978   1.871  12.341   1.431 -0.4259  0.0528 -0.2419
84000SOL    HW163979   1.893  12.257   1.470 -2.1411  0.0501  0.8134
84000SOL    HW263980   1.827  12.389   1.501  0.7306  1.9545 -0.7370
84001SOL     OW63981  13.748   4.045   2.807  0.5083  1.4236  0.2717
84001SOL    HW163982  13.678   4.001   2.856 -0.8421  3.3340  0.1546
84001SOL    HW263983  13.760   3.992   2.729 -2.1494  1.9833 -0.6221
84002SOL     OW63984   4.430   3.398  11.615  0.0417  0.0372 -0.1748
84002SOL    HW163985   4.508   3.354  11.580 -0.3197 -1.7319  1.1092
84002SOL    HW263986   4.449   3.410  11.708 -0.9917  0.1178  0.0390
84003SOL     OW63987  11.071   0.502  10.371 -0.4758 -0.0470 -0.0271
84003SOL    HW163988  10.986   0.461  10.384 -0.9293  0.7663 -0.3267
84003SOL    HW263989  11.134   0.441  10.410 -1.3649  0.3148  2.0711
84004SOL     OW63990   7.015  13.775   6.681 -0.0788 -0.2423  0.2652
84004SOL    HW163991   7.090  13.799   6.626 -1.1537  1.6863 -0.4462
84004SOL    HW263992   7.023  13.680   6.692  1.7263 -0.2685 -0.8678
84005SOL     OW63993   9.542   0.868   3.343  0.1815  0.4141 -0.0827
84005SOL    HW163994   9.477   0.895   3.408  0.5488 -0.0270  0.4760
84005SOL    HW263995   9.509   0.902   3.261 -1.0718 -0.3082  0.0995
84006SOL     OW63996   7.713   0.612   3.819 -0.0571 -0.8370  0.1267
84006SOL    HW163997   7.730   0.609   3.913 -0.4546 -2.2154  0.1720
84006SOL    HW263998   7.782   0.560   3.779  0.5053  0.2898 -0.4373
84007SOL     OW63999  12.001   1.379  10.199  0.2244 -0.4310  0.5579
84007SOL    HW164000  11.944   1.319  10.245 -0.3874 -0.1401  0.1956
84007SOL    HW264001  12.056   1.418  10.267  1.0884 -1.8771  0.7146
84008SOL     OW64002   6.756  12.842   9.769 -0.6053  0.3741 -0.3539
84008SOL    HW164003   6.665  12.828   9.742 -0.9365 -1.0594  1.3095
84008SOL    HW264004   6.808  12.808   9.696 -1.4458 -1.1587 -0.2800
84009SOL     OW64005  13.610  11.200   7.986  0.0199  0.2471  0.5517
84009SOL    HW164006  13.605  11.148   7.906 -0.9925 -0.2520  0.9183
84009SOL    HW264007  13.526  11.245   7.990  0.1165  0.3778  1.2544
84010SOL     OW64008   2.736   9.967   0.893 -0.3828 -0.1752  0.2565
84010SOL    HW164009   2.662  10.015   0.857  0.4600  0.2778 -0.9429
84010SOL    HW264010   2.734   9.985   0.986 -1.1354  0.7265  0.0742
84011SOL     OW64011  11.779   5.091  10.873  0.1847 -0.3013 -0.3227
84011SOL    HW164012  11.858   5.132  10.907  1.0210  1.2247 -3.6386
84011SOL    HW264013  11.709   5.153  10.890  0.4672  0.1454 -0.7687
84012SOL     OW64014   0.877   6.082  12.563 -0.2660 -0.0567 -0.8721
84012SOL    HW164015   0.785   6.109  12.570 -0.6517 -1.6496  0.6955
84012SOL    HW264016   0.874   5.997  12.520  0.5466  0.1347 -1.3360
84013SOL     OW64017   6.677   6.415  11.775  1.2099 -0.1060  0.1018
84013SOL    HW164018   6.629   6.470  11.713  0.4035  0.2040  0.9676
84013SOL    HW264019   6.660   6.325  11.745 -0.3207 -0.0329  0.6385
84014SOL     OW64020   2.297   8.181   8.398 -1.1256 -0.4537  0.0456
84014SOL    HW164021   2.290   8.187   8.303  2.0023  1.2656 -0.1995
84014SOL    HW264022   2.388   8.154   8.414 -1.4731 -0.4115  2.5662
84015SOL     OW64023   1.212   5.131   0.873  0.2123 -0.1719  0.1893
84015SOL    HW164024   1.250   5.071   0.937  0.2171  1.0382  1.3733
84015SOL    HW264025   1.142   5.176   0.921 -1.2006 -0.7088 -1.2722
84016SOL     OW64026   5.282   9.244   2.109  0.1248  0.0338  0.0024
84016SOL    HW164027   5.237   9.167   2.074  0.1494  0.1515 -0.2847
84016SOL    HW264028   5.272   9.236   2.204  0.0007 -0.2473 -0.0337
84017SOL     OW64029   2.089   0.290   6.146 -0.3719 -0.0670  0.3912
84017SOL    HW164030   2.067   0.380   6.119 -0.9995 -0.9479 -2.4550
84017SOL    HW264031   2.011   0.258   6.190 -0.9157  0.1540 -0.3954
84018SOL     OW64032   2.583  12.709  10.350 -0.0219 -0.3360  0.2330
84018SOL    HW164033   2.622  12.628  10.382  0.1336 -1.0759 -1.7049
84018SOL    HW264034   2.597  12.707  10.255 -2.6352  0.5309 -0.2562
84019SOL     OW64035   6.071   7.139   5.719 -0.9845 -0.2376 -0.1931
84019SOL    HW164036   6.078   7.184   5.804 -0.9424  1.7060 -1.1593
84019SOL    HW264037   6.112   7.054   5.734 -1.1867 -0.0470  1.7966
84020SOL     OW64038  13.466   9.935  13.515  0.2186 -0.2394 -0.4671
84020SOL    HW164039  13.489  10.028  13.525 -1.7390  0.2504 -0.0377
84020SOL    HW264040  13.386   9.936  13.462  1.1994 -1.8258 -2.0386
84021SOL     OW64041   9.006   5.091   9.030 -0.1010  0.5427  0.8326
84021SOL    HW164042   8.985   5.040   9.108 -0.4073  0.2744  0.5754
84021SOL    HW264043   9.065   5.159   9.061  2.5076 -1.5146  0.7705
84022SOL     OW64044   3.428  11.530   5.378 -0.2648 -0.0482  0.1166
84022SOL    HW164045   3.369  11.548   5.451 -1.3158 -0.9372 -0.4856
84022SOL    HW264046   3.433  11.434   5.374 -0.1976 -0.0161 -0.9449
84023SOL     OW64047  12.820   5.501   7.857  0.4988  0.4056  0.0879
84023SOL    HW164048  12.875   5.427   7.832 -2.3920 -1.5139 -1.1477
84023SOL    HW264049  12.818   5.498   7.953  0.4724 -1.1409  0.0702
84024SOL     OW64050   6.089   7.979  13.696 -0.0263  0.3002 -0.5398
84024SOL    HW164051   6.080   8.068  13.730 -1.0541  0.7237 -1.8375
84024SOL    HW264052   6.166   7.982  13.641 -0.1166  0.4164 -0.6608
84025SOL     OW64053   0.414   9.736   2.938  0.2177 -0.3586 -0.4516
84025SOL    HW164054   0.387   9.819   2.898 -0.9104 -0.9515 -0.9919
84025SOL    HW264055   0.337   9.708   2.987  1.2243 -0.1797  1.2925
84026SOL     OW64056   2.143   2.091   4.079  0.0602 -0.2820  0.4852
84026SOL    HW164057   2.175   2.116   4.166  0.1007  2.1523 -0.1465
84026SOL    HW264058   2.211   2.123   4.019 -1.1188  0.3259 -0.5635
84027SOL     OW64059   0.518   4.864   7.382 -0.0233 -0.5181  0.2520
84027SOL    HW164060   0.543   4.813   7.459 -0.2102  0.1305  0.7538
84027SOL    HW264061   0.440   4.913   7.410  0.4513  0.4395 -0.0420
84028SOL     OW64062   9.346   2.789   1.714  0.0038 -0.4934  0.1337
84028SOL    HW164063   9.345   2.848   1.639 -1.6486 -2.4999 -1.5637
84028SOL    HW264064   9.278   2.724   1.695  0.1893 -1.6805  2.9326
84029SOL     OW64065   8.676   3.304   8.469  0.6494  0.1523 -0.1473
84029SOL    HW164066   8.601   3.319   8.526  1.7846  0.7594  1.2322
84029SOL    HW264067   8.657   3.354   8.390 -0.5746 -0.0447  0.0100
84030SOL     OW64068   1.318  13.393  11.544 -0.7989 -0.8280 -0.0108
84030SOL    HW164069   1.328  13.463  11.480 -1.6602 -0.2896  0.4349
84030SOL    HW264070   1.368  13.320  11.507  2.8690  0.9372  1.0035
84031SOL     OW64071   5.252   9.405   2.382  0.7292 -0.4270  0.4627
84031SOL    HW164072   5.287   9.407   2.471 -0.7723  0.6267  1.0757
84031SOL    HW264073   5.208   9.320   2.375 -2.1483  0.7532  2.0456
84032SOL     OW64074   3.565   1.339   0.913 -0.0105 -0.2422 -0.1537
84032SOL    HW164075   3.616   1.262   0.938  1.3889  0.3962 -0.9758
84032SOL    HW264076   3.596   1.408   0.971  0.5058  0.2937 -1.0512
84033SOL     OW64077   4.774   0.645   2.278  0.2160  0.4665  0.0477
84033SOL    HW164078   4.822   0.716   2.236 -3.5789  1.6010 -2.9566
84033SOL    HW264079   4.798   0.567   2.228 -0.8113  0.9918 -1.3172
84034SOL     OW64080   9.900   5.905  11.551 -0.1715 -0.9193 -0.0261
84034SOL    HW164081   9.887   5.884  11.459  0.6998 -0.0643 -0.3518
84034SOL    HW264082   9.895   5.820  11.596  2.2550 -1.7533 -1.1905
84035SOL     OW64083   2.852   4.358  12.734  0.0273  0.2642  0.3147
84035SOL    HW164084   2.897   4.276  12.716 -0.4265 -0.0087  0.4343
84035SOL    HW264085   2.837   4.358  12.828  0.9600  0.9659  0.4850
84036SOL     OW64086   7.959   1.366   6.475  0.5549 -0.0767  0.0877
84036SOL    HW164087   7.982   1.319   6.395  1.3315 -0.7667  0.6955
84036SOL    HW264088   7.950   1.297   6.541  1.1571  0.5840  0.8684
84037SOL     OW64089   9.671   6.518   8.904  0.3548 -0.1648  0.6193
84037SOL    HW164090   9.660   6.502   8.811  1.4084 -1.8596  0.7361
84037SOL    HW264091   9.582   6.513   8.940 -0.1856  1.5121 -0.3888
84038SOL     OW64092  10.833   1.102   0.076 -0.3630  0.0111  0.1747
84038SOL    HW164093  10.742   1.093   0.049 -0.6380  0.5004  0.9199
84038SOL    HW264094  10.849   1.197   0.077  0.2656 -0.0787 -0.3003
84039SOL     OW64095   8.593   6.029  10.755 -0.2067 -0.2077 -0.0717
84039SOL    HW164096   8.608   6.020  10.850 -1.0692  0.9619  0.1885
84039SOL    HW264097   8.582   6.123  10.741 -3.1643 -0.5655 -0.8220
84040SOL     OW64098   3.019  12.644  10.343 -0.0940 -0.2067 -0.0366
84040SOL    HW164099   3.037  12.738  10.350 -0.7732 -0.1169  0.4627
84040SOL    HW264100   3.105  12.603  10.354  0.0817  0.3139  0.5806
84041SOL     OW64101   7.646  10.073  12.685 -0.9293  0.0260 -0.4082
84041SOL    HW164102   7.605   9.992  12.655 -1.0583 -0.1989  0.3541
84041SOL    HW264103   7.740  10.053  12.685 -0.7710  0.5917 -2.3071
84042SOL     OW64104   6.382   7.676   1.851  0.1550 -0.0773 -0.0655
84042SOL    HW164105   6.368   7.764   1.887 -2.1215 -0.2351 -0.3845
84042SOL    HW264106   6.477   7.669   1.839  0.6562  1.3000  2.5033
84043SOL     OW64107  13.880  11.476  12.264  0.0916 -0.1367 -0.1633
84043SOL    HW164108  13.944  11.406  12.282  0.3357 -0.3840 -1.7813
84043SOL    HW264109  13.929  11.557  12.277  1.1663 -0.3190 -2.4707
84044SOL     OW64110  13.093   4.593   4.336 -0.0338 -0.0752 -0.1289
84044SOL    HW164111  13.003   4.562   4.347 -0.3011  0.6040 -0.3062
84044SOL    HW264112  13.084   4.687   4.320  0.5152 -0.3911 -2.7223
84045SOL     OW64113   4.903   4.408  13.846  0.1600 -0.2043 -0.6512
84045SOL    HW164114   4.818   4.439  13.877 -0.0574 -0.4537 -0.9952
84045SOL    HW264115   4.936   4.355  13.919 -0.8181 -1.6564 -1.2265
84046SOL     OW64116  12.295  11.612   4.037  0.1987  0.5084 -0.4282
84046SOL    HW164117  12.234  11.668   4.085 -0.8102 -1.2199  0.3628
84046SOL    HW264118  12.351  11.574   4.104  0.4495  0.0516 -0.8960
84047SOL     OW64119   6.800   4.864   5.645 -0.1667  0.6694 -0.0095
84047SOL    HW164120   6.723   4.921   5.644  1.0154  2.3585 -1.1909
84047SOL    HW264121   6.851   4.894   5.721  0.6534  1.5176 -0.8683
84048SOL     OW64122  10.264   3.753   9.681 -0.0600 -0.4370 -0.0340
84048SOL    HW164123  10.199   3.704   9.631  0.3543 -0.2632 -0.7498
84048SOL    HW264124  10.238   3.845   9.672  1.7121 -0.0909 -2.5142
84049SOL     OW64125   2.734   8.476   2.399 -0.3115 -0.1172  0.0975
84049SOL    HW164126   2.712   8.460   2.491 -0.0319 -1.2198 -0.0141
84049SOL    HW264127   2.661   8.528   2.366 -1.3296 -1.2232  0.5001
84050SOL     OW64128  13.391   9.778   6.900 -0.2990  0.3089  0.2455
84050SOL    HW164129  13.455   9.832   6.946  0.8531 -1.7271  1.1630
84050SOL    HW264130  13.429   9.763   6.813  0.0868 -0.1747  0.4895
84051SOL     OW64131   8.531   5.463  10.875 -0.1041 -0.1111 -0.1312
84051SOL    HW164132   8.561   5.436  10.788 -0.1729  1.1456 -0.5735
84051SOL    HW264133   8.453   5.516  10.859  2.1165  3.6420  0.2388
84052SOL     OW64134   6.951   6.884  12.429  0.1300  0.0004  0.2794
84052SOL    HW164135   6.900   6.846  12.501  0.1882  0.4373  0.5603
84052SOL    HW264136   6.947   6.819  12.359  0.0980 -0.4453  0.6928
84053SOL     OW64137   3.079   8.355  13.617 -0.1934  0.5326  0.0586
84053SOL    HW164138   3.036   8.358  13.531 -1.5123  0.6083  0.6885
84053SOL    HW264139   3.067   8.265  13.646 -0.5343  0.7273  0.5335
84054SOL     OW64140   5.556  12.974  13.540 -0.1030  0.0757 -0.0571
84054SOL    HW164141   5.575  13.016  13.456 -1.7401  1.3107  0.1264
84054SOL    HW264142   5.584  13.038  13.606  1.3815 -0.9834  0.3757
84055SOL     OW64143   0.656   3.030   3.847 -0.0106 -0.3564 -0.0417
84055SOL    HW164144   0.572   3.003   3.885 -0.7337  1.6350 -0.1117
84055SOL    HW264145   0.632   3.074   3.765  1.3034 -1.8108 -1.2805
84056SOL     OW64146  13.642   3.517   9.762 -0.3335  0.9260 -0.0507
84056SOL    HW164147  13.590   3.557   9.692 -1.6523  0.9989  0.9329
84056SOL    HW264148  13.642   3.582   9.832 -0.9280 -0.0307  0.8654
84057SOL     OW64149   5.490  13.379  10.315  0.1807  0.1310  0.2988
84057SOL    HW164150   5.422  13.381  10.247 -0.6490 -2.4647  0.9372
84057SOL    HW264151   5.572  13.383  10.267 -0.3907  1.0218 -0.6484
84058SOL     OW64152   5.983   0.432   3.560  0.2924 -0.2839 -0.0317
84058SOL    HW164153   5.979   0.499   3.628 -0.2744 -0.0873 -0.2509
84058SOL    HW264154   6.043   0.366   3.595  0.0647 -0.1493  0.6312
84059SOL     OW64155  11.170   8.651  13.964 -0.2276  0.1248  0.0438
84059SOL    HW164156  11.179   8.745  13.978  0.0555  0.0226  0.5908
84059SOL    HW264157  11.097   8.642  13.903 -0.1546  0.7045 -0.1319
84060SOL     OW64158  12.806  13.530   2.978 -0.3100  0.2220 -0.2535
84060SOL    HW164159  12.775  13.507   2.891 -0.4280  2.4171 -0.8699
84060SOL    HW264160  12.728  13.529   3.033 -0.6008  0.8018 -0.6508
84061SOL     OW64161   3.110  12.009  10.841  0.3028 -0.1479  0.1173
84061SOL    HW164162   3.068  11.952  10.905 -0.7345  1.4507  0.9179
84061SOL    HW264163   3.203  11.987  10.846 -0.0804 -1.9417  0.1713
84062SOL     OW64164  12.863  12.273  12.566  0.1934  0.5388  0.1256
84062SOL    HW164165  12.832  12.355  12.604  0.6783  0.2722  1.1412
84062SOL    HW264166  12.794  12.209  12.588  0.0871  0.5564 -0.1594
84063SOL     OW64167   0.679   8.984   2.448 -0.1535  0.2455  0.3596
84063SOL    HW164168   0.598   9.024   2.480  0.4417  0.7050  1.3299
84063SOL    HW264169   0.671   8.987   2.353 -2.2192 -1.6455  0.3983
84064SOL     OW64170   5.013   8.525   1.290  0.3221 -0.5260  0.2051
84064SOL    HW164171   4.992   8.434   1.314 -1.3283  0.0167  1.0116
84064SOL    HW264172   5.033   8.521   1.197 -2.1821 -1.4024 -0.3778
84065SOL     OW64173  13.229   0.959   9.233  0.0617 -0.3379  0.0925
84065SOL    HW164174  13.188   1.044   9.214  1.0109  0.4210  1.3261
84065SOL    HW264175  13.155   0.902   9.255 -0.5034  0.4579  0.3247
84066SOL     OW64176  12.345   6.761   0.323  0.4050  0.3028  0.0639
84066SOL    HW164177  12.304   6.816   0.389 -0.2759  0.3251 -0.3723
84066SOL    HW264178  12.439   6.776   0.334  0.3213  0.0683  1.2331
84067SOL     OW64179  11.084   4.506   1.349  0.6067 -0.0216 -0.1702
84067SOL    HW164180  11.116   4.571   1.286 -0.5684  0.4394 -0.3187
84067SOL    HW264181  11.141   4.430   1.336  1.5140  0.6957 -0.5348
84068SOL     OW64182  10.043   2.006  10.236 -0.3461 -0.2716  0.1718
84068SOL    HW164183  10.017   2.047  10.318  0.0731  0.3458  0.0011
84068SOL    HW264184   9.963   2.000  10.185 -0.6777 -0.9809  0.7590
84069SOL     OW64185  10.750   2.923   2.532 -0.2787  0.2047 -0.0938
84069SOL    HW164186  10.736   2.869   2.454  1.5993  1.7955 -1.6319
84069SOL    HW264187  10.670   2.974   2.541 -0.2707  0.4819 -1.4118
84070SOL     OW64188   5.299   7.468  13.749  0.1449 -0.6727  0.1164
84070SOL    HW164189   5.314   7.507  13.663 -2.1304 -0.6896 -0.3559
84070SOL    HW264190   5.384   7.431  13.774  1.6028  1.8388 -0.7904
84071SOL     OW64191   6.203   5.423   7.184  0.7958  0.2302  0.2379
84071SOL    HW164192   6.265   5.365   7.140 -0.7139  0.2590 -2.1054
84071SOL    HW264193   6.167   5.371   7.255  1.2899 -0.8224 -0.2666
84072SOL     OW64194  11.167   0.115   9.028 -0.5358  0.6108 -0.8451
84072SOL    HW164195  11.221   0.045   9.063 -0.4297  1.0481 -0.1216
84072SOL    HW264196  11.156   0.176   9.101  0.0881  1.7798 -1.6827
84073SOL     OW64197   8.709   2.343   5.152 -0.3978  0.0971 -0.0380
84073SOL    HW164198   8.738   2.393   5.229  0.5779 -1.0599  0.3837
84073SOL    HW264199   8.631   2.390   5.121 -1.7874 -0.2302  2.5837
84074SOL     OW64200   6.376  12.287   1.871 -0.1459 -0.3453 -0.1312
84074SOL    HW164201   6.335  12.281   1.958  0.1627  1.5296  0.1816
84074SOL    HW264202   6.462  12.326   1.888 -0.1397  0.1809 -1.3051
84075SOL     OW64203  10.958   9.815   0.372 -0.5663  0.3726 -0.1401
84075SOL    HW164204  10.874   9.854   0.395 -1.5678 -1.2147 -0.9731
84075SOL    HW264205  10.984   9.860   0.291  0.2488  2.0265  0.9791
84076SOL     OW64206  10.451   1.956  11.425  0.4763  0.3413  0.5577
84076SOL    HW164207  10.440   2.004  11.342  0.9708  0.5853  0.6302
84076SOL    HW264208  10.432   2.021  11.493 -2.2788 -0.4355  0.6483
84077SOL     OW64209  11.868   5.842   4.836 -0.2650  0.0511  0.4023
84077SOL    HW164210  11.902   5.772   4.780 -1.1909 -0.5132  0.5253
84077SOL    HW264211  11.904   5.824   4.922 -0.4477 -0.2295  0.4185
84078SOL     OW64212   7.867   3.882   7.405 -0.1801 -0.2083  0.4106
84078SOL    HW164213   7.882   3.792   7.432  1.7571 -0.4019 -1.0487
84078SOL    HW264214   7.879   3.934   7.484  0.9411 -1.0656  0.8237
84079SOL     OW64215   2.465   6.063  14.036  0.2550 -0.5029  0.1636
84079SOL    HW164216   2.372   6.044  14.023  0.5604 -0.6335 -2.2496
84079SOL    HW264217   2.472   6.158  14.026  0.6106 -0.6895 -1.6052
84080SOL     OW64218   8.824  10.223   3.993 -0.0752  0.2033  0.2671
84080SOL    HW164219   8.894  10.276   4.031  1.1726  0.2840 -1.9706
84080SOL    HW264220   8.869  10.155   3.944 -1.6331 -2.3397  2.0882
84081SOL     OW64221   6.253   5.764  11.853  0.6947  0.4417  0.0669
84081SOL    HW164222   6.252   5.745  11.946  1.6555 -0.5871 -0.1230
84081SOL    HW264223   6.162   5.753  11.826  0.2771  1.3946  0.9811
84082SOL     OW64224   1.520  12.048  13.512  0.4407  0.1468 -0.3998
84082SOL    HW164225   1.586  12.117  13.504  0.0534  0.7186  1.1267
84082SOL    HW264226   1.444  12.090  13.551  0.0061 -1.0161  0.0661
84083SOL     OW64227  10.795  10.103   0.358 -0.4361  0.2275  0.1111
84083SOL    HW164228  10.795  10.111   0.454  3.6726 -0.7644  0.4205
84083SOL    HW264229  10.752  10.019   0.341 -1.3865  0.5078  1.0351
84084SOL     OW64230   2.087  11.417  12.362  0.2077  0.6996 -0.1830
84084SOL    HW164231   2.067  11.406  12.454  1.9007 -0.7795  0.0643
84084SOL    HW264232   2.035  11.351  12.317 -0.4763  1.2987 -0.2963
84085SOL     OW64233   2.519   2.798   4.622  0.4376  0.0527 -1.0964
84085SOL    HW164234   2.447   2.769   4.566  1.2666 -0.6399 -1.8304
84085SOL    HW264235   2.477   2.851   4.690 -0.7678 -0.4139 -1.4555
84086SOL     OW64236   4.848   3.662   8.370  0.4877  0.0851  0.1667
84086SOL    HW164237   4.810   3.651   8.283 -0.0118 -0.7935  0.4786
84086SOL    HW264238   4.890   3.748   8.367  0.7646 -0.0723 -1.0421
84087SOL     OW64239   1.088  11.674   1.787 -0.6278 -0.1439 -0.4685
84087SOL    HW164240   1.044  11.689   1.704 -0.0766  0.7966 -0.6025
84087SOL    HW264241   1.180  11.660   1.764 -0.5112 -0.1096 -0.0375
84088SOL     OW64242   2.645  13.373   6.707 -0.0889  0.6112  0.5363
84088SOL    HW164243   2.593  13.392   6.785 -0.7266 -0.3084  0.3419
84088SOL    HW264244   2.590  13.316   6.654  1.3426 -0.9345  0.6222
84089SOL     OW64245   5.648   2.980  12.120 -0.4278 -0.4669  0.2905
84089SOL    HW164246   5.681   2.952  12.205  1.0306 -0.5439 -0.2649
84089SOL    HW264247   5.666   3.074  12.116 -0.8658 -0.3836  0.2311
84090SOL     OW64248  10.543  12.727  12.197  0.2592  0.5844  0.4673
84090SOL    HW164249  10.630  12.687  12.210 -0.1708 -0.5818 -0.1229
84090SOL    HW264250  10.496  12.664  12.143 -1.6692  0.2021  2.4628
84091SOL     OW64251   9.204   6.240   9.309  0.5936 -0.0913  0.1299
84091SOL    HW164252   9.150   6.162   9.293  0.1506  0.1308  0.5402
84091SOL    HW264253   9.256   6.217   9.386 -0.0979  0.3073  0.7200
84092SOL     OW64254   7.716   3.761   2.588 -0.4343  0.0745  0.0878
84092SOL    HW164255   7.737   3.819   2.661  2.2296 -0.0292 -0.4960
84092SOL    HW264256   7.683   3.681   2.630 -3.4260  1.6200  0.9172
84093SOL     OW64257  10.523   1.614   5.677  0.0907 -0.3809  0.5471
84093SOL    HW164258  10.520   1.707   5.699  0.3279 -0.2834  0.1704
84093SOL    HW264259  10.604   1.582   5.717  1.4242  0.1673 -1.5732
84094SOL     OW64260   7.874   6.247   1.316  0.0559 -0.0548  0.1326
84094SOL    HW164261   7.884   6.255   1.411 -0.5128 -0.5281  0.2427
84094SOL    HW264262   7.794   6.294   1.296  0.1306 -0.0259 -0.1000
84095SOL     OW64263   4.927   1.098   5.142 -0.0079 -0.0685  0.4625
84095SOL    HW164264   4.928   1.061   5.230 -0.4216  1.8021  1.3030
84095SOL    HW264265   4.834   1.111   5.123  0.1136  0.1944  0.0387
84096SOL     OW64266  12.025  13.215   5.589 -0.0479 -0.1009 -0.5074
84096SOL    HW164267  12.017  13.295   5.641 -4.3109  0.1502 -1.2642
84096SOL    HW264268  12.069  13.243   5.509 -0.1676  1.1361 -0.1617
84097SOL     OW64269  13.491  11.677   3.475 -0.1429  0.1545  0.9790
84097SOL    HW164270  13.432  11.630   3.533  1.2549 -1.1812  1.3815
84097SOL    HW264271  13.492  11.625   3.395 -1.1519  1.3553  0.1307
84098SOL     OW64272   1.922   3.518   6.847 -0.0882 -0.3318  0.3386
84098SOL    HW164273   1.886   3.565   6.772 -0.0150 -0.0073  0.5041
84098SOL    HW264274   1.848   3.510   6.908 -0.0009 -0.0780  0.4796
84099SOL     OW64275  13.197   5.134   3.755 -0.0178 -0.6784 -0.4384
84099SOL    HW164276  13.184   5.058   3.698 -2.1552 -0.6443 -0.0453
84099SOL    HW264277  13.214   5.207   3.694  1.6022 -1.3400 -0.8316
84100SOL     OW64278   0.880  10.063   3.813 -0.5025 -0.0552  0.1900
84100SOL    HW164279   0.817  10.070   3.742  0.1297  1.3436 -0.2746
84100SOL    HW264280   0.859  10.135   3.872 -0.9549 -1.1298  1.4068
84101SOL     OW64281   3.320  10.433   2.196 -0.1578  0.3015  0.3250
84101SOL    HW164282   3.269  10.363   2.155  0.0709 -0.7895  1.8123
84101SOL    HW264283   3.285  10.514   2.158  0.3054 -0.6160 -2.2478
84102SOL     OW64284  11.510  10.171   5.295  0.5236  0.4235  0.4988
84102SOL    HW164285  11.495  10.079   5.317  0.4347  0.3233  0.0276
84102SOL    HW264286  11.450  10.220   5.352 -1.4376  0.0480 -1.1174
84103SOL     OW64287   8.501  12.672   3.393 -0.0652  0.2421  0.3342
84103SOL    HW164288   8.466  12.712   3.473 -2.5560 -0.7275 -0.1716
84103SOL    HW264289   8.518  12.581   3.417  0.6161  0.3082  0.1295
84104SOL     OW64290  12.432   3.279  12.062 -0.1969  0.2573  0.0964
84104SOL    HW164291  12.410   3.293  12.154 -0.7653 -0.4398  0.0774
84104SOL    HW264292  12.520   3.316  12.052  0.6474 -1.3120  1.3597
84105SOL     OW64293  12.155  13.041   6.205  0.6068 -0.2555  0.0250
84105SOL    HW164294  12.245  13.011   6.190  0.5052 -0.7396  0.3567
84105SOL    HW264295  12.165  13.123   6.255  0.8578 -0.4478  0.2926
84106SOL     OW64296   6.238  11.400   2.833 -0.2490 -0.3018  0.2978
84106SOL    HW164297   6.254  11.491   2.810 -0.5311 -0.4343 -0.4597
84106SOL    HW264298   6.319  11.354   2.807  0.0666 -0.2080  1.0837
84107SOL     OW64299  14.002   5.745   5.843 -0.7290  0.1428  0.0877
84107SOL    HW164300  13.929   5.701   5.887 -0.6366 -0.8082 -0.6716
84107SOL    HW264301  14.053   5.674   5.805  0.0308  0.8586 -0.2567
84108SOL     OW64302   5.466   7.584   3.635 -0.3985  0.2110 -0.4679
84108SOL    HW164303   5.372   7.567   3.643 -1.0442  2.0198 -2.9221
84108SOL    HW264304   5.473   7.679   3.635  1.5284  0.1052  0.2574
84109SOL     OW64305   7.302   4.446   8.688  0.2866  0.0828 -0.6335
84109SOL    HW164306   7.379   4.502   8.679  0.3220  0.3908  1.2181
84109SOL    HW264307   7.236   4.501   8.730  0.0135 -0.9638  0.3788
84110SOL     OW64308   8.978  13.890   5.318 -0.2073 -0.3147 -0.3005
84110SOL    HW164309   8.884  13.878   5.323 -0.1661 -0.6528 -0.3176
84110SOL    HW264310   9.003  13.857   5.232 -0.1721  0.4833 -0.6093
84111SOL     OW64311  13.074   1.098  11.904 -0.0696  0.0957 -0.0806
84111SOL    HW164312  13.028   1.061  11.828  0.4209 -1.2001  0.2289
84111SOL    HW264313  13.165   1.103  11.876  0.4004 -1.8533  0.8866
84112SOL     OW64314  11.682   7.500   4.790 -0.4867  0.1249 -0.0395
84112SOL    HW164315  11.678   7.412   4.826  1.2365  0.6311  1.5633
84112SOL    HW264316  11.763   7.502   4.738 -1.1758  0.4103 -1.1385
84113SOL     OW64317   1.288   9.295   4.078  0.0725 -0.2975 -0.3608
84113SOL    HW164318   1.366   9.240   4.082  1.0189  0.9820 -0.6333
84113SOL    HW264319   1.223   9.241   4.034  0.2423 -2.0180  1.3698
84114SOL     OW64320   6.026   2.451   7.173 -0.0743  0.5768 -0.3753
84114SOL    HW164321   5.949   2.416   7.129  0.2974  0.1275 -0.6824
84114SOL    HW264322   6.096   2.389   7.152 -0.2042 -0.5050  2.0797
84115SOL     OW64323   7.238   8.853   5.333  0.1763  0.4701  0.2699
84115SOL    HW164324   7.278   8.907   5.266  0.7425 -2.0673 -1.5859
84115SOL    HW264325   7.308   8.839   5.398  0.6754  0.3053 -0.2977
84116SOL     OW64326  12.684   4.202  12.613  0.1935  0.1143 -0.3412
84116SOL    HW164327  12.748   4.155  12.668  0.0100  0.4586  0.1791
84116SOL    HW264328  12.600   4.184  12.655 -0.1310 -0.8035 -1.3441
84117SOL     OW64329   5.141   7.791   5.910  0.2941 -0.6256 -0.5344
84117SOL    HW164330   5.132   7.731   5.984 -1.0711 -0.7806 -0.7912
84117SOL    HW264331   5.142   7.878   5.950 -0.9050 -0.6830 -0.3325
84118SOL     OW64332   1.111   1.646  11.197 -0.1275  0.2524 -0.1775
84118SOL    HW164333   1.094   1.563  11.242 -0.7604  0.4682 -0.0216
84118SOL    HW264334   1.097   1.626  11.104 -1.7978  0.5551 -0.0147
84119SOL     OW64335  11.009  11.019   5.337 -0.3384  0.3516 -0.2450
84119SOL    HW164336  11.083  11.025   5.397 -1.5244  0.8484  1.2161
84119SOL    HW264337  11.034  11.072   5.262  1.5678 -1.0446 -0.6650
84120SOL     OW64338  12.636  10.115   3.515  0.1277  0.4789 -0.0988
84120SOL    HW164339  12.662  10.195   3.470  0.2936  0.7841  0.5209
84120SOL    HW264340  12.575  10.072   3.455  1.3665  0.1883 -1.1983
84121SOL     OW64341   3.131   8.726   9.752  0.1053 -0.1062  0.0329
84121SOL    HW164342   3.211   8.770   9.780 -0.6247  2.8068 -2.0320
84121SOL    HW264343   3.073   8.729   9.829  1.0561  0.0440  0.7562
84122SOL     OW64344   2.394   6.323  14.006  0.4115  0.4242 -0.5947
84122SOL    HW164345   2.414   6.405  13.959 -1.8038  1.1225 -0.4147
84122SOL    HW264346   2.336   6.350  14.077 -0.7385 -1.3692 -0.8003
84123SOL     OW64347   5.692   5.825  11.610  0.5587  0.2918 -0.1211
84123SOL    HW164348   5.699   5.917  11.586  0.8058  0.3322  0.1054
84123SOL    HW264349   5.637   5.825  11.689  0.6593  0.2568 -0.0506
84124SOL     OW64350   2.051   9.610   8.305 -0.0470  0.7049  0.7524
84124SOL    HW164351   2.041   9.589   8.212 -1.1308 -0.2595  1.0575
84124SOL    HW264352   2.141   9.585   8.326 -0.1931 -0.3025  0.2507
84125SOL     OW64353  13.565   3.666   6.674 -0.6294  0.3089  0.1826
84125SOL    HW164354  13.591   3.758   6.671 -0.0698  0.2358  1.8752
84125SOL    HW264355  13.592   3.631   6.589 -0.9451  1.7063 -0.5306
84126SOL     OW64356   6.778  12.308  10.381  0.2609 -0.7714 -0.0144
84126SOL    HW164357   6.703  12.276  10.332  1.0997 -0.6397 -1.4445
84126SOL    HW264358   6.815  12.378  10.327  1.7730 -1.2454  0.3338
84127SOL     OW64359   5.531   6.912   3.920  0.1269 -0.1930 -0.1649
84127SOL    HW164360   5.480   6.968   3.862 -0.3723  0.1447  0.5732
84127SOL    HW264361   5.622   6.931   3.900 -0.0408  0.5347 -0.2541
84128SOL     OW64362  13.676   4.914   7.496 -0.6050 -0.2939 -0.1051
84128SOL    HW164363  13.756   4.875   7.462  0.3280  1.2964  0.1998
84128SOL    HW264364  13.706   4.986   7.552 -2.1085 -1.5969  2.5962
84129SOL     OW64365   1.087   2.471   4.854 -0.2443 -0.4439  0.0987
84129SOL    HW164366   1.127   2.552   4.884 -0.5083 -1.0874  2.3446
84129SOL    HW264367   1.159   2.409   4.845 -0.0894 -0.1013 -1.2738
84130SOL     OW64368  12.745   0.672   1.881 -0.0517 -0.2854  0.4973
84130SOL    HW164369  12.789   0.668   1.796  1.3918 -2.1141  1.2436
84130SOL    HW264370  12.653   0.652   1.862  0.2493 -0.6395 -0.6514
84131SOL     OW64371  12.317  13.366   1.045 -0.6363  0.0282 -0.0963
84131SOL    HW164372  12.247  13.337   1.103 -0.9094  0.6151 -0.1326
84131SOL    HW264373  12.360  13.285   1.018 -0.1145 -0.2291  1.3924
84132SOL     OW64374   8.792   3.378   7.737  0.4277 -0.0800 -0.2473
84132SOL    HW164375   8.851   3.311   7.705  2.2616  1.9397 -1.3822
84132SOL    HW264376   8.813   3.387   7.829 -0.1633 -1.3214  0.0301
84133SOL     OW64377  11.675   3.049  13.619 -0.8399 -0.3312 -0.1901
84133SOL    HW164378  11.623   2.969  13.621 -1.9568  0.3334  2.4151
84133SOL    HW264379  11.618   3.112  13.574 -0.3456 -0.7278 -1.4083
84134SOL     OW64380  11.375  10.163   5.754 -0.3920 -0.0173  0.0303
84134SOL    HW164381  11.417  10.221   5.817 -1.3364  0.6823  0.0555
84134SOL    HW264382  11.345  10.089   5.806 -0.0026 -0.0763  0.1705
84135SOL     OW64383   6.920   3.638   3.985 -0.1788 -0.3438 -0.0365
84135SOL    HW164384   7.013   3.619   3.998  0.4194  1.3286 -1.5244
84135SOL    HW264385   6.904   3.619   3.893 -1.4129 -0.9249  0.2794
84136SOL     OW64386   5.480   0.880   1.538 -0.7277  0.1539  0.4561
84136SOL    HW164387   5.496   0.807   1.478  1.6387  1.1800 -0.2830
84136SOL    HW264388   5.486   0.842   1.625  1.9769 -0.3577  0.1269
84137SOL     OW64389   3.636   5.893  11.118 -0.1487  0.1026  0.1632
84137SOL    HW164390   3.715   5.857  11.079 -1.2216 -1.3540 -0.7986
84137SOL    HW264391   3.655   5.897  11.212  0.9934 -0.3740 -0.0322
84138SOL     OW64392   4.651   0.924   0.322 -0.2600  0.1680 -0.5141
84138SOL    HW164393   4.657   0.906   0.416  0.4246  0.5845 -0.4647
84138SOL    HW264394   4.571   0.976   0.312  0.1742  0.9553 -0.0096
84139SOL     OW64395   0.214   7.686  12.240 -0.2829 -0.2881 -0.0401
84139SOL    HW164396   0.300   7.704  12.279 -0.1784 -0.9447  0.0501
84139SOL    HW264397   0.169   7.634  12.306 -1.7484  2.1681  1.0528
84140SOL     OW64398  12.364  11.599  10.393 -0.0606  0.4935 -0.2697
84140SOL    HW164399  12.311  11.678  10.385  0.9164  1.1025 -0.9465
84140SOL    HW264400  12.390  11.578  10.304 -0.0981 -0.4567 -0.0702
84141SOL     OW64401   2.756  12.537  10.457  0.0843 -0.1007  0.2825
84141SOL    HW164402   2.820  12.552  10.387  0.0329 -0.2653  0.1973
84141SOL    HW264403   2.809  12.528  10.537  0.2589 -1.2820  0.0581
84142SOL     OW64404   5.480   1.324  10.838  0.6628 -0.0426  0.2492
84142SOL    HW164405   5.500   1.269  10.762 -0.4745  0.9124 -0.7764
84142SOL    HW264406   5.433   1.398  10.802  0.2086  0.5024  1.8950
84143SOL     OW64407   6.382   5.136  13.097  0.9043  0.4031  1.0239
84143SOL    HW164408   6.468   5.155  13.060  1.1858 -0.0828  1.4098
84143SOL    HW264409   6.350   5.061  13.047 -0.7133  2.4571 -1.2909
84144SOL     OW64410   2.835   3.439   3.276 -0.1079  0.4174  0.0911
84144SOL    HW164411   2.778   3.403   3.208  1.0971 -1.6352  0.0540
84144SOL    HW264412   2.861   3.362   3.327  3.7622  0.9269 -0.8033
84145SOL     OW64413  10.673   6.563  11.432  0.2909  0.0466  0.1613
84145SOL    HW164414  10.596   6.618  11.447  0.7343  1.1903 -1.4861
84145SOL    HW264415  10.740   6.599  11.490  0.8580  1.9473 -1.5509
84146SOL     OW64416   2.194   8.436   3.005  0.1769 -0.3337 -0.1891
84146SOL    HW164417   2.272   8.453   2.952 -0.3828  1.0046 -0.6310
84146SOL    HW264418   2.224   8.446   3.095  0.7684 -0.9582 -0.3114
84147SOL     OW64419   0.123   9.588   4.896 -0.0631  0.4963 -0.6101
84147SOL    HW164420   0.095   9.513   4.949  0.3904  0.4603 -0.4127
84147SOL    HW264421   0.219   9.583   4.897 -0.0455  0.5812 -1.3120
84148SOL     OW64422   9.151   7.461   8.966  0.0339 -0.1117  0.6953
84148SOL    HW164423   9.179   7.553   8.970  0.8009 -0.3058  0.0017
84148SOL    HW264424   9.232   7.412   8.959 -0.3404 -0.8970  1.6084
84149SOL     OW64425  11.659  11.262   9.173  0.6107  0.3989  0.0318
84149SOL    HW164426  11.649  11.169   9.151  0.9262  0.2870  0.3572
84149SOL    HW264427  11.571  11.291   9.194  0.3530  0.4113 -0.9915
84150SOL     OW64428  13.760   1.157  10.110 -0.0951  0.5664 -0.2397
84150SOL    HW164429  13.853   1.151  10.087  0.2304 -1.1007  1.2142
84150SOL    HW264430  13.754   1.234  10.166  0.5230  0.4484  0.0043
84151SOL     OW64431   9.196   1.664   9.936 -0.4713  0.1383  0.5595
84151SOL    HW164432   9.254   1.594   9.968 -0.2250  0.6348  1.2193
84151SOL    HW264433   9.179   1.641   9.845  1.0439  0.1542  0.2432
84152SOL     OW64434  10.173   3.088   3.255 -0.1339 -0.7668 -0.4337
84152SOL    HW164435  10.213   3.163   3.210 -0.0036 -0.2308  0.5429
84152SOL    HW264436  10.175   3.112   3.348 -1.5712 -1.2907 -0.2494
84153SOL     OW64437   8.385   5.491   2.111 -0.1942 -0.0200  0.2240
84153SOL    HW164438   8.290   5.501   2.102 -0.1043  1.9848  1.0520
84153SOL    HW264439   8.411   5.444   2.031 -1.9449 -1.3114  0.3460
84154SOL     OW64440   6.160   5.169   4.935  0.0117 -0.0706 -0.3338
84154SOL    HW164441   6.124   5.192   5.020  1.2957 -0.6701  0.4091
84154SOL    HW264442   6.087   5.178   4.874 -1.0845 -0.2009  0.9216
84155SOL     OW64443  12.018   7.275  13.229 -0.1275 -0.6733 -0.3288
84155SOL    HW164444  12.072   7.268  13.308  0.3149 -1.3224 -0.6807
84155SOL    HW264445  12.077   7.312  13.163 -0.6046  0.2388 -0.2635
84156SOL     OW64446   3.369   9.636  10.436 -0.1026 -0.0851  1.0354
84156SOL    HW164447   3.325   9.705  10.387 -0.1723 -0.5632  0.4143
84156SOL    HW264448   3.303   9.604  10.497 -0.4195 -0.3520  0.5597
84157SOL     OW64449  11.560   5.229   0.219  0.2691 -0.2866  0.3678
84157SOL    HW164450  11.584   5.244   0.127 -1.8586 -1.7440 -0.5305
84157SOL    HW264451  11.510   5.307   0.244  1.2839  0.3403  0.4748
84158SOL     OW64452   1.359  10.978  13.400 -0.2985  0.3809 -0.3581
84158SOL    HW164453   1.426  10.948  13.461 -2.0333 -1.7847  0.6388
84158SOL    HW264454   1.396  10.961  13.313  0.7945  0.1152  0.1454
84159SOL     OW64455   0.209   7.928   6.037  0.3531  0.0231  0.0810
84159SOL    HW164456   0.223   7.869   6.111 -0.7089 -0.2474  0.0785
84159SOL    HW264457   0.114   7.930   6.025  0.5131 -0.0403 -1.3554
84160SOL     OW64458   3.914   7.208   2.378 -0.1322  0.2566  0.1075
84160SOL    HW164459   3.880   7.238   2.294  0.9799  0.3512 -0.3294
84160SOL    HW264460   3.980   7.273   2.402  0.1094 -0.1827  0.6724
84161SOL     OW64461  13.447   1.164   3.259  0.2377 -0.2173  0.1702
84161SOL    HW164462  13.454   1.075   3.223 -0.4721  0.0692 -0.7126
84161SOL    HW264463  13.518   1.170   3.323 -0.8630 -2.0734  1.6628
84162SOL     OW64464   9.888   4.863   5.813 -0.8345  0.2371 -0.1135
84162SOL    HW164465   9.824   4.887   5.881 -0.6802  2.0520 -0.5638
84162SOL    HW264466   9.946   4.939   5.807  1.1112 -1.1900 -0.0543
84163SOL     OW64467   8.769   9.421  13.386  0.3748  0.6070 -0.5459
84163SOL    HW164468   8.687   9.469  13.373  0.0547  1.0603  2.4856
84163SOL    HW264469   8.750   9.359  13.456  1.8496 -1.3970 -1.8077
84164SOL     OW64470   4.655   9.740  11.659  0.1486 -0.4003  0.1936
84164SOL    HW164471   4.684   9.667  11.714  0.3874 -0.0613  0.5290
84164SOL    HW264472   4.562   9.724  11.645  0.1106 -0.5631  0.5981
84165SOL     OW64473   4.076   4.546   7.045  0.1292  0.5165  0.2605
84165SOL    HW164474   4.154   4.524   7.096  1.2628  1.0965 -1.1715
84165SOL    HW264475   4.045   4.462   7.012  0.3334  0.3178  0.5651
84166SOL     OW64476   8.041   0.019  10.508  0.4541  0.0554 -0.8125
84166SOL    HW164477   8.067  -0.040  10.436  2.6760 -0.6040  0.4303
84166SOL    HW264478   7.961  -0.020  10.543  0.9089 -1.2341 -1.1506
84167SOL     OW64479  11.253   2.415   4.674 -0.2239  0.3568 -0.0240
84167SOL    HW164480  11.213   2.459   4.748 -0.0661  0.9871 -0.3049
84167SOL    HW264481  11.342   2.394   4.703  0.2027  1.5807 -0.3953
84168SOL     OW64482   3.722  10.621  12.076 -0.1393  0.7448 -0.3924
84168SOL    HW164483   3.708  10.708  12.039  1.4030  1.8940  1.5445
84168SOL    HW264484   3.791  10.583  12.022  1.7700  2.2216  0.8848
84169SOL     OW64485   9.679  11.834   0.813  0.5403 -0.1198 -0.1255
84169SOL    HW164486   9.687  11.920   0.853 -0.0481 -0.7143  1.3180
84169SOL    HW264487   9.769  11.811   0.789  0.9196  0.2314  0.9175
84170SOL     OW64488   5.340  13.586   1.420  0.0670  0.1797 -0.1861
84170SOL    HW164489   5.313  13.512   1.474  0.5995  0.3064  0.2564
84170SOL    HW264490   5.263  13.644   1.419  0.0016  0.1069  0.3208
84171SOL     OW64491   2.667  13.488  12.418  0.0364  0.4947  0.5485
84171SOL    HW164492   2.601  13.436  12.463  2.0646 -2.8914 -0.0423
84171SOL    HW264493   2.750  13.462  12.457  1.4261  1.1574 -1.7478
84172SOL     OW64494  11.461   4.993   7.726  0.6877  0.1977 -0.0008
84172SOL    HW164495  11.428   5.083   7.721 -2.6471 -0.8846  0.1222
84172SOL    HW264496  11.514   4.992   7.806  0.5290  1.9452  0.1823
84173SOL     OW64497  13.707   7.129   2.384  0.3346 -0.0167  0.3456
84173SOL    HW164498  13.766   7.082   2.324 -0.7624 -0.9896 -0.0015
84173SOL    HW264499  13.766   7.170   2.447  1.5433  1.1441 -1.4347
84174SOL     OW64500   5.806  11.421   2.698 -0.1443  0.1910 -0.1099
84174SOL    HW164501   5.797  11.492   2.761  2.0663  0.7856 -0.3728
84174SOL    HW264502   5.774  11.343   2.744  0.2838  0.8217  1.3151
84175SOL     OW64503  10.005   3.766   9.996  0.0595  0.1837  0.2615
84175SOL    HW164504  10.066   3.830  10.032 -1.2900  1.6962  0.0231
84175SOL    HW264505  10.050   3.682  10.002  1.8664  1.1444  0.6862
84176SOL     OW64506   8.233   5.707   4.324  0.4604 -0.2202  0.2759
84176SOL    HW164507   8.171   5.657   4.378  0.3028 -0.7019 -0.3385
84176SOL    HW264508   8.261   5.645   4.257  1.8516 -0.1128  0.7148
84177SOL     OW64509  10.671   3.883   6.030 -0.6552  0.2549  0.0449
84177SOL    HW164510  10.586   3.847   6.055 -1.0267 -1.4445 -3.1972
84177SOL    HW264511  10.734   3.813   6.049 -0.1890  0.8372  0.7506
84178SOL     OW64512   6.033  12.646   9.881  0.3566 -0.0495  0.3619
84178SOL    HW164513   6.126  12.626   9.894  0.5421 -0.4023 -1.3411
84178SOL    HW264514   6.025  12.738   9.908  1.6224  0.5735 -1.2160
84179SOL     OW64515   6.326   5.930   0.435 -0.4411 -0.3852  0.1399
84179SOL    HW164516   6.411   5.964   0.407 -0.9638 -1.0925 -2.5860
84179SOL    HW264517   6.346   5.848   0.481  0.4753  0.9962  2.3762
84180SOL     OW64518   7.879   1.156   0.117 -0.3716 -0.3621  0.3692
84180SOL    HW164519   7.855   1.216   0.187  0.8289  0.1012  0.4005
84180SOL    HW264520   7.974   1.163   0.110 -0.5099  0.2180 -1.8243
84181SOL     OW64521   5.270   2.068  13.625  0.2110  0.2502  0.2058
84181SOL    HW164522   5.277   1.979  13.660  0.6984  0.5812  0.9905
84181SOL    HW264523   5.303   2.061  13.535  4.2124  0.3244  1.4533
84182SOL     OW64524  12.650   2.998  12.196 -0.4619  0.1415  0.6167
84182SOL    HW164525  12.606   2.991  12.112  0.9464  0.0502 -0.1444
84182SOL    HW264526  12.580   2.995  12.261 -1.5972  0.6449 -0.5639
84183SOL     OW64527   7.771   7.932   0.353 -0.3299 -0.4910 -0.4544
84183SOL    HW164528   7.700   7.975   0.402 -0.3254 -0.7120 -0.2497
84183SOL    HW264529   7.761   7.839   0.374 -0.6800 -0.6635 -1.3233
84184SOL     OW64530  10.967   5.978  13.942  0.2639  0.7212  0.6918
84184SOL    HW164531  11.047   5.980  13.889 -0.6987 -0.5564 -0.9090
84184SOL    HW264532  10.938   5.887  13.938 -0.8104  0.9796  1.9763
84185SOL     OW64533   5.314   6.733   2.997  1.0216  0.4436  0.2245
84185SOL    HW164534   5.384   6.777   2.949  1.4138 -1.0505 -0.6372
84185SOL    HW264535   5.250   6.710   2.929  0.2958  0.6636  0.8209
84186SOL     OW64536  13.602  10.381   7.201 -0.1882  0.0916  0.0370
84186SOL    HW164537  13.591  10.291   7.232  1.6761  0.5306  2.2764
84186SOL    HW264538  13.532  10.430   7.245 -0.7307 -0.1175 -0.5787
84187SOL     OW64539   0.170   6.910   4.859  0.0480  0.2272  0.1838
84187SOL    HW164540   0.253   6.923   4.904  0.7755 -1.1397 -0.6767
84187SOL    HW264541   0.129   6.837   4.905 -1.2274  1.5858  1.2916
84188SOL     OW64542  10.305   8.204  13.364  0.1689 -0.1094  0.3636
84188SOL    HW164543  10.355   8.194  13.283  0.1041 -1.7947  0.4796
84188SOL    HW264544  10.217   8.173  13.341 -0.0812  0.2397  0.8476
84189SOL     OW64545   6.965   5.577   7.923  0.5191 -0.3294 -0.1446
84189SOL    HW164546   6.896   5.641   7.904  0.5343  0.1350  1.2848
84189SOL    HW264547   7.033   5.596   7.858 -1.1540 -1.6022 -2.4136
84190SOL     OW64548  13.455   4.840   2.239 -0.0724  0.7914  0.2301
84190SOL    HW164549  13.479   4.890   2.161 -0.6555 -1.5368 -1.5541
84190SOL    HW264550  13.503   4.758   2.231 -3.3288 -1.3014 -0.0356
84191SOL     OW64551  13.580  11.231   1.962 -0.1997 -0.3614 -0.2238
84191SOL    HW164552  13.660  11.264   2.004  0.3472 -1.4094 -0.3854
84191SOL    HW264553  13.608  11.150   1.919 -0.5966  0.8587 -3.0577
84192SOL     OW64554   1.339  10.687   8.998  0.5342 -0.1171  0.0276
84192SOL    HW164555   1.329  10.639   9.080  1.7145 -1.5137 -0.6130
84192SOL    HW264556   1.433  10.692   8.984  0.3898  1.0559 -0.7198
84193SOL     OW64557  12.382  12.502   9.993 -0.2335  0.2301  0.5492
84193SOL    HW164558  12.310  12.480  10.052  0.4463 -0.2407  1.2252
84193SOL    HW264559  12.362  12.591   9.963  0.2375  1.1763  2.8139
84194SOL     OW64560   2.396   4.640   6.349  0.0298 -0.2538 -0.3282
84194SOL    HW164561   2.425   4.725   6.380 -1.4828  0.8074 -1.6735
84194SOL    HW264562   2.460   4.578   6.384 -0.2869  1.0667  2.9042
84195SOL     OW64563   4.279   2.259   8.755  0.6194  0.0861 -0.2868
84195SOL    HW164564   4.285   2.321   8.828 -0.0134 -0.1538 -0.0283
84195SOL    HW264565   4.281   2.315   8.677 -2.0566  0.6538 -0.0321
84196SOL     OW64566   4.721  11.610   0.480 -0.3544 -0.1810 -0.0130
84196SOL    HW164567   4.783  11.676   0.451 -0.0237 -0.2671  0.4763
84196SOL    HW264568   4.660  11.657   0.536  0.2546 -0.3913  0.8531
84197SOL     OW64569   7.013   3.188   6.592 -0.7989 -0.6082 -0.6482
84197SOL    HW164570   6.988   3.097   6.608 -2.4090  0.0767  1.1625
84197SOL    HW264571   6.929   3.235   6.583 -0.3860  1.4789  3.7101
84198SOL     OW64572  12.872   1.834   4.687 -0.2615 -0.5727 -0.0213
84198SOL    HW164573  12.932   1.869   4.622 -1.9580  0.6144 -1.0245
84198SOL    HW264574  12.918   1.843   4.771 -0.2017  3.3342 -0.2953
84199SOL     OW64575   8.234   9.031   5.408  0.0611  0.0450  0.4634
84199SOL    HW164576   8.260   8.961   5.468  0.1090 -0.7121 -0.4174
84199SOL    HW264577   8.239   9.111   5.461  0.2848 -0.5775  1.4080
84200SOL     OW64578   5.336   7.163   1.476  0.4772 -0.4123  0.1208
84200SOL    HW164579   5.286   7.187   1.555  1.7875 -0.8812  1.1394
84200SOL    HW264580   5.407   7.227   1.473  1.4516 -1.4503  0.3379
84201SOL     OW64581   7.212  11.150   0.460 -0.2111 -0.6972  0.4713
84201SOL    HW164582   7.203  11.232   0.412 -0.8940 -1.1948 -0.2894
84201SOL    HW264583   7.214  11.175   0.552 -1.0399  0.1323  0.2781
84202SOL     OW64584   0.427   1.038   1.779 -0.5837 -0.0819  0.0269
84202SOL    HW164585   0.370   0.974   1.737  1.0914 -3.1211  1.9849
84202SOL    HW264586   0.385   1.054   1.864 -0.5446  0.8275 -0.1157
84203SOL     OW64587   3.401   6.104   4.271  0.0716 -0.2197  0.2247
84203SOL    HW164588   3.351   6.028   4.240  1.1327 -1.2324  0.8917
84203SOL    HW264589   3.341   6.178   4.263 -1.0954 -1.1823 -0.1692
84204SOL     OW64590  11.184  12.677   6.942 -0.7098  0.0955 -0.0059
84204SOL    HW164591  11.139  12.716   6.866  0.1797  0.4108 -0.3861
84204SOL    HW264592  11.215  12.752   6.992  1.8114 -0.0292 -1.2146
84205SOL     OW64593   0.777  13.076   8.739  0.4086  0.1784  0.1198
84205SOL    HW164594   0.771  13.086   8.834 -1.6841  2.0407 -0.1196
84205SOL    HW264595   0.844  13.009   8.726  1.4295  0.5479  2.8533
84206SOL     OW64596  10.321   3.805   3.704  0.3403  0.4919 -0.5260
84206SOL    HW164597  10.328   3.755   3.623  0.5656  0.8421 -0.7256
84206SOL    HW264598  10.231   3.836   3.706  0.1339 -0.1016 -0.2902
84207SOL     OW64599  11.717   9.924   2.835  0.2234  0.7890  0.1988
84207SOL    HW164600  11.648   9.858   2.826  0.0215  1.1516 -1.1746
84207SOL    HW264601  11.671  10.004   2.860  0.0407  1.1605 -1.2242
84208SOL     OW64602   7.776   2.227   2.669 -0.1793  0.1529  0.5471
84208SOL    HW164603   7.700   2.172   2.650 -0.9748  1.6716 -0.9567
84208SOL    HW264604   7.739   2.313   2.691  0.9896  1.7949 -3.0454
84209SOL     OW64605   4.530   2.746   1.784  0.1455 -0.5930  0.2168
84209SOL    HW164606   4.436   2.763   1.796  0.2616  0.7483 -0.6516
84209SOL    HW264607   4.554   2.692   1.859 -1.4151 -1.3376  0.2188
84210SOL     OW64608   5.662  13.775  13.483  0.6898 -0.6968  0.1976
84210SOL    HW164609   5.588  13.718  13.505 -0.9572  1.4433  0.5728
84210SOL    HW264610   5.674  13.829  13.561  2.3438 -0.6444 -0.0651
84211SOL     OW64611  10.572   1.863  10.577  0.4819  0.0027  0.0749
84211SOL    HW164612  10.500   1.802  10.559 -0.0607  0.1948  1.4658
84211SOL    HW264613  10.579   1.864  10.672  2.9586 -0.6997 -0.0408
84212SOL     OW64614  12.861   6.379   3.980  0.4116  0.5053  0.5813
84212SOL    HW164615  12.935   6.358   4.038  2.5169  2.3191 -1.2608
84212SOL    HW264616  12.852   6.302   3.924  1.9949  0.8256 -0.1751
84213SOL     OW64617  11.288   7.414   4.431 -0.0656 -0.2112 -0.1758
84213SOL    HW164618  11.343   7.490   4.415  1.0637 -0.9806 -0.0655
84213SOL    HW264619  11.304   7.356   4.356  0.8935 -1.3381  0.8437
84214SOL     OW64620   0.956   6.463   6.056 -0.3952  0.2104 -0.3207
84214SOL    HW164621   0.974   6.543   6.006 -0.0981  0.3667  0.0306
84214SOL    HW264622   1.042   6.436   6.088  0.1608 -2.2614 -3.3648
84215SOL     OW64623   9.963  10.039   9.695  0.5874 -0.3244  0.1521
84215SOL    HW164624  10.050  10.008   9.719 -0.5641 -2.1233  2.3377
84215SOL    HW264625   9.921   9.964   9.652 -0.0518  0.3826 -0.5101
84216SOL     OW64626   8.218   3.916  12.310  0.3758 -0.6538  0.3128
84216SOL    HW164627   8.296   3.937  12.260 -1.4393  0.1530 -2.4293
84216SOL    HW264628   8.224   3.821  12.325  0.5962 -1.1350 -2.3628
84217SOL     OW64629   5.519  13.924   2.553  0.2459 -0.0786 -0.1148
84217SOL    HW164630   5.562  13.974   2.484 -3.2611 -0.7980 -3.0995
84217SOL    HW264631   5.475  13.991   2.606  0.7348  0.3201 -0.1978
84218SOL     OW64632  10.634   3.883   8.724  0.2740  0.2947  0.1888
84218SOL    HW164633  10.654   3.918   8.638  1.1189 -2.3067 -0.7657
84218SOL    HW264634  10.701   3.919   8.782  2.3899 -1.2022 -1.1689
84219SOL     OW64635   4.287   4.090   7.752 -0.4698 -0.1098  0.3161
84219SOL    HW164636   4.210   4.033   7.758 -0.6930  0.1513  0.0043
84219SOL    HW264637   4.251   4.179   7.758  0.0365 -0.0015  2.5678
84220SOL     OW64638  13.044   5.939   1.925  0.5687 -0.0218 -0.4856
84220SOL    HW164639  13.119   5.980   1.968 -0.3345  0.0595  1.1047
84220SOL    HW264640  13.056   5.845   1.941  0.9928 -0.1211 -1.3586
84221SOL     OW64641   3.503   9.144   8.212  0.2533 -0.0334  0.5516
84221SOL    HW164642   3.567   9.086   8.171 -0.2770 -1.2231  1.3642
84221SOL    HW264643   3.538   9.232   8.196 -0.0662 -0.3818 -2.6181
84222SOL     OW64644   0.270  10.847  12.213 -0.4712 -0.2763 -0.2174
84222SOL    HW164645   0.255  10.940  12.231 -0.3762 -0.1148 -0.9450
84222SOL    HW264646   0.344  10.845  12.153 -0.5042 -0.8200 -0.2497
84223SOL     OW64647  14.007  13.705  11.563  0.0464  0.0642  0.0679
84223SOL    HW164648  14.076  13.689  11.628 -0.5399 -1.3930  0.3691
84223SOL    HW264649  14.048  13.684  11.479  0.6190  1.3588  0.0000
84224SOL     OW64650   8.596   8.803  12.388 -0.4088  0.4059  0.0384
84224SOL    HW164651   8.638   8.867  12.445  1.5691  0.0449 -0.9571
84224SOL    HW264652   8.629   8.718  12.419 -0.3442  0.1120 -0.8083
84225SOL     OW64653   4.033   2.276  12.400  0.2079  0.3265 -0.0400
84225SOL    HW164654   4.084   2.264  12.480  1.6340 -0.8231 -1.0606
84225SOL    HW264655   3.979   2.197  12.394  0.0687  0.4325 -0.1958
84226SOL     OW64656   9.669   0.256   2.662  0.4013 -0.3549  0.0666
84226SOL    HW164657   9.598   0.280   2.722  0.3880 -0.1071 -0.0474
84226SOL    HW264658   9.638   0.283   2.576  1.7640  2.3713  0.3323
84227SOL     OW64659  13.169   5.808   9.464 -0.5992  0.2514  0.1008
84227SOL    HW164660  13.143   5.727   9.422  0.5375 -1.2175  2.0634
84227SOL    HW264661  13.110   5.874   9.427 -1.4327 -1.3908 -1.6827
84228SOL     OW64662   6.056   4.174   6.292  0.5116 -0.1321 -0.0363
84228SOL    HW164663   6.111   4.230   6.346 -0.5015  0.8906 -0.0224
84228SOL    HW264664   5.985   4.147   6.351 -0.5171  0.8586 -0.7723
84229SOL     OW64665  12.823  13.669  12.697  0.6004  0.3288 -0.5705
84229SOL    HW164666  12.886  13.700  12.762 -0.1297  0.9720 -0.1568
84229SOL    HW264667  12.810  13.577  12.718  1.1124  0.2826 -0.4315
84230SOL     OW64668   9.025   6.360  10.530  0.0721 -0.3207  0.2891
84230SOL    HW164669   9.010   6.396  10.618 -0.6100  1.6498 -0.5801
84230SOL    HW264670   8.948   6.306  10.512 -0.0344 -0.3073  0.6901
84231SOL     OW64671   4.832  13.183   8.530  0.5897 -0.6085 -0.0570
84231SOL    HW164672   4.822  13.148   8.441  0.2120  1.2074 -0.7790
84231SOL    HW264673   4.924  13.208   8.536  0.3965  0.1999 -0.3254
84232SOL     OW64674   1.189   8.342   3.685 -0.6228  0.2798  0.0328
84232SOL    HW164675   1.162   8.331   3.776  0.6888 -0.7677  0.3081
84232SOL    HW264676   1.284   8.329   3.685 -0.5420  0.6243 -1.4339
84233SOL     OW64677  11.956   9.023   7.349  0.1504  0.4823  0.5606
84233SOL    HW164678  11.899   9.015   7.426 -1.0364 -0.7595 -0.4040
84233SOL    HW264679  12.008   8.943   7.349 -0.7811 -0.1419 -0.6331
84234SOL     OW64680  10.871   1.354   9.462  0.0838 -0.3306  0.0780
84234SOL    HW164681  10.910   1.322   9.381 -1.1273  0.5681 -0.8778
84234SOL    HW264682  10.834   1.276   9.503  0.9929 -0.8421 -0.0506
84235SOL     OW64683   1.758   7.966   1.309 -0.1399  0.1000 -0.3086
84235SOL    HW164684   1.852   7.981   1.305 -0.3511  1.1582 -2.8094
84235SOL    HW264685   1.729   8.015   1.386  1.2762  0.0700  0.2764
84236SOL     OW64686   4.975   7.084   1.879 -0.1262 -0.1698 -0.5913
84236SOL    HW164687   4.946   7.032   1.804 -1.7667  1.4557 -1.1439
84236SOL    HW264688   4.906   7.148   1.892  0.8781  0.5952  1.3457
84237SOL     OW64689  13.006  11.998   6.600 -0.1538 -0.1959  0.2374
84237SOL    HW164690  13.067  11.980   6.672 -0.8639  1.0958  1.2018
84237SOL    HW264691  12.921  11.970   6.633 -0.6682  1.4059  0.3700
84238SOL     OW64692   8.698   3.335   5.500  0.2737  0.3247 -0.6111
84238SOL    HW164693   8.788   3.336   5.532  1.1027 -0.1779 -2.7513
84238SOL    HW264694   8.670   3.244   5.510 -0.6415  0.7610  1.5149
84239SOL     OW64695   3.211   6.806   6.382  0.2646  0.0673  0.8573
84239SOL    HW164696   3.200   6.821   6.476 -0.3835  2.8343  0.4240
84239SOL    HW264697   3.246   6.889   6.349  0.3407 -0.8016 -1.3880
84240SOL     OW64698   8.701  12.931  11.093 -0.4477 -0.5145 -0.2850
84240SOL    HW164699   8.794  12.910  11.083 -0.3156  0.6796 -2.4227
84240SOL    HW264700   8.664  12.919  11.005 -2.8871 -3.1168  0.9158
84241SOL     OW64701  10.266  10.371  10.238 -0.0897  0.8897  0.3712
84241SOL    HW164702  10.360  10.378  10.254  0.1372  0.4303 -0.6110
84241SOL    HW264703  10.226  10.439  10.292  0.7914  0.9769  0.9291
84242SOL     OW64704   3.937  10.162   9.379  0.1867  0.1084  0.2895
84242SOL    HW164705   3.973  10.249   9.397 -1.2097  0.3858  2.0544
84242SOL    HW264706   3.990  10.103   9.432  0.4014  0.0318 -0.0104
84243SOL     OW64707   9.788   4.852   3.526 -0.7727 -0.2562  0.2003
84243SOL    HW164708   9.755   4.844   3.437  0.6182 -0.7997 -0.2952
84243SOL    HW264709   9.743   4.928   3.562 -2.1210 -0.6420 -0.6055
84244SOL     OW64710   2.913   1.598   5.779 -1.0190  0.2516  0.1627
84244SOL    HW164711   2.940   1.591   5.688 -0.2388 -1.6781  0.4839
84244SOL    HW264712   2.819   1.583   5.778 -0.7475 -1.6290 -0.1853
84245SOL     OW64713   0.853   1.858   5.289 -0.0185  0.3658 -0.6383
84245SOL    HW164714   0.826   1.949   5.280 -2.8639 -0.1869  1.3256
84245SOL    HW264715   0.885   1.850   5.379 -0.7648 -0.7851 -0.4517
84246SOL     OW64716   1.131  12.603  11.228 -0.7310  0.0483 -0.0962
84246SOL    HW164717   1.136  12.689  11.186 -1.1062  0.8164  1.3781
84246SOL    HW264718   1.049  12.565  11.196 -0.7582  0.3989 -0.4476
84247SOL     OW64719  11.339   8.384   9.190  0.5125  0.4072  0.0000
84247SOL    HW164720  11.287   8.304   9.182 -1.3857  1.6555 -1.0922
84247SOL    HW264721  11.335   8.406   9.283  0.0304 -0.1378  0.1146
84248SOL     OW64722   0.830   2.414   4.829 -0.8678  0.4042 -0.2885
84248SOL    HW164723   0.925   2.401   4.833 -0.8646  0.6709  1.4054
84248SOL    HW264724   0.812   2.477   4.899 -2.2257  0.8519 -1.0133
84249SOL     OW64725   7.203  10.540  11.204  0.4172 -0.0069  0.3984
84249SOL    HW164726   7.199  10.491  11.287 -0.8158 -1.0228 -0.2286
84249SOL    HW264727   7.291  10.579  11.204  1.3986 -2.0654  1.0364
84250SOL     OW64728  10.909   7.805   2.391  0.7892 -0.5784 -0.1180
84250SOL    HW164729  10.876   7.824   2.303 -0.2202 -3.6165 -0.5189
84250SOL    HW264730  11.004   7.801   2.381  0.7424  0.0598 -0.8527
84251SOL     OW64731   6.980   6.007  13.450 -0.1742 -0.0036  0.0362
84251SOL    HW164732   7.065   6.049  13.437  0.4304 -1.4035 -0.8583
84251SOL    HW264733   6.992   5.950  13.525 -0.1993 -0.4870 -0.3212
84252SOL     OW64734   8.117   7.885  11.714 -0.6060  0.5426  0.1075
84252SOL    HW164735   8.084   7.966  11.674 -0.3870  1.1435  1.1080
84252SOL    HW264736   8.212   7.892  11.708 -0.5962 -0.1311 -0.7225
84253SOL     OW64737  13.266   3.465  10.371  0.0630 -0.2831 -0.0296
84253SOL    HW164738  13.193   3.473  10.433 -0.4022 -1.5458 -0.3857
84253SOL    HW264739  13.260   3.544  10.317 -0.6711 -0.0867  0.3248
84254SOL     OW64740   6.830   6.986  13.273 -0.2361 -0.7616 -0.0118
84254SOL    HW164741   6.756   6.927  13.264 -1.1799  0.2766  0.6925
84254SOL    HW264742   6.842   7.024  13.186 -0.2243 -1.2799 -0.2392
84255SOL     OW64743   2.269   6.242  11.493  0.9870 -0.1565  0.3309
84255SOL    HW164744   2.306   6.285  11.570 -0.9653  1.0571  0.6564
84255SOL    HW264745   2.185   6.208  11.522  0.0886  0.5390 -1.2921
84256SOL     OW64746  11.147  13.334   3.483  0.0266 -0.2902  0.0662
84256SOL    HW164747  11.242  13.340   3.478 -0.0872  0.4900 -2.0524
84256SOL    HW264748  11.118  13.340   3.392 -1.9993 -1.5584  0.5758
84257SOL     OW64749  13.889   0.545   1.447  0.2361 -0.9710 -0.0702
84257SOL    HW164750  13.926   0.468   1.490  0.0945 -1.0475 -0.0846
84257SOL    HW264751  13.866   0.515   1.359  2.1270 -0.3875 -0.8208
84258SOL     OW64752   6.557   2.963   0.749 -0.2640 -0.2929  0.8858
84258SOL    HW164753   6.571   3.014   0.829  1.2980 -1.7598  1.6009
84258SOL    HW264754   6.578   3.025   0.678 -1.3390  0.9238  1.5839
84259SOL     OW64755   2.826   3.742   7.975  0.0952  0.0838 -0.0656
84259SOL    HW164756   2.854   3.815   8.030  1.2186  1.0438 -1.8143
84259SOL    HW264757   2.906   3.693   7.959 -0.5738 -1.3118  0.7185
84260SOL     OW64758   7.486   3.896   6.401 -0.1919  0.3924  0.3196
84260SOL    HW164759   7.424   3.851   6.458  0.0193 -0.8387 -0.3986
84260SOL    HW264760   7.562   3.838   6.398 -0.0990  0.5619 -1.0110
84261SOL     OW64761   1.372   3.604   9.904 -0.0747 -0.2431 -0.1487
84261SOL    HW164762   1.385   3.602   9.809 -0.3181 -0.0876 -0.1864
84261SOL    HW264763   1.289   3.558   9.917  0.7544 -1.7127  0.1369
84262SOL     OW64764   1.017   8.981  12.761 -0.4521 -0.0454 -0.1723
84262SOL    HW164765   0.987   8.987  12.851  0.6093 -0.2053  0.2136
84262SOL    HW264766   0.938   8.984  12.708 -1.1774 -1.1607  0.8097
84263SOL     OW64767  10.235  12.046   2.104 -0.1950  0.1385  0.1197
84263SOL    HW164768  10.179  12.024   2.179  0.2966  0.2177  0.5171
84263SOL    HW264769  10.197  12.127   2.069 -0.1508  0.3604  0.5765
84264SOL     OW64770   0.369   7.906   7.908  0.6130  0.4010 -0.8323
84264SOL    HW164771   0.281   7.879   7.934 -0.2150  1.4781 -2.3373
84264SOL    HW264772   0.376   7.997   7.937  0.1113  1.2386 -3.0624
84265SOL     OW64773   2.655  12.905  11.801  0.4221 -0.2807 -0.1100
84265SOL    HW164774   2.646  12.986  11.751 -1.8138  0.8411  1.9607
84265SOL    HW264775   2.712  12.928  11.874 -0.3397 -0.5257  0.5677
84266SOL     OW64776   0.333   6.483   3.830  0.2229  0.1722 -0.2864
84266SOL    HW164777   0.416   6.516   3.798  0.3274  0.6227  0.4159
84266SOL    HW264778   0.308   6.544   3.899  0.6236 -1.4149  1.3508
84267SOL     OW64779   5.240  11.111   0.558  0.4146  0.0398  0.7904
84267SOL    HW164780   5.153  11.094   0.595  0.3581 -0.8895  0.2611
84267SOL    HW264781   5.264  11.030   0.515  0.3202  1.1623 -1.5365
84268SOL     OW64782   6.521   0.917  11.491  0.2847 -0.2110 -0.4697
84268SOL    HW164783   6.555   0.977  11.425  1.7105  1.0006  1.2791
84268SOL    HW264784   6.429   0.943  11.502  0.8943  1.7769  0.3135
84269SOL     OW64785   0.795  12.595  12.553  0.3708 -0.0174 -0.4966
84269SOL    HW164786   0.796  12.499  12.547 -0.0516  0.0053 -1.0425
84269SOL    HW264787   0.702  12.618  12.546  0.1915  0.3178  1.9150
84270SOL     OW64788   0.749   6.675   8.122 -0.3126 -0.4005  0.7931
84270SOL    HW164789   0.813   6.680   8.193 -0.0920 -0.0560  0.5737
84270SOL    HW264790   0.774   6.745   8.062  1.0026 -2.1760 -0.8823
84271SOL     OW64791   1.342  13.345  10.827 -0.6916  0.0526  0.2700
84271SOL    HW164792   1.274  13.307  10.773 -0.7387  1.2458 -0.5555
84271SOL    HW264793   1.362  13.278  10.892  0.1392 -1.8908 -1.8565
84272SOL     OW64794   5.639  10.137  10.040  0.4055  0.5170  0.2315
84272SOL    HW164795   5.693  10.205  10.081  0.8012  0.2527  0.1476
84272SOL    HW264796   5.598  10.093  10.114  0.6090  0.4641  0.3131
84273SOL     OW64797   3.848  11.886   4.192 -0.0193  0.1349 -0.4647
84273SOL    HW164798   3.817  11.935   4.115 -0.7205  0.9108  0.2852
84273SOL    HW264799   3.796  11.921   4.264  1.1392 -0.0665  0.4867
84274SOL     OW64800  11.874   6.566  13.973  0.3215  0.3292 -0.0748
84274SOL    HW164801  11.902   6.540  14.060  0.7786 -2.3316 -0.9428
84274SOL    HW264802  11.814   6.639  13.988  0.8768  0.3638  2.3906
84275SOL     OW64803   7.858   2.825   9.756 -0.2165 -0.1819 -0.5598
84275SOL    HW164804   7.867   2.738   9.794  0.7557 -0.6196 -1.7701
84275SOL    HW264805   7.947   2.853   9.736 -0.3591  1.6959  1.0779
84276SOL     OW64806   9.164  10.331   3.908  0.0546  0.0400 -0.1166
84276SOL    HW164807   9.150  10.401   3.844  0.2148 -1.7419 -2.2251
84276SOL    HW264808   9.111  10.357   3.984 -1.1355  1.6731 -1.4205
84277SOL     OW64809  13.422  13.598   3.177 -0.4474 -0.8305 -0.2556
84277SOL    HW164810  13.378  13.554   3.250 -0.5756 -1.9093 -0.9586
84277SOL    HW264811  13.417  13.535   3.105  1.7043 -0.7508 -0.5510
84278SOL     OW64812   9.147   5.597   9.136 -0.1727  0.1194  0.5503
84278SOL    HW164813   9.201   5.655   9.190  0.6413  0.0234 -0.1322
84278SOL    HW264814   9.110   5.655   9.069 -0.5370  0.0967  0.7274
84279SOL     OW64815  12.224  12.663  10.237 -0.5734 -0.0137 -0.4675
84279SOL    HW164816  12.265  12.699  10.159 -0.9741  1.3891 -0.0733
84279SOL    HW264817  12.279  12.693  10.310 -1.3726  0.5234 -0.0640
84280SOL     OW64818  10.286   9.321  12.561  0.7051 -0.4360  0.0846
84280SOL    HW164819  10.361   9.375  12.586  1.0146 -0.0596 -1.5517
84280SOL    HW264820  10.224   9.332  12.634  1.5935  0.4932  0.7353
84281SOL     OW64821  12.758   1.768   8.561  0.1554 -0.3470 -1.0182
84281SOL    HW164822  12.715   1.702   8.506  0.9915 -0.9963 -0.9105
84281SOL    HW264823  12.846   1.776   8.525  0.5622 -0.4231 -0.0731
84282SOL     OW64824   8.204   9.785   8.274  0.2116 -0.2447 -0.4380
84282SOL    HW164825   8.128   9.841   8.286 -0.2510 -1.0292  0.4079
84282SOL    HW264826   8.168   9.696   8.271  1.1194 -0.6522  0.3488
84283SOL     OW64827  10.065  12.052   3.346  0.2863  0.0175  0.4305
84283SOL    HW164828  10.005  12.039   3.419  0.4236 -0.8328  0.3981
84283SOL    HW264829  10.069  12.147   3.335  1.0520  0.2276  2.1859
84284SOL     OW64830  13.578  13.055   2.170 -0.5030 -0.0802 -0.1493
84284SOL    HW164831  13.662  13.031   2.210 -0.3994  0.9010  0.2758
84284SOL    HW264832  13.518  12.986   2.196  0.1896 -0.8303 -0.5145
84285SOL     OW64833   2.288   8.249  12.199  0.6257 -0.3843  1.0872
84285SOL    HW164834   2.242   8.213  12.123  0.7157  1.6095 -0.0071
84285SOL    HW264835   2.381   8.242  12.176  0.6774 -0.3233  1.2735
84286SOL     OW64836   1.508  11.968   0.725  0.8529  0.5201  0.4745
84286SOL    HW164837   1.440  12.015   0.677  1.5262  0.4253 -0.6106
84286SOL    HW264838   1.516  12.015   0.808 -0.2390  0.7796  0.4416
84287SOL     OW64839   7.119  11.689   8.268 -0.2085  0.6180 -0.1714
84287SOL    HW164840   7.033  11.682   8.308  0.2757  0.5582  0.8781
84287SOL    HW264841   7.111  11.643   8.185 -0.7829 -0.6626  0.5792
84288SOL     OW64842   1.132   3.562   9.973 -0.2560 -0.1313  0.0969
84288SOL    HW164843   1.162   3.579  10.062 -2.0655 -0.0808  0.7520
84288SOL    HW264844   1.081   3.640   9.950  0.6014  0.0755 -1.2004
84289SOL     OW64845   0.829   1.190   5.932 -0.1087 -0.5592  0.9566
84289SOL    HW164846   0.889   1.116   5.931  0.0655 -0.4361  1.5655
84289SOL    HW264847   0.744   1.153   5.908  0.6095 -0.3153 -2.4087
84290SOL     OW64848   0.577   4.266   2.184 -0.0923  0.7892  0.1816
84290SOL    HW164849   0.497   4.317   2.178  0.2998  1.4906  0.7027
84290SOL    HW264850   0.588   4.250   2.278  1.3003  2.2391  0.3075
84291SOL     OW64851  12.369   9.503  10.022 -0.4365 -0.1018  0.3769
84291SOL    HW164852  12.360   9.591   9.987  0.4991 -0.4888 -0.9340
84291SOL    HW264853  12.282   9.464  10.013 -0.9180  0.7471  1.1991
84292SOL     OW64854  13.311   9.066   9.340 -0.4691 -0.2173 -0.3716
84292SOL    HW164855  13.323   8.997   9.405 -2.6646 -0.0566  0.2938
84292SOL    HW264856  13.323   9.022   9.256  2.8171 -0.3449  0.0203
84293SOL     OW64857   8.254   7.559   8.753 -0.0044  0.0109 -0.2222
84293SOL    HW164858   8.286   7.492   8.813 -1.1056 -0.1668  0.1896
84293SOL    HW264859   8.235   7.635   8.809  2.1456  1.0430 -0.8037
84294SOL     OW64860  12.182   8.624  12.633 -0.0538  0.5479  0.2194
84294SOL    HW164861  12.202   8.607  12.541 -0.3498  2.7218 -0.3005
84294SOL    HW264862  12.259   8.670  12.666 -0.0221 -0.0638  1.0261
84295SOL     OW64863  12.733   9.035  12.503  0.3690  0.3953  0.2343
84295SOL    HW164864  12.823   9.009  12.526 -0.0360 -0.0558  1.3917
84295SOL    HW264865  12.714   9.108  12.561 -1.1479 -1.6060  2.4691
84296SOL     OW64866   7.878  13.349   6.159  0.1561 -0.3432  0.5226
84296SOL    HW164867   7.898  13.256   6.173 -0.8710 -0.5038  1.0579
84296SOL    HW264868   7.803  13.348   6.099  0.6084  0.1691 -0.0598
84297SOL     OW64869  10.214   3.121  11.949 -0.0751 -0.1422 -0.1512
84297SOL    HW164870  10.240   3.084  11.865  1.8734  0.5151  0.1166
84297SOL    HW264871  10.127   3.158  11.933 -0.4003 -1.3627 -1.4361
84298SOL     OW64872   0.661   8.583   2.959  0.1793 -0.2101 -0.1998
84298SOL    HW164873   0.597   8.577   3.031  0.7202  1.4550  0.4788
84298SOL    HW264874   0.607   8.591   2.880 -0.4669  0.1368  0.2576
84299SOL     OW64875   9.172   8.772   3.675  0.0929 -0.0768  0.2939
84299SOL    HW164876   9.141   8.854   3.713  0.3507 -0.1243  0.6094
84299SOL    HW264877   9.237   8.799   3.610 -0.9156  0.0489 -0.6979
84300SOL     OW64878   3.043   9.107   9.206  0.0573 -0.0278  0.1618
84300SOL    HW164879   3.021   9.017   9.185 -0.7918  0.2206 -0.0393
84300SOL    HW264880   2.960   9.148   9.230  0.5411  0.5001  1.0347
84301SOL     OW64881   1.447  11.473   3.829 -0.1159 -0.4787  0.4911
84301SOL    HW164882   1.491  11.392   3.803  3.0083  1.2365 -0.1257
84301SOL    HW264883   1.471  11.486   3.920  0.0566  0.1139  0.3666
84302SOL     OW64884  11.530  10.377  12.113  0.6888  0.4653  0.1417
84302SOL    HW164885  11.458  10.321  12.084  0.3019  0.7269  0.5840
84302SOL    HW264886  11.490  10.437  12.177  0.8155  2.1058 -1.2447
84303SOL     OW64887   3.138   0.613  11.873 -0.4275  0.9073  0.4774
84303SOL    HW164888   3.101   0.536  11.828  0.5100  1.6606 -1.7440
84303SOL    HW264889   3.064   0.651  11.921 -1.4991 -0.0036 -0.3901
84304SOL     OW64890   6.122   9.027  10.924  0.3247  0.6176 -0.3509
84304SOL    HW164891   6.181   9.095  10.891 -0.6263  1.2185 -0.8886
84304SOL    HW264892   6.061   9.074  10.981 -0.9844  0.4405 -1.5335
84305SOL     OW64893   9.209   0.824   4.590  0.4235 -0.5662  0.4367
84305SOL    HW164894   9.289   0.876   4.603  1.0378 -1.5481  0.6749
84305SOL    HW264895   9.149   0.855   4.657  1.1373 -0.8324  1.2230
84306SOL     OW64896   4.231  12.778   7.041 -0.2565 -0.5933  0.0144
84306SOL    HW164897   4.292  12.847   7.069  0.8199 -1.1834 -0.8149
84306SOL    HW264898   4.149  12.825   7.023  0.1220  0.3050  0.5423
84307SOL     OW64899   4.684   1.424  13.939 -0.4915  0.5410  0.1145
84307SOL    HW164900   4.602   1.469  13.924 -0.0389  1.4560  0.3499
84307SOL    HW264901   4.731   1.431  13.855 -0.3643  0.6333  0.1926
84308SOL     OW64902   7.626  13.467   2.663  0.4223 -0.4180 -0.3062
84308SOL    HW164903   7.575  13.514   2.597  2.1677  1.9922 -0.0822
84308SOL    HW264904   7.574  13.474   2.743  1.0169  2.1266 -0.0411
84309SOL     OW64905   8.682   3.846   8.091  0.0060  0.0194  0.5532
84309SOL    HW164906   8.589   3.842   8.114  0.1777  0.1346  1.3074
84309SOL    HW264907   8.684   3.893   8.007 -0.9144 -3.3247 -1.5246
84310SOL     OW64908   5.474   8.677  13.823 -0.5813 -0.1747  0.0962
84310SOL    HW164909   5.432   8.683  13.738  1.2865  1.0419 -0.8100
84310SOL    HW264910   5.562   8.643  13.804 -0.0824  0.2556  1.5093
84311SOL     OW64911   3.253   9.410  11.329  0.6340 -0.6251  0.3443
84311SOL    HW164912   3.345   9.426  11.308  0.6005  0.3067  0.8381
84311SOL    HW264913   3.247   9.430  11.422 -0.4937  1.4349 -0.1127
84312SOL     OW64914   1.461   5.794   0.710  0.0240 -0.4656  0.4828
84312SOL    HW164915   1.441   5.879   0.670  1.8883 -0.4574 -0.5274
84312SOL    HW264916   1.478   5.736   0.636 -0.6630 -1.6065  1.1840
84313SOL     OW64917  12.118   1.221   4.307 -0.0879  0.4297  0.9558
84313SOL    HW164918  12.137   1.147   4.249 -1.6781  0.4770  0.3311
84313SOL    HW264919  12.031   1.251   4.281  0.2455  2.1327  1.6183
84314SOL     OW64920   8.480   5.513   5.767  0.3380 -0.4932  0.1523
84314SOL    HW164921   8.508   5.566   5.842  0.5220 -0.8427  0.3332
84314SOL    HW264922   8.469   5.576   5.696 -0.7918 -0.0098  0.7206
84315SOL     OW64923  10.910   5.872  12.900  0.3059  0.0212  0.1352
84315SOL    HW164924  10.834   5.849  12.847  0.7686 -2.2384  0.3456
84315SOL    HW264925  10.913   5.968  12.898 -1.8648  0.1191 -0.7902
84316SOL     OW64926   6.550   3.986   9.951 -0.2948  0.0282  0.4860
84316SOL    HW164927   6.509   3.915   9.902 -0.3139 -0.8660  1.7405
84316SOL    HW264928   6.633   4.001   9.907 -0.0086 -1.2307  0.5585
84317SOL     OW64929   2.507  13.799   6.785 -0.2325  0.0978  0.0394
84317SOL    HW164930   2.519  13.894   6.797 -0.4303 -0.0816  1.8915
84317SOL    HW264931   2.486  13.790   6.692 -3.3948  2.2509  0.3435
84318SOL     OW64932   1.165   1.685   0.794 -0.0186  0.7796  0.5292
84318SOL    HW164933   1.197   1.737   0.868  1.2617 -0.6718  1.0763
84318SOL    HW264934   1.078   1.655   0.822  1.2299 -1.4080  2.4430
84319SOL     OW64935  11.104  12.912   9.768 -0.3115  0.1198 -0.2680
84319SOL    HW164936  11.119  12.957   9.684 -2.4558  2.0576  0.2957
84319SOL    HW264937  11.046  12.971   9.817 -0.0825 -1.5134  2.1313
84320SOL     OW64938   4.130   4.328   5.238  0.4354  0.2528 -0.0902
84320SOL    HW164939   4.050   4.373   5.213  0.7765  0.7429 -0.3326
84320SOL    HW264940   4.161   4.375   5.316  0.3735 -0.0706  0.1319
84321SOL     OW64941   6.427   5.644  12.199  0.2544 -0.6614 -0.3907
84321SOL    HW164942   6.478   5.667  12.277  0.5861  1.3962 -1.1530
84321SOL    HW264943   6.491   5.606  12.139  0.3986 -0.3960 -0.4063
84322SOL     OW64944   2.649   8.752  11.677 -0.1750 -0.0490  0.1124
84322SOL    HW164945   2.722   8.771  11.618 -1.6837 -0.5434 -1.9962
84322SOL    HW264946   2.663   8.661  11.702 -0.0043 -0.1042 -0.1772
84323SOL     OW64947   9.930   3.379  13.234 -0.2281 -0.0676  0.0955
84323SOL    HW164948   9.854   3.335  13.273 -0.6040  0.1461 -0.3672
84323SOL    HW264949   9.984   3.406  13.308 -0.5446 -0.3360  0.4268
84324SOL     OW64950  10.346   9.936   8.194  0.1520 -0.8052 -0.1289
84324SOL    HW164951  10.402  10.012   8.173  0.5176 -0.9578  0.2806
84324SOL    HW264952  10.317   9.952   8.284  0.2087 -1.1370 -0.0499
84325SOL     OW64953  13.310  11.342   9.127  0.4271 -0.1759  0.4097
84325SOL    HW164954  13.393  11.377   9.094  1.4254 -2.5329  0.1985
84325SOL    HW264955  13.332  11.254   9.157 -2.3437 -1.6384 -1.4393
84326SOL     OW64956   2.135   7.561   8.238  0.5674 -0.6435  0.2151
84326SOL    HW164957   2.215   7.510   8.227  1.3841  0.2744  1.6091
84326SOL    HW264958   2.077   7.504   8.289  0.7839 -0.8738  0.2041
84327SOL     OW64959   8.020   8.480   2.873 -0.5736 -0.2279  0.5699
84327SOL    HW164960   8.051   8.410   2.815  2.6783  1.7655 -0.3262
84327SOL    HW264961   8.021   8.440   2.960  0.2771 -1.5976 -0.0302
84328SOL     OW64962   4.816  12.494   3.344 -0.3544 -0.7633 -0.1672
84328SOL    HW164963   4.819  12.541   3.260  2.0069 -0.8450 -0.2035
84328SOL    HW264964   4.829  12.562   3.410  0.5608 -1.0200 -0.0670
84329SOL     OW64965   1.642  13.065   2.230  0.1205  0.3290  0.2314
84329SOL    HW164966   1.594  13.047   2.310  0.4285  2.3391  0.9216
84329SOL    HW264967   1.689  13.146   2.248 -0.7314  1.5073 -2.3623
84330SOL     OW64968   4.996   9.112  13.477 -0.0835  0.0655 -0.2876
84330SOL    HW164969   4.928   9.130  13.541  1.2617  0.8796  1.0022
84330SOL    HW264970   5.057   9.054  13.522  1.7373  1.9303 -0.1532
84331SOL     OW64971  12.545   2.697   5.851  0.7526  0.2628 -0.0486
84331SOL    HW164972  12.475   2.705   5.916  1.2440  0.4599  0.4711
84331SOL    HW264973  12.598   2.624   5.883  0.7114  0.0280 -0.5100
84332SOL     OW64974  10.403   3.768   1.352  0.2132 -0.1024 -0.3216
84332SOL    HW164975  10.366   3.724   1.275  0.2095  0.6220 -0.7406
84332SOL    HW264976  10.415   3.697   1.416 -1.5002 -0.4425 -0.3165
84333SOL     OW64977   0.289   2.763   2.504 -0.0346  0.5022  0.1449
84333SOL    HW164978   0.329   2.735   2.422 -1.0391 -1.2823  0.2059
84333SOL    HW264979   0.322   2.701   2.569 -2.5044 -0.8259  0.2613
84334SOL     OW64980  13.705   5.263  11.532 -0.1374 -0.1951 -0.0047
84334SOL    HW164981  13.637   5.286  11.469 -0.6743 -1.4685  0.0910
84334SOL    HW264982  13.672   5.296  11.616  1.0675  2.4841 -0.4721
84335SOL     OW64983  12.119  13.775   9.537 -0.6441 -0.0765  0.0682
84335SOL    HW164984  12.073  13.740   9.460 -1.2910  0.7149  0.0836
84335SOL    HW264985  12.209  13.744   9.527 -0.9169 -0.6939 -0.5639
84336SOL     OW64986   7.328   3.431   0.326 -0.2180 -0.2833  0.3125
84336SOL    HW164987   7.419   3.404   0.338  0.2330  0.8333 -0.3616
84336SOL    HW264988   7.288   3.362   0.273  0.8987  0.3430 -1.4102
84337SOL     OW64989  13.439  11.725  11.257  0.0695  0.1085 -0.1296
84337SOL    HW164990  13.511  11.728  11.194 -1.0603 -0.5811 -1.5225
84337SOL    HW264991  13.445  11.807  11.306  0.0445  1.4452 -2.2458
84338SOL     OW64992  13.279  11.003   6.858 -0.9150 -0.3416 -0.4832
84338SOL    HW164993  13.339  11.072   6.886  0.1286 -1.6418  0.6876
84338SOL    HW264994  13.193  11.045   6.856 -0.0895  1.4152 -1.5696
84339SOL     OW64995  11.775   7.226   1.885 -0.0920  0.3924 -0.2736
84339SOL    HW164996  11.683   7.242   1.867 -0.9367 -2.0285  1.4758
84339SOL    HW264997  11.800   7.293   1.949 -0.8294  0.6191 -0.2246
84340SOL     OW64998   2.813   4.680   9.340 -0.0151  0.4588  0.2877
84340SOL    HW164999   2.727   4.708   9.308  0.5266  1.4192 -0.3765
84340SOL    HW265000   2.848   4.625   9.271 -0.8313 -1.4765  1.3448
84341SOL     OW65001   0.173   2.606  13.586 -0.1644  0.4183 -0.0851
84341SOL    HW165002   0.121   2.652  13.520 -0.5282  1.0854  0.6465
84341SOL    HW265003   0.108   2.575  13.650  0.1587 -0.4422 -0.1709
84342SOL     OW65004   4.040  10.778  10.642  0.0205  0.0384 -0.7583
84342SOL    HW165005   4.040  10.813  10.553 -2.4332  2.3300  0.0041
84342SOL    HW265006   3.986  10.699  10.637  0.3474 -0.1556 -1.3659
84343SOL     OW65007   6.560   4.551   9.540  0.1237  0.3601  0.5188
84343SOL    HW165008   6.545   4.514   9.452  0.9630  1.9167 -0.3096
84343SOL    HW265009   6.544   4.477   9.599 -0.0263 -0.8544 -0.9595
84344SOL     OW65010   9.759  12.847   3.210 -0.0900 -0.2708  0.0043
84344SOL    HW165011   9.780  12.936   3.240  2.1192 -1.3216  1.8718
84344SOL    HW265012   9.669  12.854   3.178 -0.7471  2.2109  2.0192
84345SOL     OW65013   1.244   3.805   5.433 -0.1479  0.2263  0.4790
84345SOL    HW165014   1.203   3.739   5.376  0.3818 -0.1806  0.5622
84345SOL    HW265015   1.192   3.884   5.419  0.6209  0.4427 -1.3685
84346SOL     OW65016  11.870   4.434   7.778  0.3702 -0.4821  0.4118
84346SOL    HW165017  11.850   4.506   7.718  0.3406 -0.1245  0.8403
84346SOL    HW265018  11.966   4.431   7.781  0.3833 -0.9472 -0.1680
84347SOL     OW65019   1.801   4.212   9.814  0.6740 -0.5590 -0.2159
84347SOL    HW165020   1.822   4.304   9.830 -0.9111 -0.0964 -0.5368
84347SOL    HW265021   1.885   4.167   9.816  1.3651  0.6997  1.1748
84348SOL     OW65022   9.833  11.941   9.600  0.3036  0.0058  0.1736
84348SOL    HW165023   9.753  11.961   9.648  2.1931  0.2505  3.5014
84348SOL    HW265024   9.840  12.012   9.535 -0.9962  1.3252  1.3874
84349SOL     OW65025   7.920  12.248   6.903  0.2287 -0.1066  0.1022
84349SOL    HW165026   7.864  12.227   6.828  1.5681 -1.0603 -0.6692
84349SOL    HW265027   7.941  12.341   6.892 -2.7005  0.8346  1.4737
84350SOL     OW65028   2.883   8.408  12.369 -0.5757 -0.3973  0.1587
84350SOL    HW165029   2.969   8.369  12.353 -0.2453  0.9303 -1.7503
84350SOL    HW265030   2.867   8.394  12.462  1.6616 -0.7743  0.5559
84351SOL     OW65031  10.580   8.245   6.366 -0.3784  0.2784 -0.1290
84351SOL    HW165032  10.538   8.222   6.283  0.8268  0.4346 -0.8108
84351SOL    HW265033  10.637   8.171   6.385  1.0169  1.1819 -0.6101
84352SOL     OW65034   3.042  13.608   5.229  0.0526  0.0955  0.3550
84352SOL    HW165035   3.131  13.639   5.246  0.4102 -0.3049 -0.6995
84352SOL    HW265036   3.053  13.536   5.166 -1.0246  0.1226  0.1100
84353SOL     OW65037   1.792   1.681   0.489  0.1228  0.2663  0.1911
84353SOL    HW165038   1.704   1.717   0.499  0.7385  2.0568 -0.3329
84353SOL    HW265039   1.793   1.643   0.402 -0.2562 -0.1651  0.3727
84354SOL     OW65040  12.166  12.052  11.473 -0.2749 -0.1828 -0.1667
84354SOL    HW165041  12.165  12.138  11.432  0.4503 -0.0634  0.0353
84354SOL    HW265042  12.099  12.056  11.541  1.4844  1.1461  1.5950
84355SOL     OW65043   3.187   2.397   3.910  0.4056 -0.2342 -0.1166
84355SOL    HW165044   3.232   2.359   3.985  1.5486 -0.3829 -0.8433
84355SOL    HW265045   3.151   2.480   3.943  0.2102 -0.6671  0.7824
84356SOL     OW65046   3.111   6.914   7.217  0.0757 -0.5242  0.0804
84356SOL    HW165047   3.019   6.907   7.196  0.0731 -0.0139 -0.0905
84356SOL    HW265048   3.154   6.846   7.165 -0.4904 -2.5717  2.1172
84357SOL     OW65049  11.721   0.493   9.662 -0.2236  0.3880 -0.6251
84357SOL    HW165050  11.768   0.564   9.619 -0.4387  0.1561 -1.2493
84357SOL    HW265051  11.670   0.537   9.730 -1.3778  1.0076 -1.8523
84358SOL     OW65052   9.192   9.994   1.111 -0.2369  0.2242  0.1177
84358SOL    HW165053   9.252   9.957   1.047 -0.8815  2.5584 -2.0242
84358SOL    HW265054   9.242  10.065   1.153 -0.2114 -0.5146  1.4002
84359SOL     OW65055   8.925  13.099   5.333 -0.1719 -0.3791 -0.3677
84359SOL    HW165056   8.974  13.046   5.270 -0.1272  1.4282 -1.9496
84359SOL    HW265057   8.992  13.141   5.387  0.1097  1.4777 -2.0249
84360SOL     OW65058  10.154   9.162  10.681 -0.0132  0.2710  0.5835
84360SOL    HW165059  10.138   9.219  10.756  0.4906  2.8014 -1.1035
84360SOL    HW265060  10.241   9.126  10.697  2.0852  4.2173 -0.6283
84361SOL     OW65061   3.349   1.915   5.563  0.1391 -0.5925  0.3817
84361SOL    HW165062   3.342   1.829   5.521  1.4161  0.1854 -1.6012
84361SOL    HW265063   3.419   1.904   5.628  1.5232 -0.6866 -1.0559
84362SOL     OW65064   6.697  12.211   4.574  0.1413 -0.2750  0.0944
84362SOL    HW165065   6.694  12.183   4.482 -0.3148  0.3768 -0.0933
84362SOL    HW265066   6.690  12.306   4.570 -1.0384 -0.3081  0.8467
84363SOL     OW65067   5.508   1.002  12.033 -0.1236  0.4819  0.1056
84363SOL    HW165068   5.523   1.082  11.982 -0.1776 -0.4056 -1.3725
84363SOL    HW265069   5.469   1.033  12.115 -1.7324  1.8697 -1.0978
84364SOL     OW65070  13.179  10.371   1.095 -0.1409  0.2554 -0.0742
84364SOL    HW165071  13.201  10.418   1.015  1.7821 -0.7254 -0.1829
84364SOL    HW265072  13.110  10.309   1.069 -0.8091  1.1576 -0.5157
84365SOL     OW65073  13.573  12.219   4.918 -0.3777  0.0513  0.1903
84365SOL    HW165074  13.567  12.313   4.900  0.7018  0.2848  0.9222
84365SOL    HW265075  13.484  12.193   4.944 -0.5398  1.0276  0.6593
84366SOL     OW65076   8.224   0.007   1.500  0.1636  0.0080 -0.0830
84366SOL    HW165077   8.258   0.074   1.441  0.3623 -2.0309 -2.4220
84366SOL    HW265078   8.286   0.005   1.573  2.0629  0.0687 -1.6234
84367SOL     OW65079   8.893   1.446  11.113 -0.1927 -0.0413 -0.1510
84367SOL    HW165080   8.979   1.481  11.086 -0.6252 -0.5976 -2.5206
84367SOL    HW265081   8.838   1.524  11.123  0.4405  0.2905  0.9285
84368SOL     OW65082   7.655   9.951   0.163 -0.3000  0.0454  0.2243
84368SOL    HW165083   7.564   9.972   0.184  0.3170  0.5890  2.6426
84368SOL    HW265084   7.695  10.035   0.141  0.2168  0.2767  1.8749
84369SOL     OW65085  13.681   6.594   0.259 -0.0577 -0.2693  0.1477
84369SOL    HW165086  13.682   6.656   0.186  1.8424  1.1219  1.2435
84369SOL    HW265087  13.639   6.642   0.330  2.9005  0.5767  1.5216
84370SOL     OW65088   3.120  10.379   6.546  0.1171 -0.4503 -0.0790
84370SOL    HW165089   3.069  10.343   6.473 -1.6623  1.3642  0.1843
84370SOL    HW265090   3.077  10.347   6.624  0.3309 -0.1541  0.1620
84371SOL     OW65091  12.389  11.444  10.968 -0.5440  0.3124 -0.5060
84371SOL    HW165092  12.475  11.402  10.973 -0.7468 -0.0571 -0.1347
84371SOL    HW265093  12.402  11.516  10.906 -0.0156  0.1420 -0.6016
84372SOL     OW65094   6.038  12.826   6.649 -0.6119  0.3633  0.1240
84372SOL    HW165095   6.023  12.804   6.557  0.4499  0.0270  0.0188
84372SOL    HW265096   5.965  12.785   6.695 -1.1317  0.4945 -0.5592
84373SOL     OW65097  13.641  10.636   2.439  0.2309 -0.5041 -0.4354
84373SOL    HW165098  13.555  10.661   2.407  0.6063  1.3163 -0.1392
84373SOL    HW265099  13.630  10.624   2.534  0.3059 -0.2168 -0.3889
84374SOL     OW65100   5.489   4.740   7.968  0.1501  0.1979  0.1203
84374SOL    HW165101   5.452   4.804   8.029 -1.0602  2.2537 -2.5799
84374SOL    HW265102   5.465   4.655   8.006 -0.1158  1.3083  2.6977
84375SOL     OW65103  10.489   0.197  12.624 -0.5804  0.0903  0.0873
84375SOL    HW165104  10.403   0.168  12.594 -0.3761 -0.7209  0.2574
84375SOL    HW265105  10.485   0.190  12.719 -0.2670 -0.1348  0.0855
84376SOL     OW65106   7.397   7.923   7.612  0.5634  0.4456  0.5400
84376SOL    HW165107   7.381   7.870   7.690 -1.0114  1.7079  1.1245
84376SOL    HW265108   7.366   7.870   7.539  1.2629 -0.3990  0.8403
84377SOL     OW65109   6.614   6.557   0.277  0.3307  0.0535  0.8901
84377SOL    HW165110   6.610   6.479   0.332 -0.5571 -0.1766  0.5356
84377SOL    HW265111   6.522   6.582   0.266  0.6013  1.0957  0.9195
84378SOL     OW65112   1.782   2.594   1.614 -0.0960  0.2886  0.0181
84378SOL    HW165113   1.687   2.589   1.628 -0.0984  3.2993  1.9081
84378SOL    HW265114   1.817   2.520   1.662 -1.4138 -0.4603 -0.1061
84379SOL     OW65115  10.677   4.062   8.482  0.1092 -0.5006 -0.2663
84379SOL    HW165116  10.677   4.145   8.528 -0.1434  0.5800 -2.0998
84379SOL    HW265117  10.740   4.074   8.410 -2.3371 -0.6040 -2.6084
84380SOL     OW65118   0.906  11.379   6.600  0.0332 -0.3259 -0.1847
84380SOL    HW165119   0.829  11.428   6.573  1.2184  1.4596 -0.5029
84380SOL    HW265120   0.966  11.386   6.526  0.7439 -1.1431  0.2980
84381SOL     OW65121  11.090   9.229   1.947  0.3506  0.7510  0.4694
84381SOL    HW165122  10.998   9.248   1.930  0.0953 -2.3734 -3.3928
84381SOL    HW265123  11.138   9.288   1.888  0.4806 -0.1934 -0.4083
84382SOL     OW65124   8.587   7.926  10.239  0.8267 -0.1981 -0.4020
84382SOL    HW165125   8.513   7.987  10.236  0.3926 -0.3883  2.8180
84382SOL    HW265126   8.610   7.912  10.147 -1.9450  1.2886 -1.4532
84383SOL     OW65127  10.747   6.425   4.748 -0.3768 -0.5159 -0.3379
84383SOL    HW165128  10.802   6.347   4.745 -1.3743 -1.4618  2.5069
84383SOL    HW265129  10.808   6.498   4.754  0.7241 -1.5262  2.5590
84384SOL     OW65130  12.671   8.929  13.520 -0.3792  0.1027 -0.0454
84384SOL    HW165131  12.710   9.012  13.549 -0.6378 -0.2779  1.5085
84384SOL    HW265132  12.730   8.862  13.553 -1.7105 -0.4343  1.3524
84385SOL     OW65133   8.711   5.997   7.353  0.0678 -0.3193 -0.0473
84385SOL    HW165134   8.764   6.062   7.400  0.2546 -0.3878 -0.1593
84385SOL    HW265135   8.765   5.918   7.354 -0.1029 -0.4356 -0.0241
84386SOL     OW65136  10.485   4.073  14.038  0.0164 -0.6700 -0.5241
84386SOL    HW165137  10.496   4.060  14.132 -3.1828 -1.1710 -0.1042
84386SOL    HW265138  10.476   4.167  14.027 -0.6112 -0.6841 -0.1654
84387SOL     OW65139   7.325   8.066  11.891 -0.5865 -0.0597  0.0822
84387SOL    HW165140   7.243   8.063  11.941  1.2817  1.8800  3.7259
84387SOL    HW265141   7.336   8.158  11.868 -0.8328 -0.7457 -3.2675
84388SOL     OW65142   8.281  12.231   4.925  0.0462  0.4636 -0.3451
84388SOL    HW165143   8.278  12.153   4.870  0.3341  0.1260  0.1104
84388SOL    HW265144   8.374  12.241   4.947 -0.0365  0.7253 -0.1124
84389SOL     OW65145  10.273   3.415   5.138  0.3532  0.2412 -0.2422
84389SOL    HW165146  10.319   3.403   5.056  0.6301  1.4132 -0.2674
84389SOL    HW265147  10.185   3.380   5.122  0.8765 -0.9762 -0.5299
84390SOL     OW65148   9.195   0.773   6.209 -0.3683  0.4468  0.6484
84390SOL    HW165149   9.261   0.808   6.269 -0.1586 -1.9214  1.9342
84390SOL    HW265150   9.213   0.679   6.206 -0.9476  0.3099 -2.4724
84391SOL     OW65151   3.335  12.094   9.327 -0.0950 -0.5395  0.1303
84391SOL    HW165152   3.351  12.188   9.333  1.4396 -0.8424  1.4665
84391SOL    HW265153   3.239  12.085   9.329 -0.2573  0.9833 -0.1092
84392SOL     OW65154   4.649   7.771   5.283  0.3340  0.5313  0.2033
84392SOL    HW165155   4.565   7.817   5.280  0.4698  0.8316  0.7529
84392SOL    HW265156   4.632   7.687   5.242 -0.0944  0.8085 -0.1969
84393SOL     OW65157   4.574   8.432  13.574  0.3293  0.1754  0.8365
84393SOL    HW165158   4.499   8.439  13.633  1.3832 -0.9571  2.3586
84393SOL    HW265159   4.535   8.407  13.490 -0.9846 -0.6006  1.6375
84394SOL     OW65160   3.107   5.924  10.568 -0.7948  0.0692  0.0174
84394SOL    HW165161   3.079   5.863  10.636 -0.2523 -0.3039 -0.0889
84394SOL    HW265162   3.133   5.869  10.495  0.1360  0.3916  0.0788
84395SOL     OW65163   4.021   1.566   0.180 -0.0322  0.2382  0.0897
84395SOL    HW165164   3.955   1.501   0.202  0.2888 -0.5092 -1.1016
84395SOL    HW265165   4.029   1.619   0.260 -0.3843 -1.0901  1.0497
84396SOL     OW65166   0.114   4.052   7.396  0.1115  0.0808  0.5093
84396SOL    HW165167   0.144   3.973   7.351 -1.8707 -0.0661 -0.6429
84396SOL    HW265168   0.071   4.020   7.475  0.1958  0.0849  0.5573
84397SOL     OW65169   1.404   1.543   9.062  0.4828  0.0980  0.2573
84397SOL    HW165170   1.439   1.549   8.973  1.3453  0.9807  0.6476
84397SOL    HW265171   1.416   1.630   9.099  1.1089 -0.5382  1.5986
84398SOL     OW65172   1.018  11.139  12.850  0.1145 -0.2930  0.2225
84398SOL    HW165173   1.100  11.161  12.894 -0.2931  0.6522  0.5420
84398SOL    HW265174   0.950  11.169  12.911 -0.4656 -0.1369 -0.4826
84399SOL     OW65175  13.895   7.734   8.109  0.0836 -0.0466 -0.6152
84399SOL    HW165176  13.874   7.661   8.168  0.3875 -0.9926 -1.6547
84399SOL    HW265177  13.809   7.771   8.087 -0.0807 -0.1451 -0.1636
84400SOL     OW65178   3.841   6.174   4.386  0.6766 -0.3049 -0.1854
84400SOL    HW165179   3.766   6.124   4.355  1.6324 -1.4280 -0.8057
84400SOL    HW265180   3.917   6.132   4.344  1.7444  0.1065  1.2414
84401SOL     OW65181   9.599  11.022   9.462  0.3705 -0.4942  0.2808
84401SOL    HW165182   9.615  10.984   9.376  1.6579 -0.7160  0.6007
84401SOL    HW265183   9.593  11.117   9.446  1.8519 -0.4099  0.0901
84402SOL     OW65184  12.046   5.940  10.777 -0.1783  0.0558  0.1432
84402SOL    HW165185  12.053   5.936  10.681  0.4784  0.9830  0.1402
84402SOL    HW265186  11.954   5.920  10.794 -0.3719  0.1571 -0.7118
84403SOL     OW65187   3.101   7.897  11.385  0.2914  0.7577 -0.1655
84403SOL    HW165188   3.085   7.931  11.297  1.2163  1.1714 -0.1802
84403SOL    HW265189   3.061   7.963  11.443  0.6372  1.0419 -0.2459
84404SOL     OW65190   1.352  10.832   7.423  0.1884  0.2258 -0.6051
84404SOL    HW165191   1.291  10.889   7.375  0.5264  0.8660 -0.2744
84404SOL    HW265192   1.359  10.754   7.368 -0.2999  0.4873 -1.0483
84405SOL     OW65193   6.951   8.838   5.292 -0.1620 -0.0128  0.3282
84405SOL    HW165194   7.045   8.856   5.294  0.0705 -1.1570  0.4139
84405SOL    HW265195   6.929   8.817   5.383 -0.5324  0.4022  0.3361
84406SOL     OW65196   0.741   2.523   9.371  0.2686  0.6800 -0.4634
84406SOL    HW165197   0.786   2.514   9.287  0.6141 -0.1853 -0.2060
84406SOL    HW265198   0.741   2.434   9.407 -0.3096  0.9498  0.2311
84407SOL     OW65199   4.461   4.050   8.220  0.1183 -0.0467 -0.0830
84407SOL    HW165200   4.531   4.078   8.278  0.4543 -0.2649 -0.3815
84407SOL    HW265201   4.479   4.094   8.137 -0.2669  0.1326 -0.0772
84408SOL     OW65202   9.922   4.301  13.721 -0.4183 -0.3103  0.1579
84408SOL    HW165203   9.922   4.207  13.735 -2.5243 -0.3188  0.3725
84408SOL    HW265204   9.935   4.312  13.627  0.6306 -0.7640  0.2412
84409SOL     OW65205   0.682  10.083  11.046 -0.7053 -0.3651 -1.0046
84409SOL    HW165206   0.642  10.155  11.095 -0.3004 -0.6566 -0.2231
84409SOL    HW265207   0.773  10.108  11.036 -0.3699 -1.1155 -0.0190
84410SOL     OW65208   2.050   1.046   6.122 -1.1851 -0.4390 -0.0545
84410SOL    HW165209   2.075   1.047   6.214 -0.9665 -1.6500 -0.0806
84410SOL    HW265210   2.113   0.986   6.081 -1.0884  0.3239 -1.0477
84411SOL     OW65211   7.265  13.001   7.195 -1.0610 -0.5765  0.4866
84411SOL    HW165212   7.180  13.014   7.152 -0.9690 -0.6837  0.2672
84411SOL    HW265213   7.329  13.025   7.128 -0.8838 -2.1959  0.0409
84412SOL     OW65214   2.987  12.188   1.731  0.1639 -0.5587  0.0098
84412SOL    HW165215   2.930  12.175   1.807  0.2563 -0.2763  0.1255
84412SOL    HW265216   2.934  12.238   1.669  0.3459 -0.1368  0.1904
84413SOL     OW65217   7.307   7.484   3.097 -0.2055 -0.1006  0.3058
84413SOL    HW165218   7.383   7.443   3.055  1.1282  0.9950  1.5692
84413SOL    HW265219   7.277   7.548   3.033 -0.0041 -0.4526 -0.1511
84414SOL     OW65220  10.502   1.190  11.971  0.1195  0.0761  0.0868
84414SOL    HW165221  10.581   1.233  11.938  1.1877 -0.1165  2.2072
84414SOL    HW265222  10.508   1.100  11.938 -0.7122  0.7343 -2.0597
84415SOL     OW65223   4.429   3.280   3.554  0.7508  0.3253  0.2849
84415SOL    HW165224   4.443   3.235   3.638  1.4316  0.7097  0.3889
84415SOL    HW265225   4.355   3.235   3.515  0.5939 -0.0381  0.9761
84416SOL     OW65226   4.119   4.819   1.855  0.4295 -0.1821 -0.1278
84416SOL    HW165227   4.179   4.788   1.923  0.5023  1.2255  0.4956
84416SOL    HW265228   4.160   4.899   1.821 -1.0632  0.8348  0.3412
84417SOL     OW65229  11.477   4.612   5.976  0.5554 -0.1741  0.4410
84417SOL    HW165230  11.477   4.687   5.916  1.0474 -1.9716 -1.9803
84417SOL    HW265231  11.396   4.565   5.955  0.2868 -0.3965  1.8728
84418SOL     OW65232   4.806   9.714   2.602 -0.3771 -0.0145  0.1104
84418SOL    HW165233   4.775   9.719   2.511  0.2912  0.2744 -0.1027
84418SOL    HW265234   4.813   9.620   2.619  0.4694 -0.0668 -0.4777
84419SOL     OW65235   8.088   9.196   8.014  0.2092 -0.1351 -0.1061
84419SOL    HW165236   8.054   9.230   7.931 -1.9993  2.3054  1.6489
84419SOL    HW265237   8.030   9.123   8.036  0.4474 -0.4223 -0.4209
84420SOL     OW65238  11.884  13.952   0.269  0.6020 -0.1177  0.0695
84420SOL    HW165239  11.837  14.034   0.256 -0.1895 -0.1715  2.2580
84420SOL    HW265240  11.815  13.886   0.279  1.1145 -0.4350  1.8730
84421SOL     OW65241  13.035  14.000   1.396 -0.0170 -0.5329 -0.0050
84421SOL    HW165242  13.094  14.018   1.323  1.6895  0.8645  1.6197
84421SOL    HW265243  13.089  13.956   1.462 -0.6267  1.0518  1.6521
84422SOL     OW65244   4.122   3.186   1.862 -0.3219  0.0384 -0.1616
84422SOL    HW165245   4.034   3.150   1.862 -0.7506  1.0500  0.1906
84422SOL    HW265246   4.129   3.234   1.945 -0.1574  1.6056 -1.0399
84423SOL     OW65247   5.868   3.463   8.755  0.4850  0.0826 -0.0971
84423SOL    HW165248   5.963   3.450   8.764  0.4996 -0.4246 -0.8745
84423SOL    HW265249   5.855   3.556   8.769  0.8991 -0.0793  1.6176
84424SOL     OW65250   6.102   4.298  13.605 -0.3948 -0.2892 -0.0906
84424SOL    HW165251   6.066   4.377  13.645  0.2256 -0.5122  0.9467
84424SOL    HW265252   6.072   4.227  13.662  0.0975 -0.6660 -0.2979
84425SOL     OW65253   2.282   7.676   8.792 -0.4206  0.2024 -0.0416
84425SOL    HW165254   2.244   7.728   8.864  2.5636 -0.1412  1.9980
84425SOL    HW265255   2.322   7.741   8.735  0.1052  0.3498  0.4825
84426SOL     OW65256   2.221  10.980   4.474 -0.8758  1.1142 -0.5573
84426SOL    HW165257   2.248  10.904   4.422 -1.5699  0.0665  0.5856
84426SOL    HW265258   2.303  11.027   4.492  0.7238 -2.6885  3.9702
84427SOL     OW65259  11.601  10.144   3.427 -0.0465 -0.3331 -0.7617
84427SOL    HW165260  11.515  10.126   3.389 -1.5182 -0.4207  2.2789
84427SOL    HW265261  11.620  10.067   3.481  2.1314 -0.4390 -1.5881
84428SOL     OW65262   3.457  12.516  12.699 -0.0935 -0.5415  0.3566
84428SOL    HW165263   3.386  12.571  12.732 -0.1137 -1.0172  1.1199
84428SOL    HW265264   3.519  12.510  12.771  1.4538  1.0340 -0.7706
84429SOL     OW65265   8.723   6.019   2.845  0.3476 -0.1736 -0.3064
84429SOL    HW165266   8.636   6.037   2.882 -0.1925 -1.0359 -1.0811
84429SOL    HW265267   8.715   6.044   2.753  0.5666 -1.2605 -0.6389
84430SOL     OW65268   9.706   6.512  10.885 -0.2921  0.5761  0.3897
84430SOL    HW165269   9.628   6.484  10.933 -0.9141  0.9003 -0.4049
84430SOL    HW265270   9.750   6.573  10.945 -0.8266  0.6481  0.7191
84431SOL     OW65271   4.096   5.056   9.212 -0.5495 -0.2751  0.0620
84431SOL    HW165272   4.166   4.996   9.239 -2.0794 -2.8051 -1.1770
84431SOL    HW265273   4.142   5.133   9.178  1.5330 -0.7967  1.5149
84432SOL     OW65274  11.066  11.190   5.626 -0.0167 -0.1059 -0.0940
84432SOL    HW165275  11.144  11.142   5.599 -0.2662  0.0421 -1.1157
84432SOL    HW265276  11.055  11.259   5.560 -1.0569 -0.1734 -0.0203
84433SOL     OW65277   5.508  10.286   5.190  0.0660 -0.4884 -0.3298
84433SOL    HW165278   5.535  10.375   5.166 -0.1875 -0.3449 -0.0993
84433SOL    HW265279   5.589  10.235   5.190  0.4035  0.0177  0.7161
84434SOL     OW65280   3.903   9.590  13.940  0.1354  0.5004 -0.4930
84434SOL    HW165281   3.951   9.568  13.859  1.9720 -0.7226  0.8438
84434SOL    HW265282   3.812   9.571  13.919  0.7736 -1.4441 -1.7938
84435SOL     OW65283   3.888   7.386   9.502  0.2894 -0.5209 -0.2350
84435SOL    HW165284   3.950   7.321   9.470  0.5368 -0.1276 -0.5620
84435SOL    HW265285   3.878   7.366   9.595  2.1709  0.3945  0.2265
84436SOL     OW65286   2.532  13.756  13.188 -0.4777 -0.5268  0.6523
84436SOL    HW165287   2.614  13.778  13.231 -0.1476 -1.2686  0.4111
84436SOL    HW265288   2.467  13.757  13.259 -0.0976 -0.8622  1.0123
84437SOL     OW65289  10.943   4.011   6.982  0.1445  0.6105  0.6780
84437SOL    HW165290  10.990   4.038   7.061  1.2247  0.2165  0.1935
84437SOL    HW265291  10.854   4.043   6.995  0.2650  0.4551  2.1111
84438SOL     OW65292   4.907   2.157   0.477 -0.5473 -0.1314 -0.2123
84438SOL    HW165293   4.971   2.225   0.453 -0.0462  0.8792  3.3718
84438SOL    HW265294   4.951   2.075   0.458  2.0466  0.5299  2.2124
84439SOL     OW65295   0.895  13.934  12.710 -0.3150 -0.0845 -0.2523
84439SOL    HW165296   0.822  13.918  12.649 -0.6585 -0.5508  0.2685
84439SOL    HW265297   0.858  13.992  12.776  0.0480  0.3882 -0.4604
84440SOL     OW65298  11.680   0.081   6.835 -0.5987  0.4765 -0.8600
84440SOL    HW165299  11.610   0.018   6.848 -1.2030  1.0084 -1.4169
84440SOL    HW265300  11.697   0.117   6.922 -0.2123 -0.4677 -0.5280
84441SOL     OW65301   3.801   6.137  10.073  0.0404  0.2313  0.3611
84441SOL    HW165302   3.853   6.214  10.094 -0.5995  0.6388  0.4730
84441SOL    HW265303   3.755   6.160   9.992 -0.6388  0.2138  0.7312
84442SOL     OW65304   5.376   4.568   9.547 -0.1858 -0.4007 -0.0422
84442SOL    HW165305   5.306   4.546   9.486  0.0643 -0.6291 -0.2478
84442SOL    HW265306   5.334   4.621   9.615 -0.1125  1.4399 -1.3770
84443SOL     OW65307  10.195  10.097   3.731  0.5482  0.2825  0.1180
84443SOL    HW165308  10.141  10.173   3.753  1.3420  0.8929  0.0387
84443SOL    HW265309  10.209  10.053   3.815 -2.6695 -1.7244 -0.2695
84444SOL     OW65310   5.316   2.127   9.378 -0.0074  0.5694 -0.0040
84444SOL    HW165311   5.350   2.179   9.305  1.5901 -0.4560 -0.0461
84444SOL    HW265312   5.314   2.038   9.344 -0.3522  0.2533  0.8389
84445SOL     OW65313   7.527  10.907   6.729  0.4762  0.3562  0.0606
84445SOL    HW165314   7.444  10.860   6.729  0.1384  0.9059  1.2332
84445SOL    HW265315   7.503  11.000   6.729  1.1363  0.5710 -2.0075
84446SOL     OW65316   9.774   6.088   7.377  0.0225  0.3757  0.0199
84446SOL    HW165317   9.785   6.024   7.306  0.3104  0.3148  0.1209
84446SOL    HW265318   9.772   6.173   7.332  0.2053  0.3378 -0.0604
84447SOL     OW65319  11.954   5.401   9.003 -0.4682 -0.0704 -0.0162
84447SOL    HW165320  11.951   5.491   8.972 -0.8917 -0.5921 -1.6005
84447SOL    HW265321  12.006   5.404   9.084 -0.0341  1.4938 -0.3338
84448SOL     OW65322   5.798   4.590   2.487 -0.5063 -0.2902 -0.2700
84448SOL    HW165323   5.830   4.649   2.419 -1.0530  1.8423  1.2017
84448SOL    HW265324   5.731   4.537   2.445  1.9942 -2.0488 -2.4015
84449SOL     OW65325   4.562  10.834   2.453  0.3092 -0.2319  0.2635
84449SOL    HW165326   4.654  10.858   2.459  0.2035  0.3720 -0.4527
84449SOL    HW265327   4.532  10.871   2.370 -1.3715  2.2539  1.8464
84450SOL     OW65328  11.123   1.010  12.058 -0.2373  0.6019 -0.4580
84450SOL    HW165329  11.090   0.927  12.091 -0.1775  0.2358 -1.2813
84450SOL    HW265330  11.218   1.006  12.070  0.0791 -0.5210 -2.7006
84451SOL     OW65331   4.735  14.038   1.742  0.0535  0.2170  0.2117
84451SOL    HW165332   4.658  13.983   1.752  0.5600 -0.3147  1.2972
84451SOL    HW265333   4.700  14.127   1.739 -0.5869  0.0105  1.1065
84452SOL     OW65334   7.731   1.012   8.518  0.0706  0.1963 -0.1105
84452SOL    HW165335   7.734   0.985   8.426  0.9403 -0.5800  0.1399
84452SOL    HW265336   7.640   0.998   8.544 -0.8390  2.7624 -1.5214
84453SOL     OW65337   2.800   8.977   1.944 -0.8648 -0.2187  0.4100
84453SOL    HW165338   2.740   9.050   1.931 -2.3569 -1.3593  0.5357
84453SOL    HW265339   2.763   8.929   2.018  0.7947 -0.4175  1.1539
84454SOL     OW65340   5.874   4.831   1.973  0.0871  0.5157 -0.5758
84454SOL    HW165341   5.892   4.747   1.930  0.5985  0.9183 -1.1616
84454SOL    HW265342   5.819   4.808   2.048  1.4776 -0.5604  0.1759
84455SOL     OW65343   8.143   1.836   7.780 -0.3051  0.0935  0.2445
84455SOL    HW165344   8.225   1.826   7.830 -0.5382  1.2424  0.9000
84455SOL    HW265345   8.162   1.905   7.717 -0.1488 -1.0629 -1.0083
84456SOL     OW65346   4.972   7.911   1.208  0.0094  0.1753  0.9636
84456SOL    HW165347   4.963   7.952   1.295  1.2071  1.9329  0.3238
84456SOL    HW265348   4.895   7.939   1.160 -0.1075  0.1042  1.1072
84457SOL     OW65349   8.145   6.326   7.192  0.1124 -0.0743  0.4220
84457SOL    HW165350   8.186   6.257   7.140  0.7773  0.4633  0.2341
84457SOL    HW265351   8.164   6.407   7.145 -0.5277  0.2612  0.7278
84458SOL     OW65352  13.362   7.179  10.865 -0.0021  0.4461 -0.0323
84458SOL    HW165353  13.357   7.153  10.773 -0.7847 -0.2568  0.1963
84458SOL    HW265354  13.326   7.267  10.868 -1.0339  0.0408 -0.2420
84459SOL     OW65355  10.643   9.524   3.791  0.2794  0.4654  0.6666
84459SOL    HW165356  10.575   9.521   3.859 -0.4188  0.4640 -0.0101
84459SOL    HW265357  10.724   9.501   3.836 -0.5203 -1.8861  1.0462
84460SOL     OW65358   0.769   2.328   0.046  0.1338  0.0859  0.1993
84460SOL    HW165359   0.864   2.324   0.031 -0.0502  0.1204 -1.0962
84460SOL    HW265360   0.735   2.253  -0.002 -0.6578  1.0919 -0.8581
84461SOL     OW65361  10.254   7.330  10.786  0.0316 -0.0508 -0.2369
84461SOL    HW165362  10.279   7.238  10.793 -0.1624 -0.2686 -1.9588
84461SOL    HW265363  10.185   7.330  10.720  1.1994  1.5238 -1.5222
84462SOL     OW65364   5.332   4.095  11.177  0.1675 -0.2535  0.1980
84462SOL    HW165365   5.312   4.048  11.096 -2.0412 -0.9803  1.0940
84462SOL    HW265366   5.301   4.184  11.161  2.4134  0.4345 -0.7352
84463SOL     OW65367   2.800   1.033   4.755  0.1679  0.2029  0.2964
84463SOL    HW165368   2.848   1.098   4.703 -0.5612  0.2923 -0.2739
84463SOL    HW265369   2.737   1.084   4.806 -0.5368 -0.0670 -0.2957
84464SOL     OW65370   0.254   6.757   9.417 -0.2058  0.2642 -0.7991
84464SOL    HW165371   0.273   6.664   9.425  2.5494  0.9032  1.7872
84464SOL    HW265372   0.175   6.771   9.468  0.4059 -0.4158  0.3595
84465SOL     OW65373   5.511   5.358  13.877 -0.1951  0.0164  0.1432
84465SOL    HW165374   5.469   5.442  13.891  0.5566  0.3589  0.3702
84465SOL    HW265375   5.528   5.354  13.782  0.4838  0.4707  0.2397
84466SOL     OW65376  11.028  11.698  11.300 -0.5582  0.1180 -0.2927
84466SOL    HW165377  11.087  11.706  11.225 -0.7900 -0.3258 -0.5311
84466SOL    HW265378  11.077  11.645  11.363 -0.1543  0.9316  0.0965
84467SOL     OW65379   5.517   2.695   9.758  0.0253 -0.2411 -0.2259
84467SOL    HW165380   5.445   2.652   9.804 -0.3562  1.6565  1.0404
84467SOL    HW265381   5.487   2.701   9.667 -2.4487  2.4592  0.6622
84468SOL     OW65382   5.581   4.894   6.270 -0.5917 -0.3675  0.2967
84468SOL    HW165383   5.593   4.800   6.263 -0.5297 -0.4263  1.0720
84468SOL    HW265384   5.590   4.913   6.364 -0.7688  0.3847  0.1752
84469SOL     OW65385   0.846  11.267  12.329  0.7183  0.6036 -0.4848
84469SOL    HW165386   0.751  11.261  12.318  0.4669  3.8526 -1.2174
84469SOL    HW265387   0.871  11.342  12.274  3.8707 -0.7006 -1.0422
84470SOL     OW65388   1.876   1.213   1.118  0.0847 -0.5982 -0.6251
84470SOL    HW165389   1.856   1.127   1.082 -0.4051 -0.1981 -1.3563
84470SOL    HW265390   1.816   1.224   1.191  0.3944 -1.0191 -0.3070
84471SOL     OW65391   9.456   7.339   0.934 -0.5118 -0.1079 -0.2184
84471SOL    HW165392   9.426   7.306   1.019 -1.2685  3.2069  0.9748
84471SOL    HW265393   9.420   7.278   0.870 -1.1189 -1.9326  1.7452
84472SOL     OW65394   2.080   2.181   6.838 -0.3406  0.1979 -0.0245
84472SOL    HW165395   2.036   2.211   6.758  0.4604  0.4671 -0.3722
84472SOL    HW265396   2.164   2.148   6.807 -1.5709 -3.5799  0.1226
84473SOL     OW65397  13.931  13.674   4.944  0.6128 -0.4324 -0.2287
84473SOL    HW165398  13.987  13.683   4.867  3.2348 -0.1888  1.5627
84473SOL    HW265399  13.853  13.727   4.924  1.8091  0.6868 -2.1870
84474SOL     OW65400   0.608   8.604   3.468  0.5631  0.2156  0.5452
84474SOL    HW165401   0.606   8.542   3.395 -1.6205  1.5035 -0.6079
84474SOL    HW265402   0.585   8.553   3.545 -2.0728 -0.3134 -0.5129
84475SOL     OW65403   0.115   3.349   7.770  0.1687  0.6886 -0.1129
84475SOL    HW165404   0.106   3.313   7.858  0.6842  0.7671 -0.0289
84475SOL    HW265405   0.112   3.444   7.782 -1.3965  0.7054 -0.3552
84476SOL     OW65406   9.962   5.300   1.229  0.3779 -0.2043 -0.4485
84476SOL    HW165407   9.994   5.362   1.296  0.5219 -0.9538  0.1897
84476SOL    HW265408  10.041   5.267   1.187  0.2997  0.0377 -0.7898
84477SOL     OW65409   2.436   1.035   3.137 -0.6783 -0.1287  0.0754
84477SOL    HW165410   2.487   1.113   3.114 -2.0903  0.2077 -2.2956
84477SOL    HW265411   2.395   1.009   3.054 -0.8927 -2.9327  0.9838
84478SOL     OW65412  11.456   4.995   9.198 -0.1754  0.0549 -0.0335
84478SOL    HW165413  11.459   5.042   9.282  2.1189  2.1570 -1.1541
84478SOL    HW265414  11.466   4.903   9.221 -1.6351  0.3429  2.0802
84479SOL     OW65415  13.403   6.267   8.967  0.0959  0.6778  0.2282
84479SOL    HW165416  13.447   6.183   8.955 -2.0337 -0.3765 -0.5766
84479SOL    HW265417  13.429   6.295   9.055 -0.6655 -1.7779  1.3147
84480SOL     OW65418  14.012   2.025   6.842  0.0137 -0.0715 -0.4931
84480SOL    HW165419  14.093   2.056   6.883 -0.7759  2.7469 -0.8352
84480SOL    HW265420  14.040   1.982   6.761  1.4515 -4.0308  1.8174
84481SOL     OW65421   0.511   7.923   8.330 -0.0022 -0.6124 -0.1369
84481SOL    HW165422   0.541   7.840   8.367 -0.6867 -0.9904 -0.4068
84481SOL    HW265423   0.423   7.935   8.366  0.3323  0.3198  0.3981
84482SOL     OW65424  10.430   2.583  13.814  0.3630  0.1432 -0.5965
84482SOL    HW165425  10.515   2.553  13.780  0.4885 -1.7030  1.1998
84482SOL    HW265426  10.366   2.538  13.759  0.5707 -1.9832  0.8040
84483SOL     OW65427   2.331   2.212   7.817  0.4015  0.4541 -0.1048
84483SOL    HW165428   2.401   2.219   7.751 -0.8097  1.6836 -1.3208
84483SOL    HW265429   2.263   2.271   7.786 -0.7283  0.1509  1.6553
84484SOL     OW65430  13.387   5.791   4.962  0.3873 -0.3628 -0.0398
84484SOL    HW165431  13.372   5.878   4.999  1.1198 -0.8714  1.5350
84484SOL    HW265432  13.311   5.740   4.991  1.7265 -1.1900  2.2686
84485SOL     OW65433   6.909  12.078   4.703  0.3070 -0.5393 -0.6429
84485SOL    HW165434   6.856  12.003   4.675 -0.5212 -0.1419 -0.1871
84485SOL    HW265435   6.859  12.154   4.674 -0.1799 -0.1308  1.1286
84486SOL     OW65436   4.867   4.519   8.514 -0.2150 -0.3977 -0.2395
84486SOL    HW165437   4.939   4.529   8.452 -1.5533  1.0655 -1.6665
84486SOL    HW265438   4.866   4.425   8.535  2.6985 -0.3191  0.6943
84487SOL     OW65439   9.821   9.157   6.573 -0.7948  0.1918  0.2971
84487SOL    HW165440   9.910   9.153   6.607 -1.1135  0.0994  1.1288
84487SOL    HW265441   9.832   9.155   6.477  0.1127  0.6934  0.3852
84488SOL     OW65442   0.278   1.229  13.948 -0.0258  0.0630 -0.2426
84488SOL    HW165443   0.187   1.221  13.918 -0.0315 -1.1027  0.0413
84488SOL    HW265444   0.314   1.300  13.896 -0.5897 -0.6506 -1.6692
84489SOL     OW65445   3.116   6.933   1.582 -0.2979  0.4105  0.1682
84489SOL    HW165446   3.043   6.915   1.522 -0.8512 -0.7594  1.1633
84489SOL    HW265447   3.125   7.028   1.580  0.9332  0.3687 -3.2040
84490SOL     OW65448  10.970   5.317   2.115 -0.2226  0.5037 -0.3700
84490SOL    HW165449  10.935   5.297   2.202  3.1291  0.7073  1.1578
84490SOL    HW265450  10.986   5.411   2.116 -0.3602  0.5528 -1.3322
84491SOL     OW65451   6.778   6.692  10.115  0.0813 -0.1367  0.9259
84491SOL    HW165452   6.844   6.639  10.070  0.4575  0.4902  0.7188
84491SOL    HW265453   6.773   6.772  10.063  0.7266  0.7275  2.1518
84492SOL     OW65454   9.181   8.706   9.349 -0.4890  0.0829  0.3199
84492SOL    HW165455   9.086   8.705   9.337 -0.4504  1.3567 -0.2577
84492SOL    HW265456   9.215   8.734   9.264  0.4021 -0.3460  0.5299
84493SOL     OW65457   3.850  12.231   6.121  0.1936  0.1473 -0.3952
84493SOL    HW165458   3.918  12.176   6.160  0.8444 -0.6521 -2.5278
84493SOL    HW265459   3.771  12.177   6.126  0.0108  0.4961  0.7682
84494SOL     OW65460   7.860   6.220   5.554 -0.3788  0.2514 -0.5812
84494SOL    HW165461   7.947   6.254   5.573 -0.7392  0.3949  0.9174
84494SOL    HW265462   7.800   6.286   5.589 -1.1748  1.2896 -3.5711
84495SOL     OW65463  11.205   5.579   8.045  0.0938  0.4286  0.0640
84495SOL    HW165464  11.290   5.620   8.065  0.6579 -1.0803  0.9348
84495SOL    HW265465  11.146   5.614   8.111  0.8939 -1.0903  1.6859
84496SOL     OW65466   1.964   2.232   0.925 -0.1085  0.2888  0.7432
84496SOL    HW165467   1.910   2.208   1.000  1.1857 -0.1784  1.5608
84496SOL    HW265468   1.960   2.156   0.867 -1.6401  0.9031 -0.0147
84497SOL     OW65469   0.971  10.271  12.238 -0.3579 -0.5343  0.0555
84497SOL    HW165470   1.043  10.252  12.178  0.4296  0.1299  0.7591
84497SOL    HW265471   0.917  10.335  12.190  0.4956  0.3180  0.1888
84498SOL     OW65472  12.023   2.258   5.222 -0.0558  0.1081  0.1049
84498SOL    HW165473  11.975   2.178   5.245  1.0391 -0.7188 -0.4527
84498SOL    HW265474  12.109   2.228   5.195  0.4822  1.5123  0.1823
84499SOL     OW65475   0.060   1.856   5.857 -0.1824 -0.4137 -0.1795
84499SOL    HW165476  -0.005   1.787   5.873  0.4037 -0.5120  2.1390
84499SOL    HW265477   0.009   1.936   5.850 -0.6908 -0.7547 -0.4211
84500SOL     OW65478   0.818   1.534   2.299 -0.0663  0.2965 -0.3161
84500SOL    HW165479   0.750   1.523   2.232  0.1329 -0.5598 -0.3906
84500SOL    HW265480   0.893   1.570   2.252  0.1811 -0.5983 -0.6421
84501SOL     OW65481   5.100   3.919   9.716 -0.1490 -0.1230 -0.1342
84501SOL    HW165482   5.033   3.877   9.661  0.4928 -0.2376 -0.8492
84501SOL    HW265483   5.182   3.878   9.689  0.4377  1.2623 -0.5443
84502SOL     OW65484  10.821  11.755   2.315 -0.0671 -0.0210  0.0578
84502SOL    HW165485  10.826  11.694   2.388 -0.2755  0.3850  0.4111
84502SOL    HW265486  10.911  11.759   2.281 -0.0262 -0.4230  0.1079
84503SOL     OW65487   1.617   7.309   4.838 -0.3430 -0.1523 -0.0778
84503SOL    HW165488   1.710   7.299   4.818  0.0142  0.9253  0.9592
84503SOL    HW265489   1.574   7.241   4.786  0.9393 -0.1745 -1.1558
84504SOL     OW65490   6.271   8.787  10.941  0.1426  0.5401 -0.4523
84504SOL    HW165491   6.242   8.753  11.026  0.3936  1.6990  0.1226
84504SOL    HW265492   6.218   8.865  10.927 -0.4502 -0.0818 -1.7587
84505SOL     OW65493   3.126   4.938   9.059 -0.0564 -0.3629  0.2171
84505SOL    HW165494   3.064   4.938   9.132 -0.9995 -0.5895 -0.5771
84505SOL    HW265495   3.185   5.011   9.079 -1.8491  1.2500 -0.0813
84506SOL     OW65496   4.379  11.483   7.787 -0.0622 -0.1228 -0.0737
84506SOL    HW165497   4.440  11.555   7.767 -0.0746 -0.3844 -1.0850
84506SOL    HW265498   4.322  11.519   7.856  0.1613  0.7136 -0.3077
84507SOL     OW65499   1.645   1.411   5.604 -0.5487 -0.3385  0.1996
84507SOL    HW165500   1.570   1.466   5.625 -0.5388 -0.7002  1.2190
84507SOL    HW265501   1.624   1.373   5.518 -1.1853  0.1509  0.1362
84508SOL     OW65502   2.711   1.398  10.537 -0.2349 -0.5263  0.0153
84508SOL    HW165503   2.756   1.447  10.468 -0.3882 -0.8520 -0.3223
84508SOL    HW265504   2.624   1.438  10.542 -0.0168 -0.0971  0.4551
84509SOL     OW65505   4.994   6.917   9.449  0.1573  0.2909  0.1030
84509SOL    HW165506   5.054   6.845   9.431 -0.1789 -0.7818  2.7483
84509SOL    HW265507   4.927   6.878   9.506  0.1063  2.7124  1.8502
84510SOL     OW65508   1.157   3.216   6.735 -0.6382  0.5133 -0.3766
84510SOL    HW165509   1.249   3.191   6.725  0.0585  1.5816  2.3057
84510SOL    HW265510   1.112   3.135   6.755  0.2354  0.2951  0.8447
84511SOL     OW65511   9.085  13.601  11.895  0.1081  0.4103  0.6301
84511SOL    HW165512   9.092  13.628  11.804 -0.9772  2.5513  1.1153
84511SOL    HW265513   9.022  13.662  11.934  0.2652 -0.6564  2.7383
84512SOL     OW65514   0.406   3.074   1.242 -0.0404 -0.2135  0.2443
84512SOL    HW165515   0.401   3.128   1.164 -0.1447  0.1189  0.4771
84512SOL    HW265516   0.365   2.991   1.217 -1.0496  0.2675  0.2580
84513SOL     OW65517   2.948  10.064  10.646  0.0299 -0.2605  0.5045
84513SOL    HW165518   3.012  10.104  10.706  1.9072 -0.5554 -1.1933
84513SOL    HW265519   2.942  10.126  10.573 -1.3148 -0.4681  0.4164
84514SOL     OW65520  13.952   0.549   2.278 -0.3255 -0.1710  0.0029
84514SOL    HW165521  14.036   0.580   2.312  0.3399  1.3388 -2.7613
84514SOL    HW265522  13.889   0.616   2.304 -0.2039 -0.0365 -0.0484
84515SOL     OW65523   8.901  12.480   2.809  0.1628  0.1048  0.5199
84515SOL    HW165524   8.813  12.492   2.774  0.9148  0.5321 -1.3498
84515SOL    HW265525   8.933  12.569   2.825  0.9011  0.0606 -0.5904
84516SOL     OW65526  12.852   0.207   6.120  0.2640 -0.0863 -0.8311
84516SOL    HW165527  12.785   0.223   6.054 -0.0145 -0.7510 -0.7178
84516SOL    HW265528  12.814   0.140   6.177 -0.1766  1.5968  0.9766
84517SOL     OW65529  11.581   1.021  11.810  0.1681  0.1576 -0.4627
84517SOL    HW165530  11.576   1.019  11.905  0.1075  0.6807 -0.4483
84517SOL    HW265531  11.499   1.063  11.782  0.1414 -0.0806 -0.7485
84518SOL     OW65532   2.214   7.914   7.301 -0.0123  0.1886 -0.0250
84518SOL    HW165533   2.301   7.906   7.261 -0.2532 -0.8413 -0.3887
84518SOL    HW265534   2.230   7.925   7.394  0.5104  0.0665 -0.1015
84519SOL     OW65535  12.604  10.692  10.216 -0.0417  0.3581  0.1956
84519SOL    HW165536  12.590  10.598  10.220 -0.9275  0.5278  1.7733
84519SOL    HW265537  12.553  10.721  10.141  0.7832 -0.4902 -0.7173
84520SOL     OW65538   6.287   8.951  10.616  0.2665 -0.0964 -0.5660
84520SOL    HW165539   6.192   8.962  10.620  0.3009 -0.0418  0.4592
84520SOL    HW265540   6.322   9.027  10.661  0.8195  0.0715 -1.2636
84521SOL     OW65541  13.308  10.647   9.613  0.5468  0.1351  0.4280
84521SOL    HW165542  13.247  10.586   9.655 -0.4859  0.7830 -0.0982
84521SOL    HW265543  13.356  10.686   9.686  0.5709 -0.6138  0.8285
84522SOL     OW65544   5.248   3.399   2.742 -0.4731  0.9445  0.0011
84522SOL    HW165545   5.167   3.352   2.718 -2.0452  3.1588  0.6614
84522SOL    HW265546   5.223   3.453   2.817  1.6317  1.7337  0.1844
84523SOL     OW65547   4.199   6.383  10.090 -0.0506  0.0177 -0.6782
84523SOL    HW165548   4.105   6.379  10.077 -0.0522 -0.2471 -0.5842
84523SOL    HW265549   4.222   6.474  10.074 -0.6775  0.6759  1.8553
84524SOL     OW65550   5.215  12.825  14.026 -0.5655  0.4304 -0.7491
84524SOL    HW165551   5.217  12.899  14.086 -1.1215 -0.3705  0.3011
84524SOL    HW265552   5.306  12.795  14.021 -0.4682  0.6976 -0.5465
84525SOL     OW65553   8.611   1.715   9.223 -1.0652 -0.4188 -0.2177
84525SOL    HW165554   8.546   1.748   9.160  0.2925  0.1048 -1.3897
84525SOL    HW265555   8.638   1.793   9.272 -1.3856 -0.6564  0.3501
84526SOL     OW65556   3.000   9.280  12.865  0.7631  0.0571 -0.0600
84526SOL    HW165557   3.005   9.232  12.948  1.9534  0.6172  0.2109
84526SOL    HW265558   2.915   9.254  12.828  1.3324 -2.2408  0.0672
84527SOL     OW65559  13.296   4.987   6.119 -0.0612  0.3940  0.0836
84527SOL    HW165560  13.322   4.957   6.032 -0.9517  0.8723 -0.3623
84527SOL    HW265561  13.308   4.911   6.176  2.6990  0.6873  0.0274
84528SOL     OW65562   5.760   1.750  10.776  0.3306 -0.3104  0.4143
84528SOL    HW165563   5.805   1.684  10.829  1.1190  0.0124  0.1556
84528SOL    HW265564   5.667   1.727  10.784  0.5808 -1.3951  0.3944
84529SOL     OW65565   6.323   5.981   7.227 -0.2992  0.4580  0.1128
84529SOL    HW165566   6.257   6.039   7.266  0.0563  0.8962  0.0802
84529SOL    HW265567   6.309   5.896   7.269  0.1985  0.9560  1.3596
84530SOL     OW65568   9.435   9.767  10.707  0.9879  0.0820  0.0810
84530SOL    HW165569   9.438   9.673  10.726  0.2091  0.0264 -0.0326
84530SOL    HW265570   9.512   9.783  10.653 -0.4852 -1.1092 -2.5337
84531SOL     OW65571   9.912   1.958   0.977 -0.1077 -0.8008 -0.2212
84531SOL    HW165572   9.856   2.034   0.959 -0.0343 -0.5186  0.7092
84531SOL    HW265573   9.975   1.989   1.041  0.4260 -1.4323 -0.4302
84532SOL     OW65574  13.546   3.986  10.680 -0.0183 -0.2242  0.1332
84532SOL    HW165575  13.508   4.040  10.750 -1.1860 -0.3747 -0.3656
84532SOL    HW265576  13.473   3.966  10.622  1.1450  0.9274 -1.8346
84533SOL     OW65577   0.868   2.822   4.656 -0.0970  0.1678  0.0155
84533SOL    HW165578   0.941   2.858   4.605  0.4076 -0.3229  0.3776
84533SOL    HW265579   0.890   2.729   4.666 -1.3995 -0.2742 -0.9498
84534SOL     OW65580   8.841   3.050   7.464  0.1014  0.0465 -0.1226
84534SOL    HW165581   8.898   3.063   7.539  0.5208  0.0463 -0.4366
84534SOL    HW265582   8.768   3.111   7.478 -0.6837 -1.1169  1.1108
84535SOL     OW65583   0.751   9.473   5.802  0.1617 -0.1892 -0.2549
84535SOL    HW165584   0.749   9.556   5.851 -1.5349 -0.9211  1.0256
84535SOL    HW265585   0.838   9.471   5.763  0.7709  1.5359  0.8610
84536SOL     OW65586   8.419  11.189   1.067  0.3380  0.2572  0.6203
84536SOL    HW165587   8.405  11.096   1.050 -2.9422  0.4399  1.5853
84536SOL    HW265588   8.396  11.232   0.984  3.0562  0.2688 -0.2376
84537SOL     OW65589   4.389  10.544  11.229 -0.4726  0.5161  0.4700
84537SOL    HW165590   4.315  10.528  11.287 -1.2914 -2.8074 -1.2541
84537SOL    HW265591   4.459  10.489  11.264 -1.2605 -2.2820 -1.9620
84538SOL     OW65592   6.282   3.420   2.642 -0.0650 -0.6257 -0.5991
84538SOL    HW165593   6.210   3.446   2.699  0.2001  0.8606 -0.9025
84538SOL    HW265594   6.332   3.357   2.693 -0.5564 -0.2928  0.3013
84539SOL     OW65595   8.386  12.456  10.757  0.1236 -0.1556 -0.0772
84539SOL    HW165596   8.375  12.430  10.666  0.0203  0.0043 -0.1104
84539SOL    HW265597   8.446  12.530  10.753 -3.1720  2.7465 -0.4413
84540SOL     OW65598   3.835   8.502   0.279 -0.1417  0.6128 -0.4125
84540SOL    HW165599   3.754   8.456   0.258  0.7040 -0.6680 -1.0021
84540SOL    HW265600   3.845   8.489   0.374 -1.5081  2.3151  0.0146
84541SOL     OW65601   7.322  13.518   1.614  0.2282  0.1966  0.3630
84541SOL    HW165602   7.407  13.499   1.654 -0.5193  0.2754  2.0907
84541SOL    HW265603   7.261  13.520   1.688 -1.0542  1.5039 -0.6756
84542SOL     OW65604   2.056   0.789  12.331 -0.0003  0.6632  0.1723
84542SOL    HW165605   2.072   0.842  12.254  0.1395 -0.0626 -0.3113
84542SOL    HW265606   1.963   0.766  12.326 -0.3127  1.7150  0.9385
84543SOL     OW65607   2.443   1.006   5.395  0.4552 -0.5693 -0.7555
84543SOL    HW165608   2.400   0.938   5.447  0.5672  0.5564  0.8644
84543SOL    HW265609   2.535   1.000   5.419  0.4140  0.3684 -0.3308
84544SOL     OW65610   4.417   3.216   0.935 -0.7728 -0.0376 -0.6581
84544SOL    HW165611   4.362   3.157   0.884 -2.0798  0.1764  0.4446
84544SOL    HW265612   4.458   3.159   1.001  0.4465 -0.2110 -1.5233
84545SOL     OW65613   1.443   5.118   2.813 -0.3364 -0.0935 -0.0427
84545SOL    HW165614   1.361   5.168   2.809 -0.0830  0.4801  1.3532
84545SOL    HW265615   1.419   5.030   2.785 -1.1644  0.3759 -0.8558
84546SOL     OW65616  13.938   7.554   1.231 -0.4316  0.1225  0.0174
84546SOL    HW165617  13.848   7.525   1.220 -0.9224  1.7297 -0.5665
84546SOL    HW265618  13.992   7.480   1.201 -1.5325 -0.9626  0.6534
84547SOL     OW65619   7.133  11.329  11.400  0.2268 -0.2115  0.5636
84547SOL    HW165620   7.042  11.338  11.371  0.4156 -0.3674 -0.0984
84547SOL    HW265621   7.152  11.411  11.445 -0.8988 -1.0094  2.6177
84548SOL     OW65622   9.637   6.694  13.496 -0.0447  0.3091  0.0544
84548SOL    HW165623   9.598   6.660  13.415  0.3186  1.2902 -0.5580
84548SOL    HW265624   9.724   6.724  13.469 -0.4597  1.9977  0.4689
84549SOL     OW65625   6.258   2.188   2.932 -0.1148  0.6309 -0.0431
84549SOL    HW165626   6.297   2.275   2.930  0.8834  0.1800 -1.2438
84549SOL    HW265627   6.316   2.134   2.878 -1.0287 -0.6480  0.2064
84550SOL     OW65628   5.436   6.928   9.549 -0.5034 -0.3228  0.3546
84550SOL    HW165629   5.395   6.987   9.612  0.8270 -0.6712  1.5879
84550SOL    HW265630   5.528   6.953   9.548 -0.6898  0.7333 -2.6763
84551SOL     OW65631   9.779   6.390  12.751  0.2679 -0.1552  0.8242
84551SOL    HW165632   9.725   6.468  12.734 -0.7850 -0.5733  2.0347
84551SOL    HW265633   9.867   6.424  12.765 -0.0529  0.7521  0.7121
84552SOL     OW65634  10.025   8.587   1.779 -0.2189  0.1961 -0.3288
84552SOL    HW165635   9.972   8.517   1.742  0.6510 -0.1446 -0.9702
84552SOL    HW265636  10.088   8.543   1.835 -0.8559  0.6319  0.7735
84553SOL     OW65637   9.908   6.953   1.247 -0.7325 -0.3353  0.0292
84553SOL    HW165638   9.968   6.935   1.174 -0.4554  1.2519 -0.1764
84553SOL    HW265639   9.837   6.890   1.235 -0.2497 -0.7015 -1.0809
84554SOL     OW65640   1.152   7.725   6.421  0.3309 -0.1508 -0.2851
84554SOL    HW165641   1.241   7.737   6.388 -0.5744  0.1091 -2.8669
84554SOL    HW265642   1.145   7.784   6.496  2.1906  0.1227 -0.2941
84555SOL     OW65643   8.826  10.601   4.445 -0.1642  0.3038 -0.2344
84555SOL    HW165644   8.836  10.667   4.514 -1.5973  0.6884 -0.3571
84555SOL    HW265645   8.770  10.534   4.483  0.3697 -0.2971 -0.4903
84556SOL     OW65646   1.035  10.824  10.551 -0.0483 -0.4247  0.0316
84556SOL    HW165647   1.031  10.908  10.507  3.3874  1.6308  3.1152
84556SOL    HW265648   1.043  10.760  10.479 -2.2785  1.7575 -2.3926
84557SOL     OW65649   6.232   2.271   7.136  0.6728 -0.3491  0.1483
84557SOL    HW165650   6.212   2.218   7.059  1.2181  0.6437 -0.7027
84557SOL    HW265651   6.328   2.270   7.142  0.7276  1.0500 -0.2688
84558SOL     OW65652  12.142  11.716   9.027 -0.0225 -0.1193  0.1414
84558SOL    HW165653  12.151  11.712   8.932  1.1738  1.7086  0.1247
84558SOL    HW265654  12.213  11.663   9.061 -1.0739 -1.6407  0.0562
84559SOL     OW65655  10.533   7.133  13.553  0.1848 -0.1493 -0.0108
84559SOL    HW165656  10.591   7.117  13.478  0.6598 -1.1858  0.5529
84559SOL    HW265657  10.593   7.150  13.626 -0.2476 -0.2244  0.3633
84560SOL     OW65658   8.091   3.800   6.918  0.1208 -0.1353 -0.4384
84560SOL    HW165659   8.128   3.728   6.969 -0.7682  0.6869  1.5014
84560SOL    HW265660   8.165   3.860   6.904  0.3522 -0.3036  0.0437
84561SOL     OW65661   4.648   5.193  12.102  0.4172  0.1003 -0.1190
84561SOL    HW165662   4.607   5.108  12.117 -0.4199  0.5528  0.2428
84561SOL    HW265663   4.701   5.208  12.180  0.4986 -0.0599 -0.1455
84562SOL     OW65664  12.149   0.690  12.875  0.0998 -0.2507 -0.3547
84562SOL    HW165665  12.082   0.684  12.807 -0.4099 -1.1911  0.2076
84562SOL    HW265666  12.148   0.604  12.917 -0.1943  0.5653  1.3936
84563SOL     OW65667  12.846   4.691   2.797  0.5357  0.5454 -0.2862
84563SOL    HW165668  12.788   4.642   2.738  0.3497  0.1918  0.1825
84563SOL    HW265669  12.933   4.655   2.781  0.0401 -2.1075  2.1355
84564SOL     OW65670  13.105   0.722   6.932 -0.8672 -0.2008 -0.0079
84564SOL    HW165671  13.137   0.646   6.883  3.3801 -0.7090  2.9453
84564SOL    HW265672  13.041   0.686   6.993  0.4071 -1.3441  0.7207
84565SOL     OW65673   6.147   9.097   0.008 -0.4368  0.0127  0.7224
84565SOL    HW165674   6.071   9.063   0.055 -0.8241 -1.5186 -0.8692
84565SOL    HW265675   6.191   9.018  -0.026  1.1568  0.9321  0.5589
84566SOL     OW65676   9.991  11.109   3.545 -0.0774  0.1144  0.0789
84566SOL    HW165677   9.943  11.187   3.573 -2.0237 -0.7567 -0.6207
84566SOL    HW265678  10.074  11.114   3.592  0.2978  3.0978 -0.7055
84567SOL     OW65679   6.382   7.679  10.689 -0.0285  0.2446  0.0065
84567SOL    HW165680   6.312   7.743  10.701  0.7231  0.9572  0.7753
84567SOL    HW265681   6.387   7.633  10.773 -0.3758 -0.6305 -0.4525
84568SOL     OW65682  11.346   6.420   0.678  0.2387 -0.4856  0.9459
84568SOL    HW165683  11.266   6.390   0.721 -0.6982 -0.2999 -0.5937
84568SOL    HW265684  11.396   6.340   0.661 -1.3850 -1.0782 -1.4436
84569SOL     OW65685   0.501   8.587   6.538  0.1234 -0.5535  0.2930
84569SOL    HW165686   0.439   8.614   6.606  0.0280 -0.3558  0.1275
84569SOL    HW265687   0.523   8.497   6.561  0.8208 -0.1908  1.1360
84570SOL     OW65688   4.049   7.626   6.494 -0.1331  0.4853 -0.3560
84570SOL    HW165689   4.083   7.538   6.477 -1.6075 -0.3612  0.8094
84570SOL    HW265690   4.009   7.652   6.411 -1.3918 -0.7910 -0.1968
84571SOL     OW65691   1.215  12.800   9.960 -0.6253 -0.2483  0.3475
84571SOL    HW165692   1.174  12.729  10.010 -2.8220  1.6255  1.3917
84571SOL    HW265693   1.264  12.851  10.026  1.0001 -0.7607 -0.4025
84572SOL     OW65694   1.610  12.214   6.669 -0.2547  0.6357  0.1793
84572SOL    HW165695   1.607  12.119   6.682  1.0989  0.2286 -1.9541
84572SOL    HW265696   1.582  12.251   6.753  1.6412 -1.6190  1.9229
84573SOL     OW65697   5.253  12.154   1.889  0.6627  0.3487 -0.4046
84573SOL    HW165698   5.322  12.149   1.823  0.2194 -0.0771 -0.8464
84573SOL    HW265699   5.275  12.084   1.951 -0.1506 -0.7738 -1.3271
84574SOL     OW65700   9.009   0.076   8.937 -0.0888 -0.2656 -0.9195
84574SOL    HW165701   8.981   0.149   8.882 -0.4517 -0.9598 -1.6774
84574SOL    HW265702   9.004   0.110   9.026  0.1265  0.7543 -1.2879
84575SOL     OW65703   6.930   9.135   4.909  0.0443 -0.3486 -0.2527
84575SOL    HW165704   6.850   9.084   4.919  0.2364 -0.7407 -0.6603
84575SOL    HW265705   7.000   9.070   4.915  0.2583 -0.2937 -1.8135
84576SOL     OW65706   1.948   0.929  11.199  0.0443 -0.2917  0.2252
84576SOL    HW165707   1.946   0.913  11.104 -0.7666  0.3006  0.1372
84576SOL    HW265708   1.983   1.017  11.208  1.8331 -0.9908  0.5829
84577SOL     OW65709   3.147   7.322   7.410  0.0119  0.5334  0.3897
84577SOL    HW165710   3.061   7.311   7.370  1.0263 -0.6357 -1.6422
84577SOL    HW265711   3.141   7.405   7.459 -2.6628 -0.2497  1.5678
84578SOL     OW65712  13.336   0.186   2.700 -0.0525 -0.2388 -0.0226
84578SOL    HW165713  13.429   0.202   2.690 -0.3283  1.2087 -0.4878
84578SOL    HW265714  13.296   0.273   2.701 -1.5179 -0.8526 -0.9932
84579SOL     OW65715   5.246   2.924   2.371  0.4742 -0.4960  0.2897
84579SOL    HW165716   5.229   2.830   2.368  0.1821 -0.4837  1.2413
84579SOL    HW265717   5.165   2.962   2.406 -0.3040  0.3726 -2.2626
84580SOL     OW65718  13.620  13.204  11.861 -0.3092 -0.3527 -0.0726
84580SOL    HW165719  13.534  13.245  11.876 -1.2264 -2.0068 -0.5226
84580SOL    HW265720  13.675  13.275  11.829 -1.8522  0.5340 -0.8994
84581SOL     OW65721   6.142   0.647   6.246  0.6618  0.1345  0.3958
84581SOL    HW165722   6.091   0.700   6.185  2.4703  1.9633  0.3381
84581SOL    HW265723   6.136   0.558   6.213 -0.9303  0.5807 -0.6266
84582SOL     OW65724   5.755   9.381   0.633 -0.1272  0.1283  0.0572
84582SOL    HW165725   5.811   9.305   0.649 -0.0523  0.6488  2.8358
84582SOL    HW265726   5.776   9.441   0.705 -3.0490  1.0691  0.2552
84583SOL     OW65727  10.779   8.282   5.535  0.3950 -0.3771  0.2959
84583SOL    HW165728  10.837   8.352   5.567 -0.2109  0.3883 -0.2474
84583SOL    HW265729  10.833   8.232   5.475  1.7098 -2.1274  2.7689
84584SOL     OW65730  11.363   0.921   8.966 -0.8323 -0.8813 -0.2276
84584SOL    HW165731  11.344   0.827   8.960  0.6537 -1.3562  1.3165
84584SOL    HW265732  11.432   0.936   8.902 -2.1655 -0.4501 -1.6180
84585SOL     OW65733  12.426   6.492   6.315 -0.7806 -0.2396 -0.0200
84585SOL    HW165734  12.499   6.524   6.262  0.4972  0.7927  2.1855
84585SOL    HW265735  12.354   6.552   6.296 -0.7075 -0.5484 -1.3521
84586SOL     OW65736   5.789   0.647   1.878 -0.2222  0.7114  0.1166
84586SOL    HW165737   5.747   0.564   1.856 -1.7934  1.9289 -1.9713
84586SOL    HW265738   5.813   0.685   1.793  1.0142  2.1094  1.0375
84587SOL     OW65739  13.945   0.231   0.996 -0.1808  0.4724  0.4607
84587SOL    HW165740  13.879   0.243   0.927 -1.3428  0.6241  1.5457
84587SOL    HW265741  13.997   0.156   0.968 -0.0301  1.0883 -1.0109
84588SOL     OW65742   2.232   1.493   7.040 -0.7542 -0.1949  0.2712
84588SOL    HW165743   2.173   1.431   6.998  0.4465 -1.0840 -0.1539
84588SOL    HW265744   2.268   1.445   7.115  1.0098 -0.4520 -0.6842
84589SOL     OW65745   7.949   7.870  10.349 -0.5866 -0.4005  0.3760
84589SOL    HW165746   7.958   7.822  10.432  0.0501 -0.5235  0.2409
84589SOL    HW265747   8.038   7.896  10.327 -0.6488 -0.9983 -0.6440
84590SOL     OW65748   4.518  13.283   6.994  0.0533  0.0640 -0.4672
84590SOL    HW165749   4.539  13.340   7.068  2.6821 -1.1306 -0.1746
84590SOL    HW265750   4.423  13.268   7.001 -0.2701  2.2634  0.9233
84591SOL     OW65751  13.643   1.935   2.412 -0.3070 -0.3342  0.4169
84591SOL    HW165752  13.559   1.923   2.367  0.0860 -1.6559 -0.0245
84591SOL    HW265753  13.620   1.970   2.497 -1.1709  1.0223 -0.3366
84592SOL     OW65754  11.690   0.210   9.606 -0.0774 -0.3478 -0.1304
84592SOL    HW165755  11.765   0.187   9.661  0.1393 -0.0943 -0.3165
84592SOL    HW265756  11.682   0.305   9.614 -0.2388 -0.3475 -0.2901
84593SOL     OW65757   1.775  10.611   4.936 -0.2836  0.2634 -0.3963
84593SOL    HW165758   1.822  10.605   4.853 -1.3956 -0.3010 -1.0187
84593SOL    HW265759   1.784  10.703   4.962 -0.1567  0.5180 -1.2906
84594SOL     OW65760   0.672   1.391   0.798 -0.2294  0.1967 -0.6405
84594SOL    HW165761   0.626   1.326   0.744  1.7823 -2.5090  0.6319
84594SOL    HW265762   0.633   1.381   0.885  1.2568 -0.6901 -0.0256
84595SOL     OW65763   5.058  11.443   2.557 -0.1804 -0.3915 -0.6224
84595SOL    HW165764   4.999  11.511   2.526 -0.6468  0.0929  1.1958
84595SOL    HW265765   5.044  11.369   2.498 -2.1003 -0.0420 -0.6549
84596SOL     OW65766   1.412   9.579  13.911  0.7895  0.1917 -0.1036
84596SOL    HW165767   1.427   9.497  13.864 -2.1555  0.0621 -1.0014
84596SOL    HW265768   1.404   9.554  14.003  2.7302 -0.0778  0.0292
84597SOL     OW65769   3.975  10.494  10.634 -0.0620  0.0453 -0.5812
84597SOL    HW165770   3.936  10.408  10.616 -0.1682  0.1117 -0.6711
84597SOL    HW265771   4.069  10.480  10.623 -0.1548  0.1858 -1.6314
84598SOL     OW65772   7.173   4.286   0.497  0.4913 -0.2024 -0.4522
84598SOL    HW165773   7.262   4.308   0.468 -0.3453  4.0569 -0.5086
84598SOL    HW265774   7.117   4.318   0.427 -1.1827  0.4374  1.1059
84599SOL     OW65775   6.067   9.601   1.602 -0.2050 -0.4013 -0.2921
84599SOL    HW165776   6.077   9.520   1.651  0.7368 -0.9564 -1.3478
84599SOL    HW265777   6.068   9.574   1.510  0.1980  0.8061 -0.6693
84600SOL     OW65778   1.366   3.865  13.831  0.7286 -0.1894 -0.3415
84600SOL    HW165779   1.353   3.859  13.926 -2.2407 -1.8152 -0.7183
84600SOL    HW265780   1.436   3.802  13.812 -0.2273 -1.6097  0.5980
84601SOL     OW65781   0.691   0.857   0.373  0.1887 -0.2809 -0.0663
84601SOL    HW165782   0.597   0.873   0.378  0.3308  0.4509  0.5008
84601SOL    HW265783   0.730   0.944   0.369  0.9040 -0.5167  1.1279
84602SOL     OW65784   8.310   9.025   5.161  0.1384 -0.1511  0.3444
84602SOL    HW165785   8.293   8.983   5.245  1.3606  2.8411  2.2372
84602SOL    HW265786   8.224   9.042   5.124 -0.4492 -0.7326  1.4093
84603SOL     OW65787   6.672   5.765   3.217 -0.1988 -0.2649 -0.3012
84603SOL    HW165788   6.696   5.820   3.143 -1.1091 -1.2775 -1.4019
84603SOL    HW265789   6.729   5.688   3.209 -1.6535 -1.3010 -1.1724
84604SOL     OW65790  12.643   7.031   6.908  0.1091  0.7441 -0.0340
84604SOL    HW165791  12.704   7.056   6.978 -1.6687  1.6774  1.2857
84604SOL    HW265792  12.584   7.105   6.901 -3.2002 -1.4981  1.4809
84605SOL     OW65793   0.325   4.056   9.667  0.1243  0.7221  0.2390
84605SOL    HW165794   0.238   4.095   9.658  0.0531  0.6017  0.4027
84605SOL    HW265795   0.350   4.074   9.757  0.0600  0.3255  0.3381
84606SOL     OW65796  12.218   2.013   7.251 -0.3541 -0.0137 -0.3869
84606SOL    HW165797  12.142   2.047   7.205 -1.0472 -0.4476  0.4051
84606SOL    HW265798  12.221   1.920   7.228 -0.8809 -0.3045  0.6220
84607SOL     OW65799   1.428   1.079  12.970 -0.2055  0.1015 -0.2519
84607SOL    HW165800   1.357   1.026  13.006 -1.5642  0.9944 -1.4851
84607SOL    HW265801   1.419   1.165  13.012  2.6993 -0.7865  2.6224
84608SOL     OW65802  12.113  12.549   7.562  0.2767  0.1261  0.1689
84608SOL    HW165803  12.146  12.519   7.477  3.3061  1.2452  0.8030
84608SOL    HW265804  12.180  12.610   7.594 -1.7098  1.3111  2.4967
84609SOL     OW65805   9.993   2.947   3.649 -0.1203 -0.6653 -0.7213
84609SOL    HW165806  10.012   3.029   3.602  0.2203 -0.5667 -0.4218
84609SOL    HW265807   9.901   2.929   3.630 -0.0766 -0.4503 -1.1531
84610SOL     OW65808   0.413  10.363  13.730 -0.9208  0.4340  0.3606
84610SOL    HW165809   0.320  10.363  13.756 -1.0356  0.3057 -0.0487
84610SOL    HW265810   0.448  10.282  13.765 -1.0847  0.2442  0.0893
84611SOL     OW65811  12.593   6.478   4.058 -0.5596  0.3517  0.0946
84611SOL    HW165812  12.575   6.572   4.062 -0.7954  0.3098  0.0001
84611SOL    HW265813  12.688   6.473   4.042 -0.7215  0.5992 -1.0404
84612SOL     OW65814   8.589  12.851  11.898  0.3706 -0.3581  0.2383
84612SOL    HW165815   8.677  12.831  11.928  0.4323 -0.9363 -0.2972
84612SOL    HW265816   8.597  12.857  11.803  0.3845  2.4853  0.3495
84613SOL     OW65817   6.513   5.835   0.231 -0.3767 -0.6578 -0.0897
84613SOL    HW165818   6.439   5.774   0.226 -0.9689  0.0426 -0.1440
84613SOL    HW265819   6.589   5.780   0.247 -0.8938 -1.4112 -0.1734
84614SOL     OW65820   8.658  13.405   0.146 -0.2775 -0.1572  0.2910
84614SOL    HW165821   8.639  13.435   0.057  0.0842 -1.4041 -0.2277
84614SOL    HW265822   8.737  13.351   0.137 -0.3152 -0.4082  1.3397
84615SOL     OW65823   1.545   3.132   2.379  0.0403 -0.2730  0.2992
84615SOL    HW165824   1.479   3.094   2.320  0.2525 -0.9571  0.4965
84615SOL    HW265825   1.506   3.215   2.408  0.0950  0.2706 -1.1011
84616SOL     OW65826   2.784  10.997  13.055 -0.1427  0.0683 -0.6386
84616SOL    HW165827   2.828  11.037  12.980  1.8438  0.3122  0.5822
84616SOL    HW265828   2.818  10.908  13.058  0.9311  0.4809  0.7553
84617SOL     OW65829   5.589   6.429   5.374  0.3659 -0.0860  0.9267
84617SOL    HW165830   5.535   6.412   5.297  0.6846 -0.5181  0.7948
84617SOL    HW265831   5.627   6.516   5.358 -0.0007  0.0634  0.8549
84618SOL     OW65832   2.748   3.810   3.863 -0.5313  0.1035  0.0601
84618SOL    HW165833   2.773   3.879   3.926  1.3689  0.5807 -1.1362
84618SOL    HW265834   2.670   3.845   3.820  1.2727  2.3262 -1.6217
84619SOL     OW65835  10.540   3.751  10.218  0.3886 -0.4649 -0.2443
84619SOL    HW165836  10.612   3.753  10.281 -0.9151 -2.1594  1.4186
84619SOL    HW265837  10.572   3.696  10.147  1.1425 -0.2191 -0.1072
84620SOL     OW65838   6.406  11.320  10.567 -0.0821  0.2079  0.6044
84620SOL    HW165839   6.395  11.304  10.661 -3.0049  2.2237  0.7420
84620SOL    HW265840   6.325  11.288  10.528  1.1746 -0.7894 -1.3119
84621SOL     OW65841   3.038  10.159   2.775  0.4211  0.1046 -0.4042
84621SOL    HW165842   3.069  10.154   2.685  3.9516 -0.3063  0.6702
84621SOL    HW265843   3.056  10.249   2.803 -1.4389  0.4845 -0.2941
84622SOL     OW65844  10.632   6.154  13.321 -0.5876 -0.6056  0.3594
84622SOL    HW165845  10.641   6.060  13.335 -0.5489 -1.0966 -2.3391
84622SOL    HW265846  10.720   6.190  13.332 -0.7122 -0.7334  2.0143
84623SOL     OW65847   0.081  12.124   0.792 -0.2964 -0.1572  0.0245
84623SOL    HW165848   0.095  12.154   0.702 -2.8265 -0.6780 -0.6452
84623SOL    HW265849  -0.009  12.091   0.792  0.0083 -1.2401  2.4791
84624SOL     OW65850   8.425   5.013  12.531 -0.2138  0.5470  0.0615
84624SOL    HW165851   8.514   4.985  12.554 -0.7148 -0.5319  0.7337
84624SOL    HW265852   8.437   5.101  12.496  1.2868 -0.1049 -1.1765
84625SOL     OW65853   1.458   8.346   3.712 -0.4888  0.3185 -0.3231
84625SOL    HW165854   1.500   8.339   3.627 -0.1063 -0.4596 -0.0717
84625SOL    HW265855   1.499   8.422   3.753  1.7235 -1.2030  0.4788
84626SOL     OW65856   9.821  12.912   8.759  0.4977  0.4142  0.2464
84626SOL    HW165857   9.759  12.960   8.704  0.1544  0.9450  1.0774
84626SOL    HW265858   9.907  12.948   8.735  0.7408 -1.4936 -2.1233
84627SOL     OW65859   7.177   9.707   7.184  0.1326 -0.2750  0.2385
84627SOL    HW165860   7.154   9.666   7.101 -2.1709 -0.8218  1.0645
84627SOL    HW265861   7.238   9.646   7.225  1.3868  0.0578 -1.0420
84628SOL     OW65862   7.362   7.975  12.866  0.1643 -0.4157 -0.0319
84628SOL    HW165863   7.383   7.997  12.956 -0.6354  0.2860 -0.0052
84628SOL    HW265864   7.278   8.018  12.849  0.5610 -0.0684 -1.2829
84629SOL     OW65865   1.264   8.897  12.264 -0.5496 -0.0779  0.0087
84629SOL    HW165866   1.226   8.961  12.324 -0.4721 -0.8887  0.9506
84629SOL    HW265867   1.189   8.862  12.216 -0.7561 -0.2641  0.4644
84630SOL     OW65868   4.388  12.851   5.324  0.2621 -0.4256 -0.5460
84630SOL    HW165869   4.304  12.808   5.307  0.1903 -0.0040 -1.3072
84630SOL    HW265870   4.365  12.934   5.366  0.0889  0.8264 -2.9037
84631SOL     OW65871   3.208   0.763   7.747  0.3628 -0.0263  0.3233
84631SOL    HW165872   3.177   0.775   7.657  2.5825 -0.0588 -0.4891
84631SOL    HW265873   3.158   0.687   7.778  1.9401 -2.2298 -2.1078
84632SOL     OW65874   0.298   9.234   0.436  0.2799  0.0085 -0.1878
84632SOL    HW165875   0.211   9.267   0.413 -0.0691 -0.4149  0.4893
84632SOL    HW265876   0.282   9.146   0.471  1.0065 -0.1662 -0.2672
84633SOL     OW65877  11.659  10.812   1.344 -0.0527 -0.3394  0.1410
84633SOL    HW165878  11.712  10.746   1.299  1.1274  1.0085 -0.5426
84633SOL    HW265879  11.701  10.822   1.430 -1.3990 -1.8178  1.0340
84634SOL     OW65880   1.678  11.189   0.127  0.2230 -0.3320 -0.3374
84634SOL    HW165881   1.638  11.170   0.212 -1.0659  0.4353 -0.7591
84634SOL    HW265882   1.605  11.213   0.071  1.1285 -0.3031 -1.5259
84635SOL     OW65883  11.162   2.127   7.936  0.2327  0.9386  0.7764
84635SOL    HW165884  11.076   2.097   7.964  0.0194 -0.1002 -0.8533
84635SOL    HW265885  11.148   2.218   7.909 -0.4479  0.6782  0.2105
84636SOL     OW65886  13.762   4.559  12.855 -0.3941 -0.9079 -0.8508
84636SOL    HW165887  13.823   4.628  12.828 -2.1321  0.4588 -1.4493
84636SOL    HW265888  13.690   4.565  12.793 -2.8547 -0.0539  1.8771
84637SOL     OW65889  13.554   8.472   5.416  0.5423 -0.5492  0.3805
84637SOL    HW165890  13.631   8.499   5.465  0.4775  0.0504  0.1658
84637SOL    HW265891  13.556   8.526   5.336  1.0654 -2.0206 -0.6499
84638SOL     OW65892   6.610   7.877   0.389 -0.3252  0.0660 -0.3125
84638SOL    HW165893   6.595   7.848   0.299  1.9852 -2.1055 -0.1214
84638SOL    HW265894   6.546   7.947   0.403 -2.0273 -0.8076 -2.9790
84639SOL     OW65895   4.562  11.693   9.234  0.3093  0.2373 -0.3156
84639SOL    HW165896   4.600  11.622   9.183  0.7696  0.0971  0.2148
84639SOL    HW265897   4.467  11.678   9.230  0.2375  0.9875 -2.2209
84640SOL     OW65898  11.592   3.593   0.239  0.2563  0.1661  0.2240
84640SOL    HW165899  11.516   3.549   0.277  0.6160 -0.2358  0.4855
84640SOL    HW265900  11.662   3.580   0.303  0.8955 -0.5866 -0.6061
84641SOL     OW65901   3.639  11.679  11.775 -0.4108  0.0944 -0.0100
84641SOL    HW165902   3.592  11.730  11.709 -0.0782  0.1399 -0.2187
84641SOL    HW265903   3.646  11.737  11.851 -1.7486 -0.3479  0.4638
84642SOL     OW65904  10.926   1.745   6.338 -0.3697  0.0338 -0.3501
84642SOL    HW165905  11.009   1.705   6.362  0.0990  1.2419  0.1189
84642SOL    HW265906  10.902   1.798   6.414 -2.1195 -1.1361 -0.0481
84643SOL     OW65907  11.484   3.806   8.155 -0.0760  0.2717 -0.4583
84643SOL    HW165908  11.495   3.892   8.115 -0.1389 -0.0816 -1.2559
84643SOL    HW265909  11.402   3.812   8.203 -0.3847  0.4820 -0.9960
84644SOL     OW65910  11.639   3.435   2.822  0.0186 -0.4034  0.9631
84644SOL    HW165911  11.691   3.504   2.864  0.6474 -0.6883  0.6682
84644SOL    HW265912  11.557   3.433   2.871 -1.1836  2.4237 -0.6150
84645SOL     OW65913   7.151   6.794  10.500  0.2104  0.2622  0.0432
84645SOL    HW165914   7.067   6.748  10.503 -0.1058  0.8154 -0.1910
84645SOL    HW265915   7.174   6.808  10.591 -0.1103  0.3944  0.1037
84646SOL     OW65916  12.889   7.055  10.963 -0.5152 -0.6240  0.0081
84646SOL    HW165917  12.864   7.035  10.873  0.0988  0.4999 -0.4283
84646SOL    HW265918  12.972   7.008  10.976 -0.2271 -0.1945 -0.2625
84647SOL     OW65919  11.648  12.430  10.171 -0.1028  0.8452 -0.7184
84647SOL    HW165920  11.686  12.506  10.214  0.9065  1.1468 -2.0782
84647SOL    HW265921  11.648  12.452  10.078 -0.4827 -0.5107 -1.0686
84648SOL     OW65922  13.178   6.179  11.286 -0.2380  0.1733 -0.5489
84648SOL    HW165923  13.151   6.227  11.207 -0.4063  1.4172  0.2525
84648SOL    HW265924  13.137   6.093  11.275 -1.2365  0.7049 -1.2716
84649SOL     OW65925   2.368  11.613  10.767 -0.4057 -0.7012  0.1449
84649SOL    HW165926   2.375  11.638  10.675  0.4793  0.9940  0.6179
84649SOL    HW265927   2.282  11.645  10.794 -0.5390 -0.9234 -0.0119
84650SOL     OW65928   6.266  10.847   4.957 -0.1785  0.6501 -0.2501
84650SOL    HW165929   6.224  10.805   4.882  0.3236  0.7643 -0.6049
84650SOL    HW265930   6.196  10.896   4.999 -0.4018  0.8567 -0.8469
84651SOL     OW65931   0.026   3.200   2.056  0.0827  0.2913  0.7646
84651SOL    HW165932   0.033   3.105   2.042 -0.8556  0.3512 -0.1961
84651SOL    HW265933  -0.023   3.209   2.137  0.0870 -0.0469  0.8060
84652SOL     OW65934   1.679  12.325  11.784  0.0015 -0.1353  0.0547
84652SOL    HW165935   1.763  12.367  11.765 -0.8178  1.2314 -0.6086
84652SOL    HW265936   1.616  12.397  11.791 -0.5125 -0.6993  4.4370
84653SOL     OW65937  13.807   8.885  11.511 -0.1902  0.8005 -0.9552
84653SOL    HW165938  13.768   8.969  11.488 -1.0376  1.2095  1.6307
84653SOL    HW265939  13.740   8.841  11.563  0.9038 -0.7122 -0.7647
84654SOL     OW65940   4.263   2.649   4.587  0.7963  0.4210  0.1409
84654SOL    HW165941   4.254   2.737   4.623 -1.8783  1.4940 -2.7130
84654SOL    HW265942   4.224   2.591   4.653 -0.5896  1.8207  0.6000
84655SOL     OW65943  10.382  13.395   2.962 -0.2541  0.2779  0.0168
84655SOL    HW165944  10.326  13.471   2.948 -1.5956  0.0949  3.4686
84655SOL    HW265945  10.387  13.353   2.875 -2.9956  1.9435 -1.0924
84656SOL     OW65946   0.171  13.063   1.727  0.4599  0.3477  0.0127
84656SOL    HW165947   0.153  13.127   1.795  1.1224  0.6788 -0.1171
84656SOL    HW265948   0.182  13.115   1.647 -0.4147 -0.0449 -0.3684
84657SOL     OW65949   0.812   6.548   1.538 -0.0432 -0.5810 -0.2982
84657SOL    HW165950   0.888   6.606   1.546  0.9493 -1.5984 -1.7968
84657SOL    HW265951   0.839   6.467   1.582 -1.2607 -0.1252  1.4086
84658SOL     OW65952  12.946  10.107   2.590  0.1375 -0.0656 -0.2980
84658SOL    HW165953  12.961  10.127   2.682 -0.3805 -3.1800  0.5833
84658SOL    HW265954  12.981  10.183   2.543  3.6992  0.1354  2.2570
84659SOL     OW65955   2.546   8.211   4.049  0.0243  0.3677 -0.2507
84659SOL    HW165956   2.583   8.255   4.126 -1.0139 -1.0211  1.1211
84659SOL    HW265957   2.514   8.127   4.083 -0.5488 -0.2554 -2.2012
84660SOL     OW65958  11.933  12.000   2.611  0.4167  0.0771  0.3530
84660SOL    HW165959  11.952  12.008   2.704 -2.8338 -0.2324  1.1612
84660SOL    HW265960  11.961  12.083   2.573  2.5437 -0.0976  1.3821
84661SOL     OW65961   1.303   5.274  10.673  0.1126  0.1446  0.5030
84661SOL    HW165962   1.241   5.202  10.682 -1.1153  1.3788  2.9680
84661SOL    HW265963   1.250   5.348  10.644  0.6082  0.9608  1.6123
84662SOL     OW65964   2.691   4.682  12.511  0.2072 -0.2372 -0.0935
84662SOL    HW165965   2.693   4.746  12.439  1.0836 -2.1268 -1.8603
84662SOL    HW265966   2.782   4.656  12.522 -0.1895 -1.5751  0.1922
84663SOL     OW65967   5.580   3.805   5.165 -0.2862  0.3987  0.5689
84663SOL    HW165968   5.656   3.766   5.123 -0.2818 -0.2560  1.1723
84663SOL    HW265969   5.528   3.840   5.092 -0.1030 -0.3985  0.0469
84664SOL     OW65970   7.395   3.599  11.363  0.5888  0.6449 -0.4446
84664SOL    HW165971   7.421   3.631  11.449 -0.1730 -1.8831  0.8056
84664SOL    HW265972   7.477   3.579  11.319  0.9603  1.0812  0.0287
84665SOL     OW65973   6.531   0.868   4.339 -0.3323 -0.4719 -0.0475
84665SOL    HW165974   6.554   0.953   4.377 -0.5276 -0.4384 -0.0053
84665SOL    HW265975   6.464   0.888   4.274  0.1568 -0.5037 -0.5669
84666SOL     OW65976  11.690   2.896  12.277  0.0665  0.2566 -0.3601
84666SOL    HW165977  11.751   2.944  12.333 -0.6582  1.9739 -0.9633
84666SOL    HW265978  11.627   2.963  12.248 -1.3757 -1.2058 -0.7320
84667SOL     OW65979   0.107   0.625   8.353 -0.3685  0.2000 -0.6379
84667SOL    HW165980   0.181   0.610   8.293 -0.7664  0.0394 -1.0969
84667SOL    HW265981   0.114   0.556   8.418 -0.9333 -0.7123 -1.5034
84668SOL     OW65982   6.778   9.769  11.939 -0.3969  0.2503  0.2154
84668SOL    HW165983   6.766   9.741  12.030 -0.0556 -0.2023  0.1237
84668SOL    HW265984   6.797   9.688  11.892  2.3548  0.8131  0.2351
84669SOL     OW65985  13.537   9.307   5.101  0.2184 -0.0549 -0.1509
84669SOL    HW165986  13.528   9.218   5.135  0.1115 -0.8154 -2.0608
84669SOL    HW265987  13.454   9.324   5.057  1.3670 -0.2927 -2.5827
84670SOL     OW65988   3.684   1.526  11.100  0.7276  1.6062 -0.5372
84670SOL    HW165989   3.638   1.554  11.020 -0.5335  1.3791  0.0789
84670SOL    HW265990   3.619   1.537  11.169  1.1882  0.0204  0.1789
84671SOL     OW65991  12.935   2.313   1.810  0.2495  0.4693  0.1149
84671SOL    HW165992  12.974   2.394   1.840 -0.7791 -0.0768  3.2737
84671SOL    HW265993  12.854   2.305   1.859  0.6126 -2.7681  0.4303
84672SOL     OW65994   5.924   4.807   9.922  0.4209 -0.4739  0.4097
84672SOL    HW165995   5.989   4.736   9.921 -0.8806 -1.7290  0.2727
84672SOL    HW265996   5.944   4.857  10.001  2.4408  0.0731 -0.4022
84673SOL     OW65997   9.859   8.145   3.927  0.4529 -0.0321 -0.1018
84673SOL    HW165998   9.863   8.220   3.985  2.3351  0.2074 -0.4737
84673SOL    HW265999   9.849   8.070   3.985  1.1172  0.3064  0.4732
84674SOL     OW66000  11.931  12.457   4.385  0.4418 -0.0004 -0.3334
84674SOL    HW166001  11.866  12.451   4.455 -0.0226 -0.1501 -0.7717
84674SOL    HW266002  11.915  12.542   4.345  0.2867 -0.1882 -0.6674
84675SOL     OW66003   7.195   7.768   0.190  0.4198  0.0912  0.0889
84675SOL    HW166004   7.216   7.764   0.283 -0.2068  1.6190  0.3366
84675SOL    HW266005   7.168   7.679   0.168 -1.4023  0.1173  1.8876
84676SOL     OW66006  12.048  10.078   7.698  0.0430  0.2059  0.3049
84676SOL    HW166007  12.140  10.064   7.676  0.3900  1.0591  1.1698
84676SOL    HW266008  12.050  10.119   7.784 -1.1852 -0.4668  0.6698
84677SOL     OW66009  13.359  12.333   5.762 -0.0664 -0.3333  0.3345
84677SOL    HW166010  13.295  12.390   5.718 -1.3480 -1.1799  1.0378
84677SOL    HW266011  13.359  12.363   5.853  1.4470  0.4244  0.1084
84678SOL     OW66012   7.882   0.734   1.173 -0.3367  0.1102 -0.0453
84678SOL    HW166013   7.881   0.717   1.267 -0.3148  0.5638  0.0396
84678SOL    HW266014   7.802   0.693   1.140 -1.2046  1.3657  0.4294
84679SOL     OW66015   0.750   4.727   5.957  0.3637 -0.7924  0.1573
84679SOL    HW166016   0.799   4.744   5.876  1.5845 -1.0954  0.8188
84679SOL    HW266017   0.809   4.675   6.011  0.7263  1.7077  2.3955
84680SOL     OW66018   2.867   1.047   5.731 -0.2873 -0.1405  0.4505
84680SOL    HW166019   2.960   1.045   5.752 -0.1833 -0.0347  0.0157
84680SOL    HW266020   2.831   0.968   5.771  0.1029 -0.4939  0.1116
84681SOL     OW66021   0.537   0.679   4.895 -0.2559  0.2882 -0.3642
84681SOL    HW166022   0.447   0.664   4.923 -0.3013  0.4692 -0.4109
84681SOL    HW266023   0.590   0.649   4.969 -0.3681  0.5799 -0.1606
84682SOL     OW66024  13.519   1.377  11.332  0.1335  0.0843  0.1513
84682SOL    HW166025  13.515   1.282  11.317  2.2472 -0.0756  0.2109
84682SOL    HW266026  13.569   1.411  11.258 -0.1895  1.0950  0.3762
84683SOL     OW66027  10.418   9.390   7.929  0.2563  0.1760  0.2204
84683SOL    HW166028  10.439   9.401   7.837  0.8585  0.6648  0.4102
84683SOL    HW266029  10.365   9.467   7.951  0.5973  0.3544  0.4209
84684SOL     OW66030   3.150  10.791   9.729 -0.0889  0.3937 -0.5241
84684SOL    HW166031   3.244  10.809   9.723  0.1306 -0.9075 -1.3797
84684SOL    HW266032   3.119  10.847   9.801  1.0563  1.8951 -1.1476
84685SOL     OW66033   5.709   0.109   6.893 -0.1055 -0.6296  0.1868
84685SOL    HW166034   5.757   0.056   6.956 -1.4818 -1.3438  0.6677
84685SOL    HW266035   5.650   0.162   6.946 -1.3921 -1.3547 -0.4773
84686SOL     OW66036   6.279  13.556  11.814  0.5322 -0.6362  0.1601
84686SOL    HW166037   6.246  13.569  11.902 -0.6702  0.4105 -0.4162
84686SOL    HW266038   6.233  13.479  11.782 -2.5440  1.5297 -1.0964
84687SOL     OW66039   5.466   4.792  13.953 -0.0113  0.0456 -0.2983
84687SOL    HW166040   5.521   4.817  14.028 -0.5743  2.1898 -0.5642
84687SOL    HW266041   5.527   4.789  13.879 -0.0818  1.8198 -0.4721
84688SOL     OW66042  10.825  14.031   0.459  0.2743  0.2899 -0.0901
84688SOL    HW166043  10.773  13.995   0.531  0.8952 -1.0606 -0.2771
84688SOL    HW266044  10.901  14.071   0.501 -0.5913  1.7104  0.1439
84689SOL     OW66045  10.255  13.427  13.449  0.0043  0.6155  0.1497
84689SOL    HW166046  10.214  13.513  13.465 -1.9646  0.1548 -1.8497
84689SOL    HW266047  10.184  13.373  13.415  1.8079 -0.9926 -1.2849
84690SOL     OW66048   9.055   9.130  10.577 -0.3045 -0.1446 -0.0035
84690SOL    HW166049   9.055   9.065  10.647  1.9340 -0.3813 -0.1382
84690SOL    HW266050   9.002   9.202  10.611 -2.1164 -1.6448  0.4979
84691SOL     OW66051   1.867  11.489   8.811  0.0172  0.5527 -0.2920
84691SOL    HW166052   1.780  11.451   8.812  0.3233 -0.1510  0.0290
84691SOL    HW266053   1.853  11.583   8.826 -0.5897  0.2736  1.0219
84692SOL     OW66054   0.833  12.934   0.346  0.0899 -0.1450 -0.3541
84692SOL    HW166055   0.895  13.008   0.345  0.1211 -0.1636 -0.0044
84692SOL    HW266056   0.883  12.862   0.384  0.0655 -0.3540 -0.7176
84693SOL     OW66057   2.451   0.428   9.558 -0.5393  0.8385  0.2380
84693SOL    HW166058   2.520   0.483   9.523 -0.4531  1.0137  0.6804
84693SOL    HW266059   2.396   0.407   9.482  0.8881 -0.6433 -0.4412
84694SOL     OW66060  12.406   0.370  10.112 -0.0401 -0.2148  0.0453
84694SOL    HW166061  12.410   0.393  10.019 -0.2473  2.5423  0.6274
84694SOL    HW266062  12.312   0.359  10.130 -0.1093  0.5971  0.1998
84695SOL     OW66063   6.949  10.269   2.816 -0.3095 -0.6972  0.5725
84695SOL    HW166064   6.940  10.207   2.889  0.2834 -0.9921  0.4021
84695SOL    HW266065   7.043  10.275   2.801 -0.3210  0.6309  0.9033
84696SOL     OW66066  11.725   2.836  11.277 -0.4110 -0.2822 -0.0716
84696SOL    HW166067  11.631   2.841  11.295 -0.2411  0.0430  0.7863
84696SOL    HW266068  11.750   2.926  11.254  0.2172  0.3279  2.6179
84697SOL     OW66069  10.911  10.446   2.731 -0.8734  0.3075  0.1822
84697SOL    HW166070  10.931  10.465   2.823  1.0927 -0.8546  0.0527
84697SOL    HW266071  10.926  10.529   2.685 -0.3224  0.5033  0.7015
84698SOL     OW66072  13.081  10.099   1.297 -0.2641  0.0662 -0.0121
84698SOL    HW166073  12.993  10.126   1.322 -0.2636 -0.5923  0.7354
84698SOL    HW266074  13.086  10.116   1.203 -2.0240 -2.0391 -0.5867
84699SOL     OW66075  13.841   0.806   2.487 -0.2179 -0.1296 -0.5462
84699SOL    HW166076  13.918   0.859   2.505 -0.6723 -0.1334  1.8222
84699SOL    HW266077  13.793   0.854   2.419 -0.3381  2.2593  1.0990
84700SOL     OW66078  10.299   6.416  10.004 -0.2088  0.1245  0.0747
84700SOL    HW166079  10.335   6.484   9.947  0.1976 -1.1014 -1.1578
84700SOL    HW266080  10.322   6.445  10.093  0.6751  1.1711 -0.4744
84701SOL     OW66081  13.505   4.857  12.332 -0.3068 -0.2918  0.6550
84701SOL    HW166082  13.470   4.880  12.417  1.4493  1.6826  0.9476
84701SOL    HW266083  13.428   4.844  12.276 -1.4728 -1.0834  2.3846
84702SOL     OW66084   8.029   1.337   7.125  0.1012 -0.0394 -0.4365
84702SOL    HW166085   8.092   1.364   7.058  0.9911 -0.2155  0.2947
84702SOL    HW266086   8.036   1.404   7.193 -1.0949  0.3615 -0.6934
84703SOL     OW66087   2.797   9.121  10.863 -0.2485  0.0024  0.5822
84703SOL    HW166088   2.823   9.075  10.783  0.0326  1.3223 -0.1034
84703SOL    HW266089   2.875   9.168  10.891 -0.1434 -0.9768  2.0443
84704SOL     OW66090   7.126   9.222   7.835 -0.1381 -0.3317  0.4763
84704SOL    HW166091   7.173   9.298   7.870 -0.5323  0.2930 -0.3279
84704SOL    HW266092   7.190   9.180   7.776  0.3453 -1.0866  1.5032
84705SOL     OW66093   8.620   5.640   2.992 -0.1830  0.5608  0.0539
84705SOL    HW166094   8.708   5.678   2.989  0.1746  0.1202  2.4320
84705SOL    HW266095   8.617   5.595   3.077 -2.1504 -0.8358 -0.6850
84706SOL     OW66096   2.507   2.434   0.961  0.2603 -0.2433  0.1719
84706SOL    HW166097   2.599   2.414   0.976  0.6343  1.9118  1.0690
84706SOL    HW266098   2.503   2.529   0.954 -1.7068 -0.3682 -1.3773
84707SOL     OW66099   2.921  11.121   8.403 -0.0438 -0.2532  0.8075
84707SOL    HW166100   2.913  11.216   8.409 -0.7883 -0.3384  1.3946
84707SOL    HW266101   3.011  11.105   8.374 -0.3793  0.6773 -0.9169
84708SOL     OW66102   5.659   4.919  10.038 -0.0305  0.0293 -0.0918
84708SOL    HW166103   5.642   4.847   9.978 -0.5502 -1.1587  1.4101
84708SOL    HW266104   5.731   4.888  10.093 -1.7821 -0.3958  2.1267
84709SOL     OW66105   8.067  13.482   8.484 -0.1133  0.2479  0.5077
84709SOL    HW166106   8.080  13.387   8.473 -0.1420  0.0382  2.1073
84709SOL    HW266107   8.072  13.517   8.395  0.9492 -1.1212 -0.0036
84710SOL     OW66108   2.040   2.084   0.202  0.1943 -0.2372 -0.0790
84710SOL    HW166109   2.091   2.083   0.120  0.0683 -0.5394 -0.1532
84710SOL    HW266110   1.988   2.004   0.199 -1.3861  0.7724 -0.6974
84711SOL     OW66111   2.853  12.389   2.790 -0.2231  0.1507 -0.7703
84711SOL    HW166112   2.777  12.428   2.833  0.3835  1.4090 -0.8107
84711SOL    HW266113   2.847  12.417   2.699 -0.7780 -1.4132 -1.2504
84712SOL     OW66114   4.749   1.743   2.069  0.6587  0.2084  0.4151
84712SOL    HW166115   4.775   1.830   2.038  0.6345 -0.2630 -0.9752
84712SOL    HW266116   4.656   1.753   2.089  0.6771  0.5275  0.3579
84713SOL     OW66117  11.685   5.984  13.351  0.4406  0.4203  0.0409
84713SOL    HW166118  11.687   5.955  13.260  2.2437  0.9256 -0.1290
84713SOL    HW266119  11.649   6.072  13.347  1.0208  0.6526 -0.2765
84714SOL     OW66120   1.988   2.039   1.922 -0.4064  0.1051 -0.3211
84714SOL    HW166121   1.943   2.067   2.002 -1.4048  0.4615 -0.9833
84714SOL    HW266122   2.047   1.969   1.951 -0.3364  0.6098  0.8112
84715SOL     OW66123   1.764   5.223   5.913 -0.0561  0.8285  0.1246
84715SOL    HW166124   1.828   5.272   5.966  0.1770  0.6392  0.0201
84715SOL    HW266125   1.818   5.176   5.849 -0.2595  0.2104  0.4011
84716SOL     OW66126  13.762  12.248   5.499 -0.4356 -0.2192 -0.0488
84716SOL    HW166127  13.722  12.216   5.579  0.7212  0.4455  0.8290
84716SOL    HW266128  13.739  12.183   5.433 -0.7899 -1.1666  0.9780
84717SOL     OW66129   7.032   7.388   1.634  0.2234  0.2368  0.4215
84717SOL    HW166130   7.071   7.306   1.665 -0.2650 -0.3912 -0.5703
84717SOL    HW266131   6.939   7.369   1.628  0.1349  0.7967 -0.0266
84718SOL     OW66132   0.625   5.201   4.045  0.6794  0.2929 -0.7607
84718SOL    HW166133   0.605   5.217   4.137 -1.8916 -1.8245 -0.8007
84718SOL    HW266134   0.598   5.281   4.000  2.4471  1.5477  0.3150
84719SOL     OW66135   0.348  12.536   5.044  0.0185 -0.6494 -0.0616
84719SOL    HW166136   0.261  12.546   5.084 -1.0837 -2.2675 -1.8493
84719SOL    HW266137   0.401  12.496   5.113  0.1357  2.5608  1.8885
84720SOL     OW66138  10.974   7.330   4.731 -0.1691  0.5382 -0.5340
84720SOL    HW166139  10.984   7.241   4.765 -1.0496  0.8914  0.7424
84720SOL    HW266140  11.045   7.340   4.667 -0.6671 -1.4257 -1.4804
84721SOL     OW66141  11.336   1.007   1.852  0.3190 -0.3808 -1.0062
84721SOL    HW166142  11.410   1.061   1.823 -0.7982  0.6420 -2.1119
84721SOL    HW266143  11.262   1.068   1.854 -0.3808 -1.2364  0.6960
84722SOL     OW66144   1.118   1.100   6.748 -0.1868 -0.3440 -0.2541
84722SOL    HW166145   1.135   1.010   6.778  1.4547  0.4982  1.5981
84722SOL    HW266146   1.026   1.115   6.768  0.1308 -0.8291  1.7825
84723SOL     OW66147   8.190   1.057   7.728 -0.2989 -0.5568 -0.4408
84723SOL    HW166148   8.176   1.131   7.670  0.2235 -0.3863 -0.3543
84723SOL    HW266149   8.112   1.055   7.784 -0.0858  0.2550 -0.0949
84724SOL     OW66150   5.038   3.302   9.390 -0.1366  0.0142 -0.3653
84724SOL    HW166151   5.030   3.364   9.318 -1.9223 -1.4746 -1.5459
84724SOL    HW266152   4.955   3.310   9.438  0.2274 -0.4033  0.3429
84725SOL     OW66153  13.794  11.094   7.579  0.0272  0.0161 -0.5275
84725SOL    HW166154  13.863  11.041   7.619 -1.4391 -1.4920  0.1277
84725SOL    HW266155  13.824  11.108   7.489  2.3615  1.6083  0.4096
84726SOL     OW66156   2.822   4.128   5.555  0.0170  0.2657  0.1173
84726SOL    HW166157   2.810   4.212   5.599  0.2150  0.0256  0.6407
84726SOL    HW266158   2.755   4.127   5.487 -0.5077  0.5025  0.6223
84727SOL     OW66159   8.345   2.371  11.346  0.1833  0.3266 -0.5585
84727SOL    HW166160   8.430   2.404  11.377  0.3059  0.6048 -1.1626
84727SOL    HW266161   8.335   2.286  11.388  1.1747 -0.1078 -1.1585
84728SOL     OW66162   8.645   1.720   3.446 -0.0848  0.2547 -0.2968
84728SOL    HW166163   8.563   1.705   3.399 -0.0060  1.3292 -0.7984
84728SOL    HW266164   8.713   1.687   3.388 -0.1921 -1.6427  0.5714
84729SOL     OW66165   2.049   8.341   1.911 -0.3007 -0.0907 -0.1640
84729SOL    HW166166   2.089   8.355   1.825  2.1022 -1.0045  0.6960
84729SOL    HW266167   1.970   8.290   1.894 -0.0258  0.0142 -1.8474
84730SOL     OW66168   9.953   6.848   9.760  0.3767 -0.0732  0.4236
84730SOL    HW166169   9.956   6.931   9.806  0.0242  1.2826 -1.8710
84730SOL    HW266170   9.942   6.871   9.668 -1.0767 -2.6735 -0.1757
84731SOL     OW66171  14.035   7.534  11.049  0.6592 -0.2231 -0.3612
84731SOL    HW166172  14.128   7.555  11.036 -0.0779  1.9765 -2.9341
84731SOL    HW266173  14.028   7.442  11.026  2.0272 -0.1438 -1.1912
84732SOL     OW66174   4.623  13.803   4.980  0.0185 -0.3664 -0.3969
84732SOL    HW166175   4.560  13.828   4.913  0.2703  0.7776 -0.2233
84732SOL    HW266176   4.626  13.877   5.040  0.4287 -1.0180  0.4218
84733SOL     OW66177   0.099   3.931   3.030  0.2833  0.1980  0.3048
84733SOL    HW166178   0.191   3.921   3.055 -0.0059  0.1214  1.3690
84733SOL    HW266179   0.093   4.020   2.995  0.1647  1.4140  3.1350
84734SOL     OW66180   6.897   8.774   9.411 -0.1978  0.0518 -0.3560
84734SOL    HW166181   6.881   8.687   9.374 -0.6664  0.4977 -1.2262
84734SOL    HW266182   6.965   8.812   9.355 -0.0397  0.2750 -0.0176
84735SOL     OW66183   2.308   2.376   6.417 -0.0134 -0.3740  0.0253
84735SOL    HW166184   2.229   2.431   6.425 -1.4301 -2.5397  2.6005
84735SOL    HW266185   2.344   2.373   6.506  1.9235 -0.9612 -0.7343
84736SOL     OW66186   5.198  13.135   8.111  0.4409  0.9112  0.2492
84736SOL    HW166187   5.139  13.210   8.107 -0.4056  0.1994 -1.6284
84736SOL    HW266188   5.157  13.075   8.174  0.7008  1.6494  1.1390
84737SOL     OW66189   6.579   9.170  13.529  0.0646 -0.2686  0.2011
84737SOL    HW166190   6.583   9.245  13.589  0.5991 -1.1416  1.2864
84737SOL    HW266191   6.535   9.101  13.578 -1.1514 -0.4457 -1.0720
84738SOL     OW66192   6.968  10.479   3.360  0.2668 -0.6518  0.3292
84738SOL    HW166193   6.938  10.444   3.276  0.1746  1.1242 -0.4198
84738SOL    HW266194   6.895  10.461   3.420  0.8132 -3.0054  0.3833
84739SOL     OW66195   0.132   1.426   0.593 -0.7741  0.3310  0.4156
84739SOL    HW166196   0.149   1.473   0.675 -1.6391 -0.2718  0.9580
84739SOL    HW266197   0.176   1.478   0.526 -0.2166  0.9432  1.2350
84740SOL     OW66198  10.944   5.779   4.173  0.3571  0.3826 -0.2481
84740SOL    HW166199  10.932   5.787   4.268  1.1275 -0.2806 -0.0760
84740SOL    HW266200  10.888   5.706   4.148  2.1838 -1.2761  0.1915
84741SOL     OW66201   9.589  10.316   2.630  0.0005  0.4045 -0.0882
84741SOL    HW166202   9.509  10.345   2.588 -2.1750 -3.3548  1.0491
84741SOL    HW266203   9.566  10.308   2.723  1.6497 -0.8449  0.2642
84742SOL     OW66204   4.403   2.194  12.648 -0.4070  0.1024 -0.1469
84742SOL    HW166205   4.318   2.235  12.657 -0.4756 -0.2377  0.8596
84742SOL    HW266206   4.417   2.147  12.731 -0.2924 -1.7957 -1.1738
84743SOL     OW66207   9.965  13.935   3.756 -0.1396 -0.0812 -0.4768
84743SOL    HW166208   9.900  14.005   3.753  1.2271  1.2842  0.5155
84743SOL    HW266209   9.994  13.925   3.665  0.3549  1.3580 -0.4982
84744SOL     OW66210  13.314   3.005  10.202 -0.2890  0.0309 -0.0198
84744SOL    HW166211  13.350   2.962  10.125 -2.0321 -0.7401 -0.4680
84744SOL    HW266212  13.390   3.034  10.252  0.9879 -2.9628 -0.0505
84745SOL     OW66213  10.239  11.477  11.901 -0.2544  0.1169  0.3976
84745SOL    HW166214  10.283  11.395  11.924  0.6264  0.2078 -0.8710
84745SOL    HW266215  10.216  11.516  11.986  0.9697 -0.5526  1.0687
84746SOL     OW66216   3.746   2.050   3.156 -0.4962  0.1517  0.3420
84746SOL    HW166217   3.735   2.121   3.220 -0.0847 -1.6701  2.5811
84746SOL    HW266218   3.666   1.999   3.163 -1.1881  0.7959 -1.9183
84747SOL     OW66219   2.909   2.001   5.713  0.3238  0.0165 -0.2482
84747SOL    HW166220   2.927   2.011   5.806 -1.3825  1.6443 -0.0282
84747SOL    HW266221   2.987   2.033   5.669  0.1068  1.8953  0.6532
84748SOL     OW66222   2.695   6.232   5.982  0.1314 -0.2172 -0.2115
84748SOL    HW166223   2.742   6.160   5.939 -0.7288 -1.0876  0.2549
84748SOL    HW266224   2.649   6.190   6.055 -1.0300  0.6668 -0.4009
84749SOL     OW66225   6.193  13.871   2.848 -0.0544 -0.8670 -0.2748
84749SOL    HW166226   6.152  13.785   2.843 -1.4587 -0.2198 -0.5229
84749SOL    HW266227   6.228  13.886   2.761 -1.8613 -0.2573 -0.9410
84750SOL     OW66228   4.491   7.654   0.245  0.3018 -0.8941  0.1358
84750SOL    HW166229   4.407   7.646   0.290  0.9511  1.2127  1.9137
84750SOL    HW266230   4.540   7.576   0.271  0.0525 -0.5348  1.7998
84751SOL     OW66231   4.203  13.981   6.900 -0.3351  0.1366 -0.3244
84751SOL    HW166232   4.213  14.044   6.829 -1.7016  0.2992 -0.4046
84751SOL    HW266233   4.157  13.907   6.860  2.6804 -1.7392 -0.6660
84752SOL     OW66234   2.942  13.984   5.547 -0.3529  0.1102  0.7954
84752SOL    HW166235   2.909  13.969   5.636 -0.8414  1.5988  0.9064
84752SOL    HW266236   2.969  14.076   5.547 -2.9476  1.0259 -1.3239
84753SOL     OW66237  13.105   4.519  11.734  0.1396 -0.3430 -0.2416
84753SOL    HW166238  13.147   4.444  11.693 -1.7556 -2.4965  1.5107
84753SOL    HW266239  13.068   4.485  11.816 -3.4925  1.7231 -0.8027
84754SOL     OW66240   5.992   7.139  13.753 -0.5055  0.1642  0.3130
84754SOL    HW166241   5.920   7.137  13.816 -0.0724  0.6286  0.8263
84754SOL    HW266242   6.059   7.081  13.790 -0.9309 -0.9319 -0.5692
84755SOL     OW66243  10.463   9.540   8.428  0.3318 -0.0932 -0.3235
84755SOL    HW166244  10.490   9.449   8.415  1.1002  0.0878 -0.0726
84755SOL    HW266245  10.372   9.535   8.456  0.5074 -0.8109  0.1400
84756SOL     OW66246   4.754   5.823   8.684  0.4359  0.1868 -0.3970
84756SOL    HW166247   4.812   5.826   8.760  0.9351 -0.8662 -0.7174
84756SOL    HW266248   4.810   5.849   8.610 -0.1914  1.7839 -0.3432
84757SOL     OW66249  12.117   3.696   1.547  0.2139  0.1785  0.2564
84757SOL    HW166250  12.130   3.790   1.542  1.5888  0.0163  0.3278
84757SOL    HW266251  12.062   3.675   1.471 -0.2882  1.0562  0.3714
84758SOL     OW66252   6.019   5.660  10.779  0.1752  0.2540 -0.1691
84758SOL    HW166253   5.938   5.705  10.803 -0.8290 -1.7042  0.4123
84758SOL    HW266254   6.063   5.644  10.863  1.6027  1.9695 -0.5343
84759SOL     OW66255   8.667  13.919   7.412  0.5968  0.2413  0.3317
84759SOL    HW166256   8.735  13.854   7.394  0.6469  0.6608 -1.1576
84759SOL    HW266257   8.587  13.868   7.422  0.4165 -0.0492 -1.9814
84760SOL     OW66258   1.565   5.007   3.248  0.1480  0.1057  0.0794
84760SOL    HW166259   1.496   5.034   3.188 -0.8483  1.5961  1.7870
84760SOL    HW266260   1.617   4.944   3.198 -1.1676  0.5523 -1.9856
84761SOL     OW66261  12.553  12.381   9.794 -0.2111 -0.2360  0.5207
84761SOL    HW166262  12.488  12.390   9.864 -0.8074 -0.4950  0.0069
84761SOL    HW266263  12.585  12.471   9.779 -2.2554  0.3305 -0.9129
84762SOL     OW66264   4.629   3.049   0.587  0.0245  0.3200  0.4039
84762SOL    HW166265   4.629   3.019   0.678 -1.1945 -0.8662  0.0445
84762SOL    HW266266   4.553   3.106   0.580  0.7964  1.3830  0.3982
84763SOL     OW66267  10.909   7.978   9.976  0.2784 -0.0522 -0.3363
84763SOL    HW166268  10.987   7.940   9.937  0.1021 -0.4674 -0.2902
84763SOL    HW266269  10.942   8.041  10.041  0.5683 -0.1294 -0.4106
84764SOL     OW66270   2.174  13.047  10.505 -0.2586  0.0081  0.0963
84764SOL    HW166271   2.236  12.998  10.450  1.7784  3.2005 -0.7587
84764SOL    HW266272   2.151  13.123  10.452 -3.2090  0.1281  1.3622
84765SOL     OW66273   4.234   5.838   9.416  0.0707  0.0563  0.1249
84765SOL    HW166274   4.263   5.776   9.483  0.7785 -0.8803 -1.0061
84765SOL    HW266275   4.260   5.924   9.450  1.7822 -0.5290  0.3938
84766SOL     OW66276  12.569  13.954   9.776  0.1292  0.5329  1.0935
84766SOL    HW166277  12.528  13.950   9.690 -0.8954  2.4982  1.4287
84766SOL    HW266278  12.520  13.892   9.829 -0.9695  1.1956  0.8886
84767SOL     OW66279   5.988   7.743  11.956  0.3670  0.5359 -0.4332
84767SOL    HW166280   5.944   7.827  11.969  0.1940  0.7575 -2.2354
84767SOL    HW266281   5.953   7.709  11.874 -0.8156 -2.1295  1.0375
84768SOL     OW66282   0.448   3.450  10.091 -0.4904  0.3474  0.4272
84768SOL    HW166283   0.429   3.408  10.175 -0.5694  1.0939  0.7901
84768SOL    HW266284   0.500   3.527  10.114 -0.1435  0.3248 -0.2483
84769SOL     OW66285   2.727   9.200  10.160  0.5698  0.4182 -0.3875
84769SOL    HW166286   2.643   9.243  10.141 -1.0972 -1.8664  1.1610
84769SOL    HW266287   2.739   9.212  10.254  1.9822  0.6719 -0.5839
84770SOL     OW66288   2.128   5.260  13.622 -0.1485  0.0774  0.0469
84770SOL    HW166289   2.042   5.274  13.581 -0.1951  0.3210  0.2258
84770SOL    HW266290   2.124   5.311  13.703 -0.3471 -1.0111  0.7422
84771SOL     OW66291   6.328   4.585   1.286  0.3469 -0.2918  0.6967
84771SOL    HW166292   6.361   4.674   1.300  0.6551 -0.3350  0.2246
84771SOL    HW266293   6.252   4.579   1.344  1.6720 -0.5021  2.5077
84772SOL     OW66294   0.386  13.520   8.333 -0.4635  0.6584 -0.1694
84772SOL    HW166295   0.309  13.477   8.295  0.5939 -0.8469 -0.7061
84772SOL    HW266296   0.440  13.543   8.257 -0.1157  1.1742  0.2301
84773SOL     OW66297   9.165   0.266   2.609  0.0852  0.0543 -0.1443
84773SOL    HW166298   9.094   0.307   2.659 -1.0455 -1.1681 -0.6586
84773SOL    HW266299   9.172   0.318   2.530  0.0733  0.4446  0.1085
84774SOL     OW66300   1.457   7.988  12.940  0.1992 -0.0614  0.0955
84774SOL    HW166301   1.535   7.939  12.915 -0.3659 -1.5356  1.1095
84774SOL    HW266302   1.397   7.977  12.866 -0.4536 -2.1294  0.8868
84775SOL     OW66303   4.685   1.703   0.854  0.2525 -0.0716  0.0061
84775SOL    HW166304   4.728   1.679   0.935  0.8023 -0.4726 -0.4031
84775SOL    HW266305   4.643   1.788   0.873  0.7787  0.0656  0.5556
84776SOL     OW66306   2.345   2.052   9.036 -0.6950 -0.0931 -0.0350
84776SOL    HW166307   2.414   1.999   8.997  0.3233  0.5133  0.8657
84776SOL    HW266308   2.351   2.137   8.991 -0.6372  0.0641  0.2663
84777SOL     OW66309  11.444   5.587   1.357  0.6153 -0.0586  0.0562
84777SOL    HW166310  11.448   5.554   1.267 -1.6475  0.5340 -0.3197
84777SOL    HW266311  11.505   5.531   1.405  1.1195 -1.0579 -1.6504
84778SOL     OW66312  10.567   3.331   1.975  0.1253 -0.2565  0.4380
84778SOL    HW166313  10.558   3.309   2.068  0.5101 -0.6041  0.3990
84778SOL    HW266314  10.658   3.362   1.967  0.1188 -0.3030  0.1666
84779SOL     OW66315   4.543   0.813   7.475 -0.3661  0.2531 -0.2172
84779SOL    HW166316   4.634   0.821   7.504 -0.4283  1.2004 -0.2753
84779SOL    HW266317   4.542   0.849   7.387 -1.1650  2.1417  0.5017
84780SOL     OW66318   9.969   4.278   8.970  0.5923 -0.6004  0.0149
84780SOL    HW166319   9.984   4.315   8.883  1.2367  0.7226  0.6578
84780SOL    HW266320   9.910   4.341   9.012  0.5309 -1.0750  0.6402
84781SOL     OW66321   4.560  13.725  11.945  0.2026  0.0422  0.5822
84781SOL    HW166322   4.474  13.688  11.963 -0.1457  0.7138  0.3474
84781SOL    HW266323   4.570  13.793  12.012 -0.0536  0.9059 -0.2356
84782SOL     OW66324   3.110  10.765   0.356  0.6741 -0.7187 -0.5051
84782SOL    HW166325   3.092  10.721   0.440  1.1813 -1.0368 -0.5581
84782SOL    HW266326   3.059  10.715   0.292 -0.3957  0.0460 -0.2745
84783SOL     OW66327   2.270  10.456   2.234  0.1105  1.0963 -0.0616
84783SOL    HW166328   2.299  10.404   2.308  1.8507  1.4397 -0.4640
84783SOL    HW266329   2.175  10.462   2.245  0.0621 -0.7260  0.8959
84784SOL     OW66330  11.174   3.462  13.023  0.6866 -0.3148 -0.1214
84784SOL    HW166331  11.220   3.411  12.956  0.3099  1.2099 -1.6012
84784SOL    HW266332  11.092   3.488  12.981  1.3112  2.3603  0.1774
84785SOL     OW66333  13.798   5.410   4.093 -0.6091  0.7503 -0.3748
84785SOL    HW166334  13.776   5.482   4.033 -1.0198  0.5427 -0.4805
84785SOL    HW266335  13.713   5.376   4.120 -0.5007 -1.6196 -2.6241
84786SOL     OW66336  11.132  12.801   1.869  0.5135  0.0979  0.4832
84786SOL    HW166337  11.194  12.737   1.833 -1.6342 -1.6551 -0.3480
84786SOL    HW266338  11.124  12.778   1.961 -1.1345 -1.7461 -0.0440
84787SOL     OW66339  13.286   0.043   0.885  0.2219 -0.6794  0.0526
84787SOL    HW166340  13.243   0.082   0.809  1.2280  0.3396 -0.0226
84787SOL    HW266341  13.279  -0.051   0.872  0.0888 -0.5162 -1.1307
84788SOL     OW66342   2.946   0.168  11.373  0.4186  0.7999 -0.1603
84788SOL    HW166343   3.015   0.178  11.308  0.7024  2.9955  0.4108
84788SOL    HW266344   2.984   0.108  11.438  1.1425  0.6853 -0.6684
84789SOL     OW66345   1.937   9.282   3.167 -0.2169  0.0751  0.0731
84789SOL    HW166346   2.021   9.311   3.133  0.2627 -0.9474  0.3511
84789SOL    HW266347   1.958   9.230   3.245 -1.1625  0.5676  0.6862
84790SOL     OW66348  11.287   2.073   8.256  0.2228  0.1448  0.5634
84790SOL    HW166349  11.371   2.028   8.251  0.0813 -0.6222  3.3981
84790SOL    HW266350  11.273   2.109   8.168  3.3020 -0.0195 -0.0910
84791SOL     OW66351   9.123  12.281   3.653  0.6079 -0.5114 -0.5555
84791SOL    HW166352   9.198  12.303   3.598  0.5529  0.4705 -0.2516
84791SOL    HW266353   9.104  12.361   3.701 -0.7808 -0.6757 -0.7880
84792SOL     OW66354   7.048   4.581  12.116 -0.2783  0.0013  0.1323
84792SOL    HW166355   6.980   4.633  12.072 -1.4156 -1.2383  0.3595
84792SOL    HW266356   7.117   4.573  12.051  0.4371  2.6490  0.4280
84793SOL     OW66357   8.942  11.459   0.038  0.4637  0.1284 -0.3787
84793SOL    HW166358   8.932  11.545   0.077  1.2148 -0.4789  1.2513
84793SOL    HW266359   8.878  11.457  -0.033  0.9792  2.2936 -0.9752
84794SOL     OW66360   2.188  12.008   9.670  0.2055 -0.0724  0.0396
84794SOL    HW166361   2.248  11.948   9.625 -0.4950 -0.1064 -0.8714
84794SOL    HW266362   2.104  11.961   9.672  0.0196  0.2710  0.6563
84795SOL     OW66363  13.502   6.372   3.945  0.5420 -0.4220 -0.0996
84795SOL    HW166364  13.545   6.443   3.992  0.4269 -0.1268 -0.4318
84795SOL    HW266365  13.506   6.398   3.853  0.3105 -0.7423 -0.2035
84796SOL     OW66366   6.634   4.997   8.968 -0.6776 -0.3829 -0.1355
84796SOL    HW166367   6.700   4.955   8.912 -1.7780 -1.9612 -0.2994
84796SOL    HW266368   6.559   5.010   8.910 -0.2477  2.3744 -0.2476
84797SOL     OW66369  10.143   6.249  10.725 -0.1796 -0.2699 -0.1463
84797SOL    HW166370  10.051   6.261  10.751  0.1115  0.2939  0.6610
84797SOL    HW266371  10.139   6.185  10.654 -1.2699  0.2949 -0.6362
84798SOL     OW66372   1.808   4.889   6.572 -0.0389 -0.3853  0.3283
84798SOL    HW166373   1.722   4.912   6.537 -0.7559 -1.5651  1.2579
84798SOL    HW266374   1.832   4.962   6.628 -0.1606  0.2113 -0.3842
84799SOL     OW66375  10.625  11.110  10.572  0.2095  0.0648  0.0968
84799SOL    HW166376  10.644  11.056  10.495 -0.0485  1.4121 -0.9376
84799SOL    HW266377  10.530  11.110  10.579  0.2571 -0.7957  0.9862
84800SOL     OW66378   7.499   2.453  12.383  1.3940  0.0959  0.3094
84800SOL    HW166379   7.494   2.479  12.475  1.7898  1.4417 -0.0288
84800SOL    HW266380   7.519   2.359  12.386  0.3764 -0.1131  1.5831
84801SOL     OW66381   4.877  12.246  10.324 -0.0743  0.4147  0.2578
84801SOL    HW166382   4.804  12.199  10.364  0.7294 -1.1935 -0.0712
84801SOL    HW266383   4.872  12.223  10.231  0.8846  0.2282  0.2432
84802SOL     OW66384   4.857  11.916   9.042 -0.1930  0.3479  0.2032
84802SOL    HW166385   4.932  11.863   9.067 -1.6830 -2.1527 -0.3381
84802SOL    HW266386   4.890  11.970   8.970  0.9176 -1.2523 -0.5590
84803SOL     OW66387   0.743   3.834   2.742 -0.4478 -0.2434  0.5484
84803SOL    HW166388   0.789   3.754   2.769 -2.0212 -1.2967  0.2185
84803SOL    HW266389   0.655   3.805   2.718 -0.5796  1.3414 -1.1625
84804SOL     OW66390   7.857   5.471   7.024 -0.8771 -0.0825 -0.0903
84804SOL    HW166391   7.850   5.565   7.036 -1.5238  0.2132 -2.3083
84804SOL    HW266392   7.908   5.460   6.944  0.6319 -1.7009  1.0094
84805SOL     OW66393   6.615  13.597  13.282 -0.0295 -0.1225  0.2492
84805SOL    HW166394   6.705  13.575  13.307 -0.0584 -0.0883  0.3873
84805SOL    HW266395   6.620  13.688  13.253  0.1482 -0.4044 -0.6204
84806SOL     OW66396   6.952   4.828   4.707 -0.3830 -0.1514  0.3005
84806SOL    HW166397   6.924   4.915   4.736 -1.0966 -0.3622  0.2485
84806SOL    HW266398   7.008   4.845   4.631 -2.6247  0.1708 -1.3926
84807SOL     OW66399   6.005   0.951   5.722  0.1746 -0.5129  0.0598
84807SOL    HW166400   6.075   0.971   5.785  1.6424  1.1438 -1.9369
84807SOL    HW266401   5.938   1.017   5.739  0.5786 -0.0506 -0.1218
84808SOL     OW66402   6.394   1.946   4.682  0.0030  0.3648  0.3421
84808SOL    HW166403   6.304   1.954   4.650  0.7516 -0.0757 -2.1150
84808SOL    HW266404   6.386   1.905   4.768 -2.0635 -2.1112 -0.8931
84809SOL     OW66405   5.518   1.779   9.500 -0.3082  0.1904  0.2649
84809SOL    HW166406   5.548   1.856   9.451 -1.3241 -0.0839 -0.8558
84809SOL    HW266407   5.451   1.813   9.559 -1.3578  0.0795 -0.8202
84810SOL     OW66408   9.627   5.898   9.341  0.1235  0.3896  0.4692
84810SOL    HW166409   9.535   5.910   9.318 -0.0432  0.0704  0.9528
84810SOL    HW266410   9.626   5.836   9.413  0.5189  2.4296  2.3373
84811SOL     OW66411   0.068   9.400   6.550  1.1097 -0.3335 -0.3178
84811SOL    HW166412   0.129   9.404   6.476  1.0248 -0.8154 -0.4179
84811SOL    HW266413   0.016   9.480   6.542  0.9807 -0.4679 -0.8867
84812SOL     OW66414  13.515   2.372   5.346  0.0227  0.4086 -0.4298
84812SOL    HW166415  13.485   2.304   5.407  0.4177  0.8688  0.2806
84812SOL    HW266416  13.473   2.452   5.376 -0.1929  0.5467 -1.0808
84813SOL     OW66417   5.886  11.056   7.440  0.0076  0.1001 -0.3558
84813SOL    HW166418   5.866  11.147   7.416  0.3995  0.9502  2.2379
84813SOL    HW266419   5.977  11.058   7.468 -0.0681 -1.0299  0.0302
84814SOL     OW66420   4.427   5.714  13.204 -0.0615  0.3579  0.4399
84814SOL    HW166421   4.492   5.644  13.199  0.5239  0.9966 -1.6768
84814SOL    HW266422   4.463   5.777  13.266  1.8757  1.1775 -1.4179
84815SOL     OW66423   0.984   0.601  11.523  0.3723 -0.2001 -0.1899
84815SOL    HW166424   1.061   0.626  11.471  0.4023  0.4678  0.1726
84815SOL    HW266425   0.917   0.582  11.458  1.6097 -3.6698 -0.7059
84816SOL     OW66426  13.370   4.957  11.462  0.2212  0.9044  0.4133
84816SOL    HW166427  13.401   5.044  11.487  1.0956  0.2324  1.7587
84816SOL    HW266428  13.435   4.896  11.497 -1.2789 -0.4058  1.0842
84817SOL     OW66429   1.329   1.430   9.506 -0.2045 -0.4278  0.5827
84817SOL    HW166430   1.251   1.381   9.530 -0.1195 -1.7894 -1.5955
84817SOL    HW266431   1.302   1.522   9.509 -1.9660 -0.8700 -0.2261
84818SOL     OW66432   1.833   4.729   5.557 -0.6517 -0.5186  0.1951
84818SOL    HW166433   1.841   4.666   5.629 -1.3562  0.2473  0.9584
84818SOL    HW266434   1.743   4.762   5.564  0.0858  1.5146  0.6004
84819SOL     OW66435   9.884   8.185   0.780 -0.3933  0.1211  0.0551
84819SOL    HW166436   9.814   8.244   0.751  0.1088  1.1780  0.8906
84819SOL    HW266437   9.954   8.199   0.716  0.1926  1.4149  0.9204
84820SOL     OW66438   3.975   1.430   6.042 -0.6287 -0.1996  0.1368
84820SOL    HW166439   4.013   1.518   6.035  0.2362 -0.4602  1.2226
84820SOL    HW266440   3.915   1.435   6.115 -0.0740 -0.6648  0.6382
84821SOL     OW66441  14.036  13.034  14.009  0.0097 -0.3186  0.4940
84821SOL    HW166442  13.988  13.101  13.960  1.3671 -1.1089 -2.1183
84821SOL    HW266443  14.048  13.071  14.096  1.9871  3.5738 -1.2002
84822SOL     OW66444   2.979   0.562   3.469  0.6490  0.3719  0.3966
84822SOL    HW166445   2.922   0.639   3.474  0.1510  0.1589 -1.3157
84822SOL    HW266446   3.068   0.598   3.468  0.4722  0.8372  0.7919
84823SOL     OW66447   1.540   9.990   0.533 -0.0497  0.0270 -0.2415
84823SOL    HW166448   1.451   9.975   0.501 -0.3564 -0.5213  0.8184
84823SOL    HW266449   1.597   9.964   0.460 -0.7027 -1.8271 -0.1438
84824SOL     OW66450   3.686   9.393  13.344 -0.1087  0.2408  0.2928
84824SOL    HW166451   3.732   9.396  13.261 -1.5209  0.4845 -0.5139
84824SOL    HW266452   3.612   9.334  13.329 -0.1412 -0.0507  1.5050
84825SOL     OW66453  13.353  11.968   4.056 -0.2434 -0.0142 -0.1211
84825SOL    HW166454  13.317  11.957   3.968 -0.9484 -0.0387  0.1576
84825SOL    HW266455  13.447  11.966   4.045 -0.3204  0.5749 -0.9517
84826SOL     OW66456  14.038   4.720   8.958  0.5947 -0.0005 -0.0119
84826SOL    HW166457  14.044   4.681   9.045  0.4124 -0.4422 -0.1958
84826SOL    HW266458  14.104   4.789   8.958  0.4789  0.1142  0.5342
84827SOL     OW66459   4.375   1.450   4.009  0.0008 -0.2733 -0.4417
84827SOL    HW166460   4.356   1.357   3.995 -1.1896 -0.2661  0.9074
84827SOL    HW266461   4.325   1.494   3.941 -2.1300 -0.4794  0.8999
84828SOL     OW66462   5.300  13.825  12.692  0.3068 -0.2827  0.1778
84828SOL    HW166463   5.316  13.789  12.780  1.1058 -0.4229 -0.0187
84828SOL    HW266464   5.277  13.749  12.639 -1.3504 -0.0551  0.5117
84829SOL     OW66465   0.548   2.748   6.480  0.1379  0.2787 -0.5340
84829SOL    HW166466   0.493   2.673   6.458  0.9288 -0.4106 -0.1885
84829SOL    HW266467   0.486   2.815   6.509 -0.4864 -0.7132  0.4934
84830SOL     OW66468   1.592   1.990   9.012 -0.3040 -1.1016 -0.0322
84830SOL    HW166469   1.546   2.029   8.938 -0.0858  0.0219  0.4075
84830SOL    HW266470   1.534   1.919   9.042 -0.4558 -1.4778 -1.1686
84831SOL     OW66471   5.919   1.521   2.888 -0.2946  0.5570 -0.5173
84831SOL    HW166472   5.925   1.456   2.818 -0.1028  0.0869 -0.0754
84831SOL    HW266473   5.960   1.599   2.853  1.1656 -0.1323 -0.4046
84832SOL     OW66474   7.474   3.417   8.045 -0.4581 -0.7584  0.2431
84832SOL    HW166475   7.518   3.338   8.015  1.4762  0.3272  0.0255
84832SOL    HW266476   7.440   3.457   7.964 -0.8585 -1.0393  0.2730
84833SOL     OW66477  12.069   2.453  10.720  0.0179  0.0304 -0.0071
84833SOL    HW166478  12.024   2.427  10.800  0.3756  0.7449  0.4387
84833SOL    HW266479  12.019   2.412  10.649  0.2978 -1.4554  0.6341
84834SOL     OW66480   0.835   5.032   8.279 -0.6900 -0.4475 -0.3269
84834SOL    HW166481   0.842   5.120   8.241 -0.3081 -0.4298 -0.2190
84834SOL    HW266482   0.924   5.010   8.305 -0.8348 -0.7453 -0.0758
84835SOL     OW66483   8.385   6.837   4.644 -0.1754  0.1066  0.1776
84835SOL    HW166484   8.420   6.748   4.652  0.9652  0.0264 -3.6676
84835SOL    HW266485   8.458   6.894   4.665 -0.4160  0.1381  0.9666
84836SOL     OW66486   8.218  11.946  13.266 -0.3222 -0.2109  0.1631
84836SOL    HW166487   8.253  11.930  13.354  0.0695  0.6520  0.1759
84836SOL    HW266488   8.153  11.877  13.253  0.3383 -0.9563  0.7262
84837SOL     OW66489   9.417   4.156  10.843  0.1436  0.2198  0.3484
84837SOL    HW166490   9.368   4.075  10.829 -0.9759  1.1780 -1.7349
84837SOL    HW266491   9.365   4.205  10.907  0.0543 -0.0776  0.5070
84838SOL     OW66492   5.006   0.502   0.774  0.1750 -0.0495 -0.0119
84838SOL    HW166493   4.978   0.455   0.696  1.1637  0.5917 -0.7786
84838SOL    HW266494   5.038   0.434   0.833 -1.3569 -0.6196  0.2021
84839SOL     OW66495   6.006   0.799   8.655  0.2529 -0.2322  0.0615
84839SOL    HW166496   5.918   0.799   8.617  0.3095 -1.4815 -0.0879
84839SOL    HW266497   6.009   0.880   8.707 -0.0110  1.2552 -2.1076
84840SOL     OW66498   0.544   5.433   8.194  0.5478 -0.7001  0.3188
84840SOL    HW166499   0.498   5.367   8.142  1.4029 -0.8991 -0.1975
84840SOL    HW266500   0.559   5.506   8.134 -0.8024  0.2054  0.9995
84841SOL     OW66501   1.179   4.826   9.830 -0.3322 -0.2285 -0.0001
84841SOL    HW166502   1.128   4.745   9.840  0.5811 -0.5200  3.3156
84841SOL    HW266503   1.121   4.895   9.862  0.6229 -0.3172  2.0353
84842SOL     OW66504   6.341  11.552  13.797 -0.2400 -0.6134 -0.4617
84842SOL    HW166505   6.389  11.477  13.831 -0.4933 -0.1793  0.9323
84842SOL    HW266506   6.407  11.609  13.758  0.1329 -0.8710 -0.2009
84843SOL     OW66507   5.448  12.025   2.068 -0.2346 -0.1237 -0.1889
84843SOL    HW166508   5.539  11.996   2.072 -0.8670 -2.3944 -0.7171
84843SOL    HW266509   5.438  12.083   2.144  1.1145 -1.5460  1.1512
84844SOL     OW66510   2.268   0.624   0.255 -0.1731  0.7503 -0.6647
84844SOL    HW166511   2.247   0.594   0.167  1.0893  0.8460 -1.0164
84844SOL    HW266512   2.298   0.546   0.301  0.2671  0.9031 -0.6821
84845SOL     OW66513  13.218   1.478   2.050 -0.5444  0.4088  1.4671
84845SOL    HW166514  13.158   1.520   2.111  0.0168  2.1597  0.8489
84845SOL    HW266515  13.292   1.450   2.106  0.0192  2.0982  1.6281
84846SOL     OW66516   1.590   7.432   5.986  0.0376 -0.1254  0.2784
84846SOL    HW166517   1.610   7.447   6.078  0.5046  1.3565 -0.0453
84846SOL    HW266518   1.497   7.411   5.984 -0.0691  0.2806  1.0310
84847SOL     OW66519   0.975   3.551   8.853  0.5015 -0.5979 -0.0242
84847SOL    HW166520   0.979   3.476   8.912 -0.1080 -0.5212  0.1166
84847SOL    HW266521   0.934   3.517   8.774  0.0613 -0.3689  0.1066
84848SOL     OW66522   7.968   5.580   0.844 -0.0848 -0.7764 -0.1007
84848SOL    HW166523   7.995   5.670   0.828 -0.5506 -0.4439  0.9378
84848SOL    HW266524   8.043   5.539   0.887  0.5989 -1.2537 -1.6773
84849SOL     OW66525   0.382   4.135   3.834  0.2801  0.0512 -0.2195
84849SOL    HW166526   0.376   4.166   3.924  0.4792  0.4244 -0.3309
84849SOL    HW266527   0.437   4.057   3.839  0.4280  0.1660 -0.0363
84850SOL     OW66528   4.861   5.523   7.045  0.0186 -0.0307 -0.0185
84850SOL    HW166529   4.864   5.578   7.123  3.2183 -2.8696  2.1348
84850SOL    HW266530   4.790   5.461   7.062 -0.5138  0.4995 -0.2759
84851SOL     OW66531  11.167  10.898  13.379 -0.7739  0.0377  0.1421
84851SOL    HW166532  11.242  10.943  13.419 -0.4052  0.5958 -1.1057
84851SOL    HW266533  11.093  10.957  13.395 -0.8331 -0.2270  0.8618
84852SOL     OW66534   3.710  12.607   7.076 -0.2978 -0.1521  0.1707
84852SOL    HW166535   3.682  12.643   6.991 -0.6575  0.7032  0.6312
84852SOL    HW266536   3.766  12.533   7.053  1.8279  1.6326 -0.9064
84853SOL     OW66537  10.305   4.123  11.316 -0.5869  0.6110  0.1869
84853SOL    HW166538  10.382   4.150  11.266 -0.5823  0.8008  0.2958
84853SOL    HW266539  10.316   4.163  11.402 -1.3753  1.6363 -0.1537
84854SOL     OW66540   4.496   4.361   1.527 -0.7969  0.3756 -0.0851
84854SOL    HW166541   4.500   4.344   1.621  0.6141  0.4588 -0.1214
84854SOL    HW266542   4.562   4.428   1.511 -0.3857 -0.2722 -1.2746
84855SOL     OW66543   4.747   0.393   0.590  0.4186  0.4927  0.0698
84855SOL    HW166544   4.740   0.326   0.658 -2.4435  0.3988 -0.2041
84855SOL    HW266545   4.694   0.360   0.518 -0.9740  2.9233 -0.1352
84856SOL     OW66546  10.055  13.942   5.206 -0.0026  0.1170 -0.3146
84856SOL    HW166547  10.058  13.988   5.122 -1.0951  1.1391  0.1775
84856SOL    HW266548  10.147  13.923   5.226  0.2285 -0.7687 -2.0496
84857SOL     OW66549  12.106  13.401   8.980 -0.0770 -0.1283 -0.1367
84857SOL    HW166550  12.068  13.424   9.065  0.6895 -0.6391  0.3566
84857SOL    HW266551  12.112  13.484   8.933 -0.5866  0.1448  0.2724
84858SOL     OW66552   4.451  10.534   2.811 -0.4449 -0.7918  0.2128
84858SOL    HW166553   4.420  10.558   2.723 -0.6261 -0.9034  0.2450
84858SOL    HW266554   4.441  10.439   2.815 -1.3216 -0.6896  0.6809
84859SOL     OW66555   1.423   8.283   4.174  0.0381  0.0919 -0.2663
84859SOL    HW166556   1.483   8.218   4.138  2.1516  1.8614 -0.1448
84859SOL    HW266557   1.469   8.318   4.250 -1.7532  0.6175  0.6262
84860SOL     OW66558  10.193  11.036   9.067  0.0559 -0.4653 -0.0655
84860SOL    HW166559  10.152  10.955   9.097  0.7121 -0.3014  1.3923
84860SOL    HW266560  10.188  11.094   9.143  2.1782 -0.1440 -0.1171
84861SOL     OW66561  10.009   1.318   0.591  0.0193  0.0693 -0.2321
84861SOL    HW166562   9.978   1.354   0.509  1.6801 -0.1040 -0.9836
84861SOL    HW266563   9.954   1.358   0.658 -0.0597  1.7587 -1.2647
84862SOL     OW66564   0.517  11.164   2.948 -0.3269  0.3667  1.0391
84862SOL    HW166565   0.509  11.078   2.990  0.0869  0.1377  0.6576
84862SOL    HW266566   0.564  11.217   3.012 -0.1094  0.1521  1.0603
84863SOL     OW66567  10.979   7.349   1.852  0.1521 -0.0310  0.2304
84863SOL    HW166568  10.923   7.326   1.778  0.9440 -1.4587  0.0341
84863SOL    HW266569  11.066   7.319   1.826  0.7211  0.7553  1.1586
84864SOL     OW66570  11.596   9.469  11.275  0.8371  0.7742  0.2019
84864SOL    HW166571  11.613   9.428  11.360 -0.4842  0.3440  0.2714
84864SOL    HW266572  11.517   9.521  11.289 -1.0943 -1.5012 -1.4259
84865SOL     OW66573   4.684   2.526   1.406  0.2270 -0.7027  0.2119
84865SOL    HW166574   4.676   2.540   1.500 -1.2690 -2.5034  0.4102
84865SOL    HW266575   4.610   2.575   1.368 -0.9373 -2.3135  0.2950
84866SOL     OW66576   2.329   7.568  13.087  0.0189  0.2269  0.5400
84866SOL    HW166577   2.277   7.504  13.136  0.3915 -1.3393 -0.9958
84866SOL    HW266578   2.375   7.618  13.155 -0.0044 -1.3840  1.8064
84867SOL     OW66579   5.739   0.773   6.950  0.0678  0.5384 -0.1893
84867SOL    HW166580   5.833   0.755   6.954  0.0518  0.3425 -0.6179
84867SOL    HW266581   5.708   0.761   7.040  0.1594 -1.0745 -0.3433
84868SOL     OW66582  13.563   9.031  10.722 -0.2370 -0.3928 -0.4113
84868SOL    HW166583  13.614   9.002  10.798 -0.9332  1.5872  0.8690
84868SOL    HW266584  13.597   9.118  10.702 -2.5271  0.6578 -0.0219
84869SOL     OW66585  11.080   9.701   3.874 -0.3708 -0.9144 -0.0461
84869SOL    HW166586  11.149   9.673   3.934 -0.5412 -0.1093  0.5513
84869SOL    HW266587  11.011   9.734   3.932 -0.7112 -0.5165 -0.6686
84870SOL     OW66588  10.119   7.346   0.536  0.3284 -0.3069 -0.5769
84870SOL    HW166589  10.097   7.361   0.444 -1.6356  2.0080  0.1594
84870SOL    HW266590  10.198   7.398   0.550 -0.7471  1.3760 -0.4522
84871SOL     OW66591   9.223  10.627   3.363  0.6323 -0.2994 -0.1812
84871SOL    HW166592   9.284  10.554   3.375 -1.2166 -1.7264  1.0985
84871SOL    HW266593   9.245  10.688   3.434  0.3209 -1.0269  0.5666
84872SOL     OW66594   7.607   7.143   1.767 -0.6356  0.0527 -0.7260
84872SOL    HW166595   7.628   7.231   1.735 -1.6291  0.3491 -0.6080
84872SOL    HW266596   7.648   7.137   1.853  2.2698 -0.8343 -2.0530
84873SOL     OW66597   4.747   7.942   0.075 -0.2396 -0.4287  0.2012
84873SOL    HW166598   4.784   7.858   0.046 -2.0675 -0.8805 -1.0176
84873SOL    HW266599   4.760   8.000  -0.000 -1.5454 -0.4738 -0.0742
84874SOL     OW66600  13.928   7.064   3.297 -0.1220  0.2000 -0.5042
84874SOL    HW166601  13.901   6.979   3.264  0.1867 -0.1669  0.1660
84874SOL    HW266602  13.846   7.114   3.304 -0.5178 -0.5430  0.4964
84875SOL     OW66603  11.631   3.621   0.736  0.4425 -0.3531 -0.4264
84875SOL    HW166604  11.701   3.669   0.693  1.1749 -0.0681  1.0156
84875SOL    HW266605  11.675   3.550   0.783 -0.2158 -0.2124  0.4444
84876SOL     OW66606  13.226  12.166  12.671  0.1391  0.0781  0.1431
84876SOL    HW166607  13.173  12.222  12.727  0.8510 -0.3137  1.2256
84876SOL    HW266608  13.297  12.223  12.639 -0.6986  0.5121 -1.0404
84877SOL     OW66609  11.616   7.664   1.179 -0.4107  0.1724 -0.4078
84877SOL    HW166610  11.534   7.702   1.209 -0.8474  0.1052 -1.4822
84877SOL    HW266611  11.612   7.668   1.084 -0.7912 -3.1399 -0.6732
84878SOL     OW66612   0.912   5.889   0.551 -0.7097 -0.0326  0.7344
84878SOL    HW166613   0.870   5.836   0.618  2.7254 -2.5220  1.1779
84878SOL    HW266614   0.966   5.828   0.502  0.4660  2.4672 -1.3602
84879SOL     OW66615   5.487   5.632   3.914 -0.1777  0.4621  0.0394
84879SOL    HW166616   5.535   5.556   3.949 -1.9677 -0.2685  1.0327
84879SOL    HW266617   5.539   5.660   3.839  1.8044 -0.2703  1.0492
84880SOL     OW66618   4.752   8.757  12.777 -0.1763  0.0206  0.0408
84880SOL    HW166619   4.666   8.736  12.741 -0.3888 -0.5995  0.8875
84880SOL    HW266620   4.813   8.707  12.723 -0.3014  0.7405 -0.7924
84881SOL     OW66621   8.712  12.429   4.410  0.4129  0.4415 -0.3612
84881SOL    HW166622   8.629  12.389   4.385  0.4189  0.1784  0.0393
84881SOL    HW266623   8.687  12.503   4.466  0.4659 -0.0515  0.3359
84882SOL     OW66624   0.629   9.123   0.901 -0.3065 -0.6083  0.1026
84882SOL    HW166625   0.583   9.157   0.824 -1.1754 -1.6001  0.1523
84882SOL    HW266626   0.654   9.034   0.877 -0.2368 -0.7913  0.8254
84883SOL     OW66627  11.101  10.629  12.057 -0.0337 -0.1947  0.0661
84883SOL    HW166628  11.150  10.556  12.019  0.0101 -0.0746 -0.1074
84883SOL    HW266629  11.079  10.600  12.146 -2.1843 -1.4534 -0.7973
84884SOL     OW66630   2.382   6.798   1.487  0.0171 -0.0518  0.0572
84884SOL    HW166631   2.302   6.793   1.538 -0.7568  0.1358 -1.1111
84884SOL    HW266632   2.420   6.883   1.511 -0.8844  0.5066 -0.4478
84885SOL     OW66633   6.693   2.937  11.642 -0.0239 -0.2502 -0.6820
84885SOL    HW166634   6.653   2.878  11.579 -1.8586 -0.9173  1.0240
84885SOL    HW266635   6.662   2.907  11.727  1.1266  1.5590  0.4573
84886SOL     OW66636  10.809   1.547   5.001 -0.1423 -0.4799  0.0552
84886SOL    HW166637  10.728   1.547   5.052 -0.0430  0.6131  0.2443
84886SOL    HW266638  10.784   1.586   4.917  0.4496  1.1147  0.5912
84887SOL     OW66639  13.620   8.040   2.033 -0.5086  0.4995  0.2913
84887SOL    HW166640  13.615   7.996   2.118 -0.6806  2.1281  1.1805
84887SOL    HW266641  13.675   7.983   1.979  0.8262  0.1259  1.9613
84888SOL     OW66642   0.509   5.039   7.093 -0.8418 -0.3201 -0.1012
84888SOL    HW166643   0.542   4.994   7.171 -0.8899 -1.4232 -0.7051
84888SOL    HW266644   0.444   4.980   7.057 -1.5427  0.6329 -0.4366
84889SOL     OW66645   8.506   9.161  11.508 -0.4078 -0.0334 -0.6143
84889SOL    HW166646   8.450   9.090  11.477 -0.3017 -0.1940 -0.4428
84889SOL    HW266647   8.588   9.148  11.460  0.6659 -1.7998  1.5113
84890SOL     OW66648  12.962  13.057  13.799  0.2792 -0.0213  0.4341
84890SOL    HW166649  12.939  12.992  13.865 -0.7995 -0.4987 -0.3660
84890SOL    HW266650  12.970  13.139  13.847 -2.6773  0.0951  0.9550
84891SOL     OW66651   1.945   4.600  12.264  0.0313  0.5201 -0.1467
84891SOL    HW166652   1.998   4.540  12.317 -0.4909  0.4932  0.3575
84891SOL    HW266653   1.907   4.544  12.196  0.0156  0.3853 -0.0295
84892SOL     OW66654   5.626   8.936   1.635 -0.2398 -0.3542 -0.4052
84892SOL    HW166655   5.582   8.916   1.553 -0.0184  2.4847 -1.3267
84892SOL    HW266656   5.566   8.995   1.681  0.2975 -0.7192  0.8216
84893SOL     OW66657   4.340   6.441  11.413  0.5840 -0.5740  0.5953
84893SOL    HW166658   4.411   6.385  11.445  1.1891  0.7708  1.6635
84893SOL    HW266659   4.372   6.530  11.425 -1.5347  0.0909  1.6858
84894SOL     OW66660   2.069   1.591   8.797 -0.6017  0.5143  0.8535
84894SOL    HW166661   1.974   1.584   8.797 -0.5812 -2.3570 -2.3435
84894SOL    HW266662   2.089   1.637   8.715  0.7553 -0.5107  0.5815
84895SOL     OW66663  11.163   1.826   9.617  0.0508  0.2378  0.0836
84895SOL    HW166664  11.185   1.814   9.524 -0.9859 -0.0311 -0.1368
84895SOL    HW266665  11.177   1.740   9.656 -1.5563 -0.2087 -0.2692
84896SOL     OW66666   5.872   8.778  12.739  0.4545 -0.1058 -0.2787
84896SOL    HW166667   5.812   8.826  12.681  0.1504 -2.8959 -2.5134
84896SOL    HW266668   5.959   8.797  12.704  0.5018  0.2526  0.0240
84897SOL     OW66669  13.578   5.744  11.309  0.3920 -0.4210 -0.0705
84897SOL    HW166670  13.616   5.741  11.397  1.5545  0.4847 -0.5142
84897SOL    HW266671  13.596   5.833  11.278 -1.4074 -0.1977 -0.6406
84898SOL     OW66672   7.396   1.014   5.055 -0.4280  0.1513  0.2851
84898SOL    HW166673   7.314   0.999   5.008  0.0812 -1.6811 -0.0863
84898SOL    HW266674   7.455   0.946   5.023  1.1763  1.2868  0.7279
84899SOL     OW66675   4.806   8.067  11.168 -0.1446  0.2579 -0.1958
84899SOL    HW166676   4.774   7.978  11.156  0.5071  0.1938 -1.7078
84899SOL    HW266677   4.726   8.120  11.178 -0.6722 -0.1777 -1.7784
84900SOL     OW66678   3.798   2.895  13.863  0.2382  0.3072  0.1377
84900SOL    HW166679   3.760   2.982  13.858  0.2882  0.3023 -0.4210
84900SOL    HW266680   3.744   2.849  13.927  0.2848  0.7807  0.5236
84901SOL     OW66681   7.634  12.359   8.783  0.1284 -0.2398  0.4209
84901SOL    HW166682   7.655  12.388   8.695  0.8900  0.3147  0.7710
84901SOL    HW266683   7.562  12.297   8.772 -0.1058  0.1866 -0.5395
84902SOL     OW66684   5.398  12.441   6.070  0.6064 -0.5664  0.1089
84902SOL    HW166685   5.371  12.515   6.015 -0.5418 -0.3231  0.9715
84902SOL    HW266686   5.476  12.472   6.116  0.8791 -0.3569 -0.4840
84903SOL     OW66687  10.307   4.519   2.072 -0.2232 -0.4032  0.8429
84903SOL    HW166688  10.258   4.449   2.028 -0.3394  0.2185 -0.0654
84903SOL    HW266689  10.240   4.584   2.094  0.3002  1.3476 -2.1145
84904SOL     OW66690   3.161   2.444   1.122  0.3156  0.3869 -0.4628
84904SOL    HW166691   3.133   2.515   1.064  0.4018  0.6887 -0.1407
84904SOL    HW266692   3.134   2.364   1.077 -0.2746  0.6425 -0.5722
84905SOL     OW66693  11.883   0.436   7.229  0.4309 -0.0557  0.0433
84905SOL    HW166694  11.840   0.450   7.145 -0.0467  2.7556  0.6588
84905SOL    HW266695  11.814   0.403   7.286 -0.2512  1.5820  0.2361
84906SOL     OW66696  13.192   0.765   0.260  0.1702 -0.4370 -0.2445
84906SOL    HW166697  13.130   0.776   0.332 -0.8106 -0.6973 -1.0232
84906SOL    HW266698  13.164   0.684   0.217 -1.5955  1.5238 -3.1180
84907SOL     OW66699   1.182   3.506   2.848  0.1477 -0.2324  0.5591
84907SOL    HW166700   1.244   3.436   2.868  0.5950 -0.3612 -1.1120
84907SOL    HW266701   1.235   3.572   2.802 -0.9243 -0.3558 -0.9368
84908SOL     OW66702   8.688   1.598  11.782 -0.2716  0.1324  0.5390
84908SOL    HW166703   8.608   1.567  11.823 -0.7868  0.2493 -0.3439
84908SOL    HW266704   8.742   1.520  11.772 -0.2463  0.0632  1.1952
84909SOL     OW66705   7.745   1.069   9.677 -0.2774 -0.1433 -0.6187
84909SOL    HW166706   7.682   1.043   9.609 -1.9513 -0.0633  0.8338
84909SOL    HW266707   7.830   1.064   9.634 -0.9736 -3.0801 -1.8778
84910SOL     OW66708   5.807   6.242   5.697  0.1783 -0.7231 -0.2969
84910SOL    HW166709   5.777   6.330   5.720 -0.2467 -0.4046 -1.9321
84910SOL    HW266710   5.867   6.218   5.767 -0.8419  0.2499  0.9818
84911SOL     OW66711  11.393   3.115  13.162 -0.8022 -0.0324 -0.1984
84911SOL    HW166712  11.309   3.109  13.116 -0.4881 -1.1757 -0.6632
84911SOL    HW266713  11.373   3.088  13.251 -1.0764  0.5076 -0.0880
84912SOL     OW66714   0.384   9.145  11.365  0.0558  0.1892  0.0773
84912SOL    HW166715   0.477   9.155  11.386 -0.0885  0.7438  0.5021
84912SOL    HW266716   0.368   9.051  11.370  1.0047 -0.1332 -1.8586
84913SOL     OW66717  12.667   0.603  11.004 -0.8026  0.1104  0.0544
84913SOL    HW166718  12.757   0.631  11.018 -0.7816 -0.6228  1.6776
84913SOL    HW266719  12.625   0.676  10.959  0.4690  0.6685 -0.2446
84914SOL     OW66720   7.466   7.812   2.999 -0.3572  0.3303 -0.5402
84914SOL    HW166721   7.471   7.900   2.961 -0.6674  1.0524  1.0375
84914SOL    HW266722   7.387   7.774   2.960 -0.3805  0.8525 -1.0158
84915SOL     OW66723  13.919  13.152   9.763 -0.3259 -0.5116 -0.0423
84915SOL    HW166724  13.877  13.183   9.843  1.2270  0.6331  0.3851
84915SOL    HW266725  13.977  13.224   9.737 -1.3464 -0.5290 -2.6353
84916SOL     OW66726   4.205  10.423   0.687 -0.1077 -0.3212 -0.5682
84916SOL    HW166727   4.169  10.366   0.620  0.2531 -1.0106 -0.1790
84916SOL    HW266728   4.295  10.395   0.698 -0.1062 -0.0973  0.0752
84917SOL     OW66729   2.900   5.915   7.190 -0.2265 -0.4621  0.1052
84917SOL    HW166730   2.851   5.837   7.218 -0.1263 -0.3407  0.6289
84917SOL    HW266731   2.921   5.898   7.099 -1.4822 -0.3979 -0.2200
84918SOL     OW66732   8.958  11.173   2.642  0.2746  0.5165  0.4060
84918SOL    HW166733   8.878  11.123   2.625  0.6805  0.6416 -2.1419
84918SOL    HW266734   9.029  11.111   2.628  0.7021  0.9771  0.4896
84919SOL     OW66735   6.811   6.780   6.056 -0.5125  0.3542 -0.2097
84919SOL    HW166736   6.828   6.848   6.121  0.6869  0.7198 -0.8798
84919SOL    HW266737   6.895   6.768   6.010 -0.9130 -1.0013 -0.6482
84920SOL     OW66738  13.353   6.658   6.049  0.2637 -0.1252 -0.4585
84920SOL    HW166739  13.429   6.698   6.091  0.8337  0.1235 -1.6994
84920SOL    HW266740  13.279   6.710   6.080  0.6286 -0.1240  0.4509
84921SOL     OW66741  11.288   1.311   4.208  0.8395 -0.5902  0.3066
84921SOL    HW166742  11.365   1.355   4.245  1.0696  0.0437 -0.8727
84921SOL    HW266743  11.284   1.343   4.117 -0.6569 -0.8246  0.2710
84922SOL     OW66744   0.914   5.731   3.872  0.1664 -0.4549  0.3176
84922SOL    HW166745   0.845   5.787   3.838  0.5936  0.7783  1.4087
84922SOL    HW266746   0.899   5.729   3.967  2.4212  0.9986  0.7687
84923SOL     OW66747   6.958   4.211   1.869  0.0766 -0.1375  0.0168
84923SOL    HW166748   6.959   4.303   1.896  1.6156  0.0432 -0.5037
84923SOL    HW266749   6.871   4.197   1.833  0.1831  1.4874 -0.9931
84924SOL     OW66750   2.301  12.905   0.593  0.3322 -0.0752  0.3070
84924SOL    HW166751   2.385  12.937   0.626  0.4954 -0.6756  0.4830
84924SOL    HW266752   2.258  12.983   0.557  0.3823  0.4843  1.4355
84925SOL     OW66753   9.226  10.338  13.721  0.2058  0.1974  0.4186
84925SOL    HW166754   9.277  10.264  13.689  0.7403 -1.2049  4.0142
84925SOL    HW266755   9.287  10.387  13.776 -1.3092  0.6097  1.8183
84926SOL     OW66756  11.381   9.132  12.823  0.0189  0.3663 -0.0948
84926SOL    HW166757  11.366   9.157  12.732  0.2278  1.8456  0.2436
84926SOL    HW266758  11.311   9.177  12.871  0.2774  0.1045  0.5291
84927SOL     OW66759   7.730   0.298   2.156 -0.0900 -0.1798 -0.1692
84927SOL    HW166760   7.738   0.321   2.063 -1.6361 -1.4334 -0.6584
84927SOL    HW266761   7.776   0.214   2.164 -0.5904 -0.4378  0.0330
84928SOL     OW66762   9.190   0.303   6.561  0.1334  0.1822 -0.1472
84928SOL    HW166763   9.175   0.317   6.655 -2.8104  0.3394 -0.5422
84928SOL    HW266764   9.209   0.210   6.554 -1.3042 -0.1922  0.4908
84929SOL     OW66765   4.762   2.934   5.054  0.4438 -0.0772  0.2454
84929SOL    HW166766   4.792   3.007   5.108  3.7439 -0.3374 -1.0322
84929SOL    HW266767   4.710   2.975   4.985 -1.1925  0.5420  1.7464
84930SOL     OW66768   0.595   6.599   1.343  0.1287  0.6075  0.1541
84930SOL    HW166769   0.652   6.580   1.418  0.4613  0.0384 -0.2397
84930SOL    HW266770   0.634   6.677   1.304  0.7714  0.0905 -0.2432
84931SOL     OW66771   0.875   0.333   5.265 -0.0002 -0.6291  0.3579
84931SOL    HW166772   0.917   0.289   5.340 -0.5765 -1.5603  0.1468
84931SOL    HW266773   0.785   0.301   5.265 -0.7116  1.2328  0.7117
84932SOL     OW66774   6.432   6.881  13.908  0.0421  0.0792  0.1987
84932SOL    HW166775   6.500   6.869  13.842 -1.3182  0.8544 -1.4362
84932SOL    HW266776   6.449   6.813  13.973  3.2666  1.2090  0.6983
84933SOL     OW66777   5.344  12.338   8.075 -0.0473 -0.8607 -0.2856
84933SOL    HW166778   5.339  12.427   8.109 -1.8975 -0.1819 -2.1060
84933SOL    HW266779   5.388  12.288   8.144  0.9653  1.4079  0.8339
84934SOL     OW66780   9.947   2.025   1.830 -0.0298 -0.0046 -0.0517
84934SOL    HW166781   9.866   2.022   1.881 -0.8991  0.8897 -1.3433
84934SOL    HW266782  10.015   2.005   1.894 -1.1124  0.7429  1.4048
84935SOL     OW66783   3.899   2.507   3.537 -0.1688 -0.1288  0.1178
84935SOL    HW166784   3.890   2.601   3.525  1.2444  0.2406  1.5649
84935SOL    HW266785   3.811   2.477   3.558 -0.6494  0.8514 -0.4296
84936SOL     OW66786  11.306  12.464   0.726 -0.9127  0.1807  1.1833
84936SOL    HW166787  11.391  12.494   0.759 -1.0437  2.3421 -0.1821
84936SOL    HW266788  11.315  12.468   0.631 -2.1660 -0.7218  1.0067
84937SOL     OW66789   3.441   5.114  11.634 -0.9087  0.4279 -0.6489
84937SOL    HW166790   3.476   5.048  11.574 -0.8367 -0.2182  0.1078
84937SOL    HW266791   3.426   5.190  11.577 -0.4614 -0.0380 -1.4201
84938SOL     OW66792  12.199   3.937  12.568 -0.1151 -0.4219  0.2203
84938SOL    HW166793  12.119   3.988  12.585 -0.5365 -0.4280 -1.4947
84938SOL    HW266794  12.186   3.855  12.615 -1.1963 -0.4714 -0.1292
84939SOL     OW66795   4.611   2.337  11.796  0.1607  0.0441  0.2654
84939SOL    HW166796   4.586   2.385  11.875  1.0795  2.9625 -1.0781
84939SOL    HW266797   4.530   2.330  11.745 -0.1890 -0.8139  0.9111
84940SOL     OW66798   8.331   5.731  13.754  0.0805  1.1060  0.0437
84940SOL    HW166799   8.256   5.708  13.699  1.9625  1.8840 -3.0636
84940SOL    HW266800   8.358   5.649  13.794 -1.7088  0.6268  0.3553
84941SOL     OW66801   3.691   0.332   9.066 -0.0794  0.2989  0.6504
84941SOL    HW166802   3.608   0.373   9.090 -0.4981  0.7006 -1.3462
84941SOL    HW266803   3.756   0.402   9.077 -0.3635  0.6712  0.0484
84942SOL     OW66804   0.204   0.430   1.500  0.1296 -0.5092  0.0008
84942SOL    HW166805   0.119   0.393   1.524 -0.7923  0.6813 -1.3061
84942SOL    HW266806   0.260   0.353   1.487 -0.6237 -1.3034  1.1817
84943SOL     OW66807   1.873   1.531  10.099 -0.2329 -0.5793 -0.0205
84943SOL    HW166808   1.852   1.610  10.149 -0.6232 -1.4941  1.3163
84943SOL    HW266809   1.842   1.549  10.010 -0.0565  0.8635  0.1942
84944SOL     OW66810  13.634  10.458   8.421 -0.1910 -0.0718 -0.2656
84944SOL    HW166811  13.571  10.411   8.477  1.1838  0.5369  1.8841
84944SOL    HW266812  13.600  10.445   8.332 -2.4205 -1.1661  0.6599
84945SOL     OW66813   1.206  11.927   3.746 -0.0840 -0.3156 -0.2969
84945SOL    HW166814   1.122  11.961   3.778 -1.1271 -2.1298 -0.9222
84945SOL    HW266815   1.229  11.858   3.808  0.4645 -0.4485 -0.6486
84946SOL     OW66816  13.616  11.963   4.321 -0.1508 -0.0797 -0.4999
84946SOL    HW166817  13.645  11.971   4.230 -0.5420  2.2074 -0.4780
84946SOL    HW266818  13.630  12.050   4.359 -2.1010 -0.3330  0.9900
84947SOL     OW66819  11.257  10.724  11.517 -0.6181 -0.4765 -0.5503
84947SOL    HW166820  11.315  10.656  11.552 -0.4751 -0.4868 -0.8049
84947SOL    HW266821  11.309  10.766  11.448 -0.5495  0.1665 -0.1193
84948SOL     OW66822   3.312   7.386   1.282  0.4854  0.1693  0.0928
84948SOL    HW166823   3.343   7.368   1.370 -2.6501 -0.5243  1.1918
84948SOL    HW266824   3.217   7.372   1.286  0.3240 -1.1088 -3.6877
84949SOL     OW66825  10.983   0.942   8.373 -0.3201 -0.3741 -0.1524
84949SOL    HW166826  10.899   0.895   8.371 -0.3496 -0.2960 -2.2809
84949SOL    HW266827  11.049   0.873   8.360 -0.3284 -0.0039 -2.6012
84950SOL     OW66828   0.017  13.566  10.359  0.1803 -0.2949 -0.0530
84950SOL    HW166829   0.112  13.557  10.365  0.1262 -0.0449  1.3908
84950SOL    HW266830  -0.002  13.653  10.395 -0.5818 -0.2758 -0.4803
84951SOL     OW66831  11.029   1.717   3.285  0.2370 -0.0519 -0.5738
84951SOL    HW166832  11.062   1.683   3.368  1.2977 -0.3088 -1.0711
84951SOL    HW266833  10.950   1.765   3.307  0.9652  0.6021  0.7029
84952SOL     OW66834   9.190   7.392   1.450  0.3865 -0.1051 -0.4719
84952SOL    HW166835   9.121   7.451   1.482 -1.6537 -2.5097 -0.1668
84952SOL    HW266836   9.220   7.433   1.369 -1.3342  1.0837 -0.5717
84953SOL     OW66837   2.899  10.981   7.625  0.4318 -0.0249 -0.4350
84953SOL    HW166838   2.977  10.972   7.680  2.1825  0.6719 -2.6299
84953SOL    HW266839   2.866  10.892   7.615  1.9554 -0.5882 -0.7600
84954SOL     OW66840   2.781   5.315  11.055 -0.3879 -0.1654  0.6093
84954SOL    HW166841   2.729   5.396  11.049 -0.2033 -0.0604  0.3991
84954SOL    HW266842   2.716   5.245  11.047 -0.2939 -0.0572 -2.2212
84955SOL     OW66843   2.553   8.339   9.561 -0.1885 -0.1823 -0.5733
84955SOL    HW166844   2.596   8.257   9.535  2.1266  1.3703 -1.9980
84955SOL    HW266845   2.461   8.316   9.569  0.2375 -2.7223 -1.8897
84956SOL     OW66846   3.916   9.436   9.125 -0.3642  0.2618  0.4748
84956SOL    HW166847   3.821   9.424   9.115 -0.2638 -0.0816 -0.1502
84956SOL    HW266848   3.927   9.529   9.139 -0.8120  0.2848  0.6996
84957SOL     OW66849   2.700   9.205   9.549 -0.1536  0.1551  0.1309
84957SOL    HW166850   2.711   9.183   9.457  3.8212  0.2241  0.4096
84957SOL    HW266851   2.675   9.122   9.591  0.6448 -0.5159 -0.6850
84958SOL     OW66852  12.771   2.669   8.085  0.4221 -0.7712  0.0260
84958SOL    HW166853  12.729   2.644   8.167  0.2108 -1.1435 -0.1966
84958SOL    HW266854  12.703   2.660   8.018  0.0083  1.3769  0.0666
84959SOL     OW66855   5.929   2.981   0.673  0.6149 -0.4656 -0.0026
84959SOL    HW166856   5.962   2.891   0.677  0.3924 -0.5193  0.7649
84959SOL    HW266857   5.842   2.974   0.635  1.1463 -0.4110 -1.2819
84960SOL     OW66858   9.645  10.884   9.676  0.2876  0.3739  0.4264
84960SOL    HW166859   9.627  10.918   9.588 -1.1164 -0.0069  0.5562
84960SOL    HW266860   9.650  10.963   9.731  0.6921  0.5811  0.0987
84961SOL     OW66861  12.341  12.604  13.167 -0.0489  0.2494  0.6065
84961SOL    HW166862  12.357  12.696  13.187 -0.5785  0.3059  0.7915
84961SOL    HW266863  12.418  12.576  13.118  1.0002  0.2718  2.1765
84962SOL     OW66864   6.211   3.770   9.640 -0.1723  0.0609  0.3610
84962SOL    HW166865   6.152   3.836   9.605 -0.7754 -1.2689 -1.2969
84962SOL    HW266866   6.154   3.696   9.662  0.4942  0.0066  2.0636
84963SOL     OW66867   0.517  12.487   1.057 -0.2855  0.2748 -0.4612
84963SOL    HW166868   0.493  12.445   0.975  0.6205 -1.5654  0.1432
84963SOL    HW266869   0.612  12.498   1.051  0.0437 -1.3834  0.9278
84964SOL     OW66870  11.741   5.516   5.312  0.3550 -0.0690 -0.9486
84964SOL    HW166871  11.717   5.430   5.277 -1.5732  0.3795 -0.8577
84964SOL    HW266872  11.659   5.567   5.309  1.5609  1.9646 -1.5623
84965SOL     OW66873   5.587   0.549   5.091 -0.1602  0.5407 -0.5658
84965SOL    HW166874   5.503   0.579   5.126 -0.0705  1.5104 -1.1327
84965SOL    HW266875   5.638   0.630   5.080  1.2369 -0.1356  0.7618
84966SOL     OW66876   3.321   3.455   6.235 -0.2826 -0.1375  0.6138
84966SOL    HW166877   3.244   3.399   6.248 -0.6559 -0.6419 -2.7778
84966SOL    HW266878   3.285   3.543   6.223 -0.2823 -0.2531 -0.2654
84967SOL     OW66879   4.483   4.348   0.108 -0.4450 -0.6501 -0.0749
84967SOL    HW166880   4.480   4.291   0.184 -0.8918  1.3093  1.4697
84967SOL    HW266881   4.446   4.431   0.139  2.8534  1.4616 -1.2906
84968SOL     OW66882   9.671  12.124   3.873  0.3759 -0.4605 -0.6108
84968SOL    HW166883   9.706  12.211   3.891 -1.9848  0.2219  1.1320
84968SOL    HW266884   9.687  12.075   3.954 -1.4434 -0.5194 -0.2514
84969SOL     OW66885  12.631  11.588   7.440  0.1460  0.6945  0.8747
84969SOL    HW166886  12.648  11.563   7.349 -1.1725  1.3000  0.4493
84969SOL    HW266887  12.622  11.683   7.438  1.3870  0.8588  1.8695
84970SOL     OW66888   2.090   9.151   7.035 -1.0671  0.2628 -0.0834
84970SOL    HW166889   2.166   9.126   7.086 -0.3701 -0.0784 -1.2380
84970SOL    HW266890   2.054   9.069   7.002 -1.0845  0.5080 -0.7013
84971SOL     OW66891  10.827   0.472  13.676  0.3232 -0.0833 -0.0518
84971SOL    HW166892  10.875   0.390  13.665  0.8945 -0.3451  3.3309
84971SOL    HW266893  10.882   0.538  13.634  0.5872 -1.1780 -1.5037
84972SOL     OW66894   9.560   3.879  11.546 -0.7402 -0.0850 -0.3798
84972SOL    HW166895   9.533   3.968  11.568  1.3845  0.5510 -0.1291
84972SOL    HW266896   9.549   3.874  11.451 -1.5898  0.1621 -0.3048
84973SOL     OW66897   2.682   0.429  13.132 -0.3893 -0.2678  0.0887
84973SOL    HW166898   2.605   0.461  13.179 -1.1906 -1.1326 -0.6194
84973SOL    HW266899   2.729   0.377  13.197 -0.0083  0.8291  0.7250
84974SOL     OW66900   9.302   0.079   4.126  0.0276 -0.3117  0.5471
84974SOL    HW166901   9.237   0.078   4.057  0.5888 -1.1002  0.0047
84974SOL    HW266902   9.326   0.171   4.137 -0.4192 -0.1351  0.0357
84975SOL     OW66903   7.674   2.338   1.908 -0.0530  0.1839  0.0507
84975SOL    HW166904   7.704   2.415   1.955 -0.9029  0.8118 -0.4033
84975SOL    HW266905   7.746   2.314   1.850  1.0372 -0.6431  1.6868
84976SOL     OW66906   5.308   7.692   8.788  0.2271 -0.1447 -0.4550
84976SOL    HW166907   5.253   7.620   8.818  0.2983 -0.8585 -1.9566
84976SOL    HW266908   5.362   7.714   8.864 -1.0361 -0.4670  0.5605
84977SOL     OW66909  13.186   1.275   2.765 -0.2856 -0.2284 -0.4079
84977SOL    HW166910  13.137   1.319   2.835 -0.3223 -0.0163 -0.5664
84977SOL    HW266911  13.133   1.288   2.687 -0.4363 -0.8016 -0.4051
84978SOL     OW66912  10.288   5.512   2.783 -0.5316  0.4049 -0.4399
84978SOL    HW166913  10.218   5.485   2.724 -0.4403  0.8264 -0.7480
84978SOL    HW266914  10.245   5.571   2.845 -0.6812 -0.2449  0.0799
84979SOL     OW66915   3.837  12.899  12.980 -0.5847  0.3496  0.3586
84979SOL    HW166916   3.920  12.874  12.938 -0.7659 -0.1023  0.2644
84979SOL    HW266917   3.814  12.983  12.939  0.4762  1.1416  1.2964
84980SOL     OW66918   9.194   4.892   7.772  0.5470 -0.6412 -0.1912
84980SOL    HW166919   9.246   4.818   7.802 -0.3690 -0.7233  1.2890
84980SOL    HW266920   9.239   4.969   7.809  0.9863 -0.5147 -0.9708
84981SOL     OW66921   4.040   2.173   3.520  0.0986  0.2107 -0.1120
84981SOL    HW166922   3.946   2.178   3.536  0.0130 -0.1158 -0.4941
84981SOL    HW266923   4.071   2.103   3.577  0.4811  1.6948  1.6041
84982SOL     OW66924   3.688  13.880   7.004  0.1804  0.0022 -0.3899
84982SOL    HW166925   3.758  13.836   6.957 -0.6070 -1.7963  0.0303
84982SOL    HW266926   3.608  13.846   6.964 -0.4909 -0.8941  1.6085
84983SOL     OW66927  11.604   8.167   6.139  0.1629 -0.1972 -0.1992
84983SOL    HW166928  11.591   8.249   6.091  1.4520 -0.6310 -1.3475
84983SOL    HW266929  11.604   8.192   6.231  0.4871  1.0936 -0.5391
84984SOL     OW66930   9.480   0.575  11.002  0.0340 -0.8672 -0.2465
84984SOL    HW166931   9.570   0.601  10.982  0.7271 -1.9149  1.2983
84984SOL    HW266932   9.430   0.657  10.997  0.5399 -0.6328 -3.5126
84985SOL     OW66933   7.163  11.957   4.577 -0.1389 -0.5015  0.1450
84985SOL    HW166934   7.125  11.936   4.491  0.5670 -0.4709 -0.1862
84985SOL    HW266935   7.090  11.992   4.628 -0.7385 -1.2336 -0.1889
84986SOL     OW66936   6.082   3.720   8.370  0.3339  0.4027 -0.2694
84986SOL    HW166937   5.999   3.708   8.415  0.2514  0.9049 -0.2821
84986SOL    HW266938   6.061   3.711   8.277  0.4629 -0.3968 -0.2318
84987SOL     OW66939   6.882   2.965   6.521  0.0006  0.1332  0.0287
84987SOL    HW166940   6.812   2.967   6.456 -0.2414  0.2370  0.2930
84987SOL    HW266941   6.861   2.890   6.577  1.9607 -2.0525 -1.9513
84988SOL     OW66942   7.653   1.820  11.380 -0.5949  0.3420  0.2476
84988SOL    HW166943   7.566   1.806  11.344 -1.5459 -0.0429  2.5543
84988SOL    HW266944   7.641   1.882  11.451  1.0060  0.2590  0.6369
84989SOL     OW66945   8.685   6.462  12.426  0.2573 -0.6231 -0.1417
84989SOL    HW166946   8.626   6.524  12.467  0.7275 -0.2781  0.0249
84989SOL    HW266947   8.661   6.377  12.463 -0.4793 -0.5694 -0.4743
84990SOL     OW66948   8.263   5.016   4.470  0.3595 -0.1290  0.3592
84990SOL    HW166949   8.236   4.929   4.441  0.3978 -0.4787  1.3502
84990SOL    HW266950   8.283   5.063   4.389  1.4635 -1.3954 -0.1336
84991SOL     OW66951  10.668   8.691  10.684 -0.2457 -0.0769  0.0026
84991SOL    HW166952  10.692   8.728  10.600  0.5086  1.1659  0.7408
84991SOL    HW266953  10.575   8.711  10.694 -0.1991  0.2807 -0.2797
84992SOL     OW66954   1.161   1.746  12.032  0.3769 -0.4808  0.0299
84992SOL    HW166955   1.139   1.732  12.124  0.2324 -0.7827 -0.0492
84992SOL    HW266956   1.109   1.681  11.985 -0.0703  0.1357 -0.3259
84993SOL     OW66957   2.451  11.327  13.535 -0.1528  0.3472 -0.0177
84993SOL    HW166958   2.499  11.355  13.457  0.0722 -0.9029 -0.3399
84993SOL    HW266959   2.458  11.232  13.536  0.1779  0.3461  1.7470
84994SOL     OW66960  13.714   4.442   7.344 -0.3076 -0.0997  0.1825
84994SOL    HW166961  13.669   4.526   7.353 -0.9306 -0.3468 -0.5032
84994SOL    HW266962  13.650   4.377   7.372  0.0565 -0.3694  0.3932
84995SOL     OW66963   5.193   1.979   7.091  0.3867 -0.5930 -0.1362
84995SOL    HW166964   5.262   1.971   7.026 -1.9424 -0.1919 -2.8509
84995SOL    HW266965   5.229   2.037   7.158  1.9785  1.3411 -2.4891
84996SOL     OW66966   7.072  12.578  13.804  0.2881  0.4909 -0.2782
84996SOL    HW166967   7.076  12.549  13.713  0.1054  0.3776 -0.2508
84996SOL    HW266968   6.983  12.612  13.815  0.5307  1.1423 -0.3307
84997SOL     OW66969   4.366  11.152   9.020 -0.9442  0.9420 -0.4348
84997SOL    HW166970   4.440  11.122   9.072 -0.8193  2.7603  0.4948
84997SOL    HW266971   4.303  11.080   9.024  1.1201 -1.1373 -2.1596
84998SOL     OW66972   8.091   7.712   5.869 -0.5161 -0.3391 -0.2083
84998SOL    HW166973   8.082   7.673   5.956  0.0193 -0.9391 -0.4104
84998SOL    HW266974   8.052   7.647   5.809  0.0411 -0.4061 -0.5113
84999SOL     OW66975   6.209   7.084  11.531 -0.6083 -0.4728 -0.4100
84999SOL    HW166976   6.242   7.107  11.618 -0.8148 -0.4213 -0.3465
84999SOL    HW266977   6.147   7.154  11.509 -1.1457 -0.8948 -0.2678
85000SOL     OW66978   7.646   7.435   6.307 -0.4821  0.2995  0.1754
85000SOL    HW166979   7.628   7.527   6.326 -0.5248  0.4233 -0.4445
85000SOL    HW266980   7.562   7.399   6.278 -0.8837 -0.3748  2.0104
85001SOL     OW66981  10.328   8.623   0.075 -0.9444 -1.0319 -0.0592
85001SOL    HW166982  10.281   8.619  -0.009  0.5797 -0.2336 -0.9966
85001SOL    HW266983  10.393   8.553   0.069  1.5040  1.1534 -1.1084
85002SOL     OW66984   8.542   8.550   6.008 -0.1071 -0.1559 -0.4859
85002SOL    HW166985   8.463   8.604   6.002 -0.2163  0.2611  3.0626
85002SOL    HW266986   8.611   8.611   6.033  0.4574 -1.1665  0.4944
85003SOL     OW66987   2.483   8.456   1.125  0.0989  0.8637 -0.4536
85003SOL    HW166988   2.447   8.445   1.038  1.6574  0.6168 -1.1045
85003SOL    HW266989   2.560   8.399   1.127  0.0187  0.7444  1.1383
85004SOL     OW66990   8.240   6.164  13.020 -0.0218 -0.0751 -0.0508
85004SOL    HW166991   8.198   6.144  12.937  0.7129  0.0864 -0.4736
85004SOL    HW266992   8.291   6.243  13.003  0.1881 -0.0759  0.5338
85005SOL     OW66993   5.046   1.340  10.795  0.0634  0.2715 -0.3227
85005SOL    HW166994   4.972   1.313  10.848 -0.6766  1.0157 -0.9551
85005SOL    HW266995   5.074   1.423  10.833  0.1002  0.3578 -0.5331
85006SOL     OW66996   3.206   7.663   2.373 -0.1909 -0.1903  0.4098
85006SOL    HW166997   3.143   7.604   2.414 -1.8739  1.1303 -0.1705
85006SOL    HW266998   3.184   7.661   2.280 -0.2667  1.2894  0.3715
85007SOL     OW66999   9.155   2.601   1.676 -0.1659 -0.3813  0.0569
85007SOL    HW167000   9.096   2.588   1.602 -1.7425 -0.6428  1.2933
85007SOL    HW267001   9.100   2.583   1.753  1.7203 -1.3535  1.2475
85008SOL     OW67002   9.827  10.229  10.663  0.4574 -0.2326  0.0363
85008SOL    HW167003   9.869  10.311  10.638  0.2664 -0.2166 -0.2400
85008SOL    HW267004   9.742  10.230  10.618 -0.2150  0.1190  1.2569
85009SOL     OW67005  11.132   4.441  11.414 -0.1503 -0.1183 -0.7573
85009SOL    HW167006  11.044   4.431  11.378  0.3874 -0.6174 -1.9860
85009SOL    HW267007  11.119   4.482  11.500 -1.4737  1.3752 -1.6162
85010SOL     OW67008   8.509   5.455   6.944  0.3341 -0.1171 -0.0179
85010SOL    HW167009   8.450   5.529   6.925 -0.2107 -0.6854 -0.6146
85010SOL    HW267010   8.473   5.417   7.024 -1.2004 -1.4904 -1.2772
85011SOL     OW67011  13.486   1.095  11.319  0.0426  0.2140 -0.6398
85011SOL    HW167012  13.392   1.091  11.336  0.1771  0.0871  0.0780
85011SOL    HW267013  13.509   1.008  11.286  0.0754 -0.0479  0.0634
85012SOL     OW67014   4.222   2.641   9.204 -0.4595 -0.5731  0.2212
85012SOL    HW167015   4.300   2.587   9.203  0.0027  0.0476 -1.6636
85012SOL    HW267016   4.151   2.582   9.181 -0.7047 -1.2485  2.4199
85013SOL     OW67017   0.199   5.198   3.282  0.4985 -0.2096 -0.3372
85013SOL    HW167018   0.214   5.285   3.319  1.4102  0.0182 -1.1818
85013SOL    HW267019   0.137   5.213   3.210  1.6885 -0.0234 -1.3500
85014SOL     OW67020   6.517   0.069   8.969  0.3954  0.1085  0.2689
85014SOL    HW167021   6.442   0.115   8.933  1.0341  1.8958  1.0887
85014SOL    HW267022   6.593   0.112   8.931  1.0291 -0.8324  0.4211
85015SOL     OW67023  12.461   9.834   7.690  0.1136  0.2513  0.4099
85015SOL    HW167024  12.498   9.912   7.732 -0.2439  0.5483  0.1794
85015SOL    HW267025  12.459   9.768   7.759 -1.6388  1.0883  1.2229
85016SOL     OW67026   6.773   3.676   6.174  0.6934 -0.2881  0.2632
85016SOL    HW167027   6.694   3.726   6.157 -0.9712 -1.8186  2.8712
85016SOL    HW267028   6.800   3.644   6.088 -1.9074 -0.2159 -0.6681
85017SOL     OW67029   1.474  13.991  10.398  0.2358  0.4775 -0.5732
85017SOL    HW167030   1.497  13.898  10.403  0.3705  0.5042 -0.6890
85017SOL    HW267031   1.515  14.021  10.317  1.5912  1.0406  0.3010
85018SOL     OW67032   7.692   6.153   7.684 -0.1731  0.0251 -0.1110
85018SOL    HW167033   7.714   6.135   7.775  0.6328  0.1094 -0.2820
85018SOL    HW267034   7.596   6.147   7.680 -0.1086 -1.9966  0.3114
85019SOL     OW67035   2.467   2.332   5.844  0.0759  0.9176  0.0066
85019SOL    HW167036   2.550   2.376   5.823 -0.3729  1.1463 -1.3286
85019SOL    HW267037   2.492   2.262   5.905  1.0739  1.7520  0.5853
85020SOL     OW67038   6.745  11.026   0.952 -0.1952 -0.4996  0.6523
85020SOL    HW167039   6.783  11.061   1.033  0.6800  1.5468 -0.5686
85020SOL    HW267040   6.664  11.076   0.940 -0.0556 -0.4271 -0.0020
85021SOL     OW67041   1.819   1.884  11.778  0.2086  0.2575 -0.3631
85021SOL    HW167042   1.841   1.901  11.870  2.0537 -0.5649 -0.5973
85021SOL    HW267043   1.890   1.827  11.748 -0.8929 -0.2715 -2.0377
85022SOL     OW67044   8.496   3.009   7.068  0.0975  0.0527 -0.4237
85022SOL    HW167045   8.584   2.985   7.037  1.3333  1.1812  1.9060
85022SOL    HW267046   8.494   3.104   7.060 -1.3110 -0.0196 -1.2551
85023SOL     OW67047   5.307   4.656   2.829 -0.2914  0.2256  0.3403
85023SOL    HW167048   5.331   4.725   2.767 -0.9696  1.1782  1.0999
85023SOL    HW267049   5.353   4.679   2.909 -1.1673  0.2598  0.8428
85024SOL     OW67050   4.491  11.922  13.172  0.4586 -0.2414 -0.0805
85024SOL    HW167051   4.454  11.897  13.257 -0.8909  1.7160 -0.0346
85024SOL    HW267052   4.438  11.873  13.109 -0.0500  0.0399  0.1224
85025SOL     OW67053   0.627   3.601   5.519  0.7050  0.0181 -0.3228
85025SOL    HW167054   0.712   3.639   5.542  0.0889 -0.8900  4.3717
85025SOL    HW267055   0.567   3.676   5.518  1.0810  0.3351 -1.2728
85026SOL     OW67056  10.936   5.961   6.987  0.7395 -0.3162 -0.5168
85026SOL    HW167057  11.014   5.929   6.942  0.6031 -0.8117 -0.4051
85026SOL    HW267058  10.944   5.927   7.076  0.6456  0.0530 -0.3674
85027SOL     OW67059  10.989   6.972   1.673  0.2783  0.4322  0.0325
85027SOL    HW167060  11.074   6.960   1.715 -0.0280  0.2810  0.6199
85027SOL    HW267061  10.940   6.894   1.696 -0.5400  1.1995  0.9701
85028SOL     OW67062  12.272   9.303  10.730  0.1063 -0.6504 -0.5804
85028SOL    HW167063  12.360   9.268  10.715  0.5360  1.1479 -2.9369
85028SOL    HW267064  12.285   9.376  10.791  0.2571 -0.4750 -0.8166
85029SOL     OW67065   0.157   1.943   4.033 -0.0529  0.0058  0.1503
85029SOL    HW167066   0.067   1.974   4.025 -0.0642  0.3666  1.4167
85029SOL    HW267067   0.192   1.990   4.108  2.4319  2.7217 -2.4337
85030SOL     OW67068   5.818   1.562  10.968 -0.3940 -0.5541 -0.0416
85030SOL    HW167069   5.817   1.483  10.913 -0.5422 -0.1888 -0.5686
85030SOL    HW267070   5.889   1.547  11.030  1.9185  0.3464 -2.2789
85031SOL     OW67071   5.240  13.227  13.599 -0.3592  0.3906  1.0019
85031SOL    HW167072   5.309  13.294  13.594  1.2970 -1.3211 -2.1481
85031SOL    HW267073   5.158  13.277  13.599  0.8286  2.4476  1.1102
85032SOL     OW67074   2.967   9.160   3.665 -0.4683  0.2117  0.1955
85032SOL    HW167075   2.964   9.253   3.688 -0.2539  0.3127 -0.1783
85032SOL    HW267076   2.931   9.116   3.741 -3.5633  0.7806 -0.7914
85033SOL     OW67077  11.078   1.382  12.367 -0.3781  0.3432 -0.6324
85033SOL    HW167078  11.158   1.424  12.400  0.4029 -0.7691 -1.0703
85033SOL    HW267079  11.085   1.292  12.397 -1.8138  0.3912 -0.1040
85034SOL     OW67080  14.020  12.991  12.883 -0.2576  0.0282 -0.3219
85034SOL    HW167081  14.025  12.905  12.924 -2.2532  0.2066  0.4127
85034SOL    HW267082  14.110  13.024  12.885  0.1381 -1.0107  1.6714
85035SOL     OW67083   5.267  11.482  13.702  0.1036  0.3504  0.2290
85035SOL    HW167084   5.185  11.531  13.700 -0.3050 -0.3308 -0.0810
85035SOL    HW267085   5.305  11.496  13.616  0.7863  1.4247  0.6789
85036SOL     OW67086   7.615   3.274   0.278  0.7439  0.7446  0.5191
85036SOL    HW167087   7.692   3.220   0.261 -0.0310 -0.7709  1.5994
85036SOL    HW267088   7.544   3.231   0.230  0.0902  0.7034  1.4836
85037SOL     OW67089   1.257   7.234   2.116 -0.5771  0.1157  0.5059
85037SOL    HW167090   1.249   7.285   2.036  0.0613  0.8032  0.8677
85037SOL    HW267091   1.346   7.198   2.113 -0.9758 -0.9025  0.3113
85038SOL     OW67092  13.698   5.571  13.383  0.0018  0.1151 -0.4739
85038SOL    HW167093  13.739   5.488  13.408 -0.3505 -0.2987 -1.2407
85038SOL    HW267094  13.670   5.558  13.293  0.8872  1.4376 -0.9671
85039SOL     OW67095   9.969  13.839  12.521 -0.1519  0.3495 -0.0040
85039SOL    HW167096   9.877  13.862  12.533  0.5543  3.6907  0.1030
85039SOL    HW267097   9.975  13.804  12.432 -1.7471 -1.8823  0.6804
85040SOL     OW67098   3.259  13.355   2.054 -0.4007 -0.2067 -0.3100
85040SOL    HW167099   3.200  13.407   2.108  2.7628  1.4644  1.8962
85040SOL    HW267100   3.273  13.408   1.976 -0.5283  0.2032 -0.0578
85041SOL     OW67101   7.202   1.909   7.426 -0.3987  0.1496 -0.3845
85041SOL    HW167102   7.258   1.872   7.358  0.6243  0.7705  0.1006
85041SOL    HW267103   7.262   1.951   7.487 -1.1674 -1.4767  1.6234
85042SOL     OW67104   8.088  10.505  10.062  0.2436 -0.5014  0.0341
85042SOL    HW167105   8.177  10.504  10.097 -0.2581 -0.7558  1.3855
85042SOL    HW267106   8.032  10.509  10.140 -0.9253 -0.3594 -0.7879
85043SOL     OW67107   2.461  13.847   3.567  0.5792 -0.1000  0.5621
85043SOL    HW167108   2.503  13.888   3.642 -1.1573  2.0694  0.4588
85043SOL    HW267109   2.502  13.890   3.491 -2.5700  3.2126  0.4639
85044SOL     OW67110   8.379   0.370   4.733  0.2373 -0.2083  0.1459
85044SOL    HW167111   8.431   0.326   4.800 -1.6602 -0.3928  1.5856
85044SOL    HW267112   8.443   0.404   4.671  1.9189 -2.3263  0.6169
85045SOL     OW67113   7.880  13.276   3.695  0.3943  0.1006 -0.1974
85045SOL    HW167114   7.787  13.298   3.705  0.4696  0.8901 -1.0559
85045SOL    HW267115   7.915  13.346   3.639  1.6112  0.0664  0.4875
85046SOL     OW67116   1.907   1.360   7.540 -0.4282 -0.1794  0.0289
85046SOL    HW167117   1.867   1.444   7.564  0.0020 -0.2755  1.1484
85046SOL    HW267118   2.001   1.373   7.551 -0.1852 -0.2034 -1.8095
85047SOL     OW67119   9.914   7.303  12.976  0.2511  0.3863 -0.3920
85047SOL    HW167120   9.929   7.325  12.884 -1.1133  0.8411 -0.5173
85047SOL    HW267121   9.975   7.231  12.993  1.2444  0.9606 -1.3523
85048SOL     OW67122   3.207  11.020   6.186 -0.1751 -0.2019 -0.9084
85048SOL    HW167123   3.290  11.067   6.201  0.4328 -1.9466  1.8344
85048SOL    HW267124   3.193  11.027   6.092  1.3898  2.8791 -1.0526
85049SOL     OW67125   7.127   1.829  10.028  0.1503 -0.0487 -0.2180
85049SOL    HW167126   7.166   1.902  10.076 -0.2196 -0.3181  0.5013
85049SOL    HW267127   7.189   1.756  10.041  1.2429  0.4722 -2.0888
85050SOL     OW67128   7.254   8.925   5.866  0.0377  0.0650  0.1712
85050SOL    HW167129   7.342   8.948   5.894 -0.0716 -0.2941  0.8479
85050SOL    HW267130   7.217   8.879   5.941 -0.3126 -0.8462 -0.5455
85051SOL     OW67131   1.581   3.192   6.120  0.1119 -0.2169 -0.0221
85051SOL    HW167132   1.490   3.186   6.091 -0.1263 -0.5284  0.7722
85051SOL    HW267133   1.628   3.128   6.066  0.1021  0.8309 -1.3165
85052SOL     OW67134   2.256   4.215   1.089  0.3455 -0.0273  0.0247
85052SOL    HW167135   2.245   4.187   0.998 -0.7032  1.1576 -0.2365
85052SOL    HW267136   2.316   4.151   1.126 -2.2040 -2.8870 -0.4152
85053SOL     OW67137   4.229   9.518   0.257 -0.1456  0.1821 -0.6177
85053SOL    HW167138   4.223   9.473   0.342 -1.2273  0.2629 -0.6415
85053SOL    HW267139   4.231   9.611   0.280  0.7469  0.1721 -0.6326
85054SOL     OW67140   1.484  13.181   8.385  0.2304  0.0320 -0.0895
85054SOL    HW167141   1.518  13.222   8.306 -2.7298  1.8810 -0.5173
85054SOL    HW267142   1.421  13.116   8.354  1.4674 -1.6523  0.7349
85055SOL     OW67143  10.044   2.717   6.925  0.8305 -0.3310 -0.1983
85055SOL    HW167144  10.071   2.630   6.956  1.3896 -0.1780 -0.2435
85055SOL    HW267145  10.006   2.759   7.002  2.6858  0.2404  0.4480
85056SOL     OW67146  13.126  11.504   5.115 -0.0736 -0.1806 -0.2777
85056SOL    HW167147  13.093  11.588   5.148  0.1121 -0.6617  1.2115
85056SOL    HW267148  13.074  11.438   5.161 -1.0435 -0.9124 -2.3098
85057SOL     OW67149  11.523   8.775   0.098 -0.0349 -0.4358  0.8311
85057SOL    HW167150  11.555   8.823   0.175 -0.1654 -1.8152  1.7934
85057SOL    HW267151  11.589   8.706   0.084  0.0331 -0.1473 -0.3701
85058SOL     OW67152   1.366   5.674   5.069  0.4216  0.0673  0.0451
85058SOL    HW167153   1.315   5.630   5.137 -1.4758  0.2536 -1.1786
85058SOL    HW267154   1.321   5.652   4.987  1.0529  1.9906 -0.8835
85059SOL     OW67155  11.198   7.130  12.417 -0.2072 -0.4114 -0.1517
85059SOL    HW167156  11.173   7.174  12.498 -1.5440 -2.8559  0.8615
85059SOL    HW267157  11.117   7.123  12.367 -0.0057 -1.5213 -0.3534
85060SOL     OW67158  13.009  13.600   6.012  0.4269  0.3583  0.1242
85060SOL    HW167159  13.005  13.668   6.079 -1.5130  0.3288  0.0952
85060SOL    HW267160  13.061  13.530   6.051  0.9841  1.1416  0.8184
85061SOL     OW67161   6.227   5.183   7.545 -0.3110 -0.1227  0.1466
85061SOL    HW167162   6.238   5.258   7.604 -0.4250 -0.0522  0.0793
85061SOL    HW267163   6.155   5.133   7.584 -1.2078  0.5517 -0.5673
85062SOL     OW67164   8.687   5.226   0.128 -0.3323  0.2264 -0.2903
85062SOL    HW167165   8.674   5.134   0.149 -0.5703  0.5574  1.1888
85062SOL    HW267166   8.610   5.270   0.166 -0.4826  0.9788 -1.4295
85063SOL     OW67167  10.400   1.775   4.202  0.6849 -0.2473  0.5685
85063SOL    HW167168  10.472   1.823   4.243  0.0624  0.0583  1.3315
85063SOL    HW267169  10.323   1.801   4.251  0.2225 -1.4858  0.5349
85064SOL     OW67170   5.199   8.998   1.986 -0.2998  0.1463 -0.8460
85064SOL    HW167171   5.256   8.933   1.945 -0.7413  0.2246 -1.6099
85064SOL    HW267172   5.134   9.018   1.919 -1.3236 -0.0598  0.0590
85065SOL     OW67173  10.831   0.890  13.111  0.1452 -0.2833 -0.4758
85065SOL    HW167174  10.860   0.813  13.160 -1.5663 -0.6045  0.1112
85065SOL    HW267175  10.783   0.854  13.036  0.2571  0.2129 -0.7909
85066SOL     OW67176  12.175   4.759   9.963  0.8214  0.1241  0.3024
85066SOL    HW167177  12.116   4.706  10.017  1.0693  0.0814  0.5347
85066SOL    HW267178  12.213   4.697   9.900 -0.7645  0.4761 -1.0720
85067SOL     OW67179   2.152   0.828   4.865 -0.2949  0.0781  0.4806
85067SOL    HW167180   2.195   0.899   4.913  1.2883  1.1944 -2.3205
85067SOL    HW267181   2.102   0.872   4.797 -0.0353 -1.4456 -0.7558
85068SOL     OW67182   8.348   5.039   3.088 -0.0769  0.5802  0.1866
85068SOL    HW167183   8.412   5.027   3.158 -0.0425  2.0497  0.4344
85068SOL    HW267184   8.280   4.975   3.106  0.8473 -0.3562  0.4598
85069SOL     OW67185   6.567   7.863  12.967 -0.2714  0.1344 -0.0951
85069SOL    HW167186   6.487   7.890  13.012 -1.4398  0.1517 -2.0634
85069SOL    HW267187   6.571   7.768  12.981 -0.8115  0.0852 -0.2527
85070SOL     OW67188  13.067   0.084   7.780  0.2172  0.5110  0.0674
85070SOL    HW167189  13.032   0.002   7.746  0.9173 -0.0825  0.7363
85070SOL    HW267190  12.994   0.146   7.774 -0.9949 -0.7098  1.4747
85071SOL     OW67191   5.730   8.598   3.032  0.0777  0.4381 -0.2377
85071SOL    HW167192   5.806   8.545   3.008 -0.5118  0.0376 -1.3199
85071SOL    HW267193   5.661   8.534   3.050 -0.5201  0.7953 -1.1237
85072SOL     OW67194   1.611   6.282   4.180  0.2028 -0.7695  0.3633
85072SOL    HW167195   1.559   6.335   4.239  0.6400 -0.3573  0.3874
85072SOL    HW267196   1.605   6.326   4.095  3.5606  1.5666  1.1087
85073SOL     OW67197   6.181   9.011  13.463  0.1769  0.3824 -0.0278
85073SOL    HW167198   6.113   8.944  13.465  0.0771  0.4707 -0.3423
85073SOL    HW267199   6.198   9.032  13.555 -0.5365  0.6815  0.0379
85074SOL     OW67200   6.508  11.473  12.412  0.2694  0.2480 -0.1256
85074SOL    HW167201   6.484  11.478  12.505  1.3391  0.5072  0.1553
85074SOL    HW267202   6.448  11.409  12.375 -0.7841  0.8238  0.5398
85075SOL     OW67203   4.675   5.529  13.908  0.4988  0.3533 -0.3634
85075SOL    HW167204   4.717   5.613  13.926 -0.8181  0.7029  1.3311
85075SOL    HW267205   4.730   5.465  13.953  0.4704  0.5522 -0.0380
85076SOL     OW67206  10.993   2.225  11.383 -0.5244  0.2149  0.2301
85076SOL    HW167207  11.063   2.282  11.352  0.3455 -0.0784  1.5523
85076SOL    HW267208  10.912   2.274  11.368  0.0350  0.9119 -0.5432
85077SOL     OW67209  13.519   3.576   3.054 -0.0527  0.5439  0.4219
85077SOL    HW167210  13.535   3.482   3.067 -1.1490  0.5149  1.9060
85077SOL    HW267211  13.591   3.605   2.998  0.4897 -1.1188  0.1918
85078SOL     OW67212   1.503   5.603  11.617 -0.7149 -0.1000  0.1372
85078SOL    HW167213   1.597   5.614  11.609 -1.0276  1.9418 -1.2328
85078SOL    HW267214   1.487   5.513  11.588  0.9176 -1.0737  1.9503
85079SOL     OW67215   6.894   4.272  10.133  0.2388 -0.5981 -0.0609
85079SOL    HW167216   6.905   4.323  10.053  0.2572  0.4489  0.5935
85079SOL    HW267217   6.981   4.267  10.172 -0.1227  0.8545  1.0325
85080SOL     OW67218   5.053  13.331   4.691  0.1691  0.4936 -0.0940
85080SOL    HW167219   5.087  13.305   4.776  0.2101  0.4957 -0.1096
85080SOL    HW267220   4.963  13.298   4.689  0.1921  0.4306 -0.0789
85081SOL     OW67221  12.013   2.541   0.809  0.8503  0.4607 -0.4140
85081SOL    HW167222  12.059   2.623   0.791 -1.1676  1.2873 -2.2962
85081SOL    HW267223  11.986   2.549   0.901  1.3248  1.5745 -0.3529
85082SOL     OW67224   2.714  13.659  10.971  0.4559  0.0915 -0.3438
85082SOL    HW167225   2.688  13.697  10.887 -0.8857  1.2034  0.5476
85082SOL    HW267226   2.695  13.726  11.036  0.5864 -1.0925  0.9812
85083SOL     OW67227   6.632   8.823   1.711 -0.1169  0.3840 -0.2553
85083SOL    HW167228   6.550   8.832   1.663  0.0345  0.1133 -0.5705
85083SOL    HW267229   6.621   8.745   1.764  0.7575 -1.0271 -2.0166
85084SOL     OW67230   6.104  11.419   4.081 -0.0043  0.4335  0.4497
85084SOL    HW167231   6.060  11.336   4.069  1.1674 -0.0739 -0.5955
85084SOL    HW267232   6.091  11.466   3.999  0.2166  0.8568  0.6496
85085SOL     OW67233  12.289   4.793  11.513  0.0883 -0.1607 -0.0675
85085SOL    HW167234  12.382   4.809  11.525 -0.1531 -0.0739  1.9664
85085SOL    HW267235  12.249   4.880  11.521 -0.3249 -0.4405  1.0904
85086SOL     OW67236  13.413   0.534   4.607 -0.2376  0.2000  0.1302
85086SOL    HW167237  13.470   0.461   4.582 -0.4963 -0.3753  1.1573
85086SOL    HW267238  13.348   0.494   4.665  0.7897  1.5889  2.3335
85087SOL     OW67239  12.274   7.539   4.666  0.9200  0.1933  0.5612
85087SOL    HW167240  12.313   7.532   4.579  1.0892  0.1088  0.6441
85087SOL    HW267241  12.187   7.576   4.650  1.5301  1.6976  0.4898
85088SOL     OW67242   0.551  13.381   3.366 -0.2021  0.1455  0.7296
85088SOL    HW167243   0.588  13.343   3.286 -0.2459  1.4678  0.0608
85088SOL    HW267244   0.544  13.475   3.348  0.8833  0.6601  2.7283
85089SOL     OW67245   2.868   2.897  11.520 -0.0747  0.3186  0.2100
85089SOL    HW167246   2.791   2.858  11.479  0.8131 -0.1505 -1.0430
85089SOL    HW267247   2.862   2.990  11.499 -0.5437  0.3721  0.5464
85090SOL     OW67248   1.024   0.256   9.458 -0.1029  0.0495 -0.0060
85090SOL    HW167249   1.013   0.170   9.497  0.6764 -1.4290 -2.7986
85090SOL    HW267250   0.998   0.245   9.367  1.6070  2.3321 -0.8844
85091SOL     OW67251  11.778   5.788   5.778  0.3111 -0.1593 -0.1564
85091SOL    HW167252  11.774   5.700   5.818  1.6208 -1.0700 -1.8909
85091SOL    HW267253  11.718   5.783   5.704 -0.9156  1.0201  0.7045
85092SOL     OW67254   8.540  13.723  10.572  0.2077  0.9856  0.0346
85092SOL    HW167255   8.609  13.783  10.601  0.5318  0.3903  0.5250
85092SOL    HW267256   8.578  13.679  10.496 -0.0610  1.4622 -0.3741
85093SOL     OW67257  13.320   8.585   3.611 -0.4763 -0.3716  0.6076
85093SOL    HW167258  13.339   8.618   3.523 -0.8098 -1.3737  0.1433
85093SOL    HW267259  13.374   8.506   3.619  0.0274  0.0532  1.5508
85094SOL     OW67260   5.647   6.659   5.605 -0.1913 -0.2726  0.6529
85094SOL    HW167261   5.653   6.754   5.614  3.0347 -0.5028  2.2131
85094SOL    HW267262   5.656   6.643   5.511  0.2880  0.9109  0.4823
85095SOL     OW67263   2.893  11.154   3.727  0.3235 -0.3164 -0.1010
85095SOL    HW167264   2.952  11.155   3.652 -1.2746 -1.2228 -1.4364
85095SOL    HW267265   2.823  11.095   3.701 -1.9882  1.8797  0.7840
85096SOL     OW67266   3.056   9.069   4.935  0.6262 -0.8042  0.4459
85096SOL    HW167267   3.148   9.069   4.963  2.0948  3.1642 -3.1778
85096SOL    HW267268   3.017   9.144   4.979 -1.0039 -2.4014  1.8821
85097SOL     OW67269   8.313   1.638  10.875 -0.2976 -0.1147 -0.4928
85097SOL    HW167270   8.388   1.685  10.840 -1.4297  0.9138 -1.6443
85097SOL    HW267271   8.275   1.594  10.799  0.6307 -2.8703  0.5091
85098SOL     OW67272   2.897   8.298   7.286  0.1500  0.1818 -0.3465
85098SOL    HW167273   2.927   8.208   7.276 -0.0211 -0.0078  0.7153
85098SOL    HW267274   2.861   8.302   7.375  0.9387  1.5099 -0.0574
85099SOL     OW67275   8.565   2.181  11.070  0.8432 -0.1774  0.1383
85099SOL    HW167276   8.527   2.267  11.084 -0.7831 -0.7357 -0.6067
85099SOL    HW267277   8.503   2.120  11.111  0.3146 -1.1931 -1.9999
85100SOL     OW67278  10.263   7.748   6.974 -0.0809 -1.2721  0.0513
85100SOL    HW167279  10.248   7.822   6.915 -0.1836 -0.9658  0.4578
85100SOL    HW267280  10.178   7.733   7.015 -0.4484 -2.5789 -1.1130
85101SOL     OW67281   6.910  10.786   6.599 -0.3918 -0.8465  0.0215
85101SOL    HW167282   6.927  10.814   6.509 -1.6591 -1.1593 -0.3282
85101SOL    HW267283   6.859  10.856   6.638  0.6185 -0.4587  0.6915
85102SOL     OW67284   8.500   4.235   7.324  0.0806  0.3870  0.3575
85102SOL    HW167285   8.576   4.285   7.352  1.3144 -1.0053 -0.3807
85102SOL    HW267286   8.526   4.143   7.333 -1.6825 -0.1463  0.5214
85103SOL     OW67287   3.112   1.308  10.551  0.1137 -0.5319 -0.2709
85103SOL    HW167288   3.109   1.263  10.636 -0.4888  2.4957  1.4599
85103SOL    HW267289   3.021   1.314  10.524  0.2173 -0.5754 -0.6320
85104SOL     OW67290  10.261   7.103  13.903 -0.1055 -0.6908 -0.0958
85104SOL    HW167291  10.256   7.180  13.960  0.1439 -0.6276 -0.1587
85104SOL    HW267292  10.273   7.139  13.815  0.5065 -0.8078 -0.0674
85105SOL     OW67293   7.849   6.718  12.467 -0.4772 -0.0219 -0.1032
85105SOL    HW167294   7.924   6.753  12.418 -1.0881  0.6079 -0.5968
85105SOL    HW267295   7.880   6.714  12.557 -0.1120  1.0139 -0.1661
85106SOL     OW67296  13.834   0.799  11.335 -0.4825 -0.1702  0.3140
85106SOL    HW167297  13.844   0.842  11.419  1.1988 -0.0578  0.0951
85106SOL    HW267298  13.884   0.718  11.344  0.3419  0.1926 -0.7894
85107SOL     OW67299   6.502   3.503   3.898  0.4040  0.1852 -0.2516
85107SOL    HW167300   6.443   3.578   3.890  1.9160  1.5007  0.3623
85107SOL    HW267301   6.493   3.475   3.989  0.7434  0.4044 -0.1502
85108SOL     OW67302   9.162   7.799   2.747  0.2187 -0.4488 -0.1102
85108SOL    HW167303   9.222   7.777   2.819  1.2566 -0.0261 -0.8207
85108SOL    HW267304   9.203   7.760   2.669 -0.1924  0.2472 -0.6833
85109SOL     OW67305   3.872  12.938   6.200  0.2003  0.1471 -0.3530
85109SOL    HW167306   3.794  12.927   6.146  0.1597  0.8814 -0.4520
85109SOL    HW267307   3.841  12.984   6.278  0.2744 -0.8363  0.2686
85110SOL     OW67308  12.728   7.018  13.887 -0.0052  0.2357  0.3976
85110SOL    HW167309  12.797   6.965  13.927 -2.1626 -2.1102  1.2197
85110SOL    HW267310  12.764   7.043  13.802  2.0417 -0.4137  1.0116
85111SOL     OW67311   1.246  13.527   6.949 -0.2992 -0.2484  0.2131
85111SOL    HW167312   1.297  13.446   6.945 -0.0652 -0.1294  0.7264
85111SOL    HW267313   1.302  13.589   6.996 -1.0155 -0.1940  1.0265
85112SOL     OW67314   5.274   4.100   6.285 -0.3493  0.6525 -0.0768
85112SOL    HW167315   5.204   4.061   6.338 -1.1824  0.3305 -1.3747
85112SOL    HW267316   5.229   4.132   6.207  0.8591  1.1338 -0.5865
85113SOL     OW67317   8.722   8.514   1.197  0.4688 -0.7366  0.2698
85113SOL    HW167318   8.701   8.476   1.282 -2.2557 -1.0253 -0.4506
85113SOL    HW267319   8.726   8.439   1.137  1.2662 -0.4339 -0.0747
85114SOL     OW67320   9.284   5.078  10.198 -0.4980  0.8106 -0.5822
85114SOL    HW167321   9.370   5.057  10.161 -0.2514  0.7646  0.0023
85114SOL    HW267322   9.298   5.160  10.247 -0.3484 -0.0815  0.9526
85115SOL     OW67323   9.575   4.957  13.506 -0.2057  0.1457 -0.2399
85115SOL    HW167324   9.608   4.867  13.505  0.5760  0.3178 -3.4185
85115SOL    HW267325   9.480   4.948  13.500 -0.0758 -0.5804 -1.9823
85116SOL     OW67326   7.935   3.465   0.628  0.5853 -0.5725  0.2486
85116SOL    HW167327   7.843   3.439   0.629  0.5088 -0.3296 -0.0802
85116SOL    HW267328   7.933   3.561   0.632  0.8177 -0.5585  0.0816
85117SOL     OW67329   2.732   5.814   4.270 -0.1897 -0.4696 -0.4650
85117SOL    HW167330   2.663   5.825   4.205  1.1218 -0.9985 -2.0168
85117SOL    HW267331   2.731   5.896   4.320 -1.4805 -0.2052 -0.8906
85118SOL     OW67332   0.804  11.800   9.756  0.2256  0.0322 -0.0288
85118SOL    HW167333   0.819  11.768   9.667 -2.3169  0.7357 -0.7853
85118SOL    HW267334   0.843  11.887   9.758  2.3582 -0.8683  0.3467
85119SOL     OW67335   5.949   7.038  11.620 -0.0839  0.0849 -0.5783
85119SOL    HW167336   6.031   7.015  11.576 -0.1262 -0.3413 -0.4360
85119SOL    HW267337   5.976   7.093  11.693  0.2102 -1.1460  0.2721
85120SOL     OW67338   1.119   6.148  12.593 -0.1625 -0.0341 -0.1696
85120SOL    HW167339   1.148   6.181  12.508  0.6068 -2.3578 -0.8724
85120SOL    HW267340   1.024   6.139  12.584 -0.1461  0.1959 -0.5943
85121SOL     OW67341  11.985   2.274   4.271  0.2754  0.4029 -0.0176
85121SOL    HW167342  11.940   2.218   4.335 -0.7931 -0.1989 -1.2405
85121SOL    HW267343  12.069   2.231   4.257 -0.0411 -0.2264 -0.0301
85122SOL     OW67344   4.068   2.044   4.181 -0.2615  0.3901 -0.1490
85122SOL    HW167345   4.008   2.012   4.114 -0.2943  0.5798 -0.2097
85122SOL    HW267346   4.151   1.999   4.162 -0.2196  0.5798 -0.4290
85123SOL     OW67347   2.247  12.219   6.805 -0.0588  0.7764  0.0486
85123SOL    HW167348   2.310  12.287   6.828  0.6452  0.7906 -1.8304
85123SOL    HW267349   2.281  12.139   6.845  0.9172  0.8733 -0.5816
85124SOL     OW67350   7.927   7.689   4.286 -0.8730  0.0514  0.2284
85124SOL    HW167351   7.940   7.597   4.309 -0.4000 -0.3699 -1.5164
85124SOL    HW267352   7.969   7.738   4.356  0.8158 -1.1152  0.1005
85125SOL     OW67353  12.537   2.052  12.060 -0.1078  0.0990 -0.0171
85125SOL    HW167354  12.534   2.052  11.964  0.9608 -2.0975 -0.1013
85125SOL    HW267355  12.587   2.131  12.082  3.1807 -1.3775 -1.5076
85126SOL     OW67356   0.381   8.618  10.911 -0.3527 -0.2230 -0.0430
85126SOL    HW167357   0.313   8.662  10.962  0.6003  1.1220  0.1442
85126SOL    HW267358   0.406   8.543  10.964  0.0728  0.7133  1.1292
85127SOL     OW67359  12.592   5.173   1.701  0.3953 -0.0681 -0.2683
85127SOL    HW167360  12.656   5.239   1.673  0.5098  0.5369  1.3058
85127SOL    HW267361  12.613   5.158   1.793 -3.1143  1.8293  1.0123
85128SOL     OW67362   3.716   2.796   1.429 -0.0711 -0.2941  0.1160
85128SOL    HW167363   3.682   2.739   1.498 -0.5153  1.0814  1.0624
85128SOL    HW267364   3.703   2.745   1.349  1.3081 -2.3166  1.0754
85129SOL     OW67365   6.661   0.292   6.684 -0.2369 -0.1503 -0.1633
85129SOL    HW167366   6.675   0.373   6.734 -1.9930 -0.5226  1.0176
85129SOL    HW267367   6.678   0.317   6.593  1.1921  1.0272  0.3846
85130SOL     OW67368  11.498   3.526  12.238  0.6914 -0.0309  0.5539
85130SOL    HW167369  11.484   3.508  12.331 -0.2870 -0.2923  0.3627
85130SOL    HW267370  11.436   3.596  12.217  0.5325 -0.3320 -0.0140
85131SOL     OW67371   9.717   4.469   6.507  0.3519 -0.1421 -0.1773
85131SOL    HW167372   9.795   4.421   6.482 -0.5946 -2.7462  1.4694
85131SOL    HW267373   9.669   4.481   6.425  1.9866  0.6542 -1.0552
85132SOL     OW67374  11.636   0.035   2.473  0.3484 -0.1911  0.0373
85132SOL    HW167375  11.675  -0.045   2.438  0.0691  0.1227 -1.0009
85132SOL    HW267376  11.573   0.004   2.538  0.5088 -0.7990 -0.0880
85133SOL     OW67377   8.886  13.142   2.507  0.3407 -0.7350 -0.2875
85133SOL    HW167378   8.898  13.204   2.435  0.0904 -1.5890 -1.0795
85133SOL    HW267379   8.850  13.064   2.466 -1.6415 -0.5954  1.0281
85134SOL     OW67380   2.206   5.560   2.581 -0.1702 -0.2247 -0.3900
85134SOL    HW167381   2.277   5.539   2.521 -0.2990 -0.9158 -0.3072
85134SOL    HW267382   2.132   5.581   2.525 -0.8781 -2.8004 -0.5356
85135SOL     OW67383   9.255   5.945   1.517 -0.7302 -0.0377  0.0173
85135SOL    HW167384   9.300   5.938   1.602  0.9009  2.1706 -0.5767
85135SOL    HW267385   9.173   5.898   1.530  0.0360 -0.8743  2.4072
85136SOL     OW67386   0.438   7.979   5.110  0.1056 -0.3761  0.4336
85136SOL    HW167387   0.472   7.901   5.155  1.4753 -0.7119 -1.0875
85136SOL    HW267388   0.343   7.973   5.120  0.1153 -2.7084 -0.3482
85137SOL     OW67389   9.076  13.155   9.052 -0.2272  0.2298  0.1900
85137SOL    HW167390   9.092  13.070   9.091 -2.5569 -0.4804 -0.2090
85137SOL    HW267391   9.034  13.206   9.122  1.8917  1.3824  0.6865
85138SOL     OW67392   1.325   5.312   5.398 -0.2950  0.1006 -0.0244
85138SOL    HW167393   1.336   5.307   5.493 -0.4332 -0.0473 -0.0158
85138SOL    HW267394   1.290   5.227   5.374  1.3673 -0.5043 -0.4296
85139SOL     OW67395   5.825   9.765   1.633  0.6942 -0.4089  0.5751
85139SOL    HW167396   5.882   9.694   1.603  1.0879  0.5585 -1.0686
85139SOL    HW267397   5.881   9.819   1.689  0.4620 -1.2103  1.6240
85140SOL     OW67398   6.822   0.273  11.303  0.4267  0.1308 -0.0519
85140SOL    HW167399   6.902   0.323  11.320  1.5458 -1.1913 -1.2872
85140SOL    HW267400   6.829   0.196  11.359  0.6778 -0.6687 -1.1784
85141SOL     OW67401   9.378  11.466   9.443 -0.0027 -0.1414  0.2388
85141SOL    HW167402   9.417  11.539   9.394  0.3138  0.4456  1.3090
85141SOL    HW267403   9.284  11.476   9.430  0.1167 -2.3050 -3.4044
85142SOL     OW67404  13.709   9.976   2.641  0.2605 -0.1350  0.1619
85142SOL    HW167405  13.661  10.038   2.587  0.5767 -2.3096 -2.8060
85142SOL    HW267406  13.801   9.989   2.617  0.5324 -0.4626  0.9719
85143SOL     OW67407  12.487   3.906   6.944  0.0691  0.4264  0.4089
85143SOL    HW167408  12.434   3.828   6.958  1.8400 -1.0322 -0.6978
85143SOL    HW267409  12.578   3.876   6.947  0.9840  2.9448  2.9618
85144SOL     OW67410   1.193   6.671   3.881 -0.2871 -0.0229  0.4781
85144SOL    HW167411   1.270   6.699   3.831 -0.6729 -1.5263 -1.0442
85144SOL    HW267412   1.127   6.739   3.864  0.2034  0.4736  0.5373
85145SOL     OW67413   5.234   5.442  11.483  0.2627 -0.2506 -0.1257
85145SOL    HW167414   5.208   5.517  11.536  1.0126  0.7316 -1.1072
85145SOL    HW267415   5.321   5.419  11.515  0.5109  0.0344 -0.5841
85146SOL     OW67416  10.309  10.763   6.354 -0.0321  0.0296  0.2052
85146SOL    HW167417  10.230  10.817   6.359 -0.4323 -0.4570 -0.6266
85146SOL    HW267418  10.282  10.685   6.305  0.3520 -1.2881  1.9909
85147SOL     OW67419  13.617  12.666   7.809  0.4089  0.0923 -0.1218
85147SOL    HW167420  13.647  12.751   7.841  0.8921  0.5275 -1.6263
85147SOL    HW267421  13.586  12.620   7.887  0.6312  1.4415  0.7944
85148SOL     OW67422   8.443   7.593  11.496 -0.6215  0.0455  0.0839
85148SOL    HW167423   8.350   7.610  11.510 -0.4208  0.9983  0.3249
85148SOL    HW267424   8.459   7.511  11.542 -1.2130  0.2000  0.5848
85149SOL     OW67425   2.851   0.722   7.121 -0.2720  0.1462  0.1472
85149SOL    HW167426   2.815   0.792   7.067 -0.4881  1.1802  1.5580
85149SOL    HW267427   2.784   0.706   7.188  1.4058  1.5329  2.3278
85150SOL     OW67428  12.590   9.353   0.710  0.4701  0.1709  0.2132
85150SOL    HW167429  12.676   9.313   0.716 -0.6775 -2.9409 -1.6525
85150SOL    HW267430  12.533   9.295   0.761 -0.8344  1.1302 -0.0971
85151SOL     OW67431   9.596   6.510   1.832 -0.1936 -0.6196  0.0688
85151SOL    HW167432   9.647   6.507   1.752 -0.3415 -2.3421  0.0099
85151SOL    HW267433   9.591   6.419   1.861 -1.5211 -0.2322  1.1539
85152SOL     OW67434  11.631   8.175   1.974 -0.0805 -0.2125  0.5726
85152SOL    HW167435  11.550   8.224   1.983 -0.2757 -0.2319 -0.8828
85152SOL    HW267436  11.700   8.242   1.971 -0.3130  0.0081 -1.0020
85153SOL     OW67437  11.749   6.318   2.889 -0.1060 -0.2113 -0.5658
85153SOL    HW167438  11.813   6.350   2.952  0.8876  2.2500 -2.6201
85153SOL    HW267439  11.687   6.266   2.940  0.6525  1.5814  2.3807
85154SOL     OW67440   3.427  13.269   9.008 -0.1488 -0.1729  0.5263
85154SOL    HW167441   3.408  13.355   8.970  1.1648 -0.0005  0.2003
85154SOL    HW267442   3.429  13.284   9.102 -0.7238 -0.0250  0.5193
85155SOL     OW67443   4.443   8.977  12.781 -0.6284 -0.2466  0.3752
85155SOL    HW167444   4.482   9.042  12.839 -0.7278 -0.1418  0.3237
85155SOL    HW267445   4.515   8.948  12.726 -0.7942  0.5428 -0.2761
85156SOL     OW67446   2.124   6.756  12.354  0.3100 -0.1511  0.3640
85156SOL    HW167447   2.213   6.744  12.322  0.0370 -0.9063 -0.1500
85156SOL    HW267448   2.101   6.671  12.394  0.2414  0.4160  1.5783
85157SOL     OW67449   2.135  11.009  13.946 -0.1207 -0.3252  0.0778
85157SOL    HW167450   2.200  10.983  14.011 -1.2304 -0.8425  1.0258
85157SOL    HW267451   2.062  11.043  13.998  0.3779  2.7509 -1.0195
85158SOL     OW67452   8.555  13.962   4.020  0.6519  1.4635 -0.0695
85158SOL    HW167453   8.461  13.953   4.037  0.6607 -0.3756 -0.7522
85158SOL    HW267454   8.593  13.989   4.104 -0.0967 -1.0684  1.1820
85159SOL     OW67455   4.267   1.601   5.362  0.2682  0.2961 -0.8411
85159SOL    HW167456   4.283   1.506   5.355 -0.3444  0.1593 -0.4935
85159SOL    HW267457   4.330   1.631   5.428 -2.1888 -0.6229  2.1840
85160SOL     OW67458   3.426   2.062   2.905  0.0058  0.3168  0.3087
85160SOL    HW167459   3.338   2.080   2.940  0.5327  2.5833  0.5896
85160SOL    HW267460   3.473   2.022   2.978 -0.5153 -0.1283  0.4159
85161SOL     OW67461   3.351   7.863  11.594 -0.2657 -0.0105  0.6273
85161SOL    HW167462   3.347   7.816  11.677 -0.4473 -0.1571  0.5376
85161SOL    HW267463   3.314   7.802  11.530 -0.2698  0.1596  0.4656
85162SOL     OW67464   6.777   1.808   0.109  0.1867 -0.3783 -0.3008
85162SOL    HW167465   6.763   1.808   0.204  1.3813 -0.5344 -0.1113
85162SOL    HW267466   6.781   1.715   0.086 -1.7132 -0.3785 -0.7805
85163SOL     OW67467   3.688   1.523   5.676  0.1104 -1.0478  0.4804
85163SOL    HW167468   3.638   1.462   5.621 -0.8850 -0.0769  0.2890
85163SOL    HW267469   3.715   1.593   5.616  1.3576 -1.3425  0.6743
85164SOL     OW67470   8.001   5.172  10.150  0.1468 -0.2491 -0.4257
85164SOL    HW167471   8.034   5.126  10.227  0.4514 -0.3998 -0.6493
85164SOL    HW267472   7.905   5.163  10.157  0.0639  1.2605  0.8868
85165SOL     OW67473  12.149   3.944   4.315 -0.0468 -0.2329  0.3769
85165SOL    HW167474  12.221   3.881   4.318  0.9355  0.8478  0.1734
85165SOL    HW267475  12.159   3.988   4.230  0.4327  1.4850  1.2774
85166SOL     OW67476   9.371   4.442   2.579 -0.5152 -0.2263 -0.2822
85166SOL    HW167477   9.381   4.348   2.563 -0.3501 -0.2929  0.1934
85166SOL    HW267478   9.420   4.457   2.660 -1.4082  0.0772  0.2109
85167SOL     OW67479   0.946   3.794   1.551 -0.9502  0.5051 -0.3923
85167SOL    HW167480   0.928   3.726   1.486  0.2809  1.4678 -1.8146
85167SOL    HW267481   1.041   3.790   1.565 -1.0543  1.0043  0.5739
85168SOL     OW67482   0.529  10.728  12.575  0.0890  0.0525  0.0132
85168SOL    HW167483   0.605  10.746  12.629  1.4924 -0.9659 -1.5278
85168SOL    HW267484   0.556  10.749  12.486 -1.4446 -0.2913 -0.5801
85169SOL     OW67485  10.225   2.802  13.192 -0.8571 -0.0313 -0.3868
85169SOL    HW167486  10.154   2.737  13.195  0.2196 -1.2280  0.5221
85169SOL    HW267487  10.183   2.885  13.213 -2.1933 -0.5103 -1.0521
85170SOL     OW67488  12.229  10.539   2.020 -0.0274 -0.2280  0.2850
85170SOL    HW167489  12.191  10.540   1.933 -1.9275  0.4003  1.0745
85170SOL    HW267490  12.259  10.629   2.034 -0.3385 -0.1627  0.5344
85171SOL     OW67491  10.322  11.944  10.127 -0.6859  0.0762 -0.1583
85171SOL    HW167492  10.332  11.849  10.121  0.0771  0.1374  0.0079
85171SOL    HW267493  10.263  11.967  10.055 -0.0756 -0.4204 -0.8385
85172SOL     OW67494   9.826   8.719   7.786  0.3558 -0.1750  0.3376
85172SOL    HW167495   9.745   8.672   7.763  0.4689  0.2982 -1.1489
85172SOL    HW267496   9.800   8.781   7.854 -0.3480 -0.6038  0.4671
85173SOL     OW67497   4.265  12.287   0.475  0.4964  0.0033  0.5003
85173SOL    HW167498   4.343  12.248   0.435  0.8002  0.2351  0.8549
85173SOL    HW267499   4.300  12.351   0.537  0.0105  0.8442 -0.0719
85174SOL     OW67500  11.206   0.722  11.199  0.4177 -0.2206  0.3138
85174SOL    HW167501  11.292   0.693  11.228 -0.3981 -1.9415  1.1671
85174SOL    HW267502  11.220   0.811  11.166  2.3878 -0.2458  0.9683
85175SOL     OW67503   3.517   7.132   2.491  0.5472  0.1689 -0.0994
85175SOL    HW167504   3.539   7.175   2.409 -0.8042  0.8351 -0.1360
85175SOL    HW267505   3.526   7.039   2.472  1.1635  0.3489 -0.7260
85176SOL     OW67506   5.442  12.999   7.069 -0.1962  0.1347  0.5861
85176SOL    HW167507   5.418  13.031   7.156 -1.3410  1.8107 -0.2668
85176SOL    HW267508   5.429  13.075   7.012  1.2335 -0.7028 -0.9536
85177SOL     OW67509   8.263   5.548  12.734 -0.2102  0.2500 -0.4127
85177SOL    HW167510   8.322   5.582  12.802 -2.5442  1.8795  0.9367
85177SOL    HW267511   8.273   5.609  12.661  0.0117  0.3396 -0.3077
85178SOL     OW67512   9.007   7.000  11.341  0.1035  0.5512  0.5578
85178SOL    HW167513   9.085   7.032  11.297  0.3783  1.1361  1.4346
85178SOL    HW267514   9.035   6.983  11.431 -0.7684  0.7606  0.8829
85179SOL     OW67515   3.717   8.198  12.650 -0.4599  0.1565 -0.4063
85179SOL    HW167516   3.665   8.179  12.728  0.1662 -1.6861 -0.3863
85179SOL    HW267517   3.677   8.277  12.613 -1.1489  0.7296  1.4299
85180SOL     OW67518   7.640   7.670   1.020  0.2777 -0.5585 -0.3004
85180SOL    HW167519   7.649   7.754   0.975 -0.6963 -0.0865  0.3683
85180SOL    HW267520   7.615   7.608   0.951 -0.2372 -0.0468 -0.5709
85181SOL     OW67521  11.660   7.157   0.695  0.2083 -0.2491 -0.7435
85181SOL    HW167522  11.646   7.063   0.691  2.0310 -0.6511  0.9541
85181SOL    HW267523  11.603   7.187   0.766  0.0086 -0.1406 -0.9474
85182SOL     OW67524   2.447  10.610  13.234 -0.6487 -0.3170 -0.1798
85182SOL    HW167525   2.358  10.645  13.226 -0.1476  1.1420  0.3356
85182SOL    HW267526   2.484  10.655  13.310  1.2400  0.7625 -1.6491
85183SOL     OW67527  12.128   4.671   7.123  0.1748  0.2642  0.1866
85183SOL    HW167528  12.102   4.753   7.082  1.1906  0.4775 -0.0744
85183SOL    HW267529  12.093   4.603   7.065  0.3589  0.5395 -0.2529
85184SOL     OW67530  14.026   0.607  10.534  0.0652  0.1346 -0.7488
85184SOL    HW167531  13.982   0.670  10.477  0.8475  0.8437 -0.5739
85184SOL    HW267532  14.028   0.648  10.620 -1.9016 -1.2878  0.0629
85185SOL     OW67533  10.133  13.443   6.363  0.5708  0.3865 -0.1410
85185SOL    HW167534  10.074  13.386   6.315  1.1792  0.0225 -0.4745
85185SOL    HW267535  10.184  13.384   6.419  0.7756  0.6645 -0.0304
85186SOL     OW67536  11.272   1.458   6.157 -0.5511 -0.2945 -0.1287
85186SOL    HW167537  11.213   1.522   6.118 -0.5094  0.7303  1.3761
85186SOL    HW267538  11.340   1.445   6.091 -1.3918  0.0204 -1.0855
85187SOL     OW67539   7.258   1.759   5.620  0.2145  0.4913 -0.5364
85187SOL    HW167540   7.280   1.740   5.528 -0.6025  0.1219 -0.6604
85187SOL    HW267541   7.216   1.679   5.651 -0.9333  1.1746 -0.2947
85188SOL     OW67542  11.462   9.738   8.166 -0.8097  0.5283  0.1975
85188SOL    HW167543  11.543   9.789   8.177  0.2511 -0.9627 -0.3400
85188SOL    HW267544  11.479   9.657   8.214 -1.2817 -0.5257 -1.3439
85189SOL     OW67545   4.543  12.678  10.914 -0.3206  0.4273 -0.7252
85189SOL    HW167546   4.467  12.620  10.906 -1.1543  1.1079  1.4642
85189SOL    HW267547   4.618  12.619  10.922 -1.1316 -0.4108  1.2945
85190SOL     OW67548   0.189   4.688   4.313  0.3873  0.1381 -0.7348
85190SOL    HW167549   0.181   4.615   4.375 -0.1233  0.8601  0.0658
85190SOL    HW267550   0.275   4.675   4.273  1.4239  0.4876  1.2463
85191SOL     OW67551  12.928  11.778   9.849  0.3262 -0.1855  0.7194
85191SOL    HW167552  12.861  11.782   9.781  0.1345 -0.5592  0.8834
85191SOL    HW267553  12.888  11.727   9.919  0.2926  0.7236  1.3754
85192SOL     OW67554  13.864   4.019  13.067 -0.3134 -0.1113 -0.4033
85192SOL    HW167555  13.777   4.060  13.062 -0.6658 -0.8316 -0.4250
85192SOL    HW267556  13.912   4.054  12.992 -0.2455  1.0415  0.1658
85193SOL     OW67557   7.941   4.551   0.758 -0.5674  0.1328  0.0043
85193SOL    HW167558   8.015   4.550   0.698 -0.0565  0.2491  0.6235
85193SOL    HW267559   7.980   4.541   0.845 -1.0910  1.9064  0.5023
85194SOL     OW67560   0.717   8.253   5.277 -0.4213 -0.1105 -0.0429
85194SOL    HW167561   0.627   8.228   5.261  0.1813 -2.1636 -0.5154
85194SOL    HW267562   0.751   8.276   5.191 -0.0697 -0.9467 -0.1414
85195SOL     OW67563   3.977  12.577   1.673  0.0039 -0.1666  0.6597
85195SOL    HW167564   3.974  12.612   1.584  1.7697 -0.2565  0.5451
85195SOL    HW267565   3.995  12.484   1.661  1.4741  0.0396  1.1164
85196SOL     OW67566   5.548   3.830   9.909  0.6819  0.2003  0.6277
85196SOL    HW167567   5.624   3.843   9.852  1.1731  0.6064  1.3685
85196SOL    HW267568   5.580   3.774   9.979 -0.2406 -1.3220 -0.1083
85197SOL     OW67569   2.123   3.151   7.770  0.4645  0.2005  0.4188
85197SOL    HW167570   2.192   3.089   7.749  1.2857  0.9620  0.8128
85197SOL    HW267571   2.042   3.099   7.769  1.1986 -0.9960  1.3507
85198SOL     OW67572   3.302  12.222  10.254 -0.0950 -0.4635  0.1524
85198SOL    HW167573   3.254  12.256  10.179  0.7853  0.4742 -0.0022
85198SOL    HW267574   3.315  12.299  10.311  1.2743 -0.6798  0.1518
85199SOL     OW67575  10.261  10.566   5.588 -0.3515  0.2004 -0.7281
85199SOL    HW167576  10.191  10.609   5.538  0.7687  1.1691 -1.5399
85199SOL    HW267577  10.308  10.514   5.524 -0.1692 -0.2316 -0.2474
85200SOL     OW67578   9.810   8.144   9.964  0.6529 -0.7148 -0.1417
85200SOL    HW167579   9.730   8.091   9.969  0.3437 -0.1998  0.4951
85200SOL    HW267580   9.881   8.080   9.972  0.2920 -1.0726  0.2835
85201SOL     OW67581   5.547  13.571   3.640 -0.2136 -0.4364 -0.2325
85201SOL    HW167582   5.582  13.513   3.707  0.7074 -0.1329 -0.4342
85201SOL    HW267583   5.623  13.593   3.585 -0.5514  0.9096 -0.1960
85202SOL     OW67584   0.812   9.008  10.047 -0.1346  0.2575 -0.2462
85202SOL    HW167585   0.799   9.062   9.969 -0.7137 -0.3405 -0.5751
85202SOL    HW267586   0.770   8.924  10.025  0.7645 -0.3420  0.2288
85203SOL     OW67587   1.245  10.978   8.065 -0.6783  0.3326 -0.7405
85203SOL    HW167588   1.258  11.071   8.083 -1.4402  0.2840  0.1432
85203SOL    HW267589   1.331  10.938   8.078 -1.0271  0.3625  2.6186
85204SOL     OW67590   8.398   2.904   0.307 -0.0261 -0.7795  0.2570
85204SOL    HW167591   8.486   2.920   0.274  0.4737 -1.9029  0.9694
85204SOL    HW267592   8.340   2.933   0.237  0.8841  0.4419 -0.0206
85205SOL     OW67593   5.719  12.909   2.820 -0.0369  0.4857 -0.4410
85205SOL    HW167594   5.681  12.851   2.885 -1.3845  1.7415 -0.0485
85205SOL    HW267595   5.806  12.872   2.802 -0.7435 -1.4786 -0.0567
85206SOL     OW67596   2.871   4.910   1.383  0.7720  0.2588  0.2617
85206SOL    HW167597   2.920   4.952   1.312  0.5644  1.3499  0.7381
85206SOL    HW267598   2.779   4.918   1.357  0.7622 -0.7426 -0.0718
85207SOL     OW67599   0.276   2.815  12.705  0.4238 -0.1776  0.1265
85207SOL    HW167600   0.363   2.853  12.713 -0.3543  1.5658  0.8953
85207SOL    HW267601   0.240   2.854  12.625 -0.0283 -0.0503  0.3882
85208SOL     OW67602  10.080   8.321   0.264  0.2916  0.5735 -0.4505
85208SOL    HW167603  10.011   8.336   0.199 -0.3137  0.2652  0.1111
85208SOL    HW267604  10.156   8.298   0.212 -0.3942 -0.4708 -1.0337
85209SOL     OW67605   7.935   3.752   1.594 -0.4775  0.7661  0.0624
85209SOL    HW167606   7.965   3.696   1.666 -0.5178 -0.8993 -1.1394
85209SOL    HW267607   7.862   3.703   1.555 -1.3000  2.2532 -0.3224
85210SOL     OW67608   7.514   4.186   8.457  0.2924 -0.1561  0.0291
85210SOL    HW167609   7.551   4.098   8.458  0.9208  0.0767 -1.0264
85210SOL    HW267610   7.579   4.238   8.409 -0.4508  0.7038 -0.0575
85211SOL     OW67611  12.939   6.320  13.931  0.2868 -0.3786 -0.0934
85211SOL    HW167612  12.859   6.273  13.953  0.9845 -2.4678 -1.7491
85211SOL    HW267613  13.010   6.258  13.951  1.6184  1.6013  1.8845
85212SOL     OW67614   8.142  11.223  13.716 -0.1831 -0.0491 -0.4456
85212SOL    HW167615   8.154  11.283  13.789 -0.4825  0.7389 -1.0346
85212SOL    HW267616   8.226  11.225  13.669 -0.2338  0.0017 -0.5343
85213SOL     OW67617  12.403   8.951   3.798 -0.3028 -0.5943 -0.2251
85213SOL    HW167618  12.429   9.006   3.873  1.2422 -1.3700 -0.1505
85213SOL    HW267619  12.352   9.009   3.742 -0.0551  0.4697  0.6201
85214SOL     OW67620   9.816   9.890   8.019 -0.7323 -0.7591 -0.7634
85214SOL    HW167621   9.874   9.914   8.092 -0.2025 -1.5321 -0.9112
85214SOL    HW267622   9.828   9.795   8.010 -2.5771 -1.0698 -0.3332
85215SOL     OW67623   7.025   1.292   4.981  0.4072  0.3670  0.1089
85215SOL    HW167624   6.988   1.368   4.936 -0.5233  0.8194  1.5736
85215SOL    HW267625   7.100   1.327   5.029  0.5420  0.1675  0.0462
85216SOL     OW67626   8.308   5.412  11.247  0.0699 -0.6614 -0.4686
85216SOL    HW167627   8.397   5.412  11.210  0.0674 -0.1477 -0.4796
85216SOL    HW267628   8.301   5.328  11.291 -0.1141 -1.5520 -2.1085
85217SOL     OW67629  10.429  11.324   2.414 -0.2906  0.3746 -0.3232
85217SOL    HW167630  10.461  11.380   2.343 -1.6535 -0.4028 -1.5978
85217SOL    HW267631  10.507  11.304   2.466  1.1930 -0.8178 -2.8333
85218SOL     OW67632   8.810  12.338   6.496 -0.5136 -0.1545  0.3194
85218SOL    HW167633   8.762  12.328   6.579  0.5285  1.1103  1.1212
85218SOL    HW267634   8.900  12.315   6.518 -0.2054  0.3187 -0.4321
85219SOL     OW67635  12.829   0.683   7.025 -0.3917 -0.0999  0.0788
85219SOL    HW167636  12.852   0.775   7.012 -0.4491  0.1383  1.4854
85219SOL    HW267637  12.827   0.672   7.120 -0.4826 -1.5367 -0.0652
85220SOL     OW67638   6.672  12.844  12.860 -0.0987 -0.2346 -0.1132
85220SOL    HW167639   6.664  12.774  12.925 -1.0263  1.0732  1.2503
85220SOL    HW267640   6.766  12.856  12.848  0.0798 -0.8244  0.6210
85221SOL     OW67641   5.659   0.397   1.847  0.4922  0.3829  0.5561
85221SOL    HW167642   5.646   0.338   1.772  3.3193  0.1645  0.1587
85221SOL    HW267643   5.581   0.383   1.901 -0.7859 -0.7816 -1.4442
85222SOL     OW67644   9.770   8.665   9.299  0.6025 -0.6897  0.7555
85222SOL    HW167645   9.683   8.704   9.309  1.0794  0.5679  0.2327
85222SOL    HW267646   9.788   8.624   9.383  0.1618  0.4321  1.4139
85223SOL     OW67647   5.137   6.808   5.012 -0.2553 -0.2925  0.7784
85223SOL    HW167648   5.072   6.765   4.957 -0.5450  1.7171 -0.5581
85223SOL    HW267649   5.085   6.859   5.074 -0.0515  1.7616 -0.6461
85224SOL     OW67650   1.749   0.717  13.810  0.2744 -0.1945 -0.7769
85224SOL    HW167651   1.751   0.786  13.876  1.4757 -0.6266 -0.3254
85224SOL    HW267652   1.779   0.759  13.729  1.6872 -0.3198 -0.3421
85225SOL     OW67653   2.408  11.697   9.690  0.5253 -0.6494  0.3109
85225SOL    HW167654   2.441  11.626   9.637 -0.3560  1.0688 -2.7667
85225SOL    HW267655   2.413  11.774   9.634  0.4246  1.5662  3.0769
85226SOL     OW67656  11.233  13.722  10.067  0.3272 -0.0234 -0.5218
85226SOL    HW167657  11.144  13.753  10.051  0.4334  1.1534  0.9620
85226SOL    HW267658  11.221  13.637  10.109 -0.0173 -0.9730 -2.4479
85227SOL     OW67659  12.672   0.694  10.336  0.3465  0.4798  0.4208
85227SOL    HW167660  12.758   0.661  10.362  0.3748 -0.7838 -1.0728
85227SOL    HW267661  12.690   0.748  10.259 -0.2737 -1.1632 -0.9710
85228SOL     OW67662   6.237   5.593   6.543 -0.2315  0.4749  0.3745
85228SOL    HW167663   6.204   5.519   6.595 -2.1541  0.3920 -0.8820
85228SOL    HW267664   6.322   5.564   6.511 -0.5184 -0.8066  0.7206
85229SOL     OW67665  13.339   8.996  12.359  0.1221  0.0562 -0.3542
85229SOL    HW167666  13.381   8.970  12.441  1.2389 -1.3390 -1.3237
85229SOL    HW267667  13.275   9.062  12.385  1.2221  0.4663  1.4973
85230SOL     OW67668   0.185   1.188  11.155  0.2258  0.0531  0.2691
85230SOL    HW167669   0.193   1.277  11.188 -0.7914 -0.0098  0.7002
85230SOL    HW267670   0.124   1.145  11.214 -0.7775 -0.3801 -1.0257
85231SOL     OW67671  13.722   7.916   8.019 -0.3095 -0.1585 -0.7474
85231SOL    HW167672  13.634   7.893   7.988 -0.5339  0.0057 -0.2585
85231SOL    HW267673  13.769   7.943   7.941 -0.4941 -0.8792 -1.1184
85232SOL     OW67674  13.238  10.029   3.826 -0.3348 -0.2811  0.5081
85232SOL    HW167675  13.332  10.044   3.825 -0.3414 -0.2247  0.6539
85232SOL    HW267676  13.211  10.050   3.916 -0.9067  2.4113 -0.1997
85233SOL     OW67677  13.841   3.744  10.041  0.0445 -0.2679  0.2711
85233SOL    HW167678  13.778   3.800  10.086 -0.2964 -1.1920  0.9991
85233SOL    HW267679  13.840   3.773   9.950 -1.3005 -0.1396  0.3092
85234SOL     OW67680   3.025   5.487   5.772 -0.1873  0.0123 -0.1983
85234SOL    HW167681   3.029   5.566   5.719 -2.1072 -0.3124 -0.9261
85234SOL    HW267682   3.024   5.519   5.863  3.3558  0.5566 -0.2101
85235SOL     OW67683  10.105   2.908   4.746  0.4986 -0.1065 -0.0338
85235SOL    HW167684  10.062   2.823   4.735 -0.5280  0.4937 -0.9486
85235SOL    HW267685  10.107   2.922   4.841 -3.4220  0.7778  0.0946
85236SOL     OW67686  12.689  13.013   8.809  0.3168 -0.6539 -0.4011
85236SOL    HW167687  12.731  13.019   8.724 -0.0790  2.0902 -0.5019
85236SOL    HW267688  12.754  12.971   8.865  2.5508  1.7108 -1.0001
85237SOL     OW67689  12.106   2.933   6.510  0.3138 -0.4946 -0.1368
85237SOL    HW167690  12.069   2.878   6.441  0.3803  0.5148 -1.0114
85237SOL    HW267691  12.147   2.871   6.570 -0.9538 -1.4916 -0.2548
85238SOL     OW67692  12.630  10.623   4.284 -1.2543 -0.1478 -0.1920
85238SOL    HW167693  12.713  10.612   4.330 -0.6181  0.6777 -1.1164
85238SOL    HW267694  12.654  10.640   4.193 -2.4454 -0.0949 -0.5211
85239SOL     OW67695   3.721  11.537  10.863 -0.1656 -0.5853  0.1480
85239SOL    HW167696   3.729  11.455  10.913  1.4642 -1.2898 -1.1862
85239SOL    HW267697   3.775  11.523  10.785  0.3206  1.8474 -0.0147
85240SOL     OW67698   1.942   8.915   7.817  0.2683  0.2203  0.8549
85240SOL    HW167699   1.975   8.829   7.842  0.2094  0.0350  0.3066
85240SOL    HW267700   2.016   8.974   7.830  0.4163  0.0259  0.9015
85241SOL     OW67701   7.258  13.337   0.314 -0.1670 -0.7032 -0.0191
85241SOL    HW167702   7.223  13.391   0.243  0.0157  1.3626  1.3837
85241SOL    HW267703   7.326  13.284   0.272  0.0770  0.6182 -1.3859
85242SOL     OW67704   1.111   3.833   2.673  0.4660 -0.6158 -0.4623
85242SOL    HW167705   1.055   3.794   2.740  1.0264 -1.8663 -0.6934
85242SOL    HW267706   1.055   3.896   2.628 -0.3368 -0.8215  0.2245
85243SOL     OW67707   9.026  11.518   7.204 -0.2563 -0.2250  0.3162
85243SOL    HW167708   8.992  11.434   7.173  0.7897 -0.8819  0.9051
85243SOL    HW267709   9.040  11.505   7.298 -2.2487  1.3500  0.9102
85244SOL     OW67710   9.219  10.323   7.135 -1.0815  0.8393 -0.0467
85244SOL    HW167711   9.205  10.286   7.222 -0.7548 -1.5577 -0.9433
85244SOL    HW267712   9.222  10.418   7.150 -2.3619  0.5851  2.3327
85245SOL     OW67713   6.525   8.109  10.994 -0.1448 -0.0887  0.2067
85245SOL    HW167714   6.579   8.082  10.920 -0.4237 -0.2023  0.0417
85245SOL    HW267715   6.566   8.067  11.070 -0.6214 -1.0664 -0.0607
85246SOL     OW67716  10.684  13.267   2.017  0.2316 -0.6288 -0.5781
85246SOL    HW167717  10.689  13.320   1.939  0.2188 -1.2137 -0.9842
85246SOL    HW267718  10.598  13.288   2.055  0.5669  0.2454 -0.2758
85247SOL     OW67719  13.340  10.045   2.186  0.1164  0.8406 -0.3199
85247SOL    HW167720  13.407  10.033   2.118  2.0199  1.2789  1.3574
85247SOL    HW267721  13.285   9.968   2.179  1.3396 -0.0061 -1.2044
85248SOL     OW67722   4.719   5.056   2.699 -0.7169 -0.1324 -0.4565
85248SOL    HW167723   4.651   5.033   2.762 -1.6437  2.0621 -0.5756
85248SOL    HW267724   4.700   5.002   2.622 -2.0123  0.0866 -0.3035
85249SOL     OW67725  12.185  11.263   6.238 -0.1804 -0.3856  0.1492
85249SOL    HW167726  12.207  11.173   6.213  2.8214  0.2906 -0.0770
85249SOL    HW267727  12.246  11.317   6.188 -0.5288  1.6372  1.7685
85250SOL     OW67728   9.063  12.220   2.313 -0.5132 -0.0707 -0.6460
85250SOL    HW167729   9.126  12.190   2.248  0.0549  0.4584 -0.3586
85250SOL    HW267730   9.078  12.315   2.318  0.0212 -0.2121  0.8387
85251SOL     OW67731   4.601   9.826   1.280 -0.0860  0.4067 -0.3823
85251SOL    HW167732   4.668   9.850   1.215  0.7355  0.3992  0.4429
85251SOL    HW267733   4.586   9.907   1.329 -1.3236  0.6334 -1.1038
85252SOL     OW67734   9.545   7.521  12.610 -0.7264  0.4024  0.4275
85252SOL    HW167735   9.578   7.432  12.622 -3.7363 -1.1847 -1.6809
85252SOL    HW267736   9.449   7.512  12.610 -1.1912  3.8055  0.9152
85253SOL     OW67737   3.000   5.533  13.075 -0.0627  0.4910  0.2030
85253SOL    HW167738   3.055   5.608  13.052 -0.1860  0.2217 -1.0787
85253SOL    HW267739   3.054   5.457  13.052 -0.0013  0.1702  1.3363
85254SOL     OW67740   2.269  10.364   6.258  0.3046 -0.4154  0.4118
85254SOL    HW167741   2.230  10.280   6.281  0.2965 -0.4747  0.1831
85254SOL    HW267742   2.310  10.349   6.173 -1.8001  0.4611 -0.8441
85255SOL     OW67743   1.955   6.415   3.043  0.2771  0.2275 -0.4004
85255SOL    HW167744   1.881   6.388   3.098 -0.3846  0.8910 -0.9338
85255SOL    HW267745   2.031   6.374   3.082 -0.5061 -1.2667 -0.3929
85256SOL     OW67746   0.851  12.950   0.881 -0.0228 -0.3094  0.9146
85256SOL    HW167747   0.844  13.017   0.814  1.0323 -0.9100  0.1680
85256SOL    HW267748   0.942  12.952   0.909 -0.3603 -0.3073  2.1021
85257SOL     OW67749   5.630   7.849   2.194 -0.7138 -0.3429  0.3435
85257SOL    HW167750   5.710   7.872   2.148 -0.3209  0.2539  1.3032
85257SOL    HW267751   5.563   7.905   2.155 -0.9124 -1.5274 -1.1500
85258SOL     OW67752  13.777   7.189   8.311  0.0896 -0.0052 -0.2603
85258SOL    HW167753  13.798   7.096   8.315  0.6930  0.0768 -1.0840
85258SOL    HW267754  13.753   7.205   8.220 -0.1967  0.6078 -0.0869
85259SOL     OW67755  13.276   2.308   0.195 -0.0662  0.0720 -0.3577
85259SOL    HW167756  13.364   2.271   0.190 -0.1696 -0.3116  0.3951
85259SOL    HW267757  13.223   2.253   0.138 -0.1706 -0.8284  0.5771
85260SOL     OW67758   2.869  13.044   5.325  0.4017  0.0970 -0.1877
85260SOL    HW167759   2.962  13.036   5.346  0.8285 -1.6375 -2.3517
85260SOL    HW267760   2.867  13.050   5.229 -1.7365 -0.1272 -0.1942
85261SOL     OW67761  10.637  12.930   0.067  0.5293 -0.3503  0.1239
85261SOL    HW167762  10.632  12.904  -0.025 -0.5549 -0.7453  0.2779
85261SOL    HW267763  10.550  12.964   0.087  1.1970  1.1719  0.5955
85262SOL     OW67764  10.862  13.031   8.886 -0.1553 -0.1720  0.2145
85262SOL    HW167765  10.783  13.015   8.938  0.9603 -0.6781  1.8241
85262SOL    HW267766  10.831  13.029   8.795 -2.1883  0.8483  0.8207
85263SOL     OW67767  12.600   1.026   1.402 -0.2573  0.4361 -0.2551
85263SOL    HW167768  12.664   1.044   1.333 -2.0139  0.7438 -1.8892
85263SOL    HW267769  12.560   1.111   1.419  0.6426  0.5060  1.7180
85264SOL     OW67770  13.126   7.747   8.788 -0.0504  0.3273  0.2105
85264SOL    HW167771  13.164   7.833   8.769 -2.2638  1.2838 -0.3141
85264SOL    HW267772  13.049   7.767   8.841  0.5020 -1.5494  1.8338
85265SOL     OW67773  11.068   7.549   6.598  0.2863 -0.0034 -0.3142
85265SOL    HW167774  11.157   7.558   6.629  0.2908  1.5743 -0.6992
85265SOL    HW267775  11.040   7.639   6.577 -1.4550 -0.4245  0.0047
85266SOL     OW67776   2.440  11.681  12.209  0.0893 -0.3792  0.4095
85266SOL    HW167777   2.465  11.593  12.236 -2.0434 -1.3366 -0.5474
85266SOL    HW267778   2.353  11.693  12.246 -0.0289  0.9813 -0.2638
85267SOL     OW67779   6.301   1.836   4.909 -0.1853  0.4057  0.6419
85267SOL    HW167780   6.353   1.826   4.989  0.5858  0.0569  0.1071
85267SOL    HW267781   6.220   1.787   4.926  0.5901 -0.9164  0.6767
85268SOL     OW67782   7.501   0.094   9.075  0.2483 -0.1339  0.4463
85268SOL    HW167783   7.585   0.112   9.117  0.6008  0.7657 -0.5984
85268SOL    HW267784   7.439   0.148   9.123  0.4211 -0.0914  0.6263
85269SOL     OW67785   7.679   4.251  12.846  0.1445 -0.1315  0.4624
85269SOL    HW167786   7.590   4.249  12.811  0.3376  3.0046 -0.5341
85269SOL    HW267787   7.668   4.271  12.939 -0.1914 -0.3142  0.4630
85270SOL     OW67788  12.992   3.480  12.102 -0.2841 -0.5712 -0.5206
85270SOL    HW167789  12.998   3.388  12.127  1.5776 -0.3226  0.0982
85270SOL    HW267790  12.922   3.515  12.157 -1.4903 -1.7394 -1.2551
85271SOL     OW67791   4.706  11.174  12.271  0.2871  0.3168  0.1367
85271SOL    HW167792   4.655  11.105  12.227 -0.2267 -1.4303  3.1650
85271SOL    HW267793   4.783  11.185  12.216 -0.0101 -2.1033 -0.9272
85272SOL     OW67794  10.647  12.930   5.285  0.3039  0.3607 -0.0154
85272SOL    HW167795  10.714  12.979   5.237  1.4744 -1.3347 -0.2091
85272SOL    HW267796  10.606  12.874   5.219  0.2099 -0.2057  0.5131
85273SOL     OW67797  11.639   9.951  10.196 -0.6182  0.3594  0.3765
85273SOL    HW167798  11.621  10.027  10.252  1.5972  0.3381  1.2287
85273SOL    HW267799  11.701   9.899  10.247 -0.2482 -0.7983 -1.2007
85274SOL     OW67800   4.698  11.887   4.988 -0.1793 -0.0880  0.0072
85274SOL    HW167801   4.759  11.877   5.061  0.5599 -1.1071 -0.7140
85274SOL    HW267802   4.682  11.981   4.982 -0.5426 -0.0139  1.6957
85275SOL     OW67803   3.518   6.222  10.114  0.1736  0.0728  0.1644
85275SOL    HW167804   3.569   6.194  10.190  0.3216 -0.5886 -0.1713
85275SOL    HW267805   3.434   6.179  10.124  0.7116 -1.2786 -0.8303
85276SOL     OW67806   9.225   6.539   2.973  0.6160 -0.2908 -0.2248
85276SOL    HW167807   9.170   6.466   2.944  1.9165 -1.3069 -0.2457
85276SOL    HW267808   9.289   6.549   2.902  1.4983 -0.2723  0.5623
85277SOL     OW67809  10.767   5.405   4.978 -0.2493  0.6791 -0.1230
85277SOL    HW167810  10.798   5.492   4.953  1.9675 -0.2526 -0.9304
85277SOL    HW267811  10.682   5.396   4.935 -0.3238  2.2675 -0.3733
85278SOL     OW67812  13.955   2.291   5.006 -0.6512  0.1819  0.0778
85278SOL    HW167813  13.932   2.343   4.929  1.2642  0.9368 -0.0426
85278SOL    HW267814  13.872   2.277   5.051 -1.8647 -0.4320 -2.1842
85279SOL     OW67815   9.843   2.077   7.484 -0.1369 -0.2935  0.4500
85279SOL    HW167816   9.835   2.080   7.579 -2.5022 -0.1291  0.2927
85279SOL    HW267817   9.808   1.992   7.459  1.0780 -0.6144 -0.2628
85280SOL     OW67818   5.693   9.978   9.814 -0.0214 -0.6772 -0.4110
85280SOL    HW167819   5.674  10.050   9.874  0.1798  0.2088 -1.3893
85280SOL    HW267820   5.661   9.900   9.859 -0.3732  0.0392  0.6020
85281SOL     OW67821   0.646  13.256   8.065 -0.7792  0.3185  0.4778
85281SOL    HW167822   0.586  13.249   7.991 -0.1583 -0.2785  0.0219
85281SOL    HW267823   0.612  13.194   8.129 -0.5961 -0.0890  0.1823
85282SOL     OW67824   5.455   0.005  13.115  0.2289 -0.9299  0.2827
85282SOL    HW167825   5.466  -0.080  13.157 -0.1833 -0.5674  1.1355
85282SOL    HW267826   5.529   0.057  13.145 -0.7387 -0.2644  1.6090
85283SOL     OW67827   4.186  12.580   2.504 -0.2498 -0.5382  0.0668
85283SOL    HW167828   4.280  12.568   2.519  0.4047  1.2107 -2.1204
85283SOL    HW267829   4.147  12.499   2.535  1.9300 -1.1851  1.3634
85284SOL     OW67830   2.018   8.187   9.323  0.1692 -0.3060  0.0022
85284SOL    HW167831   2.111   8.165   9.314 -0.4791 -2.4206 -2.7344
85284SOL    HW267832   1.976   8.104   9.341 -1.5523 -0.0783 -2.5245
85285SOL     OW67833  11.216   3.371   6.568  0.4827  0.7920 -0.2385
85285SOL    HW167834  11.291   3.381   6.510  1.1984  1.8097  0.8101
85285SOL    HW267835  11.214   3.452   6.619  1.5058 -1.0263  2.9889
85286SOL     OW67836   1.989  10.482  11.062  0.0559 -0.0301 -0.4038
85286SOL    HW167837   2.009  10.567  11.102  0.8200  0.3689 -1.5965
85286SOL    HW267838   2.040  10.419  11.114 -2.3765 -0.1600  2.0763
85287SOL     OW67839   4.611   3.756   0.293 -0.2992  0.0186  0.2332
85287SOL    HW167840   4.578   3.667   0.302 -0.9276  0.3030  0.8342
85287SOL    HW267841   4.608   3.773   0.199  0.1842 -0.7217  0.0806
85288SOL     OW67842   3.530  12.503  11.044 -0.0589 -0.3149  0.0460
85288SOL    HW167843   3.552  12.513  10.952  0.1830  1.3697  0.2513
85288SOL    HW267844   3.444  12.460  11.044 -0.6108  0.7271 -1.0235
85289SOL     OW67845  12.620   3.565  11.827 -0.2882  0.2530  0.3874
85289SOL    HW167846  12.666   3.518  11.758 -1.1146  0.9576 -0.6634
85289SOL    HW267847  12.529   3.567  11.799 -0.6128  0.6813  1.4244
85290SOL     OW67848   2.478  10.453   0.219 -0.4154  0.5062  0.0848
85290SOL    HW167849   2.430  10.479   0.140  0.3843  1.6363 -0.0453
85290SOL    HW267850   2.416  10.400   0.268 -0.8554 -0.4207 -1.4128
85291SOL     OW67851  12.330  10.183   1.824 -0.4557  0.0569 -0.7676
85291SOL    HW167852  12.244  10.140   1.827 -0.8485  0.8510 -0.3573
85291SOL    HW267853  12.387  10.119   1.782 -0.9418 -1.0022  0.1371
85292SOL     OW67854   9.793   4.071  11.903  0.5846  0.1252 -0.1494
85292SOL    HW167855   9.789   4.063  11.808  0.3208  0.1693 -0.1436
85292SOL    HW267856   9.722   4.015  11.935  0.5962  0.2007  0.0133
85293SOL     OW67857   4.037   4.033   4.576 -0.9555  0.0305 -0.1352
85293SOL    HW167858   3.965   3.981   4.542 -1.5216  1.0743 -0.5961
85293SOL    HW267859   4.009   4.124   4.563 -0.2153  0.4586  1.0724
85294SOL     OW67860   5.809   1.067   5.080  0.7332  0.1442 -0.4103
85294SOL    HW167861   5.822   1.114   4.998 -2.6195  1.2018 -0.4791
85294SOL    HW267862   5.800   0.976   5.054  4.8243 -0.4160 -0.5316
85295SOL     OW67863   0.043   1.843   2.458 -0.7224 -0.2273  0.8910
85295SOL    HW167864   0.078   1.921   2.414 -1.9118  0.7555  1.6241
85295SOL    HW267865   0.066   1.771   2.400  0.0114  0.7269 -0.0445
85296SOL     OW67866   2.918   8.699   9.917 -0.1313 -0.1284 -0.4094
85296SOL    HW167867   2.854   8.633   9.943 -0.5827  1.0486  1.6749
85296SOL    HW267868   2.907   8.770   9.980  0.9648  1.5671 -2.0145
85297SOL     OW67869  10.405  12.317   2.061 -0.3380 -0.5235  0.1501
85297SOL    HW167870  10.345  12.302   1.989 -1.5903 -0.6333  1.1731
85297SOL    HW267871  10.373  12.259   2.131  2.2192 -2.1856  0.0782
85298SOL     OW67872   7.367  13.884   2.972 -0.4482 -0.3230 -0.5153
85298SOL    HW167873   7.448  13.934   2.967 -0.8333  0.2476 -1.0425
85298SOL    HW267874   7.396  13.795   2.994  0.5802 -0.7787 -3.2864
85299SOL     OW67875   5.900   7.160   1.954 -0.5186 -0.2091 -0.5937
85299SOL    HW167876   5.932   7.217   2.025  1.4625 -0.0716 -1.5423
85299SOL    HW267877   5.840   7.099   1.998 -0.4792  0.7875  0.9346
85300SOL     OW67878   1.917  11.090   1.696 -0.4862 -0.0948 -0.2286
85300SOL    HW167879   1.847  11.132   1.746 -0.3006  1.6102 -1.3351
85300SOL    HW267880   1.935  11.150   1.623  1.7054 -0.7575 -0.3296
85301SOL     OW67881   2.801   5.738   3.667  0.3179 -0.0906  0.6762
85301SOL    HW167882   2.736   5.747   3.598  0.9235  2.7437  0.3355
85301SOL    HW267883   2.858   5.667   3.638 -0.2579  0.1111 -1.0718
85302SOL     OW67884   1.623   0.526   3.501 -0.4427 -0.4570 -0.2300
85302SOL    HW167885   1.680   0.498   3.573 -0.6120  0.0514  0.1073
85302SOL    HW267886   1.655   0.477   3.425 -1.4650 -2.4517  0.5565
85303SOL     OW67887   9.777   9.949  10.241  0.4344 -0.1349 -0.3459
85303SOL    HW167888   9.784   9.854  10.247  0.3192 -0.1271 -0.0934
85303SOL    HW267889   9.868   9.979  10.234  0.4681 -0.2658 -0.4862
85304SOL     OW67890  11.723  13.594   0.607 -0.0856 -0.5568 -0.2103
85304SOL    HW167891  11.684  13.509   0.590  0.9513 -0.9645 -0.6664
85304SOL    HW267892  11.735  13.597   0.701 -2.5933  0.2265  0.1442
85305SOL     OW67893   1.630   9.097   0.713  0.3844  0.4854 -0.1799
85305SOL    HW167894   1.640   9.031   0.781 -1.9283  1.8304  1.6044
85305SOL    HW267895   1.704   9.082   0.654  0.1080 -3.4951  0.2276
85306SOL     OW67896   7.569  13.486   6.387 -0.0166 -0.0996  0.1289
85306SOL    HW167897   7.492  13.541   6.372  0.7770  0.8763 -0.5172
85306SOL    HW267898   7.545  13.401   6.351 -2.8396 -1.5982  4.8068
85307SOL     OW67899   7.705  11.446   8.775  0.0886  0.4533  0.3343
85307SOL    HW167900   7.742  11.361   8.801  0.4549  1.0690  1.9670
85307SOL    HW267901   7.620  11.425   8.738  0.5605 -0.6987 -0.1543
85308SOL     OW67902  12.382   0.827  12.844 -0.0155 -0.0397 -0.3011
85308SOL    HW167903  12.294   0.788  12.842  0.3211 -0.8739  0.5538
85308SOL    HW267904  12.367   0.919  12.824 -1.1753 -0.0256  0.4932
85309SOL     OW67905   3.591   0.580  10.846 -0.4670 -0.1923  0.3801
85309SOL    HW167906   3.517   0.578  10.785  0.0590  1.5432 -0.3701
85309SOL    HW267907   3.588   0.495  10.890 -2.8452 -0.2161  0.3015
85310SOL     OW67908   3.210   7.223   2.066  0.2301  0.6909 -0.4589
85310SOL    HW167909   3.159   7.281   2.009 -0.1128  0.6896 -0.1558
85310SOL    HW267910   3.176   7.239   2.154  0.6262  0.5526 -0.2773
85311SOL     OW67911   4.862  10.191   4.379  0.6263  0.1320  0.2686
85311SOL    HW167912   4.928  10.128   4.349  1.2932  0.8849  0.1207
85311SOL    HW267913   4.844  10.245   4.302 -0.1253 -0.0307  0.3275
85312SOL     OW67914   4.565  14.029   7.877 -0.5756 -0.0424 -0.4843
85312SOL    HW167915   4.566  14.055   7.969  1.7018 -0.5752 -0.2853
85312SOL    HW267916   4.513  13.949   7.875  0.4498 -0.7619  0.6009
85313SOL     OW67917   9.944   0.146   3.610  0.7564 -0.0182  0.2366
85313SOL    HW167918   9.919   0.207   3.679  0.7209 -0.0605  0.2615
85313SOL    HW267919   9.865   0.138   3.555  0.8239  0.1138  0.1187
85314SOL     OW67920  12.078  13.238  10.621  0.4209  0.0025 -0.4469
85314SOL    HW167921  12.016  13.302  10.656 -1.2069 -1.1654 -1.1069
85314SOL    HW267922  12.139  13.222  10.693 -1.6943 -0.8948  1.2331
85315SOL     OW67923   9.259   0.600   3.920 -0.3176 -0.4734 -0.5476
85315SOL    HW167924   9.171   0.632   3.941  0.0552  0.2694 -0.1054
85315SOL    HW267925   9.289   0.559   4.001  0.0525 -0.0245 -0.4547
85316SOL     OW67926   3.192  11.083   5.617  0.3355 -0.8419 -0.4944
85316SOL    HW167927   3.268  11.140   5.604  1.6378 -2.3910  0.0216
85316SOL    HW267928   3.119  11.131   5.576  1.1763  1.5427  0.6097
85317SOL     OW67929   1.180   2.063   1.623  0.0364  0.2533 -0.1804
85317SOL    HW167930   1.212   2.077   1.712 -0.6082  0.6905 -0.0094
85317SOL    HW267931   1.176   2.151   1.585  0.5013  0.0508 -0.7148
85318SOL     OW67932   5.536  13.803   1.172 -0.5573  0.3025 -0.1318
85318SOL    HW167933   5.543  13.709   1.187 -0.8169  0.4472  0.9983
85318SOL    HW267934   5.503  13.811   1.083 -0.2650 -0.6655 -0.3403
85319SOL     OW67935   2.286   2.856   9.332 -0.0432 -0.5147  0.1293
85319SOL    HW167936   2.228   2.899   9.270  0.3220  0.5252  0.4834
85319SOL    HW267937   2.244   2.869   9.417  0.9056  0.6423  0.4453
85320SOL     OW67938  13.881  13.018  10.998 -0.2775  0.1783  0.1167
85320SOL    HW167939  13.893  12.977  10.912 -0.4363 -0.8917  0.5891
85320SOL    HW267940  13.803  13.072  10.988 -1.2245 -1.1563 -0.0000
85321SOL     OW67941   9.421   5.100   2.088 -0.4952 -0.7496 -0.5907
85321SOL    HW167942   9.443   5.023   2.141 -0.5200 -0.4140 -0.0930
85321SOL    HW267943   9.331   5.121   2.114 -0.2333 -0.1120 -0.1937
85322SOL     OW67944   7.765  11.919   5.301 -0.0935 -0.5294 -0.1113
85322SOL    HW167945   7.686  11.965   5.328  0.8642  0.1684  1.6776
85322SOL    HW267946   7.769  11.842   5.358  0.4252 -0.6590 -0.3106
85323SOL     OW67947   6.211   6.648  12.132 -0.1833 -0.2766  0.2020
85323SOL    HW167948   6.297   6.688  12.122 -0.2766 -0.4897 -1.7202
85323SOL    HW267949   6.189   6.614  12.046 -2.8810  1.1284  0.1998
85324SOL     OW67950   8.386   0.918   6.712 -0.8374 -0.1632 -0.4122
85324SOL    HW167951   8.449   0.885   6.776  0.3767  0.2738 -1.3297
85324SOL    HW267952   8.358   1.003   6.747 -0.8043 -0.2938 -0.0671
85325SOL     OW67953   2.958  11.610   5.287 -0.3679 -0.1441 -0.4258
85325SOL    HW167954   2.944  11.642   5.198 -1.4201  2.8490  0.7175
85325SOL    HW267955   3.028  11.665   5.322 -0.5388 -0.7144  0.8759
85326SOL     OW67956   4.727   3.378   4.331 -0.1533 -0.5277 -0.9111
85326SOL    HW167957   4.813   3.337   4.341  0.7234  1.2734 -0.7030
85326SOL    HW267958   4.744   3.457   4.279 -1.1828  1.3275  1.4097
85327SOL     OW67959   8.629  11.143  10.487  0.1738 -0.3665  0.4700
85327SOL    HW167960   8.655  11.230  10.516  0.0581 -0.1369 -0.0970
85327SOL    HW267961   8.707  11.089  10.499  0.2710 -0.1669  0.7459
85328SOL     OW67962   7.444  12.479   5.224  0.2165  0.2788  0.1955
85328SOL    HW167963   7.408  12.396   5.192 -0.9801  0.0983  1.8613
85328SOL    HW267964   7.538  12.473   5.205  0.0509 -1.1717 -0.3183
85329SOL     OW67965   6.142  10.239  12.329  0.0473 -0.5777 -0.1938
85329SOL    HW167966   6.106  10.286  12.404 -0.2991  0.0630 -0.7491
85329SOL    HW267967   6.206  10.300  12.291  0.5456 -1.0736 -0.1574
85330SOL     OW67968   9.361  12.822   1.419  0.1013  0.0109  0.2640
85330SOL    HW167969   9.328  12.864   1.497  0.1137  1.4755 -0.4880
85330SOL    HW267970   9.352  12.888   1.350 -0.5255 -1.4527 -1.1216
85331SOL     OW67971   5.896  13.920   1.858 -0.3737 -0.3497 -0.1701
85331SOL    HW167972   5.945  13.858   1.803  1.3384 -0.2348  1.1502
85331SOL    HW267973   5.875  13.870   1.937  0.1662  0.4630  0.4944
85332SOL     OW67974   1.738  12.324   3.321 -0.0733 -0.0817  0.7636
85332SOL    HW167975   1.649  12.316   3.286  0.6991 -1.7556 -1.0390
85332SOL    HW267976   1.726  12.334   3.415 -2.1719 -1.3418  0.6927
85333SOL     OW67977   4.373   5.903  10.267 -0.1437 -0.0600 -0.2541
85333SOL    HW167978   4.439   5.971  10.279 -0.0098  0.1572 -1.8972
85333SOL    HW267979   4.311   5.941  10.204  0.1580 -1.5662 -1.5224
85334SOL     OW67980   4.727  10.662  13.204  0.1610 -0.5858 -0.2153
85334SOL    HW167981   4.727  10.638  13.297 -0.6998  0.3482  0.0523
85334SOL    HW267982   4.772  10.746  13.201  0.3573 -0.7030 -0.6734
85335SOL     OW67983   0.318   9.175   7.711  0.0300 -0.6311  0.5922
85335SOL    HW167984   0.307   9.270   7.709  0.8416 -0.5265 -1.4140
85335SOL    HW267985   0.229   9.141   7.697 -0.0554 -0.1111 -0.2332
85336SOL     OW67986  12.474  13.124   9.461 -0.1961 -0.0898 -0.3839
85336SOL    HW167987  12.562  13.087   9.466  0.9986  2.6534  1.0682
85336SOL    HW267988  12.470  13.164   9.374 -0.1935 -0.5769 -0.6124
85337SOL     OW67989   1.176   9.202  12.709  0.0931 -0.1057  0.1479
85337SOL    HW167990   1.129   9.119  12.720 -1.5260  0.8348  0.7498
85337SOL    HW267991   1.190   9.233  12.798  1.4942 -0.1412 -0.0452
85338SOL     OW67992  12.128  10.695   4.942 -0.0611  0.0625 -0.9523
85338SOL    HW167993  12.124  10.721   5.034 -1.1604 -2.2892 -0.2793
85338SOL    HW267994  12.038  10.705   4.911  0.1219 -0.0378 -1.5224
85339SOL     OW67995   6.825   8.639   1.256  0.2072  0.0221  0.3972
85339SOL    HW167996   6.847   8.643   1.163 -0.1575  2.2131  0.3395
85339SOL    HW267997   6.850   8.725   1.290 -2.4759  0.4146  1.6601
85340SOL     OW67998   4.788  11.679  12.951 -0.5440  0.6767 -0.1350
85340SOL    HW167999   4.852  11.660  13.020 -0.1795  1.1700 -0.3327
85340SOL    HW268000   4.761  11.594  12.918  0.7475  0.4823 -0.7254
85341SOL     OW68001  12.902   0.782   2.814 -0.4233  0.3237 -0.0345
85341SOL    HW168002  12.859   0.708   2.771 -0.3681  0.0441  0.3833
85341SOL    HW268003  12.927   0.748   2.900  0.8677  0.3981 -0.3583
85342SOL     OW68004   4.808   3.701   1.312  0.0043  0.6669  0.6309
85342SOL    HW168005   4.737   3.737   1.364  1.2994  2.3215  1.3629
85342SOL    HW268006   4.874   3.675   1.377  0.1418 -0.7252 -0.0308
85343SOL     OW68007   1.951  11.784   4.663  0.2700 -0.0514  0.2875
85343SOL    HW168008   1.962  11.868   4.707  0.0242 -0.1445  0.5335
85343SOL    HW268009   1.864  11.790   4.624  0.7671  0.3034 -0.7902
85344SOL     OW68010   8.747   4.669  12.537 -0.1123  0.5848 -0.1606
85344SOL    HW168011   8.685   4.611  12.581 -1.0323  1.7135  0.1049
85344SOL    HW268012   8.822   4.614  12.516 -2.1321 -1.4247 -2.6666
85345SOL     OW68013   1.561   8.575   1.566  0.0503  0.1418 -0.3892
85345SOL    HW168014   1.471   8.605   1.578  0.2603  0.2681  1.0859
85345SOL    HW268015   1.553   8.482   1.546 -0.3920  0.0311  0.2838
85346SOL     OW68016   6.074   1.075   8.184 -0.6533 -0.5158 -0.3610
85346SOL    HW168017   6.150   1.025   8.155  0.7043  0.2637  1.6489
85346SOL    HW268018   6.091   1.164   8.154 -0.5598 -0.2521  0.4687
85347SOL     OW68019  12.647   8.092   2.354  0.2588  0.3998 -0.1165
85347SOL    HW168020  12.638   8.002   2.386 -1.2795 -0.5805 -3.0227
85347SOL    HW268021  12.712   8.087   2.285  1.6162  1.9825  0.9484
85348SOL     OW68022   8.385  12.139  13.588 -0.2507  0.4257 -0.1551
85348SOL    HW168023   8.396  12.045  13.573 -1.2328  0.3689 -0.6502
85348SOL    HW268024   8.319  12.144  13.657  0.1950  0.7511  0.2467
85349SOL     OW68025   0.076   3.628   9.478 -0.3625  0.4069  0.2753
85349SOL    HW168026   0.001   3.599   9.425  0.3916 -0.5436 -0.3054
85349SOL    HW268027   0.078   3.568   9.552  1.2633 -1.1945 -0.9823
85350SOL     OW68028  13.623   3.538   3.873  0.2686  0.1043 -0.5523
85350SOL    HW168029  13.603   3.447   3.897  0.5803  0.6069  1.9540
85350SOL    HW268030  13.676   3.532   3.794  0.8940 -1.9302 -0.0271
85351SOL     OW68031  10.721   8.673   0.138 -0.4089  0.1574 -0.1588
85351SOL    HW168032  10.749   8.728   0.065  2.3867 -0.9820 -0.0510
85351SOL    HW268033  10.673   8.601   0.096  1.1921 -0.5077 -0.9384
85352SOL     OW68034   1.154   1.904   1.222  0.2955 -0.2291  0.1777
85352SOL    HW168035   1.096   1.835   1.190  0.4061 -0.1838 -0.1169
85352SOL    HW268036   1.095   1.970   1.258  0.1293  0.2318 -0.9309
85353SOL     OW68037   6.740   1.769  13.507 -0.6775  0.2645 -0.4641
85353SOL    HW168038   6.738   1.843  13.568 -1.3000  0.9527 -1.2974
85353SOL    HW268039   6.789   1.701  13.554 -1.1398  0.7678  0.7972
85354SOL     OW68040   6.108  10.442   8.055  0.1271  0.0487 -0.2159
85354SOL    HW168041   6.099  10.535   8.033 -0.2788  0.2416  0.7011
85354SOL    HW268042   6.198  10.432   8.085 -0.2519  0.4912  1.1490
85355SOL     OW68043  12.974  12.475   9.685 -0.5844 -0.5333  0.1314
85355SOL    HW168044  12.963  12.380   9.678  1.4286 -0.7106 -1.8482
85355SOL    HW268045  13.053  12.487   9.737 -0.3437 -0.0053 -0.3342
85356SOL     OW68046  13.570   3.606   4.503 -0.1878  0.7628  0.6947
85356SOL    HW168047  13.546   3.517   4.529 -3.1559  1.9229  2.4577
85356SOL    HW268048  13.625   3.637   4.575  3.0215 -0.3073 -1.0906
85357SOL     OW68049   0.347   3.415   6.401 -0.4036  0.6748 -0.4161
85357SOL    HW168050   0.387   3.329   6.412 -1.3432  0.3082  0.2776
85357SOL    HW268051   0.303   3.410   6.316 -0.3379  0.5203 -0.4426
85358SOL     OW68052  13.744   9.244  13.733  0.6059  0.1605  0.6371
85358SOL    HW168053  13.738   9.337  13.712 -0.5552 -0.0522 -0.0979
85358SOL    HW268054  13.780   9.241  13.822  0.5922  1.3083  0.6878
85359SOL     OW68055   2.284   6.370  10.464 -0.1608 -0.1607  0.3880
85359SOL    HW168056   2.341   6.326  10.527  1.7669 -1.2297 -1.9557
85359SOL    HW268057   2.221   6.302  10.438  0.0412 -0.2095  0.0209
85360SOL     OW68058  10.569  11.605  12.059 -0.0405  0.1656  0.0166
85360SOL    HW168059  10.479  11.584  12.035 -0.1955  0.1475  0.5880
85360SOL    HW268060  10.561  11.657  12.139  0.4078  1.1722 -0.5775
85361SOL     OW68061   1.639   9.399   3.295  0.4129  0.2258  0.2364
85361SOL    HW168062   1.645   9.351   3.378 -0.2572 -1.4415 -0.6316
85361SOL    HW268063   1.726   9.392   3.257  0.0736 -1.2415 -0.3439
85362SOL     OW68064   7.667   2.818   5.318  0.0253  0.2384 -0.6774
85362SOL    HW168065   7.725   2.890   5.340 -0.3109  0.5043 -0.6630
85362SOL    HW268066   7.594   2.825   5.380  0.2170 -0.3863 -0.3698
85363SOL     OW68067   8.995  14.015  10.701  0.1478 -0.1702 -0.2006
85363SOL    HW168068   8.954  14.099  10.720 -1.5866 -0.3342 -2.7130
85363SOL    HW268069   9.011  14.017  10.607  2.5162 -1.6706  0.0734
85364SOL     OW68070   2.114  13.601   4.077 -0.0719  0.6566 -0.2601
85364SOL    HW168071   2.042  13.553   4.036 -0.2475  0.5052  0.2090
85364SOL    HW268072   2.190  13.579   4.024 -0.0989 -0.3663  0.0966
85365SOL     OW68073  10.607  13.984  10.043 -0.4198  0.2869 -0.3489
85365SOL    HW168074  10.571  13.966   9.957 -0.7942 -1.2375  0.0939
85365SOL    HW268075  10.639  13.899  10.074  0.5512  0.9773  0.6347
85366SOL     OW68076   7.455   4.129   0.101  0.2741 -0.2159 -0.6370
85366SOL    HW168077   7.463   4.221   0.078 -0.7888 -0.2287 -1.1175
85366SOL    HW268078   7.509   4.082   0.037  1.4935  0.1214  0.1251
85367SOL     OW68079   9.257   6.732   1.551  0.1947  0.1186 -0.6473
85367SOL    HW168080   9.321   6.801   1.569  0.5053  0.0445 -1.4330
85367SOL    HW268081   9.233   6.745   1.459 -0.3937 -0.2913 -0.5593
85368SOL     OW68082   5.671   9.875   3.820  0.5026  0.0899  0.2470
85368SOL    HW168083   5.626   9.792   3.838 -0.1468  0.3410 -0.1765
85368SOL    HW268084   5.630   9.907   3.740  2.0090 -0.0700 -0.6171
85369SOL     OW68085   2.796   2.096   5.223 -0.0920  0.2338  0.3048
85369SOL    HW168086   2.811   2.165   5.288  0.1621  1.0640 -0.6000
85369SOL    HW268087   2.720   2.127   5.173  0.9591  0.6224 -1.0903
85370SOL     OW68088  13.045  11.719   5.885 -0.1308 -0.0736 -0.2687
85370SOL    HW168089  12.983  11.660   5.841  0.0997 -0.5074 -0.0201
85370SOL    HW268090  13.031  11.704   5.978 -0.3492  0.5687 -0.1895
85371SOL     OW68091   3.020  12.908   5.709  0.2865  0.7330 -0.2688
85371SOL    HW168092   3.062  12.864   5.635 -1.2081 -0.0120 -0.7143
85371SOL    HW268093   3.063  12.872   5.787 -1.3620 -2.1593 -0.5697
85372SOL     OW68094   8.800   0.566  12.265 -0.2310  0.0956 -0.0602
85372SOL    HW168095   8.730   0.627  12.287 -1.2843 -1.4715  1.2086
85372SOL    HW268096   8.879   0.619  12.264 -1.3821  1.9143 -1.4707
85373SOL     OW68097   3.947   3.660   7.443 -0.5650  0.2000 -0.4127
85373SOL    HW168098   4.009   3.711   7.392  0.9257  0.2586  1.3520
85373SOL    HW268099   3.919   3.590   7.384  0.6588  0.5819 -1.4834
85374SOL     OW68100   6.611  11.286   4.011  0.1703 -0.7381 -0.1699
85374SOL    HW168101   6.649  11.293   4.099 -0.9393  1.6161  0.2022
85374SOL    HW268102   6.685  11.299   3.952  0.7853 -1.5173  0.4003
85375SOL     OW68103   8.362   8.343   3.475 -0.1950 -0.1704  0.2275
85375SOL    HW168104   8.331   8.252   3.482  2.2156 -1.3868 -2.4827
85375SOL    HW268105   8.450   8.335   3.438  1.0431  3.2409  2.0272
85376SOL     OW68106   0.859  10.178   3.086 -0.2367  0.3128  0.3531
85376SOL    HW168107   0.807  10.236   3.030  0.0710  0.8537  0.6231
85376SOL    HW268108   0.835  10.202   3.175 -0.5220 -0.3634  0.4689
85377SOL     OW68109  10.684   1.111  13.190 -0.0659 -0.1414 -0.4170
85377SOL    HW168110  10.742   1.049  13.145 -0.1332 -0.2249 -0.3900
85377SOL    HW268111  10.597   1.070  13.183  0.1077 -0.7651  0.8629
85378SOL     OW68112   3.669   6.998  13.195 -0.2711 -0.2091 -0.4061
85378SOL    HW168113   3.643   6.908  13.176 -2.0615  0.1250  0.2521
85378SOL    HW268114   3.761   7.003  13.167 -0.9920 -1.3496 -3.3472
85379SOL     OW68115  10.048   1.928   4.997  0.0729  0.2342  0.6075
85379SOL    HW168116  10.045   1.944   5.091 -0.2778  0.4694  0.5608
85379SOL    HW268117  10.087   1.841   4.987  1.7151  0.9068  0.8939
85380SOL     OW68118   1.898   3.160  12.183 -0.0465 -0.1115 -0.1785
85380SOL    HW168119   1.847   3.087  12.147  1.5783 -0.5365 -1.7928
85380SOL    HW268120   1.833   3.222  12.213 -1.5181 -0.9949 -1.3581
85381SOL     OW68121   2.735   2.683  12.753 -0.6574 -0.0616  0.2100
85381SOL    HW168122   2.743   2.771  12.717 -0.7128 -0.0974  0.1117
85381SOL    HW268123   2.685   2.634  12.688  0.4686 -0.5137 -0.3476
85382SOL     OW68124   7.817   4.259  12.195 -0.5398 -0.8030 -0.4206
85382SOL    HW168125   7.722   4.269  12.201 -0.6196 -1.2966 -0.7733
85382SOL    HW268126   7.850   4.299  12.276 -1.0819 -1.0534 -0.0650
85383SOL     OW68127   1.675   9.139   3.099 -0.9610 -0.1110 -0.5526
85383SOL    HW168128   1.627   9.138   3.182  0.8184  0.4776  0.5319
85383SOL    HW268129   1.755   9.188   3.117 -0.3963 -0.1663 -2.5667
85384SOL     OW68130   8.606  13.274   3.509  0.1329 -0.8718 -0.4481
85384SOL    HW168131   8.696  13.264   3.477  0.3772  0.2055 -0.1298
85384SOL    HW268132   8.572  13.350   3.461 -1.0344 -2.0112 -1.4739
85385SOL     OW68133   0.035  11.855   2.383 -0.5656 -0.2686  0.2469
85385SOL    HW168134  -0.015  11.936   2.374 -0.5766 -0.3676 -0.6571
85385SOL    HW268135   0.090  11.851   2.305 -0.4079 -1.0298  0.3819
85386SOL     OW68136   8.459  12.209  13.879 -0.0110  0.4762  0.5878
85386SOL    HW168137   8.428  12.240  13.794 -1.5619  1.0002  1.3198
85386SOL    HW268138   8.495  12.122  13.860  1.4361  1.3449 -0.9156
85387SOL     OW68139   8.126   7.911   2.480  0.1960  0.1012  1.0369
85387SOL    HW168140   8.082   7.838   2.522  0.9481 -0.2923  1.1648
85387SOL    HW268141   8.179   7.871   2.411  0.7939  0.4911  1.2569
85388SOL     OW68142  12.877   1.679   1.553  0.0112  0.1076  0.4472
85388SOL    HW168143  12.816   1.675   1.480 -0.8447 -1.4037  1.2010
85388SOL    HW268144  12.959   1.711   1.514  0.0326 -2.0719 -1.5040
85389SOL     OW68145  12.914   8.113   5.262 -0.2788 -0.2616 -0.0187
85389SOL    HW168146  12.841   8.164   5.227  0.1526  2.2493  2.3769
85389SOL    HW268147  12.991   8.150   5.220 -0.1696 -1.2726 -0.7415
85390SOL     OW68148   9.225  13.460   0.823 -0.2004  0.1151 -0.2341
85390SOL    HW168149   9.213  13.502   0.908  1.1024 -1.4014  0.7567
85390SOL    HW268150   9.294  13.511   0.781  0.2337 -0.0423  0.2764
85391SOL     OW68151  13.424   1.935   5.556 -0.2782 -0.3560 -0.3319
85391SOL    HW168152  13.508   1.927   5.510 -1.2119 -0.8557 -2.0386
85391SOL    HW268153  13.408   1.848   5.592 -0.0827 -0.2679 -0.0294
85392SOL     OW68154   6.626   5.569   9.966 -0.3826  0.1402 -0.1713
85392SOL    HW168155   6.689   5.597  10.032  1.4234  0.7363 -2.0213
85392SOL    HW268156   6.576   5.648   9.946  0.6393  0.5853 -1.1006
85393SOL     OW68157  13.562   8.010   0.630 -0.4450 -0.2956 -0.3297
85393SOL    HW168158  13.657   8.005   0.619 -0.1833  0.1044  1.5491
85393SOL    HW268159  13.527   7.961   0.555  1.2146 -0.2744 -1.1670
85394SOL     OW68160  10.358  12.285   5.640 -0.3385 -0.0657  0.6262
85394SOL    HW168161  10.413  12.207   5.640  0.5121  0.5204  0.7026
85394SOL    HW268162  10.368  12.322   5.728  2.1970  2.1181 -0.4448
85395SOL     OW68163   1.395  13.752   7.107  0.6451 -0.3766 -0.4210
85395SOL    HW168164   1.326  13.779   7.168  0.1144 -1.4461 -0.5278
85395SOL    HW268165   1.455  13.700   7.161 -0.2935 -2.0913 -0.9401
85396SOL     OW68166   1.270   8.145  10.609  0.4491 -0.1228 -0.0408
85396SOL    HW168167   1.291   8.159  10.701 -0.4304  0.9600  0.0184
85396SOL    HW268168   1.225   8.061  10.607 -1.2618  0.7348  0.8202
85397SOL     OW68169   0.328   9.495   8.846  0.4284 -0.1784 -0.0136
85397SOL    HW168170   0.312   9.405   8.819 -0.3200 -0.6523  1.8307
85397SOL    HW268171   0.316   9.547   8.767 -2.7254 -1.3130 -0.4157
85398SOL     OW68172   6.063   3.980   4.791  0.2238 -0.5118 -0.1774
85398SOL    HW168173   6.070   3.902   4.736 -0.9975  0.6307 -2.0722
85398SOL    HW268174   6.153   4.005   4.809  0.6978 -0.5731 -2.2510
85399SOL     OW68175   5.280   0.293   0.639 -0.2449  0.2616  0.5585
85399SOL    HW168176   5.327   0.263   0.716 -1.9773 -0.7258  1.2811
85399SOL    HW268177   5.334   0.266   0.565 -0.0703 -1.5741  1.3228
85400SOL     OW68178  11.565  11.075   2.586 -0.0134 -0.4424 -0.1985
85400SOL    HW168179  11.606  11.008   2.531  0.9114 -0.5118  0.5546
85400SOL    HW268180  11.637  11.127   2.619 -0.6493  0.3023  0.0516
85401SOL     OW68181   1.764   7.606  10.417 -0.3086 -0.2553 -0.3127
85401SOL    HW168182   1.758   7.690  10.462 -1.6835  0.5536 -1.9053
85401SOL    HW268183   1.800   7.546  10.483 -0.0870  1.3730  1.1123
85402SOL     OW68184   2.302  12.768   4.839 -0.1697 -0.1362 -0.0510
85402SOL    HW168185   2.391  12.792   4.812 -0.1505 -0.7690 -0.5846
85402SOL    HW268186   2.299  12.787   4.933  0.3484  0.4141 -0.1389
85403SOL     OW68187  11.411   9.560   7.944 -0.1863  0.6837 -0.1774
85403SOL    HW168188  11.484   9.559   8.006 -0.3226 -1.0379 -0.0170
85403SOL    HW268189  11.372   9.647   7.955  1.5283  1.4579  0.0761
85404SOL     OW68190   3.932   2.167   9.365  0.5279 -0.0625 -0.2923
85404SOL    HW168191   3.991   2.227   9.411  1.0713  0.0666 -1.1476
85404SOL    HW268192   3.874   2.135   9.434  0.2811  1.3608  0.2045
85405SOL     OW68193  12.728   4.313   8.045 -0.2110 -0.0755 -0.0692
85405SOL    HW168194  12.783   4.251   8.093 -0.7271  0.2188  0.9268
85405SOL    HW268195  12.789   4.381   8.014 -0.0461  0.4248  1.3029
85406SOL     OW68196  13.118   3.825  11.815  0.3380  0.4090  0.0331
85406SOL    HW168197  13.131   3.730  11.817  1.4292  0.5430 -0.4347
85406SOL    HW268198  13.023   3.835  11.826 -0.2042 -0.8652 -2.6183
85407SOL     OW68199  11.627   4.118  13.399 -0.2366 -0.8779  0.2640
85407SOL    HW168200  11.659   4.049  13.340 -0.9339 -0.4066 -0.6866
85407SOL    HW268201  11.632   4.078  13.486  2.1428 -1.1007  0.0919
85408SOL     OW68202   2.432   0.405  10.775 -0.2096  0.6047  0.0845
85408SOL    HW168203   2.388   0.327  10.809 -0.1659  0.7234  0.4255
85408SOL    HW268204   2.464   0.449  10.854 -2.9534  2.6194  0.2277
85409SOL     OW68205   3.888   3.556  13.531 -0.1093  0.1018 -0.0697
85409SOL    HW168206   3.827   3.483  13.538 -1.6581  1.3586  0.0607
85409SOL    HW268207   3.835   3.634  13.548  1.6781  1.2129  0.7587
85410SOL     OW68208  10.985   6.800   5.484 -0.2154  0.1047 -0.1954
85410SOL    HW168209  11.058   6.805   5.547 -2.2948 -0.1964  2.4302
85410SOL    HW268210  10.957   6.891   5.474 -0.5525  0.0517  0.2124
85411SOL     OW68211   5.755  13.531   2.135  0.0369  0.1880  0.1216
85411SOL    HW168212   5.716  13.600   2.082  0.3453  1.1321  1.0963
85411SOL    HW268213   5.749  13.563   2.225 -0.1429 -1.2181  0.6326
85412SOL     OW68214   3.460   3.823   4.630 -0.0896  0.1748  0.1116
85412SOL    HW168215   3.432   3.824   4.539 -0.4060  0.0425  0.2084
85412SOL    HW268216   3.475   3.915   4.651  3.9025  0.0682 -1.2776
85413SOL     OW68217   5.230   5.049   5.686 -0.0003 -0.0980  0.6300
85413SOL    HW168218   5.278   5.131   5.679 -0.5598  0.2366  0.6035
85413SOL    HW268219   5.260   4.996   5.613  0.5511 -0.0148  0.7957
85414SOL     OW68220  13.438   2.189   5.513  0.1475 -0.4802 -0.2259
85414SOL    HW168221  13.424   2.096   5.532 -4.4007 -0.2317 -1.0539
85414SOL    HW268222  13.401   2.234   5.589 -1.7256  0.5292 -1.6482
85415SOL     OW68223   7.499  10.049  13.765  0.5437  1.1019 -0.4888
85415SOL    HW168224   7.510   9.968  13.715 -0.4689 -1.2303  2.7442
85415SOL    HW268225   7.405  10.065  13.765  0.3803  0.3065  1.6798
85416SOL     OW68226   6.371  13.893   1.470 -0.1227 -0.3836 -0.3382
85416SOL    HW168227   6.355  13.804   1.500 -1.1394 -0.4815 -1.1061
85416SOL    HW268228   6.389  13.884   1.376  2.4627 -0.0376  0.0579
85417SOL     OW68229   0.797   1.574  12.796 -0.0273  0.4422 -0.2891
85417SOL    HW168230   0.714   1.621  12.798 -1.2988 -1.5630 -2.1422
85417SOL    HW268231   0.776   1.486  12.825  1.9525  0.4550  1.3986
85418SOL     OW68232   6.314   9.069   2.398  0.2220  0.0100  0.1882
85418SOL    HW168233   6.276   9.050   2.312  0.0460  0.3877  0.1809
85418SOL    HW268234   6.257   9.023   2.460  0.6799 -0.7354  0.0672
85419SOL     OW68235  11.535   6.235   0.575 -0.6952  0.4416  0.1220
85419SOL    HW168236  11.627   6.255   0.592 -0.2677 -0.7146 -0.6840
85419SOL    HW268237  11.536   6.183   0.494 -1.9053 -0.7928  0.8512
85420SOL     OW68238   1.438  11.005   5.388  0.0790 -0.2268 -0.3807
85420SOL    HW168239   1.419  11.086   5.341  0.3895  0.3490  0.4625
85420SOL    HW268240   1.399  10.937   5.334  1.1757  0.3044 -1.9402
85421SOL     OW68241  13.131   0.920   1.467  0.6235  0.1292  0.1091
85421SOL    HW168242  13.065   0.851   1.476  0.0287  0.6487 -0.2746
85421SOL    HW268243  13.117   0.957   1.380  1.2497  0.4249  0.1254
85422SOL     OW68244   5.673   1.215   2.792 -0.2651  0.1319  0.0440
85422SOL    HW168245   5.761   1.177   2.791  0.9322  2.7028  0.3331
85422SOL    HW268246   5.622   1.158   2.850  0.6668 -2.4023 -1.4705
85423SOL     OW68247   7.574   2.964   0.886  0.3688 -0.5019 -0.2815
85423SOL    HW168248   7.583   2.871   0.909  2.2368 -0.4074 -0.5310
85423SOL    HW268249   7.613   2.971   0.799 -0.1550  0.4666 -0.4588
85424SOL     OW68250  10.932   2.848  10.926 -0.0268 -0.0721  0.8481
85424SOL    HW168251  10.872   2.792  10.977 -1.3010  0.0738 -0.4090
85424SOL    HW268252  10.894   2.935  10.933 -1.0635 -0.2694 -1.4221
85425SOL     OW68253   4.678   3.355   9.166 -0.9367  0.0362 -0.0444
85425SOL    HW168254   4.586   3.382   9.171 -0.7352  0.7501 -0.0880
85425SOL    HW268255   4.683   3.278   9.222 -1.3676  0.5360  0.7009
85426SOL     OW68256   1.389   7.608   3.306 -0.1951  0.7577  0.2102
85426SOL    HW168257   1.349   7.529   3.344  2.2725 -0.6616  0.1241
85426SOL    HW268258   1.463   7.574   3.256  0.2226  3.0841 -0.8438
85427SOL     OW68259   4.478   5.916   5.136 -0.5812  0.1640 -0.3183
85427SOL    HW168260   4.386   5.917   5.162 -0.7522 -0.6799 -0.8482
85427SOL    HW268261   4.519   5.853   5.196 -0.5344 -0.1400 -0.6671
85428SOL     OW68262  11.550   6.409   7.847 -0.5936  0.0854 -0.3539
85428SOL    HW168263  11.544   6.479   7.912  2.9667  1.6654 -1.4917
85428SOL    HW268264  11.638   6.374   7.857 -1.0486 -1.8243 -2.2375
85429SOL     OW68265   7.734   9.242   0.216  0.0902 -0.4216 -0.7513
85429SOL    HW168266   7.660   9.248   0.276  0.9348  0.9217  0.2244
85429SOL    HW268267   7.695   9.251   0.129 -1.0809 -1.6574 -0.3922
85430SOL     OW68268   8.267  11.784  12.797  0.0979 -0.0875 -0.4042
85430SOL    HW168269   8.196  11.796  12.861  0.4962  2.1877 -0.3118
85430SOL    HW268270   8.299  11.695  12.814  0.2882  0.4581  2.7071
85431SOL     OW68271   7.171  12.778   9.415  0.0136 -0.0812  0.1082
85431SOL    HW168272   7.259  12.789   9.378 -0.4474  3.5564 -0.2627
85431SOL    HW268273   7.121  12.850   9.378 -2.1749  0.1195  3.1305
85432SOL     OW68274   6.945   9.862   8.773  0.2393  0.6640 -0.7618
85432SOL    HW168275   7.012   9.804   8.809 -0.2424 -0.2873 -1.3421
85432SOL    HW268276   6.909   9.814   8.698 -1.5285  0.8335 -0.0881
85433SOL     OW68277   3.103   4.572  10.147 -0.7534 -0.0691  0.4611
85433SOL    HW168278   3.151   4.493  10.122  3.0233  1.6757  1.3304
85433SOL    HW268279   3.051   4.546  10.223 -0.8474 -2.0286 -0.2197
85434SOL     OW68280   6.810   6.701   9.218 -0.0588 -0.4505  0.1418
85434SOL    HW168281   6.731   6.654   9.245  0.4503 -0.8518  0.9573
85434SOL    HW268282   6.782   6.792   9.210 -0.8285 -0.7327 -0.5191
85435SOL     OW68283  10.679  11.027  12.072  0.3700  0.0313  0.1568
85435SOL    HW168284  10.643  11.083  12.004 -1.3864  1.1613  1.9236
85435SOL    HW268285  10.718  10.953  12.025 -0.5834  0.8744 -2.0472
85436SOL     OW68286   6.542   2.798   7.640 -0.3018 -0.0383  0.4313
85436SOL    HW168287   6.496   2.767   7.718  1.8545 -0.3604  1.6472
85436SOL    HW268288   6.498   2.880   7.617 -0.5831  0.4203  2.4135
85437SOL     OW68289   4.853   4.800   3.555 -0.3638 -0.3756  0.1221
85437SOL    HW168290   4.936   4.754   3.568 -0.4165 -0.1876  1.2433
85437SOL    HW268291   4.853   4.825   3.463  0.8342 -0.3479  0.1189
85438SOL     OW68292   9.143  10.771   3.134 -0.1804 -0.4000  0.3102
85438SOL    HW168293   9.051  10.746   3.138  0.0036 -1.0536  0.5572
85438SOL    HW268294   9.181  10.737   3.215 -0.0157  1.1002  0.8857
85439SOL     OW68295   1.437   8.709   5.648  0.2277  0.0846 -0.2580
85439SOL    HW168296   1.480   8.661   5.577 -2.2190 -1.6553 -0.6764
85439SOL    HW268297   1.495   8.698   5.723  2.2536  0.9028 -1.6212
85440SOL     OW68298  10.525   5.611   4.374  0.1029 -0.1366 -0.2285
85440SOL    HW168299  10.490   5.684   4.323 -0.4763 -0.5587 -0.4544
85440SOL    HW268300  10.447   5.568   4.409  0.4265 -0.7669 -0.2693
85441SOL     OW68301   4.757   8.995  12.120  0.0093 -0.4713  0.1423
85441SOL    HW168302   4.662   8.994  12.125 -0.0158  2.0847  1.4017
85441SOL    HW268303   4.786   8.942  12.194 -0.4390 -0.0472  0.6241
85442SOL     OW68304   2.905   8.777   7.540  0.5410 -0.0965  0.5575
85442SOL    HW168305   2.830   8.717   7.541 -0.0929  0.6500 -0.2903
85442SOL    HW268306   2.868   8.861   7.567 -0.0988  1.4778 -4.2950
85443SOL     OW68307  12.545   0.116  10.171 -0.5974  0.4760 -0.3182
85443SOL    HW168308  12.482   0.127  10.242  0.8977 -0.4775  1.2496
85443SOL    HW268309  12.549   0.201  10.128 -0.9188  1.3392  1.2955
85444SOL     OW68310   8.605   2.605   5.547  0.2021  0.1370  0.0125
85444SOL    HW168311   8.519   2.565   5.536  0.2493 -0.0966  0.4553
85444SOL    HW268312   8.590   2.677   5.607  0.4314 -0.3260  0.6341
85445SOL     OW68313   1.903   3.688   6.371 -0.4309  0.0618 -0.4640
85445SOL    HW168314   1.875   3.709   6.282 -0.9794 -2.4037 -0.9408
85445SOL    HW268315   1.923   3.594   6.368 -0.4543 -0.0755  2.0172
85446SOL     OW68316   0.440  10.505  11.028 -0.0838  0.2968  0.6161
85446SOL    HW168317   0.418  10.585  10.981  0.4282  0.3709  0.4968
85446SOL    HW268318   0.408  10.434  10.972 -0.4673  0.4092  0.6848
85447SOL     OW68319   3.820   2.975   8.025 -0.6066 -0.0997 -0.6480
85447SOL    HW168320   3.911   3.000   8.014 -1.0704  1.4983 -1.1334
85447SOL    HW268321   3.816   2.884   7.998  0.7569 -0.0526 -1.0541
85448SOL     OW68322   0.159  12.443   5.990 -0.1586  0.5427  0.1489
85448SOL    HW168323   0.186  12.499   6.062 -0.5991  0.3483  0.4728
85448SOL    HW268324   0.063  12.446   5.992 -0.1915  1.5330 -1.2179
85449SOL     OW68325  10.495  11.987   2.231 -0.3697  0.9438 -0.6913
85449SOL    HW168326  10.531  11.921   2.171  0.3355 -0.2181  0.9464
85449SOL    HW268327  10.406  12.001   2.199 -1.0426 -1.8538 -0.3145
85450SOL     OW68328   3.672   4.235   7.239  0.5771 -0.5960  0.8200
85450SOL    HW168329   3.587   4.190   7.239  0.2797 -0.0506  0.4010
85450SOL    HW268330   3.661   4.303   7.306 -0.2709  1.1955 -1.0515
85451SOL     OW68331   5.772   1.001   4.261  0.2079 -0.3799  0.2061
85451SOL    HW168332   5.699   1.051   4.223  0.1408 -0.6953 -0.0841
85451SOL    HW268333   5.734   0.915   4.281  0.1524 -0.1208  1.2942
85452SOL     OW68334  10.235  10.559   6.992  0.1744  0.1262  0.5928
85452SOL    HW168335  10.322  10.561   6.952 -0.7177 -0.6370 -1.5401
85452SOL    HW268336  10.189  10.487   6.947 -1.7964  0.9751  1.1156
85453SOL     OW68337   0.478   2.324   6.737  0.4601 -0.1761  0.6132
85453SOL    HW168338   0.496   2.272   6.816 -0.3265  0.4587  1.2179
85453SOL    HW268339   0.512   2.411   6.758 -0.9355  0.3478  0.7713
85454SOL     OW68340  12.610   9.222  13.521  0.2569  0.1000 -0.3285
85454SOL    HW168341  12.610   9.173  13.439  1.2090 -1.4260  0.5350
85454SOL    HW268342  12.572   9.162  13.585  0.2896  0.9605  0.5243
85455SOL     OW68343   3.391  12.125  10.760 -0.5598 -0.1126 -0.0962
85455SOL    HW168344   3.358  12.215  10.758 -2.1028 -0.6620 -0.2953
85455SOL    HW268345   3.383  12.094  10.670 -0.0209 -0.4603 -0.0337
85456SOL     OW68346   2.520  11.143   0.592  0.1404 -0.1447  0.0339
85456SOL    HW168347   2.475  11.059   0.600 -0.5342  0.2503  0.5327
85456SOL    HW268348   2.540  11.168   0.682  1.2246 -0.2302 -0.1684
85457SOL     OW68349   0.082   8.206  11.755 -0.1595 -0.2396 -0.3604
85457SOL    HW168350   0.129   8.270  11.808 -0.4339 -1.0232  0.8458
85457SOL    HW268351   0.110   8.121  11.788 -2.1395 -0.7385  0.1593
85458SOL     OW68352   2.861  11.759   2.592  0.1619  0.2676  0.5757
85458SOL    HW168353   2.841  11.685   2.534 -0.1635  0.3194  0.6206
85458SOL    HW268354   2.837  11.727   2.679 -1.1273  0.8363  0.4549
85459SOL     OW68355  12.303  12.161   4.716  0.4922 -0.3397 -0.3815
85459SOL    HW168356  12.308  12.163   4.811  0.2951  1.6919 -0.3785
85459SOL    HW268357  12.337  12.246   4.688 -1.1138 -0.1930 -2.0459
85460SOL     OW68358  12.928   8.521   0.754  0.7242 -0.4674  1.0655
85460SOL    HW168359  12.873   8.593   0.782  0.0614 -0.8967  0.8828
85460SOL    HW268360  13.011   8.562   0.728  0.4576  0.1877  1.2487
85461SOL     OW68361   9.730   0.034   9.432  0.6065  0.1937  0.0636
85461SOL    HW168362   9.740  -0.060   9.413  1.0538  0.3476 -0.4694
85461SOL    HW268363   9.676   0.036   9.511  0.6148 -0.5165  0.0974
85462SOL     OW68364   5.745   5.874   7.250 -0.0496  0.1538 -0.4613
85462SOL    HW168365   5.817   5.885   7.188  1.1965 -0.1504  0.8732
85462SOL    HW268366   5.724   5.780   7.248 -0.0708  0.1593 -0.4852
85463SOL     OW68367   2.408   4.289   8.032 -0.0254 -0.5255 -0.5860
85463SOL    HW168368   2.382   4.278   7.940  0.7786 -0.6113 -0.8133
85463SOL    HW268369   2.406   4.384   8.046 -0.0052 -0.5016 -0.7402
85464SOL     OW68370   4.722   2.641  13.491 -0.0307  0.3554 -0.5410
85464SOL    HW168371   4.762   2.572  13.544 -0.7826  0.7323  0.5334
85464SOL    HW268372   4.630   2.615  13.483  0.2766 -0.2865 -2.6448
85465SOL     OW68373   0.103   0.963  12.567 -0.3701 -0.0462 -0.4999
85465SOL    HW168374   0.122   0.962  12.661 -2.5790 -0.4934 -0.0059
85465SOL    HW268375   0.064   0.878  12.549  1.2909 -0.5299 -2.1680
85466SOL     OW68376   5.238  10.256  10.951  0.6456 -0.0117 -0.2084
85466SOL    HW168377   5.321  10.257  10.903  0.1865 -0.7591 -1.0614
85466SOL    HW268378   5.187  10.328  10.913  1.1070  0.8199  0.7180
85467SOL     OW68379   1.861   1.107   7.442  0.1983  0.1583  0.2559
85467SOL    HW168380   1.905   1.116   7.358  1.4113 -2.8337  0.4501
85467SOL    HW268381   1.905   1.171   7.499  2.3929 -0.7612 -0.3111
85468SOL     OW68382   3.843  13.987   2.126 -0.3628  0.3344  0.7640
85468SOL    HW168383   3.797  14.071   2.121 -0.5368  0.3171  1.8822
85468SOL    HW268384   3.833  13.950   2.039  0.5862  1.9060 -0.0632
85469SOL     OW68385   7.716   2.357   5.484  0.6879  0.5758 -0.0925
85469SOL    HW168386   7.702   2.282   5.426 -1.4970  0.3866  0.6210
85469SOL    HW268387   7.662   2.427   5.447  2.8191  1.9375 -0.8474
85470SOL     OW68388   2.616   1.802  10.651 -0.0348 -0.6156 -0.4221
85470SOL    HW168389   2.541   1.841  10.697  0.1898  1.1005 -1.4411
85470SOL    HW268390   2.578   1.757  10.576 -0.1859 -1.3544  0.0849
85471SOL     OW68391  11.470  11.846   8.345 -0.1320  1.0861  0.1432
85471SOL    HW168392  11.516  11.911   8.292 -0.6804 -1.1170 -3.4442
85471SOL    HW268393  11.538  11.781   8.367 -0.4799  0.4382 -0.6391
85472SOL     OW68394  10.912   7.817   5.341  0.3524  0.0795 -0.7836
85472SOL    HW168395  10.991   7.762   5.343 -0.4974 -1.1620  0.3298
85472SOL    HW268396  10.939   7.897   5.386  0.4896 -1.1278  1.4609
85473SOL     OW68397   7.950   4.504   2.345  0.3263 -0.1325  0.0394
85473SOL    HW168398   7.921   4.506   2.254 -1.2153  1.1437  0.5142
85473SOL    HW268399   7.888   4.560   2.392  3.3719  2.5575  1.2403
85474SOL     OW68400  11.284   2.570   6.039  0.5876  0.7521 -0.0584
85474SOL    HW168401  11.234   2.490   6.054 -0.7251  1.1728 -1.8359
85474SOL    HW268402  11.322   2.591   6.124  0.9589 -1.7188  0.4826
85475SOL     OW68403   9.181   9.797   9.447 -0.4322 -0.2386 -0.3874
85475SOL    HW168404   9.267   9.765   9.474  0.4211  1.6042 -0.6873
85475SOL    HW268405   9.140   9.723   9.404 -0.4081 -2.2149  2.6803
85476SOL     OW68406  13.795   6.274  11.574  0.1325  0.1504 -0.7910
85476SOL    HW168407  13.847   6.285  11.494  0.4821 -0.2816 -0.6248
85476SOL    HW268408  13.781   6.180  11.581  0.8918  0.0941  0.1462
85477SOL     OW68409   4.595  10.767  12.754  0.0579  0.2348 -0.3436
85477SOL    HW168410   4.653  10.842  12.772 -0.1904  0.1182  1.0094
85477SOL    HW268411   4.647  10.690  12.776 -0.3331  0.0940  0.1017
85478SOL     OW68412   3.880   8.230  11.638  0.4527  0.2998  0.2050
85478SOL    HW168413   3.796   8.251  11.599  0.3373  1.1237  0.8650
85478SOL    HW268414   3.860   8.215  11.731  0.6078 -2.2785 -0.1041
85479SOL     OW68415  11.034   9.600  12.593  0.2026 -0.8255 -0.1706
85479SOL    HW168416  10.973   9.648  12.538 -0.6324 -2.5300 -0.8218
85479SOL    HW268417  11.116   9.600  12.545  0.2508  0.0198 -0.1011
85480SOL     OW68418   6.003  12.430   2.927  0.1280 -0.3486 -0.0853
85480SOL    HW168419   5.971  12.351   2.885  0.5187 -0.8830  0.6032
85480SOL    HW268420   5.924  12.484   2.939 -0.2726 -0.9840  0.1912
85481SOL     OW68421   8.177   1.796   1.526 -0.3233 -0.3625 -0.4149
85481SOL    HW168422   8.188   1.703   1.543  0.2208 -0.4472 -1.2235
85481SOL    HW268423   8.082   1.810   1.528 -0.6461 -1.5325 -3.3114
85482SOL     OW68424   0.197  11.744   6.662 -0.1366 -0.1031  0.1257
85482SOL    HW168425   0.255  11.685   6.710  0.5404  0.8242  0.4900
85482SOL    HW268426   0.227  11.741   6.572  0.1477 -0.0262  0.2171
85483SOL     OW68427   7.095   7.031  12.201  0.9074  0.4725 -0.5292
85483SOL    HW168428   7.007   7.018  12.168  1.4421 -1.5655 -1.2894
85483SOL    HW268429   7.145   6.956  12.167  2.6228  0.8900  0.9274
85484SOL     OW68430   5.463   6.105   4.647  0.0884 -0.3293  0.4967
85484SOL    HW168431   5.551   6.130   4.620  0.4411 -1.4238  0.5775
85484SOL    HW268432   5.470   6.089   4.741 -0.7125  1.6708  0.9398
85485SOL     OW68433  12.585   6.784   9.591  0.3870  0.1386  0.0013
85485SOL    HW168434  12.491   6.801   9.586  0.6141  1.9841  0.9411
85485SOL    HW268435  12.596   6.732   9.670 -0.0257 -2.0630 -1.3146
85486SOL     OW68436  12.986   1.099   9.449 -0.1112 -0.1862  0.7138
85486SOL    HW168437  12.905   1.099   9.500 -0.1424  0.0957  0.6621
85486SOL    HW268438  12.983   1.180   9.399 -0.1836 -0.5644  0.0951
85487SOL     OW68439   6.795  11.397  12.332  0.6294 -0.0636 -0.2769
85487SOL    HW168440   6.711  11.431  12.304 -0.2318 -0.7245  1.3764
85487SOL    HW268441   6.804  11.314  12.284 -0.1166 -0.4574  0.2458
85488SOL     OW68442   1.532   0.281  12.165  0.6630  0.8633 -0.0734
85488SOL    HW168443   1.598   0.271  12.234 -1.2741 -1.4358  1.6307
85488SOL    HW268444   1.496   0.369  12.178  1.0888  0.8785  1.1650
85489SOL     OW68445  12.315   3.654   8.959 -0.2679 -0.2592  0.0350
85489SOL    HW168446  12.305   3.745   8.987 -0.9284 -0.5414  0.7526
85489SOL    HW268447  12.264   3.649   8.878  0.6319  0.2588 -0.5704
85490SOL     OW68448   0.794  13.894   2.346  0.6935  0.1373 -0.3604
85490SOL    HW168449   0.806  13.934   2.260  0.8543 -2.4607 -1.6334
85490SOL    HW268450   0.703  13.864   2.346  1.1256 -1.2458 -0.2982
85491SOL     OW68451  12.930  11.498   1.027  0.1385  0.0480 -0.1788
85491SOL    HW168452  13.007  11.470   0.979 -0.0625  0.7644 -0.9424
85491SOL    HW268453  12.965  11.544   1.104  0.4609 -1.4365  0.5990
85492SOL     OW68454   4.050   0.776   9.949  0.1212 -0.6117  0.4711
85492SOL    HW168455   3.965   0.814   9.971  0.6726  0.7851  0.2904
85492SOL    HW268456   4.051   0.773   9.854  0.6658  0.3313  0.4409
85493SOL     OW68457   7.291   9.398   1.960  0.0631 -0.2135 -0.6804
85493SOL    HW168458   7.261   9.316   1.920 -0.5639  0.5620 -1.8667
85493SOL    HW268459   7.273   9.465   1.893 -0.7373  1.1121  0.7916
85494SOL     OW68460   5.922   6.495   1.257 -0.3012  0.3070 -0.5229
85494SOL    HW168461   5.858   6.471   1.191  1.1607 -0.4600 -1.7403
85494SOL    HW268462   5.970   6.413   1.274  1.5004  1.2060 -1.0055
85495SOL     OW68463   7.498   2.012   2.245  0.1229  0.2598  0.2409
85495SOL    HW168464   7.424   1.950   2.241 -0.3213  0.6443  1.8701
85495SOL    HW268465   7.465   2.091   2.201 -0.1123  0.1185  0.1597
85496SOL     OW68466  11.021   8.456   8.914 -0.1273 -0.5503 -0.1542
85496SOL    HW168467  10.978   8.479   8.832  2.6342 -0.7996 -1.8088
85496SOL    HW268468  11.026   8.360   8.912  1.2831 -0.4840 -0.4628
85497SOL     OW68469   2.463   9.846   4.006  0.5242 -0.1630  0.0490
85497SOL    HW168470   2.509   9.798   3.938  1.6909 -0.7195  1.1882
85497SOL    HW268471   2.372   9.814   4.001  1.1088 -1.9696  0.2952
85498SOL     OW68472  12.361   9.629   7.912 -0.5724  0.0426 -0.2554
85498SOL    HW168473  12.328   9.719   7.915 -1.3398 -0.1978 -0.9943
85498SOL    HW268474  12.369   9.603   8.004 -0.2848  0.8815 -0.0378
85499SOL     OW68475   8.609  10.270  10.235  0.0059  0.0645  0.2645
85499SOL    HW168476   8.591  10.261  10.142  1.7886 -0.3910 -0.0719
85499SOL    HW268477   8.618  10.365  10.248  0.0009  0.1132 -0.0755
85500SOL     OW68478   7.279  12.919   0.414  0.8384  0.3973  0.2347
85500SOL    HW168479   7.207  12.859   0.394  1.0154  0.0196  0.7104
85500SOL    HW268480   7.302  12.958   0.329 -0.0340  0.6539  0.1056
85501SOL     OW68481   6.112   1.673   1.527  0.2856 -0.4831  0.0623
85501SOL    HW168482   6.100   1.584   1.492 -0.9136 -0.2024 -0.2986
85501SOL    HW268483   6.145   1.723   1.452 -1.7860 -0.0011 -0.6003
85502SOL     OW68484   1.325   2.212  12.931  0.7777 -0.1098 -0.4606
85502SOL    HW168485   1.324   2.305  12.952  0.8009 -0.2949  0.3862
85502SOL    HW268486   1.367   2.208  12.845  1.9358  0.5616  0.0480
85503SOL     OW68487   2.892   5.508  10.475 -0.2672 -0.6087  0.6799
85503SOL    HW168488   2.825   5.500  10.408 -0.0356 -0.9922  0.4878
85503SOL    HW268489   2.931   5.421  10.480 -0.9324 -0.8572  2.0003
85504SOL     OW68490   8.218   7.650   4.744  0.2310 -0.2772  0.1047
85504SOL    HW168491   8.232   7.732   4.791  0.3215  0.2010 -0.7216
85504SOL    HW268492   8.186   7.589   4.810 -0.5428  0.6288  0.5893
85505SOL     OW68493   0.212   4.734   3.037  0.1925 -0.0107  0.1707
85505SOL    HW168494   0.124   4.743   3.072  0.2722 -1.0769  0.7047
85505SOL    HW268495   0.214   4.790   2.960 -1.1088 -0.3664 -0.1338
85506SOL     OW68496   9.329   2.451  13.304  0.4146  0.4450  0.1310
85506SOL    HW168497   9.353   2.455  13.212  2.0510 -1.7723  0.3675
85506SOL    HW268498   9.240   2.485  13.308  0.1778  0.2358 -2.3037
85507SOL     OW68499  11.137   4.727   2.755 -0.3091  0.5494 -0.3610
85507SOL    HW168500  11.199   4.800   2.754  0.4688 -0.0946 -0.6980
85507SOL    HW268501  11.081   4.744   2.830 -1.3045  2.4285 -1.4740
85508SOL     OW68502   9.816  12.166   1.304  0.0272 -0.1236  0.1254
85508SOL    HW168503   9.816  12.186   1.210  2.3141 -1.1791 -0.1724
85508SOL    HW268504   9.824  12.070   1.308  0.4678 -0.0515  1.3729
85509SOL     OW68505   7.946  10.002  10.430 -0.2138  0.4936  0.5303
85509SOL    HW168506   7.952  10.021  10.524 -0.6681  0.5926  0.5415
85509SOL    HW268507   7.897   9.920  10.426 -0.9975  0.9686  0.3385
85510SOL     OW68508   3.600   9.200   7.492 -0.0807 -0.6599 -0.6054
85510SOL    HW168509   3.670   9.264   7.495 -0.5636 -0.1591  0.4836
85510SOL    HW268510   3.520   9.252   7.482 -0.3938 -1.1548 -0.7091
85511SOL     OW68511  12.621   5.268   4.340 -0.2567  0.1409 -0.7062
85511SOL    HW168512  12.634   5.279   4.434  0.1362 -1.6047 -0.5141
85511SOL    HW268513  12.705   5.294   4.301 -0.1303  0.0678 -0.4838
85512SOL     OW68514  12.208   1.047   1.894 -0.4996 -0.7587 -0.3674
85512SOL    HW168515  12.294   1.044   1.937 -0.9231  0.6378  0.6711
85512SOL    HW268516  12.152   1.094   1.957 -1.7141 -0.5767 -1.5421
85513SOL     OW68517  10.572   5.162  12.475 -0.0792 -0.2635 -0.2262
85513SOL    HW168518  10.504   5.136  12.537  0.7628  0.4259  1.0252
85513SOL    HW268519  10.523   5.186  12.396 -1.3878  0.9346  0.8859
85514SOL     OW68520   2.691   1.809   7.908 -0.8445  0.0533 -0.4350
85514SOL    HW168521   2.706   1.871   7.837 -0.2153 -0.6056 -0.8859
85514SOL    HW268522   2.770   1.755   7.911 -1.5265 -0.9645 -0.2910
85515SOL     OW68523  13.333   1.822  12.027 -0.0252  0.1033  0.3938
85515SOL    HW168524  13.361   1.913  12.031  0.3203 -0.0528  1.8334
85515SOL    HW268525  13.240   1.826  12.002 -0.1264  0.8649  0.8949
85516SOL     OW68526   0.078   8.476   0.004  0.0739 -0.2327 -0.1428
85516SOL    HW168527   0.073   8.392   0.048 -0.0786 -0.3635 -0.4088
85516SOL    HW268528   0.172   8.493  -0.004  0.1252 -0.8272 -0.9341
85517SOL     OW68529  11.491  13.639   9.429 -0.0889  0.1757 -0.6653
85517SOL    HW168530  11.565  13.580   9.441 -0.1104 -0.0689 -1.6279
85517SOL    HW268531  11.420  13.599   9.479  0.2076 -0.0110 -0.3880
85518SOL     OW68532  13.958  10.398   7.347  0.5193 -0.1087 -0.0380
85518SOL    HW168533  14.048  10.427   7.332  1.3940 -2.1691  0.8945
85518SOL    HW268534  13.966  10.320   7.401 -1.8513 -0.3640  0.0711
85519SOL     OW68535   4.673   8.016   5.041  0.0280  0.3375  0.0935
85519SOL    HW168536   4.680   8.111   5.053 -1.0616  0.5722 -0.9184
85519SOL    HW268537   4.579   7.999   5.033  0.1794 -0.8922  0.6881
85520SOL     OW68538   1.594   7.971   9.577 -0.0906  0.3383 -0.6445
85520SOL    HW168539   1.590   8.020   9.659 -0.5195  1.4018 -1.2743
85520SOL    HW268540   1.503   7.960   9.551  0.0551  0.5484 -1.2757
85521SOL     OW68541   6.062  13.304   4.382  0.5354  0.2010  0.1730
85521SOL    HW168542   6.110  13.331   4.304 -1.3010  0.4404 -0.9465
85521SOL    HW268543   6.026  13.386   4.417 -2.1462 -0.2453 -1.2299
85522SOL     OW68544   0.027  10.063   5.011  0.3310 -0.2127  0.3867
85522SOL    HW168545   0.036  10.150   4.973  0.9718 -0.9853 -1.3402
85522SOL    HW268546   0.033  10.003   4.937 -1.7415 -1.6929  1.2933
85523SOL     OW68547   1.791   4.457  10.444  0.0848  0.1507  0.0590
85523SOL    HW168548   1.751   4.498  10.521  0.9471  2.5293 -0.6723
85523SOL    HW268549   1.720   4.450  10.381  0.1225  1.5169 -0.1565
85524SOL     OW68550   7.560  11.120  13.261  0.6060 -0.0898  0.3262
85524SOL    HW168551   7.619  11.126  13.337  1.0601 -1.1981  0.0758
85524SOL    HW268552   7.617  11.095  13.188  0.0842  0.4464 -0.2767
85525SOL     OW68553  12.525   8.551  10.974  0.5538 -0.6570  0.3881
85525SOL    HW168554  12.565   8.636  10.989  0.7706 -0.5389 -0.7587
85525SOL    HW268555  12.480   8.530  11.056 -0.1084  0.8919  0.4534
85526SOL     OW68556  11.214   2.396   1.531  0.4628 -0.4274  0.1154
85526SOL    HW168557  11.196   2.321   1.588  0.3531 -1.9383 -1.7710
85526SOL    HW268558  11.243   2.356   1.448 -1.0840  1.5397 -1.4880
85527SOL     OW68559   8.852   7.472  10.606 -0.2978 -0.1803  0.2510
85527SOL    HW168560   8.884   7.393  10.561  2.1183  1.4219 -1.1231
85527SOL    HW268561   8.757   7.460  10.610 -0.0657 -3.0374 -0.0747
85528SOL     OW68562   3.272   9.992   7.115  0.0949  0.1798  0.1278
85528SOL    HW168563   3.218  10.069   7.136  0.4561  0.1896  1.0583
85528SOL    HW268564   3.342  10.027   7.060 -0.6593  0.2224 -0.8272
85529SOL     OW68565  10.926   7.873   4.671 -0.0814 -0.0942  0.1385
85529SOL    HW168566  11.018   7.870   4.698  0.4092 -0.5521 -1.5098
85529SOL    HW268567  10.895   7.783   4.678 -0.0615 -0.1492 -0.4171
85530SOL     OW68568   1.480   0.211   6.299  0.7952 -0.1076 -0.5537
85530SOL    HW168569   1.405   0.156   6.277  0.8483 -1.0302  1.3482
85530SOL    HW268570   1.530   0.217   6.218 -0.0654 -1.5269 -1.2339
85531SOL     OW68571   2.747   2.919   4.941  0.2008  0.2861 -0.0151
85531SOL    HW168572   2.794   2.948   5.019 -0.9992  1.1894  0.4190
85531SOL    HW268573   2.684   2.855   4.974  0.1659  0.1410 -0.3598
85532SOL     OW68574   9.986  12.320  11.589 -0.0685 -0.1327 -0.3912
85532SOL    HW168575   9.928  12.244  11.583 -0.7026  0.4758 -2.5713
85532SOL    HW268576   9.952  12.382  11.526  0.7023  1.8407  1.0276
85533SOL     OW68577   2.938  13.974   5.254 -0.0554  0.1915 -0.0588
85533SOL    HW168578   2.937  13.964   5.349 -0.4849 -0.8524 -0.1590
85533SOL    HW268579   2.877  14.046   5.237  0.0118  0.3749  0.4429
85534SOL     OW68580   0.780   0.596   3.126  0.1038  0.3035  0.2044
85534SOL    HW168581   0.734   0.656   3.185  0.4286 -0.8206  1.6746
85534SOL    HW268582   0.847   0.649   3.084 -0.0586  1.1110  0.9446
85535SOL     OW68583   5.496  10.085   7.330  0.5608 -0.2218  0.4460
85535SOL    HW168584   5.558  10.157   7.341  0.5464 -0.2901  0.9852
85535SOL    HW268585   5.485  10.077   7.235  0.6056  0.4457  0.3849
85536SOL     OW68586  13.732   6.349   0.339  0.5790  0.2237 -0.7365
85536SOL    HW168587  13.718   6.438   0.307  1.0871  0.7246  0.3541
85536SOL    HW268588  13.651   6.303   0.319 -0.8628  1.7104  1.1982
85537SOL     OW68589   2.066  11.254  10.974  0.4804 -0.2889  0.0568
85537SOL    HW168590   2.067  11.344  10.942 -0.0233 -0.0607  0.6589
85537SOL    HW268591   1.975  11.225  10.962  0.5079 -0.5218  0.3874
85538SOL     OW68592   2.777   5.253  12.040 -0.4174  0.4608  0.1172
85538SOL    HW168593   2.773   5.342  12.004 -0.2355  0.6219  0.4920
85538SOL    HW268594   2.790   5.197  11.963  0.3775  0.8381 -0.0315
85539SOL     OW68595   5.983   8.050   1.305  0.1633 -0.1709  0.1880
85539SOL    HW168596   6.018   8.000   1.379 -1.7362 -0.7581  0.7579
85539SOL    HW268597   5.906   8.000   1.277 -0.4266  1.2133 -0.7755
85540SOL     OW68598   9.687  11.863   0.468  0.0943  0.0574  0.2997
85540SOL    HW168599   9.637  11.935   0.508 -1.5598 -0.0067 -1.5345
85540SOL    HW268600   9.717  11.811   0.543 -4.1994 -0.9495  1.5777
85541SOL     OW68601   4.748   5.752   9.581 -0.1476  0.7215  0.0820
85541SOL    HW168602   4.763   5.749   9.486  1.0285  0.6471  0.2498
85541SOL    HW268603   4.661   5.790   9.591 -0.2522  0.8036 -1.0263
85542SOL     OW68604   4.150   3.409   9.004  0.2868  0.6883 -0.3472
85542SOL    HW168605   4.155   3.485   9.062  0.3386 -0.3923  1.1332
85542SOL    HW268606   4.075   3.359   9.037  0.5267 -0.1246 -1.0100
85543SOL     OW68607  13.617   1.561   8.266  0.5190  0.3643 -0.5222
85543SOL    HW168608  13.696   1.518   8.299  0.9922  0.7837 -1.1058
85543SOL    HW268609  13.546   1.525   8.320  1.2029  0.5916  0.5628
85544SOL     OW68610   6.172   3.273   4.846 -0.0856 -0.8358 -0.4536
85544SOL    HW168611   6.187   3.335   4.774  0.9506 -0.3328  0.1677
85544SOL    HW268612   6.231   3.302   4.916  1.6378 -3.4278 -0.6809
85545SOL     OW68613   9.806   8.387   9.186 -0.2707 -0.1254  0.2219
85545SOL    HW168614   9.773   8.333   9.257 -0.5141  1.5205  1.4074
85545SOL    HW268615   9.776   8.475   9.206  1.6508  0.8038 -0.6541
85546SOL     OW68616  10.566   6.987   4.253  0.3943 -0.0153  0.3288
85546SOL    HW168617  10.630   6.923   4.220  0.0235 -0.1351 -0.1554
85546SOL    HW268618  10.612   7.071   4.251  0.8842 -0.2568  0.9647
85547SOL     OW68619   4.942   2.747   1.742  0.3748 -0.4932  0.3048
85547SOL    HW168620   5.035   2.756   1.720 -0.0118  0.1407 -1.2383
85547SOL    HW268621   4.940   2.690   1.818  1.9924 -1.0139 -0.0148
85548SOL     OW68622   0.052   6.503   1.793 -0.3288  0.1154 -0.3415
85548SOL    HW168623   0.132   6.455   1.771 -1.2774 -1.0699 -1.3659
85548SOL    HW268624   0.070   6.593   1.766  1.2584  0.2448  1.0263
85549SOL     OW68625   1.323   0.757  11.673  0.0152  0.0044  0.0693
85549SOL    HW168626   1.296   0.702  11.746 -2.4398  0.6484 -0.2656
85549SOL    HW268627   1.246   0.810  11.653  0.4676 -0.3551 -3.1682
85550SOL     OW68628   9.877   2.540   2.800  0.1892  0.1369 -0.0877
85550SOL    HW168629   9.828   2.607   2.753 -1.0415 -1.5703 -1.3597
85550SOL    HW268630   9.843   2.457   2.767  3.2989 -1.1821 -0.3965
85551SOL     OW68631   2.597   0.550   3.125 -0.3829  0.1565 -0.0729
85551SOL    HW168632   2.690   0.557   3.101  0.5180 -0.5639  2.7686
85551SOL    HW268633   2.575   0.636   3.160  0.2027 -0.4872  2.0624
85552SOL     OW68634  13.513   3.427  10.453 -0.3555 -0.6784  0.4840
85552SOL    HW168635  13.420   3.426  10.432 -0.1760 -1.1801 -0.3343
85552SOL    HW268636  13.531   3.517  10.482 -0.6872  0.0069 -1.3007
85553SOL     OW68637   2.632   6.965  11.006  0.2739 -0.4567  0.2173
85553SOL    HW168638   2.608   6.969  10.913  0.2029 -0.2782  0.2429
85553SOL    HW268639   2.644   6.871  11.023  0.5040 -0.4730 -0.0255
85554SOL     OW68640   8.036   0.355  13.101 -0.3839  0.0501  0.0553
85554SOL    HW168641   8.036   0.374  13.008 -2.1172  1.9194  0.3582
85554SOL    HW268642   7.955   0.305  13.115  0.5587 -1.4571  0.3929
85555SOL     OW68643   5.227   3.767   6.973 -0.0651 -0.2118 -0.0721
85555SOL    HW168644   5.237   3.758   6.879  0.2631 -0.7357  0.0084
85555SOL    HW268645   5.316   3.771   7.007 -0.1675  1.8265  0.0627
85556SOL     OW68646   3.025   4.437   0.536  0.2500 -0.0307  0.4722
85556SOL    HW168647   3.062   4.364   0.486  1.7381 -0.3012  1.8692
85556SOL    HW268648   2.984   4.396   0.612 -0.7028  0.4608  0.2345
85557SOL     OW68649   9.095   5.234  12.165  0.4292  0.3522 -0.2809
85557SOL    HW168650   9.186   5.218  12.190 -0.0208 -0.8461  0.6547
85557SOL    HW268651   9.054   5.148  12.166 -0.4296  0.7064 -1.9546
85558SOL     OW68652  11.651   1.317  11.652  0.0661 -0.9985  0.5042
85558SOL    HW168653  11.699   1.280  11.727 -0.3550 -1.4309  0.5593
85558SOL    HW268654  11.703   1.394  11.627  1.5394 -2.1845 -0.2717
85559SOL     OW68655  11.937   8.917   9.408 -0.0141  0.2385  0.3537
85559SOL    HW168656  11.872   8.987   9.399 -1.3695 -0.9230  0.7532
85559SOL    HW268657  11.955   8.913   9.502 -0.3119 -0.2639  0.3912
85560SOL     OW68658   9.193   5.974  11.846 -0.0748 -0.4580 -0.0265
85560SOL    HW168659   9.261   6.016  11.792 -0.3652  1.1600  0.8244
85560SOL    HW268660   9.127   5.946  11.783  0.4344 -0.2383 -0.6742
85561SOL     OW68661  12.250   7.241   1.416  0.2682  0.3728  0.3201
85561SOL    HW168662  12.322   7.200   1.369  0.0317 -1.1803  1.2146
85561SOL    HW268663  12.287   7.265   1.501  0.1051  0.9500  0.2307
85562SOL     OW68664   9.511   2.591   8.857  0.5123 -0.0101 -0.0269
85562SOL    HW168665   9.507   2.504   8.896 -1.0834  0.0468  0.0232
85562SOL    HW268666   9.425   2.603   8.816  0.1107  2.1346  1.2815
85563SOL     OW68667   2.098  10.668   9.681 -0.5154 -0.8159  0.5191
85563SOL    HW168668   2.063  10.750   9.716 -1.2653 -1.1618  0.5894
85563SOL    HW268669   2.192  10.672   9.700 -0.3718  0.4299 -0.2615
85564SOL     OW68670   5.348   4.859   3.904 -0.3576  0.0779  0.1979
85564SOL    HW168671   5.416   4.908   3.951 -0.3443  0.8286 -0.5794
85564SOL    HW268672   5.294   4.821   3.973  0.9428 -0.6811  0.8321
85565SOL     OW68673  13.774  10.873   7.154  0.2244 -0.1915 -0.3736
85565SOL    HW168674  13.702  10.840   7.208  0.5744 -0.0015  0.2052
85565SOL    HW268675  13.734  10.945   7.104  0.0441  0.0115  0.0555
85566SOL     OW68676   7.201   9.910   8.232 -0.2416  0.1115 -0.1760
85566SOL    HW168677   7.276   9.955   8.193  0.1483 -0.6892 -0.3745
85566SOL    HW268678   7.239   9.848   8.294 -0.7048 -0.6378 -0.6218
85567SOL     OW68679   9.497   7.043   3.565  0.3788  0.0270 -0.6228
85567SOL    HW168680   9.558   6.981   3.526 -0.5250  0.0407 -2.1262
85567SOL    HW268681   9.443   7.074   3.492 -2.4780 -1.1591  0.8209
85568SOL     OW68682   0.708   2.722   5.098  0.3205 -0.1303 -0.8174
85568SOL    HW168683   0.745   2.642   5.137 -1.5661 -1.1510 -0.9985
85568SOL    HW268684   0.627   2.737   5.147  0.3911  1.4240 -1.1147
85569SOL     OW68685   1.840   9.785  10.959  0.3535  0.0783  0.4929
85569SOL    HW168686   1.760   9.826  10.927  0.8144  0.1391 -0.6023
85569SOL    HW268687   1.885   9.754  10.881  0.8636 -0.9679  1.1685
85570SOL     OW68688  10.665   8.831   7.562 -0.3102 -0.0625 -0.4121
85570SOL    HW168689  10.706   8.749   7.536  1.2673 -0.5925  3.0830
85570SOL    HW268690  10.628   8.813   7.649 -1.2787  2.5020 -0.1908
85571SOL     OW68691  11.599   3.990  13.631  0.3336  0.8420  0.2770
85571SOL    HW168692  11.633   3.924  13.691 -1.0674 -1.1580 -1.0059
85571SOL    HW268693  11.507   4.001  13.656  0.5637  2.4281  0.5332
85572SOL     OW68694   6.823  13.806   0.866  0.0154  0.0515  0.1909
85572SOL    HW168695   6.789  13.865   0.932 -0.0006  0.1563  0.0893
85572SOL    HW268696   6.820  13.719   0.907 -4.6184 -0.7816 -1.2142
85573SOL     OW68697   1.637  13.343   3.160 -0.8187 -0.7110  0.1938
85573SOL    HW168698   1.686  13.301   3.231 -1.1566 -0.4827  0.5678
85573SOL    HW268699   1.545  13.329   3.183 -0.9297 -0.9328 -0.3808
85574SOL     OW68700   9.851  13.514   1.766  0.2887  0.0088  0.3991
85574SOL    HW168701   9.852  13.428   1.809  1.5301  0.1400  0.6707
85574SOL    HW268702   9.860  13.495   1.673  0.5663 -0.1552  0.4587
85575SOL     OW68703   5.956  12.251  12.633 -0.1856 -0.0260  0.4994
85575SOL    HW168704   5.980  12.332  12.677  1.6599  0.6186 -1.5067
85575SOL    HW268705   5.879  12.220  12.680  0.4928  1.5864  2.8625
85576SOL     OW68706  12.292   1.402   1.297 -0.1243 -0.2491  0.6928
85576SOL    HW168707  12.239   1.339   1.248  0.1661 -2.4915  3.0085
85576SOL    HW268708  12.243   1.484   1.292 -1.3971 -1.0555 -1.0711
85577SOL     OW68709   8.482   5.364   7.199  0.1578  0.7452  0.1059
85577SOL    HW168710   8.464   5.270   7.199  0.5775  0.6632 -0.3159
85577SOL    HW268711   8.429   5.399   7.271 -1.8342  0.5525 -1.1972
85578SOL     OW68712  13.453   9.948   3.120 -0.1249 -0.2430  0.8725
85578SOL    HW168713  13.383   9.969   3.058  2.5066  1.1612 -1.8535
85578SOL    HW268714  13.460  10.027   3.175 -0.7754 -0.4843  1.3219
85579SOL     OW68715   1.289   0.484   7.420 -0.5369  0.2575  0.3261
85579SOL    HW168716   1.337   0.567   7.415  0.0007 -0.0732 -0.2016
85579SOL    HW268717   1.343   0.429   7.476 -1.7018  0.7701  2.0276
85580SOL     OW68718   0.278   4.529   3.993  0.2540 -0.1340 -0.5324
85580SOL    HW168719   0.195   4.548   4.037  0.0522 -0.9156 -0.5595
85580SOL    HW268720   0.257   4.528   3.900  0.4015  0.1515 -0.5718
85581SOL     OW68721   5.943   6.795   5.390 -0.0494 -0.5593  0.1449
85581SOL    HW168722   5.952   6.888   5.412  0.4216 -0.6495  0.3411
85581SOL    HW268723   5.999   6.750   5.453 -1.0068 -1.0579  0.6649
85582SOL     OW68724   3.955   7.120   1.576  0.3740  0.3039  0.4982
85582SOL    HW168725   3.911   7.036   1.562  0.9653  0.0154  0.3272
85582SOL    HW268726   4.031   7.098   1.629 -0.6023  1.0540  2.2820
85583SOL     OW68727   7.607   4.340   3.639  0.5443  0.5922 -0.0751
85583SOL    HW168728   7.531   4.335   3.697  0.4314 -1.4632 -0.3245
85583SOL    HW268729   7.670   4.279   3.677  1.9391  1.9633 -0.0951
85584SOL     OW68730   0.648   9.397  10.917 -0.2496 -0.2569  0.0164
85584SOL    HW168731   0.630   9.315  10.962 -2.0538 -1.1987 -2.2762
85584SOL    HW268732   0.721   9.377  10.858 -1.6677 -0.6947 -1.6428
85585SOL     OW68733  13.160   7.668  11.541 -0.1081 -0.1564  0.2410
85585SOL    HW168734  13.137   7.579  11.514  2.1413 -0.6493 -0.1850
85585SOL    HW268735  13.190   7.711  11.461  2.2358 -0.1867  1.0273
85586SOL     OW68736  12.473   3.022  11.997  0.2999 -0.1628 -0.1383
85586SOL    HW168737  12.482   3.017  11.902 -1.4329 -0.4344 -0.3074
85586SOL    HW268738  12.463   3.116  12.015 -1.9385 -0.2847 -0.5188
85587SOL     OW68739  12.514   8.622   9.209  0.5409 -0.2235  0.0527
85587SOL    HW168740  12.497   8.532   9.238  0.4619 -0.5951 -1.1200
85587SOL    HW268741  12.589   8.615   9.150  1.1575  0.6278  0.7116
85588SOL     OW68742   8.776  11.505   3.261  0.0673  1.0220 -0.2342
85588SOL    HW168743   8.746  11.455   3.337 -2.3837 -0.8260 -2.2347
85588SOL    HW268744   8.761  11.596   3.285 -1.0609  0.4600  1.3408
85589SOL     OW68745   8.094   8.174   4.934  0.0660 -0.2021 -0.5208
85589SOL    HW168746   8.172   8.222   4.906  1.5834 -1.6287  1.0272
85589SOL    HW268747   8.105   8.164   5.028 -2.9296  1.1046  0.0793
85590SOL     OW68748   8.458   8.750   3.865 -0.2480  0.8403 -0.0269
85590SOL    HW168749   8.446   8.714   3.953  0.8497 -0.6461 -0.4354
85590SOL    HW268750   8.452   8.674   3.807 -0.1555  1.6698 -1.1655
85591SOL     OW68751   6.668   0.407   3.769  0.0267  0.7867 -0.4383
85591SOL    HW168752   6.691   0.390   3.860  0.7292  0.2639 -0.7033
85591SOL    HW268753   6.669   0.321   3.727 -0.6924  0.9722 -0.8537
85592SOL     OW68754   1.191   6.525   4.431 -0.2672  0.0914  0.6746
85592SOL    HW168755   1.137   6.551   4.357  1.7540  1.0500 -0.5443
85592SOL    HW268756   1.138   6.546   4.508 -0.9581  2.6309 -0.3991
85593SOL     OW68757   3.927   5.589  12.841  0.2685 -0.1604  0.0214
85593SOL    HW168758   3.971   5.507  12.861  0.8848  0.1310 -0.1045
85593SOL    HW268759   3.989   5.636  12.785  0.3650  0.8192  0.9170
85594SOL     OW68760   2.696   2.489   3.097 -0.1216  0.5473  0.1812
85594SOL    HW168761   2.635   2.557   3.069 -1.6642 -0.9441 -0.2056
85594SOL    HW268762   2.652   2.447   3.171  0.5597 -0.3910  0.0588
85595SOL     OW68763   3.865   6.889   1.524  0.1356  0.1661  0.7723
85595SOL    HW168764   3.916   6.809   1.526 -0.8383 -0.5114 -0.2810
85595SOL    HW268765   3.787   6.867   1.474  0.7090  2.2625 -1.2331
85596SOL     OW68766   9.778  12.139   8.297  0.3637 -0.3012  0.9911
85596SOL    HW168767   9.856  12.091   8.269  0.2799 -0.2276  0.6323
85596SOL    HW268768   9.775  12.216   8.240 -1.0693 -1.3154 -0.3684
85597SOL     OW68769  11.128   1.961   0.265 -0.3685  0.1285 -0.0077
85597SOL    HW168770  11.159   1.996   0.182  0.7616  0.1483  0.3989
85597SOL    HW268771  11.033   1.964   0.259 -0.2978  0.4640 -1.1516
85598SOL     OW68772   2.305   5.526   6.730 -0.1187 -0.2313 -0.2879
85598SOL    HW168773   2.273   5.477   6.654 -1.1569  2.4253 -1.6987
85598SOL    HW268774   2.399   5.509   6.731 -0.1346 -0.6202 -1.9574
85599SOL     OW68775   8.162  12.639   4.318 -0.0540  0.1721 -0.2744
85599SOL    HW168776   8.255  12.637   4.338 -0.3484 -0.6011  1.1832
85599SOL    HW268777   8.131  12.722   4.355 -0.0802  0.0806 -0.0923
85600SOL     OW68778   5.341   3.227   5.057  0.5902  0.2856  0.1323
85600SOL    HW168779   5.251   3.196   5.054  0.5238  0.2959  1.3617
85600SOL    HW268780   5.377   3.205   4.971 -0.1932 -0.9110  0.0821
85601SOL     OW68781   6.493   0.453  11.708  0.3487  0.4113  0.0063
85601SOL    HW168782   6.507   0.393  11.781 -1.1424 -0.3861 -0.3295
85601SOL    HW268783   6.561   0.430  11.645  1.8006  1.2646  1.2005
85602SOL     OW68784   2.102  10.208   9.665 -0.4559 -0.7079  0.2772
85602SOL    HW168785   2.117  10.200   9.571 -4.2583 -1.3328 -0.4623
85602SOL    HW268786   2.136  10.126   9.702  1.0055 -0.4838 -0.5170
85603SOL     OW68787   1.051   0.826  11.697  0.1720  0.5158  0.2468
85603SOL    HW168788   1.044   0.752  11.637 -1.3423 -0.0111  1.0198
85603SOL    HW268789   0.971   0.876  11.682 -0.1518  0.4672  1.6650
85604SOL     OW68790   6.581   3.291   0.484 -0.0852 -0.3427 -0.0495
85604SOL    HW168791   6.570   3.384   0.505 -0.4415 -0.7717  1.8715
85604SOL    HW268792   6.623   3.291   0.398  0.6271  1.5995  0.2363
85605SOL     OW68793  10.397   7.607   9.388 -0.6466  0.9432  0.0214
85605SOL    HW168794  10.470   7.587   9.447  1.5619  0.9871 -2.4865
85605SOL    HW268795  10.394   7.703   9.386 -0.4794  0.9453 -0.1851
85606SOL     OW68796  11.385   4.034  11.497 -0.2767 -0.2279  0.1857
85606SOL    HW168797  11.460   4.075  11.453  0.1736  0.0577  1.1945
85606SOL    HW268798  11.403   3.940  11.491 -1.6394 -0.4321 -2.7181
85607SOL     OW68799   3.376  13.309   8.545 -0.4191  0.1790 -0.0287
85607SOL    HW168800   3.384  13.214   8.536 -1.5345  0.0554  0.0564
85607SOL    HW268801   3.354  13.323   8.638 -0.1348  0.5250 -0.0120
85608SOL     OW68802  12.455   9.916   0.651  0.0367 -0.3708 -0.3292
85608SOL    HW168803  12.418   9.865   0.579 -1.3748  1.9073 -1.3470
85608SOL    HW268804  12.545   9.932   0.625  0.3531 -1.8666 -0.2280
85609SOL     OW68805   4.284   9.449  10.040 -0.1353 -0.7808  0.3295
85609SOL    HW168806   4.376   9.470  10.056  0.1168 -1.7653  0.2461
85609SOL    HW268807   4.238   9.484  10.117  0.2619 -0.0541  0.2485
85610SOL     OW68808   6.983  13.329  11.740  0.4282  0.6124 -0.0753
85610SOL    HW168809   6.997  13.423  11.728  0.7982  1.1661  3.5408
85610SOL    HW268810   7.070  13.293  11.754  0.1485  0.0722  0.3216
85611SOL     OW68811   2.903  12.820   8.369 -0.6886 -0.0479 -0.3333
85611SOL    HW168812   2.877  12.768   8.293 -1.8014 -1.4586  0.9433
85611SOL    HW268813   2.847  12.897   8.367 -1.9787 -0.9534  0.0067
85612SOL     OW68814   4.884   7.836   5.008  0.0987 -0.0144 -0.6040
85612SOL    HW168815   4.965   7.888   5.003 -0.5523  1.1017  0.0339
85612SOL    HW268816   4.818   7.899   5.036 -1.2427 -0.6519 -2.2110
85613SOL     OW68817  11.718   3.753   7.981 -0.5287  0.0503 -0.2886
85613SOL    HW168818  11.633   3.741   8.023 -0.1765  1.5173  0.9173
85613SOL    HW268819  11.727   3.848   7.972  1.6354  0.0252  1.0182
85614SOL     OW68820   8.801  10.071  13.103  0.0132 -0.0025 -0.1721
85614SOL    HW168821   8.892  10.087  13.130  0.5395  2.0692 -2.6407
85614SOL    HW268822   8.786   9.978  13.120  2.0281 -0.0470  1.7793
85615SOL     OW68823  13.187   5.752   2.385  0.0517 -0.2074  0.9951
85615SOL    HW168824  13.115   5.769   2.324  0.7621  1.1144  0.5051
85615SOL    HW268825  13.248   5.824   2.372  0.9945 -0.7627  2.1343
85616SOL     OW68826   5.651   0.057   2.392  0.0850  0.2475  0.2680
85616SOL    HW168827   5.635   0.149   2.371 -3.1492  0.0296  1.2658
85616SOL    HW268828   5.625   0.010   2.312 -0.2131  0.1094  0.4441
85617SOL     OW68829   0.821   7.921   3.799 -0.3736  0.0337 -0.4321
85617SOL    HW168830   0.868   7.899   3.880  0.5421  0.8067 -0.7434
85617SOL    HW268831   0.879   7.891   3.729  1.2870  3.8445 -0.9209
85618SOL     OW68832   9.948   3.489   7.580  0.3838  0.4370  0.0674
85618SOL    HW168833   9.959   3.467   7.673  2.1014 -0.5541 -0.3023
85618SOL    HW268834  10.014   3.556   7.564 -0.1608  0.8718 -0.3534
85619SOL     OW68835  13.116   6.169  12.209  0.2195  0.8557  0.0055
85619SOL    HW168836  13.066   6.247  12.184 -1.4617 -0.4320 -0.9402
85619SOL    HW268837  13.053   6.097  12.199  1.5235 -0.5559  1.4395
85620SOL     OW68838  13.068   9.581   3.419 -0.8276 -0.1262  0.4874
85620SOL    HW168839  13.121   9.525   3.476  1.5558  1.6933  0.2081
85620SOL    HW268840  13.050   9.526   3.342  1.3993 -0.5792  0.2239
85621SOL     OW68841  13.251  10.012   6.172  0.0057 -0.1026 -0.0647
85621SOL    HW168842  13.344   9.989   6.164  0.5706  1.4793  1.2825
85621SOL    HW268843  13.226   9.983   6.259 -1.0547 -1.3155 -0.7359
85622SOL     OW68844   9.258   4.906   1.171 -0.0765 -0.4309  0.2426
85622SOL    HW168845   9.265   4.822   1.216 -1.4041 -2.2276 -2.6471
85622SOL    HW268846   9.165   4.930   1.180  0.4894  1.4464  2.0415
85623SOL     OW68847   2.749   6.045   8.762  0.5925 -0.3061 -0.4656
85623SOL    HW168848   2.816   6.067   8.696  1.9436 -0.0302  0.9338
85623SOL    HW268849   2.797   5.993   8.827 -0.2916  0.8251  1.1417
85624SOL     OW68850   6.120   8.098   1.688  0.0430  0.0212  0.3124
85624SOL    HW168851   6.072   8.153   1.750  0.8449 -0.1026  1.0596
85624SOL    HW268852   6.169   8.160   1.635  0.4669  0.0642  0.7482
85625SOL     OW68853   8.778   9.479   8.281  0.2014  1.0817 -0.3866
85625SOL    HW168854   8.742   9.445   8.199  0.4189  0.0191 -0.0525
85625SOL    HW268855   8.703   9.489   8.339  0.2222  0.5215 -0.2628
85626SOL     OW68856   0.711  13.200   7.700 -0.0181 -0.0885  0.0543
85626SOL    HW168857   0.668  13.222   7.618 -1.0449 -0.8057  0.3842
85626SOL    HW268858   0.640  13.184   7.761  0.7341  0.6382  1.1496
85627SOL     OW68859   5.275   1.695   9.096  0.4832 -0.4628  0.1351
85627SOL    HW168860   5.335   1.661   9.162 -0.0088 -1.6426 -0.0102
85627SOL    HW268861   5.199   1.726   9.147 -0.0274 -1.6509  0.1179
85628SOL     OW68862  12.102   0.177   2.037  0.3585  0.2269 -0.8675
85628SOL    HW168863  12.111   0.114   1.966 -0.7872  1.0522 -1.7833
85628SOL    HW268864  12.100   0.124   2.117  1.6779 -0.7109 -1.4217
85629SOL     OW68865   2.109   3.426   7.186 -0.2842  0.1687  0.7632
85629SOL    HW168866   2.106   3.519   7.162  0.1120  0.3134  1.2674
85629SOL    HW268867   2.077   3.381   7.108 -0.2300  0.7127  0.4182
85630SOL     OW68868   9.057   6.648   1.343  0.5436 -0.0840  0.6087
85630SOL    HW168869   9.107   6.612   1.271 -1.2074 -2.2200  0.3452
85630SOL    HW268870   8.982   6.589   1.353  0.1824  0.6770  3.5343
85631SOL     OW68871   0.592  12.215   4.603  0.2045 -0.3853 -0.7251
85631SOL    HW168872   0.649  12.139   4.614  0.9396  0.4159  1.5900
85631SOL    HW268873   0.513  12.194   4.654  0.9420  0.8440  1.0186
85632SOL     OW68874   6.990   2.989  12.706 -0.7171 -0.2555  0.6146
85632SOL    HW168875   7.024   2.971  12.619 -1.0861  0.0343  0.4087
85632SOL    HW268876   6.966   2.903  12.740 -0.0074 -0.4377  0.6732
85633SOL     OW68877   8.920   8.072   1.589  0.3386  0.0294  0.7070
85633SOL    HW168878   8.868   8.010   1.641  0.1901  0.6765  1.3396
85633SOL    HW268879   8.865   8.149   1.581  0.7590  0.3073  0.4371
85634SOL     OW68880   1.790   4.220   4.149  0.2225  0.5136  0.3980
85634SOL    HW168881   1.771   4.204   4.241 -1.4958  0.5425  0.0781
85634SOL    HW268882   1.787   4.133   4.109 -0.2448  0.6335  0.1685
85635SOL     OW68883   1.902   3.502   4.756 -0.2494  0.3386 -0.1447
85635SOL    HW168884   1.944   3.583   4.727  1.5793 -0.3158  0.5325
85635SOL    HW268885   1.857   3.469   4.678 -1.8969  2.4670 -0.1901
85636SOL     OW68886  10.366   7.831   4.297 -0.2537 -0.2861  0.6374
85636SOL    HW168887  10.405   7.799   4.215 -0.7179  0.0288  0.2904
85636SOL    HW268888  10.434   7.888   4.334  0.9860 -2.3611  1.7537
85637SOL     OW68889   3.469  10.822  11.434  0.1602  0.0361  0.1228
85637SOL    HW168890   3.553  10.827  11.479  0.5137 -2.8944 -0.0746
85637SOL    HW268891   3.478  10.881  11.359  1.3086  1.2090  1.1259
85638SOL     OW68892  10.898  12.131  13.820 -0.5134  0.2286  0.1959
85638SOL    HW168893  10.925  12.222  13.812 -0.1401  0.0749 -0.2992
85638SOL    HW268894  10.979  12.081  13.824 -0.5529  0.1675  4.2945
85639SOL     OW68895   1.181  10.215  13.503 -0.6744  0.1137  0.1129
85639SOL    HW168896   1.119  10.276  13.464 -0.6653 -1.8725 -3.5115
85639SOL    HW268897   1.265  10.236  13.461  0.0806 -0.2165  1.3998
85640SOL     OW68898   3.932  13.635   8.697 -0.1141 -0.1948 -0.1886
85640SOL    HW168899   3.858  13.697   8.697  1.0282  1.2775  2.2101
85640SOL    HW268900   3.906  13.567   8.759  0.1869 -0.1572 -0.0241
85641SOL     OW68901  10.850   9.510   3.083  0.4842  0.0319  0.0879
85641SOL    HW168902  10.873   9.582   3.141  1.0835 -1.0214  1.2304
85641SOL    HW268903  10.926   9.498   3.026  0.9328 -0.4969  0.7709
85642SOL     OW68904   3.427  13.795  13.126 -0.0864  0.2206  0.2941
85642SOL    HW168905   3.501  13.800  13.186  0.0688 -0.5526  0.1751
85642SOL    HW268906   3.363  13.740  13.171  0.6764 -1.7274 -0.8923
85643SOL     OW68907   1.691   1.663   2.447 -0.2745 -0.4591 -0.2448
85643SOL    HW168908   1.604   1.627   2.465 -0.0046 -0.5907  0.8278
85643SOL    HW268909   1.742   1.644   2.526  0.3788  0.7192 -0.3715
85644SOL     OW68910   0.425   0.073  10.993 -0.6259 -0.2178 -0.3266
85644SOL    HW168911   0.501   0.021  10.967 -1.3384 -1.2282 -0.4516
85644SOL    HW268912   0.365   0.010  11.033 -1.1778  0.6559  0.2688
85645SOL     OW68913   1.772  10.797   0.945 -0.3423 -0.2300 -0.1219
85645SOL    HW168914   1.804  10.714   0.980  0.9303  0.4907  0.4727
85645SOL    HW268915   1.806  10.863   1.005 -1.2858  0.7381 -0.6225
85646SOL     OW68916  13.926   0.336   4.340 -0.1180 -0.1169 -0.0993
85646SOL    HW168917  13.895   0.421   4.309  3.6119  0.4803 -2.9336
85646SOL    HW268918  13.906   0.276   4.267  0.1754 -0.9605  0.4968
85647SOL     OW68919   6.774   8.225   5.911  0.3955  0.3086 -0.7161
85647SOL    HW168920   6.840   8.210   5.842  0.6687  1.9677 -0.8532
85647SOL    HW268921   6.710   8.155   5.898  2.6534 -2.0715  0.1243
85648SOL     OW68922   5.544  13.648   0.390 -0.4712  0.3600 -0.6008
85648SOL    HW168923   5.600  13.719   0.423  1.6651 -1.5350  0.1030
85648SOL    HW268924   5.500  13.615   0.469  1.0212 -1.1156 -0.3336
85649SOL     OW68925   6.719   5.377   5.938 -0.0347 -1.0729  0.2337
85649SOL    HW168926   6.631   5.341   5.925 -0.3663 -0.5789  0.9938
85649SOL    HW268927   6.706   5.471   5.944  0.4443 -1.0507  1.1075
85650SOL     OW68928   2.141   9.023   3.591  0.4370 -0.5330  0.3208
85650SOL    HW168929   2.135   9.090   3.523  0.0523  0.0127  0.8824
85650SOL    HW268930   2.227   8.984   3.578  0.6036 -0.0342 -0.1216
85651SOL     OW68931   3.600   0.913   4.770 -0.3439  0.3312 -0.0584
85651SOL    HW168932   3.694   0.905   4.785 -0.3532 -0.0126 -0.1798
85651SOL    HW268933   3.584   0.865   4.689 -0.4495  1.3592 -0.6569
85652SOL     OW68934  13.993   3.056   8.928  0.5739 -0.3828  1.0593
85652SOL    HW168935  14.062   3.123   8.917 -0.2249  0.2924  0.0276
85652SOL    HW268936  13.996   3.005   8.847 -0.5895  0.0884  0.7088
85653SOL     OW68937  14.038   9.045  13.937  0.2845 -0.3812  0.0975
85653SOL    HW168938  14.092   9.042  14.016  0.5187 -1.7832 -0.0910
85653SOL    HW268939  14.011   9.136  13.930  0.2572 -0.2224  1.7993
85654SOL     OW68940   6.533   2.888  14.033  0.3109 -0.4232 -0.2287
85654SOL    HW168941   6.608   2.846  13.991 -0.4118 -0.0351 -1.9751
85654SOL    HW268942   6.457   2.843  13.996 -0.3651 -1.5107  2.2589
85655SOL     OW68943   5.620   2.666   4.088  0.4553  0.3335  0.3926
85655SOL    HW168944   5.670   2.650   4.168 -0.8982  0.3610  1.2871
85655SOL    HW268945   5.583   2.581   4.065  0.7736  0.3436 -0.1699
85656SOL     OW68946   4.433   7.731   4.021  0.1559  1.0220  0.1208
85656SOL    HW168947   4.423   7.638   4.041 -0.5215  0.9407 -0.5409
85656SOL    HW268948   4.354   7.771   4.057  0.3515  1.3170  0.2228
85657SOL     OW68949   2.700   6.231   8.477 -0.1584  0.2300 -0.0330
85657SOL    HW168950   2.755   6.198   8.548 -1.9596  0.6624  1.6670
85657SOL    HW268951   2.699   6.161   8.412  1.4145 -0.2549  0.4345
85658SOL     OW68952  10.111   8.738  10.097 -0.6253 -0.3905  0.4529
85658SOL    HW168953  10.112   8.764  10.005 -1.9089 -0.2623  0.4619
85658SOL    HW268954  10.022   8.758  10.127 -0.7737 -2.0378  1.2450
85659SOL     OW68955   5.969   7.375   7.643  0.6207  0.5658  0.1280
85659SOL    HW168956   6.062   7.383   7.663  1.0603 -0.0431 -1.5357
85659SOL    HW268957   5.962   7.393   7.550 -0.6287 -1.3194 -0.2117
85660SOL     OW68958   5.616   8.507  13.436 -0.8745  0.4004  0.8065
85660SOL    HW168959   5.631   8.484  13.344 -0.9288  1.0595  0.6292
85660SOL    HW268960   5.682   8.574  13.455 -1.2795  0.7326  1.0585
85661SOL     OW68961   0.707   5.218   5.216 -0.3391  0.5934 -0.0315
85661SOL    HW168962   0.761   5.288   5.180  0.1198  0.8807  1.1597
85661SOL    HW268963   0.625   5.262   5.241  0.0364  0.7726  0.9296
85662SOL     OW68964  13.056  13.183   3.291  0.0298  0.0890 -0.4593
85662SOL    HW168965  12.980  13.138   3.253  0.0756  0.2014 -0.6832
85662SOL    HW268966  13.130  13.125   3.274 -0.1671 -0.5629  0.7361
85663SOL     OW68967  12.993  10.258   2.891 -0.1788 -0.2244 -0.9697
85663SOL    HW168968  13.052  10.289   2.959  0.3181 -1.6363 -0.7204
85663SOL    HW268969  13.011  10.314   2.815  0.3878  0.3359 -0.4272
85664SOL     OW68970   4.589   6.756   5.404  0.6081 -0.2612 -0.2349
85664SOL    HW168971   4.600   6.798   5.318  0.4445  1.0392  0.3529
85664SOL    HW268972   4.506   6.709   5.397 -0.0543  0.8906 -0.4003
85665SOL     OW68973   5.416   6.391   1.822  0.1098  0.0395 -0.4240
85665SOL    HW168974   5.398   6.299   1.805  1.0082 -0.3418  0.6144
85665SOL    HW268975   5.379   6.407   1.909  0.0158  0.6454 -0.5711
85666SOL     OW68976   4.595   2.716   6.200 -0.2686 -0.4817  0.0082
85666SOL    HW168977   4.548   2.760   6.270 -0.4071  1.3776 -1.1935
85666SOL    HW268978   4.530   2.705   6.130 -0.4406 -3.2926  0.4700
85667SOL     OW68979   5.744   5.187  13.422 -0.1204 -0.0195 -0.1043
85667SOL    HW168980   5.717   5.249  13.490  1.4139  0.8803 -0.2747
85667SOL    HW268981   5.826   5.150  13.454  0.2694 -0.0875 -1.1348
85668SOL     OW68982   0.478  11.527   5.433  0.0645 -0.4505 -0.3015
85668SOL    HW168983   0.435  11.442   5.420  0.1027 -0.2730 -1.7662
85668SOL    HW268984   0.559  11.520   5.381 -0.7345  1.0507 -1.8315
85669SOL     OW68985   6.288  13.625   1.610 -0.4454 -0.6025  0.2060
85669SOL    HW168986   6.290  13.688   1.683 -3.1669 -1.4769  1.1670
85669SOL    HW268987   6.337  13.550   1.642  1.2285  0.2592 -0.2270
85670SOL     OW68988   5.005  11.223   0.704 -0.0701 -0.9238 -0.2276
85670SOL    HW168989   5.064  11.217   0.779 -0.8781  0.1062  0.5341
85670SOL    HW268990   4.944  11.293   0.728 -0.6857 -0.9551 -1.6197
85671SOL     OW68991   7.837   6.270   0.641  0.3776  0.2814  0.2972
85671SOL    HW168992   7.877   6.325   0.708 -0.0390  0.6237  0.2721
85671SOL    HW268993   7.895   6.276   0.566 -0.3777  1.8615 -0.2178
85672SOL     OW68994   4.660  13.275   9.030  0.2769  0.3271 -0.3199
85672SOL    HW168995   4.747  13.255   8.996  1.1850  0.8631  1.5603
85672SOL    HW268996   4.639  13.201   9.087  0.1409  0.8858  0.3616
85673SOL     OW68997  10.687  13.558   4.943 -0.4123  0.1549  0.5398
85673SOL    HW168998  10.747  13.632   4.931  0.9746 -0.8441  1.0447
85673SOL    HW268999  10.664  13.531   4.854 -1.3216  1.4434  0.3394
85674SOL     OW69000   1.210   7.609   1.028  0.2266 -0.6417  0.3938
85674SOL    HW169001   1.198   7.584   0.937 -0.2373  0.3097  0.1847
85674SOL    HW269002   1.185   7.531   1.078 -0.7295 -0.7578 -0.2536
85675SOL     OW69003   7.057   4.825   3.630 -0.7373 -0.0802  0.5059
85675SOL    HW169004   7.021   4.737   3.624 -0.0884 -0.5162  2.3103
85675SOL    HW269005   7.102   4.827   3.714 -1.7866  2.3651  1.1106
85676SOL     OW69006  11.641   2.629   8.094  0.0430  0.2718  0.2214
85676SOL    HW169007  11.697   2.623   8.171 -0.2842  1.2582  0.5454
85676SOL    HW269008  11.598   2.714   8.102  0.3876  0.6127 -1.3148
85677SOL     OW69009   4.899   2.706   7.451 -0.4102 -0.0639  0.2476
85677SOL    HW169010   4.968   2.729   7.389 -0.1024 -0.0439  0.5889
85677SOL    HW269011   4.862   2.625   7.417 -0.1330 -0.1416  0.1246
85678SOL     OW69012  12.319   5.588   8.700  0.4832  0.2064  0.6388
85678SOL    HW169013  12.244   5.542   8.663 -0.0358  1.3674  0.1732
85678SOL    HW269014  12.291   5.615   8.787  1.1282 -1.1403  1.2908
85679SOL     OW69015   7.461   4.904   3.250 -0.3281  0.0292 -0.1446
85679SOL    HW169016   7.472   4.816   3.215 -0.4694 -0.4760  1.0678
85679SOL    HW269017   7.414   4.893   3.332 -0.4054  1.2391  0.0005
85680SOL     OW69018   1.051   6.119   8.854  0.7405  0.2335  0.1438
85680SOL    HW169019   1.127   6.134   8.910  1.5166 -0.6593 -0.6342
85680SOL    HW269020   1.009   6.041   8.890  1.5216 -0.6374 -0.7671
85681SOL     OW69021   3.331  12.701   1.920  0.3145 -0.1289  0.2337
85681SOL    HW169022   3.319  12.623   1.974  0.6389 -0.2290  0.1657
85681SOL    HW269023   3.247  12.712   1.875  0.5883 -1.0642 -0.5632
85682SOL     OW69024   3.500   1.196   3.554 -0.7559 -0.0719 -0.2716
85682SOL    HW169025   3.431   1.145   3.597  0.2931 -1.5992 -0.3243
85682SOL    HW269026   3.527   1.142   3.480 -0.7510  1.3646 -1.3599
85683SOL     OW69027  11.577   7.603   3.895  0.2184  0.1999 -0.0629
85683SOL    HW169028  11.612   7.692   3.899 -1.2814  0.9295 -1.8645
85683SOL    HW269029  11.652   7.548   3.876  0.9606  1.2320 -0.1900
85684SOL     OW69030   8.820  11.390  11.581  0.0217  0.4381 -0.0313
85684SOL    HW169031   8.809  11.426  11.493  0.9218 -0.8686 -0.7052
85684SOL    HW269032   8.900  11.431  11.614  0.6857 -0.4084 -0.5464
85685SOL     OW69033   0.836   8.222  10.108 -0.6466 -0.6188 -0.1998
85685SOL    HW169034   0.867   8.300  10.062  0.9176 -1.9472 -1.5626
85685SOL    HW269035   0.819   8.251  10.197 -3.5912  2.0435 -1.4603
85686SOL     OW69036   0.815   5.584   0.316  0.1005 -0.1820 -0.1335
85686SOL    HW169037   0.816   5.490   0.333 -0.4773 -0.5802 -2.1017
85686SOL    HW269038   0.749   5.619   0.376  0.4308 -0.9812  0.7211
85687SOL     OW69039  11.906  10.308   7.933  0.0273  0.5021 -0.3958
85687SOL    HW169040  11.951  10.230   7.901 -0.7075  0.9678 -2.7562
85687SOL    HW269041  11.822  10.275   7.966  0.5658  0.0758  0.5853
85688SOL     OW69042   8.721   9.889   1.593 -0.2715  0.0450 -0.5131
85688SOL    HW169043   8.641   9.926   1.556  0.4125  1.1706 -0.8956
85688SOL    HW269044   8.761   9.961   1.641 -0.9262 -1.2527  2.1668
85689SOL     OW69045   8.897  13.861  12.411 -0.3659  0.6806  0.1927
85689SOL    HW169046   8.891  13.859  12.507 -1.1024  2.3658  0.2199
85689SOL    HW269047   8.887  13.770  12.384 -1.5392  0.3443  1.6495
85690SOL     OW69048  13.473   4.871  10.491 -0.2362  0.1117 -0.7116
85690SOL    HW169049  13.522   4.937  10.541 -1.5567 -0.2662  1.2096
85690SOL    HW269050  13.508   4.788  10.522  0.6350 -0.1532 -2.2961
85691SOL     OW69051   3.083  10.185   1.807  0.2797  0.0749 -0.0820
85691SOL    HW169052   3.133  10.265   1.790  0.0161  0.0969 -0.7720
85691SOL    HW269053   3.057  10.154   1.720  0.1918 -0.6405  0.1959
85692SOL     OW69054   4.155   6.759   5.441  0.3775  0.1976  0.2604
85692SOL    HW169055   4.180   6.851   5.453 -0.0681  0.2101  1.1991
85692SOL    HW269056   4.064   6.762   5.412  0.1145  0.0384  1.0500
85693SOL     OW69057   0.780  10.200   1.196 -0.0088  0.2146 -0.0466
85693SOL    HW169058   0.734  10.131   1.244  0.6917 -0.3362 -0.1643
85693SOL    HW269059   0.872  10.181   1.208  0.2170  1.6240  0.6288
85694SOL     OW69060   8.782   9.235   8.617  0.3232  0.2657  0.0545
85694SOL    HW169061   8.706   9.203   8.568  0.8223 -2.1929  0.7502
85694SOL    HW269062   8.854   9.234   8.552  0.0790  1.2703 -0.2491
85695SOL     OW69063   4.125   1.750   0.401  0.4478  0.3948  0.0313
85695SOL    HW169064   4.166   1.767   0.486 -0.3581  3.8042 -0.1338
85695SOL    HW269065   4.184   1.790   0.337 -0.8645  1.4368 -0.5888
85696SOL     OW69066   2.143   9.245  10.181  0.2474  0.0904 -0.7497
85696SOL    HW169067   2.174   9.176  10.122 -0.7444 -0.2648 -0.8772
85696SOL    HW269068   2.087   9.300  10.125 -0.4240 -0.0480 -0.2202
85697SOL     OW69069  10.251   6.789   6.115 -0.6283 -0.1239  0.4744
85697SOL    HW169070  10.283   6.782   6.025 -0.9963  1.4296  0.1932
85697SOL    HW269071  10.231   6.699   6.140  1.7037 -0.8847 -0.1430
85698SOL     OW69072   4.180  12.589   0.429  0.5271  0.4492  0.6221
85698SOL    HW169073   4.274  12.590   0.414  0.7053 -2.4959  0.9326
85698SOL    HW269074   4.170  12.572   0.522 -0.2340 -0.6126  0.3791
85699SOL     OW69075   6.399  13.161  12.459 -0.2270  0.6994 -0.0646
85699SOL    HW169076   6.421  13.240  12.508  0.7342 -0.4758  1.4921
85699SOL    HW269077   6.463  13.096  12.487 -0.5319 -0.4647 -1.8470
85700SOL     OW69078  10.030   1.113   5.713  0.4111  0.2355  0.3719
85700SOL    HW169079   9.955   1.061   5.743 -0.8250  0.3910 -2.1866
85700SOL    HW269080  10.069   1.147   5.793 -0.5453 -2.1314  1.9742
85701SOL     OW69081   8.627   5.230  12.104 -0.0269  0.4812  0.8581
85701SOL    HW169082   8.655   5.236  12.196  0.9784  1.5829  0.5072
85701SOL    HW269083   8.656   5.312  12.065 -1.1136  0.3466 -0.2863
85702SOL     OW69084   8.140   8.576  11.844  0.7242 -0.4805  0.3184
85702SOL    HW169085   8.178   8.588  11.931 -1.9320 -0.9097  1.6550
85702SOL    HW269086   8.069   8.513  11.857  0.2060 -0.5302 -2.1755
85703SOL     OW69087  12.626   0.573   4.619  0.0463  0.8878  0.0934
85703SOL    HW169088  12.551   0.513   4.621  1.3869 -0.8396  0.8864
85703SOL    HW269089  12.672   0.551   4.538  1.5966 -0.5767  1.3088
85704SOL     OW69090   3.612  12.494  10.781  0.4209 -0.8678  0.5815
85704SOL    HW169091   3.620  12.416  10.727 -4.2373 -0.4637 -1.1349
85704SOL    HW269092   3.629  12.566  10.720 -0.1530 -0.5018  0.8432
85705SOL     OW69093   0.263  10.161   1.344  0.1306 -0.7279 -0.3038
85705SOL    HW169094   0.192  10.185   1.285 -0.1584 -0.5959  0.0970
85705SOL    HW269095   0.291  10.244   1.383 -0.7205 -0.9892  0.9118
85706SOL     OW69096   0.491   6.271   5.370 -0.5956  0.2081 -0.2135
85706SOL    HW169097   0.419   6.285   5.432 -1.2973 -0.4539 -0.8528
85706SOL    HW269098   0.550   6.211   5.415 -0.9253  0.0011 -0.0566
85707SOL     OW69099  10.863  12.079   2.970 -0.0814 -0.1289  0.1888
85707SOL    HW169100  10.897  12.000   3.012 -3.8324 -1.3027  1.4393
85707SOL    HW269101  10.799  12.047   2.906  0.1517  1.8793 -1.1446
85708SOL     OW69102   9.559   5.935   6.362 -0.1664  0.0471  0.1968
85708SOL    HW169103   9.482   5.983   6.394  0.1650 -0.2180  1.4599
85708SOL    HW269104   9.567   5.960   6.270 -1.3711  0.5920  0.2242
85709SOL     OW69105   6.088  10.092   6.302 -0.3072  0.1466 -0.2808
85709SOL    HW169106   6.007  10.063   6.260  0.1277 -1.5499 -0.0198
85709SOL    HW269107   6.092  10.044   6.384  1.4331 -0.5728 -0.7313
85710SOL     OW69108  11.886   7.428   2.051  0.0111  0.2086 -0.0176
85710SOL    HW169109  11.895   7.470   2.136 -1.1593  0.8332 -0.1806
85710SOL    HW269110  11.876   7.500   1.989 -2.5510 -0.2378 -0.2400
85711SOL     OW69111   9.363   4.562   6.076 -0.6741 -0.1549  0.0232
85711SOL    HW169112   9.343   4.629   6.141 -0.2721  0.7172 -0.7165
85711SOL    HW269113   9.340   4.479   6.118 -1.3363  0.4549  0.9036
85712SOL     OW69114   0.052   6.625   7.572  0.2188 -0.1035  0.3465
85712SOL    HW169115   0.147   6.638   7.571  0.1561  0.3759 -0.7055
85712SOL    HW269116   0.040   6.545   7.624  1.2135 -0.3525  0.2267
85713SOL     OW69117  10.860  10.280   8.485  0.1556  0.0198  0.4877
85713SOL    HW169118  10.795  10.211   8.473  1.1548 -0.6104 -1.7558
85713SOL    HW269119  10.939  10.246   8.442  1.3858  1.6017  1.3881
85714SOL     OW69120   6.580   0.655   0.409  0.0880  0.4002  0.5340
85714SOL    HW169121   6.494   0.677   0.446 -0.1757  0.3239 -0.0226
85714SOL    HW269122   6.639   0.722   0.444 -0.2712  0.6757  0.6137
85715SOL     OW69123  12.595  13.630   7.512 -0.2612  0.4600 -0.1563
85715SOL    HW169124  12.533  13.567   7.547  0.5143  1.3136  3.1677
85715SOL    HW269125  12.548  13.713   7.513  0.1123  0.6743 -0.1689
85716SOL     OW69126  13.792  13.348   2.864 -0.1110  0.0686 -0.4910
85716SOL    HW169127  13.747  13.415   2.812  0.8647 -0.0535 -1.5268
85716SOL    HW269128  13.854  13.398   2.918  0.1660  0.0515 -0.7925
85717SOL     OW69129  12.296   4.579   4.118  0.2593  0.1102  0.0713
85717SOL    HW169130  12.284   4.534   4.034 -0.2129 -0.7142  0.5699
85717SOL    HW269131  12.274   4.670   4.099 -1.4594 -0.3382 -0.3588
85718SOL     OW69132   3.247   8.438  13.292 -0.3186  0.1329  0.1220
85718SOL    HW169133   3.278   8.385  13.365 -0.7433  1.4974  1.3327
85718SOL    HW269134   3.318   8.433  13.228  0.1508 -0.9245  0.6816
85719SOL     OW69135   4.789  12.867   1.145  0.0035 -0.2428  0.4218
85719SOL    HW169136   4.712  12.832   1.100 -0.1053  0.8878 -0.3444
85719SOL    HW269137   4.784  12.832   1.234 -0.9640 -0.8113  0.1592
85720SOL     OW69138   6.308   8.375   1.858  0.2523  0.4737 -0.3166
85720SOL    HW169139   6.372   8.331   1.802 -0.9350  0.1256 -1.4505
85720SOL    HW269140   6.295   8.315   1.932  0.7812  0.2839 -0.3676
85721SOL     OW69141   1.566   1.597   5.363 -0.0642  0.0386  0.4694
85721SOL    HW169142   1.516   1.661   5.314  0.3233  0.4554  0.6096
85721SOL    HW269143   1.500   1.548   5.413 -0.2792  1.2138  1.3974
85722SOL     OW69144  12.547   6.966  11.617  0.4179  0.3268  0.6769
85722SOL    HW169145  12.574   7.028  11.548  0.6940 -1.3876 -0.8294
85722SOL    HW269146  12.605   6.891  11.605 -1.4709 -1.2256  0.9062
85723SOL     OW69147  10.106   4.324  11.345  0.2802 -0.3508 -0.2865
85723SOL    HW169148  10.164   4.250  11.330 -1.0819 -1.0369 -2.5900
85723SOL    HW269149  10.059   4.303  11.425  0.9275 -1.2958 -0.1468
85724SOL     OW69150   4.300   8.354  10.017  0.1893  0.0170 -0.4048
85724SOL    HW169151   4.206   8.371  10.010  0.3595  0.8011 -0.9302
85724SOL    HW269152   4.333   8.359   9.927  0.7800  0.0328 -0.1962
85725SOL     OW69153   7.135   3.456   2.482  0.4007 -0.1580 -0.2448
85725SOL    HW169154   7.198   3.434   2.413  2.2570 -1.1064  1.6351
85725SOL    HW269155   7.077   3.380   2.487 -0.2972  0.2842 -1.3005
85726SOL     OW69156  11.880   3.700   2.509  0.3468  0.0071 -0.0214
85726SOL    HW169157  11.799   3.709   2.560  0.0485 -1.8925 -0.1013
85726SOL    HW269158  11.911   3.612   2.529  2.6031  0.8178  0.2519
85727SOL     OW69159   8.100   8.439   3.500 -0.0253  0.4051 -0.0041
85727SOL    HW169160   8.059   8.408   3.581  1.0407  1.7793  1.1351
85727SOL    HW269161   8.191   8.408   3.507  0.1011  0.6290 -0.6280
85728SOL     OW69162   0.454   6.566  10.081  0.3214  0.1839  0.0655
85728SOL    HW169163   0.544   6.590  10.106  0.3463  0.2161 -0.0544
85728SOL    HW269164   0.462   6.535   9.991  0.5792 -1.9557  0.7655
85729SOL     OW69165   1.164   2.281  13.740 -0.6457 -0.3635 -0.1015
85729SOL    HW169166   1.257   2.304  13.747 -0.5368  0.1603 -2.4760
85729SOL    HW269167   1.158   2.196  13.784  0.9404 -0.3992  0.1348
85730SOL     OW69168   9.426   6.957  12.138  0.0649 -0.5236 -0.9180
85730SOL    HW169169   9.477   7.030  12.105  1.6442 -1.9499 -1.7949
85730SOL    HW269170   9.342   6.963  12.091 -0.6144  1.7740  0.4480
85731SOL     OW69171  11.753  12.863   4.826  0.4430 -0.6465 -0.2128
85731SOL    HW169172  11.722  12.836   4.913 -0.7240  0.0386 -0.3901
85731SOL    HW269173  11.676  12.853   4.770  0.7863  0.2760 -0.8706
85732SOL     OW69174   4.870   3.883  13.846  0.3938  0.2640 -0.1186
85732SOL    HW169175   4.918   3.863  13.926  1.0168 -1.0368 -0.7830
85732SOL    HW269176   4.916   3.957  13.808  0.2600  0.7098  0.5736
85733SOL     OW69177   4.415   9.748   0.463  0.2786 -0.2197  0.4831
85733SOL    HW169178   4.402   9.707   0.548  1.5875  0.1967  0.9143
85733SOL    HW269179   4.510   9.748   0.451  0.1853  0.8346 -0.4160
85734SOL     OW69180  11.114   9.859   5.041 -0.8494  0.2759 -0.0089
85734SOL    HW169181  11.092   9.866   5.133  0.3935 -0.1670  0.3401
85734SOL    HW269182  11.196   9.907   5.031 -0.0155 -1.1657 -0.4911
85735SOL     OW69183  13.657   2.572   2.393 -0.2088 -0.4465  0.3244
85735SOL    HW169184  13.617   2.584   2.479  1.4194  1.2756  0.9068
85735SOL    HW269185  13.682   2.480   2.390 -2.8763 -1.2494  0.4764
85736SOL     OW69186   7.120   9.505  13.303  0.0210  0.2357 -0.3029
85736SOL    HW169187   7.166   9.427  13.273 -0.0268  0.0339  0.1479
85736SOL    HW269188   7.079   9.479  13.385 -0.1558  0.6794 -0.2485
85737SOL     OW69189   1.839   5.712   0.578  0.4433 -0.5320 -0.7321
85737SOL    HW169190   1.752   5.693   0.542  0.3479 -0.6716 -0.4334
85737SOL    HW269191   1.893   5.638   0.552  0.4156 -0.5521 -0.7325
85738SOL     OW69192  13.444   6.979   2.404  0.2924 -0.0225 -0.2023
85738SOL    HW169193  13.514   7.037   2.436  0.3686  0.1535 -0.6880
85738SOL    HW269194  13.416   6.930   2.482  1.2579 -0.4109 -0.0897
85739SOL     OW69195   2.995   9.000   2.606 -0.0813  0.2548 -0.7263
85739SOL    HW169196   2.944   9.002   2.687  0.5555  1.2194 -0.3281
85739SOL    HW269197   2.935   8.963   2.541 -0.3403 -1.3203  0.3419
85740SOL     OW69198   0.052  11.847   5.146  0.5414  0.2016  0.3710
85740SOL    HW169199   0.128  11.847   5.204  0.6635  2.0042  0.2549
85740SOL    HW269200   0.089  11.854   5.058  0.2578  1.1602  0.3178
85741SOL     OW69201   9.078   3.299   1.002 -0.2589  0.5849  0.5895
85741SOL    HW169202   9.067   3.228   0.938 -0.3637  2.3093 -1.4121
85741SOL    HW269203   8.996   3.299   1.052  0.4886 -1.8813  1.9618
85742SOL     OW69204   7.058   6.583   1.295  0.0334 -0.5112 -0.5638
85742SOL    HW169205   6.964   6.588   1.311  0.1090 -0.0438 -0.2685
85742SOL    HW269206   7.073   6.492   1.266 -0.1905 -1.2013  1.3623
85743SOL     OW69207  13.235  13.270  11.381 -0.2703 -0.0803  0.1935
85743SOL    HW169208  13.146  13.302  11.392 -1.2130 -2.0469 -1.1622
85743SOL    HW269209  13.261  13.300  11.294 -0.9621 -2.3177 -0.8602
85744SOL     OW69210  13.328   0.603  10.149  0.1828  0.4858  0.6012
85744SOL    HW169211  13.376   0.531  10.109  1.1989  1.0144  0.8253
85744SOL    HW269212  13.270   0.636  10.080  1.6411  1.1593 -0.3471
85745SOL     OW69213   9.209   5.784  12.546  0.1236 -0.2826  0.2068
85745SOL    HW169214   9.303   5.794  12.534  0.4397 -2.2231  0.7272
85745SOL    HW269215   9.181   5.864  12.589  1.1143  1.3107 -1.9389
85746SOL     OW69216   7.933   6.156  10.203 -0.2334  0.9513 -0.1242
85746SOL    HW169217   7.897   6.127  10.286  0.6287  1.1008  0.3054
85746SOL    HW269218   7.862   6.208  10.163 -2.1510 -2.2901 -1.3009
85747SOL     OW69219   7.989   2.805  10.685  0.2459  0.1692 -0.3631
85747SOL    HW169220   8.013   2.862  10.757 -0.8598  0.8948 -0.5481
85747SOL    HW269221   8.065   2.748  10.673  1.0381  1.0465  0.3677
85748SOL     OW69222   0.124  13.810   8.568 -0.0619 -0.1900 -0.3798
85748SOL    HW169223   0.030  13.802   8.585  0.0770 -0.5428  0.2277
85748SOL    HW269224   0.165  13.800   8.653  0.3943  2.6406 -0.1679
85749SOL     OW69225   8.367   4.794   7.656 -0.2218 -0.5268  0.3985
85749SOL    HW169226   8.393   4.818   7.745 -0.4038 -1.1087  0.6158
85749SOL    HW269227   8.294   4.852   7.636  0.2471  0.0642  0.3718
85750SOL     OW69228   7.951   6.024   9.325 -0.0886  0.0009  0.1300
85750SOL    HW169229   7.959   5.936   9.362  1.0317  0.1497  0.2730
85750SOL    HW269230   8.023   6.073   9.364 -0.2219  0.7730 -0.5613
85751SOL     OW69231  12.169  10.430   9.148  0.3118 -0.3974  0.4630
85751SOL    HW169232  12.120  10.425   9.231  0.2415 -0.2457  0.4316
85751SOL    HW269233  12.154  10.345   9.106 -1.5443  0.3162 -0.4452
85752SOL     OW69234   6.643   8.334   9.258  0.8111  0.5137 -0.4655
85752SOL    HW169235   6.710   8.266   9.266  0.7641  0.4928 -0.2226
85752SOL    HW269236   6.563   8.287   9.234  0.8101  0.4965 -0.4308
85753SOL     OW69237   0.669  13.748  10.505 -0.0345 -0.2335 -0.0720
85753SOL    HW169238   0.727  13.757  10.581 -0.5956  1.6391  0.1813
85753SOL    HW269239   0.704  13.811  10.442 -0.3749 -0.8272 -0.8679
85754SOL     OW69240   3.439   9.988  10.641 -0.3744 -0.2777 -0.1249
85754SOL    HW169241   3.484   9.918  10.593  2.1662 -0.7908  2.6946
85754SOL    HW269242   3.462  10.068  10.593  0.0007 -0.9660 -1.1384
85755SOL     OW69243   2.851   8.590   5.911  0.6513 -0.4329  0.4528
85755SOL    HW169244   2.887   8.597   5.823 -0.7904  0.1823 -0.1092
85755SOL    HW269245   2.765   8.630   5.906 -0.0408 -1.6490  1.8202
85756SOL     OW69246   6.864   9.500  11.747 -0.2859  0.0973  0.5414
85756SOL    HW169247   6.790   9.451  11.781 -0.2720 -0.6961 -0.5182
85756SOL    HW269248   6.882   9.460  11.662 -0.0493  1.7219 -0.2046
85757SOL     OW69249  11.163  12.175   5.533 -0.5985 -0.3166 -0.0354
85757SOL    HW169250  11.075  12.203   5.505 -1.4663 -0.1809  2.5560
85757SOL    HW269251  11.151  12.085   5.562 -0.5694  0.4697  2.7354
85758SOL     OW69252  12.040   8.475   8.085 -0.1829  0.1143 -0.2454
85758SOL    HW169253  12.089   8.557   8.086  1.0776 -0.5582 -1.7623
85758SOL    HW269254  12.002   8.471   7.996  0.8909 -1.5361 -0.6648
85759SOL     OW69255   2.363   7.401   8.848 -0.0091  0.1981 -0.1324
85759SOL    HW169256   2.453   7.384   8.876  0.0562  0.9011  0.1046
85759SOL    HW269257   2.360   7.495   8.832 -0.9182  0.3246  0.6864
85760SOL     OW69258   2.546  11.761   2.382  0.1029 -0.0541  0.0782
85760SOL    HW169259   2.467  11.810   2.402  0.1736 -0.1188  0.5419
85760SOL    HW269260   2.572  11.791   2.295 -1.9483 -2.0241 -1.3184
85761SOL     OW69261   9.982  10.816  13.356  0.0834  0.2183 -0.2780
85761SOL    HW169262   9.979  10.721  13.351  1.9248  0.1906 -2.0387
85761SOL    HW269263  10.051  10.835  13.419 -1.6345  0.4631  1.6278
85762SOL     OW69264  10.438   6.960   4.510  0.1056  0.1864 -0.1928
85762SOL    HW169265  10.523   6.987   4.545 -0.8494  2.3103  0.6188
85762SOL    HW269266  10.456   6.941   4.418  1.2312  1.8983 -0.3765
85763SOL     OW69267   9.767  11.618  11.946 -0.0589 -0.5145  0.6030
85763SOL    HW169268   9.815  11.700  11.942 -0.8009 -0.0428  1.0536
85763SOL    HW269269   9.812  11.560  11.884 -0.6739  0.8400 -1.1949
85764SOL     OW69270  10.351   5.399   3.483 -0.6415 -0.4461 -0.0964
85764SOL    HW169271  10.303   5.385   3.401 -1.3093 -1.2879  0.4217
85764SOL    HW269272  10.308   5.474   3.524 -1.9941 -1.5980  0.6775
85765SOL     OW69273  10.416   8.354   5.513  0.1828  0.9261 -0.1689
85765SOL    HW169274  10.466   8.281   5.548 -1.5009 -0.3035 -0.2057
85765SOL    HW269275  10.477   8.428   5.514  1.3525  0.0004  1.6777
85766SOL     OW69276   8.560   3.105   0.139 -0.0402 -0.1351 -0.4859
85766SOL    HW169277   8.570   3.170   0.209  0.6895 -1.4039  0.6268
85766SOL    HW269278   8.475   3.126   0.099 -1.1435 -0.1887  1.6597
85767SOL     OW69279   5.682   9.487   3.127 -0.3014  1.0134  0.4237
85767SOL    HW169280   5.721   9.564   3.167  0.7693  0.0154  1.3837
85767SOL    HW269281   5.657   9.432   3.202  0.5518 -0.3266 -0.2426
85768SOL     OW69282   6.458  13.631  12.607 -0.5253  0.0271  0.5791
85768SOL    HW169283   6.524  13.686  12.564 -0.1776 -0.5841  0.3096
85768SOL    HW269284   6.453  13.666  12.697 -1.3195  1.3638  0.0448
85769SOL     OW69285   2.650   3.802   2.334 -0.4982 -0.6035  0.0903
85769SOL    HW169286   2.733   3.848   2.340 -1.0553  0.2156  3.4007
85769SOL    HW269287   2.584   3.871   2.328 -1.0790 -1.2401 -2.7518
85770SOL     OW69288   4.163   1.852   1.024 -0.4072 -0.0856  0.1408
85770SOL    HW169289   4.217   1.774   1.018 -0.8760 -0.3776 -0.4836
85770SOL    HW269290   4.113   1.841   1.105 -0.9262 -0.7471 -0.2546
85771SOL     OW69291  13.245   0.709   5.207 -0.1328 -0.3665  0.3910
85771SOL    HW169292  13.257   0.636   5.147  0.7590 -0.1320  0.2801
85771SOL    HW269293  13.329   0.719   5.252 -0.7487 -0.4897  1.6398
85772SOL     OW69294   1.948   4.552   6.160 -0.1467  0.6149 -0.4873
85772SOL    HW169295   1.966   4.458   6.157 -0.7921  0.4930 -0.6846
85772SOL    HW269296   2.017   4.588   6.216  0.7344  0.1804 -1.2645
85773SOL     OW69297   3.353   2.061   2.224  0.1204  0.7628 -0.1032
85773SOL    HW169298   3.349   2.116   2.303  0.3076 -2.1810  2.1178
85773SOL    HW269299   3.293   1.988   2.243  1.1188 -0.6862 -2.1745
85774SOL     OW69300   4.484   4.414   4.651 -0.0400 -0.3932 -0.2155
85774SOL    HW169301   4.461   4.423   4.558  0.5041 -0.0836 -0.3237
85774SOL    HW269302   4.433   4.338   4.681  1.1404 -1.6256 -1.2218
85775SOL     OW69303   6.488  12.495  13.004 -0.2464  0.5034  0.6205
85775SOL    HW169304   6.454  12.575  12.963 -0.1678  0.2458  0.0428
85775SOL    HW269305   6.553  12.462  12.942 -1.7471 -1.1355 -0.1757
85776SOL     OW69306   0.261  11.053   3.058 -0.1931  0.4266  0.1249
85776SOL    HW169307   0.255  11.018   2.969 -0.0532 -2.2275  1.0581
85776SOL    HW269308   0.289  10.978   3.111 -1.9128  1.4595  2.6786
85777SOL     OW69309  13.569  11.142   3.270 -0.0785 -0.2607  0.6359
85777SOL    HW169310  13.608  11.059   3.294 -0.6133 -0.4460  0.8748
85777SOL    HW269311  13.638  11.207   3.285  0.2671 -0.6305  0.6534
85778SOL     OW69312  11.188   5.555  11.784  0.0896  0.3579 -0.0110
85778SOL    HW169313  11.128   5.502  11.837  2.0893 -1.1962  0.8290
85778SOL    HW269314  11.130   5.607  11.728 -2.0267 -1.1730  0.6050
85779SOL     OW69315   8.101   1.199   6.255 -0.0273 -0.1631  0.3524
85779SOL    HW169316   8.127   1.127   6.198  2.7479  1.6644 -0.9239
85779SOL    HW269317   8.169   1.200   6.323 -1.0897  0.1417  1.4420
85780SOL     OW69318   5.148  11.369   7.914 -0.1483  0.2062 -0.3975
85780SOL    HW169319   5.165  11.335   7.826  0.1836  0.0572 -0.2797
85780SOL    HW269320   5.225  11.342   7.965 -0.6056 -0.2139  0.0801
85781SOL     OW69321  11.596   1.738   8.867 -0.1714  0.3434  0.0788
85781SOL    HW169322  11.587   1.645   8.847 -1.9056  0.5654 -0.3351
85781SOL    HW269323  11.628   1.777   8.785  0.5106  0.1288  0.2389
85782SOL     OW69324  12.392   5.789   4.465  0.1061  0.3992  0.0871
85782SOL    HW169325  12.408   5.877   4.430 -0.9364  0.5463 -0.0603
85782SOL    HW269326  12.307   5.796   4.508  0.3412 -0.3628  0.6888
85783SOL     OW69327   4.660   3.479   1.670  0.5197 -0.1796  0.3503
85783SOL    HW169328   4.711   3.456   1.748  0.1344  0.7359  0.8834
85783SOL    HW269329   4.615   3.398   1.647  0.1496 -0.3036  1.4623
85784SOL     OW69330   0.196   1.910   6.127 -0.0574 -0.1850  0.3924
85784SOL    HW169331   0.202   2.005   6.118 -0.5311 -0.1552  0.3692
85784SOL    HW269332   0.155   1.881   6.046  0.4307 -0.4540  0.2325
85785SOL     OW69333   4.418   1.858   5.808  0.1638  0.0807  0.3246
85785SOL    HW169334   4.419   1.897   5.895  0.5855  2.6845 -0.7525
85785SOL    HW269335   4.510   1.862   5.779  0.0337 -0.7677 -0.2441
85786SOL     OW69336  13.050  12.712  11.118  0.1047 -0.5007 -0.4200
85786SOL    HW169337  12.991  12.637  11.125 -1.8865  0.9568 -0.9058
85786SOL    HW269338  13.005  12.773  11.060  1.9914  0.7939 -0.6015
85787SOL     OW69339   7.004  13.646   5.877  0.3194 -0.0166  0.0729
85787SOL    HW169340   6.993  13.692   5.961 -0.5005  0.0957 -0.0882
85787SOL    HW269341   6.951  13.567   5.886 -1.2712  0.8662 -0.9800
85788SOL     OW69342  13.047  13.986  13.028  0.5180  0.8289 -0.5153
85788SOL    HW169343  13.094  14.036  12.962  0.0584  1.3105 -0.4841
85788SOL    HW269344  13.106  13.981  13.102  0.5232  1.4318 -0.4738
85789SOL     OW69345   4.501   5.590   1.678 -0.0360 -0.1414  0.2480
85789SOL    HW169346   4.510   5.570   1.771 -1.4570 -1.4899  0.1232
85789SOL    HW269347   4.407   5.603   1.665  0.2949  1.5670 -0.7225
85790SOL     OW69348  12.560  13.902   4.453  0.3886 -0.0957 -0.3287
85790SOL    HW169349  12.640  13.881   4.501  0.3464  0.9940  0.2490
85790SOL    HW269350  12.492  13.850   4.495  0.2486  1.2391  1.1924
85791SOL     OW69351   1.341   4.156  10.649 -0.5946 -0.7067  0.7784
85791SOL    HW169352   1.406   4.216  10.686  1.2024 -1.5926 -0.8641
85791SOL    HW269353   1.328   4.186  10.559 -2.7027 -0.3956  1.1242
85792SOL     OW69354  12.348   1.734   4.313  0.1894  0.2795 -0.4201
85792SOL    HW169355  12.388   1.696   4.391  0.4106 -0.2320 -0.7787
85792SOL    HW269356  12.260   1.695   4.310  0.3780 -0.1300 -0.7273
85793SOL     OW69357  10.050  13.374  11.075  0.5196 -0.3526 -0.1948
85793SOL    HW169358  10.140  13.408  11.078 -0.0546  1.3181 -0.6930
85793SOL    HW269359  10.049  13.305  11.141  2.4038 -1.0202 -0.7954
85794SOL     OW69360   9.133  10.082   6.465  0.5902  0.2320 -0.0995
85794SOL    HW169361   9.214  10.131   6.450  1.0250 -0.4281  0.0804
85794SOL    HW269362   9.134  10.063   6.559 -0.5389  1.5587  0.2151
85795SOL     OW69363  13.593   1.365   4.195 -0.4170 -0.0443  0.2814
85795SOL    HW169364  13.679   1.376   4.237 -0.5701 -1.0721  0.8835
85795SOL    HW269365  13.532   1.407   4.255 -0.4262 -0.0047  0.2435
85796SOL     OW69366   7.149  12.819  12.249 -0.1769  0.6327 -0.2516
85796SOL    HW169367   7.212  12.865  12.306  2.2713 -0.2662 -2.0651
85796SOL    HW269368   7.141  12.732  12.288 -0.5005  0.8078  0.0896
85797SOL     OW69369   4.738  11.144   7.802  0.0422  0.0520 -0.0913
85797SOL    HW169370   4.662  11.156   7.745 -0.5801 -0.9968  0.4867
85797SOL    HW269371   4.812  11.137   7.741 -0.0718  2.4148 -0.6194
85798SOL     OW69372   1.773   8.889   9.201  0.2167 -0.2849  0.4171
85798SOL    HW169373   1.842   8.934   9.249  1.1260 -1.1344 -0.0495
85798SOL    HW269374   1.810   8.803   9.181  0.0031  0.0974 -1.9954
85799SOL     OW69375  11.342   0.035  13.833  0.2124 -0.4444 -0.8628
85799SOL    HW169376  11.360   0.110  13.776 -1.4659  1.7740  1.2970
85799SOL    HW269377  11.425   0.018  13.877  0.3595  0.9306 -0.5529
85800SOL     OW69378   6.224   3.285  12.984 -0.7394 -0.2947  0.1058
85800SOL    HW169379   6.286   3.340  12.936 -1.7521 -0.9453 -2.0761
85800SOL    HW269380   6.278   3.212  13.016 -0.1365 -0.1998 -0.6531
85801SOL     OW69381   3.513   5.629  13.742 -0.4091 -1.2305 -0.4176
85801SOL    HW169382   3.462   5.566  13.792 -1.0053 -0.8977 -0.5884
85801SOL    HW269383   3.562   5.679  13.807  1.0476 -2.6684 -0.3442
85802SOL     OW69384   5.866   0.213   6.007 -0.0049  0.6034 -0.2031
85802SOL    HW169385   5.839   0.173   6.090 -0.3567  1.5188  0.1402
85802SOL    HW269386   5.801   0.281   5.991 -0.0224  0.3429 -1.3184
85803SOL     OW69387   2.111   8.511   9.345  0.0705 -0.2175 -0.0731
85803SOL    HW169388   2.118   8.437   9.285  0.6361 -0.1654 -0.0750
85803SOL    HW269389   2.068   8.475   9.423 -1.0899 -0.1769 -0.6780
85804SOL     OW69390   0.077   0.123   1.677 -0.2521  0.2954  0.3235
85804SOL    HW169391   0.010   0.072   1.724  0.3107 -1.3351 -0.5578
85804SOL    HW269392   0.116   0.178   1.744  0.0178 -1.4158  1.6547
85805SOL     OW69393  11.876   0.375  12.200  0.6351 -0.1243 -0.1577
85805SOL    HW169394  11.905   0.411  12.116  1.2728 -0.0966  0.0631
85805SOL    HW269395  11.825   0.446  12.240 -0.0394 -0.2960 -0.7055
85806SOL     OW69396  11.691   1.616   5.367  0.3485  0.5428 -0.1754
85806SOL    HW169397  11.623   1.662   5.319 -0.6494  3.0103  3.2061
85806SOL    HW269398  11.644   1.549   5.416  0.3381  1.8069  1.6390
85807SOL     OW69399   3.824   4.906   5.731 -0.2709  0.9482  0.1634
85807SOL    HW169400   3.753   4.875   5.787  0.5034  0.9451  1.1613
85807SOL    HW269401   3.815   4.854   5.651 -0.4072 -0.2041  0.9002
85808SOL     OW69402   3.158   8.656   0.989  0.1152 -1.1396 -0.1887
85808SOL    HW169403   3.085   8.643   1.050 -1.8732 -0.7221 -2.3081
85808SOL    HW269404   3.189   8.744   1.008 -1.4596 -0.4382 -0.6747
85809SOL     OW69405   7.963  10.556   0.613 -0.0218  0.2664  0.0417
85809SOL    HW169406   7.958  10.572   0.707 -0.9099 -3.3710  0.7649
85809SOL    HW269407   8.052  10.583   0.588  0.6438  0.1993  2.1690
85810SOL     OW69408   3.327   5.597   2.626 -0.0093  0.0937 -0.4032
85810SOL    HW169409   3.381   5.643   2.562  0.7614  0.4370  0.4662
85810SOL    HW269410   3.352   5.634   2.711 -1.4749  0.1121  0.0571
85811SOL     OW69411   2.681   4.484  11.823 -0.1967  0.0106 -0.4220
85811SOL    HW169412   2.738   4.485  11.746 -0.3523  2.3160 -0.5666
85811SOL    HW269413   2.738   4.462  11.896  0.2991 -0.4391 -0.9360
85812SOL     OW69414   7.529   9.379  11.171  0.3902 -0.0233  0.0277
85812SOL    HW169415   7.506   9.403  11.081  0.6568 -2.1441 -0.6674
85812SOL    HW269416   7.621   9.405  11.179  0.7780 -1.0406 -0.8176
85813SOL     OW69417  10.197   7.492   8.261 -0.0121  0.3989  0.3172
85813SOL    HW169418  10.267   7.505   8.326  1.1610 -0.7948 -0.6406
85813SOL    HW269419  10.132   7.438   8.306 -0.2397  1.3420  1.1560
85814SOL     OW69420  11.256  11.385   6.241  0.8145 -0.2225  0.2547
85814SOL    HW169421  11.330  11.325   6.228 -0.1203 -1.0592 -1.5310
85814SOL    HW269422  11.206  11.380   6.159  1.1794  3.7572 -0.3911
85815SOL     OW69423   8.962  13.364   9.758  0.5068 -0.0559 -0.5600
85815SOL    HW169424   8.891  13.319   9.804  2.1668 -0.7306  1.4781
85815SOL    HW269425   8.950  13.456   9.781  2.0672 -0.4840  2.6156
85816SOL     OW69426  12.991  11.889   0.439  0.5697  0.2824  0.5012
85816SOL    HW169427  12.989  11.854   0.529  2.3795  0.3449  0.5947
85816SOL    HW269428  13.021  11.815   0.386 -1.2583 -0.0071 -0.2340
85817SOL     OW69429   8.106  12.459   8.116 -0.6380 -1.0129 -0.2731
85817SOL    HW169430   8.173  12.522   8.140 -1.6509 -0.6013  1.6976
85817SOL    HW269431   8.117  12.387   8.179 -0.9769 -1.7231 -1.0085
85818SOL     OW69432   8.365   1.809  11.913  0.2098  0.8601  0.4726
85818SOL    HW169433   8.386   1.721  11.884  0.5920  0.6973  1.2159
85818SOL    HW269434   8.441   1.836  11.965 -1.1346  0.4488  2.8336
85819SOL     OW69435  10.594  12.869   3.863 -0.5937  0.4811  0.3750
85819SOL    HW169436  10.589  12.899   3.953  0.6319 -0.4340  0.7723
85819SOL    HW269437  10.636  12.941   3.815  0.0221  0.4152  0.8127
85820SOL     OW69438   2.735  11.615   6.334 -0.4703  0.7867  0.1392
85820SOL    HW169439   2.733  11.624   6.239 -0.9263 -1.5147 -0.1291
85820SOL    HW269440   2.650  11.574   6.356 -0.0638  0.5795  1.4337
85821SOL     OW69441   3.917   6.519   1.883  0.2163  0.5284 -0.1520
85821SOL    HW169442   3.936   6.425   1.878 -0.6000  0.3650 -0.3664
85821SOL    HW269443   4.003   6.561   1.881  0.8643 -0.3193  3.5192
85822SOL     OW69444   1.032  13.616   0.148  0.7546  0.0777 -0.2436
85822SOL    HW169445   1.055  13.675   0.221 -0.1128 -0.5967  0.5915
85822SOL    HW269446   1.032  13.673   0.071 -0.0614  1.1828  0.5404
85823SOL     OW69447   4.653   5.035  13.273  0.5591  0.4309  0.6015
85823SOL    HW169448   4.721   5.089  13.314  1.6296 -0.0614 -0.4498
85823SOL    HW269449   4.702   4.963  13.233 -0.3666  1.0384 -1.7761
85824SOL     OW69450   5.019  12.737  11.064  0.0336 -0.1708  0.0990
85824SOL    HW169451   5.104  12.768  11.094  0.0625  0.1083 -0.2695
85824SOL    HW269452   4.972  12.816  11.036 -0.5678 -0.2513  0.8465
85825SOL     OW69453  12.526   0.520   0.523 -0.3054 -0.2649  0.2007
85825SOL    HW169454  12.482   0.444   0.485 -1.9366  0.0809  1.2880
85825SOL    HW269455  12.611   0.485   0.552 -0.7963 -1.5478  0.1851
85826SOL     OW69456   1.070  12.222   5.422 -0.0423  0.4783  0.1791
85826SOL    HW169457   1.029  12.157   5.365 -0.0196  0.2723  0.3978
85826SOL    HW269458   1.079  12.178   5.506  1.1065  0.3262 -0.0059
85827SOL     OW69459  12.045   5.678   5.613  0.2608 -0.4923  0.2979
85827SOL    HW169460  11.979   5.614   5.638  0.7718 -0.6948  1.1708
85827SOL    HW269461  12.123   5.652   5.661  1.7010 -1.6361 -2.4524
85828SOL     OW69462  11.355   9.571   3.368 -0.7231 -0.0507  0.6139
85828SOL    HW169463  11.267   9.548   3.398 -1.2492 -0.3301 -1.0365
85828SOL    HW269464  11.408   9.495   3.391 -1.4925 -1.0332 -0.7106
85829SOL     OW69465  11.426  10.257   4.196 -0.4246 -0.2443  0.3448
85829SOL    HW169466  11.403  10.221   4.281  1.7248 -0.8305  0.7359
85829SOL    HW269467  11.472  10.186   4.151 -0.9453  0.2651 -1.0669
85830SOL     OW69468   7.262   5.668   1.656 -0.0904  0.4413 -0.4843
85830SOL    HW169469   7.251   5.647   1.749  2.7057  0.6814 -0.0303
85830SOL    HW269470   7.210   5.602   1.610  0.5142 -1.2922  1.1990
85831SOL     OW69471   4.012   4.283   1.842  0.3026  0.0349  0.2739
85831SOL    HW169472   3.975   4.313   1.760  0.6799  0.9428  0.4225
85831SOL    HW269473   4.008   4.187   1.837  2.3315 -0.0454 -1.7769
85832SOL     OW69474   9.263   6.018  12.985  0.0278  0.5502 -0.0550
85832SOL    HW169475   9.296   5.981  13.067  0.6961 -0.8667 -0.9185
85832SOL    HW269476   9.315   6.098  12.972 -0.7813  1.3420  1.3724
85833SOL     OW69477   7.600  11.120  11.652  0.7024  0.1178  0.1061
85833SOL    HW169478   7.577  11.028  11.659 -0.5119  0.4275  0.4650
85833SOL    HW269479   7.519  11.167  11.670  1.5009  1.2833  0.8687
85834SOL     OW69480   3.365   0.143   6.132  0.0886 -0.2187  0.1570
85834SOL    HW169481   3.282   0.159   6.175  0.0020  1.7051 -0.6270
85834SOL    HW269482   3.429   0.139   6.203 -0.5781 -1.3033  0.7301
85835SOL     OW69483   1.203   8.141   9.798 -0.3342 -0.2564  0.0614
85835SOL    HW169484   1.257   8.167   9.723 -1.4424 -0.1652 -0.7414
85835SOL    HW269485   1.116   8.175   9.776 -0.9337 -1.2571  0.8451
85836SOL     OW69486   4.064   5.176   9.870  0.1565 -0.5469  0.3528
85836SOL    HW169487   4.039   5.219   9.788 -0.5994 -0.4130  0.6463
85836SOL    HW269488   4.065   5.247   9.935  2.4791 -0.2973  0.1568
85837SOL     OW69489   8.387   5.878   6.313 -0.0828  0.0702  0.5668
85837SOL    HW169490   8.454   5.902   6.250 -1.1587  1.0502 -0.2442
85837SOL    HW269491   8.367   5.786   6.293  1.7181 -0.5661  1.5109
85838SOL     OW69492   6.341  10.989   0.061  0.5146  0.3013  0.7383
85838SOL    HW169493   6.410  10.926   0.082  0.0031 -0.2267  0.8705
85838SOL    HW269494   6.339  11.049   0.136  0.4499 -0.0172  0.9902
85839SOL     OW69495   0.676   9.312   8.680  0.0228 -0.0802  0.6163
85839SOL    HW169496   0.627   9.319   8.598 -1.0818 -1.3685  1.1226
85839SOL    HW269497   0.764   9.285   8.653  0.9198  3.3653 -0.3968
85840SOL     OW69498   4.407  13.986  10.769 -0.6777  0.3711 -0.6858
85840SOL    HW169499   4.483  14.013  10.819 -2.1044  0.6412  1.4772
85840SOL    HW269500   4.421  13.894  10.750  0.4096  0.5479 -0.8004
85841SOL     OW69501  12.270   3.241   2.442  0.4059 -0.2410 -0.1997
85841SOL    HW169502  12.297   3.300   2.371 -1.1455  1.2535  0.3826
85841SOL    HW269503  12.328   3.262   2.515  0.5798 -0.2292 -0.3412
85842SOL     OW69504   6.232   7.818  11.371  0.5148  0.4130 -0.7079
85842SOL    HW169505   6.268   7.734  11.400 -0.4741  0.1103 -0.3100
85842SOL    HW269506   6.308   7.874  11.357  1.1840 -0.5479 -0.9686
85843SOL     OW69507   2.580   9.369   2.078  0.1798  0.0481  0.2450
85843SOL    HW169508   2.595   9.355   2.171 -0.5111  0.4033  0.4245
85843SOL    HW269509   2.515   9.440   2.075  0.8152  0.6282 -0.5236
85844SOL     OW69510   4.025   8.973   0.669  0.1079 -0.1487 -0.7927
85844SOL    HW169511   4.091   9.018   0.723 -1.2737 -1.1862  1.9195
85844SOL    HW269512   3.949   9.031   0.671 -0.3160 -0.7007 -0.7101
85845SOL     OW69513   5.134   0.500   1.745  0.1763 -0.1399 -1.0840
85845SOL    HW169514   5.055   0.548   1.771  1.0120 -0.1282  1.7496
85845SOL    HW269515   5.101   0.416   1.713 -1.0326 -0.9883  1.9849
85846SOL     OW69516   6.724   2.000  13.633  0.4221 -0.2611 -0.2274
85846SOL    HW169517   6.801   2.040  13.593 -0.3711  1.1694 -0.4136
85846SOL    HW269518   6.712   2.048  13.714 -0.4435 -0.2636 -0.3461
85847SOL     OW69519   9.536   7.165  11.975  0.4651  0.2217 -0.3221
85847SOL    HW169520   9.528   7.259  11.986  0.8056  0.2446 -0.2605
85847SOL    HW269521   9.579   7.154  11.890 -0.2780  0.0980 -0.6977
85848SOL     OW69522   2.592   1.075   5.938  0.6263  0.4983  0.4743
85848SOL    HW169523   2.536   1.096   6.012 -0.0352 -0.8700  0.3998
85848SOL    HW269524   2.668   1.133   5.948  0.4141  0.5502  2.0476
85849SOL     OW69525   5.678   3.820   7.820  0.0511  0.3249 -0.5363
85849SOL    HW169526   5.679   3.746   7.881 -0.0998 -0.2590 -1.2155
85849SOL    HW269527   5.767   3.822   7.784  0.5193  1.4852  0.6391
85850SOL     OW69528  11.209   5.326   0.884  0.2635 -0.4617 -0.1391
85850SOL    HW169529  11.260   5.372   0.951 -1.0945  1.1034 -0.1325
85850SOL    HW269530  11.194   5.392   0.816  0.2882 -1.5899 -1.2816
85851SOL     OW69531   8.185   3.808  13.137  0.2335 -0.4974 -1.1227
85851SOL    HW169532   8.155   3.795  13.047 -0.7174  0.6361 -0.9911
85851SOL    HW269533   8.117   3.861  13.178  0.5548 -1.1388  0.3305
85852SOL     OW69534   5.460  12.654  10.572  0.3139  0.2020  0.2520
85852SOL    HW169535   5.485  12.568  10.539  0.4605 -0.8266  2.8517
85852SOL    HW269536   5.366  12.646  10.590 -0.0485  1.1704 -1.0391
85853SOL     OW69537  13.924   7.586  12.658  0.3037  0.5191 -0.1616
85853SOL    HW169538  13.930   7.491  12.645  1.2502  0.8878 -3.1648
85853SOL    HW269539  13.831   7.606  12.648  0.4536  0.2005 -2.7039
85854SOL     OW69540   2.806   4.336   9.196 -0.0922 -0.3524 -0.1901
85854SOL    HW169541   2.712   4.353   9.193 -0.0520 -0.0813  0.0452
85854SOL    HW269542   2.847   4.417   9.164  0.0467 -0.6856 -0.8794
85855SOL     OW69543   8.668   5.360   4.486  0.0615  0.0038 -0.1009
85855SOL    HW169544   8.746   5.369   4.542 -1.5695  1.1013  2.1367
85855SOL    HW269545   8.684   5.420   4.413  0.6289  1.5427  1.2143
85856SOL     OW69546   4.672   0.706   3.387  0.1458  0.0259 -0.1721
85856SOL    HW169547   4.674   0.794   3.426 -1.6260 -0.1361  0.3515
85856SOL    HW269548   4.753   0.665   3.418 -0.3211  0.5333  1.8687
85857SOL     OW69549   6.774   7.465   2.827  0.2003 -0.0227 -0.3344
85857SOL    HW169550   6.798   7.380   2.866 -1.9133  0.0130  1.2158
85857SOL    HW269551   6.696   7.492   2.875 -0.2099  1.9904 -2.0077
85858SOL     OW69552   3.209  11.945   0.639 -0.2052 -0.1291 -0.3581
85858SOL    HW169553   3.192  12.022   0.583  1.0124 -0.4923 -1.2683
85858SOL    HW269554   3.291  11.966   0.684  0.0074 -0.7913 -0.4316
85859SOL     OW69555   5.572   1.055  13.743  0.2003  0.2120  0.3130
85859SOL    HW169556   5.480   1.074  13.726  0.0979 -1.2745 -0.9567
85859SOL    HW269557   5.620   1.128  13.702 -0.3591  0.2867 -0.2194
85860SOL     OW69558   6.571   4.429   3.128 -0.1638  0.6880 -0.2111
85860SOL    HW169559   6.628   4.390   3.060 -1.8904  2.5103 -2.8999
85860SOL    HW269560   6.498   4.368   3.135 -0.0095  0.5251  0.0140
85861SOL     OW69561   2.097   8.799  14.013 -0.4985  0.1863  0.2973
85861SOL    HW169562   2.142   8.881  14.036  0.0324  0.0939 -0.3808
85861SOL    HW269563   2.004   8.822  14.015 -0.3699  0.7200  0.4445
85862SOL     OW69564  12.752   0.283  13.137 -0.5023 -0.1127  0.1311
85862SOL    HW169565  12.772   0.191  13.154 -0.5082 -0.1720 -0.1831
85862SOL    HW269566  12.766   0.294  13.043 -0.1189  0.3028  0.2307
85863SOL     OW69567   1.361  11.878   6.356 -0.3419  0.1351 -0.0423
85863SOL    HW169568   1.356  11.895   6.450  1.8024 -1.6744  0.4735
85863SOL    HW269569   1.428  11.938   6.324 -0.4700  0.1597 -0.2703
85864SOL     OW69570  12.948   1.315   4.038  0.0008  0.0894 -0.2478
85864SOL    HW169571  12.923   1.254   4.108  1.1132 -0.5016 -0.3453
85864SOL    HW269572  13.015   1.269   3.988  0.8105  1.3478 -0.3837
85865SOL     OW69573   9.218   9.788  10.871  0.2688 -0.3418  0.1569
85865SOL    HW169574   9.279   9.786  10.797  0.5973 -0.2006  0.4205
85865SOL    HW269575   9.268   9.828  10.942 -0.9445  2.3470 -0.3761
85866SOL     OW69576   3.248   5.494   1.366  0.8100 -0.1006  0.1226
85866SOL    HW169577   3.160   5.512   1.399  1.2407 -0.2283  1.3960
85866SOL    HW269578   3.236   5.424   1.302 -0.2349  1.1430 -1.1196
85867SOL     OW69579   1.827   4.372   2.203 -0.1943  0.1982  0.0227
85867SOL    HW169580   1.741   4.371   2.246  0.0861 -0.5186  0.5968
85867SOL    HW269581   1.840   4.282   2.174  0.0628  0.4599 -0.6929
85868SOL     OW69582   9.031   5.007   7.436 -0.0802  0.2315  0.0733
85868SOL    HW169583   9.089   5.063   7.487  0.2383  1.3496 -1.4456
85868SOL    HW269584   8.982   4.958   7.501  1.4586  0.3956  1.4170
85869SOL     OW69585   8.424  13.137   9.765 -0.0703  0.3255  0.3581
85869SOL    HW169586   8.505  13.086   9.773  0.0664  0.5248  0.2666
85869SOL    HW269587   8.358  13.074   9.739 -0.3584 -0.2166  2.2180
85870SOL     OW69588  11.863   5.857   7.792  0.2985 -0.3334  0.7785
85870SOL    HW169589  11.806   5.855   7.715  0.5745  2.8958  0.3425
85870SOL    HW269590  11.842   5.777   7.839 -2.3282 -0.7968 -0.9510
85871SOL     OW69591  11.371  10.988   1.045 -0.5416 -0.4580  0.5895
85871SOL    HW169592  11.379  10.923   1.115  3.7654  0.0336  0.8126
85871SOL    HW269593  11.403  10.943   0.967  1.0746  0.8582  0.4326
85872SOL     OW69594  13.569  11.440  11.890 -0.4592 -0.2986 -0.3276
85872SOL    HW169595  13.632  11.430  11.819  1.0380 -0.5560  0.9764
85872SOL    HW269596  13.499  11.379  11.868 -1.2201  1.3275 -2.7569
85873SOL     OW69597  13.636  14.027   9.111  0.0423 -0.5091 -0.6900
85873SOL    HW169598  13.696  14.045   9.184 -0.5912 -0.2385 -0.2224
85873SOL    HW269599  13.631  13.932   9.107  2.6982 -0.6787 -2.5747
85874SOL     OW69600   9.974  11.809  11.880 -0.0908 -0.3145  0.4230
85874SOL    HW169601   9.921  11.886  11.903 -1.2554 -1.5695  2.2133
85874SOL    HW269602  10.004  11.826  11.791  0.2600  2.5248  0.9843
85875SOL     OW69603   7.311  12.803  12.018  0.3929 -0.4413  0.0502
85875SOL    HW169604   7.253  12.811  12.095  1.2610 -2.1542  0.9280
85875SOL    HW269605   7.260  12.752  11.955  0.9400 -2.0508  0.8687
85876SOL     OW69606   0.764   9.483   2.660 -0.3106  0.3756  0.0267
85876SOL    HW169607   0.693   9.532   2.701  0.3774  0.5200  1.0819
85876SOL    HW269608   0.843   9.514   2.704  0.2623 -0.8208 -0.1165
85877SOL     OW69609  11.122   0.518   3.320 -0.0459  0.1904  0.2049
85877SOL    HW169610  11.068   0.587   3.358  0.8605  1.3447 -0.5364
85877SOL    HW269611  11.208   0.558   3.309  1.1877 -1.7710  1.8903
85878SOL     OW69612  10.425   5.287   5.765 -0.0899 -0.1139 -0.3032
85878SOL    HW169613  10.497   5.335   5.724  0.8633 -1.9887 -0.9209
85878SOL    HW269614  10.348   5.312   5.714  0.3518  0.8363 -0.5310
85879SOL     OW69615  13.397  13.402   2.583 -0.1247  0.4789 -0.3469
85879SOL    HW169616  13.408  13.477   2.641  0.1315 -0.1965  0.4805
85879SOL    HW269617  13.481  13.357   2.586 -0.6935 -0.5678  0.1894
85880SOL     OW69618   2.735  11.811  13.118  0.1135  0.3850 -0.3910
85880SOL    HW169619   2.714  11.883  13.178 -1.5072 -1.6042  1.6192
85880SOL    HW269620   2.777  11.746  13.173 -1.3624 -1.5034 -1.3791
85881SOL     OW69621   9.697  10.326   7.773 -0.1650 -0.6076  0.1044
85881SOL    HW169622   9.703  10.278   7.855 -0.2144  0.4809  0.7692
85881SOL    HW269623   9.744  10.408   7.789 -1.2753  0.1867 -0.5117
85882SOL     OW69624  11.102  13.094   7.794  0.5594  0.3828  0.5804
85882SOL    HW169625  11.034  13.134   7.740  1.4863 -0.0417 -0.9792
85882SOL    HW269626  11.104  13.002   7.767  2.9818  0.7581 -0.8801
85883SOL     OW69627   6.558   6.105  12.595 -0.3152 -0.7032  0.0362
85883SOL    HW169628   6.517   6.084  12.511  0.1051  1.4220 -0.7678
85883SOL    HW269629   6.608   6.027  12.617 -0.6058 -1.3989 -1.5909
85884SOL     OW69630   5.400  11.259   7.155  0.3020  0.0241 -0.5023
85884SOL    HW169631   5.355  11.224   7.078  1.0619 -0.7021 -0.6185
85884SOL    HW269632   5.457  11.189   7.185  0.2671  0.4136  0.5378
85885SOL     OW69633   3.468  10.926   3.281  0.1113  0.2615  0.1955
85885SOL    HW169634   3.416  10.957   3.355  0.1349 -0.5177  0.5435
85885SOL    HW269635   3.502  11.006   3.240  0.1136  0.6908  1.0269
85886SOL     OW69636   3.296  11.506   6.836  0.7104  0.2167 -0.4434
85886SOL    HW169637   3.304  11.549   6.751 -1.0488 -0.8152 -1.2073
85886SOL    HW269638   3.286  11.413   6.815 -0.2249 -0.0135  0.8391
85887SOL     OW69639   9.867   3.093   0.454  0.4314 -0.0041  0.2000
85887SOL    HW169640   9.831   3.163   0.399  0.2218 -0.7746 -0.6626
85887SOL    HW269641   9.915   3.139   0.523  0.0611  0.9936 -0.1912
85888SOL     OW69642   8.731   4.354   9.302  0.5066  0.4746  0.6400
85888SOL    HW169643   8.708   4.323   9.390  0.9931  0.4346  0.7588
85888SOL    HW269644   8.740   4.274   9.250  0.8426  0.4650  0.7126
85889SOL     OW69645   1.887   4.242   6.861 -0.2995 -0.2112 -0.4936
85889SOL    HW169646   1.798   4.209   6.869 -0.6085  0.6674 -0.1737
85889SOL    HW269647   1.938   4.190   6.924 -1.0409  0.8116  0.9976
85890SOL     OW69648  10.819   0.690   3.211 -0.2670  0.0384  0.6434
85890SOL    HW169649  10.849   0.648   3.130 -1.5820  1.1629 -0.4948
85890SOL    HW269650  10.833   0.784   3.195  0.3007  0.2219  2.1083
85891SOL     OW69651   4.607   6.775   1.094 -0.1436 -0.5679  0.1469
85891SOL    HW169652   4.553   6.708   1.052  0.6298  0.0288 -1.9403
85891SOL    HW269653   4.557   6.856   1.082  1.2893  0.0802 -2.2560
85892SOL     OW69654   6.125   0.557   3.153  0.0280  0.0533  0.1294
85892SOL    HW169655   6.089   0.557   3.242  0.2456 -1.2594  0.2327
85892SOL    HW269656   6.049   0.563   3.096 -0.2447 -0.9435  0.3789
85893SOL     OW69657   6.499   4.759  10.407 -0.8189  0.5173 -0.6041
85893SOL    HW169658   6.432   4.711  10.455  1.8534 -1.9937  1.0027
85893SOL    HW269659   6.504   4.716  10.322  0.2745 -0.9946  0.1571
85894SOL     OW69660  13.039   9.807   6.118  0.7561  0.4108 -0.1870
85894SOL    HW169661  13.078   9.889   6.147 -0.1766  1.1845 -1.0231
85894SOL    HW269662  13.063   9.799   6.026 -0.6690  0.7106 -0.6172
85895SOL     OW69663  11.333   7.878   1.653  0.5860  0.1981 -0.3420
85895SOL    HW169664  11.272   7.869   1.579  1.9735 -0.3752 -1.4750
85895SOL    HW269665  11.309   7.961   1.694 -0.5608  0.2725 -1.1052
85896SOL     OW69666   3.781   0.461  12.594 -0.1305 -0.0385 -0.2808
85896SOL    HW169667   3.826   0.546  12.598  1.4838 -0.8623 -0.2541
85896SOL    HW269668   3.690   0.481  12.618  0.6226  1.4084  1.6260
85897SOL     OW69669  13.277   6.500   3.309  0.0764  0.3891  0.0165
85897SOL    HW169670  13.191   6.474   3.276  0.4639 -2.9930  1.3456
85897SOL    HW269671  13.320   6.541   3.233 -2.7126  2.4655 -0.5969
85898SOL     OW69672   2.545   8.200   4.592  0.3029 -0.0006  0.3469
85898SOL    HW169673   2.462   8.234   4.627 -0.0775 -0.7890  0.2252
85898SOL    HW269674   2.611   8.256   4.632 -0.2994  0.8389  0.2086
85899SOL     OW69675  10.131   3.947  12.647 -0.3476 -0.0338  0.0470
85899SOL    HW169676  10.161   3.862  12.614 -1.5104 -0.5816  0.3630
85899SOL    HW269677  10.118   3.933  12.741 -0.5900  0.4865  0.0928
85900SOL     OW69678  11.615  11.460   5.103 -0.1723  0.4153  0.3042
85900SOL    HW169679  11.656  11.532   5.055 -1.7059  1.6012  0.6721
85900SOL    HW269680  11.569  11.503   5.175 -1.9046 -0.8335 -0.0002
85901SOL     OW69681   9.873   9.369   7.463  0.4063  0.0848  0.3338
85901SOL    HW169682   9.816   9.299   7.495 -1.7733  0.5248 -2.2222
85901SOL    HW269683   9.953   9.324   7.435 -0.2369 -1.1376  0.4068
85902SOL     OW69684   4.714   2.829   0.422  0.2394  0.0774 -0.1963
85902SOL    HW169685   4.673   2.898   0.473 -0.0128 -0.0169 -0.2695
85902SOL    HW269686   4.701   2.855   0.331  1.0379  0.4483 -0.2163
85903SOL     OW69687   3.278  10.833   8.539 -0.0338  0.3085 -0.0876
85903SOL    HW169688   3.234  10.837   8.454 -1.4682 -0.6062  0.5668
85903SOL    HW269689   3.314  10.921   8.552 -2.2807  1.3395 -0.3991
85904SOL     OW69690   8.904   6.427  10.147  0.3048  0.1381 -0.1721
85904SOL    HW169691   8.875   6.509  10.107 -0.5968 -0.1213 -0.0703
85904SOL    HW269692   8.998   6.423  10.128  0.2107  0.8233 -0.8202
85905SOL     OW69693   0.512   8.487   0.780  0.1825 -0.5195  0.6271
85905SOL    HW169694   0.485   8.547   0.709 -0.6820 -0.9404  0.5919
85905SOL    HW269695   0.470   8.523   0.858  0.2411 -0.6823  0.7318
85906SOL     OW69696   7.894   5.068   5.575 -0.4842 -0.1062 -0.1016
85906SOL    HW169697   7.923   5.052   5.486 -1.2702  2.2235 -0.8687
85906SOL    HW269698   7.954   5.135   5.608 -0.0550 -1.1044  1.2416
85907SOL     OW69699   3.954  10.651   3.966 -0.1278  0.6943 -0.0556
85907SOL    HW169700   3.978  10.726   3.912 -1.5166  1.2859  0.0933
85907SOL    HW269701   4.021  10.648   4.035  0.8867  0.7545 -1.0155
85908SOL     OW69702   1.907   5.107   0.653 -0.3251 -0.0116  0.2674
85908SOL    HW169703   1.985   5.136   0.700 -0.0495  0.6663 -0.5794
85908SOL    HW269704   1.937   5.034   0.599 -0.8006 -1.2862  1.6409
85909SOL     OW69705   3.687  13.176   2.229 -0.6250  0.0259  0.6786
85909SOL    HW169706   3.629  13.241   2.189 -0.2902  1.5423  2.5204
85909SOL    HW269707   3.754  13.159   2.163  0.0909  2.6771  0.6191
85910SOL     OW69708   9.325   3.647   0.473  0.2452 -0.6082 -0.0950
85910SOL    HW169709   9.234   3.647   0.444  0.1480  1.1417  0.1125
85910SOL    HW269710   9.321   3.624   0.566  0.0385 -0.7685 -0.1445
85911SOL     OW69711  13.563  11.319   5.265 -0.1900  0.4263 -0.2990
85911SOL    HW169712  13.521  11.391   5.219  0.9580 -0.4146 -2.8698
85911SOL    HW269713  13.651  11.352   5.284 -0.0912  0.1617 -0.3001
85912SOL     OW69714  13.993   4.506   7.311 -0.0811 -0.0537  0.4166
85912SOL    HW169715  13.900   4.486   7.327 -0.1383  0.4316  0.7005
85912SOL    HW269716  14.021   4.438   7.250 -0.5000 -0.4922  0.6988
85913SOL     OW69717   9.991   2.833  12.747 -0.9483 -0.6328  0.3677
85913SOL    HW169718   9.912   2.782  12.761 -0.9884 -0.6627  0.0408
85913SOL    HW269719   9.987   2.903  12.813 -0.0064 -2.0660  2.0224
85914SOL     OW69720  12.272   2.423   9.593  0.4698  0.2394 -0.3117
85914SOL    HW169721  12.242   2.424   9.684  0.3823  2.0425 -0.3232
85914SOL    HW269722  12.328   2.500   9.586  0.0058  0.4595 -1.9461
85915SOL     OW69723   5.193   7.726   2.478 -0.5575 -0.1502 -0.3811
85915SOL    HW169724   5.259   7.794   2.466  0.0554 -0.4926  0.8311
85915SOL    HW269725   5.124   7.769   2.528 -1.1163  0.1177 -1.3652
85916SOL     OW69726  12.419   8.232   2.409 -0.6444  0.0186  0.2023
85916SOL    HW169727  12.426   8.299   2.341  0.2632 -1.1580 -0.9102
85916SOL    HW269728  12.494   8.175   2.395  0.5742  0.6761  3.3153
85917SOL     OW69729   1.589   6.490   3.988 -0.3205  0.0650  0.5376
85917SOL    HW169730   1.588   6.531   4.075 -0.8105  1.0965  0.0629
85917SOL    HW269731   1.649   6.545   3.937 -2.5548  1.4876 -0.6911
85918SOL     OW69732   4.125   7.376   2.000 -0.1063  0.3442 -0.0012
85918SOL    HW169733   4.126   7.424   2.083 -0.6747 -0.9394  0.7761
85918SOL    HW269734   4.210   7.332   1.996  0.4170  1.3669 -0.7163
85919SOL     OW69735  14.031   6.985  10.551 -0.0424 -0.4203  0.4167
85919SOL    HW169736  13.995   7.047  10.615  3.0974  1.2130  0.8133
85919SOL    HW269737  14.088   7.039  10.496  2.7989 -2.8564  0.7265
85920SOL     OW69738   9.491  10.050  10.788 -0.6911 -0.3394  0.1673
85920SOL    HW169739   9.434   9.990  10.740  1.9530 -1.9573 -1.1558
85920SOL    HW269740   9.499  10.127  10.731 -1.1687 -0.2944  0.1581
85921SOL     OW69741   2.041  10.693   0.624  0.3603  0.9258  0.4016
85921SOL    HW169742   2.040  10.739   0.540 -0.4478  2.3644  1.1455
85921SOL    HW269743   2.116  10.730   0.670  1.5839 -0.7944 -0.1389
85922SOL     OW69744   5.310   6.176  13.244  0.2847  0.4902 -0.0968
85922SOL    HW169745   5.380   6.231  13.208  0.5750  0.5362  0.5109
85922SOL    HW269746   5.237   6.235  13.257  0.8150  0.9018  1.1853
85923SOL     OW69747   3.844  10.259   7.051  0.4629 -0.4197 -0.1283
85923SOL    HW169748   3.922  10.224   7.009  0.7352 -1.2473  1.0225
85923SOL    HW269749   3.779  10.263   6.981  1.4019 -0.1124 -1.0020
85924SOL     OW69750  11.839   0.422  11.816  0.8578  0.3955  0.1998
85924SOL    HW169751  11.815   0.471  11.737  0.6815  0.6009  0.3833
85924SOL    HW269752  11.797   0.337  11.805  3.6761 -0.9310 -1.6537
85925SOL     OW69753   2.618   5.179   2.740  0.0491 -0.4556 -0.1303
85925SOL    HW169754   2.634   5.176   2.646  2.0551  0.5093  0.1244
85925SOL    HW269755   2.523   5.187   2.748 -0.1171  0.0755 -2.0811
85926SOL     OW69756   0.167  11.029   0.437 -0.0655  0.5610 -0.1315
85926SOL    HW169757   0.237  11.093   0.424  0.0636  0.4910  0.2266
85926SOL    HW269758   0.195  10.952   0.387 -0.4355  0.9380 -0.9377
85927SOL     OW69759  11.874   3.453  10.954 -0.5063 -0.2131  0.2346
85927SOL    HW169760  11.779   3.442  10.964 -0.3492 -1.8222  0.2730
85927SOL    HW269761  11.885   3.546  10.934 -2.0736  0.0467  0.3855
85928SOL     OW69762   4.393   0.712   1.114  0.2188 -0.4245  0.0952
85928SOL    HW169763   4.421   0.681   1.027  3.8826  1.5422  0.3750
85928SOL    HW269764   4.444   0.660   1.176  1.0380  1.1795  0.8219
85929SOL     OW69765  13.161   8.010  13.634  0.1423  0.5404 -0.0235
85929SOL    HW169766  13.251   8.040  13.618 -0.1775  2.4151  1.4841
85929SOL    HW269767  13.171   7.916  13.649  1.5126  0.2411 -2.2290
85930SOL     OW69768  12.358   2.092  10.634  0.1193  0.2342  0.4358
85930SOL    HW169769  12.424   2.115  10.568 -0.5939  1.3462  0.0845
85930SOL    HW269770  12.378   2.147  10.709 -1.9768  2.6408 -0.6331
85931SOL     OW69771  13.601   4.698   7.346 -0.3176  0.0619 -0.2629
85931SOL    HW169772  13.505   4.696   7.356 -0.2729 -0.6717  0.0676
85931SOL    HW269773  13.629   4.771   7.401 -0.6946  0.4034 -0.5055
85932SOL     OW69774   8.911   2.588   0.600  0.0222 -0.5865 -0.3094
85932SOL    HW169775   8.847   2.517   0.599  0.8379 -1.3783 -2.1872
85932SOL    HW269776   8.995   2.544   0.585  0.5894  0.7121 -1.1205
85933SOL     OW69777   9.975   6.769   6.644 -0.1002  0.6963 -0.1959
85933SOL    HW169778   9.991   6.682   6.607 -1.1732 -0.2782  1.5155
85933SOL    HW269779  10.063   6.806   6.656  0.3880 -0.2639 -0.6883
85934SOL     OW69780   7.351   1.034   9.276 -0.0939  0.3425 -0.1227
85934SOL    HW169781   7.327   1.124   9.299  3.3447  1.6222 -0.8881
85934SOL    HW269782   7.362   1.036   9.181 -3.5331 -1.9930 -0.7304
85935SOL     OW69783   6.301  13.568   0.152 -0.5289 -0.1040 -0.3040
85935SOL    HW169784   6.340  13.633   0.093 -1.7448 -0.2593 -1.3015
85935SOL    HW269785   6.226  13.533   0.104 -0.5748 -1.4352  0.6753
85936SOL     OW69786   2.999  10.464   2.633  0.4628  0.0861  0.4687
85936SOL    HW169787   2.945  10.458   2.712  1.0530  0.4654  0.9027
85936SOL    HW269788   2.939  10.495   2.565  0.4322  1.8705  1.2624
85937SOL     OW69789   9.602   8.708   4.798 -0.1788  0.1448  0.1772
85937SOL    HW169790   9.510   8.689   4.818  0.3009 -0.6726  1.7277
85937SOL    HW269791   9.644   8.623   4.795  0.6791  0.5638  0.2078
85938SOL     OW69792   8.440   6.171   6.759  0.0348 -0.5000 -0.0967
85938SOL    HW169793   8.492   6.251   6.759 -0.4536 -0.1585  1.2996
85938SOL    HW269794   8.444   6.139   6.669  0.2672  1.0711 -0.6610
85939SOL     OW69795   2.633  11.180  11.849 -0.5386  0.0056 -0.1131
85939SOL    HW169796   2.562  11.207  11.791  0.3382 -1.5866 -2.0795
85939SOL    HW269797   2.629  11.084  11.849  0.5562 -0.0763  1.1239
85940SOL     OW69798   6.565   7.093  11.250 -0.1055 -0.8406  0.1249
85940SOL    HW169799   6.511   7.038  11.307  0.7281 -0.4515  1.3328
85940SOL    HW269800   6.524   7.179  11.254 -0.5887 -1.0216 -0.6419
85941SOL     OW69801  10.291   3.266   5.368 -0.6121 -0.5496 -0.3196
85941SOL    HW169802  10.296   3.333   5.300  0.7835  0.4011  0.6659
85941SOL    HW269803  10.226   3.301   5.430  0.0333 -0.1507  0.1377
85942SOL     OW69804   1.859   1.951   3.090  0.4370 -0.0292 -0.2014
85942SOL    HW169805   1.951   1.974   3.078 -0.2919  2.2679 -2.5046
85942SOL    HW269806   1.817   2.034   3.116 -1.3490 -0.2644 -2.0045
85943SOL     OW69807   7.624   9.695  12.824  0.0623  0.2271  0.1079
85943SOL    HW169808   7.564   9.748  12.772  0.6730 -1.5143 -2.6325
85943SOL    HW269809   7.708   9.702  12.778  1.2873  0.4081  2.2533
85944SOL     OW69810   0.106   2.438   8.516 -0.1393  0.2331 -0.1340
85944SOL    HW169811   0.060   2.376   8.573 -1.4792 -0.3200 -1.7039
85944SOL    HW269812   0.132   2.510   8.574  0.5412 -1.2947  1.5513
85945SOL     OW69813   0.387  10.042  13.103 -0.2300 -0.1357 -0.1947
85945SOL    HW169814   0.455  10.081  13.158  0.5786 -2.5034  0.5906
85945SOL    HW269815   0.401   9.948  13.110 -4.3334 -0.8585  0.9971
85946SOL     OW69816   5.370  13.283   4.776  0.1070  0.3157  0.1373
85946SOL    HW169817   5.370  13.192   4.806  0.1433  0.5931  0.9823
85946SOL    HW269818   5.456  13.293   4.735  0.6776  0.3734  1.3136
85947SOL     OW69819   9.528   7.592   1.843 -0.6987  0.2031  0.6537
85947SOL    HW169820   9.542   7.663   1.779  0.4488 -0.1385  0.5049
85947SOL    HW269821   9.526   7.512   1.789 -1.0543  0.0346  0.9165
85948SOL     OW69822  13.341  10.601  12.983  0.1823  0.5970 -0.1168
85948SOL    HW169823  13.254  10.632  13.007  0.7420  2.9933 -0.9220
85948SOL    HW269824  13.362  10.649  12.902  1.8013 -0.7637 -0.5540
85949SOL     OW69825  10.284   0.559  13.672 -0.1692  0.1271  0.8095
85949SOL    HW169826  10.341   0.487  13.647 -0.7985  0.0227 -0.4066
85949SOL    HW269827  10.197   0.532  13.643 -0.0477  2.4611 -2.2083
85950SOL     OW69828   7.779  10.940   6.944 -0.1301 -0.5483  0.1844
85950SOL    HW169829   7.875  10.945   6.946 -0.1880  0.5673  0.9395
85950SOL    HW269830   7.759  10.897   6.860  0.9854  0.5924 -0.7096
85951SOL     OW69831   9.101  13.408  10.566 -0.2810 -0.0867 -0.2867
85951SOL    HW169832   9.014  13.447  10.563  0.1210  0.8529 -0.1444
85951SOL    HW269833   9.144  13.439  10.486  0.4545  0.7769  0.4205
85952SOL     OW69834  12.310   2.575   5.490  0.5921 -0.1282  0.4501
85952SOL    HW169835  12.384   2.586   5.431  0.5760 -1.5806  0.1431
85952SOL    HW269836  12.344   2.601   5.576  1.3050 -0.2785  0.2185
85953SOL     OW69837  13.826  12.129  10.193 -0.0422 -0.2351 -0.4704
85953SOL    HW169838  13.886  12.190  10.150 -0.6666  1.7937  1.3025
85953SOL    HW269839  13.855  12.127  10.284 -2.7721  1.1717  0.5538
85954SOL     OW69840   4.274  10.717  11.040 -0.6927 -0.1582  0.4478
85954SOL    HW169841   4.300  10.670  11.119 -0.9937  1.2479  1.4158
85954SOL    HW269842   4.326  10.677  10.970 -1.0442 -2.0196  1.1729
85955SOL     OW69843   1.854   0.122   6.597 -0.5798 -0.2201  0.0956
85955SOL    HW169844   1.933   0.068   6.587  0.2817  0.5753  2.0878
85955SOL    HW269845   1.782   0.064   6.570  0.4366 -1.8547  0.7254
85956SOL     OW69846  13.107   9.997  13.970  0.5966  0.5879 -0.2378
85956SOL    HW169847  13.173   9.995  14.040  1.3997 -0.9003 -0.9871
85956SOL    HW269848  13.028   9.963  14.012  1.1075 -0.4280 -0.0616
85957SOL     OW69849   6.916   9.004  12.565 -0.5447  0.8231 -0.0016
85957SOL    HW169850   6.879   8.956  12.639  1.8710 -0.2878  0.5751
85957SOL    HW269851   6.991   9.050  12.601 -0.1460  1.4209 -1.4988
85958SOL     OW69852   8.007   9.633   1.295 -0.2606  0.0192  0.1391
85958SOL    HW169853   8.052   9.697   1.240 -0.9425 -0.6063 -1.1986
85958SOL    HW269854   7.941   9.684   1.342 -0.6253  0.3658 -0.7237
85959SOL     OW69855   4.476   3.139   5.275 -0.0116  0.0249 -0.0830
85959SOL    HW169856   4.490   3.044   5.274 -0.2837 -0.0137 -0.1607
85959SOL    HW269857   4.449   3.159   5.364  0.4847  0.0920  0.0528
85960SOL     OW69858   3.943  13.168   2.039 -0.1773 -0.0045 -0.0408
85960SOL    HW169859   3.955  13.088   1.988 -0.4552 -0.3989  0.4945
85960SOL    HW269860   4.030  13.188   2.073 -0.5633 -1.7963  2.2860
85961SOL     OW69861   1.730   0.732   1.100  0.7112 -0.5011 -0.0427
85961SOL    HW169862   1.639   0.757   1.121  0.5979 -0.4799 -0.5227
85961SOL    HW269863   1.733   0.638   1.113  0.4191 -0.6107 -0.6808
85962SOL     OW69864   5.958   8.102   9.517  0.5295 -0.0378  0.1198
85962SOL    HW169865   5.893   8.106   9.587  1.1856  1.4282  0.6911
85962SOL    HW269866   6.028   8.160   9.547  1.1972 -0.0373 -1.3790
85963SOL     OW69867   0.410   6.700   1.807  0.0924  0.3860  0.3734
85963SOL    HW169868   0.371   6.641   1.870  1.2255 -0.6653  0.1400
85963SOL    HW269869   0.463   6.760   1.860  0.5644 -0.1133  0.4733
85964SOL     OW69870   0.141   3.835  11.373 -0.2792  0.3754 -0.2194
85964SOL    HW169871   0.076   3.905  11.367 -0.5404  0.1383 -0.1667
85964SOL    HW269872   0.151   3.804  11.283 -1.3565 -0.5972 -0.0295
85965SOL     OW69873   0.384  11.113   8.233 -0.6200  0.4624  0.4187
85965SOL    HW169874   0.295  11.090   8.206  0.1505 -0.4138 -1.5205
85965SOL    HW269875   0.418  11.167   8.162 -0.0948  2.1261  1.8607
85966SOL     OW69876   4.889  12.102   2.184 -0.0197  0.2344 -0.2297
85966SOL    HW169877   4.938  12.168   2.135  0.3940  0.0776 -0.0265
85966SOL    HW269878   4.800  12.108   2.149  0.1604  0.4639 -0.6511
85967SOL     OW69879   2.307   3.315   6.278  0.3344 -0.3585 -0.4448
85967SOL    HW169880   2.322   3.221   6.291  0.4878 -0.2375  0.3069
85967SOL    HW269881   2.245   3.319   6.206  0.7361 -1.0204 -0.8483
85968SOL     OW69882  10.421  12.593   7.696 -0.3316 -0.7359 -0.1602
85968SOL    HW169883  10.472  12.622   7.772 -1.6462  0.2647  0.3834
85968SOL    HW269884  10.367  12.521   7.729 -2.0563  0.7191  0.3159
85969SOL     OW69885  11.149   6.958  13.670  0.0625  0.1447 -0.0723
85969SOL    HW169886  11.159   6.863  13.676  0.5442  0.0287 -1.9609
85969SOL    HW269887  11.055   6.972  13.660 -0.1006 -0.0507  1.0893
85970SOL     OW69888  11.037   6.467  11.462 -0.1579  0.2364  0.5400
85970SOL    HW169889  10.986   6.546  11.483  1.5065  0.7050  3.2475
85970SOL    HW269890  11.121   6.500  11.432 -0.6289 -0.5609 -1.8892
85971SOL     OW69891  13.995  13.412  13.215  0.2329 -0.3648 -0.9226
85971SOL    HW169892  13.933  13.448  13.152  0.0063  3.3098  1.0916
85971SOL    HW269893  13.940  13.373  13.283  0.3322 -1.0171 -1.2100
85972SOL     OW69894  13.694  11.209  10.093 -0.0594  0.3381  0.2746
85972SOL    HW169895  13.660  11.120  10.100 -0.6172  0.6063  1.2442
85972SOL    HW269896  13.664  11.240  10.008  0.7690 -0.6374 -0.4049
85973SOL     OW69897  12.694  13.088   0.779  0.3781  0.2958  0.0844
85973SOL    HW169898  12.676  12.994   0.790 -0.3523  0.1813 -1.7644
85973SOL    HW269899  12.609  13.126   0.759  0.9673  1.0219 -1.1247
85974SOL     OW69900   9.479   5.885   9.924 -0.7615 -0.3058  0.0535
85974SOL    HW169901   9.408   5.887   9.989 -0.5392 -1.2452  0.3330
85974SOL    HW269902   9.492   5.792   9.905 -1.3019 -0.0329 -1.8740
85975SOL     OW69903  11.786   0.059  12.926 -0.2700  1.1110 -0.1368
85975SOL    HW169904  11.833   0.017  12.854 -0.5540 -0.4416  0.5447
85975SOL    HW269905  11.853   0.080  12.990 -0.3036  0.2011  0.2130
85976SOL     OW69906   5.111   1.229   4.073 -0.3734  0.7441  0.2742
85976SOL    HW169907   5.045   1.211   4.140  2.3518  0.9556  3.2670
85976SOL    HW269908   5.066   1.285   4.010 -3.2183  0.2752  1.6916
85977SOL     OW69909  13.910  11.096  12.141  0.1431  0.5087 -0.1615
85977SOL    HW169910  13.965  11.018  12.135  0.5816  0.7747  0.3342
85977SOL    HW269911  13.870  11.103  12.054 -1.1614 -1.1767  0.2440
85978SOL     OW69912   4.951  13.516   2.546  0.4293 -0.3073 -0.9883
85978SOL    HW169913   5.047  13.517   2.535  0.3508  0.1648 -1.6680
85978SOL    HW269914   4.932  13.426   2.572  1.1221 -0.2425 -0.1906
85979SOL     OW69915  13.423   4.006  12.088 -0.2227 -0.4927 -0.0897
85979SOL    HW169916  13.508   4.042  12.061 -0.7002  2.4487  1.8778
85979SOL    HW269917  13.361   4.042  12.025 -0.6330  2.0791  1.6068
85980SOL     OW69918   0.038   4.956   4.823  0.2454 -0.3136  0.1774
85980SOL    HW169919  -0.019   5.032   4.815  0.7615  0.1011  0.3160
85980SOL    HW269920   0.063   4.934   4.733 -0.9258 -1.1303  0.0336
85981SOL     OW69921   6.771  11.581   7.560  0.7299 -0.4024  0.2817
85981SOL    HW169922   6.728  11.496   7.560  1.5644 -0.8360  0.6092
85981SOL    HW269923   6.815  11.586   7.645 -3.3283  2.4858  2.5988
85982SOL     OW69924   2.395   3.882   2.230 -0.1748 -0.3880 -0.0348
85982SOL    HW169925   2.422   3.791   2.244  1.3498  0.1468  0.6410
85982SOL    HW269926   2.431   3.905   2.145 -0.9278 -0.5186 -0.4053
85983SOL     OW69927   5.697   8.175  11.025  0.1683  0.4039 -0.3567
85983SOL    HW169928   5.724   8.260  10.993  1.2186 -0.3658 -1.6188
85983SOL    HW269929   5.672   8.126  10.947  4.6476 -2.1869 -0.5398
85984SOL     OW69930   0.172   9.181  10.298  0.3972  0.4543  0.3227
85984SOL    HW169931   0.170   9.156  10.390  1.6136  1.0498  0.5356
85984SOL    HW269932   0.113   9.256  10.292 -1.9825 -1.3437  0.0037
85985SOL     OW69933   9.410   4.355   7.052 -0.2721 -0.6946 -0.3382
85985SOL    HW169934   9.367   4.376   6.969 -0.6756  1.5717  0.3628
85985SOL    HW269935   9.461   4.433   7.072 -0.8792 -0.8283  1.9599
85986SOL     OW69936   3.079   1.806  13.298 -0.3999  0.2825 -0.2292
85986SOL    HW169937   3.161   1.844  13.267  0.2178 -0.2855  0.6887
85986SOL    HW269938   3.048   1.753  13.225  0.7485 -0.5806 -0.1019
85987SOL     OW69939   8.894   7.566   4.650 -0.1252 -0.0944  0.9783
85987SOL    HW169940   8.851   7.650   4.668 -0.4684  0.0360 -0.3418
85987SOL    HW269941   8.853   7.504   4.710 -0.5205  0.4954  1.3267
85988SOL     OW69942   4.513   5.800   3.210  0.4661  0.1043 -0.0178
85988SOL    HW169943   4.544   5.812   3.121  1.5572  1.1335  0.4763
85988SOL    HW269944   4.509   5.705   3.221 -0.0137 -0.0350 -1.2583
85989SOL     OW69945   0.324   2.890  10.704 -0.5647  0.3148 -0.2759
85989SOL    HW169946   0.302   2.803  10.673  1.2246 -0.1468 -0.3658
85989SOL    HW269947   0.240   2.929  10.730 -1.3267 -1.6207  0.3094
85990SOL     OW69948   1.422  12.949   9.516 -0.2385  0.2250  0.2928
85990SOL    HW169949   1.494  12.886   9.508  1.1200  1.3070  2.6671
85990SOL    HW269950   1.399  12.946   9.609 -2.9299  0.3366 -0.3170
85991SOL     OW69951   8.168   4.282  12.217  0.0127  0.0053 -0.7255
85991SOL    HW169952   8.100   4.315  12.275 -0.1399  3.6823 -2.7067
85991SOL    HW269953   8.226   4.356  12.203  2.3312 -1.9165 -2.0984
85992SOL     OW69954  13.545   5.708   1.283 -0.6248  0.1685  0.0257
85992SOL    HW169955  13.613   5.774   1.297 -0.9948  0.6563 -0.4558
85992SOL    HW269956  13.593   5.630   1.254 -0.3365  0.7337 -1.0514
85993SOL     OW69957  12.768   2.218  13.940 -0.0351 -0.3078 -0.1275
85993SOL    HW169958  12.780   2.264  13.857  0.3618 -2.2918 -1.2369
85993SOL    HW269959  12.682   2.177  13.932 -0.1128 -0.2835  0.5689
85994SOL     OW69960   4.821  13.849   3.324  0.2502  0.6529 -0.0291
85994SOL    HW169961   4.846  13.917   3.261  2.7358  1.0794  1.3062
85994SOL    HW269962   4.834  13.767   3.276 -1.9646  1.0048 -1.3734
85995SOL     OW69963   7.246   3.507  11.705  0.2799 -0.8426  0.3620
85995SOL    HW169964   7.199   3.553  11.635 -0.2944 -2.9205 -0.6968
85995SOL    HW269965   7.336   3.538  11.697 -0.0748  0.0770 -0.3194
85996SOL     OW69966   5.266  11.753   4.333  0.6506 -0.6862  0.1888
85996SOL    HW169967   5.216  11.680   4.369 -0.3204 -0.3619 -0.4809
85996SOL    HW269968   5.305  11.718   4.252  0.5833 -0.6093  0.1222
85997SOL     OW69969   7.957   3.928   6.406 -0.2844  0.2271  0.3298
85997SOL    HW169970   7.871   3.898   6.377 -0.1301 -0.4472  0.5454
85997SOL    HW269971   8.018   3.891   6.342 -0.2060  1.1882 -0.1536
85998SOL     OW69972  10.908   3.731   1.612 -0.6425  0.1321  0.1314
85998SOL    HW169973  10.912   3.823   1.639 -0.8000  0.4490 -0.9116
85998SOL    HW269974  10.970   3.723   1.540 -1.2558 -0.3777 -0.3564
85999SOL     OW69975   3.472   9.167  13.405 -0.0643 -0.2003 -0.3085
85999SOL    HW169976   3.493   9.167  13.498 -0.2588 -2.1118 -0.2155
85999SOL    HW269977   3.376   9.159  13.402 -0.2111  1.3848 -0.7040
86000SOL     OW69978  12.929  10.514   9.675  0.0317  0.3327 -0.2242
86000SOL    HW169979  12.956  10.515   9.583 -1.1594  0.7546 -0.5982
86000SOL    HW269980  12.852  10.570   9.677  0.1674  0.4914  1.0843
86001SOL     OW69981   8.970   0.797   2.060  0.1361 -0.6972 -0.0194
86001SOL    HW169982   8.936   0.724   2.008 -2.3304 -1.4142  2.4025
86001SOL    HW269983   8.919   0.873   2.030  0.1518 -0.6885 -0.0251
86002SOL     OW69984  11.859   6.379   5.761 -0.3074 -0.4869  0.4397
86002SOL    HW169985  11.865   6.471   5.786 -2.0782  0.2111 -1.4129
86002SOL    HW269986  11.853   6.332   5.845 -2.4999  1.3814  1.4769
86003SOL     OW69987   9.952   6.476   8.910  0.1585 -0.3098 -0.3945
86003SOL    HW169988   9.860   6.503   8.911  0.8383  2.2913 -0.2705
86003SOL    HW269989   9.967   6.445   8.821 -0.8221 -0.7836 -0.4086
86004SOL     OW69990  10.624  13.825   8.622  0.0993  0.3484 -0.2257
86004SOL    HW169991  10.584  13.743   8.651  0.7656 -0.2302 -0.9149
86004SOL    HW269992  10.702  13.833   8.677  0.7973 -0.2152 -1.1071
86005SOL     OW69993  11.574  13.222  12.562  0.2319 -0.3791 -0.2440
86005SOL    HW169994  11.565  13.317  12.552  0.9791 -0.0595  1.6974
86005SOL    HW269995  11.667  13.208  12.580 -0.3673 -0.9816  3.1985
86006SOL     OW69996   6.192   5.762   2.210  0.1806  0.1503 -0.2713
86006SOL    HW169997   6.239   5.711   2.144  0.5608  1.3514 -0.9673
86006SOL    HW269998   6.185   5.850   2.172 -1.2872  0.3915  0.4731
86007SOL     OW69999   6.847   5.561   3.183  0.2476  0.0766  0.3888
86007SOL    HW170000   6.858   5.560   3.088 -2.6055  0.2180 -0.0500
86007SOL    HW270001   6.835   5.470   3.208  1.0415  0.0341  0.6329
86008SOL     OW70002   7.387   3.672  10.839  0.3579  0.2726 -0.3705
86008SOL    HW170003   7.466   3.644  10.792  1.6798  1.5054  1.0053
86008SOL    HW270004   7.402   3.645  10.929 -1.9614 -1.6899 -0.4598
86009SOL     OW70005   1.975   2.127   0.468  0.4252 -0.3397  0.4022
86009SOL    HW170006   2.017   2.066   0.407 -1.2617 -1.1264 -0.0424
86009SOL    HW270007   1.895   2.154   0.423 -0.7204 -0.6988  2.1151
86010SOL     OW70008   6.992   3.532   6.336 -0.1524 -0.1242  0.3312
86010SOL    HW170009   6.911   3.581   6.318 -0.4284 -0.3715  0.8764
86010SOL    HW270010   7.021   3.565   6.421 -0.1780 -0.6934  0.5655
86011SOL     OW70011   0.029   5.716   8.593 -0.3897  0.0691 -0.3590
86011SOL    HW170012   0.097   5.668   8.640 -1.1368  0.1969  0.8966
86011SOL    HW270013  -0.033   5.743   8.661 -0.5130  1.9566 -1.1619
86012SOL     OW70014  11.220   1.046   4.656 -0.2090 -0.4269  0.4146
86012SOL    HW170015  11.183   0.991   4.587 -1.4472 -0.7488  1.2941
86012SOL    HW270016  11.242   0.984   4.726  1.5650 -0.1760  0.1193
86013SOL     OW70017   6.255   6.439   4.857  0.2566 -0.3463  0.1600
86013SOL    HW170018   6.216   6.352   4.867  1.2499 -0.7959  0.2041
86013SOL    HW270019   6.183   6.499   4.876 -1.1010 -1.1070 -2.1048
86014SOL     OW70020   8.769  11.463   6.865  0.3668  0.4868  0.0676
86014SOL    HW170021   8.851  11.504   6.836  0.2180  1.1724  0.5755
86014SOL    HW270022   8.787  11.436   6.955 -0.4297  2.0509  0.7410
86015SOL     OW70023   1.577  12.407   0.634 -0.0446 -0.5405  0.3696
86015SOL    HW170024   1.639  12.389   0.563  0.2007  1.6180 -0.0148
86015SOL    HW270025   1.502  12.350   0.615 -0.1560  0.2670 -1.8845
86016SOL     OW70026   5.469  11.524  11.444  0.0163  0.6749 -0.2004
86016SOL    HW170027   5.474  11.442  11.491 -2.6454  0.6346  0.2099
86016SOL    HW270028   5.525  11.512  11.367 -1.4145 -2.1081 -0.9246
86017SOL     OW70029   6.841  13.846   9.615  0.3151  0.3337 -0.3620
86017SOL    HW170030   6.816  13.756   9.635  0.3424 -0.3578 -3.1323
86017SOL    HW270031   6.841  13.890   9.700 -2.1110 -1.6412  0.7775
86018SOL     OW70032   6.145   8.163   6.082  0.3518  0.1959  0.3342
86018SOL    HW170033   6.163   8.114   6.162  1.1591  0.6740  0.4534
86018SOL    HW270034   6.051   8.152   6.069  0.3957 -0.8063  0.7309
86019SOL     OW70035   1.895   3.086   4.697  0.1955 -0.2239 -0.1055
86019SOL    HW170036   1.861   3.012   4.647  1.5192 -0.5872 -0.5273
86019SOL    HW270037   1.903   3.157   4.633 -1.0404  0.2955  0.2919
86020SOL     OW70038  11.933   0.478   4.005 -0.2544  0.1508  0.2216
86020SOL    HW170039  11.949   0.552   4.063 -0.7154 -0.0749  0.6495
86020SOL    HW270040  12.014   0.467   3.956  0.5024 -0.2918  1.5472
86021SOL     OW70041   4.192   1.599   7.650 -0.6417 -0.1972 -0.0818
86021SOL    HW170042   4.265   1.606   7.712 -0.0708 -1.4150 -0.5822
86021SOL    HW270043   4.174   1.689   7.625 -1.8842  0.5245  2.9428
86022SOL     OW70044   4.194   4.704  11.369 -0.0023  0.4042  0.2091
86022SOL    HW170045   4.142   4.736  11.295 -0.6608  2.8462  1.5961
86022SOL    HW270046   4.281   4.741  11.354 -0.1756  1.0301  0.6799
86023SOL     OW70047   6.323   2.487   6.587 -0.6367  0.1961  0.2499
86023SOL    HW170048   6.331   2.397   6.555 -0.4644  0.3181 -0.0487
86023SOL    HW270049   6.389   2.493   6.657 -1.1864 -0.1465  0.8174
86024SOL     OW70050  11.706   8.804   0.984  0.0529 -0.3148 -0.6975
86024SOL    HW170051  11.640   8.799   1.053 -0.9229  1.0766 -1.4776
86024SOL    HW270052  11.725   8.898   0.976  2.6288 -0.6997 -0.0761
86025SOL     OW70053   5.067  11.927   2.290  0.2394  0.0917 -0.0844
86025SOL    HW170054   4.980  11.964   2.271  0.1533 -0.1672 -0.2024
86025SOL    HW270055   5.118  11.944   2.211  0.3429  0.3844  0.0465
86026SOL     OW70056  13.741   3.536  11.422  0.0205 -0.1492 -0.0419
86026SOL    HW170057  13.732   3.454  11.471  1.3878  0.6339  1.6254
86026SOL    HW270058  13.802   3.515  11.351 -0.0007 -0.7030  0.0985
86027SOL     OW70059   1.246  13.433   0.806 -0.0135  0.0352  0.2237
86027SOL    HW170060   1.220  13.450   0.715 -0.5231  0.0890  0.3723
86027SOL    HW270061   1.166  13.448   0.856  0.4212  0.6332  0.7536
86028SOL     OW70062   1.629  12.443   0.931  1.0983  0.1239 -0.0004
86028SOL    HW170063   1.569  12.384   0.976 -1.0583  2.9867  1.2142
86028SOL    HW270064   1.607  12.434   0.838 -0.4785  0.2869  0.3312
86029SOL     OW70065  10.939   8.876   1.040  0.6527  0.1823  0.6502
86029SOL    HW170066  10.848   8.901   1.023  0.4251 -0.2867  1.1279
86029SOL    HW270067  10.934   8.825   1.121  1.4193  0.6527  1.0002
86030SOL     OW70068   3.912  13.457   7.108  0.0243 -0.5217 -0.2799
86030SOL    HW170069   3.993  13.411   7.131 -0.9470 -1.5766  1.1394
86030SOL    HW270070   3.916  13.539   7.158 -0.0135 -0.7948  0.1721
86031SOL     OW70071   1.753   0.531   9.605 -0.7015  0.2931 -0.1908
86031SOL    HW170072   1.679   0.475   9.579 -1.2954  0.7022  0.5588
86031SOL    HW270073   1.817   0.521   9.535 -0.4506 -1.9552  0.2729
86032SOL     OW70074  10.646  10.653   1.507  0.5661  0.0793  0.0220
86032SOL    HW170075  10.676  10.713   1.438 -0.6102  2.5934  1.5565
86032SOL    HW270076  10.709  10.666   1.578 -0.5492  0.6841  0.9263
86033SOL     OW70077   7.031  13.572   2.450  0.0097 -0.1604 -0.2695
86033SOL    HW170078   7.089  13.648   2.444 -0.5598  0.3721  0.6897
86033SOL    HW270079   7.090  13.497   2.456  0.5786  0.1554 -1.6468
86034SOL     OW70080  13.976   2.284   0.696 -0.1115  0.0135 -0.0902
86034SOL    HW170081  13.975   2.224   0.622 -1.5906 -0.8542  0.5872
86034SOL    HW270082  13.887   2.281   0.731  0.4668  0.6438  1.5321
86035SOL     OW70083   5.672   1.084   7.210  0.2277 -0.4047  0.2110
86035SOL    HW170084   5.743   1.111   7.152 -1.1225  1.3183 -0.7634
86035SOL    HW270085   5.592   1.115   7.166 -1.0045 -0.8308  2.0224
86036SOL     OW70086   3.998  11.035  13.005 -0.0093 -0.1208  0.2193
86036SOL    HW170087   4.011  10.943  13.026 -0.3277  0.0810  1.4138
86036SOL    HW270088   3.971  11.075  13.088 -1.2216  0.7920 -0.5773
86037SOL     OW70089  13.511  12.831   0.332  0.7322  0.0092  0.3652
86037SOL    HW170090  13.585  12.825   0.392  2.5574 -0.8570 -1.8251
86037SOL    HW270091  13.536  12.900   0.270 -1.2187  1.0794  0.7025
86038SOL     OW70092   7.130  12.860   1.863 -0.1351  0.5296  0.3229
86038SOL    HW170093   7.111  12.780   1.815  0.5054  1.3667 -1.4152
86038SOL    HW270094   7.224  12.874   1.852  0.1863  0.4210  2.4214
86039SOL     OW70095  11.134   6.226   0.053  0.3266  0.3570  0.1161
86039SOL    HW170096  11.200   6.202  -0.012  1.3914 -1.1084  1.6403
86039SOL    HW270097  11.058   6.173   0.030  0.6787 -0.1154  0.0205
86040SOL     OW70098  14.022   3.106  12.666  0.2626  0.0055 -0.1426
86040SOL    HW170099  13.952   3.107  12.731  0.5763  0.0389  0.1951
86040SOL    HW270100  14.059   3.018  12.672  0.9802  0.3455  0.4627
86041SOL     OW70101   7.072   1.616   3.744  0.3390 -0.1350  0.7652
86041SOL    HW170102   7.162   1.638   3.768  0.4438 -0.4788  0.7017
86041SOL    HW270103   7.067   1.521   3.753  0.3423 -0.2712 -0.4239
86042SOL     OW70104  11.806   2.370  12.888  0.1144 -0.1615 -0.5279
86042SOL    HW170105  11.768   2.289  12.855  0.7234 -0.2310 -1.0877
86042SOL    HW270106  11.871   2.395  12.822  1.1165 -0.1208  0.4344
86043SOL     OW70107   3.695  10.377   8.977  0.2734  1.0195 -0.8995
86043SOL    HW170108   3.763  10.310   8.985 -1.0132 -0.4813 -1.8966
86043SOL    HW270109   3.612  10.328   8.982 -0.7313  2.6241 -0.9962
86044SOL     OW70110   2.687  10.792   1.214 -0.0983  0.4390  0.3474
86044SOL    HW170111   2.780  10.795   1.237 -0.5175  0.9351  2.1758
86044SOL    HW270112   2.659  10.884   1.217 -0.7612  0.2410  0.3815
86045SOL     OW70113  10.029  10.505   2.135 -0.2978  0.6532 -0.3516
86045SOL    HW170114  10.038  10.552   2.218 -0.7317  0.2667 -0.0756
86045SOL    HW270115   9.955  10.547   2.092  0.2075  1.1506 -0.7583
86046SOL     OW70116  12.096   8.041   9.542  0.0150 -0.0411 -0.0089
86046SOL    HW170117  12.075   7.948   9.541  0.4317 -0.1460  0.6333
86046SOL    HW270118  12.181   8.046   9.586  0.6427  0.5161 -1.2191
86047SOL     OW70119   8.774   1.445  12.442 -0.1580  0.0729 -0.3908
86047SOL    HW170120   8.833   1.477  12.510 -0.8387  1.4322 -0.4054
86047SOL    HW270121   8.696   1.416  12.490  0.1626 -0.9229 -0.4416
86048SOL     OW70122  12.965   0.654  10.440 -0.9056  0.2459  0.0186
86048SOL    HW170123  13.015   0.575  10.423 -3.0952 -1.2091  0.0083
86048SOL    HW270124  12.924   0.639  10.526 -0.7602  1.7104  0.3855
86049SOL     OW70125   8.162   7.583  10.184  0.0747  0.1569  1.2423
86049SOL    HW170126   8.074   7.561  10.213 -0.1361 -0.0243  0.4923
86049SOL    HW270127   8.155   7.670  10.146 -0.0383 -0.3175  0.1344
86050SOL     OW70128   7.057   0.666  13.149 -0.0890  0.1534  0.6939
86050SOL    HW170129   7.088   0.614  13.075 -1.1534  0.2609  0.1553
86050SOL    HW270130   7.064   0.757  13.119 -1.2307  0.1670  0.4149
86051SOL     OW70131   7.388  12.651   1.755 -0.5710 -0.4712 -0.4428
86051SOL    HW170132   7.373  12.745   1.765 -1.4219 -0.5974 -0.5080
86051SOL    HW270133   7.301  12.614   1.741 -0.2042 -1.2331 -0.7292
86052SOL     OW70134   0.902   4.086  11.976  0.1759  0.0965 -0.2467
86052SOL    HW170135   0.997   4.092  11.987  0.1702 -1.4602  1.1072
86052SOL    HW270136   0.887   3.995  11.952 -0.9843  0.3046 -0.3447
86053SOL     OW70137  12.874   1.574   8.181 -0.3010  0.1203  0.6225
86053SOL    HW170138  12.838   1.496   8.137  1.4514 -0.8633  0.8372
86053SOL    HW270139  12.962   1.547   8.209  0.8284  2.5538 -0.3382
86054SOL     OW70140  12.605   4.295   1.183  0.3614  0.4603  0.6672
86054SOL    HW170141  12.619   4.388   1.164 -2.0186  0.8314  0.3578
86054SOL    HW270142  12.638   4.283   1.271 -0.6535  2.0058  1.2978
86055SOL     OW70143  12.481   1.371   0.052  0.2077  0.4217 -0.1265
86055SOL    HW170144  12.504   1.306  -0.015 -1.1664 -1.0958  0.8111
86055SOL    HW270145  12.521   1.452   0.020  2.6445 -0.9830 -0.9939
86056SOL     OW70146   4.071  10.396   9.470  0.0177 -0.0946 -0.1726
86056SOL    HW170147   4.065  10.465   9.404  0.2501 -0.2542 -0.3616
86056SOL    HW270148   4.164  10.373   9.473  0.0424  0.0835  0.3913
86057SOL     OW70149   8.870  12.484  10.476  0.8152 -0.0121 -0.2974
86057SOL    HW170150   8.906  12.404  10.515  3.0689  0.1266 -1.9520
86057SOL    HW270151   8.789  12.455  10.433  1.4563 -1.3560 -0.6401
86058SOL     OW70152   1.483   3.601   6.021  0.2041  0.1783 -0.1379
86058SOL    HW170153   1.555   3.541   6.043  0.7324  1.3614  1.5731
86058SOL    HW270154   1.510   3.642   5.939  1.1860  0.1353  0.1499
86059SOL     OW70155   8.568   0.697   2.228  0.1587 -0.3456  0.0411
86059SOL    HW170156   8.550   0.693   2.322  0.5425 -1.6718  0.0806
86059SOL    HW270157   8.533   0.615   2.193  1.7785 -0.8071 -0.6272
86060SOL     OW70158   9.765  10.945  13.276 -0.2225  0.1427  0.3641
86060SOL    HW170159   9.839  10.895  13.310 -1.2549 -1.1754  0.7473
86060SOL    HW270160   9.728  10.989  13.352 -0.6727 -0.3445  0.4369
86061SOL     OW70161   6.126   8.438   0.036 -0.0965 -0.2108 -0.6100
86061SOL    HW170162   6.066   8.377   0.078  0.2395 -1.3131 -1.6715
86061SOL    HW270163   6.212   8.418   0.073 -0.1805  0.5078 -0.0135
86062SOL     OW70164   9.173   4.005   6.478  0.0351 -0.3701 -0.2979
86062SOL    HW170165   9.101   4.002   6.542  0.4811  0.7711  0.2853
86062SOL    HW270166   9.167   3.922   6.431 -0.9258 -0.8035  0.5569
86063SOL     OW70167   6.874   8.397   2.571  0.6835  0.2959  0.7185
86063SOL    HW170168   6.784   8.422   2.594 -0.0509 -0.9555 -0.6549
86063SOL    HW270169   6.882   8.306   2.601  0.3591 -0.7082 -1.9518
86064SOL     OW70170  13.420   7.069  11.245  0.3657 -0.1214 -0.3455
86064SOL    HW170171  13.425   7.055  11.340  0.6790 -0.5420 -0.4176
86064SOL    HW270172  13.329   7.092  11.228 -0.2657 -2.2974 -0.2301
86065SOL     OW70173   3.604  12.552   8.695  0.3695  0.3476 -0.0032
86065SOL    HW170174   3.546  12.617   8.655 -0.4413 -0.5623 -0.3115
86065SOL    HW270175   3.546  12.490   8.738  1.0377 -1.2334 -1.2964
86066SOL     OW70176   4.942   5.948  13.080  0.2225 -0.1922 -0.1938
86066SOL    HW170177   4.953   5.863  13.037  2.4894  0.7557 -1.7424
86066SOL    HW270178   4.994   5.941  13.160 -1.0258 -0.7939  0.5827
86067SOL     OW70179   4.391   1.132  11.454 -0.0529  0.0355 -0.0678
86067SOL    HW170180   4.315   1.167  11.501 -0.1215  0.0701 -0.2038
86067SOL    HW270181   4.386   1.037  11.467 -0.1374  0.0350 -0.1046
86068SOL     OW70182  10.501   3.453   3.756 -0.3169  0.4987 -0.5086
86068SOL    HW170183  10.481   3.373   3.805 -0.6943  0.3338 -0.9223
86068SOL    HW270184  10.596   3.450   3.745 -0.1860  0.7295  0.5222
86069SOL     OW70185   9.123   8.114  13.065  0.6669  0.3332  0.3079
86069SOL    HW170186   9.205   8.151  13.099  1.7684 -1.6479 -0.0657
86069SOL    HW270187   9.087   8.064  13.138  0.8299 -0.4207 -0.1183
86070SOL     OW70188   2.311   3.783   7.501 -0.5173 -0.1751  0.1320
86070SOL    HW170189   2.354   3.802   7.418  0.2775  0.0220  0.5752
86070SOL    HW270190   2.218   3.785   7.481 -0.3915  1.3906 -0.4266
86071SOL     OW70191   4.837  11.222   0.476  0.2784 -0.2648 -0.6016
86071SOL    HW170192   4.908  11.224   0.540  0.5152  1.4075 -0.8620
86071SOL    HW270193   4.877  11.254   0.395 -0.7923  0.8940 -0.6994
86072SOL     OW70194   6.220   1.013   1.332 -0.1383  0.0298  0.2888
86072SOL    HW170195   6.291   0.994   1.393  0.0912 -1.2627 -0.3297
86072SOL    HW270196   6.237   0.955   1.257 -1.9148 -0.4269  0.1940
86073SOL     OW70197   2.904  11.205   2.142  0.3048 -0.1021  0.8675
86073SOL    HW170198   2.835  11.139   2.154 -0.1555  0.0349 -0.7705
86073SOL    HW270199   2.986  11.156   2.153 -0.0281 -0.3824  2.2816
86074SOL     OW70200   2.188   8.189   0.932 -0.0146  0.2532 -0.0945
86074SOL    HW170201   2.245   8.244   0.879  1.6142 -1.3258 -0.0850
86074SOL    HW270202   2.152   8.125   0.870 -0.4392  0.1979  0.2053
86075SOL     OW70203  10.108   7.115   4.139  0.3434  0.2706  0.1267
86075SOL    HW170204  10.150   7.130   4.223  1.4123  0.2889 -0.3915
86075SOL    HW270205  10.173   7.067   4.088 -0.5550 -0.3640 -0.4523
86076SOL     OW70206   9.778  12.914   7.762  0.0465 -0.4777  0.5006
86076SOL    HW170207   9.864  12.948   7.788  1.1259 -1.5420 -1.4826
86076SOL    HW270208   9.774  12.929   7.668 -0.3908 -3.6342 -0.0854
86077SOL     OW70209  14.041  10.722   4.156 -0.3343 -0.0468 -0.0670
86077SOL    HW170210  14.057  10.808   4.116 -0.8547  0.9038  1.6631
86077SOL    HW270211  13.975  10.681   4.100 -0.4362  0.8847 -0.6523
86078SOL     OW70212   5.464   4.046   1.454  0.1919  0.1364 -0.0275
86078SOL    HW170213   5.415   4.126   1.474  1.1445  0.5588  0.6999
86078SOL    HW270214   5.415   4.005   1.383 -0.3680  1.3195 -0.3485
86079SOL     OW70215   2.381   2.250   3.965 -0.0467  0.1700 -0.4726
86079SOL    HW170216   2.362   2.292   4.048 -1.8227 -1.4426  0.0398
86079SOL    HW270217   2.355   2.314   3.899 -2.2760  0.1460  0.2706
86080SOL     OW70218   3.083  13.851   2.294 -1.0754 -0.5259  0.3311
86080SOL    HW170219   3.092  13.764   2.255  0.0811  0.5507 -1.9631
86080SOL    HW270220   3.073  13.910   2.220 -0.1220  1.5076  1.7235
86081SOL     OW70221   5.747  11.264   5.469  0.7008  0.0643  0.6801
86081SOL    HW170222   5.657  11.288   5.445  0.3704 -1.1591  0.6121
86081SOL    HW270223   5.774  11.330   5.532 -0.8449 -0.4676  1.9527
86082SOL     OW70224  10.383   3.088   7.618 -0.1022  0.1043  0.3840
86082SOL    HW170225  10.302   3.135   7.596 -0.0966 -0.1882 -0.3288
86082SOL    HW270226  10.433   3.089   7.536 -1.2979 -3.4644 -0.5905
86083SOL     OW70227   7.198   9.270  13.203 -0.2435  0.4612  0.1818
86083SOL    HW170228   7.267   9.209  13.176 -0.6550 -0.0141  0.1975
86083SOL    HW270229   7.136   9.271  13.130  1.2407  3.2071 -1.2026
86084SOL     OW70230   8.178  10.779   8.116  0.2786 -0.5480  0.2328
86084SOL    HW170231   8.097  10.802   8.070  0.6736  0.9220  0.2241
86084SOL    HW270232   8.170  10.824   8.201  1.0448 -0.4417  0.2536
86085SOL     OW70233   8.174   0.422   5.881  0.6610  0.0548 -0.4077
86085SOL    HW170234   8.131   0.497   5.840 -0.4496  0.0992  0.7705
86085SOL    HW270235   8.102   0.363   5.905  1.3107 -0.2686  0.8489
86086SOL     OW70236   0.291   5.049   5.349 -0.2651 -0.2611 -0.3969
86086SOL    HW170237   0.354   5.082   5.285  0.7899 -1.3828  0.0023
86086SOL    HW270238   0.346   5.014   5.420 -1.3948  0.5795  0.9348
86087SOL     OW70239  13.619  12.641  12.206  0.1947 -0.6465 -0.4268
86087SOL    HW170240  13.699  12.617  12.252  0.2955  0.0745 -0.2260
86087SOL    HW270241  13.569  12.693  12.268  0.3984  0.4663 -1.1728
86088SOL     OW70242   2.865  10.090  11.298 -0.2830 -0.0706 -0.0157
86088SOL    HW170243   2.841  10.178  11.269  1.6410  0.7185  0.5822
86088SOL    HW270244   2.812  10.031  11.244 -2.5789  1.4367  0.4702
86089SOL     OW70245  10.076   1.722   8.163  0.3200 -0.6451 -0.3667
86089SOL    HW170246  10.042   1.784   8.226 -0.7844  0.0705 -1.6264
86089SOL    HW270247  10.170   1.742   8.157  0.2727 -0.1714  0.3959
86090SOL     OW70248   1.381   8.477  11.237 -0.6632  0.0514 -0.2414
86090SOL    HW170249   1.322   8.475  11.313 -1.8701 -0.5732 -1.1716
86090SOL    HW270250   1.338   8.536  11.175  0.9426  1.5815  0.0180
86091SOL     OW70251  13.493   1.320   0.280  0.1033  0.7797 -0.1404
86091SOL    HW170252  13.435   1.375   0.227 -0.5204  0.4053  0.1411
86091SOL    HW270253  13.515   1.246   0.222 -0.7815  0.2403  0.1866
86092SOL     OW70254   9.768   0.007  12.987 -1.0048 -0.6154 -0.0398
86092SOL    HW170255   9.722   0.054  12.917  0.2248 -1.9898 -1.8591
86092SOL    HW270256   9.765   0.067  13.062 -1.4285  1.4091 -1.5826
86093SOL     OW70257  11.005   1.937   5.322  0.6439 -0.1279 -0.7661
86093SOL    HW170258  10.981   2.029   5.324  0.3499 -0.2008 -0.9268
86093SOL    HW270259  10.933   1.892   5.367  0.5731 -0.3232 -1.0686
86094SOL     OW70260   2.438  12.093   4.175 -0.0383  0.3225  0.2638
86094SOL    HW170261   2.411  12.081   4.267  0.3067  0.0561  0.3324
86094SOL    HW270262   2.405  12.180   4.152  1.4745  1.1909  1.2217
86095SOL     OW70263   3.626   5.895   5.284 -0.2782 -0.3163  0.1437
86095SOL    HW170264   3.534   5.883   5.261 -0.2428 -0.6921  0.1893
86095SOL    HW270265   3.668   5.813   5.258  0.2849  0.3245 -1.0660
86096SOL     OW70266   4.752   0.672   9.884  0.3401 -0.0736 -0.3434
86096SOL    HW170267   4.755   0.576   9.874  1.1835 -0.0620 -0.2669
86096SOL    HW270268   4.761   0.686   9.978 -0.5552  0.0655 -0.2676
86097SOL     OW70269  11.054   3.599  11.835  0.2171  0.2899  0.1742
86097SOL    HW170270  11.050   3.679  11.782 -1.4434 -0.2061 -0.5184
86097SOL    HW270271  11.043   3.528  11.772 -3.0420 -0.2722  1.1970
86098SOL     OW70272   3.884   3.044   2.321 -0.1991  0.4755 -0.1376
86098SOL    HW170273   3.959   3.083   2.277  0.1694 -0.0446  0.0270
86098SOL    HW270274   3.876   3.092   2.403 -1.1287  1.7173 -0.9254
86099SOL     OW70275  13.512   2.208   0.215 -0.4719 -0.2724  0.0233
86099SOL    HW170276  13.501   2.228   0.308 -0.8140 -1.2205  0.1984
86099SOL    HW270277  13.578   2.139   0.213 -2.5570 -2.3959 -0.1591
86100SOL     OW70278   0.642  13.561  11.199 -0.1694  0.1680  0.4497
86100SOL    HW170279   0.675  13.498  11.136 -0.2475  1.0093 -0.4655
86100SOL    HW270280   0.612  13.635  11.146  0.5772  1.2840  1.5076
86101SOL     OW70281  13.916   4.594  10.710  0.2979  0.3989 -0.1951
86101SOL    HW170282  13.895   4.687  10.702  0.2327  0.7004  2.5761
86101SOL    HW270283  13.836   4.554  10.745  0.9752 -0.3387  0.5516
86102SOL     OW70284   1.402   0.471   3.100  0.2842  0.1364  0.3712
86102SOL    HW170285   1.415   0.562   3.074 -0.4453 -0.2469 -1.4394
86102SOL    HW270286   1.432   0.420   3.025 -0.7887 -1.0683  0.7260
86103SOL     OW70287   6.021   4.246   4.767  0.0432 -0.8587 -0.7323
86103SOL    HW170288   5.999   4.153   4.769  2.7888 -1.5882  0.7017
86103SOL    HW270289   6.103   4.250   4.718  1.9163  0.2043  2.2266
86104SOL     OW70290  13.493   2.778   4.571  0.5316  0.2256  0.1135
86104SOL    HW170291  13.434   2.852   4.585 -0.4005 -0.0407 -2.0958
86104SOL    HW270292  13.461   2.710   4.631 -0.1937  0.7294  0.3123
86105SOL     OW70293   5.529   5.004   2.113 -0.3915  0.1024 -0.3117
86105SOL    HW170294   5.494   5.091   2.133 -0.7514  0.5227 -2.4735
86105SOL    HW270295   5.458   4.960   2.065 -1.0630 -2.2643  2.5068
86106SOL     OW70296  12.943   2.116   5.877 -0.2251 -0.0544 -0.1239
86106SOL    HW170297  12.995   2.081   5.805  0.0527  0.2892 -0.0880
86106SOL    HW270298  12.915   2.039   5.926  2.1631 -0.1462  1.2095
86107SOL     OW70299   0.617  10.750   3.578 -0.5089 -0.0355  0.4283
86107SOL    HW170300   0.547  10.722   3.637  0.6916 -0.8982  1.5000
86107SOL    HW270301   0.588  10.721   3.492 -0.6585 -2.0914  1.1079
86108SOL     OW70302  11.153   8.713  10.914 -0.0167  0.0571  0.5592
86108SOL    HW170303  11.074   8.696  10.966  0.1306 -1.5404  0.2915
86108SOL    HW270304  11.137   8.799  10.876 -2.0876 -0.6354 -0.2848
86109SOL     OW70305   2.931   4.196   5.961  0.5450  0.2917  0.4300
86109SOL    HW170306   2.858   4.163   5.909  2.0718 -0.5130 -1.3337
86109SOL    HW270307   2.967   4.267   5.908  0.7390  1.0213  1.5240
86110SOL     OW70308  10.012  11.296   8.834 -0.4179  0.4688  0.8440
86110SOL    HW170309  10.088  11.351   8.853 -0.5378  0.2362  2.0820
86110SOL    HW270310   9.940  11.338   8.882 -0.6818 -0.2894  1.1269
86111SOL     OW70311   9.701   7.281   0.772  0.4836 -0.5351 -0.1871
86111SOL    HW170312   9.780   7.335   0.768  0.7212 -0.9525 -1.8578
86111SOL    HW270313   9.666   7.296   0.860  1.4321  1.0488 -0.0425
86112SOL     OW70314   8.511   9.942   7.529  0.0126  0.3847  0.2584
86112SOL    HW170315   8.558  10.008   7.478 -1.3673  1.7133  0.6485
86112SOL    HW270316   8.419   9.956   7.507 -0.3530 -1.0695  0.7811
86113SOL     OW70317   8.611   9.353   6.311 -0.5014  0.8475 -0.1982
86113SOL    HW170318   8.577   9.419   6.372  1.7872  1.0421  0.9844
86113SOL    HW270319   8.676   9.399   6.260 -0.4580  0.0178 -0.9130
86114SOL     OW70320   1.357  11.069  10.898  0.0837 -0.2632  0.1422
86114SOL    HW170321   1.314  11.068  10.813  1.1535 -1.7631 -0.4127
86114SOL    HW270322   1.437  11.120  10.884  0.8515 -1.4888 -0.0876
86115SOL     OW70323   5.058   5.800  10.941 -0.1967  0.0673 -0.3879
86115SOL    HW170324   5.084   5.863  10.874 -0.7811 -0.1357 -0.8204
86115SOL    HW270325   5.131   5.739  10.947 -0.1252  0.1092 -0.8183
86116SOL     OW70326   4.019  13.856  11.142 -0.0241 -0.0842 -0.2204
86116SOL    HW170327   3.958  13.898  11.082  0.8337 -0.6440 -1.5271
86116SOL    HW270328   4.071  13.797  11.087  1.4903  0.1509  0.8742
86117SOL     OW70329   1.550   1.253   5.381 -0.2378 -0.0126  0.4752
86117SOL    HW170330   1.488   1.202   5.432 -1.8937  0.9389 -0.4808
86117SOL    HW270331   1.589   1.190   5.320 -1.3495 -0.3878  0.1303
86118SOL     OW70332   5.169   1.149   2.047  0.2507 -0.2577 -0.4248
86118SOL    HW170333   5.083   1.157   2.005 -0.3149 -1.0240  0.5487
86118SOL    HW270334   5.220   1.095   1.988 -0.9585 -2.4433  0.4259
86119SOL     OW70335   8.575  12.429   0.141  0.5038 -0.1515  0.4868
86119SOL    HW170336   8.556  12.489   0.213 -0.9952  0.8337 -0.6745
86119SOL    HW270337   8.623  12.483   0.078  1.4783 -0.9097  0.5584
86120SOL     OW70338   2.190  13.519  12.232  0.0623  0.1106 -0.2675
86120SOL    HW170339   2.232  13.597  12.196 -0.4748  0.3583 -0.3662
86120SOL    HW270340   2.262  13.467  12.268  0.2658  1.4602  1.3753
86121SOL     OW70341   4.067  13.480  10.092 -0.3724  0.1696  0.1039
86121SOL    HW170342   4.064  13.571  10.121 -3.2212 -0.1221  0.9809
86121SOL    HW270343   4.084  13.430  10.172 -3.0791 -0.2839  0.4817
86122SOL     OW70344   1.809   4.922  10.820 -0.1055 -0.2302  0.7056
86122SOL    HW170345   1.892   4.962  10.846  1.4363 -1.8572 -1.3834
86122SOL    HW270346   1.822   4.828  10.835 -0.8329 -0.7226 -1.4660
86123SOL     OW70347   0.817   9.945   2.710 -0.1013 -0.2231  0.2904
86123SOL    HW170348   0.727   9.915   2.712 -1.4404  3.3149  1.2566
86123SOL    HW270349   0.843   9.949   2.802 -0.0386  1.4143  0.2399
86124SOL     OW70350   2.889   8.880   5.054 -0.2432 -0.3122 -0.1332
86124SOL    HW170351   2.934   8.959   5.022 -1.6798  0.7841  0.4392
86124SOL    HW270352   2.950   8.843   5.118 -0.3772  1.5668  1.1995
86125SOL     OW70353   7.520   1.593   1.705 -0.2540 -0.0402  0.3267
86125SOL    HW170354   7.433   1.632   1.708 -0.6178 -0.8779  1.7801
86125SOL    HW270355   7.580   1.667   1.700 -1.0055  0.5947  0.5992
86126SOL     OW70356   4.601   6.600   6.087 -0.0771  0.1059  0.8191
86126SOL    HW170357   4.632   6.594   5.997 -0.3170  2.1851  0.5352
86126SOL    HW270358   4.612   6.513   6.123  2.0620 -0.2424 -0.5551
86127SOL     OW70359  13.107  13.424   7.776  0.6070  0.2539 -0.6400
86127SOL    HW170360  13.077  13.471   7.698 -1.2910  3.0773  1.5797
86127SOL    HW270361  13.027  13.404   7.824  1.7975  0.9622  1.7914
86128SOL     OW70362   2.824   4.145   3.937 -0.6317 -0.4014 -0.2079
86128SOL    HW170363   2.845   4.237   3.952 -0.5456 -0.5172  0.4357
86128SOL    HW270364   2.829   4.133   3.843  0.0689  0.0869 -0.2365
86129SOL     OW70365   5.892   3.500   3.258 -0.0260 -0.4257 -0.0376
86129SOL    HW170366   5.808   3.470   3.291 -0.3589 -0.2458 -0.7107
86129SOL    HW270367   5.939   3.419   3.236  0.2024 -0.5486  0.8550
86130SOL     OW70368  10.465  13.963   1.730 -0.7091 -0.5992  0.0144
86130SOL    HW170369  10.381  14.008   1.742 -0.9754 -1.1935  0.4306
86130SOL    HW270370  10.518  13.991   1.804 -0.5972 -0.3456 -0.1630
86131SOL     OW70371   6.388   2.232  12.619  0.1834  0.1605 -0.1876
86131SOL    HW170372   6.323   2.217  12.687  1.0475 -1.0216  0.4135
86131SOL    HW270373   6.362   2.175  12.547 -0.0531  0.5019 -0.3725
86132SOL     OW70374  11.546   0.934   6.945 -0.0036 -0.7071 -0.6972
86132SOL    HW170375  11.608   0.940   6.873  1.2141  0.2835  0.3773
86132SOL    HW270376  11.555   1.018   6.991 -1.0966 -1.1219  0.3253
86133SOL     OW70377   7.365   4.622  12.940  0.3733 -0.3867  0.1543
86133SOL    HW170378   7.344   4.545  12.888  1.9768 -0.8385  0.1164
86133SOL    HW270379   7.297   4.626  13.007 -0.7828 -0.7303 -0.9776
86134SOL     OW70380   1.859   3.911   9.638  0.0938 -0.0148 -0.6844
86134SOL    HW170381   1.938   3.961   9.663  1.3726 -0.8111 -2.9168
86134SOL    HW270382   1.886   3.859   9.563 -2.4994 -0.6182 -1.2835
86135SOL     OW70383  11.368   5.107  11.903 -0.0682  0.2768 -1.0522
86135SOL    HW170384  11.426   5.032  11.910  0.0619  0.3938 -0.8683
86135SOL    HW270385  11.419   5.180  11.936 -1.1701 -0.0498  1.5626
86136SOL     OW70386  13.081   3.781  12.658  0.3166 -0.1947  0.0500
86136SOL    HW170387  13.123   3.701  12.688 -0.3571 -0.9944 -1.0872
86136SOL    HW270388  13.150   3.830  12.614  0.4304 -0.7562 -0.3951
86137SOL     OW70389   5.595   1.596   4.898 -0.1040 -0.1131  0.0913
86137SOL    HW170390   5.591   1.607   4.803  1.4605 -0.3094 -0.0286
86137SOL    HW270391   5.511   1.557   4.921 -1.9642  3.1060 -0.7199
86138SOL     OW70392  13.129   2.665   0.412 -0.3178  0.7460 -0.0980
86138SOL    HW170393  13.204   2.706   0.368  1.3089 -0.6018  1.3024
86138SOL    HW270394  13.141   2.571   0.398 -0.9951  0.4236  1.2930
86139SOL     OW70395   5.530   1.223   5.418  0.0083  0.1821  0.0509
86139SOL    HW170396   5.615   1.183   5.398 -1.2540 -2.2791 -0.7648
86139SOL    HW270397   5.472   1.189   5.351 -1.6079  2.0245  0.4421
86140SOL     OW70398   6.332   5.300   1.594 -0.0527 -0.4313  0.4613
86140SOL    HW170399   6.382   5.289   1.675  1.7317  1.2152 -0.3257
86140SOL    HW270400   6.317   5.394   1.589  0.1733 -0.4595 -1.2616
86141SOL     OW70401   0.302   5.494  10.537  0.2776 -0.3023  0.6257
86141SOL    HW170402   0.308   5.569  10.477 -0.0877 -1.1338 -0.4811
86141SOL    HW270403   0.336   5.527  10.620 -1.0867  1.4916  0.5311
86142SOL     OW70404   5.243   2.579   3.633  0.0530  0.3014  0.0105
86142SOL    HW170405   5.283   2.605   3.716 -0.1145 -0.4136  0.3263
86142SOL    HW270406   5.276   2.490   3.617 -0.7290  0.0272 -0.1507
86143SOL     OW70407  10.399  11.231   5.625  0.2192 -0.4938  0.2064
86143SOL    HW170408  10.483  11.262   5.657  1.1004 -1.5396 -0.9669
86143SOL    HW270409  10.365  11.302   5.571  0.3265 -0.0594  0.7098
86144SOL     OW70410   8.335  12.306   0.039  0.7158 -0.3906  0.3404
86144SOL    HW170411   8.402  12.345   0.095  1.2276 -0.3461 -0.2846
86144SOL    HW270412   8.384  12.264  -0.032  0.0627  0.2379 -0.5098
86145SOL     OW70413  13.912   1.130  10.863 -0.4257  0.1966 -0.4256
86145SOL    HW170414  13.909   1.071  10.938 -2.5027 -1.5091 -1.7045
86145SOL    HW270415  13.938   1.074  10.789 -2.2390  0.8521 -1.6468
86146SOL     OW70416   2.120   2.618   2.453 -0.2309 -0.2824  0.3188
86146SOL    HW170417   2.024   2.624   2.452 -0.2780 -0.8456 -0.9870
86146SOL    HW270418   2.145   2.642   2.542 -1.7287 -2.2850  1.3480
86147SOL     OW70419   8.066   3.751   4.599 -0.1888 -0.0580  0.1692
86147SOL    HW170420   8.076   3.734   4.693 -0.7700 -1.7692 -0.0424
86147SOL    HW270421   8.154   3.742   4.563 -0.0658  0.0039  0.4477
86148SOL     OW70422   6.415   4.126   4.692  0.3849 -0.2724 -0.7186
86148SOL    HW170423   6.477   4.091   4.627 -1.0122 -1.1323 -1.6336
86148SOL    HW270424   6.334   4.140   4.642  0.1871  2.0911  0.1411
86149SOL     OW70425   1.877   6.664   2.399  0.0620  0.1319  0.0612
86149SOL    HW170426   1.953   6.712   2.365 -2.6672  3.2828 -2.2005
86149SOL    HW270427   1.861   6.596   2.334 -0.9416  1.6484 -1.3696
86150SOL     OW70428  10.133  11.525   2.758  0.4147  0.2705  0.2030
86150SOL    HW170429  10.135  11.520   2.662  0.1878 -0.7532  0.2404
86150SOL    HW270430  10.154  11.617   2.778  0.0784  0.5856 -0.8351
86151SOL     OW70431  10.327   4.934   6.513 -0.0673  0.1792  0.2376
86151SOL    HW170432  10.248   4.962   6.560 -0.2821 -0.5358  0.3242
86151SOL    HW270433  10.384   5.010   6.514 -0.4181  0.4434  0.9186
86152SOL     OW70434  10.444  11.305  11.889  0.5473 -0.3032 -0.0169
86152SOL    HW170435  10.444  11.210  11.878 -1.3088 -0.1713 -1.5122
86152SOL    HW270436  10.524  11.334  11.846  1.3554 -1.1959  0.8300
86153SOL     OW70437   7.406   1.467   6.709  0.0326  0.2188 -0.2059
86153SOL    HW170438   7.487   1.506   6.740  0.5682 -0.1422 -1.1183
86153SOL    HW270439   7.403   1.382   6.753 -0.1166  0.4414  0.2219
86154SOL     OW70440   9.181   2.783  10.114  0.1221  0.4822 -0.8317
86154SOL    HW170441   9.170   2.876  10.135  0.5994  0.4510 -0.4089
86154SOL    HW270442   9.159   2.737  10.195 -1.2429  0.1405 -1.3693
86155SOL     OW70443   6.643   7.796  12.247  0.1452  0.7793  0.0507
86155SOL    HW170444   6.674   7.721  12.197  1.9695  0.9909  0.7660
86155SOL    HW270445   6.548   7.795  12.237  0.1623 -1.3688 -0.2890
86156SOL     OW70446   7.943  12.522   1.000  0.2372 -0.3025 -0.4257
86156SOL    HW170447   7.957  12.617   1.004 -2.5191  0.2056 -0.7138
86156SOL    HW270448   7.913  12.507   0.910 -2.7601 -0.8069  0.5503
86157SOL     OW70449   8.381   4.022   2.478 -0.1905  0.0663  0.0449
86157SOL    HW170450   8.376   4.007   2.383 -0.1179 -0.6800  0.1531
86157SOL    HW270451   8.290   4.035   2.505 -0.1960  0.4479 -0.1518
86158SOL     OW70452   7.426   8.437  10.320  0.1914  0.2224  0.2481
86158SOL    HW170453   7.392   8.349  10.340  1.6610 -0.2412  0.8803
86158SOL    HW270454   7.404   8.451  10.229 -1.2113 -0.2562  0.4929
86159SOL     OW70455   6.940   5.624   0.839  0.1219  0.2181 -0.2244
86159SOL    HW170456   6.885   5.550   0.868  0.1823 -1.4787 -3.9077
86159SOL    HW270457   7.026   5.605   0.876 -0.8420  0.9980  2.6535
86160SOL     OW70458  12.628   5.170   5.891  0.0541 -0.6271 -0.5719
86160SOL    HW170459  12.593   5.241   5.837  0.9466  0.8318  0.6803
86160SOL    HW270460  12.569   5.166   5.966 -0.5993 -1.9697 -1.1153
86161SOL     OW70461  12.715   1.970  12.647  0.1967 -0.1072  0.1275
86161SOL    HW170462  12.676   1.997  12.564 -0.2616 -1.0650  0.0179
86161SOL    HW270463  12.770   1.895  12.624  0.2559 -0.2263  0.6504
86162SOL     OW70464   1.005   4.306   0.998 -0.7735 -0.6467 -0.7095
86162SOL    HW170465   0.949   4.231   1.019  1.4695 -2.3468 -0.4404
86162SOL    HW270466   1.034   4.338   1.083 -1.2571  0.1744 -0.8481
86163SOL     OW70467   7.474   2.568   7.385  0.8737 -0.5043  0.1758
86163SOL    HW170468   7.472   2.472   7.387 -0.6115 -0.5090  1.9541
86163SOL    HW270469   7.434   2.592   7.302 -0.8178 -1.4783  0.6548
86164SOL     OW70470   3.025   1.591   9.251 -0.0925  0.0218  0.1188
86164SOL    HW170471   2.931   1.574   9.261 -0.1516 -0.3561 -0.9737
86164SOL    HW270472   3.029   1.675   9.205  0.1247  0.3626  0.7472
86165SOL     OW70473   8.065   2.208   9.803 -0.1492 -0.5157 -0.4981
86165SOL    HW170474   8.038   2.288   9.759 -1.0766 -0.3061  0.4282
86165SOL    HW270475   8.161   2.213   9.803 -0.1970  1.1308  0.4964
86166SOL     OW70476   3.149   3.530  10.374  1.0567  0.6265  0.3091
86166SOL    HW170477   3.078   3.505  10.433  1.7735  0.0081  0.9329
86166SOL    HW270478   3.179   3.615  10.408 -0.5905  1.8330 -1.0910
86167SOL     OW70479  11.762   2.763   1.776 -0.0253 -0.2239 -0.2094
86167SOL    HW170480  11.792   2.802   1.858 -1.4229 -0.0447  0.2345
86167SOL    HW270481  11.693   2.822   1.746  0.3560 -0.3766 -1.4433
86168SOL     OW70482   0.531   7.128  13.817  0.1795  0.1294 -0.8088
86168SOL    HW170483   0.490   7.170  13.893  1.7728  0.7994 -0.2722
86168SOL    HW270484   0.472   7.146  13.744 -0.9557  0.2038  0.1050
86169SOL     OW70485   3.880   9.313   3.733 -0.1508 -0.0536  0.3073
86169SOL    HW170486   3.928   9.382   3.688  1.3698 -1.1308  0.2081
86169SOL    HW270487   3.946   9.267   3.783 -1.4393 -0.3196  1.8457
86170SOL     OW70488  10.634  12.485   5.110 -1.4175  0.6724 -0.1398
86170SOL    HW170489  10.720  12.443   5.118 -1.4071  0.2305 -2.1189
86170SOL    HW270490  10.572  12.413   5.117 -1.5117  0.6637 -0.9561
86171SOL     OW70491   4.815   6.474  10.974 -0.5084  0.0092 -0.0474
86171SOL    HW170492   4.736   6.491  11.025 -1.1839 -2.0349 -0.3144
86171SOL    HW270493   4.834   6.381  10.990  1.3415  0.2493 -0.6715
86172SOL     OW70494  12.589   8.286   5.984 -0.1791  0.6227  0.6082
86172SOL    HW170495  12.632   8.286   5.899 -0.5064 -0.9692  0.4069
86172SOL    HW270496  12.568   8.378   6.001  1.6306  1.1958 -0.1149
86173SOL     OW70497   2.951  11.921  11.989  0.0794  0.3857  0.2400
86173SOL    HW170498   2.920  11.984  11.923 -0.3920  0.1857  0.2684
86173SOL    HW270499   2.876  11.864  12.005  1.1096 -1.5625 -1.3601
86174SOL     OW70500   8.892  13.153   3.539  0.3478  0.1633 -0.0760
86174SOL    HW170501   8.854  13.129   3.624 -1.1496 -0.1382 -0.8096
86174SOL    HW270502   8.917  13.245   3.550  0.8942 -0.0784  0.9231
86175SOL     OW70503   7.257  11.835   5.448 -0.3189 -0.5942  0.3055
86175SOL    HW170504   7.306  11.762   5.410 -1.3601 -1.5219  0.6764
86175SOL    HW270505   7.250  11.814   5.541  1.5040  1.2449  0.9319
86176SOL     OW70506   3.170   7.233  11.110  0.4595 -0.4911 -0.2938
86176SOL    HW170507   3.181   7.138  11.106 -0.8327 -0.6544 -0.5139
86176SOL    HW270508   3.080   7.248  11.079  0.5177  0.7720  0.0882
86177SOL     OW70509   4.487  13.835   0.268  0.5560 -0.0544  0.1101
86177SOL    HW170510   4.500  13.930   0.257  2.2296 -0.3263 -0.7612
86177SOL    HW270511   4.392  13.824   0.271  0.3200  1.7680  1.5972
86178SOL     OW70512   8.759  11.330  13.624  1.0353  0.1028 -0.4120
86178SOL    HW170513   8.792  11.340  13.535 -0.9506 -0.2313 -1.2371
86178SOL    HW270514   8.717  11.244  13.625  0.1282  0.5330  0.5302
86179SOL     OW70515  14.009   4.752  10.269  0.2560 -0.2933  0.1082
86179SOL    HW170516  14.085   4.762  10.325  0.1880 -2.3655  0.6628
86179SOL    HW270517  13.957   4.684  10.311 -2.7525  2.0690  0.5924
86180SOL     OW70518  13.305   4.174   3.450  0.4707 -0.4298 -0.4641
86180SOL    HW170519  13.210   4.162   3.459  0.4436 -1.8475 -1.9877
86180SOL    HW270520  13.334   4.205   3.535 -1.2485 -0.8422  0.3203
86181SOL     OW70521   9.695   5.070   1.877  0.1652  0.1391  1.2120
86181SOL    HW170522   9.614   5.113   1.852  0.5886 -0.5996 -2.0134
86181SOL    HW270523   9.680   5.036   1.965 -2.0645  2.1470  1.6859
86182SOL     OW70524   0.082  11.285   8.949 -0.2378 -0.4858 -0.0525
86182SOL    HW170525   0.156  11.246   8.904  0.9349 -0.2168  1.5730
86182SOL    HW270526   0.117  11.314   9.033 -2.0796  0.0673  0.5750
86183SOL     OW70527   2.759   1.989   3.823 -0.5658 -0.1114 -0.2262
86183SOL    HW170528   2.763   1.953   3.735  2.4959 -0.5699 -0.0264
86183SOL    HW270529   2.816   2.066   3.821 -0.7170  0.0825  1.2650
86184SOL     OW70530   7.914   7.079   6.680  0.4916  0.6210 -0.1924
86184SOL    HW170531   7.909   7.021   6.604  0.0006 -1.2813  1.2238
86184SOL    HW270532   8.006   7.074   6.707  0.2435 -0.3396  0.5228
86185SOL     OW70533  13.049   0.187   8.434  0.1248 -0.1130 -0.2890
86185SOL    HW170534  13.009   0.252   8.376 -1.3855  0.5427  1.3873
86185SOL    HW270535  13.074   0.116   8.376  0.5724  1.3638 -2.0096
86186SOL     OW70536   3.190   3.403   5.969 -0.0372 -0.4034 -0.0758
86186SOL    HW170537   3.166   3.311   5.976  1.3471 -0.8488 -0.7098
86186SOL    HW270538   3.154   3.443   6.048  1.1281 -1.9106  1.2973
86187SOL     OW70539   8.207  12.342   7.878  0.4133  0.6365 -0.1187
86187SOL    HW170540   8.147  12.365   7.949  1.4031 -1.2483  1.3954
86187SOL    HW270541   8.291  12.327   7.921  0.9810 -0.8198 -1.6316
86188SOL     OW70542   5.978   6.480  11.010 -0.5998 -0.4124 -0.2100
86188SOL    HW170543   5.893   6.509  11.041  0.2992 -0.7020  2.8900
86188SOL    HW270544   6.036   6.555  11.023 -0.0695 -0.7330 -0.6785
86189SOL     OW70545   2.418   3.897   7.254 -0.4618 -0.0828 -0.0165
86189SOL    HW170546   2.465   3.955   7.194  1.5326  0.9864  2.4011
86189SOL    HW270547   2.436   3.809   7.221  1.1293  0.4360 -0.6215
86190SOL     OW70548   5.899   2.561   1.373 -0.5506  0.4168 -0.1044
86190SOL    HW170549   5.982   2.514   1.360 -0.7089 -0.1531  0.7944
86190SOL    HW270550   5.877   2.596   1.287  2.9713  4.6128  0.3739
86191SOL     OW70551  11.620   8.001   6.540  0.3001 -0.0163  0.5879
86191SOL    HW170552  11.633   8.007   6.635  1.1238  0.6030  0.4441
86191SOL    HW270553  11.645   7.912   6.518  1.6591  0.3212  0.7267
86192SOL     OW70554   2.583  13.222   3.795  0.2203 -0.2666 -0.2870
86192SOL    HW170555   2.615  13.204   3.883  1.5658  1.9213 -0.2635
86192SOL    HW270556   2.501  13.269   3.809  1.5173  2.0860 -0.0460
86193SOL     OW70557  13.826  10.468   6.052  0.2832 -0.2604 -0.0200
86193SOL    HW170558  13.778  10.447   5.972 -0.5486  0.4126  0.2895
86193SOL    HW270559  13.806  10.560   6.069  0.9397 -0.2289  0.6310
86194SOL     OW70560   1.905   7.807   7.250 -0.4352 -0.1690  0.0887
86194SOL    HW170561   1.875   7.726   7.209 -0.3710 -0.4003  0.4848
86194SOL    HW270562   1.863   7.807   7.336 -0.9832  0.5656 -0.1742
86195SOL     OW70563   5.924   4.347  12.608 -0.2032 -0.2097  0.3222
86195SOL    HW170564   5.993   4.317  12.548  0.1517  1.8942 -0.4146
86195SOL    HW270565   5.964   4.341  12.695  0.5612  0.0462 -0.0030
86196SOL     OW70566   9.438  13.652   1.789 -0.1538 -0.0760 -0.2358
86196SOL    HW170567   9.471  13.565   1.765 -0.4023  0.1056 -1.3052
86196SOL    HW270568   9.404  13.688   1.707 -1.4658  0.4226  0.4933
86197SOL     OW70569   5.847  10.962   7.173  0.1826 -0.1777  0.3272
86197SOL    HW170570   5.871  10.963   7.266 -0.2018 -1.1041  0.4490
86197SOL    HW270571   5.929  10.940   7.127  0.1885 -0.5787  0.5219
86198SOL     OW70572  13.758   6.882   1.368  0.0456  0.0013  0.0033
86198SOL    HW170573  13.686   6.933   1.330 -1.2435 -2.2133 -0.6994
86198SOL    HW270574  13.836   6.935   1.351 -1.2971  2.1476  0.1421
86199SOL     OW70575   3.984   2.112   7.644  0.1956 -0.1357 -0.0679
86199SOL    HW170576   3.937   2.035   7.677  1.6041 -1.7662 -1.6654
86199SOL    HW270577   4.045   2.134   7.714  0.5497 -1.1999 -0.0123
86200SOL     OW70578  11.250  10.213   0.295  0.1452 -0.2599  0.2086
86200SOL    HW170579  11.283  10.282   0.352  0.6218  1.6165 -2.1366
86200SOL    HW270580  11.167  10.247   0.261  0.2065 -0.9663 -0.6966
86201SOL     OW70581   1.328  12.212   2.191 -0.8606 -0.3950 -0.3613
86201SOL    HW170582   1.406  12.211   2.247 -1.6363 -2.9703  0.8532
86201SOL    HW270583   1.352  12.160   2.115 -0.7739  0.5169 -0.9644
86202SOL     OW70584  10.522   7.393   5.463  0.4681  0.8657  0.2227
86202SOL    HW170585  10.589   7.424   5.403  0.6111  0.0545 -0.0426
86202SOL    HW270586  10.549   7.304   5.486 -0.4223  0.5872  0.2395
86203SOL     OW70587  10.850   1.681  13.059  0.5786 -0.5396  0.5186
86203SOL    HW170588  10.870   1.676  13.152  2.3268  0.3724  0.2253
86203SOL    HW270589  10.757   1.705  13.056  0.4187 -0.8511  2.0020
86204SOL     OW70590   5.664   5.837   2.957 -0.2875  0.0554  0.2505
86204SOL    HW170591   5.664   5.929   2.983 -0.7862  0.4034 -0.9262
86204SOL    HW270592   5.585   5.801   2.996 -1.2319  0.6666 -1.0405
86205SOL     OW70593   0.262  11.293   2.906 -0.1134  0.1736 -0.0546
86205SOL    HW170594   0.229  11.277   2.995 -0.5976  0.0821 -0.2465
86205SOL    HW270595   0.336  11.233   2.897  0.7580  1.0842  0.7381
86206SOL     OW70596  11.344  10.764   9.165  0.2868  0.3808 -0.0055
86206SOL    HW170597  11.280  10.707   9.123 -0.1651  1.1589 -0.3801
86206SOL    HW270598  11.408  10.704   9.204  1.2069 -0.3714 -2.4848
86207SOL     OW70599  12.827  13.780  12.281  0.3392  0.0384 -0.0691
86207SOL    HW170600  12.869  13.753  12.362  0.8521  2.3110  0.5129
86207SOL    HW270601  12.735  13.792  12.304  0.4837  0.6743  0.2071
86208SOL     OW70602   1.165  13.823   2.993 -0.2728 -0.3152  0.0291
86208SOL    HW170603   1.213  13.756   2.944  0.0246 -0.1368  0.0716
86208SOL    HW270604   1.199  13.815   3.083  0.6649  0.7076 -0.2198
86209SOL     OW70605   4.685  12.965   7.079 -0.3600 -0.4312 -0.2965
86209SOL    HW170606   4.720  13.005   7.000  0.2699 -1.0428 -0.3397
86209SOL    HW270607   4.689  12.871   7.062 -0.4827 -0.5602  0.3507
86210SOL     OW70608   2.904   3.232   2.504  0.9123  0.3549  0.4357
86210SOL    HW170609   2.938   3.320   2.493  1.2790  0.1866  0.2175
86210SOL    HW270610   2.908   3.193   2.416 -0.7646  0.6585  0.1855
86211SOL     OW70611  10.608  11.845   1.668 -0.1092  0.8183 -0.1631
86211SOL    HW170612  10.612  11.927   1.618  0.0753  2.0020  1.7121
86211SOL    HW270613  10.608  11.873   1.760 -0.1686 -1.2914  0.5182
86212SOL     OW70614  10.848   2.453  13.374 -0.1858  0.1831  0.5449
86212SOL    HW170615  10.819   2.525  13.429  0.1012 -0.2671  1.3037
86212SOL    HW270616  10.773   2.393  13.370  0.3309 -0.6060  1.8717
86213SOL     OW70617   2.449   0.572   6.067 -0.1454 -0.3356  0.1720
86213SOL    HW170618   2.496   0.526   5.998  2.0140 -0.2820  1.5139
86213SOL    HW270619   2.468   0.522   6.146 -2.9601 -0.6853  0.7425
86214SOL     OW70620   5.742   6.487   5.821  0.2958 -0.5444  0.6215
86214SOL    HW170621   5.686   6.544   5.769  1.5059 -0.8639 -1.1287
86214SOL    HW270622   5.733   6.519   5.910 -1.4230  0.3941  0.1480
86215SOL     OW70623   0.580   7.295   4.508 -0.1446  0.2115 -0.0262
86215SOL    HW170624   0.590   7.388   4.528  0.1485 -0.1520  1.6567
86215SOL    HW270625   0.663   7.255   4.533 -0.8533 -0.7470  0.9230
86216SOL     OW70626   3.628   4.805   7.986  0.0494 -0.3607 -0.7739
86216SOL    HW170627   3.675   4.801   8.070 -0.8875  0.4597 -0.1776
86216SOL    HW270628   3.540   4.833   8.010  0.4718  2.6773 -2.2598
86217SOL     OW70629   9.268   1.377  11.291 -0.4421 -0.0305  0.3572
86217SOL    HW170630   9.185   1.358  11.335  0.4550  0.9974  2.6160
86217SOL    HW270631   9.276   1.472  11.296  0.8205 -0.1067  0.0695
86218SOL     OW70632   1.747   1.393   2.842 -0.0329 -0.4291  0.2710
86218SOL    HW170633   1.706   1.430   2.921  1.6904  2.1408  0.0982
86218SOL    HW270634   1.685   1.412   2.772 -0.7624 -1.0947  0.7223
86219SOL     OW70635   0.267   3.785   6.639  0.1836  0.1181  0.1871
86219SOL    HW170636   0.234   3.707   6.593  0.7639  0.4458 -0.8299
86219SOL    HW270637   0.362   3.778   6.633  0.3328 -0.3916  2.3598
86220SOL     OW70638   3.214   5.448   2.180  0.7657 -0.1691  0.0256
86220SOL    HW170639   3.230   5.426   2.088 -0.1716 -0.2028 -0.1355
86220SOL    HW270640   3.289   5.411   2.227  1.4543  0.1912 -0.7671
86221SOL     OW70641   9.467  10.940  13.733 -0.1691 -0.5706 -0.0296
86221SOL    HW170642   9.395  10.950  13.671 -0.9881 -2.0778  0.6394
86221SOL    HW270643   9.435  10.982  13.814  0.0486 -0.4852  0.0123
86222SOL     OW70644  10.147   4.490  13.209  0.2123 -0.4944  0.2272
86222SOL    HW170645  10.100   4.474  13.290  0.1902  0.1647  0.3504
86222SOL    HW270646  10.228   4.533  13.236  0.0855 -0.0291 -0.1099
86223SOL     OW70647   8.329   1.087   3.194 -0.2809 -0.0651  0.5145
86223SOL    HW170648   8.243   1.056   3.222  0.4749 -1.3764  1.5713
86223SOL    HW270649   8.338   1.173   3.234 -1.4024  0.4412 -0.2809
86224SOL     OW70650   4.043   7.435   2.777  0.7409  0.4079 -0.0059
86224SOL    HW170651   4.092   7.358   2.748  0.1024  0.1380 -0.3891
86224SOL    HW270652   4.055   7.499   2.707  0.3197  0.2390 -0.2379
86225SOL     OW70653  11.146   4.007  13.589  0.0286  0.5771 -0.1110
86225SOL    HW170654  11.217   3.985  13.649 -0.8846  1.5529  1.3892
86225SOL    HW270655  11.072   4.027  13.646 -1.0612  0.9283 -1.5976
86226SOL     OW70656   5.697   5.029   3.901  0.0809  0.1004 -0.6816
86226SOL    HW170657   5.686   4.963   3.832 -1.0743 -1.1496  0.6281
86226SOL    HW270658   5.612   5.033   3.944  0.3651  1.9237 -0.2343
86227SOL     OW70659   9.085   2.746   6.278 -0.3670  0.1099 -0.0920
86227SOL    HW170660   9.062   2.755   6.185 -0.1717  0.2413 -0.1285
86227SOL    HW270661   9.118   2.832   6.302 -1.2446  0.3421  0.3338
86228SOL     OW70662   2.561   6.384   0.494  0.5824 -0.4456 -0.2094
86228SOL    HW170663   2.585   6.336   0.573  1.1506  1.6278  0.9403
86228SOL    HW270664   2.508   6.457   0.525  0.4552  0.1704 -1.7943
86229SOL     OW70665   5.786   3.590   2.712  0.2246  0.0744  0.6262
86229SOL    HW170666   5.702   3.563   2.675  0.5459  0.9754 -0.8717
86229SOL    HW270667   5.780   3.685   2.718  1.1952  0.1694  0.3345
86230SOL     OW70668   3.697  13.327   7.000 -0.2132 -0.1105  0.2928
86230SOL    HW170669   3.669  13.252   7.052  0.7579 -1.2000 -0.7055
86230SOL    HW270670   3.770  13.364   7.049 -0.3498 -0.1423  0.5224
86231SOL     OW70671   8.170  10.927  10.700  0.1824  0.2346  0.4232
86231SOL    HW170672   8.228  10.922  10.625  0.0131  1.0638  0.2320
86231SOL    HW270673   8.148  11.019  10.708 -0.4787  0.0431  0.9714
86232SOL     OW70674   6.743   2.195  13.895  0.1765  0.1033  0.1374
86232SOL    HW170675   6.830   2.201  13.936  0.2461  2.0485 -0.2047
86232SOL    HW270676   6.745   2.262  13.826 -0.8355 -1.3650 -1.3722
86233SOL     OW70677  11.107   3.562   1.197 -0.0328 -0.9700  0.3480
86233SOL    HW170678  11.048   3.541   1.124 -1.4363  0.0349  1.1431
86233SOL    HW270679  11.194   3.535   1.167 -0.5268 -0.3263 -1.8015
86234SOL     OW70680  13.244   5.587  12.300 -0.0330 -0.7168 -0.3214
86234SOL    HW170681  13.170   5.622  12.249 -1.0032 -0.4152  1.2206
86234SOL    HW270682  13.284   5.523  12.242 -0.9074 -0.1836 -1.5765
86235SOL     OW70683   7.207   2.888   0.800  0.3494 -0.3901  0.1078
86235SOL    HW170684   7.216   2.897   0.895  1.0063 -1.0130  0.1173
86235SOL    HW270685   7.213   2.793   0.784 -0.2677 -0.3339 -0.5072
86236SOL     OW70686  10.568   4.410   2.933  0.4933  0.2390 -0.4936
86236SOL    HW170687  10.587   4.319   2.954  0.5511  0.4676  0.4866
86236SOL    HW270688  10.558   4.411   2.838 -0.3849 -0.9392 -0.4352
86237SOL     OW70689  10.411  10.065   7.079 -0.1137 -0.4550  0.2395
86237SOL    HW170690  10.441  10.070   6.988  0.9346 -1.3683  0.5136
86237SOL    HW270691  10.484  10.024   7.126  0.9626  3.3253  2.2207
86238SOL     OW70692   4.780   0.850   5.716  0.2657 -1.1397 -0.1192
86238SOL    HW170693   4.704   0.849   5.775  0.1172 -3.1402 -0.2604
86238SOL    HW270694   4.824   0.933   5.734 -1.5040 -0.2989  0.5503
86239SOL     OW70695  13.890   1.917   4.797  0.5605  0.4596  0.9380
86239SOL    HW170696  13.875   2.009   4.774  2.2616  0.9699  1.6987
86239SOL    HW270697  13.977   1.897   4.763  0.4741 -0.6811  1.3464
86240SOL     OW70698   8.403   3.801   1.690 -0.3280  0.4185 -0.1684
86240SOL    HW170699   8.353   3.882   1.700 -0.5318  0.2111  0.5598
86240SOL    HW270700   8.362   3.740   1.751  0.2877 -0.0077 -0.1756
86241SOL     OW70701  10.960   1.838  13.960 -0.1276  0.2834 -0.0048
86241SOL    HW170702  11.026   1.805  14.021 -0.4881  1.5369  1.1447
86241SOL    HW270703  11.008   1.895  13.900  0.3313 -1.4469 -1.3460
86242SOL     OW70704   7.884   3.223   1.595 -0.1037  0.0932  0.3746
86242SOL    HW170705   7.848   3.288   1.655  0.8029  0.8593  0.1008
86242SOL    HW270706   7.978   3.237   1.598 -0.0138 -0.1414 -0.9064
86243SOL     OW70707   1.154   4.671  10.149 -0.3094  0.2602  0.5080
86243SOL    HW170708   1.093   4.725  10.099  1.8571  1.9749 -0.4488
86243SOL    HW270709   1.167   4.594  10.093 -2.4468 -0.7570  1.2976
86244SOL     OW70710   7.879   5.252   0.968  0.4904  0.0503 -0.4013
86244SOL    HW170711   7.972   5.248   0.988  0.1403 -1.0548  1.2670
86244SOL    HW270712   7.838   5.269   1.053 -0.8503  0.1377 -1.0449
86245SOL     OW70713  12.740   8.210   7.405  0.0267  0.7617 -0.3754
86245SOL    HW170714  12.823   8.229   7.363  2.1394 -1.6422  2.2875
86245SOL    HW270715  12.753   8.237   7.496 -2.4252  1.0249 -0.0310
86246SOL     OW70716   0.885   9.701   9.044  0.6657  0.1203 -0.1087
86246SOL    HW170717   0.960   9.693   8.986  0.7850 -1.9783  0.2686
86246SOL    HW270718   0.811   9.671   8.992  0.5365 -0.3842  0.3544
86247SOL     OW70719   1.015   2.879  13.725 -0.4333 -0.2824  0.4418
86247SOL    HW170720   0.999   2.795  13.681 -0.6240 -0.5179  0.9557
86247SOL    HW270721   1.062   2.856  13.805  0.8989  0.2478 -0.1582
86248SOL     OW70722   6.114   6.948  11.114 -0.2079 -0.6243  0.1966
86248SOL    HW170723   6.123   7.029  11.063 -0.9708 -1.7820 -1.9130
86248SOL    HW270724   6.042   6.966  11.175  0.1401  0.5222  0.2869
86249SOL     OW70725   2.806  10.184   1.967  0.4788 -0.0363 -0.7158
86249SOL    HW170726   2.880  10.164   1.910  2.1824  0.3483  1.2269
86249SOL    HW270727   2.802  10.279   1.970  0.9305 -0.0289  0.3610
86250SOL     OW70728   9.002  11.388   2.834  0.0432 -0.0752 -1.2599
86250SOL    HW170729   8.989  11.348   2.748 -0.8670 -0.9725 -0.7315
86250SOL    HW270730   8.989  11.316   2.896 -1.2864  0.9512 -0.2880
86251SOL     OW70731   2.046  13.768   9.902  0.2782  0.1442  0.2598
86251SOL    HW170732   2.070  13.855   9.936 -1.5737  0.2417  1.4651
86251SOL    HW270733   2.130  13.725   9.886  1.2390  1.7138  0.8032
86252SOL     OW70734   4.537   1.601   7.464  0.2191 -0.3094  0.6938
86252SOL    HW170735   4.508   1.684   7.426  1.1460  0.1752  1.0083
86252SOL    HW270736   4.581   1.556   7.392 -2.0975 -1.4907 -0.0633
86253SOL     OW70737  10.180   1.670  11.554  0.6691  0.0189 -0.1565
86253SOL    HW170738  10.119   1.600  11.530  2.0281 -2.6576  3.4251
86253SOL    HW270739  10.127   1.731  11.605  0.2393 -0.3821 -0.1161
86254SOL     OW70740  10.851   5.198   5.884  0.3015  0.2765 -0.5611
86254SOL    HW170741  10.937   5.219   5.847  1.0046 -2.6183 -0.8078
86254SOL    HW270742  10.869   5.135   5.954 -1.6295 -0.6197 -0.8015
86255SOL     OW70743   9.576  13.533   5.783  0.2016  0.0316  0.0586
86255SOL    HW170744   9.654  13.489   5.750 -0.1833 -0.9301  0.3994
86255SOL    HW270745   9.511  13.463   5.792  0.4521  0.0814  3.5074
86256SOL     OW70746   9.330   0.032  12.853  0.1226 -0.2890 -0.0115
86256SOL    HW170747   9.311  -0.017  12.932 -1.6363  0.4746  0.0851
86256SOL    HW270748   9.265   0.102  12.851 -0.0471 -0.4248 -2.2496
86257SOL     OW70749   0.575   4.154  10.187  0.1982  0.1960  0.1773
86257SOL    HW170750   0.630   4.169  10.110  2.1426 -0.8681  1.2916
86257SOL    HW270751   0.619   4.202  10.257 -0.4077 -0.5224  1.0622
86258SOL     OW70752   0.799  10.818  12.616 -0.3793  0.1396 -0.6626
86258SOL    HW170753   0.757  10.905  12.616  0.1339  0.3978 -0.0492
86258SOL    HW270754   0.892  10.837  12.627 -0.3943 -0.5359  0.9372
86259SOL     OW70755   3.893   8.751  12.788  0.0586  0.4013  0.3193
86259SOL    HW170756   3.843   8.817  12.837 -1.2541 -0.6836  0.4955
86259SOL    HW270757   3.837   8.673  12.789  0.7835 -0.1853 -1.3926
86260SOL     OW70758   1.897   4.881   4.740 -0.7553 -0.9883  0.7029
86260SOL    HW170759   1.954   4.898   4.665 -3.2790 -0.3145 -1.1786
86260SOL    HW270760   1.927   4.797   4.774  2.1587 -0.0878  0.6694
86261SOL     OW70761  12.409   2.098   1.669  0.0790 -0.6844 -0.3480
86261SOL    HW170762  12.428   2.022   1.724 -0.5768 -1.0695 -0.6334
86261SOL    HW270763  12.439   2.173   1.720  0.1278 -1.0891  0.2277
86262SOL     OW70764   8.462   5.726   5.595 -0.6455  0.0174  0.0663
86262SOL    HW170765   8.411   5.661   5.546  2.0140 -1.3940 -1.0294
86262SOL    HW270766   8.512   5.773   5.528  1.3931 -0.4262  1.1903
86263SOL     OW70767   9.668   0.973   6.978  0.1754 -0.4467  0.4981
86263SOL    HW170768   9.607   0.953   6.907  1.0756 -0.2837 -0.3290
86263SOL    HW270769   9.662   0.897   7.037 -0.1714 -0.8321 -0.0278
86264SOL     OW70770   2.386   0.420   3.549 -0.1782 -0.0832 -0.2396
86264SOL    HW170771   2.468   0.470   3.552  1.4537 -2.6127  1.1122
86264SOL    HW270772   2.370   0.407   3.455  2.4344 -1.6379 -0.5673
86265SOL     OW70773  12.789  12.213   8.095  0.1546 -0.4006  0.0774
86265SOL    HW170774  12.754  12.135   8.052  0.8217 -0.9968  0.5983
86265SOL    HW270775  12.879  12.189   8.119  0.7235  0.8785 -0.6736
86266SOL     OW70776   2.858  10.782  10.645  0.5611 -0.3434 -0.0400
86266SOL    HW170777   2.916  10.714  10.680 -2.1874 -2.1987  1.2820
86266SOL    HW270778   2.830  10.748  10.559 -1.8444 -1.7389  1.1684
86267SOL     OW70779   7.388   3.983   0.753 -0.0770  0.1382  0.2297
86267SOL    HW170780   7.354   4.031   0.829 -1.2971  1.3715 -1.0421
86267SOL    HW270781   7.334   3.904   0.749 -1.1052  0.8455 -0.2670
86268SOL     OW70782   9.407  10.341   3.555  0.2731 -0.5689 -0.2451
86268SOL    HW170783   9.319  10.315   3.528  0.4590 -0.7392 -0.7050
86268SOL    HW270784   9.438  10.397   3.485  0.7692 -1.0231 -0.3993
86269SOL     OW70785   0.179   6.357   4.417  0.0874 -0.1115  0.7085
86269SOL    HW170786   0.144   6.307   4.491  0.1861 -1.4053 -0.0793
86269SOL    HW270787   0.265   6.387   4.446  0.0297 -0.4088  1.2028
86270SOL     OW70788  13.162  12.762   0.212 -0.3615  0.5515 -0.0130
86270SOL    HW170789  13.112  12.684   0.189 -1.0199  1.0910 -0.4310
86270SOL    HW270790  13.231  12.730   0.271 -1.0483 -0.2385  0.3779
86271SOL     OW70791   6.344   6.089   9.002 -0.2971 -0.2614  0.2966
86271SOL    HW170792   6.339   6.177   9.041  0.6157 -0.5078  1.0206
86271SOL    HW270793   6.256   6.054   9.010 -0.7258  0.6748 -0.2067
86272SOL     OW70794   1.592   9.762   4.944 -0.4420 -0.6565 -0.7883
86272SOL    HW170795   1.561   9.753   5.034 -2.0482 -1.6713 -1.4029
86272SOL    HW270796   1.682   9.731   4.946  0.2530  1.2568  0.8351
86273SOL     OW70797  10.442   9.268   1.264  0.3344  0.0888 -0.1746
86273SOL    HW170798  10.422   9.215   1.340 -0.8836 -0.6813 -0.9994
86273SOL    HW270799  10.486   9.345   1.299 -3.2927  1.5107  1.7265
86274SOL     OW70800   2.281   7.627   2.136 -0.0855  0.9149  0.7252
86274SOL    HW170801   2.227   7.705   2.123 -0.2837  0.9834  1.8264
86274SOL    HW270802   2.240   7.581   2.210  0.4910  0.1812  0.6096
86275SOL     OW70803   6.498   6.058   2.049 -0.0320 -0.3429  0.1446
86275SOL    HW170804   6.552   5.983   2.074  1.4858  0.0473 -1.6997
86275SOL    HW270805   6.468   6.037   1.961 -0.6262  0.6621  0.0991
86276SOL     OW70806   0.165  10.674   1.389 -0.0162 -0.6093 -0.3601
86276SOL    HW170807   0.202  10.631   1.466  3.1712 -2.2569 -2.5748
86276SOL    HW270808   0.203  10.762   1.390 -1.8292  0.2363  1.0318
86277SOL     OW70809  10.341   2.727   6.918 -0.1060 -0.1409  0.1118
86277SOL    HW170810  10.294   2.656   6.874  0.3110 -0.3058 -0.0700
86277SOL    HW270811  10.272   2.780   6.958 -0.4738 -0.1351 -0.5161
86278SOL     OW70812  13.168   1.825   4.026  0.4150  0.1509  0.5397
86278SOL    HW170813  13.211   1.835   4.111  0.1127 -0.2566  0.7401
86278SOL    HW270814  13.075   1.818   4.047  0.4969 -2.3778  0.3891
86279SOL     OW70815  13.884   7.332  12.606 -0.2297 -0.3204  0.1935
86279SOL    HW170816  13.927   7.263  12.554 -0.2797  0.5668 -1.0713
86279SOL    HW270817  13.791   7.324  12.584 -0.4247 -0.7154  1.1071
86280SOL     OW70818   7.070  13.806   1.905  0.7761  0.2360 -0.3816
86280SOL    HW170819   7.124  13.727   1.905 -1.0965 -1.2318  1.9016
86280SOL    HW270820   7.081  13.842   1.993 -2.0200 -0.2992  0.2922
86281SOL     OW70821   2.424  12.795  11.895  0.8981 -0.0329  0.5161
86281SOL    HW170822   2.515  12.820  11.880  1.8534 -3.4268 -0.3354
86281SOL    HW270823   2.388  12.782  11.807 -0.0104  0.0485  0.8661
86282SOL     OW70824  13.571   0.653   5.769 -0.6435  0.7385 -0.3577
86282SOL    HW170825  13.647   0.699   5.734  0.3123 -1.5605 -1.5205
86282SOL    HW270826  13.517   0.722   5.808  1.1780  2.6581 -1.0326
86283SOL     OW70827   6.685   3.663   7.138  0.3543 -0.5524  0.0932
86283SOL    HW170828   6.748   3.701   7.200  1.9315 -1.1852 -1.0464
86283SOL    HW270829   6.704   3.707   7.055  0.1936 -1.7018 -0.5704
86284SOL     OW70830  10.510   5.676   7.217  0.5022  0.3035  0.5319
86284SOL    HW170831  10.519   5.672   7.312  0.8501  0.3109  0.4989
86284SOL    HW270832  10.423   5.715   7.203  0.2710 -0.0956  0.8448
86285SOL     OW70833   9.968   1.567   3.774 -0.1969 -0.2063  0.7015
86285SOL    HW170834   9.935   1.593   3.689  3.1063 -1.7611 -1.2602
86285SOL    HW270835  10.054   1.608   3.781 -0.2131 -0.3995  3.1752
86286SOL     OW70836   9.973   5.488   2.285  0.3085 -0.1325 -0.1226
86286SOL    HW170837  10.019   5.407   2.265 -0.3816 -0.5075 -0.2353
86286SOL    HW270838   9.882   5.470   2.261  0.1008  0.5871  0.1004
86287SOL     OW70839   7.095   8.315   3.158  0.0224 -0.7578  0.4882
86287SOL    HW170840   7.036   8.267   3.100 -0.0842 -0.4993  0.3781
86287SOL    HW270841   7.165   8.345   3.100 -1.4975  1.9386 -0.1374
86288SOL     OW70842   2.259   9.987   5.893  0.1006 -0.2663 -0.0761
86288SOL    HW170843   2.211   9.910   5.924  1.5934 -0.6014  1.5755
86288SOL    HW270844   2.341   9.951   5.857 -0.1136  0.4151 -1.2904
86289SOL     OW70845  10.014   2.169  11.698 -0.0548 -0.0840 -0.1316
86289SOL    HW170846  10.039   2.078  11.680 -0.6577 -0.2450 -0.1619
86289SOL    HW270847  10.097   2.217  11.695  0.3570 -0.7316  0.4999
86290SOL     OW70848  12.637   5.623  10.408 -0.1711  0.4273 -0.2820
86290SOL    HW170849  12.627   5.694  10.472 -2.1698 -0.0999  0.0719
86290SOL    HW270850  12.547   5.600  10.384  0.3067 -2.7874  0.5532
86291SOL     OW70851  11.243  12.491   2.031 -0.5033  0.0033 -0.2417
86291SOL    HW170852  11.327  12.491   2.076 -1.3451 -0.2992  1.4314
86291SOL    HW270853  11.233  12.401   1.998  0.1483  0.2446 -1.1344
86292SOL     OW70854   6.901  12.212  11.594 -0.2459  0.0003  0.9106
86292SOL    HW170855   6.966  12.280  11.610 -0.5642  0.5686 -0.1443
86292SOL    HW270856   6.943  12.153  11.531 -0.5522  0.0888  0.6230
86293SOL     OW70857  12.626  10.845   9.022  0.0791 -0.4115 -0.3068
86293SOL    HW170858  12.585  10.845   9.109  0.2761 -0.6828 -0.2113
86293SOL    HW270859  12.552  10.835   8.961 -0.7218  4.5234 -0.5354
86294SOL     OW70860  11.477   3.530   9.940 -0.3515 -0.2097 -0.2044
86294SOL    HW170861  11.521   3.601   9.987  0.8267 -0.5411 -0.7705
86294SOL    HW270862  11.443   3.473  10.009 -0.9154  0.6462  0.2492
86295SOL     OW70863  10.939   7.445  11.934 -0.0493 -0.1282  0.0989
86295SOL    HW170864  10.973   7.522  11.887 -0.3772  0.4311  0.7492
86295SOL    HW270865  10.846   7.464  11.946 -0.7362 -1.8137 -1.9933
86296SOL     OW70866  10.384  12.612  10.391  0.1641 -0.2602  0.4211
86296SOL    HW170867  10.457  12.604  10.329  0.3158 -1.6718  0.7529
86296SOL    HW270868  10.388  12.703  10.420  1.9309 -0.3558  0.5741
86297SOL     OW70869   5.493   6.817   8.096  0.1740 -0.3989 -0.1681
86297SOL    HW170870   5.461   6.895   8.140 -0.8843 -1.2846  0.6909
86297SOL    HW270871   5.558   6.781   8.156  2.0406  0.7745 -1.3915
86298SOL     OW70872  11.378   8.238  10.277  0.6640 -0.3346 -0.2250
86298SOL    HW170873  11.400   8.277  10.361 -2.1977  0.4714  0.2448
86298SOL    HW270874  11.374   8.312  10.216 -0.8834 -0.3651 -0.2086
86299SOL     OW70875  11.738  13.079   0.644  0.5523 -0.0573 -0.6157
86299SOL    HW170876  11.747  13.067   0.738 -1.1261 -0.4165 -0.4564
86299SOL    HW270877  11.685  13.004   0.615 -2.7751  2.2135 -1.0515
86300SOL     OW70878  10.369   0.845   9.846  0.1170 -0.2507 -0.2223
86300SOL    HW170879  10.314   0.877   9.774 -1.1160 -1.5244  0.1137
86300SOL    HW270880  10.347   0.903   9.920 -0.0966 -0.1929 -0.3302
86301SOL     OW70881  11.996  13.851   7.229 -0.0370  0.1799 -0.6545
86301SOL    HW170882  12.033  13.823   7.313  0.9672 -0.8107 -1.3975
86301SOL    HW270883  11.913  13.891   7.252  1.0863  1.7238  1.0076
86302SOL     OW70884  11.715   6.977   0.934 -0.1224  0.2799  0.4266
86302SOL    HW170885  11.759   7.060   0.953  0.2223 -0.1314  1.4886
86302SOL    HW270886  11.765   6.939   0.862 -0.8541  1.4071 -0.7376
86303SOL     OW70887   4.423  10.375   1.827  0.4139 -0.2680 -0.1219
86303SOL    HW170888   4.425  10.403   1.918  0.2867  1.6999 -0.6632
86303SOL    HW270889   4.418  10.280   1.830  3.2482 -0.4790  1.8953
86304SOL     OW70890  12.797   7.543   1.670  0.2238  0.3907  0.4047
86304SOL    HW170891  12.871   7.551   1.610  1.1859  0.6448  1.5732
86304SOL    HW270892  12.766   7.454   1.658  0.6728  0.3076 -0.1728
86305SOL     OW70893   0.031   1.753   1.549  0.3590 -0.5739 -0.0699
86305SOL    HW170894   0.091   1.701   1.603 -1.0765 -0.9779  1.2183
86305SOL    HW270895   0.012   1.831   1.602  0.5965  0.1009 -0.9473
86306SOL     OW70896   4.199  12.886   4.021 -0.3869 -0.0656 -0.4128
86306SOL    HW170897   4.263  12.933   4.074  0.8449 -1.3738 -0.6654
86306SOL    HW270898   4.225  12.902   3.931  0.4040 -1.6024 -0.5027
86307SOL     OW70899  11.557   3.480   4.738 -0.2394  0.5399 -0.7222
86307SOL    HW170900  11.579   3.431   4.659 -0.5067 -0.1869 -0.3517
86307SOL    HW270901  11.486   3.538   4.711 -1.4350 -0.8329 -0.6522
86308SOL     OW70902   1.640   5.622   9.447  0.5739  0.1329  0.2159
86308SOL    HW170903   1.602   5.651   9.530 -0.4538 -0.9246  0.1347
86308SOL    HW270904   1.568   5.626   9.385  0.9990 -0.3797 -0.3174
86309SOL     OW70905   6.066   6.789   0.103  0.1936 -0.4071 -0.1019
86309SOL    HW170906   6.097   6.769   0.014  0.8948 -0.6701  0.1878
86309SOL    HW270907   6.137   6.758   0.160 -0.3632 -0.4837  0.5638
86310SOL     OW70908   7.380   9.427   4.865  0.2925 -0.1917  0.2352
86310SOL    HW170909   7.414   9.428   4.775 -1.5796  0.0909 -0.5052
86310SOL    HW270910   7.290   9.397   4.856 -0.8085  2.3865  1.6901
86311SOL     OW70911   4.669   3.270   6.661  0.0498 -0.2519  0.4608
86311SOL    HW170912   4.728   3.337   6.627 -1.2617  0.6825 -0.0285
86311SOL    HW270913   4.634   3.308   6.742 -1.4750  0.1132 -0.3473
86312SOL     OW70914   1.158   1.007  11.881 -0.6475  0.8516 -0.6558
86312SOL    HW170915   1.241   1.041  11.849  0.3143 -0.5019  0.3328
86312SOL    HW270916   1.128   0.948  11.812 -0.1870  0.4356 -0.5065
86313SOL     OW70917   5.972   4.291  10.193  0.4361  0.5684  0.2895
86313SOL    HW170918   5.896   4.293  10.251 -0.4589 -2.1279 -0.5887
86313SOL    HW270919   5.945   4.340  10.116 -0.3978 -0.2174  0.0620
86314SOL     OW70920   6.873   3.904  12.376 -0.0656  0.3863  0.3376
86314SOL    HW170921   6.930   3.981  12.379  1.3589 -0.6561  3.1201
86314SOL    HW270922   6.918   3.843  12.319 -0.3055  0.9339 -0.4519
86315SOL     OW70923   9.707   9.383  14.004  0.3609  0.5730  0.1355
86315SOL    HW170924   9.618   9.350  14.015  0.4235  0.7979  1.6227
86315SOL    HW270925   9.721   9.386  13.910 -0.9411 -0.1648 -0.1002
86316SOL     OW70926   4.911  11.123  11.089 -0.7287 -0.5931 -0.3623
86316SOL    HW170927   4.933  11.216  11.086 -2.8526 -0.0205  0.0189
86316SOL    HW270928   4.832  11.119  11.144 -0.4915 -2.6646 -0.0950
86317SOL     OW70929  13.678   4.831   6.929 -0.3062 -0.8363 -0.1395
86317SOL    HW170930  13.683   4.907   6.987  1.9330 -0.9377 -0.1027
86317SOL    HW270931  13.631   4.863   6.852  2.4514  1.3474 -1.0998
86318SOL     OW70932  12.123  10.115   7.348 -0.4726  0.3247 -0.3567
86318SOL    HW170933  12.117  10.079   7.260 -1.9407  0.8691 -0.5118
86318SOL    HW270934  12.152  10.042   7.402  2.2815  0.4266 -1.5142
86319SOL     OW70935   9.600  10.576   3.629  0.0549 -0.6084 -0.0471
86319SOL    HW170936   9.573  10.515   3.697 -0.5248 -1.4488 -0.9964
86319SOL    HW270937   9.587  10.528   3.547  0.9714  0.2841 -0.7419
86320SOL     OW70938   2.404   8.746  10.260  0.5621  0.7049 -0.0521
86320SOL    HW170939   2.329   8.775  10.208  0.0429 -0.7548 -0.1741
86320SOL    HW270940   2.420   8.818  10.321  0.0388  1.6825 -1.0255
86321SOL     OW70941   5.764   1.372   3.050 -0.6997  0.2823  0.4332
86321SOL    HW170942   5.855   1.385   3.024 -0.7657 -0.3181 -0.1210
86321SOL    HW270943   5.722   1.334   2.973 -1.1139 -0.6894  1.1192
86322SOL     OW70944  13.540   2.236   4.419 -0.2930  0.3032  0.1360
86322SOL    HW170945  13.609   2.220   4.355 -1.3854  1.1486 -1.3052
86322SOL    HW270946  13.469   2.178   4.392 -0.6172  0.3705  0.8357
86323SOL     OW70947  11.950  10.848   0.124 -0.3591 -0.5608 -0.7002
86323SOL    HW170948  11.879  10.793   0.159  0.3825 -0.9508  0.2264
86323SOL    HW270949  11.941  10.931   0.169 -0.1692 -0.6420 -0.5124
86324SOL     OW70950  13.178   8.418  13.690  0.1768  0.2302 -0.1430
86324SOL    HW170951  13.157   8.393  13.601 -0.2778  1.0242 -0.2655
86324SOL    HW270952  13.266   8.455  13.684 -0.5169  1.8895 -0.5859
86325SOL     OW70953   0.184   9.453   5.718 -0.2238  0.8682 -0.1855
86325SOL    HW170954   0.088   9.454   5.715 -0.3251 -1.4025  0.2701
86325SOL    HW270955   0.205   9.494   5.802 -0.8321  0.9040 -0.0426
86326SOL     OW70956  11.970   8.199   7.514 -0.0008 -0.5993  0.6023
86326SOL    HW170957  12.008   8.163   7.434  1.7777 -0.3630  1.2917
86326SOL    HW270958  11.887   8.238   7.486 -0.1119 -1.8029 -0.8398
86327SOL     OW70959   2.391  11.439   5.162 -0.1749  0.3872  0.2853
86327SOL    HW170960   2.319  11.404   5.110  0.2910  0.4613 -0.4179
86327SOL    HW270961   2.418  11.518   5.115  0.1327  0.5596  0.7445
86328SOL     OW70962  13.626  13.993   9.855 -0.2087 -0.2212 -0.2025
86328SOL    HW170963  13.557  14.039   9.808 -1.3258 -2.1152 -0.4911
86328SOL    HW270964  13.683  14.063   9.888 -2.2069  1.3990  0.0080
86329SOL     OW70965   1.732   9.970   4.043  0.0098 -0.1647  0.3577
86329SOL    HW170966   1.729   9.942   3.951  0.8427 -1.8910  0.8210
86329SOL    HW270967   1.821  10.004   4.054  0.8925 -2.5600  1.1878
86330SOL     OW70968  13.614   4.069   3.726 -0.5072  0.1112 -0.3686
86330SOL    HW170969  13.685   4.006   3.740 -0.0343  0.8635  0.8485
86330SOL    HW270970  13.651   4.133   3.665 -0.3232  0.2035 -0.1638
86331SOL     OW70971  12.735   7.127   1.513 -0.1302 -0.4014  0.6534
86331SOL    HW170972  12.825   7.130   1.545  0.3853  0.3554 -0.7859
86331SOL    HW270973  12.699   7.047   1.551  1.4963 -1.3200  0.3660
86332SOL     OW70974   3.351   6.832  11.417  0.3493  0.4112 -0.3889
86332SOL    HW170975   3.295   6.798  11.347 -0.0535  0.7830 -0.2555
86332SOL    HW270976   3.423   6.875  11.372  0.8002 -0.5089 -0.5597
86333SOL     OW70977   3.675   5.891   1.209 -0.0581  0.3085  0.3113
86333SOL    HW170978   3.683   5.804   1.170 -0.2087  0.2239  0.4663
86333SOL    HW270979   3.762   5.910   1.243  0.0729  0.3822 -0.0657
86334SOL     OW70980  13.936   4.552   7.802  0.4480  0.1712 -0.0646
86334SOL    HW170981  13.941   4.494   7.726  0.3342 -1.2449  0.9755
86334SOL    HW270982  13.961   4.638   7.768  0.4671 -0.4440 -1.6816
86335SOL     OW70983   3.451  12.421   0.496  0.0300  0.5769  0.0561
86335SOL    HW170984   3.447  12.402   0.590 -1.5273  0.3711 -0.0288
86335SOL    HW270985   3.528  12.373   0.465  0.3692  0.3861  1.1584
86336SOL     OW70986   9.993   4.121   2.543  0.4416 -0.2131  0.1595
86336SOL    HW170987   9.999   4.027   2.523  0.2253 -0.2770  0.3997
86336SOL    HW270988  10.026   4.129   2.632  0.3735 -0.0718  0.1725
86337SOL     OW70989   7.272   8.643  13.614 -0.0419 -0.3876  0.0987
86337SOL    HW170990   7.186   8.685  13.613 -0.6809 -1.6423 -0.1364
86337SOL    HW270991   7.298   8.641  13.522  1.3128  2.0168  0.3534
86338SOL     OW70992   7.494   5.112   1.034  0.0922 -0.3292  0.3607
86338SOL    HW170993   7.547   5.146   1.106  0.0731 -0.1863  0.3076
86338SOL    HW270994   7.455   5.032   1.068  0.0803 -0.2598  0.5090
86339SOL     OW70995   8.043   6.105   7.320  0.0222 -0.2857  0.2347
86339SOL    HW170996   8.106   6.039   7.345  1.0951 -0.1402 -1.8621
86339SOL    HW270997   8.095   6.174   7.278 -1.3950  0.3582 -0.5484
86340SOL     OW70998   2.620  13.603   4.275  0.0395 -0.6355 -0.0796
86340SOL    HW170999   2.588  13.678   4.325  1.2269 -0.3853  0.3423
86340SOL    HW271000   2.600  13.625   4.184 -2.6108 -1.3232  0.2600
86341SOL     OW71001   5.922  13.283   2.085  0.0080 -0.1395 -0.1718
86341SOL    HW171002   5.870  13.362   2.071  1.5250  1.0957  0.8949
86341SOL    HW271003   5.889  13.246   2.167  0.1068  0.0332 -0.0564
86342SOL     OW71004   1.030   0.181  11.382  0.0462  0.1682 -0.4379
86342SOL    HW171005   1.013   0.228  11.463  2.6836  2.0033 -0.8064
86342SOL    HW271006   1.105   0.125  11.401 -0.7283 -1.0977 -1.0204
86343SOL     OW71007   5.582   4.060  13.776  0.4562 -0.6071 -0.2429
86343SOL    HW171008   5.609   3.997  13.842 -0.7317 -1.0745 -0.1707
86343SOL    HW271009   5.528   4.123  13.824 -0.9528 -1.3083 -0.8437
86344SOL     OW71010   0.691   3.561   0.294  0.0591  0.2581  0.5697
86344SOL    HW171011   0.657   3.562   0.383 -1.2199  0.7502  0.1024
86344SOL    HW271012   0.782   3.534   0.303  0.1615  1.0269  2.0843
86345SOL     OW71013   5.666   8.919   6.072  0.1175 -0.5997 -0.0525
86345SOL    HW171014   5.720   8.996   6.059 -1.1819  0.7735  2.0334
86345SOL    HW271015   5.650   8.884   5.984  3.9205 -0.8424 -0.7959
86346SOL     OW71016   2.174  12.099   2.316  0.3331  0.1948  0.2755
86346SOL    HW171017   2.150  12.065   2.402 -1.0552 -0.2231 -0.2515
86346SOL    HW271018   2.136  12.036   2.254  0.7923  0.8143 -0.6594
86347SOL     OW71019  13.254  10.774   3.943  0.4077  0.0549  0.0947
86347SOL    HW171020  13.211  10.798   3.860 -0.8443 -1.4260  0.2842
86347SOL    HW271021  13.219  10.837   4.006 -1.0728 -0.7320  0.1130
86348SOL     OW71022   4.061   9.231   9.653 -0.0253 -0.3998 -0.3939
86348SOL    HW171023   4.039   9.152   9.702 -1.5784 -0.4024 -1.0568
86348SOL    HW271024   4.127   9.275   9.707 -0.7497 -1.0445  1.0506
86349SOL     OW71025   4.299   4.723   6.703  0.0876 -0.6151  0.0774
86349SOL    HW171026   4.260   4.727   6.790  0.0996 -0.6613  0.0850
86349SOL    HW271027   4.381   4.675   6.716  0.2735 -0.2988  0.1086
86350SOL     OW71028   3.366   2.840   1.071  0.0999  0.5246  0.6267
86350SOL    HW171029   3.282   2.868   1.035 -0.1706 -1.3594 -0.3731
86350SOL    HW271030   3.346   2.756   1.114  1.2859  0.5541  1.2581
86351SOL     OW71031   4.440  13.782  10.978 -0.5316 -0.1812  0.3793
86351SOL    HW171032   4.476  13.770  11.065 -0.1377 -0.9422  0.1253
86351SOL    HW271033   4.506  13.746  10.919  0.0508  1.9715 -0.3847
86352SOL     OW71034   0.109   2.487  10.523  0.2903 -0.5023  0.1666
86352SOL    HW171035   0.167   2.415  10.547 -0.8895 -1.5291 -0.0025
86352SOL    HW271036   0.046   2.449  10.462  0.7013  1.0826 -1.3632
86353SOL     OW71037   1.360  12.765   8.546  0.1762  0.4486 -0.1668
86353SOL    HW171038   1.352  12.688   8.490 -0.5386  0.9535 -0.7863
86353SOL    HW271039   1.446  12.801   8.525 -0.0436  0.5784 -0.8992
86354SOL     OW71040   7.219  10.429   5.353  0.4114  0.0106  0.1108
86354SOL    HW171041   7.302  10.401   5.313 -0.3563 -0.3336 -1.2920
86354SOL    HW271042   7.190  10.502   5.299 -0.5790 -0.3631  0.1203
86355SOL     OW71043  11.455   9.865   7.493  0.1134  0.2190 -0.0642
86355SOL    HW171044  11.505   9.893   7.417  1.3455  0.4563  0.8127
86355SOL    HW271045  11.405   9.789   7.462 -1.3735  1.7878 -1.7927
86356SOL     OW71046   4.456   9.590  13.109  0.9504 -0.3491  0.1304
86356SOL    HW171047   4.494   9.655  13.169 -0.6661 -0.9304  1.8748
86356SOL    HW271048   4.431   9.517  13.165 -0.3865 -1.0386 -1.2935
86357SOL     OW71049   1.307   3.203   9.490 -0.9940  0.4450  0.6805
86357SOL    HW171050   1.284   3.280   9.438 -0.4194  0.3514  0.2836
86357SOL    HW271051   1.379   3.233   9.546 -1.6785  0.5766  1.5131
86358SOL     OW71052  10.233  11.748   0.970 -0.2098  0.2376 -0.0297
86358SOL    HW171053  10.164  11.807   1.002 -0.9967  0.6158 -2.2378
86358SOL    HW271054  10.293  11.739   1.044 -3.3140 -1.2822  2.5579
86359SOL     OW71055   7.185  12.225  12.222  0.0808 -0.1778 -0.2015
86359SOL    HW171056   7.171  12.285  12.295 -0.2825  0.6718 -0.9446
86359SOL    HW271057   7.182  12.281  12.144  1.4869 -0.8957 -0.8193
86360SOL     OW71058   4.993  11.452   5.677  0.0953 -0.1256  0.0919
86360SOL    HW171059   4.990  11.382   5.742 -1.3371  0.3245  0.5447
86360SOL    HW271060   5.056  11.422   5.612 -0.2244 -1.6697  0.4571
86361SOL     OW71061   5.636   2.777   6.905  0.0684  0.6271  0.3433
86361SOL    HW171062   5.707   2.779   6.969  0.7883  0.8354 -0.4423
86361SOL    HW271063   5.578   2.848   6.932  1.7492  2.5335 -0.7353
86362SOL     OW71064   8.837   0.278   5.083  0.0902 -0.5250 -0.0203
86362SOL    HW171065   8.756   0.292   5.132 -0.1134  0.3597 -0.5890
86362SOL    HW271066   8.900   0.250   5.149 -0.2365  0.4321  0.7176
86363SOL     OW71067   4.751   6.662  10.745 -0.2264 -0.0519  0.4257
86363SOL    HW171068   4.765   6.578  10.789 -1.0560 -0.5845 -0.2750
86363SOL    HW271069   4.703   6.639  10.665 -0.9679  1.1556  0.5000
86364SOL     OW71070   3.870  10.966   0.155 -0.6025  0.0862  0.9381
86364SOL    HW171071   3.849  11.058   0.173 -2.5938 -0.1659  0.2259
86364SOL    HW271072   3.797  10.918   0.194 -0.7418 -1.0167 -0.6087
86365SOL     OW71073   9.960   4.194  12.975  0.4316 -0.5124 -0.2621
86365SOL    HW171074  10.054   4.202  12.992  0.7715  0.1607 -2.2366
86365SOL    HW271075   9.948   4.102  12.949  0.5427 -0.5891 -0.0482
86366SOL     OW71076   9.177   7.343  11.045 -0.2821 -0.2818 -0.3459
86366SOL    HW171077   9.238   7.351  10.972 -1.6357 -0.5500 -1.5348
86366SOL    HW271078   9.187   7.425  11.094 -0.0631  0.3247 -1.3829
86367SOL     OW71079   4.047   7.958   2.264 -0.9006 -0.2066  0.0249
86367SOL    HW171080   4.090   8.040   2.239 -1.6829  0.1138 -0.2896
86367SOL    HW271081   4.111   7.914   2.320 -0.1184  0.2105 -0.5176
86368SOL     OW71082   3.418   0.338   5.931  0.1384 -0.0047 -0.4979
86368SOL    HW171083   3.360   0.313   5.860 -0.5772  0.7889 -0.2062
86368SOL    HW271084   3.416   0.265   5.992 -0.5912  0.0405 -0.4686
86369SOL     OW71085   0.338   8.385   9.161  0.1724  0.0503  1.0812
86369SOL    HW171086   0.426   8.391   9.198  1.1338 -0.4969 -0.9669
86369SOL    HW271087   0.324   8.291   9.149 -0.1523  0.1996  0.2284
86370SOL     OW71088   0.678  11.201  11.644  0.2856 -0.3496  0.4048
86370SOL    HW171089   0.745  11.196  11.713 -1.3539  0.5422  2.1629
86370SOL    HW271090   0.636  11.286  11.657 -0.6519 -0.5332 -1.1753
86371SOL     OW71091   3.876   4.357   8.220  0.0565 -0.2609  0.1164
86371SOL    HW171092   3.936   4.426   8.193 -0.8583 -0.0716 -1.6284
86371SOL    HW271093   3.793   4.380   8.178 -0.8555 -1.2738  1.2744
86372SOL     OW71094   1.859   1.168  12.027  0.3290 -0.4039  0.4990
86372SOL    HW171095   1.808   1.103  12.076  1.1159 -0.7478  0.8900
86372SOL    HW271096   1.844   1.145  11.935  0.6639 -1.2088  0.6337
86373SOL     OW71097   2.104   8.555   9.752  0.3133  0.1536 -0.1092
86373SOL    HW171098   2.142   8.560   9.840  0.0901 -1.2953  0.0914
86373SOL    HW271099   2.026   8.610   9.756 -0.8414 -1.4653  1.2411
86374SOL     OW71100   5.856   8.084  11.817  0.0378  0.8534  0.0496
86374SOL    HW171101   5.779   8.035  11.788  0.4570 -0.7476  1.4393
86374SOL    HW271102   5.924   8.061  11.754  0.8654 -2.3559  1.8867
86375SOL     OW71103   5.117  12.955   9.285 -0.2888  0.6517  0.1940
86375SOL    HW171104   5.130  12.939   9.192  0.5070  0.8359  0.2641
86375SOL    HW271105   5.067  13.037   9.288  0.0616  0.8807 -0.0669
86376SOL     OW71106   3.734   8.168   9.005  0.3713  0.2711  0.0759
86376SOL    HW171107   3.786   8.090   9.025  0.2675  0.1043 -0.3000
86376SOL    HW271108   3.651   8.153   9.049  1.8327  2.1963  3.9295
86377SOL     OW71109   7.214   7.194  10.853 -0.4124  0.6562  0.0607
86377SOL    HW171110   7.206   7.136  10.929 -0.9341  0.6099 -0.0262
86377SOL    HW271111   7.294   7.164  10.809  0.5522  1.4424  1.2232
86378SOL     OW71112   5.338   5.169   0.797  0.2498 -0.8959 -0.4811
86378SOL    HW171113   5.353   5.184   0.890  0.7327  1.6287 -0.8977
86378SOL    HW271114   5.320   5.075   0.790 -0.8558 -0.9713  2.2792
86379SOL     OW71115  13.460   6.486   6.856  0.2033 -0.0691 -0.7293
86379SOL    HW171116  13.465   6.536   6.938 -0.5741 -1.2857  0.0868
86379SOL    HW271117  13.551   6.482   6.825  0.5314  0.3033  0.1410
86380SOL     OW71118   6.443   3.854   2.833  0.0929  0.4762  0.2889
86380SOL    HW171119   6.476   3.814   2.752 -0.6372  1.3110 -0.4385
86380SOL    HW271120   6.361   3.806   2.851  0.2522  0.2943  0.5407
86381SOL     OW71121   8.198   2.750   2.945  0.0507 -0.2291 -0.1283
86381SOL    HW171122   8.246   2.801   3.010 -0.0044  0.4486 -0.5991
86381SOL    HW271123   8.204   2.660   2.975  2.0725 -0.2368 -0.4650
86382SOL     OW71124   2.666   7.645  10.607 -0.4510  0.4289  0.1242
86382SOL    HW171125   2.732   7.586  10.570 -0.7273 -0.3333  0.8199
86382SOL    HW271126   2.604   7.659  10.535 -1.2376 -1.4159  0.3882
86383SOL     OW71127   3.455   3.570  13.064 -0.4479  0.0152  0.0000
86383SOL    HW171128   3.517   3.520  13.117  0.5366  0.8090 -0.3693
86383SOL    HW271129   3.378   3.579  13.120  0.1735 -0.0608  0.8952
86384SOL     OW71130   2.724   4.464   7.363  0.5795  0.6776  0.0833
86384SOL    HW171131   2.732   4.514   7.282  0.5080 -0.5903 -0.7412
86384SOL    HW271132   2.664   4.393   7.342 -2.4191  2.3431  2.3195
86385SOL     OW71133   1.239   1.181   7.394  0.4636  0.0521 -0.1734
86385SOL    HW171134   1.229   1.276   7.387 -1.4775 -0.2103 -1.6685
86385SOL    HW271135   1.178   1.155   7.463 -0.7381 -0.3205 -1.3397
86386SOL     OW71136   7.389   5.207   3.439  0.2868  0.5088 -0.0072
86386SOL    HW171137   7.380   5.117   3.471 -0.1795  0.6692  0.3267
86386SOL    HW271138   7.346   5.260   3.506  1.9256  1.1343  0.5806
86387SOL     OW71139   7.375   4.483   0.290 -0.7165  0.2578 -0.4705
86387SOL    HW171140   7.368   4.511   0.381 -0.3942  0.4159 -0.4929
86387SOL    HW271141   7.423   4.401   0.294 -0.2611  0.5156 -0.5361
86388SOL     OW71142   2.161  10.778   2.765  0.1530  0.0871 -0.4946
86388SOL    HW171143   2.190  10.695   2.804 -1.7866 -0.5887 -0.4010
86388SOL    HW271144   2.099  10.814   2.828  0.9584  1.6367 -0.5473
86389SOL     OW71145   7.469   4.625   0.039 -0.0506  0.0158 -0.1703
86389SOL    HW171146   7.391   4.646  -0.014  0.0852  0.1717 -0.3089
86389SOL    HW271147   7.434   4.598   0.123 -0.2773 -0.3399 -0.3734
86390SOL     OW71148   0.476   9.910   5.834 -0.3872  0.2987  0.1231
86390SOL    HW171149   0.536   9.984   5.826 -0.5410  0.4820  0.6853
86390SOL    HW271150   0.512   9.844   5.773  1.5404 -0.3802  1.8774
86391SOL     OW71151   4.837   0.370  13.453 -0.7443 -0.2290 -0.4967
86391SOL    HW171152   4.780   0.349  13.527 -0.0249  1.1253  0.4950
86391SOL    HW271153   4.796   0.446  13.412 -0.3293 -0.0295 -0.5491
86392SOL     OW71154   8.951   0.057   1.429  0.3666 -0.6627 -0.5284
86392SOL    HW171155   8.950   0.038   1.335 -0.2452  0.1426 -0.6961
86392SOL    HW271156   8.952   0.153   1.434  0.8138 -0.7007  0.2880
86393SOL     OW71157   5.470   8.639  10.936  0.1336  0.0969  0.2849
86393SOL    HW171158   5.447   8.567  10.878 -0.7477  1.1617 -0.7476
86393SOL    HW271159   5.497   8.710  10.877 -0.1531  0.9851  1.1913
86394SOL     OW71160  11.807  13.467   1.970  0.6645 -0.1635 -0.4395
86394SOL    HW171161  11.847  13.389   2.009 -0.4715 -0.0147  1.1265
86394SOL    HW271162  11.836  13.540   2.025  0.5105  0.3153 -0.9784
86395SOL     OW71163   3.613   2.106   5.135 -0.3161  0.3117 -0.1069
86395SOL    HW171164   3.647   2.060   5.212  0.6224 -0.6253 -1.0389
86395SOL    HW271165   3.674   2.178   5.122 -0.8820  0.9034  0.4185
86396SOL     OW71166   6.397  11.945   5.117  0.1769  0.1776  0.2501
86396SOL    HW171167   6.333  11.980   5.055 -0.2916 -0.8459  0.1255
86396SOL    HW271168   6.419  11.859   5.081  2.1217  0.7638 -0.0461
86397SOL     OW71169  11.130   2.231   8.795 -0.1531 -0.0130 -0.0456
86397SOL    HW171170  11.090   2.194   8.874  4.2546 -0.2436  2.4607
86397SOL    HW271171  11.130   2.325   8.810  0.3562 -0.0304  0.0906
86398SOL     OW71172  10.665   2.464  13.783  0.0820 -0.1543 -0.2649
86398SOL    HW171173  10.720   2.491  13.857 -0.6514 -0.5454  0.4443
86398SOL    HW271174  10.686   2.371  13.771 -0.4016 -0.3053  0.0085
86399SOL     OW71175   4.593   2.817   7.412 -0.3231 -0.2510  0.0640
86399SOL    HW171176   4.521   2.830   7.350 -1.0203 -1.5985  0.5575
86399SOL    HW271177   4.665   2.783   7.359 -1.0730 -1.8689  0.0500
86400SOL     OW71178   0.430   9.860   7.900  0.0893 -0.8151 -0.2996
86400SOL    HW171179   0.368   9.929   7.877 -1.1657 -1.1624  1.8617
86400SOL    HW271180   0.400   9.784   7.850  0.4083 -0.2944 -1.3098
86401SOL     OW71181   2.837  10.970   9.260  0.2101 -0.0934 -0.3131
86401SOL    HW171182   2.836  10.926   9.345 -2.4925 -0.4176 -0.4451
86401SOL    HW271183   2.820  11.062   9.280  1.9183  0.2677 -0.3639
86402SOL     OW71184   7.065   8.394   7.584  0.3745  0.1648  0.2536
86402SOL    HW171185   7.157   8.370   7.595  0.4317 -0.4679 -1.2346
86402SOL    HW271186   7.049   8.383   7.490 -1.0332  0.9646  0.3711
86403SOL     OW71187   2.965   7.932   6.307  0.0538 -0.7051  0.4740
86403SOL    HW171188   2.970   7.997   6.238  2.9869  0.5850  1.7116
86403SOL    HW271189   2.899   7.965   6.368 -0.4619 -0.3530 -0.2737
86404SOL     OW71190  11.317   1.712   5.164  0.3002 -0.3842 -0.3306
86404SOL    HW171191  11.224   1.696   5.144  0.5371  0.4057 -2.3027
86404SOL    HW271192  11.354   1.625   5.179 -1.1577 -0.6215  2.8390
86405SOL     OW71193  12.345  11.052  13.762  0.4148 -0.0562  0.2626
86405SOL    HW171194  12.435  11.037  13.790  0.6676 -1.8493 -1.2636
86405SOL    HW271195  12.341  11.013  13.674 -2.3574 -1.8676  1.0618
86406SOL     OW71196   7.732   4.222   8.737 -0.4582  0.0892  0.6133
86406SOL    HW171197   7.761   4.289   8.675 -0.6524  0.1654  0.6053
86406SOL    HW271198   7.650   4.256   8.772  0.2898  0.6618  1.8711
86407SOL     OW71199   9.380   1.176   7.922 -0.4044 -0.4247  0.1395
86407SOL    HW171200   9.357   1.133   8.005 -0.7829 -0.1546  0.1735
86407SOL    HW271201   9.443   1.116   7.882  0.0070 -0.4226  0.7559
86408SOL     OW71202   8.302   3.975  12.926  0.2587 -0.1165  0.4153
86408SOL    HW171203   8.247   3.910  12.883 -0.5146  1.4062 -0.9932
86408SOL    HW271204   8.253   3.999  13.005  0.6307 -1.3174  1.0350
86409SOL     OW71205  13.411  11.653  11.867  0.2639 -0.3468 -0.0772
86409SOL    HW171206  13.472  11.582  11.886  0.3280 -0.2686  0.0149
86409SOL    HW271207  13.349  11.650  11.940 -0.4570 -1.0869 -0.7011
86410SOL     OW71208  11.901   9.487   3.737  0.1940 -0.2849 -0.2901
86410SOL    HW171209  11.909   9.424   3.665  1.9677  0.3148 -0.6671
86410SOL    HW271210  11.839   9.553   3.704  0.7983 -0.1479 -1.1966
86411SOL     OW71211   5.371   5.286   2.805 -0.0767  0.5317  0.5310
86411SOL    HW171212   5.314   5.347   2.851 -0.1293  1.4506 -0.6954
86411SOL    HW271213   5.452   5.335   2.790  0.8234 -0.5373  1.6770
86412SOL     OW71214   2.551  12.788  10.903  0.1273  0.0709  0.4205
86412SOL    HW171215   2.547  12.824  10.992  0.5239  0.4258  0.2992
86412SOL    HW271216   2.500  12.848  10.850 -1.1349 -0.7892  0.5982
86413SOL     OW71217   0.144   1.055   7.906  0.0962 -0.3739 -0.5007
86413SOL    HW171218   0.084   1.090   7.840  1.0008  0.2816 -0.9920
86413SOL    HW271219   0.231   1.073   7.871  0.5890 -0.6610  0.5478
86414SOL     OW71220   0.743   3.599   9.450  0.0245 -0.2419  0.6752
86414SOL    HW171221   0.648   3.596   9.463 -0.1112  1.2589  0.1917
86414SOL    HW271222   0.777   3.637   9.531 -0.1378  2.2587 -0.3387
86415SOL     OW71223  12.075  12.926  12.724 -0.0292  0.4979 -0.1241
86415SOL    HW171224  12.035  12.985  12.660 -0.8701  0.0974  0.0109
86415SOL    HW271225  12.002  12.898  12.779  0.0886 -1.6492 -0.9689
86416SOL     OW71226  12.723   9.919   9.228 -0.7387 -0.2199 -0.0043
86416SOL    HW171227  12.654   9.984   9.213  0.2418  0.7487 -0.4632
86416SOL    HW271228  12.727   9.911   9.324 -1.8268 -0.6892  0.0202
86417SOL     OW71229  11.582   6.150  12.279  0.9506  0.4902 -0.0768
86417SOL    HW171230  11.508   6.189  12.233 -0.4202  0.5848  2.0573
86417SOL    HW271231  11.649   6.140  12.212  0.6332  4.4794 -1.2088
86418SOL     OW71232   8.630   8.080   9.466  0.6851 -0.0334 -0.5782
86418SOL    HW171233   8.586   8.069   9.382  1.5220  0.2172 -1.0644
86418SOL    HW271234   8.645   8.174   9.472 -0.6269  0.1318  0.5221
86419SOL     OW71235   6.238  13.975   2.046 -0.5499  0.0893 -0.5073
86419SOL    HW171236   6.246  13.933   2.131  2.0904  2.6001  0.6887
86419SOL    HW271237   6.150  14.012   2.045 -0.9891 -0.8853  0.6816
86420SOL     OW71238   9.606  11.561  11.013 -0.6331 -0.0064 -0.4515
86420SOL    HW171239   9.640  11.545  11.101 -0.0520  0.7533 -0.5241
86420SOL    HW271240   9.679  11.603  10.967 -0.5297 -1.3703 -1.6368
86421SOL     OW71241   9.310  11.937   3.605  0.0941 -0.5458 -0.5549
86421SOL    HW171242   9.402  11.958   3.587  0.3397 -1.1587 -0.0983
86421SOL    HW271243   9.295  11.969   3.694 -0.4671  0.5319 -1.0219
86422SOL     OW71244  10.039  10.070  13.743 -0.4331  0.1217  0.1732
86422SOL    HW171245  10.000  10.093  13.659 -0.1811 -1.7471 -0.4973
86422SOL    HW271246  10.128  10.040  13.721 -0.6054 -1.0593  0.9982
86423SOL     OW71247  14.018  13.415   3.394  0.5067 -0.8333 -0.1666
86423SOL    HW171248  14.034  13.393   3.486 -0.4696 -0.3266  0.1387
86423SOL    HW271249  13.992  13.507   3.396  4.1475  0.3939 -1.3650
86424SOL     OW71250   2.206  11.446   4.336 -0.4134 -0.4784 -0.2469
86424SOL    HW171251   2.197  11.383   4.264 -1.5450 -0.0994 -0.4581
86424SOL    HW271252   2.124  11.438   4.384  0.4781 -0.9976  1.2545
86425SOL     OW71253  12.899   6.844  11.857 -0.0368  0.4363  0.1455
86425SOL    HW171254  12.868   6.866  11.769 -1.2025 -0.2765  0.3547
86425SOL    HW271255  12.855   6.762  11.878  0.2288  0.5956  1.3944
86426SOL     OW71256   1.942   3.914  12.921  0.3597  0.2181  0.3032
86426SOL    HW171257   1.966   3.929  13.013 -1.7266  2.4007  0.5961
86426SOL    HW271258   1.884   3.838  12.924  0.8588 -0.1560  0.6813
86427SOL     OW71259  11.888   9.000  13.355  0.6305 -0.2659 -0.1421
86427SOL    HW171260  11.911   8.999  13.448  1.6072 -0.6888 -0.3756
86427SOL    HW271261  11.845   8.916  13.339  1.7312 -0.8049 -0.3624
86428SOL     OW71262   0.440   8.335  13.558 -0.2404 -0.1341  0.3608
86428SOL    HW171263   0.416   8.243  13.551 -0.4051 -0.1434  0.9958
86428SOL    HW271264   0.520   8.343  13.505  0.0835 -0.7608  0.7454
86429SOL     OW71265  11.420   2.349  13.148  0.4897  0.5266  0.1742
86429SOL    HW171266  11.493   2.399  13.184  0.3421  0.2190  0.9158
86429SOL    HW271267  11.450   2.320  13.062  1.2547  0.3606  0.4961
86430SOL     OW71268   4.098   4.029  12.962 -0.1445 -0.6768 -0.2335
86430SOL    HW171269   4.089   3.953  13.019  1.5029  0.0276  1.0624
86430SOL    HW271270   4.169   4.006  12.901  1.3133  0.2462  1.0318
86431SOL     OW71271  13.890   4.449   3.516 -0.2168  0.5133  0.2067
86431SOL    HW171272  13.983   4.441   3.494 -0.1997 -2.1783  0.9389
86431SOL    HW271273  13.890   4.488   3.603  0.2896 -0.1947  0.5346
86432SOL     OW71274   7.729   0.469  10.115 -0.0254  1.1076  0.4644
86432SOL    HW171275   7.686   0.386  10.137  0.9383  0.3448 -0.4252
86432SOL    HW271276   7.787   0.487  10.189  0.6217  0.3678  0.1544
86433SOL     OW71277  12.617   7.619   5.138 -0.3714  0.3041  0.3598
86433SOL    HW171278  12.657   7.628   5.225 -0.6805  0.1182  0.5203
86433SOL    HW271279  12.669   7.551   5.095  0.2169  0.8732  0.1448
86434SOL     OW71280   3.088   8.699  10.615 -0.0891  0.1669 -0.6726
86434SOL    HW171281   3.055   8.762  10.680  0.9269  1.1144 -1.0309
86434SOL    HW271282   3.103   8.619  10.665  0.2650  0.7550  0.1961
86435SOL     OW71283   6.491   7.437  11.259  0.0456  0.2128 -0.3517
86435SOL    HW171284   6.576   7.415  11.296  0.5947  1.4530 -0.8186
86435SOL    HW271285   6.510   7.468  11.170 -0.8954  0.4617 -0.4817
86436SOL     OW71286  10.484   4.372   7.080  0.1046 -0.0154  0.2272
86436SOL    HW171287  10.486   4.394   7.173  1.1616  1.5048 -0.1257
86436SOL    HW271288  10.501   4.455   7.035 -1.1658 -0.5561 -1.3621
86437SOL     OW71289   0.667   9.318  11.461  0.4591 -0.4439  0.0156
86437SOL    HW171290   0.647   9.336  11.370  2.8333  0.0322 -0.4796
86437SOL    HW271291   0.670   9.404  11.503  0.1792 -0.5970  0.3517
86438SOL     OW71292   0.186   6.085   8.959 -0.0649  0.5175  0.2807
86438SOL    HW171293   0.107   6.057   9.007  0.5770 -0.7207  0.6676
86438SOL    HW271294   0.204   6.013   8.899 -0.0293  1.4269 -0.8267
86439SOL     OW71295   1.483   4.202   4.021 -0.0710  0.5949  0.0437
86439SOL    HW171296   1.497   4.177   3.929  0.6740  2.4247 -0.3818
86439SOL    HW271297   1.409   4.263   4.017 -1.2063 -0.6471  0.9286
86440SOL     OW71298   6.092   9.675   0.315 -0.1822  0.0726  0.1071
86440SOL    HW171299   6.033   9.628   0.375 -0.7637  0.2993 -0.2776
86440SOL    HW271300   6.037   9.742   0.275  0.8651  1.7777  1.3817
86441SOL     OW71301   8.809   5.851  10.628 -0.0517 -0.0759  0.5512
86441SOL    HW171302   8.767   5.916  10.685 -0.8193  0.1448 -0.2417
86441SOL    HW271303   8.776   5.766  10.660 -1.7464  0.1236 -0.5002
86442SOL     OW71304   0.928  13.054   0.060 -0.2395 -0.3168 -0.3717
86442SOL    HW171305   1.016  13.043   0.023  1.1046  3.2279  1.2582
86442SOL    HW271306   0.940  13.045   0.154 -1.9583 -1.1577 -0.1917
86443SOL     OW71307  10.902   8.842   0.731 -0.0603 -0.0633 -0.2031
86443SOL    HW171308  10.898   8.887   0.815  0.3852 -0.8981  0.2786
86443SOL    HW271309  10.954   8.763   0.748 -0.8811 -0.8037 -0.9978
86444SOL     OW71310   4.191  11.199   4.349 -0.3066 -0.0125 -0.5214
86444SOL    HW171311   4.118  11.175   4.406  0.0667  1.7030  0.7740
86444SOL    HW271312   4.256  11.238   4.409  0.1667  1.7586 -2.0872
86445SOL     OW71313   6.839   3.327   4.135  0.1270  0.1130  0.0820
86445SOL    HW171314   6.768   3.301   4.076  0.2082  0.8254 -0.3440
86445SOL    HW271315   6.864   3.247   4.180  0.1608 -0.4727 -0.9629
86446SOL     OW71316   3.532   0.296  11.604 -0.3735  0.1271 -0.0432
86446SOL    HW171317   3.511   0.224  11.544 -0.6109 -0.2329  0.4599
86446SOL    HW271318   3.609   0.266  11.652 -1.3611 -0.4648  1.2417
86447SOL     OW71319   6.808   8.360   7.098  0.7076 -0.3338  0.0909
86447SOL    HW171320   6.788   8.266   7.099  1.3121 -0.4701  1.3891
86447SOL    HW271321   6.722   8.402   7.096  0.4211 -0.8683 -2.5875
86448SOL     OW71322  13.866  13.958  11.578  0.2340 -0.1164 -0.0083
86448SOL    HW171323  13.886  13.866  11.564  1.3059 -0.0798  1.1038
86448SOL    HW271324  13.858  13.966  11.673  2.2695  1.3192  0.1099
86449SOL     OW71325   7.814   5.096   0.398 -0.6160 -0.1758  0.2351
86449SOL    HW171326   7.787   5.185   0.377  0.5154 -0.1679 -1.3669
86449SOL    HW271327   7.862   5.104   0.480  2.3087  1.3146 -1.4558
86450SOL     OW71328  10.571   1.491   6.929  0.2540 -0.4131  0.1110
86450SOL    HW171329  10.562   1.450   7.015  0.8293 -0.9166 -0.0653
86450SOL    HW271330  10.609   1.423   6.873  2.6883  0.7699  0.1921
86451SOL     OW71331   2.078  13.046   6.147  0.2338  0.8551 -0.3081
86451SOL    HW171332   2.023  12.994   6.205 -0.4504  2.2125  0.3219
86451SOL    HW271333   2.045  13.027   6.059  1.4647 -1.4399 -0.3354
86452SOL     OW71334   4.560   5.840  13.662  1.1223  0.1092 -1.4022
86452SOL    HW171335   4.564   5.746  13.646 -0.0757 -0.0868 -0.6698
86452SOL    HW271336   4.471   5.865  13.636  2.1669  1.5409 -4.0301
86453SOL     OW71337   2.198   6.897  12.878  0.1693  0.0757 -0.2329
86453SOL    HW171338   2.163   6.879  12.791  0.4287  3.1160 -1.0837
86453SOL    HW271339   2.142   6.967  12.912 -0.3677 -1.5153  2.4133
86454SOL     OW71340  13.616   3.299   9.213  0.2828  0.4559  0.4278
86454SOL    HW171341  13.646   3.229   9.273  0.2472 -0.1169 -0.2157
86454SOL    HW271342  13.653   3.275   9.128  0.7704  1.5473  0.3142
86455SOL     OW71343  13.314  12.522  10.249 -0.2574 -0.4730  0.5295
86455SOL    HW171344  13.312  12.468  10.328  1.1322 -1.5497 -0.1117
86455SOL    HW271345  13.307  12.458  10.177 -3.2593  0.5827 -0.2862
86456SOL     OW71346   3.572   6.196   7.163  0.4478 -0.0308  0.0060
86456SOL    HW171347   3.546   6.250   7.237  0.7255  0.2976 -0.1366
86456SOL    HW271348   3.490   6.173   7.120  0.2542 -0.5264  0.6223
86457SOL     OW71349   3.511   4.854  13.757 -0.4495  0.3682 -0.3309
86457SOL    HW171350   3.573   4.924  13.778  0.3520 -0.4482  0.1344
86457SOL    HW271351   3.558   4.773  13.781 -1.4286 -0.3110 -0.6466
86458SOL     OW71352   8.497   5.348   1.880 -0.2859  0.2252 -0.3026
86458SOL    HW171353   8.418   5.294   1.890  1.0421 -2.0479 -1.3377
86458SOL    HW271354   8.504   5.362   1.786  1.2533 -0.8005 -0.3712
86459SOL     OW71355   0.419   0.113   1.663 -0.1819  0.1166  0.1384
86459SOL    HW171356   0.378   0.028   1.674 -2.1216  1.0570  0.6468
86459SOL    HW271357   0.394   0.140   1.574  0.2072  0.2619  0.0706
86460SOL     OW71358   8.200   1.005   4.629  0.0417  0.2640 -0.4025
86460SOL    HW171359   8.195   1.019   4.535  1.0449  1.0297 -0.3535
86460SOL    HW271360   8.270   1.062   4.659 -0.6804  0.5187  0.9100
86461SOL     OW71361   7.261   4.751   8.768  1.1185  0.3091 -0.1867
86461SOL    HW171362   7.285   4.755   8.861 -0.8362 -2.7832  0.5952
86461SOL    HW271363   7.221   4.836   8.750  0.4580  0.5620  2.1302
86462SOL     OW71364  12.854  11.700   7.997 -0.5156 -0.4320  0.0836
86462SOL    HW171365  12.831  11.650   8.075 -2.2640 -0.3447 -0.3320
86462SOL    HW271366  12.939  11.738   8.017 -0.9329 -0.3730  1.9680
86463SOL     OW71367   8.035   5.102   8.953  0.1298  0.0370 -0.1227
86463SOL    HW171368   7.973   5.096   8.881 -0.7011  1.3834  0.4516
86463SOL    HW271369   7.997   5.167   9.012 -0.8210 -3.1856  3.1284
86464SOL     OW71370  13.737   8.857   5.962 -0.2571 -0.1542  0.1337
86464SOL    HW171371  13.650   8.893   5.948 -1.5169 -2.9930  0.0881
86464SOL    HW271372  13.734   8.819   6.050  0.8471 -0.5450  0.0257
86465SOL     OW71373   4.901   0.664   9.591  0.1160  0.2848  0.2008
86465SOL    HW171374   4.916   0.695   9.680 -1.0047  0.9095  0.1952
86465SOL    HW271375   4.933   0.735   9.535 -0.2893  0.4217  0.1379
86466SOL     OW71376   4.867   9.637   1.731  0.2612 -0.0984  0.1274
86466SOL    HW171377   4.819   9.684   1.800  0.5930 -0.2227  0.4434
86466SOL    HW271378   4.808   9.640   1.655  0.0355  0.3285  0.3148
86467SOL     OW71379  12.556   4.676   4.042 -0.1386  0.1642 -0.0633
86467SOL    HW171380  12.470   4.659   4.081 -0.0205  0.7455  0.4652
86467SOL    HW271381  12.605   4.595   4.056 -1.0575 -0.7173 -1.6687
86468SOL     OW71382  10.505  10.792   9.071  0.0597  0.2336  0.0823
86468SOL    HW171383  10.547  10.714   9.107  0.1970  0.0923 -0.3780
86468SOL    HW271384  10.480  10.767   8.982  1.4676  1.1858 -0.6079
86469SOL     OW71385  12.100   9.959  12.942  0.3140  0.1340  0.1892
86469SOL    HW171386  12.023   9.983  12.891  0.7534 -0.7082 -0.9417
86469SOL    HW271387  12.165   9.934  12.876  0.9149 -0.9934  1.1580
86470SOL     OW71388   8.853   9.235   4.650 -0.4308 -0.6750  0.2517
86470SOL    HW171389   8.813   9.161   4.696 -1.0259 -0.8824 -0.5537
86470SOL    HW271390   8.932   9.199   4.610 -1.9004 -1.5856 -2.1162
86471SOL     OW71391   8.976   9.764  10.605  0.3112  0.0195 -0.2099
86471SOL    HW171392   8.900   9.719  10.569  0.0530  0.7795 -0.6344
86471SOL    HW271393   9.039   9.766  10.533  1.0668 -1.2944  0.3666
86472SOL     OW71394  12.387  13.958  11.171  0.2396  0.2253  0.4827
86472SOL    HW171395  12.377  14.031  11.232  1.6769 -0.4489  1.5666
86472SOL    HW271396  12.480  13.935  11.175  0.1722 -0.5065 -1.2066
86473SOL     OW71397   1.738   4.137  12.899 -1.0838  0.0709  1.0006
86473SOL    HW171398   1.781   4.055  12.922  0.7390  1.0110  1.1255
86473SOL    HW271399   1.656   4.111  12.859 -0.0363 -1.8552 -0.0140
86474SOL     OW71400  11.403   7.998  11.413  0.1192  0.2708 -0.0177
86474SOL    HW171401  11.400   8.093  11.423 -1.3636  0.2337  0.1008
86474SOL    HW271402  11.340   7.979  11.343 -0.5543 -0.7137  0.8216
86475SOL     OW71403   5.552  11.238  10.945  0.7783 -0.3839 -0.1198
86475SOL    HW171404   5.517  11.189  10.871 -1.4077  1.6692 -0.5537
86475SOL    HW271405   5.478  11.246  11.006  1.2210  1.7866  0.1995
86476SOL     OW71406   0.897   4.171  10.702  0.0091 -0.1967  0.2885
86476SOL    HW171407   0.816   4.151  10.748 -0.0344 -0.6587  0.0203
86476SOL    HW271408   0.907   4.266  10.710  0.7716 -0.3947  2.5304
86477SOL     OW71409  12.989   8.036   5.575 -0.0410  0.1616  0.0855
86477SOL    HW171410  12.940   8.086   5.510 -1.9802  0.8139  1.9559
86477SOL    HW271411  12.930   7.965   5.601  1.3468 -1.0902 -0.0142
86478SOL     OW71412   3.853   5.225  12.765  0.3301  0.3685 -0.2325
86478SOL    HW171413   3.889   5.307  12.732  0.7519  0.7332  1.0743
86478SOL    HW271414   3.930   5.168  12.776  0.3099  0.5228  0.8306
86479SOL     OW71415   4.856   4.301  11.855  0.2575 -0.1179 -0.3333
86479SOL    HW171416   4.793   4.324  11.924  1.3964  1.6855  0.1726
86479SOL    HW271417   4.941   4.312  11.896  0.9506  0.2329 -1.8055
86480SOL     OW71418   7.482  11.945   1.314 -0.1336 -0.2645 -0.2069
86480SOL    HW171419   7.443  12.027   1.286 -2.6009 -0.4191  2.2723
86480SOL    HW271420   7.510  11.961   1.404  0.3540 -1.8065 -0.0437
86481SOL     OW71421   0.666   1.452   9.045 -0.4972 -0.2502  0.8443
86481SOL    HW171422   0.750   1.492   9.025 -0.7672  0.2887  0.7517
86481SOL    HW271423   0.670   1.434   9.139  0.0154 -0.9527  0.6933
86482SOL     OW71424   7.723   9.638   2.213 -0.4003 -0.0590  0.2229
86482SOL    HW171425   7.738   9.691   2.135 -1.8627  1.8117  1.1251
86482SOL    HW271426   7.806   9.640   2.260  0.0169  0.0998 -0.5024
86483SOL     OW71427  11.984   2.945   1.134  0.3283  0.5520  0.0811
86483SOL    HW171428  11.906   2.892   1.120  2.5698 -3.2138  0.6820
86483SOL    HW271429  11.970   2.986   1.219 -0.5772 -0.9319  0.6765
86484SOL     OW71430  10.828  12.861   0.756  0.4470  0.0335 -0.2800
86484SOL    HW171431  10.756  12.902   0.804  0.2744  0.2671 -0.7314
86484SOL    HW271432  10.907  12.886   0.802  0.3330  0.7712 -0.4791
86485SOL     OW71433   1.271   3.307  11.158  0.1748 -0.0674 -0.0008
86485SOL    HW171434   1.276   3.363  11.080  0.6896 -0.7632 -0.4876
86485SOL    HW271435   1.188   3.260  11.148  0.1794 -0.0606 -0.0773
86486SOL     OW71436   4.257  10.475   1.648 -0.1938 -0.2046  0.1111
86486SOL    HW171437   4.304  10.449   1.727  0.5168  1.1870  0.1763
86486SOL    HW271438   4.195  10.541   1.677 -0.8043 -0.5902 -0.3008
86487SOL     OW71439   9.163  10.417   1.172  0.0752  0.0977  0.3256
86487SOL    HW171440   9.100  10.461   1.229 -0.5966 -0.4384  0.0165
86487SOL    HW271441   9.192  10.485   1.112  0.1058  0.4483  0.7324
86488SOL     OW71442   7.252   6.964  11.461 -0.2817  0.2222 -0.5176
86488SOL    HW171443   7.216   7.047  11.494  1.1932  0.4717  0.5840
86488SOL    HW271444   7.297   6.987  11.381 -1.0726  0.2099 -0.9789
86489SOL     OW71445   2.373   6.065   3.785 -0.2280  0.9850 -0.6576
86489SOL    HW171446   2.336   6.114   3.711 -0.8419  1.8246  0.1761
86489SOL    HW271447   2.305   6.004   3.810  0.5976 -0.4623 -1.7929
86490SOL     OW71448   6.018   1.143   2.199  0.6634 -0.2193 -0.7184
86490SOL    HW171449   6.105   1.161   2.236 -0.1178  2.7252 -0.0874
86490SOL    HW271450   5.993   1.059   2.237  2.6703 -0.4787  0.1527
86491SOL     OW71451  13.974   7.314  10.722  0.0354 -0.3054 -0.0683
86491SOL    HW171452  13.915   7.386  10.746  1.4752  0.5397  1.1205
86491SOL    HW271453  13.992   7.328  10.629 -2.0226 -0.9097 -0.6069
86492SOL     OW71454   6.609   7.074   6.228 -0.5229 -0.1930  0.1357
86492SOL    HW171455   6.557   6.997   6.202 -0.1027  0.2594 -2.2846
86492SOL    HW271456   6.560   7.148   6.193 -0.1800  0.5409  1.1937
86493SOL     OW71457  11.956   6.115  14.011 -0.4057 -0.1428  0.3261
86493SOL    HW171458  11.996   6.074  14.087 -0.4376  1.4824  1.2601
86493SOL    HW271459  11.863   6.097  14.020 -0.2565 -1.2676 -0.1866
86494SOL     OW71460   8.604   7.968   9.930 -0.0292 -0.0309 -0.7432
86494SOL    HW171461   8.588   8.060   9.949 -0.9692 -0.2549 -0.3881
86494SOL    HW271462   8.660   7.969   9.853  0.3869  0.8386 -0.4504
86495SOL     OW71463  13.408   8.724   9.891  0.3475  0.4606 -0.4568
86495SOL    HW171464  13.496   8.748   9.921  1.0976 -1.2296 -1.1665
86495SOL    HW271465  13.354   8.800   9.911  2.1183  1.8344 -0.6535
86496SOL     OW71466  10.999  13.709  10.796  0.2256  0.0025  0.1932
86496SOL    HW171467  10.952  13.716  10.879  0.7401  0.7837  0.4257
86496SOL    HW271468  11.066  13.777  10.800 -1.5076  2.0310 -2.0330
86497SOL     OW71469   8.535   3.056   4.822  0.2954 -0.0976  0.2783
86497SOL    HW171470   8.493   3.108   4.754 -0.5183 -1.2244 -0.1084
86497SOL    HW271471   8.511   2.965   4.802  2.1259 -0.6941  0.6117
86498SOL     OW71472   0.346  12.097  13.892  0.2191 -0.4195 -0.3401
86498SOL    HW171473   0.381  12.029  13.835  0.6864 -0.0805 -0.4713
86498SOL    HW271474   0.354  12.178  13.840  0.2655 -0.1718  0.0481
86499SOL     OW71475   7.704   6.744   9.815  0.0435  0.2036 -0.2319
86499SOL    HW171476   7.647   6.687   9.762 -0.3427 -0.3674  0.7829
86499SOL    HW271477   7.646   6.813   9.846  0.5886  1.4334 -1.7821
86500SOL     OW71478   4.534   8.862   8.917 -0.0245  0.4528 -0.0045
86500SOL    HW171479   4.486   8.898   8.843  1.2783  1.8892 -0.1828
86500SOL    HW271480   4.578   8.785   8.881 -1.9390 -0.7656  0.1107
86501SOL     OW71481   0.970   7.975  10.074  0.6805  0.0375  0.1977
86501SOL    HW171482   0.986   7.953   9.982  1.9284 -2.0482  0.8357
86501SOL    HW271483   0.909   8.048  10.071 -1.7778 -1.8951 -2.2707
86502SOL     OW71484   9.781   6.735  10.591 -0.1084  0.2052 -0.1503
86502SOL    HW171485   9.861   6.686  10.606  0.8391  1.6969 -0.1873
86502SOL    HW271486   9.790   6.770  10.503 -2.0288 -1.7911 -1.2515
86503SOL     OW71487  11.073   3.323  10.265  0.3905 -0.4706  0.0858
86503SOL    HW171488  10.997   3.294  10.214  1.1671 -3.7773  0.5799
86503SOL    HW271489  11.127   3.245  10.273  1.6863  0.6178  3.6015
86504SOL     OW71490   9.878   9.265   8.174  0.5025 -0.0170 -0.0065
86504SOL    HW171491   9.895   9.191   8.232 -2.1506 -1.6612 -1.1356
86504SOL    HW271492   9.920   9.241   8.091 -1.4679 -0.9890 -0.7854
86505SOL     OW71493  10.608   8.844  11.100  0.0170 -0.0192 -0.1275
86505SOL    HW171494  10.608   8.917  11.038 -1.7873 -2.5154 -3.3512
86505SOL    HW271495  10.667   8.779  11.061 -0.0266 -1.1532  1.5597
86506SOL     OW71496   2.272  11.516   7.918  0.4539 -0.2464  0.5315
86506SOL    HW171497   2.314  11.459   7.854  1.3408  1.2593 -0.2872
86506SOL    HW271498   2.181  11.487   7.920  0.4095 -0.3799 -1.3772
86507SOL     OW71499   6.940   0.089  13.910 -0.6151 -0.0046 -0.4206
86507SOL    HW171500   7.017   0.060  13.860 -0.1125  0.5861 -0.0158
86507SOL    HW271501   6.874   0.109  13.843 -0.5600 -0.9013 -0.7523
86508SOL     OW71502  11.856   7.207   1.033 -0.2211 -0.5654  0.1714
86508SOL    HW171503  11.894   7.211   1.120  2.1257 -0.4834 -0.7805
86508SOL    HW271504  11.871   7.294   0.996  0.4298 -1.1184 -0.9171
86509SOL     OW71505   2.289   9.756   9.389 -0.0524 -0.0116  0.0549
86509SOL    HW171506   2.199   9.769   9.359 -0.1085  1.2814  0.7212
86509SOL    HW271507   2.342   9.809   9.330  0.0013  1.1895  1.1209
86510SOL     OW71508   0.284   7.510   3.166 -0.2917  0.4582 -0.2374
86510SOL    HW171509   0.201   7.463   3.173 -0.1024 -0.0889 -1.3779
86510SOL    HW271510   0.278   7.581   3.230 -0.3153 -1.5134  2.1024
86511SOL     OW71511   4.909   9.676  12.491  0.4793 -0.0277  0.0553
86511SOL    HW171512   4.913   9.588  12.451  1.4728 -0.7669  1.6827
86511SOL    HW271513   4.990   9.718  12.463  2.1926 -1.2744  2.7249
86512SOL     OW71514   1.298  12.091   9.443 -0.5124  0.1168 -0.0239
86512SOL    HW171515   1.263  12.026   9.383 -0.7849 -0.0827  0.3449
86512SOL    HW271516   1.354  12.147   9.389 -0.8378  0.0044 -0.4813
86513SOL     OW71517   5.486   2.132   2.149 -0.0175  0.4836 -0.4921
86513SOL    HW171518   5.565   2.170   2.110  0.0591 -0.5694 -1.3946
86513SOL    HW271519   5.427   2.118   2.075 -1.2396  1.6143  0.2098
86514SOL     OW71520  12.555  10.315   8.825 -0.2031 -0.0947  0.8328
86514SOL    HW171521  12.537  10.388   8.766  2.2778  0.1015  0.1956
86514SOL    HW271522  12.469  10.287   8.856 -1.4795  0.9282 -1.5083
86515SOL     OW71523   7.434   6.572  11.594 -0.2341 -0.0845  0.1080
86515SOL    HW171524   7.517   6.618  11.602  0.3772 -1.1913  0.3832
86515SOL    HW271525   7.446   6.516  11.517 -0.7186 -0.2621  0.1616
86516SOL     OW71526  12.791   7.399  13.823 -0.7008 -0.1049  0.3965
86516SOL    HW171527  12.831   7.486  13.827  0.1272 -0.5020  0.9746
86516SOL    HW271528  12.846   7.350  13.762 -0.2752 -0.6615  1.2121
86517SOL     OW71529   5.208   7.601   0.311 -0.0507 -0.1056  0.1916
86517SOL    HW171530   5.297   7.581   0.283 -0.3612 -1.2085 -0.0606
86517SOL    HW271531   5.152   7.552   0.250 -0.8238  0.5508  0.3610
86518SOL     OW71532   0.816  12.585   4.237 -0.3065  0.9770  0.6515
86518SOL    HW171533   0.755  12.606   4.308 -0.5194  1.2736  0.3834
86518SOL    HW271534   0.903  12.600   4.275 -0.3483 -0.1864  1.2819
86519SOL     OW71535  12.836  12.289   8.611 -0.0449 -0.6513 -0.0968
86519SOL    HW171536  12.812  12.323   8.525  0.7077 -0.2677 -0.1599
86519SOL    HW271537  12.824  12.362   8.671  0.8605 -0.4750 -0.1164
86520SOL     OW71538   1.094   1.470   4.756 -0.0348 -0.5503 -0.3152
86520SOL    HW171539   1.159   1.537   4.778  0.6356 -1.3140  0.0607
86520SOL    HW271540   1.043   1.458   4.837 -1.1001  0.5171 -0.7935
86521SOL     OW71541   5.902   0.508   4.911 -0.0101 -0.0360 -0.3882
86521SOL    HW171542   5.872   0.442   4.973 -1.9685  0.6692 -0.5106
86521SOL    HW271543   5.822   0.552   4.881  1.0972  1.4365 -1.3908
86522SOL     OW71544   2.131   6.655   1.320 -0.3455 -0.5779  0.2803
86522SOL    HW171545   2.107   6.742   1.354 -0.9433 -0.1983 -1.0528
86522SOL    HW271546   2.080   6.646   1.240  1.4792 -1.1596 -0.8831
86523SOL     OW71547  13.320  10.319  10.538  0.3177  0.1437 -0.3327
86523SOL    HW171548  13.307  10.241  10.593 -1.1309 -0.9772 -2.1390
86523SOL    HW271549  13.346  10.284  10.453 -1.2008  1.5410 -1.4395
86524SOL     OW71550   4.301  11.267   5.270  0.0137  0.4984  0.0138
86524SOL    HW171551   4.366  11.238   5.206  0.2797  2.0134 -0.4348
86524SOL    HW271552   4.335  11.236   5.354  0.3174 -0.4008 -0.4261
86525SOL     OW71553   6.346  10.755   6.731 -0.2185 -0.1126  0.4829
86525SOL    HW171554   6.279  10.809   6.774  0.2602  1.8242 -1.0698
86525SOL    HW271555   6.318  10.752   6.640  1.9259  0.9695 -0.2569
86526SOL     OW71556  13.048   0.928   5.187  0.9435  0.2774 -0.1822
86526SOL    HW171557  12.994   0.956   5.261  1.9817 -0.0911  0.7430
86526SOL    HW271558  13.091   0.848   5.218  0.1794 -0.7995 -1.7674
86527SOL     OW71559  12.403  10.322   4.730  0.1111 -0.5042 -0.5065
86527SOL    HW171560  12.491  10.331   4.695 -0.2817 -0.4240 -1.5067
86527SOL    HW271561  12.391  10.227   4.740 -0.0186 -0.5747 -1.2666
86528SOL     OW71562   7.987   3.209   8.357  0.9290  0.5315  0.0005
86528SOL    HW171563   7.976   3.128   8.307  2.9955  0.9847 -1.2837
86528SOL    HW271564   7.940   3.275   8.307 -1.2453  0.1280  1.3389
86529SOL     OW71565   6.059   4.999   0.225  0.3406 -0.0515 -0.6739
86529SOL    HW171566   6.127   5.054   0.264 -0.1800  0.0129  0.1758
86529SOL    HW271567   6.082   4.910   0.252  1.7875 -0.4521 -2.9289
86530SOL     OW71568   1.575   5.988  12.054 -0.0809 -0.6874  0.3173
86530SOL    HW171569   1.625   5.907  12.062  0.0016 -0.5948  0.7395
86530SOL    HW271570   1.499   5.975  12.112 -0.4853 -0.7759 -0.2161
86531SOL     OW71571   1.938  12.940   5.037 -0.3441  0.1501  0.6861
86531SOL    HW171572   1.900  12.964   4.953 -1.8176  1.2966  1.6293
86531SOL    HW271573   1.949  13.023   5.083  0.0240 -0.4855  1.7851
86532SOL     OW71574   4.876  10.164   9.601  0.0852 -0.0241 -0.3814
86532SOL    HW171575   4.849  10.156   9.509 -0.7460 -2.1607 -0.0092
86532SOL    HW271576   4.818  10.231   9.637 -0.1349  0.2510 -1.2251
86533SOL     OW71577   4.629   7.631   0.923 -0.4972  0.0653  0.2242
86533SOL    HW171578   4.678   7.639   1.006  0.5014  0.5994 -0.3938
86533SOL    HW271579   4.684   7.574   0.869  0.2310  1.8724 -1.0210
86534SOL     OW71580   6.603  13.444   2.714 -0.0580 -0.3826 -0.5366
86534SOL    HW171581   6.640  13.385   2.779 -1.2020 -0.9158 -0.3444
86534SOL    HW271582   6.677  13.498   2.686  0.5029 -0.2849  1.0335
86535SOL     OW71583   6.014   9.591   9.001 -0.4434  0.8002  0.0266
86535SOL    HW171584   6.016   9.645   9.080  1.3565  0.1966  0.4431
86535SOL    HW271585   6.025   9.501   9.034 -2.3824  0.2290 -0.7266
86536SOL     OW71586  10.985   5.249   2.872  0.4254  0.4841  0.1718
86536SOL    HW171587  10.981   5.345   2.877 -0.6487  0.4117  1.1173
86536SOL    HW271588  11.060   5.226   2.927  1.6754  0.8438 -1.3303
86537SOL     OW71589  12.641   3.534   4.686  0.3690  0.1794 -0.0929
86537SOL    HW171590  12.669   3.605   4.743  2.9452  1.8329 -3.1231
86537SOL    HW271591  12.569   3.571   4.635 -0.6557 -0.6520  0.6983
86538SOL     OW71592  13.616  12.340   7.187  0.4287  0.2210 -0.2314
86538SOL    HW171593  13.565  12.403   7.238  0.7250  0.5574 -0.3449
86538SOL    HW271594  13.588  12.255   7.220 -1.7895  0.2839 -1.7452
86539SOL     OW71595   4.551   2.746  10.132  0.0267 -0.3700  0.4327
86539SOL    HW171596   4.572   2.809  10.063  0.5485 -1.8115 -0.7881
86539SOL    HW271597   4.516   2.670  10.085 -0.5356 -1.0297  1.8497
86540SOL     OW71598   6.613   7.468   6.315  0.0211  0.2814 -0.4812
86540SOL    HW171599   6.584   7.474   6.406 -0.5661 -0.5874 -0.6039
86540SOL    HW271600   6.670   7.391   6.313  0.5556  0.6761 -0.7171
86541SOL     OW71601   4.857  12.901  12.970 -0.1908  0.3987  0.3473
86541SOL    HW171602   4.917  12.917  12.898  0.9511 -0.2411  1.1168
86541SOL    HW271603   4.911  12.861  13.038 -1.4503 -0.0103  1.1543
86542SOL     OW71604   5.170   0.566  11.532 -0.3484 -0.0912 -0.2604
86542SOL    HW171605   5.212   0.519  11.604  0.2990  2.1689  0.9443
86542SOL    HW271606   5.233   0.561  11.460  0.5784  0.5359  0.4829
86543SOL     OW71607  13.756   7.305   8.955 -0.6125 -0.7264 -0.6266
86543SOL    HW171608  13.750   7.248   8.879 -0.3343  0.0872 -1.2716
86543SOL    HW271609  13.849   7.318   8.968 -0.6853  0.8974 -1.5101
86544SOL     OW71610   4.979   5.703   9.756  0.2903 -0.4017  0.7148
86544SOL    HW171611   4.928   5.702   9.675 -1.3570 -0.2493  1.7252
86544SOL    HW271612   5.070   5.693   9.726 -0.0809  1.4883 -1.2645
86545SOL     OW71613  11.854   2.670   0.438 -1.0494 -0.5207  0.1630
86545SOL    HW171614  11.797   2.747   0.437 -1.9154 -1.1076 -2.1768
86545SOL    HW271615  11.941   2.705   0.458 -1.7961  0.7079  1.4756
86546SOL     OW71616   3.805   3.147   6.104  0.6768 -0.2008 -0.2222
86546SOL    HW171617   3.714   3.173   6.120  1.0639  0.5473  0.8844
86546SOL    HW271618   3.803   3.104   6.019 -1.0738 -1.9912  0.6502
86547SOL     OW71619   0.307  11.245  12.718 -0.6645 -0.4825  0.3988
86547SOL    HW171620   0.348  11.159  12.726 -2.1665 -1.2855 -0.2292
86547SOL    HW271621   0.213  11.228  12.727 -1.3400  0.5324 -3.0302
86548SOL     OW71622  11.834  12.103   4.228  0.4838 -0.2655  0.4752
86548SOL    HW171623  11.765  12.058   4.179  0.7394 -1.7978  1.4297
86548SOL    HW271624  11.818  12.196   4.213 -0.9910 -0.6199 -0.3810
86549SOL     OW71625  13.823   0.898   6.517 -0.0551  0.0837  0.2310
86549SOL    HW171626  13.854   0.808   6.532 -0.1834  0.1056  0.6405
86549SOL    HW271627  13.728   0.889   6.508 -0.1995  0.3100  1.3961
86550SOL     OW71628   6.509  11.589   4.370  0.1620  0.1686  0.0026
86550SOL    HW171629   6.475  11.638   4.295  0.3445 -0.6969 -0.6562
86550SOL    HW271630   6.468  11.503   4.363  0.1477  0.0879  0.9299
86551SOL     OW71631  10.500   8.976   5.772  0.2938 -0.0079  0.9951
86551SOL    HW171632  10.556   9.022   5.710 -0.6469  0.9011  0.7877
86551SOL    HW271633  10.544   8.986   5.856  0.9799 -0.2312  0.6654
86552SOL     OW71634   8.254  13.696   7.842 -0.2771 -0.1095 -0.1345
86552SOL    HW171635   8.251  13.791   7.838 -0.0222 -0.0529  0.8637
86552SOL    HW271636   8.341  13.673   7.810 -0.7133 -0.0876 -1.4099
86553SOL     OW71637   4.724   4.198  11.644  0.0548  0.3672 -0.4724
86553SOL    HW171638   4.785   4.127  11.622 -0.6798  0.1292 -1.9076
86553SOL    HW271639   4.770   4.249  11.710  0.9219 -1.0137  0.0525
86554SOL     OW71640   1.378   5.796  11.774 -0.0282  0.5888 -0.1603
86554SOL    HW171641   1.421   5.721  11.733 -0.5500  0.6552 -0.8338
86554SOL    HW271642   1.369   5.771  11.866  1.0938  0.4149 -0.0799
86555SOL     OW71643   0.992   2.501   0.690 -0.2111  0.3640 -0.0072
86555SOL    HW171644   1.033   2.577   0.732  1.2349  0.4305 -1.4055
86555SOL    HW271645   0.899   2.509   0.710 -0.1837  2.8372 -0.5871
86556SOL     OW71646  10.227   1.075   8.221 -0.0445  0.2045  0.2300
86556SOL    HW171647  10.145   1.040   8.186 -0.2711  0.6590  0.3068
86556SOL    HW271648  10.294   1.017   8.186 -0.5358 -1.2330  1.5267
86557SOL     OW71649   6.097   5.848   8.171  0.1876 -0.2092 -0.0833
86557SOL    HW171650   6.136   5.932   8.195 -0.1927  0.0138 -0.2422
86557SOL    HW271651   6.153   5.782   8.214  1.5388  0.0416 -1.3704
86558SOL     OW71652   1.563   9.849  10.902 -0.4590 -0.5846  0.2151
86558SOL    HW171653   1.539   9.783  10.967 -1.4940 -0.3295  0.0970
86558SOL    HW271654   1.482   9.897  10.884 -0.1591 -0.5475 -1.1514
86559SOL     OW71655   9.801   5.219   4.497 -0.3418  0.3311 -0.1656
86559SOL    HW171656   9.784   5.127   4.476  0.8787  0.5971 -2.6381
86559SOL    HW271657   9.868   5.246   4.434 -1.0551  3.0784  0.1415
86560SOL     OW71658   4.040  12.000   3.977 -0.4339  0.1349  0.3099
86560SOL    HW171659   3.950  11.973   3.995 -0.5859 -0.0203 -0.6343
86560SOL    HW271660   4.047  12.086   4.017 -1.7962  1.2579 -1.7021
86561SOL     OW71661   9.075   6.394   2.197  0.4049  0.0527 -0.2383
86561SOL    HW171662   9.120   6.368   2.116 -1.0288  0.7269 -1.3141
86561SOL    HW271663   9.104   6.331   2.262  1.6517 -0.4853 -1.2741
86562SOL     OW71664   2.726   7.803   8.288 -0.0448  0.1325  0.3405
86562SOL    HW171665   2.661   7.774   8.224  0.2805 -1.1407  0.5602
86562SOL    HW271666   2.775   7.872   8.244 -0.1796 -0.3589 -0.5978
86563SOL     OW71667   8.400  11.080  11.074 -0.0580 -0.0680  0.1788
86563SOL    HW171668   8.461  11.008  11.066  1.2572  0.7751  1.8510
86563SOL    HW271669   8.452  11.159  11.057 -1.7336  0.5426 -2.9610
86564SOL     OW71670   8.930   1.898  13.936 -0.1548  0.4678 -0.5572
86564SOL    HW171671   8.992   1.970  13.929 -0.4321  0.6348 -1.4476
86564SOL    HW271672   8.973   1.825  13.893 -0.6877  0.6700 -1.4549
86565SOL     OW71673  10.760   2.333   2.555 -0.1059 -0.4067 -0.3304
86565SOL    HW171674  10.843   2.287   2.569  0.5896  0.4518 -1.4828
86565SOL    HW271675  10.758   2.401   2.623  1.1105  0.8466 -1.4821
86566SOL     OW71676   8.940   1.468   7.455  0.1284  0.1439 -0.3680
86566SOL    HW171677   8.945   1.377   7.427 -2.6375 -0.5817  1.1934
86566SOL    HW271678   8.995   1.472   7.533 -0.6205 -0.5003  0.2058
86567SOL     OW71679   9.709   3.407  12.946  0.9689  0.1390 -0.4632
86567SOL    HW171680   9.666   3.346  12.886  0.6471 -0.5999  0.4904
86567SOL    HW271681   9.779   3.355  12.986 -0.2946 -0.1194  1.5362
86568SOL     OW71682   3.559   6.923  12.119  0.4793  0.1121 -0.1563
86568SOL    HW171683   3.523   7.004  12.084 -0.1653  0.1677  0.5983
86568SOL    HW271684   3.651   6.943  12.135 -0.0839  1.3681  1.8803
86569SOL     OW71685  11.105  13.292  10.381 -0.6125 -0.5606 -0.0673
86569SOL    HW171686  11.183  13.249  10.416  0.5515  2.2803  1.1277
86569SOL    HW271687  11.046  13.299  10.456  0.6856  2.8988  0.8277
86570SOL     OW71688   5.776  13.423   6.519 -0.5772  0.1062 -0.8868
86570SOL    HW171689   5.688  13.400   6.547  0.3696 -0.6773  1.8380
86570SOL    HW271690   5.798  13.359   6.451 -1.2313 -1.3877  0.2435
86571SOL     OW71691   1.310  10.771   5.250 -0.6776 -0.6717 -0.4360
86571SOL    HW171692   1.374  10.720   5.200 -1.4478 -1.0929 -1.0064
86571SOL    HW271693   1.225  10.735   5.225 -1.1376 -0.2775  0.4905
86572SOL     OW71694  12.833   3.794  11.847 -0.1887  0.0263 -0.2792
86572SOL    HW171695  12.746   3.762  11.823 -1.4947  1.9097  1.6019
86572SOL    HW271696  12.854   3.747  11.928  0.0347  0.3652 -0.1387
86573SOL     OW71697   6.703  12.516  10.170 -0.5122  0.5332 -0.0197
86573SOL    HW171698   6.647  12.557  10.236 -0.1331 -0.7902  1.1666
86573SOL    HW271699   6.758  12.588  10.138  0.3154  0.9506  2.1879
86574SOL     OW71700   1.479   4.067   4.280  0.2424  0.2682 -0.0467
86574SOL    HW171701   1.493   4.116   4.199  0.7894  0.6682  0.2829
86574SOL    HW271702   1.553   4.092   4.336 -0.5705  0.6429  0.8900
86575SOL     OW71703   9.606   4.587  11.741 -0.0861  0.0836  0.0378
86575SOL    HW171704   9.569   4.675  11.728 -0.5548  0.1025  1.3261
86575SOL    HW271705   9.616   4.552  11.653 -2.4845  0.3855 -0.4320
86576SOL     OW71706   4.569   1.528  12.244  0.2953 -0.1077  0.1125
86576SOL    HW171707   4.653   1.517  12.200 -0.5211  1.9452 -2.2269
86576SOL    HW271708   4.579   1.608  12.295  0.0710 -0.4016  0.6168
86577SOL     OW71709   9.045   9.652  11.356 -0.2499 -0.0074  0.3325
86577SOL    HW171710   9.096   9.721  11.314 -0.9671 -0.9531 -2.2513
86577SOL    HW271711   9.110   9.589  11.387  0.2666 -0.0821 -0.8625
86578SOL     OW71712   1.888  12.295   4.276 -1.2459  0.1846  0.1462
86578SOL    HW171713   1.831  12.267   4.205  0.0867  0.4014 -1.0597
86578SOL    HW271714   1.856  12.249   4.354 -2.3108 -0.5802 -0.7291
86579SOL     OW71715   5.788   1.992  12.354 -0.3015 -0.1100  0.5561
86579SOL    HW171716   5.805   2.050  12.428  1.8816 -0.5859  0.4868
86579SOL    HW271717   5.765   1.908  12.395 -1.6427  0.2863  0.6566
86580SOL     OW71718   0.008   9.575   9.269 -0.1065  0.7683 -0.1373
86580SOL    HW171719   0.049   9.608   9.349  0.2502  0.8814 -0.3630
86580SOL    HW271720  -0.086   9.582   9.285 -0.0874  3.1624 -0.6705
86581SOL     OW71721   0.790   5.321   4.386  0.2829 -0.0147  0.6823
86581SOL    HW171722   0.787   5.276   4.470 -1.2919 -0.8109  0.2458
86581SOL    HW271723   0.878   5.306   4.353  1.3069  1.2697  2.6581
86582SOL     OW71724   5.225   5.656   9.677 -0.1193  0.3350 -0.3255
86582SOL    HW171725   5.265   5.728   9.629  0.4004 -1.0307 -2.0297
86582SOL    HW271726   5.299   5.613   9.720 -0.3909  0.6072  0.4303
86583SOL     OW71727   6.438   5.415   2.618 -0.7211 -0.0979 -0.3064
86583SOL    HW171728   6.366   5.457   2.572 -0.8405 -0.8692 -0.8350
86583SOL    HW271729   6.499   5.389   2.549  0.3358  1.0131  0.1658
86584SOL     OW71730  11.358   7.770   1.251 -0.2759 -0.0634  0.0783
86584SOL    HW171731  11.329   7.691   1.297 -0.4056  0.3176  0.6592
86584SOL    HW271732  11.280   7.799   1.203 -0.6020  0.4262  0.8851
86585SOL     OW71733   8.264   9.340   8.188 -0.4075  0.1041 -0.2344
86585SOL    HW171734   8.209   9.285   8.132  0.1741  1.0308 -1.7583
86585SOL    HW271735   8.294   9.280   8.257 -2.9034 -0.5289  0.3923
86586SOL     OW71736  12.072   6.579   1.136  0.3420 -0.5652  0.1623
86586SOL    HW171737  12.153   6.532   1.113 -0.8108 -1.2987 -2.9097
86586SOL    HW271738  12.096   6.672   1.130  1.0381 -0.7764 -0.5137
86587SOL     OW71739   9.209   4.226   1.627  0.6394 -0.0914 -0.1228
86587SOL    HW171740   9.286   4.275   1.601 -1.0671  2.2522 -1.1163
86587SOL    HW271741   9.147   4.292   1.657 -0.7397 -1.9532  1.4148
86588SOL     OW71742   4.436   8.823  13.182 -0.3377 -0.5893  0.3438
86588SOL    HW171743   4.365   8.874  13.220  1.6919  2.3876  0.5354
86588SOL    HW271744   4.407   8.806  13.092 -1.2958  0.6687  0.3784
86589SOL     OW71745   6.140   1.060   5.127  0.0759  0.3378 -0.0070
86589SOL    HW171746   6.165   1.089   5.215 -0.7331  1.3286 -0.0977
86589SOL    HW271747   6.084   1.129   5.093 -0.6049 -0.5929 -0.8508
86590SOL     OW71748  10.159   9.560   4.452  0.2726 -0.7374 -0.3838
86590SOL    HW171749  10.192   9.503   4.522 -0.2807 -1.1639 -0.4647
86590SOL    HW271750  10.200   9.645   4.469 -0.4163 -0.6349  0.8876
86591SOL     OW71751   2.122   4.875   4.547  0.1820  0.2128  0.2235
86591SOL    HW171752   2.133   4.914   4.461 -0.0427  0.7594  0.4376
86591SOL    HW271753   2.199   4.904   4.597 -0.6683  1.5415  0.8037
86592SOL     OW71754   2.461   0.384   1.992  0.1892 -0.2684  0.9604
86592SOL    HW171755   2.460   0.404   1.899  0.7084  0.7250  1.1558
86592SOL    HW271756   2.553   0.365   2.011  0.1362 -0.1688  1.3277
86593SOL     OW71757   9.205   5.122   0.267 -0.0435 -0.8436  0.6800
86593SOL    HW171758   9.171   5.125   0.357 -1.9846  0.7305 -0.0454
86593SOL    HW271759   9.182   5.207   0.230 -1.7328 -2.3980 -2.1450
86594SOL     OW71760  13.418   9.659  12.056 -0.4038  0.2347  0.6163
86594SOL    HW171761  13.510   9.680  12.045 -0.4032  0.5844  1.2288
86594SOL    HW271762  13.416   9.589  12.121 -0.5073 -0.5616 -0.2298
86595SOL     OW71763   0.797  12.539   4.953  0.0686  0.4746  0.2980
86595SOL    HW171764   0.846  12.461   4.927  0.3453  0.5025  0.7282
86595SOL    HW271765   0.801  12.539   5.049 -2.3495 -0.5516  0.4629
86596SOL     OW71766   4.535   6.457   8.248 -0.1043  0.0127  0.1497
86596SOL    HW171767   4.484   6.385   8.211 -0.9005  0.2823  0.7040
86596SOL    HW271768   4.471   6.513   8.290  0.6291  0.4934  0.6529
86597SOL     OW71769   0.339   8.066   9.330 -0.1074 -0.2365  0.2969
86597SOL    HW171770   0.413   8.009   9.350  0.1914 -0.1804 -0.6107
86597SOL    HW271771   0.299   8.085   9.415  1.1258  0.0192  0.8388
86598SOL     OW71772   7.307   4.874   2.712  0.4255  1.1819  0.5295
86598SOL    HW171773   7.236   4.929   2.680 -2.8517 -1.3423  2.8710
86598SOL    HW271774   7.302   4.880   2.807  1.5250 -1.2220  0.8090
86599SOL     OW71775   9.078   9.110   7.878 -0.1361 -0.0356  0.3893
86599SOL    HW171776   9.069   9.015   7.891 -0.0069  0.1800  2.4310
86599SOL    HW271777   9.028   9.128   7.799  0.0810 -1.8529 -0.2149
86600SOL     OW71778   4.933   0.511  11.386 -0.2395 -0.0194  0.1385
86600SOL    HW171779   5.017   0.543  11.422  0.5829 -3.7092  1.9307
86600SOL    HW271780   4.879   0.495  11.463 -1.4958 -0.5359 -0.8243
86601SOL     OW71781   4.143   5.254  12.472 -0.0525 -0.1261 -0.1598
86601SOL    HW171782   4.189   5.293  12.398 -1.5309 -0.1940 -1.1536
86601SOL    HW271783   4.162   5.161  12.466  0.8585  0.0100  0.3264
86602SOL     OW71784   8.303   0.755   5.990  0.1500 -0.4491 -0.0325
86602SOL    HW171785   8.383   0.724   6.032 -0.5856 -2.3795  0.0664
86602SOL    HW271786   8.331   0.788   5.905  1.2250  0.4070  0.6174
86603SOL     OW71787  11.971   3.592   9.860 -0.6797  0.4925 -0.6205
86603SOL    HW171788  11.943   3.511   9.902 -0.5176  0.2348 -1.0075
86603SOL    HW271789  11.895   3.622   9.812 -0.9330  0.9030  0.0225
86604SOL     OW71790   8.287  13.523   5.494  0.1144 -0.2595 -0.3289
86604SOL    HW171791   8.258  13.488   5.410  0.1374 -0.1455 -0.3837
86604SOL    HW271792   8.213  13.509   5.553 -0.1614  0.2870 -0.5400
86605SOL     OW71793   1.929  11.991   6.749  0.1710  0.4488  0.4219
86605SOL    HW171794   1.939  11.947   6.664 -3.4800 -0.5209  0.3296
86605SOL    HW271795   1.872  12.066   6.731  1.9196  2.1332  1.5453
86606SOL     OW71796  13.859   7.980   9.206 -0.7666  0.6350  0.0669
86606SOL    HW171797  13.767   7.968   9.181 -0.3023  0.2026 -1.6003
86606SOL    HW271798  13.891   8.049   9.147  0.4010 -0.4392 -0.6097
86607SOL     OW71799   6.458   2.103   8.401  0.0136 -0.4235 -0.1138
86607SOL    HW171800   6.496   2.169   8.459 -2.5930  0.7103  0.4516
86607SOL    HW271801   6.483   2.131   8.313 -0.5729  1.0091  0.1590
86608SOL     OW71802  10.590   1.685   9.114  0.4073  0.1484 -0.3112
86608SOL    HW171803  10.616   1.694   9.205  2.0821 -1.4595 -0.5782
86608SOL    HW271804  10.624   1.763   9.071  0.5294  0.4008  0.2334
86609SOL     OW71805   7.552  11.013   9.351  0.0985 -0.0040  0.0710
86609SOL    HW171806   7.542  11.084   9.415 -0.9637  1.1576 -1.3129
86609SOL    HW271807   7.467  11.009   9.307  0.6619 -1.0675 -0.9556
86610SOL     OW71808   5.552  11.042  12.187 -0.8833 -0.5438  0.2434
86610SOL    HW171809   5.562  11.062  12.280  1.1106 -0.0753 -0.0216
86610SOL    HW271810   5.596  10.957  12.176 -1.5313 -0.8299 -0.1989
86611SOL     OW71811   1.862  10.230   8.437 -0.5555  0.0168  0.0395
86611SOL    HW171812   1.937  10.202   8.490 -1.1667 -0.6686  0.5670
86611SOL    HW271813   1.886  10.317   8.406  1.6166 -1.2283 -2.0577
86612SOL     OW71814  13.515   6.931   0.806 -0.0934 -0.8825 -0.7150
86612SOL    HW171815  13.597   6.908   0.850  0.0841  0.7046 -0.1445
86612SOL    HW271816  13.531   7.017   0.768 -1.0959 -1.1049 -1.7061
86613SOL     OW71817  13.480  13.167   1.126  0.7776  0.3286 -0.4177
86613SOL    HW171818  13.540  13.234   1.158  0.8997  0.4904 -0.9848
86613SOL    HW271819  13.439  13.206   1.049 -0.3551  0.3723  0.1929
86614SOL     OW71820  12.159   7.839   9.962 -0.4918 -0.5332  0.5056
86614SOL    HW171821  12.135   7.784  10.037 -0.7715 -0.3228  0.5727
86614SOL    HW271822  12.099   7.914   9.967 -0.8959 -0.7940 -0.2455
86615SOL     OW71823   1.734  10.111   0.298 -0.6144 -0.2822  0.1194
86615SOL    HW171824   1.663  10.132   0.238 -0.4355 -1.0053 -0.3704
86615SOL    HW271825   1.728  10.016   0.309  0.2312 -0.3462  0.1111
86616SOL     OW71826   5.828   0.214   8.711  0.4764 -0.5954 -0.5832
86616SOL    HW171827   5.908   0.169   8.684  0.3626 -1.4243  0.4022
86616SOL    HW271828   5.758   0.155   8.686  0.2533 -0.4635 -0.2762
86617SOL     OW71829   1.029  11.993   3.279 -0.4529 -0.0523 -0.0723
86617SOL    HW171830   1.070  12.080   3.280 -1.5444  0.4807  1.1650
86617SOL    HW271831   1.089  11.938   3.330  0.2417 -0.0427 -0.8570
86618SOL     OW71832  11.205   3.632   8.988  0.2951  0.4329 -0.3348
86618SOL    HW171833  11.287   3.586   9.007 -0.1799 -0.2157  0.2043
86618SOL    HW271834  11.233   3.717   8.952  1.1916 -0.0301 -0.7757
86619SOL     OW71835   4.808   7.452  11.678  0.3669  0.2277  0.4620
86619SOL    HW171836   4.785   7.487  11.764 -0.8710  0.8495 -0.1038
86619SOL    HW271837   4.779   7.361  11.681 -0.1637  0.3946  0.5274
86620SOL     OW71838   0.789   0.568   4.355  0.3461  0.3654  1.0792
86620SOL    HW171839   0.783   0.474   4.370  2.2783  0.0010 -0.1094
86620SOL    HW271840   0.781   0.607   4.442 -0.8084 -0.8469  1.5553
86621SOL     OW71841  11.339  13.023   2.078  0.7147  0.0353  0.5456
86621SOL    HW171842  11.383  12.938   2.079 -0.4526 -0.5834  1.3470
86621SOL    HW271843  11.386  13.073   2.011  0.8937 -1.5188 -0.5543
86622SOL     OW71844   5.945  10.371   7.751 -0.1145  0.1232  0.1741
86622SOL    HW171845   6.032  10.377   7.711 -0.9169  0.6972 -1.5912
86622SOL    HW271846   5.920  10.462   7.766 -0.6285 -0.0224  0.1924
86623SOL     OW71847  11.956   2.805   0.161 -0.2210 -0.6131  0.1568
86623SOL    HW171848  11.901   2.836   0.233  0.0210 -0.6303  0.3504
86623SOL    HW271849  11.900   2.811   0.084 -0.6629 -1.0981  0.4281
86624SOL     OW71850   3.574  13.217   8.306  0.1512 -0.1881  0.1258
86624SOL    HW171851   3.586  13.309   8.330 -0.1638 -0.4848  1.4917
86624SOL    HW271852   3.657  13.192   8.265  0.0407  0.8476 -0.7697
86625SOL     OW71853   2.539  11.238  11.012  0.0558 -0.3268  0.2443
86625SOL    HW171854   2.549  11.220  11.105  1.1721  1.7168  0.5811
86625SOL    HW271855   2.614  11.197  10.971  1.3150  1.3913  0.7073
86626SOL     OW71856   0.800  11.183   4.718  0.2984 -0.2572  0.2757
86626SOL    HW171857   0.818  11.106   4.664  3.6479  0.3587  0.2756
86626SOL    HW271858   0.838  11.162   4.803  1.2477  1.3113  0.2877
86627SOL     OW71859   3.290  11.070   1.331 -0.0975 -0.3421 -0.3681
86627SOL    HW171860   3.313  11.163   1.334  1.5423 -0.6693 -1.2770
86627SOL    HW271861   3.374  11.025   1.319 -0.7100 -2.0468  1.2072
86628SOL     OW71862   7.182   9.139   2.666  0.3399  0.0504  0.3813
86628SOL    HW171863   7.097   9.157   2.626  0.4054  0.0935  0.2617
86628SOL    HW271864   7.195   9.045   2.652  0.6275  0.1747 -0.2152
86629SOL     OW71865  13.443  12.703   7.572  0.3471  0.0971  0.2638
86629SOL    HW171866  13.489  12.683   7.653 -0.6062  0.7948  0.9952
86629SOL    HW271867  13.406  12.790   7.585  2.5076  1.4828 -1.9915
86630SOL     OW71868  12.961   4.975  12.542  0.7146  0.4270  0.3129
86630SOL    HW171869  12.969   4.990  12.448  0.9118 -0.2634  0.2106
86630SOL    HW271870  12.979   5.060  12.582 -0.3891  0.9677 -0.3079
86631SOL     OW71871   9.926  13.712  10.928 -0.1710 -0.2311 -0.3885
86631SOL    HW171872   9.918  13.798  10.886  0.9568  0.2992  0.4121
86631SOL    HW271873  10.021  13.700  10.940 -0.3938  0.4438  3.4301
86632SOL     OW71874   0.633  11.136   4.050  0.0756  0.5624 -0.3333
86632SOL    HW171875   0.591  11.203   4.103 -1.4984 -0.2636 -0.4886
86632SOL    HW271876   0.692  11.184   3.992  1.5866  1.5387  1.8288
86633SOL     OW71877   2.332   5.879  13.225 -0.1198  0.0873 -0.3513
86633SOL    HW171878   2.354   5.885  13.132 -0.5506  0.5860 -0.4278
86633SOL    HW271879   2.414   5.854  13.268 -0.3450 -2.1382 -1.0762
86634SOL     OW71880  12.578   4.810  13.005  0.4365 -0.3040 -0.3492
86634SOL    HW171881  12.651   4.835  13.062 -0.9155  1.1942  0.7974
86634SOL    HW271882  12.599   4.850  12.920  0.3140  1.2762  0.3399
86635SOL     OW71883   4.276   9.084  10.799 -0.3498 -0.3444 -0.0691
86635SOL    HW171884   4.182   9.098  10.815 -0.6719 -1.4830 -0.7919
86635SOL    HW271885   4.309   9.170  10.774 -1.0845  0.1902  0.7440
86636SOL     OW71886   7.830  11.864   3.727 -0.1464 -0.6030  0.6490
86636SOL    HW171887   7.768  11.868   3.799 -0.2749 -0.2554  0.5230
86636SOL    HW271888   7.863  11.954   3.719 -0.1971 -0.6194  0.2259
86637SOL     OW71889   6.765   8.532   5.899  0.2423  0.0906  0.5514
86637SOL    HW171890   6.765   8.474   5.975  0.5844 -0.6511  0.0009
86637SOL    HW271891   6.714   8.485   5.833 -1.4603  1.4429  0.8295
86638SOL     OW71892   4.864   2.745  14.034  0.2667  0.1891  0.1591
86638SOL    HW171893   4.893   2.819  13.981 -1.3906  1.1366  0.5122
86638SOL    HW271894   4.924   2.743  14.108  0.0641  1.4504  0.3643
86639SOL     OW71895  10.466  12.032   1.232 -0.4254  0.1097 -0.0629
86639SOL    HW171896  10.504  12.108   1.274 -0.6252  0.9248 -1.3002
86639SOL    HW271897  10.373  12.054   1.222 -0.0046  0.9582 -2.9296
86640SOL     OW71898  11.395  10.565   1.694 -0.5368  0.0906  0.0435
86640SOL    HW171899  11.397  10.634   1.627  1.0547 -0.8028 -0.9053
86640SOL    HW271900  11.482  10.568   1.733 -0.2512 -1.6904 -0.3874
86641SOL     OW71901   7.003   0.414   1.621  0.1907 -0.0544 -0.2424
86641SOL    HW171902   6.914   0.390   1.646 -0.4441  2.0057 -0.2795
86641SOL    HW271903   7.047   0.434   1.704  0.4848 -0.6560 -0.2529
86642SOL     OW71904  11.204  12.776  10.325 -0.1286  0.1195 -0.5693
86642SOL    HW171905  11.220  12.865  10.291 -1.5815  1.3201  1.6346
86642SOL    HW271906  11.289  12.733  10.321  0.7544  1.8182 -1.1069
86643SOL     OW71907  10.386  12.768   3.758  0.5565  0.1185 -0.2368
86643SOL    HW171908  10.314  12.823   3.789  0.1617 -0.4822 -0.0680
86643SOL    HW271909  10.464  12.805   3.799  0.2904  0.5457 -0.1142
86644SOL     OW71910   3.722  11.961   7.513  0.1133 -0.0482  0.1752
86644SOL    HW171911   3.628  11.954   7.498  0.1471 -1.0518  0.3789
86644SOL    HW271912   3.730  11.983   7.606  0.0557  1.2574 -0.1110
86645SOL     OW71913   7.713  13.050   2.106  0.1715 -0.1783 -0.4042
86645SOL    HW171914   7.712  13.119   2.172 -1.4630  1.3993 -1.9622
86645SOL    HW271915   7.804  13.045   2.077  0.5690  0.3238  0.7216
86646SOL     OW71916  11.316   9.387   9.522 -0.3603  0.3340  0.2052
86646SOL    HW171917  11.366   9.448   9.468 -1.7340  2.1455  0.8944
86646SOL    HW271918  11.380   9.323   9.552  1.0411  1.1559 -0.9453
86647SOL     OW71919   8.160   8.301  12.553  0.0625  0.1557  0.4819
86647SOL    HW171920   8.190   8.306  12.644 -0.1833 -1.5780  0.6854
86647SOL    HW271921   8.067   8.325  12.557 -0.4172 -1.6065  1.0074
86648SOL     OW71922   4.533   0.920  12.666  0.3467  0.0790  0.1501
86648SOL    HW171923   4.439   0.903  12.669  0.6748 -3.5765 -2.9682
86648SOL    HW271924   4.544   0.992  12.605 -0.4118  0.3994  0.3914
86649SOL     OW71925  11.948   0.127  10.247  0.4898 -0.3631  0.0128
86649SOL    HW171926  11.906   0.082  10.174  0.7510 -0.9023  0.1933
86649SOL    HW271927  11.875   0.166  10.296  0.3279  0.1541 -0.6303
86650SOL     OW71928   7.202  11.448  10.009 -0.1939 -0.5475  0.2449
86650SOL    HW171929   7.259  11.503   9.956  0.1727 -1.3618 -0.2285
86650SOL    HW271930   7.250  11.434  10.091  0.7551 -2.0181 -0.5220
86651SOL     OW71931   7.415   2.628   0.441 -0.5458  0.5361 -0.3372
86651SOL    HW171932   7.392   2.641   0.349  0.0537 -0.1176 -0.5835
86651SOL    HW271933   7.366   2.550   0.467  0.9840 -0.5926 -0.7342
86652SOL     OW71934   4.322  10.086  13.541  0.9975  0.1956  0.4046
86652SOL    HW171935   4.270  10.166  13.551  0.8943 -0.0880  2.6331
86652SOL    HW271936   4.390  10.110  13.479 -0.0570  1.4791 -0.3146
86653SOL     OW71937  11.902  11.882   0.027  0.3508 -0.8130  0.1188
86653SOL    HW171938  11.997  11.896   0.023  0.1572  0.2663 -1.5512
86653SOL    HW271939  11.874  11.882  -0.064 -1.5053  0.8881  0.6156
86654SOL     OW71940   1.958   0.818   3.440  0.1675 -0.2235 -0.3233
86654SOL    HW171941   2.053   0.820   3.426  0.0236 -1.1451 -1.6088
86654SOL    HW271942   1.935   0.725   3.441 -0.9818 -0.0290 -2.2424
86655SOL     OW71943   7.157   3.763   5.059  0.1086  0.2916  0.3737
86655SOL    HW171944   7.252   3.775   5.064  0.7812 -2.8197 -1.6172
86655SOL    HW271945   7.141   3.738   4.968 -2.6633  0.6678  0.6597
86656SOL     OW71946   3.654   6.532   1.942  0.3843 -0.1241  0.0423
86656SOL    HW171947   3.623   6.606   1.890  0.3084  0.1525  0.4716
86656SOL    HW271948   3.749   6.540   1.941  0.3708  0.0560  0.1969
86657SOL     OW71949  12.670   3.972   6.575 -0.1643  0.4725  0.5150
86657SOL    HW171950  12.697   4.032   6.506  1.6686  2.0145  2.4379
86657SOL    HW271951  12.672   3.886   6.535  0.7443  1.3230 -1.3684
86658SOL     OW71952  13.593   2.994   3.157  0.0293  0.5966  0.1298
86658SOL    HW171953  13.602   2.971   3.065 -1.7779  1.0936 -0.2068
86658SOL    HW271954  13.539   2.925   3.194 -0.7086  1.2985  0.3993
86659SOL     OW71955   9.537   2.526   7.171 -0.3418 -0.3076 -0.1636
86659SOL    HW171956   9.589   2.475   7.234 -2.4171 -1.5122  0.6638
86659SOL    HW271957   9.533   2.614   7.209 -1.4260 -0.9728  1.3751
86660SOL     OW71958   6.505  10.034  12.748  0.1788 -0.1027  0.6395
86660SOL    HW171959   6.593   9.996  12.757  1.5012  2.1867 -1.4245
86660SOL    HW271960   6.517  10.126  12.772 -1.0741  0.7993 -1.8436
86661SOL     OW71961  13.502   1.062   7.115 -0.4033  0.0762 -0.1043
86661SOL    HW171962  13.567   1.003   7.077  0.2359  1.8714 -2.0307
86661SOL    HW271963  13.418   1.019   7.100  0.1695 -1.2909  0.4692
86662SOL     OW71964   5.998  10.006  12.316  0.3713 -0.5535  0.5552
86662SOL    HW171965   5.911  10.038  12.293  0.0463 -0.1072  2.2077
86662SOL    HW271966   6.053  10.084  12.315  0.8028 -0.8648 -0.6552
86663SOL     OW71967  11.731  11.280  10.722  0.8516 -0.0288 -0.0398
86663SOL    HW171968  11.728  11.367  10.762  0.2632 -0.6837  1.4187
86663SOL    HW271969  11.666  11.283  10.652 -1.4505 -0.1705  1.9543
86664SOL     OW71970   6.136   1.841   4.505 -0.3243  0.1420 -0.2539
86664SOL    HW171971   6.221   1.803   4.483 -0.3401  0.1919 -0.4001
86664SOL    HW271972   6.075   1.767   4.501 -0.4482  0.2752 -1.0646
86665SOL     OW71973   1.565   0.626   5.554 -0.1675  0.2125 -0.2535
86665SOL    HW171974   1.605   0.540   5.566 -1.2360 -0.4588 -1.2350
86665SOL    HW271975   1.564   0.665   5.642 -1.1510 -1.4552  0.5142
86666SOL     OW71976   5.744  13.991   5.893 -0.3055 -0.8471 -0.2961
86666SOL    HW171977   5.718  13.981   5.985  0.5993 -0.3043  0.0267
86666SOL    HW271978   5.754  14.085   5.881 -0.5332 -0.9043 -0.9919
86667SOL     OW71979   1.367   8.418   8.722 -0.1027  0.1491 -0.1824
86667SOL    HW171980   1.417   8.474   8.781  0.2553 -0.3351 -0.0196
86667SOL    HW271981   1.336   8.477   8.653  2.9919  0.0673 -1.8182
86668SOL     OW71982   0.598   2.513   7.610  0.6977  0.2046  1.0690
86668SOL    HW171983   0.588   2.608   7.609  1.9796  0.3502 -0.0815
86668SOL    HW271984   0.508   2.479   7.617  0.2381  1.4823  1.5767
86669SOL     OW71985  13.933   3.885   5.222 -0.1703 -0.0766  1.0327
86669SOL    HW171986  14.011   3.924   5.260  0.1292  0.9883 -0.5463
86669SOL    HW271987  13.895   3.955   5.167 -0.1833 -1.6379 -1.0941
86670SOL     OW71988   7.281   9.358  12.703  0.0552  0.5001  0.0264
86670SOL    HW171989   7.231   9.421  12.755  1.2534  2.0609 -0.6626
86670SOL    HW271990   7.367   9.356  12.743 -0.8550 -3.6064  2.4163
86671SOL     OW71991   0.184   6.036  11.636  0.4216  0.2649 -0.2948
86671SOL    HW171992   0.262   6.077  11.600 -0.2128  1.5225 -0.3022
86671SOL    HW271993   0.166   6.086  11.716 -0.6751  0.3603 -0.5856
86672SOL     OW71994   1.137  11.352  12.376 -0.3920  0.1643  0.1946
86672SOL    HW171995   1.184  11.344  12.294  0.3477 -0.4949  0.6635
86672SOL    HW271996   1.064  11.292  12.368  0.9894 -1.7017  0.8777
86673SOL     OW71997  10.387   4.968  10.927 -0.3468  0.2693 -0.0066
86673SOL    HW171998  10.338   4.969  10.845 -3.0034 -1.0290  1.4466
86673SOL    HW271999  10.376   4.880  10.961  0.3337  0.8903  1.9517
86674SOL     OW72000   7.888  10.584   5.589  0.3394 -0.7488 -0.3561
86674SOL    HW172001   7.806  10.570   5.542 -0.2748  1.5785 -0.0780
86674SOL    HW272002   7.862  10.619   5.674  1.5566 -2.1967  0.6593
86675SOL     OW72003   6.412   2.806   8.816  0.1824  0.1394 -0.2081
86675SOL    HW172004   6.489   2.755   8.843  0.3015 -0.0146 -0.8082
86675SOL    HW272005   6.362   2.745   8.761 -0.0167  0.4529 -0.3753
86676SOL     OW72006  11.997   4.612  10.113 -0.2438 -0.1266  0.1685
86676SOL    HW172007  11.984   4.590  10.206 -1.0480 -0.8062 -0.0845
86676SOL    HW272008  11.957   4.539  10.066  1.4261 -0.5240 -0.7259
86677SOL     OW72009   4.133   1.223   1.816 -0.0065 -0.7355 -1.0864
86677SOL    HW172010   4.117   1.300   1.871  0.6838 -1.4547  0.1480
86677SOL    HW272011   4.057   1.220   1.757 -2.6558 -1.8766  2.0664
86678SOL     OW72012   5.644   9.216   0.227  0.0938 -0.2548  0.5405
86678SOL    HW172013   5.637   9.162   0.305 -0.1669 -0.9034  0.0821
86678SOL    HW272014   5.735   9.245   0.225  0.4063 -1.1991  0.4703
86679SOL     OW72015   1.722   6.102   2.783 -0.4983 -0.2963 -0.2142
86679SOL    HW172016   1.773   6.030   2.747  0.3106  0.5708 -0.8327
86679SOL    HW272017   1.741   6.177   2.727  0.3347  0.9528  1.6255
86680SOL     OW72018   4.559   2.542  12.996 -0.2371  0.0749  0.3553
86680SOL    HW172019   4.574   2.463  13.047  0.5055 -0.7223 -1.0242
86680SOL    HW272020   4.493   2.590  13.045  1.0951 -0.1799  2.5037
86681SOL     OW72021   7.278   1.548   7.741  0.3098  0.8540 -0.0847
86681SOL    HW172022   7.299   1.616   7.806 -0.5590 -1.0964  2.4023
86681SOL    HW272023   7.346   1.557   7.674  2.3635  1.8403  1.9879
86682SOL     OW72024   6.750   4.971  12.115  0.3051 -0.0372  0.1510
86682SOL    HW172025   6.705   4.890  12.140 -0.7752  0.3571 -0.4711
86682SOL    HW272026   6.782   5.007  12.198  1.8588 -1.6895  0.3205
86683SOL     OW72027   3.043  13.100  10.790 -0.4167 -0.2066 -0.3558
86683SOL    HW172028   2.984  13.062  10.855 -0.6721  1.6505  0.5455
86683SOL    HW272029   2.986  13.145  10.728 -0.0289  1.1567  0.2332
86684SOL     OW72030   9.683  13.129  13.795  0.1034 -0.4465  0.0407
86684SOL    HW172031   9.703  13.207  13.847  1.1112 -0.3719 -0.4100
86684SOL    HW272032   9.670  13.059  13.859  0.2064 -0.1201  0.4244
86685SOL     OW72033   7.054  10.498  10.188  0.2273  0.2850 -0.1981
86685SOL    HW172034   7.136  10.546  10.201  0.2837  0.0398  0.3774
86685SOL    HW272035   7.075  10.408  10.213 -0.0042  0.0527 -0.8305
86686SOL     OW72036   6.654   0.616   1.905 -0.5885  0.3041 -0.1472
86686SOL    HW172037   6.624   0.539   1.857 -1.2707  0.5897 -0.1889
86686SOL    HW272038   6.658   0.685   1.839  1.0891  0.0603 -0.3450
86687SOL     OW72039   7.235   1.378   5.131  0.0251  0.4101  0.0187
86687SOL    HW172040   7.296   1.338   5.070 -0.4010  0.0523 -0.1733
86687SOL    HW272041   7.271   1.466   5.146  0.8004  0.0625  0.2220
86688SOL     OW72042  11.070   0.459   0.746  0.1711 -0.1660  0.3060
86688SOL    HW172043  11.046   0.527   0.809 -0.5602  0.2461 -0.3939
86688SOL    HW272044  11.070   0.378   0.796 -3.9572 -0.4191  0.1898
86689SOL     OW72045   1.180  13.926   5.934 -0.3845  0.1836  0.2100
86689SOL    HW172046   1.130  13.954   5.857  2.5632  1.3700 -1.4399
86689SOL    HW272047   1.134  13.965   6.008 -1.6052  1.5998 -1.2193
86690SOL     OW72048   1.108   4.551   9.763  0.3636 -0.1778  0.9469
86690SOL    HW172049   1.156   4.493   9.821 -0.6221  0.3364  2.3317
86690SOL    HW272050   1.018   4.548   9.794  0.0315  1.0447  0.2109
86691SOL     OW72051  13.796   8.816   3.088 -0.3087 -0.3011 -0.3639
86691SOL    HW172052  13.792   8.755   3.015 -1.1661 -0.7557  0.0477
86691SOL    HW272053  13.806   8.760   3.166 -2.9314 -0.0971  0.2136
86692SOL     OW72054   0.006   2.646   0.073  0.2045 -0.6141  0.2293
86692SOL    HW172055  -0.023   2.734   0.096  2.4032  0.1155  0.5063
86692SOL    HW272056  -0.064   2.611   0.018 -1.3533  0.7608  1.2196
86693SOL     OW72057   6.203  11.290   0.863 -0.1238 -0.4533  0.2635
86693SOL    HW172058   6.202  11.319   0.772  0.1691 -2.4081 -0.4212
86693SOL    HW272059   6.181  11.197   0.858  0.8252 -0.8165  2.1199
86694SOL     OW72060   4.845   1.921   2.636 -0.1760  0.1162  0.1645
86694SOL    HW172061   4.905   1.992   2.659  0.6178 -0.3214 -0.4772
86694SOL    HW272062   4.869   1.849   2.695  1.0799 -0.6126 -1.1587
86695SOL     OW72063   1.822   0.776   9.703  0.4138  0.2793  0.0688
86695SOL    HW172064   1.810   0.858   9.655 -1.7880 -0.4887 -0.8428
86695SOL    HW272065   1.831   0.710   9.634 -1.5397 -0.6779  0.6459
86696SOL     OW72066   8.950   0.680   8.816 -0.7208  0.0342 -0.1104
86696SOL    HW172067   8.868   0.683   8.768 -0.6790  0.6749 -0.1586
86696SOL    HW272068   8.927   0.645   8.902 -0.9588 -0.2303 -0.2805
86697SOL     OW72069  13.932   5.383   3.387 -0.5111  0.1092  0.3880
86697SOL    HW172070  13.901   5.328   3.459 -1.2327 -0.0268 -0.0104
86697SOL    HW272071  13.952   5.322   3.316 -0.5042  0.2895  0.2314
86698SOL     OW72072   5.217  10.519   8.159 -0.9283 -0.1114 -0.3552
86698SOL    HW172073   5.269  10.447   8.122  2.0986 -0.0062  3.0697
86698SOL    HW272074   5.278  10.593   8.163 -3.6616  2.5691 -2.8717
86699SOL     OW72075   7.933   8.983   8.098  0.8784  0.0248  0.0911
86699SOL    HW172076   7.857   8.993   8.040  1.3904  0.0394 -0.5929
86699SOL    HW272077   7.906   8.916   8.161  0.0321  0.5550  0.3125
86700SOL     OW72078   5.670   9.032   9.803  0.1174 -0.4265 -0.4256
86700SOL    HW172079   5.689   9.060   9.893 -0.5894  2.4504 -1.0711
86700SOL    HW272080   5.575   9.019   9.802  0.2570 -1.4718 -0.5188
86701SOL     OW72081   8.452  11.792   9.995  0.0603  0.8726  0.2334
86701SOL    HW172082   8.544  11.772  10.014  0.1556  1.2640  0.2005
86701SOL    HW272083   8.412  11.707   9.977  0.6900  0.8022 -0.9450
86702SOL     OW72084  13.710   7.705   9.048 -0.0177  0.2930 -0.1022
86702SOL    HW172085  13.771   7.649   9.097  0.9124  0.5005 -0.9850
86702SOL    HW272086  13.629   7.703   9.099  0.4154 -0.7910  0.5764
86703SOL     OW72087  10.357  12.463   0.545 -0.3729 -0.0193  0.1689
86703SOL    HW172088  10.356  12.559   0.543  0.5249  0.0172 -2.1140
86703SOL    HW272089  10.314  12.437   0.463 -0.4524 -1.5734  0.6721
86704SOL     OW72090  12.854   2.372   4.638 -0.0307  0.1781  0.1589
86704SOL    HW172091  12.839   2.401   4.728  0.4948  0.9478 -0.0007
86704SOL    HW272092  12.917   2.301   4.646 -1.3140 -0.9729  0.5473
86705SOL     OW72093  13.717  11.401   4.096 -0.6482 -0.0419  0.3329
86705SOL    HW172094  13.700  11.488   4.134  0.8214  0.4302  0.0073
86705SOL    HW272095  13.802  11.411   4.054  0.2945 -2.0863  1.6269
86706SOL     OW72096   6.186   9.909   4.136 -0.2031 -0.0673  0.2116
86706SOL    HW172097   6.099   9.930   4.102  0.6174  3.1486 -0.2760
86706SOL    HW272098   6.224   9.852   4.070 -0.8488  1.1012 -1.2293
86707SOL     OW72099  12.778   7.310   1.126 -0.1791 -0.2436  0.1596
86707SOL    HW172100  12.762   7.356   1.209  2.5059 -0.9035  1.1843
86707SOL    HW272101  12.707   7.246   1.119 -1.8108  1.4488  0.6717
86708SOL     OW72102   3.796   7.007   0.442  0.2422 -0.4466  0.4694
86708SOL    HW172103   3.759   6.941   0.383  1.3641 -2.0496  1.4615
86708SOL    HW272104   3.840   7.070   0.384 -0.3252 -0.9119 -0.4786
86709SOL     OW72105   5.388   9.425   2.639  0.1686 -0.0196 -0.0574
86709SOL    HW172106   5.470   9.460   2.674 -0.0955  0.3456  0.2035
86709SOL    HW272107   5.326   9.498   2.644 -0.5612 -0.6744  1.0872
86710SOL     OW72108   9.386   3.898  10.490  0.1008 -0.0669  0.3944
86710SOL    HW172109   9.337   3.980  10.488 -0.1465 -0.2174  0.2584
86710SOL    HW272110   9.331   3.836  10.442  0.8961  0.0266 -0.6812
86711SOL     OW72111   3.132  12.967   0.620  0.2728  0.4972  0.4847
86711SOL    HW172112   3.221  12.970   0.585  0.4396 -0.9151  0.7283
86711SOL    HW272113   3.111  12.874   0.622 -0.7358  0.7357  1.6136
86712SOL     OW72114   6.236   8.794   7.415  0.2416 -0.4967 -0.3293
86712SOL    HW172115   6.225   8.842   7.333 -1.2844  0.2641  0.2679
86712SOL    HW272116   6.155   8.742   7.423  0.8374 -1.3701  0.1770
86713SOL     OW72117   9.791  12.202   1.597 -0.0063  0.2763 -0.1529
86713SOL    HW172118   9.733  12.213   1.522 -2.3643  1.8623  1.7275
86713SOL    HW272119   9.803  12.291   1.631  2.2730 -0.2102  0.4938
86714SOL     OW72120   2.021   6.827   3.543 -0.7439  0.6250 -0.5753
86714SOL    HW172121   2.031   6.837   3.449 -0.8770  0.5417 -0.5993
86714SOL    HW272122   1.930   6.851   3.560 -0.7376  0.5788 -0.4765
86715SOL     OW72123   9.635   5.196   7.122 -0.9348 -0.5017  0.2952
86715SOL    HW172124   9.549   5.237   7.118 -0.1172  1.2892  0.1193
86715SOL    HW272125   9.663   5.191   7.031 -0.2773  0.2498  0.4449
86716SOL     OW72126   4.056   7.351  13.343 -0.0658 -0.1113 -0.3667
86716SOL    HW172127   4.144   7.338  13.381  0.3152  0.2917 -1.0910
86716SOL    HW272128   4.063   7.314  13.255 -0.6633 -0.1751 -0.3885
86717SOL     OW72129   6.677   1.935   0.358 -0.3209 -0.4708  0.6868
86717SOL    HW172130   6.664   2.011   0.302  1.9872  1.0313  2.0013
86717SOL    HW272131   6.635   1.959   0.441 -0.1733 -0.9111  0.8929
86718SOL     OW72132  13.737  10.498  13.710  0.4024 -0.2039 -0.6192
86718SOL    HW172133  13.744  10.404  13.722 -0.7734 -0.1046  1.0990
86718SOL    HW272134  13.650  10.512  13.674 -0.5572  0.3960  1.7867
86719SOL     OW72135   3.364  10.322   7.562 -0.8516 -0.0079  0.5580
86719SOL    HW172136   3.379  10.366   7.645 -0.2188 -0.8404  0.8980
86719SOL    HW272137   3.419  10.370   7.499  0.1994 -0.5784  1.0186
86720SOL     OW72138   1.761   9.180   9.707 -0.7356 -0.0539 -0.4136
86720SOL    HW172139   1.673   9.191   9.742 -1.0940 -0.2440 -1.2490
86720SOL    HW272140   1.778   9.261   9.659  0.1661  0.6704  1.0192
86721SOL     OW72141   5.837   5.765   5.942  0.0045 -0.7529  0.2728
86721SOL    HW172142   5.917   5.797   5.900 -0.1288  0.4638  0.8836
86721SOL    HW272143   5.847   5.789   6.034 -2.2949  2.2178 -0.0755
86722SOL     OW72144  12.326   1.202   8.961  0.8147  0.2733 -0.5110
86722SOL    HW172145  12.373   1.221   9.042 -0.3005  0.3438  0.1481
86722SOL    HW272146  12.350   1.111   8.941  0.4741 -0.0232  0.3616
86723SOL     OW72147  13.310   5.819   1.946 -0.2731 -0.4472  0.4064
86723SOL    HW172148  13.338   5.860   1.864 -2.9700 -0.8619 -0.8261
86723SOL    HW272149  13.295   5.892   2.006  2.8160 -0.1883  1.0311
86724SOL     OW72150   9.586   7.969   7.562  0.4772  0.3531  0.0522
86724SOL    HW172151   9.656   8.016   7.608  0.1055 -0.2592  1.3135
86724SOL    HW272152   9.589   8.002   7.473  1.4086  1.4223  0.4505
86725SOL     OW72153   4.802   0.409   9.877 -0.1409 -0.3705  0.1876
86725SOL    HW172154   4.885   0.363   9.889  0.4975  0.4709 -0.8775
86725SOL    HW272155   4.759   0.363   9.805  1.5488  2.0087 -2.5225
86726SOL     OW72156  12.453   8.942  12.502  0.0655  0.2139  0.0928
86726SOL    HW172157  12.544   8.952  12.475  0.0984 -1.6074 -0.5815
86726SOL    HW272158  12.404   8.942  12.420 -0.0627 -3.1539  0.0518
86727SOL     OW72159   4.722   0.164   4.105 -0.1255 -0.5992  0.1300
86727SOL    HW172160   4.749   0.098   4.042 -0.0268 -0.9405  0.5218
86727SOL    HW272161   4.790   0.162   4.173 -0.8973 -1.1623  0.9073
86728SOL     OW72162   9.011  10.962   7.435  0.1781 -0.3043 -0.4454
86728SOL    HW172163   9.057  10.892   7.481  0.9255 -0.7670 -1.8409
86728SOL    HW272164   9.067  11.038   7.445  0.5622 -0.5146 -0.9355
86729SOL     OW72165  13.795   1.379   3.184  0.2988  0.5206  0.1519
86729SOL    HW172166  13.756   1.443   3.124  0.1126 -0.7275 -1.1078
86729SOL    HW272167  13.843   1.319   3.127 -2.1055 -2.3375  0.8698
86730SOL     OW72168   3.090   6.955   8.518  0.2133 -0.1841  0.4654
86730SOL    HW172169   3.053   6.883   8.467  1.7916  0.0953 -1.1669
86730SOL    HW272170   3.183   6.933   8.526  1.0142  2.2276 -1.1705
86731SOL     OW72171   3.694   3.635   3.184  0.1944  0.2014  0.5147
86731SOL    HW172172   3.630   3.691   3.141  0.1422  0.3822  0.8284
86731SOL    HW272173   3.744   3.694   3.240 -0.3101 -0.1823  1.3728
86732SOL     OW72174   6.636   9.346  10.763 -0.2453  0.2595 -0.2243
86732SOL    HW172175   6.652   9.436  10.790 -1.0773  0.4796 -0.4363
86732SOL    HW272176   6.711   9.297  10.796  0.3645  1.0800 -0.3733
86733SOL     OW72177   3.854   5.789   0.592 -0.7055 -0.1422  0.1415
86733SOL    HW172178   3.826   5.867   0.640  0.7254 -0.2324  1.1999
86733SOL    HW272179   3.800   5.718   0.628 -0.7998  0.0692  0.4193
86734SOL     OW72180   1.363   0.694   6.904 -0.1131  0.4093  0.5400
86734SOL    HW172181   1.412   0.632   6.850  2.5665  1.9445  1.0229
86734SOL    HW272182   1.282   0.648   6.927  1.5367 -2.7350  0.5468
86735SOL     OW72183   5.309  10.831  10.535 -0.3302  0.1477 -0.3395
86735SOL    HW172184   5.288  10.906  10.480 -2.7022 -0.9709 -1.1071
86735SOL    HW272185   5.237  10.827  10.599 -0.1965 -1.3800 -0.2455
86736SOL     OW72186   9.146  13.740   7.121 -0.4574  0.3366 -0.2343
86736SOL    HW172187   9.216  13.753   7.184 -0.9916  0.1296  0.4160
86736SOL    HW272188   9.166  13.799   7.049  0.2370  0.4689  0.0664
86737SOL     OW72189  11.320   7.241  13.779  0.0647 -0.1201 -0.1667
86737SOL    HW172190  11.279   7.155  13.788 -0.1253  0.0357  0.5288
86737SOL    HW272191  11.411   7.228  13.804  0.0934 -0.1680 -0.2953
86738SOL     OW72192   3.026  13.452   7.098 -0.1246 -0.2513 -0.0650
86738SOL    HW172193   2.958  13.386   7.084 -0.5919  0.1668  0.1736
86738SOL    HW272194   3.007  13.521   7.034  0.9402 -0.7743 -0.9803
86739SOL     OW72195  11.201   8.752   8.654  0.1588  0.0321  0.0863
86739SOL    HW172196  11.117   8.775   8.613 -0.4318 -0.1202  1.1499
86739SOL    HW272197  11.261   8.820   8.625  0.0634 -0.6448 -1.8688
86740SOL     OW72198  12.500   9.757  10.280 -0.3566  0.5918  0.1127
86740SOL    HW172199  12.458   9.762  10.366  0.6246 -1.2880  0.7442
86740SOL    HW272200  12.468   9.675  10.242  0.1801  0.7846 -0.7973
86741SOL     OW72201   0.384  11.632  10.469  0.1581 -0.1170  0.2096
86741SOL    HW172202   0.314  11.612  10.531  0.1218  0.6030  0.4154
86741SOL    HW272203   0.451  11.676  10.521 -0.1210  1.0035 -0.3421
86742SOL     OW72204  13.634  11.857  13.980  0.7262  0.2984  0.0521
86742SOL    HW172205  13.670  11.769  13.971  1.0750  0.4162  0.2654
86742SOL    HW272206  13.701  11.906  14.028 -0.0946  0.2835  1.2691
86743SOL     OW72207   1.116   3.781   4.579  0.1487  0.2869  0.2448
86743SOL    HW172208   1.192   3.838   4.595  0.6510 -0.4393  0.4914
86743SOL    HW272209   1.120   3.716   4.649 -0.5346  0.0555  0.0781
86744SOL     OW72210   6.081   8.703   3.465  0.0422  0.8497  0.0941
86744SOL    HW172211   6.066   8.764   3.393 -0.1260  1.3537  0.5491
86744SOL    HW272212   6.113   8.757   3.536  1.1953  0.2086  0.0908
86745SOL     OW72213   7.305   2.634  13.021  0.2912  0.2360  0.0663
86745SOL    HW172214   7.267   2.562  13.071 -0.2096  1.1079  0.9752
86745SOL    HW272215   7.264   2.713  13.057  1.3343  1.0325 -0.4412
86746SOL     OW72216   4.788  11.690   2.478 -0.6721 -0.0655  0.4625
86746SOL    HW172217   4.868  11.711   2.428 -1.2210  0.7378 -0.1062
86746SOL    HW272218   4.729  11.653   2.412 -1.2433  0.5872  0.5996
86747SOL     OW72219   7.037  13.353   3.483 -0.0139  0.1156 -0.0630
86747SOL    HW172220   7.035  13.441   3.446 -0.4626  0.4456  0.7160
86747SOL    HW272221   7.119  13.315   3.451  1.1001  1.4838  1.0537
86748SOL     OW72222  11.353   8.544   1.364 -0.2311 -0.0889  0.2481
86748SOL    HW172223  11.295   8.476   1.329 -0.0267  0.6520 -1.6611
86748SOL    HW272224  11.399   8.501   1.436 -2.0249 -1.1431  0.8216
86749SOL     OW72225  12.314   4.818   8.912 -0.3156 -0.5244  0.1908
86749SOL    HW172226  12.257   4.742   8.920 -1.0894  0.1282  1.0587
86749SOL    HW272227  12.355   4.827   8.998  0.2573 -0.3325 -0.0951
86750SOL     OW72228   2.022   6.091   4.686  0.1486  0.3751  0.1593
86750SOL    HW172229   1.935   6.064   4.657  1.6485 -2.9517 -1.8448
86750SOL    HW272230   2.043   6.167   4.632 -0.6060 -0.2570 -1.0635
86751SOL     OW72231   1.983   1.911   8.777  0.4372  0.2630 -0.7336
86751SOL    HW172232   1.937   1.854   8.839  1.1787 -1.3917 -1.6364
86751SOL    HW272233   1.994   1.857   8.698  2.2215  1.2336 -1.2170
86752SOL     OW72234   7.301   3.942   7.048  0.5459  0.1600  0.2173
86752SOL    HW172235   7.289   3.880   7.120  0.4323  0.8046  0.7724
86752SOL    HW272236   7.244   3.910   6.979  0.8903 -0.6459  0.2929
86753SOL     OW72237   9.835   3.151   4.938  0.3194 -0.2971  0.1332
86753SOL    HW172238   9.908   3.213   4.940  0.0299  0.0889 -0.6697
86753SOL    HW272239   9.801   3.158   4.849 -1.0551 -0.0554  0.6515
86754SOL     OW72240   1.044   2.912   6.468  0.5511  0.4769  0.5682
86754SOL    HW172241   1.088   2.993   6.442  0.4117 -0.1138 -1.6884
86754SOL    HW272242   0.962   2.912   6.419  0.3522 -0.8368  0.8524
86755SOL     OW72243   2.837   3.393  10.374  0.3441 -0.3320 -0.4340
86755SOL    HW172244   2.878   3.452  10.310 -0.8894 -0.3948 -1.3154
86755SOL    HW272245   2.793   3.452  10.436  0.9546 -0.2910 -0.0268
86756SOL     OW72246   5.508   4.368   7.954 -0.7451  0.3084  0.2670
86756SOL    HW172247   5.460   4.363   7.871  0.8676 -0.3920 -0.6634
86756SOL    HW272248   5.595   4.399   7.929 -0.3708  0.5320  1.7730
86757SOL     OW72249  11.328   4.681  12.376  0.9852  0.1592 -0.0134
86757SOL    HW172250  11.324   4.586  12.364 -0.1257 -0.1773  2.4143
86757SOL    HW272251  11.334   4.717  12.288 -0.8461 -2.0738 -1.1267
86758SOL     OW72252  12.832  13.786  13.381 -0.1892  0.0579  0.2413
86758SOL    HW172253  12.763  13.751  13.437 -0.2885 -1.6064 -0.8448
86758SOL    HW272254  12.870  13.858  13.431 -2.4355  0.7657  1.0443
86759SOL     OW72255   5.241   0.905   6.359  0.3708  0.1158  0.1504
86759SOL    HW172256   5.332   0.883   6.339  0.8078  1.3069  0.7481
86759SOL    HW272257   5.232   0.997   6.333 -0.3206  0.3569  1.2016
86760SOL     OW72258   5.032  13.786   7.169  0.0120 -0.0383 -0.2572
86760SOL    HW172259   5.100  13.812   7.232 -0.0108 -1.9759  0.6137
86760SOL    HW272260   4.981  13.719   7.214 -0.6795 -0.7206 -1.9723
86761SOL     OW72261   8.424  12.893  12.378 -0.0226 -0.4752 -0.1917
86761SOL    HW172262   8.464  12.807  12.364  1.6705  0.1037  0.8291
86761SOL    HW272263   8.399  12.893  12.470  0.7003  0.4005  0.0140
86762SOL     OW72264  11.786   6.845  13.163  0.7394 -0.1096 -0.1242
86762SOL    HW172265  11.792   6.907  13.235  1.1271 -2.3673  1.9453
86762SOL    HW272266  11.862   6.788  13.174  0.0927 -1.3220 -1.5388
86763SOL     OW72267   1.067   8.154   6.676 -0.0264 -0.1395  0.4890
86763SOL    HW172268   1.027   8.229   6.632  0.7112  0.3454  0.6355
86763SOL    HW272269   0.993   8.098   6.699 -0.5396  0.2548 -0.1436
86764SOL     OW72270  10.460   4.779   7.537  0.2609 -0.1738  0.2320
86764SOL    HW172271  10.416   4.699   7.566  0.3142 -0.3014 -0.0407
86764SOL    HW272272  10.469   4.769   7.442  1.8013 -0.6140  0.3909
86765SOL     OW72273   4.341   7.728  13.846 -0.3804  0.0126 -0.6041
86765SOL    HW172274   4.384   7.663  13.791 -1.1165  0.6089 -1.9187
86765SOL    HW272275   4.402   7.802  13.849  0.5602 -0.7844  1.0801
86766SOL     OW72276   9.699  10.114   9.127 -0.3439 -0.7988  0.2702
86766SOL    HW172277   9.716  10.076   9.213  1.2159 -0.7590  0.0071
86766SOL    HW272278   9.751  10.060   9.067 -1.2159 -0.6728 -0.6203
86767SOL     OW72279   3.882   0.469   2.928  0.1129  0.4487  0.2279
86767SOL    HW172280   3.801   0.493   2.883  0.1245  0.9569  0.4782
86767SOL    HW272281   3.944   0.451   2.857 -0.1400  0.3196  0.0385
86768SOL     OW72282   0.188  12.572   4.564  0.0437 -0.4802  0.3169
86768SOL    HW172283   0.256  12.554   4.629  0.9500  0.7216 -0.2469
86768SOL    HW272284   0.125  12.501   4.574  0.3836 -0.5619  2.1899
86769SOL     OW72285   5.072   7.674   9.325  0.1063  0.9099 -0.7034
86769SOL    HW172286   5.013   7.642   9.257 -0.1884  0.2604 -0.1610
86769SOL    HW272287   5.104   7.594   9.368  3.1223  1.0950 -2.3748
86770SOL     OW72288   1.832   9.400   2.973  0.3807  0.5139  0.3416
86770SOL    HW172289   1.864   9.352   3.049  0.8557  0.1152 -0.1034
86770SOL    HW272290   1.829   9.491   3.002 -1.5778  0.1124  1.5416
86771SOL     OW72291  10.944  13.115  10.220  0.1674 -0.4141  0.3141
86771SOL    HW172292  11.038  13.110  10.240  0.0348 -0.5428  0.9194
86771SOL    HW272293  10.916  13.024  10.212  0.2304 -0.3673 -0.5567
86772SOL     OW72294  12.613  13.964   3.704  0.2800 -0.2622 -0.2990
86772SOL    HW172295  12.670  13.941   3.777  0.1965 -0.2518 -0.2317
86772SOL    HW272296  12.592  13.880   3.663  1.3881 -0.1704 -1.1034
86773SOL     OW72297   6.156   4.008  11.149  0.3826 -0.0879 -0.1080
86773SOL    HW172298   6.144   3.981  11.058 -1.8329 -2.3402  0.7475
86773SOL    HW272299   6.212   3.941  11.187 -0.0505 -0.0591  0.5879
86774SOL     OW72300   8.785  10.784   4.667 -0.1452  0.7387  0.5531
86774SOL    HW172301   8.719  10.840   4.629 -0.1970 -0.6407 -1.5345
86774SOL    HW272302   8.842  10.844   4.716 -2.7486  1.9854  2.3140
86775SOL     OW72303   6.486   1.312  13.530  0.2585 -0.0221 -0.2771
86775SOL    HW172304   6.506   1.341  13.619 -0.1441  2.5731 -0.9587
86775SOL    HW272305   6.570   1.315  13.485  0.1625  0.4447 -0.4309
86776SOL     OW72306   2.495   8.331   5.789 -0.1887 -0.7883 -1.0253
86776SOL    HW172307   2.420   8.304   5.736 -0.4261  1.2979 -1.8613
86776SOL    HW272308   2.504   8.425   5.771  2.4327 -0.9204 -0.6972
86777SOL     OW72309   3.521  13.965   1.089  0.1055  0.4938  0.0884
86777SOL    HW172310   3.502  13.944   0.997 -0.2819  0.7463  0.1078
86777SOL    HW272311   3.522  13.881   1.134  1.4953  0.2445 -0.3588
86778SOL     OW72312   3.233  13.925  10.175  0.3549  0.7796 -0.3606
86778SOL    HW172313   3.263  14.015  10.157  0.5160  1.3392  2.2678
86778SOL    HW272314   3.161  13.936  10.238  1.0932 -0.9662  0.8563
86779SOL     OW72315   3.384   0.196   8.254  0.6409 -0.0462 -0.3264
86779SOL    HW172316   3.301   0.208   8.208  0.0505  0.9574  0.9497
86779SOL    HW272317   3.390   0.101   8.268 -1.8759  0.0238  2.2818
86780SOL     OW72318  10.033   1.745  10.775 -0.3509 -0.3824  0.4028
86780SOL    HW172319  10.083   1.790  10.707 -0.7443 -1.1514 -0.4182
86780SOL    HW272320   9.976   1.685  10.727 -1.8622  0.2583  1.3254
86781SOL     OW72321   5.946   9.361   5.710  0.7339  0.1207  0.0187
86781SOL    HW172322   6.012   9.366   5.640  0.5827 -0.5987 -0.1859
86781SOL    HW272323   5.863   9.373   5.665  0.6686  0.1559  0.1481
86782SOL     OW72324  13.278   1.296   9.687  0.0321 -0.1825 -0.0340
86782SOL    HW172325  13.264   1.262   9.599  0.3537 -0.3620 -0.0218
86782SOL    HW272326  13.228   1.237   9.744 -1.6217  0.9687 -0.2294
86783SOL     OW72327   6.961   7.435   8.621 -0.0243 -0.2056  0.2152
86783SOL    HW172328   6.961   7.360   8.681  0.4395 -0.5936 -0.2699
86783SOL    HW272329   7.052   7.443   8.592 -0.4285 -0.6619 -1.2365
86784SOL     OW72330  12.784  10.344  12.185  0.0837  0.1505  0.1722
86784SOL    HW172331  12.707  10.297  12.154 -1.0777  2.3234 -0.4231
86784SOL    HW272332  12.813  10.294  12.262 -2.8385  0.0582  1.3471
86785SOL     OW72333  12.884  10.205  11.748  0.6480  0.0924  0.2474
86785SOL    HW172334  12.960  10.158  11.782  0.0145 -1.7233 -0.7594
86785SOL    HW272335  12.809  10.152  11.775 -0.0023 -0.2815 -2.0852
86786SOL     OW72336  10.031   9.671   9.736 -0.0221  0.6612 -0.7165
86786SOL    HW172337  10.106   9.658   9.795 -0.7915 -1.2216 -0.0909
86786SOL    HW272338   9.968   9.721   9.788 -0.2806 -0.1028 -0.2806
86787SOL     OW72339   1.084   2.883   1.505  0.4940 -0.1642  0.3731
86787SOL    HW172340   1.041   2.846   1.428 -1.5625 -0.3937  1.5632
86787SOL    HW272341   1.129   2.961   1.472 -0.1356 -0.3960 -1.0983
86788SOL     OW72342  12.605  13.574  10.532  0.2762  0.5844  0.0310
86788SOL    HW172343  12.588  13.582  10.626  1.1895  0.8789  0.1806
86788SOL    HW272344  12.644  13.657  10.507  2.1347 -0.2791 -0.1239
86789SOL     OW72345   7.627   1.403  13.441  0.5997 -0.4785 -0.4442
86789SOL    HW172346   7.619   1.403  13.346 -0.0872  0.3981 -0.4030
86789SOL    HW272347   7.637   1.311  13.464 -0.8370 -0.8733 -1.2489
86790SOL     OW72348  13.099   7.053  10.690 -0.5869 -0.4133  0.0567
86790SOL    HW172349  13.080   6.975  10.743  2.4871 -1.7977 -0.6587
86790SOL    HW272350  13.130   7.018  10.606 -1.5392  1.6699 -1.2379
86791SOL     OW72351  13.988   7.742  11.604  0.4556 -0.1365 -0.1565
86791SOL    HW172352  14.013   7.651  11.620 -0.3672 -0.1526  1.2067
86791SOL    HW272353  14.002   7.786  11.688 -0.4810  0.6728 -0.3994
86792SOL     OW72354   7.615   9.951   1.353 -0.0624 -0.9324 -0.2623
86792SOL    HW172355   7.521   9.953   1.335 -0.2181 -1.2052  0.4729
86792SOL    HW272356   7.641  10.043   1.359 -0.3027 -0.8590 -0.3732
86793SOL     OW72357   8.956   4.213   6.364 -0.3420  0.5620 -0.4329
86793SOL    HW172358   9.049   4.222   6.387 -0.3441 -1.5518  0.6059
86793SOL    HW272359   8.910   4.262   6.432 -0.0850 -0.8291  0.7717
86794SOL     OW72360   7.413  12.287   7.336 -0.1986  0.0490  0.7019
86794SOL    HW172361   7.334  12.341   7.327  0.5796  1.2662  0.9690
86794SOL    HW272362   7.467  12.313   7.262 -0.8744 -2.3006 -0.7229
86795SOL     OW72363   0.237   8.018  12.460  0.0726 -0.2148  0.9422
86795SOL    HW172364   0.205   8.053  12.377  1.0421  0.3305  0.7823
86795SOL    HW272365   0.300   8.084  12.491  0.6190 -0.9845  1.5064
86796SOL     OW72366  11.422   6.278  13.693 -0.5128 -0.2953 -0.0159
86796SOL    HW172367  11.510   6.308  13.717 -0.5675  0.4201 -0.6303
86796SOL    HW272368  11.425   6.269  13.597 -0.5711 -2.1081  0.1188
86797SOL     OW72369   7.611   9.523   8.291 -0.1647 -0.5142 -0.1785
86797SOL    HW172370   7.681   9.488   8.346 -2.3766  1.1169  4.1794
86797SOL    HW272371   7.633   9.616   8.281  0.3233 -0.8154 -2.5190
86798SOL     OW72372  11.041   8.017   0.833 -0.5146  0.0106  0.1103
86798SOL    HW172373  11.072   7.979   0.751  0.1966 -0.2906  0.5014
86798SOL    HW272374  11.116   8.067   0.866 -0.9271  0.4615  0.3696
86799SOL     OW72375   1.720   8.084  10.087 -0.0680 -0.2382 -0.4703
86799SOL    HW172376   1.642   8.035  10.062  0.2707 -1.3335  0.5387
86799SOL    HW272377   1.714   8.166  10.038 -1.4533 -0.6270 -0.9841
86800SOL     OW72378  11.691   6.525   8.979  0.2497  0.5324 -0.1919
86800SOL    HW172379  11.658   6.518   8.890 -1.2696  1.7344  0.2472
86800SOL    HW272380  11.703   6.619   8.993  1.4189  0.2882  0.5479
86801SOL     OW72381   3.999   6.219   2.912  0.0120 -0.5143  0.1814
86801SOL    HW172382   4.066   6.199   2.977  0.4774  2.6276  0.8024
86801SOL    HW272383   3.916   6.209   2.960  0.3119  0.8360  1.0347
86802SOL     OW72384   1.822   9.388   4.112 -0.3820  0.3231 -0.7899
86802SOL    HW172385   1.766   9.395   4.035 -0.3063  1.9240 -0.7232
86802SOL    HW272386   1.762   9.401   4.186 -0.0037  1.6794 -0.7050
86803SOL     OW72387   7.261   2.464   6.420  0.9414 -0.4904  0.8217
86803SOL    HW172388   7.298   2.466   6.332  0.0136 -1.0143  0.4058
86803SOL    HW272389   7.199   2.391   6.419  2.1059 -1.5763  2.4052
86804SOL     OW72390   6.328   6.108   4.732  0.5836  0.5497  0.1296
86804SOL    HW172391   6.250   6.162   4.732 -0.3960 -0.8002  1.1252
86804SOL    HW272392   6.302   6.028   4.686  1.4378  0.1704  0.2817
86805SOL     OW72393   0.149   7.266  12.331  0.1646 -0.3353 -0.7721
86805SOL    HW172394   0.119   7.348  12.291  0.5885  0.3495  0.2799
86805SOL    HW272395   0.214   7.293  12.395 -0.3743 -1.4095  0.2721
86806SOL     OW72396  12.128   8.027  12.191  0.2755  0.6852 -0.3508
86806SOL    HW172397  12.167   8.100  12.141 -0.2371  0.6037 -0.8820
86806SOL    HW272398  12.098   7.966  12.124 -3.4921  2.0943 -0.1466
86807SOL     OW72399  13.071   9.257   7.390 -0.3896  0.3938 -0.2384
86807SOL    HW172400  13.136   9.206   7.342 -0.6702  0.5115 -0.7489
86807SOL    HW272401  13.111   9.271   7.476 -0.0502 -0.1520 -0.3006
86808SOL     OW72402   5.650   1.511   1.618  0.4705 -0.0633  0.0794
86808SOL    HW172403   5.622   1.549   1.535  0.1464 -2.2278 -0.8511
86808SOL    HW272404   5.569   1.479   1.658  0.7890 -0.2049  0.6229
86809SOL     OW72405   8.776   3.631   5.505 -0.0078 -0.4127 -0.1380
86809SOL    HW172406   8.730   3.572   5.565  2.9605 -3.7964 -0.8555
86809SOL    HW272407   8.735   3.616   5.420  0.7152 -1.5241 -0.3121
86810SOL     OW72408   4.041   6.205   7.470 -1.4967 -0.0016  0.1026
86810SOL    HW172409   3.979   6.251   7.527  0.3225  0.5408  1.7457
86810SOL    HW272410   4.023   6.239   7.383 -1.0659  3.0043  1.0645
86811SOL     OW72411   7.982   7.534   9.024  0.3303  0.6346 -0.6849
86811SOL    HW172412   8.067   7.513   9.063  0.3222  0.8510 -0.5476
86811SOL    HW272413   7.927   7.560   9.099  0.2410  0.8075 -0.8093
86812SOL     OW72414  11.967   9.705  13.257 -0.2864 -0.2087 -0.0864
86812SOL    HW172415  11.985   9.619  13.295  0.1744 -0.8434 -1.6933
86812SOL    HW272416  12.052   9.749  13.253 -0.3256 -0.1589 -0.4033
86813SOL     OW72417  11.295  13.632   5.032  0.3984 -0.5200  0.6361
86813SOL    HW172418  11.345  13.670   4.959  0.4926 -0.6673  0.6239
86813SOL    HW272419  11.319  13.686   5.108 -0.9367  0.6661  0.2554
86814SOL     OW72420  13.260   9.006   7.636 -0.0293  0.3826  0.0698
86814SOL    HW172421  13.253   9.101   7.646 -0.3489  0.2443  1.3612
86814SOL    HW272422  13.321   8.980   7.705 -1.1814 -0.5195  0.7782
86815SOL     OW72423  12.044   0.913   6.717  0.4242 -0.5719 -0.2036
86815SOL    HW172424  12.021   0.833   6.764 -0.9539 -0.2144 -0.2309
86815SOL    HW272425  12.000   0.982   6.765  1.4779  0.1645 -0.2764
86816SOL     OW72426   6.556   0.024   9.250  0.2164 -0.2453 -0.2686
86816SOL    HW172427   6.553   0.020   9.154  0.2805  0.4171 -0.2989
86816SOL    HW272428   6.627  -0.036   9.274 -0.5654 -1.3126 -0.5629
86817SOL     OW72429   6.652   9.551   3.387  0.0181 -0.0454 -0.2995
86817SOL    HW172430   6.566   9.533   3.349 -0.3489  0.2219  0.3901
86817SOL    HW272431   6.693   9.465   3.394 -0.4946 -0.2622  0.0725
86818SOL     OW72432  12.197   9.974   2.567 -0.3799 -0.4229  0.2400
86818SOL    HW172433  12.139  10.021   2.627 -1.9644 -0.4614 -1.1783
86818SOL    HW272434  12.179   9.881   2.584  1.0816 -0.5084  1.4669
86819SOL     OW72435   9.504   1.541  12.614 -0.1857 -0.1950 -0.0639
86819SOL    HW172436   9.537   1.606  12.676  2.4296 -0.8306 -0.6628
86819SOL    HW272437   9.475   1.468  12.669 -0.0438  0.1579  0.4879
86820SOL     OW72438  12.483   1.669   4.577  0.0672  0.0639  0.2347
86820SOL    HW172439  12.503   1.657   4.670 -0.1426  0.3192  0.3139
86820SOL    HW272440  12.437   1.589   4.552  2.0799 -1.0101 -0.2148
86821SOL     OW72441  10.089  11.939   8.328  0.1594 -0.6555  0.3457
86821SOL    HW172442  10.078  12.019   8.277 -1.3444 -1.0457  0.0049
86821SOL    HW272443  10.149  11.963   8.399 -0.1280  0.7120  0.1457
86822SOL     OW72444   4.623   4.102   1.616 -0.6977  0.0748 -0.8837
86822SOL    HW172445   4.563   4.122   1.544 -0.8993  1.3896 -0.3777
86822SOL    HW272446   4.674   4.182   1.628 -0.6583 -0.1236  0.4205
86823SOL     OW72447   2.970  11.633  11.464 -0.2076  0.0924  0.0477
86823SOL    HW172448   3.006  11.544  11.465 -0.6948 -0.3224 -3.6574
86823SOL    HW272449   3.046  11.690  11.475  0.3579 -0.7519  0.6748
86824SOL     OW72450  12.484   9.696   3.776  0.5928 -0.5600 -0.4442
86824SOL    HW172451  12.463   9.785   3.748  0.6226 -0.6310 -0.6944
86824SOL    HW272452  12.545   9.663   3.710  2.2956 -0.0093  0.8043
86825SOL     OW72453   0.633  13.267   4.868 -0.1194 -0.1249 -0.2776
86825SOL    HW172454   0.627  13.275   4.963  0.9759  0.9851 -0.2689
86825SOL    HW272455   0.608  13.354   4.835  0.2746 -0.2583 -0.9479
86826SOL     OW72456   5.536   5.783   6.114 -0.0199  0.6719  0.3870
86826SOL    HW172457   5.596   5.733   6.169 -1.5743 -0.1733  1.3665
86826SOL    HW272458   5.593   5.839   6.062  1.5881  0.4142  1.7835
86827SOL     OW72459   5.183   2.050  12.897  0.0899 -0.1774 -0.1085
86827SOL    HW172460   5.223   1.983  12.842  2.1039  0.4425  0.5187
86827SOL    HW272461   5.100   2.070  12.854  0.8761 -0.8346 -2.0219
86828SOL     OW72462   5.067   1.230  12.903  0.3767  0.0564  0.6362
86828SOL    HW172463   5.154   1.258  12.876  0.2007 -0.2522 -0.2735
86828SOL    HW272464   5.047   1.155  12.846 -1.4835  1.6391 -0.9036
86829SOL     OW72465   9.476   3.819   4.797  0.3457  0.1109 -0.2711
86829SOL    HW172466   9.465   3.737   4.748  0.8810 -0.0082 -0.1958
86829SOL    HW272467   9.455   3.887   4.734  1.3042 -0.0331 -0.7547
86830SOL     OW72468  13.240   2.039  10.833 -0.4409  0.5055 -0.4441
86830SOL    HW172469  13.170   2.045  10.768  1.0870  0.6590 -2.1601
86830SOL    HW272470  13.287   2.122  10.826  0.0949  0.3043  0.4923
86831SOL     OW72471   1.778   0.663  12.333  0.4106 -0.5953  0.3434
86831SOL    HW172472   1.698   0.648  12.283  1.8856 -0.7005 -2.1979
86831SOL    HW272473   1.764   0.746  12.378 -0.5791  0.1966 -1.3322
86832SOL     OW72474   3.894   2.911   2.669 -0.4819  0.0079  0.2369
86832SOL    HW172475   3.892   2.854   2.592 -0.6162  0.4480 -0.0898
86832SOL    HW272476   3.802   2.928   2.690 -0.5799 -2.3905  2.2326
86833SOL     OW72477   3.638   9.437   0.365 -0.1479 -0.0668  0.3656
86833SOL    HW172478   3.670   9.486   0.290  0.5839  0.1992  0.8365
86833SOL    HW272479   3.667   9.347   0.349  0.8147  0.1567  0.7487
86834SOL     OW72480   3.798   7.176   6.686  0.0672 -0.3745 -0.1727
86834SOL    HW172481   3.823   7.193   6.595  0.6234  1.0743  0.2382
86834SOL    HW272482   3.801   7.261   6.729 -0.0188 -1.0614  1.2557
86835SOL     OW72483  13.943   0.117  11.241 -0.6678 -0.3061  0.0974
86835SOL    HW172484  13.877   0.128  11.310 -0.7356 -1.2911  0.1922
86835SOL    HW272485  13.950   0.204  11.201 -2.5852 -0.3450 -0.4172
86836SOL     OW72486  12.509  12.603  10.794  0.3906  0.1331 -0.0969
86836SOL    HW172487  12.532  12.529  10.851 -0.1986  0.0657  0.0632
86836SOL    HW272488  12.428  12.638  10.831 -1.3262 -1.3419 -2.1789
86837SOL     OW72489   4.932   4.974   5.683  0.4761 -0.1100  0.2701
86837SOL    HW172490   5.018   5.013   5.669  0.0922  0.4324 -0.6626
86837SOL    HW272491   4.899   4.957   5.595 -0.4499 -0.1318  0.6127
86838SOL     OW72492  13.774   6.973   7.821  0.3348  0.1981  0.0470
86838SOL    HW172493  13.810   7.045   7.770 -1.2918  0.0251 -1.4680
86838SOL    HW272494  13.768   7.007   7.910 -0.8523  2.1741 -0.7055
86839SOL     OW72495  13.403  11.385   0.388 -0.2417 -0.2628  0.0253
86839SOL    HW172496  13.493  11.417   0.379 -0.2847 -0.1672 -0.0720
86839SOL    HW272497  13.402  11.340   0.472  0.3907 -1.9188 -0.8124
86840SOL     OW72498   0.757   0.974  11.055 -0.8125  0.2307 -0.8166
86840SOL    HW172499   0.772   0.882  11.078 -1.1223  0.2148 -0.6713
86840SOL    HW272500   0.662   0.981  11.047 -0.7285  0.2601 -1.9893
86841SOL     OW72501   5.643   4.316   9.829 -0.1514  0.3910 -0.4873
86841SOL    HW172502   5.613   4.266   9.753 -0.8705 -2.2322  1.3877
86841SOL    HW272503   5.566   4.323   9.885  1.0437 -0.3974  1.3321
86842SOL     OW72504   3.268   9.267   3.584 -0.4986  0.2414  0.1888
86842SOL    HW172505   3.250   9.262   3.490  2.1744  1.3155 -0.4696
86842SOL    HW272506   3.284   9.176   3.610  1.6866  0.1843 -1.1277
86843SOL     OW72507   4.870   2.768   8.651 -0.5435 -0.5842 -0.1081
86843SOL    HW172508   4.882   2.853   8.608 -0.2279 -1.0818 -1.0278
86843SOL    HW272509   4.913   2.705   8.593 -0.8128 -1.3857  0.5372
86844SOL     OW72510   2.330   9.545   8.333  0.0318 -0.3091  0.0420
86844SOL    HW172511   2.356   9.625   8.288 -0.0606  1.2304  2.5578
86844SOL    HW272512   2.407   9.489   8.328  1.3701  1.3277  1.1510
86845SOL     OW72513  12.171  10.875  11.923  0.8316  0.3566 -0.3179
86845SOL    HW172514  12.250  10.925  11.901  1.4295 -0.4149  0.0219
86845SOL    HW272515  12.102  10.941  11.930  1.4626  1.0559 -0.5340
86846SOL     OW72516  10.932   6.063   6.717  0.2629  0.2240 -0.2063
86846SOL    HW172517  10.933   6.055   6.812 -0.5567 -0.1116 -0.2113
86846SOL    HW272518  11.021   6.044   6.689  0.2806 -0.6295  0.4255
86847SOL     OW72519   7.142  13.057   5.432  0.1635 -0.0866  0.0976
86847SOL    HW172520   7.168  13.070   5.523  0.6808 -1.6590  0.2107
86847SOL    HW272521   7.224  13.056   5.383  0.1150 -1.8068 -0.0027
86848SOL     OW72522  10.847   9.273   7.102 -0.0574  0.1258  0.3938
86848SOL    HW172523  10.937   9.277   7.134 -0.5349  0.4902  1.8035
86848SOL    HW272524  10.837   9.184   7.068  1.0767  0.3511 -0.6026
86849SOL     OW72525   3.376   7.279   1.039  0.2491  0.7087 -0.6015
86849SOL    HW172526   3.472   7.280   1.047  0.1342  0.2533  1.5412
86849SOL    HW272527   3.346   7.332   1.112 -1.1601 -1.0290  0.1521
86850SOL     OW72528   8.884   7.637   7.154  0.4655  0.1002  0.2775
86850SOL    HW172529   8.980   7.644   7.159  0.6222 -0.9747 -0.6138
86850SOL    HW272530   8.870   7.565   7.093 -0.9287  0.4642  0.1542
86851SOL     OW72531  10.781   7.251  13.647 -0.2580  0.2306  0.0032
86851SOL    HW172532  10.820   7.242  13.560  0.5019  1.5668  0.1772
86851SOL    HW272533  10.808   7.338  13.677 -1.7697  0.4160  0.9575
86852SOL     OW72534   4.833   8.311   3.302  0.2663  0.6926 -0.3806
86852SOL    HW172535   4.790   8.395   3.289 -0.3392  1.2324  3.6834
86852SOL    HW272536   4.922   8.334   3.328 -0.4201  0.4013  2.6845
86853SOL     OW72537   9.224   0.900   9.783 -0.0188  0.4182 -0.1010
86853SOL    HW172538   9.191   0.856   9.861 -1.9881  0.9328 -0.5868
86853SOL    HW272539   9.298   0.952   9.815  0.6311 -1.0807  0.9700
86854SOL     OW72540  13.477   6.975  10.975 -0.4140  0.4764  0.1396
86854SOL    HW172541  13.447   7.046  10.919 -0.1394  0.7471  0.3315
86854SOL    HW272542  13.473   7.011  11.064  0.5464  0.5424  0.1599
86855SOL     OW72543  13.311   2.187   8.759 -0.3886  0.1634  0.0106
86855SOL    HW172544  13.320   2.229   8.673 -1.1351 -0.9606 -0.6499
86855SOL    HW272545  13.309   2.093   8.739 -1.0373 -0.0993  1.2176
86856SOL     OW72546   6.180   8.551  11.629 -0.0108 -0.0330  0.3036
86856SOL    HW172547   6.108   8.525  11.686 -0.2894  0.7059  0.3075
86856SOL    HW272548   6.235   8.473  11.621  0.2288 -0.0404  1.8705
86857SOL     OW72549  12.177   4.809   3.989 -0.6026 -0.0172 -0.1892
86857SOL    HW172550  12.225   4.845   3.914  1.3773 -1.0943  0.4798
86857SOL    HW272551  12.185   4.876   4.057 -2.3216  0.9208 -0.8522
86858SOL     OW72552  12.484   6.776   6.878 -0.2260 -0.0140  0.2289
86858SOL    HW172553  12.461   6.796   6.788  2.0913 -1.3273 -0.7322
86858SOL    HW272554  12.521   6.857   6.912 -0.6797  0.3519 -0.1414
86859SOL     OW72555  10.200  13.102  10.554  0.2625  0.2167  0.5858
86859SOL    HW172556  10.106  13.083  10.548 -0.3937  2.7274  1.3705
86859SOL    HW272557  10.208  13.154  10.634  2.4227 -0.2816  0.7497
86860SOL     OW72558  13.133   6.613  10.025 -0.1759  0.2833  0.1288
86860SOL    HW172559  13.182   6.533  10.045  1.4793  1.3436  0.5880
86860SOL    HW272560  13.107   6.604   9.934 -1.2798 -1.3741  0.5737
86861SOL     OW72561   2.993   3.873  11.203  0.3086  0.3032  0.4613
86861SOL    HW172562   3.072   3.825  11.180  0.9293  1.9001 -0.8607
86861SOL    HW272563   3.022   3.963  11.219 -0.7638  0.2762  3.2493
86862SOL     OW72564   5.868   0.872   4.753  0.5196  0.0609  0.6571
86862SOL    HW172565   5.834   0.935   4.690 -0.4917 -0.3969  0.7213
86862SOL    HW272566   5.961   0.864   4.732  0.1519 -0.2951 -0.9791
86863SOL     OW72567   3.351  11.289  13.750  0.1117  0.5593  0.6375
86863SOL    HW172568   3.434  11.242  13.749 -0.7462 -1.2594 -2.8922
86863SOL    HW272569   3.372  11.377  13.717  0.8344  0.6325  1.2786
86864SOL     OW72570   3.150   3.555   5.738 -0.6918 -0.2188  0.0891
86864SOL    HW172571   3.229   3.535   5.688 -2.0785 -1.3024 -1.8418
86864SOL    HW272572   3.165   3.514   5.823  1.5192  1.1840  0.4547
86865SOL     OW72573  11.782   7.930  11.134  0.1985 -0.2053  0.0920
86865SOL    HW172574  11.724   7.856  11.152 -0.2331 -0.0289 -0.5386
86865SOL    HW272575  11.862   7.889  11.101  0.2459 -0.4249  0.4713
86866SOL     OW72576  10.597  13.582  12.460 -0.3034 -0.0249  0.5746
86866SOL    HW172577  10.586  13.500  12.508 -2.1244 -2.7882 -3.8875
86866SOL    HW272578  10.507  13.616  12.450 -0.0231  0.3671 -0.8667
86867SOL     OW72579   3.113   5.639   4.221 -0.2484  0.2914  0.0235
86867SOL    HW172580   3.207   5.659   4.219 -0.3263  0.5841 -1.0545
86867SOL    HW272581   3.072   5.708   4.169 -0.7614 -1.3451 -1.8507
86868SOL     OW72582   0.122   9.862   4.806 -1.1167 -0.6630  0.3747
86868SOL    HW172583   0.214   9.836   4.799 -0.8016  0.3405  0.7374
86868SOL    HW272584   0.076   9.780   4.827 -0.4912 -1.4256 -1.0868
86869SOL     OW72585   3.948   4.139  12.101  0.0992 -0.6273 -0.2562
86869SOL    HW172586   3.932   4.049  12.132 -4.4066  0.0604  0.1544
86869SOL    HW272587   3.990   4.182  12.175 -0.0758 -1.8075  0.5706
86870SOL     OW72588  13.625   3.902  10.156  0.2576  0.1219 -0.6908
86870SOL    HW172589  13.609   3.856  10.238 -1.4923  0.1634 -0.9691
86870SOL    HW272590  13.701   3.958  10.174 -0.3177  0.4205  1.0303
86871SOL     OW72591   5.088  13.452  11.604 -0.0111  0.0876 -0.2546
86871SOL    HW172592   5.032  13.527  11.622 -0.3879 -0.1319 -0.4924
86871SOL    HW272593   5.092  13.405  11.687 -2.3544 -1.3289 -0.8332
86872SOL     OW72594  13.133   8.158  11.153  0.2522  0.2029  0.2670
86872SOL    HW172595  13.210   8.196  11.112  0.3525 -2.0901 -1.9370
86872SOL    HW272596  13.168   8.086  11.206 -0.2297  0.5101  1.0189
86873SOL     OW72597  10.527   6.263   2.192  0.0310  0.0629  0.4539
86873SOL    HW172598  10.620   6.275   2.209  0.2210 -1.3233  0.5614
86873SOL    HW272599  10.524   6.192   2.127 -1.0063 -1.7560  2.3695
86874SOL     OW72600   0.215   4.210   1.308  0.3207 -0.0674  0.5912
86874SOL    HW172601   0.204   4.118   1.284  1.9388 -0.3316  0.7417
86874SOL    HW272602   0.309   4.220   1.320  0.1926  1.6737  0.3641
86875SOL     OW72603   7.782   5.237   2.282 -0.3076  0.3266  0.5931
86875SOL    HW172604   7.717   5.185   2.235  0.9272 -0.1961 -0.6371
86875SOL    HW272605   7.734   5.313   2.314 -0.8000  2.2741 -4.0241
86876SOL     OW72606   7.883   7.842   6.020 -0.0543 -0.4211  0.3478
86876SOL    HW172607   7.849   7.754   6.034  1.8931 -0.7583  4.1853
86876SOL    HW272608   7.931   7.836   5.937 -1.2087 -2.4989 -0.2555
86877SOL     OW72609   5.793   5.692   3.918 -0.1277 -0.5137  0.0428
86877SOL    HW172610   5.733   5.744   3.973 -0.1971  1.8564 -2.0636
86877SOL    HW272611   5.878   5.699   3.962 -0.1367  1.5115 -0.1346
86878SOL     OW72612   2.772   5.315  13.906 -0.2026 -0.1786 -0.3218
86878SOL    HW172613   2.847   5.274  13.863 -0.0995 -0.0955 -0.2224
86878SOL    HW272614   2.696   5.277  13.862 -0.1073 -0.4192 -0.2801
86879SOL     OW72615   6.279   7.143   0.073 -0.1418  0.3562  0.0897
86879SOL    HW172616   6.370   7.172   0.080 -0.0111  0.1363 -0.5898
86879SOL    HW272617   6.284   7.047   0.074 -0.4086  0.3469  0.5374
86880SOL     OW72618  11.330  10.587   7.370 -0.7479 -0.3166 -0.0823
86880SOL    HW172619  11.336  10.631   7.454  2.0811  0.8753 -0.7857
86880SOL    HW272620  11.299  10.499   7.391  1.8161 -0.7395  2.5177
86881SOL     OW72621   9.432   0.459   9.106 -0.2267 -0.2163  0.2098
86881SOL    HW172622   9.422   0.365   9.116 -0.6126 -0.5248 -2.3702
86881SOL    HW272623   9.513   0.470   9.057 -1.9897  0.4305 -2.8201
86882SOL     OW72624   7.981  13.975   9.340 -0.5011  0.0449  0.3784
86882SOL    HW172625   8.049  14.038   9.365 -1.3059  1.3900 -0.6708
86882SOL    HW272626   7.933  13.957   9.421 -0.3309  0.8806  0.6697
86883SOL     OW72627   9.267   1.742  12.508  0.2400 -0.0837  0.5784
86883SOL    HW172628   9.194   1.679  12.514  1.0870 -1.0324  1.2548
86883SOL    HW272629   9.296   1.735  12.417 -0.5437  0.3586  0.2786
86884SOL     OW72630   7.647  10.945   8.463 -0.0783  0.0041  0.2207
86884SOL    HW172631   7.573  10.898   8.502 -0.3766  0.8252  0.6757
86884SOL    HW272632   7.634  11.036   8.490  1.9957 -0.0742  1.6797
86885SOL     OW72633  12.648   1.850   8.799  0.3999  0.0746 -0.0602
86885SOL    HW172634  12.705   1.820   8.728  0.3117  0.8456 -0.4731
86885SOL    HW272635  12.570   1.796   8.794 -0.6495  1.6468 -2.0940
86886SOL     OW72636   5.102  11.545  11.593 -0.1603  0.0600 -0.2695
86886SOL    HW172637   5.119  11.581  11.506  0.6655 -0.1229 -0.1880
86886SOL    HW272638   5.175  11.577  11.647 -0.5439 -0.0109  0.3018
86887SOL     OW72639  12.593  13.268  11.616 -0.0668 -0.1599 -0.0752
86887SOL    HW172640  12.535  13.195  11.592 -0.0470 -0.0488 -0.4674
86887SOL    HW272641  12.593  13.324  11.539  1.6929 -0.8814 -0.6428
86888SOL     OW72642   2.033   8.844   8.929 -0.7906 -0.3283 -0.0055
86888SOL    HW172643   2.089   8.891   8.991  0.0331 -0.1838 -0.8308
86888SOL    HW272644   2.050   8.886   8.845 -3.2173  0.6432 -0.0625
86889SOL     OW72645   9.633  11.388   6.695 -0.1565  0.2973 -0.1447
86889SOL    HW172646   9.696  11.317   6.706 -0.2957 -0.2064 -2.2032
86889SOL    HW272647   9.549  11.345   6.684 -0.1812  0.7036 -1.8669
86890SOL     OW72648   4.522  12.899   4.267  0.3259 -0.2676  0.1814
86890SOL    HW172649   4.544  12.970   4.328  0.3626  0.2421 -0.4125
86890SOL    HW272650   4.429  12.913   4.247 -0.4682 -2.0740  2.2377
86891SOL     OW72651   2.173   1.885   1.392  0.0638 -0.0697 -0.0082
86891SOL    HW172652   2.173   1.879   1.488 -1.8056  3.9878  0.4922
86891SOL    HW272653   2.246   1.943   1.372 -0.8261  0.8484 -0.7340
86892SOL     OW72654   3.787   1.439   6.224 -0.6314  0.4841  0.3554
86892SOL    HW172655   3.749   1.388   6.295 -2.7273 -0.0089 -1.0449
86892SOL    HW272656   3.720   1.503   6.202  0.9637  2.2750  0.4020
86893SOL     OW72657   0.493   9.239   3.964 -0.0051  0.2858  0.2498
86893SOL    HW172658   0.416   9.277   3.923 -0.3306 -0.0569  0.5450
86893SOL    HW272659   0.538   9.314   4.004  0.9838  0.8280 -1.7573
86894SOL     OW72660  10.022  11.590   0.893 -0.1442  0.3110 -0.4478
86894SOL    HW172661  10.008  11.523   0.960 -1.1379  0.8019 -0.1399
86894SOL    HW272662  10.085  11.650   0.933 -1.2653  0.9898  0.3744
86895SOL     OW72663   7.153   6.662   8.557 -0.0959  0.2506 -0.5378
86895SOL    HW172664   7.144   6.636   8.466  0.3084 -0.2016 -0.4554
86895SOL    HW272665   7.133   6.582   8.607  0.7810  0.1881 -0.2688
86896SOL     OW72666  10.484   7.052   1.749 -0.6874 -0.1543  0.1059
86896SOL    HW172667  10.555   7.053   1.685  0.4594  1.4028  1.3247
86896SOL    HW272668  10.481   6.961   1.779  0.0461 -0.4867 -0.7587
86897SOL     OW72669   1.828   4.616   6.877 -0.3902 -0.1388 -0.1827
86897SOL    HW172670   1.867   4.555   6.940 -0.4569  0.9667  0.9648
86897SOL    HW272671   1.897   4.681   6.861 -0.5008 -0.2041 -0.9912
86898SOL     OW72672   9.381   9.883   2.951  0.0756 -0.2775  1.0256
86898SOL    HW172673   9.355   9.975   2.940  1.0817 -0.1548 -0.8209
86898SOL    HW272674   9.476   9.887   2.963  0.1374 -1.0815  0.8468
86899SOL     OW72675   9.140   8.553  10.065 -0.0682 -0.2736  0.4577
86899SOL    HW172676   9.157   8.547  10.159 -2.9538  0.1228  1.0774
86899SOL    HW272677   9.185   8.633  10.038 -0.0898  0.1954  1.7343
86900SOL     OW72678  12.640   4.571   9.375  0.7082 -0.7038 -0.5134
86900SOL    HW172679  12.623   4.663   9.394 -1.5090 -0.9350 -1.1557
86900SOL    HW272680  12.665   4.570   9.282 -1.2293 -0.9168 -1.0664
86901SOL     OW72681   0.055  11.134  13.637 -0.1672 -0.1213  0.1916
86901SOL    HW172682  -0.003  11.070  13.596  0.6173  0.1269 -1.4245
86901SOL    HW272683   0.020  11.219  13.608  1.4958  0.0134 -1.6526
86902SOL     OW72684   5.311   7.595  13.497 -0.1699 -0.3701  0.1409
86902SOL    HW172685   5.357   7.675  13.524 -0.0018 -0.5797  0.4844
86902SOL    HW272686   5.254   7.623  13.426  1.9400 -0.4781 -1.6993
86903SOL     OW72687   7.259  12.310   5.689 -0.0919  0.0262  0.5469
86903SOL    HW172688   7.296  12.223   5.707 -1.5897 -0.3819  1.9026
86903SOL    HW272689   7.323  12.351   5.631  0.6755 -1.9583 -0.1202
86904SOL     OW72690   7.677   1.826   1.756 -0.5597  0.2888 -0.3764
86904SOL    HW172691   7.766   1.843   1.787 -0.9966  2.0086  0.0225
86904SOL    HW272692   7.635   1.912   1.755 -1.5342 -0.1487 -2.7878
86905SOL     OW72693   7.383  13.097   5.325  0.0552 -0.6023 -0.0406
86905SOL    HW172694   7.476  13.114   5.338 -0.1251  0.6118 -0.1671
86905SOL    HW272695   7.363  13.137   5.240 -0.7191 -0.2286  0.3108
86906SOL     OW72696  12.393   9.783  11.323 -0.7343  0.0371 -0.1053
86906SOL    HW172697  12.337   9.858  11.341 -1.3473 -0.1880 -1.0054
86906SOL    HW272698  12.335   9.720  11.279  0.0959 -0.3984 -0.6000
86907SOL     OW72699  11.043  11.014   4.804 -0.2766 -0.4117 -0.0169
86907SOL    HW172700  11.129  10.977   4.822 -0.9318 -1.2428  1.5867
86907SOL    HW272701  11.002  10.952   4.743  0.1611 -0.1166 -0.6254
86908SOL     OW72702   8.133   5.762   5.079 -0.1213 -0.4094  0.6725
86908SOL    HW172703   8.062   5.826   5.074 -0.0602 -0.3609  0.4051
86908SOL    HW272704   8.127   5.713   4.997 -1.5291 -2.2163  1.7910
86909SOL     OW72705   4.680   9.090   8.749 -0.3344  0.1847 -0.1626
86909SOL    HW172706   4.603   9.096   8.806 -0.2943  0.3115 -0.1213
86909SOL    HW272707   4.746   9.144   8.792 -0.1077 -0.2062 -0.0153
86910SOL     OW72708   2.880   8.629   9.142  0.2384 -0.3289 -0.8544
86910SOL    HW172709   2.974   8.613   9.127  0.2479 -1.3655  0.1660
86910SOL    HW272710   2.849   8.549   9.184 -0.5008  1.0757  1.4170
86911SOL     OW72711  13.855  11.874  10.364 -0.3031 -0.3351 -0.0513
86911SOL    HW172712  13.922  11.942  10.372 -0.7514  0.0406  0.5733
86911SOL    HW272713  13.902  11.799  10.327 -0.0165  0.6203 -1.7610
86912SOL     OW72714   5.746   4.844  11.757 -0.6809 -0.0401  0.2952
86912SOL    HW172715   5.781   4.756  11.741 -2.2460 -0.4778 -0.9125
86912SOL    HW272716   5.819   4.891  11.799  0.9895 -1.2034 -1.1601
86913SOL     OW72717  10.376   3.989   8.623 -0.5111 -0.4154 -0.4792
86913SOL    HW172718  10.410   3.998   8.533  2.7261 -0.5622  0.5885
86913SOL    HW272719  10.400   3.900   8.648 -1.5736 -0.4458  0.5050
86914SOL     OW72720   5.150   8.683  13.714  0.2483  0.2055  0.0776
86914SOL    HW172721   5.129   8.625  13.641  0.6562 -0.2352  0.3039
86914SOL    HW272722   5.113   8.768  13.688 -1.0571 -0.3375  0.1111
86915SOL     OW72723   5.203  12.684   9.686 -0.2898 -0.3112  0.0495
86915SOL    HW172724   5.116  12.712   9.659 -0.4097  0.6151  1.3286
86915SOL    HW272725   5.262  12.726   9.623 -0.6855  0.1593 -0.0115
86916SOL     OW72726  11.594   6.385  10.426  0.2715 -0.2893 -0.5974
86916SOL    HW172727  11.631   6.351  10.345 -1.7090 -1.3633 -1.1180
86916SOL    HW272728  11.540   6.313  10.460 -2.0205  1.4108 -0.3620
86917SOL     OW72729   6.954   9.421   3.983  0.3425  0.4201 -0.3758
86917SOL    HW172730   7.031   9.404   3.929  1.9875 -1.1387  2.2270
86917SOL    HW272731   6.891   9.355   3.957  0.2303  1.0805 -1.8514
86918SOL     OW72732   8.998   9.533   1.483 -0.3075  0.3542 -0.0396
86918SOL    HW172733   8.992   9.438   1.481 -0.0754  0.3078 -2.7335
86918SOL    HW272734   9.091   9.552   1.494 -0.4162  0.2877  1.0128
86919SOL     OW72735  12.392  11.440  13.420 -0.3051  0.5779 -0.0842
86919SOL    HW172736  12.481  11.406  13.418 -0.9217 -1.2232  0.6897
86919SOL    HW272737  12.368  11.451  13.328 -0.0432 -1.1125 -0.3958
86920SOL     OW72738   6.117   2.528   2.932  0.7606  0.2762  0.2997
86920SOL    HW172739   6.123   2.598   2.867 -0.2122  0.4704  0.4067
86920SOL    HW272740   6.113   2.447   2.880  0.9034  0.3704  0.1430
86921SOL     OW72741   6.327   9.366  10.231 -0.1999  0.7040  0.1574
86921SOL    HW172742   6.270   9.434  10.194 -0.3000  1.0564  0.9364
86921SOL    HW272743   6.320   9.293  10.170 -1.7113  0.6293  0.3854
86922SOL     OW72744   5.862  13.208   9.904  0.3157  0.5846  0.4482
86922SOL    HW172745   5.773  13.242   9.892 -1.7232 -3.6186  1.5039
86922SOL    HW272746   5.883  13.166   9.821 -1.1680 -3.0010  1.6866
86923SOL     OW72747   7.580  12.880  12.072  0.6298  0.6111 -0.1161
86923SOL    HW172748   7.486  12.863  12.064  0.9785 -3.0608  1.3502
86923SOL    HW272749   7.586  12.960  12.124 -1.5659  2.3580 -2.3127
86924SOL     OW72750   6.185  11.408   1.570  0.8344 -0.4711  0.0860
86924SOL    HW172751   6.187  11.500   1.596  0.5578  0.4608 -2.8210
86924SOL    HW272752   6.276  11.387   1.548  0.7375 -0.5898 -0.2053
86925SOL     OW72753   4.348   5.263  13.464 -0.5312  0.4022  0.5089
86925SOL    HW172754   4.331   5.354  13.441 -0.3195  0.8730  2.1407
86925SOL    HW272755   4.382   5.224  13.383 -0.8317  1.7059 -0.2655
86926SOL     OW72756   5.074  11.213  10.502 -0.2041 -0.7555  0.1865
86926SOL    HW172757   5.083  11.189  10.595 -0.9273 -1.4261  0.0965
86926SOL    HW272758   5.116  11.141  10.455  2.0886  0.5932  0.0124
86927SOL     OW72759  11.811  10.028   6.993 -0.2954 -0.3861  0.0822
86927SOL    HW172760  11.896  10.011   7.033 -0.4599 -1.1150  0.1476
86927SOL    HW272761  11.794   9.949   6.941 -0.8204 -0.1411 -0.1208
86928SOL     OW72762   0.851   3.721   9.667  0.8572 -0.4416 -0.3190
86928SOL    HW172763   0.898   3.804   9.667 -1.1278  0.7512 -1.0596
86928SOL    HW272764   0.919   3.655   9.652  2.4225  1.0648 -0.1662
86929SOL     OW72765   0.930   3.981   5.908  0.1219  0.2473  0.0703
86929SOL    HW172766   0.857   3.998   5.848 -0.3042  1.0261  0.7991
86929SOL    HW272767   0.914   4.039   5.982  1.9704  1.0849 -0.1479
86930SOL     OW72768   5.710   2.117   0.977 -0.0087  1.2514 -0.0363
86930SOL    HW172769   5.789   2.157   1.012 -0.3343  1.6119  0.3032
86930SOL    HW272770   5.708   2.030   1.017  0.1123  1.3144  0.1078
86931SOL     OW72771   0.084   4.021   5.015  0.1784 -0.3316  0.1295
86931SOL    HW172772   0.035   4.017   4.933  0.1584  1.8713 -0.0167
86931SOL    HW272773   0.142   3.945   5.012 -0.9275 -1.1748 -1.1790
86932SOL     OW72774   3.959  11.357  10.214 -0.1993 -0.6267  0.0041
86932SOL    HW172775   4.053  11.355  10.233 -0.4119 -1.4963  0.9997
86932SOL    HW272776   3.924  11.276  10.251 -1.2790 -0.5491 -0.7725
86933SOL     OW72777   9.261   5.972   8.872  0.4300  0.2815  0.1575
86933SOL    HW172778   9.291   6.019   8.795 -0.0446  1.0836  0.4523
86933SOL    HW272779   9.326   5.903   8.885  1.5265  1.2885  0.1369
86934SOL     OW72780   7.270   4.163   2.212 -0.2609 -0.2608  0.0021
86934SOL    HW172781   7.200   4.142   2.150  0.1691  0.9140 -0.9238
86934SOL    HW272782   7.268   4.091   2.275 -2.3802 -0.2121  0.0911
86935SOL     OW72783   5.714  12.563   4.621  0.6800  0.1705 -0.3325
86935SOL    HW172784   5.791  12.621   4.613  1.3700 -0.7850 -0.8518
86935SOL    HW272785   5.750  12.481   4.656 -0.2785  0.0416  0.3707
86936SOL     OW72786   2.567  11.000   5.783 -0.0099  0.1041  0.0219
86936SOL    HW172787   2.616  11.081   5.770 -0.2445  0.2650  0.1399
86936SOL    HW272788   2.485  11.013   5.734 -0.3762  0.2386  0.6677
86937SOL     OW72789  10.873  12.933  11.216 -0.3439  0.0360  0.1323
86937SOL    HW172790  10.820  12.968  11.287 -0.5464 -2.0213  1.0611
86937SOL    HW272791  10.948  12.992  11.211 -1.3379  1.3965  0.6344
86938SOL     OW72792  10.301   2.484   4.220 -0.0226 -0.1036 -0.4772
86938SOL    HW172793  10.245   2.530   4.158  1.8198  1.7184 -0.9070
86938SOL    HW272794  10.269   2.511   4.306 -1.3351 -1.0650 -0.6431
86939SOL     OW72795   9.679   5.102  12.663 -0.4433 -0.0787 -0.0379
86939SOL    HW172796   9.618   5.168  12.696 -3.4741 -0.9861 -3.2082
86939SOL    HW272797   9.632   5.019  12.673  1.8097 -1.3746  0.5649
86940SOL     OW72798   7.501  13.880   8.545  0.2593 -0.1495  0.5361
86940SOL    HW172799   7.449  13.867   8.466 -0.3328 -1.6279  1.1411
86940SOL    HW272800   7.437  13.892   8.615  0.7784  0.8203  0.8712
86941SOL     OW72801   5.460   4.479   0.847 -0.1657  0.0856  0.4760
86941SOL    HW172802   5.381   4.509   0.803  0.5016 -0.0196 -0.8383
86941SOL    HW272803   5.449   4.509   0.938 -0.6844  2.0658 -0.1831
86942SOL     OW72804   7.685   8.527   4.289 -0.3415  0.7474  0.6613
86942SOL    HW172805   7.746   8.496   4.356  1.6487  1.1700 -0.8805
86942SOL    HW272806   7.695   8.465   4.217 -2.4082  0.3278  0.6637
86943SOL     OW72807   8.742   4.559   1.616 -0.3203 -0.2942  0.0555
86943SOL    HW172808   8.837   4.546   1.613 -0.5322 -1.8028 -0.7000
86943SOL    HW272809   8.723   4.579   1.708  0.5720 -1.2642  0.4667
86944SOL     OW72810   5.795   9.306   7.346  0.1103  0.0690 -0.4800
86944SOL    HW172811   5.865   9.370   7.337 -0.5917  0.9527  0.1154
86944SOL    HW272812   5.814   9.261   7.429 -0.0097  0.2949 -0.3283
86945SOL     OW72813  11.047  11.054   4.501 -0.8465  0.2936  0.3107
86945SOL    HW172814  11.067  11.032   4.410 -0.7228  1.8168 -0.0599
86945SOL    HW272815  11.034  10.969   4.544 -0.2151 -0.4813 -0.9591
86946SOL     OW72816   4.079   1.110   4.174  0.3460 -0.2397 -0.0776
86946SOL    HW172817   4.103   1.080   4.262 -2.0775  0.7091  1.0079
86946SOL    HW272818   4.010   1.050   4.146  2.1212 -1.4659 -2.0521
86947SOL     OW72819   3.280  11.043   5.285 -0.2597 -0.0077  0.0740
86947SOL    HW172820   3.218  10.971   5.299  1.3343 -1.1918  1.3680
86947SOL    HW272821   3.224  11.118   5.265 -2.2827 -0.6062  2.7788
86948SOL     OW72822   6.867  14.021   7.828 -0.2022  0.2335  0.0109
86948SOL    HW172823   6.868  14.075   7.749  0.4817  2.1798  1.2714
86948SOL    HW272824   6.875  13.931   7.796  3.8129  1.0767 -2.0634
86949SOL     OW72825   0.276   5.488   1.624  0.3563 -0.1401  0.0355
86949SOL    HW172826   0.208   5.432   1.661 -0.4707  2.1588  2.3222
86949SOL    HW272827   0.356   5.461   1.669 -0.1989  0.9825  1.8062
86950SOL     OW72828   0.337   3.293   1.941 -0.4431 -0.0965  0.0724
86950SOL    HW172829   0.418   3.303   1.991 -0.3754  2.3084 -0.3563
86950SOL    HW272830   0.269   3.285   2.008 -0.1024  0.6669  0.5388
86951SOL     OW72831   7.457  12.858   5.960 -0.2641  0.9920  0.0828
86951SOL    HW172832   7.513  12.903   6.022  0.2428  1.3962 -0.6607
86951SOL    HW272833   7.489  12.884   5.874  0.5799 -1.3935 -0.4078
86952SOL     OW72834   5.793   9.544  11.615  0.3124  0.0253 -0.3996
86952SOL    HW172835   5.862   9.538  11.549  1.0973 -0.9827  0.4867
86952SOL    HW272836   5.771   9.453  11.636 -2.6557  0.2550 -2.0129
86953SOL     OW72837   0.317   7.352  10.559  0.1684  0.1312  0.3076
86953SOL    HW172838   0.325   7.283  10.625  2.5883  0.5224  0.5170
86953SOL    HW272839   0.340   7.432  10.607 -0.5863  0.7999 -0.4240
86954SOL     OW72840  11.872  12.765   1.852 -0.1982 -0.5491  0.3354
86954SOL    HW172841  11.776  12.760   1.854 -0.3796  1.3338 -1.3172
86954SOL    HW272842  11.896  12.734   1.765  0.5426  0.7403  0.0652
86955SOL     OW72843   4.536   9.123   5.729  0.3136  0.0718 -0.0311
86955SOL    HW172844   4.486   9.042   5.737 -0.7256  0.7821  0.8823
86955SOL    HW272845   4.538   9.141   5.635 -1.9157  0.4608 -0.0434
86956SOL     OW72846  13.164  13.303   9.491 -0.2512  0.4835 -0.6942
86956SOL    HW172847  13.218  13.365   9.540 -0.8845 -1.0549  2.1618
86956SOL    HW272848  13.078  13.343   9.486 -0.2086  0.5998 -0.4726
86957SOL     OW72849  12.229   5.684   3.968  0.0554 -0.2642 -0.3893
86957SOL    HW172850  12.198   5.606   4.014 -0.6036  0.8867  1.2103
86957SOL    HW272851  12.153   5.717   3.920 -0.3358  0.6831  0.8377
86958SOL     OW72852   3.653  11.045   9.982  0.4328  0.4511 -0.2602
86958SOL    HW172853   3.673  10.977  10.046  1.3517  2.3165  1.5944
86958SOL    HW272854   3.577  11.090  10.018 -0.3495  0.2426 -1.6087
86959SOL     OW72855  13.648  12.409  10.434 -0.0120 -0.6170 -0.4811
86959SOL    HW172856  13.671  12.326  10.478 -0.3008  0.2128  1.3432
86959SOL    HW272857  13.571  12.440  10.482 -0.6610  0.1172 -1.9528
86960SOL     OW72858   8.363  11.876  10.445 -0.5888 -0.2885  0.5204
86960SOL    HW172859   8.389  11.958  10.488  1.4999 -0.5997 -0.0189
86960SOL    HW272860   8.345  11.901  10.355 -0.8515 -0.2869  0.5729
86961SOL     OW72861   5.349   3.289  12.725  0.0249 -0.6263 -0.0272
86961SOL    HW172862   5.358   3.381  12.702  1.3169 -0.3264  1.4700
86961SOL    HW272863   5.438   3.255  12.725 -0.2417 -1.4030  1.1659
86962SOL     OW72864   4.387  10.461   4.504  0.3152  0.4341  0.3665
86962SOL    HW172865   4.450  10.465   4.576 -0.5772  0.0772  1.1961
86962SOL    HW272866   4.311  10.508   4.536 -0.8861 -1.4649  0.5014
86963SOL     OW72867  13.135   4.978   8.048  0.0983  0.8892  0.6007
86963SOL    HW172868  13.073   4.905   8.048  0.5335  0.4367  3.2746
86963SOL    HW272869  13.155   4.991   7.955 -0.8298 -1.6617 -0.0608
86964SOL     OW72870   4.271  11.923   6.082 -0.1924 -0.2750  0.1991
86964SOL    HW172871   4.247  11.835   6.110 -0.2967 -0.1689  0.4438
86964SOL    HW272872   4.357  11.913   6.042  0.5087 -0.2322  1.6597
86965SOL     OW72873  11.746   0.388   9.953  0.0038  0.0152 -0.2592
86965SOL    HW172874  11.776   0.415   9.866 -0.4667 -0.7352 -0.6708
86965SOL    HW272875  11.664   0.436   9.965 -0.4626 -0.6633 -0.6805
86966SOL     OW72876   7.969   3.368   3.578 -0.0550  0.2146 -0.6672
86966SOL    HW172877   8.045   3.390   3.523  0.3861  0.4302  0.0093
86966SOL    HW272878   7.896   3.416   3.539  0.6125  1.8018 -0.0433
86967SOL     OW72879  11.368  12.948   2.358 -0.2990 -0.2232  0.7616
86967SOL    HW172880  11.368  12.990   2.271  0.3507  1.4213  1.5087
86967SOL    HW272881  11.399  12.859   2.341  1.1390  0.4656 -0.5599
86968SOL     OW72882   7.827  13.478   4.017 -0.3224 -0.4932 -0.0236
86968SOL    HW172883   7.881  13.483   4.095 -0.0921 -2.6804  0.0195
86968SOL    HW272884   7.775  13.558   4.018 -0.1900 -0.3927  2.2573
86969SOL     OW72885   6.015  11.447   1.352 -0.2470 -0.2509 -0.3787
86969SOL    HW172886   5.935  11.421   1.399 -1.2392 -1.2076 -2.4752
86969SOL    HW272887   6.082  11.451   1.420 -1.7807 -0.7080  1.2551
86970SOL     OW72888   1.925  10.576   8.866 -0.4934 -0.3809  0.3146
86970SOL    HW172889   1.877  10.591   8.785  0.3356  0.7486  0.0048
86970SOL    HW272890   2.008  10.537   8.838 -0.0383  0.3819  0.5642
86971SOL     OW72891   1.406  12.929  10.646  0.5036 -0.6278 -0.4742
86971SOL    HW172892   1.400  12.912  10.552  1.2451 -2.4980 -0.2220
86971SOL    HW272893   1.342  12.999  10.662  1.6075  0.9550 -2.6172
86972SOL     OW72894   7.542   3.586   0.034 -0.0026 -0.3276 -0.0021
86972SOL    HW172895   7.615   3.609  -0.023 -0.1854 -0.9097 -0.4839
86972SOL    HW272896   7.551   3.644   0.109  0.9398 -0.3676 -0.0685
86973SOL     OW72897  11.261  12.524   6.609  1.0858  0.5718  0.6292
86973SOL    HW172898  11.222  12.515   6.522  1.2423  1.9458  0.3955
86973SOL    HW272899  11.287  12.616   6.615  0.8605  0.5703  2.2253
86974SOL     OW72900   1.635  10.131   9.422  0.3129 -0.3412 -0.2258
86974SOL    HW172901   1.543  10.157   9.431  0.8624  1.1245  2.1443
86974SOL    HW272902   1.677  10.203   9.376  0.0826 -1.6861 -2.7037
86975SOL     OW72903  11.895   6.006   3.126 -0.2850 -0.1068  0.4083
86975SOL    HW172904  11.864   6.014   3.216 -0.4152 -1.4017  0.4892
86975SOL    HW272905  11.815   5.995   3.074 -0.2164  0.7022  0.1092
86976SOL     OW72906   2.181   7.541   2.915 -0.3971 -0.0051 -0.5175
86976SOL    HW172907   2.165   7.457   2.958 -1.5374 -0.5939 -2.0005
86976SOL    HW272908   2.175   7.605   2.985  2.4369 -1.2598  1.0290
86977SOL     OW72909  11.119   5.331   5.820  0.6286  1.0088  0.4230
86977SOL    HW172910  11.057   5.402   5.800  0.2104  0.3644 -0.7324
86977SOL    HW272911  11.205   5.372   5.818  0.3138  1.6880  0.8211
86978SOL     OW72912  13.398   5.641   3.703  0.6341  0.3835 -0.5002
86978SOL    HW172913  13.343   5.696   3.759  1.3484  0.4882  0.1150
86978SOL    HW272914  13.416   5.696   3.626 -0.5687  0.1441 -0.9729
86979SOL     OW72915  10.529   6.430   8.911  0.8885 -0.3371 -0.3749
86979SOL    HW172916  10.563   6.355   8.961 -1.9637 -0.6815  1.2724
86979SOL    HW272917  10.463   6.392   8.853  2.6412  0.3712 -2.9905
86980SOL     OW72918  11.892   0.895   1.609 -0.5384 -0.0161  0.8483
86980SOL    HW172919  11.904   0.899   1.704  0.2795  2.2889  0.7241
86980SOL    HW272920  11.972   0.933   1.573 -0.4342 -1.7119 -0.8367
86981SOL     OW72921   2.229   8.087  12.833  0.5476  0.1168 -0.2843
86981SOL    HW172922   2.241   8.102  12.927  1.7847  0.2526 -0.4450
86981SOL    HW272923   2.135   8.093  12.820  0.3079 -0.3265  1.0236
86982SOL     OW72924  12.994  11.030   6.525 -0.4493  0.0249  0.0979
86982SOL    HW172925  12.953  10.948   6.498  0.3518  0.2233 -1.8893
86982SOL    HW272926  13.046  11.057   6.449  0.3548  1.7010  1.1824
86983SOL     OW72927   9.656   7.665  12.911  0.0061 -0.4797  0.0955
86983SOL    HW172928   9.623   7.726  12.845  2.6346 -0.7735 -1.6205
86983SOL    HW272929   9.591   7.594  12.912 -0.6872  0.1011 -1.3357
86984SOL     OW72930   6.986   0.655  13.555 -0.4605 -0.5416 -0.0382
86984SOL    HW172931   6.902   0.675  13.597 -0.1440  0.1115  0.3086
86984SOL    HW272932   7.039   0.616  13.625  0.2505  1.0360  0.3490
86985SOL     OW72933   6.262  10.585   7.803  0.1536 -0.4525 -0.5618
86985SOL    HW172934   6.313  10.647   7.856 -1.6374  0.6026 -0.0170
86985SOL    HW272935   6.279  10.612   7.713  1.2107 -0.6482 -0.4336
86986SOL     OW72936   8.392   8.300   2.788 -0.3333 -0.3613 -0.3275
86986SOL    HW172937   8.476   8.261   2.764  0.7769  1.3606  0.5322
86986SOL    HW272938   8.380   8.277   2.880 -0.2507  0.2747 -0.1490
86987SOL     OW72939   0.627  13.925   8.592 -0.4860 -0.3366 -0.3961
86987SOL    HW172940   0.600  13.861   8.527 -0.3321 -1.5502  0.6866
86987SOL    HW272941   0.692  13.879   8.645  0.2708  1.0085 -0.1116
86988SOL     OW72942  10.658   4.028   7.725  0.2556 -0.2080 -0.4378
86988SOL    HW172943  10.609   4.032   7.643  1.0134  0.0628 -0.8886
86988SOL    HW272944  10.688   3.938   7.731  2.3564  0.3299 -1.7784
86989SOL     OW72945   6.933   5.672  12.636  0.4720 -0.3698  0.6517
86989SOL    HW172946   6.857   5.728  12.652  0.7682 -0.0287  0.8842
86989SOL    HW272947   6.987   5.682  12.715 -0.2690 -2.2873  1.4777
86990SOL     OW72948   3.439   7.548   7.440  0.4920  0.0151  0.4511
86990SOL    HW172949   3.389   7.608   7.385 -1.0056 -1.6480 -0.0934
86990SOL    HW272950   3.420   7.576   7.529  0.1665  0.6186  0.1973
86991SOL     OW72951  12.465  10.392   4.206 -0.1915  0.3770  0.1263
86991SOL    HW172952  12.542  10.400   4.149  0.2853 -0.2619  0.6663
86991SOL    HW272953  12.468  10.471   4.260  1.1468 -0.5110  1.4065
86992SOL     OW72954  10.035  12.116   8.608 -0.0477  0.0818 -0.1797
86992SOL    HW172955   9.969  12.049   8.589 -0.4486  0.4515 -0.0953
86992SOL    HW272956   9.988  12.199   8.601 -0.6468  0.2711  3.8129
86993SOL     OW72957  13.626   5.780  12.502 -0.1607 -0.0492  0.1821
86993SOL    HW172958  13.533   5.795  12.488 -0.4428 -1.2065  0.7031
86993SOL    HW272959  13.660   5.866  12.528 -1.1584  0.2972  0.3968
86994SOL     OW72960   3.120   7.185  13.764 -0.2458 -0.6467  0.4280
86994SOL    HW172961   3.057   7.131  13.811 -0.2767 -0.9468  0.0395
86994SOL    HW272962   3.193   7.127  13.745 -0.6458 -0.7960 -0.7531
86995SOL     OW72963   7.781   0.331  10.367 -0.3747 -0.4901 -0.4864
86995SOL    HW172964   7.800   0.421  10.391  0.4747 -0.7669 -0.0746
86995SOL    HW272965   7.804   0.280  10.445  0.0400 -1.1570 -1.0326
86996SOL     OW72966  13.429  12.077  10.603 -0.6383  0.0543 -0.4250
86996SOL    HW172967  13.471  11.994  10.628  0.8669  0.0312 -2.7165
86996SOL    HW272968  13.433  12.078  10.508 -0.8547  2.6575 -0.4822
86997SOL     OW72969   8.714   7.978  12.797 -0.3689 -0.8463 -0.4119
86997SOL    HW172970   8.688   8.066  12.824 -0.4255 -1.2004  0.7385
86997SOL    HW272971   8.771   7.947  12.868 -0.6228 -1.8655 -0.6339
86998SOL     OW72972   6.249  12.278  13.841  0.7364 -0.1671 -0.2696
86998SOL    HW172973   6.323  12.308  13.788  2.5502 -1.8057  1.2015
86998SOL    HW272974   6.211  12.206  13.790  0.6331  0.1687 -0.6702
86999SOL     OW72975   6.702  10.391   5.384 -0.1128  0.1119  0.3543
86999SOL    HW172976   6.710  10.472   5.435  0.9156 -0.3725  0.9742
86999SOL    HW272977   6.792  10.368   5.361 -0.4204 -0.7392 -0.0178
87000SOL     OW72978   1.626   6.127  12.834 -0.1891  0.1051 -0.8974
87000SOL    HW172979   1.677   6.208  12.839 -0.9239  0.5263  0.1312
87000SOL    HW272980   1.579   6.133  12.751 -0.6630  1.0159 -0.5780
87001SOL     OW72981   3.991   1.177   8.529 -0.5722 -0.2301 -0.0907
87001SOL    HW172982   3.961   1.175   8.620  0.2634 -1.2257  0.1840
87001SOL    HW272983   3.983   1.086   8.499 -0.1667 -0.0454 -0.7921
87002SOL     OW72984  10.836  13.078   2.117  0.0893  0.6525 -0.0859
87002SOL    HW172985  10.781  13.153   2.094  0.1990  0.8603  0.3120
87002SOL    HW272986  10.919  13.117   2.146 -0.2351  0.4301  1.1708
87003SOL     OW72987  10.571   1.230   6.339  0.5445  0.3268  0.1668
87003SOL    HW172988  10.553   1.143   6.303  1.9422 -0.2284  0.7296
87003SOL    HW272989  10.505   1.243   6.407  2.1485 -1.6955  2.2926
87004SOL     OW72990   1.150  13.167   4.674  0.1542 -0.2367  0.9078
87004SOL    HW172991   1.139  13.172   4.579 -1.1989  1.7135  1.1246
87004SOL    HW272992   1.240  13.196   4.689 -0.1652  1.1298  0.3158
87005SOL     OW72993  11.975   1.494  13.784  0.4205  0.2791  0.4278
87005SOL    HW172994  11.918   1.491  13.861 -1.7219 -0.0253 -1.0974
87005SOL    HW272995  11.969   1.407  13.746  0.0574  0.9007 -1.0173
87006SOL     OW72996   0.646   7.682   6.981  0.5341  0.0268 -0.1198
87006SOL    HW172997   0.639   7.735   7.060 -1.1414 -0.3557  0.0208
87006SOL    HW272998   0.591   7.606   6.997  0.2401 -0.1146 -1.6013
87007SOL     OW72999   0.739   9.646   3.303 -0.9127 -0.5174 -0.7428
87007SOL    HW173000   0.746   9.658   3.208 -1.2274 -0.9383 -0.8203
87007SOL    HW273001   0.730   9.552   3.315 -1.2207 -0.4386 -0.3179
87008SOL     OW73002   3.102   6.201  12.431 -0.3482 -0.0367  0.0971
87008SOL    HW173003   3.103   6.297  12.433 -0.4174 -0.0221 -0.4183
87008SOL    HW273004   3.009   6.178  12.433 -0.3354 -0.0911  0.0540
87009SOL     OW73005   5.041   7.604  12.133  0.5506 -0.1246  0.4093
87009SOL    HW173006   5.051   7.538  12.201  0.0867 -0.0666  0.5398
87009SOL    HW273007   5.012   7.683  12.180 -1.6637 -0.5977 -0.0453
87010SOL     OW73008   3.008   7.434  13.886 -0.6825 -0.4721  0.4076
87010SOL    HW173009   3.044   7.370  13.824 -0.1239 -0.5775  0.8395
87010SOL    HW273010   2.919   7.450  13.854 -0.5216 -0.7953 -0.2155
87011SOL     OW73011   5.433   1.091   7.957 -0.1510 -0.2268 -0.0362
87011SOL    HW173012   5.508   1.086   7.898 -0.9042 -0.7049 -0.9829
87011SOL    HW273013   5.409   1.184   7.956 -0.2664 -0.2543 -0.6426
87012SOL     OW73014   2.957   2.054  13.376 -0.6398 -0.1995 -0.4129
87012SOL    HW173015   2.977   1.962  13.360 -0.3421 -0.0436 -0.9626
87012SOL    HW273016   3.012   2.102  13.314 -0.4389  0.3724  0.1974
87013SOL     OW73017   9.562   6.722   0.541 -0.4624 -0.2629 -0.4223
87013SOL    HW173018   9.597   6.748   0.626 -1.0284  0.1214 -0.2966
87013SOL    HW273019   9.480   6.676   0.562 -1.2895  0.9786 -0.7948
87014SOL     OW73020   5.806  11.078   4.873  0.1916 -0.2886 -0.1050
87014SOL    HW173021   5.778  11.103   4.785  0.7826 -1.8463 -0.7687
87014SOL    HW273022   5.862  11.150   4.902 -1.0105  0.8396 -0.4668
87015SOL     OW73023   9.450  11.696   0.791 -0.4158 -0.4880  0.5948
87015SOL    HW173024   9.488  11.623   0.742 -0.0010  0.1167 -0.0169
87015SOL    HW273025   9.523  11.756   0.804 -0.9428  0.2481  0.2586
87016SOL     OW73026   3.814  13.708   6.281  0.6577  0.3258 -0.3094
87016SOL    HW173027   3.879  13.721   6.212 -0.1572  0.7177 -1.0221
87016SOL    HW273028   3.731  13.732   6.240  0.1630  0.6070  0.8205
87017SOL     OW73029   8.623   5.524   8.169 -0.1036  0.0377 -0.0912
87017SOL    HW173030   8.612   5.519   8.074  0.7732 -0.5458 -0.1652
87017SOL    HW273031   8.533   5.522   8.203 -0.4025 -0.3363 -0.8773
87018SOL     OW73032   5.697  11.416   1.382 -0.1450 -0.2070  0.3609
87018SOL    HW173033   5.692  11.445   1.291 -1.5104 -0.4176  0.3526
87018SOL    HW273034   5.680  11.322   1.378  0.8805 -0.4185  0.7358
87019SOL     OW73035  10.372   8.666  10.973  0.0189 -0.3894 -0.1454
87019SOL    HW173036  10.367   8.616  10.891  3.5207  0.6521 -1.1899
87019SOL    HW273037  10.349   8.755  10.949  1.0044 -0.0892 -0.0208
87020SOL     OW73038  11.350   7.862   0.715 -0.5365 -0.2413  0.1602
87020SOL    HW173039  11.362   7.774   0.752  1.8492  0.0359  0.1865
87020SOL    HW273040  11.412   7.917   0.763  1.2428  0.5509 -2.7896
87021SOL     OW73041   8.983   3.552   3.270  0.2442 -0.0596  0.0504
87021SOL    HW173042   8.920   3.582   3.204 -0.8847 -0.7865  0.7570
87021SOL    HW273043   8.994   3.459   3.252  0.2909 -0.1596  0.5873
87022SOL     OW73044  14.043   6.262   1.013  0.0326 -0.4897 -0.5981
87022SOL    HW173045  14.056   6.169   0.995 -1.5377 -0.7202 -0.6919
87022SOL    HW273046  14.109   6.283   1.078  1.9405 -1.0829 -2.2223
87023SOL     OW73047   9.827   9.274   7.084  0.3477  0.0758 -0.2455
87023SOL    HW173048   9.913   9.314   7.089  1.0834 -1.3654 -0.8114
87023SOL    HW273049   9.843   9.180   7.092 -1.0843 -0.2862 -1.1699
87024SOL     OW73050   2.903   8.906  11.808  0.2070  0.7842 -0.0667
87024SOL    HW173051   2.899   8.998  11.782 -0.6304  0.9157  0.4756
87024SOL    HW273052   2.903   8.858  11.725  2.1037  1.2839 -0.3958
87025SOL     OW73053  12.084   3.541   8.829  0.1489  0.1846 -0.4570
87025SOL    HW173054  12.097   3.468   8.768 -0.6634  0.3808 -0.8785
87025SOL    HW273055  12.028   3.505   8.898  0.0038  0.3225 -0.5030
87026SOL     OW73056   9.348   0.051   0.863  0.4680  0.0474  0.1779
87026SOL    HW173057   9.308   0.035   0.948  0.8630  0.4689  0.4511
87026SOL    HW273058   9.276   0.044   0.801 -0.0039  0.6384  0.6447
87027SOL     OW73059   7.135   3.944  13.267 -0.1914  0.6325 -0.6254
87027SOL    HW173060   7.050   3.912  13.238 -1.2557  0.1028  2.5958
87027SOL    HW273061   7.123   3.962  13.360  3.9883 -2.6442  0.9243
87028SOL     OW73062   4.303   7.706   9.613  0.5144  0.2319  0.5509
87028SOL    HW173063   4.386   7.661   9.629  0.6547 -0.2622 -1.2955
87028SOL    HW273064   4.316   7.750   9.530 -0.8091  0.8345  0.6414
87029SOL     OW73065   3.826  13.428   9.973 -0.3129  0.5432  0.4156
87029SOL    HW173066   3.799  13.409  10.063  2.5137  0.2969  1.3338
87029SOL    HW273067   3.908  13.477   9.983 -0.3203  1.1635 -2.0463
87030SOL     OW73068  13.733   5.786   6.680  0.4704 -0.1360  0.1896
87030SOL    HW173069  13.643   5.753   6.686  0.5154 -0.4643 -0.7465
87030SOL    HW273070  13.724   5.874   6.644  0.4754  0.1859  0.9501
87031SOL     OW73071   4.495   3.586   7.746 -0.0278  0.1812  0.3260
87031SOL    HW173072   4.468   3.664   7.795 -0.4806  0.0327  0.3166
87031SOL    HW273073   4.547   3.536   7.809  1.5352  1.1834 -0.1069
87032SOL     OW73074   6.899  10.626  13.458  0.1145 -0.0181 -0.0573
87032SOL    HW173075   6.819  10.594  13.416 -0.0729 -0.9170  0.9502
87032SOL    HW273076   6.970  10.588  13.407 -0.0969 -2.2604  1.2091
87033SOL     OW73077   9.405  10.166  11.023 -1.0261  0.3598  0.1782
87033SOL    HW173078   9.454  10.158  10.941  0.6938  0.9501  1.1051
87033SOL    HW273079   9.337  10.099  11.017 -0.1931 -0.3948 -1.2301
87034SOL     OW73080   0.054   6.421   2.961 -0.0384 -0.5966  0.2471
87034SOL    HW173081  -0.003   6.345   2.946 -1.2120  0.2140  0.4307
87034SOL    HW273082   0.014   6.491   2.910  0.4039  0.1766  0.9347
87035SOL     OW73083   0.609   5.290   8.668  0.1938  0.0382 -0.1274
87035SOL    HW173084   0.612   5.205   8.712 -0.5780  0.6192  1.1247
87035SOL    HW273085   0.547   5.279   8.597 -0.2251 -0.3323  0.2927
87036SOL     OW73086   6.637  10.308   8.424  0.2268 -0.5439  0.3984
87036SOL    HW173087   6.600  10.356   8.498 -0.3750 -0.0623 -0.2004
87036SOL    HW273088   6.665  10.377   8.363 -0.9975 -0.9281 -0.6455
87037SOL     OW73089  12.969  13.182   0.121 -0.2320 -0.0666  0.1193
87037SOL    HW173090  13.036  13.113   0.126  0.4563  0.6061  0.3228
87037SOL    HW273091  12.891  13.142   0.159  0.5181 -0.3220  1.4391
87038SOL     OW73092   4.066   4.305  10.355 -0.0461 -0.2694 -0.4218
87038SOL    HW173093   4.115   4.362  10.296 -0.1715 -1.0359 -1.2929
87038SOL    HW273094   4.077   4.217  10.317  0.4227 -0.8777  1.0562
87039SOL     OW73095  11.726   4.908  11.071  0.2743  0.3204  0.3978
87039SOL    HW173096  11.757   4.962  10.998 -2.5961 -0.9091 -1.9480
87039SOL    HW273097  11.634   4.932  11.080  0.3458 -0.1811  3.1586
87040SOL     OW73098   4.766   9.538   8.751 -0.1250  0.8689 -0.2536
87040SOL    HW173099   4.722   9.504   8.673  0.2589  1.5407 -0.7750
87040SOL    HW273100   4.788   9.628   8.729  1.5013  0.5689 -0.0281
87041SOL     OW73101  13.657   9.254   4.433 -0.2015  0.6859 -0.3410
87041SOL    HW173102  13.729   9.235   4.373 -0.1617  0.5130 -0.2418
87041SOL    HW273103  13.625   9.167   4.460  1.9388  0.6002  2.4533
87042SOL     OW73104   5.673  13.123  12.638  0.4387  0.4144  0.1785
87042SOL    HW173105   5.611  13.195  12.649 -0.8120 -0.1786 -2.2344
87042SOL    HW273106   5.690  13.091  12.727 -1.0684  1.9474  1.0624
87043SOL     OW73107   6.295   8.087   6.577 -0.1298  0.5201 -0.3305
87043SOL    HW173108   6.246   8.014   6.614  1.2982 -0.0594  0.5172
87043SOL    HW273109   6.371   8.097   6.635 -0.1270  2.4900 -0.5984
87044SOL     OW73110   4.838   9.823   4.383 -0.5178 -0.2897 -0.8220
87044SOL    HW173111   4.892   9.885   4.334 -1.3699  0.2707 -1.0740
87044SOL    HW273112   4.842   9.742   4.333  1.0537 -0.6291 -0.1992
87045SOL     OW73113   9.139   2.276   3.396 -0.2221  0.1760 -0.0729
87045SOL    HW173114   9.160   2.197   3.445  1.6878 -0.0346 -1.1458
87045SOL    HW273115   9.193   2.271   3.317  2.4509  4.0248  1.2059
87046SOL     OW73116  11.454   0.222  10.363  0.2267  0.2418 -0.2097
87046SOL    HW173117  11.422   0.135  10.337  0.8187 -0.0439  0.0029
87046SOL    HW273118  11.549   0.213  10.363  0.2883  0.8739 -0.1105
87047SOL     OW73119   2.876   6.008  10.446  0.0158 -0.1557 -0.1897
87047SOL    HW173120   2.822   5.964  10.512  0.5032 -0.8536 -0.2415
87047SOL    HW273121   2.966   5.983  10.468  0.1889 -0.4135 -1.1203
87048SOL     OW73122   4.749   8.787   1.147  0.5242  0.0240  0.2765
87048SOL    HW173123   4.835   8.770   1.109 -0.5550 -1.4924 -1.7014
87048SOL    HW273124   4.705   8.702   1.146 -2.0359  1.1970 -1.6604
87049SOL     OW73125   9.179   4.515  11.324  0.2001 -0.0523  0.1775
87049SOL    HW173126   9.150   4.516  11.415 -1.2708  1.4688 -0.2577
87049SOL    HW273127   9.104   4.484  11.275 -0.0485  1.8718 -0.7696
87050SOL     OW73128  12.260   4.480   4.376  0.6239 -0.8229  0.2434
87050SOL    HW173129  12.258   4.509   4.284  1.1519 -0.6364  0.2865
87050SOL    HW273130  12.281   4.560   4.425 -1.3303 -0.5525  0.6953
87051SOL     OW73131   8.006   2.600  12.488  0.2198  0.2594  0.2979
87051SOL    HW173132   8.050   2.629  12.567 -0.2198 -1.1304  1.0791
87051SOL    HW273133   7.917   2.580  12.515 -0.4428  1.3771 -0.9099
87052SOL     OW73134   1.042  10.331   7.607  0.5880  0.4480  0.3566
87052SOL    HW173135   0.950  10.333   7.631  0.3538 -1.3095 -0.2371
87052SOL    HW273136   1.050  10.393   7.535 -0.6757 -1.1279 -1.2099
87053SOL     OW73137   0.806   5.672   1.734  0.1763  0.0511  0.0386
87053SOL    HW173138   0.730   5.649   1.680  0.5782  0.1281 -0.5783
87053SOL    HW273139   0.777   5.747   1.785 -0.0703  0.2764 -0.4222
87054SOL     OW73140  13.662  10.757   8.816  0.1137  0.0097  0.0254
87054SOL    HW173141  13.713  10.713   8.748  0.2602  0.3667 -0.0946
87054SOL    HW273142  13.725  10.775   8.885  0.1386  0.3760 -0.0885
87055SOL     OW73143   2.883   5.267   6.496  0.0343  0.0919  0.0191
87055SOL    HW173144   2.794   5.293   6.520  0.1425 -0.4020  1.0013
87055SOL    HW273145   2.897   5.185   6.544  0.6470 -0.3788 -0.9488
87056SOL     OW73146   2.744  11.621   2.036  0.3384  0.0171  0.3151
87056SOL    HW173147   2.820  11.573   2.003 -0.7180 -0.4208 -1.6366
87056SOL    HW273148   2.733  11.694   1.975  0.4769  1.3879  1.8546
87057SOL     OW73149   6.411   3.243   5.692  0.2604 -0.6292  0.5040
87057SOL    HW173150   6.415   3.277   5.782  1.6676  3.2090 -0.8024
87057SOL    HW273151   6.502   3.221   5.671 -0.1854 -2.4013  0.2060
87058SOL     OW73152  11.410   0.376  11.426  0.5331  0.0234 -0.2000
87058SOL    HW173153  11.491   0.325  11.433  1.1586  0.8095 -1.3530
87058SOL    HW273154  11.341   0.313  11.445  1.2636 -1.3456 -1.7935
87059SOL     OW73155  13.667  11.375  12.410 -0.4812 -0.1732 -0.0053
87059SOL    HW173156  13.731  11.430  12.364  0.6660 -0.1212  1.5627
87059SOL    HW273157  13.609  11.342  12.341  0.3082  1.0192 -1.2816
87060SOL     OW73158   9.908   9.105  11.179  0.2613  0.2990  0.0725
87060SOL    HW173159   9.845   9.104  11.107 -0.2128  0.6794  0.4784
87060SOL    HW273160   9.986   9.062  11.143  0.2726  1.1026 -0.8810
87061SOL     OW73161  11.363   0.448   8.554  0.4984 -0.2284  0.0135
87061SOL    HW173162  11.406   0.401   8.626  0.5379 -0.7214 -0.3318
87061SOL    HW273163  11.428   0.513   8.526  0.8916 -0.7434 -0.2787
87062SOL     OW73164   9.268  10.054   8.976  0.3840 -0.5016 -0.4556
87062SOL    HW173165   9.323  10.132   8.973  1.5198 -1.2720 -0.3048
87062SOL    HW273166   9.330   9.981   8.976 -0.6289 -1.5349 -3.3784
87063SOL     OW73167  13.934   0.610   4.671  0.0518  0.5643 -0.0064
87063SOL    HW173168  13.998   0.575   4.610  0.2072 -0.3455  0.6573
87063SOL    HW273169  13.975   0.601   4.757 -0.3369  1.4157  0.2840
87064SOL     OW73170  10.392   0.703  10.636  0.1576  0.1536  0.5001
87064SOL    HW173171  10.416   0.611  10.629  1.7457  0.4116  1.8154
87064SOL    HW273172  10.303   0.703  10.670 -0.1105 -0.8705 -0.1572
87065SOL     OW73173  12.904   3.054   2.918 -0.4693  0.4738 -0.0766
87065SOL    HW173174  12.861   3.123   2.867 -0.7113 -0.1985 -0.8044
87065SOL    HW273175  12.920   2.984   2.854 -2.5374 -1.2087  1.1247
87066SOL     OW73176  11.302  11.869  10.252 -0.1265  1.0568 -0.3493
87066SOL    HW173177  11.331  11.782  10.226 -1.9625  0.3295 -0.1214
87066SOL    HW273178  11.371  11.902  10.310 -0.6133 -1.4215  1.8449
87067SOL     OW73179   6.392  10.051  13.455  1.3795 -0.2000  0.2872
87067SOL    HW173180   6.423  10.021  13.370 -3.1572 -1.6842 -1.1465
87067SOL    HW273181   6.383  10.146  13.445  1.3937 -0.2955 -0.6888
87068SOL     OW73182  11.156   2.426  12.247  0.6741  0.5791 -0.5132
87068SOL    HW173183  11.170   2.483  12.172  0.3108 -0.0659 -1.0891
87068SOL    HW273184  11.218   2.354  12.234  1.4818  1.0901  0.4699
87069SOL     OW73185  12.256   4.612  13.017 -0.2014 -0.4567 -0.4294
87069SOL    HW173186  12.244   4.527  12.976 -0.3725 -1.4898  1.6643
87069SOL    HW273187  12.350   4.616  13.038 -0.1950 -0.1253 -0.5076
87070SOL     OW73188   8.615   1.349   7.323 -0.6772 -0.1203  0.8325
87070SOL    HW173189   8.654   1.268   7.354 -1.1818 -0.3374  0.9059
87070SOL    HW273190   8.675   1.418   7.353  1.3800 -0.6139 -1.7213
87071SOL     OW73191   4.175   6.920   0.681  0.2811 -0.5570  0.1606
87071SOL    HW173192   4.084   6.929   0.711  0.6120 -0.6966  1.2407
87071SOL    HW273193   4.214   7.005   0.700 -0.6167  1.0943 -4.0989
87072SOL     OW73194  12.904  12.699   9.533  0.4129 -0.7138 -0.0646
87072SOL    HW173195  12.918  12.626   9.593  0.1128 -0.2396  0.6028
87072SOL    HW273196  12.869  12.769   9.589 -1.6291 -0.8369 -1.1132
87073SOL     OW73197   7.284   1.639   3.090 -0.3885  0.1371  0.7538
87073SOL    HW173198   7.314   1.702   3.024 -1.1580 -0.6130 -0.3442
87073SOL    HW273199   7.278   1.690   3.171  1.3821  0.8784  0.4555
87074SOL     OW73200  11.732   9.600   8.834 -0.0699 -0.8530  0.3269
87074SOL    HW173201  11.823   9.604   8.863 -0.1997 -1.8874  0.8961
87074SOL    HW273202  11.713   9.689   8.803  0.5512 -0.1053  1.9749
87075SOL     OW73203  12.882   8.502   4.946 -0.1466  0.1540 -0.5412
87075SOL    HW173204  12.805   8.545   4.981  0.0106 -0.7421  0.9590
87075SOL    HW273205  12.952   8.521   5.009  0.0811 -1.6953 -0.1760
87076SOL     OW73206   7.783   0.878   6.539 -0.2766 -0.6904 -0.6959
87076SOL    HW173207   7.858   0.916   6.585 -1.0509  0.0876 -0.0346
87076SOL    HW273208   7.786   0.918   6.452 -1.8639  2.1080  0.3951
87077SOL     OW73209   1.168   2.536   0.939 -0.1902 -0.3868 -0.5664
87077SOL    HW173210   1.118   2.519   1.019 -0.9538 -0.2502 -0.9998
87077SOL    HW273211   1.184   2.630   0.939 -0.5732 -0.3181 -0.7830
87078SOL     OW73212  12.808   0.759   5.806 -0.3478  0.0427  0.4043
87078SOL    HW173213  12.805   0.780   5.713  2.7392  0.3316  0.2504
87078SOL    HW273214  12.840   0.669   5.810  0.3304  0.3058  1.1795
87079SOL     OW73215   0.771   8.069   6.087  0.0233 -0.1923  0.2768
87079SOL    HW173216   0.693   8.120   6.112 -1.1002  0.5945 -4.0702
87079SOL    HW273217   0.844   8.131   6.098 -0.7299  0.9199 -0.7015
87080SOL     OW73218   1.840   7.350   1.200  0.1720  0.2921 -0.3760
87080SOL    HW173219   1.896   7.394   1.135 -0.0562 -0.1624 -0.8828
87080SOL    HW273220   1.822   7.418   1.265  1.1024  0.5153 -0.3419
87081SOL     OW73221   7.729  11.410   2.465  0.2356 -0.3462 -0.0851
87081SOL    HW173222   7.650  11.382   2.419 -0.1353  0.3719  0.0826
87081SOL    HW273223   7.700  11.486   2.517  1.1866  0.3721 -0.5657
87082SOL     OW73224   7.246   8.495   5.552 -0.6651 -0.5037  0.6166
87082SOL    HW173225   7.241   8.584   5.586  1.0117 -0.9597  2.2345
87082SOL    HW273226   7.198   8.498   5.469  0.0170  2.0759  0.2316
87083SOL     OW73227  12.506   8.985   1.364  0.0063 -0.3670 -0.5316
87083SOL    HW173228  12.443   9.044   1.405  0.3152 -1.3391  1.4502
87083SOL    HW273229  12.454   8.911   1.332  0.1180 -1.4839  1.6801
87084SOL     OW73230   1.120   3.805  12.230 -0.2823  0.3122  0.0707
87084SOL    HW173231   1.204   3.762  12.212  0.2552  0.9821  0.9050
87084SOL    HW273232   1.058   3.733  12.241  0.2453 -0.2016 -0.2370
87085SOL     OW73233   6.954  11.607  12.137  0.0494  0.3937 -0.1946
87085SOL    HW173234   6.947  11.650  12.052  1.1401 -0.3510 -0.6788
87085SOL    HW273235   6.865  11.578  12.156 -0.1567  0.3063 -1.2280
87086SOL     OW73236  11.178  11.992   1.296  0.2355 -0.2170  0.3164
87086SOL    HW173237  11.100  11.959   1.250  1.7118 -2.2773 -0.8813
87086SOL    HW273238  11.224  12.044   1.230  0.4719 -0.0186  0.6373
87087SOL     OW73239  11.805   3.826   5.113 -0.3475  0.1533  0.3079
87087SOL    HW173240  11.815   3.785   5.027  1.9409 -0.9381  0.9861
87087SOL    HW273241  11.726   3.787   5.149 -1.0806  0.2691 -1.1060
87088SOL     OW73242  12.957  13.375  12.294 -0.4690 -0.8770 -0.5358
87088SOL    HW173243  12.897  13.341  12.360  0.6524 -3.2189 -0.6344
87088SOL    HW273244  13.040  13.386  12.339 -1.0164  3.2609 -0.1560
87089SOL     OW73245  12.999   7.833   3.180  0.8425  0.4968  0.3271
87089SOL    HW173246  12.995   7.923   3.213  0.1835  1.0152 -1.0790
87089SOL    HW273247  12.935   7.785   3.232  0.7751  0.9708  0.6910
87090SOL     OW73248   2.523  12.840   4.693  0.0731  0.4839 -0.1763
87090SOL    HW173249   2.600  12.877   4.736  0.4181 -0.6018  0.1789
87090SOL    HW273250   2.549  12.831   4.601 -0.2564  1.7284 -0.4078
87091SOL     OW73251  11.254   4.179   3.489 -0.8160 -0.3793 -0.6308
87091SOL    HW173252  11.235   4.271   3.507  0.8318  0.1817 -1.5302
87091SOL    HW273253  11.197   4.155   3.416  0.2642  0.5934 -1.8283
87092SOL     OW73254   5.470  12.541  10.272  0.1491 -0.4031 -0.6995
87092SOL    HW173255   5.512  12.458  10.297  1.9055  0.3012 -1.1803
87092SOL    HW273256   5.398  12.514  10.215  1.0261 -1.5888 -1.3005
87093SOL     OW73257  11.124   3.582   8.442 -0.2877 -0.0186  0.2781
87093SOL    HW173258  11.048   3.524   8.442 -0.0218 -0.3765  0.0701
87093SOL    HW273259  11.159   3.575   8.531  0.0057 -0.5410  0.1312
87094SOL     OW73260   2.296   4.107  11.997 -0.2313 -0.1188  0.0116
87094SOL    HW173261   2.341   4.186  12.024 -0.3546 -0.0841  0.1151
87094SOL    HW273262   2.248   4.132  11.918  0.4401 -0.3201 -0.4752
87095SOL     OW73263   9.208   6.617   7.379 -0.3000 -0.5076  0.1960
87095SOL    HW173264   9.224   6.697   7.428  0.2268  0.0174 -0.7910
87095SOL    HW273265   9.294   6.576   7.369 -0.3557 -0.4894 -0.4475
87096SOL     OW73266   8.131   4.013   5.436 -0.6994 -0.2369  0.3703
87096SOL    HW173267   8.080   3.934   5.418 -2.8016  1.2869 -0.8107
87096SOL    HW273268   8.105   4.038   5.525 -0.6587 -0.4367  0.4390
87097SOL     OW73269  13.060  12.392  13.941 -0.2573  0.1124 -0.3463
87097SOL    HW173270  13.036  12.445  14.016 -3.0795 -2.1962  0.5974
87097SOL    HW273271  12.987  12.403  13.879  0.7046 -0.1275 -1.5727
87098SOL     OW73272   0.085   0.439  13.453 -0.1139 -0.4042 -0.6228
87098SOL    HW173273   0.075   0.439  13.548  0.7796  0.0787 -0.5158
87098SOL    HW273274   0.179   0.430  13.439  0.1110  2.3132 -1.3906
87099SOL     OW73275  13.517   7.020  11.963 -0.2216 -0.2922 -0.4025
87099SOL    HW173276  13.502   7.104  12.007 -1.0787 -0.5396 -0.1952
87099SOL    HW273277  13.585   7.038  11.898 -0.5131  0.6023 -0.4692
87100SOL     OW73278   8.036  12.249  13.533 -0.4252 -0.8698  0.0814
87100SOL    HW173279   8.041  12.337  13.571 -1.0777  0.2161 -2.1744
87100SOL    HW273280   7.963  12.255  13.471 -0.0439 -2.8165 -0.5974
87101SOL     OW73281  13.259   4.845  12.174 -0.4824  0.1067  0.0285
87101SOL    HW173282  13.251   4.818  12.083 -1.9157  0.8739 -0.1059
87101SOL    HW273283  13.171   4.832  12.210  0.2336 -0.8673  1.5102
87102SOL     OW73284   6.772   0.102   0.330 -0.4440 -0.2334 -0.4727
87102SOL    HW173285   6.683   0.130   0.311  0.6478  2.6651 -1.9627
87102SOL    HW273286   6.796   0.150   0.409 -0.1008 -0.8125 -0.2120
87103SOL     OW73287   0.352   9.688   6.246 -0.7579  0.6666  0.4939
87103SOL    HW173288   0.308   9.750   6.187 -2.7307 -1.3964 -0.3425
87103SOL    HW273289   0.409   9.637   6.188 -0.9409  0.1518  0.7657
87104SOL     OW73290   1.459   3.139   1.148 -0.2281 -0.7082 -0.2447
87104SOL    HW173291   1.431   3.103   1.064  1.9113  0.2515 -1.4680
87104SOL    HW273292   1.551   3.161   1.135 -0.3868  1.4862  1.6842
87105SOL     OW73293   2.710   7.453   2.537 -0.2374  0.3157 -0.1394
87105SOL    HW173294   2.758   7.496   2.466 -1.6500  1.5757 -0.3808
87105SOL    HW273295   2.720   7.512   2.612 -2.4776  1.3861 -0.5678
87106SOL     OW73296   8.483   1.221   4.188 -0.4405 -0.1975 -0.3494
87106SOL    HW173297   8.410   1.283   4.186 -1.8665 -1.8087 -0.0361
87106SOL    HW273298   8.541   1.251   4.117 -1.5949  0.8692 -0.8859
87107SOL     OW73299   2.519   3.482  11.097  0.9290 -0.1389  0.2297
87107SOL    HW173300   2.436   3.501  11.142 -0.1691 -1.5031 -1.1324
87107SOL    HW273301   2.576   3.554  11.122 -0.0792 -0.0642  2.6278
87108SOL     OW73302   0.369  13.348  13.951 -0.0550 -0.2755  0.5994
87108SOL    HW173303   0.292  13.406  13.954  0.8393  0.9709  0.3553
87108SOL    HW273304   0.377  13.325  13.858 -0.3817 -0.7711  0.6896
87109SOL     OW73305  12.059   6.109   9.014  0.0499  0.4529 -0.4789
87109SOL    HW173306  11.987   6.057   8.978  0.9841 -0.7249 -0.7437
87109SOL    HW273307  12.017   6.183   9.057 -1.2828  0.0297 -1.0074
87110SOL     OW73308  10.000   0.403   6.899 -0.3929 -0.2318  0.1036
87110SOL    HW173309  10.032   0.422   6.811  0.2280  0.0505  0.3800
87110SOL    HW273310   9.905   0.402   6.891 -0.4072  1.4894 -0.2412
87111SOL     OW73311   1.990  12.741   1.716  0.3506  0.1063  0.0652
87111SOL    HW173312   1.944  12.685   1.780  0.5208 -0.0502  0.0517
87111SOL    HW273313   2.009  12.821   1.764 -0.3532  0.3631 -0.0651
87112SOL     OW73314   6.616   2.142  11.829 -0.5282 -0.5121 -0.3783
87112SOL    HW173315   6.626   2.161  11.736  0.3185 -2.2032 -0.6685
87112SOL    HW273316   6.702   2.113  11.857 -0.4172  1.2253  1.2836
87113SOL     OW73317  10.691   6.219  12.436  0.1969 -0.1412  0.5420
87113SOL    HW173318  10.653   6.267  12.510  0.7929  1.8027 -0.3411
87113SOL    HW273319  10.776   6.261  12.421  0.6385 -1.3236 -0.4608
87114SOL     OW73320   2.029   2.550   0.972  0.3539  0.2009 -0.0106
87114SOL    HW173321   1.940   2.540   1.007  0.7931 -1.1258  0.8066
87114SOL    HW273322   2.080   2.584   1.045  0.4596  1.3504 -0.5967
87115SOL     OW73323   3.451   5.242   0.737  0.1736 -0.0166 -0.7926
87115SOL    HW173324   3.546   5.257   0.730  0.3164 -0.0411  0.8499
87115SOL    HW273325   3.443   5.165   0.793 -0.8522  0.8109  0.2319
87116SOL     OW73326  11.907   0.935  11.055 -0.3073  0.1157  0.5700
87116SOL    HW173327  11.910   0.857  11.000 -4.5838  0.0414  0.1354
87116SOL    HW273328  11.916   0.901  11.145  1.5318 -0.3454  0.2573
87117SOL     OW73329  13.957   3.106   5.126 -0.4705 -0.5864  0.1358
87117SOL    HW173330  13.875   3.089   5.079  0.1783  0.2670 -1.3697
87117SOL    HW273331  13.930   3.118   5.217 -2.3311  1.9537 -0.6492
87118SOL     OW73332   9.822  13.952   2.155  0.3321 -0.0982 -0.3415
87118SOL    HW173333   9.770  13.872   2.147 -0.7973  0.6797 -0.9677
87118SOL    HW273334   9.902  13.924   2.200 -1.1683 -1.0890  1.9192
87119SOL     OW73335   8.353   3.297   4.085 -0.3931 -0.2775  0.7785
87119SOL    HW173336   8.439   3.297   4.043 -1.3804 -0.3613 -1.3794
87119SOL    HW273337   8.330   3.389   4.094 -0.5992 -0.2583  0.1426
87120SOL     OW73338   9.507  11.549   2.950 -0.0864 -0.0822  0.4510
87120SOL    HW173339   9.415  11.535   2.970 -0.3051  1.1481  0.3951
87120SOL    HW273340   9.526  11.636   2.986  1.0822 -0.3670  0.5641
87121SOL     OW73341   5.007   1.368   8.563 -0.1225  0.2038  0.3785
87121SOL    HW173342   4.995   1.439   8.500  0.5068  0.2534  0.3107
87121SOL    HW273343   5.057   1.407   8.634 -0.0107 -0.1033  0.4695
87122SOL     OW73344   1.661   6.168   7.498  0.3467 -0.3042 -0.4181
87122SOL    HW173345   1.590   6.154   7.437  0.3976  0.2591 -0.6113
87122SOL    HW273346   1.698   6.253   7.473 -0.4780  0.5946  1.2168
87123SOL     OW73347  13.793   0.649   0.938 -0.2506  0.3277  0.3338
87123SOL    HW173348  13.726   0.622   1.001 -0.9655  1.1626 -0.0481
87123SOL    HW273349  13.861   0.689   0.991  0.1414 -0.8622  0.7620
87124SOL     OW73350  11.840  12.241   2.116  0.3493 -0.2288  0.1703
87124SOL    HW173351  11.868  12.233   2.024 -0.4841 -2.7747  0.0370
87124SOL    HW273352  11.919  12.223   2.167  0.4678 -0.4470 -0.0862
87125SOL     OW73353   9.274   3.815   8.757 -0.1691 -0.3446 -0.4706
87125SOL    HW173354   9.279   3.832   8.663 -1.4946  0.2335 -0.4524
87125SOL    HW273355   9.326   3.884   8.797 -0.9950  0.4280 -0.7009
87126SOL     OW73356  10.540   5.855  11.930  0.1144 -0.2030  0.2531
87126SOL    HW173357  10.483   5.885  11.859 -1.1624 -1.3166  0.7679
87126SOL    HW273358  10.513   5.906  12.006 -0.5039 -1.0284  0.5971
87127SOL     OW73359  13.661   4.813   0.532 -0.1684  0.8987  0.3512
87127SOL    HW173360  13.592   4.879   0.524  0.9388  2.0533 -0.1379
87127SOL    HW273361  13.742   4.862   0.516  0.8217 -0.2887  1.5094
87128SOL     OW73362   9.159   2.388   4.182  0.0465  0.6308  0.1403
87128SOL    HW173363   9.083   2.394   4.240  0.4845  2.5626  0.5833
87128SOL    HW273364   9.223   2.338   4.232 -1.0133 -1.4073 -0.4094
87129SOL     OW73365  11.352   1.369   8.649 -0.0166  0.1452 -0.3799
87129SOL    HW173366  11.306   1.289   8.673  0.7204 -0.4781 -0.9728
87129SOL    HW273367  11.320   1.391   8.561  0.1718  0.1932 -0.4395
87130SOL     OW73368  12.947   5.921   5.555  0.4781 -0.1571  0.1166
87130SOL    HW173369  12.937   6.013   5.532 -0.2105 -0.6755 -1.8577
87130SOL    HW273370  12.927   5.917   5.649 -0.8818  1.5039 -0.0548
87131SOL     OW73371   3.303   5.045   6.161  0.6001 -0.4157  0.1627
87131SOL    HW173372   3.228   5.001   6.201 -0.3326  0.7340 -0.2646
87131SOL    HW273373   3.337   5.103   6.229  0.6251 -0.3711  0.1133
87132SOL     OW73374   4.215  10.655   8.339 -0.1762 -0.0858  0.2230
87132SOL    HW173375   4.245  10.608   8.417  2.1921  1.2043  0.1635
87132SOL    HW273376   4.249  10.603   8.265  0.4768  0.4737  0.1243
87133SOL     OW73377   9.312  11.297   3.331  0.5750 -0.1941  0.2304
87133SOL    HW173378   9.222  11.317   3.308  0.2847 -0.5681  1.0172
87133SOL    HW273379   9.362  11.375   3.306 -0.0594  0.2637  0.3827
87134SOL     OW73380   0.420   5.944   7.623  0.4670 -0.0805 -0.4383
87134SOL    HW173381   0.460   5.922   7.707 -1.1007  0.7796  0.5822
87134SOL    HW273382   0.378   5.863   7.595 -0.1532 -0.0274  0.3005
87135SOL     OW73383   1.504  11.011  12.703  0.1349  0.4518 -0.7488
87135SOL    HW173384   1.479  11.077  12.768 -1.8489  0.4133 -1.4013
87135SOL    HW273385   1.538  10.938  12.755  0.9382  1.3743  0.0688
87136SOL     OW73386   9.229  11.657   8.462  0.0015  0.5006 -0.5930
87136SOL    HW173387   9.297  11.719   8.435  0.8614 -0.3139 -0.3576
87136SOL    HW273388   9.205  11.685   8.550  1.2280 -0.1970 -0.0313
87137SOL     OW73389   5.028  13.070   4.138 -0.3444  0.2765  0.0186
87137SOL    HW173390   4.934  13.057   4.133 -0.7966  3.0556 -0.0415
87137SOL    HW273391   5.053  13.098   4.050  1.0040 -2.5194 -0.6125
87138SOL     OW73392   0.650   7.730   4.989  0.5579 -0.0397 -0.2201
87138SOL    HW173393   0.591   7.755   5.059  1.0967  0.0897  0.1997
87138SOL    HW273394   0.598   7.675   4.931  0.0861 -0.0821  0.2432
87139SOL     OW73395   2.488   5.997   2.528 -0.4723 -0.7566 -0.7186
87139SOL    HW173396   2.583   6.005   2.530 -0.5203 -0.0874  1.2639
87139SOL    HW273397   2.461   6.051   2.454  0.5511  1.3908  0.3771
87140SOL     OW73398  10.671   2.885   2.928  0.7326  0.3568  0.4291
87140SOL    HW173399  10.592   2.939   2.927  0.6259  0.2121 -0.5514
87140SOL    HW273400  10.650   2.812   2.986  0.5988  0.9693  1.1546
87141SOL     OW73401  12.575   4.551  11.673 -0.4973  0.5910  0.3761
87141SOL    HW173402  12.560   4.609  11.598  0.6972  0.8362  0.2968
87141SOL    HW273403  12.664   4.518  11.660 -1.2838 -1.6378  0.1846
87142SOL     OW73404   3.960   5.132  10.331  0.1745 -0.0005 -0.1963
87142SOL    HW173405   3.915   5.210  10.363 -1.0266  0.1846 -2.1661
87142SOL    HW273406   4.020   5.108  10.402 -1.5603  0.9404  1.6951
87143SOL     OW73407  10.168   8.701   5.414 -0.3222  0.2884  0.3713
87143SOL    HW173408  10.079   8.692   5.446  0.0814 -1.0224  1.1772
87143SOL    HW273409  10.222   8.702   5.493  0.5311 -0.9835 -0.1685
87144SOL     OW73410   3.867  13.254   2.462 -0.0043 -0.1549 -0.4007
87144SOL    HW173411   3.827  13.280   2.378 -1.4717 -1.4757 -0.1702
87144SOL    HW273412   3.823  13.172   2.484  1.9441 -1.0016  0.5854
87145SOL     OW73413   1.856   4.678  13.459  0.2087  0.0290 -0.2082
87145SOL    HW173414   1.815   4.615  13.518 -0.4855  0.5089 -0.1623
87145SOL    HW273415   1.782   4.717  13.411  0.7466 -0.3036 -1.3500
87146SOL     OW73416   1.738   5.810  12.616 -0.0557 -0.0028  0.3633
87146SOL    HW173417   1.679   5.741  12.646 -1.0718 -0.1375 -1.7896
87146SOL    HW273418   1.747   5.868  12.692 -2.5861 -0.2533  0.9570
87147SOL     OW73419   0.648   2.516  11.887  0.4712 -0.0813  0.2800
87147SOL    HW173420   0.656   2.428  11.848 -0.3605  0.0336 -0.1821
87147SOL    HW273421   0.700   2.512  11.966  0.6866 -0.9110  0.1056
87148SOL     OW73422  12.283  12.802  12.637  0.0367 -0.1490 -0.1322
87148SOL    HW173423  12.219  12.870  12.659 -1.3536 -1.1845 -0.8378
87148SOL    HW273424  12.346  12.805  12.709 -1.1875  0.4444  0.9573
87149SOL     OW73425   0.218   5.315   1.887 -0.0177 -0.2569 -0.4004
87149SOL    HW173426   0.192   5.249   1.951  0.6107  0.4688  0.6317
87149SOL    HW273427   0.149   5.382   1.893  0.5794  0.3129  0.2955
87150SOL     OW73428  12.249   0.814   2.866 -0.0878 -0.0870  0.8747
87150SOL    HW173429  12.284   0.902   2.864  1.3510 -0.6583 -0.6574
87150SOL    HW273430  12.202   0.804   2.783  1.5705 -1.4266  0.0370
87151SOL     OW73431   8.999  10.398   4.108  0.0665  0.7961  0.7274
87151SOL    HW173432   9.041  10.388   4.193 -0.7851  0.0727  1.0802
87151SOL    HW273433   8.926  10.458   4.124  0.5657  1.5323  0.2643
87152SOL     OW73434  10.958  11.099  13.328  0.9258 -0.2789  0.2071
87152SOL    HW173435  10.960  11.194  13.316  3.9634 -0.5028 -2.6917
87152SOL    HW273436  10.867  11.075  13.317  0.0189  2.2724  1.3540
87153SOL     OW73437   0.271   5.431   4.149  0.2240 -0.2973  0.0216
87153SOL    HW173438   0.189   5.417   4.197  0.7056  0.0082  0.9585
87153SOL    HW273439   0.339   5.395   4.206  0.7092 -0.9466 -0.9415
87154SOL     OW73440   0.988   4.575   4.710  0.0147  0.4123 -0.2518
87154SOL    HW173441   0.921   4.609   4.651  0.0749  1.2312  0.1253
87154SOL    HW273442   0.957   4.600   4.797  1.7909  2.6891 -0.1872
87155SOL     OW73443   1.851  13.873   9.180 -0.3453  0.2307 -0.0444
87155SOL    HW173444   1.768  13.889   9.135 -0.5718  2.8799  1.1691
87155SOL    HW273445   1.828  13.811   9.250 -0.7222 -1.0242 -1.2226
87156SOL     OW73446   7.918   3.011   9.991  0.4422  0.0953  0.5848
87156SOL    HW173447   7.958   2.927  10.014  0.4761 -0.0169  0.1197
87156SOL    HW273448   7.913   3.011   9.895 -0.4519  0.2103  0.6200
87157SOL     OW73449   7.931   4.865   4.599 -0.2977  0.0894 -0.0834
87157SOL    HW173450   7.946   4.959   4.586  3.0916 -0.4108 -0.6575
87157SOL    HW273451   7.855   4.845   4.544  1.0440  1.8875 -2.7918
87158SOL     OW73452  10.473   5.372   7.563  0.0862  0.0154 -0.1889
87158SOL    HW173453  10.452   5.412   7.647 -0.5924 -0.3229 -0.1931
87158SOL    HW273454  10.484   5.446   7.503 -1.4204  0.2064 -0.2564
87159SOL     OW73455   5.201  13.702   4.304  0.0254  0.0721  0.0756
87159SOL    HW173456   5.160  13.772   4.253  0.7282  0.2728 -0.2311
87159SOL    HW273457   5.196  13.733   4.395 -2.2340 -0.7834  0.3199
87160SOL     OW73458   2.905  13.974   9.141  0.0343  0.4063 -0.3147
87160SOL    HW173459   2.849  14.029   9.085 -0.6680  0.2284  0.2031
87160SOL    HW273460   2.845  13.936   9.205  0.7026 -0.0526  0.0483
87161SOL     OW73461  10.598   0.765   2.176 -0.7885 -0.3320  0.0483
87161SOL    HW173462  10.626   0.839   2.123  3.1112 -2.1487 -0.7767
87161SOL    HW273463  10.594   0.799   2.265  1.8829  0.7510 -0.1657
87162SOL     OW73464   8.009   8.780  12.098 -0.8280  0.2727 -0.4288
87162SOL    HW173465   8.014   8.704  12.155 -2.0833 -0.4641 -1.2558
87162SOL    HW273466   7.946   8.839  12.141 -1.6307 -0.1999 -0.9329
87163SOL     OW73467   5.987   0.783   3.701 -0.5628  0.0790 -0.2482
87163SOL    HW173468   5.941   0.706   3.733  0.5280 -1.1195 -1.4119
87163SOL    HW273469   5.954   0.855   3.754 -3.6748 -0.6913 -0.9420
87164SOL     OW73470   0.665   9.300   1.112 -0.0629 -0.0992 -0.5144
87164SOL    HW173471   0.659   9.241   1.037 -1.1303  0.4742 -0.8888
87164SOL    HW273472   0.699   9.245   1.183  0.4275 -0.7791 -1.2569
87165SOL     OW73473   3.024  11.500   8.555  0.2954  0.2908  0.1159
87165SOL    HW173474   3.024  11.493   8.651 -0.7009  1.6863  0.2584
87165SOL    HW273475   3.056  11.416   8.525 -0.6872 -0.7039  1.6676
87166SOL     OW73476   6.427   5.718   8.974 -0.5274 -0.0171 -0.4996
87166SOL    HW173477   6.492   5.648   8.968  0.6839  1.1020 -1.1037
87166SOL    HW273478   6.343   5.675   8.960  0.0517 -1.5410  0.4934
87167SOL     OW73479   6.007   0.506   0.650  0.0847 -0.4245  0.1090
87167SOL    HW173480   5.922   0.542   0.676  0.5778  0.7157  0.2195
87167SOL    HW273481   6.064   0.525   0.724  0.5977 -0.5811 -0.2431
87168SOL     OW73482   3.118  13.010   8.553  0.1088  0.1686 -0.4020
87168SOL    HW173483   3.065  13.043   8.626  2.0625  0.3021  1.0220
87168SOL    HW273484   3.093  13.064   8.478 -1.0646  0.8342  0.4401
87169SOL     OW73485   1.157   5.233   9.757 -0.5536 -0.1418  0.4976
87169SOL    HW173486   1.213   5.162   9.724  1.1392  1.3949 -0.0862
87169SOL    HW273487   1.139   5.287   9.680  0.5605  1.5856  1.3848
87170SOL     OW73488   8.387   1.801   3.048 -0.2971 -0.1301 -0.4216
87170SOL    HW173489   8.341   1.879   3.017 -1.1605  0.3850  1.9168
87170SOL    HW273490   8.475   1.809   3.011 -0.6915  1.3941 -1.1181
87171SOL     OW73491   4.207  11.803  11.193 -0.0230  0.0909  0.3469
87171SOL    HW173492   4.236  11.842  11.275  2.7118 -3.2551  1.2260
87171SOL    HW273493   4.271  11.833  11.128  0.1578 -0.3151  0.3309
87172SOL     OW73494   4.167   1.339   9.408  0.3951 -0.3509 -0.1117
87172SOL    HW173495   4.248   1.295   9.383  0.2207 -0.4514 -0.5157
87172SOL    HW273496   4.149   1.309   9.497  2.7601  2.5021  1.5161
87173SOL     OW73497   5.774   3.814   9.745  0.4576  0.4158 -0.4149
87173SOL    HW173498   5.846   3.760   9.711  0.9949 -1.2070  2.8456
87173SOL    HW273499   5.816   3.874   9.806 -0.8083  0.1951  0.7135
87174SOL     OW73500   4.649   5.193   8.779 -0.7465 -0.1098  0.1282
87174SOL    HW173501   4.611   5.204   8.866 -0.1542  0.7846  0.2844
87174SOL    HW273502   4.576   5.210   8.719 -1.3304 -1.4316  0.4423
87175SOL     OW73503   7.493   1.620  11.540  0.5706  0.0043 -0.0348
87175SOL    HW173504   7.551   1.544  11.548  2.3429  1.2644 -0.2624
87175SOL    HW273505   7.552   1.695  11.538 -1.0554  1.3358 -0.8959
87176SOL     OW73506  13.119   3.137  10.428  0.4658  0.1527 -0.2701
87176SOL    HW173507  13.041   3.081  10.434 -0.5586  1.1147 -2.9698
87176SOL    HW273508  13.146   3.130  10.337  2.9118  0.7542  0.3477
87177SOL     OW73509   9.008   0.634   0.212  0.4522 -0.0169 -0.6975
87177SOL    HW173510   9.069   0.584   0.158  0.8105  0.4010 -0.6812
87177SOL    HW273511   8.951   0.679   0.150  1.4403  1.1843 -0.7526
87178SOL     OW73512  13.511   0.897   3.293 -0.1469  0.4802  0.3925
87178SOL    HW173513  13.558   0.871   3.372 -0.4078  1.3677  0.8544
87178SOL    HW273514  13.569   0.870   3.221  0.1684 -0.1815  0.8896
87179SOL     OW73515  12.079  10.213   3.405 -0.4774 -0.9596 -0.0300
87179SOL    HW173516  12.138  10.195   3.479 -1.5348 -0.2964  1.0081
87179SOL    HW273517  12.081  10.132   3.353 -0.0424 -1.6018  0.9489
87180SOL     OW73518   9.670   9.626   4.689  0.0197  0.2586 -0.0481
87180SOL    HW173519   9.757   9.595   4.716 -0.2711  0.0135  0.6173
87180SOL    HW273520   9.611   9.592   4.756 -0.1877  3.1646  1.3789
87181SOL     OW73521   3.250   2.684   9.630 -0.0069 -0.0644 -0.7544
87181SOL    HW173522   3.261   2.592   9.605  0.1149  0.3096 -2.1470
87181SOL    HW273523   3.175   2.715   9.578 -0.2417  0.5439 -0.0715
87182SOL     OW73524   7.772  11.613   1.415 -0.8443  0.4301 -0.2423
87182SOL    HW173525   7.747  11.522   1.426  1.0353  0.0227  1.1341
87182SOL    HW273526   7.751  11.654   1.499 -2.7575  1.6270 -1.2019
87183SOL     OW73527   2.579  10.302  13.982 -0.0672  0.1194 -0.1551
87183SOL    HW173528   2.634  10.267  13.911  0.1841 -2.5180  1.2217
87183SOL    HW273529   2.498  10.327  13.939  0.8933  0.7012 -1.7021
87184SOL     OW73530  12.560  12.519  13.011  0.6658 -0.4397  0.2996
87184SOL    HW173531  12.561  12.480  12.924  3.3601 -0.4976  0.2789
87184SOL    HW273532  12.646  12.496  13.048  1.2076  2.9600  1.4287
87185SOL     OW73533   3.545   9.788  10.091  0.0601  0.6651  0.0797
87185SOL    HW173534   3.609   9.752  10.030  1.8099 -2.7066  3.4537
87185SOL    HW273535   3.585   9.868  10.124  1.0501  0.2931 -0.1937
87186SOL     OW73536  12.348   6.679   2.115  0.1179  0.0881 -0.1042
87186SOL    HW173537  12.393   6.717   2.040 -0.3474 -0.0877 -0.4771
87186SOL    HW273538  12.309   6.754   2.161 -0.9575  0.0668 -0.9421
87187SOL     OW73539  12.921   0.223   0.846  0.6502 -0.1357 -0.0751
87187SOL    HW173540  12.951   0.251   0.760  0.6033  0.4195  0.0867
87187SOL    HW273541  12.972   0.275   0.908  0.9712 -0.8200  0.2436
87188SOL     OW73542  12.621   6.065   7.967  0.6167 -0.4402  0.2395
87188SOL    HW173543  12.591   6.129   7.903 -0.2737 -0.9701  0.1160
87188SOL    HW273544  12.712   6.090   7.985  1.0519 -0.5965 -1.6064
87189SOL     OW73545   4.129  13.268   9.028  0.1696  0.3674 -0.4515
87189SOL    HW173546   4.211  13.242   9.069  1.4063  2.1843 -1.6136
87189SOL    HW273547   4.150  13.350   8.982 -1.7118 -0.2792 -2.6734
87190SOL     OW73548  13.879   2.580   8.904  0.4378 -0.0486  0.5127
87190SOL    HW173549  13.878   2.516   8.832  1.3679  1.1196 -0.5785
87190SOL    HW273550  13.932   2.539   8.972 -0.4427 -1.1650  0.5579
87191SOL     OW73551   8.665   3.594  13.001 -0.3554 -0.1134  0.2908
87191SOL    HW173552   8.615   3.530  13.053  0.6825  0.3896  1.9669
87191SOL    HW273553   8.731   3.541  12.957  0.8762 -0.2077  2.1245
87192SOL     OW73554   8.026   6.055  10.696  0.3744  0.0618 -0.5421
87192SOL    HW173555   8.064   6.043  10.782  3.2723  2.1217 -1.3921
87192SOL    HW273556   7.950   6.111  10.710  1.0587  0.7150  0.6355
87193SOL     OW73557  11.245   2.803  13.221  0.6053  0.0599  0.4312
87193SOL    HW173558  11.338   2.791  13.236  0.7150 -2.2813 -1.4976
87193SOL    HW273559  11.235   2.799  13.126 -1.4157  0.6836  0.5675
87194SOL     OW73560   4.834   5.217  11.210 -0.8872 -0.4805  0.4718
87194SOL    HW173561   4.840   5.209  11.305  0.1980 -0.1772  0.4421
87194SOL    HW273562   4.807   5.130  11.181  0.4050 -1.0721  0.9425
87195SOL     OW73563  11.711  11.905   9.593 -0.0826 -0.8062 -0.0595
87195SOL    HW173564  11.707  11.959   9.514  0.0006 -1.5112 -0.5528
87195SOL    HW273565  11.693  11.966   9.664 -2.0024 -0.4694 -0.7636
87196SOL     OW73566   1.079   3.626  13.983  0.0336  0.2567 -0.1083
87196SOL    HW173567   1.074   3.721  13.972  1.4371  0.1546 -2.6299
87196SOL    HW273568   0.992   3.595  13.961  0.1388  0.8742 -1.5701
87197SOL     OW73569   3.816   5.772  10.963  0.2709 -0.4320 -0.1045
87197SOL    HW173570   3.791   5.825  10.887  0.8535  0.3750  0.2554
87197SOL    HW273571   3.909   5.789  10.974  0.3435 -1.1040  0.3638
87198SOL     OW73572  10.179  10.322   8.716  0.0528  0.2816  0.0967
87198SOL    HW173573  10.136  10.269   8.650 -0.5922 -1.1176  1.5996
87198SOL    HW273574  10.123  10.399   8.725 -0.1773  0.1942 -0.5312
87199SOL     OW73575   6.150   6.100   0.309 -0.1657 -0.1282 -0.6913
87199SOL    HW173576   6.185   6.024   0.356 -0.0952  0.4049  0.1444
87199SOL    HW273577   6.214   6.119   0.241 -0.6807 -1.4341 -1.5758
87200SOL     OW73578   5.797  10.839  13.332  0.6006  0.4494 -0.4708
87200SOL    HW173579   5.718  10.846  13.279 -1.3956  0.2962  2.2711
87200SOL    HW273580   5.860  10.896  13.288 -1.4507  1.6422 -2.0589
87201SOL     OW73581   5.835   3.009   0.142 -0.0310  0.0108  0.0315
87201SOL    HW173582   5.858   3.094   0.180 -1.5428  0.1216  0.7868
87201SOL    HW273583   5.893   2.947   0.186  0.4834  0.5374  0.1156
87202SOL     OW73584   9.543   5.688   5.160 -0.0635  0.0367  0.4332
87202SOL    HW173585   9.589   5.772   5.163  0.4195 -0.1410 -1.0619
87202SOL    HW273586   9.539   5.659   5.251  0.9693  1.0288  0.8161
87203SOL     OW73587  12.212  11.444   8.547 -0.7334 -0.2152  0.3286
87203SOL    HW173588  12.301  11.444   8.583 -0.8000  1.0924  0.5167
87203SOL    HW273589  12.209  11.364   8.494  0.6352 -0.1646  0.1232
87204SOL     OW73590   8.642  13.891   5.244 -0.3856 -0.1693  0.2940
87204SOL    HW173591   8.663  13.835   5.319  1.8845  1.1908  0.7691
87204SOL    HW273592   8.577  13.953   5.278 -1.3308 -1.1605  0.3522
87205SOL     OW73593  13.984   3.157   2.467  0.0108  0.5077 -0.2782
87205SOL    HW173594  13.945   3.191   2.387 -1.9409 -0.1458  0.3443
87205SOL    HW273595  14.043   3.088   2.437  1.3895  2.0723 -1.2975
87206SOL     OW73596   0.144   9.959   1.445  0.1908 -0.3705 -0.2001
87206SOL    HW173597   0.058   9.965   1.402 -2.2498  0.2012  4.1926
87206SOL    HW273598   0.185  10.044   1.428 -2.0836  1.0849  1.0637
87207SOL     OW73599  10.368  12.224  10.634 -0.4898  0.5042 -0.2281
87207SOL    HW173600  10.286  12.193  10.672 -1.0997  1.0821 -1.0226
87207SOL    HW273601  10.355  12.217  10.539 -0.1187  1.8106 -0.4023
87208SOL     OW73602  12.542   6.319   9.638 -0.4293 -0.2065  0.1077
87208SOL    HW173603  12.576   6.231   9.622 -0.6148 -0.4460  0.9792
87208SOL    HW273604  12.550   6.331   9.733 -0.3390  0.7454 -0.0079
87209SOL     OW73605   6.853  10.034  11.493 -0.2388  0.4588  0.1816
87209SOL    HW173606   6.807  10.008  11.573 -0.7322  2.2501  0.5264
87209SOL    HW273607   6.783  10.059  11.433  0.1956  0.5648 -0.2840
87210SOL     OW73608   9.891   6.899  12.695  0.4758  0.1893  0.0195
87210SOL    HW173609   9.807   6.869  12.729 -0.0758 -0.0858 -1.5109
87210SOL    HW273610   9.871   6.935  12.609  1.8995  0.3025 -0.2871
87211SOL     OW73611   5.890  13.113  13.231 -0.0446  0.3008 -0.6600
87211SOL    HW173612   5.940  13.130  13.152  0.8151 -0.9310 -0.4144
87211SOL    HW273613   5.893  13.017  13.241 -1.0418  0.3441  0.2729
87212SOL     OW73614   5.961   3.780   5.564  0.5173 -0.6118 -0.2756
87212SOL    HW173615   6.002   3.764   5.648 -0.3162 -1.0204  0.0626
87212SOL    HW273616   5.991   3.868   5.539  0.0079 -0.0893  0.9008
87213SOL     OW73617   1.274   9.655  12.193 -0.5442  0.5478 -0.0905
87213SOL    HW173618   1.275   9.617  12.281 -1.9876 -1.1109 -0.7341
87213SOL    HW273619   1.189   9.698  12.187 -0.6667  0.2047 -0.8495
87214SOL     OW73620   9.124   7.190  12.018  0.4737  0.1995  0.4699
87214SOL    HW173621   9.030   7.209  12.021  0.6991  2.7926 -2.7865
87214SOL    HW273622   9.129   7.101  11.982 -0.6748 -0.3165  1.4910
87215SOL     OW73623   7.716   1.883   6.886 -0.0988  0.9773 -0.2586
87215SOL    HW173624   7.737   1.870   6.978 -0.4301  0.5388 -0.2425
87215SOL    HW273625   7.709   1.978   6.877  1.9226  1.1758 -0.2836
87216SOL     OW73626  13.449   5.689  12.034 -0.0012  0.0790 -0.0026
87216SOL    HW173627  13.522   5.722  11.980 -1.0216  1.5086 -0.5726
87216SOL    HW273628  13.371   5.727  11.994 -0.8209  1.2505  2.5104
87217SOL     OW73629   7.896   3.395   2.488 -0.2010 -0.0862  0.1980
87217SOL    HW173630   7.815   3.348   2.469 -0.7215 -0.1962  2.4142
87217SOL    HW273631   7.963   3.326   2.491 -0.3668 -0.2467  0.2337
87218SOL     OW73632  10.645  13.164   3.821 -0.4520  0.2957 -0.4357
87218SOL    HW173633  10.599  13.242   3.852  0.2791  0.2712  0.7650
87218SOL    HW273634  10.737  13.178   3.846  0.0308 -0.1136 -1.8772
87219SOL     OW73635   0.334   6.478   0.796  0.4873  0.1655  0.5102
87219SOL    HW173636   0.277   6.495   0.721  1.6002  0.3066 -0.3294
87219SOL    HW273637   0.422   6.490   0.762  1.1677 -2.4080  1.1108
87220SOL     OW73638   4.307   0.375   7.301 -0.4514 -0.6293 -0.5954
87220SOL    HW173639   4.344   0.394   7.215  1.3699 -0.5433  0.1613
87220SOL    HW273640   4.322   0.455   7.352 -1.2635 -0.7753 -0.1088
87221SOL     OW73641   8.816   5.412   3.770 -0.7247  0.1083 -0.4558
87221SOL    HW173642   8.826   5.359   3.691  0.8465 -1.0953  0.4742
87221SOL    HW273643   8.776   5.352   3.833  2.9214 -0.7872  1.2481
87222SOL     OW73644  10.451  13.879   6.819  0.1410  0.3639 -1.1478
87222SOL    HW173645  10.392  13.941   6.862 -0.0188 -0.3575 -0.3085
87222SOL    HW273646  10.393  13.826   6.764  0.1627  0.3733 -1.1808
87223SOL     OW73647   4.466   8.122   0.991 -0.5768  0.2916 -0.2510
87223SOL    HW173648   4.470   8.192   0.926  0.2606 -0.2582 -0.8079
87223SOL    HW273649   4.532   8.058   0.963  0.2850  0.3418  1.4964
87224SOL     OW73650   9.857   1.619  10.481 -0.1960 -0.9128 -0.5412
87224SOL    HW173651   9.784   1.564  10.454  0.0137 -0.8100 -1.3462
87224SOL    HW273652   9.863   1.686  10.413 -0.2799 -0.0442  0.2845
87225SOL     OW73653  10.795   0.599  12.309 -0.2686 -0.0333 -0.0673
87225SOL    HW173654  10.803   0.513  12.350 -1.5123  0.6883  1.8109
87225SOL    HW273655  10.704   0.625  12.325 -0.2087  1.2071 -1.5067
87226SOL     OW73656   4.289   5.027   3.018  0.4464 -0.0019  0.9342
87226SOL    HW173657   4.270   5.085   2.944 -0.3567 -2.5667 -1.0434
87226SOL    HW273658   4.229   5.055   3.087 -2.0697 -0.2620 -0.9901
87227SOL     OW73659   3.509  14.042  11.602 -0.0150 -0.1068  0.0361
87227SOL    HW173660   3.450  13.968  11.617 -0.3318  0.0742 -0.3107
87227SOL    HW273661   3.585  14.003  11.558 -0.5294 -0.1125 -0.8824
87228SOL     OW73662   5.600  10.493  13.023 -0.2014 -0.1945  0.1324
87228SOL    HW173663   5.551  10.438  12.962 -0.1245  1.0730 -1.1183
87228SOL    HW273664   5.670  10.532  12.970 -0.1374  0.9362  1.0098
87229SOL     OW73665   5.970   7.124   3.184  0.0090  0.2228 -0.4521
87229SOL    HW173666   6.061   7.097   3.186  0.1722  0.7907  0.8435
87229SOL    HW273667   5.968   7.208   3.230 -1.0200  0.6966 -1.3046
87230SOL     OW73668   5.681   0.408   9.075  0.0222  0.3113  0.2818
87230SOL    HW173669   5.766   0.371   9.052 -1.1703 -2.7461  0.1801
87230SOL    HW273670   5.638   0.425   8.991 -0.9624 -2.2732  0.1540
87231SOL     OW73671   6.950   2.751   8.501 -0.0923  0.2210  0.4392
87231SOL    HW173672   6.960   2.718   8.591  2.9285  0.4414  0.2663
87231SOL    HW273673   6.927   2.674   8.450  0.1047 -0.2871  1.0995
87232SOL     OW73674   2.020   0.061   9.234  0.1267  0.5553  0.4717
87232SOL    HW173675   2.087   0.047   9.302  0.6939  0.1586 -0.1485
87232SOL    HW273676   1.965  -0.017   9.238  1.3739 -0.4502 -0.8475
87233SOL     OW73677   4.493   8.995   8.508 -0.7957  0.0827 -0.5027
87233SOL    HW173678   4.567   8.984   8.568  1.2197  1.8697 -2.4777
87233SOL    HW273679   4.462   8.906   8.491  0.7568 -0.7076  0.5634
87234SOL     OW73680   9.530   8.782   6.071  0.2242  0.2813  0.1869
87234SOL    HW173681   9.541   8.814   5.982  0.6126  2.7736  1.0517
87234SOL    HW273682   9.602   8.721   6.084  1.5277  1.6164 -0.5163
87235SOL     OW73683  10.970   0.380  13.981 -0.4844  0.7487  0.2490
87235SOL    HW173684  10.958   0.337  14.066 -4.0875  0.1774 -0.3761
87235SOL    HW273685  11.000   0.311  13.923 -1.7907  0.1185  0.2731
87236SOL     OW73686   3.770  10.551  13.675 -0.2376  0.0235 -0.2939
87236SOL    HW173687   3.832  10.570  13.745  0.6341 -0.8504 -0.8084
87236SOL    HW273688   3.824  10.525  13.601 -1.2309 -2.5942 -0.2012
87237SOL     OW73689   1.342   4.122   0.023 -0.5779 -0.8158 -0.0498
87237SOL    HW173690   1.398   4.196   0.044 -0.7577 -0.3902 -0.9967
87237SOL    HW273691   1.400   4.046   0.026  0.0375 -0.3943 -0.9039
87238SOL     OW73692   8.857   0.731   4.918  0.2367  0.0916  0.0770
87238SOL    HW173693   8.767   0.761   4.925  0.4005  0.5941  0.0573
87238SOL    HW273694   8.908   0.794   4.969  0.3032 -1.5142  2.1512
87239SOL     OW73695  13.482   7.305   4.650 -0.2524  0.2424 -0.5982
87239SOL    HW173696  13.454   7.225   4.695 -1.0908  0.7766 -0.1464
87239SOL    HW273697  13.548   7.343   4.707 -0.2984  0.1939 -0.5135
87240SOL     OW73698  11.397   6.074   4.972 -0.3129 -0.4089 -0.1521
87240SOL    HW173699  11.445   6.045   4.895  2.6542 -0.2633  1.5055
87240SOL    HW273700  11.412   6.168   4.977  0.6039 -0.6013  1.2360
87241SOL     OW73701  13.397  13.832  13.527  0.6812  0.2123  0.9651
87241SOL    HW173702  13.323  13.817  13.585 -0.0636  0.9359  0.2247
87241SOL    HW273703  13.399  13.927  13.515  0.5800  0.0436 -0.5020
87242SOL     OW73704   3.479   5.213   4.504  0.2343  0.1402 -0.0751
87242SOL    HW173705   3.430   5.293   4.525  0.1733  0.0580  0.0952
87242SOL    HW273706   3.525   5.192   4.585 -0.5064 -0.5427  0.1832
87243SOL     OW73707  11.363   1.593   3.481  0.4496 -0.0834 -0.1596
87243SOL    HW173708  11.433   1.529   3.468 -0.3789 -1.0702  0.1462
87243SOL    HW273709  11.400   1.657   3.541  1.3270 -0.2096 -0.5515
87244SOL     OW73710  13.769  13.264   6.764  0.1416 -0.3672 -0.0968
87244SOL    HW173711  13.794  13.346   6.807 -1.0993  0.6158 -1.1738
87244SOL    HW273712  13.747  13.205   6.836 -0.9945  0.9339  0.6619
87245SOL     OW73713   4.604  13.529   4.771 -0.2164 -0.6854 -0.3931
87245SOL    HW173714   4.617  13.583   4.693 -0.2877 -1.5165 -0.9934
87245SOL    HW273715   4.682  13.546   4.824  0.2095 -0.6903 -0.9997
87246SOL     OW73716   5.537   7.728   8.639  0.0865 -0.4531  0.2859
87246SOL    HW173717   5.460   7.680   8.670 -0.3537 -0.4410 -0.7756
87246SOL    HW273718   5.503   7.793   8.578  0.9353 -0.3888 -0.1386
87247SOL     OW73719   8.973   4.196  11.428 -0.1861 -0.4702 -0.0304
87247SOL    HW173720   8.910   4.124  11.424 -0.6179 -0.0557 -1.9815
87247SOL    HW273721   9.033   4.172  11.498  0.4322 -3.3690 -1.4037
87248SOL     OW73722  11.226  11.620   4.256  0.2738 -0.1560 -0.0244
87248SOL    HW173723  11.256  11.555   4.192 -1.3036 -0.3485 -0.6163
87248SOL    HW273724  11.205  11.568   4.334  0.8350 -0.1047  0.1633
87249SOL     OW73725   1.210  13.650  11.906  0.7113 -0.3503 -0.4196
87249SOL    HW173726   1.213  13.744  11.893  1.3880 -0.5339 -1.7898
87249SOL    HW273727   1.293  13.618  11.871  0.1402 -1.5289 -0.7793
87250SOL     OW73728  13.353   4.933   4.461 -0.2306  0.5211  0.1158
87250SOL    HW173729  13.408   4.858   4.484 -0.9747 -0.5214 -1.3254
87250SOL    HW273730  13.374   4.951   4.369 -1.5147  0.7537 -0.1595
87251SOL     OW73731   6.439   3.996  13.813  0.4503  0.3317  0.4560
87251SOL    HW173732   6.519   3.963  13.772  0.8569  0.5301  1.0608
87251SOL    HW273733   6.391   3.918  13.839  0.7091  0.2060  0.5635
87252SOL     OW73734   2.327  11.171   1.571 -0.6466 -0.1384 -0.0805
87252SOL    HW173735   2.328  11.173   1.667 -0.4975 -1.0195 -0.0526
87252SOL    HW273736   2.397  11.230   1.545 -0.7821  0.2195  0.3558
87253SOL     OW73737   1.833   3.804   6.890 -0.1759 -0.6102  0.2853
87253SOL    HW173738   1.906   3.764   6.937 -0.3907 -1.0010  0.2886
87253SOL    HW273739   1.829   3.757   6.807 -1.1296 -1.3621  0.7395
87254SOL     OW73740   4.102   8.776   4.501  0.2096 -0.6113  0.0252
87254SOL    HW173741   4.046   8.802   4.574  2.5282 -0.7207  1.9484
87254SOL    HW273742   4.152   8.854   4.479  0.2400 -0.8489 -0.8118
87255SOL     OW73743   5.002   5.952  13.898 -0.1089 -0.2519 -0.0744
87255SOL    HW173744   5.086   5.954  13.943  1.2135 -0.6012 -2.3604
87255SOL    HW273745   4.990   6.040  13.865 -0.0678 -0.4724 -0.6941
87256SOL     OW73746   0.776   6.931   3.575 -0.5966  0.0234  0.8222
87256SOL    HW173747   0.780   6.835   3.569  1.2794  0.0780  0.4935
87256SOL    HW273748   0.750   6.960   3.488 -0.1921 -0.1517  0.6433
87257SOL     OW73749  10.487   1.979   1.131 -0.5989  0.1763 -0.2389
87257SOL    HW173750  10.489   1.899   1.183 -0.4719 -0.2057 -0.8238
87257SOL    HW273751  10.535   2.043   1.183  0.5827 -0.5379 -0.4289
87258SOL     OW73752  13.296   3.768  10.850  0.0678  0.0931 -0.3529
87258SOL    HW173753  13.378   3.737  10.887 -0.0736  0.7858  0.5600
87258SOL    HW273754  13.295   3.862  10.865 -0.6096  0.1918 -0.9177
87259SOL     OW73755  13.730   0.544  10.181  0.5484  0.1033 -0.3929
87259SOL    HW173756  13.697   0.517  10.266 -0.1495  0.3281 -0.5823
87259SOL    HW273757  13.825   0.551  10.192  0.5438 -0.6518  0.1416
87260SOL     OW73758   5.493  10.329   3.945  0.6183 -0.1267  0.1866
87260SOL    HW173759   5.466  10.417   3.917 -3.0456 -0.8931  0.7800
87260SOL    HW273760   5.528  10.342   4.034  0.5505  0.8020  0.0853
87261SOL     OW73761   1.817   2.156  13.315  0.4336  0.4688 -0.3174
87261SOL    HW173762   1.897   2.131  13.269 -0.5882  1.1302 -2.6197
87261SOL    HW273763   1.759   2.188  13.246 -1.8468 -0.0340  1.2472
87262SOL     OW73764   2.885   2.952   5.179  0.3420 -0.3130  0.0069
87262SOL    HW173765   2.933   2.872   5.156 -0.1700 -1.0005  1.2444
87262SOL    HW273766   2.915   2.973   5.268 -0.8367 -0.1435  0.3795
87263SOL     OW73767   7.578   4.682  11.041 -0.1317  0.0241  0.7815
87263SOL    HW173768   7.525   4.729  10.978  2.5008  0.1550 -1.5561
87263SOL    HW273769   7.640   4.747  11.074 -0.4582 -0.4179  2.3428
87264SOL     OW73770   0.007  11.470   7.801 -0.0210 -0.4091  0.2881
87264SOL    HW173771   0.001  11.543   7.739 -1.4045 -1.4225 -0.8512
87264SOL    HW273772  -0.084  11.441   7.813  0.4032 -1.3242  1.4738
87265SOL     OW73773   4.187  12.061  10.831 -0.3858 -0.5925 -0.2208
87265SOL    HW173774   4.154  12.131  10.775  0.4290 -0.8542 -1.0477
87265SOL    HW273775   4.110  12.033  10.882 -0.6684  1.0660  0.3353
87266SOL     OW73776   8.559  13.724   2.681 -0.1732  0.3399 -0.0752
87266SOL    HW173777   8.590  13.644   2.724 -0.8078 -0.9107 -1.8015
87266SOL    HW273778   8.470  13.736   2.715 -0.3209 -0.0896 -0.2968
87267SOL     OW73779   9.144  13.999   5.960 -0.4572  0.6518 -0.4769
87267SOL    HW173780   9.212  14.032   5.901  0.9626 -0.2328  0.5951
87267SOL    HW273781   9.108  14.076   6.002 -0.5046  1.1765 -1.4465
87268SOL     OW73782   2.828  10.893   5.966  0.1430 -0.5044 -0.0247
87268SOL    HW173783   2.743  10.884   5.923  0.6181 -1.4808 -0.7964
87268SOL    HW273784   2.852  10.985   5.954 -1.9469  0.4858  2.4389
87269SOL     OW73785  11.776   8.494   1.212  0.3081 -0.1447 -0.2559
87269SOL    HW173786  11.860   8.537   1.230 -0.0783  0.5180  0.0175
87269SOL    HW273787  11.773   8.421   1.273  0.8011 -0.3364 -0.4509
87270SOL     OW73788   2.858   2.202  12.926  0.7223 -0.2890  0.4094
87270SOL    HW173789   2.944   2.190  12.886  0.5313 -1.9766  0.4285
87270SOL    HW273790   2.796   2.187  12.854  0.3807  2.8699 -0.1130
87271SOL     OW73791  10.045  12.586  12.515 -0.3032 -0.2969 -0.0947
87271SOL    HW173792   9.966  12.579  12.460 -0.9913 -0.1019  0.8382
87271SOL    HW273793  10.098  12.652  12.471 -2.8751  3.3800  1.7955
87272SOL     OW73794  11.755   0.830   6.137  0.2851 -0.7936 -0.1473
87272SOL    HW173795  11.705   0.763   6.182  0.0337 -0.3745  0.1993
87272SOL    HW273796  11.811   0.869   6.204 -2.0156  1.6966  0.4941
87273SOL     OW73797   2.014  10.594   1.978  0.1483  0.2614  0.0125
87273SOL    HW173798   1.958  10.542   2.035  1.3470  0.7462  1.7286
87273SOL    HW273799   1.967  10.677   1.968 -0.1093  0.1406  0.2143
87274SOL     OW73800   9.294  12.088  11.489  0.7499  0.0593 -0.1601
87274SOL    HW173801   9.201  12.107  11.474  0.3314 -1.0545  0.9154
87274SOL    HW273802   9.311  12.009  11.437  1.0161  0.0784 -0.1029
87275SOL     OW73803   9.439   7.338  13.309 -0.4670  0.5392  0.1007
87275SOL    HW173804   9.477   7.374  13.389  0.2892 -0.4470  0.2147
87275SOL    HW273805   9.508   7.349  13.243 -1.0334  1.2207 -0.3934
87276SOL     OW73806  12.425   3.909   9.626 -0.0624  0.0191  0.3797
87276SOL    HW173807  12.387   3.984   9.579  0.5700  0.4976  0.6185
87276SOL    HW273808  12.430   3.840   9.560  1.7466  0.9890 -0.5755
87277SOL     OW73809   6.960  12.532   9.266 -0.1695  0.2852  0.0109
87277SOL    HW173810   7.035  12.590   9.280 -0.0269  0.0424  0.2427
87277SOL    HW273811   6.922  12.563   9.183  0.1237  0.4721 -0.0572
87278SOL     OW73812  10.187  13.341   7.240  0.0881 -0.1284  0.2678
87278SOL    HW173813  10.173  13.436   7.233 -1.6703 -0.4083 -0.5509
87278SOL    HW273814  10.214  13.314   7.152 -1.0323 -0.6069  0.0557
87279SOL     OW73815   2.234  13.312   6.755  0.9175 -0.5280  0.0610
87279SOL    HW173816   2.145  13.281   6.740  1.5310 -2.5335  0.3501
87279SOL    HW273817   2.225  13.407   6.759 -1.3816 -0.7161  1.1903
87280SOL     OW73818   9.201   1.153  11.564  0.4649 -0.3330 -0.5205
87280SOL    HW173819   9.162   1.111  11.641 -0.0346  0.5469 -0.2826
87280SOL    HW273820   9.288   1.113  11.557  0.9730  0.3621  1.1725
87281SOL     OW73821  13.874   8.374   1.568 -0.1573  0.4906 -0.1606
87281SOL    HW173822  13.900   8.307   1.504 -0.7105 -0.6583  0.7944
87281SOL    HW273823  13.796   8.339   1.610  0.5875  0.8724  1.6501
87282SOL     OW73824   3.281   1.432  12.711 -0.1664  0.0484  0.3525
87282SOL    HW173825   3.317   1.396  12.630 -1.4628 -1.1592  0.2762
87282SOL    HW273826   3.202   1.479  12.683 -1.0445 -1.0090  0.9636
87283SOL     OW73827   8.557  10.510   1.335 -0.0079  0.3557 -0.0271
87283SOL    HW173828   8.650  10.529   1.348 -0.0865  0.1316  0.9112
87283SOL    HW273829   8.555  10.449   1.262  0.7058 -0.8200  0.9019
87284SOL     OW73830   9.544   6.900   6.413  0.4100  0.0218  0.7438
87284SOL    HW173831   9.536   6.995   6.410 -0.2579 -0.0528 -0.7568
87284SOL    HW273832   9.635   6.883   6.388 -0.1875  0.2216 -1.9037
87285SOL     OW73833   0.701  12.444   1.581  0.4677 -0.5393 -0.5190
87285SOL    HW173834   0.717  12.510   1.649 -0.4075 -0.0946 -0.7365
87285SOL    HW273835   0.745  12.479   1.503 -0.5035  0.0972 -0.7955
87286SOL     OW73836   9.760   0.826   3.722 -0.0429  0.0515 -0.5290
87286SOL    HW173837   9.850   0.807   3.748 -0.6452 -1.3531  0.6702
87286SOL    HW273838   9.709   0.815   3.802 -1.8179 -3.3014 -1.8947
87287SOL     OW73839   7.218   6.696   5.128 -0.3861  0.0015 -0.2364
87287SOL    HW173840   7.236   6.659   5.215  0.5803 -0.2066 -0.5169
87287SOL    HW273841   7.233   6.624   5.067 -0.9268  0.1852 -0.5941
87288SOL     OW73842   0.445  10.108   9.360  0.3125 -0.0622  0.4437
87288SOL    HW173843   0.404  10.170   9.300  0.1815  0.3405  0.9427
87288SOL    HW273844   0.532  10.093   9.323  0.1428 -0.0080  0.0208
87289SOL     OW73845   1.227   0.753   1.422 -0.9948 -0.1070  0.8323
87289SOL    HW173846   1.226   0.770   1.327  0.7547 -0.4635  0.7277
87289SOL    HW273847   1.147   0.796   1.454 -0.6227  1.7334 -0.5216
87290SOL     OW73848  13.996   1.734  10.184  0.1232  0.4623 -0.3254
87290SOL    HW173849  14.000   1.794  10.259 -0.9578  0.3953 -0.2049
87290SOL    HW273850  14.007   1.791  10.108  0.0285  0.6880 -0.1716
87291SOL     OW73851   9.472   3.896   8.246 -0.0185  0.1127  0.1839
87291SOL    HW173852   9.495   3.979   8.287  1.7960  0.6413 -1.7269
87291SOL    HW273853   9.540   3.835   8.275 -1.4472 -0.8259  1.7322
87292SOL     OW73854   0.938   3.987   5.003  0.2390 -0.2524  0.0540
87292SOL    HW173855   0.942   3.929   5.079  1.2780 -0.6415 -0.2797
87292SOL    HW273856   0.845   4.002   4.988  0.0092  0.4383  1.8671
87293SOL     OW73857   0.139  10.604   3.527 -0.0784  0.3736 -0.0572
87293SOL    HW173858   0.087  10.650   3.461 -0.2323 -0.1110 -0.2781
87293SOL    HW273859   0.196  10.546   3.477  1.3601  1.5573  0.1239
87294SOL     OW73860  12.902   8.033  13.504  0.1540  0.0827 -0.3044
87294SOL    HW173861  12.877   8.123  13.481  0.9379  0.2989 -0.3573
87294SOL    HW273862  12.995   8.039  13.523  0.1183 -0.6463  0.1229
87295SOL     OW73863   0.162   8.403  10.066  0.5002 -0.1590  0.2059
87295SOL    HW173864   0.089   8.357  10.108 -0.8314 -0.6732 -2.4606
87295SOL    HW273865   0.229   8.336  10.053  0.4064 -0.2854  0.3633
87296SOL     OW73866   2.631   3.949   6.695  0.3589 -0.0741  0.0889
87296SOL    HW173867   2.665   3.876   6.643  1.9148  0.6297  0.0751
87296SOL    HW273868   2.566   3.991   6.638 -1.3896 -2.0381  0.4943
87297SOL     OW73869  11.343   4.383   8.308 -0.1965 -0.0724 -0.2182
87297SOL    HW173870  11.315   4.304   8.353  1.5926 -0.8272 -0.3435
87297SOL    HW273871  11.347   4.450   8.376  0.5579 -0.7013  0.3756
87298SOL     OW73872   3.341  11.329   1.312 -0.0661 -0.2827  0.4461
87298SOL    HW173873   3.375  11.389   1.379  0.2204 -0.0186  0.0653
87298SOL    HW273874   3.380  11.359   1.230  0.0486 -0.9574  0.2406
87299SOL     OW73875   6.868   0.883   5.558  0.3381  0.1352 -0.1911
87299SOL    HW173876   6.789   0.929   5.528 -0.1806  0.9939  2.2439
87299SOL    HW273877   6.838   0.794   5.576  0.0323  0.3223  0.2481
87300SOL     OW73878  11.960   2.990   5.252 -0.4559  0.1204  0.1040
87300SOL    HW173879  11.922   3.058   5.308 -0.1823  1.3040 -1.1044
87300SOL    HW273880  12.042   2.967   5.296 -0.7725  0.2223  0.7666
87301SOL     OW73881  13.459  12.880   4.901  0.4850  0.1887  0.6284
87301SOL    HW173882  13.494  12.968   4.913 -0.7701  0.5502  1.9153
87301SOL    HW273883  13.478  12.835   4.984 -0.9638  0.0257  0.8993
87302SOL     OW73884   1.863   9.165   0.617 -0.5731 -0.6646  0.8492
87302SOL    HW173885   1.894   9.197   0.532 -0.9621 -1.1902  0.5083
87302SOL    HW273886   1.939   9.174   0.674 -0.5354  0.4425  0.6530
87303SOL     OW73887   3.112   0.740   3.779  0.0357  0.2801 -0.1481
87303SOL    HW173888   3.126   0.822   3.731  0.1295  1.8796  2.3895
87303SOL    HW273889   3.198   0.698   3.783  0.4553  1.1488  0.2854
87304SOL     OW73890  12.479   5.738   3.826  0.0429  0.1351  0.0940
87304SOL    HW173891  12.394   5.733   3.869  0.0685 -1.5695  0.0008
87304SOL    HW273892  12.471   5.680   3.750  1.7667 -1.3350  0.9750
87305SOL     OW73893   0.280  13.547  10.267 -0.2018  0.3353  0.2014
87305SOL    HW173894   0.242  13.540  10.179  0.7443 -0.4713 -0.1516
87305SOL    HW273895   0.359  13.599  10.255  0.5909 -0.8209  0.3619
87306SOL     OW73896   4.514   1.158  11.084  0.4820  0.5312 -0.2977
87306SOL    HW173897   4.583   1.092  11.069 -0.7194 -0.8569  0.0124
87306SOL    HW273898   4.509   1.206  11.001  1.3766  0.2404 -0.5406
87307SOL     OW73899   4.832   6.182  10.965  0.2885 -0.1405  0.1278
87307SOL    HW173900   4.809   6.156  10.876  0.3577  0.2696 -0.0104
87307SOL    HW273901   4.795   6.113  11.020 -0.2796 -0.0821 -0.1724
87308SOL     OW73902   0.771   0.444   7.005  0.4105 -0.6377  0.2532
87308SOL    HW173903   0.768   0.349   7.013 -1.4169 -0.7212 -0.9980
87308SOL    HW273904   0.786   0.461   6.912  1.9751  0.3179  0.6473
87309SOL     OW73905   3.442   8.106   8.238  0.0329 -0.2420  0.1032
87309SOL    HW173906   3.519   8.094   8.293  0.3125 -0.4307 -0.3190
87309SOL    HW273907   3.474   8.152   8.161  0.0798 -1.7653 -0.8443
87310SOL     OW73908   5.733   7.411   7.754  0.2748  0.3563 -0.1812
87310SOL    HW173909   5.753   7.428   7.846  1.1412  0.8324 -0.4397
87310SOL    HW273910   5.819   7.411   7.711 -0.2030  1.3688 -1.1849
87311SOL     OW73911   9.595   7.192  11.705 -0.3671  0.6598 -0.0301
87311SOL    HW173912   9.675   7.155  11.666 -0.3286  0.6855  0.0246
87311SOL    HW273913   9.600   7.286  11.684 -0.2071  0.7218  0.2805
87312SOL     OW73914   5.231   1.275   8.288  0.5908 -0.1518  0.0488
87312SOL    HW173915   5.295   1.345   8.304  2.0307 -0.9499 -1.8374
87312SOL    HW273916   5.178   1.307   8.215 -1.6506  0.7358  1.9309
87313SOL     OW73917   4.353   2.039   7.616 -0.3016 -0.3092 -0.5324
87313SOL    HW173918   4.393   2.067   7.698 -1.5102 -0.3408  0.0901
87313SOL    HW273919   4.404   2.082   7.548 -0.2035  0.9240  0.2925
87314SOL     OW73920   3.373   2.383   2.280 -0.1145 -0.2199  0.0823
87314SOL    HW173921   3.365   2.461   2.335  0.3492  0.6166 -1.0018
87314SOL    HW273922   3.289   2.339   2.289 -0.1286  0.0244  1.2682
87315SOL     OW73923  13.974   9.557   0.415 -0.3174 -0.1744 -0.0603
87315SOL    HW173924  14.069   9.554   0.429 -0.2556  2.4491  0.6377
87315SOL    HW273925  13.942   9.617   0.483 -2.0951  1.1046 -1.9000
87316SOL     OW73926  11.710   5.800  10.491  0.1480  0.4596 -0.2383
87316SOL    HW173927  11.727   5.889  10.462  0.1847  1.0463  1.4973
87316SOL    HW273928  11.645   5.808  10.561  1.4139 -0.6596  1.1572
87317SOL     OW73929  13.259   2.107   2.414  0.3209 -0.2869 -0.1129
87317SOL    HW173930  13.220   2.119   2.501  1.1324  1.0846  0.0883
87317SOL    HW273931  13.210   2.166   2.357  1.7797  1.1790  0.0713
87318SOL     OW73932   7.679   0.218  13.497 -0.2355 -0.6019  0.0509
87318SOL    HW173933   7.584   0.234  13.500 -0.4427 -1.6713 -0.1616
87318SOL    HW273934   7.699   0.212  13.404  0.4052  1.4687  0.0172
87319SOL     OW73935   1.230  10.554   2.557 -0.2009  0.3008  0.8915
87319SOL    HW173936   1.153  10.522   2.510 -0.2273  0.3426  0.9068
87319SOL    HW273937   1.242  10.644   2.525 -0.5194  0.5076  1.3434
87320SOL     OW73938   1.550   8.307   5.061 -0.0060  0.5396  0.3186
87320SOL    HW173939   1.502   8.270   4.986  0.0754 -1.1802  1.0560
87320SOL    HW273940   1.637   8.267   5.054  0.5622  1.7331  0.3691
87321SOL     OW73941   4.492   9.438   9.782  0.0983  0.6224 -0.1165
87321SOL    HW173942   4.508   9.426   9.688  3.6419  0.3609  0.3636
87321SOL    HW273943   4.465   9.352   9.813  1.0066  0.1449 -0.6069
87322SOL     OW73944   5.487   3.289   2.561  0.4164 -0.3243 -0.4654
87322SOL    HW173945   5.397   3.320   2.559  0.2672 -0.6914  0.4282
87322SOL    HW273946   5.484   3.203   2.519  0.1604 -0.7986  0.5085
87323SOL     OW73947   1.670   8.197   0.779  0.6206  0.2972  0.3432
87323SOL    HW173948   1.585   8.227   0.812 -0.2794 -0.7496 -0.9465
87323SOL    HW273949   1.662   8.204   0.684  1.6794 -0.6142  0.1796
87324SOL     OW73950  11.013  10.019  13.501 -0.3324 -0.0431 -0.1799
87324SOL    HW173951  11.065  10.099  13.492 -0.1393 -0.1203  0.2007
87324SOL    HW273952  10.940  10.045  13.557 -0.5068 -0.0258 -0.4152
87325SOL     OW73953   5.800   2.685   7.093  0.2376 -0.3575  0.3656
87325SOL    HW173954   5.761   2.602   7.067  0.4344  0.3708 -2.7523
87325SOL    HW273955   5.887   2.662   7.126  0.5135 -1.3939 -1.0006
87326SOL     OW73956   4.067   4.687  10.610 -0.0538 -0.4938 -0.0572
87326SOL    HW173957   4.131   4.647  10.551 -0.1987 -0.4026 -0.2742
87326SOL    HW273958   3.994   4.713  10.554  0.6119  1.3506 -0.1444
87327SOL     OW73959   0.325   1.353   1.866  0.0081  0.5012  0.9835
87327SOL    HW173960   0.312   1.261   1.890 -2.4210 -0.1602 -2.2663
87327SOL    HW273961   0.256   1.399   1.913 -0.0082  0.3701  1.0913
87328SOL     OW73962  13.374   4.950   6.562 -0.0682  0.4456  0.5513
87328SOL    HW173963  13.290   4.921   6.598 -0.0078 -1.7923 -0.8903
87328SOL    HW273964  13.350   4.996   6.481  0.0557  0.8132  0.7214
87329SOL     OW73965  11.407   7.252  10.735  0.8247 -0.1151 -0.6294
87329SOL    HW173966  11.397   7.317  10.665  0.4220 -0.8012 -1.2296
87329SOL    HW273967  11.335   7.191  10.721  1.3749 -0.8591 -0.2726
87330SOL     OW73968   6.048   3.723   9.412 -0.7861 -0.2873 -0.3275
87330SOL    HW173969   6.010   3.787   9.473  3.1167  2.5077 -0.5119
87330SOL    HW273970   6.056   3.770   9.329  0.8111 -1.5322 -0.9266
87331SOL     OW73971   7.648   1.600   2.956 -0.2234 -0.0056 -0.3043
87331SOL    HW173972   7.658   1.567   3.045  0.2474  0.5733 -0.1389
87331SOL    HW273973   7.630   1.694   2.966  0.1782  0.1366 -0.8223
87332SOL     OW73974   0.126   6.172   0.381 -0.0404  0.6317 -0.0813
87332SOL    HW173975   0.068   6.244   0.355 -1.4623 -0.7863 -1.0808
87332SOL    HW273976   0.134   6.118   0.302  2.3042  0.5118  0.1675
87333SOL     OW73977  13.645   1.654  12.301 -0.2139 -0.3696  0.0200
87333SOL    HW173978  13.632   1.673  12.208  0.8233  0.4745  0.0218
87333SOL    HW273979  13.735   1.683  12.318 -0.3498 -0.6462  1.2540
87334SOL     OW73980   1.389   4.413   1.396 -0.3654  0.3830  0.3512
87334SOL    HW173981   1.307   4.429   1.350 -1.1205  0.4200  1.6664
87334SOL    HW273982   1.368   4.345   1.460  0.2943  1.2866  1.5631
87335SOL     OW73983   2.825   8.424   3.694 -0.1709  0.0141 -0.2649
87335SOL    HW173984   2.802   8.390   3.780  0.9013  1.0606  0.4725
87335SOL    HW273985   2.745   8.464   3.661  0.3064  3.3257  2.1078
87336SOL     OW73986  12.804   8.547   6.424  0.3036 -0.1989  0.7370
87336SOL    HW173987  12.826   8.527   6.515  0.3675  0.2508  0.8237
87336SOL    HW273988  12.739   8.481   6.399  2.8594 -2.6081 -0.0261
87337SOL     OW73989   6.742   0.203  10.785  0.0599 -0.7820 -0.2113
87337SOL    HW173990   6.766   0.259  10.860 -0.2865 -0.8265 -0.0635
87337SOL    HW273991   6.648   0.219  10.773  0.2800 -0.1425 -1.1690
87338SOL     OW73992   0.690  13.149  10.229  0.1401  0.6271 -0.1003
87338SOL    HW173993   0.761  13.130  10.168 -0.5276 -0.6939 -0.5037
87338SOL    HW273994   0.696  13.080  10.295 -0.0698  1.1851  0.5215
87339SOL     OW73995   7.947  12.901   4.952 -0.3969 -0.5094 -0.3340
87339SOL    HW173996   7.884  12.955   4.905 -0.5969 -0.6006 -0.1758
87339SOL    HW273997   7.896  12.863   5.024 -0.4722 -1.5885 -0.9411
87340SOL     OW73998  13.349   7.862   6.497 -0.5054 -0.2602  0.3959
87340SOL    HW173999  13.416   7.813   6.546  0.2005  0.9084  0.6536
87340SOL    HW274000  13.376   7.954   6.506 -1.5652  0.1462 -0.4019
87341SOL     OW74001   8.699   9.582  11.117  0.3056  0.5874  0.0559
87341SOL    HW174002   8.673   9.514  11.180  1.9301 -0.1335  0.0085
87341SOL    HW274003   8.705   9.662  11.169 -1.5878  0.7155  0.1262
87342SOL     OW74004   6.673   1.576   6.121  0.1279 -0.0180  0.0647
87342SOL    HW174005   6.713   1.493   6.148 -0.1099 -0.3065 -0.4461
87342SOL    HW274006   6.587   1.550   6.087  0.7295  0.2267 -1.7316
87343SOL     OW74007   5.715   5.253  12.038  0.2927 -0.4188 -0.4549
87343SOL    HW174008   5.754   5.278  11.955  0.2888 -2.0579 -0.9691
87343SOL    HW274009   5.626   5.224  12.015 -0.3162  0.7062  0.3534
87344SOL     OW74010   7.609   0.535  11.283 -0.1053 -0.6384  0.1944
87344SOL    HW174011   7.657   0.541  11.200  0.0107 -1.6679  0.1770
87344SOL    HW274012   7.646   0.605  11.337 -1.0724  0.8799 -1.0597
87345SOL     OW74013  10.476   3.343  13.669 -0.1571  0.2870 -0.1364
87345SOL    HW174014  10.558   3.322  13.624  0.7510  1.7249  0.7676
87345SOL    HW274015  10.455   3.432  13.639  0.5344  1.3468  2.2773
87346SOL     OW74016   3.311   3.351  10.189  0.2191  1.0910  0.0217
87346SOL    HW174017   3.274   3.417  10.248  1.8917  1.3533  0.8414
87346SOL    HW274018   3.386   3.316  10.237 -0.8758 -1.7760 -0.1853
87347SOL     OW74019   9.580  10.480   8.079 -0.1982 -0.0348  0.4168
87347SOL    HW174020   9.673  10.455   8.076 -0.3020 -0.3613 -0.9317
87347SOL    HW274021   9.578  10.560   8.132  1.2666  1.4855 -1.6338
87348SOL     OW74022   7.768  12.444   5.808  0.9578 -0.2296  0.2729
87348SOL    HW174023   7.859  12.415   5.797  0.9761  0.2675 -1.0421
87348SOL    HW274024   7.759  12.517   5.748 -0.9638 -1.7208 -1.4048
87349SOL     OW74025   4.315   5.891   0.673 -0.1628  0.3883  0.7137
87349SOL    HW174026   4.255   5.939   0.616  0.8858  0.9882  0.0826
87349SOL    HW274027   4.365   5.835   0.613  1.1753  1.2624  0.9743
87350SOL     OW74028   2.487   9.402  12.967 -0.7226  0.3794 -0.1462
87350SOL    HW174029   2.423   9.336  12.939 -1.9055  1.6004 -0.4756
87350SOL    HW274030   2.434   9.480  12.986  0.6825  1.5052 -0.6157
87351SOL     OW74031  11.881  14.012   5.601 -0.1725  0.5264 -0.2095
87351SOL    HW174032  11.795  13.972   5.587 -0.9709  2.3555 -0.7399
87351SOL    HW274033  11.939  13.966   5.540 -1.3313  1.0192 -1.7291
87352SOL     OW74034   6.289  11.060  10.898  0.1389  0.2264  0.2489
87352SOL    HW174035   6.300  11.000  10.971 -1.4261  0.3583  0.6347
87352SOL    HW274036   6.263  11.005  10.825  2.3102  0.0122 -0.4387
87353SOL     OW74037   3.220   4.337   6.194  0.8258 -0.2686  0.5589
87353SOL    HW174038   3.265   4.265   6.150 -1.2512 -2.2208  1.4365
87353SOL    HW274039   3.178   4.386   6.124  1.8874 -0.1420 -0.0117
87354SOL     OW74040   2.773   7.955   7.475  0.0692  0.1581 -0.2461
87354SOL    HW174041   2.762   8.002   7.558  0.1889  1.1476 -0.7688
87354SOL    HW274042   2.813   7.872   7.500 -2.9800 -1.0838  1.0914
87355SOL     OW74043   8.126   9.103  12.195 -0.6069 -0.3599  0.0352
87355SOL    HW174044   8.163   9.150  12.121  1.2246 -3.5949 -1.3006
87355SOL    HW274045   8.201   9.064  12.240 -1.9135 -1.1333  1.6816
87356SOL     OW74046  13.769   5.727   7.359  0.1147  0.1426 -0.1476
87356SOL    HW174047  13.798   5.693   7.274  1.6397 -2.1112  1.1602
87356SOL    HW274048  13.757   5.821   7.344 -1.0712 -0.3618 -3.1768
87357SOL     OW74049   4.717   1.568  10.284 -0.2238 -0.0322  0.8886
87357SOL    HW174050   4.733   1.604  10.197 -0.3388  0.5988  1.1232
87357SOL    HW274051   4.783   1.609  10.340 -1.6658  1.4946  1.5778
87358SOL     OW74052  11.433   9.320   6.452  0.1891 -0.4197 -0.2660
87358SOL    HW174053  11.517   9.366   6.453  0.6466 -1.2374  0.4734
87358SOL    HW274054  11.455   9.229   6.472 -0.9292 -0.5481  0.4854
87359SOL     OW74055   2.203   6.017  14.006 -0.4314  0.1347 -0.0871
87359SOL    HW174056   2.201   5.938  13.953 -0.0472  0.9591 -1.3808
87359SOL    HW274057   2.154   6.081  13.955 -0.9710  0.6675  1.0672
87360SOL     OW74058   1.614   5.301   2.212  0.1227 -0.0019  0.0957
87360SOL    HW174059   1.621   5.213   2.175 -1.4201  0.8619 -2.5566
87360SOL    HW274060   1.700   5.340   2.194  0.6346 -0.7686  0.8054
87361SOL     OW74061   3.841  10.216  12.243 -0.1125  0.2371 -0.0433
87361SOL    HW174062   3.792  10.247  12.167 -0.5202 -1.6303 -0.5883
87361SOL    HW274063   3.919  10.174  12.206  0.0268 -0.0894  0.6103
87362SOL     OW74064   7.070   9.838  11.529 -0.7020  0.3505 -0.8492
87362SOL    HW174065   7.063   9.839  11.624  1.2938  1.1203 -0.6670
87362SOL    HW274066   7.011   9.908  11.500 -0.4746  0.8571 -0.1075
87363SOL     OW74067  13.292   5.478  13.571 -0.6286  0.0039  0.6982
87363SOL    HW174068  13.258   5.481  13.481 -2.2519 -0.9334  1.2382
87363SOL    HW274069  13.254   5.555  13.613 -0.0898  0.2905  0.6690
87364SOL     OW74070   0.749   9.751   0.720 -0.1991  0.4265 -0.0022
87364SOL    HW174071   0.693   9.674   0.711 -0.9409  1.0939 -1.3801
87364SOL    HW274072   0.838   9.718   0.702 -0.0454 -0.6585  2.3185
87365SOL     OW74073   1.636   9.904  12.149 -0.8281  0.5350 -0.6901
87365SOL    HW174074   1.593   9.819  12.153  0.3429 -0.0519 -0.3544
87365SOL    HW274075   1.600   9.952  12.224 -1.4450  0.3328 -0.8470
87366SOL     OW74076   3.283   0.428   6.445 -0.5049 -0.1427  0.1147
87366SOL    HW174077   3.238   0.506   6.477 -0.5597 -0.3535  0.5541
87366SOL    HW274078   3.304   0.449   6.354  2.1921  1.6258  1.0042
87367SOL     OW74079   8.984   8.932   1.561 -0.8665  0.7174  0.2190
87367SOL    HW174080   9.056   8.984   1.597  0.2211 -0.1570 -0.6265
87367SOL    HW274081   8.930   8.912   1.637  0.9545 -0.4232  1.3098
87368SOL     OW74082  10.879  11.909  12.551  0.2184  0.2700 -0.2370
87368SOL    HW174083  10.857  11.862  12.471 -0.0045  1.3176 -0.8099
87368SOL    HW274084  10.837  11.859  12.621 -3.2468  1.6119 -1.1565
87369SOL     OW74085  13.962  12.957   6.226 -0.2404  0.3720  0.6448
87369SOL    HW174086  13.931  12.869   6.204 -0.4005  0.4016  0.7479
87369SOL    HW274087  14.006  12.946   6.311  1.3358  0.0500 -0.1773
87370SOL     OW74088   6.994   1.740   5.167 -0.3183 -0.5014  0.0256
87370SOL    HW174089   7.069   1.780   5.124 -0.5292 -0.1177  0.0050
87370SOL    HW274090   6.994   1.649   5.137 -1.1046  0.0162 -1.7091
87371SOL     OW74091   5.809   3.115   4.636 -0.0093 -0.4538 -0.0296
87371SOL    HW174092   5.882   3.177   4.631  0.4384 -1.0737 -2.6662
87371SOL    HW274093   5.732   3.166   4.610  0.1177 -0.6406 -0.7935
87372SOL     OW74094   0.768   1.649   0.160 -0.2159 -0.6232 -0.2394
87372SOL    HW174095   0.817   1.729   0.139  0.3353 -0.6971  0.7115
87372SOL    HW274096   0.807   1.618   0.241 -1.7026 -0.8191  0.4245
87373SOL     OW74097   0.796   9.024  12.556  0.0822  0.2646  0.0056
87373SOL    HW174098   0.726   8.964  12.579 -0.2700  1.0059  0.9187
87373SOL    HW274099   0.768   9.065  12.474  0.3625 -0.8444 -0.6664
87374SOL     OW74100  11.411   0.715   1.875 -0.0758  0.3988  0.2777
87374SOL    HW174101  11.381   0.805   1.868  0.5096  0.6747  1.0964
87374SOL    HW274102  11.505   0.723   1.891  0.3982 -0.4224 -1.8301
87375SOL     OW74103   7.513  12.953   2.715 -0.1443  0.5474  0.0296
87375SOL    HW174104   7.492  13.022   2.652  0.1153  0.2546 -0.3910
87375SOL    HW274105   7.516  12.873   2.662 -1.1645  0.0913  0.6320
87376SOL     OW74106   6.157   3.647   3.280  0.5951 -0.0953  0.0875
87376SOL    HW174107   6.177   3.603   3.363 -1.8686 -2.6221 -0.5099
87376SOL    HW274108   6.064   3.630   3.266  0.2650  2.7043 -1.8762
87377SOL     OW74109  12.857   0.507  13.004 -0.2229 -0.1608  0.5008
87377SOL    HW174110  12.837   0.423  12.963 -0.6743 -0.2482  0.8874
87377SOL    HW274111  12.926   0.487  13.067 -0.7987 -0.3863  1.0808
87378SOL     OW74112   6.333   8.226   5.899 -0.3055  0.1269 -0.0444
87378SOL    HW174113   6.261   8.194   5.955 -1.0651 -1.1164 -1.6585
87378SOL    HW274114   6.349   8.316   5.930 -1.9114  0.1044  0.9790
87379SOL     OW74115   5.612  11.362   6.362  0.4182 -0.0726 -0.5848
87379SOL    HW174116   5.658  11.409   6.432 -0.8515 -3.0305  2.5012
87379SOL    HW274117   5.520  11.389   6.371 -0.0151 -1.6315  0.0225
87380SOL     OW74118  11.582  10.595   0.823  0.2901 -0.3742 -0.6673
87380SOL    HW174119  11.550  10.606   0.734  0.1871 -0.6752 -0.6704
87380SOL    HW274120  11.581  10.683   0.860 -2.8043 -0.5949  0.0912
87381SOL     OW74121   7.706  12.034   0.402 -0.6412  0.3561  0.7884
87381SOL    HW174122   7.768  12.052   0.331  0.2300  1.9647  1.8779
87381SOL    HW274123   7.632  11.993   0.359  0.2246  0.4855 -0.9237
87382SOL     OW74124   0.609   8.754   6.078 -0.4372 -0.0734  0.1972
87382SOL    HW174125   0.519   8.784   6.087 -1.0876 -2.0052  0.8039
87382SOL    HW274126   0.651   8.817   6.020 -2.0252  1.1746  0.3578
87383SOL     OW74127  12.313   4.301  12.379  0.1204  0.4956 -0.2183
87383SOL    HW174128  12.323   4.393  12.353 -0.9214  0.4502 -0.8040
87383SOL    HW274129  12.226   4.297  12.419  0.5790 -0.0280  0.7616
87384SOL     OW74130   5.792   0.356   5.438  0.4878 -0.2589 -0.1591
87384SOL    HW174131   5.811   0.290   5.504  0.9426 -0.8743 -0.8939
87384SOL    HW274132   5.878   0.385   5.407  0.2947 -0.8769 -1.3488
87385SOL     OW74133   5.626   3.309   3.841  0.4410 -0.2110  0.0327
87385SOL    HW174134   5.533   3.326   3.825  0.4380  0.7371  0.9230
87385SOL    HW274135   5.627   3.249   3.915  0.5396 -0.3391 -0.0722
87386SOL     OW74136   9.486  10.124   5.782 -0.0015 -0.3458 -0.1951
87386SOL    HW174137   9.501  10.106   5.875  1.0448  0.2263 -0.2220
87386SOL    HW274138   9.427  10.055   5.752 -0.6007 -0.3586  0.9623
87387SOL     OW74139   6.388   1.553   2.504  0.3298 -0.0459  0.3423
87387SOL    HW174140   6.426   1.515   2.424  0.3744  1.6151 -0.4506
87387SOL    HW274141   6.294   1.549   2.489  0.2954 -0.7386  0.6996
87388SOL     OW74142  12.866   6.901  10.372  0.0313 -0.0311 -0.1234
87388SOL    HW174143  12.846   6.891  10.279 -0.2364  0.1950 -0.0948
87388SOL    HW274144  12.931   6.834  10.391 -0.8714 -0.9496 -0.1798
87389SOL     OW74145  11.580  10.825   5.956  0.2044  0.0702  0.0783
87389SOL    HW174146  11.674  10.833   5.972  0.1936 -1.0370  0.8196
87389SOL    HW274147  11.544  10.791   6.038 -0.7409 -0.1606 -0.4151
87390SOL     OW74148   0.379   6.664  12.496  0.1684 -0.3281 -0.4580
87390SOL    HW174149   0.332   6.711  12.565 -0.2288 -0.9453 -0.3069
87390SOL    HW274150   0.346   6.575  12.500  0.6842 -0.5494 -0.9634
87391SOL     OW74151   3.847   2.373   1.993 -0.5333 -0.0472  0.3106
87391SOL    HW174152   3.876   2.462   1.972 -0.5062 -0.2688 -0.6196
87391SOL    HW274153   3.759   2.384   2.028 -1.9384  0.0985 -2.9782
87392SOL     OW74154   6.678  10.171   8.201  0.2738  0.3506 -0.0713
87392SOL    HW174155   6.662  10.207   8.288  0.0708  0.7668 -0.2773
87392SOL    HW274156   6.652  10.241   8.141 -1.1178 -0.4859 -0.5121
87393SOL     OW74157   7.335   0.951   7.254 -0.1592  0.1636 -0.1623
87393SOL    HW174158   7.375   0.997   7.328  0.6614  0.4385 -0.7558
87393SOL    HW274159   7.380   0.867   7.250  0.2970  0.4213 -0.7513
87394SOL     OW74160  13.616  13.942   1.708  0.1052  0.0528  0.0376
87394SOL    HW174161  13.671  13.885   1.762 -0.9842 -0.6950  0.4105
87394SOL    HW274162  13.559  13.986   1.771 -0.6792 -0.2635 -0.4368
87395SOL     OW74163  10.279  10.401   7.758 -0.1084 -0.2820  0.6789
87395SOL    HW174164  10.287  10.488   7.798  0.8868 -0.2505  0.4475
87395SOL    HW274165  10.369  10.370   7.751 -0.4952 -1.6425  1.4082
87396SOL     OW74166   2.717   8.193   2.859 -0.5930  0.4864  0.6680
87396SOL    HW174167   2.803   8.208   2.820 -0.2936 -0.1421  1.0734
87396SOL    HW274168   2.699   8.272   2.909 -0.6321  0.9746 -0.0921
87397SOL     OW74169   7.574   1.876   2.950  0.1706 -0.4145 -0.5259
87397SOL    HW174170   7.578   1.967   2.977 -2.2771 -0.0913 -1.0204
87397SOL    HW274171   7.539   1.878   2.861 -2.0943 -1.8688  0.2440
87398SOL     OW74172   0.246  13.250  12.656  0.0569  0.3159 -0.4714
87398SOL    HW174173   0.233  13.215  12.744  1.4436 -1.2700 -0.8420
87398SOL    HW274174   0.262  13.173  12.601 -1.0428  1.2428 -2.1921
87399SOL     OW74175  12.484   3.249   0.612 -0.0389  0.3177 -0.5009
87399SOL    HW174176  12.420   3.184   0.584 -0.6917  1.2505 -1.2387
87399SOL    HW274177  12.564   3.199   0.629 -0.5831 -0.6883 -0.8591
87400SOL     OW74178   3.157   7.836  12.291 -0.8333  0.0753  0.0725
87400SOL    HW174179   3.150   7.756  12.240 -0.9144  0.3122 -0.2944
87400SOL    HW274180   3.223   7.888  12.245  1.7772 -1.1602  2.1703
87401SOL     OW74181  13.289   4.179   6.840 -0.0499  0.0423  0.4003
87401SOL    HW174182  13.352   4.224   6.896 -1.6557 -0.3561  2.6397
87401SOL    HW274183  13.339   4.156   6.762  2.0054  1.5976  1.1674
87402SOL     OW74184  13.648   3.241  13.705 -0.1815  0.1864  0.4047
87402SOL    HW174185  13.605   3.193  13.634 -1.5247 -1.8046  2.4161
87402SOL    HW274186  13.690   3.173  13.758  0.8579  1.6118  1.4972
87403SOL     OW74187   2.966   1.899   3.590 -0.2663 -0.5087  0.2916
87403SOL    HW174188   2.973   1.813   3.632 -1.6701 -1.5412 -1.4499
87403SOL    HW274189   2.943   1.880   3.499 -1.3892  1.7228  0.0352
87404SOL     OW74190  11.012   8.504   7.394 -0.1866  0.4771 -0.8822
87404SOL    HW174191  11.071   8.574   7.422  2.3791 -1.2747 -1.5684
87404SOL    HW274192  11.009   8.444   7.468 -0.4667  0.1589 -1.1509
87405SOL     OW74193   1.083   8.611   6.103  0.3859  0.1430 -0.1381
87405SOL    HW174194   1.042   8.568   6.028 -0.8778 -0.7951  1.0290
87405SOL    HW274195   1.009   8.637   6.159  1.2537  1.4862  0.4419
87406SOL     OW74196   9.215   8.496   2.475 -1.1536  0.1143  0.2999
87406SOL    HW174197   9.229   8.564   2.410 -1.5044 -0.5131 -0.4490
87406SOL    HW274198   9.120   8.479   2.472 -1.1368 -0.0922  0.7955
87407SOL     OW74199   5.372   0.188   9.744 -0.3318 -0.0824 -0.0223
87407SOL    HW174200   5.414   0.122   9.798  0.6378 -0.7176 -1.4837
87407SOL    HW274201   5.439   0.256   9.733 -0.0637 -0.5219 -1.3533
87408SOL     OW74202   8.695   4.820   4.376  0.9577 -0.4584 -0.3146
87408SOL    HW174203   8.687   4.910   4.407  0.4869 -0.6501  0.1421
87408SOL    HW274204   8.754   4.778   4.438  2.2339 -0.1435 -1.2688
87409SOL     OW74205   7.598   3.998   8.176 -0.6751 -0.1256 -1.4738
87409SOL    HW174206   7.504   3.977   8.179 -0.4693 -0.9331  1.0017
87409SOL    HW274207   7.603   4.089   8.206 -0.5324 -0.8009  0.6865
87410SOL     OW74208   2.729   7.241   1.641  0.2423  0.0363  0.4353
87410SOL    HW174209   2.660   7.175   1.648  0.6935 -0.5721 -0.6612
87410SOL    HW274210   2.771   7.240   1.727 -0.9215  0.2318  1.0412
87411SOL     OW74211   3.626  11.434  10.502 -0.2580  0.6590  0.1867
87411SOL    HW174212   3.647  11.509  10.447  0.8390  0.1719 -0.0693
87411SOL    HW274213   3.704  11.422  10.557 -1.0818  0.7493  1.4123
87412SOL     OW74214   0.406   5.918   6.388  0.1010  0.8175  0.0175
87412SOL    HW174215   0.472   5.918   6.457  0.1362  1.5693 -0.0144
87412SOL    HW274216   0.383   6.010   6.375  1.6889  0.9709 -2.4822
87413SOL     OW74217   5.479   0.034   6.450 -0.3500  0.0129 -0.1129
87413SOL    HW174218   5.427   0.096   6.400  2.3333  1.6153 -1.1234
87413SOL    HW274219   5.568   0.069   6.447  0.8546 -2.6008  1.4130
87414SOL     OW74220   8.069  12.916  13.838 -0.1181 -0.2886  0.4305
87414SOL    HW174221   8.039  12.925  13.748  0.3030 -1.1301  0.2042
87414SOL    HW274222   8.117  12.834  13.840  3.2470  1.4944  0.5050
87415SOL     OW74223   6.685   0.583  13.905 -0.7790  0.2064 -0.1724
87415SOL    HW174224   6.690   0.679  13.897 -0.0829  0.3190  1.2142
87415SOL    HW274225   6.777   0.555  13.901 -0.6817 -0.0802  2.3803
87416SOL     OW74226   0.846  11.223   2.897 -0.3811  0.6288 -0.1872
87416SOL    HW174227   0.802  11.252   2.977 -0.5401  0.5639 -0.2491
87416SOL    HW274228   0.794  11.262   2.826 -2.1467 -1.8312 -0.3724
87417SOL     OW74229   2.783   9.951   9.067  0.7900 -0.0885 -0.0996
87417SOL    HW174230   2.714  10.012   9.041  1.2431 -0.1336 -1.4790
87417SOL    HW274231   2.737   9.880   9.111 -0.1488 -0.4670 -1.6248
87418SOL     OW74232  13.731  12.408  13.530  0.0408  0.3090 -0.2481
87418SOL    HW174233  13.825  12.420  13.540 -0.2466  0.7956  2.3718
87418SOL    HW274234  13.721  12.315  13.507  1.0665 -0.3890  1.8656
87419SOL     OW74235   1.148   9.553  10.255  0.6874 -0.2759  0.0574
87419SOL    HW174236   1.053   9.552  10.252  0.6301  0.7302  1.0243
87419SOL    HW274237   1.170   9.523  10.343  1.3508 -2.2459 -0.7150
87420SOL     OW74238   5.184   0.953   1.793  0.2033 -0.3251 -1.0494
87420SOL    HW174239   5.171   0.872   1.841 -0.0091 -0.9338 -2.0921
87420SOL    HW274240   5.276   0.976   1.807  0.9760 -2.1136 -2.7285
87421SOL     OW74241  11.624   0.258  13.904  0.2909  0.0545  0.0424
87421SOL    HW174242  11.652   0.296  13.820  0.2878 -0.8900 -0.3963
87421SOL    HW274243  11.565   0.323  13.941  0.3581  0.5206 -0.6479
87422SOL     OW74244   4.398   1.343   5.723  0.0271  0.3492 -0.5312
87422SOL    HW174245   4.418   1.421   5.774  0.3946 -0.4772  0.6461
87422SOL    HW274246   4.479   1.292   5.724 -0.8281 -1.0687  0.6573
87423SOL     OW74247   4.148   1.795   5.820  0.5198 -0.0168 -0.3396
87423SOL    HW174248   4.123   1.739   5.746 -1.5923  1.2369 -0.6682
87423SOL    HW274249   4.240   1.816   5.805  0.5370 -0.9933 -1.7861
87424SOL     OW74250   4.570   0.327   3.484  0.1894 -0.0255  0.3886
87424SOL    HW174251   4.559   0.245   3.531  1.3424  0.0341  0.7981
87424SOL    HW274252   4.611   0.386   3.548 -0.1098  0.6937 -0.0647
87425SOL     OW74253  11.915   5.177   5.311  0.1842 -0.1987 -0.3866
87425SOL    HW174254  11.954   5.092   5.292 -0.0652 -0.2187 -0.8445
87425SOL    HW274255  11.822   5.165   5.293  0.0054 -0.0736  0.4128
87426SOL     OW74256  11.410   1.096  13.052 -0.6989 -0.7171 -0.1214
87426SOL    HW174257  11.407   1.014  13.003  2.1087 -1.2318  0.4373
87426SOL    HW274258  11.434   1.070  13.141 -1.0507  0.6074  0.3801
87427SOL     OW74259   6.198   1.761  14.033 -0.2975 -0.3126 -0.4032
87427SOL    HW174260   6.289   1.764  14.004 -0.7850 -0.9759 -2.1382
87427SOL    HW274261   6.149   1.735  13.955 -1.5477 -3.9130  1.3597
87428SOL     OW74262   4.282   1.334   6.484 -0.2478  0.1636 -0.5796
87428SOL    HW174263   4.294   1.306   6.575 -0.7291 -2.7211 -1.3010
87428SOL    HW274264   4.192   1.366   6.479 -0.4218 -0.2546 -0.1526
87429SOL     OW74265   5.629   5.120   0.714 -0.1948  0.0530  0.3787
87429SOL    HW174266   5.690   5.068   0.661 -1.3027 -0.5565 -0.3478
87429SOL    HW274267   5.643   5.090   0.804  0.3110 -0.3515  0.1693
87430SOL     OW74268   1.047   8.870  12.091 -0.1180 -0.6233  0.2935
87430SOL    HW174269   1.108   8.826  12.032  0.3941 -0.6040  0.7872
87430SOL    HW274270   1.032   8.955  12.051  0.1583 -0.6419  0.1465
87431SOL     OW74271   5.972   9.722  12.205 -0.4860  0.5625 -0.0173
87431SOL    HW174272   5.950   9.816  12.201 -1.6152  0.3299  0.2371
87431SOL    HW274273   5.888   9.678  12.191  0.2045 -0.4347 -1.2477
87432SOL     OW74274   2.594   6.465  11.113 -0.1270 -0.9561  0.5407
87432SOL    HW174275   2.519   6.413  11.142  0.6825 -1.3458  2.0687
87432SOL    HW274276   2.667   6.435  11.168  1.2838 -0.9473 -1.2404
87433SOL     OW74277   9.140   3.852   1.383  0.1081  0.0441 -0.2698
87433SOL    HW174278   9.136   3.833   1.290  0.6660 -0.9356 -0.1047
87433SOL    HW274279   9.215   3.802   1.415 -0.7360 -0.5226  0.8992
87434SOL     OW74280   0.361  11.699   2.113 -0.0670 -0.6963  0.2609
87434SOL    HW174281   0.427  11.711   2.182 -0.4380  0.9392  0.3704
87434SOL    HW274282   0.322  11.613   2.132 -0.7014  0.0292  2.5941
87435SOL     OW74283   4.980  12.174  12.268 -0.3194  0.3940  0.3758
87435SOL    HW174284   4.993  12.237  12.197  1.3865 -0.6933 -0.3313
87435SOL    HW274285   4.890  12.143  12.255 -0.5827  1.3857 -0.3223
87436SOL     OW74286  12.410   7.889   2.033 -0.9798 -0.8846  0.3601
87436SOL    HW174287  12.457   7.943   1.968  0.1621 -2.1797  0.0776
87436SOL    HW274288  12.322   7.927   2.035 -0.6959 -0.0569 -1.0619
87437SOL     OW74289   0.340   9.634   9.792 -1.1005  0.3356  0.0796
87437SOL    HW174290   0.282   9.572   9.746  0.5220 -0.0107 -1.6177
87437SOL    HW274291   0.359   9.591   9.876 -0.7145 -1.1054 -0.7041
87438SOL     OW74292  13.301   7.129  10.224 -0.0791  0.7305  0.3229
87438SOL    HW174293  13.306   7.115  10.129 -0.4562  1.4247  0.1877
87438SOL    HW274294  13.209   7.111  10.245 -0.0182  0.6776  0.5406
87439SOL     OW74295   6.193   8.005   9.818  0.0452  0.0037  0.0817
87439SOL    HW174296   6.124   7.938   9.815  2.4761 -2.6928 -1.1054
87439SOL    HW274297   6.259   7.972   9.757  2.2227  2.6388  0.8696
87440SOL     OW74298   5.383   0.727   7.270  0.2439 -0.2705 -0.6327
87440SOL    HW174299   5.290   0.750   7.260  0.5667  1.0540 -0.7881
87440SOL    HW274300   5.396   0.718   7.364 -0.0612 -0.5492 -0.6163
87441SOL     OW74301  11.791   0.016   1.717 -0.1249  0.2069 -0.2276
87441SOL    HW174302  11.738   0.017   1.797 -2.5171 -0.0534 -1.7001
87441SOL    HW274303  11.727   0.024   1.646  1.8033 -0.6556 -2.1733
87442SOL     OW74304   5.368   7.507   7.646  0.4772  0.1378  0.3056
87442SOL    HW174305   5.382   7.469   7.559 -0.3086 -1.3340  0.7974
87442SOL    HW274306   5.410   7.593   7.641 -0.4584  0.5411 -1.8608
87443SOL     OW74307   5.364   4.753  12.229  0.3638  0.0585 -0.5105
87443SOL    HW174308   5.413   4.674  12.253  1.4149  0.7323 -0.4146
87443SOL    HW274309   5.327   4.734  12.143 -1.3545 -1.4304  0.4784
87444SOL     OW74310   0.795   1.822   8.256  0.7272  0.1677 -0.0337
87444SOL    HW174311   0.718   1.852   8.303  1.2031  1.4295 -0.0235
87444SOL    HW274312   0.807   1.885   8.186  2.9351  1.2559  1.2168
87445SOL     OW74313  13.374   5.418  12.108  0.6285  0.3864  0.3655
87445SOL    HW174314  13.399   5.498  12.063  0.4176 -0.1477 -0.7512
87445SOL    HW274315  13.452   5.363  12.104 -0.0801 -0.5838 -1.5210
87446SOL     OW74316   5.306  10.155   1.259  0.2048 -0.4519  0.4753
87446SOL    HW174317   5.370  10.084   1.261  2.1462  1.1453 -1.1824
87446SOL    HW274318   5.355  10.231   1.229 -2.3951  0.9569 -0.4838
87447SOL     OW74319   3.154   2.133  12.615 -0.3091 -0.1292  0.2164
87447SOL    HW174320   3.083   2.074  12.638  0.6625 -1.2821  0.3417
87447SOL    HW274321   3.216   2.079  12.565 -1.0066  1.5851 -2.7754
87448SOL     OW74322   0.645   1.290   7.037  0.5828 -0.3343 -0.3454
87448SOL    HW174323   0.701   1.252   7.104 -0.9064 -0.0087  1.1867
87448SOL    HW274324   0.575   1.333   7.087 -0.3562  0.3086 -2.1168
87449SOL     OW74325   6.693  12.435   2.427 -0.1107  0.0483 -0.3083
87449SOL    HW174326   6.679  12.494   2.353  1.2017  1.2037  0.3247
87449SOL    HW274327   6.773  12.386   2.404  0.3648  0.4925  0.3797
87450SOL     OW74328   1.332   1.025   4.890  0.5429  0.3606  0.6817
87450SOL    HW174329   1.382   1.016   4.972  1.7786  0.0379 -0.0893
87450SOL    HW274330   1.315   1.119   4.883 -2.2949  0.1560  2.8399
87451SOL     OW74331   9.848  11.422   8.565 -0.0622  0.4586 -0.1771
87451SOL    HW174332   9.891  11.476   8.631 -0.5875 -0.4341  0.9388
87451SOL    HW274333   9.904  11.345   8.557  0.4175  0.9143 -1.3823
87452SOL     OW74334  11.385  13.904   9.372  0.2463  0.0938 -0.5504
87452SOL    HW174335  11.443  13.923   9.445 -2.0030  0.9672  1.1421
87452SOL    HW274336  11.380  13.808   9.369  0.3530  0.0504  0.4673
87453SOL     OW74337  12.459  13.360   4.928  0.2469  0.0568  0.3476
87453SOL    HW174338  12.477  13.348   4.834  1.0336 -1.5046  0.6502
87453SOL    HW274339  12.536  13.406   4.962 -0.0547  0.6561  0.2333
87454SOL     OW74340   3.977   7.835   6.677  0.1202 -0.0786  0.4802
87454SOL    HW174341   4.015   7.768   6.620 -0.1335 -0.6182  0.9425
87454SOL    HW274342   3.922   7.787   6.738 -2.5450  0.7583 -1.0843
87455SOL     OW74343   9.241   1.169  11.019  0.3145  0.1022 -0.7897
87455SOL    HW174344   9.236   1.254  11.064 -0.4159  0.0635 -0.7829
87455SOL    HW274345   9.334   1.146  11.020  0.6511  1.3208 -1.5667
87456SOL     OW74346   9.609   9.416   1.307  0.3594 -0.5156  0.5912
87456SOL    HW174347   9.561   9.421   1.224  1.1662 -0.8290  0.0900
87456SOL    HW274348   9.640   9.505   1.322  0.4762 -0.5261  0.4009
87457SOL     OW74349  10.249   3.652   4.465  0.1659 -1.2105 -0.6247
87457SOL    HW174350  10.263   3.598   4.387 -1.8654 -1.1915 -1.0494
87457SOL    HW274351  10.220   3.736   4.432 -2.2866 -1.6769  0.0977
87458SOL     OW74352  12.596  13.448  11.396  0.3421  0.4643 -0.2020
87458SOL    HW174353  12.549  13.505  11.336  0.1407 -0.3239 -0.8012
87458SOL    HW274354  12.659  13.401  11.342 -0.4315 -0.8933  0.0339
87459SOL     OW74355  10.155   6.840  13.885  0.1909 -0.0101  0.0567
87459SOL    HW174356  10.072   6.865  13.843  0.4181 -0.1138 -0.4617
87459SOL    HW274357  10.201   6.922  13.900  0.3983 -0.0213 -0.5105
87460SOL     OW74358   3.139  11.915   9.942  0.2597 -0.3341 -0.7399
87460SOL    HW174359   3.174  11.998   9.973 -0.3027 -0.2676 -0.2643
87460SOL    HW274360   3.052  11.935   9.908 -0.4084 -0.9046  0.5401
87461SOL     OW74361   0.474  12.451   5.825  0.4745 -0.0697 -0.4995
87461SOL    HW174362   0.393  12.435   5.873 -0.7361  2.5369 -1.4427
87461SOL    HW274363   0.539  12.471   5.892  0.3247 -1.9748  0.2606
87462SOL     OW74364   1.136   1.880   7.148  0.1101  0.0174 -0.6079
87462SOL    HW174365   1.134   1.931   7.067  0.8882 -1.6573 -1.7491
87462SOL    HW274366   1.099   1.795   7.123  1.4997 -0.9483  0.4704
87463SOL     OW74367  13.267   7.948   5.783 -0.0399  0.1465 -0.2922
87463SOL    HW174368  13.274   8.034   5.740 -0.5611  0.5008  0.3198
87463SOL    HW274369  13.335   7.896   5.741 -1.2759  0.1081 -2.4170
87464SOL     OW74370   1.850  11.277   9.511  0.3916  0.1373 -0.0911
87464SOL    HW174371   1.854  11.363   9.552 -1.3919 -0.6860  2.0083
87464SOL    HW274372   1.839  11.295   9.418  1.8818  2.1301  0.0648
87465SOL     OW74373  11.107  10.049   4.069  0.4300  0.1245  1.0589
87465SOL    HW174374  11.116  10.144   4.074  2.7392  0.0427 -0.3542
87465SOL    HW274375  11.015  10.033   4.092 -0.9237  2.9434 -1.6599
87466SOL     OW74376  12.803   4.785   5.813  0.1743  0.5058  0.2642
87466SOL    HW174377  12.818   4.873   5.848  0.9947  1.0140 -1.2859
87466SOL    HW274378  12.852   4.727   5.872  0.8033  1.2322  0.4788
87467SOL     OW74379  11.387   5.499  11.369 -0.9634  0.7663 -0.1206
87467SOL    HW174380  11.441   5.575  11.390 -1.1324  1.1273 -0.9687
87467SOL    HW274381  11.333   5.527  11.295 -0.4579 -0.4252 -0.9864
87468SOL     OW74382   5.272   4.469  11.366  1.3545 -0.1548  0.9428
87468SOL    HW174383   5.282   4.426  11.281 -0.5179  1.7472 -0.3463
87468SOL    HW274384   5.326   4.548  11.360 -0.2406  0.9811  0.7019
87469SOL     OW74385   1.529   7.037  11.257  0.3429 -0.4102 -0.1859
87469SOL    HW174386   1.507   7.023  11.165 -2.4232 -0.7996  0.4406
87469SOL    HW274387   1.528   6.950  11.296  2.0725 -0.3171  0.1579
87470SOL     OW74388   9.132  11.608   2.649  0.2683  0.2359 -0.0508
87470SOL    HW174389   9.049  11.640   2.612 -0.5353 -1.0384  0.5665
87470SOL    HW274390   9.107  11.532   2.702  2.1340 -1.7242 -1.8051
87471SOL     OW74391   8.189   0.549   1.273 -0.1946 -0.2511  0.2991
87471SOL    HW174392   8.196   0.635   1.231  0.0098 -0.6095 -0.4296
87471SOL    HW274393   8.222   0.488   1.207  0.0170 -0.8516  0.9468
87472SOL     OW74394   8.603   8.052   0.008 -0.6394  0.5139 -0.8382
87472SOL    HW174395   8.594   8.117   0.077  0.4274 -1.2288  1.0850
87472SOL    HW274396   8.537   7.986   0.029  0.4153 -0.5637 -0.7994
87473SOL     OW74397   0.383   3.972   1.181  0.1826 -0.3568  0.3502
87473SOL    HW174398   0.455   4.031   1.157 -0.3654 -0.0948 -0.7202
87473SOL    HW274399   0.358   3.931   1.099 -0.2796 -1.1486  0.8791
87474SOL     OW74400   8.238   6.371  11.213 -0.4656  0.3384 -0.1776
87474SOL    HW174401   8.319   6.418  11.193 -0.5055  0.4256 -0.1327
87474SOL    HW274402   8.248   6.343  11.304 -0.0104 -0.6103 -0.5091
87475SOL     OW74403  13.931   4.998  13.569  0.2658 -0.6807  0.4127
87475SOL    HW174404  14.001   5.062  13.557  0.1960 -0.3409  1.6468
87475SOL    HW274405  13.882   5.001  13.486  0.1871  0.9730  0.4703
87476SOL     OW74406   4.825   1.104   9.701  0.3184 -0.0415  0.1747
87476SOL    HW174407   4.898   1.127   9.758  1.0008 -1.0276 -0.2678
87476SOL    HW274408   4.820   1.009   9.705 -0.5260 -0.0335 -0.3233
87477SOL     OW74409   4.160  13.037   6.283 -0.1428 -0.5975 -0.2111
87477SOL    HW174410   4.209  13.117   6.301  1.2145 -1.8084  2.0360
87477SOL    HW274411   4.101  13.060   6.211  1.3947  1.8909 -0.8068
87478SOL     OW74412   5.588  10.889   4.144  0.1902 -0.2189 -0.1299
87478SOL    HW174413   5.640  10.967   4.124  0.7500 -0.2253  1.2473
87478SOL    HW274414   5.598  10.876   4.238 -1.6451 -0.7099  0.0419
87479SOL     OW74415   2.538  11.375   8.711  0.8012 -0.4471 -0.1334
87479SOL    HW174416   2.624  11.357   8.672  0.8308  0.8427 -0.6816
87479SOL    HW274417   2.508  11.289   8.740  2.1938 -0.9599 -0.0944
87480SOL     OW74418   7.910   4.556   8.207 -0.0979 -0.3040 -0.4384
87480SOL    HW174419   7.939   4.503   8.282  0.5236 -1.5479 -1.5094
87480SOL    HW274420   7.989   4.602   8.179 -0.5500  0.9494  0.2444
87481SOL     OW74421   5.548  13.186   7.756 -0.1235  0.5283 -0.2789
87481SOL    HW174422   5.470  13.198   7.701 -0.5001  0.1559  0.1682
87481SOL    HW274423   5.557  13.269   7.803 -0.7791  0.2621  0.3346
87482SOL     OW74424  13.651   6.668   8.942  0.2281 -0.1119  0.1756
87482SOL    HW174425  13.565   6.648   8.981  0.3588 -0.0777  0.4793
87482SOL    HW274426  13.706   6.694   9.016  0.2251  0.8275 -0.1410
87483SOL     OW74427  12.708   9.458   5.900  0.1549 -0.2578  0.2257
87483SOL    HW174428  12.787   9.469   5.847 -0.3176  3.1991  0.0215
87483SOL    HW274429  12.716   9.521   5.971 -1.8197 -0.7662  0.9940
87484SOL     OW74430   6.778   6.067  10.493 -0.0283 -0.0062 -0.1626
87484SOL    HW174431   6.698   6.019  10.517  0.2488 -0.3127  0.1557
87484SOL    HW274432   6.746   6.145  10.447 -0.5414  0.2305  0.5742
87485SOL     OW74433   2.262  13.636   8.735  0.0636  0.0917  0.4657
87485SOL    HW174434   2.310  13.585   8.800  0.2538  0.1877  0.4021
87485SOL    HW274435   2.292  13.726   8.749  0.1647  0.1009  0.1943
87486SOL     OW74436   6.851   3.893   0.400  0.1264 -0.1984  0.1992
87486SOL    HW174437   6.854   3.907   0.305  0.9548 -1.0905  0.0787
87486SOL    HW274438   6.935   3.929   0.431 -0.2452  0.3111  0.6362
87487SOL     OW74439   0.459   8.067   4.043 -0.1849 -0.3517 -0.4502
87487SOL    HW174440   0.507   7.995   4.002 -0.4021 -0.6896 -0.1198
87487SOL    HW274441   0.528   8.121   4.082 -0.0145 -0.3338 -0.7747
87488SOL     OW74442   6.470  10.227   4.332 -0.2028 -0.5831 -0.1564
87488SOL    HW174443   6.495  10.265   4.248  0.0820  0.3191  0.3213
87488SOL    HW274444   6.472  10.133   4.317 -0.8306 -0.4305 -1.3504
87489SOL     OW74445  11.340   2.758   0.851 -0.3831  0.3032 -0.8610
87489SOL    HW174446  11.358   2.710   0.933  0.3986  2.6089  0.3950
87489SOL    HW274447  11.249   2.784   0.859 -0.5812 -0.2624 -1.1896
87490SOL     OW74448   2.564  13.139  11.635 -0.7157  0.1437 -0.0315
87490SOL    HW174449   2.525  13.121  11.549 -0.6408 -1.3579  0.2221
87490SOL    HW274450   2.529  13.225  11.660 -1.3079  0.2703 -1.2309
87491SOL     OW74451   6.540   7.674   1.436 -0.3348  0.4215  0.1761
87491SOL    HW174452   6.462   7.669   1.491 -0.4066  0.6953  0.1008
87491SOL    HW274453   6.532   7.757   1.389  1.1641  1.6565  1.9419
87492SOL     OW74454  11.760   0.292   2.466 -0.5991 -0.2185 -0.0024
87492SOL    HW174455  11.702   0.364   2.443  1.0802  0.2121 -3.4375
87492SOL    HW274456  11.712   0.213   2.438 -0.5845 -0.0743 -0.4360
87493SOL     OW74457   8.152  13.712   8.882 -0.0025 -0.1563 -0.3555
87493SOL    HW174458   8.157  13.718   8.787 -1.3539 -0.7687 -0.4862
87493SOL    HW274459   8.156  13.619   8.901 -0.2007 -0.0648  0.1662
87494SOL     OW74460   1.424  10.790  10.711  0.0405 -0.1233 -0.2225
87494SOL    HW174461   1.460  10.710  10.750  0.4540 -0.0714 -0.4842
87494SOL    HW274462   1.361  10.823  10.775  2.4200  1.2881  1.5470
87495SOL     OW74463  12.662   8.254   1.093  0.3886 -0.4036  0.2104
87495SOL    HW174464  12.599   8.281   1.160  2.1147  1.2713  1.2751
87495SOL    HW274465  12.664   8.327   1.032  0.0172 -1.2279 -0.8061
87496SOL     OW74466   3.295  11.332   0.783 -0.1729 -0.4887 -0.0753
87496SOL    HW174467   3.388  11.337   0.803 -0.2890  1.2258  0.2526
87496SOL    HW274468   3.291  11.297   0.694  0.9849  2.0603 -1.2355
87497SOL     OW74469   2.184  11.835   3.290 -0.3274  0.7689  0.5944
87497SOL    HW174470   2.130  11.763   3.323  2.1900 -1.6506 -0.1921
87497SOL    HW274471   2.152  11.850   3.200 -0.2439 -0.0672  0.4196
87498SOL     OW74472  13.143   1.831  12.404  0.2178 -0.3970 -0.1251
87498SOL    HW174473  13.173   1.741  12.406 -0.9060 -0.7835  0.0683
87498SOL    HW274474  13.060   1.828  12.356  0.1835  0.5357 -0.1487
87499SOL     OW74475  10.491  13.626   1.205  0.0885 -0.4477 -0.5053
87499SOL    HW174476  10.583  13.617   1.181  0.2653  0.2617 -0.1015
87499SOL    HW274477  10.483  13.582   1.289  0.6566  1.7798  0.7899
87500SOL     OW74478  11.757  11.735   3.813 -0.2872  0.3618 -0.0172
87500SOL    HW174479  11.683  11.677   3.797 -0.7513  1.1627 -0.7964
87500SOL    HW274480  11.726  11.823   3.791  0.1251  1.0703  2.0050
87501SOL     OW74481  13.426   8.495   6.275  0.0014  0.2185 -0.4373
87501SOL    HW174482  13.516   8.503   6.242 -0.2705 -0.4391 -1.3610
87501SOL    HW274483  13.417   8.403   6.299 -0.4642  0.2561 -0.4574
87502SOL     OW74484   5.936   7.736   2.959 -1.0141 -0.5674 -0.5327
87502SOL    HW174485   6.014   7.787   2.939 -1.5803 -0.1094 -1.7308
87502SOL    HW274486   5.930   7.673   2.887 -0.1225 -2.6501  1.0947
87503SOL     OW74487   1.100   4.850   8.968  0.0839 -0.1223  0.3882
87503SOL    HW174488   1.041   4.805   8.908 -1.6028 -0.2825  2.0704
87503SOL    HW274489   1.135   4.923   8.916  1.2866 -2.0793 -1.7457
87504SOL     OW74490   2.998   2.732  14.001  0.3378  0.4134  0.3632
87504SOL    HW174491   2.974   2.723  14.093  0.2003  0.8232  0.3696
87504SOL    HW274492   2.959   2.655  13.958  3.0679 -1.5699  1.1307
87505SOL     OW74493   0.425   0.603   2.405 -0.0761 -0.4367 -0.2097
87505SOL    HW174494   0.416   0.513   2.376 -0.9046  0.2402 -2.2418
87505SOL    HW274495   0.517   0.624   2.388  0.0118 -0.7524 -0.1326
87506SOL     OW74496  13.630  11.905   2.859 -0.2904 -0.7899 -0.4060
87506SOL    HW174497  13.541  11.874   2.871 -0.5207  0.4006  1.4230
87506SOL    HW274498  13.625  11.963   2.782 -1.3248  0.0368  0.2630
87507SOL     OW74499   0.435   9.518  10.034  0.0965  0.1308 -0.5738
87507SOL    HW174500   0.425   9.459  10.109 -1.0058  0.9616 -0.0376
87507SOL    HW274501   0.470   9.599  10.072  0.6678  0.1587 -1.1526
87508SOL     OW74502   4.466   7.095  12.388  0.2592  0.4293  0.5168
87508SOL    HW174503   4.466   7.028  12.456  1.2545 -0.0216  0.1044
87508SOL    HW274504   4.502   7.173  12.430 -1.8428  1.0377  1.2755
87509SOL     OW74505   8.730   0.507   2.532 -0.2551 -0.1726  0.2659
87509SOL    HW174506   8.820   0.541   2.532 -0.2238  0.2868 -3.9011
87509SOL    HW274507   8.675   0.583   2.551  0.1461  0.5630 -1.3392
87510SOL     OW74508   7.596   1.329   7.422 -0.3098  0.4079  0.4262
87510SOL    HW174509   7.536   1.393   7.384 -0.0347  1.3619  1.5591
87510SOL    HW274510   7.659   1.311   7.352 -1.4685 -0.0748 -0.5430
87511SOL     OW74511   8.724   1.527  12.759 -0.2137  0.1917 -0.3486
87511SOL    HW174512   8.711   1.595  12.824 -1.1333  0.3551 -0.6937
87511SOL    HW274513   8.812   1.493  12.777  0.1339  1.2528  0.0198
87512SOL     OW74514   5.937   3.387   6.883 -0.3998  0.0048  0.5076
87512SOL    HW174515   5.982   3.305   6.864 -2.5546 -1.0957 -0.2115
87512SOL    HW274516   5.925   3.428   6.798 -2.4129 -0.7091  0.3772
87513SOL     OW74517  12.155   3.670   3.665 -0.1992 -0.5343  0.3197
87513SOL    HW174518  12.217   3.738   3.639  0.4534 -0.7498  1.2778
87513SOL    HW274519  12.203   3.588   3.652  0.2036 -0.6476  2.2825
87514SOL     OW74520   1.583   4.933  13.937 -0.1293 -0.1541  0.1089
87514SOL    HW174521   1.496   4.924  13.899 -0.7193  0.0639  1.3720
87514SOL    HW274522   1.622   4.846  13.928 -0.9337 -0.5767  0.6142
87515SOL     OW74523  12.339   0.973   9.570  0.0406  0.8818  0.1159
87515SOL    HW174524  12.433   0.957   9.575 -0.4781 -2.8120  0.6060
87515SOL    HW274525  12.319   1.021   9.650  1.6523  3.3904 -0.8466
87516SOL     OW74526   4.614   7.620  11.348 -0.1873  0.1680 -0.4359
87516SOL    HW174527   4.653   7.568  11.278  0.0160 -0.4108  0.0982
87516SOL    HW274528   4.535   7.572  11.372  0.6593 -0.5892  0.9218
87517SOL     OW74529  11.746  12.594   5.401  0.4952 -0.3577 -0.0114
87517SOL    HW174530  11.673  12.547   5.441 -0.6122  1.3455  0.1295
87517SOL    HW274531  11.736  12.578   5.307  0.3456 -0.6952  0.0620
87518SOL     OW74532   2.037   0.658   3.782  0.0932  0.2341 -0.3061
87518SOL    HW174533   2.102   0.660   3.712 -1.5892 -3.0824 -2.1996
87518SOL    HW274534   2.062   0.582   3.835 -0.7047  0.5878  0.6088
87519SOL     OW74535   2.911   5.478   9.676 -0.2578 -0.3425 -0.3748
87519SOL    HW174536   2.837   5.418   9.680  0.0432 -0.6502  1.2406
87519SOL    HW274537   2.987   5.422   9.661 -0.0407 -0.3186  0.6034
87520SOL     OW74538  10.862  11.270   0.620  0.2742  0.1494 -0.5972
87520SOL    HW174539  10.810  11.323   0.680  0.8559  2.7114 -2.1986
87520SOL    HW274540  10.843  11.180   0.645  0.1001  1.0494  3.0406
87521SOL     OW74541   0.246   8.158   0.211  0.3671  0.4197  0.1094
87521SOL    HW174542   0.290   8.228   0.162  0.2070  0.2592 -0.2643
87521SOL    HW274543   0.154   8.164   0.184  0.4440 -0.2674 -0.3234
87522SOL     OW74544   6.514  13.760  10.151 -0.6131  0.5357 -0.0750
87522SOL    HW174545   6.479  13.794  10.233 -2.2721  0.2420 -0.6218
87522SOL    HW274546   6.608  13.782  10.154 -0.9122  1.8260  1.2257
87523SOL     OW74547  13.402   7.768   0.670 -0.7086 -0.1057 -0.4226
87523SOL    HW174548  13.449   7.836   0.719  0.4837  0.9060 -2.8191
87523SOL    HW274549  13.313   7.772   0.704  0.0221  0.5058  1.6368
87524SOL     OW74550   9.886  13.284  12.246  0.0075 -0.4224 -0.4962
87524SOL    HW174551   9.947  13.258  12.315 -1.4651 -0.2508  0.9251
87524SOL    HW274552   9.941  13.329  12.181  1.1716  1.2666  1.5327
87525SOL     OW74553   4.114   0.717  11.912 -0.3141 -0.8661 -0.1479
87525SOL    HW174554   4.086   0.631  11.880 -2.4056 -0.9624  1.6716
87525SOL    HW274555   4.118   0.706  12.007  1.4496  0.5337  0.0030
87526SOL     OW74556  10.044  11.117  10.937  0.2490 -0.2226  0.8789
87526SOL    HW174557   9.993  11.192  10.968 -2.3278 -0.8090 -1.4981
87526SOL    HW274558  10.091  11.150  10.861 -1.0301 -0.9552 -0.2828
87527SOL     OW74559  10.194   6.691   9.294 -0.0151 -0.0489 -0.1497
87527SOL    HW174560  10.236   6.630   9.354 -0.4337 -1.0717 -0.8661
87527SOL    HW274561  10.206   6.652   9.208 -0.7453  0.6185 -0.5674
87528SOL     OW74562   7.401   6.859   5.395 -0.2723  0.2018  0.1243
87528SOL    HW174563   7.389   6.764   5.388 -0.0680  0.2296 -0.7502
87528SOL    HW274564   7.411   6.875   5.489 -0.4641 -0.6236  0.2934
87529SOL     OW74565  12.324   5.221   8.189  0.2474  0.1122 -0.2228
87529SOL    HW174566  12.272   5.149   8.223  0.8846 -1.2726 -2.0127
87529SOL    HW274567  12.312   5.216   8.094  2.0798  0.9907 -0.5376
87530SOL     OW74568   6.297   3.167   8.569 -0.1718  0.0138  0.3533
87530SOL    HW174569   6.377   3.116   8.583 -1.4581 -2.1746  0.1249
87530SOL    HW274570   6.257   3.174   8.655 -0.6392 -0.4668  0.1751
87531SOL     OW74571   8.070  13.510   7.979  0.3458  0.3173  0.1440
87531SOL    HW174572   8.116  13.570   7.922  2.4685  0.4954  1.9198
87531SOL    HW274573   8.136  13.446   8.007 -0.4858  0.3830  2.5518
87532SOL     OW74574   9.972   2.044   2.742  0.3989 -0.8021 -0.0143
87532SOL    HW174575   9.916   1.966   2.736  0.7860 -1.0601 -0.2953
87532SOL    HW274576  10.017   2.035   2.826 -0.7235 -0.0881  0.6846
87533SOL     OW74577  11.699   4.234   3.007 -0.2117 -0.6133 -0.1547
87533SOL    HW174578  11.627   4.297   2.999 -0.5918 -1.0382 -0.1524
87533SOL    HW274579  11.757   4.254   2.934  0.1083  0.2921  0.3390
87534SOL     OW74580   5.576  10.739   8.510 -0.2006  0.4763  0.1990
87534SOL    HW174581   5.516  10.803   8.471 -2.6181 -1.2689  0.8549
87534SOL    HW274582   5.631  10.710   8.437  0.0403  2.2503 -0.3794
87535SOL     OW74583  13.719   0.056   5.861 -0.0537  0.1385  0.1271
87535SOL    HW174584  13.745  -0.036   5.848 -0.1350  0.2258 -0.7086
87535SOL    HW274585  13.780   0.089   5.927  0.8623 -0.1392 -0.5640
87536SOL     OW74586   9.260   1.108   1.352 -0.5585  0.6275  0.2612
87536SOL    HW174587   9.236   1.042   1.417  0.8417 -0.9423 -0.7363
87536SOL    HW274588   9.341   1.147   1.385  0.9725 -1.1940 -1.1405
87537SOL     OW74589  11.490   4.586   3.116 -0.4581  0.0129 -0.3395
87537SOL    HW174590  11.422   4.519   3.114 -0.2578 -0.1696 -1.8019
87537SOL    HW274591  11.494   4.620   3.027  0.2270  1.1863  0.1176
87538SOL     OW74592   1.304   3.360   1.296  0.5394  0.2313  0.3155
87538SOL    HW174593   1.290   3.426   1.229 -0.2191  1.2157  1.3895
87538SOL    HW274594   1.364   3.297   1.256 -0.0417  0.6729 -1.3271
87539SOL     OW74595   9.636  10.493   1.725 -0.2929 -0.2965  0.1065
87539SOL    HW174596   9.667  10.403   1.737  3.7653  0.8358 -0.1871
87539SOL    HW274597   9.623  10.501   1.631 -0.8579 -0.6161  0.1546
87540SOL     OW74598   0.630  10.853   2.937 -0.0973 -0.0476  0.6624
87540SOL    HW174599   0.586  10.896   3.010  0.4291  0.4954  0.6741
87540SOL    HW274600   0.646  10.764   2.967 -2.0081 -0.5549  0.3019
87541SOL     OW74601  13.274  11.471   4.144  0.2968  0.1052  0.4638
87541SOL    HW174602  13.179  11.476   4.136  0.2137 -1.0573  0.5926
87541SOL    HW274603  13.300  11.557   4.176 -0.6544  0.6029 -0.0809
87542SOL     OW74604   5.978  12.232   2.211  0.5820  0.1974 -0.5638
87542SOL    HW174605   5.926  12.312   2.205 -0.7100 -0.1752  2.9069
87542SOL    HW274606   5.915  12.161   2.194  0.5925 -0.1678  0.7993
87543SOL     OW74607   1.578   0.101   7.734 -0.4385 -0.9192 -0.1623
87543SOL    HW174608   1.561   0.146   7.651  0.9539  2.2532  1.1160
87543SOL    HW274609   1.673   0.089   7.736 -0.3303  0.0029  1.3766
87544SOL     OW74610   4.317   3.896   2.225  0.8057 -0.6659 -0.1787
87544SOL    HW174611   4.391   3.844   2.195  0.6565 -0.5865 -0.7034
87544SOL    HW274612   4.242   3.837   2.218  0.3564  0.0563 -2.3328
87545SOL     OW74613   7.547  12.536   0.883  0.1316 -0.1555  0.0023
87545SOL    HW174614   7.560  12.553   0.789  0.2711 -0.2504  0.0037
87545SOL    HW274615   7.585  12.613   0.926  1.1241 -0.6403  0.0241
87546SOL     OW74616  10.262  12.833   5.195  0.6195 -0.8331  0.5874
87546SOL    HW174617  10.348  12.814   5.158  0.4807 -0.9559  0.3276
87546SOL    HW274618  10.231  12.749   5.229 -0.1298 -1.1539 -0.8417
87547SOL     OW74619   7.887   2.356   4.288  0.1191 -0.3207  0.0505
87547SOL    HW174620   7.896   2.451   4.283 -1.8520 -0.1072 -0.4141
87547SOL    HW274621   7.850   2.339   4.374  0.5195 -0.6867  0.1569
87548SOL     OW74622  11.319   6.987  13.931  0.6055  0.4108 -0.3213
87548SOL    HW174623  11.376   6.990  13.854  2.7472 -2.3073  0.9853
87548SOL    HW274624  11.280   6.900  13.929 -0.7901  0.9691  0.7091
87549SOL     OW74625   1.490   4.174   8.111  0.0279 -0.2321 -0.2908
87549SOL    HW174626   1.505   4.085   8.141 -2.5982 -0.9434 -0.7978
87549SOL    HW274627   1.491   4.167   8.015  0.7371  0.4672 -0.3359
87550SOL     OW74628  10.476  10.178   3.675 -0.5169 -0.0091  0.2016
87550SOL    HW174629  10.386  10.163   3.645 -1.1078 -0.1925  1.9236
87550SOL    HW274630  10.467  10.237   3.750  0.6855 -0.8272  1.0359
87551SOL     OW74631  10.468  10.990   6.293 -0.0285  0.6501 -0.9605
87551SOL    HW174632  10.416  10.913   6.271 -0.1907  1.1512 -2.4798
87551SOL    HW274633  10.433  11.059   6.237  1.1169  1.4312 -0.7490
87552SOL     OW74634   1.213  11.895   6.094  0.0019 -0.1228  0.0026
87552SOL    HW174635   1.300  11.933   6.102  0.6543 -1.4066 -0.6547
87552SOL    HW274636   1.200  11.848   6.176 -1.2428  2.2410  1.2788
87553SOL     OW74637   4.683   2.242   9.818  0.0792 -0.2808  0.3952
87553SOL    HW174638   4.775   2.230   9.798 -0.4189 -1.1042 -1.7317
87553SOL    HW274639   4.654   2.156   9.847 -0.1232 -0.1662  0.5328
87554SOL     OW74640   0.256  11.711   6.396  0.2595  0.6013 -0.7847
87554SOL    HW174641   0.349  11.688   6.395 -0.0375 -0.7232 -2.2985
87554SOL    HW274642   0.230  11.709   6.304 -1.3448  0.6172 -0.3619
87555SOL     OW74643   4.854   6.017   2.994  0.3016  0.0418  0.6305
87555SOL    HW174644   4.928   6.055   3.041  0.1132  1.1183  0.0982
87555SOL    HW274645   4.889   5.939   2.952  0.7346 -0.3267  1.6660
87556SOL     OW74646   0.152   4.287   8.899  0.6292  0.5096 -0.1412
87556SOL    HW174647   0.242   4.257   8.891  0.4392 -0.3236  0.7530
87556SOL    HW274648   0.147   4.363   8.841  1.7697  0.2763 -0.5645
87557SOL     OW74649   9.712  12.667   0.442 -0.2573 -0.2020 -0.0775
87557SOL    HW174650   9.655  12.740   0.417  2.0174  1.4098 -0.8742
87557SOL    HW274651   9.783  12.670   0.379  0.1725 -2.8598  0.1961
87558SOL     OW74652  10.866   8.965   7.304 -0.3001  0.4093 -0.0664
87558SOL    HW174653  10.878   9.053   7.337  1.0251  0.9500 -1.8437
87558SOL    HW274654  10.954   8.932   7.289 -0.7951 -0.8275 -0.4043
87559SOL     OW74655   0.060   4.247   7.219  1.1264  0.0618  0.1764
87559SOL    HW174656   0.063   4.179   7.286 -2.4643  0.5758  1.0127
87559SOL    HW274657   0.073   4.200   7.136 -1.1535 -1.7109  0.7449
87560SOL     OW74658   5.084  13.413   3.721  0.0191  0.4384 -0.0563
87560SOL    HW174659   5.055  13.444   3.635  0.6921  0.8345 -0.1480
87560SOL    HW274660   5.168  13.370   3.704 -0.8937 -1.5298  0.0605
87561SOL     OW74661   6.282   0.778   5.341 -0.0584  0.1888 -0.0770
87561SOL    HW174662   6.254   0.752   5.429  0.2545 -0.7499 -0.2425
87561SOL    HW274663   6.278   0.873   5.342 -0.5222  0.1703  0.8031
87562SOL     OW74664  12.163  10.672   9.013 -0.1175 -0.3437  0.5310
87562SOL    HW174665  12.203  10.596   9.054  1.5172 -0.2703 -0.7828
87562SOL    HW274666  12.080  10.683   9.058  0.3443 -1.8952  1.8725
87563SOL     OW74667  10.180   6.374   8.048 -0.0129  0.0515 -0.4262
87563SOL    HW174668  10.104   6.402   8.100 -0.4943 -3.2368  0.9353
87563SOL    HW274669  10.142   6.322   7.978  0.8820  0.8978 -1.5672
87564SOL     OW74670   9.894  13.299   2.485 -0.4801  0.3264  0.8436
87564SOL    HW174671   9.832  13.258   2.425 -0.0833 -1.0657  1.3638
87564SOL    HW274672   9.980  13.273   2.452 -0.2344  0.3921  1.4306
87565SOL     OW74673   4.450   7.421   8.731 -0.0746 -0.2450 -0.3169
87565SOL    HW174674   4.512   7.494   8.726 -1.9452  1.8164  2.8576
87565SOL    HW274675   4.367   7.458   8.699 -0.7106 -1.4954 -0.1702
87566SOL     OW74676   4.898   6.555   2.510  0.1994  0.0289 -0.4272
87566SOL    HW174677   4.918   6.603   2.590  2.5815 -0.9854 -0.3188
87566SOL    HW274678   4.803   6.558   2.503 -0.2776 -1.2074  3.2919
87567SOL     OW74679   9.360  10.600   0.575  0.2697  0.4906 -0.5456
87567SOL    HW174680   9.405  10.517   0.588 -0.3203 -0.1766 -2.4339
87567SOL    HW274681   9.284  10.596   0.633  0.2065 -0.3498 -0.6741
87568SOL     OW74682  11.001  12.315   2.040  0.2524 -0.1351  0.2515
87568SOL    HW174683  10.996  12.407   2.012  1.3885  0.2884  1.3337
87568SOL    HW274684  10.910  12.286   2.043 -0.0887  0.7163 -0.8202
87569SOL     OW74685   8.543   1.487   1.561  0.0651  0.0460  0.4362
87569SOL    HW174686   8.512   1.545   1.631  0.3212 -0.6439  1.1301
87569SOL    HW274687   8.490   1.511   1.485  0.8505  1.9032  0.4125
87570SOL     OW74688  14.002   5.384   3.708  0.4220 -0.0055 -0.9703
87570SOL    HW174689  14.046   5.360   3.790  0.9746  0.9658 -0.9609
87570SOL    HW274690  13.992   5.479   3.714 -1.8141 -0.1976 -0.9370
87571SOL     OW74691   7.908   9.562   3.234 -0.3353  0.0622  0.2667
87571SOL    HW174692   7.881   9.653   3.241  2.5686  1.0479  0.0493
87571SOL    HW274693   7.937   9.539   3.323  0.4477 -0.1003 -0.0234
87572SOL     OW74694   6.198   4.108  13.063 -0.2753 -0.3420  0.0369
87572SOL    HW174695   6.224   4.189  13.018  0.7132 -0.4568  0.3765
87572SOL    HW274696   6.154   4.139  13.142 -0.0674 -0.1244  0.0725
87573SOL     OW74697  10.061  11.290   7.581 -0.2914 -0.2960 -0.2096
87573SOL    HW174698   9.988  11.277   7.520 -0.3967 -0.6071 -0.0182
87573SOL    HW274699  10.040  11.371   7.626 -1.3923 -1.2352  1.0584
87574SOL     OW74700  10.931   5.438   7.914  0.4569 -0.0822  0.4418
87574SOL    HW174701  11.006   5.470   7.863 -0.2697  0.6258 -0.2321
87574SOL    HW274702  10.957   5.449   8.005  0.3401  2.3014  0.2489
87575SOL     OW74703   4.385   0.933   4.177 -0.5051  0.2410 -0.2644
87575SOL    HW174704   4.393   0.885   4.095 -0.0671 -1.7955  0.8894
87575SOL    HW274705   4.292   0.926   4.200 -0.8535  1.7693 -1.0870
87576SOL     OW74706   0.070   9.836   6.154 -0.6216  0.3606 -0.3833
87576SOL    HW174707   0.047   9.828   6.062 -0.6147 -0.8300 -0.2950
87576SOL    HW274708  -0.011   9.816   6.201 -0.7568  1.4372 -0.1166
87577SOL     OW74709   9.841   1.927   6.042  0.4553 -0.4170  0.6333
87577SOL    HW174710   9.907   1.884   6.098  0.3803 -0.2894  0.8222
87577SOL    HW274711   9.766   1.868   6.044 -0.9263  1.1828  3.5708
87578SOL     OW74712   6.668  13.903  13.833  0.0437  0.6289  0.6252
87578SOL    HW174713   6.691  13.817  13.868 -2.3498 -0.0640  0.6357
87578SOL    HW274714   6.626  13.884  13.749  0.6175  1.9051  0.0169
87579SOL     OW74715  11.855  12.678  13.778 -0.0247  0.2603  0.0933
87579SOL    HW174716  11.904  12.752  13.813 -0.9629  0.9389  0.0161
87579SOL    HW274717  11.789  12.660  13.844 -1.3229  1.0562 -0.9261
87580SOL     OW74718   3.639  10.069   7.928 -0.7680  0.0569 -0.5649
87580SOL    HW174719   3.590  10.076   8.010 -0.7260  1.6923 -0.6454
87580SOL    HW274720   3.574  10.081   7.859 -0.5955  0.0190 -0.7353
87581SOL     OW74721   9.664   3.649   2.608 -0.2101  0.3839 -0.5854
87581SOL    HW174722   9.605   3.725   2.601 -1.4609 -0.5779 -0.9205
87581SOL    HW274723   9.640   3.608   2.690  0.4079  0.2959 -0.4465
87582SOL     OW74724  13.607  13.752  12.267  0.0662  0.2388 -0.1613
87582SOL    HW174725  13.676  13.759  12.333  0.1046 -1.9428  0.1141
87582SOL    HW274726  13.527  13.772  12.315  0.2826  0.6214  0.0472
87583SOL     OW74727  13.876   9.740   1.491  0.2787 -0.0447  0.0660
87583SOL    HW174728  13.927   9.780   1.561  0.6897  0.0383 -0.2786
87583SOL    HW274729  13.844   9.814   1.439 -1.7733  0.0380  1.3341
87584SOL     OW74730  10.204  13.830   1.471  0.6040 -0.2849 -0.8571
87584SOL    HW174731  10.190  13.805   1.380  1.5953  1.2131 -1.4549
87584SOL    HW274732  10.296  13.858   1.475  0.3841  0.3488  0.4306
87585SOL     OW74733   7.837   2.098   9.309 -0.3205  0.5593  0.1612
87585SOL    HW174734   7.775   2.156   9.354  1.2342  1.8762  0.7079
87585SOL    HW274735   7.783   2.044   9.252 -2.1832  0.2414  2.0932
87586SOL     OW74736  10.247  12.458  12.263  0.2194  0.3480 -0.1982
87586SOL    HW174737  10.266  12.442  12.356  0.6497  0.7597 -0.2096
87586SOL    HW274738  10.323  12.423  12.217 -0.2192 -0.3057 -0.4380
87587SOL     OW74739   3.307   9.339   5.372  0.1775  0.0100 -0.1998
87587SOL    HW174740   3.367   9.290   5.316 -0.4912 -0.1956 -0.7472
87587SOL    HW274741   3.247   9.383   5.312  0.6686  1.3856  0.2970
87588SOL     OW74742   7.725   0.286   6.273  0.0129 -0.1583  0.0577
87588SOL    HW174743   7.733   0.381   6.270  0.6524 -0.2252 -1.0404
87588SOL    HW274744   7.739   0.258   6.182  0.3368 -1.3331  0.4512
87589SOL     OW74745   4.762  10.100   1.774 -0.1905  0.2489 -0.1139
87589SOL    HW174746   4.683  10.083   1.825 -0.6113 -0.8376 -1.0842
87589SOL    HW274747   4.808  10.016   1.772 -0.4497  0.1023 -1.9222
87590SOL     OW74748   9.909   8.481  12.950 -0.4506 -0.3173  0.1727
87590SOL    HW174749   9.957   8.431  13.016  1.5621  2.8052  1.2815
87590SOL    HW274750   9.891   8.565  12.992 -2.5085  0.4349 -2.0095
87591SOL     OW74751   2.171   2.799  13.481 -0.3088 -0.2545  0.3665
87591SOL    HW174752   2.213   2.838  13.558 -1.6422  0.0928  0.9559
87591SOL    HW274753   2.179   2.866  13.413  1.5871 -0.8808 -0.0750
87592SOL     OW74754  12.641   1.824  12.221  0.1271 -0.1922  0.2337
87592SOL    HW174755  12.615   1.857  12.135  1.1433 -1.0241 -0.4262
87592SOL    HW274756  12.616   1.892  12.282 -0.1588  0.6423 -0.7918
87593SOL     OW74757   8.809   1.373   9.424 -0.0162  0.1833 -0.3968
87593SOL    HW174758   8.739   1.323   9.381  0.9532 -0.2144 -1.5536
87593SOL    HW274759   8.860   1.410   9.352  0.9816  0.4678  0.4293
87594SOL     OW74760   8.889   7.698   3.245  0.8936  0.1064  0.4864
87594SOL    HW174761   8.809   7.650   3.267  0.4116  0.3257 -0.6823
87594SOL    HW274762   8.857   7.781   3.208  1.6143 -0.2167 -0.9493
87595SOL     OW74763  13.806   1.679   5.866  0.3790 -0.2187  0.1922
87595SOL    HW174764  13.837   1.658   5.778  3.4057 -0.2662  1.1540
87595SOL    HW274765  13.710   1.680   5.858  0.5033 -1.2462 -2.8275
87596SOL     OW74766   8.273   6.816  10.255  0.3478 -0.0121 -0.2435
87596SOL    HW174767   8.203   6.802  10.192  0.9214 -1.4650 -0.5970
87596SOL    HW274768   8.252   6.900  10.297  0.3421  1.3777 -2.8559
87597SOL     OW74769   6.777   3.534  10.397 -0.5249  0.4906 -0.0342
87597SOL    HW174770   6.752   3.593  10.326  0.6767  0.7085 -0.3147
87597SOL    HW274771   6.824   3.590  10.459 -1.9532  0.3990  1.1940
87598SOL     OW74772  13.405   1.512   7.781  0.0543 -0.1958  0.7857
87598SOL    HW174773  13.480   1.556   7.742 -0.8100 -0.4603 -1.3230
87598SOL    HW274774  13.438   1.476   7.863  1.8375  0.8933  0.5961
87599SOL     OW74775  11.119  13.576  12.512  0.8212  0.0847  0.5307
87599SOL    HW174776  11.105  13.545  12.423 -1.1467  0.0949  0.7823
87599SOL    HW274777  11.032  13.603  12.542  1.1908 -1.0759  2.8971
87600SOL     OW74778   5.768   1.344  12.199 -0.0257  0.1605  0.5397
87600SOL    HW174779   5.688   1.388  12.172  0.5663  1.2929  0.5687
87600SOL    HW274780   5.775   1.362  12.293  0.2766  0.0882  0.5337
87601SOL     OW74781   6.005   8.776   1.722  0.2228 -0.1529  0.6713
87601SOL    HW174782   6.069   8.705   1.729 -0.6788 -1.2685 -1.3208
87601SOL    HW274783   6.045   8.837   1.660  0.9138  1.0311  2.2396
87602SOL     OW74784   1.372   3.089   1.684  0.5262 -0.2394 -0.4004
87602SOL    HW174785   1.358   3.052   1.596  0.3405 -1.2736  0.0566
87602SOL    HW274786   1.391   3.182   1.667  0.0737 -0.3253 -1.5056
87603SOL     OW74787   2.844  12.924  13.946 -0.5063 -0.6584  0.1353
87603SOL    HW174788   2.857  12.830  13.952  1.6286 -0.3348  2.3644
87603SOL    HW274789   2.919  12.955  13.894 -1.9373 -0.2630 -1.7871
87604SOL     OW74790   1.285   9.345   6.225  0.4360 -0.3087 -0.3486
87604SOL    HW174791   1.333   9.273   6.185  2.1716  0.8443 -0.4852
87604SOL    HW274792   1.340   9.422   6.209 -1.2647  1.0331 -0.0855
87605SOL     OW74793   1.498   5.910   8.422 -0.1774 -0.4949 -0.6026
87605SOL    HW174794   1.467   5.856   8.495  0.6010 -2.0385 -1.3501
87605SOL    HW274795   1.430   5.976   8.410 -2.7879 -3.1404 -1.5820
87606SOL     OW74796   2.210  13.672   0.570 -0.0077  0.3378 -0.2834
87606SOL    HW174797   2.269  13.695   0.642  0.3393  0.2474 -0.5345
87606SOL    HW274798   2.155  13.602   0.604  0.6326 -0.2023 -0.3293
87607SOL     OW74799  11.441   9.645   1.240 -0.0497 -0.3022  0.0714
87607SOL    HW174800  11.393   9.629   1.159  0.8100 -0.3106 -0.4382
87607SOL    HW274801  11.522   9.595   1.231  0.5284  0.5310  0.4817
87608SOL     OW74802   4.041   5.978   7.682  0.0592  0.1515 -0.4928
87608SOL    HW174803   4.103   6.020   7.741  0.6962 -0.5081 -0.6799
87608SOL    HW274804   4.042   6.033   7.603  0.7925 -0.1291 -0.6885
87609SOL     OW74805   2.372   3.141  11.245 -0.3799  0.0114  0.1285
87609SOL    HW174806   2.406   3.175  11.162  0.7910  0.0033  0.5878
87609SOL    HW274807   2.391   3.211  11.308  1.2237 -1.0680  0.9077
87610SOL     OW74808   3.944   6.165   6.060  0.0971  0.0236  1.0779
87610SOL    HW174809   3.916   6.087   6.108  0.8747  0.1777  1.8122
87610SOL    HW274810   3.882   6.233   6.086 -0.5909 -0.3417  0.4264
87611SOL     OW74811  10.710  12.214  12.699  0.7174  0.1573 -0.1366
87611SOL    HW174812  10.786  12.188  12.647  0.1939  0.1444 -0.9099
87611SOL    HW274813  10.707  12.310  12.690  0.5525  0.1435 -0.2454
87612SOL     OW74814   5.018   7.187   1.155  0.3574 -0.1080 -0.4141
87612SOL    HW174815   4.973   7.103   1.167  0.3320 -0.2832 -1.5951
87612SOL    HW274816   5.033   7.193   1.061 -2.3482  2.6154 -0.8090
87613SOL     OW74817   9.817   6.313  14.045  0.3623  0.4683  0.1986
87613SOL    HW174818   9.843   6.382  14.106  0.3990  0.4978  0.1501
87613SOL    HW274819   9.748   6.265  14.090  0.6641  0.2438  0.4276
87614SOL     OW74820   8.347   9.412   5.986  0.8666 -0.4084  0.2595
87614SOL    HW174821   8.419   9.372   5.938  0.9663 -0.5046  0.4896
87614SOL    HW274822   8.270   9.361   5.961  1.0628 -1.0277  0.8904
87615SOL     OW74823   1.318  10.135   1.599 -0.3753  0.3292 -0.6412
87615SOL    HW174824   1.255  10.160   1.667  2.0107  2.8484  0.8386
87615SOL    HW274825   1.387  10.202   1.604  1.9778 -1.7260 -2.7961
87616SOL     OW74826  14.045  13.635   5.704 -0.2931  0.2496  0.1602
87616SOL    HW174827  14.085  13.716   5.671 -1.4896  0.4305 -0.9050
87616SOL    HW274828  14.006  13.594   5.627  1.5619 -2.1471  0.3792
87617SOL     OW74829   5.806   1.438   8.128  0.0230  0.3774  0.5272
87617SOL    HW174830   5.761   1.387   8.196 -0.8908  0.8483  0.2876
87617SOL    HW274831   5.826   1.521   8.170  0.5267  0.2386  0.5749
87618SOL     OW74832  12.555  11.394   6.158  0.0943 -0.0979 -0.1177
87618SOL    HW174833  12.564  11.334   6.232 -1.6261 -0.2738 -0.0062
87618SOL    HW274834  12.638  11.387   6.112  0.6450 -1.1196  0.9579
87619SOL     OW74835  11.347   3.789   2.836 -0.4594 -0.4645  0.3928
87619SOL    HW174836  11.412   3.787   2.906 -1.4269 -1.6781  1.3121
87619SOL    HW274837  11.316   3.698   2.829  1.1968 -0.9257 -3.2084
87620SOL     OW74838  12.196   2.777  13.559 -0.1350  0.4059 -0.0609
87620SOL    HW174839  12.209   2.861  13.604 -0.2837  0.7179 -0.5951
87620SOL    HW274840  12.236   2.790  13.473  0.1717 -0.1974 -0.0170
87621SOL     OW74841  11.561   6.456   6.087  0.0619  0.6777 -0.3669
87621SOL    HW174842  11.648   6.495   6.091 -0.4801  2.0056 -0.8963
87621SOL    HW274843  11.542   6.431   6.178  1.1813 -0.1242 -0.3282
87622SOL     OW74844   3.260   4.571   8.852  0.0689  0.1135  0.1946
87622SOL    HW174845   3.192   4.624   8.810  1.0620  0.5020 -0.9749
87622SOL    HW274846   3.283   4.505   8.786  0.0394 -0.7234  1.0031
87623SOL     OW74847  12.292   6.859   3.658  0.3662  0.3611 -0.0833
87623SOL    HW174848  12.224   6.819   3.603 -1.2216  0.5375  1.6525
87623SOL    HW274849  12.277   6.823   3.745  1.0252  2.1610  0.8319
87624SOL     OW74850   8.579   4.575   3.333 -0.1611 -0.1800  0.6428
87624SOL    HW174851   8.513   4.580   3.403  0.7380 -0.8956  1.5678
87624SOL    HW274852   8.573   4.484   3.302 -0.1014 -0.0460  0.2382
87625SOL     OW74853   3.867  13.771   5.992  0.3361  0.1793  0.0281
87625SOL    HW174854   3.909  13.743   5.911  0.6646  0.1672  0.1984
87625SOL    HW274855   3.791  13.822   5.964 -0.3200 -0.9369 -0.2868
87626SOL     OW74856  12.643  11.243   2.942 -0.0327  0.0767  0.0178
87626SOL    HW174857  12.596  11.204   2.868  0.8879 -0.6708 -0.1865
87626SOL    HW274858  12.654  11.170   3.004 -0.7206  0.6715  0.8643
87627SOL     OW74859  10.375   2.466   9.013  0.6239 -0.3772  0.0799
87627SOL    HW174860  10.391   2.525   9.087  0.3780 -0.5868  0.3009
87627SOL    HW274861  10.313   2.514   8.958  1.4575  0.1413 -0.4283
87628SOL     OW74862   2.695   7.180   5.637 -0.2374 -0.3712  0.4288
87628SOL    HW174863   2.601   7.198   5.644 -0.6126 -0.9283 -2.0102
87628SOL    HW274864   2.704   7.088   5.660 -0.2667 -0.2841  0.7926
87629SOL     OW74865   2.233   9.381   5.488 -0.0936  0.1609 -0.3971
87629SOL    HW174866   2.161   9.441   5.508  1.0721  0.9595  1.6357
87629SOL    HW274867   2.199   9.295   5.512  0.8630  0.9287  4.8727
87630SOL     OW74868   0.858   7.883   4.611  0.3636  0.2340  0.2317
87630SOL    HW174869   0.918   7.871   4.537 -0.3036 -0.2798 -0.2384
87630SOL    HW274870   0.773   7.895   4.570  0.2370  1.7060  0.8619
87631SOL     OW74871  12.395   2.295  10.189  0.2402  0.1403  0.0653
87631SOL    HW174872  12.377   2.389  10.188  0.5648  0.2268  1.1226
87631SOL    HW274873  12.335   2.260  10.255 -0.4965 -0.5414 -0.9281
87632SOL     OW74874  12.985  11.446  12.319  0.0460  0.6874 -0.1207
87632SOL    HW174875  12.903  11.485  12.349  0.2802  0.5049  0.8036
87632SOL    HW274876  13.051  11.513  12.335  0.4040  0.0631  1.1946
87633SOL     OW74877   6.073   7.993   0.174  0.4921  0.6379 -0.1228
87633SOL    HW174878   6.077   7.919   0.234  0.0090 -0.7260 -1.6703
87633SOL    HW274879   6.120   7.962   0.096 -1.8114  0.9672 -1.7532
87634SOL     OW74880   7.843   4.452   7.629 -0.3553 -0.4341 -0.1787
87634SOL    HW174881   7.933   4.421   7.641 -1.0867 -2.9274 -0.6869
87634SOL    HW274882   7.811   4.467   7.718 -0.5732 -3.1973  0.3086
87635SOL     OW74883  13.324   2.141   9.566  0.4612  0.2243 -0.0552
87635SOL    HW174884  13.376   2.186   9.499 -1.4200  3.3807  0.4077
87635SOL    HW274885  13.389   2.102   9.624  2.2343  1.4704 -1.1058
87636SOL     OW74886   4.995  13.114   3.560  0.6399  0.2358 -0.3126
87636SOL    HW174887   4.958  13.131   3.474  1.4693  1.4082 -0.4638
87636SOL    HW274888   4.929  13.062   3.606 -0.9408  1.7895 -0.7660
87637SOL     OW74889   3.419   0.284  11.131 -0.3210  0.0242  0.3660
87637SOL    HW174890   3.357   0.356  11.117 -0.0557  0.0528 -0.7285
87637SOL    HW274891   3.475   0.314  11.203  1.8776  2.3810 -2.1001
87638SOL     OW74892   7.724   3.761   6.261  0.1375 -0.5216  0.0656
87638SOL    HW174893   7.800   3.705   6.246  0.7009  0.0762  0.6562
87638SOL    HW274894   7.653   3.717   6.215  0.7895 -1.2030 -0.3101
87639SOL     OW74895   6.180  10.740   4.748  0.2613 -0.4667 -0.0774
87639SOL    HW174896   6.264  10.729   4.703  0.3672 -0.7415  0.1852
87639SOL    HW274897   6.128  10.665   4.721  0.9410 -1.6054  1.6112
87640SOL     OW74898   5.166   0.746   8.198 -0.1919 -0.1766 -0.3104
87640SOL    HW174899   5.156   0.720   8.290 -0.4173 -0.8165 -0.5115
87640SOL    HW274900   5.080   0.782   8.175 -0.2206 -0.2620 -0.3415
87641SOL     OW74901  11.891   1.706  10.107 -0.2258  0.0784 -0.3851
87641SOL    HW174902  11.958   1.725  10.041  0.6420  0.4768  0.5767
87641SOL    HW274903  11.814   1.755  10.078  0.6550  1.6179 -0.2531
87642SOL     OW74904  11.648   2.247   1.895 -0.7005  0.1697 -0.0301
87642SOL    HW174905  11.595   2.261   1.816 -0.3897  0.6168 -0.1638
87642SOL    HW274906  11.682   2.334   1.917  0.4321 -0.1917 -0.2757
87643SOL     OW74907  13.332  11.500   3.588  0.1547  0.3627 -0.0339
87643SOL    HW174908  13.392  11.427   3.605 -0.5208 -0.1304  0.2643
87643SOL    HW274909  13.254  11.480   3.639 -0.4142  0.8106 -0.6995
87644SOL     OW74910   8.869   6.311   3.382 -0.2900  0.3301 -0.0841
87644SOL    HW174911   8.938   6.248   3.364 -1.6216 -0.9077 -1.1215
87644SOL    HW274912   8.825   6.323   3.298  0.3266  3.2304 -0.0993
87645SOL     OW74913   4.136  11.615   7.469  0.6544 -0.2945  0.5093
87645SOL    HW174914   4.165  11.525   7.482  0.7958 -0.5628 -1.3546
87645SOL    HW274915   4.217  11.666   7.461  0.6473 -0.4407 -0.9021
87646SOL     OW74916   6.803   6.984  12.096  0.5271  0.5802  0.2119
87646SOL    HW174917   6.776   7.010  12.184 -0.5051 -2.9827  1.1219
87646SOL    HW274918   6.721   6.977  12.047  0.8230 -0.0881 -0.2017
87647SOL     OW74919  13.562  11.522  12.629  0.5442 -0.0149 -0.8168
87647SOL    HW174920  13.582  11.450  12.569  0.7618 -2.6655  2.1643
87647SOL    HW274921  13.641  11.577  12.628  0.3679  0.2832 -3.1707
87648SOL     OW74922  13.331  13.609   6.521 -0.0681  0.2913  0.6966
87648SOL    HW174923  13.286  13.560   6.590  0.8113  0.0962  1.1339
87648SOL    HW274924  13.386  13.544   6.477 -1.1344  0.2526 -0.6639
87649SOL     OW74925  12.713  13.072  11.821  0.2571 -0.1080 -0.5377
87649SOL    HW174926  12.637  13.059  11.876  0.7958 -0.1581  0.2081
87649SOL    HW274927  12.762  12.990  11.827  1.3541  0.5885  0.5560
87650SOL     OW74928   7.082   0.861  11.192  0.6174 -0.1822  0.6999
87650SOL    HW174929   7.074   0.774  11.152  0.5392 -0.4136  1.2226
87650SOL    HW274930   7.163   0.857  11.242  1.5281  0.6047 -0.6557
87651SOL     OW74931   2.539   4.436  10.642  0.5347 -0.7794 -0.3117
87651SOL    HW174932   2.474   4.489  10.688 -0.6206 -0.6476 -2.0298
87651SOL    HW274933   2.579   4.383  10.711 -0.3162  0.2107  1.0102
87652SOL     OW74934   9.286   6.343  10.222  0.3287 -0.4520 -0.4858
87652SOL    HW174935   9.227   6.269  10.235  2.3025 -2.1713 -0.8460
87652SOL    HW274936   9.314   6.337  10.130 -0.4525  1.5557 -0.9266
87653SOL     OW74937   0.984  11.931   7.449 -0.4524  0.1344 -0.2649
87653SOL    HW174938   0.955  11.938   7.358 -0.6543  0.3568 -0.1873
87653SOL    HW274939   0.995  12.022   7.477 -2.5910  0.1949  0.6197
87654SOL     OW74940   2.893   1.976   9.229  0.2072 -0.4646  0.4061
87654SOL    HW174941   2.887   1.883   9.251 -1.2573 -0.2636  0.9580
87654SOL    HW274942   2.873   2.021   9.311 -0.5529  0.3241 -0.1934
87655SOL     OW74943   3.679   8.911   0.526  0.4744 -0.2990 -0.1125
87655SOL    HW174944   3.589   8.881   0.512  0.8709 -0.5905 -2.5612
87655SOL    HW274945   3.729   8.873   0.454  1.8260  2.7914 -0.9990
87656SOL     OW74946   5.869   1.916   4.868 -0.1625  0.0541 -0.1971
87656SOL    HW174947   5.939   1.972   4.835 -1.4066  0.7935 -1.6902
87656SOL    HW274948   5.914   1.836   4.896  1.2128  0.1932 -1.8254
87657SOL     OW74949   9.182   8.298  12.827  0.5100 -0.2809 -0.2157
87657SOL    HW174950   9.208   8.378  12.781 -0.4795  0.3137  0.2148
87657SOL    HW274951   9.246   8.288  12.896  0.9933 -0.1942 -0.6449
87658SOL     OW74952  13.791  13.064   1.577 -0.1902 -0.1554  0.0106
87658SOL    HW174953  13.845  13.140   1.556  0.1279 -0.9536 -2.3114
87658SOL    HW274954  13.846  13.010   1.633  0.0425  0.7075  0.6373
87659SOL     OW74955   3.071   3.919   0.383  0.9573  0.4061 -0.1097
87659SOL    HW174956   2.977   3.940   0.384  0.7176 -0.4483  1.8165
87659SOL    HW274957   3.113   3.995   0.422  0.8385  0.0989  0.6472
87660SOL     OW74958  10.943   4.719   1.017 -0.6239 -0.5082 -0.6564
87660SOL    HW174959  10.990   4.681   1.091  0.7301 -2.9388 -2.6342
87660SOL    HW274960  10.855   4.735   1.050  0.4359  0.4195  2.0121
87661SOL     OW74961   0.153   1.814   4.449 -0.2601 -0.1413  0.3501
87661SOL    HW174962   0.196   1.735   4.417 -0.2225  0.0940 -0.1904
87661SOL    HW274963   0.211   1.886   4.423 -1.2648  0.2381 -0.9431
87662SOL     OW74964  11.856   8.898   8.918  0.1081  0.1945  0.0666
87662SOL    HW174965  11.787   8.851   8.965  0.2304 -0.0272  0.0264
87662SOL    HW274966  11.844   8.875   8.826 -1.5273  2.3884 -0.3409
87663SOL     OW74967   1.194  11.865   7.044  0.5866 -0.1221  0.1859
87663SOL    HW174968   1.267  11.870   7.106  1.5358  0.6283 -0.9439
87663SOL    HW274969   1.234  11.886   6.959 -0.7373 -0.7956 -0.6294
87664SOL     OW74970   7.700   1.445   3.932 -0.0473 -0.6576  0.1867
87664SOL    HW174971   7.793   1.466   3.946 -0.4064  0.9573  0.3496
87664SOL    HW274972   7.686   1.461   3.839 -0.1365 -1.0310  0.1349
87665SOL     OW74973   1.590  11.636   5.202  0.1873  0.7081 -0.4728
87665SOL    HW174974   1.685  11.631   5.198  0.1099 -1.3003 -1.1034
87665SOL    HW274975   1.567  11.601   5.288  0.0276  1.2954 -0.2760
87666SOL     OW74976   6.021   3.834   0.731  0.0620  0.4090  0.0176
87666SOL    HW174977   5.956   3.776   0.772 -0.4278  1.1011  0.2398
87666SOL    HW274978   5.971   3.912   0.707  0.3318  0.0537 -1.8845
87667SOL     OW74979  11.914  12.113   0.339  0.2900  0.1604  0.2582
87667SOL    HW174980  11.937  12.171   0.266  1.7095  1.9584  2.0463
87667SOL    HW274981  11.822  12.131   0.356  0.2882  0.6773 -0.2490
87668SOL     OW74982   4.638  11.079  11.532 -0.6988  0.2239  0.1854
87668SOL    HW174983   4.684  11.134  11.596 -1.1811  1.3699 -0.4303
87668SOL    HW274984   4.557  11.053  11.576 -1.7919  2.3172 -0.4643
87669SOL     OW74985   1.059  11.751  13.381  0.2166 -0.6659  0.0102
87669SOL    HW174986   1.002  11.745  13.458  1.5057 -1.5788  0.9452
87669SOL    HW274987   1.096  11.839  13.386  0.5525 -0.8303  0.6588
87670SOL     OW74988  11.471  13.807   3.435 -0.5465  0.0385  0.2153
87670SOL    HW174989  11.412  13.867   3.481 -1.1454  0.7816 -1.4315
87670SOL    HW274990  11.412  13.746   3.390  0.0365 -1.0881  0.9603
87671SOL     OW74991   7.245   5.397   7.723 -0.4399 -0.2454  0.6676
87671SOL    HW174992   7.243   5.441   7.639 -1.1433 -1.3048  0.1021
87671SOL    HW274993   7.295   5.455   7.780 -0.2431  0.6427 -0.3846
87672SOL     OW74994   2.072   1.903   8.074  0.2041  0.3467  0.3264
87672SOL    HW174995   2.044   1.994   8.071  0.9194  0.6105  1.3247
87672SOL    HW274996   2.143   1.898   8.010  0.9029  0.7693  1.0464
87673SOL     OW74997  12.263   9.400   2.265  0.1760  0.3673 -0.5408
87673SOL    HW174998  12.316   9.323   2.284  0.9155  0.9073 -0.3502
87673SOL    HW274999  12.186   9.366   2.221  0.1095 -0.5656  0.2503
87674SOL     OW75000  10.966   8.016  13.599  0.2226  0.4817  0.2092
87674SOL    HW175001  10.978   7.929  13.636 -0.9618  0.9394  1.7879
87674SOL    HW275002  10.989   8.007  13.506  0.7631 -1.3277  0.4927
87675SOL     OW75003   2.977  11.448   1.976 -0.0854 -0.7030  0.1299
87675SOL    HW175004   3.070  11.441   1.997 -0.2724  1.5255  2.0666
87675SOL    HW275005   2.938  11.372   2.017  0.4441  0.3107  2.7199
87676SOL     OW75006  12.729   3.532   0.410  0.3446 -0.2163  0.1618
87676SOL    HW175007  12.786   3.461   0.439  1.3381  0.7569  0.6981
87676SOL    HW275008  12.765   3.610   0.453 -0.0064  0.8032 -1.3150
87677SOL     OW75009   2.799   5.653  12.837 -0.4815 -0.2320 -0.0028
87677SOL    HW175010   2.863   5.720  12.861  0.9286 -0.8888 -1.7326
87677SOL    HW275011   2.717   5.702  12.827  0.3417  1.1218 -0.4460
87678SOL     OW75012  11.538   5.139   6.863  0.2816  0.3662 -1.2331
87678SOL    HW175013  11.618   5.155   6.813  1.6623 -0.6381  0.5440
87678SOL    HW275014  11.484   5.085   6.805  1.6902 -0.5177 -1.7668
87679SOL     OW75015   5.463  11.702   6.348  0.3617  0.3699  0.5398
87679SOL    HW175016   5.418  11.729   6.268  1.8049 -0.3125 -0.5313
87679SOL    HW275017   5.441  11.610   6.358 -0.7763  0.7219  1.6306
87680SOL     OW75018  13.345   4.016   3.009  0.0686  0.0864  0.3501
87680SOL    HW175019  13.259   4.051   3.032 -0.9410 -2.6922  1.2463
87680SOL    HW275020  13.358   4.042   2.918 -1.7708  0.4514  0.1474
87681SOL     OW75021   9.295   7.973   0.923 -0.6960  0.3447  0.5739
87681SOL    HW175022   9.348   8.032   0.870 -0.3139 -0.0781  0.4774
87681SOL    HW275023   9.234   8.030   0.969  0.0877  0.8771  0.9694
87682SOL     OW75024  10.587   2.602  12.993 -0.0993 -0.0583 -0.2111
87682SOL    HW175025  10.539   2.666  12.941  0.1601 -0.3510 -0.8143
87682SOL    HW275026  10.628   2.653  13.062  0.1828  0.4380 -0.7390
87683SOL     OW75027   9.642   8.153  10.733 -0.8406 -0.0108  0.1778
87683SOL    HW175028   9.720   8.140  10.787 -0.4708 -0.8482 -0.5495
87683SOL    HW275029   9.573   8.174  10.797 -0.1029  0.4547  0.8514
87684SOL     OW75030   4.230   5.354  12.245 -0.2445 -0.4670 -0.0239
87684SOL    HW175031   4.307   5.339  12.190 -0.2599  0.9648 -0.4752
87684SOL    HW275032   4.235   5.447  12.267 -0.4462 -0.9199  2.1047
87685SOL     OW75033   6.249   2.141   2.560  0.0925 -0.2792  0.6727
87685SOL    HW175034   6.158   2.111   2.568 -0.7563  2.1044  0.6773
87685SOL    HW275035   6.284   2.091   2.486 -1.3638 -0.9447  0.3918
87686SOL     OW75036   5.387   1.788   4.062  0.0302  0.5088  0.0003
87686SOL    HW175037   5.393   1.827   3.975  1.0702  1.9601  0.6783
87686SOL    HW275038   5.343   1.855   4.115  0.5049  0.1500  0.8689
87687SOL     OW75039   3.202   9.435  13.375 -0.0716  0.1234  0.6394
87687SOL    HW175040   3.179   9.525  13.397  0.5186  0.0821  1.4474
87687SOL    HW275041   3.223   9.394  13.459 -0.8145 -0.9126  0.3367
87688SOL     OW75042   6.997   7.372  12.217 -0.5254  0.1512  0.8544
87688SOL    HW175043   7.022   7.300  12.274 -0.9823 -0.3246  0.4673
87688SOL    HW275044   6.930   7.334  12.159  0.4739  0.3924 -0.5105
87689SOL     OW75045   0.648   0.008   0.108  0.4200 -0.0392  0.3603
87689SOL    HW175046   0.615   0.098   0.111 -2.6177 -1.0417  0.1916
87689SOL    HW275047   0.658  -0.011   0.015  0.0238 -0.2001  0.3484
87690SOL     OW75048   2.980  12.286   9.299 -0.1494 -0.9489 -0.0975
87690SOL    HW175049   2.970  12.204   9.348 -0.0624  0.3234  2.1985
87690SOL    HW275050   2.895  12.330   9.309 -0.1637 -0.6938 -1.2194
87691SOL     OW75051   7.228  11.851   0.998  0.0374  0.2149 -0.6325
87691SOL    HW175052   7.134  11.855   0.977  0.0090 -1.2997 -0.9049
87691SOL    HW275053   7.272  11.858   0.913  0.1468  0.1736 -0.5795
87692SOL     OW75054   4.914   0.747  13.528  0.3741  0.3248  0.2854
87692SOL    HW175055   4.950   0.668  13.568 -0.7790 -0.2566  0.2236
87692SOL    HW275056   4.953   0.750  13.441  0.8375  0.1301  0.4806
87693SOL     OW75057   0.979   8.208  10.788 -0.6165  0.2605 -0.1390
87693SOL    HW175058   0.885   8.223  10.788 -0.4533  1.4166 -0.5990
87693SOL    HW275059   0.994   8.152  10.712 -0.9407  0.0161 -0.0239
87694SOL     OW75060   7.058   0.398  11.344 -0.1168 -0.2043 -0.3820
87694SOL    HW175061   7.104   0.374  11.263  0.5643  0.4786 -0.2058
87694SOL    HW275062   7.125   0.397  11.411 -0.3912  0.5929 -0.0773
87695SOL     OW75063   5.856   9.870  12.972  0.0744  0.2881 -0.1672
87695SOL    HW175064   5.927   9.850  13.033  2.6636  5.4067 -0.9686
87695SOL    HW275065   5.887   9.837  12.887 -0.5125 -1.0555  0.1099
87696SOL     OW75066   6.209   6.914   5.734 -0.3624  0.1212  0.2282
87696SOL    HW175067   6.217   6.912   5.639 -0.5967  0.5408  0.2001
87696SOL    HW275068   6.151   6.841   5.755 -0.0034 -0.2091  0.0813
87697SOL     OW75069   1.869   4.096   2.122 -0.2682 -0.1195  0.1736
87697SOL    HW175070   1.875   4.023   2.183  2.6395  0.5703  0.8369
87697SOL    HW275071   1.901   4.061   2.039  1.7376  0.4749  0.6451
87698SOL     OW75072  13.828  10.680  12.539  0.1249  0.1317 -0.0036
87698SOL    HW175073  13.833  10.619  12.613  2.4832  0.5973  0.3018
87698SOL    HW275074  13.840  10.766  12.578  0.7793  0.4344 -0.8421
87699SOL     OW75075   9.738   6.821   9.037 -0.1807 -0.1847 -0.1118
87699SOL    HW175076   9.719   6.740   8.989 -1.3222 -1.2439  1.9740
87699SOL    HW275077   9.833   6.821   9.048 -0.0809 -0.7813 -0.9155
87700SOL     OW75078   1.346   7.471   7.586 -0.1359  0.1962  0.3755
87700SOL    HW175079   1.432   7.505   7.561 -0.4214  0.3339 -0.4584
87700SOL    HW275080   1.349   7.378   7.563 -0.2857  0.2495  0.1409
87701SOL     OW75081   4.707   4.139   6.909  0.0595 -0.5409  0.4804
87701SOL    HW175082   4.631   4.109   6.959  0.1004 -0.8988  0.3304
87701SOL    HW275083   4.772   4.161   6.976 -0.3227  0.1855  0.6253
87702SOL     OW75084   5.654   6.932   5.138 -0.0046 -0.0466  0.4171
87702SOL    HW175085   5.576   6.888   5.104 -0.4297  0.6304  0.5039
87702SOL    HW275086   5.722   6.914   5.072 -0.8792  1.4649 -0.9569
87703SOL     OW75087   5.481   7.454   5.268  0.4412 -0.0603  0.1622
87703SOL    HW175088   5.558   7.481   5.218  0.8498 -1.3017  0.0794
87703SOL    HW275089   5.422   7.416   5.203  0.3238 -0.3076  0.4118
87704SOL     OW75090   3.587  11.852  13.357 -0.0853 -0.5099  0.2250
87704SOL    HW175091   3.680  11.875  13.361 -0.2590  0.3467 -0.3572
87704SOL    HW275092   3.542  11.932  13.383 -0.6814 -0.6465 -0.3643
87705SOL     OW75093   7.634   7.067  10.616  0.2074  0.5340  0.2061
87705SOL    HW175094   7.602   7.036  10.701  0.6905 -0.2872  0.1035
87705SOL    HW275095   7.557   7.106  10.575 -0.3355 -0.1566  0.5268
87706SOL     OW75096   5.450   3.556   6.192 -0.1966 -0.2806  0.0633
87706SOL    HW175097   5.514   3.497   6.152 -1.6894 -0.9732 -1.4290
87706SOL    HW275098   5.385   3.571   6.123  0.0023  3.0282  0.4051
87707SOL     OW75099   4.962   6.251   1.644 -0.3492 -0.0603 -0.1051
87707SOL    HW175100   5.026   6.180   1.639  1.8670  1.6361  1.9812
87707SOL    HW275101   4.911   6.232   1.723  1.6268  1.5923  1.6818
87708SOL     OW75102   3.104   9.889   9.883  0.0792 -1.1912 -0.3414
87708SOL    HW175103   3.121   9.811   9.830 -0.1266 -1.8609  0.5432
87708SOL    HW275104   3.190   9.914   9.917 -0.2346 -3.2692  2.3497
87709SOL     OW75105   8.708   0.566  13.029 -0.0087 -0.5899  0.1159
87709SOL    HW175106   8.745   0.583  13.116  1.0490 -2.5550  0.1173
87709SOL    HW275107   8.654   0.488  13.042 -0.1399 -0.6733 -0.9146
87710SOL     OW75108   4.376   8.306  11.507  0.1260 -0.7487  0.0929
87710SOL    HW175109   4.372   8.357  11.426  1.3096 -0.8936 -0.0833
87710SOL    HW275110   4.287   8.276  11.522 -0.0445 -0.9968 -1.3431
87711SOL     OW75111  13.041  10.049   4.950  0.0930  0.4732 -0.2049
87711SOL    HW175112  13.069   9.976   5.005  1.4672  1.1588  0.0751
87711SOL    HW275113  12.970  10.090   4.999  0.6715  0.5105  0.6329
87712SOL     OW75114   3.794   6.307  13.345 -0.0299  0.0010 -0.2013
87712SOL    HW175115   3.702   6.332  13.340  0.2624  1.2880  0.3693
87712SOL    HW275116   3.837   6.381  13.388  1.1717 -0.8438  0.1257
87713SOL     OW75117   8.403   1.391  13.448 -0.0132  0.3949  0.6699
87713SOL    HW175118   8.358   1.472  13.423 -0.9811 -0.3618 -0.1206
87713SOL    HW275119   8.339   1.322  13.430  1.0700 -0.6197  0.6064
87714SOL     OW75120   4.990   1.445   9.690  0.5858 -0.2305  0.1155
87714SOL    HW175121   4.924   1.494   9.739  0.3074  1.3261 -1.6758
87714SOL    HW275122   5.034   1.391   9.755 -0.6702  0.6886  1.8025
87715SOL     OW75123   3.996  11.807   0.894  0.3684 -0.3166  0.4414
87715SOL    HW175124   3.925  11.866   0.870 -1.7724 -2.0484  2.0796
87715SOL    HW275125   4.012  11.755   0.815 -0.4717 -0.1460  0.1490
87716SOL     OW75126   0.589  11.283   5.947  0.3638  0.8561  0.0478
87716SOL    HW175127   0.605  11.195   5.982 -2.2494  0.2824  0.0557
87716SOL    HW275128   0.633  11.342   6.009 -0.6148 -0.3399  2.0082
87717SOL     OW75129   4.140   3.455  12.710  0.2887  0.1460  0.2756
87717SOL    HW175130   4.150   3.393  12.782  0.2232 -1.1472 -0.7828
87717SOL    HW275131   4.229   3.485  12.692  0.4505 -0.3481  0.2200
87718SOL     OW75132   4.430   0.535   8.306 -0.4556  0.0741  0.1793
87718SOL    HW175133   4.499   0.598   8.325 -0.6712  1.0353 -1.9206
87718SOL    HW275134   4.349   0.580   8.333 -0.4828  0.1203  0.0252
87719SOL     OW75135  10.563   0.277   2.154 -0.3367  0.5857 -0.1447
87719SOL    HW175136  10.531   0.368   2.150 -1.3434  0.2095 -1.0427
87719SOL    HW275137  10.659   0.286   2.148 -0.3149  1.6557  1.2152
87720SOL     OW75138   4.152   1.128   3.579 -0.2221  0.6116  0.3370
87720SOL    HW175139   4.142   1.069   3.505  1.1356  0.8109 -0.0308
87720SOL    HW275140   4.162   1.215   3.540  3.2675  0.4309  0.4814
87721SOL     OW75141   0.881   7.700   1.769 -0.2609  0.2732 -0.5480
87721SOL    HW175142   0.814   7.740   1.714 -0.7459  2.2876  1.3557
87721SOL    HW275143   0.963   7.736   1.737 -0.2256 -0.9314 -1.8518
87722SOL     OW75144   4.090   3.280  12.919 -0.4417  0.0545 -0.0652
87722SOL    HW175145   4.017   3.332  12.951 -1.7575  0.1069 -2.8986
87722SOL    HW275146   4.073   3.192  12.953 -1.3087  0.2674  0.0791
87723SOL     OW75147  10.609   7.184   3.324  0.4306 -0.2121 -0.1461
87723SOL    HW175148  10.684   7.238   3.349 -1.3188  2.6181 -0.5480
87723SOL    HW275149  10.629   7.154   3.236  0.4271  2.0623 -1.0041
87724SOL     OW75150   0.567  10.731  10.326  0.5361 -0.1516  0.3049
87724SOL    HW175151   0.628  10.711  10.254  0.8963 -0.1738  0.6137
87724SOL    HW275152   0.518  10.807  10.295  0.1116 -0.6682 -0.3097
87725SOL     OW75153   0.044   0.957   4.219  0.0067 -0.6579  0.2595
87725SOL    HW175154   0.086   0.886   4.268  0.3206 -0.6559 -0.0010
87725SOL    HW275155  -0.045   0.926   4.203  0.1603 -1.0125  0.1025
87726SOL     OW75156   0.324   2.652   0.832  0.1729 -0.4369  0.4746
87726SOL    HW175157   0.372   2.588   0.883  0.6935  0.3671  1.0132
87726SOL    HW275158   0.253   2.680   0.889  1.1762  0.9946  1.0909
87727SOL     OW75159   8.987   5.516  11.432 -0.7398  0.2933  0.1481
87727SOL    HW175160   8.935   5.505  11.512 -1.2855  0.0264 -0.2370
87727SOL    HW275161   8.922   5.532  11.363 -0.2243  1.6670 -0.0653
87728SOL     OW75162  10.592   1.260   1.186  0.1195 -0.2436  0.5650
87728SOL    HW175163  10.503   1.294   1.174  0.4197  0.4636  0.2242
87728SOL    HW275164  10.633   1.271   1.100  1.3670  1.9804  1.3505
87729SOL     OW75165   4.312   0.142   6.753  0.8282  0.2745 -0.2362
87729SOL    HW175166   4.301   0.158   6.659  1.9958 -1.0549 -0.6369
87729SOL    HW275167   4.406   0.129   6.764  0.7610  0.8437  1.2072
87730SOL     OW75168   2.257   3.646   1.980  0.3223  0.4369 -0.6642
87730SOL    HW175169   2.232   3.738   1.988  1.7727  0.8437 -0.4021
87730SOL    HW275170   2.300   3.626   2.063 -0.0807 -0.5154 -0.6766
87731SOL     OW75171  13.244  11.486   9.370 -0.1749  0.6171 -0.1105
87731SOL    HW175172  13.261  11.576   9.340 -0.4440  0.2517 -1.4309
87731SOL    HW275173  13.233  11.436   9.289 -0.7485 -0.4686  0.6237
87732SOL     OW75174   9.335   5.231   9.780 -0.1023 -0.0737 -0.4679
87732SOL    HW175175   9.354   5.276   9.863  0.0801 -0.1746 -0.4543
87732SOL    HW275176   9.421   5.212   9.743 -0.1834 -0.1161 -0.6349
87733SOL     OW75177   7.293  13.537  10.656  0.2738  0.2071 -0.1080
87733SOL    HW175178   7.234  13.491  10.595  1.5543 -2.1831  0.3723
87733SOL    HW275179   7.370  13.557  10.603  1.3690 -1.8303  0.6310
87734SOL     OW75180   4.761   6.451  10.404 -0.2173  0.3537  0.4351
87734SOL    HW175181   4.704   6.376  10.388 -0.1479  0.6324 -1.2671
87734SOL    HW275182   4.709   6.510  10.458 -0.7964 -0.2845  0.5801
87735SOL     OW75183   1.233   4.288  11.005  0.3992  0.0662  0.1313
87735SOL    HW175184   1.215   4.238  10.926  2.8895 -0.6657 -0.0727
87735SOL    HW275185   1.300   4.351  10.979  0.4114  0.5986  1.3850
87736SOL     OW75186  11.156   1.565   6.374  0.6848 -0.0631  0.8112
87736SOL    HW175187  11.178   1.533   6.287  1.0615 -0.0781  0.9078
87736SOL    HW275188  11.241   1.576   6.417  0.4556 -0.9714  1.5025
87737SOL     OW75189  13.248   7.572   6.264 -0.0714  0.1187 -0.2603
87737SOL    HW175190  13.249   7.599   6.172 -0.2870  2.2887  0.3349
87737SOL    HW275191  13.332   7.601   6.298 -0.5847  0.6389  0.5739
87738SOL     OW75192   8.411   0.809  10.942 -0.6450  0.3090  0.3943
87738SOL    HW175193   8.439   0.768  10.860  0.6115 -2.4570  2.0594
87738SOL    HW275194   8.324   0.773  10.960 -1.2095  1.4261 -0.0061
87739SOL     OW75195   5.074  10.706   0.343 -0.1434  0.1878 -0.0018
87739SOL    HW175196   5.158  10.670   0.370 -0.3405 -1.7296 -1.7095
87739SOL    HW275197   5.027  10.723   0.425  1.8691  1.3327  0.9789
87740SOL     OW75198   8.382  10.029  11.970 -0.3411 -0.0901 -0.2782
87740SOL    HW175199   8.367   9.974  11.893  1.0933 -1.3144  0.2591
87740SOL    HW275200   8.429  10.105  11.936 -0.0924 -0.4223 -0.6921
87741SOL     OW75201  12.071   5.887  10.515  0.1323  0.1065  0.1406
87741SOL    HW175202  12.125   5.814  10.485  0.3263 -0.0844  0.9304
87741SOL    HW275203  11.989   5.879  10.465 -0.0217 -0.9054  0.5420
87742SOL     OW75204  13.640   6.381  10.338  0.1201  0.1075  0.2823
87742SOL    HW175205  13.650   6.291  10.371 -0.1981 -1.0920 -2.6165
87742SOL    HW275206  13.573   6.419  10.395  1.5766 -0.7977  2.7658
87743SOL     OW75207   4.518   3.134   4.443 -0.2393  0.2275  0.4627
87743SOL    HW175208   4.499   3.165   4.531  0.5103 -2.5820  1.7290
87743SOL    HW275209   4.590   3.190   4.413  0.0325  0.7236  1.9527
87744SOL     OW75210  10.506  10.282  12.305 -0.3643  1.1116  0.2564
87744SOL    HW175211  10.515  10.290  12.400  0.7650  0.1224  0.2498
87744SOL    HW275212  10.593  10.302  12.270 -0.8987  2.0176 -0.6315
87745SOL     OW75213   8.572   7.648   6.519  0.4763  0.0422  0.1836
87745SOL    HW175214   8.499   7.709   6.534 -0.1619 -0.6652 -0.0111
87745SOL    HW275215   8.530   7.563   6.506  1.3448 -0.3840  0.1211
87746SOL     OW75216  12.601  10.463   6.550  0.1599  0.1373  0.0662
87746SOL    HW175217  12.623  10.527   6.618 -1.0003 -2.0764  2.7162
87746SOL    HW275218  12.543  10.510   6.491 -2.2966  1.1431  3.0280
87747SOL     OW75219  12.322  13.626   9.144 -0.4244  0.1543  0.3049
87747SOL    HW175220  12.335  13.701   9.086 -2.4553 -1.2691 -2.2081
87747SOL    HW275221  12.355  13.551   9.095 -1.6913 -1.0546  1.1867
87748SOL     OW75222   3.512   5.143   8.071  0.2829  0.1365 -0.5163
87748SOL    HW175223   3.514   5.176   7.981 -0.0376  0.7017 -0.3204
87748SOL    HW275224   3.440   5.079   8.072  0.2373  0.1859 -0.6410
87749SOL     OW75225   1.003   2.220   3.290  0.2276  0.4149  0.5293
87749SOL    HW175226   0.994   2.301   3.340 -0.7234  0.2661  0.6118
87749SOL    HW275227   1.090   2.226   3.250  1.2723  0.3185  2.6093
87750SOL     OW75228   0.434  10.055   1.531 -0.7685  0.3288  0.0701
87750SOL    HW175229   0.374  10.075   1.459 -2.7515 -2.0448  0.9388
87750SOL    HW275230   0.426   9.961   1.544  4.1636 -0.4488 -0.5311
87751SOL     OW75231  13.980   5.562   6.205  0.0823  0.0839  0.4545
87751SOL    HW175232  13.972   5.646   6.252  3.6191  0.7404  0.1226
87751SOL    HW275233  14.025   5.504   6.266  0.1363 -0.7063 -0.3182
87752SOL     OW75234   9.333   5.776   7.206 -0.3155 -0.3382 -0.1647
87752SOL    HW175235   9.406   5.718   7.227 -0.0283  0.0656 -0.0407
87752SOL    HW275236   9.372   5.848   7.157  0.0017  1.6859  2.7921
87753SOL     OW75237   8.802   2.330   9.538  0.3330  0.5262  0.0080
87753SOL    HW175238   8.882   2.283   9.560  0.5432  0.6032 -0.5897
87753SOL    HW275239   8.827   2.423   9.539  0.3965  0.5232 -0.7410
87754SOL     OW75240  11.424   2.027   9.761 -0.3953 -0.2652 -0.2192
87754SOL    HW175241  11.408   2.051   9.669  0.4108 -0.2656 -0.3657
87754SOL    HW275242  11.391   2.101   9.811 -0.5756 -0.1352 -0.5285
87755SOL     OW75243   7.735   8.387  13.045  0.3974 -0.3798 -0.2123
87755SOL    HW175244   7.750   8.453  13.112 -2.3084  0.7117 -0.5485
87755SOL    HW275245   7.644   8.400  13.018  1.4485 -0.3284 -4.5083
87756SOL     OW75246   5.329  12.406   8.849  0.2616  0.3124  0.0203
87756SOL    HW175247   5.329  12.489   8.897 -0.2704  0.8315 -0.8425
87756SOL    HW275248   5.385  12.348   8.900 -2.0132  0.1182  2.5042
87757SOL     OW75249   4.790   3.525   3.281  0.0931 -0.3162  0.2500
87757SOL    HW175250   4.754   3.457   3.338  1.0312  0.8211  2.3310
87757SOL    HW275251   4.770   3.607   3.327  0.1729  0.7387 -1.5152
87758SOL     OW75252  12.991  13.744  12.903  0.3328 -1.0812 -0.5395
87758SOL    HW175253  13.064  13.698  12.944  0.8889  0.8392  0.7392
87758SOL    HW275254  12.995  13.833  12.939 -3.1338 -1.1068  0.2080
87759SOL     OW75255   8.800   8.746   5.475  0.1969  0.6355  0.5000
87759SOL    HW175256   8.722   8.699   5.505  1.9308 -1.7187  1.6846
87759SOL    HW275257   8.810   8.819   5.536 -0.0245 -0.2018  1.5701
87760SOL     OW75258  13.511   3.814  12.916 -0.7588 -0.4304 -0.2214
87760SOL    HW175259  13.503   3.740  12.855 -2.3710  0.8355 -1.6608
87760SOL    HW275260  13.575   3.872  12.875 -0.3197 -0.4985  0.3504
87761SOL     OW75261   4.016  12.370   9.064 -0.5728  0.5846 -0.3579
87761SOL    HW175262   4.071  12.423   9.123 -1.8127  0.2783  1.1320
87761SOL    HW275263   3.960  12.319   9.122 -1.7439  0.1282 -1.8149
87762SOL     OW75264   1.262   8.717   1.453  0.4024 -0.6041 -0.1285
87762SOL    HW175265   1.240   8.673   1.371  3.0948 -2.4588  0.0172
87762SOL    HW275266   1.311   8.794   1.427 -1.9519  0.9473 -0.2841
87763SOL     OW75267  13.088   9.464   4.157 -0.0046 -0.0211 -0.1800
87763SOL    HW175268  13.009   9.517   4.147  0.6653  1.1776  0.6115
87763SOL    HW275269  13.099   9.422   4.072 -1.5461 -0.2968 -0.2624
87764SOL     OW75270   2.976   8.855   2.203 -0.5116 -0.1630 -0.2427
87764SOL    HW175271   2.979   8.776   2.149 -0.8905 -1.5153  1.6126
87764SOL    HW275272   3.067   8.875   2.222 -0.4441 -0.5921 -0.1151
87765SOL     OW75273  12.471   7.710   2.999 -0.3229  0.0804 -0.2664
87765SOL    HW175274  12.507   7.697   2.911  0.4864  0.2956  0.0314
87765SOL    HW275275  12.442   7.801   2.999  2.6079  1.1171  0.7006
87766SOL     OW75276  13.954   1.292   9.165 -0.3826 -0.2247  0.7832
87766SOL    HW175277  14.040   1.333   9.160 -0.0876 -0.8463  0.6064
87766SOL    HW275278  13.902   1.350   9.220 -1.4134  2.9103 -3.0252
87767SOL     OW75279  13.095   8.016  13.052  0.1297  0.4583 -0.6464
87767SOL    HW175280  13.094   8.020  12.957  1.1552  1.3787 -0.6402
87767SOL    HW275281  13.179   7.977  13.074  0.0840  0.6488 -0.1055
87768SOL     OW75282   3.200   5.584   6.050  0.1970  0.6252  0.1479
87768SOL    HW175283   3.107   5.604   6.040 -0.2850 -1.5200  0.0551
87768SOL    HW275284   3.217   5.594   6.144 -0.3542  0.1084  0.3050
87769SOL     OW75285   6.050   2.907  13.241  0.0649  0.2836  0.1958
87769SOL    HW175286   6.072   2.816  13.257  0.3608  0.2295 -0.4821
87769SOL    HW275287   6.002   2.934  13.319  0.0072 -0.4374  0.4171
87770SOL     OW75288  11.241  13.030   4.114  0.6354  0.0807 -0.6054
87770SOL    HW175289  11.167  13.001   4.061  0.0241 -0.7339  0.6587
87770SOL    HW275290  11.227  13.125   4.124  1.0922  0.3671 -2.3558
87771SOL     OW75291  11.204   3.439  10.643  0.1518  0.1002 -0.0264
87771SOL    HW175292  11.224   3.509  10.706 -2.9122  1.3494 -0.2914
87771SOL    HW275293  11.252   3.464  10.564  1.7947  0.0182  0.8943
87772SOL     OW75294  10.534  11.062   8.433  0.0612  0.0687  0.4736
87772SOL    HW175295  10.529  11.144   8.384  0.5624 -0.0139  0.2806
87772SOL    HW275296  10.443  11.033   8.439 -0.0735  0.4004  0.1385
87773SOL     OW75297  10.665  11.148   5.077 -0.1790 -0.3518  0.1904
87773SOL    HW175298  10.666  11.243   5.069 -1.5329 -0.3656 -0.5321
87773SOL    HW275299  10.750  11.120   5.044 -0.5250  0.5193 -1.5568
87774SOL     OW75300  12.487   7.662   3.267  0.4988  0.1150  0.0525
87774SOL    HW175301  12.486   7.688   3.175  1.4534  1.4646  0.3942
87774SOL    HW275302  12.577   7.675   3.295  0.2433 -0.3686  1.1639
87775SOL     OW75303  12.414   1.807   3.437 -0.0467 -0.2731 -0.1500
87775SOL    HW175304  12.362   1.817   3.358 -0.3292  0.6552  0.1359
87775SOL    HW275305  12.357   1.757   3.497 -0.5494  0.5767  0.0958
87776SOL     OW75306   8.824  11.098  13.478  0.3373 -0.3080 -0.3502
87776SOL    HW175307   8.901  11.139  13.438  0.2188  0.1313 -0.1251
87776SOL    HW275308   8.859  11.054  13.556  0.0464  1.6949  0.9815
87777SOL     OW75309   4.340   9.820   9.292 -0.6795 -0.8506 -0.0184
87777SOL    HW175310   4.428   9.858   9.288  0.2703 -2.6522  1.7279
87777SOL    HW275311   4.299   9.845   9.210  1.2970  0.4578 -0.6785
87778SOL     OW75312   3.609   3.385   1.510  0.1000 -0.2209 -0.1046
87778SOL    HW175313   3.593   3.383   1.416 -0.2857 -0.5301 -0.0330
87778SOL    HW275314   3.523   3.402   1.549 -0.0385 -1.6793  0.2726
87779SOL     OW75315   6.582   2.664   1.550 -0.2746 -0.1651 -0.1829
87779SOL    HW175316   6.608   2.575   1.574  0.7319 -1.1110 -4.0128
87779SOL    HW275317   6.642   2.720   1.599 -0.4891 -1.5784  1.8185
87780SOL     OW75318   1.631   4.085   9.652  0.2388  0.8339  0.1049
87780SOL    HW175319   1.666   4.135   9.726  0.1597  0.9792  0.0453
87780SOL    HW275320   1.702   4.026   9.628  0.1115  0.4863  0.5665
87781SOL     OW75321   5.028   1.541  13.749 -0.2800  0.2573  0.6483
87781SOL    HW175322   4.946   1.533  13.702 -0.9123  0.0880  1.7514
87781SOL    HW275323   5.078   1.463  13.725 -0.7313  0.0101  0.5082
87782SOL     OW75324   4.809   4.238   1.437 -0.2451  0.0005  0.0213
87782SOL    HW175325   4.814   4.201   1.349 -1.8765  1.2673 -0.6748
87782SOL    HW275326   4.892   4.216   1.478 -1.6284 -6.0209  0.4450
87783SOL     OW75327   5.289  12.630  11.370  0.0144  0.2864  0.3006
87783SOL    HW175328   5.289  12.689  11.445 -0.9027 -0.1158  0.6271
87783SOL    HW275329   5.287  12.689  11.294  1.4634  0.7003  0.5556
87784SOL     OW75330   2.575   7.693   3.555 -0.3523  0.4628 -0.0058
87784SOL    HW175331   2.652   7.687   3.611 -1.3189  0.2889  1.3602
87784SOL    HW275332   2.573   7.785   3.527  0.8659  0.2483 -0.8507
87785SOL     OW75333   4.296   6.194  10.293 -0.2584 -0.1031 -0.1471
87785SOL    HW175334   4.293   6.247  10.373 -1.5799 -0.3844  0.0073
87785SOL    HW275335   4.279   6.256  10.222  0.1815  0.0195 -0.1468
87786SOL     OW75336   7.711   1.483   7.726  0.8300 -0.1736 -0.1212
87786SOL    HW175337   7.687   1.551   7.789  0.0091 -0.4151 -0.1566
87786SOL    HW275338   7.652   1.498   7.652 -0.1152 -1.5632  0.3060
87787SOL     OW75339   0.069   0.898   8.589 -0.2686  0.7433  0.1773
87787SOL    HW175340   0.098   0.822   8.639 -1.7290 -0.3358 -0.5637
87787SOL    HW275341  -0.025   0.904   8.607 -0.4315  1.5203 -0.8894
87788SOL     OW75342  13.497   2.622   0.475  0.0297 -0.3310 -0.2682
87788SOL    HW175343  13.501   2.527   0.487 -0.3409 -0.3254 -0.0877
87788SOL    HW275344  13.508   2.657   0.563  1.5493 -0.1617 -0.5072
87789SOL     OW75345  11.524   5.033  11.390  0.3692 -0.0816  0.1595
87789SOL    HW175346  11.607   4.988  11.400  0.9789  0.9056 -0.2845
87789SOL    HW275347  11.512   5.082  11.471 -0.0967 -0.6990  0.4765
87790SOL     OW75348   6.700   4.323   7.240  0.5619  0.1095  0.7718
87790SOL    HW175349   6.776   4.380   7.250 -0.2336  1.3414 -0.0190
87790SOL    HW275350   6.668   4.339   7.151 -0.5709 -0.4554  1.0490
87791SOL     OW75351  13.905  13.684   0.750 -0.2134 -0.0464 -0.7218
87791SOL    HW175352  13.882  13.741   0.823  1.6509  0.1592 -0.2429
87791SOL    HW275353  13.864  13.600   0.771  0.1711  0.0501  0.5120
87792SOL     OW75354  12.577   6.297   4.278 -0.2077 -0.2037  0.0323
87792SOL    HW175355  12.660   6.263   4.243 -0.2229  1.1794 -1.4349
87792SOL    HW275356  12.560   6.376   4.227 -1.8895  0.1386  1.0632
87793SOL     OW75357  12.091   6.974  13.448  0.0997 -0.5655 -0.2509
87793SOL    HW175358  12.126   6.937  13.366 -1.2841 -0.9950 -0.6795
87793SOL    HW275359  12.154   6.948  13.515  2.4057  1.5981 -1.4511
87794SOL     OW75360   2.486  10.248   7.026 -0.0075 -0.3376  0.3705
87794SOL    HW175361   2.498  10.243   6.932  0.1573  2.4622  0.1535
87794SOL    HW275362   2.404  10.201   7.043 -1.6619  1.6435 -1.6348
87795SOL     OW75363  11.643   7.395  12.526  0.2033 -0.3812 -0.4730
87795SOL    HW175364  11.618   7.472  12.475 -0.1830  0.2343  0.5958
87795SOL    HW275365  11.570   7.381  12.586  1.1801 -0.2578  0.8050
87796SOL     OW75366   1.693  11.130   4.895  0.6266  0.3590  0.7500
87796SOL    HW175367   1.696  11.194   4.966  1.4593  1.7053 -0.4347
87796SOL    HW275368   1.746  11.169   4.825 -0.5159 -0.7102 -0.7869
87797SOL     OW75369   2.150   9.176   7.542  0.3908  0.0969 -0.1142
87797SOL    HW175370   2.055   9.172   7.529  0.5761  0.2923 -1.7700
87797SOL    HW275371   2.184   9.105   7.488  1.2142  0.1987  0.2574
87798SOL     OW75372  10.002  10.947   1.369  0.5119  0.3981  0.2664
87798SOL    HW175373  10.073  10.963   1.431  1.4727  0.0125 -0.7153
87798SOL    HW275374  10.044  10.951   1.283 -0.2228 -1.9590 -0.2671
87799SOL     OW75375  13.473   5.145   3.458 -0.2238  0.3444  0.0090
87799SOL    HW175376  13.432   5.194   3.387  0.0838 -0.2293 -0.5843
87799SOL    HW275377  13.405   5.084   3.487  0.3220 -0.9896 -1.3466
87800SOL     OW75378  11.921   3.459  12.917 -0.3846  0.6797 -0.3299
87800SOL    HW175379  11.828   3.479  12.930 -0.6140  0.2482 -1.2282
87800SOL    HW275380  11.952   3.526  12.856 -1.5623 -2.3338 -4.7327
87801SOL     OW75381   3.937   9.522   1.021  0.2824  0.6005 -0.0716
87801SOL    HW175382   3.999   9.538   0.950 -0.3626  0.1272 -0.7493
87801SOL    HW275383   3.979   9.454   1.074  1.3792  1.8986  0.7796
87802SOL     OW75384   1.421   0.921   9.864 -0.7156 -0.6559  0.0951
87802SOL    HW175385   1.501   0.959   9.901 -2.7149  1.5176  2.6472
87802SOL    HW275386   1.402   0.846   9.921 -1.1127 -0.4033  0.3035
87803SOL     OW75387  10.957   8.737  12.454  0.6993 -0.3665 -0.1956
87803SOL    HW175388  10.923   8.824  12.475  2.9588  1.2589 -2.6060
87803SOL    HW275389  11.019   8.718  12.525 -1.1377 -0.9683  1.3468
87804SOL     OW75390   6.375   6.735   0.560  0.1649 -0.7069  0.2153
87804SOL    HW175391   6.291   6.700   0.588 -0.6375 -0.7895 -2.1576
87804SOL    HW275392   6.353   6.816   0.514  1.2731 -1.2096 -1.2551
87805SOL     OW75393   8.296   6.289  11.709 -0.1707  0.3802 -0.1596
87805SOL    HW175394   8.260   6.334  11.786  1.1659 -0.4036  0.9731
87805SOL    HW275395   8.254   6.204  11.708  0.1391  0.2236 -0.0279
87806SOL     OW75396   1.440   5.923   4.953 -0.5241  0.2197 -0.4102
87806SOL    HW175397   1.376   5.988   4.980  0.0247  0.2826  0.8162
87806SOL    HW275398   1.409   5.841   4.991 -1.1910 -0.2705 -1.9133
87807SOL     OW75399   4.491  12.497   4.417 -0.3509  0.5493  0.1128
87807SOL    HW175400   4.510  12.409   4.449  0.3773  0.9416  0.7814
87807SOL    HW275401   4.416  12.526   4.469 -1.7969 -0.3436 -1.3553
87808SOL     OW75402   0.745   0.029   2.935 -0.2643 -0.0089  0.3959
87808SOL    HW175403   0.828   0.073   2.920  0.0710 -0.2378  1.4442
87808SOL    HW275404   0.769  -0.051   2.982 -1.0011 -0.5215 -0.0766
87809SOL     OW75405   8.124  10.477   0.089 -0.0953  0.6719  0.1940
87809SOL    HW175406   8.073  10.512   0.016  0.2470 -0.0381 -0.3979
87809SOL    HW275407   8.112  10.541   0.159  0.4407  1.9280 -0.8264
87810SOL     OW75408   8.997   7.162  13.163 -0.0724  0.2459  0.4915
87810SOL    HW175409   9.044   7.187  13.243  1.0790  1.8855 -0.6180
87810SOL    HW275410   8.918   7.217  13.164  0.1148  0.5202  0.3435
87811SOL     OW75411   7.969   1.125   7.458  0.3616 -0.4781 -0.0732
87811SOL    HW175412   7.925   1.207   7.480  1.4702 -0.1946  1.2264
87811SOL    HW275413   7.902   1.058   7.469 -0.2279  0.1257  0.0717
87812SOL     OW75414   3.937   1.659  12.658  0.0112 -0.1552  0.5971
87812SOL    HW175415   3.879   1.724  12.698 -0.2899  1.1187 -1.7124
87812SOL    HW275416   3.999   1.636  12.727 -0.3862  1.9647  1.7568
87813SOL     OW75417   1.608   5.974   5.391  0.1230 -0.1914  0.0085
87813SOL    HW175418   1.583   5.884   5.372 -1.7077 -0.4613  3.0245
87813SOL    HW275419   1.545   6.028   5.344 -0.9727 -0.6435  0.9210
87814SOL     OW75420  11.078   2.738   6.899 -0.1247  0.0082 -0.4758
87814SOL    HW175421  11.084   2.645   6.920  0.5834 -0.0539 -0.9139
87814SOL    HW275422  10.998   2.768   6.943 -1.4323 -1.2246 -1.9227
87815SOL     OW75423  10.070   3.004   4.231 -0.4437  0.5235  0.3077
87815SOL    HW175424   9.986   3.018   4.274 -1.2361  1.6748 -1.5188
87815SOL    HW275425  10.108   2.929   4.277 -3.0586 -0.8881  0.3598
87816SOL     OW75426  13.719  13.034   5.236 -0.1854 -0.2171 -0.4578
87816SOL    HW175427  13.733  13.126   5.214  0.8306 -0.3862 -0.5267
87816SOL    HW275428  13.804  13.002   5.264 -0.8615 -0.7126  1.2023
87817SOL     OW75429   0.986   1.428   7.287 -0.6777 -0.3775  0.2542
87817SOL    HW175430   1.054   1.438   7.353  0.2499 -1.3744 -0.5075
87817SOL    HW275431   1.007   1.495   7.221  0.1767 -1.2845 -0.4421
87818SOL     OW75432   9.111   6.631  12.134  0.2757 -0.2604  0.3100
87818SOL    HW175433   9.150   6.641  12.046 -1.1743 -0.1567 -0.3448
87818SOL    HW275434   9.079   6.541  12.135  1.4405 -0.6846  1.2417
87819SOL     OW75435  13.664   9.949   0.540 -0.7803  0.3251 -0.1051
87819SOL    HW175436  13.691   9.919   0.627  0.6695 -0.2129 -0.7243
87819SOL    HW275437  13.674  10.044   0.543  0.3859  0.2064 -0.0490
87820SOL     OW75438   9.851   3.929   0.553 -0.3069  0.7275  0.4463
87820SOL    HW175439   9.801   4.007   0.578  1.9200  1.9889  1.2503
87820SOL    HW275440   9.943   3.956   0.561  0.5349 -1.6468 -0.3993
87821SOL     OW75441   3.210   0.106   7.656  0.3340 -0.6544  0.7010
87821SOL    HW175442   3.303   0.096   7.677  0.8374  0.1956 -0.9900
87821SOL    HW275443   3.183   0.019   7.627  0.6868 -0.8148  0.8387
87822SOL     OW75444  10.238   8.303   0.030 -0.7097  0.0136  0.2895
87822SOL    HW175445  10.244   8.369  -0.039 -0.0691  1.2576  1.5004
87822SOL    HW275446  10.233   8.220  -0.017  2.6034  0.5454 -1.3114
87823SOL     OW75447   6.654   3.287   4.731  0.1636 -0.4461 -0.2137
87823SOL    HW175448   6.677   3.339   4.807  0.5260  0.0219 -0.6352
87823SOL    HW275449   6.598   3.217   4.765  0.4330 -0.3193  0.4915
87824SOL     OW75450   6.918   8.446  12.628 -0.6636 -0.2864 -0.2369
87824SOL    HW175451   7.001   8.448  12.579 -1.3408 -0.9517 -1.4759
87824SOL    HW275452   6.898   8.353  12.637 -2.6693 -0.1916 -2.5216
87825SOL     OW75453   2.606  10.695   6.039 -0.0019  0.3694  0.2495
87825SOL    HW175454   2.658  10.644   6.101 -0.1743  0.2051  0.2585
87825SOL    HW275455   2.575  10.770   6.091 -0.7002 -0.1141  0.5460
87826SOL     OW75456   2.792   3.093   8.140 -0.3877 -0.3818  0.1151
87826SOL    HW175457   2.713   3.100   8.088  0.2802 -1.3081 -1.0886
87826SOL    HW275458   2.761   3.068   8.227 -1.5206  1.1500  0.1825
87827SOL     OW75459  10.978   7.563  10.159 -0.3613 -0.0169 -0.7485
87827SOL    HW175460  11.011   7.642  10.202 -1.3777  0.0072  0.0308
87827SOL    HW275461  11.056   7.509  10.147 -0.0285 -0.1393  1.4305
87828SOL     OW75462   9.431   4.379  11.316 -0.1243  0.4527  0.0971
87828SOL    HW175463   9.363   4.436  11.282 -0.8500 -0.3376  0.1884
87828SOL    HW275464   9.403   4.291  11.292  0.2835  0.0276  1.1099
87829SOL     OW75465   6.627   4.992   8.497  0.3524 -0.4629  0.1033
87829SOL    HW175466   6.541   4.998   8.454  1.0999 -0.4681 -1.4872
87829SOL    HW275467   6.607   4.978   8.589 -1.3552 -0.5559 -0.2439
87830SOL     OW75468   9.423   2.690   4.946 -0.6458 -0.0265 -0.3780
87830SOL    HW175469   9.447   2.708   4.855 -1.1065 -2.3635 -1.0188
87830SOL    HW275470   9.350   2.750   4.963 -0.5898  0.4087 -1.5538
87831SOL     OW75471  10.489   3.805  12.842 -0.2052  0.2395  0.1583
87831SOL    HW175472  10.405   3.845  12.863  0.3068  1.1167  0.6116
87831SOL    HW275473  10.502   3.739  12.910 -0.7793 -0.2935 -0.2420
87832SOL     OW75474   4.512  13.199   6.351  0.3658  0.0141  0.1890
87832SOL    HW175475   4.480  13.279   6.310  0.9602  0.3649  0.4060
87832SOL    HW275476   4.541  13.145   6.277 -0.1832 -0.0730  0.0321
87833SOL     OW75477  12.646   8.251   5.534  0.0192 -0.6280  0.9604
87833SOL    HW175478  12.702   8.235   5.610  0.8322  1.7798  0.9378
87833SOL    HW275479  12.686   8.325   5.489 -1.4108 -0.8950 -0.8855
87834SOL     OW75480   1.172   4.375   2.363 -0.4782  0.2650  0.6286
87834SOL    HW175481   1.241   4.421   2.411 -0.9178  1.2051  0.3741
87834SOL    HW275482   1.156   4.429   2.286  1.1371 -1.8720 -1.3671
87835SOL     OW75483   1.090   4.291  13.581 -0.0021  0.0099  0.5036
87835SOL    HW175484   1.092   4.207  13.627 -0.5290 -0.1219  0.2939
87835SOL    HW275485   1.181   4.308  13.559 -0.0851 -1.4170 -1.1043
87836SOL     OW75486  10.664  13.133   7.894  0.4395  0.2013 -0.2602
87836SOL    HW175487  10.595  13.182   7.849 -1.2265 -1.0894  0.7837
87836SOL    HW275488  10.738  13.134   7.833 -1.2075 -0.2111 -2.3505
87837SOL     OW75489   8.932   4.570  13.329  0.2503 -0.6740 -0.2753
87837SOL    HW175490   8.951   4.607  13.415  2.7127 -2.8476  0.2565
87837SOL    HW275491   8.982   4.623  13.268 -0.8041  0.3206 -0.3226
87838SOL     OW75492   2.970   6.598   0.287 -0.2024 -0.0198 -0.2178
87838SOL    HW175493   2.896   6.548   0.322 -0.8836  0.8703 -0.3673
87838SOL    HW275494   2.930   6.667   0.234  0.7130  0.8057  0.1359
87839SOL     OW75495   6.975   4.034  11.729  0.6938  0.0397 -0.0245
87839SOL    HW175496   7.012   4.070  11.810  2.9668  1.3207 -1.5069
87839SOL    HW275497   6.998   4.098  11.662 -4.1188  0.8602 -1.3003
87840SOL     OW75498  12.252  10.281   1.191 -0.0131 -0.1703 -0.0578
87840SOL    HW175499  12.307  10.207   1.167  0.9764  0.6853 -0.4998
87840SOL    HW275500  12.228  10.322   1.108 -0.6936 -0.0853  0.1731
87841SOL     OW75501  12.677  13.883   9.394  0.2439 -0.4232 -0.0452
87841SOL    HW175502  12.590  13.903   9.430  0.3703 -1.0590  0.6329
87841SOL    HW275503  12.735  13.883   9.470  0.0604 -4.5623  0.3274
87842SOL     OW75504   7.396  10.359   7.950  0.4408 -0.1718 -0.0889
87842SOL    HW175505   7.362  10.434   7.901  0.8719  1.7392  2.3320
87842SOL    HW275506   7.483  10.343   7.913 -0.1851 -0.4079 -1.5176
87843SOL     OW75507   1.962   0.520   3.139  0.3116  0.1184 -0.3765
87843SOL    HW175508   2.057   0.513   3.149  0.6302  0.7679 -2.4892
87843SOL    HW275509   1.948   0.601   3.090 -1.3608  0.2033  0.1713
87844SOL     OW75510  14.002   4.367   9.128 -0.3434  0.1488  0.5503
87844SOL    HW175511  14.017   4.349   9.035 -1.9196  1.2829  0.0317
87844SOL    HW275512  14.059   4.442   9.148 -1.5213  1.2722 -0.1075
87845SOL     OW75513   3.898   0.253   7.853 -0.5068  0.1558 -0.4082
87845SOL    HW175514   3.813   0.297   7.855  0.0998  1.3612 -0.4715
87845SOL    HW275515   3.895   0.191   7.926 -1.1913  0.6467 -0.0129
87846SOL     OW75516   2.489  11.959   6.279 -0.3639  0.2880  0.0706
87846SOL    HW175517   2.437  12.032   6.314  0.1558  0.6269  0.1404
87846SOL    HW275518   2.532  11.922   6.356  0.2462  0.6051 -0.1134
87847SOL     OW75519  12.116  13.658   8.179 -0.6020 -0.2976  0.2712
87847SOL    HW175520  12.136  13.700   8.262 -1.6341 -0.4776  0.6197
87847SOL    HW275521  12.198  13.617   8.153 -0.1995 -0.0151  1.0594
87848SOL     OW75522  12.000   9.644   8.265 -0.3559 -0.2390 -0.0298
87848SOL    HW175523  12.077   9.700   8.263 -0.7612  0.3800  0.7565
87848SOL    HW275524  11.927   9.705   8.275 -0.8536 -0.8771  0.2953
87849SOL     OW75525  12.782   3.525  12.268  0.5831  0.0950  0.3000
87849SOL    HW175526  12.718   3.480  12.323  0.2666  0.2525  0.0601
87849SOL    HW275527  12.830   3.580  12.329 -0.3367  0.9227  0.3011
87850SOL     OW75528   9.969  12.846   8.394 -0.5741  0.6782  0.1210
87850SOL    HW175529  10.007  12.874   8.477 -0.1276  0.5606 -0.0443
87850SOL    HW275530   9.880  12.883   8.394 -0.9436 -0.1776  1.1035
87851SOL     OW75531  10.381   2.991   4.372  0.2962 -0.2899  0.1402
87851SOL    HW175532  10.373   2.913   4.427  1.0514 -0.4422  0.0306
87851SOL    HW275533  10.326   3.056   4.417 -0.3977 -0.8920  0.1906
87852SOL     OW75534   9.624   5.063   4.869 -0.0809  0.5995  0.5340
87852SOL    HW175535   9.559   5.079   4.937  1.1889 -0.3702  2.0416
87852SOL    HW275536   9.681   5.140   4.872 -0.4539  0.8997  0.0367
87853SOL     OW75537   4.927   8.664   3.001 -0.5510  0.2504  0.2475
87853SOL    HW175538   4.911   8.699   3.089 -1.7781 -0.6759  0.4232
87853SOL    HW275539   4.840   8.642   2.968 -0.0966  0.5379 -1.1936
87854SOL     OW75540   1.585   4.336  10.645  0.8014  0.2814 -0.0199
87854SOL    HW175541   1.661   4.305  10.693  2.1857  2.4561 -0.6749
87854SOL    HW275542   1.619   4.402  10.585 -1.5320  1.0101 -0.6698
87855SOL     OW75543  10.180  11.890   5.186  0.1623  0.0531 -0.5365
87855SOL    HW175544  10.177  11.846   5.102 -0.6917 -1.2989  0.1621
87855SOL    HW275545  10.088  11.895   5.214  0.5759 -1.5470  1.2984
87856SOL     OW75546   6.473  13.322   0.546 -0.3989 -0.0478 -0.0532
87856SOL    HW175547   6.563  13.310   0.576 -0.9432  1.7021  2.5710
87856SOL    HW275548   6.482  13.360   0.458  1.3533 -1.1718 -0.4036
87857SOL     OW75549  12.348   3.925   3.126 -0.2805  0.1122 -0.2939
87857SOL    HW175550  12.338   3.984   3.052  0.1782  1.2778  0.5346
87857SOL    HW275551  12.422   3.869   3.102 -0.5368  0.0675 -0.9765
87858SOL     OW75552   2.648  10.934  10.758 -0.0053 -0.1724  0.1578
87858SOL    HW175553   2.703  10.862  10.726 -0.0786  0.8064 -2.3756
87858SOL    HW275554   2.711  10.997  10.794  0.3359 -0.1371 -0.4832
87859SOL     OW75555   4.864  11.304   6.915 -0.0746 -0.5845  0.0980
87859SOL    HW175556   4.847  11.334   7.004  1.1009 -2.1795  0.9207
87859SOL    HW275557   4.778  11.308   6.872 -0.7264 -0.0674  1.3826
87860SOL     OW75558  11.940   3.180   3.507  0.2942 -0.2940 -0.2244
87860SOL    HW175559  11.897   3.136   3.433  0.3266  1.8060 -1.5756
87860SOL    HW275560  12.016   3.224   3.469  1.5143 -0.8179  1.4608
87861SOL     OW75561  13.845   5.399   7.086  0.1333  0.2276  0.2088
87861SOL    HW175562  13.824   5.489   7.109 -0.0366 -0.1033  1.4098
87861SOL    HW275563  13.813   5.347   7.160 -1.0459 -0.9747 -1.0890
87862SOL     OW75564  10.857   6.847   8.059  0.1694 -0.6005 -0.0942
87862SOL    HW175565  10.768   6.873   8.031  0.0893  0.7976  1.3395
87862SOL    HW275566  10.903   6.830   7.977 -1.0483 -0.0278 -0.9344
87863SOL     OW75567  11.007   6.958   7.780  0.0848 -0.7739  0.3274
87863SOL    HW175568  10.946   7.023   7.744 -0.7696 -1.3637  0.7106
87863SOL    HW275569  10.961   6.875   7.773  0.8702 -1.2367  0.5698
87864SOL     OW75570   7.678   9.534   9.256  0.4424 -0.1578  0.2270
87864SOL    HW175571   7.654   9.475   9.185 -1.5225  1.6506 -0.7314
87864SOL    HW275572   7.750   9.587   9.220  1.0881 -0.8421  0.4926
87865SOL     OW75573  10.743   4.930   6.452  0.2441 -0.0407  0.1993
87865SOL    HW175574  10.797   5.001   6.487 -0.5091  0.9189 -0.5407
87865SOL    HW275575  10.669   4.974   6.410 -0.2992 -1.2710 -0.1780
87866SOL     OW75576   1.510   1.152   7.966  0.2674  0.1334  0.1619
87866SOL    HW175577   1.483   1.109   7.884  0.2540  0.4045  0.0217
87866SOL    HW275578   1.434   1.143   8.024 -0.2058  1.0370 -0.2876
87867SOL     OW75579   7.091   1.364  10.791  0.6858 -0.3170  0.5312
87867SOL    HW175580   7.070   1.272  10.778  1.2501 -0.2789 -0.8929
87867SOL    HW275581   7.014   1.401  10.835 -0.3867 -1.0798 -0.6238
87868SOL     OW75582   2.536   0.158   2.988 -0.1722 -0.4900  0.1548
87868SOL    HW175583   2.499   0.212   2.918  1.0876  1.0824  0.6521
87868SOL    HW275584   2.509   0.069   2.966 -4.2499  0.4702  0.5052
87869SOL     OW75585   4.084   1.160   2.649 -0.4242 -0.1797 -0.1896
87869SOL    HW175586   4.149   1.164   2.578  0.1633 -1.1776  0.2650
87869SOL    HW275587   4.121   1.215   2.718 -0.9189  0.6611 -0.5773
87870SOL     OW75588   3.547  13.946  12.547 -0.1567  0.3249  0.5368
87870SOL    HW175589   3.552  13.856  12.514 -0.5470 -0.0334  1.4429
87870SOL    HW275590   3.567  14.000  12.470  1.7912 -0.5615  0.3666
87871SOL     OW75591  13.584  12.756   2.843 -0.8695  0.3020  0.4604
87871SOL    HW175592  13.628  12.741   2.760 -0.8213  0.5199  0.4455
87871SOL    HW275593  13.614  12.843   2.871 -0.0485 -0.2142  1.2343
87872SOL     OW75594  13.829   1.954   9.430  0.5612 -1.1925  0.2644
87872SOL    HW175595  13.860   1.917   9.513  0.9671 -0.6567  0.3578
87872SOL    HW275596  13.904   2.005   9.397  0.2143 -0.9462 -0.1543
87873SOL     OW75597   1.738   9.977   6.841 -0.0136 -0.7021  0.2913
87873SOL    HW175598   1.670  10.043   6.850  0.8758  0.2491  0.1816
87873SOL    HW275599   1.815  10.016   6.882  0.2021 -2.2023  1.4398
87874SOL     OW75600   1.766  10.197   3.386 -0.0649  0.4433 -0.0081
87874SOL    HW175601   1.708  10.139   3.337 -0.7332  0.9894  0.1073
87874SOL    HW275602   1.854  10.176   3.356 -0.5333  1.7550 -2.5870
87875SOL     OW75603   9.104  10.976  10.006  0.0563  0.2001  0.1218
87875SOL    HW175604   9.165  11.041  10.041 -0.1467  0.3222  0.2519
87875SOL    HW275605   9.140  10.892  10.034  0.3112  0.2565 -0.0328
87876SOL     OW75606  13.726   9.303   3.028 -0.0590  0.3625  0.0724
87876SOL    HW175607  13.700   9.298   2.936  0.1481 -1.2265  0.0786
87876SOL    HW275608  13.647   9.332   3.074 -0.1454  1.2311 -0.5946
87877SOL     OW75609  10.648   5.789   4.671 -0.4705 -0.0471  0.1728
87877SOL    HW175610  10.699   5.859   4.712 -1.2172  1.0561 -0.7440
87877SOL    HW275611  10.667   5.796   4.578 -2.1436  0.2804 -0.1703
87878SOL     OW75612  11.962   8.633   5.444  0.6439  0.1927  0.3899
87878SOL    HW175613  11.999   8.564   5.388 -2.2453  0.3291 -1.9960
87878SOL    HW275614  11.986   8.715   5.400 -1.7527  0.2968 -0.9295
87879SOL     OW75615   5.180   4.154   4.395 -0.1411  0.2882 -0.0088
87879SOL    HW175616   5.252   4.133   4.336 -0.7277 -0.2217 -0.5635
87879SOL    HW275617   5.140   4.069   4.415 -0.6180  0.5686  0.2457
87880SOL     OW75618   2.066   0.579   4.947 -0.3502 -0.0988 -0.4603
87880SOL    HW175619   1.979   0.606   4.919 -0.5567  0.3443  0.5534
87880SOL    HW275620   2.123   0.652   4.924 -0.2560 -0.3460 -1.0303
87881SOL     OW75621  11.274   9.366   7.530  0.7316  0.1456  0.2654
87881SOL    HW175622  11.339   9.422   7.574  2.1161 -0.7897 -0.5096
87881SOL    HW275623  11.281   9.282   7.575 -0.2761  0.1513  0.4479
87882SOL     OW75624   9.093   3.159   0.790  0.1418 -0.0651  0.1682
87882SOL    HW175625   9.061   3.071   0.772  0.5222 -0.2111  0.1915
87882SOL    HW275626   9.064   3.212   0.716  0.3325 -0.3178 -0.0882
87883SOL     OW75627   1.286   0.344  13.155  0.3298 -0.2014 -0.2259
87883SOL    HW175628   1.207   0.396  13.168 -0.4059 -0.8587 -1.7790
87883SOL    HW275629   1.358   0.406  13.162 -0.5441  1.2158 -2.6839
87884SOL     OW75630   5.951  12.174   0.502  0.2976  0.7445  0.7241
87884SOL    HW175631   5.997  12.117   0.441 -0.2740  0.5337  0.4875
87884SOL    HW275632   6.001  12.256   0.500  1.7976 -0.0910  1.9231
87885SOL     OW75633   5.500   3.372  10.758  0.2429  0.0308  0.2558
87885SOL    HW175634   5.427   3.310  10.760  0.6952 -0.6821 -2.0109
87885SOL    HW275635   5.477   3.434  10.688  1.3043  0.4555  0.2532
87886SOL     OW75636   0.225  11.948   8.013  0.2910  0.4623 -0.8852
87886SOL    HW175637   0.166  11.873   8.006  0.8463 -0.3301  1.7000
87886SOL    HW275638   0.224  11.989   7.927 -2.8015 -0.4183 -1.3548
87887SOL     OW75639  13.436   5.504   0.405 -0.1164  0.3293 -0.1895
87887SOL    HW175640  13.516   5.477   0.450 -1.1888  0.2317  1.8024
87887SOL    HW275641  13.385   5.550   0.473 -1.2201  1.4716 -1.7144
87888SOL     OW75642  10.853   8.483  12.620 -0.2929  0.0364 -0.0275
87888SOL    HW175643  10.927   8.465  12.563 -0.4054 -1.5519  0.2781
87888SOL    HW275644  10.779   8.497  12.561 -0.6599 -2.7247 -0.3424
87889SOL     OW75645   9.153  11.592   3.909  0.0855  0.5349  0.5079
87889SOL    HW175646   9.079  11.532   3.909  0.0080  0.4132 -2.9820
87889SOL    HW275647   9.114  11.679   3.905  0.1991  0.7202  2.6430
87890SOL     OW75648   2.705   3.893   4.299  0.3933 -0.1712  0.0843
87890SOL    HW175649   2.689   3.927   4.387 -1.4860  1.2452 -0.7419
87890SOL    HW275650   2.774   3.949   4.264  1.4724 -1.0308  0.7863
87891SOL     OW75651   2.377   5.799   5.163 -0.5394  0.1699  0.0013
87891SOL    HW175652   2.445   5.779   5.228 -0.6175 -0.8235 -0.2096
87891SOL    HW275653   2.419   5.859   5.101  0.0473 -0.2023  0.0390
87892SOL     OW75654   5.807   4.655   2.206  0.3648  0.1529  0.2594
87892SOL    HW175655   5.773   4.722   2.266  0.2650  2.2764 -1.9730
87892SOL    HW275656   5.732   4.598   2.189 -0.4425  1.2662 -0.0490
87893SOL     OW75657   7.207  10.490  10.827 -0.0846 -0.3549  0.3058
87893SOL    HW175658   7.138  10.522  10.886 -0.6882  1.2649 -1.1706
87893SOL    HW275659   7.173  10.509  10.739  2.1692  0.3529 -0.4777
87894SOL     OW75660   5.704   5.812   1.796 -0.0235 -0.4416 -0.0642
87894SOL    HW175661   5.703   5.746   1.728 -0.3852  0.7550 -1.2615
87894SOL    HW275662   5.612   5.834   1.810  0.0692 -0.4253  0.5784
87895SOL     OW75663   8.630   8.503  12.353 -0.2915  0.2581  0.5690
87895SOL    HW175664   8.597   8.442  12.287 -2.9656  1.1601  0.9467
87895SOL    HW275665   8.666   8.448  12.422 -0.2248 -0.7912 -0.2868
87896SOL     OW75666   1.392   5.057   3.766  0.3650  0.7807 -0.0956
87896SOL    HW175667   1.351   4.971   3.763  1.1510  0.4132 -2.8230
87896SOL    HW275668   1.325   5.115   3.803  0.0068 -1.0192  2.3064
87897SOL     OW75669  10.781   7.080   9.628  0.4684 -0.1001 -0.4339
87897SOL    HW175670  10.833   7.017   9.578  1.4209 -0.4604  0.9407
87897SOL    HW275671  10.758   7.033   9.708  0.8141  1.1233  0.4224
87898SOL     OW75672   2.844   6.286  13.104  0.9748  0.1802 -0.8330
87898SOL    HW175673   2.880   6.212  13.153 -0.7187  0.6146  1.2241
87898SOL    HW275674   2.758   6.256  13.074  0.5578  1.0485 -0.5585
87899SOL     OW75675   9.117  12.201   8.776  0.1053 -0.0966  0.2017
87899SOL    HW175676   9.088  12.292   8.768  0.4279 -0.0232 -0.2229
87899SOL    HW275677   9.099  12.162   8.690 -1.3911 -0.8583  0.8243
87900SOL     OW75678   0.548   4.378  11.477  0.1500  0.0438 -0.5194
87900SOL    HW175679   0.587   4.453  11.521 -0.3886  0.7559 -1.2284
87900SOL    HW275680   0.603   4.304  11.502  2.2436  1.0596 -1.8285
87901SOL     OW75681   6.210   1.757   9.766 -0.2417 -0.0849 -0.5401
87901SOL    HW175682   6.247   1.806   9.839  0.7475 -2.4892  0.7220
87901SOL    HW275683   6.123   1.794   9.752  0.3486  1.7697  0.4763
87902SOL     OW75684   2.903   6.796  12.703 -0.2977  0.3776  0.0130
87902SOL    HW175685   2.938   6.834  12.784  0.3519  1.7350 -0.8630
87902SOL    HW275686   2.814   6.831  12.696 -0.2197  0.5686 -0.0414
87903SOL     OW75687  10.048   4.287   3.954 -0.1993 -0.3117 -0.2328
87903SOL    HW175688  10.143   4.296   3.949 -0.2464 -0.3608 -2.6234
87903SOL    HW275689  10.016   4.375   3.971  0.2770 -0.4291  1.3854
87904SOL     OW75690   9.024   7.809  13.477 -0.9004  0.6322  0.4186
87904SOL    HW175691   9.102   7.831  13.527 -1.0094 -0.8689  1.3190
87904SOL    HW275692   8.956   7.866  13.513 -0.3301  1.7127 -0.1463
87905SOL     OW75693  10.770   7.502  12.332 -0.1781  0.4839  0.5805
87905SOL    HW175694  10.773   7.434  12.265 -0.4142  0.8751  0.1647
87905SOL    HW275695  10.755   7.583  12.283 -0.9760  0.6917  1.1581
87906SOL     OW75696  13.184  10.848  11.186  0.6686  0.6393 -0.7764
87906SOL    HW175697  13.228  10.767  11.161  0.3326  1.0144 -2.7478
87906SOL    HW275698  13.115  10.820  11.246 -0.8576 -0.9061 -3.0980
87907SOL     OW75699  12.145   4.749   7.649  0.4744 -0.6522 -0.0326
87907SOL    HW175700  12.098   4.702   7.580 -0.2141  0.7960 -0.5913
87907SOL    HW275701  12.117   4.840   7.639  0.9851 -0.2811  1.6597
87908SOL     OW75702   1.739   8.884  11.967  0.4600  0.5242  0.0570
87908SOL    HW175703   1.647   8.906  11.950  0.4073  2.0438  1.8931
87908SOL    HW275704   1.782   8.969  11.977  1.7039 -0.1700  0.8645
87909SOL     OW75705   6.021   2.736   2.440  0.0372  0.5419  0.4865
87909SOL    HW175706   5.929   2.764   2.435 -0.0082  0.1383 -1.4317
87909SOL    HW275707   6.054   2.744   2.351  1.2957 -1.2607  0.7432
87910SOL     OW75708  12.206   5.310   1.564 -0.4564 -0.4808 -0.3002
87910SOL    HW175709  12.217   5.220   1.533  0.0197 -0.4011 -0.3640
87910SOL    HW275710  12.206   5.302   1.660 -2.5875 -0.8096 -0.2721
87911SOL     OW75711   7.581   5.429  10.982 -0.3713 -0.5537 -0.3552
87911SOL    HW175712   7.644   5.496  10.956 -1.0520  0.4494  0.4654
87911SOL    HW275713   7.565   5.446  11.075  0.2647 -2.5673  0.1866
87912SOL     OW75714   5.345   4.668  11.639 -0.3816 -0.2376 -0.3117
87912SOL    HW175715   5.317   4.740  11.696 -0.9346 -0.9875  0.3866
87912SOL    HW275716   5.373   4.711  11.559 -1.6320  0.6977 -0.2793
87913SOL     OW75717  10.788   0.144  13.950 -0.1020  0.0740 -0.1252
87913SOL    HW175718  10.789   0.239  13.938 -0.9215 -0.1040 -1.8348
87913SOL    HW275719  10.803   0.132  14.044 -2.3545  1.9867  0.5765
87914SOL     OW75720   2.925   7.247   0.369 -0.1107 -0.3846 -0.2186
87914SOL    HW175721   2.990   7.263   0.437 -0.5347  1.6967 -0.2097
87914SOL    HW275722   2.897   7.335   0.343 -3.1081 -1.1600 -0.0183
87915SOL     OW75723   3.381   3.292   5.705  0.0193  0.1557  0.9093
87915SOL    HW175724   3.392   3.248   5.620  0.0467 -1.9750  1.9465
87915SOL    HW275725   3.308   3.246   5.747  0.3249  0.8386  2.2426
87916SOL     OW75726   3.730   6.283  11.898 -0.1609 -0.8707  0.0179
87916SOL    HW175727   3.677   6.259  11.974 -2.3288 -0.1971 -1.1771
87916SOL    HW275728   3.772   6.365  11.923  2.6099 -2.7389  1.9653
87917SOL     OW75729   7.964   8.200   4.485 -0.4090  0.2323 -0.0176
87917SOL    HW175730   7.921   8.202   4.570  0.7681 -0.4710  0.6121
87917SOL    HW275731   8.027   8.272   4.488 -0.6223  0.4461 -0.4508
87918SOL     OW75732   4.942   6.618   4.187  0.0451 -0.1018 -0.0054
87918SOL    HW175733   5.010   6.684   4.201 -0.0782  0.1406 -0.5241
87918SOL    HW275734   4.933   6.613   4.092  2.1211 -2.9799 -0.1979
87919SOL     OW75735   8.129   9.219  11.920  0.0452  0.1475 -0.2078
87919SOL    HW175736   8.049   9.239  11.968  0.5404  0.8333  0.3720
87919SOL    HW275737   8.122   9.126  11.898 -0.8056  0.1513  0.0258
87920SOL     OW75738  10.925   5.532   2.843  0.0565  0.1725  0.3070
87920SOL    HW175739  10.999   5.580   2.882  0.3350  0.3837 -0.4590
87920SOL    HW275740  10.878   5.598   2.792 -0.2948 -0.1025  0.2728
87921SOL     OW75741   2.257  11.697   6.564 -0.1924  0.3323  0.3206
87921SOL    HW175742   2.184  11.650   6.604 -1.3678  0.8954 -1.0830
87921SOL    HW275743   2.235  11.789   6.571 -1.4710  0.4537 -3.2424
87922SOL     OW75744   7.336   5.911   0.344 -0.4014  0.2872 -0.3380
87922SOL    HW175745   7.383   5.868   0.273  0.2586 -0.2419  0.4010
87922SOL    HW275746   7.403   5.962   0.390 -0.4797 -0.5955  0.8262
87923SOL     OW75747   0.610   2.531  11.580 -0.5035 -0.4380  1.0272
87923SOL    HW175748   0.576   2.444  11.559 -1.5399  0.3036 -0.5271
87923SOL    HW275749   0.577   2.588  11.510  1.4640  0.9172  1.1198
87924SOL     OW75750   2.062   3.004   5.977 -0.9176  0.5663  0.5867
87924SOL    HW175751   2.093   2.933   5.921 -1.2313  1.5406 -0.8757
87924SOL    HW275752   2.128   3.012   6.046  0.3975  0.4930 -0.6378
87925SOL     OW75753   0.842   6.362   9.357  0.4521 -0.3235 -0.0498
87925SOL    HW175754   0.929   6.325   9.342  0.1026 -0.8969 -0.7094
87925SOL    HW275755   0.799   6.359   9.271 -0.4005 -0.5070  0.3731
87926SOL     OW75756   0.901   6.592   0.393  0.3768  0.1647  0.0677
87926SOL    HW175757   0.892   6.582   0.299 -2.8365 -0.7950  0.3537
87926SOL    HW275758   0.843   6.666   0.415 -0.7760 -1.0945  1.4943
87927SOL     OW75759   3.910  10.103   8.422  0.3492  0.3277 -0.0041
87927SOL    HW175760   3.835  10.160   8.405 -0.3062 -0.5979 -0.2891
87927SOL    HW275761   3.917  10.048   8.343  0.3629 -0.6306  0.6476
87928SOL     OW75762   9.805   0.879  10.248  0.5307  0.3128 -0.2200
87928SOL    HW175763   9.710   0.873  10.235  0.7859  0.0109 -2.3642
87928SOL    HW275764   9.824   0.972  10.238  0.5880  0.2247 -0.9717
87929SOL     OW75765  10.243   3.876   4.068 -0.6202 -0.0228  0.6576
87929SOL    HW175766  10.190   3.859   4.146 -0.2380 -0.3196  0.8583
87929SOL    HW275767  10.261   3.970   4.072 -0.2272 -0.1113  1.1794
87930SOL     OW75768   4.059  12.214   5.113  0.8925 -0.2642  0.1284
87930SOL    HW175769   4.063  12.118   5.120 -2.3534 -0.5176  0.0518
87930SOL    HW275770   4.137  12.237   5.062  1.8403 -2.8254  0.2454
87931SOL     OW75771  11.570   4.361  12.047 -0.4296 -0.9232 -0.1819
87931SOL    HW175772  11.540   4.358  11.956 -3.4662  3.6054  0.3477
87931SOL    HW275773  11.619   4.443  12.053  1.0283 -1.8730  1.9958
87932SOL     OW75774   7.583   2.686  10.884  0.4108 -0.2024  0.6001
87932SOL    HW175775   7.609   2.674  10.793 -0.3467  0.6140  0.2543
87932SOL    HW275776   7.595   2.600  10.924 -0.0763 -0.8017 -0.4891
87933SOL     OW75777  11.403   4.236  12.545 -0.1677 -0.3942  0.6227
87933SOL    HW175778  11.495   4.237  12.572  0.7750 -1.0762 -2.1903
87933SOL    HW275779  11.402   4.280  12.460 -2.2532 -1.2430  0.1333
87934SOL     OW75780  10.684   9.592   4.120 -0.2092  0.1790  0.9717
87934SOL    HW175781  10.762   9.642   4.098 -0.9496  1.8170  1.8638
87934SOL    HW275782  10.717   9.507   4.150  1.1297  0.3744  0.1335
87935SOL     OW75783   6.060   5.289   6.687 -0.5221  0.4447  0.3022
87935SOL    HW175784   6.026   5.358   6.631 -1.8699 -0.4527 -0.0435
87935SOL    HW275785   6.060   5.327   6.775 -0.5029  1.1341  0.0061
87936SOL     OW75786   2.078  10.295  12.631  0.4700  0.6821 -0.0527
87936SOL    HW175787   2.119  10.339  12.557  0.2041 -0.3443 -0.8426
87936SOL    HW275788   1.987  10.326  12.631  0.5254  0.8398 -0.0342
87937SOL     OW75789   1.272   6.967  11.903  0.1289  0.1197 -0.0308
87937SOL    HW175790   1.228   6.888  11.872  0.6748 -0.0024 -0.5058
87937SOL    HW275791   1.360   6.962  11.866  0.7712  0.0201  1.4718
87938SOL     OW75792  12.579  12.120   9.413  0.4457  0.1093  0.3778
87938SOL    HW175793  12.613  12.150   9.329 -0.2234  2.5380  0.9053
87938SOL    HW275794  12.632  12.167   9.478 -0.2202 -0.3594  1.2814
87939SOL     OW75795   3.058  13.979  12.858 -0.2750  0.0587  0.0273
87939SOL    HW175796   3.014  13.909  12.907 -1.2382  0.3578 -0.3935
87939SOL    HW275797   2.995  14.005  12.791  1.2973 -0.9104 -1.9537
87940SOL     OW75798   9.004   8.035   0.314 -0.0396  0.1459 -0.4478
87940SOL    HW175799   8.911   8.050   0.300 -0.6130 -2.1790  0.3513
87940SOL    HW275800   9.008   7.950   0.358  2.4052  0.6677  0.5066
87941SOL     OW75801   2.453   7.969   6.398 -0.5257 -0.1642 -0.6397
87941SOL    HW175802   2.498   7.887   6.416 -0.7019 -0.2734 -0.6949
87941SOL    HW275803   2.445   8.011   6.484  1.0665  0.5832 -0.8113
87942SOL     OW75804   0.572   7.374  10.791  0.2361 -0.4406 -0.1848
87942SOL    HW175805   0.642   7.387  10.855  0.0575 -1.2274  0.1925
87942SOL    HW275806   0.503   7.435  10.818  1.2325  1.2511 -1.2995
87943SOL     OW75807  13.444   0.042  10.926 -0.5434 -0.3595  0.3908
87943SOL    HW175808  13.524   0.077  10.965 -1.0633 -0.1113  1.2567
87943SOL    HW275809  13.404   0.118  10.883  0.6891 -0.8819 -1.8649
87944SOL     OW75810   2.156  13.836  12.154 -0.3072 -0.4461  0.3950
87944SOL    HW175811   2.071  13.871  12.180 -0.7539  0.0433 -1.5634
87944SOL    HW275812   2.145  13.810  12.062  1.8790  0.4430 -0.2036
87945SOL     OW75813   4.651   3.974  12.554  0.5600 -0.0361 -0.5524
87945SOL    HW175814   4.560   3.948  12.569  0.7358 -0.5689 -0.3807
87945SOL    HW275815   4.679   3.922  12.478  0.9038 -0.3237 -0.2328
87946SOL     OW75816  12.428  13.462   1.362 -0.4191  0.6013  0.1999
87946SOL    HW175817  12.440  13.367   1.361  2.6695  0.8593 -1.3468
87946SOL    HW275818  12.355  13.477   1.303 -1.3671 -0.8105  0.9508
87947SOL     OW75819   6.371   6.054   3.442  0.3255  0.1909  0.6992
87947SOL    HW175820   6.322   6.048   3.524 -0.6833  0.3608  0.1274
87947SOL    HW275821   6.426   6.131   3.452 -1.0137  1.1858  0.5931
87948SOL     OW75822  12.551  13.431  10.939 -0.1377 -0.5405 -0.5034
87948SOL    HW175823  12.540  13.406  11.031  0.8948 -0.1078 -0.2524
87948SOL    HW275824  12.529  13.524  10.937 -1.1957 -0.7788 -0.9110
87949SOL     OW75825   3.881   1.187   1.691 -0.7836 -0.4742  0.5028
87949SOL    HW175826   3.812   1.248   1.716  0.9484  1.6884  0.3402
87949SOL    HW275827   3.884   1.192   1.596  1.2286  1.5576  0.5697
87950SOL     OW75828  11.854   0.868   0.142  0.1420  0.7470 -0.1204
87950SOL    HW175829  11.949   0.879   0.144  0.2665 -0.2479 -0.0353
87950SOL    HW275830  11.837   0.816   0.063 -0.2068 -0.0401  0.4576
87951SOL     OW75831   6.030   9.116   6.812 -0.9300 -0.8108  0.1458
87951SOL    HW175832   6.065   9.124   6.724  0.3451 -0.6166  0.6454
87951SOL    HW275833   6.105   9.133   6.869 -2.1601  1.2356  1.2798
87952SOL     OW75834   8.436   3.960   0.746  0.1680 -0.1291  0.7474
87952SOL    HW175835   8.371   3.891   0.753 -0.9890  0.8594  0.0885
87952SOL    HW275836   8.388   4.036   0.713  1.4333  0.9397  1.2370
87953SOL     OW75837   5.287   0.495   8.997 -1.0739 -0.1233  0.2021
87953SOL    HW175838   5.302   0.479   8.904 -2.4663 -1.7513  0.2153
87953SOL    HW275839   5.326   0.420   9.042 -1.7649 -0.1333  0.8117
87954SOL     OW75840   8.757   3.136  12.862  0.1250 -0.1986 -0.3086
87954SOL    HW175841   8.727   3.046  12.874 -0.5332  0.0685  0.1416
87954SOL    HW275842   8.711   3.167  12.784  0.3647 -0.2678 -0.4736
87955SOL     OW75843  12.357  12.704   6.004 -0.0766  0.5859  0.4788
87955SOL    HW175844  12.270  12.728   6.036  0.2846  3.3465 -0.3602
87955SOL    HW275845  12.417  12.762   6.050  1.3498 -1.0435  0.7984
87956SOL     OW75846   7.081   1.993   0.212  0.1817 -0.0212  0.7145
87956SOL    HW175847   7.120   2.078   0.189 -1.1221  0.2359 -0.7392
87956SOL    HW275848   7.141   1.928   0.176 -0.1700  0.3509 -0.6048
87957SOL     OW75849   0.774   1.730   9.272 -0.5638 -0.1226  0.0981
87957SOL    HW175850   0.833   1.732   9.197 -0.8753  0.9684 -0.1315
87957SOL    HW275851   0.827   1.763   9.345 -0.5213 -0.3538  0.1732
87958SOL     OW75852  12.490  11.467  10.159  0.6850 -0.0742  0.5197
87958SOL    HW175853  12.466  11.384  10.118 -0.3010 -0.0874  1.0962
87958SOL    HW275854  12.529  11.518  10.088  2.2205 -1.3604  0.3529
87959SOL     OW75855   6.947   5.646  10.619 -0.1178 -0.0706 -0.2462
87959SOL    HW175856   6.954   5.712  10.550 -1.2340 -0.4840 -0.7810
87959SOL    HW275857   7.037   5.632  10.648  0.3083  0.5556 -1.2011
87960SOL     OW75858   4.346   8.620   9.276 -0.9271  0.0444 -0.0654
87960SOL    HW175859   4.307   8.699   9.314 -1.0014 -0.4453  0.8869
87960SOL    HW275860   4.290   8.599   9.201  1.0950  2.9656 -2.7055
87961SOL     OW75861   3.205  12.382   2.382  0.0847 -0.0897 -0.1380
87961SOL    HW175862   3.290  12.367   2.341 -0.1875 -1.5319 -0.2225
87961SOL    HW275863   3.219  12.458   2.438  1.4192 -0.2591 -0.2035
87962SOL     OW75864   0.860   3.424   5.080  0.6999  0.2579  0.4154
87962SOL    HW175865   0.923   3.472   5.027  0.4556  0.3781  0.2257
87962SOL    HW275866   0.861   3.335   5.044  0.9704  0.1842  0.6028
87963SOL     OW75867   6.285   1.067   5.365 -0.2320  0.0052 -0.4603
87963SOL    HW175868   6.346   1.069   5.438  0.2373 -1.8113 -0.7678
87963SOL    HW275869   6.201   1.095   5.403 -0.0648 -1.1848  0.8528
87964SOL     OW75870   6.990   9.955  13.942 -0.0444  0.5265  0.3500
87964SOL    HW175871   6.947   9.998  14.015  1.9348  1.1044  1.2556
87964SOL    HW275872   6.975   9.862  13.956 -1.2295  0.7160  0.4359
87965SOL     OW75873   5.441   6.498   4.790  0.4034  0.0074  0.4012
87965SOL    HW175874   5.525   6.488   4.746  0.0738 -1.2319  0.0348
87965SOL    HW275875   5.463   6.506   4.883  1.1219  2.8421  0.1043
87966SOL     OW75876   0.854  12.279   2.595 -0.5043 -0.1799  0.5316
87966SOL    HW175877   0.941  12.308   2.566 -0.7462  1.6342  1.4960
87966SOL    HW275878   0.824  12.221   2.525  0.4791  1.0930 -1.0338
87967SOL     OW75879   1.139  13.161  10.785  0.0029  0.2927  0.3899
87967SOL    HW175880   1.129  13.143  10.691  2.8848 -0.9469  0.2170
87967SOL    HW275881   1.071  13.108  10.827  0.7078 -1.7449 -0.8751
87968SOL     OW75882   3.010   8.241  12.057 -0.1186  0.2446  0.1150
87968SOL    HW175883   3.065   8.171  12.022 -1.2365 -1.0390  0.8128
87968SOL    HW275884   3.013   8.229  12.152  0.4296  1.7576  0.3119
87969SOL     OW75885   3.660  10.269   8.376  0.2744  0.3452 -0.0200
87969SOL    HW175886   3.584  10.303   8.329  0.9799  0.1222 -1.3716
87969SOL    HW275887   3.624  10.210   8.442 -0.7104 -0.3039 -1.1045
87970SOL     OW75888   3.594  10.684  10.679  0.1477  0.2541  0.4241
87970SOL    HW175889   3.636  10.723  10.756 -0.8936  0.1822  1.0490
87970SOL    HW275890   3.548  10.607  10.713 -0.5769  0.3946 -0.2175
87971SOL     OW75891   2.465   7.887  11.298  0.5200 -0.3324  0.0343
87971SOL    HW175892   2.516   7.922  11.370  0.1527  0.4306 -0.0714
87971SOL    HW275893   2.509   7.919  11.219 -2.1628  3.6110 -0.1336
87972SOL     OW75894   1.249   7.565  10.571 -0.0414  0.0469  0.6140
87972SOL    HW175895   1.178   7.554  10.508  0.1334 -2.0544  0.7051
87972SOL    HW275896   1.328   7.570  10.518 -0.2039  2.7139  0.4939
87973SOL     OW75897   8.420   5.325   0.170 -0.2708  0.1867 -0.2164
87973SOL    HW175898   8.421   5.271   0.249  1.4433 -1.9657 -1.5698
87973SOL    HW275899   8.395   5.264   0.100 -2.4578  2.1920 -1.2886
87974SOL     OW75900   4.830   7.094   0.744 -1.3348  0.3770 -0.3130
87974SOL    HW175901   4.751   7.051   0.712 -1.0879 -0.3066 -0.0470
87974SOL    HW275902   4.864   7.141   0.668 -0.2470 -1.9749 -1.4117
87975SOL     OW75903  10.865   6.694   6.928 -0.0005 -0.2131 -0.7826
87975SOL    HW175904  10.790   6.701   6.868  1.3830  0.4075 -2.5304
87975SOL    HW275905  10.896   6.605   6.917  0.7273  0.1318 -1.6194
87976SOL     OW75906   1.207   1.277   4.225  1.2674 -0.4914 -0.1687
87976SOL    HW175907   1.171   1.346   4.169 -0.2331 -0.2672  1.0072
87976SOL    HW275908   1.170   1.295   4.312  3.3458 -0.9559  0.8736
87977SOL     OW75909   8.400  13.182  10.470 -0.1161 -0.3357 -1.0538
87977SOL    HW175910   8.372  13.236  10.544  0.0302  0.0546 -1.2767
87977SOL    HW275911   8.346  13.212  10.397 -0.9063 -1.3473 -0.9074
87978SOL     OW75912  11.040   3.820   3.130 -0.8386  0.3914  0.2048
87978SOL    HW175913  11.113   3.811   3.191 -2.1453 -0.8678  1.6893
87978SOL    HW275914  11.078   3.861   3.052  0.8276  2.3356  1.9498
87979SOL     OW75915  11.413  12.486   3.988  0.7468 -0.2628  0.0094
87979SOL    HW175916  11.475  12.559   3.992  0.1604  0.1998  3.5259
87979SOL    HW275917  11.467  12.409   4.007  0.5024  0.0133  2.0039
87980SOL     OW75918  12.213  13.898   5.767 -0.6995  0.2089  0.2677
87980SOL    HW175919  12.137  13.955   5.759 -0.4164  0.5779  0.1676
87980SOL    HW275920  12.202  13.855   5.852 -0.3712  1.2222  0.8272
87981SOL     OW75921   6.939   2.215  10.061  0.6222 -0.2561 -0.3021
87981SOL    HW175922   6.948   2.287  10.123  2.9500 -0.0738 -0.7417
87981SOL    HW275923   6.915   2.257   9.979  0.8364 -0.1005 -0.2864
87982SOL     OW75924   4.068  13.322  12.627 -0.0341 -0.1981 -0.2220
87982SOL    HW175925   4.084  13.229  12.645 -0.1656 -0.3525 -0.8833
87982SOL    HW275926   3.993  13.323  12.567  0.1665  0.3193 -0.4710
87983SOL     OW75927   7.925  10.620  13.981  0.3893  0.0838 -0.2592
87983SOL    HW175928   7.876  10.544  14.012  3.3090 -1.4079  1.1290
87983SOL    HW275929   7.948  10.599  13.890  2.6883 -1.6681  0.6371
87984SOL     OW75930   1.264   1.924   9.584 -0.5244  0.3629 -0.3124
87984SOL    HW175931   1.308   2.007   9.566 -1.0614  0.8544  0.6036
87984SOL    HW275932   1.203   1.943   9.655 -0.2768 -0.9292  0.2842
87985SOL     OW75933  10.308  13.367   5.123  0.1518 -0.0668  0.4398
87985SOL    HW175934  10.234  13.426   5.106  0.5606  0.3409  0.0307
87985SOL    HW275935  10.279  13.312   5.195 -1.4442 -1.4783 -1.2015
87986SOL     OW75936  11.443   4.150   6.841  0.1721  0.3070  0.1204
87986SOL    HW175937  11.527   4.186   6.868  0.0438  0.5512  0.1974
87986SOL    HW275938  11.433   4.178   6.750 -1.3017  3.0982  1.0169
87987SOL     OW75939  10.741  11.875  13.149 -0.0440  0.2264 -0.6314
87987SOL    HW175940  10.700  11.931  13.083  0.6085  0.7880 -0.5716
87987SOL    HW275941  10.668  11.844  13.203 -0.3003  2.2355  0.2766
87988SOL     OW75942  13.935   4.231   1.283 -0.1677  0.6826 -0.8078
87988SOL    HW175943  13.896   4.190   1.207  1.4028 -0.0067 -1.2744
87988SOL    HW275944  13.963   4.158   1.339  1.0356  1.1150 -0.8077
87989SOL     OW75945   5.694   1.666  11.175  0.3562 -0.4189 -0.3542
87989SOL    HW175946   5.625   1.600  11.190 -0.5242  0.6177  0.3318
87989SOL    HW275947   5.740   1.635  11.098 -0.7914 -1.2344 -0.7438
87990SOL     OW75948   2.834  12.647   2.243 -0.0023 -0.4300 -0.6445
87990SOL    HW175949   2.870  12.559   2.249  0.4157 -0.2239  0.1107
87990SOL    HW275950   2.895  12.694   2.186 -0.0032 -0.5257 -0.7230
87991SOL     OW75951   7.497   3.712   3.041  0.8180  0.1279 -0.2413
87991SOL    HW175952   7.511   3.805   3.061  1.4778  0.0171 -0.1422
87991SOL    HW275953   7.535   3.701   2.954  5.4277 -1.0416  1.5966
87992SOL     OW75954   1.962   9.145   0.318 -0.4332  0.6566  0.2355
87992SOL    HW175955   1.947   9.057   0.352  0.8221  0.4775  0.3716
87992SOL    HW275956   1.950   9.137   0.224  0.7947  0.0630  0.1105
87993SOL     OW75957   1.681  11.589   6.748  0.7778 -0.2710 -0.2629
87993SOL    HW175958   1.649  11.542   6.826 -0.5020  3.4883  1.7282
87993SOL    HW275959   1.762  11.630   6.777  0.0675  1.5194 -0.6900
87994SOL     OW75960  10.585  12.287   1.834 -0.0477  0.2586  0.2077
87994SOL    HW175961  10.563  12.285   1.927  1.9338  1.3681  0.7541
87994SOL    HW275962  10.662  12.344   1.828 -0.9312  1.3234 -2.3018
87995SOL     OW75963   6.311   3.547   7.443  0.3201 -0.5253  0.1258
87995SOL    HW175964   6.365   3.575   7.368  0.9614 -1.8911  0.0502
87995SOL    HW275965   6.342   3.601   7.516  0.1163  0.3851 -0.4453
87996SOL     OW75966  13.623   8.363   0.025 -0.3616  0.1508  0.1516
87996SOL    HW175967  13.629   8.452   0.059 -1.9269 -0.1275  1.2859
87996SOL    HW275968  13.581   8.313   0.095 -0.3989 -1.2639 -0.8307
87997SOL     OW75969   3.781  12.442   0.291 -0.2315 -0.2993  0.5579
87997SOL    HW175970   3.822  12.390   0.359 -1.5755  0.9688  2.4441
87997SOL    HW275971   3.854  12.485   0.246  0.7575 -2.1762  0.2738
87998SOL     OW75972   8.320   7.645   3.000  0.3158 -0.0357 -0.4446
87998SOL    HW175973   8.295   7.678   2.913 -0.7787  0.7054  0.1254
87998SOL    HW275974   8.361   7.720   3.043 -0.8238  0.1851  0.3187
87999SOL     OW75975   2.184   3.313  13.373  0.2357  0.2475  0.0804
87999SOL    HW175976   2.239   3.361  13.311  0.3298 -2.7668 -2.3736
87999SOL    HW275977   2.105   3.292  13.324 -0.8391 -0.0467  1.8553
88000SOL     OW75978   3.322   6.951   0.147  0.4463 -0.3943  0.2258
88000SOL    HW175979   3.375   6.907   0.080  3.5531  2.3620  0.5679
88000SOL    HW275980   3.285   7.027   0.102  1.2073  0.5768  1.1744
88001SOL     OW75981   3.354  11.613   5.041  0.8144  0.6715 -0.1377
88001SOL    HW175982   3.309  11.650   4.965  1.3878  0.7624 -0.4366
88001SOL    HW275983   3.385  11.688   5.091 -0.3729  0.6367  0.7014
88002SOL     OW75984  10.562  12.199   7.119  0.1979  0.1763  0.4271
88002SOL    HW175985  10.632  12.223   7.179  0.4228 -0.3852  0.3919
88002SOL    HW275986  10.482  12.203   7.171  0.3249  0.2446  0.6150
88003SOL     OW75987   8.488   1.893   1.624  0.4296  0.1453 -0.2444
88003SOL    HW175988   8.521   1.881   1.534 -1.7128 -0.8864 -0.9861
88003SOL    HW275989   8.412   1.951   1.614 -1.5152 -2.1127  0.3948
88004SOL     OW75990   5.349   9.146   2.703  0.0250  0.2881  0.3305
88004SOL    HW175991   5.351   9.236   2.671 -1.2067 -0.2434 -1.3675
88004SOL    HW275992   5.440   9.124   2.720  0.6324  1.0198 -1.7630
88005SOL     OW75993   8.943   8.068   3.293 -0.0372  0.3554 -0.1893
88005SOL    HW175994   8.869   8.014   3.320 -0.8097  0.8346 -1.2530
88005SOL    HW275995   9.020   8.017   3.315 -0.7126 -0.5743  0.0700
88006SOL     OW75996   8.576   9.103   1.940 -0.5294  0.1087 -0.1066
88006SOL    HW175997   8.508   9.126   1.876  0.6777 -0.6096 -1.6967
88006SOL    HW275998   8.599   9.012   1.919  1.1572  0.4477  0.1694
88007SOL     OW75999  10.371   0.453   7.853 -0.2596 -0.1367 -0.1135
88007SOL    HW176000  10.443   0.442   7.791 -1.0167 -1.0054 -0.8716
88007SOL    HW276001  10.307   0.507   7.806 -1.1567 -1.4090 -0.3805
88008SOL     OW76002   7.936   2.550  13.897  0.4936 -0.5804  0.1666
88008SOL    HW176003   8.003   2.482  13.904 -0.8213 -1.7580  2.9474
88008SOL    HW276004   7.894   2.535  13.813  4.7177  1.3819 -2.6694
88009SOL     OW76005  10.830   9.083   4.715  0.2807 -0.6572  0.2260
88009SOL    HW176006  10.838   9.105   4.808 -0.5117 -2.7573  0.8409
88009SOL    HW276007  10.916   9.103   4.678  0.1348  1.7779  0.9971
88010SOL     OW76008   9.196   6.381   6.979  1.0916  0.2175  0.3261
88010SOL    HW176009   9.191   6.462   6.930  0.2319 -1.5687 -2.8128
88010SOL    HW276010   9.120   6.382   7.037  0.9005  1.4509  0.0676
88011SOL     OW76011   0.147  12.152   6.397 -0.0068  0.1383  0.0177
88011SOL    HW176012   0.210  12.114   6.457  0.9840  1.4804 -0.1420
88011SOL    HW276013   0.123  12.079   6.339  1.0004 -0.5162  0.3932
88012SOL     OW76014  12.434   7.968   3.308 -0.1387  0.7878  0.0223
88012SOL    HW176015  12.421   8.060   3.285  2.3442  1.3057  0.4084
88012SOL    HW276016  12.477   7.930   3.231 -2.7505 -0.5862 -0.8833
88013SOL     OW76017   2.901   3.252   1.435 -0.0959 -0.4326  0.0578
88013SOL    HW176018   2.900   3.322   1.369 -0.3144  0.6421  1.1691
88013SOL    HW276019   2.828   3.195   1.411 -0.0234 -0.1949 -0.7576
88014SOL     OW76020  13.756   2.107  11.530  0.0364 -1.1751  0.6842
88014SOL    HW176021  13.732   2.186  11.579 -1.9021 -1.2149 -0.1207
88014SOL    HW276022  13.845   2.125  11.498 -1.5581  2.3322 -2.4946
88015SOL     OW76023   9.663   0.683   7.561  0.0428 -0.4098  0.1079
88015SOL    HW176024   9.587   0.651   7.610 -0.9709 -0.7148 -1.5666
88015SOL    HW276025   9.695   0.605   7.514  0.0942  0.1526 -0.8083
88016SOL     OW76026   8.525   0.199  13.980  0.1740 -0.2282 -0.0969
88016SOL    HW176027   8.500   0.266  14.044  0.7341  0.7568 -0.8821
88016SOL    HW276028   8.612   0.226  13.951 -0.1568 -0.5451 -1.4260
88017SOL     OW76029  10.538   4.772  12.802 -0.3171  0.1480  0.3539
88017SOL    HW176030  10.447   4.778  12.774 -1.1323 -0.4906  2.5920
88017SOL    HW276031  10.548   4.681  12.831  1.6583 -0.3437 -1.6800
88018SOL     OW76032   1.318  11.446  13.293 -0.0582  0.0375  0.4043
88018SOL    HW176033   1.281  11.384  13.355  2.4561 -1.3933  0.5940
88018SOL    HW276034   1.354  11.516  13.347  2.3936 -1.3514  0.7069
88019SOL     OW76035  14.015   3.226  12.424 -0.2200 -0.3703 -0.1916
88019SOL    HW176036  13.930   3.268  12.412 -0.3416 -1.0284 -1.9519
88019SOL    HW276037  14.021   3.211  12.518 -0.9657  1.8694  0.2784
88020SOL     OW76038   7.051  10.816   6.043 -0.0915 -0.3381 -0.0024
88020SOL    HW176039   7.066  10.900   6.088 -1.0529  0.2656 -0.7716
88020SOL    HW276040   7.027  10.841   5.954 -0.8672 -1.4135 -0.1096
88021SOL     OW76041   4.329   8.514   4.304 -0.1086  0.0256 -0.1558
88021SOL    HW176042   4.280   8.484   4.227 -0.4312  1.2387 -0.4528
88021SOL    HW276043   4.265   8.564   4.355  0.3116 -0.0867  0.4921
88022SOL     OW76044   6.040   9.443   3.160 -0.4321 -0.3467 -0.0249
88022SOL    HW176045   6.118   9.423   3.211 -0.7193  0.8540  0.9342
88022SOL    HW276046   6.018   9.361   3.116  2.1113 -0.3787 -1.3977
88023NA      NA76047  12.276  10.277   5.054  0.2176  0.2054  0.0196
88024NA      NA76048   3.088   1.986   8.149 -0.2745  0.0440 -0.1531
88025NA      NA76049  12.396   8.496   9.952 -0.2921  0.3667  0.1114
88026NA      NA76050   3.946  12.316   5.954  0.1035 -0.1019 -0.1007
88027NA      NA76051   1.392  11.375   1.719  0.1020  0.1559 -0.5108
88028NA      NA76052  11.166   2.421  12.859  0.1482  0.1392  0.2042
88029NA      NA76053   1.713   5.130  13.898  0.2918  0.4727 -0.5971
88030NA      NA76054   2.892  10.689   8.755 -0.3070  0.0117 -0.0403
88031NA      NA76055   9.802   5.815   7.764  0.0818 -0.3912 -0.4432
88032NA      NA76056   5.871   2.301   8.433 -0.1248 -0.1992  0.0594
88033NA      NA76057   0.271  13.305  12.171  0.4506 -0.0866  0.2416
88034NA      NA76058   9.722   4.821   0.028  0.3695 -0.2031 -0.2881
88035NA      NA76059   0.326  13.535   6.008  0.2909  0.1600  0.1625
88036NA      NA76060   5.380   1.131   7.607  0.3633 -0.4177 -0.6706
88037NA      NA76061   8.398   5.272   6.546 -0.2162  0.1422 -0.2330
88038NA      NA76062   1.811   3.520  10.027 -0.5271  0.0640 -0.2198
88039NA      NA76063   9.538   3.339  10.902  0.3052 -0.1295 -0.0196
88040NA      NA76064   3.034   5.763   2.966 -0.4936  0.6277 -0.1741
88041NA      NA76065   8.450   1.199  10.763 -0.0697 -0.1651  0.3946
88042NA      NA76066   4.642  11.657   8.045 -0.0361  0.1715 -0.4726
88043NA      NA76067   3.409   3.796   8.637 -0.1896  0.0959  0.2954
88044NA      NA76068  13.841   2.994   9.085 -0.2590  0.0240  0.1737
88045NA      NA76069  12.038   2.068   9.810 -0.2539  0.3660  0.0064
88046NA      NA76070   0.050   7.103   7.709 -0.5129 -0.7285 -0.0536
88047NA      NA76071   8.542   7.084  11.622  0.1411 -0.0494 -0.0920
88048NA      NA76072  11.297  10.181   1.606 -0.2650  0.0915  0.3394
88049NA      NA76073   9.582   7.254   8.459  0.1638 -0.1570  0.5047
88050NA      NA76074   4.161  13.698   1.114  0.0148  0.2105  0.5258
88051NA      NA76075   1.339   3.613   6.191 -0.3599 -0.4911  0.0609
88052NA      NA76076   0.234   5.723   5.238 -0.4344  0.1593 -0.1378
88053NA      NA76077   9.148   3.642   3.372 -0.0698 -0.0946  0.2916
88054NA      NA76078   0.191   7.973   7.367  0.2016 -0.1479 -0.3199
88055NA      NA76079   5.958   1.823  11.798  0.3121  0.0614  0.3092
88056NA      NA76080   2.671  13.886  12.244  0.8853  0.2191 -0.2015
88057NA      NA76081   0.682   5.242   3.639 -0.5140 -0.3564  0.1509
88058NA      NA76082   6.542  10.672   1.907  0.0628  0.2668  0.5838
88059NA      NA76083  10.076   8.879   7.433  0.4771  0.1290 -0.3155
88060NA      NA76084   2.438   7.628  12.891 -0.3204  0.1259 -0.2374
88061NA      NA76085   4.660   3.547  13.245 -0.3750  0.2725  0.5596
88062NA      NA76086  11.121  11.797   8.581 -0.3845 -0.5405 -0.0175
88063NA      NA76087  10.639   7.918   8.621  0.0741  0.2525  0.0982
88064NA      NA76088  10.993   2.811   1.611 -0.3543  0.2672  0.5058
88065NA      NA76089  10.832  10.127   9.478 -0.2438  0.2631 -0.6121
88066NA      NA76090   6.601   0.346  12.405  0.3972  0.2898  0.1053
88067NA      NA76091  12.354   0.646   0.601 -0.0487  0.4308  0.4811
88068NA      NA76092  13.066  12.335   0.978  0.2558 -0.4305  0.2562
88069NA      NA76093   8.089  10.852  11.383  0.3073 -0.7436  0.3511
88070NA      NA76094   3.103   2.542  12.128  0.5516  0.4182  0.1676
88071NA      NA76095   9.875   0.694   2.049 -0.4252 -0.2005  0.0857
88072NA      NA76096   0.577   3.208   9.205  0.3738 -0.4190 -0.7113
88073NA      NA76097   7.364   0.547   2.060  0.0632 -0.3101 -0.1458
88074NA      NA76098   6.869   4.328   2.490 -0.0498 -0.3684 -0.6391
88075NA      NA76099  10.674  10.698   7.587  0.1230 -0.4984 -0.0822
88076NA      NA76100   6.274   4.369   0.888 -0.3008  0.5486  0.7724
88077NA      NA76101   5.728   6.401   7.298  0.1421 -0.1426 -0.2326
88078NA      NA76102   5.508   9.960  13.372  0.3198 -0.6120  0.4388
88079NA      NA76103  12.527   7.580   8.864 -0.0267 -0.4956 -0.1287
88080NA      NA76104   8.287  12.159  13.160 -0.6189 -0.5082  0.0822
88081NA      NA76105  11.506  12.330   6.846 -0.2442 -0.2289 -0.3523
88082NA      NA76106   9.557   4.246   9.516  0.5556 -0.5746  0.0166
88083NA      NA76107  12.941   3.286  10.072 -0.0552 -0.0431 -0.5094
88084NA      NA76108  12.731  13.220   3.626  0.2860 -0.4736  0.5737
88085NA      NA76109   7.035   0.693  13.359 -0.2595 -0.5494 -0.4561
88086NA      NA76110  11.996   9.420   7.679 -0.1067 -0.1026 -0.4025
88087NA      NA76111  13.288   7.981   2.580 -0.5066 -0.0650  0.1510
88088NA      NA76112  12.915   6.579   3.888 -0.0395  0.2871  0.1903
88089NA      NA76113   3.402   5.383   4.914 -0.1595 -0.0765  0.0308
88090NA      NA76114   7.237   1.115   6.888  0.0034 -0.6426 -0.0603
88091NA      NA76115  11.608   2.871  10.881 -0.0427  0.5016 -0.2676
88092NA      NA76116   7.125   3.043   0.677  0.0676  0.3790  0.1022
88093NA      NA76117   0.920  13.303  12.310  0.1096  0.1681  0.6156
88094NA      NA76118   0.770   2.888  13.479 -0.4992  0.6472  0.1016
88095NA      NA76119  11.527  10.630   7.941  0.2928 -0.1837  0.0014
88096NA      NA76120   1.837   1.501   2.021  0.1888  0.5466  0.0382
88097NA      NA76121   1.832   5.306   6.713 -0.1869 -0.2857 -0.2497
88098NA      NA76122  12.148   9.750   6.937  0.2017 -0.1242  0.2372
88099NA      NA76123  11.194   3.702   4.557  0.2790  0.2672 -0.6120
88100NA      NA76124  12.592   8.429  10.807  0.1333  0.1894  0.2468
88101NA      NA76125   3.568   0.115   1.145  0.4047  0.1605  0.3025
88102NA      NA76126  12.646   6.622   4.831  0.0959  0.0810  0.4693
88103NA      NA76127   1.768   5.247  10.611 -0.0501 -0.0584 -0.5678
88104NA      NA76128   9.860   8.210  10.416  0.0605 -0.4657 -0.1721
88105NA      NA76129  12.967  11.242  12.292  0.2478  0.0723 -0.1781
88106NA      NA76130   5.241   2.731  12.823 -0.0385 -0.2279 -0.1948
88107NA      NA76131  12.027   1.240   4.675 -0.3840  0.1732  0.0973
88108NA      NA76132   7.664   2.013   5.816  0.1360  0.3635 -0.4480
88109NA      NA76133   9.168  11.343  12.063 -0.0580  0.1772  0.2933
88110NA      NA76134   1.552   3.092  13.068  0.2719  0.0939  0.1656
88111NA      NA76135   3.820   1.206   8.327  0.2980  0.5113  0.1212
88112NA      NA76136   0.375   5.431  13.863 -0.5038 -0.3011 -0.0124
88113NA      NA76137   1.270   0.471   8.711 -0.3169  0.0519 -0.0824
88114NA      NA76138   6.869  11.487  13.525 -0.1155 -0.2320 -0.4372
88115NA      NA76139   2.521   8.987  12.053  0.1695  0.1037  0.0134
88116NA      NA76140  10.865   2.974   2.953  0.0507 -0.1509  0.1437
88117NA      NA76141   0.279   5.986   9.987 -0.1235  0.5491 -0.4135
88118NA      NA76142   0.657   0.764   4.745 -0.1390  0.2244  0.4292
88119NA      NA76143  12.371  13.309   1.799 -0.0363 -0.4824  0.7723
88120NA      NA76144   4.716   9.545  10.757  0.6867  0.1082 -0.1910
88121NA      NA76145   0.221   5.701   6.717  0.0086 -0.6621 -0.2559
88122NA      NA76146   1.208  10.850   6.149  0.2258  0.6394 -0.4857
88123NA      NA76147   0.803  12.596   2.936 -0.4865 -0.2379 -0.5429
88124NA      NA76148   3.259   1.422   4.467  0.0332  0.2602  0.1564
88125NA      NA76149   8.975   4.931   3.837 -0.2626  0.1285  0.3520
88126NA      NA76150   6.245   2.120  10.383 -0.2112  0.0368 -0.2990
88127NA      NA76151  11.689   7.701  12.819  0.1029 -0.4905  0.1722
88128NA      NA76152   0.255   8.106   3.937 -0.0697  0.1129  0.4056
88129NA      NA76153  12.432   1.301   7.983 -0.7142 -0.4836 -0.2504
88130NA      NA76154   9.216  13.246   0.807  0.5168  0.3056  0.1571
88131NA      NA76155   3.333   5.274  10.973 -0.3602 -0.2162  0.3376
88132NA      NA76156  11.644  10.196  14.042 -0.3286 -0.2155  0.2567
88133NA      NA76157   4.736   0.098   7.793 -0.7393 -0.4476  0.1573
88134NA      NA76158  11.150  10.743   0.677  0.0717 -0.2209  0.9883
88135NA      NA76159   1.746   9.353  12.555  0.1125  0.7607  0.1456
88136NA      NA76160   1.779   4.350   3.974 -0.0667 -0.0694 -0.4328
88137NA      NA76161   2.468   8.189  13.918 -0.1492 -0.2342 -0.3014
88138NA      NA76162   6.962   2.031   2.661  0.5597 -0.1669  0.2924
88139NA      NA76163   8.774   6.952  12.208 -0.3716 -0.0477  0.2143
88140NA      NA76164   6.864   1.891  12.742 -0.3744  0.2015 -0.0571
88141NA      NA76165   7.763   2.746  12.125  0.5981 -0.2032  0.7554
88142NA      NA76166   7.741   3.752   7.149  0.4967  0.0108 -0.2833
88143NA      NA76167  11.878   3.221   3.705  0.6440  0.5097 -0.1550
88144NA      NA76168  12.329   8.943   8.967 -0.3438  0.1856  0.0122
88145NA      NA76169   1.286   9.243  11.069 -0.3553  0.4562  0.4509
88146NA      NA76170   9.795  10.029  11.381 -0.2182  0.2864 -0.2914
88147NA      NA76171   0.421   4.412  13.273  0.2290 -0.0177  0.1866
88148NA      NA76172   4.038   9.052  13.337 -0.1540  0.0025  0.2946
88149NA      NA76173   4.895   1.319  10.331  0.7734 -0.2332 -0.4176
88150NA      NA76174   0.130   2.122   3.281 -0.1435  0.0179  0.5758
88151NA      NA76175   6.974   5.265  10.082  0.3348 -0.2578 -0.2184
88152NA      NA76176   9.825   7.984   0.874 -0.0245 -0.1233 -0.0086
88153NA      NA76177  13.106  10.424   5.495 -0.3019  0.1440  0.6517
88154NA      NA76178   0.153  13.921   8.384 -0.4170 -0.0878 -0.0637
88155NA      NA76179   9.021   9.743  10.819 -0.4739 -0.0731  0.1520
88156NA      NA76180  13.385   3.715   0.090 -0.1766 -0.5191  0.2144
88157NA      NA76181  10.540   6.679   1.060 -0.1582  0.1988 -0.4655
88158NA      NA76182   3.347   8.654   8.152  0.2576  0.1549  0.0374
88159NA      NA76183  13.000   2.406   7.693  0.1525 -0.1183 -0.3500
88160NA      NA76184   8.091   8.956   0.495 -0.3813  0.4001  0.3603
88161NA      NA76185   3.492  10.066   9.333 -0.4909 -0.0256 -0.4498
88162NA      NA76186   5.446   3.382   5.170 -0.3220  0.1055  0.2590
88163NA      NA76187  10.913   3.268   8.564 -0.2466 -0.0357  0.0903
88164NA      NA76188   6.597   5.658  11.593 -0.1786  0.5122  0.7834
88165NA      NA76189   5.054   7.805  10.988  0.6699 -0.1639  0.6506
88166NA      NA76190   2.911   1.594   6.224  0.2196 -0.1505  0.0034
88167NA      NA76191  12.551   0.131  12.135  0.2740  0.5710  0.2491
88168NA      NA76192  10.910   5.976   9.647 -0.0026 -0.1146  0.1967
88169NA      NA76193   8.192   3.213  10.462  0.4938  0.2799 -0.0008
88170NA      NA76194  12.368   5.039  12.453  0.4409 -0.2795  0.1773
88171NA      NA76195   0.727   4.175  12.073  0.9744 -0.1454 -0.2510
88172NA      NA76196   8.261   9.882   5.135  0.1362 -0.0049  0.0622
88173NA      NA76197  12.293   1.196  12.418 -0.1007  0.3434  1.0390
88174NA      NA76198   3.338   5.135  12.366 -0.4740  0.6947  0.2670
88175NA      NA76199  13.723   0.648   8.307  0.1843 -0.0846  0.1637
88176NA      NA76200  11.779   6.168   6.559 -0.1584 -0.1247 -0.2127
88177NA      NA76201  13.725   4.522  13.067  0.6375  0.4786  0.1552
88178NA      NA76202  12.986  11.217   7.293  0.1291  0.6088  0.2036
88179NA      NA76203  13.671   5.497   2.412 -0.3446 -0.0607 -0.0624
88180NA      NA76204   9.655  12.466   9.128 -0.5533  0.2086  0.2669
88181NA      NA76205   1.788   0.477  12.804 -0.1965 -0.0147 -0.0043
88182NA      NA76206  13.112   2.681   6.027  0.0005 -0.2043  0.1748
88183NA      NA76207   3.577   5.638  10.123 -0.1359 -0.5588  0.1976
88184NA      NA76208   2.066   2.405   0.815 -0.1446  0.0094  0.2862
88185NA      NA76209  11.599   5.460   1.731 -0.2894 -0.2553 -0.1634
88186NA      NA76210   1.279   9.664   1.430 -0.2634  0.0047 -0.8328
88187NA      NA76211   1.903   2.002   9.669  0.4464 -0.3496  0.2762
88188NA      NA76212   2.759   9.693   8.593 -0.3080  0.0417  0.1670
88189NA      NA76213   9.279   9.057   1.245 -0.5818 -0.2890 -0.0746
88190NA      NA76214  13.204  13.862   9.371  0.0164 -0.1320 -0.1801
88191NA      NA76215   1.052   2.579   5.556 -0.0255 -0.3727  0.3562
88192NA      NA76216  13.752  12.685   4.538 -0.0486 -0.2723 -0.1947
88193NA      NA76217  10.975   3.999   5.836 -0.0359 -0.0887 -0.0960
88194NA      NA76218   3.397  12.010   1.602 -1.0582  0.9409  0.5671
88195NA      NA76219   3.450   8.071  11.607  0.0277  0.3633 -0.4047
88196NA      NA76220  13.088   0.762   2.395  0.7367  0.0631 -0.2641
88197NA      NA76221   6.533   3.529   9.833  0.1494 -0.2435  0.6770
88198NA      NA76222  13.704   9.661   2.385  0.0482 -0.4469  0.2253
88199NA      NA76223   3.107   6.796   1.741  0.2095  0.7082 -0.3252
88200NA      NA76224  13.191  13.837   7.901 -0.0799 -0.1479 -0.0676
88201NA      NA76225  10.071   6.154   6.184  0.1051 -0.1047  0.3619
88202NA      NA76226   4.503   8.663   8.145 -0.0223  0.4236  0.0672
88203NA      NA76227   5.080   4.030   3.333  0.1309  0.6101  0.1802
88204NA      NA76228  12.519  10.751  12.162 -0.1593  0.0315 -0.1159
88205NA      NA76229  13.182   9.116  10.952  0.1925  0.2178 -0.1187
88206NA      NA76230   8.740   4.974  13.371 -0.3426  0.3829  0.0649
88207NA      NA76231  11.985   3.792   3.719 -0.3108  0.2170  0.0646
88208NA      NA76232   1.222  11.924   4.298  0.1338  0.5536 -0.0990
88209NA      NA76233   6.405   2.407  10.044 -0.3690  0.1574 -0.0188
88210NA      NA76234   3.113   2.249   3.774 -0.2563  0.4190  0.3562
88211NA      NA76235   3.317   8.105   2.219  0.2580 -0.2663  0.1106
88212NA      NA76236  10.933   0.621  14.018  0.4128 -0.1794  0.4147
88213NA      NA76237  12.719  12.319   6.822  0.0752 -0.0698  0.2893
88214NA      NA76238   0.421   9.739  11.841  0.0063  0.0496  0.2111
88215NA      NA76239  12.185   4.987   9.958 -0.1478  0.4068  0.3736
88216NA      NA76240   0.439   9.685   9.241  0.3402  0.0296  0.3058
88217NA      NA76241   8.729   9.784  12.466 -0.3889 -0.2674  0.3747
88218NA      NA76242   8.843   4.522   8.953 -0.2804 -0.3517 -0.0953
88219NA      NA76243   5.829   1.725   0.246  0.5741 -0.0808 -0.0343
88220NA      NA76244   2.059   7.909   7.142 -0.0611  0.0966 -0.1382
88221NA      NA76245  11.461   6.591   2.445  0.3296  0.3282 -0.5399
88222NA      NA76246   9.601   6.746   0.337 -0.2178  0.3116  0.0016
88223NA      NA76247  13.596  12.294   9.586  0.2011 -0.1747 -0.7531
88224NA      NA76248   4.166   3.865  11.604 -0.3729  0.2807 -0.0812
88225NA      NA76249   2.210   5.670   5.169  0.5783  0.3923  0.1421
88226NA      NA76250  11.956   3.829  11.306 -0.5420  0.0697  0.3351
88227NA      NA76251   3.775   9.030   3.475  0.1903 -0.8104 -0.4561
88228NA      NA76252  13.994   8.967  11.630 -0.4553  0.4878  0.0978
88229NA      NA76253  12.448   2.074   0.645  0.2380  0.6739  0.0018
88230NA      NA76254   9.727   3.892  12.469 -0.3454 -0.1915 -0.0832
88231NA      NA76255  12.246  11.562   1.917  0.1292 -0.1101 -0.3417
88232NA      NA76256   8.075   3.138   0.944  0.2780  0.0321  0.2743
88233NA      NA76257   7.529   8.666   2.603  0.5248 -0.0229 -0.4505
88234NA      NA76258   2.650   6.859   3.464 -0.4963  0.0309 -0.7412
88235NA      NA76259  13.081   8.224   0.352  0.1733  0.0362  0.2344
88236NA      NA76260   2.626   8.112   7.043  0.3713 -0.1510 -0.4641
88237NA      NA76261   2.566  11.920   8.134 -0.3099 -0.0753 -0.0354
88238NA      NA76262   7.702  12.101   0.841 -0.1021  0.1096 -0.2025
88239NA      NA76263   0.541   4.914   1.792 -0.4043 -0.3662  0.8093
88240NA      NA76264   7.425  10.491  10.848  0.0677  0.3637  0.4021
88241NA      NA76265   3.288   9.413  13.188  0.0535  0.3119 -0.2975
88242NA      NA76266  12.038   0.125  13.648 -0.1327 -0.2965 -0.1897
88243NA      NA76267   1.159   8.709   1.630  0.0318  0.0128 -0.2003
88244NA      NA76268  11.476  13.709  13.568  0.0928 -0.2050 -0.1745
88245NA      NA76269   2.841  10.614   4.315 -0.2793  0.1710  0.1563
88246NA      NA76270   0.374   6.093   9.108 -0.6759 -0.2732  0.7217
88247NA      NA76271   2.388   3.612   5.670  0.0758  0.0890 -0.7413
88248NA      NA76272   0.118   2.217   5.047 -0.1376  0.0830  0.1898
88249NA      NA76273   1.256   3.945  13.190  0.0482 -0.1834  0.0026
88250NA      NA76274   5.237  12.889  10.323 -0.6017 -1.0764 -0.3743
88251NA      NA76275  11.869   5.044   8.773  0.1942 -0.2102  0.4906
88252NA      NA76276   4.769   7.375   7.818 -0.1208 -0.0708  0.1032
88253NA      NA76277  13.126   3.392  10.911 -0.2620  0.1068 -0.0050
88254NA      NA76278   5.527   5.148   9.210 -0.1442  0.1097  0.1250
88255NA      NA76279   6.908   7.516  11.690  0.2542  0.2115  0.0172
88256NA      NA76280   5.509   5.280   0.660  0.0136  0.1620 -0.2088
88257NA      NA76281   6.047   2.979   6.629 -0.4622 -0.3432 -0.4654
88258NA      NA76282   6.381   0.425   0.008 -0.2856  0.0943  0.2226
88259NA      NA76283  12.957   6.845  13.574 -0.0011  0.2530 -0.2837
88260NA      NA76284   3.787   9.940  13.707 -0.0157 -0.6748 -0.1579
88261NA      NA76285   0.086   5.580   0.993  0.0230 -0.1424  0.1719
88262NA      NA76286  10.335   0.964   3.354 -0.2131  0.1369  0.2354
88263NA      NA76287   7.893   9.146  11.486 -0.1603  0.0963 -0.1238
88264NA      NA76288   8.209   5.947   0.827  0.0863  0.2378 -0.1233
88265NA      NA76289   3.893  11.847   9.815 -0.6269  0.0875 -0.2471
88266NA      NA76290  12.941  13.672  11.646 -0.2991 -0.0127 -0.1361
88267NA      NA76291   5.296  13.862  14.042 -0.3263  1.0188 -0.2224
88268NA      NA76292   1.705   9.988   8.881  0.0864  0.4243 -0.0605
88269NA      NA76293  13.524   3.321  12.120  0.4260  0.1647  0.0366
88270NA      NA76294  11.927  11.366   6.774  0.4404 -0.5301  0.2730
88271NA      NA76295   0.675   1.942   2.084 -0.0130  0.5365  0.2053
88272NA      NA76296   4.816   4.266   0.612 -0.2728  0.2758  0.0156
88273NA      NA76297   5.896  12.703   0.927 -0.3600 -0.1060 -0.0974
88274NA      NA76298   4.687   4.604   9.281 -0.1567  0.1109  0.2289
88275NA      NA76299  10.278   1.441  13.431 -0.1345  0.2070  0.4987
88276NA      NA76300   2.625   7.045  13.641  0.3704 -0.1700 -0.8069
88277NA      NA76301  13.166   6.191   2.592  0.1195 -0.3812 -0.1463
88278CL      CL76302   9.727  10.523   2.912  0.2200 -0.0758 -0.1018
88279CL      CL76303   6.721   1.918   1.278 -0.1171  0.0982  0.2820
88280CL      CL76304   3.531   9.938   9.138 -0.1731 -0.6857  0.3516
88281CL      CL76305   7.233   0.618   0.499  0.5547 -0.3290 -0.0669
88282CL      CL76306   7.354  11.543   7.161  0.0184  0.1932  0.0266
88283CL      CL76307   5.729  10.642   4.864 -0.1555 -0.3938  0.2473
88284CL      CL76308   1.109   1.591   2.152  0.1935 -0.1833 -0.1447
88285CL      CL76309   8.991   4.352   4.817 -0.0352 -0.2637  0.4545
88286CL      CL76310   8.296   6.322   3.617 -0.1128 -0.1838  0.0692
88287CL      CL76311   9.873   4.313  10.700 -0.2194  0.1560  0.0112
88288CL      CL76312  10.548   9.998   4.469 -0.0751  0.0613 -0.3157
88289CL      CL76313   9.740   0.513   3.996  0.1232  0.3926 -0.2475
88290CL      CL76314  11.719  10.619   1.812 -0.2591 -0.1474 -0.1042
88291CL      CL76315   9.775   8.005  12.456 -0.0284  0.3131 -0.0127
88292CL      CL76316   6.365  10.634   7.503 -0.0135 -0.1086  0.2530
88293CL      CL76317   3.082  13.548   2.228 -0.0008  0.2305 -0.3325
88294CL      CL76318   6.323   6.799   6.213 -0.0597 -0.0736 -0.2657
88295CL      CL76319  10.010   5.341   4.303  0.1209  0.4857  0.0098
88296CL      CL76320  11.947   7.538   4.640 -0.0620 -0.0735  0.0384
88297CL      CL76321   0.119   0.308   6.401 -0.3468  0.2168 -0.2491
88298CL      CL76322   3.235   9.137   0.298 -0.1040  0.5268  0.3530
88299CL      CL76323   2.202   0.286  13.855 -0.1419  0.3574 -0.4739
88300CL      CL76324   3.314   1.780  12.236 -0.1227  0.1376  0.1405
88301CL      CL76325   5.786   7.062   3.736  0.2878  0.0107 -0.5938
88302CL      CL76326   6.472   5.406   6.479  0.0611  0.3053 -0.4576
88303CL      CL76327  13.532   9.333   7.901  0.3049 -0.0864  0.0164
88304CL      CL76328   2.995  10.375   7.863  0.1452  0.3688 -0.2017
88305CL      CL76329  13.465  10.454   3.292  0.1288 -0.0711  0.1471
88306CL      CL76330  11.290  12.881   7.192 -0.2567 -0.1128  0.3538
88307CL      CL76331  11.778   8.741  13.623  0.4247  0.0913  0.0330
88308CL      CL76332  10.306   6.934   3.970  0.0992  0.2004 -0.2833
88309CL      CL76333  13.244   7.699  12.273  0.1100 -0.0659 -0.0798
88310CL      CL76334   2.525   4.261  13.157 -0.1279  0.4387  0.2860
88311CL      CL76335   6.125  13.601   8.341  0.2231  0.0174 -0.0534
88312CL      CL76336   8.775  13.972   6.475  0.1143  0.0832  0.0173
88313CL      CL76337   7.953   9.591   9.142 -0.0980  0.1147 -0.1568
88314CL      CL76338   0.500   5.960   9.879  0.5214  0.0908 -0.2222
88315CL      CL76339   3.834  11.868   6.366 -0.4775  0.1374 -0.1714
88316CL      CL76340   0.475   4.273   1.636  0.6179  0.0038  0.5093
88317CL      CL76341   7.301  10.050  11.061  0.1665  0.0550  0.3134
88318CL      CL76342   6.968   7.723  11.591 -0.3061 -0.1037 -0.3654
88319CL      CL76343   4.990   4.945   0.963  0.4054 -0.1437  0.0652
88320CL      CL76344   7.847   9.979   5.326  0.0968 -0.2152  0.4158
88321CL      CL76345   9.822   6.828   5.768 -0.0753  0.1219  0.0385
88322CL      CL76346   5.521   4.045   0.958 -0.3902 -0.0739 -0.4193
88323CL      CL76347   4.673  10.428   9.561  0.1469  0.4824  0.2843
88324CL      CL76348   7.065   9.662   6.824  0.0938  0.4058  0.0616
88325CL      CL76349   8.713  12.982   4.163 -0.3386 -0.4858 -0.0179
88326CL      CL76350  12.536   8.371   9.410  0.6290 -0.0601 -0.4163
88327CL      CL76351   5.904   6.139   6.179 -0.1068 -0.0529 -0.1475
88328CL      CL76352   7.692   5.648   7.970 -0.0150  0.0980 -0.3056
88329CL      CL76353  12.563   7.195   9.034 -0.0250  0.4183 -0.4346
88330CL      CL76354  13.072   4.774  13.317 -0.0006 -0.1062  0.3529
88331CL      CL76355   0.515   0.077  12.750  0.2408 -0.4524 -0.2389
88332CL      CL76356  13.509   2.604   6.326 -0.3870 -0.1780  0.2025
88333CL      CL76357   6.422  12.049   5.820  0.0597 -0.1666  0.5201
88334CL      CL76358  13.480  13.519   3.644 -0.2377  0.3250 -0.0968
88335CL      CL76359   4.473  11.777   7.920 -0.2430 -0.0858  0.2149
88336CL      CL76360   6.213   7.050   5.202 -0.1688  0.2629  0.1343
88337CL      CL76361   9.629   5.905   0.370  0.0329  0.0587  0.4594
88338CL      CL76362   7.778   8.083   7.911  0.2954 -0.1687  0.0842
88339CL      CL76363   5.818   9.543   0.874  0.1441  0.5008 -0.3484
88340CL      CL76364   7.253   6.557   5.410 -0.1875  0.1397  0.0014
88341CL      CL76365   3.199   8.191   3.606 -0.0124  0.1477  0.1523
88342CL      CL76366   5.505  12.696   2.968  0.3224 -0.4598 -0.2129
88343CL      CL76367   2.289  11.319   6.050  0.0253  0.1076  0.3167
88344CL      CL76368   5.338   9.521  11.789  0.0411 -0.0512  0.4120
88345CL      CL76369   9.257   9.100   3.450 -0.1411  0.2944 -0.1081
88346CL      CL76370   4.200   9.944   2.026 -0.1613 -0.1835 -0.2526
88347CL      CL76371  13.182   6.997  13.202 -0.1736  0.0682 -0.1976
88348CL      CL76372   1.529   7.335   7.090  0.2524  0.2712 -0.0295
88349CL      CL76373  12.180  11.763   2.046 -0.2801 -0.1346 -0.4318
88350CL      CL76374   0.373   5.556   2.504  0.0626  0.5018 -0.4319
88351CL      CL76375   3.065   8.129  12.612  0.0808 -0.2193 -0.1595
88352CL      CL76376   5.155   8.066   5.037 -0.0818 -0.1274  0.0295
88353CL      CL76377   0.296  10.424   3.370  0.0137  0.4413 -0.0783
88354CL      CL76378  10.720  10.065   5.867  0.0527 -0.3087 -0.0525
88355CL      CL76379  13.596   7.531   3.191 -0.1980 -0.0908 -0.1375
88356CL      CL76380   5.541   0.299  13.783 -0.4244 -0.1764  0.1855
88357CL      CL76381  11.206   9.170   4.303  0.0177 -0.0362 -0.5989
88358CL      CL76382   0.810   9.621  11.719  0.0603  0.2025  0.1849
88359CL      CL76383   1.400   8.861   4.267  0.2743  0.0965  0.0440
88360CL      CL76384   1.958   4.714   3.257 -0.1681 -0.3110 -0.2821
88361CL      CL76385   5.045   8.575   5.020  0.0457 -0.1786 -0.2043
88362CL      CL76386   6.403   9.435   8.895 -0.2144  0.0260 -0.0323
88363CL      CL76387   8.385   8.229   3.080 -0.3972 -0.1125 -0.2050
88364CL      CL76388   2.404   8.854   3.566 -0.3732  0.2753  0.1081
88365CL      CL76389  12.976  10.966   7.931 -0.2625 -0.3325  0.0780
88366CL      CL76390   7.367   7.840   2.547  0.0500  0.0474  0.2044
88367CL      CL76391  11.680   2.408  11.138 -0.3311 -0.5964 -0.3401
88368CL      CL76392   6.519   4.066   4.414 -0.2504  0.0096 -0.0130
88369CL      CL76393   8.860   3.012  11.552 -0.3783 -0.2115 -0.3007
88370CL      CL76394  12.042   4.028   3.781 -0.5531  0.0500 -0.1628
88371CL      CL76395   6.943   7.335   4.146  0.2278 -0.0946 -0.1645
88372CL      CL76396   1.144   4.463   1.242  0.0351 -0.0990 -0.1102
88373CL      CL76397  12.084   9.947   7.076 -0.0872  0.3879 -0.2799
88374CL      CL76398   8.003  10.400  11.887  0.0048  0.0754  0.0557
88375CL      CL76399  11.753   9.845   8.283 -0.6650 -0.1580 -0.0117
88376CL      CL76400   9.776  13.623   9.138  0.0023  0.3353  0.3718
88377CL      CL76401   0.100   3.100   6.421 -0.1247 -0.0298  0.1644
88378CL      CL76402   7.372   8.260   9.718  0.4579  0.1611 -0.4863
88379CL      CL76403   7.212   9.835   7.784  0.1871  0.2730 -0.0471
88380CL      CL76404   8.515   7.831   3.407 -0.0000  0.1360 -0.0992
88381CL      CL76405   6.854  10.635   7.027  0.1223  0.1660 -0.1275
88382CL      CL76406   9.073  11.440   6.490 -0.2456 -0.3720  0.1808
88383CL      CL76407   6.301   6.036   8.352  0.2308  0.3074  0.5430
88384CL      CL76408   8.539  10.345   1.093 -0.1135 -0.7968  0.0929
88385CL      CL76409   2.783   6.290   7.004 -0.0388  0.1618 -0.2089
88386CL      CL76410   5.201   2.246   7.739 -0.1429  0.1801 -0.2679
88387CL      CL76411   2.842   7.886   4.660  0.3374 -0.5536  0.0743
88388CL      CL76412   5.043   0.155  11.079  0.5825  0.1639 -0.0458
88389CL      CL76413   8.551  12.200   5.494  0.2593  0.0874  0.1131
88390CL      CL76414   7.262  10.190   1.570  0.7269 -0.6137  0.0115
88391CL      CL76415   5.115   9.642   7.423 -0.8102 -0.1960  0.4805
88392CL      CL76416   8.276   7.069  12.763 -0.1124  0.1974 -0.0323
88393CL      CL76417   9.223  12.056   4.170  0.5692  0.2707  0.2278
88394CL      CL76418   1.790   3.713   5.799 -0.2711 -0.1715 -0.0431
88395CL      CL76419   3.426   2.526   7.230  0.1241 -0.2435  0.4132
88396CL      CL76420   1.047   6.457   3.146  0.3106  0.3084  0.1148
88397CL      CL76421   1.440   5.974   7.329  0.0561  0.4129  0.1858
88398CL      CL76422   9.148  10.151   1.689 -0.0737 -0.0572 -0.0703
88399CL      CL76423   7.560  12.018  13.801  0.4835  0.2574 -0.1248
88400CL      CL76424   5.132   0.520   5.711 -0.1425 -0.1928 -0.0372
88401CL      CL76425   4.615   4.871   2.467 -0.1631  0.0827 -0.3449
88402CL      CL76426   9.191   8.915   2.013  0.1041 -0.5156  0.5150
88403CL      CL76427   7.986  13.320   2.859  0.1678  0.2872  0.0620
88404CL      CL76428   7.079  11.034  12.439 -0.2234  0.3287 -0.2505
88405CL      CL76429   7.723   7.456   0.044  0.1326 -0.0371  0.1537
88406CL      CL76430  13.138   1.059   7.268  0.2091 -0.4119 -0.3315
88407CL      CL76431   3.816   5.248   2.658 -0.7532  0.3673  0.1004
88408CL      CL76432   6.785   4.936   2.703  0.2374 -0.1660 -0.0045
88409CL      CL76433   3.637  12.271   4.049 -0.0162 -0.1312  0.1473
88410CL      CL76434   5.151   7.529   3.654  0.2739  0.0741  0.0366
88411CL      CL76435   5.552  11.745   0.819 -0.2270  0.0149  0.2634
88412CL      CL76436   8.894  10.531   1.368  0.4331 -0.0378 -0.2786
88413CL      CL76437   7.183  11.213   2.506  0.2017 -0.4186  0.2150
88414CL      CL76438   6.594   2.454   3.197  0.0916  0.3244  0.0391
88415CL      CL76439   6.016   7.584   5.106 -0.4302  0.2703 -0.0553
88416CL      CL76440  12.475   7.223  12.735  0.1026 -0.0467  0.2952
88417CL      CL76441   9.652   1.598   0.946  0.0874  0.2515 -0.2264
88418CL      CL76442  12.942  12.950   8.044 -0.2395 -0.1296  0.1606
88419CL      CL76443   2.140   8.167   9.770  0.5778  0.1865  0.1996
88420CL      CL76444   8.349   9.119   1.653 -0.6479 -0.5414  0.1015
88421CL      CL76445   1.400  11.607   1.675 -0.1529  0.7521 -0.0808
88422CL      CL76446   6.600  11.355   2.814 -0.1789  0.2736  0.2423
88423CL      CL76447   8.526  12.504  10.240 -0.3770 -0.2785 -0.1729
88424CL      CL76448   8.919   7.681   6.567 -0.3756 -0.4847  0.0280
88425CL      CL76449  14.045   2.366   9.145 -0.0550 -0.3789 -0.1971
88426CL      CL76450  10.987   4.186   9.568  0.0792  0.0265  0.0093
88427CL      CL76451   7.808   7.084   4.433 -0.2680 -0.1194 -0.3013
88428CL      CL76452   4.537  12.690   1.077  0.2681 -0.1529 -0.1934
88429CL      CL76453   8.876   7.418   6.914  0.4980 -0.1078 -0.0880
88430CL      CL76454   7.616   9.754   3.020  0.1930  0.2635 -0.3475
88431CL      CL76455   8.241   6.446   5.344  0.3541 -0.0444 -0.3290
88432CL      CL76456   9.194   8.169   1.993 -0.0050 -0.4305  0.1445
88433CL      CL76457   2.907   8.979   3.914  0.7922 -0.1684 -0.1880
88434CL      CL76458   4.087   6.015   8.579 -0.0799 -0.3413 -0.0878
88435CL      CL76459  11.238   1.310   5.443  0.3663 -0.1716 -0.0603
88436CL      CL76460  10.267   7.688   3.057  0.1408  0.2371 -0.1393
88437CL      CL76461   3.484   0.445  12.698  0.0234 -0.0437 -0.1932
88438CL      CL76462  11.034   8.785   5.723  0.3159 -0.2328 -0.1974
88439CL      CL76463   7.731  11.914   2.560  0.0822  0.9627 -0.0743
88440CL      CL76464  13.243   8.980  10.202 -0.0257 -0.5917  0.0094
88441CL      CL76465   8.535   3.361   7.197  0.1026  0.4829  0.1726
88442CL      CL76466   2.436   2.624   3.614  0.0648 -0.0526 -0.1454
88443CL      CL76467   8.441   9.274   8.961 -0.1787  0.0007  0.0846
88444CL      CL76468   4.600   9.452   4.333 -0.3558 -0.4801  0.1625
88445CL      CL76469   3.490  10.592   4.829  0.0124 -0.2949  0.0306
88446CL      CL76470   8.128   8.134   5.281 -0.0964 -0.0700 -0.1788
88447CL      CL76471   9.646   0.412   7.208  0.1528 -0.2033  0.3531
88448CL      CL76472   8.347  10.744   2.173 -0.0175  0.1186 -0.4181
88449CL      CL76473   0.155  12.009   8.601  0.3480  0.2116 -0.3246
88450CL      CL76474   7.078   6.309   2.199 -0.3161 -0.7001  0.1512
88451CL      CL76475  10.709   7.952   2.125  0.6500  0.4986  0.0402
88452CL      CL76476   5.660   9.971   3.516  0.2982  0.1380 -0.1481
88453CL      CL76477   6.208   5.073   0.827  0.2734  0.1857 -0.2650
88454CL      CL76478   4.692   7.448  13.934 -0.0413 -0.4441 -0.0268
88455CL      CL76479  11.787   7.515  10.242 -0.1886  0.1110 -0.2056
88456CL      CL76480   6.980  11.886   2.580 -0.0326  0.4482  0.3061
88457CL      CL76481   8.947   9.326   3.759 -0.0950 -0.1619  0.1732
88458CL      CL76482   5.539   7.696   8.030 -0.0884  0.5012  0.0599
88459CL      CL76483   7.219  10.882  10.986  0.0170  0.3995 -0.0651
88460CL      CL76484   7.327   3.327  10.517  0.5497 -0.1489 -0.3529
88461CL      CL76485  10.489   5.781  12.989  0.2084 -0.1269 -0.1303
88462CL      CL76486  13.680   2.139  13.828  0.3551 -0.4865  0.0005
88463CL      CL76487  13.674   5.681  11.603 -0.2510 -0.2035 -0.5298
88464CL      CL76488   5.210   2.045   9.863 -0.1640 -0.1228  0.0367
88465CL      CL76489   5.098  11.446  11.135  0.0884 -0.0680 -0.0894
88466CL      CL76490   9.235  11.764   7.517 -0.1016 -0.0773  0.1075
88467CL      CL76491   8.282   8.611  10.168  0.2844 -0.2398 -0.3289
88468CL      CL76492   0.004   1.378   2.303 -0.3244  0.2323 -0.2483
88469CL      CL76493   5.525   8.174   6.930  0.2106 -0.0197 -0.5706
88470CL      CL76494   3.561  11.568   1.790  0.0965 -0.0599  0.0668
88471CL      CL76495   6.718  11.210   8.957 -0.0415  0.0991  0.1158
88472CL      CL76496   8.278   5.430   7.437 -0.1063 -0.4222  0.0270
88473CL      CL76497   7.690  12.905   5.475  0.2790 -0.0326  0.1272
88474CL      CL76498  12.141  11.817   4.232  0.3726  0.0269  0.3789
88475CL      CL76499   8.327   9.259  13.597  0.2981 -0.2007 -0.1972
88476CL      CL76500   4.327   7.435   4.049 -0.2744 -0.3746  0.2881
88477CL      CL76501   4.688   4.857   9.967 -0.1549  0.3499  0.1199
88478CL      CL76502   4.085  12.751   5.332  0.2609  0.5148  0.4363
88479CL      CL76503   0.043  11.985  10.692  0.0421  0.0431 -0.3348
88480CL      CL76504   3.880   7.592   6.240  0.0307 -0.4941  0.1578
88481CL      CL76505   8.610   6.755   5.960 -0.0802  0.5735 -0.1106
88482CL      CL76506  10.279   9.609   0.680  0.3728 -0.4090  0.6661
88483CL      CL76507   5.940   6.086   4.335 -0.0417  0.3806  0.1744
88484CL      CL76508   6.519  10.665   8.253 -0.1727  0.2353  0.1441
88485CL      CL76509   4.504   0.005   6.154 -0.2274  0.4003  0.1214
88486CL      CL76510   6.010   7.210  11.903  0.1751  0.0329 -0.0869
88487CL      CL76511  11.334   7.957   8.742 -0.0604  0.3375  0.3666
88488CL      CL76512   8.474  12.578   0.383 -0.4139 -0.2096  0.2497
88489CL      CL76513   6.254   9.279   6.120  0.0176 -0.3318  0.3490
88490CL      CL76514   7.410  10.925   5.220 -0.0911  0.1069  0.1286
88491CL      CL76515  12.239  10.966   6.104  0.0687 -0.0552  0.1721
88492CL      CL76516   6.045  13.721   7.423 -0.2051 -0.0784 -0.0165
88493CL      CL76517   9.709   9.896   2.953  0.0957  0.6137  0.1314
88494CL      CL76518   6.899   8.083   2.705  0.5725  0.2414 -0.0714
88495CL      CL76519   4.704   4.207  10.836  0.0143  0.5145 -0.1578
88496CL      CL76520   7.255   6.415   7.612 -0.0281 -0.0020  0.1114
88497CL      CL76521   9.163  11.347   4.597 -0.3926  0.3746 -0.1133
88498CL      CL76522   8.657  10.738   6.936  0.3793  0.0952 -0.1126
88499CL      CL76523   7.462   3.068   0.041  0.0722  0.2996  0.2592
88500CL      CL76524  11.322   7.719   2.871  0.3549  0.2505  0.1876
88501CL      CL76525   7.378   4.202   3.848  0.0086  0.4530  0.1352
88502CL      CL76526   3.158   6.739   3.317 -0.0009  0.0689 -0.0203
88503CL      CL76527   5.340   8.979   9.860  0.3863  0.1352 -0.1232
88504CL      CL76528   6.672  12.396   8.375 -0.0029 -0.0933  0.0849
88505CL      CL76529   8.846   9.478   6.152 -0.0071 -0.1382 -0.1264
88506CL      CL76530   2.416   6.665   4.850 -0.1007 -0.0801 -0.1390
88507CL      CL76531   7.126   3.885   6.820  0.1348  0.1463  0.0417
88508CL      CL76532   6.566  10.351   4.046 -0.1121 -0.0832  0.1845
88509CL      CL76533   7.311   8.339   4.118  0.0426  0.0832 -0.2481
88510CL      CL76534   9.393   6.786   0.216 -0.6744 -0.3955  0.2281
88511CL      CL76535   9.281  10.898   5.191 -0.0043 -0.1924  0.2919
88512CL      CL76536  11.098   8.573   5.049 -0.3726  0.3027  0.0637
88513CL      CL76537   5.689   6.811   4.705  0.1914 -0.3620  0.1859
88514CL      CL76538  13.565   2.563   2.675 -0.2215  0.0359  0.1118
88515CL      CL76539  13.691   8.799   7.746  0.0763  0.1558 -0.2302
88516CL      CL76540   1.054   6.431  11.776  0.3005 -0.1705  0.1344
88517CL      CL76541   4.564  11.244   5.819  0.5649  0.0246 -0.0436
88518CL      CL76542  11.588   1.228   1.801  0.2689  0.1086  0.1156
88519CL      CL76543   9.918   8.841   6.275 -0.0210  0.0687 -0.0553
88520CL      CL76544  12.852   0.915   0.972  0.3024  0.0083  0.4731
88521CL      CL76545   5.798  11.644   2.922 -0.4131 -0.0237  0.1580
88522CL      CL76546   7.054   2.151  12.427 -0.1997  0.0572 -0.4632
88523CL      CL76547  11.264  13.638   8.940 -0.3764 -0.2020 -0.0661
88524CL      CL76548   0.156   4.936   2.760 -0.3608  0.2560  0.4110
88525CL      CL76549   2.322   2.839   6.102 -0.2945 -0.0075  0.0838
88526CL      CL76550   8.720   7.151   4.919  0.0018 -0.4109  0.4606
88527CL      CL76551   6.283   8.191   2.079  0.1531  0.1791 -0.0382
88528CL      CL76552   1.721  13.000  10.195  0.2018 -0.1985 -0.1841
88529CL      CL76553  12.453   2.635  11.791  0.2508 -0.0702  0.2078
88530CL      CL76554   8.822   8.751   4.639 -0.2343  0.5300  0.0099
88531CL      CL76555   3.724   9.018   8.047 -0.2026  0.2445  0.3181
88532CL      CL76556   7.640  13.029   6.176 -0.0385  0.2587 -0.2120
88533CL      CL76557   6.605  12.491   4.507 -0.0325 -0.1879 -0.1228
88534CL      CL76558   5.305   7.993  10.662  0.0564 -0.0023  0.0411
88535CL      CL76559   4.834   8.812   4.170  0.2208 -0.2934  0.0474
88536CL      CL76560   2.179   4.278   9.482 -0.3693  0.1893  0.1161
88537CL      CL76561   8.431  10.538   4.707 -0.4806  0.1544  0.1483
88538CL      CL76562   4.234   8.689   2.724 -0.0842  0.1298 -0.2704
88539CL      CL76563   1.832   1.495  10.553 -0.2180  0.1216 -0.3026
88540CL      CL76564   8.572   8.085   4.483 -0.3097  0.4641 -0.3545
88541CL      CL76565   7.503   8.062   6.058 -0.0475  0.1327 -0.3357
88542CL      CL76566  13.168  13.797  13.724 -0.2246 -0.0570 -0.2943
88543CL      CL76567   5.514   6.469   5.079 -0.1969 -0.2770 -0.1888
88544CL      CL76568   6.653   0.075  12.975  0.0623 -0.3343 -0.1090
88545CL      CL76569   4.719   0.327   4.508 -0.2510  0.0563 -0.3742
88546CL      CL76570   7.431   6.865   4.707  0.3356  0.2668 -0.3710
88547CL      CL76571  10.641   9.907   7.223 -0.0254 -0.2849 -0.4538
88548CL      CL76572   7.971   9.564  10.939 -0.3839 -0.3491 -0.4937
88549CL      CL76573   6.389   8.530   6.011 -0.1380  0.2429  0.0455
88550CL      CL76574  13.627  12.248   6.022  0.2885 -0.3909  0.0929
88551CL      CL76575  10.571   1.785  12.962 -0.4388  0.0907 -0.0681
88552CL      CL76576   5.250  13.443   2.485 -0.2922 -0.0252  0.4116
88553CL      CL76577   9.480   8.984  10.392 -0.1657 -0.3057  0.0979
88554CL      CL76578   3.395  10.732  13.446 -0.2250  0.4503 -0.0649
88555CL      CL76579   2.850   7.816   6.804 -0.1433 -0.0960 -0.1263
88556CL      CL76580   9.777   6.107   3.271  0.4944  0.0284  0.0532
88557CL      CL76581  10.930  10.503   3.024 -0.0004 -0.1421 -0.0544
88558CL      CL76582  13.942   2.239   4.616  0.0480 -0.1640  0.0544
88559CL      CL76583  10.059  10.151   8.462 -0.2163  0.2172  0.0357
88560CL      CL76584   8.050  12.892   8.322 -0.2500 -0.2269  0.2704
88561CL      CL76585   2.722   8.863   7.859  0.1224 -0.2759  0.0338
88562CL      CL76586  12.581  12.176  12.636  0.2296 -0.2501  0.3337
88563CL      CL76587   7.742  13.848  12.900  0.0563 -0.0961  0.2256
88564CL      CL76588   1.639  12.041  10.656 -0.1084 -0.0274  0.2076
88565CL      CL76589   2.363   8.401   0.794 -0.2089  0.1395  0.6306
88566CL      CL76590   7.505   7.028  10.874  0.0568 -0.2214  0.0446
88567CL      CL76591   5.088  13.872   4.060 -0.1261 -0.0147 -0.5802
88568CL      CL76592   5.451   6.437  12.498  0.3185  0.0646 -0.2481
88569CL      CL76593   4.260   7.473  11.445  0.1887 -0.1033  0.0696
88570CL      CL76594   6.944   2.312  13.508  0.0042 -0.2026 -0.2996
88571CL      CL76595   3.256   2.435   5.833  0.0806  0.1235 -0.2229
88572CL      CL76596   3.753   9.044   5.213  0.0974  0.2684 -0.0454
88573CL      CL76597   8.947   5.616   5.967 -0.1557 -0.7469 -0.2876
88574CL      CL76598   0.290   3.445  11.498  0.2991  0.4793 -0.0753
88575CL      CL76599   4.490  10.214   6.702 -0.6134 -0.4000  0.4037
88576CL      CL76600   6.790   3.353   5.399  0.1702 -0.0345 -0.1167
88577CL      CL76601  13.125   2.645   5.546  0.0794 -0.2847  0.1121
88578CL      CL76602   9.559  10.144   6.147 -0.3914  0.0178 -0.1887
88579CL      CL76603   8.789   8.851   1.795  0.1928 -0.3832 -0.1513
88580CL      CL76604   8.769  11.504  11.253 -0.1101  0.6465  0.1743
88581CL      CL76605  11.690   8.572  11.729  0.2082 -0.3007  0.0933
88582CL      CL76606   4.451  11.573  10.435  0.3535  0.1881 -0.2041
88583CL      CL76607   6.761  12.006   7.083  0.3614  0.0628  0.2106
88584CL      CL76608   3.631   1.668   7.881 -0.2174 -0.0832  0.3633
88585CL      CL76609   5.320  13.526   6.045  0.5699 -0.3725 -0.1084
88586CL      CL76610   7.423  12.456   0.404  0.2424  0.1931 -0.3423
88587CL      CL76611   4.707   1.939  10.003  0.3349 -0.2572 -0.2906
88588CL      CL76612   8.311   7.911   9.020  0.0352  0.4395 -0.3442
88589CL      CL76613   5.943   1.802   5.895  0.1110  0.1708  0.0854
88590CL      CL76614   2.180   9.588   3.049  0.2357  0.0492 -0.0024
88591CL      CL76615   9.970   9.008  13.870 -0.0287 -0.3477  0.1215
88592CL      CL76616   6.142   7.981   7.413 -0.2999  0.0063  0.1002
88593CL      CL76617  13.145   9.819   0.356  0.0899  0.4051  0.0584
88594CL      CL76618  13.785   9.709   1.129  0.4971  0.6453  0.4009
88595CL      CL76619   8.102  12.767   5.634 -0.0034  0.1735  0.5697
88596CL      CL76620   4.893  10.877   3.274 -0.1488 -0.3591  0.4530
88597CL      CL76621  13.020   1.975  10.629 -0.4229  0.2655  0.1479
88598CL      CL76622   3.200   6.414  13.365 -0.4509  0.0138 -0.2426
88599CL      CL76623   9.510  12.867   0.341 -0.3591  0.0034 -0.3130
88600CL      CL76624  10.275   5.954   7.892  0.0056 -0.1571 -0.0041
88601CL      CL76625  10.089   8.266   4.364  0.2446 -0.2442 -0.1938
88602CL      CL76626  10.666  10.534   9.192 -0.0594  0.3391 -0.0282
88603CL      CL76627  13.781   9.616   4.300 -0.0417 -0.2373 -0.1504
88604CL      CL76628  13.935   8.199   1.101 -0.0984  0.1040  0.3213
88605CL      CL76629   1.353  11.633   9.299 -0.4916  0.0583  0.2631
88606CL      CL76630   6.511   8.184   1.253 -0.3218  0.1275  0.2060
88607CL      CL76631  10.133   5.595   6.265  0.1840  0.1287  0.0421
88608CL      CL76632   8.678   6.955   3.069 -0.1410 -0.0103  0.1398
88609CL      CL76633   8.901   7.494   1.491  0.0434 -0.0113  0.0370
88610CL      CL76634  10.980  11.823   6.240  0.2793  0.0087 -0.1203
88611CL      CL76635   6.704  12.057   4.292  0.1724 -0.1818 -0.2134
88612CL      CL76636   9.831  10.927   4.181 -0.1347  0.0500  0.0589
88613CL      CL76637  11.561   3.344   4.462  0.0214  0.0902  0.0534
88614CL      CL76638   3.182   0.227   4.169  0.0261 -0.1795  0.0189
88615CL      CL76639  12.212  13.016  12.094  0.0830 -0.2481 -0.7124
88616CL      CL76640   3.407   6.641   4.895  0.2263  0.1878 -0.1563
88617CL      CL76641   5.673  11.505   4.617 -0.3384 -0.1024 -0.1798
88618CL      CL76642   0.874   2.491   9.108 -0.1550 -0.0290 -0.6006
88619CL      CL76643   8.152   2.591   6.914  0.4701  0.0524  0.0143
88620CL      CL76644   6.679  10.318   9.614 -0.4021 -0.4626  0.1497
88621CL      CL76645   5.278   7.338   5.061  0.2695 -0.4795  0.0426
88622CL      CL76646   9.308   8.614   4.827 -0.0430 -0.3714  0.2912
88623CL      CL76647   5.425  10.960   8.365 -0.1759 -0.1016  0.1252
88624CL      CL76648  10.882   4.107  13.752  0.4233 -0.3572  0.0459
88625CL      CL76649   7.489  13.618   2.441 -0.1505  0.1807  0.1135
88626CL      CL76650  10.499   2.896   5.816 -0.0515 -0.2014 -0.0371
88627CL      CL76651   8.805   9.061   7.419  0.1116  0.0870  0.5002
88628CL      CL76652   8.946   9.548  13.945 -0.0401  0.2930  0.3780
88629CL      CL76653   6.022   8.108   3.115  0.0334 -0.0587 -0.1975
88630CL      CL76654   3.094   8.042  13.672 -0.1976  0.0071  0.0676
88631CL      CL76655   4.378   4.885   9.573 -0.1786 -0.0294  0.3237
88632CL      CL76656   6.544   8.095   6.786  0.2369  0.3677 -0.4844
88633CL      CL76657   4.866   8.558   8.333  0.4482  0.1234 -0.0561
88634CL      CL76658  14.024  11.305   2.388 -0.3920  0.1553  0.3432
88635CL      CL76659  12.223   8.773  10.300 -0.0257  0.5150 -0.0230
88636CL      CL76660   0.328   3.786   5.617  0.1306  0.0771  0.3055
88637CL      CL76661   0.915   3.553   1.353 -0.1959 -0.3038  0.1858
88638CL      CL76662   9.568   9.693   5.424 -0.0306  0.3002 -0.3082
88639CL      CL76663   7.756   9.790   8.316 -0.5384 -0.0267  0.0195
88640CL      CL76664  10.262   2.369  11.665  0.1961 -0.1840 -0.0139
88641CL      CL76665   6.314   6.374   9.113  0.1486  0.0195  0.0906
88642CL      CL76666   4.223  13.467   3.046  0.0697  0.3887 -0.3350
88643CL      CL76667   1.658  13.605   7.294  0.1570  0.3478  0.0249
88644CL      CL76668  13.154   8.531   7.860  0.2635 -0.1018  0.1430
88645CL      CL76669   7.450   5.574   4.404  0.3534  0.0693 -0.0264
88646CL      CL76670   1.857   7.490  13.342 -0.4813 -0.1150  0.3540
88647CL      CL76671  11.534   3.792  10.837  0.0795 -0.1608 -0.0437
88648CL      CL76672   5.936   7.314   2.568 -0.4113  0.3947 -0.3593
88649CL      CL76673  12.507   5.962   9.968 -0.3231  0.1800  0.0256
88650CL      CL76674   1.125  11.718   4.209  0.0652  0.2404  0.0524
88651CL      CL76675   5.504   1.501  12.135  0.2447  0.0934  0.0053
88652CL      CL76676  13.469   5.331   9.457  0.1212 -0.0311  0.2701
88653CL      CL76677   8.649   6.618   8.176  0.3615 -0.2636  0.2954
88654CL      CL76678   0.021   0.943   3.651  0.0444 -0.3226  0.0323
88655CL      CL76679   2.621   2.222   6.646  0.1589  0.0783  0.1222
88656CL      CL76680   7.722  10.467   2.475  0.3133 -0.3596 -0.5186
88657CL      CL76681   5.685   2.126  13.193  0.2610  0.0503  0.3985
88658CL      CL76682  11.923  10.613   9.577  0.6065  0.2922 -0.0687
88659CL      CL76683  10.768   6.930   4.867  0.2221  0.1956 -0.0070
88660CL      CL76684   4.870   9.269   3.613  0.1632  0.3863  0.4007
88661CL      CL76685  13.316   7.556   7.501 -0.2527  0.1882 -0.1165
88662CL      CL76686   2.241   8.442   7.473 -0.1487 -0.2807 -0.3564
88663CL      CL76687  10.612  11.131  13.939  0.0016  0.0320 -0.1318
88664CL      CL76688   6.836   1.297   6.206 -0.2707 -0.0117  0.8708
88665CL      CL76689   3.856  11.658   8.578  0.4921  0.0271  0.1248
88666CL      CL76690   9.517   8.863   2.406 -0.0221 -0.2800 -0.2244
88667CL      CL76691   6.035  13.997   5.425  0.2256  0.2176 -0.2100
88668CL      CL76692   9.625  12.463   3.202 -0.2759 -0.1155 -0.3398
88669CL      CL76693   5.835   8.649   7.762  0.2944  0.3550  0.1851
88670CL      CL76694   4.978   9.030   5.827  0.2193  0.1235  0.1823
88671CL      CL76695   7.673   6.722   6.849  0.0409  0.0824  0.2714
88672CL      CL76696   8.027   1.088   9.550  0.3420 -0.2917 -0.0766
88673CL      CL76697   1.083   5.404   9.507 -0.1487 -0.0683  0.1684
88674CL      CL76698   4.495   8.346   8.575  0.4534 -0.1596  0.0173
88675CL      CL76699  13.196   9.041   5.925  0.1525  0.0447 -0.2150
88676CL      CL76700  12.930   3.551   6.099  0.0356  0.3857  0.3004
88677CL      CL76701   2.781   8.899   2.833 -0.0758  0.1041 -0.0152
88678CL      CL76702  12.463   0.407   9.821 -0.0160  0.0788  0.3286
88679CL      CL76703  12.046  11.519  12.102  0.4460 -0.3196 -0.4710
88680CL      CL76704   3.317   8.849   9.127  0.1878 -0.2520 -0.3555
88681CL      CL76705   6.223  10.186   2.244  0.5322  0.2787 -0.1516
88682CL      CL76706   2.374  10.051   8.438  0.0208 -0.4673 -0.1807
88683CL      CL76707   5.392   0.108   0.889  0.4962 -0.0753 -0.4008
88684CL      CL76708   7.271  11.537   5.992  0.0837  0.2153  0.0533
88685CL      CL76709   8.869  11.275   7.109  0.5043  0.6720  0.0176
88686CL      CL76710   5.166  11.159   4.174 -0.6355  0.2774 -0.1465
88687CL      CL76711   8.716   8.391   9.451  0.1492  0.0641 -0.0462
88688CL      CL76712  12.913   9.906   5.760 -0.1503  0.0842  0.0871
88689CL      CL76713   9.396   3.953   2.338 -0.1514 -0.0874  0.4762
88690CL      CL76714   8.667   3.265  10.455  0.6717  0.0389 -0.1805
88691CL      CL76715   2.027  10.095   3.230 -0.0635 -0.0755  0.1438
88692CL      CL76716   8.089   8.635   5.785  0.1867 -0.3166  0.4145
88693CL      CL76717  10.730   3.470   0.418  0.2539 -0.0810  0.0070
88694CL      CL76718   1.486  10.438  10.402  0.4949  0.5058 -0.1412
88695CL      CL76719   8.596  12.227   4.982  0.4574  0.4492 -0.2385
88696CL      CL76720   2.170   3.873   0.644  0.3631  0.3021  0.0629
88697CL      CL76721   4.166   7.879   7.729 -0.2235  0.0876  0.3571
88698CL      CL76722   5.498  10.548   7.479 -0.1245 -0.2799  0.3193
88699CL      CL76723   2.498   7.560   7.044  0.1087 -0.1724  0.1022
88700CL      CL76724   9.820  11.477   9.049  0.1023 -0.1311  0.4126
88701CL      CL76725   9.875   8.067   8.432 -0.1242 -0.0310 -0.1460
88702CL      CL76726   7.602   9.542   1.374  0.4382  0.3040 -0.3370
88703CL      CL76727   9.040   4.483   1.636 -0.1567  0.3213 -0.3754
88704CL      CL76728   2.136  11.887   2.067  0.2307  0.1858  0.1181
88705CL      CL76729   7.413  12.402   3.992  0.2824  0.2370  0.1612
88706CL      CL76730   5.774  12.014   2.114 -0.1186 -0.5204 -0.2203
88707CL      CL76731   7.215   0.989   8.552 -0.4497  0.5753  0.0763
88708CL      CL76732   9.927  10.481   4.066 -0.0456 -0.1792  0.3096
88709CL      CL76733   0.956   8.936   7.807 -0.1725  0.5757  0.3834
88710CL      CL76734   6.149   7.567   7.062 -0.1569 -0.4853  0.1384
88711CL      CL76735   7.412   9.802   5.504 -0.2226 -0.2943  0.0765
88712CL      CL76736   8.256   3.601  12.380 -0.3851  0.1128 -0.3956
88713CL      CL76737  13.884   6.080   9.035  0.1362  0.2219 -0.0093
88714CL      CL76738   3.471  11.276   5.652  0.0358  0.0579 -0.1873
88715CL      CL76739   1.581   3.220   9.642  0.3304  0.3342  0.0240
88716CL      CL76740   2.508  10.324   7.617 -0.3213 -0.0390 -0.1189
88717CL      CL76741  10.696   7.089  13.303  0.3089  0.4233  0.7600
88718CL      CL76742  11.042   2.821   8.785 -0.0709  0.1042 -0.0523
88719CL      CL76743   6.408   9.231   3.517  0.2424 -0.0776  0.3530
88720CL      CL76744   4.647  13.899   0.758  0.0786  0.1222 -0.4116
88721CL      CL76745  10.353  13.602   2.142 -0.1935  0.2245 -0.0050
88722CL      CL76746  12.609  13.087  10.722  0.1021 -0.0260 -0.2423
88723CL      CL76747  11.233   3.416   1.953  0.0523  0.2864  0.2671
88724CL      CL76748   6.159   7.886  10.727  0.2555 -0.4689 -0.4087
88725CL      CL76749   5.276   3.832   3.701 -0.0317  0.2385 -0.0303
88726CL      CL76750   1.125   5.653  13.242  0.2020 -0.0413  0.4812
88727CL      CL76751  10.524   7.722   5.813 -0.0819 -0.1466 -0.0172
88728CL      CL76752   2.981   8.461  11.644 -0.3368  0.1771 -0.2863
88729CL      CL76753   7.653   4.825   7.008 -0.5415 -0.0281 -0.0309
88730CL      CL76754  10.945   0.170   7.506  0.1055 -0.4529  0.3322
88731CL      CL76755   6.914   7.054   2.364 -0.2885  0.1131 -0.3498
88732CL      CL76756   4.186   9.966  10.603  0.7397 -0.0778  0.0618
88733CL      CL76757   4.640   6.367   3.449 -0.0191  0.2592 -0.1898
88734CL      CL76758   0.421  13.149   7.880 -0.0874  0.5940  0.1996
88735CL      CL76759   5.705   2.409   6.977 -0.3587 -0.2347 -0.4207
88736CL      CL76760   1.707   3.645  13.225 -0.1098 -0.5159 -0.0822
88737CL      CL76761   6.809   3.920   9.819  0.3406  0.1489  0.0092
88738CL      CL76762   6.148   9.421   5.503 -0.0020 -0.1527  0.2922
88739CL      CL76763  11.341   6.204   9.555 -0.2030  0.2059 -0.4041
88740CL      CL76764   1.430   3.190   3.325 -0.5635 -0.3564  0.0360
88741CL      CL76765  12.834   0.489   2.685  0.4479 -0.3736  0.3624
88742CL      CL76766   7.491  12.967   6.971  0.1427 -0.2624 -0.2856
88743CL      CL76767   5.367   1.225   9.193 -0.0267  0.0135  0.0334
88744CL      CL76768  11.437   2.828  13.612 -0.4236  0.1236  0.1593
88745CL      CL76769  10.151  12.537   4.003  0.1578  0.0588 -0.0929
88746CL      CL76770   7.908   4.328  13.859  0.1222  0.0695  0.2430
88747CL      CL76771   7.368  13.629   3.175 -0.3767 -0.3290  0.3312
88748CL      CL76772   9.191   8.394   7.023  0.5101 -0.1902  0.2242
88749CL      CL76773  12.146   9.717   6.688  0.1344 -0.1810  0.1987
88750CL      CL76774   7.236   5.024  12.438  0.2242  0.2608 -0.1695
88751CL      CL76775   6.239  12.632   4.840  0.3536 -0.1087 -0.1524
88752CL      CL76776  13.686   5.471   1.190  0.0712  0.1412 -0.2059
88753CL      CL76777   0.855   6.788   4.117  0.0427  0.0139  0.1959
88754CL      CL76778   8.443   0.395   0.171 -0.0079 -0.0225 -0.2881
88755CL      CL76779   4.210   7.340   6.436  0.1193  0.1401 -0.0331
88756CL      CL76780   4.914   7.626   9.054 -0.0223 -0.1943  0.1076
88757CL      CL76781   6.525   6.074  10.978  0.1152 -0.1958 -0.2923
88758CL      CL76782  12.311  11.572   1.684  0.1689  0.3337  0.0492
88759CL      CL76783   1.419   8.868  12.832 -0.1815 -0.3837 -0.0105
88760CL      CL76784   4.747   3.846   4.453  0.0522 -0.0054  0.4525
88761CL      CL76785   2.888   4.595   6.063 -0.3332 -0.2995 -0.0923
88762CL      CL76786  11.492   6.904   4.825  0.2295  0.2966 -0.2153
88763CL      CL76787   0.072  13.906   5.551 -0.1223  0.3331  0.4352
88764CL      CL76788   6.732   7.078   7.936 -0.1485 -0.0051 -0.3522
88765CL      CL76789   7.374   9.357   7.486 -0.2880  0.1217 -0.1396
88766CL      CL76790   7.433  11.938   0.268 -0.2076 -0.1226  0.1369
88767CL      CL76791   9.707  12.213   9.159  0.2258  0.0480  0.3436
88768CL      CL76792   0.009   2.474   9.783  0.2109  0.5038  0.0936
88769CL      CL76793   9.138   2.158  14.001 -0.1975 -0.2976  0.4548
88770CL      CL76794   4.605  11.318   4.279  0.4725  0.1193  0.3413
88771CL      CL76795   4.167  13.381   7.500  0.1776  0.4007  0.0709
88772CL      CL76796  11.914   6.117   3.466 -0.2986  0.1174  0.5428
88773CL      CL76797   8.898  12.234   6.783 -0.2955 -0.0623  0.4171
88774CL      CL76798   8.540   9.191   5.621  0.0366  0.0556 -0.4463
88775CL      CL76799   5.789   9.224   3.566 -0.1828 -0.1040 -0.4021
88776CL      CL76800   3.981   5.563   4.957 -0.1095  0.2392 -0.2739
88777CL      CL76801   6.298   9.155   1.869  0.8462 -0.6530  0.2699
88778CL      CL76802   2.378   8.851   5.692  0.0132  0.2355  0.4459
88779CL      CL76803  10.363  12.015   4.852  0.0412 -0.3718  0.2977
88780CL      CL76804   1.757  13.212  12.456 -0.1143  0.2805 -0.0816
88781CL      CL76805   7.425   9.452   4.561  0.3226 -0.4330  0.1363
88782CL      CL76806   9.967   5.778   8.185 -0.2112  0.0263  0.1401
88783CL      CL76807   3.802   5.401  10.421  0.0842  0.2796  0.0186
88784CL      CL76808  10.939   5.045  10.907 -0.2535 -0.1411  0.2291
88785CL      CL76809   6.299  11.399   7.536  0.1686  0.0063  0.3721
88786CL      CL76810   8.146  11.344   3.442 -0.0882  0.0520 -0.0797
  14.04597  14.04597  14.04597
